cancer0
299782
    1DOPC   NC3    1   2.148  10.333  14.517 -0.1793 -0.1372  0.2375
    1DOPC   PO4    2   1.764  10.384  14.370 -0.2053 -0.1045  0.0497
    1DOPC   GL1    3   1.467  10.533  14.095 -0.0987  0.1708 -0.0952
    1DOPC   GL2    4   1.613  10.870  14.135  0.0255 -0.1479 -0.1811
    1DOPC   C1A    5   1.399  10.388  13.655 -0.2161 -0.0057  0.1743
    1DOPC   D2A    6   1.217  10.322  13.260  0.3386  0.0652 -0.1273
    1DOPC   C3A    7   1.351  10.679  13.003  0.0596 -0.0172 -0.1610
    1DOPC   C4A    8   1.646  10.853  12.651 -0.1759 -0.2810  0.3525
    1DOPC   C1B    9   1.795  10.686  13.754 -0.2420 -0.0805 -0.0572
    1DOPC   D2B   10   1.905  10.348  13.475  0.1542 -0.0729  0.1116
    1DOPC   C3B   11   2.317  10.340  13.250  0.0834 -0.1272  0.1792
    1DOPC   C4B   12   2.718  10.180  13.080  0.3000 -0.0999  0.1994
    2DOPC   NC3   13   7.133   2.235  14.709  0.1627 -0.2094  0.3295
    2DOPC   PO4   14   7.473   2.113  14.547  0.3563 -0.3462 -0.3321
    2DOPC   GL1   15   7.575   2.220  14.131  0.0875 -0.0084  0.2787
    2DOPC   GL2   16   7.824   2.317  14.004 -0.1313  0.1265  0.2437
    2DOPC   C1A   17   7.380   2.354  13.772 -0.1716  0.1311 -0.1354
    2DOPC   D2A   18   7.379   2.456  13.298 -0.2773 -0.0256  0.1836
    2DOPC   C3A   19   7.169   2.823  13.154  0.1903  0.2319  0.2002
    2DOPC   C4A   20   7.207   3.281  13.086  0.0614  0.0199  0.0180
    2DOPC   C1B   21   8.159   2.064  13.817 -0.1246  0.1126 -0.1032
    2DOPC   D2B   22   8.493   1.831  13.518 -0.2301  0.2718 -0.2073
    2DOPC   C3B   23   8.616   2.098  13.220  0.1888  0.2857  0.0270
    2DOPC   C4B   24   8.823   1.942  12.876 -0.3070  0.1121 -0.2166
    3DOPE   NH3   25  10.484  12.228  13.449  0.0578 -0.1198 -0.0202
    3DOPE   PO4   26  10.377  12.296  13.152 -0.2399 -0.0112 -0.0585
    3DOPE   GL1   27  10.316  12.056  12.872  0.0873 -0.5093 -0.0931
    3DOPE   GL2   28  10.320  11.779  12.899  0.2618 -0.1169 -0.0420
    3DOPE   C1A   29  10.258  12.111  12.421  0.0358  0.0103  0.3087
    3DOPE   D2A   30   9.925  12.180  12.187 -0.0157  0.3039 -0.0011
    3DOPE   C3A   31  10.032  11.994  11.755  0.0356 -0.2096  0.1606
    3DOPE   C4A   32   9.879  11.755  11.402  0.1058  0.2799  0.0890
    3DOPE   C1B   33  10.350  11.564  12.574  0.3134  0.0787  0.2188
    3DOPE   D2B   34  10.370  11.604  12.106 -0.0715 -0.1603  0.2521
    3DOPE   C3B   35  10.181  11.448  11.728  0.0498 -0.0028  0.3554
    3DOPE   C4B   36  10.036  11.266  11.273 -0.0405 -0.2519  0.0679
    4DOPE   NH3   37   0.897  12.841  14.941 -0.3738  0.1663 -0.0342
    4DOPE   PO4   38   0.909  12.486  14.893 -0.2110  0.3242  0.2634
    4DOPE   GL1   39   1.116  12.532  14.520  0.1947  0.5402  0.0107
    4DOPE   GL2   40   1.403  12.460  14.448  0.0578  0.1500 -0.0464
    4DOPE   C1A   41   1.084  12.497  14.039 -0.1627 -0.1890 -0.1100
    4DOPE   D2A   42   0.909  12.586  13.635  0.0479  0.0453 -0.2258
    4DOPE   C3A   43   0.577  12.392  13.468  0.0509  0.2804 -0.0197
    4DOPE   C4A   44   0.441  12.138  13.146 -0.0600 -0.4020  0.2902
    4DOPE   C1B   45   1.584  12.318  14.031 -0.0925  0.1641  0.0208
    4DOPE   D2B   46   1.423  12.304  13.574  0.4778  0.0567  0.1825
    4DOPE   C3B   47   1.647  12.245  13.233 -0.3199 -0.0905 -0.0162
    4DOPE   C4B   48   1.874  12.346  12.825 -0.2879  0.1789  0.0093
    5DOPC   NC3   49   8.539  13.252  13.712 -0.0369  0.1053 -0.0211
    5DOPC   PO4   50   8.678  13.106  13.382  0.2348  0.1881  0.1685
    5DOPC   GL1   51   8.840  12.854  13.059  0.0867 -0.0962  0.0773
    5DOPC   GL2   52   8.711  13.012  12.881 -0.0607  0.0192 -0.0379
    5DOPC   C1A   53   9.133  12.683  12.711 -0.2666  0.0874 -0.0755
    5DOPC   D2A   54   9.178  12.692  12.238  0.1972  0.4185  0.0514
    5DOPC   C3A   55   9.605  12.649  12.021  0.1753 -0.0813 -0.0453
    5DOPC   C4A   56   9.832  12.709  11.602  0.0563  0.2440 -0.1997
    5DOPC   C1B   57   8.701  13.370  12.560 -0.1026  0.0460 -0.0520
    5DOPC   D2B   58   8.577  13.669  12.228 -0.0233 -0.2793  0.3116
    5DOPC   C3B   59   8.932  13.477  11.963 -0.1721  0.1126  0.2145
    5DOPC   C4B   60   9.308  13.144  12.013  0.0506  0.1696  0.0305
    6DOPC   NC3   61   9.723  11.488  13.530 -0.0012  0.1714  0.1343
    6DOPC   PO4   62   9.926  11.808  13.535  0.3233 -0.0920 -0.1457
    6DOPC   GL1   63   9.896  11.683  13.063 -0.4261 -0.1121 -0.0053
    6DOPC   GL2   64   9.620  11.839  13.112  0.1729  0.2096  0.2444
    6DOPC   C1A   65   9.800  11.361  12.749  0.1730  0.2883 -0.0753
    6DOPC   D2A   66   9.501  11.124  12.409  0.1815  0.2897 -0.1060
    6DOPC   C3A   67   9.814  11.079  12.075  0.0211 -0.0026  0.1636
    6DOPC   C4A   68  10.063  10.821  11.717  0.0715 -0.0045  0.0512
    6DOPC   C1B   69   9.752  11.905  12.642  0.0244  0.0218  0.1177
    6DOPC   D2B   70   9.888  11.633  12.295 -0.0294  0.3399  0.0972
    6DOPC   C3B   71   9.667  11.637  11.904  0.0905 -0.0803 -0.0630
    6DOPC   C4B   72   9.561  11.318  11.565  0.0726  0.1317  0.2118
    7POSM   NC3   73   4.044   3.304  14.481  0.0411 -0.0455 -0.1791
    7POSM   PO4   74   4.054   2.939  14.332 -0.3563  0.0475  0.2469
    7POSM   AM1   75   4.066   2.912  13.993  0.4045  0.0632  0.3276
    7POSM   AM2   76   4.149   2.703  13.849  0.2908 -0.0415 -0.1733
    7POSM   T1A   77   4.004   3.123  13.548 -0.0781  0.1253  0.1105
    7POSM   C2A   78   4.007   3.105  13.101 -0.1950  0.1334 -0.1347
    7POSM   C3A   79   4.089   3.039  12.671 -0.3503 -0.4109 -0.1600
    7POSM   C1B   80   4.298   2.558  13.574  0.0943 -0.2787  0.2240
    7POSM   D2B   81   4.298   2.618  13.104 -0.1764  0.0236  0.2135
    7POSM   C3B   82   4.070   2.547  12.730 -0.0275  0.3537 -0.0522
    7POSM   C4B   83   3.959   2.134  12.465 -0.2423 -0.2934 -0.2006
    8DOPS   CNO   84  10.261   8.699  14.006 -0.1986  0.0811 -0.0129
    8DOPS   PO4   85  10.253   8.574  13.658 -0.0848 -0.2066 -0.2400
    8DOPS   GL1   86  10.216   8.385  13.344  0.3195 -0.1069 -0.3839
    8DOPS   GL2   87  10.467   8.416  13.122 -0.2530  0.1370  0.2039
    8DOPS   C1A   88   9.977   8.151  13.032 -0.0626  0.0291  0.0128
    8DOPS   D2A   89   9.651   8.007  12.752 -0.2511 -0.1865 -0.0202
    8DOPS   C3A   90   9.406   8.421  12.537  0.0375  0.1208  0.1479
    8DOPS   C4A   91   9.537   8.784  12.238 -0.0924 -0.2893 -0.2304
    8DOPS   C1B   92  10.140   8.749  13.021 -0.3489  0.1711  0.2812
    8DOPS   D2B   93  10.163   9.238  12.915 -0.0820 -0.2677 -0.1314
    8DOPS   C3B   94  10.040   9.480  12.521  0.0482  0.0774  0.1755
    8DOPS   C4B   95  10.047   9.636  12.073 -0.3451  0.1375  0.2622
    9DOPC   NC3   96   5.185   1.188  14.398 -0.2463  0.0342  0.0805
    9DOPC   PO4   97   5.303   0.862  14.136  0.0566 -0.4143  0.1601
    9DOPC   GL1   98   5.151   0.774  13.782 -0.2072  0.2440  0.2308
    9DOPC   GL2   99   4.882   0.841  13.626 -0.0906 -0.2647  0.1215
    9DOPC   C1A  100   5.250   0.809  13.318  0.1483  0.3296 -0.0669
    9DOPC   D2A  101   5.208   0.707  12.874  0.1862  0.1841 -0.2920
    9DOPC   C3A  102   4.846   0.445  12.719 -0.3497  0.1533  0.4317
    9DOPC   C4A  103   4.636   0.051  12.662 -0.1040  0.1505 -0.1157
    9DOPC   C1B  104   4.759   0.726  13.151  0.1421  0.0097 -0.0945
    9DOPC   D2B  105   4.509   0.834  12.776 -0.0597  0.1722 -0.1123
    9DOPC   C3B  106   4.221   0.468  12.658 -0.0908 -0.0016 -0.2050
    9DOPC   C4B  107   4.137   0.073  12.882  0.1341 -0.2378 -0.2746
   10DOPE   NH3  108   4.827   3.709  14.351 -0.1260 -0.1319  0.1551
   10DOPE   PO4  109   5.118   3.666  14.335 -0.1202 -0.2671 -0.0509
   10DOPE   GL1  110   5.203   3.456  14.008 -0.1215  0.2825 -0.1007
   10DOPE   GL2  111   5.233   3.710  13.758  0.0415  0.2084 -0.1019
   10DOPE   C1A  112   5.538   3.190  13.705  0.0826  0.3872 -0.0764
   10DOPE   D2A  113   5.859   2.879  13.477 -0.1963  0.0138 -0.2417
   10DOPE   C3A  114   6.215   3.074  13.222 -0.1066 -0.1546  0.3586
   10DOPE   C4A  115   6.262   2.977  12.785 -0.0283  0.1695 -0.0383
   10DOPE   C1B  116   5.359   3.603  13.355  0.2104 -0.0251 -0.0659
   10DOPE   D2B  117   5.419   3.189  13.089  0.0898 -0.1302  0.0019
   10DOPE   C3B  118   5.778   3.032  12.927  0.1002 -0.0065 -0.2031
   10DOPE   C4B  119   5.863   2.809  12.528 -0.0731 -0.2840 -0.0997
   11POSM   NC3  120   9.424  10.112  13.403 -0.0795  0.2053 -0.2290
   11POSM   PO4  121   9.671  10.365  13.557  0.3018  0.2684  0.0145
   11POSM   AM1  122   9.764  10.368  13.236 -0.0889  0.1857  0.0813
   11POSM   AM2  123   9.640  10.460  12.991 -0.0593 -0.0827 -0.0714
   11POSM   T1A  124  10.164  10.352  12.947 -0.0481 -0.0285  0.6059
   11POSM   C2A  125  10.361  10.477  12.558 -0.2250  0.2343  0.0153
   11POSM   C3A  126  10.636  10.693  12.280 -0.0993 -0.2088  0.4054
   11POSM   C1B  127   9.746  10.337  12.700 -0.1518 -0.0453  0.0755
   11POSM   D2B  128   9.913  10.124  12.245  0.1677  0.0735 -0.0193
   11POSM   C3B  129  10.236  10.424  12.061 -0.1358 -0.1837  0.0602
   11POSM   C4B  130  10.542  10.581  11.803  0.2141 -0.0653 -0.0299
   12DOPS   CNO  131   5.817   9.837  13.917 -0.4464 -0.2180 -0.1870
   12DOPS   PO4  132   5.587   9.545  13.976  0.0712 -0.1855  0.1212
   12DOPS   GL1  133   5.746   9.537  13.634 -0.2517 -0.1498  0.1139
   12DOPS   GL2  134   6.029   9.556  13.601  0.0776 -0.0811 -0.1217
   12DOPS   C1A  135   5.751   9.552  13.184 -0.0749  0.0669 -0.0320
   12DOPS   D2A  136   5.495   9.623  12.788 -0.1662 -0.1102  0.2120
   12DOPS   C3A  137   5.761   9.853  12.444  0.0437  0.0178 -0.1924
   12DOPS   C4A  138   5.686  10.241  12.197 -0.2292 -0.0277 -0.1781
   12DOPS   C1B  139   6.247   9.654  13.188  0.0051  0.0886 -0.0829
   12DOPS   D2B  140   6.358   9.679  12.725  0.0769 -0.2312  0.1028
   12DOPS   C3B  141   6.725   9.851  12.484  0.0122  0.0569  0.0113
   12DOPS   C4B  142   7.095   9.681  12.247  0.0380 -0.2800  0.0696
   13DOPC   NC3  143   9.755   0.645  14.872  0.1698 -0.0124  0.1750
   13DOPC   PO4  144   9.720   0.910  14.572  0.3409 -0.0369  0.1776
   13DOPC   GL1  145   9.566   0.975  14.297 -0.1270  0.2119  0.1860
   13DOPC   GL2  146   9.660   1.235  14.162 -0.2980  0.1102  0.0276
   13DOPC   C1A  147   9.635   0.922  13.788 -0.0296 -0.0366  0.0152
   13DOPC   D2A  148   9.490   0.874  13.380  0.2893 -0.0151  0.0315
   13DOPC   C3A  149   9.437   1.261  13.085 -0.1064  0.3408 -0.2287
   13DOPC   C4A  150   9.715   1.660  13.040 -0.0840 -0.0971 -0.3750
   13DOPC   C1B  151   9.346   1.390  13.826 -0.0533  0.0818  0.3446
   13DOPC   D2B  152   9.382   1.683  13.412 -0.1175  0.0446  0.0263
   13DOPC   C3B  153   9.274   1.811  13.047  0.0145 -0.0185 -0.2749
   13DOPC   C4B  154   9.411   2.117  12.728 -0.0078 -0.1636 -0.1609
   14DOPE   NH3  155   7.280   2.984  14.906 -0.1385  0.1174  0.0921
   14DOPE   PO4  156   7.264   2.749  14.716 -0.1661 -0.3809 -0.0409
   14DOPE   GL1  157   7.600   2.823  14.404  0.6218 -0.0100  0.1130
   14DOPE   GL2  158   7.427   2.741  14.171 -0.2122 -0.1507  0.1567
   14DOPE   C1A  159   7.868   2.882  14.038 -0.0254 -0.0476 -0.1055
   14DOPE   D2A  160   8.233   3.017  13.798  0.2233  0.0996  0.1236
   14DOPE   C3A  161   8.333   2.913  13.358 -0.0198  0.0204 -0.2634
   14DOPE   C4A  162   8.430   2.545  13.135  0.4228 -0.0629  0.0632
   14DOPE   C1B  163   6.956   2.751  13.903 -0.3289 -0.1895  0.1341
   14DOPE   D2B  164   6.820   2.524  13.513  0.0192  0.1234 -0.2599
   14DOPE   C3B  165   6.642   2.740  13.138 -0.3450 -0.0151  0.2558
   14DOPE   C4B  166   6.653   3.190  13.064 -0.0209  0.0612 -0.1981
   15DOPE   NH3  167   6.491   3.553  14.710  0.0886 -0.2071  0.1362
   15DOPE   PO4  168   6.637   3.418  14.474 -0.1745 -0.0843 -0.0800
   15DOPE   GL1  169   6.790   3.222  14.098  0.2399  0.1582  0.1333
   15DOPE   GL2  170   6.811   3.430  13.977  0.2598 -0.1079  0.1687
   15DOPE   C1A  171   7.207   3.163  13.948 -0.0352  0.0010 -0.3592
   15DOPE   D2A  172   7.568   3.041  13.666 -0.2153  0.0963  0.2615
   15DOPE   C3A  173   7.708   3.092  13.290 -0.0301 -0.2855  0.1162
   15DOPE   C4A  174   7.795   2.980  12.868 -0.0280 -0.0734  0.0120
   15DOPE   C1B  175   6.704   3.799  13.671 -0.2685 -0.2435  0.1468
   15DOPE   D2B  176   6.621   4.137  13.442 -0.3754 -0.0429  0.2021
   15DOPE   C3B  177   6.364   4.229  13.104  0.5123 -0.1221  0.0981
   15DOPE   C4B  178   5.980   4.422  12.878  0.1300 -0.0268 -0.1608
   16DOPC   NC3  179   5.679  11.410  13.848 -0.0276  0.0528 -0.2558
   16DOPC   PO4  180   5.943  11.105  13.869  0.0905  0.1026 -0.1851
   16DOPC   GL1  181   6.030  11.132  13.509  0.3824 -0.0165  0.0434
   16DOPC   GL2  182   5.931  11.418  13.398 -0.2028 -0.0511 -0.2531
   16DOPC   C1A  183   5.917  11.003  13.086 -0.1038  0.2019 -0.1750
   16DOPC   D2A  184   5.902  10.768  12.657 -0.3077  0.0574  0.0385
   16DOPC   C3A  185   5.857  10.315  12.687 -0.0231 -0.3812  0.0453
   16DOPC   C4A  186   5.873   9.944  12.913  0.0745  0.1142 -0.0963
   16DOPC   C1B  187   6.040  11.472  12.921  0.0287  0.3047 -0.1957
   16DOPC   D2B  188   5.902  11.309  12.532 -0.1552 -0.0934  0.0611
   16DOPC   C3B  189   5.737  11.033  12.267 -0.0833 -0.2407 -0.2674
   16DOPC   C4B  190   5.366  10.941  12.000  0.2051 -0.0259  0.1650
   17POSM   NC3  191   9.918   5.896  14.486 -0.1970 -0.0769 -0.0513
   17POSM   PO4  192   9.710   6.213  14.401 -0.0473 -0.0680 -0.2094
   17POSM   AM1  193   9.796   6.220  14.086  0.2024 -0.1188  0.5851
   17POSM   AM2  194   9.862   6.425  13.870  0.3627  0.1762 -0.2095
   17POSM   T1A  195   9.738   5.893  13.681 -0.0318  0.0230 -0.1763
   17POSM   C2A  196   9.768   5.795  13.237 -0.1952 -0.0980 -0.5074
   17POSM   C3A  197   9.768   5.880  12.793  0.5339  0.0824 -0.0693
   17POSM   C1B  198   9.642   6.362  13.577 -0.0946  0.0146 -0.4110
   17POSM   D2B  199   9.697   6.313  13.126 -0.1067  0.1547 -0.1498
   17POSM   C3B  200   9.347   6.406  12.808  0.0224  0.2257 -0.3120
   17POSM   C4B  201   9.017   6.722  12.740 -0.0952  0.1112 -0.1589
   18DOPE   NH3  202  33.601   9.340  14.238  0.0662  0.1282 -0.1370
   18DOPE   PO4  203  33.869   9.462  14.076  0.0814  0.1373  0.0457
   18DOPE   GL1  204  34.077   9.302  13.808 -0.1421  0.1327 -0.1594
   18DOPE   GL2  205  33.954   9.519  13.586 -0.1240  0.2349  0.0457
   18DOPE   C1A  206  34.258   9.167  13.430 -0.0355  0.1804 -0.0495
   18DOPE   D2A  207  34.493   9.109  13.050 -0.2741 -0.3387  0.0844
   18DOPE   C3A  208  34.322   8.870  12.698 -0.4287 -0.0079 -0.1404
   18DOPE   C4A  209  34.295   8.511  12.429 -0.1398 -0.0056 -0.0360
   18DOPE   C1B  210  34.171   9.651  13.274  0.3317 -0.3185  0.1296
   18DOPE   D2B  211  34.346   9.603  12.880 -0.1403 -0.0149  0.0029
   18DOPE   C3B  212  34.029   9.786  12.594 -0.0222  0.0660  0.1330
   18DOPE   C4B  213  33.643  10.116  12.536 -0.2828  0.0799  0.2922
   19DOPS   CNO  214   3.226   2.202  14.896  0.1624 -0.2690  0.2667
   19DOPS   PO4  215   3.247   2.337  14.536 -0.1249 -0.0423 -0.1087
   19DOPS   GL1  216   3.243   2.461  14.139 -0.1813 -0.0464  0.0789
   19DOPS   GL2  217   3.342   2.203  13.966 -0.2912 -0.2159 -0.2460
   19DOPS   C1A  218   3.269   2.527  13.667 -0.1949 -0.2304  0.0604
   19DOPS   D2A  219   2.997   2.648  13.312 -0.2262 -0.0134  0.0735
   19DOPS   C3A  220   3.203   2.549  12.883  0.1103 -0.0248  0.2701
   19DOPS   C4A  221   3.511   2.463  12.560 -0.0562  0.2294  0.0780
   19DOPS   C1B  222   3.761   2.411  13.821 -0.4004 -0.0736  0.2111
   19DOPS   D2B  223   3.883   2.469  13.388  0.1357  0.1492 -0.2275
   19DOPS   C3B  224   3.590   2.319  13.037  0.0898  0.1092  0.1881
   19DOPS   C4B  225   3.263   2.059  12.748  0.0597 -0.0546 -0.2204
   20POSM   NC3  226   7.258   9.123  14.586  0.0975 -0.1405 -0.0339
   20POSM   PO4  227   7.432   8.799  14.410 -0.0991 -0.0598 -0.0006
   20POSM   AM1  228   7.385   8.529  14.221  0.3081  0.2324  0.0599
   20POSM   AM2  229   7.334   8.602  13.908  0.5284  0.2434 -0.2027
   20POSM   T1A  230   7.554   8.094  14.027 -0.1108  0.2623 -0.2513
   20POSM   C2A  231   7.826   7.845  13.800 -0.1799 -0.0011  0.2897
   20POSM   C3A  232   8.119   7.530  13.627  0.0678 -0.2101 -0.2096
   20POSM   C1B  233   7.175   8.657  13.567  0.1032  0.0375 -0.1435
   20POSM   D2B  234   7.019   8.533  13.145  0.1631  0.3000 -0.0548
   20POSM   C3B  235   6.626   8.427  12.903 -0.3611 -0.0202  0.1568
   20POSM   C4B  236   6.289   8.163  12.938 -0.0853 -0.0673 -0.3854
   21POSM   NC3  237   0.367   7.950  14.134  0.0471 -0.1498  0.3150
   21POSM   PO4  238   0.176   8.246  13.974 -0.0915  0.1439  0.0866
   21POSM   AM1  239   0.110   8.115  13.682 -0.0856 -0.3691  0.0770
   21POSM   AM2  240  -0.152   8.122  13.545 -0.1906 -0.1263 -0.0498
   21POSM   T1A  241   0.087   7.850  13.199 -0.2067  0.1643  0.0069
   21POSM   C2A  242   0.101   7.683  12.741 -0.1881  0.2165  0.1234
   21POSM   C3A  243  -0.037   7.750  12.301  0.1457  0.0599  0.1682
   21POSM   C1B  244  -0.381   8.114  13.369  0.0126 -0.1262 -0.0146
   21POSM   D2B  245  -0.616   8.293  12.996  0.1118 -0.0119 -0.5181
   21POSM   C3B  246  -0.540   8.002  12.720  0.1138  0.0265  0.2805
   21POSM   C4B  247  -0.470   7.946  12.249 -0.0422 -0.2055 -0.0021
   22DOPC   NC3  248   2.580  30.796  14.351 -0.0438  0.0359  0.0104
   22DOPC   PO4  249   2.722  31.052  14.030  0.1975  0.2364  0.2327
   22DOPC   GL1  250   2.615  31.163  13.706 -0.4721  0.2452 -0.0319
   22DOPC   GL2  251   2.752  31.463  13.737  0.2256 -0.2961 -0.2959
   22DOPC   C1A  252   2.542  31.170  13.226  0.4582 -0.0617  0.2630
   22DOPC   D2A  253   2.671  31.197  12.807 -0.0063 -0.2070 -0.2702
   22DOPC   C3A  254   2.407  31.204  12.453  0.0448  0.2627  0.0403
   22DOPC   C4A  255   2.124  30.997  12.116  0.1004  0.0264 -0.2078
   22DOPC   C1B  256   2.882  31.496  13.334 -0.3594  0.0474  0.0456
   22DOPC   D2B  257   3.081  31.573  12.869 -0.2923  0.4382  0.0336
   22DOPC   C3B  258   2.894  31.631  12.483 -0.1292  0.1662  0.0294
   22DOPC   C4B  259   2.455  31.687  12.305 -0.0366 -0.1982  0.1518
   23DOPS   CNO  260   9.066   4.052  14.711 -0.0181 -0.0417 -0.1498
   23DOPS   PO4  261   8.830   4.306  14.527 -0.1329  0.4847 -0.1810
   23DOPS   GL1  262   8.923   4.122  14.195 -0.0127  0.2259 -0.0594
   23DOPS   GL2  263   9.052   3.849  14.162 -0.3069  0.1707 -0.0784
   23DOPS   C1A  264   8.941   4.145  13.726  0.1981  0.0202  0.1072
   23DOPS   D2A  265   9.239   4.209  13.391 -0.1430 -0.1221 -0.0402
   23DOPS   C3A  266   9.253   4.213  12.955 -0.1519  0.1469 -0.0069
   23DOPS   C4A  267   9.123   4.470  12.592  0.1531  0.1180 -0.1259
   23DOPS   C1B  268   9.366   3.851  13.796  0.2353 -0.3852 -0.1241
   23DOPS   D2B  269   9.374   3.744  13.352 -0.0982 -0.0340  0.0014
   23DOPS   C3B  270   9.618   3.500  13.074  0.1392  0.3968 -0.1871
   23DOPS   C4B  271   9.830   3.052  13.060  0.3353 -0.3467  0.0528
   24DOPE   NH3  272   7.658  10.979  14.028 -0.2373 -0.0864  0.2423
   24DOPE   PO4  273   7.930  10.815  14.104  0.2851 -0.1026  0.1983
   24DOPE   GL1  274   8.047  10.763  13.691  0.0448 -0.3918  0.4286
   24DOPE   GL2  275   7.814  10.792  13.574  0.0047  0.2065  0.0045
   24DOPE   C1A  276   8.240  10.385  13.452  0.2020 -0.0257 -0.0432
   24DOPE   D2A  277   8.425  10.093  13.154  0.0160  0.0794 -0.2071
   24DOPE   C3A  278   8.866  10.014  13.087  0.0395  0.1364 -0.1421
   24DOPE   C4A  279   9.349   9.992  12.922  0.0006  0.0417  0.0046
   24DOPE   C1B  280   7.810  10.517  13.156 -0.0911  0.0426  0.0249
   24DOPE   D2B  281   7.786  10.400  12.737  0.1147  0.2455  0.1280
   24DOPE   C3B  282   7.522  10.506  12.366  0.0830 -0.0410  0.1124
   24DOPE   C4B  283   7.498  10.513  11.902 -0.2710 -0.1250 -0.0273
   25POSM   NC3  284  11.609   5.964  14.170  0.1891 -0.0739 -0.0714
   25POSM   PO4  285  11.304   6.216  14.240  0.0582 -0.0693 -0.1228
   25POSM   AM1  286  11.200   6.183  13.935 -0.0678 -0.3275 -0.1044
   25POSM   AM2  287  11.292   6.000  13.710  0.4749 -0.3015  0.2340
   25POSM   T1A  288  10.911   6.384  13.596  0.1754 -0.0187  0.1798
   25POSM   C2A  289  10.513   6.361  13.446 -0.2999 -0.3258 -0.0247
   25POSM   C3A  290  10.221   6.161  13.719  0.1280 -0.0582  0.0183
   25POSM   C1B  291  11.053   5.915  13.441  0.0716  0.3511  0.2278
   25POSM   D2B  292  10.877   5.628  13.092 -0.3021 -0.0380  0.0420
   25POSM   C3B  293  10.691   5.734  12.716 -0.1820 -0.0087  0.0651
   25POSM   C4B  294  10.582   5.632  12.326 -0.0949 -0.0617 -0.2162
   26POSM   NC3  295  10.400   1.982  14.538  0.1017  0.0313 -0.0213
   26POSM   PO4  296  10.286   2.217  14.271  0.1967  0.0668 -0.0369
   26POSM   AM1  297  10.245   2.323  13.991 -0.1551  0.1744  0.1378
   26POSM   AM2  298   9.998   2.485  13.844 -0.0956  0.0443  0.1044
   26POSM   T1A  299  10.463   2.479  13.551  0.1103 -0.2350  0.2268
   26POSM   C2A  300  10.617   2.802  13.282 -0.0377  0.0784  0.0326
   26POSM   C3A  301  10.680   3.060  12.934  0.3746 -0.4314  0.5081
   26POSM   C1B  302   9.978   2.325  13.565  0.4696 -0.0161 -0.1836
   26POSM   D2B  303   9.760   1.980  13.380  0.0022 -0.1014  0.1336
   26POSM   C3B  304   9.835   2.123  12.904 -0.0377  0.1230  0.0191
   26POSM   C4B  305   9.802   1.791  12.550 -0.0097  0.0176  0.2691
   27DOPC   NC3  306   0.841   7.211  13.848 -0.0489 -0.0742 -0.0474
   27DOPC   PO4  307   1.182   6.952  13.808 -0.2824  0.0360  0.0951
   27DOPC   GL1  308   1.326   7.048  13.519 -0.1236  0.2354 -0.1493
   27DOPC   GL2  309   1.576   7.015  13.406  0.0393 -0.1572 -0.1638
   27DOPC   C1A  310   1.104   7.070  13.104 -0.3040  0.0751  0.3013
   27DOPC   D2A  311   1.027   7.132  12.628  0.0768 -0.1213 -0.1906
   27DOPC   C3A  312   0.828   7.430  12.283 -0.1193  0.1090  0.1314
   27DOPC   C4A  313   0.514   7.702  12.039  0.1116  0.0953  0.0759
   27DOPC   C1B  314   1.495   6.709  13.100 -0.1246 -0.0124 -0.0100
   27DOPC   D2B  315   1.357   6.711  12.606 -0.1243  0.0606 -0.0660
   27DOPC   C3B  316   1.394   7.018  12.280  0.0008 -0.0855  0.0780
   27DOPC   C4B  317   1.598   7.340  12.017 -0.1657  0.1063  0.0900
   28DOPC   NC3  318   3.237   3.079  14.291 -0.4053 -0.0346  0.1599
   28DOPC   PO4  319   3.629   3.231  14.240 -0.1433  0.0830 -0.0277
   28DOPC   GL1  320   3.674   3.175  13.890  0.2027 -0.1104  0.4057
   28DOPC   GL2  321   3.499   3.006  13.792  0.1540  0.1300  0.1152
   28DOPC   C1A  322   3.561   3.417  13.496  0.0339  0.0960 -0.1643
   28DOPC   D2A  323   3.687   3.658  13.143  0.0932 -0.0275 -0.0510
   28DOPC   C3A  324   3.691   3.416  12.775 -0.0998 -0.3285 -0.2904
   28DOPC   C4A  325   3.961   3.539  12.476  0.0462 -0.0435 -0.0102
   28DOPC   C1B  326   3.491   2.904  13.333 -0.1045  0.2466 -0.1761
   28DOPC   D2B  327   3.609   2.834  12.824  0.0045  0.0015 -0.0803
   28DOPC   C3B  328   3.664   2.997  12.404  0.0951 -0.0581  0.0370
   28DOPC   C4B  329   3.791   3.113  11.974  0.3091  0.0556  0.0234
   29POSM   NC3  330   5.771  34.776  14.281 -0.1140 -0.1407  0.5201
   29POSM   PO4  331   5.527  34.615  13.999 -0.0097  0.2509  0.1374
   29POSM   AM1  332   5.473  34.468  13.708  0.4035  0.0957  0.0976
   29POSM   AM2  333   5.235  34.426  13.544 -0.0334  0.1143  0.0226
   29POSM   T1A  334   5.694  34.457  13.271 -0.1497 -0.1402 -0.0775
   29POSM   C2A  335   5.827  34.804  13.075 -0.1554  0.0137  0.0010
   29POSM   C3A  336   6.122  35.102  12.894  0.1553 -0.2047 -0.2646
   29POSM   C1B  337   5.150  34.576  13.254  0.1042 -0.0718 -0.0073
   29POSM   D2B  338   5.053  34.622  12.804 -0.0804 -0.2310 -0.1051
   29POSM   C3B  339   5.309  34.764  12.448  0.1463 -0.1281  0.1221
   29POSM   C4B  340   5.759  34.938  12.518  0.0964  0.1963  0.2249
   30POSM   NC3  341  12.324   5.366  13.903 -0.1152 -0.2753  0.1688
   30POSM   PO4  342  12.712   5.303  13.838  0.0839  0.2124  0.1804
   30POSM   AM1  343  12.636   5.299  13.524 -0.3406  0.0703 -0.2838
   30POSM   AM2  344  12.585   5.056  13.396  0.0494  0.2285 -0.2133
   30POSM   T1A  345  12.534   5.605  13.160  0.3734  0.0542 -0.1535
   30POSM   C2A  346  12.670   5.622  12.739 -0.1501 -0.2477 -0.1655
   30POSM   C3A  347  12.536   5.699  12.281  0.0384  0.2136 -0.0393
   30POSM   C1B  348  12.533   4.742  13.419  0.1116 -0.2812  0.1479
   30POSM   D2B  349  12.327   4.411  13.598  0.0282 -0.0466  0.2073
   30POSM   C3B  350  11.957   4.208  13.439  0.2111 -0.2461 -0.0825
   30POSM   C4B  351  11.783   3.821  13.238 -0.1186 -0.1967 -0.1639
   31DOPE   NH3  352   8.493  10.874  13.537  0.0301  0.1276  0.0565
   31DOPE   PO4  353   8.717  10.735  13.616  0.0285 -0.0844  0.1727
   31DOPE   GL1  354   8.682  10.478  13.403 -0.3134  0.1734 -0.1283
   31DOPE   GL2  355   8.940  10.267  13.438  0.0003 -0.2192 -0.2250
   31DOPE   C1A  356   8.574  10.520  12.963  0.0113 -0.1907 -0.0041
   31DOPE   D2A  357   8.756  10.449  12.526  0.2037  0.0972 -0.0358
   31DOPE   C3A  358   8.616  10.797  12.226 -0.1076 -0.4294  0.1682
   31DOPE   C4A  359   8.301  11.124  12.158 -0.0563 -0.0604  0.2781
   31DOPE   C1B  360   9.131  10.410  13.051 -0.2350  0.0939 -0.1533
   31DOPE   D2B  361   9.283  10.350  12.614 -0.0488  0.0291  0.2880
   31DOPE   C3B  362   9.288  10.353  12.180 -0.4596  0.1190  0.0997
   31DOPE   C4B  363   9.430  10.681  11.856  0.0886 -0.1688  0.0206
   32DOPC   NC3  364   5.975   8.299  13.583 -0.0981 -0.2369  0.1412
   32DOPC   PO4  365   5.776   8.642  13.733  0.0575  0.0234  0.0297
   32DOPC   GL1  366   5.944   8.766  13.355 -0.0277  0.1336  0.1185
   32DOPC   GL2  367   6.217   8.651  13.255  0.3424 -0.0417 -0.0014
   32DOPC   C1A  368   5.650   8.579  13.043  0.1656 -0.1602  0.1150
   32DOPC   D2A  369   5.318   8.792  12.839  0.1568 -0.0181  0.1736
   32DOPC   C3A  370   5.137   8.765  12.459 -0.2893  0.0347  0.3565
   32DOPC   C4A  371   4.954   8.632  12.116 -0.0844 -0.0702  0.2557
   32DOPC   C1B  372   6.064   8.754  12.797 -0.1892  0.1481 -0.0410
   32DOPC   D2B  373   5.693   8.784  12.572  0.1820 -0.2517  0.2174
   32DOPC   C3B  374   5.842   8.601  12.188 -0.2124 -0.1268 -0.1312
   32DOPC   C4B  375   6.076   8.163  12.080 -0.2686  0.0544 -0.0020
   33DOPE   NH3  376   8.026   5.660  14.005 -0.0798 -0.0403 -0.0520
   33DOPE   PO4  377   7.750   5.690  13.985  0.0607 -0.1423  0.2431
   33DOPE   GL1  378   7.617   5.889  13.678  0.2425  0.1211  0.0575
   33DOPE   GL2  379   7.731   6.172  13.693  0.0956  0.0574 -0.0526
   33DOPE   C1A  380   7.631   5.707  13.252  0.2064 -0.1006  0.0350
   33DOPE   D2A  381   7.886   5.486  12.955  0.2474 -0.0151  0.0654
   33DOPE   C3A  382   8.120   5.171  13.082  0.1952 -0.2683  0.1130
   33DOPE   C4A  383   8.294   4.731  13.045  0.1525  0.2232 -0.2467
   33DOPE   C1B  384   7.790   6.308  13.245  0.0706 -0.0703  0.1232
   33DOPE   D2B  385   7.551   6.165  12.882 -0.1430 -0.1940 -0.1689
   33DOPE   C3B  386   7.631   5.785  12.625  0.3279  0.3807 -0.1631
   33DOPE   C4B  387   7.809   5.365  12.500  0.1528 -0.0731 -0.2408
   34DOPE   NH3  388  11.416   2.845  14.291  0.0737 -0.1886 -0.0822
   34DOPE   PO4  389  11.195   3.123  14.387 -0.2460  0.1431  0.2027
   34DOPE   GL1  390  11.148   3.209  13.993 -0.4737 -0.0712 -0.0770
   34DOPE   GL2  391  11.233   2.932  13.828  0.0341 -0.0470  0.0144
   34DOPE   C1A  392  11.153   3.643  13.793  0.0617 -0.0391  0.0109
   34DOPE   D2A  393  11.043   3.763  13.370  0.0019  0.0196 -0.0643
   34DOPE   C3A  394  10.733   4.128  13.335 -0.0885 -0.0650 -0.1230
   34DOPE   C4A  395  10.511   4.568  13.213  0.2886 -0.1686  0.3151
   34DOPE   C1B  396  11.172   3.066  13.454 -0.1156  0.0087 -0.0704
   34DOPE   D2B  397  11.309   3.415  13.162  0.1911 -0.0748 -0.2403
   34DOPE   C3B  398  11.401   3.598  12.773  0.1038  0.0794 -0.2715
   34DOPE   C4B  399  11.784   3.654  12.482  0.0512  0.4071 -0.1212
   35DOPE   NH3  400   6.798   1.975  14.354 -0.2175  0.0784  0.1315
   35DOPE   PO4  401   6.660   1.686  14.253  0.3019  0.0381 -0.1458
   35DOPE   GL1  402   6.565   1.776  13.825 -0.0646 -0.0936 -0.3934
   35DOPE   GL2  403   6.429   1.470  13.905  0.3633 -0.0433 -0.2537
   35DOPE   C1A  404   6.392   1.807  13.419 -0.1132  0.0802 -0.0555
   35DOPE   D2A  405   6.526   1.879  12.964  0.1778 -0.0927 -0.0218
   35DOPE   C3A  406   6.244   1.953  12.693  0.1960  0.0030  0.1209
   35DOPE   C4A  407   5.843   1.795  12.489 -0.0574  0.2277  0.0779
   35DOPE   C1B  408   5.929   1.420  13.890  0.0616 -0.0714  0.1131
   35DOPE   D2B  409   5.763   1.428  13.403 -0.0830 -0.0066 -0.0855
   35DOPE   C3B  410   5.685   1.737  13.074 -0.3130 -0.0613  0.1304
   35DOPE   C4B  411   5.368   1.744  12.783 -0.4997  0.0832 -0.2695
   36DOPS   CNO  412   5.302   5.301  14.624 -0.0887 -0.0308 -0.1697
   36DOPS   PO4  413   5.246   5.102  14.306 -0.3389  0.2700 -0.0597
   36DOPS   GL1  414   5.095   5.078  13.863 -0.0978  0.0439  0.0393
   36DOPS   GL2  415   5.013   5.354  13.725  0.2376  0.0405 -0.0160
   36DOPS   C1A  416   5.290   4.850  13.477  0.0443 -0.2146  0.0825
   36DOPS   D2A  417   5.177   4.819  13.019  0.2804 -0.2564  0.1464
   36DOPS   C3A  418   5.480   4.661  12.789 -0.1295 -0.0726  0.1666
   36DOPS   C4A  419   5.514   4.199  12.659 -0.1715 -0.0218 -0.1702
   36DOPS   C1B  420   5.229   5.376  13.260 -0.2982  0.3906 -0.5284
   36DOPS   D2B  421   5.153   5.497  12.801 -0.3250  0.1308  0.1077
   36DOPS   C3B  422   5.062   5.925  12.674  0.1865 -0.0165 -0.0590
   36DOPS   C4B  423   5.186   6.343  12.586  0.0527 -0.0131 -0.2424
   37DOPE   NH3  424   8.669   7.438  14.511 -0.1190 -0.2100 -0.1941
   37DOPE   PO4  425   8.806   7.208  14.382 -0.1811 -0.1389 -0.1303
   37DOPE   GL1  426   8.687   7.258  14.007  0.0291 -0.1601 -0.0836
   37DOPE   GL2  427   8.637   6.995  13.900 -0.1506 -0.0832 -0.1106
   37DOPE   C1A  428   8.599   7.429  13.586 -0.1597  0.0125  0.1139
   37DOPE   D2A  429   8.383   7.745  13.275  0.2040 -0.0628  0.1713
   37DOPE   C3A  430   8.474   7.602  12.860 -0.3181 -0.1805 -0.0371
   37DOPE   C4A  431   8.622   7.751  12.445 -0.2380 -0.1507 -0.0262
   37DOPE   C1B  432   8.961   7.027  13.559 -0.0752  0.2447 -0.2464
   37DOPE   D2B  433   8.887   6.882  13.139  0.1108  0.0641 -0.1614
   37DOPE   C3B  434   8.832   6.439  13.124 -0.0313  0.0917 -0.1530
   37DOPE   C4B  435   8.913   6.186  12.736 -0.3968  0.0183  0.2645
   38DOPE   NH3  436   0.493   9.326  14.216  0.2443 -0.1796 -0.2015
   38DOPE   PO4  437   0.169   9.387  14.253  0.1147  0.0253 -0.1054
   38DOPE   GL1  438   0.324   9.685  14.005 -0.1506 -0.0086 -0.2284
   38DOPE   GL2  439   0.182   9.932  13.879 -0.1547  0.1926 -0.0389
   38DOPE   C1A  440   0.487   9.569  13.636  0.0007 -0.0093 -0.3278
   38DOPE   D2A  441   0.840   9.557  13.368  0.1324 -0.0251 -0.3252
   38DOPE   C3A  442   0.825   9.394  12.929  0.0028  0.2781  0.0609
   38DOPE   C4A  443   1.134   9.309  12.583 -0.2649  0.0899  0.0035
   38DOPE   C1B  444   0.015   9.944  13.516  0.5946 -0.2430 -0.0795
   38DOPE   D2B  445  -0.187  10.131  13.173  0.0443  0.1494 -0.0255
   38DOPE   C3B  446  -0.165  10.480  12.814 -0.2535  0.3194  0.0692
   38DOPE   C4B  447  -0.242  10.907  12.705 -0.6285 -0.0011 -0.0883
   39POSM   NC3  448   2.599  32.497  14.141 -0.2887 -0.1490  0.2275
   39POSM   PO4  449   2.226  32.659  14.080  0.2790  0.2260 -0.5269
   39POSM   AM1  450   2.341  32.681  13.783  0.2342  0.1575 -0.0358
   39POSM   AM2  451   2.215  32.661  13.541  0.1392 -0.0327 -0.1171
   39POSM   T1A  452   2.598  33.004  13.520  0.0633 -0.1789 -0.1102
   39POSM   C2A  453   2.842  33.138  13.148 -0.0738 -0.0278  0.0365
   39POSM   C3A  454   2.946  33.564  12.911  0.4263 -0.0619 -0.0253
   39POSM   C1B  455   2.294  32.726  13.196 -0.1385 -0.2687  0.0155
   39POSM   D2B  456   2.519  32.919  12.815  0.1736 -0.0041  0.2325
   39POSM   C3B  457   2.499  33.374  12.878 -0.0589 -0.0488  0.0120
   39POSM   C4B  458   2.110  33.726  12.942  0.2485 -0.0909 -0.1524
   40POSM   NC3  459   6.100   2.708  14.466 -0.2900 -0.0209 -0.0201
   40POSM   PO4  460   5.841   3.020  14.570  0.1000 -0.5964 -0.1214
   40POSM   AM1  461   5.860   3.001  14.226 -0.2157 -0.1452 -0.0707
   40POSM   AM2  462   5.778   2.822  14.017 -0.0901  0.0561 -0.0281
   40POSM   T1A  463   6.046   3.226  13.804 -0.2121 -0.3330  0.0449
   40POSM   C2A  464   6.287   3.553  13.637  0.0551 -0.4000  0.1215
   40POSM   C3A  465   6.461   3.610  13.251  0.0439  0.1886 -0.0644
   40POSM   C1B  466   6.068   2.653  13.937  0.1830  0.1825  0.2186
   40POSM   D2B  467   6.293   2.248  13.761  0.0415  0.3404 -0.2237
   40POSM   C3B  468   6.403   2.337  13.340  0.1749  0.1165  0.0763
   40POSM   C4B  469   6.446   2.355  12.853 -0.0101 -0.0311 -0.3106
   41DOPC   NC3  470   9.001   9.028  14.078 -0.1601 -0.1942  0.1335
   41DOPC   PO4  471   8.659   8.820  13.993  0.0162  0.1439 -0.0068
   41DOPC   GL1  472   8.715   8.578  13.567 -0.2551 -0.0995 -0.0551
   41DOPC   GL2  473   8.946   8.596  13.307 -0.0188 -0.1030  0.0267
   41DOPC   C1A  474   8.440   8.341  13.272  0.1356 -0.0771  0.0242
   41DOPC   D2A  475   8.150   8.111  12.992 -0.2010  0.0907 -0.1716
   41DOPC   C3A  476   8.297   8.297  12.537  0.0077 -0.0795  0.1228
   41DOPC   C4A  477   8.518   8.638  12.312 -0.0072 -0.1560  0.0943
   41DOPC   C1B  478   9.308   8.377  13.350 -0.0658  0.1585  0.0955
   41DOPC   D2B  479   9.551   8.019  13.249 -0.0521 -0.0352  0.1130
   41DOPC   C3B  480   9.288   7.740  12.965 -0.0394  0.4259  0.2874
   41DOPC   C4B  481   9.102   7.641  12.598  0.1214  0.1273 -0.0008
   42DOPC   NC3  482   6.500  10.463  13.469 -0.0308 -0.0129 -0.1139
   42DOPC   PO4  483   6.228  10.281  13.709  0.0574 -0.2497  0.1048
   42DOPC   GL1  484   6.306  10.049  13.397  0.0760  0.3540 -0.0270
   42DOPC   GL2  485   6.567   9.959  13.376  0.1408  0.5117  0.0135
   42DOPC   C1A  486   6.316  10.138  12.928 -0.0844 -0.0089  0.1399
   42DOPC   D2A  487   6.306  10.128  12.425  0.0077  0.1450 -0.2017
   42DOPC   C3A  488   6.093  10.474  12.232 -0.1400 -0.0329 -0.0879
   42DOPC   C4A  489   5.831  10.652  11.869  0.2151 -0.4595  0.0793
   42DOPC   C1B  490   6.732   9.716  13.027  0.0028 -0.1141 -0.0398
   42DOPC   D2B  491   6.825   9.312  12.792  0.2841  0.2311 -0.3487
   42DOPC   C3B  492   6.693   9.304  12.341 -0.0321 -0.1317 -0.0361
   42DOPC   C4B  493   6.711   9.275  11.908 -0.0189 -0.2391  0.0967
   43POSM   NC3  494   1.260  10.368  14.444  0.1266  0.2368 -0.0120
   43POSM   PO4  495   0.928  10.256  14.313 -0.5085 -0.1011 -0.3227
   43POSM   AM1  496   0.927  10.160  13.985  0.0643  0.1082  0.4959
   43POSM   AM2  497   0.733  10.121  13.793  0.2683 -0.1039 -0.2464
   43POSM   T1A  498   1.124   9.940  13.558  0.0033 -0.4006 -0.3954
   43POSM   C2A  499   1.376   9.508  13.507 -0.1295 -0.0572 -0.3452
   43POSM   C3A  500   1.283   9.101  13.275  0.0276 -0.0334 -0.0263
   43POSM   C1B  501   0.578  10.065  13.527  0.1907  0.0292  0.1537
   43POSM   D2B  502   0.380   9.827  13.171 -0.0253  0.0119 -0.0274
   43POSM   C3B  503   0.192  10.058  12.819  0.3039 -0.3003 -0.0160
   43POSM   C4B  504   0.350  10.280  12.419  0.0768 -0.3182 -0.0139
   44DOPC   NC3  505   7.801   1.746  14.413 -0.0023  0.1961  0.1969
   44DOPC   PO4  506   8.171   1.630  14.557 -0.0638 -0.0294 -0.0471
   44DOPC   GL1  507   8.181   1.679  14.143  0.2082  0.1133 -0.3035
   44DOPC   GL2  508   8.401   1.686  14.025 -0.0151 -0.1693  0.0715
   44DOPC   C1A  509   8.016   1.559  13.708  0.1123 -0.1618  0.0875
   44DOPC   D2A  510   7.811   1.473  13.300  0.1265 -0.0754  0.1498
   44DOPC   C3A  511   7.944   1.567  12.885  0.0498 -0.0110  0.4324
   44DOPC   C4A  512   7.911   1.895  12.564 -0.0054  0.1922  0.1541
   44DOPC   C1B  513   8.526   1.400  13.715 -0.2027 -0.0277  0.1985
   44DOPC   D2B  514   8.496   0.939  13.623  0.0487 -0.0755 -0.0763
   44DOPC   C3B  515   8.662   0.615  13.358 -0.0267  0.0340 -0.1937
   44DOPC   C4B  516   8.786   0.502  12.951 -0.0990 -0.0403  0.1675
   45POSM   NC3  517   1.651   8.060  13.752  0.1741 -0.0298  0.2083
   45POSM   PO4  518   1.331   7.872  13.783 -0.0292 -0.2543 -0.0007
   45POSM   AM1  519   1.220   8.055  13.511  0.0591  0.1553  0.0081
   45POSM   AM2  520   1.007   8.215  13.439 -0.0061  0.2701 -0.0592
   45POSM   T1A  521   1.191   8.134  13.007 -0.2141  0.1604 -0.0136
   45POSM   C2A  522   1.388   8.051  12.667 -0.0938 -0.2155 -0.0366
   45POSM   C3A  523   1.508   8.138  12.239  0.1873  0.0097  0.2998
   45POSM   C1B  524   0.711   8.303  13.335  0.0045 -0.0204 -0.2665
   45POSM   D2B  525   0.234   8.369  13.246 -0.1930 -0.1265  0.0136
   45POSM   C3B  526   0.172   8.835  13.084 -0.1235 -0.0527 -0.3479
   45POSM   C4B  527   0.346   9.226  13.234 -0.0984  0.0164 -0.0104
   46DOPC   NC3  528   3.574   4.223  14.079 -0.0779  0.1037 -0.0812
   46DOPC   PO4  529   3.741   4.502  14.265  0.0180 -0.0202  0.3133
   46DOPC   GL1  530   3.675   4.694  13.904 -0.3714  0.1475  0.0358
   46DOPC   GL2  531   3.465   4.805  13.688  0.1353 -0.4469  0.1296
   46DOPC   C1A  532   3.961   4.697  13.505 -0.1388  0.1301 -0.2915
   46DOPC   D2A  533   4.358   4.657  13.294 -0.1164 -0.2032  0.3282
   46DOPC   C3A  534   4.358   4.383  12.908  0.1528  0.1507  0.0520
   46DOPC   C4A  535   4.067   4.419  12.534  0.0070  0.1928  0.5148
   46DOPC   C1B  536   3.545   4.538  13.307 -0.2316  0.1205  0.3806
   46DOPC   D2B  537   3.902   4.508  13.026 -0.0743 -0.3037  0.2250
   46DOPC   C3B  538   3.995   4.027  13.125 -0.1808  0.0710 -0.0998
   46DOPC   C4B  539   4.032   3.793  13.483  0.0220  0.1064  0.0892
   47POSM   NC3  540   3.512  13.629  13.971 -0.2290  0.1621  0.4668
   47POSM   PO4  541   3.413  14.002  14.150 -0.3046 -0.0600 -0.0132
   47POSM   AM1  542   3.134  13.967  13.987 -0.2282 -0.0570  0.4810
   47POSM   AM2  543   2.980  13.739  13.871 -0.0528 -0.0486  0.1549
   47POSM   T1A  544   2.698  14.040  13.646  0.0994  0.1274 -0.1722
   47POSM   C2A  545   2.446  14.178  13.273 -0.1080 -0.4231 -0.0994
   47POSM   C3A  546   2.010  14.259  13.225 -0.0113 -0.0886  0.2434
   47POSM   C1B  547   2.927  13.629  13.544 -0.5607  0.1079  0.1738
   47POSM   D2B  548   2.588  13.552  13.262  0.2505 -0.0059  0.0116
   47POSM   C3B  549   2.432  13.213  12.999 -0.2307  0.1850 -0.3046
   47POSM   C4B  550   2.294  12.883  12.686  0.3661 -0.0593 -0.1500
   48DOPE   NH3  551   2.993   8.303  13.865  0.1298  0.0019  0.0042
   48DOPE   PO4  552   2.819   8.071  14.056 -0.0405  0.1975  0.3521
   48DOPE   GL1  553   2.831   7.943  13.630 -0.1861  0.2028  0.0583
   48DOPE   GL2  554   3.111   7.873  13.585  0.1642  0.0090 -0.3528
   48DOPE   C1A  555   2.510   7.935  13.302 -0.0054 -0.1452 -0.1317
   48DOPE   D2A  556   2.303   7.966  12.876  0.0224  0.0538  0.1977
   48DOPE   C3A  557   2.543   8.162  12.544  0.1095 -0.1142  0.0933
   48DOPE   C4A  558   2.960   8.245  12.356 -0.0674  0.0594  0.2328
   48DOPE   C1B  559   2.992   8.084  13.164 -0.1121  0.2905 -0.1149
   48DOPE   D2B  560   3.167   8.364  12.790  0.0778 -0.3858  0.1893
   48DOPE   C3B  561   3.461   8.724  12.646 -0.1160  0.0215 -0.2092
   48DOPE   C4B  562   3.738   9.088  12.737 -0.3068  0.4252  0.1429
   49DOPC   NC3  563  10.798   3.376  14.459  0.0292  0.0966 -0.4520
   49DOPC   PO4  564  10.667   3.112  14.227  0.0831  0.2600 -0.2153
   49DOPC   GL1  565  10.765   3.253  13.843  0.2491  0.3487 -0.0454
   49DOPC   GL2  566  10.653   2.928  13.767 -0.0363  0.2086  0.1781
   49DOPC   C1A  567  10.730   3.288  13.380 -0.2808  0.3412 -0.2813
   49DOPC   D2A  568  10.670   3.553  12.989  0.2053 -0.0662 -0.0764
   49DOPC   C3A  569  10.883   3.574  12.555 -0.5933  0.3428 -0.0707
   49DOPC   C4A  570  11.258   3.593  12.246  0.1554  0.1367 -0.0953
   49DOPC   C1B  571  10.231   3.049  13.505 -0.0627  0.1197  0.3848
   49DOPC   D2B  572   9.783   2.824  13.482 -0.0982  0.0139  0.0964
   49DOPC   C3B  573   9.435   3.150  13.490  0.0274  0.2625  0.0536
   49DOPC   C4B  574   9.084   3.284  13.172 -0.1001 -0.4120 -0.1315
   50DOPC   NC3  575   7.912   0.130  13.866  0.3351 -0.0412 -0.5639
   50DOPC   PO4  576   7.733   0.388  14.126  0.1663 -0.1432  0.0443
   50DOPC   GL1  577   7.715   0.500  13.640  0.1489 -0.0615 -0.1643
   50DOPC   GL2  578   7.579   0.765  13.521 -0.0888  0.2326 -0.1465
   50DOPC   C1A  579   7.817   0.480  13.175  0.0246 -0.1898  0.2498
   50DOPC   D2A  580   7.592   0.644  12.822  0.3305 -0.2485 -0.3240
   50DOPC   C3A  581   7.777   1.024  12.616  0.0401 -0.0595 -0.0395
   50DOPC   C4A  582   8.169   1.212  12.644 -0.0978  0.1827 -0.0567
   50DOPC   C1B  583   7.519   0.986  13.161  0.1355  0.2320 -0.4068
   50DOPC   D2B  584   7.510   1.383  12.889  0.1274 -0.0319 -0.1537
   50DOPC   C3B  585   7.621   1.871  13.007 -0.2958  0.0368 -0.0200
   50DOPC   C4B  586   7.345   2.152  12.860  0.1843 -0.0096  0.2321
   51DOPC   NC3  587   2.971   6.392  14.176 -0.2351 -0.3594 -0.0393
   51DOPC   PO4  588   3.111   6.445  13.804  0.0856 -0.2306 -0.0044
   51DOPC   GL1  589   3.471   6.542  13.669 -0.0186  0.0611  0.1982
   51DOPC   GL2  590   3.380   6.547  13.390  0.0543  0.1635 -0.1359
   51DOPC   C1A  591   3.687   6.898  13.545 -0.0976 -0.0728 -0.0814
   51DOPC   D2A  592   3.984   7.102  13.234  0.1536 -0.0044  0.0385
   51DOPC   C3A  593   3.851   7.201  12.840 -0.1148 -0.3361  0.3666
   51DOPC   C4A  594   3.819   7.622  12.640 -0.0358 -0.0683 -0.1105
   51DOPC   C1B  595   3.284   6.934  13.191  0.3411  0.1132 -0.3618
   51DOPC   D2B  596   3.385   7.069  12.739 -0.0889 -0.1530 -0.0053
   51DOPC   C3B  597   3.457   6.737  12.408  0.1525 -0.2787  0.2095
   51DOPC   C4B  598   3.633   6.835  12.011 -0.1852  0.2640  0.1556
   52DOPC   NC3  599  10.447   7.193  13.758  0.1922  0.1877 -0.0511
   52DOPC   PO4  600  10.493   7.530  13.565 -0.1509 -0.0517 -0.1492
   52DOPC   GL1  601  10.579   7.667  13.191  0.0416  0.2329  0.1103
   52DOPC   GL2  602  10.263   7.690  13.126  0.1727  0.2992  0.3374
   52DOPC   C1A  603  10.586   7.919  12.809 -0.2139 -0.0512 -0.4509
   52DOPC   D2A  604  10.360   8.304  12.646 -0.0382 -0.0492  0.1653
   52DOPC   C3A  605   9.925   8.345  12.493  0.2948  0.2642 -0.3863
   52DOPC   C4A  606   9.653   8.326  12.089  0.0140 -0.0616  0.3620
   52DOPC   C1B  607  10.053   7.782  12.714 -0.4217  0.0042  0.0281
   52DOPC   D2B  608  10.352   7.909  12.347  0.2481  0.1156 -0.1493
   52DOPC   C3B  609  10.564   7.578  12.146  0.0666  0.0904 -0.0899
   52DOPC   C4B  610  10.391   7.225  11.880  0.0329 -0.1225  0.2554
   53DOPS   CNO  611   5.639   4.633  13.871  0.0743  0.0324  0.1917
   53DOPS   PO4  612   5.796   4.381  14.131 -0.1465  0.2135  0.1077
   53DOPS   GL1  613   5.941   3.988  13.973 -0.0384 -0.0042  0.3585
   53DOPS   GL2  614   6.132   4.096  13.780  0.1841 -0.1646  0.3488
   53DOPS   C1A  615   5.733   3.656  13.684  0.0630  0.0629  0.0885
   53DOPS   D2A  616   5.861   3.409  13.278 -0.2383 -0.0104  0.0505
   53DOPS   C3A  617   6.114   3.461  12.924 -0.0446  0.0835  0.2229
   53DOPS   C4A  618   6.472   3.378  12.650 -0.1750  0.1804  0.0463
   53DOPS   C1B  619   6.058   4.441  13.460 -0.1364  0.0448 -0.1318
   53DOPS   D2B  620   5.653   4.600  13.267 -0.2311  0.0238  0.3082
   53DOPS   C3B  621   5.643   5.066  13.158  0.0509  0.1728 -0.1082
   53DOPS   C4B  622   5.638   5.238  12.692 -0.0177 -0.1169  0.0926
   54DOPC   NC3  623   8.769   4.798  14.567 -0.1002 -0.1271 -0.0547
   54DOPC   PO4  624   8.433   4.750  14.393  0.2950  0.0349 -0.2970
   54DOPC   GL1  625   8.693   4.732  14.031 -0.2168  0.4254 -0.4674
   54DOPC   GL2  626   8.908   4.590  14.124 -0.1464  0.0805 -0.0508
   54DOPC   C1A  627   8.555   4.523  13.683  0.0864 -0.0018 -0.1057
   54DOPC   D2A  628   8.232   4.358  13.391 -0.2649 -0.1528  0.1551
   54DOPC   C3A  629   7.866   4.287  13.187  0.0863  0.0012  0.2850
   54DOPC   C4A  630   7.493   3.976  13.090 -0.0252  0.1307  0.0155
   54DOPC   C1B  631   9.070   4.601  13.686 -0.1581 -0.3986  0.0061
   54DOPC   D2B  632   8.879   4.690  13.266  0.1045  0.1430 -0.2637
   54DOPC   C3B  633   8.724   4.298  13.046 -0.1170 -0.0326  0.0910
   54DOPC   C4B  634   8.781   4.042  12.652 -0.4027  0.0440 -0.0971
   55DOPS   CNO  635   6.789   7.883  14.519  0.1194  0.0135 -0.1810
   55DOPS   PO4  636   7.074   7.706  14.351  0.1093 -0.0246  0.0715
   55DOPS   GL1  637   7.162   7.501  14.049  0.0583 -0.0384  0.3406
   55DOPS   GL2  638   7.266   7.746  13.867 -0.1591  0.3867 -0.0993
   55DOPS   C1A  639   6.916   7.482  13.582  0.2606 -0.0822  0.0754
   55DOPS   D2A  640   6.963   7.560  13.121 -0.0355  0.0973 -0.2029
   55DOPS   C3A  641   7.001   7.073  12.908  0.0649 -0.0505 -0.3790
   55DOPS   C4A  642   7.120   6.761  12.604 -0.1348 -0.0061 -0.1528
   55DOPS   C1B  643   7.385   7.743  13.419 -0.1464  0.0948 -0.1764
   55DOPS   D2B  644   7.209   7.939  13.042  0.0132  0.2437  0.2168
   55DOPS   C3B  645   7.265   7.754  12.621 -0.1873  0.1790  0.0566
   55DOPS   C4B  646   7.080   7.644  12.214 -0.0533  0.2072 -0.1330
   56POSM   NC3  647  11.178  34.742  14.623 -0.3351 -0.1894  0.2137
   56POSM   PO4  648  10.775  34.806  14.533 -0.0133 -0.1451  0.2946
   56POSM   AM1  649  10.865  34.856  14.261 -0.1972 -0.0540  0.0126
   56POSM   AM2  650  11.100  34.832  14.086  0.1796  0.1908 -0.2517
   56POSM   T1A  651  10.875  35.129  13.809  0.0603 -0.1029 -0.1396
   56POSM   C2A  652  10.860  35.255  13.372  0.1210  0.0861 -0.0514
   56POSM   C3A  653  10.803  35.235  12.885 -0.3187 -0.2054 -0.2560
   56POSM   C1B  654  11.122  34.681  13.807  0.0139 -0.0973 -0.1675
   56POSM   D2B  655  11.107  34.744  13.364 -0.0060  0.0102  0.2215
   56POSM   C3B  656  10.724  34.810  13.096  0.1910  0.0222  0.1156
   56POSM   C4B  657  10.523  34.476  12.928 -0.0001 -0.0837  0.0543
   57DOPS   CNO  658   4.973   3.069  15.008  0.0634  0.0519 -0.1085
   57DOPS   PO4  659   4.909   3.258  14.661  0.0656  0.0387 -0.1763
   57DOPS   GL1  660   4.945   3.234  14.267 -0.0382  0.0146 -0.0317
   57DOPS   GL2  661   4.604   3.236  14.200  0.1030  0.1923  0.2760
   57DOPS   C1A  662   4.950   2.978  13.897 -0.2958  0.3659 -0.1452
   57DOPS   D2A  663   4.877   2.612  13.671  0.4506 -0.1916  0.0451
   57DOPS   C3A  664   5.086   2.228  13.537  0.0542 -0.1468  0.0495
   57DOPS   C4A  665   5.424   2.160  13.289 -0.2284  0.2633  0.0864
   57DOPS   C1B  666   4.475   3.088  13.830 -0.0972  0.1118 -0.2985
   57DOPS   D2B  667   4.491   2.948  13.387 -0.2883  0.2078  0.0782
   57DOPS   C3B  668   4.501   2.973  12.911  0.0921 -0.0870 -0.2098
   57DOPS   C4B  669   4.694   2.836  12.554 -0.0054 -0.1070  0.3647
   58DOPS   CNO  670   1.537   5.065  14.422 -0.1727 -0.1273 -0.1499
   58DOPS   PO4  671   1.795   4.973  14.186 -0.0638  0.0090 -0.0185
   58DOPS   GL1  672   1.796   4.766  13.853  0.1776  0.1738  0.0922
   58DOPS   GL2  673   1.872   4.412  13.910  0.3704  0.1858 -0.1445
   58DOPS   C1A  674   1.954   4.714  13.425  0.0841 -0.0089  0.1436
   58DOPS   D2A  675   2.203   4.951  13.107  0.0569  0.4139  0.1295
   58DOPS   C3A  676   2.027   4.738  12.791  0.2103  0.0439  0.1396
   58DOPS   C4A  677   1.833   4.404  12.575  0.0722  0.0544  0.1215
   58DOPS   C1B  678   1.801   4.180  13.502 -0.3813 -0.2381  0.1258
   58DOPS   D2B  679   2.010   4.268  13.056  0.0516 -0.0089  0.2494
   58DOPS   C3B  680   2.188   3.846  12.895  0.1381  0.2472 -0.3384
   58DOPS   C4B  681   2.290   3.501  12.665  0.0158  0.2015 -0.2087
   59DOPE   NH3  682   4.973   6.944  14.065 -0.1239  0.3419 -0.0324
   59DOPE   PO4  683   4.799   6.727  13.843 -0.0018 -0.0571 -0.2162
   59DOPE   GL1  684   4.685   6.916  13.583  0.0943 -0.0051 -0.1110
   59DOPE   GL2  685   4.861   7.028  13.443 -0.0228  0.1406 -0.1456
   59DOPE   C1A  686   4.560   6.768  13.167 -0.2088  0.1097 -0.1293
   59DOPE   D2A  687   4.283   6.950  12.811  0.1515  0.2998 -0.0627
   59DOPE   C3A  688   3.932   6.828  12.528 -0.0377  0.2011 -0.1549
   59DOPE   C4A  689   3.700   7.161  12.375  0.2079  0.2056  0.2469
   59DOPE   C1B  690   4.985   7.449  13.319 -0.4677  0.2127  0.1342
   59DOPE   D2B  691   4.832   7.572  12.929  0.0567 -0.0157 -0.1042
   59DOPE   C3B  692   5.061   7.930  12.933  0.1199  0.0517 -0.2142
   59DOPE   C4B  693   5.430   8.182  12.847 -0.1863  0.0204 -0.1303
   60DOPE   NH3  694   7.949   1.192  14.671 -0.2354 -0.1087 -0.1554
   60DOPE   PO4  695   7.637   1.320  14.569 -0.2814  0.0033 -0.0054
   60DOPE   GL1  696   7.809   1.099  14.198 -0.1330 -0.1736  0.0490
   60DOPE   GL2  697   7.801   1.380  14.091  0.1675  0.0363  0.0082
   60DOPE   C1A  698   7.846   1.118  13.716  0.0637  0.1356 -0.0925
   60DOPE   D2A  699   8.050   0.953  13.321  0.1147  0.2316  0.0096
   60DOPE   C3A  700   8.388   1.141  13.170  0.0732 -0.0015 -0.1925
   60DOPE   C4A  701   8.540   1.473  12.858  0.0626 -0.1766  0.0519
   60DOPE   C1B  702   7.454   1.411  13.801 -0.2559 -0.1477 -0.1484
   60DOPE   D2B  703   7.312   1.562  13.364 -0.1252  0.1470  0.0274
   60DOPE   C3B  704   7.091   1.740  13.025 -0.0671 -0.0455 -0.4580
   60DOPE   C4B  705   6.923   1.931  12.671 -0.1249  0.1577  0.0384
   61DOPE   NH3  706   6.775   7.861  13.943 -0.2462 -0.0905 -0.4102
   61DOPE   PO4  707   6.475   7.946  13.960  0.1426  0.2065 -0.0612
   61DOPE   GL1  708   6.315   7.928  13.710 -0.2120  0.4264  0.2811
   61DOPE   GL2  709   6.471   7.681  13.548  0.2596 -0.0451 -0.2202
   61DOPE   C1A  710   6.044   7.827  13.324  0.0957 -0.2554 -0.2298
   61DOPE   D2A  711   5.871   7.687  12.967 -0.0858  0.2049 -0.1664
   61DOPE   C3A  712   6.136   7.708  12.616  0.1588 -0.0627 -0.2414
   61DOPE   C4A  713   6.317   7.738  12.157 -0.0453 -0.0249 -0.1685
   61DOPE   C1B  714   6.490   7.716  13.048 -0.2557 -0.4297 -0.0042
   61DOPE   D2B  715   6.807   7.869  12.708 -0.1271 -0.0296 -0.0819
   61DOPE   C3B  716   7.000   8.274  12.495 -0.0621 -0.1609  0.4629
   61DOPE   C4B  717   7.152   8.403  12.051  0.2552 -0.1299 -0.0290
   62DOPC   NC3  718   5.732   6.548  14.254 -0.1074 -0.1592 -0.3256
   62DOPC   PO4  719   5.532   6.834  14.059  0.2502 -0.3055 -0.1129
   62DOPC   GL1  720   5.270   6.743  13.765  0.2646 -0.5156 -0.0096
   62DOPC   GL2  721   5.257   6.482  13.738 -0.1948 -0.2448 -0.1711
   62DOPC   C1A  722   5.374   6.765  13.286 -0.2805  0.0115  0.0160
   62DOPC   D2A  723   5.123   6.670  12.934  0.2606  0.0313  0.0105
   62DOPC   C3A  724   4.805   6.982  12.795  0.2368 -0.1343  0.1293
   62DOPC   C4A  725   4.677   7.319  12.480 -0.1762  0.1560  0.0525
   62DOPC   C1B  726   5.299   6.287  13.272  0.2470 -0.0600  0.0060
   62DOPC   D2B  727   5.474   6.072  12.932  0.0906 -0.1722 -0.1871
   62DOPC   C3B  728   5.975   6.126  12.856  0.0808 -0.0179 -0.4096
   62DOPC   C4B  729   6.140   6.283  12.513 -0.4088  0.2732 -0.1155
   63DOPC   NC3  730  10.051   4.929  14.479  0.1517  0.0294  0.1002
   63DOPC   PO4  731   9.735   4.714  14.303  0.2057 -0.1574  0.0735
   63DOPC   GL1  732   9.811   4.665  13.924  0.3653  0.2402 -0.1271
   63DOPC   GL2  733   9.817   4.358  13.927  0.3292  0.0008 -0.2137
   63DOPC   C1A  734   9.654   4.941  13.604  0.3153 -0.0943 -0.0084
   63DOPC   D2A  735   9.722   5.264  13.232 -0.1683  0.2126  0.1294
   63DOPC   C3A  736   9.991   5.422  12.871  0.4410  0.0726 -0.0146
   63DOPC   C4A  737  10.400   5.327  12.632  0.0338 -0.0649  0.1702
   63DOPC   C1B  738   9.639   4.392  13.546  0.0350 -0.2275  0.0187
   63DOPC   D2B  739   9.461   4.643  13.215 -0.0285 -0.1546 -0.0533
   63DOPC   C3B  740   9.623   4.503  12.839 -0.0002 -0.1558  0.0515
   63DOPC   C4B  741   9.930   4.561  12.513  0.1382  0.1099 -0.1805
   64POSM   NC3  742   6.332   4.307  14.176 -0.0728  0.0737 -0.1634
   64POSM   PO4  743   6.590   4.618  14.266 -0.0893 -0.0905 -0.0692
   64POSM   AM1  744   6.731   4.805  14.020  0.0486  0.1213 -0.0428
   64POSM   AM2  745   6.894   4.787  13.800  0.1435 -0.2135 -0.1892
   64POSM   T1A  746   6.628   5.177  13.621  0.1442  0.0070 -0.0511
   64POSM   C2A  747   6.213   5.385  13.614  0.0876  0.0400  0.0119
   64POSM   C3A  748   5.803   5.476  13.536  0.1538  0.0217  0.1618
   64POSM   C1B  749   6.986   4.630  13.522 -0.0532 -0.0161 -0.1279
   64POSM   D2B  750   6.948   4.304  13.180 -0.0188  0.1100 -0.1239
   64POSM   C3B  751   7.100   4.207  12.784 -0.3153 -0.1827 -0.5096
   64POSM   C4B  752   6.916   4.124  12.365  0.3746 -0.3141  0.1180
   65POSM   NC3  753   1.987   9.042  13.774  0.0721  0.0782 -0.3228
   65POSM   PO4  754   2.127   9.354  13.989 -0.1198 -0.0665  0.0509
   65POSM   AM1  755   2.321   9.379  13.723 -0.0039 -0.0272 -0.1386
   65POSM   AM2  756   2.333   9.263  13.450  0.2667 -0.0407 -0.0534
   65POSM   T1A  757   2.528   9.671  13.380  0.2069 -0.0773 -0.0780
   65POSM   C2A  758   2.485   9.750  12.948 -0.3754 -0.3134 -0.3031
   65POSM   C3A  759   2.600   9.988  12.592 -0.0181  0.1855 -0.3722
   65POSM   C1B  760   2.233   9.308  13.140 -0.3885  0.1468 -0.0423
   65POSM   D2B  761   2.080   9.471  12.762  0.1160 -0.0530  0.0932
   65POSM   C3B  762   1.670   9.691  12.600 -0.1197 -0.0839  0.0993
   65POSM   C4B  763   1.326   9.663  12.244 -0.3184  0.0440 -0.0212
   66DOPE   NH3  764   4.864   5.478  14.245 -0.0334  0.0952  0.0514
   66DOPE   PO4  765   4.721   5.212  14.149 -0.0831 -0.2294 -0.2521
   66DOPE   GL1  766   4.654   5.113  13.799 -0.2502 -0.0293 -0.1150
   66DOPE   GL2  767   4.377   5.052  13.810 -0.0404  0.3325  0.3044
   66DOPE   C1A  768   4.773   4.970  13.365 -0.1546 -0.0728 -0.0627
   66DOPE   D2A  769   4.663   4.828  12.926  0.3254  0.1071  0.1253
   66DOPE   C3A  770   4.796   5.138  12.585  0.1657  0.5782 -0.0213
   66DOPE   C4A  771   4.849   5.095  12.146 -0.3667  0.0644 -0.1711
   66DOPE   C1B  772   4.388   5.287  13.403  0.2695  0.0510 -0.0058
   66DOPE   D2B  773   4.715   5.521  13.194  0.0693 -0.0328  0.1602
   66DOPE   C3B  774   4.677   5.599  12.755 -0.4649  0.0686 -0.1160
   66DOPE   C4B  775   4.569   5.985  12.474 -0.1408  0.0666 -0.2234
   67DOPE   NH3  776   2.357   6.853  13.912  0.2827 -0.0246 -0.0163
   67DOPE   PO4  777   2.122   6.708  13.854 -0.2701  0.1094 -0.1024
   67DOPE   GL1  778   2.198   6.555  13.550  0.2383  0.1581 -0.3370
   67DOPE   GL2  779   1.908   6.621  13.433 -0.0693  0.2512 -0.0351
   67DOPE   C1A  780   2.431   6.531  13.172  0.1572  0.3793 -0.4639
   67DOPE   D2A  781   2.505   6.653  12.709 -0.0039 -0.0085 -0.0720
   67DOPE   C3A  782   2.524   6.250  12.512 -0.2441  0.2456  0.0244
   67DOPE   C4A  783   2.628   5.812  12.522 -0.1143 -0.0853 -0.0034
   67DOPE   C1B  784   2.030   6.822  13.044  0.0978  0.3017  0.0307
   67DOPE   D2B  785   1.871   6.883  12.655  0.3242  0.1578 -0.1162
   67DOPE   C3B  786   1.945   6.722  12.285  0.0931 -0.3055 -0.1160
   67DOPE   C4B  787   2.184   6.781  11.881  0.0776 -0.0421 -0.0160
   68DOPE   NH3  788   4.289   9.077  13.858  0.1426 -0.0885 -0.0529
   68DOPE   PO4  789   3.990   9.177  13.769 -0.0196 -0.2917 -0.2661
   68DOPE   GL1  790   4.185   9.243  13.451 -0.3538  0.1655  0.2927
   68DOPE   GL2  791   4.093   8.986  13.279 -0.2333  0.1467  0.1595
   68DOPE   C1A  792   4.059   9.403  13.065 -0.1058  0.1429  0.0590
   68DOPE   D2A  793   4.079   9.417  12.628 -0.1616 -0.1942  0.1923
   68DOPE   C3A  794   4.280   9.260  12.210  0.0312  0.2154  0.1524
   68DOPE   C4A  795   4.569   9.275  11.840 -0.1193 -0.1987  0.1083
   68DOPE   C1B  796   3.920   8.688  13.000  0.1017 -0.0137 -0.0088
   68DOPE   D2B  797   4.043   8.558  12.636 -0.0782 -0.2389  0.0028
   68DOPE   C3B  798   3.979   8.775  12.212 -0.1140 -0.2341  0.1648
   68DOPE   C4B  799   3.665   8.719  11.890 -0.0637  0.5499  0.4167
   69DOPC   NC3  800   4.107  33.927  13.714  0.0346  0.0637 -0.4303
   69DOPC   PO4  801   3.873  33.615  13.851 -0.0766  0.0184 -0.0425
   69DOPC   GL1  802   3.679  33.849  13.531 -0.1144 -0.3109 -0.0321
   69DOPC   GL2  803   3.496  33.712  13.395 -0.1856 -0.1982 -0.3326
   69DOPC   C1A  804   3.865  33.757  13.115 -0.2125  0.2347 -0.1337
   69DOPC   D2A  805   3.708  33.620  12.705  0.1139 -0.1072 -0.4108
   69DOPC   C3A  806   3.546  33.899  12.411  0.2577 -0.2203 -0.2591
   69DOPC   C4A  807   3.288  33.965  12.047  0.0419  0.1471 -0.0814
   69DOPC   C1B  808   3.429  33.942  12.949  0.2168 -0.0203  0.0284
   69DOPC   D2B  809   3.466  34.332  12.654  0.1349  0.4932  0.1364
   69DOPC   C3B  810   3.074  34.412  12.340  0.2257 -0.0870  0.1234
   69DOPC   C4B  811   2.844  34.235  11.984 -0.0675 -0.1009 -0.0619
   70DOPC   NC3  812   4.127   5.573  13.756 -0.3432 -0.0142 -0.0127
   70DOPC   PO4  813   4.159   5.936  13.870  0.0365 -0.3192  0.2165
   70DOPC   GL1  814   4.099   6.018  13.526 -0.4187 -0.2237  0.0865
   70DOPC   GL2  815   4.373   6.027  13.384  0.1501 -0.0069  0.1203
   70DOPC   C1A  816   3.815   6.177  13.171 -0.3735  0.0481 -0.0173
   70DOPC   D2A  817   3.327   6.234  13.030 -0.2465  0.2632  0.0138
   70DOPC   C3A  818   3.163   6.178  12.625  0.1297 -0.0110  0.3775
   70DOPC   C4A  819   2.990   6.005  12.268 -0.1577 -0.1047  0.2193
   70DOPC   C1B  820   4.354   5.944  12.950  0.2568  0.0559 -0.0983
   70DOPC   D2B  821   4.084   5.850  12.556  0.1147 -0.0449  0.0524
   70DOPC   C3B  822   3.821   5.992  12.258 -0.3318  0.2060  0.0979
   70DOPC   C4B  823   3.408   5.947  12.056 -0.5822 -0.0056  0.0167
   71POSM   NC3  824   4.421   1.794  14.119  0.1231  0.0001 -0.0494
   71POSM   PO4  825   4.203   1.532  14.002 -0.0127 -0.0217  0.3817
   71POSM   AM1  826   4.052   1.508  13.705 -0.0913 -0.1247 -0.1616
   71POSM   AM2  827   3.787   1.518  13.549  0.3328  0.1067  0.0084
   71POSM   T1A  828   4.060   1.582  13.210 -0.2968 -0.0244  0.1132
   71POSM   C2A  829   4.141   1.567  12.788  0.0161 -0.1176  0.1372
   71POSM   C3A  830   4.051   1.385  12.312  0.1536 -0.2997  0.0191
   71POSM   C1B  831   3.819   1.152  13.545 -0.0245  0.3316  0.3898
   71POSM   D2B  832   3.823   0.704  13.493  0.0567 -0.0368  0.2083
   71POSM   C3B  833   4.158   0.554  13.146  0.1461  0.1857 -0.1700
   71POSM   C4B  834   4.529   0.277  13.194 -0.0039 -0.3222  0.0306
   72DOPC   NC3  835   3.447  11.578  14.699 -0.1537 -0.0314  0.4108
   72DOPC   PO4  836   3.041  11.636  14.622  0.1437  0.1551 -0.1092
   72DOPC   GL1  837   3.272  11.573  14.245  0.2779 -0.2667  0.0298
   72DOPC   GL2  838   3.444  11.412  14.223  0.3843  0.0335 -0.0334
   72DOPC   C1A  839   3.453  11.845  13.918  0.2343  0.1578 -0.1933
   72DOPC   D2A  840   3.433  12.228  13.698  0.3485 -0.1334 -0.3141
   72DOPC   C3A  841   3.828  12.415  13.528  0.1233 -0.0172 -0.0147
   72DOPC   C4A  842   4.215  12.681  13.507  0.3597 -0.0483 -0.0899
   72DOPC   C1B  843   3.323  11.319  13.823  0.0769  0.4033  0.0331
   72DOPC   D2B  844   3.486  11.160  13.419 -0.1311  0.0257 -0.4354
   72DOPC   C3B  845   3.364  11.285  12.955  0.3191 -0.2166 -0.0547
   72DOPC   C4B  846   3.397  11.593  12.636 -0.0285  0.0539  0.1592
   73DOPE   NH3  847   5.873   0.886  14.156 -0.1542 -0.0893 -0.1169
   73DOPE   PO4  848   6.190   0.892  14.240 -0.1212  0.0188 -0.0724
   73DOPE   GL1  849   6.246   1.024  13.804 -0.3614 -0.0903 -0.0698
   73DOPE   GL2  850   6.517   0.985  13.760  0.1922  0.3995 -0.2032
   73DOPE   C1A  851   6.293   1.322  13.458 -0.1574  0.0323 -0.0243
   73DOPE   D2A  852   6.143   1.531  13.039 -0.2396 -0.1135 -0.1756
   73DOPE   C3A  853   6.415   1.478  12.675  0.0136  0.0759  0.0730
   73DOPE   C4A  854   6.461   1.470  12.209 -0.0062  0.1941  0.4454
   73DOPE   C1B  855   6.745   0.809  13.375  0.0011 -0.0211  0.0740
   73DOPE   D2B  856   7.154   0.685  13.069  0.1984  0.0163 -0.0090
   73DOPE   C3B  857   7.340   0.278  13.254  0.1451  0.0637  0.1019
   73DOPE   C4B  858   7.773   0.021  13.385  0.0456  0.0393  0.2189
   74DOPC   NC3  859   2.417   7.850  13.889 -0.0186 -0.1434  0.2683
   74DOPC   PO4  860   2.068   8.039  14.020 -0.4052 -0.1282  0.0161
   74DOPC   GL1  861   2.119   8.064  13.644  0.0772 -0.1647 -0.2496
   74DOPC   GL2  862   1.973   7.840  13.442 -0.0281  0.0430 -0.1871
   74DOPC   C1A  863   2.209   8.347  13.320 -0.0567 -0.4344  0.1169
   74DOPC   D2A  864   2.207   8.472  12.871  0.0645 -0.0844  0.2609
   74DOPC   C3A  865   1.994   8.861  12.860 -0.1074  0.0864  0.1159
   74DOPC   C4A  866   1.677   9.209  12.711  0.1782  0.0112 -0.0804
   74DOPC   C1B  867   1.821   7.940  13.004 -0.2010 -0.4938  0.0830
   74DOPC   D2B  868   1.901   7.980  12.589  0.1140  0.0798 -0.1371
   74DOPC   C3B  869   2.314   7.783  12.428 -0.1242 -0.1911  0.2522
   74DOPC   C4B  870   2.556   7.424  12.395 -0.0404  0.2107  0.0155
   75DOPE   NH3  871   1.201   6.208  14.187 -0.2604 -0.3317  0.2392
   75DOPE   PO4  872   1.138   6.480  14.108 -0.0022  0.0981  0.1654
   75DOPE   GL1  873   1.095   6.286  13.724 -0.1123 -0.0192 -0.1805
   75DOPE   GL2  874   1.234   6.021  13.630  0.1859 -0.0708  0.0001
   75DOPE   C1A  875   0.969   6.332  13.298 -0.3205  0.2204  0.0136
   75DOPE   D2A  876   1.026   6.578  12.956  0.1796 -0.0695 -0.1593
   75DOPE   C3A  877   0.736   6.623  12.635 -0.2560  0.0980 -0.3196
   75DOPE   C4A  878   0.361   6.767  12.405  0.0415 -0.0863  0.0762
   75DOPE   C1B  879   1.533   6.213  13.251  0.0039 -0.0092  0.2923
   75DOPE   D2B  880   1.887   6.331  12.977  0.0697  0.1295 -0.1698
   75DOPE   C3B  881   2.285   6.124  12.931 -0.1470  0.2043  0.0483
   75DOPE   C4B  882   2.741   6.101  12.905  0.0629  0.1528 -0.2389
   76DOPE   NH3  883   9.389  34.538  14.461 -0.2093 -0.1065  0.0467
   76DOPE   PO4  884   9.588  34.719  14.629  0.1178 -0.1024  0.1542
   76DOPE   GL1  885   9.426  34.942  14.296 -0.0258  0.0430  0.1484
   76DOPE   GL2  886   9.342  34.888  14.059  0.0711 -0.0591  0.0037
   76DOPE   C1A  887   9.312  35.362  14.180 -0.0045  0.0719 -0.5875
   76DOPE   D2A  888   9.157  35.754  14.025 -0.1413 -0.0415  0.0259
   76DOPE   C3A  889   8.996  35.836  13.610  0.1222  0.1147 -0.2684
   76DOPE   C4A  890   8.988  35.833  13.168  0.1640 -0.1119 -0.0369
   76DOPE   C1B  891   9.392  35.180  13.679  0.1071 -0.1753  0.3607
   76DOPE   D2B  892   9.141  35.351  13.299  0.1936  0.1073 -0.1934
   76DOPE   C3B  893   9.260  35.405  12.896 -0.3635 -0.1046 -0.3708
   76DOPE   C4B  894   9.435  35.744  12.646 -0.2557 -0.0039 -0.2474
   77DOPC   NC3  895   1.266   3.443  14.308 -0.0108 -0.0006  0.3810
   77DOPC   PO4  896   1.561   3.158  14.221 -0.2580  0.3066 -0.0782
   77DOPC   GL1  897   1.746   3.189  13.790  0.2365  0.1525  0.1801
   77DOPC   GL2  898   1.601   2.923  13.728  0.0011 -0.4741 -0.1096
   77DOPC   C1A  899   2.104   3.279  13.518 -0.0803 -0.0051  0.1492
   77DOPC   D2A  900   2.140   3.232  13.110  0.1991  0.2857  0.0147
   77DOPC   C3A  901   1.814   3.577  12.984  0.0330 -0.1215 -0.1664
   77DOPC   C4A  902   1.649   4.027  12.848 -0.1607  0.0048 -0.2386
   77DOPC   C1B  903   1.688   3.111  13.277  0.1431 -0.2260 -0.0203
   77DOPC   D2B  904   1.472   3.269  12.908  0.1065 -0.2237  0.2157
   77DOPC   C3B  905   1.423   2.909  12.585  0.0413  0.2168 -0.0905
   77DOPC   C4B  906   1.215   2.778  12.231 -0.1978 -0.1526 -0.2889
   78DOPC   NC3  907   4.035   3.438  14.013  0.1447 -0.1664 -0.0295
   78DOPC   PO4  908   4.305   3.627  14.192 -0.1849  0.2449  0.4260
   78DOPC   GL1  909   4.471   3.576  13.818  0.0547 -0.0988 -0.2290
   78DOPC   GL2  910   4.774   3.580  13.874  0.0085  0.0677 -0.0425
   78DOPC   C1A  911   4.411   3.446  13.340  0.2203 -0.0235  0.0197
   78DOPC   D2A  912   4.294   3.521  12.861 -0.0074 -0.2974 -0.1275
   78DOPC   C3A  913   4.209   3.960  12.611 -0.1227  0.3122  0.2254
   78DOPC   C4A  914   4.295   4.137  12.222  0.1942  0.1642  0.4859
   78DOPC   C1B  915   4.848   3.320  13.518  0.0386  0.1637 -0.0074
   78DOPC   D2B  916   4.909   3.451  13.052 -0.0393  0.1779  0.0805
   78DOPC   C3B  917   4.960   3.219  12.686  0.2682  0.0696 -0.1127
   78DOPC   C4B  918   5.147   2.936  12.371  0.2885  0.0607  0.3428
   79DOPC   NC3  919  10.877   8.788  13.788  0.0396  0.0417  0.1445
   79DOPC   PO4  920  11.231   8.897  13.660  0.0686  0.0742  0.1143
   79DOPC   GL1  921  11.156   8.946  13.299 -0.0852 -0.0614  0.1457
   79DOPC   GL2  922  11.445   8.956  13.134 -0.1172  0.0121  0.0968
   79DOPC   C1A  923  11.128   8.595  12.949 -0.0696 -0.3359  0.1120
   79DOPC   D2A  924  11.246   8.467  12.523  0.1930 -0.0352 -0.3105
   79DOPC   C3A  925  11.495   8.537  12.131  0.2153  0.1473  0.2223
   79DOPC   C4A  926  11.578   8.474  11.705  0.1395  0.1153 -0.0268
   79DOPC   C1B  927  11.381   9.015  12.698  0.1034  0.0404  0.2401
   79DOPC   D2B  928  11.185   8.959  12.283  0.2179  0.2483  0.1233
   79DOPC   C3B  929  11.375   8.892  11.855  0.2086  0.0623 -0.3535
   79DOPC   C4B  930  11.719   8.943  11.578  0.1149 -0.1466 -0.2087
   80DOPC   NC3  931  34.134  32.406  14.921 -0.1892 -0.0308  0.0024
   80DOPC   PO4  932  34.217  32.296  14.541 -0.1461  0.1533  0.0045
   80DOPC   GL1  933  34.182  32.292  14.177 -0.1731  0.2172 -0.1665
   80DOPC   GL2  934  34.401  32.255  13.944 -0.1804 -0.2435  0.1215
   80DOPC   C1A  935  33.896  32.544  13.911 -0.0405  0.4238  0.0989
   80DOPC   D2A  936  33.685  32.697  13.472 -0.0331  0.0237  0.1124
   80DOPC   C3A  937  33.433  32.856  13.108  0.0289  0.1750  0.1656
   80DOPC   C4A  938  33.074  32.535  12.946 -0.3163 -0.2098  0.2861
   80DOPC   C1B  939  34.130  32.243  13.560  0.1472 -0.0133  0.3716
   80DOPC   D2B  940  34.044  32.103  13.154  0.1671 -0.3795 -0.0118
   80DOPC   C3B  941  33.864  32.056  12.756  0.1445  0.2246  0.2559
   80DOPC   C4B  942  33.477  31.850  12.527 -0.0297  0.1852 -0.2188
   81DOPC   NC3  943   4.482   1.173  14.320  0.0764  0.1753 -0.0404
   81DOPC   PO4  944   4.801   1.440  14.237  0.1712  0.0025 -0.0050
   81DOPC   GL1  945   4.745   1.650  13.846 -0.3423 -0.1391 -0.0499
   81DOPC   GL2  946   4.982   1.758  13.850  0.4349  0.0487  0.1028
   81DOPC   C1A  947   4.573   1.738  13.445  0.1909 -0.0204 -0.1457
   81DOPC   D2A  948   4.565   1.666  12.963 -0.1788 -0.0044 -0.1065
   81DOPC   C3A  949   4.863   1.762  12.595 -0.1438 -0.0605 -0.0431
   81DOPC   C4A  950   5.222   1.894  12.286  0.3208 -0.3133  0.1855
   81DOPC   C1B  951   5.341   2.092  13.944  0.0203  0.0621  0.0688
   81DOPC   D2B  952   5.702   2.316  13.778  0.1208  0.3121  0.0021
   81DOPC   C3B  953   5.832   2.426  13.365  0.0463  0.0738 -0.1620
   81DOPC   C4B  954   6.089   2.620  13.052  0.0685 -0.2532 -0.0141
   82DOPE   NH3  955   9.739   7.326  14.019 -0.0246 -0.0317  0.0620
   82DOPE   PO4  956   9.998   7.391  13.856 -0.3440 -0.1117 -0.2623
   82DOPE   GL1  957  10.141   7.224  13.447 -0.2022 -0.1858 -0.3244
   82DOPE   GL2  958   9.839   7.137  13.324  0.1045 -0.1150 -0.0168
   82DOPE   C1A  959  10.325   7.232  13.016 -0.2501 -0.0123  0.1828
   82DOPE   D2A  960  10.444   7.436  12.623  0.1145 -0.0733 -0.0885
   82DOPE   C3A  961  10.583   7.098  12.365 -0.3088 -0.1228  0.0525
   82DOPE   C4A  962  10.805   6.728  12.179  0.1464  0.0811 -0.0268
   82DOPE   C1B  963   9.711   6.804  12.940 -0.0117  0.0648  0.3329
   82DOPE   D2B  964   9.675   6.613  12.501 -0.1242  0.1715 -0.4667
   82DOPE   C3B  965   9.346   6.508  12.247 -0.2907 -0.1887  0.0834
   82DOPE   C4B  966   8.872   6.440  12.284  0.1874  0.0752  0.0369
   83DOPE   NH3  967   7.158   6.869  14.565 -0.1577 -0.1852  0.0269
   83DOPE   PO4  968   6.883   6.835  14.581  0.1324  0.0177 -0.0217
   83DOPE   GL1  969   6.923   6.694  14.220  0.0548 -0.1481  0.2319
   83DOPE   GL2  970   7.094   6.591  13.984 -0.0579  0.0809  0.0064
   83DOPE   C1A  971   6.666   6.777  13.849  0.2865 -0.1528  0.3294
   83DOPE   D2A  972   6.288   6.742  13.617  0.1401  0.0642 -0.3230
   83DOPE   C3A  973   6.293   6.796  13.197 -0.0756 -0.0933 -0.1107
   83DOPE   C4A  974   6.172   6.790  12.760  0.0377 -0.2577 -0.3258
   83DOPE   C1B  975   7.244   6.801  13.568 -0.0018  0.0375  0.3028
   83DOPE   D2B  976   7.322   6.721  13.096 -0.0913  0.0704  0.0455
   83DOPE   C3B  977   7.721   6.751  12.926  0.2540 -0.3250 -0.0254
   83DOPE   C4B  978   7.994   7.130  12.802 -0.0291  0.1796 -0.1524
   84POSM   NC3  979   3.208   7.559  14.023  0.0319 -0.1977 -0.2863
   84POSM   PO4  980   3.020   7.267  14.257 -0.1795 -0.0198 -0.0848
   84POSM   AM1  981   2.861   7.276  13.954 -0.0954 -0.2550  0.2186
   84POSM   AM2  982   2.612   7.285  13.817  0.1187 -0.1600  0.3247
   84POSM   T1A  983   2.980   7.260  13.414  0.0525  0.0959 -0.0865
   84POSM   C2A  984   2.911   7.600  13.144 -0.0076  0.0197 -0.3034
   84POSM   C3A  985   2.760   7.739  12.727  0.0082 -0.1041  0.0517
   84POSM   C1B  986   2.502   7.445  13.529 -0.2222 -0.0687  0.0943
   84POSM   D2B  987   2.429   7.482  13.049 -0.0445 -0.0209 -0.0451
   84POSM   C3B  988   2.414   7.135  12.754  0.1865  0.0189 -0.0441
   84POSM   C4B  989   2.337   6.966  12.314 -0.1707 -0.5106  0.2442
   85DOPC   NC3  990   6.171  32.717  14.061  0.0464  0.0286  0.0561
   85DOPC   PO4  991   6.319  33.089  14.088  0.2143  0.0509 -0.0664
   85DOPC   GL1  992   6.144  33.015  13.666  0.0022  0.2201  0.3562
   85DOPC   GL2  993   5.912  33.004  13.550  0.0324  0.3636  0.1898
   85DOPC   C1A  994   6.228  32.868  13.231 -0.0254 -0.3133  0.1794
   85DOPC   D2A  995   5.990  33.083  12.909 -0.0198 -0.2701 -0.2168
   85DOPC   C3A  996   6.055  32.909  12.485 -0.1036 -0.0203  0.0477
   85DOPC   C4A  997   6.364  32.642  12.292 -0.2099 -0.0235  0.1314
   85DOPC   C1B  998   5.584  33.207  13.287  0.1534 -0.0041 -0.2215
   85DOPC   D2B  999   5.146  33.178  13.381  0.4665 -0.2714 -0.0294
   85DOPC   C3B 1000   4.891  33.104  13.043 -0.0088 -0.2067 -0.0837
   85DOPC   C4B 1001   4.737  32.989  12.666 -0.0559  0.1370 -0.0409
   86POSM   NC3 1002   2.579   0.321  14.245 -0.0157  0.1429  0.0107
   86POSM   PO4 1003   2.929   0.520  14.152  0.4554  0.1402  0.0342
   86POSM   AM1 1004   2.750   0.636  13.863 -0.1051 -0.1380  0.1841
   86POSM   AM2 1005   2.466   0.646  13.802  0.0124 -0.1459 -0.1631
   86POSM   T1A 1006   2.773   0.962  13.447 -0.0766 -0.3483 -0.4133
   86POSM   C2A 1007   3.078   1.185  13.200 -0.0085 -0.0269 -0.1421
   86POSM   C3A 1008   3.488   1.377  13.186 -0.3954 -0.1200  0.1132
   86POSM   C1B 1009   2.438   0.586  13.475 -0.3454 -0.1640  0.2271
   86POSM   D2B 1010   2.623   0.640  13.019  0.0645  0.0471 -0.0345
   86POSM   C3B 1011   2.773   1.019  12.828 -0.2681 -0.1091  0.0250
   86POSM   C4B 1012   2.885   1.214  12.383  0.1646 -0.1887 -0.1872
   87POSM   NC3 1013  34.376  10.687  14.716 -0.3903 -0.0634  0.0026
   87POSM   PO4 1014  34.092  10.863  14.466 -0.1701  0.2026 -0.4477
   87POSM   AM1 1015  34.052  10.820  14.156 -0.0540  0.2539  0.0083
   87POSM   AM2 1016  34.017  10.659  13.934 -0.1799  0.0674 -0.2556
   87POSM   T1A 1017  34.073  11.123  13.742 -0.4430  0.2534  0.1793
   87POSM   C2A 1018  34.080  11.031  13.299 -0.3363  0.0825  0.0633
   87POSM   C3A 1019  34.021  10.963  12.830 -0.1699 -0.0162  0.1988
   87POSM   C1B 1020  33.960  10.653  13.572  0.1197  0.2728 -0.0611
   87POSM   D2B 1021  33.870  10.552  13.134  0.1991 -0.5307 -0.0639
   87POSM   C3B 1022  33.523  10.639  12.852  0.2316 -0.1624  0.3027
   87POSM   C4B 1023  33.364  10.693  12.416 -0.2087 -0.1170 -0.1622
   88DOPS   CNO 1024   8.394   8.417  14.313  0.2560 -0.1882 -0.0909
   88DOPS   PO4 1025   8.390   8.080  14.133  0.0125 -0.1951 -0.0731
   88DOPS   GL1 1026   8.155   8.313  13.925 -0.1118 -0.0657  0.1981
   88DOPS   GL2 1027   8.318   8.446  13.779  0.3681  0.3190  0.1242
   88DOPS   C1A 1028   7.744   8.452  13.719 -0.0905  0.0452  0.0173
   88DOPS   D2A 1029   7.527   8.228  13.406  0.3641  0.2747 -0.0405
   88DOPS   C3A 1030   7.648   8.256  12.983 -0.1502  0.1868 -0.1725
   88DOPS   C4A 1031   7.799   8.112  12.549 -0.0497 -0.2674 -0.1327
   88DOPS   C1B 1032   8.060   8.161  13.531  0.0004  0.1703 -0.0086
   88DOPS   D2B 1033   7.884   7.855  13.282  0.0898  0.2085  0.2998
   88DOPS   C3B 1034   7.969   7.632  12.894  0.0336  0.2302 -0.0145
   88DOPS   C4B 1035   8.162   7.798  12.536 -0.0444  0.1037  0.1628
   89DOPC   NC3 1036   1.002  11.936  14.780 -0.2543 -0.0896  0.0603
   89DOPC   PO4 1037   1.226  11.686  14.505  0.0869  0.1390 -0.2715
   89DOPC   GL1 1038   1.222  11.471  14.066 -0.1537 -0.1479 -0.1394
   89DOPC   GL2 1039   1.476  11.505  14.164 -0.2762  0.0882 -0.1620
   89DOPC   C1A 1040   1.470  11.177  13.782  0.3000 -0.3078 -0.2361
   89DOPC   D2A 1041   1.562  10.897  13.371  0.3326  0.0753 -0.0604
   89DOPC   C3A 1042   1.610  11.189  13.040  0.1056 -0.0548 -0.2725
   89DOPC   C4A 1043   1.944  11.505  13.104 -0.0440 -0.0740  0.0267
   89DOPC   C1B 1044   1.417  11.866  13.853 -0.0911  0.0523 -0.2130
   89DOPC   D2B 1045   1.464  11.808  13.393 -0.0330  0.2513 -0.1959
   89DOPC   C3B 1046   1.201  11.688  13.079 -0.0278  0.1466  0.0900
   89DOPC   C4B 1047   0.904  11.898  12.834 -0.0421 -0.1239 -0.1449
   90DOPE   NH3 1048   1.638   9.508  14.235 -0.3752 -0.5092  0.3291
   90DOPE   PO4 1049   1.700   9.654  13.975  0.0109  0.1440 -0.0709
   90DOPE   GL1 1050   1.839   9.735  13.594 -0.0413 -0.0327  0.4089
   90DOPE   GL2 1051   1.880   9.465  13.495 -0.3821 -0.0518 -0.0172
   90DOPE   C1A 1052   1.645   9.959  13.248 -0.1328  0.2650 -0.0391
   90DOPE   D2A 1053   1.425  10.088  12.903  0.1260 -0.1551 -0.0142
   90DOPE   C3A 1054   1.178  10.345  12.573  0.1302  0.2171  0.1259
   90DOPE   C4A 1055   0.805  10.521  12.474 -0.0407  0.1453  0.0964
   90DOPE   C1B 1056   2.104   9.803  13.250 -0.0100  0.0907 -0.0452
   90DOPE   D2B 1057   1.964  10.000  12.876 -0.0224 -0.0878 -0.1853
   90DOPE   C3B 1058   2.300  10.327  12.762  0.5339  0.1084 -0.1699
   90DOPE   C4B 1059   2.669  10.529  12.491  0.1301 -0.0224  0.0940
   91DOPE   NH3 1060   6.127  31.960  14.202 -0.3508  0.1192  0.0218
   91DOPE   PO4 1061   6.088  32.145  13.886 -0.0311  0.1263 -0.1233
   91DOPE   GL1 1062   6.243  32.155  13.576 -0.3046  0.2314 -0.0891
   91DOPE   GL2 1063   5.998  32.128  13.370  0.1901  0.0889  0.0034
   91DOPE   C1A 1064   6.425  32.409  13.212  0.2232  0.0422 -0.3145
   91DOPE   D2A 1065   6.339  32.632  12.851 -0.1329 -0.1650  0.0619
   91DOPE   C3A 1066   6.705  32.750  12.611  0.0943  0.0507  0.1308
   91DOPE   C4A 1067   7.035  32.863  12.346  0.0095  0.1218 -0.1726
   91DOPE   C1B 1068   5.962  32.361  12.975 -0.0363 -0.0170 -0.0569
   91DOPE   D2B 1069   5.871  32.376  12.484  0.3513  0.0419 -0.3100
   91DOPE   C3B 1070   5.852  31.997  12.248  0.0310  0.2031 -0.4848
   91DOPE   C4B 1071   6.087  31.619  12.079  0.0553 -0.0009  0.0516
   92DOPC   NC3 1072   4.572  34.593  13.990 -0.0450  0.0700  0.1682
   92DOPC   PO4 1073   5.004  34.586  13.986  0.1525  0.0902 -0.2409
   92DOPC   GL1 1074   5.165  34.892  13.678 -0.3120 -0.3215 -0.0821
   92DOPC   GL2 1075   4.994  35.132  13.675 -0.1452  0.2580 -0.2273
   92DOPC   C1A 1076   5.465  35.057  13.369 -0.0490  0.1367  0.0605
   92DOPC   D2A 1077   5.677  35.365  13.197 -0.0527 -0.0727  0.0315
   92DOPC   C3A 1078   5.762  35.427  12.788  0.0669 -0.2757  0.1078
   92DOPC   C4A 1079   6.080  35.308  12.423  0.0805 -0.0681 -0.0900
   92DOPC   C1B 1080   5.038  35.073  13.175  0.0216  0.0801 -0.0301
   92DOPC   D2B 1081   5.392  34.967  12.897  0.0190 -0.0802  0.0886
   92DOPC   C3B 1082   5.379  35.233  12.504 -0.2725  0.0884  0.5162
   92DOPC   C4B 1083   5.242  35.549  12.169 -0.2023  0.0719  0.2505
   93POSM   NC3 1084   7.813   9.713  13.898 -0.3651  0.0342  0.1930
   93POSM   PO4 1085   7.662   9.385  13.993 -0.2975  0.1588  0.0770
   93POSM   AM1 1086   7.887   9.305  13.782 -0.2503  0.0455 -0.2370
   93POSM   AM2 1087   7.903   9.296  13.490  0.0589  0.4058 -0.4558
   93POSM   T1A 1088   8.024   8.878  13.576 -0.0812  0.0284 -0.0167
   93POSM   C2A 1089   7.953   8.564  13.220 -0.3263 -0.0902 -0.2197
   93POSM   C3A 1090   7.891   8.677  12.781  0.1128  0.1580  0.0002
   93POSM   C1B 1091   8.051   9.184  13.169 -0.0884 -0.2990 -0.1879
   93POSM   D2B 1092   8.297   9.309  12.792  0.1007  0.1098  0.1371
   93POSM   C3B 1093   8.042   9.558  12.483 -0.1534 -0.0979 -0.1300
   93POSM   C4B 1094   7.899   9.963  12.408 -0.2223 -0.2377  0.1588
   94POSM   NC3 1095   2.813  11.817  14.253  0.0029  0.0763 -0.1778
   94POSM   PO4 1096   2.856  12.209  14.327  0.0615 -0.0582  0.2017
   94POSM   AM1 1097   2.819  12.237  13.982 -0.2731  0.0265  0.2376
   94POSM   AM2 1098   2.725  12.383  13.761  0.0683  0.3661  0.0791
   94POSM   T1A 1099   2.457  11.950  13.713 -0.1060  0.0932  0.2103
   94POSM   C2A 1100   2.231  11.568  13.582  0.5026  0.0896 -0.2608
   94POSM   C3A 1101   1.954  11.127  13.539  0.1609 -0.1988  0.0410
   94POSM   C1B 1102   2.492  12.524  13.553  0.1599  0.1335 -0.1869
   94POSM   D2B 1103   2.247  12.691  13.223  0.2204  0.0889  0.3075
   94POSM   C3B 1104   1.821  12.776  13.124  0.1118 -0.0990 -0.1047
   94POSM   C4B 1105   1.565  12.978  12.798  0.2604 -0.0585 -0.1311
   95DOPC   NC3 1106   8.551   9.890  13.598  0.0793 -0.0031 -0.2225
   95DOPC   PO4 1107   8.316   9.658  13.742 -0.3145  0.2682 -0.0430
   95DOPC   GL1 1108   8.537   9.367  13.419 -0.1472 -0.2589 -0.1922
   95DOPC   GL2 1109   8.573   9.569  13.171  0.1498  0.0510  0.1693
   95DOPC   C1A 1110   8.452   8.915  13.321 -0.1313  0.1079 -0.0457
   95DOPC   D2A 1111   8.394   8.678  12.920 -0.5106  0.1219  0.3264
   95DOPC   C3A 1112   8.813   8.502  12.754  0.1093  0.1005 -0.1132
   95DOPC   C4A 1113   9.182   8.216  12.917 -0.0932  0.0539  0.3014
   95DOPC   C1B 1114   8.582   9.675  12.729 -0.1882  0.2579 -0.0679
   95DOPC   D2B 1115   8.776   9.862  12.350 -0.0596 -0.2054  0.0462
   95DOPC   C3B 1116   8.843  10.191  11.996 -0.1835  0.3427 -0.1742
   95DOPC   C4B 1117   8.935  10.587  11.819  0.0057 -0.0429  0.0970
   96DOPS   CNO 1118   5.794   7.425  14.486  0.1933  0.2213 -0.1302
   96DOPS   PO4 1119   6.079   7.403  14.241  0.2057  0.0143 -0.1609
   96DOPS   GL1 1120   6.104   7.304  13.929  0.0594  0.1118 -0.2738
   96DOPS   GL2 1121   5.970   6.967  13.884 -0.0346 -0.2003 -0.2976
   96DOPS   C1A 1122   6.507   7.234  13.699 -0.2000 -0.1341  0.1733
   96DOPS   D2A 1123   6.719   7.040  13.311 -0.0293  0.3725  0.1177
   96DOPS   C3A 1124   6.544   7.259  12.997  0.3868 -0.0674 -0.0248
   96DOPS   C4A 1125   6.511   7.436  12.556 -0.0937  0.2766  0.2338
   96DOPS   C1B 1126   5.789   6.964  13.448 -0.1726  0.0858 -0.1476
   96DOPS   D2B 1127   5.701   7.109  13.053 -0.0689 -0.0194  0.2546
   96DOPS   C3B 1128   6.029   7.255  12.775  0.2314 -0.1762  0.1725
   96DOPS   C4B 1129   6.211   7.154  12.358  0.2960  0.1254 -0.1614
   97DOPE   NH3 1130  13.146   5.532  13.738  0.2083  0.1708  0.1298
   97DOPE   PO4 1131  13.033   5.842  13.773 -0.0906 -0.0589  0.2163
   97DOPE   GL1 1132  12.904   5.828  13.371 -0.1207 -0.1494  0.1029
   97DOPE   GL2 1133  13.166   5.945  13.272  0.2247  0.2289 -0.1217
   97DOPE   C1A 1134  12.695   6.116  13.026  0.2922 -0.2443 -0.1708
   97DOPE   D2A 1135  12.426   6.047  12.656 -0.1998  0.1077  0.0248
   97DOPE   C3A 1136  12.477   6.158  12.230 -0.0404  0.0875 -0.2683
   97DOPE   C4A 1137  12.477   6.040  11.794 -0.3738  0.2550  0.1348
   97DOPE   C1B 1138  13.197   5.751  12.876 -0.1730  0.1423  0.1073
   97DOPE   D2B 1139  13.381   5.548  12.406  0.1596 -0.1904  0.2026
   97DOPE   C3B 1140  13.409   5.209  12.144  0.0726 -0.0709  0.1805
   97DOPE   C4B 1141  13.554   4.767  12.163  0.0618  0.2607 -0.0980
   98DOPS   CNO 1142   4.575   8.312  13.961 -0.0638  0.2146  0.1298
   98DOPS   PO4 1143   4.332   8.574  13.937 -0.0260  0.1670 -0.0921
   98DOPS   GL1 1144   4.339   8.453  13.578 -0.1486 -0.0888  0.2968
   98DOPS   GL2 1145   4.324   8.157  13.481  0.2026  0.2714 -0.1733
   98DOPS   C1A 1146   4.614   8.453  13.229 -0.0071 -0.2057  0.3435
   98DOPS   D2A 1147   4.485   8.304  12.804  0.0131 -0.0957  0.0108
   98DOPS   C3A 1148   4.532   7.868  12.555 -0.2057  0.0070 -0.1438
   98DOPS   C4A 1149   4.300   7.756  12.183  0.0488 -0.0812  0.2382
   98DOPS   C1B 1150   3.872   7.956  13.461  0.0276 -0.1743  0.0356
   98DOPS   D2B 1151   3.521   7.906  13.174 -0.2966  0.0613  0.2814
   98DOPS   C3B 1152   3.594   8.025  12.759  0.1319  0.1863 -0.0375
   98DOPS   C4B 1153   3.970   8.076  12.481 -0.0116  0.0724 -0.0091
   99DOPS   CNO 1154   2.220   0.752  14.220  0.0078  0.1847 -0.0121
   99DOPS   PO4 1155   1.971   0.498  14.181  0.3727 -0.2876 -0.0940
   99DOPS   GL1 1156   2.164   0.344  13.866  0.2224  0.1234 -0.2371
   99DOPS   GL2 1157   2.049   0.067  13.811  0.1479  0.3278 -0.1679
   99DOPS   C1A 1158   1.949   0.502  13.507 -0.0290  0.1025 -0.0812
   99DOPS   D2A 1159   1.647   0.517  13.125 -0.2029 -0.2823  0.2255
   99DOPS   C3A 1160   1.769   0.571  12.693  0.2170  0.0388  0.1568
   99DOPS   C4A 1161   1.772   0.854  12.325  0.0010  0.0279 -0.4187
   99DOPS   C1B 1162   2.021  -0.335  13.518 -0.1282 -0.1637  0.1253
   99DOPS   D2B 1163   1.988  -0.607  13.215  0.1129 -0.0466 -0.1938
   99DOPS   C3B 1164   2.270  -0.632  12.818  0.1833  0.2875  0.0360
   99DOPS   C4B 1165   2.549  -0.502  12.451 -0.2841  0.2364 -0.2006
  100POSM   NC3 1166   2.664   8.978  14.427  0.0353 -0.2191  0.0048
  100POSM   PO4 1167   2.429   8.915  14.109  0.0986  0.4414 -0.1453
  100POSM   AM1 1168   2.391   8.775  13.777  0.5092  0.2446 -0.0886
  100POSM   AM2 1169   2.581   8.729  13.604  0.1287 -0.0396  0.4151
  100POSM   T1A 1170   2.309   8.840  13.272 -0.1114  0.0027  0.1435
  100POSM   C2A 1171   2.525   8.904  12.861 -0.2432 -0.1362 -0.3254
  100POSM   C3A 1172   2.574   9.035  12.439 -0.1104 -0.0033  0.1470
  100POSM   C1B 1173   2.722   8.547  13.392 -0.0541 -0.4741 -0.0961
  100POSM   D2B 1174   2.721   8.466  12.954  0.4205  0.0475 -0.2395
  100POSM   C3B 1175   2.905   8.691  12.578  0.0352  0.1628  0.1750
  100POSM   C4B 1176   3.138   8.655  12.186 -0.0056 -0.0667 -0.1623
  101POSM   NC3 1177   8.706   5.621  14.090 -0.0331  0.0102 -0.1033
  101POSM   PO4 1178   8.431   5.910  14.065 -0.0827  0.0868  0.1066
  101POSM   AM1 1179   8.353   6.131  13.859  0.0260 -0.1526  0.3369
  101POSM   AM2 1180   8.370   6.202  13.590 -0.1526 -0.0485 -0.0077
  101POSM   T1A 1181   8.061   6.547  13.662 -0.0385  0.2152  0.0953
  101POSM   C2A 1182   7.818   6.875  13.490  0.0840  0.2547  0.1353
  101POSM   C3A 1183   7.854   7.298  13.271 -0.1921 -0.1419 -0.1477
  101POSM   C1B 1184   8.164   6.018  13.385 -0.0872 -0.1686  0.1186
  101POSM   D2B 1185   7.972   5.953  12.974  0.1347  0.3678 -0.0036
  101POSM   C3B 1186   8.211   5.660  12.637 -0.1749 -0.1964 -0.1370
  101POSM   C4B 1187   8.272   5.644  12.161  0.0026 -0.1125 -0.1756
  102DOPC   NC3 1188   4.212   2.600  14.693 -0.0916 -0.2697 -0.4374
  102DOPC   PO4 1189   4.460   2.320  14.558  0.0546  0.2383 -0.2407
  102DOPC   GL1 1190   4.687   2.166  14.175 -0.0311 -0.1031 -0.3286
  102DOPC   GL2 1191   4.842   2.023  14.278 -0.2749 -0.0713  0.0598
  102DOPC   C1A 1192   4.601   2.208  13.721 -0.0342 -0.1375  0.0415
  102DOPC   D2A 1193   4.575   2.222  13.272  0.0695 -0.2173  0.0466
  102DOPC   C3A 1194   4.761   2.503  12.941  0.2293 -0.2489 -0.0642
  102DOPC   C4A 1195   4.992   2.852  13.083  0.0083  0.0805 -0.0774
  102DOPC   C1B 1196   5.029   2.436  14.083 -0.2202  0.0623 -0.1450
  102DOPC   D2B 1197   5.351   2.646  13.907  0.2713 -0.0825 -0.3692
  102DOPC   C3B 1198   5.367   2.736  13.442  0.1921 -0.1850  0.1066
  102DOPC   C4B 1199   5.491   2.603  12.996  0.3046 -0.1703  0.3086
  103POSM   NC3 1200   4.527  12.457  14.227  0.2348 -0.0385  0.0071
  103POSM   PO4 1201   4.743  12.134  14.211 -0.1730  0.4188  0.0456
  103POSM   AM1 1202   4.520  12.049  14.004  0.0678  0.1359  0.1209
  103POSM   AM2 1203   4.524  11.780  13.865 -0.0437 -0.2485 -0.0616
  103POSM   T1A 1204   4.044  11.901  13.870 -0.0986 -0.0469 -0.2841
  103POSM   C2A 1205   3.851  11.877  13.490  0.3650 -0.1881 -0.0544
  103POSM   C3A 1206   3.521  11.682  13.297 -0.0386  0.1371 -0.3117
  103POSM   C1B 1207   4.609  11.889  13.582  0.1582 -0.1550  0.0405
  103POSM   D2B 1208   4.474  12.242  13.286 -0.4157 -0.1872 -0.4435
  103POSM   C3B 1209   4.151  12.399  13.067 -0.5135 -0.2018  0.0718
  103POSM   C4B 1210   4.056  12.501  12.616  0.1787 -0.0864  0.4067
  104DOPC   NC3 1211   5.504   3.957  14.153 -0.2442 -0.1243 -0.0136
  104DOPC   PO4 1212   5.090   4.099  14.158 -0.2501 -0.1045 -0.0023
  104DOPC   GL1 1213   5.363   4.241  13.857 -0.0711 -0.2621 -0.2224
  104DOPC   GL2 1214   5.148   4.203  13.652 -0.0591 -0.2095 -0.2596
  104DOPC   C1A 1215   5.672   4.109  13.536  0.2078  0.2107  0.0407
  104DOPC   D2A 1216   5.784   3.964  13.133 -0.2165 -0.0029  0.1431
  104DOPC   C3A 1217   5.602   3.609  12.858  0.0291  0.1185  0.2386
  104DOPC   C4A 1218   5.494   3.251  12.577  0.2375 -0.0266 -0.1380
  104DOPC   C1B 1219   5.254   4.281  13.249  0.2244  0.2459 -0.2309
  104DOPC   D2B 1220   5.208   3.937  12.941 -0.2601 -0.0051 -0.0645
  104DOPC   C3B 1221   5.253   3.753  12.569  0.2290  0.0529 -0.1227
  104DOPC   C4B 1222   5.244   3.527  12.234  0.0533  0.3209  0.2037
  105POSM   NC3 1223   6.163   5.677  14.258  0.0013 -0.0674 -0.0189
  105POSM   PO4 1224   6.501   5.898  14.338 -0.1324  0.1899 -0.1168
  105POSM   AM1 1225   6.578   6.013  14.024 -0.3496 -0.0559 -0.0114
  105POSM   AM2 1226   6.540   6.275  13.970 -0.3182  0.1467  0.2425
  105POSM   T1A 1227   6.622   5.876  13.527 -0.1211  0.4155  0.1505
  105POSM   C2A 1228   6.738   5.637  13.124  0.1049 -0.6280  0.1130
  105POSM   C3A 1229   6.816   5.536  12.705 -0.0919 -0.1461  0.0385
  105POSM   C1B 1230   6.425   6.301  13.641  0.2628 -0.1054 -0.0770
  105POSM   D2B 1231   6.381   6.266  13.195  0.3323 -0.1111  0.3354
  105POSM   C3B 1232   6.656   6.083  12.959 -0.2566 -0.2482  0.2542
  105POSM   C4B 1233   6.909   6.168  12.551  0.0512  0.0777 -0.0185
  106POSM   NC3 1234   6.760  34.480  14.475  0.0286  0.0832  0.0152
  106POSM   PO4 1235   6.625  34.118  14.330 -0.0810  0.1712 -0.1413
  106POSM   AM1 1236   6.619  34.261  14.033 -0.0078  0.2376  0.2128
  106POSM   AM2 1237   6.609  34.522  13.945 -0.3492 -0.1102 -0.0235
  106POSM   T1A 1238   6.611  34.285  13.480 -0.0055  0.2514  0.0358
  106POSM   C2A 1239   6.710  34.505  13.104  0.1885 -0.1531 -0.0383
  106POSM   C3A 1240   6.531  34.780  12.669 -0.0911 -0.1921  0.1651
  106POSM   C1B 1241   6.551  34.749  13.670  0.0790 -0.0398  0.0216
  106POSM   D2B 1242   6.327  34.862  13.260  0.1808 -0.2345 -0.0767
  106POSM   C3B 1243   6.569  35.255  13.024 -0.2741  0.1513  0.1718
  106POSM   C4B 1244   6.272  35.605  13.067 -0.0747 -0.2031 -0.2847
  107DOPC   NC3 1245  34.012   0.964  14.312 -0.2230 -0.1723 -0.1112
  107DOPC   PO4 1246  34.227   0.674  14.452 -0.0177 -0.4214 -0.1328
  107DOPC   GL1 1247  34.002   0.594  14.012  0.3364 -0.0924  0.1476
  107DOPC   GL2 1248  34.192   0.413  13.888  0.2271  0.1277  0.1157
  107DOPC   C1A 1249  33.998   0.953  13.667 -0.0039 -0.3174  0.0106
  107DOPC   D2A 1250  33.667   1.300  13.576  0.0178  0.0410  0.2581
  107DOPC   C3A 1251  33.699   1.611  13.223  0.0663 -0.0726  0.3557
  107DOPC   C4A 1252  33.304   1.703  12.992  0.0163  0.3638  0.1205
  107DOPC   C1B 1253  33.824   0.493  13.587  0.1620  0.0570  0.0023
  107DOPC   D2B 1254  33.652   0.772  13.257 -0.0639 -0.3052  0.0777
  107DOPC   C3B 1255  33.961   0.683  12.886  0.1524 -0.3253  0.1463
  107DOPC   C4B 1256  33.977   0.304  12.676 -0.3950  0.2839 -0.1900
  108DOPE   NH3 1257   4.481   4.122  14.232 -0.1847 -0.4169 -0.1719
  108DOPE   PO4 1258   4.265   4.347  14.370  0.0630 -0.0817  0.0011
  108DOPE   GL1 1259   4.027   4.455  13.931  0.1015 -0.4147 -0.0867
  108DOPE   GL2 1260   4.236   4.484  13.858  0.0412 -0.1890 -0.2670
  108DOPE   C1A 1261   3.819   4.259  13.541 -0.1487  0.2359  0.1439
  108DOPE   D2A 1262   3.440   4.024  13.415 -0.1975  0.2241  0.0599
  108DOPE   C3A 1263   3.450   4.028  12.956  0.1163  0.0662 -0.0911
  108DOPE   C4A 1264   3.718   3.916  12.648  0.1610  0.1818 -0.0416
  108DOPE   C1B 1265   4.408   4.225  13.519  0.1117  0.1100  0.1625
  108DOPE   D2B 1266   4.454   3.891  13.155 -0.2341 -0.1036 -0.0614
  108DOPE   C3B 1267   4.778   4.002  12.845 -0.2039 -0.0170  0.1716
  108DOPE   C4B 1268   4.984   4.422  12.785  0.2121 -0.0764  0.0445
  109DOPC   NC3 1269   6.102   1.731  14.626 -0.1544 -0.0909  0.0491
  109DOPC   PO4 1270   5.745   1.783  14.424  0.0963  0.3033  0.0746
  109DOPC   GL1 1271   5.766   1.848  13.974  0.1786  0.1931 -0.3027
  109DOPC   GL2 1272   5.503   1.643  13.784 -0.0429  0.1442 -0.0071
  109DOPC   C1A 1273   5.849   1.923  13.508  0.2735  0.2308  0.0109
  109DOPC   D2A 1274   6.027   2.066  13.136  0.1310  0.1825  0.0546
  109DOPC   C3A 1275   5.768   2.193  12.818 -0.4048  0.1648  0.2617
  109DOPC   C4A 1276   6.056   2.347  12.460  0.1954  0.0822  0.0257
  109DOPC   C1B 1277   5.201   1.690  13.399  0.1354 -0.0874 -0.2664
  109DOPC   D2B 1278   4.965   1.950  13.038 -0.2047 -0.1430  0.1042
  109DOPC   C3B 1279   5.227   2.225  12.719  0.2481 -0.2406 -0.0448
  109DOPC   C4B 1280   5.237   2.440  12.312  0.0882  0.0356 -0.1726
  110POSM   NC3 1281   9.129   7.122  14.026 -0.1026 -0.2095  0.1965
  110POSM   PO4 1282   9.048   6.745  14.149 -0.0998  0.2309 -0.0078
  110POSM   AM1 1283   8.959   6.680  13.844  0.0144 -0.0023 -0.1407
  110POSM   AM2 1284   9.085   6.520  13.657  0.2206 -0.1289 -0.1959
  110POSM   T1A 1285   8.581   6.645  13.484 -0.1538  0.0338 -0.0861
  110POSM   C2A 1286   8.226   6.612  13.158  0.1194  0.3703 -0.1044
  110POSM   C3A 1287   8.144   6.470  12.708 -0.0766  0.2358  0.1499
  110POSM   C1B 1288   8.927   6.282  13.627  0.3022  0.0340  0.0846
  110POSM   D2B 1289   8.727   5.905  13.394 -0.4309 -0.1023 -0.0118
  110POSM   C3B 1290   8.528   6.060  12.971  0.2033 -0.3041 -0.3506
  110POSM   C4B 1291   8.475   6.110  12.507  0.3194 -0.3282  0.1797
  111POSM   NC3 1292   2.160  12.144  14.843 -0.1608  0.1729  0.0160
  111POSM   PO4 1293   2.332  12.486  14.793  0.2203 -0.1667  0.0987
  111POSM   AM1 1294   2.354  12.550  14.456 -0.1527 -0.0094  0.1583
  111POSM   AM2 1295   2.562  12.616  14.267 -0.0889  0.1437  0.1353
  111POSM   T1A 1296   2.222  12.332  14.010 -0.1901 -0.2780 -0.1152
  111POSM   C2A 1297   1.970  11.966  13.910 -0.3035 -0.2352 -0.0383
  111POSM   C3A 1298   1.766  11.540  13.823 -0.1376  0.0508  0.0643
  111POSM   C1B 1299   2.435  12.855  14.056 -0.1045  0.2514 -0.2077
  111POSM   D2B 1300   2.479  13.079  13.603  0.3381 -0.1212 -0.2689
  111POSM   C3B 1301   2.102  13.261  13.464  0.0417  0.3854 -0.1958
  111POSM   C4B 1302   1.781  13.590  13.560 -0.2686  0.0160 -0.1901
  112POSM   NC3 1303   4.632   7.650  14.356 -0.1304  0.1668 -0.1485
  112POSM   PO4 1304   4.853   7.901  14.159 -0.3061 -0.2735  0.1077
  112POSM   AM1 1305   5.031   7.817  13.890 -0.1063 -0.3192  0.2179
  112POSM   AM2 1306   4.986   7.919  13.624 -0.0075  0.1011 -0.0401
  112POSM   T1A 1307   5.481   7.744  13.737  0.1837  0.2117 -0.1720
  112POSM   C2A 1308   5.761   7.495  13.491  0.1919 -0.2012 -0.5310
  112POSM   C3A 1309   6.130   7.321  13.281 -0.1759  0.2064  0.3311
  112POSM   C1B 1310   4.733   7.949  13.301 -0.1216  0.2810  0.2380
  112POSM   D2B 1311   4.356   7.791  13.079  0.1451 -0.0768 -0.0239
  112POSM   C3B 1312   4.070   8.169  13.106  0.1548 -0.0578  0.2799
  112POSM   C4B 1313   3.626   8.357  13.224  0.1414 -0.0906 -0.2857
  113POSM   NC3 1314   4.966  13.202  13.823  0.0364  0.1265 -0.0547
  113POSM   PO4 1315   4.904  12.845  13.662  0.2097 -0.2450  0.2998
  113POSM   AM1 1316   4.798  12.785  13.373  0.1450 -0.0170 -0.0689
  113POSM   AM2 1317   4.829  12.566  13.190 -0.0691 -0.0625  0.4683
  113POSM   T1A 1318   4.411  12.886  13.101  0.1643  0.1288 -0.0542
  113POSM   C2A 1319   4.145  12.968  12.720  0.2267 -0.0540 -0.2127
  113POSM   C3A 1320   3.734  12.898  12.531 -0.3007  0.1836 -0.2167
  113POSM   C1B 1321   4.661  12.475  12.898 -0.3135 -0.2430  0.0040
  113POSM   D2B 1322   4.528  12.589  12.458  0.4346 -0.2295 -0.1795
  113POSM   C3B 1323   4.441  12.327  12.140  0.2236  0.0572 -0.0503
  113POSM   C4B 1324   4.122  12.174  11.893 -0.0249 -0.2592  0.1897
  114DOPC   NC3 1325  10.491   8.059  13.500  0.0791 -0.0870  0.0835
  114DOPC   PO4 1326  10.829   7.939  13.576  0.3960  0.1332 -0.1881
  114DOPC   GL1 1327  10.929   7.918  13.165 -0.0989 -0.0045 -0.1541
  114DOPC   GL2 1328  10.952   8.175  13.126 -0.0155 -0.0418  0.0045
  114DOPC   C1A 1329  10.862   7.506  12.899 -0.2567  0.1501  0.2811
  114DOPC   D2A 1330  10.773   7.051  12.824 -0.1273 -0.0511  0.3246
  114DOPC   C3A 1331  10.988   6.735  13.088 -0.0748  0.3299  0.1667
  114DOPC   C4A 1332  11.329   6.386  12.948 -0.0919 -0.1841 -0.0308
  114DOPC   C1B 1333  11.077   7.989  12.703  0.1796  0.0053  0.1633
  114DOPC   D2B 1334  11.016   8.064  12.276  0.0612 -0.1373 -0.0248
  114DOPC   C3B 1335  11.333   8.069  11.925  0.2719  0.1554  0.0076
  114DOPC   C4B 1336  11.568   7.752  11.700 -0.1096  0.1557 -0.3963
  115POSM   NC3 1337  12.110   7.621  13.181  0.0418  0.0910  0.3406
  115POSM   PO4 1338  12.432   7.625  13.401 -0.1256  0.1441 -0.1604
  115POSM   AM1 1339  12.407   7.310  13.270 -0.0514 -0.2204 -0.3555
  115POSM   AM2 1340  12.593   7.092  13.174  0.1692  0.4566  0.0791
  115POSM   T1A 1341  12.113   7.076  13.026  0.0685 -0.1093  0.2443
  115POSM   C2A 1342  12.098   6.809  12.647  0.0923  0.3216 -0.4152
  115POSM   C3A 1343  12.132   6.665  12.251  0.2539  0.1163  0.0244
  115POSM   C1B 1344  12.634   7.205  12.861  0.4032  0.3858  0.2322
  115POSM   D2B 1345  12.669   7.259  12.416 -0.2311  0.1341 -0.0960
  115POSM   C3B 1346  12.704   6.802  12.263 -0.2968 -0.0052  0.0808
  115POSM   C4B 1347  12.947   6.409  12.162 -0.0661 -0.2671 -0.0615
  116DOPS   CNO 1348   7.661   3.909  14.751 -0.1043  0.2205 -0.0163
  116DOPS   PO4 1349   7.430   3.718  14.526  0.1216  0.0354 -0.0896
  116DOPS   GL1 1350   7.422   3.471  14.226 -0.1188 -0.1660 -0.0865
  116DOPS   GL2 1351   7.687   3.320  14.169  0.0290  0.1850  0.0288
  116DOPS   C1A 1352   7.290   3.580  13.792  0.0274 -0.1205 -0.2276
  116DOPS   D2A 1353   6.966   3.409  13.493 -0.0532 -0.1559 -0.3216
  116DOPS   C3A 1354   6.570   3.135  13.584 -0.0612 -0.3353 -0.1522
  116DOPS   C4A 1355   6.318   2.768  13.561  0.2858  0.1182  0.1497
  116DOPS   C1B 1356   7.935   3.394  13.697 -0.1224  0.1721  0.1752
  116DOPS   D2B 1357   8.075   3.418  13.221 -0.0766 -0.1834  0.0626
  116DOPS   C3B 1358   8.012   3.869  13.010 -0.0285 -0.0224 -0.0822
  116DOPS   C4B 1359   8.264   4.208  12.842 -0.1682  0.1662  0.1180
  117DOPS   CNO 1360   1.199   8.808  14.104 -0.1741 -0.0429 -0.2168
  117DOPS   PO4 1361   1.538   8.712  14.026 -0.2835  0.1649  0.4071
  117DOPS   GL1 1362   1.705   8.746  13.630 -0.0740  0.2528 -0.5238
  117DOPS   GL2 1363   1.774   8.497  13.544  0.0575  0.0635  0.0398
  117DOPS   C1A 1364   1.712   9.052  13.253  0.1429  0.2239  0.0963
  117DOPS   D2A 1365   1.615   9.501  13.088 -0.3275  0.3473  0.2222
  117DOPS   C3A 1366   1.207   9.682  13.072 -0.1517  0.0858  0.0063
  117DOPS   C4A 1367   0.894   9.978  13.076 -0.0994 -0.2051  0.0050
  117DOPS   C1B 1368   1.783   8.456  13.096 -0.0036  0.0885 -0.0322
  117DOPS   D2B 1369   1.777   8.499  12.596 -0.1207  0.0344  0.1486
  117DOPS   C3B 1370   2.120   8.417  12.317  0.0024 -0.1072  0.3906
  117DOPS   C4B 1371   2.368   8.107  12.036 -0.4299 -0.1192  0.2433
  118DOPS   CNO 1372   5.713   5.808  14.059  0.0806 -0.1438  0.0508
  118DOPS   PO4 1373   5.588   6.150  14.019 -0.2160 -0.2041  0.0876
  118DOPS   GL1 1374   5.625   6.238  13.645  0.0468  0.3788 -0.2782
  118DOPS   GL2 1375   5.769   6.514  13.710 -0.0276 -0.3544  0.1089
  118DOPS   C1A 1376   5.936   5.916  13.428 -0.0258 -0.0050  0.2668
  118DOPS   D2A 1377   6.281   5.782  13.141  0.0483  0.1286 -0.0460
  118DOPS   C3A 1378   6.355   5.817  12.698 -0.3996  0.2096 -0.2078
  118DOPS   C4A 1379   6.534   5.985  12.311 -0.2122 -0.3448 -0.1526
  118DOPS   C1B 1380   5.913   6.392  13.303  0.0825  0.1418 -0.1818
  118DOPS   D2B 1381   5.708   6.553  12.924  0.0048 -0.3295 -0.0523
  118DOPS   C3B 1382   5.659   6.394  12.518 -0.1952  0.2061  0.1309
  118DOPS   C4B 1383   5.761   6.107  12.181 -0.2164  0.0338 -0.3665
  119POSM   NC3 1384   4.175   0.533  14.590  0.3697  0.3025  0.1614
  119POSM   PO4 1385   4.356   0.692  14.302 -0.0453  0.3198 -0.0408
  119POSM   AM1 1386   4.313   0.598  13.976 -0.3801  0.1851  0.0288
  119POSM   AM2 1387   4.523   0.507  13.767  0.1292  0.2015 -0.2696
  119POSM   T1A 1388   4.105   0.332  13.592  0.2653  0.3385 -0.0623
  119POSM   C2A 1389   4.195  -0.061  13.396 -0.0402  0.1134  0.0217
  119POSM   C3A 1390   4.558  -0.208  13.110 -0.0472  0.0110 -0.1748
  119POSM   C1B 1391   4.406   0.747  13.520  0.0817  0.1586 -0.1064
  119POSM   D2B 1392   4.396   1.176  13.293 -0.1115  0.3873 -0.2518
  119POSM   C3B 1393   4.027   1.062  13.037 -0.2758 -0.0132  0.1355
  119POSM   C4B 1394   3.733   1.284  12.742  0.3520  0.1582 -0.0552
  120DOPE   NH3 1395   7.161  10.715  13.940 -0.1024  0.2825 -0.4953
  120DOPE   PO4 1396   7.414  10.545  13.735  0.3752 -0.3490 -0.1087
  120DOPE   GL1 1397   7.301  10.720  13.331  0.2731  0.1631 -0.4655
  120DOPE   GL2 1398   7.086  10.989  13.319  0.0663 -0.1515 -0.0930
  120DOPE   C1A 1399   7.362  10.434  12.966  0.1376 -0.2909 -0.1225
  120DOPE   D2A 1400   7.355  10.128  12.608  0.1797  0.2390  0.0774
  120DOPE   C3A 1401   7.475  10.025  12.146  0.0825 -0.1418  0.0503
  120DOPE   C4A 1402   7.466  10.059  11.701  0.0409  0.1649 -0.0082
  120DOPE   C1B 1403   6.891  10.689  13.032  0.1064 -0.0722  0.1085
  120DOPE   D2B 1404   6.781  10.266  13.048 -0.0679 -0.0784  0.0071
  120DOPE   C3B 1405   7.136   9.962  13.069 -0.1379 -0.1707  0.1211
  120DOPE   C4B 1406   7.222   9.553  12.812 -0.0399 -0.1628 -0.0149
  121POSM   NC3 1407   4.237  31.267  13.967 -0.0217  0.0736  0.3105
  121POSM   PO4 1408   4.144  30.891  14.081  0.0141  0.1491  0.2154
  121POSM   AM1 1409   4.116  30.841  13.757  0.2469 -0.1742 -0.2968
  121POSM   AM2 1410   4.273  30.880  13.546  0.0887  0.2183  0.2279
  121POSM   T1A 1411   3.901  30.581  13.423  0.5303 -0.1991 -0.0435
  121POSM   C2A 1412   3.853  30.456  12.960 -0.0107  0.2715  0.0537
  121POSM   C3A 1413   3.716  30.531  12.555  0.1124  0.0936  0.1258
  121POSM   C1B 1414   4.333  30.784  13.218  0.1258 -0.0099 -0.3505
  121POSM   D2B 1415   4.361  30.500  12.856  0.2489  0.1050 -0.1759
  121POSM   C3B 1416   4.191  30.344  12.468 -0.4843 -0.0957  0.2396
  121POSM   C4B 1417   4.044  29.957  12.354  0.1869 -0.1355 -0.0617
  122DOPS   CNO 1418   9.522   9.287  14.083 -0.0441  0.0719 -0.1609
  122DOPS   PO4 1419   9.474   8.946  13.936  0.3183 -0.1435  0.0631
  122DOPS   GL1 1420   9.716   8.948  13.520 -0.2191 -0.1540 -0.4582
  122DOPS   GL2 1421   9.786   8.700  13.421  0.3835  0.1379  0.0414
  122DOPS   C1A 1422   9.710   9.103  13.062  0.3048 -0.5564 -0.1603
  122DOPS   D2A 1423   9.806   9.021  12.627  0.1121  0.0785 -0.2794
  122DOPS   C3A 1424  10.102   8.785  12.363  0.0438  0.2164 -0.0937
  122DOPS   C4A 1425  10.181   8.381  12.117 -0.0444 -0.1183 -0.2449
  122DOPS   C1B 1426   9.599   8.553  12.987  0.2381 -0.0227  0.0944
  122DOPS   D2B 1427   9.202   8.806  12.853  0.0275  0.0002 -0.0836
  122DOPS   C3B 1428   9.085   8.807  12.423 -0.1082 -0.0937  0.0538
  122DOPS   C4B 1429   9.098   8.484  12.118 -0.0828 -0.1810 -0.1085
  123POSM   NC3 1430  10.123   3.861  14.697 -0.2004  0.1347 -0.1535
  123POSM   PO4 1431   9.981   3.769  14.359  0.0182  0.2537  0.1126
  123POSM   AM1 1432   9.885   3.687  14.053  0.1762 -0.2017 -0.0306
  123POSM   AM2 1433   9.827   3.438  13.964 -0.0481  0.2506 -0.2407
  123POSM   T1A 1434   9.784   3.863  13.558 -0.2537  0.0621 -0.2993
  123POSM   C2A 1435   9.860   4.137  13.202  0.1563  0.0478  0.1913
  123POSM   C3A 1436  10.175   4.304  12.896 -0.1262  0.0829  0.0624
  123POSM   C1B 1437   9.480   3.377  13.986  0.0968 -0.0586 -0.1056
  123POSM   D2B 1438   9.247   3.054  13.931 -0.0143  0.1244  0.2597
  123POSM   C3B 1439   8.884   3.035  13.566  0.0065 -0.0346 -0.1717
  123POSM   C4B 1440   8.763   2.891  13.127  0.2271 -0.2060 -0.1613
  124POSM   NC3 1441   3.715   1.314  14.053  0.2697 -0.1629  0.1089
  124POSM   PO4 1442   3.507   1.005  14.157  0.1483  0.0713 -0.0869
  124POSM   AM1 1443   3.381   0.757  13.932  0.1055 -0.1661 -0.0754
  124POSM   AM2 1444   3.204   0.768  13.728  0.1892  0.1034  0.0784
  124POSM   T1A 1445   3.427   0.358  13.636 -0.0088  0.0257 -0.1327
  124POSM   C2A 1446   3.298   0.069  13.270 -0.2161  0.1272 -0.2315
  124POSM   C3A 1447   3.157  -0.182  12.957  0.0657  0.1909  0.0714
  124POSM   C1B 1448   3.285   0.809  13.433 -0.3970 -0.1067  0.1692
  124POSM   D2B 1449   3.572   0.883  13.063  0.1419 -0.1423  0.0781
  124POSM   C3B 1450   3.218   0.866  12.705 -0.0725  0.0325 -0.1417
  124POSM   C4B 1451   2.910   0.584  12.589 -0.0716  0.0753  0.1010
  125POSM   NC3 1452   4.344  11.618  14.288 -0.2028 -0.1490  0.1564
  125POSM   PO4 1453   4.161  11.322  14.118  0.5703  0.2602  0.3356
  125POSM   AM1 1454   4.318  11.285  13.852 -0.1561  0.0229 -0.0196
  125POSM   AM2 1455   4.439  11.079  13.734  0.1550  0.2799  0.2501
  125POSM   T1A 1456   4.287  11.525  13.423 -0.1291 -0.2448 -0.0077
  125POSM   C2A 1457   4.419  11.848  13.064 -0.1545 -0.4905  0.0198
  125POSM   C3A 1458   4.364  12.082  12.671  0.0779 -0.0680  0.0276
  125POSM   C1B 1459   4.276  11.035  13.443 -0.1729 -0.3465 -0.2051
  125POSM   D2B 1460   3.933  11.120  13.086  0.2437  0.1991 -0.1917
  125POSM   C3B 1461   3.537  10.813  13.076  0.2472 -0.0250 -0.2540
  125POSM   C4B 1462   3.109  10.773  12.856  0.1181  0.1130 -0.0280
  126DOPE   NH3 1463  13.002   9.793  13.028 -0.1975  0.1760  0.0647
  126DOPE   PO4 1464  13.069   9.502  12.956  0.3545 -0.2461 -0.1306
  126DOPE   GL1 1465  12.991   9.679  12.549  0.0586 -0.1302 -0.0103
  126DOPE   GL2 1466  12.662   9.830  12.532 -0.2951  0.2958 -0.1150
  126DOPE   C1A 1467  13.382   9.536  12.270 -0.1897 -0.4630 -0.0259
  126DOPE   D2A 1468  13.834   9.428  12.233  0.1672  0.1184  0.0986
  126DOPE   C3A 1469  13.965   9.212  11.829 -0.1837 -0.2263 -0.3022
  126DOPE   C4A 1470  14.170   8.860  11.596 -0.4736 -0.0446  0.0995
  126DOPE   C1B 1471  12.470  10.000  12.107 -0.0698 -0.0014 -0.0482
  126DOPE   D2B 1472  12.734  10.351  11.808  0.0168 -0.3080  0.0890
  126DOPE   C3B 1473  12.499  10.738  11.715  0.1961  0.0254 -0.1325
  126DOPE   C4B 1474  12.244  11.140  11.568  0.1212  0.1322 -0.0523
  127DOPE   NH3 1475   0.755   8.577  14.177 -0.2742 -0.1136  0.0091
  127DOPE   PO4 1476   0.663   8.847  14.009 -0.1545  0.1649 -0.3387
  127DOPE   GL1 1477   0.853   8.624  13.719  0.2785  0.3824 -0.0162
  127DOPE   GL2 1478   1.136   8.707  13.654 -0.1239 -0.0829  0.1589
  127DOPE   C1A 1479   0.741   8.855  13.340 -0.1383  0.0151 -0.1136
  127DOPE   D2A 1480   0.897   8.839  12.948 -0.2347  0.0139 -0.1261
  127DOPE   C3A 1481   0.976   8.428  12.681 -0.1531 -0.0498  0.0372
  127DOPE   C4A 1482   0.840   8.005  12.474  0.1038 -0.1609 -0.3551
  127DOPE   C1B 1483   1.310   8.548  13.261  0.1967  0.1237  0.0469
  127DOPE   D2B 1484   1.451   8.808  12.919  0.2945 -0.2017  0.0768
  127DOPE   C3B 1485   1.385   8.711  12.451 -0.2342  0.1457 -0.0633
  127DOPE   C4B 1486   1.100   8.431  12.203 -0.0002 -0.1907 -0.1108
  128DOPS   CNO 1487  11.525   3.926  14.622 -0.0696  0.1155 -0.0545
  128DOPS   PO4 1488  11.374   4.097  14.287 -0.2332  0.1995 -0.0606
  128DOPS   GL1 1489  11.672   4.172  14.057  0.4690 -0.0213 -0.3410
  128DOPS   GL2 1490  11.549   4.086  13.794 -0.1269 -0.1796  0.0479
  128DOPS   C1A 1491  12.110   4.042  13.883 -0.0006 -0.0692 -0.0752
  128DOPS   D2A 1492  12.226   3.688  13.644  0.1594  0.2167  0.0361
  128DOPS   C3A 1493  12.359   3.679  13.188  0.0914 -0.3173 -0.0351
  128DOPS   C4A 1494  12.207   3.624  12.761  0.0009  0.0244 -0.2422
  128DOPS   C1B 1495  11.359   4.129  13.316 -0.1323  0.0913  0.2444
  128DOPS   D2B 1496  11.122   4.016  12.940 -0.0364  0.0849 -0.2997
  128DOPS   C3B 1497  10.699   4.059  12.841  0.0451  0.0080 -0.0864
  128DOPS   C4B 1498  10.463   4.267  12.494  0.0469 -0.0675 -0.1115
  129DOPS   CNO 1499   2.366   5.139  14.235 -0.2094  0.1344 -0.0427
  129DOPS   PO4 1500   2.699   5.206  14.074 -0.1730  0.2156  0.0866
  129DOPS   GL1 1501   2.681   5.142  13.660 -0.1727 -0.1934  0.1907
  129DOPS   GL2 1502   2.382   5.115  13.580  0.1367 -0.3162  0.1506
  129DOPS   C1A 1503   3.023   5.225  13.311 -0.2759  0.2919 -0.1469
  129DOPS   D2A 1504   3.217   5.250  12.917  0.1106 -0.0533 -0.1713
  129DOPS   C3A 1505   3.665   5.331  12.821  0.0923 -0.0766  0.1311
  129DOPS   C4A 1506   3.927   5.211  12.453  0.0347  0.1195  0.0510
  129DOPS   C1B 1507   2.562   5.301  13.153 -0.0408 -0.0389 -0.0633
  129DOPS   D2B 1508   2.695   5.410  12.760 -0.1070  0.3209  0.2285
  129DOPS   C3B 1509   2.373   5.206  12.505 -0.2466  0.0421  0.2191
  129DOPS   C4B 1510   2.249   5.053  12.068 -0.0812  0.3862 -0.1342
  130DOPE   NH3 1511   4.813  10.748  13.989 -0.1050 -0.1178  0.1673
  130DOPE   PO4 1512   4.982  10.843  13.734 -0.1014  0.2052  0.1745
  130DOPE   GL1 1513   4.751  10.862  13.485  0.2749 -0.2513  0.0252
  130DOPE   GL2 1514   4.737  11.076  13.305 -0.1114 -0.0334 -0.3650
  130DOPE   C1A 1515   4.503  10.714  13.125  0.0310 -0.2522 -0.1056
  130DOPE   D2A 1516   4.441  10.767  12.651 -0.0999 -0.1485  0.0517
  130DOPE   C3A 1517   4.138  10.823  12.304  0.1514 -0.2077  0.3790
  130DOPE   C4A 1518   3.909  10.604  11.976 -0.2949  0.1314 -0.1634
  130DOPE   C1B 1519   4.444  11.301  12.948  0.2220  0.3723 -0.1086
  130DOPE   D2B 1520   4.175  11.232  12.600 -0.2715  0.1200 -0.0564
  130DOPE   C3B 1521   3.859  11.515  12.712  0.3052 -0.0447 -0.1570
  130DOPE   C4B 1522   3.919  11.866  13.007 -0.0862 -0.0422 -0.2149
  131DOPC   NC3 1523   5.341  14.673  13.372  0.0064 -0.0549  0.0669
  131DOPC   PO4 1524   5.185  14.304  13.434  0.3018  0.0670 -0.2483
  131DOPC   GL1 1525   5.250  14.276  13.056 -0.2130  0.1652 -0.3668
  131DOPC   GL2 1526   5.416  14.184  12.909 -0.0604 -0.1146  0.2478
  131DOPC   C1A 1527   5.205  14.508  12.658 -0.2690 -0.0093  0.3779
  131DOPC   D2A 1528   5.328  14.351  12.265  0.2261 -0.0390  0.2393
  131DOPC   C3A 1529   5.130  14.219  11.859  0.0172 -0.1794 -0.2708
  131DOPC   C4A 1530   4.832  14.065  11.510 -0.0333  0.0733 -0.0041
  131DOPC   C1B 1531   5.155  13.921  12.635  0.1511  0.1364  0.0107
  131DOPC   D2B 1532   4.939  13.569  12.507 -0.2814 -0.1331  0.3021
  131DOPC   C3B 1533   4.640  13.448  12.182 -0.2742  0.4341  0.1561
  131DOPC   C4B 1534   4.346  13.103  12.257  0.0536 -0.1583  0.0165
  132DOPE   NH3 1535   4.954   8.672  14.198 -0.3594  0.0157  0.0664
  132DOPE   PO4 1536   4.846   8.869  13.965  0.2943 -0.0480 -0.0264
  132DOPE   GL1 1537   4.783   8.897  13.636 -0.1465  0.3486 -0.2929
  132DOPE   GL2 1538   4.568   8.822  13.532 -0.1228  0.0040  0.1657
  132DOPE   C1A 1539   5.030   8.926  13.259 -0.1840  0.0679  0.1497
  132DOPE   D2A 1540   5.119   9.259  12.896 -0.2124  0.0612 -0.1402
  132DOPE   C3A 1541   5.426   9.190  12.515 -0.0972 -0.1803  0.2451
  132DOPE   C4A 1542   5.370   9.415  12.061  0.0859 -0.3046  0.2993
  132DOPE   C1B 1543   4.538   8.921  13.124 -0.1976  0.1276  0.1455
  132DOPE   D2B 1544   4.807   8.880  12.788 -0.3679  0.3479  0.2522
  132DOPE   C3B 1545   4.648   8.647  12.469  0.1627 -0.0583 -0.5104
  132DOPE   C4B 1546   4.416   8.311  12.284 -0.0123  0.1383  0.0075
  133DOPC   NC3 1547   1.671   1.591  14.208  0.2247  0.2102 -0.1915
  133DOPC   PO4 1548   1.486   1.847  14.051 -0.1327 -0.0041  0.0771
  133DOPC   GL1 1549   1.272   1.704  13.786 -0.0582 -0.0234  0.0259
  133DOPC   GL2 1550   1.489   1.660  13.560  0.2637  0.0446 -0.1292
  133DOPC   C1A 1551   1.011   1.343  13.562  0.2432  0.0691  0.0525
  133DOPC   D2A 1552   1.014   1.224  13.131 -0.0924 -0.2221 -0.0088
  133DOPC   C3A 1553   1.040   1.386  12.705  0.0059  0.1996  0.0055
  133DOPC   C4A 1554   0.915   1.293  12.251  0.0618 -0.0103  0.0973
  133DOPC   C1B 1555   1.557   1.963  13.222  0.0650  0.1081 -0.3019
  133DOPC   D2B 1556   1.508   2.307  12.921  0.0610 -0.2073 -0.1153
  133DOPC   C3B 1557   1.775   2.697  12.866 -0.0767  0.1609 -0.2977
  133DOPC   C4B 1558   1.884   3.123  12.678  0.1879  0.1208 -0.1237
  134DOPE   NH3 1559  10.651   4.732  14.526 -0.0362  0.2393  0.1398
  134DOPE   PO4 1560  10.531   4.470  14.646  0.0580 -0.0795  0.1190
  134DOPE   GL1 1561  10.570   4.373  14.239  0.4976 -0.1241  0.1986
  134DOPE   GL2 1562  10.857   4.273  14.202  0.2725 -0.0766 -0.0811
  134DOPE   C1A 1563  10.424   4.441  13.821 -0.1156  0.1207  0.2144
  134DOPE   D2A 1564  10.252   4.214  13.462  0.1468 -0.1594  0.0840
  134DOPE   C3A 1565  10.252   3.797  13.249  0.2560 -0.0470  0.2580
  134DOPE   C4A 1566  10.207   3.366  13.061  0.2800  0.1539  0.0830
  134DOPE   C1B 1567  10.850   4.047  13.849 -0.0225 -0.0384 -0.2340
  134DOPE   D2B 1568  10.632   3.720  13.682 -0.1421  0.1240 -0.1007
  134DOPE   C3B 1569  10.238   3.568  13.691  0.1248 -0.0125  0.1053
  134DOPE   C4B 1570   9.885   3.381  13.502 -0.1717  0.0172 -0.0205
  135DOPE   NH3 1571   9.546   9.378  13.576  0.0172  0.1295 -0.0109
  135DOPE   PO4 1572   9.245   9.392  13.672  0.1917 -0.2056  0.1088
  135DOPE   GL1 1573   8.982   9.420  13.282  0.0931  0.3453 -0.2376
  135DOPE   GL2 1574   9.227   9.466  13.102  0.1852 -0.0912 -0.0325
  135DOPE   C1A 1575   8.829   9.177  12.918  0.0622 -0.0500  0.0827
  135DOPE   D2A 1576   8.617   8.991  12.619 -0.2073  0.2520 -0.2153
  135DOPE   C3A 1577   8.224   9.023  12.389 -0.1409 -0.2263  0.0701
  135DOPE   C4A 1578   7.775   8.965  12.422  0.1600  0.1728 -0.1245
  135DOPE   C1B 1579   9.115   9.584  12.652  0.1379 -0.2467 -0.0557
  135DOPE   D2B 1580   8.953   9.345  12.315  0.0946  0.2209  0.0318
  135DOPE   C3B 1581   8.535   9.456  12.234  0.0032  0.0167  0.0344
  135DOPE   C4B 1582   8.332   9.859  12.154  0.2921 -0.1800 -0.0763
  136DOPC   NC3 1583   1.898  33.961  13.749  0.2898  0.3757  0.1315
  136DOPC   PO4 1584   2.015  33.606  13.785  0.2028 -0.1933  0.0073
  136DOPC   GL1 1585   2.084  33.470  13.367  0.0936  0.1588 -0.0222
  136DOPC   GL2 1586   2.108  33.170  13.239 -0.1114  0.0137 -0.3709
  136DOPC   C1A 1587   1.704  33.397  13.102  0.4007 -0.1230  0.1639
  136DOPC   D2A 1588   1.284  33.533  13.057  0.3392  0.2627 -0.5663
  136DOPC   C3A 1589   1.153  33.359  12.656 -0.0690  0.1156  0.2820
  136DOPC   C4A 1590   0.729  33.335  12.401 -0.0430  0.0827  0.1497
  136DOPC   C1B 1591   2.058  33.152  12.805 -0.0956 -0.2613 -0.0918
  136DOPC   D2B 1592   2.267  33.279  12.407  0.1877 -0.1653  0.2650
  136DOPC   C3B 1593   2.714  33.225  12.405  0.1794 -0.3280  0.0310
  136DOPC   C4B 1594   3.119  33.095  12.151  0.0773 -0.0644 -0.0181
  137DOPC   NC3 1595   9.311   1.939  13.908 -0.1544 -0.1939 -0.1069
  137DOPC   PO4 1596   9.237   2.222  14.184 -0.0728  0.1493 -0.2662
  137DOPC   GL1 1597   9.362   2.482  13.906  0.0763 -0.1390 -0.1412
  137DOPC   GL2 1598   9.489   2.313  13.658  0.0878 -0.4053 -0.0146
  137DOPC   C1A 1599   9.240   2.665  13.484 -0.2314 -0.0087  0.4123
  137DOPC   D2A 1600   9.366   2.870  13.111 -0.0522  0.0406 -0.1890
  137DOPC   C3A 1601   9.530   2.641  12.784 -0.1107 -0.1550  0.1113
  137DOPC   C4A 1602   9.755   2.686  12.427  0.0521 -0.1336  0.0636
  137DOPC   C1B 1603   9.613   2.447  13.210 -0.2638  0.1567  0.2416
  137DOPC   D2B 1604  10.053   2.648  13.088  0.1260  0.1096  0.1057
  137DOPC   C3B 1605  10.164   2.937  12.709 -0.0036  0.2127 -0.1523
  137DOPC   C4B 1606  10.235   2.788  12.231 -0.0448  0.2121  0.1054
  138DOPE   NH3 1607   8.430   4.295  14.193  0.2403  0.1894  0.0144
  138DOPE   PO4 1608   8.112   4.145  14.108  0.1763 -0.0690 -0.2017
  138DOPE   GL1 1609   8.158   4.170  13.754 -0.0162  0.0975  0.0984
  138DOPE   GL2 1610   8.406   4.022  13.741 -0.0531 -0.0307 -0.0612
  138DOPE   C1A 1611   7.912   3.841  13.466  0.1224  0.0776 -0.1171
  138DOPE   D2A 1612   7.562   3.540  13.357 -0.2124  0.0436  0.4657
  138DOPE   C3A 1613   7.665   3.473  12.894  0.4516  0.3081  0.0743
  138DOPE   C4A 1614   8.065   3.385  12.606 -0.0105  0.1428  0.1265
  138DOPE   C1B 1615   8.464   3.921  13.324  0.0595 -0.3058 -0.0259
  138DOPE   D2B 1616   8.446   3.729  12.904 -0.1554 -0.0904  0.1777
  138DOPE   C3B 1617   8.793   3.442  12.819  0.3237  0.1079  0.2052
  138DOPE   C4B 1618   8.653   3.106  12.494  0.2213  0.2872  0.0502
  139DOPE   NH3 1619  13.168   7.138  13.202  0.0371 -0.3032  0.0387
  139DOPE   PO4 1620  13.379   7.363  13.291 -0.1310  0.1367 -0.4286
  139DOPE   GL1 1621  13.596   7.061  13.041  0.1788 -0.0715 -0.1921
  139DOPE   GL2 1622  13.608   6.774  12.958 -0.0819  0.1872  0.0591
  139DOPE   C1A 1623  13.532   7.026  12.542  0.2844 -0.3297  0.2956
  139DOPE   D2A 1624  13.484   7.333  12.219 -0.0998  0.2186 -0.0923
  139DOPE   C3A 1625  13.873   7.503  11.960  0.4492  0.1436 -0.2479
  139DOPE   C4A 1626  14.128   7.761  12.200 -0.0666  0.0617 -0.2890
  139DOPE   C1B 1627  13.809   6.573  12.613 -0.0293  0.0333  0.0388
  139DOPE   D2B 1628  13.900   6.326  12.232  0.1927 -0.1187  0.1892
  139DOPE   C3B 1629  13.986   6.446  11.785  0.0079  0.0043 -0.0858
  139DOPE   C4B 1630  13.975   6.419  11.340 -0.0059  0.1135 -0.4375
  140DOPS   CNO 1631   4.833   7.422  13.956  0.2436 -0.0031  0.1633
  140DOPS   PO4 1632   4.479   7.308  13.964 -0.0084 -0.0007 -0.0923
  140DOPS   GL1 1633   4.560   7.404  13.561  0.0833  0.0968 -0.0897
  140DOPS   GL2 1634   4.214   7.585  13.499  0.0834 -0.2193  0.4042
  140DOPS   C1A 1635   4.488   7.236  13.153  0.2005 -0.1207  0.0441
  140DOPS   D2A 1636   4.311   7.435  12.752  0.1634 -0.0969  0.0645
  140DOPS   C3A 1637   4.257   7.216  12.342 -0.1403  0.0722 -0.0891
  140DOPS   C4A 1638   4.138   6.953  12.041  0.1242  0.1469  0.0446
  140DOPS   C1B 1639   3.933   7.599  13.176 -0.1164 -0.0014 -0.2894
  140DOPS   D2B 1640   3.460   7.378  13.159 -0.3387 -0.2749 -0.0390
  140DOPS   C3B 1641   3.238   7.634  12.786 -0.2413  0.0148 -0.3033
  140DOPS   C4B 1642   3.204   7.823  12.408  0.0581 -0.2836  0.1280
  141POSM   NC3 1643   5.384  11.396  13.312 -0.1937  0.0386 -0.0313
  141POSM   PO4 1644   5.277  11.650  13.590 -0.1402 -0.2149 -0.1541
  141POSM   AM1 1645   5.023  11.755  13.404 -0.3543  0.3133 -0.1843
  141POSM   AM2 1646   4.839  11.574  13.260  0.0115 -0.0811  0.0682
  141POSM   T1A 1647   4.899  12.019  13.002 -0.2998 -0.0055  0.2758
  141POSM   C2A 1648   4.869  12.135  12.583  0.0098 -0.2071  0.3940
  141POSM   C3A 1649   5.173  11.981  12.269  0.2391  0.0648  0.0587
  141POSM   C1B 1650   4.904  11.463  12.948  0.2571 -0.0337  0.1532
  141POSM   D2B 1651   5.069  11.588  12.544 -0.0548  0.0380  0.0997
  141POSM   C3B 1652   5.552  11.745  12.475 -0.4115 -0.1795 -0.0370
  141POSM   C4B 1653   5.825  11.816  12.088 -0.0186 -0.1749 -0.0059
  142DOPC   NC3 1654   2.709   4.755  14.173 -0.1060 -0.1666 -0.1393
  142DOPC   PO4 1655   2.860   4.473  13.960  0.0634  0.0526  0.1045
  142DOPC   GL1 1656   2.671   4.632  13.713 -0.3199  0.0444  0.0186
  142DOPC   GL2 1657   2.392   4.673  13.810  0.0797  0.2034 -0.3815
  142DOPC   C1A 1658   2.671   4.849  13.304  0.1924 -0.1837  0.1407
  142DOPC   D2A 1659   2.592   4.863  12.855  0.1187  0.2026  0.2262
  142DOPC   C3A 1660   2.895   5.026  12.555  0.1768  0.0779  0.1770
  142DOPC   C4A 1661   2.741   5.066  12.128 -0.0186 -0.1302  0.1161
  142DOPC   C1B 1662   2.374   4.405  13.480 -0.1380  0.0357  0.1857
  142DOPC   D2B 1663   2.509   4.431  13.046  0.1713 -0.2318  0.0433
  142DOPC   C3B 1664   2.359   4.225  12.668  0.1586 -0.2536  0.0748
  142DOPC   C4B 1665   2.327   3.869  12.379  0.2070  0.2513  0.0350
  143DOPC   NC3 1666   2.847   3.863  14.026  0.0103  0.1650  0.2213
  143DOPC   PO4 1667   3.210   3.874  13.966 -0.0468 -0.0143  0.3465
  143DOPC   GL1 1668   3.097   3.675  13.632  0.2847 -0.4249  0.2799
  143DOPC   GL2 1669   2.826   3.542  13.552 -0.1611 -0.1272 -0.2848
  143DOPC   C1A 1670   3.055   3.704  13.130  0.1876  0.1816 -0.0800
  143DOPC   D2A 1671   3.186   3.526  12.710  0.2076 -0.0564 -0.4045
  143DOPC   C3A 1672   2.949   3.828  12.376 -0.0576 -0.2578  0.0103
  143DOPC   C4A 1673   2.803   4.166  12.186 -0.1209 -0.2257 -0.2250
  143DOPC   C1B 1674   2.553   3.452  13.171  0.1749  0.1945 -0.0503
  143DOPC   D2B 1675   2.688   3.713  12.790 -0.0869 -0.3651 -0.0152
  143DOPC   C3B 1676   2.916   4.083  12.780 -0.0362  0.1480  0.1764
  143DOPC   C4B 1677   2.756   4.467  12.607 -0.3160  0.2518  0.2537
  144DOPS   CNO 1678   3.009  32.165  14.051 -0.0757 -0.1758  0.0464
  144DOPS   PO4 1679   2.744  32.116  13.859  0.0859 -0.2715 -0.1364
  144DOPS   GL1 1680   2.661  32.375  13.565  0.1325  0.2851 -0.2014
  144DOPS   GL2 1681   2.466  32.215  13.428 -0.1364  0.2378 -0.4476
  144DOPS   C1A 1682   2.759  32.553  13.176  0.0922  0.0547 -0.0524
  144DOPS   D2A 1683   3.018  32.662  12.837 -0.0780 -0.1121  0.0014
  144DOPS   C3A 1684   3.091  33.107  12.686 -0.2077  0.1323  0.3907
  144DOPS   C4A 1685   3.262  33.473  12.462  0.0336 -0.1876  0.0118
  144DOPS   C1B 1686   2.792  31.980  13.157 -0.1330 -0.3314 -0.3388
  144DOPS   D2B 1687   3.284  32.001  13.098  0.0600  0.2377 -0.1017
  144DOPS   C3B 1688   3.469  32.390  12.930 -0.1072  0.0206 -0.1268
  144DOPS   C4B 1689   3.903  32.663  12.894  0.1508 -0.0411 -0.1319
  145DOPC   NC3 1690  10.845  11.705  13.752 -0.1112  0.0973  0.0525
  145DOPC   PO4 1691  10.828  11.876  13.396 -0.0493  0.1037 -0.0256
  145DOPC   GL1 1692  10.690  11.869  13.104  0.2007 -0.0787  0.4628
  145DOPC   GL2 1693  10.856  11.625  12.950 -0.0575 -0.0390  0.1883
  145DOPC   C1A 1694  10.698  11.937  12.619 -0.7264  0.3421 -0.0885
  145DOPC   D2A 1695  10.844  11.940  12.131 -0.0946 -0.1284 -0.1144
  145DOPC   C3A 1696  10.632  11.809  11.709 -0.0701  0.1740  0.0577
  145DOPC   C4A 1697  10.591  11.519  11.308  0.1694  0.1838 -0.1405
  145DOPC   C1B 1698  11.001  11.569  12.522  0.4348  0.0111 -0.0674
  145DOPC   D2B 1699  11.250  11.770  12.270 -0.1471 -0.4240  0.0267
  145DOPC   C3B 1700  11.179  11.882  11.798 -0.2141  0.4119 -0.3210
  145DOPC   C4B 1701  11.479  11.868  11.474  0.1877 -0.0129 -0.1807
  146POSM   NC3 1702   9.941   6.658  14.343  0.1565 -0.0775  0.1907
  146POSM   PO4 1703  10.143   6.951  14.184 -0.0633  0.0653  0.0464
  146POSM   AM1 1704  10.055   6.857  13.892  0.0785 -0.1334 -0.0192
  146POSM   AM2 1705   9.818   6.885  13.762  0.0189  0.4233 -0.1763
  146POSM   T1A 1706  10.137   6.714  13.411  0.1494  0.0034  0.1826
  146POSM   C2A 1707  10.195   6.565  12.935  0.2993 -0.0601  0.2380
  146POSM   C3A 1708  10.366   6.534  12.522 -0.2538 -0.3087 -0.1440
  146POSM   C1B 1709   9.503   6.823  13.580  0.1782  0.0012  0.1589
  146POSM   D2B 1710   9.340   6.622  13.218  0.3280  0.0056 -0.0048
  146POSM   C3B 1711   9.241   6.160  13.258 -0.3321 -0.0481  0.0451
  146POSM   C4B 1712   9.180   5.783  13.654 -0.0447 -0.1487 -0.1858
  147DOPC   NC3 1713   4.888  31.697  14.197  0.0139 -0.1673 -0.0114
  147DOPC   PO4 1714   4.493  31.731  14.102 -0.0947 -0.2250  0.0637
  147DOPC   GL1 1715   4.422  31.674  13.709 -0.0331  0.2750 -0.2901
  147DOPC   GL2 1716   4.721  31.703  13.561 -0.0260 -0.3433  0.3018
  147DOPC   C1A 1717   4.126  31.851  13.427  0.0295  0.0040 -0.0710
  147DOPC   D2A 1718   3.842  32.122  13.163 -0.1933  0.1337  0.3234
  147DOPC   C3A 1719   3.634  31.865  12.847 -0.0562 -0.0763  0.3644
  147DOPC   C4A 1720   3.890  31.818  12.499 -0.0601 -0.1321  0.5139
  147DOPC   C1B 1721   4.550  31.719  13.154 -0.0432  0.2040  0.1274
  147DOPC   D2B 1722   4.146  31.744  12.932 -0.0694  0.0503 -0.2378
  147DOPC   C3B 1723   3.926  31.354  12.750  0.0045  0.0012 -0.0997
  147DOPC   C4B 1724   4.026  30.880  12.753 -0.0780  0.0122  0.0582
  148DOPC   NC3 1725   6.868   0.267  13.940 -0.0637 -0.0434  0.0441
  148DOPC   PO4 1726   7.022  -0.053  14.144  0.2065 -0.0468  0.3853
  148DOPC   GL1 1727   7.085  -0.142  13.723 -0.2315  0.0775 -0.0469
  148DOPC   GL2 1728   7.061  -0.461  13.711  0.0199  0.0215  0.2052
  148DOPC   C1A 1729   7.214  -0.172  13.280 -0.0448  0.2776 -0.0310
  148DOPC   D2A 1730   7.464  -0.158  12.906 -0.0038 -0.0630  0.1117
  148DOPC   C3A 1731   7.492   0.066  12.513 -0.2180  0.2129 -0.1958
  148DOPC   C4A 1732   7.505   0.409  12.185  0.0310 -0.1285  0.0607
  148DOPC   C1B 1733   7.204  -0.780  13.376  0.1558 -0.2383 -0.4375
  148DOPC   D2B 1734   7.068  -0.677  12.978 -0.0688 -0.1201 -0.0139
  148DOPC   C3B 1735   6.825  -0.658  12.550  0.2453 -0.0444 -0.1099
  148DOPC   C4B 1736   6.735  -0.268  12.253 -0.2106 -0.0636  0.0518
  149DOPE   NH3 1737   7.188  33.209  13.993  0.2996 -0.0683 -0.0621
  149DOPE   PO4 1738   6.970  33.386  14.147  0.2350  0.1527 -0.2522
  149DOPE   GL1 1739   6.847  33.450  13.718 -0.0996  0.2136 -0.0865
  149DOPE   GL2 1740   6.572  33.292  13.683 -0.2154  0.1793 -0.0363
  149DOPE   C1A 1741   6.607  33.784  13.571 -0.2138  0.1230  0.0949
  149DOPE   D2A 1742   6.240  33.910  13.292  0.3063 -0.2296 -0.0132
  149DOPE   C3A 1743   6.212  34.318  13.173  0.1646 -0.2019 -0.0799
  149DOPE   C4A 1744   6.112  34.555  12.785 -0.0445  0.2860 -0.0912
  149DOPE   C1B 1745   6.224  33.466  13.450 -0.0074  0.1139  0.3634
  149DOPE   D2B 1746   5.837  33.646  13.375  0.1550  0.1550 -0.1474
  149DOPE   C3B 1747   5.725  33.965  13.088 -0.0731 -0.1204 -0.1736
  149DOPE   C4B 1748   5.888  34.042  12.624 -0.1484  0.0226  0.2986
  150POSM   NC3 1749   9.913   2.510  14.368  0.1362 -0.3391  0.1188
  150POSM   PO4 1750   9.726   2.241  14.153 -0.0717 -0.3327 -0.1034
  150POSM   AM1 1751   9.781   1.958  13.975  0.1494  0.0632 -0.0798
  150POSM   AM2 1752   9.776   1.681  13.807  0.0042 -0.1990 -0.1904
  150POSM   T1A 1753  10.254   1.900  13.753 -0.1481 -0.2003 -0.2656
  150POSM   C2A 1754  10.595   1.861  13.473  0.1874 -0.1021 -0.0317
  150POSM   C3A 1755  10.725   1.577  13.135  0.0636  0.1148 -0.2149
  150POSM   C1B 1756   9.801   1.426  13.655 -0.0464  0.3176 -0.1972
  150POSM   D2B 1757   9.879   1.132  13.273  0.0700 -0.0475  0.1810
  150POSM   C3B 1758   9.855   1.246  12.790  0.0738 -0.0284 -0.1035
  150POSM   C4B 1759   9.579   1.365  12.381 -0.2572  0.3240 -0.1000
  151POSM   NC3 1760   0.058  12.207  15.109 -0.3210  0.0072 -0.3872
  151POSM   PO4 1761   0.056  11.868  14.901 -0.0028 -0.0687  0.0198
  151POSM   AM1 1762   0.283  11.856  14.614  0.5434 -0.1974 -0.3540
  151POSM   AM2 1763   0.536  11.933  14.465  0.1203  0.0490 -0.1750
  151POSM   T1A 1764   0.356  11.608  14.132  0.0263  0.2327 -0.1738
  151POSM   C2A 1765   0.766  11.609  13.906  0.0903 -0.0710  0.3401
  151POSM   C3A 1766   1.107  11.471  13.573  0.1234  0.0707 -0.1767
  151POSM   C1B 1767   0.736  12.078  14.238 -0.0495  0.0205 -0.2424
  151POSM   D2B 1768   0.920  12.138  13.804 -0.1454 -0.1448 -0.1490
  151POSM   C3B 1769   0.978  12.149  13.363 -0.0812 -0.1622  0.2612
  151POSM   C4B 1770   0.837  12.444  12.984  0.1591  0.2042 -0.0949
  152DOPE   NH3 1771   2.339   2.978  14.161  0.1470 -0.3075 -0.1044
  152DOPE   PO4 1772   2.538   2.719  14.243  0.1231 -0.2333  0.0129
  152DOPE   GL1 1773   2.568   2.725  13.811  0.1922 -0.1766 -0.5584
  152DOPE   GL2 1774   2.762   2.534  13.816  0.4097 -0.1989 -0.1810
  152DOPE   C1A 1775   2.468   2.488  13.412  0.5520 -0.0707 -0.1507
  152DOPE   D2A 1776   2.688   2.271  13.075  0.3799 -0.1975 -0.2155
  152DOPE   C3A 1777   2.739   2.037  12.708  0.0404  0.0248  0.3329
  152DOPE   C4A 1778   2.695   1.521  12.679  0.1365  0.1445 -0.1773
  152DOPE   C1B 1779   2.882   2.208  13.555 -0.0854 -0.2473 -0.1740
  152DOPE   D2B 1780   3.181   2.106  13.255  0.0611  0.2709 -0.0609
  152DOPE   C3B 1781   2.988   1.733  13.033 -0.0390  0.0278 -0.0180
  152DOPE   C4B 1782   3.151   1.403  12.767  0.1330 -0.2550  0.2011
  153POSM   NC3 1783   2.426   3.312  14.505  0.1685 -0.3420  0.0007
  153POSM   PO4 1784   2.764   3.178  14.405 -0.5275 -0.0003 -0.2548
  153POSM   AM1 1785   2.803   3.061  14.084 -0.0057  0.1690  0.1585
  153POSM   AM2 1786   3.012   2.928  13.937  0.0151 -0.2238 -0.3118
  153POSM   T1A 1787   2.573   3.076  13.594  0.1259 -0.0519 -0.1622
  153POSM   C2A 1788   2.491   2.921  13.172 -0.1100  0.2861 -0.1091
  153POSM   C3A 1789   2.395   3.017  12.713  0.2772 -0.1808  0.3037
  153POSM   C1B 1790   3.085   3.017  13.605  0.0413  0.2213 -0.0519
  153POSM   D2B 1791   2.993   3.242  13.210 -0.0386  0.0691  0.0544
  153POSM   C3B 1792   2.978   3.014  12.810  0.0441 -0.0636 -0.1608
  153POSM   C4B 1793   2.725   3.292  12.490 -0.3072  0.0846 -0.0024
  154DOPE   NH3 1794   6.059  14.710  13.214  0.0423  0.0018 -0.1933
  154DOPE   PO4 1795   6.108  14.924  12.998  0.0849 -0.0879  0.0030
  154DOPE   GL1 1796   5.958  15.005  12.619 -0.0700  0.0035 -0.2292
  154DOPE   GL2 1797   6.118  15.247  12.505 -0.1710 -0.0841 -0.0233
  154DOPE   C1A 1798   5.983  14.987  12.139  0.1180  0.2892 -0.0767
  154DOPE   D2A 1799   5.978  15.108  11.682 -0.5167 -0.2501  0.0433
  154DOPE   C3A 1800   6.410  15.360  11.628 -0.0294  0.0248  0.1953
  154DOPE   C4A 1801   6.664  15.663  11.401  0.0078 -0.2936 -0.0157
  154DOPE   C1B 1802   6.116  15.477  12.108 -0.1057 -0.2233  0.0391
  154DOPE   D2B 1803   5.817  15.581  11.738  0.1716 -0.0972  0.4661
  154DOPE   C3B 1804   5.597  15.853  11.450  0.2182  0.0237 -0.0339
  154DOPE   C4B 1805   5.359  16.099  11.120 -0.1387 -0.0687 -0.1919
  155POSM   NC3 1806   4.113   4.853  14.169 -0.3446 -0.0309 -0.0730
  155POSM   PO4 1807   3.919   5.159  13.970 -0.2451 -0.2544  0.2546
  155POSM   AM1 1808   3.888   5.205  13.633 -0.0714  0.0014  0.2288
  155POSM   AM2 1809   3.641   5.277  13.518  0.1768 -0.5202  0.0768
  155POSM   T1A 1810   4.034   5.069  13.168 -0.0348  0.1259  0.0193
  155POSM   C2A 1811   4.144   4.848  12.761 -0.3602  0.0024 -0.0172
  155POSM   C3A 1812   4.327   4.816  12.300  0.1555 -0.1628 -0.2243
  155POSM   C1B 1813   3.585   5.056  13.252  0.0307  0.3451  0.0541
  155POSM   D2B 1814   3.605   4.821  12.840 -0.1081  0.2153 -0.2389
  155POSM   C3B 1815   3.511   4.388  12.623 -0.2408 -0.3291 -0.1740
  155POSM   C4B 1816   3.338   4.184  12.252 -0.2490  0.0240  0.0831
  156DOPS   CNO 1817  12.132  34.142  14.611  0.2193 -0.2968  0.0397
  156DOPS   PO4 1818  12.294  34.332  14.303 -0.1560  0.1708  0.1283
  156DOPS   GL1 1819  12.277  34.485  13.941  0.2189 -0.0510 -0.1198
  156DOPS   GL2 1820  12.069  34.385  13.808  0.1832 -0.1802 -0.3589
  156DOPS   C1A 1821  12.053  34.834  13.640 -0.1400  0.1163  0.0694
  156DOPS   D2A 1822  11.902  35.233  13.442  0.0074  0.0389 -0.3111
  156DOPS   C3A 1823  12.191  35.247  13.121 -0.0189 -0.0954 -0.1414
  156DOPS   C4A 1824  12.414  34.983  12.770  0.0873 -0.4352 -0.0298
  156DOPS   C1B 1825  11.728  34.443  13.453  0.1318 -0.1294 -0.1396
  156DOPS   D2B 1826  11.405  34.494  13.096 -0.3803  0.0722 -0.2095
  156DOPS   C3B 1827  11.395  34.302  12.694  0.1607  0.1872 -0.1725
  156DOPS   C4B 1828  11.160  34.322  12.295 -0.4989  0.2962 -0.1194
  157DOPC   NC3 1829   3.370  10.414  14.014  0.0864  0.1866 -0.1173
  157DOPC   PO4 1830   3.027  10.289  14.041 -0.0531  0.2281 -0.2066
  157DOPC   GL1 1831   3.047  10.662  13.780  0.1716  0.2534  0.1456
  157DOPC   GL2 1832   2.912  10.971  13.812  0.0793  0.4668 -0.0331
  157DOPC   C1A 1833   3.433  10.737  13.550 -0.2727  0.0758 -0.0912
  157DOPC   D2A 1834   3.494  10.340  13.303 -0.3188 -0.0838  0.2815
  157DOPC   C3A 1835   3.664  10.325  12.876 -0.2030 -0.0584 -0.0240
  157DOPC   C4A 1836   3.799  10.437  12.428  0.0533  0.0842  0.1298
  157DOPC   C1B 1837   3.028  11.013  13.329  0.3218 -0.2713  0.2570
  157DOPC   D2B 1838   2.897  11.285  13.025 -0.2232 -0.0637  0.0452
  157DOPC   C3B 1839   3.080  11.684  13.134 -0.0145  0.0944 -0.1579
  157DOPC   C4B 1840   3.297  12.004  12.890  0.1943  0.0132  0.0245
  158DOPS   CNO 1841   0.809   7.434  14.320  0.1425  0.1403 -0.0345
  158DOPS   PO4 1842   0.783   7.709  14.078 -0.1302 -0.1175 -0.1401
  158DOPS   GL1 1843   0.824   7.782  13.646  0.1279  0.0547 -0.4248
  158DOPS   GL2 1844   1.011   7.623  13.480  0.0097 -0.1518 -0.1032
  158DOPS   C1A 1845   0.637   7.832  13.217  0.1319 -0.3422  0.2610
  158DOPS   D2A 1846   0.510   8.087  12.852  0.3607  0.0795  0.0871
  158DOPS   C3A 1847   0.485   8.495  12.764  0.0991  0.1591 -0.1108
  158DOPS   C4A 1848   0.535   8.913  12.647  0.0592 -0.1033 -0.2895
  158DOPS   C1B 1849   1.126   7.602  13.035 -0.1404 -0.1278 -0.0493
  158DOPS   D2B 1850   1.169   7.571  12.575  0.2626 -0.0851  0.1878
  158DOPS   C3B 1851   1.575   7.639  12.387 -0.0603 -0.1689 -0.2203
  158DOPS   C4B 1852   1.920   7.873  12.129 -0.0492 -0.0563 -0.1089
  159DOPE   NH3 1853  11.784   8.167  13.474 -0.0610 -0.0166 -0.1960
  159DOPE   PO4 1854  11.794   8.047  13.170  0.0131  0.0471  0.0287
  159DOPE   GL1 1855  11.891   7.917  12.704  0.0507 -0.0870  0.2908
  159DOPE   GL2 1856  11.606   8.137  12.720  0.0020  0.0549 -0.0979
  159DOPE   C1A 1857  12.203   7.851  12.313 -0.1376 -0.1125 -0.1193
  159DOPE   D2A 1858  12.592   7.664  12.177  0.0135  0.0853 -0.4048
  159DOPE   C3A 1859  12.681   7.774  11.734  0.0609  0.0936  0.2388
  159DOPE   C4A 1860  12.555   7.594  11.343  0.1023 -0.1685  0.0302
  159DOPE   C1B 1861  11.668   8.024  12.291  0.0428 -0.0149  0.3145
  159DOPE   D2B 1862  11.914   8.237  11.952 -0.1354  0.2793  0.2434
  159DOPE   C3B 1863  11.989   8.714  11.967  0.0259 -0.2187 -0.0184
  159DOPE   C4B 1864  12.232   8.987  11.586 -0.1520 -0.0228 -0.1551
  160DOPC   NC3 1865   4.738   6.176  13.893 -0.0660  0.0647  0.3656
  160DOPC   PO4 1866   5.039   5.958  14.086  0.3578 -0.0116 -0.0346
  160DOPC   GL1 1867   5.186   5.938  13.748  0.0711 -0.0075  0.0587
  160DOPC   GL2 1868   4.963   5.938  13.520 -0.2614 -0.0449 -0.1494
  160DOPC   C1A 1869   5.428   5.812  13.393 -0.0552  0.3778 -0.1517
  160DOPC   D2A 1870   5.634   5.562  13.022 -0.2854 -0.1343  0.0962
  160DOPC   C3A 1871   6.081   5.325  13.062  0.2798 -0.4041  0.1123
  160DOPC   C4A 1872   6.526   5.205  13.015  0.4926  0.1818  0.0723
  160DOPC   C1B 1873   4.817   6.092  13.129 -0.2587 -0.0211 -0.3277
  160DOPC   D2B 1874   4.693   6.387  12.800  0.0172  0.1402 -0.2254
  160DOPC   C3B 1875   4.267   6.410  12.928  0.0015  0.0503 -0.1346
  160DOPC   C4B 1876   4.093   6.627  13.305 -0.0338  0.3596  0.2044
  161DOPS   CNO 1877   1.782   3.623  14.400 -0.0661 -0.2635  0.2792
  161DOPS   PO4 1878   2.055   3.411  14.204 -0.0869  0.1404 -0.3354
  161DOPS   GL1 1879   2.072   3.585  13.819 -0.1328  0.2411  0.1469
  161DOPS   GL2 1880   1.930   3.897  13.887  0.1170 -0.4709  0.0034
  161DOPS   C1A 1881   1.765   3.577  13.470 -0.1696 -0.3016  0.2679
  161DOPS   D2A 1882   1.348   3.488  13.353  0.4960  0.0901 -0.1692
  161DOPS   C3A 1883   1.042   3.315  13.119 -0.2507  0.3289  0.0969
  161DOPS   C4A 1884   0.623   3.260  13.005  0.0652  0.0019 -0.0809
  161DOPS   C1B 1885   2.254   3.836  13.510 -0.1342  0.0956  0.1847
  161DOPS   D2B 1886   2.624   3.968  13.211  0.2385 -0.2382  0.1195
  161DOPS   C3B 1887   2.914   4.318  13.277  0.0906  0.1296 -0.3949
  161DOPS   C4B 1888   3.162   4.638  13.054 -0.1482 -0.1150  0.0359
  162DOPC   NC3 1889   3.599   2.115  14.327  0.1526  0.0164 -0.1373
  162DOPC   PO4 1890   3.598   1.797  14.131  0.2006  0.1913 -0.3570
  162DOPC   GL1 1891   3.744   1.906  13.765  0.3747  0.0422  0.0526
  162DOPC   GL2 1892   3.982   1.984  13.913 -0.1631 -0.2848 -0.0089
  162DOPC   C1A 1893   3.631   1.929  13.338 -0.1455 -0.0749 -0.0141
  162DOPC   D2A 1894   3.629   1.755  12.932 -0.0739 -0.2195 -0.0440
  162DOPC   C3A 1895   3.620   1.748  12.485  0.2804  0.5538 -0.3050
  162DOPC   C4A 1896   3.765   1.769  12.043  0.1062  0.0650  0.0511
  162DOPC   C1B 1897   4.133   2.013  13.496  0.3519  0.0495  0.1176
  162DOPC   D2B 1898   4.078   2.158  13.063  0.2850  0.0762  0.2027
  162DOPC   C3B 1899   4.373   2.069  12.723  0.1057 -0.2305 -0.3154
  162DOPC   C4B 1900   4.704   2.310  12.508  0.1346  0.0868  0.0987
  163DOPE   NH3 1901   9.762   7.861  13.977  0.0760  0.0824 -0.1610
  163DOPE   PO4 1902   9.546   7.870  13.774 -0.0732  0.0126  0.0803
  163DOPE   GL1 1903   9.640   7.582  13.554 -0.0167  0.1243  0.2918
  163DOPE   GL2 1904   9.438   7.355  13.608  0.2376  0.3743  0.0136
  163DOPE   C1A 1905   9.723   7.568  13.091 -0.3731 -0.0143 -0.2012
  163DOPE   D2A 1906   9.855   7.285  12.737 -0.1499 -0.4361  0.1106
  163DOPE   C3A 1907   9.982   7.416  12.310 -0.2747  0.1708  0.1742
  163DOPE   C4A 1908  10.028   7.606  11.880 -0.0579  0.0955 -0.0738
  163DOPE   C1B 1909   9.296   7.232  13.167  0.2016  0.2417  0.0156
  163DOPE   D2B 1910   9.369   7.144  12.719 -0.1604 -0.2517  0.3363
  163DOPE   C3B 1911   9.570   7.560  12.530 -0.2316 -0.0692  0.0625
  163DOPE   C4B 1912   9.807   7.890  12.302 -0.0266 -0.1236 -0.1128
  164POSM   NC3 1913   4.954   8.454  13.679  0.3561  0.7744 -0.1219
  164POSM   PO4 1914   5.182   8.271  13.923 -0.0921  0.0731 -0.0812
  164POSM   AM1 1915   5.342   8.161  13.613 -0.0205 -0.4878 -0.0636
  164POSM   AM2 1916   5.441   8.381  13.456 -0.0247  0.0942  0.3978
  164POSM   T1A 1917   5.563   7.926  13.277  0.2552 -0.0865 -0.2741
  164POSM   C2A 1918   5.386   7.567  13.034 -0.1192  0.5733  0.0052
  164POSM   C3A 1919   5.275   7.147  12.958  0.1668  0.4881 -0.1574
  164POSM   C1B 1920   5.193   8.439  13.245 -0.2462  0.1642 -0.0509
  164POSM   D2B 1921   4.993   8.424  12.819  0.0336  0.1208  0.3997
  164POSM   C3B 1922   5.094   8.217  12.425  0.1060 -0.2370 -0.0366
  164POSM   C4B 1923   5.137   7.763  12.408  0.1661 -0.2520 -0.1259
  165DOPE   NH3 1924   4.426   9.859  14.004 -0.1239  0.0434  0.1848
  165DOPE   PO4 1925   4.195   9.660  13.912  0.0691  0.3308  0.2636
  165DOPE   GL1 1926   4.198   9.717  13.499  0.2519  0.4124  0.0688
  165DOPE   GL2 1927   3.898   9.645  13.538  0.0576 -0.1117  0.2471
  165DOPE   C1A 1928   4.396   9.772  13.058 -0.2383 -0.0605 -0.0586
  165DOPE   D2A 1929   4.423   9.856  12.627  0.1332 -0.0499 -0.1357
  165DOPE   C3A 1930   4.576   9.589  12.377 -0.1676  0.0207 -0.2009
  165DOPE   C4A 1931   4.907   9.255  12.311  0.1822 -0.0402  0.0684
  165DOPE   C1B 1932   3.519   9.821  13.311 -0.2460 -0.1118  0.1741
  165DOPE   D2B 1933   3.402   9.801  12.840  0.0423 -0.3042 -0.1997
  165DOPE   C3B 1934   3.476   9.481  12.486  0.0848 -0.2697 -0.4281
  165DOPE   C4B 1935   3.636   9.139  12.211  0.0737 -0.1260  0.3183
  166POSM   NC3 1936   5.815   9.119  13.821 -0.1062 -0.1378  0.0396
  166POSM   PO4 1937   6.111   9.161  14.066  0.1607 -0.0801  0.3189
  166POSM   AM1 1938   6.293   9.115  13.767  0.1128 -0.1211 -0.3581
  166POSM   AM2 1939   6.198   9.098  13.500  0.0326  0.2169  0.3704
  166POSM   T1A 1940   6.624   8.794  13.538  0.1153  0.3487  0.0820
  166POSM   C2A 1941   6.619   8.382  13.425 -0.0304  0.1369  0.0006
  166POSM   C3A 1942   6.819   8.002  13.330  0.1434 -0.0644  0.2429
  166POSM   C1B 1943   6.153   9.113  13.196  0.0247  0.0465  0.1683
  166POSM   D2B 1944   6.374   9.153  12.753  0.3823  0.0407 -0.0225
  166POSM   C3B 1945   6.535   8.809  12.444  0.3052 -0.2470 -0.0120
  166POSM   C4B 1946   6.704   8.572  12.126  0.2636 -0.1111  0.2302
  167DOPC   NC3 1947   8.958   1.863  14.260  0.4387 -0.0623  0.0319
  167DOPC   PO4 1948   8.658   2.109  14.212  0.0200  0.2133  0.1515
  167DOPC   GL1 1949   8.897   2.136  13.890  0.3967 -0.2589 -0.0713
  167DOPC   GL2 1950   8.953   2.408  13.857  0.2325 -0.0948  0.0886
  167DOPC   C1A 1951   9.098   2.123  13.418 -0.0580 -0.0011 -0.1461
  167DOPC   D2A 1952   9.034   2.375  13.006  0.0919 -0.2191 -0.1499
  167DOPC   C3A 1953   8.622   2.411  12.729  0.0332  0.1661  0.3752
  167DOPC   C4A 1954   8.306   2.742  12.651  0.0478  0.1533 -0.3183
  167DOPC   C1B 1955   8.609   2.379  13.556  0.0017 -0.0454 -0.0507
  167DOPC   D2B 1956   8.202   2.539  13.623  0.0906  0.2603 -0.0599
  167DOPC   C3B 1957   7.859   2.628  13.296 -0.1218  0.3194  0.1499
  167DOPC   C4B 1958   7.867   2.446  12.841  0.0672 -0.2722 -0.0063
  168DOPE   NH3 1959  10.095  10.209  13.862  0.1039 -0.5782  0.3373
  168DOPE   PO4 1960  10.155   9.956  13.668  0.1441  0.3452  0.0242
  168DOPE   GL1 1961   9.986  10.013  13.319  0.1187  0.1347 -0.1791
  168DOPE   GL2 1962  10.222   9.870  13.171  0.1808  0.2114  0.2130
  168DOPE   C1A 1963   9.643   9.719  13.179  0.0651  0.1868 -0.3029
  168DOPE   D2A 1964   9.602   9.496  12.775  0.2493 -0.1442 -0.1115
  168DOPE   C3A 1965   9.432   9.252  12.406 -0.0622  0.2354 -0.0838
  168DOPE   C4A 1966   9.235   9.226  11.952 -0.0738 -0.1420 -0.2550
  168DOPE   C1B 1967   9.924   9.888  12.828 -0.0280  0.0426 -0.1917
  168DOPE   D2B 1968   9.566   9.904  12.516  0.3152  0.0405  0.0116
  168DOPE   C3B 1969   9.389   9.853  12.100  0.3742  0.1124  0.1678
  168DOPE   C4B 1970   9.022   9.679  11.883  0.1962  0.1552 -0.0095
  169POSM   NC3 1971   6.211   0.111  13.974  0.0723 -0.0572 -0.1494
  169POSM   PO4 1972   5.988   0.421  14.103 -0.0980  0.0059  0.3037
  169POSM   AM1 1973   6.068   0.623  13.807  0.3907 -0.1332 -0.2110
  169POSM   AM2 1974   6.203   0.599  13.587 -0.1079 -0.2988 -0.0456
  169POSM   T1A 1975   5.890   0.959  13.453 -0.1535  0.0977 -0.1784
  169POSM   C2A 1976   5.856   1.046  12.995 -0.0601 -0.0178  0.0258
  169POSM   C3A 1977   5.909   1.343  12.647 -0.2659 -0.2055 -0.2608
  169POSM   C1B 1978   6.519   0.431  13.558  0.1517 -0.4143 -0.2672
  169POSM   D2B 1979   6.876   0.238  13.370  0.1148  0.0618 -0.1385
  169POSM   C3B 1980   6.996   0.109  12.949  0.1237  0.0955  0.1581
  169POSM   C4B 1981   7.068  -0.245  12.596 -0.0562  0.2051 -0.5248
  170DOPE   NH3 1982   7.126  10.135  14.050 -0.0058  0.0716  0.0185
  170DOPE   PO4 1983   7.399  10.038  13.945  0.1408  0.1024 -0.2960
  170DOPE   GL1 1984   7.499   9.892  13.601 -0.1771  0.0883  0.2900
  170DOPE   GL2 1985   7.487  10.138  13.467 -0.4596 -0.2477 -0.2629
  170DOPE   C1A 1986   7.520   9.556  13.297 -0.0997 -0.1135 -0.0326
  170DOPE   D2A 1987   7.654   9.365  12.874  0.1742 -0.0002 -0.1707
  170DOPE   C3A 1988   7.347   9.124  12.617 -0.0993  0.0506  0.2175
  170DOPE   C4A 1989   7.400   8.667  12.559  0.1130  0.2635  0.2090
  170DOPE   C1B 1990   7.603   9.995  13.036 -0.0625 -0.0233  0.0366
  170DOPE   D2B 1991   8.013   9.886  12.861 -0.0727  0.2682 -0.1987
  170DOPE   C3B 1992   8.300  10.133  12.651 -0.4090  0.1672  0.3130
  170DOPE   C4B 1993   8.385  10.325  12.238  0.0916  0.2078 -0.2931
  171DOPE   NH3 1994   3.776   5.841  14.086  0.1204  0.2514 -0.0986
  171DOPE   PO4 1995   3.639   5.631  13.888  0.0936 -0.1697 -0.2582
  171DOPE   GL1 1996   3.669   5.732  13.576 -0.0466  0.1212  0.3595
  171DOPE   GL2 1997   3.371   5.902  13.572  0.0939  0.1190  0.0064
  171DOPE   C1A 1998   4.015   5.615  13.225  0.1834  0.1004 -0.0681
  171DOPE   D2A 1999   4.169   5.415  12.854  0.1923 -0.1231  0.1996
  171DOPE   C3A 2000   4.390   5.453  12.387 -0.1399  0.3554 -0.1516
  171DOPE   C4A 2001   4.777   5.589  12.171 -0.2887  0.1263  0.0838
  171DOPE   C1B 2002   3.460   5.662  13.222  0.3202  0.0611  0.0978
  171DOPE   D2B 2003   3.671   5.845  12.825  0.0122 -0.1680  0.0897
  171DOPE   C3B 2004   3.769   6.319  12.657  0.2060  0.1889  0.4447
  171DOPE   C4B 2005   3.696   6.695  12.923 -0.2837 -0.0420  0.3065
  172DOPE   NH3 2006   8.819   8.308  13.941 -0.1319  0.1032 -0.0092
  172DOPE   PO4 2007   9.096   8.094  13.983  0.1366 -0.0800  0.1031
  172DOPE   GL1 2008   9.083   8.002  13.607  0.3492  0.2032 -0.0911
  172DOPE   GL2 2009   9.046   7.666  13.568  0.2183 -0.1420  0.0402
  172DOPE   C1A 2010   8.860   8.059  13.238  0.0466 -0.0076 -0.0818
  172DOPE   D2A 2011   8.665   8.057  12.830  0.0039 -0.1221  0.1705
  172DOPE   C3A 2012   9.000   8.105  12.446 -0.0625 -0.1385 -0.0824
  172DOPE   C4A 2013   9.332   7.892  12.195  0.0233 -0.0464  0.1354
  172DOPE   C1B 2014   8.862   7.481  13.187  0.0654 -0.2126  0.1989
  172DOPE   D2B 2015   8.827   7.226  12.759 -0.1289 -0.1304 -0.0216
  172DOPE   C3B 2016   9.009   7.237  12.354 -0.1573  0.2290  0.1875
  172DOPE   C4B 2017   9.264   7.414  11.964 -0.1782  0.0631 -0.0744
  173DOPE   NH3 2018   1.823  32.798  13.896  0.0972  0.3300  0.0655
  173DOPE   PO4 2019   1.692  32.746  13.656  0.1853  0.2574  0.2682
  173DOPE   GL1 2020   1.670  32.766  13.229 -0.0650  0.3702  0.0005
  173DOPE   GL2 2021   1.833  32.564  13.218  0.2904  0.2751 -0.3199
  173DOPE   C1A 2022   1.613  32.967  12.783  0.1789  0.1650 -0.0484
  173DOPE   D2A 2023   1.683  33.116  12.364 -0.1932 -0.0469  0.2172
  173DOPE   C3A 2024   1.744  33.529  12.080 -0.2140  0.0742  0.1928
  173DOPE   C4A 2025   1.489  33.662  11.709  0.1348 -0.0437  0.1450
  173DOPE   C1B 2026   2.021  32.631  12.779  0.0498 -0.1296 -0.3257
  173DOPE   D2B 2027   2.290  32.721  12.435 -0.1840 -0.1826  0.2577
  173DOPE   C3B 2028   2.421  32.417  12.147  0.1145  0.0872 -0.3444
  173DOPE   C4B 2029   2.279  32.053  11.937 -0.1532 -0.1519  0.0102
  174POSM   NC3 2030   6.649   6.379  14.491 -0.1028  0.1815 -0.0765
  174POSM   PO4 2031   6.939   6.223  14.256  0.0613 -0.5048 -0.1877
  174POSM   AM1 2032   7.067   6.109  13.979  0.0349 -0.4588 -0.0667
  174POSM   AM2 2033   7.296   6.161  13.842  0.0406  0.1990 -0.0060
  174POSM   T1A 2034   7.066   5.742  13.697  0.2390 -0.1220 -0.1800
  174POSM   C2A 2035   7.094   5.392  13.431  0.0928 -0.3253  0.3149
  174POSM   C3A 2036   7.052   5.044  13.132 -0.0327 -0.0596 -0.2161
  174POSM   C1B 2037   7.055   6.264  13.551 -0.3614  0.0767 -0.0251
  174POSM   D2B 2038   6.767   6.582  13.373 -0.0796  0.0435  0.0234
  174POSM   C3B 2039   6.762   6.639  12.942 -0.0567 -0.1264 -0.1847
  174POSM   C4B 2040   6.560   6.476  12.553 -0.2736  0.0279 -0.1055
  175DOPE   NH3 2041   7.520   5.243  14.031  0.0937 -0.1851 -0.5678
  175DOPE   PO4 2042   7.779   5.229  14.214 -0.1739  0.1147 -0.3977
  175DOPE   GL1 2043   7.906   5.167  13.826  0.3507  0.0653 -0.0279
  175DOPE   GL2 2044   7.712   5.328  13.628 -0.0750  0.0877  0.2470
  175DOPE   C1A 2045   8.283   5.033  13.626 -0.5534 -0.1643  0.1344
  175DOPE   D2A 2046   8.594   5.108  13.229  0.1909 -0.0120 -0.5951
  175DOPE   C3A 2047   8.503   5.258  12.755 -0.2650  0.0203  0.2104
  175DOPE   C4A 2048   8.444   4.986  12.423  0.0073 -0.3045 -0.1842
  175DOPE   C1B 2049   8.048   5.556  13.454 -0.0548 -0.1272 -0.1405
  175DOPE   D2B 2050   8.381   5.606  13.154 -0.1455 -0.0090  0.1145
  175DOPE   C3B 2051   8.771   5.658  12.921 -0.2330 -0.1284 -0.1534
  175DOPE   C4B 2052   9.058   5.369  12.702 -0.1410  0.2758  0.0648
  176DOPE   NH3 2053   7.120  11.849  13.559  0.2876 -0.1715  0.2570
  176DOPE   PO4 2054   7.288  11.568  13.504 -0.0985 -0.0421 -0.0162
  176DOPE   GL1 2055   7.532  11.502  13.291 -0.1675 -0.4988 -0.0684
  176DOPE   GL2 2056   7.677  11.718  13.225 -0.2254  0.2210 -0.0874
  176DOPE   C1A 2057   7.411  11.230  12.942  0.0048  0.2151  0.0980
  176DOPE   D2A 2058   7.256  10.854  12.761 -0.0204  0.2683 -0.2258
  176DOPE   C3A 2059   7.158  10.835  12.330 -0.0407  0.1971 -0.1656
  176DOPE   C4A 2060   7.221  10.980  11.866  0.1044  0.0003 -0.0145
  176DOPE   C1B 2061   7.827  11.482  12.893 -0.0488 -0.4619 -0.0116
  176DOPE   D2B 2062   8.139  11.523  12.586  0.0731 -0.0480 -0.0365
  176DOPE   C3B 2063   7.945  11.614  12.189  0.0456  0.1153 -0.0959
  176DOPE   C4B 2064   8.197  11.763  11.810 -0.1021  0.0048  0.0232
  177POSM   NC3 2065   9.045   3.099  14.491 -0.0337  0.2784 -0.0419
  177POSM   PO4 2066   8.710   3.341  14.474  0.0457  0.0594 -0.0912
  177POSM   AM1 2067   8.724   3.373  14.155  0.0229 -0.0792  0.1004
  177POSM   AM2 2068   8.906   3.435  13.945 -0.3934  0.0849 -0.0168
  177POSM   T1A 2069   8.455   3.484  13.732 -0.2406  0.0204 -0.1210
  177POSM   C2A 2070   8.568   3.348  13.294 -0.0560 -0.1279 -0.0319
  177POSM   C3A 2071   8.420   3.173  12.928  0.1197 -0.0255  0.1485
  177POSM   C1B 2072   8.986   3.570  13.642  0.0122 -0.2239 -0.3419
  177POSM   D2B 2073   8.909   3.717  13.216 -0.0630 -0.0276 -0.1769
  177POSM   C3B 2074   9.233   3.677  12.816 -0.2758 -0.0637  0.0846
  177POSM   C4B 2075   9.156   3.401  12.446 -0.0724 -0.0283 -0.0333
  178DOPC   NC3 2076   3.669   8.283  14.274  0.2922  0.1029 -0.0976
  178DOPC   PO4 2077   3.498   8.274  13.889  0.1226  0.2473  0.2634
  178DOPC   GL1 2078   3.361   8.606  13.692  0.3776 -0.4504 -0.0556
  178DOPC   GL2 2079   3.237   8.492  13.397 -0.1303 -0.0735  0.2096
  178DOPC   C1A 2080   3.584   8.867  13.400 -0.0651  0.1741 -0.2105
  178DOPC   D2A 2081   3.625   9.273  13.227  0.0924  0.1400 -0.0702
  178DOPC   C3A 2082   3.215   9.399  13.351 -0.0906  0.0343  0.2944
  178DOPC   C4A 2083   2.965   9.773  13.143  0.1398 -0.1954  0.0176
  178DOPC   C1B 2084   3.151   8.794  13.043  0.4069 -0.4801 -0.1708
  178DOPC   D2B 2085   3.272   9.246  12.918 -0.0168  0.0470 -0.1562
  178DOPC   C3B 2086   3.108   9.174  12.481 -0.2459 -0.1706  0.0428
  178DOPC   C4B 2087   3.118   9.085  11.988 -0.1836 -0.0090  0.0010
  179DOPE   NH3 2088  34.675   2.344  14.383 -0.0461  0.0327 -0.1757
  179DOPE   PO4 2089  34.854   2.460  14.175 -0.0059  0.0805  0.2145
  179DOPE   GL1 2090  34.935   2.211  13.876 -0.0404 -0.1211  0.0689
  179DOPE   GL2 2091  35.094   2.436  13.685 -0.1351 -0.3089  0.2241
  179DOPE   C1A 2092  35.097   1.961  13.476 -0.2145  0.1355  0.0089
  179DOPE   D2A 2093  35.010   1.893  13.015  0.0852 -0.1854  0.0658
  179DOPE   C3A 2094  34.762   2.175  12.675  0.1064  0.0688  0.1325
  179DOPE   C4A 2095  34.495   2.078  12.354  0.1014  0.2526 -0.0524
  179DOPE   C1B 2096  35.093   2.434  13.217 -0.0560  0.1374  0.0892
  179DOPE   D2B 2097  35.391   2.178  12.980 -0.0092 -0.0207 -0.0465
  179DOPE   C3B 2098  35.231   2.166  12.506  0.4653 -0.0032  0.0975
  179DOPE   C4B 2099  34.998   2.064  12.112  0.4507 -0.0020  0.2311
  180DOPC   NC3 2100  13.268   6.737  13.844 -0.1195 -0.0166  0.1328
  180DOPC   PO4 2101  13.432   6.797  13.468  0.0889  0.1951  0.0052
  180DOPC   GL1 2102  13.284   6.509  13.263 -0.2405 -0.2073  0.0757
  180DOPC   GL2 2103  13.035   6.663  13.155 -0.2069  0.1000 -0.2479
  180DOPC   C1A 2104  13.371   6.241  12.928 -0.2886  0.1731  0.3891
  180DOPC   D2A 2105  13.478   6.182  12.473 -0.3691 -0.0191  0.2754
  180DOPC   C3A 2106  13.407   6.563  12.186  0.0765  0.3620 -0.3097
  180DOPC   C4A 2107  13.500   6.896  11.842  0.2691 -0.1940 -0.3343
  180DOPC   C1B 2108  13.093   6.929  12.732  0.2080  0.2042  0.0815
  180DOPC   D2B 2109  13.142   6.992  12.235 -0.5865 -0.1443  0.0057
  180DOPC   C3B 2110  12.938   6.817  11.831 -0.0884  0.2751  0.0146
  180DOPC   C4B 2111  12.615   6.507  11.744 -0.0635  0.1333  0.2493
  181POSM   NC3 2112   0.913  34.459  13.967 -0.0010  0.1543 -0.2668
  181POSM   PO4 2113   1.130  34.820  14.062  0.3138  0.1563  0.1959
  181POSM   AM1 2114   1.268  34.646  13.792 -0.1058 -0.1850  0.0600
  181POSM   AM2 2115   1.528  34.706  13.637 -0.0003 -0.0107  0.3300
  181POSM   T1A 2116   1.136  34.526  13.303 -0.1313  0.1939  0.0024
  181POSM   C2A 2117   1.341  34.526  12.889 -0.1433 -0.2011 -0.1631
  181POSM   C3A 2118   1.510  34.638  12.498  0.2571  0.0146 -0.2180
  181POSM   C1B 2119   1.607  34.797  13.283  0.1077  0.1185 -0.0227
  181POSM   D2B 2120   1.814  34.570  12.890 -0.3453 -0.0031  0.0048
  181POSM   C3B 2121   1.726  34.116  12.692 -0.4752  0.0097  0.1817
  181POSM   C4B 2122   1.636  33.673  12.614  0.0482 -0.1250  0.0449
  182DOPE   NH3 2123   7.907   4.586  14.307  0.2479 -0.1812 -0.1378
  182DOPE   PO4 2124   7.676   4.748  14.108  0.0030 -0.1895 -0.0959
  182DOPE   GL1 2125   7.617   4.863  13.769  0.1678 -0.2061  0.1224
  182DOPE   GL2 2126   7.410   4.976  13.593 -0.0955 -0.0175  0.1068
  182DOPE   C1A 2127   7.873   4.783  13.369  0.1486  0.2349 -0.0393
  182DOPE   D2A 2128   7.766   4.820  12.927 -0.0167 -0.0007  0.1484
  182DOPE   C3A 2129   7.405   4.988  12.673 -0.2093  0.2589 -0.3324
  182DOPE   C4A 2130   7.182   5.337  12.440  0.1959  0.0060  0.0828
  182DOPE   C1B 2131   7.544   5.174  13.179  0.2695 -0.1245 -0.1721
  182DOPE   D2B 2132   7.299   5.441  12.954  0.0258 -0.1552  0.2616
  182DOPE   C3B 2133   7.237   5.855  13.051 -0.0579 -0.0481 -0.0495
  182DOPE   C4B 2134   7.072   6.269  13.042 -0.1968 -0.2272  0.1330
  183DOPE   NH3 2135   9.659   5.289  14.274  0.0893  0.2762  0.1093
  183DOPE   PO4 2136   9.949   5.390  14.283  0.1115  0.0612  0.0737
  183DOPE   GL1 2137  10.053   5.121  14.006 -0.4616  0.0811  0.0240
  183DOPE   GL2 2138   9.945   5.392  13.731  0.0354  0.1745  0.1069
  183DOPE   C1A 2139  10.137   4.827  13.654  0.2976  0.0707  0.2438
  183DOPE   D2A 2140  10.011   4.631  13.259  0.2372 -0.4431  0.2332
  183DOPE   C3A 2141   9.963   4.906  12.928 -0.0926  0.1091 -0.0456
  183DOPE   C4A 2142  10.052   5.051  12.502 -0.0364 -0.1597 -0.0100
  183DOPE   C1B 2143  10.226   5.279  13.391 -0.0491 -0.1205 -0.0418
  183DOPE   D2B 2144  10.521   5.060  13.208 -0.2570  0.0120  0.5123
  183DOPE   C3B 2145  10.839   5.124  12.806 -0.1181 -0.0271  0.1138
  183DOPE   C4B 2146  10.804   5.139  12.337 -0.3922 -0.0022  0.1396
  184POSM   NC3 2147   3.645  32.011  13.678 -0.1814  0.0647  0.1483
  184POSM   PO4 2148   3.533  31.720  13.931  0.1936 -0.1357 -0.1696
  184POSM   AM1 2149   3.492  31.539  13.625 -0.0353 -0.3650 -0.0129
  184POSM   AM2 2150   3.564  31.585  13.322 -0.4925 -0.1643 -0.1509
  184POSM   T1A 2151   3.357  31.149  13.391  0.0276 -0.1100  0.1765
  184POSM   C2A 2152   3.056  31.051  13.014 -0.6667  0.1880  0.0258
  184POSM   C3A 2153   3.087  31.120  12.549  0.0863 -0.3188 -0.3366
  184POSM   C1B 2154   3.532  31.427  13.010  0.0973 -0.1451  0.0723
  184POSM   D2B 2155   3.500  31.454  12.581 -0.3313  0.0654 -0.2137
  184POSM   C3B 2156   3.353  31.886  12.455  0.2187 -0.1224  0.5220
  184POSM   C4B 2157   3.400  32.337  12.222 -0.1995  0.2880 -0.0113
  185DOPS   CNO 2158   5.800  33.574  13.865  0.1375  0.1964 -0.0112
  185DOPS   PO4 2159   5.418  33.601  13.814 -0.0312 -0.0889 -0.0200
  185DOPS   GL1 2160   5.235  33.742  13.500  0.4306  0.3421  0.0096
  185DOPS   GL2 2161   5.111  33.929  13.441  0.1612 -0.0943  0.0411
  185DOPS   C1A 2162   5.207  33.637  13.024  0.1263  0.0334  0.0010
  185DOPS   D2A 2163   5.360  33.864  12.683  0.1692 -0.1070 -0.0260
  185DOPS   C3A 2164   5.205  34.287  12.477  0.0730 -0.2443 -0.1696
  185DOPS   C4A 2165   4.899  34.504  12.202  0.2271 -0.4359 -0.3120
  185DOPS   C1B 2166   5.174  34.150  13.012 -0.2294 -0.0602 -0.0908
  185DOPS   D2B 2167   5.536  34.365  12.809  0.0682  0.0838  0.0132
  185DOPS   C3B 2168   5.764  34.419  12.352 -0.0874  0.0735  0.1707
  185DOPS   C4B 2169   6.137  34.610  12.155 -0.2488 -0.2138  0.1333
  186DOPC   NC3 2170   3.158  13.623  14.304  0.1113  0.0040  0.2138
  186DOPC   PO4 2171   3.185  13.312  14.089 -0.1896  0.1511  0.0617
  186DOPC   GL1 2172   3.166  13.253  13.696 -0.0709 -0.2201  0.3711
  186DOPC   GL2 2173   3.487  13.145  13.715 -0.2083 -0.0684 -0.0415
  186DOPC   C1A 2174   2.967  13.052  13.306 -0.1654 -0.3030  0.0439
  186DOPC   D2A 2175   2.748  12.828  12.968 -0.3322  0.1405 -0.1926
  186DOPC   C3A 2176   3.004  12.611  12.639  0.0981  0.2657  0.1511
  186DOPC   C4A 2177   3.436  12.486  12.665 -0.0243 -0.0290  0.1898
  186DOPC   C1B 2178   3.413  13.333  13.296  0.0890 -0.0740 -0.2950
  186DOPC   D2B 2179   3.632  13.171  12.941 -0.2628 -0.1945  0.0609
  186DOPC   C3B 2180   3.777  12.744  13.033  0.0143 -0.1755 -0.1039
  186DOPC   C4B 2181   3.612  12.348  13.096 -0.1585 -0.3550  0.1862
  187POSM   NC3 2182   5.720   4.912  14.297  0.1773 -0.1503  0.1022
  187POSM   PO4 2183   6.087   4.713  14.356 -0.1872  0.0541 -0.0385
  187POSM   AM1 2184   6.087   4.743  14.040 -0.0515 -0.2326  0.0328
  187POSM   AM2 2185   6.300   4.622  13.832 -0.0259 -0.2356 -0.1118
  187POSM   T1A 2186   5.992   4.927  13.598  0.1448 -0.1983  0.0345
  187POSM   C2A 2187   6.164   4.844  13.161 -0.2812 -0.0131 -0.2504
  187POSM   C3A 2188   5.984   4.900  12.755  0.1244  0.1721  0.1170
  187POSM   C1B 2189   6.491   4.596  13.562 -0.0552  0.2673 -0.0316
  187POSM   D2B 2190   6.640   4.697  13.134  0.1202  0.0579 -0.3156
  187POSM   C3B 2191   6.454   4.611  12.723 -0.1407  0.2098  0.1683
  187POSM   C4B 2192   6.399   4.229  12.410 -0.0871  0.1442 -0.0964
  188DOPE   NH3 2193   7.183   1.318  14.361 -0.0028  0.0121  0.3151
  188DOPE   PO4 2194   7.237   1.593  14.507 -0.0626  0.3383 -0.0342
  188DOPE   GL1 2195   7.378   1.786  14.194 -0.1329 -0.1147 -0.3197
  188DOPE   GL2 2196   7.149   1.876  13.978  0.0117 -0.2562 -0.3910
  188DOPE   C1A 2197   7.625   1.863  13.801  0.0398 -0.4030  0.0534
  188DOPE   D2A 2198   7.822   2.162  13.452 -0.0546 -0.3845 -0.0722
  188DOPE   C3A 2199   8.084   1.890  13.247 -0.0626 -0.2536 -0.3575
  188DOPE   C4A 2200   8.225   2.054  12.879  0.1857 -0.1775  0.0440
  188DOPE   C1B 2201   7.064   2.003  13.498  0.0691 -0.0413 -0.0907
  188DOPE   D2B 2202   6.885   2.236  13.122 -0.1219  0.0772 -0.0677
  188DOPE   C3B 2203   6.931   2.494  12.696  0.0224  0.2718 -0.1362
  188DOPE   C4B 2204   6.623   2.553  12.391  0.0622  0.2957  0.0687
  189DOPS   CNO 2205   4.848  32.463  13.785  0.3317  0.0881  0.0583
  189DOPS   PO4 2206   5.000  32.118  13.851  0.0445  0.1266  0.0590
  189DOPS   GL1 2207   4.880  32.131  13.492  0.2550 -0.2455  0.1593
  189DOPS   GL2 2208   5.027  32.235  13.274 -0.4356 -0.0004  0.0456
  189DOPS   C1A 2209   4.492  32.262  13.253 -0.2202 -0.3270 -0.4261
  189DOPS   D2A 2210   4.223  32.258  12.868 -0.0952  0.3767  0.0947
  189DOPS   C3A 2211   4.324  32.337  12.399  0.1669  0.1269  0.0740
  189DOPS   C4A 2212   4.626  32.631  12.204 -0.0062 -0.0472  0.3630
  189DOPS   C1B 2213   5.003  32.010  12.884  0.0043  0.0487 -0.1033
  189DOPS   D2B 2214   4.618  31.849  12.695 -0.2098  0.0701 -0.0341
  189DOPS   C3B 2215   4.770  31.879  12.242 -0.1345  0.2536 -0.1713
  189DOPS   C4B 2216   4.592  32.194  11.948 -0.0883 -0.3025 -0.1844
  190DOPS   CNO 2217   4.904   9.906  13.975  0.1795 -0.2163 -0.0827
  190DOPS   PO4 2218   5.098   9.643  14.141  0.2511  0.1379 -0.0766
  190DOPS   GL1 2219   5.094   9.631  13.670  0.2272 -0.1371 -0.0809
  190DOPS   GL2 2220   5.278   9.392  13.519  0.0475 -0.0976 -0.0906
  190DOPS   C1A 2221   5.208   9.843  13.283  0.2934  0.0534 -0.0928
  190DOPS   D2A 2222   5.422  10.178  13.073  0.0844 -0.2320 -0.1358
  190DOPS   C3A 2223   5.294  10.089  12.668  0.2950 -0.1728  0.2169
  190DOPS   C4A 2224   4.953  10.094  12.383 -0.0166  0.0409  0.1166
  190DOPS   C1B 2225   5.516   9.065  13.284 -0.1620 -0.3879  0.2185
  190DOPS   D2B 2226   5.799   9.181  12.873  0.3749 -0.2966  0.0537
  190DOPS   C3B 2227   6.005   9.424  12.523 -0.0998  0.2205  0.0374
  190DOPS   C4B 2228   6.261   9.653  12.267 -0.1325 -0.0737  0.0159
  191DOPE   NH3 2229  11.467   2.148  14.250 -0.0334 -0.3563 -0.1110
  191DOPE   PO4 2230  11.621   2.378  14.141  0.0666  0.1479 -0.1378
  191DOPE   GL1 2231  11.286   2.275  13.844  0.3468  0.1980 -0.2474
  191DOPE   GL2 2232  11.456   2.229  13.664 -0.1266 -0.1635  0.1850
  191DOPE   C1A 2233  10.940   2.420  13.604  0.0669 -0.1134 -0.2209
  191DOPE   D2A 2234  10.741   2.285  13.183  0.4007 -0.1809 -0.0479
  191DOPE   C3A 2235  10.492   2.543  12.877 -0.0705  0.0082 -0.2144
  191DOPE   C4A 2236  10.114   2.426  12.654  0.2128  0.1996 -0.0558
  191DOPE   C1B 2237  11.332   2.591  13.371  0.1506  0.1409  0.0919
  191DOPE   D2B 2238  11.064   2.766  13.044 -0.2129 -0.0368  0.1041
  191DOPE   C3B 2239  11.187   3.148  12.738 -0.0690  0.0108 -0.0993
  191DOPE   C4B 2240  11.612   3.136  12.503  0.1050 -0.3598 -0.0056
  192DOPC   NC3 2241   4.577  33.776  14.156 -0.1123  0.0750 -0.1764
  192DOPC   PO4 2242   4.511  34.133  14.000 -0.2279 -0.2739 -0.1402
  192DOPC   GL1 2243   4.579  33.829  13.673  0.0551  0.4469  0.0529
  192DOPC   GL2 2244   4.456  33.557  13.706  0.1061  0.0431 -0.0187
  192DOPC   C1A 2245   4.739  33.560  13.305 -0.1291 -0.1235  0.0149
  192DOPC   D2A 2246   4.707  33.549  12.803 -0.2976 -0.1118 -0.2106
  192DOPC   C3A 2247   5.038  33.377  12.589  0.3481 -0.1727 -0.0704
  192DOPC   C4A 2248   5.426  33.496  12.414  0.1856 -0.1739 -0.0572
  192DOPC   C1B 2249   4.329  33.801  13.288  0.0380  0.2257  0.0097
  192DOPC   D2B 2250   4.290  33.909  12.887 -0.0155 -0.0024  0.0934
  192DOPC   C3B 2251   4.066  33.957  12.510  0.0600 -0.0226 -0.1649
  192DOPC   C4B 2252   3.891  33.858  12.097  0.1418  0.2973  0.4373
  193DOPS   CNO 2253  11.878   6.857  13.926  0.1786  0.3887 -0.3571
  193DOPS   PO4 2254  11.603   7.054  13.862 -0.2237  0.1870  0.0277
  193DOPS   GL1 2255  11.686   7.015  13.422  0.2336 -0.0441 -0.1136
  193DOPS   GL2 2256  11.551   7.241  13.267 -0.2924 -0.4549 -0.1817
  193DOPS   C1A 2257  11.724   6.791  13.003  0.0123 -0.0905  0.0033
  193DOPS   D2A 2258  11.679   6.549  12.597 -0.0313 -0.0791  0.1478
  193DOPS   C3A 2259  11.843   6.239  12.348  0.0019  0.1984 -0.0649
  193DOPS   C4A 2260  11.967   6.232  11.868  0.2544  0.1653 -0.1846
  193DOPS   C1B 2261  11.246   7.143  12.999  0.1445 -0.2792  0.0372
  193DOPS   D2B 2262  11.212   6.894  12.613  0.0165 -0.3224  0.0473
  193DOPS   C3B 2263  10.890   6.564  12.688  0.2181  0.3086  0.1966
  193DOPS   C4B 2264  10.786   6.209  13.005 -0.1538  0.0693  0.3158
  194DOPE   NH3 2265   3.453   8.992  13.997  0.0358  0.1089 -0.0134
  194DOPE   PO4 2266   3.187   9.137  14.154 -0.2259  0.0261 -0.3368
  194DOPE   GL1 2267   3.041   9.298  13.762 -0.1383  0.1116 -0.1312
  194DOPE   GL2 2268   2.789   9.181  13.694  0.0009 -0.0396  0.0774
  194DOPE   C1A 2269   2.946   9.725  13.685 -0.0219  0.0003  0.2546
  194DOPE   D2A 2270   3.159  10.094  13.580 -0.0727  0.3429  0.1765
  194DOPE   C3A 2271   3.017  10.467  13.294  0.1294 -0.0954 -0.2593
  194DOPE   C4A 2272   2.654  10.691  13.068 -0.0622 -0.0003 -0.0568
  194DOPE   C1B 2273   2.787   9.154  13.224 -0.2485  0.0338 -0.1837
  194DOPE   D2B 2274   2.737   9.348  12.794  0.1929 -0.0305  0.0904
  194DOPE   C3B 2275   2.986   9.667  12.641  0.1848  0.0738 -0.0397
  194DOPE   C4B 2276   3.082  10.112  12.633  0.2040  0.2127 -0.0990
  195DOPE   NH3 2277  10.366  11.698  13.404 -0.0364 -0.0544 -0.1238
  195DOPE   PO4 2278  10.538  11.445  13.473  0.2965  0.4340 -0.0675
  195DOPE   GL1 2279  10.511  11.063  13.225 -0.2455 -0.0563  0.0369
  195DOPE   GL2 2280  10.459  10.793  13.245  0.0577 -0.0388  0.1227
  195DOPE   C1A 2281  10.365  10.923  12.801 -0.2233  0.0585  0.2660
  195DOPE   D2A 2282  10.285  11.091  12.375  0.1819 -0.1675  0.0962
  195DOPE   C3A 2283  10.503  11.108  11.908  0.0498 -0.0300  0.2754
  195DOPE   C4A 2284  10.439  11.037  11.415 -0.0237  0.1841 -0.1051
  195DOPE   C1B 2285  10.758  10.565  13.007 -0.0040 -0.2308  0.1524
  195DOPE   D2B 2286  10.671  10.107  12.790  0.0574 -0.1263 -0.0675
  195DOPE   C3B 2287  10.974   9.821  12.553  0.0655 -0.2612 -0.1021
  195DOPE   C4B 2288  11.294   9.981  12.330  0.2184  0.0277 -0.1207
  196DOPE   NH3 2289   7.098   4.588  14.230  0.3061  0.2367  0.1968
  196DOPE   PO4 2290   7.220   4.906  14.147  0.1054 -0.2300  0.2065
  196DOPE   GL1 2291   7.311   4.576  13.800 -0.4584 -0.1953  0.0475
  196DOPE   GL2 2292   7.296   4.253  13.827  0.0013  0.0043 -0.2270
  196DOPE   C1A 2293   7.438   4.489  13.353  0.1903 -0.0841 -0.2597
  196DOPE   D2A 2294   7.306   4.619  12.998  0.0793  0.0788 -0.1695
  196DOPE   C3A 2295   7.529   4.337  12.703  0.1757 -0.0820  0.0978
  196DOPE   C4A 2296   7.524   4.203  12.262 -0.0126  0.0892  0.5078
  196DOPE   C1B 2297   7.247   3.992  13.461 -0.1289 -0.0257 -0.1132
  196DOPE   D2B 2298   6.950   3.765  13.113  0.3272  0.0920  0.0333
  196DOPE   C3B 2299   6.654   3.846  12.790 -0.1539  0.5146  0.1980
  196DOPE   C4B 2300   6.201   3.957  12.736  0.2431 -0.2759  0.2537
  197DOPC   NC3 2301  12.289  12.166  12.379  0.0308  0.2478  0.1664
  197DOPC   PO4 2302  12.233  11.963  12.721  0.1209  0.2933 -0.2468
  197DOPC   GL1 2303  12.242  11.748  12.287  0.4501  0.3131  0.2052
  197DOPC   GL2 2304  12.447  11.516  12.363 -0.0815 -0.1330  0.1824
  197DOPC   C1A 2305  12.260  11.683  11.842  0.0894 -0.0004 -0.0773
  197DOPC   D2A 2306  12.005  11.635  11.460  0.3636 -0.2912 -0.0765
  197DOPC   C3A 2307  11.738  11.264  11.366  0.1671  0.0380  0.0440
  197DOPC   C4A 2308  11.438  10.942  11.091  0.1805  0.0089  0.3547
  197DOPC   C1B 2309  12.674  11.264  12.033  0.2027  0.1878  0.2252
  197DOPC   D2B 2310  12.959  10.973  11.719  0.0646 -0.0814 -0.2436
  197DOPC   C3B 2311  13.216  10.686  11.465  0.1075  0.1632 -0.2569
  197DOPC   C4B 2312  13.350  10.554  11.051 -0.0805 -0.0041  0.3658
  198POSM   NC3 2313   2.177   7.637  14.291  0.4786  0.1081  0.2764
  198POSM   PO4 2314   2.118   7.352  14.014  0.0886  0.1418  0.1112
  198POSM   AM1 2315   2.074   7.348  13.669  0.1935  0.2244 -0.3710
  198POSM   AM2 2316   2.168   7.142  13.540 -0.2563 -0.0471 -0.1290
  198POSM   T1A 2317   1.897   7.360  13.204 -0.1116 -0.1463 -0.0764
  198POSM   C2A 2318   1.993   7.511  12.740 -0.0328  0.1244  0.1893
  198POSM   C3A 2319   2.022   7.407  12.239  0.1469 -0.1443 -0.2529
  198POSM   C1B 2320   2.405   7.020  13.297  0.1693 -0.0840 -0.3314
  198POSM   D2B 2321   2.756   6.898  13.037 -0.2550  0.1696  0.0611
  198POSM   C3B 2322   2.895   7.243  12.721  0.0464  0.1937  0.1107
  198POSM   C4B 2323   3.142   7.299  12.379 -0.1580  0.0492 -0.1181
  199POSM   NC3 2324  33.965   7.026  14.193 -0.2018 -0.0283  0.1170
  199POSM   PO4 2325  33.726   7.004  13.912  0.0850  0.0840 -0.0323
  199POSM   AM1 2326  33.904   7.051  13.643  0.6658  0.4414  0.2155
  199POSM   AM2 2327  33.783   7.003  13.411  0.3401 -0.1011  0.1632
  199POSM   T1A 2328  34.113   7.375  13.298 -0.3805  0.1370 -0.0635
  199POSM   C2A 2329  34.205   7.425  12.856  0.1709 -0.1508 -0.2463
  199POSM   C3A 2330  34.367   7.509  12.431  0.1385 -0.3137  0.0724
  199POSM   C1B 2331  33.838   7.051  13.055  0.3555  0.1042 -0.4678
  199POSM   D2B 2332  33.676   7.232  12.574  0.0270  0.3632  0.1630
  199POSM   C3B 2333  33.349   7.494  12.489 -0.3285  0.0173 -0.1004
  199POSM   C4B 2334  32.982   7.477  12.224 -0.2929  0.3548  0.0388
  200DOPC   NC3 2335   5.456   1.120  13.773 -0.0250  0.1229 -0.1567
  200DOPC   PO4 2336   5.107   1.245  13.862 -0.0346 -0.0559  0.0162
  200DOPC   GL1 2337   5.121   1.212  13.483  0.3790 -0.1645 -0.0988
  200DOPC   GL2 2338   4.880   1.318  13.383  0.2494 -0.2803 -0.1841
  200DOPC   C1A 2339   5.295   1.272  13.056 -0.3029  0.1167  0.0701
  200DOPC   D2A 2340   5.456   1.158  12.636 -0.1878  0.0531 -0.0202
  200DOPC   C3A 2341   5.699   0.974  12.386  0.1754 -0.1488 -0.1478
  200DOPC   C4A 2342   5.769   0.739  12.023  0.0667  0.2459 -0.3054
  200DOPC   C1B 2343   4.802   1.239  12.926  0.1615 -0.1026 -0.1434
  200DOPC   D2B 2344   4.953   1.028  12.530 -0.1148  0.0489  0.0463
  200DOPC   C3B 2345   4.619   0.851  12.251  0.2035  0.1073  0.3510
  200DOPC   C4B 2346   4.164   0.848  12.298  0.0687  0.0448  0.0821
  201DOPC   NC3 2347   8.015   6.919  14.618  0.0566  0.3540 -0.1162
  201DOPC   PO4 2348   7.765   7.169  14.489 -0.2840 -0.0246 -0.0569
  201DOPC   GL1 2349   7.854   7.178  14.128 -0.1399 -0.1613 -0.3859
  201DOPC   GL2 2350   8.080   7.105  13.926 -0.1188  0.2010 -0.0280
  201DOPC   C1A 2351   7.611   7.350  13.722 -0.1692  0.0877 -0.0434
  201DOPC   D2A 2352   7.380   7.249  13.330 -0.0030  0.0308  0.0326
  201DOPC   C3A 2353   7.419   7.246  12.862 -0.0558 -0.2676 -0.1800
  201DOPC   C4A 2354   7.101   7.276  12.494  0.2089 -0.0336 -0.0287
  201DOPC   C1B 2355   8.284   7.064  13.536  0.1951  0.0115  0.2026
  201DOPC   D2B 2356   8.423   7.166  13.153  0.0995 -0.1693 -0.0832
  201DOPC   C3B 2357   8.542   6.853  12.831 -0.2566  0.2472  0.3556
  201DOPC   C4B 2358   8.578   6.855  12.359  0.0527  0.5085  0.1154
  202DOPS   CNO 2359   0.366  12.710  14.848  0.0731  0.0496 -0.0039
  202DOPS   PO4 2360   0.159  12.808  14.542 -0.1059 -0.1356  0.1665
  202DOPS   GL1 2361   0.385  12.784  14.302  0.0122  0.2146 -0.0915
  202DOPS   GL2 2362   0.321  12.949  14.065  0.1067  0.1618 -0.3017
  202DOPS   C1A 2363   0.482  12.500  13.966  0.2483 -0.0473 -0.0793
  202DOPS   D2A 2364   0.426  12.056  13.844 -0.2590 -0.0364  0.3547
  202DOPS   C3A 2365   0.598  11.856  13.505 -0.2709  0.1499  0.1485
  202DOPS   C4A 2366   0.722  11.574  13.125  0.4537  0.1836 -0.5834
  202DOPS   C1B 2367   0.396  12.828  13.611 -0.3012 -0.1565  0.3424
  202DOPS   D2B 2368   0.432  12.985  13.197  0.2712 -0.0217 -0.1437
  202DOPS   C3B 2369   0.613  13.341  12.886  0.1693 -0.3561  0.1037
  202DOPS   C4B 2370   0.629  13.788  12.786  0.1393 -0.0361  0.1357
  203DOPE   NH3 2371   6.640   1.163  14.253 -0.1165  0.0138  0.1127
  203DOPE   PO4 2372   6.847   0.962  14.168 -0.0980  0.1263 -0.0144
  203DOPE   GL1 2373   6.975   1.168  13.932 -0.2322  0.2440  0.5043
  203DOPE   GL2 2374   6.967   1.426  13.840  0.2194 -0.2478  0.0717
  203DOPE   C1A 2375   7.183   1.098  13.539 -0.0807  0.2179 -0.0092
  203DOPE   D2A 2376   7.091   1.172  13.103 -0.0721  0.0409  0.0481
  203DOPE   C3A 2377   7.230   1.032  12.703 -0.0959  0.1553 -0.0540
  203DOPE   C4A 2378   7.144   0.644  12.484  0.1350  0.0391  0.3644
  203DOPE   C1B 2379   6.773   1.442  13.438  0.0487 -0.0251  0.3899
  203DOPE   D2B 2380   6.593   1.297  13.036  0.0547 -0.1570 -0.0093
  203DOPE   C3B 2381   6.743   0.899  12.850  0.2402  0.2701 -0.1205
  203DOPE   C4B 2382   6.615   0.608  12.574  0.0468 -0.0155  0.1407
  204DOPS   CNO 2383   8.861   5.099  14.230  0.0301  0.3007 -0.1467
  204DOPS   PO4 2384   9.138   5.370  14.178 -0.1128  0.3376  0.0838
  204DOPS   GL1 2385   9.068   5.103  13.757 -0.1061  0.2403 -0.2183
  204DOPS   GL2 2386   8.780   5.055  13.732  0.0050 -0.1322  0.2922
  204DOPS   C1A 2387   9.184   5.027  13.308  0.0192  0.1575 -0.3094
  204DOPS   D2A 2388   9.398   5.039  12.894  0.1223 -0.1608  0.0449
  204DOPS   C3A 2389   9.531   4.945  12.465 -0.0280 -0.0966  0.0138
  204DOPS   C4A 2390   9.761   4.849  12.068 -0.0666 -0.1451  0.1827
  204DOPS   C1B 2391   8.910   5.400  13.492  0.3961  0.3486 -0.1964
  204DOPS   D2B 2392   9.214   5.519  13.134 -0.1940  0.2525 -0.0336
  204DOPS   C3B 2393   9.290   5.819  12.803  0.1354 -0.0867  0.1397
  204DOPS   C4B 2394   9.348   6.056  12.411  0.0355  0.3209  0.0922
  205DOPE   NH3 2395  12.877   1.586  10.145 -0.0937  0.2219  0.1251
  205DOPE   PO4 2396  12.800   1.298  10.334  0.0250 -0.2706 -0.0196
  205DOPE   GL1 2397  12.987   1.408  10.618  0.0713 -0.0492 -0.0897
  205DOPE   GL2 2398  13.178   1.681  10.536  0.3765  0.1626 -0.1778
  205DOPE   C1A 2399  13.007   1.261  11.070  0.1461  0.2348 -0.3638
  205DOPE   D2A 2400  12.844   1.136  11.513 -0.0404 -0.1838  0.2424
  205DOPE   C3A 2401  12.812   1.210  11.981  0.0540  0.0379 -0.1473
  205DOPE   C4A 2402  12.711   1.306  12.405  0.4888 -0.0796 -0.1509
  205DOPE   C1B 2403  13.278   1.675  10.943 -0.0090  0.3009 -0.0797
  205DOPE   D2B 2404  13.308   1.810  11.362  0.0820  0.2853  0.1007
  205DOPE   C3B 2405  12.991   1.726  11.692 -0.0372  0.4123 -0.2979
  205DOPE   C4B 2406  12.984   1.638  12.143 -0.0672  0.1259 -0.0825
  206DOPS   CNO 2407   2.395   3.845   9.924 -0.2042  0.1154  0.0935
  206DOPS   PO4 2408   2.531   3.904  10.259 -0.0658  0.2405 -0.0226
  206DOPS   GL1 2409   2.411   3.839  10.682  0.1858  0.1278  0.1974
  206DOPS   GL2 2410   2.560   3.859  11.016  0.0556 -0.3254  0.0365
  206DOPS   C1A 2411   2.070   3.598  10.843  0.0459 -0.2823  0.1495
  206DOPS   D2A 2412   1.818   3.274  11.094 -0.1232 -0.0363  0.0073
  206DOPS   C3A 2413   1.743   3.501  11.508  0.2364  0.0510 -0.2623
  206DOPS   C4A 2414   1.963   3.790  11.760 -0.0489 -0.0503  0.0232
  206DOPS   C1B 2415   2.524   4.023  11.464 -0.0802 -0.0275  0.0197
  206DOPS   D2B 2416   2.522   3.905  11.877 -0.0796 -0.0453  0.2789
  206DOPS   C3B 2417   2.280   3.489  11.969  0.0649  0.1291 -0.1506
  206DOPS   C4B 2418   2.230   3.139  12.239 -0.3343 -0.3849 -0.2248
  207DOPE   NH3 2419   9.908   3.458  10.273 -0.3100  0.4436 -0.0073
  207DOPE   PO4 2420  10.033   3.568  10.557 -0.1601  0.2360  0.0353
  207DOPE   GL1 2421  10.181   3.778  10.963  0.2872 -0.0300  0.0530
  207DOPE   GL2 2422  10.418   3.997  10.899  0.0262  0.0785 -0.0719
  207DOPE   C1A 2423  10.127   3.830  11.387  0.3807 -0.0289 -0.1607
  207DOPE   D2A 2424  10.240   3.875  11.829  0.0509  0.4798  0.1211
  207DOPE   C3A 2425  10.521   4.198  11.990  0.2486 -0.0443  0.1360
  207DOPE   C4A 2426  10.871   4.341  11.783 -0.0996 -0.2321  0.2317
  207DOPE   C1B 2427  10.566   3.640  11.215 -0.2638 -0.0237  0.2252
  207DOPE   D2B 2428  10.396   3.472  11.594  0.1858  0.1679 -0.3626
  207DOPE   C3B 2429  10.325   3.018  11.739  0.0290 -0.1923  0.0031
  207DOPE   C4B 2430  10.575   2.672  11.877  0.1296  0.2254  0.0467
  208DOPE   NH3 2431   9.481   0.939  10.674  0.0361  0.0513  0.0738
  208DOPE   PO4 2432   9.791   1.020  10.665 -0.0972 -0.1127  0.1240
  208DOPE   GL1 2433   9.923   0.839  10.959 -0.4439  0.2392 -0.0594
  208DOPE   GL2 2434   9.927   0.982  11.150 -0.0964 -0.1850  0.1580
  208DOPE   C1A 2435  10.303   0.596  11.180 -0.1361  0.2465  0.1789
  208DOPE   D2A 2436  10.605   0.393  11.502  0.1405  0.1125 -0.3755
  208DOPE   C3A 2437  10.407   0.441  11.931  0.0840  0.1115 -0.0345
  208DOPE   C4A 2438  10.409   0.516  12.367 -0.2577  0.0841 -0.2466
  208DOPE   C1B 2439   9.885   1.298  11.502 -0.0869  0.1766 -0.2703
  208DOPE   D2B 2440   9.832   1.441  11.929  0.0207 -0.3271  0.2800
  208DOPE   C3B 2441   9.621   1.761  12.105 -0.1258 -0.0620 -0.0370
  208DOPE   C4B 2442   9.679   2.159  12.044 -0.0140 -0.0568 -0.3213
  209DOPC   NC3 2443  10.284   2.693  10.151 -0.1142 -0.3686 -0.1693
  209DOPC   PO4 2444  10.483   2.811  10.494  0.2723  0.3664  0.3421
  209DOPC   GL1 2445  10.341   2.969  10.906 -0.0363 -0.1451 -0.1320
  209DOPC   GL2 2446  10.220   3.277  10.947  0.2938 -0.1833 -0.1828
  209DOPC   C1A 2447  10.627   3.110  11.249 -0.1215 -0.2074  0.1454
  209DOPC   D2A 2448  10.868   3.245  11.656 -0.1143  0.0321 -0.1345
  209DOPC   C3A 2449  10.698   3.273  12.046  0.3122 -0.0428 -0.2048
  209DOPC   C4A 2450  10.534   3.221  12.494 -0.3351 -0.0115 -0.0600
  209DOPC   C1B 2451  10.081   3.063  11.330  0.0734  0.4315  0.1383
  209DOPC   D2B 2452   9.926   3.363  11.661 -0.0351  0.3573 -0.0787
  209DOPC   C3B 2453  10.115   3.336  12.114  0.0487 -0.0191  0.0881
  209DOPC   C4B 2454  10.019   3.440  12.565  0.1196 -0.2634 -0.0777
  210DOPC   NC3 2455   1.480   9.113  10.476  0.0081  0.0052 -0.1276
  210DOPC   PO4 2456   1.851   9.215  10.400  0.0635 -0.1048 -0.1019
  210DOPC   GL1 2457   1.780   9.246  10.833  0.1359  0.2337 -0.2421
  210DOPC   GL2 2458   1.952   9.434  10.900 -0.2584 -0.0318 -0.3586
  210DOPC   C1A 2459   1.791   9.056  11.232  0.1537  0.2047 -0.1307
  210DOPC   D2A 2460   2.142   8.739  11.290  0.2153  0.0302 -0.0030
  210DOPC   C3A 2461   2.011   8.314  11.254 -0.1629 -0.2140 -0.0423
  210DOPC   C4A 2462   1.653   8.010  11.116  0.0027 -0.1769  0.1298
  210DOPC   C1B 2463   2.197   9.691  11.229  0.0574 -0.0359 -0.0171
  210DOPC   D2B 2464   2.399   9.720  11.698  0.1047  0.1572  0.1955
  210DOPC   C3B 2465   2.294   9.427  12.032  0.0127  0.1350 -0.2523
  210DOPC   C4B 2466   1.836   9.344  12.279  0.1104 -0.3296  0.0243
  211DOPE   NH3 2467   0.575   9.910  10.955  0.1029  0.0440  0.0835
  211DOPE   PO4 2468   0.359  10.037  10.745  0.0535 -0.0271 -0.1621
  211DOPE   GL1 2469   0.105   9.818  11.013  0.0783  0.2202  0.1331
  211DOPE   GL2 2470  -0.115   9.928  11.050  0.1822  0.0001  0.1293
  211DOPE   C1A 2471  -0.018   9.693  11.472  0.0611 -0.1324 -0.1156
  211DOPE   D2A 2472   0.201   9.535  11.851 -0.1940  0.0889  0.2031
  211DOPE   C3A 2473   0.002   9.306  12.213 -0.0819 -0.2816  0.0259
  211DOPE   C4A 2474   0.014   9.083  12.632 -0.1480  0.3686  0.0864
  211DOPE   C1B 2475  -0.235  10.110  11.478 -0.2378  0.1919  0.1043
  211DOPE   D2B 2476  -0.122   9.956  11.863 -0.0332  0.0611 -0.0753
  211DOPE   C3B 2477  -0.094  10.145  12.278 -0.2862  0.0754  0.1439
  211DOPE   C4B 2478  -0.269  10.011  12.667  0.1234 -0.0606 -0.1240
  212DOPE   NH3 2479   6.877  11.102  10.091 -0.0986 -0.1027 -0.4620
  212DOPE   PO4 2480   7.181  11.150   9.969 -0.1602 -0.1297  0.1311
  212DOPE   GL1 2481   7.285  11.104  10.354  0.0003  0.1539 -0.1220
  212DOPE   GL2 2482   7.483  11.317  10.387  0.1545 -0.0810 -0.0121
  212DOPE   C1A 2483   7.051  11.099  10.770  0.0477  0.3692 -0.3185
  212DOPE   D2A 2484   7.217  11.014  11.199  0.1180  0.3695 -0.2558
  212DOPE   C3A 2485   7.504  11.283  11.489 -0.0750  0.1702  0.0545
  212DOPE   C4A 2486   7.702  11.649  11.715 -0.3438 -0.1836 -0.0544
  212DOPE   C1B 2487   7.203  11.597  10.536 -0.1613  0.1576 -0.0249
  212DOPE   D2B 2488   7.025  11.928  10.762  0.0256  0.0948  0.0923
  212DOPE   C3B 2489   7.024  11.965  11.198 -0.2178  0.0969 -0.2184
  212DOPE   C4B 2490   7.179  11.834  11.635  0.1874  0.1667 -0.1626
  213DOPE   NH3 2491   7.021   9.584  10.680 -0.1730  0.0334  0.0061
  213DOPE   PO4 2492   6.977   9.379  10.456 -0.1605 -0.0342 -0.0386
  213DOPE   GL1 2493   7.103   9.057  10.730 -0.0292  0.1698  0.0501
  213DOPE   GL2 2494   6.960   9.108  10.956  0.2018 -0.1114 -0.3582
  213DOPE   C1A 2495   7.031   8.644  10.947  0.0277 -0.2028 -0.1130
  213DOPE   D2A 2496   7.273   8.239  11.010 -0.0327  0.2216  0.2612
  213DOPE   C3A 2497   7.581   7.955  11.248  0.2648 -0.3263 -0.2215
  213DOPE   C4A 2498   7.986   7.910  11.466  0.0324  0.1148 -0.0162
  213DOPE   C1B 2499   7.111   9.033  11.434  0.3157 -0.1346  0.2023
  213DOPE   D2B 2500   7.191   9.001  11.866  0.3248 -0.1820  0.1337
  213DOPE   C3B 2501   7.552   8.713  12.021 -0.1219 -0.0678  0.0610
  213DOPE   C4B 2502   7.890   8.560  12.246 -0.1171  0.0346 -0.1124
  214POSM   NC3 2503   2.113   8.888  10.061 -0.0175 -0.0545  0.0249
  214POSM   PO4 2504   1.907   8.573   9.959 -0.3340  0.3435 -0.1792
  214POSM   AM1 2505   1.831   8.536  10.262 -0.1410  0.1508 -0.1695
  214POSM   AM2 2506   1.787   8.700  10.495 -0.0133  0.0634  0.0286
  214POSM   T1A 2507   2.011   8.375  10.757 -0.1039 -0.1435 -0.1679
  214POSM   C2A 2508   2.411   8.342  10.928 -0.2848  0.0078 -0.0146
  214POSM   C3A 2509   2.842   8.430  10.897 -0.0416  0.1765  0.1938
  214POSM   C1B 2510   1.712   8.710  10.880  0.0591  0.0774  0.3282
  214POSM   D2B 2511   1.522   8.529  11.284 -0.1370  0.0612 -0.0672
  214POSM   C3B 2512   1.597   8.788  11.630 -0.1781 -0.1280  0.1177
  214POSM   C4B 2513   1.676   8.683  12.056 -0.0989 -0.2099 -0.0262
  215DOPE   NH3 2514   6.548   9.166  10.593  0.0530  0.0051  0.2355
  215DOPE   PO4 2515   6.506   9.478  10.609  0.3557  0.0455 -0.2240
  215DOPE   GL1 2516   6.472   9.654  10.927  0.0922  0.0844  0.0949
  215DOPE   GL2 2517   6.667   9.901  10.961  0.0079 -0.1010 -0.1185
  215DOPE   C1A 2518   6.140   9.465  11.192 -0.2055  0.0422  0.0968
  215DOPE   D2A 2519   5.864   9.388  11.486  0.0028  0.3749 -0.0401
  215DOPE   C3A 2520   6.197   9.251  11.804 -0.1512 -0.1814 -0.1713
  215DOPE   C4A 2521   6.175   9.050  12.168 -0.1154  0.1088 -0.1468
  215DOPE   C1B 2522   6.275   9.998  11.216  0.2920  0.1293  0.5364
  215DOPE   D2B 2523   6.017   9.855  11.561 -0.1518 -0.0307  0.0092
  215DOPE   C3B 2524   5.687   9.779  11.888  0.0680  0.1402 -0.1649
  215DOPE   C4B 2525   5.339   9.884  12.173  0.2052  0.2949  0.1995
  216POSM   NC3 2526   9.495   8.300   9.511  0.1680  0.0759 -0.0866
  216POSM   PO4 2527   9.182   8.516   9.570 -0.1375  0.1608 -0.3064
  216POSM   AM1 2528   9.276   8.536   9.882 -0.0637  0.4568  0.2596
  216POSM   AM2 2529   9.138   8.640  10.130 -0.1551  0.3601  0.0601
  216POSM   T1A 2530   9.623   8.545  10.224  0.0440  0.1661 -0.0643
  216POSM   C2A 2531  10.003   8.770  10.376  0.3126  0.0067  0.2633
  216POSM   C3A 2532  10.366   9.121  10.348  0.0579 -0.1753  0.3080
  216POSM   C1B 2533   9.146   8.369  10.356  0.4266 -0.0088 -0.0998
  216POSM   D2B 2534   9.335   8.083  10.709  0.1867 -0.0787  0.2860
  216POSM   C3B 2535   9.314   8.187  11.139  0.2310 -0.2161 -0.0763
  216POSM   C4B 2536   9.181   8.266  11.582 -0.0388  0.3365  0.0499
  217POSM   NC3 2537   0.128  32.218  10.642  0.1148 -0.0846 -0.2782
  217POSM   PO4 2538   0.399  32.358  10.392 -0.0883 -0.2081 -0.2643
  217POSM   AM1 2539   0.667  32.354  10.598 -0.3337  0.1777 -0.2983
  217POSM   AM2 2540   0.919  32.197  10.623 -0.3512  0.0183 -0.1167
  217POSM   T1A 2541   0.931  32.632  10.913 -0.3993  0.1288 -0.0532
  217POSM   C2A 2542   0.942  32.868  11.292 -0.3207  0.3931  0.3300
  217POSM   C3A 2543   0.601  33.154  11.538 -0.0099 -0.0103 -0.0814
  217POSM   C1B 2544   1.171  32.149  10.804 -0.0782  0.2164  0.1395
  217POSM   D2B 2545   1.387  32.063  11.221  0.2999 -0.3039 -0.0098
  217POSM   C3B 2546   1.239  31.853  11.641  0.1809 -0.1799 -0.0866
  217POSM   C4B 2547   1.104  31.784  12.036  0.0538  0.0384 -0.0970
  218DOPC   NC3 2548   9.248  12.597   9.747 -0.2099  0.2357  0.0894
  218DOPC   PO4 2549   9.360  12.932   9.556  0.0383  0.0210  0.0929
  218DOPC   GL1 2550   9.491  12.880   9.988  0.0594  0.3529 -0.2133
  218DOPC   GL2 2551   9.736  12.816   9.880 -0.2964  0.0687 -0.2674
  218DOPC   C1A 2552   9.275  12.879  10.375  0.0909 -0.1909  0.1663
  218DOPC   D2A 2553   9.256  12.991  10.819 -0.1060  0.1028 -0.1017
  218DOPC   C3A 2554   9.237  13.363  11.124  0.1863 -0.2649  0.1714
  218DOPC   C4A 2555   9.154  13.659  11.501 -0.1478 -0.0593 -0.2393
  218DOPC   C1B 2556   9.580  12.386  10.085 -0.1285  0.2939  0.2098
  218DOPC   D2B 2557   9.236  12.272  10.329 -0.0551  0.0938  0.1500
  218DOPC   C3B 2558   9.097  12.487  10.697 -0.0107 -0.1663  0.1749
  218DOPC   C4B 2559   8.783  12.609  10.976  0.0256 -0.1350  0.2510
  219DOPC   NC3 2560   8.435   7.451  10.797  0.0464 -0.0338 -0.1563
  219DOPC   PO4 2561   8.833   7.454  10.735  0.1717  0.1304  0.3500
  219DOPC   GL1 2562   8.901   7.436  11.197 -0.2697 -0.3233 -0.1583
  219DOPC   GL2 2563   8.656   7.417  11.245 -0.1568 -0.2253  0.1474
  219DOPC   C1A 2564   8.992   7.753  11.517 -0.0621  0.0885 -0.3066
  219DOPC   D2A 2565   8.944   7.917  11.922  0.1746 -0.1607  0.0801
  219DOPC   C3A 2566   8.646   8.197  12.148 -0.0141 -0.1425 -0.2682
  219DOPC   C4A 2567   8.237   8.311  12.031 -0.1318  0.0349  0.2498
  219DOPC   C1B 2568   8.309   7.484  11.493  0.2483 -0.0001  0.0864
  219DOPC   D2B 2569   7.982   7.602  11.842  0.1255 -0.2840  0.1829
  219DOPC   C3B 2570   7.872   7.937  12.094  0.0280 -0.1880 -0.0648
  219DOPC   C4B 2571   7.443   7.951  12.207 -0.2377  0.0787  0.1176
  220DOPC   NC3 2572   4.333   3.027  10.139 -0.2653  0.4402  0.0167
  220DOPC   PO4 2573   4.517   2.980  10.494  0.1476  0.0535  0.3878
  220DOPC   GL1 2574   4.336   2.748  10.717 -0.3280 -0.1652  0.0268
  220DOPC   GL2 2575   4.051   2.935  10.778 -0.1554 -0.1532 -0.1518
  220DOPC   C1A 2576   4.078   2.356  10.602  0.1577 -0.1402  0.0434
  220DOPC   D2A 2577   3.609   2.600  10.659  0.1076 -0.0860  0.1939
  220DOPC   C3A 2578   3.287   2.278  10.746 -0.0257 -0.0198  0.4055
  220DOPC   C4A 2579   3.109   1.887  10.981 -0.3430  0.6368  0.0697
  220DOPC   C1B 2580   4.086   3.013  11.190 -0.2339 -0.1117 -0.1149
  220DOPC   D2B 2581   4.100   2.788  11.628 -0.0252  0.1117 -0.3030
  220DOPC   C3B 2582   4.499   2.816  11.805  0.4132 -0.3634  0.0877
  220DOPC   C4B 2583   4.823   2.651  12.051  0.3346  0.1647 -0.2483
  221DOPE   NH3 2584   7.405  34.423  11.111 -0.3720  0.0406  0.1058
  221DOPE   PO4 2585   7.560  34.616  10.942  0.2093  0.0083  0.1252
  221DOPE   GL1 2586   7.801  34.605  11.276 -0.2184 -0.1614  0.0188
  221DOPE   GL2 2587   7.955  34.830  11.409 -0.1283 -0.1673 -0.0144
  221DOPE   C1A 2588   7.696  34.401  11.696  0.1078  0.1080  0.0987
  221DOPE   D2A 2589   7.487  34.674  12.005  0.1898  0.1823 -0.3265
  221DOPE   C3A 2590   7.157  34.815  12.143 -0.2075 -0.2237  0.0768
  221DOPE   C4A 2591   6.945  34.992  12.491 -0.2167 -0.1669  0.4419
  221DOPE   C1B 2592   7.953  34.830  11.831  0.0864 -0.0236  0.1152
  221DOPE   D2B 2593   8.006  34.967  12.291  0.1601  0.2322  0.0626
  221DOPE   C3B 2594   7.983  35.376  12.409  0.1077  0.1111 -0.3224
  221DOPE   C4B 2595   8.042  35.793  12.197 -0.0159 -0.0696  0.0310
  222POSM   NC3 2596   5.664  34.410   9.986  0.2621 -0.4975  0.3500
  222POSM   PO4 2597   5.709  34.722  10.244 -0.0700 -0.1756  0.2260
  222POSM   AM1 2598   5.601  34.754  10.547  0.1526 -0.0759  0.3155
  222POSM   AM2 2599   5.417  34.696  10.765 -0.0862  0.2319  0.0659
  222POSM   T1A 2600   5.860  34.895  10.930  0.0899 -0.1401 -0.0117
  222POSM   C2A 2601   5.985  35.000  11.397 -0.1556  0.1665  0.1533
  222POSM   C3A 2602   6.017  35.029  11.841 -0.0255  0.0374 -0.2815
  222POSM   C1B 2603   5.408  34.441  10.997  0.0422 -0.0675 -0.1898
  222POSM   D2B 2604   5.574  34.253  11.403 -0.3214 -0.1895  0.0290
  222POSM   C3B 2605   5.670  34.072  11.834 -0.2717 -0.2206 -0.1669
  222POSM   C4B 2606   5.724  33.873  12.176  0.0223  0.0458  0.2184
  223DOPE   NH3 2607   0.679  11.184  10.417  0.0554  0.0548  0.0038
  223DOPE   PO4 2608   0.391  11.170  10.582  0.1054  0.0310 -0.3710
  223DOPE   GL1 2609   0.261  11.208  10.974  0.2222  0.0671 -0.1132
  223DOPE   GL2 2610   0.575  11.101  11.051 -0.1760 -0.2746 -0.2215
  223DOPE   C1A 2611   0.163  11.085  11.404 -0.0357 -0.1801  0.1280
  223DOPE   D2A 2612  -0.134  11.011  11.738 -0.2957  0.1701  0.1479
  223DOPE   C3A 2613  -0.305  11.338  11.972 -0.1777 -0.1642  0.2090
  223DOPE   C4A 2614  -0.340  11.635  12.303 -0.1233 -0.1003 -0.1125
  223DOPE   C1B 2615   0.641  11.150  11.481 -0.0710 -0.3079  0.1034
  223DOPE   D2B 2616   0.887  10.909  11.743 -0.0604 -0.1117 -0.0640
  223DOPE   C3B 2617   1.344  10.921  11.967 -0.3272 -0.3709  0.1795
  223DOPE   C4B 2618   1.653  10.647  12.203 -0.1197 -0.0254 -0.0135
  224DOPC   NC3 2619   6.920   1.149  10.178  0.2969 -0.1079  0.3766
  224DOPC   PO4 2620   7.243   1.330  10.318 -0.0102 -0.0157  0.1359
  224DOPC   GL1 2621   7.166   1.424  10.748  0.1009  0.1313 -0.2999
  224DOPC   GL2 2622   7.037   1.574  10.914  0.0078  0.1176  0.1268
  224DOPC   C1A 2623   7.308   1.130  11.100  0.1951  0.2815 -0.1043
  224DOPC   D2A 2624   7.555   1.258  11.464 -0.2151  0.0518 -0.0429
  224DOPC   C3A 2625   7.616   1.242  11.915 -0.0821  0.0551 -0.2193
  224DOPC   C4A 2626   7.486   1.007  12.224 -0.1039 -0.0644 -0.0265
  224DOPC   C1B 2627   7.203   1.732  11.294  0.0895  0.2028  0.0198
  224DOPC   D2B 2628   7.337   1.720  11.743  0.2264  0.1580 -0.2242
  224DOPC   C3B 2629   7.801   1.862  11.780  0.1700  0.1987  0.0673
  224DOPC   C4B 2630   8.101   1.994  12.090 -0.0761  0.0336  0.1944
  225POSM   NC3 2631   4.974  34.548  10.499 -0.1440  0.4278  0.1611
  225POSM   PO4 2632   5.253  34.465  10.247  0.0292 -0.1494  0.1349
  225POSM   AM1 2633   5.488  34.346  10.475  0.0030  0.0352  0.0495
  225POSM   AM2 2634   5.457  34.126  10.630 -0.3023 -0.1005  0.0698
  225POSM   T1A 2635   5.873  34.370  10.807  0.0352 -0.1413  0.1594
  225POSM   C2A 2636   5.985  34.501  11.208 -0.3798 -0.1422  0.0568
  225POSM   C3A 2637   6.017  34.155  11.505 -0.1653 -0.0376  0.1637
  225POSM   C1B 2638   5.284  33.964  10.896 -0.1294 -0.1557  0.1332
  225POSM   D2B 2639   4.994  33.734  11.067  0.1706 -0.0695 -0.1534
  225POSM   C3B 2640   5.090  33.488  11.514 -0.1155  0.3600  0.1720
  225POSM   C4B 2641   4.957  33.341  11.935 -0.0829 -0.1488 -0.1599
  226DOPE   NH3 2642   8.916   7.285  10.268 -0.2172 -0.1389 -0.3467
  226DOPE   PO4 2643   8.981   7.006  10.393  0.2030 -0.1545 -0.1752
  226DOPE   GL1 2644   8.944   6.901  10.817  0.1433  0.1193 -0.0817
  226DOPE   GL2 2645   8.692   6.971  10.977 -0.2839 -0.0155  0.1403
  226DOPE   C1A 2646   9.119   6.554  11.105  0.0198  0.0677 -0.0073
  226DOPE   D2A 2647   9.138   6.647  11.534  0.0196  0.1863  0.2077
  226DOPE   C3A 2648   9.445   6.821  11.833  0.3061  0.0818 -0.0141
  226DOPE   C4A 2649   9.444   7.021  12.244 -0.2080 -0.0676  0.2047
  226DOPE   C1B 2650   8.828   6.985  11.380 -0.0549 -0.2135 -0.3761
  226DOPE   D2B 2651   8.901   7.277  11.654 -0.0908 -0.2436 -0.1078
  226DOPE   C3B 2652   8.575   7.209  11.956  0.2314 -0.1058 -0.2362
  226DOPE   C4B 2653   8.270   7.249  12.322 -0.0042 -0.0767  0.0353
  227DOPE   NH3 2654  34.436   1.172  10.057  0.0472 -0.3549 -0.1672
  227DOPE   PO4 2655  34.272   1.347  10.296  0.2508  0.1239 -0.0168
  227DOPE   GL1 2656  34.429   1.464  10.707 -0.3791 -0.1300 -0.1826
  227DOPE   GL2 2657  34.649   1.347  10.829  0.2574 -0.0249 -0.0578
  227DOPE   C1A 2658  34.115   1.402  11.069 -0.3834  0.0307  0.0597
  227DOPE   D2A 2659  34.239   1.458  11.508  0.2017  0.3704 -0.1000
  227DOPE   C3A 2660  34.192   1.879  11.599 -0.3382  0.0856 -0.1075
  227DOPE   C4A 2661  34.114   2.048  12.019 -0.0253 -0.0339  0.1417
  227DOPE   C1B 2662  34.940   1.305  11.165  0.2786 -0.1067  0.1513
  227DOPE   D2B 2663  35.199   1.358  11.585 -0.0772  0.1647  0.0680
  227DOPE   C3B 2664  35.171   1.620  11.990  0.1035  0.1234  0.4459
  227DOPE   C4B 2665  35.540   1.833  12.137 -0.3089 -0.0615 -0.1608
  228DOPC   NC3 2666   4.546   7.578  10.639 -0.1262  0.1382  0.2204
  228DOPC   PO4 2667   4.329   7.595  10.365  0.1059  0.0141  0.3250
  228DOPC   GL1 2668   4.182   7.898  10.615  0.0255  0.0577  0.0768
  228DOPC   GL2 2669   4.463   8.111  10.542  0.0400 -0.0590 -0.0798
  228DOPC   C1A 2670   3.929   7.940  10.999 -0.2231 -0.4140  0.3249
  228DOPC   D2A 2671   3.772   8.060  11.402 -0.0084  0.0604 -0.1951
  228DOPC   C3A 2672   3.888   7.725  11.682 -0.0523  0.3255 -0.0809
  228DOPC   C4A 2673   3.916   7.329  11.900 -0.0261  0.0152 -0.0698
  228DOPC   C1B 2674   4.438   8.062  10.977 -0.0049  0.1578  0.1859
  228DOPC   D2B 2675   4.269   8.192  11.389 -0.0148 -0.3895 -0.2039
  228DOPC   C3B 2676   4.396   8.091  11.841 -0.1463 -0.3065 -0.0226
  228DOPC   C4B 2677   4.831   8.052  12.042 -0.3973  0.1416 -0.1665
  229DOPE   NH3 2678   3.415   5.801  10.329 -0.3166  0.2229 -0.0709
  229DOPE   PO4 2679   3.393   6.119  10.322 -0.2595  0.0584 -0.0060
  229DOPE   GL1 2680   3.544   6.218  10.669 -0.1213 -0.3390  0.0748
  229DOPE   GL2 2681   3.306   6.095  10.793  0.1987  0.2937 -0.0337
  229DOPE   C1A 2682   3.704   6.272  11.111  0.1770  0.0693 -0.4439
  229DOPE   D2A 2683   3.929   6.604  11.473  0.0733  0.3514  0.1887
  229DOPE   C3A 2684   4.198   6.467  11.871 -0.1757 -0.3004 -0.1542
  229DOPE   C4A 2685   4.119   6.382  12.315 -0.3122 -0.1838 -0.0719
  229DOPE   C1B 2686   3.139   6.469  11.040 -0.1760  0.1494  0.1314
  229DOPE   D2B 2687   3.176   6.895  11.291 -0.1097  0.3441 -0.6059
  229DOPE   C3B 2688   3.252   6.981  11.767  0.1924  0.1372 -0.1200
  229DOPE   C4B 2689   3.449   7.378  11.885 -0.0609  0.4690 -0.1172
  230POSM   NC3 2690   7.080   4.650  10.353  0.0328 -0.0190 -0.1133
  230POSM   PO4 2691   7.275   4.984  10.255 -0.0333 -0.4607  0.3422
  230POSM   AM1 2692   7.264   5.138  10.540  0.0603  0.2138  0.1334
  230POSM   AM2 2693   7.104   5.103  10.778 -0.2604 -0.2223  0.0517
  230POSM   T1A 2694   7.516   5.299  10.975  0.0659 -0.0788 -0.2469
  230POSM   C2A 2695   7.487   5.506  11.361  0.2553 -0.1595 -0.0933
  230POSM   C3A 2696   7.194   5.574  11.750 -0.1121  0.0503 -0.0012
  230POSM   C1B 2697   7.071   5.199  11.154 -0.3921  0.1531 -0.0561
  230POSM   D2B 2698   7.154   5.071  11.553 -0.1010 -0.1820  0.2233
  230POSM   C3B 2699   7.037   5.116  12.010 -0.0184 -0.1473  0.3536
  230POSM   C4B 2700   6.851   4.981  12.417 -0.0960  0.0937  0.0542
  231DOPC   NC3 2701   8.559   7.705  10.385 -0.0000 -0.1197 -0.1059
  231DOPC   PO4 2702   8.916   7.807  10.237 -0.4559 -0.0465  0.1792
  231DOPC   GL1 2703   8.935   7.968  10.588 -0.0733 -0.0043  0.2180
  231DOPC   GL2 2704   8.904   7.890  10.968 -0.2422 -0.0086 -0.0917
  231DOPC   C1A 2705   8.921   8.419  10.833  0.0516  0.3715 -0.0400
  231DOPC   D2A 2706   9.098   8.689  11.155 -0.2280  0.0507 -0.1085
  231DOPC   C3A 2707   9.007   8.742  11.527  0.1940  0.1487 -0.0830
  231DOPC   C4A 2708   8.865   8.881  11.988  0.0370 -0.0418  0.1373
  231DOPC   C1B 2709   8.786   8.235  11.281  0.2240 -0.0447 -0.1265
  231DOPC   D2B 2710   8.670   8.432  11.700 -0.0042 -0.0752 -0.0245
  231DOPC   C3B 2711   8.414   8.833  11.843  0.0315 -0.2532  0.0267
  231DOPC   C4B 2712   8.175   9.204  11.639  0.1796 -0.1563 -0.4819
  232POSM   NC3 2713   5.161   9.564   9.889  0.3325 -0.2804  0.3035
  232POSM   PO4 2714   5.532   9.657   9.818 -0.0412  0.1805 -0.1705
  232POSM   AM1 2715   5.505   9.623  10.135  0.2857 -0.1395 -0.2726
  232POSM   AM2 2716   5.359   9.770  10.314  0.1123 -0.0666 -0.2084
  232POSM   T1A 2717   5.553   9.508  10.633  0.1204  0.1683 -0.1352
  232POSM   C2A 2718   5.675   9.252  11.006  0.0691 -0.0586  0.0772
  232POSM   C3A 2719   5.496   9.107  11.394  0.0556  0.1684 -0.0728
  232POSM   C1B 2720   5.374   9.943  10.570  0.4289 -0.1878  0.0762
  232POSM   D2B 2721   5.252  10.318  10.825  0.0086 -0.0471 -0.0741
  232POSM   C3B 2722   5.177  10.179  11.277 -0.0545  0.3609  0.0549
  232POSM   C4B 2723   5.235   9.892  11.635 -0.1082 -0.0086 -0.2869
  233DOPE   NH3 2724   4.995   2.169  10.524  0.2080 -0.1450  0.3131
  233DOPE   PO4 2725   5.250   2.068  10.534 -0.5757 -0.0038 -0.1905
  233DOPE   GL1 2726   5.427   1.956  10.874  0.2815 -0.1363 -0.1750
  233DOPE   GL2 2727   5.538   1.689  10.755  0.0735 -0.0273  0.0673
  233DOPE   C1A 2728   5.178   1.939  11.285 -0.2583 -0.4179  0.1366
  233DOPE   D2A 2729   4.970   1.715  11.622  0.2309 -0.1542 -0.0152
  233DOPE   C3A 2730   4.706   1.672  12.016 -0.1508  0.0854 -0.0302
  233DOPE   C4A 2731   4.368   1.958  12.188  0.0196 -0.0160 -0.1713
  233DOPE   C1B 2732   5.639   1.417  11.156 -0.1644 -0.0142  0.1570
  233DOPE   D2B 2733   5.369   1.327  11.477 -0.2679  0.0533 -0.1227
  233DOPE   C3B 2734   5.326   1.486  11.869  0.0342 -0.1624 -0.1551
  233DOPE   C4B 2735   5.163   1.374  12.309 -0.0382  0.1886  0.2416
  234DOPC   NC3 2736   6.390  34.574  10.484 -0.1420 -0.0851 -0.2983
  234DOPC   PO4 2737   6.485  34.939  10.649 -0.0598 -0.1238  0.2241
  234DOPC   GL1 2738   6.302  35.076  10.984  0.0975  0.2199 -0.2579
  234DOPC   GL2 2739   6.360  34.817  11.131 -0.1436 -0.0427 -0.0014
  234DOPC   C1A 2740   6.358  35.532  11.184 -0.1689 -0.0745  0.2108
  234DOPC   D2A 2741   6.444  35.908  11.509 -0.0608  0.0766 -0.1407
  234DOPC   C3A 2742   6.643  35.879  11.951 -0.0466 -0.0563  0.1554
  234DOPC   C4A 2743   6.802  35.891  12.411 -0.2752  0.2170  0.1387
  234DOPC   C1B 2744   6.461  35.117  11.460 -0.0027  0.3161  0.1327
  234DOPC   D2B 2745   6.715  35.480  11.630 -0.1630  0.1984 -0.2165
  234DOPC   C3B 2746   6.818  35.319  12.077  0.1994 -0.2120  0.1320
  234DOPC   C4B 2747   6.484  35.043  12.212 -0.0398  0.0584 -0.0609
  235DOPE   NH3 2748  12.634   2.235   9.960 -0.0029  0.0681 -0.2348
  235DOPE   PO4 2749  12.450   2.004  10.098 -0.0940  0.1448  0.0646
  235DOPE   GL1 2750  12.638   1.965  10.468 -0.2253 -0.0523  0.2457
  235DOPE   GL2 2751  12.905   2.126  10.352  0.1612  0.2960 -0.0016
  235DOPE   C1A 2752  12.656   1.768  10.854  0.2846 -0.0922  0.0372
  235DOPE   D2A 2753  12.651   1.782  11.331  0.0591 -0.0157 -0.0170
  235DOPE   C3A 2754  12.556   2.042  11.715 -0.1230  0.1978 -0.3087
  235DOPE   C4A 2755  12.559   1.882  12.210  0.0383 -0.0894 -0.1302
  235DOPE   C1B 2756  13.125   2.118  10.803 -0.2816  0.0143 -0.2228
  235DOPE   D2B 2757  12.957   2.127  11.235 -0.3734 -0.1362  0.0183
  235DOPE   C3B 2758  13.101   2.162  11.726 -0.1257  0.0297 -0.1007
  235DOPE   C4B 2759  12.917   2.298  12.087 -0.1227  0.1881 -0.1071
  236POSM   NC3 2760   4.009   0.862  10.397  0.1001 -0.1031  0.1867
  236POSM   PO4 2761   4.245   1.205  10.337  0.2112 -0.1792 -0.2975
  236POSM   AM1 2762   4.292   1.284  10.625  0.0628 -0.2913  0.0220
  236POSM   AM2 2763   4.154   1.305  10.880  0.1224  0.2956  0.1270
  236POSM   T1A 2764   4.689   1.287  10.940 -0.0654  0.1913  0.1464
  236POSM   C2A 2765   4.916   1.144  11.303  0.3884  0.0102 -0.1497
  236POSM   C3A 2766   5.024   0.877  11.699  0.1057  0.0878 -0.1241
  236POSM   C1B 2767   4.252   1.353  11.173  0.1780  0.0158  0.0506
  236POSM   D2B 2768   4.463   1.455  11.547  0.3101  0.1368 -0.0359
  236POSM   C3B 2769   4.459   1.242  11.961 -0.0503  0.1652  0.1190
  236POSM   C4B 2770   4.543   1.304  12.434  0.3556 -0.2042 -0.1009
  237DOPC   NC3 2771   6.663   6.354  10.468 -0.0376 -0.1205  0.0864
  237DOPC   PO4 2772   6.255   6.427  10.418  0.0925  0.1789 -0.0144
  237DOPC   GL1 2773   6.325   6.441  10.779  0.1635  0.3119  0.0830
  237DOPC   GL2 2774   6.498   6.664  10.810  0.0171  0.1096 -0.1738
  237DOPC   C1A 2775   6.421   6.346  11.248 -0.0027 -0.0321  0.3108
  237DOPC   D2A 2776   6.632   6.165  11.606 -0.1253  0.1335  0.0437
  237DOPC   C3A 2777   6.835   5.944  11.899  0.0561 -0.1470  0.2714
  237DOPC   C4A 2778   7.181   5.805  12.220 -0.1931  0.0654  0.2841
  237DOPC   C1B 2779   6.376   6.899  11.153  0.1383 -0.0360  0.0351
  237DOPC   D2B 2780   6.433   6.681  11.588 -0.2030 -0.2502  0.4507
  237DOPC   C3B 2781   6.427   6.829  12.069  0.3112  0.0157 -0.0679
  237DOPC   C4B 2782   6.650   6.971  12.529  0.3469  0.2271  0.0492
  238POSM   NC3 2783   6.060  33.549  10.221  0.1243 -0.3328  0.3204
  238POSM   PO4 2784   6.270  33.820  10.299  0.2178  0.1516 -0.2539
  238POSM   AM1 2785   6.283  34.048  10.521 -0.2203  0.2780 -0.1381
  238POSM   AM2 2786   6.146  34.007  10.797 -0.1472  0.1548 -0.2535
  238POSM   T1A 2787   6.380  34.392  10.912 -0.0913  0.0014  0.1386
  238POSM   C2A 2788   6.490  34.407  11.351  0.1070 -0.0199 -0.1273
  238POSM   C3A 2789   6.270  34.609  11.668  0.2834 -0.2393  0.0533
  238POSM   C1B 2790   6.196  33.913  11.127  0.0338  0.2684  0.3577
  238POSM   D2B 2791   6.503  33.939  11.471 -0.1021 -0.1776 -0.0528
  238POSM   C3B 2792   6.883  33.632  11.421  0.1639  0.0763 -0.1701
  238POSM   C4B 2793   7.228  33.360  11.414 -0.3243 -0.2277 -0.2707
  239POSM   NC3 2794   0.999   9.985  10.600 -0.0557  0.1176  0.0720
  239POSM   PO4 2795   1.355  10.084  10.771 -0.3586 -0.2324 -0.0357
  239POSM   AM1 2796   1.516   9.952  11.041 -0.2353 -0.1674  0.2319
  239POSM   AM2 2797   1.683   9.760  11.105 -0.3384 -0.1229  0.0476
  239POSM   T1A 2798   1.670   9.951  11.571  0.2541 -0.1968 -0.0054
  239POSM   C2A 2799   1.951   9.869  11.939  0.0450 -0.1487  0.4941
  239POSM   C3A 2800   2.108   9.968  12.371  0.1612  0.0725 -0.1594
  239POSM   C1B 2801   1.466   9.520  11.316  0.2671  0.1533  0.3461
  239POSM   D2B 2802   1.172   9.329  11.629  0.1097 -0.0577  0.0943
  239POSM   C3B 2803   1.031   8.918  11.464  0.1526 -0.1470 -0.0417
  239POSM   C4B 2804   0.966   8.419  11.527 -0.1834  0.1666  0.1186
  240DOPC   NC3 2805   5.799   2.155  10.545 -0.3856  0.0778 -0.3446
  240DOPC   PO4 2806   6.036   1.862  10.461  0.0009  0.2039  0.0197
  240DOPC   GL1 2807   6.088   1.836  10.836  0.0530  0.2435 -0.2529
  240DOPC   GL2 2808   6.029   1.592  10.892 -0.0335  0.2335  0.2994
  240DOPC   C1A 2809   6.289   2.030  11.222 -0.1105  0.0325  0.1225
  240DOPC   D2A 2810   6.194   2.345  11.507 -0.1144 -0.1513  0.2776
  240DOPC   C3A 2811   6.111   2.211  11.947 -0.0446  0.1318  0.2712
  240DOPC   C4A 2812   5.697   2.133  12.128 -0.0591 -0.0403 -0.2394
  240DOPC   C1B 2813   6.172   1.585  11.368  0.0551 -0.0538  0.1570
  240DOPC   D2B 2814   6.388   1.721  11.732  0.2052 -0.0229 -0.1564
  240DOPC   C3B 2815   6.814   1.731  11.755  0.0797  0.1261 -0.0608
  240DOPC   C4B 2816   7.002   1.858  12.138  0.0058  0.1842 -0.2405
  241DOPE   NH3 2817   4.509   3.720  10.298  0.2900 -0.3265 -0.2069
  241DOPE   PO4 2818   4.594   3.534  10.565 -0.0712  0.1102 -0.3338
  241DOPE   GL1 2819   4.428   3.496  10.907  0.1016 -0.1945 -0.0805
  241DOPE   GL2 2820   4.446   3.202  10.978 -0.0698 -0.2670  0.3499
  241DOPE   C1A 2821   4.651   3.645  11.299  0.2318 -0.3637  0.2459
  241DOPE   D2A 2822   4.747   3.529  11.749 -0.1483  0.2498  0.0878
  241DOPE   C3A 2823   4.455   3.615  12.093  0.0756 -0.2786 -0.1369
  241DOPE   C4A 2824   4.649   3.624  12.524  0.0164  0.0755 -0.0920
  241DOPE   C1B 2825   4.510   3.187  11.424  0.1650  0.1120  0.1814
  241DOPE   D2B 2826   4.201   3.303  11.734 -0.0581 -0.0104 -0.0431
  241DOPE   C3B 2827   3.973   3.633  11.995 -0.0590 -0.0518 -0.2847
  241DOPE   C4B 2828   3.845   4.013  12.213  0.1865  0.1421 -0.0172
  242POSM   NC3 2829   2.944  12.090  10.349  0.0058 -0.0109  0.2002
  242POSM   PO4 2830   3.256  11.860  10.437 -0.2868  0.0769  0.0486
  242POSM   AM1 2831   3.245  11.953  10.745 -0.0360  0.2939 -0.2147
  242POSM   AM2 2832   3.304  11.815  10.973 -0.1494  0.6613  0.0432
  242POSM   T1A 2833   3.365  12.270  11.136 -0.1533 -0.3864  0.0316
  242POSM   C2A 2834   3.477  12.647  11.370  0.4996 -0.3603  0.3595
  242POSM   C3A 2835   3.679  12.719  11.752 -0.3850 -0.0741 -0.0076
  242POSM   C1B 2836   3.456  11.719  11.257  0.0859 -0.0412 -0.1373
  242POSM   D2B 2837   3.543  11.524  11.651  0.2161  0.1223 -0.1176
  242POSM   C3B 2838   3.621  11.805  11.977 -0.2938  0.0661 -0.1995
  242POSM   C4B 2839   3.691  12.278  12.112 -0.0238 -0.3549 -0.2884
  243POSM   NC3 2840   5.219   1.926   9.904  0.1234 -0.5497 -0.1546
  243POSM   PO4 2841   4.987   1.690  10.141  0.0697 -0.1123 -0.0429
  243POSM   AM1 2842   5.046   1.666  10.476  0.1746  0.0782  0.2194
  243POSM   AM2 2843   4.867   1.670  10.669 -0.0325 -0.0678  0.1483
  243POSM   T1A 2844   5.174   1.328  10.762 -0.3249  0.0267 -0.0717
  243POSM   C2A 2845   5.340   0.997  11.038  0.0267 -0.1604  0.1268
  243POSM   C3A 2846   5.504   0.788  11.435  0.0814 -0.2801  0.1479
  243POSM   C1B 2847   4.832   1.803  10.961  0.0855 -0.0508 -0.0573
  243POSM   D2B 2848   4.688   2.168  11.194 -0.2408 -0.1570  0.1039
  243POSM   C3B 2849   4.540   1.964  11.551 -0.3078  0.0766  0.1452
  243POSM   C4B 2850   4.174   1.894  11.801  0.0639  0.0620 -0.1154
  244DOPS   CNO 2851   5.886   7.626  10.309 -0.0661 -0.1215 -0.1384
  244DOPS   PO4 2852   6.145   7.780  10.585  0.3128  0.0552 -0.0427
  244DOPS   GL1 2853   6.256   7.784  10.898  0.2151  0.3483 -0.0036
  244DOPS   GL2 2854   6.540   7.907  10.872 -0.2842 -0.2496  0.1976
  244DOPS   C1A 2855   6.356   7.515  11.255  0.3118  0.1740 -0.3449
  244DOPS   D2A 2856   6.311   7.179  11.588 -0.0687  0.1247  0.0512
  244DOPS   C3A 2857   6.072   7.363  11.926 -0.1952 -0.3578 -0.0728
  244DOPS   C4A 2858   5.780   7.491  12.270  0.3729 -0.0479  0.0289
  244DOPS   C1B 2859   6.424   8.034  11.260 -0.0501 -0.0245  0.2641
  244DOPS   D2B 2860   6.202   7.869  11.611 -0.0178 -0.0475 -0.1399
  244DOPS   C3B 2861   6.537   7.617  11.738  0.0384  0.0433 -0.1704
  244DOPS   C4B 2862   6.569   7.346  12.063  0.0216 -0.1339 -0.0030
  245DOPC   NC3 2863   2.862   9.312  10.303 -0.1590 -0.3500  0.2750
  245DOPC   PO4 2864   2.812   9.670  10.345  0.2252 -0.0223 -0.0248
  245DOPC   GL1 2865   2.802   9.626  10.776  0.3700  0.2527  0.1360
  245DOPC   GL2 2866   2.655   9.351  10.824  0.2296  0.1073 -0.0888
  245DOPC   C1A 2867   3.018   9.810  11.149 -0.1140  0.0235  0.0500
  245DOPC   D2A 2868   3.405  10.040  11.109 -0.1662  0.2873 -0.2116
  245DOPC   C3A 2869   3.638   9.951  10.788  0.0331  0.0707  0.2585
  245DOPC   C4A 2870   3.951   9.673  10.739 -0.1190 -0.1970  0.1065
  245DOPC   C1B 2871   2.747   9.335  11.278  0.3093 -0.4742 -0.0311
  245DOPC   D2B 2872   2.739   9.329  11.712 -0.2074 -0.0307 -0.2296
  245DOPC   C3B 2873   2.651   8.980  11.931 -0.3548 -0.3659  0.0444
  245DOPC   C4B 2874   2.550   8.620  12.183 -0.1413  0.0286  0.0742
  246POSM   NC3 2875   0.536   7.940  10.618 -0.0476 -0.0834  0.0472
  246POSM   PO4 2876   0.330   7.788  10.316 -0.2098  0.1325 -0.1210
  246POSM   AM1 2877   0.429   7.530  10.473  0.3859  0.0971 -0.2123
  246POSM   AM2 2878   0.418   7.233  10.482 -0.3037 -0.3524  0.0089
  246POSM   T1A 2879   0.551   7.452  10.933  0.2768 -0.2014  0.1561
  246POSM   C2A 2880   0.445   7.318  11.305  0.3069 -0.2307  0.2136
  246POSM   C3A 2881   0.251   7.526  11.623  0.0806 -0.0781  0.0146
  246POSM   C1B 2882   0.331   7.028  10.709 -0.0100 -0.0257 -0.0999
  246POSM   D2B 2883   0.457   6.629  10.882 -0.1549  0.1592 -0.0448
  246POSM   C3B 2884   0.411   6.811  11.356 -0.4302 -0.4532  0.0829
  246POSM   C4B 2885   0.349   6.639  11.809  0.3480 -0.2898  0.0295
  247DOPE   NH3 2886   7.489   2.507  10.753  0.0219  0.0426  0.2297
  247DOPE   PO4 2887   7.407   2.703  10.482 -0.2552  0.1913 -0.1692
  247DOPE   GL1 2888   7.246   2.884  10.942 -0.0642  0.1294 -0.1145
  247DOPE   GL2 2889   7.390   3.036  11.176 -0.0425 -0.2062 -0.0724
  247DOPE   C1A 2890   6.881   2.975  11.232  0.1367  0.0884  0.0440
  247DOPE   D2A 2891   6.657   3.080  11.626 -0.1085  0.2227  0.1936
  247DOPE   C3A 2892   6.823   2.957  12.051 -0.2231  0.1275  0.0127
  247DOPE   C4A 2893   6.915   2.960  12.545  0.3184 -0.0574  0.1909
  247DOPE   C1B 2894   7.353   3.428  11.370  0.1328 -0.0650  0.0494
  247DOPE   D2B 2895   7.466   3.581  11.778  0.1208 -0.2968 -0.1149
  247DOPE   C3B 2896   7.275   3.282  12.101  0.1132  0.0404  0.0337
  247DOPE   C4B 2897   7.363   3.201  12.517 -0.0971 -0.1147 -0.1734
  248POSM   NC3 2898   0.228  10.388  10.463  0.2045 -0.0783 -0.0322
  248POSM   PO4 2899  -0.083  10.306  10.731 -0.0287  0.0121  0.0032
  248POSM   AM1 2900   0.048  10.358  11.070 -0.0689 -0.0947  0.2788
  248POSM   AM2 2901   0.293  10.256  11.193 -0.1583  0.3597 -0.3021
  248POSM   T1A 2902   0.049  10.608  11.483 -0.3340 -0.1219  0.0905
  248POSM   C2A 2903  -0.151  10.499  11.900 -0.0649 -0.1620 -0.0511
  248POSM   C3A 2904  -0.031  10.802  12.219  0.0439  0.0568 -0.0267
  248POSM   C1B 2905   0.281  10.128  11.521 -0.3200 -0.2113 -0.2912
  248POSM   D2B 2906   0.376   9.964  11.966 -0.0995  0.2022 -0.1244
  248POSM   C3B 2907   0.762   9.969  12.208  0.3515 -0.2416 -0.0316
  248POSM   C4B 2908   1.038   9.875  12.572 -0.2366  0.1119 -0.1099
  249POSM   NC3 2909   5.812   5.684  10.628 -0.0203 -0.3179 -0.1220
  249POSM   PO4 2910   5.515   5.436  10.609  0.3637  0.1206 -0.1447
  249POSM   AM1 2911   5.500   5.445  10.932 -0.0356 -0.0010 -0.0026
  249POSM   AM2 2912   5.393   5.627  11.171 -0.0571 -0.0489  0.4688
  249POSM   T1A 2913   5.629   5.250  11.384 -0.2163 -0.1227 -0.2599
  249POSM   C2A 2914   5.870   5.309  11.818 -0.0082  0.1296 -0.0376
  249POSM   C3A 2915   5.882   5.190  12.285 -0.1409 -0.2819  0.0694
  249POSM   C1B 2916   5.220   5.557  11.425 -0.1501 -0.3339  0.3201
  249POSM   D2B 2917   5.174   5.715  11.850  0.1917 -0.1794  0.1337
  249POSM   C3B 2918   4.778   5.990  11.939  0.1917 -0.0927  0.0781
  249POSM   C4B 2919   4.305   5.985  12.021  0.1965 -0.2907 -0.1931
  250POSM   NC3 2920   1.979   7.666   9.619 -0.2712  0.1525  0.1104
  250POSM   PO4 2921   1.687   7.791   9.821 -0.1581 -0.1048 -0.0399
  250POSM   AM1 2922   1.699   7.869  10.137  0.3727  0.1109  0.2789
  250POSM   AM2 2923   1.731   7.654  10.359  0.0516 -0.2186  0.1729
  250POSM   T1A 2924   1.600   8.169  10.528 -0.1368 -0.0230 -0.1110
  250POSM   C2A 2925   1.304   8.366  10.849 -0.0123 -0.1264 -0.3195
  250POSM   C3A 2926   1.042   8.738  11.002 -0.2250 -0.0629  0.1798
  250POSM   C1B 2927   1.740   7.654  10.721 -0.2414  0.0037  0.4260
  250POSM   D2B 2928   1.595   7.474  11.146 -0.1036 -0.1308  0.3427
  250POSM   C3B 2929   1.565   7.156  11.467 -0.0513 -0.1185 -0.0279
  250POSM   C4B 2930   1.581   6.856  11.846 -0.0852  0.1701  0.2266
  251DOPS   CNO 2931   9.875   2.992  10.227 -0.1547 -0.0247  0.1525
  251DOPS   PO4 2932  10.001   3.026  10.567  0.0794 -0.0965 -0.2244
  251DOPS   GL1 2933   9.819   3.093  10.947  0.1570 -0.0274 -0.1424
  251DOPS   GL2 2934   9.658   3.342  10.924  0.0077 -0.0437 -0.0415
  251DOPS   C1A 2935   9.597   3.131  11.376  0.0080  0.1189 -0.0774
  251DOPS   D2A 2936   9.449   3.169  11.849 -0.1879  0.2594 -0.1779
  251DOPS   C3A 2937   9.698   3.192  12.259 -0.0284 -0.2943  0.2543
  251DOPS   C4A 2938   9.554   3.204  12.700 -0.4298 -0.0610  0.1420
  251DOPS   C1B 2939   9.698   3.622  11.250  0.2062 -0.2641 -0.0388
  251DOPS   D2B 2940   9.685   3.858  11.585 -0.2302 -0.1127  0.0065
  251DOPS   C3B 2941   9.785   3.690  12.004  0.1242  0.2374  0.0200
  251DOPS   C4B 2942   9.593   3.690  12.401  0.2261 -0.0756  0.0210
  252POSM   NC3 2943   4.890  32.244   9.875  0.0959 -0.1437  0.0344
  252POSM   PO4 2944   5.222  32.032  10.053 -0.1724  0.0072  0.1067
  252POSM   AM1 2945   5.073  31.940  10.320  0.0806  0.0093 -0.0667
  252POSM   AM2 2946   5.084  31.813  10.576 -0.0361 -0.0009  0.4170
  252POSM   T1A 2947   4.721  32.118  10.634  0.0049  0.0152  0.0863
  252POSM   C2A 2948   4.331  32.329  10.751  0.3338 -0.2221  0.0783
  252POSM   C3A 2949   4.108  32.612  11.026  0.1350  0.0580 -0.1540
  252POSM   C1B 2950   5.369  31.869  10.668 -0.3422 -0.1650  0.1014
  252POSM   D2B 2951   5.784  32.081  10.806  0.3370 -0.2343 -0.1611
  252POSM   C3B 2952   5.787  32.460  11.002 -0.0323  0.1869 -0.0968
  252POSM   C4B 2953   5.881  32.671  11.391  0.3487 -0.0684  0.0060
  253DOPE   NH3 2954  11.683   3.443  10.201 -0.2259 -0.1494  0.0357
  253DOPE   PO4 2955  11.537   3.218  10.398 -0.2192 -0.3351  0.1093
  253DOPE   GL1 2956  11.506   3.168  10.721  0.3565 -0.0189  0.0817
  253DOPE   GL2 2957  11.260   3.264  10.850  0.1615 -0.1272 -0.1075
  253DOPE   C1A 2958  11.515   2.830  10.976 -0.1377 -0.0976 -0.1329
  253DOPE   D2A 2959  11.475   2.545  11.264  0.1260  0.1912 -0.4028
  253DOPE   C3A 2960  11.644   2.509  11.740 -0.3063 -0.1560  0.1458
  253DOPE   C4A 2961  11.615   2.608  12.206 -0.1830  0.1630  0.0851
  253DOPE   C1B 2962  11.573   3.296  11.161  0.3010  0.1218 -0.0280
  253DOPE   D2B 2963  11.731   3.454  11.576  0.3475 -0.1040  0.0664
  253DOPE   C3B 2964  11.837   3.117  11.957 -0.0333  0.1133 -0.3171
  253DOPE   C4B 2965  12.063   2.765  12.109 -0.1376  0.0980 -0.0254
  254DOPE   NH3 2966   9.483   9.365   9.812  0.0727  0.2736 -0.0296
  254DOPE   PO4 2967   9.241   9.489   9.939  0.2396  0.0479  0.0118
  254DOPE   GL1 2968   9.228   9.378  10.291  0.1267  0.1477  0.0324
  254DOPE   GL2 2969   9.126   9.107  10.245 -0.0631  0.2654 -0.1589
  254DOPE   C1A 2970   9.371   9.665  10.652 -0.0540 -0.2374 -0.2606
  254DOPE   D2A 2971   9.521  10.054  10.908 -0.1485  0.1380  0.0076
  254DOPE   C3A 2972   9.633  10.080  11.361 -0.0362 -0.1192 -0.0092
  254DOPE   C4A 2973   9.818  10.251  11.719 -0.1945 -0.0857 -0.0315
  254DOPE   C1B 2974   9.135   8.852  10.622 -0.0332  0.4359 -0.0928
  254DOPE   D2B 2975   9.458   8.629  10.830  0.0288  0.0179  0.1195
  254DOPE   C3B 2976   9.565   8.688  11.279 -0.0576  0.1416  0.2909
  254DOPE   C4B 2977   9.528   8.626  11.733 -0.2187  0.1431 -0.1398
  255DOPE   NH3 2978   6.221   5.052  10.444  0.2160  0.1907 -0.0550
  255DOPE   PO4 2979   6.207   5.360  10.599 -0.1660 -0.2256 -0.0480
  255DOPE   GL1 2980   6.213   5.518  10.903 -0.6181 -0.2572 -0.0006
  255DOPE   GL2 2981   5.946   5.348  11.014  0.0718 -0.0934 -0.0510
  255DOPE   C1A 2982   6.100   5.799  11.241 -0.1382 -0.0060 -0.0336
  255DOPE   D2A 2983   6.082   6.077  11.587  0.1648  0.0598 -0.1044
  255DOPE   C3A 2984   6.257   6.292  11.944  0.0984  0.1369  0.1574
  255DOPE   C4A 2985   6.723   6.469  12.008  0.1627 -0.0258 -0.0914
  255DOPE   C1B 2986   6.232   5.360  11.446  0.3626 -0.2052  0.1862
  255DOPE   D2B 2987   6.309   5.689  11.789  0.0489  0.1407  0.1961
  255DOPE   C3B 2988   6.103   5.745  12.155 -0.0934  0.1165  0.2251
  255DOPE   C4B 2989   5.951   5.595  12.582 -0.0446 -0.0955  0.2235
  256DOPE   NH3 2990   1.257   1.880  10.232 -0.0960  0.1483  0.2507
  256DOPE   PO4 2991   1.097   1.903  10.497  0.0317  0.0487  0.0169
  256DOPE   GL1 2992   1.142   1.972  10.861 -0.1877 -0.4424 -0.2390
  256DOPE   GL2 2993   1.202   2.224  10.966  0.3265 -0.0535  0.2005
  256DOPE   C1A 2994   1.014   1.788  11.296  0.2132 -0.0187  0.2282
  256DOPE   D2A 2995   0.874   1.545  11.760  0.1344 -0.1059 -0.1428
  256DOPE   C3A 2996   0.657   1.113  11.911  0.3211  0.0424 -0.0542
  256DOPE   C4A 2997   0.603   0.842  12.256  0.0096 -0.0427  0.0614
  256DOPE   C1B 2998   1.339   2.266  11.399 -0.0142 -0.2415  0.2068
  256DOPE   D2B 2999   1.424   2.338  11.844 -0.1245  0.0302 -0.1967
  256DOPE   C3B 3000   1.881   2.294  12.019 -0.1482  0.3411  0.2220
  256DOPE   C4B 3001   2.258   2.080  12.171 -0.1537  0.2543  0.0452
  257POSM   NC3 3002   5.385   2.905  10.683 -0.0689 -0.1417  0.2269
  257POSM   PO4 3003   5.420   2.540  10.539 -0.0513  0.1031  0.0486
  257POSM   AM1 3004   5.527   2.435  10.845  0.0515 -0.1010  0.0944
  257POSM   AM2 3005   5.752   2.358  10.997  0.0979  0.2390 -0.1545
  257POSM   T1A 3006   5.462   2.377  11.378 -0.1659  0.1522  0.2102
  257POSM   C2A 3007   5.315   2.270  11.797  0.0397  0.0223 -0.0819
  257POSM   C3A 3008   4.860   2.157  11.953 -0.2322 -0.0822  0.0917
  257POSM   C1B 3009   5.755   2.056  11.130  0.0587 -0.2887 -0.1540
  257POSM   D2B 3010   5.816   1.971  11.574  0.2704  0.0282  0.2824
  257POSM   C3B 3011   5.909   1.701  11.957 -0.0123 -0.2504 -0.2048
  257POSM   C4B 3012   5.697   1.414  12.206 -0.1731  0.0018 -0.1771
  258DOPC   NC3 3013   8.583  10.425  10.201 -0.1623  0.1183 -0.0598
  258DOPC   PO4 3014   8.213  10.251  10.350 -0.2614 -0.1650 -0.1469
  258DOPC   GL1 3015   8.171  10.602  10.514 -0.1034  0.0173 -0.2232
  258DOPC   GL2 3016   8.414  10.674  10.605 -0.2367  0.0320 -0.1090
  258DOPC   C1A 3017   7.955  10.758  10.923 -0.0384 -0.0642  0.3127
  258DOPC   D2A 3018   7.794  10.936  11.297  0.0779  0.0188  0.3607
  258DOPC   C3A 3019   7.441  10.679  11.426  0.0995  0.3874 -0.0418
  258DOPC   C4A 3020   7.088  10.543  11.577  0.0808  0.3144  0.0958
  258DOPC   C1B 3021   8.459  10.877  10.956 -0.1249 -0.0089  0.2135
  258DOPC   D2B 3022   8.521  11.072  11.373  0.1170 -0.1513 -0.1395
  258DOPC   C3B 3023   8.432  10.851  11.725  0.1285  0.0687 -0.2737
  258DOPC   C4B 3024   8.452  10.397  11.750 -0.2586 -0.0691  0.2139
  259DOPC   NC3 3025   3.200   9.655  10.009 -0.3423  0.1237 -0.1944
  259DOPC   PO4 3026   3.420   9.375   9.971 -0.0702  0.2430  0.0651
  259DOPC   GL1 3027   3.338   9.350  10.310  0.1576 -0.3420  0.0646
  259DOPC   GL2 3028   3.597   9.314  10.480 -0.3059  0.0529 -0.0913
  259DOPC   C1A 3029   3.258   9.491  10.783 -0.0749  0.0413 -0.0335
  259DOPC   D2A 3030   3.470   9.545  11.135  0.0530  0.2437  0.0015
  259DOPC   C3A 3031   3.882   9.300  11.166  0.0443 -0.3375  0.3007
  259DOPC   C4A 3032   4.185   9.268  11.534 -0.1978 -0.1895  0.1000
  259DOPC   C1B 3033   3.743   8.984  10.751  0.0173  0.0971 -0.1133
  259DOPC   D2B 3034   3.576   8.697  11.087  0.0443 -0.1070 -0.1678
  259DOPC   C3B 3035   3.811   8.536  11.485  0.0757 -0.0191  0.1340
  259DOPC   C4B 3036   3.918   8.310  11.891  0.1782  0.0495  0.0893
  260POSM   NC3 3037   3.107   5.208   9.935  0.1100  0.0151 -0.2379
  260POSM   PO4 3038   3.370   5.329  10.190  0.3685 -0.4129  0.0970
  260POSM   AM1 3039   3.108   5.337  10.466 -0.3050 -0.0972 -0.0263
  260POSM   AM2 3040   2.887   5.519  10.513  0.0130  0.2309 -0.1578
  260POSM   T1A 3041   2.841   5.072  10.813  0.0049  0.1179  0.2967
  260POSM   C2A 3042   2.584   4.840  11.172 -0.0385  0.2388 -0.2944
  260POSM   C3A 3043   2.375   4.705  11.631 -0.0444 -0.0655  0.0929
  260POSM   C1B 3044   2.893   5.690  10.795  0.5033  0.1949 -0.2706
  260POSM   D2B 3045   3.061   5.927  11.216 -0.0116 -0.3220 -0.0530
  260POSM   C3B 3046   2.801   6.232  11.369  0.0896 -0.1195  0.3696
  260POSM   C4B 3047   2.830   6.602  11.591 -0.2283 -0.0976  0.0770
  261POSM   NC3 3048  10.844   5.482  10.320 -0.2451 -0.2542 -0.0036
  261POSM   PO4 3049  11.196   5.662  10.137 -0.0966  0.1558 -0.1464
  261POSM   AM1 3050  11.256   5.741  10.446  0.0765 -0.0829  0.0567
  261POSM   AM2 3051  11.174   5.648  10.726 -0.0004  0.1421 -0.0415
  261POSM   T1A 3052  11.575   5.918  10.779  0.1707 -0.0244 -0.0202
  261POSM   C2A 3053  11.417   6.323  10.899 -0.0143 -0.0517  0.2672
  261POSM   C3A 3054  11.329   6.700  11.135 -0.2121 -0.1571 -0.4068
  261POSM   C1B 3055  11.205   5.344  10.851 -0.1999  0.1718  0.3260
  261POSM   D2B 3056  11.069   5.180  11.220  0.0182  0.2618 -0.3229
  261POSM   C3B 3057  11.221   5.348  11.599 -0.1258 -0.1569 -0.0031
  261POSM   C4B 3058  11.478   5.508  11.976  0.2030  0.0846 -0.1969
  262DOPS   CNO 3059   9.335   1.464  10.160 -0.1741  0.3673 -0.0308
  262DOPS   PO4 3060   9.137   1.326  10.454  0.3135  0.0986  0.0081
  262DOPS   GL1 3061   9.089   1.090  10.827  0.4617  0.0153  0.0603
  262DOPS   GL2 3062   8.828   1.181  10.983  0.1329 -0.1908 -0.0792
  262DOPS   C1A 3063   9.189   1.240  11.256  0.1715 -0.2256  0.1951
  262DOPS   D2A 3064   9.410   1.409  11.664 -0.1221  0.3079 -0.0030
  262DOPS   C3A 3065   9.200   1.438  12.095  0.1248 -0.5028  0.1329
  262DOPS   C4A 3066   9.256   1.732  12.466 -0.1440  0.1009 -0.0929
  262DOPS   C1B 3067   8.653   1.169  11.429  0.0005  0.0933  0.1333
  262DOPS   D2B 3068   8.387   1.100  11.772  0.0241 -0.1354 -0.1919
  262DOPS   C3B 3069   8.553   1.241  12.180  0.2068  0.2635 -0.0602
  262DOPS   C4B 3070   8.800   1.537  12.385  0.0067  0.2895  0.3050
  263DOPE   NH3 3071   9.688   6.591  10.167 -0.2085 -0.0658 -0.0431
  263DOPE   PO4 3072   9.629   6.380  10.362  0.1096  0.1580  0.1291
  263DOPE   GL1 3073   9.536   6.146  10.702 -0.2176 -0.1934  0.1513
  263DOPE   GL2 3074   9.566   6.311  10.927 -0.1780 -0.2293  0.0174
  263DOPE   C1A 3075   9.986   6.069  10.852 -0.3992  0.1778 -0.0286
  263DOPE   D2A 3076  10.014   6.378  11.245 -0.0260  0.0096  0.0559
  263DOPE   C3A 3077  10.363   6.602  11.431  0.1235  0.0401 -0.2256
  263DOPE   C4A 3078  10.320   6.694  11.922  0.1112 -0.3071 -0.0206
  263DOPE   C1B 3079   9.518   5.953  11.208 -0.6096  0.1606 -0.2448
  263DOPE   D2B 3080   9.533   5.823  11.632  0.2970 -0.1501 -0.0645
  263DOPE   C3B 3081   9.783   5.879  12.036 -0.0633  0.0281  0.1318
  263DOPE   C4B 3082   9.838   6.151  12.403 -0.2197  0.1884  0.2338
  264DOPC   NC3 3083   6.775   8.279  10.604  0.0577  0.0564  0.0522
  264DOPC   PO4 3084   6.988   7.940  10.588 -0.1043 -0.0995 -0.3076
  264DOPC   GL1 3085   7.006   7.660  10.985 -0.0429  0.0764  0.5004
  264DOPC   GL2 3086   6.883   7.396  11.002  0.1653 -0.0535 -0.2039
  264DOPC   C1A 3087   6.902   7.746  11.413 -0.1017 -0.1143  0.2034
  264DOPC   D2A 3088   7.112   7.903  11.833  0.2697  0.0545  0.3723
  264DOPC   C3A 3089   6.767   8.066  12.094 -0.1385  0.0123  0.0817
  264DOPC   C4A 3090   6.447   8.197  12.418  0.1691  0.1383 -0.1239
  264DOPC   C1B 3091   6.812   7.231  11.451 -0.0850  0.0687 -0.4906
  264DOPC   D2B 3092   6.819   6.992  11.807 -0.0433  0.2564 -0.0954
  264DOPC   C3B 3093   7.169   6.985  12.088 -0.2376 -0.0914  0.1571
  264DOPC   C4B 3094   7.497   7.024  12.337  0.1775  0.1142  0.1615
  265DOPC   NC3 3095   4.894   6.306  10.589  0.0476 -0.0358  0.0014
  265DOPC   PO4 3096   4.974   6.713  10.584  0.1196  0.0394  0.3018
  265DOPC   GL1 3097   4.872   6.730  10.898  0.1961  0.0690  0.1360
  265DOPC   GL2 3098   4.562   6.693  10.927  0.0047 -0.1452  0.0127
  265DOPC   C1A 3099   4.964   6.783  11.285  0.2943 -0.1019 -0.0937
  265DOPC   D2A 3100   5.137   6.952  11.698 -0.1385 -0.0023  0.1638
  265DOPC   C3A 3101   4.839   6.849  11.993 -0.2018 -0.0925 -0.2026
  265DOPC   C4A 3102   4.577   6.842  12.320  0.0725  0.1112 -0.2655
  265DOPC   C1B 3103   4.732   6.281  11.097 -0.0161  0.0641 -0.2919
  265DOPC   D2B 3104   4.943   6.049  11.438 -0.0101 -0.1313 -0.4223
  265DOPC   C3B 3105   5.188   6.213  11.770  0.2115 -0.3403 -0.1762
  265DOPC   C4B 3106   5.226   6.096  12.180 -0.0164  0.0417  0.2892
  266DOPC   NC3 3107   3.977  11.741  10.242  0.5504  0.0743 -0.1165
  266DOPC   PO4 3108   4.294  11.556  10.263  0.1818  0.0766  0.0077
  266DOPC   GL1 3109   4.223  11.612  10.668  0.1948 -0.1480  0.1947
  266DOPC   GL2 3110   3.960  11.451  10.670  0.2005  0.0890  0.0499
  266DOPC   C1A 3111   4.423  11.962  10.944 -0.0782 -0.1155  0.2693
  266DOPC   D2A 3112   4.311  11.954  11.386 -0.0885  0.3053  0.0063
  266DOPC   C3A 3113   3.861  11.844  11.505 -0.0088  0.3255 -0.2262
  266DOPC   C4A 3114   3.557  12.154  11.611  0.2971  0.2021  0.0797
  266DOPC   C1B 3115   3.976  11.017  10.882 -0.0650  0.1218  0.0943
  266DOPC   D2B 3116   3.939  10.778  11.291 -0.0528 -0.0370  0.4206
  266DOPC   C3B 3117   3.669  10.946  11.629 -0.4388 -0.0546  0.4480
  266DOPC   C4B 3118   3.494  10.929  12.083  0.1427 -0.0107  0.0173
  267DOPE   NH3 3119   4.127  33.689  10.410 -0.0140  0.2141 -0.0579
  267DOPE   PO4 3120   4.340  33.940  10.416 -0.1604  0.2612  0.1898
  267DOPE   GL1 3121   4.442  33.965  10.818  0.5352 -0.2374 -0.0088
  267DOPE   GL2 3122   4.222  34.104  10.987 -0.1338  0.1115  0.0621
  267DOPE   C1A 3123   4.540  33.847  11.300 -0.2801  0.0230 -0.0496
  267DOPE   D2A 3124   4.324  33.799  11.748  0.0581  0.1702  0.3913
  267DOPE   C3A 3125   4.236  33.394  12.023 -0.0804 -0.5034 -0.0810
  267DOPE   C4A 3126   4.540  33.148  12.181  0.2161 -0.0535 -0.0866
  267DOPE   C1B 3127   4.030  34.289  11.401  0.1508  0.0269 -0.1037
  267DOPE   D2B 3128   4.134  34.264  11.856 -0.1326  0.0686 -0.2882
  267DOPE   C3B 3129   3.873  34.346  12.304  0.2534  0.1182  0.0243
  267DOPE   C4B 3130   3.699  34.747  12.579 -0.0611 -0.1779  0.1206
  268DOPC   NC3 3131   9.516  10.988   9.694  0.2816 -0.1966  0.0949
  268DOPC   PO4 3132   9.103  10.977   9.755  0.1172  0.2192  0.1838
  268DOPC   GL1 3133   9.094  10.918  10.076 -0.1230  0.3400  0.3602
  268DOPC   GL2 3134   9.265  11.138  10.230  0.2962 -0.0815 -0.0928
  268DOPC   C1A 3135   9.057  10.718  10.467  0.0255  0.0367 -0.1976
  268DOPC   D2A 3136   8.851  10.459  10.800  0.2225  0.0265  0.3289
  268DOPC   C3A 3137   8.478  10.241  10.900 -0.0539  0.2132 -0.1347
  268DOPC   C4A 3138   8.223  10.082  11.183 -0.1857  0.0571 -0.0797
  268DOPC   C1B 3139   9.471  10.932  10.612 -0.3212  0.1630  0.2160
  268DOPC   D2B 3140   9.339  10.535  10.947  0.2012  0.0259 -0.1079
  268DOPC   C3B 3141   9.287  10.471  11.433 -0.0361 -0.0733  0.2198
  268DOPC   C4B 3142   9.175  10.177  11.650  0.1049 -0.1196 -0.0025
  269POSM   NC3 3143   6.693   3.372  10.434 -0.0401 -0.0240  0.2736
  269POSM   PO4 3144   6.478   3.697  10.481 -0.0956  0.0212  0.1287
  269POSM   AM1 3145   6.493   3.785  10.784  0.0246  0.1676 -0.0631
  269POSM   AM2 3146   6.379   3.789  11.033  0.0806 -0.0878 -0.3334
  269POSM   T1A 3147   6.860   3.940  11.065 -0.1412  0.1865  0.1899
  269POSM   C2A 3148   7.123   3.978  11.422 -0.0517 -0.1193  0.0927
  269POSM   C3A 3149   7.422   4.116  11.794 -0.1477  0.1328 -0.0019
  269POSM   C1B 3150   6.297   3.992  11.297 -0.0457  0.1023  0.2197
  269POSM   D2B 3151   5.951   4.310  11.458 -0.1542  0.3243  0.3351
  269POSM   C3B 3152   5.773   4.246  11.833 -0.0220 -0.3795 -0.0705
  269POSM   C4B 3153   5.874   4.326  12.314  0.2763  0.0281  0.2032
  270DOPS   CNO 3154   4.128  33.388   9.964 -0.0863  0.1740 -0.1038
  270DOPS   PO4 3155   4.346  33.264  10.255 -0.1301  0.2358  0.3419
  270DOPS   GL1 3156   4.169  33.152  10.540  0.2727  0.1371  0.0332
  270DOPS   GL2 3157   3.876  32.975  10.635 -0.2358  0.1652  0.2777
  270DOPS   C1A 3158   4.083  33.449  10.894  0.1818 -0.1125 -0.3198
  270DOPS   D2A 3159   4.056  33.727  11.309  0.0770  0.1818  0.1487
  270DOPS   C3A 3160   3.860  33.487  11.642  0.0701  0.0010  0.0312
  270DOPS   C4A 3161   3.798  33.064  11.865  0.1655  0.2638  0.2681
  270DOPS   C1B 3162   3.732  33.156  11.067  0.0574 -0.1748 -0.2457
  270DOPS   D2B 3163   3.552  33.566  11.233 -0.3341 -0.2327 -0.1398
  270DOPS   C3B 3164   3.614  33.897  11.631 -0.2318  0.0810  0.1628
  270DOPS   C4B 3165   3.604  34.272  11.919 -0.0431 -0.2518 -0.1818
  271DOPE   NH3 3166   4.270   6.707  10.248  0.2221 -0.3507 -0.0526
  271DOPE   PO4 3167   4.397   6.567  10.510 -0.0740  0.4207 -0.2195
  271DOPE   GL1 3168   4.116   6.790  10.736 -0.2389 -0.3994 -0.2693
  271DOPE   GL2 3169   3.836   6.655  10.723  0.2114 -0.0975 -0.0284
  271DOPE   C1A 3170   4.133   6.976  11.137 -0.3656  0.2184 -0.0304
  271DOPE   D2A 3171   4.259   7.166  11.544 -0.1290 -0.1096 -0.2638
  271DOPE   C3A 3172   4.539   7.234  11.894 -0.0588 -0.2003  0.0990
  271DOPE   C4A 3173   5.007   7.335  12.045 -0.0533  0.0510  0.0589
  271DOPE   C1B 3174   3.605   6.765  11.087  0.0861  0.1938  0.0444
  271DOPE   D2B 3175   3.457   6.520  11.481  0.0023  0.1247  0.3945
  271DOPE   C3B 3176   3.361   6.104  11.567 -0.0194 -0.0134  0.2812
  271DOPE   C4B 3177   3.039   5.903  11.747 -0.1549 -0.0661 -0.2226
  272POSM   NC3 3178   2.113   1.895  10.382 -0.0231  0.3781  0.1873
  272POSM   PO4 3179   1.744   1.985  10.271 -0.0103 -0.1982  0.2179
  272POSM   AM1 3180   1.665   1.851  10.566  0.0613  0.2348  0.1745
  272POSM   AM2 3181   1.594   2.000  10.771  0.1143 -0.1291 -0.0670
  272POSM   T1A 3182   1.401   1.557  10.953 -0.1054  0.0442  0.0397
  272POSM   C2A 3183   1.018   1.367  11.002 -0.0020 -0.1297  0.0428
  272POSM   C3A 3184   0.677   1.154  11.136  0.2621 -0.2142 -0.1823
  272POSM   C1B 3185   1.753   2.164  11.001 -0.1237  0.0318 -0.0989
  272POSM   D2B 3186   1.810   2.217  11.502  0.0150  0.2848  0.0486
  272POSM   C3B 3187   1.492   1.880  11.700 -0.0219  0.0593  0.1560
  272POSM   C4B 3188   1.294   1.559  12.014 -0.2651  0.0070 -0.0853
  273DOPC   NC3 3189   7.591   7.218  10.392 -0.0085  0.2014 -0.0512
  273DOPC   PO4 3190   7.963   7.315  10.473 -0.1518 -0.0781  0.1568
  273DOPC   GL1 3191   7.931   7.071  10.746  0.1568  0.0947 -0.3661
  273DOPC   GL2 3192   8.217   6.914  10.709  0.1542  0.3116 -0.1456
  273DOPC   C1A 3193   7.837   7.174  11.177  0.0028  0.0967  0.0881
  273DOPC   D2A 3194   7.641   7.303  11.604 -0.1192 -0.1403  0.3744
  273DOPC   C3A 3195   7.859   7.166  12.043  0.0556  0.1787  0.1411
  273DOPC   C4A 3196   7.967   6.872  12.407  0.1222 -0.1794  0.1132
  273DOPC   C1B 3197   8.258   6.784  11.179 -0.0281  0.0774 -0.0220
  273DOPC   D2B 3198   8.215   7.034  11.595  0.0612  0.0533  0.3201
  273DOPC   C3B 3199   8.114   6.754  11.907  0.3179 -0.2723  0.1291
  273DOPC   C4B 3200   8.267   6.453  12.248  0.1573  0.4007 -0.0309
  274DOPS   CNO 3201   1.445   3.218  10.705  0.2590 -0.1128 -0.0841
  274DOPS   PO4 3202   1.456   2.882  10.511  0.1188 -0.0407 -0.0799
  274DOPS   GL1 3203   1.452   2.672  10.827  0.2392 -0.4244 -0.0684
  274DOPS   GL2 3204   1.587   2.609  11.098  0.0268  0.1593  0.1457
  274DOPS   C1A 3205   1.122   2.802  11.162 -0.1558 -0.2080 -0.3774
  274DOPS   D2A 3206   0.847   3.015  11.488  0.1024 -0.0571  0.1344
  274DOPS   C3A 3207   0.893   3.112  11.998  0.0613  0.0630  0.0200
  274DOPS   C4A 3208   0.854   3.120  12.495 -0.1063  0.1626 -0.0188
  274DOPS   C1B 3209   1.635   2.953  11.401 -0.2573  0.0400 -0.1325
  274DOPS   D2B 3210   1.526   2.965  11.870 -0.1722 -0.2513 -0.0057
  274DOPS   C3B 3211   1.731   2.764  12.214 -0.0110  0.2785 -0.0209
  274DOPS   C4B 3212   2.098   2.648  12.464 -0.0561 -0.1595 -0.1823
  275DOPC   NC3 3213   2.015   4.546  10.737  0.0879 -0.2681  0.0485
  275DOPC   PO4 3214   2.291   4.289  10.669 -0.1782 -0.0605 -0.0423
  275DOPC   GL1 3215   2.421   4.301  11.018 -0.3294 -0.2850  0.2452
  275DOPC   GL2 3216   2.239   4.360  11.174 -0.1101  0.1111  0.1627
  275DOPC   C1A 3217   2.745   4.423  11.326  0.2523 -0.1619 -0.2885
  275DOPC   D2A 3218   2.789   4.330  11.730  0.0416  0.0379  0.1126
  275DOPC   C3A 3219   3.228   4.359  11.728  0.1504 -0.0578  0.2408
  275DOPC   C4A 3220   3.490   4.313  11.396  0.2756 -0.2485 -0.1504
  275DOPC   C1B 3221   2.076   4.287  11.617  0.2509 -0.0595  0.0035
  275DOPC   D2B 3222   2.164   4.373  12.096 -0.0052  0.1298 -0.2697
  275DOPC   C3B 3223   2.589   4.575  12.184 -0.0772 -0.1760  0.0762
  275DOPC   C4B 3224   3.047   4.637  12.162 -0.0333  0.1349 -0.1319
  276DOPC   NC3 3225   2.972   1.997  10.412 -0.2011 -0.0338  0.0362
  276DOPC   PO4 3226   3.328   1.832  10.320  0.0158 -0.1317 -0.0313
  276DOPC   GL1 3227   3.525   1.889  10.647 -0.1111 -0.0150  0.1018
  276DOPC   GL2 3228   3.714   2.050  10.639 -0.1063 -0.1164  0.0121
  276DOPC   C1A 3229   3.629   1.787  11.095 -0.2536  0.1809  0.0767
  276DOPC   D2A 3230   3.680   1.854  11.588  0.0139  0.2015  0.1362
  276DOPC   C3A 3231   3.440   1.531  11.778  0.0957 -0.0479 -0.0284
  276DOPC   C4A 3232   3.295   1.444  12.185  0.1053  0.0353 -0.3353
  276DOPC   C1B 3233   3.725   2.288  11.052  0.0425 -0.1306 -0.0667
  276DOPC   D2B 3234   3.752   2.584  11.397 -0.1653  0.2490 -0.0745
  276DOPC   C3B 3235   3.549   2.737  11.794 -0.2374 -0.0141  0.0032
  276DOPC   C4B 3236   3.300   2.723  12.191  0.0768 -0.3954  0.1192
  277DOPE   NH3 3237   5.982   2.933  10.459  0.1088 -0.1239  0.3240
  277DOPE   PO4 3238   5.935   2.627  10.517  0.1916  0.3651 -0.0569
  277DOPE   GL1 3239   5.839   2.784  10.863 -0.1168 -0.0110 -0.0074
  277DOPE   GL2 3240   5.922   3.048  10.896  0.0283 -0.2384 -0.2318
  277DOPE   C1A 3241   5.776   2.749  11.307  0.0540  0.0244  0.2093
  277DOPE   D2A 3242   5.786   2.476  11.714 -0.1009 -0.2027 -0.1374
  277DOPE   C3A 3243   5.998   2.698  12.027 -0.3053  0.1218 -0.2227
  277DOPE   C4A 3244   6.283   2.920  12.271 -0.1610 -0.0146 -0.4942
  277DOPE   C1B 3245   5.871   3.284  11.293 -0.1793  0.0992  0.3061
  277DOPE   D2B 3246   5.612   3.328  11.701  0.0956 -0.0544  0.1285
  277DOPE   C3B 3247   5.867   3.161  12.046 -0.1597  0.1982 -0.1419
  277DOPE   C4B 3248   5.983   3.313  12.471  0.2024  0.4400  0.0659
  278DOPC   NC3 3249   1.162   4.819  10.349 -0.0458 -0.1883 -0.1110
  278DOPC   PO4 3250   0.957   4.916  10.031  0.4220 -0.1262  0.1481
  278DOPC   GL1 3251   0.905   5.199  10.390  0.1397 -0.2884  0.0667
  278DOPC   GL2 3252   0.678   5.087  10.612 -0.2479  0.2245 -0.0967
  278DOPC   C1A 3253   1.146   5.320  10.791  0.0970  0.1489  0.0223
  278DOPC   D2A 3254   1.186   5.379  11.343  0.1961 -0.0700  0.2407
  278DOPC   C3A 3255   0.804   5.353  11.579 -0.1408 -0.0745  0.1190
  278DOPC   C4A 3256   0.713   5.512  11.969  0.1284 -0.0133  0.1122
  278DOPC   C1B 3257   0.525   5.243  10.974 -0.1032  0.0436 -0.0046
  278DOPC   D2B 3258   0.142   5.453  11.106  0.0685  0.3115  0.2043
  278DOPC   C3B 3259  -0.152   5.536  11.519 -0.2134  0.0233 -0.1648
  278DOPC   C4B 3260  -0.196   5.468  11.976 -0.3502  0.1200 -0.0609
  279DOPC   NC3 3261   5.730  10.772   9.672 -0.3638 -0.2580  0.0449
  279DOPC   PO4 3262   5.796  10.911  10.032 -0.0300 -0.0803  0.3826
  279DOPC   GL1 3263   5.967  10.788  10.315  0.1839 -0.0425 -0.2515
  279DOPC   GL2 3264   5.844  10.934  10.544  0.2176  0.0119 -0.1547
  279DOPC   C1A 3265   6.127  10.552  10.650 -0.1953  0.0716  0.1313
  279DOPC   D2A 3266   6.090  10.499  11.112  0.1026 -0.1594 -0.0761
  279DOPC   C3A 3267   6.275  10.418  11.537 -0.2860  0.0655 -0.3044
  279DOPC   C4A 3268   6.312  10.130  11.912  0.0093  0.0332  0.2308
  279DOPC   C1B 3269   6.040  10.970  10.969 -0.3174 -0.0054  0.0886
  279DOPC   D2B 3270   5.932  10.855  11.415 -0.0656  0.0728  0.0528
  279DOPC   C3B 3271   6.324  10.875  11.658  0.3157  0.0044  0.0226
  279DOPC   C4B 3272   6.588  10.585  11.957 -0.0074  0.3148 -0.1007
  280POSM   NC3 3273   4.490   8.873   9.516 -0.0546 -0.0063  0.0352
  280POSM   PO4 3274   4.800   8.710   9.763 -0.0745 -0.1389  0.1349
  280POSM   AM1 3275   4.825   8.594  10.053  0.3228 -0.3539 -0.0316
  280POSM   AM2 3276   4.705   8.453  10.294  0.0324  0.2617  0.0826
  280POSM   T1A 3277   5.060   8.635  10.508 -0.2355  0.1783 -0.0008
  280POSM   C2A 3278   5.193   8.488  10.873  0.1024  0.3514  0.1533
  280POSM   C3A 3279   5.128   8.582  11.288 -0.0703  0.0683  0.1127
  280POSM   C1B 3280   4.570   8.579  10.557 -0.0560 -0.4827 -0.1560
  280POSM   D2B 3281   4.292   8.926  10.828  0.0158  0.0648 -0.0687
  280POSM   C3B 3282   4.056   8.848  11.187  0.0173 -0.0429  0.2213
  280POSM   C4B 3283   3.716   9.025  11.514 -0.2980  0.1190 -0.2350
  281DOPE   NH3 3284   7.437   3.341  10.567  0.4249 -0.0784  0.1868
  281DOPE   PO4 3285   7.642   3.150  10.693  0.0053 -0.1232 -0.1827
  281DOPE   GL1 3286   7.939   3.107  11.001 -0.5031 -0.0417 -0.1344
  281DOPE   GL2 3287   7.783   3.347  11.138 -0.0302  0.0427  0.2203
  281DOPE   C1A 3288   8.228   3.236  11.390 -0.1983 -0.3153  0.2359
  281DOPE   D2A 3289   8.415   3.514  11.620 -0.0496  0.2614  0.1424
  281DOPE   C3A 3290   8.755   3.408  11.862  0.1309  0.0785  0.0155
  281DOPE   C4A 3291   8.995   3.174  12.061  0.1480 -0.4865  0.2019
  281DOPE   C1B 3292   7.789   3.278  11.579 -0.1281 -0.1497 -0.0665
  281DOPE   D2B 3293   7.773   3.234  12.013 -0.0176  0.0369 -0.1315
  281DOPE   C3B 3294   7.726   3.548  12.317  0.1316  0.2315  0.1716
  281DOPE   C4B 3295   7.459   3.807  12.624 -0.0923 -0.2050 -0.2925
  282DOPS   CNO 3296   5.545   3.350  10.119 -0.2500  0.0195  0.1469
  282DOPS   PO4 3297   5.691   3.351  10.476  0.0327  0.1620  0.0628
  282DOPS   GL1 3298   5.681   3.533  10.908 -0.0513 -0.1065 -0.0928
  282DOPS   GL2 3299   5.481   3.322  10.980 -0.0679  0.0445 -0.0052
  282DOPS   C1A 3300   5.396   3.719  11.244  0.1349 -0.2669 -0.0071
  282DOPS   D2A 3301   5.232   3.748  11.703  0.2327  0.1455 -0.0640
  282DOPS   C3A 3302   5.383   3.988  12.096  0.0191  0.0686 -0.0662
  282DOPS   C4A 3303   5.362   4.414  12.282 -0.1423 -0.0929  0.0719
  282DOPS   C1B 3304   5.138   3.290  11.324 -0.1541 -0.0050 -0.2494
  282DOPS   D2B 3305   5.100   3.225  11.814  0.0071  0.0626  0.1747
  282DOPS   C3B 3306   4.782   3.254  12.145  0.0772 -0.0704  0.1714
  282DOPS   C4B 3307   4.327   3.095  12.199 -0.0279 -0.0103  0.0170
  283DOPC   NC3 3308   5.804  12.552   9.980  0.0428  0.0756  0.4044
  283DOPC   PO4 3309   6.001  12.823   9.751  0.3561  0.1360 -0.0787
  283DOPC   GL1 3310   5.946  12.965  10.092 -0.2689  0.1034 -0.1930
  283DOPC   GL2 3311   5.639  13.025  10.102  0.0732 -0.0194 -0.1502
  283DOPC   C1A 3312   6.013  12.969  10.546 -0.3567 -0.2317 -0.1173
  283DOPC   D2A 3313   6.096  13.095  11.001  0.1242 -0.1755 -0.3061
  283DOPC   C3A 3314   6.044  13.496  11.295 -0.1371 -0.3314 -0.0281
  283DOPC   C4A 3315   6.012  13.871  11.518  0.1081 -0.3154  0.2414
  283DOPC   C1B 3316   5.507  13.419  10.406  0.1375 -0.0639  0.0202
  283DOPC   D2B 3317   5.217  13.544  10.695 -0.2483  0.2118  0.0662
  283DOPC   C3B 3318   5.232  13.901  10.930  0.1594  0.1063 -0.0283
  283DOPC   C4B 3319   5.316  14.053  11.364 -0.2100  0.3973  0.2923
  284DOPE   NH3 3320   2.160   2.870  10.328  0.0554  0.0919  0.0451
  284DOPE   PO4 3321   2.427   2.859  10.504  0.0967  0.1781 -0.1170
  284DOPE   GL1 3322   2.198   3.073  10.913 -0.6110 -0.0425  0.0529
  284DOPE   GL2 3323   2.039   2.795  10.891  0.1969  0.0963 -0.3087
  284DOPE   C1A 3324   2.160   3.068  11.394  0.2846  0.0717 -0.1832
  284DOPE   D2A 3325   2.015   3.138  11.764  0.0672 -0.1235 -0.2208
  284DOPE   C3A 3326   1.804   3.377  12.121  0.2741 -0.1419 -0.3400
  284DOPE   C4A 3327   1.824   3.858  12.231  0.0801  0.0641 -0.0398
  284DOPE   C1B 3328   2.070   2.606  11.302 -0.1319 -0.2813  0.0574
  284DOPE   D2B 3329   1.873   2.658  11.709 -0.1202 -0.2007 -0.0572
  284DOPE   C3B 3330   2.315   2.739  11.874  0.0722 -0.0968  0.0165
  284DOPE   C4B 3331   2.562   3.125  11.717 -0.3088 -0.0017  0.0317
  285DOPE   NH3 3332   6.737   5.151  10.410 -0.3436  0.1580  0.1615
  285DOPE   PO4 3333   6.680   4.909  10.590  0.1063 -0.2289 -0.0266
  285DOPE   GL1 3334   6.647   4.766  10.922 -0.2176 -0.0438 -0.0231
  285DOPE   GL2 3335   6.908   4.545  10.966  0.0606  0.1532 -0.0321
  285DOPE   C1A 3336   6.413   4.596  11.308 -0.0195  0.2808  0.0878
  285DOPE   D2A 3337   6.590   4.323  11.682 -0.0136  0.3918  0.2304
  285DOPE   C3A 3338   6.904   4.021  11.902 -0.2666 -0.2533 -0.2296
  285DOPE   C4A 3339   7.221   3.797  12.153  0.1734 -0.0174  0.0527
  285DOPE   C1B 3340   6.892   4.625  11.447  0.1378  0.1539 -0.0428
  285DOPE   D2B 3341   6.991   4.601  11.885 -0.3176  0.1864 -0.0128
  285DOPE   C3B 3342   6.609   4.570  12.135 -0.2431  0.0581  0.3322
  285DOPE   C4B 3343   6.208   4.732  12.251 -0.2216 -0.1794  0.0572
  286POSM   NC3 3344  10.798   7.235  10.109 -0.2268 -0.0133 -0.1225
  286POSM   PO4 3345  10.464   7.337  10.012 -0.2618 -0.0649  0.3901
  286POSM   AM1 3346  10.362   7.491  10.282  0.3348  0.1960  0.4981
  286POSM   AM2 3347  10.326   7.759  10.354 -0.1955 -0.1166 -0.0465
  286POSM   T1A 3348  10.078   7.395  10.664 -0.1030 -0.4144 -0.0320
  286POSM   C2A 3349   9.856   7.082  11.035  0.3363 -0.1978  0.2632
  286POSM   C3A 3350   9.591   6.739  11.151 -0.2146 -0.2912 -0.2201
  286POSM   C1B 3351  10.232   7.888  10.690 -0.0962 -0.0427 -0.2129
  286POSM   D2B 3352  10.269   8.028  11.153  0.3111  0.1296 -0.5217
  286POSM   C3B 3353  10.703   7.827  11.195  0.0057 -0.1848 -0.0681
  286POSM   C4B 3354  11.054   7.945  11.495  0.0664 -0.1641  0.1317
  287POSM   NC3 3355   6.226  10.801   9.854  0.2614 -0.3010 -0.0846
  287POSM   PO4 3356   6.558  10.621   9.913  0.2118  0.2359  0.1187
  287POSM   AM1 3357   6.598  10.733  10.183 -0.4204  0.1360 -0.0769
  287POSM   AM2 3358   6.489  10.919  10.385  0.1073  0.0249  0.1056
  287POSM   T1A 3359   6.790  10.683  10.691 -0.0328 -0.3285  0.3435
  287POSM   C2A 3360   6.976  10.377  11.047  0.3223  0.0369  0.1696
  287POSM   C3A 3361   6.887  10.097  11.431 -0.0294  0.0198  0.0595
  287POSM   C1B 3362   6.436  11.029  10.666 -0.1653  0.0504 -0.3446
  287POSM   D2B 3363   6.465  11.204  11.071  0.1947 -0.2159 -0.1160
  287POSM   C3B 3364   6.133  11.284  11.418 -0.0284  0.1282 -0.0130
  287POSM   C4B 3365   5.896  11.196  11.819  0.2421  0.0837  0.1946
  288DOPC   NC3 3366   3.546   4.613  10.039  0.0321 -0.2497  0.3591
  288DOPC   PO4 3367   3.874   4.451  10.158  0.0725  0.2006 -0.1329
  288DOPC   GL1 3368   3.737   4.646  10.551  0.0482 -0.1491 -0.1540
  288DOPC   GL2 3369   3.998   4.684  10.633 -0.1237  0.1876  0.0477
  288DOPC   C1A 3370   3.453   4.423  10.842 -0.0369  0.0541  0.0389
  288DOPC   D2A 3371   3.131   4.119  11.008  0.0026 -0.0799 -0.0168
  288DOPC   C3A 3372   3.043   3.999  11.428  0.3047 -0.0127 -0.0385
  288DOPC   C4A 3373   3.032   3.889  11.828  0.3129 -0.3930 -0.2005
  288DOPC   C1B 3374   3.991   4.325  10.877  0.1178 -0.2750 -0.4642
  288DOPC   D2B 3375   3.964   4.390  11.387  0.0317  0.3093 -0.0231
  288DOPC   C3B 3376   3.987   4.104  11.739  0.0816  0.1009 -0.0903
  288DOPC   C4B 3377   4.313   3.793  11.673  0.1669 -0.0551  0.0270
  289DOPC   NC3 3378   4.805  11.252  10.185  0.0849  0.0448  0.2106
  289DOPC   PO4 3379   4.739  11.566   9.890 -0.1146  0.0852  0.1018
  289DOPC   GL1 3380   4.716  11.670  10.311  0.0574 -0.3971  0.0208
  289DOPC   GL2 3381   4.696  11.492  10.593 -0.1987 -0.0910 -0.1880
  289DOPC   C1A 3382   4.946  11.942  10.654  0.1541  0.1648  0.0353
  289DOPC   D2A 3383   5.016  12.187  11.073 -0.1066  0.1562 -0.0561
  289DOPC   C3A 3384   5.300  12.225  11.453 -0.1988 -0.1697  0.0803
  289DOPC   C4A 3385   5.525  12.149  11.862  0.0621  0.2103 -0.0529
  289DOPC   C1B 3386   4.870  11.694  11.032  0.0090 -0.1644 -0.0894
  289DOPC   D2B 3387   4.774  11.915  11.444  0.3518  0.0879 -0.0224
  289DOPC   C3B 3388   4.846  12.209  11.765  0.0740 -0.1344 -0.0995
  289DOPC   C4B 3389   4.935  12.439  12.147  0.0321 -0.1165  0.5177
  290DOPC   NC3 3390   5.894   7.180  10.975 -0.1940  0.0285 -0.0596
  290DOPC   PO4 3391   5.710   7.429  10.779 -0.0027  0.1379 -0.0465
  290DOPC   GL1 3392   5.729   7.628  11.119 -0.1868  0.1262  0.1170
  290DOPC   GL2 3393   5.925   7.805  11.156  0.3251  0.1937 -0.1799
  290DOPC   C1A 3394   5.682   7.853  11.588 -0.0343  0.1413  0.0237
  290DOPC   D2A 3395   5.550   7.802  11.995  0.0904 -0.2116 -0.1830
  290DOPC   C3A 3396   5.766   7.954  12.397  0.0731 -0.2054  0.0273
  290DOPC   C4A 3397   5.934   8.335  12.601 -0.2564  0.1828 -0.2062
  290DOPC   C1B 3398   5.911   7.410  11.444  0.0486 -0.0306  0.1347
  290DOPC   D2B 3399   5.619   7.190  11.693  0.1728  0.3203  0.0993
  290DOPC   C3B 3400   5.466   7.145  12.065 -0.1844 -0.0136 -0.1901
  290DOPC   C4B 3401   5.339   7.300  12.507 -0.1350 -0.3240 -0.4772
  291POSM   NC3 3402   4.776   4.518  10.139  0.0358 -0.1909  0.1813
  291POSM   PO4 3403   4.767   4.124  10.151 -0.3483 -0.3450 -0.0644
  291POSM   AM1 3404   4.734   4.092  10.472 -0.1746  0.1432 -0.1502
  291POSM   AM2 3405   4.901   4.013  10.674  0.0877 -0.2017  0.2319
  291POSM   T1A 3406   4.411   4.113  10.831  0.1999  0.3072  0.0505
  291POSM   C2A 3407   4.126   3.924  11.132  0.2463  0.0762 -0.1542
  291POSM   C3A 3408   4.016   3.526  11.312  0.1554 -0.0243 -0.0928
  291POSM   C1B 3409   4.906   4.022  11.017 -0.3387  0.0600  0.3020
  291POSM   D2B 3410   4.894   4.073  11.464  0.0740 -0.0992  0.1530
  291POSM   C3B 3411   4.690   4.090  11.913  0.1013 -0.2175  0.0719
  291POSM   C4B 3412   4.822   4.022  12.362  0.0099 -0.2650  0.0221
  292DOPC   NC3 3413   3.927  10.847   9.924 -0.1926  0.0980  0.1910
  292DOPC   PO4 3414   4.207  10.652  10.093 -0.0711  0.2132 -0.0232
  292DOPC   GL1 3415   4.140  10.711  10.514  0.0487 -0.2029 -0.3849
  292DOPC   GL2 3416   4.449  10.513  10.513  0.0886  0.1952 -0.0359
  292DOPC   C1A 3417   3.838  10.490  10.825  0.2001 -0.0092  0.1353
  292DOPC   D2A 3418   3.928  10.243  11.209 -0.0412  0.4236  0.3529
  292DOPC   C3A 3419   4.031   9.806  11.190 -0.3054 -0.0855 -0.0746
  292DOPC   C4A 3420   4.395   9.509  11.141  0.0512 -0.1194 -0.0717
  292DOPC   C1B 3421   4.430  10.775  10.874 -0.2110 -0.0029  0.1163
  292DOPC   D2B 3422   4.408  10.929  11.324  0.0189 -0.2417  0.0659
  292DOPC   C3B 3423   4.373  10.978  11.803 -0.0142 -0.3079 -0.1294
  292DOPC   C4B 3424   4.463  11.278  12.168 -0.2196  0.1456  0.0361
  293POSM   NC3 3425  10.418   1.018  10.229  0.0392 -0.2068  0.2079
  293POSM   PO4 3426  10.462   0.673  10.354  0.2281  0.2148  0.3126
  293POSM   AM1 3427  10.616   0.630  10.673  0.2322 -0.0759 -0.0180
  293POSM   AM2 3428  10.762   0.753  10.821  0.1548 -0.1598 -0.3583
  293POSM   T1A 3429  10.543   0.249  10.994  0.0239  0.2811 -0.0900
  293POSM   C2A 3430  10.359  -0.206  11.052  0.0023 -0.1979  0.0250
  293POSM   C3A 3431  10.578  -0.581  11.034  0.0276 -0.0980 -0.0219
  293POSM   C1B 3432  10.826   0.678  11.118 -0.2318 -0.0481 -0.0600
  293POSM   D2B 3433  10.865   0.795  11.560 -0.2391 -0.0260  0.2659
  293POSM   C3B 3434  10.890   0.572  11.901 -0.0747  0.0871 -0.3505
  293POSM   C4B 3435  10.798   0.241  12.208 -0.0785  0.0380  0.1310
  294DOPS   CNO 3436   8.292   2.749  10.253  0.1248 -0.2618  0.0498
  294DOPS   PO4 3437   8.483   2.858  10.546  0.1787  0.0007  0.2851
  294DOPS   GL1 3438   8.435   3.070  10.906 -0.0685  0.0845  0.4552
  294DOPS   GL2 3439   8.357   2.799  11.018 -0.0718  0.3095  0.1167
  294DOPS   C1A 3440   8.755   3.029  11.219  0.0343  0.2536  0.1511
  294DOPS   D2A 3441   9.046   3.004  11.617  0.1804  0.1042 -0.1539
  294DOPS   C3A 3442   8.999   2.647  11.894 -0.3831 -0.0365 -0.0125
  294DOPS   C4A 3443   8.730   2.690  12.247 -0.0857  0.2227  0.0217
  294DOPS   C1B 3444   8.326   2.340  11.148 -0.0537  0.1437  0.0299
  294DOPS   D2B 3445   8.604   2.018  11.397  0.1837 -0.0777 -0.2109
  294DOPS   C3B 3446   8.768   2.189  11.783  0.1718 -0.2706  0.0314
  294DOPS   C4B 3447   8.684   2.099  12.242  0.1434 -0.0667 -0.2460
  295DOPC   NC3 3448   5.803   4.393  10.637  0.0121  0.0603  0.3049
  295DOPC   PO4 3449   5.746   4.147  10.362  0.0923  0.5804 -0.1469
  295DOPC   GL1 3450   5.638   3.885  10.616  0.1660  0.1879  0.2889
  295DOPC   GL2 3451   5.343   3.719  10.671  0.3565 -0.2359 -0.2470
  295DOPC   C1A 3452   5.856   3.876  11.076 -0.1933 -0.0442  0.0687
  295DOPC   D2A 3453   5.821   3.818  11.561  0.0612  0.3767  0.2432
  295DOPC   C3A 3454   5.826   3.733  11.981  0.1171 -0.1018 -0.0016
  295DOPC   C4A 3455   5.719   3.828  12.426 -0.0198 -0.2904 -0.2108
  295DOPC   C1B 3456   5.378   4.135  10.882 -0.0865 -0.1184  0.3659
  295DOPC   D2B 3457   5.188   4.495  11.055 -0.0569  0.0143  0.0903
  295DOPC   C3B 3458   5.008   4.638  11.441 -0.0392  0.0282  0.1796
  295DOPC   C4B 3459   5.022   5.069  11.634 -0.0934 -0.1058  0.3072
  296DOPS   CNO 3460  33.634  10.411  10.284  0.1680  0.2163 -0.1128
  296DOPS   PO4 3461  33.428  10.250  10.539 -0.2513 -0.2659 -0.1854
  296DOPS   GL1 3462  33.348  10.274  10.919  0.5124  0.6072 -0.4729
  296DOPS   GL2 3463  33.181  10.441  11.032  0.0510  0.2274  0.4118
  296DOPS   C1A 3464  33.154   9.963  11.225  0.1735  0.1024 -0.0070
  296DOPS   D2A 3465  33.274   9.568  11.403 -0.1919  0.2189  0.0481
  296DOPS   C3A 3466  33.435   9.522  11.796 -0.0490 -0.0991 -0.3416
  296DOPS   C4A 3467  33.544   9.159  12.066  0.0895 -0.1306 -0.1592
  296DOPS   C1B 3468  33.489  10.376  11.344 -0.1071 -0.0984 -0.2120
  296DOPS   D2B 3469  33.951  10.275  11.362 -0.1172  0.0985  0.1112
  296DOPS   C3B 3470  34.033  10.285  11.801 -0.0911 -0.0342  0.0621
  296DOPS   C4B 3471  34.131  10.165  12.249  0.1030  0.0277 -0.0821
  297DOPE   NH3 3472   4.606  12.585  10.062 -0.1262 -0.2432 -0.2438
  297DOPE   PO4 3473   4.368  12.357   9.962 -0.1129 -0.3014 -0.3306
  297DOPE   GL1 3474   4.303  12.289  10.355  0.2232 -0.1137  0.1437
  297DOPE   GL2 3475   4.394  12.016  10.406 -0.0178  0.0017  0.1165
  297DOPE   C1A 3476   4.620  12.497  10.669 -0.0473  0.2011  0.2543
  297DOPE   D2A 3477   4.830  12.821  10.879 -0.2101 -0.3094 -0.1480
  297DOPE   C3A 3478   5.234  13.072  10.977  0.1960 -0.1366  0.1452
  297DOPE   C4A 3479   5.604  13.357  10.973 -0.1457  0.1056  0.0498
  297DOPE   C1B 3480   4.061  12.173  10.714  0.2171 -0.2675  0.0972
  297DOPE   D2B 3481   3.807  12.063  11.031 -0.1603  0.3071 -0.0225
  297DOPE   C3B 3482   3.996  11.635  11.116  0.0513 -0.3213 -0.1829
  297DOPE   C4B 3483   4.392  11.395  11.082 -0.1886 -0.0060  0.0407
  298DOPE   NH3 3484   9.812  34.469  10.430  0.0734  0.2274 -0.0750
  298DOPE   PO4 3485   9.709  34.440  10.752  0.0478 -0.0997  0.1059
  298DOPE   GL1 3486   9.831  34.569  11.131  0.4254 -0.1901  0.2138
  298DOPE   GL2 3487   9.580  34.378  11.247  0.1975  0.0109  0.0624
  298DOPE   C1A 3488   9.671  34.810  11.531 -0.0799 -0.0731  0.1445
  298DOPE   D2A 3489   9.994  34.927  11.869  0.0748  0.0713  0.0456
  298DOPE   C3A 3490  10.337  34.751  12.148 -0.0149 -0.1407 -0.1051
  298DOPE   C4A 3491  10.500  34.846  12.577  0.3649  0.2036 -0.1811
  298DOPE   C1B 3492   9.528  34.297  11.685 -0.1576  0.0973  0.1770
  298DOPE   D2B 3493   9.595  34.502  12.104  0.0481 -0.1576  0.2528
  298DOPE   C3B 3494   9.811  34.145  12.306 -0.3479 -0.0519  0.0188
  298DOPE   C4B 3495   9.614  33.685  12.310  0.0637  0.1469 -0.1791
  299DOPE   NH3 3496   9.439   4.092  10.494 -0.0329 -0.1220 -0.3481
  299DOPE   PO4 3497   9.482   3.733  10.399  0.0554  0.2528 -0.2681
  299DOPE   GL1 3498   9.231   3.674  10.680  0.1178 -0.2064 -0.0259
  299DOPE   GL2 3499   9.085   3.402  10.774  0.1468 -0.1114  0.0557
  299DOPE   C1A 3500   9.224   3.813  11.132 -0.0495 -0.0381  0.0024
  299DOPE   D2A 3501   9.375   4.189  11.451  0.0530 -0.1151  0.0737
  299DOPE   C3A 3502   9.084   4.245  11.853  0.2063  0.0173 -0.1362
  299DOPE   C4A 3503   8.829   4.394  12.127  0.1862 -0.1060  0.1986
  299DOPE   C1B 3504   9.208   3.271  11.159  0.0510 -0.1527 -0.0764
  299DOPE   D2B 3505   9.275   3.505  11.520  0.0834 -0.0341 -0.0596
  299DOPE   C3B 3506   9.239   3.667  11.950 -0.0917  0.1662 -0.0896
  299DOPE   C4B 3507   9.113   3.914  12.341 -0.0859 -0.2081 -0.2449
  300DOPC   NC3 3508   4.495   1.647  10.304  0.0931 -0.1579  0.2889
  300DOPC   PO4 3509   4.598   2.052  10.321  0.0274  0.1858  0.1703
  300DOPC   GL1 3510   4.617   2.104  10.734  0.1486 -0.1405  0.1636
  300DOPC   GL2 3511   4.533   2.390  10.748  0.0613 -0.0232  0.0399
  300DOPC   C1A 3512   4.319   1.887  10.939  0.1797 -0.1263 -0.1499
  300DOPC   D2A 3513   4.076   1.800  11.331 -0.0656 -0.0156  0.1151
  300DOPC   C3A 3514   3.812   1.403  11.395 -0.2510 -0.1374  0.1830
  300DOPC   C4A 3515   3.558   1.046  11.544  0.0712  0.0230 -0.2344
  300DOPC   C1B 3516   4.192   2.485  11.112 -0.3003  0.1020  0.0776
  300DOPC   D2B 3517   4.137   2.272  11.434  0.1277  0.1201  0.2932
  300DOPC   C3B 3518   3.869   2.379  11.813 -0.2435 -0.1558  0.0562
  300DOPC   C4B 3519   3.824   2.579  12.211 -0.0260  0.0888 -0.0397
  301DOPS   CNO 3520  10.012   5.370  10.373 -0.0328 -0.0942 -0.4831
  301DOPS   PO4 3521  10.357   5.554  10.418  0.2977 -0.1224 -0.3590
  301DOPS   GL1 3522  10.507   5.494  10.792 -0.1091  0.1817  0.3297
  301DOPS   GL2 3523  10.743   5.521  10.958 -0.0330 -0.0967 -0.1348
  301DOPS   C1A 3524  10.365   5.757  11.107  0.1448 -0.2870  0.3359
  301DOPS   D2A 3525  10.034   5.839  11.434 -0.1038 -0.2021 -0.1591
  301DOPS   C3A 3526  10.140   6.198  11.739  0.2331 -0.0064 -0.0004
  301DOPS   C4A 3527   9.937   6.430  12.058 -0.2744 -0.1733  0.1384
  301DOPS   C1B 3528  10.779   5.593  11.392  0.1821 -0.0698  0.0405
  301DOPS   D2B 3529  10.656   5.766  11.796 -0.0228 -0.0360  0.0850
  301DOPS   C3B 3530  10.170   5.646  11.953 -0.0734  0.2038 -0.2070
  301DOPS   C4B 3531  10.117   5.653  12.403 -0.2330  0.0953 -0.0542
  302DOPS   CNO 3532   6.509  11.291   9.387 -0.0359  0.0091 -0.1771
  302DOPS   PO4 3533   6.572  11.254   9.748 -0.1971 -0.0453  0.1610
  302DOPS   GL1 3534   6.388  11.374  10.108 -0.0441 -0.0921  0.4055
  302DOPS   GL2 3535   6.118  11.243  10.191  0.3785  0.1033 -0.2454
  302DOPS   C1A 3536   6.678  11.444  10.466  0.0124  0.0476  0.2741
  302DOPS   D2A 3537   6.864  11.486  10.922 -0.2555 -0.0296  0.0068
  302DOPS   C3A 3538   7.315  11.590  11.091  0.1190  0.1123 -0.0755
  302DOPS   C4A 3539   7.760  11.605  11.164 -0.0323 -0.1007 -0.3822
  302DOPS   C1B 3540   6.161  11.481  10.632  0.2560 -0.1768 -0.1981
  302DOPS   D2B 3541   6.426  11.756  10.773 -0.0978 -0.0643  0.1423
  302DOPS   C3B 3542   6.530  11.732  11.247  0.2555 -0.0804 -0.0482
  302DOPS   C4B 3543   6.668  11.856  11.715  0.1379 -0.4964 -0.0624
  303DOPC   NC3 3544   8.308   9.586  10.181 -0.2065  0.0197  0.0720
  303DOPC   PO4 3545   8.332   9.184  10.242  0.1426  0.0148  0.0732
  303DOPC   GL1 3546   8.636   9.326  10.516 -0.1269  0.2456 -0.1955
  303DOPC   GL2 3547   8.818   9.558  10.412 -0.0529 -0.1893  0.4226
  303DOPC   C1A 3548   8.985   9.297  10.800 -0.3030 -0.0393 -0.0430
  303DOPC   D2A 3549   9.143   9.192  11.223  0.0301  0.0702 -0.1216
  303DOPC   C3A 3550   9.534   9.131  11.560 -0.2564 -0.0990  0.2385
  303DOPC   C4A 3551   9.711   9.304  11.923  0.2282 -0.3969  0.1296
  303DOPC   C1B 3552   9.001   9.999  10.655  0.0732  0.0079  0.3226
  303DOPC   D2B 3553   9.074  10.086  11.125  0.2313 -0.0659  0.3505
  303DOPC   C3B 3554   8.721  10.143  11.377  0.0175  0.1249 -0.2459
  303DOPC   C4B 3555   8.574   9.876  11.672  0.1382  0.1224 -0.1923
  304DOPS   CNO 3556   2.640   6.380   9.769 -0.1886 -0.0041  0.1691
  304DOPS   PO4 3557   2.431   6.365  10.061  0.1744 -0.2496 -0.2097
  304DOPS   GL1 3558   2.617   6.345  10.427 -0.2174  0.0408 -0.5511
  304DOPS   GL2 3559   2.672   6.608  10.543 -0.1963 -0.0957  0.2232
  304DOPS   C1A 3560   2.505   6.026  10.718 -0.1525  0.2032  0.1277
  304DOPS   D2A 3561   2.445   5.897  11.171  0.0117  0.1428 -0.3546
  304DOPS   C3A 3562   2.628   5.681  11.558  0.1721 -0.4904  0.0571
  304DOPS   C4A 3563   2.591   5.545  12.036  0.2311  0.2656 -0.0039
  304DOPS   C1B 3564   2.546   6.438  10.956  0.0188  0.2445  0.4289
  304DOPS   D2B 3565   2.287   6.554  11.344 -0.1394 -0.2849 -0.0298
  304DOPS   C3B 3566   2.411   6.341  11.719 -0.1719 -0.0902 -0.2265
  304DOPS   C4B 3567   2.575   6.030  11.953  0.2047 -0.2221 -0.0249
  305DOPS   CNO 3568   6.028   7.169  10.454  0.0764  0.1200 -0.1596
  305DOPS   PO4 3569   6.047   6.868  10.600 -0.2195  0.1791 -0.1234
  305DOPS   GL1 3570   5.985   6.666  10.928  0.0868  0.0054  0.2937
  305DOPS   GL2 3571   5.722   6.575  11.027  0.1356 -0.1955 -0.0818
  305DOPS   C1A 3572   5.983   6.729  11.415 -0.2059 -0.5049  0.0235
  305DOPS   D2A 3573   6.001   6.897  11.884  0.0085 -0.0620 -0.0527
  305DOPS   C3A 3574   5.840   6.810  12.274 -0.0750  0.1045 -0.2159
  305DOPS   C4A 3575   5.615   6.927  12.622 -0.1902 -0.0161 -0.1907
  305DOPS   C1B 3576   5.528   6.684  11.467 -0.0558  0.0764  0.3252
  305DOPS   D2B 3577   5.701   6.479  11.849 -0.0825 -0.2067 -0.0684
  305DOPS   C3B 3578   5.314   6.641  12.110 -0.3185  0.0797  0.0352
  305DOPS   C4B 3579   5.093   6.859  12.416  0.2118 -0.0153 -0.0658
  306DOPC   NC3 3580   0.442  10.617  10.880 -0.2534 -0.2157 -0.1013
  306DOPC   PO4 3581   0.715  10.356  10.695  0.2242 -0.2765 -0.0653
  306DOPC   GL1 3582   1.010  10.274  11.026  0.1403  0.1373  0.0406
  306DOPC   GL2 3583   0.761  10.319  11.220 -0.1047  0.0088  0.0809
  306DOPC   C1A 3584   1.140   9.949  11.366  0.1521 -0.2287  0.2670
  306DOPC   D2A 3585   1.178   9.909  11.848 -0.2689  0.0486 -0.0136
  306DOPC   C3A 3586   1.529   9.611  11.816 -0.1936 -0.1738 -0.4268
  306DOPC   C4A 3587   1.758   9.312  11.671 -0.3065 -0.0505  0.2454
  306DOPC   C1B 3588   0.557  10.592  11.491 -0.0144 -0.0152  0.3476
  306DOPC   D2B 3589   0.392  10.867  11.870 -0.0297 -0.0413 -0.0354
  306DOPC   C3B 3590   0.506  10.918  12.322  0.1961  0.0073 -0.0798
  306DOPC   C4B 3591   0.592  11.222  12.652 -0.1512 -0.1802  0.1396
  307DOPE   NH3 3592   9.337  32.767  10.177 -0.2936  0.0563  0.1344
  307DOPE   PO4 3593   9.038  32.623  10.178 -0.2246  0.1592 -0.1678
  307DOPE   GL1 3594   9.150  32.661  10.578  0.0070  0.0382  0.1073
  307DOPE   GL2 3595   9.136  32.519  10.846  0.0384 -0.3277  0.0568
  307DOPE   C1A 3596   9.595  32.763  10.758 -0.2504  0.0049  0.1211
  307DOPE   D2A 3597   9.848  32.597  11.129 -0.1805  0.0485 -0.0220
  307DOPE   C3A 3598   9.696  32.767  11.542  0.0121  0.2128 -0.1486
  307DOPE   C4A 3599   9.485  32.718  11.980  0.1738 -0.0864 -0.1447
  307DOPE   C1B 3600   9.211  32.353  11.261  0.3147  0.0540  0.1808
  307DOPE   D2B 3601   9.211  32.306  11.710  0.1219  0.1413 -0.4613
  307DOPE   C3B 3602   8.929  32.566  11.971  0.0732 -0.1015  0.2022
  307DOPE   C4B 3603   8.554  32.732  12.128  0.1240 -0.1304  0.1924
  308DOPE   NH3 3604  34.397  10.620  10.487 -0.0065 -0.0125 -0.4670
  308DOPE   PO4 3605  34.404  10.942  10.493 -0.2342  0.2531  0.0532
  308DOPE   GL1 3606  34.442  10.930  10.910 -0.1079  0.0125  0.2298
  308DOPE   GL2 3607  34.613  10.825  11.101  0.2519 -0.1330 -0.2898
  308DOPE   C1A 3608  34.356  11.190  11.289 -0.3621  0.1610  0.2584
  308DOPE   D2A 3609  34.122  11.216  11.653  0.1696  0.0476  0.0623
  308DOPE   C3A 3610  33.992  11.527  12.012  0.4433  0.1325  0.0280
  308DOPE   C4A 3611  33.657  11.529  12.283 -0.1352 -0.2641 -0.1343
  308DOPE   C1B 3612  34.325  10.703  11.516  0.1648  0.1505 -0.1342
  308DOPE   D2B 3613  34.127  10.759  11.978 -0.2092  0.2604  0.0189
  308DOPE   C3B 3614  34.160  11.061  12.324  0.2976  0.1614 -0.0252
  308DOPE   C4B 3615  34.098  11.439  12.606  0.1721  0.2677 -0.1933
  309POSM   NC3 3616   6.791   2.784  10.793  0.2634 -0.2828  0.2277
  309POSM   PO4 3617   6.989   3.034  10.563  0.0560 -0.4428 -0.0544
  309POSM   AM1 3618   7.029   3.296  10.777 -0.0452 -0.2747  0.1401
  309POSM   AM2 3619   6.909   3.432  10.978  0.3467  0.3286 -0.3807
  309POSM   T1A 3620   7.312   3.704  10.948 -0.1095 -0.2377  0.0970
  309POSM   C2A 3621   7.587   3.931  11.307 -0.0596 -0.1045  0.1938
  309POSM   C3A 3622   7.903   4.240  11.253 -0.2213 -0.3554 -0.1945
  309POSM   C1B 3623   6.826   3.468  11.287 -0.1162  0.1746 -0.1865
  309POSM   D2B 3624   6.967   3.519  11.756  0.1378 -0.1472 -0.0276
  309POSM   C3B 3625   6.794   3.626  12.186  0.2261 -0.2903  0.0944
  309POSM   C4B 3626   6.994   3.521  12.620  0.1753  0.2240 -0.0922
  310DOPS   CNO 3627   9.342  14.804   9.159 -0.1650 -0.0576  0.1246
  310DOPS   PO4 3628   9.709  14.772   9.113  0.1847 -0.0338  0.1796
  310DOPS   GL1 3629   9.958  14.927   9.452 -0.2411  0.3269 -0.0360
  310DOPS   GL2 3630  10.186  14.742   9.410  0.4735 -0.3924  0.0594
  310DOPS   C1A 3631   9.711  14.964   9.811 -0.2389  0.0317 -0.4025
  310DOPS   D2A 3632   9.505  14.993  10.237 -0.0297  0.1482  0.2098
  310DOPS   C3A 3633   9.072  14.845  10.325  0.0446 -0.1102 -0.0768
  310DOPS   C4A 3634   8.695  14.931  10.138 -0.0485 -0.0674  0.1449
  310DOPS   C1B 3635  10.218  14.901   9.847 -0.2702  0.1720  0.2489
  310DOPS   D2B 3636  10.023  15.188  10.170  0.1785 -0.0808 -0.2264
  310DOPS   C3B 3637  10.158  15.004  10.559 -0.1001 -0.1056  0.0092
  310DOPS   C4B 3638  10.099  14.776  10.956 -0.0532 -0.1042 -0.0367
  311DOPC   NC3 3639   7.034   1.988  10.656 -0.1098 -0.1163 -0.3477
  311DOPC   PO4 3640   6.949   2.391  10.614  0.1236  0.1103 -0.4774
  311DOPC   GL1 3641   7.067   2.419  10.931 -0.0903  0.0345 -0.0702
  311DOPC   GL2 3642   7.154   2.178  11.108  0.2200 -0.1995  0.1209
  311DOPC   C1A 3643   7.331   2.604  11.325  0.0190  0.1294 -0.2736
  311DOPC   D2A 3644   7.388   2.925  11.693  0.0970  0.0722 -0.0894
  311DOPC   C3A 3645   7.278   2.714  12.145 -0.1562 -0.0669  0.0966
  311DOPC   C4A 3646   7.462   2.636  12.565 -0.0762  0.1997  0.1708
  311DOPC   C1B 3647   7.151   2.192  11.595 -0.0437  0.0832 -0.1229
  311DOPC   D2B 3648   7.407   2.217  11.987  0.1394  0.0741  0.0579
  311DOPC   C3B 3649   7.570   1.842  12.216  0.1588  0.0873  0.0853
  311DOPC   C4B 3650   7.711   1.458  12.384  0.0649 -0.0359  0.0728
  312DOPE   NH3 3651   0.630   3.516  10.157 -0.0795  0.3406 -0.1944
  312DOPE   PO4 3652   0.411   3.371  10.321 -0.2986  0.0144  0.1769
  312DOPE   GL1 3653   0.296   3.431  10.671  0.0233  0.1628  0.1313
  312DOPE   GL2 3654   0.298   3.655  10.788  0.0956 -0.1388 -0.3185
  312DOPE   C1A 3655   0.565   3.116  10.965  0.2046 -0.0043  0.2564
  312DOPE   D2A 3656   0.501   2.711  11.173 -0.4127 -0.2328 -0.1037
  312DOPE   C3A 3657   0.492   2.717  11.601  0.1113  0.0010 -0.1652
  312DOPE   C4A 3658   0.481   2.849  11.985  0.0902 -0.0866  0.1381
  312DOPE   C1B 3659   0.118   3.744  11.225 -0.3147 -0.1890 -0.1380
  312DOPE   D2B 3660   0.170   3.600  11.670  0.0702  0.1742  0.2991
  312DOPE   C3B 3661  -0.043   3.563  12.061 -0.0354 -0.1314  0.1034
  312DOPE   C4B 3662  -0.057   3.628  12.488 -0.2252  0.4440  0.0521
  313DOPS   CNO 3663   6.496   2.571  10.434  0.0482 -0.1754 -0.0838
  313DOPS   PO4 3664   6.532   2.927  10.345  0.6048 -0.2255 -0.0135
  313DOPS   GL1 3665   6.363   2.982  10.697 -0.3842  0.1454  0.0803
  313DOPS   GL2 3666   6.283   2.751  10.922 -0.0594 -0.1892  0.0544
  313DOPS   C1A 3667   6.423   3.254  11.085 -0.0832  0.0215 -0.1000
  313DOPS   D2A 3668   6.324   3.497  11.446 -0.3831  0.0173  0.1652
  313DOPS   C3A 3669   6.461   3.789  11.696  0.1178 -0.0490  0.1669
  313DOPS   C4A 3670   6.226   4.075  11.988 -0.0361  0.1389  0.0269
  313DOPS   C1B 3671   6.328   2.787  11.375  0.2275 -0.1228 -0.1456
  313DOPS   D2B 3672   6.185   3.083  11.666  0.2395  0.0782 -0.1249
  313DOPS   C3B 3673   6.469   3.357  11.949  0.0316 -0.0162 -0.1487
  313DOPS   C4B 3674   6.309   3.664  12.313 -0.1407 -0.2622 -0.0284
  314DOPS   CNO 3675   8.097   9.434   9.781 -0.2003 -0.0999  0.1747
  314DOPS   PO4 3676   7.837   9.497  10.036  0.3479  0.1052 -0.0158
  314DOPS   GL1 3677   7.900   9.405  10.463  0.0259  0.2465 -0.0179
  314DOPS   GL2 3678   7.863   9.139  10.431 -0.1218  0.0688 -0.0663
  314DOPS   C1A 3679   7.687   9.611  10.852  0.2760 -0.0207 -0.1598
  314DOPS   D2A 3680   7.665   9.924  11.208  0.0189 -0.0609  0.0795
  314DOPS   C3A 3681   7.964   9.867  11.573  0.1308 -0.2287  0.0742
  314DOPS   C4A 3682   7.891   9.706  11.995  0.0053 -0.2416  0.0470
  314DOPS   C1B 3683   7.552   9.137  10.775 -0.0569 -0.2257 -0.2137
  314DOPS   D2B 3684   7.410   9.369  11.183 -0.0359  0.2320  0.0445
  314DOPS   C3B 3685   7.629   9.091  11.524  0.0682 -0.1266 -0.1256
  314DOPS   C4B 3686   7.867   9.138  11.984  0.1630  0.0070 -0.2246
  315DOPE   NH3 3687  33.758  10.457  10.877  0.2512 -0.0002 -0.0811
  315DOPE   PO4 3688  34.019  10.352  10.719  0.2785  0.0581  0.1002
  315DOPE   GL1 3689  33.888  10.020  11.032 -0.0873 -0.4523 -0.2516
  315DOPE   GL2 3690  33.610   9.966  11.111 -0.0610 -0.0311  0.1367
  315DOPE   C1A 3691  34.040   9.799  11.418 -0.2076 -0.1345 -0.1088
  315DOPE   D2A 3692  34.088   9.782  11.833  0.1586  0.1473 -0.0772
  315DOPE   C3A 3693  33.724   9.948  12.062  0.1321 -0.1591 -0.1164
  315DOPE   C4A 3694  33.334   9.742  12.262  0.2713  0.0762 -0.0906
  315DOPE   C1B 3695  33.548   9.954  11.556 -0.0407 -0.1516 -0.1139
  315DOPE   D2B 3696  33.205  10.196  11.803 -0.4788 -0.0246 -0.1762
  315DOPE   C3B 3697  33.223  10.275  12.261 -0.0294 -0.1738 -0.0533
  315DOPE   C4B 3698  33.108  10.218  12.680 -0.2692  0.2156 -0.1053
  316DOPE   NH3 3699   6.629   7.034  10.539  0.1646  0.0375  0.0315
  316DOPE   PO4 3700   6.742   6.839  10.400  0.0171  0.2861 -0.2551
  316DOPE   GL1 3701   6.924   6.757  10.677 -0.1711 -0.1298 -0.1983
  316DOPE   GL2 3702   6.947   6.888  10.958  0.0549  0.0983 -0.4006
  316DOPE   C1A 3703   7.024   6.370  10.915  0.0329  0.0458 -0.0687
  316DOPE   D2A 3704   6.921   6.067  11.204 -0.3530 -0.0495 -0.1359
  316DOPE   C3A 3705   7.202   6.045  11.524 -0.1974 -0.0092  0.2671
  316DOPE   C4A 3706   7.441   6.018  11.854  0.1780 -0.1597  0.2373
  316DOPE   C1B 3707   6.937   6.573  11.355  0.0855 -0.3065 -0.0154
  316DOPE   D2B 3708   7.202   6.455  11.750 -0.1150 -0.3278 -0.1284
  316DOPE   C3B 3709   7.280   6.474  12.147  0.0389  0.1565  0.2570
  316DOPE   C4B 3710   7.597   6.453  12.449  0.0761  0.1073 -0.3725
  317POSM   NC3 3711  10.122   0.499  10.695 -0.2874  0.0596  0.1014
  317POSM   PO4 3712   9.979   0.139  10.637 -0.1048 -0.0905  0.0767
  317POSM   AM1 3713   9.914   0.170  10.927 -0.0077 -0.2348 -0.1913
  317POSM   AM2 3714   9.798   0.363  11.131  0.1565  0.1486  0.1069
  317POSM   T1A 3715  10.174   0.133  11.374 -0.2311 -0.0761  0.0571
  317POSM   C2A 3716  10.474  -0.103  11.680 -0.1275  0.0753 -0.1500
  317POSM   C3A 3717  10.787  -0.289  11.909  0.0927  0.0269  0.0487
  317POSM   C1B 3718   9.834   0.494  11.466  0.0387  0.2347  0.3097
  317POSM   D2B 3719   9.807   0.600  11.927 -0.2317 -0.0434 -0.0354
  317POSM   C3B 3720   9.841   0.999  12.180 -0.3786 -0.0314  0.0487
  317POSM   C4B 3721  10.045   1.326  12.330  0.2622 -0.3028 -0.1118
  318DOPC   NC3 3722   9.078   6.328  10.545  0.0536 -0.0496  0.0631
  318DOPC   PO4 3723   9.101   5.897  10.573  0.0428  0.3269  0.0399
  318DOPC   GL1 3724   9.152   6.097  10.945  0.1623  0.4335  0.2963
  318DOPC   GL2 3725   9.048   5.842  11.095 -0.3481  0.1445  0.0293
  318DOPC   C1A 3726   9.140   6.170  11.428  0.1053  0.2307  0.2140
  318DOPC   D2A 3727   9.123   6.206  11.860  0.0424  0.0368  0.0594
  318DOPC   C3A 3728   8.902   5.969  12.184  0.3523 -0.1065  0.0258
  318DOPC   C4A 3729   8.689   5.659  12.443 -0.3089 -0.2272 -0.0750
  318DOPC   C1B 3730   8.633   5.937  11.218  0.2961  0.1198  0.1290
  318DOPC   D2B 3731   8.314   5.838  11.518 -0.0153  0.0381  0.1046
  318DOPC   C3B 3732   8.424   5.496  11.637  0.0274 -0.2257  0.0723
  318DOPC   C4B 3733   8.718   5.470  11.986  0.0552  0.1707  0.1241
  319DOPC   NC3 3734   6.456   4.302  10.917 -0.0741 -0.1427 -0.2125
  319DOPC   PO4 3735   6.334   4.543  10.620  0.0313 -0.2463 -0.0618
  319DOPC   GL1 3736   6.086   4.643  10.896 -0.1067  0.1263 -0.1036
  319DOPC   GL2 3737   6.188   4.878  10.960 -0.0176  0.2596 -0.0184
  319DOPC   C1A 3738   5.726   4.597  11.187 -0.0230 -0.0864 -0.0618
  319DOPC   D2A 3739   5.493   4.261  11.365 -0.0551 -0.3311 -0.1502
  319DOPC   C3A 3740   5.286   4.344  11.732 -0.2002 -0.1760  0.0087
  319DOPC   C4A 3741   5.143   4.712  11.950 -0.2218  0.1309 -0.0353
  319DOPC   C1B 3742   6.021   4.921  11.423  0.1097 -0.0343  0.1035
  319DOPC   D2B 3743   5.955   4.737  11.860  0.2572 -0.3705  0.1341
  319DOPC   C3B 3744   5.671   4.786  12.192 -0.0233 -0.0237  0.1866
  319DOPC   C4B 3745   5.281   4.931  12.405  0.2567  0.5131 -0.0853
  320DOPE   NH3 3746   5.251  12.179  10.072 -0.1217 -0.0159  0.0538
  320DOPE   PO4 3747   5.580  12.182  10.137 -0.1422  0.2557 -0.1212
  320DOPE   GL1 3748   5.579  12.242  10.530  0.2774 -0.0282 -0.0971
  320DOPE   GL2 3749   5.414  12.072  10.583  0.1171 -0.1371  0.0936
  320DOPE   C1A 3750   5.712  12.275  11.003  0.0602 -0.0411 -0.3479
  320DOPE   D2A 3751   5.776  12.187  11.465  0.5188 -0.2912 -0.0989
  320DOPE   C3A 3752   5.581  12.570  11.656  0.1220  0.0135 -0.2287
  320DOPE   C4A 3753   5.348  12.817  11.932 -0.2956 -0.0071  0.0241
  320DOPE   C1B 3754   5.428  11.899  11.020 -0.5594  0.1633  0.2930
  320DOPE   D2B 3755   5.251  11.732  11.395  0.0605 -0.0384  0.1663
  320DOPE   C3B 3756   4.987  11.684  11.808 -0.0712  0.1606 -0.0054
  320DOPE   C4B 3757   4.726  11.834  12.137 -0.1305  0.0080 -0.1844
  321POSM   NC3 3758   7.510  10.705   9.933 -0.1486 -0.1736 -0.0842
  321POSM   PO4 3759   7.768  10.772   9.662  0.2788 -0.1118  0.1102
  321POSM   AM1 3760   7.899  10.988   9.860  0.0689 -0.2647 -0.1826
  321POSM   AM2 3761   7.851  11.127  10.107 -0.1334  0.0324  0.2444
  321POSM   T1A 3762   8.317  11.032  10.180  0.2744 -0.0376  0.0148
  321POSM   C2A 3763   8.634  11.117  10.534  0.1673 -0.4856  0.0256
  321POSM   C3A 3764   8.903  10.944  10.881  0.1893 -0.1873  0.1737
  321POSM   C1B 3765   7.941  11.170  10.399  0.0535  0.1174  0.0273
  321POSM   D2B 3766   8.119  11.263  10.783  0.0091  0.1488  0.0628
  321POSM   C3B 3767   8.153  11.387  11.204  0.2647  0.0152  0.2497
  321POSM   C4B 3768   8.090  11.309  11.701 -0.3085  0.1400  0.0558
  322DOPE   NH3 3769   8.891   5.492  10.160 -0.0306  0.2135  0.4474
  322DOPE   PO4 3770   8.742   5.277  10.351 -0.3889  0.1897 -0.1240
  322DOPE   GL1 3771   8.434   5.270  10.661 -0.0610 -0.2944  0.3098
  322DOPE   GL2 3772   8.577   5.172  10.903 -0.0960  0.0549  0.0003
  322DOPE   C1A 3773   8.021   5.485  10.685  0.2523 -0.4036  0.0068
  322DOPE   D2A 3774   7.609   5.737  10.767 -0.2995  0.0046 -0.0077
  322DOPE   C3A 3775   7.485   6.057  11.068 -0.0353 -0.0017  0.2844
  322DOPE   C4A 3776   7.419   6.462  11.297  0.3712 -0.0731 -0.1389
  322DOPE   C1B 3777   8.337   5.414  11.121  0.1282  0.4119 -0.0423
  322DOPE   D2B 3778   7.970   5.642  11.189 -0.0046 -0.3727 -0.0067
  322DOPE   C3B 3779   7.861   5.614  11.640  0.1718  0.1009  0.1558
  322DOPE   C4B 3780   7.646   5.644  12.092 -0.0138  0.2991 -0.0991
  323DOPC   NC3 3781   7.528   6.470  10.045 -0.1025  0.3575 -0.1308
  323DOPC   PO4 3782   7.785   6.452  10.352 -0.1244 -0.1318 -0.0920
  323DOPC   GL1 3783   7.797   6.683  10.573  0.1422 -0.1454  0.0518
  323DOPC   GL2 3784   7.564   6.843  10.684 -0.2972 -0.1615  0.1396
  323DOPC   C1A 3785   7.819   6.659  11.033  0.0535  0.0015  0.2371
  323DOPC   D2A 3786   7.857   6.595  11.504  0.4277  0.1635  0.6105
  323DOPC   C3A 3787   8.257   6.359  11.645  0.2808 -0.0344 -0.1340
  323DOPC   C4A 3788   8.520   6.095  11.949  0.1225 -0.4420 -0.1958
  323DOPC   C1B 3789   7.399   6.977  11.091 -0.0086 -0.1972  0.0428
  323DOPC   D2B 3790   7.258   6.967  11.514  0.1042  0.0049 -0.3208
  323DOPC   C3B 3791   7.570   6.819  11.862 -0.0544  0.1043  0.0906
  323DOPC   C4B 3792   7.725   6.423  11.995 -0.1591  0.1772  0.2842
  324DOPS   CNO 3793   1.554   0.254  10.640  0.3215 -0.0394 -0.0671
  324DOPS   PO4 3794   1.834   0.423  10.399 -0.0533  0.0016  0.0922
  324DOPS   GL1 3795   1.825   0.412  10.951  0.1145 -0.1489 -0.2909
  324DOPS   GL2 3796   2.067   0.419  11.210  0.1507  0.1888 -0.1726
  324DOPS   C1A 3797   1.566   0.531  11.336  0.1721 -0.1269  0.2997
  324DOPS   D2A 3798   1.186   0.593  11.557 -0.0891 -0.1524 -0.2214
  324DOPS   C3A 3799   0.945   0.555  11.928 -0.1693  0.2978 -0.0056
  324DOPS   C4A 3800   0.636   0.317  12.117 -0.0820  0.0629  0.1052
  324DOPS   C1B 3801   1.957   0.804  11.434 -0.4961  0.2047 -0.2152
  324DOPS   D2B 3802   1.541   0.964  11.616  0.2737  0.1797 -0.4133
  324DOPS   C3B 3803   1.408   1.054  12.066 -0.3490  0.0599  0.0658
  324DOPS   C4B 3804   1.204   0.798  12.291  0.0164  0.1612  0.1054
  325DOPE   NH3 3805   4.863  10.489   9.924 -0.0050  0.1408 -0.1694
  325DOPE   PO4 3806   4.767  10.657  10.119  0.4562 -0.2998 -0.0067
  325DOPE   GL1 3807   4.829  10.835  10.458  0.1534 -0.3115 -0.2418
  325DOPE   GL2 3808   4.925  10.609  10.696  0.0064  0.3017  0.1077
  325DOPE   C1A 3809   4.841  11.091  10.869 -0.1837  0.2899  0.1152
  325DOPE   D2A 3810   4.820  11.285  11.313  0.0025  0.2890 -0.1842
  325DOPE   C3A 3811   4.617  11.432  11.627  0.1112  0.2516  0.1833
  325DOPE   C4A 3812   4.280  11.710  11.791  0.1824 -0.3599  0.1630
  325DOPE   C1B 3813   4.705  10.518  11.155 -0.2830 -0.1118  0.0662
  325DOPE   D2B 3814   4.694  10.540  11.659  0.0315 -0.1450 -0.1279
  325DOPE   C3B 3815   4.862  10.172  11.854  0.1808  0.0242  0.3309
  325DOPE   C4B 3816   4.871   9.737  12.012  0.1438  0.1064 -0.0411
  326DOPE   NH3 3817   5.755   6.419  10.550  0.2911  0.1945 -0.1664
  326DOPE   PO4 3818   5.444   6.434  10.563 -0.0773  0.1563  0.3095
  326DOPE   GL1 3819   5.278   6.536  10.944 -0.0519  0.0785 -0.1053
  326DOPE   GL2 3820   5.290   6.352  11.171 -0.0313  0.0302 -0.0966
  326DOPE   C1A 3821   5.386   6.956  11.031 -0.0266  0.0230 -0.0774
  326DOPE   D2A 3822   5.423   7.325  11.224 -0.1822 -0.3022  0.0713
  326DOPE   C3A 3823   5.209   7.678  11.147 -0.2664 -0.1345  0.0421
  326DOPE   C4A 3824   4.975   8.069  11.044  0.0651 -0.1451 -0.0100
  326DOPE   C1B 3825   5.564   6.163  11.445  0.0982  0.3742 -0.0031
  326DOPE   D2B 3826   5.662   5.753  11.588  0.1784  0.0622 -0.0901
  326DOPE   C3B 3827   5.655   5.645  12.063  0.1353 -0.5387 -0.0885
  326DOPE   C4B 3828   5.526   5.783  12.500 -0.1244  0.0942 -0.1847
  327DOPS   CNO 3829   9.010  12.196   9.072 -0.1759  0.1540 -0.2975
  327DOPS   PO4 3830   9.064  12.280   9.453 -0.0395  0.0076 -0.2693
  327DOPS   GL1 3831   8.863  12.380   9.776  0.0346 -0.0192 -0.2149
  327DOPS   GL2 3832   8.571  12.320   9.681 -0.1559 -0.2173  0.0116
  327DOPS   C1A 3833   8.728  12.067  10.114 -0.1008 -0.1700 -0.0059
  327DOPS   D2A 3834   8.848  11.685  10.340 -0.0047 -0.0672  0.5653
  327DOPS   C3A 3835   8.890  11.484  10.799  0.0871 -0.1402  0.0101
  327DOPS   C4A 3836   8.924  11.381  11.255  0.0217  0.0022  0.0965
  327DOPS   C1B 3837   8.390  12.506  10.048  0.0100 -0.0105 -0.0412
  327DOPS   D2B 3838   8.398  12.867  10.367  0.2943  0.0964  0.2329
  327DOPS   C3B 3839   8.806  12.944  10.547  0.2160  0.1651  0.2833
  327DOPS   C4B 3840   9.020  13.316  10.447 -0.1868  0.2796 -0.0272
  328DOPE   NH3 3841  10.832   3.338  10.368  0.2432  0.0442 -0.2603
  328DOPE   PO4 3842  11.107   3.477  10.399  0.2203 -0.0301 -0.2529
  328DOPE   GL1 3843  11.115   3.758  10.782 -0.0944  0.3198  0.3123
  328DOPE   GL2 3844  10.854   3.903  10.706 -0.1239  0.0554 -0.4313
  328DOPE   C1A 3845  11.091   3.551  11.245  0.1166 -0.1822  0.1421
  328DOPE   D2A 3846  11.224   3.617  11.643  0.1869  0.2749 -0.0858
  328DOPE   C3A 3847  11.292   3.235  11.908 -0.0017 -0.0660  0.1741
  328DOPE   C4A 3848  11.134   2.864  12.021 -0.2525  0.0420  0.1310
  328DOPE   C1B 3849  10.878   3.992  11.157 -0.0803 -0.2131  0.0575
  328DOPE   D2B 3850  10.593   4.020  11.544  0.0096 -0.2265 -0.1757
  328DOPE   C3B 3851  10.718   3.746  11.917 -0.1850  0.0714 -0.1167
  328DOPE   C4B 3852  10.438   3.663  12.262 -0.3266  0.2918 -0.1531
  329DOPS   CNO 3853   3.967   0.498  10.768  0.1207  0.0335  0.0622
  329DOPS   PO4 3854   3.571   0.522  10.731 -0.1677  0.1446 -0.1749
  329DOPS   GL1 3855   3.714   0.571  11.147  0.1911  0.4301  0.2270
  329DOPS   GL2 3856   3.486   0.762  11.164 -0.1468  0.1734 -0.2796
  329DOPS   C1A 3857   3.868   0.506  11.623 -0.2290  0.2817  0.1789
  329DOPS   D2A 3858   4.187   0.427  12.014  0.0775  0.0570  0.2265
  329DOPS   C3A 3859   4.538   0.357  12.269  0.0706 -0.1990  0.0595
  329DOPS   C4A 3860   4.999   0.306  12.172 -0.1842  0.4443 -0.4883
  329DOPS   C1B 3861   3.136   0.685  11.531  0.2417 -0.1421 -0.1439
  329DOPS   D2B 3862   2.949   0.338  11.830 -0.2324 -0.0606 -0.1001
  329DOPS   C3B 3863   2.593   0.389  12.167  0.1442  0.0580 -0.2809
  329DOPS   C4B 3864   2.127   0.514  12.237 -0.4087 -0.2493  0.2524
  330DOPS   CNO 3865  10.142  34.403   9.992 -0.0035 -0.1261 -0.0037
  330DOPS   PO4 3866  10.379  34.177  10.209  0.2382  0.1369  0.1862
  330DOPS   GL1 3867  10.172  33.934  10.448 -0.3155 -0.2655  0.2342
  330DOPS   GL2 3868  10.166  34.111  10.710  0.2301  0.1657 -0.1471
  330DOPS   C1A 3869  10.286  33.627  10.841  0.1005 -0.2319  0.1278
  330DOPS   D2A 3870   9.935  33.510  11.148  0.0839 -0.2626 -0.4412
  330DOPS   C3A 3871  10.022  33.448  11.578 -0.1882 -0.0484  0.0770
  330DOPS   C4A 3872   9.984  33.684  11.952 -0.1247  0.1481  0.0234
  330DOPS   C1B 3873  10.083  34.163  11.194 -0.1810 -0.0394  0.0097
  330DOPS   D2B 3874  10.071  34.384  11.626  0.1140  0.2239 -0.1018
  330DOPS   C3B 3875  10.339  34.246  12.047 -0.2457 -0.0691 -0.0571
  330DOPS   C4B 3876  10.615  34.364  12.386  0.1473 -0.1290  0.3927
  331DOPC   NC3 3877   3.777   1.385  10.482  0.1434  0.1666  0.0996
  331DOPC   PO4 3878   3.560   1.029  10.445  0.1229  0.1668 -0.1679
  331DOPC   GL1 3879   3.773   0.992  10.776  0.0571  0.1336 -0.0075
  331DOPC   GL2 3880   3.695   1.248  10.967  0.1479  0.3104 -0.0012
  331DOPC   C1A 3881   3.993   0.896  11.167 -0.3487 -0.3089  0.3264
  331DOPC   D2A 3882   4.117   1.008  11.625 -0.0104  0.1696  0.1955
  331DOPC   C3A 3883   3.833   0.918  11.963  0.1087  0.2831 -0.0888
  331DOPC   C4A 3884   3.585   1.114  12.335  0.0326 -0.0302  0.1863
  331DOPC   C1B 3885   3.347   1.415  11.237  0.1786  0.2187  0.0301
  331DOPC   D2B 3886   3.220   1.833  11.420  0.0071 -0.3864 -0.1602
  331DOPC   C3B 3887   3.071   1.880  11.844  0.2340 -0.2047 -0.2089
  331DOPC   C4B 3888   3.081   1.898  12.298  0.0696  0.0120  0.0199
  332DOPC   NC3 3889  12.763   6.802  10.117 -0.0080  0.3532  0.2182
  332DOPC   PO4 3890  12.574   6.721   9.834 -0.2653  0.2637 -0.1056
  332DOPC   GL1 3891  12.357   6.683  10.175  0.6153  0.2762 -0.1141
  332DOPC   GL2 3892  12.255   6.974  10.259  0.2869  0.0417 -0.1184
  332DOPC   C1A 3893  12.577   6.456  10.533  0.2071  0.1099  0.2043
  332DOPC   D2A 3894  12.916   6.046  10.565 -0.1565 -0.1345 -0.0784
  332DOPC   C3A 3895  13.047   6.061  11.030 -0.2293  0.0845  0.1450
  332DOPC   C4A 3896  13.276   5.931  11.410  0.0205  0.0489  0.2365
  332DOPC   C1B 3897  11.994   7.222  10.619 -0.1231  0.2472  0.0038
  332DOPC   D2B 3898  11.856   7.253  11.097  0.3066 -0.0186 -0.0741
  332DOPC   C3B 3899  11.992   7.449  11.495 -0.0979 -0.4573  0.0304
  332DOPC   C4B 3900  12.222   7.469  11.886 -0.2901 -0.1043 -0.5609
  333DOPE   NH3 3901   7.954   2.382  10.266  0.1626  0.0416  0.0471
  333DOPE   PO4 3902   7.882   2.139  10.487 -0.0207 -0.0310 -0.0133
  333DOPE   GL1 3903   7.984   2.194  10.840  0.3888  0.0092  0.1812
  333DOPE   GL2 3904   7.673   2.057  10.969  0.0003 -0.1366 -0.2394
  333DOPE   C1A 3905   7.870   2.489  11.190  0.0289 -0.0440  0.0516
  333DOPE   D2A 3906   7.973   2.774  11.511 -0.0244 -0.2815  0.0152
  333DOPE   C3A 3907   7.982   2.803  11.947 -0.5886  0.4819  0.2282
  333DOPE   C4A 3908   7.863   2.840  12.387 -0.0367 -0.0525 -0.4011
  333DOPE   C1B 3909   7.591   2.086  11.425  0.4420 -0.0796 -0.0488
  333DOPE   D2B 3910   7.719   2.434  11.712 -0.1812  0.0983  0.0993
  333DOPE   C3B 3911   7.792   2.426  12.171 -0.5662 -0.0100 -0.0871
  333DOPE   C4B 3912   8.190   2.334  12.409 -0.4328  0.3751  0.0956
  334DOPC   NC3 3913   8.387  12.252   9.141 -0.2144 -0.0544 -0.0982
  334DOPC   PO4 3914   8.189  11.951   9.230  0.3116  0.0921 -0.0189
  334DOPC   GL1 3915   8.284  11.825   9.583  0.2277  0.1274  0.1429
  334DOPC   GL2 3916   8.171  11.985   9.887  0.3246 -0.4308 -0.0392
  334DOPC   C1A 3917   8.484  11.641   9.964 -0.3941 -0.2673  0.4464
  334DOPC   D2A 3918   8.301  11.517  10.347 -0.0221  0.0163  0.0981
  334DOPC   C3A 3919   8.392  11.671  10.779 -0.1329  0.2074  0.0216
  334DOPC   C4A 3920   8.694  11.833  11.146  0.2362 -0.0026 -0.1704
  334DOPC   C1B 3921   8.300  12.014  10.344  0.1765 -0.2069 -0.1803
  334DOPC   D2B 3922   8.005  11.979  10.738 -0.2751 -0.3045  0.1129
  334DOPC   C3B 3923   7.883  12.372  11.063 -0.1822 -0.1531  0.0153
  334DOPC   C4B 3924   7.570  12.553  11.305 -0.0362 -0.1712 -0.0650
  335POSM   NC3 3925   4.959   3.535  10.901  0.2560 -0.3895  0.1256
  335POSM   PO4 3926   5.068   3.267  10.605  0.0460 -0.1457 -0.0074
  335POSM   AM1 3927   4.993   3.057  10.833 -0.1615  0.4513  0.0389
  335POSM   AM2 3928   4.806   2.875  10.941 -0.5044 -0.3026  0.2835
  335POSM   T1A 3929   5.262   2.824  11.156  0.3550  0.0276  0.2909
  335POSM   C2A 3930   5.428   2.844  11.624 -0.0918  0.0109  0.0116
  335POSM   C3A 3931   5.510   2.853  12.062  0.0639 -0.1871 -0.2446
  335POSM   C1B 3932   4.610   2.738  11.188  0.0045  0.2257 -0.4824
  335POSM   D2B 3933   4.686   2.432  11.576  0.3940 -0.4189 -0.0389
  335POSM   C3B 3934   4.399   2.398  11.941 -0.4445  0.2955  0.0646
  335POSM   C4B 3935   4.313   2.573  12.328 -0.0080  0.1034 -0.3072
  336DOPC   NC3 3936   3.568   8.581  10.514 -0.1407  0.1843 -0.0967
  336DOPC   PO4 3937   3.739   8.380  10.230 -0.0949 -0.1473 -0.0048
  336DOPC   GL1 3938   3.834   8.194  10.610 -0.0505  0.2780 -0.2895
  336DOPC   GL2 3939   3.556   8.084  10.585  0.0133 -0.1986 -0.2905
  336DOPC   C1A 3940   4.125   8.480  10.893 -0.2998  0.1202  0.3123
  336DOPC   D2A 3941   4.474   8.564  11.188  0.1199  0.2893 -0.0994
  336DOPC   C3A 3942   4.380   8.734  11.556  0.0396  0.0589 -0.1857
  336DOPC   C4A 3943   4.439   8.766  11.973  0.0607 -0.0171 -0.2067
  336DOPC   C1B 3944   3.271   8.261  10.923 -0.0880  0.1227  0.0369
  336DOPC   D2B 3945   3.243   8.101  11.415  0.1641  0.0255 -0.1561
  336DOPC   C3B 3946   3.352   8.357  11.831  0.2764  0.0066  0.1996
  336DOPC   C4B 3947   3.429   8.266  12.274 -0.3603 -0.0124 -0.0706
  337DOPC   NC3 3948   7.786  10.303  10.111  0.1053  0.4157  0.2485
  337DOPC   PO4 3949   7.426  10.281  10.237 -0.1442  0.0819  0.0112
  337DOPC   GL1 3950   7.307  10.374  10.639 -0.3590  0.3052  0.1638
  337DOPC   GL2 3951   7.261  10.096  10.707 -0.0135  0.1500  0.2025
  337DOPC   C1A 3952   7.572  10.385  11.044 -0.0246  0.0015  0.1272
  337DOPC   D2A 3953   7.814  10.367  11.398  0.0704  0.0204 -0.0043
  337DOPC   C3A 3954   8.225  10.571  11.348 -0.1202  0.1387 -0.0445
  337DOPC   C4A 3955   8.702  10.627  11.334  0.1084 -0.2195 -0.2285
  337DOPC   C1B 3956   7.247   9.801  11.060 -0.0601  0.0796 -0.1616
  337DOPC   D2B 3957   7.083   9.621  11.451 -0.1907 -0.0579  0.0908
  337DOPC   C3B 3958   7.400   9.479  11.791 -0.1516  0.2705 -0.1810
  337DOPC   C4B 3959   7.567   9.452  12.269 -0.1075  0.5057  0.1950
  338DOPE   NH3 3960   2.267   9.523  10.521  0.2365 -0.0951  0.2488
  338DOPE   PO4 3961   2.396   9.305  10.347  0.0417 -0.1383  0.1340
  338DOPE   GL1 3962   2.443   8.907  10.615  0.1706 -0.0766 -0.1871
  338DOPE   GL2 3963   2.170   8.909  10.783  0.0003 -0.0124  0.0362
  338DOPE   C1A 3964   2.630   8.843  11.018  0.0084 -0.1189 -0.0243
  338DOPE   D2A 3965   2.667   8.883  11.405 -0.1073 -0.2150 -0.0247
  338DOPE   C3A 3966   2.364   8.627  11.696  0.0924 -0.0604 -0.2555
  338DOPE   C4A 3967   1.964   8.396  11.741 -0.1608  0.0336 -0.0709
  338DOPE   C1B 3968   2.290   9.165  11.146 -0.0729 -0.0573 -0.2164
  338DOPE   D2B 3969   2.242   9.222  11.552  0.1653  0.0793  0.1425
  338DOPE   C3B 3970   2.128   8.987  11.955  0.1076  0.1238 -0.0963
  338DOPE   C4B 3971   2.084   8.967  12.397 -0.1810 -0.1887  0.0530
  339DOPE   NH3 3972   2.744  10.173  10.544  0.0935  0.0632 -0.0114
  339DOPE   PO4 3973   2.482   9.986  10.654 -0.1986  0.0509 -0.1568
  339DOPE   GL1 3974   2.407  10.186  11.008 -0.2490 -0.4326 -0.0104
  339DOPE   GL2 3975   2.474  10.456  11.021  0.3591 -0.0618  0.0469
  339DOPE   C1A 3976   2.595   9.983  11.364  0.0066 -0.1975 -0.1171
  339DOPE   D2A 3977   2.935   9.863  11.663  0.5632  0.3769  0.0236
  339DOPE   C3A 3978   2.797   9.685  12.141  0.0278  0.0503  0.0810
  339DOPE   C4A 3979   2.499   9.551  12.458 -0.2559  0.1477 -0.2361
  339DOPE   C1B 3980   2.509  10.505  11.502  0.0796 -0.2790  0.1283
  339DOPE   D2B 3981   2.470  10.207  11.856 -0.0409  0.1957 -0.0480
  339DOPE   C3B 3982   2.901  10.175  12.075  0.0241 -0.3417  0.1355
  339DOPE   C4B 3983   3.267   9.851  12.092  0.4115 -0.2668 -0.0357
  340DOPC   NC3 3984   2.854   4.070   9.860 -0.0671  0.2552  0.2689
  340DOPC   PO4 3985   3.084   4.180  10.170 -0.2081  0.0724 -0.0914
  340DOPC   GL1 3986   3.045   4.549  10.400  0.0836  0.1436  0.1470
  340DOPC   GL2 3987   3.116   4.825  10.297 -0.1214 -0.1428  0.2022
  340DOPC   C1A 3988   2.949   4.572  10.854  0.1530  0.1702  0.0472
  340DOPC   D2A 3989   3.152   4.690  11.220 -0.4983  0.3980  0.0676
  340DOPC   C3A 3990   2.950   4.855  11.613 -0.1061  0.0320 -0.1016
  340DOPC   C4A 3991   2.581   5.187  11.653  0.1358  0.1679 -0.1618
  340DOPC   C1B 3992   3.340   4.891  10.717  0.2078 -0.0409 -0.2234
  340DOPC   D2B 3993   3.320   5.208  11.090 -0.0841 -0.0101  0.0298
  340DOPC   C3B 3994   2.948   5.413  11.296 -0.1795 -0.0890 -0.1776
  340DOPC   C4B 3995   2.972   5.380  11.778  0.0291  0.0405 -0.0115
  341DOPE   NH3 3996   8.087   4.816  10.471  0.0616 -0.0825  0.1738
  341DOPE   PO4 3997   7.928   4.909  10.177 -0.3144  0.0949 -0.3346
  341DOPE   GL1 3998   7.733   5.072  10.571  0.1520 -0.1736  0.1725
  341DOPE   GL2 3999   7.603   4.854  10.750 -0.0774 -0.1276  0.2447
  341DOPE   C1A 4000   8.002   5.050  10.974  0.2919  0.2526  0.1527
  341DOPE   D2A 4001   7.931   5.194  11.431 -0.0733  0.1000  0.0185
  341DOPE   C3A 4002   7.594   5.209  11.764 -0.0594  0.0647  0.0012
  341DOPE   C4A 4003   7.523   5.064  12.156  0.2427  0.0105  0.1483
  341DOPE   C1B 4004   7.400   4.810  11.159 -0.1534 -0.2117  0.1987
  341DOPE   D2B 4005   7.429   4.566  11.566 -0.0400 -0.3556  0.1835
  341DOPE   C3B 4006   7.458   4.649  11.967 -0.3903 -0.2315 -0.0310
  341DOPE   C4B 4007   7.167   4.548  12.387 -0.0306  0.0515 -0.3478
  342DOPS   CNO 4008   5.835   9.914  10.229  0.0970 -0.1873  0.2372
  342DOPS   PO4 4009   6.128   9.740  10.325 -0.0544  0.1129 -0.2560
  342DOPS   GL1 4010   6.073   9.855  10.662  0.1745  0.1959 -0.1376
  342DOPS   GL2 4011   6.232  10.022  10.732  0.0096  0.4925  0.3212
  342DOPS   C1A 4012   5.828   9.880  11.032  0.2317  0.1498  0.1518
  342DOPS   D2A 4013   5.547   9.719  11.324  0.4243 -0.0528  0.0766
  342DOPS   C3A 4014   5.207   9.687  11.023 -0.0237 -0.1759 -0.0093
  342DOPS   C4A 4015   4.988   9.556  10.621 -0.4132  0.1949 -0.3588
  342DOPS   C1B 4016   6.513  10.368  10.914 -0.1372  0.3249  0.0790
  342DOPS   D2B 4017   6.635  10.711  11.184  0.0140  0.3998 -0.2426
  342DOPS   C3B 4018   6.813  10.967  11.546 -0.0084 -0.0308 -0.0942
  342DOPS   C4B 4019   6.958  11.396  11.421  0.1761 -0.2737 -0.0373
  343DOPC   NC3 4020   2.319  11.581  10.612  0.2873  0.2004 -0.0069
  343DOPC   PO4 4021   1.980  11.485  10.851 -0.2522  0.1230 -0.1473
  343DOPC   GL1 4022   2.084  11.577  11.211  0.2344 -0.2318 -0.2295
  343DOPC   GL2 4023   1.816  11.434  11.339 -0.0053 -0.3386 -0.2399
  343DOPC   C1A 4024   2.443  11.827  11.421 -0.2441  0.0610  0.2259
  343DOPC   D2A 4025   2.637  12.093  11.776 -0.2317  0.0956  0.0270
  343DOPC   C3A 4026   2.671  11.955  12.233 -0.1788 -0.1130  0.1223
  343DOPC   C4A 4027   2.858  12.145  12.635 -0.1973  0.1956  0.0796
  343DOPC   C1B 4028   1.939  11.768  11.658 -0.2348  0.1500  0.2353
  343DOPC   D2B 4029   2.157  12.045  11.933 -0.0526 -0.3021  0.0680
  343DOPC   C3B 4030   2.197  12.088  12.386 -0.2741  0.0135 -0.0707
  343DOPC   C4B 4031   2.204  11.892  12.854 -0.0436 -0.0065  0.0998
  344POSM   NC3 4032  10.253   6.134  10.299 -0.1900  0.0122  0.1384
  344POSM   PO4 4033  10.181   6.555  10.269 -0.1485  0.1393 -0.0624
  344POSM   AM1 4034  10.374   6.514  10.531  0.2248  0.3004 -0.0314
  344POSM   AM2 4035  10.474   6.766  10.761 -0.1014  0.4888  0.0420
  344POSM   T1A 4036  10.393   6.289  10.976 -0.3702  0.0815 -0.1318
  344POSM   C2A 4037  10.651   6.172  11.340 -0.0950  0.1496  0.0394
  344POSM   C3A 4038  10.659   6.303  11.783  0.2238  0.2432  0.2336
  344POSM   C1B 4039  10.290   6.928  11.010 -0.0968 -0.0380 -0.1506
  344POSM   D2B 4040  10.121   7.010  11.410 -0.0206  0.2074 -0.0616
  344POSM   C3B 4041   9.862   6.711  11.635  0.2887 -0.1657  0.1146
  344POSM   C4B 4042   9.572   6.313  11.675 -0.1455  0.0601  0.0111
  345DOPC   NC3 4043   2.499   8.043  10.238 -0.2029 -0.1772  0.0878
  345DOPC   PO4 4044   2.687   7.669  10.357  0.0627 -0.0510 -0.0837
  345DOPC   GL1 4045   2.645   8.009  10.738  0.1380  0.2502 -0.2649
  345DOPC   GL2 4046   2.464   7.873  10.782  0.1081  0.0935  0.0537
  345DOPC   C1A 4047   2.804   7.893  11.213 -0.1676  0.1033  0.0995
  345DOPC   D2A 4048   2.840   7.759  11.645  0.3836 -0.1643 -0.2628
  345DOPC   C3A 4049   3.212   7.835  11.926  0.3917 -0.2815 -0.0724
  345DOPC   C4A 4050   3.620   7.811  12.105 -0.0240 -0.0353 -0.2424
  345DOPC   C1B 4051   2.088   7.810  11.046  0.3633  0.1530  0.2402
  345DOPC   D2B 4052   1.964   7.634  11.442  0.2555  0.0525 -0.0412
  345DOPC   C3B 4053   1.674   7.903  11.674  0.1516  0.5175 -0.1510
  345DOPC   C4B 4054   1.371   8.176  11.782  0.0995  0.0520  0.1175
  346POSM   NC3 4055   4.028   9.832   9.474  0.2794 -0.2244 -0.0914
  346POSM   PO4 4056   4.263   9.788   9.800 -0.0149  0.1416 -0.1669
  346POSM   AM1 4057   4.240   9.736  10.107 -0.1569  0.0569 -0.0658
  346POSM   AM2 4058   4.107   9.817  10.308 -0.0512  0.1312 -0.1839
  346POSM   T1A 4059   4.484   9.606  10.537 -0.1946 -0.2199 -0.1191
  346POSM   C2A 4060   4.646   9.219  10.702 -0.4655  0.1878  0.3030
  346POSM   C3A 4061   4.812   8.824  10.906  0.2445  0.1731  0.0606
  346POSM   C1B 4062   4.206  10.040  10.534 -0.1075  0.1884 -0.3227
  346POSM   D2B 4063   4.358  10.282  10.915  0.3499  0.1456 -0.1365
  346POSM   C3B 4064   4.402  10.185  11.342 -0.1180 -0.1062  0.2447
  346POSM   C4B 4065   4.318  10.263  11.817  0.0701 -0.0378 -0.0072
  347DOPE   NH3 4066   5.144   7.183  10.415 -0.2693  0.2882 -0.2585
  347DOPE   PO4 4067   4.934   7.404  10.415  0.0500  0.0275 -0.3094
  347DOPE   GL1 4068   4.794   7.192  10.761 -0.0401 -0.0650  0.3377
  347DOPE   GL2 4069   4.991   7.316  10.900 -0.2128  0.1774  0.1287
  347DOPE   C1A 4070   4.605   7.168  11.177  0.1414 -0.0471 -0.0846
  347DOPE   D2A 4071   4.826   7.379  11.558  0.1325  0.0535 -0.1541
  347DOPE   C3A 4072   5.238   7.556  11.656  0.2301  0.2005 -0.2416
  347DOPE   C4A 4073   5.144   8.006  11.643  0.2068  0.0412 -0.2670
  347DOPE   C1B 4074   4.718   7.665  11.102  0.2211 -0.0891  0.2999
  347DOPE   D2B 4075   4.699   7.969  11.471 -0.0745 -0.3429  0.0922
  347DOPE   C3B 4076   4.784   8.410  11.655  0.0888 -0.2329 -0.0418
  347DOPE   C4B 4077   4.844   8.850  11.655  0.0119  0.0988 -0.3045
  348DOPE   NH3 4078   8.592   5.702  10.638  0.1920 -0.3275 -0.0160
  348DOPE   PO4 4079   8.576   5.850  10.407  0.2469 -0.2087  0.2605
  348DOPE   GL1 4080   8.408   6.225  10.571  0.0319  0.0380 -0.1337
  348DOPE   GL2 4081   8.090   6.239  10.667 -0.3347  0.0422 -0.1110
  348DOPE   C1A 4082   8.574   6.427  10.942 -0.2071 -0.1905  0.1188
  348DOPE   D2A 4083   8.680   6.425  11.374 -0.0592 -0.1385  0.1644
  348DOPE   C3A 4084   8.626   6.718  11.768 -0.2529  0.0380  0.1017
  348DOPE   C4A 4085   8.981   6.892  11.990  0.2230  0.1931 -0.4590
  348DOPE   C1B 4086   8.067   6.213  11.078  0.5761  0.0891  0.0903
  348DOPE   D2B 4087   7.856   6.082  11.445 -0.1393  0.1599 -0.0111
  348DOPE   C3B 4088   8.004   6.052  11.946 -0.2579  0.1214 -0.3226
  348DOPE   C4B 4089   7.955   6.072  12.360 -0.0001  0.0567  0.1046
  349DOPS   CNO 4090   3.675  33.618   9.942 -0.2673  0.2296 -0.0883
  349DOPS   PO4 4091   3.644  33.833  10.303 -0.3438 -0.2470 -0.1960
  349DOPS   GL1 4092   3.440  33.883  10.704 -0.0653 -0.1381  0.2506
  349DOPS   GL2 4093   3.587  33.655  10.796  0.0483 -0.1051  0.1352
  349DOPS   C1A 4094   3.143  33.978  11.038  0.0023 -0.0913  0.0977
  349DOPS   D2A 4095   2.707  34.112  11.076 -0.4197  0.0863  0.2194
  349DOPS   C3A 4096   2.555  34.130  11.561 -0.2989  0.2829  0.0330
  349DOPS   C4A 4097   2.492  33.921  11.975 -0.1299  0.3133  0.1884
  349DOPS   C1B 4098   3.664  34.028  11.075  0.2296  0.0515  0.0435
  349DOPS   D2B 4099   3.371  34.364  11.324  0.2084  0.1765 -0.0069
  349DOPS   C3B 4100   3.037  34.120  11.492  0.0915 -0.2329 -0.0131
  349DOPS   C4B 4101   2.900  33.778  11.793 -0.0339  0.0054 -0.3568
  350DOPE   NH3 4102   2.340   0.321  10.516 -0.0891  0.0450 -0.0211
  350DOPE   PO4 4103   2.148   0.200  10.724 -0.1281  0.0104 -0.1020
  350DOPE   GL1 4104   2.163  -0.063  10.996  0.4201 -0.3527  0.0157
  350DOPE   GL2 4105   1.890  -0.005  11.160  0.0906 -0.0721  0.1968
  350DOPE   C1A 4106   2.113  -0.539  11.172 -0.0591  0.0744 -0.3369
  350DOPE   D2A 4107   2.250  -0.950  11.326  0.1455  0.2026  0.1649
  350DOPE   C3A 4108   2.012  -1.242  11.648 -0.0335 -0.1211  0.3637
  350DOPE   C4A 4109   1.844  -1.623  11.761  0.0687  0.1545  0.3314
  350DOPE   C1B 4110   2.013   0.063  11.566  0.0499 -0.1364  0.1148
  350DOPE   D2B 4111   1.818   0.420  11.827 -0.3943 -0.2040  0.0114
  350DOPE   C3B 4112   1.438   0.377  12.094  0.2224 -0.0842 -0.2348
  350DOPE   C4B 4113   1.100   0.118  12.170  0.0327  0.2442 -0.0350
  351DOPE   NH3 4114  12.683   4.327  10.239 -0.1481  0.2644 -0.3014
  351DOPE   PO4 4115  12.714   4.626  10.106 -0.3926  0.0575  0.0580
  351DOPE   GL1 4116  12.651   4.976  10.298  0.0402 -0.1528  0.0367
  351DOPE   GL2 4117  12.465   4.992  10.494  0.3559 -0.2386  0.0941
  351DOPE   C1A 4118  12.865   5.314  10.462  0.3185 -0.2355  0.3430
  351DOPE   D2A 4119  13.216   5.541  10.570  0.1204 -0.2034  0.0090
  351DOPE   C3A 4120  13.393   5.628  10.968  0.0251  0.0514 -0.1765
  351DOPE   C4A 4121  13.734   5.606  11.339 -0.1288  0.0665 -0.1007
  351DOPE   C1B 4122  12.063   5.221  10.473  0.4609 -0.0576  0.0006
  351DOPE   D2B 4123  11.668   5.306  10.710  0.1847  0.2666  0.1443
  351DOPE   C3B 4124  11.615   5.523  11.055 -0.1350  0.1685 -0.5267
  351DOPE   C4B 4125  11.248   5.736  11.254 -0.2964 -0.1388 -0.3104
  352POSM   NC3 4126  11.803   8.551   9.474  0.3113 -0.1279  0.1826
  352POSM   PO4 4127  11.714   8.976   9.452 -0.0086 -0.3839 -0.2139
  352POSM   AM1 4128  11.554   8.875   9.737  0.0742  0.1182 -0.4876
  352POSM   AM2 4129  11.312   8.934   9.920 -0.1174 -0.1964 -0.2636
  352POSM   T1A 4130  11.593   8.583  10.166  0.0699 -0.1256 -0.0137
  352POSM   C2A 4131  11.958   8.382  10.457 -0.0190 -0.0536 -0.1007
  352POSM   C3A 4132  12.194   8.704  10.659 -0.0823  0.0317  0.1527
  352POSM   C1B 4133  11.312   9.096  10.214  0.0698 -0.2106 -0.0837
  352POSM   D2B 4134  11.300   9.424  10.595  0.1005  0.0488  0.2040
  352POSM   C3B 4135  11.366   9.564  11.054 -0.1263  0.1085 -0.1438
  352POSM   C4B 4136  11.130   9.942  11.173 -0.4155  0.2952 -0.1031
  353DOPC   NC3 4137  10.540   8.804   9.938  0.4263  0.0647  0.1123
  353DOPC   PO4 4138  10.868   8.711   9.705  0.1539 -0.0490 -0.3012
  353DOPC   GL1 4139  10.853   8.495  10.027 -0.0031  0.5849  0.1071
  353DOPC   GL2 4140  11.101   8.511  10.184 -0.1969  0.3265  0.1170
  353DOPC   C1A 4141  10.737   8.766  10.388  0.3953 -0.1129 -0.4389
  353DOPC   D2A 4142  10.462   8.792  10.700  0.1303 -0.1215  0.3444
  353DOPC   C3A 4143  10.542   8.446  11.006  0.3057 -0.2916  0.3718
  353DOPC   C4A 4144  10.611   8.354  11.486 -0.2989 -0.3275  0.3205
  353DOPC   C1B 4145  11.157   8.387  10.644 -0.1375  0.4177 -0.1561
  353DOPC   D2B 4146  11.197   8.338  11.051  0.3980 -0.1810  0.2511
  353DOPC   C3B 4147  11.326   8.712  11.317 -0.2431  0.2688  0.0505
  353DOPC   C4B 4148  11.334   9.186  11.449 -0.0900 -0.0208  0.2741
  354DOPC   NC3 4149   4.155  34.383  10.206  0.1168  0.1988  0.0125
  354DOPC   PO4 4150   4.075  34.765  10.272 -0.0863  0.0084 -0.1150
  354DOPC   GL1 4151   4.153  34.787  10.703  0.0075 -0.4721 -0.0276
  354DOPC   GL2 4152   3.952  34.546  10.842  0.1758  0.0534 -0.2546
  354DOPC   C1A 4153   4.395  34.650  11.075 -0.1341 -0.3751 -0.0013
  354DOPC   D2A 4154   4.643  34.553  11.462 -0.1513  0.1687  0.3185
  354DOPC   C3A 4155   4.656  34.278  11.765 -0.1416  0.3054  0.1303
  354DOPC   C4A 4156   4.821  33.817  11.782 -0.0962  0.1505  0.0500
  354DOPC   C1B 4157   3.897  34.776  11.198  0.0768 -0.3165 -0.2993
  354DOPC   D2B 4158   3.733  34.658  11.605  0.0675 -0.2009  0.0719
  354DOPC   C3B 4159   3.937  34.729  11.978  0.1303  0.3554 -0.1716
  354DOPC   C4B 4160   4.138  34.812  12.392  0.0395  0.1255  0.1350
  355DOPE   NH3 4161   1.703  32.784  10.265  0.0021  0.2209 -0.0742
  355DOPE   PO4 4162   1.662  33.048  10.428 -0.0891  0.1459  0.1655
  355DOPE   GL1 4163   1.780  32.903  10.793  0.2556 -0.2422 -0.2021
  355DOPE   GL2 4164   1.920  32.684  10.943 -0.0301 -0.1746  0.1114
  355DOPE   C1A 4165   1.740  33.173  11.161  0.0788 -0.0364  0.0728
  355DOPE   D2A 4166   1.505  33.591  11.114  0.1054  0.0457  0.1501
  355DOPE   C3A 4167   1.719  33.924  11.345  0.0999  0.0512  0.1585
  355DOPE   C4A 4168   1.805  34.345  11.582  0.0379  0.1278  0.1564
  355DOPE   C1B 4169   1.815  32.735  11.370  0.0868  0.1656  0.3286
  355DOPE   D2B 4170   1.816  32.420  11.730 -0.0315 -0.3049 -0.0149
  355DOPE   C3B 4171   1.933  32.336  12.156  0.0102 -0.0820 -0.1794
  355DOPE   C4B 4172   2.146  32.131  12.457 -0.3809  0.0560 -0.1405
  356DOPE   NH3 4173   8.877   4.617  10.767 -0.0423 -0.1048  0.1650
  356DOPE   PO4 4174   8.784   4.366  10.582 -0.3471  0.5710 -0.2797
  356DOPE   GL1 4175   8.686   4.273  10.972 -0.0687  0.1786  0.4728
  356DOPE   GL2 4176   8.733   4.038  10.979  0.1231 -0.0074  0.0551
  356DOPE   C1A 4177   8.703   4.453  11.375 -0.1620 -0.0165  0.0234
  356DOPE   D2A 4178   8.444   4.471  11.720  0.3792 -0.1149  0.0346
  356DOPE   C3A 4179   8.400   4.588  12.173 -0.2215  0.2101 -0.0977
  356DOPE   C4A 4180   8.578   4.501  12.589 -0.1200  0.0095 -0.1288
  356DOPE   C1B 4181   8.454   3.967  11.382  0.4991  0.1819  0.0730
  356DOPE   D2B 4182   8.124   4.122  11.642  0.0522 -0.1301  0.2524
  356DOPE   C3B 4183   7.969   4.133  12.055 -0.0448 -0.1390 -0.1802
  356DOPE   C4B 4184   7.939   4.008  12.501 -0.1604 -0.1247  0.0859
  357POSM   NC3 4185   3.212   0.665  10.395 -0.2525  0.2251  0.0548
  357POSM   PO4 4186   3.024   0.991  10.311  0.0171 -0.1929  0.2189
  357POSM   AM1 4187   3.075   1.075  10.628 -0.1676  0.3637 -0.0022
  357POSM   AM2 4188   3.184   0.930  10.838 -0.0792 -0.0782 -0.2084
  357POSM   T1A 4189   2.887   1.347  11.028  0.1254  0.2242  0.0961
  357POSM   C2A 4190   2.915   1.229  11.468  0.2878 -0.0351 -0.1333
  357POSM   C3A 4191   2.913   1.415  11.890  0.1128 -0.0856 -0.2478
  357POSM   C1B 4192   2.964   0.832  11.053 -0.1154  0.0922  0.0483
  357POSM   D2B 4193   2.616   0.775  11.339  0.0407 -0.1341  0.0233
  357POSM   C3B 4194   2.667   0.898  11.796 -0.0565 -0.1351 -0.2217
  357POSM   C4B 4195   3.007   0.809  12.122 -0.1749 -0.0954 -0.2594
  358POSM   NC3 4196   6.938   5.927  10.615  0.0246 -0.3585 -0.1373
  358POSM   PO4 4197   6.666   5.625  10.527 -0.0688  0.2621  0.0075
  358POSM   AM1 4198   6.698   5.542  10.839  0.3843  0.1486 -0.4190
  358POSM   AM2 4199   6.599   5.298  10.964  0.4149 -0.0879  0.0612
  358POSM   T1A 4200   6.639   5.652  11.360  0.1089  0.2813 -0.1881
  358POSM   C2A 4201   6.715   5.392  11.730 -0.0287 -0.1069  0.1616
  358POSM   C3A 4202   6.705   5.525  12.155 -0.1342 -0.0467  0.1241
  358POSM   C1B 4203   6.621   5.111  11.307 -0.0276  0.0525 -0.1803
  358POSM   D2B 4204   6.541   4.869  11.713  0.0547 -0.1038 -0.0773
  358POSM   C3B 4205   6.347   5.171  12.003  0.1727 -0.3356 -0.1608
  358POSM   C4B 4206   6.330   5.310  12.497  0.1174  0.0997 -0.0349
  359POSM   NC3 4207   1.535  11.353  10.845  0.0694 -0.0792 -0.1100
  359POSM   PO4 4208   1.419  11.020  10.709  0.0157 -0.0566  0.0048
  359POSM   AM1 4209   1.403  10.760  10.879  0.4515  0.0033 -0.0591
  359POSM   AM2 4210   1.481  10.518  11.016 -0.1052 -0.1567 -0.1081
  359POSM   T1A 4211   1.226  10.773  11.343 -0.1729  0.2354 -0.3125
  359POSM   C2A 4212   1.058  10.454  11.570 -0.2090  0.4000  0.1672
  359POSM   C3A 4213   0.759  10.119  11.678  0.2315  0.0955 -0.1135
  359POSM   C1B 4214   1.498  10.363  11.326  0.2003  0.1305 -0.0288
  359POSM   D2B 4215   1.497  10.432  11.777  0.2249  0.1876  0.1757
  359POSM   C3B 4216   1.095  10.387  12.087 -0.3085 -0.1900 -0.1527
  359POSM   C4B 4217   0.618  10.452  12.044 -0.0004  0.2656  0.4048
  360POSM   NC3 4218   8.746   2.426  10.356  0.1646 -0.0828  0.1156
  360POSM   PO4 4219   8.848   2.073  10.543  0.3602 -0.0097 -0.0699
  360POSM   AM1 4220   8.897   2.038  10.853 -0.2359 -0.0639 -0.0667
  360POSM   AM2 4221   9.033   2.109  11.072  0.1708 -0.0477 -0.1043
  360POSM   T1A 4222   8.899   1.659  11.198  0.0354 -0.3050  0.0674
  360POSM   C2A 4223   8.862   1.692  11.672  0.1623 -0.3379  0.0356
  360POSM   C3A 4224   8.583   1.714  11.999  0.1247  0.0358  0.1229
  360POSM   C1B 4225   9.142   2.090  11.402  0.2453  0.1466 -0.0484
  360POSM   D2B 4226   9.388   1.939  11.756 -0.1240 -0.0670 -0.1854
  360POSM   C3B 4227   9.184   2.197  12.038 -0.0194 -0.1524  0.1631
  360POSM   C4B 4228   9.080   2.391  12.472 -0.0467  0.0534 -0.0135
  361DOPC   NC3 4229   4.175   5.686  10.506  0.1299  0.2116 -0.0369
  361DOPC   PO4 4230   4.096   5.311  10.426 -0.1579  0.2116  0.1362
  361DOPC   GL1 4231   4.061   5.174  10.814 -0.1296 -0.4114 -0.1782
  361DOPC   GL2 4232   4.052   5.290  11.108 -0.3301 -0.2455 -0.0141
  361DOPC   C1A 4233   3.762   4.888  11.046  0.1376  0.0817 -0.1367
  361DOPC   D2A 4234   3.523   4.911  11.477 -0.0798  0.2001  0.0939
  361DOPC   C3A 4235   3.379   4.978  11.906  0.1856 -0.0412 -0.0140
  361DOPC   C4A 4236   3.414   5.101  12.379 -0.3610  0.0211  0.0111
  361DOPC   C1B 4237   4.383   5.257  11.455  0.2458 -0.0051 -0.1282
  361DOPC   D2B 4238   4.337   5.194  11.944 -0.3075  0.0282 -0.1058
  361DOPC   C3B 4239   3.926   5.032  11.993  0.1259 -0.2644  0.2097
  361DOPC   C4B 4240   3.737   4.742  12.324 -0.0849 -0.0706  0.1549
  362DOPC   NC3 4241   7.025  32.789  10.548  0.0862  0.1074  0.0193
  362DOPC   PO4 4242   6.732  32.497  10.425 -0.1409 -0.2175  0.4712
  362DOPC   GL1 4243   6.557  32.417  10.711 -0.2530  0.1284 -0.0116
  362DOPC   GL2 4244   6.457  32.187  10.777  0.1329  0.2145  0.3552
  362DOPC   C1A 4245   6.259  32.719  10.973  0.1932  0.0778 -0.0493
  362DOPC   D2A 4246   5.864  32.988  11.025  0.2471 -0.1780  0.2053
  362DOPC   C3A 4247   5.890  33.401  11.071  0.0140  0.2054 -0.0066
  362DOPC   C4A 4248   5.955  33.661  11.469  0.0803 -0.0563 -0.1135
  362DOPC   C1B 4249   6.173  32.110  11.118  0.2358 -0.0562  0.0682
  362DOPC   D2B 4250   5.796  32.160  11.405 -0.1426  0.1561 -0.3661
  362DOPC   C3B 4251   5.913  32.377  11.814 -0.0443  0.1633  0.0834
  362DOPC   C4B 4252   5.835  32.747  12.075 -0.1105 -0.2539 -0.0237
  363DOPE   NH3 4253   9.249   7.579  10.511 -0.1221  0.2240  0.2138
  363DOPE   PO4 4254   9.389   7.286  10.470 -0.1382 -0.1414 -0.1825
  363DOPE   GL1 4255   9.453   7.302  10.838 -0.1581  0.0297  0.0646
  363DOPE   GL2 4256   9.269   7.107  10.979  0.1151 -0.1304 -0.0993
  363DOPE   C1A 4257   9.378   7.620  11.177  0.1212 -0.0354  0.1197
  363DOPE   D2A 4258   9.472   7.888  11.522 -0.2935 -0.0596  0.2624
  363DOPE   C3A 4259   9.867   7.755  11.454 -0.0277  0.0924 -0.0022
  363DOPE   C4A 4260  10.195   7.484  11.312  0.1720 -0.0473  0.1369
  363DOPE   C1B 4261   9.396   7.140  11.439 -0.1330  0.0764 -0.3370
  363DOPE   D2B 4262   9.793   7.221  11.764 -0.0059 -0.5238 -0.3418
  363DOPE   C3B 4263   9.884   6.932  12.169  0.1725  0.0756  0.1456
  363DOPE   C4B 4264  10.057   6.907  12.522  0.0249 -0.0270  0.0344
  364DOPC   NC3 4265  10.717   6.707  10.312 -0.2473  0.4118 -0.1095
  364DOPC   PO4 4266  10.705   6.334  10.263 -0.1392  0.1758 -0.1336
  364DOPC   GL1 4267  10.825   6.340  10.653 -0.1603 -0.2767 -0.2700
  364DOPC   GL2 4268  10.962   6.525  10.675  0.0163  0.0497 -0.2948
  364DOPC   C1A 4269  10.979   6.080  10.974 -0.0896  0.1337  0.1325
  364DOPC   D2A 4270  11.192   6.279  11.404 -0.0364  0.2944 -0.1024
  364DOPC   C3A 4271  11.065   5.982  11.660  0.2991  0.1096 -0.2444
  364DOPC   C4A 4272  11.049   5.661  12.032 -0.1660 -0.2410 -0.0521
  364DOPC   C1B 4273  10.780   6.539  11.079  0.0962 -0.3802 -0.3126
  364DOPC   D2B 4274  10.846   6.771  11.484 -0.2298  0.0655  0.3024
  364DOPC   C3B 4275  11.161   6.637  11.832  0.1673  0.1127  0.2603
  364DOPC   C4B 4276  11.310   6.488  12.270 -0.1092  0.0749  0.0020
  365DOPC   NC3 4277   9.826   7.413  10.270 -0.0065 -0.4222 -0.1280
  365DOPC   PO4 4278   9.661   7.759  10.221 -0.1216 -0.3234 -0.1684
  365DOPC   GL1 4279   9.745   7.849  10.561 -0.0247 -0.0211  0.3180
  365DOPC   GL2 4280   9.699   7.663  10.729  0.0610  0.2312  0.0800
  365DOPC   C1A 4281   9.901   8.271  10.668 -0.1289 -0.0852 -0.2768
  365DOPC   D2A 4282  10.089   8.566  11.013  0.3446  0.1575  0.2302
  365DOPC   C3A 4283   9.985   8.697  11.464 -0.0285  0.0445 -0.0019
  365DOPC   C4A 4284   9.956   8.830  11.899  0.2563  0.1248 -0.0324
  365DOPC   C1B 4285   9.769   8.008  11.033  0.2057  0.2018  0.1358
  365DOPC   D2B 4286   9.798   8.247  11.508 -0.3452  0.0579 -0.0983
  365DOPC   C3B 4287  10.221   8.116  11.722  0.0759  0.1214 -0.0965
  365DOPC   C4B 4288  10.626   8.077  11.959  0.0808 -0.2304  0.0592
  366DOPS   CNO 4289   7.581  12.684   9.575 -0.2526  0.0363  0.0708
  366DOPS   PO4 4290   7.415  12.470   9.869 -0.1636  0.0809  0.0370
  366DOPS   GL1 4291   7.750  12.519  10.072 -0.1545 -0.2162  0.0050
  366DOPS   GL2 4292   7.601  12.504  10.390 -0.2118  0.1605 -0.2330
  366DOPS   C1A 4293   8.059  12.430  10.423  0.1734  0.0929 -0.0886
  366DOPS   D2A 4294   8.309  12.596  10.763  0.1767  0.1453 -0.1353
  366DOPS   C3A 4295   8.384  12.387  11.154  0.0345  0.1756 -0.1489
  366DOPS   C4A 4296   8.117  11.973  11.300  0.1762 -0.1497  0.2247
  366DOPS   C1B 4297   7.548  12.544  10.781 -0.0742  0.0340  0.2441
  366DOPS   D2B 4298   7.182  12.395  11.029  0.0616  0.0333 -0.3417
  366DOPS   C3B 4299   6.999  12.422  11.439  0.0311 -0.0284 -0.0963
  366DOPS   C4B 4300   6.657  12.373  11.773 -0.1920 -0.0802 -0.3133
  367POSM   NC3 4301   9.496   5.700  10.744  0.0075 -0.0014 -0.0097
  367POSM   PO4 4302   9.559   5.311  10.747  0.0222 -0.1233 -0.3039
  367POSM   AM1 4303   9.658   5.287  11.047  0.1237 -0.2676  0.3560
  367POSM   AM2 4304   9.641   5.479  11.245 -0.1858  0.0593  0.2801
  367POSM   T1A 4305  10.019   5.030  11.275 -0.1660  0.1755  0.0479
  367POSM   C2A 4306  10.166   4.925  11.737 -0.0447  0.1745  0.0956
  367POSM   C3A 4307  10.372   5.165  12.132 -0.1304  0.0892 -0.0572
  367POSM   C1B 4308   9.353   5.470  11.342  0.2163 -0.0307  0.0023
  367POSM   D2B 4309   9.059   5.210  11.600  0.2193 -0.0519  0.4041
  367POSM   C3B 4310   9.323   5.013  11.943 -0.0161  0.0649  0.1014
  367POSM   C4B 4311   9.322   4.614  12.160 -0.0257  0.1661 -0.2260
  368DOPS   CNO 4312   7.019   7.253  10.215 -0.1982  0.0620 -0.2781
  368DOPS   PO4 4313   7.112   7.252  10.573  0.0077 -0.0552 -0.0131
  368DOPS   GL1 4314   7.371   7.469  10.812  0.2110 -0.1916 -0.2004
  368DOPS   GL2 4315   7.664   7.513  10.804  0.0978  0.2560 -0.0217
  368DOPS   C1A 4316   7.337   7.458  11.259  0.1367  0.1853  0.0063
  368DOPS   D2A 4317   7.189   7.365  11.719  0.0222 -0.1193 -0.1160
  368DOPS   C3A 4318   7.469   7.449  12.064 -0.0831  0.2924 -0.1133
  368DOPS   C4A 4319   7.702   7.465  12.461 -0.0027 -0.0297 -0.1341
  368DOPS   C1B 4320   8.058   7.717  11.002 -0.0253 -0.1160  0.0463
  368DOPS   D2B 4321   8.388   7.965  11.108  0.0648 -0.2387 -0.1410
  368DOPS   C3B 4322   8.558   7.939  11.569  0.0511 -0.3246  0.0823
  368DOPS   C4B 4323   8.449   7.705  11.954  0.0098 -0.2076 -0.1703
  369POSM   NC3 4324   3.457   7.132  10.137 -0.1600  0.0171  0.0210
  369POSM   PO4 4325   3.771   6.877  10.294  0.0923 -0.3060 -0.3510
  369POSM   AM1 4326   3.890   7.136  10.451 -0.1988  0.1840  0.0682
  369POSM   AM2 4327   3.786   7.391  10.456  0.0288  0.3630  0.2583
  369POSM   T1A 4328   3.860   7.316  10.936 -0.0468 -0.0523  0.4273
  369POSM   C2A 4329   4.100   7.532  11.226  0.3297  0.0653 -0.2586
  369POSM   C3A 4330   4.371   7.630  11.591  0.0960 -0.2088 -0.3674
  369POSM   C1B 4331   3.612   7.617  10.609  0.2431  0.2134 -0.0546
  369POSM   D2B 4332   3.452   7.741  11.060  0.0969  0.0914  0.1514
  369POSM   C3B 4333   3.425   7.361  11.301  0.0247  0.0004 -0.0755
  369POSM   C4B 4334   3.705   7.096  11.540 -0.0887  0.0528 -0.3901
  370DOPC   NC3 4335   3.424  10.334  10.551  0.0901 -0.1013 -0.1072
  370DOPC   PO4 4336   3.139  10.537  10.443 -0.1844  0.0946 -0.1330
  370DOPC   GL1 4337   3.157  10.607  10.875  0.2720  0.2697 -0.1127
  370DOPC   GL2 4338   2.980  10.393  10.986 -0.0296 -0.2430  0.0621
  370DOPC   C1A 4339   3.398  10.712  11.242 -0.0202  0.3069 -0.1844
  370DOPC   D2A 4340   3.626  10.408  11.586  0.4088 -0.2101  0.1967
  370DOPC   C3A 4341   3.408  10.443  12.017  0.3276 -0.3607  0.1331
  370DOPC   C4A 4342   3.326  10.555  12.474  0.2304 -0.1886  0.0017
  370DOPC   C1B 4343   3.084  10.249  11.398 -0.0639  0.0101  0.1306
  370DOPC   D2B 4344   3.461   9.957  11.632  0.1549 -0.1721  0.2662
  370DOPC   C3B 4345   3.923   9.961  11.643  0.1519  0.0231 -0.1116
  370DOPC   C4B 4346   4.321   9.751  11.613  0.0053  0.2354 -0.1310
  371DOPC   NC3 4347   9.987   4.178  11.061 -0.0630  0.3260 -0.1418
  371DOPC   PO4 4348   9.670   4.330  10.894  0.1005 -0.4444 -0.0981
  371DOPC   GL1 4349   9.633   4.489  11.269 -0.0053 -0.3182 -0.0177
  371DOPC   GL2 4350   9.403   4.641  11.184  0.0576  0.2327  0.3750
  371DOPC   C1A 4351   9.569   4.488  11.753  0.0963  0.2919 -0.0002
  371DOPC   D2A 4352   9.552   4.113  11.981  0.2961  0.0509 -0.2122
  371DOPC   C3A 4353   9.550   4.212  12.433  0.2440 -0.0087 -0.0501
  371DOPC   C4A 4354   9.715   3.998  12.785  0.2337  0.0180 -0.0648
  371DOPC   C1B 4355   9.128   4.647  11.547  0.0693  0.1298 -0.1953
  371DOPC   D2B 4356   8.888   4.807  11.931  0.5514 -0.0080  0.0225
  371DOPC   C3B 4357   8.928   4.921  12.378  0.1197  0.0323 -0.1395
  371DOPC   C4B 4358   8.898   4.904  12.857  0.3308 -0.0617 -0.1207
  372DOPC   NC3 4359   3.275   3.738  10.321  0.0303  0.0893  0.0049
  372DOPC   PO4 4360   3.649   3.591  10.369 -0.0638 -0.0447 -0.0246
  372DOPC   GL1 4361   3.444   3.728  10.809  0.5965  0.1000  0.1220
  372DOPC   GL2 4362   3.615   3.897  10.979 -0.2423  0.2079 -0.1362
  372DOPC   C1A 4363   3.412   3.410  11.141  0.0079  0.1655  0.0634
  372DOPC   D2A 4364   3.192   3.437  11.537 -0.1366 -0.0221 -0.0512
  372DOPC   C3A 4365   3.106   3.087  11.829  0.1981 -0.0676  0.1004
  372DOPC   C4A 4366   3.013   2.623  11.819 -0.1913  0.1706 -0.3570
  372DOPC   C1B 4367   3.684   3.862  11.449  0.0736 -0.1674  0.2816
  372DOPC   D2B 4368   3.534   3.912  11.858 -0.1262  0.0774 -0.1737
  372DOPC   C3B 4369   3.456   3.661  12.253  0.0443 -0.0637  0.2687
  372DOPC   C4B 4370   3.231   3.226  12.265 -0.2897 -0.2802  0.0319
  373POSM   NC3 4371   7.686  11.860   9.603 -0.0748  0.0434 -0.4033
  373POSM   PO4 4372   7.678  12.014   9.969 -0.1299  0.1281  0.0507
  373POSM   AM1 4373   7.656  11.863  10.280  0.4046  0.2780 -0.0839
  373POSM   AM2 4374   7.490  11.981  10.482 -0.0514 -0.0567  0.2136
  373POSM   T1A 4375   7.731  11.589  10.693 -0.0218 -0.1851 -0.0801
  373POSM   C2A 4376   7.614  11.214  10.873  0.0866  0.1040 -0.1148
  373POSM   C3A 4377   7.426  10.788  10.784  0.2404 -0.1873  0.0232
  373POSM   C1B 4378   7.470  12.001  10.834 -0.0472 -0.1311 -0.3285
  373POSM   D2B 4379   7.541  12.018  11.304  0.0838  0.1277 -0.3632
  373POSM   C3B 4380   7.390  12.238  11.723 -0.0868 -0.0352 -0.3391
  373POSM   C4B 4381   7.126  12.553  11.902  0.0124 -0.1012 -0.3977
  374POSM   NC3 4382   2.418   1.967   9.733  0.0487 -0.1581  0.2518
  374POSM   PO4 4383   2.607   1.786  10.071  0.1995 -0.1540 -0.2408
  374POSM   AM1 4384   2.528   1.787  10.395 -0.1638 -0.4300  0.2170
  374POSM   AM2 4385   2.415   1.596  10.581 -0.3174 -0.0501 -0.0094
  374POSM   T1A 4386   2.478   2.067  10.858 -0.0921 -0.0387  0.0305
  374POSM   C2A 4387   2.373   2.220  11.229 -0.0626 -0.2406 -0.1165
  374POSM   C3A 4388   2.280   2.244  11.724  0.1200 -0.1090  0.1239
  374POSM   C1B 4389   2.477   1.579  10.905 -0.1199 -0.0434 -0.0727
  374POSM   D2B 4390   2.690   1.747  11.315  0.1854  0.1076 -0.1849
  374POSM   C3B 4391   2.572   1.861  11.775  0.0685 -0.0586  0.0892
  374POSM   C4B 4392   2.636   1.759  12.191  0.0796 -0.2018 -0.1286
  375DOPE   NH3 4393   8.038   3.143  10.413  0.1956  0.0937 -0.0043
  375DOPE   PO4 4394   8.151   3.303  10.638  0.0684 -0.2523 -0.1400
  375DOPE   GL1 4395   8.203   3.445  10.955  0.0241  0.0987  0.2051
  375DOPE   GL2 4396   8.427   3.589  10.994 -0.0465 -0.2245 -0.2415
  375DOPE   C1A 4397   8.042   3.696  11.309 -0.0110 -0.0341 -0.1341
  375DOPE   D2A 4398   7.976   3.658  11.784 -0.2393  0.2744  0.0059
  375DOPE   C3A 4399   8.224   3.646  12.219  0.0103  0.1025  0.0916
  375DOPE   C4A 4400   8.644   3.590  12.381 -0.2568  0.1515  0.1637
  375DOPE   C1B 4401   8.821   3.558  11.263  0.1162 -0.3303  0.0017
  375DOPE   D2B 4402   8.933   3.908  11.535 -0.0294  0.3329  0.0119
  375DOPE   C3B 4403   8.611   3.962  11.879 -0.0040 -0.0681 -0.0474
  375DOPE   C4B 4404   8.442   4.122  12.299  0.1054 -0.0103 -0.0238
  376DOPS   CNO 4405  11.505   4.439  10.443  0.0002  0.0314  0.0206
  376DOPS   PO4 4406  11.768   4.198  10.562  0.0267 -0.0863 -0.0756
  376DOPS   GL1 4407  11.758   4.449  10.829 -0.0492  0.0360 -0.4484
  376DOPS   GL2 4408  11.988   4.344  11.030 -0.2424 -0.1349 -0.2251
  376DOPS   C1A 4409  12.093   4.795  10.844  0.0846  0.2717  0.0512
  376DOPS   D2A 4410  12.309   5.173  10.951 -0.0406  0.2556 -0.0987
  376DOPS   C3A 4411  12.256   5.271  11.427  0.1433  0.1185  0.0861
  376DOPS   C4A 4412  12.521   5.404  11.792 -0.0714 -0.2671  0.0681
  376DOPS   C1B 4413  11.957   4.321  11.483 -0.2077 -0.0644  0.0919
  376DOPS   D2B 4414  11.733   4.494  11.825 -0.0285 -0.3462 -0.1749
  376DOPS   C3B 4415  11.930   4.326  12.223 -0.1370  0.1096 -0.1130
  376DOPS   C4B 4416  12.173   3.954  12.322  0.0552  0.0309  0.1547
  377DOPE   NH3 4417  10.773  11.669   9.070 -0.3047 -0.0689 -0.1026
  377DOPE   PO4 4418  10.655  11.431   9.171 -0.0061 -0.0709  0.1400
  377DOPE   GL1 4419  10.739  11.498   9.520 -0.1602 -0.0466  0.1110
  377DOPE   GL2 4420  10.538  11.485   9.754 -0.0982  0.0228 -0.0136
  377DOPE   C1A 4421  11.005  11.612   9.852  0.1378 -0.5196  0.0267
  377DOPE   D2A 4422  11.154  11.582  10.315  0.0167 -0.2445  0.1044
  377DOPE   C3A 4423  11.548  11.689  10.597 -0.1620 -0.0293  0.1144
  377DOPE   C4A 4424  11.824  11.719  10.982  0.1938  0.1705 -0.1932
  377DOPE   C1B 4425  10.629  11.464  10.220  0.1137  0.0667  0.0363
  377DOPE   D2B 4426  10.765  11.512  10.648  0.0499 -0.0601 -0.2861
  377DOPE   C3B 4427  10.367  11.422  10.896 -0.1484 -0.0431  0.0237
  377DOPE   C4B 4428  10.027  11.711  10.910 -0.1236  0.1092  0.2044
  378DOPC   NC3 4429   2.597   5.908  10.105 -0.2194  0.1970 -0.2906
  378DOPC   PO4 4430   2.431   5.590  10.277 -0.0148 -0.1835 -0.0934
  378DOPC   GL1 4431   2.291   5.254  10.607  0.1494  0.0963  0.0063
  378DOPC   GL2 4432   2.373   5.463  10.780  0.0826 -0.0768 -0.2276
  378DOPC   C1A 4433   2.119   5.020  11.017  0.1760 -0.0319  0.0585
  378DOPC   D2A 4434   1.950   4.749  11.362  0.1640 -0.2091 -0.0536
  378DOPC   C3A 4435   1.806   4.768  11.798  0.3478 -0.1923  0.0142
  378DOPC   C4A 4436   1.589   4.661  12.269  0.2887  0.0884  0.1583
  378DOPC   C1B 4437   2.276   5.459  11.251  0.2289  0.0256 -0.0443
  378DOPC   D2B 4438   1.969   5.371  11.605  0.0141 -0.0295  0.0785
  378DOPC   C3B 4439   1.757   5.624  11.324  0.0558 -0.0612  0.0314
  378DOPC   C4B 4440   1.366   5.784  11.126  0.2397  0.2781 -0.0243
  379DOPC   NC3 4441   5.081   5.373  10.357  0.4375  0.1439 -0.2645
  379DOPC   PO4 4442   4.906   4.973  10.327  0.0568 -0.1793 -0.3457
  379DOPC   GL1 4443   4.877   5.091  10.704  0.2335  0.2001 -0.0043
  379DOPC   GL2 4444   5.152   5.062  10.781  0.2073 -0.2753 -0.0358
  379DOPC   C1A 4445   4.786   4.973  11.136  0.0825 -0.0001 -0.0170
  379DOPC   D2A 4446   4.527   4.827  11.547 -0.2005 -0.4124  0.1187
  379DOPC   C3A 4447   4.643   4.612  11.914 -0.2185  0.1383  0.0113
  379DOPC   C4A 4448   4.803   4.642  12.388  0.0656  0.0887 -0.1514
  379DOPC   C1B 4449   5.310   4.946  11.180 -0.1003 -0.0061  0.2391
  379DOPC   D2B 4450   5.488   4.854  11.599 -0.3101  0.3624 -0.1420
  379DOPC   C3B 4451   5.421   5.164  11.941  0.1496  0.0334  0.3843
  379DOPC   C4B 4452   5.263   5.396  12.279  0.1587 -0.2773 -0.1573
  380POSM   NC3 4453   8.858   9.790   9.890 -0.1929 -0.1202  0.0563
  380POSM   PO4 4454   8.591   9.971  10.122  0.0630  0.2886 -0.1445
  380POSM   AM1 4455   8.533   9.907  10.460 -0.0819 -0.5642 -0.1784
  380POSM   AM2 4456   8.325   9.848  10.649 -0.2527  0.1891 -0.0299
  380POSM   T1A 4457   8.729   9.727  10.889 -0.0603  0.2162 -0.1914
  380POSM   C2A 4458   8.927   9.662  11.292 -0.0249  0.0022  0.1681
  380POSM   C3A 4459   8.747   9.306  11.617 -0.0635 -0.1317 -0.0934
  380POSM   C1B 4460   8.181   9.653  10.834  0.6949 -0.2781 -0.0291
  380POSM   D2B 4461   7.957   9.347  11.159  0.0923  0.0595  0.0310
  380POSM   C3B 4462   7.950   8.854  11.135 -0.2040  0.0242 -0.0659
  380POSM   C4B 4463   7.798   8.426  11.272  0.1141 -0.0445  0.0961
  381POSM   NC3 4464  32.564  13.195  10.623 -0.0238 -0.2638  0.1150
  381POSM   PO4 4465  32.819  12.885  10.488 -0.1754  0.0285  0.2695
  381POSM   AM1 4466  32.784  12.736  10.787  0.1785  0.0322  0.6663
  381POSM   AM2 4467  32.652  12.807  11.033 -0.2264  0.1531  0.0396
  381POSM   T1A 4468  32.714  12.316  11.083 -0.1001  0.3614 -0.1363
  381POSM   C2A 4469  32.743  11.923  11.357  0.1187 -0.1028 -0.0492
  381POSM   C3A 4470  32.728  11.801  11.833  0.2772 -0.4678  0.0537
  381POSM   C1B 4471  32.695  12.814  11.385 -0.1242  0.2214  0.0596
  381POSM   D2B 4472  32.578  12.715  11.818  0.0961 -0.0418 -0.3047
  381POSM   C3B 4473  32.602  13.043  12.136 -0.1514  0.2335 -0.3934
  381POSM   C4B 4474  32.673  13.372  12.461  0.0101 -0.0211 -0.2424
  382DOPS   CNO 4475   7.521  33.960  10.789 -0.0827 -0.1604  0.4985
  382DOPS   PO4 4476   7.291  34.244  10.632  0.1226  0.1437 -0.1475
  382DOPS   GL1 4477   6.989  34.210  10.936 -0.0259 -0.3288 -0.1038
  382DOPS   GL2 4478   6.937  34.502  10.913 -0.0867  0.1702 -0.0752
  382DOPS   C1A 4479   6.922  34.205  11.438 -0.0345 -0.0814  0.1918
  382DOPS   D2A 4480   6.677  34.323  11.804  0.0427 -0.1920 -0.1667
  382DOPS   C3A 4481   6.562  33.962  12.046  0.4209  0.0037 -0.0426
  382DOPS   C4A 4482   6.250  33.721  12.363  0.0903 -0.0323  0.1068
  382DOPS   C1B 4483   6.904  34.694  11.302  0.0215  0.2317  0.2081
  382DOPS   D2B 4484   7.215  34.581  11.559 -0.1820 -0.1119 -0.3001
  382DOPS   C3B 4485   7.168  34.268  11.951  0.0587 -0.1630 -0.1058
  382DOPS   C4B 4486   7.114  33.910  12.183  0.0470  0.0495 -0.1429
  383POSM   NC3 4487   0.888   1.003   9.852 -0.0709  0.1183 -0.1860
  383POSM   PO4 4488   0.608   1.182  10.106 -0.1658  0.2958 -0.0356
  383POSM   AM1 4489   0.419   1.199  10.360  0.0871  0.1691  0.0705
  383POSM   AM2 4490   0.262   1.071  10.555 -0.3204 -0.1520  0.1016
  383POSM   T1A 4491   0.436   1.477  10.775 -0.4327 -0.0975  0.1203
  383POSM   C2A 4492   0.474   1.698  11.179 -0.1596 -0.1813 -0.2198
  383POSM   C3A 4493   0.545   1.901  11.575 -0.2661  0.1887 -0.0852
  383POSM   C1B 4494   0.345   0.897  10.863  0.2190 -0.0410  0.1421
  383POSM   D2B 4495   0.266   0.785  11.328  0.1740  0.1273 -0.1661
  383POSM   C3B 4496  -0.145   0.700  11.547  0.2390  0.2257  0.2573
  383POSM   C4B 4497  -0.558   0.523  11.364 -0.0992  0.1310  0.2068
  384DOPE   NH3 4498   5.973   9.271  10.579  0.5363  0.1366  0.2452
  384DOPE   PO4 4499   6.119   8.971  10.671 -0.2063  0.1679 -0.0493
  384DOPE   GL1 4500   5.995   8.865  10.960 -0.1375  0.1319 -0.1852
  384DOPE   GL2 4501   6.061   8.623  10.987 -0.2721  0.0260  0.1143
  384DOPE   C1A 4502   6.182   9.000  11.375  0.3214 -0.1617 -0.1047
  384DOPE   D2A 4503   6.573   8.939  11.588  0.2607 -0.0087  0.2179
  384DOPE   C3A 4504   6.850   8.597  11.614  0.1254  0.3067  0.0186
  384DOPE   C4A 4505   7.121   8.209  11.436  0.1386  0.0342 -0.1763
  384DOPE   C1B 4506   5.750   8.304  11.013 -0.1648  0.0211 -0.2383
  384DOPE   D2B 4507   5.464   8.253  11.317  0.1314 -0.1392  0.2850
  384DOPE   C3B 4508   5.327   8.557  11.725  0.1752 -0.0676 -0.1431
  384DOPE   C4B 4509   5.242   8.972  11.919  0.3890  0.2346 -0.5564
  385DOPE   NH3 4510   1.790   2.500  10.628  0.1518  0.0689  0.1332
  385DOPE   PO4 4511   2.061   2.425  10.471  0.1213 -0.2877 -0.1362
  385DOPE   GL1 4512   2.450   2.548  10.774  0.0686 -0.2119  0.1970
  385DOPE   GL2 4513   2.597   2.766  10.985 -0.0072 -0.1617 -0.0677
  385DOPE   C1A 4514   2.843   2.387  11.002 -0.1857 -0.1008  0.1457
  385DOPE   D2A 4515   3.237   2.314  11.239 -0.1638 -0.1489  0.2112
  385DOPE   C3A 4516   3.345   2.256  11.681  0.4126  0.3968 -0.1349
  385DOPE   C4A 4517   3.429   2.255  12.146  0.3072  0.0744 -0.0190
  385DOPE   C1B 4518   2.602   2.710  11.380  0.2611 -0.1741  0.0436
  385DOPE   D2B 4519   2.801   2.234  11.530  0.0752  0.1478 -0.2936
  385DOPE   C3B 4520   2.764   2.248  12.025  0.1568 -0.1936  0.0348
  385DOPE   C4B 4521   3.016   2.397  12.368 -0.0240  0.0123 -0.0663
  386DOPE   NH3 4522   4.272   4.910  10.206 -0.1300  0.2142 -0.0571
  386DOPE   PO4 4523   4.434   4.752  10.410  0.0535  0.1153 -0.0151
  386DOPE   GL1 4524   4.456   4.582  10.751  0.0984 -0.0666 -0.0286
  386DOPE   GL2 4525   4.771   4.516  10.738  0.0117  0.1689  0.0999
  386DOPE   C1A 4526   4.238   4.850  11.102 -0.2018 -0.0156  0.4047
  386DOPE   D2A 4527   4.006   4.857  11.493  0.0871 -0.1149  0.0035
  386DOPE   C3A 4528   3.824   5.324  11.535 -0.0457  0.4485  0.1831
  386DOPE   C4A 4529   3.870   5.765  11.319 -0.0657 -0.3441 -0.1129
  386DOPE   C1B 4530   4.542   4.440  11.146 -0.0558 -0.0218  0.0164
  386DOPE   D2B 4531   4.421   4.321  11.583  0.0398  0.1560 -0.3748
  386DOPE   C3B 4532   4.145   4.577  11.872  0.1375 -0.1955  0.0965
  386DOPE   C4B 4533   3.681   4.593  11.824  0.1358  0.0732 -0.1736
  387DOPS   CNO 4534   2.504   0.097  10.112  0.0028  0.0559  0.0071
  387DOPS   PO4 4535   2.509  -0.139  10.391  0.2576  0.2992  0.0276
  387DOPS   GL1 4536   2.522  -0.058  10.772 -0.1491  0.3205 -0.0695
  387DOPS   GL2 4537   2.802  -0.161  10.862  0.3342  0.2546  0.0153
  387DOPS   C1A 4538   2.466  -0.202  11.260 -0.0739 -0.0462  0.2101
  387DOPS   D2A 4539   2.459  -0.170  11.717 -0.0605  0.4090  0.1311
  387DOPS   C3A 4540   2.191  -0.413  11.883 -0.1586 -0.1162 -0.1947
  387DOPS   C4A 4541   1.954  -0.821  11.874  0.2034 -0.1681 -0.1360
  387DOPS   C1B 4542   2.941  -0.133  11.312  0.1722  0.3086  0.0883
  387DOPS   D2B 4543   3.167  -0.272  11.731  0.1508 -0.4458  0.0287
  387DOPS   C3B 4544   3.400   0.014  12.022 -0.4262 -0.0263  0.1070
  387DOPS   C4B 4545   3.751   0.313  12.232 -0.0006  0.1771  0.2578
  388POSM   NC3 4546   6.688   2.165  10.151 -0.1010  0.2845  0.1555
  388POSM   PO4 4547   6.529   2.018  10.496  0.0676  0.1278 -0.1312
  388POSM   AM1 4548   6.608   2.148  10.813 -0.2083 -0.2142  0.3482
  388POSM   AM2 4549   6.642   2.317  11.039 -0.0958 -0.0682  0.1446
  388POSM   T1A 4550   6.754   1.936  11.272 -0.0691  0.0553 -0.0019
  388POSM   C2A 4551   6.647   2.191  11.671 -0.3401  0.2159 -0.0542
  388POSM   C3A 4552   6.465   2.627  11.873  0.0770  0.0832 -0.2156
  388POSM   C1B 4553   6.807   2.435  11.326  0.0282  0.1669  0.0803
  388POSM   D2B 4554   6.979   2.662  11.678 -0.0668 -0.0776 -0.0393
  388POSM   C3B 4555   6.925   2.359  12.018  0.0611 -0.1500 -0.0840
  388POSM   C4B 4556   6.563   2.057  12.161 -0.1896 -0.2007 -0.2465
  389POSM   NC3 4557  11.375   4.791  10.083  0.0898  0.2736 -0.0360
  389POSM   PO4 4558  10.973   4.813  10.151 -0.4024 -0.0133 -0.1096
  389POSM   AM1 4559  10.978   4.875  10.476 -0.1462 -0.0951  0.0260
  389POSM   AM2 4560  11.142   4.781  10.733  0.0243 -0.3894 -0.0932
  389POSM   T1A 4561  10.713   4.985  10.885 -0.1840  0.2007  0.3718
  389POSM   C2A 4562  10.487   5.136  11.236  0.0589 -0.2645  0.0407
  389POSM   C3A 4563  10.306   5.440  11.478  0.0553  0.1293 -0.2831
  389POSM   C1B 4564  11.466   4.867  10.886  0.1637  0.0781 -0.1942
  389POSM   D2B 4565  11.831   5.056  11.160  0.1034  0.0770 -0.0393
  389POSM   C3B 4566  11.778   5.313  11.578  0.0656 -0.2717  0.0636
  389POSM   C4B 4567  11.654   5.791  11.627  0.2712  0.1072  0.0670
  390DOPE   NH3 4568   7.861   4.112  10.458 -0.2311  0.0228 -0.0976
  390DOPE   PO4 4569   7.955   4.353  10.641  0.0839  0.2203  0.0355
  390DOPE   GL1 4570   8.061   4.612  10.891 -0.3126 -0.1713  0.1661
  390DOPE   GL2 4571   8.367   4.583  10.849 -0.0056  0.0894 -0.0618
  390DOPE   C1A 4572   7.858   4.714  11.294 -0.5023  0.2496 -0.1699
  390DOPE   D2A 4573   7.901   4.577  11.713 -0.2293  0.0075 -0.1318
  390DOPE   C3A 4574   7.955   4.774  12.151  0.3696 -0.3151 -0.0903
  390DOPE   C4A 4575   8.028   4.563  12.564  0.1042  0.0673  0.1808
  390DOPE   C1B 4576   8.354   4.814  11.254 -0.0810 -0.0814  0.0922
  390DOPE   D2B 4577   8.646   4.932  11.554  0.1538  0.0530 -0.3025
  390DOPE   C3B 4578   8.422   5.109  11.937 -0.2042  0.0974  0.2597
  390DOPE   C4B 4579   8.013   5.253  12.029  0.2231  0.0063 -0.0291
  391DOPS   CNO 4580   2.762  11.157  10.410 -0.0357 -0.0897  0.1262
  391DOPS   PO4 4581   3.053  11.037  10.609  0.0315  0.1831 -0.3095
  391DOPS   GL1 4582   3.304  11.103  10.989 -0.2545 -0.2878  0.0766
  391DOPS   GL2 4583   3.090  11.355  11.121  0.1214 -0.1144 -0.2379
  391DOPS   C1A 4584   3.673  11.239  11.206  0.0873 -0.0082  0.2135
  391DOPS   D2A 4585   4.019  11.206  11.527 -0.1114  0.3812 -0.0264
  391DOPS   C3A 4586   3.998  11.300  12.019  0.1140  0.0940  0.3376
  391DOPS   C4A 4587   3.655  11.380  12.241  0.3274 -0.1925  0.1873
  391DOPS   C1B 4588   3.222  11.169  11.528 -0.3019 -0.1326  0.4295
  391DOPS   D2B 4589   3.193  11.311  12.002  0.0324  0.2407  0.1494
  391DOPS   C3B 4590   2.835  11.454  12.228  0.1093 -0.5487  0.0936
  391DOPS   C4B 4591   2.880  11.614  12.635 -0.0690  0.0431 -0.1427
  392DOPE   NH3 4592   8.054   8.229  10.130 -0.2244  0.1052 -0.0491
  392DOPE   PO4 4593   7.795   8.067  10.205  0.2090 -0.2354 -0.0481
  392DOPE   GL1 4594   7.773   8.300  10.467 -0.4501  0.0926 -0.1799
  392DOPE   GL2 4595   7.915   8.311  10.758 -0.0336 -0.1041 -0.1730
  392DOPE   C1A 4596   7.530   8.614  10.725  0.3600 -0.3049 -0.1425
  392DOPE   D2A 4597   7.464   8.770  11.138  0.1566 -0.2247  0.2289
  392DOPE   C3A 4598   7.401   8.602  11.541 -0.0024 -0.1651 -0.1182
  392DOPE   C4A 4599   7.581   8.212  11.696  0.1406 -0.1078 -0.1455
  392DOPE   C1B 4600   7.999   8.706  10.647 -0.1268  0.1467 -0.1317
  392DOPE   D2B 4601   8.221   9.070  10.795 -0.0619 -0.2511 -0.1113
  392DOPE   C3B 4602   8.503   9.278  11.095  0.0037 -0.1498 -0.3460
  392DOPE   C4B 4603   8.362   9.625  11.287 -0.1469  0.0419 -0.0185
  393POSM   NC3 4604   2.018   1.212   9.910  0.2284 -0.1559 -0.0520
  393POSM   PO4 4605   2.042   1.377  10.259 -0.2687 -0.1411  0.1579
  393POSM   AM1 4606   1.911   1.491  10.520  0.0499 -0.1404 -0.1583
  393POSM   AM2 4607   1.863   1.325  10.751  0.2419  0.0264  0.0446
  393POSM   T1A 4608   2.037   1.786  10.919  0.2073  0.1419 -0.1294
  393POSM   C2A 4609   2.141   1.738  11.377  0.0745  0.3042  0.1761
  393POSM   C3A 4610   2.027   1.787  11.856  0.4305 -0.1739  0.1314
  393POSM   C1B 4611   2.102   1.219  10.934  0.0692  0.1953 -0.0984
  393POSM   D2B 4612   2.444   1.211  11.243  0.3798  0.0349  0.1585
  393POSM   C3B 4613   2.386   1.338  11.719 -0.0649 -0.0609  0.3463
  393POSM   C4B 4614   2.360   1.349  12.172 -0.0081 -0.1804 -0.1103
  394POSM   NC3 4615  34.705  11.748   9.930 -0.0964 -0.0380  0.2454
  394POSM   PO4 4616  34.603  11.959  10.256  0.0464 -0.1832 -0.2154
  394POSM   AM1 4617  34.651  11.962  10.612 -0.1123 -0.1541  0.0370
  394POSM   AM2 4618  34.551  12.045  10.905 -0.1520  0.0638 -0.0679
  394POSM   T1A 4619  34.937  11.710  10.979 -0.0831  0.0979 -0.2092
  394POSM   C2A 4620  35.202  11.692  11.342  0.1098  0.1563  0.0203
  394POSM   C3A 4621  35.225  11.903  11.761 -0.1086 -0.0786  0.0157
  394POSM   C1B 4622  34.454  11.773  11.030 -0.1863 -0.2858 -0.0318
  394POSM   D2B 4623  34.092  11.606  11.208 -0.0007 -0.1982 -0.0175
  394POSM   C3B 4624  34.197  11.712  11.631 -0.1368  0.1067 -0.2404
  394POSM   C4B 4625  34.606  11.842  11.849 -0.0115  0.1572 -0.0047
  395DOPC   NC3 4626   2.831   8.759  10.500 -0.2007  0.0358  0.1799
  395DOPC   PO4 4627   3.187   8.944  10.444  0.4392  0.0662 -0.1756
  395DOPC   GL1 4628   3.169   8.818  10.839 -0.2108 -0.2573 -0.2259
  395DOPC   GL2 4629   3.200   9.048  10.991  0.1482 -0.0482 -0.0617
  395DOPC   C1A 4630   3.083   8.626  11.274  0.1669 -0.1034 -0.0622
  395DOPC   D2A 4631   2.947   8.633  11.759  0.0856 -0.2263  0.0666
  395DOPC   C3A 4632   2.824   8.199  11.881 -0.0655 -0.1214 -0.1992
  395DOPC   C4A 4633   2.757   7.849  12.195 -0.1467 -0.0034  0.0889
  395DOPC   C1B 4634   3.176   9.146  11.415 -0.0683  0.0610  0.3617
  395DOPC   D2B 4635   3.260   9.502  11.681  0.3864  0.0568 -0.0395
  395DOPC   C3B 4636   3.714   9.515  11.656 -0.0680 -0.1984 -0.1273
  395DOPC   C4B 4637   3.991   9.622  11.994 -0.1687  0.1271 -0.3533
  396POSM   NC3 4638   0.488   6.765  10.168  0.1509  0.0104 -0.0479
  396POSM   PO4 4639   0.724   6.945   9.946 -0.2879 -0.2595  0.1270
  396POSM   AM1 4640   0.779   7.088  10.219  0.0634  0.1019 -0.1684
  396POSM   AM2 4641   0.947   7.290  10.331 -0.0038  0.1811 -0.2023
  396POSM   T1A 4642   0.968   6.920  10.685  0.0436 -0.3354  0.1521
  396POSM   C2A 4643   0.893   6.625  11.033 -0.1469 -0.5407 -0.0237
  396POSM   C3A 4644   0.793   6.462  11.421 -0.1067 -0.2148 -0.3003
  396POSM   C1B 4645   0.932   7.442  10.603  0.1006 -0.1248  0.2526
  396POSM   D2B 4646   1.040   7.468  11.079  0.0859  0.0286  0.0595
  396POSM   C3B 4647   0.846   7.107  11.218  0.1200 -0.2576 -0.0541
  396POSM   C4B 4648   0.821   6.874  11.673 -0.1291 -0.0818 -0.0978
  397DOPE   NH3 4649   6.304   1.459  10.390  0.0097 -0.1187 -0.1036
  397DOPE   PO4 4650   6.464   1.179  10.382  0.1672  0.1558  0.1236
  397DOPE   GL1 4651   6.324   1.126  10.728 -0.3358 -0.2208 -0.0150
  397DOPE   GL2 4652   6.512   1.205  10.929  0.2397 -0.0388 -0.0569
  397DOPE   C1A 4653   6.031   1.122  11.131  0.1584  0.1076  0.1603
  397DOPE   D2A 4654   5.912   1.153  11.606  0.1104  0.0376  0.0688
  397DOPE   C3A 4655   6.097   1.188  12.005 -0.1156 -0.0639 -0.1289
  397DOPE   C4A 4656   6.251   1.064  12.414  0.1634  0.2488  0.0038
  397DOPE   C1B 4657   6.775   1.428  11.265 -0.0723  0.0471  0.0401
  397DOPE   D2B 4658   7.097   1.281  11.591  0.3634 -0.0803  0.0667
  397DOPE   C3B 4659   7.125   1.284  12.087 -0.2399 -0.0853 -0.1267
  397DOPE   C4B 4660   7.238   1.470  12.471  0.1078  0.0515  0.3061
  398DOPS   CNO 4661   2.945   7.294  10.024  0.0963  0.1844  0.1356
  398DOPS   PO4 4662   2.943   7.055  10.339  0.3772  0.0405 -0.3179
  398DOPS   GL1 4663   2.904   7.151  10.743 -0.1074 -0.0764  0.1187
  398DOPS   GL2 4664   3.091   7.221  10.979  0.1465  0.1051  0.1981
  398DOPS   C1A 4665   2.587   7.449  11.003  0.1005  0.3754  0.1190
  398DOPS   D2A 4666   2.443   7.472  11.407 -0.1507  0.1458  0.0260
  398DOPS   C3A 4667   2.360   7.958  11.507 -0.3094  0.0593  0.1353
  398DOPS   C4A 4668   2.605   8.350  11.372 -0.1072 -0.2326 -0.1820
  398DOPS   C1B 4669   2.912   7.316  11.406  0.1806 -0.3293  0.0086
  398DOPS   D2B 4670   2.941   7.385  11.876  0.2062  0.3680  0.2669
  398DOPS   C3B 4671   2.838   7.037  12.108 -0.0786 -0.2048  0.0959
  398DOPS   C4B 4672   2.634   6.548  12.102  0.1853 -0.1997  0.2075
  399DOPC   NC3 4673   3.834   6.412  10.228  0.0706 -0.1854 -0.2068
  399DOPC   PO4 4674   4.090   6.175  10.351 -0.3297 -0.0828  0.0784
  399DOPC   GL1 4675   3.981   6.163  10.805  0.4761 -0.0062  0.1994
  399DOPC   GL2 4676   3.860   5.903  10.851 -0.1228  0.1498 -0.0594
  399DOPC   C1A 4677   4.233   6.377  11.134 -0.1054  0.1408  0.4676
  399DOPC   D2A 4678   4.501   6.665  11.431 -0.0459  0.0363  0.0717
  399DOPC   C3A 4679   4.682   6.465  11.775  0.0080 -0.0994  0.0844
  399DOPC   C4A 4680   4.769   6.385  12.232 -0.0428  0.1504  0.1234
  399DOPC   C1B 4681   3.481   5.723  11.056  0.3471  0.3783  0.0358
  399DOPC   D2B 4682   3.402   5.571  11.456 -0.0425  0.1003 -0.5427
  399DOPC   C3B 4683   3.497   5.447  11.926  0.1281 -0.1638 -0.0597
  399DOPC   C4B 4684   3.497   5.579  12.362 -0.3663 -0.0726  0.0674
  400DOPC   NC3 4685   8.401  13.082   9.840  0.0666 -0.0262  0.2106
  400DOPC   PO4 4686   8.426  13.263   9.494 -0.1828 -0.2325  0.1761
  400DOPC   GL1 4687   8.560  13.505   9.764  0.0399 -0.0885 -0.4001
  400DOPC   GL2 4688   8.415  13.756   9.888  0.1010  0.0302 -0.0531
  400DOPC   C1A 4689   8.581  13.372  10.235  0.3368 -0.2633 -0.4084
  400DOPC   D2A 4690   8.614  13.467  10.684  0.4590 -0.5072  0.0634
  400DOPC   C3A 4691   8.805  13.180  11.026  0.1810 -0.3542 -0.1231
  400DOPC   C4A 4692   9.087  12.920  11.281 -0.0196  0.2530  0.1388
  400DOPC   C1B 4693   8.627  13.868  10.242 -0.1987  0.0346  0.1280
  400DOPC   D2B 4694   9.013  14.063  10.366  0.0309 -0.0693 -0.3313
  400DOPC   C3B 4695   8.778  14.164  10.801  0.0632  0.1023 -0.0493
  400DOPC   C4B 4696   8.560  14.076  11.201  0.3722 -0.2023 -0.1789
  401DOPC   NC3 4697   4.605   6.084  10.190  0.1917 -0.0237  0.0695
  401DOPC   PO4 4698   4.755   5.834  10.468  0.0224 -0.0034  0.1476
  401DOPC   GL1 4699   4.500   5.569  10.778  0.1321  0.0764 -0.4796
  401DOPC   GL2 4700   4.494   5.312  10.907  0.3220  0.0629  0.1639
  401DOPC   C1A 4701   4.376   5.787  11.172 -0.0970  0.4411 -0.0274
  401DOPC   D2A 4702   4.300   6.081  11.558  0.0080  0.0305  0.0470
  401DOPC   C3A 4703   3.872   6.063  11.728 -0.3088  0.1683 -0.2666
  401DOPC   C4A 4704   3.620   6.358  11.949  0.1667 -0.1632  0.4045
  401DOPC   C1B 4705   4.779   5.459  11.218  0.1642 -0.0745  0.3656
  401DOPC   D2B 4706   4.758   5.546  11.653 -0.3685 -0.0397  0.2908
  401DOPC   C3B 4707   4.269   5.650  11.697  0.0728 -0.5154 -0.0704
  401DOPC   C4B 4708   3.948   5.602  11.973 -0.4031  0.1581 -0.0160
  402DOPS   CNO 4709   6.844   8.903  10.324 -0.0081 -0.1533  0.2185
  402DOPS   PO4 4710   6.585   8.699  10.386 -0.1345 -0.0398 -0.0397
  402DOPS   GL1 4711   6.550   8.745  10.813  0.4192 -0.1886 -0.4995
  402DOPS   GL2 4712   6.501   8.945  11.022 -0.4619  0.0615  0.1020
  402DOPS   C1A 4713   6.495   8.487  11.252 -0.1181  0.0923  0.3540
  402DOPS   D2A 4714   6.378   8.375  11.670  0.1275  0.3755 -0.0180
  402DOPS   C3A 4715   6.122   8.748  11.817 -0.0682  0.0165  0.1157
  402DOPS   C4A 4716   5.765   8.986  11.865 -0.1902 -0.2871  0.2525
  402DOPS   C1B 4717   6.618   9.311  11.275  0.1386 -0.3319 -0.1763
  402DOPS   D2B 4718   6.511   9.666  11.530 -0.0810 -0.0717  0.0253
  402DOPS   C3B 4719   6.765   9.870  11.858 -0.0790  0.0630  0.0629
  402DOPS   C4B 4720   7.015  10.188  12.148 -0.0479 -0.1716  0.3169
  403POSM   NC3 4721   0.816  33.222  10.450 -0.3204 -0.0911  0.0748
  403POSM   PO4 4722   0.456  33.172  10.351 -0.1048  0.1638  0.0115
  403POSM   AM1 4723   0.398  33.360  10.629 -0.0467  0.2223  0.0584
  403POSM   AM2 4724   0.270  33.600  10.767  0.0274 -0.1236  0.2561
  403POSM   T1A 4725   0.418  33.434  11.160 -0.2775  0.1483 -0.0640
  403POSM   C2A 4726   0.322  33.533  11.532 -0.1251  0.0036  0.4424
  403POSM   C3A 4727   0.527  33.394  11.965  0.0925  0.2566 -0.0554
  403POSM   C1B 4728   0.253  33.875  10.950  0.1295 -0.2134  0.3369
  403POSM   D2B 4729   0.086  34.089  11.282 -0.3354 -0.1643  0.1906
  403POSM   C3B 4730   0.250  33.985  11.699  0.1781  0.2087  0.0318
  403POSM   C4B 4731   0.450  33.864  12.057 -0.3666  0.0937 -0.0121
  404POSM   NC3 4732   5.914   9.405   9.988  0.2561 -0.2265  0.0269
  404POSM   PO4 4733   5.731   9.131  10.174  0.1324  0.0723  0.1771
  404POSM   AM1 4734   5.578   8.981  10.424 -0.1771 -0.0995  0.2018
  404POSM   AM2 4735   5.611   8.843  10.676  0.0322 -0.3330 -0.0238
  404POSM   T1A 4736   5.177   9.057  10.702  0.0650 -0.0239  0.2733
  404POSM   C2A 4737   4.980   9.193  11.117  0.2138  0.4486 -0.0198
  404POSM   C3A 4738   4.624   9.091  11.324  0.2318  0.1257 -0.0439
  404POSM   C1B 4739   5.555   8.804  11.021 -0.3354  0.2023 -0.4250
  404POSM   D2B 4740   5.733   8.669  11.438 -0.0667 -0.0570  0.0156
  404POSM   C3B 4741   5.730   8.348  11.758 -0.1861 -0.1316 -0.0280
  404POSM   C4B 4742   5.490   8.279  12.121  0.0109  0.0752  0.1882
  405DOPE   NH3 4743  34.663   8.412  10.682 -0.2221 -0.0805 -0.2194
  405DOPE   PO4 4744  34.972   8.508  10.549  0.0066 -0.0718  0.0090
  405DOPE   GL1 4745  34.972   8.463  10.994 -0.1631 -0.0609  0.0850
  405DOPE   GL2 4746  34.990   8.172  11.071 -0.2103  0.1251  0.0830
  405DOPE   C1A 4747  34.871   8.552  11.432  0.1214  0.1600  0.0548
  405DOPE   D2A 4748  35.020   8.665  11.872  0.2516 -0.2517 -0.2382
  405DOPE   C3A 4749  34.813   8.282  12.100  0.0909 -0.1474 -0.1223
  405DOPE   C4A 4750  34.749   7.885  11.839  0.0578 -0.0069 -0.1705
  405DOPE   C1B 4751  35.179   8.160  11.539  0.1607 -0.2079 -0.2386
  405DOPE   D2B 4752  35.512   8.302  11.929 -0.0811  0.2653  0.0774
  405DOPE   C3B 4753  35.350   8.572  12.278  0.0745 -0.0209  0.1370
  405DOPE   C4B 4754  34.917   8.652  12.409 -0.0677 -0.2148 -0.1968
  406DOPC   NC3 4755   4.810   0.534  10.442  0.1428  0.3461  0.1778
  406DOPC   PO4 4756   4.675   0.838  10.260  0.0534 -0.0274 -0.1028
  406DOPC   GL1 4757   4.606   0.946  10.614 -0.1781  0.0542  0.0160
  406DOPC   GL2 4758   4.356   0.856  10.748 -0.1463 -0.0026  0.0877
  406DOPC   C1A 4759   4.875   0.818  10.906 -0.0217 -0.0119 -0.0966
  406DOPC   D2A 4760   4.958   0.649  11.310 -0.4437 -0.1104  0.1657
  406DOPC   C3A 4761   5.265   0.412  11.579  0.1752  0.0039  0.1895
  406DOPC   C4A 4762   5.443   0.290  12.026  0.2731  0.0435  0.0427
  406DOPC   C1B 4763   4.512   0.881  11.180  0.2606  0.1872 -0.0073
  406DOPC   D2B 4764   4.556   0.697  11.632  0.0825  0.3554 -0.2721
  406DOPC   C3B 4765   4.767   0.285  11.726 -0.0561  0.0306  0.1738
  406DOPC   C4B 4766   5.025  -0.087  11.765 -0.1347 -0.0877  0.1323
  407POSM   NC3 4767  10.275   1.774  10.528 -0.2033  0.3439  0.0887
  407POSM   PO4 4768  10.267   2.169  10.567 -0.1341 -0.2019  0.3223
  407POSM   AM1 4769  10.236   2.059  10.884  0.0120  0.3926  0.1940
  407POSM   AM2 4770  10.437   1.946  11.051 -0.0095  0.0553  0.2002
  407POSM   T1A 4771  10.148   2.187  11.387  0.0229  0.0985 -0.0796
  407POSM   C2A 4772  10.072   2.458  11.694 -0.0823  0.0242  0.0048
  407POSM   C3A 4773   9.885   2.849  11.919  0.1031  0.1565  0.0523
  407POSM   C1B 4774  10.392   1.731  11.303  0.4519  0.1741 -0.0658
  407POSM   D2B 4775  10.305   1.455  11.689 -0.1909  0.1639  0.0024
  407POSM   C3B 4776  10.670   1.254  11.888 -0.3233  0.3359  0.1706
  407POSM   C4B 4777  11.145   1.182  11.765 -0.2065 -0.0352  0.1620
  408POSM   NC3 4778   8.682   8.709   9.615  0.0976  0.1323 -0.2297
  408POSM   PO4 4779   8.461   8.475   9.859 -0.1570 -0.1657  0.1008
  408POSM   AM1 4780   8.541   8.427  10.152  0.2284  0.1986  0.1514
  408POSM   AM2 4781   8.584   8.213  10.358 -0.0256 -0.0841 -0.3875
  408POSM   T1A 4782   8.505   8.703  10.576 -0.4002  0.1016 -0.0016
  408POSM   C2A 4783   8.662   8.803  10.994  0.0506 -0.1863 -0.0180
  408POSM   C3A 4784   8.466   8.845  11.367  0.5015  0.3910 -0.1192
  408POSM   C1B 4785   8.457   8.203  10.657  0.2727 -0.0183 -0.0059
  408POSM   D2B 4786   8.330   8.456  10.991  0.2320  0.1860 -0.1416
  408POSM   C3B 4787   8.269   8.400  11.431  0.3379  0.1438 -0.2171
  408POSM   C4B 4788   7.937   8.609  11.739 -0.1293 -0.2457  0.1008
  409DOPC   NC3 4789   4.913  18.877  12.969  0.0404  0.2679  0.0372
  409DOPC   PO4 4790   4.762  19.138  13.261  0.3231 -0.0091  0.0335
  409DOPC   GL1 4791   4.666  19.360  12.911 -0.1369 -0.0430 -0.1740
  409DOPC   GL2 4792   4.669  19.145  12.642 -0.3547  0.1039  0.1344
  409DOPC   C1A 4793   4.910  19.621  12.614  0.0285  0.2929 -0.0250
  409DOPC   D2A 4794   4.859  19.772  12.155 -0.2393 -0.0816 -0.1206
  409DOPC   C3A 4795   5.222  19.799  11.810 -0.3264  0.0496 -0.0790
  409DOPC   C4A 4796   5.627  19.536  11.767 -0.0439 -0.1475 -0.0012
  409DOPC   C1B 4797   4.729  19.249  12.146  0.2397 -0.3558 -0.1462
  409DOPC   D2B 4798   4.769  19.230  11.724 -0.0763  0.1356  0.1596
  409DOPC   C3B 4799   5.046  19.425  11.418 -0.0241  0.1811  0.0052
  409DOPC   C4B 4800   5.380  19.109  11.214 -0.0903 -0.3885  0.2553
  410DOPC   NC3 4801   8.044  12.671  13.062  0.0845 -0.0913  0.0489
  410DOPC   PO4 4802   8.419  12.620  13.200 -0.2105  0.0292  0.1647
  410DOPC   GL1 4803   8.504  12.583  12.863  0.1685 -0.0038  0.2488
  410DOPC   GL2 4804   8.410  12.332  12.696  0.0760  0.0649 -0.3248
  410DOPC   C1A 4805   8.582  12.806  12.465 -0.4212 -0.1295 -0.1130
  410DOPC   D2A 4806   8.834  13.046  12.168 -0.3017 -0.3491 -0.0124
  410DOPC   C3A 4807   8.976  12.921  11.769 -0.1008 -0.1805 -0.0108
  410DOPC   C4A 4808   9.257  12.596  11.636  0.0359 -0.3948  0.0131
  410DOPC   C1B 4809   8.750  12.329  12.397  0.1634  0.0883  0.1701
  410DOPC   D2B 4810   8.837  12.484  11.946  0.1272 -0.2124  0.1031
  410DOPC   C3B 4811   8.489  12.734  11.683  0.0869 -0.2155 -0.0323
  410DOPC   C4B 4812   8.466  12.874  11.226  0.2984  0.1771 -0.1557
  411DOPE   NH3 4813  13.505  26.506  13.852  0.1052 -0.0358  0.0575
  411DOPE   PO4 4814  13.564  26.465  13.523  0.3481  0.0089  0.2707
  411DOPE   GL1 4815  13.687  26.387  13.095 -0.0429 -0.1360 -0.0352
  411DOPE   GL2 4816  13.847  26.154  13.007  0.0218 -0.1511  0.0662
  411DOPE   C1A 4817  13.541  26.596  12.697  0.0807  0.0142 -0.1706
  411DOPE   D2A 4818  13.312  26.771  12.319 -0.2045 -0.3345  0.0031
  411DOPE   C3A 4819  13.509  27.109  12.054 -0.4481  0.0256  0.2885
  411DOPE   C4A 4820  13.455  27.040  11.604 -0.2297 -0.2800  0.2653
  411DOPE   C1B 4821  13.671  26.084  12.548 -0.1850 -0.0878  0.0879
  411DOPE   D2B 4822  13.818  26.008  12.126  0.2985  0.0691  0.1230
  411DOPE   C3B 4823  13.653  26.017  11.710  0.0422  0.0425 -0.1333
  411DOPE   C4B 4824  13.654  26.332  11.344  0.0213 -0.2418 -0.1686
  412DOPE   NH3 4825   3.999  21.672  13.217  0.2719  0.1787  0.0117
  412DOPE   PO4 4826   3.840  21.916  13.246  0.1907  0.1453  0.1439
  412DOPE   GL1 4827   3.814  22.093  12.851  0.2145  0.2907 -0.4416
  412DOPE   GL2 4828   4.101  22.108  12.777  0.0099  0.0568  0.0771
  412DOPE   C1A 4829   3.580  21.884  12.458  0.0444 -0.1262  0.0567
  412DOPE   D2A 4830   3.430  21.610  12.088 -0.0520  0.1414  0.0974
  412DOPE   C3A 4831   3.690  21.881  11.786 -0.0379  0.0068  0.1825
  412DOPE   C4A 4832   3.709  21.744  11.319 -0.0978  0.0864  0.0405
  412DOPE   C1B 4833   4.283  22.236  12.406 -0.1121  0.0945  0.1199
  412DOPE   D2B 4834   4.334  22.466  11.934 -0.2094  0.0323  0.0980
  412DOPE   C3B 4835   4.518  22.720  11.596 -0.2448 -0.3049  0.0066
  412DOPE   C4B 4836   4.866  22.821  11.375  0.0976  0.1485 -0.0652
  413DOPC   NC3 4837  11.883  23.204  12.591 -0.2435 -0.0711 -0.3382
  413DOPC   PO4 4838  11.854  23.581  12.555 -0.3952 -0.1511 -0.1522
  413DOPC   GL1 4839  11.758  23.761  12.253 -0.0006 -0.0745  0.0729
  413DOPC   GL2 4840  11.773  24.038  12.268 -0.0555  0.1837 -0.0850
  413DOPC   C1A 4841  11.711  23.673  11.805  0.0422 -0.3496  0.2959
  413DOPC   D2A 4842  11.462  23.961  11.545  0.0421 -0.4013 -0.0848
  413DOPC   C3A 4843  11.646  24.122  11.129  0.2907  0.4741  0.0813
  413DOPC   C4A 4844  11.852  24.528  10.947 -0.2020  0.1495 -0.2411
  413DOPC   C1B 4845  12.002  24.290  11.991  0.1586  0.1499 -0.2699
  413DOPC   D2B 4846  11.974  24.549  11.598  0.0532 -0.2089 -0.0474
  413DOPC   C3B 4847  11.564  24.573  11.375  0.2783  0.2211 -0.3562
  413DOPC   C4B 4848  11.257  24.874  11.184  0.0563  0.1026 -0.0805
  414DOPC   NC3 4849   9.591  22.033  12.469 -0.0415 -0.0871  0.2312
  414DOPC   PO4 4850   9.964  21.860  12.511  0.0644 -0.2261  0.0373
  414DOPC   GL1 4851  10.055  21.769  12.108 -0.0219 -0.0748  0.0075
  414DOPC   GL2 4852  10.347  21.892  12.084 -0.1368  0.2043 -0.0061
  414DOPC   C1A 4853  10.346  21.434  11.960 -0.0932 -0.0793  0.3194
  414DOPC   D2A 4854  10.815  21.457  11.918  0.1098 -0.1360  0.0508
  414DOPC   C3A 4855  11.001  21.448  11.482  0.1260 -0.0729 -0.0405
  414DOPC   C4A 4856  10.979  21.264  11.047  0.2626  0.1695 -0.2369
  414DOPC   C1B 4857  10.254  21.796  11.625 -0.0674 -0.0953 -0.0906
  414DOPC   D2B 4858  10.347  21.477  11.240  0.0915 -0.0406  0.1994
  414DOPC   C3B 4859  10.600  21.495  10.848 -0.1791  0.1005 -0.0563
  414DOPC   C4B 4860  10.808  21.673  10.460  0.0869  0.1646  0.0034
  415POSM   NC3 4861   2.685  16.174  13.982  0.0147  0.2018  0.0088
  415POSM   PO4 4862   2.916  16.277  13.673 -0.0253  0.2188 -0.0632
  415POSM   AM1 4863   2.911  16.197  13.364  0.2073  0.2013  0.2282
  415POSM   AM2 4864   2.684  16.163  13.185 -0.2008  0.0806  0.0393
  415POSM   T1A 4865   3.041  15.838  13.064  0.0142  0.2160 -0.2202
  415POSM   C2A 4866   3.382  15.527  12.887 -0.1609 -0.0856 -0.1273
  415POSM   C3A 4867   3.788  15.274  13.026 -0.2282  0.0683  0.0795
  415POSM   C1B 4868   2.879  16.238  12.927 -0.0133 -0.0278 -0.1114
  415POSM   D2B 4869   3.056  16.362  12.534  0.3595  0.0901  0.1329
  415POSM   C3B 4870   3.295  16.259  12.156 -0.0989  0.2779  0.1115
  415POSM   C4B 4871   3.470  15.952  11.883 -0.0728  0.2498  0.1378
  416DOPS   CNO 4872   8.872  23.744  13.084  0.0883 -0.0965 -0.1256
  416DOPS   PO4 4873   8.986  23.956  12.774  0.0579 -0.2458  0.1581
  416DOPS   GL1 4874   8.888  23.786  12.438  0.0111 -0.2878  0.0410
  416DOPS   GL2 4875   8.567  23.801  12.457  0.2109  0.0496 -0.3979
  416DOPS   C1A 4876   8.763  23.729  11.991  0.1960  0.1127  0.1901
  416DOPS   D2A 4877   8.507  23.806  11.602  0.0053  0.2048  0.3843
  416DOPS   C3A 4878   8.432  24.210  11.391 -0.0076  0.0345 -0.1219
  416DOPS   C4A 4879   8.502  24.580  11.197  0.3409  0.5043 -0.0284
  416DOPS   C1B 4880   8.354  23.949  12.091 -0.3319  0.1520  0.0456
  416DOPS   D2B 4881   8.069  24.193  11.843  0.0932  0.0338 -0.0548
  416DOPS   C3B 4882   7.963  23.909  11.518 -0.2828 -0.2278 -0.0981
  416DOPS   C4B 4883   7.629  23.606  11.429 -0.1564  0.2214 -0.1380
  417DOPC   NC3 4884   6.393  10.972  13.771  0.0992  0.1999  0.0490
  417DOPC   PO4 4885   6.765  10.853  13.666  0.4026  0.0367  0.0411
  417DOPC   GL1 4886   6.627  10.982  13.242 -0.2027 -0.1760 -0.0521
  417DOPC   GL2 4887   6.444  11.146  13.301  0.1462  0.1454 -0.3886
  417DOPC   C1A 4888   6.914  11.268  12.943  0.0995  0.0412  0.0467
  417DOPC   D2A 4889   7.081  11.423  12.516  0.0374 -0.1176 -0.0392
  417DOPC   C3A 4890   7.097  11.829  12.384  0.1092  0.1350 -0.2124
  417DOPC   C4A 4891   6.955  12.166  12.133  0.0724 -0.4019  0.0195
  417DOPC   C1B 4892   6.416  11.095  12.826  0.0576 -0.1711 -0.0457
  417DOPC   D2B 4893   6.730  10.979  12.533 -0.1496 -0.0311 -0.0954
  417DOPC   C3B 4894   6.713  11.099  12.098  0.1109 -0.1505  0.0742
  417DOPC   C4B 4895   6.487  11.361  11.784 -0.1605  0.3808 -0.1470
  418DOPE   NH3 4896   3.316  16.384  13.250 -0.1765  0.2125 -0.1839
  418DOPE   PO4 4897   3.552  16.540  13.393 -0.2509 -0.1883 -0.1836
  418DOPE   GL1 4898   3.558  16.779  13.000  0.2616  0.3363 -0.0361
  418DOPE   GL2 4899   3.442  16.547  12.782 -0.1174  0.0432 -0.0197
  418DOPE   C1A 4900   3.483  16.952  12.562 -0.0796  0.0246  0.0516
  418DOPE   D2A 4901   3.298  17.109  12.163 -0.0553  0.1777  0.0212
  418DOPE   C3A 4902   3.567  17.332  11.812  0.1643  0.0675 -0.1583
  418DOPE   C4A 4903   3.592  17.657  11.500  0.2796  0.2110  0.1851
  418DOPE   C1B 4904   3.669  16.476  12.404 -0.0176 -0.1980  0.1685
  418DOPE   D2B 4905   3.811  16.308  12.003 -0.4262  0.0516 -0.3112
  418DOPE   C3B 4906   4.204  16.027  11.991 -0.0804  0.0675 -0.1456
  418DOPE   C4B 4907   4.329  15.654  11.736 -0.0386  0.2208 -0.2351
  419POSM   NC3 4908  11.976  20.212  11.796  0.1306  0.0744  0.2139
  419POSM   PO4 4909  12.153  20.264  12.134 -0.0481 -0.0832 -0.2821
  419POSM   AM1 4910  12.240  20.577  12.080 -0.0079 -0.1921  0.0650
  419POSM   AM2 4911  12.132  20.864  12.071  0.0561 -0.0548 -0.1263
  419POSM   T1A 4912  12.610  20.869  11.873 -0.4080  0.0528  0.2458
  419POSM   C2A 4913  12.824  20.974  11.480  0.3020  0.0637  0.1332
  419POSM   C3A 4914  12.980  20.984  11.014  0.1201 -0.2525 -0.4949
  419POSM   C1B 4915  11.983  20.985  11.734 -0.2612 -0.0255 -0.1537
  419POSM   D2B 4916  11.827  20.876  11.315  0.1337 -0.1810  0.4574
  419POSM   C3B 4917  12.013  20.630  10.943  0.3137 -0.2514 -0.0528
  419POSM   C4B 4918  12.334  20.453  10.695 -0.0966  0.0608  0.6144
  420DOPS   CNO 4919   9.289  20.584  12.774  0.1916 -0.0323 -0.0792
  420DOPS   PO4 4920   8.910  20.576  12.659  0.3274  0.1791  0.2279
  420DOPS   GL1 4921   8.615  20.668  12.420 -0.0186 -0.2300 -0.1140
  420DOPS   GL2 4922   8.603  20.650  12.104 -0.2735  0.2007 -0.0493
  420DOPS   C1A 4923   8.535  21.129  12.309 -0.0699  0.0388 -0.0352
  420DOPS   D2A 4924   8.303  21.497  12.102  0.0696 -0.0167  0.3307
  420DOPS   C3A 4925   8.032  21.383  11.745  0.1945 -0.0803  0.0949
  420DOPS   C4A 4926   8.066  21.008  11.463  0.1225  0.0044 -0.2425
  420DOPS   C1B 4927   8.848  20.854  11.790 -0.0726  0.1639  0.3999
  420DOPS   D2B 4928   9.075  21.213  11.683 -0.0539 -0.1261  0.2720
  420DOPS   C3B 4929   8.876  21.403  11.306 -0.0000 -0.2708  0.1187
  420DOPS   C4B 4930   8.846  21.863  11.233  0.5150  0.0160  0.3265
  421DOPC   NC3 4931  12.197  13.553  12.368  0.3253 -0.3646 -0.3173
  421DOPC   PO4 4932  12.579  13.585  12.538  0.0705 -0.3364  0.0160
  421DOPC   GL1 4933  12.673  13.478  12.141  0.0340 -0.4114  0.0567
  421DOPC   GL2 4934  12.541  13.756  12.016  0.0654 -0.0434  0.0866
  421DOPC   C1A 4935  12.431  13.053  12.011  0.0575  0.2105  0.0448
  421DOPC   D2A 4936  12.216  12.652  11.967 -0.0889  0.4302 -0.0404
  421DOPC   C3A 4937  12.010  12.594  11.588  0.1491  0.0473 -0.2055
  421DOPC   C4A 4938  11.866  12.338  11.241 -0.0293  0.0010  0.0875
  421DOPC   C1B 4939  12.660  13.857  11.582 -0.0046 -0.0190  0.0942
  421DOPC   D2B 4940  12.766  13.635  11.121  0.0526 -0.2101  0.1178
  421DOPC   C3B 4941  12.468  13.772  10.747 -0.1422  0.4225  0.0531
  421DOPC   C4B 4942  12.106  13.818  10.418 -0.0278 -0.2451  0.0771
  422DOPE   NH3 4943   6.490  12.319  13.842 -0.0601  0.0926 -0.1047
  422DOPE   PO4 4944   6.381  12.367  13.580 -0.2112  0.0550  0.0424
  422DOPE   GL1 4945   6.469  12.681  13.351  0.5997 -0.0363  0.0539
  422DOPE   GL2 4946   6.672  12.727  13.171 -0.1367  0.0314 -0.5667
  422DOPE   C1A 4947   6.353  12.603  12.853 -0.1786  0.0925  0.0286
  422DOPE   D2A 4948   6.405  12.470  12.423  0.0413  0.0242  0.1144
  422DOPE   C3A 4949   6.239  12.185  12.111  0.2771  0.1690 -0.0763
  422DOPE   C4A 4950   6.321  11.727  12.011 -0.2911 -0.0145 -0.1758
  422DOPE   C1B 4951   6.850  12.930  12.826 -0.1780 -0.1153  0.1394
  422DOPE   D2B 4952   6.785  13.251  12.497  0.3662  0.0661 -0.1249
  422DOPE   C3B 4953   7.079  13.535  12.428 -0.3342  0.0356 -0.1968
  422DOPE   C4B 4954   7.431  13.803  12.270  0.0739  0.0919  0.0664
  423DOPE   NH3 4955   4.845  17.908  12.813 -0.1057  0.0512  0.0944
  423DOPE   PO4 4956   4.727  18.149  12.736  0.0287  0.0631  0.1574
  423DOPE   GL1 4957   4.576  18.172  12.459 -0.5168  0.1308  0.2258
  423DOPE   GL2 4958   4.325  18.358  12.481  0.0743 -0.0497 -0.1707
  423DOPE   C1A 4959   4.598  18.192  11.988 -0.2521 -0.0402 -0.1357
  423DOPE   D2A 4960   4.507  18.474  11.641 -0.1949 -0.0569  0.1055
  423DOPE   C3A 4961   4.427  18.873  11.691  0.1961  0.0656 -0.1283
  423DOPE   C4A 4962   4.142  19.175  11.856  0.2285 -0.0861  0.1618
  423DOPE   C1B 4963   4.040  18.130  12.194  0.0402  0.1362  0.0341
  423DOPE   D2B 4964   4.139  18.007  11.723  0.1444 -0.2280  0.2108
  423DOPE   C3B 4965   4.177  18.248  11.307  0.2989  0.4890 -0.0173
  423DOPE   C4B 4966   4.313  18.643  11.122 -0.0964 -0.1210 -0.0508
  424DOPC   NC3 4967   7.974  25.888  13.247 -0.0338  0.1106 -0.0544
  424DOPC   PO4 4968   8.168  26.059  13.556 -0.1588 -0.1134 -0.1224
  424DOPC   GL1 4969   8.350  26.179  13.208  0.0613  0.2269  0.1320
  424DOPC   GL2 4970   8.433  26.001  12.973  0.1506  0.1655  0.0624
  424DOPC   C1A 4971   8.211  26.466  12.865  0.1742  0.2346 -0.2031
  424DOPC   D2A 4972   8.366  26.535  12.416 -0.0433 -0.0475  0.0449
  424DOPC   C3A 4973   8.144  26.551  12.053  0.1135  0.3714  0.0674
  424DOPC   C4A 4974   7.836  26.607  11.728  0.0095  0.1227 -0.1085
  424DOPC   C1B 4975   8.181  26.012  12.564 -0.0680 -0.1551  0.0538
  424DOPC   D2B 4976   8.226  25.947  12.099 -0.0954  0.0684 -0.1050
  424DOPC   C3B 4977   8.282  26.186  11.724 -0.1560 -0.3756  0.2438
  424DOPC   C4B 4978   8.400  26.597  11.463 -0.1662 -0.2365 -0.0495
  425POSM   NC3 4979   9.888  17.333  12.687 -0.2693  0.1505 -0.1647
  425POSM   PO4 4980  10.104  17.619  12.780  0.2597  0.2290  0.0314
  425POSM   AM1 4981  10.032  17.709  12.449 -0.4303  0.1095 -0.1667
  425POSM   AM2 4982  10.022  17.979  12.280  0.1270  0.0368  0.1604
  425POSM   T1A 4983  10.142  17.654  11.957 -0.0174  0.0120 -0.3891
  425POSM   C2A 4984  10.439  17.682  11.576 -0.1334  0.1272  0.2388
  425POSM   C3A 4985  10.760  17.907  11.352  0.0740  0.2346 -0.1166
  425POSM   C1B 4986   9.932  18.151  12.001 -0.1172  0.3832 -0.1254
  425POSM   D2B 4987   9.800  18.315  11.593  0.1911  0.2558  0.0263
  425POSM   C3B 4988   9.823  18.289  11.105 -0.3241  0.3053  0.0851
  425POSM   C4B 4989  10.052  18.105  10.707  0.0893  0.0882  0.3898
  426DOPE   NH3 4990   2.508  21.899  14.007 -0.3698 -0.1425 -0.0654
  426DOPE   PO4 4991   2.678  22.185  13.941  0.0885  0.0478  0.0129
  426DOPE   GL1 4992   2.656  22.234  13.538  0.0485  0.1029 -0.0845
  426DOPE   GL2 4993   2.654  21.958  13.437 -0.1847 -0.1557 -0.1428
  426DOPE   C1A 4994   2.970  22.365  13.234 -0.0133 -0.1539  0.0623
  426DOPE   D2A 4995   3.062  22.633  12.921 -0.0831  0.1997  0.1336
  426DOPE   C3A 4996   3.517  22.518  12.870  0.0085 -0.1412 -0.0708
  426DOPE   C4A 4997   3.888  22.554  12.565 -0.0462  0.3169 -0.1343
  426DOPE   C1B 4998   2.219  21.926  13.303 -0.0749  0.3337  0.2301
  426DOPE   D2B 4999   2.093  22.077  12.939 -0.0786 -0.3644 -0.1829
  426DOPE   C3B 5000   1.713  22.089  12.644  0.1096 -0.1719  0.3586
  426DOPE   C4B 5001   1.866  22.265  12.214 -0.0004 -0.0667 -0.3686
  427DOPS   CNO 5002   5.473  12.130  13.718  0.1331  0.2174 -0.0519
  427DOPS   PO4 5003   5.595  12.345  13.417  0.3524  0.0964 -0.0356
  427DOPS   GL1 5004   5.332  12.293  13.039  0.2324  0.1641  0.4428
  427DOPS   GL2 5005   5.310  12.300  12.747 -0.3350 -0.0540 -0.1254
  427DOPS   C1A 5006   5.361  11.857  12.899 -0.1253 -0.1289  0.0489
  427DOPS   D2A 5007   5.432  11.380  12.813  0.1602 -0.0813 -0.0771
  427DOPS   C3A 5008   5.224  11.127  12.510  0.0893 -0.2817  0.2681
  427DOPS   C4A 5009   5.027  11.307  12.132 -0.2207 -0.1897 -0.0043
  427DOPS   C1B 5010   5.452  12.450  12.344  0.1220 -0.1017  0.0731
  427DOPS   D2B 5011   5.829  12.620  12.120 -0.0399 -0.0521 -0.0111
  427DOPS   C3B 5012   5.845  13.076  12.050  0.0699  0.1190  0.4630
  427DOPS   C4B 5013   5.600  13.232  11.714 -0.0310 -0.1102 -0.0742
  428POSM   NC3 5014  10.079  19.718  12.794  0.2119 -0.0070  0.0290
  428POSM   PO4 5015  10.254  19.448  12.549  0.1537  0.1570  0.1115
  428POSM   AM1 5016  10.189  19.519  12.216 -0.3933 -0.2189  0.1795
  428POSM   AM2 5017  10.044  19.710  12.096 -0.0299 -0.0703 -0.2257
  428POSM   T1A 5018  10.327  19.387  11.748  0.4127  0.0043  0.0445
  428POSM   C2A 5019  10.243  19.034  11.469  0.0877  0.2184 -0.5059
  428POSM   C3A 5020  10.122  18.607  11.293 -0.2906  0.3620 -0.0163
  428POSM   C1B 5021   9.933  19.799  11.767  0.3294 -0.0657  0.0362
  428POSM   D2B 5022  10.032  19.848  11.318 -0.5553 -0.2144 -0.2292
  428POSM   C3B 5023  10.237  19.437  11.119  0.3717 -0.2554  0.0471
  428POSM   C4B 5024  10.414  19.067  10.945 -0.1842  0.2907  0.3094
  429POSM   NC3 5025   7.302  18.289  12.688 -0.1277  0.0692 -0.0713
  429POSM   PO4 5026   7.012  18.555  12.623 -0.2080 -0.0176  0.0691
  429POSM   AM1 5027   7.014  18.567  12.278 -0.2792  0.7373 -0.0794
  429POSM   AM2 5028   7.072  18.767  12.093 -0.0821  0.0745 -0.0894
  429POSM   T1A 5029   7.162  18.274  11.900 -0.0240 -0.1443 -0.0803
  429POSM   C2A 5030   7.257  17.991  11.544  0.4537 -0.2988 -0.0073
  429POSM   C3A 5031   7.543  17.963  11.178  0.0446 -0.3095  0.1946
  429POSM   C1B 5032   7.172  18.871  11.785  0.1582  0.0025 -0.3361
  429POSM   D2B 5033   7.128  18.913  11.320  0.1208 -0.0041  0.0123
  429POSM   C3B 5034   6.784  19.149  11.187 -0.1619 -0.1302  0.0147
  429POSM   C4B 5035   6.335  19.329  11.157 -0.0336  0.3045 -0.1268
  430DOPC   NC3 5036   1.993  13.603  14.397 -0.3212  0.0227 -0.1694
  430DOPC   PO4 5037   1.864  13.389  14.707 -0.4810 -0.0720 -0.2148
  430DOPC   GL1 5038   1.757  13.073  14.452  0.0696  0.1227 -0.0595
  430DOPC   GL2 5039   1.467  12.998  14.481 -0.1862 -0.1615  0.0422
  430DOPC   C1A 5040   1.965  12.799  14.142  0.0405  0.1286 -0.2990
  430DOPC   D2A 5041   2.001  12.742  13.663  0.0475  0.1150  0.1559
  430DOPC   C3A 5042   1.980  12.300  13.578 -0.1511 -0.0557  0.2287
  430DOPC   C4A 5043   1.973  11.923  13.337 -0.0567 -0.1431  0.3273
  430DOPC   C1B 5044   1.239  12.949  14.111 -0.0696 -0.1373 -0.3323
  430DOPC   D2B 5045   1.435  12.766  13.652  0.0946  0.1053  0.1609
  430DOPC   C3B 5046   1.294  12.661  13.243  0.2093  0.3771  0.3228
  430DOPC   C4B 5047   1.097  12.836  12.911  0.0052  0.0798  0.1804
  431DOPS   CNO 5048   5.973  17.571  13.306 -0.1062 -0.1183  0.0955
  431DOPS   PO4 5049   6.241  17.583  13.045 -0.2040  0.0938 -0.0435
  431DOPS   GL1 5050   6.150  17.353  12.779 -0.4527 -0.2591  0.1446
  431DOPS   GL2 5051   6.449  17.237  12.709 -0.0855  0.2641 -0.1104
  431DOPS   C1A 5052   6.203  17.482  12.386  0.0539 -0.2596 -0.0593
  431DOPS   D2A 5053   6.396  17.769  12.102  0.0059  0.2394  0.2510
  431DOPS   C3A 5054   6.360  17.871  11.649 -0.1066  0.0171  0.3631
  431DOPS   C4A 5055   6.162  18.054  11.251  0.1225  0.0523 -0.2801
  431DOPS   C1B 5056   6.603  16.771  12.633  0.0046  0.1611  0.1205
  431DOPS   D2B 5057   6.848  16.402  12.575 -0.0948  0.1180  0.1698
  431DOPS   C3B 5058   6.891  16.264  12.091 -0.0362 -0.0814 -0.1140
  431DOPS   C4B 5059   6.913  15.933  11.797  0.3558  0.4302 -0.0467
  432DOPE   NH3 5060   8.836  23.381  12.812  0.2001  0.0802 -0.4372
  432DOPE   PO4 5061   8.596  23.188  12.800  0.3063  0.0812 -0.0622
  432DOPE   GL1 5062   8.460  23.048  12.402  0.0469 -0.1873 -0.4194
  432DOPE   GL2 5063   8.306  23.321  12.412 -0.0307  0.0738 -0.0664
  432DOPE   C1A 5064   8.697  22.917  12.029  0.0579  0.0961 -0.2992
  432DOPE   D2A 5065   8.852  22.913  11.563  0.4519  0.1041 -0.1042
  432DOPE   C3A 5066   9.123  23.202  11.324  0.2848 -0.1670 -0.0125
  432DOPE   C4A 5067   9.109  23.522  11.011 -0.3057  0.0433  0.2931
  432DOPE   C1B 5068   8.440  23.327  11.973  0.0489  0.0554 -0.2008
  432DOPE   D2B 5069   8.378  23.113  11.594  0.1135 -0.1304  0.2033
  432DOPE   C3B 5070   8.114  23.094  11.215 -0.0818  0.2208 -0.2074
  432DOPE   C4B 5071   7.950  23.234  10.812  0.1556 -0.2826  0.2912
  433POSM   NC3 5072  13.372  17.018  12.120  0.1954 -0.1226 -0.0813
  433POSM   PO4 5073  13.653  17.268  11.988  0.1653  0.3038  0.3036
  433POSM   AM1 5074  13.544  17.383  11.677  0.0171  0.4123 -0.5455
  433POSM   AM2 5075  13.671  17.601  11.507 -0.2132  0.3193 -0.2690
  433POSM   T1A 5076  13.128  17.460  11.470 -0.1143  0.0806  0.1431
  433POSM   C2A 5077  12.713  17.290  11.553  0.2994  0.0656  0.0769
  433POSM   C3A 5078  12.311  17.107  11.462 -0.0065  0.2508  0.2114
  433POSM   C1B 5079  13.587  17.597  11.201 -0.1615 -0.1351 -0.0164
  433POSM   D2B 5080  13.320  17.318  10.919  0.2135 -0.3413  0.1397
  433POSM   C3B 5081  13.520  17.324  10.477  0.0491  0.2343  0.0477
  433POSM   C4B 5082  13.918  17.163  10.306 -0.1380 -0.0298 -0.0030
  434POSM   NC3 5083  11.310  10.657  13.593  0.0149  0.3266 -0.1959
  434POSM   PO4 5084  11.338  10.971  13.338 -0.0950 -0.2152 -0.1336
  434POSM   AM1 5085  11.579  11.110  13.160  0.3162 -0.2353  0.2150
  434POSM   AM2 5086  11.800  11.104  12.988  0.0137 -0.0723 -0.0318
  434POSM   T1A 5087  11.469  11.291  12.712 -0.0004 -0.3812 -0.0693
  434POSM   C2A 5088  11.480  11.278  12.278 -0.0948 -0.1364 -0.2070
  434POSM   C3A 5089  11.394  11.353  11.878 -0.0561 -0.4468  0.1419
  434POSM   C1B 5090  11.844  10.930  12.703 -0.2566 -0.0521 -0.0671
  434POSM   D2B 5091  11.613  10.757  12.397 -0.0548  0.2184 -0.2290
  434POSM   C3B 5092  11.263  10.887  12.073 -0.0467 -0.1834  0.2283
  434POSM   C4B 5093  10.952  10.982  11.747  0.1863 -0.1881  0.2174
  435DOPC   NC3 5094   1.140  20.955  14.544 -0.1181 -0.1072  0.0081
  435DOPC   PO4 5095   1.029  20.619  14.371  0.1186 -0.1553 -0.1934
  435DOPC   GL1 5096   0.844  20.766  14.065 -0.0588 -0.1010  0.0653
  435DOPC   GL2 5097   0.820  21.005  14.061 -0.1254  0.1425  0.2196
  435DOPC   C1A 5098   0.898  20.832  13.571  0.0333 -0.0241  0.2732
  435DOPC   D2A 5099   1.128  21.118  13.277 -0.0204 -0.1021  0.4022
  435DOPC   C3A 5100   1.116  20.768  13.037  0.0400  0.0439 -0.1699
  435DOPC   C4A 5101   1.273  20.472  12.649 -0.0922 -0.0037  0.0804
  435DOPC   C1B 5102   0.487  21.012  13.736  0.1785  0.1316  0.1752
  435DOPC   D2B 5103   0.466  20.884  13.283 -0.0978  0.3678 -0.2256
  435DOPC   C3B 5104   0.095  20.700  13.023 -0.1472  0.0514 -0.0644
  435DOPC   C4B 5105  -0.231  20.696  12.721  0.1628  0.0281  0.3450
  436DOPC   NC3 5106   3.242  16.976  13.272 -0.0016  0.0767  0.3061
  436DOPC   PO4 5107   2.952  16.702  13.398  0.0300 -0.1025 -0.1277
  436DOPC   GL1 5108   2.767  16.776  13.029 -0.0606  0.4102 -0.1723
  436DOPC   GL2 5109   2.982  16.777  12.814  0.0740  0.0620  0.4566
  436DOPC   C1A 5110   2.524  17.030  12.785 -0.0073  0.2716 -0.1271
  436DOPC   D2A 5111   2.323  16.982  12.365  0.2270  0.0677 -0.0505
  436DOPC   C3A 5112   2.263  17.321  12.013  0.0120  0.2048  0.0362
  436DOPC   C4A 5113   1.978  17.542  11.765  0.0210  0.2824  0.1818
  436DOPC   C1B 5114   2.648  16.602  12.588  0.4495 -0.0318 -0.1778
  436DOPC   D2B 5115   2.526  16.514  12.178  0.0298 -0.2234 -0.0276
  436DOPC   C3B 5116   2.799  16.468  11.812 -0.0728 -0.0716 -0.0171
  436DOPC   C4B 5117   3.238  16.545  11.696 -0.0074 -0.3612  0.1887
  437POSM   NC3 5118   6.632   9.170  14.064 -0.0267 -0.1885 -0.1663
  437POSM   PO4 5119   6.815   9.503  14.043 -0.0297 -0.1080  0.1730
  437POSM   AM1 5120   6.739   9.523  13.750  0.3233  0.2191  0.1459
  437POSM   AM2 5121   6.522   9.474  13.584  0.0777 -0.1325  0.2037
  437POSM   T1A 5122   7.060   9.433  13.365  0.0163  0.2881 -0.1234
  437POSM   C2A 5123   7.149   9.076  13.154 -0.0974  0.1018 -0.3459
  437POSM   C3A 5124   7.499   8.781  13.139  0.1072  0.0010  0.0478
  437POSM   C1B 5125   6.627   9.246  13.326  0.2570 -0.3022  0.0069
  437POSM   D2B 5126   6.609   8.862  13.050  0.0286 -0.1431 -0.1307
  437POSM   C3B 5127   6.935   8.799  12.723  0.0011 -0.0397 -0.2942
  437POSM   C4B 5128   6.970   8.913  12.321  0.1819 -0.3230  0.0851
  438POSM   NC3 5129  12.538  17.035  11.970  0.0170  0.3032  0.0723
  438POSM   PO4 5130  12.853  16.993  12.050 -0.5093 -0.0928  0.1924
  438POSM   AM1 5131  12.966  16.912  11.757  0.0316 -0.1220 -0.3195
  438POSM   AM2 5132  13.241  16.953  11.620 -0.0303  0.0863  0.2721
  438POSM   T1A 5133  12.813  16.909  11.267  0.1026 -0.2306 -0.0913
  438POSM   C2A 5134  12.857  17.007  10.788  0.0493  0.1609  0.1559
  438POSM   C3A 5135  12.944  17.351  10.502 -0.3139  0.2104 -0.0902
  438POSM   C1B 5136  13.480  17.003  11.325 -0.2444  0.2521 -0.3176
  438POSM   D2B 5137  13.870  16.964  11.127  0.2127 -0.0650  0.1253
  438POSM   C3B 5138  13.873  17.303  10.834  0.0567  0.2239 -0.2608
  438POSM   C4B 5139  13.948  17.635  10.556 -0.1261 -0.2847  0.1630
  439DOPE   NH3 5140  10.223  23.513  12.756 -0.0015  0.0560 -0.1839
  439DOPE   PO4 5141  10.302  23.814  12.644  0.2550 -0.1941 -0.1639
  439DOPE   GL1 5142  10.324  23.798  12.264  0.2789 -0.0434  0.3137
  439DOPE   GL2 5143  10.327  23.500  12.266 -0.1366  0.1260 -0.3469
  439DOPE   C1A 5144   9.943  23.825  11.968  0.0617  0.0104 -0.2650
  439DOPE   D2A 5145   9.845  23.585  11.642 -0.4393 -0.3656 -0.2821
  439DOPE   C3A 5146   9.443  23.589  11.499  0.3779  0.0342  0.1886
  439DOPE   C4A 5147   8.986  23.775  11.404  0.0491 -0.0694  0.1387
  439DOPE   C1B 5148  10.229  23.127  11.978  0.2093 -0.1874  0.1643
  439DOPE   D2B 5149  10.031  23.162  11.539 -0.3207  0.1221 -0.1933
  439DOPE   C3B 5150   9.679  23.228  11.272  0.1766  0.0730  0.0080
  439DOPE   C4B 5151   9.629  23.552  10.951  0.0807  0.0733 -0.0207
  440DOPC   NC3 5152  10.070  23.049  12.571  0.3153  0.0541 -0.0825
  440DOPC   PO4 5153  10.209  22.661  12.577 -0.3274  0.1527 -0.0245
  440DOPC   GL1 5154  10.176  22.762  12.228 -0.1329 -0.1679 -0.6335
  440DOPC   GL2 5155   9.900  22.856  12.195 -0.1735 -0.0379 -0.1380
  440DOPC   C1A 5156  10.063  22.752  11.772  0.2723  0.2387 -0.1689
  440DOPC   D2A 5157   9.895  22.601  11.345 -0.0417  0.0119 -0.1226
  440DOPC   C3A 5158  10.037  22.544  10.957  0.1073  0.3341  0.0431
  440DOPC   C4A 5159  10.108  22.200  10.691 -0.1616  0.0687 -0.1115
  440DOPC   C1B 5160   9.666  22.440  12.208  0.0301  0.2227  0.0677
  440DOPC   D2B 5161   9.401  22.076  12.047 -0.0810 -0.2528 -0.1843
  440DOPC   C3B 5162   9.492  21.619  11.988 -0.1032 -0.1541 -0.0011
  440DOPC   C4B 5163   9.858  21.467  11.821 -0.2901 -0.0921 -0.1423
  441DOPE   NH3 5164   9.120  18.677  12.764  0.3267 -0.1380 -0.0823
  441DOPE   PO4 5165   9.451  18.690  12.797 -0.0651 -0.3988 -0.2206
  441DOPE   GL1 5166   9.494  18.769  12.399 -0.2104 -0.0125 -0.2117
  441DOPE   GL2 5167   9.220  18.746  12.278  0.0286 -0.0297  0.1385
  441DOPE   C1A 5168   9.469  18.316  12.164  0.0903 -0.1939 -0.0562
  441DOPE   D2A 5169   9.398  18.033  11.814 -0.2613  0.0723 -0.1798
  441DOPE   C3A 5170   9.309  17.573  11.851 -0.2215  0.1220  0.1188
  441DOPE   C4A 5171   9.501  17.136  11.788 -0.1185 -0.2497  0.3293
  441DOPE   C1B 5172   9.301  19.167  12.090 -0.2564 -0.1515 -0.0361
  441DOPE   D2B 5173   9.551  19.481  11.818  0.0138  0.0155 -0.1072
  441DOPE   C3B 5174   9.803  19.358  11.417  0.2984  0.1485 -0.2072
  441DOPE   C4B 5175   9.877  19.072  11.020  0.2364  0.2643  0.0873
  442DOPE   NH3 5176  11.228  13.286  12.590 -0.1027 -0.1762  0.0589
  442DOPE   PO4 5177  10.903  13.369  12.642 -0.3438  0.1065 -0.0397
  442DOPE   GL1 5178  10.892  13.247  12.216  0.2621  0.2149 -0.0988
  442DOPE   GL2 5179  10.701  13.527  12.185 -0.0402  0.0339  0.0295
  442DOPE   C1A 5180  10.743  12.908  11.927  0.1586  0.2415 -0.0414
  442DOPE   D2A 5181  10.486  12.732  11.551 -0.0450 -0.0279 -0.0994
  442DOPE   C3A 5182  10.261  12.343  11.517 -0.1008 -0.0939  0.2252
  442DOPE   C4A 5183  10.300  11.936  11.241  0.3367  0.1779 -0.0070
  442DOPE   C1B 5184  10.745  13.606  11.733  0.0265 -0.2064 -0.1436
  442DOPE   D2B 5185  10.694  13.585  11.233 -0.1494 -0.1207 -0.0261
  442DOPE   C3B 5186  10.928  13.794  10.851  0.1496  0.1540 -0.0487
  442DOPE   C4B 5187  11.084  13.822  10.395  0.1811 -0.0149 -0.1456
  443DOPE   NH3 5188   8.408  15.286  12.973  0.0386 -0.0685  0.0560
  443DOPE   PO4 5189   8.460  15.006  12.787  0.0885  0.1297  0.2623
  443DOPE   GL1 5190   8.691  14.936  12.455  0.0878  0.3002  0.0020
  443DOPE   GL2 5191   8.428  15.094  12.263  0.0097 -0.0911  0.1126
  443DOPE   C1A 5192   8.820  14.973  12.007  0.1894  0.0790 -0.2505
  443DOPE   D2A 5193   8.786  14.837  11.572 -0.0971  0.1107  0.1109
  443DOPE   C3A 5194   8.961  15.004  11.174 -0.1350  0.2924 -0.1741
  443DOPE   C4A 5195   9.159  15.026  10.823  0.1236 -0.0252 -0.2513
  443DOPE   C1B 5196   8.006  15.260  12.114  0.0925 -0.0355 -0.0483
  443DOPE   D2B 5197   7.631  15.301  11.903  0.3217  0.0235  0.0199
  443DOPE   C3B 5198   7.564  15.733  11.650 -0.0021  0.0566  0.3998
  443DOPE   C4B 5199   7.248  16.025  11.388  0.0340 -0.1970 -0.1452
  444DOPS   CNO 5200   1.953  17.981  13.944  0.0570  0.1864  0.0959
  444DOPS   PO4 5201   2.329  17.969  13.975 -0.2829 -0.4508  0.2734
  444DOPS   GL1 5202   2.357  17.899  13.610  0.0934  0.0186  0.0004
  444DOPS   GL2 5203   2.089  17.733  13.539  0.1336  0.1030 -0.1451
  444DOPS   C1A 5204   2.366  18.003  13.161 -0.1278  0.0914  0.0502
  444DOPS   D2A 5205   2.708  17.763  12.901 -0.0202 -0.0349 -0.0378
  444DOPS   C3A 5206   2.941  17.612  12.517 -0.2783 -0.1860  0.0334
  444DOPS   C4A 5207   3.242  17.591  12.144  0.1010  0.1600 -0.0966
  444DOPS   C1B 5208   2.051  18.213  13.485  0.2221 -0.2177  0.3386
  444DOPS   D2B 5209   2.007  18.549  13.170  0.0402  0.0197 -0.2597
  444DOPS   C3B 5210   2.204  18.341  12.844 -0.0252  0.0203 -0.0083
  444DOPS   C4B 5211   2.379  17.998  12.600  0.3566  0.1102 -0.0518
  445DOPE   NH3 5212   7.510  19.859  12.375  0.2862 -0.0476  0.0325
  445DOPE   PO4 5213   7.406  19.561  12.413 -0.2719  0.1251  0.2386
  445DOPE   GL1 5214   7.520  19.443  12.040 -0.2121 -0.3739 -0.1299
  445DOPE   GL2 5215   7.603  19.675  11.911  0.6603 -0.1626  0.0661
  445DOPE   C1A 5216   7.434  19.240  11.627 -0.0266  0.1196 -0.0861
  445DOPE   D2A 5217   7.250  19.421  11.258  0.0065 -0.0434 -0.1840
  445DOPE   C3A 5218   7.132  19.422  10.800  0.3805 -0.2042  0.3552
  445DOPE   C4A 5219   7.399  19.191  10.489  0.1299  0.0687 -0.0784
  445DOPE   C1B 5220   7.690  19.678  11.459 -0.1967  0.0987  0.0567
  445DOPE   D2B 5221   7.656  19.592  11.038  0.2852  0.0750 -0.1848
  445DOPE   C3B 5222   7.991  19.302  10.915 -0.3414 -0.0651  0.3018
  445DOPE   C4B 5223   8.440  19.160  11.043 -0.2328 -0.0201  0.1449
  446DOPE   NH3 5224   3.857  20.447  13.427  0.0841 -0.0960 -0.3097
  446DOPE   PO4 5225   3.841  20.203  13.265 -0.0752 -0.0029 -0.3705
  446DOPE   GL1 5226   3.681  20.064  12.857 -0.1846  0.1220 -0.0228
  446DOPE   GL2 5227   3.466  19.806  12.811  0.3423  0.2123  0.3505
  446DOPE   C1A 5228   3.670  20.164  12.415 -0.0134  0.0899  0.1876
  446DOPE   D2A 5229   3.674  20.430  12.017 -0.0997 -0.2313  0.1960
  446DOPE   C3A 5230   3.786  20.313  11.602  0.1197  0.2674  0.1137
  446DOPE   C4A 5231   3.967  20.306  11.242  0.0541  0.0587 -0.0653
  446DOPE   C1B 5232   3.462  19.539  12.438  0.2832  0.0557 -0.1543
  446DOPE   D2B 5233   3.562  19.111  12.333  0.0352 -0.0813 -0.2476
  446DOPE   C3B 5234   3.675  18.945  11.928 -0.0052 -0.2534  0.2536
  446DOPE   C4B 5235   3.883  18.836  11.523 -0.2258  0.1463  0.2737
  447POSM   NC3 5236   3.951  14.040  14.065  0.0188 -0.2605 -0.0349
  447POSM   PO4 5237   4.314  13.938  13.926  0.3308 -0.3829 -0.2243
  447POSM   AM1 5238   4.178  13.982  13.642 -0.4717 -0.1902 -0.2099
  447POSM   AM2 5239   4.169  13.805  13.443 -0.1004 -0.1208  0.0136
  447POSM   T1A 5240   4.056  14.237  13.176  0.0522 -0.1001 -0.2827
  447POSM   C2A 5241   4.231  14.397  12.782  0.1086 -0.1736  0.0131
  447POSM   C3A 5242   4.336  14.469  12.304  0.0426 -0.0823 -0.1598
  447POSM   C1B 5243   4.349  13.775  13.170  0.0020 -0.3200  0.1438
  447POSM   D2B 5244   4.606  13.862  12.784  0.0574  0.4514  0.0266
  447POSM   C3B 5245   4.461  13.970  12.368  0.2588  0.1119  0.1386
  447POSM   C4B 5246   4.036  14.075  12.259  0.1359  0.0697 -0.1733
  448POSM   NC3 5247   6.909  15.275  12.940  0.2739 -0.1253 -0.5039
  448POSM   PO4 5248   7.144  15.004  12.973  0.0653 -0.2470 -0.1665
  448POSM   AM1 5249   7.265  14.941  12.679 -0.0091  0.0151  0.2686
  448POSM   AM2 5250   7.463  14.913  12.505 -0.2744 -0.1597  0.0247
  448POSM   T1A 5251   7.040  14.728  12.227  0.0735  0.2498 -0.0083
  448POSM   C2A 5252   7.040  14.667  11.785  0.2482 -0.1531  0.1105
  448POSM   C3A 5253   7.170  14.660  11.363  0.3156 -0.1420  0.1010
  448POSM   C1B 5254   7.588  14.769  12.155  0.1092  0.0414  0.0977
  448POSM   D2B 5255   7.555  14.780  11.677  0.1833  0.2238 -0.1399
  448POSM   C3B 5256   7.880  15.006  11.400 -0.0760 -0.2543  0.3141
  448POSM   C4B 5257   8.004  14.829  11.010  0.2678  0.1846 -0.1602
  449DOPC   NC3 5258   6.833  18.175  12.362  0.3256  0.0562 -0.0518
  449DOPC   PO4 5259   7.004  17.917  12.588  0.1396  0.1264 -0.0217
  449DOPC   GL1 5260   7.027  17.725  12.282  0.1905  0.4858  0.2095
  449DOPC   GL2 5261   7.178  17.639  12.045 -0.0075  0.0932 -0.0425
  449DOPC   C1A 5262   6.823  17.980  11.923 -0.0425  0.2352  0.1045
  449DOPC   D2A 5263   6.797  17.810  11.412 -0.1683 -0.1243 -0.0655
  449DOPC   C3A 5264   6.780  17.418  11.194  0.3935  0.0682  0.1235
  449DOPC   C4A 5265   6.562  17.270  10.829  0.1591 -0.0554 -0.1741
  449DOPC   C1B 5266   7.606  17.629  11.817 -0.2660 -0.2152  0.0757
  449DOPC   D2B 5267   7.757  17.548  11.338  0.0076 -0.1187 -0.0213
  449DOPC   C3B 5268   8.013  17.258  11.588  0.0810  0.1908  0.1097
  449DOPC   C4B 5269   8.281  16.989  11.778  0.1685  0.1180 -0.2273
  450DOPC   NC3 5270   8.381  19.241  12.212  0.1137  0.2196 -0.1497
  450DOPC   PO4 5271   7.979  19.171  12.170 -0.0784 -0.1495  0.0139
  450DOPC   GL1 5272   7.821  19.155  11.763  0.1259 -0.2624 -0.1800
  450DOPC   GL2 5273   7.838  18.830  11.789  0.2353  0.1322 -0.1919
  450DOPC   C1A 5274   8.122  19.328  11.455 -0.3644 -0.1524 -0.0977
  450DOPC   D2A 5275   8.187  19.689  11.163 -0.1823 -0.0023 -0.4024
  450DOPC   C3A 5276   8.371  19.612  10.772  0.0769 -0.0427 -0.1172
  450DOPC   C4A 5277   8.740  19.387  10.696  0.1346  0.0827  0.0477
  450DOPC   C1B 5278   7.706  18.961  11.325 -0.0080  0.3193 -0.1662
  450DOPC   D2B 5279   7.540  19.072  10.933  0.1569 -0.2284 -0.0150
  450DOPC   C3B 5280   7.110  18.934  10.787  0.1534  0.1393 -0.2515
  450DOPC   C4B 5281   6.823  18.637  11.062 -0.1542  0.0756 -0.0135
  451POSM   NC3 5282   6.252  20.901  13.412 -0.2827  0.0327 -0.0188
  451POSM   PO4 5283   6.483  21.093  13.156 -0.2239  0.2734 -0.1375
  451POSM   AM1 5284   6.635  20.959  12.899 -0.1329  0.0558 -0.0741
  451POSM   AM2 5285   6.676  20.721  12.796 -0.3538 -0.0144 -0.0555
  451POSM   T1A 5286   6.967  21.002  12.510  0.2727  0.1999 -0.0746
  451POSM   C2A 5287   7.374  21.159  12.266 -0.0947  0.1438 -0.1094
  451POSM   C3A 5288   7.814  21.064  12.142  0.0038 -0.1443 -0.0549
  451POSM   C1B 5289   6.544  20.771  12.507  0.1472 -0.2046  0.0218
  451POSM   D2B 5290   6.305  20.531  12.225  0.0738 -0.2364 -0.1867
  451POSM   C3B 5291   6.444  20.351  11.779  0.0194  0.0196 -0.0939
  451POSM   C4B 5292   6.417  20.613  11.416  0.0143  0.0177 -0.0612
  452DOPC   NC3 5293  10.195  15.108  13.359  0.3414  0.1050 -0.2135
  452DOPC   PO4 5294  10.253  14.988  12.996  0.0062 -0.3434  0.2260
  452DOPC   GL1 5295  10.351  14.948  12.636  0.0457 -0.1675 -0.1260
  452DOPC   GL2 5296  10.145  14.861  12.455  0.1355  0.1025  0.1157
  452DOPC   C1A 5297  10.646  15.014  12.309  0.0650  0.2419  0.0217
  452DOPC   D2A 5298  10.881  15.079  11.832 -0.0867  0.3333 -0.1934
  452DOPC   C3A 5299  10.545  14.841  11.637 -0.0732  0.2720  0.0235
  452DOPC   C4A 5300  10.563  14.664  11.236 -0.1251  0.2918  0.2652
  452DOPC   C1B 5301  10.188  14.837  11.996 -0.1787  0.0748  0.3076
  452DOPC   D2B 5302  10.062  14.575  11.667  0.0521 -0.1935  0.4232
  452DOPC   C3B 5303  10.023  14.977  11.417 -0.0206 -0.0024  0.0793
  452DOPC   C4B 5304  10.090  15.458  11.283  0.2016 -0.0037 -0.0729
  453POSM   NC3 5305   1.646  21.882  14.041 -0.0755  0.1943  0.0583
  453POSM   PO4 5306   1.275  21.847  14.024  0.1108 -0.3353 -0.1029
  453POSM   AM1 5307   1.355  21.746  13.691  0.2131 -0.2888 -0.3510
  453POSM   AM2 5308   1.612  21.862  13.550  0.1208 -0.2444  0.3024
  453POSM   T1A 5309   1.487  21.432  13.309 -0.2084 -0.3067  0.0982
  453POSM   C2A 5310   1.600  21.037  13.084 -0.0053  0.1018 -0.0615
  453POSM   C3A 5311   1.575  20.578  13.057 -0.1769 -0.2742 -0.0770
  453POSM   C1B 5312   1.503  21.933  13.260 -0.1678  0.0721 -0.2326
  453POSM   D2B 5313   1.290  21.749  12.814  0.1906 -0.1291 -0.1184
  453POSM   C3B 5314   1.154  22.048  12.465  0.0829  0.0655  0.2305
  453POSM   C4B 5315   1.321  22.378  12.163  0.2385 -0.1916 -0.0143
  454DOPC   NC3 5316   5.541  17.112  13.288 -0.0839  0.1272  0.1790
  454DOPC   PO4 5317   5.977  17.103  13.148  0.0720  0.1061 -0.1649
  454DOPC   GL1 5318   5.937  16.981  12.822 -0.2520  0.2346 -0.0329
  454DOPC   GL2 5319   6.069  16.803  12.539  0.2869 -0.2418 -0.0551
  454DOPC   C1A 5320   5.815  17.183  12.419  0.2036 -0.1638 -0.1269
  454DOPC   D2A 5321   5.768  17.059  11.955 -0.0928 -0.1696 -0.0326
  454DOPC   C3A 5322   5.405  17.103  11.644  0.1021 -0.0025  0.1479
  454DOPC   C4A 5323   5.460  17.561  11.538  0.0478 -0.2111  0.1812
  454DOPC   C1B 5324   6.331  17.025  12.189 -0.0158  0.1452 -0.1039
  454DOPC   D2B 5325   6.162  17.321  11.890  0.0986  0.0594 -0.0142
  454DOPC   C3B 5326   5.982  17.297  11.505  0.0833  0.0862  0.1856
  454DOPC   C4B 5327   5.588  17.190  11.222 -0.3006  0.0009  0.5326
  455POSM   NC3 5328   4.101  19.311  13.495  0.0835 -0.3000 -0.0245
  455POSM   PO4 5329   4.310  19.539  13.244 -0.0434  0.0410  0.2644
  455POSM   AM1 5330   4.323  19.644  12.912  0.0748  0.1765 -0.1391
  455POSM   AM2 5331   4.157  19.763  12.746  0.2117 -0.0441  0.0069
  455POSM   T1A 5332   4.471  19.621  12.411  0.4454  0.2207 -0.0591
  455POSM   C2A 5333   4.413  19.647  11.969 -0.1957 -0.2509  0.2030
  455POSM   C3A 5334   4.252  19.588  11.580  0.4435 -0.0895  0.1040
  455POSM   C1B 5335   4.110  20.040  12.515 -0.3500 -0.0378  0.2404
  455POSM   D2B 5336   4.084  20.505  12.427 -0.3181  0.0690  0.2036
  455POSM   C3B 5337   3.808  20.899  12.367 -0.1610  0.1905 -0.0855
  455POSM   C4B 5338   3.802  21.285  12.181 -0.1161 -0.0255 -0.0828
  456DOPE   NH3 5339   5.487  17.752  12.518 -0.0835  0.1306  0.1678
  456DOPE   PO4 5340   5.346  17.752  12.813 -0.1549 -0.1505 -0.2666
  456DOPE   GL1 5341   5.052  17.735  12.420 -0.1817 -0.1665  0.0590
  456DOPE   GL2 5342   5.103  18.022  12.380 -0.5577  0.1953  0.0106
  456DOPE   C1A 5343   5.119  17.812  11.915 -0.1686 -0.0740 -0.3071
  456DOPE   D2A 5344   4.977  17.430  11.619 -0.3523  0.1463  0.0167
  456DOPE   C3A 5345   4.718  17.520  11.254  0.1013 -0.0997  0.1058
  456DOPE   C4A 5346   4.231  17.490  11.183  0.0877 -0.0329  0.0168
  456DOPE   C1B 5347   5.100  18.304  12.015 -0.2499 -0.1425  0.2832
  456DOPE   D2B 5348   4.967  18.251  11.634  0.1871  0.0660  0.1364
  456DOPE   C3B 5349   5.055  17.865  11.413 -0.2611  0.5745 -0.0318
  456DOPE   C4B 5350   5.236  17.606  11.097  0.1437 -0.1026 -0.1197
  457DOPC   NC3 5351  11.673  12.688  12.816 -0.0326 -0.0018  0.0671
  457DOPC   PO4 5352  11.964  12.454  12.676 -0.1071  0.3208 -0.1160
  457DOPC   GL1 5353  11.896  12.575  12.276  0.1385  0.5336  0.1550
  457DOPC   GL2 5354  11.777  12.280  12.228 -0.3710 -0.0320 -0.0877
  457DOPC   C1A 5355  11.585  12.784  11.950  0.5276 -0.0106 -0.1345
  457DOPC   D2A 5356  11.483  13.135  11.662 -0.1816 -0.2990 -0.1531
  457DOPC   C3A 5357  10.980  13.223  11.515 -0.3771  0.5270 -0.0594
  457DOPC   C4A 5358  10.671  13.028  11.236  0.0978 -0.0608 -0.0910
  457DOPC   C1B 5359  11.738  11.858  12.032 -0.2560 -0.1070  0.1150
  457DOPC   D2B 5360  11.846  11.385  11.961 -0.1687  0.5031  0.3218
  457DOPC   C3B 5361  11.834  10.989  11.767  0.0045  0.1031  0.1900
  457DOPC   C4B 5362  11.825  10.650  11.457 -0.3000  0.3277 -0.1433
  458DOPC   NC3 5363   4.946  10.322  14.287  0.2923  0.1017  0.1776
  458DOPC   PO4 5364   4.561  10.311  14.154  0.0698  0.1117 -0.1098
  458DOPC   GL1 5365   4.593  10.190  13.763  0.0790  0.2686 -0.0370
  458DOPC   GL2 5366   4.769  10.311  13.659  0.0910 -0.0095  0.1395
  458DOPC   C1A 5367   4.720   9.875  13.430  0.1654 -0.0646  0.0772
  458DOPC   D2A 5368   4.799   9.496  13.208 -0.0591 -0.1836 -0.0494
  458DOPC   C3A 5369   4.532   9.335  12.848  0.2869 -0.1492 -0.4108
  458DOPC   C4A 5370   4.296   8.987  12.702  0.1352  0.2510  0.0728
  458DOPC   C1B 5371   4.490  10.282  13.314 -0.3380 -0.3899 -0.1127
  458DOPC   D2B 5372   4.240  10.290  12.883  0.1243  0.1615  0.0527
  458DOPC   C3B 5373   4.315  10.270  12.419 -0.0110 -0.0137 -0.0094
  458DOPC   C4B 5374   4.328   9.942  12.155  0.0343  0.1495  0.0551
  459DOPC   NC3 5375   2.934  17.861  13.333  0.1432  0.0312  0.1164
  459DOPC   PO4 5376   3.045  18.202  13.199  0.0543 -0.1550  0.1392
  459DOPC   GL1 5377   2.924  18.234  12.840  0.0655 -0.3327  0.5920
  459DOPC   GL2 5378   3.183  18.116  12.707  0.2042 -0.2043  0.1559
  459DOPC   C1A 5379   2.710  18.414  12.457  0.1985  0.1124 -0.2643
  459DOPC   D2A 5380   2.609  18.697  12.062 -0.0056  0.1386 -0.1692
  459DOPC   C3A 5381   2.645  18.622  11.626  0.2256  0.1588  0.0480
  459DOPC   C4A 5382   2.947  18.635  11.269 -0.0497 -0.4109 -0.0041
  459DOPC   C1B 5383   3.039  18.093  12.246  0.1627  0.1328 -0.1887
  459DOPC   D2B 5384   2.994  17.989  11.815  0.1005 -0.1240  0.0963
  459DOPC   C3B 5385   3.108  17.619  11.575  0.0305  0.1727 -0.1908
  459DOPC   C4B 5386   3.198  17.122  11.625 -0.0724 -0.1762  0.0517
  460DOPC   NC3 5387  12.676  19.406  12.073 -0.0740  0.0941  0.3241
  460DOPC   PO4 5388  12.923  19.217  11.840 -0.1203  0.1334 -0.4176
  460DOPC   GL1 5389  12.776  19.058  11.485 -0.0189  0.5892  0.5289
  460DOPC   GL2 5390  12.880  19.245  11.287 -0.1536  0.0125 -0.0993
  460DOPC   C1A 5391  12.449  18.847  11.184 -0.0118 -0.1094 -0.1533
  460DOPC   D2A 5392  12.246  18.999  10.813 -0.1350  0.0084  0.0358
  460DOPC   C3A 5393  11.892  19.331  10.669 -0.0463  0.3181 -0.1946
  460DOPC   C4A 5394  11.645  19.596  10.381 -0.1651  0.0082 -0.1519
  460DOPC   C1B 5395  12.816  19.149  10.867 -0.2264 -0.0615  0.1288
  460DOPC   D2B 5396  12.686  19.076  10.377 -0.0942 -0.0354  0.0950
  460DOPC   C3B 5397  12.875  19.413  10.126  0.0135 -0.1957 -0.1695
  460DOPC   C4B 5398  13.030  19.848  10.203  0.0681 -0.1024 -0.0376
  461DOPS   CNO 5399  12.093  17.691  12.100 -0.2307 -0.3336 -0.1213
  461DOPS   PO4 5400  11.893  17.730  11.795  0.2071  0.0740  0.2827
  461DOPS   GL1 5401  11.609  17.600  11.546 -0.4111  0.1454 -0.2795
  461DOPS   GL2 5402  11.767  17.338  11.487 -0.2433 -0.0550 -0.1615
  461DOPS   C1A 5403  11.672  17.629  11.072 -0.2077  0.1265 -0.3330
  461DOPS   D2A 5404  11.897  17.863  10.729 -0.0036  0.4111 -0.1349
  461DOPS   C3A 5405  11.921  17.570  10.343 -0.1589  0.1918 -0.1459
  461DOPS   C4A 5406  11.954  17.103  10.428  0.1134  0.2057 -0.0361
  461DOPS   C1B 5407  11.459  17.111  11.192 -0.3311  0.1094 -0.2926
  461DOPS   D2B 5408  11.191  16.794  10.997 -0.1562  0.1265 -0.4681
  461DOPS   C3B 5409  11.153  16.396  10.973 -0.0115 -0.1934  0.2568
  461DOPS   C4B 5410  11.156  16.039  10.618  0.1220 -0.1859  0.0616
  462DOPC   NC3 5411  11.444  17.746  12.551  0.2827 -0.3181  0.1673
  462DOPC   PO4 5412  11.055  17.740  12.410  0.0441  0.0837 -0.0347
  462DOPC   GL1 5413  10.977  17.641  12.048 -0.2430 -0.2573  0.3240
  462DOPC   GL2 5414  10.807  17.467  11.846  0.0764  0.1100  0.3986
  462DOPC   C1A 5415  11.135  17.792  11.671 -0.1035  0.0339 -0.3409
  462DOPC   D2A 5416  11.224  18.192  11.422  0.1763  0.0906 -0.0180
  462DOPC   C3A 5417  10.938  18.309  11.110  0.0372 -0.0628  0.0455
  462DOPC   C4A 5418  10.934  18.311  10.727  0.2379 -0.0220 -0.2986
  462DOPC   C1B 5419  10.460  17.220  11.670 -0.2691 -0.1206 -0.1287
  462DOPC   D2B 5420  10.351  16.982  11.343 -0.0997 -0.0593 -0.0360
  462DOPC   C3B 5421  10.612  16.967  10.929 -0.0890 -0.0858  0.1827
  462DOPC   C4B 5422  10.874  17.276  10.748  0.0771  0.0019 -0.1739
  463DOPS   CNO 5423  11.382  18.277  12.347 -0.3130 -0.1755  0.1309
  463DOPS   PO4 5424  11.156  18.520  12.282 -0.0533  0.2285 -0.3255
  463DOPS   GL1 5425  11.151  18.556  11.825 -0.0779 -0.1316 -0.3178
  463DOPS   GL2 5426  10.916  18.625  11.681 -0.2480 -0.2203  0.0307
  463DOPS   C1A 5427  11.438  18.627  11.458  0.0844 -0.1130 -0.1984
  463DOPS   D2A 5428  11.595  18.369  11.161  0.0754 -0.2913 -0.1541
  463DOPS   C3A 5429  11.301  18.030  10.970 -0.1726  0.3031 -0.0287
  463DOPS   C4A 5430  11.140  17.607  11.083 -0.2243 -0.2094 -0.0711
  463DOPS   C1B 5431  10.621  18.710  11.315  0.2278 -0.2459  0.0031
  463DOPS   D2B 5432  10.455  18.583  10.893  0.1202  0.1846 -0.1245
  463DOPS   C3B 5433  10.024  18.594  10.767 -0.0307  0.2010  0.2362
  463DOPS   C4B 5434   9.630  18.378  10.628  0.0967  0.2658  0.2922
  464POSM   NC3 5435  14.494  14.022  11.911 -0.0980 -0.0702  0.2634
  464POSM   PO4 5436  14.308  13.800  12.207 -0.1157 -0.0260  0.2875
  464POSM   AM1 5437  14.118  13.774  11.909  0.2763  0.1378  0.3627
  464POSM   AM2 5438  14.121  13.586  11.722  0.0478  0.1255 -0.1293
  464POSM   T1A 5439  13.769  13.817  11.497  0.1316  0.1176  0.1635
  464POSM   C2A 5440  13.780  14.113  11.108  0.0312 -0.4843 -0.5651
  464POSM   C3A 5441  14.223  14.337  11.052  0.2701 -0.0658 -0.3833
  464POSM   C1B 5442  14.144  13.416  11.423 -0.2799 -0.0998 -0.4155
  464POSM   D2B 5443  14.050  13.387  10.960 -0.2824  0.1125 -0.2593
  464POSM   C3B 5444  13.744  13.262  10.729 -0.1301 -0.0501 -0.6079
  464POSM   C4B 5445  13.296  13.170  10.742 -0.1233  0.2084  0.2841
  465DOPS   CNO 5446   4.922  17.453  13.076  0.1241  0.0830  0.0172
  465DOPS   PO4 5447   5.190  17.262  12.944 -0.5647  0.1933  0.0559
  465DOPS   GL1 5448   5.239  16.889  12.903 -0.0496 -0.0513 -0.0480
  465DOPS   GL2 5449   5.504  16.876  12.802 -0.0769  0.1023  0.0541
  465DOPS   C1A 5450   5.065  16.696  12.509 -0.1613  0.1227  0.1528
  465DOPS   D2A 5451   5.219  16.865  12.099 -0.0024 -0.1406 -0.0545
  465DOPS   C3A 5452   5.534  16.653  11.850  0.2223  0.1009 -0.0599
  465DOPS   C4A 5453   5.878  16.774  11.562 -0.0692 -0.1665 -0.0605
  465DOPS   C1B 5454   5.577  16.644  12.360 -0.0461 -0.0687 -0.0251
  465DOPS   D2B 5455   5.960  16.551  12.070 -0.0858 -0.0159  0.1788
  465DOPS   C3B 5456   6.016  16.280  11.685 -0.2461 -0.4171 -0.2845
  465DOPS   C4B 5457   5.801  16.293  11.323  0.0905  0.0906  0.1317
  466DOPS   CNO 5458   0.547  15.389  14.878  0.4915  0.2266  0.2650
  466DOPS   PO4 5459   0.487  15.670  14.608 -0.1474 -0.2684 -0.0903
  466DOPS   GL1 5460   0.310  15.553  14.259 -0.1281  0.0306  0.0794
  466DOPS   GL2 5461   0.543  15.701  14.091  0.1230 -0.1342 -0.1742
  466DOPS   C1A 5462   0.219  15.566  13.792 -0.1986 -0.1002  0.2202
  466DOPS   D2A 5463   0.380  15.503  13.349 -0.0133 -0.0354  0.1426
  466DOPS   C3A 5464   0.728  15.264  13.276  0.2360 -0.1014 -0.1581
  466DOPS   C4A 5465   1.191  15.166  13.283 -0.4947 -0.2355  0.4466
  466DOPS   C1B 5466   0.359  16.141  13.965 -0.2577 -0.2549  0.0908
  466DOPS   D2B 5467   0.049  16.308  13.687  0.2415 -0.1330 -0.1097
  466DOPS   C3B 5468   0.026  16.205  13.248 -0.4616  0.2206  0.0449
  466DOPS   C4B 5469   0.244  16.319  12.875  0.0781 -0.0784  0.2914
  467DOPE   NH3 5470   4.731  16.921  13.098  0.0577  0.0032  0.1604
  467DOPE   PO4 5471   4.438  16.831  13.094  0.1680 -0.3158 -0.2480
  467DOPE   GL1 5472   4.280  16.870  12.730 -0.0060  0.0634  0.4100
  467DOPE   GL2 5473   3.982  16.958  12.747 -0.2328  0.1284  0.1114
  467DOPE   C1A 5474   4.529  16.829  12.311 -0.0305  0.0601  0.1203
  467DOPE   D2A 5475   4.743  16.950  11.906 -0.3854 -0.2379 -0.1405
  467DOPE   C3A 5476   5.047  16.698  11.665  0.0612  0.2546 -0.0132
  467DOPE   C4A 5477   5.305  16.695  11.297  0.0920 -0.0135 -0.1420
  467DOPE   C1B 5478   3.883  16.900  12.273  0.4511 -0.1119  0.1568
  467DOPE   D2B 5479   3.593  16.745  11.963  0.4113  0.0571  0.0529
  467DOPE   C3B 5480   3.598  16.918  11.477 -0.2362 -0.0703 -0.0456
  467DOPE   C4B 5481   3.767  17.248  11.140  0.0163  0.1565 -0.0084
  468DOPE   NH3 5482  13.200  12.328  12.470  0.1824 -0.2237 -0.1880
  468DOPE   PO4 5483  13.182  12.029  12.388 -0.2189 -0.0292  0.1706
  468DOPE   GL1 5484  13.062  12.036  11.995 -0.2017  0.3676 -0.0280
  468DOPE   GL2 5485  13.279  11.851  11.882  0.0056 -0.1757  0.0378
  468DOPE   C1A 5486  12.770  11.729  11.844 -0.1547  0.0679 -0.3307
  468DOPE   D2A 5487  12.573  11.512  11.454 -0.0358 -0.3161  0.0632
  468DOPE   C3A 5488  12.652  11.094  11.331  0.0742 -0.0175 -0.2916
  468DOPE   C4A 5489  12.819  10.717  11.162  0.3467  0.0856  0.0002
  468DOPE   C1B 5490  13.175  11.767  11.440 -0.1509 -0.2228  0.2347
  468DOPE   D2B 5491  13.050  11.407  11.204  0.0295  0.2014  0.2423
  468DOPE   C3B 5492  12.672  11.489  10.932  0.0884 -0.1274 -0.0466
  468DOPE   C4B 5493  12.517  11.685  10.593 -0.0597 -0.2599  0.2799
  469DOPE   NH3 5494  10.020  20.818  12.782 -0.0661  0.2484  0.1839
  469DOPE   PO4 5495   9.751  20.969  12.709 -0.4238 -0.2445 -0.1005
  469DOPE   GL1 5496   9.542  21.003  12.267  0.2475  0.1760 -0.1144
  469DOPE   GL2 5497   9.366  20.780  12.302 -0.1216  0.3156  0.1106
  469DOPE   C1A 5498   9.594  21.057  11.776  0.2052 -0.0169 -0.2025
  469DOPE   D2A 5499   9.540  21.337  11.463 -0.1651  0.1180  0.0078
  469DOPE   C3A 5500   9.843  21.432  11.137  0.0276  0.0482 -0.1101
  469DOPE   C4A 5501  10.108  21.685  10.846 -0.0414  0.0586 -0.3014
  469DOPE   C1B 5502   9.049  21.078  12.206  0.2524  0.1345  0.5058
  469DOPE   D2B 5503   8.806  21.464  12.044 -0.2565 -0.1803 -0.3619
  469DOPE   C3B 5504   9.075  21.707  11.696 -0.0135  0.0252 -0.0640
  469DOPE   C4B 5505   9.096  22.137  11.592 -0.0124  0.0061 -0.0408
  470DOPC   NC3 5506   8.198  16.804  12.808 -0.1197  0.0555 -0.0524
  470DOPC   PO4 5507   8.355  17.177  12.846 -0.1920 -0.0370 -0.1177
  470DOPC   GL1 5508   8.247  17.341  12.457 -0.0370  0.0455  0.2413
  470DOPC   GL2 5509   8.559  17.356  12.361 -0.1007  0.2661 -0.2043
  470DOPC   C1A 5510   8.237  17.463  11.962  0.0323 -0.0448  0.0992
  470DOPC   D2A 5511   8.381  17.762  11.614 -0.0967  0.1360  0.0237
  470DOPC   C3A 5512   8.692  17.668  11.265 -0.0347 -0.0214 -0.1366
  470DOPC   C4A 5513   8.948  17.645  10.902 -0.1889 -0.4792 -0.0803
  470DOPC   C1B 5514   8.632  17.096  12.055  0.0617  0.1029 -0.4071
  470DOPC   D2B 5515   8.864  16.860  11.726  0.2912 -0.1607  0.3016
  470DOPC   C3B 5516   8.963  16.580  11.333  0.2689  0.2613 -0.0047
  470DOPC   C4B 5517   8.813  16.547  10.907  0.0565  0.0893  0.0611
  471DOPC   NC3 5518  11.856  15.369  12.841 -0.1224  0.0844  0.1648
  471DOPC   PO4 5519  11.925  15.507  12.503 -0.3586 -0.0282 -0.0480
  471DOPC   GL1 5520  11.703  15.574  12.153 -0.1094 -0.0954  0.3091
  471DOPC   GL2 5521  11.755  15.293  11.997 -0.1289  0.0584  0.0179
  471DOPC   C1A 5522  11.854  15.802  11.753  0.0170  0.0250  0.1651
  471DOPC   D2A 5523  12.297  15.948  11.637 -0.2157 -0.1356  0.0806
  471DOPC   C3A 5524  12.278  15.968  11.153 -0.1224 -0.0283  0.2116
  471DOPC   C4A 5525  12.115  15.957  10.744  0.1069  0.1084 -0.1479
  471DOPC   C1B 5526  11.705  15.040  11.600 -0.2948  0.1913 -0.0592
  471DOPC   D2B 5527  11.690  15.046  11.137 -0.1871  0.1657 -0.0325
  471DOPC   C3B 5528  11.583  14.846  10.734  0.1495 -0.1023  0.0385
  471DOPC   C4B 5529  11.182  14.774  10.501  0.0202 -0.2570 -0.3848
  472POSM   NC3 5530   7.301  17.030  13.395 -0.0157  0.0372 -0.1694
  472POSM   PO4 5531   6.992  17.006  13.148 -0.0704 -0.0993  0.2862
  472POSM   AM1 5532   6.981  16.994  12.767  0.3437  0.0793 -0.1819
  472POSM   AM2 5533   6.926  17.174  12.574  0.0012 -0.1941  0.3778
  472POSM   T1A 5534   6.927  16.791  12.272 -0.2487  0.3412  0.0774
  472POSM   C2A 5535   6.845  16.892  11.813  0.0408  0.1570  0.0556
  472POSM   C3A 5536   7.009  17.035  11.457  0.3330 -0.0336 -0.0778
  472POSM   C1B 5537   6.769  17.342  12.382  0.3495 -0.1173  0.6208
  472POSM   D2B 5538   6.757  17.388  11.855 -0.0748  0.0878 -0.2159
  472POSM   C3B 5539   6.481  17.147  11.548  0.0885  0.0311 -0.1055
  472POSM   C4B 5540   6.307  16.940  11.199  0.1537  0.0864 -0.2191
  473POSM   NC3 5541   7.174  19.774  12.790 -0.1245  0.1094  0.0811
  473POSM   PO4 5542   6.763  19.762  12.817  0.1036  0.3064  0.1236
  473POSM   AM1 5543   6.578  19.980  12.663  0.1048  0.3366 -0.1762
  473POSM   AM2 5544   6.513  20.285  12.653  0.0655 -0.3013 -0.2822
  473POSM   T1A 5545   6.276  19.972  12.250 -0.0777  0.0858 -0.4255
  473POSM   C2A 5546   6.172  19.885  11.827  0.0131 -0.2520 -0.0972
  473POSM   C3A 5547   6.021  19.707  11.396  0.0337  0.0181 -0.3499
  473POSM   C1B 5548   6.676  20.219  12.314 -0.1823  0.3152 -0.1103
  473POSM   D2B 5549   6.949  20.137  11.934 -0.0989  0.1910 -0.1624
  473POSM   C3B 5550   6.883  20.372  11.484  0.0920 -0.0269 -0.0015
  473POSM   C4B 5551   6.793  20.486  11.071  0.2882 -0.1380 -0.3040
  474DOPE   NH3 5552   7.541  15.808  12.836 -0.0776  0.1558 -0.6334
  474DOPE   PO4 5553   7.272  15.657  12.899  0.1285  0.2232  0.1021
  474DOPE   GL1 5554   7.293  15.642  12.496 -0.1539  0.2257 -0.3248
  474DOPE   GL2 5555   7.547  15.440  12.475  0.3085 -0.2895  0.2448
  474DOPE   C1A 5556   7.292  15.663  12.045  0.0102  0.1347  0.0902
  474DOPE   D2A 5557   7.081  15.451  11.677 -0.0775 -0.1487 -0.0414
  474DOPE   C3A 5558   6.855  15.114  11.530  0.1240 -0.3213 -0.1340
  474DOPE   C4A 5559   6.458  14.957  11.251  0.1675  0.1114  0.4728
  474DOPE   C1B 5560   7.769  15.754  12.236  0.1356  0.0771  0.0777
  474DOPE   D2B 5561   7.946  15.973  11.885 -0.1199  0.0507 -0.1004
  474DOPE   C3B 5562   8.351  15.848  11.690  0.0083  0.0065 -0.0660
  474DOPE   C4B 5563   8.776  15.893  11.774  0.0419  0.0309 -0.4315
  475DOPE   NH3 5564   2.383  17.487  13.845  0.0720  0.1347  0.1384
  475DOPE   PO4 5565   2.565  17.489  13.556  0.0305 -0.1853 -0.1728
  475DOPE   GL1 5566   2.313  17.463  13.218  0.1177 -0.0657 -0.3812
  475DOPE   GL2 5567   2.124  17.211  13.299  0.3233 -0.2026  0.0944
  475DOPE   C1A 5568   2.230  17.592  12.820  0.0793 -0.0890  0.1275
  475DOPE   D2A 5569   2.434  17.506  12.436  0.0951 -0.0527 -0.2344
  475DOPE   C3A 5570   2.584  17.855  12.168 -0.2722  0.1428  0.1876
  475DOPE   C4A 5571   2.635  18.246  11.994 -0.2149 -0.1197 -0.1115
  475DOPE   C1B 5572   1.648  17.221  13.380 -0.1296 -0.1313 -0.0578
  475DOPE   D2B 5573   1.293  17.094  13.224  0.3772 -0.1811 -0.3275
  475DOPE   C3B 5574   1.140  16.700  12.947  0.0114  0.0307 -0.0508
  475DOPE   C4B 5575   1.173  16.353  12.637 -0.0409 -0.2223  0.0647
  476DOPE   NH3 5576   8.069  24.024  12.881  0.4994  0.1842  0.0895
  476DOPE   PO4 5577   7.843  23.827  12.982 -0.0665 -0.0750 -0.0748
  476DOPE   GL1 5578   7.783  23.683  12.662  0.0456 -0.0173  0.0431
  476DOPE   GL2 5579   8.037  23.720  12.480 -0.3876 -0.0782  0.0788
  476DOPE   C1A 5580   7.378  23.539  12.476 -0.2915  0.1498  0.0282
  476DOPE   D2A 5581   7.126  23.746  12.104 -0.3017  0.0767  0.1420
  476DOPE   C3A 5582   6.707  23.836  11.888 -0.1150 -0.0230 -0.0056
  476DOPE   C4A 5583   6.292  23.894  11.667  0.0598 -0.0227 -0.0787
  476DOPE   C1B 5584   7.941  23.495  12.103  0.1471 -0.2231  0.0537
  476DOPE   D2B 5585   8.021  23.446  11.625  0.0030 -0.2517  0.0613
  476DOPE   C3B 5586   8.233  23.589  11.213 -0.2987  0.1163 -0.0052
  476DOPE   C4B 5587   8.604  23.685  10.958  0.1508 -0.2849  0.1248
  477DOPC   NC3 5588   0.898  11.091  14.032  0.1319 -0.1711 -0.0018
  477DOPC   PO4 5589   1.076  10.804  14.200  0.1904  0.1785  0.0940
  477DOPC   GL1 5590   1.011  10.621  13.919  0.2520  0.0085 -0.0618
  477DOPC   GL2 5591   0.697  10.598  13.958  0.1796  0.0837 -0.0969
  477DOPC   C1A 5592   1.064  10.884  13.530 -0.0042 -0.1580 -0.2395
  477DOPC   D2A 5593   1.084  11.146  13.177 -0.0376 -0.1222 -0.1079
  477DOPC   C3A 5594   1.151  11.265  12.720  0.0942 -0.3751 -0.1508
  477DOPC   C4A 5595   1.455  11.224  12.412  0.0466  0.0149 -0.0686
  477DOPC   C1B 5596   0.636  10.611  13.517 -0.2051  0.1014  0.0430
  477DOPC   D2B 5597   0.661  10.872  13.166 -0.2362 -0.3181 -0.1759
  477DOPC   C3B 5598   0.947  10.832  12.795 -0.2514 -0.0918 -0.0731
  477DOPC   C4B 5599   1.198  10.829  12.435 -0.2267 -0.2298  0.3955
  478DOPC   NC3 5600   2.571  18.442  13.992 -0.2872 -0.1046  0.1702
  478DOPC   PO4 5601   2.391  18.804  13.911  0.1710 -0.7219  0.1379
  478DOPC   GL1 5602   2.280  18.743  13.488 -0.1737  0.3390 -0.0839
  478DOPC   GL2 5603   2.465  18.931  13.320  0.2461 -0.1521  0.1764
  478DOPC   C1A 5604   1.931  19.003  13.282 -0.1490 -0.0457 -0.2900
  478DOPC   D2A 5605   1.701  18.912  12.849 -0.0045 -0.0702  0.0552
  478DOPC   C3A 5606   1.673  18.472  12.761  0.2064  0.2635  0.0990
  478DOPC   C4A 5607   1.558  18.206  12.420  0.1032  0.0178 -0.2268
  478DOPC   C1B 5608   2.344  18.843  12.882  0.1067  0.0010 -0.1059
  478DOPC   D2B 5609   2.176  18.690  12.447  0.5323  0.0464 -0.2165
  478DOPC   C3B 5610   2.036  18.254  12.386 -0.1710  0.0164  0.2027
  478DOPC   C4B 5611   2.083  17.930  12.073  0.2671  0.1148  0.0205
  479POSM   NC3 5612   8.030  15.925  13.118 -0.0920 -0.2943  0.0653
  479POSM   PO4 5613   8.362  15.795  12.924 -0.2959  0.2507  0.1114
  479POSM   AM1 5614   8.435  15.923  12.613 -0.2218  0.1575 -0.0036
  479POSM   AM2 5615   8.666  15.903  12.455  0.0526  0.2507  0.0481
  479POSM   T1A 5616   8.318  16.162  12.192 -0.0495 -0.2434 -0.1497
  479POSM   C2A 5617   8.478  16.369  11.828  0.2075  0.0871 -0.1684
  479POSM   C3A 5618   8.599  16.212  11.416 -0.1108  0.0718  0.1056
  479POSM   C1B 5619   8.536  15.725  12.153  0.0716  0.2081 -0.0814
  479POSM   D2B 5620   8.439  15.352  11.827 -0.2741  0.2429 -0.1480
  479POSM   C3B 5621   8.026  15.446  11.627  0.0665 -0.3779  0.1741
  479POSM   C4B 5622   7.889  15.564  11.204 -0.0791  0.1763  0.0169
  480DOPC   NC3 5623   4.587  21.624  13.302  0.1204  0.2107  0.1819
  480DOPC   PO4 5624   4.415  21.875  13.141  0.3061  0.0483  0.1168
  480DOPC   GL1 5625   4.358  21.740  12.789  0.1385  0.4368 -0.2047
  480DOPC   GL2 5626   4.524  21.462  12.821 -0.0184 -0.0991 -0.2243
  480DOPC   C1A 5627   4.550  21.826  12.372  0.1386 -0.0585  0.1593
  480DOPC   D2A 5628   4.366  21.950  11.929  0.1104 -0.0864  0.0806
  480DOPC   C3A 5629   4.462  22.151  11.538 -0.3773  0.0303 -0.3941
  480DOPC   C4A 5630   4.410  22.379  11.137  0.3058  0.3150  0.4958
  480DOPC   C1B 5631   4.901  21.502  12.598  0.0980  0.1146 -0.0532
  480DOPC   D2B 5632   4.924  21.597  12.125  0.1487  0.5313 -0.1129
  480DOPC   C3B 5633   4.546  21.337  11.964 -0.0987  0.0232 -0.1619
  480DOPC   C4B 5634   4.181  21.496  11.684  0.3610 -0.0148  0.2628
  481DOPE   NH3 5635   7.095  12.585  13.864  0.2772 -0.0106 -0.1789
  481DOPE   PO4 5636   7.209  12.836  13.700  0.0130 -0.2176  0.0381
  481DOPE   GL1 5637   7.136  12.657  13.266 -0.0822 -0.3544 -0.6413
  481DOPE   GL2 5638   7.325  12.745  13.021  0.0844  0.0450  0.1894
  481DOPE   C1A 5639   6.903  12.387  12.916  0.0280  0.1401  0.1249
  481DOPE   D2A 5640   6.689  12.081  12.661 -0.2103  0.0380  0.2157
  481DOPE   C3A 5641   6.247  12.037  12.623  0.0720  0.0676  0.2107
  481DOPE   C4A 5642   5.840  12.210  12.519 -0.0990  0.0349  0.1756
  481DOPE   C1B 5643   7.626  12.661  12.677  0.0108  0.2344  0.3057
  481DOPE   D2B 5644   7.656  12.585  12.246  0.0897  0.0453  0.1466
  481DOPE   C3B 5645   7.599  12.681  11.840  0.0237  0.1322 -0.1721
  481DOPE   C4B 5646   7.496  13.017  11.523  0.1722  0.1346 -0.3025
  482DOPC   NC3 5647   4.218  20.364  12.942  0.2727  0.0382  0.0375
  482DOPC   PO4 5648   4.092  20.734  13.103  0.2289 -0.0392  0.5089
  482DOPC   GL1 5649   3.793  20.738  12.956 -0.2084 -0.1588 -0.0978
  482DOPC   GL2 5650   3.737  20.525  12.814 -0.2230  0.1421  0.2868
  482DOPC   C1A 5651   3.404  20.941  12.809 -0.1002 -0.1673  0.0497
  482DOPC   D2A 5652   3.001  21.105  12.710 -0.2301  0.0039  0.1696
  482DOPC   C3A 5653   2.828  21.027  12.240 -0.1124 -0.2892  0.0644
  482DOPC   C4A 5654   2.468  21.031  12.010  0.0374 -0.1310 -0.0935
  482DOPC   C1B 5655   3.414  20.584  12.453  0.1530  0.0471 -0.0580
  482DOPC   D2B 5656   3.126  20.483  12.076 -0.1488 -0.0211  0.1425
  482DOPC   C3B 5657   2.887  20.149  11.888  0.1243  0.2095 -0.0500
  482DOPC   C4B 5658   2.880  19.659  11.802  0.1729 -0.0309  0.1271
  483DOPE   NH3 5659   0.241  21.689  15.237  0.1306  0.0674 -0.0891
  483DOPE   PO4 5660   0.087  21.471  15.000  0.0246 -0.0940  0.1760
  483DOPE   GL1 5661  -0.062  21.324  14.616 -0.1464  0.0855 -0.0685
  483DOPE   GL2 5662   0.119  21.169  14.382  0.1335  0.0004  0.2542
  483DOPE   C1A 5663  -0.293  21.472  14.238  0.0367 -0.0277 -0.0532
  483DOPE   D2A 5664  -0.617  21.527  14.035  0.0689 -0.2722  0.1044
  483DOPE   C3A 5665  -0.541  21.358  13.600  0.1370 -0.0175  0.0537
  483DOPE   C4A 5666  -0.496  21.482  13.176  0.3024  0.0495  0.0445
  483DOPE   C1B 5667   0.007  21.194  13.931  0.0962  0.2706 -0.0388
  483DOPE   D2B 5668   0.047  21.347  13.500 -0.3038  0.1090  0.5752
  483DOPE   C3B 5669   0.270  21.269  13.067 -0.1209 -0.3592 -0.2806
  483DOPE   C4B 5670   0.239  21.045  12.652 -0.3330 -0.0150  0.5334
  484DOPE   NH3 5671   9.423  10.769  13.909  0.2949  0.1127 -0.0003
  484DOPE   PO4 5672   9.238  10.689  13.644  0.2601  0.1766 -0.1040
  484DOPE   GL1 5673   9.084  10.828  13.279 -0.0774  0.1373 -0.4388
  484DOPE   GL2 5674   8.917  11.053  13.289  0.2067 -0.1211 -0.2018
  484DOPE   C1A 5675   8.924  10.848  12.808 -0.1022 -0.2068 -0.0987
  484DOPE   D2A 5676   8.561  11.071  12.676  0.0053  0.1571  0.3287
  484DOPE   C3A 5677   8.602  11.431  12.369 -0.1606  0.0031 -0.2681
  484DOPE   C4A 5678   8.560  11.393  11.876 -0.1846 -0.2589 -0.0933
  484DOPE   C1B 5679   8.587  11.272  13.131  0.1971 -0.2526  0.1985
  484DOPE   D2B 5680   8.351  11.554  13.004  0.2883 -0.1288  0.1141
  484DOPE   C3B 5681   8.566  11.854  12.741  0.0850  0.3413 -0.1429
  484DOPE   C4B 5682   8.442  11.931  12.316  0.2226 -0.0544  0.3096
  485DOPC   NC3 5683   4.363  16.348  13.256 -0.0891  0.1510 -0.0850
  485DOPC   PO4 5684   4.711  16.537  13.435  0.2239  0.1680 -0.1860
  485DOPC   GL1 5685   4.859  16.513  13.038 -0.0407  0.1276 -0.3493
  485DOPC   GL2 5686   4.661  16.421  12.820  0.1133  0.0281  0.0714
  485DOPC   C1A 5687   5.095  16.207  12.793 -0.1362  0.0201  0.0837
  485DOPC   D2A 5688   5.221  15.982  12.404 -0.0516  0.2155  0.1690
  485DOPC   C3A 5689   5.226  15.712  11.982 -0.0961 -0.0892 -0.2078
  485DOPC   C4A 5690   5.181  15.539  11.534  0.0222 -0.1426  0.0106
  485DOPC   C1B 5691   4.727  16.344  12.387  0.2154  0.0951  0.2905
  485DOPC   D2B 5692   5.107  16.340  12.080 -0.0655  0.0436 -0.0748
  485DOPC   C3B 5693   4.889  16.099  11.783  0.3400 -0.1274  0.2563
  485DOPC   C4B 5694   4.460  16.083  11.539 -0.4081  0.2573 -0.2491
  486DOPC   NC3 5695   6.385  16.848  13.089 -0.0793  0.0015 -0.0663
  486DOPC   PO4 5696   6.132  16.553  13.027  0.1045 -0.1429  0.0381
  486DOPC   GL1 5697   6.269  16.270  12.610  0.0261 -0.0412 -0.0522
  486DOPC   GL2 5698   6.025  16.230  12.453 -0.1148 -0.0567  0.1111
  486DOPC   C1A 5699   6.481  16.508  12.204  0.0833 -0.1929 -0.0025
  486DOPC   D2A 5700   6.410  16.597  11.785  0.1655  0.0943  0.1604
  486DOPC   C3A 5701   6.677  16.699  11.412 -0.0229  0.2783  0.2355
  486DOPC   C4A 5702   6.863  16.839  11.028  0.0922 -0.1463 -0.1362
  486DOPC   C1B 5703   6.242  16.025  12.081  0.0232  0.1145 -0.1932
  486DOPC   D2B 5704   6.237  15.827  11.691 -0.2476  0.0837 -0.1695
  486DOPC   C3B 5705   6.110  15.718  11.323 -0.4109 -0.2195 -0.0730
  486DOPC   C4B 5706   5.890  15.858  10.986 -0.1653  0.1097  0.0278
  487DOPC   NC3 5707  13.199  21.472  12.554  0.1971  0.2696 -0.1679
  487DOPC   PO4 5708  13.458  21.400  12.272 -0.0395  0.2159 -0.0360
  487DOPC   GL1 5709  13.232  21.756  12.048 -0.0323  0.1973 -0.0980
  487DOPC   GL2 5710  13.242  21.598  11.819 -0.5461 -0.2195  0.3617
  487DOPC   C1A 5711  13.273  22.077  11.714 -0.1161 -0.0357 -0.1066
  487DOPC   D2A 5712  13.190  22.210  11.265 -0.1164  0.2614  0.2313
  487DOPC   C3A 5713  13.576  22.289  11.056 -0.2204 -0.0229  0.1193
  487DOPC   C4A 5714  13.762  22.003  10.752 -0.2428 -0.0346 -0.3193
  487DOPC   C1B 5715  12.857  21.431  11.558 -0.4354 -0.0083  0.0897
  487DOPC   D2B 5716  12.618  21.406  11.170  0.0028 -0.1663 -0.0350
  487DOPC   C3B 5717  12.644  21.218  10.742  0.1204 -0.2416 -0.0356
  487DOPC   C4B 5718  12.381  21.119  10.368  0.1186 -0.1213 -0.1290
  488DOPC   NC3 5719   0.142  10.541  14.544  0.0774 -0.0308  0.1053
  488DOPC   PO4 5720   0.157  10.884  14.696 -0.1318  0.1859 -0.0610
  488DOPC   GL1 5721  -0.011  10.916  14.340  0.3120  0.2514 -0.1066
  488DOPC   GL2 5722  -0.239  10.817  14.249  0.0720  0.2417 -0.2999
  488DOPC   C1A 5723  -0.089  11.342  14.142 -0.2333 -0.1895 -0.0587
  488DOPC   D2A 5724  -0.226  11.564  13.845  0.0395 -0.1921 -0.1221
  488DOPC   C3A 5725   0.182  11.643  13.666  0.2894  0.1690 -0.0121
  488DOPC   C4A 5726   0.531  11.325  13.605 -0.0160 -0.4506  0.2386
  488DOPC   C1B 5727  -0.149  10.890  13.797  0.2118  0.2486 -0.2079
  488DOPC   D2B 5728  -0.245  11.215  13.478  0.1116 -0.0083 -0.3816
  488DOPC   C3B 5729  -0.403  11.364  13.079  0.2164 -0.0972  0.2767
  488DOPC   C4B 5730  -0.251  11.717  12.828 -0.1101  0.0039  0.0505
  489DOPC   NC3 5731   7.486  14.576  13.021 -0.3567 -0.1353 -0.1887
  489DOPC   PO4 5732   7.812  14.733  12.817  0.3137  0.0255 -0.1929
  489DOPC   GL1 5733   7.923  14.602  12.488  0.3519  0.1027 -0.0030
  489DOPC   GL2 5734   7.765  14.345  12.430  0.2512  0.1815 -0.0501
  489DOPC   C1A 5735   8.196  14.617  12.165  0.0458 -0.2631  0.1640
  489DOPC   D2A 5736   8.321  14.881  11.792 -0.3529  0.1470 -0.0029
  489DOPC   C3A 5737   8.236  14.669  11.409  0.1168 -0.3702  0.0187
  489DOPC   C4A 5738   8.169  14.360  11.082  0.0124  0.0897  0.0925
  489DOPC   C1B 5739   7.849  14.088  12.042  0.1322 -0.1252  0.0511
  489DOPC   D2B 5740   7.588  13.846  11.791 -0.0583  0.3566  0.0737
  489DOPC   C3B 5741   7.563  13.869  11.307 -0.3226 -0.0231 -0.0796
  489DOPC   C4B 5742   7.680  14.054  10.920  0.2430  0.2700  0.1277
  490DOPE   NH3 5743  10.503  19.844  12.368  0.1926  0.1821  0.0728
  490DOPE   PO4 5744  10.258  19.994  12.462  0.0619 -0.4413 -0.0676
  490DOPE   GL1 5745  10.394  20.015  11.953  0.0071  0.3508 -0.2623
  490DOPE   GL2 5746  10.564  19.776  11.908  0.1879 -0.0703 -0.0522
  490DOPE   C1A 5747  10.119  20.241  11.635 -0.2720 -0.2565 -0.3204
  490DOPE   D2A 5748   9.813  20.568  11.397  0.2423 -0.3092 -0.0140
  490DOPE   C3A 5749   9.548  20.836  11.188 -0.2246  0.3658 -0.1781
  490DOPE   C4A 5750   9.265  21.102  11.039 -0.0858 -0.0781 -0.1017
  490DOPE   C1B 5751  10.474  19.755  11.474 -0.0961  0.1470  0.2510
  490DOPE   D2B 5752  10.469  19.814  11.009  0.4194  0.0480 -0.5545
  490DOPE   C3B 5753  10.278  19.591  10.680 -0.0038 -0.3038 -0.2179
  490DOPE   C4B 5754  10.100  19.482  10.295  0.0075 -0.1947  0.1128
  491DOPE   NH3 5755  13.636  17.849  11.989  0.3531 -0.0740  0.0463
  491DOPE   PO4 5756  13.351  17.904  11.832 -0.2127 -0.0056 -0.2217
  491DOPE   GL1 5757  13.395  17.990  11.502 -0.2244  0.0714 -0.2465
  491DOPE   GL2 5758  13.225  18.235  11.478  0.0674  0.1711 -0.2968
  491DOPE   C1A 5759  13.140  17.849  11.131  0.1624 -0.1864  0.4265
  491DOPE   D2A 5760  12.878  17.451  11.022  0.3181 -0.2027 -0.3902
  491DOPE   C3A 5761  12.512  17.234  11.049 -0.1508 -0.1257  0.1303
  491DOPE   C4A 5762  12.355  16.844  10.924  0.0387 -0.0312  0.1693
  491DOPE   C1B 5763  13.373  18.464  11.149  0.3316 -0.1384 -0.0836
  491DOPE   D2B 5764  13.190  18.777  10.789  0.0370  0.1050  0.0268
  491DOPE   C3B 5765  12.997  18.631  10.379  0.1203  0.2766  0.0758
  491DOPE   C4B 5766  12.597  18.695  10.096  0.0347 -0.0970  0.1443
  492POSM   NC3 5767   8.630  20.024  12.584  0.1184  0.1091 -0.2698
  492POSM   PO4 5768   8.410  19.734  12.467  0.2400  0.1063 -0.2952
  492POSM   AM1 5769   8.488  19.752  12.142  0.1749  0.4729 -0.2475
  492POSM   AM2 5770   8.718  19.819  12.010  0.1962  0.1602  0.3589
  492POSM   T1A 5771   8.581  19.548  11.637 -0.0772 -0.5682  0.4603
  492POSM   C2A 5772   8.782  19.539  11.231 -0.1231 -0.2392  0.3877
  492POSM   C3A 5773   8.825  19.881  10.922  0.0011  0.3816  0.2386
  492POSM   C1B 5774   8.706  20.131  11.834 -0.0418 -0.3404  0.1904
  492POSM   D2B 5775   8.859  20.425  11.526 -0.3413 -0.0680 -0.0893
  492POSM   C3B 5776   9.234  20.350  11.244 -0.0104 -0.0255  0.4509
  492POSM   C4B 5777   9.241  20.571  10.817  0.0941  0.0425  0.1254
  493DOPC   NC3 5778   5.379  10.042  13.743  0.0478  0.0678 -0.0060
  493DOPC   PO4 5779   5.263  10.377  13.948  0.0577 -0.2455 -0.0600
  493DOPC   GL1 5780   5.189  10.519  13.583 -0.0361  0.3427 -0.0601
  493DOPC   GL2 5781   5.460  10.472  13.464 -0.0584 -0.1648 -0.0258
  493DOPC   C1A 5782   4.958  10.419  13.200  0.0710 -0.2205 -0.1134
  493DOPC   D2A 5783   4.725  10.301  12.804 -0.3607  0.0532 -0.0460
  493DOPC   C3A 5784   4.910   9.881  12.865 -0.1963 -0.0615  0.1862
  493DOPC   C4A 5785   5.073   9.650  12.496  0.0916  0.2322 -0.0302
  493DOPC   C1B 5786   5.843  10.402  13.146 -0.2667 -0.4350  0.0318
  493DOPC   D2B 5787   6.278  10.659  13.076 -0.1103  0.0855  0.0033
  493DOPC   C3B 5788   6.533  10.487  12.679  0.1985  0.0074 -0.0348
  493DOPC   C4B 5789   6.935  10.421  12.554  0.1183 -0.1842 -0.0619
  494POSM   NC3 5790   6.636  13.433  13.400 -0.1957  0.0773  0.4159
  494POSM   PO4 5791   6.844  13.737  13.327 -0.2178  0.1758 -0.1591
  494POSM   AM1 5792   7.111  13.613  13.193  0.0425  0.0137  0.1123
  494POSM   AM2 5793   7.375  13.668  13.140  0.0369 -0.1659  0.0487
  494POSM   T1A 5794   7.260  13.244  12.894 -0.1327 -0.0297  0.1224
  494POSM   C2A 5795   7.293  12.998  12.538 -0.0729 -0.0375  0.0354
  494POSM   C3A 5796   7.160  13.075  12.130 -0.3292  0.1593  0.0596
  494POSM   C1B 5797   7.489  13.802  12.812  0.1550 -0.2920  0.2614
  494POSM   D2B 5798   7.882  13.829  12.518 -0.4034  0.2995  0.2044
  494POSM   C3B 5799   7.956  13.511  12.228 -0.0644 -0.3292 -0.3800
  494POSM   C4B 5800   8.166  13.675  11.875 -0.3818 -0.2378 -0.0082
  495POSM   NC3 5801  34.106  24.795  14.662  0.0926  0.0718  0.0642
  495POSM   PO4 5802  34.104  24.459  14.874 -0.1942 -0.0212 -0.1463
  495POSM   AM1 5803  34.080  24.375  14.549  0.0061  0.0819 -0.0478
  495POSM   AM2 5804  33.975  24.398  14.326  0.2348 -0.0820  0.1573
  495POSM   T1A 5805  34.267  24.009  14.187 -0.0646 -0.0458 -0.2485
  495POSM   C2A 5806  34.337  23.705  13.861 -0.2423 -0.0895 -0.1439
  495POSM   C3A 5807  34.476  23.383  13.623  0.0190  0.3977  0.4049
  495POSM   C1B 5808  33.991  24.534  14.029 -0.2071  0.0209  0.2697
  495POSM   D2B 5809  33.988  24.681  13.587  0.0607  0.1085 -0.1026
  495POSM   C3B 5810  34.025  24.437  13.185  0.0913  0.0649 -0.2880
  495POSM   C4B 5811  34.193  24.178  12.783  0.0976 -0.0542 -0.0197
  496DOPS   CNO 5812   7.766  16.552  12.631  0.3495 -0.0956  0.1936
  496DOPS   PO4 5813   7.596  16.292  12.878  0.1195  0.0056 -0.0491
  496DOPS   GL1 5814   7.574  16.167  12.497  0.0294 -0.2482 -0.0442
  496DOPS   GL2 5815   7.341  16.093  12.384  0.0220 -0.0886  0.0963
  496DOPS   C1A 5816   7.720  16.368  12.087 -0.2049 -0.0056 -0.0214
  496DOPS   D2A 5817   8.050  16.545  11.934 -0.0461  0.0832 -0.2662
  496DOPS   C3A 5818   8.043  16.572  11.510 -0.2078  0.2434  0.0650
  496DOPS   C4A 5819   7.753  16.451  11.110  0.0513 -0.1416  0.2110
  496DOPS   C1B 5820   7.332  16.119  11.941 -0.1925  0.2882 -0.2005
  496DOPS   D2B 5821   7.608  16.337  11.596 -0.0403  0.1863  0.2184
  496DOPS   C3B 5822   7.966  16.103  11.403  0.0777 -0.0955 -0.1671
  496DOPS   C4B 5823   8.263  15.887  11.155  0.0624 -0.0174 -0.0764
  497DOPC   NC3 5824   3.466  18.381  13.047  0.2748 -0.1123 -0.3289
  497DOPC   PO4 5825   3.246  18.697  13.268  0.1881 -0.2488 -0.1071
  497DOPC   GL1 5826   3.107  18.610  12.913  0.3188  0.0422  0.1493
  497DOPC   GL2 5827   2.810  18.764  12.878 -0.2668  0.0537  0.1591
  497DOPC   C1A 5828   3.121  18.697  12.462 -0.0059  0.0971  0.1960
  497DOPC   D2A 5829   3.188  18.938  12.098 -0.3849 -0.2492  0.4587
  497DOPC   C3A 5830   2.841  19.141  11.841  0.0866 -0.1344  0.2511
  497DOPC   C4A 5831   2.797  19.082  11.367 -0.1207  0.2967 -0.0154
  497DOPC   C1B 5832   2.695  19.029  12.551  0.0914  0.1201 -0.2220
  497DOPC   D2B 5833   2.537  19.450  12.486 -0.0428 -0.0753  0.1597
  497DOPC   C3B 5834   2.069  19.326  12.553  0.2051  0.2451  0.4764
  497DOPC   C4B 5835   1.796  19.059  12.353 -0.0835  0.1577  0.0443
  498DOPE   NH3 5836   7.400  21.887  13.302  0.0021  0.0514  0.0231
  498DOPE   PO4 5837   7.391  21.668  13.085  0.0483  0.1008  0.0187
  498DOPE   GL1 5838   7.519  21.844  12.739  0.0809  0.3342 -0.0772
  498DOPE   GL2 5839   7.790  21.788  12.836  0.1702  0.1275 -0.0812
  498DOPE   C1A 5840   7.377  21.673  12.363  0.0791 -0.1895  0.1517
  498DOPE   D2A 5841   7.139  21.556  11.994  0.0471  0.0065 -0.1478
  498DOPE   C3A 5842   7.087  21.982  11.803  0.0281  0.0430  0.1843
  498DOPE   C4A 5843   7.061  22.434  11.603  0.1143 -0.0041  0.1839
  498DOPE   C1B 5844   7.786  21.968  12.410  0.0437  0.0334 -0.0764
  498DOPE   D2B 5845   7.828  22.362  12.187 -0.1782 -0.2745 -0.1725
  498DOPE   C3B 5846   7.692  22.378  11.753  0.1015  0.3379  0.0242
  498DOPE   C4B 5847   7.499  22.136  11.417 -0.1032 -0.4250  0.0784
  499DOPE   NH3 5848   5.530  15.311  13.281 -0.2161 -0.3997 -0.2377
  499DOPE   PO4 5849   5.596  15.061  13.193 -0.0184  0.2462  0.0847
  499DOPE   GL1 5850   5.649  14.955  12.868  0.0326 -0.2775 -0.2784
  499DOPE   GL2 5851   5.664  14.673  12.890 -0.0781  0.3523 -0.1184
  499DOPE   C1A 5852   5.577  14.789  12.398  0.3546  0.0984 -0.2717
  499DOPE   D2A 5853   5.613  14.569  11.946 -0.2682 -0.0109 -0.4264
  499DOPE   C3A 5854   5.590  14.101  11.847  0.0951 -0.2216  0.0154
  499DOPE   C4A 5855   5.738  13.665  11.888  0.2601  0.1949  0.2870
  499DOPE   C1B 5856   5.799  14.373  12.594 -0.0193  0.2198  0.2638
  499DOPE   D2B 5857   5.655  13.996  12.452 -0.1011 -0.1342  0.1160
  499DOPE   C3B 5858   5.341  13.795  12.171  0.0895 -0.0573  0.0612
  499DOPE   C4B 5859   5.226  13.686  11.738 -0.1171 -0.0906  0.0524
  500DOPC   NC3 5860   8.940  16.876  13.236  0.1148  0.0952  0.2147
  500DOPC   PO4 5861   8.686  16.669  12.959  0.2492  0.1309  0.3237
  500DOPC   GL1 5862   8.542  16.557  12.548 -0.0194  0.4447 -0.2528
  500DOPC   GL2 5863   8.624  16.806  12.429  0.1217 -0.1619 -0.1037
  500DOPC   C1A 5864   8.825  16.363  12.202  0.0169 -0.0253  0.1655
  500DOPC   D2A 5865   9.006  16.326  11.726 -0.0684  0.0081 -0.0784
  500DOPC   C3A 5866   9.365  16.548  11.631 -0.0990  0.3223 -0.1701
  500DOPC   C4A 5867   9.365  16.942  11.355  0.0025  0.0600 -0.3132
  500DOPC   C1B 5868   8.214  16.902  12.260  0.0092 -0.1027  0.0388
  500DOPC   D2B 5869   7.817  17.057  12.121  0.2750  0.0922 -0.0760
  500DOPC   C3B 5870   7.694  16.882  11.689  0.0710 -0.0578  0.1815
  500DOPC   C4B 5871   7.551  17.032  11.284 -0.0171  0.2140  0.0175
  501POSM   NC3 5872   9.479  20.292  12.375  0.0842  0.1169  0.2163
  501POSM   PO4 5873   9.776  20.439  12.566  0.2100 -0.1250  0.2167
  501POSM   AM1 5874   9.833  20.644  12.330  0.2199  0.2877  0.0464
  501POSM   AM2 5875  10.009  20.841  12.242  0.0298 -0.2538 -0.4029
  501POSM   T1A 5876   9.700  20.590  11.858  0.0839  0.0602  0.1447
  501POSM   C2A 5877   9.556  20.235  11.622  0.1789 -0.1706  0.1169
  501POSM   C3A 5878   9.504  19.821  11.374  0.0124  0.3625  0.0833
  501POSM   C1B 5879  10.111  21.020  11.933 -0.2361 -0.3365  0.2307
  501POSM   D2B 5880  10.018  21.139  11.515 -0.2837 -0.2030 -0.3188
  501POSM   C3B 5881  10.035  20.938  11.054 -0.0932  0.1640 -0.1170
  501POSM   C4B 5882  10.215  20.673  10.756  0.3419  0.0906 -0.0203
  502POSM   NC3 5883   6.113  18.947  12.380 -0.0929  0.0555 -0.2171
  502POSM   PO4 5884   6.197  19.162  12.705  0.0825 -0.3415  0.3226
  502POSM   AM1 5885   6.429  19.260  12.479 -0.0826 -0.1582  0.0091
  502POSM   AM2 5886   6.486  19.530  12.463 -0.0156 -0.2954  0.1276
  502POSM   T1A 5887   6.600  19.054  12.012 -0.3399 -0.0972 -0.0949
  502POSM   C2A 5888   6.901  19.261  11.699 -0.1755 -0.0824  0.0302
  502POSM   C3A 5889   7.135  19.676  11.711  0.1066  0.1104 -0.2662
  502POSM   C1B 5890   6.596  19.541  12.113 -0.0314  0.1238 -0.0806
  502POSM   D2B 5891   6.664  19.781  11.680 -0.0122 -0.0353  0.2101
  502POSM   C3B 5892   6.769  19.628  11.266  0.2389  0.3575 -0.1322
  502POSM   C4B 5893   6.639  19.552  10.846  0.3053 -0.1758 -0.0821
  503DOPC   NC3 5894  11.487  21.097  12.210 -0.0432 -0.0741 -0.0509
  503DOPC   PO4 5895  11.287  20.825  12.006 -0.0885  0.1838  0.1092
  503DOPC   GL1 5896  11.122  20.924  11.659  0.4030 -0.1275 -0.2365
  503DOPC   GL2 5897  11.143  20.954  11.438  0.2103 -0.1836 -0.0547
  503DOPC   C1A 5898  10.760  20.634  11.488 -0.0380 -0.1883  0.2348
  503DOPC   D2A 5899  10.657  20.180  11.482 -0.1753  0.3434 -0.2415
  503DOPC   C3A 5900  10.883  19.826  11.236  0.1213  0.2545 -0.1302
  503DOPC   C4A 5901  11.194  19.596  11.486 -0.2296  0.1564  0.2866
  503DOPC   C1B 5902  11.141  20.759  11.037  0.0830  0.0627  0.1379
  503DOPC   D2B 5903  11.214  20.606  10.561  0.2455 -0.2151  0.1488
  503DOPC   C3B 5904  11.669  20.668  10.507 -0.1102  0.1754 -0.2619
  503DOPC   C4B 5905  12.051  20.709  10.291  0.3570 -0.0029 -0.3240
  504DOPS   CNO 5906   4.660  18.611  13.328 -0.1506  0.1350 -0.0546
  504DOPS   PO4 5907   4.513  18.574  13.013 -0.0199 -0.3244  0.2623
  504DOPS   GL1 5908   4.740  18.671  12.628  0.0147 -0.2809 -0.1426
  504DOPS   GL2 5909   5.014  18.495  12.551 -0.2159  0.1457  0.1223
  504DOPS   C1A 5910   4.531  18.714  12.234 -0.0614  0.1193  0.0275
  504DOPS   D2A 5911   4.136  18.673  12.118  0.0035 -0.5343  0.0508
  504DOPS   C3A 5912   3.939  18.448  11.754  0.1030  0.4273  0.2198
  504DOPS   C4A 5913   3.525  18.532  11.462  0.1466  0.1294  0.1462
  504DOPS   C1B 5914   5.439  18.568  12.334  0.2760  0.3632 -0.0106
  504DOPS   D2B 5915   5.806  18.542  12.171 -0.0162  0.1580 -0.4151
  504DOPS   C3B 5916   5.912  18.231  11.776 -0.3407 -0.0135  0.0717
  504DOPS   C4B 5917   5.895  17.789  11.647  0.3703 -0.1016 -0.0206
  505DOPE   NH3 5918  10.238  16.552  13.062  0.1663  0.0570 -0.0624
  505DOPE   PO4 5919  10.031  16.343  12.918  0.0640 -0.2439 -0.2958
  505DOPE   GL1 5920   9.913  16.231  12.507 -0.3497 -0.2980  0.2704
  505DOPE   GL2 5921   9.817  16.480  12.403  0.1460  0.0289  0.1546
  505DOPE   C1A 5922  10.056  16.199  12.051 -0.2467 -0.0040  0.0453
  505DOPE   D2A 5923  10.096  16.283  11.590 -0.1246 -0.2831  0.1725
  505DOPE   C3A 5924   9.747  16.424  11.318 -0.1596 -0.1470 -0.2505
  505DOPE   C4A 5925   9.283  16.257  11.163  0.0673  0.2803 -0.0783
  505DOPE   C1B 5926   9.770  16.590  11.945 -0.0178  0.3196  0.2615
  505DOPE   D2B 5927   9.859  16.824  11.506 -0.1027 -0.1529  0.0505
  505DOPE   C3B 5928   9.843  17.089  11.108 -0.1522  0.0895  0.0317
  505DOPE   C4B 5929   9.616  17.169  10.716 -0.0067  0.1116  0.0386
  506DOPS   CNO 5930   8.007  20.505  12.921  0.1922 -0.0307  0.1755
  506DOPS   PO4 5931   8.209  20.517  12.607  0.0679  0.0441 -0.0028
  506DOPS   GL1 5932   8.058  20.707  12.231  0.3577  0.0563  0.2576
  506DOPS   GL2 5933   7.902  20.522  12.025  0.1108 -0.0789 -0.1800
  506DOPS   C1A 5934   8.253  20.988  11.917  0.5271 -0.1445 -0.1992
  506DOPS   D2A 5935   8.472  21.247  11.686 -0.1811  0.0842 -0.0029
  506DOPS   C3A 5936   8.411  21.342  11.237  0.0273 -0.1900 -0.2237
  506DOPS   C4A 5937   8.428  21.691  10.955 -0.1122  0.1509 -0.1398
  506DOPS   C1B 5938   7.445  20.694  12.053  0.0326  0.1492  0.0137
  506DOPS   D2B 5939   7.281  20.687  11.625  0.3808  0.1506 -0.2714
  506DOPS   C3B 5940   7.307  20.432  11.263 -0.0686 -0.1776  0.0676
  506DOPS   C4B 5941   7.408  20.388  10.823  0.4467  0.0837  0.1016
  507DOPS   CNO 5942   3.551  14.880  14.052  0.1363 -0.2389  0.0317
  507DOPS   PO4 5943   3.504  15.074  13.734 -0.1172 -0.4022 -0.0930
  507DOPS   GL1 5944   3.611  14.758  13.486 -0.6632 -0.1630  0.0399
  507DOPS   GL2 5945   3.516  14.890  13.216  0.1209  0.0954 -0.1106
  507DOPS   C1A 5946   3.605  14.317  13.278  0.1058 -0.0189  0.2805
  507DOPS   D2A 5947   3.372  14.063  12.965 -0.2975 -0.1278 -0.0024
  507DOPS   C3A 5948   3.358  13.611  12.811  0.0270  0.0829  0.0812
  507DOPS   C4A 5949   2.998  13.333  12.900  0.1446 -0.2305 -0.1524
  507DOPS   C1B 5950   3.462  14.967  12.757  0.0540 -0.2544 -0.1873
  507DOPS   D2B 5951   3.267  14.836  12.351 -0.2323  0.2668 -0.3906
  507DOPS   C3B 5952   2.810  14.764  12.302 -0.0327  0.1144 -0.0381
  507DOPS   C4B 5953   2.328  14.758  12.410  0.1866 -0.2891  0.1562
  508POSM   NC3 5954   3.844  19.631  13.125 -0.0864  0.2694 -0.1190
  508POSM   PO4 5955   3.890  19.263  12.983  0.2640 -0.0253  0.4171
  508POSM   AM1 5956   3.954  18.996  12.764  0.3916  0.1093  0.3901
  508POSM   AM2 5957   4.198  19.002  12.626  0.2350 -0.2552  0.0803
  508POSM   T1A 5958   3.814  18.656  12.442  0.1233  0.0557  0.3166
  508POSM   C2A 5959   3.554  18.470  12.125 -0.0687 -0.0861  0.2687
  508POSM   C3A 5960   3.120  18.495  11.843  0.1452 -0.1213  0.0630
  508POSM   C1B 5961   4.123  19.193  12.336 -0.0467  0.1463 -0.1569
  508POSM   D2B 5962   3.949  19.586  12.150 -0.2627  0.0484 -0.0718
  508POSM   C3B 5963   3.933  19.939  11.910  0.0404  0.0945 -0.3934
  508POSM   C4B 5964   4.275  20.088  11.707 -0.1494  0.4077  0.2453
  509POSM   NC3 5965  10.369  18.009  12.782  0.2004 -0.0902  0.1482
  509POSM   PO4 5966  10.393  18.397  12.701 -0.2763  0.0184  0.0896
  509POSM   AM1 5967  10.283  18.329  12.414  0.3011 -0.0828 -0.1937
  509POSM   AM2 5968  10.127  18.495  12.228  0.1678 -0.1266 -0.0833
  509POSM   T1A 5969  10.437  18.170  11.952 -0.1786 -0.1342  0.0235
  509POSM   C2A 5970  10.383  18.191  11.456  0.1272 -0.1363  0.1054
  509POSM   C3A 5971  10.415  18.049  11.007 -0.1101  0.2478 -0.2301
  509POSM   C1B 5972   9.825  18.647  12.009 -0.1928  0.0427 -0.1296
  509POSM   D2B 5973   9.685  18.899  11.596 -0.0652  0.0198 -0.2730
  509POSM   C3B 5974   9.584  18.711  11.217 -0.1451  0.0872  0.0579
  509POSM   C4B 5975   9.457  18.786  10.799 -0.4120 -0.0753  0.0130
  510DOPC   NC3 5976   4.444  15.080  13.618 -0.1549  0.0684 -0.0848
  510DOPC   PO4 5977   4.793  15.178  13.460  0.3983  0.0867  0.1549
  510DOPC   GL1 5978   5.082  15.042  13.244 -0.2873 -0.1767  0.0192
  510DOPC   GL2 5979   5.090  15.199  12.978 -0.0179 -0.1721 -0.0907
  510DOPC   C1A 5980   4.881  14.729  12.925 -0.0481 -0.2709  0.3428
  510DOPC   D2A 5981   4.735  14.377  12.702 -0.4209  0.2788  0.0881
  510DOPC   C3A 5982   4.887  14.198  12.338 -0.0058 -0.0670  0.0083
  510DOPC   C4A 5983   4.852  13.866  12.038 -0.2871  0.2052 -0.2262
  510DOPC   C1B 5984   5.186  14.975  12.598  0.2671  0.0300  0.5495
  510DOPC   D2B 5985   5.209  15.050  12.127  0.0522  0.2793 -0.2927
  510DOPC   C3B 5986   5.005  14.660  12.038 -0.2267 -0.1988 -0.1219
  510DOPC   C4B 5987   4.628  14.346  11.928  0.4697 -0.2371 -0.5172
  511POSM   NC3 5988   9.368  19.585  12.369  0.1580 -0.0629 -0.1101
  511POSM   PO4 5989   9.231  19.905  12.550 -0.1337  0.1061 -0.4520
  511POSM   AM1 5990   9.060  19.983  12.309 -0.0463 -0.6996  0.0081
  511POSM   AM2 5991   9.027  20.232  12.215 -0.2079  0.0450 -0.2520
  511POSM   T1A 5992   9.140  19.780  11.818 -0.0850 -0.0489 -0.0804
  511POSM   C2A 5993   8.992  19.945  11.407  0.2525  0.0999  0.0260
  511POSM   C3A 5994   8.523  20.008  11.337 -0.1143 -0.3370  0.0677
  511POSM   C1B 5995   9.154  20.420  12.010  0.1140  0.2550  0.4055
  511POSM   D2B 5996   9.295  20.712  11.644 -0.0673  0.3399 -0.2126
  511POSM   C3B 5997   9.006  20.832  11.310  0.3494 -0.1524 -0.3467
  511POSM   C4B 5998   8.788  20.847  10.912  0.0124  0.0394 -0.0093
  512DOPC   NC3 5999   7.521  18.975  12.177 -0.0318 -0.1380  0.0944
  512DOPC   PO4 6000   7.533  18.662  12.406  0.0042  0.3092 -0.1459
  512DOPC   GL1 6001   7.454  18.531  12.047  0.1164 -0.0387  0.0424
  512DOPC   GL2 6002   7.692  18.364  12.011  0.1065  0.0308 -0.1834
  512DOPC   C1A 6003   7.525  18.510  11.574 -0.0073  0.1312  0.0270
  512DOPC   D2A 6004   7.885  18.481  11.224  0.0861 -0.2495 -0.2258
  512DOPC   C3A 6005   8.089  18.790  10.953  0.1111 -0.1382  0.3335
  512DOPC   C4A 6006   7.870  18.975  10.560 -0.2300  0.1490  0.3193
  512DOPC   C1B 6007   8.067  18.375  11.758  0.0072 -0.2433  0.1529
  512DOPC   D2B 6008   8.428  18.231  11.430  0.1002 -0.1346 -0.3086
  512DOPC   C3B 6009   8.461  18.117  10.994 -0.3234  0.0775 -0.2180
  512DOPC   C4B 6010   8.253  18.008  10.586  0.2812  0.1915 -0.0028
  513POSM   NC3 6011   8.045  18.643  12.221  0.1493 -0.3033 -0.0462
  513POSM   PO4 6012   8.400  18.740  12.254 -0.0027  0.2589 -0.1911
  513POSM   AM1 6013   8.341  18.837  11.936  0.0617  0.0976 -0.1046
  513POSM   AM2 6014   8.428  19.025  11.777 -0.1925  0.1040  0.0370
  513POSM   T1A 6015   8.205  18.756  11.451  0.0314 -0.3368 -0.3815
  513POSM   C2A 6016   8.536  18.701  11.183 -0.1081 -0.0923  0.1903
  513POSM   C3A 6017   8.527  18.522  10.739 -0.2833  0.0624  0.1317
  513POSM   C1B 6018   8.637  19.049  11.520 -0.0540 -0.2414  0.0794
  513POSM   D2B 6019   9.029  18.902  11.175  0.0968 -0.2179 -0.0356
  513POSM   C3B 6020   8.901  18.890  10.727  0.0151 -0.2767 -0.0818
  513POSM   C4B 6021   9.116  19.118  10.391 -0.0818  0.0356  0.1571
  514POSM   NC3 6022   9.478  14.357  13.298 -0.0408 -0.0443  0.0725
  514POSM   PO4 6023   9.053  14.347  13.140  0.2594  0.1068 -0.0896
  514POSM   AM1 6024   9.213  14.479  12.870  0.2225  0.3666 -0.1652
  514POSM   AM2 6025   9.440  14.619  12.793  0.2029 -0.0808  0.1618
  514POSM   T1A 6026   9.159  14.608  12.358 -0.1337 -0.0643  0.0040
  514POSM   C2A 6027   9.169  14.577  11.893  0.1173  0.3290  0.2389
  514POSM   C3A 6028   9.248  14.984  11.689  0.0912  0.2946  0.2065
  514POSM   C1B 6029   9.653  14.718  12.554  0.2705 -0.2346 -0.0861
  514POSM   D2B 6030   9.636  14.691  12.051 -0.2967  0.0399  0.1248
  514POSM   C3B 6031   9.572  14.514  11.616  0.0762 -0.1235  0.2770
  514POSM   C4B 6032   9.177  14.523  11.348  0.2291 -0.0117  0.0163
  515DOPC   NC3 6033   3.988  16.622  13.086 -0.0232 -0.0547  0.0076
  515DOPC   PO4 6034   3.800  16.309  13.048 -0.2744 -0.0187  0.0220
  515DOPC   GL1 6035   4.102  16.446  12.706  0.1039  0.0307  0.1148
  515DOPC   GL2 6036   4.197  16.182  12.704  0.0240  0.2802 -0.1213
  515DOPC   C1A 6037   4.198  16.406  12.274 -0.2258  0.0287  0.0392
  515DOPC   D2A 6038   4.605  16.449  11.974  0.2300  0.0606 -0.1731
  515DOPC   C3A 6039   4.628  16.559  11.512  0.0550  0.3069 -0.1607
  515DOPC   C4A 6040   4.396  16.424  11.165  0.2458 -0.1451  0.0647
  515DOPC   C1B 6041   3.878  15.913  12.462  0.1314  0.3069  0.1406
  515DOPC   D2B 6042   3.451  15.860  12.411  0.1778 -0.1056 -0.3955
  515DOPC   C3B 6043   3.027  15.788  12.508 -0.0967  0.0537  0.1335
  515DOPC   C4B 6044   2.658  15.553  12.670  0.2025  0.2881 -0.2698
  516DOPE   NH3 6045   4.956  15.633  13.243  0.2956  0.0701  0.2892
  516DOPE   PO4 6046   5.244  15.693  13.349 -0.0319 -0.0494  0.3169
  516DOPE   GL1 6047   5.493  15.783  13.089 -0.0625 -0.0990 -0.0627
  516DOPE   GL2 6048   5.336  15.614  12.851  0.4154  0.1516 -0.2279
  516DOPE   C1A 6049   5.709  15.898  12.664 -0.2066 -0.0576  0.1556
  516DOPE   D2A 6050   5.777  15.812  12.186  0.1299 -0.0218 -0.1648
  516DOPE   C3A 6051   5.548  16.113  11.957 -0.1087 -0.1859  0.0664
  516DOPE   C4A 6052   5.321  16.314  11.621 -0.1528 -0.3657 -0.3557
  516DOPE   C1B 6053   5.542  15.371  12.599  0.2638  0.1892  0.3911
  516DOPE   D2B 6054   5.598  15.335  12.155 -0.0876 -0.0479  0.1066
  516DOPE   C3B 6055   5.540  15.194  11.746  0.4486  0.1817  0.0701
  516DOPE   C4B 6056   5.460  14.959  11.387  0.0266 -0.0194  0.0883
  517DOPC   NC3 6057   1.256  18.517  14.037 -0.0388 -0.0166 -0.0010
  517DOPC   PO4 6058   1.563  18.286  13.997  0.0239 -0.0968 -0.0351
  517DOPC   GL1 6059   1.519  18.401  13.645  0.2447  0.2204  0.0458
  517DOPC   GL2 6060   1.657  18.677  13.651 -0.0941 -0.0302 -0.1542
  517DOPC   C1A 6061   1.514  18.352  13.208  0.1456  0.2091  0.0477
  517DOPC   D2A 6062   1.372  18.031  12.868 -0.2444 -0.3111 -0.1231
  517DOPC   C3A 6063   0.997  18.202  12.577 -0.1363 -0.2829 -0.2370
  517DOPC   C4A 6064   0.731  18.325  12.193 -0.1621  0.2551  0.1787
  517DOPC   C1B 6065   1.422  18.859  13.259 -0.2222  0.2242 -0.1258
  517DOPC   D2B 6066   1.217  19.061  12.933  0.3127  0.2210  0.3343
  517DOPC   C3B 6067   1.309  19.149  12.511 -0.2906  0.0091  0.2257
  517DOPC   C4B 6068   1.545  19.500  12.272  0.2224 -0.0324 -0.1132
  518POSM   NC3 6069  11.539  21.941  12.286 -0.1993  0.1276  0.1308
  518POSM   PO4 6070  11.557  21.557  12.363  0.1711  0.0833 -0.1492
  518POSM   AM1 6071  11.476  21.557  12.021  0.1676 -0.2341 -0.1088
  518POSM   AM2 6072  11.369  21.419  11.857  0.0876  0.0707  0.0311
  518POSM   T1A 6073  11.446  21.823  11.642  0.1627 -0.1966 -0.1637
  518POSM   C2A 6074  11.130  22.135  11.526  0.0950 -0.1737  0.1309
  518POSM   C3A 6075  10.812  22.453  11.422 -0.0176 -0.5216 -0.2078
  518POSM   C1B 6076  11.480  21.302  11.555  0.1829 -0.0068 -0.0857
  518POSM   D2B 6077  11.493  21.181  11.126 -0.3991  0.0424 -0.0579
  518POSM   C3B 6078  11.341  21.448  10.724 -0.1038  0.4141 -0.0818
  518POSM   C4B 6079  11.289  21.761  10.413  0.1853 -0.2852  0.0870
  519POSM   NC3 6080   4.033  22.710  13.627  0.2803 -0.1979  0.2296
  519POSM   PO4 6081   4.400  22.649  13.686  0.0665 -0.0218 -0.0989
  519POSM   AM1 6082   4.468  22.710  13.399 -0.1072  0.0827 -0.2255
  519POSM   AM2 6083   4.300  22.863  13.235 -0.0478  0.1770 -0.1787
  519POSM   T1A 6084   4.795  22.820  13.021 -0.0232  0.0408 -0.0288
  519POSM   C2A 6085   4.848  22.684  12.594  0.3701 -0.1201  0.2550
  519POSM   C3A 6086   5.225  22.419  12.558 -0.2205 -0.0340 -0.0547
  519POSM   C1B 6087   4.167  22.977  12.944  0.1082  0.3383  0.2632
  519POSM   D2B 6088   3.850  23.113  12.682 -0.0649  0.2455  0.2159
  519POSM   C3B 6089   4.048  23.260  12.261  0.0207 -0.0714  0.0815
  519POSM   C4B 6090   4.429  23.388  11.992 -0.3234  0.0409  0.2200
  520POSM   NC3 6091   3.709  17.556  13.435 -0.2524  0.0478 -0.2601
  520POSM   PO4 6092   3.340  17.459  13.528  0.4428  0.1325 -0.2299
  520POSM   AM1 6093   3.265  17.481  13.194  0.1856  0.4178  0.0358
  520POSM   AM2 6094   3.272  17.693  12.998  0.5178  0.2590  0.1469
  520POSM   T1A 6095   3.069  17.246  12.804  0.1251  0.1331 -0.1501
  520POSM   C2A 6096   2.810  17.095  12.416  0.0068 -0.2292 -0.2862
  520POSM   C3A 6097   2.987  16.686  12.216 -0.2668  0.0248  0.0757
  520POSM   C1B 6098   3.446  17.560  12.734 -0.0878  0.1984  0.2411
  520POSM   D2B 6099   3.676  17.401  12.409 -0.1536  0.0298  0.0249
  520POSM   C3B 6100   3.910  17.640  12.106  0.0435 -0.0196 -0.0537
  520POSM   C4B 6101   4.081  17.546  11.677 -0.2443  0.0831 -0.1888
  521POSM   NC3 6102   0.682  22.498  14.370  0.0701 -0.1440  0.2095
  521POSM   PO4 6103   0.844  22.870  14.434 -0.0311  0.4061  0.0895
  521POSM   AM1 6104   0.720  22.905  14.146  0.1845  0.1202  0.0256
  521POSM   AM2 6105   0.768  23.120  13.968  0.1354  0.3017  0.0952
  521POSM   T1A 6106   0.498  22.753  13.737 -0.0906  0.0903 -0.4257
  521POSM   C2A 6107   0.582  22.837  13.289  0.0082  0.1586  0.1295
  521POSM   C3A 6108   0.536  22.986  12.870 -0.0701 -0.3731 -0.1802
  521POSM   C1B 6109   0.696  23.184  13.612  0.1208 -0.0734  0.1678
  521POSM   D2B 6110   0.703  23.575  13.303  0.2229 -0.0867 -0.1170
  521POSM   C3B 6111   0.739  24.012  13.168  0.1759  0.1488  0.1294
  521POSM   C4B 6112   0.865  24.370  12.905  0.6433  0.0631  0.2703
  522DOPC   NC3 6113  13.192  16.437  12.499 -0.0891 -0.0306  0.0592
  522DOPC   PO4 6114  13.123  16.548  12.113  0.0709  0.1220 -0.1666
  522DOPC   GL1 6115  13.425  16.537  11.792  0.1097 -0.3090 -0.0132
  522DOPC   GL2 6116  13.663  16.579  12.063 -0.0569  0.2822  0.1767
  522DOPC   C1A 6117  13.422  16.428  11.361  0.2819  0.1223 -0.0539
  522DOPC   D2A 6118  13.211  16.738  11.005 -0.0560 -0.0302 -0.3175
  522DOPC   C3A 6119  13.572  16.916  10.737  0.2084 -0.1105 -0.0849
  522DOPC   C4A 6120  13.974  16.734  10.633 -0.0310 -0.2882 -0.2334
  522DOPC   C1B 6121  13.673  16.125  11.831  0.0317  0.0156 -0.1175
  522DOPC   D2B 6122  13.629  15.813  11.506 -0.1198  0.1122 -0.2406
  522DOPC   C3B 6123  13.384  15.934  11.112 -0.1078 -0.2073  0.1015
  522DOPC   C4B 6124  13.154  16.177  10.816 -0.4029 -0.3888  0.3124
  523POSM   NC3 6125  13.889  21.406  12.086 -0.0459  0.0345 -0.0698
  523POSM   PO4 6126  14.268  21.390  11.969 -0.0472  0.0900  0.2429
  523POSM   AM1 6127  14.366  21.311  11.643 -0.4022 -0.3544 -0.0297
  523POSM   AM2 6128  14.352  21.429  11.378 -0.2819  0.0030  0.4899
  523POSM   T1A 6129  14.472  20.970  11.300  0.1619  0.0338  0.1036
  523POSM   C2A 6130  14.648  20.787  10.944 -0.1570 -0.0433  0.0464
  523POSM   C3A 6131  14.843  20.825  10.501 -0.2129 -0.0615 -0.0578
  523POSM   C1B 6132  14.046  21.503  11.357 -0.1431 -0.1715 -0.0916
  523POSM   D2B 6133  13.718  21.153  11.291  0.1383 -0.2233 -0.0641
  523POSM   C3B 6134  13.919  20.734  11.131 -0.1596  0.2114 -0.3547
  523POSM   C4B 6135  13.695  20.319  10.925 -0.2133  0.1174  0.1582
  524DOPS   CNO 6136   7.551  17.859  12.777 -0.0346  0.0998 -0.0468
  524DOPS   PO4 6137   7.356  17.552  12.644  0.1524  0.1565  0.1008
  524DOPS   GL1 6138   7.268  17.348  12.316 -0.1254 -0.0637 -0.1577
  524DOPS   GL2 6139   7.322  17.057  12.342  0.0011 -0.1945 -0.2199
  524DOPS   C1A 6140   7.290  17.204  11.854 -0.1097 -0.3592 -0.2096
  524DOPS   D2A 6141   7.207  17.489  11.495  0.4795  0.1355 -0.0856
  524DOPS   C3A 6142   7.353  17.484  11.057 -0.1710  0.0952  0.0130
  524DOPS   C4A 6143   7.766  17.592  10.839  0.0187 -0.2016  0.3598
  524DOPS   C1B 6144   7.386  16.743  12.054  0.1436  0.2553  0.1527
  524DOPS   D2B 6145   7.133  16.511  11.695  0.1717 -0.0199 -0.1288
  524DOPS   C3B 6146   7.288  16.551  11.235  0.1260 -0.1138  0.2484
  524DOPS   C4B 6147   7.341  16.817  10.885 -0.0170  0.0416  0.0877
  525DOPS   CNO 6148   3.249  20.924  13.588 -0.1076 -0.0600  0.2794
  525DOPS   PO4 6149   3.453  20.648  13.738 -0.1093 -0.0593  0.3058
  525DOPS   GL1 6150   3.322  20.328  13.478  0.2610  0.0245 -0.2342
  525DOPS   GL2 6151   3.012  20.417  13.448 -0.0950  0.1291 -0.2171
  525DOPS   C1A 6152   3.130  20.081  13.095 -0.0927  0.1462 -0.2594
  525DOPS   D2A 6153   3.183  20.195  12.630  0.0921 -0.1180 -0.1578
  525DOPS   C3A 6154   3.250  19.999  12.252  0.0477 -0.4924  0.1057
  525DOPS   C4A 6155   3.447  19.942  11.821  0.2185 -0.2074 -0.0003
  525DOPS   C1B 6156   2.884  20.635  13.081 -0.1733 -0.0797  0.2585
  525DOPS   D2B 6157   2.859  20.650  12.641  0.0780 -0.2341  0.0117
  525DOPS   C3B 6158   2.635  20.522  12.254 -0.0673  0.2353  0.2923
  525DOPS   C4B 6159   2.290  20.623  12.019 -0.1165 -0.4243  0.0130
  526DOPS   CNO 6160   8.437  21.267  13.148 -0.1967  0.1540  0.0861
  526DOPS   PO4 6161   8.308  21.616  13.132  0.0209  0.1704 -0.1557
  526DOPS   GL1 6162   8.247  21.755  12.747 -0.1783 -0.3631  0.0484
  526DOPS   GL2 6163   8.147  21.602  12.574  0.2712  0.0400 -0.0444
  526DOPS   C1A 6164   8.610  21.777  12.424  0.1125  0.2313 -0.0314
  526DOPS   D2A 6165   8.825  22.043  12.059  0.2299  0.1279  0.1169
  526DOPS   C3A 6166   8.597  21.953  11.667  0.0809  0.2191 -0.0655
  526DOPS   C4A 6167   8.488  22.138  11.270 -0.1865  0.0321  0.1304
  526DOPS   C1B 6168   7.847  21.519  12.200  0.1896  0.0385  0.1251
  526DOPS   D2B 6169   7.580  21.336  11.801 -0.1316 -0.0450  0.0043
  526DOPS   C3B 6170   7.612  21.118  11.424 -0.1037  0.1074  0.2194
  526DOPS   C4B 6171   7.622  20.851  11.039 -0.1114 -0.0918 -0.0627
  527POSM   NC3 6172   9.826  16.795  12.828  0.1361 -0.2538 -0.2075
  527POSM   PO4 6173  10.158  16.896  12.681 -0.1802  0.0085 -0.0529
  527POSM   AM1 6174  10.202  16.844  12.376  0.0513 -0.4137  0.3788
  527POSM   AM2 6175  10.216  16.678  12.167 -0.2153 -0.0516  0.0671
  527POSM   T1A 6176  10.044  17.096  11.945  0.1640 -0.0817 -0.1792
  527POSM   C2A 6177   9.987  17.350  11.597 -0.0465 -0.1563  0.0011
  527POSM   C3A 6178   9.790  17.743  11.578 -0.1048  0.0437  0.0853
  527POSM   C1B 6179  10.303  16.644  11.813 -0.3169  0.1757  0.0211
  527POSM   D2B 6180  10.624  16.520  11.503  0.0023 -0.0742 -0.0804
  527POSM   C3B 6181  10.471  16.357  11.090  0.0439 -0.4885  0.0903
  527POSM   C4B 6182  10.229  16.196  10.772 -0.3393 -0.1567  0.0209
  528DOPE   NH3 6183   9.289  24.360  12.911  0.1562  0.1597  0.3080
  528DOPE   PO4 6184   9.603  24.286  12.815 -0.0353  0.2331 -0.1946
  528DOPE   GL1 6185   9.742  24.395  12.391 -0.0954  0.0202  0.0593
  528DOPE   GL2 6186   9.867  24.215  12.252 -0.1116 -0.4289  0.3270
  528DOPE   C1A 6187   9.864  24.759  12.098  0.1095  0.1332 -0.0613
  528DOPE   D2A 6188  10.072  24.967  11.777  0.3347 -0.0014  0.0096
  528DOPE   C3A 6189  10.200  24.722  11.484 -0.1685 -0.1661  0.1825
  528DOPE   C4A 6190  10.293  24.712  11.072 -0.1323 -0.2394 -0.2013
  528DOPE   C1B 6191   9.921  24.319  11.832  0.1754  0.1184 -0.1160
  528DOPE   D2B 6192  10.125  24.059  11.552 -0.1638 -0.2073  0.4425
  528DOPE   C3B 6193   9.832  23.937  11.268  0.0204  0.0919 -0.3323
  528DOPE   C4B 6194   9.476  24.043  10.962 -0.0512  0.0728 -0.0117
  529POSM   NC3 6195   6.858  14.407  13.421  0.1435 -0.3829 -0.0158
  529POSM   PO4 6196   7.157  14.172  13.299  0.0454  0.0061  0.0853
  529POSM   AM1 6197   7.073  14.061  13.018 -0.2307 -0.0944  0.4566
  529POSM   AM2 6198   6.962  13.864  12.841 -0.1161 -0.0795 -0.1758
  529POSM   T1A 6199   7.218  14.177  12.542  0.2800  0.4447  0.1296
  529POSM   C2A 6200   7.384  14.245  12.109  0.0739  0.2280  0.3631
  529POSM   C3A 6201   7.434  14.309  11.687  0.0392 -0.0778  0.0328
  529POSM   C1B 6202   6.725  13.806  12.581  0.1710  0.1221 -0.0208
  529POSM   D2B 6203   6.463  13.616  12.339 -0.2948  0.0150 -0.0350
  529POSM   C3B 6204   6.658  13.263  12.036 -0.2928 -0.3219  0.3475
  529POSM   C4B 6205   7.065  13.477  11.946  0.0299 -0.0980 -0.0875
  530DOPS   CNO 6206   9.060  19.190  12.579  0.0552  0.1698 -0.1408
  530DOPS   PO4 6207   8.775  18.950  12.521 -0.0192  0.1481 -0.2424
  530DOPS   GL1 6208   8.778  18.974  12.071 -0.0544  0.0804 -0.3167
  530DOPS   GL2 6209   8.826  19.285  11.934 -0.0503  0.1183 -0.1446
  530DOPS   C1A 6210   9.048  18.819  11.771 -0.0344  0.2576 -0.0137
  530DOPS   D2A 6211   9.349  18.558  11.721  0.0435 -0.1690 -0.0892
  530DOPS   C3A 6212   9.327  18.297  11.360 -0.0698 -0.1762 -0.1109
  530DOPS   C4A 6213   9.340  18.046  10.962 -0.0715  0.0052  0.1145
  530DOPS   C1B 6214   9.117  19.360  11.608  0.0853 -0.1321 -0.1030
  530DOPS   D2B 6215   9.389  19.339  11.186 -0.3396  0.2332  0.1103
  530DOPS   C3B 6216   9.306  19.679  10.902  0.2062  0.0110 -0.1301
  530DOPS   C4B 6217   9.189  20.102  10.708  0.1202 -0.0319  0.2491
  531POSM   NC3 6218  12.243  18.413  12.024  0.3904 -0.0197  0.2385
  531POSM   PO4 6219  12.455  18.096  12.007  0.2897  0.0209  0.3250
  531POSM   AM1 6220  12.402  17.944  11.709 -0.0129  0.1959  0.1243
  531POSM   AM2 6221  12.305  17.767  11.515 -0.2950 -0.2103 -0.2037
  531POSM   T1A 6222  12.645  17.982  11.264 -0.1178 -0.1541 -0.1665
  531POSM   C2A 6223  12.492  17.929  10.822 -0.0434  0.2596  0.3150
  531POSM   C3A 6224  12.225  18.105  10.511  0.1368  0.1877  0.0406
  531POSM   C1B 6225  12.199  17.626  11.212 -0.2440 -0.0697  0.4396
  531POSM   D2B 6226  12.236  17.530  10.734  0.2755  0.2161  0.1121
  531POSM   C3B 6227  12.490  17.243  10.546  0.1914  0.0697 -0.1998
  531POSM   C4B 6228  12.587  16.821  10.409  0.2086 -0.2157  0.3497
  532POSM   NC3 6229   6.049  16.044  13.019  0.0936  0.2217 -0.0896
  532POSM   PO4 6230   6.234  15.777  13.204  0.2241 -0.0055 -0.0444
  532POSM   AM1 6231   6.423  15.782  12.888 -0.2065 -0.0172  0.2153
  532POSM   AM2 6232   6.609  15.954  12.745 -0.0699  0.3332 -0.2687
  532POSM   T1A 6233   6.598  15.483  12.514  0.0509  0.1619 -0.1956
  532POSM   C2A 6234   6.965  15.228  12.415  0.2412  0.0160 -0.0852
  532POSM   C3A 6235   7.240  15.140  12.114  0.0883 -0.2181  0.1390
  532POSM   C1B 6236   6.711  15.930  12.371  0.2591 -0.0099  0.0261
  532POSM   D2B 6237   6.619  15.621  12.001  0.1705  0.1413 -0.0886
  532POSM   C3B 6238   6.508  15.209  12.144 -0.1048  0.3011  0.3389
  532POSM   C4B 6239   6.538  14.812  12.268 -0.1810  0.0000 -0.0977
  533POSM   NC3 6240   4.726  19.733  13.194  0.0414 -0.0088 -0.0301
  533POSM   PO4 6241   4.801  20.096  13.309  0.4872 -0.2095 -0.1270
  533POSM   AM1 6242   4.928  20.203  13.014  0.2134 -0.0438 -0.1584
  533POSM   AM2 6243   4.921  20.117  12.752  0.2895  0.1658  0.0071
  533POSM   T1A 6244   5.088  20.550  12.749 -0.0861  0.0827  0.0904
  533POSM   C2A 6245   5.385  20.662  12.410 -0.2878  0.2516 -0.0208
  533POSM   C3A 6246   5.741  20.428  12.219 -0.0110  0.0562 -0.0906
  533POSM   C1B 6247   4.706  20.062  12.508 -0.0079 -0.0207  0.0743
  533POSM   D2B 6248   4.418  20.282  12.162  0.1644  0.0546 -0.1753
  533POSM   C3B 6249   4.130  20.505  11.895 -0.1762  0.1061  0.0379
  533POSM   C4B 6250   3.894  20.883  11.850  0.0763  0.1300  0.0050
  534DOPE   NH3 6251  14.139  18.347  11.856 -0.1615  0.0223 -0.0771
  534DOPE   PO4 6252  13.857  18.251  11.828 -0.1728  0.1111 -0.0316
  534DOPE   GL1 6253  13.735  18.208  11.525 -0.2327 -0.2898  0.0394
  534DOPE   GL2 6254  13.948  17.987  11.431  0.1087  0.2337 -0.0903
  534DOPE   C1A 6255  13.641  18.057  11.069  0.0081 -0.0333  0.0697
  534DOPE   D2A 6256  13.482  17.810  10.757  0.0948 -0.0064 -0.2150
  534DOPE   C3A 6257  13.639  17.959  10.336 -0.0521 -0.0821 -0.0329
  534DOPE   C4A 6258  14.058  18.107  10.106 -0.2448  0.1379  0.1941
  534DOPE   C1B 6259  14.152  17.954  11.015  0.0491  0.0443  0.0249
  534DOPE   D2B 6260  14.245  18.086  10.574 -0.4004  0.1514 -0.3397
  534DOPE   C3B 6261  14.389  17.789  10.275  0.1348  0.2422  0.1779
  534DOPE   C4B 6262  14.773  17.530  10.335 -0.1924 -0.1624  0.3067
  535DOPE   NH3 6263   0.773  19.883  14.530 -0.4205 -0.1259  0.1472
  535DOPE   PO4 6264   1.064  19.780  14.418 -0.2770 -0.0272 -0.2650
  535DOPE   GL1 6265   0.910  20.116  14.139 -0.2068 -0.0265  0.1012
  535DOPE   GL2 6266   0.726  20.284  14.225  0.2084  0.0625 -0.0036
  535DOPE   C1A 6267   0.925  20.339  13.750 -0.1026 -0.1010 -0.0475
  535DOPE   D2A 6268   0.648  20.452  13.434 -0.1608  0.0138 -0.1748
  535DOPE   C3A 6269   0.688  20.487  13.000 -0.0072 -0.0676 -0.1061
  535DOPE   C4A 6270   0.818  20.613  12.562 -0.0892  0.0578 -0.1035
  535DOPE   C1B 6271   0.424  20.376  13.871 -0.0175  0.0948  0.1668
  535DOPE   D2B 6272   0.233  20.126  13.560 -0.3968  0.1330 -0.0866
  535DOPE   C3B 6273   0.204  20.069  13.070  0.1456 -0.0068  0.0277
  535DOPE   C4B 6274   0.375  19.965  12.667 -0.0919  0.1174 -0.2222
  536DOPS   CNO 6275   7.762  11.437  13.851  0.1766 -0.0676  0.1111
  536DOPS   PO4 6276   8.080  11.261  13.759  0.0522  0.1792 -0.1847
  536DOPS   GL1 6277   8.137  11.194  13.313  0.0096  0.2456 -0.0486
  536DOPS   GL2 6278   7.850  11.109  13.245 -0.2709 -0.1443 -0.1277
  536DOPS   C1A 6279   8.240  10.914  12.984  0.1502 -0.3074  0.0180
  536DOPS   D2A 6280   8.274  10.634  12.620  0.2005  0.0040 -0.1007
  536DOPS   C3A 6281   7.997  10.688  12.255 -0.1471  0.0942 -0.0340
  536DOPS   C4A 6282   7.957  10.305  11.920  0.3855 -0.1139  0.0959
  536DOPS   C1B 6283   7.793  10.893  12.830  0.0558  0.0190  0.0506
  536DOPS   D2B 6284   7.615  11.082  12.432 -0.0852  0.0988 -0.0590
  536DOPS   C3B 6285   7.737  11.023  12.014  0.3342  0.1223 -0.0045
  536DOPS   C4B 6286   7.928  10.743  11.721 -0.2299 -0.1321  0.1796
  537DOPS   CNO 6287  34.534  17.870  14.819  0.2005 -0.1501 -0.2546
  537DOPS   PO4 6288  34.721  17.679  14.548 -0.3788 -0.2295  0.4177
  537DOPS   GL1 6289  34.418  17.628  14.361 -0.1188  0.0474 -0.1352
  537DOPS   GL2 6290  34.535  17.380  14.213 -0.3754 -0.0534  0.2302
  537DOPS   C1A 6291  34.355  17.940  14.033  0.3546 -0.3430 -0.1009
  537DOPS   D2A 6292  34.696  18.263  13.911 -0.2781 -0.0675  0.0620
  537DOPS   C3A 6293  34.803  18.316  13.411  0.3966  0.1753 -0.3405
  537DOPS   C4A 6294  34.927  18.234  12.961  0.0018  0.2680  0.0698
  537DOPS   C1B 6295  34.703  17.266  13.800 -0.0396  0.0307 -0.0521
  537DOPS   D2B 6296  35.022  17.247  13.497 -0.1406  0.2376  0.0491
  537DOPS   C3B 6297  34.912  17.336  13.018  0.0845 -0.4485 -0.1597
  537DOPS   C4B 6298  34.585  17.542  12.786  0.0458  0.0709 -0.1157
  538DOPE   NH3 6299   6.536  18.666  12.892  0.0707  0.3231 -0.1330
  538DOPE   PO4 6300   6.314  18.592  12.708 -0.2365  0.0631  0.1371
  538DOPE   GL1 6301   6.307  18.488  12.397  0.2593  0.0568  0.2032
  538DOPE   GL2 6302   6.287  18.166  12.407  0.0457 -0.1293 -0.0688
  538DOPE   C1A 6303   6.577  18.478  12.017  0.4764  0.0863  0.0222
  538DOPE   D2A 6304   6.631  18.376  11.592  0.2388  0.0415 -0.1078
  538DOPE   C3A 6305   7.043  18.404  11.445  0.2152 -0.4498  0.2223
  538DOPE   C4A 6306   7.353  18.542  11.106  0.0238  0.1016 -0.0326
  538DOPE   C1B 6307   5.900  17.949  12.189  0.0298  0.2284 -0.0062
  538DOPE   D2B 6308   5.499  18.065  11.988 -0.2252 -0.1704  0.1506
  538DOPE   C3B 6309   5.504  18.106  11.532 -0.2450 -0.0535 -0.0001
  538DOPE   C4B 6310   5.289  18.161  11.120  0.2490 -0.0075 -0.1470
  539DOPC   NC3 6311   5.684  19.508  12.977  0.2223 -0.0503  0.0281
  539DOPC   PO4 6312   5.566  19.147  12.885  0.1129 -0.1802  0.0528
  539DOPC   GL1 6313   5.568  19.084  12.439 -0.1997 -0.1310  0.0306
  539DOPC   GL2 6314   5.259  19.015  12.448  0.0994 -0.1396  0.0683
  539DOPC   C1A 6315   5.725  19.157  12.039  0.1397  0.0475  0.0579
  539DOPC   D2A 6316   6.128  18.985  11.908  0.0576  0.0319 -0.0292
  539DOPC   C3A 6317   6.335  18.908  11.445 -0.2889 -0.0538  0.1475
  539DOPC   C4A 6318   6.198  18.612  11.107  0.0039  0.0578 -0.0666
  539DOPC   C1B 6319   5.060  18.828  12.053 -0.0500 -0.0048  0.0412
  539DOPC   D2B 6320   4.887  18.772  11.624 -0.0545  0.1589 -0.0923
  539DOPC   C3B 6321   5.247  18.643  11.373 -0.0986 -0.0262  0.3414
  539DOPC   C4B 6322   5.670  18.608  11.173  0.1955 -0.1024 -0.0961
  540DOPE   NH3 6323   7.011  23.042  13.318  0.0385  0.0057  0.0717
  540DOPE   PO4 6324   7.207  22.989  13.062  0.1734  0.0013 -0.0067
  540DOPE   GL1 6325   6.941  22.900  12.751 -0.0351 -0.0159 -0.1685
  540DOPE   GL2 6326   6.966  23.214  12.687 -0.1255 -0.0009 -0.2160
  540DOPE   C1A 6327   6.817  22.708  12.350 -0.0406 -0.0507 -0.1865
  540DOPE   D2A 6328   6.848  22.307  12.105 -0.1042 -0.1253 -0.0926
  540DOPE   C3A 6329   6.913  21.897  12.315  0.2385 -0.1189  0.1219
  540DOPE   C4A 6330   6.755  21.465  12.393 -0.3717  0.1849 -0.1127
  540DOPE   C1B 6331   6.844  23.292  12.201  0.3533  0.0209  0.2001
  540DOPE   D2B 6332   6.691  23.094  11.824  0.1036  0.2426 -0.0743
  540DOPE   C3B 6333   6.508  22.635  11.762 -0.0349  0.0538  0.1073
  540DOPE   C4B 6334   6.467  22.222  11.565 -0.3095  0.0778 -0.0610
  541DOPC   NC3 6335   0.044  15.578  14.673  0.0628  0.1065 -0.2061
  541DOPC   PO4 6336  -0.342  15.670  14.556  0.0503 -0.4725  0.2464
  541DOPC   GL1 6337  -0.693  15.780  14.302  0.0116 -0.3100 -0.3678
  541DOPC   GL2 6338  -0.547  16.034  14.240 -0.2202  0.2511  0.0405
  541DOPC   C1A 6339  -0.717  15.749  13.830 -0.1641 -0.2778 -0.4747
  541DOPC   D2A 6340  -0.614  16.052  13.487 -0.1384 -0.0877  0.1536
  541DOPC   C3A 6341  -0.925  16.293  13.276 -0.1300 -0.3101  0.3021
  541DOPC   C4A 6342  -1.241  16.449  13.032 -0.0880 -0.0499 -0.1973
  541DOPC   C1B 6343  -0.262  15.924  13.843 -0.1793  0.0767  0.2190
  541DOPC   D2B 6344  -0.045  15.784  13.423 -0.1404 -0.0364 -0.1876
  541DOPC   C3B 6345   0.065  15.799  12.976 -0.0621 -0.2898  0.2265
  541DOPC   C4B 6346   0.010  15.886  12.521 -0.1385 -0.0742 -0.0307
  542DOPE   NH3 6347  10.181  14.425  12.724 -0.1446 -0.0807 -0.0823
  542DOPE   PO4 6348  10.374  14.300  12.467  0.1765  0.2539 -0.1262
  542DOPE   GL1 6349  10.120  14.423  12.109 -0.0386 -0.0813 -0.0778
  542DOPE   GL2 6350   9.903  14.287  12.259  0.0371  0.1750 -0.1484
  542DOPE   C1A 6351   9.860  14.083  11.785 -0.1135 -0.2374 -0.0207
  542DOPE   D2A 6352  10.012  13.822  11.483 -0.3544  0.0857  0.1852
  542DOPE   C3A 6353   9.774  13.443  11.367 -0.0724 -0.1350  0.1204
  542DOPE   C4A 6354   9.607  13.038  11.265  0.0091  0.0848  0.0966
  542DOPE   C1B 6355   9.464  14.243  12.096 -0.0701 -0.0053  0.2997
  542DOPE   D2B 6356   9.262  14.155  11.718  0.0780  0.3838  0.1945
  542DOPE   C3B 6357   9.570  14.023  11.375 -0.1924  0.0983 -0.1076
  542DOPE   C4B 6358   9.747  13.810  10.937  0.1465  0.0257 -0.0905
  543DOPE   NH3 6359  11.879  19.142  12.472  0.2316  0.2053  0.0566
  543DOPE   PO4 6360  11.967  18.884  12.289 -0.0112 -0.0974  0.1555
  543DOPE   GL1 6361  12.014  19.052  11.960  0.3862  0.4507 -0.2631
  543DOPE   GL2 6362  11.844  18.966  11.682  0.0860  0.0074  0.2595
  543DOPE   C1A 6363  12.315  18.844  11.656 -0.0921  0.0077 -0.1733
  543DOPE   D2A 6364  12.386  18.402  11.493 -0.2442  0.0100  0.1125
  543DOPE   C3A 6365  12.417  18.423  10.992  0.1924 -0.1915 -0.1342
  543DOPE   C4A 6366  12.649  18.717  10.734  0.1180  0.1565  0.2712
  543DOPE   C1B 6367  12.056  19.119  11.284 -0.0455 -0.2210  0.1039
  543DOPE   D2B 6368  12.423  19.388  11.166 -0.4038  0.3768 -0.2695
  543DOPE   C3B 6369  12.694  19.612  10.907  0.1788  0.0022 -0.3811
  543DOPE   C4B 6370  13.036  19.618  10.629 -0.2275 -0.2019 -0.0733
  544DOPC   NC3 6371   1.604  15.000  14.846 -0.0200 -0.2738  0.0465
  544DOPC   PO4 6372   1.888  14.813  14.630 -0.1214 -0.1258  0.1277
  544DOPC   GL1 6373   1.931  14.850  14.175  0.0102  0.1009 -0.1546
  544DOPC   GL2 6374   2.033  14.569  14.178 -0.1477  0.0058  0.0633
  544DOPC   C1A 6375   1.939  15.171  13.847 -0.1365 -0.2595  0.1168
  544DOPC   D2A 6376   2.074  15.280  13.453  0.1010 -0.2644  0.1072
  544DOPC   C3A 6377   1.734  15.248  13.108 -0.2388  0.0532 -0.1815
  544DOPC   C4A 6378   1.492  14.919  12.840 -0.1058  0.1214  0.1900
  544DOPC   C1B 6379   1.858  14.275  13.787  0.0630  0.1598  0.1488
  544DOPC   D2B 6380   1.559  14.178  13.462 -0.3400  0.1313  0.0514
  544DOPC   C3B 6381   1.507  13.863  13.086  0.3336 -0.1472 -0.2460
  544DOPC   C4B 6382   1.596  13.617  12.720 -0.1014  0.1276  0.0654
  545DOPC   NC3 6383  12.228  15.598  12.075  0.2057  0.1597  0.1814
  545DOPC   PO4 6384  12.197  15.209  12.183 -0.1940 -0.2778 -0.0642
  545DOPC   GL1 6385  12.195  15.167  11.759  0.0307  0.1373 -0.2073
  545DOPC   GL2 6386  12.184  14.859  11.793  0.0933 -0.1545 -0.1874
  545DOPC   C1A 6387  12.568  15.023  11.480 -0.2624 -0.2899  0.0959
  545DOPC   D2A 6388  12.787  15.030  11.072 -0.0064  0.0157  0.1434
  545DOPC   C3A 6389  12.643  14.816  10.717 -0.1699  0.2434  0.1248
  545DOPC   C4A 6390  12.307  14.574  10.511 -0.0704  0.1578 -0.0601
  545DOPC   C1B 6391  12.101  14.818  11.370 -0.2667 -0.0970  0.2152
  545DOPC   D2B 6392  12.189  14.978  10.919  0.2068 -0.2362  0.2989
  545DOPC   C3B 6393  12.071  15.109  10.509 -0.1852  0.1145 -0.1673
  545DOPC   C4B 6394  12.184  14.978  10.063 -0.2069  0.4266 -0.0100
  546DOPE   NH3 6395   9.237  15.968  12.941 -0.0914 -0.0199  0.1009
  546DOPE   PO4 6396   9.044  15.749  12.782 -0.2322 -0.1453 -0.1462
  546DOPE   GL1 6397   9.064  15.532  12.443  0.1194 -0.0253 -0.2620
  546DOPE   GL2 6398   9.342  15.499  12.374 -0.0384  0.3079  0.0811
  546DOPE   C1A 6399   8.902  15.458  12.030  0.2498  0.1037 -0.2283
  546DOPE   D2A 6400   8.944  15.371  11.582  0.1890 -0.1150  0.0407
  546DOPE   C3A 6401   8.737  15.707  11.355 -0.0098  0.2860 -0.0702
  546DOPE   C4A 6402   8.748  15.957  10.990  0.1412  0.2824  0.3515
  546DOPE   C1B 6403   9.414  15.396  11.895 -0.1231 -0.2623  0.0367
  546DOPE   D2B 6404   9.465  15.394  11.432 -0.0433 -0.0048  0.1007
  546DOPE   C3B 6405   9.548  14.967  11.249 -0.3252  0.1285  0.2866
  546DOPE   C4B 6406   9.593  14.533  11.086  0.2336  0.3922  0.0633
  547DOPE   NH3 6407  14.597  17.582  11.373  0.1172 -0.0573 -0.1446
  547DOPE   PO4 6408  14.500  17.303  11.497 -0.1298 -0.2049 -0.2090
  547DOPE   GL1 6409  14.481  17.204  11.129  0.0311 -0.0222  0.0454
  547DOPE   GL2 6410  14.563  16.898  11.125  0.5246 -0.1841 -0.0354
  547DOPE   C1A 6411  14.322  17.213  10.708  0.3204 -0.0013 -0.0330
  547DOPE   D2A 6412  14.362  16.949  10.288 -0.0378  0.4642 -0.0082
  547DOPE   C3A 6413  14.641  16.937   9.942 -0.2155 -0.0530 -0.1822
  547DOPE   C4A 6414  15.091  17.134   9.893 -0.0051  0.1942  0.0749
  547DOPE   C1B 6415  14.465  16.699  10.741  0.3185  0.2016 -0.0481
  547DOPE   D2B 6416  14.695  16.549  10.410 -0.1509 -0.2871  0.0267
  547DOPE   C3B 6417  15.078  16.305  10.248  0.1717 -0.0327  0.0528
  547DOPE   C4B 6418  15.241  15.984   9.939  0.2782 -0.1904 -0.1718
  548DOPS   CNO 6419   3.714  18.338  13.473 -0.0195  0.0933 -0.0990
  548DOPS   PO4 6420   3.807  18.056  13.235  0.0960  0.0485  0.1048
  548DOPS   GL1 6421   3.714  18.001  12.778 -0.0770 -0.1563  0.2806
  548DOPS   GL2 6422   3.799  18.235  12.688 -0.4240 -0.1925 -0.0980
  548DOPS   C1A 6423   3.490  18.022  12.372  0.0768  0.1068 -0.2101
  548DOPS   D2A 6424   3.488  17.983  11.904 -0.2602 -0.3845 -0.2332
  548DOPS   C3A 6425   3.729  18.094  11.482 -0.3720 -0.0805 -0.0988
  548DOPS   C4A 6426   3.903  17.848  11.112 -0.0572  0.2413 -0.2032
  548DOPS   C1B 6427   4.063  17.830  12.542  0.0357  0.1041 -0.1526
  548DOPS   D2B 6428   4.179  17.390  12.463  0.2979  0.3116 -0.0512
  548DOPS   C3B 6429   4.321  17.182  12.065 -0.1513  0.0346 -0.1821
  548DOPS   C4B 6430   4.495  17.252  11.639 -0.0222 -0.1964 -0.0394
  549POSM   NC3 6431   9.027  22.549  12.880 -0.0356 -0.2372  0.0203
  549POSM   PO4 6432   9.352  22.423  12.772 -0.0271 -0.1846 -0.4063
  549POSM   AM1 6433   9.223  22.545  12.493 -0.0363 -0.0213  0.2384
  549POSM   AM2 6434   9.129  22.512  12.230  0.2424  0.1279 -0.2426
  549POSM   T1A 6435   9.294  22.949  12.178 -0.1925  0.2400 -0.4314
  549POSM   C2A 6436   9.112  23.266  11.919 -0.2349  0.0743 -0.0136
  549POSM   C3A 6437   8.760  23.421  11.624  0.0375 -0.3145 -0.1170
  549POSM   C1B 6438   9.044  22.546  11.856 -0.0881 -0.0988 -0.5160
  549POSM   D2B 6439   9.180  22.605  11.386 -0.1506 -0.2480 -0.0814
  549POSM   C3B 6440   9.482  22.249  11.163 -0.1250  0.1271  0.1525
  549POSM   C4B 6441   9.656  21.921  10.850  0.0468 -0.0546 -0.1772
  550DOPC   NC3 6442   3.436  21.457  13.882  0.0667 -0.2974  0.0681
  550DOPC   PO4 6443   3.057  21.332  13.856  0.0328  0.1556  0.1076
  550DOPC   GL1 6444   2.869  21.242  13.443  0.2226  0.0555  0.0634
  550DOPC   GL2 6445   3.046  21.216  13.191  0.0338  0.0884  0.5015
  550DOPC   C1A 6446   2.548  21.534  13.177  0.0588  0.0804  0.1388
  550DOPC   D2A 6447   2.224  21.503  12.885  0.6051  0.1227 -0.1437
  550DOPC   C3A 6448   1.906  21.189  12.744 -0.4264 -0.0243 -0.0822
  550DOPC   C4A 6449   1.551  20.856  12.630  0.3884  0.1385 -0.0558
  550DOPC   C1B 6450   2.989  21.553  12.882 -0.1487 -0.0874  0.0385
  550DOPC   D2B 6451   3.095  21.625  12.464  0.0593 -0.0886  0.1776
  550DOPC   C3B 6452   2.869  21.932  12.315 -0.1712 -0.1553  0.0867
  550DOPC   C4B 6453   2.679  22.038  11.899 -0.2029 -0.0938 -0.0997
  551DOPC   NC3 6454   6.516  14.978  13.279 -0.0464  0.1653 -0.4167
  551DOPC   PO4 6455   6.513  14.606  13.110  0.2060  0.3762 -0.1164
  551DOPC   GL1 6456   6.495  14.446  12.786  0.1102 -0.2279  0.0513
  551DOPC   GL2 6457   6.225  14.620  12.620 -0.1428  0.0071  0.2368
  551DOPC   C1A 6458   6.750  14.343  12.457  0.4450 -0.0810 -0.0150
  551DOPC   D2A 6459   6.935  13.982  12.170  0.0350  0.2949 -0.0008
  551DOPC   C3A 6460   6.949  14.101  11.715  0.0940 -0.1342 -0.2557
  551DOPC   C4A 6461   7.158  14.132  11.310 -0.0713 -0.0814 -0.1436
  551DOPC   C1B 6462   6.104  14.443  12.178 -0.0054 -0.0157  0.1937
  551DOPC   D2B 6463   6.199  14.269  11.728 -0.0688 -0.0936 -0.1467
  551DOPC   C3B 6464   5.797  14.424  11.444 -0.4672  0.1282 -0.2094
  551DOPC   C4B 6465   5.343  14.481  11.513  0.5754  0.0283  0.1058
  552DOPS   CNO 6466   5.602  13.956  13.719  0.0176 -0.2465  0.1448
  552DOPS   PO4 6467   5.905  13.932  13.470  0.0607 -0.0420  0.1680
  552DOPS   GL1 6468   6.066  13.916  13.046 -0.2088 -0.1086  0.1299
  552DOPS   GL2 6469   6.125  14.218  13.009 -0.2073 -0.0467 -0.1196
  552DOPS   C1A 6470   6.178  13.610  12.759 -0.0623  0.0420 -0.2114
  552DOPS   D2A 6471   5.958  13.634  12.354  0.1994  0.1570 -0.1108
  552DOPS   C3A 6472   6.192  13.515  11.926 -0.0187  0.0350 -0.2216
  552DOPS   C4A 6473   6.614  13.718  11.799 -0.2904 -0.2429  0.0966
  552DOPS   C1B 6474   6.301  14.106  12.551  0.1324 -0.0294  0.0816
  552DOPS   D2B 6475   6.460  14.074  12.111  0.3011 -0.0330 -0.3057
  552DOPS   C3B 6476   6.643  14.435  11.915  0.0304  0.2944  0.1879
  552DOPS   C4B 6477   6.422  14.850  11.753 -0.0925  0.1074  0.1590
  553DOPC   NC3 6478  12.136  24.376  12.452  0.0638 -0.2029  0.2557
  553DOPC   PO4 6479  11.803  24.532  12.613  0.1969  0.3401 -0.3665
  553DOPC   GL1 6480  11.800  24.603  12.278  0.0413  0.1849  0.1383
  553DOPC   GL2 6481  11.700  24.902  12.304 -0.2960  0.1061  0.2543
  553DOPC   C1A 6482  11.510  24.477  11.921 -0.1880 -0.0569  0.1339
  553DOPC   D2A 6483  11.123  24.563  11.635  0.2332 -0.0927 -0.0035
  553DOPC   C3A 6484  11.138  24.289  11.253 -0.0680  0.1426  0.2342
  553DOPC   C4A 6485  11.133  23.901  11.019 -0.2835 -0.1102 -0.1341
  553DOPC   C1B 6486  11.954  24.957  11.943  0.0005 -0.0205 -0.1449
  553DOPC   D2B 6487  12.127  25.066  11.467 -0.3252  0.5270  0.0173
  553DOPC   C3B 6488  11.865  25.142  11.066 -0.0510 -0.1133 -0.0956
  553DOPC   C4B 6489  11.532  25.099  10.830  0.1548  0.2168 -0.2397
  554POSM   NC3 6490  11.163  14.920  13.124 -0.1896 -0.1209 -0.2799
  554POSM   PO4 6491  11.237  14.822  12.733 -0.1241  0.1339  0.0157
  554POSM   AM1 6492  11.157  14.790  12.417  0.0979 -0.1977  0.2168
  554POSM   AM2 6493  11.305  14.842  12.201 -0.0122 -0.1991  0.1995
  554POSM   T1A 6494  10.833  14.609  12.025 -0.1590 -0.0796 -0.1302
  554POSM   C2A 6495  10.539  14.371  11.789 -0.0758 -0.0794  0.3519
  554POSM   C3A 6496  10.398  14.115  11.454 -0.1116  0.0954  0.2170
  554POSM   C1B 6497  11.380  14.941  11.919  0.2932 -0.1678  0.2210
  554POSM   D2B 6498  11.210  15.083  11.473 -0.0236 -0.1578  0.4602
  554POSM   C3B 6499  11.371  15.438  11.270  0.0857  0.1956  0.2912
  554POSM   C4B 6500  11.476  15.729  10.891 -0.2057  0.1380 -0.3235
  555DOPC   NC3 6501   5.537  10.796  13.896 -0.0114 -0.0543  0.0483
  555DOPC   PO4 6502   5.515  11.021  13.624 -0.2162 -0.0613  0.0032
  555DOPC   GL1 6503   5.433  10.894  13.266  0.1002  0.1552 -0.0912
  555DOPC   GL2 6504   5.179  10.835  13.236 -0.1027  0.0594  0.1093
  555DOPC   C1A 6505   5.462  10.794  12.813  0.0569  0.1225  0.3288
  555DOPC   D2A 6506   5.464  10.605  12.378  0.3460  0.4524  0.1215
  555DOPC   C3A 6507   5.005  10.552  12.254 -0.0092  0.1199  0.1569
  555DOPC   C4A 6508   4.624  10.797  12.190  0.1272  0.1096  0.1610
  555DOPC   C1B 6509   4.973  10.847  12.834 -0.4041  0.2091 -0.1536
  555DOPC   D2B 6510   4.737  11.213  12.558  0.0819  0.1731  0.1552
  555DOPC   C3B 6511   4.467  11.612  12.534 -0.0835 -0.2561 -0.0455
  555DOPC   C4B 6512   4.133  11.792  12.291 -0.0944 -0.2732  0.3247
  556DOPC   NC3 6513   8.153  12.000  13.187 -0.2950 -0.1395 -0.1018
  556DOPC   PO4 6514   7.822  12.193  13.296 -0.0156 -0.1472  0.0479
  556DOPC   GL1 6515   7.705  12.077  12.919  0.2112  0.2170  0.2084
  556DOPC   GL2 6516   7.915  11.964  12.730  0.0872  0.0875  0.1393
  556DOPC   C1A 6517   7.443  12.127  12.535 -0.0814  0.0354 -0.0093
  556DOPC   D2A 6518   7.522  11.968  12.082  0.0780 -0.3430 -0.0620
  556DOPC   C3A 6519   7.866  12.236  11.902  0.1736 -0.2309 -0.1567
  556DOPC   C4A 6520   8.003  12.494  11.596  0.2431  0.1142 -0.3414
  556DOPC   C1B 6521   8.061  12.216  12.384  0.2303  0.1235  0.0060
  556DOPC   D2B 6522   8.280  12.390  12.059 -0.1703 -0.0672 -0.1865
  556DOPC   C3B 6523   8.450  12.210  11.661  0.1535  0.2492  0.1426
  556DOPC   C4B 6524   8.815  12.412  11.473 -0.0462  0.1216 -0.1843
  557DOPE   NH3 6525   4.033  10.242  14.186 -0.1927  0.0236 -0.1242
  557DOPE   PO4 6526   3.837  10.487  14.106  0.1917  0.1272 -0.1394
  557DOPE   GL1 6527   3.918  10.454  13.723  0.1376 -0.2627 -0.3938
  557DOPE   GL2 6528   4.111  10.137  13.708  0.0284 -0.1129  0.1698
  557DOPE   C1A 6529   4.075  10.596  13.299  0.0088 -0.2267 -0.1820
  557DOPE   D2A 6530   4.001  10.704  12.876  0.0878 -0.3257  0.2774
  557DOPE   C3A 6531   3.649  10.981  12.652 -0.1676 -0.0810  0.2825
  557DOPE   C4A 6532   3.240  11.131  12.469  0.2366  0.0539  0.3407
  557DOPE   C1B 6533   3.991  10.090  13.251  0.0320 -0.1363 -0.0287
  557DOPE   D2B 6534   3.898   9.830  12.870 -0.0999 -0.0497 -0.2008
  557DOPE   C3B 6535   3.754   9.960  12.448  0.1958  0.2183 -0.0340
  557DOPE   C4B 6536   3.746  10.053  12.041 -0.0101  0.1387 -0.5001
  558POSM   NC3 6537   8.836  12.326  13.074 -0.0848 -0.0575 -0.2852
  558POSM   PO4 6538   8.990  12.156  13.377 -0.0076 -0.4918 -0.3239
  558POSM   AM1 6539   9.062  11.910  13.184 -0.3043  0.2466  0.1593
  558POSM   AM2 6540   9.128  11.948  12.863  0.3438 -0.1949 -0.0366
  558POSM   T1A 6541   8.893  11.537  12.841 -0.0144 -0.0193  0.0060
  558POSM   C2A 6542   9.043  11.197  12.530 -0.0196  0.2839 -0.1393
  558POSM   C3A 6543   9.098  10.783  12.324 -0.0084  0.0915  0.3187
  558POSM   C1B 6544   9.037  11.897  12.470 -0.0761  0.4566 -0.0080
  558POSM   D2B 6545   8.861  11.768  12.058  0.0925 -0.0462  0.0355
  558POSM   C3B 6546   9.036  11.896  11.623  0.0729 -0.2471 -0.0210
  558POSM   C4B 6547   9.356  11.866  11.321  0.1299 -0.3242  0.0454
  559POSM   NC3 6548   0.525  21.300  14.750 -0.0721  0.4181  0.0074
  559POSM   PO4 6549   0.674  21.322  14.402  0.0043  0.4449  0.1414
  559POSM   AM1 6550   0.535  21.416  14.102  0.4752  0.2041  0.0920
  559POSM   AM2 6551   0.312  21.575  14.034  0.2429  0.0734  0.1725
  559POSM   T1A 6552   0.592  21.486  13.604 -0.1434  0.2897 -0.3462
  559POSM   C2A 6553   0.738  21.400  13.143 -0.0412 -0.0283 -0.2016
  559POSM   C3A 6554   0.705  21.079  12.805 -0.0675 -0.0996 -0.0390
  559POSM   C1B 6555   0.098  21.709  13.846  0.0894 -0.1813  0.1653
  559POSM   D2B 6556  -0.182  21.770  13.468  0.0749 -0.1318 -0.0349
  559POSM   C3B 6557  -0.676  21.827  13.435  0.1069 -0.1068 -0.0404
  559POSM   C4B 6558  -1.142  21.855  13.436  0.0358 -0.0737 -0.0681
  560DOPE   NH3 6559   2.696  15.436  14.217  0.1408  0.0898 -0.0779
  560DOPE   PO4 6560   2.782  15.540  13.915 -0.0586  0.1337 -0.3190
  560DOPE   GL1 6561   2.756  15.471  13.499  0.2794 -0.1437  0.3374
  560DOPE   GL2 6562   2.966  15.161  13.592  0.2223  0.1485 -0.1012
  560DOPE   C1A 6563   2.463  15.674  13.166  0.0751  0.0775 -0.2370
  560DOPE   D2A 6564   2.135  15.659  12.846 -0.2184  0.0056  0.3405
  560DOPE   C3A 6565   2.140  15.534  12.402 -0.1033 -0.0426 -0.0909
  560DOPE   C4A 6566   2.131  15.880  12.147  0.1216  0.0676 -0.0733
  560DOPE   C1B 6567   3.010  14.873  13.212  0.3125 -0.2776 -0.5555
  560DOPE   D2B 6568   3.001  14.787  12.769  0.1311 -0.0081 -0.1370
  560DOPE   C3B 6569   3.240  14.367  12.610 -0.0650  0.2723  0.1774
  560DOPE   C4B 6570   3.562  14.045  12.436  0.0080 -0.1396 -0.2022
  561POSM   NC3 6571   0.961  15.930  14.262  0.2529  0.1159  0.1539
  561POSM   PO4 6572   1.025  16.240  14.464  0.0004 -0.0775 -0.4550
  561POSM   AM1 6573   1.072  16.414  14.191  0.3533  0.0732 -0.0822
  561POSM   AM2 6574   0.995  16.506  13.962  0.2447  0.0042  0.2200
  561POSM   T1A 6575   1.416  16.450  13.794  0.2570  0.0224 -0.1937
  561POSM   C2A 6576   1.439  16.640  13.347  0.0949  0.1004 -0.2298
  561POSM   C3A 6577   1.699  16.871  13.029  0.0724  0.2452 -0.0080
  561POSM   C1B 6578   0.849  16.285  13.751 -0.0551  0.0624 -0.2175
  561POSM   D2B 6579   0.602  15.966  13.546 -0.0474  0.2167  0.1979
  561POSM   C3B 6580   0.572  15.868  13.097 -0.3050  0.1761 -0.2360
  561POSM   C4B 6581   0.862  15.606  12.867 -0.3875  0.2781 -0.0595
  562DOPE   NH3 6582   7.703  22.256  12.985  0.1172  0.1819 -0.0438
  562DOPE   PO4 6583   7.441  22.343  13.171 -0.2190 -0.1712  0.0195
  562DOPE   GL1 6584   7.305  22.605  12.890 -0.0808 -0.3005  0.0896
  562DOPE   GL2 6585   7.044  22.469  12.807  0.2286  0.1525 -0.0009
  562DOPE   C1A 6586   7.550  22.638  12.451  0.2021  0.0711 -0.1494
  562DOPE   D2A 6587   7.313  22.646  12.082 -0.0854 -0.2246  0.0525
  562DOPE   C3A 6588   7.182  22.928  11.742 -0.0149  0.1963 -0.2491
  562DOPE   C4A 6589   7.019  23.221  11.438  0.1391  0.2789 -0.0255
  562DOPE   C1B 6590   7.257  22.189  12.508 -0.1235  0.0492 -0.0431
  562DOPE   D2B 6591   7.426  22.140  12.086 -0.4092  0.1155 -0.1045
  562DOPE   C3B 6592   7.602  21.831  11.813 -0.5532  0.0375 -0.1688
  562DOPE   C4B 6593   7.468  21.654  11.414 -0.0517 -0.1800  0.1509
  563POSM   NC3 6594   1.839  16.925  14.365 -0.0995  0.2310 -0.0372
  563POSM   PO4 6595   1.617  17.254  14.312  0.0204  0.3137 -0.0430
  563POSM   AM1 6596   1.383  17.233  14.007  0.2603  0.0064  0.1057
  563POSM   AM2 6597   1.180  17.401  13.884  0.0134  0.0416  0.0601
  563POSM   T1A 6598   1.172  16.896  13.698 -0.2682 -0.1459 -0.0478
  563POSM   C2A 6599   0.918  16.679  13.436  0.0347 -0.0766 -0.1480
  563POSM   C3A 6600   0.833  16.318  13.166 -0.1619  0.0978  0.1421
  563POSM   C1B 6601   1.229  17.466  13.540  0.1255 -0.1944 -0.1174
  563POSM   D2B 6602   1.284  17.599  13.052  0.0199  0.4063 -0.4598
  563POSM   C3B 6603   1.481  17.325  12.817  0.2146  0.1558 -0.0661
  563POSM   C4B 6604   1.979  17.150  12.770 -0.0944  0.0260  0.1181
  564DOPS   CNO 6605  11.218  12.482  12.962  0.0364 -0.0004 -0.2327
  564DOPS   PO4 6606  11.212  12.845  12.929 -0.0585  0.1476  0.2139
  564DOPS   GL1 6607  11.064  12.889  12.593 -0.0783  0.0832  0.3467
  564DOPS   GL2 6608  10.771  12.886  12.490  0.0106 -0.2137 -0.0756
  564DOPS   C1A 6609  11.122  12.732  12.158  0.4414 -0.0140  0.0854
  564DOPS   D2A 6610  11.196  12.722  11.672  0.1903  0.2457 -0.2326
  564DOPS   C3A 6611  11.288  12.337  11.401 -0.3104 -0.2115  0.4319
  564DOPS   C4A 6612  11.430  12.089  11.018 -0.0402 -0.1912 -0.0574
  564DOPS   C1B 6613  10.406  13.084  12.316 -0.0195  0.1075  0.1608
  564DOPS   D2B 6614  10.247  13.410  11.968 -0.0352  0.2897  0.4716
  564DOPS   C3B 6615  10.273  13.320  11.511 -0.1986 -0.0872 -0.1624
  564DOPS   C4B 6616  10.118  13.014  11.306 -0.0325  0.0349  0.2702
  565DOPC   NC3 6617   8.315  20.212  12.224  0.2984  0.2346 -0.0662
  565DOPC   PO4 6618   7.964  20.045  12.165 -0.2218  0.0458  0.0314
  565DOPC   GL1 6619   8.107  20.114  11.811 -0.3818  0.0256 -0.2892
  565DOPC   GL2 6620   8.036  20.043  11.515 -0.0181  0.1136  0.3447
  565DOPC   C1A 6621   8.377  20.494  11.719 -0.0547  0.0950 -0.3211
  565DOPC   D2A 6622   8.521  20.781  11.416 -0.1237 -0.4472 -0.3424
  565DOPC   C3A 6623   8.295  20.875  11.003  0.0160  0.2424 -0.1540
  565DOPC   C4A 6624   8.281  20.645  10.624  0.2410 -0.1503  0.1888
  565DOPC   C1B 6625   7.797  20.089  11.136  0.0605 -0.0740 -0.4368
  565DOPC   D2B 6626   7.902  20.358  10.800  0.1056 -0.0694  0.1698
  565DOPC   C3B 6627   7.756  20.682  10.474 -0.3606  0.2996 -0.1354
  565DOPC   C4B 6628   7.367  20.942  10.541 -0.3408  0.2355 -0.1647
  566DOPS   CNO 6629   4.140  21.092  13.493  0.0439  0.3790 -0.2946
  566DOPS   PO4 6630   4.291  21.256  13.210  0.0920  0.0643  0.2678
  566DOPS   GL1 6631   4.097  21.215  12.827 -0.0337  0.0177 -0.3482
  566DOPS   GL2 6632   3.831  21.178  12.880 -0.3846  0.2217  0.3164
  566DOPS   C1A 6633   4.316  21.200  12.396 -0.1980  0.1892 -0.2035
  566DOPS   D2A 6634   4.536  20.877  12.217  0.3782  0.3933  0.1531
  566DOPS   C3A 6635   4.692  20.922  11.809 -0.3112 -0.0726 -0.0766
  566DOPS   C4A 6636   5.165  20.838  11.681 -0.2416  0.3266  0.0008
  566DOPS   C1B 6637   3.976  21.576  12.620  0.0321 -0.0620  0.0735
  566DOPS   D2B 6638   4.027  21.776  12.224 -0.3144  0.0099  0.2286
  566DOPS   C3B 6639   3.846  22.193  12.132  0.2209 -0.1334  0.2950
  566DOPS   C4B 6640   3.740  22.597  11.883 -0.0177 -0.2129 -0.0682
  567DOPE   NH3 6641  11.121  23.189  13.008 -0.1029  0.2197 -0.1272
  567DOPE   PO4 6642  10.918  23.126  12.790 -0.0667 -0.1816 -0.1256
  567DOPE   GL1 6643  11.029  23.226  12.306  0.5387  0.1194 -0.0199
  567DOPE   GL2 6644  11.168  23.093  12.132  0.0809  0.0244  0.1893
  567DOPE   C1A 6645  11.315  23.602  12.192  0.1219 -0.0021  0.0878
  567DOPE   D2A 6646  11.201  24.054  12.075 -0.1292  0.3844  0.2457
  567DOPE   C3A 6647  10.955  24.007  11.727  0.2294 -0.0135  0.1880
  567DOPE   C4A 6648  10.857  23.670  11.443 -0.2161  0.0987 -0.1882
  567DOPE   C1B 6649  11.168  23.440  11.771 -0.0784 -0.0333 -0.1137
  567DOPE   D2B 6650  11.179  23.296  11.325  0.1800  0.3232  0.2179
  567DOPE   C3B 6651  11.057  23.375  10.870  0.0891 -0.2241 -0.0966
  567DOPE   C4B 6652  11.137  23.583  10.452  0.2738  0.0652 -0.1999
  568DOPC   NC3 6653   2.710  20.986  13.809 -0.3026  0.1492 -0.2600
  568DOPC   PO4 6654   2.748  20.628  13.928 -0.1409 -0.0290  0.1321
  568DOPC   GL1 6655   2.653  20.242  13.785 -0.1869  0.3816 -0.1981
  568DOPC   GL2 6656   2.398  20.118  13.897  0.1372 -0.0675  0.0409
  568DOPC   C1A 6657   2.595  20.141  13.347 -0.0804  0.0264 -0.0858
  568DOPC   D2A 6658   2.571  19.952  12.951  0.1226  0.0298  0.0584
  568DOPC   C3A 6659   2.268  19.878  12.609  0.0146  0.1496 -0.1395
  568DOPC   C4A 6660   1.937  19.742  12.296 -0.0730 -0.0389 -0.0890
  568DOPC   C1B 6661   2.141  20.074  13.493 -0.1734 -0.2063  0.1142
  568DOPC   D2B 6662   2.048  20.017  13.036  0.1395  0.2300  0.0439
  568DOPC   C3B 6663   1.797  19.653  12.865 -0.0405  0.0410 -0.0302
  568DOPC   C4B 6664   1.368  19.533  12.785 -0.0618  0.0034 -0.0779
  569DOPS   CNO 6665   1.506  16.074  14.586  0.1100 -0.0080 -0.0059
  569DOPS   PO4 6666   1.476  15.732  14.463  0.2096  0.0181  0.2004
  569DOPS   GL1 6667   1.655  15.442  14.160  0.1309 -0.3834 -0.0372
  569DOPS   GL2 6668   1.762  15.643  13.929  0.1763 -0.0274  0.1981
  569DOPS   C1A 6669   1.528  14.996  14.097  0.1507  0.3046  0.0628
  569DOPS   D2A 6670   1.399  14.568  13.880 -0.0751  0.0923  0.1445
  569DOPS   C3A 6671   1.267  14.190  14.055  0.1073  0.1061 -0.1692
  569DOPS   C4A 6672   1.093  13.844  14.277 -0.3506 -0.1337  0.2840
  569DOPS   C1B 6673   1.573  15.426  13.579  0.1544  0.0725  0.0267
  569DOPS   D2B 6674   1.675  14.980  13.516 -0.0871 -0.2498  0.0140
  569DOPS   C3B 6675   1.445  14.645  13.320 -0.0451 -0.1733  0.2257
  569DOPS   C4B 6676   1.239  14.374  13.091  0.4194  0.0131 -0.0257
  570DOPC   NC3 6677   3.846  15.786  12.943 -0.0651  0.1736  0.4023
  570DOPC   PO4 6678   4.133  15.936  13.166 -0.2105 -0.0175 -0.1238
  570DOPC   GL1 6679   4.454  15.849  12.971 -0.2363  0.0043 -0.1289
  570DOPC   GL2 6680   4.682  15.999  13.090 -0.0027  0.1626 -0.1749
  570DOPC   C1A 6681   4.467  15.806  12.496 -0.0615  0.0621  0.1052
  570DOPC   D2A 6682   4.691  15.778  12.122 -0.2822  0.1232  0.1258
  570DOPC   C3A 6683   4.825  15.408  11.847 -0.2448 -0.0054  0.1154
  570DOPC   C4A 6684   5.046  15.036  11.643 -0.1437  0.0353  0.2312
  570DOPC   C1B 6685   4.880  15.746  12.713  0.1563 -0.0651  0.0959
  570DOPC   D2B 6686   4.989  15.490  12.362 -0.1029 -0.1081 -0.1168
  570DOPC   C3B 6687   4.575  15.324  12.282  0.0339  0.1200 -0.4957
  570DOPC   C4B 6688   4.161  15.193  12.137 -0.0395 -0.0880  0.2153
  571DOPE   NH3 6689  13.180  18.760  12.095  0.0937 -0.0348 -0.0374
  571DOPE   PO4 6690  13.190  18.635  11.799 -0.0819  0.0128  0.2227
  571DOPE   GL1 6691  13.146  18.766  11.371  0.0400  0.0814  0.4285
  571DOPE   GL2 6692  12.902  18.662  11.330 -0.1955  0.0752 -0.0155
  571DOPE   C1A 6693  13.326  19.120  11.147  0.0387  0.0922  0.2986
  571DOPE   D2A 6694  13.533  19.283  10.830 -0.2856  0.1412 -0.4177
  571DOPE   C3A 6695  13.257  19.164  10.498 -0.2111  0.2697 -0.4498
  571DOPE   C4A 6696  13.181  19.032  10.076  0.0514  0.2082  0.0886
  571DOPE   C1B 6697  12.906  18.307  11.024  0.2885  0.0776 -0.0665
  571DOPE   D2B 6698  13.060  18.047  10.670 -0.0231  0.2319  0.0598
  571DOPE   C3B 6699  12.851  17.800  10.324  0.1495 -0.4201  0.3875
  571DOPE   C4B 6700  12.675  17.382  10.116 -0.0339  0.2030  0.1195
  572POSM   NC3 6701  11.099  22.679  12.570 -0.5729 -0.1236 -0.1485
  572POSM   PO4 6702  10.712  22.616  12.717  0.3200  0.1556  0.1019
  572POSM   AM1 6703  10.678  22.613  12.403 -0.1061 -0.0781  0.1299
  572POSM   AM2 6704  10.595  22.419  12.219 -0.3849  0.2394  0.0668
  572POSM   T1A 6705  10.568  22.807  11.941  0.1631 -0.1698  0.2169
  572POSM   C2A 6706  10.448  22.778  11.505  0.1537  0.4753 -0.4603
  572POSM   C3A 6707  10.319  23.002  11.124 -0.1639  0.0562 -0.1546
  572POSM   C1B 6708  10.436  22.341  11.880 -0.0480 -0.1013  0.0270
  572POSM   D2B 6709  10.316  22.249  11.415  0.1113  0.3358  0.0302
  572POSM   C3B 6710   9.934  22.006  11.326 -0.4172 -0.3885  0.1951
  572POSM   C4B 6711   9.566  21.873  11.571  0.5094  0.1476  0.2126
  573DOPE   NH3 6712   7.699  20.378  12.518 -0.0798  0.1028  0.3128
  573DOPE   PO4 6713   7.485  20.205  12.704 -0.0181  0.0407  0.2248
  573DOPE   GL1 6714   7.210  20.221  12.339  0.1335 -0.0153 -0.0700
  573DOPE   GL2 6715   7.414  20.196  12.087  0.0923  0.1572  0.0648
  573DOPE   C1A 6716   6.963  20.579  12.143 -0.4131  0.1360  0.1224
  573DOPE   D2A 6717   7.047  20.999  11.928 -0.0282  0.1081  0.0881
  573DOPE   C3A 6718   7.122  21.273  11.524 -0.1592 -0.1299  0.1140
  573DOPE   C4A 6719   6.904  21.674  11.444 -0.3243 -0.2519 -0.0501
  573DOPE   C1B 6720   7.592  20.196  11.683  0.0042 -0.0676 -0.0201
  573DOPE   D2B 6721   7.760  20.555  11.413  0.1596  0.0190  0.0274
  573DOPE   C3B 6722   8.136  20.430  11.210 -0.2252 -0.0832  0.0823
  573DOPE   C4B 6723   8.563  20.419  11.074  0.1512 -0.0995  0.3117
  574POSM   NC3 6724  10.712  21.857  12.590  0.1270  0.3372  0.1429
  574POSM   PO4 6725  10.960  22.160  12.558  0.0559  0.2235  0.3065
  574POSM   AM1 6726  11.021  22.134  12.233  0.1027  0.1355 -0.1840
  574POSM   AM2 6727  11.095  22.341  12.026  0.3277 -0.0954  0.1117
  574POSM   T1A 6728  10.796  21.967  11.817 -0.0459 -0.0608  0.1261
  574POSM   C2A 6729  10.688  21.868  11.359  0.0267  0.1293 -0.1429
  574POSM   C3A 6730  10.531  22.021  10.930  0.1064  0.0934 -0.2250
  574POSM   C1B 6731  11.067  22.661  11.900  0.1637 -0.1049  0.0633
  574POSM   D2B 6732  10.940  23.014  11.597  0.0707  0.0168  0.2242
  574POSM   C3B 6733  10.853  22.894  11.184  0.1791 -0.1191  0.0878
  574POSM   C4B 6734  10.583  22.548  10.939 -0.1237  0.0914  0.1787
  575DOPC   NC3 6735  11.649  14.951  13.002 -0.1324  0.2172 -0.1199
  575DOPC   PO4 6736  11.948  14.847  12.758 -0.0483  0.2064  0.0165
  575DOPC   GL1 6737  11.868  14.998  12.393 -0.2965 -0.3073  0.3280
  575DOPC   GL2 6738  11.573  15.147  12.457 -0.2524 -0.2041 -0.0202
  575DOPC   C1A 6739  11.775  14.705  12.059 -0.4099 -0.0060  0.0161
  575DOPC   D2A 6740  11.579  14.552  11.659  0.1410 -0.1140  0.3036
  575DOPC   C3A 6741  11.394  14.264  11.369  0.0041  0.1023 -0.0665
  575DOPC   C4A 6742  11.339  14.049  10.968 -0.2986  0.0258 -0.0753
  575DOPC   C1B 6743  11.285  15.399  12.263 -0.0608  0.0136  0.1063
  575DOPC   D2B 6744  11.246  15.506  11.851  0.0241 -0.1025 -0.2389
  575DOPC   C3B 6745  10.984  15.688  11.540  0.1014 -0.3986 -0.4929
  575DOPC   C4B 6746  10.990  15.840  11.157 -0.0820 -0.0759 -0.0119
  576DOPE   NH3 6747   8.465  22.705  12.842  0.1035  0.1384 -0.0492
  576DOPE   PO4 6748   8.545  22.403  12.858  0.3782 -0.1023 -0.0304
  576DOPE   GL1 6749   8.441  22.159  12.563 -0.0940  0.1177  0.0645
  576DOPE   GL2 6750   8.514  22.362  12.364 -0.1024  0.2584 -0.0473
  576DOPE   C1A 6751   8.231  22.030  12.142  0.0005  0.1810  0.3432
  576DOPE   D2A 6752   8.073  21.859  11.777 -0.3752 -0.2506  0.4621
  576DOPE   C3A 6753   8.032  22.017  11.349 -0.0875 -0.1660  0.0880
  576DOPE   C4A 6754   7.845  22.131  10.960 -0.2844 -0.1858 -0.0673
  576DOPE   C1B 6755   8.583  22.426  11.920 -0.0559 -0.1262  0.1985
  576DOPE   D2B 6756   8.651  22.486  11.522  0.1073  0.1795  0.1051
  576DOPE   C3B 6757   8.361  22.671  11.185  0.0898 -0.2248 -0.1078
  576DOPE   C4B 6758   8.095  22.681  10.827 -0.0547 -0.0317 -0.0811
  577POSM   NC3 6759   5.607  13.557  13.464 -0.4267 -0.0703  0.2167
  577POSM   PO4 6760   5.242  13.604  13.661 -0.0406  0.0977 -0.0459
  577POSM   AM1 6761   5.072  13.463  13.441 -0.2961 -0.5831  0.3940
  577POSM   AM2 6762   5.097  13.192  13.314 -0.1800 -0.1556 -0.2601
  577POSM   T1A 6763   4.695  13.410  13.039  0.0844 -0.2653  0.3291
  577POSM   C2A 6764   4.700  13.140  12.645 -0.0137  0.2452  0.3719
  577POSM   C3A 6765   4.812  12.929  12.210 -0.1582  0.2350  0.0203
  577POSM   C1B 6766   5.003  13.031  13.023 -0.0613 -0.1811  0.3512
  577POSM   D2B 6767   5.104  12.764  12.702  0.1918 -0.3869 -0.0328
  577POSM   C3B 6768   5.520  12.872  12.505 -0.2210 -0.0721  0.2869
  577POSM   C4B 6769   5.998  12.732  12.524  0.0041  0.0289 -0.2981
  578DOPE   NH3 6770  11.364  23.390  12.633 -0.1518  0.3350 -0.1258
  578DOPE   PO4 6771  11.421  23.101  12.579 -0.0231  0.2358 -0.2590
  578DOPE   GL1 6772  11.613  23.016  12.201 -0.0349 -0.0391 -0.2020
  578DOPE   GL2 6773  11.694  23.267  12.145 -0.1603  0.1755 -0.0493
  578DOPE   C1A 6774  11.473  23.022  11.765 -0.0943 -0.0161 -0.0660
  578DOPE   D2A 6775  11.672  23.175  11.354  0.1796 -0.0164  0.0592
  578DOPE   C3A 6776  11.431  22.996  10.997 -0.0954 -0.2532  0.0677
  578DOPE   C4A 6777  11.095  22.740  10.725 -0.1747  0.3448 -0.1709
  578DOPE   C1B 6778  12.030  23.200  11.809 -0.0375 -0.0510 -0.0105
  578DOPE   D2B 6779  12.207  23.559  11.533  0.2076 -0.1726  0.2276
  578DOPE   C3B 6780  11.882  23.664  11.232 -0.1338  0.1893  0.3694
  578DOPE   C4B 6781  11.594  23.448  10.906 -0.2201 -0.3523  0.1018
  579DOPE   NH3 6782   1.040  16.811  14.550  0.1197  0.1071  0.0947
  579DOPE   PO4 6783   0.768  16.653  14.596 -0.1450  0.0253 -0.0472
  579DOPE   GL1 6784   0.527  16.793  14.289 -0.2041 -0.1854 -0.2395
  579DOPE   GL2 6785   0.537  16.590  14.139 -0.0413 -0.0223  0.1709
  579DOPE   C1A 6786   0.128  16.872  14.063  0.0328  0.2205  0.0365
  579DOPE   D2A 6787  -0.117  16.772  13.656  0.1053 -0.2342  0.0460
  579DOPE   C3A 6788  -0.135  16.958  13.212  0.0582 -0.2174 -0.2956
  579DOPE   C4A 6789  -0.062  16.879  12.764 -0.0802  0.2650  0.0882
  579DOPE   C1B 6790   0.442  16.727  13.687  0.2576  0.2162 -0.0379
  579DOPE   D2B 6791   0.435  16.696  13.241 -0.0561  0.0855 -0.0530
  579DOPE   C3B 6792   0.770  16.986  13.095 -0.1607  0.0133 -0.2519
  579DOPE   C4B 6793   1.007  17.081  12.707 -0.1892 -0.0076 -0.2000
  580DOPE   NH3 6794  11.532  18.706  12.039  0.1578 -0.1496 -0.2765
  580DOPE   PO4 6795  11.744  18.458  12.106 -0.1285 -0.0923 -0.0016
  580DOPE   GL1 6796  11.864  18.444  11.717 -0.3115 -0.0625 -0.1611
  580DOPE   GL2 6797  11.918  18.139  11.578 -0.0077 -0.0212  0.1268
  580DOPE   C1A 6798  11.937  18.659  11.280  0.0693 -0.0083  0.2402
  580DOPE   D2A 6799  11.753  18.930  10.928  0.1906  0.0153  0.1492
  580DOPE   C3A 6800  11.755  18.768  10.507 -0.4009 -0.0537 -0.1906
  580DOPE   C4A 6801  11.830  18.756  10.030  0.2691  0.0121  0.2362
  580DOPE   C1B 6802  12.039  18.121  11.151  0.2512 -0.0104  0.3361
  580DOPE   D2B 6803  11.959  18.426  10.791  0.2700 -0.2215  0.0714
  580DOPE   C3B 6804  12.229  18.615  10.495  0.3036 -0.0920 -0.1095
  580DOPE   C4B 6805  12.249  18.979  10.290  0.0770  0.3827  0.0488
  581DOPE   NH3 6806   3.179  14.669  13.705  0.1759  0.2315 -0.3895
  581DOPE   PO4 6807   3.360  14.453  13.886 -0.0806  0.0691 -0.2176
  581DOPE   GL1 6808   3.252  14.272  13.564 -0.0491 -0.5165 -0.0869
  581DOPE   GL2 6809   3.159  13.994  13.428  0.0783 -0.0727 -0.2598
  581DOPE   C1A 6810   2.947  14.360  13.188  0.1754 -0.4807  0.1050
  581DOPE   D2A 6811   2.713  14.305  12.787 -0.6247  0.2460 -0.3519
  581DOPE   C3A 6812   2.409  13.995  12.702 -0.1003 -0.0386 -0.0817
  581DOPE   C4A 6813   1.928  14.040  12.674  0.0878  0.0340 -0.1466
  581DOPE   C1B 6814   2.881  13.866  13.023 -0.3111 -0.0417 -0.0265
  581DOPE   D2B 6815   2.714  13.645  12.630 -0.2485 -0.1320 -0.0607
  581DOPE   C3B 6816   2.768  13.645  12.134 -0.2498  0.1822  0.0417
  581DOPE   C4B 6817   2.569  13.795  11.752  0.0337 -0.3091  0.0077
  582POSM   NC3 6818   8.972  11.523  13.517  0.0194 -0.0329 -0.2425
  582POSM   PO4 6819   9.288  11.254  13.606  0.0653 -0.1338 -0.2561
  582POSM   AM1 6820   9.329  11.197  13.294 -0.3084  0.2201 -0.3025
  582POSM   AM2 6821   9.310  11.431  13.115 -0.0705 -0.1098 -0.1028
  582POSM   T1A 6822   9.449  10.951  12.906  0.1613 -0.1611  0.1025
  582POSM   C2A 6823   9.800  10.821  12.671 -0.0021 -0.1529  0.2458
  582POSM   C3A 6824   9.792  10.601  12.270 -0.0337  0.1016  0.1452
  582POSM   C1B 6825   9.355  11.479  12.819 -0.2372  0.2487 -0.1652
  582POSM   D2B 6826   9.384  11.582  12.318  0.1241 -0.0454  0.1359
  582POSM   C3B 6827   9.301  11.218  11.964 -0.0035 -0.3953 -0.1413
  582POSM   C4B 6828   8.968  11.113  11.679 -0.2111  0.3595 -0.0662
  583DOPE   NH3 6829  10.722  19.337  12.343 -0.0196 -0.3943  0.2127
  583DOPE   PO4 6830  10.882  19.523  12.179 -0.2457  0.0202 -0.2175
  583DOPE   GL1 6831  10.845  19.388  11.850  0.0617  0.2142  0.1504
  583DOPE   GL2 6832  10.747  19.054  11.817 -0.0115 -0.0426  0.1302
  583DOPE   C1A 6833  10.741  19.245  11.369 -0.0683 -0.4574  0.0875
  583DOPE   D2A 6834  10.814  19.404  10.939 -0.1941  0.3676 -0.3435
  583DOPE   C3A 6835  10.934  19.013  10.791 -0.0272  0.1646  0.0998
  583DOPE   C4A 6836  10.767  18.781  10.442  0.0625 -0.1531  0.0792
  583DOPE   C1B 6837  11.171  19.032  11.658  0.2574  0.0415 -0.1171
  583DOPE   D2B 6838  11.507  19.171  11.427  0.1979  0.2378  0.0158
  583DOPE   C3B 6839  11.492  19.380  10.998  0.1985 -0.2299 -0.1146
  583DOPE   C4B 6840  11.347  19.261  10.575  0.2363  0.0520 -0.1590
  584DOPE   NH3 6841   9.952  24.668  12.947  0.1084  0.0914 -0.2240
  584DOPE   PO4 6842   9.629  24.830  12.959  0.0352  0.1102 -0.1383
  584DOPE   GL1 6843   9.548  24.804  12.580  0.1086 -0.1087 -0.4803
  584DOPE   GL2 6844   9.560  25.103  12.557  0.1965  0.1045  0.0826
  584DOPE   C1A 6845   9.310  24.635  12.254  0.2631 -0.0251  0.1719
  584DOPE   D2A 6846   9.059  24.521  11.956  0.1111 -0.0148 -0.1451
  584DOPE   C3A 6847   8.878  24.724  11.574  0.2205 -0.0053 -0.2697
  584DOPE   C4A 6848   8.848  24.868  11.217 -0.2791 -0.3355  0.1924
  584DOPE   C1B 6849   9.441  25.105  12.115 -0.0726  0.1495  0.1162
  584DOPE   D2B 6850   9.487  24.706  11.832  0.0593  0.0579 -0.4613
  584DOPE   C3B 6851   9.649  24.844  11.418  0.1612  0.1176  0.0854
  584DOPE   C4B 6852   9.540  24.924  10.978  0.0958 -0.2999  0.0609
  585POSM   NC3 6853   9.790  15.700  12.301  0.2534  0.3283 -0.2396
  585POSM   PO4 6854   9.672  15.875  12.663  0.2203  0.2697 -0.0562
  585POSM   AM1 6855   9.432  15.982  12.454  0.0308 -0.2354  0.0384
  585POSM   AM2 6856   9.180  15.972  12.361  0.0530 -0.0326  0.1263
  585POSM   T1A 6857   9.315  16.405  12.158  0.3135  0.2441 -0.2924
  585POSM   C2A 6858   9.198  16.815  12.146  0.1623  0.0091  0.1581
  585POSM   C3A 6859   9.062  17.261  12.151  0.3226 -0.0653 -0.0355
  585POSM   C1B 6860   9.215  15.886  12.047  0.0932  0.0287 -0.0296
  585POSM   D2B 6861   9.249  15.801  11.606 -0.0822 -0.0147 -0.1181
  585POSM   C3B 6862   9.649  15.828  11.308 -0.1085 -0.1452  0.1928
  585POSM   C4B 6863  10.062  15.989  11.184 -0.3885  0.0074  0.0308
  586DOPC   NC3 6864   5.576  20.456  12.901  0.1729  0.2946  0.0315
  586DOPC   PO4 6865   5.629  20.056  12.988 -0.0432 -0.1642  0.1904
  586DOPC   GL1 6866   5.447  19.946  12.667  0.0178  0.2288  0.0808
  586DOPC   GL2 6867   5.492  19.675  12.586 -0.1931  0.1047 -0.2109
  586DOPC   C1A 6868   5.263  20.152  12.267  0.0807 -0.1021 -0.2038
  586DOPC   D2A 6869   5.315  20.376  11.880  0.3174  0.0557  0.2691
  586DOPC   C3A 6870   5.077  20.358  11.529 -0.1413 -0.1992  0.0870
  586DOPC   C4A 6871   4.945  19.996  11.218  0.2261  0.1820 -0.0848
  586DOPC   C1B 6872   5.341  19.573  12.257 -0.2050 -0.0565 -0.2832
  586DOPC   D2B 6873   5.227  19.292  11.977  0.0576 -0.0332  0.2450
  586DOPC   C3B 6874   5.361  18.980  11.710 -0.0329  0.1047  0.0313
  586DOPC   C4B 6875   5.479  18.517  11.785 -0.1042 -0.2393  0.0424
  587DOPE   NH3 6876   4.511  15.889  13.569 -0.0705  0.0120  0.0900
  587DOPE   PO4 6877   4.525  15.593  13.566  0.0431  0.1089 -0.0613
  587DOPE   GL1 6878   4.474  15.472  13.142  0.4799  0.0613  0.1345
  587DOPE   GL2 6879   4.317  15.215  13.170 -0.3095  0.2313  0.3366
  587DOPE   C1A 6880   4.655  15.237  12.754 -0.1634 -0.0310 -0.3123
  587DOPE   D2A 6881   4.744  14.871  12.426  0.0304 -0.3001  0.0347
  587DOPE   C3A 6882   4.644  14.921  11.944 -0.0396 -0.2502  0.1904
  587DOPE   C4A 6883   4.460  15.144  11.600 -0.0869 -0.0662 -0.2813
  587DOPE   C1B 6884   4.226  15.348  12.708 -0.0368  0.2386  0.1539
  587DOPE   D2B 6885   3.875  15.433  12.474  0.0659  0.0627  0.1099
  587DOPE   C3B 6886   3.776  15.542  12.043 -0.1570  0.1855 -0.0160
  587DOPE   C4B 6887   3.633  15.498  11.595 -0.0750 -0.3833  0.4011
  588DOPC   NC3 6888  12.375  19.790  12.130 -0.0357  0.1046  0.0232
  588DOPC   PO4 6889  12.217  19.428  12.258 -0.0647 -0.0944  0.3188
  588DOPC   GL1 6890  12.052  19.509  11.902 -0.0986 -0.1793 -0.4940
  588DOPC   GL2 6891  11.845  19.445  11.722  0.1177 -0.2792  0.0517
  588DOPC   C1A 6892  12.223  19.771  11.570  0.0083 -0.0854  0.2125
  588DOPC   D2A 6893  12.617  19.794  11.348 -0.0855  0.1246  0.2026
  588DOPC   C3A 6894  12.709  20.163  11.064 -0.0987  0.1406  0.0937
  588DOPC   C4A 6895  13.052  20.308  10.701 -0.1279  0.0535  0.1524
  588DOPC   C1B 6896  11.840  19.558  11.232 -0.1158 -0.0784 -0.2867
  588DOPC   D2B 6897  11.759  19.766  10.863  0.0243 -0.2123  0.1059
  588DOPC   C3B 6898  11.314  19.751  10.734 -0.1062 -0.2168  0.0133
  588DOPC   C4B 6899  10.845  19.816  10.659  0.2087 -0.2276 -0.0510
  589POSM   NC3 6900   2.021  14.247  14.819 -0.0885  0.4167  0.1780
  589POSM   PO4 6901   2.105  14.046  14.509  0.0445  0.1317 -0.1483
  589POSM   AM1 6902   2.159  14.063  14.201  0.0534 -0.1132  0.2261
  589POSM   AM2 6903   2.204  13.887  13.974 -0.1678  0.0110 -0.0610
  589POSM   T1A 6904   2.348  14.343  13.807  0.0866  0.0300  0.0869
  589POSM   C2A 6905   2.152  14.741  13.600 -0.2947 -0.1769 -0.1688
  589POSM   C3A 6906   1.972  14.804  13.181  0.1927  0.0642 -0.0044
  589POSM   C1B 6907   2.238  13.841  13.625  0.0105 -0.0525  0.1986
  589POSM   D2B 6908   2.112  13.789  13.167  0.1147  0.1476  0.1713
  589POSM   C3B 6909   1.856  13.353  13.059  0.2527 -0.1393  0.1327
  589POSM   C4B 6910   1.505  13.102  13.332 -0.1830 -0.1700  0.0521
  590DOPE   NH3 6911   8.275  14.531  12.810 -0.2804  0.1952  0.1112
  590DOPE   PO4 6912   8.562  14.462  12.974 -0.2200 -0.0868  0.4136
  590DOPE   GL1 6913   8.859  14.335  12.624  0.4391  0.0158  0.0687
  590DOPE   GL2 6914   8.615  14.491  12.463  0.3914 -0.1203 -0.0434
  590DOPE   C1A 6915   8.884  14.063  12.264  0.3493  0.2027  0.0466
  590DOPE   D2A 6916   8.841  13.944  11.786 -0.2063  0.0596 -0.2345
  590DOPE   C3A 6917   8.531  13.674  11.589  0.0181 -0.0128 -0.2473
  590DOPE   C4A 6918   8.139  13.830  11.370 -0.1599 -0.0681 -0.5235
  590DOPE   C1B 6919   8.660  14.413  11.983  0.3690  0.4014  0.0020
  590DOPE   D2B 6920   8.749  14.377  11.541 -0.1114  0.0254 -0.0093
  590DOPE   C3B 6921   9.042  14.092  11.291 -0.2389 -0.2234 -0.0860
  590DOPE   C4B 6922   9.314  14.162  10.902  0.1007  0.1462 -0.3109
  591DOPE   NH3 6923  10.292  13.193  13.255  0.0411 -0.0210  0.1331
  591DOPE   PO4 6924   9.971  13.173  13.313 -0.1884 -0.0171  0.2571
  591DOPE   GL1 6925   9.921  13.174  12.927 -0.2368  0.0495 -0.3061
  591DOPE   GL2 6926   9.970  13.017  12.735  0.2797 -0.0182 -0.1143
  591DOPE   C1A 6927   9.537  13.200  12.681  0.2888  0.0895  0.1671
  591DOPE   D2A 6928   9.128  13.143  12.525  0.0362 -0.2401  0.0171
  591DOPE   C3A 6929   9.138  13.627  12.499  0.1773 -0.0090  0.0114
  591DOPE   C4A 6930   9.293  14.058  12.510 -0.0261 -0.0380  0.0225
  591DOPE   C1B 6931  10.056  13.444  12.516 -0.1813  0.0836  0.0895
  591DOPE   D2B 6932  10.015  13.788  12.212  0.2166  0.0032  0.0926
  591DOPE   C3B 6933  10.356  13.892  11.912 -0.1403 -0.3921  0.0008
  591DOPE   C4B 6934  10.802  14.010  12.002 -0.0967  0.0019  0.2264
  592POSM   NC3 6935   4.685  14.223  13.711  0.2946 -0.0872 -0.0448
  592POSM   PO4 6936   4.368  14.506  13.729 -0.3522 -0.2382  0.0316
  592POSM   AM1 6937   4.257  14.693  13.470 -0.1010 -0.0279 -0.2948
  592POSM   AM2 6938   4.023  14.762  13.312 -0.1274  0.2853 -0.0168
  592POSM   T1A 6939   4.418  14.743  13.020 -0.0269 -0.1552  0.0281
  592POSM   C2A 6940   4.191  14.901  12.672 -0.1246  0.0264 -0.2505
  592POSM   C3A 6941   3.868  14.932  12.430 -0.2589  0.0349 -0.1242
  592POSM   C1B 6942   3.914  14.675  13.050 -0.0125  0.0452  0.1512
  592POSM   D2B 6943   3.732  14.432  12.739 -0.2314 -0.2859  0.0171
  592POSM   C3B 6944   3.769  14.487  12.296  0.1026  0.0733  0.0878
  592POSM   C4B 6945   4.048  14.693  11.986 -0.2087 -0.3176  0.2820
  593DOPS   CNO 6946   9.634  15.335  13.281  0.2248  0.0732  0.0804
  593DOPS   PO4 6947   9.475  15.426  12.957  0.1955  0.1014 -0.4449
  593DOPS   GL1 6948   9.746  15.341  12.657  0.3463 -0.0473  0.1302
  593DOPS   GL2 6949  10.004  15.306  12.597 -0.2229 -0.2929  0.4128
  593DOPS   C1A 6950   9.710  15.154  12.236  0.0416  0.0091 -0.1819
  593DOPS   D2A 6951   9.811  15.160  11.820 -0.5090 -0.1856 -0.1057
  593DOPS   C3A 6952   9.815  15.631  11.756  0.1770 -0.0898  0.0646
  593DOPS   C4A 6953   9.662  16.090  11.798  0.1209  0.0731 -0.2653
  593DOPS   C1B 6954  10.168  15.339  12.159 -0.0142 -0.2794  0.2788
  593DOPS   D2B 6955  10.324  15.282  11.741  0.1050  0.1104  0.1870
  593DOPS   C3B 6956  10.576  15.328  11.336  0.1854  0.0593  0.1331
  593DOPS   C4B 6957  10.506  15.237  10.901  0.0859 -0.4523  0.2934
  594DOPC   NC3 6958   5.054  20.751  13.217 -0.0914 -0.0175  0.2857
  594DOPC   PO4 6959   5.361  20.965  13.150 -0.3601  0.1235  0.2593
  594DOPC   GL1 6960   5.578  20.933  12.852 -0.2071 -0.1442 -0.0948
  594DOPC   GL2 6961   5.407  21.144  12.621 -0.1269 -0.0631 -0.0247
  594DOPC   C1A 6962   5.907  20.818  12.504  0.0527  0.0677 -0.1404
  594DOPC   D2A 6963   5.975  20.923  12.067  0.2742  0.1760 -0.0853
  594DOPC   C3A 6964   5.990  20.555  11.748 -0.2254 -0.0430  0.0012
  594DOPC   C4A 6965   5.960  20.258  11.317  0.0848  0.0151  0.2133
  594DOPC   C1B 6966   5.366  21.446  12.209  0.1258  0.0965 -0.1064
  594DOPC   D2B 6967   5.336  21.646  11.789  0.0089 -0.1494  0.1915
  594DOPC   C3B 6968   5.164  21.604  11.338  0.1488  0.0295  0.1437
  594DOPC   C4B 6969   4.975  21.583  10.907  0.0714 -0.5804  0.0499
  595POSM   NC3 6970   4.410  17.739  12.977  0.2701 -0.1086  0.0817
  595POSM   PO4 6971   4.406  17.334  12.939 -0.1331  0.1012  0.1845
  595POSM   AM1 6972   4.598  17.445  12.662  0.2359 -0.1874 -0.2422
  595POSM   AM2 6973   4.514  17.684  12.498  0.0562  0.3042  0.1696
  595POSM   T1A 6974   4.794  17.341  12.224 -0.1568 -0.0314  0.3183
  595POSM   C2A 6975   5.251  17.341  12.013 -0.1332 -0.0910 -0.1551
  595POSM   C3A 6976   5.677  17.557  12.034  0.1978  0.0470 -0.0680
  595POSM   C1B 6977   4.430  17.673  12.142 -0.1153 -0.2097  0.1633
  595POSM   D2B 6978   4.624  17.788  11.717 -0.0042  0.0920 -0.0807
  595POSM   C3B 6979   4.600  17.980  11.381 -0.0138  0.1422  0.2599
  595POSM   C4B 6980   4.869  18.413  11.182  0.0914  0.1966 -0.1791
  596DOPE   NH3 6981   7.465  13.253  13.400  0.1111 -0.2124 -0.1980
  596DOPE   PO4 6982   7.779  13.269  13.421  0.0204  0.0920  0.0299
  596DOPE   GL1 6983   7.759  13.249  13.031 -0.2398  0.3355  0.2362
  596DOPE   GL2 6984   7.830  13.494  12.932  0.2287  0.1827 -0.0130
  596DOPE   C1A 6985   7.997  13.062  12.727  0.2142  0.1603  0.0175
  596DOPE   D2A 6986   8.110  12.737  12.435 -0.0779  0.1029 -0.0990
  596DOPE   C3A 6987   8.112  12.854  11.992 -0.0026 -0.1617 -0.0664
  596DOPE   C4A 6988   8.142  13.076  11.571 -0.2394 -0.1525 -0.1101
  596DOPE   C1B 6989   7.605  13.400  12.558 -0.0049  0.2378  0.1093
  596DOPE   D2B 6990   7.644  13.099  12.161 -0.1774 -0.0630 -0.0977
  596DOPE   C3B 6991   7.741  13.370  11.815 -0.3041 -0.1399  0.0365
  596DOPE   C4B 6992   7.850  13.376  11.323  0.1253  0.1773  0.1749
  597DOPS   CNO 6993   4.313  13.403  13.784 -0.0528  0.2548 -0.1586
  597DOPS   PO4 6994   3.990  13.554  13.859  0.2110 -0.1296  0.3706
  597DOPS   GL1 6995   3.904  13.455  13.499  0.3766 -0.0316 -0.0746
  597DOPS   GL2 6996   4.089  13.239  13.375  0.2451 -0.1290 -0.2585
  597DOPS   C1A 6997   3.754  13.767  13.184  0.0467 -0.1536  0.0275
  597DOPS   D2A 6998   3.963  13.874  12.777  0.1725  0.1050 -0.5571
  597DOPS   C3A 6999   3.818  13.527  12.485 -0.0814  0.0152 -0.0593
  597DOPS   C4A 7000   3.881  13.191  12.153  0.2555  0.2198  0.4449
  597DOPS   C1B 7001   4.060  13.432  12.985  0.0116  0.1960 -0.0578
  597DOPS   D2B 7002   4.358  13.478  12.622  0.1149  0.6011  0.0983
  597DOPS   C3B 7003   4.179  13.610  12.203  0.1150  0.0503 -0.0620
  597DOPS   C4B 7004   3.809  13.678  11.967  0.1502  0.0311 -0.0680
  598DOPS   CNO 7005  10.612  20.308  12.759  0.1093 -0.0102  0.2122
  598DOPS   PO4 7006  10.892  20.155  12.552 -0.1401  0.2915  0.1494
  598DOPS   GL1 7007  10.674  20.339  12.209 -0.0306 -0.0109  0.3443
  598DOPS   GL2 7008  10.865  20.524  11.974 -0.0248  0.0487  0.1803
  598DOPS   C1A 7009  10.390  20.515  11.950  0.3513  0.1366 -0.2109
  598DOPS   D2A 7010  10.247  20.683  11.551  0.0114 -0.1515 -0.3368
  598DOPS   C3A 7011  10.322  20.418  11.178 -0.1234 -0.0510  0.1960
  598DOPS   C4A 7012  10.707  20.465  10.931 -0.0195 -0.1503 -0.1461
  598DOPS   C1B 7013  10.650  20.967  11.959 -0.0087  0.0069 -0.3198
  598DOPS   D2B 7014  10.530  21.160  11.578  0.2422  0.1140  0.0976
  598DOPS   C3B 7015  10.548  20.983  11.200  0.0735 -0.1962 -0.1569
  598DOPS   C4B 7016  10.763  20.929  10.757 -0.1877 -0.0357 -0.0002
  599DOPE   NH3 7017  15.666  13.190  12.273 -0.1407 -0.0813  0.0165
  599DOPE   PO4 7018  15.794  13.067  11.998  0.0320  0.2605  0.3464
  599DOPE   GL1 7019  15.843  13.127  11.673  0.4278 -0.0028  0.2179
  599DOPE   GL2 7020  15.654  13.210  11.417 -0.0890 -0.1751  0.0602
  599DOPE   C1A 7021  16.104  13.063  11.256 -0.2346 -0.1196 -0.1274
  599DOPE   D2A 7022  16.156  12.947  10.798 -0.1906 -0.1351 -0.0437
  599DOPE   C3A 7023  16.257  12.477  10.722  0.1971  0.3674  0.1526
  599DOPE   C4A 7024  16.175  12.134  10.988 -0.0630 -0.2756  0.3669
  599DOPE   C1B 7025  15.603  12.968  11.001  0.0782 -0.2928 -0.1620
  599DOPE   D2B 7026  15.701  12.910  10.565  0.4171 -0.2044  0.1150
  599DOPE   C3B 7027  15.314  12.648  10.434 -0.2267 -0.2678  0.0030
  599DOPE   C4B 7028  14.919  12.402  10.525  0.0379  0.0523  0.1362
  600DOPC   NC3 7029   5.967  12.846  13.319 -0.1621  0.0099 -0.2353
  600DOPC   PO4 7030   6.290  13.065  13.342  0.1902 -0.2640 -0.0189
  600DOPC   GL1 7031   6.194  13.005  12.942 -0.0260  0.1285  0.1527
  600DOPC   GL2 7032   6.367  13.123  12.714 -0.1397  0.1343 -0.0503
  600DOPC   C1A 7033   5.846  13.261  12.674  0.0364  0.1706 -0.2644
  600DOPC   D2A 7034   5.450  13.399  12.517  0.0343  0.0478 -0.1678
  600DOPC   C3A 7035   5.190  13.251  12.120  0.0312 -0.2276 -0.1819
  600DOPC   C4A 7036   4.912  13.087  11.783 -0.2761 -0.0643  0.0165
  600DOPC   C1B 7037   6.207  13.172  12.307  0.0325 -0.1204 -0.1618
  600DOPC   D2B 7038   6.401  12.900  11.932 -0.0911  0.2152 -0.0798
  600DOPC   C3B 7039   6.766  12.799  12.212 -0.1295  0.2768 -0.2153
  600DOPC   C4B 7040   7.043  12.538  12.488 -0.0465 -0.0190  0.0911
  601DOPS   CNO 7041  11.291  20.337  12.263  0.1002  0.3514  0.0279
  601DOPS   PO4 7042  11.505  20.200  11.983 -0.0994  0.1853 -0.1000
  601DOPS   GL1 7043  11.283  20.046  11.644 -0.3871  0.4601  0.3514
  601DOPS   GL2 7044  11.219  20.309  11.518  0.2826 -0.1685 -0.1654
  601DOPS   C1A 7045  11.348  19.977  11.173  0.2323 -0.0370 -0.1264
  601DOPS   D2A 7046  11.546  20.230  10.824 -0.1489 -0.0244  0.0671
  601DOPS   C3A 7047  11.879  20.226  10.501  0.1182  0.2394 -0.1204
  601DOPS   C4A 7048  12.201  20.264  10.164  0.1172  0.4429 -0.0654
  601DOPS   C1B 7049  11.662  20.335  11.302  0.5193 -0.0988  0.0622
  601DOPS   D2B 7050  12.072  20.142  11.229 -0.3049  0.1350  0.0058
  601DOPS   C3B 7051  12.262  20.013  10.839  0.2281  0.0612  0.2226
  601DOPS   C4B 7052  12.628  20.077  10.509 -0.4140  0.0868  0.1175
  602DOPE   NH3 7053   6.277  19.630  12.875 -0.1076  0.2313  0.0733
  602DOPE   PO4 7054   6.101  19.844  12.960  0.0437 -0.1348  0.3438
  602DOPE   GL1 7055   5.978  19.743  12.553 -0.0662 -0.2004 -0.2139
  602DOPE   GL2 7056   5.903  19.460  12.493 -0.0958 -0.0330  0.0855
  602DOPE   C1A 7057   5.716  19.913  12.225  0.4089  0.0035  0.0495
  602DOPE   D2A 7058   5.667  20.028  11.775 -0.0522 -0.1404 -0.0483
  602DOPE   C3A 7059   5.471  19.916  11.406 -0.0185  0.0582 -0.0496
  602DOPE   C4A 7060   5.709  19.860  10.991 -0.2150  0.2930  0.0146
  602DOPE   C1B 7061   6.125  19.396  12.135 -0.2816 -0.0049 -0.0731
  602DOPE   D2B 7062   6.249  19.414  11.745  0.1419  0.1721  0.0877
  602DOPE   C3B 7063   5.917  19.232  11.480 -0.0989 -0.2414  0.1413
  602DOPE   C4B 7064   5.853  18.796  11.554  0.0938  0.0506 -0.0414
  603DOPE   NH3 7065   9.784  23.520  13.003 -0.1061  0.1102 -0.0853
  603DOPE   PO4 7066   9.712  23.261  12.811  0.0251 -0.2744 -0.4118
  603DOPE   GL1 7067   9.585  23.199  12.428 -0.1302  0.1582  0.0619
  603DOPE   GL2 7068   9.837  23.392  12.248  0.1111  0.0832 -0.0929
  603DOPE   C1A 7069   9.312  23.527  12.290 -0.1009  0.0246  0.2002
  603DOPE   D2A 7070   9.183  23.909  12.022 -0.1462 -0.1172  0.0109
  603DOPE   C3A 7071   9.369  24.080  11.634 -0.3827 -0.1599  0.2836
  603DOPE   C4A 7072   9.496  24.409  11.352 -0.0951 -0.0040  0.0744
  603DOPE   C1B 7073   9.646  23.247  11.874 -0.0116  0.3091  0.2233
  603DOPE   D2B 7074   9.384  22.913  11.731 -0.2163 -0.2040 -0.0431
  603DOPE   C3B 7075   9.508  22.441  11.699  0.1842  0.1349 -0.4928
  603DOPE   C4B 7076   9.907  22.203  11.775  0.1125 -0.3560 -0.2024
  604DOPE   NH3 7077   8.555  17.583  12.910 -0.1033  0.3533 -0.0664
  604DOPE   PO4 7078   8.790  17.714  12.716  0.1194  0.4464 -0.3229
  604DOPE   GL1 7079   8.605  17.939  12.442  0.3352 -0.1336 -0.0058
  604DOPE   GL2 7080   8.350  17.782  12.375 -0.1749  0.0065  0.1829
  604DOPE   C1A 7081   8.521  18.093  12.011  0.2915  0.0083  0.0863
  604DOPE   D2A 7082   8.635  18.537  11.838 -0.0635  0.0163 -0.2330
  604DOPE   C3A 7083   8.883  18.478  11.482  0.1568  0.0502 -0.0302
  604DOPE   C4A 7084   8.912  18.225  11.095  0.0815 -0.2057 -0.0147
  604DOPE   C1B 7085   8.025  17.917  12.048  0.2728  0.2577 -0.1589
  604DOPE   D2B 7086   7.789  18.007  11.642  0.2102 -0.0492 -0.2611
  604DOPE   C3B 7087   8.047  17.924  11.230  0.2281 -0.1116 -0.0260
  604DOPE   C4B 7088   8.275  17.604  11.015 -0.0672 -0.2752  0.2067
  605DOPC   NC3 7089  14.248  22.184  12.100  0.1703  0.3130  0.4016
  605DOPC   PO4 7090  14.262  21.870  12.336  0.0284  0.0683 -0.0833
  605DOPC   GL1 7091  14.014  21.813  12.008 -0.0569 -0.3371  0.3195
  605DOPC   GL2 7092  13.757  21.883  12.070 -0.1801  0.1736 -0.0451
  605DOPC   C1A 7093  13.712  21.671  11.646 -0.0520 -0.2084  0.1488
  605DOPC   D2A 7094  13.575  21.840  11.216 -0.0561 -0.4070  0.1418
  605DOPC   C3A 7095  13.761  21.535  10.937  0.0961 -0.0101  0.3387
  605DOPC   C4A 7096  13.566  21.183  10.804 -0.2780 -0.1825 -0.0232
  605DOPC   C1B 7097  13.902  22.146  11.705  0.2531 -0.1495  0.0777
  605DOPC   D2B 7098  13.584  22.455  11.519 -0.2253 -0.0643  0.3108
  605DOPC   C3B 7099  13.511  22.749  11.203  0.4473  0.2392  0.1341
  605DOPC   C4B 7100  13.518  23.019  10.859  0.3807 -0.0208 -0.2240
  606POSM   NC3 7101   1.960  15.859  14.368 -0.0724  0.1477  0.1551
  606POSM   PO4 7102   2.176  16.050  14.162 -0.0414 -0.0320 -0.0313
  606POSM   AM1 7103   2.086  16.063  13.845 -0.2040  0.3385  0.1582
  606POSM   AM2 7104   1.879  16.193  13.675 -0.0214 -0.2284 -0.3935
  606POSM   T1A 7105   1.934  15.756  13.481  0.1716  0.1678  0.3215
  606POSM   C2A 7106   1.613  15.731  13.156 -0.2430  0.0933  0.1329
  606POSM   C3A 7107   1.282  15.846  12.786  0.4483 -0.2431  0.1913
  606POSM   C1B 7108   1.686  16.248  13.440 -0.1243 -0.1086 -0.0775
  606POSM   D2B 7109   1.501  16.271  12.971  0.1742  0.1357 -0.0221
  606POSM   C3B 7110   1.663  16.202  12.532 -0.1571 -0.0329 -0.1353
  606POSM   C4B 7111   1.722  16.149  12.051  0.1582 -0.2701  0.0421
  607POSM   NC3 7112   1.816  20.187  14.558  0.0832  0.1831 -0.4324
  607POSM   PO4 7113   1.753  19.813  14.375 -0.0018 -0.1569  0.2041
  607POSM   AM1 7114   1.574  19.767  14.108 -0.2169  0.2177  0.3303
  607POSM   AM2 7115   1.431  19.578  13.952  0.1256  0.3134 -0.0586
  607POSM   T1A 7116   1.328  20.056  13.760 -0.1669  0.1284  0.0585
  607POSM   C2A 7117   1.402  20.527  13.556 -0.0451 -0.1559 -0.0699
  607POSM   C3A 7118   1.470  20.952  13.571 -0.0108  0.3681  0.0644
  607POSM   C1B 7119   1.192  19.554  13.790 -0.1980  0.3430  0.4244
  607POSM   D2B 7120   0.891  19.860  13.659  0.3809  0.0593 -0.2784
  607POSM   C3B 7121   1.076  20.186  13.295  0.2349  0.0163  0.1006
  607POSM   C4B 7122   1.150  20.062  12.864  0.2361  0.5176 -0.1103
  608DOPC   NC3 7123   7.996  13.745  13.301 -0.0081 -0.2112 -0.0734
  608DOPC   PO4 7124   8.172  14.105  13.246 -0.0694 -0.1268 -0.2123
  608DOPC   GL1 7125   8.355  13.875  12.902 -0.0327  0.2129  0.0570
  608DOPC   GL2 7126   8.469  14.046  12.553  0.3063  0.1579  0.2022
  608DOPC   C1A 7127   8.254  13.487  12.719 -0.1604 -0.1844  0.1286
  608DOPC   D2A 7128   8.285  13.207  12.335  0.1277 -0.1793 -0.0615
  608DOPC   C3A 7129   8.465  13.240  11.912 -0.0238  0.2693 -0.1093
  608DOPC   C4A 7130   8.660  13.215  11.497 -0.0952 -0.2316  0.0979
  608DOPC   C1B 7131   8.280  14.157  12.134 -0.0670 -0.1840 -0.0382
  608DOPC   D2B 7132   8.296  14.265  11.710  0.0406  0.3111 -0.2163
  608DOPC   C3B 7133   7.892  14.241  11.469  0.0872  0.0568 -0.0432
  608DOPC   C4B 7134   7.630  14.462  11.217 -0.3333  0.0963 -0.1128
  609DOPC   NC3 7135   8.741  18.475  12.452  0.1370 -0.3436  0.1471
  609DOPC   PO4 7136   8.846  18.215  12.755  0.0023  0.0998 -0.1068
  609DOPC   GL1 7137   9.153  18.326  12.433  0.2479 -0.1523  0.3494
  609DOPC   GL2 7138   9.093  18.007  12.401  0.1470  0.0748 -0.2735
  609DOPC   C1A 7139   9.011  18.307  12.000 -0.0210 -0.1034  0.2632
  609DOPC   D2A 7140   8.904  17.981  11.622 -0.0860 -0.1241  0.1473
  609DOPC   C3A 7141   9.253  17.764  11.378 -0.0840 -0.0412  0.1026
  609DOPC   C4A 7142   9.470  17.459  11.202  0.3892  0.0695  0.3306
  609DOPC   C1B 7143   8.868  17.719  12.077  0.0747  0.3032  0.0633
  609DOPC   D2B 7144   8.757  17.459  11.727 -0.0299  0.2661 -0.1425
  609DOPC   C3B 7145   8.952  17.210  11.333 -0.0519 -0.0695  0.1994
  609DOPC   C4B 7146   9.011  16.968  10.933  0.2722  0.2705  0.2452
  610DOPS   CNO 7147   2.577  21.472  13.747  0.0245 -0.0851  0.1965
  610DOPS   PO4 7148   2.400  21.356  14.040 -0.2117  0.1472 -0.1751
  610DOPS   GL1 7149   2.112  21.261  13.721 -0.2630 -0.2640 -0.0162
  610DOPS   GL2 7150   2.170  21.079  13.593  0.0443  0.1101 -0.2052
  610DOPS   C1A 7151   2.006  21.373  13.303  0.0065 -0.1863  0.1854
  610DOPS   D2A 7152   1.792  21.588  12.930 -0.3878  0.0944  0.2782
  610DOPS   C3A 7153   2.034  21.733  12.475  0.1887  0.1368  0.0002
  610DOPS   C4A 7154   2.312  21.883  12.192  0.1815  0.0274  0.3190
  610DOPS   C1B 7155   2.012  20.791  13.285 -0.2362 -0.1484  0.4002
  610DOPS   D2B 7156   2.087  20.732  12.770  0.0129 -0.0411  0.0434
  610DOPS   C3B 7157   2.014  20.870  12.375  0.0256  0.2584  0.2952
  610DOPS   C4B 7158   2.050  21.291  12.133 -0.1305 -0.0388  0.0509
  611DOPE   NH3 7159   6.351  11.885  13.422  0.2807  0.3071  0.2452
  611DOPE   PO4 7160   6.631  11.912  13.604 -0.2793 -0.1013 -0.0069
  611DOPE   GL1 7161   6.763  11.750  13.263 -0.4444  0.2836 -0.3668
  611DOPE   GL2 7162   6.921  11.847  13.100 -0.0590  0.2207  0.0737
  611DOPE   C1A 7163   6.551  11.630  12.879  0.0396 -0.2515 -0.0699
  611DOPE   D2A 7164   6.591  11.608  12.444 -0.0947 -0.0581  0.2318
  611DOPE   C3A 7165   6.311  11.327  12.289 -0.0516  0.1032 -0.2247
  611DOPE   C4A 7166   6.218  10.939  12.153 -0.2612 -0.2198 -0.0158
  611DOPE   C1B 7167   7.257  11.788  12.847 -0.2609  0.0365  0.1380
  611DOPE   D2B 7168   7.559  11.616  12.497 -0.1153 -0.0095  0.0290
  611DOPE   C3B 7169   7.356  11.504  12.078  0.2434  0.2121 -0.2762
  611DOPE   C4B 7170   6.988  11.433  11.958  0.2498  0.0571  0.1233
  612DOPS   CNO 7171  10.819  16.536  12.943 -0.0806  0.0620 -0.0533
  612DOPS   PO4 7172  10.703  16.172  12.913  0.0798 -0.2857 -0.1695
  612DOPS   GL1 7173  10.452  15.819  12.843 -0.3480  0.1729 -0.1292
  612DOPS   GL2 7174  10.207  15.912  12.716 -0.0985  0.1868  0.1885
  612DOPS   C1A 7175  10.488  15.435  12.578  0.1767 -0.4097 -0.1517
  612DOPS   D2A 7176  10.694  15.471  12.144 -0.0264 -0.1279  0.0653
  612DOPS   C3A 7177  10.882  15.887  12.024  0.0030 -0.0493  0.0239
  612DOPS   C4A 7178  10.555  16.243  11.986  0.1909  0.0286  0.2259
  612DOPS   C1B 7179  10.314  15.823  12.263  0.2538 -0.1262  0.4266
  612DOPS   D2B 7180  10.322  15.774  11.748  0.2469  0.2878  0.0696
  612DOPS   C3B 7181  10.553  16.049  11.456 -0.3849 -0.0122  0.0531
  612DOPS   C4B 7182  11.019  16.235  11.535 -0.0500 -0.2062 -0.0364
  613DOPE   NH3 7183  14.050  11.416   9.025  0.3614  0.1040 -0.3671
  613DOPE   PO4 7184  14.329  11.329   8.925 -0.0059 -0.0165 -0.3349
  613DOPE   GL1 7185  14.580  11.291   9.257  0.0042 -0.2822 -0.0637
  613DOPE   GL2 7186  14.392  11.188   9.397 -0.0636 -0.2321 -0.2166
  613DOPE   C1A 7187  14.732  11.475   9.637  0.3590  0.1558 -0.1119
  613DOPE   D2A 7188  14.634  11.634  10.037 -0.1937  0.1786 -0.1260
  613DOPE   C3A 7189  14.873  11.597  10.437 -0.3254 -0.0310 -0.1051
  613DOPE   C4A 7190  14.861  11.180  10.712 -0.0224  0.1105  0.0330
  613DOPE   C1B 7191  14.138  11.378   9.753 -0.0614  0.1426  0.0104
  613DOPE   D2B 7192  13.804  11.742   9.776 -0.0550 -0.2202  0.2951
  613DOPE   C3B 7193  13.763  12.067  10.047  0.0911 -0.0429 -0.1518
  613DOPE   C4B 7194  13.601  12.396  10.391 -0.1389 -0.0142 -0.0662
  614DOPS   CNO 7195   2.180  17.042   9.592  0.1034  0.1553 -0.1552
  614DOPS   PO4 7196   2.157  17.290   9.862 -0.2452 -0.2519  0.1946
  614DOPS   GL1 7197   2.335  17.411  10.193  0.2975  0.0897 -0.2606
  614DOPS   GL2 7198   2.309  17.215  10.399 -0.1229 -0.1491 -0.0680
  614DOPS   C1A 7199   2.755  17.522  10.362 -0.0301 -0.1689 -0.0176
  614DOPS   D2A 7200   2.951  17.662  10.778  0.1730 -0.0855  0.0284
  614DOPS   C3A 7201   3.035  18.132  10.771  0.0735  0.0815 -0.0771
  614DOPS   C4A 7202   3.312  18.333  10.491  0.0471  0.0297 -0.2509
  614DOPS   C1B 7203   2.406  17.452  10.802  0.0350  0.2232  0.0460
  614DOPS   D2B 7204   2.649  17.611  11.190  0.1474  0.2319  0.1623
  614DOPS   C3B 7205   2.636  17.384  11.581 -0.0686 -0.0995 -0.0854
  614DOPS   C4B 7206   2.817  17.427  11.981 -0.0316  0.1164 -0.0197
  615DOPE   NH3 7207  12.164  13.606   8.336 -0.4144  0.2158 -0.2622
  615DOPE   PO4 7208  12.360  13.486   8.579  0.0660  0.0220  0.1939
  615DOPE   GL1 7209  12.459  13.622   8.968 -0.0458 -0.1068  0.0286
  615DOPE   GL2 7210  12.313  13.845   9.161 -0.0447 -0.0800  0.0666
  615DOPE   C1A 7211  12.713  13.681   9.370  0.0341  0.2010 -0.1613
  615DOPE   D2A 7212  12.943  13.739   9.790 -0.0676 -0.1344  0.3900
  615DOPE   C3A 7213  13.077  14.163   9.945  0.1379  0.1669  0.1971
  615DOPE   C4A 7214  12.941  14.576   9.731 -0.0267 -0.1408  0.0384
  615DOPE   C1B 7215  12.265  13.833   9.661  0.2088 -0.1524  0.1004
  615DOPE   D2B 7216  12.058  13.491   9.976  0.1702 -0.1752  0.1608
  615DOPE   C3B 7217  12.251  13.293  10.275  0.2175  0.1889  0.1169
  615DOPE   C4B 7218  12.412  12.920  10.530  0.2437 -0.0468  0.1984
  616DOPE   NH3 7219  11.471  13.079   8.810 -0.0719  0.2378  0.0913
  616DOPE   PO4 7220  11.750  12.972   8.887 -0.1003 -0.0718  0.0716
  616DOPE   GL1 7221  11.866  13.010   9.297  0.2466  0.0315  0.2968
  616DOPE   GL2 7222  11.648  12.977   9.383 -0.0701  0.2806 -0.0679
  616DOPE   C1A 7223  12.074  13.422   9.498 -0.0099  0.1600 -0.0030
  616DOPE   D2A 7224  11.781  13.831   9.630  0.0198 -0.2483  0.1573
  616DOPE   C3A 7225  11.860  14.021  10.046  0.0184 -0.2191 -0.1497
  616DOPE   C4A 7226  11.908  14.341  10.361  0.0345 -0.0717  0.1496
  616DOPE   C1B 7227  11.542  13.372   9.719 -0.0891  0.1403 -0.0144
  616DOPE   D2B 7228  11.537  13.673  10.117 -0.1890 -0.1800 -0.0728
  616DOPE   C3B 7229  11.769  13.473  10.419 -0.1924  0.1442  0.2454
  616DOPE   C4B 7230  12.017  13.323  10.743 -0.0991  0.0120 -0.2173
  617DOPC   NC3 7231   9.987  12.208   9.238 -0.0688  0.3171  0.4006
  617DOPC   PO4 7232   9.801  11.880   9.342 -0.1170  0.2823 -0.1061
  617DOPC   GL1 7233   9.939  11.799   9.671  0.5706 -0.0946  0.2617
  617DOPC   GL2 7234  10.198  11.804   9.872 -0.3639  0.0895 -0.3579
  617DOPC   C1A 7235   9.728  11.772  10.083  0.1401  0.0202  0.3161
  617DOPC   D2A 7236   9.351  11.789  10.340 -0.0320  0.0001 -0.3474
  617DOPC   C3A 7237   9.164  11.959  10.727 -0.1773 -0.0155 -0.0287
  617DOPC   C4A 7238   9.112  12.237  11.135  0.0968  0.0708 -0.0504
  617DOPC   C1B 7239  10.146  12.128  10.235 -0.0661 -0.0094 -0.0209
  617DOPC   D2B 7240   9.792  12.020  10.515  0.1839 -0.0064 -0.0243
  617DOPC   C3B 7241   9.662  12.136  10.946  0.2546  0.1133 -0.3466
  617DOPC   C4B 7242   9.423  12.574  11.044  0.0127  0.0264  0.2277
  618DOPC   NC3 7243   6.301  21.336   9.581  0.0481 -0.1342  0.2073
  618DOPC   PO4 7244   6.109  21.011   9.435  0.0977  0.1350 -0.0895
  618DOPC   GL1 7245   6.389  20.920   9.768  0.1141  0.2829 -0.1088
  618DOPC   GL2 7246   6.307  20.632   9.951  0.0142  0.0196  0.1697
  618DOPC   C1A 7247   6.732  20.868  10.104 -0.1476 -0.1231 -0.1816
  618DOPC   D2A 7248   6.812  20.805  10.535  0.0924 -0.0942  0.1624
  618DOPC   C3A 7249   6.534  20.884  10.929 -0.2789 -0.3195 -0.0348
  618DOPC   C4A 7250   6.419  21.234  11.248 -0.1148 -0.1049 -0.1640
  618DOPC   C1B 7251   6.407  20.443  10.357 -0.0825  0.2272  0.2693
  618DOPC   D2B 7252   6.214  20.484  10.874  0.2012 -0.0902 -0.0943
  618DOPC   C3B 7253   5.777  20.418  10.877  0.0070 -0.1598  0.0112
  618DOPC   C4B 7254   5.493  20.256  10.532 -0.5117  0.0029 -0.1138
  619DOPE   NH3 7255   3.572  21.127   9.582  0.2128  0.0388  0.1230
  619DOPE   PO4 7256   3.821  20.961   9.525 -0.1939  0.3300 -0.1491
  619DOPE   GL1 7257   4.036  20.848   9.888 -0.0428 -0.0114 -0.0530
  619DOPE   GL2 7258   4.120  20.590   9.907  0.0555 -0.0473 -0.0927
  619DOPE   C1A 7259   3.905  20.902  10.351 -0.1094 -0.2769  0.1777
  619DOPE   D2A 7260   3.719  21.131  10.681 -0.0896  0.2952  0.1880
  619DOPE   C3A 7261   3.510  20.790  10.954  0.1539  0.1852  0.3388
  619DOPE   C4A 7262   3.721  20.749  11.381  0.4430  0.0461  0.0117
  619DOPE   C1B 7263   4.163  20.456  10.359  0.2082 -0.0770  0.1379
  619DOPE   D2B 7264   4.126  20.145  10.722  0.1842  0.3043  0.0761
  619DOPE   C3B 7265   3.703  20.039  10.902  0.0468 -0.0716 -0.0062
  619DOPE   C4B 7266   3.428  20.298  11.155  0.3065 -0.3354  0.1287
  620DOPE   NH3 7267  12.220  19.944   8.886  0.3197 -0.1312 -0.0156
  620DOPE   PO4 7268  11.937  19.829   8.714  0.1948  0.0897  0.1800
  620DOPE   GL1 7269  11.982  19.742   9.178  0.3309  0.5784 -0.3586
  620DOPE   GL2 7270  11.906  19.993   9.277  0.1604  0.0348 -0.1724
  620DOPE   C1A 7271  11.603  19.595   9.469  0.2255 -0.1300  0.0203
  620DOPE   D2A 7272  11.178  19.366   9.445  0.1427 -0.4466 -0.3558
  620DOPE   C3A 7273  11.076  19.235   9.898  0.1772  0.1395  0.1992
  620DOPE   C4A 7274  11.462  19.084  10.096 -0.0169 -0.0215 -0.1996
  620DOPE   C1B 7275  12.056  20.196   9.690 -0.0179 -0.1804 -0.0632
  620DOPE   D2B 7276  12.380  20.536   9.801  0.0400  0.1603  0.0122
  620DOPE   C3B 7277  12.563  20.665  10.230  0.0949 -0.2387 -0.0982
  620DOPE   C4B 7278  12.724  20.720  10.645 -0.3094 -0.0244 -0.2205
  621DOPE   NH3 7279   6.748  17.296   9.081 -0.1567 -0.0726 -0.1030
  621DOPE   PO4 7280   7.057  17.284   9.071  0.2504 -0.1411 -0.0677
  621DOPE   GL1 7281   7.227  17.066   9.385  0.1226 -0.1039  0.1954
  621DOPE   GL2 7282   7.418  17.276   9.510 -0.0764 -0.2292 -0.1438
  621DOPE   C1A 7283   7.243  16.930   9.813 -0.1401  0.1058  0.1652
  621DOPE   D2A 7284   7.397  16.830  10.246  0.1837  0.1591 -0.2916
  621DOPE   C3A 7285   7.281  16.452  10.518 -0.2058  0.2675 -0.0152
  621DOPE   C4A 7286   7.425  16.175  10.839  0.2837 -0.1727 -0.1990
  621DOPE   C1B 7287   7.367  17.374   9.957 -0.1463 -0.1820 -0.0321
  621DOPE   D2B 7288   7.297  17.304  10.402 -0.0730 -0.0978  0.0084
  621DOPE   C3B 7289   6.985  17.528  10.630  0.2559 -0.3151 -0.2113
  621DOPE   C4B 7290   7.015  17.885  10.981  0.0987  0.2641  0.4728
  622POSM   NC3 7291   0.553  22.385  10.145 -0.0293 -0.0355 -0.2269
  622POSM   PO4 7292   0.807  22.092  10.159 -0.1258  0.2559 -0.0443
  622POSM   AM1 7293   0.875  22.055  10.460 -0.0485 -0.0814  0.3677
  622POSM   AM2 7294   0.856  22.194  10.719 -0.1837 -0.1246  0.1251
  622POSM   T1A 7295   1.299  21.953  10.771  0.0096 -0.1562  0.0207
  622POSM   C2A 7296   1.505  21.983  11.145  0.0033 -0.0252 -0.1521
  622POSM   C3A 7297   1.419  21.877  11.554  0.1797 -0.1629  0.0116
  622POSM   C1B 7298   1.100  22.354  10.919  0.0572  0.0313 -0.2563
  622POSM   D2B 7299   1.461  22.519  11.136  0.0922  0.1740 -0.1624
  622POSM   C3B 7300   1.632  22.904  11.170 -0.0665  0.1274  0.2612
  622POSM   C4B 7301   1.537  23.169  11.533  0.2492  0.0116  0.2113
  623DOPE   NH3 7302   5.377  18.260   8.897 -0.2671  0.0071 -0.0020
  623DOPE   PO4 7303   5.576  18.065   9.020  0.0594  0.2822  0.1446
  623DOPE   GL1 7304   5.574  18.228   9.424  0.0239  0.2134 -0.1423
  623DOPE   GL2 7305   5.473  18.493   9.338 -0.0124 -0.2173 -0.2242
  623DOPE   C1A 7306   5.689  18.395   9.828  0.2243  0.3031 -0.1569
  623DOPE   D2A 7307   5.834  18.755  10.087 -0.1855  0.0843 -0.0916
  623DOPE   C3A 7308   6.091  18.459  10.288 -0.0193 -0.0122 -0.0705
  623DOPE   C4A 7309   6.171  18.139   9.904 -0.0231 -0.0145 -0.0104
  623DOPE   C1B 7310   5.161  18.373   9.727  0.1457 -0.0313 -0.0450
  623DOPE   D2B 7311   5.244  18.264  10.185 -0.4926 -0.1888 -0.1973
  623DOPE   C3B 7312   5.589  18.286  10.531  0.0224 -0.1940  0.3018
  623DOPE   C4B 7313   5.743  18.084  10.918  0.0026 -0.1208  0.2034
  624POSM   NC3 7314  10.194  23.546   8.767 -0.0381 -0.2221  0.1932
  624POSM   PO4 7315  10.470  23.256   8.811  0.0762 -0.1981 -0.0628
  624POSM   AM1 7316  10.399  23.306   9.137  0.3149  0.1991 -0.1892
  624POSM   AM2 7317  10.161  23.330   9.319 -0.0341 -0.1955  0.0222
  624POSM   T1A 7318  10.531  23.578   9.515 -0.0251 -0.1559  0.0463
  624POSM   C2A 7319  10.749  23.546   9.948 -0.1930  0.0828 -0.1303
  624POSM   C3A 7320  10.810  23.270  10.266 -0.2004  0.1340  0.1353
  624POSM   C1B 7321  10.095  23.076   9.594  0.1679  0.1216  0.0607
  624POSM   D2B 7322  10.085  22.775   9.961  0.2651  0.2985  0.1107
  624POSM   C3B 7323   9.827  23.086  10.196 -0.1067 -0.3283  0.1387
  624POSM   C4B 7324   9.807  23.459  10.423  0.0608  0.1660  0.4378
  625POSM   NC3 7325   0.891  15.446  10.485 -0.1377 -0.1993  0.2716
  625POSM   PO4 7326   0.795  15.649  10.793 -0.1632  0.1993 -0.1847
  625POSM   AM1 7327   0.784  15.731  11.101 -0.3393  0.1010 -0.0747
  625POSM   AM2 7328   0.780  15.516  11.351 -0.0612  0.1107  0.2175
  625POSM   T1A 7329   0.972  16.028  11.400  0.1472  0.0138 -0.1893
  625POSM   C2A 7330   1.135  16.057  11.830  0.0079  0.0634  0.2871
  625POSM   C3A 7331   1.246  15.982  12.328  0.2068  0.2019  0.1474
  625POSM   C1B 7332   0.990  15.524  11.561  0.1020 -0.1246  0.1508
  625POSM   D2B 7333   1.209  15.566  11.929 -0.0537 -0.0005  0.2969
  625POSM   C3B 7334   1.123  15.507  12.409  0.2185 -0.3707  0.0280
  625POSM   C4B 7335   1.297  15.351  12.848  0.0100  0.0188 -0.0744
  626DOPC   NC3 7336  15.269  22.543   8.805 -0.0615 -0.1968 -0.2121
  626DOPC   PO4 7337  14.875  22.415   8.805  0.0164  0.1390 -0.3632
  626DOPC   GL1 7338  14.937  22.062   9.103 -0.0577 -0.1578  0.4814
  626DOPC   GL2 7339  14.653  21.816   9.086 -0.2086 -0.1534 -0.0399
  626DOPC   C1A 7340  14.961  21.958   9.557 -0.0465  0.1971  0.1161
  626DOPC   D2A 7341  15.024  22.269   9.906  0.1541 -0.2371 -0.0560
  626DOPC   C3A 7342  14.783  22.231  10.328  0.1097 -0.0902  0.1938
  626DOPC   C4A 7343  14.598  21.837  10.470 -0.3179  0.1301  0.1683
  626DOPC   C1B 7344  14.453  21.930   9.486 -0.3515 -0.1994  0.0890
  626DOPC   D2B 7345  14.594  22.043   9.909 -0.4109  0.0217 -0.0730
  626DOPC   C3B 7346  14.828  21.693   9.979  0.2097  0.1198  0.0528
  626DOPC   C4B 7347  14.868  21.252   9.883 -0.1676 -0.4825  0.1502
  627DOPC   NC3 7348  10.553  22.525   8.886  0.1221  0.0582  0.0488
  627DOPC   PO4 7349  10.726  22.830   8.709 -0.0321 -0.0030 -0.3502
  627DOPC   GL1 7350  10.748  22.882   9.099  0.0328  0.4569  0.1153
  627DOPC   GL2 7351  10.692  23.057   9.359  0.0266  0.3480 -0.2964
  627DOPC   C1A 7352  10.612  22.567   9.411 -0.1233  0.1914 -0.1772
  627DOPC   D2A 7353  10.595  22.583   9.914 -0.1156  0.1506  0.4928
  627DOPC   C3A 7354  10.798  22.695  10.330 -0.0713 -0.1232 -0.0227
  627DOPC   C4A 7355  10.645  22.994  10.667  0.0892 -0.0484 -0.0901
  627DOPC   C1B 7356  10.530  23.060   9.797 -0.0330 -0.0193  0.0718
  627DOPC   D2B 7357  10.358  23.250  10.179  0.4064 -0.1717  0.0816
  627DOPC   C3B 7358  10.098  23.104  10.620  0.0075  0.0285  0.0098
  627DOPC   C4B 7359   9.740  22.982  10.833 -0.1105  0.1901  0.0473
  628DOPC   NC3 7360   4.100  15.915   9.577  0.0343  0.3590  0.2568
  628DOPC   PO4 7361   3.743  15.982   9.723  0.1040 -0.0709  0.2887
  628DOPC   GL1 7362   3.665  15.832  10.098  0.2489  0.2924  0.2299
  628DOPC   GL2 7363   3.758  16.116  10.233 -0.0952  0.2702  0.1611
  628DOPC   C1A 7364   3.744  15.666  10.536 -0.0984  0.1229 -0.0997
  628DOPC   D2A 7365   3.894  15.645  10.964 -0.2742  0.0584  0.0910
  628DOPC   C3A 7366   4.032  15.390  11.288 -0.0468  0.1653  0.1799
  628DOPC   C4A 7367   3.965  15.154  11.686  0.0373  0.1988  0.0600
  628DOPC   C1B 7368   3.862  16.327  10.656  0.1583 -0.0235  0.2293
  628DOPC   D2B 7369   3.890  16.288  11.127 -0.1080 -0.1723  0.0443
  628DOPC   C3B 7370   4.076  16.440  11.568  0.1556  0.2413 -0.2538
  628DOPC   C4B 7371   4.198  16.747  11.895 -0.0955  0.1172 -0.2489
  629DOPE   NH3 7372   6.433  11.799   9.720  0.1830  0.0186  0.0962
  629DOPE   PO4 7373   6.638  12.015   9.856 -0.2718 -0.1105  0.0036
  629DOPE   GL1 7374   6.775  12.081  10.197 -0.2215 -0.2216 -0.3110
  629DOPE   GL2 7375   7.152  12.134  10.214  0.3891 -0.6094 -0.0130
  629DOPE   C1A 7376   6.590  12.320  10.544 -0.1842  0.2983 -0.0774
  629DOPE   D2A 7377   6.696  12.415  10.974  0.4047  0.0228 -0.1361
  629DOPE   C3A 7378   6.434  12.200  11.372 -0.1950  0.0347  0.2134
  629DOPE   C4A 7379   6.163  11.873  11.578  0.1347 -0.1822 -0.1751
  629DOPE   C1B 7380   7.084  12.477  10.542  0.1930 -0.0602 -0.3512
  629DOPE   D2B 7381   6.954  12.846  10.782 -0.0277 -0.0717  0.1530
  629DOPE   C3B 7382   7.079  13.269  10.799 -0.0373  0.2526 -0.2113
  629DOPE   C4B 7383   7.319  13.568  11.045 -0.0808  0.0723 -0.0585
  630POSM   NC3 7384   2.159  10.788  10.722 -0.0178  0.0918  0.4509
  630POSM   PO4 7385   2.405  11.097  10.740  0.0025  0.1616 -0.2794
  630POSM   AM1 7386   2.608  11.028  10.982  0.1331  0.3231 -0.2849
  630POSM   AM2 7387   2.840  10.925  11.033  0.1866  0.2469  0.0538
  630POSM   T1A 7388   2.634  11.099  11.466 -0.1645 -0.0628 -0.1921
  630POSM   C2A 7389   2.712  11.056  11.939 -0.0891  0.3492  0.0230
  630POSM   C3A 7390   2.377  10.942  12.173  0.1466  0.1355 -0.1600
  630POSM   C1B 7391   2.946  10.719  11.373  0.1921  0.1219 -0.1716
  630POSM   D2B 7392   2.953  10.652  11.836  0.2439 -0.2310 -0.1904
  630POSM   C3B 7393   2.960  10.799  12.248 -0.0261  0.2834 -0.4575
  630POSM   C4B 7394   2.795  11.042  12.616  0.0268 -0.0823  0.3121
  631DOPE   NH3 7395  33.677  22.294  10.501  0.0638  0.1252  0.0027
  631DOPE   PO4 7396  33.711  22.008  10.675  0.0475  0.0436  0.3989
  631DOPE   GL1 7397  33.791  22.067  10.997 -0.2745  0.1971 -0.2308
  631DOPE   GL2 7398  33.755  22.326  11.097 -0.2099 -0.2733  0.2635
  631DOPE   C1A 7399  34.106  22.025  11.312 -0.1802 -0.4398  0.0345
  631DOPE   D2A 7400  34.364  22.177  11.613 -0.1242  0.3242  0.0833
  631DOPE   C3A 7401  34.470  22.227  12.105  0.3932 -0.1027 -0.1450
  631DOPE   C4A 7402  34.416  22.006  12.495  0.1370 -0.3283  0.0948
  631DOPE   C1B 7403  33.614  22.120  11.454  0.2864 -0.1349 -0.0957
  631DOPE   D2B 7404  33.314  21.921  11.720  0.0919 -0.3222 -0.1894
  631DOPE   C3B 7405  33.480  21.867  12.134  0.0654  0.0136  0.2478
  631DOPE   C4B 7406  33.659  21.814  12.530  0.2396  0.1768  0.1156
  632DOPC   NC3 7407   9.038  14.178   8.773 -0.1173  0.0812  0.1528
  632DOPC   PO4 7408   8.981  14.559   8.903 -0.2856  0.0736 -0.0881
  632DOPC   GL1 7409   8.978  14.562   9.374 -0.0229 -0.0064  0.0177
  632DOPC   GL2 7410   8.897  14.819   9.330 -0.0540  0.1938  0.0500
  632DOPC   C1A 7411   9.377  14.430   9.622  0.1258 -0.0134  0.3133
  632DOPC   D2A 7412   9.549  14.449   9.975 -0.1711 -0.2895  0.0100
  632DOPC   C3A 7413   9.383  14.443  10.382 -0.2641  0.0939 -0.0270
  632DOPC   C4A 7414   9.106  14.549  10.752  0.1241  0.1573 -0.0682
  632DOPC   C1B 7415   9.171  14.893   9.714 -0.1158  0.1990  0.0242
  632DOPC   D2B 7416   9.007  14.553   9.979 -0.1628 -0.0016 -0.2295
  632DOPC   C3B 7417   8.747  14.468  10.390  0.2585 -0.0848 -0.0828
  632DOPC   C4B 7418   8.367  14.503  10.636  0.0032  0.0330  0.1819
  633POSM   NC3 7419   5.899  11.976   9.769  0.1762  0.3322  0.1751
  633POSM   PO4 7420   6.135  12.165   9.972  0.1644  0.1430 -0.1405
  633POSM   AM1 7421   6.131  12.203  10.311  0.0034  0.0274  0.0723
  633POSM   AM2 7422   6.058  12.088  10.532  0.2379 -0.1438 -0.1285
  633POSM   T1A 7423   6.200  12.503  10.766  0.2685 -0.0343 -0.0925
  633POSM   C2A 7424   6.144  12.634  11.213 -0.2048 -0.1607 -0.1525
  633POSM   C3A 7425   6.196  12.491  11.671 -0.0764 -0.1463 -0.2466
  633POSM   C1B 7426   5.932  11.891  10.816 -0.1687  0.0621  0.2110
  633POSM   D2B 7427   5.758  11.576  11.150 -0.1252 -0.0382  0.2496
  633POSM   C3B 7428   5.665  11.604  11.609  0.0937 -0.1878  0.0988
  633POSM   C4B 7429   5.502  11.445  11.972 -0.2160 -0.1266 -0.2366
  634DOPE   NH3 7430  11.541  19.926   8.363  0.2930  0.0581  0.2063
  634DOPE   PO4 7431  11.343  20.057   8.577 -0.1684 -0.0813  0.0465
  634DOPE   GL1 7432  11.341  20.228   8.972  0.2419  0.2843 -0.2069
  634DOPE   GL2 7433  11.486  19.972   9.035  0.1085  0.0294  0.2855
  634DOPE   C1A 7434  11.076  20.389   9.263  0.2888 -0.1048  0.0151
  634DOPE   D2A 7435  10.902  20.827   9.402  0.2978 -0.0802 -0.1942
  634DOPE   C3A 7436  10.608  20.627   9.718  0.1326  0.1378  0.1110
  634DOPE   C4A 7437  10.301  20.699  10.024 -0.0807  0.0587  0.2585
  634DOPE   C1B 7438  11.534  20.201   9.422 -0.1467  0.0792  0.0777
  634DOPE   D2B 7439  11.368  20.605   9.603 -0.1461  0.0808 -0.1220
  634DOPE   C3B 7440  11.053  20.527   9.932 -0.1561  0.3101  0.3697
  634DOPE   C4B 7441  10.846  20.247  10.181  0.0004  0.0696 -0.0944
  635DOPE   NH3 7442   1.699  20.473   9.984  0.0447  0.0717  0.0508
  635DOPE   PO4 7443   1.988  20.328   9.988 -0.1361  0.2366 -0.0488
  635DOPE   GL1 7444   2.224  20.154  10.264  0.3661 -0.2843  0.1817
  635DOPE   GL2 7445   2.377  20.291  10.501  0.0125  0.3830  0.0814
  635DOPE   C1A 7446   2.114  19.867  10.609 -0.0401  0.0069  0.3879
  635DOPE   D2A 7447   2.041  19.729  11.052  0.2640  0.0634 -0.3315
  635DOPE   C3A 7448   2.430  19.605  11.314  0.0149  0.1459  0.1632
  635DOPE   C4A 7449   2.854  19.624  11.262  0.0113  0.0529 -0.0749
  635DOPE   C1B 7450   2.301  20.362  10.907  0.0408 -0.0390  0.1492
  635DOPE   D2B 7451   2.138  20.678  11.208  0.3654  0.3410 -0.1934
  635DOPE   C3B 7452   2.352  20.505  11.560  0.1296  0.1143  0.1974
  635DOPE   C4B 7453   2.715  20.704  11.820  0.2356 -0.3357 -0.2999
  636DOPC   NC3 7454   8.312  18.348   8.890 -0.1267 -0.0141 -0.3096
  636DOPC   PO4 7455   8.211  18.716   8.854  0.0371 -0.0437  0.2006
  636DOPC   GL1 7456   8.179  18.652   9.223  0.1801  0.1056 -0.0203
  636DOPC   GL2 7457   8.211  18.930   9.313 -0.2079  0.3843  0.0612
  636DOPC   C1A 7458   8.208  18.602   9.698  0.0378  0.1963 -0.2913
  636DOPC   D2A 7459   8.123  18.681  10.155 -0.2888 -0.1323 -0.1415
  636DOPC   C3A 7460   8.075  18.459  10.556 -0.1670  0.0417  0.1164
  636DOPC   C4A 7461   7.722  18.282  10.825  0.0830 -0.1076  0.0466
  636DOPC   C1B 7462   7.861  19.032   9.601  0.4133  0.1263  0.1016
  636DOPC   D2B 7463   7.419  18.911   9.770 -0.2101 -0.1523 -0.4433
  636DOPC   C3B 7464   7.238  18.861  10.203 -0.4724 -0.2640 -0.2910
  636DOPC   C4B 7465   6.845  18.744  10.339  0.0951 -0.2032  0.0916
  637DOPE   NH3 7466   3.585  19.081   9.355 -0.1730  0.0923 -0.0854
  637DOPE   PO4 7467   3.339  19.058   9.564 -0.3100 -0.2424  0.2777
  637DOPE   GL1 7468   3.411  19.355   9.943 -0.4808  0.4323  0.0006
  637DOPE   GL2 7469   3.182  19.246  10.041  0.0642  0.0330 -0.1475
  637DOPE   C1A 7470   3.750  19.358  10.307 -0.2529 -0.2278 -0.3068
  637DOPE   D2A 7471   4.007  19.660  10.690 -0.1651  0.1733  0.2001
  637DOPE   C3A 7472   4.146  19.458  11.012  0.1944 -0.3664  0.3050
  637DOPE   C4A 7473   4.225  19.101  11.255  0.0243  0.0079 -0.0490
  637DOPE   C1B 7474   3.252  19.314  10.487  0.2545 -0.0983  0.0463
  637DOPE   D2B 7475   3.572  19.458  10.820  0.0601  0.0904  0.3271
  637DOPE   C3B 7476   3.678  19.334  11.291 -0.1485 -0.1728 -0.1260
  637DOPE   C4B 7477   3.736  19.422  11.701  0.0199 -0.0569  0.2475
  638POSM   NC3 7478   9.035  19.827   9.036  0.0774  0.1378  0.0187
  638POSM   PO4 7479   9.378  19.935   8.910 -0.0540  0.1142  0.0699
  638POSM   AM1 7480   9.381  20.161   9.175 -0.0703 -0.1427  0.0481
  638POSM   AM2 7481   9.133  20.348   9.304 -0.5183  0.0847 -0.4248
  638POSM   T1A 7482   9.495  20.315   9.622 -0.2359  0.1015 -0.1419
  638POSM   C2A 7483   9.696  20.466   9.984 -0.2924 -0.1070 -0.1121
  638POSM   C3A 7484   9.968  20.417  10.353  0.1211 -0.1436 -0.0124
  638POSM   C1B 7485   8.993  20.592   9.476  0.2993 -0.1551 -0.1448
  638POSM   D2B 7486   8.786  20.815   9.795 -0.2661 -0.1527 -0.1041
  638POSM   C3B 7487   8.648  20.750  10.230  0.0498  0.0769 -0.1880
  638POSM   C4B 7488   8.746  20.449  10.515  0.0369  0.2217 -0.0880
  639DOPC   NC3 7489  10.504  18.003   8.645 -0.0767 -0.2610  0.1204
  639DOPC   PO4 7490  10.477  18.329   8.831  0.1639  0.0377 -0.1036
  639DOPC   GL1 7491  10.660  18.565   9.150  0.1764  0.0206  0.3852
  639DOPC   GL2 7492  10.707  18.518   9.459  0.0948 -0.3303  0.0769
  639DOPC   C1A 7493  10.537  19.024   9.253  0.1219 -0.1216  0.0509
  639DOPC   D2A 7494  10.730  19.281   9.535 -0.1422 -0.2355 -0.0103
  639DOPC   C3A 7495  10.492  19.467   9.918  0.0382  0.0119 -0.3476
  639DOPC   C4A 7496  10.474  19.179  10.297  0.0887  0.3250 -0.0400
  639DOPC   C1B 7497  10.905  18.603   9.858  0.1204  0.2765 -0.1077
  639DOPC   D2B 7498  11.233  18.639  10.221  0.2405 -0.1288 -0.2179
  639DOPC   C3B 7499  11.299  18.655  10.654 -0.2217  0.1269  0.3803
  639DOPC   C4B 7500  11.296  18.879  11.066 -0.0341 -0.0256  0.0884
  640POSM   NC3 7501   6.736  22.109   9.154  0.1347  0.0138 -0.1219
  640POSM   PO4 7502   6.844  22.478   9.274  0.4179 -0.2120 -0.2417
  640POSM   AM1 7503   6.851  22.698   9.521  0.1192 -0.2196  0.0155
  640POSM   AM2 7504   6.746  22.668   9.801 -0.1927 -0.3264  0.0676
  640POSM   T1A 7505   7.154  22.964   9.744 -0.3324 -0.0922  0.1177
  640POSM   C2A 7506   7.483  22.834  10.022  0.2094 -0.1043 -0.1151
  640POSM   C3A 7507   7.882  22.891  10.258 -0.1308  0.1557 -0.2091
  640POSM   C1B 7508   6.794  22.619  10.147 -0.0838  0.1398  0.3243
  640POSM   D2B 7509   6.871  22.440  10.578 -0.2257  0.1101 -0.0569
  640POSM   C3B 7510   6.851  22.737  10.907 -0.0112  0.0361 -0.5291
  640POSM   C4B 7511   6.734  22.804  11.344 -0.2039 -0.1156 -0.0961
  641DOPE   NH3 7512   4.816  13.135   9.533  0.0651  0.3203  0.0484
  641DOPE   PO4 7513   4.785  12.985   9.822 -0.0077 -0.0254  0.0225
  641DOPE   GL1 7514   4.837  13.202  10.117 -0.2275  0.0077 -0.0471
  641DOPE   GL2 7515   4.712  13.136  10.330 -0.3239 -0.3619 -0.1335
  641DOPE   C1A 7516   5.036  13.623  10.203 -0.1438 -0.0735  0.4835
  641DOPE   D2A 7517   5.327  13.941  10.388  0.3108 -0.1166  0.0280
  641DOPE   C3A 7518   5.192  14.320  10.661  0.0258  0.2066  0.0015
  641DOPE   C4A 7519   5.477  14.473  11.011 -0.0558  0.0128  0.1256
  641DOPE   C1B 7520   4.435  12.995  10.632  0.4533 -0.0981 -0.4945
  641DOPE   D2B 7521   4.203  12.701  10.781  0.2910  0.0183 -0.2306
  641DOPE   C3B 7522   4.224  12.450  11.128  0.1348  0.4971  0.3070
  641DOPE   C4B 7523   3.983  12.388  11.501  0.1207 -0.1177 -0.0171
  642DOPC   NC3 7524   9.762  13.099   9.226  0.1483 -0.1819 -0.1372
  642DOPC   PO4 7525   9.537  13.460   9.287 -0.0898  0.3522  0.0652
  642DOPC   GL1 7526   9.778  13.637   9.590 -0.3264 -0.2309 -0.2270
  642DOPC   GL2 7527   9.726  13.382   9.783  0.1886 -0.0947 -0.1116
  642DOPC   C1A 7528   9.865  14.004   9.784 -0.0586  0.1313 -0.0951
  642DOPC   D2A 7529  10.016  14.442   9.900  0.0513 -0.0107 -0.0846
  642DOPC   C3A 7530   9.935  14.714  10.274  0.0009 -0.0223 -0.2759
  642DOPC   C4A 7531   9.697  14.793  10.677  0.1591 -0.0065  0.1113
  642DOPC   C1B 7532   9.454  13.351  10.130  0.3746 -0.1999  0.0818
  642DOPC   D2B 7533   9.433  13.575  10.544 -0.1349  0.0775 -0.0717
  642DOPC   C3B 7534   9.099  13.709  10.823 -0.2670  0.0496  0.1441
  642DOPC   C4B 7535   8.793  13.640  11.136 -0.2491 -0.2478  0.0121
  643DOPE   NH3 7536  11.707   9.604   9.260  0.4501  0.3288 -0.1393
  643DOPE   PO4 7537  11.696   9.791   9.486 -0.5363 -0.1058 -0.1693
  643DOPE   GL1 7538  11.705   9.824   9.894  0.1842 -0.1058 -0.2073
  643DOPE   GL2 7539  11.644  10.092   9.986 -0.2181 -0.3105  0.0796
  643DOPE   C1A 7540  11.511   9.813  10.366 -0.1653  0.1844  0.2491
  643DOPE   D2A 7541  11.601  10.022  10.798 -0.0016  0.1966 -0.0333
  643DOPE   C3A 7542  11.786   9.865  11.213 -0.0081  0.1928  0.0871
  643DOPE   C4A 7543  11.769  10.016  11.630 -0.1276 -0.1576  0.0207
  643DOPE   C1B 7544  11.799  10.228  10.366 -0.1414 -0.0342  0.0044
  643DOPE   D2B 7545  12.077  10.460  10.666  0.3968  0.2184  0.2182
  643DOPE   C3B 7546  12.459  10.689  10.464 -0.1300 -0.1073  0.0623
  643DOPE   C4B 7547  12.633  10.801  10.063  0.3759 -0.0398 -0.0453
  644POSM   NC3 7548   1.425  18.762  10.373 -0.2709  0.2083 -0.0345
  644POSM   PO4 7549   1.042  18.731  10.342 -0.2842  0.1496 -0.0542
  644POSM   AM1 7550   1.107  18.614  10.683 -0.2751 -0.3013  0.3950
  644POSM   AM2 7551   1.275  18.757  10.848 -0.2923  0.3399 -0.0265
  644POSM   T1A 7552   1.319  18.300  11.020 -0.0467  0.1313 -0.0185
  644POSM   C2A 7553   1.333  18.187  11.463 -0.1152 -0.0455  0.1184
  644POSM   C3A 7554   1.232  17.816  11.698  0.2255 -0.1593 -0.0233
  644POSM   C1B 7555   1.197  18.734  11.154 -0.1145  0.1401 -0.0947
  644POSM   D2B 7556   1.149  18.761  11.604  0.0888 -0.1632  0.0550
  644POSM   C3B 7557   1.275  18.406  11.899 -0.2893 -0.2686  0.2185
  644POSM   C4B 7558   1.666  18.041  11.911  0.1822 -0.1979  0.2003
  645DOPC   NC3 7559   8.656  20.546   9.083 -0.0049 -0.3599 -0.0668
  645DOPC   PO4 7560   8.321  20.537   8.850 -0.1604 -0.0006  0.0312
  645DOPC   GL1 7561   8.185  20.608   9.214  0.0817 -0.0138  0.0961
  645DOPC   GL2 7562   8.320  20.765   9.373 -0.0071 -0.4013 -0.2137
  645DOPC   C1A 7563   8.035  20.476   9.647  0.0929 -0.4915  0.4079
  645DOPC   D2A 7564   8.183  20.648  10.036  0.3021 -0.0410 -0.1747
  645DOPC   C3A 7565   8.076  21.056  10.245 -0.0858  0.1820 -0.1901
  645DOPC   C4A 7566   8.208  21.533  10.285  0.0108 -0.0191  0.1887
  645DOPC   C1B 7567   8.495  20.435   9.672 -0.5062  0.0822 -0.1824
  645DOPC   D2B 7568   8.794  20.151   9.865 -0.0619 -0.1126  0.2753
  645DOPC   C3B 7569   9.092  19.826  10.076 -0.2485  0.4180  0.0213
  645DOPC   C4B 7570   9.069  19.643  10.499  0.1779 -0.0726 -0.0645
  646POSM   NC3 7571   6.760  14.960   9.238  0.0961 -0.0058 -0.1075
  646POSM   PO4 7572   6.947  15.220   9.032 -0.1338  0.1027 -0.3734
  646POSM   AM1 7573   6.992  15.363   9.345 -0.0080  0.1047  0.3958
  646POSM   AM2 7574   7.162  15.437   9.561  0.1553  0.0192  0.3925
  646POSM   T1A 7575   6.733  15.433   9.800 -0.1956  0.1334  0.1734
  646POSM   C2A 7576   6.545  15.315  10.192 -0.2319  0.1590 -0.1046
  646POSM   C3A 7577   6.323  15.535  10.502  0.3337 -0.1142 -0.0714
  646POSM   C1B 7578   7.262  15.290   9.830  0.0167  0.2908  0.2136
  646POSM   D2B 7579   7.347  15.444  10.249  0.2268 -0.0311  0.1189
  646POSM   C3B 7580   7.256  15.396  10.708  0.1175 -0.1077  0.0243
  646POSM   C4B 7581   7.043  15.398  11.150  0.0778  0.0212 -0.0278
  647POSM   NC3 7582   5.691  20.300   9.026  0.2363  0.2495 -0.2134
  647POSM   PO4 7583   5.860  19.994   9.229  0.2236 -0.1310  0.0644
  647POSM   AM1 7584   5.742  19.764   9.470 -0.1567 -0.4071  0.3075
  647POSM   AM2 7585   5.901  19.592   9.579  0.2221  0.1214 -0.0395
  647POSM   T1A 7586   5.356  19.706   9.814 -0.3546  0.1548  0.2751
  647POSM   C2A 7587   5.227  19.783  10.264  0.1499  0.1479  0.1022
  647POSM   C3A 7588   4.951  19.708  10.632 -0.1386  0.0783  0.0958
  647POSM   C1B 7589   5.843  19.739   9.886 -0.2526  0.1418 -0.3721
  647POSM   D2B 7590   5.786  19.675  10.357  0.1752  0.3595 -0.0607
  647POSM   C3B 7591   5.508  19.483  10.651  0.0099 -0.2064 -0.2182
  647POSM   C4B 7592   5.261  19.609  11.018  0.1778  0.4219  0.3055
  648DOPC   NC3 7593   4.871  14.091   9.976  0.2219 -0.1466  0.2401
  648DOPC   PO4 7594   4.685  14.431   9.838 -0.0112  0.0635 -0.1845
  648DOPC   GL1 7595   4.591  14.393  10.282 -0.0255 -0.0186  0.0461
  648DOPC   GL2 7596   4.368  14.672  10.296  0.0850 -0.0655  0.2809
  648DOPC   C1A 7597   4.375  14.093  10.587  0.3087  0.1010  0.2335
  648DOPC   D2A 7598   4.195  13.836  10.978  0.6498 -0.1005 -0.3321
  648DOPC   C3A 7599   4.463  13.684  11.338 -0.0761  0.1210 -0.3333
  648DOPC   C4A 7600   4.747  13.530  11.636  0.1757 -0.1320  0.0260
  648DOPC   C1B 7601   4.697  14.566  10.636 -0.2144  0.0132 -0.1699
  648DOPC   D2B 7602   4.360  14.468  10.989 -0.3698 -0.1394  0.1398
  648DOPC   C3B 7603   4.357  14.180  11.385  0.0739 -0.0760 -0.0263
  648DOPC   C4B 7604   4.458  13.897  11.782  0.1430 -0.1481 -0.0212
  649DOPE   NH3 7605   2.643  14.088   9.951 -0.0767 -0.1343 -0.1908
  649DOPE   PO4 7606   2.473  14.326  10.091  0.0890 -0.0319 -0.0232
  649DOPE   GL1 7607   2.580  14.454  10.486 -0.0311  0.0294  0.0183
  649DOPE   GL2 7608   2.847  14.209  10.454 -0.3890 -0.0916  0.0480
  649DOPE   C1A 7609   2.441  14.466  10.920 -0.0337  0.1699 -0.3985
  649DOPE   D2A 7610   2.422  14.195  11.345  0.1248 -0.1052 -0.2073
  649DOPE   C3A 7611   1.955  14.033  11.286 -0.2711  0.1429 -0.1272
  649DOPE   C4A 7612   1.783  13.663  11.040  0.0850 -0.0830 -0.1498
  649DOPE   C1B 7613   2.923  14.401  10.867 -0.0476  0.1044  0.3125
  649DOPE   D2B 7614   3.181  14.547  11.218  0.1380 -0.1365  0.0495
  649DOPE   C3B 7615   3.082  14.455  11.619 -0.3199 -0.1320 -0.2701
  649DOPE   C4B 7616   3.305  14.432  12.042  0.1919 -0.1129 -0.2528
  650POSM   NC3 7617   2.985  24.618  10.231  0.1641  0.0407  0.1613
  650POSM   PO4 7618   3.270  24.449   9.990  0.0947 -0.0634 -0.2066
  650POSM   AM1 7619   3.402  24.360  10.267  0.2841 -0.0906  0.1178
  650POSM   AM2 7620   3.313  24.307  10.519 -0.0024  0.0480  0.0262
  650POSM   T1A 7621   3.777  24.111  10.394  0.0705 -0.1394 -0.2980
  650POSM   C2A 7622   4.180  24.251  10.500  0.0461 -0.2248  0.2213
  650POSM   C3A 7623   4.563  24.475  10.543 -0.0682  0.0345 -0.0562
  650POSM   C1B 7624   3.399  24.061  10.715  0.4018 -0.1392  0.2286
  650POSM   D2B 7625   3.453  23.847  11.151 -0.0927  0.4617 -0.2513
  650POSM   C3B 7626   3.837  23.823  11.416 -0.0159 -0.1925 -0.3191
  650POSM   C4B 7627   3.841  24.050  11.789  0.3212 -0.1314 -0.0672
  651POSM   NC3 7628   1.050  14.193  10.799 -0.1087  0.1872  0.0134
  651POSM   PO4 7629   0.673  14.197  10.838 -0.0426 -0.2053 -0.2059
  651POSM   AM1 7630   0.764  14.285  11.182 -0.0484 -0.0482  0.2628
  651POSM   AM2 7631   0.990  14.451  11.264 -0.1548 -0.1377 -0.1084
  651POSM   T1A 7632   0.944  14.085  11.595  0.1150  0.0322 -0.2785
  651POSM   C2A 7633   1.259  13.935  11.886 -0.0170  0.2088 -0.2042
  651POSM   C3A 7634   1.244  13.775  12.297  0.0374 -0.0678 -0.0572
  651POSM   C1B 7635   1.175  14.570  11.570 -0.0650 -0.2497 -0.1981
  651POSM   D2B 7636   1.544  14.671  11.816 -0.0045 -0.0532  0.0118
  651POSM   C3B 7637   1.500  14.365  12.118 -0.1932 -0.1566 -0.1055
  651POSM   C4B 7638   1.413  14.157  12.573  0.1874  0.0297  0.0878
  652DOPS   CNO 7639   9.467  19.118   8.773 -0.0195 -0.1295 -0.0007
  652DOPS   PO4 7640   9.368  19.467   8.721  0.3648 -0.1262 -0.0656
  652DOPS   GL1 7641   9.428  19.503   9.153 -0.1272  0.3212 -0.1608
  652DOPS   GL2 7642   9.426  19.239   9.211  0.0069 -0.2161 -0.1601
  652DOPS   C1A 7643   9.611  19.589   9.606 -0.2709  0.2631  0.3107
  652DOPS   D2A 7644   9.989  19.539   9.852  0.1024  0.0127  0.4768
  652DOPS   C3A 7645   9.963  19.121  10.025 -0.0586 -0.3395 -0.2550
  652DOPS   C4A 7646  10.082  18.971  10.487 -0.0928  0.0588  0.4169
  652DOPS   C1B 7647   9.153  19.226   9.580  0.2206  0.2865 -0.1946
  652DOPS   D2B 7648   8.903  19.186   9.983  0.0968 -0.3348  0.1982
  652DOPS   C3B 7649   8.641  18.851  10.199 -0.0964  0.1333  0.0621
  652DOPS   C4B 7650   8.519  18.440  10.153  0.1328 -0.1246  0.1529
  653DOPC   NC3 7651   5.087  22.977  10.442  0.2653 -0.1135 -0.0584
  653DOPC   PO4 7652   4.916  22.799  10.131  0.0400 -0.0770  0.3939
  653DOPC   GL1 7653   4.685  22.662  10.457 -0.0745 -0.2468  0.0618
  653DOPC   GL2 7654   4.492  22.902  10.457  0.0589  0.0906 -0.2014
  653DOPC   C1A 7655   4.670  22.258  10.732 -0.1132  0.2101 -0.1309
  653DOPC   D2A 7656   4.685  21.966  11.076  0.0062 -0.0197 -0.1708
  653DOPC   C3A 7657   4.930  22.085  11.384 -0.2047  0.3560  0.0530
  653DOPC   C4A 7658   4.920  21.977  11.816  0.0566  0.0927  0.0013
  653DOPC   C1B 7659   4.299  22.409  10.327 -0.2172  0.0578  0.1336
  653DOPC   D2B 7660   4.090  22.041  10.516  0.0081  0.1976 -0.1761
  653DOPC   C3B 7661   4.183  22.021  10.943  0.2356 -0.1071 -0.0321
  653DOPC   C4B 7662   4.140  21.845  11.387 -0.0883 -0.2336 -0.4662
  654POSM   NC3 7663   1.931  19.870  10.172 -0.0589  0.0856  0.0003
  654POSM   PO4 7664   1.593  20.000  10.216  0.1502 -0.1895  0.0340
  654POSM   AM1 7665   1.603  19.885  10.558  0.0936  0.0883  0.4812
  654POSM   AM2 7666   1.611  19.697  10.784  0.0900  0.1521 -0.1550
  654POSM   T1A 7667   1.319  20.121  10.918 -0.0779 -0.2483  0.3051
  654POSM   C2A 7668   1.288  20.127  11.328 -0.1002  0.2280  0.3186
  654POSM   C3A 7669   1.447  20.290  11.703  0.0918 -0.0136 -0.2187
  654POSM   C1B 7670   1.554  19.681  11.134 -0.1703 -0.4499  0.3098
  654POSM   D2B 7671   1.750  19.883  11.459 -0.0923 -0.0125  0.0431
  654POSM   C3B 7672   2.025  19.675  11.803 -0.2536  0.2876 -0.0720
  654POSM   C4B 7673   2.427  19.628  12.037  0.0128  0.1416 -0.0571
  655DOPE   NH3 7674   6.501  16.439   9.156 -0.0261  0.3443  0.0812
  655DOPE   PO4 7675   6.335  16.609   9.352  0.0090  0.0903 -0.0320
  655DOPE   GL1 7676   6.573  16.599   9.702  0.1082  0.3256  0.2170
  655DOPE   GL2 7677   6.626  16.891   9.737 -0.0654 -0.0679 -0.1390
  655DOPE   C1A 7678   6.461  16.615  10.174 -0.1485  0.1449  0.1776
  655DOPE   D2A 7679   6.365  16.393  10.544 -0.0303  0.0378  0.0050
  655DOPE   C3A 7680   6.476  16.514  11.038  0.0814 -0.0560 -0.2402
  655DOPE   C4A 7681   6.573  16.233  11.442 -0.1449  0.1298  0.2955
  655DOPE   C1B 7682   6.910  16.812  10.136 -0.0643  0.0321  0.0619
  655DOPE   D2B 7683   6.815  16.660  10.542  0.2910 -0.0008 -0.0726
  655DOPE   C3B 7684   6.912  16.345  10.882  0.0931 -0.0857 -0.2117
  655DOPE   C4B 7685   6.971  15.881  10.994  0.1352 -0.2234 -0.1346
  656POSM   NC3 7686   3.058  20.798  10.090 -0.3387 -0.0739 -0.0851
  656POSM   PO4 7687   2.734  21.022  10.138  0.2796 -0.2917 -0.0154
  656POSM   AM1 7688   2.548  21.144  10.325  0.1673 -0.1211  0.0384
  656POSM   AM2 7689   2.407  20.974  10.532 -0.1060  0.1455 -0.1029
  656POSM   T1A 7690   2.474  21.384  10.771  0.1565 -0.0596  0.1885
  656POSM   C2A 7691   2.408  21.337  11.219 -0.0688  0.2220  0.0649
  656POSM   C3A 7692   2.288  21.061  11.563  0.0163 -0.0510  0.1894
  656POSM   C1B 7693   2.552  20.894  10.832  0.0754 -0.0760  0.0564
  656POSM   D2B 7694   2.629  20.883  11.298 -0.2694  0.3928  0.5062
  656POSM   C3B 7695   2.839  21.161  11.645 -0.2873  0.4130  0.0516
  656POSM   C4B 7696   2.949  21.474  11.961  0.1699 -0.0280  0.2716
  657POSM   NC3 7697   6.616  21.361   8.645  0.0926 -0.4375 -0.0757
  657POSM   PO4 7698   6.798  21.556   8.945 -0.0436  0.2440 -0.3251
  657POSM   AM1 7699   6.744  21.438   9.284  0.1062  0.1970  0.0909
  657POSM   AM2 7700   6.757  21.174   9.458 -0.0460 -0.0590  0.2665
  657POSM   T1A 7701   6.656  21.710   9.729 -0.0771  0.0026  0.0037
  657POSM   C2A 7702   6.459  21.921  10.072  0.0438 -0.1714  0.4764
  657POSM   C3A 7703   6.501  22.260  10.393 -0.1948  0.0342  0.0410
  657POSM   C1B 7704   6.933  21.270   9.739 -0.0879  0.3020 -0.0053
  657POSM   D2B 7705   7.033  21.264  10.254  0.2043 -0.2084  0.0211
  657POSM   C3B 7706   7.133  21.660  10.549 -0.2801 -0.0893 -0.2033
  657POSM   C4B 7707   7.111  21.844  10.965 -0.1122  0.1375  0.0607
  658POSM   NC3 7708   6.795  19.841   9.055 -0.0285  0.1526 -0.0263
  658POSM   PO4 7709   6.808  20.215   9.163 -0.2198  0.1538  0.2620
  658POSM   AM1 7710   6.916  20.207   9.456  0.1416 -0.3498 -0.3467
  658POSM   AM2 7711   6.857  20.031   9.672 -0.0255  0.0706 -0.0527
  658POSM   T1A 7712   7.320  20.225   9.816  0.3415 -0.1734  0.1094
  658POSM   C2A 7713   7.754  20.036   9.786  0.3190  0.1463 -0.2707
  658POSM   C3A 7714   8.217  19.959   9.666  0.2720  0.2251 -0.0793
  658POSM   C1B 7715   6.905  19.918  10.042  0.0460 -0.3161 -0.2397
  658POSM   D2B 7716   7.206  19.772  10.420  0.2617  0.1957  0.0416
  658POSM   C3B 7717   7.114  19.932  10.824  0.0109  0.0504  0.2934
  658POSM   C4B 7718   7.174  19.954  11.297  0.1408 -0.0739 -0.2633
  659DOPS   CNO 7719   7.710  16.678   8.878  0.1955  0.2093  0.2219
  659DOPS   PO4 7720   7.996  16.842   9.038  0.3866 -0.1351  0.1803
  659DOPS   GL1 7721   7.924  16.993   9.343  0.3037  0.2962  0.6783
  659DOPS   GL2 7722   7.626  16.816   9.422 -0.2073 -0.2703 -0.2099
  659DOPS   C1A 7723   7.890  17.283   9.721 -0.1051  0.0963 -0.2246
  659DOPS   D2A 7724   7.684  17.727   9.766  0.2318 -0.1067 -0.0180
  659DOPS   C3A 7725   7.204  17.758   9.648 -0.3415  0.0260 -0.0805
  659DOPS   C4A 7726   6.975  18.173   9.646  0.3622  0.0268 -0.0707
  659DOPS   C1B 7727   7.706  16.717   9.853  0.1867 -0.0915 -0.0233
  659DOPS   D2B 7728   7.763  16.408  10.131 -0.0570 -0.1973 -0.3441
  659DOPS   C3B 7729   7.810  16.443  10.598  0.1404 -0.1380  0.0671
  659DOPS   C4B 7730   7.932  16.043  10.848 -0.1770  0.1973  0.1444
  660POSM   NC3 7731   8.024  13.348   9.177  0.5361 -0.6443  0.2427
  660POSM   PO4 7732   7.793  13.128   9.408 -0.1160 -0.0605 -0.0232
  660POSM   AM1 7733   7.713  13.123   9.691  0.0388 -0.0264  0.0730
  660POSM   AM2 7734   7.626  13.292   9.911  0.1662  0.0430  0.0720
  660POSM   T1A 7735   7.858  12.907  10.177 -0.2419  0.3722  0.0124
  660POSM   C2A 7736   7.838  12.911  10.634  0.2820  0.1162 -0.2072
  660POSM   C3A 7737   7.971  12.855  11.075  0.0722 -0.0625  0.0306
  660POSM   C1B 7738   7.729  13.435  10.184  0.4742 -0.1420  0.1777
  660POSM   D2B 7739   7.575  13.781  10.447  0.0828  0.1808 -0.0179
  660POSM   C3B 7740   7.152  13.869  10.666 -0.3428 -0.0850  0.1037
  660POSM   C4B 7741   6.832  13.977  10.886  0.0012 -0.3436  0.1950
  661DOPE   NH3 7742  11.463  14.668   8.473  0.2288  0.0455 -0.0361
  661DOPE   PO4 7743  11.404  14.619   8.775  0.0857  0.3672 -0.0130
  661DOPE   GL1 7744  11.653  14.722   9.015 -0.5343 -0.3288  0.0137
  661DOPE   GL2 7745  11.664  15.003   9.091  0.1329 -0.0911 -0.0830
  661DOPE   C1A 7746  11.625  14.590   9.455  0.1324  0.2061  0.1402
  661DOPE   D2A 7747  11.457  14.220   9.683  0.0685 -0.1270  0.1030
  661DOPE   C3A 7748  11.377  14.093  10.105 -0.3168  0.2158  0.1206
  661DOPE   C4A 7749  11.289  14.274  10.541  0.2505  0.1014 -0.2319
  661DOPE   C1B 7750  11.694  15.289   9.419  0.1892  0.2078  0.1209
  661DOPE   D2B 7751  11.816  15.612   9.677 -0.2280 -0.0586  0.0128
  661DOPE   C3B 7752  11.645  15.986   9.765  0.0134 -0.1939  0.1035
  661DOPE   C4B 7753  11.565  16.413   9.847 -0.1496  0.2744 -0.3713
  662DOPE   NH3 7754  14.605  22.798   9.030 -0.2464  0.2322 -0.0447
  662DOPE   PO4 7755  14.318  22.950   8.961  0.0436  0.0979 -0.0431
  662DOPE   GL1 7756  14.148  22.638   9.168 -0.2221 -0.1483  0.2971
  662DOPE   GL2 7757  14.375  22.384   9.274  0.2353 -0.0500 -0.0659
  662DOPE   C1A 7758  13.946  22.745   9.569  0.0833 -0.1009  0.3914
  662DOPE   D2A 7759  14.051  22.867   9.985  0.3538 -0.0307 -0.2831
  662DOPE   C3A 7760  14.079  22.661  10.412  0.0868 -0.3883 -0.0810
  662DOPE   C4A 7761  13.839  22.538  10.745 -0.2592  0.3394 -0.0206
  662DOPE   C1B 7762  14.801  22.402   9.453  0.2486  0.0555  0.3544
  662DOPE   D2B 7763  15.262  22.255   9.352 -0.3563 -0.1341  0.1065
  662DOPE   C3B 7764  15.615  22.405   9.568 -0.1101 -0.2627  0.0483
  662DOPE   C4B 7765  15.814  22.736   9.840 -0.0462  0.0511 -0.0529
  663DOPE   NH3 7766   9.738  18.751   9.129 -0.1472  0.0532 -0.0831
  663DOPE   PO4 7767   9.431  18.698   9.258 -0.2817  0.1790 -0.1795
  663DOPE   GL1 7768   9.069  18.729   9.373  0.1420  0.0274  0.1732
  663DOPE   GL2 7769   9.158  18.701   9.653  0.2110  0.0872  0.3056
  663DOPE   C1A 7770   8.651  18.484   9.516  0.3464  0.1070  0.1295
  663DOPE   D2A 7771   8.425  18.166   9.694 -0.0842  0.3937 -0.1224
  663DOPE   C3A 7772   8.586  17.907  10.081  0.0350 -0.0026  0.0520
  663DOPE   C4A 7773   8.739  17.906  10.536  0.1873 -0.3421 -0.0996
  663DOPE   C1B 7774   9.437  19.032   9.927 -0.2329 -0.0836  0.1266
  663DOPE   D2B 7775   9.576  19.336  10.211  0.2339 -0.0542 -0.2065
  663DOPE   C3B 7776   9.640  19.283  10.666  0.1629  0.1111  0.1273
  663DOPE   C4B 7777   9.828  19.605  10.923 -0.0311  0.2582  0.0353
  664DOPE   NH3 7778   2.468  17.526   9.545 -0.5950  0.1725 -0.1189
  664DOPE   PO4 7779   2.726  17.610   9.440 -0.0864 -0.1531  0.3213
  664DOPE   GL1 7780   2.832  17.801   9.901 -0.4957 -0.0739 -0.1257
  664DOPE   GL2 7781   2.922  17.569   9.868 -0.0412 -0.2976  0.0127
  664DOPE   C1A 7782   2.807  18.084  10.341 -0.5257  0.2420  0.0532
  664DOPE   D2A 7783   2.533  18.335  10.603 -0.1429  0.0358  0.0881
  664DOPE   C3A 7784   2.151  18.327  10.812  0.0528  0.3661 -0.2010
  664DOPE   C4A 7785   1.835  18.260  11.102 -0.3298 -0.0871 -0.1515
  664DOPE   C1B 7786   3.318  17.464  10.131  0.0969 -0.1341 -0.3152
  664DOPE   D2B 7787   3.645  17.213  10.325  0.3358  0.2407  0.5094
  664DOPE   C3B 7788   3.625  16.995  10.776 -0.2418  0.1408 -0.1009
  664DOPE   C4B 7789   3.894  16.775  11.071 -0.1210 -0.1025  0.0269
  665POSM   NC3 7790   1.741  15.246  10.290 -0.2268 -0.4868  0.1740
  665POSM   PO4 7791   1.521  15.466  10.569 -0.2779  0.2230  0.0307
  665POSM   AM1 7792   1.748  15.437  10.801 -0.1395 -0.2284  0.2652
  665POSM   AM2 7793   1.774  15.364  11.073  0.0550 -0.1109 -0.1500
  665POSM   T1A 7794   2.017  15.784  11.023  0.1142 -0.0884  0.0768
  665POSM   C2A 7795   2.106  15.826  11.540  0.0561 -0.1408 -0.0760
  665POSM   C3A 7796   2.387  16.147  11.755 -0.3287 -0.1211 -0.0827
  665POSM   C1B 7797   1.909  15.359  11.405  0.0185 -0.2905 -0.0848
  665POSM   D2B 7798   2.068  15.400  11.875  0.0002  0.0865  0.1257
  665POSM   C3B 7799   1.991  15.058  12.208  0.1933 -0.2311 -0.1215
  665POSM   C4B 7800   1.835  14.726  12.494  0.0087 -0.2704 -0.0500
  666DOPC   NC3 7801   9.283  22.583   8.767  0.3952  0.1029  0.1272
  666DOPC   PO4 7802   8.940  22.432   8.932 -0.0633 -0.0429 -0.0379
  666DOPC   GL1 7803   8.982  22.612   9.260 -0.0572  0.1763 -0.0294
  666DOPC   GL2 7804   8.765  22.669   9.395  0.3057 -0.0706 -0.0764
  666DOPC   C1A 7805   9.259  22.891   9.426  0.0671 -0.0154  0.0772
  666DOPC   D2A 7806   9.626  23.122   9.365 -0.1027 -0.1444 -0.1855
  666DOPC   C3A 7807   9.697  23.433   9.684 -0.1290  0.0429  0.1914
  666DOPC   C4A 7808   9.479  23.597  10.075 -0.0150  0.0089 -0.0463
  666DOPC   C1B 7809   8.694  22.699   9.851  0.2220 -0.2371  0.3707
  666DOPC   D2B 7810   8.284  22.609  10.001  0.0267  0.0410  0.0782
  666DOPC   C3B 7811   8.277  22.384  10.387 -0.0795  0.1170 -0.1353
  666DOPC   C4B 7812   8.418  22.308  10.834 -0.0599  0.1996  0.0372
  667DOPC   NC3 7813   9.631  25.030   9.149  0.1499  0.0148  0.0693
  667DOPC   PO4 7814   9.545  24.755   8.840  0.2582  0.1589  0.0170
  667DOPC   GL1 7815   9.644  24.571   9.212  0.0961 -0.0479  0.2458
  667DOPC   GL2 7816   9.436  24.378   9.227 -0.1570  0.2311 -0.0108
  667DOPC   C1A 7817   9.884  24.378   9.556 -0.0481 -0.1775  0.3697
  667DOPC   D2A 7818   9.816  24.034   9.903  0.0111  0.3767  0.1347
  667DOPC   C3A 7819   9.642  24.084  10.305 -0.1329  0.2156  0.3358
  667DOPC   C4A 7820   9.376  23.708  10.539 -0.0974  0.0554  0.1695
  667DOPC   C1B 7821   9.291  24.407   9.714 -0.1250  0.0161  0.1407
  667DOPC   D2B 7822   9.243  24.077   9.989  0.0434  0.3089 -0.1575
  667DOPC   C3B 7823   9.195  24.150  10.441  0.0787 -0.2790 -0.2633
  667DOPC   C4B 7824   9.022  24.001  10.830 -0.0376  0.1636 -0.4488
  668POSM   NC3 7825   2.847  18.573   9.041  0.1287 -0.1479 -0.1677
  668POSM   PO4 7826   2.762  18.418   9.359  0.1393  0.1219 -0.0222
  668POSM   AM1 7827   2.847  18.364   9.656 -0.1395 -0.1438  0.1116
  668POSM   AM2 7828   2.688  18.321   9.928 -0.0355 -0.0537  0.0034
  668POSM   T1A 7829   3.155  18.161  10.045  0.1923 -0.0101 -0.0357
  668POSM   C2A 7830   3.248  17.875  10.369 -0.1823 -0.0976  0.0736
  668POSM   C3A 7831   3.582  17.972  10.717  0.1939 -0.1980 -0.1041
  668POSM   C1B 7832   2.841  18.540  10.201 -0.0054  0.4116 -0.0761
  668POSM   D2B 7833   2.981  18.616  10.710  0.0811 -0.0053  0.1065
  668POSM   C3B 7834   3.383  18.653  10.924  0.3578  0.0109  0.1476
  668POSM   C4B 7835   3.785  18.934  10.999 -0.0347 -0.1134 -0.0900
  669POSM   NC3 7836  10.143  16.678   8.985 -0.0978  0.2175 -0.2872
  669POSM   PO4 7837  10.039  16.595   9.337  0.0121 -0.0213  0.2642
  669POSM   AM1 7838  10.166  16.538   9.612 -0.0707 -0.3578 -0.0078
  669POSM   AM2 7839  10.200  16.729   9.814 -0.2986  0.0726 -0.0360
  669POSM   T1A 7840  10.562  16.420   9.828  0.2080  0.2494  0.2938
  669POSM   C2A 7841  10.710  16.348  10.224  0.1369  0.0509  0.0808
  669POSM   C3A 7842  10.685  16.131  10.663  0.3607  0.3933 -0.2255
  669POSM   C1B 7843  10.325  16.762  10.143 -0.0815  0.2539  0.2272
  669POSM   D2B 7844  10.332  16.672  10.598  0.0400  0.1058  0.1471
  669POSM   C3B 7845  10.016  16.655  10.913  0.3234 -0.0424  0.0492
  669POSM   C4B 7846   9.570  16.674  10.924  0.0681  0.0968  0.0421
  670DOPS   CNO 7847   9.126  15.742   9.010 -0.0510  0.2582  0.0113
  670DOPS   PO4 7848   9.320  15.652   9.353  0.2795 -0.1545  0.2187
  670DOPS   GL1 7849   9.190  15.361   9.737 -0.1271 -0.2004  0.0426
  670DOPS   GL2 7850   9.024  15.603   9.731  0.0931 -0.0774 -0.2713
  670DOPS   C1A 7851   9.053  15.299  10.171  0.0710 -0.1504  0.2767
  670DOPS   D2A 7852   8.911  15.536  10.588  0.1128 -0.0482  0.2030
  670DOPS   C3A 7853   8.617  15.451  10.920 -0.3651 -0.0831 -0.1269
  670DOPS   C4A 7854   8.426  15.239  11.294  0.1742 -0.0231 -0.0551
  670DOPS   C1B 7855   8.644  15.517  10.053 -0.1668 -0.1511  0.1494
  670DOPS   D2B 7856   8.443  15.353  10.409  0.0448 -0.0627 -0.1093
  670DOPS   C3B 7857   8.552  14.971  10.582  0.1623  0.0236  0.2706
  670DOPS   C4B 7858   8.693  14.711  10.950  0.1801  0.0604  0.0325
  671DOPE   NH3 7859  10.350  21.211   8.946 -0.1260 -0.2308  0.0827
  671DOPE   PO4 7860  10.650  21.196   9.060  0.0930  0.2052 -0.1907
  671DOPE   GL1 7861  10.581  21.197   9.384  0.2581 -0.0480  0.1583
  671DOPE   GL2 7862  10.287  20.990   9.434  0.2429  0.1235  0.0897
  671DOPE   C1A 7863  10.614  21.190   9.851  0.1730 -0.1186  0.2032
  671DOPE   D2A 7864  10.660  21.043  10.276  0.0160 -0.0182  0.1886
  671DOPE   C3A 7865  10.597  20.584  10.460  0.1086 -0.0393 -0.0435
  671DOPE   C4A 7866  10.492  20.172  10.629  0.0328  0.1820  0.1335
  671DOPE   C1B 7867  10.094  21.166   9.867 -0.2877 -0.1242  0.0473
  671DOPE   D2B 7868   9.822  21.293  10.190  0.1050 -0.1890  0.1122
  671DOPE   C3B 7869   9.870  20.886  10.387 -0.1487 -0.1006  0.1599
  671DOPE   C4B 7870   9.765  20.645  10.758 -0.1152  0.0813 -0.0822
  672DOPC   NC3 7871   9.788  16.189   9.448 -0.0750 -0.0225  0.0124
  672DOPC   PO4 7872  10.053  15.917   9.327 -0.0098 -0.0695 -0.1637
  672DOPC   GL1 7873  10.185  16.034   9.696  0.2090  0.1535 -0.1873
  672DOPC   GL2 7874   9.978  15.837   9.826 -0.0149  0.2304  0.1901
  672DOPC   C1A 7875  10.226  16.206  10.127  0.1504 -0.3013  0.1260
  672DOPC   D2A 7876   9.911  16.473  10.408  0.0869  0.0487  0.0420
  672DOPC   C3A 7877   9.961  16.953  10.420 -0.1281 -0.2727  0.2029
  672DOPC   C4A 7878   9.906  17.137  10.069 -0.2636 -0.3390 -0.0640
  672DOPC   C1B 7879   9.772  16.196   9.943  0.1014 -0.1763  0.1337
  672DOPC   D2B 7880   9.745  16.689   9.989  0.1595  0.2019  0.0417
  672DOPC   C3B 7881   9.471  16.837  10.341  0.1814 -0.1069 -0.1192
  672DOPC   C4B 7882   9.029  16.774  10.499  0.0441  0.1882  0.3014
  673DOPC   NC3 7883  10.209  20.412   8.891  0.2855  0.1558 -0.0296
  673DOPC   PO4 7884  10.048  20.708   9.033  0.1900 -0.0062  0.1428
  673DOPC   GL1 7885  10.142  20.504   9.435  0.0548 -0.0947 -0.2219
  673DOPC   GL2 7886   9.874  20.677   9.594  0.0987  0.1108  0.1619
  673DOPC   C1A 7887  10.249  20.253   9.816  0.1133  0.2752  0.1824
  673DOPC   D2A 7888  10.071  19.975  10.148  0.2511  0.2216  0.0529
  673DOPC   C3A 7889   9.928  19.967  10.596 -0.1318 -0.1333 -0.0476
  673DOPC   C4A 7890   9.696  20.198  10.999  0.3809 -0.1118 -0.2991
  673DOPC   C1B 7891   9.654  20.911   9.942 -0.1506  0.3432  0.1577
  673DOPC   D2B 7892   9.428  21.373   9.918  0.3182 -0.1174  0.2219
  673DOPC   C3B 7893   9.390  21.459  10.419  0.1555  0.0615 -0.2344
  673DOPC   C4B 7894   9.697  21.282  10.712  0.0318 -0.1035  0.4887
  674DOPC   NC3 7895   5.733  22.785   9.424 -0.2965  0.0313 -0.0895
  674DOPC   PO4 7896   5.360  22.910   9.451 -0.0476  0.0253 -0.3360
  674DOPC   GL1 7897   5.293  22.712   9.806  0.0369 -0.1005  0.0645
  674DOPC   GL2 7898   5.582  22.760   9.994  0.1496  0.0888 -0.2970
  674DOPC   C1A 7899   5.247  22.297  10.025  0.0306  0.0199 -0.3115
  674DOPC   D2A 7900   5.361  21.908  10.320 -0.2340 -0.0163  0.4123
  674DOPC   C3A 7901   5.096  21.543  10.402 -0.2563  0.3744  0.0883
  674DOPC   C4A 7902   4.686  21.343  10.408 -0.0988 -0.2729  0.0393
  674DOPC   C1B 7903   5.607  22.432  10.337 -0.0401  0.1837  0.3161
  674DOPC   D2B 7904   5.512  22.392  10.750 -0.0507  0.2819 -0.3918
  674DOPC   C3B 7905   5.737  22.496  11.132  0.2312  0.1242 -0.2292
  674DOPC   C4B 7906   5.999  22.234  11.469  0.0145  0.0098 -0.0141
  675DOPE   NH3 7907   6.353  14.113   9.241  0.0030 -0.1067  0.0338
  675DOPE   PO4 7908   6.230  13.815   9.257  0.1753 -0.0549  0.3734
  675DOPE   GL1 7909   6.360  13.765   9.614  0.4039 -0.2294  0.0318
  675DOPE   GL2 7910   6.087  13.749   9.713 -0.1754  0.0258 -0.3889
  675DOPE   C1A 7911   6.509  13.988   9.991  0.1772 -0.2084  0.2658
  675DOPE   D2A 7912   6.228  14.039  10.397  0.5565 -0.0426  0.0861
  675DOPE   C3A 7913   6.327  13.906  10.853  0.2609  0.2427 -0.2173
  675DOPE   C4A 7914   6.500  13.917  11.311  0.0195  0.0037  0.1434
  675DOPE   C1B 7915   5.895  14.090  10.051 -0.1118  0.2799 -0.0689
  675DOPE   D2B 7916   5.678  14.383  10.312 -0.0521  0.4793 -0.2033
  675DOPE   C3B 7917   5.917  14.272  10.688  0.4171  0.0431 -0.0296
  675DOPE   C4B 7918   6.168  14.305  11.114  0.1849  0.0758 -0.4317
  676DOPC   NC3 7919  12.519  15.832   8.285  0.2095 -0.1219 -0.1126
  676DOPC   PO4 7920  12.187  15.961   8.516 -0.0866  0.1484  0.1881
  676DOPC   GL1 7921  12.219  15.656   8.776 -0.2087 -0.1384  0.0016
  676DOPC   GL2 7922  12.466  15.510   8.660  0.1359 -0.0373 -0.0884
  676DOPC   C1A 7923  11.893  15.631   9.118  0.0811  0.1070 -0.1064
  676DOPC   D2A 7924  11.509  15.816   9.292 -0.1441  0.0709  0.1432
  676DOPC   C3A 7925  11.232  16.132   9.446 -0.0866  0.1898 -0.1982
  676DOPC   C4A 7926  11.033  16.520   9.682 -0.0422  0.0393  0.1892
  676DOPC   C1B 7927  12.351  15.402   9.136 -0.0623 -0.0181  0.3039
  676DOPC   D2B 7928  12.212  15.326   9.540  0.1513  0.0688 -0.1242
  676DOPC   C3B 7929  12.314  15.725   9.797  0.0776  0.0344 -0.2620
  676DOPC   C4B 7930  12.430  16.041  10.146  0.0561  0.2432  0.3916
  677POSM   NC3 7931   4.062  17.525   9.058  0.1289  0.0723 -0.1215
  677POSM   PO4 7932   4.442  17.633   9.209  0.3005  0.0693  0.0136
  677POSM   AM1 7933   4.574  17.515   9.488  0.3222  0.1812 -0.2654
  677POSM   AM2 7934   4.602  17.255   9.612  0.0549  0.1128  0.3532
  677POSM   T1A 7935   4.921  17.581   9.838 -0.1383 -0.0356 -0.1610
  677POSM   C2A 7936   5.108  17.744  10.250  0.0260 -0.0722  0.0634
  677POSM   C3A 7937   5.249  17.903  10.712  0.0545  0.0597 -0.5114
  677POSM   C1B 7938   4.511  17.153   9.927 -0.0746  0.2332 -0.0112
  677POSM   D2B 7939   4.482  16.963  10.317  0.0008 -0.2677  0.2266
  677POSM   C3B 7940   4.729  17.063  10.713 -0.0633  0.1648  0.1104
  677POSM   C4B 7941   4.962  17.082  11.139 -0.1160 -0.0119 -0.2160
  678DOPS   CNO 7942   2.849  13.113  10.395 -0.1778  0.1982  0.2455
  678DOPS   PO4 7943   3.078  13.387  10.276  0.1348 -0.0345 -0.0591
  678DOPS   GL1 7944   3.136  13.558  10.655 -0.2643  0.2236 -0.0890
  678DOPS   GL2 7945   2.913  13.415  10.871 -0.2258 -0.0869 -0.3740
  678DOPS   C1A 7946   3.342  13.546  11.062  0.2338  0.1951  0.0786
  678DOPS   D2A 7947   3.461  13.621  11.531  0.1453  0.0140  0.1364
  678DOPS   C3A 7948   3.486  13.248  11.747  0.0489 -0.3824  0.0651
  678DOPS   C4A 7949   3.359  13.189  12.173 -0.1587  0.0915 -0.3868
  678DOPS   C1B 7950   2.792  13.699  11.278  0.1677 -0.1892 -0.0223
  678DOPS   D2B 7951   3.110  13.925  11.578 -0.1820  0.2013  0.1725
  678DOPS   C3B 7952   2.970  14.044  11.993 -0.1414  0.1850 -0.2358
  678DOPS   C4B 7953   3.047  13.965  12.428 -0.2589  0.0936 -0.2015
  679DOPE   NH3 7954   4.743  19.906   9.306 -0.1821  0.1068 -0.1406
  679DOPE   PO4 7955   4.857  19.975   9.599 -0.2052 -0.0911  0.0107
  679DOPE   GL1 7956   5.067  20.113   9.920 -0.0394 -0.0056  0.0831
  679DOPE   GL2 7957   5.066  20.380   9.868 -0.0066 -0.0956 -0.0438
  679DOPE   C1A 7958   5.536  20.131  10.057  0.3175  0.0044 -0.0639
  679DOPE   D2A 7959   5.971  20.257  10.165  0.1018  0.0807 -0.0434
  679DOPE   C3A 7960   6.126  20.032  10.543 -0.1902  0.0010  0.2872
  679DOPE   C4A 7961   6.184  19.734  10.920 -0.3510  0.0737 -0.1051
  679DOPE   C1B 7962   4.950  20.265  10.337 -0.1227 -0.1249 -0.1469
  679DOPE   D2B 7963   5.010  20.192  10.746 -0.1667 -0.0192 -0.4032
  679DOPE   C3B 7964   5.304  20.304  11.079 -0.0363  0.2078 -0.0580
  679DOPE   C4B 7965   5.551  20.492  11.486 -0.1534  0.4595  0.0274
  680POSM   NC3 7966   1.621  17.047  10.578  0.0644  0.1680 -0.1460
  680POSM   PO4 7967   1.832  17.032  10.233  0.2164 -0.1273 -0.1908
  680POSM   AM1 7968   2.011  16.888  10.475 -0.0856  0.1363  0.0183
  680POSM   AM2 7969   2.022  16.712  10.668 -0.0508 -0.0661 -0.0702
  680POSM   T1A 7970   2.468  16.878  10.709  0.1516 -0.2670  0.2056
  680POSM   C2A 7971   2.823  17.185  10.846  0.0265  0.4143 -0.0763
  680POSM   C3A 7972   3.132  17.277  11.175 -0.1894  0.1080  0.0564
  680POSM   C1B 7973   2.086  16.568  10.967  0.2141  0.0110  0.3245
  680POSM   D2B 7974   2.225  16.225  11.212 -0.0069  0.0153 -0.2115
  680POSM   C3B 7975   2.670  16.253  11.307 -0.1078  0.2185 -0.0445
  680POSM   C4B 7976   2.968  16.274  11.068  0.1461  0.1482 -0.0129
  681DOPC   NC3 7977   7.104  15.811   9.173  0.0383  0.1813  0.0757
  681DOPC   PO4 7978   6.917  16.148   9.075  0.0583 -0.2335  0.0103
  681DOPC   GL1 7979   6.968  16.222   9.452 -0.0120 -0.2445 -0.1908
  681DOPC   GL2 7980   7.109  16.442   9.593  0.3154  0.0712 -0.0279
  681DOPC   C1A 7981   6.831  16.155   9.892  0.0186  0.0073 -0.2628
  681DOPC   D2A 7982   6.913  16.251  10.324 -0.0190  0.1544 -0.2798
  681DOPC   C3A 7983   6.637  15.971  10.519  0.0599 -0.0471 -0.1917
  681DOPC   C4A 7984   6.420  15.980  10.957  0.0555 -0.2766 -0.0139
  681DOPC   C1B 7985   7.299  16.392  10.021 -0.0199  0.0640  0.1371
  681DOPC   D2B 7986   7.413  15.967  10.181  0.0297  0.0006 -0.1484
  681DOPC   C3B 7987   7.141  15.852  10.544  0.0739 -0.0527  0.1880
  681DOPC   C4B 7988   6.825  15.543  10.583 -0.0314  0.2255  0.2730
  682DOPS   CNO 7989   3.227  12.676   9.953 -0.1890  0.0092 -0.0415
  682DOPS   PO4 7990   3.512  12.660  10.213 -0.1150  0.1996 -0.0310
  682DOPS   GL1 7991   3.728  12.783  10.540  0.2152 -0.0766 -0.1593
  682DOPS   GL2 7992   3.751  13.037  10.534 -0.0212  0.1709  0.1415
  682DOPS   C1A 7993   3.754  12.732  10.983 -0.4093 -0.0371  0.1209
  682DOPS   D2A 7994   4.038  12.835  11.337 -0.1202 -0.3048  0.0772
  682DOPS   C3A 7995   4.155  12.811  11.769 -0.0832 -0.1938  0.2129
  682DOPS   C4A 7996   4.051  12.716  12.176  0.2476  0.5323 -0.1186
  682DOPS   C1B 7997   3.994  13.153  10.905  0.0584 -0.0559 -0.1589
  682DOPS   D2B 7998   4.377  13.232  11.181 -0.4371 -0.1995  0.2415
  682DOPS   C3B 7999   4.562  12.851  11.323  0.0057 -0.0010 -0.1698
  682DOPS   C4B 8000   4.673  12.380  11.326 -0.2635  0.1865 -0.2404
  683DOPC   NC3 8001   2.499  19.554  10.230 -0.1352  0.1130  0.2089
  683DOPC   PO4 8002   2.139  19.403  10.104 -0.0252  0.1161 -0.0743
  683DOPC   GL1 8003   2.292  19.197  10.401 -0.0057  0.0326 -0.0275
  683DOPC   GL2 8004   2.129  19.345  10.601  0.0058  0.0052 -0.4563
  683DOPC   C1A 8005   2.307  18.812  10.665 -0.2443  0.0503 -0.1919
  683DOPC   D2A 8006   2.440  18.600  11.070 -0.1267 -0.1412  0.0602
  683DOPC   C3A 8007   2.228  18.427  11.454 -0.1781  0.2269  0.3171
  683DOPC   C4A 8008   2.183  18.376  11.900  0.1293 -0.2473  0.0438
  683DOPC   C1B 8009   2.492  19.480  10.768  0.1867  0.0725  0.0958
  683DOPC   D2B 8010   2.962  19.508  10.803 -0.2773  0.1203 -0.2115
  683DOPC   C3B 8011   3.159  19.171  11.042 -0.1977 -0.0666  0.0277
  683DOPC   C4B 8012   3.290  19.012  11.482 -0.2447  0.0345  0.0740
  684DOPC   NC3 8013   4.066  13.722   9.905 -0.0514 -0.0357 -0.2118
  684DOPC   PO4 8014   4.384  13.901   9.742  0.0762  0.2051  0.2026
  684DOPC   GL1 8015   4.522  13.891  10.154  0.2795 -0.2217 -0.3043
  684DOPC   GL2 8016   4.426  13.682  10.318 -0.0402 -0.1452 -0.0269
  684DOPC   C1A 8017   4.850  13.924  10.527 -0.1265  0.2183  0.1348
  684DOPC   D2A 8018   4.728  13.960  10.967  0.1102  0.2146  0.0298
  684DOPC   C3A 8019   4.900  14.358  11.109  0.0536  0.3390 -0.0226
  684DOPC   C4A 8020   5.062  14.796  11.116  0.0734  0.0581  0.1523
  684DOPC   C1B 8021   4.591  13.465  10.749  0.0280 -0.1565  0.0430
  684DOPC   D2B 8022   4.840  13.293  11.158 -0.0280  0.1810  0.1553
  684DOPC   C3B 8023   5.204  13.472  11.321  0.0165  0.0862 -0.1825
  684DOPC   C4B 8024   5.589  13.653  11.358  0.0495 -0.2177  0.0300
  685DOPE   NH3 8025   6.599  13.290   9.354 -0.0500 -0.0624 -0.1463
  685DOPE   PO4 8026   6.865  13.405   9.519  0.2008  0.1257 -0.2069
  685DOPE   GL1 8027   6.899  13.319  10.001  0.3251  0.1168 -0.0994
  685DOPE   GL2 8028   6.682  13.483  10.023 -0.0642 -0.2578 -0.0195
  685DOPE   C1A 8029   7.243  13.382  10.329  0.2210  0.1408 -0.2578
  685DOPE   D2A 8030   7.602  13.349  10.699  0.1194  0.0996 -0.0470
  685DOPE   C3A 8031   7.920  13.677  10.782 -0.3052 -0.2143  0.0982
  685DOPE   C4A 8032   8.294  13.938  10.809 -0.1806 -0.1884  0.0023
  685DOPE   C1B 8033   6.576  13.645  10.511 -0.0880  0.2837  0.3577
  685DOPE   D2B 8034   6.596  13.493  10.966 -0.0318 -0.0538  0.1579
  685DOPE   C3B 8035   6.892  13.625  11.300 -0.1073  0.0098 -0.2363
  685DOPE   C4B 8036   7.277  13.420  11.514  0.5080 -0.4638 -0.1305
  686DOPC   NC3 8037   0.084  14.610  11.433 -0.1615 -0.3130  0.0619
  686DOPC   PO4 8038  -0.078  14.380  11.138  0.2099  0.0250  0.2110
  686DOPC   GL1 8039   0.042  14.134  11.480 -0.2150  0.3235  0.1610
  686DOPC   GL2 8040   0.388  14.156  11.629 -0.0208  0.0786  0.0294
  686DOPC   C1A 8041   0.064  13.973  11.944 -0.1598  0.0876  0.2081
  686DOPC   D2A 8042   0.202  13.686  12.305 -0.1535  0.0158  0.5123
  686DOPC   C3A 8043   0.259  13.284  12.513 -0.0006 -0.0939  0.1493
  686DOPC   C4A 8044   0.011  13.068  12.829  0.0245  0.0460  0.1915
  686DOPC   C1B 8045   0.696  14.326  11.972  0.0124 -0.1703 -0.2181
  686DOPC   D2B 8046   1.046  14.221  12.284  0.0860  0.2104  0.1905
  686DOPC   C3B 8047   1.183  14.612  12.546  0.1900 -0.0293  0.1222
  686DOPC   C4B 8048   1.002  14.814  12.927 -0.2221  0.1595 -0.3551
  687DOPC   NC3 8049  13.661  23.669   9.573 -0.3715  0.0387  0.2921
  687DOPC   PO4 8050  13.300  23.764   9.363  0.0217 -0.2644  0.2332
  687DOPC   GL1 8051  13.135  23.522   9.661 -0.1156 -0.2721  0.3329
  687DOPC   GL2 8052  13.324  23.433   9.878 -0.1429 -0.0362 -0.1082
  687DOPC   C1A 8053  12.776  23.274   9.763  0.1793 -0.1013 -0.0618
  687DOPC   D2A 8054  12.470  23.152  10.094 -0.0127  0.2210  0.0439
  687DOPC   C3A 8055  12.402  22.985  10.548 -0.0922  0.2548 -0.0148
  687DOPC   C4A 8056  12.443  22.722  10.972  0.0838 -0.0678  0.0839
  687DOPC   C1B 8057  13.080  23.084  10.102 -0.0207 -0.5295 -0.0760
  687DOPC   D2B 8058  13.066  22.660  10.289  0.1261  0.1186  0.2638
  687DOPC   C3B 8059  12.713  22.593  10.556 -0.1788 -0.0924  0.1573
  687DOPC   C4B 8060  12.695  22.259  10.907  0.0878 -0.1186 -0.0384
  688POSM   NC3 8061   4.816  22.217   9.418 -0.1367  0.2185  0.1121
  688POSM   PO4 8062   4.879  21.819   9.402  0.1192  0.1161  0.3198
  688POSM   AM1 8063   4.933  21.564   9.587  0.1656 -0.0801 -0.2640
  688POSM   AM2 8064   4.757  21.421   9.784 -0.0207 -0.2875  0.3239
  688POSM   T1A 8065   5.239  21.416   9.978 -0.0082 -0.1982 -0.0957
  688POSM   C2A 8066   5.660  21.522  10.239 -0.0330  0.0992 -0.0095
  688POSM   C3A 8067   5.903  21.391  10.610 -0.0193 -0.0795  0.4413
  688POSM   C1B 8068   4.806  21.143   9.995  0.0428  0.0476  0.1489
  688POSM   D2B 8069   5.047  21.002  10.369  0.1880 -0.0920  0.1756
  688POSM   C3B 8070   4.931  21.097  10.795 -0.3082  0.1076 -0.2926
  688POSM   C4B 8071   4.733  21.171  11.209  0.2284 -0.0015 -0.2113
  689DOPE   NH3 8072   3.144  16.808   9.904 -0.4296 -0.0668  0.0968
  689DOPE   PO4 8073   3.438  16.929   9.782  0.1981 -0.0954  0.0897
  689DOPE   GL1 8074   3.633  16.694  10.041 -0.0441  0.1661 -0.5586
  689DOPE   GL2 8075   3.402  16.708  10.338 -0.1934  0.1117  0.0046
  689DOPE   C1A 8076   3.973  16.750  10.356 -0.1541  0.2815 -0.0239
  689DOPE   D2A 8077   4.273  16.646  10.712 -0.1601  0.0058  0.0510
  689DOPE   C3A 8078   4.442  16.950  11.077  0.2147  0.4429 -0.0688
  689DOPE   C4A 8079   4.123  16.990  11.458 -0.0157  0.1315 -0.1894
  689DOPE   C1B 8080   3.394  16.527  10.736  0.3173 -0.1830 -0.0882
  689DOPE   D2B 8081   3.405  16.472  11.208 -0.0479  0.1578  0.0882
  689DOPE   C3B 8082   3.647  16.222  11.560  0.3435 -0.1317  0.2118
  689DOPE   C4B 8083   3.943  15.869  11.480 -0.1824 -0.2404  0.3321
  690DOPS   CNO 8084   2.484  16.287   9.837  0.2712  0.5110 -0.3030
  690DOPS   PO4 8085   2.709  16.524  10.032  0.0442 -0.0788  0.0845
  690DOPS   GL1 8086   2.671  16.703  10.379  0.1577 -0.5510  0.0770
  690DOPS   GL2 8087   2.761  16.988  10.287 -0.1121 -0.0536 -0.0267
  690DOPS   C1A 8088   2.909  16.679  10.764 -0.1421 -0.0563  0.0920
  690DOPS   D2A 8089   3.102  16.808  11.072  0.2512  0.2588 -0.1252
  690DOPS   C3A 8090   2.835  16.853  11.439  0.0251  0.0335  0.1655
  690DOPS   C4A 8091   2.623  16.935  11.871  0.0748 -0.4893 -0.0638
  690DOPS   C1B 8092   3.175  17.120  10.461  0.3015 -0.2096  0.0616
  690DOPS   D2B 8093   3.383  17.436  10.710  0.2110  0.0980 -0.2325
  690DOPS   C3B 8094   3.389  17.710  11.090 -0.2038  0.0220  0.2376
  690DOPS   C4B 8095   3.281  18.074  11.232 -0.0221 -0.0914  0.1311
  691DOPC   NC3 8096   3.505  22.889  10.060  0.0517  0.1050  0.4268
  691DOPC   PO4 8097   3.849  22.931   9.944 -0.0590  0.1964  0.1892
  691DOPC   GL1 8098   3.918  22.726  10.315 -0.0630 -0.2467 -0.1119
  691DOPC   GL2 8099   3.797  22.958  10.470  0.2889 -0.0581  0.0410
  691DOPC   C1A 8100   4.120  22.712  10.766 -0.0563 -0.0382  0.2255
  691DOPC   D2A 8101   4.423  22.891  11.045  0.2768  0.0137 -0.3121
  691DOPC   C3A 8102   4.827  22.761  10.905  0.1009  0.1843  0.0701
  691DOPC   C4A 8103   5.107  22.425  11.072 -0.0174  0.2311  0.1513
  691DOPC   C1B 8104   4.087  23.235  10.749 -0.1388  0.2840 -0.0074
  691DOPC   D2B 8105   4.054  23.387  11.171  0.1318 -0.5560  0.2197
  691DOPC   C3B 8106   4.291  23.179  11.511  0.0587 -0.0470 -0.0585
  691DOPC   C4B 8107   4.138  22.958  11.896  0.0993 -0.2237  0.5353
  692DOPE   NH3 8108   1.464  17.260  10.152 -0.0693  0.0671 -0.2629
  692DOPE   PO4 8109   1.189  17.312  10.348 -0.0101 -0.0903 -0.0106
  692DOPE   GL1 8110   1.238  17.257  10.691 -0.0888  0.3088  0.2801
  692DOPE   GL2 8111   1.190  17.013  10.887 -0.1749 -0.0050 -0.3087
  692DOPE   C1A 8112   1.520  17.329  11.055  0.2334 -0.0863  0.1794
  692DOPE   D2A 8113   1.585  17.338  11.510 -0.4582  0.1256 -0.0393
  692DOPE   C3A 8114   1.766  17.128  11.898  0.0904  0.0917  0.1470
  692DOPE   C4A 8115   1.792  16.938  12.285 -0.1116  0.0717  0.1671
  692DOPE   C1B 8116   1.185  17.000  11.349  0.3131  0.1504 -0.0879
  692DOPE   D2B 8117   1.437  16.798  11.676  0.0096  0.1088 -0.1540
  692DOPE   C3B 8118   1.450  16.602  12.105  0.0807 -0.4626  0.3876
  692DOPE   C4B 8119   1.517  16.737  12.583  0.0768 -0.2833  0.1699
  693DOPE   NH3 8120   8.074  15.935   9.399  0.1773  0.1331  0.2981
  693DOPE   PO4 8121   8.382  16.065   9.327 -0.2881  0.0568  0.3170
  693DOPE   GL1 8122   8.507  16.141   9.679  0.2429  0.0620 -0.1890
  693DOPE   GL2 8123   8.390  16.426   9.763  0.0857 -0.0514  0.1000
  693DOPE   C1A 8124   8.863  16.041   9.916  0.0338  0.1711 -0.1470
  693DOPE   D2A 8125   9.109  15.855  10.238 -0.1335  0.0230 -0.1145
  693DOPE   C3A 8126   9.559  15.929  10.402 -0.1476  0.1277  0.1290
  693DOPE   C4A 8127   9.995  15.870  10.426 -0.2156 -0.0002  0.1477
  693DOPE   C1B 8128   8.367  16.362  10.186 -0.1615  0.0052 -0.0016
  693DOPE   D2B 8129   8.318  16.303  10.588  0.0534 -0.1461  0.0434
  693DOPE   C3B 8130   8.243  16.460  11.042 -0.0644 -0.0245 -0.3554
  693DOPE   C4B 8131   8.429  16.775  11.301 -0.4260 -0.0504 -0.0386
  694POSM   NC3 8132  11.643  22.326   8.663 -0.3311 -0.1116  0.1642
  694POSM   PO4 8133  11.999  22.511   8.632  0.2276  0.0266  0.3397
  694POSM   AM1 8134  11.967  22.568   8.942  0.0692  0.0860  0.3992
  694POSM   AM2 8135  11.914  22.385   9.168  0.1378 -0.0639  0.0440
  694POSM   T1A 8136  12.094  22.777   9.426  0.2084  0.3110  0.0270
  694POSM   C2A 8137  12.322  23.162   9.601  0.0348  0.3252  0.0377
  694POSM   C3A 8138  12.256  23.628   9.555  0.2260  0.0847  0.0683
  694POSM   C1B 8139  11.876  22.300   9.517 -0.0658  0.1272 -0.3363
  694POSM   D2B 8140  11.785  22.388   9.973  0.0604 -0.0712 -0.0406
  694POSM   C3B 8141  11.551  22.152  10.282 -0.0168  0.0981 -0.0265
  694POSM   C4B 8142  11.513  22.043  10.755 -0.1630 -0.1142  0.2845
  695POSM   NC3 8143  12.642  21.878   8.672  0.1358 -0.1035  0.0759
  695POSM   PO4 8144  13.057  21.879   8.744 -0.2774 -0.2536 -0.0022
  695POSM   AM1 8145  13.077  21.804   9.087 -0.3005 -0.2601  0.1339
  695POSM   AM2 8146  13.008  21.572   9.312 -0.2546  0.0471  0.0252
  695POSM   T1A 8147  13.352  21.948   9.501 -0.0044 -0.2368 -0.1464
  695POSM   C2A 8148  13.556  21.849   9.904 -0.0638  0.0841 -0.1554
  695POSM   C3A 8149  13.516  21.572  10.283 -0.1449 -0.0211 -0.0130
  695POSM   C1B 8150  13.224  21.494   9.576 -0.1347  0.0842 -0.0991
  695POSM   D2B 8151  13.395  21.183   9.893 -0.1370 -0.0298 -0.1611
  695POSM   C3B 8152  13.568  21.050  10.276  0.0161 -0.1507 -0.1102
  695POSM   C4B 8153  13.856  20.796  10.563 -0.4011 -0.1526  0.0276
  696DOPC   NC3 8154   2.549  18.886   9.741 -0.0888 -0.0004  0.3030
  696DOPC   PO4 8155   2.678  19.246   9.919 -0.0057 -0.1794  0.0655
  696DOPC   GL1 8156   2.810  18.985  10.192 -0.1471 -0.2539 -0.1485
  696DOPC   GL2 8157   2.735  19.114  10.478  0.0343  0.0399 -0.0431
  696DOPC   C1A 8158   3.238  18.818  10.334 -0.0419 -0.0024 -0.1318
  696DOPC   D2A 8159   3.706  18.825  10.411  0.0789  0.0257 -0.1671
  696DOPC   C3A 8160   3.980  18.578  10.683 -0.0626 -0.1898  0.0551
  696DOPC   C4A 8161   3.826  18.390  10.998  0.1202 -0.0129 -0.2504
  696DOPC   C1B 8162   2.640  19.028  10.903  0.2826  0.2154 -0.0230
  696DOPC   D2B 8163   2.240  19.115  11.137 -0.2049  0.1090  0.1844
  696DOPC   C3B 8164   2.027  18.882  11.483  0.1027  0.4319 -0.0581
  696DOPC   C4B 8165   1.954  18.966  11.905  0.3030  0.3820  0.0509
  697DOPC   NC3 8166   3.051  21.866  10.091 -0.1616 -0.2930 -0.0731
  697DOPC   PO4 8167   2.777  22.206  10.139  0.1088  0.1552  0.2408
  697DOPC   GL1 8168   2.775  22.129  10.498 -0.2152  0.0457  0.0331
  697DOPC   GL2 8169   3.042  21.950  10.551 -0.0953 -0.1159  0.1278
  697DOPC   C1A 8170   2.937  22.369  10.830  0.1617 -0.0858  0.0048
  697DOPC   D2A 8171   3.246  22.356  11.104  0.2265 -0.1178 -0.1306
  697DOPC   C3A 8172   3.550  22.270  11.435  0.1070 -0.0827 -0.4855
  697DOPC   C4A 8173   4.001  22.296  11.579  0.1322  0.1789 -0.3100
  697DOPC   C1B 8174   2.883  21.844  10.976 -0.2071 -0.0955 -0.3267
  697DOPC   D2B 8175   3.226  21.905  11.285 -0.1383  0.0903 -0.0198
  697DOPC   C3B 8176   3.294  21.467  11.531  0.2552  0.0646  0.2035
  697DOPC   C4B 8177   3.702  21.329  11.692 -0.2093  0.2571  0.3436
  698DOPC   NC3 8178  10.201  22.030   9.122 -0.5667 -0.1087 -0.4553
  698DOPC   PO4 8179   9.875  21.976   8.948 -0.0356  0.2437  0.0359
  698DOPC   GL1 8180   9.654  21.969   9.296 -0.1365  0.4817  0.2223
  698DOPC   GL2 8181   9.880  21.961   9.511  0.0423  0.1978 -0.1495
  698DOPC   C1A 8182   9.403  21.828   9.708 -0.0082 -0.0305  0.3329
  698DOPC   D2A 8183   9.201  21.931  10.165  0.0821  0.3001  0.1370
  698DOPC   C3A 8184   9.453  22.172  10.465  0.1051  0.2450 -0.4333
  698DOPC   C4A 8185   9.369  22.537  10.746  0.1237 -0.0261 -0.3178
  698DOPC   C1B 8186   9.772  22.272   9.852  0.0363 -0.0469  0.0755
  698DOPC   D2B 8187   9.605  22.585  10.150  0.0656  0.2789 -0.2623
  698DOPC   C3B 8188   9.897  22.628  10.480  0.1109 -0.1689 -0.3052
  698DOPC   C4B 8189  10.316  22.616  10.499  0.0161 -0.0387 -0.2780
  699POSM   NC3 8190   5.796  14.938   9.576  0.0259 -0.1588 -0.1056
  699POSM   PO4 8191   5.782  15.332   9.516 -0.1606  0.0363  0.1081
  699POSM   AM1 8192   5.910  15.322   9.796  0.2893  0.1918 -0.3011
  699POSM   AM2 8193   6.111  15.472   9.924  0.2731  0.0935 -0.4439
  699POSM   T1A 8194   6.082  15.058  10.198  0.1356  0.1390  0.0177
  699POSM   C2A 8195   6.051  14.838  10.663  0.0551  0.0442  0.2125
  699POSM   C3A 8196   6.026  14.785  11.116  0.0436 -0.1815  0.0791
  699POSM   C1B 8197   5.941  15.680  10.159  0.0663  0.1339  0.3437
  699POSM   D2B 8198   5.656  15.792  10.362  0.2722  0.4774 -0.0322
  699POSM   C3B 8199   5.230  15.631  10.254 -0.1457 -0.0995  0.0710
  699POSM   C4B 8200   4.837  15.395  10.239  0.0074 -0.1468 -0.2036
  700DOPC   NC3 8201  34.322  22.925  10.885 -0.0388 -0.2310  0.1604
  700DOPC   PO4 8202  34.368  22.915  10.529  0.1802 -0.0982 -0.2170
  700DOPC   GL1 8203  34.713  22.658  10.899 -0.3003  0.1401 -0.0479
  700DOPC   GL2 8204  34.995  22.886  10.997 -0.2513  0.3183 -0.0188
  700DOPC   C1A 8205  34.892  22.403  11.267 -0.1234 -0.0434 -0.0070
  700DOPC   D2A 8206  34.941  22.161  11.658  0.0614  0.4217 -0.3977
  700DOPC   C3A 8207  35.255  21.995  11.979 -0.0742  0.3271 -0.1264
  700DOPC   C4A 8208  35.430  21.941  12.384 -0.0369  0.3148 -0.1196
  700DOPC   C1B 8209  34.916  22.829  11.446 -0.0156  0.1773  0.2880
  700DOPC   D2B 8210  34.683  22.586  11.704  0.0475 -0.0345 -0.2333
  700DOPC   C3B 8211  34.926  22.480  12.108  0.1664 -0.0011 -0.0183
  700DOPC   C4B 8212  34.954  22.165  12.445  0.0460  0.2958 -0.1087
  701POSM   NC3 8213  11.863  11.987   8.735  0.1390 -0.0258  0.1626
  701POSM   PO4 8214  12.026  12.246   8.972 -0.1078 -0.3150  0.0645
  701POSM   AM1 8215  12.031  12.238   9.282  0.0640  0.2809  0.0324
  701POSM   AM2 8216  11.981  12.171   9.569 -0.3461 -0.0510  0.1786
  701POSM   T1A 8217  12.070  12.637   9.618  0.2306  0.1564  0.1069
  701POSM   C2A 8218  11.971  13.025   9.846 -0.1868 -0.0986  0.0696
  701POSM   C3A 8219  11.608  13.094  10.178 -0.0118  0.1214  0.2774
  701POSM   C1B 8220  12.014  12.214   9.889 -0.2403 -0.1478  0.0455
  701POSM   D2B 8221  12.103  12.473  10.223 -0.2133 -0.4447 -0.1841
  701POSM   C3B 8222  11.916  12.839  10.468  0.0512  0.1808 -0.2881
  701POSM   C4B 8223  11.595  13.081  10.673  0.0016  0.2792  0.0324
  702DOPS   CNO 8224  10.255  15.566   9.001  0.0979  0.2021  0.0781
  702DOPS   PO4 8225  10.316  15.216   9.218  0.2034  0.1108 -0.4400
  702DOPS   GL1 8226  10.579  15.234   9.647 -0.3048  0.3306 -0.3563
  702DOPS   GL2 8227  10.802  15.220   9.568 -0.0228  0.2301  0.1728
  702DOPS   C1A 8228  10.875  14.917   9.890  0.0571 -0.0674 -0.1274
  702DOPS   D2A 8229  10.976  14.551  10.147 -0.0278  0.2579  0.2271
  702DOPS   C3A 8230  10.757  14.305  10.534 -0.1547 -0.0014  0.0373
  702DOPS   C4A 8231  10.507  14.111  10.898  0.0792 -0.0229  0.0495
  702DOPS   C1B 8232  10.680  15.408  10.013  0.1575  0.1791 -0.1178
  702DOPS   D2B 8233  10.424  15.609  10.320  0.0186  0.0772  0.1242
  702DOPS   C3B 8234  10.158  15.510  10.704 -0.1437 -0.1114 -0.0900
  702DOPS   C4B 8235   9.832  15.237  10.931  0.2327 -0.0343 -0.1286
  703DOPC   NC3 8236   6.675  18.983   8.963  0.0695  0.0877 -0.1164
  703DOPC   PO4 8237   6.899  19.261   8.808 -0.0403  0.1993 -0.0862
  703DOPC   GL1 8238   7.205  19.301   9.142 -0.1229  0.1884  0.0434
  703DOPC   GL2 8239   7.197  19.067   9.209  0.0257  0.0429  0.0055
  703DOPC   C1A 8240   7.519  19.412   9.514  0.1205 -0.1727 -0.0210
  703DOPC   D2A 8241   7.358  19.708   9.787 -0.1655  0.3247  0.0355
  703DOPC   C3A 8242   7.636  19.771  10.183 -0.1255 -0.4008 -0.0687
  703DOPC   C4A 8243   7.776  19.460  10.490 -0.0858  0.1972 -0.1476
  703DOPC   C1B 8244   6.800  18.951   9.488 -0.2876  0.0768 -0.2514
  703DOPC   D2B 8245   6.689  19.128   9.915  0.3114 -0.3561  0.1920
  703DOPC   C3B 8246   6.541  19.581   9.974 -0.2112 -0.1710 -0.2023
  703DOPC   C4B 8247   6.387  20.005  10.020  0.1044 -0.0712  0.1831
  704DOPS   CNO 8248  33.881  23.058  10.676 -0.0248 -0.3285  0.2146
  704DOPS   PO4 8249  34.062  23.329  10.547 -0.2972 -0.1742  0.0622
  704DOPS   GL1 8250  34.236  23.378  10.977  0.0782 -0.2675  0.1655
  704DOPS   GL2 8251  34.028  23.294  11.168  0.0079  0.3434  0.3327
  704DOPS   C1A 8252  34.538  23.164  11.257  0.1070 -0.1552 -0.3195
  704DOPS   D2A 8253  34.543  23.048  11.737 -0.2516 -0.3889 -0.4296
  704DOPS   C3A 8254  34.870  23.001  12.087  0.3451  0.2637 -0.0106
  704DOPS   C4A 8255  35.052  22.792  12.475  0.2311  0.0010  0.1064
  704DOPS   C1B 8256  33.625  23.194  11.261  0.0508  0.2732  0.1751
  704DOPS   D2B 8257  33.247  22.938  11.420 -0.2085 -0.0434 -0.0628
  704DOPS   C3B 8258  33.397  22.551  11.624  0.3246  0.1047  0.2219
  704DOPS   C4B 8259  33.244  22.324  12.043  0.1669  0.2619 -0.1366
  705DOPE   NH3 8260   6.325  20.318   9.154 -0.1528  0.1012 -0.2272
  705DOPE   PO4 8261   6.149  20.464   9.386 -0.0571 -0.3117  0.0479
  705DOPE   GL1 8262   6.557  20.404   9.567 -0.2475  0.0023  0.0395
  705DOPE   GL2 8263   6.806  20.650   9.545  0.0842 -0.2335 -0.2608
  705DOPE   C1A 8264   6.799  20.381   9.990  0.2174  0.0371  0.0293
  705DOPE   D2A 8265   6.888  20.269  10.455 -0.1802 -0.2189  0.1501
  705DOPE   C3A 8266   6.575  20.094  10.805 -0.1963  0.2711 -0.3536
  705DOPE   C4A 8267   6.467  20.065  11.270 -0.3103  0.1564 -0.2578
  705DOPE   C1B 8268   7.169  20.723   9.775 -0.0849  0.1004 -0.1220
  705DOPE   D2B 8269   7.191  20.644  10.228  0.0558 -0.0247 -0.1694
  705DOPE   C3B 8270   7.420  20.246  10.336  0.0007  0.1256  0.0485
  705DOPE   C4B 8271   7.631  19.909  10.660 -0.1365  0.2086  0.0134
  706DOPE   NH3 8272  10.584  13.556   8.974 -0.1641  0.0856  0.0554
  706DOPE   PO4 8273  10.731  13.306   9.096  0.0026 -0.0776 -0.1719
  706DOPE   GL1 8274  10.383  13.390   9.373 -0.0178  0.0313 -0.2064
  706DOPE   GL2 8275  10.466  13.225   9.602  0.0007 -0.0933  0.0440
  706DOPE   C1A 8276  10.253  13.686   9.706  0.0760 -0.2508 -0.0800
  706DOPE   D2A 8277  10.090  13.654  10.152 -0.1399 -0.0993  0.1615
  706DOPE   C3A 8278   9.931  13.512  10.542  0.1604 -0.2291  0.0201
  706DOPE   C4A 8279   9.781  13.252  10.873 -0.1363  0.0701 -0.0272
  706DOPE   C1B 8280  10.139  13.129   9.911  0.3147  0.2206 -0.2010
  706DOPE   D2B 8281   9.949  13.091  10.305 -0.0066  0.0682  0.1156
  706DOPE   C3B 8282   9.942  12.846  10.677 -0.2374 -0.2847 -0.2522
  706DOPE   C4B 8283   9.953  12.602  11.104  0.0644  0.0327 -0.0638
  707DOPE   NH3 8284   8.914  17.322   9.355 -0.0481  0.0151 -0.0596
  707DOPE   PO4 8285   8.985  17.540   9.105 -0.2057 -0.0309 -0.4767
  707DOPE   GL1 8286   8.831  17.814   9.380  0.0997  0.2834  0.2753
  707DOPE   GL2 8287   8.573  17.733   9.481 -0.2462  0.1989  0.0268
  707DOPE   C1A 8288   8.972  18.141   9.608 -0.0083  0.1142  0.1298
  707DOPE   D2A 8289   8.949  18.198  10.081  0.2792 -0.0947 -0.0641
  707DOPE   C3A 8290   9.152  18.631  10.163  0.1394 -0.2560 -0.2687
  707DOPE   C4A 8291   9.606  18.740  10.308  0.1467 -0.1385 -0.0836
  707DOPE   C1B 8292   8.893  17.586   9.846  0.1697 -0.2166  0.4983
  707DOPE   D2B 8293   9.182  17.735  10.192  0.1998  0.1944 -0.2283
  707DOPE   C3B 8294   9.258  18.080  10.444  0.0074 -0.0863 -0.0449
  707DOPE   C4B 8295   9.063  18.438  10.619  0.2853  0.0894 -0.0914
  708DOPC   NC3 8296   2.167  14.989  11.103  0.1515  0.0165 -0.2009
  708DOPC   PO4 8297   2.059  15.115  10.726 -0.0635  0.0724 -0.0786
  708DOPC   GL1 8298   2.383  15.358  10.742  0.1345 -0.0026 -0.0579
  708DOPC   GL2 8299   2.330  15.434  11.074 -0.2603  0.0431 -0.0634
  708DOPC   C1A 8300   2.801  15.338  10.879 -0.1165 -0.1033  0.0414
  708DOPC   D2A 8301   2.904  15.268  11.262  0.0506  0.3658 -0.1474
  708DOPC   C3A 8302   3.147  15.510  11.592  0.0194  0.2113  0.0751
  708DOPC   C4A 8303   3.219  15.581  12.042 -0.2818 -0.0183 -0.0993
  708DOPC   C1B 8304   2.430  15.201  11.501 -0.2148 -0.4878 -0.1695
  708DOPC   D2B 8305   2.414  15.082  11.902  0.1467  0.2750 -0.0122
  708DOPC   C3B 8306   2.578  15.217  12.289  0.0511 -0.2676 -0.1311
  708DOPC   C4B 8307   2.591  15.080  12.722 -0.0744 -0.0959  0.0467
  709DOPS   CNO 8308  10.435  19.591   8.381 -0.1721  0.0633  0.2015
  709DOPS   PO4 8309  10.215  19.725   8.662 -0.1351  0.1155  0.1038
  709DOPS   GL1 8310  10.331  19.822   9.061  0.1261  0.0663 -0.5771
  709DOPS   GL2 8311  10.375  19.536   9.122  0.0453 -0.0911 -0.0370
  709DOPS   C1A 8312  10.493  20.213   9.302  0.1689 -0.0764 -0.0697
  709DOPS   D2A 8313  10.813  20.183   9.618 -0.1586 -0.0362 -0.1490
  709DOPS   C3A 8314  10.777  19.868   9.864 -0.2850  0.0887  0.2974
  709DOPS   C4A 8315  10.573  19.781  10.294  0.1867 -0.2146 -0.2584
  709DOPS   C1B 8316  10.130  19.324   9.432 -0.0068  0.1629 -0.0344
  709DOPS   D2B 8317   9.736  19.083   9.550 -0.0550  0.0050  0.0670
  709DOPS   C3B 8318   9.766  18.631   9.828 -0.1316  0.0032 -0.5860
  709DOPS   C4B 8319   9.494  18.296  10.054 -0.0299 -0.0806 -0.1235
  710DOPS   CNO 8320   9.127  23.543   8.819 -0.3484 -0.1796 -0.0825
  710DOPS   PO4 8321   8.801  23.348   8.713  0.1869 -0.1121  0.3599
  710DOPS   GL1 8322   8.656  23.311   9.167 -0.1044 -0.3672 -0.1701
  710DOPS   GL2 8323   8.915  23.247   9.354 -0.1254  0.0398  0.2113
  710DOPS   C1A 8324   8.590  23.558   9.549 -0.2736 -0.0208 -0.1037
  710DOPS   D2A 8325   8.313  23.578   9.906  0.0357 -0.1725 -0.2914
  710DOPS   C3A 8326   8.368  23.122   9.979  0.3174 -0.0291 -0.3966
  710DOPS   C4A 8327   8.334  22.889  10.405  0.3927 -0.0294 -0.0401
  710DOPS   C1B 8328   8.852  23.217   9.818  0.0822 -0.2683 -0.2380
  710DOPS   D2B 8329   8.828  23.064  10.300 -0.0930  0.2323 -0.3404
  710DOPS   C3B 8330   8.629  23.155  10.699  0.0782  0.0575 -0.1792
  710DOPS   C4B 8331   8.577  23.246  11.178 -0.0992 -0.2957 -0.0605
  711DOPC   NC3 8332   5.831  21.984   8.697  0.2229  0.4191  0.2472
  711DOPC   PO4 8333   5.940  21.633   8.800 -0.2689  0.0084  0.1573
  711DOPC   GL1 8334   6.066  21.868   9.121 -0.3216  0.2043 -0.4063
  711DOPC   GL2 8335   6.375  21.736   9.197  0.1710  0.2161 -0.1242
  711DOPC   C1A 8336   5.763  22.049   9.455 -0.1747  0.4922 -0.1666
  711DOPC   D2A 8337   5.737  21.861   9.879  0.1333 -0.2330  0.2132
  711DOPC   C3A 8338   6.103  21.616  10.031 -0.1974 -0.0941 -0.2339
  711DOPC   C4A 8339   6.491  21.367  10.138 -0.1558  0.1824 -0.0714
  711DOPC   C1B 8340   6.251  22.099   9.529 -0.2396  0.0756  0.3237
  711DOPC   D2B 8341   6.279  22.373   9.911 -0.3838 -0.1577 -0.0842
  711DOPC   C3B 8342   5.983  22.179  10.204 -0.1063  0.2070  0.1643
  711DOPC   C4B 8343   5.776  21.898  10.523 -0.2451  0.1312  0.1040
  712DOPS   CNO 8344   6.968  14.240   9.192  0.2459  0.1122  0.2832
  712DOPS   PO4 8345   6.700  14.465   9.347  0.2253 -0.3319 -0.1432
  712DOPS   GL1 8346   6.711  14.597   9.706 -0.2723  0.2450  0.0377
  712DOPS   GL2 8347   6.900  14.415   9.792  0.1381 -0.0373  0.0031
  712DOPS   C1A 8348   6.576  14.462  10.110  0.1280  0.1260 -0.0634
  712DOPS   D2A 8349   6.344  14.507  10.512  0.0194 -0.0149  0.2816
  712DOPS   C3A 8350   6.654  14.527  10.881 -0.2197  0.0399 -0.2800
  712DOPS   C4A 8351   6.732  14.387  11.361  0.2541  0.0801 -0.1087
  712DOPS   C1B 8352   7.267  14.671  10.000  0.3926 -0.0142  0.0959
  712DOPS   D2B 8353   7.741  14.681  10.150 -0.1999  0.1657 -0.2553
  712DOPS   C3B 8354   7.789  15.138   9.993  0.0828 -0.1770 -0.3782
  712DOPS   C4B 8355   7.758  15.394   9.616 -0.0152  0.0855  0.1234
  713DOPS   CNO 8356   3.802  17.903   8.923  0.0102  0.0996 -0.5843
  713DOPS   PO4 8357   3.637  17.783   9.240  0.1355 -0.2548  0.0228
  713DOPS   GL1 8358   3.997  17.706   9.531 -0.4676 -0.2847 -0.3411
  713DOPS   GL2 8359   4.128  17.433   9.632 -0.1355 -0.2858  0.1116
  713DOPS   C1A 8360   4.043  18.061   9.816 -0.2138  0.1866 -0.0122
  713DOPS   D2A 8361   4.103  18.534  10.011 -0.1442 -0.2182 -0.2592
  713DOPS   C3A 8362   4.388  18.439  10.372 -0.0297 -0.1810 -0.1964
  713DOPS   C4A 8363   4.612  18.640  10.683  0.2282 -0.2824 -0.3358
  713DOPS   C1B 8364   4.020  17.555  10.011 -0.1120 -0.0581 -0.0451
  713DOPS   D2B 8365   3.756  17.759  10.351 -0.0521 -0.1616 -0.1542
  713DOPS   C3B 8366   3.882  17.507  10.703  0.2588 -0.0346 -0.0025
  713DOPS   C4B 8367   4.244  17.186  10.701  0.1616 -0.1072 -0.0894
  714DOPC   NC3 8368   5.701  20.754   9.293  0.0674  0.4604 -0.0605
  714DOPC   PO4 8369   5.471  20.474   9.458  0.1173 -0.0522  0.0679
  714DOPC   GL1 8370   5.623  20.714   9.731  0.0736  0.2826 -0.1063
  714DOPC   GL2 8371   5.847  20.679   9.805 -0.1363 -0.0086  0.1114
  714DOPC   C1A 8372   5.380  20.595  10.137  0.1481  0.1912 -0.0779
  714DOPC   D2A 8373   5.200  20.627  10.588 -0.0206  0.1659 -0.2888
  714DOPC   C3A 8374   5.369  20.783  10.953  0.1024 -0.4052  0.2941
  714DOPC   C4A 8375   5.300  21.145  11.184  0.0008 -0.1663  0.2578
  714DOPC   C1B 8376   5.806  20.658  10.321 -0.1329 -0.1146 -0.2482
  714DOPC   D2B 8377   5.953  20.851  10.748 -0.1167  0.1053 -0.2707
  714DOPC   C3B 8378   5.933  21.097  11.163  0.1879 -0.0513  0.0993
  714DOPC   C4B 8379   5.725  20.949  11.575 -0.3261 -0.1571  0.0968
  715DOPE   NH3 8380  10.275  11.091   9.351  0.3907  0.0386 -0.0142
  715DOPE   PO4 8381  10.080  11.215   9.541 -0.0835 -0.1128 -0.0035
  715DOPE   GL1 8382   9.935  11.188   9.945 -0.1547  0.0354 -0.1463
  715DOPE   GL2 8383  10.111  11.375  10.060  0.3603 -0.0505 -0.1071
  715DOPE   C1A 8384   9.659  11.355  10.299  0.0343 -0.2487 -0.0976
  715DOPE   D2A 8385   9.569  11.577  10.702  0.2219  0.1240 -0.0585
  715DOPE   C3A 8386   9.422  11.390  11.099 -0.0912  0.0534  0.0733
  715DOPE   C4A 8387   9.298  11.014  11.286 -0.0512 -0.0431  0.0161
  715DOPE   C1B 8388  10.182  11.519  10.445 -0.0954  0.1398 -0.2249
  715DOPE   D2B 8389  10.363  11.889  10.605 -0.1128 -0.0422 -0.0929
  715DOPE   C3B 8390  10.105  12.315  10.709  0.0671 -0.2565 -0.2108
  715DOPE   C4B 8391   9.627  12.489  10.593  0.1356  0.0345  0.1271
  716DOPE   NH3 8392  34.521  23.607  10.436  0.0452 -0.0048  0.0155
  716DOPE   PO4 8393  34.814  23.684  10.338  0.2480  0.1120  0.1744
  716DOPE   GL1 8394  35.027  23.751  10.664 -0.0772  0.0695 -0.3772
  716DOPE   GL2 8395  34.993  23.920  10.818 -0.2070  0.0684  0.3544
  716DOPE   C1A 8396  35.076  23.465  11.035  0.1526 -0.2689 -0.0529
  716DOPE   D2A 8397  34.973  23.352  11.487  0.1049 -0.3556 -0.1505
  716DOPE   C3A 8398  34.561  23.551  11.570  0.2614 -0.2424  0.1009
  716DOPE   C4A 8399  34.476  23.572  12.017  0.1477  0.0794  0.0846
  716DOPE   C1B 8400  35.318  24.065  11.126  0.0444 -0.1604  0.0154
  716DOPE   D2B 8401  35.679  24.011  11.445  0.1288 -0.1827 -0.0299
  716DOPE   C3B 8402  35.878  23.581  11.506 -0.2763 -0.0626  0.0119
  716DOPE   C4B 8403  35.986  23.240  11.168  0.1158 -0.0485 -0.1088
  717POSM   NC3 8404   8.458  17.576   9.039 -0.1547 -0.2170  0.2982
  717POSM   PO4 8405   8.435  17.196   9.166  0.0098  0.2927  0.0547
  717POSM   AM1 8406   8.329  17.132   9.492 -0.3230  0.2600 -0.1823
  717POSM   AM2 8407   8.452  17.280   9.709 -0.1325  0.0652  0.0661
  717POSM   T1A 8408   8.172  16.899   9.924 -0.2074 -0.2048  0.1392
  717POSM   C2A 8409   8.063  16.830  10.339 -0.0061 -0.0391 -0.2495
  717POSM   C3A 8410   7.702  17.027  10.596 -0.0891 -0.2406  0.0816
  717POSM   C1B 8411   8.565  17.293  10.052 -0.2342  0.0434 -0.1085
  717POSM   D2B 8412   8.512  17.421  10.478  0.2330 -0.1053 -0.1528
  717POSM   C3B 8413   8.116  17.287  10.613  0.0628  0.0316  0.2445
  717POSM   C4B 8414   8.015  17.012  10.996 -0.3142 -0.1917  0.0162
  718DOPS   CNO 8415  10.297  24.494   8.644  0.4184 -0.0377  0.1289
  718DOPS   PO4 8416  10.303  24.135   8.511 -0.1013 -0.0478 -0.2313
  718DOPS   GL1 8417  10.336  24.057   8.848  0.1426  0.0231 -0.1194
  718DOPS   GL2 8418  10.240  24.143   9.147  0.4398  0.2281  0.2567
  718DOPS   C1A 8419  10.628  23.873   9.144 -0.0408 -0.1827 -0.1052
  718DOPS   D2A 8420  10.910  23.844   9.523 -0.3029  0.1008  0.1261
  718DOPS   C3A 8421  11.081  23.380   9.589  0.2639  0.0918 -0.4169
  718DOPS   C4A 8422  11.251  23.070   9.339  0.0680 -0.2197  0.0278
  718DOPS   C1B 8423  10.375  24.150   9.513 -0.2301 -0.0294  0.0426
  718DOPS   D2B 8424  10.439  23.988   9.900  0.1637  0.2984 -0.0501
  718DOPS   C3B 8425  10.556  24.141  10.319 -0.2867 -0.1174  0.0160
  718DOPS   C4B 8426  10.399  24.376  10.687 -0.2766 -0.0645 -0.0528
  719DOPC   NC3 8427   5.756  13.209   9.660  0.1652 -0.1063  0.2054
  719DOPC   PO4 8428   5.535  13.503   9.496 -0.2257  0.1063 -0.0322
  719DOPC   GL1 8429   5.433  13.829   9.681  0.0117 -0.2438 -0.2635
  719DOPC   GL2 8430   5.561  13.730   9.950  0.0404 -0.2086 -0.0781
  719DOPC   C1A 8431   5.375  14.195   9.969 -0.3361  0.0754  0.3394
  719DOPC   D2A 8432   5.138  14.505  10.195 -0.1461 -0.1219  0.0469
  719DOPC   C3A 8433   5.273  14.781  10.597 -0.2771  0.1489 -0.2024
  719DOPC   C4A 8434   5.610  14.927  10.881  0.3032  0.1673  0.1393
  719DOPC   C1B 8435   5.896  13.452  10.087 -0.3173  0.1461  0.0228
  719DOPC   D2B 8436   6.090  13.462  10.521  0.1460 -0.0089 -0.0315
  719DOPC   C3B 8437   5.815  13.772  10.713 -0.3803 -0.2026 -0.2493
  719DOPC   C4B 8438   5.713  14.050  11.109 -0.2786  0.0843  0.0122
  720DOPE   NH3 8439   0.791  17.554  10.493 -0.1713  0.0647 -0.0707
  720DOPE   PO4 8440   0.732  17.290  10.668  0.0073 -0.1018 -0.0543
  720DOPE   GL1 8441   0.864  17.388  11.066 -0.0169 -0.0536 -0.1417
  720DOPE   GL2 8442   0.998  17.615  10.951 -0.0932  0.0323  0.1134
  720DOPE   C1A 8443   0.654  17.495  11.461  0.0430  0.3788  0.3990
  720DOPE   D2A 8444   0.785  17.653  11.839  0.2103  0.1230 -0.1069
  720DOPE   C3A 8445   0.425  17.745  12.157 -0.0548  0.2997  0.1299
  720DOPE   C4A 8446  -0.023  17.712  12.257 -0.3565 -0.3937  0.0210
  720DOPE   C1B 8447   1.140  17.490  11.379 -0.0479  0.0599  0.3021
  720DOPE   D2B 8448   1.117  17.235  11.807 -0.0772  0.2275  0.1235
  720DOPE   C3B 8449   1.209  17.543  12.105 -0.0018 -0.1040 -0.0060
  720DOPE   C4B 8450   1.217  17.713  12.564 -0.3232 -0.3068  0.0403
  721DOPS   CNO 8451   5.990  17.683   9.032  0.2688 -0.1129 -0.2784
  721DOPS   PO4 8452   6.288  17.641   9.265  0.2262  0.0268 -0.1847
  721DOPS   GL1 8453   6.069  17.816   9.561  0.2530 -0.1340 -0.1714
  721DOPS   GL2 8454   5.865  17.928   9.594 -0.0066  0.0085  0.1312
  721DOPS   C1A 8455   6.131  17.670   9.983  0.0053 -0.0365  0.3365
  721DOPS   D2A 8456   6.017  17.419  10.352  0.0566  0.2271 -0.1930
  721DOPS   C3A 8457   6.082  17.770  10.609  0.0759 -0.1797 -0.0821
  721DOPS   C4A 8458   6.200  18.227  10.779  0.2518 -0.0997 -0.5294
  721DOPS   C1B 8459   5.721  17.961  10.047 -0.4370 -0.1175  0.0423
  721DOPS   D2B 8460   5.603  17.762  10.427 -0.0518  0.0348 -0.2274
  721DOPS   C3B 8461   5.643  17.562  10.790 -0.3824  0.0561 -0.0922
  721DOPS   C4B 8462   5.771  17.679  11.203 -0.2750 -0.1619 -0.0964
  722DOPS   CNO 8463  10.747  21.716   9.048  0.1112 -0.1364  0.0352
  722DOPS   PO4 8464  10.706  22.058   8.999 -0.3500  0.1833 -0.0145
  722DOPS   GL1 8465  10.835  22.209   9.339  0.3344  0.0369 -0.1611
  722DOPS   GL2 8466  10.667  22.084   9.511  0.0078  0.1282 -0.0864
  722DOPS   C1A 8467  11.285  22.215   9.570 -0.0626  0.0500  0.2522
  722DOPS   D2A 8468  11.324  21.879   9.872 -0.1779  0.2805  0.0446
  722DOPS   C3A 8469  11.112  21.470  10.030  0.2583  0.2693 -0.0493
  722DOPS   C4A 8470  11.159  21.182  10.354  0.2500 -0.0798 -0.0044
  722DOPS   C1B 8471  10.831  21.696   9.621  0.1375 -0.1677 -0.2205
  722DOPS   D2B 8472  11.059  21.318   9.435  0.0945  0.1781 -0.0015
  722DOPS   C3B 8473  11.088  21.005   9.780 -0.2019 -0.0504 -0.3331
  722DOPS   C4B 8474  11.398  20.816  10.075  0.1169 -0.0543  0.1885
  723DOPE   NH3 8475  33.098  19.839  10.860 -0.2230  0.0233  0.1789
  723DOPE   PO4 8476  32.975  20.159  10.897  0.2519 -0.0839 -0.0209
  723DOPE   GL1 8477  33.010  20.425  11.179 -0.2970  0.0466  0.1566
  723DOPE   GL2 8478  32.931  20.250  11.390 -0.0869 -0.0771  0.1518
  723DOPE   C1A 8479  33.269  20.531  11.567 -0.3970 -0.1549  0.3182
  723DOPE   D2A 8480  33.377  20.370  11.958 -0.1044 -0.0301 -0.2660
  723DOPE   C3A 8481  32.965  20.333  12.218  0.0913 -0.2043  0.0168
  723DOPE   C4A 8482  32.746  20.620  12.510 -0.0077 -0.0961  0.0129
  723DOPE   C1B 8483  32.796  20.489  11.758 -0.0750 -0.1602 -0.4259
  723DOPE   D2B 8484  32.645  20.850  12.024 -0.0509 -0.1060 -0.1395
  723DOPE   C3B 8485  32.911  21.151  12.292  0.2078 -0.1423 -0.2367
  723DOPE   C4B 8486  32.872  21.502  12.547  0.0669 -0.1156 -0.3197
  724DOPE   NH3 8487   6.102  18.158   9.135  0.0244  0.0683  0.0838
  724DOPE   PO4 8488   5.982  18.452   9.076 -0.0936  0.0760 -0.1656
  724DOPE   GL1 8489   5.963  18.532   9.468 -0.1362 -0.0890 -0.3625
  724DOPE   GL2 8490   6.283  18.478   9.535 -0.1067 -0.0461  0.1186
  724DOPE   C1A 8491   5.767  18.886   9.650 -0.0647 -0.0033  0.1691
  724DOPE   D2A 8492   5.629  19.220   9.954 -0.2687 -0.0793 -0.4344
  724DOPE   C3A 8493   5.860  19.171  10.401 -0.1047 -0.1235 -0.1795
  724DOPE   C4A 8494   6.142  18.978  10.785  0.2614  0.0054 -0.0987
  724DOPE   C1B 8495   6.240  18.849   9.863 -0.0258  0.0686 -0.3084
  724DOPE   D2B 8496   6.319  18.872  10.314 -0.1951  0.2002 -0.2698
  724DOPE   C3B 8497   6.479  18.554  10.643 -0.0105  0.0177  0.2059
  724DOPE   C4B 8498   6.845  18.215  10.665 -0.2330  0.1013 -0.1933
  725POSM   NC3 8499  10.992  12.379   8.863  0.0432  0.0297  0.1513
  725POSM   PO4 8500  10.628  12.230   9.007  0.0524  0.0388  0.0957
  725POSM   AM1 8501  10.502  12.174   9.284  0.1875 -0.3312 -0.1199
  725POSM   AM2 8502  10.401  12.332   9.494  0.0427  0.0923  0.1584
  725POSM   T1A 8503  10.689  12.002   9.735 -0.3210  0.0876  0.1514
  725POSM   C2A 8504  10.718  11.970  10.224 -0.1556  0.1972 -0.2083
  725POSM   C3A 8505  10.579  12.301  10.466 -0.1641 -0.0956  0.1702
  725POSM   C1B 8506  10.443  12.434   9.868  0.0741  0.2300 -0.1895
  725POSM   D2B 8507  10.282  12.686  10.222  0.1878  0.0060  0.0543
  725POSM   C3B 8508  10.404  12.741  10.655 -0.1591  0.0489 -0.2565
  725POSM   C4B 8509  10.502  12.461  11.016 -0.1901 -0.1855  0.0197
  726DOPC   NC3 8510  10.423  16.221   9.307 -0.1157 -0.3369 -0.1410
  726DOPC   PO4 8511  10.611  15.971   9.137 -0.1132  0.0837  0.0115
  726DOPC   GL1 8512  10.754  15.959   9.533  0.1685  0.0629  0.1858
  726DOPC   GL2 8513  10.882  15.687   9.655 -0.3018 -0.0631 -0.5027
  726DOPC   C1A 8514  10.580  15.930   9.968  0.3780  0.3393 -0.0330
  726DOPC   D2A 8515  10.915  15.753  10.270  0.4030 -0.2359  0.4151
  726DOPC   C3A 8516  10.795  15.597  10.641 -0.1495  0.0074 -0.0462
  726DOPC   C4A 8517  10.523  15.775  10.970  0.1540 -0.0900  0.2379
  726DOPC   C1B 8518  11.086  16.045   9.932  0.2010 -0.1286  0.0839
  726DOPC   D2B 8519  11.190  16.364  10.207 -0.2187  0.0681  0.1008
  726DOPC   C3B 8520  11.330  16.806  10.071 -0.1781 -0.0258 -0.2104
  726DOPC   C4B 8521  11.148  17.133   9.760  0.1971  0.2664 -0.1129
  727DOPC   NC3 8522   7.766  14.257   9.505 -0.2007  0.1446  0.2518
  727DOPC   PO4 8523   7.561  13.912   9.570  0.0301  0.0190  0.1319
  727DOPC   GL1 8524   7.399  14.117   9.778 -0.3137  0.0796  0.4735
  727DOPC   GL2 8525   7.539  14.200  10.033 -0.0144 -0.3763  0.1028
  727DOPC   C1A 8526   7.052  14.001  10.079  0.1379  0.1828 -0.1143
  727DOPC   D2A 8527   6.805  14.148  10.427  0.1168 -0.0846  0.0068
  727DOPC   C3A 8528   6.915  14.609  10.403  0.0417  0.0148  0.2041
  727DOPC   C4A 8529   6.955  14.979  10.679  0.0488  0.3692 -0.0559
  727DOPC   C1B 8530   7.292  14.288  10.428  0.1137 -0.2078 -0.2666
  727DOPC   D2B 8531   7.219  14.461  10.872 -0.1511 -0.0018 -0.0655
  727DOPC   C3B 8532   7.371  14.935  11.034  0.2704 -0.2310  0.6473
  727DOPC   C4B 8533   7.430  15.228  11.413  0.0306 -0.2016  0.1801
  728DOPE   NH3 8534  12.485  23.742   8.818  0.0444 -0.1709  0.2222
  728DOPE   PO4 8535  12.410  24.007   8.972  0.0725 -0.2157 -0.1161
  728DOPE   GL1 8536  12.486  24.168   9.395 -0.1806  0.1724 -0.1265
  728DOPE   GL2 8537  12.281  24.383   9.381  0.2728 -0.1647 -0.0480
  728DOPE   C1A 8538  12.229  24.084   9.770 -0.0861 -0.0661 -0.0851
  728DOPE   D2A 8539  11.927  23.836   9.892  0.3039 -0.0120 -0.0635
  728DOPE   C3A 8540  11.540  24.039  10.104 -0.0140 -0.2558  0.0953
  728DOPE   C4A 8541  11.097  23.955  10.090 -0.0088 -0.1850  0.0741
  728DOPE   C1B 8542  12.269  24.602   9.745  0.0895  0.0486  0.2510
  728DOPE   D2B 8543  12.385  24.412  10.227  0.2965 -0.2135  0.1198
  728DOPE   C3B 8544  12.171  24.016  10.315 -0.0376  0.0828  0.2106
  728DOPE   C4B 8545  12.469  23.713  10.090 -0.0509 -0.2146  0.1846
  729POSM   NC3 8546  11.095  22.739   8.318 -0.0770 -0.0076  0.3981
  729POSM   PO4 8547  11.423  22.731   8.506  0.1100  0.1105 -0.3103
  729POSM   AM1 8548  11.432  22.764   8.838  0.0548 -0.2099 -0.0003
  729POSM   AM2 8549  11.543  22.775   9.102  0.2242  0.1594 -0.1455
  729POSM   T1A 8550  11.131  22.570   9.206 -0.4972  0.0938  0.2359
  729POSM   C2A 8551  11.014  22.669   9.619  0.2563 -0.0771  0.1065
  729POSM   C3A 8552  11.044  22.971   9.983 -0.2231  0.3367 -0.0879
  729POSM   C1B 8553  11.578  22.740   9.444  0.0409 -0.1569 -0.5506
  729POSM   D2B 8554  11.422  22.681   9.838  0.2279 -0.0851 -0.1358
  729POSM   C3B 8555  11.103  22.408  10.094 -0.2395  0.1614  0.0796
  729POSM   C4B 8556  10.801  22.058  10.058 -0.1552 -0.3455  0.2015
  730DOPE   NH3 8557   8.488  16.728   9.356 -0.2277  0.0744 -0.2937
  730DOPE   PO4 8558   8.762  16.867   9.475  0.1845 -0.0644 -0.2068
  730DOPE   GL1 8559   8.750  16.883   9.882 -0.3539  0.0133  0.0408
  730DOPE   GL2 8560   9.060  16.800   9.879  0.1731  0.2028  0.0564
  730DOPE   C1A 8561   8.574  16.891  10.272  0.4034  0.3086  0.0047
  730DOPE   D2A 8562   8.422  16.827  10.688 -0.2346  0.1596  0.2237
  730DOPE   C3A 8563   8.535  17.145  10.934  0.3534 -0.1841  0.1878
  730DOPE   C4A 8564   8.444  17.254  11.353  0.1710 -0.1376  0.1537
  730DOPE   C1B 8565   8.857  16.510  10.113  0.2479  0.0821  0.3530
  730DOPE   D2B 8566   8.827  16.278  10.434  0.1102 -0.3462  0.3127
  730DOPE   C3B 8567   8.593  15.878  10.387  0.2805 -0.0616  0.0045
  730DOPE   C4B 8568   8.252  15.729  10.667  0.4899 -0.0787  0.2511
  731DOPC   NC3 8569   8.537  21.420   9.369  0.1342 -0.2158  0.3191
  731DOPC   PO4 8570   8.426  21.783   9.233 -0.1038 -0.0981 -0.0458
  731DOPC   GL1 8571   8.525  21.941   9.618  0.2385 -0.1500 -0.1863
  731DOPC   GL2 8572   8.369  22.169   9.693 -0.0503  0.3550  0.1392
  731DOPC   C1A 8573   8.666  21.820  10.075 -0.3368  0.2344 -0.0688
  731DOPC   D2A 8574   8.655  21.671  10.517  0.2522  0.2114  0.0404
  731DOPC   C3A 8575   9.022  21.713  10.747 -0.4077  0.0277  0.0069
  731DOPC   C4A 8576   9.291  21.677  11.174 -0.2744  0.2179 -0.0817
  731DOPC   C1B 8577   8.202  21.967  10.066  0.1134 -0.0708 -0.1417
  731DOPC   D2B 8578   8.034  21.909  10.540 -0.3770 -0.1660 -0.0467
  731DOPC   C3B 8579   7.699  21.688  10.814  0.0790  0.1059 -0.1656
  731DOPC   C4B 8580   7.428  21.295  10.983  0.3396 -0.2618  0.1012
  732DOPS   CNO 8581   0.915  14.585  10.416 -0.1168 -0.0891 -0.1036
  732DOPS   PO4 8582   1.258  14.571  10.598 -0.0319  0.1291  0.0041
  732DOPS   GL1 8583   1.365  14.649  11.093  0.0955 -0.0976 -0.1510
  732DOPS   GL2 8584   1.580  14.432  11.180  0.2076 -0.0703 -0.0664
  732DOPS   C1A 8585   1.610  14.933  11.365 -0.1888 -0.0319 -0.0576
  732DOPS   D2A 8586   2.026  14.953  11.637 -0.2338  0.0226 -0.1942
  732DOPS   C3A 8587   2.061  14.629  11.979  0.0801  0.0157 -0.1004
  732DOPS   C4A 8588   2.121  14.269  12.241 -0.1710 -0.0241 -0.1666
  732DOPS   C1B 8589   1.983  14.492  11.325 -0.0812 -0.0476  0.3399
  732DOPS   D2B 8590   2.405  14.658  11.521  0.1374 -0.3163  0.2949
  732DOPS   C3B 8591   2.578  14.410  11.880 -0.0182 -0.0337 -0.2235
  732DOPS   C4B 8592   2.658  14.274  12.290  0.2274  0.0500 -0.0686
  733DOPE   NH3 8593   1.837  21.647   9.818 -0.0619 -0.1689 -0.0187
  733DOPE   PO4 8594   1.640  21.869   9.940  0.0395  0.0284  0.2223
  733DOPE   GL1 8595   1.676  21.889  10.326 -0.1792  0.2270 -0.0695
  733DOPE   GL2 8596   1.819  22.219  10.246 -0.1939  0.1131  0.0851
  733DOPE   C1A 8597   1.809  22.090  10.738 -0.3774 -0.3677  0.0473
  733DOPE   D2A 8598   1.976  22.310  11.074 -0.0784  0.0919  0.0883
  733DOPE   C3A 8599   1.781  22.267  11.530  0.2156 -0.2586 -0.4045
  733DOPE   C4A 8600   1.450  22.548  11.689  0.2291 -0.1390 -0.1899
  733DOPE   C1B 8601   2.181  22.339  10.448  0.0662 -0.1214  0.0408
  733DOPE   D2B 8602   2.448  22.462  10.809  0.2350  0.2893 -0.1084
  733DOPE   C3B 8603   2.674  22.371  11.186  0.1544 -0.2599 -0.2720
  733DOPE   C4B 8604   2.972  22.246  11.496  0.1415  0.0677 -0.0683
  734DOPE   NH3 8605   5.428  16.709   9.622  0.0842  0.0681  0.1252
  734DOPE   PO4 8606   5.555  16.429   9.601  0.0582  0.1418 -0.0017
  734DOPE   GL1 8607   5.793  16.470   9.890  0.1436 -0.2613  0.1043
  734DOPE   GL2 8608   6.079  16.526   9.860  0.2138 -0.0985  0.0641
  734DOPE   C1A 8609   5.870  16.624  10.342 -0.1266 -0.0977  0.3098
  734DOPE   D2A 8610   5.754  16.996  10.541 -0.1395 -0.0689 -0.1481
  734DOPE   C3A 8611   6.014  17.232  10.894  0.2288 -0.1044 -0.1072
  734DOPE   C4A 8612   6.288  17.544  11.157 -0.2262  0.1148 -0.3054
  734DOPE   C1B 8613   6.035  16.195  10.159 -0.0019  0.1956 -0.0065
  734DOPE   D2B 8614   6.109  15.980  10.578  0.1067 -0.1308 -0.3968
  734DOPE   C3B 8615   5.978  16.392  10.877  0.0710  0.1421 -0.0174
  734DOPE   C4B 8616   5.847  16.747  11.009  0.1077  0.1701 -0.1044
  735DOPS   CNO 8617  12.673  23.017   9.232  0.0079 -0.0859 -0.0864
  735DOPS   PO4 8618  12.954  22.873   8.986 -0.2531 -0.2115 -0.3547
  735DOPS   GL1 8619  13.038  22.648   9.343 -0.2014 -0.2896  0.0888
  735DOPS   GL2 8620  13.130  22.765   9.604  0.0735 -0.1056  0.2383
  735DOPS   C1A 8621  12.879  22.257   9.527 -0.0241  0.1625  0.1818
  735DOPS   D2A 8622  12.862  21.861   9.647 -0.3619  0.4895 -0.0860
  735DOPS   C3A 8623  12.635  21.809   9.995 -0.3123  0.3442  0.2813
  735DOPS   C4A 8624  12.680  21.552  10.385 -0.2434 -0.0642  0.1424
  735DOPS   C1B 8625  12.700  22.768   9.784  0.1843  0.2202 -0.2839
  735DOPS   D2B 8626  12.279  22.695   9.865  0.0387 -0.1337  0.3175
  735DOPS   C3B 8627  11.899  22.866  10.108 -0.1830  0.1073  0.2103
  735DOPS   C4B 8628  11.531  22.672  10.335  0.0311 -0.0974 -0.0777
  736DOPE   NH3 8629  11.669  12.560   9.103  0.2482 -0.1552  0.4570
  736DOPE   PO4 8630  11.508  12.315   8.997 -0.0460  0.0925  0.0363
  736DOPE   GL1 8631  11.330  12.436   9.358 -0.4393 -0.1269  0.2124
  736DOPE   GL2 8632  11.526  12.368   9.589 -0.1377 -0.0635 -0.1896
  736DOPE   C1A 8633  11.142  12.750   9.643 -0.1366 -0.3903  0.0773
  736DOPE   D2A 8634  10.750  12.927   9.870 -0.0529  0.0725  0.0733
  736DOPE   C3A 8635  10.785  12.761  10.319 -0.3275  0.3422  0.1082
  736DOPE   C4A 8636  10.877  12.754  10.766  0.0130  0.0772 -0.0673
  736DOPE   C1B 8637  11.657  12.635   9.969 -0.0330  0.1579  0.1425
  736DOPE   D2B 8638  11.491  12.562  10.392 -0.0390 -0.0008 -0.0536
  736DOPE   C3B 8639  11.103  12.339  10.484  0.1823  0.3262 -0.0193
  736DOPE   C4B 8640  11.050  11.905  10.644 -0.1769  0.0252  0.3039
  737DOPS   CNO 8641   5.543  11.779   9.490  0.0635 -0.2926 -0.2082
  737DOPS   PO4 8642   5.492  11.752   9.860 -0.0775  0.1010  0.0145
  737DOPS   GL1 8643   5.427  11.706  10.314  0.1845  0.1686  0.1534
  737DOPS   GL2 8644   5.185  11.692  10.236  0.2665 -0.0186 -0.3087
  737DOPS   C1A 8645   5.674  11.459  10.616 -0.1461 -0.2053  0.2478
  737DOPS   D2A 8646   5.471  11.204  11.003 -0.0156 -0.4343  0.0032
  737DOPS   C3A 8647   5.350  11.146  11.459 -0.1841 -0.0191 -0.1387
  737DOPS   C4A 8648   4.936  11.005  11.692  0.3938 -0.0188  0.0350
  737DOPS   C1B 8649   5.151  11.279  10.520  0.0612  0.0776  0.2347
  737DOPS   D2B 8650   5.360  10.867  10.687  0.0664 -0.1857 -0.0519
  737DOPS   C3B 8651   5.172  10.760  11.092  0.0794  0.0840 -0.1778
  737DOPS   C4B 8652   5.197  10.579  11.547 -0.2644 -0.1098  0.2852
  738DOPS   CNO 8653  12.205  11.239   9.402  0.0074 -0.1803 -0.0003
  738DOPS   PO4 8654  12.460  11.528   9.253 -0.2942 -0.0234  0.0565
  738DOPS   GL1 8655  12.312  11.833   9.515 -0.2175 -0.0434  0.0127
  738DOPS   GL2 8656  12.574  11.923   9.677 -0.0349 -0.0544  0.2022
  738DOPS   C1A 8657  11.973  11.723   9.791  0.0150  0.2555 -0.0350
  738DOPS   D2A 8658  11.493  11.715   9.813  0.0582 -0.1944 -0.1449
  738DOPS   C3A 8659  11.230  12.082   9.857  0.1739  0.1841  0.0357
  738DOPS   C4A 8660  10.965  12.421   9.998  0.0859 -0.0250  0.0869
  738DOPS   C1B 8661  12.466  11.566   9.945 -0.0074  0.1461  0.0933
  738DOPS   D2B 8662  12.340  11.273  10.334  0.1742  0.1881 -0.0990
  738DOPS   C3B 8663  12.050  11.392  10.699  0.0419  0.1029  0.2915
  738DOPS   C4B 8664  12.239  11.350  11.121 -0.0001 -0.1851  0.0417
  739DOPC   NC3 8665   1.275  15.581  11.038 -0.0908  0.4160  0.2431
  739DOPC   PO4 8666   1.051  15.274  11.006  0.2639 -0.5329 -0.0487
  739DOPC   GL1 8667   1.214  15.229  11.366 -0.1324  0.3558 -0.0945
  739DOPC   GL2 8668   1.414  15.350  11.464 -0.0682 -0.0416  0.0287
  739DOPC   C1A 8669   1.150  15.035  11.746 -0.0102  0.5527  0.1630
  739DOPC   D2A 8670   0.958  14.723  12.109 -0.1189  0.1741  0.1534
  739DOPC   C3A 8671   0.685  14.600  12.442 -0.0156 -0.0238 -0.1839
  739DOPC   C4A 8672   0.902  14.292  12.722 -0.0363 -0.0234 -0.2082
  739DOPC   C1B 8673   1.624  15.171  11.839  0.1638 -0.0174 -0.1756
  739DOPC   D2B 8674   1.411  15.010  12.262 -0.0869 -0.0683 -0.2909
  739DOPC   C3B 8675   1.663  15.231  12.539 -0.1250  0.1434  0.0180
  739DOPC   C4B 8676   2.035  15.142  12.754 -0.0485  0.0720  0.2168
  740DOPC   NC3 8677  12.900  14.805   8.754  0.3722 -0.3881 -0.0573
  740DOPC   PO4 8678  12.529  14.975   8.648 -0.1438 -0.0598 -0.4056
  740DOPC   GL1 8679  12.500  15.002   9.035  0.0303  0.1002 -0.0172
  740DOPC   GL2 8680  12.223  14.874   9.154 -0.0612 -0.0491  0.0223
  740DOPC   C1A 8681  12.685  14.857   9.414 -0.3715 -0.3756 -0.1405
  740DOPC   D2A 8682  13.099  15.006   9.629 -0.0102 -0.1142  0.2787
  740DOPC   C3A 8683  13.009  15.337   9.943 -0.2899  0.3154  0.0709
  740DOPC   C4A 8684  12.806  15.531  10.265 -0.1630  0.2124  0.0523
  740DOPC   C1B 8685  12.057  14.863   9.616 -0.2506  0.1909 -0.1878
  740DOPC   D2B 8686  11.764  15.116   9.867  0.0473 -0.1907  0.0518
  740DOPC   C3B 8687  12.002  15.446  10.188  0.0970  0.0876  0.1055
  740DOPC   C4B 8688  12.366  15.618  10.432  0.1430  0.1987 -0.1410
  741DOPE   NH3 8689   6.073  17.180   9.180  0.1147 -0.0708  0.0188
  741DOPE   PO4 8690   6.333  17.156   9.416  0.0487 -0.2129 -0.0002
  741DOPE   GL1 8691   6.600  17.396   9.503  0.2556  0.1326 -0.0071
  741DOPE   GL2 8692   6.922  17.280   9.627  0.0576 -0.0768  0.0650
  741DOPE   C1A 8693   6.614  17.747   9.817 -0.1723  0.4214  0.4038
  741DOPE   D2A 8694   6.849  17.878  10.134  0.2758 -0.1876 -0.0927
  741DOPE   C3A 8695   7.308  17.774  10.159 -0.2996  0.1346 -0.0187
  741DOPE   C4A 8696   7.773  17.642  10.265 -0.0094  0.0556  0.1395
  741DOPE   C1B 8697   6.839  17.394  10.101  0.3805  0.2478  0.1559
  741DOPE   D2B 8698   6.466  17.573  10.371 -0.4298 -0.0218 -0.0098
  741DOPE   C3B 8699   6.499  17.793  10.841 -0.3494  0.4224 -0.0822
  741DOPE   C4B 8700   6.624  18.174  11.106 -0.0754 -0.2627 -0.0431
  742DOPC   NC3 8701  11.492  24.553   8.798 -0.2206  0.0758  0.0315
  742DOPC   PO4 8702  11.567  24.792   9.125 -0.1694  0.0526  0.1390
  742DOPC   GL1 8703  11.571  24.454   9.292  0.3102 -0.0807 -0.2307
  742DOPC   GL2 8704  11.407  24.234   9.188 -0.2645  0.0463  0.1753
  742DOPC   C1A 8705  11.827  24.430   9.711  0.0627  0.2342  0.0099
  742DOPC   D2A 8706  11.903  24.403  10.134  0.0998 -0.3280 -0.2787
  742DOPC   C3A 8707  11.705  24.296  10.537  0.0407  0.0744 -0.0344
  742DOPC   C4A 8708  11.405  23.941  10.637 -0.2632  0.0452 -0.0282
  742DOPC   C1B 8709  11.358  24.285   9.640 -0.3732  0.0628 -0.0739
  742DOPC   D2B 8710  11.295  24.602   9.922 -0.0987 -0.0805 -0.0068
  742DOPC   C3B 8711  11.164  24.401  10.335  0.1277  0.2359 -0.0126
  742DOPC   C4B 8712  10.872  24.262  10.683  0.2042  0.0253  0.0736
  743POSM   NC3 8713   7.791  18.411   8.987  0.1006 -0.2015 -0.0580
  743POSM   PO4 8714   7.496  18.549   8.737  0.0824 -0.0312  0.0320
  743POSM   AM1 8715   7.335  18.440   8.965 -0.1250  0.1156 -0.4495
  743POSM   AM2 8716   7.312  18.598   9.217 -0.1442  0.0934  0.2817
  743POSM   T1A 8717   7.415  18.183   9.399  0.0156 -0.4321 -0.1635
  743POSM   C2A 8718   7.457  18.205   9.899 -0.0656  0.0343 -0.0218
  743POSM   C3A 8719   7.166  18.282  10.260  0.1054 -0.1455 -0.1557
  743POSM   C1B 8720   7.178  18.608   9.513  0.4303  0.2472 -0.2565
  743POSM   D2B 8721   6.913  18.683   9.858 -0.1739  0.0324 -0.1866
  743POSM   C3B 8722   6.571  18.416  10.053  0.3282  0.1534  0.1655
  743POSM   C4B 8723   6.454  18.090  10.383 -0.0496 -0.3274  0.1193
  744DOPC   NC3 8724   4.426  21.752   9.589  0.1117  0.0287 -0.1932
  744DOPC   PO4 8725   4.418  22.144   9.656  0.2113 -0.0736 -0.0934
  744DOPC   GL1 8726   4.491  21.869  10.014  0.2200 -0.2816  0.0990
  744DOPC   GL2 8727   4.469  21.619  10.142  0.3645  0.0733 -0.0517
  744DOPC   C1A 8728   4.794  22.076  10.313 -0.2869 -0.2277 -0.1881
  744DOPC   D2A 8729   5.057  22.416  10.554  0.0342 -0.4045 -0.1831
  744DOPC   C3A 8730   5.216  22.023  10.787 -0.3462 -0.2818  0.0126
  744DOPC   C4A 8731   5.447  21.978  11.161  0.2088  0.1501 -0.1322
  744DOPC   C1B 8732   4.556  21.757  10.601 -0.0824 -0.1051  0.0431
  744DOPC   D2B 8733   4.458  21.565  11.047 -0.0218 -0.3482  0.3214
  744DOPC   C3B 8734   4.674  21.603  11.490 -0.1302 -0.1528  0.1680
  744DOPC   C4B 8735   4.935  21.321  11.699  0.0183 -0.0844 -0.4349
  745DOPC   NC3 8736   6.420  24.970   9.749  0.1947  0.1642  0.1166
  745DOPC   PO4 8737   6.335  24.646   9.941  0.1050  0.1558 -0.4688
  745DOPC   GL1 8738   6.012  24.643  10.238  0.0874 -0.0114  0.0531
  745DOPC   GL2 8739   6.106  24.369  10.329 -0.1932  0.2347  0.2709
  745DOPC   C1A 8740   5.693  24.554  10.592 -0.0774 -0.3152 -0.3338
  745DOPC   D2A 8741   5.623  24.453  11.023 -0.1214  0.0456 -0.1318
  745DOPC   C3A 8742   5.341  24.645  11.350  0.1076 -0.0427  0.1180
  745DOPC   C4A 8743   5.433  24.833  11.734  0.0542  0.2127  0.3734
  745DOPC   C1B 8744   6.030  24.153  10.757 -0.0909  0.2212  0.0143
  745DOPC   D2B 8745   5.983  23.970  11.208 -0.2149 -0.2130 -0.0528
  745DOPC   C3B 8746   5.679  24.152  11.480  0.0366  0.2037 -0.1689
  745DOPC   C4B 8747   5.291  24.254  11.767 -0.1643  0.3472 -0.0553
  746DOPE   NH3 8748   3.600  22.016   9.687 -0.0559 -0.1277 -0.0308
  746DOPE   PO4 8749   3.588  21.695   9.655  0.1869 -0.0794  0.0869
  746DOPE   GL1 8750   3.602  21.581  10.004 -0.0516  0.2641  0.1731
  746DOPE   GL2 8751   3.612  21.261  10.079  0.1842  0.0195  0.2294
  746DOPE   C1A 8752   3.393  21.575  10.386  0.2246 -0.3087  0.2292
  746DOPE   D2A 8753   3.378  21.641  10.868  0.0602 -0.1436 -0.3323
  746DOPE   C3A 8754   3.447  21.280  11.110  0.0236  0.2315 -0.4456
  746DOPE   C4A 8755   3.254  20.912  11.351  0.1867 -0.1834 -0.0442
  746DOPE   C1B 8756   3.361  21.027  10.403 -0.0808 -0.0006  0.1997
  746DOPE   D2B 8757   3.064  21.022  10.799  0.0370 -0.1531  0.1057
  746DOPE   C3B 8758   2.940  20.608  10.944 -0.1695 -0.0928 -0.2806
  746DOPE   C4B 8759   3.027  20.163  10.908  0.0088 -0.2464 -0.1306
  747DOPE   NH3 8760   2.677  21.442   9.609 -0.0387 -0.3777  0.1160
  747DOPE   PO4 8761   2.668  21.559   9.894  0.0098 -0.1333 -0.1446
  747DOPE   GL1 8762   2.704  21.524  10.217 -0.2293 -0.1076 -0.0914
  747DOPE   GL2 8763   2.623  21.739  10.361 -0.0505  0.0900  0.0611
  747DOPE   C1A 8764   2.967  21.505  10.630  0.0952  0.1824  0.2940
  747DOPE   D2A 8765   2.972  21.397  11.093 -0.0489 -0.0188 -0.2935
  747DOPE   C3A 8766   2.762  21.619  11.494  0.1027  0.2393 -0.1935
  747DOPE   C4A 8767   2.407  21.572  11.804  0.5403  0.1180 -0.2310
  747DOPE   C1B 8768   2.412  21.914  10.749  0.0627 -0.4061 -0.3456
  747DOPE   D2B 8769   2.436  21.831  11.185  0.3570 -0.2601 -0.0460
  747DOPE   C3B 8770   2.290  22.080  11.545  0.1514 -0.0232 -0.0852
  747DOPE   C4B 8771   2.515  22.414  11.659  0.3192  0.1560  0.3598
  748DOPC   NC3 8772   2.021  20.874  10.240 -0.2313  0.1224  0.0637
  748DOPC   PO4 8773   1.785  21.080  10.011 -0.0965  0.0200 -0.0286
  748DOPC   GL1 8774   1.791  21.268  10.389  0.3700  0.1148  0.3263
  748DOPC   GL2 8775   1.478  21.399  10.346  0.2676  0.3802 -0.1111
  748DOPC   C1A 8776   1.535  21.037  10.701 -0.2727  0.0293  0.2489
  748DOPC   D2A 8777   1.566  20.665  10.995 -0.1851 -0.0860  0.1719
  748DOPC   C3A 8778   1.711  20.641  11.469 -0.1031 -0.1390 -0.0661
  748DOPC   C4A 8779   1.843  20.893  11.838 -0.0620 -0.0865  0.0248
  748DOPC   C1B 8780   1.620  21.591  10.737 -0.1502 -0.1133 -0.0142
  748DOPC   D2B 8781   1.991  21.562  11.010 -0.2877 -0.0329  0.1575
  748DOPC   C3B 8782   1.911  21.754  11.407 -0.0341  0.0807  0.1330
  748DOPC   C4B 8783   1.929  21.873  11.864  0.0096  0.1758 -0.0477
  749DOPE   NH3 8784   9.160  16.675   9.196  0.0948 -0.0583 -0.1371
  749DOPE   PO4 8785   9.236  16.927   9.410  0.2081  0.3069  0.0917
  749DOPE   GL1 8786   9.172  17.237   9.727 -0.0857 -0.1373 -0.2186
  749DOPE   GL2 8787   9.459  17.241   9.878  0.0568  0.1043 -0.3304
  749DOPE   C1A 8788   9.081  17.208  10.183  0.5173  0.1291  0.0541
  749DOPE   D2A 8789   9.099  17.375  10.573  0.2118  0.2116 -0.1772
  749DOPE   C3A 8790   9.462  17.659  10.744  0.2793  0.0090  0.1533
  749DOPE   C4A 8791   9.807  17.751  11.012  0.2191 -0.1991  0.0459
  749DOPE   C1B 8792   9.587  17.434  10.285  0.2084 -0.0344 -0.0669
  749DOPE   D2B 8793   9.949  17.540  10.603 -0.1801  0.0198 -0.0788
  749DOPE   C3B 8794  10.350  17.615  10.449 -0.3660  0.2002  0.0968
  749DOPE   C4B 8795  10.751  17.597  10.261 -0.0369 -0.1704 -0.2970
  750DOPS   CNO 8796   7.919  21.583   9.052  0.0189 -0.0047  0.1878
  750DOPS   PO4 8797   7.537  21.623   9.165  0.4359 -0.0358  0.2294
  750DOPS   GL1 8798   7.643  21.618   9.578  0.1462 -0.1311  0.0983
  750DOPS   GL2 8799   7.348  21.511   9.681 -0.3088  0.0768 -0.0401
  750DOPS   C1A 8800   7.772  21.444   9.983  0.1157  0.0925 -0.1378
  750DOPS   D2A 8801   7.768  21.376  10.462 -0.2326  0.1605  0.0719
  750DOPS   C3A 8802   7.974  21.274  10.897  0.1434 -0.1427 -0.1037
  750DOPS   C4A 8803   7.989  21.496  11.301  0.1065  0.0462  0.0787
  750DOPS   C1B 8804   7.135  21.819   9.925  0.2421  0.1271 -0.0804
  750DOPS   D2B 8805   6.926  22.068  10.185  0.3739  0.3344 -0.2046
  750DOPS   C3B 8806   6.711  21.940  10.644  0.3095  0.0127 -0.0957
  750DOPS   C4B 8807   6.628  21.671  11.051 -0.0634 -0.0182 -0.0205
  751DOPC   NC3 8808   4.804  24.133   9.383 -0.0731  0.0925  0.0184
  751DOPC   PO4 8809   4.672  24.193   9.763  0.2554 -0.0573  0.4990
  751DOPC   GL1 8810   4.819  24.027  10.040  0.0040  0.0301 -0.4504
  751DOPC   GL2 8811   4.627  24.096  10.247 -0.0358  0.0531 -0.0909
  751DOPC   C1A 8812   5.203  24.188  10.294  0.3317  0.2616  0.0164
  751DOPC   D2A 8813   5.488  23.975  10.572 -0.1533 -0.0478 -0.2065
  751DOPC   C3A 8814   5.533  23.975  11.037 -0.1504  0.2435  0.2517
  751DOPC   C4A 8815   5.379  23.804  11.440  0.1752 -0.0474  0.0180
  751DOPC   C1B 8816   4.843  24.007  10.593  0.0053  0.0218 -0.2307
  751DOPC   D2B 8817   4.736  23.769  10.974 -0.2311  0.0381  0.0200
  751DOPC   C3B 8818   4.832  23.735  11.398  0.3893 -0.3929  0.2883
  751DOPC   C4B 8819   4.807  23.823  11.820  0.0275  0.1904 -0.1085
  752POSM   NC3 8820   9.872  21.061   8.746 -0.0848  0.0795  0.0158
  752POSM   PO4 8821   9.910  21.440   8.813 -0.3128 -0.4726 -0.0992
  752POSM   AM1 8822   9.957  21.507   9.117  0.1614 -0.2395 -0.2352
  752POSM   AM2 8823  10.186  21.529   9.299  0.3333 -0.1280  0.1965
  752POSM   T1A 8824   9.807  21.466   9.620 -0.0498 -0.0256  0.1907
  752POSM   C2A 8825   9.931  21.736   9.947  0.0337 -0.3044  0.2417
  752POSM   C3A 8826   9.755  21.800  10.376  0.2545 -0.0264 -0.2330
  752POSM   C1B 8827  10.326  21.594   9.538  0.0603  0.0200  0.1425
  752POSM   D2B 8828  10.433  21.710   9.977  0.3451 -0.3378  0.3119
  752POSM   C3B 8829  10.291  21.453  10.275 -0.0120 -0.1342  0.4050
  752POSM   C4B 8830  10.259  21.148  10.651  0.1475 -0.2417 -0.0935
  753DOPC   NC3 8831   4.842  18.884   9.005  0.0701 -0.0576 -0.1018
  753DOPC   PO4 8832   4.560  19.006   9.231  0.1436 -0.1177 -0.1023
  753DOPC   GL1 8833   4.839  19.104   9.540  0.2167 -0.3773  0.3024
  753DOPC   GL2 8834   5.070  18.921   9.538 -0.0454 -0.1536  0.2469
  753DOPC   C1A 8835   4.983  19.377   9.890 -0.1051 -0.0654  0.1839
  753DOPC   D2A 8836   5.195  19.318  10.308  0.0369 -0.0691  0.3926
  753DOPC   C3A 8837   5.069  19.204  10.765  0.2553  0.0898 -0.3369
  753DOPC   C4A 8838   4.807  18.938  11.084 -0.1353 -0.0764 -0.1143
  753DOPC   C1B 8839   5.322  18.836   9.948 -0.0984  0.3823  0.0598
  753DOPC   D2B 8840   5.286  18.793  10.421 -0.1530  0.0081 -0.2246
  753DOPC   C3B 8841   5.562  18.924  10.803 -0.0616 -0.0733 -0.1114
  753DOPC   C4B 8842   5.849  19.302  11.002  0.1143  0.1059 -0.0358
  754POSM   NC3 8843   5.769  21.253   9.050  0.0171 -0.1926  0.0907
  754POSM   PO4 8844   5.510  21.192   9.350  0.0682 -0.0777 -0.1452
  754POSM   AM1 8845   5.620  21.227   9.686  0.1097  0.1086  0.2426
  754POSM   AM2 8846   5.865  21.216   9.822 -0.1383 -0.2246  0.2823
  754POSM   T1A 8847   5.507  21.068  10.159 -0.2514 -0.1729  0.1207
  754POSM   C2A 8848   5.504  21.132  10.606  0.0165  0.1214  0.0797
  754POSM   C3A 8849   5.454  21.525  10.887  0.0502  0.0868  0.2981
  754POSM   C1B 8850   6.042  21.083  10.092 -0.0164 -0.0035 -0.0823
  754POSM   D2B 8851   6.357  21.000  10.478 -0.0478 -0.4236  0.1781
  754POSM   C3B 8852   6.584  21.370  10.624  0.1221  0.0677  0.1036
  754POSM   C4B 8853   6.957  21.275  10.840  0.1199 -0.1103  0.1854
  755DOPE   NH3 8854   4.190  18.543   9.243 -0.1627 -0.0806 -0.0063
  755DOPE   PO4 8855   3.893  18.621   9.367  0.0172 -0.1028  0.0864
  755DOPE   GL1 8856   3.712  18.715   9.674  0.3547  0.0060  0.0745
  755DOPE   GL2 8857   3.765  18.917   9.835  0.1990 -0.0850 -0.0030
  755DOPE   C1A 8858   3.504  18.506  10.025  0.0338  0.1000  0.0687
  755DOPE   D2A 8859   3.701  18.194  10.222  0.3863  0.2201 -0.2576
  755DOPE   C3A 8860   4.060  18.102  10.534 -0.0129  0.0131  0.1782
  755DOPE   C4A 8861   4.372  18.182  10.843  0.2176  0.0152 -0.2944
  755DOPE   C1B 8862   4.131  19.032  10.088  0.2620  0.0210 -0.0123
  755DOPE   D2B 8863   4.268  18.934  10.497 -0.0459  0.1104 -0.4566
  755DOPE   C3B 8864   4.498  19.201  10.755  0.0175 -0.5615 -0.1532
  755DOPE   C4B 8865   4.618  19.411  11.172 -0.1773 -0.0069 -0.0973
  756DOPE   NH3 8866  11.171  14.874   9.152 -0.0558 -0.0894 -0.1705
  756DOPE   PO4 8867  11.027  15.163   9.109  0.0110  0.3778  0.0508
  756DOPE   GL1 8868  11.272  15.221   9.381  0.0041 -0.1826  0.1704
  756DOPE   GL2 8869  11.337  15.024   9.599 -0.4312  0.2718  0.0362
  756DOPE   C1A 8870  11.349  15.555   9.709 -0.1481  0.1835 -0.0391
  756DOPE   D2A 8871  11.417  15.654  10.173 -0.2298 -0.3448  0.2665
  756DOPE   C3A 8872  11.618  15.326  10.439  0.2849  0.2163  0.0353
  756DOPE   C4A 8873  11.836  15.426  10.829 -0.2907  0.0490 -0.0407
  756DOPE   C1B 8874  11.292  15.138  10.040  0.0352 -0.2062  0.0611
  756DOPE   D2B 8875  11.120  15.298  10.390  0.0407 -0.0669  0.0131
  756DOPE   C3B 8876  10.706  15.098  10.449 -0.0605  0.1249  0.0366
  756DOPE   C4B 8877  10.640  14.744  10.763  0.4234 -0.0691  0.0365
  757DOPS   CNO 8878   5.228  10.097   9.451  0.1109 -0.0100  0.2343
  757DOPS   PO4 8879   4.985   9.983   9.722 -0.2950 -0.1549  0.1408
  757DOPS   GL1 8880   4.962  10.044  10.132 -0.0783 -0.1118  0.0459
  757DOPS   GL2 8881   5.096  10.255  10.264 -0.3037  0.0776 -0.0803
  757DOPS   C1A 8882   4.781  10.030  10.547  0.0698  0.0370  0.0772
  757DOPS   D2A 8883   4.826  10.078  10.987 -0.0194 -0.0250 -0.1143
  757DOPS   C3A 8884   4.833   9.813  11.336  0.1676 -0.0002  0.0060
  757DOPS   C4A 8885   4.990   9.440  11.504 -0.1975  0.0169 -0.1724
  757DOPS   C1B 8886   5.555  10.396  10.422 -0.0524 -0.0491  0.1704
  757DOPS   D2B 8887   5.675  10.563  10.840  0.0766 -0.0893 -0.2739
  757DOPS   C3B 8888   5.661  10.299  11.223  0.0434  0.0378 -0.3765
  757DOPS   C4B 8889   5.664  10.221  11.678  0.0340 -0.2740  0.2265
  758DOPE   NH3 8890   2.283  13.515  10.595  0.2525 -0.1490  0.0701
  758DOPE   PO4 8891   2.433  13.257  10.683 -0.1674 -0.1341 -0.1023
  758DOPE   GL1 8892   2.704  13.021  10.972  0.1060 -0.1475  0.3020
  758DOPE   GL2 8893   2.470  13.105  11.169 -0.2901  0.3549 -0.1123
  758DOPE   C1A 8894   2.662  12.600  11.225  0.0520  0.2958  0.0496
  758DOPE   D2A 8895   2.355  12.390  11.493  0.3215  0.1302 -0.0717
  758DOPE   C3A 8896   2.349  12.499  11.957 -0.1410  0.1602 -0.0718
  758DOPE   C4A 8897   2.599  12.522  12.307  0.1680 -0.0769  0.1539
  758DOPE   C1B 8898   2.492  12.894  11.586  0.1058  0.0784  0.1244
  758DOPE   D2B 8899   2.778  12.598  11.724  0.1888 -0.0306  0.3364
  758DOPE   C3B 8900   3.226  12.805  11.776  0.0209 -0.4746 -0.0482
  758DOPE   C4B 8901   3.432  12.713  12.182 -0.1133  0.1206  0.1885
  759DOPE   NH3 8902   9.116  13.486   9.484 -0.1109  0.0465  0.0479
  759DOPE   PO4 8903   8.873  13.645   9.435 -0.1065  0.2947  0.0794
  759DOPE   GL1 8904   8.984  13.818   9.831 -0.0639 -0.4293 -0.1934
  759DOPE   GL2 8905   9.019  13.613  10.067 -0.3673 -0.2512 -0.2167
  759DOPE   C1A 8906   9.443  13.949  10.035 -0.3644  0.1523 -0.0118
  759DOPE   D2A 8907   9.855  14.069  10.278  0.0367  0.0442 -0.0098
  759DOPE   C3A 8908   9.765  14.283  10.678  0.0762  0.0074  0.0376
  759DOPE   C4A 8909  10.035  14.310  11.063 -0.0592 -0.1172 -0.1253
  759DOPE   C1B 8910   8.918  13.208   9.961 -0.1829  0.0294 -0.1112
  759DOPE   D2B 8911   8.853  12.746  10.030 -0.0784 -0.0242 -0.1223
  759DOPE   C3B 8912   8.752  12.477  10.396 -0.3024 -0.1107  0.5413
  759DOPE   C4B 8913   8.703  12.091  10.654  0.0317 -0.0022  0.1953
  760POSM   NC3 8914  11.497  20.601   8.769 -0.1680 -0.1627 -0.1757
  760POSM   PO4 8915  11.470  20.958   8.665  0.2539  0.0023 -0.0534
  760POSM   AM1 8916  11.649  21.094   8.883 -0.1754  0.0674  0.1707
  760POSM   AM2 8917  11.693  21.045   9.145  0.0512  0.1385 -0.2786
  760POSM   T1A 8918  11.606  21.519   9.140 -0.1130  0.1192 -0.0290
  760POSM   C2A 8919  11.588  21.868   9.429  0.0313 -0.0792  0.2689
  760POSM   C3A 8920  11.859  21.887   9.821 -0.1167 -0.0580  0.1206
  760POSM   C1B 8921  11.522  21.054   9.454  0.1414  0.2487  0.2443
  760POSM   D2B 8922  11.503  21.372   9.783 -0.0974 -0.1513  0.0952
  760POSM   C3B 8923  11.693  21.557  10.156  0.0110  0.1516 -0.2299
  760POSM   C4B 8924  11.816  21.669  10.661  0.1843 -0.0118 -0.1185
  761DOPC   NC3 8925  10.998  19.902   8.886  0.0350 -0.3568 -0.1089
  761DOPC   PO4 8926  10.767  19.651   8.771  0.0356 -0.1946 -0.0650
  761DOPC   GL1 8927  10.926  19.541   9.133 -0.2491 -0.3863 -0.0170
  761DOPC   GL2 8928  10.730  19.782   9.306 -0.2438 -0.1755  0.0471
  761DOPC   C1A 8929  11.151  19.855   9.461  0.1902  0.3158  0.1624
  761DOPC   D2A 8930  11.309  20.041   9.855 -0.1167 -0.1761 -0.1253
  761DOPC   C3A 8931  11.162  19.751  10.240  0.0463  0.1008  0.0676
  761DOPC   C4A 8932  10.921  19.399  10.427 -0.1689  0.1837 -0.0159
  761DOPC   C1B 8933  10.332  19.792   9.598  0.1624 -0.1152  0.0914
  761DOPC   D2B 8934   9.876  19.967   9.647  0.1569 -0.0298  0.0790
  761DOPC   C3B 8935   9.572  19.958   9.979  0.1163  0.1821  0.0292
  761DOPC   C4B 8936   9.488  19.804  10.389 -0.2544 -0.2078 -0.0049
  762DOPC   NC3 8937   6.799  12.514  10.113  0.1783  0.1351  0.3185
  762DOPC   PO4 8938   6.911  12.472   9.689  0.2077 -0.1052 -0.2732
  762DOPC   GL1 8939   7.097  12.820   9.884 -0.2033  0.0582 -0.0086
  762DOPC   GL2 8940   7.365  12.927  10.085 -0.4004  0.3529 -0.3346
  762DOPC   C1A 8941   6.837  12.947  10.297  0.3694  0.0046 -0.3253
  762DOPC   D2A 8942   6.484  12.881  10.654 -0.0359 -0.3383  0.2333
  762DOPC   C3A 8943   6.603  12.979  11.066  0.0988 -0.0127 -0.1275
  762DOPC   C4A 8944   6.614  12.725  11.454  0.1473  0.1646 -0.0647
  762DOPC   C1B 8945   7.349  12.959  10.558  0.1537 -0.0724  0.2585
  762DOPC   D2B 8946   7.446  13.000  11.012 -0.0089  0.1929 -0.0143
  762DOPC   C3B 8947   7.058  13.058  11.270 -0.2136  0.0695 -0.0517
  762DOPC   C4B 8948   6.937  12.998  11.710 -0.1666 -0.1343 -0.3661
  763DOPE   NH3 8949   3.206  13.907  10.223 -0.0999 -0.1109  0.1148
  763DOPE   PO4 8950   3.255  14.221  10.183 -0.1118  0.2971  0.1933
  763DOPE   GL1 8951   3.501  14.102  10.499 -0.1129 -0.4232 -0.4606
  763DOPE   GL2 8952   3.382  13.948  10.698  0.2462  0.0056  0.2437
  763DOPE   C1A 8953   3.485  14.417  10.840  0.0851 -0.0438  0.0397
  763DOPE   D2A 8954   3.615  14.809  10.946  0.2131  0.0703 -0.1410
  763DOPE   C3A 8955   3.976  14.908  11.132 -0.0416 -0.3749 -0.0132
  763DOPE   C4A 8956   4.227  14.698  11.457 -0.2790  0.1538  0.2253
  763DOPE   C1B 8957   3.712  14.029  11.055 -0.3187  0.0739  0.0698
  763DOPE   D2B 8958   3.875  14.424  11.216  0.2321  0.2034  0.0549
  763DOPE   C3B 8959   3.719  14.641  11.570 -0.1856  0.1429 -0.4788
  763DOPE   C4B 8960   3.578  14.923  11.925  0.3305  0.1410 -0.0930
  764DOPE   NH3 8961   8.851  15.889   9.376 -0.2905 -0.1793  0.0762
  764DOPE   PO4 8962   8.665  15.612   9.368 -0.0791  0.0542 -0.0301
  764DOPE   GL1 8963   8.466  15.708   9.628 -0.3261 -0.1728  0.1663
  764DOPE   GL2 8964   8.280  15.482   9.638  0.2384  0.0664 -0.0676
  764DOPE   C1A 8965   8.250  15.892   9.965  0.0185  0.1081  0.0384
  764DOPE   D2A 8966   7.939  15.992  10.352  0.2389 -0.0630  0.1271
  764DOPE   C3A 8967   7.612  15.763  10.572  0.0199  0.4491 -0.0273
  764DOPE   C4A 8968   7.436  15.738  11.037 -0.0873  0.1072  0.2315
  764DOPE   C1B 8969   8.282  15.107   9.737 -0.0926  0.1710  0.0231
  764DOPE   D2B 8970   8.235  14.770  10.032 -0.1889  0.2635  0.0777
  764DOPE   C3B 8971   8.018  14.934  10.464 -0.2003  0.4201 -0.1683
  764DOPE   C4B 8972   8.200  15.263  10.822  0.0067  0.1149 -0.0694
  765POSM   NC3 8973   4.520  14.854   9.499  0.1803 -0.0907  0.1248
  765POSM   PO4 8974   4.761  15.158   9.528 -0.1355 -0.1120 -0.2229
  765POSM   AM1 8975   4.866  15.030   9.832  0.0469  0.5227 -0.1212
  765POSM   AM2 8976   4.774  14.860  10.063  0.1147  0.1264 -0.0733
  765POSM   T1A 8977   5.184  15.051  10.192  0.1100  0.0541  0.5175
  765POSM   C2A 8978   5.337  15.249  10.560 -0.1403 -0.4287 -0.1895
  765POSM   C3A 8979   5.445  15.667  10.753 -0.0280  0.1716 -0.4077
  765POSM   C1B 8980   4.723  14.965  10.382  0.3765 -0.2268  0.1234
  765POSM   D2B 8981   4.834  15.147  10.802  0.3072  0.1035  0.1427
  765POSM   C3B 8982   5.228  15.310  11.030 -0.0358 -0.1644  0.1651
  765POSM   C4B 8983   5.655  15.405  11.240 -0.4538  0.1962 -0.2642
  766POSM   NC3 8984   9.091  18.970   8.406  0.0858  0.0050  0.0632
  766POSM   PO4 8985   8.917  19.272   8.542  0.2118 -0.4318  0.3382
  766POSM   AM1 8986   8.896  19.407   8.859  0.0875  0.2112  0.0828
  766POSM   AM2 8987   8.961  19.326   9.129 -0.2410 -0.2702  0.0956
  766POSM   T1A 8988   8.560  19.681   9.105  0.0112 -0.0800  0.0540
  766POSM   C2A 8989   8.773  19.954   9.431  0.2226 -0.3965  0.2779
  766POSM   C3A 8990   9.230  19.889   9.534  0.3583 -0.0559  0.0238
  766POSM   C1B 8991   8.805  19.076   9.262 -0.0237 -0.2002 -0.0847
  766POSM   D2B 8992   8.609  18.949   9.688  0.0323 -0.2047 -0.3606
  766POSM   C3B 8993   8.205  19.159   9.950 -0.0340  0.2890 -0.0459
  766POSM   C4B 8994   7.728  19.099  10.087 -0.1562 -0.0657  0.3306
  767POSM   NC3 8995  34.763  19.905  10.421 -0.0488 -0.1533 -0.0453
  767POSM   PO4 8996  34.849  20.244  10.641  0.1285 -0.0202  0.0055
  767POSM   AM1 8997  35.041  20.341  10.924  0.1490 -0.2855 -0.2351
  767POSM   AM2 8998  35.113  20.525  11.092  0.2381 -0.2113 -0.0151
  767POSM   T1A 8999  35.205  20.119  11.331  0.0578 -0.1063  0.2256
  767POSM   C2A 9000  35.131  19.966  11.705  0.0100 -0.1016 -0.2272
  767POSM   C3A 9001  35.289  19.861  12.190  0.1177  0.2552  0.0862
  767POSM   C1B 9002  35.056  20.778  11.321 -0.1560 -0.0716 -0.3806
  767POSM   D2B 9003  35.180  20.935  11.774  0.1651 -0.0399 -0.1033
  767POSM   C3B 9004  34.968  20.943  12.156  0.0209  0.2912 -0.0615
  767POSM   C4B 9005  34.641  20.704  12.213  0.0060  0.2352 -0.0389
  768POSM   NC3 9006  13.864  13.398   8.822 -0.0357  0.0960  0.4877
  768POSM   PO4 9007  13.474  13.517   8.682 -0.1144  0.1291 -0.2038
  768POSM   AM1 9008  13.426  13.468   8.995 -0.0927 -0.0658 -0.0608
  768POSM   AM2 9009  13.497  13.276   9.125  0.1447 -0.1536  0.2681
  768POSM   T1A 9010  13.355  13.678   9.427 -0.2371 -0.3862  0.1876
  768POSM   C2A 9011  13.437  13.988   9.695 -0.2797 -0.1488  0.1514
  768POSM   C3A 9012  13.432  14.483   9.641  0.2564  0.2673 -0.0337
  768POSM   C1B 9013  13.534  13.158   9.443 -0.1697  0.1255  0.2280
  768POSM   D2B 9014  13.549  13.050   9.837  0.0903 -0.0942  0.2149
  768POSM   C3B 9015  13.902  13.227  10.130  0.0091 -0.1996  0.1915
  768POSM   C4B 9016  14.154  13.457  10.470  0.0175 -0.1925 -0.0193
  769DOPC   NC3 9017   3.859  14.939   9.979 -0.2592  0.0331 -0.0338
  769DOPC   PO4 9018   3.988  15.008   9.604  0.1560  0.1282 -0.1360
  769DOPC   GL1 9019   4.225  15.326   9.696 -0.2942  0.1090 -0.0636
  769DOPC   GL2 9020   4.390  15.133   9.885  0.2627  0.4248  0.1938
  769DOPC   C1A 9021   4.477  15.593   9.950 -0.1193  0.0410  0.1737
  769DOPC   D2A 9022   4.693  15.868  10.277 -0.0054 -0.0682 -0.1531
  769DOPC   C3A 9023   4.913  15.711  10.671  0.0343  0.0078 -0.1069
  769DOPC   C4A 9024   5.012  15.780  11.132 -0.2359  0.1832 -0.2612
  769DOPC   C1B 9025   4.153  15.241  10.227 -0.3047  0.2590  0.0159
  769DOPC   D2B 9026   4.399  15.510  10.594  0.1229  0.1519 -0.0399
  769DOPC   C3B 9027   4.439  15.431  11.030 -0.2531 -0.2062 -0.2450
  769DOPC   C4B 9028   4.777  15.349  11.334 -0.1088  0.0222  0.0860
  770DOPC   NC3 9029   8.622  14.125   9.695 -0.1472 -0.3190  0.1851
  770DOPC   PO4 9030   8.243  14.215   9.636  0.1560  0.1016  0.5553
  770DOPC   GL1 9031   8.183  14.097  10.023 -0.2530 -0.1218 -0.4622
  770DOPC   GL2 9032   7.952  13.899   9.950 -0.0384 -0.0280  0.3242
  770DOPC   C1A 9033   7.987  14.306  10.398  0.3401 -0.2794 -0.0153
  770DOPC   D2A 9034   7.704  14.589  10.682  0.2530 -0.0093 -0.1612
  770DOPC   C3A 9035   7.441  14.973  10.487  0.0017 -0.2795  0.0962
  770DOPC   C4A 9036   7.026  15.050  10.206  0.1613  0.0946  0.1582
  770DOPC   C1B 9037   8.172  13.755  10.331  0.1883 -0.1287  0.0121
  770DOPC   D2B 9038   8.127  13.263  10.314 -0.0383 -0.2342  0.0743
  770DOPC   C3B 9039   8.212  13.211  10.769  0.1281 -0.1607  0.2411
  770DOPC   C4B 9040   8.312  13.345  11.173 -0.1316 -0.1335  0.3064
  771DOPE   NH3 9041  12.573  20.262   8.726 -0.0080 -0.1558  0.0226
  771DOPE   PO4 9042  12.328  20.445   8.729  0.1604  0.3442  0.0900
  771DOPE   GL1 9043  12.211  20.387   9.120 -0.3296 -0.1091  0.0111
  771DOPE   GL2 9044  12.347  20.605   9.229  0.0423 -0.1985  0.0829
  771DOPE   C1A 9045  11.852  20.574   9.364  0.0038 -0.0177  0.0678
  771DOPE   D2A 9046  11.896  20.687   9.789  0.1358  0.1723  0.2390
  771DOPE   C3A 9047  11.698  20.329  10.049  0.2739 -0.0536  0.1906
  771DOPE   C4A 9048  11.345  20.182  10.377 -0.2035  0.2200 -0.0070
  771DOPE   C1B 9049  12.121  20.982   9.415 -0.0057  0.2162 -0.2904
  771DOPE   D2B 9050  12.004  21.313   9.666  0.1458 -0.0258  0.0955
  771DOPE   C3B 9051  11.900  21.108  10.068 -0.0485  0.2378  0.3679
  771DOPE   C4B 9052  11.770  21.143  10.488  0.0260 -0.3341 -0.0953
  772DOPC   NC3 9053  10.276  22.859   9.117  0.1098  0.0926  0.2063
  772DOPC   PO4 9054  10.071  22.527   9.028  0.3052  0.1031 -0.1171
  772DOPC   GL1 9055   9.927  22.384   9.363  0.3037 -0.2303 -0.1060
  772DOPC   GL2 9056  10.152  22.492   9.536 -0.2033  0.0576 -0.1737
  772DOPC   C1A 9057   9.703  22.726   9.645 -0.3693  0.2285  0.0527
  772DOPC   D2A 9058   9.455  23.047   9.862  0.2739  0.0508  0.0143
  772DOPC   C3A 9059   9.337  23.127  10.290  0.0495  0.0458  0.1661
  772DOPC   C4A 9060   9.150  22.995  10.717  0.0151 -0.2082 -0.0676
  772DOPC   C1B 9061  10.312  22.178   9.810 -0.0499  0.0757  0.2457
  772DOPC   D2B 9062  10.218  22.156  10.240 -0.0416  0.1845  0.3870
  772DOPC   C3B 9063  10.614  22.220  10.477  0.3470  0.3793  0.1896
  772DOPC   C4B 9064  11.048  22.145  10.505  0.1531  0.0617  0.2583
  773DOPC   NC3 9065  12.047  22.078   8.381  0.2526 -0.1897  0.2595
  773DOPC   PO4 9066  12.147  21.745   8.581 -0.2452  0.0382 -0.0515
  773DOPC   GL1 9067  12.278  21.396   8.847  0.4302  0.1839 -0.2611
  773DOPC   GL2 9068  12.073  21.358   9.038  0.3251 -0.2472  0.1019
  773DOPC   C1A 9069  12.438  21.379   9.310 -0.2271 -0.2051 -0.0607
  773DOPC   D2A 9070  12.602  21.412   9.761 -0.2040 -0.0937  0.2309
  773DOPC   C3A 9071  12.219  21.495  10.084  0.0733 -0.0860  0.1488
  773DOPC   C4A 9072  12.082  21.900  10.299 -0.0360  0.1847  0.2671
  773DOPC   C1B 9073  12.022  21.783   9.257 -0.2894  0.2790  0.0799
  773DOPC   D2B 9074  12.327  21.861   9.539  0.1540 -0.1513  0.0890
  773DOPC   C3B 9075  12.311  22.178   9.835 -0.1633  0.0885 -0.1390
  773DOPC   C4B 9076  12.249  22.384  10.249 -0.1854 -0.1275 -0.0279
  774DOPS   CNO 9077  10.583  26.093   8.928 -0.0192  0.0160  0.3358
  774DOPS   PO4 9078  10.813  25.921   9.176 -0.0350 -0.1320 -0.3945
  774DOPS   GL1 9079  10.675  25.843   9.548  0.0366  0.0847 -0.0813
  774DOPS   GL2 9080  10.634  25.968   9.746 -0.0060  0.0240 -0.0136
  774DOPS   C1A 9081  10.606  25.514   9.858 -0.2190  0.1129  0.3409
  774DOPS   D2A 9082  10.839  25.254  10.234  0.0086  0.2207  0.0072
  774DOPS   C3A 9083  10.686  24.948  10.567 -0.1072  0.1183  0.0783
  774DOPS   C4A 9084  10.802  24.730  10.946  0.3115  0.1609 -0.1315
  774DOPS   C1B 9085  10.744  26.039  10.237 -0.0204 -0.0468  0.1427
  774DOPS   D2B 9086  10.888  26.049  10.720 -0.0116  0.0100 -0.1632
  774DOPS   C3B 9087  10.941  25.656  10.917  0.0909 -0.0937 -0.1786
  774DOPS   C4B 9088  10.853  25.525  11.338 -0.1879  0.1744  0.2965
  775POSM   NC3 9089  10.925  17.273   9.030  0.1548 -0.1214  0.0297
  775POSM   PO4 9090  10.625  17.041   8.964  0.2780  0.0666 -0.2814
  775POSM   AM1 9091  10.608  17.148   9.297  0.0266 -0.1974  0.0193
  775POSM   AM2 9092  10.573  17.400   9.466  0.0244  0.0103  0.2076
  775POSM   T1A 9093  10.672  16.938   9.749  0.0337 -0.0736 -0.1889
  775POSM   C2A 9094  10.816  16.827  10.148  0.1279  0.1866  0.0778
  775POSM   C3A 9095  10.915  16.652  10.540 -0.2479  0.3014 -0.1364
  775POSM   C1B 9096  10.886  17.522   9.560 -0.1842  0.1597  0.1078
  775POSM   D2B 9097  11.218  17.625   9.908  0.3999 -0.0488  0.0129
  775POSM   C3B 9098  11.533  17.926  10.140 -0.1280 -0.0833  0.0742
  775POSM   C4B 9099  11.512  18.201  10.553  0.0827 -0.2456  0.0806
  776DOPS   CNO 9100   9.144  21.869   8.803  0.0241 -0.1712 -0.3030
  776DOPS   PO4 9101   9.394  22.107   8.947  0.2522  0.0592 -0.1473
  776DOPS   GL1 9102   9.206  22.247   9.283 -0.0609 -0.0259  0.3786
  776DOPS   GL2 9103   9.398  22.311   9.538 -0.0468 -0.2706  0.2250
  776DOPS   C1A 9104   8.930  22.158   9.689 -0.0163 -0.3337 -0.1814
  776DOPS   D2A 9105   8.691  22.291  10.091 -0.4184  0.1928  0.0733
  776DOPS   C3A 9106   8.750  22.175  10.527 -0.3778 -0.0018  0.2875
  776DOPS   C4A 9107   9.011  22.271  10.902 -0.3872 -0.0756 -0.1593
  776DOPS   C1B 9108   9.183  22.575   9.884 -0.0021  0.2356  0.1989
  776DOPS   D2B 9109   9.035  22.563  10.333 -0.0891  0.2351 -0.3913
  776DOPS   C3B 9110   8.744  22.674  10.677 -0.0603  0.0163 -0.3701
  776DOPS   C4B 9111   8.819  22.807  11.054  0.3376 -0.2558  0.1133
  777POSM   NC3 9112   4.806  17.892   8.990 -0.0338  0.0885 -0.3012
  777POSM   PO4 9113   4.555  18.123   9.159 -0.0584  0.0879  0.0855
  777POSM   AM1 9114   4.559  18.029   9.485 -0.3075 -0.3199 -0.1209
  777POSM   AM2 9115   4.786  18.036   9.661 -0.1066  0.0546 -0.3191
  777POSM   T1A 9116   4.451  17.774   9.893 -0.3189 -0.1041 -0.0621
  777POSM   C2A 9117   4.453  17.509  10.270  0.1515 -0.1057  0.2657
  777POSM   C3A 9118   4.327  17.662  10.721 -0.2649  0.4943  0.1302
  777POSM   C1B 9119   4.832  18.051   9.981  0.1510  0.1145  0.0016
  777POSM   D2B 9120   4.690  17.972  10.465 -0.3047  0.2587  0.2553
  777POSM   C3B 9121   4.976  18.299  10.596 -0.0562 -0.1813 -0.3729
  777POSM   C4B 9122   5.143  18.663  10.890 -0.1224  0.0568 -0.0394
  778DOPC   NC3 9123   7.802  20.148   9.313  0.0284  0.2328  0.0264
  778DOPC   PO4 9124   7.721  19.834   9.121 -0.0139 -0.0944 -0.1346
  778DOPC   GL1 9125   7.938  19.665   9.397  0.3031 -0.0594 -0.5241
  778DOPC   GL2 9126   8.020  19.397   9.287  0.0813 -0.0524  0.0374
  778DOPC   C1A 9127   7.927  19.483   9.785  0.2717 -0.0281 -0.0532
  778DOPC   D2A 9128   8.124  19.612  10.152  0.2646 -0.1551  0.1727
  778DOPC   C3A 9129   8.099  19.899  10.482  0.0886 -0.1886 -0.0999
  778DOPC   C4A 9130   8.304  20.087  10.795 -0.1125 -0.1794 -0.1168
  778DOPC   C1B 9131   8.354  19.425   9.521 -0.0066  0.0590  0.2135
  778DOPC   D2B 9132   8.671  19.667   9.819  0.1648  0.1144 -0.1465
  778DOPC   C3B 9133   8.641  19.479  10.236  0.0106  0.1319  0.1419
  778DOPC   C4B 9134   8.371  19.176  10.447 -0.0442 -0.0537  0.1451
  779DOPC   NC3 9135   9.502  18.227   9.509  0.2512 -0.2070  0.2782
  779DOPC   PO4 9136   9.629  18.232   9.149 -0.1830  0.0541 -0.0481
  779DOPC   GL1 9137   9.939  18.384   9.377  0.1456  0.0459  0.1293
  779DOPC   GL2 9138  10.219  18.305   9.264  0.0375 -0.1356 -0.0759
  779DOPC   C1A 9139  10.134  18.790   9.515 -0.0567  0.0125  0.0301
  779DOPC   D2A 9140  10.465  18.908   9.785  0.0985 -0.1804  0.0486
  779DOPC   C3A 9141  10.375  18.693  10.177 -0.0181 -0.1297 -0.1025
  779DOPC   C4A 9142  10.051  18.446  10.272  0.0129 -0.0535  0.1578
  779DOPC   C1B 9143  10.494  18.047   9.523 -0.0973 -0.1508 -0.0258
  779DOPC   D2B 9144  10.578  17.827   9.897 -0.0369 -0.2620 -0.1250
  779DOPC   C3B 9145  10.187  17.963  10.160  0.0785  0.0537 -0.0167
  779DOPC   C4B 9146   9.793  17.914  10.282  0.1600 -0.2127  0.0680
  780DOPC   NC3 9147   1.414  13.744  10.202 -0.0106  0.0901 -0.4030
  780DOPC   PO4 9148   1.317  13.785  10.594 -0.3050 -0.0477 -0.1682
  780DOPC   GL1 9149   1.295  13.728  11.044  0.0874 -0.1749 -0.2905
  780DOPC   GL2 9150   1.283  13.478  11.216 -0.0856  0.1677  0.0404
  780DOPC   C1A 9151   1.466  14.032  11.362 -0.3580 -0.0331  0.2641
  780DOPC   D2A 9152   1.743  14.200  11.722  0.3554 -0.0274 -0.3033
  780DOPC   C3A 9153   2.126  14.004  11.810  0.2445 -0.1709 -0.0804
  780DOPC   C4A 9154   2.310  13.806  12.247 -0.0674 -0.3616  0.0149
  780DOPC   C1B 9155   1.580  13.602  11.569  0.0273  0.1149 -0.1201
  780DOPC   D2B 9156   1.793  13.702  12.024  0.0446  0.1300  0.1364
  780DOPC   C3B 9157   1.634  13.396  12.286 -0.0462 -0.1704  0.3015
  780DOPC   C4B 9158   1.279  13.222  12.554 -0.0393 -0.0331 -0.2835
  781POSM   NC3 9159  11.067  24.895   8.361 -0.2305 -0.1008 -0.4289
  781POSM   PO4 9160  11.077  24.564   8.532 -0.3452 -0.3024 -0.2357
  781POSM   AM1 9161  10.954  24.528   8.811  0.0277  0.2470 -0.4312
  781POSM   AM2 9162  10.702  24.449   8.906 -0.2536 -0.1766  0.1037
  781POSM   T1A 9163  10.925  24.296   9.285 -0.0796  0.0214 -0.1100
  781POSM   C2A 9164  10.823  24.426   9.720 -0.1746 -0.3434 -0.2046
  781POSM   C3A 9165  10.707  24.596  10.187 -0.0191  0.1533  0.3416
  781POSM   C1B 9166  10.505  24.603   9.139 -0.1944 -0.0737  0.0606
  781POSM   D2B 9167  10.428  24.643   9.539  0.1203 -0.3120  0.2129
  781POSM   C3B 9168  10.314  24.455   9.931 -0.2465 -0.0097 -0.1067
  781POSM   C4B 9169  10.049  24.319  10.281  0.1491  0.1475  0.2824
  782POSM   NC3 9170   4.642  16.720   9.711  0.0042 -0.2193  0.0474
  782POSM   PO4 9171   4.329  16.621   9.497  0.1507  0.0119 -0.3494
  782POSM   AM1 9172   4.381  16.298   9.665 -0.1280  0.0123  0.0141
  782POSM   AM2 9173   4.662  16.173   9.752  0.1456  0.1257  0.0768
  782POSM   T1A 9174   4.247  16.032  10.074  0.1163 -0.3066 -0.0246
  782POSM   C2A 9175   4.266  15.981  10.550  0.3827 -0.1884  0.2706
  782POSM   C3A 9176   4.463  15.945  10.962 -0.2942 -0.2249  0.1836
  782POSM   C1B 9177   4.716  16.308  10.062 -0.3166  0.0534  0.0036
  782POSM   D2B 9178   4.660  16.351  10.495 -0.0089 -0.0552  0.3105
  782POSM   C3B 9179   4.853  16.526  10.913  0.4189 -0.1919  0.2483
  782POSM   C4B 9180   4.951  16.297  11.291 -0.0473 -0.0427 -0.1350
  783DOPE   NH3 9181   7.909  17.402   8.978  0.1118 -0.2323 -0.1778
  783DOPE   PO4 9182   7.675  17.594   9.125  0.4130  0.1159  0.0185
  783DOPE   GL1 9183   7.915  17.686   9.385  0.2677  0.2837  0.0601
  783DOPE   GL2 9184   8.141  17.555   9.406 -0.0053  0.1576  0.1300
  783DOPE   C1A 9185   7.915  18.155   9.505 -0.0703 -0.1652 -0.1573
  783DOPE   D2A 9186   7.736  18.587   9.731  0.1049  0.3747 -0.4639
  783DOPE   C3A 9187   7.661  18.585  10.208 -0.1275 -0.3318 -0.3370
  783DOPE   C4A 9188   7.494  18.697  10.636  0.1172  0.1676 -0.0659
  783DOPE   C1B 9189   8.131  17.824   9.781  0.0900  0.0777  0.2824
  783DOPE   D2B 9190   8.067  18.146  10.050  0.1621 -0.3613 -0.3266
  783DOPE   C3B 9191   7.721  18.116  10.394  0.3565 -0.0590 -0.0166
  783DOPE   C4B 9192   7.383  17.929  10.656  0.0197  0.1368  0.1640
  784DOPS   CNO 9193  14.290  14.971   7.888 -0.0588 -0.0900  0.1102
  784DOPS   PO4 9194  14.374  15.006   8.265 -0.2462  0.2632 -0.2222
  784DOPS   GL1 9195  14.487  15.138   8.566 -0.3761  0.0845  0.3643
  784DOPS   GL2 9196  14.723  15.318   8.642 -0.3050 -0.0606  0.1531
  784DOPS   C1A 9197  14.390  15.290   9.014 -0.3696  0.0429 -0.0525
  784DOPS   D2A 9198  14.323  15.401   9.469  0.0616  0.3069 -0.1045
  784DOPS   C3A 9199  14.593  15.410   9.835 -0.1152  0.1094  0.3009
  784DOPS   C4A 9200  14.983  15.554   9.951 -0.2027  0.1019  0.0398
  784DOPS   C1B 9201  14.590  15.675   8.867  0.2751 -0.0410 -0.2057
  784DOPS   D2B 9202  14.332  15.860   9.195  0.0425 -0.0223  0.0356
  784DOPS   C3B 9203  14.561  16.178   9.413 -0.0106  0.0921  0.2804
  784DOPS   C4B 9204  14.789  16.174   9.840 -0.3856 -0.0677  0.3203
  785DOPE   NH3 9205  13.659  23.584   9.068  0.4086  0.1594  0.0257
  785DOPE   PO4 9206  13.899  23.818   9.166 -0.1307 -0.0556 -0.0123
  785DOPE   GL1 9207  14.160  23.812   9.516 -0.0024  0.4693  0.2150
  785DOPE   GL2 9208  14.374  24.082   9.436  0.0465  0.0972 -0.1376
  785DOPE   C1A 9209  14.302  23.406   9.683 -0.1699 -0.0138  0.0193
  785DOPE   D2A 9210  14.547  23.112   9.936 -0.3140 -0.2375  0.1018
  785DOPE   C3A 9211  14.339  23.123  10.337  0.0909 -0.2509  0.0492
  785DOPE   C4A 9212  13.910  23.094  10.547  0.2541 -0.2799 -0.0470
  785DOPE   C1B 9213  14.248  24.064   9.909 -0.0192 -0.1984 -0.1074
  785DOPE   D2B 9214  13.786  24.134  10.011  0.0615 -0.1221 -0.0765
  785DOPE   C3B 9215  13.648  23.751  10.185  0.1621  0.0844  0.1182
  785DOPE   C4B 9216  13.417  23.458  10.448 -0.0142 -0.1086 -0.3348
  786DOPC   NC3 9217   3.769  19.916   9.544 -0.3257  0.2156 -0.0755
  786DOPC   PO4 9218   3.820  20.338   9.578  0.1208  0.1469  0.0904
  786DOPC   GL1 9219   4.041  20.115   9.845 -0.0307  0.0588  0.0107
  786DOPC   GL2 9220   3.903  20.130  10.102  0.0789 -0.0464  0.3087
  786DOPC   C1A 9221   4.192  19.745  10.116  0.1296  0.0133 -0.1283
  786DOPC   D2A 9222   4.367  19.438  10.358  0.2082  0.0029 -0.0387
  786DOPC   C3A 9223   4.665  19.047  10.233  0.1000 -0.2535 -0.1091
  786DOPC   C4A 9224   4.908  18.634  10.084 -0.1155  0.0253  0.0003
  786DOPC   C1B 9225   3.696  19.896  10.407 -0.0413 -0.0141  0.0783
  786DOPC   D2B 9226   3.309  19.871  10.609 -0.2985  0.3783  0.1958
  786DOPC   C3B 9227   3.296  19.789  11.059  0.3329  0.0942  0.1295
  786DOPC   C4B 9228   3.151  19.994  11.455 -0.0508 -0.2816 -0.3438
  787DOPC   NC3 9229   5.727  14.070   9.396  0.1064 -0.0968  0.0434
  787DOPC   PO4 9230   5.876  14.321   9.157 -0.0255 -0.2852 -0.0017
  787DOPC   GL1 9231   5.870  14.458   9.521 -0.0963 -0.2008  0.3758
  787DOPC   GL2 9232   5.669  14.511   9.687 -0.3735  0.1101  0.0357
  787DOPC   C1A 9233   6.100  14.663   9.878  0.0909 -0.1659  0.2910
  787DOPC   D2A 9234   6.478  14.920   9.936 -0.2910 -0.0302  0.3994
  787DOPC   C3A 9235   6.531  14.898  10.404 -0.0133  0.0628 -0.1223
  787DOPC   C4A 9236   6.412  15.102  10.755  0.1115 -0.0420 -0.0059
  787DOPC   C1B 9237   5.623  14.828  10.038 -0.1865  0.0350 -0.0071
  787DOPC   D2B 9238   5.649  15.310  10.164  0.2987  0.2752  0.0368
  787DOPC   C3B 9239   5.887  15.314  10.547  0.0007 -0.2546 -0.0350
  787DOPC   C4B 9240   6.120  15.411  10.964 -0.2144 -0.0295  0.3342
  788POSM   NC3 9241  13.018  16.345   7.991 -0.2907  0.0642  0.1675
  788POSM   PO4 9242  13.032  16.069   8.240 -0.1032 -0.0034 -0.2479
  788POSM   AM1 9243  13.128  16.203   8.520  0.3335 -0.2848  0.2146
  788POSM   AM2 9244  13.231  16.413   8.663  0.4728  0.0503 -0.1458
  788POSM   T1A 9245  13.162  16.103   9.007  0.0680 -0.2264  0.0634
  788POSM   C2A 9246  13.070  15.932   9.469  0.0718  0.0930 -0.1198
  788POSM   C3A 9247  12.834  15.836   9.899  0.3373 -0.1518  0.1524
  788POSM   C1B 9248  13.010  16.620   8.869 -0.0888 -0.0109 -0.1454
  788POSM   D2B 9249  12.861  16.955   9.174 -0.0109  0.1536 -0.0587
  788POSM   C3B 9250  13.100  16.940   9.560  0.1685 -0.0986 -0.0372
  788POSM   C4B 9251  13.001  16.996   9.999 -0.1169 -0.0779 -0.0454
  789POSM   NC3 9252  34.162  20.912  10.462  0.1821 -0.2111 -0.0953
  789POSM   PO4 9253  33.925  20.638  10.617 -0.0082  0.5091 -0.2180
  789POSM   AM1 9254  34.097  20.733  10.873  0.1211  0.1941  0.0281
  789POSM   AM2 9255  34.387  20.809  10.888 -0.1216 -0.1253  0.1975
  789POSM   T1A 9256  34.254  20.593  11.279 -0.0602 -0.0568 -0.4146
  789POSM   C2A 9257  34.619  20.581  11.461 -0.1383  0.1608  0.0199
  789POSM   C3A 9258  34.949  20.457  11.808 -0.1678 -0.0119  0.0232
  789POSM   C1B 9259  34.592  20.968  11.110  0.1076  0.1425  0.1233
  789POSM   D2B 9260  34.689  21.129  11.540  0.3292 -0.0153 -0.1371
  789POSM   C3B 9261  34.776  21.440  11.827  0.0303 -0.0162  0.0390
  789POSM   C4B 9262  34.809  21.831  12.136 -0.1342  0.1336  0.2153
  790DOPS   CNO 9263   9.210  16.231   8.986 -0.2804  0.1746 -0.1583
  790DOPS   PO4 9264   9.287  16.147   9.329 -0.0875 -0.1412 -0.1669
  790DOPS   GL1 9265   9.294  16.086   9.679 -0.5257  0.1222  0.1232
  790DOPS   GL2 9266   9.463  15.847   9.778  0.1999 -0.0642 -0.2438
  790DOPS   C1A 9267   9.287  16.335  10.105  0.0328  0.2281  0.4122
  790DOPS   D2A 9268   9.309  16.357  10.537  0.3279 -0.2747  0.1650
  790DOPS   C3A 9269   9.172  15.961  10.702  0.1081  0.0786 -0.1742
  790DOPS   C4A 9270   9.182  15.570  10.985 -0.1084  0.2542 -0.4301
  790DOPS   C1B 9271   9.476  15.553  10.091 -0.2324 -0.2539  0.0358
  790DOPS   D2B 9272   9.653  15.481  10.488 -0.0805  0.0576  0.1084
  790DOPS   C3B 9273   9.649  15.718  10.828 -0.0153  0.1805  0.0975
  790DOPS   C4B 9274   9.710  16.149  10.830  0.2479 -0.1604  0.2440
  791POSM   NC3 9275   3.357  13.140  10.017  0.0997 -0.0097 -0.2406
  791POSM   PO4 9276   3.416  13.540   9.902  0.2178 -0.0832 -0.0600
  791POSM   AM1 9277   3.530  13.592  10.199  0.1558 -0.0140 -0.1548
  791POSM   AM2 9278   3.537  13.556  10.463  0.2998  0.2955  0.1525
  791POSM   T1A 9279   3.920  13.872  10.430  0.1577  0.0792 -0.1459
  791POSM   C2A 9280   3.941  14.248  10.702  0.0948  0.0626 -0.5402
  791POSM   C3A 9281   4.017  14.651  10.708  0.0154  0.1374  0.0021
  791POSM   C1B 9282   3.715  13.537  10.752 -0.1717  0.1060 -0.1946
  791POSM   D2B 9283   3.823  13.568  11.205  0.0349  0.0412 -0.3213
  791POSM   C3B 9284   3.988  13.835  11.533  0.1326 -0.1654 -0.0992
  791POSM   C4B 9285   4.001  14.246  11.759 -0.0164 -0.0748 -0.2614
  792DOPE   NH3 9286   5.164  25.000   9.586 -0.0035  0.3395 -0.0982
  792DOPE   PO4 9287   5.115  24.959   9.875  0.2993 -0.1554 -0.0910
  792DOPE   GL1 9288   5.072  24.969  10.170 -0.0228  0.1407  0.1236
  792DOPE   GL2 9289   4.918  25.060  10.445 -0.2020 -0.1384  0.2570
  792DOPE   C1A 9290   5.123  24.624  10.480  0.1630 -0.2030 -0.1757
  792DOPE   D2A 9291   5.191  24.336  10.815 -0.0739 -0.1449 -0.2190
  792DOPE   C3A 9292   5.057  24.195  11.230 -0.0120  0.4043 -0.1369
  792DOPE   C4A 9293   4.730  24.216  11.545  0.3655  0.0701  0.0274
  792DOPE   C1B 9294   5.009  24.883  10.851  0.1259 -0.1535 -0.2673
  792DOPE   D2B 9295   4.786  24.761  11.253  0.0822  0.1607 -0.0847
  792DOPE   C3B 9296   5.062  25.116  11.437 -0.1148  0.0541  0.1558
  792DOPE   C4B 9297   4.929  25.502  11.615  0.2283  0.1181 -0.0285
  793DOPE   NH3 9298   1.462  16.271  10.381  0.1418  0.2437 -0.0401
  793DOPE   PO4 9299   1.600  16.518  10.571  0.2754 -0.0379 -0.0694
  793DOPE   GL1 9300   1.634  16.682  10.960 -0.3063  0.1104  0.0463
  793DOPE   GL2 9301   1.608  16.392  11.042  0.1030 -0.0126  0.0878
  793DOPE   C1A 9302   1.792  16.895  11.324 -0.0834 -0.2046  0.0382
  793DOPE   D2A 9303   2.137  17.164  11.481  0.0659  0.2362  0.1661
  793DOPE   C3A 9304   2.113  17.553  11.259  0.2658 -0.1495 -0.3817
  793DOPE   C4A 9305   2.090  17.842  10.948  0.1959 -0.2762  0.0799
  793DOPE   C1B 9306   1.563  15.976  11.285 -0.0002 -0.1761 -0.1208
  793DOPE   D2B 9307   1.540  15.801  11.714 -0.0175 -0.0566 -0.0587
  793DOPE   C3B 9308   1.603  15.660  12.159  0.0563 -0.3106 -0.1106
  793DOPE   C4B 9309   1.711  15.687  12.617 -0.1251  0.3296 -0.2294
  794DOPE   NH3 9310   2.265  16.812  10.052 -0.0513  0.1006  0.0206
  794DOPE   PO4 9311   2.175  16.561  10.227 -0.0570 -0.2178 -0.2287
  794DOPE   GL1 9312   2.392  16.342  10.361  0.0803  0.0225  0.3578
  794DOPE   GL2 9313   2.435  16.076  10.391  0.1849  0.1232 -0.2027
  794DOPE   C1A 9314   2.503  16.376  10.777  0.1104 -0.1717  0.3666
  794DOPE   D2A 9315   2.568  16.672  11.097 -0.0349  0.0104  0.1814
  794DOPE   C3A 9316   2.400  16.643  11.521  0.1184  0.0543 -0.0946
  794DOPE   C4A 9317   2.093  16.740  11.802 -0.1608  0.1508 -0.3614
  794DOPE   C1B 9318   2.467  15.874  10.788 -0.1420  0.1075 -0.0333
  794DOPE   D2B 9319   2.777  15.755  11.098  0.0871 -0.0978 -0.2722
  794DOPE   C3B 9320   2.596  15.726  11.489 -0.0147 -0.2022  0.2414
  794DOPE   C4B 9321   2.510  15.626  11.927  0.1028 -0.0899 -0.1317
  795DOPS   CNO 9322   3.301  14.851  10.095 -0.1297  0.1809  0.2013
  795DOPS   PO4 9323   3.428  15.230  10.046  0.1735 -0.0018 -0.5756
  795DOPS   GL1 9324   3.545  15.276  10.427  0.3139  0.2059  0.1473
  795DOPS   GL2 9325   3.380  15.052  10.572  0.2394 -0.0178  0.0857
  795DOPS   C1A 9326   3.918  15.115  10.656  0.1164 -0.1103  0.1017
  795DOPS   D2A 9327   4.383  15.043  10.754  0.0192 -0.0520 -0.0398
  795DOPS   C3A 9328   4.574  14.871  11.144 -0.2059  0.2663  0.1259
  795DOPS   C4A 9329   4.726  14.663  11.516 -0.1247  0.1843  0.2512
  795DOPS   C1B 9330   3.103  14.890  10.926  0.0477 -0.3071  0.4015
  795DOPS   D2B 9331   2.757  14.758  11.174 -0.0905 -0.1063 -0.1305
  795DOPS   C3B 9332   2.856  14.905  11.592 -0.0542 -0.2809  0.0358
  795DOPS   C4B 9333   3.078  15.113  11.956  0.1139 -0.1036  0.2556
  796POSM   NC3 9334   7.737  16.138   8.692  0.1267  0.1891 -0.1817
  796POSM   PO4 9335   7.590  16.211   9.041  0.1284  0.0553 -0.1617
  796POSM   AM1 9336   7.432  16.230   9.336 -0.1117  0.0470 -0.2778
  796POSM   AM2 9337   7.587  16.265   9.606  0.0511  0.3257  0.3040
  796POSM   T1A 9338   7.198  15.919   9.684  0.2678 -0.1918  0.1042
  796POSM   C2A 9339   6.947  15.749  10.094 -0.2410 -0.2849  0.0720
  796POSM   C3A 9340   6.466  15.787  10.009 -0.2421  0.0231  0.1126
  796POSM   C1B 9341   7.721  16.018   9.805 -0.0977 -0.1037  0.1668
  796POSM   D2B 9342   7.855  15.621  10.010  0.2838 -0.0113 -0.0716
  796POSM   C3B 9343   7.967  15.429  10.343 -0.5393 -0.3429 -0.0052
  796POSM   C4B 9344   7.749  15.303  10.754  0.4396 -0.0646 -0.3863
  797POSM   NC3 9345   9.867  14.348   9.345  0.0506  0.4167  0.2531
  797POSM   PO4 9346  10.107  14.290   9.052  0.1697  0.1217  0.1361
  797POSM   AM1 9347  10.326  14.387   9.298 -0.0051  0.2352 -0.0972
  797POSM   AM2 9348  10.332  14.210   9.549 -0.1418 -0.2898 -0.1643
  797POSM   T1A 9349  10.556  14.583   9.722  0.0566 -0.0156  0.0391
  797POSM   C2A 9350  10.487  14.552  10.200 -0.1889 -0.0983 -0.0618
  797POSM   C3A 9351  10.240  14.447  10.579 -0.2072 -0.1762 -0.0975
  797POSM   C1B 9352  10.369  14.114   9.902  0.3249 -0.0801 -0.0409
  797POSM   D2B 9353  10.386  14.023  10.353  0.0462 -0.0395  0.0973
  797POSM   C3B 9354  10.411  13.645  10.626  0.1031 -0.0951 -0.2384
  797POSM   C4B 9355  10.328  13.284  10.876  0.0883 -0.0813 -0.1326
  798DOPE   NH3 9356  11.930  13.677   8.801  0.0429 -0.4971 -0.1595
  798DOPE   PO4 9357  11.671  13.691   8.671  0.3115 -0.1426 -0.0707
  798DOPE   GL1 9358  11.436  13.922   8.894  0.1245  0.0028  0.1973
  798DOPE   GL2 9359  11.663  14.136   8.938 -0.0327  0.1817  0.1320
  798DOPE   C1A 9360  11.224  13.853   9.333 -0.2211  0.0959 -0.1758
  798DOPE   D2A 9361  11.122  13.804   9.762 -0.1155  0.1360  0.0900
  798DOPE   C3A 9362  11.038  13.413   9.936 -0.1382 -0.0181  0.1592
  798DOPE   C4A 9363  11.037  13.213  10.359  0.1611 -0.1550 -0.0410
  798DOPE   C1B 9364  11.995  14.218   9.229 -0.0536  0.1385 -0.1938
  798DOPE   D2B 9365  12.390  14.425   9.436  0.3923 -0.0796  0.1253
  798DOPE   C3B 9366  12.758  14.144   9.520 -0.2435  0.1477  0.3774
  798DOPE   C4B 9367  13.156  14.077   9.271  0.3054  0.1833  0.1190
  799DOPS   CNO 9368   0.434  21.106  10.358 -0.3205 -0.3348  0.0600
  799DOPS   PO4 9369   0.587  21.317  10.624 -0.2188 -0.0653  0.1797
  799DOPS   GL1 9370   0.403  21.595  10.759  0.2059  0.1056  0.1070
  799DOPS   GL2 9371   0.123  21.451  10.869  0.0052 -0.0364 -0.3597
  799DOPS   C1A 9372   0.323  22.014  10.918  0.3965 -0.2531 -0.0788
  799DOPS   D2A 9373   0.354  22.427  10.765  0.1659 -0.0905 -0.3027
  799DOPS   C3A 9374   0.620  22.381  11.158  0.0724 -0.0809 -0.0914
  799DOPS   C4A 9375   0.641  22.155  11.532 -0.3768  0.0146  0.0849
  799DOPS   C1B 9376   0.301  21.238  11.278 -0.0795  0.3512 -0.3876
  799DOPS   D2B 9377   0.489  21.407  11.693  0.0085 -0.2204 -0.3546
  799DOPS   C3B 9378   0.377  21.451  12.135 -0.1219  0.1451  0.2962
  799DOPS   C4B 9379   0.368  21.586  12.631 -0.1786  0.3334 -0.3083
  800DOPE   NH3 9380   7.198  20.623   9.267 -0.0938 -0.2373  0.1638
  800DOPE   PO4 9381   7.527  20.664   9.223 -0.0890  0.1962  0.1177
  800DOPE   GL1 9382   7.743  20.766   9.504  0.0485  0.3218  0.1237
  800DOPE   GL2 9383   7.779  21.053   9.358 -0.1246 -0.2076  0.2830
  800DOPE   C1A 9384   7.642  20.624   9.932  0.0933 -0.1437 -0.3504
  800DOPE   D2A 9385   7.889  20.285  10.203  0.3414 -0.0626 -0.0641
  800DOPE   C3A 9386   8.323  20.246  10.261  0.4201  0.1574  0.2437
  800DOPE   C4A 9387   8.666  20.021  10.313  0.1298 -0.1842 -0.1551
  800DOPE   C1B 9388   8.054  21.026   9.728  0.1553 -0.1286  0.0591
  800DOPE   D2B 9389   8.484  21.159   9.966 -0.0120 -0.1013 -0.0955
  800DOPE   C3B 9390   8.549  21.147  10.443  0.0456  0.0194  0.0294
  800DOPE   C4B 9391   8.718  21.311  10.811  0.2381 -0.1951 -0.0656
  801POSM   NC3 9392   0.831  14.985  11.302  0.1727 -0.1890 -0.2722
  801POSM   PO4 9393   0.429  15.040  11.377 -0.1239 -0.4243 -0.1650
  801POSM   AM1 9394   0.583  15.185  11.625 -0.1610 -0.0276 -0.3081
  801POSM   AM2 9395   0.609  15.093  11.854  0.2045 -0.0999 -0.2141
  801POSM   T1A 9396   0.606  15.637  11.878 -0.0298  0.2156 -0.0491
  801POSM   C2A 9397   0.785  15.788  12.333 -0.1296 -0.2111 -0.0386
  801POSM   C3A 9398   0.745  16.108  12.657  0.0321  0.2790 -0.0593
  801POSM   C1B 9399   0.754  15.166  12.114 -0.3162  0.1215  0.4586
  801POSM   D2B 9400   0.952  15.073  12.511  0.2335  0.0348 -0.1296
  801POSM   C3B 9401   0.577  15.008  12.754  0.0860  0.0680 -0.0707
  801POSM   C4B 9402   0.379  14.915  13.150  0.0661  0.0508  0.0189
  802POSM   NC3 9403  34.143  26.142  10.858  0.1114  0.1174  0.2010
  802POSM   PO4 9404  34.365  25.810  10.768  0.2465 -0.1051  0.0546
  802POSM   AM1 9405  34.558  25.710  11.031  0.1764  0.0238 -0.1874
  802POSM   AM2 9406  34.751  25.477  11.066  0.1838 -0.1345 -0.4934
  802POSM   T1A 9407  34.685  25.725  11.507  0.1753 -0.2263 -0.0377
  802POSM   C2A 9408  34.775  25.795  11.982  0.1041 -0.1149 -0.1402
  802POSM   C3A 9409  34.860  25.777  12.448  0.0320  0.0914 -0.0745
  802POSM   C1B 9410  34.619  25.291  11.288 -0.4549  0.0808  0.1911
  802POSM   D2B 9411  34.394  25.078  11.681  0.0651 -0.0862  0.1792
  802POSM   C3B 9412  34.641  24.896  12.004  0.1432  0.0723 -0.1333
  802POSM   C4B 9413  34.788  24.662  12.408 -0.1543 -0.0573 -0.0435
  803DOPC   NC3 9414   5.992  19.569   9.102  0.2137 -0.0258  0.1875
  803DOPC   PO4 9415   6.272  19.799   9.056  0.3652 -0.2280 -0.2348
  803DOPC   GL1 9416   6.503  19.609   9.312  0.0559  0.0167  0.3124
  803DOPC   GL2 9417   6.653  19.387   9.217 -0.6637  0.2038 -0.1125
  803DOPC   C1A 9418   6.335  19.279   9.597  0.2798  0.0395  0.0346
  803DOPC   D2A 9419   6.120  19.328  10.024  0.3900  0.1857 -0.0644
  803DOPC   C3A 9420   6.292  19.470  10.403 -0.1424 -0.0143  0.1327
  803DOPC   C4A 9421   6.551  19.842  10.411  0.0271 -0.1574 -0.2151
  803DOPC   C1B 9422   6.938  19.529   9.550  0.1377  0.1424  0.0142
  803DOPC   D2B 9423   7.119  19.354   9.959 -0.1572  0.0271  0.2265
  803DOPC   C3B 9424   6.917  19.297  10.362 -0.4882  0.0057  0.1814
  803DOPC   C4B 9425   6.646  19.093  10.635 -0.0405 -0.0908  0.1260
  804POSM   NC3 9426   2.893  20.652   9.488 -0.1842 -0.0154  0.2102
  804POSM   PO4 9427   2.834  20.471   9.833 -0.0816 -0.0998  0.0703
  804POSM   AM1 9428   3.012  20.376  10.107  0.1478  0.2493  0.0866
  804POSM   AM2 9429   2.946  20.164  10.353 -0.1746  0.4584  0.3420
  804POSM   T1A 9430   3.287  20.484  10.504  0.1299 -0.0067 -0.0603
  804POSM   C2A 9431   3.704  20.428  10.643 -0.3229  0.0304  0.1161
  804POSM   C3A 9432   4.021  20.705  10.871  0.1592 -0.1143  0.1689
  804POSM   C1B 9433   2.746  19.961  10.500  0.2154  0.0405 -0.3557
  804POSM   D2B 9434   2.553  19.905  10.928 -0.0498  0.0000 -0.0612
  804POSM   C3B 9435   2.646  20.249  11.267 -0.0495 -0.0490  0.1609
  804POSM   C4B 9436   2.971  20.492  11.447  0.2641 -0.0274  0.0914
  805DOPE   NH3 9437   3.285  16.022   9.911 -0.1998 -0.0757 -0.0995
  805DOPE   PO4 9438   3.250  16.292  10.028  0.5558  0.1362 -0.2160
  805DOPE   GL1 9439   3.264  16.160  10.394  0.3709  0.1173  0.0623
  805DOPE   GL2 9440   2.949  16.260  10.452  0.0983  0.0797 -0.1214
  805DOPE   C1A 9441   3.456  16.050  10.838 -0.0355  0.1170  0.0663
  805DOPE   D2A 9442   3.477  15.841  11.243 -0.2327 -0.0706  0.2633
  805DOPE   C3A 9443   3.182  16.033  11.531  0.0623  0.0020 -0.3921
  805DOPE   C4A 9444   2.839  15.971  11.824  0.3062  0.2255  0.0840
  805DOPE   C1B 9445   2.946  15.833  10.602 -0.0724  0.1529 -0.1303
  805DOPE   D2B 9446   3.309  15.568  10.757 -0.0130 -0.2433  0.3132
  805DOPE   C3B 9447   3.402  15.345  11.133  0.0775 -0.0274 -0.1181
  805DOPE   C4B 9448   3.375  15.050  11.491 -0.2283 -0.6681 -0.0238
  806DOPS   CNO 9449   5.285  17.239   9.213 -0.0111  0.1168 -0.1145
  806DOPS   PO4 9450   5.610  17.123   9.333 -0.0240  0.3358 -0.0707
  806DOPS   GL1 9451   5.584  17.157   9.747 -0.0389 -0.0951 -0.1543
  806DOPS   GL2 9452   5.541  17.476   9.798  0.0977 -0.2499  0.0155
  806DOPS   C1A 9453   5.956  17.085   9.993 -0.0201 -0.0161 -0.3351
  806DOPS   D2A 9454   6.373  17.235  10.003  0.0684 -0.1485 -0.0093
  806DOPS   C3A 9455   6.547  17.080  10.388 -0.1792 -0.1347 -0.1261
  806DOPS   C4A 9456   6.258  16.836  10.663  0.2088  0.0050  0.2886
  806DOPS   C1B 9457   5.400  17.295  10.187 -0.0350 -0.0747  0.1341
  806DOPS   D2B 9458   5.471  16.892  10.198  0.0823 -0.0198  0.0275
  806DOPS   C3B 9459   5.113  16.545  10.325  0.3541 -0.0807  0.0805
  806DOPS   C4B 9460   5.105  16.188  10.684  0.1338  0.1277 -0.2087
  807DOPC   NC3 9461   4.276  20.849   9.504 -0.4167  0.2734  0.1932
  807DOPC   PO4 9462   4.438  21.204   9.489 -0.0453 -0.2920  0.0314
  807DOPC   GL1 9463   4.234  21.272   9.748 -0.0626  0.2729 -0.2601
  807DOPC   GL2 9464   4.069  21.391   9.944  0.2751 -0.0346  0.1370
  807DOPC   C1A 9465   4.373  21.062  10.163  0.0976 -0.0321  0.2003
  807DOPC   D2A 9466   4.244  21.241  10.630  0.2541 -0.2497  0.4800
  807DOPC   C3A 9467   4.453  20.938  10.895  0.1131 -0.0260  0.2024
  807DOPC   C4A 9468   4.797  20.692  11.086 -0.1591  0.0404  0.0454
  807DOPC   C1B 9469   3.932  21.590  10.350 -0.0425 -0.3964 -0.2020
  807DOPC   D2B 9470   3.927  21.650  10.831  0.1660  0.0485 -0.0307
  807DOPC   C3B 9471   3.992  21.268  11.109 -0.2434  0.3663 -0.2357
  807DOPC   C4B 9472   4.213  21.068  11.471  0.3191 -0.3503 -0.0731
  808DOPC   NC3 9473   9.807  24.307   8.859 -0.3919 -0.1144  0.0089
  808DOPC   PO4 9474   9.831  23.952   8.716  0.3946 -0.1563 -0.2519
  808DOPC   GL1 9475   9.851  23.916   9.147  0.1355 -0.0197 -0.3302
  808DOPC   GL2 9476   9.898  23.665   9.156  0.0112  0.1127 -0.1840
  808DOPC   C1A 9477   9.509  23.970   9.493 -0.0532  0.3003  0.1817
  808DOPC   D2A 9478   9.143  23.725   9.649 -0.3918  0.1011  0.1664
  808DOPC   C3A 9479   8.923  23.617  10.044  0.2115  0.2699  0.3819
  808DOPC   C4A 9480   8.816  23.597  10.484 -0.0252  0.0344  0.0082
  808DOPC   C1B 9481  10.048  23.766   9.511 -0.1188  0.0274 -0.0506
  808DOPC   D2B 9482  10.077  23.564   9.967 -0.1299 -0.2000 -0.1584
  808DOPC   C3B 9483  10.174  23.794  10.355 -0.0625 -0.3309  0.0367
  808DOPC   C4B 9484   9.966  24.035  10.698 -0.1602  0.0929  0.3071
  809DOPC   NC3 9485   5.008  16.112   9.450 -0.2587 -0.0063  0.3196
  809DOPC   PO4 9486   5.028  16.470   9.481 -0.0563 -0.2235 -0.0337
  809DOPC   GL1 9487   5.066  16.496   9.815  0.0621  0.1150  0.1253
  809DOPC   GL2 9488   5.155  16.208   9.930  0.0451  0.2256  0.0154
  809DOPC   C1A 9489   5.044  16.935  10.005 -0.2650 -0.2056  0.0545
  809DOPC   D2A 9490   4.908  17.239  10.306 -0.3729 -0.0321 -0.0518
  809DOPC   C3A 9491   4.930  17.570  10.645 -0.0889 -0.1055 -0.3244
  809DOPC   C4A 9492   4.816  17.938  10.932  0.0672 -0.1421 -0.1564
  809DOPC   C1B 9493   5.536  16.290  10.250  0.1725 -0.0410  0.0742
  809DOPC   D2B 9494   5.549  16.444  10.655 -0.2821  0.0732  0.2132
  809DOPC   C3B 9495   5.377  16.792  10.779  0.3525  0.2323 -0.0826
  809DOPC   C4B 9496   5.291  17.191  10.739 -0.0555  0.1655  0.0527
  810DOPS   CNO 9497   4.160  20.191   9.258 -0.1527 -0.0028 -0.0654
  810DOPS   PO4 9498   4.374  20.359   9.541  0.2234  0.0821 -0.0526
  810DOPS   GL1 9499   4.540  20.343   9.794 -0.2262  0.2106 -0.0693
  810DOPS   GL2 9500   4.458  20.163  10.025  0.0702 -0.1370  0.0854
  810DOPS   C1A 9501   4.637  20.628  10.187 -0.1759 -0.1833  0.0310
  810DOPS   D2A 9502   4.551  20.441  10.668 -0.1295  0.1150  0.0145
  810DOPS   C3A 9503   4.494  20.293  11.106  0.2327  0.0983 -0.1588
  810DOPS   C4A 9504   4.455  20.592  11.481  0.1209  0.0929  0.3618
  810DOPS   C1B 9505   4.545  19.994  10.450 -0.3677  0.0569 -0.0703
  810DOPS   D2B 9506   4.521  19.773  10.827 -0.1637 -0.0804 -0.2300
  810DOPS   C3B 9507   4.244  19.891  11.208  0.1480 -0.1758  0.3376
  810DOPS   C4B 9508   3.816  19.844  11.386  0.2097 -0.0495  0.0402
  811POSM   NC3 9509   2.725  12.641  10.087 -0.0195  0.0257  0.0785
  811POSM   PO4 9510   2.928  12.580  10.361  0.1110  0.0947  0.0497
  811POSM   AM1 9511   3.069  12.742  10.560 -0.1178 -0.0341 -0.2856
  811POSM   AM2 9512   3.291  12.919  10.579  0.0283 -0.1643  0.4084
  811POSM   T1A 9513   3.097  12.813  11.087  0.2023 -0.1545 -0.1435
  811POSM   C2A 9514   3.016  13.104  11.398 -0.3385  0.2419 -0.1981
  811POSM   C3A 9515   2.955  13.428  11.704  0.1198  0.1089 -0.5295
  811POSM   C1B 9516   3.381  13.098  10.903  0.0308  0.2646 -0.0165
  811POSM   D2B 9517   3.595  13.167  11.300 -0.2430  0.0603 -0.2798
  811POSM   C3B 9518   3.953  13.258  11.571 -0.0307 -0.1039 -0.1180
  811POSM   C4B 9519   4.295  13.401  11.826 -0.1100 -0.1726 -0.0104
  812POSM   NC3 9520   4.982  23.189   9.660  0.3455 -0.0369  0.1934
  812POSM   PO4 9521   5.166  23.217   9.991 -0.3770  0.1034 -0.0685
  812POSM   AM1 9522   5.388  23.182  10.197 -0.2526  0.1747  0.2873
  812POSM   AM2 9523   5.635  23.339  10.247  0.0382  0.2987  0.1720
  812POSM   T1A 9524   5.616  22.883  10.531  0.1251  0.2982 -0.2256
  812POSM   C2A 9525   5.898  22.915  10.897 -0.2570  0.0488  0.0525
  812POSM   C3A 9526   6.248  23.140  11.062  0.1400 -0.2213  0.1931
  812POSM   C1B 9527   5.520  23.403  10.563 -0.1562 -0.0733 -0.1701
  812POSM   D2B 9528   5.298  23.205  10.844 -0.1224  0.0906 -0.2823
  812POSM   C3B 9529   5.346  22.876  11.136 -0.1326 -0.0129  0.0809
  812POSM   C4B 9530   5.468  22.740  11.556  0.0918  0.0431 -0.1462
  813DOPE   NH3 9531   0.625  21.575  10.215  0.2023  0.0862  0.0890
  813DOPE   PO4 9532   0.930  21.472  10.160 -0.1042  0.1258 -0.1334
  813DOPE   GL1 9533   1.064  21.567  10.619  0.0197  0.1255  0.2247
  813DOPE   GL2 9534   0.839  21.700  10.803 -0.4336 -0.1798 -0.3057
  813DOPE   C1A 9535   1.279  21.397  10.993 -0.0052  0.3339  0.1308
  813DOPE   D2A 9536   1.285  21.437  11.466 -0.3046  0.0330  0.3449
  813DOPE   C3A 9537   1.466  21.503  11.869 -0.2856 -0.1944  0.2074
  813DOPE   C4A 9538   1.552  21.819  12.232  0.1023 -0.3351 -0.1000
  813DOPE   C1B 9539   0.989  21.963  11.160 -0.0663  0.0023  0.0654
  813DOPE   D2B 9540   1.059  22.342  11.445  0.0374  0.2720 -0.0075
  813DOPE   C3B 9541   0.968  22.106  11.881 -0.1752 -0.0926 -0.0602
  813DOPE   C4B 9542   1.033  21.733  12.137 -0.2726  0.0066 -0.2527
  814DOPC   NC3 9543   5.205  13.028  10.387  0.1606  0.1503  0.0508
  814DOPC   PO4 9544   5.188  12.782  10.084 -0.0536 -0.1583 -0.3363
  814DOPC   GL1 9545   5.393  12.564  10.298  0.0792 -0.0328 -0.3393
  814DOPC   GL2 9546   5.594  12.720  10.456  0.1120  0.0969  0.0056
  814DOPC   C1A 9547   5.259  12.539  10.780  0.0078  0.0658 -0.3298
  814DOPC   D2A 9548   5.383  12.592  11.194 -0.0211  0.2168  0.0576
  814DOPC   C3A 9549   5.056  12.718  11.517 -0.0285  0.2321  0.0440
  814DOPC   C4A 9550   4.615  12.683  11.804 -0.0493 -0.1024 -0.0294
  814DOPC   C1B 9551   5.684  12.786  10.872 -0.1277 -0.2546 -0.0276
  814DOPC   D2B 9552   5.707  12.935  11.311 -0.0925  0.0610 -0.4493
  814DOPC   C3B 9553   6.124  13.105  11.554  0.1387 -0.0608  0.2345
  814DOPC   C4B 9554   6.511  13.314  11.474 -0.0645 -0.4905 -0.1545
  815POSM   NC3 9555  10.647  14.699   8.548  0.0360  0.4273 -0.0465
  815POSM   PO4 9556  10.892  14.586   8.832  0.0199  0.2015 -0.1205
  815POSM   AM1 9557  10.923  14.499   9.145 -0.1990 -0.2431  0.3387
  815POSM   AM2 9558  10.784  14.252   9.290  0.0010  0.0165 -0.0391
  815POSM   T1A 9559  11.124  14.599   9.599 -0.1737  0.3871  0.0702
  815POSM   C2A 9560  11.495  14.658   9.942 -0.3033  0.2488  0.3285
  815POSM   C3A 9561  11.788  14.826  10.266 -0.0244  0.1156  0.0855
  815POSM   C1B 9562  10.822  14.198   9.611  0.0173 -0.1114 -0.5215
  815POSM   D2B 9563  10.792  14.045  10.076 -0.1758 -0.0087  0.0346
  815POSM   C3B 9564  10.619  13.604  10.182 -0.3374  0.0081 -0.3894
  815POSM   C4B 9565  10.451  13.202  10.365  0.1629 -0.2787  0.0567
  816POSM   NC3 9566   9.010  20.927   8.360 -0.0285 -0.1669 -0.2323
  816POSM   PO4 9567   9.033  20.861   8.738 -0.1318 -0.2239  0.1240
  816POSM   AM1 9568   9.099  20.803   9.066 -0.2135  0.0597 -0.3519
  816POSM   AM2 9569   9.041  21.019   9.230 -0.3404 -0.1867  0.0550
  816POSM   T1A 9570   9.444  20.830   9.433 -0.1368 -0.0275 -0.0329
  816POSM   C2A 9571   9.251  20.714   9.852  0.4724  0.0319  0.1715
  816POSM   C3A 9572   9.087  20.411  10.187 -0.0770 -0.2208  0.0215
  816POSM   C1B 9573   9.150  21.203   9.475 -0.3090 -0.1974 -0.0790
  816POSM   D2B 9574   8.965  21.555   9.761 -0.2679 -0.0725 -0.0752
  816POSM   C3B 9575   8.957  21.289  10.157  0.0064 -0.1613 -0.1148
  816POSM   C4B 9576   9.122  21.032  10.530 -0.1450 -0.2979  0.1676
  817DOPC   NC3 9577   2.776  29.452  13.909 -0.1653  0.1196  0.0572
  817DOPC   PO4 9578   2.766  29.803  13.672  0.1930  0.1906  0.1054
  817DOPC   GL1 9579   2.746  29.595  13.235 -0.0268  0.0107 -0.3065
  817DOPC   GL2 9580   2.615  29.383  13.329 -0.2269  0.2508  0.1498
  817DOPC   C1A 9581   2.663  29.632  12.783  0.1837  0.0381 -0.3746
  817DOPC   D2A 9582   2.467  29.871  12.458 -0.1527 -0.2366  0.2273
  817DOPC   C3A 9583   2.031  30.091  12.502 -0.2231  0.1273  0.1613
  817DOPC   C4A 9584   1.673  29.920  12.276 -0.0477 -0.0981  0.5773
  817DOPC   C1B 9585   2.430  29.242  12.930 -0.1132  0.0402 -0.4701
  817DOPC   D2B 9586   2.155  29.156  12.576  0.0852 -0.0391 -0.0918
  817DOPC   C3B 9587   1.705  29.222  12.517 -0.1268  0.0872  0.0052
  817DOPC   C4B 9588   1.297  29.413  12.524 -0.1362 -0.1746 -0.1933
  818DOPC   NC3 9589  12.387  27.707  13.865 -0.2631 -0.1333  0.1318
  818DOPC   PO4 9590  12.173  27.830  13.545 -0.0453 -0.3790 -0.1774
  818DOPC   GL1 9591  12.047  27.959  13.143 -0.2890  0.0951 -0.1976
  818DOPC   GL2 9592  11.975  27.723  12.975  0.0629  0.1290 -0.1693
  818DOPC   C1A 9593  12.176  28.388  13.012 -0.0193 -0.2512  0.1554
  818DOPC   D2A 9594  11.985  28.750  12.860  0.0333 -0.2978 -0.2003
  818DOPC   C3A 9595  11.551  28.849  12.875 -0.0924  0.0431 -0.1442
  818DOPC   C4A 9596  11.091  28.937  12.735  0.0918 -0.3169  0.3140
  818DOPC   C1B 9597  11.582  27.846  12.689 -0.0417  0.2435 -0.2637
  818DOPC   D2B 9598  11.451  27.625  12.284 -0.0356 -0.0847 -0.3344
  818DOPC   C3B 9599  11.624  27.501  11.837 -0.0287 -0.1598  0.2462
  818DOPC   C4B 9600  11.467  27.303  11.428 -0.2229 -0.2802 -0.0702
  819DOPE   NH3 9601   6.764  32.947  13.990 -0.0106 -0.3234  0.4101
  819DOPE   PO4 9602   6.595  32.781  13.786 -0.0546 -0.0428  0.0176
  819DOPE   GL1 9603   6.986  32.671  13.600 -0.1942 -0.1174  0.2460
  819DOPE   GL2 9604   7.075  32.875  13.580  0.0928  0.1281  0.0767
  819DOPE   C1A 9605   6.971  32.500  13.138  0.2719  0.1275 -0.0906
  819DOPE   D2A 9606   6.742  32.190  12.897  0.2317 -0.0502  0.0825
  819DOPE   C3A 9607   6.952  31.836  12.627  0.1678 -0.1291  0.0073
  819DOPE   C4A 9608   7.256  31.787  12.260 -0.1392  0.1283  0.2129
  819DOPE   C1B 9609   6.837  32.956  13.208  0.2379  0.0270 -0.1603
  819DOPE   D2B 9610   6.569  33.153  12.858  0.1541 -0.0326  0.1034
  819DOPE   C3B 9611   6.612  33.196  12.396  0.0894  0.0733  0.0009
  819DOPE   C4B 9612   6.688  33.470  12.035  0.0859  0.0656 -0.0336
  820DOPE   NH3 9613  34.476  33.734  14.545  0.2979 -0.1078  0.2365
  820DOPE   PO4 9614  34.180  33.721  14.556  0.2147 -0.2281 -0.6083
  820DOPE   GL1 9615  34.064  33.773  14.274  0.1733 -0.1198  0.3485
  820DOPE   GL2 9616  34.290  33.640  14.047  0.0449  0.1413  0.1176
  820DOPE   C1A 9617  33.681  33.788  14.012  0.0469 -0.0076 -0.2968
  820DOPE   D2A 9618  33.262  33.890  13.821 -0.0987  0.0459 -0.2458
  820DOPE   C3A 9619  33.225  33.923  13.387 -0.1042 -0.0519  0.0981
  820DOPE   C4A 9620  33.106  33.998  12.975  0.0200 -0.2483 -0.1295
  820DOPE   C1B 9621  34.154  33.593  13.602 -0.0014  0.2135 -0.1655
  820DOPE   D2B 9622  33.976  33.713  13.196  0.1494  0.2562  0.0080
  820DOPE   C3B 9623  33.736  33.428  12.944  0.2998 -0.1436  0.0273
  820DOPE   C4B 9624  33.405  33.459  12.675 -0.1147 -0.1278 -0.1986
  821DOPC   NC3 9625   9.992  33.519  14.436  0.1412 -0.0723  0.0337
  821DOPC   PO4 9626   9.612  33.585  14.476 -0.3116  0.1203  0.0405
  821DOPC   GL1 9627   9.694  33.566  14.105 -0.0520  0.1872  0.2649
  821DOPC   GL2 9628   9.413  33.613  13.965 -0.2053 -0.2485 -0.1519
  821DOPC   C1A 9629   9.805  33.755  13.674  0.1271  0.1476  0.0749
  821DOPC   D2A 9630   9.659  33.948  13.303 -0.0700 -0.4002  0.2058
  821DOPC   C3A 9631   9.377  34.251  13.055 -0.3394  0.1732  0.2199
  821DOPC   C4A 9632   9.364  34.707  12.833  0.0220 -0.0756  0.0845
  821DOPC   C1B 9633   9.148  33.680  13.536  0.3180  0.0043 -0.0596
  821DOPC   D2B 9634   9.011  33.795  13.097  0.4517  0.0094  0.1410
  821DOPC   C3B 9635   9.347  33.865  12.756 -0.0597  0.0098  0.0022
  821DOPC   C4B 9636   9.825  33.788  12.768  0.2171  0.2034 -0.1426
  822DOPC   NC3 9637  10.870  33.447  14.209  0.2252  0.2627 -0.0057
  822DOPC   PO4 9638  10.489  33.465  14.351 -0.1034  0.1870 -0.0844
  822DOPC   GL1 9639  10.506  33.405  13.960 -0.2870 -0.2705  0.4740
  822DOPC   GL2 9640  10.479  33.664  13.833  0.1198  0.0830 -0.1531
  822DOPC   C1A 9641  10.579  33.198  13.495  0.2416 -0.1775 -0.0270
  822DOPC   D2A 9642  10.663  33.168  13.074 -0.1050 -0.1358 -0.2952
  822DOPC   C3A 9643  10.584  33.548  12.810  0.3298 -0.3115 -0.3047
  822DOPC   C4A 9644  10.810  33.908  12.544 -0.0619  0.0096  0.0414
  822DOPC   C1B 9645  10.218  33.988  13.598 -0.0179  0.1623 -0.2576
  822DOPC   D2B 9646   9.849  34.262  13.664 -0.0500  0.1308  0.3597
  822DOPC   C3B 9647   9.375  34.153  13.679  0.1414 -0.1741  0.1897
  822DOPC   C4B 9648   8.958  34.136  13.470 -0.1478  0.1635 -0.1101
  823POSM   NC3 9649   5.423  24.965  14.159 -0.0341 -0.0836 -0.1857
  823POSM   PO4 9650   5.243  24.747  13.861  0.0147 -0.2335 -0.1983
  823POSM   AM1 9651   5.174  24.713  13.548  0.1534 -0.1201  0.0398
  823POSM   AM2 9652   4.976  24.639  13.377  0.0264  0.2215 -0.0554
  823POSM   T1A 9653   5.459  24.777  13.135  0.3675 -0.1136 -0.4478
  823POSM   C2A 9654   5.553  24.972  12.738  0.1654 -0.1198  0.1913
  823POSM   C3A 9655   5.427  25.013  12.259 -0.1864  0.1560  0.1895
  823POSM   C1B 9656   4.880  24.420  13.175 -0.4169 -0.0078  0.0383
  823POSM   D2B 9657   4.623  24.152  12.933 -0.1320  0.1689 -0.3199
  823POSM   C3B 9658   4.657  23.763  12.726  0.0458  0.3367 -0.1909
  823POSM   C4B 9659   4.758  23.624  12.281 -0.1906  0.1166 -0.0935
  824DOPS   CNO 9660   8.447  33.334  14.369  0.0283  0.2786  0.0437
  824DOPS   PO4 9661   8.780  33.448  14.257  0.0544  0.0835 -0.2856
  824DOPS   GL1 9662   8.690  33.394  13.845  0.2658  0.2093 -0.0918
  824DOPS   GL2 9663   8.422  33.203  13.820 -0.0779 -0.1779 -0.1051
  824DOPS   C1A 9664   8.738  33.393  13.392  0.0846  0.2932 -0.1315
  824DOPS   D2A 9665   8.875  33.376  12.893  0.2405  0.0392 -0.0105
  824DOPS   C3A 9666   8.554  33.528  12.627 -0.0249 -0.0643  0.1943
  824DOPS   C4A 9667   8.138  33.524  12.523 -0.0242  0.2946  0.1684
  824DOPS   C1B 9668   8.270  33.173  13.403  0.0122 -0.3632  0.1593
  824DOPS   D2B 9669   8.264  33.345  12.960  0.2124 -0.4233  0.1666
  824DOPS   C3B 9670   7.821  33.260  12.795  0.2453 -0.2355 -0.0636
  824DOPS   C4B 9671   7.471  32.990  12.523 -0.1224 -0.0249  0.0757
  825DOPC   NC3 9672   5.575  22.271  13.398 -0.0103 -0.0036  0.5042
  825DOPC   PO4 9673   5.800  22.603  13.519  0.0755  0.1834  0.0321
  825DOPC   GL1 9674   5.687  22.867  13.199 -0.1603  0.1710  0.0354
  825DOPC   GL2 9675   5.587  22.602  13.025 -0.0893 -0.1530  0.3166
  825DOPC   C1A 9676   5.911  23.016  12.798 -0.2219 -0.2318 -0.1225
  825DOPC   D2A 9677   5.970  22.806  12.388 -0.1084 -0.0168 -0.2083
  825DOPC   C3A 9678   5.771  23.054  12.065 -0.1582 -0.1157  0.0811
  825DOPC   C4A 9679   5.552  23.322  11.747  0.1361 -0.0389 -0.3245
  825DOPC   C1B 9680   5.249  22.936  12.989  0.0367 -0.0697 -0.0955
  825DOPC   D2B 9681   5.016  23.330  12.945 -0.5495  0.0819 -0.1123
  825DOPC   C3B 9682   4.587  23.385  13.128  0.4180  0.1740 -0.0491
  825DOPC   C4B 9683   4.169  23.509  13.366 -0.1214  0.1694 -0.0701
  826DOPE   NH3 9684   4.059  27.458  14.161 -0.0076 -0.2139 -0.3487
  826DOPE   PO4 9685   4.005  27.260  13.937 -0.1724 -0.2895 -0.1482
  826DOPE   GL1 9686   3.999  27.392  13.593  0.4291  0.0335  0.1394
  826DOPE   GL2 9687   3.987  27.716  13.721  0.2319  0.3368  0.1556
  826DOPE   C1A 9688   4.139  27.275  13.111  0.1419 -0.0844  0.1817
  826DOPE   D2A 9689   4.074  27.279  12.648 -0.2059  0.2784 -0.2462
  826DOPE   C3A 9690   4.242  26.905  12.442  0.0288 -0.2265  0.2640
  826DOPE   C4A 9691   4.184  26.802  11.994 -0.1649 -0.1275  0.1137
  826DOPE   C1B 9692   4.147  27.942  13.316  0.2260  0.0866  0.1682
  826DOPE   D2B 9693   4.304  27.729  12.881  0.1465 -0.0345 -0.0666
  826DOPE   C3B 9694   4.282  27.769  12.422 -0.1413 -0.3513 -0.0825
  826DOPE   C4B 9695   4.002  27.697  12.052 -0.0159 -0.1275 -0.0463
  827POSM   NC3 9696   8.273  28.049  14.114 -0.2449  0.2707  0.3688
  827POSM   PO4 9697   8.356  28.393  13.993  0.2833  0.1987 -0.0803
  827POSM   AM1 9698   8.448  28.399  13.677  0.0300 -0.1889  0.2671
  827POSM   AM2 9699   8.689  28.472  13.517  0.3064 -0.0611  0.2839
  827POSM   T1A 9700   8.329  28.340  13.170  0.1121 -0.0764  0.1263
  827POSM   C2A 9701   8.279  28.138  12.766 -0.0372  0.0555 -0.0270
  827POSM   C3A 9702   8.228  27.674  12.610 -0.0613 -0.1766 -0.2069
  827POSM   C1B 9703   8.848  28.397  13.211 -0.0372 -0.1958  0.0496
  827POSM   D2B 9704   8.970  28.156  12.865  0.0538  0.5967 -0.1634
  827POSM   C3B 9705   9.078  27.739  12.809 -0.2342 -0.0557  0.2426
  827POSM   C4B 9706   9.375  27.408  12.618 -0.1848 -0.0440  0.0295
  828DOPS   CNO 9707   3.720  34.290  14.209 -0.2045  0.1203  0.2041
  828DOPS   PO4 9708   3.634  34.184  13.842 -0.1902  0.0245 -0.1013
  828DOPS   GL1 9709   3.709  34.290  13.488 -0.0152 -0.2659  0.0954
  828DOPS   GL2 9710   3.366  34.396  13.404 -0.0830 -0.1517 -0.0610
  828DOPS   C1A 9711   3.702  34.602  13.144 -0.0629  0.0409 -0.1297
  828DOPS   D2A 9712   3.766  35.029  13.184  0.1251 -0.2537 -0.2348
  828DOPS   C3A 9713   3.711  35.157  12.791  0.0014  0.2082 -0.0807
  828DOPS   C4A 9714   3.781  35.537  12.636  0.0511 -0.0554  0.3023
  828DOPS   C1B 9715   2.907  34.612  13.438 -0.1913 -0.2005 -0.0935
  828DOPS   D2B 9716   2.785  34.893  13.120  0.0935  0.1788  0.3711
  828DOPS   C3B 9717   2.816  34.749  12.653  0.2572  0.0733 -0.1964
  828DOPS   C4B 9718   2.740  34.678  12.152  0.2634  0.2732  0.0761
  829DOPC   NC3 9719  12.970  27.330  13.729 -0.2410  0.2749  0.1933
  829DOPC   PO4 9720  13.359  27.295  13.577 -0.0455  0.3468 -0.1159
  829DOPC   GL1 9721  13.295  27.488  13.165 -0.2828 -0.1687 -0.1570
  829DOPC   GL2 9722  12.968  27.390  13.140  0.0079 -0.1558 -0.0750
  829DOPC   C1A 9723  13.167  27.642  12.772 -0.2359  0.2034  0.0197
  829DOPC   D2A 9724  13.435  27.701  12.373  0.0818  0.0306  0.0863
  829DOPC   C3A 9725  13.130  27.496  12.082 -0.2759  0.2974  0.2664
  829DOPC   C4A 9726  12.671  27.452  12.033  0.1301  0.1798  0.1920
  829DOPC   C1B 9727  12.893  27.254  12.725 -0.0738  0.0354  0.2684
  829DOPC   D2B 9728  12.842  26.926  12.381 -0.1663  0.2243 -0.3025
  829DOPC   C3B 9729  12.509  27.009  12.081  0.3173  0.1020  0.1293
  829DOPC   C4B 9730  12.611  27.074  11.616  0.2410 -0.1645 -0.3887
  830DOPE   NH3 9731   5.524  27.953  13.938 -0.0793  0.0356  0.2130
  830DOPE   PO4 9732   5.796  28.047  13.830 -0.2759  0.1272  0.2689
  830DOPE   GL1 9733   5.924  28.064  13.476  0.0618 -0.1688 -0.1108
  830DOPE   GL2 9734   6.204  28.257  13.531  0.0587  0.1680 -0.0392
  830DOPE   C1A 9735   6.032  27.911  13.062 -0.2239 -0.1502 -0.0276
  830DOPE   D2A 9736   5.787  27.953  12.620  0.0994 -0.1236 -0.0247
  830DOPE   C3A 9737   5.775  27.770  12.182 -0.1364  0.0444 -0.2536
  830DOPE   C4A 9738   5.775  27.580  11.733 -0.1063 -0.0755  0.2022
  830DOPE   C1B 9739   6.394  28.251  13.162  0.1653 -0.1588  0.1611
  830DOPE   D2B 9740   6.725  28.398  12.858 -0.0379 -0.1834  0.0424
  830DOPE   C3B 9741   6.807  28.306  12.414  0.0161 -0.0930  0.0624
  830DOPE   C4B 9742   7.063  28.343  12.046 -0.2492  0.1874  0.0330
  831DOPE   NH3 9743   6.905  27.224  13.680  0.1773  0.0359  0.1682
  831DOPE   PO4 9744   7.213  27.137  13.636 -0.0688 -0.2083 -0.1747
  831DOPE   GL1 9745   6.999  27.013  13.294  0.1345  0.1964 -0.1938
  831DOPE   GL2 9746   6.884  27.233  13.154 -0.0622 -0.1051 -0.2194
  831DOPE   C1A 9747   7.201  26.676  13.009  0.1134 -0.0069  0.2918
  831DOPE   D2A 9748   7.366  26.397  12.675  0.1383 -0.0407  0.1898
  831DOPE   C3A 9749   7.290  26.107  12.352 -0.1203  0.0034  0.1984
  831DOPE   C4A 9750   7.422  25.763  12.004  0.0385  0.2127 -0.0561
  831DOPE   C1B 9751   6.854  26.983  12.778 -0.0232  0.1119  0.1340
  831DOPE   D2B 9752   7.235  26.840  12.517 -0.0083  0.1890  0.0592
  831DOPE   C3B 9753   7.357  27.261  12.321 -0.0300 -0.1254  0.1568
  831DOPE   C4B 9754   7.659  27.607  12.539 -0.2773 -0.0400  0.2172
  832DOPC   NC3 9755   7.429  33.946  13.893 -0.1736 -0.2977  0.2189
  832DOPC   PO4 9756   7.542  33.556  14.030  0.0479  0.2134 -0.0532
  832DOPC   GL1 9757   7.532  33.584  13.536  0.2803  0.3970 -0.2213
  832DOPC   GL2 9758   7.269  33.479  13.598 -0.0641  0.1729  0.1084
  832DOPC   C1A 9759   7.487  33.599  13.057 -0.0569 -0.0048  0.0901
  832DOPC   D2A 9760   7.341  33.728  12.630 -0.0726  0.1531  0.0207
  832DOPC   C3A 9761   7.619  33.556  12.311  0.0311  0.1177 -0.1532
  832DOPC   C4A 9762   7.793  33.154  12.164  0.0473  0.1285  0.0119
  832DOPC   C1B 9763   6.950  33.483  13.260  0.1338  0.0176  0.2851
  832DOPC   D2B 9764   6.556  33.637  13.037  0.4390 -0.3114 -0.1300
  832DOPC   C3B 9765   6.458  34.047  12.826 -0.1450  0.0592 -0.0993
  832DOPC   C4B 9766   6.356  34.265  12.447 -0.1791 -0.0531  0.0211
  833POSM   NC3 9767   9.106  31.761  13.642 -0.1660 -0.1340  0.0743
  833POSM   PO4 9768   9.349  31.719  14.008 -0.2992  0.2151  0.1874
  833POSM   AM1 9769   9.579  31.629  13.782  0.3009  0.1059  0.1348
  833POSM   AM2 9770   9.575  31.553  13.553  0.0876 -0.1178  0.2520
  833POSM   T1A 9771  10.032  31.750  13.467  0.0262  0.2924  0.4177
  833POSM   C2A 9772  10.248  31.980  13.109 -0.1250 -0.0047 -0.0243
  833POSM   C3A 9773  10.219  32.026  12.673 -0.0601 -0.0337  0.0365
  833POSM   C1B 9774   9.510  31.720  13.254 -0.3102 -0.1406  0.1344
  833POSM   D2B 9775   9.361  32.049  12.945 -0.0544 -0.0453 -0.1786
  833POSM   C3B 9776   9.753  32.074  12.654  0.0676  0.0471  0.0789
  833POSM   C4B 9777   9.868  31.970  12.216 -0.0458 -0.2444 -0.0133
  834DOPE   NH3 9778   1.636  34.219  14.280 -0.3902 -0.0227 -0.1357
  834DOPE   PO4 9779   1.556  34.272  13.983  0.1821  0.0086  0.1136
  834DOPE   GL1 9780   1.368  34.214  13.672  0.2636 -0.4077  0.0855
  834DOPE   GL2 9781   1.581  34.237  13.442 -0.1300 -0.3672  0.0822
  834DOPE   C1A 9782   0.959  34.075  13.509 -0.1905 -0.0061  0.1328
  834DOPE   D2A 9783   0.559  34.012  13.394 -0.0375 -0.0209 -0.2383
  834DOPE   C3A 9784   0.329  33.773  13.148  0.0109 -0.3481 -0.1669
  834DOPE   C4A 9785   0.092  33.470  12.855  0.0949  0.1097 -0.0085
  834DOPE   C1B 9786   1.414  34.054  13.095 -0.0458 -0.1764  0.1557
  834DOPE   D2B 9787   1.251  33.976  12.667  0.0918 -0.0768  0.3516
  834DOPE   C3B 9788   0.945  33.741  12.450  0.0746 -0.0319 -0.0934
  834DOPE   C4B 9789   1.036  33.579  11.982  0.2834 -0.1739 -0.0251
  835DOPS   CNO 9790   6.636  22.929  13.612 -0.1164 -0.1894  0.4505
  835DOPS   PO4 9791   6.581  23.287  13.528  0.1770  0.2017 -0.2732
  835DOPS   GL1 9792   6.274  23.538  13.382 -0.0327  0.3533 -0.2247
  835DOPS   GL2 9793   6.010  23.548  13.512 -0.2409  0.0427  0.1596
  835DOPS   C1A 9794   6.076  23.552  12.940 -0.0091 -0.0196 -0.1751
  835DOPS   D2A 9795   5.972  23.403  12.510 -0.0270 -0.0989  0.1680
  835DOPS   C3A 9796   5.614  23.589  12.222  0.1825 -0.0700 -0.0301
  835DOPS   C4A 9797   5.200  23.656  12.049  0.2770  0.1508  0.2068
  835DOPS   C1B 9798   5.640  23.365  13.176  0.0395  0.0238  0.0172
  835DOPS   D2B 9799   5.497  23.205  12.716  0.2323  0.1123 -0.1234
  835DOPS   C3B 9800   5.485  22.819  12.502 -0.2423  0.0177  0.0510
  835DOPS   C4B 9801   5.168  22.817  12.110  0.2797  0.0033 -0.2307
  836POSM   NC3 9802   5.029  26.764  13.456  0.2010  0.0833  0.0387
  836POSM   PO4 9803   4.716  26.863  13.610  0.0858 -0.0613 -0.2818
  836POSM   AM1 9804   4.556  26.866  13.316  0.3356  0.1936 -0.0705
  836POSM   AM2 9805   4.679  26.833  13.082  0.2218 -0.0549  0.0806
  836POSM   T1A 9806   4.177  26.804  12.989  0.1220 -0.3224 -0.2626
  836POSM   C2A 9807   3.785  26.910  12.732 -0.1077 -0.0684 -0.3383
  836POSM   C3A 9808   3.496  27.298  12.693 -0.0323  0.0045  0.1662
  836POSM   C1B 9809   4.590  27.087  12.880  0.1179  0.1623  0.0780
  836POSM   D2B 9810   4.584  27.336  12.485 -0.1280 -0.1087 -0.0840
  836POSM   C3B 9811   4.402  27.381  12.055  0.0653 -0.1505  0.3289
  836POSM   C4B 9812   4.046  27.295  11.735  0.2060 -0.3392 -0.4102
  837POSM   NC3 9813   3.243  31.317  13.900  0.0290  0.3618 -0.2158
  837POSM   PO4 9814   3.318  30.981  14.045 -0.1501 -0.2439  0.1600
  837POSM   AM1 9815   3.247  30.841  13.796 -0.0745 -0.0697 -0.1656
  837POSM   AM2 9816   2.990  30.841  13.634  0.2428 -0.0627  0.2639
  837POSM   T1A 9817   3.300  30.624  13.342  0.2760 -0.3480 -0.0866
  837POSM   C2A 9818   3.324  30.397  12.968 -0.0029  0.0204  0.1068
  837POSM   C3A 9819   3.228  30.536  12.521  0.1541  0.2141 -0.0911
  837POSM   C1B 9820   2.855  30.802  13.343 -0.1484 -0.1948  0.2862
  837POSM   D2B 9821   2.888  30.544  12.942  0.1256  0.0988 -0.0103
  837POSM   C3B 9822   2.762  30.754  12.534 -0.0087 -0.1089  0.1234
  837POSM   C4B 9823   2.680  30.837  12.104  0.3234  0.0082  0.1977
  838DOPC   NC3 9824   1.240  23.315  13.720  0.0852  0.0118  0.0955
  838DOPC   PO4 9825   1.361  23.671  13.863 -0.3580 -0.2430  0.0652
  838DOPC   GL1 9826   1.128  23.781  13.625  0.2153  0.0183 -0.0615
  838DOPC   GL2 9827   1.246  24.067  13.551  0.2973  0.0340  0.1582
  838DOPC   C1A 9828   1.222  23.769  13.161  0.5124  0.1391  0.3646
  838DOPC   D2A 9829   1.113  23.941  12.763 -0.0826 -0.2106 -0.0578
  838DOPC   C3A 9830   1.046  23.825  12.330  0.1183  0.1006  0.0938
  838DOPC   C4A 9831   1.045  23.906  11.902  0.2049  0.1351 -0.1932
  838DOPC   C1B 9832   1.315  24.254  13.153 -0.1022  0.1152  0.0101
  838DOPC   D2B 9833   1.299  24.680  12.981 -0.0756  0.1180 -0.0359
  838DOPC   C3B 9834   1.427  24.881  12.553  0.1155  0.0149 -0.3445
  838DOPC   C4B 9835   1.606  25.100  12.174  0.1041  0.0021 -0.0589
  839DOPS   CNO 9836   9.172  26.249  13.714  0.1257  0.1880 -0.0234
  839DOPS   PO4 9837   9.254  25.904  13.527 -0.2204  0.1965 -0.5249
  839DOPS   GL1 9838   9.303  26.221  13.191  0.3208  0.1713  0.0102
  839DOPS   GL2 9839   9.005  26.269  13.157  0.1298 -0.1208  0.1581
  839DOPS   C1A 9840   9.392  26.350  12.760 -0.1216 -0.1535 -0.0402
  839DOPS   D2A 9841   9.736  26.434  12.526  0.3047 -0.2286 -0.1537
  839DOPS   C3A 9842   9.771  26.483  12.026 -0.2276 -0.1548 -0.1359
  839DOPS   C4A 9843   9.468  26.493  11.710 -0.4297 -0.0007  0.0701
  839DOPS   C1B 9844   8.846  26.291  12.680  0.0449  0.2463 -0.1060
  839DOPS   D2B 9845   8.681  26.210  12.242 -0.3054 -0.1053 -0.0896
  839DOPS   C3B 9846   8.622  26.474  11.887  0.0693 -0.2258 -0.0691
  839DOPS   C4B 9847   8.705  26.940  11.996  0.2755  0.1327 -0.0204
  840DOPE   NH3 9848   9.984  34.723  14.267  0.0115  0.1910  0.2020
  840DOPE   PO4 9849   9.755  34.607  14.073 -0.3177  0.2132 -0.0109
  840DOPE   GL1 9850  10.005  34.760  13.788  0.0969 -0.2074  0.0927
  840DOPE   GL2 9851   9.825  34.869  13.559 -0.4913 -0.0672 -0.2556
  840DOPE   C1A 9852  10.211  34.531  13.452  0.1448 -0.0835  0.1869
  840DOPE   D2A 9853  10.098  34.238  13.157  0.4243 -0.0814  0.2376
  840DOPE   C3A 9854  10.208  34.111  12.709 -0.0430 -0.4198 -0.2710
  840DOPE   C4A 9855  10.319  33.839  12.334 -0.1735 -0.0134  0.0994
  840DOPE   C1B 9856   9.712  34.598  13.197 -0.5194 -0.3300 -0.0980
  840DOPE   D2B 9857   9.718  34.367  12.751  0.0338  0.1676  0.2052
  840DOPE   C3B 9858   9.304  34.315  12.564  0.1378 -0.1132  0.0007
  840DOPE   C4B 9859   8.976  34.411  12.208  0.0031  0.0973 -0.1815
  841POSM   NC3 9860  12.878  29.952  14.681 -0.0067 -0.0764 -0.1575
  841POSM   PO4 9861  12.797  30.217  14.402 -0.0864 -0.2978  0.1433
  841POSM   AM1 9862  13.118  30.213  14.450  0.0360 -0.3161  0.0602
  841POSM   AM2 9863  13.279  30.026  14.316  0.0499  0.2293  0.0434
  841POSM   T1A 9864  13.538  30.484  14.273  0.1364 -0.0194  0.1927
  841POSM   C2A 9865  13.726  30.754  13.975  0.3659 -0.1950  0.1117
  841POSM   C3A 9866  13.721  30.917  13.532 -0.1175 -0.1175  0.3410
  841POSM   C1B 9867  13.330  30.092  13.989  0.1567  0.1147  0.1667
  841POSM   D2B 9868  13.474  30.328  13.600 -0.1639 -0.0603  0.1842
  841POSM   C3B 9869  13.292  30.680  13.340  0.1305  0.0036 -0.0776
  841POSM   C4B 9870  13.052  31.038  13.205 -0.2753  0.3416 -0.3316
  842POSM   NC3 9871  11.788  25.598  12.985 -0.1293  0.2136  0.3131
  842POSM   PO4 9872  12.060  25.861  12.971  0.0190  0.1398  0.1063
  842POSM   AM1 9873  12.226  25.714  12.714  0.3428  0.1665 -0.2058
  842POSM   AM2 9874  12.194  25.737  12.407 -0.0764  0.0521 -0.0644
  842POSM   T1A 9875  12.193  25.240  12.496  0.0115  0.0664  0.0732
  842POSM   C2A 9876  12.336  24.879  12.246  0.1076 -0.0162  0.0046
  842POSM   C3A 9877  12.384  24.794  11.791 -0.2275  0.1224 -0.2170
  842POSM   C1B 9878  12.363  25.760  12.141  0.2884  0.2643  0.2102
  842POSM   D2B 9879  12.718  25.744  11.858  0.2530 -0.3972  0.4398
  842POSM   C3B 9880  13.107  26.028  11.762 -0.0730  0.2865 -0.0423
  842POSM   C4B 9881  13.204  26.504  11.600 -0.0752 -0.0364 -0.1771
  843DOPC   NC3 9882   3.261  30.152  14.360 -0.0579 -0.2138  0.1307
  843DOPC   PO4 9883   3.560  30.423  14.506 -0.0615  0.3699  0.1154
  843DOPC   GL1 9884   3.286  30.458  14.041 -0.5460  0.1754  0.5184
  843DOPC   GL2 9885   3.334  30.334  13.789  0.0867  0.1149 -0.0822
  843DOPC   C1A 9886   2.858  30.450  13.896  0.0993 -0.3933  0.0748
  843DOPC   D2A 9887   2.611  30.286  13.551  0.1747 -0.0438  0.0617
  843DOPC   C3A 9888   2.482  30.468  13.198 -0.1686 -0.0381 -0.2445
  843DOPC   C4A 9889   2.339  30.793  12.914 -0.0175  0.0380 -0.0611
  843DOPC   C1B 9890   3.110  30.180  13.361 -0.6187  0.2960  0.1229
  843DOPC   D2B 9891   2.755  30.023  13.119  0.1365  0.1624  0.0677
  843DOPC   C3B 9892   2.348  30.050  12.926  0.3363 -0.0975  0.1864
  843DOPC   C4B 9893   2.129  29.681  12.750  0.1193 -0.0439 -0.2272
  844DOPC   NC3 9894   0.936  25.380  14.041  0.0182 -0.0596  0.2308
  844DOPC   PO4 9895   0.973  25.720  14.226 -0.1267  0.2461  0.2020
  844DOPC   GL1 9896   1.116  25.782  13.855  0.0833  0.0930  0.1599
  844DOPC   GL2 9897   0.907  25.908  13.672 -0.2915 -0.3190  0.1534
  844DOPC   C1A 9898   0.980  25.477  13.532 -0.1008  0.0936 -0.5008
  844DOPC   D2A 9899   0.816  25.727  13.157 -0.1527  0.2558 -0.1622
  844DOPC   C3A 9900   0.905  25.657  12.742 -0.1161 -0.4722 -0.0053
  844DOPC   C4A 9901   1.138  25.925  12.463 -0.0348 -0.2335  0.1371
  844DOPC   C1B 9902   0.728  26.244  13.339 -0.2369 -0.2847 -0.1404
  844DOPC   D2B 9903   0.496  26.194  12.892  0.0442  0.1064  0.2335
  844DOPC   C3B 9904   0.355  26.459  12.495 -0.1393 -0.0846 -0.2838
  844DOPC   C4B 9905   0.079  26.795  12.453  0.0178  0.2524  0.0092
  845POSM   NC3 9906   6.862  24.557  13.314  0.1637  0.0358 -0.1777
  845POSM   PO4 9907   7.232  24.492  13.344  0.0036  0.4256 -0.2135
  845POSM   AM1 9908   7.194  24.444  13.012  0.2389 -0.2387  0.2030
  845POSM   AM2 9909   7.033  24.442  12.794  0.1769 -0.0871  0.1791
  845POSM   T1A 9910   7.385  24.479  12.542  0.3706  0.2919 -0.0984
  845POSM   C2A 9911   7.353  24.758  12.227 -0.1048 -0.1760  0.2755
  845POSM   C3A 9912   7.375  24.755  11.830  0.2544  0.4787  0.1685
  845POSM   C1B 9913   6.712  24.388  12.871 -0.0241 -0.2588  0.1236
  845POSM   D2B 9914   6.260  24.349  12.687 -0.3911 -0.0830 -0.2137
  845POSM   C3B 9915   6.077  24.298  12.298 -0.0869  0.3683 -0.0945
  845POSM   C4B 9916   5.937  24.327  11.869  0.0023 -0.0104  0.0243
  846POSM   NC3 9917   9.045  29.641  13.980  0.1170 -0.2604 -0.0828
  846POSM   PO4 9918   8.978  29.327  13.762  0.1564 -0.2347  0.0803
  846POSM   AM1 9919   9.014  29.234  13.423 -0.4332 -0.1347  0.2103
  846POSM   AM2 9920   9.041  29.345  13.150  0.3351 -0.1095 -0.0902
  846POSM   T1A 9921   9.176  28.857  13.126 -0.0376 -0.2220 -0.0681
  846POSM   C2A 9922   9.162  28.574  12.780 -0.0007 -0.0201  0.1937
  846POSM   C3A 9923   8.925  28.315  12.419  0.3032  0.0484 -0.0714
  846POSM   C1B 9924   9.088  29.501  12.825  0.2064  0.0341  0.2173
  846POSM   D2B 9925   9.293  29.851  12.557 -0.1075 -0.1618 -0.1728
  846POSM   C3B 9926   9.705  29.677  12.289 -0.1124  0.0909 -0.1745
  846POSM   C4B 9927   9.963  29.914  11.960 -0.0286  0.0350  0.1660
  847DOPE   NH3 9928  11.120   0.895  14.435  0.0849  0.1223  0.0440
  847DOPE   PO4 9929  11.333   1.068  14.236 -0.1356 -0.1353  0.1208
  847DOPE   GL1 9930  11.274   1.349  13.871 -0.0674  0.0801 -0.1679
  847DOPE   GL2 9931  11.496   1.258  13.682 -0.0804 -0.1387  0.1301
  847DOPE   C1A 9932  11.091   1.344  13.445  0.3097 -0.0864 -0.4163
  847DOPE   D2A 9933  11.093   1.271  13.017  0.1081  0.3126  0.2307
  847DOPE   C3A 9934  10.766   1.046  12.742  0.1276  0.0702  0.0636
  847DOPE   C4A 9935  10.838   0.938  12.325  0.3628 -0.0588 -0.0582
  847DOPE   C1B 9936  11.500   1.091  13.248  0.0913  0.1837  0.0587
  847DOPE   D2B 9937  11.853   0.861  13.051  0.0610  0.0682 -0.0564
  847DOPE   C3B 9938  11.868   0.564  12.759  0.2564 -0.2466  0.1372
  847DOPE   C4B 9939  11.823   0.105  12.625 -0.3400 -0.0902  0.2448
  848DOPC   NC3 9940   7.634  33.092  14.252 -0.0328  0.3605 -0.2888
  848DOPC   PO4 9941   7.989  33.279  14.187  0.0338 -0.3900 -0.0872
  848DOPC   GL1 9942   7.927  33.283  13.855 -0.1900  0.0105  0.2332
  848DOPC   GL2 9943   8.029  33.568  13.746  0.1083  0.1913 -0.0714
  848DOPC   C1A 9944   7.806  33.288  13.391  0.2588  0.1674 -0.0836
  848DOPC   D2A 9945   7.338  33.154  13.234  0.0839 -0.0368 -0.0207
  848DOPC   C3A 9946   7.143  33.284  12.810  0.1395 -0.1072  0.1776
  848DOPC   C4A 9947   6.821  33.577  12.585 -0.2330  0.2045  0.1089
  848DOPC   C1B 9948   8.327  33.671  13.456 -0.1842  0.2990  0.0364
  848DOPC   D2B 9949   8.499  33.772  13.055 -0.2600  0.3524 -0.0897
  848DOPC   C3B 9950   8.339  34.134  12.805  0.0088 -0.1699  0.0146
  848DOPC   C4B 9951   8.409  34.085  12.340  0.1202 -0.1450 -0.2308
  849DOPE   NH3 9952   8.542  28.884  13.806 -0.0528  0.2119 -0.0841
  849DOPE   PO4 9953   8.275  28.822  13.609 -0.3269  0.0378  0.0249
  849DOPE   GL1 9954   8.164  28.777  13.261 -0.1844 -0.1632 -0.4613
  849DOPE   GL2 9955   7.925  28.902  13.261 -0.2062 -0.2321 -0.3539
  849DOPE   C1A 9956   8.134  28.812  12.817 -0.0694  0.1559  0.0537
  849DOPE   D2A 9957   8.230  28.957  12.410 -0.0201  0.0484 -0.1091
  849DOPE   C3A 9958   7.991  29.271  12.152 -0.1864  0.0933  0.0460
  849DOPE   C4A 9959   7.733  29.438  11.852 -0.2375  0.0406  0.1322
  849DOPE   C1B 9960   7.544  28.972  12.960  0.0127 -0.2887 -0.0327
  849DOPE   D2B 9961   7.301  29.300  12.687  0.1906 -0.3306 -0.0669
  849DOPE   C3B 9962   7.281  29.565  13.037  0.0336 -0.0462 -0.1233
  849DOPE   C4B 9963   7.152  29.520  13.519  0.3957 -0.1838 -0.0554
  850DOPE   NH3 9964  11.141  26.584  13.495  0.0602 -0.0482  0.3149
  850DOPE   PO4 9965  11.302  26.426  13.288  0.0166  0.0046 -0.1977
  850DOPE   GL1 9966  10.995  26.394  13.020  0.1784  0.3760  0.2470
  850DOPE   GL2 9967  11.014  26.658  12.978 -0.1166 -0.3494  0.3637
  850DOPE   C1A 9968  10.844  26.445  12.575 -0.0737  0.0564  0.0204
  850DOPE   D2A 9969  10.454  26.400  12.327  0.2226 -0.1465  0.2019
  850DOPE   C3A 9970  10.192  26.721  12.175 -0.0460  0.1329 -0.2122
  850DOPE   C4A 9971  10.248  27.123  12.016 -0.3183  0.2338  0.0064
  850DOPE   C1B 9972  11.139  26.870  12.557  0.1724 -0.0695  0.0287
  850DOPE   D2B 9973  11.159  26.800  12.105 -0.2101  0.0200  0.1030
  850DOPE   C3B 9974  11.423  26.863  11.720 -0.4360 -0.1964  0.1892
  850DOPE   C4B 9975  11.777  26.935  11.394 -0.2078  0.0344 -0.3216
  851DOPE   NH3 9976   9.657  26.198  13.662  0.0625  0.4470  0.3181
  851DOPE   PO4 9977   9.698  26.119  13.373  0.3106  0.1514  0.0942
  851DOPE   GL1 9978   9.816  26.175  13.033  0.1066  0.0025  0.1394
  851DOPE   GL2 9979   9.760  25.950  12.803  0.1526 -0.1541  0.1375
  851DOPE   C1A 9980  10.137  26.191  12.688  0.2140 -0.2344 -0.2313
  851DOPE   D2A 9981  10.051  26.116  12.238  0.1939 -0.3286  0.0453
  851DOPE   C3A 9982  10.236  26.289  11.854  0.0352 -0.2170 -0.2352
  851DOPE   C4A 9983  10.370  26.474  11.441  0.0042 -0.3684  0.1653
  851DOPE   C1B 9984   9.614  25.844  12.351  0.0215  0.3076  0.1219
  851DOPE   D2B 9985   9.541  26.001  11.930  0.1467 -0.1857 -0.2203
  851DOPE   C3B 9986   9.107  26.017  11.755 -0.0316 -0.1277  0.0636
  851DOPE   C4B 9987   8.882  26.297  11.412 -0.3475 -0.1663  0.2016
  852DOPS   CNO 9988  33.997  28.774  15.123 -0.0335 -0.0948 -0.1606
  852DOPS   PO4 9989  34.081  28.848  14.765 -0.2657  0.1657  0.2042
  852DOPS   GL1 9990  34.143  28.902  14.355 -0.1150  0.0541  0.2699
  852DOPS   GL2 9991  34.482  28.855  14.354 -0.0306 -0.1795  0.1804
  852DOPS   C1A 9992  34.097  29.164  13.950 -0.0572 -0.0176 -0.0038
  852DOPS   D2A 9993  33.804  29.220  13.627 -0.0495  0.1375  0.2067
  852DOPS   C3A 9994  33.375  29.251  13.550 -0.1001  0.0597  0.1193
  852DOPS   C4A 9995  33.142  29.527  13.212 -0.0560 -0.2188  0.1996
  852DOPS   C1B 9996  34.301  28.687  13.962 -0.0794  0.1271  0.1637
  852DOPS   D2B 9997  34.199  28.418  13.565  0.0878 -0.0109  0.1168
  852DOPS   C3B 9998  34.593  28.402  13.305  0.1465  0.0718 -0.0358
  852DOPS   C4B 9999  34.864  28.286  12.952  0.1825  0.1261  0.0228
  853DOPE   NH310000   5.470  30.673  13.999 -0.0089  0.0709  0.1869
  853DOPE   PO410001   5.575  30.924  14.135  0.0131  0.4479  0.1725
  853DOPE   GL110002   5.795  30.932  13.770 -0.1250 -0.0810 -0.3962
  853DOPE   GL210003   5.669  30.818  13.521  0.1698  0.2295  0.3873
  853DOPE   C1A10004   6.036  31.118  13.405 -0.1161 -0.0239 -0.3288
  853DOPE   D2A10005   6.218  31.416  13.138  0.1398  0.0845  0.3559
  853DOPE   C3A10006   6.621  31.438  12.966 -0.1795 -0.5323  0.0971
  853DOPE   C4A10007   6.891  31.338  12.638  0.0806 -0.1825 -0.2337
  853DOPE   C1B10008   5.776  30.742  13.120 -0.0938  0.0860 -0.0150
  853DOPE   D2B10009   6.049  30.541  12.789  0.0488  0.1272  0.3048
  853DOPE   C3B10010   6.447  30.472  12.623  0.0098 -0.0980 -0.0734
  853DOPE   C4B10011   6.641  30.162  12.430  0.1265 -0.3147 -0.4578
  854DOPE   NH310012   3.730  26.858  13.836 -0.3052  0.0842  0.4328
  854DOPE   PO410013   3.446  26.678  13.847 -0.1903  0.2840  0.1110
  854DOPE   GL110014   3.355  26.771  13.481  0.1341  0.0497 -0.2034
  854DOPE   GL210015   3.468  26.539  13.292 -0.0774  0.2250  0.0184
  854DOPE   C1A10016   3.286  27.034  13.073 -0.0012  0.2330  0.1268
  854DOPE   D2A10017   2.970  27.229  12.796  0.0508  0.2766  0.1663
  854DOPE   C3A10018   3.130  27.336  12.290 -0.1244  0.0141 -0.0757
  854DOPE   C4A10019   3.076  27.533  11.835 -0.1890 -0.0027  0.1022
  854DOPE   C1B10020   3.413  26.560  12.865 -0.1083  0.0600 -0.0411
  854DOPE   D2B10021   3.384  26.816  12.479  0.2689  0.2588 -0.1433
  854DOPE   C3B10022   3.730  26.585  12.234  0.1642 -0.0300  0.1758
  854DOPE   C4B10023   3.928  26.391  11.894 -0.0673 -0.0863 -0.1457
  855POSM   NC310024   3.671  21.031  13.354 -0.2158  0.2188  0.2531
  855POSM   PO410025   3.616  21.377  13.392 -0.1148 -0.1940 -0.0643
  855POSM   AM110026   3.499  21.455  13.089 -0.2760  0.0733  0.1507
  855POSM   AM210027   3.485  21.678  12.965  0.0768 -0.0649  0.1552
  855POSM   T1A10028   3.485  21.384  12.614  0.3630 -0.1876  0.2147
  855POSM   C2A10029   3.344  21.102  12.248 -0.2695  0.0936  0.1167
  855POSM   C3A10030   3.364  20.929  11.810 -0.3024 -0.0447  0.0948
  855POSM   C1B10031   3.349  21.998  12.885 -0.1421 -0.0660  0.0276
  855POSM   D2B10032   3.126  22.244  12.566 -0.1338  0.0062 -0.1958
  855POSM   C3B10033   3.270  22.157  12.181  0.3541 -0.2945  0.3276
  855POSM   C4B10034   3.145  21.910  11.802  0.0849 -0.3250 -0.1103
  856POSM   NC310035   5.345  23.626  14.315 -0.1724  0.0895  0.2179
  856POSM   PO410036   5.193  23.860  14.014 -0.1336 -0.1325  0.2779
  856POSM   AM110037   5.431  24.041  13.862  0.1345  0.0918 -0.3499
  856POSM   AM210038   5.397  24.293  13.721  0.0106 -0.1005  0.2093
  856POSM   T1A10039   5.731  24.101  13.465  0.1116 -0.0279  0.0036
  856POSM   C2A10040   5.874  24.184  13.010  0.3240  0.0333 -0.2003
  856POSM   C3A10041   5.667  24.408  12.596  0.1146 -0.0391  0.0116
  856POSM   C1B10042   5.281  24.256  13.383 -0.3379  0.1536  0.2015
  856POSM   D2B10043   5.303  24.251  12.898 -0.1564 -0.0349  0.3837
  856POSM   C3B10044   5.304  23.996  12.513 -0.0053 -0.2038  0.0412
  856POSM   C4B10045   5.181  23.540  12.507  0.0333  0.1827 -0.1872
  857DOPC   NC310046   2.994  28.634  14.239  0.1762 -0.1029  0.3524
  857DOPC   PO410047   2.932  29.021  14.201 -0.0336  0.2639 -0.0266
  857DOPC   GL110048   2.760  28.985  13.914  0.1674  0.1689 -0.2304
  857DOPC   GL210049   2.804  28.749  13.779 -0.0259  0.1675 -0.2263
  857DOPC   C1A10050   3.029  29.136  13.604 -0.0632 -0.1166 -0.3585
  857DOPC   D2A10051   3.386  29.273  13.322  0.1544 -0.2388  0.0155
  857DOPC   C3A10052   3.437  29.133  12.884  0.2278  0.1662  0.0280
  857DOPC   C4A10053   3.308  28.959  12.491  0.0229  0.0625  0.2496
  857DOPC   C1B10054   2.633  28.517  13.394  0.1663  0.0161 -0.1590
  857DOPC   D2B10055   2.477  28.322  12.955 -0.1457 -0.1463  0.0481
  857DOPC   C3B10056   2.279  28.611  12.631 -0.4684 -0.0175  0.1743
  857DOPC   C4B10057   1.886  28.743  12.414 -0.0099  0.0378 -0.0502
  858DOPC   NC310058   4.648  30.161  13.804 -0.1412 -0.1416 -0.1448
  858DOPC   PO410059   4.429  30.484  13.906 -0.3375 -0.0160 -0.4170
  858DOPC   GL110060   4.392  30.399  13.504 -0.0039 -0.2626 -0.0578
  858DOPC   GL210061   4.602  30.297  13.301  0.2863 -0.2859 -0.1446
  858DOPC   C1A10062   4.130  30.114  13.301 -0.2257  0.0442  0.1794
  858DOPC   D2A10063   4.030  30.016  12.869  0.1419  0.2375  0.1377
  858DOPC   C3A10064   4.155  29.653  12.715  0.2091 -0.4247 -0.1566
  858DOPC   C4A10065   4.550  29.586  12.524 -0.0375  0.4822 -0.0296
  858DOPC   C1B10066   4.980  30.182  13.071 -0.0597 -0.1121 -0.0004
  858DOPC   D2B10067   5.078  29.867  12.709 -0.0103 -0.0502  0.1124
  858DOPC   C3B10068   5.469  29.794  12.506 -0.1456  0.3014 -0.1618
  858DOPC   C4B10069   5.750  29.993  12.154  0.4697 -0.4887  0.0922
  859POSM   NC310070   1.884  32.057  14.288 -0.1991 -0.0601 -0.1518
  859POSM   PO410071   1.732  32.396  14.119 -0.4522  0.2249 -0.2968
  859POSM   AM110072   1.756  32.274  13.803  0.2518  0.1521  0.2192
  859POSM   AM210073   1.531  32.267  13.636 -0.2225  0.1947 -0.1785
  859POSM   T1A10074   1.911  32.079  13.354  0.4808 -0.1858  0.0825
  859POSM   C2A10075   2.112  32.210  13.006 -0.2381 -0.1857  0.0252
  859POSM   C3A10076   2.545  32.359  12.730 -0.0799  0.1015  0.0403
  859POSM   C1B10077   1.431  32.180  13.342  0.0229  0.1184 -0.1090
  859POSM   D2B10078   1.146  31.990  13.060  0.1352 -0.0812 -0.3797
  859POSM   C3B10079   1.126  31.625  12.909  0.3658  0.2621  0.2111
  859POSM   C4B10080   1.159  31.477  12.493 -0.1382  0.1441 -0.1378
  860DOPC   NC310081  12.434  27.686  13.167 -0.0721 -0.1994 -0.0381
  860DOPC   PO410082  12.688  27.749  13.468 -0.0437  0.1451 -0.0828
  860DOPC   GL110083  12.883  27.848  13.231  0.0511 -0.1508  0.0993
  860DOPC   GL210084  13.133  27.997  13.132 -0.0648 -0.0100  0.2773
  860DOPC   C1A10085  12.694  28.027  12.891 -0.3185  0.2168  0.0831
  860DOPC   D2A10086  12.264  28.028  12.701  0.0565 -0.3209  0.0225
  860DOPC   C3A10087  12.373  28.072  12.218  0.0877  0.0159 -0.0596
  860DOPC   C4A10088  12.337  28.091  11.789 -0.1032  0.2270  0.2181
  860DOPC   C1B10089  13.084  28.289  12.771  0.0064 -0.1479  0.0206
  860DOPC   D2B10090  13.120  28.438  12.342  0.3392  0.2667  0.3809
  860DOPC   C3B10091  12.802  28.332  12.124 -0.2203  0.2127  0.3543
  860DOPC   C4B10092  12.652  28.537  11.656 -0.0458 -0.1095  0.0930
  861POSM   NC310093  31.881  31.198  15.144  0.3886 -0.1370  0.0516
  861POSM   PO410094  32.117  31.472  15.352  0.1662  0.2032 -0.0497
  861POSM   AM110095  31.948  31.725  15.198 -0.2174 -0.0079  0.3707
  861POSM   AM210096  31.872  31.709  14.950  0.4436  0.1318  0.2547
  861POSM   T1A10097  31.976  32.191  14.891 -0.0459 -0.2608  0.2386
  861POSM   C2A10098  31.983  32.545  14.605  0.1314  0.1721 -0.2573
  861POSM   C3A10099  31.986  32.731  14.139  0.3714  0.0367 -0.0380
  861POSM   C1B10100  31.859  31.773  14.616  0.0162 -0.2508  0.0786
  861POSM   D2B10101  31.771  31.632  14.199 -0.3545 -0.1099 -0.2150
  861POSM   C3B10102  31.364  31.391  14.264 -0.0622 -0.0845 -0.2539
  861POSM   C4B10103  31.108  31.120  13.934  0.1017 -0.1402 -0.1158
  862DOPC   NC310104   4.340  28.502  14.224 -0.0122  0.1114 -0.1236
  862DOPC   PO410105   4.239  28.144  14.275 -0.1172  0.6014  0.0925
  862DOPC   GL110106   4.023  28.349  13.953  0.2592  0.1468  0.2228
  862DOPC   GL210107   4.060  28.184  13.734 -0.1227 -0.0810 -0.0114
  862DOPC   C1A10108   3.584  28.443  13.786  0.0665 -0.1362 -0.1989
  862DOPC   D2A10109   3.345  28.443  13.410  0.2131  0.0191 -0.1956
  862DOPC   C3A10110   3.028  28.787  13.252  0.1959 -0.1873  0.0151
  862DOPC   C4A10111   2.961  29.188  12.992  0.1497  0.0009 -0.3191
  862DOPC   C1B10112   3.923  28.448  13.402  0.4867  0.1448  0.1359
  862DOPC   D2B10113   4.120  28.645  12.957  0.0099  0.1193  0.1124
  862DOPC   C3B10114   3.825  28.592  12.591  0.0007 -0.2487  0.1812
  862DOPC   C4B10115   3.557  28.598  12.243  0.0431 -0.0615  0.3018
  863POSM   NC310116   1.123  31.866  14.445  0.2458 -0.0377  0.0389
  863POSM   PO410117   0.841  31.754  14.188  0.0078  0.1423  0.0399
  863POSM   AM110118   0.612  31.664  14.006  0.5178 -0.0918 -0.0013
  863POSM   AM210119   0.465  31.803  13.810  0.0142  0.1124 -0.0097
  863POSM   T1A10120   0.470  31.295  13.658 -0.1969 -0.0126  0.0150
  863POSM   C2A10121   0.576  31.245  13.166  0.2339  0.0264  0.0717
  863POSM   C3A10122   0.771  31.299  12.741  0.1991  0.3751 -0.2952
  863POSM   C1B10123   0.433  32.028  13.603 -0.0298  0.0030  0.0907
  863POSM   D2B10124   0.245  32.089  13.196  0.1126  0.0023 -0.0819
  863POSM   C3B10125   0.478  32.181  12.767  0.1654  0.0212 -0.2839
  863POSM   C4B10126   0.629  32.343  12.329 -0.3361  0.1731 -0.3455
  864DOPE   NH310127   5.580  29.246  13.975  0.2175  0.0574  0.1531
  864DOPE   PO410128   5.356  29.175  13.741 -0.1345  0.2371  0.0152
  864DOPE   GL110129   5.427  28.789  13.517 -0.2653  0.4248  0.2715
  864DOPE   GL210130   5.192  28.622  13.362 -0.2549 -0.0039 -0.0604
  864DOPE   C1A10131   5.608  28.843  13.108 -0.0573 -0.0541  0.0548
  864DOPE   D2A10132   5.641  29.093  12.660 -0.0036  0.0804  0.1791
  864DOPE   C3A10133   5.519  28.783  12.371 -0.2161 -0.1755  0.0289
  864DOPE   C4A10134   5.311  28.477  12.075 -0.3565 -0.1313  0.2542
  864DOPE   C1B10135   5.106  28.797  12.987  0.2908 -0.3382 -0.1792
  864DOPE   D2B10136   5.140  28.969  12.576  0.1445  0.1294 -0.1104
  864DOPE   C3B10137   5.028  29.384  12.427  0.4257  0.1027 -0.1713
  864DOPE   C4B10138   4.917  29.788  12.212  0.1428 -0.2987  0.0497
  865DOPC   NC310139   9.200  25.182  13.029 -0.0873  0.0095 -0.2275
  865DOPC   PO410140   9.133  24.832  12.833  0.2286  0.2207  0.1208
  865DOPC   GL110141   9.029  25.085  12.503 -0.2898 -0.0940 -0.1020
  865DOPC   GL210142   8.858  25.248  12.597  0.1913 -0.0565  0.2753
  865DOPC   C1A10143   8.991  24.997  12.015  0.0254 -0.0508  0.0083
  865DOPC   D2A10144   9.238  25.114  11.613  0.1310 -0.0682 -0.0320
  865DOPC   C3A10145   9.616  25.361  11.533 -0.2658 -0.4163  0.0060
  865DOPC   C4A10146   9.969  25.588  11.395 -0.3854 -0.1418 -0.0024
  865DOPC   C1B10147   8.763  25.409  12.183  0.0530 -0.0238 -0.1041
  865DOPC   D2B10148   8.662  25.798  11.964 -0.0180  0.3343 -0.3144
  865DOPC   C3B10149   8.631  25.855  11.543 -0.2853  0.1001 -0.0363
  865DOPC   C4B10150   8.965  25.858  11.261  0.1191 -0.0695  0.0626
  866DOPC   NC310151   6.182  24.647  13.630  0.0828  0.1695  0.3281
  866DOPC   PO410152   6.091  25.015  13.493 -0.0177 -0.1232  0.1640
  866DOPC   GL110153   6.411  25.007  13.208  0.0279 -0.2038  0.0396
  866DOPC   GL210154   6.338  25.314  13.139 -0.2323  0.2613  0.1400
  866DOPC   C1A10155   6.514  24.824  12.787 -0.0573  0.1730  0.1619
  866DOPC   D2A10156   6.434  24.682  12.305  0.0145 -0.0336 -0.2869
  866DOPC   C3A10157   6.261  24.894  11.972 -0.0158  0.1845 -0.3646
  866DOPC   C4A10158   6.337  24.846  11.475 -0.5585  0.1576  0.1138
  866DOPC   C1B10159   6.311  25.670  12.794 -0.1223 -0.4565 -0.0582
  866DOPC   D2B10160   6.117  25.701  12.357 -0.1536 -0.0790  0.0060
  866DOPC   C3B10161   6.218  25.935  11.974  0.1465  0.0642 -0.0561
  866DOPC   C4B10162   6.627  26.170  11.899  0.0390  0.1816 -0.0783
  867DOPC   NC310163   4.154  25.523  13.543 -0.1415  0.0449 -0.2584
  867DOPC   PO410164   3.770  25.711  13.503  0.1378  0.1026  0.0074
  867DOPC   GL110165   3.800  25.542  13.079  0.0148 -0.1108 -0.1859
  867DOPC   GL210166   3.982  25.696  12.928 -0.1062  0.0375 -0.0987
  867DOPC   C1A10167   3.503  25.767  12.725 -0.0525  0.1156 -0.2529
  867DOPC   D2A10168   3.291  25.788  12.325 -0.2756 -0.1115 -0.2324
  867DOPC   C3A10169   3.613  26.083  12.140  0.3570  0.0292  0.0310
  867DOPC   C4A10170   3.556  26.104  11.635 -0.2771 -0.0138  0.1801
  867DOPC   C1B10171   3.926  25.315  12.612  0.0515 -0.2296  0.1170
  867DOPC   D2B10172   4.121  24.931  12.385  0.0777 -0.1084  0.1816
  867DOPC   C3B10173   4.482  25.018  12.134  0.3883  0.0434  0.1540
  867DOPC   C4B10174   4.571  25.170  11.671  0.3658 -0.0967 -0.0166
  868DOPC   NC310175  11.752  33.426  14.062  0.0177  0.1518  0.0562
  868DOPC   PO410176  11.450  33.255  14.278  0.0304  0.2201 -0.2123
  868DOPC   GL110177  11.435  33.124  13.955  0.0568 -0.0624  0.0799
  868DOPC   GL210178  11.126  33.110  13.922 -0.1766 -0.4201  0.0103
  868DOPC   C1A10179  11.573  33.242  13.543 -0.0595  0.0838 -0.2111
  868DOPC   D2A10180  11.746  33.079  13.154 -0.0039  0.2022  0.1396
  868DOPC   C3A10181  11.619  32.722  12.929  0.1591 -0.3202  0.2095
  868DOPC   C4A10182  11.329  32.475  12.725  0.0708 -0.0324  0.1072
  868DOPC   C1B10183  11.073  32.985  13.474 -0.1252 -0.0417 -0.2060
  868DOPC   D2B10184  11.176  33.085  13.050  0.0379 -0.0183 -0.0920
  868DOPC   C3B10185  11.467  33.431  13.016  0.0165  0.3506 -0.1653
  868DOPC   C4B10186  11.874  33.541  13.209 -0.2664 -0.4557 -0.1083
  869DOPS   CNO10187   4.149  29.267  14.002 -0.0244  0.1111 -0.0330
  869DOPS   PO410188   4.454  29.429  14.209 -0.2118  0.4180  0.0015
  869DOPS   GL110189   4.301  29.652  13.898  0.3035 -0.2658  0.1462
  869DOPS   GL210190   4.506  29.671  13.777  0.3474  0.2647 -0.0717
  869DOPS   C1A10191   4.138  29.641  13.483  0.1462 -0.0054  0.0360
  869DOPS   D2A10192   3.832  29.598  13.143 -0.0312 -0.3183 -0.3962
  869DOPS   C3A10193   3.905  29.213  12.828  0.0715 -0.2067  0.5201
  869DOPS   C4A10194   4.108  28.969  12.475  0.0449  0.0150  0.2693
  869DOPS   C1B10195   4.660  29.831  13.411  0.1677 -0.1996 -0.0356
  869DOPS   D2B10196   4.551  29.863  12.967 -0.1061  0.0710  0.1008
  869DOPS   C3B10197   4.632  30.043  12.533 -0.0326  0.1261 -0.0937
  869DOPS   C4B10198   4.818  30.429  12.474 -0.0223  0.1199  0.4776
  870DOPC   NC310199   6.514  29.579  13.986  0.2244  0.0625  0.1546
  870DOPC   PO410200   6.551  29.200  13.983  0.1294  0.1087 -0.1571
  870DOPC   GL110201   6.761  29.350  13.655 -0.1287  0.2811 -0.4746
  870DOPC   GL210202   6.946  29.061  13.589  0.0900 -0.2113  0.0553
  870DOPC   C1A10203   6.769  29.362  13.237 -0.1738 -0.0838 -0.0665
  870DOPC   D2A10204   6.621  29.518  12.848  0.1030  0.1466 -0.1297
  870DOPC   C3A10205   6.466  29.665  12.504 -0.0059 -0.1492 -0.1000
  870DOPC   C4A10206   6.672  29.693  12.071 -0.0546 -0.2448  0.0736
  870DOPC   C1B10207   7.109  29.065  13.156 -0.2143 -0.1310 -0.0309
  870DOPC   D2B10208   6.891  29.095  12.753  0.2210 -0.0083 -0.0253
  870DOPC   C3B10209   6.949  29.321  12.319  0.2838 -0.0760  0.1307
  870DOPC   C4B10210   7.191  29.658  12.025 -0.1099 -0.2615  0.1733
  871DOPS   CNO10211   6.281  27.756  13.547  0.0699  0.3628  0.0776
  871DOPS   PO410212   6.518  27.527  13.385  0.0997 -0.2865  0.0754
  871DOPS   GL110213   6.295  27.573  13.075  0.0895  0.3456 -0.0488
  871DOPS   GL210214   6.510  27.389  12.856 -0.1315 -0.0849 -0.0650
  871DOPS   C1A10215   6.517  27.898  12.783  0.2033 -0.2346 -0.4232
  871DOPS   D2A10216   6.625  27.866  12.352  0.1555 -0.0634  0.1881
  871DOPS   C3A10217   6.590  27.987  11.881  0.1849 -0.0943  0.2028
  871DOPS   C4A10218   6.501  28.198  11.477 -0.2360  0.0448  0.0536
  871DOPS   C1B10219   6.288  27.150  12.584  0.2336 -0.0022 -0.1084
  871DOPS   D2B10220   5.880  27.274  12.374 -0.0190 -0.1307 -0.2163
  871DOPS   C3B10221   5.619  27.114  12.023  0.1173 -0.0284  0.0952
  871DOPS   C4B10222   5.546  27.100  11.543  0.3173  0.1573 -0.0351
  872POSM   NC310223  15.766  26.838  13.968 -0.0512 -0.0359 -0.1581
  872POSM   PO410224  15.722  26.566  13.699  0.2442 -0.0149  0.6425
  872POSM   AM110225  15.936  26.626  13.479 -0.0531 -0.0578  0.2295
  872POSM   AM210226  15.927  26.700  13.217  0.1148 -0.0566 -0.1448
  872POSM   T1A10227  16.374  26.745  13.305  0.0631 -0.0721 -0.0482
  872POSM   C2A10228  16.611  26.723  12.908 -0.0096  0.2226 -0.2767
  872POSM   C3A10229  16.827  26.499  12.583 -0.0568  0.0687  0.1190
  872POSM   C1B10230  15.840  26.969  13.115 -0.0826 -0.0501 -0.4431
  872POSM   D2B10231  15.560  27.311  12.909  0.0057 -0.1001 -0.0136
  872POSM   C3B10232  15.690  27.425  12.502  0.2823 -0.1317  0.0634
  872POSM   C4B10233  15.809  27.187  12.098 -0.1369 -0.0729 -0.3929
  873DOPS   CNO10234   6.529  26.899  13.632  0.0177 -0.0487  0.0684
  873DOPS   PO410235   6.439  26.981  13.299  0.0375  0.3602  0.2091
  873DOPS   GL110236   6.107  26.815  13.107 -0.2001  0.0700 -0.4019
  873DOPS   GL210237   6.336  26.693  12.878  0.3653  0.0649 -0.1980
  873DOPS   C1A10238   5.838  26.830  12.732 -0.1430 -0.0264 -0.2027
  873DOPS   D2A10239   5.668  26.678  12.348  0.1681  0.3939 -0.3911
  873DOPS   C3A10240   5.786  26.361  12.044 -0.2171 -0.0353 -0.0625
  873DOPS   C4A10241   5.766  26.091  11.677 -0.1474  0.1488 -0.0539
  873DOPS   C1B10242   6.718  26.504  12.749  0.2263 -0.2683 -0.2405
  873DOPS   D2B10243   6.913  26.414  12.378  0.0688  0.1353  0.0600
  873DOPS   C3B10244   7.034  26.762  12.070  0.1526 -0.3024  0.1598
  873DOPS   C4B10245   6.995  27.123  11.800 -0.0550 -0.1135 -0.1985
  874DOPS   CNO10246   1.258  26.552  14.864 -0.0165 -0.0525 -0.1108
  874DOPS   PO410247   0.911  26.509  14.711  0.0481  0.2186 -0.3989
  874DOPS   GL110248   1.008  26.272  14.385 -0.1860  0.1234  0.3706
  874DOPS   GL210249   0.738  26.172  14.337 -0.0635 -0.2460  0.0549
  874DOPS   C1A10250   1.015  26.339  13.906 -0.1102  0.0610 -0.0999
  874DOPS   D2A10251   1.179  26.517  13.521  0.2721  0.3293 -0.0507
  874DOPS   C3A10252   0.949  26.857  13.247  0.1720  0.1348  0.0640
  874DOPS   C4A10253   0.558  27.135  13.247  0.2710  0.0457  0.2020
  874DOPS   C1B10254   0.545  26.271  13.969  0.1428  0.0803 -0.0787
  874DOPS   D2B10255   0.412  25.941  13.586 -0.0380  0.1272 -0.0718
  874DOPS   C3B10256   0.110  26.050  13.254 -0.1394  0.0434 -0.3922
  874DOPS   C4B10257  -0.004  26.040  12.816 -0.0230  0.2643 -0.1233
  875DOPE   NH310258   2.519  25.286  13.779 -0.2463  0.1551 -0.2610
  875DOPE   PO410259   2.295  25.505  13.884  0.1925 -0.1973  0.1428
  875DOPE   GL110260   2.140  25.654  13.525  0.0148 -0.5236 -0.1669
  875DOPE   GL210261   1.919  25.572  13.575 -0.2013 -0.1073 -0.2427
  875DOPE   C1A10262   2.364  25.861  13.177 -0.0951  0.6391 -0.1351
  875DOPE   D2A10263   2.398  26.118  12.748  0.1218  0.1367 -0.2879
  875DOPE   C3A10264   2.313  25.850  12.386 -0.2272  0.4056 -0.0138
  875DOPE   C4A10265   2.214  25.799  11.936  0.1155 -0.0664 -0.0811
  875DOPE   C1B10266   1.745  25.927  13.290 -0.1956 -0.2135 -0.0213
  875DOPE   D2B10267   1.681  26.435  13.342  0.2549 -0.2758 -0.0601
  875DOPE   C3B10268   1.634  26.585  12.890 -0.1859 -0.0606 -0.0353
  875DOPE   C4B10269   1.594  26.869  12.514  0.2202 -0.1409 -0.1734
  876DOPE   NH310270  10.754  25.696  13.476  0.2187 -0.0485 -0.0940
  876DOPE   PO410271  10.480  25.716  13.332 -0.0430  0.0500 -0.2057
  876DOPE   GL110272  10.500  25.595  12.894 -0.0012  0.0811 -0.0433
  876DOPE   GL210273  10.612  25.430  12.805 -0.3513 -0.2451 -0.0164
  876DOPE   C1A10274  10.676  25.895  12.558 -0.1253  0.0187 -0.0794
  876DOPE   D2A10275  10.821  26.152  12.125 -0.0824 -0.3483  0.1217
  876DOPE   C3A10276  10.951  25.931  11.747  0.1035  0.1083 -0.0592
  876DOPE   C4A10277  11.102  26.016  11.306 -0.3215 -0.2704 -0.1548
  876DOPE   C1B10278  10.612  25.424  12.340  0.1245 -0.4201 -0.1399
  876DOPE   D2B10279  10.352  25.269  12.012  0.0220  0.0780 -0.0657
  876DOPE   C3B10280  10.421  25.413  11.568 -0.1931  0.1177 -0.1070
  876DOPE   C4B10281  10.359  25.533  11.134  0.2164 -0.0845  0.0072
  877DOPE   NH310282   9.231  33.251  14.376  0.3499 -0.0547 -0.1801
  877DOPE   PO410283   9.515  33.149  14.283 -0.0244  0.0058 -0.1174
  877DOPE   GL110284   9.737  33.112  14.015  0.0955 -0.2002 -0.1412
  877DOPE   GL210285   9.584  32.920  13.817 -0.2260  0.0743 -0.1033
  877DOPE   C1A10286  10.057  33.293  13.681  0.1103  0.2128 -0.0440
  877DOPE   D2A10287   9.961  33.452  13.292  0.1816  0.1012  0.1356
  877DOPE   C3A10288  10.102  33.376  12.846  0.3409  0.0566  0.1103
  877DOPE   C4A10289  10.093  33.393  12.383 -0.2741  0.0907 -0.1434
  877DOPE   C1B10290   9.503  33.305  13.553 -0.0691  0.0818  0.2523
  877DOPE   D2B10291   9.463  33.484  13.131 -0.0628  0.1450  0.1144
  877DOPE   C3B10292   9.435  33.275  12.710 -0.0102  0.0375  0.1745
  877DOPE   C4B10293   9.333  32.889  12.488  0.0078 -0.0906 -0.0106
  878DOPC   NC310294   5.276  26.971  14.035  0.0729  0.4032 -0.2501
  878DOPC   PO410295   5.135  27.175  13.751  0.1374 -0.3277 -0.0878
  878DOPC   GL110296   4.927  27.252  13.432  0.0353 -0.0149 -0.0019
  878DOPC   GL210297   5.038  27.217  13.208  0.3046 -0.0091  0.0998
  878DOPC   C1A10298   4.798  27.619  13.128 -0.1895  0.1898  0.1457
  878DOPC   D2A10299   4.952  27.917  12.820 -0.0344  0.2983  0.0064
  878DOPC   C3A10300   4.765  27.925  12.376  0.0589  0.1178  0.0236
  878DOPC   C4A10301   4.736  27.761  11.959 -0.2167  0.1699 -0.1717
  878DOPC   C1B10302   5.030  27.253  12.691 -0.0604 -0.0607 -0.0862
  878DOPC   D2B10303   5.040  27.436  12.252  0.1089  0.0757  0.1981
  878DOPC   C3B10304   5.255  27.592  11.870  0.1525  0.0325  0.2557
  878DOPC   C4B10305   5.346  27.841  11.446 -0.2935 -0.0689  0.2026
  879DOPC   NC310306  10.313  30.023  13.539  0.0932  0.3606  0.0516
  879DOPC   PO410307   9.965  30.136  13.499  0.2016 -0.1663 -0.1606
  879DOPC   GL110308   9.947  30.207  13.105 -0.1622 -0.1984  0.0845
  879DOPC   GL210309  10.077  29.951  13.005  0.2269  0.2687  0.0688
  879DOPC   C1A10310  10.335  30.378  12.918  0.1086  0.3237 -0.3702
  879DOPC   D2A10311  10.498  30.647  12.673  0.3980  0.2417  0.2163
  879DOPC   C3A10312  10.705  30.396  12.287  0.1739 -0.5253  0.3220
  879DOPC   C4A10313  10.504  30.014  12.026 -0.0673 -0.0149  0.2751
  879DOPC   C1B10314   9.749  30.072  12.699 -0.1171  0.2242  0.0785
  879DOPC   D2B10315   9.702  30.236  12.295 -0.1077  0.0868  0.0317
  879DOPC   C3B10316   9.281  30.346  12.435  0.1379  0.1777 -0.1628
  879DOPC   C4B10317   8.866  30.156  12.527  0.0208  0.0398  0.0820
  880POSM   NC310318   2.515  26.775  13.895  0.3778  0.2361  0.1758
  880POSM   PO410319   2.630  27.155  14.064 -0.0517 -0.1651  0.0658
  880POSM   AM110320   2.819  27.159  13.790  0.1356 -0.0645  0.2647
  880POSM   AM210321   2.948  26.986  13.591  0.0502 -0.0481  0.0955
  880POSM   T1A10322   2.924  27.432  13.348 -0.2852 -0.2336 -0.1743
  880POSM   C2A10323   2.774  27.685  12.941  0.0603  0.0302 -0.1406
  880POSM   C3A10324   2.463  27.695  12.629 -0.1245 -0.2088 -0.2197
  880POSM   C1B10325   2.849  26.859  13.224 -0.2644 -0.1805  0.2031
  880POSM   D2B10326   2.930  26.741  12.745  0.1060  0.0763  0.2057
  880POSM   C3B10327   2.618  26.500  12.498 -0.2058 -0.0626  0.3007
  880POSM   C4B10328   2.334  26.551  12.137 -0.0471 -0.1881  0.0740
  881POSM   NC310329   3.767  29.986  14.265  0.1225 -0.0049  0.0316
  881POSM   PO410330   3.458  29.715  14.353  0.2317  0.2157  0.1548
  881POSM   AM110331   3.389  29.859  14.045 -0.0143  0.2322 -0.2748
  881POSM   AM210332   3.255  29.837  13.789  0.2769  0.1568 -0.0927
  881POSM   T1A10333   3.706  30.042  13.694 -0.2700  0.0641 -0.1152
  881POSM   C2A10334   3.649  30.146  13.269  0.1308 -0.1166  0.3030
  881POSM   C3A10335   3.541  29.929  12.874  0.3214 -0.0004 -0.0690
  881POSM   C1B10336   3.345  29.782  13.477  0.0004  0.1805  0.0410
  881POSM   D2B10337   3.133  29.657  13.035 -0.2767 -0.1650 -0.2810
  881POSM   C3B10338   3.006  29.976  12.664 -0.0004 -0.0806 -0.1427
  881POSM   C4B10339   3.004  30.217  12.246  0.0908 -0.0560 -0.2241
  882DOPE   NH310340   3.441  25.327  13.827 -0.3828 -0.1941 -0.0797
  882DOPE   PO410341   3.712  25.197  13.765  0.0460  0.1145  0.0189
  882DOPE   GL110342   3.780  25.199  13.341 -0.3110  0.1488 -0.2908
  882DOPE   GL210343   4.002  24.955  13.400  0.0434 -0.0094  0.2152
  882DOPE   C1A10344   3.613  25.140  12.958  0.1387 -0.2222  0.0378
  882DOPE   D2A10345   3.598  24.846  12.560 -0.1576  0.0173 -0.0299
  882DOPE   C3A10346   3.737  24.603  12.150 -0.1329 -0.1281  0.1629
  882DOPE   C4A10347   3.883  24.539  11.721 -0.2040 -0.2568 -0.0474
  882DOPE   C1B10348   4.219  25.260  13.092 -0.4596  0.1117  0.1571
  882DOPE   D2B10349   4.494  25.238  12.735  0.1755  0.1762 -0.2729
  882DOPE   C3B10350   4.329  25.463  12.349  0.3567 -0.3713 -0.1620
  882DOPE   C4B10351   4.443  25.666  11.942  0.0106 -0.2413  0.0786
  883DOPE   NH310352   1.407  25.463  14.059 -0.0902 -0.2669  0.2132
  883DOPE   PO410353   1.551  25.272  13.817 -0.0389  0.2108  0.0182
  883DOPE   GL110354   1.482  25.027  13.475 -0.0737 -0.0887  0.3111
  883DOPE   GL210355   1.642  25.150  13.285 -0.0988 -0.3958 -0.1415
  883DOPE   C1A10356   1.727  24.662  13.224 -0.1574  0.0798  0.0565
  883DOPE   D2A10357   1.747  24.540  12.784 -0.1226 -0.1190  0.3606
  883DOPE   C3A10358   1.373  24.328  12.606  0.0665 -0.1761  0.1893
  883DOPE   C4A10359   0.967  24.310  12.406 -0.3182 -0.2015 -0.0060
  883DOPE   C1B10360   1.883  25.463  13.079 -0.1513 -0.0336 -0.3792
  883DOPE   D2B10361   1.957  25.857  12.832 -0.1876  0.2431 -0.4716
  883DOPE   C3B10362   2.020  26.280  13.023 -0.0006 -0.0329  0.0683
  883DOPE   C4B10363   2.300  26.649  12.956 -0.0648  0.0264 -0.1237
  884DOPE   NH310364   2.785  34.367  14.150  0.0797 -0.0062 -0.0020
  884DOPE   PO410365   2.534  34.521  14.160 -0.2871 -0.0859 -0.4742
  884DOPE   GL110366   2.489  34.628  13.716 -0.1575 -0.1394 -0.4349
  884DOPE   GL210367   2.588  34.910  13.710 -0.4474 -0.1800  0.0272
  884DOPE   C1A10368   2.335  34.767  13.288  0.1426 -0.0344 -0.0931
  884DOPE   D2A10369   2.067  35.018  12.942 -0.2178  0.2227 -0.3735
  884DOPE   C3A10370   1.926  34.926  12.500 -0.1646 -0.0093  0.2576
  884DOPE   C4A10371   2.155  34.844  12.059 -0.1526  0.1711 -0.1321
  884DOPE   C1B10372   2.972  35.182  13.497  0.1313 -0.2105 -0.3128
  884DOPE   D2B10373   3.196  35.300  13.063 -0.0407 -0.3176 -0.2231
  884DOPE   C3B10374   3.243  35.034  12.719  0.1731  0.3410  0.0847
  884DOPE   C4B10375   3.051  35.024  12.269 -0.0425 -0.3796 -0.0611
  885DOPC   NC310376   2.340  24.213  13.703  0.0831  0.0224 -0.1249
  885DOPC   PO410377   2.045  24.077  13.936  0.3707 -0.2714 -0.1208
  885DOPC   GL110378   1.860  23.834  13.629  0.0467 -0.1386 -0.0530
  885DOPC   GL210379   2.171  23.814  13.484 -0.1505 -0.1808  0.0322
  885DOPC   C1A10380   1.769  23.831  13.214 -0.1440  0.6084 -0.1948
  885DOPC   D2A10381   1.614  23.976  12.783  0.2684  0.1003  0.0284
  885DOPC   C3A10382   1.520  23.717  12.415  0.0768 -0.0499  0.1589
  885DOPC   C4A10383   1.255  23.476  12.059 -0.3842 -0.0183  0.0146
  885DOPC   C1B10384   2.348  23.790  13.052 -0.2361  0.2137 -0.0025
  885DOPC   D2B10385   2.499  23.658  12.625  0.2929 -0.0859 -0.0105
  885DOPC   C3B10386   2.568  23.184  12.612 -0.0603 -0.3782 -0.3936
  885DOPC   C4B10387   2.704  22.790  12.483 -0.3623 -0.0149  0.1047
  886DOPC   NC310388  34.186  29.946  14.741 -0.0960 -0.1052  0.1187
  886DOPC   PO410389  34.139  30.340  14.735 -0.0286  0.0344  0.0580
  886DOPC   GL110390  34.110  30.200  14.286  0.3759 -0.1891 -0.1342
  886DOPC   GL210391  34.322  30.114  14.190 -0.3572 -0.0559  0.0807
  886DOPC   C1A10392  33.798  30.191  13.967 -0.0416  0.1030  0.2604
  886DOPC   D2A10393  33.574  30.517  13.745  0.1457 -0.1835 -0.2338
  886DOPC   C3A10394  33.196  30.273  13.592 -0.1998  0.1221  0.1224
  886DOPC   C4A10395  32.928  29.926  13.412  0.0617 -0.0385 -0.2280
  886DOPC   C1B10396  34.286  29.954  13.813  0.0231  0.0555 -0.1383
  886DOPC   D2B10397  34.014  29.976  13.484  0.0177 -0.1370 -0.2086
  886DOPC   C3B10398  33.766  29.993  13.073  0.1917  0.0367  0.4764
  886DOPC   C4B10399  33.663  30.242  12.714 -0.2389 -0.1016 -0.0078
  887POSM   NC310400   4.851  22.505  13.573  0.2047  0.2762 -0.5573
  887POSM   PO410401   4.915  22.140  13.490  0.0972 -0.2444  0.0207
  887POSM   AM110402   4.741  22.185  13.199 -0.1065 -0.2152  0.0378
  887POSM   AM210403   4.569  22.383  13.114 -0.0307  0.0477 -0.1041
  887POSM   T1A10404   4.726  22.224  12.678 -0.2338  0.0729  0.1912
  887POSM   C2A10405   4.773  22.338  12.171 -0.3922  0.1619 -0.2338
  887POSM   C3A10406   4.997  22.486  11.753  0.2681 -0.2149  0.3072
  887POSM   C1B10407   4.399  22.518  12.870  0.0473 -0.2297 -0.0336
  887POSM   D2B10408   4.325  22.773  12.504 -0.3114 -0.0773  0.1222
  887POSM   C3B10409   4.646  22.855  12.111 -0.1890 -0.0735 -0.3252
  887POSM   C4B10410   4.948  23.206  11.885 -0.2426  0.1567  0.3878
  888DOPC   NC310411   2.214  33.398  14.198  0.1789  0.0359  0.0405
  888DOPC   PO410412   2.606  33.451  14.328  0.0683  0.0543 -0.0023
  888DOPC   GL110413   2.571  33.409  13.892 -0.1900  0.3795 -0.2659
  888DOPC   GL210414   2.818  33.463  13.842  0.1866 -0.0190 -0.3905
  888DOPC   C1A10415   2.555  33.479  13.435  0.1507 -0.1333 -0.2064
  888DOPC   D2A10416   2.586  33.796  13.109  0.0822  0.1310  0.1125
  888DOPC   C3A10417   2.486  33.761  12.631 -0.1083 -0.0921 -0.1835
  888DOPC   C4A10418   2.102  33.797  12.366  0.1833 -0.0402  0.2965
  888DOPC   C1B10419   3.049  33.594  13.479  0.1063  0.0694  0.0354
  888DOPC   D2B10420   3.321  33.312  13.126  0.0007 -0.1015 -0.0481
  888DOPC   C3B10421   3.345  32.908  13.121  0.0032 -0.1945  0.2318
  888DOPC   C4B10422   3.191  32.589  13.373  0.0676  0.0321  0.2532
  889DOPE   NH310423  11.001  27.578  13.714 -0.0020 -0.0305 -0.1661
  889DOPE   PO410424  11.131  27.337  13.514  0.1595  0.0027  0.1948
  889DOPE   GL110425  11.168  27.633  13.212 -0.2490 -0.0699 -0.0058
  889DOPE   GL210426  11.375  27.569  13.036 -0.0818 -0.1280 -0.3475
  889DOPE   C1A10427  11.334  28.082  13.167  0.0744 -0.2386 -0.0663
  889DOPE   D2A10428  11.678  28.340  13.072 -0.2315  0.2363 -0.2729
  889DOPE   C3A10429  11.647  28.337  12.641  0.0973  0.1017 -0.2991
  889DOPE   C4A10430  11.393  28.147  12.265  0.0559  0.0112 -0.0681
  889DOPE   C1B10431  11.422  27.281  12.680 -0.0517  0.1478  0.4551
  889DOPE   D2B10432  11.543  27.088  12.324  0.2222  0.0299 -0.0192
  889DOPE   C3B10433  11.963  27.078  12.079  0.3483 -0.3155 -0.1508
  889DOPE   C4B10434  12.195  27.466  12.135 -0.0959  0.3073  0.2633
  890DOPC   NC310435   4.813  29.047  13.701 -0.4152  0.1599  0.0138
  890DOPC   PO410436   4.579  28.967  14.032  0.0025 -0.0666 -0.2145
  890DOPC   GL110437   4.378  28.902  13.650  0.1448  0.2229 -0.1028
  890DOPC   GL210438   4.323  28.614  13.594  0.0856  0.2145 -0.2560
  890DOPC   C1A10439   4.628  28.853  13.231 -0.1108  0.3064 -0.1497
  890DOPC   D2A10440   4.668  28.836  12.797  0.0578 -0.1836  0.0283
  890DOPC   C3A10441   4.642  29.076  12.363  0.0783  0.0220  0.0103
  890DOPC   C4A10442   4.619  29.359  11.956 -0.2495 -0.0416  0.0098
  890DOPC   C1B10443   4.441  28.426  13.216  0.0430  0.0801  0.0255
  890DOPC   D2B10444   4.626  28.304  12.745 -0.1679  0.0736 -0.1571
  890DOPC   C3B10445   4.667  28.605  12.357 -0.0030 -0.0109  0.1053
  890DOPC   C4B10446   4.911  28.791  11.992 -0.0063 -0.1552  0.0673
  891DOPE   NH310447   0.594  30.408  14.288 -0.1000  0.3079 -0.1102
  891DOPE   PO410448   0.580  30.733  14.318  0.0726  0.0051  0.0239
  891DOPE   GL110449   0.611  30.755  13.904 -0.2398 -0.0828 -0.1836
  891DOPE   GL210450   0.862  30.627  13.806 -0.0728 -0.0957 -0.3352
  891DOPE   C1A10451   0.496  30.851  13.500 -0.0885 -0.3424  0.1693
  891DOPE   D2A10452   0.344  30.801  13.074 -0.1210  0.2117  0.2168
  891DOPE   C3A10453   0.050  30.511  13.013  0.1949 -0.2121 -0.1548
  891DOPE   C4A10454  -0.208  30.263  12.739 -0.0259 -0.2247 -0.0378
  891DOPE   C1B10455   0.982  30.653  13.370  0.2114  0.1012 -0.0687
  891DOPE   D2B10456   0.884  30.669  12.913  0.2523  0.1644 -0.0157
  891DOPE   C3B10457   0.600  30.398  12.709  0.1574  0.2665  0.1512
  891DOPE   C4B10458   0.271  30.447  12.408 -0.1092  0.1667  0.1272
  892DOPE   NH310459  11.894  24.006  12.779  0.1354  0.2377 -0.0888
  892DOPE   PO410460  12.177  23.926  12.835 -0.1057  0.1590  0.0207
  892DOPE   GL110461  12.194  23.859  12.406 -0.2173 -0.1540  0.2736
  892DOPE   GL210462  12.405  23.998  12.351  0.4128 -0.1267 -0.2262
  892DOPE   C1A10463  12.215  23.816  11.958 -0.0147 -0.1323 -0.1313
  892DOPE   D2A10464  12.004  24.054  11.560 -0.0364 -0.1671  0.3694
  892DOPE   C3A10465  12.249  24.212  11.175  0.0924 -0.2033  0.1419
  892DOPE   C4A10466  12.701  24.228  10.967  0.4823  0.3297  0.0934
  892DOPE   C1B10467  12.499  24.311  12.024 -0.6177  0.0467  0.1158
  892DOPE   D2B10468  12.755  24.472  11.667 -0.1987 -0.1716 -0.1960
  892DOPE   C3B10469  12.923  24.230  11.403  0.0088 -0.2044 -0.1321
  892DOPE   C4B10470  13.016  23.809  11.257  0.0030 -0.0647  0.0122
  893DOPC   NC310471   3.740  23.710  13.686 -0.2948  0.1236  0.0303
  893DOPC   PO410472   3.390  23.567  13.784 -0.0453 -0.0580 -0.0379
  893DOPC   GL110473   3.158  23.776  13.491  0.0334 -0.3686  0.3097
  893DOPC   GL210474   3.262  24.020  13.541  0.0571  0.0532  0.2778
  893DOPC   C1A10475   3.330  23.937  13.105  0.0681  0.0110  0.1220
  893DOPC   D2A10476   3.543  24.330  12.848  0.2150  0.0617 -0.1227
  893DOPC   C3A10477   3.414  24.252  12.400  0.3813 -0.2956 -0.1687
  893DOPC   C4A10478   3.417  24.236  11.932 -0.1176 -0.1782 -0.0001
  893DOPC   C1B10479   3.732  24.153  13.431 -0.0529 -0.3287  0.1963
  893DOPC   D2B10480   4.024  24.317  13.083 -0.1211  0.0541  0.0758
  893DOPC   C3B10481   3.973  24.425  12.635  0.1823 -0.2625  0.0591
  893DOPC   C4B10482   4.190  24.493  12.205  0.1350  0.2850  0.1040
  894DOPC   NC310483   4.935  25.105  13.632  0.1869 -0.5819  0.0662
  894DOPC   PO410484   4.603  25.147  13.940  0.0293  0.1318  0.0702
  894DOPC   GL110485   4.500  25.145  13.508  0.0485  0.2220  0.2808
  894DOPC   GL210486   4.446  24.847  13.451 -0.2750 -0.1975  0.1807
  894DOPC   C1A10487   4.783  25.092  13.122  0.1727 -0.0710 -0.0601
  894DOPC   D2A10488   5.027  24.783  12.889  0.1675 -0.0169 -0.1551
  894DOPC   C3A10489   4.927  24.369  12.604 -0.1946 -0.0431  0.0339
  894DOPC   C4A10490   4.929  24.164  12.180  0.0696 -0.0969 -0.2670
  894DOPC   C1B10491   4.477  24.720  12.997  0.1837 -0.1767 -0.2449
  894DOPC   D2B10492   4.444  24.613  12.592  0.0991 -0.0198 -0.0215
  894DOPC   C3B10493   4.472  24.138  12.454  0.2493  0.1192  0.0207
  894DOPC   C4B10494   4.239  23.779  12.277 -0.0591 -0.0046 -0.0815
  895DOPC   NC310495  11.219  30.890  13.870  0.0155  0.0194 -0.0143
  895DOPC   PO410496  11.271  31.258  13.828  0.0277  0.0368 -0.1091
  895DOPC   GL110497  11.122  31.283  13.473 -0.0263  0.1448  0.2171
  895DOPC   GL210498  11.357  31.508  13.378 -0.1363 -0.1964 -0.2724
  895DOPC   C1A10499  11.043  31.075  13.037 -0.0345 -0.1323 -0.2066
  895DOPC   D2A10500  10.880  30.982  12.611  0.0917 -0.0933 -0.2860
  895DOPC   C3A10501  10.581  31.304  12.403  0.1383  0.1838  0.1952
  895DOPC   C4A10502  10.631  31.753  12.388 -0.1519  0.0182 -0.2158
  895DOPC   C1B10503  11.469  31.388  12.979  0.3300  0.1449 -0.0964
  895DOPC   D2B10504  11.358  31.148  12.570 -0.0632 -0.0829  0.0046
  895DOPC   C3B10505  11.637  30.977  12.257  0.1929  0.1071  0.0627
  895DOPC   C4B10506  11.911  31.079  11.903 -0.2601 -0.1779  0.0767
  896DOPC   NC310507  32.250  24.041  14.694  0.1357 -0.1049 -0.0666
  896DOPC   PO410508  32.504  23.801  14.514  0.1272  0.2927  0.1310
  896DOPC   GL110509  32.563  23.855  14.177 -0.1326  0.1100 -0.0189
  896DOPC   GL210510  32.800  23.774  14.039 -0.2642  0.1980  0.3394
  896DOPC   C1A10511  32.332  23.766  13.756 -0.0588  0.0888  0.0808
  896DOPC   D2A10512  32.376  23.828  13.290 -0.1041  0.2428 -0.3476
  896DOPC   C3A10513  32.673  23.733  12.969 -0.2155 -0.1175  0.1696
  896DOPC   C4A10514  32.779  23.725  12.533  0.0681  0.0837  0.2663
  896DOPC   C1B10515  32.907  23.769  13.582  0.1242  0.2563 -0.1221
  896DOPC   D2B10516  33.022  23.942  13.195 -0.0218  0.2696 -0.0586
  896DOPC   C3B10517  33.085  24.388  13.063  0.2627  0.0905 -0.2925
  896DOPC   C4B10518  32.855  24.477  12.662 -0.0951  0.2173 -0.3314
  897DOPC   NC310519   6.634  21.597  13.388  0.0241  0.0212  0.1958
  897DOPC   PO410520   6.413  21.890  13.286 -0.0853 -0.6189 -0.0712
  897DOPC   GL110521   6.347  21.890  12.870  0.0376 -0.5200  0.0457
  897DOPC   GL210522   6.156  22.167  12.790  0.0220 -0.0698 -0.0497
  897DOPC   C1A10523   6.252  21.675  12.492 -0.0525  0.0052  0.0061
  897DOPC   D2A10524   6.170  21.605  12.026 -0.2369  0.0088 -0.0452
  897DOPC   C3A10525   6.309  21.695  11.564 -0.1352 -0.0893  0.1649
  897DOPC   C4A10526   6.014  21.754  11.143  0.2005 -0.0728 -0.1232
  897DOPC   C1B10527   5.775  22.387  12.574  0.0929 -0.0679 -0.0392
  897DOPC   D2B10528   5.672  22.481  12.142 -0.2205 -0.1372  0.0509
  897DOPC   C3B10529   5.968  22.570  11.791  0.0688 -0.4221 -0.1435
  897DOPC   C4B10530   6.193  22.728  11.399 -0.2063 -0.2377  0.0495
  898DOPE   NH310531   7.026  32.511  14.027  0.1715  0.1675  0.2103
  898DOPE   PO410532   7.307  32.705  14.043  0.3032  0.0035 -0.0261
  898DOPE   GL110533   7.471  32.554  13.744 -0.2470 -0.1471 -0.1007
  898DOPE   GL210534   7.340  32.338  13.630 -0.2373  0.2716 -0.1086
  898DOPE   C1A10535   7.865  32.300  13.670  0.2302  0.1284 -0.2919
  898DOPE   D2A10536   8.287  32.393  13.503  0.1952 -0.1963  0.1926
  898DOPE   C3A10537   8.455  32.464  13.115 -0.2025 -0.0129  0.0244
  898DOPE   C4A10538   8.421  32.537  12.639 -0.3861 -0.2194  0.0410
  898DOPE   C1B10539   7.380  32.628  13.304  0.0462 -0.0227 -0.1085
  898DOPE   D2B10540   7.213  32.780  12.904 -0.0911  0.1908 -0.2094
  898DOPE   C3B10541   7.200  32.455  12.578  0.2620 -0.1934  0.0481
  898DOPE   C4B10542   6.822  32.250  12.367  0.1855  0.3247 -0.4346
  899DOPE   NH310543   7.803  30.008  13.664 -0.0690  0.1231  0.0682
  899DOPE   PO410544   8.051  29.817  13.655  0.3477 -0.1952 -0.0592
  899DOPE   GL110545   8.083  29.871  13.232  0.0122  0.6520  0.3527
  899DOPE   GL210546   8.203  29.618  13.176 -0.0137  0.1227  0.0131
  899DOPE   C1A10547   8.300  30.101  12.939 -0.1774 -0.0585  0.1040
  899DOPE   D2A10548   8.441  30.452  12.659  0.2413  0.1490  0.0597
  899DOPE   C3A10549   8.518  30.744  12.298 -0.0805  0.2903  0.0201
  899DOPE   C4A10550   8.725  31.077  12.072  0.2823 -0.1674 -0.0279
  899DOPE   C1B10551   7.941  29.292  13.004 -0.0367  0.2110 -0.3258
  899DOPE   D2B10552   7.825  29.188  12.576 -0.1502 -0.0254 -0.2366
  899DOPE   C3B10553   7.594  29.600  12.339 -0.2714 -0.0639  0.2532
  899DOPE   C4B10554   7.518  29.990  12.065 -0.0895 -0.0289  0.0841
  900POSM   NC310555   6.358  30.422  14.093  0.0605 -0.1789 -0.1114
  900POSM   PO410556   6.600  30.094  14.029 -0.2274 -0.0743 -0.1357
  900POSM   AM110557   6.772  29.982  13.762 -0.1857  0.1539  0.0324
  900POSM   AM210558   6.760  29.799  13.578 -0.0463  0.3121  0.1669
  900POSM   T1A10559   7.051  30.131  13.377  0.0734  0.1689 -0.0881
  900POSM   C2A10560   6.956  29.949  12.925  0.0863 -0.1938 -0.5102
  900POSM   C3A10561   6.992  29.765  12.529 -0.0695  0.2269  0.1545
  900POSM   C1B10562   6.558  29.926  13.320  0.0449 -0.0483  0.2905
  900POSM   D2B10563   6.273  30.189  13.044 -0.0185  0.0193  0.0424
  900POSM   C3B10564   6.175  30.063  12.653 -0.1996  0.0985 -0.0011
  900POSM   C4B10565   6.168  30.308  12.255  0.0511  0.0883  0.1219
  901DOPC   NC310566  10.734  23.956  12.921  0.1637 -0.1115  0.0589
  901DOPC   PO410567  11.047  23.754  12.895  0.0468 -0.0803  0.1857
  901DOPC   GL110568  11.042  23.851  12.520  0.2019  0.2384  0.2452
  901DOPC   GL210569  10.832  24.074  12.451  0.4485 -0.0043  0.2789
  901DOPC   C1A10570  10.823  23.706  12.144 -0.2831  0.0115 -0.1438
  901DOPC   D2A10571  10.700  23.341  11.911  0.0449 -0.2189  0.0020
  901DOPC   C3A10572  10.543  23.246  11.501 -0.0125  0.1470 -0.3592
  901DOPC   C4A10573  10.637  23.393  11.090 -0.0188  0.1897 -0.0288
  901DOPC   C1B10574  10.803  24.389  12.053  0.0437 -0.0501 -0.1030
  901DOPC   D2B10575  10.576  24.449  11.644 -0.1993 -0.0416 -0.2054
  901DOPC   C3B10576  10.561  24.168  11.283  0.0531  0.1653  0.0227
  901DOPC   C4B10577  10.398  23.945  10.896 -0.2179 -0.2336  0.1449
  902POSM   NC310578   2.892  23.680  13.929 -0.0215  0.1105 -0.1223
  902POSM   PO410579   2.732  23.919  13.657  0.1260 -0.1830 -0.2658
  902POSM   AM110580   2.853  24.126  13.446 -0.0179 -0.1777  0.3485
  902POSM   AM210581   2.886  24.133  13.146  0.0389 -0.1014  0.0133
  902POSM   T1A10582   3.255  24.443  13.291 -0.1890 -0.1126  0.0490
  902POSM   C2A10583   3.606  24.720  13.215 -0.3616  0.0583  0.1060
  902POSM   C3A10584   3.985  24.842  12.923 -0.3042 -0.3010  0.1480
  902POSM   C1B10585   2.639  24.123  12.899  0.0421 -0.0736 -0.0776
  902POSM   D2B10586   2.521  24.118  12.410  0.2305  0.0532 -0.0302
  902POSM   C3B10587   2.280  24.500  12.477 -0.0530 -0.0017  0.1261
  902POSM   C4B10588   2.240  24.668  12.879 -0.2697 -0.1056 -0.1232
  903POSM   NC310589   1.105  30.504  14.319  0.0342 -0.2395  0.0555
  903POSM   PO410590   1.175  30.861  14.195  0.0130 -0.0028  0.1389
  903POSM   AM110591   1.154  30.957  13.879  0.2353  0.3134 -0.2685
  903POSM   AM210592   1.354  31.093  13.784 -0.2788 -0.0698 -0.2073
  903POSM   T1A10593   0.934  31.195  13.518  0.2769  0.0139 -0.2350
  903POSM   C2A10594   0.731  31.598  13.436 -0.1399  0.2784 -0.2251
  903POSM   C3A10595   0.687  31.899  13.120 -0.4120  0.0967 -0.2100
  903POSM   C1B10596   1.505  31.082  13.460  0.0800 -0.1766 -0.1468
  903POSM   D2B10597   1.605  31.273  13.034 -0.0889  0.0388  0.0807
  903POSM   C3B10598   1.839  30.970  12.711  0.4434 -0.2172 -0.0333
  903POSM   C4B10599   2.047  30.617  12.441 -0.3128  0.1954  0.1006
  904DOPS   CNO10600   5.196  28.688  13.892  0.0277 -0.3138  0.2026
  904DOPS   PO410601   5.516  28.476  13.885  0.1111 -0.0067  0.2777
  904DOPS   GL110602   5.613  28.352  13.531  0.2432  0.0839 -0.0317
  904DOPS   GL210603   5.478  28.166  13.387  0.3790 -0.0969  0.0813
  904DOPS   C1A10604   5.905  28.398  13.182  0.0119  0.0150 -0.1612
  904DOPS   D2A10605   6.134  28.706  12.946 -0.0891  0.0550  0.1092
  904DOPS   C3A10606   6.027  28.766  12.459  0.1745  0.1289 -0.1437
  904DOPS   C4A10607   5.976  28.779  12.053  0.0881 -0.0697 -0.0424
  904DOPS   C1B10608   5.402  28.363  13.017  0.1416  0.2389  0.2173
  904DOPS   D2B10609   5.683  28.507  12.744  0.2705  0.1140  0.0472
  904DOPS   C3B10610   5.729  28.331  12.291 -0.3283 -0.0796  0.1237
  904DOPS   C4B10611   5.478  28.095  11.901  0.1015 -0.1512 -0.0607
  905DOPC   NC310612   2.449  31.592  14.099 -0.0353 -0.0809 -0.0127
  905DOPC   PO410613   2.110  31.548  14.273  0.1571  0.0737  0.0245
  905DOPC   GL110614   2.107  31.608  13.847 -0.2414  0.2309 -0.0243
  905DOPC   GL210615   1.882  31.808  13.826  0.0071  0.1230  0.2330
  905DOPC   C1A10616   2.255  31.674  13.402  0.0748 -0.2020 -0.0418
  905DOPC   D2A10617   2.409  31.723  12.949  0.1121 -0.0815 -0.1785
  905DOPC   C3A10618   2.071  31.635  12.664 -0.0436 -0.0773 -0.2092
  905DOPC   C4A10619   1.695  31.445  12.540  0.1002 -0.0355  0.1148
  905DOPC   C1B10620   1.711  31.643  13.432 -0.1772 -0.1415  0.0724
  905DOPC   D2B10621   1.643  31.806  12.999  0.2154 -0.1181  0.0330
  905DOPC   C3B10622   1.506  32.074  12.669  0.1721 -0.0943  0.1652
  905DOPC   C4B10623   1.574  31.922  12.262  0.0257  0.2589 -0.0847
  906DOPE   NH310624   6.115  30.847  14.313  0.0788  0.1194  0.2367
  906DOPE   PO410625   6.204  30.869  14.012  0.0827 -0.3490  0.0015
  906DOPE   GL110626   6.314  30.673  13.689 -0.2896 -0.1048 -0.0876
  906DOPE   GL210627   6.104  30.462  13.644  0.3650 -0.0213 -0.2405
  906DOPE   C1A10628   6.578  30.472  13.368  0.1642  0.2272 -0.2457
  906DOPE   D2A10629   6.759  30.487  12.931 -0.1257  0.1358  0.0430
  906DOPE   C3A10630   6.834  30.876  12.653 -0.0453 -0.1456  0.2656
  906DOPE   C4A10631   6.731  31.121  12.238 -0.0012 -0.0741 -0.1920
  906DOPE   C1B10632   5.891  30.236  13.302  0.0420 -0.0723 -0.2203
  906DOPE   D2B10633   5.757  30.116  12.880 -0.0390 -0.1241  0.0585
  906DOPE   C3B10634   5.482  29.775  13.048 -0.3746  0.0497 -0.1475
  906DOPE   C4B10635   5.026  29.672  13.157  0.2578  0.1267 -0.0742
  907DOPE   NH310636   6.952  22.443  13.595  0.2015 -0.1838  0.0769
  907DOPE   PO410637   6.996  22.574  13.318  0.1046  0.4340 -0.1064
  907DOPE   GL110638   6.596  22.721  13.159 -0.1823 -0.1980  0.0023
  907DOPE   GL210639   6.542  23.017  13.012 -0.0373  0.0892  0.0328
  907DOPE   C1A10640   6.479  22.623  12.717  0.0001  0.0971  0.0629
  907DOPE   D2A10641   6.343  22.482  12.295 -0.2871 -0.0623 -0.1937
  907DOPE   C3A10642   6.424  22.032  12.189  0.0555  0.1299  0.2789
  907DOPE   C4A10643   6.639  21.801  11.920  0.0961 -0.2429 -0.0675
  907DOPE   C1B10644   6.381  23.144  12.592 -0.1049 -0.0734 -0.0964
  907DOPE   D2B10645   6.309  23.009  12.126 -0.1448  0.0649  0.2603
  907DOPE   C3B10646   6.158  23.334  11.766 -0.3070  0.2580 -0.3844
  907DOPE   C4B10647   6.087  23.512  11.398 -0.1662  0.0052 -0.0037
  908DOPC   NC310648   5.773  25.328  13.688  0.1080  0.1976 -0.4169
  908DOPC   PO410649   5.971  25.655  13.643  0.4977  0.0364  0.1108
  908DOPC   GL110650   5.913  25.515  13.216 -0.1141  0.0319  0.5037
  908DOPC   GL210651   5.704  25.363  13.149 -0.0565 -0.0480 -0.3980
  908DOPC   C1A10652   5.822  25.757  12.775 -0.1787  0.2355 -0.2980
  908DOPC   D2A10653   5.803  26.059  12.457  0.0477 -0.2360  0.0082
  908DOPC   C3A10654   5.644  25.822  12.097 -0.0550  0.0945  0.5570
  908DOPC   C4A10655   5.515  25.433  11.903 -0.0564  0.1846  0.3332
  908DOPC   C1B10656   6.003  25.259  12.814  0.1181 -0.0312 -0.1565
  908DOPC   D2B10657   6.346  25.217  12.408  0.0194 -0.0892  0.2269
  908DOPC   C3B10658   6.609  25.618  12.417 -0.1510 -0.2530  0.1335
  908DOPC   C4B10659   6.964  25.795  12.159  0.0210 -0.0522  0.0915
  909POSM   NC310660   7.648  30.993  14.448  0.0031  0.3418  0.1138
  909POSM   PO410661   7.451  31.275  14.336 -0.1306 -0.2296  0.2576
  909POSM   AM110662   7.428  31.272  14.003 -0.1546 -0.2221 -0.0034
  909POSM   AM210663   7.393  31.487  13.823 -0.0264  0.4341 -0.0150
  909POSM   T1A10664   7.131  31.072  13.596  0.3751 -0.0078  0.2142
  909POSM   C2A10665   7.050  30.732  13.276  0.0675  0.2945 -0.3272
  909POSM   C3A10666   7.241  30.444  13.017  0.0323 -0.1501 -0.1926
  909POSM   C1B10667   7.241  31.577  13.517  0.0339 -0.3262  0.1631
  909POSM   D2B10668   7.105  31.572  13.060  0.0034  0.0488 -0.1160
  909POSM   C3B10669   7.442  31.421  12.760  0.1058 -0.2695  0.1327
  909POSM   C4B10670   7.769  31.165  12.561 -0.0516  0.0286 -0.2317
  910POSM   NC310671   1.496  29.817  13.902  0.0032 -0.0689 -0.1126
  910POSM   PO410672   1.875  29.798  13.974  0.2642 -0.0137 -0.1606
  910POSM   AM110673   1.970  29.846  13.635  0.1953  0.1992 -0.2442
  910POSM   AM210674   2.199  29.886  13.444  0.2931  0.1130 -0.1798
  910POSM   T1A10675   1.732  29.748  13.205  0.2828  0.4852 -0.0386
  910POSM   C2A10676   1.604  29.430  12.938 -0.1775  0.3070 -0.0540
  910POSM   C3A10677   1.207  29.156  12.948 -0.2648  0.1000 -0.0864
  910POSM   C1B10678   2.020  30.129  13.275  0.0088 -0.0308  0.3884
  910POSM   D2B10679   1.859  30.446  12.959 -0.2030  0.0256 -0.1247
  910POSM   C3B10680   1.893  30.863  13.161 -0.2560  0.1161 -0.1854
  910POSM   C4B10681   2.106  31.261  13.055  0.0005  0.0794 -0.1321
  911DOPC   NC310682   8.866   0.374  14.314 -0.0253 -0.1012 -0.1130
  911DOPC   PO410683   8.918  -0.032  14.361  0.1927 -0.0602 -0.2743
  911DOPC   GL110684   8.947  -0.105  13.894 -0.2231  0.2337  0.3305
  911DOPC   GL210685   8.730  -0.135  13.789  0.0638 -0.2487 -0.2709
  911DOPC   C1A10686   9.332  -0.121  13.587 -0.0378  0.2577 -0.0213
  911DOPC   D2A10687   9.480   0.243  13.240  0.2003 -0.1534 -0.1237
  911DOPC   C3A10688   9.741   0.226  12.888 -0.1556  0.0602 -0.0480
  911DOPC   C4A10689  10.095  -0.112  12.760 -0.2063 -0.0293 -0.1056
  911DOPC   C1B10690   8.414   0.254  13.805  0.0380 -0.0217  0.2031
  911DOPC   D2B10691   8.168   0.504  13.530 -0.1265  0.1228  0.0111
  911DOPC   C3B10692   8.347   0.269  13.151 -0.1367  0.2738  0.1750
  911DOPC   C4B10693   8.351   0.203  12.667  0.1455 -0.1565 -0.2425
  912DOPS   CNO10694   4.967  25.953  13.324 -0.2573  0.2147 -0.2096
  912DOPS   PO410695   4.842  25.588  13.469  0.2199  0.1101 -0.2305
  912DOPS   GL110696   4.576  25.562  13.120 -0.1668  0.1541 -0.3029
  912DOPS   GL210697   4.818  25.592  12.913 -0.1181  0.0343  0.2074
  912DOPS   C1A10698   4.436  25.873  12.754 -0.2221  0.0887 -0.0483
  912DOPS   D2A10699   4.058  25.982  12.519 -0.0803 -0.3500  0.2910
  912DOPS   C3A10700   3.935  25.655  12.202 -0.1304 -0.2105  0.2721
  912DOPS   C4A10701   4.144  25.261  11.954 -0.1195  0.0611 -0.2662
  912DOPS   C1B10702   4.780  25.576  12.455 -0.3436  0.0753  0.2204
  912DOPS   D2B10703   5.145  25.414  12.277 -0.0173 -0.4248 -0.0274
  912DOPS   C3B10704   4.988  25.123  11.954 -0.0345  0.2913  0.1841
  912DOPS   C4B10705   5.011  24.657  11.752  0.1590 -0.1763 -0.0301
  913DOPE   NH310706   9.553  30.175  13.752 -0.3601  0.4889  0.0382
  913DOPE   PO410707   9.236  30.080  13.795  0.0730 -0.1141  0.0815
  913DOPE   GL110708   9.304  30.044  13.378  0.0662 -0.2975 -0.1084
  913DOPE   GL210709   9.544  29.973  13.275  0.0771 -0.0514  0.1902
  913DOPE   C1A10710   9.021  30.001  13.039 -0.2686  0.2959 -0.0212
  913DOPE   D2A10711   8.668  29.772  12.845  0.0806 -0.0926  0.2184
  913DOPE   C3A10712   8.446  29.960  12.485 -0.0130 -0.1825 -0.0881
  913DOPE   C4A10713   8.543  30.256  12.145  0.0678 -0.0226 -0.1765
  913DOPE   C1B10714   9.545  29.591  13.011 -0.0014  0.1512  0.2844
  913DOPE   D2B10715   9.838  29.396  12.696 -0.0069  0.1019  0.0386
  913DOPE   C3B10716   9.817  29.127  12.353  0.1499  0.3570 -0.0365
  913DOPE   C4B10717   9.875  29.257  11.906  0.2825  0.0145  0.1396
  914DOPS   CNO10718   5.221  30.192  13.981 -0.0320 -0.0625  0.3230
  914DOPS   PO410719   5.028  30.482  13.855  0.0742  0.1106 -0.0630
  914DOPS   GL110720   5.278  30.519  13.554  0.0907  0.1600 -0.2119
  914DOPS   GL210721   5.245  30.748  13.284 -0.0640 -0.0591  0.0750
  914DOPS   C1A10722   5.456  30.346  13.170 -0.0539  0.0589 -0.5334
  914DOPS   D2A10723   5.350  30.261  12.707 -0.2265  0.1160 -0.2446
  914DOPS   C3A10724   5.706  30.406  12.411  0.0668 -0.1877 -0.0090
  914DOPS   C4A10725   6.037  30.751  12.373 -0.0911 -0.4186 -0.1036
  914DOPS   C1B10726   4.918  30.859  13.000 -0.1566 -0.0403 -0.0877
  914DOPS   D2B10727   4.501  31.030  12.811 -0.1210  0.0213 -0.2323
  914DOPS   C3B10728   4.479  31.428  12.587 -0.0577  0.2070 -0.0555
  914DOPS   C4B10729   4.310  31.770  12.279  0.1945 -0.1908 -0.1827
  915DOPS   CNO10730   2.051  24.596  13.824 -0.1902 -0.2191  0.0244
  915DOPS   PO410731   2.391  24.797  13.792  0.2913 -0.1862  0.4077
  915DOPS   GL110732   2.469  24.605  13.498  0.0804  0.2163 -0.2621
  915DOPS   GL210733   2.654  24.586  13.300 -0.1619 -0.0855  0.0558
  915DOPS   C1A10734   2.219  24.307  13.244  0.2416  0.1569 -0.2660
  915DOPS   D2A10735   2.113  24.165  12.795 -0.0155 -0.3961 -0.2624
  915DOPS   C3A10736   1.856  24.160  12.398 -0.2011 -0.0808 -0.1551
  915DOPS   C4A10737   1.844  24.200  11.913 -0.0500  0.1842 -0.1367
  915DOPS   C1B10738   2.715  24.626  12.902  0.1323 -0.2109  0.1787
  915DOPS   D2B10739   2.975  24.459  12.545 -0.2202 -0.0823  0.4786
  915DOPS   C3B10740   2.963  24.176  12.218  0.1001  0.0441  0.2104
  915DOPS   C4B10741   2.635  23.977  11.966  0.1018  0.0901  0.0377
  916POSM   NC310742   2.047  27.714  14.692  0.0325 -0.0081 -0.0349
  916POSM   PO410743   2.339  27.921  14.523 -0.2002  0.0647  0.0986
  916POSM   AM110744   2.434  28.051  14.198  0.2091  0.0155  0.1664
  916POSM   AM210745   2.271  28.217  14.029  0.3168  0.4431 -0.1449
  916POSM   T1A10746   2.666  28.123  13.756  0.1676 -0.0176  0.3599
  916POSM   C2A10747   2.595  27.980  13.354  0.0218  0.0114  0.1769
  916POSM   C3A10748   2.382  27.667  13.188  0.1539  0.0456  0.0291
  916POSM   C1B10749   2.047  28.088  13.761 -0.0137 -0.0671  0.0133
  916POSM   D2B10750   1.662  28.037  13.498  0.1149 -0.2963 -0.3268
  916POSM   C3B10751   1.691  28.294  13.079 -0.0863  0.4536  0.0363
  916POSM   C4B10752   1.828  28.303  12.641 -0.1871  0.0996 -0.1513
  917POSM   NC310753   8.028  29.295  13.535  0.0047 -0.2562 -0.0953
  917POSM   PO410754   8.383  29.380  13.711 -0.0095  0.0705  0.0460
  917POSM   AM110755   8.492  29.197  13.454  0.2166  0.1931  0.0053
  917POSM   AM210756   8.674  28.957  13.330 -0.0310  0.0916 -0.0594
  917POSM   T1A10757   8.565  29.312  12.945  0.1899 -0.1899 -0.3532
  917POSM   C2A10758   8.802  29.132  12.572 -0.0989  0.2828 -0.1074
  917POSM   C3A10759   9.076  28.783  12.373  0.0196 -0.0118  0.3335
  917POSM   C1B10760   8.662  28.804  13.050  0.1438  0.0073 -0.0953
  917POSM   D2B10761   8.613  28.581  12.642 -0.0271 -0.0536  0.1149
  917POSM   C3B10762   8.584  28.694  12.185  0.1763  0.4545  0.3051
  917POSM   C4B10763   8.419  28.933  11.865  0.1339 -0.1134 -0.2179
  918DOPC   NC310764   3.339  25.602  13.344 -0.0994 -0.0904  0.0058
  918DOPC   PO410765   2.975  25.498  13.546 -0.0150 -0.0101  0.1039
  918DOPC   GL110766   2.823  25.359  13.247 -0.0797 -0.1519 -0.2086
  918DOPC   GL210767   2.591  25.160  13.328  0.1539  0.0134  0.0537
  918DOPC   C1A10768   2.740  25.109  12.901  0.1989  0.0592  0.1463
  918DOPC   D2A10769   2.527  24.937  12.552  0.2647 -0.0236  0.2243
  918DOPC   C3A10770   2.732  24.649  12.205  0.1132 -0.1019 -0.1973
  918DOPC   C4A10771   2.809  24.481  11.793  0.2971  0.1079 -0.1902
  918DOPC   C1B10772   2.135  25.020  13.226  0.0086  0.2743 -0.0182
  918DOPC   D2B10773   1.809  25.050  12.866  0.3319 -0.2313 -0.1784
  918DOPC   C3B10774   2.015  24.945  12.447  0.0966 -0.1115  0.2220
  918DOPC   C4B10775   1.918  24.702  12.118  0.1687 -0.4480  0.0205
  919POSM   NC310776   8.127  32.977  14.538  0.0674  0.2568 -0.0428
  919POSM   PO410777   7.949  32.650  14.520  0.2188  0.1249 -0.0485
  919POSM   AM110778   8.011  32.704  14.202  0.0119  0.1696  0.3380
  919POSM   AM210779   7.929  32.794  13.949  0.4399  0.1180  0.1593
  919POSM   T1A10780   8.441  32.720  13.943  0.0766  0.1647  0.2018
  919POSM   C2A10781   8.543  32.779  13.498 -0.4220 -0.1987  0.1128
  919POSM   C3A10782   8.622  33.020  13.112 -0.3424  0.0195 -0.1806
  919POSM   C1B10783   7.955  32.785  13.657 -0.2081  0.1890 -0.0283
  919POSM   D2B10784   7.874  32.709  13.245 -0.0374 -0.0307 -0.1371
  919POSM   C3B10785   8.185  32.862  12.972  0.3183  0.1427 -0.2632
  919POSM   C4B10786   8.021  32.873  12.587  0.0255  0.1195  0.2623
  920DOPC   NC310787   7.157  28.104  13.433 -0.0933 -0.5667  0.1352
  920DOPC   PO410788   6.847  27.872  13.504  0.1756  0.0103 -0.0739
  920DOPC   GL110789   6.794  27.731  13.045  0.1929 -0.2071 -0.2057
  920DOPC   GL210790   6.970  27.954  12.982 -0.0575  0.2406  0.1000
  920DOPC   C1A10791   6.986  27.546  12.659 -0.0314  0.3775 -0.2218
  920DOPC   D2A10792   6.861  27.435  12.248 -0.1130  0.0060 -0.0444
  920DOPC   C3A10793   6.647  27.468  11.837 -0.1176  0.3771 -0.2428
  920DOPC   C4A10794   6.517  27.154  11.537  0.1669  0.1670  0.2294
  920DOPC   C1B10795   7.173  28.031  12.628 -0.1935 -0.2015  0.3562
  920DOPC   D2B10796   7.242  27.893  12.236  0.0329 -0.1891  0.2231
  920DOPC   C3B10797   7.603  27.718  12.023  0.4372  0.1374  0.1824
  920DOPC   C4B10798   7.953  27.393  11.995  0.0875  0.0993 -0.2497
  921POSM   NC310799   5.934  28.651  13.675 -0.0902 -0.0878  0.1391
  921POSM   PO410800   6.075  28.969  13.853 -0.4081  0.2111 -0.1935
  921POSM   AM110801   6.000  29.128  13.573  0.1068  0.1014  0.0783
  921POSM   AM210802   5.774  29.177  13.495 -0.1422  0.2550  0.1458
  921POSM   T1A10803   6.143  29.146  13.105 -0.2570  0.2171 -0.2549
  921POSM   C2A10804   6.286  29.186  12.670  0.2174 -0.0966 -0.0162
  921POSM   C3A10805   6.427  29.145  12.239 -0.3690 -0.0158 -0.1377
  921POSM   C1B10806   5.673  29.285  13.199  0.0254 -0.1554 -0.0493
  921POSM   D2B10807   5.300  29.326  12.897 -0.1618 -0.0256  0.2414
  921POSM   C3B10808   4.888  29.254  12.928 -0.0563 -0.1942 -0.1826
  921POSM   C4B10809   4.411  29.266  12.869 -0.1179  0.0458  0.1627
  922POSM   NC310810  11.084  25.498  12.623  0.1189 -0.0742  0.1138
  922POSM   PO410811  11.382  25.380  12.802 -0.1681  0.4719 -0.1751
  922POSM   AM110812  11.515  25.409  12.494  0.0316 -0.0316  0.3642
  922POSM   AM210813  11.718  25.379  12.323  0.2838  0.0756 -0.1090
  922POSM   T1A10814  11.340  25.640  12.068 -0.1857  0.1271 -0.0679
  922POSM   C2A10815  11.441  25.797  11.626  0.1702  0.0320 -0.2930
  922POSM   C3A10816  11.437  25.540  11.196  0.0943 -0.0807  0.1581
  922POSM   C1B10817  11.921  25.506  12.074 -0.1394 -0.0402 -0.1685
  922POSM   D2B10818  12.038  25.605  11.595 -0.0207 -0.2783 -0.1556
  922POSM   C3B10819  12.098  25.541  11.133 -0.3489 -0.0991 -0.0515
  922POSM   C4B10820  11.763  25.634  10.792  0.2399 -0.2503 -0.2088
  923DOPC   NC310821  33.571  27.594  14.434  0.3532  0.1536  0.0321
  923DOPC   PO410822  33.517  27.956  14.592  0.4093 -0.0237  0.0099
  923DOPC   GL110823  33.589  28.022  14.235 -0.0280 -0.0886  0.0688
  923DOPC   GL210824  33.888  27.913  14.231  0.0145  0.0358 -0.0729
  923DOPC   C1A10825  33.762  28.103  13.805  0.2352 -0.0397 -0.0154
  923DOPC   D2A10826  33.726  28.050  13.280 -0.4831 -0.0532 -0.0837
  923DOPC   C3A10827  33.379  27.855  13.130 -0.0007 -0.0203 -0.0652
  923DOPC   C4A10828  32.982  27.590  13.034 -0.2299 -0.2296  0.3517
  923DOPC   C1B10829  33.818  27.632  13.844  0.0453  0.0826 -0.1486
  923DOPC   D2B10830  33.799  27.481  13.382 -0.0043  0.1211 -0.3289
  923DOPC   C3B10831  33.849  27.686  12.976  0.2796  0.2612 -0.1127
  923DOPC   C4B10832  33.584  27.878  12.643  0.2065 -0.0815  0.1419
  924DOPE   NH310833   1.868  26.101  14.154  0.1582 -0.0518  0.3237
  924DOPE   PO410834   1.764  25.846  14.029 -0.0239  0.0526  0.0352
  924DOPE   GL110835   1.551  25.926  13.690  0.0407 -0.1226 -0.0262
  924DOPE   GL210836   1.470  25.626  13.525  0.4431 -0.3935  0.2074
  924DOPE   C1A10837   1.265  26.019  13.331 -0.0945  0.0717 -0.2863
  924DOPE   D2A10838   1.001  26.197  12.926  0.2405  0.4280  0.1631
  924DOPE   C3A10839   1.257  26.454  12.635  0.1120 -0.0448  0.3357
  924DOPE   C4A10840   1.585  26.380  12.304  0.0380 -0.0694  0.1801
  924DOPE   C1B10841   1.417  25.610  13.038  0.1956 -0.3669 -0.0232
  924DOPE   D2B10842   1.476  25.502  12.591  0.2914 -0.1694  0.2647
  924DOPE   C3B10843   1.912  25.433  12.545 -0.1914 -0.1363  0.1125
  924DOPE   C4B10844   2.371  25.460  12.800  0.0321 -0.1307 -0.0164
  925DOPC   NC310845   0.567  27.676  14.268  0.1609 -0.1756  0.1720
  925DOPC   PO410846   0.681  27.427  14.576  0.0098  0.0242 -0.2053
  925DOPC   GL110847   0.931  27.380  14.223 -0.0907  0.2387  0.1832
  925DOPC   GL210848   0.824  27.233  13.978 -0.2549  0.3995  0.2604
  925DOPC   C1A10849   1.055  27.638  13.838  0.1948  0.2000 -0.0692
  925DOPC   D2A10850   1.354  27.589  13.495  0.2031 -0.1622  0.1503
  925DOPC   C3A10851   1.619  27.605  13.146 -0.2063  0.0660 -0.3492
  925DOPC   C4A10852   1.549  27.328  12.771 -0.0524  0.0780 -0.3199
  925DOPC   C1B10853   0.659  27.486  13.601 -0.0612 -0.3862  0.1033
  925DOPC   D2B10854   0.829  27.740  13.277  0.0915 -0.1930  0.0731
  925DOPC   C3B10855   1.147  27.862  13.010  0.2851 -0.1479 -0.0088
  925DOPC   C4B10856   1.562  27.903  12.759  0.1192  0.0222  0.0581
  926POSM   NC310857   9.728  31.779  14.273 -0.1030  0.1162  0.0337
  926POSM   PO410858   9.960  31.959  14.062 -0.2452  0.0118 -0.0802
  926POSM   AM110859   9.819  32.017  13.762 -0.0917  0.3804 -0.2039
  926POSM   AM210860   9.526  32.047  13.691  0.0377  0.0148  0.0875
  926POSM   T1A10861   9.761  32.172  13.235  0.0921 -0.0610 -0.3222
  926POSM   C2A10862   9.924  32.470  12.893  0.1034 -0.1383  0.0478
  926POSM   C3A10863   9.861  32.498  12.405  0.1456 -0.0102 -0.0553
  926POSM   C1B10864   9.378  32.333  13.585 -0.0057 -0.2278 -0.1324
  926POSM   D2B10865   9.308  32.575  13.250  0.2115 -0.1426  0.1245
  926POSM   C3B10866   9.357  32.577  12.832  0.0483  0.3745 -0.0009
  926POSM   C4B10867   9.351  32.368  12.418 -0.2518  0.0169 -0.0164
  927POSM   NC310868  29.880  33.147  15.755  0.4717 -0.1674 -0.0107
  927POSM   PO410869  30.192  32.922  15.796  0.2944 -0.2361 -0.1695
  927POSM   AM110870  30.327  32.701  15.565  0.1941 -0.4030 -0.0790
  927POSM   AM210871  30.148  32.533  15.433  0.0740  0.2467 -0.1344
  927POSM   T1A10872  30.696  32.604  15.189 -0.0463  0.1813  0.1230
  927POSM   C2A10873  31.128  32.386  15.174 -0.0617  0.1525  0.2077
  927POSM   C3A10874  31.420  32.500  14.799  0.4549 -0.1350  0.0851
  927POSM   C1B10875  30.239  32.437  15.135  0.0446 -0.3438  0.1378
  927POSM   D2B10876  30.390  32.460  14.730 -0.0148 -0.4122  0.1652
  927POSM   C3B10877  30.207  32.387  14.318  0.0040  0.1898  0.2131
  927POSM   C4B10878  30.428  32.083  14.002  0.0964  0.4235 -0.0114
  928POSM   NC310879   2.451  29.155  14.573  0.0771  0.0434 -0.2408
  928POSM   PO410880   2.466  29.208  14.197  0.3266 -0.0070  0.0053
  928POSM   AM110881   2.343  29.186  13.880 -0.1539  0.1058 -0.0541
  928POSM   AM210882   2.418  29.006  13.657 -0.1861  0.2088  0.0200
  928POSM   T1A10883   2.081  29.353  13.489 -0.2763  0.3331  0.0850
  928POSM   C2A10884   1.961  29.116  13.135  0.1401  0.0355 -0.1924
  928POSM   C3A10885   2.070  28.644  13.065  0.0133  0.2435  0.1307
  928POSM   C1B10886   2.386  28.907  13.341  0.2669 -0.1489  0.0685
  928POSM   D2B10887   2.620  28.806  12.971 -0.1931  0.1152 -0.0309
  928POSM   C3B10888   2.728  29.010  12.597  0.0459  0.4228  0.2669
  928POSM   C4B10889   2.876  28.840  12.215  0.0532  0.0182  0.1610
  929POSM   NC310890   1.850  30.133  14.373  0.2933 -0.1774 -0.2877
  929POSM   PO410891   1.601  30.243  14.138 -0.1108  0.1407  0.0512
  929POSM   AM110892   1.786  30.240  13.870 -0.0667 -0.0680  0.0362
  929POSM   AM210893   1.653  30.202  13.603 -0.0559 -0.1043 -0.3336
  929POSM   T1A10894   2.123  30.457  13.606 -0.0561 -0.4097  0.2450
  929POSM   C2A10895   2.213  30.881  13.513  0.2708  0.1066  0.0471
  929POSM   C3A10896   1.960  31.250  13.502 -0.1624  0.3083 -0.0528
  929POSM   C1B10897   1.673  30.536  13.480 -0.0998 -0.0287  0.2192
  929POSM   D2B10898   1.424  30.692  13.090 -0.0987  0.1059 -0.2343
  929POSM   C3B10899   1.368  30.571  12.684  0.0450 -0.0224 -0.1796
  929POSM   C4B10900   0.956  30.540  12.405  0.2118 -0.2135  0.1469
  930DOPC   NC310901  11.421  28.907  13.993  0.3235  0.0275  0.0300
  930DOPC   PO410902  11.406  29.307  14.104  0.0678  0.3162 -0.1283
  930DOPC   GL110903  11.285  29.356  13.685 -0.3316  0.0426  0.1070
  930DOPC   GL210904  10.947  29.415  13.567  0.0655  0.1315  0.2481
  930DOPC   C1A10905  11.316  29.672  13.368  0.2788 -0.1353  0.2509
  930DOPC   D2A10906  11.317  29.940  12.984  0.0445  0.0641 -0.4218
  930DOPC   C3A10907  11.383  29.739  12.580 -0.0593  0.1736  0.0372
  930DOPC   C4A10908  11.246  29.579  12.170 -0.0186 -0.0382 -0.1006
  930DOPC   C1B10909  10.902  29.514  13.131  0.0455  0.1009 -0.1215
  930DOPC   D2B10910  10.980  29.447  12.660 -0.1120  0.1795  0.1930
  930DOPC   C3B10911  10.604  29.624  12.453  0.0879  0.1355 -0.0174
  930DOPC   C4B10912  10.177  29.835  12.436 -0.1002 -0.1140  0.1736
  931POSM   NC310913  11.813  31.961  14.245  0.0105  0.0336  0.4317
  931POSM   PO410914  11.440  32.024  14.381 -0.1420 -0.0480  0.2683
  931POSM   AM110915  11.310  32.003  14.065 -0.5901 -0.0129  0.2422
  931POSM   AM210916  11.310  31.820  13.873 -0.1233  0.1458  0.1504
  931POSM   T1A10917  10.910  32.055  13.788 -0.1654 -0.1805 -0.0733
  931POSM   C2A10918  10.504  32.097  13.533 -0.2690 -0.0635 -0.2029
  931POSM   C3A10919  10.228  32.433  13.303  0.3818 -0.0199 -0.1852
  931POSM   C1B10920  11.503  32.024  13.674 -0.0083  0.2347  0.1370
  931POSM   D2B10921  11.522  32.372  13.266 -0.0951  0.0930 -0.0173
  931POSM   C3B10922  11.552  32.724  13.476 -0.0365  0.1035  0.2187
  931POSM   C4B10923  11.803  32.890  13.785  0.0558  0.0478  0.1726
  932DOPS   CNO10924   5.443  25.709  13.548  0.2722  0.1722 -0.0790
  932DOPS   PO410925   5.272  25.555  13.239 -0.0048  0.2756  0.1312
  932DOPS   GL110926   5.352  25.469  12.871  0.1017 -0.0565  0.3492
  932DOPS   GL210927   5.118  25.273  12.800 -0.3240 -0.1553  0.1351
  932DOPS   C1A10928   5.590  25.436  12.515  0.0809 -0.1380  0.2148
  932DOPS   D2A10929   5.885  25.265  12.262 -0.0068  0.3307  0.3131
  932DOPS   C3A10930   6.188  25.446  11.932  0.0099 -0.0974  0.0114
  932DOPS   C4A10931   6.620  25.584  11.855  0.0296  0.3133  0.2803
  932DOPS   C1B10932   4.876  25.018  12.475  0.3086  0.1473  0.1499
  932DOPS   D2B10933   4.866  24.653  12.179 -0.0216  0.0834 -0.0294
  932DOPS   C3B10934   5.301  24.451  12.257  0.1343  0.2555 -0.2165
  932DOPS   C4B10935   5.634  24.155  12.163 -0.1855  0.4110 -0.2353
  933DOPS   CNO10936   0.121  30.485  14.585 -0.2535  0.2475 -0.1031
  933DOPS   PO410937  -0.261  30.516  14.494  0.0946  0.0844 -0.0715
  933DOPS   GL110938  -0.245  30.608  14.162 -0.1080  0.2625  0.1298
  933DOPS   GL210939  -0.172  30.951  14.117  0.0606  0.0757  0.1259
  933DOPS   C1A10940  -0.241  30.430  13.724 -0.2984 -0.0866  0.0046
  933DOPS   D2A10941  -0.196  30.197  13.312  0.3784  0.4901 -0.3529
  933DOPS   C3A10942  -0.403  29.843  13.114 -0.3889  0.1249 -0.3410
  933DOPS   C4A10943  -0.600  29.904  12.715 -0.2783 -0.1538 -0.0582
  933DOPS   C1B10944   0.069  30.896  13.760  0.2016 -0.0328  0.1248
  933DOPS   D2B10945   0.190  30.474  13.536 -0.2257 -0.1422 -0.2424
  933DOPS   C3B10946   0.495  30.377  13.225 -0.1351 -0.0074  0.0702
  933DOPS   C4B10947   0.918  30.183  13.088 -0.1202 -0.1091  0.0259
  934DOPS   CNO10948   6.101  29.951  14.246  0.0202  0.2893  0.0573
  934DOPS   PO410949   5.719  29.976  14.132  0.0720 -0.1548 -0.4619
  934DOPS   GL110950   5.965  29.883  13.825  0.3375  0.5477  0.2350
  934DOPS   GL210951   6.270  29.927  13.725 -0.0047 -0.3256 -0.0614
  934DOPS   C1A10952   5.917  29.718  13.404 -0.2820  0.0867 -0.0286
  934DOPS   D2A10953   6.148  29.651  12.993  0.1590  0.0704  0.2051
  934DOPS   C3A10954   5.926  29.651  12.549 -0.0160 -0.2344  0.3334
  934DOPS   C4A10955   5.760  29.420  12.259 -0.0297  0.1073 -0.3111
  934DOPS   C1B10956   6.331  29.503  13.512  0.0697 -0.0002  0.2223
  934DOPS   D2B10957   6.453  29.024  13.480  0.0356  0.1465 -0.2779
  934DOPS   C3B10958   6.564  28.833  13.098  0.0677 -0.0117 -0.4847
  934DOPS   C4B10959   6.525  28.768  12.615  0.0982 -0.3318  0.0087
  935POSM   NC310960   8.414  25.700  13.382 -0.2460 -0.0295 -0.0724
  935POSM   PO410961   8.778  25.786  13.328  0.1812  0.2954  0.1962
  935POSM   AM110962   8.891  25.787  13.046  0.0206 -0.0381  0.1988
  935POSM   AM210963   9.157  25.698  12.939  0.0865  0.2030  0.1569
  935POSM   T1A10964   8.683  25.717  12.588  0.0670 -0.0142 -0.0921
  935POSM   C2A10965   8.289  25.545  12.420 -0.4691  0.2192  0.0464
  935POSM   C3A10966   7.922  25.487  12.157  0.1338 -0.0043  0.1841
  935POSM   C1B10967   9.273  25.880  12.745 -0.1189  0.1409  0.0028
  935POSM   D2B10968   9.114  25.999  12.334 -0.2422 -0.0572 -0.1805
  935POSM   C3B10969   9.342  26.403  12.203 -0.1277 -0.1023  0.3128
  935POSM   C4B10970   9.348  26.827  12.093  0.0457 -0.2887 -0.2523
  936DOPE   NH310971   5.264  34.133  13.933 -0.1104  0.0373  0.1121
  936DOPE   PO410972   4.964  33.992  13.895 -0.0161 -0.0020 -0.2470
  936DOPE   GL110973   4.776  34.251  13.627 -0.2181  0.1205  0.0066
  936DOPE   GL210974   4.499  34.309  13.552  0.0399  0.0809  0.2071
  936DOPE   C1A10975   4.721  34.139  13.147 -0.1680 -0.1124  0.3564
  936DOPE   D2A10976   4.756  34.227  12.733  0.3062  0.0969  0.0035
  936DOPE   C3A10977   4.876  33.891  12.431 -0.0059  0.0539  0.1146
  936DOPE   C4A10978   5.204  33.885  12.111  0.0612  0.0518 -0.0378
  936DOPE   C1B10979   4.158  34.273  13.254 -0.0161  0.2120  0.0481
  936DOPE   D2B10980   3.918  34.258  12.857 -0.2391 -0.0645  0.2553
  936DOPE   C3B10981   4.302  34.418  12.628  0.0233  0.1085 -0.1637
  936DOPE   C4B10982   4.379  34.225  12.242 -0.0264 -0.1583  0.0868
  937POSM   NC310983   5.588  21.424  13.039  0.2066 -0.0165  0.1014
  937POSM   PO410984   5.374  21.704  13.130 -0.0627  0.3262 -0.1112
  937POSM   AM110985   5.362  21.763  12.834  0.2493 -0.2037  0.3651
  937POSM   AM210986   5.563  21.737  12.586  0.1647  0.1499  0.0585
  937POSM   T1A10987   5.103  21.992  12.462  0.1362  0.1006  0.2074
  937POSM   C2A10988   5.282  22.178  12.084  0.0100 -0.0494  0.1061
  937POSM   C3A10989   5.510  22.129  11.683 -0.0992  0.1735 -0.0803
  937POSM   C1B10990   5.723  21.871  12.316  0.0427  0.1536 -0.0205
  937POSM   D2B10991   5.960  22.090  12.009 -0.1109  0.0514  0.0858
  937POSM   C3B10992   5.799  21.769  11.692  0.0148  0.0559 -0.0272
  937POSM   C4B10993   5.649  21.427  11.380 -0.1539 -0.0651  0.3800
  938DOPS   CNO10994   8.106  30.459  13.786 -0.0106 -0.0765  0.0319
  938DOPS   PO410995   8.180  30.821  13.926 -0.0297  0.0219  0.0551
  938DOPS   GL110996   8.137  31.070  13.635 -0.0440  0.0882  0.0003
  938DOPS   GL210997   8.128  31.012  13.329  0.1303 -0.1738 -0.0770
  938DOPS   C1A10998   8.341  31.498  13.556  0.0711  0.1792 -0.2813
  938DOPS   D2A10999   8.553  31.895  13.346 -0.2378  0.1542 -0.2868
  938DOPS   C3A11000   8.521  31.989  12.894 -0.0592 -0.0215 -0.1336
  938DOPS   C4A11001   8.401  31.966  12.486 -0.0273 -0.0188 -0.0063
  938DOPS   C1B11002   8.166  30.573  13.197  0.3650  0.0191  0.0480
  938DOPS   D2B11003   7.850  30.345  12.932  0.1291  0.1870  0.2621
  938DOPS   C3B11004   7.991  30.674  12.558  0.2764  0.2103 -0.1272
  938DOPS   C4B11005   7.739  30.801  12.203  0.1847  0.1776 -0.1485
  939POSM   NC311006  11.406  31.550  14.324  0.0361 -0.1160  0.0528
  939POSM   PO411007  11.686  31.514  14.088 -0.0131  0.0986  0.0720
  939POSM   AM111008  11.733  31.407  13.795  0.2033  0.2072 -0.1095
  939POSM   AM211009  11.708  31.190  13.640 -0.2377  0.2017  0.3493
  939POSM   T1A11010  11.844  31.569  13.329  0.1150 -0.0338  0.1061
  939POSM   C2A11011  11.678  31.900  13.057  0.3901  0.0107 -0.0851
  939POSM   C3A11012  11.820  32.297  12.851  0.1398  0.1388 -0.3441
  939POSM   C1B11013  11.652  31.089  13.306 -0.0547  0.0304 -0.0959
  939POSM   D2B11014  11.608  30.859  12.893  0.0586 -0.1652 -0.0363
  939POSM   C3B11015  11.840  30.543  12.528 -0.0560  0.1116  0.0563
  939POSM   C4B11016  12.067  30.595  12.158 -0.5801 -0.0992 -0.0033
  940POSM   NC311017   7.849  25.332  12.670 -0.3507 -0.0050  0.1214
  940POSM   PO411018   7.800  25.428  13.067 -0.2604  0.4160  0.4043
  940POSM   AM111019   7.771  25.690  12.890  0.2746 -0.0796 -0.2422
  940POSM   AM211020   7.563  25.725  12.701 -0.0995  0.1808 -0.0930
  940POSM   T1A11021   7.786  26.186  12.787  0.2552 -0.4537 -0.1064
  940POSM   C2A11022   7.806  26.547  12.518 -0.1688 -0.2280  0.1808
  940POSM   C3A11023   7.731  26.853  12.195 -0.2126 -0.5313  0.0814
  940POSM   C1B11024   7.729  25.866  12.434  0.1050  0.1654  0.1108
  940POSM   D2B11025   7.784  26.115  12.133  0.0545 -0.0859 -0.2162
  940POSM   C3B11026   7.426  26.389  11.959 -0.2032 -0.1091  0.0833
  940POSM   C4B11027   7.351  26.750  11.711  0.1325 -0.0049  0.3049
  941POSM   NC311028   3.294  29.226  14.480 -0.0811 -0.0385  0.1887
  941POSM   PO411029   3.712  29.170  14.371  0.3148 -0.1847  0.1895
  941POSM   AM111030   3.639  29.052  14.054  0.1162  0.0230  0.2048
  941POSM   AM211031   3.378  28.922  13.973 -0.2978 -0.2717  0.0066
  941POSM   T1A11032   3.827  29.181  13.578  0.1935  0.0925  0.0813
  941POSM   C2A11033   4.211  29.192  13.345  0.0415  0.0062 -0.1978
  941POSM   C3A11034   4.636  29.367  13.374  0.1789 -0.0452  0.0180
  941POSM   C1B11035   3.432  28.871  13.642  0.0945 -0.1448 -0.1573
  941POSM   D2B11036   3.696  28.903  13.237  0.0652 -0.0327  0.1796
  941POSM   C3B11037   3.440  28.628  12.921  0.1847 -0.0590 -0.1160
  941POSM   C4B11038   2.992  28.566  12.737  0.2048 -0.0572  0.0179
  942DOPE   NH311039  12.381  29.924  14.122  0.0960  0.1833 -0.3066
  942DOPE   PO411040  12.039  29.951  14.144 -0.4333  0.1316 -0.1803
  942DOPE   GL111041  12.167  29.986  13.706  0.1304 -0.0726 -0.1127
  942DOPE   GL211042  12.073  30.183  13.454  0.0518 -0.2555  0.0357
  942DOPE   C1A11043  12.618  30.115  13.508  0.2607 -0.4176 -0.0008
  942DOPE   D2A11044  13.006  30.218  13.479 -0.0943  0.1692  0.0177
  942DOPE   C3A11045  13.111  30.362  13.029 -0.3094  0.2234 -0.4802
  942DOPE   C4A11046  13.342  30.761  12.824 -0.1123  0.0209 -0.0934
  942DOPE   C1B11047  12.306  29.992  13.144 -0.1006  0.0264  0.0495
  942DOPE   D2B11048  12.764  29.989  13.062  0.0006  0.0210  0.1178
  942DOPE   C3B11049  13.189  29.892  12.838 -0.0934  0.2858 -0.1139
  942DOPE   C4B11050  13.467  29.747  12.480 -0.0755 -0.0130 -0.0749
  943DOPE   NH311051  33.893  29.259  14.950 -0.1317 -0.0088  0.1205
  943DOPE   PO411052  33.947  29.588  15.060  0.1103  0.2174  0.2280
  943DOPE   GL111053  33.801  29.679  14.746  0.1229 -0.0043 -0.1513
  943DOPE   GL211054  33.646  29.456  14.561 -0.2068 -0.2971  0.0050
  943DOPE   C1A11055  33.981  29.767  14.289  0.2970  0.0227  0.1776
  943DOPE   D2A11056  34.300  29.576  14.064  0.0845 -0.2813  0.0373
  943DOPE   C3A11057  34.283  29.512  13.565  0.0994 -0.1990 -0.2664
  943DOPE   C4A11058  34.113  29.281  13.214 -0.0153 -0.0020 -0.1697
  943DOPE   C1B11059  33.677  29.086  14.304  0.1658 -0.0107  0.0028
  943DOPE   D2B11060  33.444  28.931  13.951 -0.0392 -0.0911 -0.0413
  943DOPE   C3B11061  32.997  28.914  13.926  0.1486 -0.0487  0.3471
  943DOPE   C4B11062  32.547  28.996  13.949  0.2058 -0.0549  0.0792
  944DOPS   CNO11063  12.747  24.930  13.330 -0.0765  0.2462 -0.1711
  944DOPS   PO411064  12.935  24.715  13.072  0.0168  0.0844  0.1348
  944DOPS   GL111065  13.045  25.078  12.967 -0.1536 -0.2469 -0.1590
  944DOPS   GL211066  13.333  24.998  12.983  0.2327 -0.2448  0.1971
  944DOPS   C1A11067  13.209  25.450  12.746  0.0745  0.1138 -0.1852
  944DOPS   D2A11068  13.546  25.723  12.849 -0.2786  0.1309 -0.0203
  944DOPS   C3A11069  14.010  25.722  12.797  0.2667  0.1307  0.0156
  944DOPS   C4A11070  14.266  25.893  13.109  0.4131 -0.0008  0.2027
  944DOPS   C1B11071  13.491  25.026  12.566 -0.0686  0.1092 -0.0038
  944DOPS   D2B11072  13.757  24.926  12.192 -0.2189  0.0910  0.4093
  944DOPS   C3B11073  13.875  25.268  11.889 -0.0494  0.0956  0.1161
  944DOPS   C4B11074  14.040  25.712  11.783 -0.2902 -0.1366 -0.1458
  945DOPS   CNO11075  32.785  28.479  15.255 -0.1200 -0.0236 -0.1274
  945DOPS   PO411076  32.880  28.196  15.005  0.0568 -0.1156  0.2338
  945DOPS   GL111077  33.026  28.256  14.615  0.1828 -0.0023  0.3142
  945DOPS   GL211078  33.113  28.194  14.418 -0.1706  0.2791 -0.0612
  945DOPS   C1A11079  33.090  28.669  14.373 -0.1655 -0.0313 -0.1345
  945DOPS   D2A11080  33.132  29.135  14.448 -0.0838 -0.2125  0.2274
  945DOPS   C3A11081  33.328  29.431  14.095  0.0476 -0.1051  0.2371
  945DOPS   C4A11082  33.723  29.615  13.861  0.2096  0.3064  0.3386
  945DOPS   C1B11083  33.322  28.396  14.034 -0.0767 -0.3039 -0.1344
  945DOPS   D2B11084  33.293  28.246  13.569  0.1429 -0.0771  0.0522
  945DOPS   C3B11085  33.290  28.362  13.129 -0.0749  0.0210 -0.1514
  945DOPS   C4B11086  33.145  28.567  12.797  0.2887 -0.0461  0.0507
  946DOPE   NH311087   6.656  31.771  14.175 -0.3006  0.1368  0.1224
  946DOPE   PO411088   6.502  31.824  13.874 -0.2718  0.0283  0.6841
  946DOPE   GL111089   6.739  31.742  13.602  0.0147 -0.1117  0.0586
  946DOPE   GL211090   6.543  31.804  13.366 -0.2502  0.0226  0.0923
  946DOPE   C1A11091   6.728  31.319  13.450 -0.0256  0.0058  0.0152
  946DOPE   D2A11092   6.517  30.976  13.197  0.0102  0.3973 -0.2908
  946DOPE   C3A11093   6.286  30.956  12.809 -0.0899  0.1853 -0.0686
  946DOPE   C4A11094   5.890  31.193  12.661  0.0323  0.3192 -0.1946
  946DOPE   C1B11095   6.313  31.966  13.025  0.0484 -0.3023  0.3391
  946DOPE   D2B11096   6.357  32.183  12.599  0.1089 -0.0008  0.1339
  946DOPE   C3B11097   6.509  31.794  12.455  0.1440 -0.0760 -0.1227
  946DOPE   C4B11098   6.350  31.356  12.514 -0.2059  0.0251 -0.1038
  947DOPC   NC311099   5.314  32.498  14.014  0.1502 -0.1176  0.0928
  947DOPC   PO411100   5.673  32.593  13.928 -0.1233  0.1145  0.0560
  947DOPC   GL111101   5.555  32.629  13.562 -0.2490 -0.1340 -0.1209
  947DOPC   GL211102   5.329  32.572  13.535  0.1808 -0.3153 -0.3109
  947DOPC   C1A11103   5.741  32.716  13.177 -0.0530  0.1561  0.1939
  947DOPC   D2A11104   5.609  32.689  12.755 -0.4014 -0.3205 -0.0147
  947DOPC   C3A11105   5.549  33.013  12.446  0.0001 -0.2014 -0.1470
  947DOPC   C4A11106   5.877  33.379  12.458  0.2246 -0.1377 -0.0492
  947DOPC   C1B11107   5.273  32.773  13.110 -0.1746  0.3027  0.0421
  947DOPC   D2B11108   5.315  33.120  12.862 -0.1929  0.0314  0.0485
  947DOPC   C3B11109   5.660  33.488  12.876 -0.0777 -0.0963 -0.1119
  947DOPC   C4B11110   6.134  33.588  12.837 -0.0188  0.0208 -0.1926
  948DOPE   NH311111   8.499  29.858  13.872  0.1063 -0.1276  0.1330
  948DOPE   PO411112   8.711  30.070  13.847  0.0698 -0.0098 -0.2530
  948DOPE   GL111113   8.886  30.231  13.498 -0.0575 -0.0529  0.1084
  948DOPE   GL211114   9.052  30.455  13.502  0.0762 -0.1793 -0.1560
  948DOPE   C1A11115   8.756  30.406  13.047 -0.2576 -0.1527 -0.0497
  948DOPE   D2A11116   8.842  30.753  12.727 -0.0025  0.0511 -0.1294
  948DOPE   C3A11117   9.068  30.829  12.361 -0.1441 -0.0165 -0.3336
  948DOPE   C4A11118   9.502  30.828  12.137 -0.2625 -0.1870  0.2104
  948DOPE   C1B11119   9.195  30.828  13.233  0.2280  0.0025 -0.2225
  948DOPE   D2B11120   8.994  31.155  13.047 -0.2115 -0.2861 -0.0544
  948DOPE   C3B11121   8.752  31.230  12.618  0.1650 -0.0455  0.0278
  948DOPE   C4B11122   8.577  31.500  12.245 -0.1467  0.0609  0.0572
  949DOPC   NC311123  33.478  26.378  14.367 -0.1143 -0.1374  0.2538
  949DOPC   PO411124  33.374  26.704  14.245  0.3914 -0.0901  0.0705
  949DOPC   GL111125  33.452  26.574  13.900 -0.5396 -0.1004  0.0165
  949DOPC   GL211126  33.458  26.872  13.753 -0.0659 -0.3268 -0.0046
  949DOPC   C1A11127  33.833  26.526  13.660  0.0071  0.1278  0.2969
  949DOPC   D2A11128  33.748  26.596  13.201  0.1611  0.1775  0.1954
  949DOPC   C3A11129  34.187  26.743  12.965  0.1591 -0.0599  0.0282
  949DOPC   C4A11130  34.546  26.918  13.254 -0.0758 -0.0298  0.2631
  949DOPC   C1B11131  33.582  27.060  13.370  0.1464 -0.1362 -0.0336
  949DOPC   D2B11132  33.458  27.330  13.003  0.0740  0.1777  0.1089
  949DOPC   C3B11133  33.686  27.337  12.596  0.3488  0.0001  0.0898
  949DOPC   C4B11134  33.967  27.489  12.233  0.0595  0.2430 -0.0423
  950DOPE   NH311135   9.140  30.831  13.851  0.0842  0.0492 -0.1425
  950DOPE   PO411136   9.458  30.677  13.837  0.2781  0.0883 -0.4414
  950DOPE   GL111137   9.519  30.975  13.515 -0.3471 -0.1812  0.1997
  950DOPE   GL211138   9.735  31.098  13.572  0.0059 -0.0174  0.1496
  950DOPE   C1A11139   9.564  31.230  13.150 -0.2515 -0.2325  0.1715
  950DOPE   D2A11140   9.712  31.592  12.853  0.2016  0.2616 -0.1574
  950DOPE   C3A11141   9.449  31.722  12.517 -0.3340  0.0512  0.1714
  950DOPE   C4A11142   9.266  31.895  12.099  0.0194 -0.0052 -0.1407
  950DOPE   C1B11143  10.038  31.229  13.241 -0.2186  0.0923  0.1994
  950DOPE   D2B11144  10.231  31.494  12.904 -0.2095  0.0288  0.0437
  950DOPE   C3B11145  10.104  31.503  12.496 -0.1560 -0.0619 -0.1713
  950DOPE   C4B11146  10.190  31.567  12.031  0.1157 -0.0958  0.2084
  951DOPE   NH311147  12.506  32.097  13.893  0.0251  0.0987  0.0058
  951DOPE   PO411148  12.304  32.202  14.133 -0.0239 -0.0595  0.1779
  951DOPE   GL111149  12.100  32.235  13.827 -0.3791 -0.0324  0.0200
  951DOPE   GL211150  11.984  32.457  13.704 -0.1223 -0.0918 -0.0638
  951DOPE   C1A11151  12.010  32.071  13.389 -0.0361 -0.2382 -0.0132
  951DOPE   D2A11152  12.188  31.812  12.992 -0.1045 -0.3819  0.1526
  951DOPE   C3A11153  11.971  31.909  12.614  0.0631  0.0014  0.1522
  951DOPE   C4A11154  11.522  31.688  12.569 -0.0427 -0.1368 -0.3329
  951DOPE   C1B11155  11.976  32.623  13.280  0.2704  0.2427 -0.1168
  951DOPE   D2B11156  12.106  32.801  12.847  0.0747 -0.0339  0.2572
  951DOPE   C3B11157  11.847  33.035  12.576 -0.3632 -0.2388 -0.2223
  951DOPE   C4B11158  11.427  32.882  12.403 -0.0289 -0.1230  0.0232
  952DOPC   NC311159   2.346  22.570  14.126  0.2474  0.0529 -0.1762
  952DOPC   PO411160   2.040  22.762  13.899  0.0776  0.1355 -0.2556
  952DOPC   GL111161   2.156  22.394  13.717 -0.1145 -0.2356 -0.0828
  952DOPC   GL211162   1.945  22.219  13.574  0.2041  0.1209 -0.3971
  952DOPC   C1A11163   2.322  22.395  13.283 -0.1581  0.3187  0.0287
  952DOPC   D2A11164   2.529  22.499  12.913  0.0222  0.2282  0.1016
  952DOPC   C3A11165   2.643  22.321  12.536 -0.1538 -0.0174 -0.1436
  952DOPC   C4A11166   2.882  22.495  12.174  0.4002  0.5607  0.1588
  952DOPC   C1B11167   1.839  22.527  13.285  0.1246  0.1182 -0.2666
  952DOPC   D2B11168   1.627  22.900  13.031  0.3033 -0.3746 -0.4684
  952DOPC   C3B11169   1.243  23.048  12.817 -0.4235 -0.1983 -0.0932
  952DOPC   C4B11170   1.201  23.268  12.438 -0.0351 -0.0370 -0.1717
  953DOPC   NC311171   9.920  28.870  13.664  0.1018  0.3149 -0.2701
  953DOPC   PO411172   9.597  28.665  13.747  0.4263 -0.1045  0.1960
  953DOPC   GL111173   9.844  28.484  13.436 -0.1072 -0.2002 -0.2930
  953DOPC   GL211174   9.799  28.676  13.210  0.1242  0.1369 -0.0201
  953DOPC   C1A11175   9.904  28.040  13.286  0.2171  0.1163  0.0433
  953DOPC   D2A11176  10.019  27.796  12.909  0.0076 -0.1291  0.1202
  953DOPC   C3A11177   9.949  28.100  12.543 -0.2365  0.0664 -0.0291
  953DOPC   C4A11178  10.205  28.243  12.179 -0.1226  0.1692  0.1269
  953DOPC   C1B11179   9.645  28.369  12.861 -0.0102 -0.1042  0.1118
  953DOPC   D2B11180   9.386  28.244  12.473 -0.0189 -0.0774 -0.4400
  953DOPC   C3B11181   9.421  27.897  12.222 -0.0685  0.2276  0.0145
  953DOPC   C4B11182   9.373  27.494  12.066  0.2775  0.1639 -0.2181
  954DOPE   NH311183   6.479  25.682  13.594 -0.1744 -0.3281  0.1584
  954DOPE   PO411184   6.785  25.603  13.607  0.0700  0.0294  0.2373
  954DOPE   GL111185   6.833  25.817  13.315 -0.3688  0.0438  0.1423
  954DOPE   GL211186   6.794  25.592  13.105  0.1341  0.2322  0.0948
  954DOPE   C1A11187   6.478  26.133  13.137  0.0882 -0.0242 -0.0594
  954DOPE   D2A11188   6.147  26.212  12.838 -0.1831 -0.1214  0.2356
  954DOPE   C3A11189   6.114  26.494  12.499  0.1327  0.2301 -0.3155
  954DOPE   C4A11190   6.111  26.830  12.168 -0.1574 -0.3067 -0.1287
  954DOPE   C1B11191   6.814  25.191  12.873  0.2503 -0.1807  0.3590
  954DOPE   D2B11192   6.955  24.912  12.555  0.0530  0.0954 -0.2439
  954DOPE   C3B11193   6.918  24.552  12.221 -0.1577  0.3036 -0.1347
  954DOPE   C4B11194   6.949  24.491  11.762 -0.0491 -0.0921  0.1760
  955DOPE   NH311195  11.760  30.337  13.976 -0.1758 -0.0471  0.3210
  955DOPE   PO411196  11.689  30.629  13.885  0.1865 -0.2132  0.2172
  955DOPE   GL111197  12.024  30.633  13.615  0.1256 -0.0564 -0.3375
  955DOPE   GL211198  12.143  30.868  13.702  0.1132 -0.1791  0.0932
  955DOPE   C1A11199  12.118  30.810  13.183  0.0837  0.0220 -0.0693
  955DOPE   D2A11200  12.121  30.895  12.731  0.2132  0.2522  0.1781
  955DOPE   C3A11201  12.463  30.700  12.521 -0.2591  0.2249  0.0348
  955DOPE   C4A11202  12.838  30.610  12.258 -0.0372  0.3642 -0.1553
  955DOPE   C1B11203  12.208  31.243  13.486  0.1961  0.1498 -0.2351
  955DOPE   D2B11204  12.168  31.309  13.036  0.0269 -0.1890  0.0011
  955DOPE   C3B11205  11.887  31.400  12.660  0.0556  0.1184 -0.1642
  955DOPE   C4B11206  11.839  31.477  12.175 -0.1941  0.0786 -0.2619
  956DOPS   CNO11207   1.817  26.520  14.441 -0.0492 -0.0174  0.2285
  956DOPS   PO411208   1.753  26.791  14.150 -0.2581  0.3729 -0.0315
  956DOPS   GL111209   1.740  26.964  13.747  0.3284 -0.2645 -0.1645
  956DOPS   GL211210   1.525  26.814  13.643 -0.1840  0.0231  0.0948
  956DOPS   C1A11211   1.966  26.809  13.324  0.2092 -0.0678  0.1286
  956DOPS   D2A11212   1.936  27.025  12.943  0.1372 -0.3749 -0.3340
  956DOPS   C3A11213   2.051  27.485  12.836 -0.0529  0.1536  0.4396
  956DOPS   C4A11214   1.984  27.733  12.496 -0.0888  0.1785  0.1293
  956DOPS   C1B11215   1.452  26.964  13.245  0.2357 -0.1872  0.2949
  956DOPS   D2B11216   1.238  26.860  12.845 -0.0836  0.2907 -0.1555
  956DOPS   C3B11217   0.802  26.661  12.785  0.0410  0.1039 -0.3242
  956DOPS   C4B11218   0.373  26.828  12.865 -0.0021  0.3565 -0.0073
  957POSM   NC311219   5.439  33.049  13.807  0.0670 -0.1129  0.0955
  957POSM   PO411220   5.120  32.948  14.002 -0.0559  0.0181  0.1558
  957POSM   AM111221   4.901  32.937  13.782  0.1023 -0.2095  0.5951
  957POSM   AM211222   4.717  33.120  13.645 -0.3366 -0.3651  0.1819
  957POSM   T1A11223   4.838  32.726  13.339 -0.0286  0.2241 -0.1518
  957POSM   C2A11224   4.769  32.570  12.935 -0.0862 -0.3518  0.1272
  957POSM   C3A11225   4.799  32.305  12.554  0.0239 -0.1770  0.2447
  957POSM   C1B11226   4.509  33.145  13.449 -0.2224  0.4915 -0.0736
  957POSM   D2B11227   4.221  33.321  13.148 -0.3266 -0.0262 -0.3791
  957POSM   C3B11228   4.203  33.285  12.746  0.0202 -0.4218 -0.1090
  957POSM   C4B11229   3.910  33.262  12.379  0.0752 -0.0603 -0.0394
  958DOPC   NC311230  34.261  31.446  14.336 -0.0211 -0.1632 -0.3348
  958DOPC   PO411231  34.672  31.379  14.329  0.3102 -0.0473 -0.0894
  958DOPC   GL111232  34.738  31.431  13.906 -0.1567 -0.2366 -0.2190
  958DOPC   GL211233  34.467  31.353  13.907  0.1247  0.2492  0.0296
  958DOPC   C1A11234  34.665  31.299  13.469  0.1097 -0.0097  0.2115
  958DOPC   D2A11235  34.824  31.157  13.082 -0.2107  0.1971  0.1879
  958DOPC   C3A11236  35.035  31.401  12.782  0.2594 -0.3080 -0.0346
  958DOPC   C4A11237  35.361  31.693  12.678  0.1203 -0.2602 -0.1817
  958DOPC   C1B11238  34.339  30.953  13.704  0.2258 -0.2017 -0.0663
  958DOPC   D2B11239  34.578  30.817  13.305 -0.1185  0.0226 -0.2944
  958DOPC   C3B11240  34.420  30.818  12.883 -0.1222 -0.1416 -0.2723
  958DOPC   C4B11241  34.785  30.913  12.596  0.2799  0.4565 -0.1264
  959DOPC   NC311242   6.732  23.703  13.583  0.0724 -0.0530 -0.0517
  959DOPC   PO411243   6.443  23.882  13.744 -0.5150 -0.0334 -0.3323
  959DOPC   GL111244   6.294  24.055  13.396  0.1049 -0.1772 -0.0478
  959DOPC   GL211245   6.540  24.013  13.224  0.0267  0.2390 -0.1346
  959DOPC   C1A11246   6.266  24.447  13.183  0.1135  0.1064 -0.0132
  959DOPC   D2A11247   6.023  24.788  13.045 -0.4573  0.0545 -0.0333
  959DOPC   C3A11248   5.992  24.840  12.584  0.2723  0.0606  0.0563
  959DOPC   C4A11249   5.846  24.733  12.162 -0.0520  0.0061  0.0012
  959DOPC   C1B11250   6.465  23.922  12.760 -0.0165 -0.2359 -0.1268
  959DOPC   D2B11251   6.520  23.614  12.413  0.0841 -0.0256  0.1627
  959DOPC   C3B11252   6.165  23.749  12.130  0.0187 -0.0456 -0.0674
  959DOPC   C4B11253   5.786  23.803  11.811  0.0037 -0.0061 -0.1980
  960DOPS   CNO11254   3.468  22.990  13.700  0.0533  0.0473 -0.1896
  960DOPS   PO411255   3.404  22.629  13.732  0.1593 -0.0191  0.2644
  960DOPS   GL111256   3.696  22.756  13.332  0.3088  0.3790 -0.1661
  960DOPS   GL211257   3.398  22.892  13.196  0.1026 -0.2157 -0.0005
  960DOPS   C1A11258   3.726  23.245  13.152  0.0862 -0.0737 -0.0528
  960DOPS   D2A11259   3.741  23.703  13.120 -0.2346  0.4532 -0.3227
  960DOPS   C3A11260   3.828  23.940  12.733 -0.0769  0.5325  0.0334
  960DOPS   C4A11261   3.867  24.099  12.263  0.1553  0.1499 -0.0566
  960DOPS   C1B11262   3.398  22.984  12.746 -0.2498 -0.1305 -0.2429
  960DOPS   D2B11263   3.323  22.693  12.362 -0.1084 -0.0157 -0.0565
  960DOPS   C3B11264   3.084  22.933  12.092 -0.0737  0.0732  0.0297
  960DOPS   C4B11265   2.724  23.224  12.111 -0.2716 -0.1042 -0.0522
  961DOPC   NC311266  10.211   1.268  14.476  0.1444  0.0786 -0.0814
  961DOPC   PO411267  10.567   1.110  14.396 -0.1436  0.0035 -0.3221
  961DOPC   GL111268  10.489   0.970  13.916 -0.0829 -0.0035 -0.1607
  961DOPC   GL211269  10.782   1.037  13.822  0.1553  0.0918  0.0739
  961DOPC   C1A11270  10.119   0.847  13.662 -0.2079 -0.1436 -0.0121
  961DOPC   D2A11271   9.881   0.582  13.391  0.0082 -0.2060  0.0915
  961DOPC   C3A11272   9.812   0.742  12.921 -0.0293  0.1461 -0.0792
  961DOPC   C4A11273   9.928   0.495  12.536  0.2049 -0.2893  0.1606
  961DOPC   C1B11274  10.753   0.981  13.408  0.0330  0.2610  0.2036
  961DOPC   D2B11275  10.434   0.774  13.217 -0.3095  0.1721  0.4485
  961DOPC   C3B11276  10.294   1.186  12.994 -0.0918 -0.0144  0.0770
  961DOPC   C4B11277  10.273   1.513  12.743 -0.1200  0.0344  0.0018
  962POSM   NC311278   8.542  27.453  14.114 -0.0763 -0.0368  0.4534
  962POSM   PO411279   8.421  27.688  13.855  0.1830 -0.1480 -0.1923
  962POSM   AM111280   8.597  27.805  13.592  0.2751  0.1565 -0.2420
  962POSM   AM211281   8.557  27.898  13.314  0.0021 -0.1201 -0.2488
  962POSM   T1A11282   9.022  27.946  13.401  0.1353 -0.0047  0.0753
  962POSM   C2A11283   9.403  27.985  13.134  0.0169 -0.4271 -0.0594
  962POSM   C3A11284   9.550  27.856  12.737  0.0518  0.1753 -0.0505
  962POSM   C1B11285   8.566  27.864  12.980 -0.1698  0.1277  0.2054
  962POSM   D2B11286   8.663  27.884  12.561  0.0296  0.0430  0.2054
  962POSM   C3B11287   8.937  27.587  12.355  0.0064 -0.1092  0.1734
  962POSM   C4B11288   9.091  27.171  12.306 -0.4165  0.1925 -0.0191
  963DOPC   NC311289   9.588  25.673  13.205 -0.0728 -0.2255 -0.0194
  963DOPC   PO411290   9.657  25.299  13.106 -0.2891 -0.0205  0.1741
  963DOPC   GL111291   9.504  25.478  12.795 -0.2418 -0.1805 -0.0381
  963DOPC   GL211292   9.852  25.513  12.686 -0.0556 -0.0060  0.0273
  963DOPC   C1A11293   9.243  25.514  12.414  0.3134 -0.2229 -0.1782
  963DOPC   D2A11294   9.282  25.541  11.957  0.0989  0.3012  0.1073
  963DOPC   C3A11295   8.984  25.510  11.664 -0.0178 -0.2437  0.0859
  963DOPC   C4A11296   8.670  25.158  11.649  0.2321  0.2614  0.2215
  963DOPC   C1B11297  10.200  25.681  12.444 -0.0331  0.0718  0.0637
  963DOPC   D2B11298  10.471  25.743  12.004 -0.4432  0.0805 -0.2364
  963DOPC   C3B11299  10.857  25.408  11.903  0.2060  0.0660  0.1484
  963DOPC   C4B11300  11.154  25.200  11.580  0.0806  0.1630 -0.0017
  964DOPC   NC311301  10.949  24.612  12.558 -0.0147  0.3674  0.2332
  964DOPC   PO411302  10.628  24.448  12.710  0.4110 -0.0867  0.1409
  964DOPC   GL111303  10.348  24.301  12.487 -0.0081 -0.2725  0.2015
  964DOPC   GL211304  10.150  24.581  12.466 -0.0933 -0.0530 -0.1183
  964DOPC   C1A11305  10.347  24.138  12.020 -0.0586 -0.2746 -0.0053
  964DOPC   D2A11306  10.414  23.728  11.717 -0.4108  0.0776 -0.0601
  964DOPC   C3A11307  10.238  23.631  11.281 -0.1282 -0.0785  0.1364
  964DOPC   C4A11308  10.095  23.549  10.842  0.1851 -0.1604 -0.1553
  964DOPC   C1B11309  10.379  24.668  12.087  0.0447 -0.0918 -0.1092
  964DOPC   D2B11310  10.664  24.899  11.794  0.0806  0.0321  0.0470
  964DOPC   C3B11311  10.640  24.934  11.361  0.1423  0.2605  0.4090
  964DOPC   C4B11312  10.722  25.204  10.958  0.0253 -0.2159 -0.2045
  965DOPE   NH311313   7.474  24.022  13.275 -0.0901  0.1079  0.0667
  965DOPE   PO411314   7.610  24.271  13.126  0.2920  0.0164 -0.4551
  965DOPE   GL111315   7.538  24.159  12.778 -0.0003 -0.0725  0.0987
  965DOPE   GL211316   7.347  23.961  12.721 -0.0710  0.2196 -0.1010
  965DOPE   C1A11317   7.646  23.989  12.348 -0.2569  0.0972 -0.4993
  965DOPE   D2A11318   7.602  23.826  11.929  0.1885 -0.1985  0.0172
  965DOPE   C3A11319   7.417  23.416  11.966 -0.1412  0.1473 -0.0766
  965DOPE   C4A11320   7.318  23.097  12.302  0.0919  0.0621  0.0380
  965DOPE   C1B11321   6.932  23.937  12.561  0.0092 -0.1568 -0.1988
  965DOPE   D2B11322   6.592  24.224  12.340 -0.0194  0.1624 -0.0995
  965DOPE   C3B11323   6.462  24.337  11.859 -0.0922  0.0612  0.2061
  965DOPE   C4B11324   6.549  24.195  11.430 -0.1769  0.2987 -0.0025
  966POSM   NC311325  10.569  25.163  13.270 -0.0185 -0.1784 -0.0394
  966POSM   PO411326  10.489  24.816  13.089 -0.1315 -0.2422  0.2691
  966POSM   AM111327  10.361  24.834  12.765  0.0826  0.0225  0.1491
  966POSM   AM211328  10.495  24.924  12.539  0.0002  0.1199  0.0233
  966POSM   T1A11329  10.069  25.094  12.436  0.1011 -0.1201 -0.4813
  966POSM   C2A11330   9.854  25.443  12.161 -0.1613 -0.0403 -0.3818
  966POSM   C3A11331   9.953  25.808  11.898  0.0229 -0.2014 -0.0703
  966POSM   C1B11332  10.713  24.961  12.273  0.0076 -0.1215  0.2762
  966POSM   D2B11333  11.113  24.865  12.026  0.1154  0.0351  0.2613
  966POSM   C3B11334  11.468  25.157  11.987 -0.1671  0.0670  0.4308
  966POSM   C4B11335  11.655  25.232  11.569  0.0302  0.2123 -0.3252
  967POSM   NC311336   3.400  27.197  13.803  0.0380  0.4505  0.5542
  967POSM   PO411337   3.596  27.512  13.883  0.0770 -0.4695  0.0058
  967POSM   AM111338   3.592  27.500  13.514 -0.0195 -0.1352  0.0143
  967POSM   AM211339   3.725  27.563  13.277 -0.0436 -0.0143  0.2674
  967POSM   T1A11340   3.307  27.558  13.099 -0.2008 -0.1251 -0.3016
  967POSM   C2A11341   3.207  27.740  12.687  0.1529 -0.3214 -0.0040
  967POSM   C3A11342   3.329  28.194  12.540 -0.0318  0.0293  0.0040
  967POSM   C1B11343   3.789  27.644  12.940 -0.0027  0.0276 -0.0225
  967POSM   D2B11344   3.777  27.723  12.493  0.0395  0.0541  0.0871
  967POSM   C3B11345   3.807  28.147  12.309 -0.0214 -0.0404  0.1954
  967POSM   C4B11346   4.020  28.471  12.073 -0.2879  0.1400  0.0660
  968DOPE   NH311347   1.636  22.405  13.918  0.1437  0.1007 -0.2287
  968DOPE   PO411348   1.393  22.276  13.839 -0.1069  0.0006  0.1686
  968DOPE   GL111349   1.431  22.366  13.457 -0.2027  0.0050  0.3339
  968DOPE   GL211350   1.180  22.279  13.390  0.0459  0.1030  0.3551
  968DOPE   C1A11351   1.420  22.426  12.981  0.0776 -0.1200  0.0297
  968DOPE   D2A11352   1.239  22.599  12.588 -0.1257 -0.1631  0.3218
  968DOPE   C3A11353   0.877  22.836  12.464 -0.0216  0.0429 -0.0068
  968DOPE   C4A11354   0.580  22.959  12.084  0.3538 -0.1998  0.0539
  968DOPE   C1B11355   0.940  22.424  13.007  0.2046 -0.0223  0.1241
  968DOPE   D2B11356   0.547  22.483  12.777 -0.1675 -0.2018  0.1102
  968DOPE   C3B11357   0.713  22.396  12.285  0.1057 -0.2647 -0.0335
  968DOPE   C4B11358   0.901  22.614  11.937 -0.0065 -0.1143  0.1551
  969POSM   NC311359  34.288  26.009  14.424 -0.1374  0.0411  0.0576
  969POSM   PO411360  33.897  26.092  14.409  0.1430  0.1157  0.2359
  969POSM   AM111361  33.836  26.054  14.091  0.0860 -0.1000  0.0858
  969POSM   AM211362  33.661  26.196  13.949 -0.1792 -0.2438  0.1681
  969POSM   T1A11363  33.941  26.006  13.595  0.0295 -0.1053 -0.2631
  969POSM   C2A11364  33.778  26.107  13.218  0.1025 -0.2370  0.1236
  969POSM   C3A11365  33.763  25.924  12.826  0.0171 -0.1089  0.0099
  969POSM   C1B11366  33.371  26.157  13.734 -0.1729 -0.1698  0.4575
  969POSM   D2B11367  33.304  26.109  13.214 -0.1953  0.0101  0.0189
  969POSM   C3B11368  33.454  26.374  12.871  0.1059  0.2941  0.1144
  969POSM   C4B11369  33.597  26.765  12.628 -0.3353 -0.0889 -0.0625
  970DOPE   NH311370   3.056  33.126  14.131  0.4604 -0.1069 -0.0638
  970DOPE   PO411371   3.295  32.934  14.130 -0.1108  0.1134  0.5328
  970DOPE   GL111372   3.260  32.889  13.703  0.1831  0.5790 -0.1918
  970DOPE   GL211373   3.086  33.133  13.593 -0.2158 -0.0463  0.2385
  970DOPE   C1A11374   3.647  32.655  13.439 -0.0579  0.0754 -0.2317
  970DOPE   D2A11375   4.067  32.819  13.331  0.1152 -0.1880 -0.0144
  970DOPE   C3A11376   4.384  32.818  12.994 -0.0029 -0.0980 -0.0532
  970DOPE   C4A11377   4.316  32.818  12.547  0.0504 -0.4276  0.0272
  970DOPE   C1B11378   3.550  33.193  13.515 -0.1136  0.0936 -0.1071
  970DOPE   D2B11379   3.769  33.156  13.118  0.0020 -0.1407 -0.2917
  970DOPE   C3B11380   3.579  33.045  12.687 -0.0609 -0.0564 -0.2932
  970DOPE   C4B11381   3.337  32.722  12.502 -0.4037 -0.0238 -0.0503
  971POSM   NC311382   0.131  31.021  14.537  0.0526  0.0498  0.2773
  971POSM   PO411383  -0.280  31.063  14.631  0.1228 -0.1589  0.0238
  971POSM   AM111384  -0.521  30.999  14.402 -0.5185 -0.2153 -0.1637
  971POSM   AM211385  -0.658  30.773  14.269  0.4048  0.1151  0.0838
  971POSM   T1A11386  -0.790  31.184  13.992 -0.2508  0.0919 -0.2924
  971POSM   C2A11387  -0.990  30.943  13.683  0.0379 -0.1868  0.3227
  971POSM   C3A11388  -1.099  31.088  13.259 -0.3004  0.1493  0.0192
  971POSM   C1B11389  -0.746  30.632  14.043 -0.1172  0.0368  0.1084
  971POSM   D2B11390  -0.760  30.503  13.599  0.2975  0.2285  0.0676
  971POSM   C3B11391  -0.686  30.826  13.287 -0.0094  0.1936  0.1443
  971POSM   C4B11392  -0.449  31.195  13.132  0.1936  0.1267 -0.2315
  972DOPS   CNO11393  15.285  25.675  13.786 -0.1284 -0.0919  0.1719
  972DOPS   PO411394  15.009  25.629  13.577 -0.1921 -0.0263  0.0232
  972DOPS   GL111395  14.962  25.723  13.216 -0.4059  0.2809 -0.0451
  972DOPS   GL211396  14.804  25.462  13.160 -0.0413  0.3129  0.2558
  972DOPS   C1A11397  14.758  25.996  12.909  0.0474  0.1271  0.1463
  972DOPS   D2A11398  14.379  26.023  12.632 -0.0539 -0.0303 -0.0698
  972DOPS   C3A11399  14.314  26.031  12.133  0.3227 -0.0063  0.2777
  972DOPS   C4A11400  14.089  26.335  11.791  0.2432  0.0851 -0.0147
  972DOPS   C1B11401  14.986  25.545  12.770 -0.2500 -0.0005 -0.1793
  972DOPS   D2B11402  15.144  25.494  12.321 -0.0053 -0.0645 -0.1622
  972DOPS   C3B11403  15.085  25.424  11.853  0.0851 -0.2195 -0.3446
  972DOPS   C4B11404  15.259  25.383  11.480  0.3175  0.0293 -0.3011
  973DOPC   NC311405   5.545  32.145  13.752 -0.1301 -0.0460  0.0269
  973DOPC   PO411406   5.702  31.837  13.959  0.0250 -0.1837  0.1134
  973DOPC   GL111407   5.647  31.712  13.502  0.1666 -0.2226 -0.0654
  973DOPC   GL211408   5.401  31.881  13.390 -0.2214  0.0957 -0.0952
  973DOPC   C1A11409   5.799  31.791  13.060 -0.0634  0.1977 -0.3166
  973DOPC   D2A11410   6.015  31.750  12.653 -0.2383 -0.0077 -0.0200
  973DOPC   C3A11411   5.659  31.588  12.391 -0.1436 -0.0028  0.0953
  973DOPC   C4A11412   5.506  31.527  11.924  0.0699  0.0061  0.0158
  973DOPC   C1B11413   5.506  32.240  13.132 -0.1825  0.1271  0.1281
  973DOPC   D2B11414   5.234  32.385  12.837 -0.0594  0.2949  0.0544
  973DOPC   C3B11415   5.112  32.713  12.526  0.3361  0.0773  0.3182
  973DOPC   C4B11416   5.127  32.941  12.148  0.0881 -0.1706 -0.3156
  974DOPS   CNO11417   0.506  34.264  14.173  0.1173  0.0414  0.2445
  974DOPS   PO411418   0.459  34.582  14.025 -0.0070 -0.2433 -0.0897
  974DOPS   GL111419   0.583  34.662  13.675 -0.3337 -0.1703 -0.4749
  974DOPS   GL211420   0.834  34.831  13.609  0.1430  0.1032 -0.0557
  974DOPS   C1A11421   0.514  34.512  13.261 -0.2002  0.0995 -0.0135
  974DOPS   D2A11422   0.406  34.223  12.887  0.0087 -0.0559 -0.0111
  974DOPS   C3A11423   0.638  34.200  12.500  0.0317  0.0528  0.0347
  974DOPS   C4A11424   0.916  34.119  12.158  0.0979 -0.0688 -0.0917
  974DOPS   C1B11425   0.658  35.084  13.362  0.0038 -0.2253 -0.1299
  974DOPS   D2B11426   0.583  35.316  12.931 -0.1490  0.0468 -0.0272
  974DOPS   C3B11427   0.892  35.153  12.579 -0.1948  0.0351 -0.1471
  974DOPS   C4B11428   1.385  35.089  12.675  0.1446  0.1792 -0.1718
  975DOPE   NH311429  10.061  32.766  14.542  0.0094 -0.3688 -0.2718
  975DOPE   PO411430   9.836  32.760  14.304 -0.0231 -0.0153 -0.3190
  975DOPE   GL111431   9.957  32.717  13.881 -0.1254  0.0016 -0.2589
  975DOPE   GL211432  10.257  32.802  13.708  0.1916 -0.0441  0.1602
  975DOPE   C1A11433   9.783  32.676  13.451 -0.3237  0.0152  0.2479
  975DOPE   D2A11434   9.647  33.014  13.123  0.1976 -0.0697 -0.0211
  975DOPE   C3A11435   9.830  32.985  12.637 -0.1464 -0.0098  0.1911
  975DOPE   C4A11436  10.107  32.855  12.230  0.0986  0.1420 -0.3180
  975DOPE   C1B11437  10.194  32.964  13.289  0.1309 -0.0972  0.2998
  975DOPE   D2B11438  10.313  32.867  12.843  0.0038  0.1252  0.4843
  975DOPE   C3B11439  10.445  33.118  12.455  0.0229  0.0512 -0.1218
  975DOPE   C4B11440  10.273  33.230  11.945  0.5233  0.0363  0.0072
  976DOPC   NC311441   3.233  27.737  14.491 -0.0707  0.0799 -0.0904
  976DOPC   PO411442   3.339  27.896  14.132 -0.2816  0.1580  0.0321
  976DOPC   GL111443   3.359  27.922  13.785 -0.1673  0.5052 -0.1618
  976DOPC   GL211444   3.090  27.782  13.751  0.0172  0.0068  0.1384
  976DOPC   C1A11445   3.627  28.017  13.413  0.2471 -0.2828 -0.0594
  976DOPC   D2A11446   3.628  28.119  12.966  0.0894  0.3378 -0.0131
  976DOPC   C3A11447   4.060  28.198  12.814  0.1094 -0.0163  0.2163
  976DOPC   C4A11448   4.321  28.262  12.416  0.1638 -0.2853  0.0938
  976DOPC   C1B11449   3.044  28.036  13.401  0.1726 -0.4055  0.2231
  976DOPC   D2B11450   3.115  28.145  13.010 -0.0526 -0.3051 -0.0885
  976DOPC   C3B11451   2.817  28.099  12.647 -0.0307 -0.1939  0.1078
  976DOPC   C4B11452   2.787  27.829  12.240 -0.3917  0.0199  0.1913
  977DOPS   CNO11453   0.843  28.523  14.619 -0.2284  0.0431  0.2715
  977DOPS   PO411454   1.118  28.416  14.389  0.0658 -0.0162 -0.0973
  977DOPS   GL111455   1.317  28.310  13.991 -0.1140  0.4137 -0.0594
  977DOPS   GL211456   1.357  27.994  13.937 -0.0275 -0.4971 -0.0340
  977DOPS   C1A11457   1.352  28.374  13.504  0.3000 -0.1159 -0.3747
  977DOPS   D2A11458   1.204  28.566  13.089 -0.2229  0.1247  0.1103
  977DOPS   C3A11459   1.322  28.314  12.734  0.2133 -0.0577  0.1486
  977DOPS   C4A11460   1.453  28.272  12.309 -0.2212 -0.2217 -0.0115
  977DOPS   C1B11461   0.995  28.095  13.663  0.2004  0.0057 -0.0277
  977DOPS   D2B11462   0.730  28.307  13.338  0.2103  0.0223 -0.1408
  977DOPS   C3B11463   0.845  28.231  12.931 -0.0916 -0.0521  0.2814
  977DOPS   C4B11464   0.920  28.315  12.447  0.1538  0.1185  0.0606
  978DOPC   NC311465   4.168  24.424  14.117  0.3058  0.3886  0.0580
  978DOPC   PO411466   4.415  24.293  13.838  0.1008 -0.2644  0.2124
  978DOPC   GL111467   4.481  24.012  13.627  0.2314 -0.2560  0.1458
  978DOPC   GL211468   4.205  24.003  13.483  0.0760 -0.2730  0.1814
  978DOPC   C1A11469   4.805  23.922  13.317 -0.1478  0.1781 -0.4241
  978DOPC   D2A11470   5.180  23.789  12.993  0.0133 -0.3675  0.0019
  978DOPC   C3A11471   5.570  23.759  12.856 -0.4922 -0.4599  0.1448
  978DOPC   C4A11472   5.922  23.878  12.615 -0.1201  0.3318  0.4785
  978DOPC   C1B11473   4.261  23.889  13.058 -0.3805 -0.0787 -0.1330
  978DOPC   D2B11474   4.088  23.540  12.809  0.1197  0.2515 -0.1718
  978DOPC   C3B11475   4.436  23.275  12.550 -0.2044  0.1451 -0.1193
  978DOPC   C4B11476   4.889  23.143  12.503  0.0745 -0.1711  0.1425
  979DOPE   NH311477  10.683  29.659  13.964  0.0767 -0.0238 -0.0253
  979DOPE   PO411478  10.410  29.583  13.761  0.3180 -0.1533  0.0246
  979DOPE   GL111479  10.167  29.260  13.527 -0.0368 -0.0102 -0.0845
  979DOPE   GL211480  10.354  29.259  13.356 -0.0899  0.0942  0.2420
  979DOPE   C1A11481   9.904  29.156  13.094  0.2574 -0.0267  0.4421
  979DOPE   D2A11482   9.582  28.962  12.771  0.1864  0.0413 -0.0338
  979DOPE   C3A11483   9.357  29.216  12.444 -0.0669  0.0022  0.0393
  979DOPE   C4A11484   9.220  29.536  12.101 -0.1154 -0.2733 -0.0541
  979DOPE   C1B11485  10.280  28.842  13.127 -0.0101 -0.0258  0.2593
  979DOPE   D2B11486  10.115  28.587  12.789 -0.3108 -0.0106 -0.0230
  979DOPE   C3B11487   9.771  28.584  12.447  0.3523  0.0044  0.1384
  979DOPE   C4B11488   9.583  28.328  12.037  0.2855  0.0542  0.1540
  980POSM   NC311489   8.470  31.256  13.949  0.0448 -0.2285 -0.1072
  980POSM   PO411490   8.664  30.932  13.984 -0.3440  0.0307 -0.1068
  980POSM   AM111491   8.691  30.995  13.678  0.0252  0.1127 -0.0519
  980POSM   AM211492   8.744  30.913  13.417  0.1183  0.3836  0.4538
  980POSM   T1A11493   8.748  31.425  13.346 -0.4526  0.0204 -0.1616
  980POSM   C2A11494   8.947  31.753  12.972 -0.0269 -0.1420 -0.1532
  980POSM   C3A11495   8.914  32.191  12.719 -0.0379  0.1105  0.2874
  980POSM   C1B11496   8.607  30.901  13.101  0.1138  0.0691 -0.1464
  980POSM   D2B11497   8.285  30.948  12.820 -0.0014 -0.2558 -0.0554
  980POSM   C3B11498   8.218  31.362  12.610  0.0119  0.2039  0.0467
  980POSM   C4B11499   8.060  31.797  12.797 -0.0727  0.1608  0.1361
  981DOPE   NH311500   7.632  32.396  14.154  0.1232  0.1833  0.0745
  981DOPE   PO411501   7.376  32.183  14.142  0.2396 -0.0411 -0.1891
  981DOPE   GL111502   7.257  31.944  13.852 -0.3755 -0.0380  0.0914
  981DOPE   GL211503   7.004  31.999  13.853  0.0102 -0.1076 -0.1412
  981DOPE   C1A11504   7.553  31.974  13.444  0.1644  0.1211  0.2002
  981DOPE   D2A11505   7.650  31.800  13.067  0.0387 -0.2135 -0.2648
  981DOPE   C3A11506   7.952  31.432  13.083  0.0877  0.1760  0.3909
  981DOPE   C4A11507   8.403  31.513  13.014 -0.0819  0.0412  0.0976
  981DOPE   C1B11508   7.023  32.087  13.373 -0.0494  0.0437  0.1045
  981DOPE   D2B11509   7.324  32.187  13.039 -0.0787 -0.1249 -0.2987
  981DOPE   C3B11510   7.472  32.007  12.631  0.1695 -0.3945  0.2316
  981DOPE   C4B11511   7.735  31.697  12.437  0.1311 -0.0549  0.2896
  982POSM   NC311512   9.132  32.238  14.799 -0.0007  0.1835 -0.1131
  982POSM   PO411513   8.929  32.396  14.484  0.3196  0.0749  0.0825
  982POSM   AM111514   8.845  32.478  14.199 -0.2428 -0.0554  0.1772
  982POSM   AM211515   8.686  32.314  13.992  0.1535 -0.0019  0.2630
  982POSM   T1A11516   8.980  32.677  13.743 -0.1874 -0.1573 -0.0231
  982POSM   C2A11517   9.010  32.924  13.457  0.2775  0.0729  0.0659
  982POSM   C3A11518   9.163  33.047  13.038 -0.1974  0.1952  0.3301
  982POSM   C1B11519   8.769  32.226  13.669 -0.1095  0.0645 -0.0392
  982POSM   D2B11520   8.926  32.239  13.237 -0.0472  0.2161 -0.0431
  982POSM   C3B11521   8.870  32.615  12.967  0.1038  0.0655 -0.2326
  982POSM   C4B11522   8.866  32.713  12.577  0.0353  0.0151  0.0224
  983DOPC   NC311523   7.344  28.031  13.912 -0.1727 -0.3664 -0.1107
  983DOPC   PO411524   7.646  27.939  13.714  0.3493 -0.2049 -0.0357
  983DOPC   GL111525   7.815  28.059  13.377 -0.0053  0.0762  0.5246
  983DOPC   GL211526   7.593  28.156  13.246  0.1742  0.0080 -0.0687
  983DOPC   C1A11527   8.020  27.811  13.063 -0.1398 -0.1834  0.0238
  983DOPC   D2A11528   7.900  27.388  12.928  0.0951  0.0500 -0.1768
  983DOPC   C3A11529   7.956  27.226  12.469  0.0415  0.2944  0.3703
  983DOPC   C4A11530   8.339  27.219  12.303  0.1964 -0.0422  0.0889
  983DOPC   C1B11531   7.815  28.478  12.996  0.0404  0.1171 -0.0280
  983DOPC   D2B11532   7.666  28.603  12.553 -0.2023 -0.0661  0.0726
  983DOPC   C3B11533   8.047  28.493  12.256 -0.0822 -0.0885  0.0204
  983DOPC   C4B11534   8.429  28.224  12.301  0.0220 -0.1742  0.1250
  984DOPE   NH311535   7.694  33.969  14.702 -0.4231 -0.0044 -0.0137
  984DOPE   PO411536   7.496  34.176  14.590  0.0179 -0.0865 -0.2800
  984DOPE   GL111537   7.725  34.317  14.190  0.1635  0.1140 -0.4036
  984DOPE   GL211538   7.547  34.418  14.033 -0.1254  0.0092  0.0383
  984DOPE   C1A11539   7.945  34.059  13.845 -0.1753  0.1850  0.0955
  984DOPE   D2A11540   7.800  33.899  13.445 -0.1737 -0.3526 -0.1576
  984DOPE   C3A11541   7.923  33.782  13.015 -0.1813 -0.1645 -0.0920
  984DOPE   C4A11542   7.851  33.895  12.570  0.0770  0.0470 -0.1143
  984DOPE   C1B11543   7.593  34.451  13.637  0.1918 -0.1701  0.1290
  984DOPE   D2B11544   7.767  34.338  13.214 -0.3296 -0.3638 -0.2974
  984DOPE   C3B11545   7.544  34.125  12.848  0.0066 -0.0527  0.3599
  984DOPE   C4B11546   7.486  34.243  12.415  0.0155  0.0735  0.2672
  985POSM   NC311547   7.779  23.218  12.596  0.3162 -0.4247 -0.2565
  985POSM   PO411548   8.094  23.004  12.693  0.1130  0.1112  0.0483
  985POSM   AM111549   8.046  22.873  12.424  0.0252  0.1007  0.6813
  985POSM   AM211550   8.202  22.725  12.200 -0.0367  0.0159  0.1276
  985POSM   T1A11551   7.745  22.917  12.054 -0.6965 -0.0108  0.1862
  985POSM   C2A11552   7.788  23.013  11.535 -0.1068  0.2818 -0.0920
  985POSM   C3A11553   7.601  23.127  11.160  0.3203  0.0149 -0.0817
  985POSM   C1B11554   8.156  22.697  11.891  0.0415  0.0000  0.0116
  985POSM   D2B11555   8.138  22.424  11.570 -0.2219 -0.1395 -0.1032
  985POSM   C3B11556   7.804  22.540  11.233  0.2902 -0.0114 -0.1999
  985POSM   C4B11557   7.356  22.670  11.277 -0.0178 -0.0492  0.0502
  986DOPE   NH311558  11.658   0.821  14.575 -0.0347 -0.0091  0.0376
  986DOPE   PO411559  11.673   0.622  14.322  0.2031 -0.1095 -0.0037
  986DOPE   GL111560  11.722   0.410  13.967  0.0492 -0.4181  0.2100
  986DOPE   GL211561  11.597   0.646  13.773  0.3404 -0.0663 -0.1227
  986DOPE   C1A11562  11.531   0.154  13.606 -0.1141 -0.1238 -0.1571
  986DOPE   D2A11563  11.400   0.296  13.211  0.2150  0.2194 -0.1405
  986DOPE   C3A11564  11.246   0.267  12.825 -0.0512 -0.0038 -0.0895
  986DOPE   C4A11565  11.112   0.534  12.488  0.2099  0.5963  0.0316
  986DOPE   C1B11566  11.261   0.775  13.559 -0.0718 -0.0895 -0.0212
  986DOPE   D2B11567  11.100   0.770  13.096  0.2858  0.1825  0.0395
  986DOPE   C3B11568  11.331   0.923  12.743  0.0747 -0.1922  0.0850
  986DOPE   C4B11569  11.732   1.024  12.454 -0.0080  0.0525  0.0499
  987DOPE   NH311570  32.339  28.734  15.309 -0.1962  0.0202 -0.2295
  987DOPE   PO411571  32.415  29.045  15.227  0.1705 -0.0355  0.3280
  987DOPE   GL111572  32.382  28.947  14.823  0.0235  0.4788  0.1971
  987DOPE   GL211573  32.697  28.904  14.751 -0.1863  0.0856  0.0324
  987DOPE   C1A11574  32.248  29.160  14.418 -0.1586 -0.0592  0.1377
  987DOPE   D2A11575  32.109  29.329  14.008  0.0961 -0.0344  0.0245
  987DOPE   C3A11576  32.442  29.465  13.739  0.3161 -0.0777  0.1802
  987DOPE   C4A11577  32.511  29.491  13.285  0.1234 -0.2963  0.1289
  987DOPE   C1B11578  32.558  28.717  14.346  0.1387 -0.0197 -0.1925
  987DOPE   D2B11579  32.686  28.485  14.000 -0.1586 -0.2637  0.1673
  987DOPE   C3B11580  32.852  28.649  13.578  0.0184  0.0809  0.2378
  987DOPE   C4B11581  33.215  28.789  13.379 -0.0748 -0.1259  0.3024
  988DOPE   NH311582   8.165  32.161  14.583 -0.2887  0.0338 -0.0136
  988DOPE   PO411583   7.847  32.178  14.509  0.2587 -0.0796 -0.0952
  988DOPE   GL111584   7.982  32.010  14.162 -0.3277 -0.1071  0.1735
  988DOPE   GL211585   8.180  32.226  14.115 -0.3936 -0.1916 -0.0984
  988DOPE   C1A11586   7.816  31.759  13.769  0.1257 -0.0207  0.0234
  988DOPE   D2A11587   7.781  31.389  13.551 -0.0928 -0.0550  0.1851
  988DOPE   C3A11588   7.401  31.226  13.257 -0.1702  0.0750  0.1391
  988DOPE   C4A11589   7.245  30.974  12.906 -0.2702  0.3196  0.1770
  988DOPE   C1B11590   8.263  31.995  13.794  0.0585 -0.0886  0.0606
  988DOPE   D2B11591   8.081  31.956  13.393 -0.0996  0.2152  0.0087
  988DOPE   C3B11592   7.878  32.221  13.091  0.0151  0.3026  0.0815
  988DOPE   C4B11593   7.673  32.555  12.814 -0.0966  0.1515  0.0207
  989DOPE   NH311594   0.896  24.752  14.162  0.2442 -0.0766  0.2777
  989DOPE   PO411595   1.131  24.967  14.022  0.1272  0.2887  0.1902
  989DOPE   GL111596   1.058  25.062  13.689 -0.1483  0.1026 -0.2839
  989DOPE   GL211597   0.740  24.999  13.741  0.0636 -0.0488 -0.0696
  989DOPE   C1A11598   1.096  25.130  13.234  0.2166  0.1081  0.1084
  989DOPE   D2A11599   1.091  25.179  12.793 -0.1756  0.3528  0.0299
  989DOPE   C3A11600   0.896  24.912  12.494 -0.1418  0.1157 -0.0154
  989DOPE   C4A11601   0.473  24.969  12.296  0.0404 -0.0786  0.0862
  989DOPE   C1B11602   0.572  25.158  13.391  0.0919  0.2340  0.0017
  989DOPE   D2B11603   0.378  25.553  13.309 -0.1926  0.1097  0.2591
  989DOPE   C3B11604   0.389  25.668  12.858 -0.0995 -0.0448  0.0972
  989DOPE   C4B11605   0.575  25.872  12.502  0.1810 -0.1734 -0.1953
  990POSM   NC311606  10.309  28.420  14.409 -0.1237 -0.1657 -0.0301
  990POSM   PO411607  10.161  28.690  14.128  0.2159 -0.0058 -0.0611
  990POSM   AM111608  10.259  28.604  13.817  0.0299 -0.0432 -0.1490
  990POSM   AM211609  10.430  28.739  13.635  0.0406 -0.0292  0.2472
  990POSM   T1A11610  10.411  28.313  13.421 -0.2227  0.1253 -0.0848
  990POSM   C2A11611  10.366  28.234  12.991 -0.0802 -0.0199  0.3062
  990POSM   C3A11612  10.500  27.894  12.718 -0.0496 -0.1613 -0.2255
  990POSM   C1B11613  10.695  28.849  13.587  0.0950  0.0564 -0.1054
  990POSM   D2B11614  11.098  28.789  13.620  0.1080 -0.1248  0.2521
  990POSM   C3B11615  11.336  29.075  13.358 -0.2504 -0.0075 -0.0104
  990POSM   C4B11616  11.358  29.364  12.989  0.1083 -0.0683  0.0165
  991DOPE   NH311617  11.015  32.286  14.257 -0.0497  0.1443  0.1800
  991DOPE   PO411618  10.833  32.554  14.241  0.1354  0.2596  0.1910
  991DOPE   GL111619  10.774  32.559  13.848 -0.1121 -0.1229  0.6134
  991DOPE   GL211620  11.136  32.547  13.795  0.0207  0.0018  0.0575
  991DOPE   C1A11621  10.616  32.681  13.447  0.0423 -0.1833  0.0043
  991DOPE   D2A11622  10.773  32.620  12.981  0.2616 -0.0755 -0.0408
  991DOPE   C3A11623  10.884  32.906  12.664 -0.2030  0.2038 -0.0534
  991DOPE   C4A11624  10.998  33.370  12.603 -0.1437  0.1224  0.0744
  991DOPE   C1B11625  10.933  32.338  13.345 -0.2402 -0.1559  0.0683
  991DOPE   D2B11626  10.730  32.129  13.020  0.0001  0.1419  0.1121
  991DOPE   C3B11627  10.564  32.351  12.620 -0.1293 -0.0957 -0.1590
  991DOPE   C4B11628  10.378  32.406  12.215  0.1058  0.1195  0.0602
  992DOPE   NH311629   8.637  33.845  14.530  0.0335 -0.1515  0.1171
  992DOPE   PO411630   8.336  33.901  14.578  0.0660  0.1266  0.0838
  992DOPE   GL111631   8.356  34.055  14.153  0.3973  0.1333 -0.1056
  992DOPE   GL211632   8.408  33.736  14.045 -0.0723 -0.0350  0.3345
  992DOPE   C1A11633   8.184  34.494  14.007 -0.2537  0.2444  0.0732
  992DOPE   D2A11634   8.221  34.594  13.531 -0.1730 -0.0331 -0.1831
  992DOPE   C3A11635   8.604  34.512  13.353  0.3267 -0.1088  0.0862
  992DOPE   C4A11636   8.796  34.400  13.007  0.1037 -0.1924 -0.0427
  992DOPE   C1B11637   8.473  34.089  13.727  0.0706  0.2268  0.0344
  992DOPE   D2B11638   8.224  34.167  13.298 -0.0290  0.2605  0.6396
  992DOPE   C3B11639   8.230  34.565  13.016 -0.0171 -0.0980 -0.3211
  992DOPE   C4B11640   7.894  34.932  12.833 -0.0782  0.0657  0.4940
  993POSM   NC311641   7.702  27.092  13.786 -0.1802 -0.2341  0.1452
  993POSM   PO411642   7.917  26.914  13.514  0.0490 -0.2996 -0.0132
  993POSM   AM111643   7.986  26.827  13.210  0.1122 -0.0331 -0.0037
  993POSM   AM211644   7.812  26.654  13.028 -0.1096  0.1236  0.0763
  993POSM   T1A11645   8.266  26.975  12.803  0.0239 -0.2758  0.1797
  993POSM   C2A11646   8.667  26.918  12.518  0.1684 -0.1052  0.5041
  993POSM   C3A11647   8.985  26.652  12.354 -0.1863 -0.0156  0.0129
  993POSM   C1B11648   7.602  26.959  12.854 -0.1466  0.0620 -0.0627
  993POSM   D2B11649   7.356  27.281  12.844  0.1726  0.1004 -0.1570
  993POSM   C3B11650   7.479  27.673  12.982 -0.0159 -0.2013 -0.0808
  993POSM   C4B11651   7.701  28.037  12.795  0.0193 -0.5049 -0.0265
  994DOPC   NC311652   0.362  29.365  14.326  0.2396  0.2176  0.1446
  994DOPC   PO411653   0.648  29.165  14.511  0.2654 -0.1723  0.0244
  994DOPC   GL111654   0.570  28.897  14.278 -0.0499  0.0046  0.2858
  994DOPC   GL211655   0.786  28.751  14.152 -0.2510  0.2830 -0.1105
  994DOPC   C1A11656   0.249  29.034  13.916 -0.1165  0.1394 -0.2620
  994DOPC   D2A11657  -0.170  29.197  13.780  0.0669 -0.0051 -0.2915
  994DOPC   C3A11658  -0.379  28.944  13.461 -0.2834  0.1284 -0.1233
  994DOPC   C4A11659  -0.767  28.745  13.238  0.0490 -0.1013 -0.1137
  994DOPC   C1B11660   0.641  28.537  13.767 -0.0515 -0.3714 -0.2479
  994DOPC   D2B11661   0.299  28.500  13.446  0.1514 -0.1188 -0.3816
  994DOPC   C3B11662   0.472  28.602  13.029 -0.0100  0.3412  0.3411
  994DOPC   C4B11663   0.802  28.712  12.731 -0.3127 -0.0537  0.0403
  995DOPE   NH311664   4.239  26.506  13.398 -0.0826  0.3302 -0.0279
  995DOPE   PO411665   3.931  26.489  13.517  0.2740 -0.0108 -0.1400
  995DOPE   GL111666   3.797  26.140  13.323 -0.2712 -0.5575 -0.0432
  995DOPE   GL211667   3.806  26.261  13.060  0.1287  0.1908  0.1554
  995DOPE   C1A11668   3.332  26.078  13.092 -0.1263 -0.0350  0.3316
  995DOPE   D2A11669   3.014  25.828  12.882 -0.3939  0.2135  0.4468
  995DOPE   C3A11670   2.798  26.016  12.479  0.1094  0.1061  0.1045
  995DOPE   C4A11671   2.643  26.164  12.058  0.1295 -0.0216 -0.1521
  995DOPE   C1B11672   3.647  26.223  12.645  0.0339 -0.4031 -0.1013
  995DOPE   D2B11673   3.202  26.265  12.359  0.1302 -0.0239  0.1396
  995DOPE   C3B11674   3.175  26.084  11.928  0.1367  0.1410  0.0741
  995DOPE   C4B11675   3.330  25.646  11.851  0.0557  0.1324 -0.1722
  996DOPC   NC311676  11.108  30.211  13.375 -0.0322  0.1906  0.1144
  996DOPC   PO411677  10.887  30.059  13.670 -0.1897 -0.0076 -0.2808
  996DOPC   GL111678  10.763  29.892  13.352 -0.0077 -0.2080 -0.0681
  996DOPC   GL211679  10.632  30.145  13.212 -0.0165  0.1176  0.1778
  996DOPC   C1A11680  10.427  29.686  13.117 -0.0224 -0.1639  0.1501
  996DOPC   D2A11681  10.365  29.351  12.775  0.0372  0.1175 -0.2056
  996DOPC   C3A11682  10.561  28.951  12.650  0.0638  0.2646  0.0564
  996DOPC   C4A11683  10.902  28.747  12.342 -0.1840  0.4060 -0.0274
  996DOPC   C1B11684  10.842  29.956  12.900 -0.1952 -0.0239  0.0665
  996DOPC   D2B11685  10.961  30.018  12.468 -0.0099  0.1185  0.2558
  996DOPC   C3B11686  11.394  30.266  12.283  0.0585 -0.1705 -0.3426
  996DOPC   C4B11687  11.579  30.526  11.967 -0.2024 -0.1693 -0.1625
  997POSM   NC311688   1.710  24.540  14.206  0.0160 -0.0775  0.0416
  997POSM   PO411689   1.311  24.474  14.118 -0.1852 -0.1536 -0.0422
  997POSM   AM111690   1.135  24.540  13.838  0.0050 -0.3488  0.1705
  997POSM   AM211691   1.237  24.635  13.574  0.2832  0.0707  0.0897
  997POSM   T1A11692   0.663  24.444  13.658  0.1536  0.2973 -0.2963
  997POSM   C2A11693   0.441  24.352  13.246 -0.2963 -0.2291  0.0178
  997POSM   C3A11694   0.304  24.100  12.876 -0.1652  0.0036  0.2251
  997POSM   C1B11695   1.002  24.659  13.352  0.0816 -0.0154 -0.2792
  997POSM   D2B11696   0.817  24.844  13.031  0.0922  0.1929  0.1724
  997POSM   C3B11697   0.478  24.628  12.783 -0.0397  0.0721 -0.0596
  997POSM   C4B11698   0.418  24.379  12.412 -0.2028 -0.2259  0.2520
  998DOPE   NH311699  10.332  26.776  13.462 -0.0137 -0.4195 -0.1677
  998DOPE   PO411700  10.625  26.652  13.311 -0.4120 -0.0773  0.1696
  998DOPE   GL111701  10.399  26.793  12.910  0.1009  0.2486  0.2833
  998DOPE   GL211702  10.586  26.901  12.686  0.1394 -0.0279 -0.1617
  998DOPE   C1A11703  10.087  26.938  12.597 -0.5713 -0.2619  0.0814
  998DOPE   D2A11704   9.750  27.042  12.316 -0.1316 -0.0675  0.5710
  998DOPE   C3A11705   9.690  27.152  11.873 -0.2201  0.0608 -0.3499
  998DOPE   C4A11706   9.766  27.003  11.400 -0.0417 -0.2701 -0.4550
  998DOPE   C1B11707  10.666  26.833  12.215  0.1539 -0.0097  0.2469
  998DOPE   D2B11708  10.675  26.583  11.866  0.0071 -0.3311  0.0277
  998DOPE   C3B11709  11.050  26.434  11.645  0.2494  0.1223  0.1925
  998DOPE   C4B11710  11.471  26.445  11.432 -0.0177 -0.0293 -0.1301
  999DOPE   NH311711   7.962  27.546  13.513 -0.0103  0.2177 -0.1422
  999DOPE   PO411712   8.121  27.328  13.700  0.1638 -0.0148  0.2018
  999DOPE   GL111713   8.209  27.241  13.300  0.0952 -0.0680  0.1096
  999DOPE   GL211714   8.402  27.461  13.304 -0.1292 -0.1303 -0.2675
  999DOPE   C1A11715   8.610  27.041  13.194 -0.3165  0.0910  0.0438
  999DOPE   D2A11716   9.047  26.968  13.244  0.1909  0.4303 -0.2493
  999DOPE   C3A11717   9.024  27.122  12.826 -0.0832 -0.1178 -0.0488
  999DOPE   C4A11718   8.638  27.357  12.746 -0.1856 -0.1553 -0.0290
  999DOPE   C1B11719   8.845  27.462  13.163  0.1158  0.1254  0.3136
  999DOPE   D2B11720   9.292  27.504  13.213 -0.1997  0.2283 -0.4183
  999DOPE   C3B11721   9.522  27.133  13.038  0.1319 -0.2579  0.2235
  999DOPE   C4B11722   9.430  26.847  12.655 -0.0872 -0.2530 -0.0945
 1000POSM   NC311723   4.504  20.853  13.745 -0.1923 -0.0477  0.2924
 1000POSM   PO411724   4.632  20.890  13.373  0.1084  0.2117 -0.4596
 1000POSM   AM111725   4.600  20.977  13.034  0.2505  0.1251  0.1601
 1000POSM   AM211726   4.428  20.900  12.797  0.0147  0.1222  0.0265
 1000POSM   T1A11727   4.841  21.027  12.611  0.3679 -0.1771  0.6416
 1000POSM   C2A11728   5.072  21.035  12.200 -0.0985 -0.0344 -0.1558
 1000POSM   C3A11729   5.490  20.984  12.044 -0.0091 -0.1547 -0.2913
 1000POSM   C1B11730   4.570  20.604  12.592  0.1758 -0.2632  0.0438
 1000POSM   D2B11731   4.902  20.478  12.233 -0.3848 -0.0298  0.1506
 1000POSM   C3B11732   4.761  20.165  11.844  0.2079 -0.3376  0.0787
 1000POSM   C4B11733   4.775  19.706  11.667  0.1148 -0.0348 -0.1028
 1001DOPS   CNO11734   8.748  24.472  12.922  0.1680 -0.1969 -0.1932
 1001DOPS   PO411735   8.469  24.353  12.722 -0.2750  0.1134 -0.0611
 1001DOPS   GL111736   8.470  24.338  12.369 -0.2647 -0.4273  0.1537
 1001DOPS   GL211737   8.153  24.439  12.321 -0.2081  0.0485  0.1215
 1001DOPS   C1A11738   8.615  24.414  11.920  0.0979  0.1691 -0.1013
 1001DOPS   D2A11739   8.899  24.158  11.694  0.0737 -0.0385 -0.1168
 1001DOPS   C3A11740   8.958  24.278  11.229  0.0736 -0.0651  0.1667
 1001DOPS   C4A11741   9.218  24.485  10.888 -0.6082  0.1312 -0.0498
 1001DOPS   C1B11742   7.706  24.419  12.158  0.1475 -0.0459  0.0657
 1001DOPS   D2B11743   7.282  24.234  12.046 -0.3218  0.0728 -0.3216
 1001DOPS   C3B11744   7.147  23.992  11.649  0.1412 -0.0525  0.0836
 1001DOPS   C4B11745   7.143  23.666  11.306 -0.3011  0.2781 -0.0053
 1002DOPC   NC311746   4.636  30.936  13.911 -0.4303 -0.3153 -0.1304
 1002DOPC   PO411747   4.739  31.322  13.890 -0.1525  0.1373  0.3641
 1002DOPC   GL111748   4.636  31.149  13.484 -0.2626  0.1970 -0.1523
 1002DOPC   GL211749   4.706  31.273  13.302 -0.3210 -0.1129  0.1211
 1002DOPC   C1A11750   4.216  31.325  13.257 -0.4144 -0.2244 -0.3296
 1002DOPC   D2A11751   3.870  31.042  13.220 -0.0328  0.5077  0.1433
 1002DOPC   C3A11752   3.548  30.975  12.834  0.0652  0.1953 -0.2398
 1002DOPC   C4A11753   3.553  31.035  12.350  0.0733 -0.1394 -0.0773
 1002DOPC   C1B11754   4.976  31.367  12.918  0.1180 -0.4372  0.1151
 1002DOPC   D2B11755   5.008  31.520  12.467  0.0268 -0.4614 -0.1429
 1002DOPC   C3B11756   5.325  31.251  12.275  0.1471 -0.0817 -0.2422
 1002DOPC   C4B11757   5.761  31.150  12.218  0.1218 -0.2292 -0.0141
 1003POSM   NC311758   7.325  25.430  13.360  0.2690 -0.1481 -0.0607
 1003POSM   PO411759   7.483  25.770  13.269  0.1232  0.0108 -0.0655
 1003POSM   AM111760   7.267  25.778  13.016 -0.0367  0.0140 -0.0270
 1003POSM   AM211761   7.095  25.973  12.908 -0.1360  0.0787 -0.1558
 1003POSM   T1A11762   7.085  25.578  12.622  0.3896  0.1873 -0.1132
 1003POSM   C2A11763   6.892  25.321  12.212  0.2035 -0.0824  0.0228
 1003POSM   C3A11764   6.782  25.061  11.831 -0.1341  0.1960 -0.3110
 1003POSM   C1B11765   6.785  25.987  12.708 -0.0175  0.2166 -0.0803
 1003POSM   D2B11766   6.480  26.085  12.352 -0.0307  0.2749  0.2421
 1003POSM   C3B11767   6.490  26.535  12.163  0.1004  0.1700 -0.4656
 1003POSM   C4B11768   6.539  27.031  12.035 -0.1127  0.2433 -0.2081
 1004DOPE   NH311769   8.220  24.798  12.751  0.3546  0.1415  0.0222
 1004DOPE   PO411770   8.259  25.067  12.597 -0.0168 -0.1198  0.0566
 1004DOPE   GL111771   8.432  25.073  12.282 -0.3975 -0.0466 -0.3967
 1004DOPE   GL211772   8.367  24.876  12.063  0.1007 -0.1424  0.0532
 1004DOPE   C1A11773   8.317  25.366  11.946  0.0658  0.1888 -0.2824
 1004DOPE   D2A11774   8.114  25.654  11.663  0.5775 -0.1454 -0.0180
 1004DOPE   C3A11775   8.169  25.436  11.208 -0.0484  0.0822  0.0068
 1004DOPE   C4A11776   8.017  25.249  10.776 -0.2413  0.1926 -0.0525
 1004DOPE   C1B11777   8.233  24.719  11.659  0.1061  0.1082 -0.2288
 1004DOPE   D2B11778   7.794  24.701  11.502  0.0420 -0.0333 -0.0664
 1004DOPE   C3B11779   7.755  24.577  11.035 -0.0344 -0.2002 -0.0408
 1004DOPE   C4B11780   8.023  24.695  10.709 -0.1835  0.1501 -0.3414
 1005DOPS   CNO11781   5.769  20.689  13.271 -0.0670  0.0447 -0.1882
 1005DOPS   PO411782   5.869  21.075  13.184 -0.5432  0.1272  0.0325
 1005DOPS   GL111783   5.989  21.190  12.773 -0.1710 -0.0259 -0.2293
 1005DOPS   GL211784   6.270  21.141  12.705  0.3098 -0.0122  0.0931
 1005DOPS   C1A11785   5.863  21.349  12.320 -0.0529  0.1962  0.0850
 1005DOPS   D2A11786   5.758  21.341  11.874  0.2028  0.1688 -0.1639
 1005DOPS   C3A11787   6.170  21.169  11.712  0.1243  0.0301  0.2523
 1005DOPS   C4A11788   6.660  21.316  11.718 -0.0940 -0.2715 -0.2706
 1005DOPS   C1B11789   6.373  21.131  12.212 -0.2419 -0.3336  0.1564
 1005DOPS   D2B11790   6.542  20.791  11.895 -0.1711 -0.2716 -0.2102
 1005DOPS   C3B11791   6.841  20.842  11.535 -0.1538 -0.0774  0.2069
 1005DOPS   C4B11792   7.076  20.918  11.168  0.2178  0.0341  0.1015
 1006DOPS   CNO11793   8.666   0.966  15.095  0.0714  0.3149 -0.2695
 1006DOPS   PO411794   8.874   1.230  14.849  0.0846  0.1604 -0.0508
 1006DOPS   GL111795   8.775   1.273  14.510  0.0363 -0.2555 -0.0443
 1006DOPS   GL211796   8.652   1.508  14.441  0.2330  0.1891 -0.0745
 1006DOPS   C1A11797   8.659   0.976  14.168  0.0523 -0.0826 -0.1264
 1006DOPS   D2A11798   8.722   0.662  13.921  0.0685  0.3726 -0.2108
 1006DOPS   C3A11799   8.897   0.303  13.673 -0.2840  0.1293  0.0557
 1006DOPS   C4A11800   8.908   0.126  13.230 -0.1232  0.1801  0.3061
 1006DOPS   C1B11801   8.876   1.484  14.014  0.0284 -0.0550  0.0447
 1006DOPS   D2B11802   8.928   1.719  13.702  0.0379 -0.3299  0.0146
 1006DOPS   C3B11803   8.880   1.522  13.297  0.0897  0.0375 -0.2446
 1006DOPS   C4B11804   8.991   1.446  12.831 -0.0764 -0.2773  0.3217
 1007DOPE   NH311805  12.732  23.875  12.773  0.1567  0.2526  0.4288
 1007DOPE   PO411806  12.864  23.632  12.632 -0.1885 -0.0537 -0.1505
 1007DOPE   GL111807  12.895  23.932  12.359  0.2918  0.3174  0.2823
 1007DOPE   GL211808  12.908  24.221  12.363 -0.1511  0.1560 -0.2660
 1007DOPE   C1A11809  12.839  23.946  11.860 -0.0341  0.2213 -0.1008
 1007DOPE   D2A11810  12.488  24.003  11.574  0.4721  0.0152  0.0869
 1007DOPE   C3A11811  12.478  23.774  11.193 -0.1610  0.1969  0.0950
 1007DOPE   C4A11812  12.715  23.384  10.984 -0.0240  0.1314 -0.2868
 1007DOPE   C1B11813  13.130  24.350  12.023  0.2665  0.1847  0.0278
 1007DOPE   D2B11814  13.394  24.284  11.686 -0.1579  0.2623  0.0374
 1007DOPE   C3B11815  13.422  23.820  11.652 -0.0897 -0.1605 -0.1207
 1007DOPE   C4B11816  13.385  23.395  11.700  0.2898 -0.0318  0.0660
 1008DOPC   NC311817   3.347  24.770  13.686  0.2451  0.1067 -0.2454
 1008DOPC   PO411818   2.995  24.913  13.731  0.1001  0.4148  0.1170
 1008DOPC   GL111819   3.040  24.887  13.305 -0.0615  0.0630 -0.1065
 1008DOPC   GL211820   3.246  25.100  13.286 -0.1611  0.1150 -0.0492
 1008DOPC   C1A11821   3.205  24.747  12.895  0.5969 -0.2347  0.0543
 1008DOPC   D2A11822   3.064  24.936  12.554  0.1125 -0.0004 -0.2565
 1008DOPC   C3A11823   3.245  24.766  12.154  0.0244  0.1009 -0.1553
 1008DOPC   C4A11824   3.398  24.723  11.730  0.1603 -0.4237  0.0459
 1008DOPC   C1B11825   3.209  25.339  12.866  0.0932  0.0948 -0.1780
 1008DOPC   D2B11826   3.361  25.350  12.460 -0.0835 -0.0714 -0.1573
 1008DOPC   C3B11827   3.666  25.170  12.186  0.1969  0.0042 -0.1455
 1008DOPC   C4B11828   3.698  25.136  11.697  0.0292 -0.0833 -0.0384
 1009DOPS   CNO11829   9.809  30.715  14.270  0.3550 -0.1815 -0.2607
 1009DOPS   PO411830   9.949  30.909  13.961  0.1266 -0.0741  0.1166
 1009DOPS   GL111831   9.914  30.660  13.643  0.0916  0.0811  0.1161
 1009DOPS   GL211832  10.149  30.594  13.489  0.2935 -0.3305  0.3452
 1009DOPS   C1A11833   9.889  30.772  13.123  0.0429  0.2673 -0.0167
 1009DOPS   D2A11834   9.806  30.565  12.745 -0.1608 -0.0111 -0.0256
 1009DOPS   C3A11835  10.158  30.391  12.446 -0.0197  0.0859 -0.0753
 1009DOPS   C4A11836  10.133  30.431  12.004  0.0688  0.1152  0.0145
 1009DOPS   C1B11837  10.349  30.839  13.138  0.0296  0.1228 -0.1406
 1009DOPS   D2B11838  10.283  31.059  12.708  0.1946  0.1853 -0.1221
 1009DOPS   C3B11839   9.826  31.126  12.686 -0.0367  0.0646 -0.1211
 1009DOPS   C4B11840   9.389  30.939  12.670  0.2085 -0.2267  0.0725
 1010DOPE   NH311841   5.128  31.015  13.791  0.4967  0.0844  0.3961
 1010DOPE   PO411842   5.102  31.185  13.517 -0.3835 -0.2430  0.0418
 1010DOPE   GL111843   5.293  31.436  13.273  0.4028  0.0193  0.0967
 1010DOPE   GL211844   5.624  31.291  13.198  0.2437 -0.0083  0.0341
 1010DOPE   C1A11845   5.380  31.619  12.868 -0.0906  0.2052 -0.0963
 1010DOPE   D2A11846   5.478  31.987  12.723 -0.0528  0.0153  0.0028
 1010DOPE   C3A11847   5.252  31.972  12.347 -0.1095  0.2360  0.1995
 1010DOPE   C4A11848   5.026  32.328  12.109  0.1254  0.1185  0.2436
 1010DOPE   C1B11849   5.444  31.099  12.849  0.0819 -0.4209 -0.0241
 1010DOPE   D2B11850   5.293  30.773  12.572 -0.0831  0.5219 -0.0059
 1010DOPE   C3B11851   4.865  30.904  12.355 -0.0722  0.1597 -0.0005
 1010DOPE   C4B11852   4.403  30.780  12.295 -0.0272  0.0719  0.2070
 1011DOPE   NH311853   6.027  27.303  13.639 -0.0293 -0.1084  0.5344
 1011DOPE   PO411854   6.036  26.963  13.594  0.4351 -0.1393  0.1592
 1011DOPE   GL111855   5.970  27.187  13.208 -0.0458 -0.1537 -0.2120
 1011DOPE   GL211856   5.698  27.124  13.227 -0.0221 -0.0296  0.0497
 1011DOPE   C1A11857   5.919  27.429  12.870 -0.1784 -0.1081 -0.3124
 1011DOPE   D2A11858   6.191  27.671  12.538  0.0810 -0.1057  0.2879
 1011DOPE   C3A11859   6.247  27.650  12.065 -0.2343 -0.2434 -0.2031
 1011DOPE   C4A11860   6.092  27.236  11.920 -0.2351  0.0142  0.0668
 1011DOPE   C1B11861   5.492  27.152  12.790 -0.0262 -0.1321 -0.0544
 1011DOPE   D2B11862   5.442  27.523  12.487 -0.0843 -0.3049 -0.1535
 1011DOPE   C3B11863   5.300  27.985  12.367  0.3022  0.4286 -0.0242
 1011DOPE   C4B11864   5.141  28.397  12.585 -0.1359 -0.0679  0.2700
 1012DOPE   NH311865   4.619  26.096  13.692  0.0148 -0.2526  0.2396
 1012DOPE   PO411866   4.815  26.341  13.644  0.1663 -0.0465 -0.0391
 1012DOPE   GL111867   4.705  26.325  13.255  0.0064 -0.1082  0.0788
 1012DOPE   GL211868   4.996  26.393  13.092  0.2228  0.0783 -0.3829
 1012DOPE   C1A11869   4.434  26.341  12.895  0.2129  0.1552  0.0799
 1012DOPE   D2A11870   4.101  26.507  12.627  0.0047  0.0075  0.0592
 1012DOPE   C3A11871   4.310  26.400  12.271  0.1976  0.1234  0.0059
 1012DOPE   C4A11872   4.396  26.305  11.835  0.0349  0.0292  0.1304
 1012DOPE   C1B11873   4.852  26.098  12.700  0.1591 -0.0597 -0.1023
 1012DOPE   D2B11874   5.207  25.819  12.570 -0.0121 -0.1998  0.0120
 1012DOPE   C3B11875   5.125  25.917  12.152  0.1483  0.0162  0.2062
 1012DOPE   C4B11876   4.814  26.073  11.823 -0.1549  0.0130 -0.1306
 1013DOPC   NC311877  11.748  34.134  14.150  0.0437 -0.2788  0.0227
 1013DOPC   PO411878  11.434  34.323  14.326  0.1569 -0.0968 -0.3485
 1013DOPC   GL111879  11.105  34.292  13.961 -0.6058 -0.0109 -0.3176
 1013DOPC   GL211880  11.307  34.185  13.840 -0.0852  0.1864 -0.0430
 1013DOPC   C1A11881  10.847  33.920  13.850 -0.1114 -0.1434  0.0571
 1013DOPC   D2A11882  10.926  33.566  13.580  0.0489  0.3104  0.3114
 1013DOPC   C3A11883  10.993  33.562  13.110 -0.2389  0.0847 -0.0528
 1013DOPC   C4A11884  11.264  33.763  12.783  0.0600 -0.2924 -0.0872
 1013DOPC   C1B11885  11.114  34.048  13.368 -0.2414  0.3779 -0.0719
 1013DOPC   D2B11886  10.947  34.188  12.959  0.0702 -0.0355 -0.0092
 1013DOPC   C3B11887  10.961  34.583  12.676  0.1257 -0.1758  0.1852
 1013DOPC   C4B11888  11.281  34.768  12.367 -0.1065 -0.0602 -0.1620
 1014POSM   NC311889   1.891  27.222  14.269 -0.3406  0.0817  0.2764
 1014POSM   PO411890   2.117  27.114  13.965  0.3630  0.3160  0.2647
 1014POSM   AM111891   2.260  27.080  13.681 -0.1466  0.4006 -0.1364
 1014POSM   AM211892   2.456  27.196  13.515  0.0803 -0.2383 -0.0633
 1014POSM   T1A11893   2.441  26.711  13.405 -0.2040 -0.0068 -0.2776
 1014POSM   C2A11894   2.640  26.318  13.173  0.0069  0.0868  0.1788
 1014POSM   C3A11895   2.924  26.283  12.851  0.0644  0.0332  0.1944
 1014POSM   C1B11896   2.319  27.157  13.214 -0.3472  0.0278 -0.0332
 1014POSM   D2B11897   2.438  27.134  12.755  0.2323  0.0314 -0.1071
 1014POSM   C3B11898   2.159  26.839  12.538  0.0710  0.3662  0.2010
 1014POSM   C4B11899   2.052  26.367  12.480 -0.0136 -0.3530 -0.0271
 1015POSM   NC311900   1.004  29.201  14.206 -0.0876  0.0937 -0.0412
 1015POSM   PO411901   1.318  29.415  14.131  0.0781 -0.0443  0.1327
 1015POSM   AM111902   1.347  29.430  13.807  0.1954  0.3853 -0.5139
 1015POSM   AM211903   1.598  29.456  13.615  0.0856 -0.2460 -0.0432
 1015POSM   T1A11904   1.179  29.509  13.342 -0.0219 -0.0399  0.0018
 1015POSM   C2A11905   1.043  29.644  13.002 -0.4086  0.3607 -0.3981
 1015POSM   C3A11906   0.714  29.857  12.795  0.1616 -0.0390 -0.2145
 1015POSM   C1B11907   1.562  29.211  13.379  0.1858  0.5248 -0.0628
 1015POSM   D2B11908   1.630  28.775  13.305  0.1960 -0.2518 -0.2718
 1015POSM   C3B11909   1.624  28.823  12.866 -0.0092  0.0100  0.1910
 1015POSM   C4B11910   1.287  28.854  12.538  0.3147 -0.0942  0.0232
 1016DOPC   NC311911   6.234  26.536  13.472  0.1523 -0.2825  0.1733
 1016DOPC   PO411912   5.870  26.396  13.375 -0.2110 -0.0658  0.1286
 1016DOPC   GL111913   5.780  26.517  13.040  0.2220 -0.0959 -0.0918
 1016DOPC   GL211914   5.515  26.691  13.076  0.1784  0.0850 -0.0680
 1016DOPC   C1A11915   5.447  26.358  12.731 -0.0134 -0.2125  0.4039
 1016DOPC   D2A11916   5.192  26.496  12.293  0.2315  0.2750 -0.3417
 1016DOPC   C3A11917   4.833  26.369  12.219 -0.2141 -0.0927 -0.3713
 1016DOPC   C4A11918   4.588  25.975  12.264  0.0464 -0.3049  0.1682
 1016DOPC   C1B11919   5.093  26.801  12.848  0.0661 -0.1125  0.3111
 1016DOPC   D2B11920   4.720  26.725  12.560  0.2898  0.2550  0.3297
 1016DOPC   C3B11921   4.754  26.970  12.207  0.1172 -0.0170 -0.0866
 1016DOPC   C4B11922   4.876  27.215  11.872 -0.0454 -0.1878  0.0641
 1017DOPC   NC311923   7.637  30.875  13.772 -0.1154 -0.2171 -0.1412
 1017DOPC   PO411924   7.604  30.480  13.827 -0.3789 -0.0479 -0.0523
 1017DOPC   GL111925   7.659  30.350  13.398 -0.2849 -0.2020 -0.0597
 1017DOPC   GL211926   7.702  30.643  13.348  0.1158 -0.0881 -0.0573
 1017DOPC   C1A11927   7.472  30.063  13.097  0.2564 -0.1173 -0.0076
 1017DOPC   D2A11928   7.360  30.098  12.643 -0.2109 -0.1379  0.0248
 1017DOPC   C3A11929   7.784  30.165  12.427  0.0147 -0.0393 -0.1309
 1017DOPC   C4A11930   8.057  30.425  12.045  0.3963  0.0033  0.0144
 1017DOPC   C1B11931   7.744  30.837  12.947  0.0026 -0.0360  0.0715
 1017DOPC   D2B11932   7.500  30.598  12.634 -0.0457 -0.0990  0.1570
 1017DOPC   C3B11933   7.089  30.499  12.399 -0.4082  0.3354 -0.1446
 1017DOPC   C4B11934   6.709  30.592  12.199 -0.1120  0.0146 -0.2767
 1018DOPS   CNO11935   0.444  30.114  14.741 -0.1195  0.1822  0.3721
 1018DOPS   PO411936   0.369  29.858  14.434  0.1398  0.0366 -0.3143
 1018DOPS   GL111937   0.505  30.016  14.029 -0.1290  0.1344 -0.4281
 1018DOPS   GL211938   0.426  29.807  13.815 -0.0466  0.1056  0.0115
 1018DOPS   C1A11939   0.733  30.146  13.650  0.2283  0.1444 -0.0198
 1018DOPS   D2A11940   1.178  30.080  13.512  0.3001 -0.1260 -0.1485
 1018DOPS   C3A11941   1.427  30.169  13.141 -0.2314 -0.0281 -0.1978
 1018DOPS   C4A11942   1.606  29.963  12.773 -0.1094 -0.1477  0.0599
 1018DOPS   C1B11943   0.228  30.039  13.464  0.5091 -0.2852  0.0170
 1018DOPS   D2B11944   0.174  29.925  13.015 -0.1471 -0.0191 -0.0293
 1018DOPS   C3B11945   0.319  29.519  12.806 -0.2401 -0.1792 -0.2428
 1018DOPS   C4B11946   0.350  29.037  12.884 -0.0810 -0.0039  0.2558
 1019DOPE   NH311947   7.576  24.745  12.995  0.4614 -0.0614 -0.1592
 1019DOPE   PO411948   7.804  24.947  13.000  0.1846  0.0689  0.2358
 1019DOPE   GL111949   7.709  24.895  12.562  0.0625 -0.0871  0.2393
 1019DOPE   GL211950   7.874  24.853  12.362 -0.1779 -0.3155  0.0510
 1019DOPE   C1A11951   7.429  25.242  12.402 -0.0202  0.4169 -0.5342
 1019DOPE   D2A11952   7.288  25.220  11.958 -0.0737 -0.1142  0.1786
 1019DOPE   C3A11953   7.105  25.558  11.713 -0.2663  0.0440 -0.2014
 1019DOPE   C4A11954   7.097  26.007  11.708  0.0295 -0.1180  0.0948
 1019DOPE   C1B11955   7.788  25.059  11.981  0.1518  0.0526 -0.0421
 1019DOPE   D2B11956   8.040  25.142  11.622  0.2069  0.2618  0.0104
 1019DOPE   C3B11957   8.153  24.925  11.220 -0.1011  0.0285 -0.0658
 1019DOPE   C4B11958   8.474  25.072  10.956  0.0592  0.1725 -0.0758
 1020DOPS   CNO11959  10.378  31.154  14.071 -0.0278  0.1008 -0.0144
 1020DOPS   PO411960  10.716  31.041  13.924  0.0317 -0.0223 -0.1347
 1020DOPS   GL111961  10.636  31.386  13.701  0.0578  0.1911 -0.0012
 1020DOPS   GL211962  10.798  31.561  13.723 -0.0352  0.4002  0.0666
 1020DOPS   C1A11963  10.684  31.343  13.222  0.3111 -0.3745 -0.0187
 1020DOPS   D2A11964  10.793  31.628  12.912  0.1134  0.0261 -0.4493
 1020DOPS   C3A11965  11.038  31.561  12.514 -0.1128 -0.2199  0.0790
 1020DOPS   C4A11966  11.210  31.804  12.112  0.2791  0.1055 -0.0866
 1020DOPS   C1B11967  10.944  31.828  13.354 -0.0363  0.5326  0.0724
 1020DOPS   D2B11968  11.185  32.012  12.989  0.2233  0.1645 -0.0967
 1020DOPS   C3B11969  10.962  32.057  12.587  0.0400 -0.1127  0.1280
 1020DOPS   C4B11970  10.860  32.209  12.159 -0.2700  0.1113  0.2350
 1021DOPE   NH311971  15.363  24.220   9.079  0.1078 -0.1552  0.0588
 1021DOPE   PO411972  15.212  24.028   8.896 -0.6061  0.1829 -0.5383
 1021DOPE   GL111973  15.072  23.949   9.346 -0.1475  0.1633  0.3304
 1021DOPE   GL211974  14.812  23.907   9.339  0.0562 -0.0061  0.0179
 1021DOPE   C1A11975  15.089  24.015   9.764 -0.0909 -0.1866  0.1729
 1021DOPE   D2A11976  15.365  24.083  10.108 -0.0275  0.0401 -0.4196
 1021DOPE   C3A11977  15.599  24.242  10.465 -0.1707 -0.0284 -0.0657
 1021DOPE   C4A11978  15.986  24.412  10.682 -0.0181  0.0010 -0.0790
 1021DOPE   C1B11979  14.612  23.809   9.760  0.2274  0.0536  0.2411
 1021DOPE   D2B11980  14.765  23.743  10.225 -0.1266 -0.2355  0.0680
 1021DOPE   C3B11981  15.261  23.621  10.355 -0.1027 -0.0937 -0.1994
 1021DOPE   C4B11982  15.550  23.424  10.677  0.2407  0.0081 -0.2225
 1022DOPS   CNO11983   1.009  23.419  10.047 -0.3760 -0.0800  0.0216
 1022DOPS   PO411984   1.216  23.691  10.236 -0.1422 -0.2820 -0.1231
 1022DOPS   GL111985   1.246  23.716  10.675  0.2354 -0.0612  0.0073
 1022DOPS   GL211986   1.361  23.484  10.703  0.1079  0.0432 -0.0295
 1022DOPS   C1A11987   0.938  23.716  11.032  0.0086  0.0204  0.1256
 1022DOPS   D2A11988   0.641  23.569  11.348 -0.1511 -0.1163 -0.0147
 1022DOPS   C3A11989   0.674  23.575  11.761 -0.0684 -0.1422  0.0003
 1022DOPS   C4A11990   0.688  23.449  12.205  0.3038  0.0220 -0.0038
 1022DOPS   C1B11991   1.746  23.243  10.816  0.0527 -0.0434  0.2974
 1022DOPS   D2B11992   2.144  23.246  11.113 -0.1371  0.1181 -0.2398
 1022DOPS   C3B11993   2.032  23.202  11.623 -0.1098 -0.0647 -0.1615
 1022DOPS   C4B11994   1.779  23.210  12.026 -0.2000  0.2949  0.0161
 1023DOPE   NH311995  13.119  23.232   9.306 -0.0303 -0.1458 -0.0427
 1023DOPE   PO411996  13.442  23.235   9.386  0.2555  0.2263 -0.0583
 1023DOPE   GL111997  13.627  23.180   9.649 -0.0747 -0.0324 -0.1683
 1023DOPE   GL211998  13.519  22.937   9.864 -0.2205  0.3201 -0.1010
 1023DOPE   C1A11999  13.930  23.369   9.981 -0.2211 -0.2758 -0.0202
 1023DOPE   D2A12000  14.302  23.636  10.154  0.1473 -0.1786  0.1501
 1023DOPE   C3A12001  14.355  23.936  10.529 -0.3490 -0.0693  0.0585
 1023DOPE   C4A12002  14.353  24.100  10.946 -0.0507 -0.2343  0.2021
 1023DOPE   C1B12003  13.627  22.626  10.234  0.1583  0.0021 -0.1316
 1023DOPE   D2B12004  13.489  22.172  10.263  0.3189 -0.2684  0.2310
 1023DOPE   C3B12005  13.116  21.898  10.193 -0.1762 -0.0443  0.1837
 1023DOPE   C4B12006  13.065  21.513  10.079  0.0140 -0.3873  0.0071
 1024DOPE   NH312007  13.116  24.914   9.242 -0.1794 -0.3065 -0.1028
 1024DOPE   PO412008  13.215  24.843   9.510  0.3469 -0.0479  0.4035
 1024DOPE   GL112009  13.198  25.047   9.840 -0.0247  0.4285  0.1079
 1024DOPE   GL212010  13.329  25.002  10.019 -0.1607 -0.0552 -0.2594
 1024DOPE   C1A12011  12.980  25.278  10.226  0.2462  0.0342 -0.1329
 1024DOPE   D2A12012  12.911  25.388  10.618  0.1191  0.1282 -0.0374
 1024DOPE   C3A12013  12.780  24.981  10.793  0.0262  0.1954 -0.2317
 1024DOPE   C4A12014  12.795  24.679  11.186  0.3082  0.0587  0.2308
 1024DOPE   C1B12015  13.221  24.866  10.511 -0.1030 -0.3260  0.1728
 1024DOPE   D2B12016  13.017  24.541  10.731  0.1657 -0.0208  0.0044
 1024DOPE   C3B12017  13.407  24.419  10.834 -0.0297 -0.3327 -0.0907
 1024DOPE   C4B12018  13.893  24.396  10.967 -0.0854  0.1619 -0.2841
 1025DOPC   NC312019  11.852  26.289   9.444  0.0872 -0.1333 -0.2916
 1025DOPC   PO412020  12.241  26.318   9.530 -0.1176 -0.0578  0.2182
 1025DOPC   GL112021  12.304  26.219   9.903 -0.0480 -0.3001 -0.2939
 1025DOPC   GL212022  12.120  26.021  10.036  0.1588 -0.2842  0.0614
 1025DOPC   C1A12023  12.156  26.424  10.257  0.0807  0.2211  0.2090
 1025DOPC   D2A12024  11.834  26.338  10.568 -0.0868  0.2704 -0.1983
 1025DOPC   C3A12025  12.041  26.110  10.876 -0.0969 -0.0244  0.0637
 1025DOPC   C4A12026  12.422  26.018  11.106  0.4164 -0.3857  0.0215
 1025DOPC   C1B12027  12.120  25.767  10.432 -0.0910 -0.2361 -0.0959
 1025DOPC   D2B12028  12.399  25.594  10.738 -0.1191  0.5685 -0.3382
 1025DOPC   C3B12029  12.332  25.172  10.917 -0.0183  0.0173  0.0166
 1025DOPC   C4B12030  12.313  24.771  11.138  0.3253 -0.1296  0.0375
 1026DOPC   NC312031   2.092  28.610  10.320 -0.0248  0.0843 -0.0601
 1026DOPC   PO412032   2.429  28.789  10.421 -0.1259  0.1212  0.0270
 1026DOPC   GL112033   2.393  28.793  10.886  0.2332  0.1167  0.2137
 1026DOPC   GL212034   2.662  29.024  10.903  0.0526  0.2824 -0.1682
 1026DOPC   C1A12035   2.444  28.609  11.271  0.1960  0.1839  0.0761
 1026DOPC   D2A12036   2.680  28.545  11.701  0.1935 -0.2972 -0.0724
 1026DOPC   C3A12037   2.507  28.318  12.067  0.1041 -0.2015  0.0280
 1026DOPC   C4A12038   2.269  28.120  12.409  0.1534  0.2858  0.2153
 1026DOPC   C1B12039   2.771  28.962  11.329  0.3143  0.3314 -0.0970
 1026DOPC   D2B12040   2.858  29.089  11.745 -0.2005  0.2055  0.1044
 1026DOPC   C3B12041   3.281  28.945  11.955  0.0582  0.0237 -0.2664
 1026DOPC   C4B12042   3.719  29.032  12.132 -0.0881  0.1714  0.1279
 1027DOPE   NH312043   0.648  31.142  10.555 -0.2394 -0.1637 -0.1824
 1027DOPE   PO412044   0.850  30.914  10.467  0.1287  0.1571  0.1397
 1027DOPE   GL112045   1.155  31.106  10.676  0.2911  0.2948 -0.1116
 1027DOPE   GL212046   1.079  31.355  10.818  0.2705  0.0219 -0.0546
 1027DOPE   C1A12047   1.450  31.149  11.053  0.0695 -0.1849 -0.2575
 1027DOPE   D2A12048   1.683  30.772  11.233  0.0436 -0.2258  0.0870
 1027DOPE   C3A12049   1.572  30.572  11.625  0.0151 -0.1854  0.0515
 1027DOPE   C4A12050   1.851  30.253  11.801 -0.2939 -0.0803 -0.3348
 1027DOPE   C1B12051   0.955  31.047  11.175 -0.0441 -0.0445  0.1240
 1027DOPE   D2B12052   0.903  30.897  11.640  0.2184  0.3729 -0.4406
 1027DOPE   C3B12053   1.181  30.776  11.968 -0.5265  0.1190  0.3400
 1027DOPE   C4B12054   1.493  30.536  12.153 -0.1112  0.2092 -0.3799
 1028DOPE   NH312055  12.780  33.715  10.683 -0.2128 -0.1781  0.0950
 1028DOPE   PO412056  12.906  33.969  10.524 -0.0186 -0.3984  0.1498
 1028DOPE   GL112057  13.052  34.104  10.869  0.3135 -0.0781 -0.0512
 1028DOPE   GL212058  13.293  34.186  10.826 -0.0733  0.0435  0.2319
 1028DOPE   C1A12059  13.196  33.869  11.256  0.0276 -0.0722 -0.2115
 1028DOPE   D2A12060  13.272  33.506  11.573 -0.5642 -0.0724 -0.0963
 1028DOPE   C3A12061  13.247  33.467  11.978  0.4336 -0.0885  0.0912
 1028DOPE   C4A12062  13.099  33.015  12.160  0.1765  0.4386 -0.0478
 1028DOPE   C1B12063  13.157  34.436  11.189 -0.0460 -0.0337 -0.2647
 1028DOPE   D2B12064  12.823  34.526  11.559  0.3484  0.0992  0.2149
 1028DOPE   C3B12065  12.553  34.121  11.657 -0.0755  0.0363 -0.1651
 1028DOPE   C4B12066  12.109  34.021  11.608 -0.3902  0.1844 -0.2050
 1029DOPE   NH312067   3.550  25.089   9.814 -0.1464  0.0891 -0.0895
 1029DOPE   PO412068   3.419  24.933  10.059 -0.0130 -0.1965  0.2463
 1029DOPE   GL112069   3.381  24.774  10.435  0.0305  0.2129  0.0031
 1029DOPE   GL212070   3.564  24.957  10.566  0.0792 -0.1511  0.3118
 1029DOPE   C1A12071   2.990  24.651  10.730 -0.0685 -0.0191 -0.0864
 1029DOPE   D2A12072   2.648  24.830  11.001 -0.3085  0.0496 -0.1205
 1029DOPE   C3A12073   2.619  24.745  11.461  0.1126  0.2798  0.1301
 1029DOPE   C4A12074   2.490  24.928  11.860  0.1142  0.3660  0.0837
 1029DOPE   C1B12075   3.488  25.183  10.942  0.1618 -0.0963  0.2747
 1029DOPE   D2B12076   3.351  25.460  11.309 -0.0404 -0.0545 -0.1137
 1029DOPE   C3B12077   3.694  25.650  11.492 -0.0727 -0.0611 -0.0128
 1029DOPE   C4B12078   3.990  25.909  11.804  0.1194 -0.0510  0.1803
 1030POSM   NC312079   2.807  31.704  10.322  0.1277  0.1895  0.1681
 1030POSM   PO412080   2.854  31.301  10.376  0.0581  0.1642 -0.0497
 1030POSM   AM112081   2.912  31.396  10.710 -0.3949 -0.0984 -0.2272
 1030POSM   AM212082   2.916  31.709  10.819 -0.1491 -0.3968  0.1617
 1030POSM   T1A12083   2.856  31.260  11.217 -0.3646 -0.2298  0.0081
 1030POSM   C2A12084   2.982  31.406  11.620 -0.0517 -0.1916  0.0343
 1030POSM   C3A12085   3.373  31.361  11.827 -0.1285  0.3493 -0.5159
 1030POSM   C1B12086   3.035  31.721  11.178  0.2170  0.0883  0.0551
 1030POSM   D2B12087   3.172  31.921  11.581 -0.1883 -0.0259 -0.0209
 1030POSM   C3B12088   3.603  31.843  11.811  0.5149 -0.3557  0.0031
 1030POSM   C4B12089   3.691  31.581  12.153  0.2260 -0.0295  0.0005
 1031DOPE   NH312090   7.509  29.269  10.287  0.2192 -0.0363 -0.2074
 1031DOPE   PO412091   7.505  28.938  10.275  0.1546 -0.4635  0.0760
 1031DOPE   GL112092   7.316  28.889  10.558  0.2849  0.3010  0.0139
 1031DOPE   GL212093   7.412  29.121  10.756  0.3061  0.0311  0.0138
 1031DOPE   C1A12094   7.032  28.534  10.768  0.2964 -0.1794 -0.0404
 1031DOPE   D2A12095   6.618  28.512  10.978 -0.0374 -0.1244 -0.0909
 1031DOPE   C3A12096   6.559  28.789  11.312 -0.3559  0.2514 -0.0614
 1031DOPE   C4A12097   6.553  28.987  11.714  0.0825 -0.0875  0.4414
 1031DOPE   C1B12098   7.334  29.328  11.211 -0.2949  0.0447 -0.0134
 1031DOPE   D2B12099   7.254  29.616  11.520  0.3317  0.0430 -0.2026
 1031DOPE   C3B12100   7.173  30.000  11.651  0.1595  0.0346 -0.4392
 1031DOPE   C4B12101   7.007  30.149  12.038  0.1205  0.0740  0.1652
 1032POSM   NC312102   7.132  27.658   9.641  0.2175  0.2926 -0.1223
 1032POSM   PO412103   7.418  27.673   9.884 -0.1108  0.0214  0.0550
 1032POSM   AM112104   7.455  27.709  10.241  0.2458 -0.2164  0.0316
 1032POSM   AM212105   7.275  27.764  10.454 -0.0982 -0.3560 -0.0839
 1032POSM   T1A12106   7.747  27.645  10.674  0.1960  0.0645  0.2450
 1032POSM   C2A12107   7.710  27.782  11.150 -0.3942 -0.0944  0.0384
 1032POSM   C3A12108   7.660  27.577  11.534  0.0035 -0.2685 -0.0235
 1032POSM   C1B12109   7.247  27.816  10.781 -0.3534 -0.2348 -0.0301
 1032POSM   D2B12110   7.193  27.686  11.204 -0.1640  0.1728  0.0446
 1032POSM   C3B12111   6.719  27.618  11.336 -0.0072  0.0742 -0.0105
 1032POSM   C4B12112   6.265  27.666  11.489 -0.2488 -0.0076 -0.2232
 1033POSM   NC312113  33.772  25.255  10.721  0.1328 -0.1996  0.0517
 1033POSM   PO412114  34.008  24.984  10.598  0.1571 -0.0558 -0.0443
 1033POSM   AM112115  34.062  24.887  10.904 -0.1800  0.1823  0.0026
 1033POSM   AM212116  33.948  24.981  11.135 -0.2078 -0.1831 -0.0059
 1033POSM   T1A12117  34.365  24.772  11.298  0.1693 -0.1416 -0.3052
 1033POSM   C2A12118  34.746  24.641  11.555  0.0663  0.1040 -0.0960
 1033POSM   C3A12119  35.069  24.318  11.432 -0.1264 -0.1968  0.3262
 1033POSM   C1B12120  33.962  25.045  11.438  0.4981 -0.1238  0.1067
 1033POSM   D2B12121  33.630  25.105  11.807  0.2980 -0.0057 -0.1153
 1033POSM   C3B12122  33.639  25.428  12.129  0.2572 -0.2408  0.0369
 1033POSM   C4B12123  33.763  25.855  12.330 -0.1200  0.1774 -0.1753
 1034DOPC   NC312124   8.445   0.874  10.513  0.1624 -0.1736  0.0101
 1034DOPC   PO412125   8.728   0.745  10.788  0.0299  0.0370  0.2716
 1034DOPC   GL112126   8.716   0.708  11.178  0.1200 -0.1301 -0.2430
 1034DOPC   GL212127   8.897   0.431  11.185  0.1516  0.4637 -0.0805
 1034DOPC   C1A12128   8.528   0.666  11.599  0.2709  0.3272 -0.3214
 1034DOPC   D2A12129   8.305   0.614  12.011 -0.1112  0.3038  0.2063
 1034DOPC   C3A12130   8.489   0.768  12.403  0.1378  0.0278 -0.1996
 1034DOPC   C4A12131   8.242   0.724  12.818  0.0950 -0.1311 -0.0139
 1034DOPC   C1B12132   8.934   0.363  11.651  0.1396 -0.0275 -0.0071
 1034DOPC   D2B12133   8.845   0.551  12.096 -0.1387 -0.0795 -0.0608
 1034DOPC   C3B12134   8.549   0.176  12.207 -0.0740 -0.2843 -0.2852
 1034DOPC   C4B12135   8.474  -0.253  12.441 -0.1109 -0.1493 -0.0533
 1035DOPC   NC312136   6.716  29.836  10.264  0.0324  0.1460 -0.0173
 1035DOPC   PO412137   7.059  29.586  10.278 -0.0143  0.0343 -0.2414
 1035DOPC   GL112138   7.222  29.761  10.640 -0.0783  0.0182  0.1189
 1035DOPC   GL212139   7.019  29.859  10.766 -0.3462 -0.0357 -0.2255
 1035DOPC   C1A12140   7.472  30.029  10.889  0.1581  0.0665  0.1189
 1035DOPC   D2A12141   7.801  30.027  11.229 -0.0749 -0.3031 -0.0534
 1035DOPC   C3A12142   8.174  30.347  11.062  0.3481  0.0448 -0.3416
 1035DOPC   C4A12143   8.154  30.712  10.773  0.1116 -0.1640 -0.0181
 1035DOPC   C1B12144   6.931  29.956  11.223  0.0514 -0.0897  0.1646
 1035DOPC   D2B12145   6.716  29.834  11.563  0.1290 -0.0193 -0.1798
 1035DOPC   C3B12146   6.505  30.154  11.865  0.1834 -0.2523  0.2025
 1035DOPC   C4B12147   6.378  30.577  11.819 -0.0168 -0.1890  0.0743
 1036DOPC   NC312148   3.599  23.344   9.687 -0.1771  0.0933  0.3920
 1036DOPC   PO412149   3.489  23.634   9.904  0.0390  0.0815 -0.1170
 1036DOPC   GL112150   3.803  23.472  10.158 -0.3168 -0.0103 -0.2153
 1036DOPC   GL212151   3.628  23.542  10.463 -0.0203 -0.1109 -0.1456
 1036DOPC   C1A12152   4.101  23.755  10.319 -0.2018  0.0652 -0.1716
 1036DOPC   D2A12153   4.365  23.841  10.652  0.1741 -0.1561 -0.2950
 1036DOPC   C3A12154   4.267  23.806  11.146  0.0630  0.3867  0.1542
 1036DOPC   C4A12155   4.297  23.672  11.596  0.0420  0.0620 -0.0342
 1036DOPC   C1B12156   3.858  23.786  10.804 -0.1749  0.1964  0.1129
 1036DOPC   D2B12157   4.019  24.241  10.970 -0.0868  0.1646 -0.0778
 1036DOPC   C3B12158   4.218  24.242  11.376 -0.2452 -0.2390 -0.0123
 1036DOPC   C4B12159   4.321  24.164  11.823  0.1320  0.0203  0.0967
 1037DOPE   NH312160   5.686  23.922   9.836 -0.0345 -0.1871 -0.0952
 1037DOPE   PO412161   5.812  23.651   9.820  0.0667 -0.1948 -0.3299
 1037DOPE   GL112162   6.185  23.444  10.095  0.0665 -0.2343  0.1236
 1037DOPE   GL212163   6.058  23.262  10.076  0.0806 -0.1388  0.0297
 1037DOPE   C1A12164   6.487  23.478  10.469 -0.0361 -0.0744 -0.0595
 1037DOPE   D2A12165   6.906  23.689  10.691 -0.0471  0.1650 -0.1119
 1037DOPE   C3A12166   7.291  23.491  10.849 -0.1111  0.0882 -0.0323
 1037DOPE   C4A12167   7.693  23.686  10.973  0.1381  0.0041  0.0796
 1037DOPE   C1B12168   6.055  23.215  10.508 -0.0632 -0.1071  0.3346
 1037DOPE   D2B12169   5.983  23.567  10.756 -0.1997 -0.1496 -0.0557
 1037DOPE   C3B12170   6.387  23.628  11.009 -0.0028 -0.0882  0.1321
 1037DOPE   C4B12171   6.611  23.560  11.409 -0.4361 -0.3680 -0.2422
 1038POSM   NC312172   7.072  22.581   8.779  0.2684  0.0538 -0.1948
 1038POSM   PO412173   7.229  22.280   9.013 -0.3335  0.2290 -0.0399
 1038POSM   AM112174   7.304  22.241   9.322  0.1288 -0.1189 -0.2475
 1038POSM   AM212175   7.489  22.063   9.507 -0.1496  0.4215  0.0265
 1038POSM   T1A12176   7.282  22.395   9.796 -0.1116  0.0596 -0.1771
 1038POSM   C2A12177   7.290  22.417  10.225  0.4673  0.1634 -0.0081
 1038POSM   C3A12178   7.201  22.799  10.420 -0.0036  0.0112 -0.3118
 1038POSM   C1B12179   7.605  21.997   9.821 -0.2624 -0.0978  0.1546
 1038POSM   D2B12180   7.600  21.866  10.254  0.0112  0.3394  0.1107
 1038POSM   C3B12181   7.437  22.074  10.633  0.0075 -0.2579  0.2237
 1038POSM   C4B12182   7.287  22.277  10.967  0.2900  0.2241 -0.5231
 1039DOPE   NH312183   1.666  30.004   9.903  0.0549 -0.1431  0.1196
 1039DOPE   PO412184   1.658  29.721  10.080 -0.0209  0.0675 -0.2555
 1039DOPE   GL112185   1.521  29.614  10.387  0.2987 -0.2868  0.1445
 1039DOPE   GL212186   1.480  29.768  10.563 -0.2821  0.0735  0.2179
 1039DOPE   C1A12187   1.712  29.370  10.799  0.2563 -0.4873 -0.0695
 1039DOPE   D2A12188   1.941  29.431  11.214  0.2787 -0.2264 -0.0604
 1039DOPE   C3A12189   1.948  29.349  11.660 -0.1075 -0.2158  0.0119
 1039DOPE   C4A12190   1.927  29.094  12.041 -0.1033  0.0567 -0.0421
 1039DOPE   C1B12191   1.763  29.893  10.918  0.1266 -0.0462  0.0705
 1039DOPE   D2B12192   1.805  30.020  11.335 -0.2284 -0.0382 -0.2319
 1039DOPE   C3B12193   1.677  29.780  11.746 -0.2319 -0.0255  0.1405
 1039DOPE   C4B12194   1.477  29.355  11.843 -0.1442 -0.0735 -0.0117
 1040DOPC   NC312195  10.429  25.569   9.188  0.1182  0.0613 -0.0955
 1040DOPC   PO412196  10.358  25.255   8.941  0.3178 -0.1060 -0.1221
 1040DOPC   GL112197  10.063  25.183   9.236 -0.1085 -0.1227  0.2841
 1040DOPC   GL212198   9.924  25.401   9.354  0.0366  0.2924 -0.2069
 1040DOPC   C1A12199   9.928  24.948   9.574 -0.2042 -0.1282  0.1159
 1040DOPC   D2A12200   9.881  24.771   9.990 -0.0695 -0.0278 -0.1670
 1040DOPC   C3A12201   9.679  25.029  10.295  0.1479 -0.1131 -0.1973
 1040DOPC   C4A12202   9.558  25.324  10.673 -0.2114 -0.0226  0.0930
 1040DOPC   C1B12203  10.029  25.647   9.641  0.0434 -0.2292 -0.1810
 1040DOPC   D2B12204  10.137  25.794  10.089 -0.0959  0.1893  0.0104
 1040DOPC   C3B12205   9.968  25.606  10.500  0.1733 -0.0327 -0.1284
 1040DOPC   C4B12206   9.791  25.726  10.927  0.2369  0.2043  0.0768
 1041POSM   NC312207  10.793  26.404   9.266  0.4882  0.0458  0.0566
 1041POSM   PO412208  10.421  26.506   9.196 -0.2249  0.0695 -0.1854
 1041POSM   AM112209  10.381  26.431   9.536 -0.1362  0.1843 -0.4503
 1041POSM   AM212210  10.574  26.491   9.729  0.2763 -0.0094  0.4658
 1041POSM   T1A12211  10.321  26.223  10.013  0.1229  0.1471 -0.3220
 1041POSM   C2A12212  10.347  26.104  10.492 -0.0706 -0.0008  0.1218
 1041POSM   C3A12213  10.448  25.666  10.639  0.0147  0.0975 -0.0769
 1041POSM   C1B12214  10.872  26.375   9.804 -0.1897  0.0858  0.2418
 1041POSM   D2B12215  11.182  26.114  10.018  0.0620  0.0471 -0.4352
 1041POSM   C3B12216  11.303  26.261  10.474 -0.1247  0.0657  0.0264
 1041POSM   C4B12217  11.322  25.929  10.801  0.2678  0.0773 -0.2008
 1042DOPE   NH312218   9.982  30.315   9.877  0.1587  0.1592  0.0321
 1042DOPE   PO412219   9.813  30.564   9.950  0.1701 -0.1287 -0.1210
 1042DOPE   GL112220   9.808  30.479  10.260 -0.2865 -0.0310  0.0793
 1042DOPE   GL212221   9.810  30.235  10.440 -0.0633  0.0584  0.1603
 1042DOPE   C1A12222  10.006  30.695  10.612 -0.0446  0.0610  0.1233
 1042DOPE   D2A12223  10.215  30.733  11.068 -0.1716 -0.0641 -0.1941
 1042DOPE   C3A12224  10.297  30.632  11.546 -0.1822  0.3437  0.2454
 1042DOPE   C4A12225  10.725  30.531  11.739 -0.1380 -0.0889  0.1136
 1042DOPE   C1B12226  10.007  30.244  10.849 -0.0315  0.1171 -0.0700
 1042DOPE   D2B12227  10.434  30.286  11.090 -0.2768  0.1316 -0.2642
 1042DOPE   C3B12228  10.688  30.688  11.251  0.1764 -0.2599  0.2710
 1042DOPE   C4B12229  10.857  31.052  11.514 -0.2312 -0.1742 -0.0995
 1043DOPE   NH312230  33.988  28.640  10.946  0.1646 -0.1084 -0.2830
 1043DOPE   PO412231  34.203  28.806  11.070  0.0390  0.2022 -0.1836
 1043DOPE   GL112232  34.191  28.580  11.399 -0.3964  0.2907  0.0890
 1043DOPE   GL212233  33.943  28.602  11.471 -0.1830  0.4138 -0.0241
 1043DOPE   C1A12234  34.335  28.341  11.742 -0.2809  0.2205  0.2025
 1043DOPE   D2A12235  34.474  28.284  12.166  0.2036 -0.0999  0.0283
 1043DOPE   C3A12236  34.861  28.061  12.435  0.1099  0.1302  0.1206
 1043DOPE   C4A12237  35.224  28.210  12.635 -0.1891  0.0630  0.0681
 1043DOPE   C1B12238  34.101  28.703  11.915  0.2812 -0.3278 -0.2740
 1043DOPE   D2B12239  34.027  28.616  12.323  0.1613 -0.0451  0.1587
 1043DOPE   C3B12240  34.491  28.779  12.444  0.0151  0.0110 -0.0237
 1043DOPE   C4B12241  34.865  28.640  12.583  0.1805  0.0882 -0.3405
 1044DOPC   NC312242   2.965  26.240   9.684 -0.1954  0.0720  0.1722
 1044DOPC   PO412243   3.282  26.135   9.810 -0.0834 -0.0740 -0.1712
 1044DOPC   GL112244   3.293  26.158  10.236 -0.1792 -0.0748  0.4058
 1044DOPC   GL212245   3.041  26.360  10.323 -0.0603 -0.1592  0.0122
 1044DOPC   C1A12246   3.716  26.331  10.233  0.1643 -0.2193 -0.0741
 1044DOPC   D2A12247   4.105  26.552  10.321  0.2938  0.1153 -0.1689
 1044DOPC   C3A12248   4.276  26.860  10.686  0.2779 -0.3482  0.0539
 1044DOPC   C4A12249   4.161  26.952  11.062  0.1477  0.0729  0.1125
 1044DOPC   C1B12250   3.341  26.533  10.639  0.1478  0.0898 -0.1166
 1044DOPC   D2B12251   3.663  26.744  10.880  0.0062 -0.1204  0.0360
 1044DOPC   C3B12252   3.844  26.749  11.332 -0.1148 -0.1219 -0.1439
 1044DOPC   C4B12253   3.728  26.883  11.742  0.0083  0.3015  0.0137
 1045DOPE   NH312254   0.475  30.588  10.310  0.1974 -0.0374  0.2660
 1045DOPE   PO412255   0.395  30.647  10.589  0.1969 -0.0328  0.1552
 1045DOPE   GL112256   0.580  30.456  10.862 -0.0516 -0.1688  0.0937
 1045DOPE   GL212257   0.811  30.402  11.017  0.2703 -0.4117 -0.0468
 1045DOPE   C1A12258   0.516  30.513  11.360 -0.0850  0.1600  0.1683
 1045DOPE   D2A12259   0.470  30.389  11.791  0.1320  0.3128  0.4875
 1045DOPE   C3A12260   0.603  30.680  12.080  0.0323 -0.1273  0.0461
 1045DOPE   C4A12261   0.527  30.910  12.494 -0.1896  0.1149 -0.3125
 1045DOPE   C1B12262   1.059  30.478  11.449  0.1689 -0.1332  0.3273
 1045DOPE   D2B12263   0.946  30.324  11.896 -0.0512  0.2147 -0.4105
 1045DOPE   C3B12264   0.708  30.150  12.265 -0.1325  0.0985 -0.0987
 1045DOPE   C4B12265   0.340  29.939  12.454 -0.0140 -0.1741  0.0119
 1046POSM   NC312266  10.877  30.324   9.884 -0.1252  0.0305  0.0094
 1046POSM   PO412267  10.484  30.330   9.844 -0.1176  0.3060 -0.1642
 1046POSM   AM112268  10.525  30.302  10.167  0.0649  0.1620 -0.0187
 1046POSM   AM212269  10.294  30.228  10.310 -0.0371  0.1511 -0.0955
 1046POSM   T1A12270  10.465  30.548  10.607 -0.5004 -0.0897  0.0295
 1046POSM   C2A12271  10.433  30.994  10.721 -0.0130 -0.2203 -0.3020
 1046POSM   C3A12272  10.520  31.144  11.153 -0.0906 -0.0038 -0.0631
 1046POSM   C1B12273  10.416  30.043  10.622 -0.1231 -0.1300 -0.2282
 1046POSM   D2B12274  10.598  29.831  10.954  0.1623  0.0936  0.1706
 1046POSM   C3B12275  10.169  29.765  11.156 -0.0547 -0.0896 -0.1249
 1046POSM   C4B12276   9.896  29.544  11.431  0.0238  0.1428  0.1968
 1047DOPC   NC312277   9.076  31.592   9.868 -0.1440 -0.1441  0.0065
 1047DOPC   PO412278   8.861  31.762  10.166  0.2275 -0.1333  0.0624
 1047DOPC   GL112279   8.845  31.525  10.447  0.1658  0.2346  0.2696
 1047DOPC   GL212280   9.054  31.348  10.470  0.0539  0.4519 -0.1886
 1047DOPC   C1A12281   8.586  31.329  10.727 -0.2910  0.0663  0.0410
 1047DOPC   D2A12282   8.294  31.110  11.026  0.0143 -0.0090  0.3506
 1047DOPC   C3A12283   8.166  31.409  11.347  0.0182 -0.1755 -0.2091
 1047DOPC   C4A12284   8.227  31.592  11.733 -0.0105  0.1300  0.0701
 1047DOPC   C1B12285   9.050  31.504  10.898 -0.1169  0.1816 -0.2029
 1047DOPC   D2B12286   9.129  31.412  11.363  0.1426 -0.2030  0.0421
 1047DOPC   C3B12287   9.341  31.650  11.686  0.0804  0.0566  0.0021
 1047DOPC   C4B12288   9.728  31.871  11.726 -0.0757 -0.0046  0.0200
 1048POSM   NC312289   5.742   0.390  10.053  0.2139 -0.0139 -0.1715
 1048POSM   PO412290   5.603   0.488  10.386  0.1910 -0.3200 -0.1743
 1048POSM   AM112291   5.611   0.448  10.682 -0.1754 -0.0567  0.3680
 1048POSM   AM212292   5.342   0.535  10.820 -0.3675  0.0403  0.1838
 1048POSM   T1A12293   5.863   0.603  11.105 -0.1173 -0.0307 -0.2844
 1048POSM   C2A12294   6.021   0.681  11.547 -0.1009 -0.0339  0.2437
 1048POSM   C3A12295   6.316   0.684  11.939  0.1570  0.0232 -0.1099
 1048POSM   C1B12296   5.308   0.337  11.051  0.0348  0.1368 -0.2858
 1048POSM   D2B12297   5.121  -0.013  11.269  0.0451 -0.2055  0.1100
 1048POSM   C3B12298   5.484  -0.042  11.479  0.1903  0.0157  0.0468
 1048POSM   C4B12299   5.741  -0.179  11.748 -0.4047 -0.0116 -0.0952
 1049DOPE   NH312300   6.230  23.383   9.609  0.2149  0.0032 -0.0844
 1049DOPE   PO412301   6.181  23.108   9.422  0.2477 -0.0387 -0.1878
 1049DOPE   GL112302   6.337  22.946   9.726 -0.1519 -0.4240  0.0805
 1049DOPE   GL212303   6.072  22.848   9.801  0.0454  0.0860 -0.0967
 1049DOPE   C1A12304   6.408  22.988  10.204 -0.2133  0.4057  0.0277
 1049DOPE   D2A12305   6.408  22.853  10.662 -0.4265 -0.4633 -0.3462
 1049DOPE   C3A12306   6.426  22.521  10.961 -0.0010 -0.0744 -0.0735
 1049DOPE   C4A12307   6.818  22.243  11.208 -0.0777 -0.0741  0.0245
 1049DOPE   C1B12308   6.017  22.698  10.245 -0.0026 -0.0832 -0.3318
 1049DOPE   D2B12309   6.007  22.519  10.635 -0.1150 -0.1515 -0.4990
 1049DOPE   C3B12310   6.230  22.080  10.771  0.1546  0.0897 -0.0128
 1049DOPE   C4B12311   6.283  21.744  10.506  0.3125 -0.0055 -0.1067
 1050DOPC   NC312312   8.797  27.178   9.835  0.1609  0.0675  0.2619
 1050DOPC   PO412313   8.662  26.816   9.727  0.0553 -0.3395 -0.2441
 1050DOPC   GL112314   8.873  26.686  10.031  0.1816  0.0715 -0.0250
 1050DOPC   GL212315   9.008  26.789  10.165  0.2012  0.0267 -0.0209
 1050DOPC   C1A12316   8.866  26.230  10.138  0.1065 -0.1401 -0.1725
 1050DOPC   D2A12317   8.927  26.052  10.562  0.0044 -0.2228  0.2996
 1050DOPC   C3A12318   9.100  25.687  10.805 -0.0267  0.1071  0.0554
 1050DOPC   C4A12319   9.287  25.454  11.168 -0.0087 -0.2868  0.3039
 1050DOPC   C1B12320   9.305  26.891  10.570 -0.1182 -0.5070  0.0461
 1050DOPC   D2B12321   9.635  26.911  10.922  0.0307  0.0773 -0.1604
 1050DOPC   C3B12322   9.643  26.551  11.234  0.2053  0.4896 -0.1240
 1050DOPC   C4B12323   9.859  26.247  11.464  0.0090 -0.0126  0.0217
 1051DOPE   NH312324  12.950  24.070   9.348 -0.1530 -0.0301  0.3264
 1051DOPE   PO412325  13.187  24.273   9.336  0.0419  0.0544 -0.2284
 1051DOPE   GL112326  13.243  24.385   9.669  0.2749  0.0825  0.2860
 1051DOPE   GL212327  13.462  24.537   9.791 -0.1728 -0.1325  0.0068
 1051DOPE   C1A12328  13.046  24.343  10.071  0.0702  0.3830 -0.1256
 1051DOPE   D2A12329  12.759  24.162  10.446 -0.2031 -0.0012  0.1494
 1051DOPE   C3A12330  12.951  23.806  10.723 -0.2653 -0.1915  0.3512
 1051DOPE   C4A12331  13.184  23.377  10.878  0.0386 -0.1985  0.0431
 1051DOPE   C1B12332  13.566  24.597  10.291 -0.0380  0.0631  0.0895
 1051DOPE   D2B12333  13.802  24.716  10.643 -0.0323 -0.0248 -0.2327
 1051DOPE   C3B12334  13.488  24.917  10.903  0.2226  0.0245 -0.0393
 1051DOPE   C4B12335  13.323  24.617  11.288  0.2956  0.0898 -0.4256
 1052POSM   NC312336   2.349  25.719  10.188 -0.1883  0.0688 -0.6175
 1052POSM   PO412337   2.281  26.093  10.133  0.0807 -0.1127 -0.0241
 1052POSM   AM112338   2.477  26.176  10.399 -0.2881 -0.2979 -0.3465
 1052POSM   AM212339   2.489  26.345  10.606 -0.3096 -0.0675  0.2052
 1052POSM   T1A12340   2.902  25.984  10.631  0.1024 -0.0204  0.1584
 1052POSM   C2A12341   3.029  26.089  11.062 -0.2063 -0.0410  0.2970
 1052POSM   C3A12342   3.119  25.927  11.455  0.2145  0.1016 -0.1259
 1052POSM   C1B12343   2.574  26.439  10.915  0.2035  0.1900 -0.1439
 1052POSM   D2B12344   2.605  26.367  11.368  0.2567 -0.4083  0.0363
 1052POSM   C3B12345   2.999  26.404  11.517 -0.5143  0.2367 -0.3048
 1052POSM   C4B12346   3.340  26.534  11.811  0.2395 -0.0658 -0.4855
 1053DOPC   NC312347   8.718  28.454  10.009  0.0181  0.0949 -0.1066
 1053DOPC   PO412348   8.745  28.673  10.330  0.0041  0.3470 -0.0386
 1053DOPC   GL112349   8.451  28.760  10.617  0.5823 -0.1305 -0.2408
 1053DOPC   GL212350   8.642  28.882  10.810  0.2705 -0.0699 -0.0636
 1053DOPC   C1A12351   8.232  28.475  10.926  0.1870  0.1853  0.1822
 1053DOPC   D2A12352   7.925  28.234  11.133  0.1362 -0.1824 -0.0693
 1053DOPC   C3A12353   7.703  28.330  11.511 -0.2299 -0.1042 -0.2970
 1053DOPC   C4A12354   7.378  28.587  11.660 -0.0018  0.1872 -0.5229
 1053DOPC   C1B12355   8.357  29.040  11.144  0.0533  0.0445  0.1664
 1053DOPC   D2B12356   7.946  29.233  11.181 -0.0838  0.1578 -0.0119
 1053DOPC   C3B12357   7.593  29.088  11.516  0.3664  0.0565  0.0920
 1053DOPC   C4B12358   7.286  29.133  11.858  0.1171  0.0682 -0.1150
 1054POSM   NC312359  11.783  27.941   9.642 -0.1193  0.1097  0.1950
 1054POSM   PO412360  11.456  28.032   9.861  0.2078 -0.0664 -0.0004
 1054POSM   AM112361  11.510  27.908  10.181 -0.2696  0.0537 -0.0420
 1054POSM   AM212362  11.423  27.654  10.310  0.1697 -0.2845 -0.1476
 1054POSM   T1A12363  11.810  27.916  10.565  0.1603  0.0894  0.0953
 1054POSM   C2A12364  11.965  27.755  10.933 -0.2955  0.2253  0.0953
 1054POSM   C3A12365  12.084  27.918  11.319  0.1663 -0.1465 -0.2262
 1054POSM   C1B12366  11.356  27.654  10.651  0.0388  0.1679 -0.0926
 1054POSM   D2B12367  11.203  27.540  11.072 -0.1186 -0.0960  0.0048
 1054POSM   C3B12368  11.048  27.610  11.537  0.1691  0.2892  0.0484
 1054POSM   C4B12369  11.023  27.718  11.989 -0.0335 -0.3561  0.0141
 1055POSM   NC312370   3.382  31.326  10.487  0.0308 -0.0481  0.0874
 1055POSM   PO412371   3.299  31.698  10.487  0.3224 -0.1945  0.1296
 1055POSM   AM112372   3.342  31.783  10.785  0.2795  0.0920 -0.0496
 1055POSM   AM212373   3.513  31.757  11.034 -0.1093  0.0935 -0.3692
 1055POSM   T1A12374   3.217  32.132  11.144  0.0414 -0.0421  0.4776
 1055POSM   C2A12375   3.154  32.374  11.450  0.0738 -0.2127 -0.0115
 1055POSM   C3A12376   3.164  32.571  11.861 -0.1721  0.0025  0.0399
 1055POSM   C1B12377   3.584  31.879  11.331 -0.0022  0.1838  0.0805
 1055POSM   D2B12378   3.742  32.237  11.603 -0.0104 -0.1293  0.4280
 1055POSM   C3B12379   3.869  32.232  12.052  0.2267 -0.0044 -0.0942
 1055POSM   C4B12380   3.765  32.295  12.529 -0.3963 -0.0447  0.1813
 1056DOPC   NC312381   9.312  25.916   9.546 -0.2034 -0.1738  0.0591
 1056DOPC   PO412382   8.920  26.057   9.525  0.0516 -0.1136  0.0985
 1056DOPC   GL112383   8.871  25.896   9.885  0.3619  0.1873 -0.1213
 1056DOPC   GL212384   9.031  25.622   9.862  0.2080  0.0249 -0.1909
 1056DOPC   C1A12385   8.844  25.627  10.327 -0.0766 -0.0690 -0.0028
 1056DOPC   D2A12386   8.574  25.387  10.555  0.3064  0.5100 -0.4108
 1056DOPC   C3A12387   8.528  24.940  10.497 -0.1003  0.2939  0.1695
 1056DOPC   C4A12388   8.787  24.514  10.588 -0.3695 -0.1123 -0.0646
 1056DOPC   C1B12389   9.265  25.878  10.173  0.0080 -0.1537 -0.1963
 1056DOPC   D2B12390   9.440  25.932  10.593  0.3003 -0.2264  0.1109
 1056DOPC   C3B12391   9.396  26.053  11.046  0.0056  0.2961 -0.1154
 1056DOPC   C4B12392   9.487  25.888  11.442 -0.1471 -0.0583 -0.1028
 1057DOPE   NH312393   1.008  24.105  10.154  0.2638 -0.0501  0.0201
 1057DOPE   PO412394   0.995  24.359  10.325  0.1814  0.0707 -0.2010
 1057DOPE   GL112395   1.155  24.437  10.726  0.2862 -0.0867  0.0890
 1057DOPE   GL212396   1.224  24.703  10.860  0.1039  0.0501  0.4125
 1057DOPE   C1A12397   1.227  24.131  10.986 -0.0422  0.0881  0.1695
 1057DOPE   D2A12398   1.460  23.734  11.144  0.0462 -0.2354  0.0217
 1057DOPE   C3A12399   1.842  23.688  11.453 -0.1185  0.3556 -0.1427
 1057DOPE   C4A12400   2.190  23.951  11.660 -0.1390  0.1251  0.1202
 1057DOPE   C1B12401   1.217  24.561  11.264  0.0717  0.2484 -0.3332
 1057DOPE   D2B12402   1.296  24.351  11.605 -0.1152  0.0599  0.0911
 1057DOPE   C3B12403   1.466  23.956  11.631  0.3585 -0.0438  0.0624
 1057DOPE   C4B12404   1.685  23.723  11.946  0.0732 -0.2676  0.0520
 1058POSM   NC312405   0.784  34.045  10.239 -0.0183 -0.0023 -0.0128
 1058POSM   PO412406   0.621  33.722  10.321  0.1146 -0.0523 -0.2862
 1058POSM   AM112407   0.745  33.677  10.668 -0.2042  0.0910  0.1082
 1058POSM   AM212408   0.732  33.779  10.952  0.0465  0.0815 -0.1166
 1058POSM   T1A12409   0.908  33.381  11.087 -0.2426 -0.0478  0.1041
 1058POSM   C2A12410   1.098  33.328  11.500 -0.1200 -0.0302  0.1632
 1058POSM   C3A12411   1.359  33.143  11.903 -0.1759  0.0512  0.1957
 1058POSM   C1B12412   0.730  34.088  11.105  0.2367  0.0354  0.0758
 1058POSM   D2B12413   1.056  34.316  11.360 -0.2141 -0.1803  0.0816
 1058POSM   C3B12414   1.235  34.069  11.727  0.0685  0.0401  0.1789
 1058POSM   C4B12415   1.454  33.929  12.123 -0.2542  0.0952  0.1514
 1059POSM   NC312416  34.707  25.360  10.119  0.0368  0.0936 -0.2163
 1059POSM   PO412417  34.727  25.033  10.372  0.4246 -0.0324 -0.0676
 1059POSM   AM112418  34.892  24.814  10.560 -0.0343 -0.2914 -0.1513
 1059POSM   AM212419  34.905  24.558  10.705 -0.0284  0.2414 -0.0322
 1059POSM   T1A12420  34.972  24.896  11.055 -0.1636 -0.0499 -0.0024
 1059POSM   C2A12421  35.409  24.988  11.201  0.0730 -0.1778 -0.0526
 1059POSM   C3A12422  35.781  24.910  11.549 -0.1188  0.0073  0.1022
 1059POSM   C1B12423  34.892  24.405  11.006  0.1640  0.0642 -0.0938
 1059POSM   D2B12424  34.567  24.274  11.319 -0.0435  0.0979  0.0099
 1059POSM   C3B12425  34.693  24.215  11.741 -0.2577 -0.0519 -0.0367
 1059POSM   C4B12426  34.883  24.127  12.094 -0.1408  0.1070 -0.0573
 1060DOPS   CNO12427   8.338  28.109  10.203 -0.1027  0.0794  0.1855
 1060DOPS   PO412428   8.288  27.717  10.234 -0.1675 -0.1232  0.0545
 1060DOPS   GL112429   8.390  27.664  10.579  0.3226  0.2474  0.0981
 1060DOPS   GL212430   8.628  27.816  10.583 -0.1594 -0.0501 -0.0828
 1060DOPS   C1A12431   8.404  27.224  10.808  0.3142 -0.0572 -0.3445
 1060DOPS   D2A12432   8.357  27.090  11.241 -0.0528  0.2384  0.1734
 1060DOPS   C3A12433   8.761  26.978  11.476 -0.0757 -0.1027  0.0493
 1060DOPS   C4A12434   9.105  27.011  11.727  0.1424  0.0258  0.1109
 1060DOPS   C1B12435   8.613  27.823  10.977 -0.0370 -0.0882  0.0531
 1060DOPS   D2B12436   8.467  28.076  11.343  0.1938 -0.2856 -0.1031
 1060DOPS   C3B12437   8.933  28.163  11.559 -0.1835  0.2068  0.2394
 1060DOPS   C4B12438   9.280  27.960  11.703  0.2719  0.1415  0.0814
 1061DOPC   NC312439   2.963  32.722  10.436  0.0818 -0.1406 -0.1597
 1061DOPC   PO412440   2.651  32.458  10.497 -0.1593  0.1078  0.3799
 1061DOPC   GL112441   2.800  32.376  10.811 -0.1211 -0.1130 -0.2872
 1061DOPC   GL212442   2.813  32.588  11.010 -0.2357  0.1130  0.0584
 1061DOPC   C1A12443   2.670  32.128  11.231 -0.1270  0.0618  0.0500
 1061DOPC   D2A12444   2.619  31.768  11.597 -0.1202 -0.1553 -0.1127
 1061DOPC   C3A12445   2.896  31.737  12.003 -0.3298 -0.0993 -0.0756
 1061DOPC   C4A12446   2.879  31.308  12.162 -0.0794 -0.3054 -0.1057
 1061DOPC   C1B12447   3.235  32.876  11.140  0.1595  0.0118 -0.2176
 1061DOPC   D2B12448   3.461  32.882  11.542  0.2853 -0.3869  0.3123
 1061DOPC   C3B12449   3.624  32.650  11.907  0.0288  0.0993  0.0358
 1061DOPC   C4B12450   3.879  32.740  12.288 -0.0144 -0.0820 -0.1206
 1062POSM   NC312451  30.885  31.303  12.010  0.1214  0.1235  0.0707
 1062POSM   PO412452  31.086  31.290  11.728 -0.1203  0.2283 -0.2481
 1062POSM   AM112453  31.315  31.522  11.866 -0.0062  0.2107 -0.4607
 1062POSM   AM212454  31.573  31.536  11.990  0.2816  0.0567  0.1753
 1062POSM   T1A12455  31.334  31.997  12.017  0.0849  0.0880 -0.0954
 1062POSM   C2A12456  31.539  32.417  12.017 -0.4401  0.0418  0.1402
 1062POSM   C3A12457  31.764  32.752  12.114  0.0208  0.0106  0.0342
 1062POSM   C1B12458  31.674  31.267  12.186  0.1370 -0.1164  0.1738
 1062POSM   D2B12459  31.738  30.959  12.498 -0.0430 -0.1759  0.1715
 1062POSM   C3B12460  31.999  30.767  12.832  0.0662  0.2063  0.0494
 1062POSM   C4B12461  32.355  30.470  12.795 -0.1257  0.1996  0.3554
 1063DOPE   NH312462   5.255  26.676  10.337  0.2769 -0.1133 -0.2415
 1063DOPE   PO412463   5.484  26.559  10.157 -0.0981 -0.3178 -0.4905
 1063DOPE   GL112464   5.623  26.396  10.478  0.1118  0.0467 -0.1503
 1063DOPE   GL212465   5.581  26.554  10.688  0.0737 -0.3696  0.0732
 1063DOPE   C1A12466   5.852  26.036  10.721 -0.1041 -0.0640 -0.1798
 1063DOPE   D2A12467   5.845  26.008  11.211  0.1725 -0.0723 -0.0585
 1063DOPE   C3A12468   5.860  26.448  11.336 -0.3160  0.1404  0.2286
 1063DOPE   C4A12469   5.781  26.831  11.161  0.2107 -0.3201 -0.0074
 1063DOPE   C1B12470   6.022  26.581  10.826 -0.2062  0.0473 -0.0694
 1063DOPE   D2B12471   6.218  26.260  11.028  0.1987 -0.0555  0.1825
 1063DOPE   C3B12472   6.558  26.286  11.318 -0.0378  0.0187  0.1057
 1063DOPE   C4B12473   6.788  25.924  11.297 -0.0874 -0.2117 -0.1129
 1064POSM   NC312474  34.728  30.453  10.665  0.1101  0.1078  0.2947
 1064POSM   PO412475  34.462  30.734  10.804 -0.2261 -0.0798  0.0312
 1064POSM   AM112476  34.558  30.770  11.100 -0.3138 -0.1252 -0.0929
 1064POSM   AM212477  34.769  30.811  11.246 -0.1484  0.1079 -0.1357
 1064POSM   T1A12478  34.372  30.617  11.551  0.0730 -0.0324  0.0763
 1064POSM   C2A12479  34.258  30.424  11.961 -0.2314  0.1974  0.0019
 1064POSM   C3A12480  34.087  30.197  12.314 -0.2910 -0.3278  0.1283
 1064POSM   C1B12481  34.881  30.694  11.506 -0.0913  0.3969 -0.3210
 1064POSM   D2B12482  34.936  30.795  11.915 -0.0539 -0.0205  0.0379
 1064POSM   C3B12483  35.143  31.122  12.118 -0.0985 -0.0144  0.0908
 1064POSM   C4B12484  35.468  31.441  12.274  0.0813  0.1723 -0.0393
 1065POSM   NC312485   3.513  29.131  10.559 -0.0868  0.0122  0.3206
 1065POSM   PO412486   3.363  29.462  10.493  0.3101 -0.0641  0.4296
 1065POSM   AM112487   3.229  29.492  10.807 -0.3618 -0.4113 -0.1914
 1065POSM   AM212488   3.116  29.331  10.995 -0.0508  0.0587 -0.1300
 1065POSM   T1A12489   3.190  29.907  11.071  0.0564 -0.0235  0.1921
 1065POSM   C2A12490   3.115  30.205  11.406 -0.1167  0.2301 -0.2079
 1065POSM   C3A12491   3.263  30.284  11.784 -0.2751  0.0074  0.0459
 1065POSM   C1B12492   2.886  29.487  11.178  0.1340  0.0564 -0.1528
 1065POSM   D2B12493   2.718  29.621  11.587  0.0288 -0.1901  0.2668
 1065POSM   C3B12494   2.780  30.065  11.740 -0.2075  0.2087 -0.0756
 1065POSM   C4B12495   2.718  30.527  11.565  0.1411 -0.0097 -0.0689
 1066POSM   NC312496   5.780  28.722   9.857 -0.1846 -0.3121 -0.2226
 1066POSM   PO412497   5.406  28.728  10.061  0.1322  0.3613 -0.1912
 1066POSM   AM112498   5.537  28.876  10.346 -0.1389 -0.2372  0.0996
 1066POSM   AM212499   5.388  29.081  10.490 -0.3150 -0.0911  0.1451
 1066POSM   T1A12500   5.689  28.827  10.811  0.1118 -0.1409  0.2789
 1066POSM   C2A12501   5.598  28.957  11.234  0.1453 -0.3182  0.1737
 1066POSM   C3A12502   5.331  29.297  11.414 -0.1485  0.1833 -0.0216
 1066POSM   C1B12503   5.453  29.366  10.666  0.0616 -0.1123 -0.0052
 1066POSM   D2B12504   5.580  29.578  11.052 -0.0253  0.1672  0.3063
 1066POSM   C3B12505   5.838  29.513  11.445 -0.1820 -0.0314 -0.1521
 1066POSM   C4B12506   6.347  29.549  11.479  0.1537 -0.0076  0.0161
 1067DOPS   CNO12507   9.037  28.190  10.359 -0.1386 -0.1071  0.0937
 1067DOPS   PO412508   9.403  28.245  10.277  0.1060  0.4454  0.2619
 1067DOPS   GL112509   9.394  28.236  10.717  0.2155 -0.1124  0.3715
 1067DOPS   GL212510   9.107  28.175  10.817 -0.0668 -0.0091  0.0936
 1067DOPS   C1A12511   9.457  28.210  11.192  0.1220  0.0920 -0.0932
 1067DOPS   D2A12512   9.429  28.461  11.580 -0.1157  0.0665 -0.0813
 1067DOPS   C3A12513   9.080  28.556  11.903  0.1735 -0.0491 -0.2298
 1067DOPS   C4A12514   8.950  28.995  11.922 -0.1174 -0.0628  0.1595
 1067DOPS   C1B12515   8.804  28.439  11.016  0.3023  0.0925 -0.3377
 1067DOPS   D2B12516   8.647  28.611  11.445 -0.0964 -0.0259 -0.1431
 1067DOPS   C3B12517   8.571  28.385  11.812 -0.0246  0.1092  0.1244
 1067DOPS   C4B12518   8.804  28.040  12.006  0.1720  0.1772 -0.1718
 1068POSM   NC312519   7.676  22.053   9.009  0.1768  0.0920 -0.1928
 1068POSM   PO412520   7.747  22.348   9.170 -0.1004  0.2359 -0.1194
 1068POSM   AM112521   7.807  22.454   9.455  0.4801  0.0096  0.0103
 1068POSM   AM212522   7.847  22.427   9.733 -0.0061 -0.0590  0.1112
 1068POSM   T1A12523   7.981  22.882   9.646  0.2204 -0.0089 -0.1802
 1068POSM   C2A12524   7.920  23.267   9.914  0.2203 -0.2063  0.0721
 1068POSM   C3A12525   7.807  23.650   9.671  0.1454  0.1975  0.2177
 1068POSM   C1B12526   7.786  22.427  10.081 -0.2647  0.2903  0.1715
 1068POSM   D2B12527   7.794  22.341  10.525 -0.0361 -0.0085  0.0003
 1068POSM   C3B12528   7.621  22.711  10.719  0.1616 -0.1995  0.2108
 1068POSM   C4B12529   7.259  22.970  10.899 -0.1304 -0.1004  0.1077
 1069DOPE   NH312530  10.542  27.006   9.621 -0.0131 -0.1292  0.2297
 1069DOPE   PO412531  10.732  27.000   9.902  0.1913 -0.1171 -0.0360
 1069DOPE   GL112532  10.916  26.731  10.091  0.1846 -0.1575 -0.3964
 1069DOPE   GL212533  11.212  26.610  10.010  0.0241 -0.0480  0.1867
 1069DOPE   C1A12534  11.012  26.712  10.556 -0.0717 -0.0393  0.1298
 1069DOPE   D2A12535  11.131  26.461  10.930 -0.0672 -0.0603 -0.2306
 1069DOPE   C3A12536  11.587  26.276  11.027 -0.0295 -0.0209 -0.0289
 1069DOPE   C4A12537  11.760  25.930  11.273 -0.3702  0.0242 -0.1606
 1069DOPE   C1B12538  11.505  26.710  10.415 -0.0840 -0.0004 -0.0013
 1069DOPE   D2B12539  11.575  26.729  10.896 -0.0909  0.0654  0.0051
 1069DOPE   C3B12540  11.265  26.834  11.190 -0.4118 -0.1183  0.1700
 1069DOPE   C4B12541  11.028  27.090  11.497  0.3257  0.2156  0.1748
 1070DOPE   NH312542   8.500   0.223  10.759  0.2834  0.0952 -0.2101
 1070DOPE   PO412543   8.308   0.437  10.843 -0.2821  0.4178  0.2475
 1070DOPE   GL112544   8.337   0.519  11.177  0.0177 -0.1614 -0.0999
 1070DOPE   GL212545   8.407   0.229  11.276  0.1847  0.1974  0.1158
 1070DOPE   C1A12546   7.937   0.490  11.432  0.0127 -0.0162  0.1210
 1070DOPE   D2A12547   7.581   0.296  11.687  0.0986 -0.0729 -0.0437
 1070DOPE   C3A12548   7.131   0.324  11.599  0.1695 -0.2423 -0.0315
 1070DOPE   C4A12549   6.774   0.093  11.801 -0.1302  0.0055 -0.1484
 1070DOPE   C1B12550   8.463   0.112  11.696 -0.0171 -0.0035  0.0372
 1070DOPE   D2B12551   8.448  -0.261  11.898  0.1608 -0.0158 -0.1234
 1070DOPE   C3B12552   8.046  -0.366  12.179 -0.1687  0.1269  0.5303
 1070DOPE   C4B12553   7.864  -0.321  12.622  0.0033  0.3631 -0.2260
 1071DOPE   NH312554   4.212  27.979  10.157  0.2183  0.0788  0.3052
 1071DOPE   PO412555   4.478  27.842  10.311  0.2289 -0.4115  0.1282
 1071DOPE   GL112556   4.265  27.764  10.659  0.0929  0.1418 -0.2534
 1071DOPE   GL212557   4.081  28.037  10.648 -0.1577 -0.1183 -0.1710
 1071DOPE   C1A12558   3.908  27.573  10.880 -0.1486 -0.1221 -0.0523
 1071DOPE   D2A12559   3.799  27.243  11.217 -0.0608 -0.2630  0.1924
 1071DOPE   C3A12560   3.482  27.242  11.567  0.1555 -0.1489  0.0595
 1071DOPE   C4A12561   3.180  27.017  11.835  0.0062  0.1186  0.1080
 1071DOPE   C1B12562   4.159  27.999  11.061  0.0645  0.0198  0.0995
 1071DOPE   D2B12563   4.031  27.879  11.445 -0.1420 -0.0686 -0.0299
 1071DOPE   C3B12564   4.187  28.093  11.836  0.3556  0.0369  0.3733
 1071DOPE   C4B12565   4.571  28.229  11.972  0.0591  0.2359 -0.3152
 1072DOPE   NH312566  34.008  26.908  10.530  0.3981  0.2654 -0.0270
 1072DOPE   PO412567  34.063  26.619  10.510  0.0466 -0.0472  0.1219
 1072DOPE   GL112568  33.869  26.686  10.909  0.1730 -0.2601  0.1988
 1072DOPE   GL212569  33.576  26.534  10.822  0.2524 -0.0301 -0.4116
 1072DOPE   C1A12570  34.052  26.828  11.305  0.0875  0.0503  0.2809
 1072DOPE   D2A12571  34.390  26.900  11.596  0.0557 -0.0311  0.2818
 1072DOPE   C3A12572  34.345  26.837  12.064 -0.0512 -0.1017  0.0386
 1072DOPE   C4A12573  34.383  26.556  12.450  0.2480 -0.1060 -0.0963
 1072DOPE   C1B12574  33.798  26.327  11.163  0.0378 -0.3139 -0.1881
 1072DOPE   D2B12575  33.782  26.153  11.595 -0.1834 -0.3320 -0.1155
 1072DOPE   C3B12576  33.465  26.305  11.906 -0.2224 -0.1489  0.0913
 1072DOPE   C4B12577  33.461  26.330  12.393  0.1470 -0.0721  0.2308
 1073POSM   NC312578  33.747  27.899  10.557  0.2130 -0.2226  0.3044
 1073POSM   PO412579  33.727  28.228  10.758  0.0170  0.1661  0.1999
 1073POSM   AM112580  33.792  28.175  11.066 -0.3248 -0.1749  0.3274
 1073POSM   AM212581  33.723  28.136  11.321  0.0669 -0.0240 -0.2717
 1073POSM   T1A12582  34.178  27.936  11.382  0.0055  0.0002 -0.3457
 1073POSM   C2A12583  34.352  27.806  11.809 -0.0634 -0.0313 -0.2180
 1073POSM   C3A12584  34.450  27.750  12.228 -0.1392 -0.0927 -0.4167
 1073POSM   C1B12585  33.751  28.109  11.674 -0.1819 -0.3167 -0.0217
 1073POSM   D2B12586  34.002  28.129  12.112 -0.0482  0.0043 -0.0148
 1073POSM   C3B12587  33.902  28.229  12.509  0.0861 -0.0539 -0.0979
 1073POSM   C4B12588  33.770  28.488  12.887 -0.1541 -0.0351 -0.2379
 1074DOPC   NC312589   9.080  33.384  10.952 -0.2561 -0.2526  0.0186
 1074DOPC   PO412590   8.981  33.067  10.698 -0.0986  0.0826 -0.0307
 1074DOPC   GL112591   9.047  32.984  11.092  0.1436 -0.1272 -0.0213
 1074DOPC   GL212592   9.287  32.865  11.159  0.2103 -0.0622 -0.0113
 1074DOPC   C1A12593   8.911  32.711  11.474 -0.0891 -0.0406 -0.2688
 1074DOPC   D2A12594   8.515  32.504  11.600  0.1908  0.1587  0.0406
 1074DOPC   C3A12595   8.590  32.101  11.860  0.1859 -0.0359  0.2175
 1074DOPC   C4A12596   8.838  32.042  12.238 -0.0053 -0.1199  0.3195
 1074DOPC   C1B12597   9.201  33.107  11.522  0.2095 -0.1707  0.2947
 1074DOPC   D2B12598   9.100  33.008  11.951 -0.0221 -0.2495  0.2164
 1074DOPC   C3B12599   8.801  33.105  12.284 -0.0777  0.1425  0.0561
 1074DOPC   C4B12600   8.452  33.053  12.626 -0.0252  0.2065 -0.0447
 1075DOPC   NC312601   4.598  30.116  10.350 -0.0155 -0.2425  0.0315
 1075DOPC   PO412602   4.386  30.389  10.316  0.1858  0.1696 -0.2248
 1075DOPC   GL112603   4.515  30.525  10.676  0.2706  0.2594  0.1752
 1075DOPC   GL212604   4.443  30.222  10.793 -0.1104  0.0402 -0.1260
 1075DOPC   C1A12605   4.905  30.680  10.910  0.2007 -0.0252  0.0532
 1075DOPC   D2A12606   4.920  30.860  11.305  0.1654  0.3419 -0.2020
 1075DOPC   C3A12607   5.172  31.027  11.669  0.3018 -0.0774  0.1145
 1075DOPC   C4A12608   5.359  30.795  12.020  0.0786 -0.0170 -0.4112
 1075DOPC   C1B12609   4.548  30.401  11.167 -0.2677 -0.1300 -0.2547
 1075DOPC   D2B12610   4.652  30.561  11.628  0.1555  0.1629  0.3013
 1075DOPC   C3B12611   4.369  30.405  11.953 -0.0845  0.1106  0.2466
 1075DOPC   C4B12612   3.964  30.643  12.004  0.2633 -0.1028  0.0629
 1076POSM   NC312613   1.560  27.304   9.400 -0.0658 -0.0157 -0.0371
 1076POSM   PO412614   1.617  27.374   9.793  0.2140  0.0715  0.1381
 1076POSM   AM112615   1.667  27.534  10.083 -0.1845  0.5286 -0.2345
 1076POSM   AM212616   1.595  27.722  10.252  0.1569 -0.0834 -0.2750
 1076POSM   T1A12617   1.933  27.510  10.500  0.3156  0.2601  0.1761
 1076POSM   C2A12618   2.094  27.874  10.778 -0.2209 -0.1000 -0.4246
 1076POSM   C3A12619   2.371  28.271  10.896 -0.0360 -0.0537  0.3041
 1076POSM   C1B12620   1.560  27.922  10.539  0.3386  0.0956  0.2050
 1076POSM   D2B12621   1.582  28.204  10.888 -0.1557 -0.0579  0.2688
 1076POSM   C3B12622   1.141  28.148  10.967 -0.1862 -0.0164 -0.0339
 1076POSM   C4B12623   0.849  28.159  11.332  0.2431  0.1261 -0.3484
 1077POSM   NC312624   8.943  29.961  10.289 -0.1765 -0.0041  0.1350
 1077POSM   PO412625   9.052  29.611  10.287  0.2744 -0.1624 -0.2326
 1077POSM   AM112626   8.931  29.556  10.618 -0.0676  0.2436  0.0355
 1077POSM   AM212627   8.829  29.350  10.773  0.2175  0.0014  0.0775
 1077POSM   T1A12628   9.029  29.705  11.072 -0.0960  0.2559 -0.1451
 1077POSM   C2A12629   9.189  29.850  11.491  0.3123 -0.1336  0.1609
 1077POSM   C3A12630   9.570  29.727  11.731  0.0738 -0.2766  0.3272
 1077POSM   C1B12631   9.004  29.155  10.969 -0.0992 -0.2550 -0.0562
 1077POSM   D2B12632   9.164  28.804  11.242  0.0928  0.0542 -0.1420
 1077POSM   C3B12633   9.385  28.928  11.620  0.0488 -0.1818 -0.0840
 1077POSM   C4B12634   9.428  28.913  12.061  0.1253  0.2044 -0.0194
 1078DOPS   CNO12635   9.537  26.773   9.288  0.0895 -0.0364 -0.3072
 1078DOPS   PO412636   9.445  26.364   9.275 -0.1051  0.1142 -0.1344
 1078DOPS   GL112637   9.579  26.287   9.638  0.5227 -0.2125 -0.0912
 1078DOPS   GL212638   9.891  26.429   9.814  0.0110 -0.1616 -0.2003
 1078DOPS   C1A12639   9.677  25.966   9.935 -0.0109  0.1668  0.0834
 1078DOPS   D2A12640   9.661  25.538  10.143  0.2625  0.1276 -0.2031
 1078DOPS   C3A12641   9.328  25.330  10.191  0.1206  0.1781 -0.0750
 1078DOPS   C4A12642   8.878  25.140  10.213 -0.0989 -0.0325 -0.2694
 1078DOPS   C1B12643   9.875  26.276  10.260 -0.1858  0.0787  0.2020
 1078DOPS   D2B12644   9.903  26.182  10.769 -0.2955  0.0773  0.0179
 1078DOPS   C3B12645  10.206  26.135  11.120  0.0465 -0.2480  0.1128
 1078DOPS   C4B12646  10.429  25.887  11.501 -0.1024  0.3121  0.0845
 1079DOPE   NH312647   9.316  30.613   9.800  0.0226  0.1709 -0.2153
 1079DOPE   PO412648   9.394  30.869   9.950 -0.0331 -0.2983 -0.0707
 1079DOPE   GL112649   9.328  30.775  10.358 -0.0206  0.0919  0.1238
 1079DOPE   GL212650   9.547  30.706  10.518 -0.1256 -0.1572  0.1752
 1079DOPE   C1A12651   9.102  30.947  10.727  0.2114 -0.1046 -0.0791
 1079DOPE   D2A12652   8.853  31.038  11.087 -0.1292 -0.2196  0.2942
 1079DOPE   C3A12653   8.936  30.699  11.436 -0.1084  0.1449 -0.3906
 1079DOPE   C4A12654   9.069  30.649  11.928 -0.2589  0.1267 -0.0861
 1079DOPE   C1B12655   9.681  30.721  10.967 -0.0744  0.1360  0.3242
 1079DOPE   D2B12656   9.813  30.677  11.388  0.1793 -0.2680  0.1140
 1079DOPE   C3B12657   9.900  30.898  11.747 -0.2788 -0.0790  0.0089
 1079DOPE   C4B12658   9.979  31.002  12.224 -0.0745  0.0771 -0.0469
 1080DOPC   NC312659   7.396  28.265  10.357  0.3872  0.1501 -0.1909
 1080DOPC   PO412660   7.673  28.437  10.212 -0.0399  0.1043 -0.1769
 1080DOPC   GL112661   7.850  28.433  10.557  0.2832 -0.1472  0.0707
 1080DOPC   GL212662   8.051  28.225  10.585 -0.0428 -0.1240 -0.0993
 1080DOPC   C1A12663   7.522  28.293  10.810  0.0524 -0.0053 -0.0901
 1080DOPC   D2A12664   7.404  28.119  11.233  0.2004  0.2659  0.3443
 1080DOPC   C3A12665   7.378  28.063  11.735  0.5319 -0.2509  0.1842
 1080DOPC   C4A12666   7.683  28.248  12.024 -0.1355 -0.1240  0.0863
 1080DOPC   C1B12667   8.115  27.884  10.878  0.1441 -0.2024  0.0828
 1080DOPC   D2B12668   8.223  27.588  11.214 -0.0155 -0.0384 -0.0493
 1080DOPC   C3B12669   8.081  27.734  11.631  0.3540  0.0753  0.0569
 1080DOPC   C4B12670   8.319  27.687  12.036 -0.2905 -0.0683 -0.1135
 1081DOPC   NC312671   5.242  28.551  10.513  0.2421 -0.4110  0.0924
 1081DOPC   PO412672   5.267  28.151  10.479  0.0587 -0.0584 -0.0075
 1081DOPC   GL112673   5.427  28.197  10.849  0.1466 -0.0807  0.0545
 1081DOPC   GL212674   5.541  27.997  11.021 -0.1668 -0.2733 -0.0666
 1081DOPC   C1A12675   5.568  28.437  11.255 -0.0600 -0.3442  0.1655
 1081DOPC   D2A12676   5.714  28.504  11.707  0.1480 -0.1828 -0.1141
 1081DOPC   C3A12677   5.559  28.998  11.766 -0.0115  0.0357 -0.5046
 1081DOPC   C4A12678   5.238  29.217  12.007 -0.2646  0.2887  0.2482
 1081DOPC   C1B12679   5.872  28.022  11.386 -0.3812  0.1071  0.1450
 1081DOPC   D2B12680   6.080  28.062  11.796 -0.0838 -0.1430  0.1770
 1081DOPC   C3B12681   6.156  28.088  12.225  0.0984 -0.1571 -0.1651
 1081DOPC   C4B12682   6.234  28.266  12.658 -0.2993  0.1256  0.1533
 1082DOPC   NC312683   6.507  32.063  10.254 -0.1625  0.0656  0.2187
 1082DOPC   PO412684   6.859  32.034  10.410 -0.0103 -0.3565  0.0408
 1082DOPC   GL112685   6.852  31.941  10.847  0.4068  0.0295 -0.0971
 1082DOPC   GL212686   6.939  32.153  10.995  0.1477  0.0462  0.2448
 1082DOPC   C1A12687   6.641  31.918  11.296  0.1063 -0.1593 -0.3927
 1082DOPC   D2A12688   6.262  31.822  11.517 -0.0926 -0.0065 -0.2415
 1082DOPC   C3A12689   6.158  31.401  11.653  0.1943  0.0245  0.0322
 1082DOPC   C4A12690   6.084  30.954  11.443  0.0020 -0.1645 -0.0876
 1082DOPC   C1B12691   7.057  32.161  11.452  0.1167  0.0157  0.0155
 1082DOPC   D2B12692   7.153  32.077  11.884  0.2151  0.1176  0.1334
 1082DOPC   C3B12693   7.585  32.119  12.118  0.1308 -0.0400  0.2807
 1082DOPC   C4B12694   7.902  32.123  12.449 -0.0030 -0.0370  0.2906
 1083DOPE   NH312695   8.053  26.548   9.407 -0.2425  0.0697 -0.0312
 1083DOPE   PO412696   7.794  26.673   9.495  0.0103 -0.1171 -0.0496
 1083DOPE   GL112697   7.924  26.706   9.921 -0.1751  0.3177  0.3304
 1083DOPE   GL212698   8.162  26.710   9.851 -0.0934 -0.0369 -0.0151
 1083DOPE   C1A12699   7.836  26.453  10.277 -0.2108 -0.0077  0.3962
 1083DOPE   D2A12700   8.032  26.443  10.709 -0.2426 -0.0173  0.1299
 1083DOPE   C3A12701   8.264  26.763  10.896  0.2015 -0.2640  0.1874
 1083DOPE   C4A12702   8.734  26.815  11.032 -0.2360  0.0029  0.0250
 1083DOPE   C1B12703   8.306  26.452  10.199 -0.0449 -0.1025  0.0299
 1083DOPE   D2B12704   8.448  26.057  10.397  0.2159  0.0921  0.0368
 1083DOPE   C3B12705   8.525  25.832  10.791  0.1704 -0.2124 -0.2962
 1083DOPE   C4B12706   8.697  25.473  11.015 -0.0665 -0.0605 -0.1155
 1084DOPC   NC312707  12.034  30.785  10.340 -0.0636  0.2982  0.3247
 1084DOPC   PO412708  12.241  30.488  10.441  0.0506  0.1988  0.1039
 1084DOPC   GL112709  12.321  30.536  10.923  0.3117 -0.0341  0.2145
 1084DOPC   GL212710  12.592  30.565  10.955 -0.0575  0.1059 -0.0600
 1084DOPC   C1A12711  12.457  30.251  11.278 -0.3028  0.1691 -0.0834
 1084DOPC   D2A12712  12.729  29.943  11.499  0.0966 -0.0261  0.1886
 1084DOPC   C3A12713  12.749  29.922  11.955  0.1543 -0.0767 -0.0300
 1084DOPC   C4A12714  12.998  29.671  12.297  0.3213  0.2090 -0.2447
 1084DOPC   C1B12715  12.397  30.737  11.287  0.1034  0.2227  0.1972
 1084DOPC   D2B12716  12.192  30.769  11.642  0.0204  0.0063 -0.2421
 1084DOPC   C3B12717  12.458  30.823  11.995 -0.1480 -0.1021 -0.1210
 1084DOPC   C4B12718  12.764  31.086  12.239 -0.0870  0.0254  0.1601
 1085POSM   NC312719   1.979  26.333  10.403  0.1709 -0.0602 -0.0898
 1085POSM   PO412720   2.195  26.623  10.221 -0.1118 -0.0187  0.1353
 1085POSM   AM112721   2.167  26.722  10.543 -0.0602 -0.0243 -0.0365
 1085POSM   AM212722   2.089  26.618  10.774  0.0878 -0.0925 -0.1285
 1085POSM   T1A12723   1.921  27.101  10.847 -0.1183 -0.2075  0.1936
 1085POSM   C2A12724   1.779  27.475  11.051 -0.0967  0.0688  0.3059
 1085POSM   C3A12725   2.012  27.773  11.361  0.3649  0.2041  0.3390
 1085POSM   C1B12726   2.099  26.697  11.118 -0.4113 -0.1403  0.4776
 1085POSM   D2B12727   2.276  26.723  11.525  0.1886  0.5111  0.0076
 1085POSM   C3B12728   2.718  26.665  11.784 -0.5401  0.0756 -0.0087
 1085POSM   C4B12729   2.981  26.749  12.239  0.1472  0.1316  0.2475
 1086DOPS   CNO12730   3.312  22.569   9.707 -0.0542 -0.3011  0.1131
 1086DOPS   PO412731   3.184  22.224   9.762  0.1460  0.3010 -0.0247
 1086DOPS   GL112732   3.313  22.235  10.141 -0.0108 -0.2951 -0.2325
 1086DOPS   GL212733   3.217  22.440  10.304  0.0797  0.0401 -0.2063
 1086DOPS   C1A12734   3.532  22.071  10.482  0.2258  0.0656 -0.2847
 1086DOPS   D2A12735   3.645  22.079  10.937 -0.1730 -0.2403  0.1604
 1086DOPS   C3A12736   3.898  22.440  11.116 -0.0350 -0.1376 -0.1403
 1086DOPS   C4A12737   3.986  22.762  11.410  0.2152  0.0644 -0.0459
 1086DOPS   C1B12738   3.492  22.588  10.634 -0.1155  0.0480 -0.1269
 1086DOPS   D2B12739   3.592  22.828  11.028  0.0837  0.0822  0.0184
 1086DOPS   C3B12740   3.509  22.741  11.464 -0.0370 -0.0598  0.3961
 1086DOPS   C4B12741   3.235  22.540  11.824 -0.1766 -0.0264  0.1951
 1087DOPE   NH312742   3.196  29.925  10.432 -0.2029 -0.0552  0.0661
 1087DOPE   PO412743   3.436  30.137  10.309  0.2447 -0.2212 -0.0290
 1087DOPE   GL112744   3.347  30.316  10.734  0.1929 -0.0346 -0.3363
 1087DOPE   GL212745   3.510  30.362  10.905  0.0422 -0.0599  0.0650
 1087DOPE   C1A12746   2.938  30.376  10.956 -0.1769  0.1982 -0.2833
 1087DOPE   D2A12747   2.854  30.789  11.152  0.1280 -0.0132  0.0382
 1087DOPE   C3A12748   2.697  30.984  11.562  0.0062 -0.0771  0.3056
 1087DOPE   C4A12749   2.464  31.282  11.889  0.0944 -0.0212 -0.1991
 1087DOPE   C1B12750   3.618  30.128  11.196 -0.2830  0.3656 -0.0967
 1087DOPE   D2B12751   3.956  29.935  11.434 -0.0119 -0.4011 -0.1379
 1087DOPE   C3B12752   3.854  30.011  11.894 -0.0751  0.1342 -0.3215
 1087DOPE   C4B12753   3.590  30.115  12.293 -0.0206 -0.0024 -0.1253
 1088POSM   NC312754  31.819  24.737  11.598  0.2219  0.0440 -0.1202
 1088POSM   PO412755  31.848  25.126  11.457 -0.0275  0.1867  0.1330
 1088POSM   AM112756  31.587  25.151  11.672  0.1093  0.0714  0.0742
 1088POSM   AM212757  31.312  25.142  11.746 -0.0030 -0.3261  0.0982
 1088POSM   T1A12758  31.609  25.079  12.148  0.0894  0.1760 -0.2556
 1088POSM   C2A12759  31.437  25.016  12.526  0.0719  0.0584 -0.4129
 1088POSM   C3A12760  31.397  24.784  12.956 -0.1531  0.0808 -0.2440
 1088POSM   C1B12761  31.304  25.449  11.984  0.0804  0.1683 -0.2459
 1088POSM   D2B12762  31.428  25.820  12.123  0.1985 -0.0156 -0.0808
 1088POSM   C3B12763  31.716  25.845  12.515 -0.1321 -0.0125 -0.0907
 1088POSM   C4B12764  31.680  25.684  12.979  0.3062  0.0157  0.0729
 1089DOPC   NC312765   1.569  25.909  10.561  0.1418  0.1951 -0.1409
 1089DOPC   PO412766   1.849  25.751  10.325 -0.0542 -0.1857 -0.2960
 1089DOPC   GL112767   2.137  25.921  10.566  0.2246 -0.1375  0.3200
 1089DOPC   GL212768   2.075  26.039  10.830 -0.1440  0.1320 -0.2448
 1089DOPC   C1A12769   2.469  25.854  10.940  0.1566  0.0444  0.0949
 1089DOPC   D2A12770   2.819  25.654  11.062 -0.1744 -0.3772 -0.3776
 1089DOPC   C3A12771   3.224  25.633  10.883 -0.0287  0.0155  0.0258
 1089DOPC   C4A12772   3.688  25.650  10.821 -0.0137 -0.5253  0.3333
 1089DOPC   C1B12773   2.150  26.152  11.267  0.1075 -0.0004 -0.2004
 1089DOPC   D2B12774   2.218  26.231  11.734  0.3327  0.3022 -0.0155
 1089DOPC   C3B12775   1.764  26.145  11.839 -0.2981 -0.1453 -0.1585
 1089DOPC   C4B12776   1.320  26.090  11.989 -0.0871 -0.2322  0.1926
 1090DOPS   CNO12777   2.830  22.598   9.898  0.1259  0.0599 -0.1744
 1090DOPS   PO412778   2.985  22.864  10.100  0.0305 -0.1876 -0.2252
 1090DOPS   GL112779   3.258  22.879  10.437  0.3394 -0.0765  0.1649
 1090DOPS   GL212780   3.012  22.768  10.601 -0.0017 -0.1701  0.1499
 1090DOPS   C1A12781   3.253  23.267  10.671 -0.0929  0.2267 -0.2093
 1090DOPS   D2A12782   3.664  23.352  10.883 -0.0021  0.0481 -0.4725
 1090DOPS   C3A12783   3.609  23.237  11.315 -0.0666 -0.0661  0.1501
 1090DOPS   C4A12784   3.691  23.106  11.738  0.3085 -0.2598 -0.0354
 1090DOPS   C1B12785   3.006  22.825  11.082 -0.0012 -0.1005  0.0412
 1090DOPS   D2B12786   2.913  22.785  11.540 -0.1733 -0.3505 -0.0171
 1090DOPS   C3B12787   3.109  23.185  11.645 -0.2526 -0.0515 -0.0638
 1090DOPS   C4B12788   3.408  23.556  11.623  0.3825 -0.0289  0.0887
 1091DOPC   NC312789   1.123  25.707  10.833  0.2148 -0.3033 -0.2544
 1091DOPC   PO412790   1.151  26.105  10.743  0.3338 -0.5094 -0.1375
 1091DOPC   GL112791   1.376  26.155  11.093 -0.0086  0.1329  0.1502
 1091DOPC   GL212792   1.590  25.946  11.041 -0.0570  0.2873 -0.1860
 1091DOPC   C1A12793   1.331  26.379  11.495  0.0214  0.0851 -0.2297
 1091DOPC   D2A12794   1.149  26.764  11.673  0.3491  0.0960  0.1801
 1091DOPC   C3A12795   1.168  26.618  12.111  0.1333  0.1313 -0.2239
 1091DOPC   C4A12796   0.820  26.397  12.340 -0.1961  0.1487  0.4014
 1091DOPC   C1B12797   1.701  25.788  11.515  0.1651 -0.3600 -0.0768
 1091DOPC   D2B12798   1.716  25.617  11.967 -0.3668 -0.0646 -0.0911
 1091DOPC   C3B12799   1.802  25.913  12.380 -0.2591 -0.0589  0.4359
 1091DOPC   C4B12800   1.527  26.055  12.778 -0.0519  0.0941  0.0896
 1092DOPC   NC312801   4.182  24.802   9.606 -0.0479  0.1469 -0.1973
 1092DOPC   PO412802   4.064  25.002   9.954 -0.1290  0.1573  0.4111
 1092DOPC   GL112803   4.218  25.109  10.272  0.2052  0.0039 -0.1070
 1092DOPC   GL212804   4.363  24.923  10.416  0.2246  0.2138  0.0933
 1092DOPC   C1A12805   4.043  25.232  10.726  0.0589  0.0179 -0.0605
 1092DOPC   D2A12806   3.977  25.193  11.135  0.0798 -0.2234  0.0678
 1092DOPC   C3A12807   4.272  24.903  11.356  0.0083  0.1827  0.1331
 1092DOPC   C4A12808   4.443  24.632  11.681 -0.1621  0.0717 -0.2986
 1092DOPC   C1B12809   4.007  24.745  10.610  0.0216  0.2908  0.0175
 1092DOPC   D2B12810   3.659  24.490  10.771 -0.3568 -0.2659 -0.1882
 1092DOPC   C3B12811   3.494  24.663  11.148  0.1379  0.2299 -0.0047
 1092DOPC   C4B12812   3.087  24.664  11.339 -0.3233  0.0960 -0.0031
 1093DOPE   NH312813   6.984  26.724   9.726 -0.1895 -0.0505 -0.1649
 1093DOPE   PO412814   6.906  26.411   9.774 -0.1868  0.0670 -0.0576
 1093DOPE   GL112815   6.888  26.235  10.148  0.0271 -0.1979  0.1534
 1093DOPE   GL212816   7.058  26.006  10.081 -0.4257 -0.0960  0.2593
 1093DOPE   C1A12817   6.987  26.084  10.600  0.2442 -0.1229 -0.0250
 1093DOPE   D2A12818   6.956  25.690  10.876  0.0665  0.0579  0.0335
 1093DOPE   C3A12819   7.274  25.584  11.218  0.0560  0.1036 -0.2198
 1093DOPE   C4A12820   7.573  25.451  11.612 -0.0778  0.1002  0.0020
 1093DOPE   C1B12821   7.230  25.719  10.395  0.2078 -0.2346  0.1050
 1093DOPE   D2B12822   7.183  25.316  10.536 -0.0686 -0.0917 -0.0109
 1093DOPE   C3B12823   6.935  25.209  10.910  0.1692 -0.0722  0.1489
 1093DOPE   C4B12824   6.742  25.417  11.308 -0.0594 -0.0303 -0.2311
 1094DOPC   NC312825   0.821  24.903  10.651  0.0552 -0.0851 -0.5395
 1094DOPC   PO412826   1.014  25.197  10.636  0.2974  0.0230  0.0381
 1094DOPC   GL112827   1.342  25.156  10.920  0.4195 -0.2075 -0.2180
 1094DOPC   GL212828   1.199  25.179  11.157  0.0301  0.3457 -0.0890
 1094DOPC   C1A12829   1.579  24.880  11.223  0.0788  0.1318 -0.0247
 1094DOPC   D2A12830   1.605  24.794  11.696 -0.0212  0.2606 -0.1749
 1094DOPC   C3A12831   1.404  24.595  12.091  0.1716  0.0292  0.0018
 1094DOPC   C4A12832   1.380  24.149  12.160  0.1931 -0.0472  0.1194
 1094DOPC   C1B12833   1.546  25.417  11.300 -0.3932  0.0668 -0.0448
 1094DOPC   D2B12834   1.945  25.293  11.470  0.2341 -0.0316  0.1666
 1094DOPC   C3B12835   2.075  25.290  11.921 -0.3449  0.1538 -0.2362
 1094DOPC   C4B12836   2.348  25.307  12.302  0.0204  0.1492  0.0815
 1095DOPC   NC312837   6.918  30.894  10.518 -0.3717  0.0691  0.1292
 1095DOPC   PO412838   7.042  31.153  10.262 -0.0632 -0.0737  0.0818
 1095DOPC   GL112839   6.932  31.459  10.546  0.2504  0.2447 -0.1344
 1095DOPC   GL212840   7.162  31.299  10.719  0.0226 -0.1245  0.1602
 1095DOPC   C1A12841   6.724  31.346  10.908  0.1219  0.0629 -0.2464
 1095DOPC   D2A12842   6.466  31.287  11.249  0.0962  0.1394 -0.0336
 1095DOPC   C3A12843   6.786  31.489  11.526 -0.0487 -0.0642  0.0369
 1095DOPC   C4A12844   6.703  31.904  11.798 -0.0421  0.0188  0.0911
 1095DOPC   C1B12845   7.166  31.304  11.173  0.1975 -0.0967 -0.0598
 1095DOPC   D2B12846   7.031  31.098  11.580  0.0282  0.0541  0.0529
 1095DOPC   C3B12847   6.614  30.993  11.669  0.0579  0.1407 -0.2919
 1095DOPC   C4B12848   6.209  31.119  12.033 -0.1122 -0.1415 -0.0974
 1096POSM   NC312849   3.403  32.502  10.326 -0.0277  0.2481 -0.1869
 1096POSM   PO412850   3.771  32.559  10.335  0.0603  0.0074 -0.1927
 1096POSM   AM112851   3.766  32.533  10.673 -0.4883 -0.2561  0.2563
 1096POSM   AM212852   3.754  32.308  10.792 -0.0509  0.0204 -0.0941
 1096POSM   T1A12853   3.673  32.618  11.203  0.2489  0.1082  0.3742
 1096POSM   C2A12854   4.003  32.833  11.477 -0.2418  0.0574 -0.0829
 1096POSM   C3A12855   4.249  33.170  11.281 -0.2274  0.0389  0.1242
 1096POSM   C1B12856   3.954  32.136  11.047 -0.1114 -0.0897  0.1919
 1096POSM   D2B12857   4.024  31.732  11.291  0.1027 -0.0719  0.2256
 1096POSM   C3B12858   4.428  31.530  11.348  0.3478  0.0441 -0.0344
 1096POSM   C4B12859   4.878  31.405  11.498  0.2314 -0.2250 -0.0098
 1097DOPE   NH312860   4.497  28.825  10.152 -0.3873  0.2205 -0.0557
 1097DOPE   PO412861   4.480  29.045  10.396 -0.0319  0.0965  0.1322
 1097DOPE   GL112862   4.669  29.144  10.698  0.0845  0.1163 -0.2320
 1097DOPE   GL212863   4.844  29.354  10.622 -0.0171 -0.1236  0.3652
 1097DOPE   C1A12864   4.622  29.425  11.115 -0.1267  0.0832  0.1104
 1097DOPE   D2A12865   4.863  29.484  11.482 -0.2886  0.2592  0.1000
 1097DOPE   C3A12866   5.089  29.722  11.762 -0.0649  0.0330 -0.0417
 1097DOPE   C4A12867   5.507  29.687  11.894  0.0686  0.0743  0.0426
 1097DOPE   C1B12868   5.092  29.116  10.954  0.0350 -0.4087  0.0314
 1097DOPE   D2B12869   5.178  28.657  11.017 -0.0215 -0.0163  0.1222
 1097DOPE   C3B12870   4.789  28.548  11.249 -0.2194 -0.0176  0.1691
 1097DOPE   C4B12871   4.606  28.636  11.640 -0.1559 -0.1674 -0.1243
 1098DOPS   CNO12872   2.874  24.990   9.874 -0.2676  0.0522  0.0212
 1098DOPS   PO412873   2.936  25.370   9.970 -0.1697 -0.1594 -0.2102
 1098DOPS   GL112874   2.939  25.129  10.346  0.0590  0.0310  0.0201
 1098DOPS   GL212875   3.200  25.279  10.374  0.0171  0.0024  0.0544
 1098DOPS   C1A12876   2.924  25.228  10.792  0.2156  0.2227  0.2108
 1098DOPS   D2A12877   3.016  25.117  11.254  0.0562  0.1232 -0.2107
 1098DOPS   C3A12878   3.128  25.143  11.709 -0.0032 -0.0876 -0.0412
 1098DOPS   C4A12879   2.943  25.221  12.165  0.0566 -0.2195  0.0865
 1098DOPS   C1B12880   3.288  25.723  10.415  0.0075 -0.0507 -0.2104
 1098DOPS   D2B12881   3.433  26.073  10.658  0.0436 -0.1611  0.0361
 1098DOPS   C3B12882   3.868  26.143  10.731 -0.0710 -0.0784  0.0126
 1098DOPS   C4B12883   4.108  26.465  10.921 -0.0597  0.1079  0.2354
 1099DOPC   NC312884   3.225  34.155  10.385  0.1933  0.2717 -0.2550
 1099DOPC   PO412885   3.074  34.516  10.319  0.0244 -0.0555  0.0112
 1099DOPC   GL112886   3.248  34.788  10.662  0.0806  0.1907 -0.3137
 1099DOPC   GL212887   3.126  35.023  10.783 -0.0526  0.1776  0.0357
 1099DOPC   C1A12888   3.363  34.810  11.164  0.0727  0.1435 -0.2547
 1099DOPC   D2A12889   3.393  35.047  11.572  0.3825 -0.0888  0.1270
 1099DOPC   C3A12890   3.471  35.397  11.902 -0.1028 -0.3106  0.2014
 1099DOPC   C4A12891   3.375  35.346  12.370 -0.0984  0.2515  0.0167
 1099DOPC   C1B12892   2.977  35.143  11.241  0.0138  0.2726 -0.0529
 1099DOPC   D2B12893   2.560  35.038  11.477  0.2064 -0.2321 -0.2199
 1099DOPC   C3B12894   2.294  35.309  11.692  0.2065 -0.0310 -0.3610
 1099DOPC   C4B12895   2.139  35.684  11.969 -0.0909  0.0058 -0.2200
 1100DOPE   NH312896  33.228  28.690  11.131  0.1323 -0.0070  0.2097
 1100DOPE   PO412897  33.510  28.584  11.113 -0.0572  0.2097 -0.1017
 1100DOPE   GL112898  33.476  28.601  11.531 -0.0263 -0.0499 -0.2391
 1100DOPE   GL212899  33.239  28.363  11.560 -0.1735 -0.1408 -0.0582
 1100DOPE   C1A12900  33.590  28.540  11.969 -0.1768 -0.0583  0.1475
 1100DOPE   D2A12901  33.500  28.654  12.397  0.0529  0.0322  0.1605
 1100DOPE   C3A12902  33.547  29.027  12.676 -0.0057 -0.1368 -0.0938
 1100DOPE   C4A12903  33.627  29.165  13.085  0.2969 -0.1644  0.0254
 1100DOPE   C1B12904  32.987  28.176  11.936  0.3545 -0.1356  0.0551
 1100DOPE   D2B12905  32.879  27.907  12.306 -0.0275 -0.0622 -0.3467
 1100DOPE   C3B12906  32.700  27.538  12.585  0.1451 -0.1208  0.1328
 1100DOPE   C4B12907  32.789  27.138  12.911  0.0286 -0.0037 -0.1013
 1101DOPE   NH312908   3.475  27.771  10.232  0.1607 -0.0518  0.0730
 1101DOPE   PO412909   3.427  27.442  10.210  0.0250  0.1793 -0.3585
 1101DOPE   GL112910   3.272  27.351  10.523  0.2046 -0.0796 -0.3081
 1101DOPE   GL212911   3.448  27.476  10.695  0.1118  0.0091  0.1577
 1101DOPE   C1A12912   3.287  27.038  10.921 -0.0487 -0.1563 -0.3232
 1101DOPE   D2A12913   3.355  26.823  11.353  0.2029  0.0350 -0.2238
 1101DOPE   C3A12914   3.455  26.395  11.212 -0.0071  0.0403  0.2079
 1101DOPE   C4A12915   3.520  25.958  11.167 -0.0464 -0.0183  0.1351
 1101DOPE   C1B12916   3.344  27.483  11.136 -0.1547 -0.0928  0.2236
 1101DOPE   D2B12917   3.023  27.722  11.333  0.1385 -0.0571 -0.0106
 1101DOPE   C3B12918   2.949  28.040  11.706  0.0804 -0.1098 -0.0489
 1101DOPE   C4B12919   3.030  28.363  12.044 -0.0061  0.0753  0.0478
 1102POSM   NC312920   8.051  32.927  10.822 -0.5323  0.2503  0.0488
 1102POSM   PO412921   8.310  32.688  10.611  0.4896 -0.6684 -0.0232
 1102POSM   AM112922   8.455  32.649  10.912  0.0564 -0.2328 -0.1680
 1102POSM   AM212923   8.663  32.772  11.028  0.1069 -0.0397 -0.1366
 1102POSM   T1A12924   8.686  32.293  11.206  0.1855  0.2419 -0.1592
 1102POSM   C2A12925   8.952  31.941  11.456 -0.0094  0.0208 -0.0038
 1102POSM   C3A12926   8.802  31.592  11.795 -0.0343 -0.1420 -0.0727
 1102POSM   C1B12927   8.437  32.894  11.276 -0.1497  0.0791  0.0913
 1102POSM   D2B12928   8.216  33.001  11.698  0.2635  0.2763 -0.0586
 1102POSM   C3B12929   8.057  32.666  11.939  0.0688 -0.1487 -0.3282
 1102POSM   C4B12930   8.263  32.326  12.194  0.0624  0.2996  0.0858
 1103POSM   NC312931   8.689  32.271  10.203 -0.0172 -0.0033  0.1108
 1103POSM   PO412932   8.757  32.405  10.552 -0.1896  0.2113 -0.2256
 1103POSM   AM112933   8.878  32.140  10.661 -0.2147 -0.1914  0.0766
 1103POSM   AM212934   9.063  31.924  10.594 -0.0922 -0.2491 -0.1029
 1103POSM   T1A12935   8.741  31.854  11.017  0.0265  0.0364 -0.0215
 1103POSM   C2A12936   8.653  31.450  11.257 -0.1980 -0.2592 -0.0902
 1103POSM   C3A12937   8.608  31.102  11.621  0.0196 -0.1497  0.0574
 1103POSM   C1B12938   9.264  31.944  10.869  0.3739  0.1389  0.2059
 1103POSM   D2B12939   9.523  31.982  11.296 -0.0633  0.3399 -0.0787
 1103POSM   C3B12940   9.829  32.250  11.450 -0.1198  0.1244  0.0516
 1103POSM   C4B12941   9.883  32.346  11.899 -0.1244  0.0822 -0.4338
 1104DOPC   NC312942   0.139  26.820  10.872  0.1527  0.0610  0.0416
 1104DOPC   PO412943   0.254  26.740  10.500 -0.2807  0.1575  0.0155
 1104DOPC   GL112944   0.524  27.024  10.721 -0.2329  0.0852 -0.2544
 1104DOPC   GL212945   0.688  26.847  10.856  0.0133  0.0934 -0.0597
 1104DOPC   C1A12946   0.407  27.241  11.049 -0.4414  0.1164 -0.1862
 1104DOPC   D2A12947   0.571  27.339  11.498  0.0295  0.0718  0.1650
 1104DOPC   C3A12948   0.636  27.650  11.820  0.1885 -0.3384  0.2054
 1104DOPC   C4A12949   0.546  27.966  12.186  0.0165 -0.0027  0.1402
 1104DOPC   C1B12950   0.983  26.914  11.174  0.3497  0.0101 -0.0084
 1104DOPC   D2B12951   1.039  27.227  11.477  0.0554  0.1443  0.0898
 1104DOPC   C3B12952   1.028  27.199  11.898  0.3555  0.1191 -0.2959
 1104DOPC   C4B12953   1.134  27.079  12.363 -0.0635  0.1863 -0.0077
 1105DOPC   NC312954   3.791  29.820  10.324 -0.1116 -0.0203  0.1920
 1105DOPC   PO412955   4.140  29.954  10.244  0.0391 -0.2606 -0.0253
 1105DOPC   GL112956   4.172  29.793  10.570  0.2479 -0.0703  0.0182
 1105DOPC   GL212957   4.079  29.871  10.853 -0.1511  0.0163  0.0483
 1105DOPC   C1A12958   4.629  29.800  10.744  0.1568 -0.1513 -0.1952
 1105DOPC   D2A12959   5.038  29.689  10.980  0.0080  0.1601 -0.0580
 1105DOPC   C3A12960   5.292  29.858  11.326  0.0560 -0.0814 -0.0401
 1105DOPC   C4A12961   5.438  30.139  11.685 -0.1258 -0.0016 -0.0022
 1105DOPC   C1B12962   4.415  29.866  11.172 -0.0056 -0.0575 -0.1389
 1105DOPC   D2B12963   4.744  29.973  11.492 -0.0758 -0.1382 -0.0532
 1105DOPC   C3B12964   4.847  30.150  11.887 -0.0619  0.2736 -0.0444
 1105DOPC   C4B12965   5.236  30.209  12.189  0.1344  0.1089 -0.3274
 1106DOPC   NC312966   8.200  29.279  10.661  0.3321 -0.4344  0.0770
 1106DOPC   PO412967   7.953  29.037  10.501  0.0100  0.3129  0.1805
 1106DOPC   GL112968   7.843  28.915  10.840 -0.0827 -0.2322  0.1203
 1106DOPC   GL212969   7.716  28.727  10.834  0.0900 -0.1811  0.0909
 1106DOPC   C1A12970   7.987  28.708  11.269  0.0385  0.1162  0.0976
 1106DOPC   D2A12971   8.192  28.433  11.519 -0.0391 -0.1007  0.2854
 1106DOPC   C3A12972   8.126  28.143  11.896  0.1985 -0.0972 -0.0490
 1106DOPC   C4A12973   7.974  28.005  12.320 -0.0970 -0.1881 -0.2365
 1106DOPC   C1B12974   7.392  28.814  11.145 -0.0989  0.0192  0.3290
 1106DOPC   D2B12975   7.048  28.537  11.233 -0.1762 -0.1472 -0.2437
 1106DOPC   C3B12976   6.833  28.567  11.652 -0.2728  0.0120  0.2112
 1106DOPC   C4B12977   6.882  28.765  12.036 -0.0503 -0.2266 -0.2338
 1107POSM   NC312978   2.342  26.939   9.800  0.1332 -0.3523 -0.1707
 1107POSM   PO412979   2.717  26.911   9.826 -0.1584 -0.2788 -0.3814
 1107POSM   AM112980   2.684  26.935  10.180  0.2691 -0.2492 -0.0383
 1107POSM   AM212981   2.695  26.769  10.420  0.1567 -0.3497  0.3637
 1107POSM   T1A12982   2.826  27.243  10.548 -0.0503 -0.0940 -0.2227
 1107POSM   C2A12983   2.912  27.336  11.030  0.2421 -0.4250 -0.1402
 1107POSM   C3A12984   2.900  27.143  11.463  0.0760 -0.0498  0.0073
 1107POSM   C1B12985   2.886  26.773  10.664  0.0036  0.0285 -0.2716
 1107POSM   D2B12986   2.801  26.816  11.098  0.2550  0.0815 -0.1007
 1107POSM   C3B12987   2.487  27.034  11.234  0.2150 -0.2025  0.0173
 1107POSM   C4B12988   2.056  27.199  11.385 -0.1471  0.1525  0.1704
 1108DOPC   NC312989   1.817  34.023   9.961 -0.2120  0.1551 -0.1384
 1108DOPC   PO412990   1.768  34.018  10.348 -0.3362 -0.2986 -0.0488
 1108DOPC   GL112991   2.013  33.810  10.581 -0.1677 -0.1150 -0.0330
 1108DOPC   GL212992   1.911  33.994  10.835  0.2279  0.0863  0.2235
 1108DOPC   C1A12993   2.410  33.792  10.716  0.1231 -0.2375  0.3235
 1108DOPC   D2A12994   2.588  33.569  11.036  0.0953  0.1037 -0.0333
 1108DOPC   C3A12995   2.577  33.471  11.534  0.0953 -0.0364  0.0585
 1108DOPC   C4A12996   2.379  33.410  11.910 -0.0152 -0.2239  0.2423
 1108DOPC   C1B12997   1.997  33.552  11.031  0.0893 -0.1870 -0.0162
 1108DOPC   D2B12998   2.201  33.151  11.129 -0.0484 -0.1608 -0.2042
 1108DOPC   C3B12999   2.366  33.014  11.557  0.0999 -0.1709 -0.2661
 1108DOPC   C4B13000   2.147  32.785  11.929 -0.3101 -0.0143  0.2566
 1109POSM   NC313001  10.511  28.970  10.482  0.1501 -0.2566  0.2143
 1109POSM   PO413002  10.663  28.617  10.359 -0.1295  0.0586 -0.3982
 1109POSM   AM113003  10.695  28.539  10.714 -0.0978  0.2178 -0.3042
 1109POSM   AM213004  10.590  28.386  10.925 -0.0478  0.1482 -0.2042
 1109POSM   T1A13005  11.110  28.392  10.946  0.0369  0.0759 -0.3801
 1109POSM   C2A13006  11.483  28.227  11.135  0.3172 -0.3267  0.1496
 1109POSM   C3A13007  11.587  27.812  11.260  0.0960 -0.0128 -0.0628
 1109POSM   C1B13008  10.647  28.338  11.242 -0.1772 -0.1686 -0.0579
 1109POSM   D2B13009  10.764  28.427  11.667  0.0972 -0.0691 -0.1214
 1109POSM   C3B13010  10.534  28.576  12.056  0.0371  0.2503  0.0201
 1109POSM   C4B13011  10.239  28.804  12.318 -0.0356  0.1202 -0.0582
 1110DOPS   CNO13012  11.579  26.100   8.949  0.0800  0.1205 -0.0365
 1110DOPS   PO413013  11.388  26.225   9.236  0.3402  0.2242  0.0463
 1110DOPS   GL113014  11.430  26.058   9.580  0.0568 -0.4021 -0.0326
 1110DOPS   GL213015  11.141  25.970   9.569 -0.0380 -0.4265 -0.1890
 1110DOPS   C1A13016  11.701  25.815   9.852  0.2259 -0.2045  0.0545
 1110DOPS   D2A13017  11.733  25.423  10.116  0.1273  0.2403 -0.0853
 1110DOPS   C3A13018  11.402  25.484  10.458  0.0111  0.1890 -0.2859
 1110DOPS   C4A13019  11.021  25.683  10.359  0.2988 -0.0721  0.0432
 1110DOPS   C1B13020  11.203  25.604   9.844  0.0698  0.1587 -0.2764
 1110DOPS   D2B13021  11.305  25.156  10.096  0.3140 -0.3117 -0.1343
 1110DOPS   C3B13022  11.166  25.000  10.525  0.1160  0.1527 -0.0597
 1110DOPS   C4B13023  11.343  24.622  10.734 -0.0953  0.0906  0.1262
 1111DOPC   NC313024   3.835  28.626  10.601  0.0612  0.0448  0.1257
 1111DOPC   PO413025   3.966  28.886  10.331 -0.0516  0.0051 -0.1791
 1111DOPC   GL113026   4.210  28.867  10.737  0.0150  0.1553  0.0144
 1111DOPC   GL213027   3.952  28.982  10.939  0.1605  0.0042  0.1599
 1111DOPC   C1A13028   4.510  28.936  11.097  0.1392  0.1349  0.0461
 1111DOPC   D2A13029   4.478  29.098  11.555 -0.0546  0.0870  0.1312
 1111DOPC   C3A13030   4.140  29.252  11.860  0.0538 -0.0891  0.2488
 1111DOPC   C4A13031   4.161  29.468  12.262 -0.0791  0.1551  0.3909
 1111DOPC   C1B13032   3.861  29.074  11.406 -0.0908 -0.0066  0.0675
 1111DOPC   D2B13033   3.755  29.460  11.655 -0.1217 -0.4254 -0.2999
 1111DOPC   C3B13034   3.748  29.540  12.065  0.0269 -0.1309 -0.3162
 1111DOPC   C4B13035   3.558  29.487  12.460  0.1542  0.2509  0.0594
 1112DOPS   CNO13036  34.506  32.468  10.831 -0.1526  0.1936 -0.0500
 1112DOPS   PO413037  34.382  32.185  10.622 -0.1879 -0.1330  0.0814
 1112DOPS   GL113038  34.628  32.106  11.026  0.0156  0.0200  0.0459
 1112DOPS   GL213039  34.832  32.251  11.197  0.1763  0.1620  0.4455
 1112DOPS   C1A13040  34.515  31.932  11.445 -0.1693  0.1488  0.0976
 1112DOPS   D2A13041  34.710  31.980  11.901  0.1646 -0.1717  0.0832
 1112DOPS   C3A13042  34.672  32.433  12.030 -0.0362 -0.1158  0.0570
 1112DOPS   C4A13043  34.523  32.841  12.169 -0.0868  0.3297 -0.1898
 1112DOPS   C1B13044  34.660  32.348  11.566  0.0545 -0.1130 -0.0326
 1112DOPS   D2B13045  34.202  32.356  11.768  0.0419  0.0047  0.1743
 1112DOPS   C3B13046  34.111  32.366  12.164  0.1892 -0.1103 -0.1580
 1112DOPS   C4B13047  33.811  32.484  12.496 -0.3988 -0.0499 -0.0328
 1113DOPE   NH313048   7.254  30.104   9.965  0.3280  0.3119 -0.1880
 1113DOPE   PO413049   6.962  30.235  10.014 -0.3051  0.3817  0.1170
 1113DOPE   GL113050   6.967  30.450  10.384 -0.1438 -0.1622  0.1362
 1113DOPE   GL213051   6.808  30.250  10.506 -0.0613 -0.2724  0.0153
 1113DOPE   C1A13052   7.171  30.476  10.799 -0.0708  0.1525 -0.1198
 1113DOPE   D2A13053   7.141  30.393  11.220  0.2479  0.1031 -0.2415
 1113DOPE   C3A13054   7.509  30.322  11.522 -0.2600  0.2178 -0.0329
 1113DOPE   C4A13055   8.000  30.432  11.549  0.1245  0.0723  0.3649
 1113DOPE   C1B13056   6.709  30.370  10.962  0.1938  0.0103 -0.2788
 1113DOPE   D2B13057   6.733  30.355  11.495  0.0614 -0.0064 -0.1256
 1113DOPE   C3B13058   6.965  30.574  11.773  0.1458 -0.0588  0.0521
 1113DOPE   C4B13059   7.101  30.884  12.046 -0.1424 -0.1316  0.0557
 1114DOPE   NH313060  13.496  29.383  10.122  0.3916 -0.5197 -0.1490
 1114DOPE   PO413061  13.323  29.094  10.231 -0.0629 -0.1070 -0.0311
 1114DOPE   GL113062  13.567  29.027  10.504 -0.2353  0.1149  0.1296
 1114DOPE   GL213063  13.583  28.689  10.442 -0.0357  0.1714  0.0713
 1114DOPE   C1A13064  13.525  28.867  10.940 -0.0545 -0.2553 -0.0262
 1114DOPE   D2A13065  13.379  28.607  11.327  0.2308  0.2000  0.0166
 1114DOPE   C3A13066  13.570  28.288  11.607  0.0024 -0.2378  0.0466
 1114DOPE   C4A13067  13.809  28.081  11.921 -0.1044 -0.3534  0.2368
 1114DOPE   C1B13068  13.491  28.333  10.716  0.2953 -0.2612 -0.0207
 1114DOPE   D2B13069  13.548  28.129  11.146 -0.1497  0.0269 -0.2134
 1114DOPE   C3B13070  13.970  27.997  11.400 -0.0929  0.0985  0.0021
 1114DOPE   C4B13071  14.230  27.690  11.677 -0.1454  0.2594 -0.1422
 1115DOPE   NH313072   5.138  26.704   9.772 -0.2382 -0.0853  0.2472
 1115DOPE   PO413073   4.839  26.649   9.758 -0.0885 -0.3254  0.1380
 1115DOPE   GL113074   4.832  26.550  10.113 -0.3300  0.0032 -0.2458
 1115DOPE   GL213075   4.634  26.256  10.226 -0.3535  0.1532 -0.0206
 1115DOPE   C1A13076   4.686  26.649  10.539 -0.1983 -0.1357  0.3627
 1115DOPE   D2A13077   4.686  26.638  10.968  0.2510  0.1595 -0.0704
 1115DOPE   C3A13078   4.464  26.232  11.114  0.0190  0.0358 -0.0639
 1115DOPE   C4A13079   4.528  25.894  11.417  0.1824  0.3349  0.0524
 1115DOPE   C1B13080   4.426  26.101  10.622  0.2316 -0.0535 -0.2491
 1115DOPE   D2B13081   4.268  25.774  10.895  0.2918 -0.2190  0.0432
 1115DOPE   C3B13082   4.025  25.908  11.212 -0.2359 -0.2845 -0.2951
 1115DOPE   C4B13083   4.052  26.295  11.415 -0.1339  0.0048  0.2594
 1116DOPC   NC313084   8.942  24.103   8.812  0.0451  0.0403 -0.2087
 1116DOPC   PO413085   9.002  24.453   8.960  0.0722 -0.0808  0.2270
 1116DOPC   GL113086   8.937  24.345   9.385  0.2731 -0.4594 -0.1912
 1116DOPC   GL213087   9.036  24.080   9.372  0.1626  0.1721 -0.0214
 1116DOPC   C1A13088   8.757  24.592   9.733 -0.0939  0.4700 -0.0235
 1116DOPC   D2A13089   8.925  24.637  10.127  0.2937  0.0243 -0.0044
 1116DOPC   C3A13090   9.208  24.846  10.475 -0.2870  0.1980 -0.1785
 1116DOPC   C4A13091   9.082  25.169  10.785 -0.1228  0.1070 -0.0030
 1116DOPC   C1B13092   8.819  24.090   9.782  0.0410  0.1348 -0.0278
 1116DOPC   D2B13093   8.721  24.189  10.176 -0.0032  0.1926  0.1912
 1116DOPC   C3B13094   8.420  23.853  10.325  0.0417  0.1545 -0.0283
 1116DOPC   C4B13095   8.152  23.742  10.693 -0.1986  0.1307  0.0292
 1117DOPS   CNO13096  10.232  29.334   9.733  0.0894 -0.0349  0.1548
 1117DOPS   PO413097  10.511  29.380  10.020  0.0831 -0.0548 -0.0264
 1117DOPS   GL113098  10.643  29.510  10.308 -0.0982 -0.3133 -0.4074
 1117DOPS   GL213099  10.739  29.725  10.452 -0.0388  0.1276 -0.4783
 1117DOPS   C1A13100  10.883  29.282  10.649  0.4791 -0.2777  0.1255
 1117DOPS   D2A13101  10.836  28.880  10.943  0.0802 -0.1223  0.1012
 1117DOPS   C3A13102  10.926  28.833  11.386  0.0914 -0.1583 -0.1184
 1117DOPS   C4A13103  11.260  28.535  11.464  0.0597  0.3160  0.0411
 1117DOPS   C1B13104  11.067  29.733  10.822 -0.0394 -0.0231 -0.0804
 1117DOPS   D2B13105  11.359  29.606  11.166  0.2261 -0.1908  0.1314
 1117DOPS   C3B13106  11.099  29.628  11.551  0.1680 -0.0561 -0.1667
 1117DOPS   C4B13107  10.806  29.624  11.910 -0.3161 -0.0496  0.0458
 1118DOPS   CNO13108   5.258  33.350   9.932  0.4052 -0.0215  0.1703
 1118DOPS   PO413109   5.406  33.492  10.243  0.0404 -0.1922  0.0803
 1118DOPS   GL113110   5.530  33.696  10.536 -0.0020  0.1614  0.0558
 1118DOPS   GL213111   5.790  33.718  10.606 -0.0257 -0.1263  0.2448
 1118DOPS   C1A13112   5.394  33.480  10.946 -0.0251  0.0729 -0.0343
 1118DOPS   D2A13113   5.488  33.261  11.326 -0.3177 -0.1558  0.0869
 1118DOPS   C3A13114   5.884  33.197  11.546 -0.0551  0.0033 -0.0742
 1118DOPS   C4A13115   6.267  32.954  11.613 -0.0647 -0.0113  0.0367
 1118DOPS   C1B13116   5.740  33.864  11.056 -0.1583 -0.1918 -0.0557
 1118DOPS   D2B13117   5.451  33.818  11.382  0.2961  0.0774  0.1706
 1118DOPS   C3B13118   5.500  33.570  11.770  0.5404 -0.2819 -0.1800
 1118DOPS   C4B13119   5.661  33.216  12.014  0.1812  0.1484  0.0889
 1119DOPC   NC313120   4.051  32.169  10.303 -0.0242 -0.1391 -0.0192
 1119DOPC   PO413121   4.168  31.791  10.314 -0.1788  0.0935 -0.3445
 1119DOPC   GL113122   4.376  31.774  10.634  0.1171  0.1510  0.1409
 1119DOPC   GL213123   4.225  31.679  10.833  0.1979  0.1607 -0.3303
 1119DOPC   C1A13124   4.752  31.616  10.897 -0.0905 -0.1590 -0.1494
 1119DOPC   D2A13125   5.120  31.403  11.028  0.3039  0.1216  0.1663
 1119DOPC   C3A13126   5.409  31.399  11.392  0.1212 -0.3984  0.3359
 1119DOPC   C4A13127   5.633  31.142  11.679  0.0014  0.0581 -0.3493
 1119DOPC   C1B13128   4.456  31.975  11.055 -0.0998  0.5118  0.0074
 1119DOPC   D2B13129   4.683  32.054  11.478  0.2875  0.0725  0.1132
 1119DOPC   C3B13130   5.008  31.865  11.835  0.1144 -0.3050 -0.1257
 1119DOPC   C4B13131   4.988  31.430  11.996 -0.2803 -0.0595  0.0933
 1120DOPS   CNO13132   1.672  26.679  10.548 -0.4211  0.2434  0.1109
 1120DOPS   PO413133   1.599  26.359  10.714 -0.0934 -0.0721 -0.0298
 1120DOPS   GL113134   1.707  26.495  11.002  0.2799 -0.3946 -0.3868
 1120DOPS   GL213135   1.587  26.770  10.999  0.0973 -0.2303 -0.1602
 1120DOPS   C1A13136   1.800  26.455  11.436 -0.1634 -0.0074  0.3826
 1120DOPS   D2A13137   1.786  26.619  11.891 -0.0275  0.1318 -0.1683
 1120DOPS   C3A13138   2.047  27.004  11.896 -0.0741  0.0710 -0.1629
 1120DOPS   C4A13139   2.035  27.265  12.314  0.4075 -0.6002 -0.2874
 1120DOPS   C1B13140   1.607  26.948  11.483 -0.0547 -0.1444 -0.0185
 1120DOPS   D2B13141   1.461  26.968  11.946  0.1948 -0.0926 -0.2634
 1120DOPS   C3B13142   1.519  27.337  12.170  0.0255  0.3578 -0.2281
 1120DOPS   C4B13143   1.612  27.757  12.197  0.1544  0.0315  0.2583
 1121DOPS   CNO13144   3.912  28.443  10.004  0.0766 -0.3865 -0.2864
 1121DOPS   PO413145   3.781  28.215  10.272 -0.0514 -0.0757  0.3228
 1121DOPS   GL113146   3.568  28.262  10.645  0.0748 -0.1339 -0.4527
 1121DOPS   GL213147   3.581  27.940  10.744 -0.0980 -0.0169 -0.1946
 1121DOPS   C1A13148   3.239  28.151  11.012 -0.0138 -0.5358  0.1035
 1121DOPS   D2A13149   2.879  28.413  11.224 -0.0809  0.0031  0.1888
 1121DOPS   C3A13150   3.197  28.609  11.541 -0.1988 -0.0489  0.1557
 1121DOPS   C4A13151   3.596  28.755  11.668  0.0613 -0.0317 -0.1004
 1121DOPS   C1B13152   3.598  27.890  11.198  0.3206  0.2213 -0.0985
 1121DOPS   D2B13153   3.432  27.788  11.634 -0.0895 -0.1404 -0.0159
 1121DOPS   C3B13154   3.566  27.500  11.978  0.0014  0.0450 -0.2390
 1121DOPS   C4B13155   3.838  27.153  12.202 -0.0486 -0.3147 -0.1353
 1122DOPC   NC313156   2.094  33.195  10.567 -0.1364 -0.0806 -0.0750
 1122DOPC   PO413157   2.201  32.824  10.519  0.2240 -0.3022  0.2119
 1122DOPC   GL113158   2.320  32.503  10.828  0.2610  0.1615  0.2231
 1122DOPC   GL213159   2.349  32.652  11.130 -0.1499  0.0504  0.1562
 1122DOPC   C1A13160   2.214  32.161  11.076 -0.0742  0.3908 -0.0140
 1122DOPC   D2A13161   2.085  31.983  11.472 -0.0309 -0.1679 -0.1408
 1122DOPC   C3A13162   1.820  31.918  11.837  0.2347  0.2687 -0.3437
 1122DOPC   C4A13163   1.984  31.563  12.135 -0.0482 -0.3166 -0.1796
 1122DOPC   C1B13164   2.393  32.460  11.583 -0.1597 -0.0505  0.0879
 1122DOPC   D2B13165   2.777  32.242  11.802 -0.0395  0.1466  0.0421
 1122DOPC   C3B13166   2.866  32.141  12.245  0.1457 -0.0116 -0.2969
 1122DOPC   C4B13167   3.033  32.224  12.684 -0.1013 -0.0526  0.2123
 1123DOPE   NH313168  11.965  23.649   8.910  0.0988  0.4368 -0.1324
 1123DOPE   PO413169  11.753  23.395   8.772  0.0695 -0.0158 -0.3718
 1123DOPE   GL113170  11.602  23.347   9.155 -0.1537  0.1109  0.1424
 1123DOPE   GL213171  11.434  23.616   9.187 -0.1402  0.0483  0.1538
 1123DOPE   C1A13172  11.747  23.211   9.593  0.1699 -0.2418 -0.0602
 1123DOPE   D2A13173  11.960  23.349   9.982  0.0006 -0.1773 -0.0901
 1123DOPE   C3A13174  12.232  23.460  10.380  0.1048 -0.0419 -0.1251
 1123DOPE   C4A13175  12.138  23.418  10.798 -0.0594  0.0909 -0.1178
 1123DOPE   C1B13176  11.418  23.752   9.637  0.1183  0.0928  0.1819
 1123DOPE   D2B13177  11.436  23.517  10.024 -0.0021 -0.2682  0.0936
 1123DOPE   C3B13178  11.719  23.631  10.353  0.1991 -0.0034 -0.0693
 1123DOPE   C4B13179  11.893  23.901  10.730  0.3801 -0.1746  0.1717
 1124DOPE   NH313180   1.058  34.096  10.656 -0.2231  0.0416 -0.0469
 1124DOPE   PO413181   1.357  33.923  10.647  0.2213 -0.3227  0.0845
 1124DOPE   GL113182   1.166  33.647  10.807 -0.1292 -0.0893 -0.0797
 1124DOPE   GL213183   1.216  33.361  10.727 -0.1979  0.2256 -0.2743
 1124DOPE   C1A13184   1.115  33.799  11.283 -0.2297 -0.0426  0.1237
 1124DOPE   D2A13185   0.742  33.888  11.566 -0.1705 -0.1633  0.2935
 1124DOPE   C3A13186   0.680  34.333  11.746  0.0963  0.0738 -0.1341
 1124DOPE   C4A13187   0.680  34.564  12.179 -0.1900 -0.4384 -0.1064
 1124DOPE   C1B13188   1.296  33.049  11.028 -0.2383  0.0635 -0.0612
 1124DOPE   D2B13189   1.419  32.906  11.491  0.3324  0.1063  0.2725
 1124DOPE   C3B13190   1.085  32.761  11.789 -0.2521 -0.2085 -0.1558
 1124DOPE   C4B13191   0.672  32.952  11.981  0.2623 -0.1002 -0.0300
 1125POSM   NC313192   7.389  26.064   9.659 -0.1740  0.0297 -0.2204
 1125POSM   PO413193   7.348  26.401   9.467  0.1691  0.0368 -0.0258
 1125POSM   AM113194   7.412  26.507   9.802  0.1062  0.0949 -0.0732
 1125POSM   AM213195   7.487  26.772   9.898  0.0052 -0.2320  0.4097
 1125POSM   T1A13196   7.339  26.402  10.270  0.2985  0.1480  0.3568
 1125POSM   C2A13197   7.521  26.465  10.651  0.0412 -0.1534  0.1888
 1125POSM   C3A13198   7.736  26.229  10.978  0.1028  0.3518  0.1661
 1125POSM   C1B13199   7.573  26.849  10.181  0.1088 -0.0115  0.2159
 1125POSM   D2B13200   7.692  26.885  10.650 -0.0143 -0.1422  0.3146
 1125POSM   C3B13201   7.917  27.174  10.957 -0.2759  0.1572  0.3315
 1125POSM   C4B13202   7.935  27.177  11.409  0.1570  0.1414  0.3293
 1126DOPS   CNO13203   8.440  33.861  10.783  0.0453  0.0508 -0.1249
 1126DOPS   PO413204   8.314  34.192  10.639 -0.0412  0.1998  0.2009
 1126DOPS   GL113205   8.172  34.233  11.002  0.1085 -0.1745  0.1777
 1126DOPS   GL213206   7.936  34.175  11.046  0.2237  0.0741 -0.0244
 1126DOPS   C1A13207   8.278  34.437  11.426 -0.1042 -0.0204  0.1595
 1126DOPS   D2A13208   8.624  34.178  11.530  0.2222 -0.2959 -0.1065
 1126DOPS   C3A13209   8.624  34.066  11.927 -0.1007  0.2033 -0.3567
 1126DOPS   C4A13210   8.699  33.662  12.114  0.2408 -0.0719 -0.1479
 1126DOPS   C1B13211   7.762  33.974  11.464 -0.0067 -0.1261 -0.3110
 1126DOPS   D2B13212   7.293  33.903  11.609  0.3697  0.1920 -0.0485
 1126DOPS   C3B13213   7.154  33.547  11.857 -0.2370  0.4128 -0.0043
 1126DOPS   C4B13214   7.112  33.371  12.232  0.3022 -0.0991 -0.0097
 1127DOPC   NC313215   6.550  24.154   9.605  0.1460  0.0729  0.2934
 1127DOPC   PO413216   6.759  24.483   9.701  0.0454  0.0327 -0.1483
 1127DOPC   GL113217   6.807  24.411  10.172 -0.0873 -0.0429  0.1889
 1127DOPC   GL213218   6.621  24.316  10.251  0.0193  0.2210  0.1794
 1127DOPC   C1A13219   6.973  24.201  10.553  0.0172  0.0986 -0.2468
 1127DOPC   D2A13220   7.314  24.101  10.840 -0.3468 -0.0518  0.0301
 1127DOPC   C3A13221   7.531  24.087  11.255  0.2240  0.0224  0.1044
 1127DOPC   C4A13222   7.618  24.223  11.642 -0.2371 -0.0318 -0.0155
 1127DOPC   C1B13223   6.514  24.433  10.638 -0.0124  0.0142  0.0029
 1127DOPC   D2B13224   6.664  24.620  11.033  0.0147 -0.1052  0.0021
 1127DOPC   C3B13225   6.893  24.821  11.386 -0.0859 -0.0151 -0.0237
 1127DOPC   C4B13226   7.221  25.103  11.455 -0.1750 -0.0642 -0.1210
 1128DOPE   NH313227  33.207  26.267  10.479 -0.0636  0.1818  0.0975
 1128DOPE   PO413228  33.276  26.041  10.705  0.0669 -0.0760  0.2400
 1128DOPE   GL113229  33.114  26.201  10.975  0.2343 -0.1583 -0.0165
 1128DOPE   GL213230  33.012  26.037  11.171 -0.1594 -0.1291  0.3529
 1128DOPE   C1A13231  33.327  26.503  11.243  0.2542  0.1259  0.0974
 1128DOPE   D2A13232  33.579  26.684  11.563  0.1774  0.1418 -0.1627
 1128DOPE   C3A13233  33.256  27.027  11.763  0.0695  0.0451 -0.3213
 1128DOPE   C4A13234  33.484  27.266  12.112 -0.0784 -0.0639 -0.0501
 1128DOPE   C1B13235  33.368  26.021  11.423  0.0524  0.1020  0.0616
 1128DOPE   D2B13236  33.424  25.868  11.860  0.3920 -0.0175  0.0826
 1128DOPE   C3B13237  33.213  25.736  12.238  0.2650  0.5175 -0.1900
 1128DOPE   C4B13238  33.128  26.034  12.591  0.0781 -0.0297  0.1298
 1129DOPS   CNO13239   8.682  23.760   9.078  0.1121  0.5717  0.0383
 1129DOPS   PO413240   8.569  24.119   9.104  0.1163  0.1555  0.4208
 1129DOPS   GL113241   8.461  24.174   9.473 -0.1793 -0.0085  0.1487
 1129DOPS   GL213242   8.235  24.287   9.476  0.2550  0.1840 -0.0773
 1129DOPS   C1A13243   8.259  24.087   9.902 -0.1250 -0.1986  0.3035
 1129DOPS   D2A13244   7.967  23.959  10.236  0.2565  0.0392 -0.1495
 1129DOPS   C3A13245   7.830  24.119  10.660 -0.2491 -0.2048  0.1837
 1129DOPS   C4A13246   7.978  24.128  11.082  0.3705 -0.5849  0.3296
 1129DOPS   C1B13247   7.803  24.245   9.689 -0.0014  0.2910 -0.0412
 1129DOPS   D2B13248   7.425  23.969   9.800 -0.1862  0.0598 -0.0832
 1129DOPS   C3B13249   7.415  23.485   9.991  0.3367  0.2280 -0.2146
 1129DOPS   C4B13250   7.430  23.216  10.375 -0.1252 -0.1205  0.1939
 1130DOPS   CNO13251   8.784  34.735  10.264 -0.2304 -0.1288 -0.1808
 1130DOPS   PO413252   8.870  34.616  10.621  0.1759 -0.1070  0.2660
 1130DOPS   GL113253   8.873  34.790  11.032  0.2488 -0.3440  0.2093
 1130DOPS   GL213254   9.190  34.729  11.029  0.1739 -0.0042 -0.0662
 1130DOPS   C1A13255   8.825  34.668  11.468 -0.0788  0.3752 -0.0529
 1130DOPS   D2A13256   9.159  34.716  11.824 -0.1091  0.0026 -0.2294
 1130DOPS   C3A13257   9.065  34.900  12.207 -0.0030  0.1138 -0.1065
 1130DOPS   C4A13258   8.862  34.914  12.642  0.1553  0.1915 -0.2262
 1130DOPS   C1B13259   9.324  35.102  11.320  0.1074 -0.1948 -0.3079
 1130DOPS   D2B13260   9.381  35.243  11.737 -0.2133  0.2086 -0.0446
 1130DOPS   C3B13261   9.572  35.017  12.105  0.0665 -0.0570 -0.4997
 1130DOPS   C4B13262   9.724  34.764  12.497 -0.0294  0.1719 -0.0393
 1131DOPE   NH313263  33.646  32.120  11.066 -0.2357 -0.0896  0.0213
 1131DOPE   PO413264  33.842  32.313  11.268  0.1734  0.1303  0.3783
 1131DOPE   GL113265  34.075  32.527  11.384 -0.1755  0.2970  0.1879
 1131DOPE   GL213266  34.328  32.524  11.280 -0.0720  0.0021 -0.2963
 1131DOPE   C1A13267  34.138  32.837  11.744 -0.3310 -0.0404  0.0634
 1131DOPE   D2A13268  34.373  33.143  11.787 -0.0495 -0.1962 -0.0005
 1131DOPE   C3A13269  34.297  33.435  12.055  0.1227 -0.1586  0.1123
 1131DOPE   C4A13270  34.256  33.810  12.237  0.0177  0.2408 -0.0976
 1131DOPE   C1B13271  34.596  32.821  11.484  0.0583 -0.2541 -0.1431
 1131DOPE   D2B13272  34.906  32.970  11.764 -0.6674 -0.5309  0.0299
 1131DOPE   C3B13273  34.841  33.276  12.072  0.0738  0.3154  0.2807
 1131DOPE   C4B13274  34.669  33.601  12.392 -0.1063  0.4827  0.0238
 1132DOPE   NH313275   4.873  28.068  10.154 -0.0174  0.2202  0.3048
 1132DOPE   PO413276   4.791  28.330  10.285 -0.0458 -0.3032 -0.4496
 1132DOPE   GL113277   4.853  28.211  10.703  0.0884 -0.0575 -0.2015
 1132DOPE   GL213278   4.558  28.112  10.722 -0.1919  0.0307  0.3668
 1132DOPE   C1A13279   4.885  28.065  11.153  0.4280  0.1967  0.0593
 1132DOPE   D2A13280   4.958  28.120  11.627  0.1332  0.0998  0.1889
 1132DOPE   C3A13281   5.137  28.515  11.624  0.3171  0.1733  0.2994
 1132DOPE   C4A13282   4.961  28.978  11.452  0.3642  0.1290 -0.3134
 1132DOPE   C1B13283   4.369  28.428  10.919 -0.4618  0.1107 -0.1493
 1132DOPE   D2B13284   4.107  28.589  11.211  0.1999  0.1044  0.0905
 1132DOPE   C3B13285   4.123  28.659  11.640 -0.1237 -0.3218 -0.3092
 1132DOPE   C4B13286   4.366  28.814  12.032  0.3009 -0.1655 -0.1773
 1133POSM   NC313287  15.922  25.278   9.761  0.2096  0.2748  0.1834
 1133POSM   PO413288  15.795  24.970   9.553 -0.1305 -0.2066  0.0965
 1133POSM   AM113289  15.625  24.831   9.797 -0.1825 -0.1910 -0.0878
 1133POSM   AM213290  15.339  24.785   9.808  0.0029 -0.1621  0.1785
 1133POSM   T1A13291  15.546  24.753  10.255 -0.2607 -0.3559  0.0200
 1133POSM   C2A13292  15.655  24.743  10.715  0.2005  0.2805 -0.0787
 1133POSM   C3A13293  15.857  24.832  11.109 -0.0360 -0.0351 -0.1055
 1133POSM   C1B13294  15.194  24.521  10.016 -0.1710 -0.1187  0.1050
 1133POSM   D2B13295  15.065  24.291  10.378 -0.0232 -0.2946  0.1022
 1133POSM   C3B13296  15.252  24.390  10.840 -0.1840  0.1733 -0.1910
 1133POSM   C4B13297  15.619  24.252  11.140  0.0288 -0.0709  0.0821
 1134DOPC   NC313298   5.654  27.843   9.983  0.1051 -0.1352 -0.1290
 1134DOPC   PO413299   5.973  28.016  10.132  0.0081  0.2296  0.1720
 1134DOPC   GL113300   6.117  28.220  10.448 -0.3178 -0.1022 -0.3479
 1134DOPC   GL213301   6.399  28.272  10.581  0.0615  0.2089 -0.1456
 1134DOPC   C1A13302   5.994  28.351  10.851 -0.0341 -0.0244 -0.2559
 1134DOPC   D2A13303   6.115  28.586  11.238  0.0130 -0.0274 -0.0366
 1134DOPC   C3A13304   6.237  28.529  11.699 -0.0295  0.0808  0.2014
 1134DOPC   C4A13305   6.442  28.522  12.138 -0.1095 -0.2182  0.3311
 1134DOPC   C1B13306   6.447  28.081  11.003 -0.0477 -0.3124 -0.0992
 1134DOPC   D2B13307   6.154  27.688  11.026  0.4680  0.0811 -0.0800
 1134DOPC   C3B13308   6.312  27.250  11.049  0.0404 -0.1096 -0.0319
 1134DOPC   C4B13309   6.347  26.805  11.235 -0.0963  0.2260 -0.0363
 1135DOPC   NC313310   2.876  28.677  10.401  0.1342 -0.1200 -0.3627
 1135DOPC   PO413311   3.079  28.740  10.703 -0.0668  0.1251 -0.1153
 1135DOPC   GL113312   3.440  28.647  10.885  0.0947 -0.4074  0.2317
 1135DOPC   GL213313   3.514  28.872  11.123 -0.2612  0.2719 -0.1262
 1135DOPC   C1A13314   3.698  28.366  11.091 -0.0737  0.2854 -0.1472
 1135DOPC   D2A13315   3.727  28.230  11.553  0.2419 -0.0329  0.4836
 1135DOPC   C3A13316   3.462  28.229  11.879  0.0714 -0.4014  0.1524
 1135DOPC   C4A13317   3.231  27.927  12.171  0.1036 -0.1333 -0.4981
 1135DOPC   C1B13318   3.316  29.110  11.464 -0.1623  0.0370  0.1187
 1135DOPC   D2B13319   3.233  29.456  11.675 -0.0028 -0.0882 -0.0424
 1135DOPC   C3B13320   3.251  29.380  12.089  0.0211 -0.0764  0.1308
 1135DOPC   C4B13321   3.031  29.456  12.502  0.1234 -0.4952  0.0352
 1136DOPE   NH313322   9.020   0.325  10.715 -0.2036 -0.0434 -0.1379
 1136DOPE   PO413323   9.167   0.559  10.640 -0.2584  0.1515  0.2751
 1136DOPE   GL113324   9.181   0.744  11.029 -0.3129  0.0604 -0.1358
 1136DOPE   GL213325   9.470   0.741  11.113  0.0775  0.0566  0.0415
 1136DOPE   C1A13326   9.042   0.833  11.476 -0.2949 -0.0767 -0.0868
 1136DOPE   D2A13327   8.951   1.086  11.834  0.2473  0.0467  0.1435
 1136DOPE   C3A13328   8.989   1.064  12.342  0.2033  0.0418 -0.0752
 1136DOPE   C4A13329   8.854   0.920  12.729 -0.0489  0.0948  0.1904
 1136DOPE   C1B13330   9.527   0.926  11.512 -0.1211 -0.1208 -0.1234
 1136DOPE   D2B13331   9.402   0.990  11.956  0.3096 -0.1326 -0.1175
 1136DOPE   C3B13332   9.349   0.650  12.208 -0.0859 -0.1109  0.0915
 1136DOPE   C4B13333   9.323   0.325  12.547 -0.0186  0.0178  0.2584
 1137POSM   NC313334  11.497  33.920  10.721  0.2876  0.0066  0.0205
 1137POSM   PO413335  11.732  33.623  10.614  0.3024  0.0813 -0.1422
 1137POSM   AM113336  11.920  33.500  10.875 -0.2512  0.0139  0.1211
 1137POSM   AM213337  12.049  33.258  10.880 -0.0506  0.0140  0.0603
 1137POSM   T1A13338  12.018  33.554  11.373  0.1963 -0.1755 -0.0586
 1137POSM   C2A13339  12.305  33.617  11.786  0.0895  0.1819  0.1799
 1137POSM   C3A13340  12.525  33.833  12.077  0.2729 -0.2773  0.1192
 1137POSM   C1B13341  11.967  33.106  11.188  0.2575  0.1396 -0.1890
 1137POSM   D2B13342  11.595  33.161  11.497  0.2767  0.1686 -0.1390
 1137POSM   C3B13343  11.658  33.504  11.785  0.2350  0.1452 -0.4313
 1137POSM   C4B13344  11.858  33.753  12.064 -0.1972  0.3328 -0.1538
 1138DOPE   NH313345   5.769  27.041  10.137  0.1669 -0.0127  0.2215
 1138DOPE   PO413346   5.683  27.040  10.453 -0.2292 -0.1294 -0.1208
 1138DOPE   GL113347   5.326  27.020  10.636  0.0195 -0.2159  0.3049
 1138DOPE   GL213348   5.137  27.264  10.565 -0.2020  0.0562 -0.0090
 1138DOPE   C1A13349   5.474  27.199  11.015 -0.0927  0.1809  0.1089
 1138DOPE   D2A13350   5.733  27.496  11.270 -0.0920 -0.2188 -0.1678
 1138DOPE   C3A13351   5.997  27.189  11.463  0.1687 -0.1475  0.3355
 1138DOPE   C4A13352   6.175  26.783  11.672  0.2156  0.0398 -0.2063
 1138DOPE   C1B13353   4.960  27.182  11.011  0.0182  0.1777 -0.0977
 1138DOPE   D2B13354   4.971  26.995  11.440  0.1041 -0.4564  0.2512
 1138DOPE   C3B13355   5.215  26.870  11.878  0.2529  0.0153  0.0495
 1138DOPE   C4B13356   5.234  26.979  12.309  0.3035  0.0961  0.1782
 1139DOPC   NC313357   6.173  27.228   9.890 -0.0410 -0.0371  0.2603
 1139DOPC   PO413358   6.273  26.964  10.163 -0.0612  0.1119 -0.4774
 1139DOPC   GL113359   6.531  27.015  10.390 -0.3750  0.0712  0.0341
 1139DOPC   GL213360   6.813  26.794  10.275 -0.2264 -0.0593  0.0252
 1139DOPC   C1A13361   6.733  26.881  10.811 -0.2809  0.0131 -0.2863
 1139DOPC   D2A13362   6.906  26.461  10.973 -0.0772 -0.0063 -0.1265
 1139DOPC   C3A13363   7.082  26.396  11.399 -0.2275  0.2049 -0.0150
 1139DOPC   C4A13364   7.528  26.320  11.468  0.5303 -0.2408 -0.1012
 1139DOPC   C1B13365   7.138  26.791  10.549  0.2086 -0.1923 -0.1828
 1139DOPC   D2B13366   7.250  26.851  10.954 -0.0967  0.1584  0.0959
 1139DOPC   C3B13367   7.541  26.798  11.240 -0.3387  0.0822 -0.1666
 1139DOPC   C4B13368   7.943  26.552  11.259  0.2385 -0.0087 -0.0204
 1140DOPS   CNO13369   1.241  24.865  10.382  0.1809  0.0806 -0.2085
 1140DOPS   PO413370   1.542  25.004  10.230  0.2690 -0.0749 -0.0059
 1140DOPS   GL113371   1.651  24.935  10.606  0.0410 -0.0643  0.0422
 1140DOPS   GL213372   1.661  24.633  10.605 -0.3923 -0.0523 -0.2994
 1140DOPS   C1A13373   1.779  25.291  10.848  0.1831  0.0235  0.3083
 1140DOPS   D2A13374   2.008  25.637  11.062 -0.0564  0.1364  0.0387
 1140DOPS   C3A13375   2.287  25.699  11.393 -0.1365 -0.1470 -0.0668
 1140DOPS   C4A13376   2.654  25.910  11.491 -0.0241  0.0266  0.0968
 1140DOPS   C1B13377   1.733  24.453  10.984 -0.0624  0.1514 -0.1619
 1140DOPS   D2B13378   1.822  24.371  11.410  0.3203  0.0868 -0.0350
 1140DOPS   C3B13379   2.252  24.406  11.404 -0.0966  0.0316  0.0947
 1140DOPS   C4B13380   2.643  24.129  11.486 -0.1836 -0.0810  0.1727
 1141DOPE   NH313381   4.720  31.198   9.970  0.0444  0.2065  0.0564
 1141DOPE   PO413382   4.987  30.993  10.071  0.2899 -0.0710  0.0059
 1141DOPE   GL113383   4.849  31.029  10.498 -0.3539 -0.5118 -0.0512
 1141DOPE   GL213384   4.955  31.297  10.551  0.1342 -0.1135  0.0999
 1141DOPE   C1A13385   4.485  30.995  10.812  0.1267 -0.0628  0.2429
 1141DOPE   D2A13386   4.334  30.837  11.208 -0.0226  0.1020 -0.1814
 1141DOPE   C3A13387   4.462  31.089  11.562 -0.1465 -0.1541 -0.2129
 1141DOPE   C4A13388   4.526  31.199  11.988 -0.0098  0.1216 -0.2312
 1141DOPE   C1B13389   5.407  31.350  10.545  0.0340  0.1006 -0.0193
 1141DOPE   D2B13390   5.769  31.562  10.708 -0.1117 -0.1455  0.3879
 1141DOPE   C3B13391   5.643  31.728  11.117  0.0662  0.2249 -0.0752
 1141DOPE   C4B13392   5.777  31.697  11.549  0.2837 -0.1921  0.0783
 1142DOPE   NH313393  34.442  27.442  10.086  0.0389 -0.1987 -0.1183
 1142DOPE   PO413394  34.342  27.329  10.352 -0.0061  0.0456  0.0407
 1142DOPE   GL113395  34.284  27.192  10.679  0.0148 -0.0960 -0.3947
 1142DOPE   GL213396  34.532  27.357  10.858 -0.0543  0.0923 -0.0181
 1142DOPE   C1A13397  34.131  27.256  11.126 -0.2904  0.1577 -0.0322
 1142DOPE   D2A13398  34.294  27.442  11.496 -0.2394 -0.0115 -0.0035
 1142DOPE   C3A13399  34.425  27.312  11.886  0.2408 -0.0129  0.5200
 1142DOPE   C4A13400  34.480  27.247  12.328 -0.2372  0.2512  0.0410
 1142DOPE   C1B13401  34.690  27.044  11.239 -0.0370 -0.2266 -0.1660
 1142DOPE   D2B13402  34.882  27.009  11.691 -0.2516 -0.0492 -0.0316
 1142DOPE   C3B13403  34.926  27.184  12.090  0.0695 -0.1736  0.0097
 1142DOPE   C4B13404  34.968  27.606  12.276 -0.0251 -0.0706  0.3887
 1143DOPS   CNO13405  10.302  31.165   9.652  0.0160 -0.1137  0.2432
 1143DOPS   PO413406  10.264  31.184  10.008  0.0715 -0.2917  0.0172
 1143DOPS   GL113407  10.133  31.374  10.378  0.2961 -0.2966 -0.0643
 1143DOPS   GL213408   9.890  31.550  10.347  0.2988 -0.1479  0.1861
 1143DOPS   C1A13409  10.192  31.588  10.812  0.0289 -0.0890  0.1366
 1143DOPS   D2A13410  10.010  31.808  11.207  0.0600 -0.0020  0.2412
 1143DOPS   C3A13411  10.345  32.168  11.272 -0.1884 -0.1504 -0.0609
 1143DOPS   C4A13412  10.826  32.322  11.251 -0.1533  0.2622  0.0187
 1143DOPS   C1B13413   9.693  31.737  10.715  0.0980 -0.0839 -0.0659
 1143DOPS   D2B13414   9.542  31.522  11.094  0.1276 -0.2598 -0.0009
 1143DOPS   C3B13415   9.675  31.331  11.500 -0.2618 -0.0746 -0.0272
 1143DOPS   C4B13416   9.694  31.336  11.948 -0.1951  0.1086 -0.1961
 1144DOPE   NH313417   9.017  26.764   9.322 -0.0364  0.1070 -0.1384
 1144DOPE   PO413418   9.152  26.955   9.583  0.1765  0.0475 -0.0046
 1144DOPE   GL113419   9.443  26.791   9.809  0.3784 -0.0956  0.1450
 1144DOPE   GL213420   9.505  26.930  10.058  0.0045 -0.0928  0.0104
 1144DOPE   C1A13421   9.439  26.395  10.088 -0.2211 -0.0925 -0.1700
 1144DOPE   D2A13422   9.261  26.383  10.482 -0.2821  0.0063  0.1109
 1144DOPE   C3A13423   9.247  26.513  10.922  0.0727 -0.0604  0.1538
 1144DOPE   C4A13424   9.182  26.816  11.259  0.0621 -0.1292  0.2611
 1144DOPE   C1B13425   9.756  26.731  10.387 -0.1457 -0.1183 -0.2063
 1144DOPE   D2B13426  10.073  26.752  10.745 -0.2673  0.0027  0.3089
 1144DOPE   C3B13427  10.125  26.778  11.177 -0.1705 -0.1411  0.1292
 1144DOPE   C4B13428  10.074  26.796  11.683 -0.0530 -0.2216 -0.0863
 1145DOPS   CNO13429   5.733  23.774   9.345  0.1360  0.0038  0.2944
 1145DOPS   PO413430   6.089  23.883   9.438  0.0555  0.2467 -0.1047
 1145DOPS   GL113431   6.284  23.859   9.891 -0.1509  0.4312  0.4457
 1145DOPS   GL213432   6.398  23.855  10.133 -0.1885  0.0703  0.3590
 1145DOPS   C1A13433   6.603  23.478   9.982  0.0513  0.0179  0.0281
 1145DOPS   D2A13434   6.956  23.184  10.088 -0.0004  0.0288  0.0487
 1145DOPS   C3A13435   6.973  23.242  10.528 -0.2719  0.0133  0.1118
 1145DOPS   C4A13436   6.775  23.254  10.973  0.2329 -0.1694  0.5178
 1145DOPS   C1B13437   6.436  23.953  10.547  0.1444  0.0712 -0.5944
 1145DOPS   D2B13438   6.642  24.095  10.959 -0.1473 -0.1520  0.3260
 1145DOPS   C3B13439   7.005  24.287  11.195  0.1854  0.1010  0.1733
 1145DOPS   C4B13440   7.308  24.550  11.386 -0.2244 -0.1460  0.0555
 1146DOPS   CNO13441  12.681  24.674   8.923  0.1366 -0.1117 -0.1021
 1146DOPS   PO413442  12.778  24.530   9.266 -0.0047  0.1388  0.0689
 1146DOPS   GL113443  12.749  24.457   9.684 -0.0642 -0.0650  0.4308
 1146DOPS   GL213444  12.844  24.709   9.830 -0.0283 -0.0714  0.1352
 1146DOPS   C1A13445  12.762  24.037   9.853 -0.1340 -0.0271  0.2037
 1146DOPS   D2A13446  13.006  23.802  10.166  0.0617  0.1840  0.0378
 1146DOPS   C3A13447  12.807  23.415  10.340 -0.0028 -0.0171 -0.1700
 1146DOPS   C4A13448  12.959  23.039  10.608 -0.0538 -0.2569  0.0629
 1146DOPS   C1B13449  12.782  24.772  10.313 -0.1705  0.2036 -0.1003
 1146DOPS   D2B13450  12.389  24.713  10.609 -0.2237  0.0814 -0.0831
 1146DOPS   C3B13451  12.273  24.284  10.704  0.0370  0.0769  0.1457
 1146DOPS   C4B13452  12.472  23.870  10.699 -0.0831 -0.2250 -0.1592
 1147DOPC   NC313453   5.845  26.192  10.050  0.1777 -0.0042 -0.1158
 1147DOPC   PO413454   5.594  25.893  10.026 -0.1786 -0.0677 -0.1245
 1147DOPC   GL113455   5.400  25.535  10.270  0.2929  0.1266  0.3833
 1147DOPC   GL213456   5.429  25.261  10.162 -0.4787 -0.3451  0.2372
 1147DOPC   C1A13457   5.164  25.530  10.653 -0.0735 -0.0925  0.0101
 1147DOPC   D2A13458   4.931  25.381  11.037  0.1979  0.0648  0.0851
 1147DOPC   C3A13459   4.519  25.453  11.151 -0.0547  0.2601  0.1893
 1147DOPC   C4A13460   4.136  25.450  11.480 -0.4336 -0.0140 -0.3071
 1147DOPC   C1B13461   5.564  25.091  10.607 -0.2545  0.2788 -0.2701
 1147DOPC   D2B13462   5.445  25.053  10.995 -0.2888  0.3333 -0.1854
 1147DOPC   C3B13463   5.571  25.179  11.404  0.2088 -0.1050 -0.1056
 1147DOPC   C4B13464   5.840  25.085  11.782 -0.2314 -0.0158 -0.1500
 1148DOPC   NC313465   9.815  30.989  10.206  0.0996 -0.3758  0.0548
 1148DOPC   PO413466   9.536  31.211  10.350  0.2658 -0.2623 -0.3006
 1148DOPC   GL113467   9.608  31.133  10.732 -0.3565 -0.1618 -0.1872
 1148DOPC   GL213468   9.901  31.176  10.783  0.0121 -0.1195 -0.2450
 1148DOPC   C1A13469   9.385  31.056  11.163  0.1272  0.2101  0.2536
 1148DOPC   D2A13470   9.428  30.928  11.581 -0.0240  0.1169  0.2958
 1148DOPC   C3A13471   9.122  31.151  11.820 -0.0154 -0.1685  0.1006
 1148DOPC   C4A13472   9.099  31.381  12.205  0.0513  0.1328  0.0108
 1148DOPC   C1B13473  10.063  31.271  11.230 -0.1112 -0.1396 -0.1139
 1148DOPC   D2B13474  10.355  31.424  11.553  0.3489 -0.1425  0.2376
 1148DOPC   C3B13475  10.413  31.055  11.883 -0.1022  0.0054  0.2538
 1148DOPC   C4B13476  10.581  30.833  12.252 -0.1602 -0.0666 -0.2448
 1149DOPE   NH313477   8.142  24.270   8.954 -0.0682 -0.0452  0.0815
 1149DOPE   PO413478   7.900  24.480   9.024 -0.1978 -0.2672 -0.1083
 1149DOPE   GL113479   7.904  24.574   9.370  0.1399  0.2672  0.2045
 1149DOPE   GL213480   7.934  24.853   9.343 -0.1420 -0.0423  0.1664
 1149DOPE   C1A13481   8.193  24.691   9.699  0.2423  0.0033  0.0146
 1149DOPE   D2A13482   8.367  24.562  10.090  0.0528  0.0269  0.2409
 1149DOPE   C3A13483   8.283  24.297  10.463  0.0538  0.1673  0.2070
 1149DOPE   C4A13484   8.391  24.233  10.866 -0.1535  0.0022 -0.2769
 1149DOPE   C1B13485   7.654  24.738   9.718  0.0555  0.0183 -0.2438
 1149DOPE   D2B13486   7.233  24.772   9.806  0.1489  0.0893 -0.1522
 1149DOPE   C3B13487   7.103  24.836  10.208 -0.1592 -0.0687 -0.0966
 1149DOPE   C4B13488   6.822  24.835  10.597  0.1443  0.0421 -0.0627
 1150DOPC   NC313489   9.660   2.670  10.644 -0.0663 -0.0470  0.0636
 1150DOPC   PO413490   9.336   2.842  10.735  0.0172 -0.1066  0.1268
 1150DOPC   GL113491   9.202   2.706  11.101 -0.2226 -0.0275 -0.0783
 1150DOPC   GL213492   9.339   2.468  11.110  0.1162 -0.1629 -0.4303
 1150DOPC   C1A13493   8.842   2.504  11.362  0.2217  0.0446 -0.1047
 1150DOPC   D2A13494   8.468   2.646  11.439  0.0026  0.0401  0.0669
 1150DOPC   C3A13495   8.483   2.980  11.797  0.0939  0.1237 -0.0078
 1150DOPC   C4A13496   8.281   3.173  12.144  0.5498  0.1642 -0.0991
 1150DOPC   C1B13497   9.373   2.652  11.543  0.2003  0.0422 -0.2480
 1150DOPC   D2B13498   9.466   2.584  12.010 -0.0682  0.2759  0.0292
 1150DOPC   C3B13499   9.294   2.859  12.308  0.0015  0.1459  0.1871
 1150DOPC   C4B13500   9.020   2.901  12.710 -0.0241 -0.0979 -0.0238
 1151POSM   NC313501   7.228  23.974   9.097  0.2003  0.1875  0.1521
 1151POSM   PO413502   7.006  23.948   9.430 -0.3544 -0.0241 -0.1264
 1151POSM   AM113503   6.982  24.050   9.740 -0.1204  0.1050 -0.3443
 1151POSM   AM213504   6.862  23.973  10.008 -0.3162  0.0713  0.1456
 1151POSM   T1A13505   7.272  24.309  10.069 -0.0602  0.1006 -0.0663
 1151POSM   C2A13506   7.390  24.480  10.522  0.1072  0.1255 -0.1670
 1151POSM   C3A13507   7.162  24.621  10.897  0.1341  0.4167  0.2448
 1151POSM   C1B13508   7.086  23.860  10.248 -0.1016 -0.1617  0.4136
 1151POSM   D2B13509   7.482  23.819  10.473 -0.0701 -0.0371 -0.0183
 1151POSM   C3B13510   7.844  23.493  10.388 -0.2275  0.0662  0.2810
 1151POSM   C4B13511   8.306  23.355  10.413  0.0830  0.3143 -0.0139
 1152DOPC   NC313512   1.987  30.978   9.732 -0.1672 -0.1045  0.1560
 1152DOPC   PO413513   1.713  30.876  10.046  0.0316  0.1424  0.0391
 1152DOPC   GL113514   1.511  31.083  10.365  0.0539 -0.1294 -0.3935
 1152DOPC   GL213515   1.664  31.003  10.608 -0.1600  0.1177 -0.0270
 1152DOPC   C1A13516   1.616  31.496  10.570 -0.0101  0.3646 -0.1557
 1152DOPC   D2A13517   1.398  31.666  10.982 -0.1990  0.0442  0.0300
 1152DOPC   C3A13518   1.564  31.565  11.441  0.1074 -0.0902 -0.1300
 1152DOPC   C4A13519   1.585  31.420  11.888 -0.2075  0.1652 -0.0783
 1152DOPC   C1B13520   2.032  31.249  10.679  0.3954 -0.1068 -0.0424
 1152DOPC   D2B13521   2.341  31.588  10.726 -0.0150 -0.2259  0.1312
 1152DOPC   C3B13522   2.317  31.573  11.203 -0.0099  0.0584 -0.0046
 1152DOPC   C4B13523   2.054  31.524  11.635 -0.3067  0.1848 -0.0363
 1153DOPC   NC313524   7.478  32.075  10.730  0.1389 -0.0923  0.2412
 1153DOPC   PO413525   7.293  32.424  10.644 -0.1378  0.0555 -0.2266
 1153DOPC   GL113526   7.535  32.474  10.941  0.1148 -0.1689  0.3553
 1153DOPC   GL213527   7.315  32.473  11.144 -0.0157  0.2829 -0.2785
 1153DOPC   C1A13528   7.713  32.175  11.245 -0.0612  0.2912 -0.3450
 1153DOPC   D2A13529   7.552  32.162  11.643 -0.0910 -0.1532 -0.1072
 1153DOPC   C3A13530   7.520  32.558  11.913 -0.0224  0.3565  0.1117
 1153DOPC   C4A13531   7.713  32.594  12.286  0.0543  0.0399 -0.2388
 1153DOPC   C1B13532   7.185  32.789  11.438 -0.0660 -0.0878  0.1272
 1153DOPC   D2B13533   7.037  33.037  11.820  0.1814 -0.0856  0.2983
 1153DOPC   C3B13534   6.595  32.978  11.985 -0.0680  0.1734  0.1946
 1153DOPC   C4B13535   6.184  33.189  12.102 -0.0449  0.2266 -0.3338
 1154DOPE   NH313536   3.556  30.642  10.397  0.0900 -0.1432 -0.0220
 1154DOPE   PO413537   3.523  30.869  10.643 -0.1023 -0.0138  0.4246
 1154DOPE   GL113538   3.486  31.080  10.851  0.2204  0.2555  0.1274
 1154DOPE   GL213539   3.299  31.288  10.933  0.0723 -0.1832 -0.1428
 1154DOPE   C1A13540   3.840  31.247  11.071 -0.0935 -0.3548  0.1092
 1154DOPE   D2A13541   3.845  31.306  11.500 -0.4770 -0.0441 -0.1332
 1154DOPE   C3A13542   4.086  31.579  11.800  0.1435  0.1735  0.0778
 1154DOPE   C4A13543   4.563  31.655  11.815  0.1267  0.2243 -0.0490
 1154DOPE   C1B13544   3.388  31.237  11.359  0.0506 -0.0027  0.1754
 1154DOPE   D2B13545   3.571  30.908  11.669  0.0987 -0.0522  0.1460
 1154DOPE   C3B13546   3.845  31.161  11.957  0.1189  0.0450  0.0286
 1154DOPE   C4B13547   4.048  31.215  12.297 -0.0339 -0.0607  0.1460
 1155DOPE   NH313548   3.088  33.323   9.887 -0.4812 -0.0766  0.2419
 1155DOPE   PO413549   2.950  33.155  10.116  0.1875 -0.1391 -0.1467
 1155DOPE   GL113550   2.905  33.189  10.597  0.0613  0.1335  0.4130
 1155DOPE   GL213551   2.692  33.048  10.691 -0.0741 -0.0938  0.0089
 1155DOPE   C1A13552   3.173  33.357  10.938 -0.2705 -0.2104 -0.2905
 1155DOPE   D2A13553   3.037  33.511  11.318 -0.1529 -0.1925 -0.1801
 1155DOPE   C3A13554   3.304  33.372  11.683  0.0890 -0.0580  0.0178
 1155DOPE   C4A13555   3.537  33.515  12.023 -0.0156 -0.1556  0.1796
 1155DOPE   C1B13556   2.721  33.078  11.156  0.1056 -0.2655 -0.2604
 1155DOPE   D2B13557   2.928  32.964  11.590 -0.2325  0.1955  0.0356
 1155DOPE   C3B13558   2.690  32.876  12.009 -0.1682 -0.1408  0.4238
 1155DOPE   C4B13559   2.792  32.735  12.413  0.2571  0.1228  0.3217
 1156DOPC   NC313560   4.508  30.830  10.324  0.2040  0.0602  0.0296
 1156DOPC   PO413561   4.066  30.768  10.371  0.2476  0.1605 -0.0818
 1156DOPC   GL113562   4.111  30.627  10.728 -0.2736  0.3328  0.2375
 1156DOPC   GL213563   3.925  30.791  10.868 -0.1744  0.2197 -0.3081
 1156DOPC   C1A13564   4.079  30.362  11.119 -0.0696  0.0945 -0.0354
 1156DOPC   D2A13565   4.128  30.412  11.564 -0.0410 -0.2805 -0.2950
 1156DOPC   C3A13566   3.720  30.401  11.672 -0.1305 -0.0202  0.2830
 1156DOPC   C4A13567   3.509  30.597  12.119  0.0648  0.2787  0.2579
 1156DOPC   C1B13568   3.801  30.761  11.223 -0.2931 -0.0514  0.0354
 1156DOPC   D2B13569   3.361  30.604  11.283  0.1520  0.0546  0.3723
 1156DOPC   C3B13570   3.095  30.726  11.667 -0.0658  0.1500  0.3072
 1156DOPC   C4B13571   3.137  30.924  12.066 -0.0284  0.1757 -0.1238
 1157DOPE   NH313572  11.422  31.732  10.044  0.1091 -0.0337 -0.0518
 1157DOPE   PO413573  11.179  31.531   9.889  0.1887  0.0813 -0.1111
 1157DOPE   GL113574  11.026  31.371  10.296  0.1948  0.0809  0.0424
 1157DOPE   GL213575  11.108  31.542  10.442 -0.2951  0.2620  0.1027
 1157DOPE   C1A13576  11.106  30.970  10.468  0.0472  0.1899 -0.0475
 1157DOPE   D2A13577  10.881  30.806  10.784 -0.0692 -0.0594  0.1667
 1157DOPE   C3A13578  11.175  30.818  11.154 -0.1311  0.0933  0.2806
 1157DOPE   C4A13579  11.179  30.650  11.586  0.1193 -0.0820 -0.2158
 1157DOPE   C1B13580  10.739  31.488  10.723  0.2602  0.1558 -0.3381
 1157DOPE   D2B13581  10.567  31.737  11.097  0.0007  0.0854 -0.3619
 1157DOPE   C3B13582  10.814  31.878  11.454  0.2511 -0.0663  0.3030
 1157DOPE   C4B13583  11.129  32.151  11.709  0.0606  0.2741  0.3084
 1158DOPS   CNO13584   4.893   0.040  10.009 -0.3516  0.0800 -0.0792
 1158DOPS   PO413585   4.611   0.041  10.251  0.1554  0.0695 -0.2361
 1158DOPS   GL113586   4.659   0.015  10.717 -0.2365 -0.2665  0.1886
 1158DOPS   GL213587   4.888   0.231  10.784 -0.1874 -0.2887 -0.3300
 1158DOPS   C1A13588   4.876  -0.293  10.975  0.2153 -0.0011 -0.1612
 1158DOPS   D2A13589   4.923  -0.604  11.301 -0.0030  0.1320 -0.2233
 1158DOPS   C3A13590   5.194  -0.533  11.665 -0.0369 -0.3251  0.1207
 1158DOPS   C4A13591   5.411  -0.389  12.028  0.3393  0.0432 -0.1016
 1158DOPS   C1B13592   4.565   0.394  11.049 -0.0278 -0.1824 -0.0023
 1158DOPS   D2B13593   4.178   0.388  11.207  0.0546  0.1862  0.3521
 1158DOPS   C3B13594   4.249   0.160  11.625 -0.1234 -0.1538 -0.0866
 1158DOPS   C4B13595   4.444  -0.015  11.976  0.3908  0.0890 -0.0708
 1159DOPC   NC313596   6.041  32.766  10.518 -0.1492  0.1185  0.5944
 1159DOPC   PO413597   5.744  32.705  10.224  0.2824  0.1358 -0.0090
 1159DOPC   GL113598   5.535  32.641  10.604  0.2494 -0.1194 -0.2407
 1159DOPC   GL213599   5.468  32.980  10.733 -0.1379  0.3205 -0.1710
 1159DOPC   C1A13600   5.320  32.318  10.793 -0.0304  0.2075 -0.2136
 1159DOPC   D2A13601   5.099  31.968  11.057 -0.0419  0.0012  0.0192
 1159DOPC   C3A13602   5.320  31.933  11.459  0.1401 -0.2420  0.2159
 1159DOPC   C4A13603   5.506  32.039  11.859 -0.2160  0.1076 -0.0613
 1159DOPC   C1B13604   5.375  32.794  11.132  0.0474 -0.0641 -0.1296
 1159DOPC   D2B13605   5.386  32.419  11.420 -0.1117  0.0275  0.4127
 1159DOPC   C3B13606   5.426  32.570  11.859  0.0330  0.1326  0.2495
 1159DOPC   C4B13607   5.451  32.427  12.319 -0.0253 -0.2040  0.2331
 1160POSM   NC313608   7.441  30.866  10.275 -0.1713 -0.1291 -0.0241
 1160POSM   PO413609   7.741  31.016  10.117 -0.5592  0.0603 -0.2143
 1160POSM   AM113610   7.821  31.136  10.419  0.2310  0.0433  0.1677
 1160POSM   AM213611   7.673  31.109  10.647 -0.0513  0.2499  0.2228
 1160POSM   T1A13612   8.063  31.392  10.724  0.1815  0.3053  0.0946
 1160POSM   C2A13613   8.311  31.716  10.926 -0.0668  0.2212  0.0288
 1160POSM   C3A13614   8.392  31.881  11.359 -0.1016 -0.0797  0.0176
 1160POSM   C1B13615   7.661  31.175  10.986 -0.0532 -0.1632 -0.1596
 1160POSM   D2B13616   7.553  31.236  11.471 -0.4471 -0.2768 -0.2017
 1160POSM   C3B13617   7.531  30.814  11.626  0.3203  0.2960  0.1577
 1160POSM   C4B13618   7.405  30.493  11.963  0.1268  0.3999  0.1747
 1161DOPC   NC313619   2.541  30.353  10.096 -0.1896 -0.0443  0.0208
 1161DOPC   PO413620   2.675  30.119  10.382  0.1442 -0.2686  0.0273
 1161DOPC   GL113621   2.776  29.946  10.820  0.1316 -0.1023  0.0592
 1161DOPC   GL213622   2.733  29.604  10.690 -0.0128  0.4111 -0.2600
 1161DOPC   C1A13623   2.627  30.049  11.212  0.2106 -0.1318 -0.0834
 1161DOPC   D2A13624   2.263  29.897  11.354  0.0974  0.2493 -0.0934
 1161DOPC   C3A13625   2.202  29.836  11.799 -0.0526 -0.0746 -0.1674
 1161DOPC   C4A13626   2.046  29.582  12.131  0.1456 -0.0666 -0.0675
 1161DOPC   C1B13627   2.390  29.576  11.071 -0.0419 -0.2808 -0.1793
 1161DOPC   D2B13628   2.409  29.299  11.480  0.1088  0.4397  0.3143
 1161DOPC   C3B13629   2.455  29.333  11.906 -0.3192  0.2714 -0.0009
 1161DOPC   C4B13630   2.571  29.385  12.366 -0.0452 -0.0304  0.2554
 1162POSM   NC313631   4.306  29.379  10.706  0.1036 -0.0631  0.0053
 1162POSM   PO413632   3.946  29.378  10.553  0.1629  0.2372  0.2333
 1162POSM   AM113633   3.858  29.440  10.838 -0.2184  0.1111  0.0857
 1162POSM   AM213634   3.627  29.392  11.008 -0.0554  0.1397  0.0533
 1162POSM   T1A13635   4.115  29.519  11.293 -0.3410 -0.1659  0.2359
 1162POSM   C2A13636   4.402  29.721  11.638  0.2239  0.0619  0.0444
 1162POSM   C3A13637   4.438  29.815  12.039 -0.2622 -0.1045  0.1043
 1162POSM   C1B13638   3.542  29.578  11.286 -0.1023 -0.1636  0.1276
 1162POSM   D2B13639   3.437  29.870  11.579  0.3554 -0.0199 -0.1449
 1162POSM   C3B13640   3.262  29.846  12.014 -0.2625 -0.1707 -0.2255
 1162POSM   C4B13641   2.795  29.726  12.065 -0.0447 -0.1087  0.1829
 1163DOPE   NH313642   5.856  29.761   9.918  0.0494 -0.0727  0.1781
 1163DOPE   PO413643   5.842  30.090   9.932 -0.1448 -0.2627 -0.1107
 1163DOPE   GL113644   5.785  29.937  10.400 -0.1182  0.3609 -0.0105
 1163DOPE   GL213645   5.584  29.723  10.349 -0.1405  0.1100 -0.6906
 1163DOPE   C1A13646   5.861  29.881  10.848 -0.1055  0.0816 -0.2551
 1163DOPE   D2A13647   5.823  30.015  11.307  0.1028 -0.2292  0.4337
 1163DOPE   C3A13648   6.074  30.019  11.724  0.2122 -0.0731 -0.1021
 1163DOPE   C4A13649   6.179  29.768  12.134 -0.0779 -0.2818 -0.0046
 1163DOPE   C1B13650   5.386  30.040  10.638  0.0726 -0.2572 -0.1201
 1163DOPE   D2B13651   5.027  30.189  10.852 -0.0211 -0.0613  0.2774
 1163DOPE   C3B13652   5.080  30.382  11.257  0.1204 -0.3764  0.1380
 1163DOPE   C4B13653   5.134  30.544  11.689 -0.0865  0.0291  0.0408
 1164DOPE   NH313654   9.599  29.577  10.238  0.2521 -0.0842 -0.2301
 1164DOPE   PO413655   9.631  29.874  10.102  0.0605 -0.2956 -0.4585
 1164DOPE   GL113656   9.408  29.987  10.396 -0.0045  0.0723 -0.0343
 1164DOPE   GL213657   9.333  29.853  10.587 -0.0208 -0.2316 -0.0051
 1164DOPE   C1A13658   9.419  30.266  10.764 -0.0791 -0.0789 -0.0470
 1164DOPE   D2A13659   9.238  30.517  11.039 -0.3233  0.1319 -0.0074
 1164DOPE   C3A13660   9.358  30.482  11.503  0.0165  0.3315  0.2790
 1164DOPE   C4A13661   9.667  30.353  11.810  0.0796  0.0303  0.0990
 1164DOPE   C1B13662   9.436  29.441  10.816  0.1453 -0.0801  0.4164
 1164DOPE   D2B13663   9.478  29.296  11.225 -0.1930  0.0379 -0.0025
 1164DOPE   C3B13664   9.081  29.344  11.504  0.1900  0.0013 -0.2372
 1164DOPE   C4B13665   8.643  29.204  11.526 -0.0575  0.1326  0.1822
 1165DOPS   CNO13666   8.999  25.502   9.396 -0.1418  0.0408 -0.0445
 1165DOPS   PO413667   9.379  25.424   9.308 -0.2448 -0.0151  0.0839
 1165DOPS   GL113668   9.464  25.166   9.567 -0.0611  0.2567  0.1190
 1165DOPS   GL213669   9.615  25.243   9.770  0.0807  0.1550  0.2896
 1165DOPS   C1A13670   9.338  24.875   9.924 -0.1604  0.1571 -0.0986
 1165DOPS   D2A13671   9.472  24.540  10.185  0.1373 -0.2004 -0.0263
 1165DOPS   C3A13672   9.623  24.452  10.595  0.2281 -0.0905  0.0276
 1165DOPS   C4A13673   9.864  24.418  10.991 -0.0045  0.0669  0.1367
 1165DOPS   C1B13674  10.000  25.247   9.982  0.0620 -0.1201  0.0903
 1165DOPS   D2B13675  10.325  25.277  10.354  0.0500 -0.1568  0.0269
 1165DOPS   C3B13676  10.258  25.139  10.772 -0.2538  0.1850 -0.1198
 1165DOPS   C4B13677   9.989  25.176  11.144  0.4001 -0.1107 -0.0559
 1166DOPE   NH313678   0.147  24.152  10.308 -0.2505 -0.2815 -0.0812
 1166DOPE   PO413679   0.452  24.232  10.236  0.1981  0.0562 -0.1728
 1166DOPE   GL113680   0.617  24.200  10.609  0.2760  0.0576 -0.2786
 1166DOPE   GL213681   0.849  24.020  10.636 -0.2132  0.0043 -0.0002
 1166DOPE   C1A13682   0.746  24.489  10.962  0.0026  0.2049 -0.1083
 1166DOPE   D2A13683   0.770  24.466  11.437  0.1854  0.0152 -0.2341
 1166DOPE   C3A13684   0.648  24.260  11.835  0.4933 -0.0092  0.2078
 1166DOPE   C4A13685   0.549  23.930  12.154 -0.1087 -0.0826  0.0138
 1166DOPE   C1B13686   0.645  23.608  10.671 -0.0939 -0.3565  0.1257
 1166DOPE   D2B13687   0.806  23.239  10.896  0.0235  0.1607  0.0332
 1166DOPE   C3B13688   0.671  23.138  11.286 -0.1365  0.3665  0.0649
 1166DOPE   C4B13689   0.616  22.763  11.550  0.1700  0.0339  0.1238
 1167DOPE   NH313690  13.617  26.515   9.610  0.0248  0.1385 -0.1540
 1167DOPE   PO413691  13.503  26.796   9.763  0.2115 -0.2346  0.1313
 1167DOPE   GL113692  13.331  26.597   9.940 -0.0890  0.2879  0.0998
 1167DOPE   GL213693  13.356  26.668  10.214 -0.1592 -0.0913 -0.3012
 1167DOPE   C1A13694  13.116  26.228  10.129  0.1862 -0.0530 -0.1688
 1167DOPE   D2A13695  13.037  25.800  10.289  0.1606  0.0822  0.1076
 1167DOPE   C3A13696  13.053  25.817  10.775 -0.1115 -0.2289 -0.1808
 1167DOPE   C4A13697  12.879  26.156  10.980 -0.1148  0.1281 -0.0679
 1167DOPE   C1B13698  13.527  26.818  10.591  0.3739 -0.3530  0.1319
 1167DOPE   D2B13699  13.392  26.996  11.012 -0.1034 -0.1318 -0.5747
 1167DOPE   C3B13700  13.319  27.355  11.321  0.0785  0.1995  0.1672
 1167DOPE   C4B13701  12.958  27.424  11.611 -0.1547 -0.0179  0.0215
 1168POSM   NC313702   8.245  30.409  10.239  0.0049 -0.0021  0.0096
 1168POSM   PO413703   8.597  30.327  10.113 -0.0931  0.0950 -0.2132
 1168POSM   AM113704   8.753  30.401  10.369 -0.0853 -0.1512  0.1042
 1168POSM   AM213705   8.987  30.397  10.542  0.3527  0.4015 -0.0962
 1168POSM   T1A13706   8.624  30.519  10.862  0.1120 -0.1094  0.4174
 1168POSM   C2A13707   8.420  30.668  11.287  0.0439  0.0754 -0.4036
 1168POSM   C3A13708   8.506  30.616  11.737 -0.1624 -0.0895  0.2600
 1168POSM   C1B13709   8.948  30.160  10.794  0.0135  0.2575 -0.2893
 1168POSM   D2B13710   8.852  30.219  11.217 -0.0230 -0.0974 -0.1722
 1168POSM   C3B13711   8.918  30.225  11.678 -0.0687 -0.3291 -0.0664
 1168POSM   C4B13712   9.239  30.063  11.962 -0.1304  0.0070 -0.0396
 1169DOPC   NC313713  12.045  32.330  10.303 -0.1143 -0.0393 -0.0513
 1169DOPC   PO413714  11.797  32.031  10.190 -0.3296  0.0062  0.0422
 1169DOPC   GL113715  11.809  31.904  10.528 -0.3202 -0.2024  0.3483
 1169DOPC   GL213716  11.682  31.641  10.549  0.0069 -0.2072  0.2276
 1169DOPC   C1A13717  12.138  31.863  10.846  0.0214 -0.1728  0.0215
 1169DOPC   D2A13718  12.297  31.619  11.185  0.3075  0.0746 -0.0023
 1169DOPC   C3A13719  11.854  31.736  11.321  0.1315  0.2061 -0.2925
 1169DOPC   C4A13720  11.603  31.584  11.660  0.0153 -0.0877  0.1333
 1169DOPC   C1B13721  11.553  31.895  10.887 -0.1895 -0.1479  0.1896
 1169DOPC   D2B13722  11.538  32.278  11.217 -0.3214  0.3190 -0.1119
 1169DOPC   C3B13723  11.635  32.121  11.620  0.0860  0.0223  0.2679
 1169DOPC   C4B13724  11.565  32.194  12.061  0.0772  0.0371  0.1994
 1170DOPC   NC313725   6.618  25.970   9.766 -0.3925  0.1882  0.2023
 1170DOPC   PO413726   6.241  25.912   9.901 -0.0994 -0.0560 -0.0730
 1170DOPC   GL113727   6.032  25.644  10.188 -0.1007 -0.1085 -0.1120
 1170DOPC   GL213728   6.249  25.534  10.277  0.1618 -0.0715 -0.0134
 1170DOPC   C1A13729   5.923  25.567  10.651  0.0832  0.1294 -0.0490
 1170DOPC   D2A13730   5.806  25.399  11.063  0.1828 -0.2487  0.3291
 1170DOPC   C3A13731   5.927  24.922  11.159 -0.1825  0.0730 -0.2501
 1170DOPC   C4A13732   5.821  24.654  11.521  0.1333 -0.1437  0.1559
 1170DOPC   C1B13733   6.493  25.460  10.653 -0.0306 -0.2882 -0.1586
 1170DOPC   D2B13734   6.369  25.182  11.041 -0.0232 -0.0259  0.1593
 1170DOPC   C3B13735   6.187  25.271  11.417 -0.0577 -0.1864  0.0887
 1170DOPC   C4B13736   5.823  25.593  11.590  0.1011  0.0834  0.1017
 1171DOPE   NH313737   1.990  25.425   9.972  0.1912  0.2747 -0.1389
 1171DOPE   PO413738   2.165  25.141   9.889 -0.1014  0.1471 -0.2420
 1171DOPE   GL113739   2.265  24.998  10.202 -0.1459 -0.2263 -0.3043
 1171DOPE   GL213740   2.454  25.162  10.299 -0.1179 -0.1158 -0.2914
 1171DOPE   C1A13741   2.177  24.791  10.615  0.1333  0.1592 -0.2357
 1171DOPE   D2A13742   2.058  24.883  11.060  0.1098 -0.0882  0.2292
 1171DOPE   C3A13743   2.059  24.829  11.569  0.0208 -0.0310  0.2974
 1171DOPE   C4A13744   2.360  24.432  11.872  0.0223  0.3432 -0.0422
 1171DOPE   C1B13745   2.290  25.249  10.771  0.2541  0.2441  0.0285
 1171DOPE   D2B13746   2.441  25.240  11.222  0.0043 -0.1613 -0.1550
 1171DOPE   C3B13747   2.674  25.400  11.634  0.0019  0.0705  0.3789
 1171DOPE   C4B13748   2.680  25.615  12.092 -0.0874  0.2709  0.0579
 1172DOPE   NH313749  10.582  28.151  10.491 -0.2070 -0.0739  0.1831
 1172DOPE   PO413750  10.373  28.135  10.252  0.2323 -0.3017  0.2352
 1172DOPE   GL113751  10.184  28.038  10.644  0.1421 -0.1275 -0.1064
 1172DOPE   GL213752  10.219  27.748  10.624 -0.2051 -0.0441  0.0957
 1172DOPE   C1A13753   9.970  27.904  11.070  0.2338  0.1421  0.3492
 1172DOPE   D2A13754   9.694  27.839  11.410 -0.2457 -0.2617 -0.1047
 1172DOPE   C3A13755   9.568  27.428  11.263  0.3071 -0.0699 -0.1237
 1172DOPE   C4A13756   9.314  27.293  10.890 -0.0988 -0.0546  0.0470
 1172DOPE   C1B13757  10.438  27.911  11.046 -0.0006  0.3243  0.1779
 1172DOPE   D2B13758  10.315  27.918  11.483  0.0424 -0.3845 -0.1299
 1172DOPE   C3B13759  10.463  27.532  11.748 -0.1376 -0.1651  0.1886
 1172DOPE   C4B13760  10.756  27.218  11.882 -0.0486 -0.1451 -0.2481
 1173POSM   NC313761   2.305  22.529   9.903  0.1079  0.1201 -0.4113
 1173POSM   PO413762   2.441  22.890   9.989  0.2178  0.1553 -0.0549
 1173POSM   AM113763   2.584  23.039  10.267  0.1733  0.0906 -0.0971
 1173POSM   AM213764   2.717  23.268  10.389 -0.0505  0.1726  0.0906
 1173POSM   T1A13765   2.616  22.939  10.787  0.2840  0.0148 -0.1051
 1173POSM   C2A13766   2.527  22.976  11.250  0.1853  0.0267 -0.0086
 1173POSM   C3A13767   2.477  22.969  11.723  0.3842 -0.1575  0.0641
 1173POSM   C1B13768   2.879  23.510  10.562 -0.0252  0.3594 -0.1993
 1173POSM   D2B13769   3.075  23.752  10.837  0.1908 -0.3588  0.0789
 1173POSM   C3B13770   2.972  23.757  11.325 -0.0137  0.1858  0.2445
 1173POSM   C4B13771   3.093  23.916  11.758  0.1159 -0.2373 -0.0040
 1174POSM   NC313772   7.343  26.899   9.407  0.2775 -0.3251  0.3685
 1174POSM   PO413773   7.271  27.175   9.718  0.2415  0.1870 -0.0029
 1174POSM   AM113774   7.239  27.266  10.064 -0.3110  0.0805 -0.1179
 1174POSM   AM213775   7.068  27.240  10.287  0.0023 -0.2075 -0.1303
 1174POSM   T1A13776   7.540  27.303  10.402  0.3620  0.1995  0.1000
 1174POSM   C2A13777   7.993  27.288  10.469 -0.2251 -0.0856  0.3088
 1174POSM   C3A13778   8.092  26.880  10.370 -0.2667 -0.1017 -0.1506
 1174POSM   C1B13779   7.084  27.271  10.627  0.0112  0.1222 -0.2855
 1174POSM   D2B13780   7.419  27.345  10.987  0.2076 -0.1231  0.0681
 1174POSM   C3B13781   7.329  27.219  11.474  0.0083  0.0471 -0.0797
 1174POSM   C4B13782   7.519  27.203  11.866 -0.0650 -0.2967  0.1158
 1175POSM   NC313783   4.483  32.899   9.937  0.2746  0.2569  0.0567
 1175POSM   PO413784   4.820  32.690  10.053 -0.0355 -0.1091  0.2720
 1175POSM   AM113785   4.714  32.737  10.356 -0.0613  0.0570  0.2274
 1175POSM   AM213786   4.660  32.952  10.532  0.0704  0.0852 -0.1527
 1175POSM   T1A13787   4.896  32.626  10.800  0.1750 -0.1151 -0.1290
 1175POSM   C2A13788   4.926  32.464  11.262 -0.1428  0.1011  0.1062
 1175POSM   C3A13789   4.827  32.606  11.673  0.0684 -0.0836 -0.0572
 1175POSM   C1B13790   4.468  32.868  10.759 -0.0271  0.0374 -0.1727
 1175POSM   D2B13791   4.547  32.791  11.190 -0.2815  0.1196 -0.1977
 1175POSM   C3B13792   4.287  32.429  11.413  0.3031  0.2262  0.0791
 1175POSM   C4B13793   4.156  32.072  11.668 -0.0547 -0.1577 -0.0795
 1176POSM   NC313794   9.737  27.157   9.631 -0.0357  0.0593  0.0774
 1176POSM   PO413795  10.113  27.316   9.642  0.1404 -0.1176  0.2331
 1176POSM   AM113796  10.133  27.099   9.895  0.0423 -0.2295 -0.0386
 1176POSM   AM213797  10.059  26.880  10.004 -0.1135 -0.0846 -0.1573
 1176POSM   T1A13798  10.174  27.180  10.428 -0.1662  0.3141  0.1528
 1176POSM   C2A13799  10.396  27.126  10.825  0.0213 -0.1956  0.1055
 1176POSM   C3A13800  10.832  27.071  10.987  0.1938 -0.0272 -0.0399
 1176POSM   C1B13801  10.176  26.700  10.199 -0.0988  0.3357  0.0514
 1176POSM   D2B13802  10.589  26.561  10.336  0.3523  0.0468 -0.0494
 1176POSM   C3B13803  10.586  26.632  10.849 -0.0746 -0.1464 -0.0117
 1176POSM   C4B13804  10.686  26.291  11.111  0.0998 -0.2325 -0.1834
 1177DOPC   NC313805   5.193  29.407  10.141  0.0230  0.0474  0.0289
 1177DOPC   PO413806   5.555  29.309   9.992  0.1574  0.2122  0.1628
 1177DOPC   GL113807   5.905  29.210  10.021  0.1446 -0.0836  0.0250
 1177DOPC   GL213808   6.156  29.392  10.113  0.1625  0.1103 -0.0309
 1177DOPC   C1A13809   6.025  28.905  10.391 -0.1222  0.3124 -0.0909
 1177DOPC   D2A13810   6.153  28.893  10.865  0.4656  0.1180  0.1155
 1177DOPC   C3A13811   6.488  29.180  10.994  0.2489  0.1055  0.0545
 1177DOPC   C4A13812   6.814  29.414  11.261 -0.1447  0.1154  0.0423
 1177DOPC   C1B13813   6.018  29.456  10.584  0.1217 -0.0231  0.0268
 1177DOPC   D2B13814   6.064  29.402  11.042  0.0458 -0.2080  0.1443
 1177DOPC   C3B13815   6.089  29.079  11.343 -0.5183  0.0299 -0.0810
 1177DOPC   C4B13816   6.064  29.252  11.795 -0.3108 -0.0069  0.2400
 1178DOPC   NC313817   8.601  26.331   9.763 -0.5068  0.2978  0.1951
 1178DOPC   PO413818   8.319  26.142   9.577  0.3309  0.3615 -0.1537
 1178DOPC   GL113819   8.222  26.013   9.961  0.0191  0.0867 -0.0699
 1178DOPC   GL213820   8.472  25.777   9.991 -0.0274  0.0971 -0.0234
 1178DOPC   C1A13821   7.817  25.936  10.172 -0.2214  0.0010 -0.0284
 1178DOPC   D2A13822   7.681  25.546  10.411 -0.2521 -0.0644  0.3188
 1178DOPC   C3A13823   7.491  25.762  10.790 -0.0768  0.1736 -0.2134
 1178DOPC   C4A13824   7.230  26.060  11.031  0.0317 -0.0596 -0.3559
 1178DOPC   C1B13825   8.155  25.680  10.392 -0.0301 -0.0488 -0.0636
 1178DOPC   D2B13826   8.044  25.849  10.807 -0.0297  0.0182 -0.0299
 1178DOPC   C3B13827   7.835  25.835  11.203  0.1348 -0.0614 -0.0321
 1178DOPC   C4B13828   7.749  25.955  11.646  0.3363  0.0736  0.3683
 1179DOPE   NH313829   8.095  29.687  10.013  0.4076  0.0259  0.3311
 1179DOPE   PO413830   7.968  29.530  10.212  0.1171 -0.0014 -0.0786
 1179DOPE   GL113831   7.912  29.702  10.483  0.0959  0.2079 -0.2910
 1179DOPE   GL213832   7.709  29.523  10.703  0.1227  0.0163  0.1318
 1179DOPE   C1A13833   7.858  30.154  10.599  0.2565 -0.1105  0.2536
 1179DOPE   D2A13834   7.689  30.501  10.904 -0.1144  0.3024  0.2197
 1179DOPE   C3A13835   7.913  30.839  11.216  0.1567 -0.2282  0.1135
 1179DOPE   C4A13836   7.996  30.982  11.623  0.3390 -0.1206  0.0509
 1179DOPE   C1B13837   8.052  29.662  10.967  0.1265 -0.1263  0.2378
 1179DOPE   D2B13838   8.209  29.680  11.386  0.0388  0.2045 -0.0203
 1179DOPE   C3B13839   8.324  29.546  11.814  0.2521  0.1598 -0.1121
 1179DOPE   C4B13840   8.533  29.300  12.165 -0.0885  0.3306 -0.1228
 1180DOPC   NC313841   4.431  27.359  10.196 -0.3221 -0.0174 -0.0710
 1180DOPC   PO413842   4.822  27.461  10.156  0.3650 -0.1007 -0.1033
 1180DOPC   GL113843   4.808  27.571  10.548  0.3003 -0.0742 -0.1604
 1180DOPC   GL213844   4.966  27.768  10.597  0.4645  0.0802 -0.3385
 1180DOPC   C1A13845   4.632  27.578  10.974 -0.0177 -0.0033 -0.0406
 1180DOPC   D2A13846   4.270  27.410  11.204 -0.0726 -0.2158 -0.1028
 1180DOPC   C3A13847   4.496  27.185  11.537 -0.0925 -0.2909  0.0365
 1180DOPC   C4A13848   4.334  26.745  11.507  0.0092 -0.1846 -0.0946
 1180DOPC   C1B13849   5.186  27.629  11.043 -0.3075  0.1112  0.3043
 1180DOPC   D2B13850   4.955  27.504  11.445 -0.1178 -0.2128 -0.1115
 1180DOPC   C3B13851   4.578  27.725  11.468 -0.0212  0.2376  0.1269
 1180DOPC   C4B13852   4.477  28.200  11.413  0.0687  0.0141  0.2032
 1181DOPC   NC313853  10.381  33.050  10.472  0.1757 -0.1000 -0.2211
 1181DOPC   PO413854  10.629  32.746  10.353  0.1243 -0.1542  0.0908
 1181DOPC   GL113855  10.634  32.697  10.773 -0.2874  0.4012 -0.1096
 1181DOPC   GL213856  10.569  32.436  10.862 -0.2101 -0.0476  0.0798
 1181DOPC   C1A13857  10.839  32.868  11.117 -0.2823 -0.1364 -0.1419
 1181DOPC   D2A13858  10.802  32.719  11.582  0.1191 -0.1198  0.2788
 1181DOPC   C3A13859  10.594  32.348  11.711 -0.1592 -0.0004 -0.0193
 1181DOPC   C4A13860  10.407  31.948  11.825 -0.1465  0.3018  0.1567
 1181DOPC   C1B13861  10.359  32.620  11.259 -0.0432  0.0079 -0.3165
 1181DOPC   D2B13862  10.252  32.744  11.663  0.2059  0.2860  0.3958
 1181DOPC   C3B13863  10.616  32.786  12.033  0.2251  0.1104  0.3242
 1181DOPC   C4B13864  10.901  33.018  12.215  0.0023  0.2278 -0.0321
 1182DOPS   CNO13865   9.538   2.100  10.837 -0.2575 -0.3020 -0.1876
 1182DOPS   PO413866   9.800   1.858  10.841  0.2631  0.1232 -0.3292
 1182DOPS   GL113867   9.885   1.714  11.268  0.0019 -0.2677 -0.2803
 1182DOPS   GL213868   9.574   1.801  11.278 -0.1198  0.0463 -0.2262
 1182DOPS   C1A13869   9.977   1.830  11.666  0.1778 -0.3589 -0.1590
 1182DOPS   D2A13870  10.187   1.765  12.095  0.0394 -0.0130  0.3304
 1182DOPS   C3A13871  10.300   1.889  12.476  0.0406 -0.0049 -0.1429
 1182DOPS   C4A13872  10.568   1.959  12.846 -0.0795  0.2118 -0.2255
 1182DOPS   C1B13873   9.647   2.251  11.395  0.0969  0.1668 -0.0125
 1182DOPS   D2B13874   9.880   2.659  11.242 -0.0777 -0.1098 -0.0845
 1182DOPS   C3B13875  10.364   2.656  11.277  0.0330  0.3047  0.0418
 1182DOPS   C4B13876  10.804   2.621  11.220  0.0228 -0.1920  0.2118
 1183POSM   NC313877   9.950  29.763   9.796 -0.3148  0.0792  0.3211
 1183POSM   PO413878  10.283  29.852   9.962  0.1322  0.1356 -0.1343
 1183POSM   AM113879  10.222  29.769  10.243  0.3140  0.2133 -0.1138
 1183POSM   AM213880   9.985  29.793  10.438 -0.0449 -0.1154 -0.2239
 1183POSM   T1A13881  10.301  29.505  10.659  0.0286 -0.0294  0.1121
 1183POSM   C2A13882  10.473  29.196  10.951  0.2375 -0.0832 -0.2920
 1183POSM   C3A13883  10.854  29.353  11.222 -0.0302 -0.0122  0.1918
 1183POSM   C1B13884   9.852  29.717  10.731 -0.0858  0.0063  0.1476
 1183POSM   D2B13885   9.587  29.843  11.100  0.0183  0.0038  0.1725
 1183POSM   C3B13886   9.783  30.164  11.369  0.1722  0.0324 -0.2190
 1183POSM   C4B13887  10.220  30.178  11.517  0.1313  0.2600  0.0819
 1184DOPS   CNO13888   7.733  33.494  10.155  0.0951 -0.2668  0.4178
 1184DOPS   PO413889   7.790  33.280  10.455  0.0962 -0.0625 -0.1573
 1184DOPS   GL113890   7.837  33.338  10.810  0.0489 -0.0275  0.0928
 1184DOPS   GL213891   8.127  33.411  10.818 -0.1125 -0.1916  0.1639
 1184DOPS   C1A13892   7.915  33.733  11.075  0.0604  0.0134  0.0006
 1184DOPS   D2A13893   8.237  33.943  11.339 -0.1347 -0.2991  0.1033
 1184DOPS   C3A13894   8.166  34.062  11.766  0.0177 -0.0633  0.0280
 1184DOPS   C4A13895   8.079  33.813  12.092 -0.4195  0.1053 -0.0167
 1184DOPS   C1B13896   8.428  33.332  11.119  0.2417 -0.0378  0.3642
 1184DOPS   D2B13897   8.753  33.248  11.367  0.0854 -0.1059 -0.1836
 1184DOPS   C3B13898   8.648  33.205  11.810 -0.3672  0.2391 -0.2877
 1184DOPS   C4B13899   8.310  33.219  12.150 -0.0152  0.0401  0.2782
 1185POSM   NC313900   0.628  27.438  10.592  0.2816  0.0117 -0.1562
 1185POSM   PO413901   0.909  27.154  10.470 -0.2212  0.3370  0.0360
 1185POSM   AM113902   1.015  27.234  10.799 -0.0179  0.2100  0.1154
 1185POSM   AM213903   0.850  27.357  11.003 -0.3332  0.0031 -0.1821
 1185POSM   T1A13904   1.401  27.203  11.113  0.0214  0.0588  0.1380
 1185POSM   C2A13905   1.555  27.404  11.524 -0.1971 -0.2641 -0.0254
 1185POSM   C3A13906   1.900  27.458  11.820  0.0853  0.1684  0.0882
 1185POSM   C1B13907   0.906  27.629  11.255 -0.0302  0.0146  0.2585
 1185POSM   D2B13908   1.140  27.697  11.636  0.1086 -0.0184  0.1455
 1185POSM   C3B13909   1.097  27.650  12.099  0.0179  0.2986  0.0017
 1185POSM   C4B13910   0.970  27.857  12.539 -0.0903  0.2639  0.0695
 1186DOPC   NC313911   6.819  28.553   9.454 -0.0781  0.0289  0.0862
 1186DOPC   PO413912   6.701  28.748   9.819 -0.2194  0.0324 -0.1049
 1186DOPC   GL113913   6.504  28.991  10.109  0.2302 -0.0746  0.0629
 1186DOPC   GL213914   6.529  28.785  10.324  0.1093 -0.2906  0.1615
 1186DOPC   C1A13915   6.495  29.310  10.508  0.2982  0.0998  0.4893
 1186DOPC   D2A13916   6.531  29.644  10.804 -0.1132 -0.0486 -0.0427
 1186DOPC   C3A13917   6.330  30.089  10.722  0.1451 -0.0299 -0.1243
 1186DOPC   C4A13918   5.935  30.374  10.715  0.2829  0.4639 -0.0943
 1186DOPC   C1B13919   6.792  28.933  10.615 -0.0071  0.0773  0.2704
 1186DOPC   D2B13920   6.973  29.001  11.018 -0.0976 -0.3834  0.1867
 1186DOPC   C3B13921   6.975  29.047  11.471 -0.0778 -0.0330 -0.0818
 1186DOPC   C4B13922   6.896  29.401  11.729  0.0231 -0.4421 -0.1099
 1187DOPC   NC313923   9.682  28.583   9.976 -0.0449  0.0479 -0.2224
 1187DOPC   PO413924   9.611  28.935  10.110 -0.0726 -0.0368  0.1988
 1187DOPC   GL113925   9.537  28.775  10.468  0.1543 -0.3451 -0.0589
 1187DOPC   GL213926   9.690  28.599  10.482  0.2215 -0.2711 -0.0646
 1187DOPC   C1A13927   9.579  28.910  10.907 -0.2950  0.0850  0.0225
 1187DOPC   D2A13928   9.717  28.749  11.281  0.2991  0.1228 -0.0153
 1187DOPC   C3A13929  10.011  29.009  11.487  0.1601 -0.1319 -0.0025
 1187DOPC   C4A13930  10.336  29.081  11.767  0.1214  0.2311 -0.0600
 1187DOPC   C1B13931   9.811  28.388  10.873 -0.1385 -0.0659  0.1886
 1187DOPC   D2B13932  10.092  28.370  11.255 -0.0333 -0.2977 -0.1162
 1187DOPC   C3B13933   9.912  28.219  11.684 -0.0022 -0.2763  0.1474
 1187DOPC   C4B13934   9.799  27.785  11.872  0.0916 -0.0189 -0.2996
 1188DOPC   NC313935   0.226  25.287  10.655 -0.0312 -0.0818  0.2653
 1188DOPC   PO413936   0.212  25.652  10.571 -0.0793 -0.1029 -0.0218
 1188DOPC   GL113937   0.380  25.662  10.926 -0.0660  0.2567  0.3473
 1188DOPC   GL213938   0.663  25.533  10.919  0.0074  0.1210  0.0947
 1188DOPC   C1A13939   0.336  25.511  11.396  0.2634  0.1572 -0.0307
 1188DOPC   D2A13940   0.107  25.294  11.761  0.0877  0.1797  0.0326
 1188DOPC   C3A13941   0.070  25.289  12.264  0.2546 -0.0639  0.0755
 1188DOPC   C4A13942   0.118  25.071  12.664  0.1715 -0.1195 -0.0437
 1188DOPC   C1B13943   0.864  25.518  11.350 -0.1587 -0.3025 -0.0358
 1188DOPC   D2B13944   0.824  25.348  11.775 -0.1450 -0.0128 -0.2031
 1188DOPC   C3B13945   0.534  24.980  11.765  0.1276  0.1352 -0.0408
 1188DOPC   C4B13946   0.286  24.588  11.952  0.0221 -0.0432  0.0502
 1189POSM   NC313947   7.322  33.421  10.593 -0.0292  0.4134 -0.0237
 1189POSM   PO413948   6.948  33.317  10.589  0.0236  0.0904 -0.1250
 1189POSM   AM113949   6.809  33.299  10.895 -0.0845 -0.3323  0.4284
 1189POSM   AM213950   6.555  33.174  10.965 -0.1123 -0.0729 -0.3373
 1189POSM   T1A13951   6.772  33.166  11.405  0.2577  0.1020 -0.2555
 1189POSM   C2A13952   6.710  32.729  11.587  0.3066 -0.0780 -0.1457
 1189POSM   C3A13953   6.898  32.542  11.947 -0.2516 -0.1034 -0.3096
 1189POSM   C1B13954   6.360  33.316  11.207  0.0301 -0.0065 -0.1164
 1189POSM   D2B13955   6.450  33.496  11.622  0.0984  0.0542 -0.1781
 1189POSM   C3B13956   6.153  33.726  11.897  0.2320 -0.0801 -0.1428
 1189POSM   C4B13957   6.140  34.155  11.949 -0.1788 -0.1414  0.0301
 1190POSM   NC313958   2.826  24.500   9.756 -0.0649  0.2629 -0.0364
 1190POSM   PO413959   2.594  24.164   9.765  0.2799 -0.1700  0.0921
 1190POSM   AM113960   2.580  24.194  10.080 -0.3762 -0.1476  0.0189
 1190POSM   AM213961   2.796  24.157  10.220  0.0260 -0.0578  0.0616
 1190POSM   T1A13962   2.501  24.427  10.508  0.0439 -0.1304  0.0494
 1190POSM   C2A13963   2.330  24.360  10.935  0.1252 -0.2333  0.2793
 1190POSM   C3A13964   2.108  24.001  11.143 -0.0931  0.0226  0.3332
 1190POSM   C1B13965   2.897  24.141  10.589  0.0697  0.1843  0.0596
 1190POSM   D2B13966   2.947  24.247  11.059 -0.1845 -0.2985  0.3024
 1190POSM   C3B13967   3.254  24.254  11.395  0.2083  0.0209 -0.1315
 1190POSM   C4B13968   3.711  24.283  11.353  0.2108 -0.1114  0.3455
 1191DOPE   NH313969   5.002  25.979   9.902  0.0126 -0.1900 -0.3674
 1191DOPE   PO413970   5.173  26.250   9.933  0.1600  0.0703 -0.0199
 1191DOPE   GL113971   5.213  26.208  10.267 -0.0471  0.1281  0.0946
 1191DOPE   GL213972   5.353  26.012  10.451  0.1803 -0.0480 -0.1431
 1191DOPE   C1A13973   5.005  26.313  10.691 -0.0680 -0.1603 -0.2400
 1191DOPE   D2A13974   5.166  26.629  10.996  0.1334 -0.0257 -0.0254
 1191DOPE   C3A13975   5.307  26.494  11.434  0.0261  0.1033  0.1869
 1191DOPE   C4A13976   5.648  26.686  11.755  0.2340  0.1415  0.1357
 1191DOPE   C1B13977   5.397  26.013  10.920  0.1680 -0.0338  0.1295
 1191DOPE   D2B13978   5.355  25.646  11.214 -0.0379 -0.0964 -0.1149
 1191DOPE   C3B13979   5.335  25.797  11.643  0.0125  0.1727 -0.0310
 1191DOPE   C4B13980   5.342  26.231  11.877  0.2240  0.0795  0.1537
 1192DOPS   CNO13981  11.646  30.779  10.085 -0.0135 -0.0124 -0.0050
 1192DOPS   PO413982  11.614  30.468   9.917  0.0303 -0.0638 -0.0373
 1192DOPS   GL113983  11.312  30.419  10.209  0.0700 -0.2230  0.2217
 1192DOPS   GL213984  11.382  30.506  10.409 -0.0799  0.1638  0.0798
 1192DOPS   C1A13985  10.976  30.203  10.374 -0.3500 -0.1814  0.1399
 1192DOPS   D2A13986  10.929  30.300  10.835  0.0750  0.1324 -0.4027
 1192DOPS   C3A13987  10.876  30.188  11.304  0.0961 -0.3976 -0.2037
 1192DOPS   C4A13988  10.652  29.910  11.552 -0.1848  0.4048  0.4537
 1192DOPS   C1B13989  11.601  30.587  10.817  0.3244 -0.1713 -0.0660
 1192DOPS   D2B13990  11.895  30.783  11.111 -0.0029  0.1872  0.1326
 1192DOPS   C3B13991  12.026  31.183  11.399  0.0466 -0.1351 -0.0576
 1192DOPS   C4B13992  12.189  31.555  11.648 -0.0034 -0.1182  0.0865
 1193DOPE   NH313993  12.575  34.256  10.236 -0.0106  0.1423 -0.1972
 1193DOPE   PO413994  12.284  34.414  10.327 -0.1903  0.1801  0.0069
 1193DOPE   GL113995  12.314  34.565  10.807  0.1308 -0.3211 -0.0663
 1193DOPE   GL213996  12.053  34.461  10.853  0.1033 -0.2149  0.0687
 1193DOPE   C1A13997  12.453  34.647  11.262 -0.0282  0.0690  0.0287
 1193DOPE   D2A13998  12.374  34.791  11.710  0.2993 -0.2521 -0.0325
 1193DOPE   C3A13999  12.487  35.194  11.882 -0.1647 -0.5021 -0.0032
 1193DOPE   C4A14000  12.567  35.558  12.110  0.2516 -0.0180  0.0765
 1193DOPE   C1B14001  11.854  34.512  11.246 -0.0024  0.2435 -0.0027
 1193DOPE   D2B14002  11.471  34.457  11.500 -0.2229  0.4852  0.0392
 1193DOPE   C3B14003  11.542  34.288  11.949 -0.3553 -0.0080 -0.1601
 1193DOPE   C4B14004  11.766  34.480  12.294 -0.2039  0.1478 -0.1123
 1194DOPC   NC314005   2.155  29.385   9.949 -0.0640  0.0677 -0.0201
 1194DOPC   PO414006   2.098  29.052  10.142 -0.2519  0.0650  0.0125
 1194DOPC   GL114007   1.968  28.988  10.532 -0.2227 -0.0262  0.1081
 1194DOPC   GL214008   1.715  28.859  10.602 -0.0530 -0.1083  0.2747
 1194DOPC   C1A14009   2.068  29.052  10.981 -0.3855  0.2272  0.4063
 1194DOPC   D2A14010   2.057  28.861  11.404 -0.4027 -0.4443 -0.4148
 1194DOPC   C3A14011   2.294  28.865  11.784  0.0009  0.0204 -0.4352
 1194DOPC   C4A14012   2.383  28.861  12.203  0.0372 -0.0883  0.2315
 1194DOPC   C1B14013   1.955  28.568  10.894  0.2476 -0.4358 -0.0506
 1194DOPC   D2B14014   2.026  28.220  11.226 -0.2209 -0.0682 -0.0346
 1194DOPC   C3B14015   2.166  28.427  11.650  0.1371  0.1379 -0.0646
 1194DOPC   C4B14016   2.022  28.520  12.030 -0.1460 -0.1236  0.0609
 1195DOPC   NC314017   4.366  25.444   9.972 -0.3255  0.0415 -0.0435
 1195DOPC   PO414018   4.508  25.822   9.960  0.3300 -0.1042 -0.0092
 1195DOPC   GL114019   4.574  25.780  10.303  0.2032  0.0073  0.0883
 1195DOPC   GL214020   4.832  25.873  10.423  0.1700  0.1695  0.0708
 1195DOPC   C1A14021   4.561  25.410  10.597  0.1543  0.2165 -0.0725
 1195DOPC   D2A14022   4.536  25.056  10.886  0.1272 -0.1940  0.0985
 1195DOPC   C3A14023   4.350  24.632  10.967 -0.1509 -0.1809 -0.0012
 1195DOPC   C4A14024   4.553  24.260  11.002 -0.0031  0.0858 -0.3252
 1195DOPC   C1B14025   4.752  25.889  10.932  0.2983 -0.3053 -0.0859
 1195DOPC   D2B14026   4.989  26.084  11.323  0.0568 -0.3032 -0.0712
 1195DOPC   C3B14027   4.830  26.460  11.446 -0.0296  0.2699  0.3016
 1195DOPC   C4B14028   4.723  26.659  11.829 -0.2911  0.1048  0.1862
 1196POSM   NC314029  10.577  31.880   9.890 -0.2629  0.1041  0.1490
 1196POSM   PO414030  10.896  31.907  10.139  0.1378  0.0305  0.1096
 1196POSM   AM114031  10.808  31.905  10.437 -0.0373  0.1775  0.0522
 1196POSM   AM214032  10.884  31.966  10.702  0.2869  0.2866  0.2895
 1196POSM   T1A14033  10.382  32.001  10.689  0.1175 -0.0583 -0.0303
 1196POSM   C2A14034  10.023  32.178  10.896 -0.0108 -0.1584  0.0237
 1196POSM   C3A14035   9.614  32.277  10.888  0.2443  0.0765  0.1231
 1196POSM   C1B14036  11.086  32.006  10.940  0.1732 -0.1661  0.2544
 1196POSM   D2B14037  11.285  31.883  11.338  0.1193  0.1548  0.0693
 1196POSM   C3B14038  11.115  31.575  11.662  0.1389 -0.1043  0.1345
 1196POSM   C4B14039  10.783  31.382  11.897  0.1614 -0.0385 -0.1366
 1197POSM   NC314040   0.867  32.364  10.125  0.0794  0.3208  0.0075
 1197POSM   PO414041   1.253  32.397  10.238  0.1285 -0.0731  0.1586
 1197POSM   AM114042   1.443  32.431  10.539  0.1475  0.3283  0.0916
 1197POSM   AM214043   1.453  32.590  10.732  0.0359  0.2639 -0.0792
 1197POSM   T1A14044   1.729  32.187  10.894 -0.0355 -0.3622  0.0581
 1197POSM   C2A14045   1.895  31.795  11.035 -0.2330 -0.3431 -0.2244
 1197POSM   C3A14046   1.872  31.335  11.168  0.1120 -0.0081  0.2124
 1197POSM   C1B14047   1.405  32.549  11.077 -0.0068  0.1716  0.2510
 1197POSM   D2B14048   1.297  32.405  11.547 -0.0984  0.1326 -0.1483
 1197POSM   C3B14049   1.393  32.336  11.966 -0.1493  0.0558 -0.0336
 1197POSM   C4B14050   1.092  32.444  12.264  0.2498 -0.0486  0.3975
 1198DOPS   CNO14051   8.745  27.873  10.085  0.0908 -0.1017 -0.1202
 1198DOPS   PO414052   8.947  27.584  10.180  0.1683 -0.2623 -0.0907
 1198DOPS   GL114053   8.634  27.390  10.323 -0.2647  0.0949  0.2902
 1198DOPS   GL214054   8.894  27.293  10.612 -0.3991  0.0272 -0.0649
 1198DOPS   C1A14055   8.571  26.929  10.390 -0.0872 -0.1738  0.1304
 1198DOPS   D2A14056   8.663  26.507  10.542 -0.0296 -0.2127  0.0684
 1198DOPS   C3A14057   8.551  26.312  10.990  0.0607 -0.2419  0.1570
 1198DOPS   C4A14058   8.304  25.996  11.231  0.4192  0.0572  0.2565
 1198DOPS   C1B14059   8.806  27.352  11.083  0.0532  0.1749  0.0298
 1198DOPS   D2B14060   8.656  27.648  11.441 -0.2267  0.1187 -0.4519
 1198DOPS   C3B14061   8.387  27.345  11.663 -0.0905 -0.0689 -0.4287
 1198DOPS   C4B14062   8.107  27.004  11.837  0.0389  0.0108 -0.1300
 1199POSM   NC314063   4.434  23.669   9.965 -0.2317 -0.3799  0.0157
 1199POSM   PO414064   4.579  23.300   9.946 -0.0293 -0.1084  0.3002
 1199POSM   AM114065   4.732  23.366  10.198  0.0370 -0.1605 -0.3267
 1199POSM   AM214066   4.794  23.622  10.298  0.0083  0.1532  0.1167
 1199POSM   T1A14067   4.608  23.351  10.655  0.2258  0.0206 -0.0846
 1199POSM   C2A14068   4.821  23.229  11.087 -0.0583  0.0835  0.0588
 1199POSM   C3A14069   5.156  23.313  11.417 -0.0537  0.0803  0.0393
 1199POSM   C1B14070   5.037  23.515  10.561 -0.2206 -0.3730 -0.1307
 1199POSM   D2B14071   5.227  23.629  10.975  0.1478 -0.0022 -0.0264
 1199POSM   C3B14072   5.626  23.413  11.169 -0.2976  0.2426  0.1631
 1199POSM   C4B14073   5.830  23.049  11.429 -0.0103  0.0670 -0.1111
 1200DOPE   NH314074   8.330  32.230  10.813 -0.2316 -0.0435 -0.1874
 1200DOPE   PO414075   7.992  32.322  10.742 -0.0010 -0.0794  0.0174
 1200DOPE   GL114076   7.994  32.573  11.100 -0.0657  0.2798 -0.4291
 1200DOPE   GL214077   8.192  32.440  11.257  0.2496 -0.0708  0.1424
 1200DOPE   C1A14078   7.698  32.722  11.428  0.0711 -0.1447 -0.1231
 1200DOPE   D2A14079   7.518  33.056  11.726 -0.0962  0.0102 -0.2171
 1200DOPE   C3A14080   7.642  33.498  11.787 -0.1109 -0.0318  0.1711
 1200DOPE   C4A14081   7.622  33.950  11.961 -0.2267 -0.2720  0.1534
 1200DOPE   C1B14082   8.068  32.173  11.629  0.1643 -0.2519 -0.0103
 1200DOPE   D2B14083   8.091  31.903  12.024 -0.1007 -0.0903  0.0630
 1200DOPE   C3B14084   8.007  31.440  12.136 -0.1666 -0.0314  0.0615
 1200DOPE   C4B14085   8.208  31.046  12.051 -0.0018 -0.0009 -0.0871
 1201DOPE   NH314086   0.634  25.934  10.611  0.2260  0.2681  0.0508
 1201DOPE   PO414087   0.673  26.043  10.881  0.4137 -0.0907 -0.0462
 1201DOPE   GL114088   0.728  25.969  11.346 -0.1266 -0.0896 -0.0994
 1201DOPE   GL214089   1.005  26.053  11.327 -0.1221  0.0442 -0.0916
 1201DOPE   C1A14090   0.502  25.847  11.679 -0.0277 -0.0114  0.1843
 1201DOPE   D2A14091   0.479  25.513  12.017  0.1976 -0.0100 -0.1461
 1201DOPE   C3A14092   0.768  25.374  12.365  0.0343 -0.2002  0.1409
 1201DOPE   C4A14093   0.601  25.242  12.764 -0.2183  0.3039 -0.2191
 1201DOPE   C1B14094   1.167  25.737  11.628  0.0416  0.1983  0.1222
 1201DOPE   D2B14095   1.319  25.285  11.700  0.1424  0.2520  0.1297
 1201DOPE   C3B14096   1.107  25.051  12.063  0.0570  0.0273 -0.5139
 1201DOPE   C4B14097   0.781  24.678  12.093  0.3306  0.1661  0.2237
 1202DOPE   NH314098   0.083  26.059  10.783 -0.1544 -0.0459  0.0134
 1202DOPE   PO414099   0.244  26.372  10.857  0.1089  0.1062  0.0185
 1202DOPE   GL114100   0.416  26.325  11.220  0.4963  0.0207  0.0832
 1202DOPE   GL214101   0.254  26.096  11.271  0.0666 -0.0303  0.1093
 1202DOPE   C1A14102   0.543  26.412  11.642 -0.1396  0.0018  0.2046
 1202DOPE   D2A14103   0.315  26.618  11.960  0.2630  0.1654 -0.0906
 1202DOPE   C3A14104  -0.099  26.441  12.104 -0.4313 -0.1326 -0.0243
 1202DOPE   C4A14105  -0.359  26.185  11.952  0.3161 -0.0767 -0.0379
 1202DOPE   C1B14106   0.096  26.177  11.707 -0.1130  0.2028 -0.0575
 1202DOPE   D2B14107   0.403  26.115  12.096  0.0984  0.0458  0.2377
 1202DOPE   C3B14108   0.845  25.934  12.076  0.0348  0.0768  0.3982
 1202DOPE   C4B14109   1.164  25.554  12.153  0.1944  0.1280 -0.3339
 1203DOPS   CNO14110   7.107  25.596   9.409 -0.1520  0.1610 -0.0050
 1203DOPS   PO414111   6.943  25.642   9.725  0.1518  0.1848  0.2090
 1203DOPS   GL114112   6.867  25.613  10.067 -0.3782 -0.1624 -0.0420
 1203DOPS   GL214113   6.691  25.792  10.309 -0.1240 -0.2563 -0.2384
 1203DOPS   C1A14114   6.696  25.218  10.233  0.1534 -0.0339  0.1038
 1203DOPS   D2A14115   6.435  24.892  10.368 -0.1973  0.2689 -0.1184
 1203DOPS   C3A14116   6.165  24.816  10.743  0.0102  0.0200 -0.0154
 1203DOPS   C4A14117   6.206  24.481  11.095  0.1800  0.0256 -0.1620
 1203DOPS   C1B14118   6.532  25.960  10.752 -0.2225  0.0367  0.1201
 1203DOPS   D2B14119   6.345  25.676  11.041  0.0903 -0.1353  0.2939
 1203DOPS   C3B14120   6.260  25.847  11.497  0.0979 -0.2346 -0.0774
 1203DOPS   C4B14121   6.211  26.302  11.661  0.1246  0.5001  0.0021
 1204POSM   NC314122   9.808  27.393  10.081  0.5057  0.0637  0.2583
 1204POSM   PO414123   9.706  27.765  10.065  0.1423 -0.3607 -0.0658
 1204POSM   AM114124   9.685  27.789  10.407 -0.1189 -0.0017  0.1381
 1204POSM   AM214125   9.656  27.876  10.622 -0.0052 -0.2712  0.0329
 1204POSM   T1A14126   9.852  27.467  10.750  0.2553 -0.0506  0.4621
 1204POSM   C2A14127  10.121  27.454  11.137  0.1964  0.0174  0.2367
 1204POSM   C3A14128  10.022  27.370  11.569  0.0979  0.1954  0.1498
 1204POSM   C1B14129   9.521  27.775  10.921 -0.0525 -0.2291 -0.3844
 1204POSM   D2B14130   9.114  27.763  11.172 -0.1121  0.0416  0.0488
 1204POSM   C3B14131   9.169  27.494  11.547  0.0961  0.1540  0.0627
 1204POSM   C4B14132   8.788  27.450  11.869 -0.2401 -0.0357  0.4513
 1205POSM   NC314133   8.704  29.183  10.346 -0.1830 -0.0005  0.4497
 1205POSM   PO414134   8.486  29.499  10.331  0.0301 -0.2187  0.1934
 1205POSM   AM114135   8.482  29.595  10.646 -0.1574 -0.3536 -0.1311
 1205POSM   AM214136   8.601  29.828  10.766  0.1267 -0.2245  0.0750
 1205POSM   T1A14137   8.560  29.468  11.140 -0.0686  0.2497 -0.3689
 1205POSM   C2A14138   8.705  29.727  11.507 -0.1832 -0.0163  0.1756
 1205POSM   C3A14139   8.708  29.779  11.972  0.0294  0.3808  0.1810
 1205POSM   C1B14140   8.474  29.956  11.038 -0.1747 -0.0249 -0.0190
 1205POSM   D2B14141   8.368  30.197  11.443 -0.2325 -0.1288  0.0733
 1205POSM   C3B14142   8.085  30.012  11.744 -0.0305 -0.3021  0.4762
 1205POSM   C4B14143   8.078  29.866  12.155 -0.0963  0.1004 -0.1165
 1206DOPE   NH314144  11.582  28.362  10.245  0.0588  0.2411  0.1434
 1206DOPE   PO414145  11.767  28.618  10.278  0.0347  0.1901 -0.4133
 1206DOPE   GL114146  11.658  28.688  10.708 -0.2170 -0.1620  0.1166
 1206DOPE   GL214147  11.610  28.435  10.745 -0.0056  0.0769 -0.2333
 1206DOPE   C1A14148  11.420  28.829  11.066  0.3616  0.1906  0.2383
 1206DOPE   D2A14149  11.289  29.127  11.523 -0.1436  0.1553  0.4874
 1206DOPE   C3A14150  10.850  29.145  11.729 -0.3319  0.1169 -0.0253
 1206DOPE   C4A14151  10.680  29.106  12.163 -0.2606  0.2424  0.0792
 1206DOPE   C1B14152  12.066  28.267  10.854  0.3876  0.2877 -0.1324
 1206DOPE   D2B14153  12.389  27.952  10.810  0.1633 -0.1327 -0.1012
 1206DOPE   C3B14154  12.758  28.045  10.942 -0.0820 -0.1739  0.0682
 1206DOPE   C4B14155  13.016  28.097  10.609  0.0863 -0.0582  0.4119
 1207DOPS   CNO14156   0.968   0.475  10.037 -0.0861 -0.0867 -0.2687
 1207DOPS   PO414157   0.965   0.348  10.402 -0.1308  0.1231 -0.2381
 1207DOPS   GL114158   1.064   0.482  10.672  0.0271  0.3749 -0.0712
 1207DOPS   GL214159   0.879   0.752  10.777 -0.2354  0.1427  0.2266
 1207DOPS   C1A14160   1.126   0.356  11.123 -0.3333  0.2679 -0.0173
 1207DOPS   D2A14161   0.894   0.108  11.384 -0.0210 -0.1499  0.2717
 1207DOPS   C3A14162   1.010  -0.111  11.737 -0.1960  0.0287  0.0203
 1207DOPS   C4A14163   1.279  -0.373  12.097 -0.3601  0.0022 -0.1033
 1207DOPS   C1B14164   0.677   0.592  11.150 -0.1206 -0.0900  0.1373
 1207DOPS   D2B14165   0.606   0.460  11.569 -0.0073  0.1616  0.2200
 1207DOPS   C3B14166   0.360   0.749  11.875 -0.0493 -0.1397  0.0163
 1207DOPS   C4B14167  -0.021   0.697  12.131  0.0476  0.2248  0.0213
 1208DOPE   NH314168   7.482  31.456  10.242  0.1414 -0.1643  0.0882
 1208DOPE   PO414169   7.502  31.653  10.475 -0.1423 -0.1293  0.0772
 1208DOPE   GL114170   7.548  31.634  10.758  0.1538  0.0477 -0.2366
 1208DOPE   GL214171   7.812  31.716  10.980  0.1796  0.4349  0.2120
 1208DOPE   C1A14172   7.378  31.769  11.117 -0.0066 -0.5476  0.2427
 1208DOPE   D2A14173   7.252  31.631  11.567 -0.1917  0.0169  0.1181
 1208DOPE   C3A14174   7.017  31.485  11.952 -0.0515  0.0149 -0.0941
 1208DOPE   C4A14175   6.556  31.491  11.991  0.0674  0.1945  0.0331
 1208DOPE   C1B14176   7.794  31.711  11.447 -0.1645  0.0213  0.1277
 1208DOPE   D2B14177   7.621  31.650  11.920 -0.0676  0.2375  0.0013
 1208DOPE   C3B14178   7.438  31.275  12.140 -0.0993  0.1935  0.1347
 1208DOPE   C4B14179   7.301  31.017  12.452  0.1070 -0.3140 -0.0587
 1209POSM   NC314180  33.204  27.195  10.336  0.2268 -0.0453  0.0913
 1209POSM   PO414181  33.331  27.489  10.586 -0.2729 -0.0229  0.0577
 1209POSM   AM114182  33.496  27.501  10.876 -0.1255 -0.1207  0.1946
 1209POSM   AM214183  33.552  27.657  11.089 -0.4888 -0.3695 -0.0502
 1209POSM   T1A14184  33.642  27.142  11.250 -0.2758 -0.1821 -0.0109
 1209POSM   C2A14185  33.810  27.081  11.686 -0.0483  0.2032 -0.0113
 1209POSM   C3A14186  33.812  26.888  12.110 -0.1462  0.2359  0.0330
 1209POSM   C1B14187  33.596  27.661  11.405 -0.0379  0.0819  0.1248
 1209POSM   D2B14188  33.685  27.604  11.849  0.1052  0.0681  0.2486
 1209POSM   C3B14189  33.460  27.907  12.128 -0.2026  0.0851 -0.3033
 1209POSM   C4B14190  33.338  28.205  12.404  0.1153 -0.0527 -0.0944
 1210POSM   NC314191  34.730  31.434  10.257  0.1293  0.1904 -0.0536
 1210POSM   PO414192  35.055  31.520  10.425 -0.1145 -0.1183  0.1846
 1210POSM   AM114193  35.111  31.535  10.745 -0.3443 -0.2744  0.2529
 1210POSM   AM214194  35.329  31.510  10.938  0.1605  0.0196  0.1406
 1210POSM   T1A14195  34.912  31.709  11.136 -0.1170  0.1234 -0.1448
 1210POSM   C2A14196  35.024  31.923  11.517 -0.2186  0.1819 -0.3364
 1210POSM   C3A14197  35.127  32.294  11.838 -0.2283  0.1493  0.2182
 1210POSM   C1B14198  35.500  31.493  11.176  0.0630  0.2271 -0.0397
 1210POSM   D2B14199  35.874  31.459  11.422  0.0097 -0.1570 -0.1094
 1210POSM   C3B14200  35.809  31.315  11.864 -0.2211 -0.1822 -0.0137
 1210POSM   C4B14201  35.715  31.044  12.297 -0.2580 -0.0237 -0.0425
 1211DOPC   NC314202   5.483  31.267   9.981 -0.4504  0.2678  0.2238
 1211DOPC   PO414203   5.410  30.967   9.756  0.1116 -0.0017 -0.1606
 1211DOPC   GL114204   5.596  30.785  10.135 -0.2055 -0.0915 -0.2122
 1211DOPC   GL214205   5.394  30.890  10.353 -0.1168  0.0098  0.0886
 1211DOPC   C1A14206   5.798  30.871  10.595  0.3264 -0.1627  0.0363
 1211DOPC   D2A14207   5.900  30.747  11.021 -0.4508  0.3108 -0.1672
 1211DOPC   C3A14208   6.156  30.430  11.216 -0.1390 -0.2724 -0.2891
 1211DOPC   C4A14209   6.336  30.004  11.224  0.2704 -0.0095  0.0688
 1211DOPC   C1B14210   5.400  30.544  10.667 -0.0223  0.0022  0.2570
 1211DOPC   D2B14211   5.522  30.358  11.059  0.3106  0.0119 -0.0696
 1211DOPC   C3B14212   5.642  30.573  11.436  0.1534 -0.2269 -0.1398
 1211DOPC   C4B14213   5.878  30.626  11.877  0.1445 -0.4786 -0.1898
 1212POSM   NC314214   1.270  30.685  10.435 -0.1404 -0.1688  0.0721
 1212POSM   PO414215   0.955  30.376  10.468 -0.0384  0.0647  0.1293
 1212POSM   AM114216   1.178  30.264  10.727 -0.0572 -0.0690  0.2271
 1212POSM   AM214217   1.471  30.298  10.808  0.1796 -0.0864  0.0142
 1212POSM   T1A14218   1.271  29.811  11.000 -0.1307  0.0729  0.0174
 1212POSM   C2A14219   1.434  29.466  11.269 -0.1677  0.1305  0.1033
 1212POSM   C3A14220   1.581  29.040  11.449 -0.1965 -0.0362 -0.2567
 1212POSM   C1B14221   1.429  30.324  11.176 -0.0176  0.0013  0.2242
 1212POSM   D2B14222   1.359  30.124  11.643  0.0938  0.1244 -0.3745
 1212POSM   C3B14223   1.244  29.877  12.040 -0.0312  0.1456 -0.0890
 1212POSM   C4B14224   1.190  29.840  12.493  0.1989  0.0660  0.1776
 1213DOPE   NH314225   7.849  25.547   8.999 -0.0159  0.0666  0.2286
 1213DOPE   PO414226   7.570  25.334   9.050 -0.0899 -0.2868  0.0073
 1213DOPE   GL114227   7.618  25.451   9.486 -0.2619 -0.0236  0.0510
 1213DOPE   GL214228   7.387  25.251   9.533  0.4609  0.3081 -0.0346
 1213DOPE   C1A14229   7.935  25.543   9.844 -0.1238  0.2419 -0.1082
 1213DOPE   D2A14230   8.304  25.279  10.034 -0.1328 -0.0779  0.1614
 1213DOPE   C3A14231   8.057  24.958  10.197  0.2912  0.3134  0.0107
 1213DOPE   C4A14232   7.867  24.460  10.199  0.0058 -0.0641  0.1629
 1213DOPE   C1B14233   7.592  25.171   9.964  0.2542 -0.1057  0.1379
 1213DOPE   D2B14234   7.605  24.958  10.384  0.2187 -0.2475  0.0819
 1213DOPE   C3B14235   7.467  24.983  10.801 -0.0434  0.0366 -0.1042
 1213DOPE   C4B14236   7.670  25.123  11.200 -0.0242  0.0155 -0.1141
 1214DOPS   CNO14237   2.498  27.881  10.013 -0.0228  0.0180 -0.0225
 1214DOPS   PO414238   2.851  27.877  10.235  0.0039  0.0107 -0.0373
 1214DOPS   GL114239   2.601  27.771  10.550 -0.1101  0.1267  0.0117
 1214DOPS   GL214240   2.385  27.596  10.408  0.0132 -0.0820 -0.0637
 1214DOPS   C1A14241   2.688  27.884  11.008  0.1825  0.3798 -0.1102
 1214DOPS   D2A14242   2.550  28.058  11.417  0.2323 -0.1239 -0.2454
 1214DOPS   C3A14243   2.561  27.771  11.797  0.0464 -0.3130  0.0700
 1214DOPS   C4A14244   2.329  27.676  12.123 -0.2411 -0.1013 -0.2091
 1214DOPS   C1B14245   2.382  27.471  10.860 -0.2061  0.1513  0.0444
 1214DOPS   D2B14246   2.433  27.525  11.342 -0.0361  0.2211  0.0097
 1214DOPS   C3B14247   2.451  27.251  11.688 -0.2551  0.1816  0.1641
 1214DOPS   C4B14248   2.511  27.096  12.133 -0.1528 -0.3148 -0.0434
 1215DOPC   NC314249   1.852  30.131  10.507  0.2363  0.0842 -0.2416
 1215DOPC   PO414250   1.811  30.489  10.436  0.0223 -0.4050  0.3140
 1215DOPC   GL114251   1.829  30.601  10.817 -0.3327  0.1788 -0.1448
 1215DOPC   GL214252   1.974  30.414  10.961 -0.0776  0.0403  0.2100
 1215DOPC   C1A14253   2.127  30.893  11.105  0.1562  0.1087 -0.1356
 1215DOPC   D2A14254   2.174  31.090  11.521 -0.4102  0.0913 -0.0248
 1215DOPC   C3A14255   1.818  30.995  11.722  0.0644 -0.0073  0.0885
 1215DOPC   C4A14256   1.405  31.071  11.590  0.0292  0.0590 -0.0260
 1215DOPC   C1B14257   2.256  30.403  11.315 -0.0330  0.3014 -0.1584
 1215DOPC   D2B14258   2.225  30.596  11.794 -0.0498  0.1734  0.1407
 1215DOPC   C3B14259   2.345  30.344  12.155  0.1087 -0.1837  0.1727
 1215DOPC   C4B14260   2.575  30.317  12.547 -0.0826  0.0886 -0.0008
 1216DOPC   NC314261   7.772  32.662  10.492  0.3743 -0.0933  0.1278
 1216DOPC   PO414262   7.592  32.894  10.778 -0.1516 -0.1394 -0.2374
 1216DOPC   GL114263   7.478  32.984  11.153  0.2587  0.1526 -0.0766
 1216DOPC   GL214264   7.177  33.022  10.966 -0.0223 -0.0689  0.0215
 1216DOPC   C1A14265   7.842  33.215  11.390 -0.0196  0.3112 -0.0392
 1216DOPC   D2A14266   8.119  33.566  11.581  0.3005  0.0975  0.0200
 1216DOPC   C3A14267   8.568  33.641  11.624  0.2842 -0.0819  0.3025
 1216DOPC   C4A14268   8.996  33.583  11.697  0.4312  0.0739 -0.2725
 1216DOPC   C1B14269   6.796  32.751  11.026 -0.1410 -0.0974  0.3584
 1216DOPC   D2B14270   6.562  32.436  11.252 -0.1906  0.2212  0.0416
 1216DOPC   C3B14271   6.392  32.305  11.660 -0.1066 -0.1137 -0.1023
 1216DOPC   C4B14272   6.326  32.094  12.102  0.1406 -0.0201  0.5832
 1217DOPC   NC314273   0.404  28.514  10.350 -0.0488  0.1944 -0.0584
 1217DOPC   PO414274   0.671  28.404  10.081  0.1817  0.0801 -0.1171
 1217DOPC   GL114275   0.913  28.427  10.483 -0.1068  0.2281 -0.1741
 1217DOPC   GL214276   1.093  28.262  10.459  0.0463 -0.0459  0.2451
 1217DOPC   C1A14277   0.674  28.378  10.903 -0.3093  0.3197 -0.1090
 1217DOPC   D2A14278   0.420  28.370  11.275  0.1394  0.1306  0.0923
 1217DOPC   C3A14279   0.677  28.498  11.685  0.1102 -0.2760  0.0397
 1217DOPC   C4A14280   0.951  28.645  12.018 -0.1594 -0.1385  0.3161
 1217DOPC   C1B14281   1.284  28.583  10.685  0.0442 -0.0721  0.0796
 1217DOPC   D2B14282   1.509  28.678  11.085 -0.3803  0.0741 -0.0935
 1217DOPC   C3B14283   1.615  28.381  11.358  0.1725 -0.0066 -0.0263
 1217DOPC   C4B14284   1.641  28.366  11.822 -0.1296 -0.0421 -0.1312
 1218DOPS   CNO14285   6.372  31.312   9.935  0.2984  0.1951  0.0080
 1218DOPS   PO414286   6.233  31.658  10.070 -0.2620 -0.1562 -0.1108
 1218DOPS   GL114287   6.263  31.506  10.467  0.3209 -0.1207  0.0538
 1218DOPS   GL214288   6.504  31.671  10.607 -0.1667 -0.0119  0.1364
 1218DOPS   C1A14289   6.221  31.124  10.782 -0.2832  0.4587  0.0611
 1218DOPS   D2A14290   6.492  30.836  10.981 -0.0277 -0.0841 -0.0471
 1218DOPS   C3A14291   6.919  30.811  11.001 -0.0255 -0.2153  0.2414
 1218DOPS   C4A14292   7.380  30.816  11.173 -0.0583 -0.3522  0.0624
 1218DOPS   C1B14293   6.255  31.635  10.968  0.1347 -0.0109  0.1219
 1218DOPS   D2B14294   5.969  31.371  11.152  0.0926  0.1167  0.4480
 1218DOPS   C3B14295   5.577  31.187  11.012  0.0776  0.1734  0.0160
 1218DOPS   C4B14296   5.367  30.798  11.073  0.3244  0.1004  0.0233
 1219POSM   NC314297   1.986  24.319  10.458 -0.0587  0.1170  0.0570
 1219POSM   PO414298   2.020  23.958  10.317  0.1630  0.1536  0.1126
 1219POSM   AM114299   2.265  23.832  10.464  0.5545  0.5404 -0.0230
 1219POSM   AM214300   2.531  23.856  10.499 -0.1927 -0.2223  0.1343
 1219POSM   T1A14301   2.365  23.415  10.716  0.0698  0.2438 -0.1681
 1219POSM   C2A14302   2.732  23.356  10.996 -0.2015 -0.2839 -0.1742
 1219POSM   C3A14303   3.150  23.340  11.137  0.0087  0.0160 -0.0973
 1219POSM   C1B14304   2.535  23.857  10.863 -0.0912 -0.1249 -0.1778
 1219POSM   D2B14305   2.494  23.710  11.306 -0.2831  0.1088 -0.1526
 1219POSM   C3B14306   2.464  23.563  11.781 -0.1236 -0.0346 -0.0843
 1219POSM   C4B14307   2.258  23.433  12.156 -0.0983 -0.0485  0.1040
 1220POSM   NC314308   4.814  33.775   9.821  0.1135 -0.4210  0.1144
 1220POSM   PO414309   4.683  33.660  10.179  0.2041  0.1148  0.2771
 1220POSM   AM114310   4.704  33.488  10.450  0.0323 -0.4833 -0.0009
 1220POSM   AM214311   4.586  33.502  10.667 -0.2545  0.3764 -0.0646
 1220POSM   T1A14312   4.991  33.165  10.777  0.0293 -0.0823  0.2182
 1220POSM   C2A14313   4.977  33.081  11.171 -0.0522  0.1367  0.1351
 1220POSM   C3A14314   5.156  33.005  11.616  0.2740 -0.1340  0.0720
 1220POSM   C1B14315   4.583  33.421  11.010  0.1802 -0.0289 -0.1831
 1220POSM   D2B14316   4.645  33.409  11.480 -0.0316 -0.1453 -0.0449
 1220POSM   C3B14317   4.530  33.028  11.658  0.2739 -0.0804  0.0626
 1220POSM   C4B14318   4.199  32.771  11.953 -0.0075 -0.0405 -0.0051
 1221DOPE   NH314319   0.717  29.509   9.999 -0.0904  0.1487  0.0124
 1221DOPE   PO414320   0.885  29.368  10.243 -0.2110 -0.0782  0.0375
 1221DOPE   GL114321   0.856  29.243  10.656 -0.2013  0.3671 -0.2008
 1221DOPE   GL214322   1.048  29.333  10.801  0.2387 -0.0882 -0.1464
 1221DOPE   C1A14323   0.676  29.017  11.036  0.2113  0.0450  0.1072
 1221DOPE   D2A14324   0.712  28.945  11.489  0.1520  0.0231 -0.2466
 1221DOPE   C3A14325   1.142  28.998  11.719  0.0924 -0.1393 -0.1325
 1221DOPE   C4A14326   1.515  28.829  11.969  0.0547  0.2171 -0.1076
 1221DOPE   C1B14327   1.190  28.983  10.981 -0.1694  0.1283  0.2894
 1221DOPE   D2B14328   1.013  28.605  11.182 -0.0797  0.0309 -0.2552
 1221DOPE   C3B14329   1.196  28.416  11.560  0.1944  0.0226 -0.0634
 1221DOPE   C4B14330   1.176  28.138  11.865  0.0212  0.0574 -0.2029
 1222DOPC   NC314331   1.330  22.239   9.989  0.1906 -0.1188 -0.2457
 1222DOPC   PO414332   1.471  22.600   9.921 -0.2542  0.1522  0.3548
 1222DOPC   GL114333   1.406  22.627  10.359 -0.0455 -0.0464 -0.1204
 1222DOPC   GL214334   1.383  22.315  10.507 -0.4690  0.2069  0.0911
 1222DOPC   C1A14335   1.265  22.923  10.663  0.0124 -0.0775 -0.1210
 1222DOPC   D2A14336   1.003  22.799  11.036 -0.4128  0.1114  0.0167
 1222DOPC   C3A14337   1.136  22.890  11.471  0.1421  0.2012 -0.1540
 1222DOPC   C4A14338   0.955  23.107  11.778  0.1171 -0.0768 -0.2082
 1222DOPC   C1B14339   1.732  22.623  10.667  0.1845  0.1160  0.0638
 1222DOPC   D2B14340   2.096  22.858  10.852 -0.0062 -0.1933  0.2121
 1222DOPC   C3B14341   2.132  22.727  11.313  0.1138  0.1363 -0.0035
 1222DOPC   C4B14342   2.028  22.628  11.745 -0.1118 -0.0045  0.1380
 1223POSM   NC314343  13.061  27.754   9.650 -0.1629 -0.0478 -0.1982
 1223POSM   PO414344  13.126  27.411   9.469 -0.0134  0.0331  0.2087
 1223POSM   AM114345  13.084  27.209   9.706  0.1777  0.3208 -0.1339
 1223POSM   AM214346  12.983  26.944   9.806 -0.0610  0.2931  0.1896
 1223POSM   T1A14347  13.286  27.174  10.168 -0.0637 -0.1026 -0.0522
 1223POSM   C2A14348  13.393  27.296  10.580 -0.4660 -0.3414  0.0166
 1223POSM   C3A14349  13.824  27.223  10.807 -0.0995  0.1618  0.3348
 1223POSM   C1B14350  12.895  26.754  10.043  0.2643  0.0778 -0.1879
 1223POSM   D2B14351  12.728  26.569  10.380 -0.1784  0.4614  0.1417
 1223POSM   C3B14352  12.562  26.785  10.692  0.0544  0.0863 -0.0937
 1223POSM   C4B14353  12.617  27.021  11.090  0.0764  0.1537 -0.2020
 1224POSM   NC314354   6.652  28.347  10.102 -0.0910  0.1067  0.0701
 1224POSM   PO414355   6.981  28.171  10.204  0.0020  0.1263  0.4786
 1224POSM   AM114356   6.905  28.093  10.510  0.2034 -0.0175 -0.2261
 1224POSM   AM214357   6.789  27.818  10.605 -0.1870 -0.0414  0.0992
 1224POSM   T1A14358   6.941  28.082  11.014 -0.2078 -0.0174  0.3960
 1224POSM   C2A14359   6.960  28.022  11.476 -0.1000 -0.0542  0.0435
 1224POSM   C3A14360   7.103  27.624  11.747  0.0464  0.0170 -0.2128
 1224POSM   C1B14361   6.752  27.625  10.873 -0.2826 -0.1011  0.2857
 1224POSM   D2B14362   6.924  27.210  11.119 -0.2312  0.0983  0.0585
 1224POSM   C3B14363   6.930  26.891  11.418  0.1204  0.1335  0.2104
 1224POSM   C4B14364   6.668  26.666  11.685  0.1309  0.0738 -0.0743
 1225DOPC   NC314365  13.881   8.403  13.220 -0.0754 -0.1946 -0.0486
 1225DOPC   PO414366  14.101   8.720  13.117  0.0221 -0.1993  0.1548
 1225DOPC   GL114367  14.038   8.694  12.760  0.3299  0.1270  0.1475
 1225DOPC   GL214368  13.965   8.378  12.746 -0.0151  0.1707 -0.0635
 1225DOPC   C1A14369  13.991   8.871  12.334 -0.2347  0.3504  0.0903
 1225DOPC   D2A14370  13.600   8.927  12.153 -0.0147  0.0315  0.4634
 1225DOPC   C3A14371  13.387   8.931  11.779  0.4530 -0.1677  0.0633
 1225DOPC   C4A14372  13.314   9.036  11.348  0.3679 -0.0952 -0.2287
 1225DOPC   C1B14373  13.633   8.498  12.390  0.1578 -0.1779 -0.2888
 1225DOPC   D2B14374  13.273   8.414  12.087 -0.1041 -0.4435  0.1707
 1225DOPC   C3B14375  13.283   8.484  11.647 -0.2980  0.3322 -0.4412
 1225DOPC   C4B14376  13.482   8.190  11.339  0.1272 -0.0674  0.0927
 1226DOPC   NC314377  21.199   2.449  14.140  0.2608 -0.2433 -0.2342
 1226DOPC   PO414378  21.242   2.668  14.409 -0.0603  0.5021 -0.1865
 1226DOPC   GL114379  21.453   2.892  14.182  0.2139 -0.2384 -0.1166
 1226DOPC   GL214380  21.333   2.866  13.913  0.0227  0.1160 -0.2841
 1226DOPC   C1A14381  21.877   2.735  14.085 -0.1221  0.2262 -0.3001
 1226DOPC   D2A14382  22.298   2.729  13.873 -0.1331 -0.1328  0.2149
 1226DOPC   C3A14383  22.620   3.081  13.961 -0.0063 -0.4164  0.1961
 1226DOPC   C4A14384  22.812   3.448  13.885 -0.0734 -0.1095  0.3100
 1226DOPC   C1B14385  21.698   2.808  13.650 -0.0346  0.3058 -0.1297
 1226DOPC   D2B14386  21.937   2.736  13.257  0.2419  0.3200  0.0091
 1226DOPC   C3B14387  22.272   2.964  12.969 -0.0104 -0.3254 -0.0364
 1226DOPC   C4B14388  22.340   3.321  12.703  0.1529  0.0090 -0.2757
 1227DOPE   NH314389  22.270  11.643  13.697  0.2212  0.0760  0.1042
 1227DOPE   PO414390  22.532  11.701  13.524  0.3820 -0.4377  0.3126
 1227DOPE   GL114391  22.417  11.589  13.139 -0.1403 -0.0214 -0.2075
 1227DOPE   GL214392  22.195  11.653  12.921  0.2004  0.0738  0.1757
 1227DOPE   C1A14393  22.328  11.172  12.847 -0.0093 -0.1266  0.2621
 1227DOPE   D2A14394  22.282  10.925  12.484 -0.1589  0.1080 -0.1557
 1227DOPE   C3A14395  22.196  10.507  12.525  0.0358  0.2289 -0.0078
 1227DOPE   C4A14396  22.179  10.129  12.305 -0.1143 -0.0979 -0.1050
 1227DOPE   C1B14397  22.258  11.842  12.515 -0.2105 -0.1322  0.1796
 1227DOPE   D2B14398  22.137  11.788  12.068 -0.1797 -0.0188 -0.0333
 1227DOPE   C3B14399  21.815  11.895  11.742 -0.0764 -0.1444  0.0986
 1227DOPE   C4B14400  21.807  11.974  11.291 -0.0120  0.0086  0.2248
 1228DOPE   NH314401  11.366   9.339  13.430 -0.0910 -0.1642  0.0693
 1228DOPE   PO414402  11.250   9.596  13.327  0.0161 -0.1400 -0.0532
 1228DOPE   GL114403  11.126   9.315  12.988  0.0062  0.0062 -0.1523
 1228DOPE   GL214404  11.262   9.521  12.798  0.1738 -0.2948 -0.0737
 1228DOPE   C1A14405  10.880   8.990  12.757 -0.1181 -0.0680 -0.2018
 1228DOPE   D2A14406  10.804   8.669  12.499  0.3727  0.3116  0.0388
 1228DOPE   C3A14407  10.870   8.674  12.037 -0.1537  0.2111  0.0382
 1228DOPE   C4A14408  11.090   8.470  11.681 -0.2657  0.0626  0.2225
 1228DOPE   C1B14409  11.280   9.455  12.355 -0.1255  0.0593  0.2493
 1228DOPE   D2B14410  11.025   9.615  11.968 -0.3766  0.2173 -0.2398
 1228DOPE   C3B14411  10.888   9.236  11.756 -0.0164  0.1237  0.2814
 1228DOPE   C4B14412  10.845   8.911  11.444 -0.1673  0.2299  0.1516
 1229DOPC   NC314413  23.756  13.649  13.482  0.1262  0.0289  0.3004
 1229DOPC   PO414414  23.478  13.341  13.370 -0.1141 -0.1434  0.2174
 1229DOPC   GL114415  23.558  13.211  12.944 -0.3304  0.1435  0.2081
 1229DOPC   GL214416  23.843  13.358  12.992  0.0874 -0.2355 -0.0347
 1229DOPC   C1A14417  23.664  12.941  12.557 -0.0843 -0.0316  0.2339
 1229DOPC   D2A14418  23.599  12.897  12.102  0.0567  0.0423  0.0364
 1229DOPC   C3A14419  23.973  12.662  11.924  0.5119  0.0940  0.3294
 1229DOPC   C4A14420  24.167  12.323  11.639 -0.0502  0.1515  0.2183
 1229DOPC   C1B14421  23.635  13.648  12.724  0.1940 -0.0633 -0.2201
 1229DOPC   D2B14422  23.790  13.969  12.352  0.1399  0.0631 -0.0042
 1229DOPC   C3B14423  23.587  14.241  12.009  0.0475  0.1327  0.3003
 1229DOPC   C4B14424  23.748  14.586  11.697  0.2888  0.0788 -0.1262
 1230DOPC   NC314425  23.607   9.157  13.827 -0.1816 -0.0458  0.0437
 1230DOPC   PO414426  23.247   9.264  13.733 -0.2659  0.0693  0.0058
 1230DOPC   GL114427  23.063   9.263  13.396  0.0674 -0.2682  0.1222
 1230DOPC   GL214428  22.861   9.093  13.391  0.1254 -0.1003  0.0669
 1230DOPC   C1A14429  23.084   9.204  12.947  0.2128 -0.0233 -0.0259
 1230DOPC   D2A14430  23.192   8.912  12.626 -0.3812 -0.1931 -0.0776
 1230DOPC   C3A14431  22.949   8.660  12.316  0.1155 -0.2560 -0.0742
 1230DOPC   C4A14432  22.995   8.201  12.235  0.5485 -0.3573  0.2434
 1230DOPC   C1B14433  22.510   8.986  13.124  0.0604  0.0691 -0.2337
 1230DOPC   D2B14434  22.138   9.066  12.832  0.1622 -0.1915  0.1142
 1230DOPC   C3B14435  21.835   9.405  12.708 -0.3236 -0.5781 -0.4608
 1230DOPC   C4B14436  21.941   9.830  12.639 -0.2221 -0.2915  0.0314
 1231POSM   NC314437  12.760   1.181  13.829 -0.0187 -0.0770  0.0636
 1231POSM   PO414438  13.138   1.249  13.729  0.0657 -0.0405  0.1002
 1231POSM   AM114439  13.023   1.413  13.481 -0.0173  0.0816  0.1234
 1231POSM   AM214440  13.070   1.594  13.296  0.4479 -0.0991 -0.1103
 1231POSM   T1A14441  12.739   1.395  13.030 -0.0405  0.1064  0.2213
 1231POSM   C2A14442  12.525   1.668  12.772 -0.1128  0.1836 -0.0686
 1231POSM   C3A14443  12.491   2.121  12.607  0.1743 -0.3541  0.0043
 1231POSM   C1B14444  13.257   1.423  13.083  0.0603 -0.2385 -0.0012
 1231POSM   D2B14445  13.184   1.399  12.575 -0.0418  0.0482  0.0520
 1231POSM   C3B14446  13.608   1.584  12.454 -0.0343 -0.1276 -0.0481
 1231POSM   C4B14447  13.800   2.003  12.382 -0.0176 -0.1202  0.0589
 1232DOPS   CNO14448  21.063  12.215  13.017 -0.4429  0.0036  0.0018
 1232DOPS   PO414449  20.999  12.130  12.643 -0.3365  0.0606 -0.0179
 1232DOPS   GL114450  21.137  11.994  12.267  0.2065  0.1604 -0.1396
 1232DOPS   GL214451  21.060  11.707  12.195 -0.0148 -0.0754 -0.0301
 1232DOPS   C1A14452  21.564  12.030  12.197 -0.0938 -0.1510 -0.3847
 1232DOPS   D2A14453  21.905  12.299  12.149  0.0139 -0.0929  0.2066
 1232DOPS   C3A14454  22.156  12.269  11.736  0.1570 -0.0555  0.0126
 1232DOPS   C4A14455  22.041  12.444  11.269 -0.0121 -0.0431 -0.4136
 1232DOPS   C1B14456  21.306  11.919  11.796 -0.3261  0.4069  0.3893
 1232DOPS   D2B14457  21.169  11.960  11.344  0.2958 -0.3350 -0.3827
 1232DOPS   C3B14458  21.429  11.678  11.044 -0.1003 -0.0905  0.0685
 1232DOPS   C4B14459  21.377  11.215  11.018  0.1809 -0.1376 -0.0078
 1233DOPC   NC314460  18.373   3.363  13.612  0.1075  0.2619 -0.1226
 1233DOPC   PO414461  18.402   2.978  13.733 -0.0497  0.2096 -0.0560
 1233DOPC   GL114462  18.405   2.935  13.269 -0.0651 -0.4552 -0.1979
 1233DOPC   GL214463  18.692   2.882  13.196 -0.2389 -0.1779  0.2026
 1233DOPC   C1A14464  18.048   2.829  12.984 -0.1099 -0.0185  0.0730
 1233DOPC   D2A14465  17.891   2.748  12.531 -0.0759 -0.3824 -0.0093
 1233DOPC   C3A14466  18.024   2.978  12.144  0.1424 -0.3107  0.0657
 1233DOPC   C4A14467  18.123   3.413  11.986  0.3107 -0.1159 -0.1935
 1233DOPC   C1B14468  18.828   2.592  12.862 -0.0930  0.1465  0.2725
 1233DOPC   D2B14469  18.823   2.197  12.655  0.1581 -0.1711  0.1430
 1233DOPC   C3B14470  18.555   2.093  12.320  0.0545  0.2401  0.0599
 1233DOPC   C4B14471  18.632   2.307  11.869 -0.1850 -0.0748  0.0585
 1234DOPE   NH314472  14.721   5.812  14.200 -0.3503  0.0731 -0.2414
 1234DOPE   PO414473  14.680   5.533  13.995 -0.1395  0.2535  0.1939
 1234DOPE   GL114474  14.756   5.493  13.585  0.1062 -0.0106 -0.4071
 1234DOPE   GL214475  14.950   5.507  13.355  0.0163  0.2949 -0.1894
 1234DOPE   C1A14476  14.482   5.323  13.220  0.1818 -0.0908  0.1500
 1234DOPE   D2A14477  14.033   5.279  12.998  0.1653 -0.0508  0.0196
 1234DOPE   C3A14478  13.804   4.870  12.997  0.0082  0.0023 -0.2711
 1234DOPE   C4A14479  13.685   4.623  12.606 -0.1588 -0.2216  0.1367
 1234DOPE   C1B14480  15.148   5.667  12.950  0.0102 -0.0067 -0.1444
 1234DOPE   D2B14481  14.916   5.833  12.564  0.0555  0.1761 -0.2196
 1234DOPE   C3B14482  15.220   6.177  12.334 -0.0334 -0.4781 -0.2657
 1234DOPE   C4B14483  15.268   6.177  11.887  0.0259 -0.3484 -0.2397
 1235POSM   NC314484  20.787  10.500  12.774  0.3134 -0.0865 -0.0630
 1235POSM   PO414485  20.889  10.754  13.039  0.1173 -0.0534  0.0156
 1235POSM   AM114486  21.173  10.865  12.935  0.3522 -0.0401  0.2384
 1235POSM   AM214487  21.366  10.733  12.808 -0.0421  0.0548 -0.0977
 1235POSM   T1A14488  21.396  11.196  12.650  0.2580  0.1105 -0.2309
 1235POSM   C2A14489  21.472  11.095  12.200 -0.1352 -0.0211  0.0111
 1235POSM   C3A14490  21.698  10.974  11.801 -0.1861  0.0206  0.0536
 1235POSM   C1B14491  21.193  10.705  12.503 -0.2994 -0.0651  0.2007
 1235POSM   D2B14492  20.997  10.456  12.177 -0.3001 -0.1617 -0.0201
 1235POSM   C3B14493  20.907  10.460  11.758  0.2917  0.0767  0.0345
 1235POSM   C4B14494  20.590  10.387  11.422 -0.2893  0.0534 -0.1875
 1236DOPS   CNO14495  20.739  12.685  12.967 -0.1414  0.4698  0.1623
 1236DOPS   PO414496  20.965  12.668  12.645  0.1890  0.3019 -0.0602
 1236DOPS   GL114497  21.093  12.882  12.396  0.0764  0.3996  0.1476
 1236DOPS   GL214498  21.393  12.917  12.419 -0.0995  0.0075  0.0287
 1236DOPS   C1A14499  21.160  13.150  12.002  0.1555 -0.0200  0.0914
 1236DOPS   D2A14500  21.335  13.600  11.940  0.1476 -0.1079 -0.3706
 1236DOPS   C3A14501  21.526  13.811  11.576 -0.3971 -0.0046  0.1367
 1236DOPS   C4A14502  21.782  14.034  11.210 -0.0341 -0.1778 -0.1310
 1236DOPS   C1B14503  21.351  12.580  12.105  0.1204 -0.2296  0.0701
 1236DOPS   D2B14504  21.572  12.307  11.762 -0.0689  0.1415  0.0900
 1236DOPS   C3B14505  21.551  12.410  11.369 -0.2549  0.1512  0.1873
 1236DOPS   C4B14506  21.689  12.650  10.980  0.2080  0.1634  0.0271
 1237DOPC   NC314507  20.747   1.983  14.693 -0.0665 -0.0016  0.0105
 1237DOPC   PO414508  20.991   1.666  14.715 -0.0292  0.2046 -0.1300
 1237DOPC   GL114509  21.417   1.712  14.651  0.1701 -0.0255 -0.0007
 1237DOPC   GL214510  21.395   1.381  14.669 -0.0992  0.1578  0.3132
 1237DOPC   C1A14511  21.500   1.734  14.192  0.3112  0.1044  0.1744
 1237DOPC   D2A14512  21.618   1.849  13.749  0.2145 -0.2963 -0.1056
 1237DOPC   C3A14513  21.865   1.912  13.361 -0.1953  0.1300  0.1656
 1237DOPC   C4A14514  22.179   2.173  13.150  0.0142 -0.3725  0.1971
 1237DOPC   C1B14515  21.790   1.385  14.449 -0.2913 -0.0251  0.2313
 1237DOPC   D2B14516  21.979   1.595  14.058  0.0920 -0.1482  0.1353
 1237DOPC   C3B14517  22.105   1.485  13.645 -0.3574 -0.0085 -0.1371
 1237DOPC   C4B14518  21.970   1.465  13.148 -0.0944  0.1902 -0.2647
 1238DOPE   NH314519  18.148   4.876  14.199  0.1422 -0.0198 -0.1370
 1238DOPE   PO414520  17.921   4.859  13.956 -0.0887  0.0999 -0.1009
 1238DOPE   GL114521  17.783   5.143  13.706  0.2991 -0.1246 -0.0400
 1238DOPE   GL214522  17.566   5.080  13.441 -0.0412  0.0255  0.3570
 1238DOPE   C1A14523  17.979   5.279  13.320 -0.0267  0.0590 -0.2405
 1238DOPE   D2A14524  17.878   5.586  12.993  0.2397  0.2593  0.1333
 1238DOPE   C3A14525  17.849   5.380  12.581 -0.0708  0.3206  0.0797
 1238DOPE   C4A14526  17.611   5.222  12.235 -0.0232 -0.1501  0.1355
 1238DOPE   C1B14527  17.514   5.234  13.040 -0.1631 -0.0230 -0.0593
 1238DOPE   D2B14528  17.201   5.539  12.910 -0.3136  0.4364 -0.0685
 1238DOPE   C3B14529  17.279   5.803  12.463 -0.1623 -0.2584  0.0106
 1238DOPE   C4B14530  17.336   5.703  12.009  0.1109  0.2139  0.2251
 1239DOPE   NH314531  16.816   7.567  13.560  0.1494 -0.2013  0.0104
 1239DOPE   PO414532  16.822   7.305  13.397 -0.0612  0.2589  0.0992
 1239DOPE   GL114533  16.885   7.198  13.037 -0.1088 -0.0570  0.1073
 1239DOPE   GL214534  16.630   7.073  12.925  0.0369 -0.0614  0.2921
 1239DOPE   C1A14535  16.948   7.219  12.564  0.3774  0.0614  0.2380
 1239DOPE   D2A14536  17.057   7.358  12.132  0.0446 -0.1121  0.0467
 1239DOPE   C3A14537  17.038   7.189  11.699  0.1654 -0.0870 -0.1824
 1239DOPE   C4A14538  17.227   6.992  11.349 -0.1079 -0.0442  0.0387
 1239DOPE   C1B14539  16.433   6.970  12.544  0.2822  0.0932  0.1007
 1239DOPE   D2B14540  16.165   6.902  12.163 -0.0149  0.0028 -0.2895
 1239DOPE   C3B14541  16.179   6.812  11.741  0.2013 -0.0084 -0.0700
 1239DOPE   C4B14542  16.374   6.472  11.432 -0.2886  0.0067 -0.1321
 1240DOPC   NC314543  21.890  12.182  12.625  0.2249  0.2000 -0.0637
 1240DOPC   PO414544  21.806  12.461  12.895  0.0409  0.1517  0.0727
 1240DOPC   GL114545  21.982  12.693  12.526 -0.2551  0.3274 -0.1103
 1240DOPC   GL214546  22.263  12.586  12.687  0.1252  0.0580 -0.1724
 1240DOPC   C1A14547  21.785  12.792  12.112 -0.2657  0.1468 -0.1236
 1240DOPC   D2A14548  21.866  12.659  11.726  0.0876 -0.0223  0.4265
 1240DOPC   C3A14549  21.769  12.926  11.356 -0.2538  0.0176 -0.3604
 1240DOPC   C4A14550  21.782  13.194  10.957 -0.2452 -0.0874  0.1502
 1240DOPC   C1B14551  22.421  12.356  12.292  0.1704  0.1620 -0.0268
 1240DOPC   D2B14552  22.648  12.091  11.932  0.3233  0.1527  0.1242
 1240DOPC   C3B14553  22.412  11.857  11.636  0.2295 -0.2473  0.0360
 1240DOPC   C4B14554  22.237  11.650  11.285  0.2359  0.1373  0.1933
 1241POSM   NC314555  19.944   5.727  13.513 -0.0241  0.1772 -0.1594
 1241POSM   PO414556  19.962   5.495  13.827 -0.1023  0.0544  0.0838
 1241POSM   AM114557  20.102   5.300  13.582  0.4248  0.0543  0.2360
 1241POSM   AM214558  20.343   5.206  13.466  0.0554  0.1521 -0.3567
 1241POSM   T1A14559  20.059   5.177  13.076 -0.0074 -0.1267 -0.1571
 1241POSM   C2A14560  19.962   5.144  12.652 -0.0646  0.0467 -0.1171
 1241POSM   C3A14561  19.958   5.162  12.208 -0.0946  0.0711 -0.2523
 1241POSM   C1B14562  20.614   5.284  13.286  0.2604  0.0391 -0.1384
 1241POSM   D2B14563  20.775   5.497  12.889  0.1250  0.0502 -0.1251
 1241POSM   C3B14564  20.849   5.952  12.770  0.0390  0.2476  0.1193
 1241POSM   C4B14565  20.568   6.310  12.951 -0.1932 -0.3185  0.0751
 1242DOPE   NH314566  10.476   9.619  13.483  0.1045  0.1071 -0.2743
 1242DOPE   PO414567  10.522   9.371  13.270 -0.1604  0.0019 -0.0310
 1242DOPE   GL114568  10.633   9.388  12.885  0.0749 -0.2025  0.1926
 1242DOPE   GL214569  10.463   9.580  12.752 -0.0036  0.0286  0.2294
 1242DOPE   C1A14570  10.509   9.136  12.502  0.1937  0.0777  0.0596
 1242DOPE   D2A14571  10.379   9.123  12.101 -0.0880  0.1543  0.0025
 1242DOPE   C3A14572  10.454   8.864  11.722 -0.1014 -0.1278  0.3398
 1242DOPE   C4A14573  10.410   8.862  11.248 -0.1534 -0.2274  0.1107
 1242DOPE   C1B14574  10.603   9.585  12.277  0.1661 -0.0173 -0.2145
 1242DOPE   D2B14575  10.513   9.583  11.826 -0.1994  0.1127 -0.1453
 1242DOPE   C3B14576  10.486   9.547  11.359  0.1447  0.1055  0.0907
 1242DOPE   C4B14577  10.270   9.389  10.896 -0.0687 -0.1891  0.1017
 1243DOPS   CNO14578  17.812   3.633  13.931 -0.0498 -0.0858  0.0575
 1243DOPS   PO414579  18.034   3.951  13.832 -0.0248 -0.2531  0.2371
 1243DOPS   GL114580  18.163   3.999  13.463  0.0045  0.1376 -0.1145
 1243DOPS   GL214581  18.024   3.713  13.307  0.1859 -0.0054 -0.0972
 1243DOPS   C1A14582  17.957   4.300  13.152  0.2129  0.0345  0.1677
 1243DOPS   D2A14583  17.995   4.503  12.690 -0.1257  0.0814 -0.2604
 1243DOPS   C3A14584  17.863   4.852  12.452  0.1446  0.1051 -0.2303
 1243DOPS   C4A14585  17.825   4.880  11.988  0.0240 -0.0151 -0.0354
 1243DOPS   C1B14586  17.921   3.785  12.898 -0.5047 -0.0757  0.2049
 1243DOPS   D2B14587  17.749   4.099  12.572  0.0027  0.0716 -0.3768
 1243DOPS   C3B14588  17.748   4.389  12.251 -0.1315  0.1267 -0.0099
 1243DOPS   C4B14589  18.182   4.528  12.146 -0.0028  0.3295 -0.1697
 1244POSM   NC314590  18.953   8.480  13.536 -0.1476 -0.1212 -0.0538
 1244POSM   PO414591  19.299   8.312  13.509 -0.0032 -0.0321  0.1566
 1244POSM   AM114592  19.239   8.277  13.193  0.0278  0.4339 -0.3530
 1244POSM   AM214593  19.393   8.294  12.969  0.3820 -0.0398  0.1070
 1244POSM   T1A14594  19.064   8.054  12.778 -0.1194 -0.1374 -0.2748
 1244POSM   C2A14595  19.284   7.844  12.484  0.2282 -0.0027  0.0186
 1244POSM   C3A14596  19.494   7.705  12.072  0.2113 -0.0003  0.2308
 1244POSM   C1B14597  19.609   8.080  12.747 -0.1148  0.1506  0.3187
 1244POSM   D2B14598  19.825   8.023  12.342  0.1974 -0.0852  0.0541
 1244POSM   C3B14599  19.997   7.646  12.213 -0.2535  0.1959  0.0784
 1244POSM   C4B14600  20.262   7.453  11.904  0.2149  0.0777  0.0046
 1245POSM   NC314601  16.596   8.113  13.791 -0.1973  0.0927  0.2884
 1245POSM   PO414602  16.502   7.989  13.435  0.0138 -0.0237  0.0602
 1245POSM   AM114603  16.561   8.200  13.151  0.4085 -0.1943  0.1264
 1245POSM   AM214604  16.531   8.202  12.897  0.1156 -0.0300 -0.1979
 1245POSM   T1A14605  16.875   8.548  12.986  0.0327 -0.2584  0.0947
 1245POSM   C2A14606  16.985   8.861  12.646 -0.2536  0.0546  0.1411
 1245POSM   C3A14607  17.058   9.256  12.331 -0.0483  0.1266  0.1772
 1245POSM   C1B14608  16.497   8.370  12.615  0.3195 -0.0329  0.3730
 1245POSM   D2B14609  16.689   8.702  12.333 -0.0354  0.0088 -0.3867
 1245POSM   C3B14610  16.713   8.937  11.904 -0.0228  0.1065  0.0811
 1245POSM   C4B14611  16.827   8.991  11.418  0.4197  0.2222 -0.1084
 1246DOPC   NC314612  12.783   0.473  13.581  0.0114  0.2413  0.1447
 1246DOPC   PO414613  12.501   0.771  13.700  0.1100 -0.2739  0.2707
 1246DOPC   GL114614  12.606   0.978  13.332  0.2376 -0.1214  0.4256
 1246DOPC   GL214615  12.905   1.014  13.307 -0.0647 -0.1749 -0.0899
 1246DOPC   C1A14616  12.341   0.988  12.929  0.0473  0.1305  0.0664
 1246DOPC   D2A14617  12.260   0.928  12.467  0.3290 -0.0373  0.1629
 1246DOPC   C3A14618  12.237   0.462  12.337  0.2292  0.1988 -0.4253
 1246DOPC   C4A14619  12.347   0.009  12.253 -0.0321 -0.0445 -0.1601
 1246DOPC   C1B14620  13.093   0.983  12.845  0.3246 -0.0080 -0.3652
 1246DOPC   D2B14621  13.033   0.915  12.421 -0.4492  0.1194  0.0563
 1246DOPC   C3B14622  13.364   1.109  12.241 -0.0387 -0.0998 -0.0623
 1246DOPC   C4B14623  13.473   1.489  11.970  0.2106 -0.0597 -0.1070
 1247DOPS   CNO14624  21.120   3.146  14.280 -0.0520  0.2160  0.1771
 1247DOPS   PO414625  21.412   3.346  14.134 -0.2255  0.0597  0.0929
 1247DOPS   GL114626  21.685   3.219  13.843  0.0471  0.1665  0.0115
 1247DOPS   GL214627  21.961   3.213  13.924 -0.1324  0.2390 -0.2165
 1247DOPS   C1A14628  21.691   3.256  13.401  0.1420  0.1080  0.0105
 1247DOPS   D2A14629  21.866   3.323  13.014  0.2047 -0.3151  0.3183
 1247DOPS   C3A14630  22.054   3.683  12.841 -0.1923  0.1127  0.0094
 1247DOPS   C4A14631  22.441   3.896  12.758 -0.0513 -0.2190  0.1895
 1247DOPS   C1B14632  22.239   3.081  13.570 -0.0756  0.2847 -0.0767
 1247DOPS   D2B14633  22.551   2.910  13.403 -0.2704  0.1784  0.0432
 1247DOPS   C3B14634  22.920   3.158  13.457 -0.2338  0.0249 -0.2480
 1247DOPS   C4B14635  23.323   3.364  13.614 -0.3688  0.1043 -0.1961
 1248DOPE   NH314636  22.010   9.775  13.627  0.1776 -0.3637  0.0195
 1248DOPE   PO414637  22.311   9.863  13.554 -0.2970 -0.1188 -0.0377
 1248DOPE   GL114638  22.328   9.788  13.141 -0.1710  0.1785 -0.1478
 1248DOPE   GL214639  22.145   9.589  13.062  0.1936  0.0231  0.1217
 1248DOPE   C1A14640  22.387  10.077  12.808 -0.0764 -0.3035  0.0746
 1248DOPE   D2A14641  22.701  10.266  12.510  0.0515 -0.0452 -0.5174
 1248DOPE   C3A14642  22.898  10.323  12.104  0.2344 -0.0389 -0.0147
 1248DOPE   C4A14643  23.041  10.707  11.928 -0.0804  0.0224 -0.0656
 1248DOPE   C1B14644  22.436   9.484  12.746 -0.0437  0.0358  0.2574
 1248DOPE   D2B14645  22.852   9.353  12.552  0.0149  0.0156 -0.2918
 1248DOPE   C3B14646  22.743   9.151  12.190 -0.0204  0.0183  0.2516
 1248DOPE   C4B14647  22.624   8.991  11.768 -0.0631  0.0728 -0.1138
 1249POSM   NC314648  20.337   6.935  13.696 -0.0589  0.0728 -0.2472
 1249POSM   PO414649  20.404   7.302  13.841 -0.0735 -0.2129  0.0443
 1249POSM   AM114650  20.544   7.357  13.564  0.3833  0.2377  0.0728
 1249POSM   AM214651  20.802   7.281  13.425 -0.2466 -0.0189 -0.0969
 1249POSM   T1A14652  20.441   7.564  13.103 -0.0655 -0.2030 -0.1383
 1249POSM   C2A14653  20.580   7.572  12.627 -0.0702 -0.0538 -0.0798
 1249POSM   C3A14654  20.645   7.764  12.227  0.0569  0.3287 -0.3811
 1249POSM   C1B14655  20.881   7.354  13.074  0.0924 -0.3442 -0.0387
 1249POSM   D2B14656  20.910   7.243  12.667  0.1764 -0.0398  0.1409
 1249POSM   C3B14657  20.957   7.396  12.255 -0.1768 -0.0517  0.3808
 1249POSM   C4B14658  20.747   7.400  11.864  0.0109  0.0741 -0.3308
 1250POSM   NC314659  21.970  34.639  15.075  0.0120  0.0678  0.0870
 1250POSM   PO414660  21.867  35.010  15.046 -0.0453 -0.0009 -0.1476
 1250POSM   AM114661  21.999  35.072  14.719  0.1398 -0.3234 -0.1829
 1250POSM   AM214662  21.837  35.084  14.470  0.3720  0.1299 -0.2403
 1250POSM   T1A14663  22.394  35.238  14.474  0.0225 -0.0706  0.1632
 1250POSM   C2A14664  22.680  35.305  14.141  0.2051 -0.0196  0.1425
 1250POSM   C3A14665  22.943  35.354  13.804  0.0873  0.1447 -0.1449
 1250POSM   C1B14666  22.017  34.891  14.289 -0.0883 -0.3874 -0.1139
 1250POSM   D2B14667  22.441  34.888  14.106  0.1787  0.0077  0.0860
 1250POSM   C3B14668  22.488  35.058  13.653 -0.1884  0.1909  0.0154
 1250POSM   C4B14669  22.335  35.398  13.440 -0.0704 -0.1220 -0.0126
 1251DOPC   NC314670  14.890   9.345  13.006  0.2377 -0.2675 -0.0819
 1251DOPC   PO414671  14.559   9.464  12.776 -0.0137 -0.0524 -0.2179
 1251DOPC   GL114672  14.725   9.344  12.408 -0.1569 -0.3525  0.0865
 1251DOPC   GL214673  14.977   9.266  12.497  0.3567  0.1734 -0.0637
 1251DOPC   C1A14674  14.746   9.748  12.164 -0.1337 -0.0881 -0.2110
 1251DOPC   D2A14675  14.781  10.198  12.210  0.0971 -0.1340 -0.1272
 1251DOPC   C3A14676  14.991  10.328  11.825  0.2566 -0.0169 -0.0714
 1251DOPC   C4A14677  15.438  10.354  11.760 -0.0041  0.0420 -0.0784
 1251DOPC   C1B14678  14.980   9.184  12.057  0.1049 -0.1535 -0.1352
 1251DOPC   D2B14679  15.190   8.889  11.722 -0.0268 -0.0988 -0.1434
 1251DOPC   C3B14680  15.624   8.720  11.665  0.0413  0.1890 -0.0729
 1251DOPC   C4B14681  15.926   8.419  11.825  0.0081  0.0351  0.2393
 1252DOPC   NC314682  13.739   4.507  13.947 -0.1235 -0.0793 -0.0162
 1252DOPC   PO414683  13.506   4.300  13.736 -0.2764 -0.2726 -0.1448
 1252DOPC   GL114684  13.304   4.586  13.485 -0.3196 -0.5065  0.2500
 1252DOPC   GL214685  13.605   4.601  13.377 -0.1667  0.1003 -0.1589
 1252DOPC   C1A14686  13.243   4.807  13.088 -0.4582 -0.1171  0.2378
 1252DOPC   D2A14687  13.275   4.928  12.654  0.1342 -0.0047 -0.2917
 1252DOPC   C3A14688  13.028   5.277  12.548 -0.1085 -0.1098 -0.0292
 1252DOPC   C4A14689  12.906   5.372  12.084  0.2018 -0.2075  0.0477
 1252DOPC   C1B14690  13.964   4.410  13.100 -0.1920  0.2754  0.0481
 1252DOPC   D2B14691  14.023   4.198  12.655 -0.2803  0.3342  0.1896
 1252DOPC   C3B14692  14.512   4.251  12.445  0.2163 -0.2441 -0.1856
 1252DOPC   C4B14693  14.652   3.968  12.171  0.1319  0.0403  0.1356
 1253POSM   NC314694  17.391   4.937  14.161  0.0310  0.0938 -0.1211
 1253POSM   PO414695  17.473   4.721  13.806  0.0218  0.0096  0.0280
 1253POSM   AM114696  17.220   4.813  13.581  0.7273 -0.0334  0.4576
 1253POSM   AM214697  17.044   4.664  13.387  0.0858  0.1419 -0.0293
 1253POSM   T1A14698  17.030   5.160  13.246 -0.1322  0.2286 -0.2570
 1253POSM   C2A14699  16.956   5.120  12.797 -0.2057  0.1598 -0.2508
 1253POSM   C3A14700  16.832   4.897  12.323 -0.0049  0.2841  0.1221
 1253POSM   C1B14701  17.066   4.681  13.052 -0.3473  0.2074  0.4434
 1253POSM   D2B14702  17.037   4.472  12.550 -0.1662 -0.0067 -0.1951
 1253POSM   C3B14703  17.278   4.754  12.213 -0.0149  0.0693 -0.1371
 1253POSM   C4B14704  17.169   5.074  11.909  0.2623  0.0857 -0.1253
 1254POSM   NC314705  25.457   2.136  15.049  0.0662  0.0956 -0.1699
 1254POSM   PO414706  25.789   2.197  15.217 -0.3483 -0.1284  0.0273
 1254POSM   AM114707  25.876   2.442  14.974 -0.0398 -0.1079  0.2848
 1254POSM   AM214708  25.834   2.706  14.894  0.0182 -0.2156  0.0991
 1254POSM   T1A14709  25.890   2.426  14.479  0.0342 -0.5794  0.1090
 1254POSM   C2A14710  25.663   2.731  14.136 -0.0546  0.1298  0.2170
 1254POSM   C3A14711  25.504   2.885  13.729 -0.2690 -0.0066 -0.0823
 1254POSM   C1B14712  25.673   2.920  14.703  0.1348  0.1125 -0.1112
 1254POSM   D2B14713  25.329   3.217  14.567  0.1420 -0.0374 -0.1251
 1254POSM   C3B14714  25.457   3.629  14.447 -0.0997 -0.2617  0.2583
 1254POSM   C4B14715  25.408   3.818  14.067  0.1841  0.1934 -0.0436
 1255DOPE   NH314716  23.598  12.449  13.550  0.2167 -0.2057 -0.1048
 1255DOPE   PO414717  23.852  12.549  13.396  0.2322 -0.4790 -0.0708
 1255DOPE   GL114718  23.895  12.709  12.961  0.2585  0.1447 -0.1333
 1255DOPE   GL214719  24.128  12.868  12.968  0.4301  0.1664 -0.2050
 1255DOPE   C1A14720  24.106  12.631  12.520  0.0349  0.0650  0.1968
 1255DOPE   D2A14721  24.303  12.295  12.235 -0.1585 -0.3265 -0.2623
 1255DOPE   C3A14722  24.697  12.054  12.348 -0.3628  0.4430  0.1040
 1255DOPE   C4A14723  24.937  11.767  12.637 -0.1010 -0.1028 -0.1091
 1255DOPE   C1B14724  24.551  12.622  12.830 -0.0130  0.1504  0.0810
 1255DOPE   D2B14725  24.688  12.567  12.386 -0.2322  0.0556  0.0573
 1255DOPE   C3B14726  24.514  12.809  12.027 -0.3241  0.1427  0.0970
 1255DOPE   C4B14727  24.464  13.282  11.979  0.2122  0.1228  0.0744
 1256DOPC   NC314728  17.548  10.178  12.526  0.0462  0.3298  0.2893
 1256DOPC   PO414729  17.876  10.323  12.723 -0.0880 -0.0555 -0.2208
 1256DOPC   GL114730  18.022  10.421  12.364 -0.0168  0.0579  0.0646
 1256DOPC   GL214731  17.807  10.537  12.222  0.0655 -0.0991  0.1317
 1256DOPC   C1A14732  18.295  10.299  12.013 -0.3864  0.2445  0.2068
 1256DOPC   D2A14733  18.404  10.320  11.559 -0.1398  0.3059  0.2464
 1256DOPC   C3A14734  18.088  10.114  11.283 -0.0248 -0.1434  0.1812
 1256DOPC   C4A14735  17.755  10.391  11.209  0.0025  0.0348 -0.0985
 1256DOPC   C1B14736  17.778  10.099  12.086 -0.4020  0.1145  0.2670
 1256DOPC   D2B14737  18.071   9.906  11.743  0.0590  0.0159  0.0458
 1256DOPC   C3B14738  17.985   9.484  11.535 -0.2224  0.0217 -0.0088
 1256DOPC   C4B14739  18.113   9.295  11.170 -0.1041 -0.0064  0.0330
 1257DOPE   NH314740  19.649   5.100  13.724 -0.0404 -0.3978  0.1587
 1257DOPE   PO414741  19.371   4.894  13.638  0.0826  0.3862  0.0052
 1257DOPE   GL114742  19.548   4.720  13.301 -0.1967  0.3088 -0.0634
 1257DOPE   GL214743  19.591   4.929  13.164 -0.1637 -0.1955  0.0131
 1257DOPE   C1A14744  19.380   4.567  12.875 -0.1707 -0.0469 -0.2393
 1257DOPE   D2A14745  19.104   4.770  12.577 -0.2359  0.0981 -0.0229
 1257DOPE   C3A14746  19.062   4.833  12.131 -0.0554 -0.3907  0.0106
 1257DOPE   C4A14747  18.771   5.102  11.876 -0.0578  0.0442  0.2978
 1257DOPE   C1B14748  19.411   5.100  12.755  0.3607  0.3861  0.2627
 1257DOPE   D2B14749  19.483   5.160  12.292 -0.1156 -0.1299  0.2804
 1257DOPE   C3B14750  19.545   4.881  11.876  0.0963  0.0134  0.2517
 1257DOPE   C4B14751  19.282   4.512  11.775 -0.2603  0.0277  0.2802
 1258DOPE   NH314752  19.937   3.110  14.016 -0.4917 -0.4144 -0.1148
 1258DOPE   PO414753  20.241   3.112  13.968  0.3939 -0.0005  0.0560
 1258DOPE   GL114754  20.513   3.230  13.677  0.2382 -0.1042  0.1819
 1258DOPE   GL214755  20.768   3.032  13.551  0.1570 -0.1139 -0.2714
 1258DOPE   C1A14756  20.466   3.250  13.165  0.0631 -0.1463  0.0055
 1258DOPE   D2A14757  20.284   3.388  12.779 -0.0726 -0.2058  0.3062
 1258DOPE   C3A14758  20.306   3.600  12.368 -0.0177 -0.0207  0.0497
 1258DOPE   C4A14759  20.427   4.028  12.180 -0.2925  0.0603 -0.1610
 1258DOPE   C1B14760  20.944   2.615  13.641 -0.0113 -0.0834  0.1228
 1258DOPE   D2B14761  20.946   2.185  13.478  0.1623  0.0182 -0.0315
 1258DOPE   C3B14762  21.282   2.052  13.233  0.0157  0.0706  0.4108
 1258DOPE   C4B14763  21.597   2.230  12.970 -0.0357 -0.1817  0.1094
 1259DOPE   NH314764  20.691   3.606  13.885 -0.1002 -0.1081 -0.1058
 1259DOPE   PO414765  20.661   3.411  14.096 -0.1319 -0.4746 -0.0673
 1259DOPE   GL114766  20.973   3.271  13.904 -0.0950 -0.0506  0.1122
 1259DOPE   GL214767  21.141   3.528  13.769 -0.0414  0.2277 -0.1626
 1259DOPE   C1A14768  21.212   3.154  13.507  0.2570  0.1392  0.1505
 1259DOPE   D2A14769  21.004   3.016  13.112  0.0825  0.2964  0.2445
 1259DOPE   C3A14770  20.925   2.540  13.092  0.2173 -0.3472 -0.2058
 1259DOPE   C4A14771  20.652   2.131  13.023  0.0334  0.2238  0.3007
 1259DOPE   C1B14772  20.881   3.492  13.359  0.2821  0.0405  0.0384
 1259DOPE   D2B14773  20.792   3.474  12.908 -0.1154 -0.1975 -0.0100
 1259DOPE   C3B14774  20.803   3.251  12.519  0.1312  0.0901  0.0204
 1259DOPE   C4B14775  21.011   3.119  12.129 -0.0537  0.0633 -0.1252
 1260DOPS   CNO14776  11.812   6.406  14.153 -0.0552 -0.0533 -0.0910
 1260DOPS   PO414777  11.782   6.361  13.768  0.3243  0.0983 -0.2678
 1260DOPS   GL114778  11.789   6.201  13.380  0.0774 -0.2193 -0.5380
 1260DOPS   GL214779  11.546   6.036  13.265 -0.3827  0.1594 -0.3539
 1260DOPS   C1A14780  12.135   5.953  13.116 -0.1491 -0.0819 -0.0772
 1260DOPS   D2A14781  12.142   5.532  12.882  0.0483  0.2549  0.1272
 1260DOPS   C3A14782  12.063   5.707  12.426 -0.2348  0.1709  0.0656
 1260DOPS   C4A14783  12.083   5.692  11.940 -0.1292  0.1215  0.1120
 1260DOPS   C1B14784  11.282   5.898  12.874  0.3193 -0.0448  0.0153
 1260DOPS   D2B14785  11.160   6.045  12.447 -0.2073 -0.1188 -0.3423
 1260DOPS   C3B14786  10.706   6.194  12.464 -0.3575  0.1117 -0.0068
 1260DOPS   C4B14787  10.304   6.067  12.235 -0.0552 -0.0249 -0.1687
 1261DOPE   NH314788  19.268   9.593  12.817 -0.2549 -0.0541  0.1835
 1261DOPE   PO414789  19.050   9.828  12.839  0.1049 -0.1620 -0.1488
 1261DOPE   GL114790  18.948   9.799  12.494 -0.4707  0.1052 -0.0555
 1261DOPE   GL214791  18.635   9.775  12.488 -0.0637  0.0972  0.2067
 1261DOPE   C1A14792  18.966   9.715  12.031  0.0675  0.1777 -0.0735
 1261DOPE   D2A14793  18.877   9.449  11.720  0.2923  0.2009  0.0571
 1261DOPE   C3A14794  19.043   9.192  11.462 -0.2002 -0.1030  0.0461
 1261DOPE   C4A14795  19.004   9.024  10.999 -0.1332 -0.1110 -0.0626
 1261DOPE   C1B14796  18.446   9.774  12.023 -0.0854 -0.0633 -0.1802
 1261DOPE   D2B14797  18.587   9.802  11.577 -0.0289 -0.1068 -0.0280
 1261DOPE   C3B14798  18.355   9.707  11.215 -0.1980  0.1223 -0.0583
 1261DOPE   C4B14799  18.479   9.650  10.787 -0.1616 -0.0541  0.1596
 1262DOPE   NH314800  16.024   7.375  13.477 -0.0080 -0.0463 -0.1717
 1262DOPE   PO414801  16.277   7.554  13.383  0.2164  0.0158  0.1413
 1262DOPE   GL114802  16.331   7.685  13.029 -0.0470  0.0270 -0.0217
 1262DOPE   GL214803  16.606   7.684  13.034 -0.0378 -0.0063  0.0262
 1262DOPE   C1A14804  16.261   7.906  12.629  0.1322  0.1594 -0.2691
 1262DOPE   D2A14805  16.138   8.155  12.240 -0.3481  0.0314 -0.2120
 1262DOPE   C3A14806  16.385   8.451  12.017  0.0024 -0.0103  0.0126
 1262DOPE   C4A14807  16.615   8.432  11.619 -0.0152 -0.1900 -0.1591
 1262DOPE   C1B14808  16.787   7.665  12.590 -0.1018  0.0761 -0.0703
 1262DOPE   D2B14809  17.049   7.865  12.265  0.3218 -0.1167 -0.0661
 1262DOPE   C3B14810  17.332   7.728  11.902 -0.1803  0.1867 -0.1080
 1262DOPE   C4B14811  17.717   7.701  11.676 -0.1799 -0.1333 -0.1300
 1263POSM   NC314812  16.836   3.411  13.505  0.1144  0.3654 -0.2259
 1263POSM   PO414813  16.613   3.688  13.729 -0.2042 -0.4812 -0.0293
 1263POSM   AM114814  16.528   3.739  13.402 -0.0490  0.2746  0.1098
 1263POSM   AM214815  16.460   3.958  13.208  0.0533 -0.0841  0.0373
 1263POSM   T1A14816  16.370   3.529  12.938 -0.1722  0.1757 -0.5216
 1263POSM   C2A14817  16.572   3.744  12.610 -0.0486  0.2052 -0.1571
 1263POSM   C3A14818  16.793   3.889  12.267 -0.3492  0.0487 -0.0773
 1263POSM   C1B14819  16.310   4.067  12.891  0.2249  0.1182 -0.0892
 1263POSM   D2B14820  16.093   4.352  12.584  0.0190  0.1653 -0.1463
 1263POSM   C3B14821  16.245   4.248  12.188  0.2157  0.0620  0.1789
 1263POSM   C4B14822  16.332   4.313  11.730 -0.0040 -0.0061  0.0566
 1264POSM   NC314823  15.233   2.806  14.038 -0.2088 -0.0715  0.3329
 1264POSM   PO414824  15.605   2.861  13.938  0.0772 -0.2349  0.0173
 1264POSM   AM114825  15.625   2.744  13.626  0.0361  0.3899 -0.0765
 1264POSM   AM214826  15.861   2.769  13.458 -0.5186 -0.2314 -0.1859
 1264POSM   T1A14827  15.489   2.716  13.140 -0.1359  0.3445  0.2820
 1264POSM   C2A14828  15.572   2.418  12.750  0.6182  0.0857 -0.1378
 1264POSM   C3A14829  15.420   2.021  12.593 -0.1451  0.3227 -0.2520
 1264POSM   C1B14830  16.179   2.706  13.255 -0.3419 -0.1780  0.2884
 1264POSM   D2B14831  16.440   2.401  13.031  0.0531  0.0760 -0.1687
 1264POSM   C3B14832  16.204   2.307  12.658  0.3943 -0.0902 -0.2231
 1264POSM   C4B14833  16.410   2.254  12.241 -0.1924 -0.2917 -0.0910
 1265DOPC   NC314834  18.157   8.497  13.472 -0.0900 -0.2013 -0.1007
 1265DOPC   PO414835  18.515   8.638  13.348  0.0450  0.2622  0.0524
 1265DOPC   GL114836  18.361   8.633  12.932 -0.0995  0.0817 -0.3730
 1265DOPC   GL214837  18.041   8.499  12.968  0.0612 -0.3490  0.0879
 1265DOPC   C1A14838  18.400   8.722  12.455 -0.1029 -0.1421 -0.0600
 1265DOPC   D2A14839  18.327   8.734  12.008  0.4076  0.0420 -0.1575
 1265DOPC   C3A14840  18.248   8.549  11.569 -0.2897  0.0168  0.0787
 1265DOPC   C4A14841  18.162   8.708  11.107  0.1156 -0.5270 -0.0029
 1265DOPC   C1B14842  18.120   8.238  12.597 -0.4006 -0.1363  0.3186
 1265DOPC   D2B14843  18.267   8.285  12.192  0.1990 -0.1042  0.1381
 1265DOPC   C3B14844  17.858   8.194  11.918 -0.1358 -0.1243 -0.1381
 1265DOPC   C4B14845  17.771   8.242  11.477 -0.0471 -0.0575  0.0921
 1266DOPC   NC314846  17.525   8.269  13.360 -0.2059 -0.1850  0.1790
 1266DOPC   PO414847  17.350   7.903  13.396  0.0788  0.0918  0.3200
 1266DOPC   GL114848  17.233   8.115  13.054 -0.2926 -0.0546  0.1650
 1266DOPC   GL214849  16.976   8.071  12.931  0.2097  0.0236 -0.1322
 1266DOPC   C1A14850  17.318   8.473  12.887  0.5028 -0.1617 -0.0656
 1266DOPC   D2A14851  17.477   8.777  12.548 -0.2530 -0.1074  0.1286
 1266DOPC   C3A14852  17.225   8.761  12.175  0.0203 -0.2197 -0.0672
 1266DOPC   C4A14853  17.199   8.838  11.724  0.0882 -0.0303 -0.4122
 1266DOPC   C1B14854  17.002   8.288  12.526  0.0814 -0.1117 -0.0588
 1266DOPC   D2B14855  16.916   8.384  12.084  0.0685  0.5442 -0.0949
 1266DOPC   C3B14856  16.895   8.054  11.771 -0.1639 -0.2037 -0.0211
 1266DOPC   C4B14857  16.889   7.662  11.596 -0.0568 -0.0945  0.1311
 1267POSM   NC314858  13.389  10.909  12.608  0.2402 -0.1393  0.0006
 1267POSM   PO414859  13.526  11.242  12.549 -0.0617  0.1120 -0.1116
 1267POSM   AM114860  13.608  11.130  12.267  0.4215 -0.0828 -0.1381
 1267POSM   AM214861  13.510  10.909  12.103  0.2007  0.1709 -0.0800
 1267POSM   T1A14862  13.706  11.377  11.803  0.1841  0.3046  0.0987
 1267POSM   C2A14863  13.660  11.723  11.480 -0.0281  0.0850  0.0436
 1267POSM   C3A14864  13.528  11.706  11.011 -0.2857 -0.1768  0.0275
 1267POSM   C1B14865  13.481  10.936  11.800  0.0835  0.1891  0.0890
 1267POSM   D2B14866  13.433  11.129  11.383 -0.2185  0.2310 -0.2793
 1267POSM   C3B14867  13.787  11.019  11.074 -0.1570  0.0720 -0.2123
 1267POSM   C4B14868  14.067  10.936  10.726 -0.2071 -0.0964  0.1322
 1268DOPC   NC314869  20.783   0.552  14.983 -0.3644  0.2221 -0.0250
 1268DOPC   PO414870  21.135   0.718  14.920 -0.0111 -0.0922  0.2938
 1268DOPC   GL114871  21.471   0.620  14.721 -0.2048  0.0138 -0.1140
 1268DOPC   GL214872  21.540   0.894  14.613 -0.0750  0.1024  0.0799
 1268DOPC   C1A14873  21.473   0.540  14.250 -0.1334  0.2217 -0.1159
 1268DOPC   D2A14874  21.601   0.741  13.836 -0.0578 -0.0696 -0.0905
 1268DOPC   C3A14875  21.786   0.528  13.439 -0.0323  0.0724  0.0262
 1268DOPC   C4A14876  22.062   0.270  13.201  0.0994  0.0755  0.1750
 1268DOPC   C1B14877  21.482   1.078  14.232 -0.1760 -0.3345 -0.0926
 1268DOPC   D2B14878  21.516   1.389  13.846 -0.0605  0.1582  0.0114
 1268DOPC   C3B14879  21.467   1.367  13.388  0.1327  0.2077 -0.3167
 1268DOPC   C4B14880  21.622   1.125  13.053 -0.2406  0.0564  0.0128
 1269POSM   NC314881  14.470   7.679  12.992 -0.0484 -0.1213 -0.1308
 1269POSM   PO414882  14.251   7.435  13.210 -0.1899  0.0706  0.1796
 1269POSM   AM114883  14.029   7.486  12.973 -0.0912  0.1346 -0.4214
 1269POSM   AM214884  13.736   7.456  12.944  0.2532 -0.2403  0.1285
 1269POSM   T1A14885  13.995   7.255  12.499 -0.0723  0.0711 -0.0329
 1269POSM   C2A14886  13.933   6.890  12.214  0.0754 -0.0300 -0.0739
 1269POSM   C3A14887  14.085   6.944  11.735 -0.1453 -0.0676 -0.0243
 1269POSM   C1B14888  13.511   7.525  12.691  0.1525 -0.1338  0.0949
 1269POSM   D2B14889  13.095   7.456  12.521 -0.0040 -0.0798  0.1615
 1269POSM   C3B14890  13.055   7.537  12.088  0.4459  0.0027 -0.0089
 1269POSM   C4B14891  13.143   7.341  11.613  0.2485 -0.0417 -0.0499
 1270DOPC   NC314892  13.740   6.345  13.258  0.2330  0.0008 -0.1082
 1270DOPC   PO414893  13.942   6.659  13.365  0.2266 -0.1062  0.2009
 1270DOPC   GL114894  14.130   6.538  12.950 -0.1382  0.2667  0.1470
 1270DOPC   GL214895  14.268   6.291  12.968 -0.0163  0.1023 -0.0019
 1270DOPC   C1A14896  14.291   6.721  12.490 -0.2162 -0.0007  0.0421
 1270DOPC   D2A14897  14.415   6.607  12.046  0.4017  0.0828  0.1462
 1270DOPC   C3A14898  14.606   6.971  11.831 -0.1919 -0.0086 -0.0954
 1270DOPC   C4A14899  14.843   7.416  11.658  0.0509 -0.0985  0.2237
 1270DOPC   C1B14900  14.252   5.999  12.621 -0.3433  0.1438 -0.2784
 1270DOPC   D2B14901  14.266   6.044  12.139  0.2615  0.2485 -0.2782
 1270DOPC   C3B14902  14.170   5.678  11.844  0.0243 -0.1818  0.1422
 1270DOPC   C4B14903  14.308   5.721  11.377 -0.0689 -0.0274 -0.0350
 1271POSM   NC314904  14.649  10.762  13.095  0.3191  0.0795  0.2069
 1271POSM   PO414905  14.496  10.822  12.742  0.1425  0.0155  0.0705
 1271POSM   AM114906  14.457  10.802  12.447 -0.0402  0.0066  0.1263
 1271POSM   AM214907  14.352  10.702  12.236 -0.0158  0.1341 -0.1629
 1271POSM   T1A14908  14.481  11.142  12.026 -0.0221 -0.3176 -0.0230
 1271POSM   C2A14909  14.284  11.047  11.561 -0.0961 -0.0455  0.0280
 1271POSM   C3A14910  14.288  10.695  11.207 -0.0235  0.0986 -0.1618
 1271POSM   C1B14911  14.448  10.563  11.975  0.4449 -0.0505  0.0378
 1271POSM   D2B14912  14.651  10.595  11.545 -0.0293  0.0153  0.0894
 1271POSM   C3B14913  14.669  10.989  11.237 -0.1255 -0.1102  0.3433
 1271POSM   C4B14914  14.504  11.330  10.981  0.0279 -0.1699  0.1330
 1272DOPE   NH314915  15.168   7.198  13.319 -0.0697  0.0039  0.0326
 1272DOPE   PO414916  15.115   7.494  13.194  0.3186  0.0436 -0.0240
 1272DOPE   GL114917  14.976   7.462  12.826  0.1297  0.0152 -0.2628
 1272DOPE   GL214918  14.927   7.715  12.767 -0.2003 -0.0038 -0.0565
 1272DOPE   C1A14919  14.919   7.374  12.370 -0.2508  0.3203 -0.0236
 1272DOPE   D2A14920  15.153   7.449  12.006  0.0671 -0.1527 -0.3502
 1272DOPE   C3A14921  15.136   7.863  11.811 -0.1346 -0.2028  0.1558
 1272DOPE   C4A14922  14.910   8.255  11.699 -0.0710  0.1227 -0.1724
 1272DOPE   C1B14923  15.324   7.669  12.549  0.0748  0.1604  0.0798
 1272DOPE   D2B14924  15.647   7.557  12.155 -0.2543 -0.0010 -0.1907
 1272DOPE   C3B14925  15.590   7.610  11.727 -0.1490  0.1516 -0.1414
 1272DOPE   C4B14926  15.306   7.508  11.437  0.0626 -0.0363 -0.0275
 1273DOPC   NC314927  22.982   0.958  15.193 -0.0248 -0.0481  0.1439
 1273DOPC   PO414928  22.897   1.287  15.036  0.1124  0.0623  0.0489
 1273DOPC   GL114929  22.828   1.223  14.678  0.0058  0.0039  0.3883
 1273DOPC   GL214930  22.953   1.315  14.474  0.2204 -0.0957  0.0056
 1273DOPC   C1A14931  22.540   0.952  14.363  0.1778  0.1244  0.2024
 1273DOPC   D2A14932  22.086   0.918  14.336 -0.1262 -0.1134  0.3497
 1273DOPC   C3A14933  21.900   1.112  13.955  0.1550 -0.2681 -0.3005
 1273DOPC   C4A14934  21.859   1.039  13.509  0.1129  0.1826  0.0519
 1273DOPC   C1B14935  22.968   1.506  14.069  0.1542  0.0061 -0.3615
 1273DOPC   D2B14936  22.833   1.583  13.612 -0.3627  0.0722  0.0593
 1273DOPC   C3B14937  22.504   1.293  13.478 -0.2634 -0.1338 -0.2304
 1273DOPC   C4B14938  22.515   1.101  13.004  0.0043  0.0492 -0.2593
 1274DOPC   NC314939  18.088   1.352  13.730 -0.1145  0.0191 -0.1969
 1274DOPC   PO414940  18.300   1.021  13.877  0.3782 -0.0292 -0.0333
 1274DOPC   GL114941  18.423   0.759  13.524  0.0485  0.2363  0.1313
 1274DOPC   GL214942  18.208   0.678  13.463  0.3063 -0.2326 -0.1449
 1274DOPC   C1A14943  18.516   0.622  13.066 -0.2882  0.1819  0.0422
 1274DOPC   D2A14944  18.745   0.718  12.598  0.2200 -0.2105  0.0358
 1274DOPC   C3A14945  19.162   0.748  12.359  0.0864  0.0924  0.0492
 1274DOPC   C4A14946  19.368   0.731  11.951  0.1749  0.0518  0.0400
 1274DOPC   C1B14947  18.108   0.926  13.070 -0.1385 -0.2262  0.1691
 1274DOPC   D2B14948  18.250   1.043  12.640  0.1651  0.0040 -0.1223
 1274DOPC   C3B14949  18.005   1.316  12.394  0.1774 -0.0729 -0.2451
 1274DOPC   C4B14950  17.705   1.109  12.186  0.0594 -0.0049  0.0443
 1275DOPC   NC314951  13.410   6.225  13.588  0.0930  0.0434 -0.0868
 1275DOPC   PO414952  13.575   5.860  13.642 -0.4211 -0.0301 -0.0680
 1275DOPC   GL114953  13.744   5.843  13.327 -0.1392  0.2250  0.0419
 1275DOPC   GL214954  13.633   5.825  13.145 -0.0397  0.2555 -0.1365
 1275DOPC   C1A14955  14.130   5.780  13.103 -0.1315  0.1801  0.0700
 1275DOPC   D2A14956  14.540   5.773  12.941 -0.0103  0.2225  0.1425
 1275DOPC   C3A14957  14.747   5.411  12.810  0.0761 -0.0214 -0.1486
 1275DOPC   C4A14958  14.454   5.027  12.707 -0.0111 -0.3179 -0.2273
 1275DOPC   C1B14959  13.782   5.772  12.720 -0.0904  0.1391  0.1223
 1275DOPC   D2B14960  13.883   5.757  12.286  0.3931  0.2855 -0.0801
 1275DOPC   C3B14961  13.680   5.538  11.889 -0.1107  0.4500  0.1717
 1275DOPC   C4B14962  13.388   5.352  11.582 -0.1089 -0.0213 -0.0745
 1276DOPC   NC314963  22.847   8.052  14.004 -0.0458 -0.0181 -0.0131
 1276DOPC   PO414964  23.198   8.054  13.856 -0.2308 -0.0323  0.0014
 1276DOPC   GL114965  23.436   8.263  13.536 -0.0653 -0.2037  0.1607
 1276DOPC   GL214966  23.231   8.412  13.377 -0.2599 -0.0858 -0.0713
 1276DOPC   C1A14967  23.852   8.406  13.422  0.2989 -0.0335 -0.1225
 1276DOPC   D2A14968  24.221   8.538  13.086 -0.2345  0.3852 -0.0106
 1276DOPC   C3A14969  24.516   8.746  12.899  0.0639 -0.1140  0.0713
 1276DOPC   C4A14970  24.623   8.627  12.469  0.2229  0.0507  0.0740
 1276DOPC   C1B14971  23.074   8.722  13.087  0.0405  0.1851 -0.0276
 1276DOPC   D2B14972  22.674   8.805  12.747 -0.0698 -0.1097  0.1357
 1276DOPC   C3B14973  22.370   8.902  12.438 -0.1726  0.0465 -0.3009
 1276DOPC   C4B14974  22.186   8.963  12.004  0.0382  0.2349  0.1708
 1277DOPS   CNO14975  18.746   4.617  14.100 -0.0378  0.0501  0.1209
 1277DOPS   PO414976  18.865   4.630  13.765 -0.0335  0.2420  0.1299
 1277DOPS   GL114977  19.027   4.542  13.439 -0.0188  0.2613  0.2788
 1277DOPS   GL214978  19.065   4.761  13.254  0.1261  0.0338  0.2842
 1277DOPS   C1A14979  19.336   4.279  13.249  0.2720 -0.2768  0.0217
 1277DOPS   D2A14980  19.576   4.035  12.928 -0.1135 -0.1496 -0.3751
 1277DOPS   C3A14981  19.477   3.576  12.866 -0.0574 -0.0820 -0.1606
 1277DOPS   C4A14982  19.162   3.316  13.050  0.3498 -0.0645  0.0407
 1277DOPS   C1B14983  18.930   4.426  12.972 -0.0902  0.1932 -0.2329
 1277DOPS   D2B14984  18.826   4.202  12.560  0.0273  0.0024 -0.0692
 1277DOPS   C3B14985  18.674   4.281  12.148 -0.4890  0.0702 -0.1266
 1277DOPS   C4B14986  18.568   4.584  11.805 -0.2217  0.0777  0.0056
 1278DOPC   NC314987  17.915   4.408  13.654 -0.1252 -0.0702 -0.2428
 1278DOPC   PO414988  18.286   4.454  13.764 -0.2085 -0.1182 -0.0280
 1278DOPC   GL114989  18.386   4.414  13.401  0.2260 -0.0941 -0.1121
 1278DOPC   GL214990  18.657   4.326  13.362  0.1245  0.1802  0.0956
 1278DOPC   C1A14991  18.365   4.634  13.020  0.2590  0.3036 -0.1879
 1278DOPC   D2A14992  18.511   4.618  12.584 -0.2303  0.2644 -0.0459
 1278DOPC   C3A14993  18.396   5.016  12.389  0.1771  0.2074 -0.1628
 1278DOPC   C4A14994  18.281   5.122  11.915  0.0785  0.1222 -0.2868
 1278DOPC   C1B14995  18.399   4.103  13.063  0.3100  0.3110  0.1514
 1278DOPC   D2B14996  18.428   3.715  12.794 -0.3115  0.0538  0.0765
 1278DOPC   C3B14997  18.759   3.499  12.546  0.2554  0.0409  0.1031
 1278DOPC   C4B14998  19.228   3.414  12.425 -0.1155 -0.4165 -0.2958
 1279DOPS   CNO14999  22.108   8.693  13.950  0.4399 -0.1239 -0.2169
 1279DOPS   PO415000  21.958   8.409  13.736 -0.1382  0.2038 -0.0465
 1279DOPS   GL115001  22.186   8.283  13.373  0.1187  0.0683  0.1277
 1279DOPS   GL215002  22.411   8.502  13.331  0.0316 -0.0373  0.1488
 1279DOPS   C1A15003  22.018   7.947  13.101  0.0525  0.0668  0.0483
 1279DOPS   D2A15004  21.891   7.639  12.793 -0.3281  0.0954  0.0877
 1279DOPS   C3A15005  21.482   7.834  12.584 -0.1265  0.0360  0.0675
 1279DOPS   C4A15006  21.045   7.751  12.717 -0.2801 -0.1360 -0.1353
 1279DOPS   C1B15007  22.278   8.455  12.874 -0.1656 -0.1322 -0.0777
 1279DOPS   D2B15008  22.602   8.356  12.556 -0.0132 -0.3646  0.0828
 1279DOPS   C3B15009  22.521   8.009  12.287  0.2096  0.0234 -0.0652
 1279DOPS   C4B15010  22.512   7.572  12.107  0.2375  0.0137  0.2232
 1280POSM   NC315011  25.384  34.398  15.135  0.1476  0.0444 -0.0522
 1280POSM   PO415012  25.247  34.030  15.131  0.0677 -0.0108  0.2772
 1280POSM   AM115013  25.205  34.063  14.816  0.1520  0.0093  0.2071
 1280POSM   AM215014  25.272  33.866  14.672 -0.3835  0.1814 -0.1513
 1280POSM   T1A15015  25.024  34.252  14.338  0.0273 -0.0211  0.0772
 1280POSM   C2A15016  24.861  34.630  14.076 -0.1918 -0.1835 -0.1990
 1280POSM   C3A15017  24.800  35.045  14.056 -0.0646 -0.2712  0.0435
 1280POSM   C1B15018  25.546  33.869  14.456  0.2882  0.0416 -0.1177
 1280POSM   D2B15019  25.682  33.946  14.018 -0.1899 -0.0334 -0.0479
 1280POSM   C3B15020  25.505  34.231  13.758  0.1233 -0.0042 -0.1332
 1280POSM   C4B15021  25.018  34.232  13.805 -0.3944 -0.1535 -0.2250
 1281DOPS   CNO15022  18.023   6.373  14.004  0.1737 -0.1405  0.3061
 1281DOPS   PO415023  17.745   6.254  13.803  0.3208  0.4064 -0.0737
 1281DOPS   GL115024  17.800   6.304  13.400  0.1395  0.1666  0.0547
 1281DOPS   GL215025  17.857   6.017  13.361  0.1440  0.1326  0.2027
 1281DOPS   C1A15026  18.160   6.444  13.176  0.0859  0.2045  0.1253
 1281DOPS   D2A15027  18.401   6.494  12.761  0.1371  0.0468 -0.0399
 1281DOPS   C3A15028  18.466   6.198  12.369 -0.1090 -0.0013 -0.1636
 1281DOPS   C4A15029  18.601   6.168  11.921 -0.2067 -0.0237  0.1014
 1281DOPS   C1B15030  17.733   6.117  12.947  0.0791  0.3422  0.1814
 1281DOPS   D2B15031  17.942   6.370  12.639 -0.1098  0.2284  0.0596
 1281DOPS   C3B15032  18.025   6.502  12.192  0.0001 -0.1195  0.0249
 1281DOPS   C4B15033  18.425   6.601  12.046  0.1403  0.0797 -0.1433
 1282DOPS   CNO15034  10.785   5.353  14.575  0.0826  0.1698 -0.2519
 1282DOPS   PO415035  10.509   5.216  14.375 -0.1642 -0.1555  0.1623
 1282DOPS   GL115036  10.721   5.040  14.110  0.1568  0.0237 -0.0979
 1282DOPS   GL215037  10.842   4.731  14.027  0.0219 -0.0570  0.1263
 1282DOPS   C1A15038  10.741   5.017  13.629  0.0158  0.1113  0.1913
 1282DOPS   D2A15039  11.056   5.009  13.310  0.0945  0.0164  0.3542
 1282DOPS   C3A15040  11.234   5.310  13.048 -0.1755  0.0152  0.1287
 1282DOPS   C4A15041  11.176   5.539  12.584  0.1025  0.0894 -0.1229
 1282DOPS   C1B15042  10.940   4.584  13.559 -0.2925 -0.1833  0.2234
 1282DOPS   D2B15043  11.092   4.479  13.154 -0.1549 -0.3440  0.3085
 1282DOPS   C3B15044  10.983   4.541  12.769  0.1444 -0.1167 -0.0456
 1282DOPS   C4B15045  10.833   4.554  12.321  0.2521 -0.1152 -0.1009
 1283DOPE   NH315046  14.536   4.853  13.917  0.1803 -0.0787  0.1541
 1283DOPE   PO415047  14.593   4.570  13.791  0.1049 -0.1611 -0.0637
 1283DOPE   GL115048  14.591   4.742  13.467  0.4744  0.1269 -0.2952
 1283DOPE   GL215049  14.816   4.945  13.531  0.3261  0.0704 -0.0003
 1283DOPE   C1A15050  14.382   4.710  13.091 -0.2682 -0.4236  0.0700
 1283DOPE   D2A15051  14.292   4.614  12.699  0.1958  0.2078  0.0220
 1283DOPE   C3A15052  14.306   4.841  12.284 -0.0216  0.3362 -0.1355
 1283DOPE   C4A15053  14.141   5.230  12.047 -0.2310  0.2601  0.3538
 1283DOPE   C1B15054  14.882   5.000  13.075  0.2881  0.0230  0.1650
 1283DOPE   D2B15055  15.199   5.106  12.789 -0.4116  0.0032 -0.3376
 1283DOPE   C3B15056  15.116   5.382  12.398  0.1936  0.0347 -0.4283
 1283DOPE   C4B15057  15.232   5.654  11.993 -0.0261  0.1482  0.0432
 1284DOPE   NH315058  21.361   0.210  14.756  0.1338  0.0595 -0.0801
 1284DOPE   PO415059  21.054   0.231  14.745  0.1582 -0.2406  0.1604
 1284DOPE   GL115060  20.848   0.473  14.400  0.0007 -0.2247  0.2242
 1284DOPE   GL215061  20.941   0.715  14.383 -0.2261  0.1359 -0.0429
 1284DOPE   C1A15062  20.885   0.383  13.938  0.1970 -0.0458 -0.0607
 1284DOPE   D2A15063  21.252   0.466  13.642 -0.0177  0.2257 -0.3128
 1284DOPE   C3A15064  21.144   0.315  13.218 -0.0621 -0.0039 -0.1254
 1284DOPE   C4A15065  21.054   0.152  12.785  0.1925 -0.0508 -0.0988
 1284DOPE   C1B15066  20.905   0.862  13.964 -0.1762  0.3613  0.0164
 1284DOPE   D2B15067  21.215   1.001  13.660 -0.0502 -0.0971  0.2196
 1284DOPE   C3B15068  21.357   0.722  13.288 -0.3471  0.2326 -0.1037
 1284DOPE   C4B15069  21.543   0.583  12.861 -0.1911  0.4516 -0.1663
 1285DOPE   NH315070  22.976  13.271  13.485  0.3432  0.1554 -0.4789
 1285DOPE   PO415071  23.034  13.059  13.270  0.2313  0.1024 -0.1100
 1285DOPE   GL115072  23.000  12.904  12.997 -0.0252 -0.0301  0.1264
 1285DOPE   GL215073  23.174  12.970  12.795  0.0090 -0.0745 -0.0430
 1285DOPE   C1A15074  22.792  12.895  12.536 -0.0762  0.1722 -0.1704
 1285DOPE   D2A15075  22.919  13.011  12.098 -0.1056 -0.1558 -0.1622
 1285DOPE   C3A15076  23.204  12.733  11.801  0.1709 -0.2403  0.2813
 1285DOPE   C4A15077  23.171  12.280  11.592 -0.1242 -0.2634 -0.1270
 1285DOPE   C1B15078  23.346  13.341  12.496  0.1417  0.0613  0.0395
 1285DOPE   D2B15079  23.732  13.430  12.254  0.1391  0.0941 -0.3088
 1285DOPE   C3B15080  23.662  13.769  11.873 -0.0122  0.1400  0.2470
 1285DOPE   C4B15081  23.333  13.962  11.577 -0.1429 -0.0936 -0.0194
 1286DOPC   NC315082  16.367   6.341  13.884 -0.1533  0.1822  0.0369
 1286DOPC   PO415083  16.750   6.362  13.770 -0.3005 -0.0460  0.0948
 1286DOPC   GL115084  16.792   6.472  13.416  0.0073  0.0861 -0.0214
 1286DOPC   GL215085  16.787   6.754  13.255  0.0394 -0.0402  0.2438
 1286DOPC   C1A15086  17.268   6.515  13.287  0.0767  0.1074 -0.0015
 1286DOPC   D2A15087  17.503   6.609  12.888  0.0551  0.0766 -0.0026
 1286DOPC   C3A15088  17.378   6.793  12.424 -0.0599 -0.3396 -0.2853
 1286DOPC   C4A15089  17.261   6.901  11.995  0.2265 -0.3236 -0.2931
 1286DOPC   C1B15090  16.985   6.656  12.809  0.2111 -0.1060  0.2035
 1286DOPC   D2B15091  16.926   6.619  12.356  0.1109 -0.4126  0.1536
 1286DOPC   C3B15092  16.693   6.943  12.042  0.2552  0.1311  0.0755
 1286DOPC   C4B15093  16.558   7.219  11.734 -0.2414 -0.1018  0.2554
 1287DOPC   NC315094  22.512   6.864  14.255  0.0178  0.1327  0.1247
 1287DOPC   PO415095  22.262   6.716  13.973  0.0594  0.1347  0.2108
 1287DOPC   GL115096  22.324   6.455  13.635  0.1435 -0.2044 -0.1988
 1287DOPC   GL215097  22.315   6.127  13.692  0.2201 -0.3259  0.1716
 1287DOPC   C1A15098  22.503   6.531  13.226 -0.0503 -0.0589 -0.1329
 1287DOPC   D2A15099  22.726   6.448  12.825  0.1960 -0.0810  0.0092
 1287DOPC   C3A15100  22.403   6.524  12.469  0.0316 -0.3048  0.0860
 1287DOPC   C4A15101  21.956   6.339  12.306  0.0694  0.4414  0.2320
 1287DOPC   C1B15102  22.664   5.878  13.524 -0.2630  0.0940  0.0544
 1287DOPC   D2B15103  22.866   5.491  13.340  0.2143 -0.1059 -0.3528
 1287DOPC   C3B15104  23.221   5.488  13.080  0.2613  0.1482 -0.0553
 1287DOPC   C4B15105  23.402   5.453  12.674  0.0096 -0.1140 -0.0064
 1288POSM   NC315106  17.719   6.792  13.899 -0.3546 -0.1564  0.1721
 1288POSM   PO415107  17.424   7.028  13.857 -0.2557  0.1339 -0.0519
 1288POSM   AM115108  17.478   6.971  13.512  0.2572  0.0811  0.2043
 1288POSM   AM215109  17.679   6.752  13.419  0.0615 -0.0764 -0.0585
 1288POSM   T1A15110  17.338   7.098  13.092  0.1149 -0.0447  0.0173
 1288POSM   C2A15111  17.595   7.404  12.801  0.0011 -0.2183  0.0291
 1288POSM   C3A15112  17.915   7.763  12.624  0.3341 -0.1072 -0.4420
 1288POSM   C1B15113  17.802   6.911  13.139 -0.0572 -0.1852 -0.1708
 1288POSM   D2B15114  17.933   6.888  12.705  0.0438 -0.3497  0.1728
 1288POSM   C3B15115  18.296   6.866  12.458 -0.1752 -0.1593  0.1756
 1288POSM   C4B15116  18.662   7.075  12.259 -0.1166 -0.1171  0.0742
 1289POSM   NC315117  13.926  10.677  12.832  0.2650  0.0634 -0.2305
 1289POSM   PO415118  13.902  10.931  12.590  0.1558  0.0092  0.1582
 1289POSM   AM115119  13.895  10.740  12.329  0.1595 -0.1828 -0.1074
 1289POSM   AM215120  13.735  10.519  12.290  0.1233  0.4515  0.1398
 1289POSM   T1A15121  13.939  10.688  11.830  0.4517  0.1624 -0.0881
 1289POSM   C2A15122  13.796  10.629  11.431  0.5321 -0.3089  0.3731
 1289POSM   C3A15123  13.615  10.248  11.278  0.3456 -0.0336  0.0132
 1289POSM   C1B15124  13.577  10.202  12.173 -0.2209 -0.1066  0.3485
 1289POSM   D2B15125  13.675   9.816  11.949 -0.0854 -0.1268  0.0890
 1289POSM   C3B15126  13.802   9.939  11.583 -0.1172 -0.2148  0.0661
 1289POSM   C4B15127  13.790   9.743  11.159 -0.3110 -0.0908 -0.0658
 1290DOPE   NH315128  11.920   2.750  14.189  0.1015  0.2858  0.3225
 1290DOPE   PO415129  12.170   2.868  14.135 -0.2829  0.1848 -0.0071
 1290DOPE   GL115130  12.434   2.933  13.833 -0.1506  0.3537 -0.2272
 1290DOPE   GL215131  12.326   3.183  13.771  0.0344  0.0926  0.3484
 1290DOPE   C1A15132  12.439   3.108  13.329  0.0826  0.1175 -0.2484
 1290DOPE   D2A15133  12.424   3.017  12.855  0.0780 -0.2476  0.1773
 1290DOPE   C3A15134  12.753   3.048  12.578 -0.0192 -0.0292 -0.1537
 1290DOPE   C4A15135  13.110   3.323  12.665 -0.2100  0.2378 -0.0874
 1290DOPE   C1B15136  12.802   3.181  13.625 -0.0290 -0.1165  0.0871
 1290DOPE   D2B15137  12.940   3.390  13.264 -0.1497 -0.0428  0.0013
 1290DOPE   C3B15138  12.662   3.425  12.948 -0.0835  0.4346 -0.1932
 1290DOPE   C4B15139  12.673   3.563  12.494 -0.2684  0.0116 -0.1980
 1291DOPE   NH315140  13.181   2.938  14.507 -0.1077 -0.0158 -0.3397
 1291DOPE   PO415141  13.174   2.962  14.193 -0.0163 -0.2835 -0.0577
 1291DOPE   GL115142  13.333   2.866  13.749  0.1182 -0.1077  0.5450
 1291DOPE   GL215143  13.132   2.790  13.527  0.2840 -0.0776  0.0375
 1291DOPE   C1A15144  13.592   2.864  13.348  0.5057  0.2731  0.4086
 1291DOPE   D2A15145  13.821   2.886  12.972 -0.2609 -0.2694 -0.2968
 1291DOPE   C3A15146  13.722   3.170  12.591 -0.0254 -0.0969 -0.2304
 1291DOPE   C4A15147  13.487   3.488  12.298 -0.0554  0.2749 -0.1364
 1291DOPE   C1B15148  12.694   2.688  13.544 -0.0426 -0.1743  0.1645
 1291DOPE   D2B15149  12.194   2.728  13.481 -0.0468  0.2257  0.1537
 1291DOPE   C3B15150  12.133   2.698  13.015  0.3668 -0.0918  0.0568
 1291DOPE   C4B15151  12.246   2.551  12.579  0.1682 -0.0382  0.1839
 1292DOPE   NH315152  17.483  11.930  12.418 -0.2538  0.0179  0.2073
 1292DOPE   PO415153  17.361  12.219  12.230 -0.1019 -0.1585 -0.2520
 1292DOPE   GL115154  17.414  12.468  11.895 -0.0586 -0.0203  0.0713
 1292DOPE   GL215155  17.341  12.633  11.665  0.3552  0.1828 -0.0081
 1292DOPE   C1A15156  17.501  12.216  11.501 -0.1219  0.0932 -0.0010
 1292DOPE   D2A15157  17.638  12.164  11.061 -0.0291  0.2137  0.1801
 1292DOPE   C3A15158  17.437  11.921  10.718 -0.1314  0.0848  0.1544
 1292DOPE   C4A15159  17.241  11.512  10.652  0.1046  0.1506  0.0346
 1292DOPE   C1B15160  17.165  12.457  11.280  0.1376  0.0407  0.1015
 1292DOPE   D2B15161  17.113  12.138  11.008  0.0066  0.0936 -0.3206
 1292DOPE   C3B15162  16.942  12.359  10.633 -0.3747  0.0834  0.0683
 1292DOPE   C4B15163  16.950  12.722  10.399 -0.0822 -0.2703  0.0796
 1293DOPC   NC315164  10.686   2.171  13.966 -0.3941 -0.2257 -0.0900
 1293DOPC   PO415165  10.926   2.072  14.230 -0.0439 -0.0265 -0.0779
 1293DOPC   GL115166  10.981   1.774  14.019 -0.0865 -0.0736  0.1408
 1293DOPC   GL215167  11.049   1.877  13.782 -0.3013  0.0806  0.0986
 1293DOPC   C1A15168  10.704   1.487  13.759 -0.0069  0.0240 -0.1414
 1293DOPC   D2A15169  10.331   1.334  13.448  0.0155  0.0882 -0.2836
 1293DOPC   C3A15170  10.161   1.752  13.275  0.2681  0.1685 -0.1154
 1293DOPC   C4A15171  10.248   2.178  13.201  0.1834 -0.1543  0.2819
 1293DOPC   C1B15172  11.070   1.882  13.355 -0.1592 -0.0902  0.1542
 1293DOPC   D2B15173  11.147   1.840  12.871 -0.2520  0.1088  0.0798
 1293DOPC   C3B15174  10.830   1.593  12.637 -0.0948 -0.4538  0.2667
 1293DOPC   C4B15175  10.530   1.342  12.375  0.1279  0.0722  0.2377
 1294DOPC   NC315176  11.462   7.488  13.726 -0.3259  0.0208 -0.3666
 1294DOPC   PO415177  11.753   7.659  13.515  0.0396  0.1278 -0.1132
 1294DOPC   GL115178  11.654   7.629  13.085  0.0636  0.2260  0.1515
 1294DOPC   GL215179  11.422   7.645  12.938 -0.0155 -0.0531  0.2561
 1294DOPC   C1A15180  11.675   7.257  12.792  0.2085  0.3967  0.0370
 1294DOPC   D2A15181  11.656   7.015  12.438 -0.0133  0.1494 -0.0142
 1294DOPC   C3A15182  11.333   7.062  12.090 -0.2740 -0.2091 -0.1762
 1294DOPC   C4A15183  10.935   7.146  11.886  0.1857  0.3879  0.4346
 1294DOPC   C1B15184  11.476   7.604  12.493 -0.1803  0.0623 -0.2564
 1294DOPC   D2B15185  11.739   7.489  12.107  0.0219  0.0416  0.0004
 1294DOPC   C3B15186  11.779   7.134  11.813 -0.2686 -0.0308 -0.3178
 1294DOPC   C4B15187  11.515   7.014  11.446  0.3471  0.0913  0.0139
 1295POSM   NC315188  15.787   3.239  13.750 -0.1252 -0.3422 -0.1032
 1295POSM   PO415189  15.606   3.565  13.670 -0.1591  0.0671 -0.2205
 1295POSM   AM115190  15.489   3.589  13.349  0.1221  0.0588  0.4885
 1295POSM   AM215191  15.303   3.567  13.160  0.2179 -0.1398  0.0193
 1295POSM   T1A15192  15.479   4.007  13.069 -0.2878 -0.0095 -0.3850
 1295POSM   C2A15193  15.148   4.271  12.931  0.2675 -0.0681 -0.0724
 1295POSM   C3A15194  14.757   4.462  12.847 -0.0091 -0.3303 -0.1786
 1295POSM   C1B15195  15.471   3.322  12.948  0.0696 -0.1595 -0.2021
 1295POSM   D2B15196  15.736   3.158  12.559 -0.1065 -0.0433 -0.4542
 1295POSM   C3B15197  16.179   3.256  12.554  0.0920  0.1049  0.3648
 1295POSM   C4B15198  16.594   3.234  12.542  0.3053  0.1287 -0.2725
 1296DOPC   NC315199  14.727  12.981  12.120  0.2938  0.0098  0.0476
 1296DOPC   PO415200  14.374  12.876  12.296  0.1805  0.1476  0.0653
 1296DOPC   GL115201  14.312  12.810  11.904 -0.1442 -0.2855  0.2646
 1296DOPC   GL215202  14.382  13.077  11.717 -0.2319 -0.0955  0.1255
 1296DOPC   C1A15203  14.581  12.520  11.693  0.2764 -0.1619  0.0432
 1296DOPC   D2A15204  14.952  12.382  11.443  0.4768 -0.5024  0.0634
 1296DOPC   C3A15205  15.146  11.983  11.367 -0.1146 -0.2700  0.0094
 1296DOPC   C4A15206  15.469  11.636  11.377  0.0389  0.0007 -0.0713
 1296DOPC   C1B15207  14.404  12.967  11.305 -0.2197 -0.0090  0.0407
 1296DOPC   D2B15208  14.496  12.769  10.864  0.1846 -0.2635 -0.0270
 1296DOPC   C3B15209  14.139  12.489  10.790  0.0625 -0.1489  0.1886
 1296DOPC   C4B15210  14.102  12.149  10.495  0.1932  0.0947  0.0998
 1297DOPE   NH315211  19.875   1.359  14.091 -0.2883  0.0341  0.0491
 1297DOPE   PO415212  20.010   1.067  14.061  0.1682  0.0677 -0.1277
 1297DOPE   GL115213  20.147   0.714  13.785  0.1004 -0.0965 -0.0133
 1297DOPE   GL215214  19.920   0.444  13.726 -0.0820 -0.1246 -0.2394
 1297DOPE   C1A15215  20.482   0.409  13.721  0.2697 -0.0946  0.2363
 1297DOPE   D2A15216  20.554  -0.009  13.984 -0.2301 -0.1454 -0.0332
 1297DOPE   C3A15217  20.485  -0.479  13.738 -0.2738 -0.0522 -0.2464
 1297DOPE   C4A15218  20.464  -0.680  13.300 -0.3191  0.0033 -0.3724
 1297DOPE   C1B15219  20.203   0.336  13.346 -0.1198  0.1875  0.0449
 1297DOPE   D2B15220  20.615   0.232  13.161  0.0058  0.1263  0.1344
 1297DOPE   C3B15221  20.757   0.079  13.521 -0.0544 -0.0394 -0.0553
 1297DOPE   C4B15222  21.180  -0.036  13.675 -0.1843 -0.2486 -0.0386
 1298DOPC   NC315223  14.783   9.905  12.667 -0.2386 -0.1348  0.3847
 1298DOPC   PO415224  15.116   9.710  12.730  0.1517  0.0499  0.0660
 1298DOPC   GL115225  15.174   9.752  12.345  0.2523 -0.1533 -0.1520
 1298DOPC   GL215226  15.276  10.012  12.202  0.1843 -0.1651 -0.0634
 1298DOPC   C1A15227  15.432   9.571  11.973 -0.0059 -0.0549  0.0913
 1298DOPC   D2A15228  15.377   9.516  11.508  0.1727 -0.0508  0.0134
 1298DOPC   C3A15229  15.032   9.776  11.337 -0.0988 -0.4313 -0.1253
 1298DOPC   C4A15230  14.538   9.671  11.152  0.0140  0.2662 -0.0729
 1298DOPC   C1B15231  15.054   9.857  11.841 -0.0892  0.1459  0.0623
 1298DOPC   D2B15232  14.724   9.600  11.669  0.1058 -0.1661  0.1997
 1298DOPC   C3B15233  14.574   9.192  11.653  0.1443  0.1394 -0.0080
 1298DOPC   C4B15234  14.677   8.774  11.505  0.0665  0.1303 -0.2595
 1299DOPE   NH315235  11.780   8.986  13.459 -0.3322  0.1604 -0.2658
 1299DOPE   PO415236  11.813   8.670  13.378  0.2748 -0.1555 -0.0720
 1299DOPE   GL115237  11.879   8.462  13.033 -0.0948 -0.1238  0.1599
 1299DOPE   GL215238  11.636   8.540  12.939  0.0046  0.0524  0.1953
 1299DOPE   C1A15239  12.097   8.330  12.584 -0.0120 -0.3336  0.3460
 1299DOPE   D2A15240  12.392   8.445  12.183 -0.1051 -0.2915 -0.1290
 1299DOPE   C3A15241  12.368   8.438  11.715  0.0847  0.2314 -0.0700
 1299DOPE   C4A15242  11.976   8.416  11.463  0.1152 -0.1342  0.0689
 1299DOPE   C1B15243  11.722   8.695  12.551 -0.0496  0.1120  0.1699
 1299DOPE   D2B15244  11.758   9.056  12.272  0.0876 -0.0949  0.2105
 1299DOPE   C3B15245  11.997   9.278  11.953 -0.0296  0.0597  0.0271
 1299DOPE   C4B15246  12.125   9.722  11.926 -0.0199  0.3440  0.2019
 1300DOPE   NH315247  21.093  34.508  14.748  0.1296 -0.1824  0.1822
 1300DOPE   PO415248  20.778  34.542  14.706 -0.0343  0.0269 -0.1834
 1300DOPE   GL115249  20.836  34.491  14.313  0.1066 -0.2480 -0.1559
 1300DOPE   GL215250  21.047  34.791  14.293  0.2096  0.2860 -0.0002
 1300DOPE   C1A15251  21.020  34.387  13.907 -0.0694  0.1539 -0.1236
 1300DOPE   D2A15252  21.433  34.329  13.701  0.0007 -0.0043 -0.1614
 1300DOPE   C3A15253  21.557  34.297  13.248 -0.0531  0.1507 -0.0958
 1300DOPE   C4A15254  21.601  34.120  12.850  0.1825  0.4207  0.0184
 1300DOPE   C1B15255  21.476  34.804  14.183  0.0786 -0.2272  0.3508
 1300DOPE   D2B15256  21.691  34.987  13.825  0.1234 -0.1057  0.3010
 1300DOPE   C3B15257  21.645  34.801  13.406 -0.1049 -0.0010  0.2548
 1300DOPE   C4B15258  21.206  34.619  13.198  0.5426  0.3288  0.2123
 1301DOPC   NC315259  13.705   2.680  13.930 -0.0298  0.3104  0.3029
 1301DOPC   PO415260  13.989   2.435  13.848 -0.0421  0.0368 -0.1204
 1301DOPC   GL115261  14.206   2.669  13.602  0.2312  0.1210  0.2236
 1301DOPC   GL215262  14.104   2.792  13.422  0.3281  0.0890 -0.4008
 1301DOPC   C1A15263  14.465   2.442  13.257 -0.2918  0.0319 -0.1772
 1301DOPC   D2A15264  14.388   2.456  12.815 -0.2250  0.2510 -0.1759
 1301DOPC   C3A15265  14.273   2.809  12.483  0.2387 -0.2164  0.0774
 1301DOPC   C4A15266  13.898   2.862  12.161  0.2133  0.0793  0.0153
 1301DOPC   C1B15267  13.874   3.258  13.405 -0.1322  0.6427  0.1130
 1301DOPC   D2B15268  13.715   3.699  13.436  0.1565 -0.0353  0.1429
 1301DOPC   C3B15269  13.782   3.924  13.025 -0.0274 -0.0492 -0.1649
 1301DOPC   C4B15270  13.573   3.956  12.614 -0.0354  0.0712 -0.2368
 1302DOPC   NC315271  14.666   2.582  13.762  0.0967  0.0478  0.1472
 1302DOPC   PO415272  14.782   2.933  13.884  0.0129 -0.4265  0.1758
 1302DOPC   GL115273  14.704   2.902  13.473  0.4438 -0.0340  0.0058
 1302DOPC   GL215274  14.833   3.198  13.415  0.3884 -0.0883 -0.0366
 1302DOPC   C1A15275  14.560   2.902  13.015  0.0642 -0.1629  0.2047
 1302DOPC   D2A15276  14.269   3.201  12.721  0.1856 -0.3969  0.2651
 1302DOPC   C3A15277  14.387   3.197  12.252  0.0982 -0.2701 -0.3434
 1302DOPC   C4A15278  14.539   3.436  11.887  0.1522 -0.1497 -0.0175
 1302DOPC   C1B15279  15.067   2.965  13.084  0.1114 -0.0616  0.2454
 1302DOPC   D2B15280  15.319   2.913  12.704 -0.0072  0.1304 -0.1175
 1302DOPC   C3B15281  15.301   3.233  12.392 -0.3101 -0.0614 -0.0397
 1302DOPC   C4B15282  15.347   3.341  11.928  0.0553 -0.1223  0.0616
 1303DOPC   NC315283  23.097  11.068  13.979  0.0388  0.4110  0.1109
 1303DOPC   PO415284  23.157  11.427  14.054  0.1211 -0.3394 -0.2356
 1303DOPC   GL115285  23.160  11.521  13.617 -0.3409  0.0138  0.3226
 1303DOPC   GL215286  22.965  11.456  13.502  0.0276  0.2426  0.0232
 1303DOPC   C1A15287  23.440  11.423  13.212 -0.1854  0.0033  0.2832
 1303DOPC   D2A15288  23.618  11.498  12.775 -0.2187  0.2230 -0.1134
 1303DOPC   C3A15289  23.632  11.180  12.452 -0.2750  0.1379 -0.2272
 1303DOPC   C4A15290  23.844  10.790  12.369 -0.1955  0.2239  0.1692
 1303DOPC   C1B15291  23.001  11.750  13.146  0.0499 -0.3407 -0.3286
 1303DOPC   D2B15292  23.148  11.823  12.695 -0.1169 -0.3115  0.2142
 1303DOPC   C3B15293  23.507  11.971  12.530 -0.1996 -0.0491 -0.0909
 1303DOPC   C4B15294  23.983  11.900  12.417 -0.1145 -0.0807 -0.0158
 1304DOPC   NC315295  12.018   4.562  14.150 -0.3050  0.0200  0.0578
 1304DOPC   PO415296  11.659   4.702  14.070 -0.1356 -0.1086 -0.0493
 1304DOPC   GL115297  11.788   4.518  13.717 -0.0337 -0.0271 -0.0407
 1304DOPC   GL215298  11.464   4.534  13.561  0.0658 -0.0139 -0.1041
 1304DOPC   C1A15299  11.988   4.671  13.282  0.0980 -0.0156 -0.1205
 1304DOPC   D2A15300  11.979   4.510  12.831  0.4541 -0.1712 -0.0153
 1304DOPC   C3A15301  11.895   4.782  12.454 -0.0232 -0.3712  0.1498
 1304DOPC   C4A15302  11.700   4.960  12.042  0.1855 -0.0032 -0.0256
 1304DOPC   C1B15303  11.569   4.575  13.173 -0.0431  0.0308 -0.1663
 1304DOPC   D2B15304  11.459   4.353  12.762  0.3267 -0.2779  0.0263
 1304DOPC   C3B15305  11.524   4.082  12.410  0.1666  0.1955 -0.1029
 1304DOPC   C4B15306  11.662   3.940  11.994 -0.1543  0.0925 -0.1508
 1305DOPC   NC315307  19.101   3.080  13.898  0.2450  0.0590  0.1053
 1305DOPC   PO415308  18.871   3.143  13.597 -0.2176  0.1913 -0.1712
 1305DOPC   GL115309  19.191   2.899  13.468  0.1881  0.0653  0.1307
 1305DOPC   GL215310  19.124   2.662  13.451  0.1045 -0.1381  0.1090
 1305DOPC   C1A15311  19.260   2.818  13.022  0.1934 -0.0499 -0.1232
 1305DOPC   D2A15312  19.156   3.005  12.553 -0.0233  0.2285 -0.0373
 1305DOPC   C3A15313  18.855   3.118  12.232  0.0627  0.0031 -0.0973
 1305DOPC   C4A15314  18.500   2.927  11.940 -0.1555  0.3038  0.4574
 1305DOPC   C1B15315  18.713   2.426  13.317  0.0346 -0.1300 -0.2184
 1305DOPC   D2B15316  18.326   2.444  13.071  0.3131  0.2048 -0.2034
 1305DOPC   C3B15317  18.343   2.486  12.587  0.0080  0.2056  0.1901
 1305DOPC   C4B15318  18.739   2.587  12.309 -0.0941  0.0022  0.1854
 1306DOPE   NH315319  19.763   8.316  13.303  0.0797 -0.2184 -0.0568
 1306DOPE   PO415320  20.031   8.460  13.375  0.1508 -0.2543 -0.1515
 1306DOPE   GL115321  19.893   8.601  12.961 -0.1849  0.2067  0.0283
 1306DOPE   GL215322  20.027   8.395  12.859  0.3530  0.0420  0.1153
 1306DOPE   C1A15323  19.594   8.618  12.633 -0.0018 -0.0244 -0.2535
 1306DOPE   D2A15324  19.369   8.344  12.426 -0.0150  0.1076  0.2470
 1306DOPE   C3A15325  19.527   8.230  11.998 -0.0853  0.2580 -0.0168
 1306DOPE   C4A15326  19.773   8.432  11.666 -0.0720 -0.2284 -0.0224
 1306DOPE   C1B15327  20.086   8.473  12.412  0.0149 -0.1169 -0.1373
 1306DOPE   D2B15328  20.195   8.684  11.988  0.0668 -0.1351 -0.0288
 1306DOPE   C3B15329  20.252   8.365  11.688 -0.1865  0.0978  0.4108
 1306DOPE   C4B15330  20.037   8.140  11.346  0.0070 -0.1366 -0.1637
 1307DOPE   NH315331  18.933   5.138  13.581  0.0048  0.1886  0.0921
 1307DOPE   PO415332  19.098   5.381  13.692  0.3843 -0.2441  0.1209
 1307DOPE   GL115333  19.388   5.258  13.378 -0.1581  0.4975 -0.1769
 1307DOPE   GL215334  19.187   5.243  13.115  0.0270  0.0333 -0.2466
 1307DOPE   C1A15335  19.664   5.485  13.086 -0.0562 -0.0315 -0.0093
 1307DOPE   D2A15336  19.659   5.571  12.609 -0.2494  0.1006  0.2190
 1307DOPE   C3A15337  19.580   5.691  12.130  0.0344  0.1095 -0.1413
 1307DOPE   C4A15338  19.491   5.746  11.675  0.1092 -0.0061  0.0756
 1307DOPE   C1B15339  19.109   5.514  12.752  0.1970 -0.0849 -0.0231
 1307DOPE   D2B15340  19.157   5.574  12.291  0.0772 -0.1160 -0.1416
 1307DOPE   C3B15341  18.718   5.536  12.076  0.0292 -0.1481 -0.0220
 1307DOPE   C4B15342  18.275   5.524  12.174  0.1122 -0.1062 -0.1846
 1308POSM   NC315343  19.222  10.415  12.573 -0.2386 -0.0387 -0.0759
 1308POSM   PO415344  19.023  10.751  12.649  0.0980 -0.0502 -0.1021
 1308POSM   AM115345  18.909  10.706  12.342 -0.1695 -0.1729 -0.1449
 1308POSM   AM215346  19.062  10.754  12.069 -0.1665 -0.1000 -0.2065
 1308POSM   T1A15347  18.491  10.743  12.100  0.0938  0.1564 -0.0012
 1308POSM   C2A15348  18.091  10.786  11.879  0.2614  0.0096  0.1503
 1308POSM   C3A15349  17.849  10.482  11.655  0.3912  0.0352 -0.0702
 1308POSM   C1B15350  19.337  10.925  11.935 -0.1102 -0.1210  0.0662
 1308POSM   D2B15351  19.586  11.249  11.670  0.0784 -0.4543 -0.1313
 1308POSM   C3B15352  19.639  11.110  11.293  0.1051 -0.2384  0.0614
 1308POSM   C4B15353  19.743  11.281  10.887 -0.0915 -0.2165 -0.0228
 1309DOPC   NC315354  19.186   1.498  14.497  0.1015  0.0972  0.2111
 1309DOPC   PO415355  19.426   1.572  14.187  0.1357 -0.1307  0.0768
 1309DOPC   GL115356  19.456   1.284  13.867  0.0589 -0.1409  0.1191
 1309DOPC   GL215357  19.410   1.537  13.687 -0.2470 -0.0664 -0.0949
 1309DOPC   C1A15358  19.295   1.047  13.516  0.0595 -0.0703 -0.0814
 1309DOPC   D2A15359  19.044   0.949  13.106 -0.0221  0.0246 -0.2498
 1309DOPC   C3A15360  18.941   1.202  12.700 -0.1258 -0.0101 -0.2739
 1309DOPC   C4A15361  18.837   1.211  12.229 -0.0970 -0.0695 -0.1025
 1309DOPC   C1B15362  19.757   1.215  13.533  0.0351  0.1397  0.0270
 1309DOPC   D2B15363  19.961   0.813  13.397  0.1872 -0.0044  0.0496
 1309DOPC   C3B15364  20.433   0.802  13.325 -0.0594 -0.2130  0.2480
 1309DOPC   C4B15365  20.846   0.684  13.453 -0.0520  0.2167  0.0634
 1310POSM   NC315366  17.412   3.500  13.573  0.0491 -0.0038  0.0025
 1310POSM   PO415367  17.123   3.770  13.714 -0.0101  0.0329 -0.0804
 1310POSM   AM115368  17.064   3.842  13.446 -0.0617 -0.0104  0.1405
 1310POSM   AM215369  17.060   4.031  13.272  0.2085  0.0598 -0.0077
 1310POSM   T1A15370  16.882   3.631  12.998 -0.0481 -0.1817  0.0022
 1310POSM   C2A15371  17.009   3.471  12.564 -0.0377 -0.0654 -0.2074
 1310POSM   C3A15372  16.983   3.359  12.108 -0.0037 -0.1907  0.0972
 1310POSM   C1B15373  17.255   4.251  13.023  0.0451 -0.4852 -0.0801
 1310POSM   D2B15374  17.504   4.540  12.782 -0.0796  0.4282 -0.2302
 1310POSM   C3B15375  17.399   4.973  12.673 -0.1524 -0.1106 -0.1658
 1310POSM   C4B15376  17.157   5.261  12.403  0.4050  0.3804 -0.0160
 1311POSM   NC315377  12.647   9.071  13.223  0.0342 -0.0202  0.1885
 1311POSM   PO415378  12.300   9.162  13.330  0.0039  0.2693 -0.1520
 1311POSM   AM115379  12.158   9.051  13.031 -0.2823  0.1526  0.1414
 1311POSM   AM215380  11.948   8.957  12.967 -0.1627 -0.0058  0.0216
 1311POSM   T1A15381  12.214   8.875  12.532  0.1617 -0.2787  0.1538
 1311POSM   C2A15382  12.421   9.020  12.082 -0.0630 -0.2179 -0.0635
 1311POSM   C3A15383  12.542   9.415  11.790  0.2743 -0.1860 -0.1425
 1311POSM   C1B15384  11.838   9.190  12.735 -0.0134 -0.1601  0.2674
 1311POSM   D2B15385  11.701   9.644  12.555 -0.2093  0.0171  0.2509
 1311POSM   C3B15386  11.643   9.653  12.078 -0.1424  0.5005  0.2411
 1311POSM   C4B15387  11.503   9.585  11.665  0.1336  0.0943 -0.3498
 1312DOPS   CNO15388  19.330   8.797  13.191 -0.0188 -0.0200  0.0959
 1312DOPS   PO415389  19.017   8.942  13.288 -0.1841  0.1330 -0.0096
 1312DOPS   GL115390  18.825   8.746  12.978  0.2262  0.1058 -0.1805
 1312DOPS   GL215391  18.825   8.468  13.009  0.1040  0.0149 -0.0683
 1312DOPS   C1A15392  18.965   8.737  12.512  0.0016 -0.1866 -0.1016
 1312DOPS   D2A15393  19.290   9.024  12.386 -0.2378 -0.1759  0.0806
 1312DOPS   C3A15394  19.302   9.258  11.973  0.2101 -0.2677  0.0075
 1312DOPS   C4A15395  19.473   9.027  11.642  0.0323 -0.1872 -0.1727
 1312DOPS   C1B15396  18.659   8.325  12.604 -0.0913  0.1419 -0.3339
 1312DOPS   D2B15397  18.818   8.049  12.270  0.0710  0.1969  0.0122
 1312DOPS   C3B15398  19.083   8.067  11.902 -0.1107  0.3905 -0.0075
 1312DOPS   C4B15399  19.065   7.665  11.594  0.1433 -0.2681 -0.1232
 1313DOPC   NC315400  20.573   9.006  12.955 -0.0562  0.2278 -0.1373
 1313DOPC   PO415401  20.254   8.833  13.059  0.0584  0.0417  0.2689
 1313DOPC   GL115402  20.186   8.987  12.732 -0.1649  0.1163  0.0437
 1313DOPC   GL215403  20.355   8.914  12.500  0.0582  0.0090  0.0366
 1313DOPC   C1A15404  19.881   9.043  12.360  0.1136 -0.1985 -0.4896
 1313DOPC   D2A15405  19.694   8.696  12.110 -0.1134 -0.1388 -0.2071
 1313DOPC   C3A15406  19.199   8.638  12.052  0.0120 -0.1548 -0.2317
 1313DOPC   C4A15407  18.767   8.548  12.061 -0.0767  0.0420  0.1759
 1313DOPC   C1B15408  20.594   8.529  12.383  0.0936 -0.3042 -0.1583
 1313DOPC   D2B15409  20.727   8.375  11.950 -0.0789  0.5292  0.0384
 1313DOPC   C3B15410  20.595   8.695  11.626  0.1212 -0.0004  0.0062
 1313DOPC   C4B15411  20.451   9.048  11.464 -0.1874  0.3639  0.1787
 1314DOPE   NH315412  17.942   7.710  13.616 -0.2143  0.0675  0.1081
 1314DOPE   PO415413  17.957   8.014  13.491 -0.1076 -0.1451  0.2627
 1314DOPE   GL115414  18.067   8.023  13.097  0.0677  0.0737 -0.1993
 1314DOPE   GL215415  18.355   8.172  13.111  0.0199  0.3025 -0.0002
 1314DOPE   C1A15416  17.685   8.164  12.881  0.0092 -0.1028 -0.2426
 1314DOPE   D2A15417  17.376   7.842  12.698  0.0071 -0.0965 -0.1471
 1314DOPE   C3A15418  17.453   7.526  12.374 -0.0134 -0.2450 -0.0111
 1314DOPE   C4A15419  17.608   7.198  12.214  0.0551 -0.0855  0.0546
 1314DOPE   C1B15420  18.429   7.902  12.741  0.0054 -0.0134 -0.1691
 1314DOPE   D2B15421  18.425   7.722  12.317  0.0322  0.0947  0.0431
 1314DOPE   C3B15422  18.593   7.820  11.884  0.2970 -0.1261 -0.0258
 1314DOPE   C4B15423  18.606   8.236  11.687  0.3228  0.1168 -0.2140
 1315DOPE   NH315424  15.937   5.669  13.623 -0.1380 -0.1088 -0.0150
 1315DOPE   PO415425  16.216   5.708  13.792  0.1621 -0.0278  0.0008
 1315DOPE   GL115426  16.360   5.523  13.480  0.0430 -0.2221  0.1043
 1315DOPE   GL215427  16.246   5.265  13.460 -0.3358  0.2664  0.2000
 1315DOPE   C1A15428  16.358   5.683  13.054 -0.0531 -0.0933 -0.0849
 1315DOPE   D2A15429  16.723   5.651  12.786  0.1543 -0.2149  0.1863
 1315DOPE   C3A15430  16.648   5.527  12.360 -0.1147  0.0036 -0.0694
 1315DOPE   C4A15431  16.768   5.331  11.963  0.0513  0.2161  0.3307
 1315DOPE   C1B15432  16.107   5.210  13.024 -0.0372 -0.0767  0.1875
 1315DOPE   D2B15433  16.403   5.188  12.625 -0.2389  0.0665 -0.2276
 1315DOPE   C3B15434  16.257   5.261  12.178  0.3415  0.2486 -0.0864
 1315DOPE   C4B15435  16.375   5.532  11.803 -0.2392  0.0408  0.1352
 1316DOPC   NC315436  17.161   4.276  13.690 -0.1948  0.1735  0.0745
 1316DOPC   PO415437  16.806   4.183  13.765 -0.3144 -0.2194 -0.0595
 1316DOPC   GL115438  16.687   4.267  13.422  0.0789  0.0380 -0.3078
 1316DOPC   GL215439  16.506   4.511  13.467 -0.1482 -0.0161 -0.1074
 1316DOPC   C1A15440  16.746   4.261  12.968  0.1679  0.1450 -0.0937
 1316DOPC   D2A15441  16.589   4.302  12.504  0.2272  0.0086  0.0734
 1316DOPC   C3A15442  16.759   4.373  12.092  0.4652 -0.0364 -0.1045
 1316DOPC   C4A15443  17.045   4.428  11.769  0.3892 -0.0715 -0.1734
 1316DOPC   C1B15444  16.606   4.911  13.170 -0.1281  0.1379 -0.0436
 1316DOPC   D2B15445  16.625   5.329  13.093 -0.2663  0.4013  0.0708
 1316DOPC   C3B15446  16.815   5.731  13.254 -0.0342 -0.2233  0.1196
 1316DOPC   C4B15447  17.235   5.991  13.152  0.0622  0.0298 -0.3049
 1317POSM   NC315448  20.668   7.850  13.459  0.3844  0.1425  0.1420
 1317POSM   PO415449  20.398   8.151  13.383 -0.2490 -0.0302  0.1993
 1317POSM   AM115450  20.234   8.021  13.133 -0.4420 -0.1253  0.1739
 1317POSM   AM215451  20.003   7.885  13.134 -0.0182 -0.0646 -0.0859
 1317POSM   T1A15452  20.235   7.951  12.643 -0.3169  0.0101  0.0668
 1317POSM   C2A15453  20.293   8.082  12.157  0.1334 -0.2312  0.0248
 1317POSM   C3A15454  19.966   8.010  11.832  0.4412  0.2505 -0.5564
 1317POSM   C1B15455  19.790   7.667  12.979 -0.3853 -0.1315  0.0307
 1317POSM   D2B15456  19.657   7.544  12.556  0.0683 -0.0303  0.1787
 1317POSM   C3B15457  19.639   7.200  12.247 -0.4925  0.0480  0.0515
 1317POSM   C4B15458  19.975   7.021  12.032  0.0929 -0.2065 -0.0370
 1318POSM   NC315459  15.435  12.325  12.702  0.0977  0.0277  0.0100
 1318POSM   PO415460  15.093  12.137  12.570  0.2208  0.2412  0.0417
 1318POSM   AM115461  15.046  12.155  12.268  0.0396 -0.1235  0.1801
 1318POSM   AM215462  15.197  12.098  12.040  0.1038 -0.2136  0.0885
 1318POSM   T1A15463  14.732  12.129  11.905  0.1554 -0.2813  0.1687
 1318POSM   C2A15464  14.532  12.057  11.480  0.3305  0.0134 -0.1471
 1318POSM   C3A15465  14.502  11.794  11.105  0.1012 -0.0859 -0.3015
 1318POSM   C1B15466  15.315  12.203  11.781  0.1172 -0.0888 -0.1632
 1318POSM   D2B15467  15.440  12.382  11.343 -0.0876 -0.0593  0.1617
 1318POSM   C3B15468  15.578  12.011  11.053  0.2655 -0.0677  0.3392
 1318POSM   C4B15469  15.599  11.733  10.660 -0.0153 -0.3066  0.1370
 1319DOPC   NC315470  21.034   9.757  12.833 -0.1212 -0.1477 -0.4144
 1319DOPC   PO415471  21.087   9.706  13.250 -0.0105  0.4488 -0.1274
 1319DOPC   GL115472  21.412   9.540  12.997  0.0672  0.0585  0.6237
 1319DOPC   GL215473  21.525   9.872  12.995  0.1211  0.1353 -0.0233
 1319DOPC   C1A15474  21.394   9.170  12.704 -0.0156 -0.0128  0.2604
 1319DOPC   D2A15475  21.239   8.986  12.311 -0.0754 -0.1578 -0.3842
 1319DOPC   C3A15476  20.792   8.938  12.203  0.2082  0.2466  0.1748
 1319DOPC   C4A15477  20.509   9.174  11.913  0.0653  0.1101  0.1579
 1319DOPC   C1B15478  21.423   9.722  12.549 -0.1314  0.0521 -0.1965
 1319DOPC   D2B15479  21.426   9.693  12.052  0.0746 -0.0650  0.0006
 1319DOPC   C3B15480  21.116   9.964  11.831 -0.1763  0.1097  0.2366
 1319DOPC   C4B15481  20.991   9.959  11.379  0.0916  0.1155 -0.0117
 1320DOPS   CNO15482  19.759   4.292  14.116  0.4212  0.2309  0.1038
 1320DOPS   PO415483  19.983   4.389  13.852  0.0609  0.0836 -0.3191
 1320DOPS   GL115484  20.269   4.465  13.489  0.1246 -0.2179 -0.1108
 1320DOPS   GL215485  20.351   4.323  13.330 -0.1323  0.0551 -0.2021
 1320DOPS   C1A15486  20.274   4.755  13.114 -0.0439 -0.1758  0.2228
 1320DOPS   D2A15487  20.481   5.070  12.849 -0.0747  0.3392 -0.0942
 1320DOPS   C3A15488  20.452   5.144  12.426 -0.0355 -0.3074 -0.0257
 1320DOPS   C4A15489  20.382   5.158  12.002  0.1202  0.1897 -0.1041
 1320DOPS   C1B15490  20.179   4.243  12.878 -0.1736 -0.2343 -0.1006
 1320DOPS   D2B15491  19.998   4.311  12.421 -0.1919  0.2443 -0.0216
 1320DOPS   C3B15492  20.049   4.697  12.142 -0.4999  0.0233  0.0442
 1320DOPS   C4B15493  20.065   4.905  11.749  0.1642  0.0178  0.1378
 1321DOPE   NH315494  21.347   6.484  14.190 -0.1958  0.1210 -0.0227
 1321DOPE   PO415495  21.652   6.468  14.169  0.5101 -0.0390 -0.0230
 1321DOPE   GL115496  21.901   6.454  13.806 -0.1405 -0.2283  0.0565
 1321DOPE   GL215497  21.690   6.317  13.685  0.2810  0.0276  0.2839
 1321DOPE   C1A15498  21.998   6.519  13.341  0.0138 -0.0567 -0.0401
 1321DOPE   D2A15499  22.104   6.471  12.929 -0.0713  0.2283 -0.0096
 1321DOPE   C3A15500  22.362   6.112  13.027 -0.1253 -0.1391 -0.2051
 1321DOPE   C4A15501  22.356   5.648  13.176 -0.1004 -0.0309  0.2935
 1321DOPE   C1B15502  21.599   6.265  13.260 -0.3036  0.0767 -0.2724
 1321DOPE   D2B15503  21.588   6.488  12.857 -0.3113  0.2697  0.1855
 1321DOPE   C3B15504  21.545   6.611  12.367  0.1373  0.1323 -0.0266
 1321DOPE   C4B15505  21.563   6.656  11.927 -0.4555  0.0282 -0.0296
 1322DOPS   CNO15506  17.657  10.980  12.658 -0.1479 -0.0558 -0.0608
 1322DOPS   PO415507  17.468  10.688  12.616  0.0257 -0.1191 -0.2468
 1322DOPS   GL115508  17.370  10.662  12.293 -0.2964 -0.0420 -0.0753
 1322DOPS   GL215509  17.036  10.601  12.252 -0.1163  0.0510  0.0449
 1322DOPS   C1A15510  17.357  10.312  12.018 -0.1403 -0.2175 -0.2041
 1322DOPS   D2A15511  17.517  10.107  11.680  0.1641 -0.0038  0.3093
 1322DOPS   C3A15512  17.583   9.687  11.853 -0.1691 -0.3734 -0.1671
 1322DOPS   C4A15513  17.436   9.266  11.906  0.0420  0.2400 -0.1575
 1322DOPS   C1B15514  17.097  10.909  11.881  0.1581 -0.0318 -0.3076
 1322DOPS   D2B15515  16.882  10.883  11.484 -0.0246 -0.0386 -0.0596
 1322DOPS   C3B15516  17.150  10.762  11.153 -0.0900  0.2036 -0.1812
 1322DOPS   C4B15517  17.408  10.549  10.877  0.1139 -0.0528 -0.1670
 1323DOPS   CNO15518  13.328   2.479  14.210 -0.0785 -0.0592  0.2055
 1323DOPS   PO415519  13.292   2.390  13.873 -0.2908 -0.1114  0.0047
 1323DOPS   GL115520  13.351   2.404  13.537  0.2530  0.2240  0.0638
 1323DOPS   GL215521  13.617   2.404  13.424 -0.1844  0.3367 -0.2103
 1323DOPS   C1A15522  13.268   2.504  13.086  0.0541 -0.3233 -0.1902
 1323DOPS   D2A15523  12.896   2.382  12.758 -0.2020 -0.2012 -0.1788
 1323DOPS   C3A15524  13.046   2.650  12.407 -0.1228 -0.0022 -0.0876
 1323DOPS   C4A15525  13.353   2.962  12.229 -0.1777 -0.0536 -0.2962
 1323DOPS   C1B15526  13.728   2.378  12.983  0.0011  0.0288  0.1120
 1323DOPS   D2B15527  13.966   2.383  12.581  0.0324  0.3046 -0.3127
 1323DOPS   C3B15528  13.809   2.420  12.159 -0.2299 -0.0451  0.3944
 1323DOPS   C4B15529  13.431   2.548  11.957  0.3059 -0.1369  0.0720
 1324POSM   NC315530  16.093   8.053  13.216  0.3713  0.0828 -0.0217
 1324POSM   PO415531  16.161   8.400  13.368 -0.0279  0.3078 -0.0097
 1324POSM   AM115532  16.212   8.497  13.095 -0.1871 -0.0302 -0.2882
 1324POSM   AM215533  16.043   8.421  12.845 -0.1613  0.4961  0.2692
 1324POSM   T1A15534  16.467   8.883  12.813 -0.0720 -0.0660 -0.2114
 1324POSM   C2A15535  16.572   9.181  12.497 -0.0394 -0.2217 -0.2797
 1324POSM   C3A15536  16.722   9.642  12.380 -0.0092  0.0365  0.0210
 1324POSM   C1B15537  15.869   8.170  12.736  0.0946  0.2253  0.1905
 1324POSM   D2B15538  15.795   7.729  12.573  0.1948 -0.0309 -0.3693
 1324POSM   C3B15539  16.131   7.659  12.198 -0.0741 -0.0135  0.0592
 1324POSM   C4B15540  16.211   7.516  11.788 -0.1531  0.0303 -0.2123
 1325POSM   NC315541  22.127   6.283  14.170 -0.2901  0.1047 -0.2749
 1325POSM   PO415542  21.874   5.995  14.074 -0.1637 -0.0039 -0.0400
 1325POSM   AM115543  21.849   5.894  13.751 -0.4040  0.0295  0.1236
 1325POSM   AM215544  21.921   5.831  13.494  0.1302 -0.2169  0.1476
 1325POSM   T1A15545  21.458   5.746  13.469 -0.0577 -0.1475 -0.3264
 1325POSM   C2A15546  21.360   5.780  13.007  0.2256  0.0464  0.1830
 1325POSM   C3A15547  21.330   6.002  12.601  0.2537 -0.1806 -0.2072
 1325POSM   C1B15548  21.898   5.850  13.154 -0.3644 -0.1187 -0.1523
 1325POSM   D2B15549  21.926   6.086  12.723  0.2389  0.0363 -0.0624
 1325POSM   C3B15550  21.880   5.808  12.355 -0.0488  0.1665  0.1891
 1325POSM   C4B15551  21.764   5.791  11.937  0.1299 -0.1674  0.0513
 1326DOPC   NC315552  16.307   3.406  13.990 -0.1231 -0.3470 -0.0410
 1326DOPC   PO415553  16.603   3.170  13.932 -0.0892 -0.0696 -0.1064
 1326DOPC   GL115554  16.687   3.004  13.593 -0.3233 -0.3415 -0.1242
 1326DOPC   GL215555  16.695   2.757  13.499  0.1112 -0.0054 -0.1313
 1326DOPC   C1A15556  16.589   3.126  13.154 -0.3852 -0.0995  0.3466
 1326DOPC   D2A15557  16.367   2.871  12.819 -0.0573 -0.0972  0.4202
 1326DOPC   C3A15558  16.708   2.547  12.667  0.1763 -0.1161  0.1595
 1326DOPC   C4A15559  16.925   2.345  12.251  0.0311 -0.2664  0.0579
 1326DOPC   C1B15560  16.899   2.718  13.099 -0.2661  0.1060  0.0790
 1326DOPC   D2B15561  17.007   2.983  12.705 -0.0779 -0.1993  0.0201
 1326DOPC   C3B15562  16.992   2.842  12.278  0.0874  0.1934  0.2048
 1326DOPC   C4B15563  17.045   2.865  11.802 -0.0600  0.1229 -0.1374
 1327POSM   NC315564  16.953  10.533  12.790  0.1609 -0.1022 -0.0253
 1327POSM   PO415565  16.926  10.912  12.632  0.2153  0.0854 -0.1330
 1327POSM   AM115566  16.681  10.907  12.405  0.3093  0.1276  0.1570
 1327POSM   AM215567  16.381  10.982  12.370 -0.2917 -0.0094  0.2021
 1327POSM   T1A15568  16.647  10.711  11.934 -0.0746 -0.0942 -0.1909
 1327POSM   C2A15569  16.540  10.529  11.524  0.1843  0.2220  0.0989
 1327POSM   C3A15570  16.406  10.317  11.124 -0.2699  0.1313  0.0357
 1327POSM   C1B15571  16.300  11.238  12.216  0.3425 -0.1542 -0.1981
 1327POSM   D2B15572  16.277  11.454  11.810 -0.1921  0.0810  0.0362
 1327POSM   C3B15573  15.927  11.448  11.493 -0.1056  0.1518  0.0807
 1327POSM   C4B15574  15.873  11.661  11.138 -0.1476 -0.0223 -0.3909
 1328DOPC   NC315575  20.331   9.706  13.564 -0.2514  0.0240 -0.1866
 1328DOPC   PO415576  20.505   9.638  13.220  0.1060  0.0444  0.0453
 1328DOPC   GL115577  20.579   9.477  12.908 -0.1688 -0.0690 -0.1412
 1328DOPC   GL215578  20.459   9.509  12.637 -0.0868 -0.0864  0.4581
 1328DOPC   C1A15579  20.904   9.295  12.665 -0.4166  0.0613 -0.0026
 1328DOPC   D2A15580  20.953   9.415  12.208  0.2014 -0.1343  0.2076
 1328DOPC   C3A15581  21.143   9.210  11.860 -0.1125  0.0020  0.0079
 1328DOPC   C4A15582  21.508   8.954  11.918 -0.2051  0.1352  0.0565
 1328DOPC   C1B15583  20.506   9.620  12.180 -0.0242 -0.2730 -0.0588
 1328DOPC   D2B15584  20.783   9.608  11.754 -0.0494 -0.2122 -0.3556
 1328DOPC   C3B15585  20.480   9.522  11.420 -0.0093 -0.1642  0.1042
 1328DOPC   C4B15586  20.143   9.790  11.238  0.1595  0.2102  0.0759
 1329POSM   NC315587  17.761   5.481  14.133  0.0999 -0.2256 -0.1121
 1329POSM   PO415588  18.110   5.386  13.982 -0.3195  0.1818  0.2251
 1329POSM   AM115589  18.167   5.400  13.681  0.2459 -0.0589  0.0431
 1329POSM   AM215590  18.279   5.609  13.480  0.2526 -0.2081  0.2509
 1329POSM   T1A15591  18.454   5.154  13.328 -0.1514 -0.1129  0.0252
 1329POSM   C2A15592  18.694   5.037  12.922  0.2491 -0.1002 -0.2119
 1329POSM   C3A15593  18.850   5.181  12.480 -0.0107 -0.1895 -0.0907
 1329POSM   C1B15594  18.313   5.870  13.247  0.0992  0.0947 -0.0432
 1329POSM   D2B15595  18.242   5.950  12.781  0.0508  0.0744 -0.1494
 1329POSM   C3B15596  17.953   5.858  12.448 -0.1501 -0.1884 -0.1730
 1329POSM   C4B15597  17.790   5.640  12.063  0.1719 -0.0340 -0.0101
 1330POSM   NC315598  20.249   2.200  13.999  0.0491  0.2029 -0.2299
 1330POSM   PO415599  20.414   2.069  14.350 -0.2454 -0.0451 -0.1468
 1330POSM   AM115600  20.619   1.960  14.115 -0.2429 -0.4276 -0.6160
 1330POSM   AM215601  20.885   1.957  14.154  0.0689 -0.0721  0.2570
 1330POSM   T1A15602  20.687   1.689  13.729  0.1782  0.2165  0.0695
 1330POSM   C2A15603  20.800   1.256  13.518 -0.2111  0.2785  0.1653
 1330POSM   C3A15604  20.908   1.068  13.121  0.0107  0.2238  0.0840
 1330POSM   C1B15605  21.155   1.985  13.928  0.0262  0.1138  0.0833
 1330POSM   D2B15606  21.369   2.324  13.700  0.4024  0.2367 -0.1031
 1330POSM   C3B15607  21.386   2.635  13.308 -0.0236  0.2339 -0.1033
 1330POSM   C4B15608  21.429   2.713  12.888 -0.1628 -0.0945 -0.0559
 1331DOPC   NC315609  11.818   5.820  13.700  0.1669  0.1953 -0.2598
 1331DOPC   PO415610  11.837   5.544  14.009 -0.2859 -0.1186 -0.1701
 1331DOPC   GL115611  11.834   5.298  13.683 -0.2181  0.1227 -0.0828
 1331DOPC   GL215612  12.105   5.432  13.476 -0.1061 -0.1611  0.2386
 1331DOPC   C1A15613  11.646   5.055  13.357 -0.2042 -0.2163  0.3371
 1331DOPC   D2A15614  11.728   5.020  12.908  0.0575 -0.2216  0.0899
 1331DOPC   C3A15615  11.421   4.918  12.565  0.0343  0.1160 -0.0215
 1331DOPC   C4A15616  11.430   4.569  12.282 -0.2916 -0.0381 -0.0663
 1331DOPC   C1B15617  12.164   5.100  13.163  0.0955  0.0043 -0.0120
 1331DOPC   D2B15618  12.215   5.094  12.672  0.3354 -0.0864  0.0818
 1331DOPC   C3B15619  12.560   5.183  12.443  0.0649 -0.2281  0.3340
 1331DOPC   C4B15620  12.875   4.857  12.373 -0.0879  0.0230 -0.1167
 1332DOPE   NH315621  11.620   1.518  14.111 -0.3812  0.0976  0.2459
 1332DOPE   PO415622  11.555   1.705  13.838 -0.0683  0.3624  0.0775
 1332DOPE   GL115623  11.573   1.810  13.546  0.2033  0.0424 -0.0358
 1332DOPE   GL215624  11.847   1.846  13.361  0.2004 -0.2554 -0.2581
 1332DOPE   C1A15625  11.494   1.547  13.192  0.2174  0.0686  0.0693
 1332DOPE   D2A15626  11.600   1.298  12.854 -0.2100 -0.1893 -0.1669
 1332DOPE   C3A15627  11.308   1.437  12.521  0.0974  0.1803  0.1699
 1332DOPE   C4A15628  11.094   1.492  12.131 -0.1594  0.0217  0.0326
 1332DOPE   C1B15629  11.821   1.735  12.903  0.2383 -0.1579 -0.0705
 1332DOPE   D2B15630  11.732   1.683  12.497  0.1290 -0.3193 -0.0266
 1332DOPE   C3B15631  11.747   2.000  12.138  0.0062 -0.5411 -0.0534
 1332DOPE   C4B15632  11.365   2.123  11.884  0.2115  0.1859 -0.2670
 1333DOPC   NC315633  13.257   4.703  13.942  0.2304  0.1132 -0.1577
 1333DOPC   PO415634  13.497   4.995  13.826 -0.2198  0.1251  0.0355
 1333DOPC   GL115635  13.304   5.170  13.427 -0.1768 -0.5560 -0.2031
 1333DOPC   GL215636  13.473   5.395  13.257 -0.3021 -0.1408  0.0174
 1333DOPC   C1A15637  12.967   5.348  13.203  0.0309  0.3085 -0.0775
 1333DOPC   D2A15638  12.631   5.166  12.940  0.0457 -0.0784  0.1115
 1333DOPC   C3A15639  12.477   4.743  12.915  0.1359  0.0836  0.2095
 1333DOPC   C4A15640  12.367   4.365  13.108 -0.2831  0.1613  0.0574
 1333DOPC   C1B15641  13.509   5.352  12.819  0.0870  0.0435 -0.0112
 1333DOPC   D2B15642  13.774   5.224  12.500 -0.1532  0.1576 -0.0556
 1333DOPC   C3B15643  14.167   5.442  12.535 -0.0354 -0.1965 -0.4400
 1333DOPC   C4B15644  14.572   5.605  12.315 -0.0270 -0.3785  0.2687
 1334POSM   NC315645  18.262   6.876  13.915 -0.1041 -0.1058  0.1408
 1334POSM   PO415646  18.617   7.033  13.927 -0.2109 -0.2002  0.2338
 1334POSM   AM115647  18.734   7.208  13.684  0.0152  0.1494  0.3086
 1334POSM   AM215648  19.002   7.321  13.632  0.0549 -0.1179 -0.0535
 1334POSM   T1A15649  18.667   7.319  13.158 -0.0666  0.2205  0.1658
 1334POSM   C2A15650  18.637   7.406  12.696  0.0404 -0.4038 -0.3427
 1334POSM   C3A15651  18.880   7.603  12.369  0.2188  0.0314  0.1696
 1334POSM   C1B15652  19.186   7.446  13.336 -0.0187 -0.3794  0.0269
 1334POSM   D2B15653  19.241   7.494  12.872  0.0005 -0.1454 -0.0467
 1334POSM   C3B15654  19.093   7.174  12.546 -0.3296  0.2875  0.0375
 1334POSM   C4B15655  19.267   6.697  12.443 -0.2527  0.2216 -0.1292
 1335POSM   NC315656  11.563  10.030  12.975 -0.2507 -0.0973 -0.1542
 1335POSM   PO415657  11.943  10.036  13.081 -0.0287  0.3668 -0.0912
 1335POSM   AM115658  12.129  10.120  12.825  0.3872  0.2497  0.1950
 1335POSM   AM215659  12.094   9.926  12.581  0.1698 -0.1722  0.1025
 1335POSM   T1A15660  12.292  10.461  12.505  0.5581  0.0413  0.1716
 1335POSM   C2A15661  12.642  10.552  12.256  0.0316  0.0812  0.2122
 1335POSM   C3A15662  12.995  10.864  12.202  0.0180  0.0900  0.0306
 1335POSM   C1B15663  11.964  10.075  12.303  0.1820  0.1019  0.0164
 1335POSM   D2B15664  11.608  10.196  12.050  0.1814 -0.0611 -0.0098
 1335POSM   C3B15665  11.497  10.514  11.824 -0.0710  0.0643 -0.0339
 1335POSM   C4B15666  11.411  10.888  11.545  0.2770 -0.1497 -0.0697
 1336POSM   NC315667  15.724   4.811  13.724  0.1217 -0.1134  0.0491
 1336POSM   PO415668  15.766   5.186  13.654 -0.0533 -0.0650  0.0243
 1336POSM   AM115669  15.597   5.145  13.401  0.2060 -0.0256  0.1823
 1336POSM   AM215670  15.419   5.007  13.262 -0.0818  0.0946  0.1098
 1336POSM   T1A15671  15.664   5.258  12.899  0.1697  0.2803  0.0732
 1336POSM   C2A15672  15.808   5.406  12.493  0.3691  0.0592 -0.5343
 1336POSM   C3A15673  15.712   5.333  12.045 -0.0204  0.2395  0.0457
 1336POSM   C1B15674  15.464   4.739  13.065 -0.0848 -0.1996 -0.0559
 1336POSM   D2B15675  15.482   4.575  12.619 -0.0294 -0.4281 -0.1505
 1336POSM   C3B15676  15.499   4.144  12.592 -0.1441 -0.0476 -0.2062
 1336POSM   C4B15677  15.368   3.682  12.624 -0.0576 -0.1413 -0.0077
 1337POSM   NC315678  15.493  10.866  12.705  0.1997 -0.2694  0.1150
 1337POSM   PO415679  15.849  10.925  12.644  0.0388  0.2099  0.2153
 1337POSM   AM115680  15.813  10.995  12.304 -0.1822  0.2251  0.3189
 1337POSM   AM215681  15.945  10.938  12.083 -0.2470 -0.2158  0.0397
 1337POSM   T1A15682  15.803  11.381  11.957  0.0893 -0.1904 -0.0974
 1337POSM   C2A15683  15.734  11.798  11.806  0.2396  0.2989  0.3238
 1337POSM   C3A15684  15.863  12.025  11.479 -0.1080 -0.0969 -0.2670
 1337POSM   C1B15685  16.192  10.955  11.857  0.2631 -0.2523 -0.0632
 1337POSM   D2B15686  16.335  11.022  11.483 -0.0537  0.1286 -0.1284
 1337POSM   C3B15687  16.158  11.228  11.067 -0.1499 -0.0992  0.0684
 1337POSM   C4B15688  15.827  11.330  10.795 -0.0525 -0.0454 -0.3950
 1338DOPC   NC315689  23.327   7.372  13.909  0.3841  0.2161 -0.1048
 1338DOPC   PO415690  23.036   7.600  13.930  0.1028  0.1378  0.1610
 1338DOPC   GL115691  23.031   7.711  13.596 -0.0287  0.1843  0.2552
 1338DOPC   GL215692  22.902   7.543  13.376 -0.3404 -0.0965 -0.2022
 1338DOPC   C1A15693  23.179   7.898  13.193 -0.1234  0.1045  0.2432
 1338DOPC   D2A15694  23.549   8.138  13.086  0.1464 -0.0172 -0.0427
 1338DOPC   C3A15695  23.484   7.950  12.658  0.0512 -0.4156 -0.1359
 1338DOPC   C4A15696  23.455   7.980  12.211  0.0120 -0.0300  0.0453
 1338DOPC   C1B15697  22.935   7.524  12.886  0.2936 -0.0831 -0.3583
 1338DOPC   D2B15698  22.831   7.725  12.457 -0.0153  0.0686 -0.0636
 1338DOPC   C3B15699  23.007   7.620  12.037  0.1759  0.0278  0.0378
 1338DOPC   C4B15700  23.086   7.993  11.710 -0.0448 -0.2087 -0.3565
 1339POSM   NC315701  19.787   6.667  13.988  0.2063  0.1339 -0.4345
 1339POSM   PO415702  19.504   6.402  13.934  0.1661 -0.4420  0.1978
 1339POSM   AM115703  19.558   6.390  13.608 -0.2652  0.1820 -0.0641
 1339POSM   AM215704  19.564   6.169  13.488  0.1109 -0.2448  0.0555
 1339POSM   T1A15705  19.316   6.442  13.175  0.1259  0.1437  0.1332
 1339POSM   C2A15706  19.137   6.299  12.763 -0.4716  0.2282  0.0754
 1339POSM   C3A15707  19.002   6.230  12.314  0.3487 -0.0433  0.0084
 1339POSM   C1B15708  19.766   6.110  13.218 -0.2363  0.0808  0.0807
 1339POSM   D2B15709  20.106   6.047  12.906  0.1952 -0.1613 -0.1008
 1339POSM   C3B15710  20.324   6.252  12.560 -0.0600  0.0502  0.2936
 1339POSM   C4B15711  20.369   6.446  12.109 -0.0015 -0.1436  0.1869
 1340DOPS   CNO15712  15.854   6.470  13.980  0.2136 -0.0929  0.1380
 1340DOPS   PO415713  15.878   6.665  13.655 -0.2339  0.0003  0.0379
 1340DOPS   GL115714  15.846   6.682  13.257 -0.3207 -0.3457  0.4175
 1340DOPS   GL215715  15.884   6.453  13.182  0.0803  0.0078  0.1271
 1340DOPS   C1A15716  16.131   6.739  12.870 -0.0847 -0.2168  0.0008
 1340DOPS   D2A15717  16.492   6.517  12.645 -0.0243  0.0107  0.2515
 1340DOPS   C3A15718  16.468   6.516  12.183  0.1525 -0.0974  0.2517
 1340DOPS   C4A15719  16.105   6.332  11.898  0.1867 -0.1268  0.0349
 1340DOPS   C1B15720  16.229   6.230  12.959  0.2220 -0.0792 -0.2819
 1340DOPS   D2B15721  16.688   6.161  13.069  0.1187 -0.2829  0.0190
 1340DOPS   C3B15722  17.023   6.155  12.754  0.3822 -0.0433  0.1679
 1340DOPS   C4B15723  17.413   6.306  12.516 -0.1137  0.1292 -0.2524
 1341DOPS   CNO15724  13.143  10.839  13.086 -0.2354 -0.0390 -0.1861
 1341DOPS   PO415725  13.333  10.559  13.013 -0.3101 -0.1887  0.3509
 1341DOPS   GL115726  13.241  10.332  12.651 -0.0045  0.1032  0.1154
 1341DOPS   GL215727  13.283  10.485  12.434  0.3589 -0.3750 -0.2267
 1341DOPS   C1A15728  13.011  10.127  12.305 -0.1702  0.1185 -0.2082
 1341DOPS   D2A15729  12.963   9.726  12.071 -0.0105  0.0668 -0.2066
 1341DOPS   C3A15730  13.257   9.527  11.791  0.0063  0.2240  0.0030
 1341DOPS   C4A15731  13.640   9.463  11.506  0.1860  0.2017 -0.0573
 1341DOPS   C1B15732  13.235  10.469  11.974  0.0391  0.0737 -0.0291
 1341DOPS   D2B15733  13.237  10.086  11.765 -0.0168 -0.0511 -0.2719
 1341DOPS   C3B15734  13.072  10.126  11.303  0.0383 -0.0283  0.2106
 1341DOPS   C4B15735  12.992  10.233  10.853  0.2206 -0.3805  0.0925
 1342DOPS   CNO15736  19.549  10.395  13.315 -0.3266  0.1359  0.0176
 1342DOPS   PO415737  19.632  10.529  12.940 -0.3523  0.0192 -0.0328
 1342DOPS   GL115738  19.631  10.577  12.526  0.0352  0.0551 -0.1486
 1342DOPS   GL215739  19.589  10.847  12.374 -0.1511 -0.0886  0.0638
 1342DOPS   C1A15740  19.552  10.447  12.086  0.3756 -0.1326 -0.1648
 1342DOPS   D2A15741  19.251  10.443  11.764 -0.0334 -0.1794 -0.1788
 1342DOPS   C3A15742  19.253  10.855  11.461  0.0146  0.0677  0.0049
 1342DOPS   C4A15743  19.144  11.339  11.435 -0.1844  0.2249 -0.0369
 1342DOPS   C1B15744  19.790  11.246  12.104 -0.2113  0.3597 -0.3189
 1342DOPS   D2B15745  20.014  11.411  11.775 -0.0629  0.4074 -0.1149
 1342DOPS   C3B15746  20.226  11.013  11.606 -0.0339 -0.3834  0.0246
 1342DOPS   C4B15747  20.171  10.790  11.172  0.0064 -0.1180 -0.1544
 1343POSM   NC315748  19.794   2.659  13.922 -0.1058 -0.0630 -0.1582
 1343POSM   PO415749  19.806   2.288  13.891  0.0810  0.1084  0.3651
 1343POSM   AM115750  19.614   2.023  13.767 -0.1097  0.0467 -0.2063
 1343POSM   AM215751  19.342   2.074  13.709  0.3908  0.4335  0.2482
 1343POSM   T1A15752  19.496   1.865  13.325  0.1319  0.1248 -0.0256
 1343POSM   C2A15753  19.304   1.832  12.834  0.2541 -0.0016  0.0921
 1343POSM   C3A15754  19.013   1.743  12.510  0.2034  0.2791  0.1980
 1343POSM   C1B15755  19.064   2.085  13.512 -0.1096  0.3915  0.0292
 1343POSM   D2B15756  18.933   1.958  13.126 -0.1566 -0.0501 -0.1040
 1343POSM   C3B15757  18.739   1.624  12.928 -0.0712  0.0955 -0.0621
 1343POSM   C4B15758  18.552   1.534  12.492  0.0850 -0.2460 -0.2995
 1344DOPE   NH315759  20.736  11.143  12.750  0.1242 -0.2727 -0.0824
 1344DOPE   PO415760  20.536  10.894  12.692 -0.1483 -0.3516 -0.0693
 1344DOPE   GL115761  20.728  10.918  12.327 -0.3584  0.1649 -0.3343
 1344DOPE   GL215762  20.975  11.105  12.275 -0.0638  0.1209 -0.1500
 1344DOPE   C1A15763  20.651  10.947  11.861 -0.1365  0.1991 -0.1834
 1344DOPE   D2A15764  20.707  11.126  11.484  0.1672 -0.1627 -0.1162
 1344DOPE   C3A15765  20.520  11.201  11.010 -0.3776  0.2075  0.0728
 1344DOPE   C4A15766  20.148  11.087  10.758  0.0807 -0.0234 -0.3175
 1344DOPE   C1B15767  21.155  10.901  11.887 -0.1107 -0.0067  0.4004
 1344DOPE   D2B15768  21.319  11.017  11.457 -0.1093  0.2251  0.1087
 1344DOPE   C3B15769  21.008  10.938  11.149 -0.0200 -0.1364 -0.0745
 1344DOPE   C4B15770  20.848  10.569  10.955 -0.3772 -0.0803 -0.1791
 1345POSM   NC315771  15.190   1.158  14.438 -0.0704  0.1928  0.3603
 1345POSM   PO415772  15.223   1.542  14.288 -0.6186  0.1955 -0.3992
 1345POSM   AM115773  15.344   1.354  14.008  0.0624 -0.0010  0.3128
 1345POSM   AM215774  15.560   1.143  14.008  0.1067  0.1564  0.2802
 1345POSM   T1A15775  15.457   1.143  13.514  0.0382  0.3165  0.2310
 1345POSM   C2A15776  15.445   1.137  13.090  0.2600 -0.0137 -0.0316
 1345POSM   C3A15777  15.288   1.132  12.641 -0.1688  0.1466 -0.2638
 1345POSM   C1B15778  15.748   0.890  13.791 -0.0809  0.1154 -0.1396
 1345POSM   D2B15779  15.750   0.623  13.430 -0.2298  0.0403 -0.1052
 1345POSM   C3B15780  15.496   0.569  13.050  0.0067  0.0278 -0.2379
 1345POSM   C4B15781  15.540   0.638  12.631  0.0894  0.0722  0.1810
 1346DOPS   CNO15782  17.825   7.365  14.081  0.0937  0.0427 -0.0891
 1346DOPS   PO415783  18.157   7.331  13.866  0.2338  0.2286 -0.1127
 1346DOPS   GL115784  18.348   7.111  13.526 -0.1355 -0.2444 -0.1551
 1346DOPS   GL215785  18.200   6.878  13.413 -0.2525  0.0057 -0.1166
 1346DOPS   C1A15786  18.724   6.835  13.310  0.1421  0.2373 -0.2128
 1346DOPS   D2A15787  18.714   6.365  13.249 -0.0155 -0.0397  0.0214
 1346DOPS   C3A15788  18.722   6.088  12.891 -0.0310  0.1017 -0.0361
 1346DOPS   C4A15789  18.770   5.812  12.532 -0.1732  0.1669 -0.2300
 1346DOPS   C1B15790  18.278   6.948  12.980  0.0704  0.1190 -0.3491
 1346DOPS   D2B15791  18.134   7.325  12.878  0.0147  0.0885 -0.1849
 1346DOPS   C3B15792  18.094   7.390  12.409  0.0218 -0.1110  0.0579
 1346DOPS   C4B15793  17.983   7.756  12.099  0.0254 -0.2289  0.0334
 1347POSM   NC315794  20.970   5.322  13.799  0.0926  0.2729 -0.0654
 1347POSM   PO415795  21.350   5.207  13.998 -0.2963  0.2925  0.1356
 1347POSM   AM115796  21.488   5.200  13.699 -0.2014 -0.1631 -0.3663
 1347POSM   AM215797  21.743   5.390  13.635  0.0345 -0.3309  0.0196
 1347POSM   T1A15798  21.695   4.875  13.379  0.2383 -0.3842 -0.1500
 1347POSM   C2A15799  21.883   4.482  13.512  0.0639 -0.0561 -0.1816
 1347POSM   C3A15800  21.980   4.090  13.701  0.2298  0.2527 -0.3048
 1347POSM   C1B15801  21.717   5.359  13.269  0.0881 -0.0750 -0.0805
 1347POSM   D2B15802  21.807   5.518  12.804 -0.0415 -0.2073 -0.1929
 1347POSM   C3B15803  22.192   5.629  12.628 -0.0692 -0.2216 -0.1044
 1347POSM   C4B15804  22.454   5.975  12.500  0.1415 -0.2130  0.0397
 1348POSM   NC315805  15.529   6.742  12.899  0.2241  0.2348 -0.1935
 1348POSM   PO415806  15.364   6.660  13.273 -0.0909 -0.1346  0.3278
 1348POSM   AM115807  15.401   6.366  13.140  0.1071  0.1791 -0.5990
 1348POSM   AM215808  15.252   6.194  12.944 -0.1338 -0.4398  0.2555
 1348POSM   T1A15809  15.597   5.911  13.157  0.0885  0.1000  0.1095
 1348POSM   C2A15810  15.932   5.726  12.849 -0.0487 -0.0292  0.0489
 1348POSM   C3A15811  16.266   5.738  12.567 -0.2599  0.2507  0.2307
 1348POSM   C1B15812  15.557   6.244  12.732  0.0786  0.1264 -0.0931
 1348POSM   D2B15813  15.865   6.557  12.489  0.3989 -0.0614  0.5537
 1348POSM   C3B15814  16.140   6.227  12.405 -0.1077  0.1238  0.0228
 1348POSM   C4B15815  16.611   6.096  12.458 -0.2075  0.2932 -0.1483
 1349POSM   NC315816  15.521   9.512  12.550  0.1465 -0.0734  0.2640
 1349POSM   PO415817  15.380   9.228  12.814  0.2347  0.0619  0.1221
 1349POSM   AM115818  15.380   9.025  12.530 -0.2224 -0.2213  0.1870
 1349POSM   AM215819  15.509   9.063  12.258  0.3741 -0.2270  0.0241
 1349POSM   T1A15820  15.409   8.603  12.161 -0.3132  0.1266 -0.1556
 1349POSM   C2A15821  15.431   8.257  11.827 -0.2070  0.1321  0.2426
 1349POSM   C3A15822  15.512   8.034  11.441  0.2299 -0.1619 -0.0049
 1349POSM   C1B15823  15.792   9.021  12.067 -0.1317  0.0583  0.1061
 1349POSM   D2B15824  16.171   8.847  11.842  0.3833  0.0488 -0.0348
 1349POSM   C3B15825  16.362   9.215  11.542  0.1189  0.0664 -0.3656
 1349POSM   C4B15826  16.373   9.343  11.085  0.1082  0.1837 -0.2777
 1350DOPE   NH315827  23.629  10.069  14.175 -0.0681 -0.1446 -0.0681
 1350DOPE   PO415828  23.629  10.282  13.936  0.1278 -0.1020 -0.0377
 1350DOPE   GL115829  23.704  10.571  13.719 -0.1991  0.1281  0.1307
 1350DOPE   GL215830  23.791  10.430  13.461 -0.2725 -0.0044  0.1929
 1350DOPE   C1A15831  23.763  10.886  13.349  0.1110  0.0186  0.0233
 1350DOPE   D2A15832  23.870  11.266  13.125 -0.1200  0.0686  0.1549
 1350DOPE   C3A15833  24.276  11.388  12.928 -0.3530 -0.0320  0.1634
 1350DOPE   C4A15834  24.587  11.735  12.976  0.2237  0.0632 -0.1636
 1350DOPE   C1B15835  24.182  10.506  13.222  0.0585 -0.3481  0.0652
 1350DOPE   D2B15836  24.448  10.295  12.945  0.0607 -0.0150  0.0859
 1350DOPE   C3B15837  24.864  10.193  13.043 -0.0690  0.1760  0.4955
 1350DOPE   C4B15838  25.183  10.350  13.308 -0.0872 -0.5226  0.0462
 1351DOPE   NH315839  14.366   6.951  13.326 -0.0595 -0.0702  0.1010
 1351DOPE   PO415840  14.480   6.795  13.052  0.1651 -0.0250  0.0169
 1351DOPE   GL115841  14.491   6.967  12.771 -0.0363  0.4273  0.0772
 1351DOPE   GL215842  14.476   7.274  12.676  0.3633 -0.1383 -0.1225
 1351DOPE   C1A15843  14.746   6.800  12.422  0.2263  0.1600 -0.3375
 1351DOPE   D2A15844  15.064   6.944  12.091 -0.2165 -0.3057  0.2192
 1351DOPE   C3A15845  14.999   6.686  11.723  0.0400  0.4831  0.2535
 1351DOPE   C4A15846  14.818   6.297  11.492  0.0825  0.0855  0.0671
 1351DOPE   C1B15847  14.431   7.262  12.231  0.0798  0.0263  0.1285
 1351DOPE   D2B15848  14.318   7.451  11.808  0.2562 -0.0951  0.0643
 1351DOPE   C3B15849  14.414   7.267  11.415  0.1093  0.0113  0.1722
 1351DOPE   C4B15850  14.509   7.094  11.006  0.0996 -0.1753  0.3030
 1352DOPS   CNO15851  21.262  34.336  15.250 -0.4561  0.0736  0.1052
 1352DOPS   PO415852  21.503  34.610  15.119  0.0159  0.0533 -0.0086
 1352DOPS   GL115853  21.612  34.394  14.767  0.1547 -0.5957  0.2059
 1352DOPS   GL215854  21.699  34.644  14.645 -0.2631  0.0515  0.0440
 1352DOPS   C1A15855  21.391  34.367  14.326  0.3249 -0.1762 -0.3675
 1352DOPS   D2A15856  21.569  34.021  14.092 -0.0106  0.3057  0.0193
 1352DOPS   C3A15857  21.796  34.007  13.662 -0.0808  0.1305 -0.1196
 1352DOPS   C4A15858  21.941  33.946  13.251 -0.3702  0.0045 -0.1099
 1352DOPS   C1B15859  21.851  34.440  14.277  0.2163 -0.0232 -0.0553
 1352DOPS   D2B15860  21.911  34.510  13.848  0.0777 -0.1501 -0.0928
 1352DOPS   C3B15861  22.141  34.546  13.455 -0.1533 -0.0407  0.1439
 1352DOPS   C4B15862  22.341  34.210  13.151 -0.0717  0.0086  0.2070
 1353DOPS   CNO15863  12.019   2.223  14.337 -0.1552 -0.1986  0.0083
 1353DOPS   PO415864  11.931   1.881  14.187 -0.0701  0.0152  0.1834
 1353DOPS   GL115865  12.002   2.137  13.849  0.5225  0.2386  0.1218
 1353DOPS   GL215866  11.981   2.408  13.816 -0.2015 -0.3324 -0.1186
 1353DOPS   C1A15867  12.305   2.255  13.480 -0.0310  0.0058 -0.1920
 1353DOPS   D2A15868  12.601   2.443  13.173 -0.3236 -0.1094 -0.1136
 1353DOPS   C3A15869  12.836   2.845  13.047 -0.3372  0.2645 -0.1093
 1353DOPS   C4A15870  13.274   2.980  12.914  0.0595  0.3549  0.0209
 1353DOPS   C1B15871  11.826   2.374  13.340 -0.1768  0.0659 -0.1082
 1353DOPS   D2B15872  11.651   2.155  13.049 -0.1128  0.1318  0.2592
 1353DOPS   C3B15873  11.270   2.300  12.972 -0.0207 -0.1274  0.0398
 1353DOPS   C4B15874  10.982   2.283  12.662  0.0242 -0.2591  0.3154
 1354DOPE   NH315875  11.965  10.468  13.269  0.0729  0.1728  0.1704
 1354DOPE   PO415876  11.664  10.482  13.211 -0.1142  0.1571  0.1808
 1354DOPE   GL115877  11.438  10.429  12.986 -0.0713 -0.3002  0.0323
 1354DOPE   GL215878  11.398  10.711  12.896 -0.1027 -0.2012 -0.0775
 1354DOPE   C1A15879  11.154  10.378  12.670 -0.3111 -0.1159  0.2475
 1354DOPE   D2A15880  11.103  10.463  12.264  0.2520 -0.1092  0.3035
 1354DOPE   C3A15881  10.756  10.144  12.216 -0.1101 -0.0638  0.1173
 1354DOPE   C4A15882  10.356   9.963  12.398  0.2945 -0.1472 -0.1941
 1354DOPE   C1B15883  11.085  10.857  12.575 -0.1248  0.1418  0.0634
 1354DOPE   D2B15884  10.799  11.111  12.358 -0.1097  0.2161  0.1267
 1354DOPE   C3B15885  10.916  11.429  12.012  0.1973 -0.2200 -0.1278
 1354DOPE   C4B15886  11.022  11.475  11.547  0.0324  0.3921 -0.4068
 1355DOPC   NC315887  18.463  11.774  12.548  0.1432  0.2609  0.1380
 1355DOPC   PO415888  18.559  11.637  12.213 -0.0755  0.0471  0.1477
 1355DOPC   GL115889  18.579  11.720  11.845 -0.3721  0.0630  0.2981
 1355DOPC   GL215890  18.517  11.482  11.691  0.1677 -0.3025 -0.1988
 1355DOPC   C1A15891  18.826  11.784  11.456 -0.1067 -0.0243 -0.1100
 1355DOPC   D2A15892  18.850  11.564  11.082  0.5039 -0.2430 -0.4483
 1355DOPC   C3A15893  19.222  11.362  10.937  0.0539  0.0692  0.1739
 1355DOPC   C4A15894  19.331  10.912  10.937  0.2259 -0.3399  0.0390
 1355DOPC   C1B15895  18.760  11.091  11.610 -0.3651 -0.0756 -0.3042
 1355DOPC   D2B15896  18.810  10.602  11.540  0.2357 -0.0009 -0.4619
 1355DOPC   C3B15897  19.221  10.373  11.263 -0.2427 -0.1632 -0.1733
 1355DOPC   C4B15898  19.305   9.980  11.086 -0.2275  0.1930  0.1950
 1356DOPE   NH315899  17.732  12.464  12.292 -0.1850 -0.1448 -0.2683
 1356DOPE   PO415900  17.979  12.500  12.113 -0.3632  0.0743 -0.1303
 1356DOPE   GL115901  17.831  12.387  11.803 -0.0936  0.1066 -0.4549
 1356DOPE   GL215902  17.982  12.557  11.541  0.0626 -0.2403  0.1391
 1356DOPE   C1A15903  17.962  12.040  11.567 -0.0724 -0.1153  0.0279
 1356DOPE   D2A15904  18.393  12.000  11.452 -0.0219  0.1876  0.0064
 1356DOPE   C3A15905  18.361  11.637  11.177  0.1426  0.3589  0.7120
 1356DOPE   C4A15906  18.413  11.180  11.069  0.0429 -0.1372 -0.0622
 1356DOPE   C1B15907  17.737  12.904  11.351 -0.2660 -0.0324 -0.3180
 1356DOPE   D2B15908  17.551  13.116  10.997  0.1876 -0.0168 -0.0005
 1356DOPE   C3B15909  17.182  12.822  10.945 -0.1928 -0.0409  0.1067
 1356DOPE   C4B15910  16.730  12.655  10.918 -0.0196  0.5092  0.0479
 1357DOPC   NC315911  11.528   5.200  14.084  0.0029 -0.4247 -0.2941
 1357DOPC   PO415912  11.367   5.556  14.190 -0.0058 -0.1664 -0.2355
 1357DOPC   GL115913  11.193   5.465  13.757 -0.0344  0.2613 -0.2873
 1357DOPC   GL215914  11.385   5.513  13.637  0.0607  0.0646  0.2232
 1357DOPC   C1A15915  10.744   5.547  13.569  0.2292  0.2356 -0.4568
 1357DOPC   D2A15916  10.388   5.753  13.411 -0.1075  0.1624 -0.1184
 1357DOPC   C3A15917  10.269   6.085  13.099  0.2839 -0.0111 -0.0586
 1357DOPC   C4A15918  10.264   6.040  12.684  0.1936  0.0452  0.1327
 1357DOPC   C1B15919  11.662   5.543  13.298 -0.0386 -0.1447  0.3632
 1357DOPC   D2B15920  11.640   5.493  12.814  0.2073 -0.0093 -0.1750
 1357DOPC   C3B15921  11.678   5.321  12.396 -0.1744 -0.2427 -0.3768
 1357DOPC   C4B15922  12.110   5.244  12.194  0.1670 -0.0203  0.0314
 1358DOPE   NH315923  21.837   5.383  14.097  0.1297  0.0190  0.0105
 1358DOPE   PO415924  22.090   5.474  13.970 -0.1703 -0.2252 -0.1044
 1358DOPE   GL115925  22.253   5.345  13.812 -0.0161 -0.1286  0.0406
 1358DOPE   GL215926  22.484   5.407  13.619 -0.0492  0.0970  0.0410
 1358DOPE   C1A15927  22.116   5.117  13.379 -0.0327 -0.0754  0.0540
 1358DOPE   D2A15928  22.151   4.743  13.112 -0.1063  0.1672  0.2751
 1358DOPE   C3A15929  22.153   4.811  12.624  0.1453 -0.3967  0.1113
 1358DOPE   C4A15930  22.426   5.128  12.496 -0.2943 -0.2083  0.0851
 1358DOPE   C1B15931  22.563   5.066  13.238 -0.0944  0.1253 -0.1444
 1358DOPE   D2B15932  22.609   4.824  12.903 -0.1989  0.1098  0.2708
 1358DOPE   C3B15933  22.981   4.563  12.910  0.0097  0.0429  0.1481
 1358DOPE   C4B15934  23.427   4.439  12.904 -0.0484  0.0486 -0.0495
 1359DOPE   NH315935  21.606   8.096  14.099  0.0205 -0.0015  0.0461
 1359DOPE   PO415936  21.510   8.328  13.897 -0.0372  0.0954  0.0538
 1359DOPE   GL115937  21.673   8.145  13.472 -0.2526  0.3659  0.0642
 1359DOPE   GL215938  21.431   8.055  13.439 -0.0926 -0.0963 -0.0312
 1359DOPE   C1A15939  21.640   8.265  13.023  0.0129 -0.2523  0.4321
 1359DOPE   D2A15940  21.898   8.158  12.659  0.3027 -0.1444 -0.3348
 1359DOPE   C3A15941  22.108   8.453  12.395  0.0631  0.0026 -0.3582
 1359DOPE   C4A15942  22.348   8.492  12.031 -0.2391 -0.3493  0.3870
 1359DOPE   C1B15943  21.397   7.844  13.111 -0.1762  0.0210 -0.0084
 1359DOPE   D2B15944  21.459   7.433  12.884 -0.5559  0.0045  0.0247
 1359DOPE   C3B15945  21.377   7.350  12.442 -0.0678 -0.3783  0.2001
 1359DOPE   C4B15946  21.587   7.099  12.120  0.1083  0.3244  0.1986
 1360DOPC   NC315947  14.483  34.351  14.049  0.0621  0.1606 -0.1854
 1360DOPC   PO415948  14.820  34.245  14.118 -0.0038  0.1818  0.0159
 1360DOPC   GL115949  14.969  34.359  13.811  0.0142 -0.1965 -0.2604
 1360DOPC   GL215950  15.101  34.610  13.774  0.1169  0.0458 -0.0481
 1360DOPC   C1A15951  14.705  34.560  13.511 -0.3602 -0.0894  0.0502
 1360DOPC   D2A15952  14.472  34.312  13.192  0.1059 -0.2273 -0.2889
 1360DOPC   C3A15953  14.300  34.505  12.886 -0.0503  0.1746  0.1112
 1360DOPC   C4A15954  14.052  34.585  12.493  0.1309 -0.3846 -0.2004
 1360DOPC   C1B15955  15.179  34.423  13.356  0.1066  0.0419 -0.2375
 1360DOPC   D2B15956  14.910  34.341  12.982  0.1127  0.1100 -0.0303
 1360DOPC   C3B15957  14.896  34.478  12.523 -0.1833  0.0318  0.0493
 1360DOPC   C4B15958  14.905  34.814  12.204  0.0112 -0.1652  0.0911
 1361DOPC   NC315959  23.716   6.914  14.478 -0.1766  0.2133 -0.2088
 1361DOPC   PO415960  23.838   7.118  14.164  0.0664  0.0147  0.1692
 1361DOPC   GL115961  23.844   6.914  13.877  0.3913 -0.0298  0.5464
 1361DOPC   GL215962  23.682   7.064  13.679  0.0013 -0.0987 -0.1164
 1361DOPC   C1A15963  23.818   6.596  13.574 -0.1974  0.0406  0.1536
 1361DOPC   D2A15964  24.115   6.329  13.248  0.0213  0.0511  0.2026
 1361DOPC   C3A15965  24.108   6.644  12.876  0.0255 -0.1592 -0.1618
 1361DOPC   C4A15966  24.451   6.856  12.577  0.1760  0.1434  0.0760
 1361DOPC   C1B15967  23.643   6.931  13.206  0.4581  0.1347  0.0285
 1361DOPC   D2B15968  23.320   7.185  12.950 -0.1319  0.1096 -0.1208
 1361DOPC   C3B15969  23.557   7.376  12.632 -0.0107 -0.0399 -0.2055
 1361DOPC   C4B15970  23.903   7.629  12.489  0.4849  0.1209  0.0776
 1362DOPE   NH315971  20.441   2.752  14.373 -0.1579 -0.2734  0.1064
 1362DOPE   PO415972  20.248   2.625  14.148 -0.3883 -0.3019 -0.0265
 1362DOPE   GL115973  20.237   2.532  13.709  0.2174 -0.2985 -0.1327
 1362DOPE   GL215974  20.413   2.724  13.678 -0.0721 -0.0829 -0.1993
 1362DOPE   C1A15975  20.431   2.147  13.508  0.1483 -0.0796  0.0502
 1362DOPE   D2A15976  20.454   1.737  13.296 -0.0190  0.2333 -0.0198
 1362DOPE   C3A15977  20.264   1.772  12.826  0.1248 -0.2786  0.3328
 1362DOPE   C4A15978  20.274   1.736  12.377 -0.2088 -0.0816 -0.3654
 1362DOPE   C1B15979  20.405   2.735  13.261  0.1097 -0.1102  0.0301
 1362DOPE   D2B15980  20.515   2.880  12.822  0.1298  0.0231 -0.1794
 1362DOPE   C3B15981  20.088   2.895  12.753 -0.0966  0.0576 -0.0549
 1362DOPE   C4B15982  19.692   2.596  12.762 -0.0187 -0.0405 -0.0791
 1363DOPE   NH315983  23.474   8.464  13.954 -0.0512 -0.1181  0.2196
 1363DOPE   PO415984  23.441   8.766  14.079  0.1462 -0.1391 -0.0196
 1363DOPE   GL115985  23.542   8.719  13.582 -0.1340  0.2878  0.0689
 1363DOPE   GL215986  23.422   8.917  13.433 -0.0121 -0.1889 -0.0887
 1363DOPE   C1A15987  23.878   8.993  13.408 -0.0513  0.1164 -0.1430
 1363DOPE   D2A15988  24.095   9.060  13.045 -0.4586 -0.0100 -0.0334
 1363DOPE   C3A15989  23.932   8.893  12.633  0.1216 -0.1489  0.0853
 1363DOPE   C4A15990  23.859   9.068  12.223 -0.4010 -0.1884 -0.0912
 1363DOPE   C1B15991  23.636   8.806  13.019 -0.2101 -0.2797  0.1453
 1363DOPE   D2B15992  23.746   8.437  12.766  0.2158 -0.0444 -0.4472
 1363DOPE   C3B15993  24.217   8.407  12.591  0.1633  0.0689 -0.1126
 1363DOPE   C4B15994  24.555   8.093  12.646  0.1214 -0.1764  0.2080
 1364DOPS   CNO15995  14.211   3.640  13.932  0.0337  0.0775  0.1399
 1364DOPS   PO415996  14.566   3.582  13.795 -0.2222  0.0034 -0.1177
 1364DOPS   GL115997  14.448   3.675  13.447 -0.6641 -0.3889  0.0976
 1364DOPS   GL215998  14.240   3.644  13.357 -0.1114  0.0310 -0.3167
 1364DOPS   C1A15999  14.600   3.514  13.004 -0.2649  0.1803 -0.1397
 1364DOPS   D2A16000  14.962   3.353  12.859 -0.1883 -0.0905 -0.0572
 1364DOPS   C3A16001  14.841   3.045  12.580  0.2955 -0.0879 -0.0621
 1364DOPS   C4A16002  14.759   2.671  12.307  0.1380 -0.2422 -0.2071
 1364DOPS   C1B16003  14.056   3.501  12.984  0.2138  0.2385 -0.3151
 1364DOPS   D2B16004  13.971   3.611  12.583  0.4112 -0.4184  0.1148
 1364DOPS   C3B16005  14.009   3.897  12.226  0.1156 -0.1680  0.1088
 1364DOPS   C4B16006  14.082   4.364  12.124  0.4163 -0.2911 -0.0821
 1365POSM   NC316007  19.078  13.187  11.905  0.4722 -0.1966 -0.1329
 1365POSM   PO416008  19.426  13.319  12.015  0.1049 -0.1984 -0.1890
 1365POSM   AM116009  19.479  13.240  11.680  0.0870 -0.2444  0.2189
 1365POSM   AM216010  19.512  13.389  11.437  0.0195 -0.1781 -0.1470
 1365POSM   T1A16011  19.458  12.875  11.321  0.0509  0.1682  0.1963
 1365POSM   C2A16012  19.506  12.755  10.872  0.1859 -0.1067  0.0916
 1365POSM   C3A16013  19.410  12.641  10.432 -0.0540 -0.0078 -0.0278
 1365POSM   C1B16014  19.789  13.511  11.244  0.4264 -0.1165  0.0912
 1365POSM   D2B16015  19.899  13.716  10.871  0.2577 -0.0786  0.0093
 1365POSM   C3B16016  20.069  13.398  10.648 -0.0502  0.0730  0.0804
 1365POSM   C4B16017  20.116  13.120  10.261  0.2082 -0.1075 -0.0095
 1366DOPC   NC316018  12.089   6.677  13.445 -0.0426 -0.0348  0.3192
 1366DOPC   PO416019  12.488   6.570  13.469 -0.1207 -0.0610 -0.3578
 1366DOPC   GL116020  12.461   6.515  13.022 -0.2166 -0.1888 -0.3278
 1366DOPC   GL216021  12.635   6.709  12.902 -0.2382  0.2186 -0.0958
 1366DOPC   C1A16022  12.041   6.392  12.883  0.1682  0.2026 -0.0768
 1366DOPC   D2A16023  11.766   6.045  12.763 -0.1391 -0.3825  0.0743
 1366DOPC   C3A16024  11.603   5.859  12.291 -0.1088 -0.3254 -0.0407
 1366DOPC   C4A16025  11.465   6.154  11.951 -0.1013  0.0371 -0.1548
 1366DOPC   C1B16026  12.833   6.399  12.648 -0.0786  0.0288 -0.1185
 1366DOPC   D2B16027  12.912   6.012  12.564  0.2800 -0.2926 -0.2754
 1366DOPC   C3B16028  13.137   5.905  12.193 -0.1036 -0.0350 -0.0970
 1366DOPC   C4B16029  13.550   5.985  11.961  0.0562  0.1031  0.0744
 1367DOPC   NC316030  14.696   4.113  13.672  0.0139 -0.0397  0.3588
 1367DOPC   PO416031  14.886   4.355  13.432 -0.1455  0.0101 -0.2055
 1367DOPC   GL116032  14.671   4.108  13.193  0.2942 -0.1813  0.0674
 1367DOPC   GL216033  14.341   4.213  13.268 -0.0120  0.3669  0.0384
 1367DOPC   C1A16034  14.842   3.882  12.824 -0.0003  0.1343  0.1293
 1367DOPC   D2A16035  15.021   4.033  12.456  0.0794  0.0790 -0.0548
 1367DOPC   C3A16036  15.162   4.298  12.223 -0.0150 -0.0633 -0.0037
 1367DOPC   C4A16037  15.310   4.506  11.847  0.3969 -0.1091 -0.0184
 1367DOPC   C1B16038  14.312   3.924  12.926  0.0403 -0.3339 -0.0570
 1367DOPC   D2B16039  14.440   3.619  12.599 -0.1108 -0.3762  0.0522
 1367DOPC   C3B16040  14.880   3.539  12.393 -0.3352  0.0943 -0.2429
 1367DOPC   C4B16041  14.985   3.660  11.925 -0.1329 -0.1105 -0.1413
 1368DOPS   CNO16042  13.462   1.393  14.352 -0.4908  0.0030  0.0136
 1368DOPS   PO416043  13.470   1.551  13.989 -0.0118  0.1746 -0.1003
 1368DOPS   GL116044  13.555   1.661  13.694  0.1616 -0.1515  0.0472
 1368DOPS   GL216045  13.610   1.412  13.524  0.2688  0.0959 -0.2488
 1368DOPS   C1A16046  13.680   1.923  13.286  0.0853  0.1997 -0.0758
 1368DOPS   D2A16047  14.057   2.193  13.292 -0.0596 -0.0742  0.1098
 1368DOPS   C3A16048  14.255   2.009  12.869 -0.0641  0.2814 -0.0539
 1368DOPS   C4A16049  14.207   1.727  12.504 -0.0804 -0.1400 -0.1075
 1368DOPS   C1B16050  13.796   1.255  13.129 -0.0201  0.2232 -0.0051
 1368DOPS   D2B16051  13.619   1.151  12.738  0.1971  0.0494  0.1386
 1368DOPS   C3B16052  13.770   0.839  12.405 -0.0825 -0.2357  0.1489
 1368DOPS   C4B16053  13.966   0.631  12.054  0.0327  0.2283 -0.0982
 1369DOPC   NC316054  26.763  13.081  14.408 -0.1631 -0.0584 -0.1134
 1369DOPC   PO416055  26.850  13.289  14.083  0.2128  0.0180 -0.1217
 1369DOPC   GL116056  26.815  12.948  13.763 -0.2271  0.1321 -0.0065
 1369DOPC   GL216057  27.125  13.030  13.627  0.2682  0.0450 -0.0202
 1369DOPC   C1A16058  26.440  12.846  13.511  0.2881 -0.2295 -0.0043
 1369DOPC   D2A16059  26.025  12.869  13.267 -0.1800  0.0912 -0.3345
 1369DOPC   C3A16060  26.056  12.940  12.831  0.1993  0.0967 -0.1825
 1369DOPC   C4A16061  25.926  13.122  12.420 -0.2787  0.0799 -0.1917
 1369DOPC   C1B16062  27.201  12.989  13.149 -0.1545  0.0902 -0.1775
 1369DOPC   D2B16063  27.330  13.093  12.748  0.0414  0.0929  0.1681
 1369DOPC   C3B16064  27.181  13.055  12.325 -0.3003 -0.1117 -0.1507
 1369DOPC   C4B16065  26.874  13.155  11.993 -0.1479 -0.1958  0.0360
 1370POSM   NC316066  21.152   4.271  14.150 -0.0536  0.2531 -0.1452
 1370POSM   PO416067  21.231   4.621  14.233 -0.0847 -0.0411 -0.4006
 1370POSM   AM116068  21.251   4.693  13.906  0.2440 -0.1494  0.4122
 1370POSM   AM216069  21.111   4.829  13.703  0.0194 -0.1184  0.2102
 1370POSM   T1A16070  21.368   4.474  13.493 -0.1634 -0.0213  0.1295
 1370POSM   C2A16071  21.434   4.490  13.016  0.1982  0.0098  0.1950
 1370POSM   C3A16072  21.108   4.382  12.745 -0.0166  0.0508  0.2605
 1370POSM   C1B16073  21.169   4.929  13.362  0.0863  0.0213  0.0276
 1370POSM   D2B16074  20.981   4.935  12.931  0.0817  0.4510  0.1879
 1370POSM   C3B16075  20.931   5.209  12.505  0.1507  0.4397  0.2457
 1370POSM   C4B16076  20.673   5.554  12.380  0.0290 -0.1041 -0.1328
 1371DOPC   NC316077  18.199   2.238  14.404 -0.1408 -0.2149  0.0533
 1371DOPC   PO416078  17.957   2.230  14.091  0.3031  0.0288  0.0627
 1371DOPC   GL116079  17.869   2.252  13.692 -0.0462  0.0407 -0.0788
 1371DOPC   GL216080  18.087   2.181  13.575 -0.1068 -0.0985  0.1606
 1371DOPC   C1A16081  17.762   2.360  13.257 -0.0861 -0.1902 -0.0929
 1371DOPC   D2A16082  17.521   2.180  12.871 -0.4289  0.0112 -0.0378
 1371DOPC   C3A16083  17.826   2.265  12.494 -0.2129 -0.3499 -0.1185
 1371DOPC   C4A16084  18.010   2.458  12.145 -0.2472 -0.1713 -0.2185
 1371DOPC   C1B16085  17.879   1.911  13.277  0.3140  0.2156  0.3079
 1371DOPC   D2B16086  17.837   1.694  12.827  0.1731 -0.1861 -0.1609
 1371DOPC   C3B16087  18.250   1.472  12.884 -0.0549  0.2087 -0.1722
 1371DOPC   C4B16088  18.607   1.156  13.120  0.1540  0.4765 -0.0602
 1372DOPC   NC316089  20.537   0.961  14.682  0.2795  0.2519 -0.4612
 1372DOPC   PO416090  20.334   1.178  14.436  0.1571  0.0920  0.1748
 1372DOPC   GL116091  20.630   1.171  14.133 -0.1124 -0.3030  0.1562
 1372DOPC   GL216092  20.461   1.159  13.899 -0.0410  0.1767  0.0639
 1372DOPC   C1A16093  20.980   1.391  14.016 -0.3340 -0.1632 -0.0662
 1372DOPC   D2A16094  21.127   1.678  13.589 -0.2263 -0.1500  0.0543
 1372DOPC   C3A16095  20.969   1.595  13.181 -0.6529  0.2143 -0.0081
 1372DOPC   C4A16096  20.647   1.441  12.873 -0.0686  0.1616  0.0212
 1372DOPC   C1B16097  20.267   1.271  13.488 -0.0066  0.1068  0.0347
 1372DOPC   D2B16098  20.144   1.163  13.044  0.1230  0.1589  0.1648
 1372DOPC   C3B16099  20.477   0.956  12.788  0.3952 -0.2410 -0.1122
 1372DOPC   C4B16100  20.781   0.615  12.869  0.0335 -0.0080 -0.0271
 1373DOPE   NH316101  16.818   0.944  14.288  0.0419  0.1626 -0.0979
 1373DOPE   PO416102  16.630   1.112  14.120  0.1470 -0.3459  0.1908
 1373DOPE   GL116103  16.514   0.956  13.757  0.1433  0.3840 -0.1390
 1373DOPE   GL216104  16.239   0.789  13.645  0.0259 -0.5080 -0.2682
 1373DOPE   C1A16105  16.813   0.772  13.401  0.0442  0.2248  0.1274
 1373DOPE   D2A16106  17.225   0.554  13.310 -0.0055  0.0356 -0.3683
 1373DOPE   C3A16107  17.497   0.269  13.074 -0.0641  0.1300  0.1579
 1373DOPE   C4A16108  17.818  -0.059  12.931  0.1537 -0.2908 -0.1336
 1373DOPE   C1B16109  16.384   0.660  13.193 -0.0294 -0.0124 -0.1306
 1373DOPE   D2B16110  16.419   0.785  12.758  0.0287  0.1149  0.0975
 1373DOPE   C3B16111  16.006   0.866  12.576  0.0541 -0.0124  0.1204
 1373DOPE   C4B16112  15.643   0.996  12.290 -0.1320 -0.1089  0.0024
 1374POSM   NC316113  20.593  34.394  15.233  0.2453  0.4426  0.0648
 1374POSM   PO416114  20.755  34.132  15.003  0.1778  0.0485 -0.1956
 1374POSM   AM116115  20.970  34.048  14.766  0.2171  0.1017 -0.0985
 1374POSM   AM216116  21.185  33.904  14.664 -0.1932  0.2185  0.0940
 1374POSM   T1A16117  20.964  34.054  14.242  0.0347  0.1647 -0.0342
 1374POSM   C2A16118  21.166  33.902  13.827 -0.0600 -0.2254 -0.0862
 1374POSM   C3A16119  21.414  33.810  13.431 -0.0634  0.0734 -0.2530
 1374POSM   C1B16120  21.325  33.708  14.455 -0.0229 -0.0038  0.1468
 1374POSM   D2B16121  21.415  33.482  14.029  0.0830 -0.3168 -0.0520
 1374POSM   C3B16122  21.203  33.415  13.601  0.1885 -0.3431  0.0764
 1374POSM   C4B16123  21.097  33.564  13.176 -0.4571  0.0235  0.1047
 1375POSM   NC316124  14.773   8.251  13.466  0.0929  0.2960 -0.2096
 1375POSM   PO416125  14.786   7.983  13.159 -0.4164  0.1525  0.0960
 1375POSM   AM116126  14.749   8.152  12.830  0.0569  0.0708 -0.0016
 1375POSM   AM216127  14.925   8.225  12.638  0.0878  0.3896  0.0346
 1375POSM   T1A16128  14.394   8.346  12.562 -0.1775  0.0971 -0.2726
 1375POSM   C2A16129  14.142   8.431  12.180 -0.0920 -0.3382 -0.2218
 1375POSM   C3A16130  13.850   8.541  11.853  0.1539  0.1294  0.1844
 1375POSM   C1B16131  15.308   8.271  12.535  0.1317  0.1202  0.2054
 1375POSM   D2B16132  15.653   8.107  12.252 -0.2078 -0.1589  0.1407
 1375POSM   C3B16133  15.833   8.542  12.374  0.0527 -0.1452 -0.2017
 1375POSM   C4B16134  16.198   8.822  12.433  0.0117  0.0009  0.1192
 1376DOPE   NH316135  13.139   1.839  13.796  0.3807 -0.3029  0.0436
 1376DOPE   PO416136  12.854   1.744  13.742 -0.2061  0.5300 -0.1609
 1376DOPE   GL116137  12.732   2.013  13.508  0.0038  0.0570 -0.4572
 1376DOPE   GL216138  12.879   2.256  13.568  0.0474  0.0338 -0.2368
 1376DOPE   C1A16139  12.796   1.954  13.018  0.1677 -0.0446 -0.1662
 1376DOPE   D2A16140  12.998   1.938  12.537  0.1263 -0.1873 -0.3617
 1376DOPE   C3A16141  13.344   2.291  12.479  0.4884 -0.0917  0.0071
 1376DOPE   C4A16142  13.578   2.685  12.613 -0.0112  0.1246  0.3746
 1376DOPE   C1B16143  13.166   2.097  13.283 -0.0428 -0.1000 -0.3753
 1376DOPE   D2B16144  13.415   1.982  12.904 -0.1568 -0.1650 -0.0066
 1376DOPE   C3B16145  13.809   1.728  12.871  0.0868 -0.0028  0.0746
 1376DOPE   C4B16146  14.197   1.568  13.127 -0.3508 -0.0154 -0.0717
 1377POSM   NC316147  14.667   0.534  14.746 -0.5470 -0.2665 -0.0702
 1377POSM   PO416148  14.628   0.142  14.719 -0.0113  0.1979 -0.2793
 1377POSM   AM116149  14.703   0.199  14.397 -0.1564 -0.3212  0.1078
 1377POSM   AM216150  14.739   0.028  14.128 -0.3713 -0.0651 -0.4302
 1377POSM   T1A16151  14.846   0.507  14.051  0.2325 -0.1861  0.2870
 1377POSM   C2A16152  14.676   0.732  13.668 -0.2383 -0.0447  0.1247
 1377POSM   C3A16153  14.543   0.987  13.289  0.0475 -0.0957  0.2659
 1377POSM   C1B16154  14.667   0.148  13.843  0.1331  0.2481 -0.0397
 1377POSM   D2B16155  14.587   0.367  13.385  0.0740 -0.1444  0.0839
 1377POSM   C3B16156  14.568   0.105  13.019  0.0509  0.4652 -0.0041
 1377POSM   C4B16157  14.465   0.074  12.601  0.0549 -0.0494 -0.0478
 1378DOPE   NH316158  16.013  10.115  12.788 -0.0355 -0.0633  0.0313
 1378DOPE   PO416159  16.296  10.206  12.873  0.0380  0.1420 -0.1905
 1378DOPE   GL116160  16.446  10.098  12.461  0.2132 -0.0361 -0.4692
 1378DOPE   GL216161  16.554  10.423  12.437 -0.2941 -0.0236  0.2387
 1378DOPE   C1A16162  16.748  10.050  12.121  0.0344  0.1547  0.2396
 1378DOPE   D2A16163  16.915  10.156  11.720  0.2289  0.1524  0.0475
 1378DOPE   C3A16164  17.175   9.800  11.502 -0.2100 -0.3850 -0.0885
 1378DOPE   C4A16165  17.215   9.630  11.083 -0.3168  0.1430 -0.0822
 1378DOPE   C1B16166  16.207  10.422  12.125  0.1273  0.0418  0.0188
 1378DOPE   D2B16167  15.944  10.476  11.754 -0.0538  0.1775  0.0843
 1378DOPE   C3B16168  15.723  10.831  11.581 -0.1373  0.0941  0.0167
 1378DOPE   C4B16169  15.685  11.139  11.213 -0.0781 -0.0203  0.3655
 1379POSM   NC316170  12.643   3.163  14.191 -0.0556  0.1128  0.1840
 1379POSM   PO416171  12.882   3.389  14.333  0.0520 -0.2672  0.1576
 1379POSM   AM116172  13.015   3.416  13.977  0.0341  0.0140 -0.1088
 1379POSM   AM216173  13.220   3.336  13.825  0.0527  0.1439  0.0166
 1379POSM   T1A16174  13.067   3.715  13.583  0.1310 -0.0249  0.1835
 1379POSM   C2A16175  13.368   3.993  13.317  0.0186  0.0800 -0.0253
 1379POSM   C3A16176  13.411   4.289  12.892  0.1181  0.1848 -0.0654
 1379POSM   C1B16177  13.369   3.312  13.541 -0.0171 -0.0623 -0.0680
 1379POSM   D2B16178  13.505   3.385  13.068 -0.1662  0.1094 -0.1617
 1379POSM   C3B16179  13.259   3.729  12.921  0.2851  0.2065  0.1056
 1379POSM   C4B16180  12.984   3.974  12.544  0.2619 -0.0481 -0.0193
 1380DOPS   CNO16181  21.998   1.543  15.396  0.2173 -0.1967  0.0655
 1380DOPS   PO416182  22.103   1.655  15.042 -0.0824 -0.1056 -0.0169
 1380DOPS   GL116183  22.372   1.666  14.746 -0.0903  0.1450 -0.1218
 1380DOPS   GL216184  22.635   1.698  14.774 -0.1531  0.0004 -0.0003
 1380DOPS   C1A16185  22.479   1.553  14.346  0.3066  0.2528 -0.1876
 1380DOPS   D2A16186  22.423   1.320  14.003  0.0716 -0.0637 -0.0662
 1380DOPS   C3A16187  22.420   0.894  13.869  0.0542 -0.1882 -0.2543
 1380DOPS   C4A16188  22.061   0.554  13.914 -0.1095 -0.0679  0.0251
 1380DOPS   C1B16189  22.547   2.122  14.646 -0.0798 -0.1162  0.2796
 1380DOPS   D2B16190  22.624   2.494  14.382  0.1831 -0.2172  0.0474
 1380DOPS   C3B16191  22.771   2.488  13.925 -0.3147  0.0293  0.1819
 1380DOPS   C4B16192  22.783   2.143  13.605  0.2971  0.0938 -0.2521
 1381DOPC   NC316193  16.726   9.984  12.765  0.0600  0.0963  0.3461
 1381DOPC   PO416194  16.990  10.044  13.012 -0.0302  0.0566 -0.0510
 1381DOPC   GL116195  17.129   9.732  12.646 -0.2493  0.0277  0.1123
 1381DOPC   GL216196  17.313   9.487  12.678  0.1639  0.1197 -0.1327
 1381DOPC   C1A16197  17.185   9.730  12.185 -0.1097  0.0892  0.0069
 1381DOPC   D2A16198  16.987   9.461  11.840 -0.0485  0.1547 -0.0275
 1381DOPC   C3A16199  17.216   9.324  11.463 -0.1512  0.0284  0.1732
 1381DOPC   C4A16200  17.616   9.304  11.147 -0.0194 -0.0427  0.3791
 1381DOPC   C1B16201  17.566   9.342  12.365  0.2424  0.0709 -0.0063
 1381DOPC   D2B16202  17.867   9.019  12.222  0.3303 -0.1933 -0.0439
 1381DOPC   C3B16203  17.919   8.600  12.321 -0.3448 -0.0147 -0.2063
 1381DOPC   C4B16204  17.613   8.270  12.402 -0.1748 -0.3815  0.2430
 1382DOPS   CNO16205  14.504  10.339  12.559  0.1124 -0.1189  0.1945
 1382DOPS   PO416206  14.152  10.270  12.544  0.1889  0.1141  0.0829
 1382DOPS   GL116207  14.297  10.210  12.177 -0.1878  0.0176  0.3309
 1382DOPS   GL216208  14.103  10.207  11.955 -0.0539  0.0792  0.3154
 1382DOPS   C1A16209  14.547  10.043  11.784  0.0005  0.0103  0.0493
 1382DOPS   D2A16210  14.653  10.094  11.345 -0.0764  0.1369  0.0289
 1382DOPS   C3A16211  15.068  10.377  11.382  0.1550 -0.2624 -0.1626
 1382DOPS   C4A16212  15.295  10.761  11.320 -0.0988 -0.1201  0.0035
 1382DOPS   C1B16213  14.219  10.325  11.551  0.0322 -0.0817 -0.2034
 1382DOPS   D2B16214  14.147  10.138  11.164  0.1707 -0.0694  0.2207
 1382DOPS   C3B16215  13.912  10.464  10.852 -0.0289 -0.2001 -0.4683
 1382DOPS   C4B16216  13.823  10.484  10.406  0.1007  0.0869 -0.3435
 1383DOPE   NH316217  23.086   8.791  13.737 -0.1498 -0.0909 -0.1009
 1383DOPE   PO416218  23.015   8.524  13.837  0.1399 -0.3327  0.0423
 1383DOPE   GL116219  22.792   8.378  13.538 -0.0667  0.0809  0.5157
 1383DOPE   GL216220  22.750   8.097  13.502  0.0557 -0.1500  0.1171
 1383DOPE   C1A16221  22.782   8.268  13.074 -0.0925  0.1554 -0.3491
 1383DOPE   D2A16222  23.061   8.154  12.745 -0.1173 -0.1878 -0.0534
 1383DOPE   C3A16223  23.345   8.400  12.473  0.0196 -0.1258  0.0359
 1383DOPE   C4A16224  23.600   8.676  12.342 -0.1200  0.0596  0.0949
 1383DOPE   C1B16225  22.555   7.840  13.175  0.2448  0.1858 -0.0141
 1383DOPE   D2B16226  22.440   7.922  12.758 -0.1679 -0.1478 -0.1536
 1383DOPE   C3B16227  22.101   7.770  12.421  0.0593 -0.2096  0.2493
 1383DOPE   C4B16228  21.797   7.688  12.030  0.2132 -0.2250  0.0435
 1384DOPC   NC316229  13.044   8.180  13.312 -0.0241 -0.3335 -0.2855
 1384DOPC   PO416230  12.803   8.527  13.307 -0.2270  0.0629  0.1027
 1384DOPC   GL116231  12.569   8.776  12.915 -0.0648  0.0618 -0.0712
 1384DOPC   GL216232  12.423   8.546  12.877 -0.1161 -0.0151 -0.3679
 1384DOPC   C1A16233  12.671   8.744  12.455 -0.1307 -0.0984  0.0285
 1384DOPC   D2A16234  12.815   8.713  12.044 -0.3973 -0.0410 -0.0890
 1384DOPC   C3A16235  12.912   9.086  11.726  0.3031 -0.3186 -0.0814
 1384DOPC   C4A16236  12.947   9.455  11.380  0.1194  0.0742 -0.2325
 1384DOPC   C1B16237  12.517   8.136  12.703  0.1069  0.0942 -0.3043
 1384DOPC   D2B16238  12.623   7.706  12.749  0.0898  0.4693 -0.1289
 1384DOPC   C3B16239  12.193   7.503  12.658 -0.3047 -0.4434  0.0155
 1384DOPC   C4B16240  12.117   7.228  12.334 -0.1993 -0.1512  0.2512
 1385DOPS   CNO16241  12.556   4.812  13.961 -0.2300  0.0218  0.0058
 1385DOPS   PO416242  12.833   4.588  14.106  0.0110  0.0751  0.4372
 1385DOPS   GL116243  12.749   4.391  13.798 -0.0281  0.4320  0.0154
 1385DOPS   GL216244  13.000   4.269  13.706 -0.4414 -0.2193  0.0793
 1385DOPS   C1A16245  12.638   4.069  13.437  0.1944 -0.1638 -0.0479
 1385DOPS   D2A16246  12.775   3.962  13.007  0.2178  0.0239 -0.2203
 1385DOPS   C3A16247  12.461   4.032  12.700 -0.0706 -0.1985 -0.0053
 1385DOPS   C4A16248  11.985   4.059  12.775  0.1884  0.0060 -0.0278
 1385DOPS   C1B16249  12.982   4.434  13.260  0.1903 -0.2674  0.0210
 1385DOPS   D2B16250  12.908   4.468  12.781  0.3451  0.1873 -0.0229
 1385DOPS   C3B16251  12.861   4.371  12.298  0.0421 -0.2024  0.3890
 1385DOPS   C4B16252  12.892   4.312  11.815 -0.0069 -0.0575  0.2674
 1386DOPC   NC316253  15.129   2.071  14.218  0.1961  0.0545 -0.3447
 1386DOPC   PO416254  15.029   2.340  13.959  0.2547  0.0435 -0.0948
 1386DOPC   GL116255  15.109   2.195  13.576 -0.2481  0.2028  0.0479
 1386DOPC   GL216256  14.956   1.996  13.480 -0.0722  0.1058  0.2382
 1386DOPC   C1A16257  14.986   2.471  13.219 -0.0149 -0.1615  0.1650
 1386DOPC   D2A16258  14.993   2.577  12.781 -0.3139  0.1520  0.0336
 1386DOPC   C3A16259  15.204   2.464  12.384  0.1797 -0.1606  0.1988
 1386DOPC   C4A16260  15.353   2.132  12.076 -0.2211  0.1437  0.1271
 1386DOPC   C1B16261  14.753   2.060  13.040  0.1979  0.3446 -0.1778
 1386DOPC   D2B16262  14.905   2.113  12.585  0.0397 -0.0228 -0.1259
 1386DOPC   C3B16263  14.466   2.182  12.389 -0.0026  0.2801  0.1330
 1386DOPC   C4B16264  14.333   2.466  12.090 -0.3925  0.0996 -0.5358
 1387DOPE   NH316265  22.916  11.870  13.826 -0.1691 -0.0478  0.2321
 1387DOPE   PO416266  22.983  12.193  13.810 -0.0402  0.1204  0.1570
 1387DOPE   GL116267  23.180  12.135  13.478 -0.0100  0.3877  0.0102
 1387DOPE   GL216268  23.377  11.906  13.510  0.1483  0.1148 -0.1019
 1387DOPE   C1A16269  23.147  12.328  13.053  0.2436 -0.0699  0.1204
 1387DOPE   D2A16270  23.339  12.456  12.690  0.1200  0.0256  0.2969
 1387DOPE   C3A16271  23.163  12.657  12.307 -0.1318  0.1620 -0.1895
 1387DOPE   C4A16272  22.805  12.531  12.054  0.3529 -0.0336 -0.0912
 1387DOPE   C1B16273  23.567  12.088  13.143 -0.2313  0.0906 -0.0794
 1387DOPE   D2B16274  23.822  12.289  12.809 -0.2554  0.3552 -0.2531
 1387DOPE   C3B16275  23.672  12.405  12.377 -0.2378  0.0624 -0.0259
 1387DOPE   C4B16276  23.597  12.394  11.921  0.0376  0.1848  0.2036
 1388POSM   NC316277  22.406   9.069  14.111  0.0483  0.3343  0.2332
 1388POSM   PO416278  22.055   9.215  13.965 -0.0728 -0.1142 -0.2743
 1388POSM   AM116279  21.948   9.187  13.628  0.0270  0.2875 -0.2263
 1388POSM   AM216280  22.052   8.942  13.499 -0.0649  0.2649 -0.2578
 1388POSM   T1A16281  21.639   9.085  13.210  0.5307 -0.2058 -0.0343
 1388POSM   C2A16282  21.373   8.742  12.945  0.0986  0.0069 -0.3174
 1388POSM   C3A16283  21.004   8.665  12.667  0.4017 -0.0320  0.1869
 1388POSM   C1B16284  22.023   8.748  13.221  0.1577  0.0456  0.2696
 1388POSM   D2B16285  21.843   8.668  12.786  0.1718  0.2125  0.0022
 1388POSM   C3B16286  21.813   8.856  12.374  0.5175  0.2555 -0.4026
 1388POSM   C4B16287  21.697   9.291  12.298  0.0721 -0.0143  0.3284
 1389DOPE   NH316288  18.531   9.060  12.892  0.0889 -0.0194 -0.0436
 1389DOPE   PO416289  18.671   9.353  12.828  0.1413  0.2015 -0.1084
 1389DOPE   GL116290  18.643   9.204  12.404  0.3563  0.4012  0.1825
 1389DOPE   GL216291  18.440   9.268  12.215 -0.1139  0.2316  0.0823
 1389DOPE   C1A16292  18.810   9.056  12.040 -0.1287  0.0491  0.1681
 1389DOPE   D2A16293  18.705   8.898  11.615 -0.2221  0.0305 -0.3114
 1389DOPE   C3A16294  18.568   9.242  11.320  0.1130 -0.2060 -0.1561
 1389DOPE   C4A16295  18.465   9.163  10.858 -0.3299  0.0974 -0.0187
 1389DOPE   C1B16296  18.360   9.176  11.796  0.2029 -0.1310 -0.0177
 1389DOPE   D2B16297  18.003   8.957  11.565 -0.0146  0.0073 -0.0137
 1389DOPE   C3B16298  17.697   8.657  11.818  0.2073 -0.0158 -0.3527
 1389DOPE   C4B16299  17.400   8.325  11.959 -0.4570 -0.2109 -0.0229
 1390POSM   NC316300  18.609   9.807  13.094  0.0670  0.0776 -0.0502
 1390POSM   PO416301  18.631  10.130  12.884  0.2057 -0.1763  0.1975
 1390POSM   AM116302  18.791  10.198  12.583  0.1936  0.2105  0.1933
 1390POSM   AM216303  18.759  10.254  12.297 -0.4283  0.0074  0.1718
 1390POSM   T1A16304  19.195  10.081  12.220  0.0009 -0.1700 -0.0068
 1390POSM   C2A16305  19.377   9.937  11.859  0.1289 -0.1817  0.0589
 1390POSM   C3A16306  19.658   9.585  11.766  0.1482 -0.1186  0.2546
 1390POSM   C1B16307  18.812  10.251  11.972 -0.1526  0.2833 -0.3694
 1390POSM   D2B16308  18.941  10.099  11.538  0.1958 -0.0507 -0.0029
 1390POSM   C3B16309  18.648  10.158  11.118  0.0732  0.2847  0.4226
 1390POSM   C4B16310  18.687  10.301  10.690 -0.0490 -0.1117 -0.0705
 1391DOPC   NC316311  20.674   3.871  14.515  0.1989 -0.1560 -0.3039
 1391DOPC   PO416312  20.690   4.011  14.138 -0.2610  0.1607 -0.0585
 1391DOPC   GL116313  20.892   4.003  13.843  0.0257 -0.1218 -0.0006
 1391DOPC   GL216314  20.786   4.098  13.644 -0.1162 -0.0319 -0.1037
 1391DOPC   C1A16315  21.330   4.017  13.724  0.0225  0.0630 -0.1890
 1391DOPC   D2A16316  21.630   4.099  13.302 -0.1650 -0.1913  0.0251
 1391DOPC   C3A16317  21.449   3.995  12.894  0.1799  0.1975 -0.3168
 1391DOPC   C4A16318  21.491   4.144  12.466 -0.0861  0.0217 -0.1839
 1391DOPC   C1B16319  20.613   3.881  13.307 -0.1278  0.0332 -0.1700
 1391DOPC   D2B16320  20.479   3.829  12.878  0.1537  0.0577  0.0911
 1391DOPC   C3B16321  20.032   3.811  12.704  0.0071  0.1004  0.0019
 1391DOPC   C4B16322  19.683   3.708  12.429 -0.1695  0.3297  0.4244
 1392DOPE   NH316323  21.557  12.013  13.125  0.3303 -0.2697  0.1436
 1392DOPE   PO416324  21.728  11.846  12.909 -0.1346  0.2068 -0.2390
 1392DOPE   GL116325  21.814  11.757  12.535 -0.1027  0.1172  0.0236
 1392DOPE   GL216326  21.513  11.661  12.464  0.2297  0.2942 -0.0295
 1392DOPE   C1A16327  22.025  11.368  12.376  0.3391 -0.1215  0.1811
 1392DOPE   D2A16328  22.073  11.041  12.073 -0.0617  0.1137  0.1514
 1392DOPE   C3A16329  22.469  10.953  11.764  0.2699 -0.0296 -0.0156
 1392DOPE   C4A16330  22.677  10.935  11.323 -0.0471  0.1211  0.0608
 1392DOPE   C1B16331  21.617  11.531  11.998 -0.0447  0.3551  0.1528
 1392DOPE   D2B16332  22.014  11.399  11.722  0.0968 -0.1421  0.0091
 1392DOPE   C3B16333  22.408  11.383  11.990  0.2579 -0.3740 -0.1633
 1392DOPE   C4B16334  22.709  11.673  12.227 -0.0705  0.1956 -0.2088
 1393POSM   NC316335  17.777   0.566  14.345  0.2696  0.0051  0.1017
 1393POSM   PO416336  17.612   0.203  14.189 -0.0899 -0.1831  0.1544
 1393POSM   AM116337  17.548   0.333  13.933 -0.3950  0.0833 -0.0264
 1393POSM   AM216338  17.314   0.299  13.792 -0.0539  0.3081 -0.0473
 1393POSM   T1A16339  17.731   0.428  13.443  0.0239  0.2259 -0.1133
 1393POSM   C2A16340  17.959   0.401  13.041 -0.0666 -0.4041 -0.3430
 1393POSM   C3A16341  18.190   0.499  12.666 -0.1270 -0.0527  0.0894
 1393POSM   C1B16342  17.412   0.062  13.595  0.0748 -0.0058 -0.1511
 1393POSM   D2B16343  17.432  -0.209  13.232  0.2416  0.6243  0.0736
 1393POSM   C3B16344  17.090  -0.248  12.944 -0.0080 -0.2416  0.1339
 1393POSM   C4B16345  17.067  -0.570  12.608  0.1365  0.0732 -0.0309
 1394DOPE   NH316346  21.987  11.061  14.083  0.0922  0.0519 -0.0161
 1394DOPE   PO416347  22.133  11.191  13.814  0.1674  0.0278 -0.3213
 1394DOPE   GL116348  22.330  11.078  13.565  0.0081  0.0495 -0.0188
 1394DOPE   GL216349  22.510  11.213  13.374  0.0711  0.0871  0.1174
 1394DOPE   C1A16350  22.252  10.808  13.143  0.2020  0.0191 -0.0054
 1394DOPE   D2A16351  21.848  10.846  12.867  0.1658  0.0944  0.2827
 1394DOPE   C3A16352  21.715  10.733  12.395 -0.1978  0.3262 -0.2142
 1394DOPE   C4A16353  21.514  10.563  12.047  0.1117  0.1324 -0.1954
 1394DOPE   C1B16354  22.848  11.220  13.048  0.2560  0.0786 -0.2322
 1394DOPE   D2B16355  23.174  11.305  12.734  0.0785 -0.0357  0.3431
 1394DOPE   C3B16356  23.212  11.549  12.323 -0.0529  0.0613  0.0063
 1394DOPE   C4B16357  23.228  11.488  11.860 -0.0099 -0.0365 -0.3444
 1395DOPE   NH316358  13.538   1.061  13.898 -0.0800  0.2713  0.1347
 1395DOPE   PO416359  13.813   0.945  13.763  0.1945 -0.0279 -0.1585
 1395DOPE   GL116360  13.929   0.805  13.452  0.1747  0.1107 -0.1281
 1395DOPE   GL216361  14.124   0.587  13.390 -0.1659 -0.0866 -0.1083
 1395DOPE   C1A16362  13.715   0.743  13.024 -0.0853 -0.0734 -0.0194
 1395DOPE   D2A16363  13.346   0.612  12.722 -0.1978  0.1549 -0.0771
 1395DOPE   C3A16364  13.067   0.292  12.827 -0.0337 -0.0400  0.1291
 1395DOPE   C4A16365  12.817   0.108  13.172 -0.0653  0.1181 -0.2550
 1395DOPE   C1B16366  14.148   0.919  13.069 -0.2508  0.2365  0.1495
 1395DOPE   D2B16367  14.169   1.244  12.765  0.2471  0.0879  0.4142
 1395DOPE   C3B16368  14.100   1.268  12.306 -0.2395  0.2346 -0.0780
 1395DOPE   C4B16369  13.862   1.117  11.952 -0.0250  0.1116 -0.1205
 1396DOPE   NH316370  20.496   4.442  13.916  0.0269  0.0982  0.3287
 1396DOPE   PO416371  20.815   4.498  13.877  0.2869  0.0195  0.0309
 1396DOPE   GL116372  20.855   4.527  13.418  0.1928  0.0633 -0.0836
 1396DOPE   GL216373  20.681   4.736  13.423 -0.1003  0.2545  0.4197
 1396DOPE   C1A16374  21.051   4.157  13.180 -0.2242  0.0088  0.4327
 1396DOPE   D2A16375  21.007   3.871  12.794  0.0832 -0.1365 -0.1482
 1396DOPE   C3A16376  20.796   3.719  12.378  0.2229 -0.0112 -0.0193
 1396DOPE   C4A16377  20.613   3.497  12.018  0.1709  0.3432 -0.0151
 1396DOPE   C1B16378  20.681   4.479  13.020  0.1531  0.2091  0.0312
 1396DOPE   D2B16379  20.632   4.258  12.655  0.1164 -0.0104  0.3505
 1396DOPE   C3B16380  20.913   4.286  12.336  0.1221  0.1127  0.2805
 1396DOPE   C4B16381  21.031   3.993  12.015  0.1485  0.1107 -0.3006
 1397DOPE   NH316382  13.277   0.251  14.033  0.0753  0.0326 -0.5093
 1397DOPE   PO416383  13.450   0.506  14.028  0.0779  0.0661  0.2203
 1397DOPE   GL116384  13.272   0.402  13.628 -0.5226 -0.1632  0.0052
 1397DOPE   GL216385  13.522   0.566  13.533 -0.1421 -0.0796 -0.3033
 1397DOPE   C1A16386  13.118   0.580  13.254  0.3451  0.0244 -0.0375
 1397DOPE   D2A16387  12.702   0.606  13.075  0.1363 -0.3490 -0.0021
 1397DOPE   C3A16388  12.648   0.672  12.611 -0.1988  0.0351 -0.1506
 1397DOPE   C4A16389  12.826   0.316  12.386  0.1793  0.1193  0.1999
 1397DOPE   C1B16390  13.667   0.165  13.236  0.1171  0.0494  0.0503
 1397DOPE   D2B16391  13.824  -0.281  13.170 -0.3903  0.0983  0.0118
 1397DOPE   C3B16392  13.678  -0.505  12.848  0.1583 -0.2146 -0.1512
 1397DOPE   C4B16393  13.896  -0.786  12.505  0.2374 -0.0776  0.0910
 1398POSM   NC316394  19.537   3.289  13.391  0.3295 -0.0764 -0.2111
 1398POSM   PO416395  19.572   2.973  13.654 -0.0232 -0.3117 -0.1506
 1398POSM   AM116396  19.606   2.741  13.433 -0.0327  0.2366 -0.2021
 1398POSM   AM216397  19.596   2.423  13.439  0.0087  0.0645  0.0907
 1398POSM   T1A16398  19.957   2.588  13.144  0.0804 -0.2739 -0.1142
 1398POSM   C2A16399  20.219   2.416  12.795 -0.3467 -0.2761 -0.2305
 1398POSM   C3A16400  20.591   2.366  12.501 -0.0085 -0.1587 -0.1991
 1398POSM   C1B16401  19.410   2.375  13.177  0.4735  0.2956  0.3395
 1398POSM   D2B16402  19.256   2.410  12.719  0.0504  0.4776  0.1682
 1398POSM   C3B16403  19.451   2.576  12.331  0.2623 -0.0621 -0.1540
 1398POSM   C4B16404  19.485   2.838  11.936 -0.0092  0.1486 -0.0171
 1399DOPE   NH316405  21.502   7.404  13.948  0.4604 -0.4142  0.1137
 1399DOPE   PO416406  21.643   7.684  13.862 -0.1466  0.2331  0.1229
 1399DOPE   GL116407  21.782   7.393  13.590  0.0387  0.1546 -0.0587
 1399DOPE   GL216408  21.748   7.591  13.327  0.0347 -0.1156 -0.0511
 1399DOPE   C1A16409  21.808   7.146  13.171  0.0238  0.0341  0.1445
 1399DOPE   D2A16410  21.693   7.053  12.721 -0.1544  0.0238 -0.0969
 1399DOPE   C3A16411  21.914   7.328  12.391 -0.2300 -0.1341 -0.2458
 1399DOPE   C4A16412  21.999   7.288  11.977 -0.1303 -0.0100 -0.0489
 1399DOPE   C1B16413  22.176   7.520  13.310  0.1302 -0.0535 -0.2537
 1399DOPE   D2B16414  22.514   7.358  13.071  0.1528 -0.0220  0.1757
 1399DOPE   C3B16415  22.350   7.351  12.700  0.1437  0.1397 -0.1658
 1399DOPE   C4B16416  22.396   7.040  12.324  0.3434  0.0920 -0.1223
 1400DOPE   NH316417  22.267  12.695  13.242 -0.1782 -0.0221 -0.0788
 1400DOPE   PO416418  22.597  12.693  13.205 -0.0823  0.3175  0.2428
 1400DOPE   GL116419  22.609  12.374  13.042 -0.2299  0.0059 -0.1494
 1400DOPE   GL216420  22.731  12.467  12.744  0.0245  0.3000  0.2439
 1400DOPE   C1A16421  22.649  11.985  12.807 -0.0078  0.2295  0.2064
 1400DOPE   D2A16422  22.709  11.570  12.742  0.0188 -0.2800 -0.0377
 1400DOPE   C3A16423  22.629  11.248  12.444  0.1635 -0.0319 -0.1470
 1400DOPE   C4A16424  22.900  11.171  12.025 -0.0676  0.0737 -0.0128
 1400DOPE   C1B16425  22.927  12.176  12.401 -0.0104  0.3404 -0.0618
 1400DOPE   D2B16426  23.150  11.945  12.047 -0.1057  0.0487 -0.2672
 1400DOPE   C3B16427  23.569  11.917  11.783  0.0243  0.0583 -0.2668
 1400DOPE   C4B16428  23.976  11.946  11.949  0.0785 -0.0613  0.1696
 1401POSM   NC316429  23.082   3.433  14.910  0.0185  0.1063  0.2308
 1401POSM   PO416430  22.929   3.784  14.789 -0.4216 -0.0617 -0.0750
 1401POSM   AM116431  23.032   3.703  14.483  0.1115 -0.0956 -0.0615
 1401POSM   AM216432  22.934   3.465  14.377 -0.2315 -0.0114  0.0320
 1401POSM   T1A16433  23.214   3.641  14.038  0.0379  0.3178 -0.4803
 1401POSM   C2A16434  23.456   3.863  13.715 -0.1168  0.1984  0.5629
 1401POSM   C3A16435  23.703   3.764  13.322  0.0309  0.0797  0.1641
 1401POSM   C1B16436  22.851   3.149  14.367 -0.2319 -0.1670 -0.0227
 1401POSM   D2B16437  23.055   2.806  14.259  0.3226 -0.2889  0.0690
 1401POSM   C3B16438  23.136   2.857  13.827 -0.0902 -0.1600  0.1786
 1401POSM   C4B16439  22.994   2.611  13.501  0.0900  0.0059 -0.2006
 1402DOPC   NC316440  15.825   9.269  13.143 -0.1173 -0.0745  0.0688
 1402DOPC   PO416441  15.947   9.383  12.755 -0.4193 -0.1496  0.3264
 1402DOPC   GL116442  16.011   9.469  12.341  0.1309 -0.2907  0.2003
 1402DOPC   GL216443  15.983   9.755  12.416  0.0490  0.0425  0.1066
 1402DOPC   C1A16444  15.941   9.462  11.904  0.1877 -0.2400 -0.1618
 1402DOPC   D2A16445  15.911   9.523  11.442 -0.0298 -0.3269 -0.1307
 1402DOPC   C3A16446  15.786   9.777  11.097 -0.1113 -0.1665  0.0255
 1402DOPC   C4A16447  15.548   9.981  10.727 -0.0540  0.0107  0.1390
 1402DOPC   C1B16448  16.189   9.921  12.073 -0.1409 -0.1248 -0.1532
 1402DOPC   D2B16449  16.332  10.090  11.716 -0.0527 -0.2559 -0.0440
 1402DOPC   C3B16450  15.990  10.173  11.413 -0.0098 -0.2739 -0.0325
 1402DOPC   C4B16451  15.942  10.554  11.149 -0.0138 -0.1062  0.2918
 1403DOPE   NH316452  11.737   3.703  13.984 -0.0658 -0.1716  0.1098
 1403DOPE   PO416453  11.737   3.422  13.800  0.0168  0.2472  0.1060
 1403DOPE   GL116454  11.667   3.306  13.434  0.2136  0.0349 -0.1705
 1403DOPE   GL216455  11.958   3.355  13.311 -0.1643  0.1135  0.0695
 1403DOPE   C1A16456  11.596   2.952  13.115  0.0171  0.0225 -0.4009
 1403DOPE   D2A16457  11.625   2.678  12.731 -0.0889  0.1022 -0.5992
 1403DOPE   C3A16458  11.214   2.711  12.496 -0.0960  0.1949  0.0824
 1403DOPE   C4A16459  10.787   2.791  12.448  0.0235  0.2961 -0.0699
 1403DOPE   C1B16460  11.842   3.316  12.884 -0.0343 -0.4681 -0.0233
 1403DOPE   D2B16461  12.013   2.974  12.656  0.1652  0.1359 -0.0089
 1403DOPE   C3B16462  12.188   3.208  12.357  0.0006 -0.0306  0.3865
 1403DOPE   C4B16463  12.074   3.507  12.071 -0.0006 -0.0492  0.1648
 1404DOPC   NC316464  22.454   7.650  14.262  0.0828  0.0988 -0.0828
 1404DOPC   PO416465  22.609   7.340  14.119 -0.0398 -0.0107 -0.1610
 1404DOPC   GL116466  22.871   7.100  13.851  0.1258  0.0660  0.6124
 1404DOPC   GL216467  22.925   6.811  13.965 -0.0290 -0.0405 -0.2483
 1404DOPC   C1A16468  23.164   7.149  13.461 -0.2327  0.0325 -0.3533
 1404DOPC   D2A16469  23.472   7.458  13.367 -0.1564 -0.2213  0.0739
 1404DOPC   C3A16470  23.820   7.608  13.040  0.5161 -0.2098 -0.1577
 1404DOPC   C4A16471  24.057   7.988  12.852 -0.0540  0.1183 -0.1494
 1404DOPC   C1B16472  22.777   6.762  13.583 -0.1265 -0.1326  0.1525
 1404DOPC   D2B16473  22.747   6.950  13.209  0.1071 -0.2411 -0.0787
 1404DOPC   C3B16474  22.803   7.009  12.754 -0.0367 -0.1193  0.1355
 1404DOPC   C4B16475  23.097   7.254  12.471 -0.0516 -0.2606 -0.2248
 1405POSM   NC316476  13.879  33.988  13.963 -0.1305  0.3719 -0.0639
 1405POSM   PO416477  14.023  34.326  14.100  0.1877  0.1941 -0.2840
 1405POSM   AM116478  14.087  34.334  13.799  0.2020 -0.2319  0.2383
 1405POSM   AM216479  14.198  34.482  13.602 -0.1061 -0.0773  0.0200
 1405POSM   T1A16480  14.043  34.100  13.339  0.0153 -0.0564 -0.0330
 1405POSM   C2A16481  14.222  34.005  12.938 -0.0696 -0.1120 -0.1698
 1405POSM   C3A16482  14.471  34.177  12.573 -0.3021 -0.0205  0.2358
 1405POSM   C1B16483  14.208  34.790  13.383 -0.0059  0.4315 -0.0034
 1405POSM   D2B16484  14.102  35.035  13.006 -0.0124  0.1076 -0.0534
 1405POSM   C3B16485  14.071  35.290  12.688 -0.3254  0.0899  0.0308
 1405POSM   C4B16486  14.329  35.647  12.455  0.0988  0.0520 -0.0448
 1406DOPE   NH316487  19.927   2.011  14.400  0.0297  0.1101  0.1003
 1406DOPE   PO416488  19.899   1.832  14.100 -0.1501 -0.2393 -0.1134
 1406DOPE   GL116489  20.057   1.951  13.672 -0.0468  0.2251  0.0984
 1406DOPE   GL216490  19.928   1.663  13.646  0.2418  0.0224 -0.2506
 1406DOPE   C1A16491  20.000   2.070  13.243 -0.1053  0.1584  0.0165
 1406DOPE   D2A16492  19.786   2.090  12.859  0.1857 -0.0702 -0.0631
 1406DOPE   C3A16493  19.915   2.261  12.383  0.2815  0.0339 -0.0921
 1406DOPE   C4A16494  20.069   2.030  11.969 -0.2412  0.2800 -0.0537
 1406DOPE   C1B16495  19.895   1.566  13.195 -0.1809 -0.2028 -0.2686
 1406DOPE   D2B16496  19.700   1.545  12.778 -0.2506  0.0879 -0.0529
 1406DOPE   C3B16497  20.044   1.322  12.560  0.3745 -0.0048  0.1726
 1406DOPE   C4B16498  20.502   1.280  12.402 -0.3257  0.3158  0.0386
 1407DOPE   NH316499  21.911   2.543  15.157  0.1705  0.0216 -0.2391
 1407DOPE   PO416500  22.176   2.682  15.034 -0.1088  0.0928 -0.3218
 1407DOPE   GL116501  22.197   2.666  14.630 -0.0848 -0.1606  0.1216
 1407DOPE   GL216502  22.138   2.453  14.467 -0.0678 -0.2905  0.2099
 1407DOPE   C1A16503  22.251   3.025  14.309 -0.0178  0.1467 -0.1337
 1407DOPE   D2A16504  22.308   3.466  14.177 -0.1746  0.0570  0.0214
 1407DOPE   C3A16505  22.324   3.553  13.666 -0.3620  0.0451  0.0883
 1407DOPE   C4A16506  22.458   3.489  13.220  0.2187 -0.1845  0.0510
 1407DOPE   C1B16507  22.111   2.251  14.056 -0.1033  0.2865  0.5858
 1407DOPE   D2B16508  21.994   2.309  13.595  0.0466  0.2142  0.2519
 1407DOPE   C3B16509  22.426   2.429  13.433 -0.1616  0.0831 -0.3317
 1407DOPE   C4B16510  22.629   2.560  13.040  0.2090 -0.1737 -0.0948
 1408POSM   NC316511  16.276   4.075  13.651  0.1470 -0.0902 -0.0020
 1408POSM   PO416512  16.125   3.729  13.633  0.1459  0.0477 -0.1143
 1408POSM   AM116513  16.059   3.623  13.320  0.5307  0.1093  0.1346
 1408POSM   AM216514  15.876   3.407  13.253  0.1012  0.1234 -0.0061
 1408POSM   T1A16515  15.908   3.729  12.853  0.3681 -0.0179 -0.1699
 1408POSM   C2A16516  15.894   3.805  12.410 -0.2195  0.2462 -0.3968
 1408POSM   C3A16517  15.845   3.405  12.110 -0.1699 -0.0697  0.1047
 1408POSM   C1B16518  15.902   3.130  13.066 -0.0139  0.2778  0.1893
 1408POSM   D2B16519  15.897   2.723  12.830  0.2176  0.0982  0.0170
 1408POSM   C3B16520  16.015   2.720  12.358  0.5465  0.0785  0.0148
 1408POSM   C4B16521  16.092   2.523  11.967  0.0238  0.1891  0.1429
 1409DOPS   CNO16522  19.435   3.947  13.928  0.0364  0.2428 -0.2142
 1409DOPS   PO416523  19.837   3.884  13.861  0.0236  0.0425 -0.3775
 1409DOPS   GL116524  19.925   4.045  13.460 -0.0629 -0.0467 -0.1999
 1409DOPS   GL216525  20.018   3.842  13.186 -0.3413 -0.0659 -0.1022
 1409DOPS   C1A16526  19.833   4.352  13.151  0.0930 -0.0323 -0.1406
 1409DOPS   D2A16527  19.858   4.686  12.826  0.1853 -0.2785 -0.0605
 1409DOPS   C3A16528  20.286   4.675  12.605 -0.3706 -0.0637 -0.0408
 1409DOPS   C4A16529  20.729   4.739  12.562  0.0470 -0.2016  0.2928
 1409DOPS   C1B16530  19.932   3.383  13.124 -0.1917 -0.0739 -0.1160
 1409DOPS   D2B16531  19.705   3.073  12.957  0.1087  0.2412 -0.0337
 1409DOPS   C3B16532  19.627   3.101  12.551  0.0717  0.0469 -0.1426
 1409DOPS   C4B16533  19.986   3.284  12.294  0.1082  0.0961 -0.0042
 1410DOPC   NC316534  13.849   9.865  12.520  0.1075  0.0932  0.3555
 1410DOPC   PO416535  14.001   9.585  12.705 -0.1337  0.0031 -0.1165
 1410DOPC   GL116536  14.190   9.570  12.433  0.0192  0.0341  0.2786
 1410DOPC   GL216537  14.348   9.831  12.401 -0.1454  0.0760  0.1548
 1410DOPC   C1A16538  14.389   9.326  12.113 -0.5189  0.1654 -0.0239
 1410DOPC   D2A16539  14.408   8.906  12.030 -0.0749  0.1265 -0.1330
 1410DOPC   C3A16540  14.526   8.504  11.918 -0.0200  0.0182  0.0613
 1410DOPC   C4A16541  14.426   8.070  11.965  0.2155 -0.0497  0.1024
 1410DOPC   C1B16542  14.176   9.755  11.952 -0.2147  0.2212 -0.0010
 1410DOPC   D2B16543  14.260   9.812  11.504 -0.0780  0.0256  0.0809
 1410DOPC   C3B16544  14.206   9.427  11.378 -0.0544  0.2812 -0.1686
 1410DOPC   C4B16545  14.378   9.067  11.174  0.1249 -0.2096  0.1174
 1411POSM   NC316546  19.200   5.953  13.971  0.2767  0.0227 -0.2390
 1411POSM   PO416547  18.836   5.925  13.829 -0.1982 -0.0743  0.0894
 1411POSM   AM116548  18.964   5.778  13.569 -0.4104  0.1663 -0.0328
 1411POSM   AM216549  18.893   5.656  13.316  0.0655 -0.1175 -0.0162
 1411POSM   T1A16550  19.292   5.869  13.221 -0.0622 -0.0254  0.2163
 1411POSM   C2A16551  19.496   5.998  12.864  0.1901  0.1417 -0.2020
 1411POSM   C3A16552  19.456   6.074  12.435 -0.1775  0.0774  0.1671
 1411POSM   C1B16553  18.720   5.531  13.044 -0.0605 -0.1315  0.4247
 1411POSM   D2B16554  18.397   5.470  12.707 -0.2430  0.1902  0.1081
 1411POSM   C3B16555  18.156   5.163  12.889 -0.2726  0.3454 -0.0410
 1411POSM   C4B16556  17.879   4.884  12.999  0.1776  0.0320 -0.1207
 1412DOPE   NH316557  17.588   3.110  13.849 -0.1614 -0.1489  0.0379
 1412DOPE   PO416558  17.860   3.175  13.659 -0.1448  0.1670 -0.0956
 1412DOPE   GL116559  17.623   3.229  13.292  0.0129  0.1834 -0.5410
 1412DOPE   GL216560  17.608   2.937  13.298  0.1087  0.2444  0.1301
 1412DOPE   C1A16561  17.643   3.334  12.865 -0.0804 -0.0302 -0.0669
 1412DOPE   D2A16562  17.614   3.625  12.495  0.1725 -0.1393 -0.1876
 1412DOPE   C3A16563  17.280   3.742  12.211 -0.3002 -0.1014  0.0110
 1412DOPE   C4A16564  17.087   3.951  11.828  0.1332  0.0912  0.2931
 1412DOPE   C1B16565  17.507   2.839  12.837 -0.0297  0.0454 -0.0618
 1412DOPE   D2B16566  17.269   2.542  12.582 -0.3907  0.2291  0.0472
 1412DOPE   C3B16567  17.425   2.608  12.151 -0.0475  0.1928  0.0787
 1412DOPE   C4B16568  17.627   2.416  11.768 -0.2353  0.0096  0.1903
 1413DOPS   CNO16569  17.287   0.823  14.459  0.0531  0.3422  0.1026
 1413DOPS   PO416570  17.324   0.707  14.112 -0.2343 -0.3842 -0.1325
 1413DOPS   GL116571  17.482   0.795  13.636 -0.2411  0.1963 -0.1929
 1413DOPS   GL216572  17.757   0.928  13.549  0.1343 -0.1737  0.1353
 1413DOPS   C1A16573  17.228   1.072  13.340  0.0530 -0.2028 -0.1559
 1413DOPS   D2A16574  17.049   1.266  12.941  0.1806 -0.0003 -0.2520
 1413DOPS   C3A16575  16.781   1.043  12.609  0.0136  0.1121 -0.2316
 1413DOPS   C4A16576  16.475   0.987  12.269 -0.3336  0.1934 -0.1494
 1413DOPS   C1B16577  17.614   0.859  13.153 -0.0535 -0.0988 -0.0464
 1413DOPS   D2B16578  17.384   0.732  12.832  0.0757 -0.3296  0.2188
 1413DOPS   C3B16579  17.303   1.074  12.531  0.2245  0.0735  0.0488
 1413DOPS   C4B16580  17.436   1.528  12.453 -0.0746 -0.2293  0.0020
 1414DOPS   CNO16581  21.252  10.111  13.672 -0.0619  0.2585 -0.0043
 1414DOPS   PO416582  21.550  10.163  13.407  0.3376 -0.2624 -0.4872
 1414DOPS   GL116583  21.555  10.316  12.909 -0.2776 -0.0100  0.0952
 1414DOPS   GL216584  21.806  10.292  12.764 -0.1857 -0.2272 -0.1208
 1414DOPS   C1A16585  21.247  10.222  12.579 -0.2640 -0.2047 -0.1609
 1414DOPS   D2A16586  21.042   9.939  12.299  0.0378 -0.1434  0.0452
 1414DOPS   C3A16587  20.662  10.098  11.985  0.0828  0.3807  0.1434
 1414DOPS   C4A16588  20.359   9.904  11.671 -0.1800  0.1283  0.0907
 1414DOPS   C1B16589  21.680  10.146  12.350 -0.3726  0.4191 -0.1483
 1414DOPS   D2B16590  21.791  10.087  11.929 -0.0550  0.0045 -0.1994
 1414DOPS   C3B16591  22.070   9.733  12.019 -0.0213  0.0964 -0.2000
 1414DOPS   C4B16592  22.195   9.387  12.304 -0.0560  0.0172 -0.2438
 1415DOPE   NH316593  22.725  33.533  15.214 -0.0037 -0.1134 -0.0197
 1415DOPE   PO416594  22.422  33.405  15.151 -0.1937 -0.0323 -0.0797
 1415DOPE   GL116595  22.356  33.652  14.778  0.3505  0.0189 -0.0287
 1415DOPE   GL216596  22.374  33.368  14.629  0.2375 -0.1178 -0.4349
 1415DOPE   C1A16597  22.285  33.695  14.278 -0.2710  0.0492  0.0057
 1415DOPE   D2A16598  21.942  33.660  14.028  0.1213  0.1325 -0.2456
 1415DOPE   C3A16599  21.879  33.219  13.938  0.2411  0.1931  0.0772
 1415DOPE   C4A16600  21.770  32.852  13.682 -0.0548  0.0085  0.1251
 1415DOPE   C1B16601  22.359  33.206  14.224 -0.2156 -0.1088 -0.1599
 1415DOPE   D2B16602  22.386  32.892  13.878  0.2509  0.0614 -0.2230
 1415DOPE   C3B16603  22.633  33.133  13.574 -0.1375  0.3151 -0.1579
 1415DOPE   C4B16604  22.913  33.479  13.527 -0.0091  0.1752  0.1699
 1416DOPC   NC316605  15.740   4.026  13.665 -0.0984  0.2213  0.0409
 1416DOPC   PO416606  15.913   4.392  13.655  0.0089 -0.0808  0.2746
 1416DOPC   GL116607  16.077   4.602  13.457 -0.0879 -0.1990 -0.1255
 1416DOPC   GL216608  15.924   4.801  13.253 -0.0096 -0.1661 -0.2646
 1416DOPC   C1A16609  16.286   4.522  13.049 -0.3409 -0.2181  0.1089
 1416DOPC   D2A16610  16.572   4.744  12.717 -0.0934  0.2920  0.1689
 1416DOPC   C3A16611  16.332   4.765  12.282  0.0681  0.2618  0.0808
 1416DOPC   C4A16612  16.012   4.765  11.931 -0.1343  0.2036  0.4414
 1416DOPC   C1B16613  15.942   4.796  12.776  0.1495 -0.0511  0.0028
 1416DOPC   D2B16614  15.807   4.937  12.368  0.1859 -0.2225  0.3888
 1416DOPC   C3B16615  15.393   4.963  12.258  0.3709  0.0033  0.0822
 1416DOPC   C4B16616  15.059   4.746  12.489 -0.0142 -0.1798  0.4929
 1417DOPS   CNO16617  22.944   5.844  14.636 -0.0414 -0.0941 -0.0735
 1417DOPS   PO416618  22.638   5.951  14.420 -0.2876 -0.0713 -0.0028
 1417DOPS   GL116619  22.965   6.118  14.187  0.2649  0.3494 -0.2304
 1417DOPS   GL216620  23.054   5.883  13.934  0.1415 -0.1460 -0.0833
 1417DOPS   C1A16621  23.038   6.352  13.801 -0.1688 -0.2921 -0.2253
 1417DOPS   D2A16622  22.934   6.288  13.368  0.1290  0.3162 -0.0837
 1417DOPS   C3A16623  22.810   5.912  13.068  0.0276  0.2032  0.0563
 1417DOPS   C4A16624  22.900   5.749  12.640  0.1721  0.0091  0.0106
 1417DOPS   C1B16625  23.168   5.912  13.477  0.1225 -0.1500  0.0892
 1417DOPS   D2B16626  23.246   6.077  12.999 -0.0533  0.0546  0.0176
 1417DOPS   C3B16627  23.605   5.944  12.732 -0.0157 -0.1651  0.0021
 1417DOPS   C4B16628  23.860   5.678  12.486 -0.2133 -0.1420  0.2218
 1418DOPE   NH316629  13.836   7.636  13.426  0.0334 -0.1143 -0.3562
 1418DOPE   PO416630  13.957   7.881  13.294  0.0025 -0.2118 -0.1740
 1418DOPE   GL116631  13.991   7.918  12.962  0.0959 -0.1987  0.3712
 1418DOPE   GL216632  14.159   7.923  12.698  0.0151  0.1887 -0.0058
 1418DOPE   C1A16633  13.715   7.977  12.582 -0.2685 -0.1256 -0.0709
 1418DOPE   D2A16634  13.461   7.906  12.163 -0.0008  0.1131  0.0597
 1418DOPE   C3A16635  13.575   7.804  11.718  0.1009  0.0402 -0.0470
 1418DOPE   C4A16636  13.971   7.869  11.504  0.2871  0.0383  0.0313
 1418DOPE   C1B16637  14.526   7.783  12.475 -0.2028 -0.0219  0.1692
 1418DOPE   D2B16638  14.896   7.905  12.267  0.1316  0.1853  0.1637
 1418DOPE   C3B16639  14.941   8.373  12.201  0.0360  0.1625  0.3058
 1418DOPE   C4B16640  14.879   8.759  12.247 -0.0669 -0.1370  0.1105
 1419DOPE   NH316641  21.069   8.500  13.514  0.0374 -0.0414 -0.0203
 1419DOPE   PO416642  20.959   8.222  13.437 -0.1147 -0.0273 -0.3780
 1419DOPE   GL116643  20.950   8.025  13.098  0.3026 -0.1762  0.2139
 1419DOPE   GL216644  20.700   7.992  12.964  0.0116  0.1215  0.0143
 1419DOPE   C1A16645  21.148   8.219  12.793  0.0601 -0.0018  0.0968
 1419DOPE   D2A16646  21.492   8.386  12.517  0.1047  0.2878  0.0781
 1419DOPE   C3A16647  21.701   8.157  12.166 -0.0846  0.0528 -0.1171
 1419DOPE   C4A16648  22.104   8.042  11.946 -0.0357 -0.0850 -0.0747
 1419DOPE   C1B16649  20.756   8.097  12.552 -0.0623  0.1455  0.3417
 1419DOPE   D2B16650  21.105   8.193  12.292 -0.1995  0.2356 -0.0263
 1419DOPE   C3B16651  21.324   7.787  12.147 -0.0312  0.1772  0.4280
 1419DOPE   C4B16652  21.406   7.491  11.823  0.1300  0.0343 -0.1677
 1420DOPE   NH316653  18.594   4.012  13.806 -0.0591  0.3287 -0.1039
 1420DOPE   PO416654  18.670   3.739  13.712 -0.3646 -0.1140  0.3158
 1420DOPE   GL116655  18.581   3.734  13.280 -0.2728  0.0615  0.2703
 1420DOPE   GL216656  18.684   3.426  13.187 -0.1807 -0.0595 -0.0040
 1420DOPE   C1A16657  18.944   3.833  12.970  0.4089 -0.1058  0.1392
 1420DOPE   D2A16658  19.238   3.927  12.588  0.1312 -0.2203  0.0466
 1420DOPE   C3A16659  19.294   4.326  12.367 -0.0684  0.0307  0.1395
 1420DOPE   C4A16660  19.567   4.695  12.336 -0.1881  0.2093  0.0518
 1420DOPE   C1B16661  18.506   3.213  12.827  0.2325  0.0007  0.1604
 1420DOPE   D2B16662  18.237   3.283  12.483  0.2101 -0.0605  0.1208
 1420DOPE   C3B16663  18.075   3.739  12.408 -0.2461  0.0056  0.1694
 1420DOPE   C4B16664  18.307   4.123  12.518 -0.1120 -0.1981 -0.0395
 1421DOPC   NC316665  25.570  13.029  13.616  0.0624 -0.0487  0.0111
 1421DOPC   PO416666  25.277  12.787  13.729 -0.0854 -0.1641  0.2261
 1421DOPC   GL116667  25.082  13.029  13.503 -0.1489  0.0540  0.0555
 1421DOPC   GL216668  25.218  13.219  13.332  0.0288 -0.1030  0.1892
 1421DOPC   C1A16669  24.833  12.942  13.103  0.1622  0.1273 -0.2233
 1421DOPC   D2A16670  24.861  12.983  12.657  0.0534 -0.2117  0.0106
 1421DOPC   C3A16671  24.455  13.020  12.494  0.1369 -0.0242  0.0739
 1421DOPC   C4A16672  24.080  13.090  12.273  0.2286 -0.0513  0.1031
 1421DOPC   C1B16673  25.214  13.366  12.869  0.0435 -0.0384  0.2629
 1421DOPC   D2B16674  25.136  13.753  12.646 -0.0196  0.0584  0.2995
 1421DOPC   C3B16675  25.237  13.812  12.147 -0.1945  0.2011  0.1276
 1421DOPC   C4B16676  25.035  13.573  11.804 -0.0744  0.1174 -0.4799
 1422POSM   NC316677  15.579   7.072  13.608 -0.1216  0.0173 -0.2929
 1422POSM   PO416678  15.685   7.100  13.271  0.1576  0.0087  0.1511
 1422POSM   AM116679  15.832   7.111  12.970 -0.1766  0.0946  0.0599
 1422POSM   AM216680  16.050   7.218  12.898 -0.3903  0.0593  0.2648
 1422POSM   T1A16681  15.766   7.177  12.446 -0.0372  0.4088  0.1128
 1422POSM   C2A16682  15.560   7.056  12.014 -0.0459 -0.0858 -0.1291
 1422POSM   C3A16683  15.325   7.064  11.672  0.5258 -0.1627  0.0633
 1422POSM   C1B16684  16.233   7.385  12.695  0.0371 -0.0515  0.0804
 1422POSM   D2B16685  16.493   7.344  12.291  0.0409  0.4316 -0.0256
 1422POSM   C3B16686  16.643   7.653  12.059  0.4854 -0.2935 -0.0387
 1422POSM   C4B16687  16.603   8.073  12.242 -0.3516  0.1611  0.0095
 1423POSM   NC316688  13.019  10.919  13.572 -0.2074  0.1046 -0.1845
 1423POSM   PO416689  12.784  11.115  13.330  0.0435 -0.0139 -0.2720
 1423POSM   AM116690  12.752  11.084  12.992 -0.0373  0.1114  0.1360
 1423POSM   AM216691  12.557  10.967  12.779 -0.3300  0.2823 -0.4382
 1423POSM   T1A16692  12.909  11.220  12.541 -0.1707 -0.2526 -0.2459
 1423POSM   C2A16693  13.082  11.489  12.223  0.1033 -0.0625 -0.4329
 1423POSM   C3A16694  13.199  11.383  11.782 -0.0638 -0.0514  0.0135
 1423POSM   C1B16695  12.477  10.999  12.456  0.0841  0.0233  0.2277
 1423POSM   D2B16696  12.105  10.978  12.232 -0.1106  0.2874  0.0841
 1423POSM   C3B16697  12.006  10.547  12.092  0.0771  0.0554 -0.0258
 1423POSM   C4B16698  12.119  10.375  11.720  0.1127  0.4040  0.0137
 1424DOPC   NC316699  14.945   6.482  13.546 -0.1863 -0.1591  0.1577
 1424DOPC   PO416700  14.884   6.780  13.318 -0.4215 -0.0685  0.3541
 1424DOPC   GL116701  15.009   6.559  12.991 -0.0595  0.3162 -0.3909
 1424DOPC   GL216702  14.808   6.315  13.006 -0.1286 -0.0291 -0.0435
 1424DOPC   C1A16703  15.180   6.637  12.558 -0.0311  0.1748  0.0629
 1424DOPC   D2A16704  15.471   6.585  12.182 -0.1895  0.0688 -0.0398
 1424DOPC   C3A16705  15.668   6.133  12.185 -0.1437  0.1267 -0.2280
 1424DOPC   C4A16706  15.999   5.754  12.131  0.0202  0.1923 -0.3599
 1424DOPC   C1B16707  14.682   6.359  12.562 -0.2240 -0.0615  0.1365
 1424DOPC   D2B16708  14.859   6.378  12.136 -0.1401 -0.0557  0.4333
 1424DOPC   C3B16709  14.695   6.002  11.955 -0.1306  0.0073 -0.0347
 1424DOPC   C4B16710  14.757   5.569  11.780 -0.2082 -0.1070 -0.1339
 1425DOPC   NC316711  21.748   4.678  14.323 -0.3192 -0.1141  0.3052
 1425DOPC   PO416712  22.084   4.679  14.514  0.0020 -0.2816 -0.1312
 1425DOPC   GL116713  22.156   4.350  14.359 -0.0631  0.2770  0.3995
 1425DOPC   GL216714  22.075   4.405  14.072 -0.2159  0.2529  0.2291
 1425DOPC   C1A16715  22.105   3.892  14.379 -0.2448 -0.1460 -0.1606
 1425DOPC   D2A16716  21.765   3.712  14.085  0.0017  0.0475  0.1907
 1425DOPC   C3A16717  21.690   3.692  13.651 -0.0346 -0.0795 -0.1969
 1425DOPC   C4A16718  21.351   3.665  13.324 -0.3776  0.1136  0.1531
 1425DOPC   C1B16719  22.328   4.595  13.711  0.1027 -0.4443 -0.0385
 1425DOPC   D2B16720  22.601   4.608  13.367 -0.2567 -0.3095 -0.2224
 1425DOPC   C3B16721  22.729   4.238  13.159 -0.0775 -0.0280 -0.2378
 1425DOPC   C4B16722  22.931   4.088  12.730 -0.1660  0.0895 -0.0069
 1426DOPS   CNO16723  13.601   8.611  13.694 -0.1428 -0.0165  0.1588
 1426DOPS   PO416724  13.419   8.493  13.382  0.2756 -0.1065 -0.1707
 1426DOPS   GL116725  13.454   8.469  13.008  0.0357 -0.1401 -0.3008
 1426DOPS   GL216726  13.467   8.645  12.831 -0.1784  0.1110  0.2588
 1426DOPS   C1A16727  13.282   8.234  12.655 -0.0824  0.1094 -0.0562
 1426DOPS   D2A16728  12.989   8.001  12.381  0.1739  0.0733  0.0970
 1426DOPS   C3A16729  12.839   8.204  11.979  0.4478 -0.1691  0.1398
 1426DOPS   C4A16730  12.798   8.403  11.551 -0.0762 -0.0784 -0.0464
 1426DOPS   C1B16731  13.204   8.738  12.460 -0.0160  0.3295  0.0292
 1426DOPS   D2B16732  13.026   9.098  12.235 -0.1348  0.0775  0.0258
 1426DOPS   C3B16733  12.688   9.401  12.259  0.4531 -0.0323 -0.0191
 1426DOPS   C4B16734  12.233   9.429  12.396  0.0738  0.0243 -0.0333
 1427DOPE   NH316735  17.593   1.904  13.894 -0.0740  0.1617  0.4801
 1427DOPE   PO416736  17.662   1.622  14.042  0.1280  0.1030  0.0255
 1427DOPE   GL116737  17.728   1.604  13.602  0.2682 -0.0555 -0.0822
 1427DOPE   GL216738  17.544   1.421  13.619 -0.1150  0.0648  0.1398
 1427DOPE   C1A16739  17.892   1.334  13.230  0.0191  0.1153 -0.3701
 1427DOPE   D2A16740  17.702   1.241  12.809 -0.2848  0.2252  0.1215
 1427DOPE   C3A16741  17.817   0.823  12.634  0.2121 -0.1049 -0.1379
 1427DOPE   C4A16742  17.712   0.385  12.551 -0.0740 -0.0124 -0.0763
 1427DOPE   C1B16743  17.374   1.543  13.204 -0.3441 -0.0710 -0.0928
 1427DOPE   D2B16744  17.177   1.733  12.847 -0.0680  0.1437  0.1715
 1427DOPE   C3B16745  17.304   1.994  12.467  0.2473 -0.1251 -0.0815
 1427DOPE   C4B16746  17.631   2.041  12.106  0.2430  0.1292  0.2294
 1428DOPS   CNO16747  21.082   5.565  14.231  0.0117 -0.0196 -0.1220
 1428DOPS   PO416748  20.916   5.792  13.977  0.0068  0.1290 -0.0171
 1428DOPS   GL116749  20.962   5.898  13.605  0.1564 -0.0914  0.3076
 1428DOPS   GL216750  20.785   5.720  13.391 -0.2613  0.2899  0.2196
 1428DOPS   C1A16751  21.087   6.176  13.256 -0.2644 -0.0815  0.0370
 1428DOPS   D2A16752  21.011   6.515  12.976  0.0264 -0.0514 -0.0787
 1428DOPS   C3A16753  20.926   6.418  12.489  0.0231  0.2660 -0.2844
 1428DOPS   C4A16754  20.831   6.632  12.132  0.1887 -0.1744  0.1357
 1428DOPS   C1B16755  21.085   5.434  13.260  0.0504 -0.3550 -0.0817
 1428DOPS   D2B16756  21.375   5.249  12.933  0.1635 -0.0440 -0.0156
 1428DOPS   C3B16757  21.734   5.031  12.903 -0.0717  0.1726  0.2971
 1428DOPS   C4B16758  22.168   5.217  12.893 -0.0308 -0.2325 -0.1153
 1429DOPE   NH316759  24.017   1.771  11.398 -0.1580  0.3429  0.2979
 1429DOPE   PO416760  24.049   1.679  11.712 -0.1181  0.0639 -0.2231
 1429DOPE   GL116761  23.989   1.992  11.918 -0.1969  0.0592 -0.0762
 1429DOPE   GL216762  23.713   1.973  11.915  0.3175  0.1766 -0.6594
 1429DOPE   C1A16763  24.017   1.992  12.356 -0.1559 -0.0931  0.4140
 1429DOPE   D2A16764  24.213   1.760  12.672 -0.0813 -0.0122  0.3437
 1429DOPE   C3A16765  24.012   1.939  12.952 -0.1340  0.2796 -0.0778
 1429DOPE   C4A16766  23.792   2.229  13.272  0.3127  0.1319  0.0402
 1429DOPE   C1B16767  23.770   2.396  12.129  0.1558 -0.1064  0.3158
 1429DOPE   D2B16768  23.966   2.745  12.245 -0.0913  0.1865  0.4175
 1429DOPE   C3B16769  24.160   2.804  12.634 -0.0635 -0.0337 -0.1057
 1429DOPE   C4B16770  23.933   2.987  12.940  0.2235 -0.0810  0.1034
 1430DOPS   CNO16771  13.329   2.389   9.973 -0.0785 -0.2290 -0.1878
 1430DOPS   PO416772  13.026   2.563  10.011  0.1277 -0.0936 -0.0260
 1430DOPS   GL116773  13.218   2.627  10.405 -0.0186  0.1589  0.2815
 1430DOPS   GL216774  12.964   2.585  10.571 -0.0358  0.1300 -0.1842
 1430DOPS   C1A16775  13.367   2.669  10.862  0.0574  0.1818  0.1000
 1430DOPS   D2A16776  13.431   2.942  11.218  0.0745 -0.0057 -0.3876
 1430DOPS   C3A16777  13.040   3.149  11.298  0.0421 -0.2404 -0.0373
 1430DOPS   C4A16778  12.840   3.312  11.696 -0.1502 -0.1897 -0.1465
 1430DOPS   C1B16779  12.786   2.725  11.013 -0.0795 -0.3988  0.2139
 1430DOPS   D2B16780  12.503   2.899  11.366 -0.4075  0.0554  0.1056
 1430DOPS   C3B16781  12.429   2.962  11.759 -0.1280 -0.1875 -0.1437
 1430DOPS   C4B16782  12.590   2.790  12.210 -0.1411  0.1611 -0.0534
 1431DOPE   NH316783  21.648   1.611  11.068  0.1462 -0.1243  0.1244
 1431DOPE   PO416784  21.828   1.808  10.904 -0.0855 -0.1295 -0.1013
 1431DOPE   GL116785  21.618   2.114  11.082  0.0206 -0.3223 -0.0031
 1431DOPE   GL216786  21.284   2.186  11.053  0.2884  0.1182 -0.2762
 1431DOPE   C1A16787  21.409   2.038  11.503 -0.2068  0.2430 -0.1640
 1431DOPE   D2A16788  21.228   1.838  11.921  0.0563  0.2607  0.1807
 1431DOPE   C3A16789  21.143   2.154  12.288 -0.0925  0.0548  0.1348
 1431DOPE   C4A16790  21.127   2.160  12.765  0.0828  0.0923 -0.0237
 1431DOPE   C1B16791  21.013   2.392  11.354 -0.0759 -0.3763  0.1116
 1431DOPE   D2B16792  20.925   2.327  11.836  0.1727 -0.0473  0.1423
 1431DOPE   C3B16793  20.789   2.702  12.083 -0.2131  0.2100 -0.1103
 1431DOPE   C4B16794  20.424   2.925  12.280 -0.0631 -0.0266  0.0820
 1432DOPE   NH316795  20.552   2.468  10.346  0.0457  0.1029  0.2691
 1432DOPE   PO416796  20.560   2.136  10.395 -0.2149 -0.3877 -0.1161
 1432DOPE   GL116797  20.316   2.150  10.720  0.1646  0.0954 -0.1405
 1432DOPE   GL216798  20.350   1.858  10.779  0.0299  0.1455 -0.1874
 1432DOPE   C1A16799  20.344   2.402  11.114  0.0298  0.0197 -0.0892
 1432DOPE   D2A16800  20.489   2.507  11.595  0.0094 -0.1383  0.2322
 1432DOPE   C3A16801  20.244   2.539  11.985 -0.0188  0.1107  0.2160
 1432DOPE   C4A16802  19.943   2.727  12.272  0.3474 -0.1284 -0.0515
 1432DOPE   C1B16803  20.347   1.917  11.197 -0.0723  0.1910  0.1012
 1432DOPE   D2B16804  20.034   2.193  11.485 -0.0036  0.0798 -0.0752
 1432DOPE   C3B16805  19.989   2.606  11.451  0.2292 -0.1149  0.3566
 1432DOPE   C4B16806  19.895   2.836  11.043 -0.0778  0.0305  0.2772
 1433DOPC   NC316807  22.344   3.379  10.908 -0.0571  0.2950  0.1640
 1433DOPC   PO416808  22.461   2.999  10.852 -0.0178 -0.2200 -0.0340
 1433DOPC   GL116809  22.481   2.949  11.289  0.0808 -0.0231  0.1102
 1433DOPC   GL216810  22.295   3.002  11.488  0.1551 -0.2301 -0.1368
 1433DOPC   C1A16811  22.685   3.038  11.710  0.1177  0.1656  0.1992
 1433DOPC   D2A16812  22.981   3.378  11.902 -0.1114  0.1705 -0.1700
 1433DOPC   C3A16813  22.999   3.595  12.279  0.0660  0.3375 -0.0240
 1433DOPC   C4A16814  23.331   3.504  12.627 -0.2640  0.0204  0.0741
 1433DOPC   C1B16815  21.914   2.945  11.789  0.0244  0.0156  0.1005
 1433DOPC   D2B16816  21.785   2.716  12.195  0.0734 -0.0497 -0.1127
 1433DOPC   C3B16817  22.090   2.407  12.212  0.1635 -0.0623  0.1036
 1433DOPC   C4B16818  22.330   2.235  12.594 -0.0139  0.0942  0.1324
 1434DOPC   NC316819  14.606   8.397   9.184 -0.0493 -0.2106 -0.3601
 1434DOPC   PO416820  14.466   8.233   9.515  0.0745 -0.0420 -0.0111
 1434DOPC   GL116821  14.347   8.396   9.839 -0.4573 -0.2433  0.1004
 1434DOPC   GL216822  14.612   8.518   9.906  0.1322  0.1210  0.1287
 1434DOPC   C1A16823  14.232   8.825  10.019  0.2567  0.0061 -0.2714
 1434DOPC   D2A16824  14.094   9.039  10.375  0.0899 -0.2560  0.0773
 1434DOPC   C3A16825  13.668   9.053  10.514 -0.2148 -0.0271 -0.1040
 1434DOPC   C4A16826  13.361   9.085  10.813 -0.1134  0.1176  0.0901
 1434DOPC   C1B16827  14.454   8.458  10.333  0.0149 -0.3409 -0.1674
 1434DOPC   D2B16828  14.751   8.347  10.608  0.2626 -0.0034  0.2325
 1434DOPC   C3B16829  14.640   7.986  10.864 -0.1617 -0.0956 -0.1748
 1434DOPC   C4B16830  14.756   7.568  11.115 -0.0015  0.1385 -0.4449
 1435DOPE   NH316831  11.614   6.603  10.001  0.2624  0.1525  0.1865
 1435DOPE   PO416832  11.656   6.906  10.090 -0.3051 -0.1745 -0.2520
 1435DOPE   GL116833  11.607   7.081  10.407  0.0884 -0.0343  0.0815
 1435DOPE   GL216834  11.387   7.281  10.383  0.2064  0.0588  0.2939
 1435DOPE   C1A16835  11.406   7.095  10.835  0.1049  0.3788  0.1324
 1435DOPE   D2A16836  11.323   7.401  11.176  0.1773  0.0255 -0.1875
 1435DOPE   C3A16837  11.256   7.422  11.618 -0.0599  0.1337 -0.1981
 1435DOPE   C4A16838  11.025   7.662  11.966  0.4015 -0.2457  0.0264
 1435DOPE   C1B16839  11.430   7.621  10.732 -0.0513  0.0013 -0.2705
 1435DOPE   D2B16840  11.130   7.823  10.906  0.2285 -0.0192 -0.3735
 1435DOPE   C3B16841  10.784   8.073  10.721 -0.0239 -0.0706  0.0653
 1435DOPE   C4B16842  10.432   8.328  10.490  0.0695  0.1811  0.0825
 1436DOPE   NH316843  22.238  10.055   9.518 -0.0523 -0.1352 -0.0890
 1436DOPE   PO416844  22.257   9.735   9.633 -0.0105 -0.3758  0.0148
 1436DOPE   GL116845  22.372   9.800  10.039 -0.3361 -0.3347 -0.1229
 1436DOPE   GL216846  22.257  10.084  10.047  0.1226 -0.2666 -0.0633
 1436DOPE   C1A16847  22.036   9.701  10.389  0.2500  0.1759 -0.0734
 1436DOPE   D2A16848  21.893   9.303  10.428  0.0933 -0.1661  0.0237
 1436DOPE   C3A16849  21.637   9.487  10.782  0.2520 -0.0978  0.0072
 1436DOPE   C4A16850  21.455   9.694  11.141 -0.4485 -0.3130  0.0344
 1436DOPE   C1B16851  22.446  10.149  10.411 -0.0301 -0.2473 -0.2065
 1436DOPE   D2B16852  22.778  10.223  10.671 -0.2916 -0.0903 -0.2601
 1436DOPE   C3B16853  22.713  10.458  11.103 -0.1435 -0.1227  0.0992
 1436DOPE   C4B16854  22.528  10.517  11.527  0.0209 -0.1981  0.1522
 1437DOPE   NH316855  17.777   6.180  10.007 -0.1734  0.0274  0.1400
 1437DOPE   PO416856  17.920   6.292  10.264  0.1077 -0.1046 -0.1651
 1437DOPE   GL116857  17.937   6.188  10.697  0.0037 -0.0650 -0.2563
 1437DOPE   GL216858  17.823   6.491  10.749  0.0017  0.0713 -0.0916
 1437DOPE   C1A16859  18.086   5.954  11.045 -0.2533  0.0236 -0.2435
 1437DOPE   D2A16860  17.966   5.704  11.368 -0.1107  0.1576 -0.0716
 1437DOPE   C3A16861  17.533   5.670  11.387  0.1272 -0.0134 -0.5315
 1437DOPE   C4A16862  17.179   5.438  11.582  0.0566 -0.1083  0.0008
 1437DOPE   C1B16863  17.994   6.460  11.170 -0.0004  0.0296  0.3714
 1437DOPE   D2B16864  18.160   6.649  11.566  0.0299 -0.1326 -0.2424
 1437DOPE   C3B16865  18.119   7.030  11.798  0.0608  0.0251  0.1289
 1437DOPE   C4B16866  18.167   7.476  11.702 -0.0626  0.0669 -0.0844
 1438POSM   NC316867  15.378   8.051   9.872  0.1462 -0.0979  0.3625
 1438POSM   PO416868  15.410   8.358   9.606 -0.0408 -0.4331  0.0330
 1438POSM   AM116869  15.485   8.540   9.932  0.1563 -0.0524  0.0508
 1438POSM   AM216870  15.575   8.518  10.183  0.1884  0.2836 -0.0030
 1438POSM   T1A16871  15.334   8.944  10.157  0.0421 -0.1755 -0.1620
 1438POSM   C2A16872  15.285   9.078  10.629 -0.2207  0.1813 -0.1780
 1438POSM   C3A16873  15.332   9.361  10.997 -0.0135  0.1478  0.0826
 1438POSM   C1B16874  15.376   8.568  10.411 -0.1389  0.1678  0.0665
 1438POSM   D2B16875  15.193   8.607  10.856  0.5799  0.2522  0.1780
 1438POSM   C3B16876  14.912   8.947  11.053 -0.0809  0.0528  0.2789
 1438POSM   C4B16877  14.986   9.236  11.356  0.0071  0.1368 -0.4186
 1439DOPE   NH316878  16.066   9.743   9.153  0.0772  0.0014  0.1336
 1439DOPE   PO416879  15.906   9.552   9.256  0.4619  0.0647  0.1548
 1439DOPE   GL116880  15.996   9.626   9.676 -0.4321  0.0545 -0.4963
 1439DOPE   GL216881  16.311   9.609   9.675 -0.4734  0.0832 -0.3110
 1439DOPE   C1A16882  16.090   9.360  10.058 -0.2402  0.0342  0.0565
 1439DOPE   D2A16883  16.212   8.988  10.298 -0.0954  0.1868  0.1443
 1439DOPE   C3A16884  15.768   8.904  10.474  0.0855 -0.1863 -0.1605
 1439DOPE   C4A16885  15.626   8.868  10.878 -0.1760 -0.2580 -0.1506
 1439DOPE   C1B16886  16.144   9.863  10.075  0.0778  0.0195 -0.1735
 1439DOPE   D2B16887  15.917   9.798  10.453 -0.2433 -0.2185  0.2786
 1439DOPE   C3B16888  16.100   9.399  10.534  0.0079 -0.1308 -0.1012
 1439DOPE   C4B16889  16.502   9.183  10.642  0.1491  0.1051  0.0409
 1440POSM   NC316890  20.588   4.875  10.176  0.0615  0.0796  0.2816
 1440POSM   PO416891  20.697   4.600  10.444 -0.2684 -0.0927 -0.1375
 1440POSM   AM116892  20.506   4.620  10.747  0.0794  0.2948  0.2070
 1440POSM   AM216893  20.412   4.443  10.953 -0.0736 -0.0595 -0.1391
 1440POSM   T1A16894  20.504   4.892  11.161  0.0915 -0.2980 -0.0462
 1440POSM   C2A16895  20.573   4.894  11.618  0.0833  0.0490  0.0755
 1440POSM   C3A16896  20.823   4.965  12.040 -0.0437 -0.0425 -0.1925
 1440POSM   C1B16897  20.709   4.463  11.120  0.4840 -0.1973 -0.1625
 1440POSM   D2B16898  21.140   4.263  11.149 -0.2001 -0.1221 -0.2574
 1440POSM   C3B16899  21.275   4.201  11.599 -0.1580  0.0407  0.1445
 1440POSM   C4B16900  21.608   3.988  11.854  0.0554  0.4902  0.1490
 1441POSM   NC316901  14.657   0.262  10.329  0.2532 -0.3046 -0.3590
 1441POSM   PO416902  14.224   0.250  10.358 -0.1235 -0.0837  0.1052
 1441POSM   AM116903  14.066   0.216  10.629  0.0585  0.1335 -0.0917
 1441POSM   AM216904  13.948   0.440  10.756  0.0994 -0.1893 -0.0983
 1441POSM   T1A16905  14.055   0.152  11.113  0.1091 -0.0785  0.3383
 1441POSM   C2A16906  13.933  -0.193  11.295 -0.0351  0.2384 -0.0993
 1441POSM   C3A16907  13.769  -0.258  11.683 -0.0330 -0.1802  0.1290
 1441POSM   C1B16908  13.751   0.550  11.039 -0.0956  0.3601  0.0578
 1441POSM   D2B16909  13.745   0.736  11.460  0.0892  0.2334  0.0517
 1441POSM   C3B16910  13.922   1.176  11.484  0.1504  0.2076 -0.0955
 1441POSM   C4B16911  13.745   1.607  11.547  0.0563  0.0468  0.0271
 1442DOPC   NC316912  23.122  10.256   9.634  0.3246  0.1864 -0.1536
 1442DOPC   PO416913  23.244   9.971   9.904 -0.1449  0.0832 -0.0606
 1442DOPC   GL116914  23.396  10.115  10.271  0.1944 -0.0394  0.1689
 1442DOPC   GL216915  23.195  10.069  10.437  0.3351  0.0122  0.1012
 1442DOPC   C1A16916  23.245  10.548  10.352  0.2095 -0.1078 -0.1492
 1442DOPC   D2A16917  23.560  10.847  10.445 -0.0888 -0.0189  0.0004
 1442DOPC   C3A16918  23.527  10.914  10.894 -0.2070  0.0025 -0.2025
 1442DOPC   C4A16919  23.603  10.947  11.361  0.3248 -0.5036 -0.0174
 1442DOPC   C1B16920  23.183   9.790  10.805 -0.2185  0.1553 -0.1690
 1442DOPC   D2B16921  23.085   9.782  11.260  0.2753  0.3409  0.0492
 1442DOPC   C3B16922  22.956   9.455  11.603  0.0923 -0.1021 -0.2002
 1442DOPC   C4B16923  22.695   9.583  11.919  0.0447 -0.0162 -0.0109
 1443DOPC   NC316924  21.846   9.990   9.782 -0.1403 -0.1136 -0.1769
 1443DOPC   PO416925  21.558  10.186   9.633  0.1889 -0.1156  0.0577
 1443DOPC   GL116926  21.687  10.388   9.999 -0.1329  0.0939  0.0983
 1443DOPC   GL216927  21.546  10.562  10.007  0.2980 -0.0437  0.2014
 1443DOPC   C1A16928  21.909  10.229  10.388  0.0119 -0.0050  0.0833
 1443DOPC   D2A16929  21.823  10.039  10.841 -0.2495  0.1223  0.2897
 1443DOPC   C3A16930  21.472  10.260  11.096  0.1200 -0.1680 -0.1278
 1443DOPC   C4A16931  21.172  10.459  11.383  0.2729 -0.0382  0.3994
 1443DOPC   C1B16932  21.650  10.891  10.283  0.0340  0.0990  0.2239
 1443DOPC   D2B16933  22.015  11.130  10.324  0.0100  0.0349  0.0873
 1443DOPC   C3B16934  22.231  11.325  10.705 -0.1688  0.2400 -0.2069
 1443DOPC   C4B16935  22.530  11.386  10.968 -0.1341 -0.3707 -0.1226
 1444DOPC   NC316936  14.172   3.957  10.242  0.0787  0.2085  0.0141
 1444DOPC   PO416937  14.499   3.978  10.012  0.0185 -0.0931  0.1129
 1444DOPC   GL116938  14.487   4.067  10.505  0.2132 -0.0251  0.1998
 1444DOPC   GL216939  14.696   4.255  10.512  0.1145 -0.3565 -0.1706
 1444DOPC   C1A16940  14.203   4.126  10.888  0.1228 -0.1449 -0.0238
 1444DOPC   D2A16941  14.085   4.305  11.288 -0.0584  0.2178  0.0740
 1444DOPC   C3A16942  14.434   4.418  11.611 -0.2222  0.0676  0.0604
 1444DOPC   C4A16943  14.635   4.471  12.004 -0.1580  0.2017  0.1104
 1444DOPC   C1B16944  14.856   4.580  10.858  0.3043 -0.0650  0.1604
 1444DOPC   D2B16945  15.161   4.690  11.137  0.0084  0.0383  0.2010
 1444DOPC   C3B16946  14.995   4.969  11.418  0.4862  0.1978 -0.0851
 1444DOPC   C4B16947  15.056   5.039  11.923  0.2143  0.0308  0.3307
 1445DOPE   NH316948  18.482   0.254  10.476  0.2942  0.0247  0.1335
 1445DOPE   PO416949  18.622   0.523  10.415  0.0194 -0.1025 -0.0755
 1445DOPE   GL116950  18.569   0.659  10.850  0.1903 -0.2864 -0.2468
 1445DOPE   GL216951  18.449   0.446  10.978 -0.2485  0.0836 -0.0056
 1445DOPE   C1A16952  18.716   1.099  11.059  0.0026 -0.1153  0.1705
 1445DOPE   D2A16953  18.605   1.503  11.161  0.1051  0.0934 -0.2236
 1445DOPE   C3A16954  18.780   1.580  11.586 -0.3676  0.0569 -0.1636
 1445DOPE   C4A16955  18.796   1.731  12.005 -0.3863 -0.1090  0.4562
 1445DOPE   C1B16956  18.659   0.215  11.290  0.0532  0.1267 -0.3168
 1445DOPE   D2B16957  19.086   0.265  11.515 -0.2741  0.1764  0.1943
 1445DOPE   C3B16958  19.123   0.241  11.980  0.4121  0.2156  0.4511
 1445DOPE   C4B16959  19.488   0.274  12.266 -0.2232  0.3079  0.2011
 1446POSM   NC316960  16.932   2.222   9.566 -0.0284 -0.0862 -0.0642
 1446POSM   PO416961  16.818   2.277   9.984  0.1277 -0.0080  0.1046
 1446POSM   AM116962  16.937   2.291  10.255  0.1224 -0.3666 -0.2286
 1446POSM   AM216963  17.232   2.358  10.337 -0.0584  0.1621  0.1670
 1446POSM   T1A16964  16.980   2.170  10.736 -0.0498 -0.1578 -0.0727
 1446POSM   C2A16965  17.234   2.265  11.134  0.1167 -0.0758 -0.0482
 1446POSM   C3A16966  17.661   2.382  11.245  0.3838  0.2382 -0.1167
 1446POSM   C1B16967  17.227   2.555  10.557  0.0351  0.4930 -0.0479
 1446POSM   D2B16968  17.045   2.699  10.944 -0.1680 -0.0454  0.2418
 1446POSM   C3B16969  17.291   2.752  11.416 -0.2390  0.1923 -0.0409
 1446POSM   C4B16970  17.596   2.913  11.742 -0.0745  0.2889 -0.0424
 1447DOPE   NH316971  10.026   8.793   9.422  0.0088 -0.0058 -0.1499
 1447DOPE   PO416972   9.950   9.076   9.447  0.0434 -0.2154  0.3355
 1447DOPE   GL116973   9.976   9.018   9.919  0.1399 -0.2684 -0.0408
 1447DOPE   GL216974   9.956   9.358   9.991 -0.1792  0.1776 -0.2595
 1447DOPE   C1A16975   9.639   9.076  10.236  0.1656 -0.0143  0.0358
 1447DOPE   D2A16976   9.468   9.189  10.652 -0.0305 -0.2116  0.1971
 1447DOPE   C3A16977   9.555   9.481  11.028 -0.1999 -0.0484 -0.0300
 1447DOPE   C4A16978   9.457   9.671  11.455 -0.2861  0.0727 -0.2489
 1447DOPE   C1B16979  10.456   9.369   9.874  0.2947  0.0861  0.2093
 1447DOPE   D2B16980  10.803   9.269  10.158 -0.0409  0.1759 -0.0398
 1447DOPE   C3B16981  10.835   9.213  10.620 -0.1262 -0.0043 -0.1014
 1447DOPE   C4B16982  10.794   9.182  11.039  0.0892  0.0901  0.3870
 1448DOPC   NC316983  17.898   1.450  10.251 -0.1193 -0.0926  0.2055
 1448DOPC   PO416984  18.237   1.266  10.204 -0.0473  0.1633  0.1056
 1448DOPC   GL116985  18.295   1.538  10.552  0.1294  0.1324  0.0706
 1448DOPC   GL216986  18.408   1.317  10.751  0.1018 -0.1397 -0.1628
 1448DOPC   C1A16987  18.346   1.920  10.824  0.0850  0.2794  0.0699
 1448DOPC   D2A16988  18.433   2.345  11.010  0.2390 -0.0927 -0.0005
 1448DOPC   C3A16989  18.180   2.639  11.127  0.3510 -0.0365 -0.0907
 1448DOPC   C4A16990  18.315   3.098  11.212 -0.2238 -0.1290  0.3833
 1448DOPC   C1B16991  18.240   1.055  11.089  0.1598  0.0691 -0.1047
 1448DOPC   D2B16992  17.919   1.027  11.423 -0.2346 -0.0002 -0.1396
 1448DOPC   C3B16993  18.160   1.016  11.806  0.0893  0.2820  0.0112
 1448DOPC   C4B16994  18.387   0.912  12.174  0.0253 -0.1292  0.0417
 1449POSM   NC316995  19.689   2.740  10.119  0.0889 -0.0065 -0.1723
 1449POSM   PO416996  20.056   2.533  10.100 -0.0788 -0.0328 -0.2313
 1449POSM   AM116997  20.110   2.522  10.442  0.1302  0.1261  0.0165
 1449POSM   AM216998  19.912   2.467  10.647  0.2104  0.1640  0.1482
 1449POSM   T1A16999  20.340   2.784  10.820  0.0716 -0.0824 -0.1217
 1449POSM   C2A17000  20.326   3.260  10.919  0.3642  0.1709  0.2502
 1449POSM   C3A17001  20.231   3.559  11.260  0.1461  0.0098  0.2248
 1449POSM   C1B17002  19.862   2.275  10.929 -0.0250 -0.0266  0.1815
 1449POSM   D2B17003  19.649   1.955  11.178  0.0375  0.2515 -0.1578
 1449POSM   C3B17004  19.633   1.988  11.641 -0.0849  0.0764  0.0562
 1449POSM   C4B17005  19.683   2.364  11.923 -0.0087 -0.0052 -0.1203
 1450DOPE   NH317006  22.395   6.174  10.009  0.0088 -0.2402  0.0022
 1450DOPE   PO417007  22.555   5.942  10.046 -0.0092 -0.2992  0.2321
 1450DOPE   GL117008  22.406   6.039  10.511  0.1321  0.2400  0.4343
 1450DOPE   GL217009  22.387   6.229  10.716 -0.2248 -0.2502 -0.3678
 1450DOPE   C1A17010  22.453   5.709  10.844 -0.2355  0.1019  0.3192
 1450DOPE   D2A17011  22.776   5.580  11.164  0.0503 -0.0283  0.1581
 1450DOPE   C3A17012  23.157   5.686  11.387 -0.2286  0.0278  0.1833
 1450DOPE   C4A17013  23.517   5.902  11.211 -0.0249  0.0666 -0.3698
 1450DOPE   C1B17014  22.349   6.385  11.121  0.3140 -0.0503 -0.0189
 1450DOPE   D2B17015  22.420   6.441  11.580  0.1519  0.1098  0.1647
 1450DOPE   C3B17016  22.692   6.737  11.791 -0.0328 -0.2134  0.4068
 1450DOPE   C4B17017  22.773   7.176  11.995  0.0592 -0.2249  0.0729
 1451DOPE   NH317018  11.351   3.937  10.433 -0.3017 -0.0492  0.0409
 1451DOPE   PO417019  11.530   3.680  10.569 -0.1016 -0.1495 -0.3251
 1451DOPE   GL117020  11.775   3.807  10.873 -0.2245  0.2545  0.2400
 1451DOPE   GL217021  11.973   3.712  10.989  0.3171  0.1709 -0.0587
 1451DOPE   C1A17022  11.488   3.839  11.237 -0.1429  0.0289  0.1658
 1451DOPE   D2A17023  11.300   4.077  11.581  0.0092 -0.0454 -0.1294
 1451DOPE   C3A17024  11.169   4.092  12.024  0.1708 -0.1579 -0.5379
 1451DOPE   C4A17025  11.021   4.041  12.450 -0.0072 -0.0310 -0.1939
 1451DOPE   C1B17026  12.068   3.860  11.347  0.2016 -0.0059 -0.0736
 1451DOPE   D2B17027  12.190   3.958  11.832  0.1858 -0.1696  0.0177
 1451DOPE   C3B17028  12.447   4.279  12.080  0.1035  0.2187 -0.0284
 1451DOPE   C4B17029  12.379   4.527  12.437 -0.1389 -0.1862 -0.1468
 1452DOPC   NC317030  15.126   7.383   9.680  0.0330 -0.2529 -0.3501
 1452DOPC   PO417031  15.116   7.657   9.933  0.0406 -0.0495  0.2296
 1452DOPC   GL117032  15.253   7.786  10.282 -0.4201  0.1457  0.0740
 1452DOPC   GL217033  15.081   8.002  10.399  0.3564  0.2045 -0.1395
 1452DOPC   C1A17034  15.658   8.002  10.343 -0.0644  0.1889 -0.4270
 1452DOPC   D2A17035  15.982   7.898  10.688 -0.0062  0.1904  0.0825
 1452DOPC   C3A17036  16.045   8.121  11.095 -0.0911 -0.0981  0.1282
 1452DOPC   C4A17037  16.192   8.417  11.390 -0.1522 -0.1771  0.1615
 1452DOPC   C1B17038  15.094   7.678  10.708 -0.2452 -0.0885 -0.1488
 1452DOPC   D2B17039  14.904   7.244  10.822  0.0527 -0.1130 -0.2018
 1452DOPC   C3B17040  14.697   6.936  10.547  0.0525 -0.1289 -0.0079
 1452DOPC   C4B17041  14.241   6.977  10.486 -0.0330  0.0297 -0.0401
 1453DOPE   NH317042  16.908   8.289   9.728 -0.2766  0.4826  0.2316
 1453DOPE   PO417043  16.996   8.586   9.771  0.0218 -0.2551 -0.0644
 1453DOPE   GL117044  17.136   8.318  10.150 -0.1742 -0.0096  0.1032
 1453DOPE   GL217045  17.010   8.483  10.294 -0.1660 -0.0620 -0.3663
 1453DOPE   C1A17046  17.575   8.168  10.310 -0.1753 -0.2546 -0.1701
 1453DOPE   D2A17047  17.715   7.968  10.645  0.1811  0.1490  0.1517
 1453DOPE   C3A17048  17.363   8.134  10.932  0.0098 -0.1025 -0.1109
 1453DOPE   C4A17049  17.150   8.520  10.819 -0.3250  0.0713 -0.1077
 1453DOPE   C1B17050  16.820   8.174  10.551 -0.2869  0.1432  0.0491
 1453DOPE   D2B17051  16.494   8.162  10.898 -0.0874 -0.0119  0.0200
 1453DOPE   C3B17052  16.799   8.223  11.174  0.0453  0.1042  0.2436
 1453DOPE   C4B17053  17.148   8.465  11.338  0.0926 -0.0305  0.1506
 1454POSM   NC317054  21.724   4.777   9.843  0.0148  0.2278 -0.1070
 1454POSM   PO417055  21.616   4.856  10.192  0.0420  0.1183  0.1734
 1454POSM   AM117056  21.635   4.842  10.516  0.1839 -0.0188  0.1299
 1454POSM   AM217057  21.388   4.878  10.690  0.3031 -0.3707 -0.0968
 1454POSM   T1A17058  21.808   4.908  10.984 -0.1340 -0.0548 -0.0147
 1454POSM   C2A17059  21.731   5.094  11.407 -0.1132 -0.0995  0.1633
 1454POSM   C3A17060  21.835   5.453  11.579 -0.0544  0.3899  0.1058
 1454POSM   C1B17061  21.296   4.807  10.973 -0.0079 -0.0406 -0.3637
 1454POSM   D2B17062  21.151   4.709  11.389 -0.0814 -0.3279 -0.1145
 1454POSM   C3B17063  21.493   4.765  11.715 -0.0064 -0.0274  0.3223
 1454POSM   C4B17064  21.854   4.858  11.988 -0.0527 -0.2832 -0.1866
 1455DOPC   NC317065  20.365  10.908   9.141  0.0115  0.0509  0.0178
 1455DOPC   PO417066  20.030  10.771   9.057  0.2525 -0.2094  0.2999
 1455DOPC   GL117067  19.997  10.831   9.441 -0.4468 -0.1409 -0.0910
 1455DOPC   GL217068  20.160  10.552   9.464  0.2644 -0.6186 -0.0305
 1455DOPC   C1A17069  20.073  10.781   9.912  0.3229 -0.2434  0.0424
 1455DOPC   D2A17070  20.274  10.496  10.215  0.1714  0.0615 -0.2324
 1455DOPC   C3A17071  20.353  10.486  10.700 -0.0852 -0.0819  0.0683
 1455DOPC   C4A17072  20.128  10.331  11.099 -0.4529  0.0706  0.1374
 1455DOPC   C1B17073  20.237  10.285   9.798  0.0857 -0.2373  0.0606
 1455DOPC   D2B17074  20.227   9.969  10.121 -0.0724  0.2401  0.0254
 1455DOPC   C3B17075  20.352   9.576  10.252  0.3763 -0.1067 -0.0012
 1455DOPC   C4B17076  20.333   9.335  10.616 -0.1328 -0.1909 -0.1570
 1456POSM   NC317077  21.217  10.636   8.809 -0.1046  0.2199 -0.1608
 1456POSM   PO417078  20.997  10.735   9.146  0.1119  0.0260 -0.1676
 1456POSM   AM117079  20.863  10.799   9.469 -0.3698  0.0430  0.4463
 1456POSM   AM217080  20.638  10.924   9.615 -0.0021 -0.0371  0.2780
 1456POSM   T1A17081  21.042  10.896   9.938 -0.0704 -0.1564 -0.1961
 1456POSM   C2A17082  21.196  10.988  10.344 -0.1957  0.3037 -0.0135
 1456POSM   C3A17083  21.247  10.807  10.739  0.1343  0.3664 -0.0171
 1456POSM   C1B17084  20.554  10.984   9.902  0.1517  0.1408 -0.0169
 1456POSM   D2B17085  20.412  10.974  10.311  0.1234  0.0727 -0.2079
 1456POSM   C3B17086  20.749  10.996  10.610 -0.1772 -0.1050 -0.0035
 1456POSM   C4B17087  20.890  11.370  10.676  0.2532  0.0645  0.0735
 1457DOPE   NH317088  14.717   2.142  10.062 -0.0526  0.3205  0.0603
 1457DOPE   PO417089  14.822   1.879   9.841  0.5047 -0.0269 -0.0143
 1457DOPE   GL117090  14.942   1.760  10.100 -0.0996  0.2616  0.3715
 1457DOPE   GL217091  15.067   1.909  10.348 -0.2935  0.0570 -0.2112
 1457DOPE   C1A17092  14.940   1.443  10.413  0.3897  0.2125 -0.1751
 1457DOPE   D2A17093  14.889   1.417  10.860  0.0388  0.1353 -0.3858
 1457DOPE   C3A17094  14.568   1.546  11.153 -0.0572  0.2110 -0.1147
 1457DOPE   C4A17095  14.220   1.826  11.403  0.0398 -0.1024  0.0311
 1457DOPE   C1B17096  14.754   1.896  10.693  0.3504  0.1835 -0.1766
 1457DOPE   D2B17097  14.630   2.030  11.104  0.1172 -0.2069 -0.0748
 1457DOPE   C3B17098  14.705   1.897  11.584 -0.0157 -0.0344 -0.0719
 1457DOPE   C4B17099  14.784   2.174  11.962 -0.1907 -0.0190 -0.0159
 1458DOPC   NC317100  23.690   3.453  11.090  0.1628  0.1937  0.0852
 1458DOPC   PO417101  23.748   3.247  11.435  0.1267  0.1710  0.1673
 1458DOPC   GL117102  23.529   3.402  11.740 -0.4254  0.1109  0.0522
 1458DOPC   GL217103  23.395   3.711  11.720 -0.2283  0.2175 -0.2776
 1458DOPC   C1A17104  23.534   3.306  12.189 -0.1840 -0.0327  0.0355
 1458DOPC   D2A17105  23.741   3.154  12.550 -0.0933 -0.2818 -0.0307
 1458DOPC   C3A17106  23.680   2.705  12.620 -0.2071 -0.0368 -0.0937
 1458DOPC   C4A17107  23.795   2.307  12.672 -0.0183 -0.3124  0.2273
 1458DOPC   C1B17108  22.995   3.898  11.639 -0.0242  0.4722  0.0474
 1458DOPC   D2B17109  22.612   3.915  11.889  0.2835 -0.1355  0.0340
 1458DOPC   C3B17110  22.616   4.181  12.290  0.2467 -0.0761 -0.1412
 1458DOPC   C4B17111  22.503   4.372  12.700  0.0676 -0.1021  0.0997
 1459DOPE   NH317112  22.117   2.156  11.136 -0.0243  0.2262  0.1009
 1459DOPE   PO417113  22.304   1.876  11.157 -0.0241 -0.0529 -0.0127
 1459DOPE   GL117114  22.098   1.616  11.387 -0.2434 -0.3120 -0.3574
 1459DOPE   GL217115  21.881   1.804  11.491  0.1171 -0.2515  0.2253
 1459DOPE   C1A17116  22.189   1.449  11.810 -0.2128 -0.0352 -0.5729
 1459DOPE   D2A17117  22.245   1.171  12.291  0.0674  0.2538  0.3176
 1459DOPE   C3A17118  22.020   0.923  12.636  0.1127 -0.3820 -0.2138
 1459DOPE   C4A17119  22.018   0.830  13.061 -0.0208  0.1979  0.1365
 1459DOPE   C1B17120  21.718   1.673  11.864  0.0232  0.0786  0.0445
 1459DOPE   D2B17121  21.812   1.338  12.141 -0.0862  0.0444  0.0110
 1459DOPE   C3B17122  21.743   1.383  12.665 -0.2511 -0.1169  0.1123
 1459DOPE   C4B17123  21.494   1.658  12.971 -0.0735 -0.2555  0.0091
 1460POSM   NC317124  11.983   5.846   9.693 -0.0940  0.2753 -0.3368
 1460POSM   PO417125  12.059   5.469   9.836  0.2780 -0.0528 -0.0545
 1460POSM   AM117126  12.175   5.561  10.097 -0.1846  0.1092 -0.1331
 1460POSM   AM217127  12.327   5.770  10.221  0.1894  0.1606 -0.0525
 1460POSM   T1A17128  12.013   5.719  10.581 -0.3274  0.0570  0.0309
 1460POSM   C2A17129  12.135   5.667  11.006 -0.2665  0.0534 -0.0520
 1460POSM   C3A17130  12.179   5.739  11.448  0.3369  0.1355  0.4899
 1460POSM   C1B17131  12.460   5.594  10.472 -0.0665  0.2208 -0.1030
 1460POSM   D2B17132  12.758   5.661  10.868  0.1376  0.1616 -0.0080
 1460POSM   C3B17133  12.741   5.602  11.303 -0.1679  0.0596  0.0910
 1460POSM   C4B17134  12.962   5.707  11.704 -0.0340 -0.1899 -0.0619
 1461DOPC   NC317135  21.327   5.280  10.270 -0.1495 -0.0840  0.1112
 1461DOPC   PO417136  21.008   5.162  10.446  0.0926 -0.1301 -0.1154
 1461DOPC   GL117137  20.822   5.235  10.733 -0.4020 -0.1432  0.1117
 1461DOPC   GL217138  20.573   5.170  10.720  0.1669  0.0331  0.0550
 1461DOPC   C1A17139  20.900   5.133  11.223 -0.3488 -0.0904  0.1267
 1461DOPC   D2A17140  20.908   5.241  11.658  0.1249  0.2345  0.0050
 1461DOPC   C3A17141  21.051   5.415  12.073 -0.1259 -0.0924  0.0829
 1461DOPC   C4A17142  21.308   5.565  12.411 -0.1241 -0.0572  0.1937
 1461DOPC   C1B17143  20.535   5.479  11.074  0.1830  0.0047  0.0896
 1461DOPC   D2B17144  20.863   5.737  11.403  0.1972  0.0056  0.1764
 1461DOPC   C3B17145  20.686   5.676  11.828  0.1139 -0.1713  0.1264
 1461DOPC   C4B17146  20.535   5.979  12.169 -0.0530 -0.2605 -0.6224
 1462POSM   NC317147  16.672   4.235   9.968  0.2515 -0.0183  0.2670
 1462POSM   PO417148  16.501   3.945  10.188  0.2769 -0.3126 -0.4210
 1462POSM   AM117149  16.494   3.898  10.514  0.1706 -0.0474 -0.1152
 1462POSM   AM217150  16.487   4.046  10.775  0.0935 -0.0712  0.2978
 1462POSM   T1A17151  16.637   3.555  10.866  0.0536  0.1469  0.2539
 1462POSM   C2A17152  16.556   3.425  11.292 -0.1649  0.0829  0.2032
 1462POSM   C3A17153  16.199   3.140  11.468  0.0383 -0.1371 -0.0315
 1462POSM   C1B17154  16.204   3.949  10.873  0.0242  0.1057  0.4614
 1462POSM   D2B17155  16.068   3.614  11.142 -0.0946 -0.1255  0.3624
 1462POSM   C3B17156  16.200   3.612  11.549  0.0515 -0.1409  0.1120
 1462POSM   C4B17157  16.549   3.756  11.779 -0.1141  0.1779  0.1675
 1463POSM   NC317158  12.897   6.876   9.464  0.2466  0.1337 -0.3685
 1463POSM   PO417159  13.160   6.738   9.708 -0.0816  0.2523 -0.1030
 1463POSM   AM117160  13.234   6.863  10.018  0.3089  0.2168 -0.1287
 1463POSM   AM217161  13.449   6.943  10.177 -0.2100 -0.1262  0.1247
 1463POSM   T1A17162  13.156   6.965  10.514  0.0875 -0.0714 -0.4010
 1463POSM   C2A17163  13.244   6.880  10.958 -0.1390  0.3028  0.1854
 1463POSM   C3A17164  13.207   6.882  11.424  0.2614  0.0338  0.0167
 1463POSM   C1B17165  13.638   7.039  10.447 -0.0518  0.2654 -0.0183
 1463POSM   D2B17166  13.874   6.972  10.800 -0.0687  0.1350 -0.5742
 1463POSM   C3B17167  13.705   6.585  10.970 -0.5046  0.2342  0.0913
 1463POSM   C4B17168  13.442   6.284  11.181 -0.2040 -0.0728 -0.1280
 1464DOPC   NC317169  12.252   2.103  10.613  0.0589  0.2533  0.0651
 1464DOPC   PO417170  12.042   2.316  10.373 -0.0454 -0.1045  0.0343
 1464DOPC   GL117171  12.222   2.615  10.636 -0.0331 -0.0571  0.0084
 1464DOPC   GL217172  12.419   2.523  10.823 -0.0918  0.3178  0.0564
 1464DOPC   C1A17173  12.038   2.789  11.067 -0.0213  0.2247 -0.0427
 1464DOPC   D2A17174  11.944   2.893  11.502 -0.1678  0.3519  0.2519
 1464DOPC   C3A17175  11.529   2.998  11.514  0.3767  0.1332  0.0601
 1464DOPC   C4A17176  11.138   3.020  11.297 -0.1366 -0.0811 -0.0879
 1464DOPC   C1B17177  12.468   2.414  11.311  0.1010  0.1260  0.0582
 1464DOPC   D2B17178  12.677   2.569  11.695 -0.0570 -0.0038  0.4164
 1464DOPC   C3B17179  12.941   2.933  11.917  0.0233 -0.2872  0.0455
 1464DOPC   C4B17180  13.021   3.342  12.203  0.0389  0.0553 -0.0890
 1465DOPE   NH317181  15.430   3.306  10.044 -0.2873 -0.2536  0.1117
 1465DOPE   PO417182  15.467   3.324  10.358  0.0005  0.0733  0.1527
 1465DOPE   GL117183  15.332   3.182  10.728 -0.0176 -0.0338  0.2394
 1465DOPE   GL217184  15.600   3.189  10.860 -0.1399  0.0011 -0.1811
 1465DOPE   C1A17185  14.986   3.166  11.008  0.1545 -0.1193 -0.0590
 1465DOPE   D2A17186  14.676   2.922  11.333 -0.0342 -0.1279  0.1976
 1465DOPE   C3A17187  14.275   2.727  11.326  0.0194  0.0566 -0.0045
 1465DOPE   C4A17188  14.037   2.532  11.731  0.0453  0.0869  0.0355
 1465DOPE   C1B17189  15.699   3.284  11.279  0.0324  0.0372  0.1873
 1465DOPE   D2B17190  15.767   3.074  11.735  0.0341  0.0143 -0.2791
 1465DOPE   C3B17191  16.192   3.011  12.018  0.0299 -0.2318 -0.0124
 1465DOPE   C4B17192  16.504   2.852  12.295 -0.2397 -0.2620  0.2017
 1466POSM   NC317193  15.242   9.537   9.075 -0.0807 -0.0386 -0.2231
 1466POSM   PO417194  14.892   9.450   9.129  0.0094 -0.1884 -0.0981
 1466POSM   AM117195  14.920   9.439   9.459  0.1562 -0.0542  0.0938
 1466POSM   AM217196  14.762   9.446   9.699 -0.2381  0.2316  0.1046
 1466POSM   T1A17197  15.142   9.378   9.929  0.3222  0.2286 -0.0655
 1466POSM   C2A17198  14.942   9.353  10.400  0.2562  0.0635 -0.1202
 1466POSM   C3A17199  14.849   9.406  10.895  0.0262  0.3890 -0.2279
 1466POSM   C1B17200  14.817   9.743   9.907  0.0228 -0.1856 -0.1388
 1466POSM   D2B17201  14.990   9.819  10.288  0.3162  0.0441 -0.0465
 1466POSM   C3B17202  15.119   9.747  10.696  0.2155  0.3813  0.0633
 1466POSM   C4B17203  14.996  10.079  10.966  0.2202 -0.0941  0.1519
 1467POSM   NC317204  11.149   2.087  10.035  0.1522  0.0418  0.0275
 1467POSM   PO417205  11.206   1.988  10.425  0.1355  0.1453 -0.4837
 1467POSM   AM117206  11.318   1.934  10.717 -0.2046 -0.2951  0.3031
 1467POSM   AM217207  11.342   2.021  10.959  0.2773  0.2779 -0.1281
 1467POSM   T1A17208  11.249   1.520  11.073 -0.1801 -0.1587 -0.0511
 1467POSM   C2A17209  11.393   1.156  11.334 -0.0610 -0.1889 -0.0656
 1467POSM   C3A17210  11.653   1.090  11.684  0.4779  0.1181 -0.1885
 1467POSM   C1B17211  11.522   2.066  11.249  0.0181 -0.0704  0.2776
 1467POSM   D2B17212  11.854   1.982  11.569  0.2326  0.1942 -0.1013
 1467POSM   C3B17213  12.053   1.580  11.712 -0.1797  0.2448  0.1221
 1467POSM   C4B17214  12.491   1.548  11.820  0.2839  0.1098  0.0083
 1468DOPS   CNO17215  18.920   4.317  10.125 -0.2315 -0.0502 -0.1627
 1468DOPS   PO417216  18.542   4.377  10.092  0.1831  0.1070  0.2804
 1468DOPS   GL117217  18.654   4.428  10.533 -0.1577 -0.2800 -0.0410
 1468DOPS   GL217218  18.404   4.434  10.607 -0.3051  0.0925  0.0020
 1468DOPS   C1A17219  18.590   4.861  10.757 -0.1984  0.0533  0.0873
 1468DOPS   D2A17220  18.973   5.058  10.993 -0.1313  0.2666  0.1432
 1468DOPS   C3A17221  19.108   5.084  11.489  0.0341 -0.1900  0.0123
 1468DOPS   C4A17222  19.275   5.329  11.839  0.1773  0.0287  0.1982
 1468DOPS   C1B17223  18.593   4.439  11.011 -0.0038 -0.0179 -0.0624
 1468DOPS   D2B17224  18.800   4.735  11.331  0.1524  0.2145  0.2649
 1468DOPS   C3B17225  18.635   5.151  11.318 -0.0127  0.2463 -0.1351
 1468DOPS   C4B17226  18.523   5.317  10.931 -0.2085  0.2992 -0.1555
 1469DOPC   NC317227  16.648  10.146   8.861 -0.2372  0.2462  0.1120
 1469DOPC   PO417228  16.257  10.115   8.829  0.2985  0.0436 -0.0285
 1469DOPC   GL117229  16.295  10.235   9.173 -0.1331 -0.0315  0.2750
 1469DOPC   GL217230  16.246  10.531   9.342 -0.1339 -0.2258 -0.1552
 1469DOPC   C1A17231  16.418  10.121   9.643 -0.0010 -0.0181  0.1787
 1469DOPC   D2A17232  16.635   9.914  10.055 -0.0654 -0.1727  0.0121
 1469DOPC   C3A17233  16.966  10.059  10.427 -0.1947  0.1179  0.3619
 1469DOPC   C4A17234  17.169  10.076  10.843  0.2307  0.2708  0.1879
 1469DOPC   C1B17235  16.437  10.682   9.766 -0.1610 -0.1916 -0.0468
 1469DOPC   D2B17236  16.632  10.379  10.119 -0.4158  0.1145 -0.0443
 1469DOPC   C3B17237  16.418  10.286  10.535 -0.2222 -0.4987 -0.0879
 1469DOPC   C4B17238  15.993  10.252  10.776 -0.0665 -0.0615 -0.1418
 1470POSM   NC317239  10.702   4.480  10.705  0.0757 -0.4728  0.1141
 1470POSM   PO417240  10.970   4.316  10.453  0.0286  0.1311 -0.0021
 1470POSM   AM117241  11.115   4.289  10.723 -0.3943  0.2650 -0.1103
 1470POSM   AM217242  11.354   4.185  10.860  0.0251 -0.2391 -0.3047
 1470POSM   T1A17243  11.058   4.531  11.171  0.1222 -0.1367 -0.1161
 1470POSM   C2A17244  10.900   4.792  11.499 -0.0848 -0.1272 -0.3711
 1470POSM   C3A17245  10.692   5.192  11.669 -0.1663 -0.0087  0.1730
 1470POSM   C1B17246  11.479   4.308  11.148  0.4988 -0.2155  0.0341
 1470POSM   D2B17247  11.528   4.690  11.425 -0.1119  0.0652 -0.1186
 1470POSM   C3B17248  11.262   4.687  11.799  0.0139  0.1328 -0.0735
 1470POSM   C4B17249  11.132   5.077  12.025  0.0067  0.0052  0.1030
 1471DOPE   NH317250  17.804   3.894  10.090  0.1321  0.0066 -0.0647
 1471DOPE   PO417251  17.575   4.087  10.159  0.0687  0.1833 -0.1169
 1471DOPE   GL117252  17.448   3.905  10.462 -0.0270  0.1140 -0.0812
 1471DOPE   GL217253  17.522   3.647  10.444  0.0839 -0.1208  0.1272
 1471DOPE   C1A17254  17.022   3.787  10.616  0.0969 -0.0276 -0.3011
 1471DOPE   D2A17255  16.958   4.125  10.959  0.0939  0.3296 -0.1283
 1471DOPE   C3A17256  17.345   4.261  11.212  0.1619 -0.2780  0.1059
 1471DOPE   C4A17257  17.690   4.239  11.441 -0.0577  0.0454  0.0466
 1471DOPE   C1B17258  17.371   3.361  10.761 -0.0088 -0.0795 -0.3347
 1471DOPE   D2B17259  17.453   2.933  10.962  0.1978 -0.1292  0.0238
 1471DOPE   C3B17260  17.800   2.933  11.272  0.0568  0.0803 -0.1591
 1471DOPE   C4B17261  18.097   2.924  11.646 -0.1656 -0.1189  0.0518
 1472POSM   NC317262  12.553   8.618   9.301 -0.0943 -0.1549 -0.3873
 1472POSM   PO417263  12.253   8.814   9.377 -0.0327  0.2024 -0.2106
 1472POSM   AM117264  12.139   8.757   9.667 -0.1920  0.1555 -0.0953
 1472POSM   AM217265  11.982   8.887   9.858 -0.1821  0.1248  0.0169
 1472POSM   T1A17266  11.994   8.377   9.992  0.2034 -0.0652 -0.2566
 1472POSM   C2A17267  11.843   7.944  10.126  0.1403 -0.0521  0.4433
 1472POSM   C3A17268  11.772   7.527  10.332  0.1710 -0.0612  0.2254
 1472POSM   C1B17269  11.909   8.976  10.156  0.4966 -0.0962  0.3070
 1472POSM   D2B17270  11.698   8.871  10.547 -0.2249 -0.0323  0.0141
 1472POSM   C3B17271  11.293   8.973  10.743  0.2354 -0.2557 -0.1771
 1472POSM   C4B17272  10.908   8.731  10.878 -0.0203  0.0060  0.1508
 1473POSM   NC317273  13.565   6.436   9.595 -0.1731  0.3406  0.5396
 1473POSM   PO417274  13.765   6.714   9.759  0.0116  0.1219  0.1629
 1473POSM   AM117275  13.590   6.561  10.013 -0.0361  0.4123  0.2799
 1473POSM   AM217276  13.683   6.313  10.156  0.1880  0.2226  0.2121
 1473POSM   T1A17277  13.454   6.558  10.503 -0.0853  0.0002 -0.2552
 1473POSM   C2A17278  13.052   6.513  10.706  0.1382  0.3205  0.0762
 1473POSM   C3A17279  12.854   6.646  11.145 -0.2206  0.1643 -0.0683
 1473POSM   C1B17280  13.901   6.142  10.360  0.1846 -0.0211  0.2844
 1473POSM   D2B17281  14.150   6.148  10.725  0.1522 -0.2196 -0.2628
 1473POSM   C3B17282  13.852   6.003  11.071  0.2382 -0.1850 -0.1112
 1473POSM   C4B17283  13.853   6.007  11.558 -0.0786 -0.0252 -0.3277
 1474POSM   NC317284  13.367   7.763   9.320  0.0651  0.2490 -0.2595
 1474POSM   PO417285  13.220   7.661   9.664  0.0064 -0.0726 -0.1365
 1474POSM   AM117286  13.140   7.782   9.955  0.0295  0.1171 -0.2282
 1474POSM   AM217287  12.922   7.978  10.044  0.1989 -0.1843 -0.2652
 1474POSM   T1A17288  13.327   8.064  10.321  0.0853 -0.1464  0.0039
 1474POSM   C2A17289  13.300   8.186  10.738 -0.0670  0.0568  0.1288
 1474POSM   C3A17290  13.082   8.446  11.119  0.0582  0.1393 -0.0962
 1474POSM   C1B17291  12.829   7.923  10.373  0.2635 -0.0132 -0.0860
 1474POSM   D2B17292  12.601   7.887  10.783  0.0393 -0.2136 -0.2095
 1474POSM   C3B17293  12.750   8.020  11.162  0.2429  0.0819 -0.0268
 1474POSM   C4B17294  13.077   7.888  11.542 -0.1584 -0.0596 -0.3183
 1475DOPS   CNO17295  21.324   3.994  10.626  0.0081 -0.0615  0.2719
 1475DOPS   PO417296  21.702   4.035  10.531 -0.1312 -0.3161 -0.0643
 1475DOPS   GL117297  21.672   4.147  10.913 -0.0853  0.0317  0.0887
 1475DOPS   GL217298  21.658   4.431  10.850  0.1705  0.0203  0.2626
 1475DOPS   C1A17299  21.671   4.024  11.328  0.2624 -0.1109  0.1677
 1475DOPS   D2A17300  21.621   3.627  11.480  0.1054  0.1561 -0.0848
 1475DOPS   C3A17301  21.861   3.520  11.876 -0.2908  0.0966  0.1828
 1475DOPS   C4A17302  21.855   3.609  12.356  0.1333 -0.2983  0.0804
 1475DOPS   C1B17303  21.648   4.526  11.295 -0.1334  0.0441  0.2623
 1475DOPS   D2B17304  21.912   4.395  11.680  0.0396 -0.1776  0.0259
 1475DOPS   C3B17305  21.686   4.435  12.090  0.0548  0.2215 -0.0158
 1475DOPS   C4B17306  21.646   4.666  12.481 -0.1444 -0.2943  0.1203
 1476POSM   NC317307  19.258   0.336  10.007 -0.0626  0.2823  0.4530
 1476POSM   PO417308  19.587   0.195  10.123 -0.0592  0.1185 -0.1496
 1476POSM   AM117309  19.622   0.166  10.444  0.2306  0.2314  0.0344
 1476POSM   AM217310  19.436   0.076  10.668 -0.0305 -0.2121 -0.1024
 1476POSM   T1A17311  19.841   0.355  10.787  0.1689  0.3197 -0.3687
 1476POSM   C2A17312  19.814   0.491  11.203 -0.0982  0.0248 -0.0908
 1476POSM   C3A17313  19.429   0.695  11.428 -0.0860 -0.1751 -0.2360
 1476POSM   C1B17314  19.340   0.338  10.949 -0.4436 -0.0570 -0.1145
 1476POSM   D2B17315  19.076   0.628  11.069  0.3241 -0.2341 -0.0348
 1476POSM   C3B17316  18.850   0.735  11.448  0.2613 -0.2632  0.0145
 1476POSM   C4B17317  18.556   1.094  11.535  0.1615 -0.2635  0.2125
 1477DOPE   NH317318  23.358   4.814  10.902 -0.2374 -0.1342 -0.0320
 1477DOPE   PO417319  23.190   5.097  11.024  0.3178 -0.0263  0.1565
 1477DOPE   GL117320  23.058   5.160  11.422 -0.1129  0.0112 -0.2885
 1477DOPE   GL217321  23.157   4.875  11.500  0.0404  0.0086  0.1210
 1477DOPE   C1A17322  22.919   5.409  11.807  0.3444  0.1307 -0.2074
 1477DOPE   D2A17323  22.822   5.859  11.862 -0.3390 -0.1779  0.1822
 1477DOPE   C3A17324  22.629   5.956  11.424 -0.0612 -0.4998 -0.1674
 1477DOPE   C4A17325  22.830   6.158  11.003  0.0577 -0.1978  0.2378
 1477DOPE   C1B17326  23.369   5.184  11.757  0.0231 -0.2752 -0.1897
 1477DOPE   D2B17327  23.351   5.439  12.184 -0.1352 -0.1622 -0.1989
 1477DOPE   C3B17328  22.927   5.291  12.431  0.1040  0.1757 -0.0356
 1477DOPE   C4B17329  22.634   5.368  12.819 -0.2805  0.2617  0.2008
 1478DOPE   NH317330  23.942  10.555  10.252  0.1218 -0.1506 -0.0920
 1478DOPE   PO417331  24.229  10.430  10.367  0.1250  0.3803  0.2349
 1478DOPE   GL117332  24.145  10.527  10.734  0.2904  0.3603 -0.1724
 1478DOPE   GL217333  23.907  10.553  10.766  0.0234 -0.1244 -0.1140
 1478DOPE   C1A17334  24.375  10.335  11.092  0.3526 -0.3183  0.1491
 1478DOPE   D2A17335  24.382  10.482  11.593  0.2113  0.2578 -0.3816
 1478DOPE   C3A17336  24.759  10.741  11.758 -0.3527 -0.2966  0.0269
 1478DOPE   C4A17337  25.147  10.915  11.916 -0.1996 -0.0654  0.0830
 1478DOPE   C1B17338  23.733  10.531  11.176  0.1733 -0.1257 -0.4538
 1478DOPE   D2B17339  23.482  10.549  11.597 -0.0508 -0.1667  0.0148
 1478DOPE   C3B17340  23.933  10.587  11.785 -0.0081 -0.0011  0.2293
 1478DOPE   C4B17341  24.076  10.269  12.073  0.1551 -0.0330  0.1547
 1479DOPE   NH317342  18.315   7.346   9.643  0.5285 -0.1371  0.3400
 1479DOPE   PO417343  18.074   7.548   9.705 -0.0367  0.0302  0.0885
 1479DOPE   GL117344  18.172   7.672  10.117 -0.1903 -0.5694  0.0841
 1479DOPE   GL217345  18.441   7.745  10.029  0.2397 -0.2414  0.2502
 1479DOPE   C1A17346  18.063   8.105  10.219 -0.1352 -0.1618 -0.4564
 1479DOPE   D2A17347  17.870   8.527  10.068 -0.2146  0.1253  0.0912
 1479DOPE   C3A17348  17.830   8.914  10.277  0.2302  0.2405 -0.2215
 1479DOPE   C4A17349  17.716   9.378  10.233 -0.2730 -0.4371  0.0144
 1479DOPE   C1B17350  18.488   7.925  10.442  0.2194  0.1197  0.0004
 1479DOPE   D2B17351  18.319   8.252  10.771  0.2183  0.1234 -0.1941
 1479DOPE   C3B17352  18.202   8.062  11.202 -0.0707  0.2992  0.3422
 1479DOPE   C4B17353  18.160   7.948  11.671 -0.1287 -0.1858 -0.0272
 1480DOPE   NH317354  13.535   3.362  10.146  0.0067  0.2305  0.1171
 1480DOPE   PO417355  13.267   3.503  10.179  0.0352 -0.2770  0.2976
 1480DOPE   GL117356  13.207   3.389  10.546 -0.3650  0.2166  0.0774
 1480DOPE   GL217357  13.021   3.135  10.631  0.2000 -0.0621 -0.1683
 1480DOPE   C1A17358  13.483   3.424  10.897  0.1185 -0.0875 -0.0714
 1480DOPE   D2A17359  13.550   3.501  11.377 -0.2351  0.0843 -0.0800
 1480DOPE   C3A17360  13.814   3.533  11.757  0.2281  0.0106 -0.0592
 1480DOPE   C4A17361  13.951   3.398  12.140  0.2730 -0.0220 -0.1225
 1480DOPE   C1B17362  12.875   3.491  10.883  0.0823 -0.0513 -0.0566
 1480DOPE   D2B17363  12.714   3.590  11.326 -0.3068 -0.2167  0.3259
 1480DOPE   C3B17364  12.667   3.840  11.717 -0.2282  0.0502 -0.2864
 1480DOPE   C4B17365  12.896   3.872  12.106  0.0014  0.2163 -0.0804
 1481POSM   NC317366  12.238   0.713  10.146  0.0585 -0.4111  0.2202
 1481POSM   PO417367  12.373   1.046  10.339 -0.2067 -0.2692 -0.0582
 1481POSM   AM117368  12.517   0.996  10.601  0.1171 -0.5373  0.1436
 1481POSM   AM217369  12.578   1.233  10.773 -0.1189 -0.2281  0.5272
 1481POSM   T1A17370  12.732   0.772  10.970 -0.0698  0.2826 -0.0088
 1481POSM   C2A17371  12.761   0.650  11.381 -0.3689  0.0850 -0.2684
 1481POSM   C3A17372  12.964   0.695  11.788  0.1873  0.0234  0.0020
 1481POSM   C1B17373  12.489   1.289  11.081 -0.1863  0.1179  0.3184
 1481POSM   D2B17374  12.137   1.584  11.254  0.3828  0.1232  0.2132
 1481POSM   C3B17375  11.879   1.204  11.253  0.0168 -0.1672 -0.2600
 1481POSM   C4B17376  11.759   0.778  11.339 -0.0684 -0.1752  0.0157
 1482DOPC   NC317377  20.974   8.120   9.834  0.1432  0.1985  0.0653
 1482DOPC   PO417378  21.278   7.957   9.961  0.1207  0.0379  0.1023
 1482DOPC   GL117379  21.060   7.852  10.332  0.1981  0.4964 -0.0235
 1482DOPC   GL217380  21.219   7.621  10.471 -0.2996 -0.2909 -0.3688
 1482DOPC   C1A17381  20.786   7.930  10.689  0.1525 -0.1779  0.1096
 1482DOPC   D2A17382  20.683   7.691  11.064  0.1998 -0.3206 -0.3489
 1482DOPC   C3A17383  21.000   7.675  11.409  0.0863 -0.3164  0.2944
 1482DOPC   C4A17384  20.904   7.907  11.842  0.2756 -0.2978  0.1400
 1482DOPC   C1B17385  21.187   7.793  10.889  0.0920  0.0489  0.0421
 1482DOPC   D2B17386  21.316   8.084  11.229 -0.0949 -0.0656  0.0141
 1482DOPC   C3B17387  21.105   8.414  11.500  0.0105 -0.1313  0.1050
 1482DOPC   C4B17388  21.085   8.660  11.862 -0.2302  0.1537 -0.1464
 1483DOPC   NC317389  20.328   9.834   9.418  0.0487 -0.0299 -0.0797
 1483DOPC   PO417390  20.182   9.549   9.647 -0.0829  0.0559  0.1017
 1483DOPC   GL117391  19.945   9.596   9.934 -0.0358  0.1361 -0.5389
 1483DOPC   GL217392  19.835   9.336   9.935 -0.2172  0.3324  0.0937
 1483DOPC   C1A17393  19.897   9.414  10.372  0.1036 -0.1552 -0.0746
 1483DOPC   D2A17394  19.916   9.568  10.799 -0.2749  0.0316 -0.0542
 1483DOPC   C3A17395  19.639   9.560  11.151  0.1412  0.1372 -0.0542
 1483DOPC   C4A17396  19.266   9.672  11.446  0.2385  0.0486  0.0000
 1483DOPC   C1B17397  19.723   8.946  10.094 -0.0677  0.0829  0.0005
 1483DOPC   D2B17398  19.900   8.623  10.319  0.0106  0.1044 -0.1688
 1483DOPC   C3B17399  19.550   8.654  10.660  0.1149 -0.1667  0.0564
 1483DOPC   C4B17400  19.150   8.577  10.876  0.1885 -0.0502  0.1202
 1484POSM   NC317401  12.143   4.511  10.390  0.1296 -0.1410  0.2224
 1484POSM   PO417402  12.291   4.182  10.593 -0.3318  0.2197  0.4180
 1484POSM   AM117403  12.494   4.387  10.776 -0.3399 -0.4007 -0.1461
 1484POSM   AM217404  12.660   4.579  10.689  0.1393 -0.1187  0.0588
 1484POSM   T1A17405  12.431   4.685  11.209 -0.1172 -0.3652 -0.2005
 1484POSM   C2A17406  12.104   4.791  11.542 -0.2449  0.0333 -0.4054
 1484POSM   C3A17407  12.188   4.752  11.965 -0.0744 -0.4597 -0.2595
 1484POSM   C1B17408  12.792   4.780  10.900  0.0887 -0.0340 -0.2953
 1484POSM   D2B17409  12.994   5.224  11.080  0.1775 -0.4568 -0.0982
 1484POSM   C3B17410  12.964   5.236  11.533  0.0203  0.0306 -0.1224
 1484POSM   C4B17411  13.096   4.957  11.824  0.1256 -0.1938 -0.0807
 1485POSM   NC317412  20.089   7.650   9.857 -0.0459  0.1952  0.2160
 1485POSM   PO417413  20.502   7.542   9.884  0.0273 -0.1028 -0.1843
 1485POSM   AM117414  20.607   7.566  10.180  0.2793 -0.4659 -0.1243
 1485POSM   AM217415  20.734   7.498  10.388  0.2451 -0.0664 -0.1541
 1485POSM   T1A17416  20.373   7.515  10.667  0.2674 -0.0380  0.3088
 1485POSM   C2A17417  20.175   7.532  11.062 -0.0521 -0.2300  0.0390
 1485POSM   C3A17418  19.991   7.637  11.454 -0.0124 -0.0144 -0.2536
 1485POSM   C1B17419  20.837   7.407  10.669 -0.3260  0.2194  0.0696
 1485POSM   D2B17420  21.086   7.269  11.034  0.3077  0.0802  0.0706
 1485POSM   C3B17421  21.432   7.014  11.175 -0.0031  0.0205  0.1693
 1485POSM   C4B17422  21.517   6.675  11.468  0.0751  0.0229  0.0412
 1486DOPS   CNO17423  20.964   2.553  10.029  0.1495 -0.0106 -0.1847
 1486DOPS   PO417424  20.805   2.876  10.179 -0.1051 -0.1108  0.0670
 1486DOPS   GL117425  20.936   2.678  10.506 -0.3089 -0.1537 -0.0109
 1486DOPS   GL217426  21.057   2.881  10.678 -0.0823 -0.1368 -0.0285
 1486DOPS   C1A17427  20.762   2.513  10.922 -0.0817  0.0358 -0.2420
 1486DOPS   D2A17428  20.594   2.817  11.258 -0.0527 -0.1402  0.0860
 1486DOPS   C3A17429  20.246   3.083  11.396  0.1042  0.1297  0.0927
 1486DOPS   C4A17430  19.852   3.290  11.410 -0.0281 -0.0838  0.0494
 1486DOPS   C1B17431  20.807   3.189  10.917 -0.3379 -0.5385  0.2463
 1486DOPS   D2B17432  20.711   3.408  11.254  0.2174  0.0707  0.1331
 1486DOPS   C3B17433  21.095   3.490  11.506 -0.1911  0.0401 -0.0431
 1486DOPS   C4B17434  21.253   3.556  11.955  0.3132  0.0108 -0.1149
 1487DOPE   NH317435  18.459   9.811   9.175 -0.1547 -0.0696 -0.3166
 1487DOPE   PO417436  18.217   9.602   9.295 -0.0576 -0.1491  0.0495
 1487DOPE   GL117437  18.028   9.765   9.700  0.1048 -0.1325  0.2761
 1487DOPE   GL217438  18.168   9.688  10.015  0.1925 -0.0700  0.3447
 1487DOPE   C1A17439  17.870  10.087  10.006 -0.1124 -0.1510  0.2884
 1487DOPE   D2A17440  17.675  10.300  10.392  0.1654  0.0305  0.2710
 1487DOPE   C3A17441  17.735  10.042  10.777  0.0435  0.2017 -0.2819
 1487DOPE   C4A17442  17.745   9.776  11.181  0.3041  0.2309  0.1698
 1487DOPE   C1B17443  18.104   9.850  10.422 -0.0681  0.0530  0.2449
 1487DOPE   D2B17444  18.238  10.062  10.814 -0.1639  0.2097 -0.2496
 1487DOPE   C3B17445  18.031  10.414  10.832  0.2666  0.2569  0.3638
 1487DOPE   C4B17446  18.013  10.851  10.887  0.1228 -0.0732 -0.1333
 1488DOPC   NC317447  13.675   2.641  10.330  0.2708 -0.3445  0.0231
 1488DOPC   PO417448  13.826   2.935  10.164 -0.1053  0.1523 -0.1138
 1488DOPC   GL117449  14.030   2.921  10.547  0.6114  0.0042 -0.3329
 1488DOPC   GL217450  14.310   2.789  10.568 -0.0100  0.2667 -0.1053
 1488DOPC   C1A17451  13.871   3.105  10.953  0.1676 -0.2607  0.1709
 1488DOPC   D2A17452  13.824   3.041  11.441 -0.3768 -0.0954  0.1507
 1488DOPC   C3A17453  13.472   3.064  11.745 -0.4945 -0.4495 -0.1354
 1488DOPC   C4A17454  13.274   3.468  11.821  0.1110 -0.0746 -0.0603
 1488DOPC   C1B17455  14.374   3.048  10.918 -0.0373 -0.1657  0.1009
 1488DOPC   D2B17456  14.224   3.305  11.315  0.1789  0.0677  0.2729
 1488DOPC   C3B17457  14.171   3.139  11.758  0.1572  0.1348  0.1065
 1488DOPC   C4B17458  14.555   2.822  11.787 -0.0160  0.0780  0.2178
 1489DOPC   NC317459  15.819   8.938   9.974  0.0748  0.1180  0.0334
 1489DOPC   PO417460  16.111   8.638   9.973  0.0808 -0.2819 -0.0195
 1489DOPC   GL117461  16.101   8.334  10.316 -0.1298 -0.3918  0.3904
 1489DOPC   GL217462  16.265   8.456  10.486  0.3556  0.0354  0.1982
 1489DOPC   C1A17463  15.798   8.342  10.687  0.3369 -0.1336  0.1041
 1489DOPC   D2A17464  15.648   8.481  11.172 -0.0316  0.0704 -0.3374
 1489DOPC   C3A17465  15.290   8.448  11.407 -0.1265  0.4356  0.0053
 1489DOPC   C4A17466  14.866   8.391  11.197 -0.2934  0.0417  0.1531
 1489DOPC   C1B17467  16.555   8.632  10.790  0.1173  0.1002  0.1866
 1489DOPC   D2B17468  16.426   8.825  11.212 -0.1832 -0.1093 -0.0885
 1489DOPC   C3B17469  15.967   8.851  11.354  0.1053 -0.1882  0.1597
 1489DOPC   C4B17470  15.616   9.110  11.333  0.0217 -0.1644 -0.1386
 1490DOPC   NC317471  17.614  10.864   9.270  0.1943 -0.2322  0.1384
 1490DOPC   PO417472  17.234  10.744   9.204  0.0258  0.0679 -0.1237
 1490DOPC   GL117473  17.116  10.825   9.548 -0.1379 -0.0372 -0.0992
 1490DOPC   GL217474  17.388  10.889   9.690 -0.0367  0.1989 -0.1168
 1490DOPC   C1A17475  16.983  10.787   9.973  0.1248 -0.1329 -0.0055
 1490DOPC   D2A17476  17.097  10.619  10.435  0.0107 -0.1440  0.2389
 1490DOPC   C3A17477  16.823  10.569  10.807 -0.1504 -0.0182  0.0127
 1490DOPC   C4A17478  16.579  10.794  11.106  0.1090  0.1557 -0.0275
 1490DOPC   C1B17479  17.499  11.260   9.917  0.0772  0.0419  0.0738
 1490DOPC   D2B17480  17.377  11.654  10.218 -0.1589  0.0818  0.0326
 1490DOPC   C3B17481  16.981  11.887  10.299 -0.3991 -0.0558 -0.2676
 1490DOPC   C4B17482  16.615  11.982  10.551 -0.2113  0.3774  0.3663
 1491DOPE   NH317483  19.040   2.680   9.894 -0.2350  0.1901  0.2128
 1491DOPE   PO417484  19.215   2.680  10.144  0.1166 -0.0095 -0.1418
 1491DOPE   GL117485  19.210   2.840  10.509  0.1915 -0.1325  0.1301
 1491DOPE   GL217486  19.470   2.788  10.597  0.0118  0.0441  0.1733
 1491DOPE   C1A17487  19.233   3.193  10.770  0.4824  0.0062 -0.2578
 1491DOPE   D2A17488  19.236   2.990  11.186 -0.3475 -0.4210  0.1980
 1491DOPE   C3A17489  19.326   3.280  11.471 -0.0853 -0.0060 -0.1609
 1491DOPE   C4A17490  19.550   3.606  11.775 -0.0385 -0.2354  0.1004
 1491DOPE   C1B17491  19.467   2.600  11.009 -0.0204  0.0533 -0.3154
 1491DOPE   D2B17492  19.526   2.472  11.447 -0.0119  0.1625  0.1253
 1491DOPE   C3B17493  19.215   2.446  11.848 -0.1192 -0.2443 -0.0958
 1491DOPE   C4B17494  19.005   2.180  12.157 -0.3145  0.2902  0.2066
 1492DOPC   NC317495  22.718   7.070   9.739  0.0038 -0.1005  0.3328
 1492DOPC   PO417496  22.744   6.970  10.115  0.0517 -0.0665  0.0637
 1492DOPC   GL117497  22.906   6.900  10.505 -0.0096  0.1916  0.1024
 1492DOPC   GL217498  22.751   7.060  10.592  0.2995  0.0056  0.2943
 1492DOPC   C1A17499  22.965   6.694  10.919  0.1650  0.1977  0.1173
 1492DOPC   D2A17500  22.932   6.547  11.354 -0.0439  0.2425 -0.1074
 1492DOPC   C3A17501  23.254   6.757  11.668 -0.0647 -0.0662 -0.1917
 1492DOPC   C4A17502  23.266   7.121  11.897 -0.2159 -0.1170  0.3879
 1492DOPC   C1B17503  22.897   7.149  11.041  0.1365 -0.0196  0.1141
 1492DOPC   D2B17504  22.948   7.120  11.476  0.1028  0.1894  0.0654
 1492DOPC   C3B17505  22.719   7.485  11.637 -0.2282  0.2636 -0.1187
 1492DOPC   C4B17506  22.262   7.603  11.650  0.0431  0.1811  0.1027
 1493POSM   NC317507  10.595   2.497  10.801  0.3800  0.0498 -0.0245
 1493POSM   PO417508  10.801   2.177  10.746 -0.1599  0.1925 -0.2350
 1493POSM   AM117509  10.852   2.116  11.076  0.0518 -0.2493 -0.0475
 1493POSM   AM217510  10.951   1.939  11.233 -0.1690  0.2701 -0.2471
 1493POSM   T1A17511  10.614   2.197  11.541  0.1342 -0.0144 -0.0034
 1493POSM   C2A17512  10.445   2.190  11.923  0.0939 -0.1215  0.0523
 1493POSM   C3A17513  10.095   2.265  12.213  0.3644 -0.0380 -0.3254
 1493POSM   C1B17514  11.100   2.170  11.492 -0.1544  0.0616  0.0738
 1493POSM   D2B17515  11.145   2.561  11.694 -0.2133 -0.0775  0.0395
 1493POSM   C3B17516  10.975   2.384  12.144 -0.0317  0.1022 -0.1111
 1493POSM   C4B17517  10.593   2.347  12.374  0.3594 -0.2571  0.0130
 1494DOPS   CNO17518  12.630  33.023  10.009 -0.0982  0.6351  0.0258
 1494DOPS   PO417519  12.894  33.078  10.231 -0.3440  0.0300 -0.1019
 1494DOPS   GL117520  12.829  33.239  10.597 -0.2891  0.2510  0.0322
 1494DOPS   GL217521  13.029  33.210  10.754 -0.0970  0.1330  0.2249
 1494DOPS   C1A17522  12.569  33.197  10.971  0.3321 -0.1024  0.0187
 1494DOPS   D2A17523  12.428  33.234  11.452 -0.1549  0.2952 -0.0465
 1494DOPS   C3A17524  12.049  33.106  11.683  0.3740 -0.4184 -0.1058
 1494DOPS   C4A17525  11.740  32.986  12.031  0.0072  0.0826  0.0377
 1494DOPS   C1B17526  13.001  33.346  11.191  0.1473 -0.0858 -0.0702
 1494DOPS   D2B17527  12.774  33.583  11.519  0.1179  0.0640 -0.0621
 1494DOPS   C3B17528  12.998  33.890  11.840  0.0458  0.2832  0.0377
 1494DOPS   C4B17529  12.904  34.048  12.245  0.4427  0.0444 -0.0878
 1495DOPE   NH317530  12.555   7.776   9.739  0.0429 -0.1991 -0.3046
 1495DOPE   PO417531  12.220   7.840   9.698 -0.0160  0.1162 -0.0240
 1495DOPE   GL117532  12.395   7.981  10.087 -0.2724  0.0234 -0.0571
 1495DOPE   GL217533  12.460   8.256  10.037 -0.2401 -0.0991  0.1011
 1495DOPE   C1A17534  12.185   7.922  10.523  0.0604 -0.0873  0.2322
 1495DOPE   D2A17535  12.152   8.196  10.901 -0.1855 -0.1191  0.0100
 1495DOPE   C3A17536  12.254   8.037  11.333 -0.2281 -0.0626 -0.0920
 1495DOPE   C4A17537  12.142   7.899  11.730 -0.0279 -0.0863 -0.1890
 1495DOPE   C1B17538  12.408   8.643  10.172  0.1200  0.1452  0.0559
 1495DOPE   D2B17539  12.714   8.876  10.414 -0.1748  0.1921 -0.2371
 1495DOPE   C3B17540  13.031   8.730  10.684  0.1482  0.1936  0.0273
 1495DOPE   C4B17541  13.527   8.657  10.813 -0.0318 -0.0436  0.0157
 1496POSM   NC317542   8.807   1.579  10.667 -0.3138  0.0602 -0.0823
 1496POSM   PO417543   8.444   1.360  10.659 -0.1803 -0.1284 -0.2429
 1496POSM   AM117544   8.312   1.407  10.958 -0.1689  0.4443 -0.1486
 1496POSM   AM217545   8.389   1.542  11.191  0.1592  0.3394 -0.2155
 1496POSM   T1A17546   8.063   1.234  11.351  0.0220  0.1877 -0.0223
 1496POSM   C2A17547   7.883   0.932  11.642  0.0249  0.3006  0.0680
 1496POSM   C3A17548   7.845   0.627  11.945  0.3629 -0.1091  0.1359
 1496POSM   C1B17549   8.380   1.562  11.521  0.1598 -0.0109  0.2261
 1496POSM   D2B17550   8.063   1.477  11.841  0.2471  0.1207 -0.1199
 1496POSM   C3B17551   8.140   1.508  12.264  0.0567  0.1036 -0.2036
 1496POSM   C4B17552   8.406   1.806  12.482  0.1792  0.2667 -0.1722
 1497DOPC   NC317553  15.319   4.700  10.000  0.0439 -0.0124 -0.1356
 1497DOPC   PO417554  14.924   4.706  10.119 -0.0329  0.0762  0.0007
 1497DOPC   GL117555  15.100   4.844  10.420 -0.0137  0.0536 -0.2140
 1497DOPC   GL217556  15.237   4.608  10.517 -0.0768 -0.1015 -0.1812
 1497DOPC   C1A17557  15.265   5.066  10.773 -0.2415  0.0929 -0.2584
 1497DOPC   D2A17558  15.421   5.113  11.197  0.1324 -0.1270 -0.0313
 1497DOPC   C3A17559  15.844   5.002  11.287  0.2945  0.1890  0.0734
 1497DOPC   C4A17560  16.194   4.855  11.024 -0.1366  0.3760  0.1389
 1497DOPC   C1B17561  15.243   4.341  10.871 -0.0936  0.0800 -0.0068
 1497DOPC   D2B17562  15.274   4.052  11.270 -0.1579  0.0659  0.0420
 1497DOPC   C3B17563  15.357   4.058  11.699 -0.0528 -0.2152  0.0506
 1497DOPC   C4B17564  15.414   3.883  12.138  0.4036 -0.1443 -0.3061
 1498DOPS   CNO17565  15.305   1.092  10.226 -0.1554  0.1830 -0.1253
 1498DOPS   PO417566  15.498   0.782  10.107  0.1273  0.0875 -0.0894
 1498DOPS   GL117567  15.469   0.723  10.565 -0.0620  0.1808 -0.3262
 1498DOPS   GL217568  15.569   0.451  10.638  0.0086  0.0886 -0.1768
 1498DOPS   C1A17569  15.278   0.575  10.988  0.1002  0.4644 -0.2135
 1498DOPS   D2A17570  15.177   0.655  11.465 -0.0590  0.1041 -0.1172
 1498DOPS   C3A17571  15.439   0.803  11.802 -0.0467 -0.2778 -0.4156
 1498DOPS   C4A17572  15.519   0.527  12.157 -0.0061 -0.0758  0.1313
 1498DOPS   C1B17573  15.579   0.178  11.046  0.0411 -0.2064 -0.0572
 1498DOPS   D2B17574  15.570   0.101  11.478 -0.1788  0.1828 -0.0168
 1498DOPS   C3B17575  15.351  -0.251  11.733  0.1428  0.2332 -0.0946
 1498DOPS   C4B17576  15.077  -0.448  12.081 -0.1796 -0.0216 -0.2925
 1499DOPC   NC317577  13.602   4.280   9.487  0.0936 -0.0897 -0.1083
 1499DOPC   PO417578  13.530   4.551   9.781  0.0199 -0.0516 -0.2566
 1499DOPC   GL117579  13.822   4.614  10.102 -0.0606 -0.1843  0.0167
 1499DOPC   GL217580  13.948   4.400  10.246  0.1636  0.0505  0.0183
 1499DOPC   C1A17581  13.776   4.818  10.498 -0.2215  0.0871 -0.1156
 1499DOPC   D2A17582  14.016   4.916  10.874  0.0544  0.2714  0.0437
 1499DOPC   C3A17583  14.061   4.792  11.319  0.1162 -0.0263  0.0747
 1499DOPC   C4A17584  14.100   4.796  11.765  0.1161 -0.4788 -0.3463
 1499DOPC   C1B17585  14.257   4.540  10.591 -0.3536  0.1153  0.0834
 1499DOPC   D2B17586  14.394   4.578  11.017  0.2340  0.0449 -0.1505
 1499DOPC   C3B17587  14.624   4.197  11.108  0.1366  0.1672  0.2339
 1499DOPC   C4B17588  14.846   4.138  11.461 -0.0082  0.1670  0.0960
 1500DOPC   NC317589  15.930   6.475  10.041 -0.1153  0.0853 -0.4964
 1500DOPC   PO417590  16.267   6.599  10.092 -0.2144 -0.2103  0.2427
 1500DOPC   GL117591  16.325   6.726  10.501 -0.7116  0.5758 -0.3432
 1500DOPC   GL217592  16.533   6.749  10.563  0.1085  0.0582 -0.1545
 1500DOPC   C1A17593  16.045   6.714  10.811  0.0116  0.1499 -0.0470
 1500DOPC   D2A17594  15.762   6.755  11.200  0.0695  0.1034  0.0412
 1500DOPC   C3A17595  15.358   7.027  11.154  0.0396  0.2102  0.1329
 1500DOPC   C4A17596  14.932   7.050  11.332  0.1864  0.0478  0.0816
 1500DOPC   C1B17597  16.479   6.440  10.905 -0.0372  0.2143 -0.2521
 1500DOPC   D2B17598  16.098   6.306  11.060 -0.2120  0.2692  0.0652
 1500DOPC   C3B17599  15.837   6.289  11.436  0.2544  0.1835 -0.1071
 1500DOPC   C4B17600  15.610   6.626  11.633  0.0706  0.0165  0.3519
 1501DOPE   NH317601  18.189   3.277  10.171  0.0889  0.1582  0.0709
 1501DOPE   PO417602  18.220   3.572  10.196  0.1612 -0.1470  0.1203
 1501DOPE   GL117603  18.241   3.573  10.591 -0.3550  0.1659 -0.0830
 1501DOPE   GL217604  18.000   3.735  10.638 -0.2327 -0.2308  0.0276
 1501DOPE   C1A17605  18.307   3.539  11.030 -0.4842  0.1924 -0.2253
 1501DOPE   D2A17606  18.413   3.485  11.513  0.1192 -0.1245 -0.3875
 1501DOPE   C3A17607  18.781   3.335  11.800 -0.1241 -0.1851 -0.1912
 1501DOPE   C4A17608  19.210   3.282  11.934  0.0080  0.0276  0.1498
 1501DOPE   C1B17609  17.898   3.881  11.071  0.2238  0.1117  0.0053
 1501DOPE   D2B17610  17.550   3.802  11.414 -0.2270  0.1698 -0.2317
 1501DOPE   C3B17611  17.678   3.938  11.837 -0.1668  0.1004  0.1529
 1501DOPE   C4B17612  18.104   4.066  12.026 -0.0656  0.0360 -0.1829
 1502DOPC   NC317613  14.206   2.570  10.105 -0.0358 -0.0837 -0.3936
 1502DOPC   PO417614  14.596   2.651  10.176 -0.1901 -0.3164  0.1703
 1502DOPC   GL117615  14.522   2.398  10.507 -0.0304 -0.3253  0.0359
 1502DOPC   GL217616  14.417   2.178  10.458 -0.0822  0.0758 -0.3128
 1502DOPC   C1A17617  14.561   2.550  10.983 -0.0503 -0.0898 -0.0204
 1502DOPC   D2A17618  14.763   2.466  11.413  0.2534 -0.0092 -0.0436
 1502DOPC   C3A17619  14.405   2.253  11.596 -0.0137 -0.0471  0.2672
 1502DOPC   C4A17620  14.103   2.085  11.926  0.4104  0.0956 -0.1009
 1502DOPC   C1B17621  14.077   2.383  10.751 -0.1538  0.0272 -0.0235
 1502DOPC   D2B17622  13.833   2.609  11.118  0.0619  0.1159 -0.1532
 1502DOPC   C3B17623  13.525   2.468  11.429 -0.0525  0.0037 -0.6344
 1502DOPC   C4B17624  13.153   2.716  11.566 -0.0927  0.1818  0.0891
 1503DOPC   NC317625  23.160  13.550   9.608 -0.1137 -0.1026 -0.1446
 1503DOPC   PO417626  22.866  13.735   9.428 -0.2616 -0.2226  0.0903
 1503DOPC   GL117627  22.693  13.510   9.717 -0.4685  0.0914  0.1350
 1503DOPC   GL217628  22.766  13.211   9.718 -0.0837  0.1286  0.0518
 1503DOPC   C1A17629  22.311  13.276   9.901 -0.0622 -0.1446 -0.0220
 1503DOPC   D2A17630  21.980  13.248  10.193  0.1232 -0.1648 -0.2462
 1503DOPC   C3A17631  21.932  12.919  10.458  0.0578  0.2669  0.4374
 1503DOPC   C4A17632  21.538  12.710  10.459  0.2325 -0.3216  0.0722
 1503DOPC   C1B17633  22.929  13.030  10.119 -0.1179  0.2018  0.2948
 1503DOPC   D2B17634  23.005  13.097  10.558 -0.2469  0.5319 -0.3733
 1503DOPC   C3B17635  23.029  13.149  11.036  0.1583  0.0849  0.3023
 1503DOPC   C4B17636  22.763  12.990  11.423 -0.0070  0.1379 -0.2913
 1504POSM   NC317637  17.415  11.388   8.294  0.0638 -0.0925 -0.2823
 1504POSM   PO417638  17.178  11.420   8.615  0.0194 -0.0319  0.1146
 1504POSM   AM117639  17.182  11.365   8.953  0.1993 -0.1009 -0.0891
 1504POSM   AM217640  17.377  11.313   9.134  0.1131  0.1722  0.0911
 1504POSM   T1A17641  17.025  11.322   9.416 -0.0705  0.0350  0.1612
 1504POSM   C2A17642  16.647  11.127   9.667 -0.1396 -0.0171  0.0324
 1504POSM   C3A17643  16.393  11.174  10.035  0.0974  0.0645 -0.1942
 1504POSM   C1B17644  17.517  11.407   9.446  0.1482  0.2398 -0.1140
 1504POSM   D2B17645  17.684  11.728   9.691 -0.1418 -0.0652 -0.3184
 1504POSM   C3B17646  17.878  11.659  10.116  0.1265 -0.1134 -0.1632
 1504POSM   C4B17647  18.179  11.814  10.429 -0.1894  0.1332 -0.0474
 1505DOPE   NH317648  16.121   5.003  10.354 -0.0114  0.0781  0.3780
 1505DOPE   PO417649  16.464   4.986  10.256 -0.2548  0.2005  0.0656
 1505DOPE   GL117650  16.594   4.988  10.650  0.5592 -0.2071 -0.3522
 1505DOPE   GL217651  16.769   4.796  10.599  0.2326  0.3312 -0.2006
 1505DOPE   C1A17652  16.755   5.161  11.049 -0.2918 -0.0256  0.3302
 1505DOPE   D2A17653  16.696   5.510  11.345  0.0832 -0.1337  0.0400
 1505DOPE   C3A17654  16.698   5.998  11.336  0.1148  0.0452  0.1479
 1505DOPE   C4A17655  16.861   6.411  11.247  0.1668  0.3867 -0.1020
 1505DOPE   C1B17656  17.127   5.069  10.716 -0.2280  0.0491  0.2338
 1505DOPE   D2B17657  17.539   5.020  10.827 -0.1168 -0.2424  0.1754
 1505DOPE   C3B17658  17.655   4.698  11.118 -0.2521  0.0619 -0.1623
 1505DOPE   C4B17659  18.011   4.438  11.106  0.3310  0.3137  0.2655
 1506DOPS   CNO17660  17.601   6.694  10.338 -0.1828 -0.0132 -0.3109
 1506DOPS   PO417661  17.393   6.603  10.028  0.1889  0.0523  0.2189
 1506DOPS   GL117662  17.151   6.913  10.249 -0.2761  0.0200  0.1665
 1506DOPS   GL217663  17.150   6.778  10.531 -0.2957  0.2054 -0.3271
 1506DOPS   C1A17664  17.394   7.215  10.533 -0.2407  0.0109  0.1479
 1506DOPS   D2A17665  17.637   7.489  10.808 -0.3492  0.1586  0.1524
 1506DOPS   C3A17666  17.608   7.315  11.203 -0.0296  0.3806  0.0274
 1506DOPS   C4A17667  17.512   7.221  11.671 -0.2502 -0.0267 -0.2873
 1506DOPS   C1B17668  16.931   6.775  10.940 -0.4480  0.1426 -0.0769
 1506DOPS   D2B17669  16.641   6.873  11.271 -0.0416  0.0645 -0.1104
 1506DOPS   C3B17670  16.784   6.704  11.618 -0.1848 -0.0056  0.2102
 1506DOPS   C4B17671  16.682   6.327  11.794  0.1285 -0.0770 -0.0642
 1507DOPC   NC317672  15.858   8.991   9.084 -0.0386 -0.1064 -0.0651
 1507DOPC   PO417673  15.520   9.174   9.254  0.0023 -0.1083 -0.1085
 1507DOPC   GL117674  15.445   9.425   9.531 -0.2219  0.0851  0.0070
 1507DOPC   GL217675  15.618   9.390   9.713 -0.2658  0.0558  0.4218
 1507DOPC   C1A17676  15.323   9.814   9.808 -0.2482 -0.2975  0.0987
 1507DOPC   D2A17677  15.478   9.984  10.203  0.3437 -0.2383 -0.1300
 1507DOPC   C3A17678  15.848  10.278  10.125 -0.0400 -0.1288 -0.1567
 1507DOPC   C4A17679  16.088  10.624  10.272 -0.1650  0.1043  0.3465
 1507DOPC   C1B17680  15.612   9.491  10.124 -0.1105 -0.1827 -0.2642
 1507DOPC   D2B17681  15.635   9.446  10.581 -0.1230 -0.0910 -0.2105
 1507DOPC   C3B17682  15.878   9.308  10.934  0.1615  0.1117  0.4638
 1507DOPC   C4B17683  16.118   8.950  10.865 -0.0585  0.3278 -0.1373
 1508DOPE   NH317684  13.008   3.755   9.786  0.0506  0.0805  0.2540
 1508DOPE   PO417685  12.854   3.867  10.047 -0.0237  0.1718  0.0015
 1508DOPE   GL117686  13.152   4.033  10.271  0.2410  0.1508 -0.1974
 1508DOPE   GL217687  13.249   3.854  10.529  0.3488 -0.1200 -0.1993
 1508DOPE   C1A17688  13.096   4.325  10.653  0.1363 -0.1749  0.3342
 1508DOPE   D2A17689  13.221   4.374  11.141 -0.0591 -0.3016 -0.0192
 1508DOPE   C3A17690  12.902   4.433  11.361  0.1850 -0.0109 -0.0812
 1508DOPE   C4A17691  12.635   4.753  11.635 -0.1497  0.3794  0.0862
 1508DOPE   C1B17692  13.315   3.885  10.994 -0.0648 -0.1733 -0.0315
 1508DOPE   D2B17693  13.167   3.750  11.409  0.3336  0.1948 -0.0344
 1508DOPE   C3B17694  13.393   3.970  11.787 -0.1810  0.3074 -0.0306
 1508DOPE   C4B17695  13.412   4.225  12.205  0.1338  0.1585  0.0135
 1509DOPE   NH317696  17.826   5.387  10.183 -0.3658 -0.0696 -0.2088
 1509DOPE   PO417697  17.718   5.151  10.344 -0.3217  0.1872  0.0818
 1509DOPE   GL117698  17.630   5.468  10.597 -0.2199  0.0134 -0.1528
 1509DOPE   GL217699  17.305   5.537  10.606 -0.0417  0.0798 -0.2215
 1509DOPE   C1A17700  17.635   5.765  10.918  0.0040  0.3702 -0.2821
 1509DOPE   D2A17701  17.666   6.125  11.188 -0.0130  0.2662  0.1845
 1509DOPE   C3A17702  17.703   6.085  11.672  0.2493 -0.0100 -0.4101
 1509DOPE   C4A17703  17.615   6.157  12.103 -0.2430  0.2926  0.0861
 1509DOPE   C1B17704  17.263   5.412  11.030  0.1932  0.1524  0.2384
 1509DOPE   D2B17705  17.259   5.049  11.289 -0.3552 -0.0086  0.0956
 1509DOPE   C3B17706  16.835   4.981  11.521  0.0297  0.3516  0.1004
 1509DOPE   C4B17707  16.569   4.751  11.838  0.1168 -0.1059  0.1918
 1510POSM   NC317708  20.759   8.855   9.231 -0.1110 -0.3069  0.3694
 1510POSM   PO417709  20.501   8.776   9.525  0.2118  0.0174  0.2417
 1510POSM   AM117710  20.548   8.989   9.810 -0.2067  0.2785 -0.0714
 1510POSM   AM217711  20.359   9.150   9.900  0.2482 -0.0325 -0.2206
 1510POSM   T1A17712  20.677   9.259  10.215 -0.0799 -0.4630 -0.1490
 1510POSM   C2A17713  20.883   9.280  10.618 -0.2429  0.0100 -0.0133
 1510POSM   C3A17714  21.023   9.537  10.942  0.0507  0.2856  0.1179
 1510POSM   C1B17715  20.250   8.996  10.250 -0.1356  0.1041  0.0840
 1510POSM   D2B17716  19.968   8.979  10.662 -0.0271 -0.0330 -0.1284
 1510POSM   C3B17717  20.125   9.044  11.101 -0.2180  0.1969 -0.1705
 1510POSM   C4B17718  19.961   8.819  11.464  0.0499 -0.0396 -0.2226
 1511POSM   NC317719  23.359   9.270   9.493 -0.0669  0.0306 -0.2093
 1511POSM   PO417720  23.103   9.458   9.789 -0.1820  0.0828 -0.2575
 1511POSM   AM117721  23.018   9.588  10.081 -0.0231  0.2532  0.5698
 1511POSM   AM217722  22.818   9.698  10.208 -0.0778  0.0619 -0.2736
 1511POSM   T1A17723  23.137   9.398  10.526 -0.0830  0.2633 -0.1593
 1511POSM   C2A17724  22.845   9.365  10.888  0.2822  0.0408  0.0286
 1511POSM   C3A17725  22.680   9.229  11.306  0.0459 -0.0089 -0.1177
 1511POSM   C1B17726  22.753   9.728  10.503 -0.3366  0.0109  0.2764
 1511POSM   D2B17727  22.670   9.831  10.965  0.3392 -0.0614 -0.2010
 1511POSM   C3B17728  22.253   9.953  11.210 -0.0990  0.0058  0.0854
 1511POSM   C4B17729  21.851   9.877  11.450  0.0494 -0.2342  0.0237
 1512DOPC   NC317730   9.129   4.994  10.407  0.1265  0.0764 -0.2195
 1512DOPC   PO417731   9.334   4.857  10.718  0.1056 -0.1958  0.1908
 1512DOPC   GL117732   9.331   5.076  11.031 -0.2698 -0.2232  0.0766
 1512DOPC   GL217733   9.070   5.058  11.134 -0.1702 -0.1104 -0.1024
 1512DOPC   C1A17734   9.564   5.000  11.438 -0.1825  0.1822  0.0446
 1512DOPC   D2A17735   9.798   5.253  11.730  0.4779 -0.1199 -0.1926
 1512DOPC   C3A17736   9.749   5.433  12.197 -0.1226  0.0618  0.0364
 1512DOPC   C4A17737   9.547   5.442  12.622  0.0351 -0.2659 -0.0221
 1512DOPC   C1B17738   8.791   5.458  11.254 -0.0898  0.0095 -0.0224
 1512DOPC   D2B17739   8.808   5.807  11.620  0.0761  0.1787  0.1025
 1512DOPC   C3B17740   9.136   5.676  11.858  0.0650  0.1355  0.4330
 1512DOPC   C4B17741   9.224   5.421  12.182 -0.1384  0.3430 -0.0136
 1513DOPC   NC317742  16.023  10.588   8.805 -0.1135  0.0710 -0.1326
 1513DOPC   PO417743  15.678  10.754   8.722 -0.0139 -0.3284  0.1592
 1513DOPC   GL117744  15.708  10.980   9.016 -0.1915 -0.0111  0.1750
 1513DOPC   GL217745  15.669  10.716   9.241  0.0075  0.2201 -0.0192
 1513DOPC   C1A17746  15.690  11.143   9.533 -0.1249  0.0111 -0.1423
 1513DOPC   D2A17747  15.660  11.475   9.836 -0.1080 -0.0488 -0.1391
 1513DOPC   C3A17748  15.987  11.498  10.189 -0.0411 -0.1416 -0.2294
 1513DOPC   C4A17749  16.275  11.206  10.480  0.2259  0.1485  0.1127
 1513DOPC   C1B17750  15.343  10.749   9.623 -0.1296  0.0853 -0.0522
 1513DOPC   D2B17751  15.430  11.016  10.044  0.0194 -0.1433 -0.1629
 1513DOPC   C3B17752  15.322  11.205  10.407  0.0060 -0.0440 -0.1776
 1513DOPC   C4B17753  15.340  11.306  10.817 -0.0326 -0.1513 -0.0075
 1514DOPC   NC317754  17.753   7.065  10.067 -0.2948 -0.1186 -0.1289
 1514DOPC   PO417755  18.136   7.228  10.068 -0.0544 -0.0149  0.1339
 1514DOPC   GL117756  18.248   7.299  10.435  0.1813 -0.2652 -0.0272
 1514DOPC   GL217757  18.548   7.375  10.523 -0.3978 -0.0350  0.0665
 1514DOPC   C1A17758  17.849   7.095  10.649 -0.4717 -0.2349 -0.3262
 1514DOPC   D2A17759  17.526   6.901  10.946  0.0126  0.1785  0.0836
 1514DOPC   C3A17760  17.700   6.803  11.382  0.2860 -0.1831  0.2524
 1514DOPC   C4A17761  17.677   6.667  11.796 -0.2656  0.0223 -0.1537
 1514DOPC   C1B17762  18.535   7.214  10.932  0.0027  0.0999 -0.0415
 1514DOPC   D2B17763  18.671   6.816  11.154 -0.0208 -0.1842 -0.2336
 1514DOPC   C3B17764  18.642   6.910  11.678 -0.2209  0.1430  0.1112
 1514DOPC   C4B17765  18.663   7.353  11.790  0.2377  0.0112  0.2231
 1515POSM   NC317766  12.216   2.775  10.202  0.1293  0.2601 -0.0907
 1515POSM   PO417767  12.167   3.177  10.251  0.0603  0.1281  0.2372
 1515POSM   AM117768  12.351   3.213  10.487  0.1283  0.1948  0.0925
 1515POSM   AM217769  12.533   3.013  10.597  0.3273 -0.1594  0.0713
 1515POSM   T1A17770  12.384   3.615  10.799  0.2711  0.0141 -0.0299
 1515POSM   C2A17771  12.409   3.986  11.021  0.1148 -0.1754 -0.0962
 1515POSM   C3A17772  12.475   4.199  11.430 -0.1238  0.0389  0.1521
 1515POSM   C1B17773  12.467   3.140  10.895  0.0778  0.1766  0.0507
 1515POSM   D2B17774  12.153   3.256  11.194 -0.0323  0.3279  0.3175
 1515POSM   C3B17775  12.276   3.478  11.606  0.0239 -0.0227  0.3468
 1515POSM   C4B17776  12.547   3.463  12.008 -0.2356 -0.0497  0.0635
 1516DOPC   NC317777  12.587   9.799   9.775 -0.1487 -0.0523 -0.2824
 1516DOPC   PO417778  12.857   9.485   9.715  0.3990 -0.1414 -0.0324
 1516DOPC   GL117779  12.954   9.536  10.060  0.2915 -0.1905 -0.4272
 1516DOPC   GL217780  13.176   9.799   9.979  0.2347 -0.0350  0.0622
 1516DOPC   C1A17781  12.669   9.679  10.377  0.0498  0.0974 -0.0658
 1516DOPC   D2A17782  12.523   9.639  10.825  0.0837 -0.2853 -0.1191
 1516DOPC   C3A17783  12.690   9.823  11.189 -0.0553 -0.1316  0.2105
 1516DOPC   C4A17784  12.808   9.898  11.611  0.0322  0.3429 -0.0545
 1516DOPC   C1B17785  13.550  10.085   9.951 -0.2108  0.1491  0.1814
 1516DOPC   D2B17786  13.973  10.079  10.129 -0.0526 -0.0761  0.1358
 1516DOPC   C3B17787  14.369   9.841  10.290  0.1050 -0.0244 -0.2844
 1516DOPC   C4B17788  14.651   9.915  10.677  0.0498 -0.2661  0.4851
 1517POSM   NC317789  20.452   6.710   9.873 -0.0475  0.1041 -0.0785
 1517POSM   PO417790  20.732   6.983   9.971  0.0940 -0.0349  0.0075
 1517POSM   AM117791  20.806   6.848  10.254 -0.1355 -0.2343 -0.0687
 1517POSM   AM217792  20.726   6.621  10.357 -0.1303 -0.0252  0.3164
 1517POSM   T1A17793  20.922   6.871  10.738  0.2242 -0.0846 -0.1770
 1517POSM   C2A17794  21.005   6.755  11.153 -0.1886 -0.0317  0.1463
 1517POSM   C3A17795  20.750   6.710  11.511 -0.1660  0.0905 -0.3647
 1517POSM   C1B17796  20.982   6.464  10.483  0.3509  0.0819 -0.3045
 1517POSM   D2B17797  21.189   6.380  10.872 -0.0558 -0.0155  0.5114
 1517POSM   C3B17798  21.140   6.290  11.358 -0.4646 -0.3144 -0.1017
 1517POSM   C4B17799  21.164   6.328  11.846 -0.1116 -0.2847  0.0341
 1518DOPS   CNO17800  19.491   1.798   9.720 -0.2161  0.0317  0.1121
 1518DOPS   PO417801  19.565   1.794  10.104  0.1519  0.2774  0.0524
 1518DOPS   GL117802  19.651   1.853  10.456  0.1313  0.2114  0.0448
 1518DOPS   GL217803  19.756   1.763  10.718  0.1885  0.0858  0.4395
 1518DOPS   C1A17804  19.396   2.085  10.773  0.2102  0.1069 -0.0250
 1518DOPS   D2A17805  19.210   2.198  11.179  0.0774 -0.0018 -0.1887
 1518DOPS   C3A17806  19.001   2.505  11.379  0.4817 -0.0707 -0.0307
 1518DOPS   C4A17807  18.965   2.894  11.639  0.1938  0.2063 -0.2047
 1518DOPS   C1B17808  19.698   1.461  11.120 -0.3461 -0.2252 -0.0821
 1518DOPS   D2B17809  19.590   1.253  11.538  0.3505  0.0402 -0.1556
 1518DOPS   C3B17810  19.531   1.235  12.023 -0.0213  0.2291  0.1269
 1518DOPS   C4B17811  19.400   1.289  12.467  0.5642 -0.1135 -0.1591
 1519DOPC   NC317812  15.444   7.146   9.994 -0.1670 -0.0853  0.3156
 1519DOPC   PO417813  15.806   7.009   9.944  0.1791  0.1940 -0.0405
 1519DOPC   GL117814  15.738   6.990  10.306 -0.0020  0.1352 -0.3523
 1519DOPC   GL217815  15.761   6.762  10.429  0.1275 -0.0404  0.2533
 1519DOPC   C1A17816  16.080   7.160  10.587  0.0762  0.3131  0.0723
 1519DOPC   D2A17817  16.437   7.158  10.940  0.1484 -0.0405 -0.0962
 1519DOPC   C3A17818  16.276   7.193  11.355 -0.0826 -0.0893  0.2022
 1519DOPC   C4A17819  15.855   7.098  11.548  0.4225 -0.0452 -0.0929
 1519DOPC   C1B17820  15.633   7.033  10.761 -0.0112  0.2369 -0.0297
 1519DOPC   D2B17821  15.914   7.236  11.037  0.0106 -0.1062  0.5417
 1519DOPC   C3B17822  15.909   7.636  11.273 -0.1017 -0.0310  0.1214
 1519DOPC   C4B17823  15.968   8.007  11.560  0.1477  0.0319  0.1721
 1520DOPS   CNO17824  10.186  10.588   9.217 -0.0691  0.0613 -0.1276
 1520DOPS   PO417825   9.928  10.733   9.500  0.0501  0.3017 -0.0278
 1520DOPS   GL117826   9.944  10.669   9.925 -0.1821 -0.1043 -0.0154
 1520DOPS   GL217827  10.142  10.465  10.092  0.0062 -0.1061 -0.1559
 1520DOPS   C1A17828  10.020  10.874  10.334  0.0402  0.0263 -0.0983
 1520DOPS   D2A17829   9.918  11.150  10.771 -0.2025  0.1644 -0.0051
 1520DOPS   C3A17830   9.740  10.781  11.035 -0.1236 -0.4943 -0.2095
 1520DOPS   C4A17831   9.737  10.592  11.421 -0.2104  0.0630  0.1053
 1520DOPS   C1B17832  10.307  10.499  10.520  0.1229 -0.0607  0.3174
 1520DOPS   D2B17833  10.639  10.389  10.784 -0.2227  0.0167 -0.1175
 1520DOPS   C3B17834  10.632  10.043  11.232 -0.1017 -0.0563 -0.2570
 1520DOPS   C4B17835  10.844   9.815  11.549 -0.0340  0.2872 -0.2147
 1521DOPE   NH317836  18.416   8.390   9.088  0.0174 -0.1442 -0.1345
 1521DOPE   PO417837  18.391   8.297   9.394 -0.1295 -0.1444 -0.2033
 1521DOPE   GL117838  18.663   8.385   9.698  0.0543  0.2621  0.0031
 1521DOPE   GL217839  18.436   8.272   9.895  0.1340 -0.0559 -0.0703
 1521DOPE   C1A17840  18.869   8.437  10.125  0.1324  0.0143 -0.1012
 1521DOPE   D2A17841  18.965   8.274  10.464 -0.0789  0.1216 -0.2462
 1521DOPE   C3A17842  18.826   8.154  10.918 -0.0747 -0.2062 -0.0733
 1521DOPE   C4A17843  18.940   8.136  11.373  0.2369 -0.2120  0.1190
 1521DOPE   C1B17844  18.427   8.439  10.321 -0.1191  0.1189 -0.0739
 1521DOPE   D2B17845  18.209   8.715  10.615 -0.0517 -0.0499 -0.0468
 1521DOPE   C3B17846  17.860   8.953  10.770  0.2341 -0.1401  0.3655
 1521DOPE   C4B17847  17.439   9.162  10.700 -0.3214 -0.1190 -0.2645
 1522DOPE   NH317848  21.680   3.001  10.665  0.4102 -0.3461  0.4038
 1522DOPE   PO417849  21.959   3.097  10.722 -0.4069 -0.1894  0.0606
 1522DOPE   GL117850  21.904   3.142  11.173  0.2755 -0.2487  0.2839
 1522DOPE   GL217851  21.716   3.080  11.221  0.0045 -0.0002  0.1928
 1522DOPE   C1A17852  22.120   3.468  11.382 -0.0135  0.1812  0.1477
 1522DOPE   D2A17853  22.091   3.891  11.580  0.1886  0.2372 -0.2901
 1522DOPE   C3A17854  22.122   3.960  11.993 -0.2871 -0.2931 -0.2008
 1522DOPE   C4A17855  22.040   4.180  12.399  0.0478 -0.1659  0.2292
 1522DOPE   C1B17856  21.484   3.126  11.644  0.0433  0.1805 -0.0569
 1522DOPE   D2B17857  21.613   3.154  12.074 -0.1591  0.1996 -0.1393
 1522DOPE   C3B17858  21.439   3.347  12.448 -0.0784 -0.0755  0.0995
 1522DOPE   C4B17859  21.317   3.383  12.889 -0.0398  0.1157 -0.0718
 1523DOPE   NH317860  21.488   3.684  10.217 -0.2195 -0.0780  0.2457
 1523DOPE   PO417861  21.612   3.356  10.288 -0.3084 -0.0576 -0.1540
 1523DOPE   GL117862  21.573   3.459  10.691  0.1209  0.0510 -0.1129
 1523DOPE   GL217863  21.719   3.501  10.919  0.1961  0.0146 -0.0302
 1523DOPE   C1A17864  21.303   3.249  11.005  0.1421  0.0178 -0.0705
 1523DOPE   D2A17865  21.247   2.817  11.176 -0.6738 -0.2303  0.3049
 1523DOPE   C3A17866  20.991   2.887  11.544 -0.0978 -0.1569  0.0305
 1523DOPE   C4A17867  20.593   3.054  11.784 -0.1310  0.0903 -0.0941
 1523DOPE   C1B17868  21.295   3.748  11.086  0.0285 -0.0221 -0.1319
 1523DOPE   D2B17869  20.875   3.879  11.283  0.0369  0.2240 -0.2440
 1523DOPE   C3B17870  20.758   4.261  11.585  0.2670  0.0540  0.3240
 1523DOPE   C4B17871  21.007   4.494  11.878 -0.2144 -0.0317 -0.2237
 1524DOPC   NC317872  18.593   1.861  10.319  0.0948  0.1322 -0.0455
 1524DOPC   PO417873  18.784   1.497  10.459 -0.0680  0.3530  0.2086
 1524DOPC   GL117874  18.828   1.682  10.783 -0.0715  0.0068  0.0714
 1524DOPC   GL217875  18.880   1.925  10.802 -0.1834 -0.1242  0.1477
 1524DOPC   C1A17876  19.183   1.661  11.152 -0.1777  0.1885 -0.1951
 1524DOPC   D2A17877  19.289   1.641  11.645 -0.0517  0.1625  0.2186
 1524DOPC   C3A17878  19.317   1.822  12.052  0.0131  0.0570  0.0133
 1524DOPC   C4A17879  19.453   2.016  12.441 -0.2727  0.2220  0.3137
 1524DOPC   C1B17880  18.800   2.019  11.258 -0.3000 -0.0537  0.0107
 1524DOPC   D2B17881  18.391   1.958  11.448 -0.0945  0.0349 -0.1484
 1524DOPC   C3B17882  18.281   1.819  11.863 -0.1842 -0.0282 -0.1108
 1524DOPC   C4B17883  18.413   1.424  12.039 -0.0524 -0.0334  0.1059
 1525DOPS   CNO17884  24.904   7.950  10.391 -0.0037  0.3418  0.0313
 1525DOPS   PO417885  25.100   7.988  10.746 -0.2082 -0.2433 -0.2002
 1525DOPS   GL117886  24.985   8.081  11.094  0.1035 -0.2583  0.0173
 1525DOPS   GL217887  24.702   8.088  11.128 -0.0558 -0.0229 -0.0556
 1525DOPS   C1A17888  25.203   8.068  11.487 -0.2221 -0.1244 -0.1817
 1525DOPS   D2A17889  25.424   8.399  11.722  0.0958 -0.2232  0.2101
 1525DOPS   C3A17890  25.078   8.487  11.997  0.0634  0.0318 -0.2208
 1525DOPS   C4A17891  25.052   8.905  12.229 -0.1044 -0.1345 -0.0253
 1525DOPS   C1B17892  24.755   8.257  11.581  0.0268 -0.1896  0.0856
 1525DOPS   D2B17893  24.584   8.587  11.910 -0.2284 -0.1124 -0.0325
 1525DOPS   C3B17894  24.337   8.273  12.148  0.3250  0.2104 -0.1653
 1525DOPS   C4B17895  24.346   7.818  12.261 -0.1316 -0.1170  0.1737
 1526DOPS   CNO17896  20.828   9.790   9.298 -0.1304  0.1421 -0.3382
 1526DOPS   PO417897  20.681  10.058   9.046 -0.1529 -0.0509 -0.2953
 1526DOPS   GL117898  20.577  10.204   9.406 -0.0808  0.4996 -0.3196
 1526DOPS   GL217899  20.593  10.478   9.363  0.3015 -0.1760  0.1227
 1526DOPS   C1A17900  20.641   9.945   9.760 -0.2767 -0.2510 -0.1397
 1526DOPS   D2A17901  20.852   9.969  10.133  0.1451 -0.0632 -0.0441
 1526DOPS   C3A17902  20.769   9.790  10.572 -0.0478  0.0234  0.0304
 1526DOPS   C4A17903  20.489   9.667  10.926  0.0874 -0.2184  0.0436
 1526DOPS   C1B17904  20.705  10.476   9.791 -0.2097 -0.0088 -0.0888
 1526DOPS   D2B17905  20.834  10.576  10.240 -0.0551  0.0259  0.3513
 1526DOPS   C3B17906  20.673  10.243  10.508 -0.0784 -0.0352 -0.2947
 1526DOPS   C4B17907  20.284   9.993  10.649 -0.0581 -0.0089  0.2956
 1527DOPC   NC317908  19.050  11.490   9.053 -0.0884  0.1102  0.0029
 1527DOPC   PO417909  18.712  11.346   8.908  0.2166 -0.1600  0.3074
 1527DOPC   GL117910  18.718  11.334   9.290 -0.3052  0.0783  0.0671
 1527DOPC   GL217911  18.791  11.114   9.400  0.1192  0.0096  0.0070
 1527DOPC   C1A17912  18.673  11.694   9.570  0.4179 -0.2524 -0.0433
 1527DOPC   D2A17913  18.885  12.031   9.803 -0.4035 -0.5819 -0.0862
 1527DOPC   C3A17914  19.172  11.850  10.153 -0.0724 -0.0464  0.0224
 1527DOPC   C4A17915  19.097  11.784  10.640  0.0231  0.1576 -0.0266
 1527DOPC   C1B17916  18.853  11.066   9.842 -0.1108  0.0727 -0.3557
 1527DOPC   D2B17917  18.925  10.861  10.312  0.2852  0.3646  0.1353
 1527DOPC   C3B17918  18.846  11.051  10.691 -0.2469  0.0571 -0.0074
 1527DOPC   C4B17919  18.871  11.002  11.125 -0.0166 -0.0901 -0.1631
 1528DOPS   CNO17920  13.769   3.771   9.472  0.1020  0.0769  0.0177
 1528DOPS   PO417921  13.545   3.658   9.776  0.2089 -0.1488 -0.3560
 1528DOPS   GL117922  13.612   3.830  10.192 -0.0463 -0.3429  0.0843
 1528DOPS   GL217923  13.550   4.127  10.080 -0.1670 -0.0352  0.0818
 1528DOPS   C1A17924  13.736   3.905  10.652 -0.0383 -0.1377 -0.1296
 1528DOPS   D2A17925  13.815   3.820  11.052 -0.0801 -0.0776 -0.1268
 1528DOPS   C3A17926  13.789   3.962  11.446 -0.1512 -0.1276 -0.3090
 1528DOPS   C4A17927  13.802   4.305  11.752  0.0375 -0.0916 -0.3006
 1528DOPS   C1B17928  13.532   4.335  10.474 -0.0010 -0.1367  0.1334
 1528DOPS   D2B17929  13.722   4.362  10.898 -0.0248 -0.0198  0.5946
 1528DOPS   C3B17930  13.647   4.515  11.299  0.1694  0.2140 -0.2094
 1528DOPS   C4B17931  13.343   4.484  11.658  0.2391 -0.2600 -0.0774
 1529DOPS   CNO17932  14.644   7.672   9.645  0.1868 -0.1333  0.1477
 1529DOPS   PO417933  14.313   7.566   9.751  0.0466 -0.3066  0.3018
 1529DOPS   GL117934  14.312   7.612  10.127 -0.2381  0.0103 -0.1899
 1529DOPS   GL217935  14.148   7.532  10.292 -0.0285  0.2006 -0.1128
 1529DOPS   C1A17936  14.294   8.012  10.321 -0.0083 -0.4384  0.0024
 1529DOPS   D2A17937  14.159   7.927  10.734  0.1263  0.2294  0.0231
 1529DOPS   C3A17938  13.769   7.847  11.002 -0.0224  0.0594 -0.0671
 1529DOPS   C4A17939  13.383   7.679  11.224  0.1447  0.1471 -0.0373
 1529DOPS   C1B17940  13.788   7.500  10.579  0.1846  0.2106 -0.1476
 1529DOPS   D2B17941  13.362   7.461  10.716 -0.1635  0.1622  0.3932
 1529DOPS   C3B17942  13.583   7.248  11.101 -0.1800 -0.1936  0.2735
 1529DOPS   C4B17943  13.868   7.358  11.436 -0.1954  0.0063 -0.2169
 1530DOPC   NC317944  13.179   9.419   9.248  0.1071  0.1358  0.0371
 1530DOPC   PO417945  13.375   9.227   9.530 -0.0537  0.0495  0.2368
 1530DOPC   GL117946  13.528   9.188   9.854  0.4755 -0.5465  0.1307
 1530DOPC   GL217947  13.680   8.967   9.902 -0.0081 -0.1353  0.0015
 1530DOPC   C1A17948  13.530   9.500  10.184  0.0754 -0.1564 -0.1037
 1530DOPC   D2A17949  13.522   9.546  10.645 -0.4629 -0.0756 -0.1651
 1530DOPC   C3A17950  13.617   9.960  10.742 -0.1838 -0.0932  0.1342
 1530DOPC   C4A17951  13.397  10.345  10.602  0.1365 -0.0291 -0.0951
 1530DOPC   C1B17952  13.742   8.647  10.255  0.4129  0.1365  0.1996
 1530DOPC   D2B17953  14.083   8.614  10.602  0.0319 -0.0375 -0.0435
 1530DOPC   C3B17954  14.031   8.784  11.024 -0.0989 -0.1969 -0.2666
 1530DOPC   C4B17955  13.714   8.729  11.418 -0.0680  0.1203  0.2056
 1531DOPE   NH317956  21.400   2.012  10.610 -0.2492  0.1277  0.3231
 1531DOPE   PO417957  21.300   1.778  10.742  0.1347 -0.0507  0.0213
 1531DOPE   GL117958  21.142   1.777  11.106  0.3497  0.0109  0.1355
 1531DOPE   GL217959  20.935   1.554  11.092 -0.1683  0.1870 -0.0968
 1531DOPE   C1A17960  20.845   1.980  11.400 -0.0188  0.0840  0.1249
 1531DOPE   D2A17961  20.460   1.915  11.711  0.2140  0.0072  0.3810
 1531DOPE   C3A17962  20.665   2.013  12.153 -0.2760  0.2036 -0.1097
 1531DOPE   C4A17963  20.726   1.828  12.578 -0.1717  0.0044  0.0203
 1531DOPE   C1B17964  20.608   1.472  11.365 -0.2118  0.0204  0.1976
 1531DOPE   D2B17965  20.458   1.392  11.786  0.0231 -0.3865  0.0469
 1531DOPE   C3B17966  20.135   1.256  12.091  0.0957 -0.0672 -0.0137
 1531DOPE   C4B17967  20.153   0.882  12.338 -0.1757 -0.3132  0.0524
 1532DOPE   NH317968  10.265  10.140   9.702  0.2525 -0.0459  0.0751
 1532DOPE   PO417969  10.062   9.860   9.801 -0.0132 -0.2192 -0.2373
 1532DOPE   GL117970  10.077   9.774  10.174  0.0562 -0.3758  0.3718
 1532DOPE   GL217971  10.285  10.039  10.203 -0.0151  0.3292  0.1280
 1532DOPE   C1A17972   9.865   9.475  10.488  0.0058 -0.1634  0.1496
 1532DOPE   D2A17973   9.891   9.009  10.752 -0.1032  0.3510 -0.1788
 1532DOPE   C3A17974   9.978   9.125  11.170  0.0617  0.0487  0.2710
 1532DOPE   C4A17975   9.914   9.489  11.449 -0.0776  0.1904  0.3704
 1532DOPE   C1B17976  10.677  10.099  10.347  0.1122  0.0905 -0.1103
 1532DOPE   D2B17977  11.109  10.071  10.659 -0.0123 -0.1719  0.1347
 1532DOPE   C3B17978  11.131  10.457  10.948 -0.1061  0.3640 -0.2093
 1532DOPE   C4B17979  10.959  10.390  11.356  0.1063  0.0316 -0.0257
 1533POSM   NC317980  15.264   5.378  10.366  0.0539  0.3827 -0.2432
 1533POSM   PO417981  14.952   5.213  10.203 -0.1583 -0.0656  0.0232
 1533POSM   AM117982  14.814   5.154  10.491  0.2696 -0.1583  0.0350
 1533POSM   AM217983  14.608   4.977  10.527 -0.0823  0.1936  0.1655
 1533POSM   T1A17984  14.731   5.091  10.983  0.1654 -0.2593  0.0435
 1533POSM   C2A17985  14.502   5.190  11.405 -0.1491  0.1560  0.1666
 1533POSM   C3A17986  14.590   4.960  11.826 -0.2820 -0.1773 -0.0627
 1533POSM   C1B17987  14.337   5.096  10.619  0.0034 -0.0438  0.2950
 1533POSM   D2B17988  13.910   5.318  10.421  0.0054 -0.0634 -0.0608
 1533POSM   C3B17989  13.714   5.695  10.623 -0.0704 -0.1537  0.1020
 1533POSM   C4B17990  13.543   6.085  10.731  0.0980 -0.1714  0.2566
 1534DOPS   CNO17991  23.755  10.062  10.000  0.1610 -0.1261 -0.1367
 1534DOPS   PO417992  23.806  10.053  10.358  0.2734  0.0335  0.2264
 1534DOPS   GL117993  23.611   9.920  10.667 -0.1253 -0.0517 -0.4924
 1534DOPS   GL217994  23.523  10.224  10.776 -0.1980  0.0633 -0.3165
 1534DOPS   C1A17995  23.789  10.022  11.098 -0.1230 -0.0302  0.1846
 1534DOPS   D2A17996  23.940  10.172  11.451  0.0332  0.1074 -0.0709
 1534DOPS   C3A17997  23.579  10.088  11.757  0.0051  0.2786 -0.0814
 1534DOPS   C4A17998  23.082   9.913  11.865  0.1582 -0.0213 -0.0566
 1534DOPS   C1B17999  23.342  10.203  11.242 -0.0809 -0.1420 -0.0540
 1534DOPS   D2B18000  22.967  10.241  11.476  0.0559 -0.1342  0.1484
 1534DOPS   C3B18001  22.676   9.878  11.497 -0.0572  0.1633 -0.0793
 1534DOPS   C4B18002  22.276   9.640  11.592 -0.0006 -0.0940  0.0245
 1535DOPC   NC318003  15.607   4.339  10.284  0.1381  0.1156 -0.1197
 1535DOPC   PO418004  15.910   4.543  10.232  0.1477  0.0485  0.0545
 1535DOPC   GL118005  15.876   4.597  10.603 -0.2523  0.1176  0.0400
 1535DOPC   GL218006  16.021   4.462  10.745  0.1652  0.0778 -0.1221
 1535DOPC   C1A18007  15.681   4.692  10.989 -0.1682 -0.0841 -0.0274
 1535DOPC   D2A18008  15.512   4.535  11.360 -0.1492 -0.1332  0.3886
 1535DOPC   C3A18009  15.769   4.341  11.687  0.2538 -0.1510 -0.0862
 1535DOPC   C4A18010  15.766   4.321  12.137 -0.1901 -0.5536 -0.1840
 1535DOPC   C1B18011  15.747   4.192  10.875  0.0769  0.0508 -0.0611
 1535DOPC   D2B18012  15.761   4.017  11.308  0.0813 -0.0300  0.1582
 1535DOPC   C3B18013  16.204   4.124  11.315  0.1605  0.3460 -0.2553
 1535DOPC   C4B18014  16.634   4.069  11.338  0.1324 -0.0008  0.0383
 1536DOPE   NH318015  10.761   0.267  10.268 -0.0345 -0.0076 -0.0185
 1536DOPE   PO418016  10.948   0.470  10.428  0.1744  0.1699 -0.0485
 1536DOPE   GL118017  10.950   0.275  10.798 -0.1839  0.2548 -0.1600
 1536DOPE   GL218018  11.258   0.211  10.840 -0.0303  0.0096 -0.0887
 1536DOPE   C1A18019  10.983   0.191  11.273 -0.0192  0.0052  0.1169
 1536DOPE   D2A18020  11.200   0.168  11.637 -0.1685  0.1242  0.2224
 1536DOPE   C3A18021  11.329   0.334  12.041  0.0567 -0.0665  0.0487
 1536DOPE   C4A18022  11.653   0.443  12.305 -0.2151  0.1220 -0.1666
 1536DOPE   C1B18023  11.465   0.118  11.218  0.0495  0.0123  0.2006
 1536DOPE   D2B18024  11.784   0.168  11.588 -0.1123 -0.1389  0.2940
 1536DOPE   C3B18025  11.932  -0.212  11.837  0.1745 -0.0724  0.0798
 1536DOPE   C4B18026  12.121  -0.562  12.115 -0.3433  0.0642  0.1041
 1537DOPS   CNO18027  17.658   3.268   9.653 -0.0347  0.1932  0.1509
 1537DOPS   PO418028  17.706   3.364  10.038  0.3313 -0.0057  0.0632
 1537DOPS   GL118029  17.825   3.080  10.314 -0.3193  0.2221 -0.0752
 1537DOPS   GL218030  17.902   3.173  10.573  0.2388 -0.2353 -0.0576
 1537DOPS   C1A18031  17.854   2.728  10.683 -0.0551 -0.0099  0.2094
 1537DOPS   D2A18032  17.937   2.309  10.761  0.0092  0.3412  0.2039
 1537DOPS   C3A18033  17.993   2.065  11.158  0.1812 -0.0227 -0.0806
 1537DOPS   C4A18034  17.806   1.909  11.597  0.2376 -0.1886 -0.1931
 1537DOPS   C1B18035  17.849   3.380  10.985  0.1224 -0.0662 -0.0503
 1537DOPS   D2B18036  17.864   3.427  11.478  0.0323  0.1348 -0.0347
 1537DOPS   C3B18037  18.056   3.849  11.511 -0.2745  0.1404 -0.1656
 1537DOPS   C4B18038  18.290   4.241  11.484  0.0193  0.1271  0.0321
 1538DOPS   CNO18039  21.769   8.927   9.095 -0.2713 -0.3780 -0.1636
 1538DOPS   PO418040  21.729   9.062   9.419  0.0229  0.1085  0.3995
 1538DOPS   GL118041  21.801   9.078   9.829  0.0393  0.0075  0.0742
 1538DOPS   GL218042  21.607   9.187   9.999  0.3215  0.0228 -0.0712
 1538DOPS   C1A18043  22.019   8.842  10.151 -0.3488  0.4083  0.1825
 1538DOPS   D2A18044  22.413   8.626  10.263 -0.0015 -0.3462  0.3480
 1538DOPS   C3A18045  22.451   8.260  10.566 -0.1528  0.1436  0.0228
 1538DOPS   C4A18046  22.747   8.096  10.882 -0.0140  0.0973  0.1076
 1538DOPS   C1B18047  21.570   9.649  10.131 -0.3479  0.2129  0.2854
 1538DOPS   D2B18048  21.450  10.061  10.213  0.2090  0.0501 -0.0347
 1538DOPS   C3B18049  21.413  10.332  10.596 -0.0069 -0.3879 -0.1669
 1538DOPS   C4B18050  21.771  10.584  10.726  0.3425  0.0495  0.1149
 1539DOPE   NH318051   9.553  10.459   9.745 -0.3745 -0.0991 -0.3511
 1539DOPE   PO418052   9.687  10.236   9.955 -0.0267 -0.1693  0.0323
 1539DOPE   GL118053   9.698  10.294  10.273  0.0979  0.0468  0.1800
 1539DOPE   GL218054   9.446  10.290  10.484 -0.2208  0.0125 -0.3171
 1539DOPE   C1A18055   9.916  10.005  10.583 -0.0873  0.2497  0.1640
 1539DOPE   D2A18056   9.940   9.734  10.995 -0.0990 -0.0837 -0.0417
 1539DOPE   C3A18057  10.112   9.952  11.371  0.1482 -0.2048 -0.1414
 1539DOPE   C4A18058  10.347  10.139  11.705 -0.0709 -0.4854  0.0577
 1539DOPE   C1B18059   9.806  10.515  10.654 -0.1303  0.2601  0.0372
 1539DOPE   D2B18060  10.079  10.294  10.940 -0.2024 -0.2383 -0.1587
 1539DOPE   C3B18061  10.348   9.939  10.826  0.0254  0.1364 -0.0193
 1539DOPE   C4B18062  10.445   9.656  10.454 -0.0364 -0.1170 -0.3552
 1540DOPE   NH318063  19.086   5.001   9.825  0.1011 -0.1540 -0.1628
 1540DOPE   PO418064  18.849   5.199  10.013 -0.2891  0.3435 -0.2125
 1540DOPE   GL118065  19.081   5.311  10.334  0.1438  0.1460  0.0544
 1540DOPE   GL218066  19.394   5.273  10.283  0.0274  0.5383  0.0833
 1540DOPE   C1A18067  19.274   5.335  10.763 -0.1155 -0.0810 -0.4670
 1540DOPE   D2A18068  19.407   5.487  11.172  0.3790  0.1834  0.1892
 1540DOPE   C3A18069  19.860   5.514  11.153  0.0084 -0.0207 -0.2128
 1540DOPE   C4A18070  20.221   5.798  11.027  0.0503 -0.1271 -0.0552
 1540DOPE   C1B18071  19.657   5.104  10.627  0.0181 -0.0777 -0.1191
 1540DOPE   D2B18072  19.680   4.964  11.054 -0.2716  0.1903  0.2818
 1540DOPE   C3B18073  19.645   5.153  11.479 -0.0736  0.0237  0.1443
 1540DOPE   C4B18074  19.880   5.391  11.779 -0.1092  0.3776 -0.2963
 1541POSM   NC318075  21.750   0.330  10.363  0.1314 -0.2360  0.1654
 1541POSM   PO418076  21.937   0.509  10.661 -0.0867 -0.3125  0.1486
 1541POSM   AM118077  21.752   0.654  10.863 -0.2398  0.0684 -0.1153
 1541POSM   AM218078  21.793   0.688  11.146  0.1475  0.1039  0.0394
 1541POSM   T1A18079  21.297   0.784  11.033  0.0627 -0.3401  0.1189
 1541POSM   C2A18080  21.098   0.646  11.439 -0.1030 -0.1479 -0.0798
 1541POSM   C3A18081  20.903   0.493  11.821  0.1980 -0.0662  0.0302
 1541POSM   C1B18082  21.626   0.862  11.387 -0.1665  0.0347  0.0409
 1541POSM   D2B18083  21.421   0.901  11.792  0.0459 -0.1379 -0.2195
 1541POSM   C3B18084  21.346   1.327  12.003 -0.0850 -0.2379  0.2214
 1541POSM   C4B18085  20.992   1.542  12.202  0.1233 -0.1059 -0.0590
 1542DOPC   NC318086  21.367   6.005  10.501 -0.3115  0.0244 -0.0172
 1542DOPC   PO418087  21.549   5.734  10.305  0.0368  0.0771  0.2104
 1542DOPC   GL118088  21.469   5.570  10.669 -0.3916  0.0779  0.1568
 1542DOPC   GL218089  21.615   5.302  10.684 -0.1466 -0.2373 -0.1136
 1542DOPC   C1A18090  21.459   5.812  11.046  0.1877 -0.1488  0.0079
 1542DOPC   D2A18091  21.530   5.982  11.495  0.0563  0.2201  0.2435
 1542DOPC   C3A18092  21.184   5.861  11.775 -0.2875 -0.2208  0.0139
 1542DOPC   C4A18093  21.053   5.977  12.194 -0.0462 -0.0675  0.1419
 1542DOPC   C1B18094  21.397   5.312  11.072 -0.2079  0.3953  0.1192
 1542DOPC   D2B18095  21.361   5.520  11.465 -0.2210  0.1692  0.0160
 1542DOPC   C3B18096  21.425   5.219  11.814  0.0271 -0.0233  0.0698
 1542DOPC   C4B18097  21.389   5.058  12.246  0.0878  0.2436  0.0434
 1543DOPC   NC318098  16.678   5.824  10.172  0.2807 -0.0997 -0.2263
 1543DOPC   PO418099  16.948   5.923  10.467  0.4137 -0.4224 -0.2595
 1543DOPC   GL118100  17.244   6.038  10.644  0.1310  0.0163  0.3093
 1543DOPC   GL218101  17.461   6.208  10.569 -0.4219 -0.4103  0.1744
 1543DOPC   C1A18102  17.159   5.984  11.084 -0.0775  0.0644  0.1238
 1543DOPC   D2A18103  17.183   5.976  11.547  0.0060  0.2365 -0.0777
 1543DOPC   C3A18104  16.842   5.750  11.758  0.2622  0.0750 -0.0215
 1543DOPC   C4A18105  16.512   5.946  11.990 -0.0808 -0.0424  0.1765
 1543DOPC   C1B18106  17.325   6.456  10.967  0.2696 -0.1274 -0.1300
 1543DOPC   D2B18107  17.325   6.459  11.439  0.1037  0.6120 -0.2163
 1543DOPC   C3B18108  17.202   6.387  11.832 -0.1354 -0.5632  0.0608
 1543DOPC   C4B18109  17.049   6.096  12.129  0.2163  0.2386 -0.1715
 1544DOPE   NH318110  19.372  15.161   8.482 -0.0558 -0.1862  0.1786
 1544DOPE   PO418111  19.548  15.148   8.723 -0.0277  0.2156  0.0043
 1544DOPE   GL118112  19.599  15.061   9.131  0.0965 -0.0316 -0.1376
 1544DOPE   GL218113  19.401  14.851   9.208  0.1747 -0.4778  0.0070
 1544DOPE   C1A18114  19.752  15.153   9.570  0.0455 -0.2379 -0.0501
 1544DOPE   D2A18115  19.794  14.956   9.953  0.0847  0.6362 -0.0122
 1544DOPE   C3A18116  19.563  14.665  10.205  0.1655  0.3131  0.1266
 1544DOPE   C4A18117  19.503  14.218  10.370 -0.0631 -0.3057 -0.1172
 1544DOPE   C1B18118  19.746  14.561   9.356 -0.1177  0.2547  0.0670
 1544DOPE   D2B18119  20.017  14.406   9.649  0.3617 -0.1263 -0.0224
 1544DOPE   C3B18120  20.060  14.018   9.827  0.0227  0.1257 -0.0846
 1544DOPE   C4B18121  20.074  13.621   9.970 -0.0763 -0.0263  0.4034
 1545POSM   NC318122  22.571  10.703   9.600 -0.0743  0.3188  0.3025
 1545POSM   PO418123  22.559  10.336   9.744 -0.0357 -0.1818 -0.3220
 1545POSM   AM118124  22.461  10.513  10.000 -0.1521 -0.1185  0.1438
 1545POSM   AM218125  22.255  10.628  10.176 -0.1504 -0.4719 -0.2000
 1545POSM   T1A18126  22.798  10.619  10.397 -0.0708  0.0393  0.2636
 1545POSM   C2A18127  23.065  10.610  10.795  0.1758  0.2683 -0.2459
 1545POSM   C3A18128  23.169  10.709  11.239 -0.0390 -0.2096 -0.1137
 1545POSM   C1B18129  22.232  10.573  10.500  0.0733 -0.2156 -0.1342
 1545POSM   D2B18130  22.304  10.339  10.853 -0.1606  0.1145 -0.1865
 1545POSM   C3B18131  21.998  10.387  11.257  0.1592 -0.1834  0.1824
 1545POSM   C4B18132  21.700  10.438  11.612  0.2002 -0.0837  0.1296
 1546DOPE   NH318133  17.567   5.023   9.876 -0.1652  0.0027  0.2298
 1546DOPE   PO418134  17.669   4.739   9.988  0.2559 -0.2342  0.4185
 1546DOPE   GL118135  17.528   4.617  10.352  0.1730 -0.0511  0.2227
 1546DOPE   GL218136  17.771   4.624  10.523 -0.0260  0.0566 -0.0050
 1546DOPE   C1A18137  17.207   4.485  10.679  0.3624 -0.0552  0.2489
 1546DOPE   D2A18138  16.932   4.631  11.087 -0.2148 -0.0347  0.0073
 1546DOPE   C3A18139  16.522   4.562  11.329  0.1010  0.1558  0.0546
 1546DOPE   C4A18140  16.092   4.638  11.464 -0.0185 -0.0121  0.1660
 1546DOPE   C1B18141  17.649   4.223  10.723 -0.0949  0.0029  0.2411
 1546DOPE   D2B18142  17.471   3.830  10.888  0.0872  0.4607 -0.1081
 1546DOPE   C3B18143  17.090   3.665  11.112  0.1282 -0.0579 -0.1050
 1546DOPE   C4B18144  16.993   3.604  11.480  0.0061 -0.3137  0.0242
 1547DOPC   NC318145  19.957   3.939  10.116 -0.0986 -0.1827 -0.2426
 1547DOPC   PO418146  19.841   4.277  10.029 -0.2330 -0.2449  0.0232
 1547DOPC   GL118147  19.778   4.377  10.320 -0.5060 -0.2285  0.0838
 1547DOPC   GL218148  19.738   4.171  10.531 -0.0739  0.1715 -0.2975
 1547DOPC   C1A18149  19.995   4.566  10.771 -0.1389  0.3648  0.2376
 1547DOPC   D2A18150  19.980   4.615  11.202 -0.1534 -0.1932  0.3425
 1547DOPC   C3A18151  20.290   4.486  11.511  0.0513  0.0366  0.0761
 1547DOPC   C4A18152  20.441   4.526  11.965  0.0223 -0.1410  0.2092
 1547DOPC   C1B18153  19.322   4.397  10.616  0.1467 -0.0755  0.0394
 1547DOPC   D2B18154  19.241   4.701  10.936  0.0749  0.0058 -0.0065
 1547DOPC   C3B18155  19.482   4.622  11.302 -0.0718  0.1632  0.2366
 1547DOPC   C4B18156  19.764   4.512  11.662 -0.1149 -0.0199 -0.0461
 1548DOPS   CNO18157  14.381   2.009   9.631  0.1015 -0.0203 -0.0337
 1548DOPS   PO418158  14.205   2.076   9.978  0.1465 -0.0544  0.1254
 1548DOPS   GL118159  13.971   2.068  10.386  0.0461 -0.2871  0.3238
 1548DOPS   GL218160  14.126   1.785  10.450 -0.2266 -0.2016 -0.1403
 1548DOPS   C1A18161  13.695   1.770  10.603  0.0156 -0.1622 -0.0795
 1548DOPS   D2A18162  13.571   1.357  10.811 -0.2139 -0.4713 -0.0203
 1548DOPS   C3A18163  13.507   1.314  11.259 -0.1201 -0.1302  0.0233
 1548DOPS   C4A18164  13.360   1.051  11.633  0.4578 -0.1078  0.0485
 1548DOPS   C1B18165  14.191   1.936  10.887  0.1455 -0.0493  0.2952
 1548DOPS   D2B18166  14.184   2.267  11.198 -0.0566  0.1574  0.4615
 1548DOPS   C3B18167  13.817   2.108  11.504 -0.1161  0.0593 -0.0763
 1548DOPS   C4B18168  13.640   1.962  11.882  0.0348  0.0958  0.1400
 1549DOPE   NH318169  16.464   9.018   9.764 -0.2569  0.4401 -0.3062
 1549DOPE   PO418170  16.779   9.096   9.693 -0.2526 -0.0101 -0.3456
 1549DOPE   GL118171  16.828   9.232  10.076 -0.1021  0.0650 -0.0403
 1549DOPE   GL218172  16.646   9.434  10.045  0.0925  0.0598  0.5748
 1549DOPE   C1A18173  16.995   8.955  10.444 -0.1331  0.1254  0.1129
 1549DOPE   D2A18174  17.002   9.087  10.931 -0.0155  0.0165  0.2567
 1549DOPE   C3A18175  17.300   8.950  11.227  0.1083  0.2797 -0.0413
 1549DOPE   C4A18176  17.647   8.640  11.246 -0.0902 -0.1648 -0.0410
 1549DOPE   C1B18177  16.513   9.657  10.462 -0.0509 -0.1941  0.0033
 1549DOPE   D2B18178  16.349   9.892  10.825 -0.0730  0.3154  0.2372
 1549DOPE   C3B18179  16.337   9.800  11.324  0.0857  0.0515 -0.1898
 1549DOPE   C4B18180  16.472   9.625  11.795  0.0213 -0.1882  0.2654
 1550DOPE   NH318181  15.289   6.320   9.731 -0.1094  0.0100  0.2366
 1550DOPE   PO418182  15.543   6.162   9.832  0.1510 -0.2667 -0.0544
 1550DOPE   GL118183  15.312   6.176  10.148  0.1105 -0.1699  0.1124
 1550DOPE   GL218184  15.566   6.197  10.328  0.1517 -0.2404 -0.1254
 1550DOPE   C1A18185  15.011   6.339  10.474  0.0148  0.4081 -0.1198
 1550DOPE   D2A18186  14.626   6.460  10.721 -0.0591  0.0535  0.1313
 1550DOPE   C3A18187  14.459   6.260  11.124  0.0544 -0.0422 -0.1142
 1550DOPE   C4A18188  14.334   6.190  11.622  0.0558 -0.1089  0.2494
 1550DOPE   C1B18189  15.464   6.516  10.685 -0.1300  0.0604  0.0272
 1550DOPE   D2B18190  15.090   6.764  10.808 -0.3024 -0.1747 -0.0478
 1550DOPE   C3B18191  14.826   6.638  11.168 -0.1051  0.0559  0.2611
 1550DOPE   C4B18192  14.464   6.705  11.439  0.0448  0.0079  0.2939
 1551DOPS   CNO18193  23.888  11.325   9.688  0.0417  0.1523 -0.2234
 1551DOPS   PO418194  23.885  11.688   9.824 -0.4749 -0.1165 -0.3356
 1551DOPS   GL118195  23.654  11.596  10.138 -0.0402  0.0348 -0.2956
 1551DOPS   GL218196  23.640  11.315  10.139  0.2194  0.0109  0.1608
 1551DOPS   C1A18197  23.381  11.763  10.502 -0.0632  0.1679 -0.1088
 1551DOPS   D2A18198  23.184  11.671  10.907  0.2170  0.1080 -0.1865
 1551DOPS   C3A18199  22.797  11.711  11.183 -0.0188 -0.2823 -0.2051
 1551DOPS   C4A18200  22.703  11.428  11.550  0.1814  0.2137  0.0762
 1551DOPS   C1B18201  23.673  11.319  10.542  0.1786 -0.0656 -0.1042
 1551DOPS   D2B18202  23.688  11.352  10.996 -0.1512  0.2466  0.0890
 1551DOPS   C3B18203  23.646  11.751  11.280 -0.0481  0.1393 -0.0072
 1551DOPS   C4B18204  23.680  12.202  11.378 -0.0896  0.2192  0.0156
 1552DOPE   NH318205  22.307   2.456  10.801  0.1173 -0.2962  0.0846
 1552DOPE   PO418206  22.097   2.675  10.979 -0.0086 -0.2516 -0.2746
 1552DOPE   GL118207  21.904   2.615  11.353  0.1299 -0.2417 -0.2337
 1552DOPE   GL218208  21.656   2.542  11.193 -0.0435 -0.0753 -0.1357
 1552DOPE   C1A18209  21.880   2.310  11.727 -0.2105 -0.0726 -0.2547
 1552DOPE   D2A18210  21.641   2.097  12.082 -0.1561  0.0821 -0.0144
 1552DOPE   C3A18211  21.614   2.371  12.496 -0.2915 -0.2634  0.0622
 1552DOPE   C4A18212  21.932   2.560  12.781  0.2506 -0.3932  0.0762
 1552DOPE   C1B18213  21.478   2.577  11.616 -0.0174 -0.0832 -0.1689
 1552DOPE   D2B18214  21.351   2.589  12.034  0.2567  0.0934  0.0638
 1552DOPE   C3B18215  21.338   2.877  12.399  0.0344 -0.0847 -0.0398
 1552DOPE   C4B18216  20.997   2.811  12.601 -0.4071 -0.0693  0.1782
 1553DOPS   CNO18217  18.749   2.057   9.856 -0.0452  0.3588 -0.0461
 1553DOPS   PO418218  18.687   2.328  10.127 -0.1783  0.2173 -0.0091
 1553DOPS   GL118219  18.658   2.332  10.519  0.0695 -0.4469 -0.1718
 1553DOPS   GL218220  18.356   2.376  10.519 -0.1727  0.0731  0.0442
 1553DOPS   C1A18221  18.912   2.469  10.840 -0.3072 -0.1381  0.2459
 1553DOPS   D2A18222  18.714   2.806  11.138  0.0377  0.4928 -0.0449
 1553DOPS   C3A18223  18.502   2.642  11.517 -0.3489 -0.1235 -0.0936
 1553DOPS   C4A18224  18.114   2.363  11.646  0.0725  0.0082  0.1720
 1553DOPS   C1B18225  18.430   2.758  10.703 -0.3303 -0.0383  0.2909
 1553DOPS   D2B18226  18.350   3.165  10.719 -0.2733  0.1382 -0.1527
 1553DOPS   C3B18227  18.740   3.455  10.846 -0.1212 -0.0581  0.0857
 1553DOPS   C4B18228  18.825   3.341  11.249  0.3013 -0.0831  0.0806
 1554DOPS   CNO18229  23.833   2.258  11.405  0.2224  0.0620  0.3007
 1554DOPS   PO418230  23.967   2.616  11.337 -0.0730 -0.0100 -0.0042
 1554DOPS   GL118231  23.843   2.741  11.726 -0.5266 -0.1035 -0.1583
 1554DOPS   GL218232  23.973   2.993  11.810  0.0042  0.2336 -0.0692
 1554DOPS   C1A18233  23.497   2.812  12.011 -0.2505  0.1867 -0.1986
 1554DOPS   D2A18234  23.280   2.923  12.420 -0.1859 -0.1514 -0.2916
 1554DOPS   C3A18235  23.388   3.074  12.894 -0.2584  0.1051  0.0197
 1554DOPS   C4A18236  23.302   3.495  13.172 -0.0533  0.2768  0.0382
 1554DOPS   C1B18237  24.084   3.282  12.183 -0.1238  0.2818  0.1795
 1554DOPS   D2B18238  24.217   3.320  12.607  0.0388 -0.1074 -0.0700
 1554DOPS   C3B18239  24.420   3.131  12.964 -0.0770 -0.2794  0.0261
 1554DOPS   C4B18240  24.506   2.758  13.203 -0.1165 -0.0355 -0.1271
 1555DOPC   NC318241  16.302   1.963   9.229 -0.1313  0.0132  0.1657
 1555DOPC   PO418242  16.463   1.979   9.590 -0.0732 -0.1240 -0.1521
 1555DOPC   GL118243  16.483   1.962  10.017 -0.1377 -0.1440 -0.1479
 1555DOPC   GL218244  16.251   2.187  10.008 -0.0736 -0.1352  0.1066
 1555DOPC   C1A18245  16.485   2.007  10.508  0.0023  0.0053  0.1898
 1555DOPC   D2A18246  16.286   1.912  10.914  0.0409  0.0582 -0.0315
 1555DOPC   C3A18247  16.372   2.064  11.352  0.0088 -0.1668 -0.3216
 1555DOPC   C4A18248  16.433   2.117  11.782  0.0389  0.0333  0.0076
 1555DOPC   C1B18249  15.969   2.158  10.377 -0.0561 -0.1883 -0.2475
 1555DOPC   D2B18250  15.746   1.891  10.752 -0.0680 -0.3233 -0.0325
 1555DOPC   C3B18251  15.914   1.689  11.121 -0.0752 -0.3179  0.3382
 1555DOPC   C4B18252  15.977   1.607  11.553 -0.4462  0.1212 -0.0815
 1556DOPC   NC318253  21.184   7.155  10.289 -0.0208  0.0351  0.1232
 1556DOPC   PO418254  21.476   7.232  10.054  0.3772 -0.1269  0.0903
 1556DOPC   GL118255  21.639   7.363  10.368  0.1418  0.1669 -0.3389
 1556DOPC   GL218256  21.960   7.331  10.395 -0.0119  0.3599 -0.2329
 1556DOPC   C1A18257  21.676   7.697  10.707  0.1885  0.2552  0.0136
 1556DOPC   D2A18258  21.918   7.709  11.146  0.0148 -0.3216 -0.0799
 1556DOPC   C3A18259  21.763   7.826  11.557 -0.2334 -0.0336 -0.0060
 1556DOPC   C4A18260  21.395   8.041  11.704 -0.0438 -0.0381 -0.1674
 1556DOPC   C1B18261  22.308   7.461  10.649  0.1217 -0.0224 -0.2936
 1556DOPC   D2B18262  22.787   7.568  10.787  0.1191 -0.1860  0.0707
 1556DOPC   C3B18263  22.915   7.636  11.223 -0.0058  0.0982 -0.1963
 1556DOPC   C4B18264  23.225   7.555  11.570  0.0657 -0.2735 -0.0898
 1557DOPE   NH318265  18.778   3.954   9.798 -0.2235 -0.1518  0.3090
 1557DOPE   PO418266  18.758   3.761  10.079  0.0636  0.2857  0.2394
 1557DOPE   GL118267  18.667   3.854  10.465 -0.0197 -0.1875 -0.3478
 1557DOPE   GL218268  18.393   3.960  10.457  0.1197 -0.2509 -0.0705
 1557DOPE   C1A18269  18.884   3.974  10.830  0.0266  0.1850 -0.4837
 1557DOPE   D2A18270  19.156   3.672  11.099 -0.1037  0.0837 -0.1128
 1557DOPE   C3A18271  19.026   3.680  11.529 -0.1065 -0.2598  0.0652
 1557DOPE   C4A18272  18.979   3.735  12.033  0.1113 -0.0873  0.2361
 1557DOPE   C1B18273  18.400   3.997  10.910 -0.1368 -0.3277 -0.2512
 1557DOPE   D2B18274  18.659   3.901  11.311  0.2530  0.0490  0.0182
 1557DOPE   C3B18275  18.565   3.871  11.757 -0.0277 -0.1178  0.0158
 1557DOPE   C4B18276  18.519   3.671  12.134  0.1874 -0.1739  0.1184
 1558DOPC   NC318277  23.680  12.238   9.809  0.0178 -0.0841 -0.0607
 1558DOPC   PO418278  23.476  12.507   9.614 -0.0278 -0.2192 -0.0415
 1558DOPC   GL118279  23.409  12.721   9.921 -0.1406 -0.0217  0.4842
 1558DOPC   GL218280  23.674  12.907  10.003 -0.3619 -0.0729 -0.1971
 1558DOPC   C1A18281  23.365  12.652  10.388 -0.3383 -0.1590 -0.1235
 1558DOPC   D2A18282  23.602  12.431  10.658  0.3086  0.3702 -0.0556
 1558DOPC   C3A18283  23.421  12.135  10.951  0.0107  0.0141 -0.1501
 1558DOPC   C4A18284  22.971  12.228  11.161  0.2213 -0.0231  0.1296
 1558DOPC   C1B18285  23.468  13.174  10.359  0.1187 -0.0135  0.1423
 1558DOPC   D2B18286  23.446  13.227  10.787  0.1708  0.4017 -0.1403
 1558DOPC   C3B18287  23.734  13.259  11.106 -0.0887 -0.0608  0.1260
 1558DOPC   C4B18288  23.829  13.607  11.430  0.1709  0.0386  0.3236
 1559POSM   NC318289  15.581   5.714  10.099  0.3215  0.1613  0.0906
 1559POSM   PO418290  15.738   5.372  10.225  0.0109  0.0159  0.1498
 1559POSM   AM118291  15.733   5.307  10.526  0.1567  0.1433 -0.1109
 1559POSM   AM218292  15.809   5.126  10.743  0.3738  0.1045 -0.2117
 1559POSM   T1A18293  15.556   5.470  10.952  0.1524  0.2089 -0.0487
 1559POSM   C2A18294  15.413   5.841  11.183 -0.0140  0.0154  0.0597
 1559POSM   C3A18295  15.086   5.885  11.526  0.1184  0.1634 -0.1611
 1559POSM   C1B18296  16.105   5.316  10.847  0.0411 -0.1913 -0.0493
 1559POSM   D2B18297  16.211   5.332  11.243  0.1126 -0.0631  0.0045
 1559POSM   C3B18298  15.904   5.528  11.581 -0.3177  0.0441 -0.0507
 1559POSM   C4B18299  15.687   5.837  11.747 -0.1598  0.2015 -0.0008
 1560DOPC   NC318300  18.605   7.039  10.111  0.0120 -0.2843 -0.1623
 1560DOPC   PO418301  18.704   6.641  10.142  0.2524  0.0546 -0.0061
 1560DOPC   GL118302  18.753   6.601  10.518 -0.0643  0.2726  0.0004
 1560DOPC   GL218303  18.533   6.870  10.546  0.1893  0.1315 -0.2034
 1560DOPC   C1A18304  18.975   6.930  10.767 -0.0970 -0.0871 -0.0677
 1560DOPC   D2A18305  19.260   7.039  11.139  0.2897 -0.0053 -0.2740
 1560DOPC   C3A18306  19.130   6.926  11.582 -0.2330  0.0000 -0.2227
 1560DOPC   C4A18307  19.039   7.119  12.007 -0.1812  0.2550 -0.0871
 1560DOPC   C1B18308  18.245   6.815  10.879 -0.1292 -0.2315  0.0698
 1560DOPC   D2B18309  18.148   7.051  11.257 -0.0794 -0.3793 -0.1817
 1560DOPC   C3B18310  18.102   7.520  11.213  0.2560 -0.1704  0.2637
 1560DOPC   C4B18311  17.761   7.808  11.096 -0.3482 -0.2162 -0.1269
 1561DOPC   NC318312  19.661  10.376   8.875 -0.2726 -0.3474 -0.1726
 1561DOPC   PO418313  19.289  10.353   8.894  0.0208  0.0901  0.1474
 1561DOPC   GL118314  19.490  10.520   9.261 -0.1749 -0.1510 -0.0286
 1561DOPC   GL218315  19.548  10.823   9.179  0.1841  0.1612  0.1638
 1561DOPC   C1A18316  19.705  10.510   9.717  0.2830 -0.1824  0.4520
 1561DOPC   D2A18317  19.700  10.592  10.142  0.0765 -0.3309 -0.0206
 1561DOPC   C3A18318  19.333  10.670  10.419  0.1645  0.2735  0.4523
 1561DOPC   C4A18319  19.154  10.464  10.782 -0.2919 -0.1101 -0.0831
 1561DOPC   C1B18320  19.350  11.109   9.484 -0.2444 -0.0074  0.1070
 1561DOPC   D2B18321  19.197  11.522   9.712 -0.1589 -0.0459  0.0622
 1561DOPC   C3B18322  19.452  11.964   9.722 -0.1738  0.1138  0.2757
 1561DOPC   C4B18323  19.414  12.371   9.975 -0.1316  0.0541 -0.2703
 1562DOPE   NH318324  16.929   6.800   9.848  0.1795  0.2995 -0.0574
 1562DOPE   PO418325  16.744   6.842  10.124 -0.2047 -0.0966 -0.1473
 1562DOPE   GL118326  16.726   7.157  10.306  0.2705 -0.0045  0.0429
 1562DOPE   GL218327  16.690   7.448  10.258  0.0418 -0.1513  0.3452
 1562DOPE   C1A18328  16.858   7.365  10.725 -0.2318 -0.0216 -0.0127
 1562DOPE   D2A18329  17.202   7.254  10.943 -0.2786 -0.0464  0.2937
 1562DOPE   C3A18330  17.245   7.573  11.241  0.1708  0.0528 -0.0314
 1562DOPE   C4A18331  17.296   7.963  11.465 -0.0584 -0.3097  0.2222
 1562DOPE   C1B18332  16.539   7.750  10.613  0.2707 -0.2760  0.0080
 1562DOPE   D2B18333  16.301   7.605  10.992 -0.0022  0.2122  0.0706
 1562DOPE   C3B18334  16.416   7.794  11.390  0.1043 -0.0054 -0.0322
 1562DOPE   C4B18335  16.400   8.003  11.779 -0.0636  0.0936 -0.1085
 1563DOPE   NH318336  14.403   9.640   8.980 -0.2437 -0.0289  0.1692
 1563DOPE   PO418337  14.555   9.853   9.169  0.1491 -0.0045  0.0756
 1563DOPE   GL118338  14.609   9.858   9.504  0.0858 -0.2599  0.1398
 1563DOPE   GL218339  14.948  10.009   9.474 -0.0609 -0.1142  0.1059
 1563DOPE   C1A18340  14.324   9.713   9.831 -0.0060 -0.1137  0.0787
 1563DOPE   D2A18341  13.977   9.407   9.981  0.1530 -0.0641  0.0382
 1563DOPE   C3A18342  14.001   9.522  10.420 -0.1244  0.1958  0.1773
 1563DOPE   C4A18343  14.113   9.773  10.808 -0.2569  0.1611  0.2577
 1563DOPE   C1B18344  14.941  10.231   9.879 -0.1911  0.0534  0.0451
 1563DOPE   D2B18345  14.939  10.677   9.986  0.0245 -0.1815 -0.0645
 1563DOPE   C3B18346  15.048  10.775  10.412  0.2243  0.3361 -0.2159
 1563DOPE   C4B18347  15.069  10.729  10.887 -0.0040  0.4615 -0.1379
 1564DOPC   NC318348  10.202   4.788  10.546 -0.1896 -0.0126  0.0733
 1564DOPC   PO418349  10.211   4.555  10.820 -0.0005 -0.1515  0.2598
 1564DOPC   GL118350  10.252   4.555  11.254 -0.0841 -0.2731 -0.1047
 1564DOPC   GL218351  10.543   4.402  11.201  0.0585  0.3595 -0.0669
 1564DOPC   C1A18352  10.010   4.308  11.566  0.2396 -0.2287 -0.0572
 1564DOPC   D2A18353  10.044   4.360  12.037  0.0526  0.0312  0.1444
 1564DOPC   C3A18354  10.036   4.025  12.359  0.0257  0.2167  0.1430
 1564DOPC   C4A18355  10.256   3.822  12.689  0.1317  0.2436 -0.0801
 1564DOPC   C1B18356  10.437   4.552  11.631 -0.2318 -0.0608 -0.1786
 1564DOPC   D2B18357  10.604   4.778  11.951  0.0389  0.0079  0.2264
 1564DOPC   C3B18358  10.382   4.688  12.341  0.0709 -0.3217  0.1589
 1564DOPC   C4B18359  10.414   4.773  12.782 -0.1008 -0.1825  0.2170
 1565DOPE   NH318360  19.044   6.261  10.307  0.2808  0.1647  0.0770
 1565DOPE   PO418361  19.161   6.440  10.074 -0.1516  0.0287  0.0436
 1565DOPE   GL118362  19.228   6.630  10.479  0.4328 -0.3983 -0.5456
 1565DOPE   GL218363  19.336   6.463  10.661 -0.1798 -0.1088 -0.0004
 1565DOPE   C1A18364  19.499   6.985  10.699 -0.0472  0.1442  0.0893
 1565DOPE   D2A18365  19.714   7.305  10.981 -0.2978 -0.0904 -0.0438
 1565DOPE   C3A18366  19.460   7.427  11.372 -0.0045 -0.1493  0.2611
 1565DOPE   C4A18367  19.542   7.203  11.764 -0.2988 -0.0442 -0.3510
 1565DOPE   C1B18368  19.071   6.538  11.062 -0.1785 -0.1776  0.2035
 1565DOPE   D2B18369  19.360   6.450  11.455  0.3976 -0.0260  0.1211
 1565DOPE   C3B18370  19.794   6.458  11.582  0.1255 -0.1559  0.0062
 1565DOPE   C4B18371  20.253   6.551  11.527  0.1965  0.1033 -0.0676
 1566DOPS   CNO18372  22.208  11.538   9.580 -0.2373 -0.3833 -0.4105
 1566DOPS   PO418373  22.236  11.868   9.397  0.1135  0.1608  0.1648
 1566DOPS   GL118374  22.123  12.140   9.723 -0.4658  0.0301  0.0780
 1566DOPS   GL218375  22.129  11.913   9.954  0.1603  0.1574  0.1369
 1566DOPS   C1A18376  22.037  12.588   9.791 -0.1946 -0.2999  0.3014
 1566DOPS   D2A18377  21.692  12.772   9.996  0.0337  0.1499 -0.0007
 1566DOPS   C3A18378  21.183  12.800   9.895  0.2154  0.0733 -0.0117
 1566DOPS   C4A18379  20.731  12.708   9.718  0.0493 -0.1254  0.0002
 1566DOPS   C1B18380  22.362  12.345  10.066 -0.2872  0.2381 -0.2540
 1566DOPS   D2B18381  22.384  12.842  10.087 -0.0169  0.0441  0.1753
 1566DOPS   C3B18382  22.492  13.146  10.337 -0.2373  0.1243  0.1780
 1566DOPS   C4B18383  22.703  13.457  10.615  0.0288 -0.1381 -0.0908
 1567DOPC   NC318384  17.690   9.973   9.503 -0.0591 -0.0241 -0.3707
 1567DOPC   PO418385  17.785  10.313   9.342 -0.0403  0.0006  0.0225
 1567DOPC   GL118386  17.979  10.622   9.490  0.1118 -0.2285 -0.4224
 1567DOPC   GL218387  18.260  10.562   9.688  0.0921 -0.1470 -0.3009
 1567DOPC   C1A18388  17.881  10.989   9.706 -0.1612  0.0213 -0.0195
 1567DOPC   D2A18389  17.946  11.190  10.116 -0.3831 -0.2497 -0.3377
 1567DOPC   C3A18390  18.157  11.220  10.524  0.0377  0.1906  0.0512
 1567DOPC   C4A18391  18.527  11.513  10.673 -0.1054 -0.1396 -0.1514
 1567DOPC   C1B18392  18.562  10.565  10.051  0.1649  0.2443 -0.0313
 1567DOPC   D2B18393  18.970  10.380  10.243  0.0241  0.0505  0.0896
 1567DOPC   C3B18394  19.318  10.219  10.043  0.0870  0.0922 -0.0315
 1567DOPC   C4B18395  19.763  10.103   9.958  0.1150 -0.2878  0.4139
 1568POSM   NC318396  19.614   6.569  10.072  0.0958 -0.3489  0.1044
 1568POSM   PO418397  19.961   6.513   9.848 -0.0129 -0.1046  0.1219
 1568POSM   AM118398  20.043   6.585  10.132 -0.3729  0.1650  0.1138
 1568POSM   AM218399  20.222   6.678  10.307 -0.1861 -0.0871  0.1030
 1568POSM   T1A18400  19.775   6.601  10.535 -0.0444  0.1346  0.1365
 1568POSM   C2A18401  19.641   6.624  11.003  0.0056 -0.1452  0.3183
 1568POSM   C3A18402  19.707   6.877  11.400  0.3601  0.2254 -0.1851
 1568POSM   C1B18403  20.270   6.651  10.677 -0.1669 -0.1286  0.0360
 1568POSM   D2B18404  20.491   6.667  11.082 -0.3507  0.1556 -0.0584
 1568POSM   C3B18405  20.638   6.257  11.287  0.1345 -0.0128 -0.0824
 1568POSM   C4B18406  20.743   6.162  11.763 -0.1437  0.0668  0.1166
 1569DOPC   NC318407  12.062   7.178   9.826  0.1774  0.4029 -0.0107
 1569DOPC   PO418408  12.415   7.234   9.752 -0.1665 -0.1551  0.2681
 1569DOPC   GL118409  12.591   7.221  10.176  0.1490  0.1722  0.3300
 1569DOPC   GL218410  12.698   7.525  10.126 -0.1092  0.2740  0.2225
 1569DOPC   C1A18411  12.647   7.005  10.621 -0.1576  0.0575 -0.0413
 1569DOPC   D2A18412  12.263   6.863  10.858  0.2387 -0.1843 -0.1656
 1569DOPC   C3A18413  12.328   6.545  11.219  0.0429  0.0669  0.2823
 1569DOPC   C4A18414  12.217   6.228  11.443  0.1703  0.0520  0.1417
 1569DOPC   C1B18415  12.462   7.522  10.534  0.0036  0.0265 -0.3359
 1569DOPC   D2B18416  12.255   7.529  10.953  0.0896  0.0490 -0.0255
 1569DOPC   C3B18417  11.903   7.810  11.111 -0.1807  0.0330  0.0640
 1569DOPC   C4B18418  11.625   8.162  11.282 -0.0928  0.1554  0.1304
 1570POSM   NC318419  19.659   9.091   9.176  0.0754  0.3119 -0.0900
 1570POSM   PO418420  19.504   8.924   9.506  0.0568  0.0333  0.0738
 1570POSM   AM118421  19.398   8.796   9.780  0.0430 -0.0884  0.2622
 1570POSM   AM218422  19.114   8.760   9.852 -0.1065 -0.3950  0.1486
 1570POSM   T1A18423  19.399   8.465  10.140  0.0169  0.3327  0.2124
 1570POSM   C2A18424  19.548   8.144  10.444  0.0670  0.1656  0.4270
 1570POSM   C3A18425  19.337   8.078  10.843 -0.2669 -0.0346  0.0726
 1570POSM   C1B18426  18.863   8.900  10.014 -0.0800  0.0432  0.1227
 1570POSM   D2B18427  18.638   8.928  10.388 -0.2894 -0.1045  0.0303
 1570POSM   C3B18428  18.631   8.664  10.774  0.2783 -0.1353 -0.2164
 1570POSM   C4B18429  18.636   8.502  11.255  0.0833  0.3393  0.1086
 1571DOPE   NH318430  13.367   7.195   9.748  0.0796 -0.1660  0.0597
 1571DOPE   PO418431  12.994   7.194   9.849  0.0936  0.2796 -0.0138
 1571DOPE   GL118432  13.053   7.269  10.161  0.0334  0.0846 -0.1100
 1571DOPE   GL218433  13.280   7.435  10.238  0.1491  0.0734  0.2657
 1571DOPE   C1A18434  12.926   7.434  10.575  0.0912 -0.1066  0.0687
 1571DOPE   D2A18435  12.946   7.593  11.036  0.0339  0.4284  0.0650
 1571DOPE   C3A18436  12.866   7.201  11.237  0.3033 -0.2027  0.1914
 1571DOPE   C4A18437  12.499   6.992  11.436 -0.0827  0.1328 -0.1004
 1571DOPE   C1B18438  13.660   7.698  10.144 -0.0569  0.0514  0.4325
 1571DOPE   D2B18439  13.822   8.091  10.283 -0.0622 -0.1512 -0.1761
 1571DOPE   C3B18440  13.799   8.248  10.719  0.1456 -0.1406 -0.1207
 1571DOPE   C4B18441  14.050   8.243  11.123 -0.0071  0.0210 -0.1480
 1572DOPE   NH318442  21.375   6.183   9.804 -0.1150  0.0426  0.3463
 1572DOPE   PO418443  21.536   6.193  10.102  0.1459  0.1163  0.1076
 1572DOPE   GL118444  21.696   6.391  10.469 -0.2665 -0.0545 -0.1906
 1572DOPE   GL218445  21.444   6.531  10.522 -0.1338 -0.0835  0.0399
 1572DOPE   C1A18446  21.654   6.333  10.963  0.1238 -0.2324  0.0169
 1572DOPE   D2A18447  21.882   6.266  11.333 -0.1177 -0.0794  0.0552
 1572DOPE   C3A18448  21.813   6.273  11.786  0.0419  0.3655 -0.0585
 1572DOPE   C4A18449  21.537   6.167  12.158  0.1813 -0.2438 -0.3223
 1572DOPE   C1B18450  21.503   6.924  10.691 -0.3179 -0.3130 -0.0841
 1572DOPE   D2B18451  21.727   7.241  10.883 -0.2480 -0.0999  0.0933
 1572DOPE   C3B18452  22.159   7.184  11.077  0.0004 -0.0690  0.0760
 1572DOPE   C4B18453  22.490   7.382  11.195 -0.0173 -0.1568  0.0889
 1573DOPS   CNO18454  22.574   0.747  11.441  0.2720 -0.4131  0.1989
 1573DOPS   PO418455  22.614   0.422  11.287  0.2648  0.2504  0.0978
 1573DOPS   GL118456  22.367   0.347  11.568  0.1890 -0.0587  0.0204
 1573DOPS   GL218457  22.029   0.374  11.515 -0.3454 -0.0185 -0.1846
 1573DOPS   C1A18458  22.327   0.337  12.017  0.0672  0.1779 -0.1149
 1573DOPS   D2A18459  22.009   0.456  12.294  0.0597  0.4501  0.2706
 1573DOPS   C3A18460  21.860   0.224  12.620 -0.2148 -0.0185  0.0642
 1573DOPS   C4A18461  21.590  -0.083  12.880  0.1542  0.0444 -0.0493
 1573DOPS   C1B18462  21.741   0.517  11.816 -0.0823  0.1178 -0.0094
 1573DOPS   D2B18463  21.831   0.877  12.089  0.0142  0.0833  0.1863
 1573DOPS   C3B18464  21.513   0.990  12.431 -0.1999  0.1748 -0.0226
 1573DOPS   C4B18465  21.208   0.943  12.791  0.0007 -0.0339 -0.2614
 1574DOPE   NH318466  11.942   1.256  10.192  0.0197 -0.3109 -0.0442
 1574DOPE   PO418467  11.877   1.421  10.439  0.0682 -0.0734  0.0318
 1574DOPE   GL118468  12.011   1.691  10.761  0.2423 -0.0564  0.1253
 1574DOPE   GL218469  11.740   1.704  10.920 -0.1132 -0.3492 -0.3009
 1574DOPE   C1A18470  12.210   2.029  11.051  0.1823  0.1281 -0.3088
 1574DOPE   D2A18471  11.974   2.384  11.282 -0.1525 -0.1632  0.1700
 1574DOPE   C3A18472  12.158   2.377  11.718  0.1730  0.2161  0.2990
 1574DOPE   C4A18473  12.273   2.284  12.176  0.0426 -0.1767  0.0434
 1574DOPE   C1B18474  11.605   1.575  11.324 -0.0305  0.1035 -0.0505
 1574DOPE   D2B18475  11.245   1.703  11.594 -0.1599 -0.3935 -0.0628
 1574DOPE   C3B18476  11.580   1.612  11.815  0.0984 -0.0904 -0.1586
 1574DOPE   C4B18477  11.659   1.360  12.135 -0.1246 -0.0494  0.2202
 1575DOPE   NH318478  23.032   2.147  11.124 -0.0479  0.0550 -0.1344
 1575DOPE   PO418479  22.860   2.028  11.369 -0.0506  0.3384 -0.1469
 1575DOPE   GL118480  22.583   2.065  11.606  0.4981  0.1626 -0.0288
 1575DOPE   GL218481  22.630   2.104  11.876  0.1163 -0.5916  0.1475
 1575DOPE   C1A18482  22.174   1.937  11.828  0.1162 -0.1623  0.1866
 1575DOPE   D2A18483  22.105   1.785  12.269 -0.1326 -0.0897 -0.0714
 1575DOPE   C3A18484  21.829   1.888  12.628  0.0547  0.0546  0.0875
 1575DOPE   C4A18485  21.422   1.695  12.440  0.1010 -0.3465 -0.2490
 1575DOPE   C1B18486  22.802   2.372  12.208  0.1103  0.1166 -0.2879
 1575DOPE   D2B18487  22.800   2.103  12.580 -0.0113  0.2331  0.2823
 1575DOPE   C3B18488  22.549   1.766  12.489  0.1057 -0.1404  0.1778
 1575DOPE   C4B18489  22.248   1.539  12.786  0.3526  0.1488  0.0340
 1576POSM   NC318490  24.233   9.871  10.142  0.0434 -0.1474 -0.0239
 1576POSM   PO418491  23.985   9.612  10.000 -0.2013  0.1028 -0.1786
 1576POSM   AM118492  23.901   9.537  10.310 -0.0250 -0.0313 -0.3044
 1576POSM   AM218493  24.045   9.505  10.578  0.0144 -0.3315  0.0578
 1576POSM   T1A18494  23.579   9.358  10.647 -0.2280 -0.0604 -0.1241
 1576POSM   C2A18495  23.491   9.487  11.063  0.0259 -0.3263 -0.3851
 1576POSM   C3A18496  23.490   9.681  11.484 -0.3941 -0.0930 -0.6691
 1576POSM   C1B18497  23.957   9.597  10.862  0.1306  0.3036 -0.0481
 1576POSM   D2B18498  23.966   9.658  11.314  0.2809  0.2642  0.0048
 1576POSM   C3B18499  24.124   9.467  11.671 -0.1809  0.1073  0.0960
 1576POSM   C4B18500  24.355   9.609  12.071  0.0498 -0.0480  0.1798
 1577DOPC   NC318501  22.731   8.732   9.736 -0.2802 -0.3071  0.1915
 1577DOPC   PO418502  22.966   9.025   9.697  0.1858 -0.2319  0.0407
 1577DOPC   GL118503  22.845   9.080  10.054  0.0867 -0.0151 -0.3022
 1577DOPC   GL218504  22.562   9.058  10.090  0.1864  0.2401  0.2808
 1577DOPC   C1A18505  22.877   8.997  10.477  0.0549 -0.0120  0.3670
 1577DOPC   D2A18506  22.956   8.907  10.906 -0.0727  0.0060  0.0365
 1577DOPC   C3A18507  23.093   8.510  10.972  0.6000 -0.3118 -0.0185
 1577DOPC   C4A18508  23.251   8.145  11.191 -0.4054  0.0382 -0.4299
 1577DOPC   C1B18509  22.404   9.280  10.483  0.2746 -0.1830 -0.1494
 1577DOPC   D2B18510  22.223   9.581  10.871 -0.3613  0.0133  0.1239
 1577DOPC   C3B18511  21.955   9.444  11.250 -0.2523  0.1306  0.2587
 1577DOPC   C4B18512  21.722   9.342  11.626  0.0219  0.0085 -0.2302
 1578DOPC   NC318513  15.692   2.272   9.902 -0.1183 -0.1798 -0.1228
 1578DOPC   PO418514  15.325   2.268  10.133  0.2884 -0.1056 -0.1014
 1578DOPC   GL118515  15.438   2.168  10.520 -0.1531  0.0012 -0.1902
 1578DOPC   GL218516  15.508   2.313  10.756  0.1066  0.1246  0.0205
 1578DOPC   C1A18517  15.252   1.881  10.821 -0.0017  0.0838  0.0373
 1578DOPC   D2A18518  15.056   1.861  11.188 -0.0840  0.2334  0.0123
 1578DOPC   C3A18519  15.014   1.465  11.404  0.0633 -0.0654 -0.4014
 1578DOPC   C4A18520  14.924   1.080  11.607 -0.0185  0.0731 -0.0461
 1578DOPC   C1B18521  15.345   2.324  11.230 -0.2939  0.3465  0.0673
 1578DOPC   D2B18522  15.317   2.211  11.629 -0.0431 -0.2050 -0.0098
 1578DOPC   C3B18523  15.137   1.815  11.751 -0.2176  0.2642 -0.1114
 1578DOPC   C4B18524  14.971   1.442  11.941 -0.0720 -0.0834  0.0147
 1579DOPE   NH318525  15.965   0.895   9.989  0.1588 -0.2122  0.1790
 1579DOPE   PO418526  16.013   1.176   9.964 -0.0764 -0.0414 -0.0808
 1579DOPE   GL118527  15.862   1.305  10.347 -0.0544  0.1790  0.2924
 1579DOPE   GL218528  15.794   0.984  10.456  0.1405  0.0587 -0.0108
 1579DOPE   C1A18529  15.981   1.305  10.803  0.0367  0.1923  0.1963
 1579DOPE   D2A18530  16.021   1.180  11.249  0.4175  0.0055 -0.1085
 1579DOPE   C3A18531  16.401   1.116  11.561 -0.1684 -0.1590  0.2995
 1579DOPE   C4A18532  16.731   1.220  11.883 -0.1765  0.3712 -0.3847
 1579DOPE   C1B18533  15.772   0.828  10.922  0.0154 -0.0087  0.1358
 1579DOPE   D2B18534  15.692   0.598  11.369  0.0628  0.1818 -0.3307
 1579DOPE   C3B18535  15.938   0.871  11.640  0.2507 -0.2116 -0.2697
 1579DOPE   C4B18536  16.005   1.157  12.024  0.1416  0.0069 -0.1953
 1580DOPE   NH318537  20.343   3.695   9.859 -0.0402  0.1566 -0.1555
 1580DOPE   PO418538  20.357   3.672  10.162 -0.0029 -0.2652 -0.1099
 1580DOPE   GL118539  20.418   3.941  10.507  0.0455 -0.3103 -0.3616
 1580DOPE   GL218540  20.567   3.966  10.805 -0.1135 -0.1453  0.3548
 1580DOPE   C1A18541  20.073   3.913  10.858  0.0789  0.4631 -0.1502
 1580DOPE   D2A18542  19.914   4.047  11.196  0.1503 -0.1852 -0.0028
 1580DOPE   C3A18543  19.887   3.872  11.555 -0.1743 -0.1754  0.0527
 1580DOPE   C4A18544  19.962   3.911  11.993  0.1523 -0.1224 -0.0581
 1580DOPE   C1B18545  20.423   4.052  11.255  0.1380 -0.1474  0.2784
 1580DOPE   D2B18546  20.480   3.820  11.667 -0.2560 -0.1905 -0.0828
 1580DOPE   C3B18547  20.169   3.410  11.779  0.0470 -0.2525  0.1894
 1580DOPE   C4B18548  19.932   3.008  11.795 -0.5647  0.1644 -0.0684
 1581POSM   NC318549  16.233   2.725   9.703 -0.2153  0.1492 -0.1013
 1581POSM   PO418550  16.030   2.664   9.997  0.1414  0.1934  0.0782
 1581POSM   AM118551  16.182   2.577  10.274  0.1527 -0.4700  0.4158
 1581POSM   AM218552  16.455   2.575  10.344  0.0127  0.2178 -0.0075
 1581POSM   T1A18553  16.198   2.400  10.744  0.2618 -0.0027  0.0228
 1581POSM   C2A18554  15.978   2.293  11.197 -0.0166 -0.2430  0.0934
 1581POSM   C3A18555  15.856   2.156  11.618  0.0334  0.1929 -0.1098
 1581POSM   C1B18556  16.673   2.548  10.615  0.0508 -0.1832 -0.0533
 1581POSM   D2B18557  16.602   2.455  11.024  0.2744  0.1151 -0.2913
 1581POSM   C3B18558  16.837   2.500  11.390 -0.0300  0.3803 -0.0526
 1581POSM   C4B18559  17.147   2.396  11.714  0.3045  0.0119  0.0861
 1582POSM   NC318560  18.791   6.330   9.760 -0.0125 -0.2344 -0.3121
 1582POSM   PO418561  18.680   6.063  10.031 -0.1377  0.1098 -0.1684
 1582POSM   AM118562  18.576   6.078  10.355 -0.3752 -0.1692  0.5922
 1582POSM   AM218563  18.421   6.297  10.461 -0.0587 -0.0929 -0.0574
 1582POSM   T1A18564  18.547   5.869  10.812  0.4232  0.1860 -0.1463
 1582POSM   C2A18565  18.472   5.740  11.262 -0.0286 -0.1340 -0.2228
 1582POSM   C3A18566  18.356   5.677  11.702  0.0634  0.3333  0.1783
 1582POSM   C1B18567  18.382   6.349  10.766  0.2367 -0.1751 -0.0354
 1582POSM   D2B18568  18.513   6.281  11.214  0.0884 -0.3154  0.1024
 1582POSM   C3B18569  18.166   6.145  11.542 -0.0849  0.1954 -0.2495
 1582POSM   C4B18570  18.147   6.030  12.003  0.0035 -0.0980  0.4869
 1583POSM   NC318571  16.983   9.421   9.251  0.0984 -0.1002 -0.0738
 1583POSM   PO418572  17.190   9.082   9.311  0.0462  0.0823 -0.3742
 1583POSM   AM118573  17.252   9.190   9.650  0.1822  0.2784 -0.0116
 1583POSM   AM218574  17.182   9.415   9.799  0.0256  0.0314  0.1491
 1583POSM   T1A18575  17.325   9.003  10.133 -0.1394 -0.1366 -0.0447
 1583POSM   C2A18576  17.432   8.623  10.462 -0.1456 -0.1525  0.1150
 1583POSM   C3A18577  17.777   8.425  10.762  0.5101 -0.1181  0.0116
 1583POSM   C1B18578  17.165   9.512  10.107  0.0542  0.0969 -0.2073
 1583POSM   D2B18579  17.036   9.462  10.543  0.0971 -0.0079 -0.1054
 1583POSM   C3B18580  16.785   9.600  10.893  0.1751  0.1135  0.2716
 1583POSM   C4B18581  16.781   9.543  11.326  0.0382  0.0870  0.4167
 1584POSM   NC318582  22.942   2.983  11.003 -0.1836  0.0454 -0.1903
 1584POSM   PO418583  23.054   2.659  11.125  0.1480 -0.0867  0.1871
 1584POSM   AM118584  22.883   2.624  11.436  0.1454 -0.1118  0.1512
 1584POSM   AM218585  22.974   2.463  11.636 -0.1775  0.0352  0.4916
 1584POSM   T1A18586  22.462   2.563  11.688 -0.0430  0.1402  0.0164
 1584POSM   C2A18587  22.317   2.791  12.047 -0.0650 -0.2099  0.1761
 1584POSM   C3A18588  22.311   2.800  12.522  0.0963  0.0009 -0.1612
 1584POSM   C1B18589  22.992   2.679  11.878  0.1968 -0.1890  0.1144
 1584POSM   D2B18590  22.775   2.878  12.251 -0.2697 -0.4306 -0.1854
 1584POSM   C3B18591  22.590   3.302  12.250 -0.1048 -0.1280  0.1781
 1584POSM   C4B18592  22.405   3.716  12.297 -0.1090  0.2172  0.2367
 1585DOPC   NC318593  14.682   5.740   9.972  0.1119 -0.2757  0.0832
 1585DOPC   PO418594  15.083   5.638   9.935 -0.1307  0.3033  0.1072
 1585DOPC   GL118595  15.088   5.789  10.271  0.1235 -0.0412 -0.0989
 1585DOPC   GL218596  14.786   5.655  10.432 -0.1962 -0.1726 -0.1006
 1585DOPC   C1A18597  15.284   5.934  10.643 -0.0850 -0.0191 -0.3358
 1585DOPC   D2A18598  15.716   6.068  10.848  0.2780 -0.3000  0.0843
 1585DOPC   C3A18599  15.933   5.825  11.096  0.2042 -0.0536  0.1087
 1585DOPC   C4A18600  16.261   5.846  11.353  0.2562 -0.1087  0.1194
 1585DOPC   C1B18601  15.004   5.524  10.775  0.2603  0.0454  0.4977
 1585DOPC   D2B18602  14.998   5.456  11.208  0.0867  0.5071  0.1021
 1585DOPC   C3B18603  15.288   5.393  11.586  0.1092  0.0293  0.1897
 1585DOPC   C4B18604  15.564   5.017  11.654 -0.2017  0.1780 -0.0267
 1586DOPC   NC318605  21.609  34.262  10.454  0.0360  0.0506 -0.0455
 1586DOPC   PO418606  21.571  34.372  10.872 -0.0946 -0.2747 -0.1995
 1586DOPC   GL118607  21.429  34.529  11.264 -0.3458 -0.4966 -0.2127
 1586DOPC   GL218608  21.175  34.436  11.299  0.0514  0.2190 -0.1489
 1586DOPC   C1A18609  21.588  34.641  11.692  0.0021  0.0837 -0.1163
 1586DOPC   D2A18610  21.749  34.814  12.083  0.0232 -0.2122 -0.0991
 1586DOPC   C3A18611  21.538  35.198  12.290 -0.0984  0.3621 -0.2896
 1586DOPC   C4A18612  21.149  35.378  12.354  0.1335  0.2875 -0.0050
 1586DOPC   C1B18613  20.879  34.382  11.673 -0.0402  0.0398  0.1455
 1586DOPC   D2B18614  20.658  34.427  12.061  0.0002 -0.5182 -0.0418
 1586DOPC   C3B18615  20.906  34.273  12.394 -0.0191 -0.0343  0.0587
 1586DOPC   C4B18616  21.089  34.394  12.782  0.1249  0.0558  0.1537
 1587DOPE   NH318617  19.665   8.115   9.244  0.1759 -0.2225  0.1974
 1587DOPE   PO418618  19.873   7.894   9.327 -0.0736  0.1519 -0.0673
 1587DOPE   GL118619  19.788   8.057   9.794 -0.4057 -0.3028  0.2380
 1587DOPE   GL218620  19.459   8.012   9.960 -0.1943 -0.1895 -0.2241
 1587DOPE   C1A18621  20.074   8.131  10.176 -0.0648 -0.1020  0.0208
 1587DOPE   D2A18622  20.260   7.961  10.544  0.2830  0.0330  0.2369
 1587DOPE   C3A18623  20.344   8.129  10.998 -0.3500 -0.0016 -0.0831
 1587DOPE   C4A18624  20.320   8.530  11.142 -0.0892  0.0785  0.3535
 1587DOPE   C1B18625  19.610   7.721  10.242  0.0237 -0.2646  0.1062
 1587DOPE   D2B18626  19.894   7.646  10.609  0.2817 -0.0705 -0.0112
 1587DOPE   C3B18627  19.817   7.893  10.991 -0.0175  0.2892 -0.3027
 1587DOPE   C4B18628  19.509   7.951  11.294  0.0713  0.0676 -0.2418
 1588DOPC   NC318629  20.033   5.552   9.743  0.1830  0.1895 -0.1047
 1588DOPC   PO418630  20.233   5.687  10.044 -0.5266  0.2222  0.1909
 1588DOPC   GL118631  20.156   5.657  10.429  0.1814 -0.2083 -0.0245
 1588DOPC   GL218632  20.100   5.415  10.506 -0.0513 -0.3557  0.0408
 1588DOPC   C1A18633  19.766   5.694  10.681  0.1080 -0.1793  0.0255
 1588DOPC   D2A18634  19.375   5.869  10.815 -0.3881 -0.0368 -0.1078
 1588DOPC   C3A18635  19.455   6.017  11.241 -0.1862 -0.2823  0.0135
 1588DOPC   C4A18636  19.895   5.950  11.415  0.3154 -0.0752 -0.1599
 1588DOPC   C1B18637  20.117   5.177  10.942  0.2569  0.1142  0.0057
 1588DOPC   D2B18638  20.253   5.216  11.402  0.0466 -0.1926 -0.1612
 1588DOPC   C3B18639  20.268   5.665  11.571 -0.3050  0.0885  0.0586
 1588DOPC   C4B18640  20.274   6.104  11.765  0.0024 -0.1334  0.1871
 1589DOPC   NC318641  21.578   8.666  10.214 -0.0337  0.0893  0.0486
 1589DOPC   PO418642  21.317   8.477  10.005  0.3367 -0.0191  0.2788
 1589DOPC   GL118643  21.120   8.518  10.284  0.0060 -0.0752 -0.0569
 1589DOPC   GL218644  20.946   8.271  10.291  0.4083  0.0422  0.0256
 1589DOPC   C1A18645  21.091   8.826  10.636 -0.1895  0.0795  0.3072
 1589DOPC   D2A18646  21.265   9.105  10.989 -0.1671 -0.1507  0.2245
 1589DOPC   C3A18647  21.454   8.932  11.413  0.1618 -0.3223 -0.0911
 1589DOPC   C4A18648  21.849   8.873  11.587 -0.0900 -0.0884  0.1030
 1589DOPC   C1B18649  20.746   8.459  10.661 -0.1841 -0.3666 -0.0119
 1589DOPC   D2B18650  20.824   8.325  11.034 -0.0114  0.2329  0.0762
 1589DOPC   C3B18651  20.649   8.133  11.408 -0.2201 -0.0256  0.0137
 1589DOPC   C4B18652  20.504   7.761  11.523  0.2005 -0.1414  0.2324
 1590DOPS   CNO18653  23.644  13.658   9.535 -0.1963  0.1381  0.1053
 1590DOPS   PO418654  23.677  13.294   9.619  0.1251 -0.4636 -0.1796
 1590DOPS   GL118655  23.452  13.362   9.917  0.1626  0.1854 -0.2162
 1590DOPS   GL218656  23.590  13.556  10.067  0.1688 -0.0460 -0.1461
 1590DOPS   C1A18657  23.044  13.480  10.145 -0.0331  0.0107  0.1489
 1590DOPS   D2A18658  22.627  13.683  10.170 -0.0788 -0.1695 -0.3041
 1590DOPS   C3A18659  22.601  13.927  10.573  0.2396  0.1397  0.1569
 1590DOPS   C4A18660  22.795  13.882  11.020  0.0618  0.2450 -0.0772
 1590DOPS   C1B18661  23.495  13.965  10.230  0.0093  0.2590  0.1567
 1590DOPS   D2B18662  23.554  14.146  10.635 -0.3264  0.0544 -0.0824
 1590DOPS   C3B18663  23.609  13.946  11.068  0.1609  0.0795 -0.0811
 1590DOPS   C4B18664  23.352  13.636  11.230  0.0466 -0.1118  0.0865
 1591POSM   NC318665  23.169   6.349  10.607  0.0602  0.4546 -0.1478
 1591POSM   PO418666  23.569   6.419  10.518  0.2315 -0.1456 -0.1521
 1591POSM   AM118667  23.590   6.545  10.817  0.0803 -0.1499 -0.0467
 1591POSM   AM218668  23.545   6.413  11.042 -0.0422  0.0410 -0.1847
 1591POSM   T1A18669  23.420   6.849  11.205  0.1862  0.0146 -0.0917
 1591POSM   C2A18670  23.357   7.319  11.141  0.1924 -0.0827 -0.3568
 1591POSM   C3A18671  23.267   7.547  10.761  0.1276 -0.3150 -0.0974
 1591POSM   C1B18672  23.372   6.367  11.333 -0.1421  0.2762 -0.0758
 1591POSM   D2B18673  23.205   6.278  11.747  0.0212 -0.0228 -0.0954
 1591POSM   C3B18674  23.150   6.538  12.123  0.0928  0.0018  0.0197
 1591POSM   C4B18675  22.813   6.694  12.382  0.1237 -0.0889  0.0708
 1592DOPS   CNO18676  19.357   7.799   9.489 -0.0459 -0.2097 -0.2621
 1592DOPS   PO418677  19.026   7.700   9.401 -0.1114 -0.1267  0.0103
 1592DOPS   GL118678  18.971   7.720   9.710 -0.1230 -0.2095  0.0421
 1592DOPS   GL218679  18.824   7.484   9.836  0.2574 -0.2867 -0.3232
 1592DOPS   C1A18680  18.997   7.922  10.140 -0.0292 -0.0649 -0.1371
 1592DOPS   D2A18681  19.078   7.801  10.567  0.0746 -0.3685  0.0103
 1592DOPS   C3A18682  18.686   7.712  10.846 -0.1987 -0.0517  0.3419
 1592DOPS   C4A18683  18.555   7.744  11.338  0.1734  0.2895  0.0037
 1592DOPS   C1B18684  19.009   7.405  10.261 -0.3463 -0.0063 -0.0475
 1592DOPS   D2B18685  19.409   7.443  10.611  0.1000 -0.0815 -0.1454
 1592DOPS   C3B18686  19.090   7.477  10.950 -0.2350  0.1629 -0.1564
 1592DOPS   C4B18687  18.858   7.310  11.346 -0.0125  0.1271  0.0237
 1593POSM   NC318688  13.276   4.957   9.628 -0.2644  0.2153  0.2988
 1593POSM   PO418689  12.912   5.062   9.837  0.0120  0.2580 -0.1532
 1593POSM   AM118690  13.097   4.957  10.062  0.1788  0.3047 -0.1155
 1593POSM   AM218691  13.364   4.949  10.089  0.2824  0.0158  0.2780
 1593POSM   T1A18692  13.130   4.774  10.533 -0.2290  0.2789  0.0881
 1593POSM   C2A18693  13.376   4.822  10.937  0.0976 -0.0150 -0.4015
 1593POSM   C3A18694  13.187   4.884  11.372  0.2479  0.4249 -0.1613
 1593POSM   C1B18695  13.443   5.134  10.345 -0.3465 -0.2288  0.0331
 1593POSM   D2B18696  13.559   5.236  10.779 -0.0906 -0.1145  0.0222
 1593POSM   C3B18697  13.655   5.074  11.212 -0.1929 -0.3264 -0.3475
 1593POSM   C4B18698  13.578   4.914  11.674 -0.0491  0.1610  0.0103
 1594DOPC   NC318699  19.225   5.505   9.870 -0.1717 -0.0860 -0.1064
 1594DOPC   PO418700  19.054   5.691  10.160 -0.2635 -0.2704 -0.1569
 1594DOPC   GL118701  18.995   5.826  10.484  0.2893 -0.2096  0.1320
 1594DOPC   GL218702  18.921   5.591  10.672 -0.1371  0.1843 -0.4492
 1594DOPC   C1A18703  18.921   6.117  10.861  0.1672  0.3228  0.0266
 1594DOPC   D2A18704  18.937   6.126  11.350 -0.0446  0.0921 -0.0331
 1594DOPC   C3A18705  18.823   6.477  11.588  0.1964  0.0752  0.1948
 1594DOPC   C4A18706  18.980   6.590  11.992 -0.0952  0.1178 -0.3569
 1594DOPC   C1B18707  18.931   5.725  11.105 -0.2890  0.2186 -0.0352
 1594DOPC   D2B18708  18.862   5.560  11.553 -0.1344 -0.2966 -0.2086
 1594DOPC   C3B18709  18.973   5.865  11.848 -0.1046  0.0187 -0.2272
 1594DOPC   C4B18710  19.272   6.247  11.891  0.2764 -0.0364  0.3567
 1595DOPC   NC318711  19.646   7.097  10.256  0.1257  0.0617  0.2767
 1595DOPC   PO418712  19.922   7.007   9.935 -0.3418 -0.2265 -0.0982
 1595DOPC   GL118713  20.308   7.114  10.119  0.0616 -0.0518 -0.2924
 1595DOPC   GL218714  20.166   7.299  10.263  0.1845 -0.2202  0.0242
 1595DOPC   C1A18715  20.500   7.055  10.573 -0.1499  0.0491 -0.0851
 1595DOPC   D2A18716  20.498   7.114  11.001 -0.1417  0.1697  0.2435
 1595DOPC   C3A18717  20.674   7.237  11.394 -0.1141  0.0479 -0.4904
 1595DOPC   C4A18718  21.103   7.132  11.550  0.1978 -0.1147 -0.3103
 1595DOPC   C1B18719  19.979   7.080  10.656  0.0595  0.0358 -0.0079
 1595DOPC   D2B18720  20.071   6.890  11.079  0.1659  0.1040 -0.1560
 1595DOPC   C3B18721  20.236   7.053  11.472  0.4218 -0.2898 -0.2453
 1595DOPC   C4B18722  20.445   6.911  11.910 -0.0982  0.1558 -0.0136
 1596DOPC   NC318723  14.828  34.251  10.789 -0.1677 -0.1975  0.0626
 1596DOPC   PO418724  14.460  34.236  10.629  0.0307  0.1492 -0.0390
 1596DOPC   GL118725  14.367  34.165  11.012  0.0426  0.1930  0.0644
 1596DOPC   GL218726  14.140  33.961  11.099 -0.0863 -0.1990  0.0556
 1596DOPC   C1A18727  14.599  33.967  11.422 -0.3742 -0.0204 -0.0971
 1596DOPC   D2A18728  14.835  33.949  11.788  0.2282 -0.1324 -0.0882
 1596DOPC   C3A18729  14.563  34.130  12.089 -0.2514 -0.0655  0.0322
 1596DOPC   C4A18730  14.452  34.524  12.217 -0.1011  0.0186  0.1198
 1596DOPC   C1B18731  14.055  33.985  11.561  0.0579  0.0811  0.3304
 1596DOPC   D2B18732  13.950  33.884  12.000 -0.0415 -0.0307  0.2583
 1596DOPC   C3B18733  13.775  33.580  12.275  0.0140 -0.0672 -0.0600
 1596DOPC   C4B18734  13.632  33.200  12.114 -0.1376 -0.0865  0.2395
 1597POSM   NC318735  21.837  11.613   9.164 -0.2636  0.0456 -0.3016
 1597POSM   PO418736  21.697  11.361   9.392 -0.1316  0.2632  0.0887
 1597POSM   AM118737  21.740  11.545   9.684  0.1468  0.0404 -0.0617
 1597POSM   AM218738  21.689  11.851   9.734 -0.0558 -0.0128 -0.0541
 1597POSM   T1A18739  21.862  11.579  10.166  0.1859  0.3006  0.2518
 1597POSM   C2A18740  21.789  11.930  10.487 -0.3086  0.1496  0.1185
 1597POSM   C3A18741  21.912  12.206  10.837 -0.0575  0.0032  0.1390
 1597POSM   C1B18742  21.430  11.799   9.960 -0.4205 -0.0622  0.1119
 1597POSM   D2B18743  21.305  11.424  10.167  0.0482 -0.1390  0.1046
 1597POSM   C3B18744  21.497  11.341  10.584  0.2306 -0.3275 -0.1914
 1597POSM   C4B18745  21.791  11.054  10.846  0.0802 -0.0404 -0.1415
 1598POSM   NC318746  14.028   5.223   9.437  0.0194 -0.4368 -0.1189
 1598POSM   PO418747  14.262   5.193   9.766  0.3248 -0.0719 -0.0581
 1598POSM   AM118748  14.068   5.391   9.972  0.1457 -0.0684  0.0185
 1598POSM   AM218749  14.155   5.668  10.044  0.2064 -0.1043  0.2764
 1598POSM   T1A18750  13.630   5.647  10.125  0.0541 -0.2862  0.1740
 1598POSM   C2A18751  13.412   5.985  10.296  0.4288  0.0652  0.0312
 1598POSM   C3A18752  13.134   6.328  10.198  0.1099 -0.1431  0.1587
 1598POSM   C1B18753  14.219   5.725  10.345  0.1468  0.0113 -0.0187
 1598POSM   D2B18754  14.401   5.589  10.818 -0.0104  0.0848  0.0403
 1598POSM   C3B18755  14.119   5.385  11.080  0.2214 -0.1398 -0.0121
 1598POSM   C4B18756  14.071   5.287  11.538  0.0432 -0.1802 -0.1706
 1599DOPE   NH318757  15.082   2.850  10.227  0.3864 -0.0845  0.3415
 1599DOPE   PO418758  14.905   3.139  10.143 -0.0745  0.0384 -0.0194
 1599DOPE   GL118759  14.905   3.300  10.485  0.2616 -0.0987  0.1144
 1599DOPE   GL218760  15.069   3.537  10.594  0.4466  0.0424 -0.2674
 1599DOPE   C1A18761  14.661   3.424  10.871  0.3939  0.2185 -0.2502
 1599DOPE   D2A18762  14.285   3.671  10.903 -0.1785 -0.2101 -0.3278
 1599DOPE   C3A18763  14.291   3.850  11.319  0.1075  0.0101 -0.2636
 1599DOPE   C4A18764  14.353   3.924  11.758  0.1684  0.2885 -0.0808
 1599DOPE   C1B18765  14.945   3.789  11.003  0.0174 -0.0674  0.0941
 1599DOPE   D2B18766  14.767   3.584  11.358  0.2822 -0.2244 -0.0444
 1599DOPE   C3B18767  14.897   3.279  11.626 -0.3492  0.1067 -0.3987
 1599DOPE   C4B18768  14.864   3.151  12.065 -0.0215  0.2963 -0.2177
 1600DOPS   CNO18769  22.996   4.860  10.467 -0.2447 -0.0713  0.0783
 1600DOPS   PO418770  22.844   4.626  10.674  0.1373 -0.0129 -0.0754
 1600DOPS   GL118771  22.827   4.871  10.985  0.3423  0.0856  0.1193
 1600DOPS   GL218772  22.748   4.667  11.216 -0.0233  0.1334  0.0732
 1600DOPS   C1A18773  22.562   5.102  11.277  0.0839 -0.2131 -0.2662
 1600DOPS   D2A18774  22.216   4.990  11.566 -0.1868 -0.0320  0.1539
 1600DOPS   C3A18775  22.123   4.657  11.252 -0.1571  0.0529 -0.3049
 1600DOPS   C4A18776  22.065   4.231  11.157 -0.0560 -0.0264 -0.1753
 1600DOPS   C1B18777  22.685   4.841  11.656  0.1442 -0.2924  0.0298
 1600DOPS   D2B18778  22.486   5.089  11.987 -0.2358 -0.0126  0.0319
 1600DOPS   C3B18779  22.051   5.311  12.020 -0.0754  0.0545 -0.1033
 1600DOPS   C4B18780  21.867   5.212  12.413 -0.1203  0.0887 -0.0631
 1601DOPE   NH318781  25.634  12.682  10.612  0.2626  0.0185 -0.0028
 1601DOPE   PO418782  25.394  12.508  10.522 -0.1636  0.5754  0.0671
 1601DOPE   GL118783  25.337  12.407  10.885 -0.1395  0.0037  0.1946
 1601DOPE   GL218784  25.322  12.179  11.067  0.0632  0.0095 -0.0214
 1601DOPE   C1A18785  25.128  12.607  11.275  0.0188  0.0209  0.0014
 1601DOPE   D2A18786  24.821  12.898  11.528  0.2290  0.3131  0.0913
 1601DOPE   C3A18787  24.950  13.046  11.962  0.0955  0.0742 -0.1219
 1601DOPE   C4A18788  24.957  13.371  12.298 -0.3626  0.0821  0.0077
 1601DOPE   C1B18789  25.093  11.899  11.396 -0.0758  0.4003 -0.3739
 1601DOPE   D2B18790  24.946  11.920  11.814  0.1249 -0.2282 -0.5152
 1601DOPE   C3B18791  24.847  11.543  12.037  0.1133 -0.1425  0.3269
 1601DOPE   C4B18792  24.629  11.193  12.203 -0.0918  0.0595 -0.1315
 1602DOPC   NC318793  12.491   6.259  10.045 -0.3506 -0.0257  0.0567
 1602DOPC   PO418794  12.083   6.209  10.045 -0.0250 -0.0658  0.0422
 1602DOPC   GL118795  12.182   6.278  10.447  0.0009 -0.0049  0.1491
 1602DOPC   GL218796  12.312   6.068  10.607  0.1543  0.3082  0.1124
 1602DOPC   C1A18797  11.942   6.240  10.892 -0.0531  0.0444 -0.1153
 1602DOPC   D2A18798  11.663   6.168  11.289 -0.0270 -0.0802  0.0699
 1602DOPC   C3A18799  11.599   6.517  11.606 -0.3469  0.3524 -0.1287
 1602DOPC   C4A18800  11.699   6.665  12.026 -0.1853 -0.2268  0.0905
 1602DOPC   C1B18801  12.465   6.016  11.024 -0.1458 -0.0472 -0.0450
 1602DOPC   D2B18802  12.711   6.161  11.384  0.1558  0.1091 -0.2273
 1602DOPC   C3B18803  13.040   6.365  11.590  0.0328 -0.2405  0.1259
 1602DOPC   C4B18804  13.508   6.416  11.711  0.1854  0.4614  0.2083
 1603DOPC   NC318805  15.917   3.110  10.373  0.4351  0.3668 -0.1736
 1603DOPC   PO418806  16.297   3.056  10.271  0.0985 -0.1159  0.2147
 1603DOPC   GL118807  16.551   2.985  10.566  0.0407 -0.3482  0.1543
 1603DOPC   GL218808  16.840   3.063  10.632 -0.1496  0.1027 -0.1264
 1603DOPC   C1A18809  16.529   2.996  11.053  0.4021 -0.3004  0.1508
 1603DOPC   D2A18810  16.721   3.038  11.465  0.1278  0.0063  0.0682
 1603DOPC   C3A18811  16.597   3.195  11.879  0.2987  0.0952 -0.0029
 1603DOPC   C4A18812  16.377   3.515  12.123  0.1332  0.2981 -0.0408
 1603DOPC   C1B18813  16.998   3.185  11.062 -0.1014 -0.1869 -0.0176
 1603DOPC   D2B18814  17.384   3.304  11.273  0.0524 -0.0280 -0.0565
 1603DOPC   C3B18815  17.373   3.371  11.766 -0.1346  0.0196  0.0375
 1603DOPC   C4B18816  17.547   3.234  12.183 -0.1968  0.0698  0.0680
 1604POSM   NC318817  22.139   8.278   9.953 -0.3050  0.0170 -0.2370
 1604POSM   PO418818  21.773   8.237  10.066  0.2161  0.1345 -0.0999
 1604POSM   AM118819  21.669   8.241  10.392  0.0380  0.2632 -0.0642
 1604POSM   AM218820  21.397   8.127  10.473  0.0283  0.2385 -0.1907
 1604POSM   T1A18821  21.794   8.247  10.876  0.0454  0.0915  0.2110
 1604POSM   C2A18822  22.153   8.398  11.118 -0.0988  0.3153  0.0324
 1604POSM   C3A18823  22.240   8.330  11.559  0.5226  0.3158  0.0500
 1604POSM   C1B18824  21.324   8.407  10.676 -0.2587  0.0442 -0.1213
 1604POSM   D2B18825  21.353   8.579  11.104  0.0180 -0.0919 -0.1428
 1604POSM   C3B18826  21.612   8.394  11.414  0.0215 -0.1216  0.0039
 1604POSM   C4B18827  21.757   8.453  11.839 -0.0645  0.1520  0.1202
 1605POSM   NC318828  10.984   8.932   9.286 -0.0766 -0.3373 -0.1520
 1605POSM   PO418829  11.292   9.211   9.273 -0.0439 -0.2145 -0.2594
 1605POSM   AM118830  11.348   9.314   9.586  0.1927  0.1619  0.1524
 1605POSM   AM218831  11.578   9.363   9.739  0.0574 -0.0742 -0.1076
 1605POSM   T1A18832  11.127   9.596   9.965  0.4643  0.2933  0.0447
 1605POSM   C2A18833  10.956   9.669  10.376 -0.1759  0.4073 -0.4359
 1605POSM   C3A18834  10.832   9.720  10.787  0.2020  0.0645  0.0908
 1605POSM   C1B18835  11.670   9.423  10.058 -0.0404 -0.2051 -0.0312
 1605POSM   D2B18836  11.838   9.365  10.502  0.1896  0.0618  0.0398
 1605POSM   C3B18837  11.786   9.364  10.997 -0.0343 -0.0175  0.0383
 1605POSM   C4B18838  11.889   9.411  11.457  0.1382 -0.0234 -0.1343
 1606DOPS   CNO18839  19.247   3.548   9.925  0.0008 -0.3063  0.1314
 1606DOPS   PO418840  19.564   3.697   9.924 -0.0445  0.1318 -0.1284
 1606DOPS   GL118841  19.569   3.599  10.333 -0.3224  0.0006 -0.1990
 1606DOPS   GL218842  19.840   3.599  10.466 -0.0196 -0.1357  0.2414
 1606DOPS   C1A18843  19.423   3.836  10.716  0.2585 -0.1218  0.1437
 1606DOPS   D2A18844  19.453   4.222  11.013  0.1611  0.2204  0.3748
 1606DOPS   C3A18845  19.049   4.254  11.205  0.3667 -0.4796  0.1663
 1606DOPS   C4A18846  18.882   4.227  11.626 -0.0014 -0.0031  0.1797
 1606DOPS   C1B18847  19.714   3.446  10.882 -0.0130 -0.1109 -0.0365
 1606DOPS   D2B18848  19.610   3.679  11.245 -0.0107  0.1141  0.1009
 1606DOPS   C3B18849  19.463   4.083  11.480 -0.3179  0.1636 -0.2593
 1606DOPS   C4B18850  19.539   4.098  11.894  0.2850  0.0739 -0.1120
 1607POSM   NC318851  13.932   1.453  10.135 -0.1439 -0.1627 -0.0820
 1607POSM   PO418852  14.004   1.081  10.269  0.1297 -0.1828  0.0462
 1607POSM   AM118853  14.171   1.182  10.539 -0.2035  0.1804 -0.3283
 1607POSM   AM218854  14.458   1.290  10.595 -0.0995  0.0050 -0.0634
 1607POSM   T1A18855  14.109   1.409  10.960  0.0581  0.0832 -0.1252
 1607POSM   C2A18856  13.758   1.756  11.085 -0.1620  0.0038 -0.1568
 1607POSM   C3A18857  13.675   2.180  10.965  0.0092  0.1283  0.3939
 1607POSM   C1B18858  14.454   1.103  10.883 -0.3117  0.2899 -0.3313
 1607POSM   D2B18859  14.488   1.037  11.315 -0.1374  0.0522 -0.1824
 1607POSM   C3B18860  14.447   1.425  11.615  0.0168 -0.1167 -0.2125
 1607POSM   C4B18861  14.452   1.681  12.023  0.0085 -0.0673 -0.2177
 1608DOPE   NH318862  18.849  10.141   8.893  0.0069  0.0885 -0.1434
 1608DOPE   PO418863  18.948   9.924   9.159 -0.0408  0.1145 -0.0250
 1608DOPE   GL118864  19.033   9.637   9.484 -0.0369 -0.1026 -0.4125
 1608DOPE   GL218865  19.309   9.415   9.471 -0.2179  0.0660  0.0804
 1608DOPE   C1A18866  19.020   9.834   9.868 -0.1552 -0.0841  0.0542
 1608DOPE   D2A18867  19.174   9.790  10.277  0.2130  0.1551 -0.3145
 1608DOPE   C3A18868  18.926   9.887  10.630  0.1530 -0.1625  0.2201
 1608DOPE   C4A18869  18.840   9.713  11.106 -0.0335 -0.4799 -0.0993
 1608DOPE   C1B18870  19.476   9.698   9.761 -0.3264  0.1890 -0.3066
 1608DOPE   D2B18871  19.651   9.766  10.244  0.0155 -0.0843  0.1578
 1608DOPE   C3B18872  19.470   9.684  10.659  0.2995 -0.1418  0.1080
 1608DOPE   C4B18873  19.176   9.438  10.904  0.1873 -0.0102 -0.2328
 1609DOPE   NH318874  16.268   3.509  10.056 -0.0200 -0.0087  0.2198
 1609DOPE   PO418875  16.030   3.548  10.240  0.0310 -0.1564  0.2703
 1609DOPE   GL118876  16.043   3.542  10.529  0.1620  0.3078 -0.1107
 1609DOPE   GL218877  15.829   3.657  10.669  0.1154  0.0019 -0.1230
 1609DOPE   C1A18878  16.117   3.185  10.859 -0.0568  0.0351 -0.1184
 1609DOPE   D2A18879  16.123   2.805  11.118  0.1706 -0.0962 -0.0782
 1609DOPE   C3A18880  16.366   2.677  11.469 -0.1021 -0.1554  0.0341
 1609DOPE   C4A18881  16.606   2.617  11.910 -0.0421  0.0511  0.0003
 1609DOPE   C1B18882  15.439   3.710  10.963 -0.1591  0.0731 -0.0465
 1609DOPE   D2B18883  15.277   3.525  11.361 -0.0380 -0.0813  0.0296
 1609DOPE   C3B18884  15.609   3.671  11.641 -0.2968  0.2065  0.2981
 1609DOPE   C4B18885  15.978   3.905  11.852  0.1620  0.2620  0.0404
 1610DOPE   NH318886  15.542   1.214   9.800 -0.4011 -0.2993 -0.0862
 1610DOPE   PO418887  15.691   1.455   9.709 -0.2567  0.1221 -0.0891
 1610DOPE   GL118888  15.735   1.573  10.038 -0.0221  0.0514 -0.2852
 1610DOPE   GL218889  15.893   1.801  10.025 -0.0557  0.3092 -0.0026
 1610DOPE   C1A18890  15.523   1.611  10.383 -0.3555  0.1499  0.4270
 1610DOPE   D2A18891  15.424   1.296  10.708  0.1030  0.3825 -0.1288
 1610DOPE   C3A18892  15.450   1.479  11.110 -0.3269 -0.1601  0.3459
 1610DOPE   C4A18893  15.530   1.738  11.432  0.1598  0.0529 -0.1317
 1610DOPE   C1B18894  16.135   1.699  10.419 -0.0016  0.0207  0.2501
 1610DOPE   D2B18895  16.452   1.409  10.686  0.0883 -0.1691  0.0633
 1610DOPE   C3B18896  16.379   1.512  11.139 -0.3220 -0.0185  0.0899
 1610DOPE   C4B18897  16.468   1.620  11.602 -0.0811 -0.0232 -0.1723
 1611DOPS   CNO18898  15.233   2.949   9.741 -0.2465  0.1101 -0.3239
 1611DOPS   PO418899  15.515   2.782   9.926 -0.1254 -0.1483 -0.0376
 1611DOPS   GL118900  15.514   2.882  10.276  0.1188  0.0472  0.1969
 1611DOPS   GL218901  15.682   2.610  10.335 -0.0235  0.2546  0.1685
 1611DOPS   C1A18902  15.319   2.778  10.718 -0.1302 -0.0415  0.0480
 1611DOPS   D2A18903  15.049   2.623  11.019  0.4154  0.1361 -0.1351
 1611DOPS   C3A18904  15.142   2.766  11.463 -0.0063  0.0618 -0.0714
 1611DOPS   C4A18905  15.114   2.570  11.872 -0.0503  0.1933  0.1073
 1611DOPS   C1B18906  15.813   2.764  10.691  0.1993  0.2473  0.0140
 1611DOPS   D2B18907  15.621   2.708  11.129  0.3099 -0.0226 -0.0136
 1611DOPS   C3B18908  15.608   2.650  11.559  0.1596 -0.0498 -0.1288
 1611DOPS   C4B18909  15.587   2.652  12.056  0.1080 -0.3893 -0.0963
 1612POSM   NC318910  18.579   5.649  10.230  0.1947  0.0873 -0.0407
 1612POSM   PO418911  18.353   5.365  10.234  0.3948  0.3598 -0.0952
 1612POSM   AM118912  18.176   5.252  10.473 -0.0870 -0.3398 -0.1358
 1612POSM   AM218913  18.155   5.031  10.627  0.2920 -0.2734 -0.1144
 1612POSM   T1A18914  17.991   5.442  10.912 -0.2949 -0.4161 -0.0464
 1612POSM   C2A18915  17.732   5.242  11.253  0.0940  0.1992  0.3005
 1612POSM   C3A18916  17.689   5.248  11.658  0.0637 -0.0051  0.0194
 1612POSM   C1B18917  18.104   4.921  10.916  0.3102  0.0178 -0.0230
 1612POSM   D2B18918  18.273   4.850  11.334  0.0102 -0.2168  0.3088
 1612POSM   C3B18919  17.973   4.654  11.511 -0.2048  0.0821 -0.2427
 1612POSM   C4B18920  17.517   4.611  11.714 -0.1804 -0.1687  0.0285
 1613POSM   NC318921  24.187   6.334  10.463  0.2066  0.0506 -0.1436
 1613POSM   PO418922  24.534   6.149  10.583 -0.2574 -0.0392  0.3406
 1613POSM   AM118923  24.317   6.016  10.850 -0.2099  0.0325 -0.2381
 1613POSM   AM218924  24.102   6.062  10.999  0.0421  0.3108 -0.0308
 1613POSM   T1A18925  24.321   5.701  11.301 -0.1102  0.3377 -0.0560
 1613POSM   C2A18926  24.129   5.665  11.743  0.0102  0.0499 -0.3154
 1613POSM   C3A18927  23.845   5.466  12.035 -0.1729  0.3289  0.0159
 1613POSM   C1B18928  23.921   6.169  11.225  0.1006 -0.1702  0.1085
 1613POSM   D2B18929  23.711   6.066  11.648  0.1201 -0.0423 -0.2095
 1613POSM   C3B18930  23.744   5.999  12.132 -0.3913  0.2980  0.3118
 1613POSM   C4B18931  23.673   6.352  12.440 -0.3539 -0.3167 -0.0459
 1614DOPE   NH318932  20.377   1.641  10.284 -0.3815  0.1840  0.0951
 1614DOPE   PO418933  20.052   1.525  10.373  0.1843  0.1535 -0.4027
 1614DOPE   GL118934  20.131   1.480  10.678  0.3635 -0.0162 -0.2184
 1614DOPE   GL218935  20.164   1.159  10.721  0.2953 -0.0423  0.0523
 1614DOPE   C1A18936  20.177   1.390  11.150  0.0620  0.0698 -0.1869
 1614DOPE   D2A18937  19.985   1.717  11.465 -0.0388  0.4274 -0.0859
 1614DOPE   C3A18938  19.832   1.561  11.874  0.1435  0.1546 -0.1799
 1614DOPE   C4A18939  19.750   1.661  12.288 -0.0448  0.0681 -0.1334
 1614DOPE   C1B18940  19.822   0.836  10.812  0.1268  0.0300 -0.0054
 1614DOPE   D2B18941  19.412   1.000  10.943 -0.2197 -0.1806  0.1359
 1614DOPE   C3B18942  19.142   1.113  11.322  0.1276 -0.0767 -0.2508
 1614DOPE   C4B18943  19.009   1.130  11.752  0.0840 -0.2738 -0.0412
 1615DOPS   CNO18944  11.051  10.556   9.271  0.1102 -0.0433 -0.1709
 1615DOPS   PO418945  11.090  10.674   9.643 -0.0134  0.0018  0.1009
 1615DOPS   GL118946  11.140  10.734   9.982  0.0924 -0.1954 -0.1998
 1615DOPS   GL218947  11.362  10.559  10.033  0.0348 -0.1560  0.2780
 1615DOPS   C1A18948  11.044  11.058  10.291  0.0944  0.2989 -0.0687
 1615DOPS   D2A18949  11.283  11.242  10.680  0.0323 -0.1836 -0.0495
 1615DOPS   C3A18950  11.280  11.539  11.008  0.0552 -0.0710 -0.0549
 1615DOPS   C4A18951  11.006  11.821  11.198 -0.0314  0.4337  0.1840
 1615DOPS   C1B18952  11.414  10.586  10.520 -0.0561  0.0014  0.1628
 1615DOPS   D2B18953  11.661  10.495  10.910 -0.2776 -0.0563  0.0348
 1615DOPS   C3B18954  11.449  10.268  11.352  0.0136  0.0011 -0.1227
 1615DOPS   C4B18955  11.261  10.089  11.769  0.0953 -0.1409 -0.0293
 1616DOPE   NH318956  20.864   8.669   9.856 -0.3678  0.0559 -0.1434
 1616DOPE   PO418957  20.646   8.461   9.893 -0.1584  0.0005 -0.2073
 1616DOPE   GL118958  20.568   8.506  10.229  0.0646 -0.3049 -0.0096
 1616DOPE   GL218959  20.688   8.762  10.330 -0.0625 -0.0434  0.0996
 1616DOPE   C1A18960  20.303   8.561  10.618 -0.1023 -0.3510 -0.0485
 1616DOPE   D2A18961  19.923   8.342  10.825 -0.0073  0.0087 -0.0715
 1616DOPE   C3A18962  19.625   8.542  11.133  0.0734  0.3958  0.1079
 1616DOPE   C4A18963  19.303   8.584  11.464  0.0354  0.2018  0.0870
 1616DOPE   C1B18964  20.594   8.904  10.792 -0.0702  0.2269 -0.0812
 1616DOPE   D2B18965  20.815   8.831  11.171 -0.0971  0.2294 -0.3888
 1616DOPE   C3B18966  20.898   9.170  11.406 -0.2166 -0.0129 -0.1694
 1616DOPE   C4B18967  21.191   9.494  11.469 -0.3448 -0.0664 -0.0610
 1617POSM   NC318968   8.262   1.438  10.199 -0.0555 -0.0144 -0.2215
 1617POSM   PO418969   8.069   1.139  10.360  0.2187 -0.0796  0.2332
 1617POSM   AM118970   8.020   1.155  10.691  0.2486 -0.4224 -0.2183
 1617POSM   AM218971   7.841   1.316  10.850 -0.0230 -0.1093  0.2172
 1617POSM   T1A18972   7.799   0.918  11.072 -0.0596  0.2686 -0.0965
 1617POSM   C2A18973   7.438   0.765  11.406  0.2240  0.2878 -0.3445
 1617POSM   C3A18974   7.309   0.739  11.849  0.1929  0.2338 -0.0365
 1617POSM   C1B18975   7.810   1.567  11.093  0.4347  0.3005 -0.1497
 1617POSM   D2B18976   8.086   1.919  11.258 -0.2278 -0.1231 -0.1507
 1617POSM   C3B18977   8.181   2.177  11.646  0.1054 -0.2042  0.0451
 1617POSM   C4B18978   8.321   2.447  11.962  0.1099 -0.0332  0.3192
 1618POSM   NC318979  11.253  10.146   9.609  0.0025 -0.1203 -0.2486
 1618POSM   PO418980  10.859  10.121   9.651  0.0307 -0.2306 -0.0853
 1618POSM   AM118981  10.877  10.352   9.887  0.5519 -0.0625 -0.1801
 1618POSM   AM218982  10.637  10.493   9.989  0.0240 -0.0873  0.2179
 1618POSM   T1A18983  10.940  10.526  10.367  0.1901  0.0647  0.3026
 1618POSM   C2A18984  10.908  10.842  10.725 -0.1183  0.1458  0.0110
 1618POSM   C3A18985  10.914  10.909  11.228  0.0504  0.0200 -0.0138
 1618POSM   C1B18986  10.564  10.784  10.203  0.2026  0.0661 -0.1287
 1618POSM   D2B18987  10.457  11.055  10.550  0.0694 -0.3444 -0.2213
 1618POSM   C3B18988  10.276  10.833  10.927 -0.5098 -0.2052 -0.1983
 1618POSM   C4B18989  10.431  10.583  11.223 -0.1468  0.2304  0.3031
 1619DOPC   NC318990  13.667   8.800   9.433 -0.2030 -0.0180  0.3473
 1619DOPC   PO418991  13.302   8.713   9.510  0.1186 -0.2211  0.0650
 1619DOPC   GL118992  13.415   8.595   9.861  0.1344  0.1471 -0.4625
 1619DOPC   GL218993  13.258   8.355   9.932 -0.0090  0.1305  0.0778
 1619DOPC   C1A18994  13.228   8.845  10.263  0.2087  0.0582  0.1948
 1619DOPC   D2A18995  13.064   9.284  10.374 -0.4432 -0.1753 -0.0374
 1619DOPC   C3A18996  12.810   9.188  10.768  0.0175  0.0209 -0.0348
 1619DOPC   C4A18997  12.821   8.918  11.132 -0.1293  0.0212  0.3696
 1619DOPC   C1B18998  12.896   8.422  10.221 -0.2340 -0.1223  0.0502
 1619DOPC   D2B18999  12.604   8.354  10.566  0.0279 -0.1122 -0.1434
 1619DOPC   C3B19000  12.619   8.443  10.974 -0.1797  0.0121 -0.2263
 1619DOPC   C4B19001  12.343   8.716  11.226 -0.1734  0.2835 -0.0501
 1620POSM   NC319002  11.454   7.327   9.342 -0.2473 -0.0381 -0.3390
 1620POSM   PO419003  11.332   7.713   9.493  0.1227 -0.0127  0.0415
 1620POSM   AM119004  11.267   7.791   9.800  0.1445 -0.2426 -0.0968
 1620POSM   AM219005  11.258   8.048   9.919  0.1894  0.3557 -0.2069
 1620POSM   T1A19006  11.090   7.685  10.267  0.0846 -0.2049 -0.0525
 1620POSM   C2A19007  10.798   7.556  10.562 -0.0839 -0.1851  0.1371
 1620POSM   C3A19008  10.531   7.461  10.878  0.1768 -0.1258  0.1873
 1620POSM   C1B19009  11.365   8.119  10.243 -0.0848 -0.1291 -0.0066
 1620POSM   D2B19010  11.533   8.090  10.659 -0.4576 -0.2178 -0.0803
 1620POSM   C3B19011  11.663   8.495  10.895  0.1296 -0.1275 -0.1455
 1620POSM   C4B19012  11.808   8.870  11.127 -0.0322 -0.1614 -0.1091
 1621DOPE   NH319013  10.629   1.473  10.317  0.1456  0.1575  0.2285
 1621DOPE   PO419014  10.540   1.365  10.568  0.2845  0.0281 -0.2649
 1621DOPE   GL119015  10.580   1.244  10.922 -0.3775  0.2043  0.2819
 1621DOPE   GL219016  10.821   1.198  11.102 -0.0507 -0.1672 -0.1183
 1621DOPE   C1A19017  10.422   1.094  11.352  0.1737 -0.0779  0.2667
 1621DOPE   D2A19018  10.143   0.819  11.655  0.0886  0.0895 -0.0643
 1621DOPE   C3A19019  10.353   0.882  12.108  0.2038  0.3052  0.2982
 1621DOPE   C4A19020  10.202   0.914  12.554 -0.2170  0.1563 -0.2312
 1621DOPE   C1B19021  10.884   1.419  11.439  0.1621  0.3576  0.1025
 1621DOPE   D2B19022  10.741   1.737  11.731  0.0287  0.0982 -0.1154
 1621DOPE   C3B19023  10.735   1.801  12.203 -0.6813 -0.1842 -0.1760
 1621DOPE   C4B19024  11.209   1.900  12.370 -0.1677  0.1303 -0.0809
 1622DOPS   CNO19025  15.307   6.831   9.585 -0.0765 -0.0496 -0.0880
 1622DOPS   PO419026  15.041   6.833   9.875  0.0106 -0.1563  0.1665
 1622DOPS   GL119027  14.858   7.167  10.153  0.0980 -0.0171  0.0418
 1622DOPS   GL219028  14.781   7.461  10.263 -0.5007  0.1328  0.0717
 1622DOPS   C1A19029  15.230   7.267  10.449  0.1819  0.1110 -0.0330
 1622DOPS   D2A19030  15.597   7.485  10.574 -0.1884  0.0545 -0.1826
 1622DOPS   C3A19031  15.541   7.753  10.983 -0.0169 -0.1605  0.3286
 1622DOPS   C4A19032  15.104   7.926  11.197 -0.0991 -0.1281 -0.1647
 1622DOPS   C1B19033  14.487   7.439  10.627  0.0697  0.1697  0.1081
 1622DOPS   D2B19034  14.161   7.415  10.945  0.1277 -0.2263  0.2078
 1622DOPS   C3B19035  14.272   7.740  11.198  0.2214  0.3311  0.3331
 1622DOPS   C4B19036  14.635   7.891  11.460 -0.3062 -0.0648  0.1064
 1623DOPC   NC319037  12.065   9.296   9.562  0.0152 -0.1398 -0.0138
 1623DOPC   PO419038  12.173   9.673   9.550 -0.0267 -0.0868  0.0438
 1623DOPC   GL119039  12.093   9.680   9.945 -0.6531  0.0188 -0.1595
 1623DOPC   GL219040  12.304   9.488  10.069 -0.2090  0.1756 -0.0093
 1623DOPC   C1A19041  12.065   9.837  10.341 -0.1970 -0.1187 -0.1534
 1623DOPC   D2A19042  12.104   9.986  10.841  0.0460  0.2921  0.1304
 1623DOPC   C3A19043  12.067  10.296  11.196  0.0762  0.1940  0.1897
 1623DOPC   C4A19044  12.263  10.704  11.257  0.1723  0.0263  0.3643
 1623DOPC   C1B19045  12.321   9.203  10.492  0.3533 -0.0758 -0.0101
 1623DOPC   D2B19046  12.333   9.164  10.951  0.2576  0.1891  0.1790
 1623DOPC   C3B19047  12.330   9.495  11.312  0.1871 -0.0474 -0.0134
 1623DOPC   C4B19048  12.213   9.877  11.499 -0.1900 -0.0668 -0.0304
 1624DOPC   NC319049  21.289   9.373   9.501  0.0256  0.1044  0.1674
 1624DOPC   PO419050  20.980   9.142   9.580 -0.2663  0.1693  0.1179
 1624DOPC   GL119051  21.139   9.229   9.984 -0.0931  0.0028  0.0299
 1624DOPC   GL219052  21.166   8.940  10.169 -0.3529  0.3819  0.0535
 1624DOPC   C1A19053  21.135   9.550  10.294 -0.3109 -0.2724 -0.0124
 1624DOPC   D2A19054  21.323   9.762  10.586 -0.3070 -0.3273 -0.1255
 1624DOPC   C3A19055  21.069   9.980  10.868  0.0526 -0.0339 -0.0082
 1624DOPC   C4A19056  20.599  10.131  11.002  0.2447  0.2148 -0.3405
 1624DOPC   C1B19057  21.413   9.126  10.477 -0.1176  0.0025 -0.0418
 1624DOPC   D2B19058  21.661   8.832  10.754 -0.3269  0.3862  0.1876
 1624DOPC   C3B19059  21.966   8.936  11.141 -0.3831  0.0391  0.4070
 1624DOPC   C4B19060  22.318   8.830  11.456  0.4422  0.1414  0.1546
 1625DOPC   NC319061  14.186   6.950   9.670  0.3021 -0.1500  0.3297
 1625DOPC   PO419062  14.433   6.676   9.733  0.1850 -0.1453 -0.0767
 1625DOPC   GL119063  14.300   6.402  10.078  0.0343  0.0480 -0.2323
 1625DOPC   GL219064  14.107   6.570  10.101 -0.1520 -0.0566  0.3140
 1625DOPC   C1A19065  14.555   6.165  10.372 -0.0319  0.0933 -0.1841
 1625DOPC   D2A19066  14.712   5.988  10.748  0.0083  0.1015  0.2659
 1625DOPC   C3A19067  15.010   6.200  10.984 -0.3458  0.1562  0.0773
 1625DOPC   C4A19068  15.274   6.444  11.286  0.0857  0.1700  0.2839
 1625DOPC   C1B19069  13.986   6.537  10.549 -0.0957  0.0343  0.5134
 1625DOPC   D2B19070  14.243   6.663  10.888  0.0279 -0.1259  0.1551
 1625DOPC   C3B19071  14.079   6.908  11.250  0.1747 -0.1605  0.1505
 1625DOPC   C4B19072  13.668   6.867  11.351 -0.2351 -0.1270  0.0833
 1626DOPS   CNO19073  18.892   8.535   9.366 -0.4206  0.0477 -0.1119
 1626DOPS   PO419074  18.591   8.781   9.436 -0.3369 -0.2980  0.1522
 1626DOPS   GL119075  18.453   9.176   9.553  0.0297 -0.0053 -0.1237
 1626DOPS   GL219076  18.756   9.232   9.648 -0.1177  0.0565 -0.1356
 1626DOPS   C1A19077  18.468   9.271  10.039  0.1863 -0.0186 -0.1264
 1626DOPS   D2A19078  18.646   9.568  10.316 -0.2220 -0.0013 -0.1287
 1626DOPS   C3A19079  18.897   9.296  10.554 -0.0353 -0.0260 -0.1896
 1626DOPS   C4A19080  19.147   8.897  10.431 -0.3220 -0.1862 -0.0833
 1626DOPS   C1B19081  19.024   9.360   9.992 -0.0742  0.2088 -0.2453
 1626DOPS   D2B19082  19.423   9.337  10.206  0.0803  0.1614 -0.1133
 1626DOPS   C3B19083  19.519   9.173  10.644  0.1409 -0.1424  0.0981
 1626DOPS   C4B19084  19.523   9.067  11.148  0.0274  0.2378  0.0918
 1627POSM   NC319085  11.511   0.427  10.447 -0.0525  0.3796 -0.0675
 1627POSM   PO419086  11.383   0.042  10.387  0.2414  0.1988  0.3036
 1627POSM   AM119087  11.150  -0.104  10.549 -0.1164  0.0991  0.4205
 1627POSM   AM219088  10.880  -0.076  10.553 -0.3852 -0.2030 -0.2384
 1627POSM   T1A19089  10.958  -0.580  10.698 -0.0418 -0.0616 -0.2869
 1627POSM   C2A19090  10.977  -1.038  10.807  0.4099  0.0705  0.2512
 1627POSM   C3A19091  10.769  -1.406  10.942 -0.1041  0.0559 -0.1348
 1627POSM   C1B19092  10.837  -0.144  10.900  0.0295 -0.1769  0.0948
 1627POSM   D2B19093  10.847  -0.286  11.376 -0.0616 -0.1019 -0.0877
 1627POSM   C3B19094  10.557  -0.656  11.479  0.0335  0.4253  0.2018
 1627POSM   C4B19095  10.334  -1.053  11.313  0.6190 -0.0479 -0.0897
 1628POSM   NC319096  18.110  10.494   9.010  0.0737  0.2408 -0.2143
 1628POSM   PO419097  18.422  10.291   9.110 -0.0828 -0.0947 -0.1078
 1628POSM   AM119098  18.616  10.324   9.361 -0.1310 -0.0569  0.1029
 1628POSM   AM219099  18.698  10.140   9.538 -0.0559  0.0770 -0.0418
 1628POSM   T1A19100  19.039  10.490   9.670  0.1627  0.2443 -0.0108
 1628POSM   C2A19101  19.297  10.793   9.899  0.1141  0.0044 -0.0524
 1628POSM   C3A19102  19.599  11.105   9.994  0.1759 -0.0884  0.2816
 1628POSM   C1B19103  18.546  10.083   9.828 -0.1182 -0.2666  0.0740
 1628POSM   D2B19104  18.612  10.070  10.262 -0.0547  0.0519  0.0596
 1628POSM   C3B19105  18.240  10.327  10.379  0.1281  0.1326  0.2171
 1628POSM   C4B19106  18.084  10.665  10.178 -0.0144 -0.3422  0.4211
 1629DOPE   NH319107  11.127   6.154  10.372  0.2904  0.1722 -0.2662
 1629DOPE   PO419108  11.181   6.427  10.202 -0.0081 -0.0529 -0.2909
 1629DOPE   GL119109  11.217   6.774  10.329 -0.4206  0.0661  0.2610
 1629DOPE   GL219110  11.429   6.687  10.556 -0.2666 -0.2591  0.0081
 1629DOPE   C1A19111  10.968   7.067  10.570 -0.2643  0.0079 -0.3049
 1629DOPE   D2A19112  10.919   7.027  11.039 -0.0396 -0.0008 -0.0777
 1629DOPE   C3A19113  10.622   7.220  11.316 -0.0878  0.0355 -0.1331
 1629DOPE   C4A19114  10.560   7.592  11.600 -0.0837 -0.1346 -0.1489
 1629DOPE   C1B19115  11.777   6.731  10.884 -0.1378  0.0090  0.0197
 1629DOPE   D2B19116  11.910   6.821  11.258  0.4750 -0.0429  0.0092
 1629DOPE   C3B19117  12.129   6.731  11.676  0.0987 -0.2389 -0.1655
 1629DOPE   C4B19118  12.375   7.007  11.957 -0.1304 -0.1062  0.1316
 1630DOPC   NC319119  14.985   0.508   9.971 -0.2486  0.1406  0.1526
 1630DOPC   PO419120  14.897   0.803  10.190  0.2030 -0.1167  0.0021
 1630DOPC   GL119121  14.807   0.876  10.610 -0.2380  0.1748  0.0779
 1630DOPC   GL219122  15.022   0.966  10.697 -0.0048  0.1813 -0.1872
 1630DOPC   C1A19123  14.763   0.599  10.975 -0.0827  0.1291 -0.0438
 1630DOPC   D2A19124  14.758   0.519  11.404 -0.1806 -0.0267  0.0995
 1630DOPC   C3A19125  14.760   0.184  11.742 -0.3671  0.0412  0.2401
 1630DOPC   C4A19126  14.753  -0.277  11.726  0.0301  0.1682  0.0987
 1630DOPC   C1B19127  14.995   1.001  11.137 -0.0532 -0.0335  0.2607
 1630DOPC   D2B19128  15.410   1.012  11.288 -0.1444 -0.1254 -0.3502
 1630DOPC   C3B19129  15.425   1.276  11.687 -0.1454  0.0389 -0.4282
 1630DOPC   C4B19130  15.571   1.687  11.946 -0.1171  0.0517 -0.2786
 1631POSM   NC319131  22.211   4.049  10.578 -0.0595 -0.0070  0.0893
 1631POSM   PO419132  22.496   3.804  10.681 -0.0010  0.1955  0.0041
 1631POSM   AM119133  22.544   3.794  10.999  0.0732 -0.5697  0.0186
 1631POSM   AM219134  22.682   3.654  11.206 -0.1906  0.2122 -0.0173
 1631POSM   T1A19135  22.549   4.099  11.414  0.0648 -0.1132  0.1256
 1631POSM   C2A19136  22.424   4.376  11.785 -0.0552 -0.1336  0.2750
 1631POSM   C3A19137  22.316   4.634  12.081 -0.0094  0.3019  0.1263
 1631POSM   C1B19138  22.617   3.447  11.454 -0.0303 -0.2559  0.0471
 1631POSM   D2B19139  22.409   3.433  11.838 -0.0365 -0.3160 -0.2868
 1631POSM   C3B19140  22.132   3.207  12.157  0.2053  0.0713 -0.2234
 1631POSM   C4B19141  21.874   3.128  12.567  0.1177  0.0677 -0.1603
 1632POSM   NC319142  19.832   6.288   9.449 -0.0616 -0.1665  0.0940
 1632POSM   PO419143  19.764   6.000   9.699  0.1588 -0.2006 -0.2337
 1632POSM   AM119144  19.754   6.109   9.999 -0.4435 -0.0364 -0.2244
 1632POSM   AM219145  19.991   6.097  10.185  0.3296 -0.1693  0.0195
 1632POSM   T1A19146  19.634   6.146  10.448 -0.0012  0.0733 -0.0673
 1632POSM   C2A19147  19.783   6.191  10.826 -0.2009 -0.1175 -0.0371
 1632POSM   C3A19148  20.128   6.355  11.079 -0.2601  0.7087  0.1288
 1632POSM   C1B19149  20.154   6.198  10.516  0.0224  0.0929 -0.1271
 1632POSM   D2B19150  20.533   6.213  10.761 -0.3278 -0.3673 -0.1919
 1632POSM   C3B19151  20.955   5.995  10.877  0.4619 -0.0973  0.0036
 1632POSM   C4B19152  21.081   5.598  10.857  0.1508 -0.0174  0.2453
 1633DOPC   NC319153  15.094  18.441  11.475 -0.2611 -0.2184 -0.2498
 1633DOPC   PO419154  15.416  18.634  11.630 -0.1761  0.1045  0.1347
 1633DOPC   GL119155  15.362  18.845  11.288 -0.2375 -0.0064 -0.0880
 1633DOPC   GL219156  15.561  18.590  11.153  0.1124  0.1514  0.2414
 1633DOPC   C1A19157  15.266  19.204  10.979 -0.3407  0.1807 -0.1232
 1633DOPC   D2A19158  15.365  19.405  10.583 -0.1404 -0.2106 -0.0930
 1633DOPC   C3A19159  15.304  19.021  10.273  0.2374 -0.0168  0.0912
 1633DOPC   C4A19160  15.172  18.573  10.313  0.5525  0.2579 -0.2893
 1633DOPC   C1B19161  15.947  18.444  10.943  0.1962  0.0068 -0.0367
 1633DOPC   D2B19162  16.231  18.234  10.682 -0.1742  0.1419  0.0340
 1633DOPC   C3B19163  16.402  18.048  10.290  0.0839 -0.0782  0.0626
 1633DOPC   C4B19164  16.172  17.858   9.909 -0.2002  0.0246 -0.3513
 1634DOPC   NC319165  21.615  17.753  12.509  0.0952 -0.2487  0.0781
 1634DOPC   PO419166  21.967  17.792  12.651  0.0577 -0.0119  0.2263
 1634DOPC   GL119167  22.069  17.698  12.279  0.2694 -0.1589  0.3333
 1634DOPC   GL219168  22.339  17.728  12.227  0.0718  0.1107  0.0570
 1634DOPC   C1A19169  21.784  17.771  11.905  0.1471  0.1816  0.1082
 1634DOPC   D2A19170  21.454  17.861  11.568  0.2946 -0.0372 -0.0915
 1634DOPC   C3A19171  21.411  17.449  11.365  0.0654  0.1459  0.0354
 1634DOPC   C4A19172  21.762  17.110  11.250  0.3000 -0.1295 -0.1995
 1634DOPC   C1B19173  22.261  17.757  11.757 -0.1191  0.1742 -0.0332
 1634DOPC   D2B19174  22.291  17.960  11.315 -0.0969  0.0768 -0.3484
 1634DOPC   C3B19175  22.326  18.414  11.160  0.1348 -0.0710 -0.0281
 1634DOPC   C4B19176  22.314  18.864  11.216  0.0389  0.2887  0.1372
 1635DOPE   NH319177  22.204  21.769  13.881 -0.1256 -0.0318 -0.3568
 1635DOPE   PO419178  22.217  21.859  13.579  0.1007 -0.1087 -0.1700
 1635DOPE   GL119179  22.358  21.954  13.233  0.0375 -0.1670 -0.1192
 1635DOPE   GL219180  22.279  21.721  13.012  0.0733 -0.1359  0.0235
 1635DOPE   C1A19181  22.724  22.249  13.287 -0.1222 -0.0647 -0.1156
 1635DOPE   D2A19182  22.773  22.669  13.496  0.0321 -0.2133  0.1312
 1635DOPE   C3A19183  23.255  22.731  13.453 -0.0666 -0.0821  0.0320
 1635DOPE   C4A19184  23.664  22.864  13.381 -0.1436 -0.0092  0.2989
 1635DOPE   C1B19185  22.661  21.483  12.859 -0.1285 -0.1965 -0.0956
 1635DOPE   D2B19186  23.137  21.522  12.786 -0.5858 -0.1694 -0.1690
 1635DOPE   C3B19187  23.383  21.728  12.441 -0.3432 -0.3738  0.0064
 1635DOPE   C4B19188  23.752  21.714  12.174  0.2177 -0.0443 -0.1567
 1636DOPE   NH319189  14.233  22.549  12.423 -0.0281 -0.4778 -0.0315
 1636DOPE   PO419190  14.303  22.740  12.141  0.0511 -0.0636  0.0493
 1636DOPE   GL119191  14.350  22.769  11.746 -0.1060 -0.0464  0.4166
 1636DOPE   GL219192  14.353  22.519  11.722 -0.2431 -0.0406 -0.2071
 1636DOPE   C1A19193  14.487  22.821  11.331 -0.1615 -0.1143  0.1648
 1636DOPE   D2A19194  14.326  22.808  10.854 -0.1756 -0.3908  0.3156
 1636DOPE   C3A19195  14.548  22.670  10.522  0.1094 -0.2984  0.1836
 1636DOPE   C4A19196  14.534  22.605  10.094 -0.0878 -0.2528  0.1617
 1636DOPE   C1B19197  14.530  22.273  11.356  0.2143 -0.1107 -0.1346
 1636DOPE   D2B19198  14.530  21.860  11.107 -0.3019  0.0972  0.1066
 1636DOPE   C3B19199  14.278  21.595  10.849  0.0362 -0.3190 -0.0746
 1636DOPE   C4B19200  14.093  21.167  10.968 -0.1242 -0.3734  0.1411
 1637DOPC   NC319201  23.279  25.231  14.503  0.0237 -0.1833 -0.2154
 1637DOPC   PO419202  23.320  24.825  14.633  0.2558 -0.0847 -0.4259
 1637DOPC   GL119203  23.261  24.790  14.219 -0.3394  0.1647 -0.2015
 1637DOPC   GL219204  23.165  24.972  14.064 -0.0245  0.1038 -0.0307
 1637DOPC   C1A19205  23.485  24.628  13.823  0.1763  0.0925  0.1711
 1637DOPC   D2A19206  23.436  24.710  13.384  0.0609  0.1821 -0.1423
 1637DOPC   C3A19207  23.505  24.392  13.056  0.0308 -0.1770 -0.0578
 1637DOPC   C4A19208  23.589  24.355  12.611 -0.2298 -0.0492 -0.1258
 1637DOPC   C1B19209  23.481  25.114  13.797 -0.1891 -0.1344 -0.0145
 1637DOPC   D2B19210  23.557  25.278  13.326 -0.0108 -0.0100  0.1816
 1637DOPC   C3B19211  23.676  24.930  13.016 -0.1648 -0.0434  0.1072
 1637DOPC   C4B19212  23.383  24.815  12.706  0.3160 -0.1937 -0.1732
 1638DOPC   NC319213  24.035  22.139  14.358 -0.1141  0.3120 -0.0054
 1638DOPC   PO419214  24.213  22.457  14.240  0.2306  0.2550  0.2123
 1638DOPC   GL119215  24.196  22.261  13.862 -0.0295 -0.0283 -0.1571
 1638DOPC   GL219216  23.925  22.099  13.862 -0.1312 -0.2461  0.1241
 1638DOPC   C1A19217  24.358  21.959  13.491 -0.1721  0.0429 -0.1285
 1638DOPC   D2A19218  24.566  21.603  13.373  0.0792 -0.0097 -0.2414
 1638DOPC   C3A19219  24.843  21.413  13.036 -0.1402 -0.0755 -0.2135
 1638DOPC   C4A19220  25.257  21.271  12.903  0.1006 -0.2417 -0.1992
 1638DOPC   C1B19221  23.913  22.188  13.367 -0.1450  0.0923  0.4521
 1638DOPC   D2B19222  24.011  22.064  13.002  0.2611  0.1287 -0.2961
 1638DOPC   C3B19223  24.407  21.761  12.904 -0.2927  0.1603  0.2881
 1638DOPC   C4B19224  24.669  22.042  12.598 -0.0793 -0.0668  0.3158
 1639POSM   NC319225  14.604  15.842  11.846 -0.2615  0.0513 -0.0210
 1639POSM   PO419226  14.964  15.730  11.845  0.0053  0.2855 -0.1996
 1639POSM   AM119227  15.056  15.597  11.545  0.4102 -0.0648 -0.1323
 1639POSM   AM219228  15.192  15.740  11.370  0.1224  0.2186  0.1869
 1639POSM   T1A19229  14.847  15.271  11.218 -0.1229 -0.0672  0.0934
 1639POSM   C2A19230  14.803  15.129  10.819 -0.2394 -0.0139  0.1576
 1639POSM   C3A19231  14.598  15.320  10.482  0.1580 -0.0459  0.5114
 1639POSM   C1B19232  15.409  15.637  11.117 -0.3437  0.1082  0.0544
 1639POSM   D2B19233  15.548  15.792  10.717 -0.2889  0.2548  0.1179
 1639POSM   C3B19234  15.197  15.975  10.542 -0.1816 -0.2507  0.3653
 1639POSM   C4B19235  14.800  15.763  10.368  0.1825 -0.0630 -0.0963
 1640DOPS   CNO19236  19.617  20.468  12.396 -0.0142  0.3852  0.0257
 1640DOPS   PO419237  19.588  20.106  12.545  0.1220 -0.0074 -0.1824
 1640DOPS   GL119238  19.222  20.219  12.304  0.0250 -0.0820 -0.0727
 1640DOPS   GL219239  19.389  20.168  12.099  0.2581 -0.0963  0.0510
 1640DOPS   C1A19240  18.990  20.402  11.919 -0.1239 -0.0645  0.2420
 1640DOPS   D2A19241  18.718  20.613  11.574 -0.1497 -0.0489  0.2647
 1640DOPS   C3A19242  18.716  20.420  11.120  0.0710  0.1421  0.0307
 1640DOPS   C4A19243  18.744  20.024  10.909 -0.0418 -0.0587  0.0940
 1640DOPS   C1B19244  19.500  20.589  11.905  0.0012  0.2781  0.4685
 1640DOPS   D2B19245  19.610  20.939  11.639 -0.1896 -0.2368 -0.1286
 1640DOPS   C3B19246  19.360  21.070  11.279 -0.2984  0.2684 -0.0988
 1640DOPS   C4B19247  19.298  21.263  10.874  0.0020 -0.2264 -0.2077
 1641DOPC   NC319248  18.037  13.450  11.689  0.1674 -0.2384  0.0736
 1641DOPC   PO419249  17.924  13.805  11.613 -0.1823  0.2859 -0.0398
 1641DOPC   GL119250  17.885  13.790  11.164 -0.3345 -0.1372 -0.1398
 1641DOPC   GL219251  17.867  14.037  11.097  0.0662 -0.4371  0.0426
 1641DOPC   C1A19252  18.009  13.765  10.704 -0.0714  0.3354 -0.0520
 1641DOPC   D2A19253  18.054  13.972  10.299 -0.0136 -0.1573  0.0067
 1641DOPC   C3A19254  17.797  14.061   9.883 -0.0723 -0.3237  0.0995
 1641DOPC   C4A19255  17.499  14.392   9.724  0.1544  0.0517  0.1020
 1641DOPC   C1B19256  17.614  14.117  10.747 -0.3724  0.0778 -0.1744
 1641DOPC   D2B19257  17.604  14.400  10.394 -0.2696 -0.3308 -0.0316
 1641DOPC   C3B19258  18.018  14.430  10.135 -0.1068  0.1483  0.2449
 1641DOPC   C4B19259  18.107  14.386   9.611 -0.3070 -0.2254 -0.1487
 1642DOPE   NH319260  16.270  15.190  11.618  0.0971  0.1896  0.4741
 1642DOPE   PO419261  16.080  14.967  11.620  0.2007  0.1304  0.0959
 1642DOPE   GL119262  16.083  14.986  11.239 -0.4486 -0.2835  0.1433
 1642DOPE   GL219263  15.803  14.997  11.189  0.2366  0.2490  0.0130
 1642DOPE   C1A19264  16.357  15.099  10.948 -0.1771 -0.1322 -0.0826
 1642DOPE   D2A19265  16.734  15.206  10.701  0.1971 -0.2590 -0.1266
 1642DOPE   C3A19266  16.757  15.448  10.320 -0.1328 -0.0973  0.0138
 1642DOPE   C4A19267  16.942  15.584   9.948 -0.1338  0.1948 -0.1737
 1642DOPE   C1B19268  15.960  14.776  10.802 -0.2309  0.2754  0.2187
 1642DOPE   D2B19269  16.030  14.788  10.365 -0.1191 -0.0628 -0.2483
 1642DOPE   C3B19270  15.749  15.121  10.150  0.2048  0.3299 -0.1996
 1642DOPE   C4B19271  15.654  15.305   9.720  0.1363  0.1205 -0.1775
 1643POSM   NC319272  22.728  21.123  13.218 -0.3721  0.1829  0.2019
 1643POSM   PO419273  22.389  20.930  13.354  0.1813 -0.1050 -0.2008
 1643POSM   AM119274  22.269  20.923  13.031 -0.0136  0.2531 -0.0045
 1643POSM   AM219275  22.282  20.764  12.796 -0.0483  0.0227 -0.2599
 1643POSM   T1A19276  22.296  21.256  12.654 -0.0343  0.2750 -0.0507
 1643POSM   C2A19277  22.442  21.650  12.448  0.1626 -0.2545  0.0098
 1643POSM   C3A19278  22.142  21.937  12.217  0.0921  0.1285  0.0930
 1643POSM   C1B19279  22.347  20.716  12.469 -0.1007  0.2854 -0.1947
 1643POSM   D2B19280  22.518  20.782  12.040 -0.1646  0.1378  0.0176
 1643POSM   C3B19281  22.886  21.017  11.936 -0.0499 -0.1781  0.0898
 1643POSM   C4B19282  23.331  21.078  11.764 -0.0892 -0.1431  0.4500
 1644DOPS   CNO19283  19.571  22.807  13.009  0.1176  0.1402  0.0536
 1644DOPS   PO419284  19.589  22.951  12.653  0.0367  0.0428 -0.0543
 1644DOPS   GL119285  19.782  22.748  12.445 -0.1414  0.2756 -0.0520
 1644DOPS   GL219286  20.081  22.798  12.482  0.1004  0.1709  0.1890
 1644DOPS   C1A19287  19.771  22.726  11.988  0.0651  0.0904  0.1057
 1644DOPS   D2A19288  19.763  22.568  11.584  0.0630 -0.4865  0.1515
 1644DOPS   C3A19289  19.361  22.452  11.368 -0.1013  0.1957 -0.1261
 1644DOPS   C4A19290  19.180  22.437  10.944 -0.0687  0.1407  0.1265
 1644DOPS   C1B19291  20.410  22.806  12.183  0.1597  0.0707  0.0357
 1644DOPS   D2B19292  20.583  22.737  11.722 -0.3262 -0.1751 -0.0193
 1644DOPS   C3B19293  20.640  22.467  11.372 -0.1245 -0.1061  0.0350
 1644DOPS   C4B19294  20.638  22.360  10.959 -0.0024 -0.3113  0.1416
 1645DOPC   NC319295  22.258  14.695  13.091  0.1486  0.2268  0.2577
 1645DOPC   PO419296  22.177  14.319  12.980  0.2820  0.2241 -0.3253
 1645DOPC   GL119297  22.144  14.109  12.641 -0.1813 -0.1270  0.4540
 1645DOPC   GL219298  22.471  14.125  12.650 -0.2186  0.1619  0.3315
 1645DOPC   C1A19299  22.184  13.673  12.399 -0.0457 -0.1307  0.1609
 1645DOPC   D2A19300  22.118  13.263  12.150 -0.0179 -0.1124 -0.0457
 1645DOPC   C3A19301  22.155  13.326  11.690  0.0015  0.0313  0.1763
 1645DOPC   C4A19302  21.924  13.521  11.387 -0.2385  0.1201 -0.0413
 1645DOPC   C1B19303  22.798  13.943  12.363  0.0584  0.1919 -0.0562
 1645DOPC   D2B19304  22.937  13.509  12.293 -0.1816 -0.0639  0.1520
 1645DOPC   C3B19305  23.245  13.429  11.922 -0.0558 -0.3570 -0.0459
 1645DOPC   C4B19306  23.397  13.215  11.531  0.3776  0.1116  0.3067
 1646DOPE   NH319307  18.127  15.860  11.607  0.1995 -0.2561  0.2708
 1646DOPE   PO419308  18.118  15.590  11.467  0.2823  0.3709  0.1484
 1646DOPE   GL119309  17.950  15.572  11.066 -0.0211  0.0301  0.0222
 1646DOPE   GL219310  18.242  15.595  10.958 -0.0192 -0.1933 -0.0374
 1646DOPE   C1A19311  17.644  15.823  10.831 -0.0963 -0.1170 -0.1774
 1646DOPE   D2A19312  17.350  16.086  10.635  0.2212  0.1523  0.3149
 1646DOPE   C3A19313  17.341  16.330  10.260 -0.0211 -0.2533  0.0504
 1646DOPE   C4A19314  17.399  16.803  10.255 -0.0253  0.2421  0.1277
 1646DOPE   C1B19315  18.284  15.325  10.566  0.1397 -0.1448  0.0092
 1646DOPE   D2B19316  18.445  15.441  10.166 -0.0479  0.2077 -0.0435
 1646DOPE   C3B19317  18.352  15.846   9.943 -0.0705 -0.2832  0.4206
 1646DOPE   C4B19318  18.448  16.320  10.049 -0.2205  0.2326  0.0957
 1647DOPE   NH319319  15.413  19.118  11.667  0.1806 -0.0024  0.0738
 1647DOPE   PO419320  15.629  19.383  11.720  0.0022  0.1369 -0.2293
 1647DOPE   GL119321  15.878  19.198  11.446  0.5106  0.1081 -0.1744
 1647DOPE   GL219322  15.760  19.015  11.252 -0.3538 -0.1113 -0.2279
 1647DOPE   C1A19323  15.947  19.438  11.083  0.2590 -0.3947  0.1023
 1647DOPE   D2A19324  16.051  19.771  10.799  0.1490  0.1934  0.0076
 1647DOPE   C3A19325  16.463  19.822  10.612 -0.0360 -0.1906 -0.3688
 1647DOPE   C4A19326  16.631  19.571  10.343 -0.0187 -0.0080 -0.1900
 1647DOPE   C1B19327  16.174  18.888  11.145  0.1259  0.3163  0.0156
 1647DOPE   D2B19328  16.682  18.889  10.980 -0.0307 -0.0651 -0.0384
 1647DOPE   C3B19329  17.060  18.621  10.930 -0.0034  0.3288 -0.1827
 1647DOPE   C4B19330  17.335  18.274  10.857 -0.0495  0.1007  0.2838
 1648DOPC   NC319331  21.696  24.071  13.732 -0.3436 -0.0966  0.3448
 1648DOPC   PO419332  21.900  24.299  13.969 -0.0440  0.0111 -0.1459
 1648DOPC   GL119333  22.136  24.057  13.828 -0.0267 -0.2900 -0.3500
 1648DOPC   GL219334  22.478  24.031  13.765  0.1166  0.3336  0.1567
 1648DOPC   C1A19335  22.096  23.933  13.394 -0.1896 -0.0966 -0.0499
 1648DOPC   D2A19336  22.095  23.590  13.102  0.0704  0.0620  0.0090
 1648DOPC   C3A19337  22.450  23.541  12.891  0.0793  0.0001  0.3309
 1648DOPC   C4A19338  22.777  23.778  12.778 -0.1906  0.2533 -0.1521
 1648DOPC   C1B19339  22.519  24.132  13.292  0.1605  0.0575  0.1987
 1648DOPC   D2B19340  22.602  24.305  12.828  0.0057  0.0830 -0.0939
 1648DOPC   C3B19341  22.380  24.619  12.543  0.2452  0.0410  0.0767
 1648DOPC   C4B19342  22.045  24.734  12.214  0.0907  0.0374 -0.0139
 1649POSM   NC319343  24.153  17.496  14.177 -0.1512 -0.0665 -0.0034
 1649POSM   PO419344  24.230  17.446  13.779 -0.1917  0.1560  0.2518
 1649POSM   AM119345  24.194  17.321  13.440 -0.1848 -0.1981 -0.2164
 1649POSM   AM219346  24.206  17.384  13.164  0.1023 -0.0814 -0.0197
 1649POSM   T1A19347  24.200  16.897  13.174 -0.1791 -0.1962  0.1064
 1649POSM   C2A19348  23.899  16.661  12.938  0.0882 -0.1868 -0.3012
 1649POSM   C3A19349  23.798  16.279  12.671  0.0667  0.4929  0.3566
 1649POSM   C1B19350  24.245  17.406  12.891  0.0706 -0.0076 -0.2302
 1649POSM   D2B19351  24.385  17.227  12.458 -0.3791  0.1365 -0.1284
 1649POSM   C3B19352  24.796  16.987  12.524  0.1294 -0.1297 -0.1982
 1649POSM   C4B19353  25.095  16.694  12.772 -0.1346 -0.0852 -0.1460
 1650DOPE   NH319354  11.902  22.263  12.541  0.3390 -0.0595 -0.2475
 1650DOPE   PO419355  12.035  22.268  12.251 -0.3040  0.0992  0.2787
 1650DOPE   GL119356  11.922  22.423  11.907 -0.0165  0.0734  0.1100
 1650DOPE   GL219357  11.860  22.717  11.788 -0.1202  0.1470  0.1031
 1650DOPE   C1A19358  11.520  22.341  11.710 -0.0176  0.1531  0.1915
 1650DOPE   D2A19359  11.324  22.657  11.390  0.1264  0.0552  0.1645
 1650DOPE   C3A19360  11.105  22.365  11.021 -0.1169  0.0189  0.1914
 1650DOPE   C4A19361  11.111  21.821  10.983 -0.1594 -0.3947  0.0483
 1650DOPE   C1B19362  11.840  22.732  11.332 -0.2561  0.0612 -0.2927
 1650DOPE   D2B19363  11.976  22.922  10.907  0.2050  0.0302  0.2326
 1650DOPE   C3B19364  11.815  23.076  10.539 -0.1123 -0.0576 -0.3690
 1650DOPE   C4B19365  11.477  23.129  10.256  0.2393 -0.2425  0.1494
 1651DOPS   CNO19366  19.751  11.881  12.264  0.1863  0.0630  0.1522
 1651DOPS   PO419367  19.814  12.235  12.396 -0.1212  0.1835  0.0911
 1651DOPS   GL119368  19.947  12.286  11.958 -0.0282  0.1757  0.0487
 1651DOPS   GL219369  19.754  12.206  11.805  0.2773 -0.0507  0.3010
 1651DOPS   C1A19370  19.826  12.636  11.670 -0.0028 -0.1634  0.3150
 1651DOPS   D2A19371  19.883  13.056  11.484  0.1320  0.0210  0.0676
 1651DOPS   C3A19372  20.216  13.289  11.320 -0.3162  0.0503 -0.0929
 1651DOPS   C4A19373  20.483  13.429  10.977  0.2184 -0.2568 -0.0766
 1651DOPS   C1B19374  19.837  12.111  11.344 -0.2144 -0.1769 -0.0535
 1651DOPS   D2B19375  19.821  12.200  10.901 -0.0431  0.0992  0.0176
 1651DOPS   C3B19376  19.842  12.468  10.561 -0.1349 -0.1093  0.1762
 1651DOPS   C4B19377  19.867  12.603  10.127 -0.0810  0.0629  0.1458
 1652POSM   NC319378  16.481  19.741  11.993  0.2477 -0.0758  0.2105
 1652POSM   PO419379  16.615  19.360  12.057  0.3767 -0.0296 -0.1033
 1652POSM   AM119380  16.643  19.383  11.732  0.1547 -0.0378 -0.2817
 1652POSM   AM219381  16.547  19.541  11.503  0.1475  0.1305  0.1647
 1652POSM   T1A19382  16.891  19.074  11.445  0.1259  0.4422 -0.2387
 1652POSM   C2A19383  17.235  19.086  11.126  0.0715  0.1849 -0.3242
 1652POSM   C3A19384  17.370  19.057  10.664 -0.0578  0.0555 -0.0482
 1652POSM   C1B19385  16.434  19.324  11.277 -0.2122 -0.0586  0.0528
 1652POSM   D2B19386  16.435  19.273  10.802  0.0639  0.1656  0.1797
 1652POSM   C3B19387  16.905  19.217  10.659  0.0849 -0.1423  0.1156
 1652POSM   C4B19388  17.189  19.564  10.668 -0.2104 -0.1165 -0.1188
 1653POSM   NC319389  16.884  18.077  12.108 -0.0453 -0.3706  0.1499
 1653POSM   PO419390  17.284  17.949  11.993 -0.1399  0.0554  0.2930
 1653POSM   AM119391  17.382  18.027  11.661  0.1715 -0.0828  0.3450
 1653POSM   AM219392  17.557  17.929  11.495 -0.3031 -0.0365  0.0609
 1653POSM   T1A19393  17.356  18.356  11.325  0.0538 -0.0167 -0.1738
 1653POSM   C2A19394  17.602  18.692  11.031 -0.4237  0.3187 -0.0477
 1653POSM   C3A19395  17.938  19.016  10.887 -0.0757  0.0017 -0.0260
 1653POSM   C1B19396  17.461  17.862  11.194  0.1085 -0.0595 -0.1505
 1653POSM   D2B19397  17.251  17.751  10.771 -0.1792 -0.4370  0.0696
 1653POSM   C3B19398  17.365  17.382  10.564  0.1892 -0.1044 -0.0247
 1653POSM   C4B19399  17.059  17.172  10.270  0.4004  0.1307  0.1071
 1654DOPC   NC319400  15.297  12.853  11.376 -0.1315 -0.1169  0.1235
 1654DOPC   PO419401  15.289  13.027  11.730  0.1388  0.3145 -0.4941
 1654DOPC   GL119402  14.892  13.181  11.578 -0.0880  0.2228  0.1039
 1654DOPC   GL219403  15.094  13.407  11.490 -0.4835 -0.0785  0.1943
 1654DOPC   C1A19404  14.876  13.056  11.150  0.0238 -0.1308  0.1865
 1654DOPC   D2A19405  15.051  12.760  10.872 -0.0979 -0.1174 -0.0563
 1654DOPC   C3A19406  15.289  13.125  10.682  0.1095 -0.1824  0.0028
 1654DOPC   C4A19407  15.575  13.528  10.696  0.1551 -0.0821 -0.1984
 1654DOPC   C1B19408  15.358  13.622  11.181  0.2161  0.1008  0.1112
 1654DOPC   D2B19409  15.400  13.988  10.899 -0.0280 -0.2807 -0.2357
 1654DOPC   C3B19410  15.614  14.368  10.984  0.1810 -0.1665  0.0981
 1654DOPC   C4B19411  15.600  14.539  11.401  0.0350  0.0151 -0.0586
 1655DOPS   CNO19412  21.029  18.134  12.990 -0.0995  0.1849 -0.0887
 1655DOPS   PO419413  21.341  18.093  12.771  0.3937 -0.2371  0.1975
 1655DOPS   GL119414  21.294  18.170  12.320  0.0403 -0.4254 -0.0751
 1655DOPS   GL219415  21.491  18.210  12.197 -0.0294  0.3046 -0.1240
 1655DOPS   C1A19416  21.175  17.869  11.961 -0.0650 -0.2021  0.1580
 1655DOPS   D2A19417  20.957  17.975  11.534 -0.0142  0.3578 -0.0620
 1655DOPS   C3A19418  20.850  18.239  11.154  0.0128  0.1838 -0.0651
 1655DOPS   C4A19419  20.792  18.429  10.758 -0.2187  0.0179 -0.0603
 1655DOPS   C1B19420  21.448  18.320  11.756  0.1613 -0.2497 -0.2597
 1655DOPS   D2B19421  21.216  18.659  11.600  0.1875 -0.0824  0.3264
 1655DOPS   C3B19422  21.089  18.691  11.198  0.1483 -0.1106  0.0560
 1655DOPS   C4B19423  20.881  18.919  10.851  0.2980 -0.0686  0.0392
 1656DOPE   NH319424  24.675  24.281  15.299  0.3774  0.2758 -0.5069
 1656DOPE   PO419425  24.695  24.030  15.071 -0.0523 -0.1461  0.0908
 1656DOPE   GL119426  24.654  24.160  14.664 -0.1892  0.1259  0.1089
 1656DOPE   GL219427  24.522  24.049  14.473 -0.2350  0.1666 -0.0637
 1656DOPE   C1A19428  25.032  24.210  14.482  0.0107 -0.0054 -0.0407
 1656DOPE   D2A19429  25.412  24.331  14.240 -0.0343  0.1439  0.4235
 1656DOPE   C3A19430  25.573  24.032  13.936 -0.2224  0.1959  0.2235
 1656DOPE   C4A19431  25.273  23.849  13.635  0.0727  0.3003  0.3200
 1656DOPE   C1B19432  24.340  24.002  14.067 -0.1032 -0.1141  0.1767
 1656DOPE   D2B19433  24.348  24.080  13.629  0.0605 -0.1993 -0.2729
 1656DOPE   C3B19434  24.730  24.089  13.416  0.1686 -0.1984 -0.1411
 1656DOPE   C4B19435  25.127  24.157  13.187  0.0065 -0.0337 -0.2279
 1657POSM   NC319436  23.431  18.378  13.666  0.2059 -0.0064 -0.1068
 1657POSM   PO419437  23.551  18.141  13.394 -0.0835  0.0788  0.1423
 1657POSM   AM119438  23.667  17.947  13.192 -0.0557 -0.2739 -0.0109
 1657POSM   AM219439  23.917  17.854  13.019  0.3063  0.1240  0.1330
 1657POSM   T1A19440  23.569  17.503  12.987  0.2726 -0.1144 -0.0924
 1657POSM   C2A19441  23.800  17.149  12.818 -0.3528  0.0560  0.0578
 1657POSM   C3A19442  24.032  16.921  12.459 -0.0615 -0.2497 -0.1016
 1657POSM   C1B19443  23.887  17.990  12.715 -0.2569 -0.0324 -0.1914
 1657POSM   D2B19444  23.878  18.110  12.226 -0.1278  0.1919 -0.0794
 1657POSM   C3B19445  24.130  18.468  12.170  0.0480 -0.1001  0.1388
 1657POSM   C4B19446  24.077  18.868  12.209  0.0152 -0.1657 -0.1286
 1658POSM   NC319447  25.345  13.861  14.103 -0.2893 -0.0970 -0.1924
 1658POSM   PO419448  25.515  13.633  13.838  0.1807  0.1491  0.0651
 1658POSM   AM119449  25.528  13.735  13.477 -0.0971  0.4316  0.1347
 1658POSM   AM219450  25.400  13.951  13.362 -0.0096  0.1909  0.0459
 1658POSM   T1A19451  25.698  13.860  13.033 -0.0319 -0.1744 -0.1573
 1658POSM   C2A19452  25.651  13.603  12.657 -0.1081 -0.0621  0.0859
 1658POSM   C3A19453  25.738  13.521  12.215  0.1075  0.1318 -0.0192
 1658POSM   C1B19454  25.164  13.845  13.127 -0.1485  0.0307 -0.1139
 1658POSM   D2B19455  24.802  13.510  13.068 -0.1245  0.3248  0.1791
 1658POSM   C3B19456  24.619  13.619  12.615 -0.2558 -0.3728  0.2401
 1658POSM   C4B19457  24.759  13.839  12.250 -0.2107 -0.2879  0.4807
 1659DOPC   NC319458  14.070  20.919  12.071  0.1582 -0.0949 -0.1749
 1659DOPC   PO419459  13.687  20.970  12.041  0.3262  0.0988  0.1697
 1659DOPC   GL119460  13.587  20.878  11.681 -0.1322  0.0382 -0.0899
 1659DOPC   GL219461  13.313  21.059  11.636 -0.1542  0.0090  0.1941
 1659DOPC   C1A19462  13.407  20.766  11.290  0.0363 -0.1522 -0.0299
 1659DOPC   D2A19463  13.389  20.720  10.763 -0.0118 -0.0863  0.1329
 1659DOPC   C3A19464  13.169  20.693  10.330  0.0922  0.0682  0.1370
 1659DOPC   C4A19465  12.923  20.313  10.222  0.2287  0.1345  0.0950
 1659DOPC   C1B19466  13.290  21.386  11.349  0.0344  0.1443  0.0233
 1659DOPC   D2B19467  13.152  21.434  10.894 -0.2397 -0.0854  0.2178
 1659DOPC   C3B19468  13.091  21.160  10.491  0.0189  0.2138 -0.3765
 1659DOPC   C4B19469  12.866  21.025  10.110 -0.0441 -0.0636 -0.0303
 1660DOPC   NC319470  12.067  14.382  12.265  0.2249 -0.3792  0.0241
 1660DOPC   PO419471  11.926  14.010  12.360 -0.3186  0.3061  0.1132
 1660DOPC   GL119472  12.113  13.905  12.022 -0.1590 -0.1585 -0.4371
 1660DOPC   GL219473  11.949  13.650  11.936  0.2900 -0.0980 -0.1313
 1660DOPC   C1A19474  12.136  13.888  11.562 -0.3886  0.1215 -0.0389
 1660DOPC   D2A19475  12.281  13.610  11.199  0.0697  0.0179  0.0555
 1660DOPC   C3A19476  12.409  13.213  11.027  0.0570  0.2272  0.0414
 1660DOPC   C4A19477  12.321  12.781  10.982 -0.5122 -0.1686  0.2909
 1660DOPC   C1B19478  11.836  13.472  11.539 -0.1104 -0.2170  0.1029
 1660DOPC   D2B19479  11.553  13.255  11.173  0.0845  0.1286  0.0797
 1660DOPC   C3B19480  11.206  13.353  10.936 -0.1790 -0.0217 -0.3693
 1660DOPC   C4B19481  10.792  13.285  10.768 -0.0203  0.4535  0.0327
 1661POSM   NC319482  20.108   9.855  12.885  0.5059  0.1854 -0.1496
 1661POSM   PO419483  19.789   9.642  13.014  0.2201 -0.0821 -0.0348
 1661POSM   AM119484  19.769   9.531  12.704 -0.2043 -0.1845 -0.1094
 1661POSM   AM219485  19.593   9.427  12.508  0.0214  0.1602 -0.1303
 1661POSM   T1A19486  20.054   9.482  12.283  0.2051 -0.1003 -0.0728
 1661POSM   C2A19487  20.037   9.271  11.921  0.0690  0.3017  0.0471
 1661POSM   C3A19488  20.017   9.375  11.488  0.1758  0.0555  0.0299
 1661POSM   C1B19489  19.548   9.657  12.278  0.0569 -0.1731  0.1236
 1661POSM   D2B19490  19.854   9.946  12.003 -0.1972  0.3549  0.2784
 1661POSM   C3B19491  20.202  10.139  12.191 -0.1251  0.1394  0.0746
 1661POSM   C4B19492  20.513   9.976  12.517  0.0718 -0.1659 -0.1551
 1662POSM   NC319493  23.448  16.633  13.302 -0.3836 -0.0701  0.2566
 1662POSM   PO419494  23.590  16.259  13.338 -0.1131 -0.1571 -0.1022
 1662POSM   AM119495  23.791  16.102  13.175 -0.0598  0.0972 -0.1453
 1662POSM   AM219496  24.072  16.118  13.196  0.2567 -0.2045 -0.1209
 1662POSM   T1A19497  23.931  15.785  12.762  0.2066  0.0673 -0.1529
 1662POSM   C2A19498  23.977  15.530  12.420  0.2294 -0.0487 -0.1820
 1662POSM   C3A19499  23.860  15.567  11.979 -0.1258 -0.0214 -0.2843
 1662POSM   C1B19500  24.211  16.110  12.904  0.0654  0.0137 -0.1575
 1662POSM   D2B19501  24.335  16.285  12.503  0.1914  0.1030  0.1179
 1662POSM   C3B19502  24.096  16.408  12.154  0.0775 -0.5043  0.0229
 1662POSM   C4B19503  23.934  16.684  11.765  0.0473 -0.1852 -0.0011
 1663DOPE   NH319504  23.603  23.134  14.648 -0.1379 -0.1052  0.2160
 1663DOPE   PO419505  23.499  22.828  14.568 -0.5316 -0.1264 -0.3905
 1663DOPE   GL119506  23.524  22.994  14.203 -0.1315  0.1541 -0.3974
 1663DOPE   GL219507  23.843  22.941  14.007 -0.3662 -0.1285 -0.0973
 1663DOPE   C1A19508  23.463  23.121  13.748 -0.0004 -0.0448 -0.1198
 1663DOPE   D2A19509  23.109  23.257  13.460 -0.0760 -0.2018 -0.3013
 1663DOPE   C3A19510  23.093  23.456  12.983  0.1021  0.2860 -0.0135
 1663DOPE   C4A19511  23.225  23.446  12.573 -0.1253 -0.1138 -0.0649
 1663DOPE   C1B19512  24.301  23.030  13.942  0.2228 -0.1233  0.0263
 1663DOPE   D2B19513  24.593  22.779  13.782 -0.1865 -0.0506 -0.2010
 1663DOPE   C3B19514  24.565  22.753  13.338 -0.0716  0.1509  0.0470
 1663DOPE   C4B19515  24.740  23.102  13.097 -0.1041 -0.1375 -0.0113
 1664DOPC   NC319516  20.091  20.117  12.472  0.1043 -0.0304 -0.1076
 1664DOPC   PO419517  20.077  20.469  12.662 -0.3039  0.2281  0.0446
 1664DOPC   GL119518  20.279  20.568  12.302 -0.1579 -0.0131  0.1419
 1664DOPC   GL219519  20.084  20.716  12.219 -0.3341  0.0623 -0.1249
 1664DOPC   C1A19520  20.428  20.449  11.852  0.2777 -0.0546  0.2295
 1664DOPC   D2A19521  20.087  20.339  11.501  0.0648  0.2399 -0.0283
 1664DOPC   C3A19522  19.661  20.200  11.608  0.2633 -0.2194  0.0683
 1664DOPC   C4A19523  19.558  19.776  11.355  0.2393  0.1385 -0.2657
 1664DOPC   C1B19524  20.111  20.832  11.761  0.1903  0.2364  0.3411
 1664DOPC   D2B19525  20.163  20.913  11.331  0.0530 -0.0815 -0.0436
 1664DOPC   C3B19526  20.558  21.074  11.027  0.2077 -0.4790 -0.0883
 1664DOPC   C4B19527  20.951  21.200  11.219 -0.0698 -0.0761 -0.2363
 1665DOPE   NH319528  21.653  18.834  12.562 -0.0556 -0.3586 -0.1250
 1665DOPE   PO419529  21.925  18.810  12.739 -0.0562 -0.5193 -0.0917
 1665DOPE   GL119530  22.038  18.645  12.391  0.2078  0.2329 -0.1535
 1665DOPE   GL219531  21.948  18.760  12.138  0.0611  0.0538 -0.2600
 1665DOPE   C1A19532  22.444  18.654  12.175 -0.0426  0.3965  0.1418
 1665DOPE   D2A19533  22.785  18.897  11.919  0.1225 -0.3908  0.1118
 1665DOPE   C3A19534  22.749  19.036  11.489  0.0546 -0.3089 -0.0706
 1665DOPE   C4A19535  22.486  19.316  11.292  0.0611 -0.2820  0.1741
 1665DOPE   C1B19536  21.924  19.195  12.017 -0.2454  0.2955 -0.1278
 1665DOPE   D2B19537  21.806  19.629  11.936  0.0920  0.0490  0.0202
 1665DOPE   C3B19538  22.189  19.845  11.908 -0.0246  0.1411  0.0758
 1665DOPE   C4B19539  22.676  19.908  11.926 -0.0805  0.0411  0.0459
 1666DOPE   NH319540  21.147  15.713  12.731 -0.3980 -0.0350  0.0406
 1666DOPE   PO419541  21.362  15.966  12.634  0.1292  0.2678  0.6487
 1666DOPE   GL119542  21.666  15.938  12.407  0.0142  0.3996  0.0955
 1666DOPE   GL219543  21.898  15.846  12.426 -0.3953 -0.0403  0.2969
 1666DOPE   C1A19544  21.735  16.030  11.932 -0.1020  0.1061 -0.2618
 1666DOPE   D2A19545  21.705  16.031  11.471  0.0456  0.2068  0.1233
 1666DOPE   C3A19546  21.996  15.796  11.320 -0.0988 -0.1399  0.1322
 1666DOPE   C4A19547  22.059  15.368  11.363  0.2395 -0.2340  0.1100
 1666DOPE   C1B19548  22.214  15.944  12.103 -0.2000 -0.1231 -0.2896
 1666DOPE   D2B19549  22.512  15.873  11.774  0.1915  0.2071  0.1611
 1666DOPE   C3B19550  22.498  15.666  11.382  0.1027 -0.1068 -0.1204
 1666DOPE   C4B19551  22.477  15.847  10.963 -0.0141  0.0364  0.3024
 1667DOPE   NH319552  20.726  15.401  12.116 -0.1506 -0.0332 -0.1124
 1667DOPE   PO419553  20.510  15.620  12.127  0.1161 -0.1317  0.0940
 1667DOPE   GL119554  20.638  15.820  11.797 -0.3959  0.3558  0.1340
 1667DOPE   GL219555  20.337  15.964  11.741  0.0693  0.1397  0.2154
 1667DOPE   C1A19556  20.998  15.840  11.507 -0.1379 -0.0015 -0.0314
 1667DOPE   D2A19557  21.380  15.776  11.183 -0.1550  0.2070  0.0918
 1667DOPE   C3A19558  21.578  15.298  11.209  0.3427 -0.0008 -0.1907
 1667DOPE   C4A19559  21.633  14.990  11.558 -0.0685 -0.3557 -0.2026
 1667DOPE   C1B19560  20.668  16.190  11.584 -0.2313  0.2592 -0.0743
 1667DOPE   D2B19561  20.774  16.556  11.314 -0.0299  0.1840  0.3926
 1667DOPE   C3B19562  21.081  16.773  11.088 -0.0959  0.2732  0.0356
 1667DOPE   C4B19563  21.485  16.734  10.996  0.3173  0.0064  0.0624
 1668DOPS   CNO19564  14.437  18.031  11.574  0.1801  0.0402  0.0340
 1668DOPS   PO419565  14.823  17.994  11.539  0.1766  0.2437 -0.0023
 1668DOPS   GL119566  14.568  17.989  11.150 -0.1958 -0.0706 -0.0688
 1668DOPS   GL219567  14.674  18.199  11.041  0.4580 -0.0652  0.2653
 1668DOPS   C1A19568  14.586  17.673  10.816 -0.2719 -0.0505  0.0796
 1668DOPS   D2A19569  14.798  17.270  10.756  0.1945  0.2041 -0.0720
 1668DOPS   C3A19570  14.934  17.047  10.372 -0.2901 -0.2059  0.2398
 1668DOPS   C4A19571  15.206  16.767  10.176  0.0412  0.2201  0.1679
 1668DOPS   C1B19572  14.861  18.027  10.669  0.3126  0.1662 -0.1002
 1668DOPS   D2B19573  14.886  18.058  10.233  0.0856 -0.1116 -0.2031
 1668DOPS   C3B19574  14.931  18.349   9.838  0.3608 -0.2807  0.2647
 1668DOPS   C4B19575  14.775  18.758   9.721  0.0247  0.2462  0.5030
 1669DOPE   NH319576  18.924  18.907  12.556  0.2220  0.0196  0.3585
 1669DOPE   PO419577  18.697  19.007  12.350 -0.2662 -0.4163 -0.2176
 1669DOPE   GL119578  18.713  18.941  11.952 -0.0657  0.2946  0.0208
 1669DOPE   GL219579  18.511  19.115  11.760  0.1684 -0.1391 -0.3534
 1669DOPE   C1A19580  19.015  18.956  11.577 -0.1323  0.2594 -0.2857
 1669DOPE   D2A19581  19.148  19.100  11.136 -0.1293  0.1130  0.0459
 1669DOPE   C3A19582  18.886  19.081  10.757  0.0282 -0.2271  0.2149
 1669DOPE   C4A19583  18.565  19.221  10.442  0.0758  0.0657  0.3400
 1669DOPE   C1B19584  18.633  19.236  11.365  0.1081  0.1266 -0.3454
 1669DOPE   D2B19585  18.659  19.477  10.970 -0.0482  0.0115  0.0859
 1669DOPE   C3B19586  19.070  19.615  11.001 -0.1051 -0.1853  0.1398
 1669DOPE   C4B19587  19.512  19.459  10.930  0.0960  0.0010  0.3039
 1670DOPE   NH319588  18.118  20.847  12.268 -0.0487 -0.1980  0.3377
 1670DOPE   PO419589  18.263  20.542  12.383 -0.1102  0.0685 -0.3044
 1670DOPE   GL119590  18.488  20.554  12.082 -0.1336 -0.3243 -0.0995
 1670DOPE   GL219591  18.565  20.815  12.056 -0.0606  0.1745 -0.0938
 1670DOPE   C1A19592  18.520  20.170  11.793  0.0824  0.3628  0.1752
 1670DOPE   D2A19593  18.817  20.119  11.486 -0.0438  0.0565 -0.0947
 1670DOPE   C3A19594  19.205  20.005  11.662 -0.1456  0.2804  0.2214
 1670DOPE   C4A19595  19.328  19.636  11.860  0.1716 -0.0906  0.2830
 1670DOPE   C1B19596  18.251  20.777  11.703  0.1953 -0.0301 -0.0867
 1670DOPE   D2B19597  17.890  20.691  11.388  0.1614 -0.0484  0.0043
 1670DOPE   C3B19598  17.840  20.281  11.114 -0.0276  0.1733 -0.2046
 1670DOPE   C4B19599  17.915  19.867  10.926  0.0540  0.0185  0.1938
 1671POSM   NC319600  17.099  11.316  12.802  0.0801 -0.1097  0.0095
 1671POSM   PO419601  17.004  11.639  12.591  0.1163 -0.1453 -0.2091
 1671POSM   AM119602  17.027  11.493  12.297  0.0236  0.0794  0.0820
 1671POSM   AM219603  16.847  11.281  12.215  0.1321 -0.0287  0.1062
 1671POSM   T1A19604  17.172  11.383  11.790  0.1905  0.1285  0.1462
 1671POSM   C2A19605  17.540  11.252  11.603 -0.0008 -0.1837  0.1302
 1671POSM   C3A19606  17.795  10.908  11.405 -0.0180  0.1370 -0.0259
 1671POSM   C1B19607  16.695  11.302  11.916  0.0857  0.0266 -0.4905
 1671POSM   D2B19608  16.672  11.351  11.471 -0.0047 -0.0216 -0.0236
 1671POSM   C3B19609  17.035  11.263  11.158  0.0801  0.0696 -0.0538
 1671POSM   C4B19610  17.475  11.162  11.055 -0.2609 -0.1681 -0.1612
 1672POSM   NC319611  16.270  12.523  12.663  0.0584  0.1372  0.0011
 1672POSM   PO419612  15.885  12.354  12.575 -0.2857  0.3451 -0.0125
 1672POSM   AM119613  15.967  12.234  12.258  0.2021  0.0928  0.2967
 1672POSM   AM219614  15.826  12.245  12.005 -0.0316  0.1999 -0.0692
 1672POSM   T1A19615  16.212  11.941  11.851 -0.1121 -0.1217  0.0909
 1672POSM   C2A19616  16.304  11.783  11.433  0.1364  0.1763  0.0788
 1672POSM   C3A19617  16.418  11.705  10.978 -0.2374  0.0831  0.1422
 1672POSM   C1B19618  15.793  12.457  11.771  0.1127  0.4591  0.1489
 1672POSM   D2B19619  15.807  12.717  11.460  0.3080  0.0658 -0.1938
 1672POSM   C3B19620  15.856  12.573  11.050 -0.2641  0.0445 -0.0553
 1672POSM   C4B19621  15.842  12.274  10.631 -0.2278 -0.1675  0.0929
 1673DOPC   NC319622  20.896  20.349  12.581 -0.0501  0.1976  0.0842
 1673DOPC   PO419623  20.567  20.218  12.439 -0.0564 -0.5306  0.1756
 1673DOPC   GL119624  20.664  20.078  12.092 -0.1160  0.0131 -0.0625
 1673DOPC   GL219625  20.840  20.284  12.002  0.3411 -0.0228 -0.0096
 1673DOPC   C1A19626  20.656  19.780  11.720 -0.4003  0.0826 -0.0316
 1673DOPC   D2A19627  20.454  19.529  11.334  0.1762  0.0893  0.0627
 1673DOPC   C3A19628  20.363  19.053  11.441  0.2643  0.0314  0.0527
 1673DOPC   C4A19629  20.543  18.708  11.279  0.0946  0.0186 -0.1387
 1673DOPC   C1B19630  21.137  20.247  11.652  0.1292  0.0589  0.2046
 1673DOPC   D2B19631  21.261  20.267  11.221 -0.1857  0.0253  0.1841
 1673DOPC   C3B19632  20.992  20.158  10.855 -0.0653 -0.2191  0.0665
 1673DOPC   C4B19633  20.653  20.016  10.603 -0.2358 -0.0919 -0.0562
 1674DOPC   NC319634  15.717  22.424  12.222  0.0076  0.2081  0.2438
 1674DOPC   PO419635  15.591  22.093  12.067 -0.0355  0.2265  0.0815
 1674DOPC   GL119636  15.605  22.298  11.641  0.2190  0.1085 -0.2057
 1674DOPC   GL219637  15.351  22.284  11.441 -0.0189  0.1827 -0.0729
 1674DOPC   C1A19638  15.822  22.494  11.244  0.1461  0.2182 -0.0105
 1674DOPC   D2A19639  15.692  22.504  10.784  0.4183 -0.1374  0.1893
 1674DOPC   C3A19640  15.387  22.257  10.485 -0.1498 -0.0150 -0.2005
 1674DOPC   C4A19641  15.220  21.935  10.242  0.0139  0.1679 -0.0477
 1674DOPC   C1B19642  15.330  22.229  11.012 -0.0208 -0.1805 -0.1789
 1674DOPC   D2B19643  15.586  21.923  10.762 -0.2553  0.2303  0.1160
 1674DOPC   C3B19644  15.850  21.955  10.371 -0.2073  0.1718  0.1095
 1674DOPC   C4B19645  16.140  21.881  10.102 -0.0858 -0.2700 -0.2913
 1675POSM   NC319646  13.266  22.720  12.536 -0.0306  0.0332  0.0118
 1675POSM   PO419647  13.426  23.075  12.466  0.0977 -0.1069 -0.1672
 1675POSM   AM119648  13.361  23.085  12.202 -0.0055 -0.1655  0.6157
 1675POSM   AM219649  13.372  22.880  11.979 -0.3404  0.0333  0.2520
 1675POSM   T1A19650  12.951  23.082  11.868  0.3193 -0.3452  0.3699
 1675POSM   C2A19651  12.648  22.986  11.475  0.0688  0.1024 -0.0292
 1675POSM   C3A19652  12.245  23.103  11.323  0.0534  0.1764  0.0573
 1675POSM   C1B19653  13.557  22.852  11.733 -0.0484 -0.1357 -0.2594
 1675POSM   D2B19654  13.985  22.865  11.503 -0.3421  0.0238 -0.1052
 1675POSM   C3B19655  14.031  22.462  11.270 -0.0644 -0.3146 -0.4907
 1675POSM   C4B19656  14.073  21.957  11.274 -0.0937  0.0895 -0.2144
 1676DOPC   NC319657  22.360  15.211  13.537 -0.1465  0.2452 -0.0072
 1676DOPC   PO419658  22.173  15.223  13.184 -0.0597  0.0955 -0.0874
 1676DOPC   GL119659  22.223  15.272  12.913  0.1419  0.1072  0.0072
 1676DOPC   GL219660  22.330  15.026  12.763 -0.1231  0.0698  0.2429
 1676DOPC   C1A19661  22.282  15.477  12.485  0.1068 -0.2429  0.0809
 1676DOPC   D2A19662  22.537  15.550  12.139  0.2196 -0.0346  0.0084
 1676DOPC   C3A19663  22.884  15.587  11.846 -0.2522 -0.0047  0.1567
 1676DOPC   C4A19664  22.960  15.328  11.483 -0.3035 -0.0532 -0.1142
 1676DOPC   C1B19665  22.537  15.019  12.341 -0.1082  0.0540 -0.2601
 1676DOPC   D2B19666  22.859  15.058  12.017 -0.2248  0.0224 -0.0599
 1676DOPC   C3B19667  22.763  14.833  11.635  0.0042  0.0395 -0.0487
 1676DOPC   C4B19668  22.509  14.599  11.302 -0.4243  0.1182  0.0310
 1677POSM   NC319669  13.463  20.303  11.410 -0.1465  0.0422 -0.2196
 1677POSM   PO419670  13.586  19.941  11.584 -0.2087 -0.2621  0.0555
 1677POSM   AM119671  13.608  19.899  11.255  0.0367 -0.4363 -0.0128
 1677POSM   AM219672  13.406  19.826  11.063 -0.1223  0.1196 -0.0097
 1677POSM   T1A19673  13.934  19.778  10.884  0.0818 -0.0177 -0.0894
 1677POSM   C2A19674  14.096  19.853  10.491 -0.2067  0.2046  0.1574
 1677POSM   C3A19675  14.391  19.887  10.161 -0.0993  0.1536 -0.1769
 1677POSM   C1B19676  13.432  19.913  10.744  0.2183  0.2002 -0.2545
 1677POSM   D2B19677  13.566  19.765  10.298  0.1700 -0.2944  0.2410
 1677POSM   C3B19678  13.410  19.592   9.933 -0.0189 -0.0466  0.1051
 1677POSM   C4B19679  13.176  19.316   9.633 -0.0525  0.2213  0.0242
 1678DOPC   NC319680  12.252  16.316  12.571  0.4758 -0.0189  0.1314
 1678DOPC   PO419681  12.305  16.277  12.188 -0.0880  0.1407  0.2733
 1678DOPC   GL119682  12.066  16.348  11.963  0.2890  0.2224  0.1854
 1678DOPC   GL219683  11.827  16.502  12.050 -0.3221 -0.0111 -0.0335
 1678DOPC   C1A19684  12.002  16.354  11.472  0.2991  0.2667  0.0861
 1678DOPC   D2A19685  12.093  16.416  10.991 -0.0686  0.0203 -0.2117
 1678DOPC   C3A19686  11.828  16.689  10.750  0.1468  0.3005  0.1434
 1678DOPC   C4A19687  11.412  16.723  10.563 -0.1653 -0.0352  0.1744
 1678DOPC   C1B19688  11.584  16.288  11.768 -0.0360  0.2597 -0.2366
 1678DOPC   D2B19689  11.441  15.991  11.367 -0.1043  0.0258 -0.2670
 1678DOPC   C3B19690  11.804  15.771  11.275  0.1026  0.3041 -0.0548
 1678DOPC   C4B19691  11.935  15.366  11.340 -0.3590 -0.1062  0.0910
 1679POSM   NC319692  15.384  24.662  13.159  0.0413  0.0085  0.0497
 1679POSM   PO419693  15.002  24.555  13.172  0.2605 -0.0942  0.2606
 1679POSM   AM119694  15.036  24.749  12.875  0.4179  0.2543 -0.4913
 1679POSM   AM219695  15.136  24.786  12.633  0.1300 -0.2804 -0.1250
 1679POSM   T1A19696  14.823  25.151  12.639 -0.0721  0.1831 -0.1368
 1679POSM   C2A19697  14.745  25.189  12.199 -0.2074  0.1176 -0.0093
 1679POSM   C3A19698  14.591  25.477  11.869 -0.1009 -0.0829  0.0888
 1679POSM   C1B19699  15.136  24.807  12.282  0.0295  0.1186 -0.2273
 1679POSM   D2B19700  15.181  24.952  11.855  0.2114 -0.0907 -0.1079
 1679POSM   C3B19701  15.103  24.572  11.608 -0.0580  0.1493 -0.0200
 1679POSM   C4B19702  15.098  24.212  11.326 -0.0229 -0.0522 -0.1801
 1680DOPE   NH319703  16.305  21.562  12.046 -0.0455 -0.1144  0.0993
 1680DOPE   PO419704  16.506  21.481  11.818  0.0364  0.3727 -0.0408
 1680DOPE   GL119705  16.590  21.369  11.482 -0.3996 -0.2687  0.7126
 1680DOPE   GL219706  16.443  21.584  11.345 -0.1052  0.2486 -0.1212
 1680DOPE   C1A19707  16.272  21.120  11.242 -0.1874 -0.0178 -0.0365
 1680DOPE   D2A19708  16.362  20.712  10.978 -0.2007 -0.1770  0.0616
 1680DOPE   C3A19709  16.673  20.795  10.659  0.1109  0.0620  0.0990
 1680DOPE   C4A19710  17.136  20.908  10.648 -0.0660  0.0464 -0.1690
 1680DOPE   C1B19711  16.863  21.695  11.269 -0.2351 -0.3062  0.0106
 1680DOPE   D2B19712  17.193  21.974  11.418  0.0759 -0.0391  0.1101
 1680DOPE   C3B19713  17.502  22.070  11.190 -0.1882 -0.2466  0.0579
 1680DOPE   C4B19714  17.569  22.494  10.969  0.3086 -0.0299 -0.3324
 1681DOPC   NC319715  23.701  15.734  13.455  0.0920 -0.1057 -0.1539
 1681DOPC   PO419716  23.555  15.396  13.290  0.0168  0.4015 -0.1141
 1681DOPC   GL119717  23.486  15.293  12.868  0.0373  0.3227  0.2931
 1681DOPC   GL219718  23.531  15.468  12.696  0.3081 -0.0546 -0.2543
 1681DOPC   C1A19719  23.516  14.954  12.480 -0.2205 -0.0518 -0.0396
 1681DOPC   D2A19720  23.669  14.610  12.325  0.0890 -0.2987  0.3467
 1681DOPC   C3A19721  24.115  14.580  12.085 -0.0356  0.0179 -0.1454
 1681DOPC   C4A19722  24.506  14.354  12.051 -0.0693 -0.0134  0.1337
 1681DOPC   C1B19723  23.393  15.493  12.226 -0.2597  0.0902 -0.5168
 1681DOPC   D2B19724  23.368  15.753  11.852 -0.2946  0.0126 -0.1718
 1681DOPC   C3B19725  23.674  15.805  11.571 -0.0018 -0.2785 -0.0157
 1681DOPC   C4B19726  24.120  15.944  11.622  0.2381  0.0301 -0.0739
 1682DOPC   NC319727  21.635  12.885  12.802  0.2176  0.3742  0.1703
 1682DOPC   PO419728  21.963  13.036  12.995 -0.1427 -0.1643  0.0849
 1682DOPC   GL119729  22.061  13.111  12.566 -0.2785  0.0815  0.3623
 1682DOPC   GL219730  21.835  13.287  12.567 -0.3265 -0.1861 -0.0148
 1682DOPC   C1A19731  22.322  12.839  12.259 -0.3225  0.5473 -0.2931
 1682DOPC   D2A19732  22.409  12.735  11.805 -0.0585 -0.0498 -0.0636
 1682DOPC   C3A19733  22.293  12.901  11.410  0.0736 -0.0304 -0.0126
 1682DOPC   C4A19734  22.361  13.290  11.149  0.0755 -0.0276 -0.1701
 1682DOPC   C1B19735  21.633  13.243  12.181  0.3722 -0.0355 -0.2042
 1682DOPC   D2B19736  21.679  13.296  11.780 -0.0819 -0.0226 -0.2793
 1682DOPC   C3B19737  21.326  13.282  11.436 -0.0875 -0.0581  0.2324
 1682DOPC   C4B19738  21.278  13.022  11.069 -0.3823 -0.2248  0.0705
 1683DOPC   NC319739  14.797  16.706  11.879 -0.1297 -0.1382 -0.0611
 1683DOPC   PO419740  14.838  16.690  11.482  0.0758  0.2954 -0.1724
 1683DOPC   GL119741  14.762  16.476  11.196 -0.0048  0.1709 -0.0104
 1683DOPC   GL219742  14.750  16.230  11.070  0.1340  0.0525 -0.4619
 1683DOPC   C1A19743  15.029  16.646  10.781 -0.0103 -0.0462 -0.3313
 1683DOPC   D2A19744  15.299  17.026  10.758  0.0248  0.1819 -0.1459
 1683DOPC   C3A19745  15.722  16.959  10.494 -0.4364  0.2869  0.1538
 1683DOPC   C4A19746  16.095  17.075  10.542  0.1063 -0.2701  0.0351
 1683DOPC   C1B19747  14.551  16.136  10.672  0.2232 -0.1891 -0.1958
 1683DOPC   D2B19748  14.479  16.120  10.235  0.0504 -0.3367 -0.4128
 1683DOPC   C3B19749  14.365  16.470  10.006 -0.0489  0.2421  0.3439
 1683DOPC   C4B19750  14.277  16.587   9.601 -0.0436 -0.1939 -0.0925
 1684DOPC   NC319751  22.303  19.960  13.388  0.1130 -0.1342  0.2249
 1684DOPC   PO419752  22.671  20.083  13.323 -0.0804  0.1624  0.1102
 1684DOPC   GL119753  22.672  20.086  12.898  0.0245 -0.3056 -0.0197
 1684DOPC   GL219754  22.524  20.233  12.711 -0.2573  0.1892 -0.3313
 1684DOPC   C1A19755  22.659  19.872  12.448 -0.0485  0.1834 -0.2925
 1684DOPC   D2A19756  22.928  19.643  12.244 -0.0842  0.2800  0.0235
 1684DOPC   C3A19757  22.954  19.524  11.788 -0.2460  0.0232 -0.0275
 1684DOPC   C4A19758  22.982  19.437  11.372 -0.4931  0.1539 -0.1432
 1684DOPC   C1B19759  22.745  20.403  12.371 -0.1475 -0.1551 -0.0000
 1684DOPC   D2B19760  23.023  20.197  12.069 -0.1520 -0.0558 -0.3117
 1684DOPC   C3B19761  23.479  20.312  12.057 -0.0834  0.2271  0.0931
 1684DOPC   C4B19762  23.670  20.622  11.817 -0.0573  0.1562  0.1034
 1685DOPS   CNO19763  18.440  17.460  11.764 -0.0897  0.0957  0.2958
 1685DOPS   PO419764  18.095  17.277  11.694 -0.0249  0.2115  0.1562
 1685DOPS   GL119765  17.806  17.476  11.376 -0.1133  0.0996 -0.1197
 1685DOPS   GL219766  17.998  17.666  11.224  0.0923 -0.1846  0.1243
 1685DOPS   C1A19767  17.513  17.391  11.043  0.1176  0.0006  0.1210
 1685DOPS   D2A19768  17.068  17.290  11.057 -0.0853 -0.0363  0.1347
 1685DOPS   C3A19769  16.882  17.694  11.088  0.0797  0.1832 -0.2229
 1685DOPS   C4A19770  16.915  18.122  11.076 -0.3926  0.0723  0.1207
 1685DOPS   C1B19771  18.206  17.935  10.900  0.4401  0.2887 -0.0212
 1685DOPS   D2B19772  18.334  18.229  10.551  0.0159 -0.2116 -0.1766
 1685DOPS   C3B19773  18.448  18.650  10.665  0.2409 -0.0499 -0.1743
 1685DOPS   C4B19774  18.433  19.039  10.946  0.0702  0.1427  0.0082
 1686DOPC   NC319775  19.272  17.556  12.045  0.3741  0.0165  0.5137
 1686DOPC   PO419776  19.194  17.289  11.758 -0.0090 -0.0782 -0.0351
 1686DOPC   GL119777  19.052  17.423  11.371 -0.0793 -0.0117  0.1164
 1686DOPC   GL219778  19.277  17.538  11.308 -0.1555 -0.1488 -0.0103
 1686DOPC   C1A19779  19.054  17.260  10.956  0.1007 -0.0033  0.0510
 1686DOPC   D2A19780  19.365  16.915  10.818 -0.2167 -0.1668  0.5478
 1686DOPC   C3A19781  19.115  16.991  10.419 -0.1997  0.2501 -0.0926
 1686DOPC   C4A19782  19.080  16.953   9.921  0.1554  0.0412 -0.1039
 1686DOPC   C1B19783  19.580  17.310  11.026 -0.1541 -0.0725 -0.1719
 1686DOPC   D2B19784  19.863  16.957  10.847 -0.1578 -0.2873  0.3191
 1686DOPC   C3B19785  20.201  16.951  10.513  0.1362  0.1375  0.1228
 1686DOPC   C4B19786  20.579  16.782  10.198  0.1271  0.0795  0.2328
 1687DOPS   CNO19787  20.320  21.280  13.189  0.0782  0.0528 -0.1925
 1687DOPS   PO419788  20.618  21.259  12.937 -0.2226 -0.2549 -0.1307
 1687DOPS   GL119789  20.690  21.131  12.534 -0.0619  0.0213  0.3274
 1687DOPS   GL219790  20.594  20.829  12.468  0.0857  0.0194  0.0065
 1687DOPS   C1A19791  21.018  21.310  12.232  0.0123  0.0763  0.2449
 1687DOPS   D2A19792  21.426  21.202  11.940 -0.2034 -0.1440 -0.0027
 1687DOPS   C3A19793  21.589  20.788  12.060 -0.2193  0.0447  0.1394
 1687DOPS   C4A19794  21.890  20.541  12.345  0.1893  0.0431 -0.0542
 1687DOPS   C1B19795  20.631  20.956  12.053  0.2015  0.1336 -0.0778
 1687DOPS   D2B19796  20.671  20.912  11.567  0.0986 -0.0447  0.1363
 1687DOPS   C3B19797  20.620  20.501  11.416  0.0386  0.2628  0.0897
 1687DOPS   C4B19798  20.483  20.107  11.175  0.1484  0.3136  0.1488
 1688POSM   NC319799  25.220  11.796  14.527 -0.0141 -0.0883  0.0136
 1688POSM   PO419800  25.192  12.077  14.236  0.0624 -0.0180 -0.3299
 1688POSM   AM119801  25.310  11.976  13.991  0.3270 -0.1304  0.2635
 1688POSM   AM219802  25.425  12.104  13.765 -0.3208 -0.0551 -0.5135
 1688POSM   T1A19803  25.381  11.690  13.551 -0.1320 -0.1604  0.0278
 1688POSM   C2A19804  25.639  11.560  13.121  0.0190  0.2466 -0.1606
 1688POSM   C3A19805  26.016  11.556  12.789  0.3754  0.0777 -0.2328
 1688POSM   C1B19806  25.311  12.128  13.421 -0.2215  0.0565  0.2994
 1688POSM   D2B19807  25.203  11.835  13.037 -0.0703 -0.1811 -0.5091
 1688POSM   C3B19808  25.434  11.871  12.633  0.1147 -0.2199  0.1396
 1688POSM   C4B19809  25.669  11.659  12.282 -0.1463  0.2730 -0.1030
 1689DOPS   CNO19810  16.767  15.040  11.887  0.0727  0.2768 -0.0087
 1689DOPS   PO419811  17.001  14.734  11.897  0.1050  0.2761 -0.0742
 1689DOPS   GL119812  17.010  14.754  11.547  0.4100  0.6772  0.1085
 1689DOPS   GL219813  17.193  14.455  11.498  0.1258 -0.1062 -0.1444
 1689DOPS   C1A19814  17.287  14.926  11.267  0.0747  0.2712 -0.0510
 1689DOPS   D2A19815  17.286  15.086  10.852 -0.6567 -0.0941  0.3134
 1689DOPS   C3A19816  17.369  14.861  10.495 -0.0840 -0.1998 -0.1216
 1689DOPS   C4A19817  17.178  14.572  10.168  0.1233 -0.0398 -0.1763
 1689DOPS   C1B19818  16.848  14.489  11.200  0.1939 -0.0478 -0.1390
 1689DOPS   D2B19819  16.486  14.675  11.173 -0.0441 -0.3118 -0.3650
 1689DOPS   C3B19820  16.277  14.330  10.933  0.2020 -0.1928  0.3270
 1689DOPS   C4B19821  15.981  14.312  10.616 -0.3175 -0.0672  0.1243
 1690DOPS   CNO19822  14.130  15.550  12.133 -0.1812 -0.0923 -0.0748
 1690DOPS   PO419823  14.497  15.390  12.135  0.2317  0.2381  0.1233
 1690DOPS   GL119824  14.493  15.070  11.830  0.2239  0.3104 -0.1799
 1690DOPS   GL219825  14.533  15.303  11.629  0.1579 -0.1659 -0.2180
 1690DOPS   C1A19826  14.649  14.842  11.454 -0.1616  0.0429  0.0112
 1690DOPS   D2A19827  14.686  14.515  11.117  0.2497 -0.0815 -0.0755
 1690DOPS   C3A19828  14.527  14.630  10.722 -0.1209  0.1960  0.1564
 1690DOPS   C4A19829  14.368  14.605  10.317  0.0136 -0.2846 -0.0472
 1690DOPS   C1B19830  14.359  15.426  11.231 -0.3000  0.2980  0.0250
 1690DOPS   D2B19831  14.521  15.625  10.873 -0.2232 -0.1175  0.0125
 1690DOPS   C3B19832  14.239  15.796  10.581 -0.1844 -0.0490 -0.0140
 1690DOPS   C4B19833  14.134  15.767  10.165  0.1073 -0.0646  0.1418
 1691DOPE   NH319834  16.437  14.027  12.009  0.3572 -0.2054 -0.0207
 1691DOPE   PO419835  16.429  13.688  11.927  0.3011 -0.2152  0.0407
 1691DOPE   GL119836  16.535  13.723  11.452 -0.0051  0.0625 -0.1624
 1691DOPE   GL219837  16.422  13.592  11.142 -0.0976  0.0379  0.2752
 1691DOPE   C1A19838  16.707  14.025  11.168 -0.0596 -0.1557 -0.3158
 1691DOPE   D2A19839  16.780  14.254  10.777  0.0295 -0.2960 -0.1209
 1691DOPE   C3A19840  16.800  14.282  10.358  0.3096  0.2019  0.1471
 1691DOPE   C4A19841  16.638  14.103   9.994 -0.0404 -0.1091 -0.1139
 1691DOPE   C1B19842  16.256  13.469  10.722  0.0430 -0.1294  0.0989
 1691DOPE   D2B19843  15.950  13.396  10.368  0.2297 -0.1217  0.0257
 1691DOPE   C3B19844  15.940  13.530   9.921  0.1527  0.1674 -0.3533
 1691DOPE   C4B19845  15.962  13.527   9.467 -0.0143  0.3440  0.3358
 1692DOPE   NH319846  21.540  14.270  12.951  0.0660  0.2904  0.0621
 1692DOPE   PO419847  21.380  14.394  12.741 -0.3192 -0.1269  0.1241
 1692DOPE   GL119848  21.643  14.501  12.403  0.1393 -0.0981  0.3878
 1692DOPE   GL219849  21.778  14.272  12.443  0.0825  0.0790 -0.3296
 1692DOPE   C1A19850  22.087  14.677  12.321 -0.0656  0.0394 -0.2274
 1692DOPE   D2A19851  22.387  14.665  11.969 -0.3528 -0.3499 -0.1271
 1692DOPE   C3A19852  22.411  14.321  11.745  0.0000  0.1925 -0.3395
 1692DOPE   C4A19853  22.783  14.178  11.435  0.4133  0.0487  0.0446
 1692DOPE   C1B19854  21.715  14.234  11.996 -0.1079 -0.3144  0.0029
 1692DOPE   D2B19855  21.586  14.449  11.563  0.0979  0.0241 -0.1653
 1692DOPE   C3B19856  21.951  14.513  11.288 -0.2428 -0.0500  0.1487
 1692DOPE   C4B19857  22.193  14.640  10.884  0.3214 -0.0907  0.0738
 1693DOPE   NH319858  18.373  18.370  11.759  0.1653  0.2083 -0.0420
 1693DOPE   PO419859  18.367  18.671  11.622  0.5162  0.4018 -0.1259
 1693DOPE   GL119860  18.758  18.589  11.484  0.0124  0.0898  0.4228
 1693DOPE   GL219861  18.821  18.326  11.422 -0.0820 -0.0898 -0.1777
 1693DOPE   C1A19862  19.008  18.621  11.092 -0.0725  0.1682  0.2483
 1693DOPE   D2A19863  19.128  18.684  10.621 -0.0122  0.1512 -0.2994
 1693DOPE   C3A19864  19.388  19.017  10.636 -0.1104  0.2171  0.3115
 1693DOPE   C4A19865  19.825  19.241  10.642 -0.3245 -0.1949 -0.3578
 1693DOPE   C1B19866  19.120  18.048  11.256 -0.0880  0.2368 -0.0422
 1693DOPE   D2B19867  19.286  18.179  10.874  0.4369 -0.1406 -0.0805
 1693DOPE   C3B19868  19.589  17.815  10.869 -0.0290 -0.1406 -0.1740
 1693DOPE   C4B19869  19.879  17.537  10.600 -0.2784  0.2897  0.1726
 1694DOPC   NC319870  18.762  16.749  12.183  0.0921  0.1812 -0.2525
 1694DOPC   PO419871  18.727  17.055  11.910 -0.1109  0.0233  0.2944
 1694DOPC   GL119872  18.777  17.174  11.627  0.1147 -0.2302  0.0777
 1694DOPC   GL219873  18.946  16.983  11.442  0.3319 -0.0767 -0.2232
 1694DOPC   C1A19874  18.649  17.413  11.244  0.2122  0.2924 -0.0560
 1694DOPC   D2A19875  18.834  17.760  10.982  0.1180  0.1086  0.0080
 1694DOPC   C3A19876  19.118  17.739  10.707 -0.2367  0.0394  0.2308
 1694DOPC   C4A19877  19.384  17.342  10.588  0.0048 -0.1128  0.0739
 1694DOPC   C1B19878  19.076  16.665  11.140 -0.0441 -0.0539  0.0978
 1694DOPC   D2B19879  18.922  16.442  10.751  0.2023 -0.2210 -0.1826
 1694DOPC   C3B19880  18.800  16.628  10.325 -0.0984 -0.0860 -0.0429
 1694DOPC   C4B19881  18.496  16.943  10.250  0.1147 -0.4042  0.2099
 1695DOPC   NC319882  25.340  16.639  13.719  0.0709 -0.3177 -0.1962
 1695DOPC   PO419883  25.481  16.675  13.339 -0.0401 -0.0872 -0.2526
 1695DOPC   GL119884  25.541  16.642  12.991  0.0917  0.0157 -0.1788
 1695DOPC   GL219885  25.792  16.422  12.948 -0.3112 -0.0224  0.0823
 1695DOPC   C1A19886  25.499  16.949  12.621 -0.0021 -0.1052  0.0556
 1695DOPC   D2A19887  25.317  17.293  12.383  0.2431  0.0827 -0.0198
 1695DOPC   C3A19888  25.538  17.530  12.049  0.1083 -0.3675  0.0118
 1695DOPC   C4A19889  25.625  17.363  11.651  0.0720  0.0447  0.0311
 1695DOPC   C1B19890  25.969  16.754  12.824 -0.0175  0.2602 -0.2310
 1695DOPC   D2B19891  25.807  17.220  12.834  0.0910 -0.0967  0.1157
 1695DOPC   C3B19892  25.818  17.311  12.403  0.1401  0.0947  0.1188
 1695DOPC   C4B19893  25.943  17.185  11.949  0.1816 -0.0933  0.2015
 1696POSM   NC319894  15.175  16.309  11.397 -0.1581 -0.1130 -0.1150
 1696POSM   PO419895  14.918  16.195  11.693  0.0965 -0.0979  0.0195
 1696POSM   AM119896  14.823  15.987  11.458  0.3229 -0.2875 -0.2763
 1696POSM   AM219897  14.643  15.787  11.374 -0.1576 -0.2024 -0.0479
 1696POSM   T1A19898  14.959  15.846  10.962 -0.3940 -0.3278  0.2785
 1696POSM   C2A19899  15.153  15.519  10.652  0.0173  0.1548  0.0674
 1696POSM   C3A19900  15.127  15.198  10.331 -0.1097 -0.3980 -0.1304
 1696POSM   C1B19901  14.352  15.906  11.234 -0.0363  0.2160  0.1111
 1696POSM   D2B19902  13.975  15.797  11.025  0.0985  0.3424  0.4750
 1696POSM   C3B19903  13.676  15.419  10.802  0.2133  0.1998  0.2684
 1696POSM   C4B19904  13.455  15.198  10.447 -0.3031 -0.0272  0.0685
 1697POSM   NC319905  14.504  23.121  12.344 -0.0464 -0.0308  0.0728
 1697POSM   PO419906  14.846  23.007  12.230 -0.1133  0.0560  0.0924
 1697POSM   AM119907  14.746  23.166  11.930  0.2389 -0.2433 -0.0023
 1697POSM   AM219908  14.732  23.044  11.690  0.2139  0.2433  0.5698
 1697POSM   T1A19909  14.816  23.504  11.514  0.1400  0.1254 -0.0260
 1697POSM   C2A19910  14.791  23.839  11.150  0.0591  0.1169  0.4618
 1697POSM   C3A19911  14.807  23.985  10.723 -0.5032  0.3316 -0.0165
 1697POSM   C1B19912  14.974  23.041  11.446  0.4925  0.2316  0.5517
 1697POSM   D2B19913  15.257  23.279  11.176  0.2054 -0.1583  0.1535
 1697POSM   C3B19914  15.018  23.444  10.745  0.1754 -0.2801  0.1585
 1697POSM   C4B19915  14.540  23.481  10.627 -0.0846  0.1317 -0.0617
 1698DOPE   NH319916  13.874  13.751  12.336 -0.0108 -0.2296 -0.0296
 1698DOPE   PO419917  13.744  13.571  12.128  0.2244 -0.0106 -0.1049
 1698DOPE   GL119918  13.623  13.451  11.770  0.5053  0.4206  0.0696
 1698DOPE   GL219919  13.365  13.597  11.803  0.0299  0.0523 -0.1118
 1698DOPE   C1A19920  13.638  13.380  11.269 -0.2298 -0.0964  0.1630
 1698DOPE   D2A19921  13.437  13.679  11.000  0.2644  0.0901  0.1093
 1698DOPE   C3A19922  13.169  13.681  10.642 -0.2241 -0.0092 -0.0159
 1698DOPE   C4A19923  13.291  13.825  10.241 -0.3219  0.3097  0.3833
 1698DOPE   C1B19924  13.308  13.144  11.728  0.0144  0.0341  0.0136
 1698DOPE   D2B19925  13.041  12.815  11.471  0.1718  0.0216 -0.0371
 1698DOPE   C3B19926  12.658  13.137  11.438  0.1674  0.2516 -0.6188
 1698DOPE   C4B19927  12.371  13.456  11.644  0.0550  0.0541  0.0391
 1699DOPE   NH319928  13.303  14.899  12.448 -0.2825 -0.3521  0.1872
 1699DOPE   PO419929  13.312  15.173  12.636  0.2262 -0.2132 -0.0684
 1699DOPE   GL119930  13.309  15.335  12.228 -0.0737 -0.0244  0.4620
 1699DOPE   GL219931  13.548  15.362  12.188 -0.1770  0.1839  0.2561
 1699DOPE   C1A19932  13.250  15.650  11.895  0.3303 -0.0751  0.0636
 1699DOPE   D2A19933  12.876  15.686  11.642 -0.0445 -0.0587 -0.0145
 1699DOPE   C3A19934  12.744  16.089  11.434 -0.3487 -0.0954  0.1777
 1699DOPE   C4A19935  12.964  16.501  11.520 -0.1649  0.1606  0.0207
 1699DOPE   C1B19936  13.647  15.376  11.741 -0.0282  0.0974 -0.0366
 1699DOPE   D2B19937  13.769  15.369  11.270 -0.1110  0.0508  0.1369
 1699DOPE   C3B19938  13.842  14.970  11.047 -0.1591 -0.1718  0.0916
 1699DOPE   C4B19939  14.042  14.735  10.671  0.1490 -0.1725  0.1582
 1700DOPE   NH319940  19.589  23.328  12.994  0.0888 -0.1815  0.1887
 1700DOPE   PO419941  19.842  23.555  12.936 -0.0650  0.0181 -0.1090
 1700DOPE   GL119942  19.822  23.554  12.564  0.3941  0.2927  0.0826
 1700DOPE   GL219943  19.909  23.326  12.496 -0.0511 -0.1351 -0.0676
 1700DOPE   C1A19944  19.604  23.607  12.178 -0.2118 -0.0586  0.1173
 1700DOPE   D2A19945  19.523  23.660  11.682  0.1137 -0.1552 -0.4268
 1700DOPE   C3A19946  19.919  23.632  11.391  0.3885 -0.1652  0.0460
 1700DOPE   C4A19947  20.296  23.522  11.182 -0.0810 -0.1470 -0.1370
 1700DOPE   C1B19948  20.008  23.142  12.111  0.1131 -0.1196  0.2461
 1700DOPE   D2B19949  20.178  23.161  11.673  0.1167  0.2961  0.1602
 1700DOPE   C3B19950  20.277  22.903  11.290 -0.0241 -0.0363  0.4546
 1700DOPE   C4B19951  20.174  22.473  11.263  0.0238 -0.0022  0.0776
 1701DOPC   NC319952  12.404  12.398  12.811  0.0666  0.2990  0.2943
 1701DOPC   PO419953  12.698  12.173  12.721  0.2394 -0.2449 -0.0766
 1701DOPC   GL119954  12.688  12.318  12.293  0.3104 -0.6103  0.0646
 1701DOPC   GL219955  12.530  12.613  12.365  0.0165  0.1247  0.1174
 1701DOPC   C1A19956  12.533  12.165  11.861  0.2759 -0.1469  0.0352
 1701DOPC   D2A19957  12.080  12.105  11.667  0.0126 -0.0142  0.2345
 1701DOPC   C3A19958  11.632  12.287  11.723 -0.2346  0.4789 -0.0180
 1701DOPC   C4A19959  11.271  12.269  12.061 -0.1521  0.1846 -0.2264
 1701DOPC   C1B19960  12.743  12.637  11.950 -0.1940 -0.1511 -0.1358
 1701DOPC   D2B19961  12.561  12.629  11.536  0.0091 -0.1077  0.0413
 1701DOPC   C3B19962  12.377  12.342  11.280  0.1065  0.0635  0.0100
 1701DOPC   C4B19963  12.269  12.272  10.822  0.0695 -0.2350  0.0215
 1702DOPC   NC319964  13.002  15.691  12.362  0.1638 -0.1749  0.1991
 1702DOPC   PO419965  12.655  15.562  12.214 -0.0015  0.2372 -0.0448
 1702DOPC   GL119966  12.585  15.339  11.893 -0.5071 -0.1262  0.1505
 1702DOPC   GL219967  12.796  15.118  11.938 -0.4075  0.3147  0.2325
 1702DOPC   C1A19968  12.418  15.488  11.485 -0.2235  0.2597  0.3403
 1702DOPC   D2A19969  12.400  15.440  11.006 -0.1669  0.2157  0.0192
 1702DOPC   C3A19970  12.710  15.363  10.707 -0.1414 -0.2557 -0.1656
 1702DOPC   C4A19971  12.974  15.072  10.429 -0.1269  0.1384  0.0594
 1702DOPC   C1B19972  13.019  15.190  11.502 -0.0900 -0.1968  0.1173
 1702DOPC   D2B19973  13.226  15.505  11.295 -0.1934  0.2957 -0.0170
 1702DOPC   C3B19974  12.849  15.738  11.108 -0.2367 -0.0029 -0.1211
 1702DOPC   C4B19975  12.775  15.868  10.651 -0.1736  0.0984 -0.1377
 1703POSM   NC319976  18.799  13.821  11.602 -0.3150 -0.0478  0.0509
 1703POSM   PO419977  19.132  13.651  11.732  0.2003 -0.0205  0.1768
 1703POSM   AM119978  19.044  13.490  11.445  0.0542 -0.2180  0.2882
 1703POSM   AM219979  19.000  13.218  11.377 -0.3602  0.1302 -0.0777
 1703POSM   T1A19980  18.596  13.444  11.262  0.0615  0.0212  0.0170
 1703POSM   C2A19981  18.454  13.670  10.879 -0.0062 -0.1238 -0.0191
 1703POSM   C3A19982  18.609  13.863  10.433  0.0924  0.0400 -0.0735
 1703POSM   C1B19983  19.105  13.263  11.045  0.4021  0.1249 -0.1578
 1703POSM   D2B19984  19.175  13.016  10.673  0.0716  0.2847 -0.2601
 1703POSM   C3B19985  19.161  13.182  10.301 -0.0584 -0.1975  0.5656
 1703POSM   C4B19986  19.322  13.424   9.916 -0.1870  0.0687  0.0224
 1704DOPC   NC319987  18.890  22.486  12.081  0.3065 -0.1288  0.2567
 1704DOPC   PO419988  18.909  22.280  12.408 -0.2275 -0.0525  0.0201
 1704DOPC   GL119989  19.292  22.259  12.183 -0.2545  0.0462 -0.3026
 1704DOPC   GL219990  19.107  22.079  11.955 -0.0660  0.0272  0.1158
 1704DOPC   C1A19991  19.310  22.531  11.838  0.0019 -0.1141  0.0735
 1704DOPC   D2A19992  19.151  22.909  11.673  0.0145 -0.0387  0.2202
 1704DOPC   C3A19993  19.364  22.964  11.257 -0.1690 -0.1400 -0.2418
 1704DOPC   C4A19994  19.371  23.050  10.827  0.0302  0.2051 -0.1935
 1704DOPC   C1B19995  18.914  22.301  11.576  0.0972 -0.2413  0.0412
 1704DOPC   D2B19996  18.863  22.690  11.322  0.0450  0.0091 -0.0622
 1704DOPC   C3B19997  18.496  22.791  11.041 -0.2786 -0.1630 -0.2377
 1704DOPC   C4B19998  18.153  22.927  10.712 -0.0157  0.0918 -0.1420
 1705DOPE   NH319999  19.865  13.117  11.958 -0.1172  0.5514 -0.1906
 1705DOPE   PO420000  20.108  13.145  12.151  0.0252  0.1273  0.1210
 1705DOPE   GL120001  20.312  13.214  11.845  0.3175 -0.1743 -0.2472
 1705DOPE   GL220002  20.635  13.190  11.935 -0.0898 -0.3233  0.1048
 1705DOPE   C1A20003  20.503  12.923  11.508  0.2218 -0.0644  0.1097
 1705DOPE   D2A20004  20.572  12.695  11.081  0.1573 -0.0017 -0.1244
 1705DOPE   C3A20005  20.830  13.056  10.865  0.0296 -0.1717 -0.1131
 1705DOPE   C4A20006  20.978  13.504  10.785 -0.3221 -0.0147 -0.0598
 1705DOPE   C1B20007  20.741  12.743  11.927  0.1659  0.2107 -0.0909
 1705DOPE   D2B20008  21.037  12.421  11.640 -0.0273  0.0314  0.2747
 1705DOPE   C3B20009  21.116  12.464  11.182 -0.0216 -0.3527  0.1387
 1705DOPE   C4B20010  20.985  12.576  10.778  0.2040  0.2795  0.2697
 1706DOPC   NC320011  18.647  16.603  11.683 -0.1615  0.1437 -0.0103
 1706DOPC   PO420012  18.466  16.233  11.691 -0.1364 -0.1065  0.0350
 1706DOPC   GL120013  18.444  15.971  11.322 -0.4607 -0.0368 -0.0649
 1706DOPC   GL220014  18.238  16.157  11.212 -0.1799 -0.0986  0.0487
 1706DOPC   C1A20015  18.616  15.936  10.894 -0.3365 -0.4650  0.0799
 1706DOPC   D2A20016  18.709  15.608  10.552 -0.0857  0.0459  0.4264
 1706DOPC   C3A20017  19.179  15.475  10.469 -0.0544 -0.2256 -0.3058
 1706DOPC   C4A20018  19.547  15.203  10.341  0.1460  0.2729  0.0913
 1706DOPC   C1B20019  18.116  16.458  10.916 -0.1841  0.1086  0.0348
 1706DOPC   D2B20020  18.291  16.752  10.615  0.2630 -0.3146  0.1708
 1706DOPC   C3B20021  18.000  17.053  10.461  0.0398  0.0764  0.0953
 1706DOPC   C4B20022  17.715  17.269  10.187 -0.0845  0.0097  0.1162
 1707DOPE   NH320023  12.828  23.177  12.503 -0.3012  0.1006  0.1827
 1707DOPE   PO420024  12.523  23.085  12.458  0.1444 -0.2653 -0.2024
 1707DOPE   GL120025  12.384  22.982  12.117  0.0841  0.3378 -0.0667
 1707DOPE   GL220026  12.348  22.800  11.897 -0.2417 -0.3039 -0.0209
 1707DOPE   C1A20027  12.499  23.336  11.850 -0.1653 -0.0894  0.3795
 1707DOPE   D2A20028  12.715  23.516  11.504 -0.0232 -0.0176 -0.2446
 1707DOPE   C3A20029  13.092  23.203  11.358  0.2005  0.1213  0.1532
 1707DOPE   C4A20030  13.120  22.789  11.511 -0.0620 -0.2883  0.0696
 1707DOPE   C1B20031  12.245  22.503  11.545 -0.0170  0.1820 -0.1416
 1707DOPE   D2B20032  12.103  22.389  11.108  0.1090 -0.2037 -0.0693
 1707DOPE   C3B20033  12.244  22.213  10.683  0.0366  0.0125 -0.1568
 1707DOPE   C4B20034  12.616  22.102  10.443 -0.0467  0.1407  0.2047
 1708DOPE   NH320035  20.320  13.858  12.538 -0.0476 -0.1395  0.0648
 1708DOPE   PO420036  20.456  13.944  12.218 -0.2590 -0.1044 -0.0267
 1708DOPE   GL120037  20.624  13.881  11.924 -0.0051 -0.0047  0.1395
 1708DOPE   GL220038  20.866  13.761  11.949 -0.1395 -0.1039  0.1149
 1708DOPE   C1A20039  20.700  13.985  11.530 -0.0274 -0.1020  0.6474
 1708DOPE   D2A20040  20.821  13.829  11.095 -0.0628 -0.1564  0.2095
 1708DOPE   C3A20041  20.860  14.269  10.937 -0.2994  0.1531  0.1654
 1708DOPE   C4A20042  20.779  14.716  10.932  0.0077 -0.4535  0.0188
 1708DOPE   C1B20043  21.048  13.644  11.536  0.1125 -0.3351 -0.1598
 1708DOPE   D2B20044  21.309  13.703  11.126  0.2131  0.1572 -0.3649
 1708DOPE   C3B20045  21.245  13.943  10.722  0.1256  0.5977  0.0001
 1708DOPE   C4B20046  21.614  14.058  10.408 -0.0279  0.0795  0.0272
 1709DOPC   NC320047  15.283  14.456  11.782  0.3365 -0.1749 -0.1336
 1709DOPC   PO420048  15.203  14.758  12.005  0.0090  0.0848  0.0857
 1709DOPC   GL120049  15.073  14.887  11.711 -0.5314  0.1779  0.1500
 1709DOPC   GL220050  14.992  15.166  11.658  0.5401 -0.0672  0.0799
 1709DOPC   C1A20051  15.146  14.708  11.306  0.0200 -0.0287 -0.2266
 1709DOPC   D2A20052  15.063  14.622  10.818 -0.0322 -0.2818 -0.0527
 1709DOPC   C3A20053  14.915  14.195  10.829 -0.0808 -0.0688 -0.0963
 1709DOPC   C4A20054  14.793  13.761  10.623 -0.4567  0.1430  0.0034
 1709DOPC   C1B20055  15.289  15.180  11.362 -0.1084 -0.1592 -0.0783
 1709DOPC   D2B20056  15.432  15.200  10.899  0.4724 -0.0542  0.2011
 1709DOPC   C3B20057  15.520  14.871  10.610  0.0120  0.2973 -0.0994
 1709DOPC   C4B20058  15.456  14.391  10.495  0.0728 -0.3231  0.0080
 1710DOPC   NC320059  16.226  16.128  11.623 -0.0035  0.0377 -0.2718
 1710DOPC   PO420060  16.249  15.708  11.690  0.4217 -0.1177 -0.0375
 1710DOPC   GL120061  16.249  15.569  11.307  0.0786  0.0120  0.1051
 1710DOPC   GL220062  16.493  15.530  11.239  0.1371  0.1632  0.1530
 1710DOPC   C1A20063  15.953  15.582  10.915  0.0114  0.1150  0.1056
 1710DOPC   D2A20064  15.899  15.254  10.627 -0.2256  0.0520 -0.0332
 1710DOPC   C3A20065  16.313  15.160  10.481  0.4120  0.1624 -0.1477
 1710DOPC   C4A20066  16.475  15.192   9.997  0.0658 -0.1503 -0.1872
 1710DOPC   C1B20067  16.426  15.604  10.817 -0.0579 -0.0696 -0.3744
 1710DOPC   D2B20068  16.554  15.910  10.509  0.0365 -0.1211 -0.2589
 1710DOPC   C3B20069  16.935  15.971  10.294 -0.1972 -0.0445 -0.0852
 1710DOPC   C4B20070  17.342  15.786  10.163 -0.0019 -0.1017 -0.3012
 1711DOPC   NC320071  25.121  22.712  15.131 -0.0585 -0.1165 -0.2323
 1711DOPC   PO420072  25.385  23.012  15.124  0.1816  0.1151  0.2201
 1711DOPC   GL120073  25.450  22.813  14.847  0.0620 -0.2368  0.1769
 1711DOPC   GL220074  25.602  23.072  14.708 -0.0483  0.1288  0.2598
 1711DOPC   C1A20075  25.342  22.849  14.379 -0.0330 -0.0993 -0.1245
 1711DOPC   D2A20076  24.973  22.823  14.042 -0.0664 -0.0712  0.5839
 1711DOPC   C3A20077  25.006  23.076  13.646 -0.1417 -0.1889 -0.0498
 1711DOPC   C4A20078  25.424  23.168  13.454 -0.3413 -0.3329 -0.0273
 1711DOPC   C1B20079  25.921  23.201  14.375  0.0050  0.2326  0.2149
 1711DOPC   D2B20080  26.268  23.392  14.159  0.3907  0.1610 -0.2447
 1711DOPC   C3B20081  26.288  23.382  13.703  0.1337 -0.1567 -0.3979
 1711DOPC   C4B20082  26.353  23.202  13.265  0.4591  0.0102  0.1398
 1712DOPC   NC320083  13.630  14.380  12.377  0.6013 -0.1070 -0.1290
 1712DOPC   PO420084  13.368  14.495  12.118 -0.3046  0.2091  0.4200
 1712DOPC   GL120085  13.291  14.381  11.745 -0.3159 -0.1670  0.1289
 1712DOPC   GL220086  13.407  14.537  11.559 -0.0506  0.0011  0.0021
 1712DOPC   C1A20087  12.910  14.279  11.466  0.0583  0.0347  0.1468
 1712DOPC   D2A20088  12.562  14.119  11.163 -0.2973 -0.0011 -0.0109
 1712DOPC   C3A20089  12.632  14.314  10.716 -0.2474 -0.0163 -0.2059
 1712DOPC   C4A20090  12.945  14.484  10.433 -0.1506 -0.0684 -0.0797
 1712DOPC   C1B20091  13.028  14.693  11.296  0.2071  0.0217 -0.1879
 1712DOPC   D2B20092  13.053  14.512  10.881  0.1368  0.0522  0.0446
 1712DOPC   C3B20093  13.340  14.713  10.537  0.1505 -0.0494  0.1228
 1712DOPC   C4B20094  13.281  14.806  10.088  0.1359 -0.2282  0.0807
 1713DOPC   NC320095  20.077  18.143  12.152  0.0848 -0.1444 -0.0785
 1713DOPC   PO420096  19.836  18.256  12.422 -0.3346  0.3965  0.3436
 1713DOPC   GL120097  19.795  18.502  12.063  0.0528  0.0718  0.1931
 1713DOPC   GL220098  19.662  18.791  12.102  0.0669 -0.0660  0.0664
 1713DOPC   C1A20099  19.774  18.254  11.680 -0.0079  0.0641 -0.0761
 1713DOPC   D2A20100  19.639  18.168  11.243 -0.1180 -0.0752  0.2393
 1713DOPC   C3A20101  19.701  18.371  10.805 -0.1630 -0.1502 -0.2278
 1713DOPC   C4A20102  19.471  18.321  10.371  0.2627  0.0268  0.1165
 1713DOPC   C1B20103  19.473  18.850  11.658  0.0744 -0.1132  0.1529
 1713DOPC   D2B20104  19.540  18.702  11.218  0.1304  0.0392  0.2034
 1713DOPC   C3B20105  19.913  18.897  11.059  0.1040 -0.0836 -0.1619
 1713DOPC   C4B20106  20.157  18.684  10.736 -0.0875  0.0040 -0.0815
 1714DOPE   NH320107  25.420  19.773  14.107 -0.1277  0.2087 -0.0502
 1714DOPE   PO420108  25.465  19.454  14.267 -0.3613 -0.0336 -0.3590
 1714DOPE   GL120109  25.256  19.335  13.885  0.3817 -0.0168  0.3511
 1714DOPE   GL220110  25.019  19.409  14.021  0.1173 -0.1888 -0.0619
 1714DOPE   C1A20111  25.396  19.172  13.477  0.1638  0.0707 -0.3359
 1714DOPE   D2A20112  25.573  18.984  13.044  0.0881 -0.1174  0.0028
 1714DOPE   C3A20113  25.474  18.986  12.587  0.3402  0.2832 -0.2342
 1714DOPE   C4A20114  25.340  19.031  12.137  0.0217  0.2131  0.0594
 1714DOPE   C1B20115  24.966  19.439  13.517 -0.1818 -0.1599 -0.1512
 1714DOPE   D2B20116  25.214  19.576  13.121 -0.3089  0.0323  0.0644
 1714DOPE   C3B20117  25.337  20.010  13.229 -0.1971 -0.1302  0.1409
 1714DOPE   C4B20118  25.395  20.431  13.467  0.2526 -0.2702 -0.1632
 1715DOPE   NH320119  23.287  18.020  12.985 -0.0653  0.0430 -0.0275
 1715DOPE   PO420120  23.198  18.282  12.860  0.2243 -0.1804  0.1834
 1715DOPE   GL120121  23.207  18.059  12.500 -0.2177  0.1934 -0.4931
 1715DOPE   GL220122  23.355  17.831  12.562  0.3413  0.0966  0.0266
 1715DOPE   C1A20123  23.401  18.134  12.137  0.2045  0.0244  0.0853
 1715DOPE   D2A20124  23.711  18.379  11.861 -0.1766  0.2448 -0.0544
 1715DOPE   C3A20125  23.702  18.829  11.671 -0.2556  0.2993  0.0805
 1715DOPE   C4A20126  23.748  19.118  11.317  0.1679 -0.1192  0.2922
 1715DOPE   C1B20127  23.732  17.534  12.487 -0.1364 -0.1865  0.0732
 1715DOPE   D2B20128  24.145  17.713  12.342 -0.1674  0.5246 -0.3135
 1715DOPE   C3B20129  24.426  17.600  12.022  0.1183  0.0552  0.3514
 1715DOPE   C4B20130  24.534  17.125  11.989 -0.1218  0.0586  0.0405
 1716POSM   NC320131  15.320  21.593  12.602 -0.0394 -0.2253 -0.0265
 1716POSM   PO420132  15.488  21.626  12.217  0.2354  0.2674  0.1759
 1716POSM   AM120133  15.315  21.691  11.957 -0.2643  0.3583  0.3564
 1716POSM   AM220134  15.332  21.771  11.660 -0.0677 -0.1700 -0.1031
 1716POSM   T1A20135  14.919  21.508  11.694  0.2080  0.2004  0.2323
 1716POSM   C2A20136  14.872  21.407  11.206  0.4018 -0.1400  0.0991
 1716POSM   C3A20137  14.626  21.292  10.829 -0.1180 -0.0830  0.0374
 1716POSM   C1B20138  15.407  21.557  11.399 -0.1405  0.0556  0.1839
 1716POSM   D2B20139  15.531  21.509  10.957 -0.0342 -0.0391  0.0976
 1716POSM   C3B20140  15.798  21.120  10.959 -0.1455 -0.2450 -0.0204
 1716POSM   C4B20141  15.997  20.907  10.548  0.2753  0.2289  0.0778
 1717DOPC   NC320142  20.537  12.356  12.607 -0.3239 -0.0697  0.0221
 1717DOPC   PO420143  20.283  12.363  12.295  0.1638  0.0520 -0.0344
 1717DOPC   GL120144  20.466  12.141  12.065  0.1595 -0.0651 -0.3301
 1717DOPC   GL220145  20.540  12.338  11.836 -0.0427  0.0798 -0.1418
 1717DOPC   C1A20146  20.275  11.892  11.728  0.3330  0.1259 -0.1319
 1717DOPC   D2A20147  20.199  11.857  11.252  0.1219 -0.0387  0.2047
 1717DOPC   C3A20148  20.347  12.194  11.011  0.0502 -0.0519  0.3283
 1717DOPC   C4A20149  20.523  12.436  10.621  0.3036 -0.2383 -0.0557
 1717DOPC   C1B20150  20.276  12.477  11.421 -0.0129  0.0560 -0.0780
 1717DOPC   D2B20151  20.047  12.659  11.058 -0.0895 -0.0231  0.4562
 1717DOPC   C3B20152  19.805  13.090  10.947 -0.0718 -0.2472 -0.1787
 1717DOPC   C4B20153  19.505  13.407  10.805  0.3000  0.0517  0.2633
 1718POSM   NC320154  16.666  12.014  12.686 -0.0310  0.1446  0.1286
 1718POSM   PO420155  16.281  12.044  12.574 -0.2769  0.0260  0.2018
 1718POSM   AM120156  16.419  12.119  12.287  0.1602 -0.2732  0.1832
 1718POSM   AM220157  16.490  12.341  12.132  0.4116 -0.0709 -0.1605
 1718POSM   T1A20158  16.718  11.904  11.858 -0.0539 -0.0429  0.2857
 1718POSM   C2A20159  16.826  11.844  11.456 -0.0955  0.0876 -0.0798
 1718POSM   C3A20160  16.910  11.683  10.959 -0.0566 -0.1184 -0.2938
 1718POSM   C1B20161  16.385  12.361  11.824  0.0924  0.2937  0.1604
 1718POSM   D2B20162  16.171  12.396  11.455  0.1358 -0.1399  0.1434
 1718POSM   C3B20163  16.398  12.724  11.255  0.2971  0.4627 -0.0906
 1718POSM   C4B20164  16.595  13.108  10.998  0.0038  0.0406 -0.0081
 1719POSM   NC320165  14.730  24.990  13.108 -0.1394  0.0486 -0.2883
 1719POSM   PO420166  14.309  24.901  13.111 -0.1184 -0.0695 -0.1133
 1719POSM   AM120167  14.347  25.116  12.855  0.2824 -0.1914 -0.0808
 1719POSM   AM220168  14.319  25.146  12.571  0.2901 -0.0728 -0.2195
 1719POSM   T1A20169  14.474  25.569  12.762  0.3413  0.0279 -0.1907
 1719POSM   C2A20170  14.645  25.665  12.382 -0.2202 -0.0947  0.1625
 1719POSM   C3A20171  14.881  25.869  12.032  0.0668 -0.2167  0.1002
 1719POSM   C1B20172  14.211  25.027  12.309  0.0201 -0.1353 -0.0244
 1719POSM   D2B20173  14.194  24.884  11.847 -0.0807 -0.3939  0.0334
 1719POSM   C3B20174  14.242  24.839  11.387  0.1586 -0.0985  0.1049
 1719POSM   C4B20175  14.308  24.836  10.944  0.0557  0.0351  0.0013
 1720DOPS   CNO20176  15.743  16.366  11.903 -0.0610  0.1219  0.1993
 1720DOPS   PO420177  15.602  16.443  11.574  0.2065 -0.0075 -0.0144
 1720DOPS   GL120178  15.944  16.419  11.368  0.2558  0.0900  0.2735
 1720DOPS   GL220179  15.845  16.482  11.075 -0.1960  0.0724 -0.1312
 1720DOPS   C1A20180  16.358  16.632  11.203 -0.0243  0.0800  0.2340
 1720DOPS   D2A20181  16.768  16.842  11.106 -0.0189 -0.2159  0.2218
 1720DOPS   C3A20182  17.188  16.778  10.962  0.1395  0.1969 -0.0543
 1720DOPS   C4A20183  17.605  16.911  10.761  0.0834 -0.0871 -0.0607
 1720DOPS   C1B20184  16.085  16.593  10.747 -0.1210 -0.0097 -0.0368
 1720DOPS   D2B20185  16.211  16.548  10.329 -0.0611 -0.1140  0.0668
 1720DOPS   C3B20186  16.196  16.123  10.245  0.2067  0.1268  0.4865
 1720DOPS   C4B20187  16.501  15.868   9.980 -0.1328  0.1179  0.2419
 1721DOPC   NC320188  16.469  20.917  11.676  0.2543 -0.3450 -0.1805
 1721DOPC   PO420189  16.542  20.587  11.514 -0.1338 -0.2973 -0.2342
 1721DOPC   GL120190  16.675  20.859  11.280  0.0714 -0.0225  0.2888
 1721DOPC   GL220191  16.883  20.713  11.117 -0.1363 -0.2838 -0.3016
 1721DOPC   C1A20192  16.714  21.267  11.031 -0.2323  0.1953  0.2043
 1721DOPC   D2A20193  17.071  21.468  10.730  0.2649  0.1065  0.1545
 1721DOPC   C3A20194  17.072  21.939  10.869  0.2113  0.1422  0.1021
 1721DOPC   C4A20195  17.218  22.266  10.611 -0.0270 -0.0499  0.1090
 1721DOPC   C1B20196  17.041  20.365  10.761  0.0274  0.0346 -0.1409
 1721DOPC   D2B20197  17.048  20.025  10.515  0.3067  0.2279 -0.1631
 1721DOPC   C3B20198  16.649  20.069  10.223  0.4035 -0.3668 -0.1374
 1721DOPC   C4B20199  16.207  19.864  10.206 -0.2304 -0.2129 -0.1813
 1722DOPE   NH320200  17.612  21.008  12.402 -0.0153  0.0324  0.1296
 1722DOPE   PO420201  17.561  20.673  12.434  0.0705 -0.0082 -0.1278
 1722DOPE   GL120202  17.772  20.599  12.008  0.0513 -0.3547 -0.1048
 1722DOPE   GL220203  17.769  20.819  11.864  0.1671  0.2069  0.1484
 1722DOPE   C1A20204  18.016  20.351  11.760 -0.6509  0.0469 -0.2946
 1722DOPE   D2A20205  18.337  20.371  11.394 -0.0298  0.2497  0.1801
 1722DOPE   C3A20206  18.242  19.931  11.334 -0.0486  0.0347 -0.0598
 1722DOPE   C4A20207  17.844  19.832  11.509 -0.0916 -0.0015  0.0694
 1722DOPE   C1B20208  17.548  20.498  11.643 -0.3025  0.2856  0.2521
 1722DOPE   D2B20209  17.336  20.107  11.510 -0.2102 -0.0004 -0.2321
 1722DOPE   C3B20210  16.940  20.193  11.221  0.0310 -0.3320  0.0764
 1722DOPE   C4B20211  16.585  20.225  10.859  0.2985 -0.0261  0.0040
 1723DOPE   NH320212  19.273  11.639  12.273  0.0054 -0.2192 -0.0566
 1723DOPE   PO420213  19.027  11.573  12.084 -0.1148 -0.1973 -0.1176
 1723DOPE   GL120214  19.256  11.708  11.773 -0.0222 -0.1042  0.0969
 1723DOPE   GL220215  19.563  11.753  11.799 -0.0808 -0.3467  0.1290
 1723DOPE   C1A20216  19.282  11.888  11.290 -0.0535 -0.1391  0.1453
 1723DOPE   D2A20217  19.480  11.779  10.891  0.0621  0.2089 -0.3572
 1723DOPE   C3A20218  19.946  11.720  10.898  0.0311  0.0453  0.1104
 1723DOPE   C4A20219  20.361  11.568  10.682 -0.0654 -0.1818  0.4406
 1723DOPE   C1B20220  19.745  11.616  11.388  0.1524  0.1009  0.0208
 1723DOPE   D2B20221  20.161  11.376  11.303  0.0459 -0.0418  0.1349
 1723DOPE   C3B20222  20.587  11.610  11.275 -0.1260  0.1324 -0.1278
 1723DOPE   C4B20223  21.013  11.484  11.215  0.2201  0.2167 -0.3318
 1724DOPC   NC320224  19.524  15.574  11.751  0.3671 -0.0770  0.0174
 1724DOPC   PO420225  19.264  15.906  11.814 -0.0145 -0.1752 -0.1649
 1724DOPC   GL120226  19.426  16.022  11.545 -0.0414  0.1954  0.0557
 1724DOPC   GL220227  19.630  16.295  11.546  0.1625  0.1791 -0.0545
 1724DOPC   C1A20228  19.628  16.034  11.115 -0.3367 -0.0226  0.3818
 1724DOPC   D2A20229  20.040  15.825  11.031 -0.1768  0.2107 -0.3862
 1724DOPC   C3A20230  20.213  15.504  10.684  0.1034  0.0146  0.1762
 1724DOPC   C4A20231  20.555  15.242  10.740 -0.0293  0.1520 -0.3036
 1724DOPC   C1B20232  19.783  16.520  11.212  0.2261 -0.1800  0.0581
 1724DOPC   D2B20233  19.846  16.343  10.754 -0.1998  0.0913 -0.0295
 1724DOPC   C3B20234  20.107  16.030  10.606 -0.0427 -0.2209  0.1530
 1724DOPC   C4B20235  20.549  15.983  10.685 -0.3168  0.1186 -0.3647
 1725POSM   NC320236  17.203  21.550  12.149 -0.3399  0.1379 -0.1598
 1725POSM   PO420237  17.592  21.476  12.224 -0.0102  0.3382  0.0523
 1725POSM   AM120238  17.617  21.546  11.917 -0.0166  0.0590 -0.1974
 1725POSM   AM220239  17.531  21.698  11.678 -0.0310 -0.0410  0.1125
 1725POSM   T1A20240  17.761  21.291  11.489  0.4293 -0.2116  0.2266
 1725POSM   C2A20241  17.963  21.083  11.117  0.2719  0.1140  0.0763
 1725POSM   C3A20242  18.091  21.029  10.660 -0.0681 -0.1332  0.3234
 1725POSM   C1B20243  17.305  21.521  11.566 -0.1731 -0.1242 -0.1372
 1725POSM   D2B20244  17.129  21.220  11.308  0.1031  0.1531  0.3030
 1725POSM   C3B20245  17.460  20.940  11.156 -0.2069  0.0958 -0.2310
 1725POSM   C4B20246  17.698  20.678  10.899  0.0370  0.1177 -0.1105
 1726POSM   NC320247  15.192  22.817  11.934  0.2145  0.1139 -0.0963
 1726POSM   PO420248  15.478  22.981  12.205  0.1572 -0.0643 -0.0796
 1726POSM   AM120249  15.619  22.967  11.932 -0.1116 -0.0185 -0.3362
 1726POSM   AM220250  15.729  22.732  11.801  0.1163  0.1513 -0.2736
 1726POSM   T1A20251  15.630  23.244  11.528  0.0414  0.3736  0.1034
 1726POSM   C2A20252  15.753  23.618  11.250 -0.1559  0.0332  0.2578
 1726POSM   C3A20253  16.065  23.936  11.055  0.2180  0.1273  0.1485
 1726POSM   C1B20254  15.502  22.788  11.552  0.0589 -0.3804 -0.0213
 1726POSM   D2B20255  15.278  22.785  11.087 -0.1329  0.3684  0.3073
 1726POSM   C3B20256  15.430  22.917  10.687  0.3891  0.0931  0.0223
 1726POSM   C4B20257  15.413  23.145  10.286 -0.2426  0.0601  0.0932
 1727DOPC   NC320258  23.150  22.419  14.376 -0.0824 -0.1244  0.1527
 1727DOPC   PO420259  23.022  22.142  14.143 -0.1741  0.0213 -0.2518
 1727DOPC   GL120260  23.377  22.166  13.893 -0.3955  0.1511 -0.0058
 1727DOPC   GL220261  23.495  21.968  13.689 -0.0532 -0.1379  0.0956
 1727DOPC   C1A20262  23.665  22.455  13.645  0.0313 -0.1576  0.0601
 1727DOPC   D2A20263  24.100  22.701  13.530 -0.0822  0.0204  0.0635
 1727DOPC   C3A20264  24.187  22.571  13.108  0.0895  0.2550  0.3114
 1727DOPC   C4A20265  24.202  22.506  12.675 -0.2492  0.1198  0.0318
 1727DOPC   C1B20266  23.337  22.113  13.246 -0.1959  0.2132  0.3682
 1727DOPC   D2B20267  23.237  22.174  12.726  0.2084 -0.1040 -0.1636
 1727DOPC   C3B20268  23.218  22.530  12.432 -0.1479 -0.0649 -0.0744
 1727DOPC   C4B20269  23.092  23.000  12.319  0.0372 -0.2831  0.1898
 1728DOPS   CNO20270  17.017  16.443  12.196 -0.0873  0.0213 -0.1160
 1728DOPS   PO420271  17.007  16.322  11.834 -0.0166 -0.0045  0.0669
 1728DOPS   GL120272  17.188  16.285  11.485 -0.2658 -0.6820  0.0468
 1728DOPS   GL220273  17.464  16.433  11.340 -0.0462 -0.2203 -0.3044
 1728DOPS   C1A20274  17.000  16.290  11.050 -0.0500 -0.0285  0.1252
 1728DOPS   D2A20275  16.976  16.344  10.600 -0.1152 -0.0133 -0.1079
 1728DOPS   C3A20276  16.827  16.725  10.505 -0.1394  0.3505 -0.0172
 1728DOPS   C4A20277  16.531  16.997  10.641  0.1995  0.0690  0.0460
 1728DOPS   C1B20278  17.598  16.381  10.903 -0.1703 -0.1753  0.2909
 1728DOPS   D2B20279  17.809  16.275  10.554  0.2615 -0.0732  0.3772
 1728DOPS   C3B20280  17.978  16.519  10.210 -0.1491 -0.1067  0.0888
 1728DOPS   C4B20281  17.992  16.869   9.920  0.2566 -0.2039  0.0053
 1729DOPE   NH320282  24.337  15.825  13.507 -0.0343 -0.2544  0.1980
 1729DOPE   PO420283  24.208  15.586  13.294  0.1962  0.1356 -0.0073
 1729DOPE   GL120284  24.306  15.638  12.950  0.0955  0.2589  0.2433
 1729DOPE   GL220285  24.584  15.792  12.951 -0.5966 -0.0737 -0.3862
 1729DOPE   C1A20286  24.489  15.272  12.713  0.1783 -0.0336 -0.0785
 1729DOPE   D2A20287  24.484  15.049  12.324  0.2776 -0.2445  0.2183
 1729DOPE   C3A20288  24.430  15.043  11.822  0.0444  0.0663 -0.0274
 1729DOPE   C4A20289  24.757  15.244  11.581  0.2002 -0.0765  0.0274
 1729DOPE   C1B20290  24.451  15.744  12.520  0.2216 -0.1588  0.1560
 1729DOPE   D2B20291  24.790  15.906  12.281  0.1538 -0.0702 -0.2373
 1729DOPE   C3B20292  24.711  16.203  11.967  0.1762 -0.0727 -0.0602
 1729DOPE   C4B20293  24.758  16.669  11.876 -0.2053 -0.0410 -0.0263
 1730DOPS   CNO20294  15.721  20.858  11.942  0.1665  0.0964  0.4184
 1730DOPS   PO420295  16.016  20.717  11.728  0.0349  0.1595 -0.1471
 1730DOPS   GL120296  15.876  20.932  11.416 -0.3755 -0.0956  0.1491
 1730DOPS   GL220297  15.883  20.728  11.228  0.0132  0.0521 -0.3253
 1730DOPS   C1A20298  15.463  21.041  11.265 -0.0161 -0.2400 -0.1088
 1730DOPS   D2A20299  15.172  21.073  10.917  0.1987  0.2634 -0.0094
 1730DOPS   C3A20300  15.334  21.218  10.594  0.3081  0.4015  0.2924
 1730DOPS   C4A20301  15.681  21.465  10.445  0.0256 -0.0133 -0.2877
 1730DOPS   C1B20302  15.962  20.348  10.913 -0.0795 -0.4721  0.1656
 1730DOPS   D2B20303  15.971  20.123  10.529 -0.2463  0.1119  0.1350
 1730DOPS   C3B20304  15.792  19.694  10.375  0.0930 -0.1716 -0.2229
 1730DOPS   C4B20305  16.141  19.349  10.429 -0.0426 -0.0977 -0.2616
 1731DOPS   CNO20306  15.961  14.004  11.859  0.0032  0.0159  0.1326
 1731DOPS   PO420307  15.631  13.976  11.996  0.3988 -0.0410  0.0368
 1731DOPS   GL120308  15.536  14.013  11.640 -0.1352  0.1344 -0.2755
 1731DOPS   GL220309  15.691  13.962  11.361 -0.0032  0.1773  0.1597
 1731DOPS   C1A20310  15.180  14.194  11.322 -0.1476  0.1816  0.3966
 1731DOPS   D2A20311  14.772  13.977  11.285  0.2586 -0.1428  0.1854
 1731DOPS   C3A20312  14.693  13.565  11.083  0.2174  0.1592  0.0340
 1731DOPS   C4A20313  14.560  13.251  10.716 -0.2228 -0.1041  0.0406
 1731DOPS   C1B20314  15.976  13.926  10.980  0.0349 -0.0080  0.0842
 1731DOPS   D2B20315  16.403  13.925  10.696  0.0074  0.1038  0.2379
 1731DOPS   C3B20316  16.783  13.765  10.596  0.1324 -0.1684 -0.1955
 1731DOPS   C4B20317  17.179  13.786  10.708 -0.1588  0.3236  0.0950
 1732POSM   NC320318  13.809  19.410  11.289  0.0021 -0.1987  0.0942
 1732POSM   PO420319  13.919  19.192  11.568 -0.0443 -0.0653 -0.0055
 1732POSM   AM120320  14.244  19.272  11.485 -0.2609 -0.2754 -0.0625
 1732POSM   AM220321  14.499  19.439  11.434 -0.0387 -0.2017  0.2771
 1732POSM   T1A20322  14.534  19.093  11.088  0.1153 -0.0269  0.3182
 1732POSM   C2A20323  14.704  18.998  10.659 -0.2232  0.1383  0.0107
 1732POSM   C3A20324  14.688  18.918  10.213 -0.1382  0.1540  0.0004
 1732POSM   C1B20325  14.453  19.594  11.160 -0.1478  0.3627 -0.1224
 1732POSM   D2B20326  14.309  19.488  10.730  0.0883 -0.0596 -0.0683
 1732POSM   C3B20327  13.949  19.201  10.646  0.0234 -0.1242  0.2990
 1732POSM   C4B20328  13.662  19.270  10.292  0.1446  0.0850  0.1121
 1733POSM   NC320329  22.943  16.099  12.869  0.2632  0.0925 -0.2598
 1733POSM   PO420330  22.597  16.221  12.981  0.2129  0.0793  0.0628
 1733POSM   AM120331  22.591  16.376  12.720 -0.2103 -0.0154 -0.1841
 1733POSM   AM220332  22.755  16.558  12.554 -0.0446  0.0127 -0.1308
 1733POSM   T1A20333  22.504  16.347  12.214  0.2589  0.0640 -0.4016
 1733POSM   C2A20334  22.342  16.321  11.769 -0.0624 -0.0626 -0.0479
 1733POSM   C3A20335  22.214  16.224  11.337  0.1569  0.1251  0.3066
 1733POSM   C1B20336  22.996  16.598  12.293 -0.1521  0.1280  0.3929
 1733POSM   D2B20337  23.215  16.903  12.058  0.1602 -0.1486  0.2578
 1733POSM   C3B20338  23.636  17.002  12.092 -0.0154 -0.3512 -0.0338
 1733POSM   C4B20339  24.062  17.159  11.862 -0.0540 -0.2279 -0.1122
 1734DOPC   NC320340  17.854  11.765  12.828  0.1151 -0.0681 -0.2822
 1734DOPC   PO420341  17.948  11.764  12.437  0.0580 -0.2388  0.2313
 1734DOPC   GL120342  18.048  11.462  12.093  0.2308 -0.2372 -0.3575
 1734DOPC   GL220343  18.287  11.218  12.049 -0.1980 -0.3069  0.1352
 1734DOPC   C1A20344  18.012  11.543  11.665 -0.0639  0.0746 -0.1227
 1734DOPC   D2A20345  17.860  11.562  11.257  0.2797 -0.0862 -0.0240
 1734DOPC   C3A20346  17.969  11.852  10.915 -0.3255 -0.0695 -0.3587
 1734DOPC   C4A20347  18.155  12.272  10.979  0.0186  0.2550  0.3581
 1734DOPC   C1B20348  18.255  11.097  11.570 -0.2937  0.0044  0.2240
 1734DOPC   D2B20349  18.255  10.705  11.330  0.2212 -0.1557 -0.1256
 1734DOPC   C3B20350  18.553  10.678  10.985  0.0323 -0.1662  0.4437
 1734DOPC   C4B20351  18.451  10.775  10.564 -0.1058  0.0279  0.2131
 1735POSM   NC320352  14.239  24.385  13.104 -0.0748  0.1991 -0.2423
 1735POSM   PO420353  14.199  24.238  12.715  0.0381  0.0150  0.2770
 1735POSM   AM120354  14.376  24.326  12.478  0.3119 -0.1375 -0.0190
 1735POSM   AM220355  14.505  24.259  12.243  0.0672 -0.1864 -0.0299
 1735POSM   T1A20356  14.604  24.699  12.222 -0.0967 -0.0520 -0.0236
 1735POSM   C2A20357  14.656  24.702  11.791  0.6019 -0.0237  0.0542
 1735POSM   C3A20358  14.823  25.047  11.487  0.0545  0.1092  0.1717
 1735POSM   C1B20359  14.824  24.308  12.094 -0.0544 -0.1302  0.2992
 1735POSM   D2B20360  15.252  24.287  12.141 -0.1246 -0.1383  0.0191
 1735POSM   C3B20361  15.434  24.168  11.692 -0.0039 -0.0500 -0.1172
 1735POSM   C4B20362  15.847  23.962  11.528 -0.0941 -0.4277 -0.1870
 1736DOPC   NC320363  19.614  17.043  12.037 -0.0515  0.1783 -0.1776
 1736DOPC   PO420364  19.705  17.397  12.140 -0.1130  0.2221 -0.0271
 1736DOPC   GL120365  19.775  17.546  11.821 -0.0945 -0.1419 -0.3232
 1736DOPC   GL220366  19.714  17.349  11.601  0.0106  0.0205 -0.2595
 1736DOPC   C1A20367  19.861  17.808  11.443 -0.1161  0.0844 -0.3695
 1736DOPC   D2A20368  20.050  17.538  11.074  0.0126 -0.1990  0.2673
 1736DOPC   C3A20369  20.380  17.239  10.923  0.2630  0.0264 -0.0928
 1736DOPC   C4A20370  20.810  17.215  11.152 -0.0391  0.1008  0.1642
 1736DOPC   C1B20371  19.976  17.085  11.318 -0.2374 -0.1409 -0.0556
 1736DOPC   D2B20372  20.265  16.789  11.200  0.3782  0.1658  0.1595
 1736DOPC   C3B20373  20.624  16.824  10.855 -0.1635  0.0207 -0.1320
 1736DOPC   C4B20374  21.039  16.871  10.612 -0.1443 -0.2141  0.0475
 1737POSM   NC320375  19.696  19.675  12.746  0.0564 -0.3717 -0.1070
 1737POSM   PO420376  20.031  19.572  12.565  0.2386  0.0093 -0.0636
 1737POSM   AM120377  20.034  19.412  12.287 -0.2608 -0.0666 -0.3672
 1737POSM   AM220378  19.889  19.247  12.142  0.2240  0.4465  0.3042
 1737POSM   T1A20379  20.186  19.532  11.817 -0.1961 -0.1583  0.0332
 1737POSM   C2A20380  20.012  19.758  11.455  0.2236 -0.0174 -0.0544
 1737POSM   C3A20381  19.846  20.092  11.108 -0.0048  0.1300  0.2048
 1737POSM   C1B20382  19.678  19.298  11.821 -0.1715  0.1263 -0.1731
 1737POSM   D2B20383  19.642  19.290  11.342 -0.2486  0.2016 -0.0900
 1737POSM   C3B20384  20.045  19.382  11.101  0.1292 -0.1466 -0.0995
 1737POSM   C4B20385  20.458  19.202  10.963 -0.1098  0.3064 -0.0421
 1738POSM   NC320386  19.444  13.925  11.350 -0.1179  0.2136  0.2067
 1738POSM   PO420387  19.236  14.220  11.475  0.0457  0.0870  0.0085
 1738POSM   AM120388  19.429  14.474  11.301 -0.1969  0.1249 -0.2819
 1738POSM   AM220389  19.464  14.572  11.058  0.0521 -0.0194 -0.0670
 1738POSM   T1A20390  19.870  14.687  11.258  0.2870  0.2186  0.0074
 1738POSM   C2A20391  20.228  14.640  10.975  0.1308  0.2322  0.1118
 1738POSM   C3A20392  20.416  14.433  10.616  0.3870  0.2536  0.0387
 1738POSM   C1B20393  19.356  14.638  10.735  0.0395 -0.5124 -0.0443
 1738POSM   D2B20394  19.048  14.499  10.407 -0.0658 -0.1802 -0.0438
 1738POSM   C3B20395  19.169  14.385   9.958 -0.0422  0.0453 -0.1387
 1738POSM   C4B20396  19.568  14.305   9.813 -0.1878  0.1618  0.0582
 1739DOPC   NC320397  15.371  16.006  11.821 -0.0423 -0.1283  0.1868
 1739DOPC   PO420398  15.684  15.793  11.861 -0.1773  0.3153 -0.1238
 1739DOPC   GL120399  15.809  15.912  11.501  0.2788  0.3788  0.1137
 1739DOPC   GL220400  15.633  16.023  11.327  0.0513  0.2594  0.0983
 1739DOPC   C1A20401  16.056  15.970  11.157 -0.0394 -0.1772  0.0107
 1739DOPC   D2A20402  16.142  16.041  10.748  0.1673  0.1313  0.0019
 1739DOPC   C3A20403  16.157  15.622  10.423 -0.0857 -0.2330 -0.2553
 1739DOPC   C4A20404  16.030  15.512   9.947 -0.1602  0.1522 -0.3676
 1739DOPC   C1B20405  15.479  16.187  10.965  0.0013  0.1232  0.2414
 1739DOPC   D2B20406  15.707  16.285  10.603 -0.3644  0.2483 -0.0859
 1739DOPC   C3B20407  15.599  16.023  10.237  0.1314  0.1097  0.2897
 1739DOPC   C4B20408  15.475  15.603  10.159  0.0333 -0.2363  0.0163
 1740DOPE   NH320409  17.098  15.848  11.682 -0.2473 -0.1902 -0.1088
 1740DOPE   PO420410  16.808  15.933  11.517 -0.0410 -0.1482  0.1689
 1740DOPE   GL120411  16.730  15.907  11.199  0.3143 -0.0226  0.0510
 1740DOPE   GL220412  16.523  16.065  11.052  0.0283 -0.4080  0.0441
 1740DOPE   C1A20413  16.893  15.680  10.780 -0.0396  0.1072 -0.0490
 1740DOPE   D2A20414  17.265  15.430  10.509  0.2805  0.2073  0.1075
 1740DOPE   C3A20415  17.209  15.176  10.131 -0.2536  0.0716  0.1644
 1740DOPE   C4A20416  16.907  15.030   9.809  0.0944 -0.2561  0.3560
 1740DOPE   C1B20417  16.511  16.361  10.675  0.0569  0.0967  0.1026
 1740DOPE   D2B20418  16.642  16.306  10.200  0.0232 -0.2988 -0.1330
 1740DOPE   C3B20419  16.970  16.595  10.009 -0.0616  0.2537  0.1845
 1740DOPE   C4B20420  17.258  16.946   9.820  0.3455  0.3275 -0.2502
 1741DOPC   NC320421  11.435  16.859  11.973  0.0097 -0.0010  0.1399
 1741DOPC   PO420422  11.753  17.134  11.956 -0.2177  0.0689  0.0298
 1741DOPC   GL120423  11.897  16.807  11.686  0.3045  0.0835 -0.1741
 1741DOPC   GL220424  12.150  16.788  11.776 -0.2639  0.3345 -0.0645
 1741DOPC   C1A20425  11.929  16.889  11.219  0.3490  0.2618 -0.1845
 1741DOPC   D2A20426  11.871  17.184  10.976 -0.1310  0.2209  0.1923
 1741DOPC   C3A20427  11.468  17.192  10.716  0.0603 -0.2614 -0.4074
 1741DOPC   C4A20428  11.418  17.647  10.556 -0.1227  0.2548 -0.3107
 1741DOPC   C1B20429  12.397  16.572  11.374 -0.2405 -0.1354 -0.3927
 1741DOPC   D2B20430  12.686  16.440  11.068  0.0345 -0.0481  0.0348
 1741DOPC   C3B20431  12.881  16.549  10.653 -0.1596 -0.0515  0.2545
 1741DOPC   C4B20432  13.177  16.873  10.395  0.1144 -0.1461 -0.3194
 1742POSM   NC320433  20.342  17.366  12.288 -0.1637  0.0324 -0.0238
 1742POSM   PO420434  20.521  17.053  12.119  0.0498  0.3437  0.2037
 1742POSM   AM120435  20.644  17.133  11.816  0.2310  0.1849  0.1240
 1742POSM   AM220436  20.542  17.111  11.551 -0.3243 -0.2335 -0.1179
 1742POSM   T1A20437  21.076  17.013  11.578  0.1396 -0.0095  0.0089
 1742POSM   C2A20438  21.315  16.677  11.784  0.0775  0.0549  0.0780
 1742POSM   C3A20439  21.729  16.597  12.012 -0.0260 -0.0402  0.1540
 1742POSM   C1B20440  20.437  17.416  11.400  0.0649 -0.0553 -0.2838
 1742POSM   D2B20441  20.515  17.739  11.134 -0.3948  0.0283 -0.0358
 1742POSM   C3B20442  20.347  17.653  10.674 -0.0659  0.2896  0.2197
 1742POSM   C4B20443  20.281  17.739  10.200  0.2032  0.0868  0.1773
 1743POSM   NC320444  12.969  24.199  13.042  0.0135  0.0875 -0.2080
 1743POSM   PO420445  13.201  24.045  12.762 -0.0543 -0.0392  0.0665
 1743POSM   AM120446  13.346  24.131  12.492  0.1131 -0.0266  0.0509
 1743POSM   AM220447  13.381  23.969  12.267  0.3173 -0.1862 -0.0403
 1743POSM   T1A20448  13.701  24.440  12.386  0.2490  0.1595  0.2865
 1743POSM   C2A20449  14.066  24.505  12.150 -0.0401 -0.0501  0.1050
 1743POSM   C3A20450  14.258  24.370  11.814 -0.0051 -0.3475 -0.2545
 1743POSM   C1B20451  13.610  24.087  12.063 -0.0718  0.1739 -0.0436
 1743POSM   D2B20452  13.874  24.020  11.714  0.0217 -0.0399 -0.0371
 1743POSM   C3B20453  13.756  23.977  11.291 -0.2318  0.0688 -0.0421
 1743POSM   C4B20454  13.538  23.893  10.895 -0.0780 -0.0369 -0.1158
 1744POSM   NC320455  16.320  18.548  11.954  0.1216 -0.1452 -0.3183
 1744POSM   PO420456  16.666  18.403  11.856 -0.1407 -0.0965  0.4071
 1744POSM   AM120457  16.525  18.352  11.572 -0.0122  0.1140  0.0691
 1744POSM   AM220458  16.379  18.119  11.498  0.1877 -0.0804 -0.2865
 1744POSM   T1A20459  16.441  18.438  11.092 -0.3945  0.0554  0.1164
 1744POSM   C2A20460  16.624  18.496  10.644 -0.0992 -0.0328  0.2845
 1744POSM   C3A20461  16.609  18.883  10.374 -0.1913 -0.1650 -0.1657
 1744POSM   C1B20462  16.451  17.944  11.235  0.2087  0.4025  0.0871
 1744POSM   D2B20463  16.522  17.797  10.784  0.2462  0.2722 -0.2230
 1744POSM   C3B20464  16.220  17.579  10.468  0.1709  0.2348 -0.0105
 1744POSM   C4B20465  15.740  17.549  10.536 -0.0711  0.0712 -0.3696
 1745POSM   NC320466  14.889  23.682  12.923 -0.1435 -0.2238  0.2875
 1745POSM   PO420467  14.840  23.451  12.587 -0.1256  0.4438  0.0574
 1745POSM   AM120468  14.813  23.573  12.298 -0.2571 -0.1595  0.0144
 1745POSM   AM220469  14.531  23.618  12.161 -0.2347 -0.2031 -0.0380
 1745POSM   T1A20470  14.985  23.828  11.927  0.0812 -0.0799  0.0123
 1745POSM   C2A20471  14.750  24.096  11.624  0.0072 -0.1380  0.4845
 1745POSM   C3A20472  14.557  24.384  11.317  0.1750  0.1562 -0.0082
 1745POSM   C1B20473  14.364  23.717  11.885  0.2367  0.1398 -0.2100
 1745POSM   D2B20474  14.274  23.901  11.445  0.1151  0.0839 -0.4397
 1745POSM   C3B20475  14.213  23.616  11.148 -0.2827  0.0199  0.0242
 1745POSM   C4B20476  14.104  23.186  11.095  0.0043  0.3435 -0.1196
 1746DOPC   NC320477  24.786  20.177  14.407  0.0257 -0.0371 -0.2464
 1746DOPC   PO420478  24.922  19.912  14.192  0.1319  0.2756  0.1911
 1746DOPC   GL120479  25.065  20.138  13.963  0.3927  0.1361 -0.2180
 1746DOPC   GL220480  25.140  20.042  13.712 -0.0492  0.1054  0.1135
 1746DOPC   C1A20481  25.257  20.560  13.968 -0.1455 -0.1918 -0.2746
 1746DOPC   D2A20482  25.158  21.019  13.898  0.0683  0.3475  0.1287
 1746DOPC   C3A20483  25.559  21.123  13.742 -0.1053 -0.1112  0.0392
 1746DOPC   C4A20484  25.969  21.353  13.584 -0.3158  0.1092 -0.2609
 1746DOPC   C1B20485  25.400  19.705  13.604 -0.2900 -0.0583 -0.0217
 1746DOPC   D2B20486  25.719  19.582  13.261 -0.0020 -0.3372 -0.0563
 1746DOPC   C3B20487  25.680  19.485  12.783 -0.2117  0.0748  0.1039
 1746DOPC   C4B20488  25.952  19.081  12.709 -0.1614 -0.0668 -0.0177
 1747POSM   NC320489  25.360  18.589  14.280  0.0534 -0.1943 -0.0146
 1747POSM   PO420490  25.223  18.931  14.135  0.2263 -0.5432 -0.2109
 1747POSM   AM120491  25.403  18.863  13.847 -0.1531  0.1380 -0.0848
 1747POSM   AM220492  25.395  18.657  13.653 -0.2398 -0.3008  0.0677
 1747POSM   T1A20493  25.764  18.886  13.482  0.1041 -0.0035 -0.0222
 1747POSM   C2A20494  26.079  18.682  13.253 -0.2769 -0.0662 -0.1648
 1747POSM   C3A20495  26.352  18.388  12.988  0.0770  0.0257  0.1749
 1747POSM   C1B20496  25.297  18.624  13.342  0.3068 -0.3223 -0.1513
 1747POSM   D2B20497  25.363  18.579  12.906 -0.2399 -0.1997  0.5034
 1747POSM   C3B20498  25.780  18.578  12.723  0.3007 -0.1067  0.2216
 1747POSM   C4B20499  26.060  18.387  12.357  0.3055 -0.2288  0.3324
 1748DOPS   CNO20500  18.299  17.089  12.168 -0.0558 -0.3571 -0.2286
 1748DOPS   PO420501  18.279  16.750  12.005  0.0006  0.1070 -0.2076
 1748DOPS   GL120502  18.309  16.883  11.567 -0.2463 -0.0735 -0.1448
 1748DOPS   GL220503  18.115  16.812  11.414 -0.2305  0.0358 -0.0059
 1748DOPS   C1A20504  18.503  16.949  11.156 -0.1432 -0.3085 -0.2630
 1748DOPS   D2A20505  18.739  16.934  10.756  0.0098  0.2036 -0.4034
 1748DOPS   C3A20506  18.767  17.334  10.564  0.1623 -0.1353 -0.2463
 1748DOPS   C4A20507  18.854  17.418  10.163  0.1207  0.1954  0.2198
 1748DOPS   C1B20508  18.007  17.079  11.072  0.0371 -0.1286 -0.1729
 1748DOPS   D2B20509  18.254  17.427  10.843 -0.3225  0.0585  0.1343
 1748DOPS   C3B20510  17.867  17.526  10.636 -0.0222 -0.0653  0.1770
 1748DOPS   C4B20511  17.649  17.756  10.220  0.0847  0.1437  0.0707
 1749DOPS   CNO20512  14.558  18.615  12.086 -0.0932  0.0210 -0.0346
 1749DOPS   PO420513  14.634  18.473  11.730 -0.0295 -0.1338  0.0931
 1749DOPS   GL120514  14.460  18.498  11.341 -0.0148 -0.1248 -0.2674
 1749DOPS   GL220515  14.196  18.403  11.361 -0.1049 -0.1624  0.2224
 1749DOPS   C1A20516  14.417  18.582  10.847  0.1894  0.2041  0.1410
 1749DOPS   D2A20517  14.171  18.685  10.484 -0.0177  0.0798  0.0934
 1749DOPS   C3A20518  13.875  18.360  10.482 -0.0424 -0.2078 -0.3256
 1749DOPS   C4A20519  13.435  18.324  10.636  0.2628 -0.1266 -0.0607
 1749DOPS   C1B20520  13.920  18.438  11.043 -0.0331 -0.0617  0.0348
 1749DOPS   D2B20521  13.703  18.768  10.767 -0.2242 -0.1947 -0.0856
 1749DOPS   C3B20522  13.587  18.764  10.309 -0.0761  0.2226  0.0620
 1749DOPS   C4B20523  13.715  18.474   9.977 -0.2359  0.0323 -0.1300
 1750DOPS   CNO20524  18.017  17.817  11.788 -0.2739 -0.0028 -0.1682
 1750DOPS   PO420525  18.025  18.125  11.552  0.0398 -0.0451 -0.0658
 1750DOPS   GL120526  18.302  18.283  11.238 -0.0382 -0.2294 -0.0830
 1750DOPS   GL220527  18.211  18.554  11.120  0.1687 -0.0507 -0.0771
 1750DOPS   C1A20528  18.691  18.221  10.959 -0.0351 -0.1764  0.0678
 1750DOPS   D2A20529  18.868  18.221  10.544  0.0687  0.2347  0.0879
 1750DOPS   C3A20530  18.608  17.806  10.490  0.0724 -0.1925  0.2927
 1750DOPS   C4A20531  18.217  17.713  10.329 -0.0086  0.0705  0.1553
 1750DOPS   C1B20532  17.993  18.466  10.721 -0.3331 -0.2679  0.1907
 1750DOPS   D2B20533  17.651  18.646  10.476  0.0673 -0.1246  0.3400
 1750DOPS   C3B20534  17.605  18.516  10.070  0.2047  0.0508 -0.1373
 1750DOPS   C4B20535  17.647  18.607   9.587  0.0583  0.1683 -0.0183
 1751POSM   NC320536  22.124  17.482  12.976 -0.3296 -0.1692  0.0521
 1751POSM   PO420537  22.300  17.152  12.958 -0.2327  0.1799  0.3076
 1751POSM   AM120538  22.195  16.977  12.686 -0.1635 -0.3150  0.0315
 1751POSM   AM220539  22.364  16.850  12.513 -0.3127  0.1739  0.3520
 1751POSM   T1A20540  22.067  16.935  12.179  0.1490 -0.3105  0.1128
 1751POSM   C2A20541  22.214  16.780  11.778 -0.0964  0.0154  0.1862
 1751POSM   C3A20542  22.435  16.783  11.384 -0.1494 -0.0914  0.2441
 1751POSM   C1B20543  22.569  16.845  12.179 -0.1762  0.0757 -0.1216
 1751POSM   D2B20544  22.770  16.580  11.840  0.3031 -0.1216 -0.1316
 1751POSM   C3B20545  22.951  16.683  11.416 -0.0834 -0.0324 -0.0540
 1751POSM   C4B20546  23.003  16.596  10.984 -0.1185 -0.1064 -0.1151
 1752DOPE   NH320547  23.156  21.676  13.923 -0.3174  0.1647 -0.0599
 1752DOPE   PO420548  23.028  21.511  13.662  0.0565 -0.2240 -0.4135
 1752DOPE   GL120549  23.078  21.419  13.334  0.2294  0.1817 -0.0265
 1752DOPE   GL220550  23.245  21.602  13.276 -0.2400 -0.1202 -0.0092
 1752DOPE   C1A20551  23.173  21.069  13.009 -0.0590  0.0971 -0.1115
 1752DOPE   D2A20552  23.332  21.085  12.574 -0.0139 -0.0943  0.0961
 1752DOPE   C3A20553  23.307  21.265  12.195  0.0624  0.1826  0.1622
 1752DOPE   C4A20554  23.387  21.609  11.828  0.1182 -0.4938  0.2928
 1752DOPE   C1B20555  22.948  21.874  13.023 -0.1197 -0.1895 -0.0682
 1752DOPE   D2B20556  22.749  22.001  12.675  0.2168 -0.1667  0.1495
 1752DOPE   C3B20557  22.923  22.035  12.256 -0.1200  0.0889  0.2039
 1752DOPE   C4B20558  22.982  22.117  11.779 -0.1213 -0.1989  0.1717
 1753POSM   NC320559  15.684  10.159  13.129  0.0132 -0.2750  0.4198
 1753POSM   PO420560  15.654  10.438  12.874  0.2133 -0.1016 -0.2480
 1753POSM   AM120561  15.599  10.464  12.563 -0.0000  0.5156  0.0740
 1753POSM   AM220562  15.723  10.463  12.284 -0.0315 -0.0976 -0.0661
 1753POSM   T1A20563  15.250  10.558  12.169 -0.0386 -0.1850 -0.1652
 1753POSM   C2A20564  15.322  10.858  11.825  0.2433 -0.2296 -0.1973
 1753POSM   C3A20565  15.442  11.259  11.669  0.1046  0.0803 -0.1619
 1753POSM   C1B20566  15.739  10.158  12.164 -0.0092 -0.0213  0.0101
 1753POSM   D2B20567  15.740   9.898  11.769 -0.1894  0.0810  0.4657
 1753POSM   C3B20568  15.487   9.981  11.424 -0.1169 -0.0387  0.1020
 1753POSM   C4B20569  15.484  10.325  11.133 -0.3642 -0.2204  0.1193
 1754DOPS   CNO20570  21.892  20.425  12.895  0.0403  0.1857  0.2304
 1754DOPS   PO420571  22.085  20.073  12.900 -0.0674 -0.3273  0.2409
 1754DOPS   GL120572  22.064  20.049  12.550 -0.3411  0.1114  0.1696
 1754DOPS   GL220573  22.119  19.788  12.456 -0.2072  0.0483  0.0397
 1754DOPS   C1A20574  22.334  20.241  12.198 -0.0299  0.0641 -0.0173
 1754DOPS   D2A20575  22.454  20.341  11.814 -0.2058 -0.0319  0.3155
 1754DOPS   C3A20576  22.756  20.235  11.514 -0.0883 -0.2783  0.2157
 1754DOPS   C4A20577  23.120  19.998  11.658  0.0609 -0.0994 -0.0395
 1754DOPS   C1B20578  22.311  19.499  12.200  0.0798  0.3194 -0.2254
 1754DOPS   D2B20579  22.435  19.410  11.760  0.0957 -0.0788  0.1626
 1754DOPS   C3B20580  22.020  19.576  11.482 -0.2958  0.2530  0.0822
 1754DOPS   C4B20581  21.570  19.626  11.335 -0.0418 -0.0220  0.1274
 1755POSM   NC320582  24.266  17.806  13.405 -0.1162  0.2729  0.1483
 1755POSM   PO420583  24.051  18.172  13.413 -0.0164  0.0007  0.1441
 1755POSM   AM120584  24.170  18.230  13.109 -0.1316 -0.0550 -0.0689
 1755POSM   AM220585  24.383  18.177  12.960 -0.3637 -0.2823  0.2289
 1755POSM   T1A20586  24.074  18.457  12.637  0.1755  0.1126 -0.0512
 1755POSM   C2A20587  23.641  18.585  12.447  0.0955 -0.0043 -0.0431
 1755POSM   C3A20588  23.417  18.754  12.059  0.2033 -0.1065  0.0146
 1755POSM   C1B20589  24.386  18.041  12.637  0.3194  0.1593 -0.3916
 1755POSM   D2B20590  24.450  18.082  12.200  0.0027 -0.0674  0.0327
 1755POSM   C3B20591  24.292  18.135  11.789  0.0876 -0.0287 -0.0431
 1755POSM   C4B20592  24.008  18.261  11.471  0.0998  0.4391 -0.0550
 1756POSM   NC320593  16.899  13.420  11.545  0.1869  0.0355  0.1087
 1756POSM   PO420594  16.934  13.712  11.836 -0.1428 -0.0944  0.0203
 1756POSM   AM120595  16.983  13.836  11.507  0.1741 -0.0138 -0.1199
 1756POSM   AM220596  17.258  13.896  11.404  0.0333  0.0686 -0.0878
 1756POSM   T1A20597  17.001  13.584  11.082  0.3245  0.1029  0.1980
 1756POSM   C2A20598  17.105  13.303  10.730  0.1420 -0.2361  0.0081
 1756POSM   C3A20599  17.339  12.985  10.448  0.0426 -0.0755  0.0514
 1756POSM   C1B20600  17.252  14.111  11.126  0.0695  0.3699 -0.3609
 1756POSM   D2B20601  17.236  14.467  10.853  0.0192 -0.0085 -0.1149
 1756POSM   C3B20602  16.926  14.761  10.753 -0.2628 -0.2464  0.2951
 1756POSM   C4B20603  16.771  14.931  10.301  0.0348  0.3188 -0.3108
 1757POSM   NC320604  14.710  19.673  11.836  0.0116  0.1366  0.5434
 1757POSM   PO420605  14.954  19.921  11.638  0.2996 -0.0289  0.1183
 1757POSM   AM120606  14.916  19.654  11.433 -0.1114  0.3367  0.7046
 1757POSM   AM220607  14.982  19.620  11.166 -0.0872  0.0421  0.5138
 1757POSM   T1A20608  14.920  19.181  11.356  0.0718 -0.2647 -0.2334
 1757POSM   C2A20609  14.902  18.784  11.083  0.0740  0.1365  0.3122
 1757POSM   C3A20610  15.050  18.477  10.853  0.4809 -0.1564 -0.1972
 1757POSM   C1B20611  14.814  19.467  10.882 -0.0954 -0.3074  0.0503
 1757POSM   D2B20612  14.747  19.479  10.457 -0.4769  0.1545 -0.0503
 1757POSM   C3B20613  14.387  19.314  10.131 -0.0214  0.0138  0.0560
 1757POSM   C4B20614  13.991  19.500  10.045 -0.1255 -0.0147 -0.1060
 1758DOPE   NH320615  24.448  21.537  14.418  0.0020 -0.1093 -0.1347
 1758DOPE   PO420616  24.588  21.299  14.306  0.1593 -0.0172 -0.1433
 1758DOPE   GL120617  24.761  21.356  13.858  0.0885  0.3911  0.2489
 1758DOPE   GL220618  24.451  21.342  13.801 -0.0918 -0.1843  0.1465
 1758DOPE   C1A20619  25.013  21.306  13.470  0.2324  0.2203  0.1926
 1758DOPE   D2A20620  25.409  21.444  13.369 -0.0477  0.1781  0.2317
 1758DOPE   C3A20621  25.841  21.211  13.150  0.2264  0.0315 -0.0398
 1758DOPE   C4A20622  26.020  20.863  12.906 -0.3154  0.0205 -0.0424
 1758DOPE   C1B20623  24.538  21.129  13.378  0.2630  0.0038  0.0213
 1758DOPE   D2B20624  24.278  20.886  13.136  0.1500 -0.1371  0.2456
 1758DOPE   C3B20625  24.229  20.753  12.672  0.0710  0.0277  0.3314
 1758DOPE   C4B20626  23.978  20.553  12.279  0.2399 -0.0657 -0.1824
 1759DOPE   NH320627  13.475  20.480  11.959 -0.4541  0.0492  0.2025
 1759DOPE   PO420628  13.745  20.477  11.826 -0.1883 -0.1695 -0.1376
 1759DOPE   GL120629  13.958  20.542  11.535  0.2389 -0.0153 -0.3493
 1759DOPE   GL220630  13.960  20.277  11.368 -0.1712  0.1831  0.1323
 1759DOPE   C1A20631  14.397  20.459  11.406  0.1354 -0.1417  0.1682
 1759DOPE   D2A20632  14.855  20.510  11.248 -0.1014  0.4188  0.3181
 1759DOPE   C3A20633  14.975  20.418  10.735 -0.2166 -0.2559  0.3221
 1759DOPE   C4A20634  15.301  20.332  10.385  0.0734 -0.2437  0.3229
 1759DOPE   C1B20635  14.254  20.121  10.968  0.3065 -0.0595 -0.3010
 1759DOPE   D2B20636  14.563  19.913  10.715  0.0654 -0.3178 -0.2223
 1759DOPE   C3B20637  15.020  19.910  10.729 -0.3040 -0.2758 -0.0243
 1759DOPE   C4B20638  15.519  19.968  10.754  0.3183 -0.0146 -0.0159
 1760DOPS   CNO20639  27.405  13.328  14.026 -0.1539 -0.3030 -0.0041
 1760DOPS   PO420640  27.486  13.706  13.927  0.0382 -0.0439  0.2117
 1760DOPS   GL120641  27.276  13.496  13.601  0.1432 -0.2546 -0.0994
 1760DOPS   GL220642  27.035  13.597  13.680  0.1265 -0.0934 -0.1680
 1760DOPS   C1A20643  27.439  13.427  13.173 -0.0738  0.1506  0.1217
 1760DOPS   D2A20644  27.326  13.625  12.800  0.0705 -0.2075  0.0647
 1760DOPS   C3A20645  27.426  13.475  12.416  0.0935 -0.2117 -0.2495
 1760DOPS   C4A20646  27.304  13.418  11.961 -0.1969 -0.0049 -0.1627
 1760DOPS   C1B20647  27.091  13.840  13.275 -0.1598  0.1785  0.0141
 1760DOPS   D2B20648  26.870  13.607  12.985 -0.2074 -0.1803  0.3337
 1760DOPS   C3B20649  26.524  13.756  12.727  0.0354 -0.0220 -0.0214
 1760DOPS   C4B20650  26.148  13.589  12.502 -0.3254 -0.1724  0.0750
 1761DOPS   CNO20651  10.768  16.718  12.189  0.2422  0.1123  0.1588
 1761DOPS   PO420652  10.960  16.921  11.955  0.0294  0.1927  0.1431
 1761DOPS   GL120653  11.160  16.925  11.540  0.1586 -0.3092 -0.1179
 1761DOPS   GL220654  10.912  16.985  11.397  0.2525  0.3760  0.1277
 1761DOPS   C1A20655  11.451  16.669  11.464  0.1957  0.3347 -0.1029
 1761DOPS   D2A20656  11.624  16.421  11.143  0.2542  0.0777 -0.2176
 1761DOPS   C3A20657  11.667  16.177  10.719  0.1609  0.1124 -0.0667
 1761DOPS   C4A20658  11.824  16.031  10.301 -0.0137  0.0541 -0.1133
 1761DOPS   C1B20659  10.743  17.390  11.288  0.3836 -0.3888  0.2245
 1761DOPS   D2B20660  10.638  17.629  10.957 -0.0562 -0.3175 -0.0570
 1761DOPS   C3B20661  10.907  17.798  10.710  0.3580  0.1758  0.1289
 1761DOPS   C4B20662  11.030  18.044  10.308  0.1855  0.1114 -0.0387
 1762DOPE   NH320663  16.833  21.838  11.903 -0.0274  0.0799  0.1440
 1762DOPE   PO420664  16.541  21.973  11.862 -0.1126  0.0994 -0.0358
 1762DOPE   GL120665  16.637  22.078  11.487 -0.1415  0.0715 -0.1535
 1762DOPE   GL220666  16.385  22.187  11.404  0.1715  0.2365 -0.3474
 1762DOPE   C1A20667  16.542  21.974  11.019 -0.1119  0.0384 -0.2418
 1762DOPE   D2A20668  16.263  21.850  10.659  0.1722 -0.1313  0.2420
 1762DOPE   C3A20669  16.504  21.593  10.412 -0.1007  0.0828  0.1616
 1762DOPE   C4A20670  16.833  21.309  10.298  0.1544 -0.2625 -0.0991
 1762DOPE   C1B20671  16.320  22.525  11.177 -0.3108  0.0514 -0.0112
 1762DOPE   D2B20672  16.428  22.896  10.934  0.1055 -0.1764 -0.0520
 1762DOPE   C3B20673  16.398  23.218  10.647 -0.1261 -0.1473  0.0309
 1762DOPE   C4B20674  16.562  23.418  10.237  0.0327  0.2297 -0.1646
 1763DOPC   NC320675  18.428  22.800  12.842  0.0836  0.1819 -0.1962
 1763DOPC   PO420676  18.687  23.090  12.946  0.1423  0.1144  0.1482
 1763DOPC   GL120677  18.680  23.079  12.503 -0.0499  0.2103  0.0483
 1763DOPC   GL220678  18.657  22.775  12.382  0.1864  0.2656  0.1124
 1763DOPC   C1A20679  18.348  23.049  12.203  0.2297 -0.0836  0.1769
 1763DOPC   D2A20680  18.285  22.881  11.768 -0.1266 -0.0280  0.0114
 1763DOPC   C3A20681  18.411  22.487  11.506 -0.0950  0.0442  0.1890
 1763DOPC   C4A20682  18.656  22.308  11.136  0.2761 -0.1476 -0.0325
 1763DOPC   C1B20683  19.002  22.997  12.187 -0.2197 -0.1560  0.0644
 1763DOPC   D2B20684  19.486  23.086  12.167 -0.1754 -0.1097  0.0237
 1763DOPC   C3B20685  19.665  23.162  11.738  0.1054  0.3796  0.1366
 1763DOPC   C4B20686  19.816  23.136  11.235 -0.1175  0.0986 -0.0699
 1764DOPE   NH320687  19.041  21.779  12.485  0.0665  0.0342 -0.1942
 1764DOPE   PO420688  18.776  21.713  12.317  0.5137 -0.1186  0.1573
 1764DOPE   GL120689  18.913  21.518  12.002  0.4484  0.1565 -0.2981
 1764DOPE   GL220690  19.174  21.620  11.947  0.1217  0.2727  0.0661
 1764DOPE   C1A20691  18.766  21.798  11.642 -0.2674 -0.2820  0.0290
 1764DOPE   D2A20692  18.395  21.938  11.441  0.1398 -0.3099  0.0667
 1764DOPE   C3A20693  18.339  21.950  10.957  0.0862 -0.1374 -0.2572
 1764DOPE   C4A20694  18.366  21.699  10.555  0.1504  0.0547  0.0846
 1764DOPE   C1B20695  19.129  21.476  11.509  0.1468 -0.0999  0.2288
 1764DOPE   D2B20696  18.855  21.247  11.222  0.2399 -0.0897 -0.0620
 1764DOPE   C3B20697  18.959  20.836  10.994 -0.3619  0.0314 -0.1204
 1764DOPE   C4B20698  18.959  20.557  10.633  0.0323 -0.1867  0.1838
 1765DOPC   NC320699   9.790  12.719  13.351 -0.1959  0.0254  0.1123
 1765DOPC   PO420700  10.103  12.711  13.086  0.2686  0.1118 -0.0391
 1765DOPC   GL120701  10.293  12.659  12.758 -0.4879 -0.1683  0.2214
 1765DOPC   GL220702  10.502  12.494  12.691  0.1377  0.4935 -0.0897
 1765DOPC   C1A20703  10.101  12.640  12.327  0.1231 -0.0224 -0.0196
 1765DOPC   D2A20704  10.153  12.882  11.931 -0.0279  0.0329  0.0278
 1765DOPC   C3A20705   9.822  13.173  11.759  0.1386 -0.2942  0.2135
 1765DOPC   C4A20706   9.737  13.567  11.873 -0.1628 -0.2646 -0.1772
 1765DOPC   C1B20707  10.604  12.443  12.209  0.3677 -0.0321  0.1405
 1765DOPC   D2B20708  10.805  12.311  11.805  0.5854 -0.0046 -0.0768
 1765DOPC   C3B20709  10.760  12.195  11.370 -0.2624 -0.1412  0.1703
 1765DOPC   C4B20710  10.952  12.300  10.983  0.0951 -0.0063  0.2161
 1766DOPE   NH320711  26.531  13.932  13.785 -0.2560  0.1355 -0.2190
 1766DOPE   PO420712  26.297  14.081  13.927 -0.0122  0.2505 -0.0344
 1766DOPE   GL120713  26.165  14.283  13.647 -0.0099 -0.2960 -0.1883
 1766DOPE   GL220714  26.309  14.230  13.396 -0.1649  0.3741  0.2303
 1766DOPE   C1A20715  25.822  14.243  13.352  0.3890 -0.0176 -0.1305
 1766DOPE   D2A20716  25.838  14.377  12.908  0.0591  0.4635  0.2871
 1766DOPE   C3A20717  25.581  14.611  12.560  0.5859 -0.3036  0.1038
 1766DOPE   C4A20718  25.136  14.723  12.638  0.1370  0.0176 -0.1058
 1766DOPE   C1B20719  26.151  14.006  13.019  0.0832  0.1272 -0.1295
 1766DOPE   D2B20720  26.066  13.565  13.003  0.0864 -0.0692 -0.0036
 1766DOPE   C3B20721  26.396  13.314  13.011  0.0014  0.2371 -0.2346
 1766DOPE   C4B20722  26.781  13.213  13.356  0.2096  0.1759 -0.0726
 1767DOPE   NH320723  21.719  21.129  13.368 -0.4471  0.0356  0.1437
 1767DOPE   PO420724  21.883  20.859  13.319 -0.3506 -0.1665  0.1121
 1767DOPE   GL120725  21.809  20.897  12.941  0.0621 -0.1187 -0.1580
 1767DOPE   GL220726  21.880  21.125  12.855  0.2818 -0.0422 -0.3561
 1767DOPE   C1A20727  21.530  20.854  12.596 -0.0696  0.0782 -0.2148
 1767DOPE   D2A20728  21.101  20.807  12.342 -0.0353  0.0907 -0.0490
 1767DOPE   C3A20729  21.104  20.705  11.900  0.3081  0.1611 -0.1603
 1767DOPE   C4A20730  21.203  21.000  11.551 -0.0606 -0.0181 -0.1712
 1767DOPE   C1B20731  21.947  20.993  12.421  0.0489  0.2106 -0.1232
 1767DOPE   D2B20732  22.027  21.129  11.953 -0.2411 -0.1157 -0.0844
 1767DOPE   C3B20733  21.772  21.018  11.558  0.1546 -0.1013 -0.1280
 1767DOPE   C4B20734  21.551  20.599  11.575 -0.0415  0.2913  0.0641
 1768DOPC   NC320735  13.909  12.656  12.457 -0.2201 -0.1421 -0.2169
 1768DOPC   PO420736  13.562  12.659  12.451  0.0258 -0.0875 -0.2215
 1768DOPC   GL120737  13.395  12.651  12.065  0.2790  0.0952  0.0551
 1768DOPC   GL220738  13.457  12.385  12.023  0.1111 -0.0107  0.1427
 1768DOPC   C1A20739  13.535  12.699  11.605 -0.0837 -0.0211  0.1708
 1768DOPC   D2A20740  13.471  12.906  11.212  0.2062  0.0182 -0.3861
 1768DOPC   C3A20741  13.621  12.731  10.774  0.2903 -0.1003  0.1297
 1768DOPC   C4A20742  13.595  12.874  10.331 -0.1645  0.0382  0.0682
 1768DOPC   C1B20743  13.153  12.401  11.684 -0.2501  0.1287 -0.1385
 1768DOPC   D2B20744  12.859  12.182  11.399  0.0130 -0.2302 -0.4960
 1768DOPC   C3B20745  13.065  11.956  11.028 -0.1345  0.0190 -0.2630
 1768DOPC   C4B20746  13.410  12.119  10.759 -0.4646 -0.0383 -0.2827
 1769DOPC   NC320747  25.888  14.687  13.892  0.1530 -0.2455 -0.1349
 1769DOPC   PO420748  25.507  14.859  13.851  0.0252  0.0708 -0.0885
 1769DOPC   GL120749  25.348  14.687  13.442  0.0814 -0.0910  0.0808
 1769DOPC   GL220750  25.335  14.403  13.519 -0.3408 -0.2428 -0.3488
 1769DOPC   C1A20751  25.489  14.792  13.028  0.1397  0.3505 -0.1542
 1769DOPC   D2A20752  25.485  15.084  12.690  0.1198 -0.1668 -0.2288
 1769DOPC   C3A20753  25.333  14.956  12.277  0.4500 -0.0161 -0.1043
 1769DOPC   C4A20754  25.256  15.151  11.850  0.1544 -0.1514 -0.0471
 1769DOPC   C1B20755  25.327  14.340  13.052 -0.0106 -0.2846  0.1631
 1769DOPC   D2B20756  25.491  14.105  12.622  0.2998  0.1110 -0.0577
 1769DOPC   C3B20757  25.914  14.047  12.468 -0.1077  0.3242  0.1726
 1769DOPC   C4B20758  26.128  14.462  12.340  0.0723 -0.0263  0.2026
 1770DOPE   NH320759  23.048  18.074  13.430  0.1490 -0.2028 -0.1681
 1770DOPE   PO420760  22.818  18.035  13.272  0.1488 -0.1321  0.5296
 1770DOPE   GL120761  22.846  17.950  12.904 -0.1490  0.1603 -0.4688
 1770DOPE   GL220762  22.729  18.205  12.826  0.0317 -0.2290  0.0246
 1770DOPE   C1A20763  22.859  17.591  12.587  0.0210 -0.1471  0.0772
 1770DOPE   D2A20764  22.809  17.293  12.209  0.2270  0.0074  0.2884
 1770DOPE   C3A20765  22.386  17.251  11.966 -0.1621 -0.2104  0.0464
 1770DOPE   C4A20766  22.254  17.200  11.508  0.1083  0.2734 -0.1428
 1770DOPE   C1B20767  22.711  18.113  12.400 -0.1904  0.3151 -0.1549
 1770DOPE   D2B20768  22.959  17.880  12.111  0.2132  0.3773  0.1295
 1770DOPE   C3B20769  23.205  17.869  11.712  0.1650 -0.2053 -0.0142
 1770DOPE   C4B20770  23.579  18.045  11.534  0.1110 -0.0181  0.0111
 1771DOPE   NH320771  24.741  19.027  14.186  0.1206 -0.1242 -0.0818
 1771DOPE   PO420772  24.547  18.793  14.065 -0.1197  0.1582 -0.2779
 1771DOPE   GL120773  24.677  18.801  13.714  0.3397  0.2342  0.0428
 1771DOPE   GL220774  24.923  18.961  13.726  0.2396 -0.0939  0.3826
 1771DOPE   C1A20775  24.831  18.481  13.383 -0.1585 -0.0381  0.1921
 1771DOPE   D2A20776  24.888  18.561  12.898 -0.0607 -0.2552 -0.0375
 1771DOPE   C3A20777  25.031  18.730  12.534 -0.3561  0.3495 -0.2308
 1771DOPE   C4A20778  25.409  18.550  12.302 -0.2613  0.1963  0.0418
 1771DOPE   C1B20779  24.947  18.937  13.229  0.1396  0.0642  0.4978
 1771DOPE   D2B20780  25.116  19.173  12.907  0.0114  0.3175  0.4200
 1771DOPE   C3B20781  24.988  19.269  12.522 -0.0820  0.1393  0.0135
 1771DOPE   C4B20782  24.829  19.005  12.148 -0.0968 -0.0045  0.0988
 1772DOPS   CNO20783  13.824  14.975  12.615  0.1897 -0.2426  0.1917
 1772DOPS   PO420784  13.742  14.879  12.247 -0.1991 -0.2021  0.0172
 1772DOPS   GL120785  13.829  14.974  11.850  0.0436 -0.1380 -0.0281
 1772DOPS   GL220786  14.050  15.126  11.894  0.0199 -0.0284 -0.2574
 1772DOPS   C1A20787  13.573  14.968  11.485  0.0266 -0.0945  0.0021
 1772DOPS   D2A20788  13.320  14.953  11.044 -0.0675  0.0497 -0.1694
 1772DOPS   C3A20789  13.185  15.370  10.843  0.0338  0.1948  0.0603
 1772DOPS   C4A20790  13.212  15.727  10.506 -0.0498  0.0306  0.1166
 1772DOPS   C1B20791  14.147  15.043  11.484  0.1036  0.1875 -0.1418
 1772DOPS   D2B20792  14.335  14.917  11.077 -0.3099  0.1587 -0.2590
 1772DOPS   C3B20793  14.141  15.290  10.748  0.0862  0.1672  0.1178
 1772DOPS   C4B20794  13.875  15.414  10.354  0.1975 -0.1892  0.2771
 1773POSM   NC320795  17.183  22.396  12.236  0.0813 -0.1297 -0.1912
 1773POSM   PO420796  17.315  22.032  12.127 -0.2361  0.0250  0.2055
 1773POSM   AM120797  17.432  22.165  11.883  0.4800 -0.0238 -0.4417
 1773POSM   AM220798  17.503  22.448  11.801  0.1209  0.2283 -0.2804
 1773POSM   T1A20799  17.816  22.137  11.590  0.5164 -0.2978 -0.4087
 1773POSM   C2A20800  17.997  22.246  11.189 -0.1311  0.2456  0.0618
 1773POSM   C3A20801  18.186  22.456  10.869  0.3456  0.1651 -0.4375
 1773POSM   C1B20802  17.774  22.637  11.639 -0.0710  0.1361  0.0004
 1773POSM   D2B20803  17.998  22.753  11.248 -0.1012 -0.1883  0.1637
 1773POSM   C3B20804  17.683  23.027  11.000 -0.0859  0.0266 -0.0929
 1773POSM   C4B20805  17.427  23.239  10.646  0.1559 -0.2333  0.0101
 1774DOPC   NC320806  14.344  16.832  11.564 -0.0781  0.0869 -0.1719
 1774DOPC   PO420807  14.230  16.723  11.887  0.0135  0.3061  0.3874
 1774DOPC   GL120808  13.996  16.449  11.703  0.6445 -0.1247 -0.2697
 1774DOPC   GL220809  13.847  16.666  11.515 -0.1780 -0.0660 -0.4755
 1774DOPC   C1A20810  13.856  16.229  11.330  0.0202 -0.2905 -0.0007
 1774DOPC   D2A20811  13.682  16.482  10.957  0.0054  0.2697  0.2080
 1774DOPC   C3A20812  13.475  16.513  10.497  0.0062  0.0110  0.3270
 1774DOPC   C4A20813  13.536  16.253  10.123  0.0316  0.0360 -0.3994
 1774DOPC   C1B20814  14.178  16.596  11.158 -0.0677  0.1610 -0.0356
 1774DOPC   D2B20815  14.120  16.223  10.867  0.0192  0.1037 -0.1168
 1774DOPC   C3B20816  13.733  16.071  10.716 -0.1087 -0.1231  0.4596
 1774DOPC   C4B20817  13.654  15.860  10.357  0.0755  0.1114 -0.1131
 1775DOPC   NC320818  18.832  12.570  12.401 -0.0068 -0.1076 -0.0130
 1775DOPC   PO420819  19.060  12.634  12.085  0.1354  0.1097  0.2624
 1775DOPC   GL120820  18.862  12.600  11.691 -0.1202  0.4761 -0.4040
 1775DOPC   GL220821  18.899  12.766  11.543  0.1429  0.0029 -0.1215
 1775DOPC   C1A20822  18.545  12.512  11.319  0.1206 -0.2281 -0.0901
 1775DOPC   D2A20823  18.273  12.731  11.020 -0.0434 -0.0057 -0.0392
 1775DOPC   C3A20824  18.325  12.694  10.549  0.1580 -0.1325 -0.1314
 1775DOPC   C4A20825  17.979  12.829  10.219 -0.1608 -0.0836  0.0341
 1775DOPC   C1B20826  19.045  12.694  11.121  0.0759  0.1531 -0.1681
 1775DOPC   D2B20827  18.812  12.613  10.731 -0.1242  0.1160  0.0429
 1775DOPC   C3B20828  18.809  12.785  10.275 -0.1655 -0.5076  0.1993
 1775DOPC   C4B20829  18.844  13.066   9.902 -0.0876 -0.0747 -0.0189
 1776DOPS   CNO20830  13.813  14.523  11.872 -0.0713  0.1816 -0.0296
 1776DOPS   PO420831  14.042  14.316  12.110  0.0881 -0.1107  0.2041
 1776DOPS   GL120832  14.066  14.124  11.674  0.1601  0.2470 -0.2223
 1776DOPS   GL220833  14.214  14.357  11.576  0.1869 -0.1053 -0.1547
 1776DOPS   C1A20834  14.250  13.903  11.316 -0.2287 -0.1281  0.1561
 1776DOPS   D2A20835  14.128  13.872  10.828  0.1054 -0.1683 -0.0412
 1776DOPS   C3A20836  14.418  14.137  10.568 -0.2226 -0.2849  0.1207
 1776DOPS   C4A20837  14.821  14.323  10.360 -0.2171 -0.1994  0.0203
 1776DOPS   C1B20838  13.867  14.573  11.338 -0.1028 -0.1784 -0.0316
 1776DOPS   D2B20839  13.543  14.486  11.018  0.4673  0.0124 -0.1007
 1776DOPS   C3B20840  13.761  14.308  10.638  0.2129 -0.0582  0.5583
 1776DOPS   C4B20841  14.026  14.225  10.384  0.3122 -0.4365 -0.2534
 1777DOPC   NC320842  23.583  24.480  14.369 -0.2996 -0.2246 -0.1361
 1777DOPC   PO420843  23.646  24.088  14.517 -0.0730  0.2430 -0.0676
 1777DOPC   GL120844  23.704  23.956  14.118  0.1646  0.2125 -0.2566
 1777DOPC   GL220845  23.824  24.152  13.994 -0.2571 -0.2650  0.0294
 1777DOPC   C1A20846  23.482  23.633  13.803  0.3035  0.1349  0.1307
 1777DOPC   D2A20847  23.381  23.646  13.347  0.2639  0.0062 -0.1966
 1777DOPC   C3A20848  23.722  23.843  13.075  0.1163  0.2420 -0.0610
 1777DOPC   C4A20849  23.946  23.984  12.735 -0.0999  0.1849 -0.0152
 1777DOPC   C1B20850  23.900  23.812  13.650 -0.0588 -0.1608 -0.1839
 1777DOPC   D2B20851  24.120  23.630  13.276  0.2816  0.3213 -0.0051
 1777DOPC   C3B20852  24.548  23.677  13.257 -0.0419 -0.4224  0.0068
 1777DOPC   C4B20853  24.926  23.506  13.476  0.3745  0.0541 -0.2162
 1778POSM   NC320854  21.791  15.824  13.296  0.2540  0.1530 -0.1194
 1778POSM   PO420855  21.608  15.607  13.025 -0.0490 -0.2213 -0.2948
 1778POSM   AM120856  21.645  15.474  12.751  0.1061  0.2270  0.0279
 1778POSM   AM220857  21.487  15.459  12.470 -0.0978 -0.0306 -0.0517
 1778POSM   T1A20858  21.928  15.118  12.458 -0.2741  0.0319 -0.1097
 1778POSM   C2A20859  21.997  15.101  11.998 -0.0327  0.3047  0.2513
 1778POSM   C3A20860  22.059  15.544  11.851 -0.0546 -0.0791  0.1906
 1778POSM   C1B20861  21.666  15.445  12.167 -0.2516 -0.1422  0.0419
 1778POSM   D2B20862  21.524  15.440  11.709 -0.0137  0.2132  0.0653
 1778POSM   C3B20863  21.168  15.176  11.701  0.1076 -0.3099  0.1104
 1778POSM   C4B20864  21.035  14.746  11.798  0.1264 -0.1346  0.1128
 1779DOPC   NC320865  20.046  15.422  12.273 -0.2718  0.2856 -0.0063
 1779DOPC   PO420866  20.044  15.596  11.898 -0.0371  0.2062 -0.2720
 1779DOPC   GL120867  20.074  15.620  11.464 -0.0063 -0.3817  0.0901
 1779DOPC   GL220868  19.891  15.893  11.495 -0.2640  0.0816 -0.0811
 1779DOPC   C1A20869  20.513  15.801  11.218 -0.2695  0.1214 -0.0470
 1779DOPC   D2A20870  20.931  15.748  10.950  0.0853  0.0748 -0.0431
 1779DOPC   C3A20871  21.226  15.938  10.648  0.0783  0.1472 -0.1221
 1779DOPC   C4A20872  21.661  15.800  10.621  0.0517  0.3306  0.2240
 1779DOPC   C1B20873  20.161  16.257  11.388  0.1200 -0.0825  0.0679
 1779DOPC   D2B20874  20.408  16.285  11.003 -0.2691 -0.0277  0.0993
 1779DOPC   C3B20875  20.341  16.489  10.591 -0.0805 -0.2657 -0.0081
 1779DOPC   C4B20876  20.197  16.381  10.190  0.0107 -0.0764 -0.1347
 1780DOPC   NC320877  21.046  13.624  13.099  0.1356  0.2544  0.0142
 1780DOPC   PO420878  21.168  13.922  12.866  0.0508 -0.1851  0.0948
 1780DOPC   GL120879  21.356  13.976  12.529  0.2943  0.2045 -0.2211
 1780DOPC   GL220880  21.242  14.162  12.240 -0.1518 -0.3893 -0.1669
 1780DOPC   C1A20881  21.659  13.772  12.282  0.0170  0.1500  0.1251
 1780DOPC   D2A20882  21.889  13.774  11.903 -0.0310  0.0718 -0.0300
 1780DOPC   C3A20883  21.987  14.116  11.602  0.1099 -0.2582  0.2558
 1780DOPC   C4A20884  22.318  14.187  11.204  0.0355  0.0805  0.0594
 1780DOPC   C1B20885  21.200  14.190  11.817  0.1400  0.3768  0.1648
 1780DOPC   D2B20886  21.175  14.128  11.344  0.0045  0.3147  0.0409
 1780DOPC   C3B20887  21.387  14.335  11.040  0.2691 -0.1855 -0.0077
 1780DOPC   C4B20888  21.724  14.509  10.800 -0.3176  0.1197  0.1846
 1781DOPE   NH320889  20.058  10.726  12.759 -0.1249 -0.0333 -0.0196
 1781DOPE   PO420890  20.046  10.696  12.454  0.1613  0.0202  0.2764
 1781DOPE   GL120891  20.028  10.856  12.031 -0.2106  0.0590 -0.1011
 1781DOPE   GL220892  20.242  10.607  11.871 -0.1632 -0.2384  0.0509
 1781DOPE   C1A20893  19.750  10.774  11.689 -0.1441  0.1963 -0.0802
 1781DOPE   D2A20894  19.680  10.612  11.238 -0.2442 -0.1848  0.3124
 1781DOPE   C3A20895  19.781  10.696  10.841  0.1556  0.0312  0.1363
 1781DOPE   C4A20896  19.700  10.982  10.465  0.1218  0.0387 -0.0189
 1781DOPE   C1B20897  19.985  10.329  11.641  0.4358  0.0484  0.2847
 1781DOPE   D2B20898  19.742   9.977  11.403  0.2092 -0.0309  0.4360
 1781DOPE   C3B20899  19.762  10.048  10.897  0.3463 -0.4178  0.0579
 1781DOPE   C4B20900  19.879  10.232  10.490  0.1349  0.1552 -0.2264
 1782POSM   NC320901  24.323  13.312  13.013  0.1577 -0.0454 -0.0862
 1782POSM   PO420902  24.274  13.419  13.414 -0.2031 -0.2598 -0.0611
 1782POSM   AM120903  24.144  13.700  13.266  0.0557 -0.1927 -0.0863
 1782POSM   AM220904  24.280  13.880  13.095 -0.0047  0.3328  0.1945
 1782POSM   T1A20905  23.756  14.004  13.122  0.0179  0.1398  0.1086
 1782POSM   C2A20906  23.551  14.259  12.728 -0.2198 -0.0444 -0.3245
 1782POSM   C3A20907  23.198  14.394  12.477 -0.3686  0.1291 -0.2374
 1782POSM   C1B20908  24.117  13.884  12.751  0.1460  0.0578 -0.1334
 1782POSM   D2B20909  24.187  13.577  12.403 -0.0614  0.1182 -0.3469
 1782POSM   C3B20910  24.125  13.626  11.936 -0.2227 -0.1187  0.3785
 1782POSM   C4B20911  24.438  13.791  11.763  0.1083 -0.0165 -0.0645
 1783POSM   NC320912  15.074  17.687  11.890  0.1120 -0.0410  0.1214
 1783POSM   PO420913  15.172  17.509  11.540 -0.0574 -0.3671  0.2425
 1783POSM   AM120914  15.149  17.762  11.294  0.2152 -0.0232  0.1869
 1783POSM   AM220915  15.052  17.766  11.040 -0.1135  0.0283  0.0503
 1783POSM   T1A20916  15.318  18.088  10.903 -0.0059 -0.0781 -0.0913
 1783POSM   C2A20917  15.517  18.404  10.642 -0.3725  0.0042  0.0113
 1783POSM   C3A20918  15.552  18.893  10.732  0.2645  0.3460  0.0766
 1783POSM   C1B20919  15.162  17.607  10.742  0.0472 -0.1093 -0.0224
 1783POSM   D2B20920  15.239  17.479  10.322  0.3092 -0.3125 -0.3182
 1783POSM   C3B20921  15.573  17.568  10.010 -0.1943  0.2871  0.2276
 1783POSM   C4B20922  15.924  17.485   9.637 -0.2055 -0.0589 -0.1502
 1784DOPE   NH320923  14.123  13.275  12.122  0.5513  0.2863  0.0749
 1784DOPE   PO420924  13.932  13.122  12.311  0.3122  0.3258 -0.0722
 1784DOPE   GL120925  13.844  12.950  11.978 -0.1052  0.2249  0.1664
 1784DOPE   GL220926  13.883  12.644  11.980  0.0256 -0.1581  0.0310
 1784DOPE   C1A20927  13.901  13.018  11.514 -0.3077 -0.1192  0.1065
 1784DOPE   D2A20928  13.959  12.865  11.111  0.0889 -0.1795 -0.3161
 1784DOPE   C3A20929  13.825  12.409  11.105 -0.0804 -0.3133 -0.0708
 1784DOPE   C4A20930  13.985  11.994  11.165 -0.3868 -0.1197 -0.4657
 1784DOPE   C1B20931  14.050  12.549  11.548  0.0715 -0.1645 -0.2325
 1784DOPE   D2B20932  14.298  12.431  11.191 -0.0809 -0.1370 -0.1231
 1784DOPE   C3B20933  14.692  12.234  10.980  0.0096  0.0874 -0.1808
 1784DOPE   C4B20934  14.975  11.964  10.752  0.1269 -0.4620 -0.1408
 1785POSM   NC320935  13.889  11.610  12.691 -0.0648  0.0929 -0.1094
 1785POSM   PO420936  14.160  11.836  12.490 -0.0130  0.0364  0.2836
 1785POSM   AM120937  14.054  11.900  12.150  0.0700 -0.1812 -0.1765
 1785POSM   AM220938  13.881  12.026  11.949  0.1879  0.0942 -0.2532
 1785POSM   T1A20939  14.191  11.746  11.710 -0.2041  0.0353  0.0301
 1785POSM   C2A20940  14.159  11.482  11.322  0.3964 -0.0207  0.1828
 1785POSM   C3A20941  14.023  11.494  10.892 -0.1032 -0.0524  0.0232
 1785POSM   C1B20942  13.755  12.177  11.651 -0.1919  0.0743  0.0634
 1785POSM   D2B20943  13.434  12.169  11.340  0.0481 -0.1679  0.3294
 1785POSM   C3B20944  13.288  12.457  11.074 -0.1058  0.1346 -0.1110
 1785POSM   C4B20945  13.167  12.648  10.649  0.2912  0.3972 -0.0485
 1786DOPE   NH320946  15.014  22.589  12.425  0.0791  0.1712 -0.1481
 1786DOPE   PO420947  15.236  22.412  12.192 -0.2514 -0.3848 -0.1236
 1786DOPE   GL120948  15.149  22.327  11.811  0.0600 -0.0208 -0.2764
 1786DOPE   GL220949  14.982  22.154  11.747  0.0562  0.1003  0.1134
 1786DOPE   C1A20950  14.947  22.563  11.418  0.1282  0.0942  0.0560
 1786DOPE   D2A20951  14.756  22.456  11.020 -0.1762  0.0341  0.1166
 1786DOPE   C3A20952  14.327  22.270  10.909  0.2630  0.0600 -0.1018
 1786DOPE   C4A20953  14.300  22.248  10.393  0.1156  0.2515 -0.0551
 1786DOPE   C1B20954  14.941  21.903  11.404  0.1354  0.1610 -0.1034
 1786DOPE   D2B20955  15.017  21.898  10.874  0.1250  0.1662  0.2665
 1786DOPE   C3B20956  15.017  21.600  10.631  0.3338  0.1028 -0.0149
 1786DOPE   C4B20957  14.905  21.302  10.335  0.0682  0.2569  0.2728
 1787POSM   NC320958  12.317  14.769  12.449 -0.1844  0.0147 -0.0538
 1787POSM   PO420959  12.551  14.730  12.185 -0.1671 -0.3234 -0.0945
 1787POSM   AM120960  12.419  14.474  12.020 -0.1403  0.1911  0.5069
 1787POSM   AM220961  12.528  14.255  11.857  0.0503 -0.2216  0.1294
 1787POSM   T1A20962  11.993  14.312  11.780 -0.2582  0.1681 -0.3868
 1787POSM   C2A20963  11.967  14.262  11.334  0.3932 -0.3381  0.3662
 1787POSM   C3A20964  12.039  14.012  10.938 -0.1277 -0.0791  0.2895
 1787POSM   C1B20965  12.474  14.476  11.570  0.2009 -0.2352  0.1569
 1787POSM   D2B20966  12.548  14.613  11.145  0.0948 -0.2095  0.1305
 1787POSM   C3B20967  12.175  14.450  10.971  0.1273 -0.1713  0.5347
 1787POSM   C4B20968  11.702  14.379  10.914  0.2368 -0.0452  0.1037
 1788DOPS   CNO20969  21.159  15.237  12.843  0.0457  0.1475  0.0419
 1788DOPS   PO420970  21.046  15.302  12.481 -0.2158  0.2157  0.0389
 1788DOPS   GL120971  21.159  15.393  12.118 -0.1179  0.1957  0.0229
 1788DOPS   GL220972  21.350  15.120  12.121  0.3853 -0.1213  0.1523
 1788DOPS   C1A20973  21.323  15.805  11.965 -0.0819  0.3333  0.1125
 1788DOPS   D2A20974  21.177  16.196  11.818  0.2945  0.0174 -0.1128
 1788DOPS   C3A20975  21.195  16.255  11.349 -0.3323 -0.1247  0.0368
 1788DOPS   C4A20976  20.961  16.291  10.961 -0.0843 -0.1187  0.4040
 1788DOPS   C1B20977  21.617  14.759  12.040  0.1292  0.2528 -0.1455
 1788DOPS   D2B20978  21.961  14.582  11.805 -0.2992  0.0174  0.0621
 1788DOPS   C3B20979  22.183  14.890  11.496 -0.0181 -0.0711 -0.2622
 1788DOPS   C4B20980  22.431  15.241  11.743 -0.1257 -0.3033 -0.0313
 1789DOPC   NC320981  18.949  21.217  12.356  0.1221 -0.0439 -0.1131
 1789DOPC   PO420982  19.311  21.241  12.198 -0.0385 -0.2435 -0.1970
 1789DOPC   GL120983  19.066  21.090  11.932  0.0866 -0.3396 -0.2662
 1789DOPC   GL220984  19.083  20.873  11.844  0.1590  0.2011 -0.0168
 1789DOPC   C1A20985  18.712  21.159  11.708  0.0893  0.0086  0.2170
 1789DOPC   D2A20986  18.441  20.942  11.304  0.3415  0.0538 -0.0818
 1789DOPC   C3A20987  18.299  20.661  10.934 -0.0947 -0.0052 -0.1029
 1789DOPC   C4A20988  18.304  20.207  10.810  0.0556 -0.0091 -0.0906
 1789DOPC   C1B20989  19.239  20.599  11.469  0.2744 -0.0333 -0.0768
 1789DOPC   D2B20990  19.273  20.365  11.045  0.2436 -0.0733  0.0380
 1789DOPC   C3B20991  19.570  20.514  10.768 -0.0324  0.1264  0.0214
 1789DOPC   C4B20992  19.676  20.945  10.621 -0.0400 -0.0650  0.0095
 1790DOPS   CNO20993  12.817  21.761  12.109  0.0110 -0.3554 -0.0114
 1790DOPS   PO420994  12.687  21.474  12.352  0.1206  0.3950 -0.2242
 1790DOPS   GL120995  12.479  21.469  11.981 -0.2116  0.0286 -0.3437
 1790DOPS   GL220996  12.324  21.600  11.975  0.0424 -0.1592 -0.2662
 1790DOPS   C1A20997  12.381  21.239  11.637 -0.0280  0.2422 -0.2807
 1790DOPS   D2A20998  12.373  20.937  11.246  0.1209 -0.1593  0.2309
 1790DOPS   C3A20999  12.641  20.637  11.113  0.2832 -0.2283  0.0349
 1790DOPS   C4A21000  13.066  20.481  11.205 -0.0028 -0.2980  0.1218
 1790DOPS   C1B21001  12.434  21.742  11.542 -0.0242 -0.1499  0.3283
 1790DOPS   D2B21002  12.399  22.033  11.184  0.1060  0.2901 -0.3418
 1790DOPS   C3B21003  11.991  21.900  11.055 -0.0080 -0.0132 -0.2261
 1790DOPS   C4B21004  11.560  21.716  11.165  0.2800 -0.0753 -0.1625
 1791DOPE   NH321005  23.817  21.386  14.606  0.4260 -0.1376 -0.1429
 1791DOPE   PO421006  23.974  21.661  14.501  0.0180  0.1455 -0.1558
 1791DOPE   GL121007  23.965  21.742  14.141  0.2565 -0.0227  0.2568
 1791DOPE   GL221008  24.233  21.774  14.059 -0.0217  0.2785  0.0561
 1791DOPE   C1A21009  23.999  21.639  13.668 -0.3088 -0.2097  0.3681
 1791DOPE   D2A21010  23.702  21.668  13.379  0.0497  0.1988 -0.1628
 1791DOPE   C3A21011  23.655  21.716  12.935  0.1172 -0.0123  0.0382
 1791DOPE   C4A21012  23.728  22.038  12.544  0.0437  0.2188 -0.2438
 1791DOPE   C1B21013  24.623  21.813  13.869 -0.1528 -0.2173 -0.2367
 1791DOPE   D2B21014  24.994  21.821  13.610 -0.0431 -0.0858 -0.0503
 1791DOPE   C3B21015  24.812  22.203  13.441  0.4558 -0.2847  0.0861
 1791DOPE   C4B21016  24.661  22.404  13.027  0.0381  0.2534 -0.2407
 1792DOPC   NC321017  15.600  20.303  11.834 -0.0196  0.0729  0.1021
 1792DOPC   PO421018  15.188  20.325  11.836  0.0611 -0.0216  0.0817
 1792DOPC   GL121019  15.269  20.234  11.451 -0.1843  0.3173 -0.0014
 1792DOPC   GL221020  15.171  20.163  11.213  0.0098  0.2287  0.1212
 1792DOPC   C1A21021  15.690  20.081  11.291  0.1578  0.1876 -0.0428
 1792DOPC   D2A21022  16.106  20.220  11.360 -0.4468  0.2134  0.1128
 1792DOPC   C3A21023  16.396  19.851  11.156  0.0655  0.0117  0.2098
 1792DOPC   C4A21024  16.816  19.631  10.945  0.1532 -0.1649  0.2402
 1792DOPC   C1B21025  15.347  20.540  11.059  0.0511  0.0865 -0.4181
 1792DOPC   D2B21026  15.507  20.751  10.657  0.2254 -0.1056  0.0199
 1792DOPC   C3B21027  15.691  20.624  10.176 -0.2980  0.4009 -0.3767
 1792DOPC   C4B21028  15.987  20.900  10.013 -0.1235 -0.1577  0.1001
 1793DOPS   CNO21029  11.662  13.584  12.499  0.1735 -0.2593 -0.0836
 1793DOPS   PO421030  11.772  13.257  12.655 -0.1306 -0.1732  0.2784
 1793DOPS   GL121031  11.808  13.261  12.159  0.0220 -0.3358  0.0159
 1793DOPS   GL221032  11.523  13.294  12.137  0.1976  0.3265 -0.1884
 1793DOPS   C1A21033  11.973  13.040  11.819  0.0528 -0.4875 -0.0612
 1793DOPS   D2A21034  11.978  13.016  11.363  0.0464  0.2082 -0.1818
 1793DOPS   C3A21035  11.618  12.744  11.262 -0.2418  0.1882  0.1461
 1793DOPS   C4A21036  11.173  12.816  11.180 -0.3273  0.2286  0.4800
 1793DOPS   C1B21037  11.254  13.592  11.836 -0.1674  0.1026 -0.1438
 1793DOPS   D2B21038  11.156  13.752  11.450  0.1269  0.2909  0.0607
 1793DOPS   C3B21039  10.887  14.109  11.380  0.1634 -0.2609 -0.0227
 1793DOPS   C4B21040  10.885  14.368  11.024 -0.0964 -0.0282  0.4437
 1794DOPC   NC321041  17.685  13.385  12.402 -0.1145  0.1195 -0.0962
 1794DOPC   PO421042  17.697  13.333  11.992 -0.3214 -0.0749 -0.1205
 1794DOPC   GL121043  17.591  13.258  11.639 -0.2123  0.0411  0.2246
 1794DOPC   GL221044  17.596  13.477  11.409  0.0416 -0.0732 -0.1259
 1794DOPC   C1A21045  17.234  13.092  11.411  0.0954  0.0719 -0.1117
 1794DOPC   D2A21046  16.854  12.782  11.492 -0.2284  0.1548  0.1349
 1794DOPC   C3A21047  16.684  12.360  11.422 -0.1439 -0.1937 -0.0634
 1794DOPC   C4A21048  16.639  12.114  11.033 -0.0330 -0.2371  0.0722
 1794DOPC   C1B21049  17.473  13.669  11.043 -0.0388  0.1570  0.4692
 1794DOPC   D2B21050  17.556  13.490  10.636 -0.2154  0.1677 -0.0176
 1794DOPC   C3B21051  17.590  13.837  10.290  0.1762  0.3484  0.1421
 1794DOPC   C4B21052  17.167  14.014  10.141  0.0695  0.0225 -0.3482
 1795DOPE   NH321053  24.888  15.306  13.528  0.0395  0.0385 -0.0973
 1795DOPE   PO421054  24.739  15.542  13.360  0.2470 -0.1021 -0.0677
 1795DOPE   GL121055  24.834  15.414  12.960 -0.0399 -0.4942 -0.2673
 1795DOPE   GL221056  25.149  15.360  12.989 -0.1038  0.0516  0.4489
 1795DOPE   C1A21057  24.989  15.741  12.655  0.4164  0.1236  0.2652
 1795DOPE   D2A21058  25.279  16.005  12.344  0.0071  0.2643  0.2586
 1795DOPE   C3A21059  25.212  16.178  11.950 -0.1641  0.0419 -0.0566
 1795DOPE   C4A21060  25.010  16.376  11.579  0.0606  0.1816  0.0075
 1795DOPE   C1B21061  25.010  15.219  12.586 -0.2718  0.2390  0.1882
 1795DOPE   D2B21062  24.871  15.309  12.116  0.1399 -0.1216  0.0767
 1795DOPE   C3B21063  24.448  15.441  12.080 -0.0578  0.1037 -0.0550
 1795DOPE   C4B21064  24.257  15.935  12.097 -0.1531  0.3644  0.0297
 1796POSM   NC321065  17.427  18.809  11.514 -0.4107  0.0124 -0.0550
 1796POSM   PO421066  17.684  18.985  11.800 -0.2032 -0.0091  0.0413
 1796POSM   AM121067  18.002  19.120  11.733 -0.0015  0.0435 -0.1315
 1796POSM   AM221068  18.126  19.107  11.473  0.3300 -0.1412 -0.0076
 1796POSM   T1A21069  18.230  19.562  11.677 -0.1328  0.1058  0.1037
 1796POSM   C2A21070  18.715  19.676  11.614 -0.0417 -0.2884 -0.3670
 1796POSM   C3A21071  19.143  19.503  11.463  0.1557 -0.1752  0.3015
 1796POSM   C1B21072  18.144  19.381  11.248  0.0046 -0.0398 -0.3062
 1796POSM   D2B21073  18.233  19.441  10.827 -0.0395  0.0060  0.1675
 1796POSM   C3B21074  18.486  19.727  10.587 -0.0965 -0.0682  0.2021
 1796POSM   C4B21075  18.932  19.807  10.503  0.0347  0.2272  0.2147
 1797DOPE   NH321076  15.806  21.663  11.839 -0.1210  0.0651 -0.1686
 1797DOPE   PO421077  16.063  21.768  11.642  0.1179 -0.1293 -0.1201
 1797DOPE   GL121078  16.031  21.915  11.349 -0.0975 -0.1765 -0.0061
 1797DOPE   GL221079  15.754  21.930  11.257  0.2042  0.1685  0.1751
 1797DOPE   C1A21080  16.128  21.556  11.009  0.2816 -0.1217 -0.1502
 1797DOPE   D2A21081  16.317  21.215  10.787  0.2004 -0.1668  0.0282
 1797DOPE   C3A21082  16.413  21.106  10.327  0.3700 -0.2313  0.0550
 1797DOPE   C4A21083  16.632  20.900  10.005  0.2903 -0.1977  0.1394
 1797DOPE   C1B21084  16.060  22.125  10.936  0.0368  0.1843 -0.2156
 1797DOPE   D2B21085  16.229  22.490  10.676  0.1252 -0.0133  0.3574
 1797DOPE   C3B21086  16.396  22.709  10.289 -0.0350  0.0801 -0.1526
 1797DOPE   C4B21087  16.289  22.930   9.892  0.2836 -0.2483 -0.3958
 1798POSM   NC321088  18.356  21.515  12.529 -0.1664 -0.0810 -0.0188
 1798POSM   PO421089  18.073  21.292  12.462 -0.2871 -0.0857 -0.2687
 1798POSM   AM121090  18.031  21.398  12.139 -0.1650  0.4145  0.0531
 1798POSM   AM221091  17.967  21.253  11.937 -0.1968 -0.3660 -0.1283
 1798POSM   T1A21092  18.026  21.655  11.687 -0.2422 -0.3470  0.0416
 1798POSM   C2A21093  17.824  21.743  11.255  0.0992 -0.0238  0.2813
 1798POSM   C3A21094  17.389  21.605  11.085 -0.6329  0.0378 -0.2245
 1798POSM   C1B21095  18.236  21.229  11.704 -0.2761  0.0526  0.0227
 1798POSM   D2B21096  18.350  21.469  11.325  0.0872 -0.2340  0.0485
 1798POSM   C3B21097  18.415  21.287  10.919  0.2013  0.0662  0.0339
 1798POSM   C4B21098  18.688  21.015  10.600  0.0756 -0.1196  0.0755
 1799DOPC   NC321099  22.586  16.748  12.985 -0.0740  0.1311 -0.1829
 1799DOPC   PO421100  22.950  16.653  13.065 -0.1670 -0.1154  0.0875
 1799DOPC   GL121101  23.155  16.868  12.731  0.0124  0.1601  0.0565
 1799DOPC   GL221102  23.374  16.870  12.886  0.1878  0.0312 -0.1022
 1799DOPC   C1A21103  23.259  17.257  12.535 -0.1388  0.0363 -0.0798
 1799DOPC   D2A21104  23.291  17.500  12.193 -0.0462 -0.2186 -0.3160
 1799DOPC   C3A21105  23.634  17.442  11.924  0.0814  0.0564 -0.1229
 1799DOPC   C4A21106  23.980  17.658  11.858  0.2093  0.1901 -0.1695
 1799DOPC   C1B21107  23.555  16.755  12.526  0.0693 -0.1892  0.1347
 1799DOPC   D2B21108  23.441  16.366  12.206  0.0044  0.0981  0.0246
 1799DOPC   C3B21109  23.336  16.485  11.789 -0.0456 -0.0079 -0.1509
 1799DOPC   C4B21110  23.229  16.264  11.411 -0.2770 -0.3405 -0.0857
 1800DOPE   NH321111  23.808  19.138  13.584 -0.1984  0.3353  0.0722
 1800DOPE   PO421112  23.911  19.289  13.862 -0.2142 -0.1930  0.0485
 1800DOPE   GL121113  24.097  19.484  13.593 -0.0289 -0.0309  0.1651
 1800DOPE   GL221114  24.147  19.783  13.659  0.1557  0.2522  0.0018
 1800DOPE   C1A21115  23.945  19.662  13.184  0.1051 -0.1478  0.1338
 1800DOPE   D2A21116  23.894  19.533  12.699  0.1721 -0.0801  0.2208
 1800DOPE   C3A21117  24.145  19.469  12.253 -0.0220  0.4530 -0.0072
 1800DOPE   C4A21118  24.417  19.207  11.996  0.3615 -0.0421  0.1574
 1800DOPE   C1B21119  24.355  20.215  13.561 -0.3374  0.1642 -0.2110
 1800DOPE   D2B21120  24.567  20.475  13.259  0.0541  0.0559 -0.2517
 1800DOPE   C3B21121  24.681  20.489  12.836  0.1000  0.0295  0.0544
 1800DOPE   C4B21122  24.439  20.367  12.441 -0.0618 -0.1053 -0.3736
 1801POSM   NC321123  18.108  10.903  12.421  0.0644  0.3146  0.2117
 1801POSM   PO421124  18.099  11.276  12.520 -0.1981  0.0739  0.2877
 1801POSM   AM121125  17.844  11.231  12.328 -0.2309 -0.1383  0.1454
 1801POSM   AM221126  17.739  11.059  12.123 -0.1756  0.2193 -0.5266
 1801POSM   T1A21127  17.623  11.521  12.000 -0.2197  0.1827 -0.1877
 1801POSM   C2A21128  17.513  11.729  11.625 -0.1917 -0.0753  0.2283
 1801POSM   C3A21129  17.417  11.695  11.145 -0.0499 -0.1134 -0.0175
 1801POSM   C1B21130  17.588  10.852  11.889 -0.1378  0.0781 -0.0244
 1801POSM   D2B21131  17.331  10.593  11.588 -0.1036  0.0291  0.0061
 1801POSM   C3B21132  17.207  10.244  11.294  0.0524 -0.2238 -0.2009
 1801POSM   C4B21133  16.780  10.061  11.207  0.0094  0.1602 -0.2311
 1802DOPE   NH321134  22.600  23.197  14.306  0.1484  0.0095 -0.0804
 1802DOPE   PO421135  22.425  23.194  14.051  0.3129  0.3897  0.0803
 1802DOPE   GL121136  22.460  23.198  13.622 -0.1475 -0.2632  0.2057
 1802DOPE   GL221137  22.301  23.443  13.584 -0.0964  0.1314 -0.1185
 1802DOPE   C1A21138  22.679  23.142  13.218 -0.2334  0.0165 -0.1973
 1802DOPE   D2A21139  22.883  23.016  12.794 -0.1375  0.0348  0.3621
 1802DOPE   C3A21140  22.573  22.858  12.471 -0.1189  0.0173 -0.1891
 1802DOPE   C4A21141  22.130  22.780  12.499 -0.1283 -0.2433 -0.1102
 1802DOPE   C1B21142  22.705  23.648  13.405 -0.1762  0.0513  0.2253
 1802DOPE   D2B21143  23.036  23.954  13.298  0.0559 -0.1741 -0.0741
 1802DOPE   C3B21144  23.261  23.930  12.903 -0.0600  0.1246  0.1077
 1802DOPE   C4B21145  23.524  23.798  12.602  0.0840 -0.0483 -0.0466
 1803DOPE   NH321146  11.131  14.294  12.424  0.1937 -0.0925  0.0975
 1803DOPE   PO421147  11.353  14.091  12.554 -0.2069 -0.1593 -0.1315
 1803DOPE   GL121148  11.477  13.963  12.140  0.2051 -0.1833 -0.4550
 1803DOPE   GL221149  11.570  14.261  12.072  0.1757  0.1350 -0.1288
 1803DOPE   C1A21150  11.565  13.951  11.673 -0.1804  0.2418 -0.0581
 1803DOPE   D2A21151  11.683  13.832  11.281  0.1864 -0.0945  0.0911
 1803DOPE   C3A21152  11.702  13.658  10.887  0.0352  0.1438  0.2182
 1803DOPE   C4A21153  11.633  13.917  10.534  0.0028  0.2360 -0.1247
 1803DOPE   C1B21154  11.178  14.330  11.834  0.0690 -0.0590 -0.2331
 1803DOPE   D2B21155  11.049  14.608  11.545  0.0625  0.0313  0.2195
 1803DOPE   C3B21156  11.247  14.746  11.130 -0.0107 -0.0704 -0.0364
 1803DOPE   C4B21157  11.181  15.124  10.847 -0.1142  0.0476 -0.0559
 1804DOPE   NH321158  23.011  19.185  13.077  0.0892  0.0001  0.0761
 1804DOPE   PO421159  22.842  19.310  12.842 -0.0627 -0.0852 -0.1687
 1804DOPE   GL121160  22.762  19.016  12.611 -0.0657 -0.0410  0.2204
 1804DOPE   GL221161  22.755  19.174  12.340 -0.0527  0.0490 -0.1084
 1804DOPE   C1A21162  22.927  18.608  12.324 -0.0007 -0.0037 -0.3638
 1804DOPE   D2A21163  23.005  18.348  11.935 -0.0826  0.0323 -0.2522
 1804DOPE   C3A21164  22.644  18.513  11.680 -0.2216 -0.0304 -0.0483
 1804DOPE   C4A21165  22.216  18.692  11.731 -0.2688  0.3055  0.3137
 1804DOPE   C1B21166  23.148  19.203  12.137  0.1342  0.1119 -0.0818
 1804DOPE   D2B21167  23.335  19.167  11.724 -0.2320 -0.1798  0.0424
 1804DOPE   C3B21168  23.473  19.605  11.583  0.1885 -0.2294 -0.0782
 1804DOPE   C4B21169  23.574  20.088  11.656 -0.2366 -0.1012 -0.3299
 1805DOPE   NH321170   9.441  12.280  13.418 -0.0698  0.3703  0.3512
 1805DOPE   PO421171   9.315  12.576  13.359  0.0415 -0.0793  0.3067
 1805DOPE   GL121172   9.287  12.359  13.003 -0.2181  0.0735 -0.3827
 1805DOPE   GL221173   9.551  12.505  12.938  0.1425  0.0544 -0.1154
 1805DOPE   C1A21174   9.338  12.250  12.582  0.1567  0.2258  0.0840
 1805DOPE   D2A21175   9.238  12.238  12.145 -0.2034  0.0366  0.0339
 1805DOPE   C3A21176   9.489  12.146  11.777 -0.1621  0.3049 -0.1816
 1805DOPE   C4A21177   9.719  12.255  11.410 -0.1226 -0.0911  0.0533
 1805DOPE   C1B21178   9.571  12.684  12.525 -0.1526  0.2071 -0.0930
 1805DOPE   D2B21179   9.741  13.068  12.245  0.0811  0.0746 -0.1208
 1805DOPE   C3B21180   9.564  13.470  12.290  0.0136 -0.0438 -0.0078
 1805DOPE   C4B21181   9.294  13.818  12.077  0.0931 -0.0116  0.0374
 1806POSM   NC321182  18.142  14.371  11.374  0.2291 -0.0468 -0.2708
 1806POSM   PO421183  18.423  14.669  11.351  0.2597  0.0597 -0.1926
 1806POSM   AM121184  18.568  14.817  11.102 -0.0398 -0.0440  0.2634
 1806POSM   AM221185  18.818  14.740  10.929  0.1726 -0.1780 -0.0136
 1806POSM   T1A21186  18.718  15.242  10.946  0.3084  0.1915 -0.0670
 1806POSM   C2A21187  18.997  15.596  10.964 -0.0515 -0.0786  0.3511
 1806POSM   C3A21188  19.121  15.909  10.677 -0.3381  0.0110 -0.1066
 1806POSM   C1B21189  18.670  14.662  10.674 -0.2455 -0.1815 -0.0395
 1806POSM   D2B21190  18.451  14.310  10.417 -0.1602 -0.0403  0.0497
 1806POSM   C3B21191  18.098  14.275  10.720 -0.2186 -0.1074 -0.1683
 1806POSM   C4B21192  17.762  14.643  10.817  0.0410  0.1264  0.0977
 1807DOPE   NH321193  21.905  18.260  12.797  0.1527  0.0398  0.0922
 1807DOPE   PO421194  21.739  18.324  12.577 -0.1033 -0.0928  0.0058
 1807DOPE   GL121195  21.895  18.121  12.307 -0.0053 -0.2058 -0.0028
 1807DOPE   GL221196  22.218  18.165  12.367 -0.0929  0.0367  0.0406
 1807DOPE   C1A21197  22.003  18.272  11.907  0.0636 -0.1616 -0.0178
 1807DOPE   D2A21198  21.902  18.181  11.468  0.1509 -0.3843  0.0145
 1807DOPE   C3A21199  21.466  18.255  11.261 -0.0903 -0.1562  0.3647
 1807DOPE   C4A21200  21.246  18.329  10.860 -0.1746 -0.1622  0.0998
 1807DOPE   C1B21201  22.470  18.162  11.977  0.0775 -0.0557  0.2123
 1807DOPE   D2B21202  22.714  17.966  11.625  0.0040  0.0606 -0.0505
 1807DOPE   C3B21203  22.718  17.512  11.656  0.3424 -0.2863 -0.0894
 1807DOPE   C4B21204  22.769  17.073  11.692 -0.2132 -0.0050 -0.0078
 1808DOPE   NH321205  24.292  22.913  14.940 -0.1295 -0.0269 -0.0383
 1808DOPE   PO421206  24.482  23.180  14.928  0.1525 -0.1729 -0.0220
 1808DOPE   GL121207  24.565  23.318  14.650 -0.0223 -0.1073 -0.1987
 1808DOPE   GL221208  24.513  23.067  14.405 -0.1908  0.1032  0.0978
 1808DOPE   C1A21209  24.811  23.605  14.424 -0.2172  0.0306 -0.2808
 1808DOPE   D2A21210  24.789  23.848  14.075  0.1332 -0.2008  0.1669
 1808DOPE   C3A21211  25.102  24.147  13.930  0.3457 -0.2655 -0.3268
 1808DOPE   C4A21212  25.269  24.466  13.736 -0.0946 -0.4484 -0.0341
 1808DOPE   C1B21213  24.725  23.277  14.053 -0.4680 -0.2023  0.0813
 1808DOPE   D2B21214  25.152  23.486  13.973  0.0022 -0.0355  0.1099
 1808DOPE   C3B21215  25.426  23.131  13.935  0.5046 -0.1830 -0.1471
 1808DOPE   C4B21216  25.877  23.101  13.771  0.1158  0.1702  0.0865
 1809POSM   NC321217  20.510  14.815  11.861 -0.0511  0.0556  0.0265
 1809POSM   PO421218  20.327  15.134  11.963 -0.1270 -0.2878 -0.2309
 1809POSM   AM121219  20.315  15.238  11.652  0.2495 -0.3116 -0.1224
 1809POSM   AM221220  20.483  15.436  11.500 -0.1041 -0.2066 -0.1814
 1809POSM   T1A21221  20.177  15.298  11.151  0.3963  0.2811  0.3156
 1809POSM   C2A21222  19.946  15.042  10.793  0.4235 -0.3553  0.0246
 1809POSM   C3A21223  20.097  14.832  10.416  0.0330 -0.4155  0.0883
 1809POSM   C1B21224  20.760  15.351  11.352  0.1071  0.1982  0.0897
 1809POSM   D2B21225  21.122  15.281  11.003 -0.0750  0.0478 -0.0914
 1809POSM   C3B21226  21.127  15.147  10.589 -0.0369 -0.1226  0.2291
 1809POSM   C4B21227  21.317  15.056  10.179 -0.2815  0.4733 -0.0156
 1810DOPC   NC321228  16.668  20.249  12.573  0.1787 -0.0182 -0.1905
 1810DOPC   PO421229  16.696  20.281  12.213 -0.0790  0.2090 -0.0574
 1810DOPC   GL121230  16.834  19.973  11.982 -0.2025  0.2917 -0.5086
 1810DOPC   GL221231  17.118  19.858  12.015  0.3368  0.0562  0.0529
 1810DOPC   C1A21232  16.929  19.819  11.558  0.0244  0.0078  0.1113
 1810DOPC   D2A21233  17.223  19.620  11.306 -0.1300  0.3331 -0.1227
 1810DOPC   C3A21234  17.320  19.954  10.983  0.1035  0.0817 -0.1372
 1810DOPC   C4A21235  17.344  20.421  11.125  0.0203 -0.0978  0.4200
 1810DOPC   C1B21236  17.482  19.716  11.798  0.0978 -0.2296  0.1743
 1810DOPC   D2B21237  17.600  19.335  11.528 -0.0375 -0.0695  0.1417
 1810DOPC   C3B21238  17.663  19.495  11.083 -0.0614 -0.2995  0.4127
 1810DOPC   C4B21239  17.760  19.451  10.588 -0.2714  0.2180  0.3237
 1811DOPE   NH321240  12.999  13.314  12.447 -0.2072 -0.4318  0.0212
 1811DOPE   PO421241  13.146  13.531  12.300 -0.0104  0.0766 -0.2370
 1811DOPE   GL121242  12.994  13.703  11.992  0.2631  0.3025 -0.0059
 1811DOPE   GL221243  13.009  14.038  11.895  0.0519  0.2292 -0.0720
 1811DOPE   C1A21244  12.947  13.483  11.615  0.2718  0.1646 -0.0118
 1811DOPE   D2A21245  13.145  13.306  11.186 -0.1344 -0.2295 -0.2688
 1811DOPE   C3A21246  12.874  12.894  10.996 -0.3636  0.0228  0.3692
 1811DOPE   C4A21247  12.778  12.440  10.971 -0.1971  0.0862  0.0418
 1811DOPE   C1B21248  13.277  13.984  11.483  0.2748  0.0083  0.4364
 1811DOPE   D2B21249  13.053  14.035  11.026 -0.1295  0.1211 -0.2246
 1811DOPE   C3B21250  13.262  14.153  10.631 -0.0159 -0.2932 -0.3608
 1811DOPE   C4B21251  13.492  14.288  10.222 -0.2550 -0.2708  0.2761
 1812DOPC   NC321252  23.987  21.068  13.692  0.0435  0.3224 -0.0545
 1812DOPC   PO421253  23.990  20.734  13.926  0.1489 -0.0021 -0.4222
 1812DOPC   GL121254  24.014  20.561  13.573  0.2451 -0.0511 -0.1897
 1812DOPC   GL221255  23.741  20.598  13.488 -0.0160 -0.0879 -0.0708
 1812DOPC   C1A21256  24.025  20.417  13.140  0.1127 -0.1703  0.3191
 1812DOPC   D2A21257  23.886  20.399  12.703 -0.0160  0.1780  0.3282
 1812DOPC   C3A21258  23.430  20.514  12.539 -0.0517 -0.1390  0.1105
 1812DOPC   C4A21259  23.230  20.739  12.173  0.1232 -0.0633  0.1274
 1812DOPC   C1B21260  23.672  20.985  13.257  0.0988 -0.0504 -0.0091
 1812DOPC   D2B21261  24.023  21.328  13.153  0.1536  0.3622 -0.1789
 1812DOPC   C3B21262  24.328  21.311  12.815 -0.1276  0.2470  0.0691
 1812DOPC   C4B21263  24.619  21.093  12.595  0.0127  0.0334  0.0642
 1813POSM   NC321264  16.007  11.366  12.582  0.0045 -0.0403  0.2441
 1813POSM   PO421265  15.649  11.369  12.778 -0.0185 -0.0984 -0.2374
 1813POSM   AM121266  15.489  11.290  12.476  0.0261 -0.1674  0.0575
 1813POSM   AM221267  15.383  11.130  12.291  0.2631 -0.0456 -0.1427
 1813POSM   T1A21268  15.357  11.594  12.062 -0.0419 -0.0255 -0.2671
 1813POSM   C2A21269  15.047  11.694  11.732  0.1250  0.4094  0.1641
 1813POSM   C3A21270  14.679  11.566  11.476 -0.1709  0.1423  0.0138
 1813POSM   C1B21271  15.098  11.160  12.089 -0.1988  0.0593  0.0203
 1813POSM   D2B21272  14.876  11.142  11.672 -0.0869 -0.1416  0.0023
 1813POSM   C3B21273  15.101  11.237  11.262  0.2803  0.0732 -0.2873
 1813POSM   C4B21274  15.043  11.594  11.019 -0.1471 -0.0474  0.0358
 1814DOPE   NH321275  23.140  15.153  13.176 -0.3112 -0.0521  0.0095
 1814DOPE   PO421276  23.119  15.481  13.079  0.0259 -0.4400 -0.0766
 1814DOPE   GL121277  23.136  15.686  12.752  0.1461  0.1363 -0.3148
 1814DOPE   GL221278  22.942  15.621  12.570  0.1137  0.3442 -0.1960
 1814DOPE   C1A21279  23.362  15.994  12.512 -0.1073 -0.0590 -0.0782
 1814DOPE   D2A21280  23.808  15.986  12.279  0.0539  0.0698 -0.0488
 1814DOPE   C3A21281  23.754  16.227  11.841 -0.1121  0.2700 -0.1268
 1814DOPE   C4A21282  23.838  16.311  11.438 -0.0945 -0.0849 -0.1696
 1814DOPE   C1B21283  22.978  15.974  12.202  0.1482 -0.0490  0.3317
 1814DOPE   D2B21284  22.998  16.045  11.747 -0.0846 -0.0589 -0.2523
 1814DOPE   C3B21285  22.715  16.265  11.403 -0.2608 -0.0165  0.2341
 1814DOPE   C4B21286  22.547  16.443  11.031  0.2159 -0.0085  0.1825
 1815DOPE   NH321287  24.219  14.524  13.825 -0.1592 -0.1433  0.1005
 1815DOPE   PO421288  24.076  14.672  13.583  0.2493  0.1837  0.1777
 1815DOPE   GL121289  23.888  14.554  13.296  0.1542 -0.1823 -0.1160
 1815DOPE   GL221290  24.028  14.331  13.069 -0.3657  0.0586 -0.0949
 1815DOPE   C1A21291  23.762  14.717  12.844 -0.1931  0.0452  0.3194
 1815DOPE   D2A21292  24.062  14.931  12.579  0.0505 -0.1776 -0.1220
 1815DOPE   C3A21293  23.939  15.080  12.124 -0.1321  0.1777 -0.1196
 1815DOPE   C4A21294  23.954  15.104  11.630  0.0851  0.1460  0.2166
 1815DOPE   C1B21295  24.030  14.344  12.607 -0.0757 -0.0379  0.1874
 1815DOPE   D2B21296  24.284  14.053  12.298 -0.0743  0.3343 -0.2740
 1815DOPE   C3B21297  24.072  14.131  11.920  0.0797  0.0770 -0.1019
 1815DOPE   C4B21298  23.846  14.192  11.444 -0.0895 -0.0454  0.0843
 1816POSM   NC321299  19.098  14.723  11.455 -0.1553 -0.0334  0.0632
 1816POSM   PO421300  19.179  14.992  11.731 -0.3344  0.1740 -0.1142
 1816POSM   AM121301  19.411  15.092  11.520  0.1461  0.0407  0.0655
 1816POSM   AM221302  19.475  14.979  11.287 -0.2458 -0.0651 -0.3842
 1816POSM   T1A21303  19.533  15.473  11.168  0.2924  0.3644  0.1958
 1816POSM   C2A21304  19.579  15.650  10.728 -0.3204 -0.0253 -0.1090
 1816POSM   C3A21305  19.798  15.608  10.341  0.1258  0.0631 -0.0749
 1816POSM   C1B21306  19.229  15.072  11.073 -0.0999 -0.0112 -0.1016
 1816POSM   D2B21307  19.074  15.040  10.632 -0.1201 -0.2020  0.2755
 1816POSM   C3B21308  18.712  15.005  10.338 -0.0242  0.0106 -0.1372
 1816POSM   C4B21309  18.619  15.082   9.898  0.0476  0.2170 -0.1471
 1817DOPS   CNO21310  19.801  14.001  12.198 -0.0404  0.0181  0.2439
 1817DOPS   PO421311  19.948  13.663  12.169 -0.2348  0.1333  0.1211
 1817DOPS   GL121312  20.265  13.618  11.946 -0.1948  0.1311 -0.5097
 1817DOPS   GL221313  20.096  13.558  11.681 -0.2769 -0.0985  0.3078
 1817DOPS   C1A21314  20.550  13.535  11.571 -0.2464 -0.2702  0.0048
 1817DOPS   D2A21315  20.844  13.293  11.301  0.2526 -0.3786 -0.0837
 1817DOPS   C3A21316  20.984  12.975  11.554 -0.1411 -0.0318  0.0538
 1817DOPS   C4A21317  21.392  12.829  11.699  0.2083 -0.0751  0.2909
 1817DOPS   C1B21318  20.120  13.880  11.327 -0.0842  0.3542 -0.0395
 1817DOPS   D2B21319  19.881  14.145  11.026  0.1638  0.0988  0.0758
 1817DOPS   C3B21320  19.500  14.065  10.830  0.0088 -0.0935 -0.0997
 1817DOPS   C4B21321  19.085  14.026  10.657 -0.1834  0.1821 -0.5161
 1818DOPC   NC321322  15.520  23.913  12.718 -0.1225  0.2708  0.1872
 1818DOPC   PO421323  15.921  23.908  12.702  0.2080 -0.1209  0.1131
 1818DOPC   GL121324  15.838  23.795  12.311 -0.3246  0.5941 -0.0764
 1818DOPC   GL221325  15.594  23.944  12.231  0.0848  0.0031  0.1740
 1818DOPC   C1A21326  16.228  23.845  12.044  0.0663  0.4032  0.0769
 1818DOPC   D2A21327  16.615  24.058  11.864 -0.1013 -0.1158  0.3641
 1818DOPC   C3A21328  16.606  24.335  11.425  0.3373 -0.2603  0.0091
 1818DOPC   C4A21329  16.170  24.437  11.208  0.0275  0.1587 -0.0164
 1818DOPC   C1B21330  15.842  24.168  11.982  0.3156  0.3152  0.1737
 1818DOPC   D2B21331  16.211  24.278  11.687 -0.0468  0.0903  0.0921
 1818DOPC   C3B21332  16.317  23.895  11.474  0.0614 -0.0355 -0.1192
 1818DOPC   C4B21333  16.563  23.530  11.538  0.1653  0.1112  0.0827
 1819POSM   NC321334  20.685  19.732  13.226  0.2986  0.3891 -0.0652
 1819POSM   PO421335  20.842  19.951  12.941 -0.1268 -0.1625 -0.0557
 1819POSM   AM121336  20.788  19.810  12.657 -0.4242 -0.2194 -0.0330
 1819POSM   AM221337  20.960  19.839  12.401 -0.4711  0.1354 -0.0769
 1819POSM   T1A21338  20.899  19.357  12.431 -0.2308  0.1861  0.1661
 1819POSM   C2A21339  20.890  18.955  12.192  0.1802  0.3583 -0.2218
 1819POSM   C3A21340  20.764  18.861  11.759 -0.0951  0.0492 -0.4330
 1819POSM   C1B21341  21.098  19.724  12.121  0.2850  0.4430 -0.2289
 1819POSM   D2B21342  21.352  19.752  11.726 -0.1537 -0.1066 -0.0136
 1819POSM   C3B21343  21.060  19.584  11.458 -0.2094 -0.1614  0.3368
 1819POSM   C4B21344  20.861  19.172  11.391 -0.0899 -0.2058 -0.0908
 1820DOPE   NH321345  19.442  12.347  12.129  0.0384 -0.1130 -0.2157
 1820DOPE   PO421346  19.220  12.086  12.107  0.1608  0.1342  0.0535
 1820DOPE   GL121347  19.285  12.154  11.718  0.0607 -0.0241  0.0840
 1820DOPE   GL221348  19.291  12.452  11.645  0.0907  0.0405  0.0748
 1820DOPE   C1A21349  18.965  12.246  11.392 -0.0749 -0.3160  0.0377
 1820DOPE   D2A21350  18.827  12.033  10.990 -0.1376  0.0969  0.2156
 1820DOPE   C3A21351  18.543  12.047  10.656  0.0340  0.1657  0.1869
 1820DOPE   C4A21352  18.263  12.266  10.268  0.2912  0.0278 -0.1324
 1820DOPE   C1B21353  19.399  12.400  11.205 -0.1684 -0.2938  0.1829
 1820DOPE   D2B21354  19.250  12.309  10.776 -0.1975 -0.1162  0.0687
 1820DOPE   C3B21355  19.481  12.113  10.465  0.0175  0.0529 -0.3571
 1820DOPE   C4B21356  19.785  12.069  10.130 -0.1586 -0.0343 -0.1694
 1821DOPS   CNO21357  20.324  11.078  12.316 -0.0056  0.3805  0.2401
 1821DOPS   PO421358  20.545  11.376  12.359  0.1886  0.0692 -0.2673
 1821DOPS   GL121359  20.751  11.373  12.022 -0.0227  0.0834 -0.1291
 1821DOPS   GL221360  20.624  11.482  11.852 -0.2031 -0.1899  0.1974
 1821DOPS   C1A21361  21.105  11.492  11.717  0.0740  0.0259  0.1738
 1821DOPS   D2A21362  21.523  11.498  11.511 -0.3072  0.1980 -0.1763
 1821DOPS   C3A21363  21.743  11.158  11.307 -0.0040 -0.0168  0.3191
 1821DOPS   C4A21364  21.645  10.713  11.213 -0.1319  0.2148 -0.0394
 1821DOPS   C1B21365  20.782  11.861  11.683 -0.1971  0.1197  0.0657
 1821DOPS   D2B21366  20.715  12.142  11.371 -0.2274 -0.3007 -0.0813
 1821DOPS   C3B21367  20.846  11.956  10.973  0.1853 -0.0055  0.1904
 1821DOPS   C4B21368  20.722  11.912  10.557 -0.3315 -0.1773 -0.0535
 1822DOPS   CNO21369  19.921  21.849  12.600 -0.1527  0.4158 -0.2562
 1822DOPS   PO421370  19.714  21.518  12.659  0.0179  0.0033  0.0130
 1822DOPS   GL121371  19.832  21.381  12.380  0.0871  0.1002  0.2021
 1822DOPS   GL221372  20.102  21.502  12.321 -0.1189  0.2526  0.0114
 1822DOPS   C1A21373  19.837  21.516  11.894 -0.1304  0.0972  0.0108
 1822DOPS   D2A21374  19.815  21.444  11.449 -0.0588  0.2419  0.1628
 1822DOPS   C3A21375  19.570  21.662  11.199  0.2424 -0.3588  0.1828
 1822DOPS   C4A21376  19.415  21.963  10.841 -0.2070 -0.1933  0.0437
 1822DOPS   C1B21377  20.281  21.294  11.901  0.0159  0.0799 -0.1574
 1822DOPS   D2B21378  20.417  21.363  11.427  0.1199  0.0732  0.2861
 1822DOPS   C3B21379  20.121  21.412  11.084 -0.1377  0.1059 -0.0699
 1822DOPS   C4B21380  19.752  21.118  11.061  0.0665 -0.0456 -0.2333
 1823DOPE   NH321381  24.858  14.354  13.506 -0.2003 -0.1714  0.0154
 1823DOPE   PO421382  24.546  14.444  13.361 -0.0010 -0.0856  0.0059
 1823DOPE   GL121383  24.626  14.488  12.981 -0.1000  0.1133  0.4866
 1823DOPE   GL221384  24.738  14.224  12.984 -0.0519 -0.1665 -0.2836
 1823DOPE   C1A21385  24.557  14.556  12.520 -0.1753  0.2225 -0.2726
 1823DOPE   D2A21386  24.873  14.652  12.154 -0.2871  0.1772 -0.0054
 1823DOPE   C3A21387  24.855  14.729  11.674 -0.0446  0.0666 -0.5444
 1823DOPE   C4A21388  25.104  14.870  11.352  0.1854  0.1127  0.0908
 1823DOPE   C1B21389  24.971  14.177  12.557  0.0831 -0.1513 -0.0664
 1823DOPE   D2B21390  25.271  14.350  12.234  0.0887  0.1777  0.1326
 1823DOPE   C3B21391  25.682  14.421  12.042  0.1369 -0.1113  0.1834
 1823DOPE   C4B21392  26.085  14.561  11.844  0.0318  0.0142  0.2299
 1824DOPC   NC321393  18.369  12.470  11.833 -0.0846 -0.0814 -0.0103
 1824DOPC   PO421394  18.523  12.796  12.017 -0.0567  0.3405  0.0542
 1824DOPC   GL121395  18.388  12.907  11.597 -0.3268 -0.3139 -0.1942
 1824DOPC   GL221396  18.188  13.073  11.451 -0.2650  0.3114 -0.0266
 1824DOPC   C1A21397  18.638  12.981  11.180  0.1562 -0.2242 -0.1769
 1824DOPC   D2A21398  18.697  13.144  10.730  0.0163 -0.0719  0.0638
 1824DOPC   C3A21399  18.955  13.527  10.598  0.1224 -0.2886  0.1366
 1824DOPC   C4A21400  19.275  13.706  10.347 -0.2744  0.0292 -0.0355
 1824DOPC   C1B21401  18.047  13.324  11.092 -0.1711 -0.1093  0.0269
 1824DOPC   D2B21402  18.054  13.167  10.626  0.0884  0.1476 -0.2449
 1824DOPC   C3B21403  17.789  12.780  10.739  0.1301  0.1138  0.3040
 1824DOPC   C4B21404  17.428  12.514  10.658 -0.3466  0.1102 -0.0770
 1825DOPS   CNO21405  23.128  18.984  13.756  0.0477 -0.0188  0.0664
 1825DOPS   PO421406  23.342  18.958  13.438  0.1321  0.0078  0.2316
 1825DOPS   GL121407  23.530  18.857  13.090  0.0167  0.3644 -0.4868
 1825DOPS   GL221408  23.309  18.831  12.861  0.4653 -0.1904 -0.1104
 1825DOPS   C1A21409  23.996  18.752  13.033  0.0574 -0.0398 -0.1435
 1825DOPS   D2A21410  24.420  18.759  12.967 -0.2067  0.0092  0.1933
 1825DOPS   C3A21411  24.616  19.195  12.906  0.0864  0.1833  0.0801
 1825DOPS   C4A21412  24.749  19.591  12.815 -0.0383  0.1147  0.2993
 1825DOPS   C1B21413  23.653  19.043  12.656  0.1644 -0.4457  0.0462
 1825DOPS   D2B21414  23.689  19.293  12.267 -0.0996 -0.3766 -0.0480
 1825DOPS   C3B21415  23.814  19.321  11.855 -0.0358  0.2083 -0.2900
 1825DOPS   C4B21416  24.179  19.317  11.599  0.2073  0.0095 -0.0528
 1826DOPE   NH321417  13.848  23.322  12.604 -0.0974 -0.1951 -0.0299
 1826DOPE   PO421418  14.090  23.410  12.449 -0.1768  0.1627 -0.0103
 1826DOPE   GL121419  14.082  23.351  12.087  0.1454 -0.1675  0.1337
 1826DOPE   GL221420  14.249  23.186  11.933  0.1446  0.0391  0.3715
 1826DOPE   C1A21421  13.934  23.522  11.658  0.0698 -0.5158  0.2276
 1826DOPE   D2A21422  13.690  23.292  11.321 -0.0294  0.1787  0.1462
 1826DOPE   C3A21423  13.696  23.455  10.886 -0.2296  0.2581  0.2531
 1826DOPE   C4A21424  13.965  23.625  10.588 -0.0165  0.3200 -0.3753
 1826DOPE   C1B21425  14.391  23.336  11.490 -0.0851 -0.1302  0.0613
 1826DOPE   D2B21426  14.643  23.293  11.087  0.0450 -0.1813 -0.0221
 1826DOPE   C3B21427  14.872  22.962  10.860  0.0034  0.3984 -0.2582
 1826DOPE   C4B21428  15.065  22.659  10.573 -0.0441 -0.2668 -0.2128
 1827DOPE   NH321429  19.864  18.872  12.549  0.3849 -0.0885 -0.0981
 1827DOPE   PO421430  20.049  19.101  12.663  0.1389  0.1738  0.0827
 1827DOPE   GL121431  20.303  19.051  12.359 -0.0775  0.0208  0.0395
 1827DOPE   GL221432  20.435  19.197  12.135 -0.0987 -0.0654 -0.0745
 1827DOPE   C1A21433  20.134  18.871  11.928 -0.1477 -0.2638 -0.1281
 1827DOPE   D2A21434  19.958  18.816  11.557  0.0587  0.0956 -0.0765
 1827DOPE   C3A21435  20.098  18.480  11.235  0.3072  0.0072 -0.1945
 1827DOPE   C4A21436  20.366  18.219  10.937  0.1780  0.1988 -0.0484
 1827DOPE   C1B21437  20.810  19.419  11.938  0.0586 -0.0822 -0.0025
 1827DOPE   D2B21438  21.192  19.140  11.804 -0.0616 -0.1284 -0.0794
 1827DOPE   C3B21439  21.623  19.239  11.649  0.3009 -0.2600 -0.1010
 1827DOPE   C4B21440  22.052  19.107  11.553 -0.2914  0.0499  0.0038
 1828DOPE   NH321441  21.430  17.060  12.606  0.3202  0.0902  0.0317
 1828DOPE   PO421442  21.287  17.324  12.480  0.0717  0.1372 -0.0294
 1828DOPE   GL121443  21.566  17.344  12.186  0.3073  0.0589  0.0301
 1828DOPE   GL221444  21.530  17.091  12.101 -0.1206 -0.0304  0.3530
 1828DOPE   C1A21445  21.358  17.449  11.807 -0.2214  0.0754  0.0768
 1828DOPE   D2A21446  20.941  17.485  11.577  0.2554 -0.0342 -0.3999
 1828DOPE   C3A21447  21.015  17.658  11.122  0.1396 -0.1403 -0.2358
 1828DOPE   C4A21448  21.399  17.827  10.844 -0.0360  0.3755 -0.3135
 1828DOPE   C1B21449  21.630  17.004  11.688  0.0678  0.1765  0.2824
 1828DOPE   D2B21450  21.705  16.624  11.414 -0.1989  0.3501 -0.0662
 1828DOPE   C3B21451  22.027  16.698  11.105 -0.1121  0.3327 -0.0030
 1828DOPE   C4B21452  22.133  16.480  10.734  0.3358 -0.1002 -0.0603
 1829DOPC   NC321453  25.152  24.226  15.493 -0.0742  0.0314 -0.1314
 1829DOPC   PO421454  25.231  23.974  15.246  0.2074  0.3482 -0.1018
 1829DOPC   GL121455  25.168  23.893  14.832  0.0883 -0.2387 -0.0937
 1829DOPC   GL221456  25.417  24.061  14.765 -0.0579 -0.0449 -0.0017
 1829DOPC   C1A21457  25.267  23.803  14.366 -0.0115 -0.3006 -0.1751
 1829DOPC   D2A21458  25.575  23.549  14.168  0.1925  0.0892  0.0145
 1829DOPC   C3A21459  25.607  23.545  13.691 -0.1782 -0.1649 -0.0786
 1829DOPC   C4A21460  25.880  23.431  13.352 -0.0950  0.0130 -0.1845
 1829DOPC   C1B21461  25.643  24.429  14.675  0.1580  0.0216  0.1666
 1829DOPC   D2B21462  25.893  24.538  14.261 -0.2312  0.2840  0.1372
 1829DOPC   C3B21463  25.849  24.641  13.799 -0.0731 -0.3285 -0.0409
 1829DOPC   C4B21464  25.547  24.735  13.462 -0.0285 -0.1125 -0.0131
 1830POSM   NC321465  15.848  16.876  11.425 -0.0665 -0.5709 -0.0623
 1830POSM   PO421466  16.095  17.101  11.686 -0.0446  0.0142 -0.0456
 1830POSM   AM121467  16.121  17.322  11.478 -0.0585 -0.3035  0.0895
 1830POSM   AM221468  16.376  17.346  11.274  0.2847 -0.1120 -0.1948
 1830POSM   T1A21469  15.991  17.696  11.143 -0.1071 -0.1846 -0.3723
 1830POSM   C2A21470  15.816  17.963  10.810 -0.1400  0.2022 -0.0173
 1830POSM   C3A21471  15.833  18.129  10.366  0.1709  0.2393  0.0760
 1830POSM   C1B21472  16.483  17.291  11.005 -0.0464 -0.1510  0.0922
 1830POSM   D2B21473  16.772  17.433  10.594  0.2465 -0.0885  0.0234
 1830POSM   C3B21474  16.643  17.533  10.193 -0.1439  0.0989  0.0177
 1830POSM   C4B21475  16.730  17.910   9.899 -0.2763 -0.1095 -0.2871
 1831POSM   NC321476  12.371  21.833  12.400 -0.3446 -0.0585  0.1665
 1831POSM   PO421477  12.000  21.790  12.347  0.0802  0.0150  0.1301
 1831POSM   AM121478  11.917  21.766  12.020  0.1211 -0.0809  0.1189
 1831POSM   AM221479  11.841  21.981  11.883  0.0289  0.0744 -0.2812
 1831POSM   T1A21480  11.966  21.532  11.585  0.2120 -0.0353 -0.0479
 1831POSM   C2A21481  12.040  21.404  11.169 -0.0899  0.0230  0.1739
 1831POSM   C3A21482  12.184  21.169  10.796 -0.1427  0.0225  0.0421
 1831POSM   C1B21483  11.941  22.058  11.567 -0.3509  0.3454 -0.1326
 1831POSM   D2B21484  11.634  22.196  11.221  0.1524 -0.1976 -0.2195
 1831POSM   C3B21485  11.589  22.483  10.903 -0.0982 -0.1473 -0.4185
 1831POSM   C4B21486  11.884  22.571  10.617  0.0834 -0.4431  0.0839
 1832DOPC   NC321487  17.856  14.966  11.956  0.0368 -0.1618  0.2924
 1832DOPC   PO421488  17.951  14.704  11.658 -0.4504 -0.1061 -0.2241
 1832DOPC   GL121489  18.019  14.791  11.278  0.2193 -0.0284  0.1432
 1832DOPC   GL221490  17.779  15.044  11.123  0.1858 -0.3431 -0.0315
 1832DOPC   C1A21491  18.142  14.928  10.858 -0.1614  0.1019  0.1390
 1832DOPC   D2A21492  17.892  14.925  10.444  0.3019  0.2935 -0.2308
 1832DOPC   C3A21493  17.706  15.145  10.144 -0.1687 -0.0767  0.0554
 1832DOPC   C4A21494  17.738  15.461   9.833  0.2223 -0.2577 -0.0779
 1832DOPC   C1B21495  17.705  15.265  10.715 -0.0446  0.0603  0.0120
 1832DOPC   D2B21496  17.744  15.608  10.416  0.1504  0.2155 -0.2546
 1832DOPC   C3B21497  18.144  15.867  10.462 -0.1048  0.0138 -0.2287
 1832DOPC   C4B21498  18.412  16.204  10.542  0.2729  0.1588 -0.1473
 1833DOPC   NC321499  21.518  19.421  13.184  0.2291  0.3206  0.1696
 1833DOPC   PO421500  21.521  19.282  12.865 -0.1558  0.2959 -0.0155
 1833DOPC   GL121501  21.407  19.461  12.410 -0.0219 -0.2741 -0.2298
 1833DOPC   GL221502  21.394  19.193  12.216  0.1542 -0.3030  0.0321
 1833DOPC   C1A21503  21.618  19.873  12.318  0.0913  0.1891 -0.0540
 1833DOPC   D2A21504  21.544  20.139  11.983  0.0069 -0.2986  0.1771
 1833DOPC   C3A21505  21.839  20.076  11.623  0.2025 -0.1807  0.2194
 1833DOPC   C4A21506  21.782  20.107  11.129  0.0518  0.1263  0.1545
 1833DOPC   C1B21507  21.317  18.772  12.091  0.1271  0.0637 -0.1403
 1833DOPC   D2B21508  21.033  18.412  12.024  0.1376  0.2740 -0.2650
 1833DOPC   C3B21509  20.757  18.379  11.621 -0.1392 -0.1363  0.1055
 1833DOPC   C4B21510  20.355  18.086  11.531 -0.2302  0.1461 -0.0745
 1834DOPS   CNO21511  13.127  22.307  12.765  0.1557 -0.0762 -0.1121
 1834DOPS   PO421512  12.986  22.307  12.402  0.2233 -0.1393 -0.3044
 1834DOPS   GL121513  12.960  22.288  12.004 -0.2499  0.0827 -0.0577
 1834DOPS   GL221514  12.677  22.433  11.809 -0.2016  0.0434  0.0586
 1834DOPS   C1A21515  12.810  22.000  11.606  0.2401  0.1727 -0.0338
 1834DOPS   D2A21516  12.958  21.758  11.236  0.0809  0.0448  0.1411
 1834DOPS   C3A21517  12.739  21.743  10.842  0.0388  0.0394 -0.1211
 1834DOPS   C4A21518  12.288  21.723  10.729  0.0379 -0.0548  0.0971
 1834DOPS   C1B21519  12.754  22.432  11.394 -0.0428  0.0177 -0.0417
 1834DOPS   D2B21520  12.953  22.662  11.042 -0.1829  0.1414 -0.0014
 1834DOPS   C3B21521  13.221  22.419  10.703  0.0243 -0.1521 -0.0602
 1834DOPS   C4B21522  13.176  21.918  10.691 -0.1239 -0.2676 -0.0509
 1835DOPE   NH321523  20.161  14.094  11.887 -0.0525  0.1562  0.0884
 1835DOPE   PO421524  20.310  14.380  11.949 -0.0614  0.1456 -0.2002
 1835DOPE   GL121525  20.536  14.399  11.563  0.1540  0.2848 -0.2837
 1835DOPE   GL221526  20.286  14.438  11.448  0.0168 -0.0442  0.0009
 1835DOPE   C1A21527  20.918  14.508  11.331 -0.1506  0.0633 -0.1154
 1835DOPE   D2A21528  21.291  14.747  11.255 -0.3136 -0.0632  0.1985
 1835DOPE   C3A21529  21.471  14.903  10.849 -0.0061 -0.1060 -0.2450
 1835DOPE   C4A21530  21.641  15.318  10.676 -0.1710 -0.0530 -0.1953
 1835DOPE   C1B21531  20.428  14.170  11.075  0.0040  0.0296  0.1914
 1835DOPE   D2B21532  20.354  13.868  10.804 -0.0642  0.2668  0.1094
 1835DOPE   C3B21533  20.070  14.067  10.481 -0.1401 -0.3183 -0.0795
 1835DOPE   C4B21534  20.124  14.436  10.157  0.1395 -0.0802 -0.0248
 1836DOPS   CNO21535  23.087  14.308  13.430  0.1157 -0.0482 -0.0026
 1836DOPS   PO421536  22.993  14.640  13.262 -0.3214  0.1721 -0.0378
 1836DOPS   GL121537  22.815  14.688  12.899 -0.1585 -0.3508  0.0421
 1836DOPS   GL221538  22.561  14.609  12.710  0.0157  0.0976  0.1295
 1836DOPS   C1A21539  23.012  14.844  12.461  0.1440  0.3771  0.1375
 1836DOPS   D2A21540  23.284  14.745  12.088 -0.0609  0.1340  0.1853
 1836DOPS   C3A21541  23.420  15.106  11.892 -0.0422 -0.0059  0.0861
 1836DOPS   C4A21542  23.454  15.365  11.563 -0.3113  0.1244 -0.1222
 1836DOPS   C1B21543  22.653  14.504  12.305  0.0219 -0.3391  0.0511
 1836DOPS   D2B21544  22.984  14.320  12.013  0.0826 -0.1795 -0.0891
 1836DOPS   C3B21545  23.222  14.471  11.660  0.1182 -0.1375  0.1728
 1836DOPS   C4B21546  23.406  14.808  11.383 -0.0065  0.0753  0.0648
 1837DOPE   NH321547  27.025  16.362   9.781 -0.1831  0.2403 -0.2924
 1837DOPE   PO421548  27.248  16.487  10.008  0.1788  0.2077  0.0539
 1837DOPE   GL121549  27.063  16.286  10.313  0.0505 -0.1489 -0.2456
 1837DOPE   GL221550  26.934  16.015  10.165 -0.2070 -0.0151 -0.3662
 1837DOPE   C1A21551  27.058  16.291  10.768  0.0497  0.2065  0.2298
 1837DOPE   D2A21552  27.001  15.936  11.096  0.1574 -0.1194 -0.1211
 1837DOPE   C3A21553  27.442  15.771  11.246 -0.2950  0.0694 -0.2036
 1837DOPE   C4A21554  27.771  15.419  11.314  0.0907 -0.2956  0.0689
 1837DOPE   C1B21555  27.061  15.837  10.546  0.1524  0.0070  0.0700
 1837DOPE   D2B21556  26.966  15.432  10.781  0.0481 -0.2543  0.2013
 1837DOPE   C3B21557  27.186  15.162  11.169  0.0654  0.2149  0.0808
 1837DOPE   C4B21558  27.308  14.947  11.537 -0.0793 -0.0003  0.2003
 1838DOPS   CNO21559  13.673  13.789   8.199  0.0190  0.1075 -0.0967
 1838DOPS   PO421560  13.937  13.833   8.423  0.0618 -0.0496 -0.0678
 1838DOPS   GL121561  13.866  13.862   8.821 -0.3658  0.2481 -0.1338
 1838DOPS   GL221562  13.592  13.930   8.997 -0.0462  0.1575  0.0374
 1838DOPS   C1A21563  14.213  13.678   9.125  0.0837 -0.0545  0.1114
 1838DOPS   D2A21564  14.449  13.735   9.583  0.1710 -0.1327 -0.2568
 1838DOPS   C3A21565  14.445  13.406   9.853  0.1895  0.2483  0.1135
 1838DOPS   C4A21566  14.368  13.085  10.132 -0.1163 -0.1316 -0.0635
 1838DOPS   C1B21567  13.867  14.081   9.374 -0.0885  0.1418  0.0785
 1838DOPS   D2B21568  13.941  13.981   9.816 -0.3299  0.2583  0.1980
 1838DOPS   C3B21569  13.830  13.822  10.203 -0.0644  0.0702 -0.1396
 1838DOPS   C4B21570  13.645  13.868  10.631 -0.2222  0.1451  0.0693
 1839DOPE   NH321571  23.478  15.719   9.552  0.3925  0.0227 -0.3552
 1839DOPE   PO421572  23.271  15.605   9.737  0.0286  0.0638 -0.0212
 1839DOPE   GL121573  23.132  15.704   9.999  0.2515 -0.2066 -0.0130
 1839DOPE   GL221574  23.273  15.614  10.218  0.3143 -0.0868  0.4050
 1839DOPE   C1A21575  22.793  15.800  10.293 -0.2990  0.0373  0.2544
 1839DOPE   D2A21576  22.615  16.109  10.568  0.0064  0.0516  0.2497
 1839DOPE   C3A21577  22.579  16.504  10.461 -0.0098 -0.2714 -0.1716
 1839DOPE   C4A21578  22.373  16.926  10.529  0.3722  0.2440  0.0845
 1839DOPE   C1B21579  23.160  15.279  10.565  0.0077  0.0729  0.1800
 1839DOPE   D2B21580  23.022  15.130  10.988  0.0501 -0.2542  0.0640
 1839DOPE   C3B21581  22.996  14.681  11.136  0.0726  0.2451  0.1490
 1839DOPE   C4B21582  23.145  14.283  11.102 -0.1239 -0.1538  0.0704
 1840DOPE   NH321583  20.473  16.047   9.049 -0.1495  0.0758 -0.1972
 1840DOPE   PO421584  20.693  15.916   9.261  0.2389 -0.1731 -0.1867
 1840DOPE   GL121585  20.494  15.680   9.465 -0.1414  0.0154  0.1706
 1840DOPE   GL221586  20.689  15.685   9.755  0.1258 -0.1512 -0.0670
 1840DOPE   C1A21587  20.362  15.280   9.619  0.4499  0.4398 -0.0380
 1840DOPE   D2A21588  20.162  14.897   9.617  0.3121 -0.2669 -0.4356
 1840DOPE   C3A21589  20.523  14.818   9.944 -0.0196 -0.5238 -0.2223
 1840DOPE   C4A21590  20.647  14.903  10.405 -0.0842  0.2653 -0.2367
 1840DOPE   C1B21591  21.004  15.339   9.901 -0.3027  0.1082 -0.3808
 1840DOPE   D2B21592  21.442  15.196   9.703  0.1689 -0.1302 -0.1001
 1840DOPE   C3B21593  21.562  14.765   9.763  0.1326  0.1739  0.1261
 1840DOPE   C4B21594  21.615  14.515  10.141 -0.1643  0.2567 -0.2622
 1841DOPC   NC321595  22.712  14.298   9.387 -0.1733  0.1491  0.2091
 1841DOPC   PO421596  22.388  14.415   9.229  0.0612 -0.2125  0.5631
 1841DOPC   GL121597  22.338  14.356   9.649  0.2115 -0.1512  0.1149
 1841DOPC   GL221598  22.542  14.294   9.922 -0.0578 -0.0730 -0.1468
 1841DOPC   C1A21599  21.903  14.276   9.850 -0.0096  0.1074  0.2054
 1841DOPC   D2A21600  21.442  14.146   9.826 -0.0963 -0.0628  0.1601
 1841DOPC   C3A21601  21.129  14.124  10.186 -0.2602 -0.0398 -0.0013
 1841DOPC   C4A21602  20.820  13.982  10.531  0.2404  0.2344  0.3456
 1841DOPC   C1B21603  22.252  14.152  10.262  0.1030  0.0815 -0.1864
 1841DOPC   D2B21604  22.051  14.073  10.680 -0.0012 -0.0451  0.3265
 1841DOPC   C3B21605  22.185  13.723  10.969  0.1547  0.0209 -0.2116
 1841DOPC   C4B21606  22.334  13.775  11.430 -0.2016 -0.2920  0.1571
 1842DOPC   NC321607  16.603  20.455   8.382  0.1183  0.1424 -0.1041
 1842DOPC   PO421608  16.850  20.138   8.374 -0.0384  0.1303  0.3591
 1842DOPC   GL121609  16.613  19.983   8.653 -0.2124  0.0578 -0.0063
 1842DOPC   GL221610  16.939  19.867   8.781  0.0882 -0.0375 -0.4917
 1842DOPC   C1A21611  16.539  20.294   8.981  0.2721 -0.0024  0.0500
 1842DOPC   D2A21612  16.705  20.474   9.364 -0.1743  0.1468 -0.0071
 1842DOPC   C3A21613  16.383  20.605   9.620  0.0442 -0.0904  0.0880
 1842DOPC   C4A21614  15.858  20.672   9.551 -0.2993  0.1112  0.0029
 1842DOPC   C1B21615  17.134  20.297   8.978 -0.0125  0.1800 -0.3197
 1842DOPC   D2B21616  17.218  20.528   9.377 -0.0062  0.2790 -0.1326
 1842DOPC   C3B21617  16.990  20.964   9.411  0.0779 -0.0528  0.1728
 1842DOPC   C4B21618  16.913  21.257   9.801  0.1008 -0.0120  0.1078
 1843DOPE   NH321619  10.178  17.056   9.441  0.1424  0.0125  0.1239
 1843DOPE   PO421620  10.060  17.356   9.407  0.3574  0.0256  0.2914
 1843DOPE   GL121621  10.164  17.472   9.718  0.0475 -0.0981  0.0465
 1843DOPE   GL221622   9.988  17.614   9.916  0.0497  0.1408  0.1068
 1843DOPE   C1A21623  10.480  17.276   9.989 -0.0287 -0.2396  0.4286
 1843DOPE   D2A21624  10.546  17.123  10.413  0.0123  0.0692  0.3268
 1843DOPE   C3A21625  10.296  17.250  10.797 -0.0589  0.1060  0.1488
 1843DOPE   C4A21626  10.216  17.467  11.177  0.0160 -0.0179  0.0384
 1843DOPE   C1B21627   9.917  18.101   9.808  0.0314  0.0511  0.0450
 1843DOPE   D2B21628  10.306  18.415   9.806  0.0291  0.2065 -0.5240
 1843DOPE   C3B21629  10.663  18.256  10.095 -0.0251 -0.4348 -0.0922
 1843DOPE   C4B21630  10.564  18.067  10.521 -0.0445  0.0153  0.2015
 1844DOPE   NH321631  24.029  23.309  10.528 -0.0530 -0.0054  0.1092
 1844DOPE   PO421632  24.204  23.369  10.764 -0.0918  0.0585 -0.2605
 1844DOPE   GL121633  23.934  23.164  11.087  0.1369  0.2953 -0.0553
 1844DOPE   GL221634  23.739  23.318  10.943  0.2338 -0.1618  0.1353
 1844DOPE   C1A21635  23.849  22.997  11.515 -0.0559  0.2636  0.2868
 1844DOPE   D2A21636  23.702  22.893  11.966 -0.0203 -0.1030  0.2848
 1844DOPE   C3A21637  23.374  22.559  11.951  0.1426  0.1465  0.1528
 1844DOPE   C4A21638  23.350  22.081  12.067 -0.0105  0.2095 -0.1713
 1844DOPE   C1B21639  23.528  23.359  11.353  0.1555 -0.0624 -0.3368
 1844DOPE   D2B21640  23.348  23.382  11.773 -0.0396  0.0299  0.3605
 1844DOPE   C3B21641  23.487  23.245  12.177 -0.2181  0.2495  0.0703
 1844DOPE   C4B21642  23.594  22.996  12.510  0.0755  0.0635  0.0996
 1845DOPE   NH321643  18.867  17.977   8.508 -0.2403  0.0146 -0.1233
 1845DOPE   PO421644  18.982  17.899   8.787 -0.0829 -0.0462 -0.1778
 1845DOPE   GL121645  19.129  17.526   8.928  0.0614  0.2802  0.2205
 1845DOPE   GL221646  18.927  17.511   9.180 -0.2213  0.1560  0.1224
 1845DOPE   C1A21647  19.294  17.153   9.187 -0.2210 -0.0457  0.0977
 1845DOPE   D2A21648  19.456  16.826   9.516  0.0077 -0.1043 -0.1419
 1845DOPE   C3A21649  19.637  16.781   9.933  0.1540  0.2373 -0.2394
 1845DOPE   C4A21650  19.712  16.681  10.404  0.1091  0.0351  0.1116
 1845DOPE   C1B21651  18.654  17.623   9.509  0.0879  0.2759 -0.2578
 1845DOPE   D2B21652  18.640  17.778   9.953 -0.2518 -0.3307  0.2651
 1845DOPE   C3B21653  18.526  18.213  10.139  0.1799 -0.1282  0.0253
 1845DOPE   C4B21654  18.215  18.568  10.224 -0.2901  0.0852 -0.0399
 1846POSM   NC321655  16.577  21.683   8.404  0.0212  0.1498  0.2556
 1846POSM   PO421656  16.185  21.782   8.512 -0.1752  0.2018  0.1159
 1846POSM   AM121657  16.039  21.544   8.613 -0.1080  0.0784 -0.1847
 1846POSM   AM221658  15.842  21.598   8.838  0.0123  0.0951 -0.1221
 1846POSM   T1A21659  16.023  21.121   8.882  0.2461 -0.1528 -0.0662
 1846POSM   C2A21660  15.718  20.813   9.036 -0.0400 -0.2189  0.0792
 1846POSM   C3A21661  15.427  20.483   9.204  0.1208 -0.0242 -0.0429
 1846POSM   C1B21662  16.019  21.598   9.125 -0.0797 -0.1546  0.2243
 1846POSM   D2B21663  15.979  21.614   9.547  0.0614 -0.0014  0.2580
 1846POSM   C3B21664  15.811  21.424   9.920  0.1894 -0.2059 -0.0308
 1846POSM   C4B21665  15.344  21.400  10.124 -0.2113  0.0244  0.2278
 1847DOPE   NH321666  15.502  18.903   8.447  0.1037 -0.0570  0.0558
 1847DOPE   PO421667  15.655  19.108   8.650 -0.0289 -0.1548 -0.0753
 1847DOPE   GL121668  15.473  19.003   9.052 -0.4439 -0.1599 -0.2161
 1847DOPE   GL221669  15.522  18.695   8.942  0.2630  0.1605 -0.3561
 1847DOPE   C1A21670  15.209  19.282   9.362  0.1434  0.2175  0.0779
 1847DOPE   D2A21671  15.087  19.639   9.537  0.1406  0.1299 -0.3587
 1847DOPE   C3A21672  14.654  19.707   9.700 -0.1999 -0.3831 -0.2791
 1847DOPE   C4A21673  14.241  19.452   9.557 -0.0621  0.2009  0.3123
 1847DOPE   C1B21674  15.821  18.750   9.338  0.0887 -0.2807 -0.2987
 1847DOPE   D2B21675  16.138  18.743   9.705 -0.2957 -0.0096 -0.3243
 1847DOPE   C3B21676  16.207  18.641  10.168  0.0883  0.2066 -0.3703
 1847DOPE   C4B21677  16.020  18.816  10.571 -0.1275  0.1775 -0.1147
 1848POSM   NC321678  23.091  19.323   9.324 -0.1700 -0.2274  0.0030
 1848POSM   PO421679  23.287  19.108   9.572  0.0293 -0.3255  0.1307
 1848POSM   AM121680  23.300  19.045   9.895 -0.0429  0.0278  0.2293
 1848POSM   AM221681  23.563  19.083  10.008 -0.2273  0.0063  0.2092
 1848POSM   T1A21682  23.042  18.896  10.281  0.1376  0.1195  0.0400
 1848POSM   C2A21683  23.039  18.818  10.721 -0.2638 -0.0582  0.0543
 1848POSM   C3A21684  22.817  18.649  11.144 -0.2090 -0.1850  0.0339
 1848POSM   C1B21685  23.502  18.990  10.381  0.1407 -0.1896  0.0510
 1848POSM   D2B21686  23.464  19.138  10.812 -0.0434 -0.1067 -0.5166
 1848POSM   C3B21687  23.221  19.006  11.207 -0.3519  0.0324 -0.4151
 1848POSM   C4B21688  23.166  18.673  11.578 -0.1850  0.0136  0.0945
 1849POSM   NC321689  14.646  10.487   9.506 -0.2270  0.0572  0.0866
 1849POSM   PO421690  14.356  10.705   9.465 -0.3683 -0.0809 -0.1021
 1849POSM   AM121691  14.270  10.714   9.760  0.1000  0.2240  0.0167
 1849POSM   AM221692  14.179  10.932   9.920 -0.1110  0.0976 -0.1256
 1849POSM   T1A21693  14.313  10.577  10.234 -0.1015 -0.1424  0.0338
 1849POSM   C2A21694  14.729  10.371  10.424  0.1774 -0.0613  0.3871
 1849POSM   C3A21695  15.147  10.259  10.492  0.3164 -0.2969  0.1363
 1849POSM   C1B21696  13.948  10.836  10.074 -0.2778  0.2024  0.2478
 1849POSM   D2B21697  13.505  10.726  10.063 -0.2313 -0.2444 -0.1058
 1849POSM   C3B21698  13.153  10.982  10.212 -0.2244 -0.2389 -0.0565
 1849POSM   C4B21699  12.924  11.321  10.034  0.2780  0.1186  0.1616
 1850DOPC   NC321700  22.109  24.031   9.618  0.4493  0.2056  0.1910
 1850DOPC   PO421701  21.727  24.075   9.610 -0.1694  0.0009 -0.1378
 1850DOPC   GL121702  21.542  23.987   9.952 -0.1557  0.4234  0.1912
 1850DOPC   GL221703  21.318  23.737  10.026 -0.1032 -0.1090 -0.1020
 1850DOPC   C1A21704  21.497  24.164  10.420  0.2547 -0.0413 -0.0565
 1850DOPC   D2A21705  21.726  24.352  10.784  0.1206 -0.0896  0.0757
 1850DOPC   C3A21706  21.650  24.472  11.204 -0.0494  0.0583 -0.0803
 1850DOPC   C4A21707  21.573  24.379  11.641  0.1964  0.1868 -0.0060
 1850DOPC   C1B21708  21.050  23.445  10.339  0.0143 -0.1137 -0.2338
 1850DOPC   D2B21709  21.124  23.142  10.640  0.1588  0.1749  0.2252
 1850DOPC   C3B21710  21.094  23.157  11.127  0.2134  0.1483  0.3515
 1850DOPC   C4B21711  21.066  22.812  11.433 -0.3125  0.1536 -0.2562
 1851DOPC   NC321712  23.613  22.019  10.372 -0.0554  0.0568 -0.2896
 1851DOPC   PO421713  23.607  22.392  10.256 -0.1495  0.1097 -0.4794
 1851DOPC   GL121714  23.494  22.370  10.648 -0.3802  0.4049  0.1290
 1851DOPC   GL221715  23.667  22.251  10.864  0.1450  0.1746  0.2676
 1851DOPC   C1A21716  23.265  22.023  10.880  0.0924 -0.2693 -0.1710
 1851DOPC   D2A21717  22.978  22.117  11.234  0.2677  0.0649 -0.0317
 1851DOPC   C3A21718  23.065  22.533  11.514  0.4563 -0.1382  0.0283
 1851DOPC   C4A21719  23.363  22.881  11.480 -0.2462  0.1445 -0.1816
 1851DOPC   C1B21720  23.482  22.321  11.230 -0.0000  0.3367  0.0448
 1851DOPC   D2B21721  23.607  22.161  11.622 -0.3320  0.1988 -0.2531
 1851DOPC   C3B21722  23.802  22.351  11.953  0.0552  0.0339  0.1741
 1851DOPC   C4B21723  23.781  22.577  12.369 -0.0306 -0.4565 -0.0650
 1852DOPC   NC321724  15.517  14.606   8.854  0.2100  0.2842 -0.0427
 1852DOPC   PO421725  15.124  14.521   8.779 -0.1650  0.0109  0.1457
 1852DOPC   GL121726  14.817  14.588   9.040  0.3756 -0.1063  0.0933
 1852DOPC   GL221727  14.758  14.894   8.969 -0.0306 -0.0313  0.1128
 1852DOPC   C1A21728  14.883  14.689   9.486 -0.3642  0.2416  0.2424
 1852DOPC   D2A21729  14.942  14.354   9.740  0.0326  0.0236  0.1970
 1852DOPC   C3A21730  15.230  14.229  10.082 -0.2537 -0.2426  0.0185
 1852DOPC   C4A21731  15.204  13.978  10.465  0.0985  0.0295  0.0351
 1852DOPC   C1B21732  14.443  14.828   9.302 -0.1301  0.2047  0.0949
 1852DOPC   D2B21733  14.382  14.796   9.757 -0.0226 -0.1668  0.0305
 1852DOPC   C3B21734  14.696  14.901  10.050 -0.0796  0.1463  0.2061
 1852DOPC   C4B21735  15.084  14.724  10.309  0.1879  0.1496 -0.1468
 1853DOPE   NH321736  22.842  11.709   9.292 -0.1071  0.1708 -0.1294
 1853DOPE   PO421737  23.097  11.583   9.417 -0.1330 -0.1460  0.7628
 1853DOPE   GL121738  23.104  11.761   9.717 -0.4586  0.2294  0.2632
 1853DOPE   GL221739  23.380  11.803   9.848  0.0443 -0.2270  0.3507
 1853DOPE   C1A21740  23.125  11.566  10.158 -0.0678  0.0871  0.0306
 1853DOPE   D2A21741  22.754  11.601  10.547 -0.2743  0.2479 -0.2033
 1853DOPE   C3A21742  22.686  11.978  10.775  0.3836  0.1975  0.0711
 1853DOPE   C4A21743  22.445  12.148  11.166 -0.0378  0.0922 -0.0175
 1853DOPE   C1B21744  23.287  12.129  10.177  0.3135 -0.1022 -0.1267
 1853DOPE   D2B21745  23.111  12.183  10.561 -0.0931  0.3270 -0.2919
 1853DOPE   C3B21746  23.128  12.589  10.827  0.0377 -0.0404  0.0737
 1853DOPE   C4B21747  23.121  12.667  11.308 -0.0671  0.1929 -0.0096
 1854POSM   NC321748  18.699  13.037   8.408 -0.1263  0.0477 -0.1203
 1854POSM   PO421749  18.336  13.035   8.563 -0.0121  0.2272 -0.0291
 1854POSM   AM121750  18.502  13.080   8.836 -0.4148  0.0939  0.0865
 1854POSM   AM221751  18.734  13.054   8.999 -0.0266  0.0377  0.0405
 1854POSM   T1A21752  18.421  13.389   9.202  0.0549  0.0435  0.2007
 1854POSM   C2A21753  18.191  13.424   9.577 -0.0444  0.0161  0.0103
 1854POSM   C3A21754  18.041  13.635   9.890  0.2403  0.1753  0.1223
 1854POSM   C1B21755  18.916  13.184   9.248 -0.0552 -0.0921  0.1057
 1854POSM   D2B21756  19.231  13.437   9.436  0.3137 -0.0764 -0.5157
 1854POSM   C3B21757  19.193  13.859   9.665  0.2908 -0.1967 -0.0041
 1854POSM   C4B21758  18.965  13.976  10.049 -0.1087 -0.1924  0.0589
 1855DOPE   NH321759  13.640  21.698   8.501  0.1170 -0.0009 -0.0406
 1855DOPE   PO421760  13.738  21.462   8.723  0.2363 -0.1130 -0.0906
 1855DOPE   GL121761  13.644  21.153   8.917 -0.3371 -0.0507  0.0831
 1855DOPE   GL221762  13.864  21.147   9.099 -0.1271 -0.2723  0.1364
 1855DOPE   C1A21763  13.363  21.202   9.248 -0.2284  0.1318  0.1457
 1855DOPE   D2A21764  12.938  21.085   9.215 -0.1073 -0.2613 -0.3182
 1855DOPE   C3A21765  12.598  20.929   9.518 -0.1185 -0.3875 -0.0616
 1855DOPE   C4A21766  12.347  21.011   9.888 -0.3026 -0.0064  0.0873
 1855DOPE   C1B21767  13.818  21.446   9.539 -0.2280  0.0873 -0.3156
 1855DOPE   D2B21768  13.937  21.381  10.025  0.0982 -0.1718 -0.1889
 1855DOPE   C3B21769  14.063  20.960  10.181 -0.0127  0.0584 -0.1739
 1855DOPE   C4B21770  14.339  20.930  10.547 -0.0249  0.0633 -0.0186
 1856DOPC   NC321771  24.441  12.149   9.391  0.1807  0.1209 -0.0071
 1856DOPC   PO421772  24.230  12.140   9.709 -0.0627  0.5412  0.1428
 1856DOPC   GL121773  24.202  12.129  10.156  0.0354  0.3018 -0.1277
 1856DOPC   GL221774  23.905  12.057  10.216  0.1538 -0.3887 -0.0518
 1856DOPC   C1A21775  24.160  12.315  10.589 -0.0466  0.1328 -0.2220
 1856DOPC   D2A21776  24.051  12.580  10.967  0.0274  0.0033  0.1061
 1856DOPC   C3A21777  24.394  12.386  11.148  0.0333 -0.2511 -0.1907
 1856DOPC   C4A21778  24.760  12.276  11.439 -0.0969 -0.0959 -0.2234
 1856DOPC   C1B21779  23.816  12.518  10.237 -0.0719 -0.0784  0.1866
 1856DOPC   D2B21780  23.789  12.876  10.582  0.0740 -0.0938  0.5969
 1856DOPC   C3B21781  23.577  12.729  11.016  0.5372 -0.0574  0.0289
 1856DOPC   C4B21782  23.690  12.709  11.495  0.0400 -0.0454 -0.2748
 1857POSM   NC321783  22.012  15.201   9.166 -0.1416  0.3287  0.2420
 1857POSM   PO421784  21.788  15.501   8.989 -0.3213 -0.2518 -0.1616
 1857POSM   AM121785  21.669  15.495   9.307 -0.1662 -0.0051  0.1141
 1857POSM   AM221786  21.578  15.712   9.489  0.3768  0.0951 -0.0050
 1857POSM   T1A21787  21.887  15.396   9.695  0.0224 -0.1548  0.2058
 1857POSM   C2A21788  21.786  15.075  10.021  0.0892 -0.2986  0.0321
 1857POSM   C3A21789  21.748  14.867  10.408  0.1140  0.1620 -0.1488
 1857POSM   C1B21790  21.332  15.786   9.729  0.0344  0.0367  0.1522
 1857POSM   D2B21791  21.036  15.836  10.041 -0.2530  0.2308  0.1524
 1857POSM   C3B21792  20.921  16.163   9.761 -0.1259  0.0262  0.0619
 1857POSM   C4B21793  20.505  16.388   9.815 -0.0567 -0.2586  0.1475
 1858DOPE   NH321794  18.240  18.969   8.453  0.2166  0.0221 -0.0912
 1858DOPE   PO421795  18.240  18.628   8.567 -0.1466 -0.3440  0.1234
 1858DOPE   GL121796  18.082  18.477   8.939  0.2944  0.7696 -0.0328
 1858DOPE   GL221797  18.364  18.474   9.165  0.0763 -0.0325  0.0784
 1858DOPE   C1A21798  18.008  18.753   9.317  0.1467  0.0015 -0.1967
 1858DOPE   D2A21799  17.902  18.972   9.766 -0.2053  0.2025  0.1633
 1858DOPE   C3A21800  17.840  19.379   9.928 -0.0304  0.0168  0.1548
 1858DOPE   C4A21801  17.666  19.816   9.867  0.0924 -0.3377  0.0120
 1858DOPE   C1B21802  18.791  18.449   9.311  0.3016 -0.1625  0.0292
 1858DOPE   D2B21803  18.913  18.130   9.634 -0.3031 -0.1646 -0.1892
 1858DOPE   C3B21804  19.117  17.745   9.792 -0.2344  0.0415  0.1311
 1858DOPE   C4B21805  19.248  17.335   9.630 -0.0550 -0.2009 -0.0237
 1859DOPE   NH321806  13.304  11.935   9.237 -0.3090  0.0854 -0.3460
 1859DOPE   PO421807  13.467  12.082   9.007  0.2927 -0.0996  0.1780
 1859DOPE   GL121808  13.699  12.239   9.338  0.2920  0.0322  0.1794
 1859DOPE   GL221809  13.508  12.268   9.487 -0.1518 -0.0345  0.0069
 1859DOPE   C1A21810  14.091  12.081   9.598 -0.0739  0.3179  0.0508
 1859DOPE   D2A21811  14.269  11.976  10.003  0.0125 -0.3343  0.1252
 1859DOPE   C3A21812  14.042  11.628  10.219 -0.2660  0.0051 -0.0598
 1859DOPE   C4A21813  13.801  11.298  10.426 -0.2515 -0.2408  0.0078
 1859DOPE   C1B21814  13.397  12.511   9.872 -0.0052  0.0649 -0.1256
 1859DOPE   D2B21815  13.154  12.840  10.091 -0.0270 -0.0178  0.0479
 1859DOPE   C3B21816  12.933  13.063  10.416 -0.1510 -0.0335  0.0798
 1859DOPE   C4B21817  12.617  13.352  10.613 -0.1161  0.4775 -0.2163
 1860DOPC   NC321818  13.878  18.326   8.163  0.0289 -0.0324  0.0116
 1860DOPC   PO421819  14.040  18.282   8.517 -0.4656 -0.2149 -0.0883
 1860DOPC   GL121820  13.840  18.282   8.825 -0.0897 -0.2561  0.0672
 1860DOPC   GL221821  13.847  18.068   8.983  0.1233 -0.0777 -0.1655
 1860DOPC   C1A21822  13.736  18.506   9.181  0.1522  0.6466 -0.1535
 1860DOPC   D2A21823  13.460  18.746   9.456 -0.2262  0.1526 -0.2341
 1860DOPC   C3A21824  13.643  18.996   9.784 -0.3256  0.1445  0.2325
 1860DOPC   C4A21825  13.989  18.952  10.078  0.2253 -0.4455  0.0968
 1860DOPC   C1B21826  14.261  17.957   9.089 -0.3501 -0.1214  0.0281
 1860DOPC   D2B21827  14.713  17.831   9.040 -0.1976  0.1261  0.0496
 1860DOPC   C3B21828  14.828  17.649   9.428  0.0831  0.0353 -0.0150
 1860DOPC   C4B21829  14.991  17.667   9.918 -0.1537 -0.0007  0.1101
 1861DOPE   NH321830  10.654  18.805   8.753  0.1487 -0.1026  0.0559
 1861DOPE   PO421831  10.949  18.797   8.673  0.0375 -0.2857  0.2738
 1861DOPE   GL121832  10.972  18.444   8.929 -0.1930 -0.0518  0.1358
 1861DOPE   GL221833  10.975  18.126   8.821 -0.4541 -0.3810  0.1670
 1861DOPE   C1A21834  11.207  18.614   9.322  0.1602  0.0604  0.1106
 1861DOPE   D2A21835  11.392  18.886   9.660 -0.0776  0.0341 -0.1419
 1861DOPE   C3A21836  11.780  19.153   9.606 -0.3670  0.4443 -0.1143
 1861DOPE   C4A21837  12.054  19.352   9.888 -0.0323 -0.4346 -0.3056
 1861DOPE   C1B21838  10.985  18.126   9.286 -0.0669 -0.2264  0.0982
 1861DOPE   D2B21839  11.007  18.125   9.771 -0.3152  0.0046  0.0538
 1861DOPE   C3B21840  11.416  18.308   9.715 -0.0502  0.1205 -0.2048
 1861DOPE   C4B21841  11.852  18.467   9.571 -0.0142 -0.0155 -0.1652
 1862POSM   NC321842  21.241  18.959   9.234 -0.1307 -0.2478 -0.0832
 1862POSM   PO421843  21.288  19.370   9.325 -0.0732  0.1395  0.2135
 1862POSM   AM121844  21.223  19.430   9.650  0.0691  0.2078  0.1353
 1862POSM   AM221845  20.951  19.541   9.777  0.0721  0.1414  0.0031
 1862POSM   T1A21846  21.396  19.579  10.058  0.0733 -0.5891  0.2305
 1862POSM   C2A21847  21.743  19.747  10.365 -0.0164 -0.0167 -0.0016
 1862POSM   C3A21848  21.998  20.053  10.613 -0.0204  0.2425  0.3300
 1862POSM   C1B21849  20.952  19.457  10.114 -0.0464  0.1168 -0.0562
 1862POSM   D2B21850  20.878  19.328  10.556 -0.1150 -0.1072 -0.1626
 1862POSM   C3B21851  21.227  19.285  10.892 -0.1197  0.1201  0.0043
 1862POSM   C4B21852  21.347  19.078  11.266  0.0335 -0.1143  0.1618
 1863DOPC   NC321853  24.458  18.331  10.209  0.1326 -0.1195 -0.0181
 1863DOPC   PO421854  24.409  18.737  10.142  0.0496  0.0285  0.0012
 1863DOPC   GL121855  24.295  18.742  10.449 -0.5125  0.2021 -0.0632
 1863DOPC   GL221856  24.021  18.928  10.449 -0.0239  0.1024 -0.1747
 1863DOPC   C1A21857  24.369  18.502  10.844 -0.0505  0.2381 -0.2188
 1863DOPC   D2A21858  24.452  18.300  11.202 -0.1626  0.1003  0.3262
 1863DOPC   C3A21859  24.687  18.485  11.529  0.0241 -0.0852  0.1286
 1863DOPC   C4A21860  24.995  18.700  11.836 -0.4526 -0.1035  0.0984
 1863DOPC   C1B21861  23.988  19.019  10.910  0.0509  0.3882 -0.1366
 1863DOPC   D2B21862  24.134  18.798  11.285 -0.0070  0.2076  0.0175
 1863DOPC   C3B21863  24.215  18.673  11.704  0.1401 -0.1078 -0.1316
 1863DOPC   C4B21864  24.544  18.656  11.957 -0.0246  0.0111  0.1380
 1864POSM   NC321865  20.103  23.777   8.886  0.1938 -0.1833  0.2863
 1864POSM   PO421866  20.202  23.572   9.239 -0.1837  0.3490  0.2234
 1864POSM   AM121867  20.135  23.385   9.495 -0.1964  0.0973  0.2457
 1864POSM   AM221868  20.270  23.216   9.678 -0.0304  0.1127  0.1332
 1864POSM   T1A21869  20.180  23.554   9.979  0.0643 -0.1820  0.0460
 1864POSM   C2A21870  20.134  23.409  10.405  0.4447  0.0388  0.0566
 1864POSM   C3A21871  19.916  23.493  10.821  0.0162  0.1392  0.0782
 1864POSM   C1B21872  20.163  23.079   9.919 -0.2480 -0.1523  0.2980
 1864POSM   D2B21873  19.858  22.811  10.238  0.2039  0.1380 -0.1298
 1864POSM   C3B21874  19.845  22.936  10.669  0.4615 -0.0971 -0.3603
 1864POSM   C4B21875  19.702  22.676  11.084 -0.0783  0.0888  0.3632
 1865DOPE   NH321876  21.368  11.594   8.783 -0.1248 -0.1559 -0.1357
 1865DOPE   PO421877  21.181  11.319   8.838 -0.2985  0.2195 -0.0854
 1865DOPE   GL121878  21.059  11.207   9.113 -0.3339 -0.0604  0.0359
 1865DOPE   GL221879  21.199  11.273   9.407 -0.1967  0.0253 -0.1291
 1865DOPE   C1A21880  20.630  11.308   9.252 -0.0234  0.0713 -0.0004
 1865DOPE   D2A21881  20.232  11.304   9.467 -0.0958  0.3751  0.2070
 1865DOPE   C3A21882  20.105  11.371   9.876  0.0484  0.1355  0.1203
 1865DOPE   C4A21883  20.042  11.314  10.295  0.0922  0.0394  0.1306
 1865DOPE   C1B21884  20.933  11.321   9.752 -0.1453 -0.2233 -0.1614
 1865DOPE   D2B21885  20.697  11.360  10.170  0.0814 -0.2511  0.4367
 1865DOPE   C3B21886  20.405  11.689  10.217  0.1274 -0.0166  0.0026
 1865DOPE   C4B21887  20.136  12.002  10.450  0.0120  0.3317 -0.1447
 1866DOPC   NC321888  22.864  19.347   9.864 -0.0576 -0.0419 -0.2218
 1866DOPC   PO421889  23.223  19.586   9.758  0.1346  0.0382  0.2834
 1866DOPC   GL121890  23.419  19.502  10.055 -0.1182 -0.4641 -0.0672
 1866DOPC   GL221891  23.244  19.421  10.258  0.0122 -0.0076  0.0415
 1866DOPC   C1A21892  23.714  19.461  10.415  0.1299 -0.3476  0.2514
 1866DOPC   D2A21893  23.546  19.811  10.717 -0.2231  0.2402  0.2913
 1866DOPC   C3A21894  23.180  19.646  10.883 -0.1075 -0.1018 -0.1653
 1866DOPC   C4A21895  22.779  19.867  11.102  0.0871  0.1159 -0.0166
 1866DOPC   C1B21896  22.906  19.345  10.552 -0.1414 -0.1326  0.0073
 1866DOPC   D2B21897  22.682  19.125  10.907 -0.1409  0.0227  0.0345
 1866DOPC   C3B21898  22.445  18.717  10.754  0.3900  0.0057  0.0246
 1866DOPC   C4B21899  22.228  18.336  10.646 -0.0007  0.0966 -0.1927
 1867DOPE   NH321900  27.380  13.723   9.883 -0.1363  0.4168 -0.0343
 1867DOPE   PO421901  27.642  13.652  10.077  0.0554 -0.2584 -0.1649
 1867DOPE   GL121902  27.408  13.935  10.298  0.3902  0.2270  0.0742
 1867DOPE   GL221903  27.247  13.683  10.421  0.0407  0.1237 -0.1587
 1867DOPE   C1A21904  27.521  14.406  10.332  0.0293  0.2202 -0.0264
 1867DOPE   D2A21905  27.480  14.789  10.630  0.3112 -0.1089  0.2118
 1867DOPE   C3A21906  27.036  14.933  10.541  0.0325 -0.2928 -0.0552
 1867DOPE   C4A21907  26.630  14.808  10.597 -0.0981  0.3353 -0.0979
 1867DOPE   C1B21908  27.395  13.831  10.753 -0.3163 -0.1807 -0.0651
 1867DOPE   D2B21909  27.503  14.284  10.803  0.0492 -0.2438  0.1563
 1867DOPE   C3B21910  27.527  14.591  11.175  0.1100  0.1988 -0.1055
 1867DOPE   C4B21911  27.787  14.897  11.447 -0.0641 -0.3265 -0.0136
 1868POSM   NC321912  15.617  15.190   8.391  0.2313 -0.1944  0.1027
 1868POSM   PO421913  15.821  14.858   8.352 -0.3587 -0.2270 -0.0854
 1868POSM   AM121914  15.831  14.907   8.677 -0.0070  0.0027  0.1029
 1868POSM   AM221915  15.987  14.814   8.892  0.1728  0.1304 -0.5307
 1868POSM   T1A21916  15.599  15.073   9.089  0.1225  0.2264 -0.0612
 1868POSM   C2A21917  15.288  14.877   9.259 -0.0095  0.0706 -0.1096
 1868POSM   C3A21918  15.371  14.401   9.297  0.2222  0.1721 -0.1319
 1868POSM   C1B21919  16.107  14.983   9.189  0.1905  0.2175 -0.0426
 1868POSM   D2B21920  16.246  15.282   9.544 -0.1064 -0.0944  0.0341
 1868POSM   C3B21921  16.000  15.649   9.489 -0.2365  0.1490 -0.1496
 1868POSM   C4B21922  15.723  15.867   9.778  0.1319  0.0026 -0.1571
 1869DOPC   NC321923  15.588  17.977   8.670  0.0993  0.1479  0.0406
 1869DOPC   PO421924  15.887  18.215   8.607  0.1974  0.1330  0.2172
 1869DOPC   GL121925  16.000  18.310   8.968 -0.1532  0.0733  0.3085
 1869DOPC   GL221926  16.261  18.116   9.036 -0.0257  0.4231  0.0477
 1869DOPC   C1A21927  15.720  18.307   9.336 -0.0356  0.1331 -0.1862
 1869DOPC   D2A21928  15.343  18.344   9.605  0.0928  0.0566 -0.1311
 1869DOPC   C3A21929  15.349  18.053  10.000 -0.1365  0.1531 -0.2370
 1869DOPC   C4A21930  15.368  17.951  10.397  0.2170 -0.0508 -0.0681
 1869DOPC   C1B21931  16.073  17.992   9.421  0.1660  0.0408  0.1313
 1869DOPC   D2B21932  15.744  17.992   9.743 -0.0977  0.1967 -0.1335
 1869DOPC   C3B21933  15.840  18.398   9.927 -0.0461 -0.1709 -0.0853
 1869DOPC   C4B21934  15.719  18.660  10.297  0.0930 -0.1328  0.0637
 1870POSM   NC321935  21.157  16.710   8.821  0.1049  0.1086  0.2510
 1870POSM   PO421936  20.781  16.681   8.928 -0.0636 -0.4079 -0.0550
 1870POSM   AM121937  20.753  16.846   9.224 -0.2972  0.1223 -0.1891
 1870POSM   AM221938  20.553  16.882   9.416 -0.2775 -0.2500 -0.0164
 1870POSM   T1A21939  20.909  16.786   9.673 -0.6180 -0.1289 -0.0589
 1870POSM   C2A21940  21.011  16.592  10.053  0.1749 -0.1520  0.2156
 1870POSM   C3A21941  20.951  16.258  10.301  0.2531 -0.0630  0.1345
 1870POSM   C1B21942  20.384  16.829   9.711  0.4319  0.2095 -0.0518
 1870POSM   D2B21943  20.113  16.900  10.011 -0.5197 -0.1660 -0.0726
 1870POSM   C3B21944  19.899  17.295  10.155  0.1081  0.2836 -0.0769
 1870POSM   C4B21945  19.448  17.378  10.095 -0.1034  0.0594 -0.0352
 1871POSM   NC321946  11.538  17.090   8.254  0.2162  0.2808 -0.0164
 1871POSM   PO421947  11.416  16.835   8.523  0.1920  0.1919  0.2326
 1871POSM   AM121948  11.655  16.901   8.725 -0.0719  0.1067 -0.0964
 1871POSM   AM221949  11.825  17.116   8.882 -0.0941 -0.2620  0.0979
 1871POSM   T1A21950  11.803  16.689   9.173 -0.4682 -0.2631  0.2416
 1871POSM   C2A21951  11.998  16.641   9.591  0.1625 -0.3235  0.2840
 1871POSM   C3A21952  12.111  16.335   9.861 -0.1620 -0.0513 -0.1176
 1871POSM   C1B21953  11.915  17.209   9.205  0.0157 -0.1667  0.0888
 1871POSM   D2B21954  12.137  17.101   9.584 -0.1416  0.0686 -0.1430
 1871POSM   C3B21955  12.165  17.362  10.009 -0.2320  0.0116 -0.1686
 1871POSM   C4B21956  12.326  17.735  10.164 -0.0262 -0.1427 -0.3776
 1872DOPC   NC321957  19.646  12.620   8.558  0.1632  0.0605  0.0372
 1872DOPC   PO421958  19.507  12.305   8.411  0.0922 -0.1019  0.1110
 1872DOPC   GL121959  19.563  12.226   8.859  0.3078  0.0124  0.4025
 1872DOPC   GL221960  19.809  12.272   8.845 -0.3880 -0.2464 -0.1510
 1872DOPC   C1A21961  19.572  12.324   9.320 -0.4192  0.0882 -0.2438
 1872DOPC   D2A21962  19.854  12.408   9.629  0.0088  0.1121  0.1946
 1872DOPC   C3A21963  20.134  12.029   9.772 -0.0128 -0.0675  0.3492
 1872DOPC   C4A21964  20.459  11.680   9.688  0.2733 -0.3400  0.0266
 1872DOPC   C1B21965  19.953  12.035   9.230 -0.2133 -0.0852  0.0679
 1872DOPC   D2B21966  20.384  12.071   9.353 -0.0853  0.0465  0.1395
 1872DOPC   C3B21967  20.635  12.144   9.706  0.0933  0.1875 -0.0925
 1872DOPC   C4B21968  20.532  12.130  10.167 -0.1323 -0.5579 -0.0111
 1873DOPE   NH321969  17.627  14.099   8.017 -0.3369  0.2032 -0.4176
 1873DOPE   PO421970  17.731  14.193   8.306 -0.1649  0.2202 -0.0835
 1873DOPE   GL121971  17.844  14.308   8.724  0.2205  0.4004 -0.1411
 1873DOPE   GL221972  17.899  14.570   8.787  0.0282  0.1562  0.2573
 1873DOPE   C1A21973  17.721  14.352   9.205  0.0217  0.4242  0.4405
 1873DOPE   D2A21974  17.724  14.755   9.279  0.2511  0.0472  0.1132
 1873DOPE   C3A21975  17.314  14.827   9.325  0.2446 -0.0404  0.1045
 1873DOPE   C4A21976  16.949  15.048   9.254 -0.2406  0.0456  0.2475
 1873DOPE   C1B21977  17.560  14.925   8.814  0.0466 -0.1854 -0.0222
 1873DOPE   D2B21978  17.377  15.332   8.948 -0.0141 -0.2253  0.1278
 1873DOPE   C3B21979  16.948  15.505   8.918  0.1304  0.1336 -0.0878
 1873DOPE   C4B21980  16.661  15.816   8.825 -0.2984  0.2687 -0.1672
 1874POSM   NC321981  19.102  19.362   9.109  0.0660 -0.1798 -0.0326
 1874POSM   PO421982  18.819  19.559   8.917  0.2494 -0.2196  0.0775
 1874POSM   AM121983  18.872  19.775   9.147 -0.2152 -0.2174  0.1580
 1874POSM   AM221984  19.093  19.888   9.257  0.0686 -0.0711  0.1652
 1874POSM   T1A21985  18.541  20.034   9.446  0.0396 -0.1462  0.0632
 1874POSM   C2A21986  18.566  20.241   9.858 -0.1133  0.3713 -0.0831
 1874POSM   C3A21987  18.558  20.131  10.315  0.2734  0.1591 -0.0282
 1874POSM   C1B21988  18.927  19.821   9.603 -0.1264  0.1599 -0.2823
 1874POSM   D2B21989  18.694  19.706  10.016  0.4528 -0.2544 -0.0220
 1874POSM   C3B21990  18.263  19.765   9.867  0.0322  0.3422  0.2869
 1874POSM   C4B21991  18.045  19.790   9.447  0.2110  0.2205 -0.0772
 1875POSM   NC321992  18.400  15.907   8.170 -0.0534 -0.2249 -0.0311
 1875POSM   PO421993  18.132  16.196   8.271  0.1737  0.0016  0.1005
 1875POSM   AM121994  18.266  16.229   8.552 -0.5190  0.2672  0.1155
 1875POSM   AM221995  18.329  16.127   8.794 -0.0048 -0.0852  0.2319
 1875POSM   T1A21996  18.550  16.570   8.872 -0.3686  0.1030  0.3206
 1875POSM   C2A21997  18.654  16.559   9.285 -0.3091  0.0733 -0.3211
 1875POSM   C3A21998  18.737  16.675   9.718  0.3337 -0.1957 -0.3078
 1875POSM   C1B21999  18.389  16.137   9.127  0.2441  0.0426 -0.2180
 1875POSM   D2B22000  18.535  16.182   9.541  0.0384 -0.1712  0.2130
 1875POSM   C3B22001  18.875  15.960   9.683 -0.1336 -0.4023 -0.0339
 1875POSM   C4B22002  18.915  15.603   9.898  0.1284 -0.1423 -0.1691
 1876DOPS   CNO22003  20.063  18.369   8.986 -0.1424  0.1992  0.1597
 1876DOPS   PO422004  19.810  18.597   8.810 -0.0245 -0.0419 -0.0431
 1876DOPS   GL122005  19.572  18.614   9.111 -0.1532  0.0407 -0.1630
 1876DOPS   GL222006  19.329  18.762   8.989  0.0314 -0.2287  0.2528
 1876DOPS   C1A22007  19.776  18.488   9.529 -0.2795  0.0561  0.2189
 1876DOPS   D2A22008  19.982  18.674   9.881  0.0676  0.2630  0.1545
 1876DOPS   C3A22009  20.395  18.693  10.059 -0.1308 -0.1582 -0.0247
 1876DOPS   C4A22010  20.731  19.062   9.998 -0.0733 -0.2162  0.1742
 1876DOPS   C1B22011  18.961  18.876   9.228 -0.0045 -0.1833 -0.0060
 1876DOPS   D2B22012  18.574  18.897   9.452  0.0586 -0.1572  0.0422
 1876DOPS   C3B22013  18.620  18.651   9.877 -0.2001 -0.4393  0.0926
 1876DOPS   C4B22014  18.695  18.697  10.272  0.4357  0.3010  0.3176
 1877DOPC   NC322015  15.224  23.499   8.831 -0.3502  0.1520 -0.1616
 1877DOPC   PO422016  14.833  23.635   8.858  0.1632 -0.0763 -0.2393
 1877DOPC   GL122017  14.824  23.287   9.095 -0.1915 -0.0732 -0.3486
 1877DOPC   GL222018  15.004  23.415   9.340 -0.0782 -0.0728  0.2071
 1877DOPC   C1A22019  15.121  22.936   9.244 -0.1103  0.0956  0.3048
 1877DOPC   D2A22020  15.210  22.805   9.691 -0.0603  0.0475 -0.3853
 1877DOPC   C3A22021  14.996  22.843  10.098  0.1785 -0.1879  0.1071
 1877DOPC   C4A22022  14.875  23.164  10.358  0.0949  0.0249 -0.0877
 1877DOPC   C1B22023  14.695  23.145   9.471 -0.3238  0.0805  0.0387
 1877DOPC   D2B22024  14.414  22.796   9.533 -0.1394 -0.0084  0.1760
 1877DOPC   C3B22025  14.313  22.386   9.749  0.0559 -0.0222  0.2312
 1877DOPC   C4B22026  13.949  22.342  10.016  0.0381  0.1469  0.2073
 1878POSM   NC322027  14.188  16.015   7.812 -0.1254  0.2985 -0.2144
 1878POSM   PO422028  14.446  15.963   8.132 -0.0546  0.0731  0.3738
 1878POSM   AM122029  14.488  16.056   8.463  0.2345 -0.0362  0.1852
 1878POSM   AM222030  14.342  16.023   8.714  0.3756  0.0446  0.2654
 1878POSM   T1A22031  14.732  16.254   8.838  0.2045  0.2690  0.2011
 1878POSM   C2A22032  15.012  16.346   9.186 -0.2435  0.0818 -0.3043
 1878POSM   C3A22033  15.411  16.318   9.463 -0.0652  0.0149  0.0653
 1878POSM   C1B22034  13.991  15.918   8.740 -0.1983  0.0065 -0.0538
 1878POSM   D2B22035  13.573  15.784   8.887  0.1499  0.0937  0.1857
 1878POSM   C3B22036  13.609  15.766   9.348 -0.1330  0.3026  0.1480
 1878POSM   C4B22037  13.804  15.688   9.823 -0.2339  0.0259 -0.2517
 1879DOPE   NH322038  20.307  15.367   9.091 -0.0351 -0.1654 -0.1759
 1879DOPE   PO422039  20.185  15.663   8.961  0.2806  0.2970  0.3881
 1879DOPE   GL122040  19.963  15.801   9.235 -0.5076 -0.1309  0.0540
 1879DOPE   GL222041  20.035  15.618   9.491 -0.1831 -0.2149 -0.0649
 1879DOPE   C1A22042  19.563  15.814   9.513  0.2194 -0.2739  0.3734
 1879DOPE   D2A22043  19.419  15.577   9.955 -0.0229  0.1658 -0.1599
 1879DOPE   C3A22044  19.229  15.942  10.138  0.2568  0.1506  0.1082
 1879DOPE   C4A22045  18.826  16.068  10.246  0.1006  0.1785 -0.0971
 1879DOPE   C1B22046  19.951  15.527   9.908 -0.0144  0.0481  0.2548
 1879DOPE   D2B22047  20.143  15.274  10.251 -0.0487 -0.2336 -0.1995
 1879DOPE   C3B22048  20.543  15.424  10.177  0.0141 -0.0209  0.1779
 1879DOPE   C4B22049  20.851  15.566  10.422 -0.3528 -0.2509 -0.0447
 1880POSM   NC322050  12.168  17.537   8.879 -0.1738  0.0826 -0.2041
 1880POSM   PO422051  12.209  17.279   8.625 -0.1378  0.2148 -0.2097
 1880POSM   AM122052  12.198  16.922   8.728 -0.0218 -0.0236  0.1201
 1880POSM   AM222053  12.263  16.869   9.018  0.3131 -0.1681  0.0602
 1880POSM   T1A22054  12.505  16.498   8.862 -0.0266  0.2052 -0.0702
 1880POSM   C2A22055  12.625  16.279   9.215  0.1342  0.1935 -0.1744
 1880POSM   C3A22056  12.566  16.172   9.701  0.0834  0.0036  0.1043
 1880POSM   C1B22057  12.374  16.720   9.300 -0.1493 -0.1606  0.2292
 1880POSM   D2B22058  12.733  16.608   9.599 -0.0264 -0.0345  0.2163
 1880POSM   C3B22059  12.701  16.482  10.020  0.0889 -0.0470  0.0914
 1880POSM   C4B22060  13.066  16.316  10.296 -0.0264  0.0419  0.1353
 1881POSM   NC322061  16.511  16.490   8.381 -0.0579  0.1374  0.1217
 1881POSM   PO422062  16.530  16.743   8.625  0.1608 -0.1842  0.2093
 1881POSM   AM122063  16.615  16.562   8.846 -0.1164  0.4225 -0.6059
 1881POSM   AM222064  16.520  16.276   8.922  0.1393 -0.0307 -0.0752
 1881POSM   T1A22065  16.577  16.659   9.370  0.1277  0.2887 -0.2695
 1881POSM   C2A22066  16.715  16.913   9.715  0.1770 -0.2611  0.1209
 1881POSM   C3A22067  16.625  16.994  10.137 -0.0396 -0.0423 -0.0605
 1881POSM   C1B22068  16.380  16.178   9.233  0.2750 -0.0748  0.5313
 1881POSM   D2B22069  16.171  16.070   9.692 -0.2405 -0.4564  0.0274
 1881POSM   C3B22070  15.857  16.323   9.872 -0.0064  0.0404 -0.0921
 1881POSM   C4B22071  15.629  16.527  10.220  0.1835 -0.3192  0.0504
 1882POSM   NC322072  14.591  16.572   8.430 -0.0549 -0.0052 -0.2137
 1882POSM   PO422073  14.293  16.432   8.184 -0.0908 -0.0925  0.1244
 1882POSM   AM122074  14.163  16.376   8.492 -0.0839  0.1356 -0.1389
 1882POSM   AM222075  14.225  16.509   8.779  0.0405  0.0046 -0.0953
 1882POSM   T1A22076  13.736  16.405   8.763  0.1033  0.1607  0.3965
 1882POSM   C2A22077  13.592  16.258   9.160  0.0710  0.2636 -0.0651
 1882POSM   C3A22078  13.536  16.247   9.622 -0.0903  0.2763 -0.0897
 1882POSM   C1B22079  14.176  16.338   9.059 -0.2293  0.0249 -0.0006
 1882POSM   D2B22080  13.972  16.128   9.449 -0.1892 -0.2723 -0.0722
 1882POSM   C3B22081  14.018  16.182   9.864 -0.0431  0.2503  0.3191
 1882POSM   C4B22082  14.008  16.304  10.335  0.1097 -0.1216 -0.0283
 1883DOPS   CNO22083  24.630  19.196   9.986  0.0017  0.2279 -0.0500
 1883DOPS   PO422084  24.880  19.174  10.261  0.0377  0.0349 -0.4908
 1883DOPS   GL122085  25.043  19.099  10.626 -0.0290 -0.1255  0.2232
 1883DOPS   GL222086  24.735  18.912  10.671  0.0359  0.2929 -0.2631
 1883DOPS   C1A22087  25.453  19.351  10.740  0.1076  0.1800 -0.0443
 1883DOPS   D2A22088  25.370  19.713  11.028  0.1760 -0.3413 -0.0212
 1883DOPS   C3A22089  25.035  19.697  11.356 -0.4261 -0.1447 -0.0837
 1883DOPS   C4A22090  24.555  19.556  11.298  0.1670  0.1449 -0.0291
 1883DOPS   C1B22091  24.748  18.830  11.098 -0.1009  0.0061  0.2833
 1883DOPS   D2B22092  24.802  18.998  11.519  0.0042 -0.0851  0.1163
 1883DOPS   C3B22093  24.973  19.379  11.823 -0.0072  0.3143 -0.1808
 1883DOPS   C4B22094  25.005  19.810  11.977  0.0030 -0.2475  0.0320
 1884POSM   NC322095  20.337  12.204   8.903  0.2240 -0.1773  0.2695
 1884POSM   PO422096  20.683  12.089   8.753 -0.1453 -0.3709  0.1153
 1884POSM   AM122097  20.816  12.019   9.074 -0.0741  0.3108 -0.0845
 1884POSM   AM222098  20.844  11.763   9.293  0.0719  0.2232 -0.3834
 1884POSM   T1A22099  21.103  12.241   9.432  0.0485 -0.1104 -0.1546
 1884POSM   C2A22100  21.182  12.263   9.888  0.1231  0.1363  0.1624
 1884POSM   C3A22101  21.163  12.339  10.324  0.1342  0.3963  0.0056
 1884POSM   C1B22102  20.987  11.819   9.614 -0.1219 -0.1718 -0.1461
 1884POSM   D2B22103  20.987  11.800  10.121 -0.0503  0.1638  0.0203
 1884POSM   C3B22104  21.285  11.829  10.501 -0.0176 -0.1563  0.1543
 1884POSM   C4B22105  21.432  12.160  10.813  0.1903  0.2163 -0.0966
 1885DOPE   NH322106  22.814  15.733   9.423  0.0227  0.0417  0.1245
 1885DOPE   PO422107  22.916  15.950   9.646  0.1559 -0.1825 -0.0806
 1885DOPE   GL122108  23.044  16.112   9.934  0.2214 -0.1349 -0.0122
 1885DOPE   GL222109  22.755  16.242  10.069  0.3691  0.1901  0.0012
 1885DOPE   C1A22110  23.120  16.131  10.437  0.1011 -0.0629 -0.4689
 1885DOPE   D2A22111  23.390  16.169  10.790 -0.0184  0.1962  0.0939
 1885DOPE   C3A22112  23.698  15.977  11.073  0.1084 -0.2397 -0.2508
 1885DOPE   C4A22113  24.103  15.761  11.179 -0.0557 -0.1248 -0.2933
 1885DOPE   C1B22114  22.784  16.728  10.088  0.0992  0.3722 -0.0317
 1885DOPE   D2B22115  22.964  16.893  10.448 -0.0749 -0.0596 -0.3673
 1885DOPE   C3B22116  22.732  16.910  10.824  0.1122  0.3447 -0.3160
 1885DOPE   C4B22117  22.751  17.151  11.198 -0.0627  0.1061  0.0525
 1886DOPE   NH322118  23.966  22.585  10.474 -0.2229 -0.1076 -0.3037
 1886DOPE   PO422119  24.258  22.417  10.426  0.1755 -0.0166  0.0601
 1886DOPE   GL122120  24.170  22.184  10.833 -0.3136 -0.1517 -0.0925
 1886DOPE   GL222121  24.099  21.993  10.671  0.3735  0.2303  0.1127
 1886DOPE   C1A22122  24.490  22.299  11.138 -0.2259  0.1458  0.1516
 1886DOPE   D2A22123  24.705  22.366  11.536  0.0373 -0.0077 -0.3277
 1886DOPE   C3A22124  24.673  22.715  11.770 -0.2062 -0.1223  0.1531
 1886DOPE   C4A22125  24.527  22.831  12.251 -0.0917 -0.1392  0.0646
 1886DOPE   C1B22126  24.292  21.769  11.028 -0.2897 -0.2858 -0.3578
 1886DOPE   D2B22127  24.319  21.701  11.480 -0.0285  0.1011 -0.3540
 1886DOPE   C3B22128  24.288  21.588  11.984 -0.1477  0.2758  0.2116
 1886DOPE   C4B22129  24.506  21.611  12.391 -0.0253 -0.1326  0.0578
 1887DOPE   NH322130  17.895  18.146   8.665  0.2923  0.3988  0.2834
 1887DOPE   PO422131  17.619  17.958   8.629  0.3345 -0.0650 -0.4253
 1887DOPE   GL122132  17.674  17.850   8.988 -0.2843 -0.1532 -0.1711
 1887DOPE   GL222133  17.913  17.590   8.904  0.2516 -0.1197 -0.0721
 1887DOPE   C1A22134  17.847  17.695   9.396  0.0464  0.3329  0.2282
 1887DOPE   D2A22135  18.200  17.731   9.642 -0.0049 -0.0737 -0.2440
 1887DOPE   C3A22136  18.407  18.141   9.623 -0.2870  0.0717  0.0961
 1887DOPE   C4A22137  18.179  18.504   9.696  0.1533  0.1508  0.1413
 1887DOPE   C1B22138  17.535  17.362   9.072  0.1901 -0.1693  0.1772
 1887DOPE   D2B22139  17.459  16.938   9.227  0.2941 -0.0585 -0.0713
 1887DOPE   C3B22140  17.742  16.647   9.408 -0.2424 -0.2660  0.1932
 1887DOPE   C4B22141  17.546  16.381   9.819 -0.0085  0.0953 -0.1312
 1888DOPE   NH322142  12.944  11.227   9.218  0.0238  0.0131  0.0481
 1888DOPE   PO422143  13.143  11.463   9.277 -0.1722  0.2040  0.0564
 1888DOPE   GL122144  13.247  11.663   9.590 -0.0027  0.1901 -0.1174
 1888DOPE   GL222145  12.981  11.660   9.726 -0.2131  0.1058 -0.1232
 1888DOPE   C1A22146  13.240  12.006   9.957 -0.2386  0.2268 -0.1202
 1888DOPE   D2A22147  13.141  12.188  10.343  0.0319  0.3246  0.0649
 1888DOPE   C3A22148  12.792  12.095  10.611 -0.2624 -0.2212 -0.0598
 1888DOPE   C4A22149  12.598  11.984  11.061  0.2837 -0.1884  0.0133
 1888DOPE   C1B22150  12.850  11.785  10.151  0.0055  0.2234  0.1999
 1888DOPE   D2B22151  13.111  11.742  10.571  0.1596 -0.2248  0.0551
 1888DOPE   C3B22152  13.350  11.323  10.566 -0.1196  0.2596 -0.0907
 1888DOPE   C4B22153  13.587  10.891  10.558 -0.1218  0.2854  0.1799
 1889POSM   NC322154  16.737  10.657   9.269  0.0872  0.0093 -0.2310
 1889POSM   PO422155  16.533  10.615   8.923 -0.0670 -0.1106  0.4188
 1889POSM   AM122156  16.348  10.862   9.061  0.1049  0.0025  0.0109
 1889POSM   AM222157  16.128  11.085   8.923  0.1879 -0.0216 -0.0430
 1889POSM   T1A22158  16.180  11.025   9.498  0.0917  0.0001 -0.3010
 1889POSM   C2A22159  16.200  11.431   9.691 -0.0187 -0.0626  0.0707
 1889POSM   C3A22160  16.110  11.822   9.803  0.0983 -0.3021  0.1052
 1889POSM   C1B22161  15.991  11.291   9.114 -0.1313 -0.1895 -0.2601
 1889POSM   D2B22162  15.898  11.638   9.378 -0.0554 -0.3759 -0.3063
 1889POSM   C3B22163  15.514  11.785   9.420 -0.0142  0.2416 -0.3156
 1889POSM   C4B22164  15.126  12.019   9.579 -0.2937  0.0997  0.3280
 1890DOPC   NC322165  24.062  21.017  10.551  0.0954 -0.0188 -0.1775
 1890DOPC   PO422166  23.840  21.308  10.379 -0.2180  0.0192 -0.0963
 1890DOPC   GL122167  23.707  21.550  10.680 -0.0712 -0.0305 -0.2390
 1890DOPC   GL222168  23.894  21.464  10.879  0.1104 -0.0889  0.1854
 1890DOPC   C1A22169  23.284  21.517  10.918  0.0721 -0.1310 -0.1660
 1890DOPC   D2A22170  22.862  21.560  11.063  0.0574 -0.2222  0.3200
 1890DOPC   C3A22171  22.874  21.688  11.494 -0.0094 -0.0651  0.1932
 1890DOPC   C4A22172  22.908  21.603  11.955 -0.3258 -0.0516 -0.2724
 1890DOPC   C1B22173  23.933  21.420  11.289  0.3618  0.2920 -0.0564
 1890DOPC   D2B22174  23.841  21.522  11.680 -0.0850  0.0523 -0.1365
 1890DOPC   C3B22175  23.873  21.185  11.940 -0.1219  0.2642 -0.0764
 1890DOPC   C4B22176  23.714  20.994  12.208  0.2307 -0.1303 -0.3133
 1891DOPC   NC322177  22.617  21.160   9.736 -0.1173 -0.0739  0.3053
 1891DOPC   PO422178  22.870  20.989   9.951  0.1150  0.1281  0.3202
 1891DOPC   GL122179  22.761  21.086  10.299  0.2083  0.0108  0.1810
 1891DOPC   GL222180  22.501  21.208  10.321  0.0732 -0.3396  0.0506
 1891DOPC   C1A22181  22.684  20.814  10.659  0.3871  0.0034 -0.0395
 1891DOPC   D2A22182  22.448  20.993  11.026 -0.1043  0.1296  0.1696
 1891DOPC   C3A22183  22.058  21.232  11.099 -0.0118 -0.0445 -0.1092
 1891DOPC   C4A22184  21.633  21.408  11.146 -0.0030 -0.0125  0.1288
 1891DOPC   C1B22185  22.242  20.844  10.404 -0.2757 -0.2808 -0.1015
 1891DOPC   D2B22186  22.017  20.845  10.817 -0.0270  0.2010  0.2693
 1891DOPC   C3B22187  21.987  20.733  11.239  0.1530  0.0010 -0.3143
 1891DOPC   C4B22188  22.065  20.612  11.690  0.4324  0.1618 -0.1066
 1892POSM   NC322189  15.237  12.370   8.177 -0.1464  0.0732  0.3519
 1892POSM   PO422190  15.520  12.112   8.339 -0.0693 -0.1739 -0.2570
 1892POSM   AM122191  15.592  12.202   8.642  0.3901  0.1288 -0.0877
 1892POSM   AM222192  15.481  12.139   8.898  0.1123 -0.0240  0.0610
 1892POSM   T1A22193  15.785  12.623   8.891  0.0898  0.0035  0.1206
 1892POSM   C2A22194  16.055  12.846   9.243 -0.1208 -0.1267  0.1739
 1892POSM   C3A22195  16.315  13.171   9.485  0.0096 -0.0605 -0.1252
 1892POSM   C1B22196  15.368  12.220   9.186 -0.1206 -0.0643 -0.2633
 1892POSM   D2B22197  15.546  12.429   9.578 -0.2187 -0.0991 -0.0111
 1892POSM   C3B22198  15.470  12.120   9.869  0.0157 -0.1089 -0.1395
 1892POSM   C4B22199  15.762  11.917  10.234  0.2343 -0.0358 -0.1159
 1893POSM   NC322200  24.202  20.700   9.855 -0.4406  0.3548 -0.4531
 1893POSM   PO422201  24.046  20.332   9.811  0.0300 -0.0950  0.0225
 1893POSM   AM122202  23.829  20.250  10.049  0.0954  0.0932  0.2785
 1893POSM   AM222203  23.663  20.380  10.240 -0.0401 -0.0821  0.3350
 1893POSM   T1A22204  23.461  19.946  10.211  0.1545 -0.0397 -0.0980
 1893POSM   C2A22205  23.043  19.952  10.394  0.2360  0.4561  0.0747
 1893POSM   C3A22206  22.677  19.832  10.633  0.2014  0.4119 -0.0861
 1893POSM   C1B22207  23.512  20.330  10.561 -0.2436 -0.0068  0.1769
 1893POSM   D2B22208  23.314  20.549  10.892  0.0790  0.0785  0.2232
 1893POSM   C3B22209  23.252  20.722  11.317  0.0683  0.3183  0.1905
 1893POSM   C4B22210  23.149  20.541  11.695  0.1071  0.1215 -0.1855
 1894DOPS   CNO22211  23.145  15.362   9.291 -0.0515  0.1279  0.0591
 1894DOPS   PO422212  22.812  15.239   9.396  0.1152 -0.1439 -0.2351
 1894DOPS   GL122213  22.711  15.183   9.796  0.0846 -0.1258 -0.1998
 1894DOPS   GL222214  22.749  15.493   9.870  0.1941  0.2062 -0.1305
 1894DOPS   C1A22215  22.683  15.180  10.267  0.4151  0.1660 -0.2121
 1894DOPS   D2A22216  22.573  15.432  10.616 -0.0075 -0.0410 -0.0849
 1894DOPS   C3A22217  22.905  15.596  10.924  0.0893  0.2808  0.1818
 1894DOPS   C4A22218  22.903  16.075  11.030 -0.2656 -0.2525  0.0881
 1894DOPS   C1B22219  22.410  15.535  10.147  0.0787  0.0828  0.1146
 1894DOPS   D2B22220  22.246  15.811  10.451 -0.4922  0.0764  0.1852
 1894DOPS   C3B22221  22.076  15.544  10.801 -0.2045  0.4496 -0.3288
 1894DOPS   C4B22222  22.037  15.078  10.962 -0.1195 -0.1199  0.0489
 1895DOPE   NH322223  23.409  18.103   9.637 -0.1134 -0.2035  0.0009
 1895DOPE   PO422224  23.087  18.021   9.712  0.2631  0.2557  0.0476
 1895DOPE   GL122225  22.975  18.354   9.878  0.1795 -0.0899 -0.2160
 1895DOPE   GL222226  23.210  18.383  10.052 -0.0241 -0.0313 -0.1117
 1895DOPE   C1A22227  22.724  18.358  10.268 -0.0203  0.0186 -0.2358
 1895DOPE   D2A22228  22.779  18.392  10.703 -0.1404 -0.2838 -0.0301
 1895DOPE   C3A22229  22.704  18.087  11.017  0.2395 -0.0025 -0.0969
 1895DOPE   C4A22230  22.978  17.742  11.252 -0.0751  0.0535  0.2154
 1895DOPE   C1B22231  23.101  18.098  10.407  0.3808 -0.2258 -0.1451
 1895DOPE   D2B22232  23.070  17.788  10.674 -0.0082 -0.1499  0.4235
 1895DOPE   C3B22233  23.377  17.654  10.989  0.2870 -0.2425 -0.2680
 1895DOPE   C4B22234  23.611  17.251  10.990 -0.0047 -0.0248  0.0296
 1896DOPC   NC322235  19.327  16.096   7.959 -0.1413  0.0067  0.0795
 1896DOPC   PO422236  19.257  16.102   8.358 -0.0733  0.2588  0.1778
 1896DOPC   GL122237  19.120  15.995   8.710 -0.0010 -0.1595  0.1475
 1896DOPC   GL222238  18.797  15.884   8.700 -0.0926 -0.2054 -0.1789
 1896DOPC   C1A22239  18.879  16.199   9.048  0.2646  0.1413  0.1476
 1896DOPC   D2A22240  19.130  16.330   9.386  0.2173 -0.1602 -0.1648
 1896DOPC   C3A22241  19.377  16.379   9.811 -0.0174 -0.2739 -0.3335
 1896DOPC   C4A22242  19.268  16.510  10.257  0.1549  0.5835  0.2571
 1896DOPC   C1B22243  18.667  15.675   9.070 -0.0484  0.2407 -0.2388
 1896DOPC   D2B22244  18.580  15.529   9.527 -0.0932  0.2252  0.1338
 1896DOPC   C3B22245  18.177  15.337   9.702  0.0550  0.1854  0.1540
 1896DOPC   C4B22246  18.079  14.869   9.908 -0.1156  0.0323 -0.3499
 1897DOPC   NC322247  14.728  15.361   8.173  0.0973  0.0806 -0.0503
 1897DOPC   PO422248  15.115  15.223   8.254  0.4332  0.2064  0.0574
 1897DOPC   GL122249  15.160  15.491   8.655 -0.0639  0.0072  0.0800
 1897DOPC   GL222250  15.488  15.471   8.793 -0.0293  0.0166  0.1465
 1897DOPC   C1A22251  15.126  15.933   8.888  0.1277 -0.1455  0.0389
 1897DOPC   D2A22252  15.347  16.339   8.843  0.1418 -0.1707  0.1129
 1897DOPC   C3A22253  15.601  16.603   9.140 -0.1021 -0.0668  0.1725
 1897DOPC   C4A22254  15.981  16.466   9.410  0.0371 -0.1655 -0.0890
 1897DOPC   C1B22255  15.106  15.389   9.118 -0.0153  0.0422 -0.0847
 1897DOPC   D2B22256  14.779  15.187   9.411 -0.1296 -0.2300  0.3162
 1897DOPC   C3B22257  15.125  15.087   9.710 -0.2035 -0.0177  0.1249
 1897DOPC   C4B22258  15.319  14.675   9.800 -0.0539  0.2374 -0.4516
 1898DOPC   NC322259  17.837  20.501   8.366 -0.0227 -0.1339  0.2139
 1898DOPC   PO422260  17.848  20.127   8.537 -0.2446 -0.0405 -0.2148
 1898DOPC   GL122261  18.024  20.331   8.805  0.2456 -0.2808 -0.3105
 1898DOPC   GL222262  17.813  20.546   8.898 -0.0884  0.4761  0.1948
 1898DOPC   C1A22263  18.121  20.326   9.242 -0.0319 -0.0596  0.0983
 1898DOPC   D2A22264  18.130  20.231   9.688  0.0866  0.0005 -0.1251
 1898DOPC   C3A22265  17.830  20.353  10.083 -0.0774  0.1555  0.1557
 1898DOPC   C4A22266  17.905  20.414  10.545 -0.0557 -0.0632  0.3766
 1898DOPC   C1B22267  17.635  20.279   9.194  0.1678  0.2593 -0.0779
 1898DOPC   D2B22268  17.620  20.227   9.630 -0.2808  0.2136  0.1406
 1898DOPC   C3B22269  17.396  20.195  10.024  0.2115 -0.1967 -0.0137
 1898DOPC   C4B22270  17.389  20.401  10.434  0.0820 -0.0091 -0.1313
 1899DOPE   NH322271  21.255  16.061   9.277  0.0610  0.0615  0.0035
 1899DOPE   PO422272  21.390  16.318   9.091  0.0171  0.0187  0.0545
 1899DOPE   GL122273  21.361  16.621   9.314 -0.0263  0.0346 -0.1903
 1899DOPE   GL222274  21.363  16.452   9.625 -0.0150 -0.0778  0.0311
 1899DOPE   C1A22275  21.420  16.974   9.661  0.0707 -0.0238 -0.0633
 1899DOPE   D2A22276  21.846  17.184   9.730  0.0144 -0.1938 -0.0624
 1899DOPE   C3A22277  21.882  17.096  10.197  0.3625  0.2830 -0.2588
 1899DOPE   C4A22278  22.153  17.360  10.483 -0.0888 -0.1424  0.1551
 1899DOPE   C1B22279  21.521  16.524  10.036  0.4131  0.1374 -0.1257
 1899DOPE   D2B22280  21.361  16.438  10.510 -0.1921 -0.0344  0.1238
 1899DOPE   C3B22281  21.657  16.236  10.852  0.1960  0.0972  0.3381
 1899DOPE   C4B22282  22.029  16.043  10.885  0.2460  0.1564  0.0451
 1900DOPC   NC322283  26.816  20.942  10.909 -0.0141 -0.1028  0.3614
 1900DOPC   PO422284  26.802  21.372  10.971 -0.0114  0.3896 -0.0813
 1900DOPC   GL122285  26.829  21.344  11.377 -0.0959 -0.0195  0.0344
 1900DOPC   GL222286  26.580  21.437  11.443 -0.1041  0.1267 -0.0718
 1900DOPC   C1A22287  26.888  21.347  11.839  0.1121 -0.0926 -0.0707
 1900DOPC   D2A22288  27.183  21.308  12.195 -0.0210 -0.0602  0.0235
 1900DOPC   C3A22289  27.296  21.072  12.511  0.2026  0.1635  0.0503
 1900DOPC   C4A22290  27.581  20.847  12.816 -0.0534  0.2285  0.2930
 1900DOPC   C1B22291  26.401  21.153  11.771  0.1252  0.2996  0.2294
 1900DOPC   D2B22292  26.577  21.192  12.206  0.0150  0.1861  0.0281
 1900DOPC   C3B22293  26.814  20.800  12.149 -0.4249 -0.1464  0.0047
 1900DOPC   C4B22294  27.174  20.501  12.003  0.1269  0.0295 -0.1828
 1901POSM   NC322295  16.258  14.087   8.041 -0.0992 -0.3942 -0.2880
 1901POSM   PO422296  15.971  13.880   8.195 -0.1108 -0.0894 -0.1212
 1901POSM   AM122297  15.865  13.885   8.528  0.0144  0.1391 -0.0534
 1901POSM   AM222298  15.832  13.717   8.759  0.2320  0.2474 -0.2266
 1901POSM   T1A22299  15.967  14.124   8.953 -0.0072 -0.3119 -0.2093
 1901POSM   C2A22300  15.882  14.512   9.229 -0.0051  0.0713  0.0477
 1901POSM   C3A22301  15.768  14.785   9.569  0.1960  0.0139 -0.0550
 1901POSM   C1B22302  15.717  13.744   9.086  0.0976 -0.0359 -0.1686
 1901POSM   D2B22303  15.453  13.925   9.325 -0.1513 -0.0447 -0.1596
 1901POSM   C3B22304  15.597  14.216   9.717 -0.3231  0.2319  0.0585
 1901POSM   C4B22305  15.770  14.446  10.100 -0.2030  0.0247 -0.2888
 1902DOPS   CNO22306  17.455   9.592   9.248 -0.1156 -0.0841  0.0036
 1902DOPS   PO422307  17.248   9.793   9.467  0.0916  0.0397  0.1086
 1902DOPS   GL122308  17.338   9.951   9.833  0.2057 -0.0923 -0.2216
 1902DOPS   GL222309  17.091  10.010   9.918 -0.0348 -0.0754  0.1828
 1902DOPS   C1A22310  17.508   9.839  10.247 -0.1276 -0.0593  0.0637
 1902DOPS   D2A22311  17.516   9.668  10.643 -0.2250  0.0446  0.0512
 1902DOPS   C3A22312  17.910   9.476  10.719  0.0999  0.1521  0.0160
 1902DOPS   C4A22313  18.171   9.197  10.473  0.1459  0.0732 -0.0187
 1902DOPS   C1B22314  17.337  10.384  10.043  0.0390  0.2453 -0.0293
 1902DOPS   D2B22315  17.500  10.768  10.227 -0.0660 -0.1950  0.3151
 1902DOPS   C3B22316  17.614  11.073  10.540  0.1034 -0.0058  0.2349
 1902DOPS   C4B22317  17.755  11.485  10.681 -0.2596 -0.0173  0.1715
 1903DOPE   NH322318  10.940  16.650   8.700 -0.0173 -0.1166 -0.0368
 1903DOPE   PO422319  11.085  16.825   8.925 -0.1741 -0.2882 -0.2990
 1903DOPE   GL122320  11.358  16.847   9.160  0.2056  0.4819  0.2114
 1903DOPE   GL222321  11.402  17.162   9.167  0.1865 -0.2215  0.2003
 1903DOPE   C1A22322  11.545  16.852   9.575  0.1091 -0.2321 -0.2005
 1903DOPE   D2A22323  11.801  16.953   9.998  0.1314  0.1360 -0.2193
 1903DOPE   C3A22324  11.920  16.579  10.236  0.1161  0.3380 -0.3297
 1903DOPE   C4A22325  12.287  16.410  10.510  0.2226  0.2357  0.0310
 1903DOPE   C1B22326  11.539  17.407   9.510  0.3625 -0.2769  0.0483
 1903DOPE   D2B22327  11.727  17.571   9.893 -0.1034  0.3178 -0.1271
 1903DOPE   C3B22328  11.484  17.315  10.215 -0.1571 -0.3629  0.2601
 1903DOPE   C4B22329  11.059  17.202  10.239  0.0089  0.0443 -0.0299
 1904POSM   NC322330  13.084  13.021   8.985  0.1398  0.1057  0.1852
 1904POSM   PO422331  13.382  12.938   8.756  0.1961  0.1775 -0.1535
 1904POSM   AM122332  13.516  12.814   9.029  0.1657  0.3444 -0.0988
 1904POSM   AM222333  13.743  12.651   9.106 -0.1835 -0.1031 -0.1397
 1904POSM   T1A22334  13.240  12.731   9.439 -0.1954  0.2223 -0.0252
 1904POSM   C2A22335  12.853  12.831   9.616 -0.1107  0.1528 -0.0876
 1904POSM   C3A22336  12.658  12.944  10.053 -0.0541 -0.3618 -0.2433
 1904POSM   C1B22337  13.923  12.620   9.393  0.2540 -0.1781  0.1216
 1904POSM   D2B22338  13.892  12.453   9.837  0.1073  0.2409  0.0727
 1904POSM   C3B22339  14.187  12.623  10.231 -0.0523 -0.0632  0.0997
 1904POSM   C4B22340  14.044  12.943  10.503 -0.2751 -0.2142  0.2751
 1905DOPC   NC322341  15.368  16.097   8.101 -0.1932  0.1713 -0.1355
 1905DOPC   PO422342  15.606  16.148   8.411  0.2028 -0.2918  0.0504
 1905DOPC   GL122343  15.691  16.048   8.835 -0.5169  0.0181 -0.0270
 1905DOPC   GL222344  15.918  16.196   8.976  0.3461 -0.1064 -0.4270
 1905DOPC   C1A22345  15.549  15.803   9.227  0.0773  0.0202  0.1132
 1905DOPC   D2A22346  15.276  15.647   9.577  0.0277  0.1770  0.0782
 1905DOPC   C3A22347  14.771  15.733   9.552  0.1436 -0.0465 -0.1735
 1905DOPC   C4A22348  14.353  15.826   9.735 -0.1677 -0.1517 -0.3511
 1905DOPC   C1B22349  16.108  15.793   9.016 -0.0852  0.1024 -0.2809
 1905DOPC   D2B22350  16.431  15.583   9.189  0.0590  0.0370 -0.3038
 1905DOPC   C3B22351  16.520  15.227   8.915  0.0821  0.1134  0.1338
 1905DOPC   C4B22352  16.914  14.984   8.738  0.0421  0.1477  0.0034
 1906DOPS   CNO22353  15.032   9.013   9.321 -0.0398  0.0441 -0.0425
 1906DOPS   PO422354  14.652   8.910   9.290 -0.2455  0.1019  0.2320
 1906DOPS   GL122355  14.586   9.020   9.728  0.2591  0.2791  0.3096
 1906DOPS   GL222356  14.868   8.961   9.761  0.3333 -0.0061 -0.5208
 1906DOPS   C1A22357  14.445   9.300  10.085  0.1223  0.0756  0.3811
 1906DOPS   D2A22358  14.465   9.361  10.576  0.0388 -0.0333 -0.1357
 1906DOPS   C3A22359  14.092   9.301  10.879 -0.0735 -0.0073 -0.0043
 1906DOPS   C4A22360  13.740   9.148  11.145 -0.1623 -0.2622 -0.2932
 1906DOPS   C1B22361  14.760   8.945  10.215  0.1233  0.0779  0.0395
 1906DOPS   D2B22362  14.570   8.903  10.690  0.1289  0.3311 -0.0523
 1906DOPS   C3B22363  14.443   8.576  10.989 -0.2089  0.1676 -0.0002
 1906DOPS   C4B22364  14.397   8.343  11.442 -0.0139  0.1009 -0.1380
 1907DOPC   NC322365  18.409  15.236   8.261  0.1409  0.0269  0.3894
 1907DOPC   PO422366  18.148  15.527   8.296 -0.1525  0.0663  0.1780
 1907DOPC   GL122367  18.216  15.747   8.527 -0.0150 -0.1987 -0.0313
 1907DOPC   GL222368  18.242  15.576   8.788 -0.2291  0.1373  0.3466
 1907DOPC   C1A22369  17.881  15.920   8.830 -0.0083  0.0774  0.1979
 1907DOPC   D2A22370  17.673  15.687   9.191  0.0552 -0.0176  0.0941
 1907DOPC   C3A22371  17.786  15.243   9.265  0.2751 -0.0628 -0.3657
 1907DOPC   C4A22372  18.131  15.072   8.989 -0.1013 -0.2624 -0.5221
 1907DOPC   C1B22373  18.178  15.552   9.216 -0.1629 -0.0500 -0.2624
 1907DOPC   D2B22374  18.052  15.797   9.537 -0.2389 -0.0573  0.3236
 1907DOPC   C3B22375  17.581  15.861   9.630 -0.1760  0.0627 -0.0752
 1907DOPC   C4B22376  17.194  16.105   9.675  0.1513 -0.2348  0.1248
 1908DOPC   NC322377  16.229  14.766   8.105  0.1087 -0.0371 -0.0121
 1908DOPC   PO422378  16.259  14.475   8.320 -0.2280  0.2810 -0.2753
 1908DOPC   GL122379  16.295  14.515   8.777  0.2114  0.2608 -0.1581
 1908DOPC   GL222380  16.596  14.500   8.651 -0.0138 -0.3026  0.0163
 1908DOPC   C1A22381  16.430  14.597   9.231  0.5233  0.0660  0.1493
 1908DOPC   D2A22382  16.532  14.918   9.501  0.0542 -0.0799  0.0291
 1908DOPC   C3A22383  16.724  15.359   9.544  0.1034  0.2116  0.0311
 1908DOPC   C4A22384  16.764  15.817   9.526 -0.1494  0.1510  0.1150
 1908DOPC   C1B22385  16.965  14.410   8.902 -0.1481 -0.2046  0.2696
 1908DOPC   D2B22386  17.232  14.372   9.300  0.1337 -0.3826  0.3045
 1908DOPC   C3B22387  16.964  14.596   9.623 -0.3006  0.0858 -0.0546
 1908DOPC   C4B22388  16.626  14.611   9.955  0.2271 -0.3154  0.3443
 1909DOPE   NH322389  22.085  12.921   8.847  0.1245  0.3110  0.0597
 1909DOPE   PO422390  21.882  12.771   9.080  0.0703  0.2304 -0.3632
 1909DOPE   GL122391  21.744  12.746   9.331 -0.0657 -0.1652  0.2617
 1909DOPE   GL222392  21.547  12.856   9.528 -0.2945 -0.1883 -0.2789
 1909DOPE   C1A22393  21.596  12.351   9.609 -0.1655 -0.3625 -0.1927
 1909DOPE   D2A22394  21.630  12.263  10.062  0.0990 -0.0515  0.1421
 1909DOPE   C3A22395  21.960  12.433  10.300  0.0018 -0.2175  0.0071
 1909DOPE   C4A22396  22.348  12.512  10.527  0.0455 -0.1217  0.1344
 1909DOPE   C1B22397  21.107  12.754   9.398 -0.3082 -0.1583  0.2464
 1909DOPE   D2B22398  20.689  12.596   9.265 -0.0831  0.0387 -0.1510
 1909DOPE   C3B22399  20.240  12.552   9.319 -0.0620  0.1852  0.2709
 1909DOPE   C4B22400  19.833  12.787   9.313 -0.1356  0.1198 -0.0095
 1910DOPC   NC322401  12.802  10.227   9.221  0.2628 -0.2045 -0.2230
 1910DOPC   PO422402  12.511  10.185   9.486 -0.1069 -0.2794 -0.2412
 1910DOPC   GL122403  12.571  10.361   9.832 -0.2836  0.0709 -0.1118
 1910DOPC   GL222404  12.338  10.534   9.779 -0.1102  0.1788  0.3142
 1910DOPC   C1A22405  12.775  10.115  10.110 -0.0925 -0.0593  0.2649
 1910DOPC   D2A22406  13.099   9.876  10.451  0.0544 -0.0787 -0.1439
 1910DOPC   C3A22407  13.007   9.649  10.871  0.4598  0.1303  0.0679
 1910DOPC   C4A22408  13.336   9.728  11.191  0.3596 -0.1306  0.0822
 1910DOPC   C1B22409  12.308  10.266  10.187 -0.0284 -0.0495  0.0961
 1910DOPC   D2B22410  12.520  10.138  10.558  0.1367  0.2487 -0.0173
 1910DOPC   C3B22411  12.494  10.408  10.951  0.0949  0.0501  0.3265
 1910DOPC   C4B22412  12.528  10.286  11.392 -0.2006 -0.1725  0.3077
 1911DOPC   NC322413  21.253  24.151   9.512 -0.2965 -0.1034  0.1328
 1911DOPC   PO422414  20.906  24.128   9.737  0.1831  0.1265  0.1983
 1911DOPC   GL122415  20.656  24.275  10.004  0.1560 -0.0233 -0.0568
 1911DOPC   GL222416  20.844  24.314  10.223  0.3776  0.1736  0.0317
 1911DOPC   C1A22417  20.203  24.086  10.038 -0.0976 -0.1069  0.0363
 1911DOPC   D2A22418  19.885  23.860  10.214 -0.0823  0.0609 -0.3949
 1911DOPC   C3A22419  19.460  24.056  10.306  0.2671 -0.1256  0.0734
 1911DOPC   C4A22420  19.245  24.388  10.485 -0.0945 -0.2909  0.1730
 1911DOPC   C1B22421  21.050  23.970  10.394  0.2534 -0.0382 -0.0881
 1911DOPC   D2B22422  21.388  23.712  10.574  0.4678  0.1921  0.1256
 1911DOPC   C3B22423  21.316  23.994  10.929  0.0443 -0.0702 -0.2890
 1911DOPC   C4B22424  21.297  24.013  11.390  0.2601 -0.0271 -0.1398
 1912POSM   NC322425  19.453  23.429   9.411  0.0670  0.0208  0.2303
 1912POSM   PO422426  19.104  23.434   9.236 -0.0494 -0.1610 -0.0135
 1912POSM   AM122427  18.930  23.371   9.503 -0.1226  0.1520 -0.0522
 1912POSM   AM222428  18.963  23.474   9.792 -0.2167  0.1790  0.0534
 1912POSM   T1A22429  18.787  23.003   9.863 -0.3800 -0.2719 -0.0107
 1912POSM   C2A22430  19.000  22.641  10.050 -0.1388  0.1150  0.3058
 1912POSM   C3A22431  19.037  22.297  10.387  0.0820 -0.2239  0.1326
 1912POSM   C1B22432  19.187  23.315   9.976  0.0029  0.3943 -0.0506
 1912POSM   D2B22433  19.384  22.970  10.226  0.0671 -0.1323  0.3484
 1912POSM   C3B22434  19.130  22.710  10.542  0.4472 -0.0841  0.0851
 1912POSM   C4B22435  18.694  22.563  10.685 -0.2780  0.3064 -0.0943
 1913DOPE   NH322436  17.213  17.885   8.282 -0.1533  0.1141  0.3428
 1913DOPE   PO422437  16.976  17.922   8.522 -0.2151  0.0306 -0.1373
 1913DOPE   GL122438  16.798  17.730   8.719 -0.1340  0.3416 -0.1032
 1913DOPE   GL222439  16.660  17.764   9.020 -0.0083 -0.2161 -0.0323
 1913DOPE   C1A22440  16.925  17.367   8.972  0.1656 -0.1223  0.1110
 1913DOPE   D2A22441  17.097  17.248   9.436  0.3821  0.1801  0.2179
 1913DOPE   C3A22442  16.933  17.347   9.842  0.0550  0.1079  0.0094
 1913DOPE   C4A22443  17.105  17.660  10.222 -0.3131  0.1647 -0.1287
 1913DOPE   C1B22444  16.598  18.060   9.383 -0.0616  0.0874  0.0768
 1913DOPE   D2B22445  16.622  18.399   9.692 -0.0960  0.3532  0.0182
 1913DOPE   C3B22446  16.664  18.453  10.121  0.0201  0.3203  0.0019
 1913DOPE   C4B22447  16.865  18.122  10.439 -0.1176  0.0601 -0.0493
 1914DOPS   CNO22448  18.643  14.368   7.967  0.0940  0.0994  0.0685
 1914DOPS   PO422449  18.518  14.713   7.957 -0.1064  0.0047 -0.1668
 1914DOPS   GL122450  18.500  14.636   8.344  0.2729 -0.4717  0.3817
 1914DOPS   GL222451  18.409  14.823   8.569  0.0761  0.2538  0.0699
 1914DOPS   C1A22452  18.574  14.430   8.731 -0.0183  0.1915  0.1402
 1914DOPS   D2A22453  18.735  14.381   9.185  0.5286 -0.1086 -0.1844
 1914DOPS   C3A22454  18.635  14.141   9.572 -0.0574  0.3753 -0.1296
 1914DOPS   C4A22455  18.352  13.988   9.936 -0.2576 -0.0117 -0.2232
 1914DOPS   C1B22456  18.643  14.970   8.936 -0.3205 -0.0709  0.1667
 1914DOPS   D2B22457  18.774  15.019   9.330  0.0691  0.1483  0.0186
 1914DOPS   C3B22458  18.814  14.667   9.623 -0.1420 -0.1848 -0.0469
 1914DOPS   C4B22459  18.582  14.497   9.967  0.2672  0.0021  0.1948
 1915DOPC   NC322460  19.149  24.390   9.539  0.2549 -0.0095 -0.0442
 1915DOPC   PO422461  18.993  24.767   9.464  0.2820 -0.0956  0.3764
 1915DOPC   GL122462  19.098  24.787   9.817 -0.0849  0.0135 -0.0467
 1915DOPC   GL222463  19.408  24.755   9.792 -0.0980 -0.0677  0.0895
 1915DOPC   C1A22464  18.840  24.608  10.161  0.1921  0.4355 -0.1815
 1915DOPC   D2A22465  18.771  24.409  10.620  0.2727  0.0336 -0.1441
 1915DOPC   C3A22466  18.405  24.550  10.889 -0.1199  0.0362 -0.0427
 1915DOPC   C4A22467  18.308  24.312  11.291  0.1209 -0.0777 -0.1267
 1915DOPC   C1B22468  19.549  24.605  10.168  0.3649  0.4716  0.5178
 1915DOPC   D2B22469  19.805  24.364  10.461  0.1690  0.1360 -0.2796
 1915DOPC   C3B22470  19.618  24.374  10.881 -0.1504 -0.1090 -0.1650
 1915DOPC   C4B22471  19.596  24.507  11.321 -0.1274 -0.0451  0.4219
 1916DOPE   NH322472  14.278  14.698   8.605 -0.0225 -0.2335 -0.2832
 1916DOPE   PO422473  14.508  14.483   8.719 -0.1930 -0.1542  0.1169
 1916DOPE   GL122474  14.748  14.198   8.829 -0.1708  0.1903  0.3482
 1916DOPE   GL222475  14.460  14.075   8.966 -0.0393 -0.0671  0.1450
 1916DOPE   C1A22476  14.884  14.045   9.233  0.2244  0.1107  0.3652
 1916DOPE   D2A22477  15.001  13.866   9.664 -0.1689 -0.1373 -0.0393
 1916DOPE   C3A22478  14.741  13.890  10.028 -0.4223 -0.0088  0.0239
 1916DOPE   C4A22479  14.284  13.839  10.140 -0.1178 -0.1384 -0.0648
 1916DOPE   C1B22480  14.364  14.186   9.401 -0.3107  0.5043  0.0731
 1916DOPE   D2B22481  14.441  14.249   9.864  0.2198  0.0890  0.4331
 1916DOPE   C3B22482  14.032  14.464   9.948  0.1453  0.0647 -0.0847
 1916DOPE   C4B22483  13.787  14.741  10.231  0.0398  0.0978 -0.0237
 1917DOPE   NH322484  16.347  18.462   8.629 -0.1038  0.0156 -0.0458
 1917DOPE   PO422485  16.542  18.715   8.629  0.2148 -0.2191  0.3278
 1917DOPE   GL122486  16.647  18.996   8.854 -0.0042  0.1060  0.1421
 1917DOPE   GL222487  16.816  18.798   8.994 -0.1272  0.0261  0.1694
 1917DOPE   C1A22488  16.339  19.080   9.186  0.2906 -0.1159  0.0271
 1917DOPE   D2A22489  15.953  19.288   9.412 -0.1926 -0.0870  0.2063
 1917DOPE   C3A22490  15.682  19.090   9.709  0.2273  0.0983 -0.0919
 1917DOPE   C4A22491  15.762  19.155  10.156  0.1698  0.3826  0.0653
 1917DOPE   C1B22492  16.660  18.863   9.465 -0.1194 -0.0004 -0.0218
 1917DOPE   D2B22493  16.619  19.032   9.878  0.4389  0.0016 -0.2370
 1917DOPE   C3B22494  16.214  19.207   9.914  0.0697  0.0489  0.7184
 1917DOPE   C4B22495  15.993  19.609   9.808  0.0837  0.1015  0.0814
 1918POSM   NC322496  25.773  22.604  10.386 -0.1215  0.0085 -0.0272
 1918POSM   PO422497  25.606  22.564  10.744 -0.3857  0.2266 -0.1407
 1918POSM   AM122498  25.496  22.337  10.986 -0.1810  0.1520 -0.1348
 1918POSM   AM222499  25.654  22.312  11.222 -0.1739 -0.0403  0.0943
 1918POSM   T1A22500  25.041  22.235  11.187 -0.1171 -0.1853  0.1610
 1918POSM   C2A22501  24.724  21.880  11.348 -0.2712  0.3902  0.1524
 1918POSM   C3A22502  24.633  21.941  11.840  0.0866 -0.2216  0.3485
 1918POSM   C1B22503  25.548  22.280  11.540  0.0601 -0.1066  0.0781
 1918POSM   D2B22504  25.178  22.355  11.843 -0.2816  0.0717  0.1948
 1918POSM   C3B22505  25.066  22.776  12.003  0.0016 -0.1525  0.0280
 1918POSM   C4B22506  24.953  23.107  12.282  0.2145  0.0985 -0.2540
 1919POSM   NC322507  21.554  22.787   9.943  0.1186 -0.1181 -0.0601
 1919POSM   PO422508  21.584  22.982   9.604  0.0434 -0.5487  0.0393
 1919POSM   AM122509  21.351  23.115   9.746  0.1264  0.1416  0.2576
 1919POSM   AM222510  21.333  23.208  10.002  0.2024 -0.0362 -0.1332
 1919POSM   T1A22511  20.933  23.392   9.875 -0.1291  0.2021 -0.2298
 1919POSM   C2A22512  20.752  23.725  10.072 -0.2242 -0.0128  0.1644
 1919POSM   C3A22513  20.435  23.778  10.382  0.2281 -0.0334 -0.0955
 1919POSM   C1B22514  21.488  23.166  10.308 -0.1286 -0.2507  0.1346
 1919POSM   D2B22515  21.721  23.137  10.710 -0.0869 -0.2769 -0.0632
 1919POSM   C3B22516  21.736  22.687  10.786 -0.1808 -0.0299  0.2454
 1919POSM   C4B22517  21.729  22.340  11.114  0.1591  0.3613 -0.2507
 1920DOPC   NC322518  15.962  12.115   9.062  0.3169  0.0028 -0.0783
 1920DOPC   PO422519  16.191  12.078   8.740 -0.2561 -0.0642 -0.0830
 1920DOPC   GL122520  16.406  12.189   9.023  0.0593  0.0375 -0.3454
 1920DOPC   GL222521  16.478  12.424   9.194 -0.2594  0.0176  0.0223
 1920DOPC   C1A22522  16.313  12.111   9.487 -0.3264 -0.2136 -0.0734
 1920DOPC   D2A22523  16.472  12.141   9.887 -0.4540 -0.1707 -0.1941
 1920DOPC   C3A22524  16.242  12.149  10.325 -0.3225 -0.1644 -0.1557
 1920DOPC   C4A22525  16.105  11.749  10.571 -0.0260 -0.2317 -0.0362
 1920DOPC   C1B22526  16.394  12.625   9.607 -0.1292  0.1291  0.0744
 1920DOPC   D2B22527  16.104  12.438   9.924  0.0801 -0.0542  0.1419
 1920DOPC   C3B22528  15.651  12.463  10.162 -0.0459 -0.2441 -0.1822
 1920DOPC   C4B22529  15.191  12.505   9.989 -0.1854  0.4578 -0.1496
 1921DOPC   NC322530  18.946  20.969   9.095  0.1068 -0.1817  0.1547
 1921DOPC   PO422531  18.618  21.203   9.113  0.0656 -0.1073  0.3459
 1921DOPC   GL122532  18.173  21.007   9.163  0.1850  0.2429 -0.0587
 1921DOPC   GL222533  18.304  20.824   9.324  0.0131  0.0384 -0.3039
 1921DOPC   C1A22534  17.895  21.070   9.600 -0.1109  0.1751  0.2268
 1921DOPC   D2A22535  17.629  21.258   9.948  0.1398  0.1863  0.0308
 1921DOPC   C3A22536  17.939  21.485  10.307 -0.1253 -0.2296  0.1736
 1921DOPC   C4A22537  17.955  21.519  10.802  0.2508  0.1989  0.0241
 1921DOPC   C1B22538  17.848  20.659   9.405 -0.0065 -0.3525  0.3048
 1921DOPC   D2B22539  17.542  20.753   9.681 -0.1014 -0.1677 -0.1536
 1921DOPC   C3B22540  17.439  21.101   9.413  0.0371 -0.0904 -0.0859
 1921DOPC   C4B22541  17.244  21.539   9.372  0.1042 -0.2039 -0.1394
 1922DOPC   NC322542  20.335  20.110   9.102  0.1123 -0.1647 -0.2508
 1922DOPC   PO422543  20.136  20.422   9.179  0.2333 -0.0395 -0.0587
 1922DOPC   GL122544  20.236  20.483   9.564  0.0353  0.0744  0.0979
 1922DOPC   GL222545  20.523  20.618   9.635 -0.0605  0.0012  0.1025
 1922DOPC   C1A22546  20.181  20.568  10.035 -0.0740 -0.1455  0.0763
 1922DOPC   D2A22547  20.296  20.565  10.460 -0.1915  0.1292 -0.0439
 1922DOPC   C3A22548  20.028  20.504  10.903 -0.0883  0.1632  0.0271
 1922DOPC   C4A22549  19.745  20.634  11.265  0.2235  0.3478 -0.0250
 1922DOPC   C1B22550  20.731  20.635  10.066 -0.4039 -0.1348 -0.1994
 1922DOPC   D2B22551  20.969  20.394  10.409 -0.3723 -0.0886 -0.1224
 1922DOPC   C3B22552  21.142  20.623  10.775  0.2689 -0.0865 -0.1305
 1922DOPC   C4B22553  21.032  20.706  11.178  0.3061  0.1159 -0.1119
 1923POSM   NC322554  17.537  12.477   9.038 -0.0533 -0.0883 -0.1080
 1923POSM   PO422555  17.674  12.091   9.011  0.2158 -0.0773  0.0349
 1923POSM   AM122556  17.434  12.088   9.262 -0.0318  0.2597  0.1470
 1923POSM   AM222557  17.245  11.896   9.355 -0.2348 -0.0318 -0.0753
 1923POSM   T1A22558  17.512  12.218   9.775  0.0293  0.5005  0.0387
 1923POSM   C2A22559  17.670  12.080  10.188  0.0897  0.1607  0.0523
 1923POSM   C3A22560  17.870  12.205  10.582  0.3415 -0.3948 -0.0024
 1923POSM   C1B22561  17.134  11.762   9.629  0.0416  0.2733  0.4400
 1923POSM   D2B22562  16.992  11.438   9.917  0.0864 -0.1251  0.1692
 1923POSM   C3B22563  17.123  11.169  10.281 -0.1638 -0.2693  0.0036
 1923POSM   C4B22564  17.027  11.020  10.733 -0.1066  0.0230 -0.1698
 1924DOPC   NC322565  13.092  20.280   8.081 -0.0500 -0.2612 -0.1440
 1924DOPC   PO422566  12.970  20.099   8.436 -0.1602  0.1586 -0.0242
 1924DOPC   GL122567  12.851  19.830   8.781  0.2016 -0.1273  0.3681
 1924DOPC   GL222568  13.111  19.836   8.821  0.4479 -0.2102  0.1763
 1924DOPC   C1A22569  12.744  19.609   9.164  0.1733  0.3073 -0.5888
 1924DOPC   D2A22570  12.733  19.564   9.609 -0.3621  0.1543  0.1691
 1924DOPC   C3A22571  12.547  19.196   9.806 -0.3659  0.4077  0.0794
 1924DOPC   C4A22572  12.241  18.906   9.751 -0.0420  0.0575  0.1994
 1924DOPC   C1B22573  13.483  19.892   9.100  0.0467 -0.0432 -0.0709
 1924DOPC   D2B22574  13.607  20.073   9.540  0.4099 -0.1217 -0.3083
 1924DOPC   C3B22575  13.376  20.126   9.960 -0.4415 -0.3008 -0.0783
 1924DOPC   C4B22576  13.469  20.304  10.411  0.0666  0.2574 -0.0426
 1925POSM   NC322577  23.024  17.398   9.497  0.0712  0.2353 -0.0540
 1925POSM   PO422578  23.323  17.654   9.498 -0.0333  0.0796  0.0264
 1925POSM   AM122579  23.299  17.547   9.806 -0.0284  0.2545  0.0058
 1925POSM   AM222580  23.271  17.622  10.072  0.0295 -0.0925 -0.2405
 1925POSM   T1A22581  23.473  17.152  10.114  0.1714 -0.0967 -0.0708
 1925POSM   C2A22582  23.737  16.895  10.366  0.0646 -0.0364  0.0601
 1925POSM   C3A22583  24.054  16.956  10.669 -0.0494  0.1086  0.1608
 1925POSM   C1B22584  23.314  17.460  10.419 -0.0849  0.0173 -0.1856
 1925POSM   D2B22585  23.189  17.237  10.822  0.0846 -0.1892 -0.0520
 1925POSM   C3B22586  23.217  17.199  11.292  0.0698  0.4728 -0.0221
 1925POSM   C4B22587  23.189  17.324  11.737  0.0483 -0.1451 -0.0932
 1926DOPS   CNO22588  20.425  18.617   9.385 -0.1081 -0.0822 -0.0746
 1926DOPS   PO422589  20.571  18.479   9.036  0.2949  0.0839 -0.0085
 1926DOPS   GL122590  20.911  18.666   9.194  0.0792 -0.0492  0.0286
 1926DOPS   GL222591  21.128  18.436   9.126  0.1985  0.0038 -0.1047
 1926DOPS   C1A22592  20.917  18.778   9.613  0.0390 -0.1003  0.3291
 1926DOPS   D2A22593  21.166  18.540   9.968 -0.1123 -0.2827  0.1564
 1926DOPS   C3A22594  21.102  18.673  10.426 -0.1001  0.0123  0.0747
 1926DOPS   C4A22595  21.435  18.805  10.789  0.2975  0.0310  0.2354
 1926DOPS   C1B22596  21.263  18.250   9.556 -0.0752 -0.0830  0.1972
 1926DOPS   D2B22597  21.102  18.011   9.911 -0.2310 -0.0436  0.0432
 1926DOPS   C3B22598  21.027  17.532   9.907  0.2206  0.3019 -0.3726
 1926DOPS   C4B22599  20.999  17.074  10.055 -0.0630  0.1769  0.2997
 1927DOPC   NC322600  15.083  17.377   8.313  0.0898 -0.2414  0.1581
 1927DOPC   PO422601  15.447  17.543   8.403 -0.0876 -0.0619 -0.0737
 1927DOPC   GL122602  15.449  17.494   8.776  0.1706  0.1046  0.1886
 1927DOPC   GL222603  15.194  17.468   8.962 -0.3140 -0.2415  0.2176
 1927DOPC   C1A22604  15.629  17.176   9.020  0.1687 -0.2175 -0.0930
 1927DOPC   D2A22605  15.766  16.963   9.461 -0.2431 -0.2269  0.2530
 1927DOPC   C3A22606  16.203  17.014   9.503 -0.0012  0.0265  0.1184
 1927DOPC   C4A22607  16.595  17.280   9.342  0.1991 -0.0272  0.2662
 1927DOPC   C1B22608  14.854  17.254   9.128  0.0965 -0.0780 -0.3753
 1927DOPC   D2B22609  14.576  17.214   9.523 -0.2514  0.0553  0.1140
 1927DOPC   C3B22610  14.527  17.498   9.918 -0.1456  0.1388 -0.0257
 1927DOPC   C4B22611  14.570  17.940   9.781  0.0835 -0.0464 -0.1084
 1928DOPS   CNO22612  14.507  19.826   8.182 -0.2952 -0.0958  0.2959
 1928DOPS   PO422613  14.716  19.899   8.492 -0.1895 -0.0103 -0.0810
 1928DOPS   GL122614  14.769  19.872   8.875  0.0540 -0.5382 -0.3185
 1928DOPS   GL222615  14.920  20.122   8.902  0.1065 -0.0476 -0.0382
 1928DOPS   C1A22616  14.629  20.051   9.342 -0.2427 -0.0463 -0.0782
 1928DOPS   D2A22617  14.614  20.326   9.717 -0.1927  0.3659  0.3992
 1928DOPS   C3A22618  14.800  20.499  10.129  0.3279 -0.1289  0.0211
 1928DOPS   C4A22619  14.595  20.308  10.431 -0.4896  0.1573 -0.0252
 1928DOPS   C1B22620  14.851  20.435   9.209 -0.0500 -0.0127  0.1168
 1928DOPS   D2B22621  15.011  20.615   9.608  0.1008  0.2354 -0.0912
 1928DOPS   C3B22622  15.466  20.451   9.719  0.2287 -0.0267  0.0071
 1928DOPS   C4B22623  15.633  20.098  10.039  0.2048  0.0854  0.2395
 1929DOPE   NH322624  16.457  22.591   8.550 -0.1125 -0.2302 -0.1911
 1929DOPE   PO422625  16.329  22.868   8.555 -0.0511  0.0970  0.4997
 1929DOPE   GL122626  16.552  22.859   8.934 -0.0874 -0.2469 -0.1800
 1929DOPE   GL222627  16.691  22.539   8.968  0.0294 -0.0585  0.3782
 1929DOPE   C1A22628  16.978  22.897   9.161 -0.1857  0.2194 -0.1114
 1929DOPE   D2A22629  17.424  22.861   9.388 -0.0479  0.0085  0.0373
 1929DOPE   C3A22630  17.584  22.475   9.389 -0.1594  0.2132 -0.0289
 1929DOPE   C4A22631  17.559  22.053   9.484 -0.0393 -0.1682 -0.0291
 1929DOPE   C1B22632  16.544  22.294   9.332  0.0735  0.2042 -0.1076
 1929DOPE   D2B22633  16.167  22.155   9.583 -0.1218  0.2914  0.0459
 1929DOPE   C3B22634  16.150  22.414   9.966 -0.1953 -0.2420  0.2723
 1929DOPE   C4B22635  15.904  22.703  10.299 -0.2703  0.0486 -0.1780
 1930DOPE   NH322636  24.534  15.718   9.193  0.1203 -0.0717  0.1700
 1930DOPE   PO422637  24.620  15.425   9.278 -0.0062  0.0059  0.0489
 1930DOPE   GL122638  24.530  15.408   9.712  0.0347  0.1711 -0.1802
 1930DOPE   GL222639  24.473  15.600  10.015  0.0238 -0.0292 -0.1952
 1930DOPE   C1A22640  24.138  15.208   9.961 -0.3543 -0.2568 -0.0583
 1930DOPE   D2A22641  23.925  14.840  10.144 -0.1438 -0.0767 -0.3358
 1930DOPE   C3A22642  23.897  14.740  10.554  0.0341  0.0109 -0.2089
 1930DOPE   C4A22643  24.226  14.876  10.849 -0.0228  0.0108  0.1437
 1930DOPE   C1B22644  24.653  15.632  10.489 -0.4065  0.1589 -0.1099
 1930DOPE   D2B22645  24.503  15.319  10.796  0.2281 -0.0933  0.1876
 1930DOPE   C3B22646  24.335  15.305  11.145 -0.1825  0.0993 -0.3156
 1930DOPE   C4B22647  24.320  15.466  11.560 -0.0286 -0.2375  0.1377
 1931DOPE   NH322648  20.592  17.723   8.921 -0.0052 -0.2646  0.0277
 1931DOPE   PO422649  20.533  17.469   9.106 -0.0971  0.1726  0.2155
 1931DOPE   GL122650  20.467  17.652   9.449 -0.3015 -0.2436 -0.5626
 1931DOPE   GL222651  20.277  17.455   9.602 -0.0491  0.0270 -0.1524
 1931DOPE   C1A22652  20.601  17.833   9.841  0.1155 -0.0694  0.0599
 1931DOPE   D2A22653  20.760  17.774  10.283 -0.0154 -0.0637  0.1462
 1931DOPE   C3A22654  21.211  17.700  10.354 -0.2858 -0.1959  0.1755
 1931DOPE   C4A22655  21.587  17.491  10.478 -0.0891 -0.0549  0.2030
 1931DOPE   C1B22656  20.419  17.309  10.060 -0.0794 -0.2582  0.0218
 1931DOPE   D2B22657  20.658  17.177  10.425  0.0936  0.1260  0.1479
 1931DOPE   C3B22658  21.021  17.366  10.718  0.2563 -0.0761  0.1965
 1931DOPE   C4B22659  21.436  17.209  10.865  0.1045  0.2698 -0.2111
 1932DOPC   NC322660  20.482  14.407   8.742 -0.5565  0.1700 -0.1535
 1932DOPC   PO422661  20.176  14.662   8.695  0.0920  0.0214  0.0829
 1932DOPC   GL122662  20.103  14.448   9.042  0.1614 -0.0072 -0.4673
 1932DOPC   GL222663  20.335  14.509   9.226  0.3340 -0.1001 -0.0889
 1932DOPC   C1A22664  19.744  14.085   9.165 -0.2028 -0.0131  0.0163
 1932DOPC   D2A22665  19.716  13.795   9.524  0.1474 -0.3564 -0.0775
 1932DOPC   C3A22666  19.659  13.860  10.056  0.1315  0.0501  0.3017
 1932DOPC   C4A22667  19.716  13.483  10.285  0.4992 -0.3490 -0.4331
 1932DOPC   C1B22668  20.737  14.646   9.406 -0.2565 -0.1919 -0.2190
 1932DOPC   D2B22669  21.042  14.891   9.605 -0.2460 -0.2324 -0.1794
 1932DOPC   C3B22670  21.064  14.620   9.975 -0.0329  0.1155  0.1349
 1932DOPC   C4B22671  21.095  14.571  10.446  0.0974  0.0498  0.1980
 1933DOPS   CNO22672  25.454  21.650  10.569  0.0119 -0.0374  0.0168
 1933DOPS   PO422673  25.137  21.608  10.752  0.0725 -0.2062  0.0493
 1933DOPS   GL122674  25.196  21.534  11.039 -0.4755  0.0328 -0.2152
 1933DOPS   GL222675  25.524  21.411  11.065 -0.0246  0.0056 -0.3734
 1933DOPS   C1A22676  25.253  21.573  11.503 -0.0836  0.2586  0.1918
 1933DOPS   D2A22677  25.111  21.877  11.687 -0.0461  0.1795  0.2745
 1933DOPS   C3A22678  25.022  21.677  12.071 -0.0332 -0.0338 -0.0518
 1933DOPS   C4A22679  24.995  21.563  12.538 -0.0234 -0.3021 -0.1647
 1933DOPS   C1B22680  25.525  21.161  11.488  0.1816  0.2357  0.2533
 1933DOPS   D2B22681  25.384  21.151  11.919  0.1306  0.1162  0.2328
 1933DOPS   C3B22682  25.363  21.218  12.407  0.0079 -0.0804 -0.0718
 1933DOPS   C4B22683  25.549  20.869  12.669 -0.0215 -0.2087 -0.2732
 1934DOPS   CNO22684  22.467  22.833   9.576 -0.4472 -0.0881  0.1975
 1934DOPS   PO422685  22.609  22.921   9.889 -0.0518 -0.0091  0.1775
 1934DOPS   GL122686  22.399  22.976  10.134  0.2707 -0.2685  0.0138
 1934DOPS   GL222687  22.500  22.781  10.381  0.3284 -0.1254 -0.2333
 1934DOPS   C1A22688  22.001  22.930  10.275  0.2188  0.1379  0.2417
 1934DOPS   D2A22689  21.971  22.491  10.387 -0.1237  0.2617  0.0721
 1934DOPS   C3A22690  21.939  22.121  10.673  0.3206  0.0559  0.2070
 1934DOPS   C4A22691  22.071  21.732  10.919  0.2676  0.0094  0.0695
 1934DOPS   C1B22692  22.233  22.823  10.808 -0.0895 -0.0897 -0.2121
 1934DOPS   D2B22693  22.193  22.969  11.234 -0.2875  0.1782 -0.0153
 1934DOPS   C3B22694  22.489  23.302  11.416  0.1521 -0.0771 -0.1417
 1934DOPS   C4B22695  22.484  23.645  11.745  0.2088  0.1100  0.0524
 1935DOPC   NC322696  21.967  20.091   9.160  0.2728 -0.1927 -0.2705
 1935DOPC   PO422697  21.706  20.240   9.474  0.2872 -0.2755 -0.1282
 1935DOPC   GL122698  21.790  20.390   9.901  0.2802  0.1083  0.0916
 1935DOPC   GL222699  21.768  20.688   9.874 -0.0901 -0.3652  0.1271
 1935DOPC   C1A22700  21.385  20.306  10.162 -0.3156 -0.0216 -0.1401
 1935DOPC   D2A22701  21.489  20.251  10.636  0.1529  0.0988 -0.2445
 1935DOPC   C3A22702  21.618  20.582  10.940 -0.0358  0.1384 -0.2550
 1935DOPC   C4A22703  21.458  20.930  11.150  0.1818 -0.1945  0.0617
 1935DOPC   C1B22704  21.322  20.780  10.020  0.0470 -0.0045  0.2061
 1935DOPC   D2B22705  21.137  21.073  10.260  0.1402 -0.0083 -0.0197
 1935DOPC   C3B22706  20.760  20.871  10.561 -0.0959  0.3713  0.1968
 1935DOPC   C4B22707  20.626  20.456  10.817 -0.2352  0.0681 -0.0823
 1936DOPS   CNO22708  12.737  12.810   8.674 -0.1151  0.0749 -0.0460
 1936DOPS   PO422709  12.635  13.133   8.842  0.2249  0.0650  0.2070
 1936DOPS   GL122710  12.686  13.186   9.182 -0.0077 -0.4973 -0.1706
 1936DOPS   GL222711  12.481  13.113   9.415 -0.0879 -0.1074  0.0169
 1936DOPS   C1A22712  13.027  13.311   9.437  0.1322 -0.1635  0.1266
 1936DOPS   D2A22713  13.111  13.311   9.898  0.2430  0.0738  0.2149
 1936DOPS   C3A22714  12.916  13.575  10.225 -0.3279  0.0857 -0.0328
 1936DOPS   C4A22715  12.866  13.991  10.425  0.0291 -0.0052 -0.1387
 1936DOPS   C1B22716  12.583  13.431   9.795  0.0850 -0.3209 -0.1560
 1936DOPS   D2B22717  12.506  13.770  10.075 -0.2789 -0.0362  0.0449
 1936DOPS   C3B22718  12.465  14.146   9.954  0.0260 -0.0947  0.0116
 1936DOPS   C4B22719  12.144  14.407   9.841  0.1364  0.0133  0.0512
 1937DOPS   CNO22720  15.105  16.870   8.254 -0.0972 -0.0928 -0.0966
 1937DOPS   PO422721  14.784  16.994   8.362  0.0486  0.0707 -0.0365
 1937DOPS   GL122722  14.740  16.989   8.763  0.2153 -0.0616 -0.0344
 1937DOPS   GL222723  14.742  16.734   8.887  0.3140 -0.1071 -0.1393
 1937DOPS   C1A22724  14.336  17.001   8.985 -0.1387 -0.1485 -0.0339
 1937DOPS   D2A22725  14.099  17.174   9.367  0.0339  0.0249  0.0717
 1937DOPS   C3A22726  14.045  16.979   9.785  0.0567  0.0425 -0.3840
 1937DOPS   C4A22727  13.898  16.694  10.098  0.0304  0.2915 -0.0325
 1937DOPS   C1B22728  14.659  16.739   9.345  0.2716 -0.1176 -0.1129
 1937DOPS   D2B22729  14.998  16.531   9.645  0.0315  0.1888  0.1106
 1937DOPS   C3B22730  15.407  16.708   9.746  0.0105 -0.1264  0.0431
 1937DOPS   C4B22731  15.600  17.051   9.976 -0.0378  0.0899  0.0417
 1938DOPC   NC322732  17.588  21.803   8.962 -0.1816  0.2008 -0.2622
 1938DOPC   PO422733  17.472  22.080   8.688 -0.3565  0.3106  0.1635
 1938DOPC   GL122734  17.335  22.208   9.076 -0.0487  0.0600 -0.0121
 1938DOPC   GL222735  17.252  22.458   8.949 -0.0205  0.0082  0.2436
 1938DOPC   C1A22736  16.998  21.965   9.232 -0.0387  0.3113 -0.0835
 1938DOPC   D2A22737  16.589  21.801   9.426 -0.0265 -0.0109 -0.1834
 1938DOPC   C3A22738  16.592  21.797   9.921 -0.1541  0.1558  0.0205
 1938DOPC   C4A22739  16.907  21.949  10.312 -0.1785  0.2206 -0.0967
 1938DOPC   C1B22740  17.039  22.403   9.392 -0.0339 -0.0143 -0.2010
 1938DOPC   D2B22741  17.036  22.090   9.764 -0.1565 -0.2498  0.0253
 1938DOPC   C3B22742  17.333  22.266  10.031 -0.0683 -0.0092 -0.0608
 1938DOPC   C4B22743  17.528  22.660   9.971  0.2889 -0.1161 -0.1067
 1939DOPE   NH322744  24.390  11.707   9.935  0.1568 -0.1242 -0.3841
 1939DOPE   PO422745  24.558  11.655  10.193  0.2151 -0.1176  0.4178
 1939DOPE   GL122746  24.353  11.386  10.375  0.2166 -0.2281 -0.2322
 1939DOPE   GL222747  24.103  11.507  10.292  0.1044  0.0805 -0.0508
 1939DOPE   C1A22748  24.215  11.262  10.789 -0.1401  0.5192  0.1466
 1939DOPE   D2A22749  24.101  10.943  11.043  0.3862  0.4208  0.0720
 1939DOPE   C3A22750  24.115  10.963  11.479  0.1854  0.2103  0.1740
 1939DOPE   C4A22751  24.245  10.941  11.982  0.2639 -0.1804  0.0871
 1939DOPE   C1B22752  23.949  11.743  10.654  0.0210  0.1639  0.2674
 1939DOPE   D2B22753  24.024  11.939  11.050  0.0217  0.1558 -0.0488
 1939DOPE   C3B22754  24.216  11.885  11.476  0.1152  0.3127 -0.0035
 1939DOPE   C4B22755  24.474  11.948  11.859  0.0016  0.1969  0.2050
 1940DOPE   NH322756  12.831  19.328   7.847  0.2358 -0.0693 -0.1800
 1940DOPE   PO422757  12.785  19.330   8.164 -0.3378  0.0905 -0.4080
 1940DOPE   GL122758  12.825  19.407   8.595  0.1175 -0.0700  0.2521
 1940DOPE   GL222759  13.041  19.360   8.786  0.0879 -0.4632  0.2284
 1940DOPE   C1A22760  12.475  19.245   8.911  0.1151  0.2350  0.1827
 1940DOPE   D2A22761  12.333  19.347   9.365  0.0255  0.1672 -0.4269
 1940DOPE   C3A22762  12.177  19.738   9.558  0.1351 -0.2138 -0.4530
 1940DOPE   C4A22763  11.763  19.861   9.824  0.2174 -0.0145  0.1805
 1940DOPE   C1B22764  12.999  19.200   9.173  0.2181 -0.0449  0.1347
 1940DOPE   D2B22765  12.707  18.935   9.369 -0.0482  0.1161 -0.0762
 1940DOPE   C3B22766  12.990  18.599   9.515  0.5727 -0.3995  0.0798
 1940DOPE   C4B22767  13.217  18.587   9.889 -0.1372  0.0749 -0.0798
 1941POSM   NC322768  19.077  13.769   8.419  0.1561  0.3857 -0.3579
 1941POSM   PO422769  19.452  13.628   8.461  0.2341  0.2006  0.1209
 1941POSM   AM122770  19.506  13.689   8.802 -0.0396  0.1453  0.0460
 1941POSM   AM222771  19.648  13.571   9.025 -0.0591 -0.0585 -0.1840
 1941POSM   T1A22772  19.324  13.906   9.187  0.1781 -0.1209  0.0952
 1941POSM   C2A22773  19.279  14.349   9.399  0.0921  0.2597 -0.0188
 1941POSM   C3A22774  19.318  14.757   9.682 -0.4936 -0.1650  0.1145
 1941POSM   C1B22775  19.796  13.359   9.195  0.0397  0.0168 -0.0439
 1941POSM   D2B22776  19.811  13.312   9.655  0.0078 -0.3042 -0.2538
 1941POSM   C3B22777  19.999  12.888   9.772 -0.0853 -0.1752 -0.1337
 1941POSM   C4B22778  20.297  12.675   9.945 -0.1455 -0.0784  0.2014
 1942DOPS   CNO22779  22.435  21.140   9.283 -0.3696  0.2284  0.1830
 1942DOPS   PO422780  22.055  21.145   9.392 -0.2404 -0.0155 -0.0010
 1942DOPS   GL122781  22.021  21.331   9.675 -0.1213  0.2289  0.2191
 1942DOPS   GL222782  21.707  21.165   9.743 -0.0883  0.2508 -0.1822
 1942DOPS   C1A22783  22.116  21.395  10.148 -0.0715  0.0815 -0.0676
 1942DOPS   D2A22784  21.970  21.229  10.551  0.1693 -0.4871  0.1368
 1942DOPS   C3A22785  21.530  21.319  10.689  0.1351  0.1499  0.0406
 1942DOPS   C4A22786  21.197  21.567  10.399  0.0633  0.3025 -0.0957
 1942DOPS   C1B22787  21.592  21.354  10.190 -0.0399 -0.1955  0.0839
 1942DOPS   D2B22788  21.726  21.703  10.454 -0.1496  0.4242 -0.0664
 1942DOPS   C3B22789  21.554  21.832  10.834 -0.1710 -0.2557  0.2549
 1942DOPS   C4B22790  21.551  21.923  11.289  0.0884 -0.0527 -0.0896
 1943DOPC   NC322791  23.368  12.047   9.394  0.3917 -0.0698  0.3954
 1943DOPC   PO422792  23.005  12.122   9.510 -0.1406  0.0255 -0.0036
 1943DOPC   GL122793  22.910  12.262   9.955 -0.2630 -0.0214  0.2604
 1943DOPC   GL222794  22.978  12.521   9.940 -0.0362  0.0074  0.0305
 1943DOPC   C1A22795  22.738  12.033  10.284 -0.1583 -0.1229  0.1558
 1943DOPC   D2A22796  22.323  11.845  10.378  0.0706 -0.1141 -0.3709
 1943DOPC   C3A22797  22.205  11.792  10.830 -0.2255  0.1874 -0.0179
 1943DOPC   C4A22798  21.885  11.556  10.988 -0.2272 -0.0901  0.2304
 1943DOPC   C1B22799  22.865  12.603  10.402 -0.1001 -0.0288 -0.0461
 1943DOPC   D2B22800  22.631  12.856  10.732 -0.4844 -0.1230  0.1793
 1943DOPC   C3B22801  22.644  12.588  11.103 -0.0356 -0.2655  0.0178
 1943DOPC   C4B22802  22.689  12.435  11.539 -0.1019  0.0359 -0.1782
 1944DOPE   NH322803  13.867  15.245   8.196 -0.0001 -0.0060 -0.5557
 1944DOPE   PO422804  13.862  15.547   8.147  0.1483  0.0085 -0.0884
 1944DOPE   GL122805  13.891  15.464   8.607 -0.1343  0.5333  0.3593
 1944DOPE   GL222806  13.987  15.146   8.681 -0.1010  0.1450  0.1827
 1944DOPE   C1A22807  13.967  15.509   9.082  0.2328 -0.1427 -0.0648
 1944DOPE   D2A22808  13.825  15.300   9.491 -0.1587 -0.1911  0.3861
 1944DOPE   C3A22809  14.120  15.257   9.865 -0.0883  0.0072 -0.1620
 1944DOPE   C4A22810  14.235  15.077  10.253  0.1249  0.2369 -0.1471
 1944DOPE   C1B22811  13.849  14.905   9.047 -0.0766  0.0110  0.2075
 1944DOPE   D2B22812  13.560  14.911   9.353  0.0663  0.0942 -0.1664
 1944DOPE   C3B22813  13.160  14.713   9.188  0.3269 -0.1523 -0.1315
 1944DOPE   C4B22814  12.847  14.431   9.110  0.0262 -0.1619 -0.0319
 1945DOPS   CNO22815  19.765  15.593   8.585  0.2723  0.1267 -0.2085
 1945DOPS   PO422816  19.700  15.946   8.497 -0.1549 -0.0280  0.4882
 1945DOPS   GL122817  19.639  15.998   8.850 -0.2524 -0.5041  0.0305
 1945DOPS   GL222818  19.448  16.179   8.933  0.1606 -0.1438 -0.1296
 1945DOPS   C1A22819  19.826  16.207   9.219 -0.0035 -0.1465  0.0225
 1945DOPS   D2A22820  20.217  16.121   9.491  0.1778  0.0256 -0.0867
 1945DOPS   C3A22821  20.248  15.898   9.922  0.2079 -0.1825 -0.1436
 1945DOPS   C4A22822  20.555  15.959  10.207 -0.2802  0.1890 -0.2873
 1945DOPS   C1B22823  19.173  15.824   9.088 -0.1740 -0.0127 -0.0190
 1945DOPS   D2B22824  19.056  15.493   9.322  0.0907 -0.0431 -0.3262
 1945DOPS   C3B22825  19.209  15.229   9.608  0.3460  0.0274 -0.0416
 1945DOPS   C4B22826  19.082  15.148  10.045  0.1637  0.0090  0.3484
 1946DOPS   CNO22827  22.430  19.863   9.287 -0.3591  0.3167  0.3410
 1946DOPS   PO422828  22.112  19.683   9.419 -0.2032  0.0866 -0.0663
 1946DOPS   GL122829  22.252  19.591   9.874 -0.1516  0.2409 -0.3032
 1946DOPS   GL222830  22.191  19.302   9.841  0.0965  0.4120 -0.0984
 1946DOPS   C1A22831  22.370  19.954  10.137  0.0158  0.0456  0.5275
 1946DOPS   D2A22832  22.180  20.405  10.121  0.1308 -0.3145 -0.2344
 1946DOPS   C3A22833  21.804  20.494  10.366 -0.3816  0.1491 -0.0160
 1946DOPS   C4A22834  21.494  20.826  10.502  0.1158 -0.1009 -0.1654
 1946DOPS   C1B22835  21.835  19.097  10.043  0.0346  0.1272 -0.0183
 1946DOPS   D2B22836  21.530  18.760  10.281 -0.0912  0.0812  0.0311
 1946DOPS   C3B22837  21.731  18.359  10.478 -0.0484  0.1149  0.2097
 1946DOPS   C4B22838  21.814  18.155  10.871  0.2042 -0.0664 -0.0478
 1947DOPE   NH322839  14.386  20.296   8.438 -0.0052  0.0292 -0.0312
 1947DOPE   PO422840  14.238  20.560   8.595 -0.0517 -0.0510 -0.0570
 1947DOPE   GL122841  14.145  20.711   9.036  0.0399 -0.4422  0.4790
 1947DOPE   GL222842  14.364  20.613   9.184 -0.1451  0.3807  0.0056
 1947DOPE   C1A22843  13.686  20.726   9.204 -0.1467  0.1454 -0.1801
 1947DOPE   D2A22844  13.244  20.644   9.274  0.3040 -0.1557 -0.1066
 1947DOPE   C3A22845  13.160  20.189   9.349  0.1241  0.0900  0.2420
 1947DOPE   C4A22846  13.192  19.778   9.484 -0.2698 -0.0135  0.0576
 1947DOPE   C1B22847  14.356  21.162   9.082 -0.1282 -0.2801  0.0452
 1947DOPE   D2B22848  14.314  21.507   9.289 -0.1357  0.1763 -0.0486
 1947DOPE   C3B22849  14.318  21.481   9.733  0.0007  0.4614 -0.0627
 1947DOPE   C4B22850  14.427  21.412  10.175 -0.3071 -0.1104  0.2212
 1948DOPE   NH322851  18.125  19.467   8.454  0.2593  0.3669 -0.0086
 1948DOPE   PO422852  18.164  19.369   8.786  0.1225 -0.3450  0.1762
 1948DOPE   GL122853  18.111  19.352   9.187  0.1432 -0.1874  0.0016
 1948DOPE   GL222854  18.375  19.503   9.226 -0.1266 -0.0544 -0.0824
 1948DOPE   C1A22855  18.246  19.294   9.625 -0.1241 -0.3051 -0.3040
 1948DOPE   D2A22856  18.335  19.120  10.023 -0.0210 -0.0502  0.4681
 1948DOPE   C3A22857  18.183  19.527  10.279  0.1984  0.1796  0.0708
 1948DOPE   C4A22858  18.095  20.011  10.318  0.0335 -0.2266  0.0152
 1948DOPE   C1B22859  18.744  19.348   9.485 -0.0862  0.2575  0.0132
 1948DOPE   D2B22860  18.873  19.083   9.768 -0.1971 -0.0089 -0.0990
 1948DOPE   C3B22861  19.004  19.256  10.206  0.1472  0.2753  0.0157
 1948DOPE   C4B22862  19.321  19.460  10.449  0.1827 -0.0784  0.2395
 1949POSM   NC322863  23.607  14.327   9.091 -0.1316  0.0192 -0.0992
 1949POSM   PO422864  23.715  14.377   9.440 -0.0721  0.3702 -0.0008
 1949POSM   AM122865  23.767  14.367   9.779 -0.1275  0.0232 -0.0165
 1949POSM   AM222866  23.615  14.470   9.948 -0.4018 -0.0903 -0.0470
 1949POSM   T1A22867  23.944  14.316  10.296  0.4377 -0.0297 -0.0105
 1949POSM   C2A22868  24.007  13.952  10.556 -0.2235  0.0252  0.0644
 1949POSM   C3A22869  24.051  13.734  10.987  0.0146 -0.4037  0.2583
 1949POSM   C1B22870  23.512  14.585  10.266  0.4729  0.0212 -0.1742
 1949POSM   D2B22871  23.353  14.606  10.746  0.1002 -0.0914  0.0222
 1949POSM   C3B22872  23.698  14.507  11.005 -0.0603  0.2133 -0.0478
 1949POSM   C4B22873  24.002  14.636  11.279  0.0384 -0.2295  0.0069
 1950DOPC   NC322874  21.713  18.088   9.487 -0.1805 -0.1953  0.3287
 1950DOPC   PO422875  21.934  17.884   9.191 -0.3689 -0.0387  0.2387
 1950DOPC   GL122876  21.991  17.651   9.606  0.3313 -0.1273  0.3066
 1950DOPC   GL222877  22.258  17.737   9.726 -0.2029  0.1483 -0.1470
 1950DOPC   C1A22878  21.891  17.619  10.051  0.0156  0.0847 -0.3787
 1950DOPC   D2A22879  21.923  17.854  10.480 -0.2607  0.1401 -0.1509
 1950DOPC   C3A22880  21.902  17.561  10.900 -0.1005  0.0829  0.1960
 1950DOPC   C4A22881  21.919  17.582  11.412  0.0142  0.0074  0.2849
 1950DOPC   C1B22882  22.367  17.754  10.188  0.1659  0.2323 -0.2145
 1950DOPC   D2B22883  22.606  17.969  10.522 -0.0959 -0.4326 -0.1939
 1950DOPC   C3B22884  22.337  17.788  10.833 -0.2539  0.1311  0.2545
 1950DOPC   C4B22885  22.436  17.555  11.163  0.1603  0.1470 -0.0351
 1951DOPC   NC322886  20.369  17.001   8.990 -0.1563  0.1642 -0.3901
 1951DOPC   PO422887  20.071  16.786   8.865  0.1962  0.0079  0.3554
 1951DOPC   GL122888  20.016  16.954   9.333  0.1057  0.4380 -0.1900
 1951DOPC   GL222889  19.954  16.725   9.490 -0.0228 -0.2842  0.1570
 1951DOPC   C1A22890  19.821  17.161   9.674 -0.0681  0.1316 -0.1836
 1951DOPC   D2A22891  19.811  17.608   9.794 -0.2346 -0.1133  0.0923
 1951DOPC   C3A22892  19.534  17.999   9.713  0.1696  0.1981  0.2673
 1951DOPC   C4A22893  19.486  18.415   9.922 -0.3872  0.0635  0.0770
 1951DOPC   C1B22894  19.892  16.357   9.793 -0.0810  0.1149 -0.0417
 1951DOPC   D2B22895  19.745  16.027  10.083  0.0654 -0.0484  0.2021
 1951DOPC   C3B22896  19.513  16.170  10.443  0.0146  0.3053 -0.0881
 1951DOPC   C4B22897  19.432  16.451  10.875 -0.0561  0.2783  0.0465
 1952DOPE   NH322898  18.864  25.365   9.623 -0.2390  0.1564 -0.2643
 1952DOPE   PO422899  18.659  25.457   9.833  0.0883 -0.1143  0.0769
 1952DOPE   GL122900  18.633  25.275  10.120 -0.2844  0.0504  0.0254
 1952DOPE   GL222901  18.900  25.123  10.198 -0.0321  0.0180 -0.1663
 1952DOPE   C1A22902  18.459  24.887  10.276  0.2194  0.0322 -0.1752
 1952DOPE   D2A22903  18.329  24.433  10.377 -0.0593 -0.2975  0.0162
 1952DOPE   C3A22904  18.080  24.238  10.690 -0.1411 -0.0308  0.0569
 1952DOPE   C4A22905  17.777  24.015  10.906  0.2110 -0.0524  0.2991
 1952DOPE   C1B22906  19.319  24.963  10.344  0.0243 -0.0701  0.0903
 1952DOPE   D2B22907  19.664  24.878  10.627 -0.3134 -0.2125  0.1614
 1952DOPE   C3B22908  19.621  24.982  11.091  0.1697  0.0834  0.5300
 1952DOPE   C4B22909  19.790  25.061  11.504  0.3597  0.1728 -0.0645
 1953POSM   NC322910  20.623  23.419   9.389  0.2202 -0.0771 -0.0452
 1953POSM   PO422911  20.661  23.042   9.408  0.2044 -0.3811  0.3130
 1953POSM   AM122912  20.702  22.973   9.724  0.0582 -0.0607 -0.2193
 1953POSM   AM222913  20.847  22.844   9.941  0.1946  0.0276  0.1372
 1953POSM   T1A22914  20.605  23.227  10.165 -0.0449  0.1226 -0.1796
 1953POSM   C2A22915  20.644  23.397  10.574  0.0313 -0.1304  0.0742
 1953POSM   C3A22916  21.038  23.586  10.843  0.1379  0.1451 -0.0698
 1953POSM   C1B22917  21.042  22.849  10.161 -0.1807 -0.0455  0.1805
 1953POSM   D2B22918  21.352  22.715  10.450  0.3518 -0.1059  0.0116
 1953POSM   C3B22919  21.275  22.584  10.913  0.1710 -0.0456  0.0310
 1953POSM   C4B22920  21.097  22.219  11.136  0.2320  0.1803 -0.2509
 1954DOPE   NH322921  16.365  17.651   8.432  0.2479  0.0315 -0.2334
 1954DOPE   PO422922  16.360  17.907   8.613 -0.2205  0.0950 -0.1355
 1954DOPE   GL122923  16.011  17.742   8.791  0.0150 -0.0358  0.0723
 1954DOPE   GL222924  16.059  17.430   8.765 -0.2687  0.2179  0.0689
 1954DOPE   C1A22925  15.705  17.714   9.152  0.1457  0.2937 -0.1417
 1954DOPE   D2A22926  15.394  17.620   9.521  0.0241  0.1851 -0.0323
 1954DOPE   C3A22927  15.271  17.231   9.418 -0.0861 -0.1446 -0.1560
 1954DOPE   C4A22928  15.138  16.785   9.280  0.1670 -0.0215  0.3455
 1954DOPE   C1B22929  16.231  17.556   9.179  0.0369 -0.2847 -0.5595
 1954DOPE   D2B22930  16.464  17.628   9.619 -0.1963  0.1608  0.1743
 1954DOPE   C3B22931  16.345  17.312   9.906 -0.0942 -0.3858  0.1310
 1954DOPE   C4B22932  16.068  16.919  10.039 -0.0010 -0.0838 -0.0631
 1955DOPC   NC322933  16.996  18.645   8.541 -0.2645  0.0855 -0.1184
 1955DOPC   PO422934  17.174  18.310   8.698 -0.0601 -0.0331 -0.0455
 1955DOPC   GL122935  17.073  18.054   9.076 -0.4906 -0.0461  0.3878
 1955DOPC   GL222936  17.233  17.894   8.943 -0.2370  0.0726  0.0667
 1955DOPC   C1A22937  17.066  18.158   9.525  0.1190  0.0126  0.1277
 1955DOPC   D2A22938  17.064  18.235   9.990  0.0119  0.0006  0.0569
 1955DOPC   C3A22939  17.342  18.157  10.358  0.3445  0.1494  0.0890
 1955DOPC   C4A22940  17.708  18.026  10.606  0.0610  0.2853 -0.2231
 1955DOPC   C1B22941  17.129  17.710   9.327 -0.1287 -0.3333  0.1367
 1955DOPC   D2B22942  17.397  17.682   9.697  0.1127 -0.3063 -0.0928
 1955DOPC   C3B22943  17.640  18.043   9.747  0.2473 -0.0960 -0.1518
 1955DOPC   C4B22944  17.984  18.154  10.025 -0.0140 -0.0668 -0.0689
 1956DOPS   CNO22945  12.203  10.764   9.385  0.0827 -0.1151  0.1509
 1956DOPS   PO422946  11.888  10.875   9.554 -0.7487  0.1445  0.0492
 1956DOPS   GL122947  11.739  11.133   9.904  0.0184 -0.3006  0.2337
 1956DOPS   GL222948  11.491  11.022  10.121 -0.1005  0.1317  0.5573
 1956DOPS   C1A22949  11.729  11.519  10.170 -0.0642 -0.1016  0.0442
 1956DOPS   D2A22950  11.543  12.002  10.239  0.1196 -0.2480  0.2494
 1956DOPS   C3A22951  11.790  12.188  10.554  0.0566  0.1329 -0.1122
 1956DOPS   C4A22952  11.803  12.583  10.849 -0.1963  0.1858 -0.0227
 1956DOPS   C1B22953  11.795  11.066  10.455 -0.0050  0.0310  0.1526
 1956DOPS   D2B22954  11.985  10.928  10.873  0.1224 -0.1043 -0.2223
 1956DOPS   C3B22955  12.480  10.990  10.857 -0.3788  0.0093  0.1742
 1956DOPS   C4B22956  12.758  11.131  10.474  0.0311  0.2129  0.0229
 1957DOPE   NH322957  15.618  19.870   8.246  0.1278 -0.3113  0.1151
 1957DOPE   PO422958  15.795  20.118   8.285 -0.1159  0.0936 -0.2579
 1957DOPE   GL122959  15.911  19.995   8.694 -0.3005  0.2528 -0.5343
 1957DOPE   GL222960  16.163  20.237   8.624 -0.2163  0.1250  0.0335
 1957DOPE   C1A22961  15.752  20.034   9.140  0.0914 -0.3912 -0.0753
 1957DOPE   D2A22962  15.644  19.660   9.413 -0.0637  0.0603 -0.1258
 1957DOPE   C3A22963  15.496  19.618   9.858  0.2261  0.2278  0.1015
 1957DOPE   C4A22964  15.084  19.579  10.110 -0.0377 -0.4976  0.1227
 1957DOPE   C1B22965  16.080  20.453   9.042  0.1844 -0.3139  0.0386
 1957DOPE   D2B22966  16.304  20.823   9.214  0.0193 -0.1618 -0.2820
 1957DOPE   C3B22967  16.254  21.146   9.531  0.0915  0.2539  0.0483
 1957DOPE   C4B22968  16.359  21.390   9.884  0.0185  0.3029  0.0422
 1958DOPE   NH322969  17.615  16.275   8.258 -0.3055 -0.1141 -0.0596
 1958DOPE   PO422970  17.290  16.309   8.206 -0.0596 -0.2815 -0.1128
 1958DOPE   GL122971  17.273  16.488   8.613 -0.0727 -0.3040 -0.1498
 1958DOPE   GL222972  17.016  16.261   8.682  0.1949 -0.3363 -0.1371
 1958DOPE   C1A22973  17.065  16.615   9.046  0.0972  0.2904 -0.0566
 1958DOPE   D2A22974  17.114  16.566   9.525  0.2622 -0.2290  0.0080
 1958DOPE   C3A22975  16.716  16.331   9.663 -0.4217  0.2110  0.0491
 1958DOPE   C4A22976  16.345  16.524   9.756 -0.1696 -0.0030  0.4745
 1958DOPE   C1B22977  17.291  15.896   8.868 -0.2406 -0.2767  0.0651
 1958DOPE   D2B22978  17.172  15.696   9.300  0.1116  0.1680  0.0088
 1958DOPE   C3B22979  17.291  15.333   9.568 -0.0481 -0.2784  0.0410
 1958DOPE   C4B22980  17.593  14.956   9.705  0.1608 -0.0054 -0.0759
 1959DOPS   CNO22981  23.561  23.509  10.557 -0.1008 -0.1272  0.3905
 1959DOPS   PO422982  23.310  23.738  10.750  0.0073 -0.0359  0.0714
 1959DOPS   GL122983  23.209  23.819  11.185  0.0421 -0.2278 -0.2171
 1959DOPS   GL222984  22.926  23.697  11.211  0.1153  0.1602 -0.1257
 1959DOPS   C1A22985  23.476  23.876  11.582 -0.0259  0.2958 -0.1492
 1959DOPS   D2A22986  23.490  23.818  12.030  0.2129 -0.0417 -0.1121
 1959DOPS   C3A22987  23.829  24.111  12.218  0.0872  0.3182  0.1470
 1959DOPS   C4A22988  24.132  24.329  12.491 -0.1185  0.2445 -0.0832
 1959DOPS   C1B22989  22.880  24.055  11.523 -0.0403  0.1691  0.0672
 1959DOPS   D2B22990  22.586  24.177  11.846 -0.3684  0.0144  0.2259
 1959DOPS   C3B22991  22.803  24.384  12.236  0.0322  0.1562  0.1407
 1959DOPS   C4B22992  23.050  24.751  12.263  0.0861  0.1798  0.1677
 1960DOPE   NH322993  21.895  16.449   9.217  0.0249  0.3340 -0.2863
 1960DOPE   PO422994  22.083  16.351   9.454  0.2201  0.0368 -0.0773
 1960DOPE   GL122995  22.147  16.040   9.744  0.1916  0.1044  0.3060
 1960DOPE   GL222996  22.426  15.857   9.782 -0.0927  0.2539  0.0596
 1960DOPE   C1A22997  21.938  15.767  10.063 -0.1853  0.2207  0.0639
 1960DOPE   D2A22998  21.975  15.384  10.354  0.3383 -0.0015  0.0570
 1960DOPE   C3A22999  22.211  15.051  10.203  0.2108 -0.3018  0.0622
 1960DOPE   C4A23000  22.157  14.624  10.158  0.0137 -0.0668  0.0709
 1960DOPE   C1B23001  22.285  16.161  10.131  0.0927 -0.0738  0.4225
 1960DOPE   D2B23002  21.901  16.179  10.370  0.0561 -0.5396 -0.0351
 1960DOPE   C3B23003  21.456  16.041  10.206 -0.0859 -0.2764 -0.1998
 1960DOPE   C4B23004  21.405  15.578  10.157 -0.1086 -0.4412  0.3235
 1961DOPS   CNO23005  19.421  13.101   8.367  0.0415  0.2815  0.2021
 1961DOPS   PO423006  19.154  12.846   8.490 -0.1184  0.1227 -0.0905
 1961DOPS   GL123007  19.008  13.250   8.673 -0.3174 -0.1240  0.2669
 1961DOPS   GL223008  19.323  13.203   8.838  0.1834 -0.4157  0.1342
 1961DOPS   C1A23009  19.052  13.608   8.936 -0.0213 -0.1667  0.0762
 1961DOPS   D2A23010  18.814  13.779   9.293 -0.2240  0.1980  0.3722
 1961DOPS   C3A23011  18.728  13.539   9.686  0.1000  0.2764 -0.2408
 1961DOPS   C4A23012  18.802  13.478  10.140 -0.0408  0.0677  0.0533
 1961DOPS   C1B23013  19.389  13.033   9.255 -0.1266  0.0611 -0.1541
 1961DOPS   D2B23014  19.366  12.892   9.712 -0.1390 -0.1520  0.0865
 1961DOPS   C3B23015  19.634  13.074  10.056 -0.2573 -0.0564  0.1664
 1961DOPS   C4B23016  19.712  12.989  10.470  0.1023 -0.0547 -0.2459
 1962DOPS   CNO23017  20.271  14.029   8.234 -0.1980 -0.1059 -0.0705
 1962DOPS   PO423018  20.363  13.955   8.579  0.1644  0.1935 -0.1488
 1962DOPS   GL123019  20.361  13.911   8.936 -0.1258 -0.0629  0.2113
 1962DOPS   GL223020  20.159  13.693   9.040 -0.2250  0.0616  0.3799
 1962DOPS   C1A23021  20.354  14.049   9.383 -0.1339 -0.0461  0.1555
 1962DOPS   D2A23022  20.484  14.327   9.774  0.0594 -0.0878 -0.0269
 1962DOPS   C3A23023  20.905  14.164   9.727 -0.2133  0.0395  0.1620
 1962DOPS   C4A23024  21.197  14.351   9.384  0.1955 -0.2803 -0.0821
 1962DOPS   C1B23025  20.199  13.562   9.482 -0.0522  0.1190  0.0501
 1962DOPS   D2B23026  20.581  13.649   9.712 -0.0002 -0.0791  0.0731
 1962DOPS   C3B23027  20.601  13.933  10.081 -0.0780  0.1504 -0.3240
 1962DOPS   C4B23028  20.706  14.377  10.223 -0.0675 -0.1985 -0.1030
 1963DOPC   NC323029  17.418  12.934   8.467  0.1397 -0.0164 -0.0775
 1963DOPC   PO423030  17.238  12.764   8.753 -0.1201  0.1220 -0.1899
 1963DOPC   GL123031  17.092  12.977   9.054 -0.0190  0.1327 -0.3298
 1963DOPC   GL223032  17.178  13.246   9.005  0.1695  0.0166  0.0389
 1963DOPC   C1A23033  17.175  13.020   9.512 -0.0493  0.1439 -0.1526
 1963DOPC   D2A23034  17.160  12.926   9.921 -0.1947  0.0300 -0.1891
 1963DOPC   C3A23035  17.537  13.101  10.053 -0.2665  0.2843  0.1680
 1963DOPC   C4A23036  17.827  13.393  10.247 -0.1933 -0.0490 -0.2153
 1963DOPC   C1B23037  17.244  13.497   9.390 -0.1401  0.3265  0.2591
 1963DOPC   D2B23038  16.973  13.599   9.722  0.2065  0.0534  0.2830
 1963DOPC   C3B23039  16.516  13.589   9.850 -0.1056 -0.1085  0.2469
 1963DOPC   C4B23040  16.374  13.640  10.228 -0.0838 -0.0411 -0.1627
 1964DOPC   NC323041  23.750  19.846   9.799  0.1132  0.2814  0.1232
 1964DOPC   PO423042  24.119  19.770   9.695 -0.0216  0.2129  0.0549
 1964DOPC   GL123043  24.183  19.698  10.090  0.2003  0.0528  0.3687
 1964DOPC   GL223044  24.064  19.403  10.053  0.1306 -0.2526  0.2152
 1964DOPC   C1A23045  23.967  20.000  10.417  0.0209 -0.1259 -0.0472
 1964DOPC   D2A23046  23.922  20.069  10.873  0.3134 -0.0738 -0.1763
 1964DOPC   C3A23047  24.297  20.016  11.179  0.0723 -0.1318 -0.1961
 1964DOPC   C4A23048  24.724  20.030  11.159 -0.2965 -0.0789  0.3159
 1964DOPC   C1B23049  24.266  19.363  10.483  0.1297  0.3163  0.4065
 1964DOPC   D2B23050  24.435  19.272  10.916 -0.0358 -0.0281  0.0491
 1964DOPC   C3B23051  24.084  19.479  11.148  0.3366  0.0415 -0.4644
 1964DOPC   C4B23052  23.777  19.792  11.264  0.2572 -0.1948  0.0353
 1965DOPE   NH323053  22.035  18.945   9.454  0.0569 -0.0184  0.1046
 1965DOPE   PO423054  21.775  18.947   9.237  0.0858 -0.0653 -0.1062
 1965DOPE   GL123055  21.599  18.692   9.495  0.2865  0.0101 -0.1516
 1965DOPE   GL223056  21.511  18.959   9.652 -0.1869  0.1826  0.1846
 1965DOPE   C1A23057  21.673  18.515   9.906 -0.2339  0.0296 -0.2081
 1965DOPE   D2A23058  21.530  18.136  10.123  0.1907 -0.0340  0.2303
 1965DOPE   C3A23059  21.103  18.179  10.404 -0.1410 -0.0634  0.1168
 1965DOPE   C4A23060  20.870  17.950  10.733  0.0617  0.0139 -0.0104
 1965DOPE   C1B23061  21.238  19.032   9.970 -0.0369 -0.1237  0.0732
 1965DOPE   D2B23062  21.351  19.214  10.406  0.3272 -0.0842  0.3014
 1965DOPE   C3B23063  21.794  19.193  10.533  0.0166 -0.1364  0.3148
 1965DOPE   C4B23064  22.226  19.158  10.694 -0.2406  0.0566 -0.1785
 1966DOPC   NC323065  22.187  24.194  10.548 -0.0151 -0.2200 -0.2272
 1966DOPC   PO423066  22.587  24.190  10.439  0.0419  0.1713 -0.3363
 1966DOPC   GL123067  22.469  24.011  10.898 -0.2262  0.4485 -0.1508
 1966DOPC   GL223068  22.439  23.810  10.863 -0.0985  0.1959 -0.0232
 1966DOPC   C1A23069  22.072  24.160  11.039  0.1464  0.1425  0.0816
 1966DOPC   D2A23070  21.750  24.021  11.300  0.0663  0.2883 -0.4410
 1966DOPC   C3A23071  21.972  23.934  11.698 -0.1045  0.2319  0.1031
 1966DOPC   C4A23072  21.983  23.518  11.931 -0.1541 -0.1308 -0.2508
 1966DOPC   C1B23073  22.679  23.375  10.811  0.5174  0.0318  0.1417
 1966DOPC   D2B23074  22.626  23.003  11.034 -0.1140  0.1260  0.1466
 1966DOPC   C3B23075  22.632  22.830  11.474 -0.2063 -0.0242  0.0736
 1966DOPC   C4B23076  22.499  23.052  11.999  0.2202  0.1663  0.1684
 1967POSM   NC323077  17.960  13.401   8.285 -0.1424 -0.0282  0.1836
 1967POSM   PO423078  17.647  13.586   8.206  0.3449 -0.0165 -0.3974
 1967POSM   AM123079  17.584  13.752   8.467 -0.0871 -0.1873  0.0078
 1967POSM   AM223080  17.821  13.825   8.660  0.2476  0.3299  0.3202
 1967POSM   T1A23081  17.416  13.764   8.967 -0.2897 -0.1394 -0.1180
 1967POSM   C2A23082  17.044  13.887   9.154  0.0007 -0.3343  0.0955
 1967POSM   C3A23083  16.700  13.789   9.399  0.0222  0.1798 -0.2397
 1967POSM   C1B23084  17.888  13.957   9.009  0.1100 -0.1458 -0.1307
 1967POSM   D2B23085  17.915  13.895   9.430  0.2580  0.1447  0.5540
 1967POSM   C3B23086  17.474  13.945   9.528  0.1072 -0.1903 -0.2464
 1967POSM   C4B23087  17.033  14.077   9.654  0.0510  0.1385  0.0895
 1968DOPC   NC323088  12.217  18.307   8.347 -0.0692  0.4290 -0.1570
 1968DOPC   PO423089  12.400  18.619   8.268 -0.2746  0.1693  0.1757
 1968DOPC   GL123090  12.580  18.510   8.704 -0.0663 -0.1226 -0.1189
 1968DOPC   GL223091  12.284  18.573   8.806  0.1213 -0.1152 -0.6265
 1968DOPC   C1A23092  12.641  18.381   9.139 -0.1247  0.0878  0.0005
 1968DOPC   D2A23093  12.823  18.061   9.417  0.2747 -0.1685 -0.0737
 1968DOPC   C3A23094  12.719  18.138   9.870  0.3028 -0.0961  0.0451
 1968DOPC   C4A23095  12.649  18.272  10.328 -0.1591  0.0360  0.1138
 1968DOPC   C1B23096  12.287  18.756   9.230  0.2663  0.1799 -0.4086
 1968DOPC   D2B23097  12.477  18.480   9.591  0.1156 -0.0929 -0.1260
 1968DOPC   C3B23098  12.189  18.433   9.936  0.1522  0.2962 -0.3611
 1968DOPC   C4B23099  11.854  18.243  10.185 -0.2711 -0.2569  0.0703
 1969DOPC   NC323100  21.269  21.536   9.021  0.0194  0.1253 -0.1143
 1969DOPC   PO423101  20.992  21.341   9.238 -0.0915 -0.3219  0.1239
 1969DOPC   GL123102  20.773  21.632   9.478  0.2626 -0.1242 -0.0924
 1969DOPC   GL223103  20.559  21.691   9.556  0.1742  0.0902  0.0720
 1969DOPC   C1A23104  20.873  21.752   9.966  0.2060  0.3152  0.2421
 1969DOPC   D2A23105  20.744  21.822  10.407  0.1099  0.0704  0.2243
 1969DOPC   C3A23106  21.138  22.025  10.595 -0.3113  0.2884 -0.0887
 1969DOPC   C4A23107  21.504  22.232  10.446  0.2508 -0.0478 -0.1357
 1969DOPC   C1B23108  20.451  21.469   9.904  0.1411 -0.1304 -0.1213
 1969DOPC   D2B23109  20.563  21.212  10.263 -0.1158  0.0800  0.3308
 1969DOPC   C3B23110  20.762  21.334  10.639  0.1311  0.0324  0.2540
 1969DOPC   C4B23111  21.127  21.100  10.771 -0.2344 -0.1274  0.3182
 1970DOPE   NH323112  20.142  23.012   9.235 -0.0663 -0.0704  0.0252
 1970DOPE   PO423113  19.861  23.126   9.265 -0.2571  0.1363 -0.1591
 1970DOPE   GL123114  19.812  22.965   9.665 -0.1022  0.0405  0.0969
 1970DOPE   GL223115  19.764  23.282   9.755 -0.0660 -0.0747 -0.1177
 1970DOPE   C1A23116  19.533  22.681   9.846 -0.1170 -0.1576  0.1080
 1970DOPE   D2A23117  19.477  22.364  10.174  0.2282 -0.0599  0.1190
 1970DOPE   C3A23118  19.594  22.488  10.597  0.0657 -0.2821 -0.2633
 1970DOPE   C4A23119  20.027  22.454  10.785  0.2364 -0.0908  0.3623
 1970DOPE   C1B23120  19.713  23.406  10.180 -0.0500  0.1611  0.1243
 1970DOPE   D2B23121  19.455  23.462  10.534  0.1388  0.1313  0.1229
 1970DOPE   C3B23122  19.012  23.303  10.488  0.2611  0.2753 -0.0567
 1970DOPE   C4B23123  18.605  23.011  10.365 -0.0569 -0.0169 -0.0902
 1971DOPE   NH323124  14.276  19.698   8.706  0.0438  0.1414 -0.2251
 1971DOPE   PO423125  14.083  19.872   8.541 -0.0590 -0.1863 -0.1276
 1971DOPE   GL123126  13.915  19.891   8.965 -0.3762 -0.4980  0.5511
 1971DOPE   GL223127  14.135  19.793   9.172  0.1822 -0.0537 -0.1395
 1971DOPE   C1A23128  13.943  20.308   9.215  0.1643  0.2101 -0.1259
 1971DOPE   D2A23129  13.874  20.465   9.693 -0.1303 -0.0886 -0.2233
 1971DOPE   C3A23130  14.232  20.597   9.934 -0.3651  0.0020 -0.1259
 1971DOPE   C4A23131  14.547  20.921  10.031 -0.2739  0.0780  0.0391
 1971DOPE   C1B23132  14.045  19.906   9.653  0.0953 -0.1169  0.1114
 1971DOPE   D2B23133  13.849  20.107  10.061  0.1388  0.2021  0.1062
 1971DOPE   C3B23134  13.962  20.346  10.517 -0.1640  0.0187  0.1003
 1971DOPE   C4B23135  14.246  20.552  10.832 -0.2786  0.0785  0.0472
 1972DOPC   NC323136  13.353  15.348   8.047 -0.0795  0.0151 -0.0488
 1972DOPC   PO423137  13.110  15.164   8.268  0.1553  0.1864 -0.0087
 1972DOPC   GL123138  12.978  15.327   8.624  0.4707 -0.4558 -0.0874
 1972DOPC   GL223139  13.033  15.628   8.571  0.1093 -0.1958  0.4659
 1972DOPC   C1A23140  12.983  15.165   9.090  0.0020 -0.1496  0.0673
 1972DOPC   D2A23141  12.710  15.338   9.468 -0.2805 -0.0301 -0.0861
 1972DOPC   C3A23142  12.568  15.062   9.836  0.4100  0.0429 -0.2392
 1972DOPC   C4A23143  12.677  14.784  10.177 -0.2357  0.2579  0.0844
 1972DOPC   C1B23144  12.909  15.628   9.050 -0.0800 -0.0384 -0.3627
 1972DOPC   D2B23145  12.578  15.814   9.350 -0.2537  0.1762  0.3111
 1972DOPC   C3B23146  12.150  15.942   9.414  0.0070 -0.0990 -0.1777
 1972DOPC   C4B23147  11.840  16.214   9.333 -0.0381  0.3727 -0.2529
 1973DOPE   NH323148  23.892  17.300   9.517 -0.1963 -0.3715  0.0100
 1973DOPE   PO423149  23.845  16.970   9.503  0.1076 -0.0212  0.0029
 1973DOPE   GL123150  23.854  16.700   9.901  0.1778  0.0594 -0.0011
 1973DOPE   GL223151  23.612  16.508   9.896  0.1248 -0.0343 -0.2406
 1973DOPE   C1A23152  24.220  16.678  10.245 -0.2087 -0.1472  0.3354
 1973DOPE   D2A23153  24.301  16.469  10.614  0.2569  0.1545  0.0390
 1973DOPE   C3A23154  24.514  16.827  10.824  0.4140  0.0520  0.0028
 1973DOPE   C4A23155  24.896  16.971  11.036 -0.1230 -0.2990  0.0199
 1973DOPE   C1B23156  23.405  16.500  10.283  0.3302 -0.1639 -0.0350
 1973DOPE   D2B23157  23.373  16.789  10.680 -0.0584  0.2130  0.1069
 1973DOPE   C3B23158  23.426  16.762  11.146  0.2258 -0.1935  0.0087
 1973DOPE   C4B23159  23.513  16.894  11.572 -0.1222 -0.0191 -0.1079
 1974DOPS   CNO23160  19.977  21.313   9.019 -0.2193 -0.2986  0.3572
 1974DOPS   PO423161  19.937  21.669   8.883 -0.1228  0.1057  0.1134
 1974DOPS   GL123162  20.058  21.833   9.237  0.0365  0.2987  0.3622
 1974DOPS   GL223163  19.897  21.709   9.395  0.3554 -0.0315 -0.2573
 1974DOPS   C1A23164  20.117  22.006   9.700  0.2519 -0.2514  0.0533
 1974DOPS   D2A23165  19.887  22.280   9.912 -0.0209 -0.1079 -0.0535
 1974DOPS   C3A23166  20.024  22.313  10.251 -0.0730 -0.1595 -0.1861
 1974DOPS   C4A23167  20.418  22.216  10.543  0.4002 -0.0250 -0.1738
 1974DOPS   C1B23168  20.109  21.353   9.519 -0.3627 -0.1774 -0.0047
 1974DOPS   D2B23169  20.170  21.007   9.809 -0.1500 -0.0471 -0.2640
 1974DOPS   C3B23170  20.050  21.207  10.247 -0.0295  0.0240  0.1253
 1974DOPS   C4B23171  20.184  21.067  10.656  0.0666 -0.0355 -0.2203
 1975DOPC   NC323172  15.621  25.995   9.443 -0.3316 -0.3652  0.1008
 1975DOPC   PO423173  15.471  26.268   9.662  0.1839  0.1254 -0.1657
 1975DOPC   GL123174  15.288  26.311  10.073 -0.1114 -0.0655  0.1085
 1975DOPC   GL223175  15.602  26.351  10.197 -0.1002 -0.1276 -0.2304
 1975DOPC   C1A23176  15.135  26.076  10.432  0.0654  0.2706  0.1120
 1975DOPC   D2A23177  15.219  25.797  10.706 -0.0731 -0.1766  0.0177
 1975DOPC   C3A23178  15.380  25.733  11.109 -0.0258  0.0226  0.1698
 1975DOPC   C4A23179  15.704  25.625  11.444  0.1922 -0.4540 -0.1815
 1975DOPC   C1B23180  15.587  26.332  10.642  0.0172  0.0644 -0.2126
 1975DOPC   D2B23181  15.334  26.227  10.961  0.0481  0.1474  0.0692
 1975DOPC   C3B23182  15.251  26.424  11.328  0.2463 -0.2217  0.0788
 1975DOPC   C4B23183  15.092  26.894  11.344 -0.0399 -0.0022  0.1798
 1976POSM   NC323184  20.586  22.226   9.320 -0.0008  0.0633 -0.3583
 1976POSM   PO423185  20.756  22.509   9.451 -0.0933  0.1700  0.3118
 1976POSM   AM123186  20.598  22.495   9.720  0.2327  0.0282 -0.0753
 1976POSM   AM223187  20.483  22.276   9.888  0.1128 -0.0432  0.0042
 1976POSM   T1A23188  20.460  22.684  10.155 -0.0410 -0.1393  0.1994
 1976POSM   C2A23189  20.280  22.809  10.567 -0.0531  0.0597  0.1836
 1976POSM   C3A23190  20.247  23.147  10.866 -0.0589  0.1787 -0.4293
 1976POSM   C1B23191  20.424  22.014  10.090  0.1070 -0.2862  0.1042
 1976POSM   D2B23192  20.225  21.765  10.419 -0.0767 -0.2302  0.0767
 1976POSM   C3B23193  20.010  21.935  10.787 -0.0163  0.2194  0.0881
 1976POSM   C4B23194  19.741  22.152  11.138 -0.1789  0.0947  0.2124
 1977DOPC   NC323195  12.529  17.283   8.216  0.0665  0.3357 -0.0847
 1977DOPC   PO423196  12.922  17.268   8.268 -0.4479 -0.0920  0.0438
 1977DOPC   GL123197  13.197  17.257   8.558  0.2026  0.0621 -0.1353
 1977DOPC   GL223198  13.154  17.501   8.722 -0.1140 -0.2618  0.0543
 1977DOPC   C1A23199  13.289  17.092   8.943  0.0391  0.2255 -0.0364
 1977DOPC   D2A23200  13.424  16.737   9.168 -0.2449 -0.0022 -0.0037
 1977DOPC   C3A23201  13.145  16.434   9.404 -0.1123 -0.0511 -0.1697
 1977DOPC   C4A23202  13.106  16.253   9.817 -0.0352 -0.1948 -0.3586
 1977DOPC   C1B23203  13.121  17.590   9.180 -0.3491 -0.3955  0.2251
 1977DOPC   D2B23204  13.295  17.818   9.467 -0.1379 -0.2437 -0.2063
 1977DOPC   C3B23205  13.126  17.908   9.853  0.2366  0.1044 -0.0014
 1977DOPC   C4B23206  13.232  18.214  10.164  0.0187 -0.1968 -0.0540
 1978POSM   NC323207  19.953  18.889   9.168 -0.1052 -0.0104 -0.5355
 1978POSM   PO423208  19.708  19.133   9.010  0.0263  0.1834  0.1299
 1978POSM   AM123209  19.510  19.124   9.275 -0.1483  0.0045 -0.0475
 1978POSM   AM223210  19.494  18.910   9.459  0.2241 -0.2595  0.0019
 1978POSM   T1A23211  19.204  19.371   9.617 -0.1562 -0.2528  0.1461
 1978POSM   C2A23212  19.192  19.698   9.996  0.2951 -0.0785  0.0251
 1978POSM   C3A23213  19.393  19.993  10.339  0.2531  0.2383  0.1147
 1978POSM   C1B23214  19.503  18.871   9.804 -0.1607 -0.0121 -0.1925
 1978POSM   D2B23215  19.226  18.791  10.106  0.1064 -0.0264  0.0379
 1978POSM   C3B23216  19.023  18.337  10.059  0.2614 -0.2040  0.1384
 1978POSM   C4B23217  19.043  17.909  10.226  0.0235  0.1300  0.3922
 1979DOPE   NH323218  12.967  17.952   8.381  0.1676 -0.1159  0.0026
 1979DOPE   PO423219  12.762  18.201   8.410 -0.0329  0.2354 -0.0133
 1979DOPE   GL123220  12.943  18.215   8.807 -0.3414 -0.0834  0.0685
 1979DOPE   GL223221  12.877  17.973   8.914 -0.0964  0.3035  0.0510
 1979DOPE   C1A23222  13.044  18.626   9.000 -0.1249  0.1997 -0.1960
 1979DOPE   D2A23223  13.406  18.882   8.948  0.0497  0.0946  0.0806
 1979DOPE   C3A23224  13.489  19.319   9.150 -0.0235 -0.2850 -0.0495
 1979DOPE   C4A23225  13.745  19.543   9.420 -0.0329  0.1812 -0.3640
 1979DOPE   C1B23226  12.604  17.720   9.126 -0.0227 -0.2325 -0.3133
 1979DOPE   D2B23227  12.480  17.311   9.240  0.1384 -0.1346  0.0168
 1979DOPE   C3B23228  12.622  17.112   9.675  0.0112  0.1469 -0.2805
 1979DOPE   C4B23229  12.341  16.838   9.978 -0.2599  0.2497 -0.0446
 1980DOPE   NH323230  26.235  21.518  11.079 -0.1316 -0.2491 -0.1584
 1980DOPE   PO423231  25.939  21.664  11.067 -0.1566  0.2468 -0.1628
 1980DOPE   GL123232  25.765  21.592  11.482 -0.0254  0.2873  0.2648
 1980DOPE   GL223233  25.854  21.925  11.484  0.0637 -0.0369 -0.2328
 1980DOPE   C1A23234  25.527  21.688  11.905  0.0441  0.1608  0.1006
 1980DOPE   D2A23235  25.416  21.738  12.321 -0.0393 -0.2553  0.3796
 1980DOPE   C3A23236  25.089  22.078  12.330  0.0542  0.0694 -0.1978
 1980DOPE   C4A23237  24.789  22.430  12.206 -0.1151  0.3727 -0.0068
 1980DOPE   C1B23238  25.825  22.055  11.901 -0.0069 -0.2005 -0.3591
 1980DOPE   D2B23239  25.517  22.240  12.195  0.0252 -0.1255  0.1223
 1980DOPE   C3B23240  25.284  22.574  12.415 -0.0161  0.1433 -0.0984
 1980DOPE   C4B23241  24.889  22.743  12.643 -0.0065  0.1457 -0.0070
 1981DOPS   CNO23242  22.002  14.175   8.929  0.2014 -0.2022 -0.1858
 1981DOPS   PO423243  21.890  13.826   9.005 -0.1530  0.1653  0.0087
 1981DOPS   GL123244  22.036  13.681   9.430 -0.2054  0.3182 -0.4827
 1981DOPS   GL223245  21.856  13.871   9.566  0.1177  0.1710 -0.3592
 1981DOPS   C1A23246  21.812  13.422   9.773 -0.1412  0.1337 -0.2608
 1981DOPS   D2A23247  21.486  13.642  10.029 -0.0798 -0.1690  0.1415
 1981DOPS   C3A23248  21.649  13.484  10.442 -0.0576 -0.1936 -0.0746
 1981DOPS   C4A23249  21.724  13.691  10.858  0.0127 -0.1027 -0.1254
 1981DOPS   C1B23250  21.931  13.824  10.043  0.2400 -0.0426  0.1086
 1981DOPS   D2B23251  22.182  13.672  10.377  0.2459  0.1050  0.1292
 1981DOPS   C3B23252  22.173  13.328  10.653 -0.0068 -0.1452 -0.0052
 1981DOPS   C4B23253  22.156  12.867  10.904 -0.1135  0.0823  0.0332
 1982DOPE   NH323254  14.551  11.688   8.696  0.1775 -0.0700 -0.2551
 1982DOPE   PO423255  14.278  11.836   8.850  0.0140 -0.2315  0.1474
 1982DOPE   GL123256  14.738  12.023   8.989  0.3745  0.0286  0.2235
 1982DOPE   GL223257  14.659  11.769   9.221 -0.0417  0.0227 -0.1530
 1982DOPE   C1A23258  15.042  12.326   8.811  0.0688  0.1475 -0.1286
 1982DOPE   D2A23259  15.180  12.768   8.901 -0.2414  0.0430  0.1326
 1982DOPE   C3A23260  15.061  13.145   9.100 -0.0897 -0.0396 -0.1631
 1982DOPE   C4A23261  15.161  13.584   9.064  0.0199  0.0123  0.1642
 1982DOPE   C1B23262  14.606  12.033   9.597  0.7477 -0.0579  0.1933
 1982DOPE   D2B23263  14.786  12.216   9.963 -0.0321  0.1771 -0.0183
 1982DOPE   C3B23264  14.601  12.053  10.351 -0.0325  0.2453  0.1105
 1982DOPE   C4B23265  14.400  11.739  10.581 -0.1220 -0.4531 -0.1136
 1983DOPE   NH323266  23.198  11.226   9.739  0.0926  0.0518 -0.1133
 1983DOPE   PO423267  23.346  10.975   9.844 -0.1748  0.1325  0.3048
 1983DOPE   GL123268  23.255  11.084  10.208 -0.0770  0.3356 -0.1406
 1983DOPE   GL223269  22.980  11.047  10.157 -0.1036 -0.2169  0.1296
 1983DOPE   C1A23270  23.163  11.202  10.616  0.0511  0.5335 -0.0537
 1983DOPE   D2A23271  23.125  11.164  11.065  0.0896  0.0758 -0.0732
 1983DOPE   C3A23272  23.216  11.511  11.356  0.1184  0.0664 -0.1671
 1983DOPE   C4A23273  22.937  11.821  11.623  0.2089  0.0601 -0.0355
 1983DOPE   C1B23274  22.617  11.106  10.440 -0.0558 -0.2718 -0.1024
 1983DOPE   D2B23275  22.617  10.874  10.850  0.1930  0.3029  0.3559
 1983DOPE   C3B23276  22.205  10.859  11.043 -0.0274 -0.0181  0.2449
 1983DOPE   C4B23277  22.064  10.785  11.510 -0.1820  0.1212  0.3581
 1984POSM   NC323278  23.304  22.723  10.448 -0.1515  0.2455 -0.2328
 1984POSM   PO423279  23.614  22.941  10.563  0.1417 -0.1674  0.1761
 1984POSM   AM123280  23.655  22.814  10.836 -0.3495 -0.0917 -0.3303
 1984POSM   AM223281  23.442  22.749  11.015 -0.0255  0.4486  0.3261
 1984POSM   T1A23282  23.940  22.592  11.208 -0.0059 -0.0796  0.1930
 1984POSM   C2A23283  24.124  22.444  11.629 -0.3479  0.2762 -0.0513
 1984POSM   C3A23284  24.117  22.009  11.863 -0.1847  0.3317 -0.1473
 1984POSM   C1B23285  23.158  22.573  10.994  0.3906  0.2347  0.0937
 1984POSM   D2B23286  22.675  22.533  11.067  0.2956  0.0375  0.0313
 1984POSM   C3B23287  22.549  22.332  11.457  0.3206  0.0023 -0.0688
 1984POSM   C4B23288  22.515  22.029  11.820  0.0467 -0.0082 -0.1797
 1985DOPC   NC323289  24.955  21.148  10.603 -0.2425 -0.1388  0.0460
 1985DOPC   PO423290  25.036  20.853  10.349 -0.3517 -0.1604 -0.4376
 1985DOPC   GL123291  25.118  20.685  10.644 -0.1552  0.2008 -0.4288
 1985DOPC   GL223292  24.942  20.450  10.625  0.5425  0.2953 -0.4924
 1985DOPC   C1A23293  25.162  20.967  11.049 -0.3369 -0.1282  0.0941
 1985DOPC   D2A23294  25.019  20.960  11.505 -0.1557  0.2633 -0.0440
 1985DOPC   C3A23295  24.837  20.897  11.841 -0.1034  0.0679  0.2432
 1985DOPC   C4A23296  24.887  21.174  12.181 -0.1140 -0.1590 -0.0760
 1985DOPC   C1B23297  24.939  20.528  11.045 -0.1682  0.4823  0.2442
 1985DOPC   D2B23298  24.819  20.499  11.470  0.2518 -0.2080 -0.1324
 1985DOPC   C3B23299  24.547  20.187  11.557 -0.0512  0.1396 -0.1967
 1985DOPC   C4B23300  24.578  19.743  11.762 -0.1852 -0.0394 -0.0772
 1986DOPC   NC323301  18.192  14.187   8.440 -0.0021  0.1513 -0.2701
 1986DOPC   PO423302  18.079  13.887   8.172  0.0423  0.4076  0.3487
 1986DOPC   GL123303  18.278  13.773   8.549 -0.0233  0.2267  0.1053
 1986DOPC   GL223304  18.238  13.498   8.701  0.0920 -0.4400 -0.0948
 1986DOPC   C1A23305  18.383  13.893   8.974 -0.1055  0.5106 -0.2008
 1986DOPC   D2A23306  18.228  14.201   9.212  0.2376 -0.3950 -0.1904
 1986DOPC   C3A23307  18.348  14.661   9.173 -0.1802  0.1170  0.2366
 1986DOPC   C4A23308  18.329  14.995   9.439  0.1539 -0.1579 -0.0991
 1986DOPC   C1B23309  17.902  13.475   9.103  0.1937 -0.2018  0.2008
 1986DOPC   D2B23310  17.695  13.343   9.500 -0.2331  0.0346 -0.0015
 1986DOPC   C3B23311  17.439  13.528   9.848  0.2227 -0.2544 -0.1030
 1986DOPC   C4B23312  17.230  13.502  10.271 -0.1484  0.0349 -0.2287
 1987DOPE   NH323313  15.478  10.287   8.927 -0.1442  0.0866  0.2819
 1987DOPE   PO423314  15.808  10.258   9.030  0.2532  0.0921 -0.2245
 1987DOPE   GL123315  15.793  10.316   9.346 -0.2361  0.1021  0.1731
 1987DOPE   GL223316  15.947  10.107   9.530 -0.0498 -0.1032  0.2076
 1987DOPE   C1A23317  15.503  10.256   9.712 -0.0200 -0.0024  0.1926
 1987DOPE   D2A23318  15.427  10.519  10.111  0.1048 -0.0574  0.1458
 1987DOPE   C3A23319  15.638  10.527  10.539 -0.0101  0.2462  0.2683
 1987DOPE   C4A23320  15.574  10.854  10.834  0.1629 -0.2062  0.0389
 1987DOPE   C1B23321  15.903  10.568   9.687  0.0074  0.1179  0.0993
 1987DOPE   D2B23322  15.931  10.971   9.942  0.0611  0.2293  0.2126
 1987DOPE   C3B23323  15.813  10.988  10.426 -0.0734 -0.0029 -0.0390
 1987DOPE   C4B23324  16.092  10.807  10.735 -0.0420  0.0196 -0.1832
 1988DOPE   NH323325  23.659  18.837   9.484 -0.2380  0.1169  0.2434
 1988DOPE   PO423326  23.634  18.663   9.748 -0.0358 -0.3123 -0.3525
 1988DOPE   GL123327  23.681  18.440  10.084  0.3053  0.0962 -0.0875
 1988DOPE   GL223328  23.920  18.533  10.100  0.3212 -0.2465  0.1688
 1988DOPE   C1A23329  23.454  18.507  10.514 -0.1565  0.0898  0.2481
 1988DOPE   D2A23330  23.656  18.590  10.900  0.0185  0.2323  0.1357
 1988DOPE   C3A23331  23.456  18.460  11.279  0.0269  0.1527 -0.0960
 1988DOPE   C4A23332  23.077  18.234  11.393 -0.0306 -0.0423  0.0242
 1988DOPE   C1B23333  23.990  18.344  10.511  0.0519  0.1659  0.1724
 1988DOPE   D2B23334  23.932  18.181  10.970 -0.0636  0.0484  0.1777
 1988DOPE   C3B23335  23.863  17.796  11.232  0.0674 -0.0723 -0.2792
 1988DOPE   C4B23336  23.570  17.496  11.429 -0.0050  0.3778  0.1534
 1989POSM   NC323337  21.217  14.109   8.757 -0.0983  0.4521 -0.0078
 1989POSM   PO423338  20.913  13.987   8.553  0.1226 -0.0304  0.0362
 1989POSM   AM123339  20.866  13.850   8.853 -0.0218  0.0619  0.1229
 1989POSM   AM223340  20.749  13.596   8.894  0.0486  0.0079 -0.1233
 1989POSM   T1A23341  20.879  13.797   9.354  0.0303  0.3080  0.1745
 1989POSM   C2A23342  21.053  13.691   9.809 -0.0152 -0.1871 -0.1002
 1989POSM   C3A23343  21.008  13.631  10.286 -0.0081  0.4030  0.2292
 1989POSM   C1B23344  20.616  13.416   9.162 -0.3431  0.2008 -0.2724
 1989POSM   D2B23345  20.310  13.101   9.390  0.3328  0.0094  0.1205
 1989POSM   C3B23346  20.377  13.207   9.853  0.0237  0.1342 -0.0158
 1989POSM   C4B23347  20.517  13.454  10.190 -0.1854  0.0137 -0.0603
 1990POSM   NC323348  20.464  18.941   9.034  0.1158  0.0106 -0.0270
 1990POSM   PO423349  20.284  19.268   9.114 -0.0347 -0.0856 -0.0728
 1990POSM   AM123350  20.181  19.247   9.448  0.1191 -0.0396  0.0008
 1990POSM   AM223351  19.885  19.239   9.489 -0.1855  0.1422  0.1296
 1990POSM   T1A23352  20.123  19.211   9.952  0.1104 -0.0543 -0.2092
 1990POSM   C2A23353  20.256  19.038  10.394  0.1386 -0.3690 -0.1929
 1990POSM   C3A23354  20.570  18.751  10.506 -0.1507  0.1303 -0.2622
 1990POSM   C1B23355  19.717  19.352   9.716  0.1570  0.0145  0.0739
 1990POSM   D2B23356  19.674  19.270  10.149  0.0739 -0.0187  0.1175
 1990POSM   C3B23357  19.730  18.805  10.288  0.3763 -0.0135 -0.0425
 1990POSM   C4B23358  19.982  18.437  10.296  0.0093 -0.0208 -0.0266
 1991POSM   NC323359  17.391  24.212   8.954 -0.0450  0.0521 -0.1157
 1991POSM   PO423360  17.567  23.884   9.049 -0.1136 -0.1081 -0.0855
 1991POSM   AM123361  17.377  23.771   9.300 -0.0846  0.2137  0.1483
 1991POSM   AM223362  17.424  23.685   9.533  0.3231  0.0561  0.2328
 1991POSM   T1A23363  16.969  23.782   9.599 -0.2531  0.3163  0.0280
 1991POSM   C2A23364  16.608  23.812   9.930  0.4708  0.4464  0.1183
 1991POSM   C3A23365  16.217  23.726  10.046  0.1760  0.2879  0.2852
 1991POSM   C1B23366  17.637  23.691   9.812 -0.0558 -0.2335  0.4090
 1991POSM   D2B23367  17.556  23.539  10.206  0.0238  0.2222 -0.0944
 1991POSM   C3B23368  17.704  23.080  10.262 -0.3259  0.0017 -0.4387
 1991POSM   C4B23369  17.786  22.600  10.427  0.2437  0.0196  0.0150
 1992POSM   NC323370  20.218  17.731   8.367 -0.1236 -0.2165 -0.1319
 1992POSM   PO423371  20.053  17.675   8.702 -0.0960 -0.0093 -0.0721
 1992POSM   AM123372  20.030  17.846   8.943  0.0337  0.2220  0.1509
 1992POSM   AM223373  20.202  17.898   9.173  0.1937  0.1186 -0.2029
 1992POSM   T1A23374  19.707  18.019   9.260  0.0696 -0.0122  0.2464
 1992POSM   C2A23375  19.296  18.290   9.366  0.2094  0.0175  0.1506
 1992POSM   C3A23376  19.130  18.641   9.611  0.0718 -0.2019  0.0404
 1992POSM   C1B23377  20.175  18.059   9.427  0.2644 -0.0035  0.2341
 1992POSM   D2B23378  20.120  18.215   9.810 -0.1555 -0.1719 -0.1355
 1992POSM   C3B23379  19.806  18.030  10.121 -0.3188 -0.1634  0.0679
 1992POSM   C4B23380  19.508  17.815  10.355  0.0389  0.2146 -0.0525
 1993DOPC   NC323381  13.579  19.481   8.569 -0.2554 -0.0478 -0.1922
 1993DOPC   PO423382  13.926  19.307   8.659  0.1386 -0.1884  0.0211
 1993DOPC   GL123383  13.996  19.384   9.108 -0.3959 -0.0218 -0.1566
 1993DOPC   GL223384  14.264  19.240   9.057 -0.3273 -0.0170 -0.1619
 1993DOPC   C1A23385  13.976  19.033   9.424  0.3096 -0.1552  0.1938
 1993DOPC   D2A23386  14.006  18.631   9.681  0.1201 -0.0453 -0.0864
 1993DOPC   C3A23387  13.968  18.201   9.481  0.2232 -0.0726 -0.0098
 1993DOPC   C4A23388  13.780  17.795   9.353 -0.1472  0.0437  0.4119
 1993DOPC   C1B23389  14.562  18.930   8.871  0.1858  0.2605 -0.0282
 1993DOPC   D2B23390  15.029  18.916   8.904  0.0582  0.0433  0.0211
 1993DOPC   C3B23391  15.177  18.757   9.338 -0.1007 -0.0452  0.0122
 1993DOPC   C4B23392  15.242  18.851   9.810 -0.2552 -0.1333 -0.0918
 1994DOPC   NC323393  25.612  14.611   9.643 -0.0349  0.2258 -0.0513
 1994DOPC   PO423394  25.334  14.857   9.491 -0.1731 -0.1032  0.3177
 1994DOPC   GL123395  25.445  15.112   9.786 -0.2810  0.2106  0.1310
 1994DOPC   GL223396  25.394  14.871   9.987  0.0669 -0.0457  0.0027
 1994DOPC   C1A23397  25.175  15.290  10.162  0.1502 -0.1329  0.0459
 1994DOPC   D2A23398  24.964  15.222  10.529 -0.3930 -0.0041  0.3016
 1994DOPC   C3A23399  25.077  15.177  10.954 -0.0528 -0.3301 -0.0044
 1994DOPC   C4A23400  25.329  15.284  11.317  0.2515 -0.3279 -0.2225
 1994DOPC   C1B23401  25.274  14.734  10.395  0.0877 -0.1396  0.1079
 1994DOPC   D2B23402  25.179  14.652  10.852 -0.0630  0.2977  0.1325
 1994DOPC   C3B23403  25.482  14.601  11.201  0.1202  0.2257 -0.3122
 1994DOPC   C4B23404  25.733  14.387  11.479  0.0791  0.0129  0.0766
 1995DOPE   NH323405  21.119  19.875   9.428  0.2534  0.2288  0.1587
 1995DOPE   PO423406  20.918  20.044   9.554 -0.0600  0.0521 -0.0481
 1995DOPE   GL123407  20.801  20.194   9.913 -0.2017 -0.0349 -0.1169
 1995DOPE   GL223408  20.967  19.934  10.074  0.5634  0.3785  0.0893
 1995DOPE   C1A23409  20.490  19.953  10.146  0.0976  0.1530 -0.0141
 1995DOPE   D2A23410  20.356  19.596  10.328 -0.1756  0.3715  0.0288
 1995DOPE   C3A23411  20.358  19.643  10.783 -0.0033 -0.0869 -0.1433
 1995DOPE   C4A23412  20.772  19.701  11.064 -0.0394 -0.0215  0.1200
 1995DOPE   C1B23413  21.169  19.873  10.511  0.4936 -0.1933  0.1369
 1995DOPE   D2B23414  21.339  19.777  10.937  0.2889 -0.3761  0.1509
 1995DOPE   C3B23415  21.764  19.555  10.879  0.3157 -0.0594  0.1264
 1995DOPE   C4B23416  21.899  19.144  11.084 -0.1087  0.1096 -0.1755
 1996DOPC   NC323417  18.708  20.519   9.131 -0.3335 -0.0045  0.1625
 1996DOPC   PO423418  19.082  20.486   9.004 -0.1477 -0.0438  0.0972
 1996DOPC   GL123419  19.133  20.625   9.403  0.0797  0.1580  0.0371
 1996DOPC   GL223420  18.978  20.349   9.552 -0.0612 -0.1516  0.1017
 1996DOPC   C1A23421  19.275  20.693   9.814  0.1366 -0.2750  0.0055
 1996DOPC   D2A23422  19.400  20.561  10.236 -0.2361  0.1511  0.0640
 1996DOPC   C3A23423  19.805  20.333  10.358  0.3028 -0.3594  0.1665
 1996DOPC   C4A23424  20.161  20.066  10.607  0.1930  0.1271  0.0617
 1996DOPC   C1B23425  18.779  20.740   9.657 -0.1450  0.1566  0.0896
 1996DOPC   D2B23426  18.370  20.941   9.766  0.0516  0.1052  0.1745
 1996DOPC   C3B23427  18.028  20.894  10.098  0.2316 -0.1378  0.1591
 1996DOPC   C4B23428  17.695  20.837  10.379  0.2762  0.0005 -0.0728
 1997DOPC   NC323429  24.514  23.279  11.114  0.1838  0.0274 -0.2555
 1997DOPC   PO423430  24.685  23.039  10.847  0.0225 -0.2209  0.2785
 1997DOPC   GL123431  24.884  22.928  11.213 -0.1974  0.1400  0.2504
 1997DOPC   GL223432  24.701  22.751  11.242  0.4035 -0.0037  0.1028
 1997DOPC   C1A23433  25.206  22.722  11.539 -0.2860  0.1440 -0.1524
 1997DOPC   D2A23434  25.537  22.643  11.909  0.2194  0.2502  0.2263
 1997DOPC   C3A23435  25.764  22.675  12.271  0.0712 -0.2111  0.1318
 1997DOPC   C4A23436  25.693  22.733  12.692  0.0451 -0.1630  0.0723
 1997DOPC   C1B23437  24.340  22.852  11.458  0.4519  0.0209 -0.4111
 1997DOPC   D2B23438  24.218  22.795  11.921  0.0153  0.2896  0.2410
 1997DOPC   C3B23439  24.300  22.405  12.134  0.0604  0.3727  0.2961
 1997DOPC   C4B23440  24.202  22.037  12.376  0.4139 -0.1293  0.0410
 1998DOPS   CNO23441  20.383  25.208   9.695 -0.2073 -0.0057 -0.2683
 1998DOPS   PO423442  20.224  24.938   9.950 -0.3054  0.0127 -0.0176
 1998DOPS   GL123443  20.061  24.820  10.342 -0.1709 -0.2178  0.3666
 1998DOPS   GL223444  20.225  24.590  10.305  0.0790 -0.3912 -0.0635
 1998DOPS   C1A23445  20.146  24.780  10.775  0.1363 -0.2104  0.0453
 1998DOPS   D2A23446  20.055  24.458  11.117  0.1799 -0.0384  0.2823
 1998DOPS   C3A23447  20.391  24.088  11.116  0.3860 -0.0035  0.2944
 1998DOPS   C4A23448  20.605  23.811  10.806 -0.2048 -0.1098 -0.0050
 1998DOPS   C1B23449  20.248  24.266  10.631  0.1024  0.0732  0.2038
 1998DOPS   D2B23450  19.960  23.955  10.764  0.1746  0.1237 -0.0964
 1998DOPS   C3B23451  19.693  23.921  11.105  0.1329 -0.1887 -0.0438
 1998DOPS   C4B23452  19.447  23.483  11.102 -0.0909  0.0253 -0.0809
 1999POSM   NC323453  24.914  18.748  10.177 -0.2184  0.2838  0.1240
 1999POSM   PO423454  25.263  18.564  10.003  0.2300  0.0297  0.2670
 1999POSM   AM123455  25.286  18.507  10.348 -0.0777  0.1639 -0.1867
 1999POSM   AM223456  25.245  18.706  10.544 -0.0282  0.0033  0.0702
 1999POSM   T1A23457  25.261  18.149  10.701  0.0329  0.1108  0.2664
 1999POSM   C2A23458  25.311  17.920  11.064  0.0009 -0.3076 -0.1141
 1999POSM   C3A23459  25.392  17.486  11.258  0.1389  0.1831  0.0302
 1999POSM   C1B23460  25.183  18.716  10.887 -0.3331  0.2772 -0.1887
 1999POSM   D2B23461  25.137  18.684  11.325 -0.2556  0.1769 -0.2367
 1999POSM   C3B23462  25.286  18.307  11.482  0.0233  0.0000 -0.0314
 1999POSM   C4B23463  25.275  17.852  11.688  0.0356  0.3565 -0.1453
 2000DOPS   CNO23464  22.871  21.529   9.469  0.1602  0.0924 -0.2821
 2000DOPS   PO423465  23.108  21.407   9.717 -0.3893  0.0767 -0.1489
 2000DOPS   GL123466  23.178  21.259  10.187 -0.1759 -0.1080  0.3300
 2000DOPS   GL223467  23.363  21.503  10.379 -0.1965 -0.1241  0.0220
 2000DOPS   C1A23468  23.034  21.225  10.609  0.0285 -0.0435  0.1699
 2000DOPS   D2A23469  23.004  20.979  11.021 -0.0390 -0.0775  0.0963
 2000DOPS   C3A23470  22.767  21.162  11.390 -0.0275 -0.1033 -0.3577
 2000DOPS   C4A23471  22.347  21.146  11.550  0.2458 -0.0091 -0.0349
 2000DOPS   C1B23472  23.001  21.730  10.543  0.1630  0.2220  0.0604
 2000DOPS   D2B23473  22.700  21.964  10.811  0.0323 -0.2523  0.1382
 2000DOPS   C3B23474  22.507  21.837  11.164  0.0797  0.1003 -0.2078
 2000DOPS   C4B23475  22.229  21.633  11.464 -0.3475 -0.3018 -0.3317
 2001POSM   NC323476  13.346  17.216   8.009  0.1201  0.1720  0.0823
 2001POSM   PO423477  13.753  17.253   8.081  0.0390 -0.2130 -0.3060
 2001POSM   AM123478  13.794  17.359   8.387 -0.0338 -0.1080  0.1526
 2001POSM   AM223479  13.681  17.248   8.634  0.0087  0.0279 -0.1812
 2001POSM   T1A23480  14.072  17.488   8.802  0.2817  0.1375  0.0437
 2001POSM   C2A23481  14.363  17.501   9.162 -0.0640 -0.1064 -0.0541
 2001POSM   C3A23482  14.203  17.622   9.549 -0.1530  0.3557 -0.0758
 2001POSM   C1B23483  13.881  17.022   8.849 -0.0410  0.2011 -0.1643
 2001POSM   D2B23484  13.912  16.706   9.179  0.0489  0.0837  0.0449
 2001POSM   C3B23485  13.657  16.728   9.584 -0.0297 -0.0998 -0.2017
 2001POSM   C4B23486  13.351  16.674   9.872 -0.1271  0.0698  0.0385
 2002DOPC   NC323487  17.579  19.338   8.957 -0.2636  0.1579 -0.0439
 2002DOPC   PO423488  17.314  19.495   8.732 -0.0468  0.0789  0.0194
 2002DOPC   GL123489  17.216  19.596   9.075  0.3434  0.4059  0.3776
 2002DOPC   GL223490  17.305  19.848   9.261 -0.2758  0.0481  0.2561
 2002DOPC   C1A23491  17.438  19.397   9.456 -0.4284 -0.1706 -0.0880
 2002DOPC   D2A23492  17.417  19.041   9.779 -0.0101  0.0587  0.3956
 2002DOPC   C3A23493  17.548  19.045  10.167  0.0637  0.1622 -0.0078
 2002DOPC   C4A23494  17.920  19.045  10.398  0.0688 -0.1858  0.2299
 2002DOPC   C1B23495  17.128  20.083   9.612  0.0011 -0.0030 -0.0098
 2002DOPC   D2B23496  17.003  19.884   9.995 -0.2012 -0.1366 -0.1820
 2002DOPC   C3B23497  16.681  19.631   9.834  0.3407  0.2725 -0.0660
 2002DOPC   C4B23498  16.452  19.452   9.528  0.1743  0.3638  0.1491
 2003DOPC   NC323499  22.212  20.673   9.510 -0.0059 -0.0743 -0.0292
 2003DOPC   PO423500  22.579  20.674   9.677 -0.1660  0.0597 -0.4406
 2003DOPC   GL123501  22.569  20.529  10.034  0.1173 -0.3150  0.1439
 2003DOPC   GL223502  22.770  20.229  10.023  0.0993 -0.2715  0.1335
 2003DOPC   C1A23503  22.474  20.395  10.506  0.1202 -0.3885  0.1908
 2003DOPC   D2A23504  22.300  20.461  10.934  0.3464 -0.2378 -0.1740
 2003DOPC   C3A23505  22.256  20.160  11.258 -0.0348 -0.0605  0.0717
 2003DOPC   C4A23506  22.432  19.854  11.450 -0.2117  0.0572  0.4006
 2003DOPC   C1B23507  22.990  20.438  10.384  0.1357  0.3326 -0.0222
 2003DOPC   D2B23508  22.903  20.292  10.795  0.1826  0.0707 -0.2058
 2003DOPC   C3B23509  22.723  20.509  11.120  0.2346  0.0755  0.1940
 2003DOPC   C4B23510  22.594  20.722  11.505 -0.2028 -0.2040 -0.0126
 2004DOPC   NC323511  14.468  10.814   8.947  0.0467  0.1511 -0.1091
 2004DOPC   PO423512  14.783  10.843   9.223  0.2756  0.0534  0.1299
 2004DOPC   GL123513  14.789  10.918   9.567 -0.3652  0.1555  0.3748
 2004DOPC   GL223514  15.015  11.078   9.701 -0.0869  0.1478  0.1146
 2004DOPC   C1A23515  14.590  11.082   9.942  0.1747 -0.0817  0.0853
 2004DOPC   D2A23516  14.349  11.140  10.338  0.1067  0.1895 -0.0680
 2004DOPC   C3A23517  14.534  10.818  10.657  0.1391  0.2063 -0.1103
 2004DOPC   C4A23518  14.447  10.386  10.835  0.1860 -0.1323 -0.0615
 2004DOPC   C1B23519  15.093  11.428  10.025  0.1078 -0.0856 -0.0697
 2004DOPC   D2B23520  15.081  11.916  10.083  0.1875 -0.0045  0.1681
 2004DOPC   C3B23521  15.311  12.118  10.429 -0.1030 -0.2731 -0.1915
 2004DOPC   C4B23522  15.326  12.381  10.819  0.0572 -0.1583  0.1505
 2005POSM   NC323523  23.630  21.181  10.003 -0.1618 -0.0973 -0.0471
 2005POSM   PO423524  23.773  20.824   9.995 -0.0269 -0.1060  0.0253
 2005POSM   AM123525  23.705  20.836  10.314 -0.3078  0.2619  0.0153
 2005POSM   AM223526  23.549  20.899  10.553  0.3035 -0.3564  0.1187
 2005POSM   T1A23527  23.927  20.624  10.748 -0.3468 -0.1045  0.1306
 2005POSM   C2A23528  24.170  20.512  11.158  0.1611  0.2356  0.3583
 2005POSM   C3A23529  24.052  20.351  11.539 -0.1784  0.1640  0.2605
 2005POSM   C1B23530  23.513  21.064  10.855  0.0730  0.0744  0.0592
 2005POSM   D2B23531  23.403  21.250  11.313  0.0806  0.0194  0.3283
 2005POSM   C3B23532  23.514  21.707  11.346 -0.1749 -0.0994 -0.1129
 2005POSM   C4B23533  23.839  21.922  11.129  0.1884 -0.0896 -0.0221
 2006POSM   NC323534  14.438  12.792   8.458  0.1262  0.0216 -0.2035
 2006POSM   PO423535  14.154  12.500   8.569 -0.0191 -0.1289  0.1394
 2006POSM   AM123536  14.286  12.608   8.857  0.1248  0.3478  0.0227
 2006POSM   AM223537  14.455  12.430   9.009 -0.0029 -0.0901  0.3172
 2006POSM   T1A23538  14.642  12.881   9.087 -0.0297  0.0231  0.3233
 2006POSM   C2A23539  14.469  13.007   9.494 -0.1670 -0.2728 -0.0077
 2006POSM   C3A23540  14.122  12.869   9.784 -0.0005 -0.3211  0.2161
 2006POSM   C1B23541  14.391  12.391   9.320 -0.0371 -0.1076  0.1642
 2006POSM   D2B23542  14.409  12.442   9.718  0.2054 -0.0386  0.1332
 2006POSM   C3B23543  14.636  12.691   9.978  0.0813 -0.3661  0.0484
 2006POSM   C4B23544  14.787  12.923  10.370 -0.0175  0.0014 -0.2515
 2007DOPE   NH323545  17.993  17.047   8.200 -0.1065  0.2159 -0.1487
 2007DOPE   PO423546  17.931  16.716   8.198 -0.1254 -0.0032  0.2426
 2007DOPE   GL123547  17.883  16.651   8.490  0.2473  0.1583  0.3372
 2007DOPE   GL223548  18.095  16.747   8.673 -0.1105 -0.1319 -0.0039
 2007DOPE   C1A23549  17.771  16.370   8.783  0.0767  0.1838 -0.2745
 2007DOPE   D2A23550  17.774  16.178   9.234 -0.1931  0.3275 -0.1221
 2007DOPE   C3A23551  17.344  16.282   9.205 -0.1859 -0.0410  0.0631
 2007DOPE   C4A23552  16.898  16.201   9.212 -0.0249 -0.1640  0.0067
 2007DOPE   C1B23553  18.147  16.584   9.149  0.0725 -0.0341 -0.0677
 2007DOPE   D2B23554  18.245  16.604   9.578 -0.1666  0.0605 -0.0881
 2007DOPE   C3B23555  18.000  16.290   9.743  0.1355 -0.1026 -0.2511
 2007DOPE   C4B23556  17.791  16.037  10.113  0.0140  0.3032 -0.0830
 2008DOPS   CNO23557  25.900  19.029  10.237  0.1843 -0.3103  0.3675
 2008DOPS   PO423558  26.266  18.997  10.188  0.2361 -0.2933 -0.1441
 2008DOPS   GL123559  26.443  18.948  10.506 -0.0636  0.0691  0.3892
 2008DOPS   GL223560  26.599  18.904  10.631 -0.2157  0.3663 -0.2061
 2008DOPS   C1A23561  26.044  19.052  10.765  0.1811  0.1049 -0.3232
 2008DOPS   D2A23562  25.707  19.031  11.037  0.1025  0.2773  0.0579
 2008DOPS   C3A23563  25.814  18.959  11.482 -0.2428  0.2814  0.0623
 2008DOPS   C4A23564  25.970  19.153  11.880 -0.0448 -0.0230  0.1317
 2008DOPS   C1B23565  26.764  18.552  10.840  0.3437 -0.0035  0.0572
 2008DOPS   D2B23566  26.823  18.074  10.861 -0.4569  0.2691  0.1451
 2008DOPS   C3B23567  26.803  17.866  11.257  0.0017 -0.2105  0.1147
 2008DOPS   C4B23568  26.954  17.661  11.673 -0.4082  0.0464  0.1565
 2009DOPE   NH323569  24.970  24.916  11.316 -0.0403  0.0772 -0.1613
 2009DOPE   PO423570  25.150  24.638  11.237 -0.0241  0.1199 -0.1488
 2009DOPE   GL123571  24.926  24.523  11.650 -0.4312 -0.2595  0.2197
 2009DOPE   GL223572  25.124  24.349  11.690  0.2367  0.0358  0.0022
 2009DOPE   C1A23573  24.874  24.884  11.961  0.2052  0.3881 -0.0770
 2009DOPE   D2A23574  24.432  24.919  12.094  0.0242 -0.0117  0.1444
 2009DOPE   C3A23575  24.354  24.770  12.531  0.2324 -0.1906  0.0714
 2009DOPE   C4A23576  24.700  24.692  12.821 -0.4455  0.0662  0.0223
 2009DOPE   C1B23577  25.233  24.555  12.095 -0.0621 -0.2206  0.0532
 2009DOPE   D2B23578  25.006  24.846  12.392 -0.0504  0.1273 -0.1460
 2009DOPE   C3B23579  24.902  25.243  12.641  0.2161  0.0025  0.0411
 2009DOPE   C4B23580  24.998  25.606  12.852  0.0615  0.1510  0.1443
 2010DOPC   NC323581  14.332  13.648   8.665 -0.1115  0.1928  0.0438
 2010DOPC   PO423582  14.263  13.281   8.498  0.1488 -0.0656  0.1151
 2010DOPC   GL123583  14.329  13.141   8.879  0.0739  0.0906 -0.0160
 2010DOPC   GL223584  14.099  12.998   9.023 -0.0254 -0.1910 -0.0102
 2010DOPC   C1A23585  14.609  13.391   9.148  0.0509 -0.2850 -0.3198
 2010DOPC   D2A23586  14.840  13.397   9.550  0.0447  0.0718 -0.2644
 2010DOPC   C3A23587  15.035  12.934   9.568 -0.2217 -0.0224 -0.2367
 2010DOPC   C4A23588  14.977  12.517   9.425 -0.3993 -0.1455  0.0851
 2010DOPC   C1B23589  14.088  13.274   9.355  0.3345 -0.0412 -0.3720
 2010DOPC   D2B23590  13.824  13.581   9.477 -0.0864 -0.0621 -0.1684
 2010DOPC   C3B23591  13.550  13.535   9.858  0.0164  0.1692  0.0277
 2010DOPC   C4B23592  13.451  13.393  10.297  0.3539  0.2290 -0.1281
 2011DOPC   NC323593  18.076  12.348   9.002 -0.1833  0.2073 -0.0634
 2011DOPC   PO423594  18.369  12.513   8.796  0.0586 -0.0118 -0.0239
 2011DOPC   GL123595  18.434  12.756   9.121  0.0824  0.0241 -0.1511
 2011DOPC   GL223596  18.133  12.921   9.048 -0.2578 -0.0544 -0.1243
 2011DOPC   C1A23597  18.570  13.001   9.505  0.4348  0.1580  0.0904
 2011DOPC   D2A23598  18.408  12.841   9.899  0.1072 -0.0860  0.1865
 2011DOPC   C3A23599  18.376  13.159  10.222 -0.0230  0.1510 -0.3066
 2011DOPC   C4A23600  18.267  13.531  10.406 -0.2028  0.0927 -0.0653
 2011DOPC   C1B23601  18.173  12.687   9.464  0.1186 -0.1731  0.1574
 2011DOPC   D2B23602  17.944  12.540   9.854 -0.1834 -0.0668 -0.1400
 2011DOPC   C3B23603  17.563  12.564  10.119 -0.1508  0.2796 -0.0869
 2011DOPC   C4B23604  17.213  12.340  10.232 -0.0295 -0.0153 -0.1956
 2012POSM   NC323605  25.029  16.813   9.580  0.1275  0.2289  0.0393
 2012POSM   PO423606  24.722  17.004   9.686  0.0162 -0.3244 -0.0402
 2012POSM   AM123607  24.639  16.964   9.993 -0.0826 -0.2233  0.0916
 2012POSM   AM223608  24.484  17.087  10.214  0.0864 -0.0633  0.3152
 2012POSM   T1A23609  24.708  16.657  10.398  0.2589 -0.2136 -0.1282
 2012POSM   C2A23610  24.877  16.473  10.824  0.0929 -0.1673  0.3036
 2012POSM   C3A23611  24.668  16.534  11.218 -0.3009 -0.0706 -0.0561
 2012POSM   C1B23612  24.782  17.180  10.403  0.4361 -0.0357 -0.1820
 2012POSM   D2B23613  25.018  17.455  10.686 -0.2600  0.2703 -0.0766
 2012POSM   C3B23614  25.343  17.163  10.850  0.3024 -0.0744  0.0789
 2012POSM   C4B23615  25.351  16.685  10.907  0.1458 -0.0158  0.0553
 2013POSM   NC323616  12.542  20.978   8.839  0.1010 -0.0647  0.0567
 2013POSM   PO423617  12.777  20.721   8.951 -0.0583  0.2856  0.2776
 2013POSM   AM123618  12.794  20.442   9.166 -0.0641 -0.2104 -0.2180
 2013POSM   AM223619  12.758  20.142   9.131 -0.1173  0.3884 -0.2047
 2013POSM   T1A23620  12.923  20.454   9.701  0.1251  0.0923  0.0228
 2013POSM   C2A23621  13.317  20.670   9.821 -0.1363  0.2292  0.0805
 2013POSM   C3A23622  13.660  20.610  10.130 -0.0039 -0.3575  0.1046
 2013POSM   C1B23623  12.675  20.086   9.409 -0.3114  0.1696 -0.1823
 2013POSM   D2B23624  12.556  20.017   9.892 -0.0661  0.0413 -0.2754
 2013POSM   C3B23625  12.449  19.630  10.203  0.0500  0.0112 -0.0063
 2013POSM   C4B23626  12.323  19.507  10.571 -0.4213 -0.2410  0.0988
 2014DOPS   CNO23627  21.403  12.959   8.967  0.1553 -0.1829 -0.3221
 2014DOPS   PO423628  21.257  13.259   8.849 -0.3686 -0.0236  0.0537
 2014DOPS   GL123629  21.132  13.423   9.139  0.0432  0.0651 -0.0211
 2014DOPS   GL223630  21.313  13.482   9.349  0.4597 -0.0292  0.2823
 2014DOPS   C1A23631  20.901  13.181   9.509 -0.0488 -0.1093 -0.0526
 2014DOPS   D2A23632  20.842  13.135   9.988  0.0441 -0.0080 -0.0250
 2014DOPS   C3A23633  20.611  13.041  10.410  0.1445 -0.2485 -0.3430
 2014DOPS   C4A23634  20.256  12.874  10.696  0.1159  0.1231  0.0501
 2014DOPS   C1B23635  21.326  13.247   9.737 -0.4058 -0.0029 -0.0967
 2014DOPS   D2B23636  21.355  13.210  10.204 -0.2609 -0.0553 -0.2684
 2014DOPS   C3B23637  21.078  12.863  10.373 -0.2138  0.1222  0.0338
 2014DOPS   C4B23638  20.708  12.583  10.196  0.1623 -0.1778 -0.0812
 2015POSM   NC323639  17.542   7.975   9.493  0.0075 -0.2061  0.5059
 2015POSM   PO423640  17.145   7.939   9.502 -0.1356 -0.3265 -0.1817
 2015POSM   AM123641  17.144   7.827   9.807  0.0430  0.0814 -0.1359
 2015POSM   AM223642  16.909   7.852   9.968 -0.1671 -0.0588  0.0080
 2015POSM   T1A23643  17.490   7.656  10.151 -0.0281  0.0317  0.1354
 2015POSM   C2A23644  17.824   7.538  10.375 -0.0433 -0.0011 -0.1027
 2015POSM   C3A23645  18.113   7.672  10.696  0.1428  0.1643 -0.1309
 2015POSM   C1B23646  16.989   7.825  10.269  0.0634 -0.0867  0.1065
 2015POSM   D2B23647  17.203   7.741  10.702  0.0208 -0.1602  0.0520
 2015POSM   C3B23648  16.842   7.774  11.023  0.0170 -0.1002 -0.1975
 2015POSM   C4B23649  16.743   7.359  11.254 -0.3100 -0.2755  0.3154
 2016DOPE   NH323650  19.654  20.319   8.923 -0.6118 -0.0162 -0.0293
 2016DOPE   PO423651  19.813  20.054   9.078 -0.1979 -0.0224 -0.1568
 2016DOPE   GL123652  19.957  20.129   9.467 -0.2184 -0.2234  0.0995
 2016DOPE   GL223653  19.795  20.398   9.572  0.0684 -0.4028  0.2560
 2016DOPE   C1A23654  20.044  20.026   9.938 -0.2013  0.0448  0.1142
 2016DOPE   D2A23655  19.875  19.673  10.171 -0.0558 -0.1412  0.3135
 2016DOPE   C3A23656  19.757  19.744  10.566 -0.1903  0.1113  0.1041
 2016DOPE   C4A23657  19.443  19.942  10.819  0.0302 -0.0388  0.0910
 2016DOPE   C1B23658  19.467  20.231   9.867  0.0804  0.0546 -0.1624
 2016DOPE   D2B23659  18.995  20.185  10.048 -0.1758  0.1346 -0.0617
 2016DOPE   C3B23660  18.729  20.593  10.149  0.3911 -0.0604  0.2684
 2016DOPE   C4B23661  18.347  20.646  10.419 -0.2128 -0.1530  0.0092
 2017DOPE   NH323662  16.850  13.039   8.648 -0.1800 -0.4564  0.2218
 2017DOPE   PO423663  16.499  13.043   8.608  0.0141 -0.0430 -0.0333
 2017DOPE   GL123664  16.449  13.206   8.943  0.1183 -0.1318 -0.4576
 2017DOPE   GL223665  16.537  12.932   9.086 -0.0917  0.3106 -0.0209
 2017DOPE   C1A23666  16.755  13.272   9.354 -0.1390  0.1369  0.3020
 2017DOPE   D2A23667  16.768  13.131   9.750  0.3170  0.1832  0.0055
 2017DOPE   C3A23668  16.794  13.270  10.112 -0.0658 -0.0537  0.2730
 2017DOPE   C4A23669  16.500  13.123  10.453  0.1180 -0.2965 -0.0404
 2017DOPE   C1B23670  16.850  12.719   9.312 -0.2013  0.1769 -0.2231
 2017DOPE   D2B23671  17.212  12.502   9.438  0.0243  0.3138 -0.0988
 2017DOPE   C3B23672  17.574  12.763   9.616 -0.2526 -0.2591 -0.1009
 2017DOPE   C4B23673  17.953  13.015   9.772 -0.0010  0.3516  0.2371
 2018DOPE   NH323674  17.303  11.962   8.700  0.2034 -0.0739  0.3984
 2018DOPE   PO423675  17.214  11.824   8.889 -0.2698  0.0100 -0.1824
 2018DOPE   GL123676  16.937  11.654   9.189  0.0947  0.1519 -0.1684
 2018DOPE   GL223677  16.778  11.908   9.145 -0.1390 -0.0740  0.3367
 2018DOPE   C1A23678  16.676  11.681   9.592  0.0913 -0.2139 -0.1273
 2018DOPE   D2A23679  16.526  11.654  10.059 -0.1030 -0.2889  0.2793
 2018DOPE   C3A23680  16.687  11.458  10.437  0.1694  0.2207  0.0430
 2018DOPE   C4A23681  16.642  11.277  10.843  0.0526  0.1351 -0.0767
 2018DOPE   C1B23682  16.840  12.143   9.528 -0.1224  0.1076  0.2313
 2018DOPE   D2B23683  16.931  12.513   9.840 -0.1594  0.1366  0.0652
 2018DOPE   C3B23684  16.600  12.784  10.041  0.0658 -0.0817  0.3166
 2018DOPE   C4B23685  16.268  13.153  10.015  0.0264 -0.0943  0.0332
 2019DOPS   CNO23686  17.861  11.180   8.518  0.0900 -0.0513  0.1198
 2019DOPS   PO423687  17.923  11.218   8.903 -0.2781  0.0726 -0.3101
 2019DOPS   GL123688  18.191  11.256   9.168 -0.0502  0.2296 -0.0324
 2019DOPS   GL223689  18.222  10.952   9.304  0.0856  0.0166 -0.0599
 2019DOPS   C1A23690  18.211  11.511   9.550 -0.0068 -0.0413 -0.0023
 2019DOPS   D2A23691  18.356  11.546   9.948  0.0896 -0.2105 -0.0957
 2019DOPS   C3A23692  18.600  11.804  10.184 -0.0760  0.2073  0.2288
 2019DOPS   C4A23693  18.842  12.201  10.238 -0.0070 -0.1259 -0.0958
 2019DOPS   C1B23694  18.368  11.032   9.774  0.0759 -0.2006  0.3578
 2019DOPS   D2B23695  18.514  11.117  10.209 -0.0494  0.0509  0.2405
 2019DOPS   C3B23696  18.886  11.345  10.316 -0.1456 -0.0556  0.2661
 2019DOPS   C4B23697  19.321  11.321  10.435 -0.1640 -0.0621  0.5196
 2020POSM   NC323698  22.461  16.640   9.217 -0.2670 -0.0071 -0.0615
 2020POSM   PO423699  22.197  16.850   9.409 -0.2796 -0.2517  0.2353
 2020POSM   AM123700  22.284  16.791   9.755 -0.2375  0.1195  0.1551
 2020POSM   AM223701  22.292  16.632   9.955 -0.1584 -0.1243 -0.1145
 2020POSM   T1A23702  22.455  17.166  10.077  0.1718 -0.0474  0.3037
 2020POSM   C2A23703  22.736  17.359  10.334 -0.0674 -0.0757  0.1988
 2020POSM   C3A23704  22.727  17.390  10.798  0.1651  0.0069  0.3325
 2020POSM   C1B23705  22.088  16.624  10.235 -0.0251  0.3787 -0.2007
 2020POSM   D2B23706  21.764  16.711  10.486  0.1895 -0.0443  0.3397
 2020POSM   C3B23707  21.903  17.036  10.752 -0.2315  0.1366 -0.0124
 2020POSM   C4B23708  22.315  17.100  11.000  0.0887 -0.0164  0.0992
 2021POSM   NC323709  24.813  17.409   9.997  0.0720 -0.1305  0.3462
 2021POSM   PO423710  25.142  17.653  10.120  0.0453 -0.0182  0.0902
 2021POSM   AM123711  24.984  17.887  10.299  0.1946 -0.4462  0.1451
 2021POSM   AM223712  24.910  18.174  10.331 -0.0925 -0.1756 -0.1078
 2021POSM   T1A23713  24.824  17.873  10.746  0.1794  0.0896 -0.1211
 2021POSM   C2A23714  24.783  17.633  11.140  0.1924 -0.5712 -0.0101
 2021POSM   C3A23715  24.939  17.539  11.511 -0.3041  0.2713  0.0101
 2021POSM   C1B23716  24.822  18.391  10.599  0.0796  0.3649  0.1804
 2021POSM   D2B23717  24.894  18.365  11.012 -0.0464  0.1075 -0.1483
 2021POSM   C3B23718  24.877  18.060  11.384  0.1544  0.0317  0.2987
 2021POSM   C4B23719  24.831  18.039  11.807 -0.0472 -0.0505  0.1840
 2022DOPE   NH323720  20.892  18.349   8.682  0.4564 -0.1391 -0.0972
 2022DOPE   PO423721  20.945  18.077   8.803 -0.0182 -0.1539 -0.2174
 2022DOPE   GL123722  20.826  18.072   9.126 -0.3044 -0.2621 -0.5192
 2022DOPE   GL223723  20.646  18.067   9.307 -0.2162  0.1971 -0.0378
 2022DOPE   C1A23724  21.036  17.789   9.458  0.0393  0.0981  0.1085
 2022DOPE   D2A23725  21.434  17.705   9.686 -0.1047  0.1979 -0.0025
 2022DOPE   C3A23726  21.458  17.398  10.004  0.0133 -0.0851  0.5353
 2022DOPE   C4A23727  21.393  16.996  10.313 -0.2044 -0.0961  0.3191
 2022DOPE   C1B23728  20.758  18.338   9.685 -0.2455  0.1056 -0.0176
 2022DOPE   D2B23729  20.696  18.306  10.105  0.1289  0.0957  0.1883
 2022DOPE   C3B23730  20.398  18.132  10.403 -0.5264 -0.0482 -0.0472
 2022DOPE   C4B23731  20.002  18.058  10.630  0.1498  0.0070  0.0917
 2023DOPS   CNO23732  18.505  22.896   9.270  0.4108  0.0538 -0.1772
 2023DOPS   PO423733  18.228  23.166   9.189 -0.0177 -0.0767 -0.3026
 2023DOPS   GL123734  17.983  23.202   9.505  0.3412  0.0729 -0.4279
 2023DOPS   GL223735  17.845  22.991   9.710 -0.2302 -0.0232 -0.0892
 2023DOPS   C1A23736  18.061  23.438   9.954 -0.2346  0.3622  0.1460
 2023DOPS   D2A23737  18.159  23.291  10.377 -0.4309  0.0631  0.0882
 2023DOPS   C3A23738  17.863  23.489  10.576  0.0718  0.4045 -0.0108
 2023DOPS   C4A23739  17.637  23.543  10.967  0.1374 -0.0905 -0.1232
 2023DOPS   C1B23740  17.511  23.204   9.865  0.1456 -0.0192 -0.0119
 2023DOPS   D2B23741  17.102  23.481   9.984  0.0514 -0.1162 -0.2719
 2023DOPS   C3B23742  17.016  23.377  10.382  0.2028  0.1259  0.0464
 2023DOPS   C4B23743  16.974  23.414  10.817 -0.0851  0.2443  0.1153
 2024DOPE   NH323744  16.735  19.396   8.620  0.0157 -0.1030 -0.1271
 2024DOPE   PO423745  16.934  19.157   8.528 -0.1503  0.1814  0.0353
 2024DOPE   GL123746  17.038  19.197   8.921 -0.2297  0.3356 -0.0376
 2024DOPE   GL223747  16.847  19.344   9.149 -0.1104  0.0164 -0.1755
 2024DOPE   C1A23748  17.277  18.962   9.281  0.2461 -0.0801  0.1084
 2024DOPE   D2A23749  17.064  18.679   9.612 -0.0704 -0.0700  0.6093
 2024DOPE   C3A23750  17.050  18.735  10.064 -0.1724  0.3146  0.2093
 2024DOPE   C4A23751  17.070  18.592  10.454  0.1758  0.1038 -0.4545
 2024DOPE   C1B23752  16.969  19.297   9.597 -0.2876 -0.3317  0.3118
 2024DOPE   D2B23753  17.072  19.309  10.091 -0.2800 -0.1004  0.2922
 2024DOPE   C3B23754  17.420  19.531  10.262 -0.0626  0.1753  0.1737
 2024DOPE   C4B23755  17.616  19.907  10.458 -0.0470  0.0375 -0.3171
 2025POSM   NC323756  13.185  12.531   8.943  0.0749  0.0441  0.2345
 2025POSM   PO423757  12.882  12.324   8.783 -0.0982  0.4340  0.2071
 2025POSM   AM123758  12.761  12.265   9.082  0.0097  0.1744  0.0497
 2025POSM   AM223759  12.504  12.219   9.247  0.0829 -0.1230 -0.0333
 2025POSM   T1A23760  12.988  12.244   9.524 -0.2681 -0.0149  0.1370
 2025POSM   C2A23761  12.929  12.417   9.926 -0.0823 -0.0736  0.0846
 2025POSM   C3A23762  12.777  12.570  10.340 -0.0851  0.1173  0.3269
 2025POSM   C1B23763  12.538  12.419   9.489 -0.0104  0.0464 -0.1181
 2025POSM   D2B23764  12.459  12.467   9.858  0.1623  0.2104  0.1460
 2025POSM   C3B23765  12.467  12.092  10.165  0.0980  0.0293  0.3490
 2025POSM   C4B23766  12.145  11.875  10.276 -0.0393 -0.1433 -0.0152
 2026POSM   NC323767  14.113  22.590   8.640 -0.0474 -0.1190 -0.3490
 2026POSM   PO423768  13.850  22.466   8.855 -0.3023 -0.0185 -0.1201
 2026POSM   AM123769  13.769  22.371   9.158  0.0066 -0.0641 -0.0196
 2026POSM   AM223770  13.887  22.116   9.289  0.2758  0.3601 -0.1237
 2026POSM   T1A23771  13.627  22.443   9.633 -0.0373  0.1193  0.1934
 2026POSM   C2A23772  13.228  22.349   9.865  0.3927 -0.0769  0.0343
 2026POSM   C3A23773  12.830  22.280  10.018 -0.0062 -0.0936  0.1245
 2026POSM   C1B23774  13.962  21.986   9.608  0.0705  0.2589 -0.0367
 2026POSM   D2B23775  14.082  21.819  10.014  0.1595 -0.3123 -0.1943
 2026POSM   C3B23776  14.092  21.723  10.426 -0.1835  0.0757  0.0440
 2026POSM   C4B23777  13.985  21.304  10.533 -0.1094 -0.0026 -0.1999
 2027DOPC   NC323778  15.209  17.994   8.316 -0.0122 -0.0067 -0.2830
 2027DOPC   PO423779  15.062  17.800   8.623  0.3567  0.1458 -0.0621
 2027DOPC   GL123780  15.119  18.181   8.753 -0.3557  0.5302  0.2487
 2027DOPC   GL223781  15.247  18.219   9.054 -0.0948  0.0408  0.0302
 2027DOPC   C1A23782  14.731  18.424   8.859  0.0832 -0.2770  0.3161
 2027DOPC   D2A23783  14.291  18.470   9.038 -0.1003 -0.1511 -0.1736
 2027DOPC   C3A23784  14.438  18.796   9.337  0.1477 -0.4079 -0.2877
 2027DOPC   C4A23785  14.397  19.038   9.701  0.0384  0.0331  0.0718
 2027DOPC   C1B23786  14.872  18.358   9.355 -0.1997 -0.2515  0.2624
 2027DOPC   D2B23787  14.462  18.359   9.520 -0.1848  0.0870 -0.0010
 2027DOPC   C3B23788  14.474  18.438  10.009  0.1818  0.0357  0.0742
 2027DOPC   C4B23789  14.674  18.455  10.436 -0.0489  0.0316 -0.0573
 2028POSM   NC323790  12.032  18.983   8.673 -0.0985 -0.2863  0.1393
 2028POSM   PO423791  11.857  18.633   8.583  0.0153 -0.2200 -0.1327
 2028POSM   AM123792  11.798  18.377   8.800 -0.2726  0.2942  0.3265
 2028POSM   AM223793  11.999  18.146   8.924  0.0759  0.2290  0.2217
 2028POSM   T1A23794  11.594  18.207   9.211 -0.0857  0.2120  0.2563
 2028POSM   C2A23795  11.788  17.872   9.507  0.2461  0.4187 -0.2303
 2028POSM   C3A23796  12.137  17.581   9.438 -0.2279  0.2940 -0.2342
 2028POSM   C1B23797  12.218  18.047   9.193 -0.0655  0.0841 -0.2359
 2028POSM   D2B23798  12.311  18.036   9.586  0.0007 -0.2968 -0.0048
 2028POSM   C3B23799  12.614  17.685   9.768  0.0954 -0.1469  0.2436
 2028POSM   C4B23800  12.995  17.409   9.642 -0.0277 -0.0177 -0.0346
 2029DOPE   NH323801  19.281  17.477   8.505 -0.1324  0.0502 -0.0178
 2029DOPE   PO423802  19.197  17.192   8.367  0.0093 -0.0795  0.0173
 2029DOPE   GL123803  19.177  17.054   8.790 -0.0935  0.0073  0.3867
 2029DOPE   GL223804  19.418  16.863   8.797  0.2913 -0.2202  0.1041
 2029DOPE   C1A23805  18.755  17.131   8.880 -0.0134  0.0210  0.3060
 2029DOPE   D2A23806  18.349  17.124   9.062  0.2095  0.0715  0.1274
 2029DOPE   C3A23807  18.038  17.115   9.402  0.1697  0.3618  0.3904
 2029DOPE   C4A23808  17.697  17.154   9.638  0.0319  0.2928 -0.1396
 2029DOPE   C1B23809  19.088  16.747   9.128  0.3430  0.3156  0.0027
 2029DOPE   D2B23810  18.813  17.044   9.363 -0.0924 -0.0271 -0.1765
 2029DOPE   C3B23811  18.491  17.097   9.697  0.1965 -0.2134  0.0370
 2029DOPE   C4B23812  18.234  17.317   9.978  0.1924  0.1620  0.1355
 2030DOPS   CNO23813  16.847  13.741   8.664  0.1602 -0.1241 -0.0167
 2030DOPS   PO423814  16.538  13.534   8.664 -0.0607 -0.0692 -0.0880
 2030DOPS   GL123815  16.526  13.639   8.957 -0.3157  0.1337  0.4197
 2030DOPS   GL223816  16.235  13.655   9.067  0.1693  0.0069  0.1039
 2030DOPS   C1A23817  16.512  14.112   9.044  0.2559 -0.2661 -0.1554
 2030DOPS   D2A23818  16.591  14.257   9.486 -0.3028  0.0513  0.2563
 2030DOPS   C3A23819  16.208  14.503   9.690 -0.1959 -0.0024 -0.2787
 2030DOPS   C4A23820  16.144  14.882   9.907  0.2418 -0.6511 -0.0630
 2030DOPS   C1B23821  16.214  13.953   9.466 -0.0418 -0.3682  0.2208
 2030DOPS   D2B23822  16.165  13.992   9.908  0.2198  0.2918  0.1538
 2030DOPS   C3B23823  16.241  14.324  10.225  0.1995 -0.2114 -0.0380
 2030DOPS   C4B23824  16.457  14.625  10.550  0.0959  0.2827  0.0835
 2031DOPC   NC323825  13.759  17.863   8.470  0.1821  0.1606  0.0161
 2031DOPC   PO423826  13.479  18.123   8.330 -0.0363  0.1441  0.1513
 2031DOPC   GL123827  13.349  18.110   8.686  0.3582  0.2266 -0.0437
 2031DOPC   GL223828  13.434  17.874   8.806 -0.0840 -0.0585 -0.3437
 2031DOPC   C1A23829  13.350  18.216   9.160 -0.0363 -0.0111 -0.0649
 2031DOPC   D2A23830  13.450  18.290   9.603  0.2689 -0.3774 -0.0335
 2031DOPC   C3A23831  13.687  17.943   9.830  0.3785 -0.2483  0.3201
 2031DOPC   C4A23832  13.768  17.530   9.983 -0.2972 -0.0792 -0.0511
 2031DOPC   C1B23833  13.541  17.495   9.025 -0.0869  0.1971 -0.1124
 2031DOPC   D2B23834  13.441  17.224   9.371  0.3019 -0.0102 -0.1834
 2031DOPC   C3B23835  13.448  17.213   9.832  0.1560 -0.2114 -0.2015
 2031DOPC   C4B23836  13.245  17.551  10.097  0.0157  0.1068  0.3508
 2032DOPC   NC323837  22.444  18.123   9.416  0.3830  0.1146  0.0229
 2032DOPC   PO423838  22.616  18.483   9.452  0.1839 -0.2106 -0.0528
 2032DOPC   GL123839  22.537  18.569   9.895 -0.0065 -0.3308  0.3188
 2032DOPC   GL223840  22.288  18.685   9.817  0.2577  0.0017  0.0069
 2032DOPC   C1A23841  22.576  18.903  10.221  0.1799 -0.0946  0.2505
 2032DOPC   D2A23842  22.474  19.331  10.242  0.0893 -0.0558  0.1292
 2032DOPC   C3A23843  22.235  19.605  10.506 -0.0520  0.1075 -0.3256
 2032DOPC   C4A23844  22.230  19.676  10.980  0.3772  0.4988  0.0646
 2032DOPC   C1B23845  22.051  18.644  10.201  0.1107  0.2765 -0.2461
 2032DOPC   D2B23846  21.936  18.751  10.669  0.0532  0.0709 -0.2091
 2032DOPC   C3B23847  21.875  18.615  11.125  0.2083  0.2275 -0.4449
 2032DOPC   C4B23848  21.736  18.671  11.593  0.1887  0.2133  0.0348
 2033DOPC   NC323849  15.961  13.192   8.896  0.4465 -0.3878 -0.0090
 2033DOPC   PO423850  15.649  13.257   8.701 -0.2158  0.1477 -0.0140
 2033DOPC   GL123851  15.503  13.178   9.096 -0.3011 -0.4776 -0.2546
 2033DOPC   GL223852  15.508  12.958   9.394 -0.0858  0.3144  0.1976
 2033DOPC   C1A23853  15.316  13.416   9.504 -0.0263 -0.1141  0.1995
 2033DOPC   D2A23854  15.381  13.687   9.927 -0.2154  0.0045  0.1176
 2033DOPC   C3A23855  15.703  13.929  10.148 -0.1125  0.1964  0.2456
 2033DOPC   C4A23856  15.941  13.873  10.461 -0.0563 -0.1504  0.0496
 2033DOPC   C1B23857  15.795  13.083   9.682 -0.1301 -0.4319 -0.0013
 2033DOPC   D2B23858  15.624  13.164  10.115  0.1305  0.1755 -0.1950
 2033DOPC   C3B23859  15.184  13.225  10.180  0.2924  0.0545 -0.0790
 2033DOPC   C4B23860  14.782  13.400  10.284 -0.0697 -0.1135  0.0406
 2034DOPS   CNO23861  15.899  19.559   8.497  0.2039  0.0303  0.0921
 2034DOPS   PO423862  16.272  19.649   8.545  0.2643 -0.1424 -0.1320
 2034DOPS   GL123863  16.521  19.656   8.902 -0.0792  0.0472 -0.0365
 2034DOPS   GL223864  16.320  19.535   9.029 -0.1455  0.1512 -0.2431
 2034DOPS   C1A23865  16.676  19.822   9.323  0.0702  0.1360  0.1238
 2034DOPS   D2A23866  16.621  20.133   9.730  0.1727  0.4304 -0.2924
 2034DOPS   C3A23867  16.883  20.474   9.895  0.0579 -0.0781  0.3085
 2034DOPS   C4A23868  17.179  20.880  10.043  0.2594 -0.1727  0.1987
 2034DOPS   C1B23869  16.200  19.846   9.369  0.0852 -0.1694 -0.3293
 2034DOPS   D2B23870  15.932  20.135   9.589  0.1060 -0.4142  0.0806
 2034DOPS   C3B23871  16.077  20.261   9.953 -0.2898 -0.1102  0.0992
 2034DOPS   C4B23872  16.294  20.568  10.220 -0.1543 -0.2069 -0.1997
 2035POSM   NC323873  13.329  10.978   8.797  0.1443 -0.0229  0.1922
 2035POSM   PO423874  13.523  10.947   9.126  0.0973 -0.0594  0.0092
 2035POSM   AM123875  13.386  11.021   9.381  0.4360 -0.1392 -0.2275
 2035POSM   AM223876  13.125  10.927   9.579 -0.0662  0.0634  0.1634
 2035POSM   T1A23877  13.401  11.217   9.870 -0.0917 -0.0000  0.0849
 2035POSM   C2A23878  13.419  11.561  10.143 -0.2572 -0.1832 -0.0764
 2035POSM   C3A23879  13.581  11.792  10.469 -0.0901  0.0918  0.0107
 2035POSM   C1B23880  13.023  10.700   9.805  0.0115  0.1295  0.2141
 2035POSM   D2B23881  13.027  10.515  10.285  0.1128 -0.3140 -0.1616
 2035POSM   C3B23882  12.993  10.718  10.667  0.1248  0.0766 -0.0214
 2035POSM   C4B23883  13.174  10.991  10.977  0.3078 -0.0538 -0.1585
 2036POSM   NC323884  18.439  21.819   8.596 -0.0455 -0.1921 -0.0167
 2036POSM   PO423885  18.665  21.695   8.926 -0.1689 -0.2081 -0.1701
 2036POSM   AM123886  18.533  21.776   9.190 -0.0576  0.0160  0.1357
 2036POSM   AM223887  18.276  21.932   9.303  0.0090 -0.0212  0.1503
 2036POSM   T1A23888  18.621  21.853   9.675  0.0741  0.3158  0.2947
 2036POSM   C2A23889  18.674  21.610  10.087 -0.0843  0.0339  0.4032
 2036POSM   C3A23890  18.403  21.242  10.241  0.0737 -0.0563  0.0380
 2036POSM   C1B23891  18.071  21.979   9.544  0.3790  0.0455 -0.0520
 2036POSM   D2B23892  17.938  22.199   9.905  0.0288  0.0365 -0.2203
 2036POSM   C3B23893  17.673  21.867  10.166  0.0598  0.1712  0.0962
 2036POSM   C4B23894  17.471  21.752  10.577  0.0230  0.2082 -0.0683
 2037DOPE   NH323895  13.631  14.282   8.255  0.0395  0.0107 -0.1226
 2037DOPE   PO423896  13.304  14.410   8.218  0.0688 -0.1167 -0.1334
 2037DOPE   GL123897  13.316  14.541   8.566  0.1359  0.1213 -0.0320
 2037DOPE   GL223898  13.337  14.453   8.744  0.1731  0.0781 -0.1467
 2037DOPE   C1A23899  13.397  14.969   8.853  0.0829 -0.2676  0.1513
 2037DOPE   D2A23900  13.417  15.347   9.130 -0.1833  0.1460  0.0945
 2037DOPE   C3A23901  13.231  15.460   9.518  0.3495 -0.0908 -0.1100
 2037DOPE   C4A23902  13.330  15.763   9.879  0.0208 -0.1456  0.1009
 2037DOPE   C1B23903  13.611  14.406   9.123 -0.2708  0.2800 -0.4097
 2037DOPE   D2B23904  13.915  14.592   9.443  0.0583 -0.0108 -0.1208
 2037DOPE   C3B23905  13.779  14.877   9.780  0.1228 -0.0089  0.0623
 2037DOPE   C4B23906  13.613  15.270   9.931  0.4172 -0.0988 -0.1014
 2038DOPC   NC323907  18.851  12.593   8.843  0.1863  0.0202 -0.0060
 2038DOPC   PO423908  19.077  12.230   8.762 -0.1678  0.0970 -0.1454
 2038DOPC   GL123909  19.303  11.907   8.931  0.0163 -0.0567 -0.1684
 2038DOPC   GL223910  19.223  11.963   9.197 -0.2136  0.3388  0.0637
 2038DOPC   C1A23911  19.480  11.562   9.267  0.0754  0.1433 -0.0751
 2038DOPC   D2A23912  19.794  11.648   9.586 -0.1710  0.1314  0.0037
 2038DOPC   C3A23913  19.653  11.597  10.034  0.0113  0.0796  0.3906
 2038DOPC   C4A23914  19.697  11.598  10.440  0.0534 -0.2860 -0.2506
 2038DOPC   C1B23915  19.107  12.317   9.514 -0.0520  0.0930  0.0014
 2038DOPC   D2B23916  18.862  12.594   9.766  0.0311  0.1218  0.0211
 2038DOPC   C3B23917  18.474  12.346   9.767 -0.0117  0.0933  0.0573
 2038DOPC   C4B23918  18.163  12.009   9.788  0.1089 -0.1996  0.0244
 2039POSM   NC323919  23.838  16.367   9.485 -0.0426  0.1506  0.0274
 2039POSM   PO423920  23.887  15.966   9.610  0.0053  0.1554 -0.0856
 2039POSM   AM123921  23.751  16.062   9.903  0.0331 -0.0992 -0.0213
 2039POSM   AM223922  23.523  16.039  10.041  0.0343  0.0918 -0.0824
 2039POSM   T1A23923  23.864  16.318  10.288 -0.0450  0.0138  0.2562
 2039POSM   C2A23924  23.823  16.458  10.700 -0.2404  0.1343 -0.3848
 2039POSM   C3A23925  23.913  16.670  11.104  0.0334 -0.0549 -0.2996
 2039POSM   C1B23926  23.579  15.987  10.356  0.3466  0.1836 -0.2134
 2039POSM   D2B23927  23.497  15.596  10.663  0.0600 -0.0089 -0.1472
 2039POSM   C3B23928  23.534  15.496  11.121 -0.0484  0.0158 -0.1498
 2039POSM   C4B23929  23.211  15.785  11.325  0.1046 -0.0774 -0.0553
 2040POSM   NC323930  15.491  20.134   8.752 -0.2551 -0.0399 -0.1187
 2040POSM   PO423931  15.220  20.069   8.500 -0.3193 -0.0755  0.0824
 2040POSM   AM123932  15.169  19.794   8.674  0.0730 -0.3138 -0.1757
 2040POSM   AM223933  15.372  19.658   8.797  0.0901 -0.3858 -0.0475
 2040POSM   T1A23934  14.884  19.468   8.979  0.2103 -0.0243 -0.2571
 2040POSM   C2A23935  14.724  19.208   9.308  0.0312 -0.2985 -0.1659
 2040POSM   C3A23936  14.816  19.268   9.730 -0.0454 -0.0306  0.2356
 2040POSM   C1B23937  15.277  19.725   9.102 -0.0934 -0.4014 -0.2975
 2040POSM   D2B23938  15.235  20.064   9.371  0.0860  0.0309  0.1199
 2040POSM   C3B23939  15.019  20.075   9.831 -0.1690 -0.0533  0.0081
 2040POSM   C4B23940  14.861  19.939  10.275  0.1475 -0.2239  0.1507
 2041DOPC   NC323941  14.740  32.431  14.605 -0.0504  0.2219 -0.1789
 2041DOPC   PO423942  14.498  32.722  14.704  0.2248  0.1041 -0.0643
 2041DOPC   GL123943  14.520  32.839  14.275  0.0762  0.0123  0.0227
 2041DOPC   GL223944  14.712  32.616  14.144 -0.2879  0.1728  0.0214
 2041DOPC   C1A23945  14.887  33.093  14.058  0.2845 -0.0527  0.1037
 2041DOPC   D2A23946  14.855  33.163  13.571  0.0600 -0.1314  0.2565
 2041DOPC   C3A23947  14.723  33.565  13.595 -0.2037  0.1520  0.2831
 2041DOPC   C4A23948  14.402  33.716  13.364 -0.1007 -0.1350 -0.2105
 2041DOPC   C1B23949  14.723  32.375  13.733  0.4676  0.2428 -0.1903
 2041DOPC   D2B23950  14.609  32.181  13.403  0.2767 -0.0141  0.1566
 2041DOPC   C3B23951  14.908  32.103  13.098 -0.0160  0.2687 -0.2096
 2041DOPC   C4B23952  15.204  31.998  12.805  0.0116 -0.0169 -0.3625
 2042DOPC   NC323953  21.185  28.563  14.318  0.0091 -0.0169 -0.4521
 2042DOPC   PO423954  21.266  28.166  14.259  0.0848 -0.2029 -0.0482
 2042DOPC   GL123955  21.207  28.260  13.890  0.0522  0.5659  0.2370
 2042DOPC   GL223956  21.477  28.186  13.637  0.3330 -0.1584 -0.0363
 2042DOPC   C1A23957  20.875  28.117  13.617 -0.0377 -0.2730 -0.0750
 2042DOPC   D2A23958  20.975  28.120  13.127 -0.5739  0.2603 -0.1201
 2042DOPC   C3A23959  20.701  27.935  12.810 -0.2712  0.0270  0.3341
 2042DOPC   C4A23960  20.373  27.950  12.556  0.2841  0.1569 -0.2079
 2042DOPC   C1B23961  21.265  27.824  13.503  0.1101 -0.5002  0.1374
 2042DOPC   D2B23962  21.005  27.480  13.298  0.0189  0.1394  0.0310
 2042DOPC   C3B23963  21.110  27.631  12.844 -0.1740 -0.0402 -0.2348
 2042DOPC   C4B23964  20.940  27.681  12.418  0.3514  0.2498 -0.1009
 2043DOPE   NH323965  19.024  32.029  14.504 -0.2029 -0.1871 -0.0155
 2043DOPE   PO423966  18.958  31.782  14.718  0.1493 -0.1729 -0.0347
 2043DOPE   GL123967  18.874  31.646  14.320  0.1358  0.2047 -0.0054
 2043DOPE   GL223968  18.940  31.305  14.337 -0.2388 -0.1168 -0.3761
 2043DOPE   C1A23969  18.513  31.600  13.978 -0.2441 -0.0237  0.3268
 2043DOPE   D2A23970  18.441  31.593  13.469 -0.0575 -0.0152  0.2311
 2043DOPE   C3A23971  18.508  31.969  13.212 -0.1224  0.0540  0.0353
 2043DOPE   C4A23972  18.417  32.406  13.140  0.0445  0.0224  0.3773
 2043DOPE   C1B23973  18.995  31.323  13.887  0.1380 -0.1535 -0.1349
 2043DOPE   D2B23974  18.867  31.120  13.518  0.2090 -0.1263  0.3173
 2043DOPE   C3B23975  19.030  30.704  13.478  0.1657  0.0442  0.1512
 2043DOPE   C4B23976  19.195  30.392  13.249 -0.0686  0.0157  0.1428
 2044DOPE   NH323977  10.384  30.635  14.037 -0.0007 -0.1101  0.2408
 2044DOPE   PO423978  10.463  30.380  13.793  0.2592  0.0519 -0.0390
 2044DOPE   GL123979  10.727  30.518  13.477 -0.2220 -0.1472  0.0486
 2044DOPE   GL223980  10.831  30.788  13.466 -0.4219 -0.0053  0.0447
 2044DOPE   C1A23981  10.849  30.576  13.039  0.4966  0.0369  0.0671
 2044DOPE   D2A23982  11.129  30.408  12.704  0.0698 -0.3186 -0.1297
 2044DOPE   C3A23983  11.197  30.694  12.318  0.0411 -0.1705  0.1158
 2044DOPE   C4A23984  10.962  30.906  11.945 -0.0146 -0.1148  0.1233
 2044DOPE   C1B23985  11.273  30.686  13.408 -0.1116 -0.1130  0.0486
 2044DOPE   D2B23986  11.663  30.448  13.340  0.3045 -0.0615 -0.0952
 2044DOPE   C3B23987  11.949  30.360  12.984 -0.2061  0.2184  0.0797
 2044DOPE   C4B23988  12.235  30.184  12.663 -0.3199 -0.0958 -0.0356
 2045DOPC   NC323989  19.928   0.557  14.215  0.0722 -0.0085 -0.1309
 2045DOPC   PO423990  20.082   0.205  14.201  0.4152 -0.1157  0.0986
 2045DOPC   GL123991  20.143   0.040  13.801 -0.1902 -0.1558 -0.0396
 2045DOPC   GL223992  20.085  -0.219  13.832  0.0248 -0.1260 -0.0327
 2045DOPC   C1A23993  20.309  -0.116  13.399  0.0448 -0.1220 -0.1341
 2045DOPC   D2A23994  20.623  -0.304  13.047 -0.0120 -0.0302 -0.2716
 2045DOPC   C3A23995  20.502  -0.507  12.659 -0.0874 -0.2641 -0.0345
 2045DOPC   C4A23996  20.370  -0.749  12.233  0.0248  0.2259  0.1431
 2045DOPC   C1B23997  19.985  -0.535  13.437  0.2578 -0.0293 -0.0816
 2045DOPC   D2B23998  19.982  -0.631  12.999  0.1202 -0.1770  0.1070
 2045DOPC   C3B23999  20.044  -0.393  12.633 -0.3520  0.1363  0.0599
 2045DOPC   C4B24000  20.233  -0.011  12.361 -0.0376 -0.1668  0.0216
 2046DOPC   NC324001  19.398  32.007  15.021 -0.0344 -0.1046  0.0557
 2046DOPC   PO424002  19.241  32.373  14.829 -0.2243  0.0546  0.0774
 2046DOPC   GL124003  19.436  32.430  14.534 -0.2288 -0.4506 -0.0626
 2046DOPC   GL224004  19.536  32.147  14.453 -0.2932  0.4355 -0.0439
 2046DOPC   C1A24005  19.757  32.587  14.181 -0.2620 -0.0071 -0.3248
 2046DOPC   D2A24006  19.912  32.409  13.756 -0.4194 -0.1845  0.1531
 2046DOPC   C3A24007  20.098  32.309  13.351  0.0432 -0.2986 -0.2838
 2046DOPC   C4A24008  20.255  32.306  12.919  0.1457  0.1030 -0.0770
 2046DOPC   C1B24009  19.352  32.207  14.026 -0.1300 -0.1704 -0.1078
 2046DOPC   D2B24010  19.264  32.269  13.596 -0.0846  0.0748 -0.0686
 2046DOPC   C3B24011  19.612  32.265  13.286 -0.2607  0.4659 -0.1046
 2046DOPC   C4B24012  19.679  32.418  12.877  0.1786  0.1705 -0.2025
 2047POSM   NC324013  17.608  24.186  13.197  0.2327  0.2097 -0.0658
 2047POSM   PO424014  17.723  24.541  13.313 -0.0138  0.1198 -0.1293
 2047POSM   AM124015  17.817  24.593  13.001 -0.0235 -0.2579 -0.0604
 2047POSM   AM224016  17.709  24.435  12.761 -0.4805  0.2737  0.2174
 2047POSM   T1A24017  18.077  24.927  12.712  0.0493 -0.3207  0.0747
 2047POSM   C2A24018  18.426  25.220  12.570  0.0141  0.1233 -0.0068
 2047POSM   C3A24019  18.826  25.342  12.784 -0.1765 -0.1844  0.1969
 2047POSM   C1B24020  17.693  24.576  12.482 -0.1558  0.2595  0.0867
 2047POSM   D2B24021  17.904  24.798  12.169  0.2203 -0.1747 -0.3413
 2047POSM   C3B24022  18.375  24.802  12.205  0.1036 -0.0979 -0.1454
 2047POSM   C4B24023  18.660  25.182  12.084 -0.2741 -0.1178 -0.2159
 2048DOPS   CNO24024  18.296  32.829  14.909  0.3686 -0.0930  0.2427
 2048DOPS   PO424025  18.206  32.604  14.601  0.2270 -0.0952 -0.3255
 2048DOPS   GL124026  18.282  32.514  14.193  0.3565  0.3398 -0.1962
 2048DOPS   GL224027  18.074  32.396  14.005  0.1951  0.2695 -0.2369
 2048DOPS   C1A24028  18.494  32.667  13.816 -0.0462 -0.1070  0.0836
 2048DOPS   D2A24029  18.342  32.848  13.449 -0.0215 -0.0957 -0.0701
 2048DOPS   C3A24030  18.118  32.843  13.052 -0.1382  0.3528 -0.0276
 2048DOPS   C4A24031  17.783  32.551  12.873 -0.2651  0.4781 -0.0593
 2048DOPS   C1B24032  18.368  32.239  13.638  0.3747 -0.0329  0.0014
 2048DOPS   D2B24033  18.766  32.356  13.438 -0.0044  0.0358 -0.1841
 2048DOPS   C3B24034  19.003  32.067  13.187  0.3066 -0.3753 -0.3673
 2048DOPS   C4B24035  19.387  31.880  12.941  0.1308 -0.1399  0.3640
 2049DOPC   NC324036  22.151  27.251  14.746 -0.1354 -0.2451  0.4341
 2049DOPC   PO424037  22.332  26.890  14.735 -0.0624 -0.3582 -0.1190
 2049DOPC   GL124038  22.333  26.920  14.286  0.1677  0.2818 -0.1644
 2049DOPC   GL224039  22.615  26.994  14.215 -0.1674  0.1558  0.0170
 2049DOPC   C1A24040  22.159  26.889  13.892  0.2929  0.4303 -0.3277
 2049DOPC   D2A24041  21.889  27.041  13.568 -0.1698 -0.0781  0.1830
 2049DOPC   C3A24042  21.963  27.021  13.088 -0.0372 -0.0439  0.1334
 2049DOPC   C4A24043  21.983  27.119  12.712 -0.0606 -0.2533  0.2091
 2049DOPC   C1B24044  23.005  27.257  14.249  0.2279 -0.0755  0.0525
 2049DOPC   D2B24045  23.372  27.557  14.159  0.2860 -0.2892 -0.0776
 2049DOPC   C3B24046  23.426  27.688  13.718  0.5682 -0.1790 -0.5469
 2049DOPC   C4B24047  23.636  27.837  13.341  0.1117  0.1687 -0.1477
 2050DOPE   NH324048  18.889  26.891  14.256 -0.0393  0.0719 -0.5393
 2050DOPE   PO424049  19.021  26.823  13.969 -0.1612 -0.0531 -0.2060
 2050DOPE   GL124050  18.972  26.952  13.657 -0.2307  0.1112 -0.1077
 2050DOPE   GL224051  18.801  27.080  13.615 -0.0642 -0.0215 -0.1535
 2050DOPE   C1A24052  19.151  26.996  13.220  0.2824 -0.1279  0.0362
 2050DOPE   D2A24053  19.262  27.401  12.993  0.3729 -0.0523 -0.1863
 2050DOPE   C3A24054  19.706  27.405  12.800  0.0251 -0.1210  0.1101
 2050DOPE   C4A24055  19.942  27.675  12.485 -0.2296 -0.0414  0.1060
 2050DOPE   C1B24056  18.768  27.340  13.294 -0.1036 -0.3320  0.1456
 2050DOPE   D2B24057  18.714  27.459  12.883  0.0879 -0.0482  0.1720
 2050DOPE   C3B24058  18.924  27.138  12.643  0.0043 -0.0538 -0.1656
 2050DOPE   C4B24059  19.228  26.944  12.415 -0.0730  0.0336  0.0588
 2051POSM   NC324060  18.048  33.931  14.294  0.1145 -0.2500  0.0211
 2051POSM   PO424061  18.278  34.264  14.232  0.1968 -0.1342  0.1177
 2051POSM   AM124062  18.375  34.069  13.970 -0.1615  0.1000  0.3521
 2051POSM   AM224063  18.238  33.906  13.826 -0.1592  0.1136  0.0789
 2051POSM   T1A24064  18.665  34.072  13.578 -0.1451  0.1575 -0.0618
 2051POSM   C2A24065  18.983  33.842  13.376 -0.3206 -0.0762  0.1867
 2051POSM   C3A24066  18.805  33.527  13.100  0.2469 -0.2967  0.1313
 2051POSM   C1B24067  18.197  33.913  13.519  0.1599 -0.1829 -0.0088
 2051POSM   D2B24068  18.172  33.863  13.086 -0.0520  0.0075  0.1712
 2051POSM   C3B24069  17.895  33.979  12.738 -0.2297  0.4052  0.0913
 2051POSM   C4B24070  17.798  33.868  12.309  0.1343  0.1224  0.0436
 2052DOPS   CNO24071  17.088   3.039  13.956  0.1309  0.2052  0.1372
 2052DOPS   PO424072  17.080   2.647  13.838  0.1218 -0.4040  0.3297
 2052DOPS   GL124073  17.215   2.763  13.547 -0.0101 -0.2727  0.1743
 2052DOPS   GL224074  17.183   3.045  13.486 -0.1188  0.0568 -0.0892
 2052DOPS   C1A24075  17.289   2.458  13.219  0.2534 -0.1623  0.1148
 2052DOPS   D2A24076  16.984   2.249  12.892  0.0531 -0.3137 -0.0496
 2052DOPS   C3A24077  16.755   1.974  12.624 -0.4243 -0.3061 -0.0513
 2052DOPS   C4A24078  16.367   1.811  12.618  0.0535  0.1863  0.1609
 2052DOPS   C1B24079  17.188   3.273  13.066  0.0697  0.6097 -0.3879
 2052DOPS   D2B24080  17.378   3.728  13.044 -0.1119 -0.1236 -0.1175
 2052DOPS   C3B24081  17.198   3.933  12.636  0.1555  0.3350  0.0024
 2052DOPS   C4B24082  17.278   4.187  12.250 -0.0567 -0.0654 -0.1110
 2053DOPC   NC324083  23.692  26.782  14.712 -0.1355  0.1198  0.0479
 2053DOPC   PO424084  23.261  26.873  14.718 -0.0453  0.3743  0.1433
 2053DOPC   GL124085  23.402  26.852  14.343  0.1034  0.0145  0.1050
 2053DOPC   GL224086  23.560  26.604  14.171 -0.1659  0.0831 -0.0025
 2053DOPC   C1A24087  23.126  26.800  13.931  0.3078 -0.0502 -0.1615
 2053DOPC   D2A24088  23.237  26.804  13.477 -0.1806  0.0949 -0.1220
 2053DOPC   C3A24089  23.232  26.633  13.060 -0.0038 -0.0896  0.3070
 2053DOPC   C4A24090  23.085  26.412  12.651  0.2211 -0.3172 -0.1212
 2053DOPC   C1B24091  23.497  26.440  13.723  0.1700  0.0951 -0.0987
 2053DOPC   D2B24092  23.655  26.476  13.302  0.1841  0.1229 -0.1467
 2053DOPC   C3B24093  23.652  26.028  13.163 -0.0317 -0.2586 -0.1065
 2053DOPC   C4B24094  23.564  25.632  12.986  0.0261  0.0279  0.0657
 2054DOPE   NH324095  19.048  26.305  14.152  0.1197 -0.0194  0.1250
 2054DOPE   PO424096  18.902  26.018  14.114  0.1530 -0.1145  0.1591
 2054DOPE   GL124097  18.936  26.178  13.724 -0.0951 -0.0732  0.3289
 2054DOPE   GL224098  18.881  26.415  13.674  0.0403 -0.0790 -0.3329
 2054DOPE   C1A24099  19.238  26.208  13.363  0.1341 -0.1738  0.1459
 2054DOPE   D2A24100  19.407  26.013  12.951  0.0688  0.0848 -0.1329
 2054DOPE   C3A24101  19.703  25.914  12.626  0.4582 -0.0319 -0.2229
 2054DOPE   C4A24102  19.841  25.734  12.227 -0.0249  0.2969  0.0391
 2054DOPE   C1B24103  18.796  26.656  13.318 -0.2699 -0.0013 -0.0847
 2054DOPE   D2B24104  18.671  26.882  12.983  0.1793 -0.1914 -0.0628
 2054DOPE   C3B24105  18.289  26.825  12.787 -0.1518 -0.2398 -0.0960
 2054DOPE   C4B24106  17.960  26.796  12.491 -0.3710  0.3751  0.1062
 2055DOPE   NH324107  17.297  29.675  14.748 -0.0808  0.0519 -0.1608
 2055DOPE   PO424108  17.247  29.613  14.430 -0.0214  0.0025 -0.0775
 2055DOPE   GL124109  17.087  29.625  14.179  0.4893 -0.0573 -0.1576
 2055DOPE   GL224110  16.780  29.766  14.260 -0.1505  0.2257 -0.1272
 2055DOPE   C1A24111  17.350  29.735  13.821  0.2411 -0.1865  0.4339
 2055DOPE   D2A24112  17.224  29.890  13.373 -0.1750 -0.0410 -0.0912
 2055DOPE   C3A24113  17.104  29.636  12.947  0.0709 -0.2069 -0.0138
 2055DOPE   C4A24114  17.204  29.312  12.707 -0.1092  0.2157 -0.0362
 2055DOPE   C1B24115  16.831  29.968  13.829  0.0092  0.1949  0.0713
 2055DOPE   D2B24116  16.550  30.076  13.519  0.2419  0.2682  0.1580
 2055DOPE   C3B24117  16.402  30.471  13.271  0.1578 -0.2808  0.2267
 2055DOPE   C4B24118  16.621  30.652  12.939 -0.4753 -0.1408 -0.1212
 2056DOPC   NC324119  18.320  34.668  14.498  0.2765 -0.1220 -0.0123
 2056DOPC   PO424120  18.197  34.963  14.233  0.3056  0.2705  0.0464
 2056DOPC   GL124121  18.251  34.977  13.866  0.1977  0.2663 -0.0370
 2056DOPC   GL224122  17.954  34.825  13.831  0.1363  0.2897 -0.2343
 2056DOPC   C1A24123  18.562  35.118  13.536 -0.1352  0.0074  0.0112
 2056DOPC   D2A24124  18.971  35.292  13.407  0.2299  0.1550 -0.0550
 2056DOPC   C3A24125  19.036  35.256  12.940  0.2197 -0.0518 -0.2088
 2056DOPC   C4A24126  19.505  35.334  12.761 -0.1166 -0.1345 -0.1467
 2056DOPC   C1B24127  18.159  34.881  13.402 -0.1866 -0.0369 -0.0431
 2056DOPC   D2B24128  18.372  34.771  13.003  0.0104  0.2588 -0.0835
 2056DOPC   C3B24129  18.624  35.038  12.708 -0.1164 -0.0860  0.1200
 2056DOPC   C4B24130  19.049  35.080  12.475 -0.0197  0.0491  0.1449
 2057POSM   NC324131  20.273  29.206  14.822  0.1427  0.3596  0.1389
 2057POSM   PO424132  19.961  29.367  14.627 -0.1720 -0.0287  0.2559
 2057POSM   AM124133  19.916  29.547  14.393 -0.0577 -0.1446  0.1715
 2057POSM   AM224134  20.008  29.519  14.116  0.1674 -0.1152 -0.1486
 2057POSM   T1A24135  19.709  29.897  14.116  0.2060 -0.1266 -0.1338
 2057POSM   C2A24136  19.779  30.088  13.648  0.2778  0.0117  0.0080
 2057POSM   C3A24137  19.587  29.941  13.290 -0.4306  0.1733 -0.0068
 2057POSM   C1B24138  20.035  29.669  13.785 -0.2225  0.2080  0.0340
 2057POSM   D2B24139  20.151  29.816  13.312  0.0914 -0.0094  0.0414
 2057POSM   C3B24140  20.238  29.693  12.852 -0.0543 -0.0022 -0.2001
 2057POSM   C4B24141  20.451  29.898  12.448  0.1160 -0.0453 -0.0955
 2058DOPE   NH324142  12.923  32.720  14.267  0.0466  0.1808  0.2225
 2058DOPE   PO424143  12.749  32.515  14.071 -0.3307 -0.0634  0.1952
 2058DOPE   GL124144  12.854  32.551  13.745 -0.2288  0.1084 -0.2419
 2058DOPE   GL224145  12.904  32.262  13.579  0.3232 -0.0221  0.1205
 2058DOPE   C1A24146  12.876  32.904  13.467  0.0139  0.3164 -0.1585
 2058DOPE   D2A24147  13.154  32.905  13.099  0.2327  0.0039 -0.0432
 2058DOPE   C3A24148  13.162  32.658  12.718 -0.1713 -0.1040  0.2794
 2058DOPE   C4A24149  13.039  32.470  12.338 -0.2579 -0.0361  0.0670
 2058DOPE   C1B24150  12.883  32.494  13.198 -0.0655 -0.0646  0.1920
 2058DOPE   D2B24151  12.713  32.399  12.778  0.1702  0.0958 -0.0195
 2058DOPE   C3B24152  12.573  32.602  12.381 -0.1509 -0.0719  0.1856
 2058DOPE   C4B24153  12.198  32.814  12.134  0.1256 -0.1196  0.3791
 2059DOPS   CNO24154  16.574  24.499  13.355 -0.0326 -0.1428 -0.1368
 2059DOPS   PO424155  16.942  24.468  13.184  0.0544  0.1187 -0.2396
 2059DOPS   GL124156  17.250  24.525  13.047 -0.1504 -0.0196  0.2391
 2059DOPS   GL224157  17.371  24.820  13.013  0.0295  0.0124  0.3364
 2059DOPS   C1A24158  17.206  24.519  12.574  0.0346 -0.0639  0.0108
 2059DOPS   D2A24159  17.270  24.489  12.084  0.5016 -0.4469 -0.1482
 2059DOPS   C3A24160  17.608  24.479  11.728 -0.1424  0.0276 -0.1801
 2059DOPS   C4A24161  18.082  24.548  11.709 -0.0162 -0.0912 -0.0177
 2059DOPS   C1B24162  17.521  25.069  12.649 -0.1587  0.3032  0.0387
 2059DOPS   D2B24163  17.346  24.985  12.223 -0.1340  0.2326 -0.0893
 2059DOPS   C3B24164  17.335  25.020  11.712  0.0915 -0.2380  0.1061
 2059DOPS   C4B24165  17.490  25.179  11.338 -0.1239  0.1185 -0.3032
 2060POSM   NC324166  16.111  31.545  15.345  0.2155  0.1037  0.0975
 2060POSM   PO424167  16.278  31.712  14.985 -0.0307 -0.2390 -0.0010
 2060POSM   AM124168  16.539  31.577  14.880 -0.0461 -0.1755 -0.0240
 2060POSM   AM224169  16.661  31.532  14.589 -0.1366  0.1699 -0.1673
 2060POSM   T1A24170  16.824  31.158  14.873  0.0629  0.0134  0.1989
 2060POSM   C2A24171  17.038  31.064  14.463  0.0858 -0.0716  0.1030
 2060POSM   C3A24172  17.318  31.251  14.133 -0.2230 -0.3585 -0.0782
 2060POSM   C1B24173  16.561  31.455  14.253  0.0517  0.0777 -0.0316
 2060POSM   D2B24174  16.520  31.352  13.803  0.2936  0.4036  0.2047
 2060POSM   C3B24175  16.482  31.274  13.338  0.1328  0.0315  0.1887
 2060POSM   C4B24176  16.848  31.117  13.069  0.0720 -0.2884 -0.0913
 2061POSM   NC324177  15.298  31.755  14.781 -0.2005 -0.3699 -0.0441
 2061POSM   PO424178  15.212  32.079  14.561  0.2821 -0.1336  0.0812
 2061POSM   AM124179  15.482  31.966  14.413 -0.2937  0.1499  0.0609
 2061POSM   AM224180  15.578  31.795  14.181  0.1702  0.0161  0.0343
 2061POSM   T1A24181  15.916  32.105  14.260  0.1630  0.2628  0.5411
 2061POSM   C2A24182  16.201  32.308  13.982 -0.1137  0.5651  0.2830
 2061POSM   C3A24183  16.425  32.582  13.699 -0.1146 -0.2221  0.1888
 2061POSM   C1B24184  15.558  32.024  13.895 -0.0481  0.0611  0.2560
 2061POSM   D2B24185  15.528  32.366  13.605  0.0356  0.1587  0.0117
 2061POSM   C3B24186  15.646  32.150  13.228  0.0094 -0.1011 -0.2071
 2061POSM   C4B24187  15.775  32.103  12.757 -0.0540  0.1292 -0.0459
 2062DOPC   NC324188  18.106  23.810  13.113  0.2432 -0.0266 -0.1696
 2062DOPC   PO424189  18.219  23.764  12.700  0.1907  0.1564  0.0613
 2062DOPC   GL124190  18.394  23.722  12.345  0.0048  0.0684 -0.2489
 2062DOPC   GL224191  18.170  23.602  12.238  0.0333  0.1725 -0.1463
 2062DOPC   C1A24192  18.677  23.385  12.180 -0.1101  0.0706 -0.1401
 2062DOPC   D2A24193  18.717  23.099  11.823  0.4474  0.0577  0.4443
 2062DOPC   C3A24194  18.544  23.248  11.424  0.2907 -0.2349  0.0652
 2062DOPC   C4A24195  18.607  23.636  11.172  0.1355 -0.2170  0.1304
 2062DOPC   C1B24196  17.887  23.692  11.842 -0.0914 -0.4031  0.0298
 2062DOPC   D2B24197  17.645  23.603  11.495  0.1832 -0.5695 -0.0075
 2062DOPC   C3B24198  17.348  23.899  11.304  0.0426 -0.0861 -0.0973
 2062DOPC   C4B24199  16.939  23.903  11.056  0.1009 -0.0389  0.0336
 2063DOPS   CNO24200  19.550  26.208  13.846 -0.0248 -0.1429  0.0663
 2063DOPS   PO424201  19.417  26.541  13.914  0.3766  0.1489  0.0229
 2063DOPS   GL124202  19.622  26.686  13.639 -0.0109  0.0954  0.0870
 2063DOPS   GL224203  19.872  26.791  13.744 -0.1186 -0.3072 -0.1536
 2063DOPS   C1A24204  19.490  26.601  13.231  0.0196 -0.1823  0.0811
 2063DOPS   D2A24205  19.108  26.518  12.963  0.2183 -0.1848  0.0196
 2063DOPS   C3A24206  19.334  26.405  12.668  0.0542 -0.1345  0.1190
 2063DOPS   C4A24207  19.686  26.399  12.374 -0.2537 -0.2679  0.0925
 2063DOPS   C1B24208  19.971  26.754  13.241  0.1936 -0.1886  0.0636
 2063DOPS   D2B24209  20.341  26.978  13.039 -0.2812 -0.2813  0.4299
 2063DOPS   C3B24210  20.492  26.945  12.594 -0.3212  0.1382 -0.0546
 2063DOPS   C4B24211  20.582  26.715  12.203 -0.1356  0.2193 -0.0010
 2064DOPE   NH324212  17.748  33.296  14.565 -0.0587 -0.0476  0.1522
 2064DOPE   PO424213  17.966  33.386  14.403 -0.0086  0.1846 -0.1904
 2064DOPE   GL124214  17.968  33.282  14.009 -0.2323  0.1699  0.2535
 2064DOPE   GL224215  18.232  33.353  13.922  0.0670 -0.0803  0.1170
 2064DOPE   C1A24216  17.942  32.832  13.798  0.2600  0.0183  0.0511
 2064DOPE   D2A24217  17.963  32.512  13.441 -0.0821  0.0803 -0.3088
 2064DOPE   C3A24218  17.960  32.144  13.138  0.1770 -0.0076  0.0271
 2064DOPE   C4A24219  17.768  32.049  12.711  0.1346 -0.0381 -0.0528
 2064DOPE   C1B24220  17.998  33.261  13.519  0.0063 -0.2076 -0.1615
 2064DOPE   D2B24221  17.808  33.468  13.148  0.1671  0.0696  0.0681
 2064DOPE   C3B24222  17.740  33.156  12.777  0.1685  0.1662  0.3922
 2064DOPE   C4B24223  17.482  32.819  12.589  0.1772  0.3571 -0.0752
 2065POSM   NC324224  20.466  29.547  14.257  0.2123  0.0230 -0.1777
 2065POSM   PO424225  20.627  29.898  14.192 -0.0967  0.2307 -0.0939
 2065POSM   AM124226  20.721  29.903  13.875 -0.3425 -0.0385  0.2232
 2065POSM   AM224227  20.911  29.930  13.673  0.1110  0.1878  0.0737
 2065POSM   T1A24228  20.537  30.194  13.496  0.0267  0.1386  0.3054
 2065POSM   C2A24229  20.144  30.346  13.347  0.5471  0.3558  0.2218
 2065POSM   C3A24230  20.118  30.540  12.912 -0.2482  0.1978  0.2045
 2065POSM   C1B24231  20.796  29.856  13.341 -0.0295  0.0092  0.1279
 2065POSM   D2B24232  20.727  29.683  12.874 -0.1821 -0.4071 -0.1876
 2065POSM   C3B24233  20.948  29.436  12.588  0.1828 -0.0507  0.0089
 2065POSM   C4B24234  21.072  29.081  12.304 -0.2228 -0.0122  0.3351
 2066POSM   NC324235  23.517  27.617  15.024  0.1830 -0.3164 -0.1647
 2066POSM   PO424236  23.481  27.835  14.685  0.1033  0.0834  0.1164
 2066POSM   AM124237  23.667  27.791  14.443 -0.1176 -0.0231  0.0062
 2066POSM   AM224238  23.709  27.919  14.181  0.1478  0.0059 -0.0903
 2066POSM   T1A24239  23.964  27.479  14.246  0.1920 -0.2514  0.2700
 2066POSM   C2A24240  24.221  27.228  13.919  0.1289  0.0381 -0.4208
 2066POSM   C3A24241  24.469  26.760  13.763 -0.3498 -0.1060 -0.0871
 2066POSM   C1B24242  23.830  27.853  13.924 -0.0151 -0.1670  0.1140
 2066POSM   D2B24243  24.083  27.627  13.607  0.1195  0.1877  0.1690
 2066POSM   C3B24244  23.915  27.247  13.368 -0.0331 -0.1142 -0.1287
 2066POSM   C4B24245  23.792  26.918  13.067 -0.3512 -0.0118 -0.0705
 2067DOPC   NC324246  12.455  33.490  14.147 -0.0605 -0.0480  0.2185
 2067DOPC   PO424247  12.176  33.216  14.176 -0.3376 -0.0491 -0.0929
 2067DOPC   GL124248  12.283  33.274  13.771  0.0047  0.3015 -0.4381
 2067DOPC   GL224249  12.135  33.525  13.721 -0.0683 -0.2881 -0.3950
 2067DOPC   C1A24250  12.221  33.152  13.327 -0.3752  0.3979 -0.0200
 2067DOPC   D2A24251  12.216  33.291  12.867 -0.4264 -0.2006  0.2155
 2067DOPC   C3A24252  11.868  33.510  12.710  0.0095  0.0568 -0.2945
 2067DOPC   C4A24253  11.517  33.396  12.393  0.0786  0.0973  0.0105
 2067DOPC   C1B24254  12.336  33.643  13.387 -0.2378  0.1595  0.1271
 2067DOPC   D2B24255  12.522  33.724  12.956  0.0966  0.0773 -0.1112
 2067DOPC   C3B24256  12.594  33.557  12.479 -0.1650 -0.1908 -0.2830
 2067DOPC   C4B24257  12.678  33.299  12.060  0.0158  0.2834 -0.0070
 2068DOPC   NC324258  12.312  28.778  13.835 -0.0999 -0.0376  0.2225
 2068DOPC   PO424259  12.673  28.571  13.778 -0.0859 -0.0501 -0.1126
 2068DOPC   GL124260  12.843  28.741  13.394  0.1551  0.2964 -0.0312
 2068DOPC   GL224261  12.842  28.980  13.431 -0.1645  0.0763  0.0613
 2068DOPC   C1A24262  12.621  28.496  13.070  0.4126 -0.0012 -0.2729
 2068DOPC   D2A24263  12.566  28.454  12.614 -0.0136 -0.2677  0.0734
 2068DOPC   C3A24264  12.152  28.558  12.412 -0.2223  0.0649  0.2825
 2068DOPC   C4A24265  11.840  28.366  12.055 -0.2969  0.0638  0.1176
 2068DOPC   C1B24266  13.015  29.167  13.022  0.0917 -0.1879 -0.3531
 2068DOPC   D2B24267  13.182  29.373  12.663 -0.4734  0.1161  0.1769
 2068DOPC   C3B24268  13.434  29.306  12.221 -0.0720 -0.1098 -0.3248
 2068DOPC   C4B24269  13.740  29.344  11.889 -0.0650  0.1752  0.2869
 2069POSM   NC324270  20.500  22.859  13.210 -0.1431 -0.2972 -0.6047
 2069POSM   PO424271  20.460  22.650  12.878 -0.3079  0.0117 -0.1058
 2069POSM   AM124272  20.605  22.726  12.595  0.2002  0.0061 -0.0765
 2069POSM   AM224273  20.803  22.589  12.498 -0.1652  0.0152  0.0475
 2069POSM   T1A24274  20.857  23.084  12.312 -0.0541  0.0215  0.3044
 2069POSM   C2A24275  20.884  23.122  11.819  0.0365  0.2358 -0.2718
 2069POSM   C3A24276  20.662  23.155  11.398  0.0469  0.0393 -0.2213
 2069POSM   C1B24277  20.848  22.491  12.165 -0.0295  0.2055 -0.0963
 2069POSM   D2B24278  21.028  22.456  11.746 -0.0712  0.0828  0.0819
 2069POSM   C3B24279  21.474  22.518  11.523 -0.4696  0.1212  0.2876
 2069POSM   C4B24280  21.621  22.897  11.277 -0.0045  0.1085 -0.2743
 2070POSM   NC324281  22.824  30.806  14.741 -0.2335  0.1750  0.2861
 2070POSM   PO424282  22.590  30.506  14.665  0.0583 -0.1608  0.0519
 2070POSM   AM124283  22.870  30.434  14.435 -0.1793  0.3428  0.0570
 2070POSM   AM224284  22.908  30.347  14.157  0.1305 -0.1016  0.3944
 2070POSM   T1A24285  23.192  30.751  14.165 -0.2853 -0.1119 -0.0074
 2070POSM   C2A24286  23.597  30.854  14.131 -0.1429 -0.0999  0.1291
 2070POSM   C3A24287  23.945  30.696  13.868 -0.0741 -0.0282  0.3439
 2070POSM   C1B24288  22.992  30.183  13.830  0.2368 -0.3450 -0.3431
 2070POSM   D2B24289  23.195  30.278  13.413  0.0614  0.1365 -0.2698
 2070POSM   C3B24290  23.142  30.696  13.211  0.1825  0.3673 -0.2319
 2070POSM   C4B24291  22.834  30.991  13.399 -0.2330  0.0321 -0.1305
 2071DOPE   NH324292  21.988  33.328  14.983  0.3723 -0.1111  0.0756
 2071DOPE   PO424293  22.111  33.078  14.959 -0.3991 -0.0350 -0.1057
 2071DOPE   GL124294  22.030  33.028  14.609 -0.2085 -0.3751 -0.0531
 2071DOPE   GL224295  22.252  32.789  14.503  0.0313 -0.2803  0.0805
 2071DOPE   C1A24296  21.725  32.885  14.368  0.0937 -0.1150 -0.0811
 2071DOPE   D2A24297  21.377  32.993  13.993  0.0496 -0.0026  0.0080
 2071DOPE   C3A24298  21.252  32.838  13.603  0.3201 -0.1020  0.0344
 2071DOPE   C4A24299  21.206  32.738  13.132  0.0556  0.1836  0.1521
 2071DOPE   C1B24300  22.126  32.561  14.162  0.2927 -0.0410 -0.0295
 2071DOPE   D2B24301  22.310  32.391  13.782 -0.4952 -0.1005 -0.1911
 2071DOPE   C3B24302  22.062  32.533  13.409  0.0641  0.3055 -0.1864
 2071DOPE   C4B24303  21.682  32.486  13.048 -0.2992 -0.0892  0.0689
 2072DOPC   NC324304  16.942   0.769  13.861 -0.3098 -0.0910 -0.0837
 2072DOPC   PO424305  16.570   0.582  14.048  0.1458 -0.2340 -0.1681
 2072DOPC   GL124306  16.599   0.473  13.737 -0.1282 -0.4009 -0.1313
 2072DOPC   GL224307  16.307   0.286  13.683  0.0490  0.1398 -0.0620
 2072DOPC   C1A24308  16.669   0.322  13.293 -0.3026  0.2230 -0.1018
 2072DOPC   D2A24309  16.861   0.641  12.954  0.1652 -0.0507 -0.0701
 2072DOPC   C3A24310  16.944   0.481  12.523 -0.1919 -0.1456 -0.1259
 2072DOPC   C4A24311  16.545   0.445  12.325  0.1255 -0.0546 -0.2132
 2072DOPC   C1B24312  16.177   0.211  13.252  0.3814 -0.2068  0.0042
 2072DOPC   D2B24313  15.928   0.429  12.920 -0.3249  0.1191 -0.1008
 2072DOPC   C3B24314  15.895   0.897  13.029 -0.2341  0.0911 -0.1196
 2072DOPC   C4B24315  15.898   1.261  13.279  0.0896 -0.0537 -0.2403
 2073DOPE   NH324316  18.121  32.116  14.585  0.0156  0.0585  0.0442
 2073DOPE   PO424317  18.050  31.802  14.652  0.2406 -0.0574 -0.2058
 2073DOPE   GL124318  17.804  31.740  14.334 -0.3817  0.2324  0.3680
 2073DOPE   GL224319  18.050  31.672  14.165  0.1423  0.0991 -0.2889
 2073DOPE   C1A24320  17.677  31.636  13.861 -0.1126  0.0190 -0.0046
 2073DOPE   D2A24321  17.418  31.334  13.579 -0.1192  0.0016  0.2826
 2073DOPE   C3A24322  16.991  31.260  13.521 -0.0184 -0.0062 -0.3750
 2073DOPE   C4A24323  16.731  30.883  13.547  0.2260 -0.0131  0.1194
 2073DOPE   C1B24324  18.108  31.823  13.796  0.1470  0.0847 -0.1177
 2073DOPE   D2B24325  17.927  31.533  13.421 -0.1168  0.0611  0.0193
 2073DOPE   C3B24326  17.716  31.162  13.230  0.0183  0.2983 -0.0189
 2073DOPE   C4B24327  17.789  30.707  12.994 -0.3080  0.1511 -0.2109
 2074DOPE   NH324328  21.990  25.627  14.513 -0.1033 -0.1834  0.2527
 2074DOPE   PO424329  22.022  25.735  14.228 -0.1791  0.1666 -0.3023
 2074DOPE   GL124330  22.090  25.649  13.976 -0.2289  0.2812 -0.2289
 2074DOPE   GL224331  22.111  25.936  13.792 -0.1925  0.1720  0.1841
 2074DOPE   C1A24332  22.496  25.514  13.735 -0.5528 -0.1405 -0.0945
 2074DOPE   D2A24333  22.982  25.542  13.633 -0.2154 -0.1480  0.1944
 2074DOPE   C3A24334  23.252  25.534  13.989  0.0117 -0.2171 -0.3223
 2074DOPE   C4A24335  23.644  25.505  14.223 -0.1552 -0.1344 -0.0678
 2074DOPE   C1B24336  21.949  26.010  13.386 -0.1418 -0.0106 -0.1500
 2074DOPE   D2B24337  21.701  26.172  13.001 -0.0786  0.0437 -0.0651
 2074DOPE   C3B24338  21.803  26.078  12.561 -0.2148 -0.0485 -0.1239
 2074DOPE   C4B24339  22.135  25.979  12.258  0.0717 -0.0689 -0.1588
 2075DOPE   NH324340  20.496  24.107  13.410  0.1206  0.3879 -0.2545
 2075DOPE   PO424341  20.736  24.233  13.573 -0.1988  0.1273 -0.0384
 2075DOPE   GL124342  21.041  24.256  13.285  0.3708 -0.3294  0.5091
 2075DOPE   GL224343  21.207  24.251  13.571 -0.1523 -0.1519 -0.2843
 2075DOPE   C1A24344  21.093  24.165  12.817 -0.0209 -0.0447 -0.0135
 2075DOPE   D2A24345  20.892  24.035  12.414  0.3527 -0.0846  0.2589
 2075DOPE   C3A24346  21.320  23.927  12.212 -0.0348  0.1299 -0.0783
 2075DOPE   C4A24347  21.683  24.141  12.033  0.0405  0.0796 -0.1045
 2075DOPE   C1B24348  21.405  24.452  13.207  0.1862  0.1622  0.0331
 2075DOPE   D2B24349  21.225  24.649  12.868 -0.2447  0.2378  0.1441
 2075DOPE   C3B24350  21.029  24.576  12.412 -0.0884  0.0791 -0.1522
 2075DOPE   C4B24351  20.728  24.359  12.048 -0.0659  0.0594  0.3973
 2076DOPS   CNO24352  11.649  28.467  14.099  0.3066 -0.2220 -0.1797
 2076DOPS   PO424353  11.827  28.668  13.844  0.4417  0.2568  0.1055
 2076DOPS   GL124354  11.761  28.811  13.406 -0.3133 -0.0355  0.0211
 2076DOPS   GL224355  12.037  28.816  13.409  0.0895 -0.1508  0.1215
 2076DOPS   C1A24356  11.784  29.170  13.157  0.1019  0.0504  0.0257
 2076DOPS   D2A24357  11.847  29.394  12.756  0.0878  0.0482  0.0072
 2076DOPS   C3A24358  11.473  29.195  12.470 -0.0662  0.0500 -0.3888
 2076DOPS   C4A24359  11.220  29.050  12.078 -0.0469 -0.1900 -0.0870
 2076DOPS   C1B24360  12.365  28.947  13.099 -0.0704 -0.0075 -0.0777
 2076DOPS   D2B24361  12.480  28.934  12.649 -0.1104  0.2364  0.0361
 2076DOPS   C3B24362  12.105  29.039  12.408 -0.2065 -0.0155  0.1638
 2076DOPS   C4B24363  11.807  28.806  12.189 -0.0209  0.1860 -0.2846
 2077DOPE   NH324364  15.887  31.139  15.120  0.0073  0.0571  0.0222
 2077DOPE   PO424365  15.912  31.311  14.843  0.0515 -0.1917 -0.2673
 2077DOPE   GL124366  16.166  31.443  14.643 -0.1621  0.0379 -0.2571
 2077DOPE   GL224367  16.070  31.437  14.351  0.0255  0.2035 -0.2500
 2077DOPE   C1A24368  16.382  31.075  14.473  0.1264  0.1127  0.1783
 2077DOPE   D2A24369  16.717  30.837  14.171  0.0621 -0.0035 -0.0904
 2077DOPE   C3A24370  17.108  30.778  13.980 -0.1362 -0.0722  0.2431
 2077DOPE   C4A24371  17.533  30.872  13.883  0.1327 -0.1077  0.1607
 2077DOPE   C1B24372  16.072  31.761  13.990 -0.1641 -0.1190 -0.1165
 2077DOPE   D2B24373  15.922  32.072  13.645  0.3639 -0.3639 -0.0660
 2077DOPE   C3B24374  15.974  32.473  13.436 -0.1091  0.0056  0.0572
 2077DOPE   C4B24375  16.353  32.762  13.271 -0.3286  0.0534  0.0566
 2078DOPE   NH324376  15.378  30.793  14.306 -0.0344  0.3668  0.1496
 2078DOPE   PO424377  15.223  30.928  14.541  0.0316 -0.0262 -0.1391
 2078DOPE   GL124378  15.013  31.029  14.165  0.1419 -0.0257 -0.1153
 2078DOPE   GL224379  15.020  30.901  13.824 -0.2319  0.2334 -0.0216
 2078DOPE   C1A24380  14.610  31.171  14.055  0.3023  0.3794  0.2379
 2078DOPE   D2A24381  14.425  31.347  13.634 -0.0446  0.0115  0.4909
 2078DOPE   C3A24382  14.567  31.666  13.324  0.1515  0.0456  0.2410
 2078DOPE   C4A24383  14.389  31.773  12.951 -0.1566 -0.1740  0.2808
 2078DOPE   C1B24384  15.005  30.630  13.498  0.0832  0.0187 -0.1931
 2078DOPE   D2B24385  14.878  30.650  13.054  0.0237 -0.1422 -0.0795
 2078DOPE   C3B24386  14.663  30.494  12.726  0.3036  0.0484 -0.1039
 2078DOPE   C4B24387  14.334  30.710  12.484  0.0953  0.0735 -0.2164
 2079POSM   NC324388  15.240  23.390  12.309 -0.2610 -0.0582  0.2641
 2079POSM   PO424389  15.627  23.441  12.450 -0.1807 -0.0775  0.0191
 2079POSM   AM124390  15.666  23.428  12.136 -0.2182 -0.1229 -0.1533
 2079POSM   AM224391  15.895  23.470  11.952 -0.1859 -0.1323  0.2745
 2079POSM   T1A24392  15.473  23.679  11.747  0.0341  0.0777  0.1319
 2079POSM   C2A24393  15.236  23.754  11.315  0.0772 -0.1748  0.1658
 2079POSM   C3A24394  15.318  23.908  10.853  0.0730 -0.3035 -0.1793
 2079POSM   C1B24395  16.037  23.429  11.665  0.0095  0.0020  0.4811
 2079POSM   D2B24396  16.142  23.313  11.229  0.2022 -0.0223  0.2765
 2079POSM   C3B24397  16.022  23.494  10.864  0.3964  0.1184  0.1380
 2079POSM   C4B24398  15.823  23.793  10.584  0.1063 -0.0061  0.0912
 2080POSM   NC324399  16.791  25.724  13.710 -0.3195 -0.0857 -0.1298
 2080POSM   PO424400  17.022  26.049  13.727  0.0602 -0.1179 -0.0376
 2080POSM   AM124401  17.000  26.274  13.463 -0.2134  0.0159 -0.1784
 2080POSM   AM224402  16.905  26.541  13.451  0.0161 -0.1180 -0.0319
 2080POSM   T1A24403  17.192  26.573  13.078  0.1798  0.1256  0.1593
 2080POSM   C2A24404  17.062  27.002  12.905 -0.1036 -0.0337  0.0892
 2080POSM   C3A24405  17.195  27.322  12.583  0.2380 -0.1163 -0.1691
 2080POSM   C1B24406  16.879  26.851  13.333 -0.1882  0.1540 -0.0682
 2080POSM   D2B24407  16.691  27.234  13.210  0.3050  0.1745 -0.0326
 2080POSM   C3B24408  16.304  27.145  12.930 -0.0488  0.1069 -0.0782
 2080POSM   C4B24409  16.115  26.960  12.571  0.0898  0.0731 -0.0536
 2081DOPC   NC324410  19.220  27.419  13.518  0.1452  0.0736  0.0089
 2081DOPC   PO424411  19.070  27.416  13.899 -0.2461 -0.1210 -0.1895
 2081DOPC   GL124412  18.903  27.712  13.636  0.1881 -0.0602 -0.1369
 2081DOPC   GL224413  18.720  27.899  13.805  0.1554 -0.1204 -0.1588
 2081DOPC   C1A24414  18.781  27.849  13.198 -0.2241 -0.0017  0.0491
 2081DOPC   D2A24415  18.790  28.016  12.794  0.2430 -0.2771  0.2594
 2081DOPC   C3A24416  18.753  27.748  12.476 -0.2069  0.1166 -0.2968
 2081DOPC   C4A24417  18.973  27.391  12.237  0.0128  0.0324 -0.0677
 2081DOPC   C1B24418  18.760  28.358  13.616  0.2733  0.1053  0.2704
 2081DOPC   D2B24419  19.057  28.661  13.365  0.2194 -0.3861 -0.1839
 2081DOPC   C3B24420  19.386  28.576  13.031  0.0832  0.0576 -0.0842
 2081DOPC   C4B24421  19.398  28.468  12.605  0.0971 -0.2833 -0.0652
 2082DOPC   NC324422  16.636  29.470  14.727  0.0062 -0.0594  0.2905
 2082DOPC   PO424423  16.439  29.332  14.448 -0.1830 -0.2059 -0.0745
 2082DOPC   GL124424  16.725  29.256  14.178 -0.0963 -0.1382 -0.5492
 2082DOPC   GL224425  16.635  29.047  14.004  0.0454  0.0414 -0.2265
 2082DOPC   C1A24426  16.870  29.453  13.793 -0.0406  0.0821 -0.1564
 2082DOPC   D2A24427  16.759  29.630  13.356 -0.2791 -0.1629 -0.1851
 2082DOPC   C3A24428  16.332  29.699  13.235 -0.0422 -0.0763  0.1662
 2082DOPC   C4A24429  16.144  29.781  12.865  0.1238 -0.1475  0.0443
 2082DOPC   C1B24430  16.623  28.843  13.625  0.0241 -0.2782 -0.0134
 2082DOPC   D2B24431  16.927  28.654  13.334  0.0104 -0.0147 -0.2581
 2082DOPC   C3B24432  16.908  28.257  13.123 -0.0020  0.0933  0.3108
 2082DOPC   C4B24433  16.903  27.934  12.778  0.3123 -0.3448 -0.1445
 2083POSM   NC324434  13.699  33.516  14.598 -0.3191  0.0614 -0.1376
 2083POSM   PO424435  13.499  33.646  14.264  0.1625 -0.1314 -0.0738
 2083POSM   AM124436  13.520  33.541  13.940 -0.1169  0.0241 -0.0776
 2083POSM   AM224437  13.372  33.354  13.804 -0.2021  0.0195 -0.0280
 2083POSM   T1A24438  13.680  33.692  13.453 -0.2909 -0.4247  0.0825
 2083POSM   C2A24439  13.991  33.570  13.161 -0.1915 -0.0353  0.0676
 2083POSM   C3A24440  14.243  33.478  12.755  0.3200  0.2767  0.1824
 2083POSM   C1B24441  13.170  33.365  13.454 -0.0742  0.1296 -0.1522
 2083POSM   D2B24442  13.128  33.445  12.976  0.0153 -0.0818  0.0923
 2083POSM   C3B24443  12.923  33.095  12.711  0.0960  0.2681  0.0618
 2083POSM   C4B24444  12.485  33.070  12.476  0.0948  0.0259 -0.1073
 2084DOPC   NC324445  18.804  25.077  13.244 -0.3428 -0.0043 -0.0142
 2084DOPC   PO424446  18.701  24.709  13.283 -0.2304 -0.1752  0.1023
 2084DOPC   GL124447  18.545  24.723  12.919 -0.1189 -0.0271 -0.4312
 2084DOPC   GL224448  18.451  24.627  12.688  0.1841  0.1388  0.0465
 2084DOPC   C1A24449  18.946  24.864  12.696 -0.2516  0.0450  0.0163
 2084DOPC   D2A24450  19.111  25.036  12.294 -0.4306 -0.3480 -0.1396
 2084DOPC   C3A24451  18.999  24.828  11.854  0.0561 -0.0871 -0.0050
 2084DOPC   C4A24452  18.609  24.615  11.585 -0.0819  0.1355 -0.0531
 2084DOPC   C1B24453  18.796  24.513  12.351 -0.2310 -0.2889 -0.0611
 2084DOPC   D2B24454  18.897  24.325  11.980 -0.2316  0.2474  0.0214
 2084DOPC   C3B24455  19.368  24.436  11.803  0.0022 -0.0319 -0.1497
 2084DOPC   C4B24456  19.820  24.583  11.734  0.1647 -0.0575  0.1822
 2085POSM   NC324457  13.123  28.808  13.769  0.1126 -0.2008  0.0066
 2085POSM   PO424458  13.045  29.225  13.880 -0.1693 -0.0080 -0.0352
 2085POSM   AM124459  12.913  29.404  13.621  0.1180 -0.4122 -0.2529
 2085POSM   AM224460  12.995  29.673  13.527 -0.1063  0.1623 -0.0216
 2085POSM   T1A24461  12.694  29.481  13.205  0.5320  0.0054 -0.2633
 2085POSM   C2A24462  12.687  29.480  12.730 -0.0554  0.1458 -0.1383
 2085POSM   C3A24463  12.370  29.447  12.363 -0.0614 -0.2710  0.1156
 2085POSM   C1B24464  13.262  29.852  13.389 -0.0342 -0.0362 -0.0816
 2085POSM   D2B24465  13.565  30.095  13.170  0.0659  0.0893  0.0475
 2085POSM   C3B24466  13.539  30.306  12.781 -0.0973 -0.1227  0.3226
 2085POSM   C4B24467  13.857  30.602  12.583  0.0118 -0.0293 -0.1740
 2086DOPC   NC324468  17.001  27.595  14.631 -0.2489  0.2877  0.2063
 2086DOPC   PO424469  17.259  27.738  14.350  0.0048 -0.3028 -0.3349
 2086DOPC   GL124470  17.253  27.794  13.989 -0.0656 -0.1121 -0.1445
 2086DOPC   GL224471  17.449  27.676  13.870  0.3957  0.1469 -0.1186
 2086DOPC   C1A24472  17.084  27.945  13.535  0.0769 -0.6493  0.1059
 2086DOPC   D2A24473  16.604  27.978  13.284  0.0523 -0.0665 -0.0399
 2086DOPC   C3A24474  16.503  27.683  13.014  0.1714  0.3415 -0.0171
 2086DOPC   C4A24475  16.701  27.423  12.733 -0.1161  0.1546  0.1796
 2086DOPC   C1B24476  17.628  27.274  13.703 -0.0364 -0.0078  0.1814
 2086DOPC   D2B24477  17.870  26.963  13.480 -0.2569 -0.0120  0.1818
 2086DOPC   C3B24478  17.741  26.816  13.006  0.2581 -0.0091 -0.0091
 2086DOPC   C4B24479  17.504  26.951  12.643  0.2814 -0.0971  0.0411
 2087POSM   NC324480  16.035  34.360  14.152 -0.2475  0.1836 -0.0773
 2087POSM   PO424481  15.665  34.196  14.252 -0.2014  0.1183  0.2386
 2087POSM   AM124482  15.576  34.057  13.942 -0.2413 -0.0900 -0.2422
 2087POSM   AM224483  15.380  33.917  13.857 -0.1743  0.0384 -0.1248
 2087POSM   T1A24484  15.628  34.042  13.418  0.0623  0.0025  0.0809
 2087POSM   C2A24485  15.573  33.799  13.005 -0.0645  0.1075 -0.0675
 2087POSM   C3A24486  15.899  33.640  12.744  0.0583  0.2023  0.1972
 2087POSM   C1B24487  15.183  33.960  13.611  0.2329 -0.0015  0.2502
 2087POSM   D2B24488  14.950  33.842  13.200 -0.2058 -0.0533  0.0943
 2087POSM   C3B24489  14.796  33.390  13.057  0.0667  0.1446 -0.2003
 2087POSM   C4B24490  14.532  33.027  13.226 -0.1517 -0.0684 -0.0437
 2088DOPE   NH324491  15.502  31.340  14.529 -0.1455 -0.1752  0.0096
 2088DOPE   PO424492  15.424  31.275  14.228 -0.1593  0.0753 -0.1467
 2088DOPE   GL124493  15.537  30.988  13.936  0.1418 -0.1750  0.0037
 2088DOPE   GL224494  15.791  30.791  13.971 -0.1752 -0.0969 -0.1782
 2088DOPE   C1A24495  15.767  30.923  13.546  0.0424 -0.2055  0.1868
 2088DOPE   D2A24496  15.809  31.200  13.203  0.1635 -0.1012 -0.2691
 2088DOPE   C3A24497  15.676  31.116  12.746 -0.1159 -0.1215 -0.1624
 2088DOPE   C4A24498  15.464  30.819  12.503  0.1910 -0.0947  0.2881
 2088DOPE   C1B24499  15.540  30.517  13.666 -0.1917  0.1378 -0.0788
 2088DOPE   D2B24500  15.454  30.585  13.255  0.1376 -0.0872 -0.0178
 2088DOPE   C3B24501  15.277  31.005  13.090  0.0757  0.0968  0.1503
 2088DOPE   C4B24502  15.156  31.157  12.682  0.0270  0.2265  0.0738
 2089DOPC   NC324503  22.979  27.782  14.373 -0.1392 -0.2515 -0.0683
 2089DOPC   PO424504  23.047  28.111  14.581  0.1237 -0.1556  0.0360
 2089DOPC   GL124505  23.065  28.171  14.153  0.3356 -0.1516 -0.1830
 2089DOPC   GL224506  23.265  28.056  13.979 -0.0268  0.3378 -0.2055
 2089DOPC   C1A24507  22.888  28.440  13.855  0.1094 -0.1215  0.2052
 2089DOPC   D2A24508  23.203  28.449  13.548  0.3088 -0.2352  0.0875
 2089DOPC   C3A24509  23.234  28.783  13.198 -0.1120  0.1952  0.3267
 2089DOPC   C4A24510  23.264  29.177  13.023 -0.0661 -0.0627  0.0595
 2089DOPC   C1B24511  22.987  27.994  13.610 -0.2379 -0.3465 -0.1545
 2089DOPC   D2B24512  22.787  27.708  13.332 -0.1590  0.0676 -0.0073
 2089DOPC   C3B24513  22.619  27.928  12.944 -0.1329 -0.3432  0.2817
 2089DOPC   C4B24514  22.429  28.304  12.749  0.0663 -0.2015  0.0313
 2090DOPC   NC324515  23.597  20.452  14.083  0.1714 -0.0068  0.0767
 2090DOPC   PO424516  23.447  20.281  13.816 -0.0094 -0.0638 -0.0838
 2090DOPC   GL124517  23.280  20.391  13.468 -0.2352 -0.2128  0.0291
 2090DOPC   GL224518  23.263  20.129  13.314  0.1108 -0.2163  0.2279
 2090DOPC   C1A24519  23.487  20.561  13.061  0.5637  0.0691  0.0592
 2090DOPC   D2A24520  23.712  20.877  12.792 -0.0667 -0.2884  0.1096
 2090DOPC   C3A24521  23.765  21.302  12.631  0.1239 -0.1914  0.4022
 2090DOPC   C4A24522  24.014  21.635  12.635  0.1804 -0.1213 -0.0067
 2090DOPC   C1B24523  23.548  20.036  13.003  0.1694 -0.0230 -0.2843
 2090DOPC   D2B24524  23.670  19.963  12.513  0.1787 -0.2769  0.1661
 2090DOPC   C3B24525  23.838  19.813  12.124 -0.1997  0.0040 -0.1815
 2090DOPC   C4B24526  24.040  19.890  11.682  0.0042  0.4953 -0.1300
 2091DOPC   NC324527  17.965  25.657  13.986  0.0420 -0.2397 -0.0115
 2091DOPC   PO424528  17.788  25.639  13.625  0.3163  0.0971  0.0232
 2091DOPC   GL124529  17.735  25.833  13.315  0.1245 -0.0198  0.1771
 2091DOPC   GL224530  17.499  25.986  13.333 -0.2065  0.1609  0.0453
 2091DOPC   C1A24531  17.985  25.917  12.935  0.0600  0.3651 -0.1970
 2091DOPC   D2A24532  17.835  25.822  12.448  0.3181 -0.0367 -0.3972
 2091DOPC   C3A24533  17.679  25.812  11.977 -0.4135 -0.2613  0.1177
 2091DOPC   C4A24534  17.663  25.873  11.459  0.1153 -0.1610  0.0209
 2091DOPC   C1B24535  17.488  26.000  12.883 -0.2048 -0.2388 -0.1171
 2091DOPC   D2B24536  17.541  26.361  12.634  0.0759  0.0935  0.1814
 2091DOPC   C3B24537  17.573  26.238  12.178 -0.0552 -0.0874  0.0415
 2091DOPC   C4B24538  17.969  26.336  11.922  0.2739  0.0258  0.1047
 2092DOPC   NC324539  20.798  32.644  14.662  0.1840 -0.3277 -0.0893
 2092DOPC   PO424540  20.655  33.018  14.723  0.2462  0.0618 -0.1142
 2092DOPC   GL124541  20.570  32.993  14.269  0.0129 -0.3110 -0.0893
 2092DOPC   GL224542  20.624  32.705  14.147  0.0738 -0.2472 -0.2254
 2092DOPC   C1A24543  20.344  33.268  13.945 -0.0958 -0.0151 -0.0128
 2092DOPC   D2A24544  20.333  33.622  13.635  0.3286 -0.4230  0.0274
 2092DOPC   C3A24545  20.083  33.742  13.210 -0.1882 -0.1204 -0.2587
 2092DOPC   C4A24546  20.285  33.828  12.758  0.0844 -0.0392 -0.0022
 2092DOPC   C1B24547  20.771  32.909  13.755  0.0693 -0.0696  0.0874
 2092DOPC   D2B24548  20.763  33.224  13.453  0.2145  0.0045  0.2419
 2092DOPC   C3B24549  20.856  33.105  13.011  0.1509 -0.4871 -0.3415
 2092DOPC   C4B24550  20.763  32.750  12.681  0.0605  0.2849  0.1700
 2093DOPS   CNO24551  18.548  26.404  14.068  0.0017 -0.2485  0.2122
 2093DOPS   PO424552  18.415  26.262  13.775 -0.2034 -0.0601 -0.1595
 2093DOPS   GL124553  18.600  26.239  13.380 -0.0095 -0.1661  0.0859
 2093DOPS   GL224554  18.685  25.980  13.308 -0.2776  0.2004 -0.3490
 2093DOPS   C1A24555  18.400  26.355  12.985  0.1264  0.0516  0.2401
 2093DOPS   D2A24556  18.120  26.270  12.532 -0.3625  0.0741 -0.0527
 2093DOPS   C3A24557  18.229  25.978  12.164  0.1424  0.3114 -0.1242
 2093DOPS   C4A24558  18.236  25.508  12.143  0.0031 -0.1687  0.2739
 2093DOPS   C1B24559  18.789  26.110  12.912  0.2828  0.0274 -0.3117
 2093DOPS   D2B24560  18.695  26.476  12.650 -0.1789 -0.0888  0.1576
 2093DOPS   C3B24561  18.413  26.558  12.339  0.0590  0.1489  0.0957
 2093DOPS   C4B24562  18.180  26.802  12.004  0.1706 -0.0534 -0.1535
 2094DOPC   NC324563  19.183  28.318  14.678  0.0754  0.3189  0.1436
 2094DOPC   PO424564  19.114  27.959  14.527 -0.3688 -0.1098 -0.4019
 2094DOPC   GL124565  19.249  28.202  14.122 -0.0796  0.1420 -0.1608
 2094DOPC   GL224566  18.949  28.220  14.059  0.3188 -0.2590 -0.0169
 2094DOPC   C1A24567  19.241  28.082  13.631 -0.0355 -0.3113  0.3192
 2094DOPC   D2A24568  19.149  28.198  13.153 -0.0345 -0.2077  0.1078
 2094DOPC   C3A24569  19.258  27.975  12.784 -0.0176  0.2086  0.0579
 2094DOPC   C4A24570  19.406  27.713  12.419 -0.1640  0.2452  0.1650
 2094DOPC   C1B24571  19.068  28.590  13.902 -0.2293 -0.1610  0.2751
 2094DOPC   D2B24572  19.360  28.889  13.770  0.0307  0.1881  0.1430
 2094DOPC   C3B24573  19.429  29.009  13.348  0.0456 -0.1306  0.0779
 2094DOPC   C4B24574  19.643  29.055  12.895  0.1554  0.2110  0.0168
 2095DOPS   CNO24575  16.807  30.285  14.920  0.0889 -0.0622  0.4073
 2095DOPS   PO424576  17.054  30.141  14.643  0.2400 -0.1491  0.0102
 2095DOPS   GL124577  17.202  30.071  14.212  0.0841 -0.0049 -0.3677
 2095DOPS   GL224578  17.354  30.360  14.313 -0.1696 -0.0271  0.1140
 2095DOPS   C1A24579  17.244  30.231  13.803  0.0958 -0.1701 -0.1365
 2095DOPS   D2A24580  17.492  30.472  13.478  0.3064 -0.1673 -0.0875
 2095DOPS   C3A24581  17.285  30.883  13.342 -0.3666  0.0289  0.1925
 2095DOPS   C4A24582  17.300  31.092  12.932  0.3626 -0.1139  0.2118
 2095DOPS   C1B24583  17.583  30.785  14.412  0.0242 -0.0087  0.1138
 2095DOPS   D2B24584  17.756  31.249  14.280 -0.0890 -0.1638 -0.1052
 2095DOPS   C3B24585  17.896  31.217  13.824  0.0998 -0.1920 -0.0714
 2095DOPS   C4B24586  17.945  30.789  13.621 -0.1136  0.1311 -0.0789
 2096POSM   NC324587  26.910  24.410  15.253  0.2003 -0.1718  0.1161
 2096POSM   PO424588  27.018  24.058  15.337  0.2778 -0.3523  0.0386
 2096POSM   AM124589  26.930  23.935  15.050 -0.2856  0.3915 -0.1770
 2096POSM   AM224590  27.075  23.759  14.902  0.2019 -0.4329  0.0264
 2096POSM   T1A24591  26.696  23.832  14.634  0.4089  0.1609 -0.2969
 2096POSM   C2A24592  26.519  23.877  14.238 -0.0006 -0.1808 -0.0917
 2096POSM   C3A24593  26.487  23.932  13.791 -0.0619 -0.0607  0.0975
 2096POSM   C1B24594  27.168  23.874  14.618 -0.2524 -0.2617  0.2374
 2096POSM   D2B24595  27.455  23.907  14.217  0.0610  0.0674 -0.0395
 2096POSM   C3B24596  27.409  24.170  13.825  0.0761  0.0475 -0.0595
 2096POSM   C4B24597  27.340  24.409  13.382  0.1548  0.2549 -0.1589
 2097DOPS   CNO24598  19.643  25.142  13.533 -0.1426 -0.1140 -0.1653
 2097DOPS   PO424599  19.281  25.145  13.470  0.0198  0.3097 -0.0846
 2097DOPS   GL124600  19.330  25.187  13.044 -0.0020  0.0063  0.1466
 2097DOPS   GL224601  19.621  25.068  13.072  0.0450 -0.1646 -0.2133
 2097DOPS   C1A24602  19.246  25.543  12.673 -0.0027  0.1230 -0.1745
 2097DOPS   D2A24603  19.036  25.932  12.524  0.3958  0.0834  0.0486
 2097DOPS   C3A24604  18.769  26.187  12.203  0.0451  0.1628 -0.1618
 2097DOPS   C4A24605  18.831  26.502  11.858  0.1821  0.0053  0.1828
 2097DOPS   C1B24606  19.485  25.019  12.633 -0.2084 -0.3348  0.1102
 2097DOPS   D2B24607  19.672  25.278  12.338 -0.0396  0.0871  0.0251
 2097DOPS   C3B24608  19.539  25.010  11.954  0.2701 -0.1486 -0.2336
 2097DOPS   C4B24609  19.329  24.876  11.504  0.2552  0.1375  0.2214
 2098DOPS   CNO24610  14.248  27.363  14.071  0.1714 -0.0246 -0.1029
 2098DOPS   PO424611  14.427  27.462  13.768  0.0734  0.3116  0.0087
 2098DOPS   GL124612  14.549  27.468  13.397  0.2064 -0.2045 -0.1427
 2098DOPS   GL224613  14.468  27.696  13.298  0.5815 -0.1374 -0.1163
 2098DOPS   C1A24614  14.686  27.262  12.980 -0.2685 -0.0403  0.0367
 2098DOPS   D2A24615  14.608  26.931  12.675 -0.1074  0.0377 -0.2058
 2098DOPS   C3A24616  14.236  26.959  12.404 -0.1348 -0.1433 -0.0545
 2098DOPS   C4A24617  13.832  26.778  12.325 -0.0945 -0.0652  0.0246
 2098DOPS   C1B24618  14.059  27.679  13.137 -0.0546  0.0229 -0.0024
 2098DOPS   D2B24619  13.738  27.739  12.822  0.1509 -0.1617  0.3879
 2098DOPS   C3B24620  13.625  28.173  12.720  0.4102  0.0263 -0.1289
 2098DOPS   C4B24621  13.669  28.364  12.301  0.1132 -0.3062  0.0057
 2099DOPE   NH324622  16.801  26.429  13.981  0.1479  0.2615 -0.0735
 2099DOPE   PO424623  17.036  26.642  13.996 -0.2221 -0.0276  0.0802
 2099DOPE   GL124624  17.301  26.884  13.747 -0.0391 -0.0993  0.1200
 2099DOPE   GL224625  17.127  27.115  13.733 -0.1001 -0.1870 -0.3857
 2099DOPE   C1A24626  17.383  26.995  13.305  0.0691  0.0002  0.0402
 2099DOPE   D2A24627  17.557  27.281  13.000 -0.1080 -0.1754 -0.2636
 2099DOPE   C3A24628  17.956  27.283  12.746  0.1182  0.1434 -0.3279
 2099DOPE   C4A24629  18.242  27.646  12.630  0.1549  0.1295  0.1431
 2099DOPE   C1B24630  17.212  27.454  13.493 -0.2607  0.3163  0.0550
 2099DOPE   D2B24631  17.105  27.603  13.099 -0.0222  0.0654 -0.0214
 2099DOPE   C3B24632  17.312  27.970  13.021  0.2312  0.2945 -0.0347
 2099DOPE   C4B24633  17.333  28.242  12.603 -0.2543 -0.0720 -0.3539
 2100DOPE   NH324634  22.358  25.324  14.313  0.1779  0.2801 -0.0356
 2100DOPE   PO424635  22.066  25.195  14.317  0.2052 -0.2216  0.0427
 2100DOPE   GL124636  21.957  25.301  13.929 -0.2607  0.4895  0.3892
 2100DOPE   GL224637  22.168  25.069  13.830  0.0005  0.0429 -0.2980
 2100DOPE   C1A24638  22.009  25.458  13.511  0.1569 -0.2623  0.1755
 2100DOPE   D2A24639  22.362  25.696  13.292 -0.0257 -0.1504  0.0540
 2100DOPE   C3A24640  22.632  25.961  13.548  0.0505  0.1682 -0.0413
 2100DOPE   C4A24641  22.917  26.269  13.798 -0.2013 -0.0542 -0.2429
 2100DOPE   C1B24642  22.476  25.011  13.563  0.0302 -0.0762 -0.1655
 2100DOPE   D2B24643  22.701  25.317  13.273  0.0181 -0.0658  0.1067
 2100DOPE   C3B24644  22.611  25.513  12.829 -0.0441  0.1373  0.2266
 2100DOPE   C4B24645  22.383  25.599  12.431  0.0983 -0.2152 -0.1681
 2101DOPE   NH324646  18.213  32.954  14.241  0.2476  0.1263  0.2981
 2101DOPE   PO424647  18.484  33.047  14.281 -0.0167 -0.2035 -0.0077
 2101DOPE   GL124648  18.769  32.959  14.005  0.1677  0.0974  0.0523
 2101DOPE   GL224649  18.968  33.160  13.951  0.1306  0.1180 -0.0538
 2101DOPE   C1A24650  19.049  32.778  13.673 -0.0599 -0.1802  0.0626
 2101DOPE   D2A24651  19.156  32.633  13.275 -0.1377 -0.1689 -0.0443
 2101DOPE   C3A24652  18.909  32.489  12.905 -0.1010  0.2011  0.1528
 2101DOPE   C4A24653  18.743  32.169  12.531 -0.0607  0.1210 -0.0120
 2101DOPE   C1B24654  18.755  33.153  13.484  0.2387  0.0063  0.0391
 2101DOPE   D2B24655  18.790  32.951  13.070  0.1626  0.5144 -0.1975
 2101DOPE   C3B24656  19.012  33.170  12.732 -0.1141 -0.2637 -0.0191
 2101DOPE   C4B24657  19.117  33.054  12.310  0.2483 -0.1331  0.1338
 2102DOPC   NC324658  15.842  30.080  14.479 -0.0494  0.0179  0.0060
 2102DOPC   PO424659  15.772  30.464  14.398 -0.0376 -0.2846 -0.0383
 2102DOPC   GL124660  15.954  30.347  14.003 -0.0635 -0.2841 -0.1120
 2102DOPC   GL224661  15.856  30.094  13.998  0.3069 -0.3609 -0.1636
 2102DOPC   C1A24662  16.366  30.452  13.836 -0.2481 -0.0238  0.1540
 2102DOPC   D2A24663  16.796  30.450  13.876 -0.1619  0.0162  0.3452
 2102DOPC   C3A24664  16.934  30.418  13.423  0.1734  0.1013  0.2156
 2102DOPC   C4A24665  17.240  30.364  13.050  0.1930 -0.2897  0.2438
 2102DOPC   C1B24666  15.944  30.173  13.537  0.1466 -0.2814 -0.7746
 2102DOPC   D2B24667  15.944  30.163  13.103 -0.3899 -0.0104 -0.0648
 2102DOPC   C3B24668  16.123  30.504  12.795  0.0393 -0.0628  0.0264
 2102DOPC   C4B24669  16.172  30.957  12.654  0.0192 -0.0895 -0.1193
 2103DOPC   NC324670  24.021  29.214  14.736 -0.4038 -0.1837 -0.0591
 2103DOPC   PO424671  23.998  29.210  14.358  0.1195 -0.2064 -0.0109
 2103DOPC   GL124672  24.018  28.897  14.208  0.0367  0.0352 -0.2086
 2103DOPC   GL224673  23.704  28.809  14.220  0.1016 -0.1231 -0.0938
 2103DOPC   C1A24674  24.222  28.662  13.852  0.0234 -0.0050 -0.1117
 2103DOPC   D2A24675  24.585  28.640  13.577 -0.0620  0.1298  0.0154
 2103DOPC   C3A24676  24.463  28.818  13.210 -0.3663  0.1453 -0.0853
 2103DOPC   C4A24677  24.177  28.926  12.877  0.0502  0.0715 -0.0945
 2103DOPC   C1B24678  23.835  28.359  14.083 -0.1176 -0.1004  0.0673
 2103DOPC   D2B24679  23.615  28.221  13.678 -0.2831 -0.2076  0.1771
 2103DOPC   C3B24680  23.642  28.480  13.298  0.1833 -0.0396  0.0162
 2103DOPC   C4B24681  23.654  28.707  12.904 -0.1977  0.0006  0.2079
 2104POSM   NC324682  18.231  28.610  14.877  0.1102  0.3248  0.0821
 2104POSM   PO424683  18.277  28.229  14.870  0.0464  0.0422 -0.2363
 2104POSM   AM124684  18.197  28.275  14.509 -0.2601 -0.1036  0.1093
 2104POSM   AM224685  18.059  28.244  14.274 -0.3132  0.0207 -0.0017
 2104POSM   T1A24686  18.007  28.685  14.282  0.3302 -0.0704  0.4147
 2104POSM   C2A24687  17.971  28.850  13.910  0.2409 -0.1121 -0.3943
 2104POSM   C3A24688  17.779  28.703  13.560 -0.4422  0.0151  0.1636
 2104POSM   C1B24689  18.178  28.202  13.912  0.1871  0.0926 -0.2606
 2104POSM   D2B24690  18.249  28.364  13.450 -0.3978 -0.2147  0.1939
 2104POSM   C3B24691  18.584  28.443  13.173  0.0415  0.1752  0.1563
 2104POSM   C4B24692  18.659  28.574  12.745  0.0123  0.3088  0.1162
 2105POSM   NC324693  12.349  32.923  14.520 -0.0239  0.1371 -0.0703
 2105POSM   PO424694  12.699  33.073  14.455 -0.3219  0.0384 -0.2221
 2105POSM   AM124695  12.679  33.085  14.123 -0.1516  0.3973 -0.0964
 2105POSM   AM224696  12.527  32.928  13.902 -0.1624  0.0829  0.0783
 2105POSM   T1A24697  12.691  33.323  13.665  0.3587 -0.2278  0.2594
 2105POSM   C2A24698  12.705  33.299  13.200 -0.1515 -0.0557  0.0211
 2105POSM   C3A24699  12.553  32.939  13.059  0.0712 -0.1996  0.1962
 2105POSM   C1B24700  12.311  32.797  13.660  0.2019  0.0682 -0.0900
 2105POSM   D2B24701  12.423  32.364  13.411 -0.3645 -0.2263  0.0910
 2105POSM   C3B24702  12.314  32.354  12.983 -0.0530 -0.0280  0.0815
 2105POSM   C4B24703  12.239  32.313  12.551 -0.3450 -0.0786  0.2671
 2106DOPE   NH324704  14.029  28.492  14.072  0.3128 -0.2271 -0.1325
 2106DOPE   PO424705  13.938  28.277  13.843 -0.0454  0.1036 -0.1510
 2106DOPE   GL124706  13.853  28.616  13.616  0.0322  0.1060 -0.0489
 2106DOPE   GL224707  13.919  28.602  13.347  0.3653  0.2111 -0.1068
 2106DOPE   C1A24708  13.903  29.058  13.452 -0.3759 -0.3704  0.3190
 2106DOPE   D2A24709  13.951  29.217  13.102  0.0136  0.1245  0.2175
 2106DOPE   C3A24710  14.118  29.100  12.691  0.0867  0.1407  0.2491
 2106DOPE   C4A24711  14.378  29.070  12.324  0.1884 -0.2010  0.0410
 2106DOPE   C1B24712  13.968  28.556  12.858 -0.0809 -0.1678  0.1907
 2106DOPE   D2B24713  14.070  28.632  12.443 -0.0906  0.0081  0.0138
 2106DOPE   C3B24714  13.898  29.025  12.260 -0.0401 -0.1734 -0.0493
 2106DOPE   C4B24715  13.893  29.466  12.357  0.1036 -0.1835  0.1046
 2107DOPE   NH324716  11.576  26.235  12.892 -0.0982  0.1729  0.0729
 2107DOPE   PO424717  11.383  25.950  12.914  0.2001  0.2168 -0.1692
 2107DOPE   GL124718  11.141  26.111  12.657 -0.3215 -0.2838 -0.3275
 2107DOPE   GL224719  11.222  25.975  12.399  0.0015  0.2157  0.1245
 2107DOPE   C1A24720  11.345  26.452  12.428  0.1729  0.1037  0.1499
 2107DOPE   D2A24721  11.651  26.654  12.140  0.0437  0.0875 -0.3591
 2107DOPE   C3A24722  11.866  26.453  11.760 -0.0103  0.5168 -0.0540
 2107DOPE   C4A24723  11.985  26.388  11.316  0.0560  0.0350 -0.2727
 2107DOPE   C1B24724  11.369  26.178  12.017 -0.0732  0.0578 -0.2731
 2107DOPE   D2B24725  11.841  26.005  11.916  0.0308  0.1158 -0.2906
 2107DOPE   C3B24726  12.247  26.024  11.689  0.0804  0.1608 -0.0952
 2107DOPE   C4B24727  12.672  26.130  11.519  0.4919  0.2720  0.1376
 2108DOPE   NH324728  18.697   1.018  14.147  0.1852 -0.2308  0.2545
 2108DOPE   PO424729  18.925   1.232  14.114  0.2389 -0.0560  0.1489
 2108DOPE   GL124730  18.950   1.231  13.749  0.0965  0.1475  0.0016
 2108DOPE   GL224731  18.651   1.292  13.686 -0.2921 -0.1855 -0.0669
 2108DOPE   C1A24732  19.027   1.490  13.376 -0.1139  0.1068 -0.0675
 2108DOPE   D2A24733  19.392   1.428  13.167 -0.3346 -0.3521  0.0374
 2108DOPE   C3A24734  19.646   1.063  12.903 -0.0182 -0.0827 -0.3479
 2108DOPE   C4A24735  19.950   0.707  12.889 -0.3321 -0.2855 -0.1948
 2108DOPE   C1B24736  18.447   1.585  13.377  0.2435  0.1720  0.0860
 2108DOPE   D2B24737  18.451   1.952  13.207 -0.1207  0.1090 -0.0692
 2108DOPE   C3B24738  18.364   1.991  12.725  0.0983 -0.1360  0.0732
 2108DOPE   C4B24739  18.089   1.796  12.416 -0.0061 -0.0991 -0.1943
 2109DOPC   NC324740  14.871  24.286  12.560  0.2218  0.0228 -0.2117
 2109DOPC   PO424741  15.179  24.278  12.763 -0.1048 -0.0683  0.1211
 2109DOPC   GL124742  15.592  24.351  12.684 -0.0937  0.0565  0.2298
 2109DOPC   GL224743  15.735  24.599  12.803 -0.0432 -0.3789  0.0066
 2109DOPC   C1A24744  15.935  24.435  12.383 -0.3229 -0.3225  0.2967
 2109DOPC   D2A24745  16.009  24.638  12.008 -0.1888 -0.1000 -0.0164
 2109DOPC   C3A24746  16.390  24.775  11.802  0.1127  0.0066  0.3227
 2109DOPC   C4A24747  16.835  24.735  11.682  0.2462 -0.1141  0.2753
 2109DOPC   C1B24748  15.593  24.761  12.369 -0.0403 -0.0294 -0.0016
 2109DOPC   D2B24749  15.522  24.630  11.919 -0.0865 -0.2740 -0.1490
 2109DOPC   C3B24750  15.772  24.569  11.559 -0.1149  0.1770 -0.0804
 2109DOPC   C4B24751  15.983  24.963  11.550  0.0738 -0.3094 -0.0848
 2110DOPC   NC324752  15.025  30.093  14.354  0.1777 -0.3251 -0.3798
 2110DOPC   PO424753  15.367  29.950  14.411  0.1773  0.0347  0.0763
 2110DOPC   GL124754  15.410  30.204  14.038 -0.1350  0.2620 -0.1251
 2110DOPC   GL224755  15.169  30.323  13.900  0.2986 -0.0125 -0.2045
 2110DOPC   C1A24756  15.443  30.042  13.618  0.1049  0.1164  0.0702
 2110DOPC   D2A24757  15.382  30.131  13.167  0.0005 -0.4298 -0.0006
 2110DOPC   C3A24758  15.638  29.902  12.805  0.0122 -0.0613  0.3148
 2110DOPC   C4A24759  15.564  29.575  12.457  0.0083  0.1681  0.0180
 2110DOPC   C1B24760  14.951  30.141  13.531 -0.0363  0.1276 -0.0199
 2110DOPC   D2B24761  14.900  30.140  13.057  0.0554 -0.1922 -0.2627
 2110DOPC   C3B24762  15.206  30.365  12.762 -0.0582 -0.0493  0.0918
 2110DOPC   C4B24763  15.646  30.424  12.824  0.3329 -0.1276 -0.0364
 2111POSM   NC324764  21.300  22.710  13.562 -0.2519 -0.2786 -0.0121
 2111POSM   PO424765  21.019  22.968  13.548  0.0676 -0.1675 -0.0752
 2111POSM   AM124766  20.974  23.167  13.306 -0.0832  0.0893 -0.2180
 2111POSM   AM224767  20.732  23.294  13.168  0.0661 -0.0272 -0.0796
 2111POSM   T1A24768  21.046  23.176  12.802  0.1742 -0.2250 -0.2011
 2111POSM   C2A24769  21.311  23.306  12.492 -0.2185 -0.4045 -0.1827
 2111POSM   C3A24770  21.464  23.412  12.043 -0.1617 -0.0500 -0.3257
 2111POSM   C1B24771  20.507  23.283  12.924 -0.1931  0.0477 -0.0178
 2111POSM   D2B24772  20.365  23.230  12.504 -0.0559  0.1255  0.0961
 2111POSM   C3B24773  20.496  23.349  12.081 -0.1755  0.0730 -0.0713
 2111POSM   C4B24774  20.641  23.591  11.672  0.2028  0.1190  0.1443
 2112DOPC   NC324775  14.405   1.078  14.474 -0.0960  0.2599 -0.1222
 2112DOPC   PO424776  14.778   0.934  14.500 -0.2174 -0.1226 -0.0221
 2112DOPC   GL124777  14.765   0.968  14.122 -0.0872  0.0359 -0.0323
 2112DOPC   GL224778  14.744   1.290  14.122  0.0361  0.1167  0.0467
 2112DOPC   C1A24779  15.091   1.023  13.809  0.0511  0.0265 -0.0823
 2112DOPC   D2A24780  15.187   0.795  13.382 -0.2267 -0.1757 -0.1145
 2112DOPC   C3A24781  14.923   0.669  13.087  0.0248  0.0031  0.1290
 2112DOPC   C4A24782  14.597   0.569  12.770  0.3179  0.1623  0.0042
 2112DOPC   C1B24783  14.687   1.311  13.669  0.5051 -0.0867  0.1050
 2112DOPC   D2B24784  14.615   1.530  13.271  0.0049  0.1491 -0.2577
 2112DOPC   C3B24785  14.608   1.645  12.829 -0.0101 -0.2945 -0.1452
 2112DOPC   C4B24786  14.631   1.443  12.405  0.0908 -0.2070  0.1635
 2113DOPE   NH324787  22.251  24.096  14.242  0.2182 -0.1175 -0.1470
 2113DOPE   PO424788  22.423  24.368  14.181 -0.1997  0.3281  0.1059
 2113DOPE   GL124789  22.436  24.570  13.835  0.2216 -0.0543  0.2567
 2113DOPE   GL224790  22.231  24.527  13.674  0.2252  0.1631  0.0183
 2113DOPE   C1A24791  22.857  24.808  13.743  0.1202  0.2594  0.1579
 2113DOPE   D2A24792  23.052  25.048  13.423 -0.0562 -0.0506  0.1445
 2113DOPE   C3A24793  23.176  25.149  12.999  0.0090 -0.1572  0.2539
 2113DOPE   C4A24794  23.225  25.426  12.618  0.0528 -0.1007  0.0295
 2113DOPE   C1B24795  22.439  24.611  13.276  0.0812 -0.1359  0.0356
 2113DOPE   D2B24796  22.721  24.863  13.044  0.0305 -0.1447  0.0793
 2113DOPE   C3B24797  22.876  24.960  12.636  0.0735 -0.0803 -0.0850
 2113DOPE   C4B24798  22.788  25.188  12.272 -0.0870  0.2546  0.0880
 2114DOPC   NC324799  15.388  28.754  14.311  0.1643  0.1752  0.0691
 2114DOPC   PO424800  14.997  28.844  14.179 -0.2962  0.3679 -0.1614
 2114DOPC   GL124801  15.193  29.144  14.075 -0.4467 -0.2287 -0.4179
 2114DOPC   GL224802  15.333  29.274  14.225 -0.1712  0.3323 -0.1558
 2114DOPC   C1A24803  15.092  29.379  13.665 -0.0404  0.3588 -0.1620
 2114DOPC   D2A24804  15.327  29.637  13.297 -0.1988  0.2747  0.1927
 2114DOPC   C3A24805  15.423  29.378  12.938  0.0067  0.0759  0.0819
 2114DOPC   C4A24806  15.361  29.026  12.653  0.3031 -0.1335 -0.1950
 2114DOPC   C1B24807  15.681  29.394  13.925  0.0619  0.0862  0.2242
 2114DOPC   D2B24808  15.879  29.681  13.687  0.0155 -0.0793 -0.1209
 2114DOPC   C3B24809  15.808  29.664  13.226 -0.0737  0.0985 -0.1117
 2114DOPC   C4B24810  15.974  29.328  12.994 -0.1900 -0.4414 -0.1648
 2115DOPE   NH324811  11.642  33.922  14.639  0.2140  0.2866 -0.2304
 2115DOPE   PO424812  11.550  33.758  14.367 -0.1882 -0.1490 -0.0038
 2115DOPE   GL124813  11.500  33.803  13.973  0.2577 -0.4934 -0.2503
 2115DOPE   GL224814  11.280  33.595  13.918  0.0797  0.1331 -0.1060
 2115DOPE   C1A24815  11.854  33.944  13.689  0.0022 -0.1869 -0.0353
 2115DOPE   D2A24816  12.050  34.125  13.305  0.2570 -0.1396 -0.2747
 2115DOPE   C3A24817  12.031  33.934  12.943 -0.0538  0.1116  0.1205
 2115DOPE   C4A24818  11.732  33.987  12.534 -0.0142 -0.2373 -0.1482
 2115DOPE   C1B24819  11.428  33.705  13.501 -0.1702  0.3081 -0.0059
 2115DOPE   D2B24820  11.550  34.020  13.120  0.2606 -0.0416 -0.4535
 2115DOPE   C3B24821  11.823  34.362  12.903 -0.0142  0.1300 -0.0219
 2115DOPE   C4B24822  12.190  34.543  12.700 -0.2045  0.1600 -0.0096
 2116DOPE   NH324823  24.766  29.125  14.883 -0.2374 -0.2665 -0.2012
 2116DOPE   PO424824  24.433  29.082  14.964 -0.3842  0.0291  0.2272
 2116DOPE   GL124825  24.351  28.979  14.560  0.1160  0.0803 -0.2567
 2116DOPE   GL224826  24.547  29.063  14.382  0.1897  0.0667  0.0014
 2116DOPE   C1A24827  24.415  28.648  14.281  0.0249  0.1525 -0.1544
 2116DOPE   D2A24828  24.639  28.311  14.081 -0.1599 -0.0798 -0.1550
 2116DOPE   C3A24829  24.776  28.154  13.703 -0.0302 -0.0435 -0.0026
 2116DOPE   C4A24830  24.975  27.772  13.645 -0.4170  0.2642  0.0449
 2116DOPE   C1B24831  24.754  28.956  14.051  0.1122 -0.0973 -0.2498
 2116DOPE   D2B24832  25.014  28.602  13.877 -0.0687  0.0876 -0.0536
 2116DOPE   C3B24833  25.094  28.692  13.418  0.0399  0.0761 -0.0947
 2116DOPE   C4B24834  24.921  28.951  13.045  0.1763 -0.3228  0.1704
 2117DOPC   NC324835  14.385  26.200  13.853  0.1079 -0.0440 -0.1386
 2117DOPC   PO424836  14.519  26.487  13.668  0.3052  0.0035  0.1336
 2117DOPC   GL124837  14.757  26.522  13.264  0.0136  0.0398 -0.4403
 2117DOPC   GL224838  14.960  26.778  13.248  0.1878 -0.2996  0.2545
 2117DOPC   C1A24839  14.815  26.493  12.788  0.0733 -0.0138 -0.0556
 2117DOPC   D2A24840  14.878  26.195  12.450 -0.1188  0.0778 -0.0829
 2117DOPC   C3A24841  15.078  26.331  12.089 -0.2187  0.2263  0.1320
 2117DOPC   C4A24842  15.185  26.642  11.810 -0.3044  0.1225  0.1797
 2117DOPC   C1B24843  15.161  27.023  12.864  0.0211 -0.0060  0.0042
 2117DOPC   D2B24844  15.244  27.354  12.523  0.0051  0.1005 -0.1848
 2117DOPC   C3B24845  15.271  27.120  12.137 -0.2128 -0.1016  0.0252
 2117DOPC   C4B24846  15.514  27.056  11.677  0.1209 -0.1691 -0.1918
 2118DOPC   NC324847  15.421  27.537  14.285  0.0761 -0.0330 -0.0002
 2118DOPC   PO424848  15.733  27.328  14.214 -0.0049 -0.1090  0.0998
 2118DOPC   GL124849  15.697  27.413  13.737  0.0858  0.3266 -0.0258
 2118DOPC   GL224850  15.739  27.115  13.573  0.2854 -0.1489  0.2457
 2118DOPC   C1A24851  15.679  27.619  13.325  0.0078  0.0830  0.0259
 2118DOPC   D2A24852  15.409  27.755  12.981 -0.0962  0.0108 -0.1940
 2118DOPC   C3A24853  15.388  27.821  12.494 -0.0731 -0.1578  0.3130
 2118DOPC   C4A24854  15.548  28.122  12.190  0.1880 -0.0128  0.1731
 2118DOPC   C1B24855  16.179  27.164  13.510 -0.1959  0.1287  0.1670
 2118DOPC   D2B24856  16.524  27.449  13.658  0.0861  0.2040 -0.1105
 2118DOPC   C3B24857  16.504  27.832  13.773 -0.1425  0.0452  0.0558
 2118DOPC   C4B24858  16.799  28.192  13.862 -0.0625 -0.0487  0.0723
 2119DOPC   NC324859  20.347  33.309  14.480  0.1989 -0.1144 -0.2489
 2119DOPC   PO424860  19.966  33.286  14.671  0.1506 -0.4031 -0.0393
 2119DOPC   GL124861  19.858  33.078  14.281  0.0144 -0.1139  0.4366
 2119DOPC   GL224862  19.817  33.279  14.064 -0.2843 -0.0507  0.0196
 2119DOPC   C1A24863  20.170  32.863  14.028 -0.0144  0.0098 -0.1176
 2119DOPC   D2A24864  20.177  32.828  13.593  0.1687  0.0281  0.2604
 2119DOPC   C3A24865  20.289  33.229  13.341  0.1597 -0.1166 -0.1507
 2119DOPC   C4A24866  20.545  33.538  13.164 -0.0800  0.2609 -0.0307
 2119DOPC   C1B24867  19.836  33.167  13.598 -0.2985 -0.0835 -0.1036
 2119DOPC   D2B24868  19.779  33.257  13.163  0.1454 -0.0527  0.1879
 2119DOPC   C3B24869  20.084  33.316  12.854  0.0556 -0.2793 -0.0163
 2119DOPC   C4B24870  20.528  33.289  12.648 -0.0515 -0.3493  0.1034
 2120DOPC   NC324871  12.354  26.265  13.204 -0.2846  0.0069 -0.0847
 2120DOPC   PO424872  12.740  26.269  13.220 -0.1389  0.0518  0.2636
 2120DOPC   GL124873  12.853  26.165  12.910  0.1109 -0.2647 -0.3196
 2120DOPC   GL224874  12.595  25.961  12.852  0.0387  0.0191 -0.2300
 2120DOPC   C1A24875  13.156  26.020  12.599  0.0149  0.2810 -0.0159
 2120DOPC   D2A24876  13.248  25.825  12.188 -0.0725 -0.2373 -0.3606
 2120DOPC   C3A24877  13.496  25.600  11.856 -0.0837 -0.1343 -0.0076
 2120DOPC   C4A24878  13.410  25.195  11.648  0.0030  0.2913 -0.2339
 2120DOPC   C1B24879  12.798  25.668  12.484 -0.0381 -0.2428 -0.1191
 2120DOPC   D2B24880  12.688  25.306  12.203  0.0409  0.1108  0.0557
 2120DOPC   C3B24881  12.407  25.293  11.850  0.2005 -0.1977  0.2180
 2120DOPC   C4B24882  12.492  25.519  11.488 -0.2257  0.0015 -0.0924
 2121DOPC   NC324883  20.280  26.681  13.896 -0.2098 -0.2003  0.0211
 2121DOPC   PO424884  20.066  26.403  14.038 -0.0292 -0.0093 -0.4769
 2121DOPC   GL124885  20.078  26.313  13.591 -0.2495 -0.2188  0.3272
 2121DOPC   GL224886  20.324  26.426  13.414  0.1631 -0.3451  0.1473
 2121DOPC   C1A24887  20.222  25.958  13.272  0.2956 -0.2250  0.0173
 2121DOPC   D2A24888  20.219  25.801  12.809 -0.1463 -0.0234  0.0452
 2121DOPC   C3A24889  20.102  26.138  12.537 -0.2511 -0.0581 -0.0997
 2121DOPC   C4A24890  20.066  26.288  12.098 -0.2074  0.1435 -0.0426
 2121DOPC   C1B24891  20.249  26.385  12.993 -0.1872  0.0879  0.0908
 2121DOPC   D2B24892  20.414  26.473  12.628 -0.2293 -0.2635 -0.1757
 2121DOPC   C3B24893  20.567  26.200  12.337 -0.1852  0.0037  0.1570
 2121DOPC   C4B24894  20.867  25.988  12.162 -0.1890  0.1103 -0.2016
 2122DOPE   NH324895  20.793  30.343  14.004  0.1108  0.1200  0.1942
 2122DOPE   PO424896  20.699  30.669  14.113  0.0298 -0.1306  0.0375
 2122DOPE   GL124897  20.512  30.762  13.824 -0.2992 -0.2021  0.0287
 2122DOPE   GL224898  20.328  30.983  13.887  0.2465  0.2282  0.1188
 2122DOPE   C1A24899  20.062  30.639  13.713  0.1790  0.0963 -0.0544
 2122DOPE   D2A24900  19.691  30.586  13.385 -0.1354 -0.1523  0.0003
 2122DOPE   C3A24901  19.640  30.403  12.974  0.0230  0.0848 -0.0259
 2122DOPE   C4A24902  19.476  30.287  12.560 -0.2201 -0.0602  0.1045
 2122DOPE   C1B24903  20.607  31.115  13.606 -0.1908  0.1620  0.1494
 2122DOPE   D2B24904  20.762  31.192  13.186  0.0132  0.0914  0.0910
 2122DOPE   C3B24905  20.491  31.395  12.902  0.0386  0.2513  0.0883
 2122DOPE   C4B24906  20.497  31.330  12.443 -0.0658  0.2513  0.3331
 2123DOPE   NH324907  20.271  31.620  14.916 -0.0671  0.0803  0.0663
 2123DOPE   PO424908  20.095  31.396  14.882 -0.0140  0.0513 -0.0986
 2123DOPE   GL124909  20.157  31.537  14.503 -0.1089  0.1464  0.1148
 2123DOPE   GL224910  20.114  31.823  14.482  0.0006 -0.4045  0.4684
 2123DOPE   C1A24911  20.128  31.377  14.093  0.1677 -0.2987 -0.1542
 2123DOPE   D2A24912  19.922  31.259  13.635 -0.2286  0.0930 -0.2264
 2123DOPE   C3A24913  20.104  30.950  13.270  0.0178 -0.1167  0.0325
 2123DOPE   C4A24914  20.527  30.752  13.222  0.1127 -0.2868  0.3180
 2123DOPE   C1B24915  19.880  31.996  14.081  0.2574  0.1228 -0.0590
 2123DOPE   D2B24916  19.637  31.950  13.689  0.1080  0.0565  0.0232
 2123DOPE   C3B24917  19.383  31.610  13.424  0.0088  0.1503  0.1585
 2123DOPE   C4B24918  18.941  31.620  13.427  0.3184  0.0800  0.1944
 2124POSM   NC324919  17.054  31.571  15.086  0.0912 -0.0141  0.0814
 2124POSM   PO424920  16.881  31.840  14.908  0.3127 -0.1175  0.1118
 2124POSM   AM124921  16.921  31.949  14.596 -0.2607 -0.1857  0.1741
 2124POSM   AM224922  17.154  32.044  14.487  0.1034 -0.0765 -0.1708
 2124POSM   T1A24923  17.033  31.669  14.170 -0.0187  0.0588  0.0998
 2124POSM   C2A24924  16.940  31.711  13.700 -0.0447 -0.1009 -0.0505
 2124POSM   C3A24925  16.776  31.739  13.291  0.2682  0.1989  0.0192
 2124POSM   C1B24926  17.150  32.170  14.182  0.3586 -0.1430  0.1411
 2124POSM   D2B24927  17.300  32.076  13.727  0.2082 -0.0147  0.1593
 2124POSM   C3B24928  17.002  32.154  13.393  0.0561  0.0580 -0.0490
 2124POSM   C4B24929  16.827  32.287  13.048  0.1677  0.3174  0.3499
 2125DOPC   NC324930  21.674  22.411  13.574 -0.0093 -0.2170  0.0336
 2125DOPC   PO424931  21.783  22.084  13.737 -0.0625 -0.2877  0.0534
 2125DOPC   GL124932  21.815  21.911  13.344  0.1149  0.0650  0.0932
 2125DOPC   GL224933  21.922  22.123  13.125  0.1559 -0.0065 -0.1175
 2125DOPC   C1A24934  21.735  21.559  13.001 -0.1152 -0.0301  0.0298
 2125DOPC   D2A24935  21.621  21.411  12.523 -0.0190 -0.1017  0.0171
 2125DOPC   C3A24936  21.752  21.586  12.116 -0.3228 -0.1848 -0.1127
 2125DOPC   C4A24937  21.751  21.558  11.631  0.1002 -0.1477  0.2104
 2125DOPC   C1B24938  21.907  22.406  12.807 -0.2176 -0.1011  0.1697
 2125DOPC   D2B24939  21.694  22.492  12.405  0.1552  0.0238 -0.2528
 2125DOPC   C3B24940  21.836  22.581  11.970  0.0805 -0.1402 -0.2213
 2125DOPC   C4B24941  21.981  22.600  11.532  0.4333  0.2457  0.2112
 2126POSM   NC324942  19.364  24.148  13.034 -0.1754 -0.2189 -0.1346
 2126POSM   PO424943  19.421  23.781  13.164  0.3910 -0.2545 -0.0416
 2126POSM   AM124944  19.430  23.778  12.853  0.1330  0.0279 -0.0749
 2126POSM   AM224945  19.295  23.617  12.640 -0.0390  0.2299  0.1719
 2126POSM   T1A24946  19.719  23.964  12.478  0.0312  0.1362 -0.2451
 2126POSM   C2A24947  19.857  24.136  12.029  0.2081  0.0234 -0.0013
 2126POSM   C3A24948  19.737  24.072  11.603  0.0256 -0.4553  0.4711
 2126POSM   C1B24949  19.129  23.533  12.373 -0.2183 -0.1458 -0.0986
 2126POSM   D2B24950  19.136  23.493  11.913  0.1941 -0.3594 -0.0141
 2126POSM   C3B24951  19.144  23.374  11.453 -0.3198  0.5685 -0.2135
 2126POSM   C4B24952  18.902  23.147  11.125  0.0043  0.1310  0.1915
 2127POSM   NC324953  10.354   0.398  14.901 -0.0948  0.0576  0.0194
 2127POSM   PO424954  10.287   0.269  14.528 -0.0178 -0.3620  0.1998
 2127POSM   AM124955  10.323   0.293  14.201  0.0617  0.1085 -0.0793
 2127POSM   AM224956  10.449   0.068  14.062 -0.2268 -0.0067 -0.0870
 2127POSM   T1A24957  10.401   0.407  13.712 -0.3025 -0.0149  0.1264
 2127POSM   C2A24958  10.302   0.243  13.298  0.2734 -0.0204 -0.1715
 2127POSM   C3A24959  10.248   0.476  12.854 -0.1065  0.0500  0.0951
 2127POSM   C1B24960  10.639  -0.122  13.838 -0.1946  0.0901 -0.0815
 2127POSM   D2B24961  10.664  -0.371  13.412 -0.4574 -0.1884 -0.0711
 2127POSM   C3B24962  10.600  -0.804  13.276  0.2367 -0.0714 -0.0843
 2127POSM   C4B24963  10.429  -1.204  13.283  0.0500  0.0170  0.2344
 2128DOPS   CNO24964  17.485  29.015  14.856  0.3719  0.0095  0.0176
 2128DOPS   PO424965  17.772  28.815  14.920  0.2237 -0.1619 -0.2697
 2128DOPS   GL124966  17.987  29.022  14.713  0.0628  0.2141 -0.0729
 2128DOPS   GL224967  18.164  29.256  14.687  0.1228  0.1474 -0.2088
 2128DOPS   C1A24968  17.847  29.136  14.284  0.0944 -0.0349  0.1509
 2128DOPS   D2A24969  17.730  29.455  13.990  0.0374  0.3837 -0.0231
 2128DOPS   C3A24970  17.832  29.266  13.641  0.1708 -0.2315  0.3052
 2128DOPS   C4A24971  18.180  29.207  13.319  0.2496  0.0579 -0.3598
 2128DOPS   C1B24972  17.870  29.586  14.562 -0.0327 -0.6046 -0.0414
 2128DOPS   D2B24973  17.605  29.885  14.226 -0.1631  0.0341  0.1014
 2128DOPS   C3B24974  17.740  30.302  14.020 -0.1473 -0.0547  0.2305
 2128DOPS   C4B24975  17.985  30.697  14.135 -0.0367 -0.2201  0.0581
 2129DOPC   NC324976  13.271  31.529  14.221 -0.1742  0.1464  0.0575
 2129DOPC   PO424977  13.444  31.864  14.095 -0.0585 -0.0139  0.0611
 2129DOPC   GL124978  13.416  31.644  13.813  0.1535  0.0374 -0.1316
 2129DOPC   GL224979  13.286  31.868  13.613  0.3412 -0.0278 -0.3368
 2129DOPC   C1A24980  13.425  31.380  13.381 -0.3563 -0.2092 -0.0689
 2129DOPC   D2A24981  13.622  31.124  13.050  0.0665  0.3781  0.1885
 2129DOPC   C3A24982  13.629  31.185  12.563  0.2478  0.1326 -0.2208
 2129DOPC   C4A24983  13.340  31.291  12.150 -0.0153  0.0892  0.1437
 2129DOPC   C1B24984  13.287  32.143  13.274 -0.1000 -0.0679  0.1147
 2129DOPC   D2B24985  13.152  32.118  12.868 -0.0687  0.2504  0.2945
 2129DOPC   C3B24986  13.407  32.165  12.483  0.2137 -0.4398  0.4111
 2129DOPC   C4B24987  13.797  32.219  12.294 -0.4482  0.2316  0.3987
 2130DOPE   NH324988  13.152  32.226  14.227 -0.0552 -0.0507 -0.1521
 2130DOPE   PO424989  13.248  32.341  13.946  0.1296 -0.0510  0.2062
 2130DOPE   GL124990  13.530  32.308  13.683 -0.2612  0.0850 -0.1317
 2130DOPE   GL224991  13.699  32.108  13.718 -0.0000  0.0282  0.0270
 2130DOPE   C1A24992  13.914  32.347  13.407  0.1232  0.0536 -0.0310
 2130DOPE   D2A24993  14.301  32.612  13.349 -0.0613 -0.1512 -0.2057
 2130DOPE   C3A24994  14.644  32.507  13.071  0.0862  0.0322  0.1049
 2130DOPE   C4A24995  14.813  32.428  12.636  0.2098  0.1970 -0.0838
 2130DOPE   C1B24996  13.677  31.828  13.322 -0.1814 -0.0300  0.2938
 2130DOPE   D2B24997  13.687  31.641  12.912 -0.1806  0.1949  0.2845
 2130DOPE   C3B24998  13.595  31.742  12.463 -0.2343 -0.1014 -0.2550
 2130DOPE   C4B24999  13.292  31.898  12.128 -0.0392 -0.0662  0.0636
 2131DOPE   NH325000  19.855  22.463  12.821  0.1106 -0.0100  0.1760
 2131DOPE   PO425001  20.103  22.255  12.834 -0.0034  0.4470  0.4933
 2131DOPE   GL125002  20.148  22.268  12.448 -0.0056 -0.2500  0.3245
 2131DOPE   GL225003  20.392  22.339  12.399 -0.1433  0.1332 -0.4029
 2131DOPE   C1A25004  20.212  21.918  12.118  0.0411 -0.1573  0.2136
 2131DOPE   D2A25005  20.204  21.756  11.671  0.0108 -0.1354  0.3011
 2131DOPE   C3A25006  20.300  21.968  11.249  0.1302 -0.1492 -0.1630
 2131DOPE   C4A25007  20.590  21.788  10.906 -0.0105 -0.0894 -0.3589
 2131DOPE   C1B25008  20.069  22.380  11.993  0.0280  0.5095  0.0030
 2131DOPE   D2B25009  19.909  22.129  11.656 -0.2111 -0.1278 -0.0166
 2131DOPE   C3B25010  19.446  22.028  11.575  0.0267  0.2832  0.1077
 2131DOPE   C4B25011  19.134  21.982  11.252 -0.0487 -0.3651  0.0669
 2132DOPC   NC325012  19.948  25.465  14.182 -0.1014 -0.0470  0.0783
 2132DOPC   PO425013  19.594  25.510  13.975 -0.0164  0.0976  0.2011
 2132DOPC   GL125014  19.646  25.780  13.562 -0.0230 -0.0267 -0.1626
 2132DOPC   GL225015  19.481  25.608  13.343 -0.0497  0.1069  0.1174
 2132DOPC   C1A25016  19.709  26.184  13.343 -0.0594  0.0560 -0.1279
 2132DOPC   D2A25017  19.782  26.402  12.891  0.0277  0.2665 -0.2697
 2132DOPC   C3A25018  19.960  26.795  12.703  0.0602 -0.2811 -0.0030
 2132DOPC   C4A25019  19.703  27.073  12.383 -0.1514 -0.1009 -0.1208
 2132DOPC   C1B25020  19.740  25.584  12.953 -0.0800  0.3151  0.0609
 2132DOPC   D2B25021  20.025  25.449  12.570 -0.0953  0.1724 -0.2605
 2132DOPC   C3B25022  20.457  25.364  12.569 -0.2002 -0.1551  0.2150
 2132DOPC   C4B25023  20.853  25.052  12.518  0.2751 -0.0148 -0.0307
 2133POSM   NC325024  17.228  32.257  14.955 -0.0556 -0.2886  0.0655
 2133POSM   PO425025  17.408  32.556  14.822  0.2679 -0.0263 -0.0645
 2133POSM   AM125026  17.442  32.452  14.532  0.1436  0.0877  0.0453
 2133POSM   AM225027  17.603  32.195  14.445 -0.0445  0.0133  0.0202
 2133POSM   T1A25028  17.432  32.526  14.010 -0.1047 -0.0897  0.1719
 2133POSM   C2A25029  17.518  32.576  13.560  0.1512  0.0294 -0.0368
 2133POSM   C3A25030  17.439  32.301  13.191 -0.1557 -0.3894 -0.2345
 2133POSM   C1B25031  17.636  32.090  14.133  0.1907 -0.2467  0.0448
 2133POSM   D2B25032  17.800  32.147  13.676  0.0613  0.1756 -0.0274
 2133POSM   C3B25033  17.547  31.860  13.395  0.0502 -0.0543  0.0016
 2133POSM   C4B25034  17.243  31.561  13.159  0.2604  0.1927  0.0020
 2134POSM   NC325035  15.250  33.763  14.933 -0.0525  0.2968  0.2352
 2134POSM   PO425036  15.079  33.504  14.700  0.0383  0.0945 -0.0473
 2134POSM   AM125037  15.158  33.409  14.395  0.0351  0.1810  0.4761
 2134POSM   AM225038  15.364  33.196  14.240  0.2423  0.0613 -0.0492
 2134POSM   T1A25039  15.135  33.461  13.904  0.0553  0.4745  0.2449
 2134POSM   C2A25040  15.214  33.514  13.403 -0.2603 -0.0334  0.2639
 2134POSM   C3A25041  15.284  33.311  12.987 -0.0080 -0.0708 -0.1305
 2134POSM   C1B25042  15.482  33.045  13.938  0.3380 -0.0304  0.0167
 2134POSM   D2B25043  15.462  33.070  13.480 -0.1121 -0.2437  0.0085
 2134POSM   C3B25044  15.526  32.696  13.221 -0.1733  0.0823  0.3273
 2134POSM   C4B25045  15.371  32.433  12.899  0.1772  0.0808  0.3092
 2135DOPC   NC325046  19.052   0.328  14.581  0.0434 -0.1585  0.0047
 2135DOPC   PO425047  19.228   0.013  14.405 -0.1270  0.1365  0.0004
 2135DOPC   GL125048  19.168   0.073  13.953  0.1118 -0.0130 -0.1037
 2135DOPC   GL225049  18.929   0.094  13.820  0.3073 -0.1435  0.2816
 2135DOPC   C1A25050  19.351   0.413  13.726  0.2804 -0.3629  0.2339
 2135DOPC   D2A25051  19.412   0.422  13.259 -0.2452 -0.0461 -0.1443
 2135DOPC   C3A25052  19.779   0.268  13.027  0.0234 -0.0386  0.0351
 2135DOPC   C4A25053  20.154   0.074  12.863  0.2577 -0.1705  0.2546
 2135DOPC   C1B25054  18.788  -0.153  13.451  0.1192  0.1655  0.0064
 2135DOPC   D2B25055  19.015  -0.439  13.232  0.0939  0.5240 -0.1331
 2135DOPC   C3B25056  18.815  -0.752  12.931  0.1854  0.0407 -0.0269
 2135DOPC   C4B25057  18.484  -0.982  12.747 -0.4073  0.0765  0.1094
 2136DOPS   CNO25058  13.789  31.117  14.406  0.0502  0.0558  0.0763
 2136DOPS   PO425059  14.136  31.059  14.592 -0.1029  0.2300 -0.1811
 2136DOPS   GL125060  14.182  30.814  14.185  0.1955 -0.4318 -0.0192
 2136DOPS   GL225061  14.433  30.606  14.140  0.1513  0.0355 -0.1359
 2136DOPS   C1A25062  14.150  30.903  13.755 -0.1552 -0.2389 -0.0754
 2136DOPS   D2A25063  14.505  30.828  13.453  0.2202 -0.1851 -0.2498
 2136DOPS   C3A25064  14.849  31.190  13.480  0.2461  0.0521 -0.2843
 2136DOPS   C4A25065  15.352  31.217  13.545  0.4899  0.1387  0.2076
 2136DOPS   C1B25066  14.416  30.400  13.756 -0.2903  0.1650  0.0026
 2136DOPS   D2B25067  14.476  30.361  13.295 -0.2000 -0.0310 -0.2481
 2136DOPS   C3B25068  14.285  30.702  13.049 -0.2345  0.3816  0.0439
 2136DOPS   C4B25069  14.041  31.028  12.769  0.3891  0.1110 -0.1706
 2137DOPE   NH325070  24.220  29.760  14.435 -0.1383  0.1031  0.0445
 2137DOPE   PO425071  24.361  29.528  14.583 -0.2184  0.0053  0.0726
 2137DOPE   GL125072  24.342  29.411  14.169  0.1441 -0.0206 -0.2794
 2137DOPE   GL225073  24.157  29.598  13.954  0.0425  0.2308 -0.1453
 2137DOPE   C1A25074  24.667  29.566  13.919 -0.0199  0.3478  0.0918
 2137DOPE   D2A25075  25.127  29.595  13.681 -0.2450 -0.2776 -0.0956
 2137DOPE   C3A25076  25.191  29.466  13.269  0.4232  0.0337 -0.0230
 2137DOPE   C4A25077  25.362  29.301  12.834 -0.0844 -0.1062 -0.0785
 2137DOPE   C1B25078  24.239  29.815  13.549 -0.1207 -0.3019 -0.1359
 2137DOPE   D2B25079  23.990  30.002  13.250  0.0931 -0.1682 -0.0907
 2137DOPE   C3B25080  23.682  29.630  13.290 -0.0841 -0.1927  0.1207
 2137DOPE   C4B25081  23.748  29.203  13.110 -0.1899  0.0962 -0.3041
 2138DOPS   CNO25082  16.689   1.627  14.037 -0.0601 -0.1143 -0.2156
 2138DOPS   PO425083  16.458   1.900  13.898 -0.0621  0.0855 -0.3425
 2138DOPS   GL125084  16.343   1.962  13.556  0.3642  0.0430 -0.3355
 2138DOPS   GL225085  16.264   1.733  13.432  0.2481 -0.0227 -0.3735
 2138DOPS   C1A25086  16.066   2.195  13.298 -0.1915 -0.2238 -0.0075
 2138DOPS   D2A25087  15.632   2.276  13.287 -0.1470 -0.2824 -0.2981
 2138DOPS   C3A25088  15.240   2.097  13.051  0.0807  0.0028  0.0227
 2138DOPS   C4A25089  15.094   1.639  12.907 -0.1094 -0.0072 -0.2830
 2138DOPS   C1B25090  16.163   1.733  13.007 -0.6153  0.0340 -0.1635
 2138DOPS   D2B25091  15.872   1.984  12.837 -0.0414  0.0026 -0.0774
 2138DOPS   C3B25092  15.954   2.055  12.349 -0.1211 -0.0906  0.2102
 2138DOPS   C4B25093  16.064   1.833  11.961  0.3153 -0.0948 -0.1907
 2139DOPS   CNO25094  16.265  25.255  13.992 -0.0869 -0.3403 -0.2555
 2139DOPS   PO425095  16.361  25.446  13.684 -0.1035 -0.1881  0.3480
 2139DOPS   GL125096  16.325  25.773  13.350  0.1980  0.4050 -0.1927
 2139DOPS   GL225097  16.493  25.699  13.158  0.1102 -0.0563  0.1049
 2139DOPS   C1A25098  16.045  26.025  13.074  0.0832  0.3149  0.2450
 2139DOPS   D2A25099  15.833  26.161  12.685  0.0476 -0.0380 -0.2093
 2139DOPS   C3A25100  15.890  26.524  12.411  0.1409  0.0170  0.1800
 2139DOPS   C4A25101  15.999  26.525  11.957 -0.1299 -0.4124  0.1898
 2139DOPS   C1B25102  16.241  25.622  12.775  0.0656 -0.0801 -0.1626
 2139DOPS   D2B25103  16.305  25.472  12.340 -0.1870 -0.1055  0.5105
 2139DOPS   C3B25104  16.478  25.080  12.285  0.0184  0.1060  0.3044
 2139DOPS   C4B25105  16.820  24.762  12.228 -0.3781  0.2793 -0.1997
 2140POSM   NC325106  11.696  29.621  14.343  0.0681  0.0381 -0.0278
 2140POSM   PO425107  11.502  29.957  14.222  0.1080  0.0840 -0.0136
 2140POSM   AM125108  11.637  29.893  13.926 -0.2861 -0.0622 -0.1496
 2140POSM   AM225109  11.690  29.670  13.787  0.2453  0.0049  0.1634
 2140POSM   T1A25110  11.640  30.000  13.435  0.1889  0.0539 -0.4005
 2140POSM   C2A25111  11.790  29.878  13.003  0.0785  0.0550 -0.1276
 2140POSM   C3A25112  11.720  30.058  12.584 -0.0353 -0.1898  0.1204
 2140POSM   C1B25113  11.915  29.580  13.417 -0.1848  0.3892  0.1965
 2140POSM   D2B25114  12.207  29.497  13.076  0.1500  0.1551  0.1319
 2140POSM   C3B25115  12.265  29.711  12.701  0.1364  0.2284 -0.3546
 2140POSM   C4B25116  12.620  29.894  12.488  0.2605  0.0215 -0.0045
 2141POSM   NC325117  21.634  28.483  14.078  0.3605 -0.2139  0.1291
 2141POSM   PO425118  21.787  28.123  14.023  0.2522 -0.1849 -0.0072
 2141POSM   AM125119  21.888  27.950  13.762 -0.0533 -0.0115  0.0810
 2141POSM   AM225120  22.135  27.901  13.661 -0.1147 -0.1250 -0.1889
 2141POSM   T1A25121  21.713  27.857  13.304  0.2597  0.1092  0.0907
 2141POSM   C2A25122  21.467  27.974  12.937  0.1146 -0.1784 -0.1277
 2141POSM   C3A25123  21.420  27.871  12.474 -0.1252 -0.0088  0.4976
 2141POSM   C1B25124  22.292  27.643  13.482 -0.1124  0.0667 -0.0567
 2141POSM   D2B25125  22.348  27.417  13.124 -0.0810 -0.4004  0.2747
 2141POSM   C3B25126  22.498  27.007  12.971 -0.3498  0.2483  0.0963
 2141POSM   C4B25127  22.655  26.538  12.807 -0.0466 -0.3008  0.2264
 2142DOPC   NC325128  16.082  26.212  13.645  0.0766  0.4626  0.0699
 2142DOPC   PO425129  16.471  26.163  13.695  0.0014  0.0458 -0.1581
 2142DOPC   GL125130  16.346  26.326  13.304  0.3702 -0.1642  0.1526
 2142DOPC   GL225131  16.578  26.219  13.142 -0.0297  0.1245  0.2853
 2142DOPC   C1A25132  16.172  26.446  12.892  0.3242 -0.1956 -0.0231
 2142DOPC   D2A25133  16.339  26.529  12.501 -0.0394 -0.0329  0.2167
 2142DOPC   C3A25134  16.637  26.931  12.458 -0.1035 -0.2613 -0.2503
 2142DOPC   C4A25135  17.048  26.918  12.287  0.0323  0.2073 -0.0348
 2142DOPC   C1B25136  16.581  26.024  12.740 -0.2577 -0.0158 -0.2727
 2142DOPC   D2B25137  16.292  26.038  12.355 -0.0020  0.1846  0.1848
 2142DOPC   C3B25138  16.410  26.279  11.990 -0.1032 -0.4856 -0.2210
 2142DOPC   C4B25139  16.715  26.250  11.583 -0.1856  0.0748  0.2570
 2143POSM   NC325140  15.863   1.981  13.737  0.3129  0.1956 -0.3033
 2143POSM   PO425141  15.575   1.896  14.050  0.0393 -0.2328  0.1194
 2143POSM   AM125142  15.430   1.804  13.747  0.2391  0.1332 -0.0407
 2143POSM   AM225143  15.469   1.863  13.455  0.0975  0.2188 -0.0093
 2143POSM   T1A25144  15.113   1.518  13.430  0.1195  0.0941 -0.0480
 2143POSM   C2A25145  14.963   1.206  13.134 -0.0397  0.2987 -0.1689
 2143POSM   C3A25146  14.754   1.037  12.733  0.2401 -0.0615  0.0792
 2143POSM   C1B25147  15.709   1.712  13.243 -0.0904 -0.2601 -0.4721
 2143POSM   D2B25148  15.758   1.386  12.844  0.1406  0.1953 -0.0855
 2143POSM   C3B25149  15.538   1.553  12.494  0.0530  0.0931  0.1131
 2143POSM   C4B25150  15.175   1.699  12.238 -0.1738  0.5353 -0.0385
 2144DOPC   NC325151  18.648  29.971  14.748 -0.2316  0.1584  0.0241
 2144DOPC   PO425152  18.817  29.797  15.058  0.0697 -0.2309  0.0952
 2144DOPC   GL125153  19.063  29.686  14.704 -0.1044 -0.1689 -0.0450
 2144DOPC   GL225154  19.054  29.389  14.493 -0.0764 -0.3415  0.1274
 2144DOPC   C1A25155  18.870  29.855  14.334 -0.0852  0.0060 -0.2112
 2144DOPC   D2A25156  18.654  29.889  13.939 -0.1385  0.0580  0.2192
 2144DOPC   C3A25157  18.833  29.731  13.530 -0.3544  0.1242  0.0445
 2144DOPC   C4A25158  18.662  29.759  13.044 -0.0574  0.0156  0.0021
 2144DOPC   C1B25159  19.131  29.062  14.168 -0.0573  0.0029 -0.1274
 2144DOPC   D2B25160  19.384  28.654  14.344 -0.4451  0.0446  0.1010
 2144DOPC   C3B25161  19.615  28.510  13.931  0.0799  0.1960  0.0627
 2144DOPC   C4B25162  19.516  28.486  13.495  0.2275 -0.0342  0.2688
 2145POSM   NC325163  19.490  27.709  14.293  0.0280 -0.2468 -0.1472
 2145POSM   PO425164  19.712  27.376  14.315 -0.1963  0.0989  0.0104
 2145POSM   AM125165  19.828  27.513  14.047 -0.1549 -0.0918  0.1978
 2145POSM   AM225166  20.096  27.576  13.917 -0.1982  0.0590  0.0324
 2145POSM   T1A25167  19.755  27.409  13.557 -0.0041 -0.2795 -0.0898
 2145POSM   C2A25168  19.585  27.113  13.290 -0.1027 -0.2854 -0.0677
 2145POSM   C3A25169  19.460  26.956  12.844 -0.1124 -0.2316 -0.0089
 2145POSM   C1B25170  20.248  27.612  13.617  0.0108 -0.1399  0.0141
 2145POSM   D2B25171  20.591  27.818  13.405 -0.1475 -0.1092  0.0880
 2145POSM   C3B25172  20.604  27.479  13.083  0.3435  0.1416  0.0280
 2145POSM   C4B25173  20.470  27.496  12.603  0.2520  0.0243 -0.2005
 2146POSM   NC325174  21.106  23.442  13.649 -0.1044 -0.1424  0.0883
 2146POSM   PO425175  21.298  23.752  13.746  0.0333  0.0825  0.0436
 2146POSM   AM125176  21.384  23.751  13.407 -0.3055  0.0063  0.1204
 2146POSM   AM225177  21.481  23.968  13.241  0.3807  0.2143  0.2170
 2146POSM   T1A25178  21.601  23.492  13.043 -0.3442 -0.1923  0.0225
 2146POSM   C2A25179  21.847  23.524  12.621  0.2191  0.1919 -0.1265
 2146POSM   C3A25180  21.834  23.778  12.308 -0.0735 -0.3139 -0.1466
 2146POSM   C1B25181  21.756  23.992  13.041  0.5546 -0.3359  0.0335
 2146POSM   D2B25182  22.120  24.071  12.922  0.3647 -0.0035 -0.0635
 2146POSM   C3B25183  22.306  23.878  12.602  0.2122 -0.0524 -0.0153
 2146POSM   C4B25184  22.616  23.879  12.256 -0.2518 -0.2357  0.3318
 2147DOPC   NC325185  13.470  28.316  13.606  0.0887  0.1370  0.1701
 2147DOPC   PO425186  13.367  28.635  13.388 -0.2255  0.0508 -0.2198
 2147DOPC   GL125187  13.316  28.805  12.967 -0.0506 -0.1997 -0.0326
 2147DOPC   GL225188  13.467  29.032  13.025 -0.0307  0.0909  0.0622
 2147DOPC   C1A25189  13.028  28.844  12.627 -0.4103 -0.1255  0.1122
 2147DOPC   D2A25190  12.919  28.937  12.200  0.1641 -0.0953 -0.2094
 2147DOPC   C3A25191  12.490  28.966  12.101  0.0641 -0.1549 -0.3220
 2147DOPC   C4A25192  12.214  28.690  11.911  0.2127  0.0677 -0.2222
 2147DOPC   C1B25193  13.645  29.242  12.712 -0.1519  0.1790 -0.0370
 2147DOPC   D2B25194  13.820  29.648  12.790 -0.2728 -0.2657 -0.0423
 2147DOPC   C3B25195  13.904  30.000  12.534  0.1767  0.2121  0.1664
 2147DOPC   C4B25196  13.954  30.238  12.191  0.0014  0.1549 -0.1711
 2148DOPE   NH325197  15.420  25.876  13.308 -0.2123 -0.1462 -0.0457
 2148DOPE   PO425198  15.528  25.568  13.329 -0.1533 -0.1236 -0.0129
 2148DOPE   GL125199  15.587  25.483  13.022  0.2022  0.1629 -0.1717
 2148DOPE   GL225200  15.656  25.670  12.796  0.1336 -0.1276 -0.3437
 2148DOPE   C1A25201  15.434  25.203  12.712  0.0917 -0.1622  0.3216
 2148DOPE   D2A25202  15.586  25.283  12.287 -0.1448  0.0350  0.1754
 2148DOPE   C3A25203  15.605  25.200  11.807 -0.0140  0.2832  0.0471
 2148DOPE   C4A25204  15.480  24.959  11.412  0.0013 -0.1266 -0.1590
 2148DOPE   C1B25205  15.823  25.752  12.363 -0.1798 -0.0842 -0.2148
 2148DOPE   D2B25206  15.992  25.634  11.961 -0.2104  0.0006  0.2195
 2148DOPE   C3B25207  15.851  26.025  11.742  0.3821  0.0907 -0.0944
 2148DOPE   C4B25208  16.205  26.168  11.504  0.0423  0.1866  0.2115
 2149DOPC   NC325209  10.005  26.556  12.964  0.1406  0.1723  0.2110
 2149DOPC   PO425210   9.882  26.725  13.307 -0.0691  0.0390  0.0606
 2149DOPC   GL125211  10.014  27.065  13.099  0.0739 -0.0575 -0.2224
 2149DOPC   GL225212  10.241  27.212  13.144  0.1634 -0.2138  0.0936
 2149DOPC   C1A25213   9.874  27.377  12.772 -0.0239 -0.1180  0.0289
 2149DOPC   D2A25214   9.864  27.609  12.368  0.1341  0.0053  0.1739
 2149DOPC   C3A25215  10.291  27.737  12.176 -0.0939  0.1984  0.1423
 2149DOPC   C4A25216  10.599  28.004  11.932  0.0640  0.1213  0.1357
 2149DOPC   C1B25217  10.387  27.398  12.809  0.3284  0.0431  0.1166
 2149DOPC   D2B25218  10.573  27.270  12.370  0.0792  0.2652 -0.0051
 2149DOPC   C3B25219  11.003  27.309  12.287  0.0717 -0.1887 -0.0740
 2149DOPC   C4B25220  11.252  27.252  11.927 -0.1394 -0.2132 -0.0186
 2150POSM   NC325221  19.012  31.013  15.483 -0.2658 -0.1171 -0.2777
 2150POSM   PO425222  18.876  30.982  15.097  0.1064 -0.0927 -0.0998
 2150POSM   AM125223  18.924  30.774  14.828 -0.0045  0.0176 -0.3306
 2150POSM   AM225224  18.715  30.770  14.652  0.3052  0.0674 -0.0332
 2150POSM   T1A25225  18.920  30.370  14.561 -0.0130  0.1192 -0.2989
 2150POSM   C2A25226  18.543  30.285  14.279 -0.1710  0.2410  0.3695
 2150POSM   C3A25227  18.265  30.297  13.874 -0.0836 -0.0732  0.1764
 2150POSM   C1B25228  18.565  30.770  14.373 -0.1770  0.2189 -0.0856
 2150POSM   D2B25229  18.377  31.084  14.211 -0.1517 -0.2655  0.3391
 2150POSM   C3B25230  18.404  31.024  13.715 -0.0915 -0.0706 -0.0407
 2150POSM   C4B25231  18.338  31.133  13.305 -0.0558 -0.0566 -0.0130
 2151POSM   NC325232  12.453   1.511  14.004  0.1291  0.1402  0.0298
 2151POSM   PO425233  12.292   1.165  13.891 -0.1939 -0.0453  0.4328
 2151POSM   AM125234  12.351   1.250  13.578  0.0777  0.2498  0.1405
 2151POSM   AM225235  12.425   1.479  13.441  0.3060 -0.2859 -0.1103
 2151POSM   T1A25236  12.063   1.362  13.169  0.1096  0.2676 -0.2235
 2151POSM   C2A25237  12.141   1.395  12.693  0.1437 -0.0989 -0.4272
 2151POSM   C3A25238  12.216   1.575  12.257  0.0980  0.0024 -0.2474
 2151POSM   C1B25239  12.352   1.739  13.251 -0.4904  0.2251 -0.1564
 2151POSM   D2B25240  12.151   2.116  13.021 -0.2597 -0.0613 -0.3025
 2151POSM   C3B25241  11.948   2.148  12.584  0.0235 -0.0646 -0.3433
 2151POSM   C4B25242  11.506   2.246  12.555  0.1120 -0.0149 -0.0595
 2152POSM   NC325243  18.807  27.677  14.261  0.0132 -0.0693  0.2498
 2152POSM   PO425244  18.633  27.351  14.305  0.1568  0.2586  0.4417
 2152POSM   AM125245  18.618  27.284  13.971  0.1280  0.0686 -0.1954
 2152POSM   AM225246  18.515  27.466  13.799 -0.1043  0.1542 -0.2216
 2152POSM   T1A25247  18.338  26.999  13.669 -0.2281 -0.1407 -0.0305
 2152POSM   C2A25248  18.219  26.681  13.350 -0.3055  0.0434  0.0238
 2152POSM   C3A25249  17.958  26.288  13.362 -0.0977  0.3341 -0.1605
 2152POSM   C1B25250  18.442  27.566  13.588 -0.3180 -0.3518  0.1574
 2152POSM   D2B25251  18.305  27.809  13.137 -0.0429 -0.3179  0.1604
 2152POSM   C3B25252  17.918  28.094  13.176 -0.2046  0.2914  0.1347
 2152POSM   C4B25253  17.492  28.394  13.260 -0.1829 -0.1036 -0.3440
 2153POSM   NC325254  13.027   0.574  14.359  0.3082  0.1273  0.0747
 2153POSM   PO425255  12.782   0.413  14.124 -0.2209  0.0504  0.1222
 2153POSM   AM125256  12.822   0.145  13.936 -0.1944  0.0140 -0.0091
 2153POSM   AM225257  13.009   0.054  13.707  0.0626  0.2753  0.1066
 2153POSM   T1A25258  12.580  -0.148  13.580 -0.1009  0.2348  0.1148
 2153POSM   C2A25259  12.300  -0.109  13.222  0.1016 -0.0883  0.3917
 2153POSM   C3A25260  11.831   0.077  13.153 -0.0998  0.0973  0.1288
 2153POSM   C1B25261  13.200  -0.036  13.455  0.0739 -0.1608  0.1988
 2153POSM   D2B25262  13.313  -0.136  13.015  0.0185  0.1097  0.2775
 2153POSM   C3B25263  13.635   0.040  12.773 -0.0402  0.0724  0.0465
 2153POSM   C4B25264  13.675   0.312  12.438  0.0219  0.2188 -0.1681
 2154DOPC   NC325265  22.047  32.048  15.076  0.1939  0.0498  0.1134
 2154DOPC   PO425266  22.233  31.798  14.795 -0.0812  0.1467  0.1128
 2154DOPC   GL125267  22.129  31.771  14.461  0.4281  0.2102 -0.2676
 2154DOPC   GL225268  21.903  31.587  14.448 -0.0782 -0.0770  0.0606
 2154DOPC   C1A25269  21.965  31.838  14.011 -0.0497 -0.0050 -0.0732
 2154DOPC   D2A25270  21.810  31.601  13.635 -0.1417 -0.0421 -0.0546
 2154DOPC   C3A25271  21.772  31.581  13.221 -0.0899  0.0181  0.0687
 2154DOPC   C4A25272  21.636  31.688  12.758  0.0884  0.4051  0.1250
 2154DOPC   C1B25273  21.586  31.472  14.140  0.3167 -0.3286 -0.3303
 2154DOPC   D2B25274  21.151  31.401  13.973 -0.0103  0.1384 -0.0270
 2154DOPC   C3B25275  21.166  31.279  13.497 -0.1156 -0.1935  0.2447
 2154DOPC   C4B25276  21.405  31.204  13.134  0.1554 -0.1247  0.0336
 2155POSM   NC325277  19.654  29.735  14.898  0.0637  0.0838 -0.3729
 2155POSM   PO425278  19.786  30.082  14.883 -0.0192 -0.0475  0.1222
 2155POSM   AM125279  19.680  30.186  14.602 -0.1954 -0.0393  0.0993
 2155POSM   AM225280  19.843  30.306  14.408 -0.0603  0.1319 -0.1125
 2155POSM   T1A25281  19.317  30.114  14.260 -0.5594 -0.1351 -0.1582
 2155POSM   C2A25282  18.979  30.284  14.063  0.1225  0.2095  0.4244
 2155POSM   C3A25283  18.899  30.221  13.570  0.0106 -0.0835  0.1927
 2155POSM   C1B25284  19.727  30.439  14.078  0.1422 -0.2201 -0.0996
 2155POSM   D2B25285  19.361  30.338  13.750 -0.0967  0.0934  0.3121
 2155POSM   C3B25286  19.277  29.900  13.686 -0.1289  0.1524  0.0486
 2155POSM   C4B25287  19.328  29.504  13.427  0.0421 -0.2339 -0.0578
 2156DOPS   CNO25288  15.185  28.426  14.682  0.0645  0.1804 -0.0966
 2156DOPS   PO425289  15.491  28.239  14.491 -0.1075 -0.0884  0.0547
 2156DOPS   GL125290  15.474  28.276  14.151 -0.2169 -0.1693 -0.1378
 2156DOPS   GL225291  15.286  28.475  13.902  0.3256  0.0882  0.1479
 2156DOPS   C1A25292  15.748  28.387  13.764 -0.0356  0.1646 -0.2377
 2156DOPS   D2A25293  16.132  28.104  13.679 -0.1527 -0.0345  0.0153
 2156DOPS   C3A25294  16.142  27.734  13.384  0.2315  0.1033  0.3676
 2156DOPS   C4A25295  16.017  27.518  12.950 -0.3959  0.5997  0.1564
 2156DOPS   C1B25296  15.408  28.518  13.418 -0.0352  0.4280 -0.0168
 2156DOPS   D2B25297  15.496  28.580  12.991  0.2182 -0.0191  0.2053
 2156DOPS   C3B25298  15.842  28.867  12.900 -0.0878 -0.0553  0.1717
 2156DOPS   C4B25299  16.247  29.023  12.675  0.0554 -0.0072 -0.0607
 2157DOPS   CNO25300  13.269  28.916  14.309 -0.0012  0.0634 -0.3373
 2157DOPS   PO425301  13.358  29.295  14.303  0.1900  0.0579  0.2252
 2157DOPS   GL125302  13.421  29.632  14.138  0.0737 -0.1168  0.1962
 2157DOPS   GL225303  13.389  29.594  13.828 -0.1438 -0.0501  0.3438
 2157DOPS   C1A25304  13.770  29.967  14.140  0.1331 -0.1508  0.1384
 2157DOPS   D2A25305  13.969  30.270  13.912 -0.2710  0.1131  0.3843
 2157DOPS   C3A25306  13.978  30.400  13.484 -0.0697  0.4243 -0.0176
 2157DOPS   C4A25307  13.791  30.542  13.109  0.2448  0.0437  0.0595
 2157DOPS   C1B25308  13.672  29.856  13.705  0.0238  0.1067 -0.0079
 2157DOPS   D2B25309  14.005  29.848  13.436  0.2424 -0.1268 -0.2305
 2157DOPS   C3B25310  14.096  30.077  13.014 -0.0420 -0.1926  0.3440
 2157DOPS   C4B25311  14.351  30.161  12.659  0.1252 -0.0293  0.0026
 2158DOPS   CNO25312  16.441  29.970  14.628 -0.2915  0.2048  0.0021
 2158DOPS   PO425313  16.349  30.300  14.780  0.3533 -0.0626 -0.1870
 2158DOPS   GL125314  16.238  30.349  14.410  0.0213  0.0318 -0.0350
 2158DOPS   GL225315  16.250  30.617  14.289 -0.0409 -0.2012  0.0037
 2158DOPS   C1A25316  16.378  30.019  14.094  0.0450  0.2592 -0.1864
 2158DOPS   D2A25317  16.404  29.628  13.778  0.1258  0.2171  0.1269
 2158DOPS   C3A25318  16.198  29.257  13.588  0.0795 -0.1721 -0.0163
 2158DOPS   C4A25319  16.314  29.012  13.243  0.1088  0.2579 -0.1180
 2158DOPS   C1B25320  16.256  30.973  13.952 -0.1865 -0.3499 -0.1368
 2158DOPS   D2B25321  15.917  31.271  13.879  0.2744  0.0204 -0.0521
 2158DOPS   C3B25322  16.041  31.514  13.503  0.0224 -0.1542 -0.1284
 2158DOPS   C4B25323  16.078  31.915  13.261 -0.3537 -0.1162 -0.2083
 2159POSM   NC325324  20.179  23.377  13.887 -0.1422 -0.2495 -0.0704
 2159POSM   PO425325  20.487  23.515  13.648  0.0125  0.0196  0.0211
 2159POSM   AM125326  20.655  23.674  13.400 -0.1090 -0.0042  0.2215
 2159POSM   AM225327  20.897  23.831  13.349  0.1694  0.3214  0.1558
 2159POSM   T1A25328  20.620  23.826  12.926 -0.1917 -0.0396  0.0948
 2159POSM   C2A25329  20.669  23.617  12.550 -0.3049 -0.1578  0.1532
 2159POSM   C3A25330  20.973  23.519  12.209 -0.1006 -0.1136  0.2107
 2159POSM   C1B25331  21.068  23.675  13.099 -0.1846  0.2505 -0.3486
 2159POSM   D2B25332  21.365  23.788  12.757 -0.0775 -0.3903 -0.1841
 2159POSM   C3B25333  21.577  24.210  12.584 -0.0528 -0.3560  0.0756
 2159POSM   C4B25334  21.605  24.610  12.524  0.0432  0.0635  0.1087
 2160DOPE   NH325335  16.814   2.217  13.974  0.1011  0.3258  0.0866
 2160DOPE   PO425336  17.088   2.162  13.863 -0.0827  0.1156  0.0948
 2160DOPE   GL125337  16.789   1.946  13.599 -0.0178  0.0633  0.4086
 2160DOPE   GL225338  16.683   2.235  13.451  0.0073  0.1242  0.1397
 2160DOPE   C1A25339  16.673   1.457  13.509  0.1163 -0.0883  0.0867
 2160DOPE   D2A25340  16.435   1.143  13.205 -0.0205  0.1211 -0.0530
 2160DOPE   C3A25341  16.240   1.261  12.796  0.3021  0.0871  0.0359
 2160DOPE   C4A25342  16.040   1.444  12.436  0.5795  0.4431  0.1749
 2160DOPE   C1B25343  16.620   1.933  13.108  0.1499 -0.3665 -0.0107
 2160DOPE   D2B25344  16.670   1.564  12.947 -0.1169  0.2555  0.1451
 2160DOPE   C3B25345  16.700   1.491  12.460 -0.2229  0.1927  0.0202
 2160DOPE   C4B25346  16.422   1.497  12.105 -0.0654  0.0392 -0.1587
 2161POSM   NC325347  18.207  24.570  13.175  0.1307 -0.0559  0.3391
 2161POSM   PO425348  18.171  24.264  12.931  0.0509 -0.2517  0.0788
 2161POSM   AM125349  18.134  24.247  12.597 -0.1238 -0.0228  0.1307
 2161POSM   AM225350  17.961  24.144  12.372  0.2497 -0.1759 -0.1537
 2161POSM   T1A25351  18.435  24.166  12.198 -0.3271 -0.3875 -0.1666
 2161POSM   C2A25352  18.303  24.031  11.748 -0.1605  0.2702 -0.1214
 2161POSM   C3A25353  18.196  23.690  11.358  0.0417 -0.1913 -0.0414
 2161POSM   C1B25354  17.894  24.150  12.023 -0.0578 -0.2966  0.0067
 2161POSM   D2B25355  17.845  24.102  11.536  0.1090 -0.0764  0.0020
 2161POSM   C3B25356  17.846  24.461  11.209 -0.0486  0.1667  0.0677
 2161POSM   C4B25357  18.191  24.837  11.278  0.0163  0.0368 -0.0299
 2162DOPS   CNO25358  18.631  28.877  15.246 -0.0766  0.1738  0.0293
 2162DOPS   PO425359  18.595  29.016  14.905  0.2683 -0.0601 -0.1021
 2162DOPS   GL125360  18.683  28.985  14.583  0.3709 -0.1410 -0.2002
 2162DOPS   GL225361  18.760  28.633  14.456  0.0923 -0.3243 -0.2090
 2162DOPS   C1A25362  18.360  29.040  14.237 -0.1126  0.0147 -0.0149
 2162DOPS   D2A25363  18.220  29.393  13.903 -0.2221 -0.0568  0.0815
 2162DOPS   C3A25364  18.574  29.333  13.658  0.5108 -0.1733 -0.1520
 2162DOPS   C4A25365  18.918  29.010  13.756  0.2845 -0.2716  0.2783
 2162DOPS   C1B25366  18.560  28.625  14.051  0.2959  0.0501 -0.0041
 2162DOPS   D2B25367  18.394  28.774  13.626  0.1666  0.1452  0.1026
 2162DOPS   C3B25368  18.684  28.958  13.296 -0.0353 -0.0931 -0.1580
 2162DOPS   C4B25369  18.914  29.336  13.218  0.1000 -0.3261  0.1468
 2163POSM   NC325370  21.664  29.771  14.209 -0.0198  0.0060 -0.2470
 2163POSM   PO425371  21.427  29.422  14.269  0.1079 -0.2083 -0.1084
 2163POSM   AM125372  21.419  29.400  13.941 -0.0496  0.2296  0.1753
 2163POSM   AM225373  21.350  29.637  13.804  0.1938 -0.2950 -0.1305
 2163POSM   T1A25374  21.168  29.234  13.542  0.1476 -0.0228 -0.1409
 2163POSM   C2A25375  21.108  28.940  13.200 -0.0513  0.1872 -0.2339
 2163POSM   C3A25376  21.209  28.847  12.796  0.0993 -0.1189  0.2472
 2163POSM   C1B25377  21.329  29.748  13.489 -0.0239 -0.0972  0.3210
 2163POSM   D2B25378  21.385  29.935  13.022 -0.2209  0.0639 -0.0475
 2163POSM   C3B25379  21.795  30.187  12.855 -0.3062  0.0756  0.0408
 2163POSM   C4B25380  21.996  30.325  12.530  0.1453 -0.1965 -0.0729
 2164POSM   NC325381  20.949  26.560  14.514 -0.1115 -0.1431  0.1067
 2164POSM   PO425382  20.780  26.897  14.335  0.1018 -0.0651 -0.0107
 2164POSM   AM125383  20.775  26.946  13.985  0.0018  0.0215  0.1443
 2164POSM   AM225384  20.944  26.964  13.791 -0.2430 -0.2869  0.1317
 2164POSM   T1A25385  20.621  26.796  13.519 -0.2025 -0.0464 -0.1013
 2164POSM   C2A25386  20.677  26.577  13.123  0.0554 -0.3179  0.3566
 2164POSM   C3A25387  20.896  26.689  12.699  0.1377  0.0667  0.1242
 2164POSM   C1B25388  21.251  27.033  13.582  0.2790  0.2589 -0.5863
 2164POSM   D2B25389  21.517  26.835  13.308 -0.0646  0.1065  0.1341
 2164POSM   C3B25390  21.356  26.928  12.847 -0.0010  0.2083  0.2492
 2164POSM   C4B25391  21.235  26.925  12.409 -0.0053  0.2159  0.0400
 2165POSM   NC325392  14.588  33.708  14.794  0.0110  0.0648  0.1303
 2165POSM   PO425393  14.234  33.632  14.672  0.3085  0.1443 -0.2317
 2165POSM   AM125394  14.201  33.555  14.340 -0.2775  0.2271  0.2049
 2165POSM   AM225395  13.993  33.445  14.186  0.2309  0.3908 -0.2122
 2165POSM   T1A25396  14.371  33.208  14.009  0.1624 -0.0945 -0.3784
 2165POSM   C2A25397  14.365  32.746  13.805 -0.1477 -0.0484  0.0739
 2165POSM   C3A25398  14.162  32.333  13.824 -0.2419  0.3268 -0.1273
 2165POSM   C1B25399  13.913  33.364  13.877  0.1813 -0.0001  0.1653
 2165POSM   D2B25400  13.641  33.100  13.488  0.2283 -0.0594  0.0887
 2165POSM   C3B25401  13.603  33.200  13.015 -0.4164 -0.1540 -0.2218
 2165POSM   C4B25402  13.431  33.109  12.620 -0.0298  0.1707 -0.3083
 2166DOPE   NH325403  22.431  32.943  15.399  0.0360  0.2071  0.2133
 2166DOPE   PO425404  22.749  32.863  15.443 -0.5009  0.1371  0.1148
 2166DOPE   GL125405  22.721  32.762  15.048  0.1578  0.2194 -0.1848
 2166DOPE   GL225406  22.719  33.043  14.918  0.1553 -0.1247 -0.0118
 2166DOPE   C1A25407  22.841  32.596  14.618  0.2128 -0.0178  0.1473
 2166DOPE   D2A25408  22.709  32.651  14.187  0.2007  0.0697  0.0738
 2166DOPE   C3A25409  22.818  32.504  13.756 -0.0269  0.3173 -0.1543
 2166DOPE   C4A25410  23.016  32.348  13.359  0.0928  0.1904 -0.1865
 2166DOPE   C1B25411  22.858  33.075  14.507  0.3217  0.1841  0.0401
 2166DOPE   D2B25412  22.900  33.148  14.041 -0.0927  0.2965  0.0300
 2166DOPE   C3B25413  23.068  32.919  13.661  0.1178  0.3997 -0.2410
 2166DOPE   C4B25414  23.230  32.963  13.220 -0.2755 -0.0386 -0.1085
 2167DOPE   NH325415  16.272  28.616  14.676  0.1360 -0.0011  0.1253
 2167DOPE   PO425416  16.129  28.889  14.687 -0.2517 -0.2550 -0.0921
 2167DOPE   GL125417  16.264  28.837  14.228 -0.2312  0.1226 -0.1385
 2167DOPE   GL225418  16.059  29.043  14.040 -0.1544 -0.2344  0.0553
 2167DOPE   C1A25419  16.230  28.574  13.882 -0.0471  0.1572  0.5184
 2167DOPE   D2A25420  16.387  28.448  13.429  0.0521 -0.1605 -0.4332
 2167DOPE   C3A25421  16.510  28.598  12.993  0.2692 -0.0504  0.0068
 2167DOPE   C4A25422  16.211  28.441  12.703 -0.0760 -0.0322  0.3119
 2167DOPE   C1B25423  15.669  28.862  13.900  0.2522  0.0795 -0.3152
 2167DOPE   D2B25424  15.283  28.934  13.680  0.2651  0.0826  0.2909
 2167DOPE   C3B25425  15.247  28.951  13.242  0.2739 -0.3575  0.0701
 2167DOPE   C4B25426  14.955  28.645  13.065  0.1833  0.2541  0.1446
 2168DOPS   CNO25427  23.124  23.345  14.624  0.3612 -0.1159 -0.0095
 2168DOPS   PO425428  22.905  23.546  14.441  0.3288 -0.1928 -0.1498
 2168DOPS   GL125429  23.166  23.854  14.187  0.1473 -0.0265  0.0764
 2168DOPS   GL225430  23.310  24.176  14.065 -0.1298  0.1282 -0.2087
 2168DOPS   C1A25431  22.978  23.983  13.776  0.1075 -0.1589  0.2705
 2168DOPS   D2A25432  22.862  24.386  13.551  0.2158 -0.2337 -0.2691
 2168DOPS   C3A25433  22.981  24.462  13.144 -0.1604  0.0747  0.0258
 2168DOPS   C4A25434  23.115  24.417  12.717 -0.1667  0.3452  0.0954
 2168DOPS   C1B25435  23.511  24.102  13.674 -0.0717  0.2396  0.0155
 2168DOPS   D2B25436  23.809  24.336  13.484 -0.0979 -0.1667 -0.0889
 2168DOPS   C3B25437  24.115  24.183  13.212 -0.2605  0.1266  0.2311
 2168DOPS   C4B25438  24.438  24.324  13.000 -0.1088 -0.0118  0.2463
 2169DOPS   CNO25439  10.861  26.941  13.740 -0.0219 -0.0006 -0.0979
 2169DOPS   PO425440  10.634  27.240  13.812  0.0493 -0.1627 -0.0062
 2169DOPS   GL125441  10.634  27.336  13.428 -0.2684 -0.2896 -0.0070
 2169DOPS   GL225442  10.720  27.109  13.209 -0.3527 -0.0856  0.1682
 2169DOPS   C1A25443  10.671  27.789  13.242  0.1614 -0.3002  0.3070
 2169DOPS   D2A25444  10.843  28.144  13.051  0.3017 -0.1311 -0.3130
 2169DOPS   C3A25445  10.696  28.552  12.964 -0.2872  0.0541 -0.1259
 2169DOPS   C4A25446  10.796  28.994  13.122 -0.0202 -0.1401 -0.1478
 2169DOPS   C1B25447  10.945  27.344  12.847 -0.0195 -0.0432 -0.0806
 2169DOPS   D2B25448  11.079  27.777  12.691  0.0502 -0.1092 -0.1508
 2169DOPS   C3B25449  10.888  28.055  12.431  0.0242 -0.4550  0.0189
 2169DOPS   C4B25450  10.531  28.421  12.539  0.1887 -0.0940  0.2364
 2170DOPE   NH325451  14.783  31.765  14.710  0.0040  0.0663  0.1232
 2170DOPE   PO425452  14.523  31.944  14.628  0.0046  0.1171 -0.0248
 2170DOPE   GL125453  14.328  31.856  14.248 -0.4040 -0.1206  0.4345
 2170DOPE   GL225454  14.553  31.604  14.206 -0.1009  0.0751 -0.1906
 2170DOPE   C1A25455  14.385  31.793  13.768  0.1595  0.4691  0.3420
 2170DOPE   D2A25456  14.124  31.914  13.406 -0.2147  0.1902  0.1931
 2170DOPE   C3A25457  14.259  32.187  13.098  0.1565  0.1141 -0.1207
 2170DOPE   C4A25458  14.425  32.191  12.698 -0.0397  0.2945 -0.1952
 2170DOPE   C1B25459  14.854  31.577  13.862  0.0392 -0.2704  0.0032
 2170DOPE   D2B25460  15.273  31.581  13.819 -0.2172  0.0989  0.0174
 2170DOPE   C3B25461  15.603  31.706  13.518  0.0071 -0.0895 -0.0462
 2170DOPE   C4B25462  15.701  31.679  13.109 -0.2359 -0.0105 -0.0372
 2171DOPC   NC325463  15.692  32.794  14.937  0.0438  0.0197 -0.0129
 2171DOPC   PO425464  15.535  32.901  14.586  0.1507 -0.0551  0.1550
 2171DOPC   GL125465  15.389  32.703  14.269 -0.1897 -0.0066 -0.1034
 2171DOPC   GL225466  15.246  32.413  14.179 -0.0745 -0.1025  0.1086
 2171DOPC   C1A25467  15.110  32.693  13.834  0.0938  0.1100 -0.0740
 2171DOPC   D2A25468  15.022  32.616  13.387  0.3442  0.0139  0.1383
 2171DOPC   C3A25469  15.051  32.842  12.942 -0.2196  0.2401 -0.4477
 2171DOPC   C4A25470  14.890  33.089  12.567  0.0481 -0.2816  0.1111
 2171DOPC   C1B25471  15.118  32.169  13.860  0.0634  0.2175  0.1435
 2171DOPC   D2B25472  15.223  32.027  13.489 -0.0970  0.1089  0.1249
 2171DOPC   C3B25473  15.127  31.617  13.312 -0.0533  0.1525  0.0740
 2171DOPC   C4B25474  14.872  31.442  12.976  0.3105  0.0847  0.1361
 2172DOPE   NH325475  16.507  34.534  14.482 -0.0772  0.0374 -0.0451
 2172DOPE   PO425476  16.523  34.248  14.313  0.1405  0.1559 -0.1445
 2172DOPE   GL125477  16.431  34.083  13.919  0.3892 -0.0396  0.2549
 2172DOPE   GL225478  16.594  34.238  13.779 -0.1728  0.0075 -0.0721
 2172DOPE   C1A25479  16.503  33.647  13.686 -0.1906 -0.1663  0.0045
 2172DOPE   D2A25480  16.384  33.260  13.460 -0.1490 -0.3546 -0.3986
 2172DOPE   C3A25481  16.292  33.276  13.030  0.2188  0.1228  0.3023
 2172DOPE   C4A25482  16.217  33.204  12.600 -0.0532 -0.0787 -0.1141
 2172DOPE   C1B25483  16.733  34.146  13.286  0.2012  0.1302 -0.2396
 2172DOPE   D2B25484  16.754  33.949  12.872 -0.0756 -0.1876 -0.1555
 2172DOPE   C3B25485  17.111  33.652  12.785 -0.1065  0.2451 -0.2359
 2172DOPE   C4B25486  17.518  33.570  12.593  0.1095  0.1118 -0.2987
 2173DOPC   NC325487  11.664  27.285  13.372  0.0394 -0.1596  0.0458
 2173DOPC   PO425488  12.071  27.351  13.328  0.1496 -0.1892  0.2077
 2173DOPC   GL125489  12.237  27.330  12.940 -0.1990 -0.0349 -0.0431
 2173DOPC   GL225490  12.451  27.162  13.006  0.0057  0.2109  0.1645
 2173DOPC   C1A25491  12.483  27.590  12.611 -0.2744 -0.2989  0.2999
 2173DOPC   D2A25492  12.797  27.845  12.332 -0.1779 -0.1588 -0.0730
 2173DOPC   C3A25493  12.791  27.917  11.839  0.0889 -0.2975 -0.0318
 2173DOPC   C4A25494  12.731  27.961  11.429  0.3044  0.1118  0.0328
 2173DOPC   C1B25495  12.324  27.095  12.520 -0.1320 -0.0810  0.0082
 2173DOPC   D2B25496  11.881  27.365  12.481  0.0969 -0.0244 -0.1913
 2173DOPC   C3B25497  11.899  27.791  12.298 -0.0620  0.0987  0.0562
 2173DOPC   C4B25498  11.857  27.942  11.873 -0.1670 -0.1036  0.1815
 2174DOPE   NH325499  20.215  27.647  14.409  0.0949  0.3409  0.3558
 2174DOPE   PO425500  19.937  27.872  14.446 -0.1021  0.1487 -0.0286
 2174DOPE   GL125501  20.086  28.007  14.077  0.0171  0.3744  0.1067
 2174DOPE   GL225502  19.858  28.053  13.933  0.1262 -0.0069  0.0638
 2174DOPE   C1A25503  20.287  28.130  13.664 -0.1644 -0.2505 -0.4823
 2174DOPE   D2A25504  20.546  28.417  13.418 -0.2717 -0.0855  0.2453
 2174DOPE   C3A25505  20.717  28.623  13.073 -0.2229  0.0401  0.2677
 2174DOPE   C4A25506  20.740  28.909  12.695  0.0498  0.0585  0.2980
 2174DOPE   C1B25507  19.843  27.912  13.484  0.1962  0.2359  0.2279
 2174DOPE   D2B25508  19.598  27.770  13.132 -0.0917  0.3337 -0.1454
 2174DOPE   C3B25509  19.743  28.055  12.830 -0.0260 -0.4112  0.0654
 2174DOPE   C4B25510  19.954  28.250  12.449  0.0239 -0.0918  0.0210
 2175DOPE   NH325511  20.769  32.099  14.879 -0.2344 -0.0227  0.1394
 2175DOPE   PO425512  20.525  32.041  15.023 -0.0479  0.0834 -0.3035
 2175DOPE   GL125513  20.335  32.203  14.672  0.0764  0.0837 -0.0621
 2175DOPE   GL225514  20.050  32.305  14.577  0.0921  0.0169 -0.1207
 2175DOPE   C1A25515  20.668  32.248  14.378 -0.1829 -0.0424  0.0777
 2175DOPE   D2A25516  20.953  32.371  14.031  0.4150  0.1110  0.3663
 2175DOPE   C3A25517  21.399  32.450  13.867 -0.0740 -0.1411 -0.2488
 2175DOPE   C4A25518  21.828  32.324  13.833  0.0664  0.0933  0.0435
 2175DOPE   C1B25519  20.242  32.357  14.149 -0.0686  0.1559 -0.0372
 2175DOPE   D2B25520  20.506  32.332  13.744 -0.2301  0.1487  0.0784
 2175DOPE   C3B25521  20.504  32.079  13.368 -0.3103  0.1320 -0.1471
 2175DOPE   C4B25522  20.524  31.862  12.894  0.1072  0.1897 -0.3149
 2176DOPC   NC325523  15.030  26.399  13.681 -0.2563  0.0969 -0.0532
 2176DOPC   PO425524  15.121  26.292  13.334 -0.1604  0.0388 -0.1299
 2176DOPC   GL125525  15.336  26.285  13.002 -0.2999  0.2574 -0.0858
 2176DOPC   GL225526  15.212  26.081  12.896  0.2389  0.0062 -0.0345
 2176DOPC   C1A25527  15.300  26.423  12.555 -0.0201 -0.3026  0.1561
 2176DOPC   D2A25528  14.990  26.685  12.356  0.2059  0.0554  0.2319
 2176DOPC   C3A25529  14.814  26.901  12.021 -0.1663  0.0452  0.1985
 2176DOPC   C4A25530  14.688  26.807  11.582  0.0487  0.0409  0.0031
 2176DOPC   C1B25531  15.338  25.909  12.456  0.1111  0.0510 -0.0517
 2176DOPC   D2B25532  15.500  25.767  11.946  0.1914  0.1051  0.0790
 2176DOPC   C3B25533  15.340  25.973  11.542  0.0360 -0.0850 -0.0935
 2176DOPC   C4B25534  14.936  25.933  11.290 -0.0531 -0.2871 -0.1759
 2177DOPC   NC325535  23.468  28.375  14.526 -0.0194  0.0084  0.0209
 2177DOPC   PO425536  23.791  28.281  14.699 -0.0683  0.2568 -0.1292
 2177DOPC   GL125537  24.070  28.101  14.565  0.1092  0.0280  0.0905
 2177DOPC   GL225538  24.352  28.242  14.603 -0.0475  0.0177  0.0481
 2177DOPC   C1A25539  24.263  27.997  14.136  0.0649 -0.1349 -0.3415
 2177DOPC   D2A25540  24.270  28.089  13.705  0.1906 -0.0061  0.2640
 2177DOPC   C3A25541  24.105  28.294  13.296 -0.0641  0.0816 -0.0422
 2177DOPC   C4A25542  24.302  28.338  12.845 -0.1151  0.0046 -0.0679
 2177DOPC   C1B25543  24.724  27.982  14.497 -0.0661 -0.0265  0.1726
 2177DOPC   D2B25544  24.940  27.806  14.138 -0.3172  0.1374  0.0365
 2177DOPC   C3B25545  25.333  27.975  13.949 -0.1359  0.0812 -0.2004
 2177DOPC   C4B25546  25.274  28.220  13.572 -0.2607 -0.0537  0.2510
 2178DOPE   NH325547  19.920  24.223  13.517  0.1224  0.2501 -0.3887
 2178DOPE   PO425548  19.932  24.199  13.203 -0.1356  0.0896 -0.0077
 2178DOPE   GL125549  20.212  24.203  12.867 -0.2382  0.1611 -0.1088
 2178DOPE   GL225550  20.192  23.901  12.743  0.0692 -0.0437  0.4031
 2178DOPE   C1A25551  20.472  24.241  12.461  0.0337  0.2026  0.0582
 2178DOPE   D2A25552  20.588  23.880  12.088 -0.2925 -0.0705  0.1279
 2178DOPE   C3A25553  20.988  23.897  11.860 -0.1283  0.0705 -0.3133
 2178DOPE   C4A25554  21.470  23.710  11.694  0.1114 -0.1328 -0.2722
 2178DOPE   C1B25555  20.200  23.702  12.291 -0.1114  0.0586 -0.1173
 2178DOPE   D2B25556  20.045  23.640  11.854  0.2944  0.2512 -0.0247
 2178DOPE   C3B25557  20.286  23.950  11.698  0.2776  0.1127 -0.1795
 2178DOPE   C4B25558  20.271  24.367  11.570 -0.2869 -0.5217 -0.1353
 2179DOPE   NH325559  20.965  30.368  14.442 -0.0020  0.1852 -0.1794
 2179DOPE   PO425560  21.120  30.601  14.384 -0.2607 -0.1333  0.2841
 2179DOPE   GL125561  21.167  30.651  14.046  0.2838 -0.0017 -0.0373
 2179DOPE   GL225562  21.075  30.754  13.767  0.0706  0.1424 -0.0353
 2179DOPE   C1A25563  21.514  30.578  13.772  0.0642 -0.0767  0.2014
 2179DOPE   D2A25564  21.507  30.527  13.272 -0.2873  0.0098 -0.7128
 2179DOPE   C3A25565  21.640  30.784  12.956  0.3112 -0.0650  0.1192
 2179DOPE   C4A25566  21.638  31.168  12.741 -0.0629  0.0541 -0.3527
 2179DOPE   C1B25567  21.057  30.793  13.324 -0.1744 -0.1328  0.2186
 2179DOPE   D2B25568  21.063  30.876  12.871 -0.1007 -0.1045  0.2512
 2179DOPE   C3B25569  20.672  30.902  12.782  0.0592  0.0226 -0.2909
 2179DOPE   C4B25570  20.248  30.960  12.784  0.1652 -0.0149 -0.1740
 2180DOPS   CNO25571  14.832  27.183  13.635 -0.3924 -0.0414 -0.0983
 2180DOPS   PO425572  14.889  26.850  13.771 -0.2182  0.0037 -0.1273
 2180DOPS   GL125573  15.303  26.810  13.605  0.0748  0.0555  0.1438
 2180DOPS   GL225574  15.416  26.770  13.384  0.1523 -0.1533  0.1229
 2180DOPS   C1A25575  15.303  27.273  13.374 -0.1051  0.0925  0.0334
 2180DOPS   D2A25576  15.016  27.646  13.241  0.3919 -0.3039  0.1054
 2180DOPS   C3A25577  14.828  27.676  12.832  0.0539 -0.0290 -0.2409
 2180DOPS   C4A25578  14.729  27.380  12.466 -0.0161  0.2093  0.0648
 2180DOPS   C1B25579  15.487  26.684  12.921 -0.0014 -0.2753 -0.1239
 2180DOPS   D2B25580  15.600  26.943  12.503  0.0645 -0.1471 -0.0545
 2180DOPS   C3B25581  15.545  26.703  12.122  0.1424  0.0643 -0.0936
 2180DOPS   C4B25582  15.569  26.241  12.125  0.3142  0.0416 -0.1225
 2181POSM   NC325583  16.158  33.815  14.735 -0.1634 -0.4161 -0.1364
 2181POSM   PO425584  15.834  34.022  14.710 -0.0982 -0.1582  0.1031
 2181POSM   AM125585  15.781  33.798  14.490 -0.3882  0.0728 -0.0605
 2181POSM   AM225586  15.582  33.695  14.301 -0.0258 -0.3863 -0.1257
 2181POSM   T1A25587  15.981  33.375  14.335 -0.0202  0.1792  0.1581
 2181POSM   C2A25588  15.991  32.903  14.247  0.0055 -0.2132 -0.3958
 2181POSM   C3A25589  15.769  32.585  14.026  0.2174  0.0785 -0.3448
 2181POSM   C1B25590  15.611  33.527  14.020  0.0907  0.0973  0.2804
 2181POSM   D2B25591  15.662  33.592  13.587 -0.1771  0.0509 -0.1736
 2181POSM   C3B25592  15.996  33.589  13.247  0.4807 -0.1858  0.1883
 2181POSM   C4B25593  16.389  33.793  13.098  0.0341  0.1082 -0.1675
 2182DOPC   NC325594  14.563  30.514  14.798 -0.1397  0.0072 -0.2466
 2182DOPC   PO425595  14.551  30.193  14.534  0.2590  0.0724 -0.0714
 2182DOPC   GL125596  14.419  30.056  14.166 -0.0523  0.2929  0.1935
 2182DOPC   GL225597  14.603  30.032  14.014  0.3232 -0.1435  0.1176
 2182DOPC   C1A25598  14.244  29.691  13.931 -0.0960  0.0537 -0.0623
 2182DOPC   D2A25599  13.906  29.447  13.818  0.0352  0.0853 -0.4733
 2182DOPC   C3A25600  13.708  29.476  13.399 -0.0661  0.0514  0.2354
 2182DOPC   C4A25601  13.433  29.511  13.062 -0.1251  0.2224  0.1340
 2182DOPC   C1B25602  14.513  29.910  13.574 -0.2795 -0.1454  0.1999
 2182DOPC   D2B25603  14.800  29.691  13.306 -0.1682  0.0090 -0.1065
 2182DOPC   C3B25604  14.770  29.680  12.849  0.2025  0.0945  0.2320
 2182DOPC   C4B25605  15.087  29.893  12.593 -0.3157 -0.1912 -0.1496
 2183DOPC   NC325606  14.092  27.774  13.624  0.0820 -0.0488 -0.2416
 2183DOPC   PO425607  14.424  28.004  13.767  0.2615 -0.1718  0.3773
 2183DOPC   GL125608  14.513  28.144  13.366 -0.0069  0.1932 -0.0920
 2183DOPC   GL225609  14.280  28.176  13.205  0.0039 -0.1788  0.0870
 2183DOPC   C1A25610  14.639  28.192  12.922 -0.0407 -0.0068 -0.0541
 2183DOPC   D2A25611  14.569  28.068  12.503 -0.2995 -0.1941 -0.0742
 2183DOPC   C3A25612  14.892  27.893  12.309 -0.1014 -0.0642  0.0522
 2183DOPC   C4A25613  14.918  27.554  12.020 -0.1155 -0.2432 -0.2597
 2183DOPC   C1B25614  14.161  28.090  12.799 -0.0468 -0.0303 -0.2114
 2183DOPC   D2B25615  13.975  27.990  12.412 -0.2920 -0.3754  0.1811
 2183DOPC   C3B25616  14.224  28.238  12.131  0.0219 -0.0942  0.1605
 2183DOPC   C4B25617  14.279  28.305  11.669 -0.1765 -0.1176 -0.2729
 2184DOPS   CNO25618  17.418  24.085  12.310  0.1362 -0.2094  0.0484
 2184DOPS   PO425619  17.276  23.773  12.488 -0.2025  0.2066 -0.1434
 2184DOPS   GL125620  17.307  23.672  12.093  0.2618 -0.1887 -0.0848
 2184DOPS   GL225621  17.035  23.826  12.009 -0.0602 -0.2251 -0.1234
 2184DOPS   C1A25622  17.436  23.988  11.788  0.1374  0.2124  0.1922
 2184DOPS   D2A25623  17.126  24.296  11.585  0.0992  0.3514  0.1282
 2184DOPS   C3A25624  16.994  24.434  11.127  0.1749 -0.0507  0.2669
 2184DOPS   C4A25625  17.010  24.737  10.706  0.2377 -0.0301 -0.1530
 2184DOPS   C1B25626  17.046  23.512  11.649  0.0125 -0.0141  0.0479
 2184DOPS   D2B25627  17.290  23.367  11.242 -0.3160 -0.2732 -0.1488
 2184DOPS   C3B25628  17.364  22.909  11.377  0.0525  0.1483  0.3634
 2184DOPS   C4B25629  17.295  22.455  11.358  0.3291  0.0593 -0.1447
 2185DOPC   NC325630  22.887  34.330  15.314  0.1181  0.0051  0.0391
 2185DOPC   PO425631  23.095  34.626  15.266 -0.1276  0.0189 -0.1015
 2185DOPC   GL125632  23.006  34.592  14.847 -0.2827  0.4012 -0.1437
 2185DOPC   GL225633  22.770  34.526  14.789 -0.0392  0.0914  0.2534
 2185DOPC   C1A25634  23.246  34.752  14.487  0.0299 -0.0308 -0.4927
 2185DOPC   D2A25635  23.466  34.808  14.059 -0.2430  0.2810  0.3278
 2185DOPC   C3A25636  23.285  34.884  13.629  0.2233 -0.1834  0.3473
 2185DOPC   C4A25637  22.924  35.039  13.383  0.0776  0.4296 -0.0677
 2185DOPC   C1B25638  22.859  34.444  14.341 -0.1050  0.0338 -0.2452
 2185DOPC   D2B25639  23.245  34.307  14.201 -0.1603  0.2790 -0.2592
 2185DOPC   C3B25640  23.216  34.392  13.797  0.1604  0.0899 -0.0306
 2185DOPC   C4B25641  23.490  34.333  13.402 -0.0638  0.0676 -0.2609
 2186POSM   NC325642  22.144  26.503  14.427  0.0347  0.0753 -0.4103
 2186POSM   PO425643  21.932  26.188  14.462 -0.1199  0.1429 -0.2921
 2186POSM   AM125644  21.811  26.309  14.165  0.2019  0.1887 -0.0749
 2186POSM   AM225645  21.854  26.540  14.020 -0.0373  0.2782 -0.0149
 2186POSM   T1A25646  21.550  26.175  13.759  0.2392  0.1200 -0.0563
 2186POSM   C2A25647  21.268  26.109  13.397 -0.0645  0.0623  0.0922
 2186POSM   C3A25648  21.147  26.391  13.077  0.0436 -0.0200 -0.0207
 2186POSM   C1B25649  21.930  26.477  13.738  0.0346  0.0579  0.1774
 2186POSM   D2B25650  21.951  26.492  13.271 -0.3674 -0.0102 -0.0900
 2186POSM   C3B25651  22.275  26.837  13.416 -0.2887  0.2731 -0.0804
 2186POSM   C4B25652  22.508  27.209  13.511  0.1342 -0.2043  0.1889
 2187DOPC   NC325653  18.578  24.065  12.726 -0.0815 -0.3457 -0.0120
 2187DOPC   PO425654  18.928  23.915  12.925 -0.0393  0.0330 -0.1344
 2187DOPC   GL125655  18.965  24.027  12.519 -0.3612 -0.4351  0.3226
 2187DOPC   GL225656  19.259  24.079  12.547 -0.3034  0.1418 -0.0129
 2187DOPC   C1A25657  18.807  23.857  12.123  0.1015  0.3594 -0.2194
 2187DOPC   D2A25658  18.674  23.638  11.735  0.1485  0.1798  0.2543
 2187DOPC   C3A25659  18.271  23.414  11.816 -0.0320  0.2704 -0.0073
 2187DOPC   C4A25660  17.924  23.228  12.006  0.2862 -0.0922  0.1657
 2187DOPC   C1B25661  19.312  24.023  12.108  0.2031 -0.0145 -0.1803
 2187DOPC   D2B25662  19.070  23.979  11.656  0.1151 -0.1084 -0.1157
 2187DOPC   C3B25663  18.721  24.075  11.373  0.0058 -0.6029 -0.0631
 2187DOPC   C4B25664  18.518  24.068  10.927 -0.2238  0.2244  0.1036
 2188DOPC   NC325665  23.716  25.836  15.109 -0.0642  0.0874 -0.4441
 2188DOPC   PO425666  23.722  26.200  14.987 -0.0746  0.2446  0.1071
 2188DOPC   GL125667  23.857  26.103  14.624  0.0643  0.2065  0.0428
 2188DOPC   GL225668  23.864  26.377  14.467  0.0180  0.0154  0.1674
 2188DOPC   C1A25669  23.721  26.025  14.177 -0.0192  0.0189  0.0418
 2188DOPC   D2A25670  23.254  26.061  14.068 -0.0959 -0.3860  0.4099
 2188DOPC   C3A25671  23.282  26.000  13.599  0.2381  0.3418  0.1269
 2188DOPC   C4A25672  23.142  25.749  13.190  0.3456 -0.0846  0.0085
 2188DOPC   C1B25673  24.017  26.351  14.006  0.0952 -0.1796 -0.2065
 2188DOPC   D2B25674  23.867  26.030  13.699 -0.3620 -0.0412 -0.0044
 2188DOPC   C3B25675  23.766  25.613  13.604 -0.0589 -0.1586 -0.2149
 2188DOPC   C4B25676  24.020  25.279  13.757 -0.0324 -0.1767  0.1837
 2189DOPE   NH325677  20.213  21.506  12.795 -0.1985  0.2552 -0.0341
 2189DOPE   PO425678  20.369  21.798  12.873 -0.0380 -0.2429  0.1860
 2189DOPE   GL125679  20.460  21.848  12.419 -0.2640  0.3326  0.0695
 2189DOPE   GL225680  20.724  22.036  12.362  0.0574  0.2078  0.0401
 2189DOPE   C1A25681  20.634  21.624  12.026  0.2118 -0.2482 -0.1126
 2189DOPE   D2A25682  20.883  21.385  11.689  0.1917 -0.0802  0.3525
 2189DOPE   C3A25683  20.771  21.836  11.550 -0.2110  0.2179  0.0035
 2189DOPE   C4A25684  20.537  22.164  11.786 -0.1168 -0.0560 -0.1901
 2189DOPE   C1B25685  21.063  22.037  12.050 -0.2960 -0.2369  0.2701
 2189DOPE   D2B25686  21.331  21.728  11.859 -0.0494  0.0107 -0.0435
 2189DOPE   C3B25687  21.254  21.559  11.445  0.0265  0.2790 -0.0822
 2189DOPE   C4B25688  21.086  21.661  11.046 -0.1920  0.0100  0.0737
 2190POSM   NC325689  24.975  25.528  15.299  0.0831 -0.0795 -0.1231
 2190POSM   PO425690  24.738  25.552  14.997  0.0259  0.2527 -0.2318
 2190POSM   AM125691  24.807  25.350  14.779  0.0155  0.3888 -0.1257
 2190POSM   AM225692  24.616  25.160  14.667  0.0976 -0.1606  0.2150
 2190POSM   T1A25693  25.292  25.329  14.572  0.2820  0.2555  0.1165
 2190POSM   C2A25694  25.505  25.427  14.147  0.1513 -0.0807  0.0712
 2190POSM   C3A25695  25.756  25.647  13.935 -0.2811  0.0452  0.3979
 2190POSM   C1B25696  24.869  25.108  14.389 -0.0554 -0.1583  0.1299
 2190POSM   D2B25697  24.891  24.843  14.019 -0.1180 -0.4271  0.1130
 2190POSM   C3B25698  24.990  24.925  13.569 -0.0307 -0.0351  0.1028
 2190POSM   C4B25699  24.935  25.149  13.148  0.0571  0.0886  0.0860
 2191POSM   NC325700  14.050  31.593  14.593 -0.0004  0.1187  0.0157
 2191POSM   PO425701  13.671  31.686  14.497  0.0852  0.1752  0.1902
 2191POSM   AM125702  13.751  31.566  14.213  0.2636  0.0382  0.0327
 2191POSM   AM225703  13.885  31.628  13.945 -0.0567  0.0523 -0.1435
 2191POSM   T1A25704  13.561  31.204  13.918 -0.2305 -0.0074  0.0388
 2191POSM   C2A25705  13.267  30.907  13.803  0.0050 -0.2282  0.0438
 2191POSM   C3A25706  13.086  30.503  13.871  0.0779 -0.1120 -0.2697
 2191POSM   C1B25707  13.865  31.510  13.667 -0.1147 -0.3021 -0.0206
 2191POSM   D2B25708  14.053  31.437  13.225  0.0164  0.0256 -0.0127
 2191POSM   C3B25709  14.439  31.230  13.090  0.0723  0.2113 -0.2158
 2191POSM   C4B25710  14.686  30.999  12.793  0.1629 -0.0769  0.1501
 2192DOPE   NH325711  13.870  26.881  13.492 -0.0994 -0.1986  0.2149
 2192DOPE   PO425712  13.995  26.680  13.298  0.1024  0.1342  0.0350
 2192DOPE   GL125713  13.957  26.632  12.871 -0.1181  0.1616 -0.0984
 2192DOPE   GL225714  13.880  26.910  12.778 -0.2915  0.0233 -0.1768
 2192DOPE   C1A25715  14.180  26.480  12.503  0.2575 -0.2735  0.3908
 2192DOPE   D2A25716  14.506  26.529  12.253 -0.0152  0.1465 -0.1642
 2192DOPE   C3A25717  14.681  26.335  11.849  0.1460 -0.1339 -0.3012
 2192DOPE   C4A25718  14.489  25.954  11.644 -0.0110 -0.3228 -0.0368
 2192DOPE   C1B25719  14.210  27.201  12.835 -0.0275 -0.0326 -0.3032
 2192DOPE   D2B25720  14.306  27.640  12.658 -0.2026 -0.2477  0.4771
 2192DOPE   C3B25721  14.260  27.649  12.225 -0.3494  0.1392  0.0424
 2192DOPE   C4B25722  14.521  27.340  11.967  0.1537  0.1985 -0.1488
 2193POSM   NC325723  12.502  24.621  13.062  0.0368 -0.2612 -0.1848
 2193POSM   PO425724  12.547  24.327  12.783  0.2504  0.1858 -0.1601
 2193POSM   AM125725  12.640  24.567  12.601  0.1228  0.4527  0.2593
 2193POSM   AM225726  12.722  24.849  12.683  0.1131 -0.1662 -0.0439
 2193POSM   T1A25727  12.749  24.699  12.140  0.0217  0.0573 -0.0291
 2193POSM   C2A25728  13.034  24.887  11.838 -0.0132  0.0574 -0.0502
 2193POSM   C3A25729  13.420  24.788  11.863 -0.0149 -0.0981  0.0160
 2193POSM   C1B25730  12.985  25.008  12.482 -0.0684  0.3678 -0.0344
 2193POSM   D2B25731  13.228  25.294  12.164 -0.0334 -0.2432 -0.4024
 2193POSM   C3B25732  13.626  25.527  12.330 -0.1118 -0.0687 -0.1490
 2193POSM   C4B25733  14.043  25.611  12.324 -0.1307  0.0559 -0.1368
 2194DOPE   NH325734  16.595   0.077  14.028  0.2796  0.2311 -0.3764
 2194DOPE   PO425735  16.337  -0.096  13.977 -0.3570  0.0366  0.1105
 2194DOPE   GL125736  16.361  -0.192  13.640  0.0124 -0.1578  0.2329
 2194DOPE   GL225737  16.083  -0.149  13.574  0.1096  0.0342 -0.3086
 2194DOPE   C1A25738  16.443  -0.195  13.181 -0.0395 -0.1393 -0.2465
 2194DOPE   D2A25739  16.566  -0.383  12.785  0.1102 -0.2816 -0.0236
 2194DOPE   C3A25740  16.326  -0.670  12.593 -0.3067 -0.0349  0.0713
 2194DOPE   C4A25741  16.370  -1.128  12.592  0.0684  0.0908 -0.0574
 2194DOPE   C1B25742  15.777  -0.298  13.301  0.0451  0.1320 -0.1478
 2194DOPE   D2B25743  15.513  -0.493  12.962  0.4814 -0.0757  0.3834
 2194DOPE   C3B25744  15.410  -0.141  12.600 -0.0134 -0.0488 -0.0335
 2194DOPE   C4B25745  15.417   0.076  12.198 -0.0162 -0.0285  0.3137
 2195POSM   NC325746  11.068  27.907  14.613  0.0861  0.2425  0.3168
 2195POSM   PO425747  10.910  28.005  14.285  0.1052  0.1976 -0.2455
 2195POSM   AM125748  10.888  27.972  13.975  0.0046 -0.1288  0.3566
 2195POSM   AM225749  10.897  28.087  13.726  0.0098 -0.2335  0.0677
 2195POSM   T1A25750  10.481  27.862  13.692  0.2084 -0.0670  0.1964
 2195POSM   C2A25751  10.073  27.683  13.638 -0.2955  0.0477  0.3054
 2195POSM   C3A25752   9.776  27.540  13.354 -0.1472 -0.2908  0.1622
 2195POSM   C1B25753  10.917  28.358  13.442 -0.1407 -0.1438 -0.1194
 2195POSM   D2B25754  11.163  28.553  13.171  0.1585  0.1817  0.1569
 2195POSM   C3B25755  11.169  28.437  12.685  0.1790  0.0617 -0.3086
 2195POSM   C4B25756  11.395  28.687  12.367  0.3417  0.1990  0.2421
 2196DOPS   CNO25757  25.540  27.860  15.770 -0.2851 -0.1281  0.0335
 2196DOPS   PO425758  25.755  27.586  15.636  0.1096 -0.1807  0.1304
 2196DOPS   GL125759  25.589  27.524  15.290  0.2976  0.3146  0.2463
 2196DOPS   GL225760  25.827  27.297  15.219  0.1571 -0.0231  0.0794
 2196DOPS   C1A25761  25.264  27.298  14.993  0.3421 -0.0004 -0.2232
 2196DOPS   D2A25762  24.825  27.144  14.786 -0.0457 -0.2122 -0.0394
 2196DOPS   C3A25763  24.766  27.022  14.348  0.3153  0.0463  0.3426
 2196DOPS   C4A25764  24.796  27.205  13.953  0.2854  0.2197 -0.2989
 2196DOPS   C1B25765  25.673  27.011  14.879  0.3341 -0.0546 -0.0627
 2196DOPS   D2B25766  25.835  26.616  14.599  0.0251  0.1799  0.1961
 2196DOPS   C3B25767  25.627  26.416  14.284  0.1399  0.3424 -0.2572
 2196DOPS   C4B25768  25.404  26.404  13.893 -0.1201  0.2187  0.1041
 2197DOPC   NC325769  15.312  34.451  14.161  0.2996 -0.0114  0.1737
 2197DOPC   PO425770  15.319  34.814  14.169  0.1869 -0.0413  0.0498
 2197DOPC   GL125771  15.222  35.118  13.893 -0.1589  0.3390  0.1426
 2197DOPC   GL225772  15.484  35.233  13.794  0.0304 -0.3051  0.2952
 2197DOPC   C1A25773  15.078  35.050  13.452 -0.0254 -0.1098  0.1609
 2197DOPC   D2A25774  15.050  34.829  13.007  0.4317  0.1469 -0.3991
 2197DOPC   C3A25775  15.110  35.032  12.606  0.0785 -0.1776 -0.1757
 2197DOPC   C4A25776  15.060  35.483  12.574  0.0528 -0.0788  0.1707
 2197DOPC   C1B25777  15.565  34.947  13.433 -0.0572 -0.3455 -0.0259
 2197DOPC   D2B25778  15.593  34.821  12.974  0.0198  0.1423 -0.0540
 2197DOPC   C3B25779  15.984  34.633  12.854 -0.3000  0.2148  0.1889
 2197DOPC   C4B25780  16.375  34.970  12.769  0.0112  0.1432  0.1411
 2198DOPS   CNO25781  12.294  33.943  13.942  0.0782 -0.0427 -0.0367
 2198DOPS   PO425782  12.672  33.950  14.017 -0.0046  0.0394 -0.1449
 2198DOPS   GL125783  12.680  33.957  13.613  0.5705  0.0760 -0.5502
 2198DOPS   GL225784  12.519  34.094  13.437 -0.0098 -0.2498  0.0618
 2198DOPS   C1A25785  12.900  33.759  13.283 -0.1672 -0.0720 -0.1533
 2198DOPS   D2A25786  12.884  33.947  12.820 -0.2180  0.1439 -0.0107
 2198DOPS   C3A25787  13.232  34.200  12.595  0.1438 -0.0517 -0.2238
 2198DOPS   C4A25788  13.435  34.599  12.413  0.2713 -0.1559  0.0845
 2198DOPS   C1B25789  12.469  34.217  12.977  0.1464  0.1914 -0.2391
 2198DOPS   D2B25790  12.414  34.145  12.559  0.1570  0.1853  0.0645
 2198DOPS   C3B25791  12.193  33.762  12.461 -0.4239 -0.1489 -0.2568
 2198DOPS   C4B25792  12.136  33.335  12.240 -0.1103  0.2905  0.1907
 2199DOPE   NH325793  18.879  32.671  14.965  0.0901 -0.2376  0.0398
 2199DOPE   PO425794  18.712  32.822  14.679  0.0717 -0.1132  0.2344
 2199DOPE   GL125795  18.725  32.646  14.377  0.0213  0.0175 -0.1335
 2199DOPE   GL225796  18.990  32.538  14.424 -0.0769  0.0860 -0.0637
 2199DOPE   C1A25797  18.751  32.325  14.074 -0.3918  0.0471  0.2052
 2199DOPE   D2A25798  18.815  31.991  13.755 -0.0497 -0.0068 -0.2508
 2199DOPE   C3A25799  19.186  31.780  13.835  0.1172 -0.0676 -0.2535
 2199DOPE   C4A25800  19.593  31.512  13.936  0.1240  0.1423  0.1951
 2199DOPE   C1B25801  19.183  32.766  14.106 -0.2826 -0.2026 -0.2815
 2199DOPE   D2B25802  19.463  33.022  13.871 -0.0202  0.5104  0.1149
 2199DOPE   C3B25803  19.584  32.702  13.562  0.5213  0.0109  0.2308
 2199DOPE   C4B25804  19.910  32.751  13.187  0.2896 -0.0385  0.0586
 2200DOPC   NC325805  14.797  28.330  13.639  0.1829  0.0626 -0.1632
 2200DOPC   PO425806  14.779  28.698  13.733  0.1895 -0.0486 -0.1117
 2200DOPC   GL125807  14.514  28.986  13.657 -0.0661 -0.0478  0.0734
 2200DOPC   GL225808  14.558  29.183  13.791 -0.3232  0.1413 -0.1138
 2200DOPC   C1A25809  14.723  29.170  13.265  0.4391 -0.4221 -0.1851
 2200DOPC   D2A25810  14.930  29.100  12.821  0.1523  0.1179  0.2047
 2200DOPC   C3A25811  15.087  29.415  12.513  0.0585 -0.0615 -0.0635
 2200DOPC   C4A25812  15.144  29.707  12.100  0.0550 -0.0600 -0.1028
 2200DOPC   C1B25813  14.316  29.323  13.472  0.3202 -0.3609  0.0295
 2200DOPC   D2B25814  14.360  29.578  13.103  0.0712  0.4236  0.3434
 2200DOPC   C3B25815  14.335  29.583  12.614  0.0865  0.1057  0.0131
 2200DOPC   C4B25816  14.331  29.796  12.175  0.3112 -0.1156  0.0147
 2201DOPS   CNO25817  12.154  26.750  13.131 -0.2659 -0.2136 -0.1029
 2201DOPS   PO425818  11.972  26.504  12.994  0.1301 -0.0600  0.2891
 2201DOPS   GL125819  12.128  26.221  12.694  0.0396 -0.0618 -0.1783
 2201DOPS   GL225820  11.983  26.266  12.425  0.1449  0.1254  0.1865
 2201DOPS   C1A25821  12.516  26.198  12.419  0.0699  0.1317  0.1233
 2201DOPS   D2A25822  12.612  26.240  11.995 -0.2980 -0.0283 -0.3832
 2201DOPS   C3A25823  12.815  26.657  11.889 -0.1373  0.4005  0.2121
 2201DOPS   C4A25824  13.051  27.029  11.894  0.2385  0.1399  0.0505
 2201DOPS   C1B25825  12.199  26.510  12.120  0.0327 -0.2240  0.0532
 2201DOPS   D2B25826  12.355  26.555  11.676  0.1387  0.1342 -0.2014
 2201DOPS   C3B25827  12.707  26.615  11.397  0.3303  0.0749 -0.1763
 2201DOPS   C4B25828  13.037  26.917  11.376  0.0910 -0.1205 -0.1748
 2202DOPC   NC325829  16.484  22.494  11.865 -0.2922  0.0354 -0.1990
 2202DOPC   PO425830  16.216  22.609  12.148  0.3219  0.2864  0.2180
 2202DOPC   GL125831  16.173  22.880  11.861  0.1204  0.1359 -0.0614
 2202DOPC   GL225832  16.427  22.979  11.818  0.2036 -0.4937 -0.3311
 2202DOPC   C1A25833  16.037  22.875  11.450 -0.0300 -0.3331 -0.0131
 2202DOPC   D2A25834  15.737  22.990  11.108 -0.0229 -0.2122  0.0696
 2202DOPC   C3A25835  15.952  22.979  10.716  0.0790 -0.0570  0.5554
 2202DOPC   C4A25836  16.017  23.213  10.306 -0.0712  0.0548 -0.1378
 2202DOPC   C1B25837  16.541  23.036  11.372 -0.0786 -0.1514 -0.0102
 2202DOPC   D2B25838  16.918  23.027  11.131  0.1549  0.1225  0.1102
 2202DOPC   C3B25839  17.215  22.806  10.832 -0.2432 -0.2157 -0.1552
 2202DOPC   C4B25840  17.267  22.768  10.376  0.1865  0.1465 -0.1859
 2203DOPE   NH325841  23.628  32.286  15.488  0.0893  0.1301  0.2124
 2203DOPE   PO425842  23.592  32.360  15.166 -0.1539  0.0620  0.2098
 2203DOPE   GL125843  23.530  32.195  14.775 -0.1736  0.0731  0.0536
 2203DOPE   GL225844  23.366  31.969  14.773  0.2387  0.3709  0.3545
 2203DOPE   C1A25845  23.297  32.363  14.433  0.1118 -0.0792 -0.0366
 2203DOPE   D2A25846  23.256  32.741  14.147  0.0001  0.0655  0.1015
 2203DOPE   C3A25847  23.550  32.729  13.815 -0.0418 -0.0290  0.4215
 2203DOPE   C4A25848  23.825  32.926  13.456  0.0393  0.2251  0.1576
 2203DOPE   C1B25849  22.913  32.053  14.593 -0.0759 -0.0702  0.0861
 2203DOPE   D2B25850  22.619  31.813  14.275  0.1905  0.2586 -0.0471
 2203DOPE   C3B25851  22.402  31.878  13.836 -0.0413  0.1662  0.1745
 2203DOPE   C4B25852  22.072  32.007  13.499 -0.2581 -0.0400 -0.1285
 2204POSM   NC325853  17.350  34.639  14.381  0.3513  0.0957 -0.0766
 2204POSM   PO425854  16.965  34.644  14.277  0.0611 -0.0996 -0.1890
 2204POSM   AM125855  16.963  34.582  13.954  0.2485 -0.0273  0.0990
 2204POSM   AM225856  16.884  34.661  13.680  0.2986  0.0101 -0.0613
 2204POSM   T1A25857  17.059  34.231  13.643 -0.2699 -0.1044  0.0922
 2204POSM   C2A25858  17.224  34.102  13.230  0.0798  0.0751  0.0257
 2204POSM   C3A25859  17.509  33.868  13.005  0.0021 -0.1597 -0.5022
 2204POSM   C1B25860  16.934  34.664  13.360 -0.0480  0.5051 -0.2033
 2204POSM   D2B25861  17.016  34.970  12.961  0.0273 -0.0805 -0.0157
 2204POSM   C3B25862  16.814  34.772  12.531  0.0263 -0.2496  0.1193
 2204POSM   C4B25863  16.731  34.356  12.311  0.0918  0.2481 -0.0503
 2205DOPE   NH325864  16.603  32.884  14.637 -0.1272 -0.0467  0.0657
 2205DOPE   PO425865  16.619  32.880  14.306  0.0475  0.0415  0.2575
 2205DOPE   GL125866  16.393  32.947  13.973 -0.1818  0.0615  0.0194
 2205DOPE   GL225867  16.348  33.268  14.048 -0.4532  0.0893  0.0316
 2205DOPE   C1A25868  15.981  32.911  13.716  0.0058  0.2331  0.3216
 2205DOPE   D2A25869  15.933  33.014  13.309  0.0474  0.0746  0.1641
 2205DOPE   C3A25870  15.932  32.787  12.900 -0.1754 -0.2051 -0.0417
 2205DOPE   C4A25871  15.711  32.563  12.505  0.1050  0.0360 -0.2624
 2205DOPE   C1B25872  16.044  33.546  13.865 -0.2217  0.0850  0.2724
 2205DOPE   D2B25873  16.023  33.980  13.713 -0.1042  0.0956  0.0685
 2205DOPE   C3B25874  16.211  34.170  13.378  0.0283 -0.3072 -0.2959
 2205DOPE   C4B25875  15.996  34.155  12.982 -0.0859 -0.2499 -0.0015
 2206POSM   NC325876  17.314  34.115  14.596 -0.1097 -0.1411  0.1976
 2206POSM   PO425877  17.553  34.146  14.289 -0.1253 -0.2008  0.4265
 2206POSM   AM125878  17.761  34.176  14.009  0.0173 -0.4844  0.1868
 2206POSM   AM225879  17.895  34.291  13.802 -0.1968  0.1113  0.0567
 2206POSM   T1A25880  17.722  33.892  13.591  0.0152  0.0639  0.3379
 2206POSM   C2A25881  17.340  33.627  13.415  0.1218 -0.4720 -0.0574
 2206POSM   C3A25882  16.900  33.508  13.267  0.0039 -0.1290 -0.2461
 2206POSM   C1B25883  17.866  34.413  13.521  0.0976  0.2623  0.2135
 2206POSM   D2B25884  17.808  34.227  13.141  0.1329  0.1063  0.4207
 2206POSM   C3B25885  17.529  34.336  12.800  0.0341  0.3721  0.1630
 2206POSM   C4B25886  17.377  34.793  12.645  0.0893  0.2679  0.0048
 2207DOPC   NC325887  23.108  29.087  14.824 -0.1214 -0.3388  0.0144
 2207DOPC   PO425888  22.745  29.271  14.845  0.1750 -0.0432 -0.1830
 2207DOPC   GL125889  22.775  29.119  14.488  0.0961  0.2753  0.0251
 2207DOPC   GL225890  22.583  28.907  14.361  0.0521  0.1989 -0.2345
 2207DOPC   C1A25891  23.038  28.848  14.253 -0.0929 -0.1220  0.1262
 2207DOPC   D2A25892  23.322  28.610  13.981  0.0850  0.0647  0.3807
 2207DOPC   C3A25893  23.710  28.755  13.742 -0.1536 -0.2093  0.0651
 2207DOPC   C4A25894  24.008  28.851  13.388  0.0929  0.0773  0.1482
 2207DOPC   C1B25895  22.517  28.845  13.878  0.2282 -0.4575 -0.1513
 2207DOPC   D2B25896  22.486  28.685  13.431 -0.1802 -0.0096 -0.3976
 2207DOPC   C3B25897  22.240  28.666  13.028  0.1791  0.1464  0.0011
 2207DOPC   C4B25898  22.148  28.717  12.619 -0.1264 -0.2122 -0.0509
 2208DOPE   NH325899  19.701  33.712  14.616 -0.1445 -0.0231  0.0442
 2208DOPE   PO425900  19.472  33.922  14.574  0.0479 -0.2182 -0.3622
 2208DOPE   GL125901  19.273  34.030  14.281 -0.0506  0.2509 -0.1219
 2208DOPE   GL225902  19.283  34.341  14.224  0.2107 -0.3601  0.1214
 2208DOPE   C1A25903  19.039  33.926  13.893  0.0199  0.0505 -0.0174
 2208DOPE   D2A25904  18.813  33.561  13.804  0.0987 -0.0411  0.0054
 2208DOPE   C3A25905  18.459  33.529  13.446 -0.0801  0.0627  0.0849
 2208DOPE   C4A25906  18.298  33.324  13.066 -0.0163 -0.1539 -0.2920
 2208DOPE   C1B25907  19.585  34.559  13.858  0.0127  0.0871  0.0221
 2208DOPE   D2B25908  19.778  34.778  13.472  0.2557  0.2089  0.1937
 2208DOPE   C3B25909  19.705  34.568  13.091  0.1845 -0.1663  0.0907
 2208DOPE   C4B25910  19.637  34.711  12.671  0.1177 -0.2751 -0.1196
 2209POSM   NC325911  21.487  22.006  12.888  0.0889 -0.1320 -0.2639
 2209POSM   PO425912  21.352  22.279  13.132  0.1672 -0.1401 -0.0816
 2209POSM   AM125913  21.458  22.479  12.887  0.0667 -0.3571 -0.1620
 2209POSM   AM225914  21.309  22.620  12.685  0.0982  0.1148 -0.3126
 2209POSM   T1A25915  21.707  22.910  12.719 -0.2418  0.2813 -0.0325
 2209POSM   C2A25916  21.788  23.117  12.276  0.0809  0.4164  0.1474
 2209POSM   C3A25917  21.867  23.041  11.798 -0.2405 -0.0015  0.1552
 2209POSM   C1B25918  21.252  22.733  12.323 -0.4013 -0.0671  0.1309
 2209POSM   D2B25919  21.321  22.893  11.882 -0.0269 -0.0955 -0.0254
 2209POSM   C3B25920  21.277  23.248  11.601  0.1650  0.1528 -0.0772
 2209POSM   C4B25921  21.078  23.538  11.388  0.0598  0.1942  0.0964
 2210DOPE   NH325922  19.750  34.219  14.208 -0.1828  0.0830 -0.0010
 2210DOPE   PO425923  19.979  34.118  14.409 -0.0368 -0.2808 -0.3760
 2210DOPE   GL125924  20.249  34.023  14.171 -0.0350  0.2552  0.1066
 2210DOPE   GL225925  20.080  33.973  13.892 -0.2781  0.1424 -0.0747
 2210DOPE   C1A25926  20.549  33.740  14.089  0.0452  0.1641 -0.0752
 2210DOPE   D2A25927  20.836  33.505  13.922 -0.0128 -0.0675 -0.1338
 2210DOPE   C3A25928  20.778  33.783  13.565 -0.3060 -0.2392  0.3792
 2210DOPE   C4A25929  20.912  34.243  13.458  0.0165  0.0986  0.3012
 2210DOPE   C1B25930  19.807  33.720  13.652  0.3327  0.0052 -0.0527
 2210DOPE   D2B25931  19.562  33.697  13.260 -0.2094 -0.1159 -0.1272
 2210DOPE   C3B25932  19.784  33.708  12.838  0.3105  0.0365 -0.2440
 2210DOPE   C4B25933  19.636  33.408  12.552  0.0808  0.0494  0.2612
 2211DOPE   NH325934   7.868  28.470  13.661 -0.0095 -0.0694 -0.0252
 2211DOPE   PO425935   7.556  28.421  13.698  0.1588 -0.2635 -0.1117
 2211DOPE   GL125936   7.360  28.730  13.554  0.1254  0.0584  0.1538
 2211DOPE   GL225937   7.247  28.622  13.309 -0.2335  0.1090 -0.2512
 2211DOPE   C1A25938   7.489  29.180  13.447 -0.0623  0.1728  0.1752
 2211DOPE   D2A25939   7.661  29.614  13.306  0.0533 -0.1660 -0.0138
 2211DOPE   C3A25940   7.751  29.714  12.844  0.1576 -0.4259  0.0761
 2211DOPE   C4A25941   8.128  29.568  12.583  0.0159 -0.0222  0.2621
 2211DOPE   C1B25942   7.301  28.467  12.901  0.3162 -0.1056 -0.1660
 2211DOPE   D2B25943   7.192  28.672  12.447 -0.0386  0.0078 -0.2025
 2211DOPE   C3B25944   7.531  28.929  12.263  0.3568 -0.1666 -0.0130
 2211DOPE   C4B25945   7.796  28.815  11.864  0.1028 -0.0008 -0.2841
 2212DOPE   NH325946  17.860  30.250  15.236 -0.0689  0.0870 -0.1459
 2212DOPE   PO425947  18.058  30.112  14.988  0.1557  0.1067  0.0725
 2212DOPE   GL125948  18.197  30.030  14.578  0.1043 -0.2346 -0.1267
 2212DOPE   GL225949  18.008  30.078  14.414  0.2706  0.2165 -0.3427
 2212DOPE   C1A25950  18.367  29.675  14.304  0.3328  0.2194 -0.1834
 2212DOPE   D2A25951  18.686  29.419  14.124  0.0875  0.1723 -0.0684
 2212DOPE   C3A25952  19.051  29.515  13.941 -0.1095  0.0331 -0.1320
 2212DOPE   C4A25953  19.526  29.478  13.946 -0.2283 -0.0127 -0.0965
 2212DOPE   C1B25954  18.023  29.834  13.971  0.2478 -0.3063 -0.0478
 2212DOPE   D2B25955  18.122  29.697  13.527  0.1033  0.1566 -0.0164
 2212DOPE   C3B25956  18.421  30.050  13.439 -0.0744  0.0395 -0.0761
 2212DOPE   C4B25957  18.071  30.334  13.372  0.0624 -0.2368 -0.1986
 2213DOPE   NH325958  17.435  25.288  13.559  0.2634 -0.1450  0.0381
 2213DOPE   PO425959  17.282  25.572  13.634 -0.2127 -0.0518  0.0748
 2213DOPE   GL125960  17.325  25.578  13.189  0.1084 -0.0606 -0.1570
 2213DOPE   GL225961  17.527  25.410  13.021  0.1657 -0.0297  0.0377
 2213DOPE   C1A25962  17.064  25.368  12.881 -0.0142 -0.0807 -0.0428
 2213DOPE   D2A25963  17.046  25.026  12.572  0.1395 -0.3211 -0.0987
 2213DOPE   C3A25964  16.922  25.231  12.157 -0.1214 -0.3303  0.1057
 2213DOPE   C4A25965  16.857  25.334  11.714  0.1117  0.2081 -0.0900
 2213DOPE   C1B25966  17.426  25.584  12.641 -0.0987 -0.2372  0.1550
 2213DOPE   D2B25967  17.322  25.835  12.292  0.0164  0.2101  0.0305
 2213DOPE   C3B25968  17.024  25.671  12.019  0.4059 -0.1625 -0.2967
 2213DOPE   C4B25969  16.553  25.802  11.984  0.0320  0.1526  0.0910
 2214POSM   NC325970  21.557  25.133  13.745 -0.2817  0.0277 -0.1529
 2214POSM   PO425971  21.221  25.167  13.985  0.0107  0.2806 -0.1469
 2214POSM   AM125972  21.150  25.053  13.673  0.2550 -0.0512 -0.1318
 2214POSM   AM225973  20.985  25.182  13.454 -0.2245  0.2271  0.2999
 2214POSM   T1A25974  21.371  24.892  13.260 -0.2262 -0.1975 -0.1479
 2214POSM   C2A25975  21.541  25.040  12.858 -0.2074  0.1338  0.2481
 2214POSM   C3A25976  21.790  25.058  12.456  0.1515 -0.1094  0.1754
 2214POSM   C1B25977  21.293  25.344  13.356 -0.0795  0.0201  0.0677
 2214POSM   D2B25978  21.595  25.556  13.026  0.3405 -0.0433 -0.2873
 2214POSM   C3B25979  21.970  25.619  12.912 -0.1804 -0.0567  0.0089
 2214POSM   C4B25980  22.250  25.982  12.799  0.2919 -0.1821  0.0876
 2215DOPE   NH325981  16.657  28.902  14.519  0.0777  0.2101  0.1408
 2215DOPE   PO425982  16.727  28.651  14.281  0.1781 -0.0209  0.1470
 2215DOPE   GL125983  17.004  28.794  13.941  0.0173 -0.0707  0.0328
 2215DOPE   GL225984  17.155  28.602  14.012 -0.2326  0.1805 -0.2473
 2215DOPE   C1A25985  17.087  29.112  13.550  0.2603  0.4070  0.2022
 2215DOPE   D2A25986  17.356  29.257  13.157 -0.2117 -0.0370 -0.3118
 2215DOPE   C3A25987  17.642  29.601  13.322 -0.0775 -0.0524 -0.0154
 2215DOPE   C4A25988  17.705  29.995  13.596  0.1330 -0.0078 -0.0681
 2215DOPE   C1B25989  17.420  28.235  14.004 -0.0635 -0.0689  0.0916
 2215DOPE   D2B25990  17.703  28.155  13.674  0.1740  0.5456 -0.0307
 2215DOPE   C3B25991  17.597  27.812  13.376 -0.1836  0.0319 -0.1508
 2215DOPE   C4B25992  17.746  27.734  12.904  0.1569  0.0722 -0.2442
 2216DOPE   NH325993  18.854  33.324  14.450  0.0338  0.0178 -0.0715
 2216DOPE   PO425994  19.079  33.593  14.550 -0.0233 -0.3737 -0.1742
 2216DOPE   GL125995  19.209  33.590  14.176  0.2921 -0.0346  0.1424
 2216DOPE   GL225996  19.518  33.683  14.143  0.1187 -0.1396 -0.0712
 2216DOPE   C1A25997  19.335  33.507  13.712 -0.2304  0.3142 -0.1403
 2216DOPE   D2A25998  19.244  33.260  13.337 -0.0750 -0.3348  0.1871
 2216DOPE   C3A25999  19.419  32.964  13.041 -0.1521 -0.5430 -0.0068
 2216DOPE   C4A26000  19.744  32.959  12.742 -0.0547  0.2163 -0.0378
 2216DOPE   C1B26001  19.485  34.020  13.800 -0.0484  0.1705  0.2391
 2216DOPE   D2B26002  19.471  34.158  13.395 -0.0514  0.1969 -0.0488
 2216DOPE   C3B26003  19.495  34.112  12.945  0.0695  0.2871 -0.0522
 2216DOPE   C4B26004  19.215  34.007  12.594  0.0094  0.1316 -0.3380
 2217POSM   NC326005  22.104  24.713  14.179  0.0232  0.1829  0.3471
 2217POSM   PO426006  21.783  24.834  14.081  0.1022 -0.1045  0.1789
 2217POSM   AM126007  21.777  24.727  13.784 -0.1073  0.0345 -0.2667
 2217POSM   AM226008  21.694  24.557  13.612  0.2158 -0.2378  0.2508
 2217POSM   T1A26009  21.904  24.961  13.358  0.3679  0.3693  0.0813
 2217POSM   C2A26010  22.040  25.131  12.928  0.0545 -0.0040 -0.1596
 2217POSM   C3A26011  22.408  25.079  12.710 -0.0279  0.1279  0.0553
 2217POSM   C1B26012  21.863  24.448  13.318  0.1817 -0.3111  0.1421
 2217POSM   D2B26013  22.082  24.605  12.929 -0.0372 -0.2195 -0.0463
 2217POSM   C3B26014  22.019  24.317  12.523  0.1283 -0.2089  0.3527
 2217POSM   C4B26015  22.188  24.059  12.154  0.0812 -0.3186  0.5048
 2218DOPC   NC326016  13.038  31.332  13.700 -0.2103  0.2629 -0.1194
 2218DOPC   PO426017  12.837  31.237  14.047  0.0267 -0.3331  0.2012
 2218DOPC   GL126018  12.602  31.086  13.765  0.1667  0.0140 -0.2498
 2218DOPC   GL226019  12.688  30.824  13.762 -0.1677 -0.0219  0.2674
 2218DOPC   C1A26020  12.605  31.146  13.267  0.0395  0.0392  0.0140
 2218DOPC   D2A26021  12.694  31.450  12.964  0.4273  0.0726 -0.4735
 2218DOPC   C3A26022  12.433  31.463  12.580 -0.1059 -0.0863  0.5854
 2218DOPC   C4A26023  12.219  31.166  12.313  0.0096 -0.0301 -0.2262
 2218DOPC   C1B26024  12.476  30.614  13.475 -0.1833  0.1342  0.2026
 2218DOPC   D2B26025  12.458  30.440  13.057 -0.1135  0.1178  0.0811
 2218DOPC   C3B26026  12.730  30.310  12.685  0.1587 -0.0355  0.1973
 2218DOPC   C4B26027  13.085  30.212  12.391 -0.1123  0.2881  0.0181
 2219DOPE   NH326028  13.077  26.665  13.395  0.0356  0.1134  0.2517
 2219DOPE   PO426029  13.004  26.976  13.408  0.2163 -0.1416 -0.2582
 2219DOPE   GL126030  13.105  26.988  12.972  0.4140  0.0195 -0.1154
 2219DOPE   GL226031  12.892  26.787  12.850 -0.0837 -0.0775 -0.1650
 2219DOPE   C1A26032  13.426  27.190  12.619  0.2108 -0.1100  0.3890
 2219DOPE   D2A26033  13.831  27.391  12.455  0.3158  0.1931 -0.1455
 2219DOPE   C3A26034  14.004  27.194  12.054  0.1425 -0.4217 -0.3622
 2219DOPE   C4A26035  14.229  26.840  11.869 -0.1368 -0.0275 -0.1522
 2219DOPE   C1B26036  12.929  26.487  12.520  0.0278 -0.1806 -0.0780
 2219DOPE   D2B26037  13.094  26.313  12.209 -0.0628 -0.0099 -0.1942
 2219DOPE   C3B26038  13.505  26.391  12.028 -0.2385 -0.2613 -0.0077
 2219DOPE   C4B26039  13.730  26.712  11.820 -0.0853  0.0705 -0.1352
 2220DOPC   NC326040  20.943  29.481  14.446  0.1649  0.2589  0.1321
 2220DOPC   PO426041  20.682  29.209  14.553 -0.1068 -0.1697  0.0510
 2220DOPC   GL126042  20.682  29.171  14.113 -0.1188  0.2129  0.1860
 2220DOPC   GL226043  20.898  29.425  13.948 -0.1288 -0.0530  0.2424
 2220DOPC   C1A26044  20.324  29.051  13.872 -0.0191 -0.2620 -0.2278
 2220DOPC   D2A26045  19.853  29.017  13.810  0.1289 -0.0359 -0.0931
 2220DOPC   C3A26046  19.765  29.319  13.512  0.1643 -0.1298  0.3086
 2220DOPC   C4A26047  19.788  29.516  13.074 -0.2350 -0.0766 -0.0845
 2220DOPC   C1B26048  20.624  29.409  13.609  0.0611  0.1507  0.0915
 2220DOPC   D2B26049  20.313  29.367  13.268 -0.2977  0.0822 -0.3015
 2220DOPC   C3B26050  20.314  28.936  13.008 -0.0331  0.0020  0.0238
 2220DOPC   C4B26051  20.317  28.638  12.648 -0.1759  0.1393 -0.1461
 2221POSM   NC326052  16.505  25.104  13.332  0.0441  0.1226  0.1351
 2221POSM   PO426053  16.194  24.837  13.284  0.1481 -0.0431 -0.0608
 2221POSM   AM126054  16.200  24.873  12.948 -0.5338  0.3316 -0.1517
 2221POSM   AM226055  16.382  25.037  12.791  0.2994 -0.0049  0.1008
 2221POSM   T1A26056  15.945  25.046  12.567  0.1382  0.1293 -0.0273
 2221POSM   C2A26057  16.009  25.152  12.069  0.0508  0.0384 -0.0524
 2221POSM   C3A26058  16.384  25.258  11.833 -0.0592  0.2689  0.1977
 2221POSM   C1B26059  16.638  25.241  12.700  0.2654 -0.2517 -0.0915
 2221POSM   D2B26060  16.845  25.594  12.481  0.0578  0.3491 -0.0303
 2221POSM   C3B26061  16.876  26.022  12.355 -0.1600 -0.0244 -0.0219
 2221POSM   C4B26062  17.102  26.360  12.047 -0.1083 -0.0241 -0.0789
 2222DOPE   NH326063  20.925  27.379  14.594  0.0643  0.1955 -0.1169
 2222DOPE   PO426064  20.733  27.409  14.349  0.1107  0.0485  0.0799
 2222DOPE   GL126065  20.563  27.426  13.983 -0.1060  0.5689 -0.0892
 2222DOPE   GL226066  20.376  27.184  13.986 -0.0314 -0.0764 -0.1893
 2222DOPE   C1A26067  20.660  27.276  13.536 -0.0510 -0.1605  0.0779
 2222DOPE   D2A26068  20.933  27.024  13.177 -0.2220  0.3426  0.1083
 2222DOPE   C3A26069  20.903  27.206  12.757 -0.1028  0.0096  0.1053
 2222DOPE   C4A26070  20.869  27.204  12.284  0.3996  0.1785  0.0869
 2222DOPE   C1B26071  20.189  27.085  13.574  0.2486 -0.0890  0.0231
 2222DOPE   D2B26072  20.041  27.367  13.192 -0.4066 -0.0206 -0.4513
 2222DOPE   C3B26073  20.188  27.723  12.993  0.1680 -0.0865 -0.2319
 2222DOPE   C4B26074  20.352  28.225  12.992 -0.0514  0.1168 -0.1197
 2223DOPE   NH326075  20.196  28.255  14.683 -0.0729 -0.1777 -0.1179
 2223DOPE   PO426076  20.401  28.169  14.412 -0.1355 -0.1212  0.1404
 2223DOPE   GL126077  20.436  28.317  14.102  0.2982 -0.4220 -0.3504
 2223DOPE   GL226078  20.751  28.287  14.105 -0.2142  0.1005 -0.1433
 2223DOPE   C1A26079  20.272  28.577  13.761 -0.0483  0.0494  0.1482
 2223DOPE   D2A26080  20.023  28.704  13.448  0.1958  0.2429 -0.2028
 2223DOPE   C3A26081  19.988  28.521  13.017  0.0951 -0.1690 -0.1072
 2223DOPE   C4A26082  19.871  28.704  12.622  0.0614  0.1347 -0.2665
 2223DOPE   C1B26083  20.769  28.642  13.820 -0.3292  0.2584  0.2819
 2223DOPE   D2B26084  20.568  28.929  13.488 -0.1319 -0.2353 -0.0596
 2223DOPE   C3B26085  20.745  29.234  13.138 -0.2342 -0.0105 -0.0664
 2223DOPE   C4B26086  21.146  29.414  13.024 -0.2212 -0.0743 -0.0665
 2224POSM   NC326087  20.826  24.713  13.505 -0.3349 -0.0679  0.1835
 2224POSM   PO426088  20.527  25.005  13.539 -0.1868 -0.2408 -0.1075
 2224POSM   AM126089  20.571  25.038  13.199  0.2794 -0.2509  0.0992
 2224POSM   AM226090  20.788  24.918  13.028 -0.4568 -0.3120  0.0141
 2224POSM   T1A26091  20.427  24.895  12.712 -0.0562  0.1134  0.2906
 2224POSM   C2A26092  20.520  24.695  12.312  0.0834  0.0653  0.5130
 2224POSM   C3A26093  20.232  24.554  12.041 -0.0053  0.0214 -0.2390
 2224POSM   C1B26094  21.026  25.110  12.931 -0.1791 -0.0070  0.0664
 2224POSM   D2B26095  21.244  25.365  12.655 -0.2936 -0.1195  0.0401
 2224POSM   C3B26096  21.593  25.574  12.500 -0.0763  0.1692 -0.0151
 2224POSM   C4B26097  21.907  25.457  12.156 -0.1246 -0.2276 -0.3899
 2225DOPS   CNO26098  20.106  25.043  13.370 -0.1189 -0.1386 -0.2436
 2225DOPS   PO426099  19.950  24.724  13.582  0.2391 -0.2056 -0.0885
 2225DOPS   GL126100  19.869  24.701  13.163  0.0013 -0.1278 -0.0688
 2225DOPS   GL226101  19.637  24.588  13.082 -0.2026  0.0407  0.1886
 2225DOPS   C1A26102  19.910  24.832  12.727 -0.1188 -0.0863 -0.1164
 2225DOPS   D2A26103  20.111  24.995  12.320  0.3395  0.2252  0.0419
 2225DOPS   C3A26104  19.984  25.301  11.951  0.0025 -0.1619  0.0844
 2225DOPS   C4A26105  20.311  25.440  11.590  0.2177 -0.0869  0.2098
 2225DOPS   C1B26106  19.542  24.451  12.667  0.0508 -0.2616 -0.0179
 2225DOPS   D2B26107  19.284  24.519  12.305  0.1249  0.1248  0.0257
 2225DOPS   C3B26108  19.720  24.647  12.215 -0.0752 -0.1657  0.2091
 2225DOPS   C4B26109  20.029  24.357  12.476  0.0341  0.2260 -0.0032
 2226DOPC   NC326110  13.654  32.458  14.105 -0.0782 -0.3273  0.1039
 2226DOPC   PO426111  13.447  32.621  14.369 -0.1692 -0.1235 -0.2926
 2226DOPC   GL126112  13.449  32.823  13.988 -0.1356  0.2606  0.0241
 2226DOPC   GL226113  13.201  32.860  13.867 -0.1039  0.1608  0.4491
 2226DOPC   C1A26114  13.832  32.710  13.705  0.2222 -0.1732 -0.2506
 2226DOPC   D2A26115  14.109  33.054  13.479  0.0826  0.0295 -0.0863
 2226DOPC   C3A26116  14.079  33.041  13.040 -0.1437  0.0587 -0.1396
 2226DOPC   C4A26117  13.902  32.704  12.701 -0.1992  0.0835 -0.0723
 2226DOPC   C1B26118  13.378  32.698  13.466 -0.1651 -0.0148  0.0521
 2226DOPC   D2B26119  13.558  32.719  13.014  0.3008  0.0356  0.0181
 2226DOPC   C3B26120  13.681  32.277  12.979  0.1352  0.0423 -0.1590
 2226DOPC   C4B26121  13.935  31.992  12.705  0.2706 -0.2157 -0.0068
 2227POSM   NC326122  17.640  28.052  15.062 -0.2908 -0.1562  0.0831
 2227POSM   PO426123  17.308  28.002  14.844 -0.2076  0.2830 -0.3415
 2227POSM   AM126124  17.519  28.067  14.588  0.2040  0.0044 -0.2650
 2227POSM   AM226125  17.643  27.993  14.375 -0.1715 -0.1644  0.2170
 2227POSM   T1A26126  17.575  28.488  14.344 -0.0554  0.2516  0.0239
 2227POSM   C2A26127  17.426  28.938  14.291 -0.0524 -0.2942  0.1941
 2227POSM   C3A26128  17.309  29.203  13.997 -0.1415 -0.0786 -0.2587
 2227POSM   C1B26129  17.822  27.891  14.089 -0.2443 -0.0441 -0.1936
 2227POSM   D2B26130  18.024  27.793  13.654  0.1043 -0.1892  0.0297
 2227POSM   C3B26131  17.992  27.429  13.396  0.0870 -0.1274 -0.1678
 2227POSM   C4B26132  18.344  27.222  13.152 -0.1540  0.2755 -0.1177
 2228DOPE   NH326133  20.692  22.216  12.805 -0.1303 -0.1799 -0.3730
 2228DOPE   PO426134  20.994  22.091  12.779  0.2729  0.1941  0.0458
 2228DOPE   GL126135  21.252  22.105  12.509 -0.0238  0.3876  0.0962
 2228DOPE   GL226136  21.302  21.790  12.428 -0.1138  0.0652  0.0592
 2228DOPE   C1A26137  21.515  22.125  12.117 -0.0651 -0.3813 -0.0197
 2228DOPE   D2A26138  21.842  22.047  11.810 -0.1100  0.2581 -0.1262
 2228DOPE   C3A26139  22.061  22.108  11.412 -0.0186 -0.0612  0.3527
 2228DOPE   C4A26140  22.253  22.264  11.015 -0.1381  0.2552  0.3061
 2228DOPE   C1B26141  21.801  21.909  12.522 -0.2226  0.1254  0.1415
 2228DOPE   D2B26142  22.225  22.115  12.710  0.1143  0.1181  0.0498
 2228DOPE   C3B26143  22.426  22.296  12.349  0.0569  0.1159  0.0773
 2228DOPE   C4B26144  22.353  22.560  11.926 -0.2008  0.1693 -0.0875
 2229DOPS   CNO26145  17.040  22.901  12.441 -0.0740 -0.0708 -0.0524
 2229DOPS   PO426146  16.774  22.756  12.205 -0.0671 -0.2413  0.1331
 2229DOPS   GL126147  16.967  22.875  11.857  0.0683  0.1177 -0.1052
 2229DOPS   GL226148  17.265  22.891  11.952 -0.0644 -0.1896 -0.0909
 2229DOPS   C1A26149  16.799  22.630  11.491 -0.0895  0.0116  0.2840
 2229DOPS   D2A26150  16.839  22.372  11.126 -0.0141 -0.1598 -0.5199
 2229DOPS   C3A26151  16.718  22.295  10.632 -0.2290  0.0195 -0.0665
 2229DOPS   C4A26152  16.926  22.467  10.237  0.1769  0.1311  0.3015
 2229DOPS   C1B26153  17.468  23.241  11.792 -0.0990 -0.2179  0.2933
 2229DOPS   D2B26154  17.827  23.136  11.489 -0.2840 -0.3431  0.2473
 2229DOPS   C3B26155  18.086  23.327  11.093 -0.0983  0.1053  0.0769
 2229DOPS   C4B26156  18.179  23.745  10.858  0.2247 -0.0836  0.1535
 2230DOPS   CNO26157  18.646   0.565  14.404  0.0303  0.2863 -0.0735
 2230DOPS   PO426158  18.695   0.210  14.260 -0.0826 -0.0299  0.2528
 2230DOPS   GL126159  18.501  -0.099  14.036  0.3101  0.4513 -0.0813
 2230DOPS   GL226160  18.732  -0.282  14.021  0.2833 -0.1786 -0.1352
 2230DOPS   C1A26161  18.401  -0.320  13.641 -0.3509  0.0462  0.2142
 2230DOPS   D2A26162  18.323  -0.460  13.240 -0.0606  0.2486  0.1790
 2230DOPS   C3A26163  18.311  -0.515  12.782 -0.1183  0.1409 -0.1758
 2230DOPS   C4A26164  18.192  -0.578  12.354  0.1953  0.2638  0.0493
 2230DOPS   C1B26165  19.097  -0.365  13.761 -0.1783 -0.1243  0.0558
 2230DOPS   D2B26166  19.274  -0.030  13.461 -0.1719  0.0379 -0.1722
 2230DOPS   C3B26167  19.086  -0.012  13.030 -0.1093  0.0444  0.0973
 2230DOPS   C4B26168  18.930  -0.296  12.607  0.1938  0.2411  0.1622
 2231DOPE   NH326169  24.120  24.155  14.836  0.2757  0.2864 -0.2663
 2231DOPE   PO426170  24.294  24.382  14.857  0.0698 -0.1562 -0.2496
 2231DOPE   GL126171  24.312  24.519  14.523  0.2815 -0.3027  0.0503
 2231DOPE   GL226172  24.100  24.366  14.389  0.1542  0.0148  0.1143
 2231DOPE   C1A26173  24.445  24.880  14.242 -0.0176  0.1295 -0.0752
 2231DOPE   D2A26174  24.516  24.994  13.746  0.1073  0.0306 -0.2429
 2231DOPE   C3A26175  24.600  25.368  13.529  0.1660  0.2847  0.3705
 2231DOPE   C4A26176  24.587  25.537  13.093  0.1044 -0.1651 -0.0173
 2231DOPE   C1B26177  24.179  24.509  13.909 -0.3775  0.2436 -0.1264
 2231DOPE   D2B26178  24.277  24.591  13.478 -0.0218 -0.0945  0.0713
 2231DOPE   C3B26179  24.390  24.887  13.147 -0.2317  0.0536 -0.0880
 2231DOPE   C4B26180  24.399  25.221  12.804  0.0051 -0.0323 -0.0455
 2232DOPC   NC326181  20.777  25.373  13.923 -0.1791  0.3961  0.1431
 2232DOPC   PO426182  20.507  25.657  13.967 -0.1285 -0.1980 -0.0507
 2232DOPC   GL126183  20.610  25.752  13.697 -0.0701 -0.0864 -0.1990
 2232DOPC   GL226184  20.576  25.518  13.478  0.3511 -0.1297  0.0555
 2232DOPC   C1A26185  20.686  26.035  13.313 -0.1221  0.3947  0.0631
 2232DOPC   D2A26186  20.704  26.129  12.893  0.1357 -0.2600 -0.0874
 2232DOPC   C3A26187  20.673  25.804  12.595 -0.1745 -0.0224 -0.1281
 2232DOPC   C4A26188  20.298  25.744  12.321  0.0927 -0.1405 -0.1061
 2232DOPC   C1B26189  20.690  25.551  13.065  0.1640  0.2804  0.0134
 2232DOPC   D2B26190  21.131  25.723  13.018  0.1222  0.3303 -0.1326
 2232DOPC   C3B26191  21.320  25.970  12.691  0.3068  0.2213  0.0163
 2232DOPC   C4B26192  21.333  26.364  12.468 -0.0872 -0.0508 -0.0129
 2233DOPS   CNO26193  22.993  29.890  14.867  0.0099 -0.0293  0.2573
 2233DOPS   PO426194  23.151  29.575  14.694  0.0147  0.3496  0.2035
 2233DOPS   GL126195  23.244  29.576  14.340 -0.1385  0.7209  0.2106
 2233DOPS   GL226196  23.083  29.326  14.247  0.0808  0.4764 -0.0667
 2233DOPS   C1A26197  23.162  29.744  13.946  0.2206  0.0984 -0.0337
 2233DOPS   D2A26198  23.287  29.824  13.537 -0.0241  0.0494 -0.1537
 2233DOPS   C3A26199  22.821  29.865  13.332  0.0281  0.2317  0.4346
 2233DOPS   C4A26200  22.602  29.776  12.909 -0.2049 -0.1348  0.1633
 2233DOPS   C1B26201  23.415  29.193  13.938 -0.0473  0.1528 -0.0519
 2233DOPS   D2B26202  23.339  29.346  13.511  0.0074  0.2381 -0.1289
 2233DOPS   C3B26203  22.937  29.401  13.303 -0.2089 -0.1249  0.0318
 2233DOPS   C4B26204  22.488  29.459  13.222  0.0467 -0.0914 -0.1818
 2234DOPE   NH326205  17.019  32.616  14.508 -0.0070 -0.2773  0.1749
 2234DOPE   PO426206  16.874  32.400  14.714  0.3436 -0.3833 -0.0662
 2234DOPE   GL126207  16.680  32.258  14.353 -0.2228 -0.1042 -0.2946
 2234DOPE   GL226208  16.721  32.427  14.137  0.1278 -0.2663 -0.2259
 2234DOPE   C1A26209  16.592  31.936  14.061  0.3046 -0.0041 -0.1426
 2234DOPE   D2A26210  16.410  31.937  13.656  0.0941 -0.1638  0.3843
 2234DOPE   C3A26211  16.414  32.261  13.335 -0.0565 -0.3020 -0.0173
 2234DOPE   C4A26212  16.129  32.360  12.966  0.0403  0.2150  0.0414
 2234DOPE   C1B26213  16.912  32.447  13.759 -0.0828 -0.0403  0.0686
 2234DOPE   D2B26214  16.931  32.675  13.314  0.1508  0.2000  0.2277
 2234DOPE   C3B26215  16.712  33.063  13.151  0.2572  0.0622 -0.1484
 2234DOPE   C4B26216  16.697  33.237  12.717  0.1392 -0.1954  0.3472
 2235DOPE   NH326217  17.178  33.735  14.262  0.0559 -0.0409  0.0523
 2235DOPE   PO426218  17.291  33.519  14.460 -0.1767  0.3058  0.3526
 2235DOPE   GL126219  17.306  33.315  14.076  0.0267  0.0084 -0.1536
 2235DOPE   GL226220  17.525  33.134  14.144 -0.1879  0.1363 -0.0435
 2235DOPE   C1A26221  16.938  33.371  13.821 -0.2107 -0.2220 -0.1779
 2235DOPE   D2A26222  16.779  33.044  13.680  0.0923  0.5466 -0.2298
 2235DOPE   C3A26223  17.178  33.061  13.440 -0.0400 -0.5096 -0.1456
 2235DOPE   C4A26224  17.343  33.237  13.052  0.1281 -0.3166  0.1418
 2235DOPE   C1B26225  17.566  33.251  13.679  0.1412  0.1751 -0.0616
 2235DOPE   D2B26226  17.680  32.945  13.285  0.0787 -0.2070 -0.1023
 2235DOPE   C3B26227  17.331  32.746  13.052  0.0671 -0.0816 -0.0391
 2235DOPE   C4B26228  16.956  32.714  12.773  0.1404  0.0903 -0.2538
 2236DOPE   NH326229  19.166  31.288  14.771  0.2174  0.3285 -0.0770
 2236DOPE   PO426230  19.283  31.028  14.686 -0.3597 -0.0809 -0.1559
 2236DOPE   GL126231  19.146  30.863  14.471 -0.1233  0.0026  0.0426
 2236DOPE   GL226232  19.334  30.660  14.254  0.0120 -0.1850 -0.0112
 2236DOPE   C1A26233  18.906  30.915  14.074  0.1278 -0.0808 -0.1608
 2236DOPE   D2A26234  18.664  30.609  13.843  0.1053 -0.2048 -0.3184
 2236DOPE   C3A26235  18.500  30.615  13.431 -0.4751  0.0090  0.0830
 2236DOPE   C4A26236  18.291  30.724  13.072 -0.3000 -0.1084  0.1270
 2236DOPE   C1B26237  19.407  30.842  13.837  0.1935 -0.3238 -0.2636
 2236DOPE   D2B26238  19.445  31.173  13.519  0.4394  0.0079  0.1241
 2236DOPE   C3B26239  19.676  31.210  13.158  0.2314 -0.1796 -0.4416
 2236DOPE   C4B26240  19.992  31.436  12.872 -0.0072 -0.0513  0.0154
 2237DOPC   NC326241  23.912   0.411  14.886  0.0025  0.0918  0.0515
 2237DOPC   PO426242  24.295   0.452  15.005  0.1672  0.3650  0.0503
 2237DOPC   GL126243  24.546   0.517  14.661 -0.0229  0.1294  0.1233
 2237DOPC   GL226244  24.658   0.224  14.561  0.1303  0.2014 -0.0647
 2237DOPC   C1A26245  24.784   0.770  14.381  0.1411 -0.2153  0.0388
 2237DOPC   D2A26246  24.776   0.867  13.894  0.1140  0.0306 -0.1676
 2237DOPC   C3A26247  24.589   0.788  13.476  0.3704 -0.3295  0.3184
 2237DOPC   C4A26248  24.602   0.703  13.003 -0.2294 -0.1869  0.4104
 2237DOPC   C1B26249  24.350   0.183  14.245 -0.1417  0.1734  0.0052
 2237DOPC   D2B26250  23.980   0.132  13.988  0.0114  0.3541  0.1501
 2237DOPC   C3B26251  23.971   0.007  13.543 -0.2320 -0.1342  0.4852
 2237DOPC   C4B26252  24.290  -0.221  13.291 -0.3317 -0.0977  0.1042
 2238POSM   NC326253  14.805  27.760  13.710  0.0677  0.3799 -0.0737
 2238POSM   PO426254  15.061  27.969  13.903  0.1126  0.0871 -0.0180
 2238POSM   AM126255  15.202  28.089  13.670  0.1591 -0.0800 -0.2264
 2238POSM   AM226256  15.456  28.014  13.491  0.1155 -0.0845  0.0229
 2238POSM   T1A26257  15.068  28.153  13.187  0.0591  0.0002 -0.2759
 2238POSM   C2A26258  15.146  28.222  12.761 -0.3098  0.0310  0.1120
 2238POSM   C3A26259  15.067  28.364  12.328 -0.1237 -0.4215  0.2086
 2238POSM   C1B26260  15.732  28.106  13.347  0.2059  0.1166  0.1682
 2238POSM   D2B26261  15.964  28.478  13.237  0.0674  0.0225 -0.0631
 2238POSM   C3B26262  15.923  28.826  13.520  0.1473  0.0352 -0.1325
 2238POSM   C4B26263  15.730  29.224  13.433 -0.0631  0.0387 -0.2942
 2239POSM   NC326264  12.794  34.404  13.972  0.2153 -0.2573  0.0059
 2239POSM   PO426265  13.176  34.459  14.051  0.0073  0.0305 -0.2241
 2239POSM   AM126266  13.247  34.406  13.728 -0.0304 -0.1701 -0.1564
 2239POSM   AM226267  13.033  34.288  13.560 -0.2378  0.1496 -0.2273
 2239POSM   T1A26268  13.459  34.215  13.299  0.1132 -0.2081  0.0814
 2239POSM   C2A26269  13.350  33.942  13.037  0.0905  0.3394  0.2131
 2239POSM   C3A26270  13.643  33.651  12.820  0.0248 -0.0361 -0.1818
 2239POSM   C1B26271  12.954  34.275  13.185  0.1144  0.5334  0.0831
 2239POSM   D2B26272  12.830  34.533  12.835  0.2964 -0.1566 -0.0558
 2239POSM   C3B26273  12.921  34.524  12.425  0.0463 -0.1118  0.2541
 2239POSM   C4B26274  12.650  34.401  12.091 -0.0392 -0.0045 -0.3189
 2240DOPC   NC326275  18.656  25.742  13.722 -0.2648 -0.3554 -0.0083
 2240DOPC   PO426276  18.393  25.446  13.796 -0.3171 -0.0252 -0.0220
 2240DOPC   GL126277  18.240  25.416  13.418 -0.2746  0.0912  0.0321
 2240DOPC   GL226278  18.015  25.456  13.195 -0.1630 -0.0479  0.1531
 2240DOPC   C1A26279  18.478  25.603  13.070  0.2887 -0.1536 -0.2204
 2240DOPC   D2A26280  18.407  25.820  12.633  0.1969  0.1126  0.2379
 2240DOPC   C3A26281  18.711  25.605  12.351 -0.3143  0.4063 -0.0251
 2240DOPC   C4A26282  19.129  25.563  12.160 -0.3337 -0.2936  0.0129
 2240DOPC   C1B26283  18.047  25.469  12.741  0.0279 -0.3762 -0.2884
 2240DOPC   D2B26284  17.767  25.293  12.306 -0.1512  0.0420 -0.2240
 2240DOPC   C3B26285  17.856  25.347  11.833 -0.1469 -0.1400 -0.0436
 2240DOPC   C4B26286  18.069  25.384  11.380  0.2652 -0.2242 -0.1356
 2241DOPC   NC326287  21.651  27.875  14.489 -0.1318 -0.0967 -0.1435
 2241DOPC   PO426288  21.984  27.618  14.494  0.1943  0.0474 -0.0238
 2241DOPC   GL126289  22.062  27.738  14.130 -0.2051  0.3083  0.0055
 2241DOPC   GL226290  22.006  27.495  13.936 -0.0032  0.1578  0.1561
 2241DOPC   C1A26291  22.544  27.826  14.062  0.0604  0.0502  0.1771
 2241DOPC   D2A26292  22.925  27.625  13.914  0.2297 -0.1525 -0.0165
 2241DOPC   C3A26293  23.039  27.247  13.654  0.0695 -0.0361 -0.1470
 2241DOPC   C4A26294  22.916  27.145  13.221  0.1480  0.2241  0.1423
 2241DOPC   C1B26295  21.699  27.487  13.709  0.6336  0.0096  0.0168
 2241DOPC   D2B26296  21.497  27.411  13.293  0.1977 -0.0934  0.2958
 2241DOPC   C3B26297  21.718  27.501  12.915  0.0684 -0.1787 -0.0047
 2241DOPC   C4B26298  21.875  27.828  12.617 -0.2324 -0.1006 -0.0519
 2242DOPS   CNO26299  12.729  31.709  14.283 -0.1657 -0.4993 -0.0099
 2242DOPS   PO426300  12.920  31.823  13.976 -0.1877 -0.4145 -0.1388
 2242DOPS   GL126301  12.836  31.801  13.550  0.3630 -0.2381  0.0818
 2242DOPS   GL226302  12.644  31.869  13.424  0.5588 -0.1855  0.0704
 2242DOPS   C1A26303  13.100  31.705  13.190  0.0138 -0.0756  0.1697
 2242DOPS   D2A26304  13.174  31.574  12.787  0.1055  0.3261 -0.0187
 2242DOPS   C3A26305  13.039  31.163  12.718 -0.1252 -0.1521 -0.3079
 2242DOPS   C4A26306  12.711  30.833  12.918  0.2491 -0.0932 -0.1045
 2242DOPS   C1B26307  12.671  31.927  12.970  0.0367  0.0061  0.1723
 2242DOPS   D2B26308  12.508  31.934  12.556  0.0065  0.0553  0.0027
 2242DOPS   C3B26309  12.325  31.787  12.220  0.0781 -0.2555 -0.0269
 2242DOPS   C4B26310  11.970  31.886  11.945 -0.0994  0.2408  0.1563
 2243DOPE   NH326311  21.996  23.073  13.824  0.4732 -0.0736 -0.2125
 2243DOPE   PO426312  21.835  22.824  13.704 -0.1942  0.0974  0.0075
 2243DOPE   GL126313  22.118  22.951  13.393  0.1301  0.1725  0.4934
 2243DOPE   GL226314  21.974  23.121  13.302  0.1543 -0.0425  0.3331
 2243DOPE   C1A26315  22.310  22.578  13.167 -0.1700  0.0510 -0.0734
 2243DOPE   D2A26316  22.622  22.505  12.837 -0.0412  0.4925  0.0328
 2243DOPE   C3A26317  23.073  22.559  12.965  0.0919  0.5567 -0.3083
 2243DOPE   C4A26318  23.542  22.541  12.934  0.1928  0.0434  0.0464
 2243DOPE   C1B26319  22.124  23.090  12.884 -0.2315 -0.2075 -0.3704
 2243DOPE   D2B26320  22.252  23.254  12.449 -0.4175 -0.3871 -0.1511
 2243DOPE   C3B26321  22.746  23.368  12.445 -0.3932 -0.1076 -0.0246
 2243DOPE   C4B26322  22.980  23.517  12.056 -0.0978 -0.1880 -0.0653
 2244DOPS   CNO26323  21.235  29.095  14.640  0.1735  0.0911  0.0332
 2244DOPS   PO426324  21.575  28.942  14.492  0.1193  0.3213 -0.0167
 2244DOPS   GL126325  21.617  28.955  14.092  0.1350 -0.1908 -0.4656
 2244DOPS   GL226326  21.786  29.200  14.023  0.3728  0.1122  0.0346
 2244DOPS   C1A26327  21.287  28.786  13.763  0.1267  0.0513 -0.1112
 2244DOPS   D2A26328  21.125  28.474  13.414 -0.3156  0.1181  0.1115
 2244DOPS   C3A26329  21.402  28.431  13.066  0.0303  0.0909 -0.0163
 2244DOPS   C4A26330  21.440  28.352  12.611 -0.1431  0.0569 -0.2093
 2244DOPS   C1B26331  21.654  29.137  13.598  0.2935 -0.0236 -0.0171
 2244DOPS   D2B26332  21.616  29.092  13.136  0.0575 -0.1069 -0.0537
 2244DOPS   C3B26333  21.759  28.717  12.917 -0.1156 -0.2343 -0.2363
 2244DOPS   C4B26334  21.882  28.313  12.862 -0.1041  0.2224 -0.0590
 2245DOPE   NH326335  21.964  27.053  10.659 -0.0444  0.2939  0.0272
 2245DOPE   PO426336  22.222  27.247  10.724  0.1567  0.1061  0.1278
 2245DOPE   GL126337  22.196  27.136  11.094  0.2123  0.3541 -0.0926
 2245DOPE   GL226338  22.098  26.918  11.161  0.1609  0.3232  0.1212
 2245DOPE   C1A26339  22.285  27.389  11.475 -0.4242 -0.1916 -0.1589
 2245DOPE   D2A26340  22.143  27.848  11.588  0.1524 -0.0592  0.0705
 2245DOPE   C3A26341  21.929  27.824  12.031  0.2373 -0.0746 -0.2077
 2245DOPE   C4A26342  21.673  28.230  12.144  0.0986 -0.2838  0.2143
 2245DOPE   C1B26343  21.759  27.170  11.438 -0.0879  0.0006 -0.1644
 2245DOPE   D2B26344  21.383  27.210  11.685  0.2792  0.1456 -0.3093
 2245DOPE   C3B26345  21.368  27.398  12.109  0.1984 -0.4317 -0.0453
 2245DOPE   C4B26346  21.594  27.357  12.480  0.1969  0.1729  0.2369
 2246DOPS   CNO26347  16.855  27.074  10.461  0.2672 -0.0853  0.1147
 2246DOPS   PO426348  16.701  27.458  10.404 -0.0233 -0.2036  0.1328
 2246DOPS   GL126349  16.334  27.394  10.669 -0.0304 -0.1564 -0.1692
 2246DOPS   GL226350  16.479  27.483  10.858 -0.0269 -0.4110 -0.1794
 2246DOPS   C1A26351  16.254  27.025  10.913 -0.5580 -0.0529  0.0671
 2246DOPS   D2A26352  16.174  26.668  11.231  0.2374 -0.0873 -0.0374
 2246DOPS   C3A26353  16.380  26.639  11.655  0.3080  0.1102  0.3627
 2246DOPS   C4A26354  16.701  26.733  12.014  0.0129  0.2950 -0.1520
 2246DOPS   C1B26355  16.681  27.276  11.218  0.2083 -0.0577  0.2432
 2246DOPS   D2B26356  16.566  27.057  11.608  0.3105  0.1628  0.2620
 2246DOPS   C3B26357  16.752  27.211  12.024 -0.1711 -0.0958  0.0076
 2246DOPS   C4B26358  16.751  27.612  12.298 -0.1359  0.0021 -0.0787
 2247DOPE   NH326359  24.614  26.126  11.339 -0.0997  0.0617  0.3047
 2247DOPE   PO426360  24.397  25.901  11.193 -0.0207 -0.0385 -0.1892
 2247DOPE   GL126361  24.311  25.910  11.587  0.3530 -0.2204 -0.1880
 2247DOPE   GL226362  24.220  25.609  11.550  0.2812 -0.1360 -0.1368
 2247DOPE   C1A26363  23.871  26.001  11.653  0.0804  0.1740 -0.0912
 2247DOPE   D2A26364  23.639  26.209  11.367  0.1859 -0.2654 -0.1107
 2247DOPE   C3A26365  23.322  25.897  11.388  0.0049 -0.2063 -0.3241
 2247DOPE   C4A26366  23.109  25.460  11.403  0.0349  0.0380  0.1097
 2247DOPE   C1B26367  24.121  25.519  12.012 -0.0451 -0.0292  0.0973
 2247DOPE   D2B26368  24.069  25.213  12.337  0.0895 -0.2098 -0.0138
 2247DOPE   C3B26369  23.905  24.876  12.577 -0.3966  0.1260 -0.0299
 2247DOPE   C4B26370  24.008  24.579  12.938 -0.1254 -0.0594 -0.1017
 2248DOPE   NH326371  19.186  26.819  10.239  0.0375  0.0138  0.0131
 2248DOPE   PO426372  19.224  26.514  10.190  0.2241 -0.0354  0.0913
 2248DOPE   GL126373  19.001  26.407  10.539 -0.1151 -0.0980  0.2734
 2248DOPE   GL226374  18.942  26.585  10.664  0.4412  0.3337  0.0894
 2248DOPE   C1A26375  18.992  26.242  11.001 -0.1800  0.2144  0.1435
 2248DOPE   D2A26376  18.855  26.175  11.430  0.0120 -0.1108  0.0295
 2248DOPE   C3A26377  19.024  25.907  11.836 -0.0117 -0.1782 -0.0461
 2248DOPE   C4A26378  19.378  26.001  12.180  0.0889  0.1695  0.0598
 2248DOPE   C1B26379  19.321  26.888  10.778 -0.0259  0.0965 -0.2359
 2248DOPE   D2B26380  19.581  27.282  10.879 -0.2853 -0.0259 -0.2523
 2248DOPE   C3B26381  20.026  27.272  10.984  0.0367 -0.1398 -0.0981
 2248DOPE   C4B26382  20.273  26.876  11.169  0.0560  0.1612  0.2108
 2249DOPC   NC326383  22.964  26.442  10.373  0.1709  0.0065 -0.0537
 2249DOPC   PO426384  23.260  26.408  10.604 -0.0604  0.2748  0.2485
 2249DOPC   GL126385  23.243  26.303  10.990 -0.2170 -0.3433  0.0468
 2249DOPC   GL226386  23.362  26.571  11.218 -0.0255  0.2757  0.1889
 2249DOPC   C1A26387  22.915  26.196  11.252 -0.2564 -0.0099  0.1122
 2249DOPC   D2A26388  22.810  25.849  11.580  0.2107  0.0246  0.1855
 2249DOPC   C3A26389  22.626  26.082  11.964 -0.1052  0.2850  0.3567
 2249DOPC   C4A26390  22.595  26.092  12.441  0.0050  0.1120 -0.5013
 2249DOPC   C1B26391  23.533  26.659  11.625  0.0025 -0.0941 -0.2876
 2249DOPC   D2B26392  23.737  26.414  11.941 -0.4046 -0.2578 -0.3609
 2249DOPC   C3B26393  23.431  26.384  12.248  0.2489 -0.0370 -0.1073
 2249DOPC   C4B26394  23.037  26.164  12.239 -0.0631  0.0242 -0.2274
 2250DOPC   NC326395  15.713  30.506  10.822 -0.0966  0.1037  0.0494
 2250DOPC   PO426396  16.027  30.632  10.585 -0.0723  0.5302 -0.0719
 2250DOPC   GL126397  16.144  30.588  10.988  0.0620 -0.0710  0.0651
 2250DOPC   GL226398  16.309  30.806  11.100 -0.0600 -0.1795 -0.1773
 2250DOPC   C1A26399  15.894  30.319  11.262  0.0837 -0.1168  0.0671
 2250DOPC   D2A26400  15.638  30.123  11.565  0.0478  0.0352  0.0042
 2250DOPC   C3A26401  15.855  30.345  11.931  0.1128  0.2240  0.2380
 2250DOPC   C4A26402  16.203  30.431  12.150 -0.1571 -0.0724 -0.0105
 2250DOPC   C1B26403  15.972  30.867  11.358  0.1770  0.0070 -0.0982
 2250DOPC   D2B26404  15.655  31.246  11.418 -0.4082  0.2095  0.1927
 2250DOPC   C3B26405  15.413  31.418  11.767 -0.3108  0.1973 -0.2258
 2250DOPC   C4B26406  15.358  31.764  12.071  0.0163  0.1359  0.2252
 2251DOPE   NH326407  12.234  30.087  10.093  0.0036  0.3514  0.2801
 2251DOPE   PO426408  12.513  30.095  10.304  0.1704 -0.0510  0.0884
 2251DOPE   GL126409  12.303  30.075  10.707  0.0602  0.1808 -0.1281
 2251DOPE   GL226410  12.020  30.036  10.625 -0.1310 -0.1592 -0.3121
 2251DOPE   C1A26411  12.264  29.753  11.036 -0.0227 -0.3316  0.0588
 2251DOPE   D2A26412  12.114  29.671  11.468  0.0675 -0.0533 -0.0634
 2251DOPE   C3A26413  12.081  29.628  11.921 -0.0742 -0.0998 -0.0025
 2251DOPE   C4A26414  11.766  29.565  12.287 -0.0194 -0.0407  0.2124
 2251DOPE   C1B26415  11.963  30.257  11.024 -0.0700 -0.1290 -0.0664
 2251DOPE   D2B26416  12.004  30.335  11.477 -0.1073 -0.2111 -0.0625
 2251DOPE   C3B26417  12.260  30.099  11.802 -0.3507  0.2763  0.0149
 2251DOPE   C4B26418  12.494  30.295  12.197 -0.4307  0.1922 -0.4782
 2252DOPE   NH326419  22.842  33.273  11.723 -0.2395 -0.0126 -0.0637
 2252DOPE   PO426420  22.681  33.521  11.661  0.1183  0.1900  0.1636
 2252DOPE   GL126421  22.537  33.423  11.990  0.0423  0.0383 -0.0319
 2252DOPE   GL226422  22.229  33.349  11.926  0.0316 -0.1759  0.2897
 2252DOPE   C1A26423  22.381  33.692  12.340 -0.0478  0.0723 -0.1901
 2252DOPE   D2A26424  22.204  33.757  12.791  0.0296 -0.0533 -0.0054
 2252DOPE   C3A26425  22.111  33.321  12.968 -0.2706  0.0700 -0.3050
 2252DOPE   C4A26426  22.216  33.041  13.302  0.3367  0.0562 -0.2153
 2252DOPE   C1B26427  22.251  33.267  12.447 -0.0213 -0.2251  0.4552
 2252DOPE   D2B26428  21.949  32.933  12.608  0.1533  0.0684  0.0331
 2252DOPE   C3B26429  21.697  32.979  12.975  0.2336  0.2245  0.2922
 2252DOPE   C4B26430  21.541  33.169  13.327  0.1300 -0.1589 -0.2328
 2253DOPE   NH326431  19.357  30.137  11.178 -0.1975 -0.2075  0.0803
 2253DOPE   PO426432  19.557  30.162  11.422  0.2704 -0.1101 -0.0550
 2253DOPE   GL126433  19.188  30.129  11.769  0.1441  0.0410  0.0635
 2253DOPE   GL226434  18.932  30.157  11.707  0.0036 -0.2790  0.0314
 2253DOPE   C1A26435  18.975  30.180  12.203 -0.1296  0.0703  0.1522
 2253DOPE   D2A26436  18.953  30.113  12.608 -0.0166  0.2671  0.1076
 2253DOPE   C3A26437  19.057  30.546  12.735 -0.0648 -0.0640  0.0852
 2253DOPE   C4A26438  19.278  30.824  12.942 -0.0270  0.0610  0.0731
 2253DOPE   C1B26439  19.104  29.745  11.920 -0.0858  0.1273 -0.0442
 2253DOPE   D2B26440  19.330  29.657  12.327  0.0704  0.5768  0.4780
 2253DOPE   C3B26441  19.352  29.853  12.727 -0.1251 -0.2486  0.1600
 2253DOPE   C4B26442  19.157  29.943  13.141 -0.0992  0.0226 -0.2864
 2254POSM   NC326443  13.927  32.527  10.090 -0.4448 -0.4476  0.0562
 2254POSM   PO426444  13.785  32.753  10.380 -0.3578 -0.1003  0.2324
 2254POSM   AM126445  13.814  32.730  10.684  0.0343  0.2005 -0.0587
 2254POSM   AM226446  13.750  32.551  10.888  0.0033 -0.1081  0.0522
 2254POSM   T1A26447  13.903  32.891  11.168  0.1216  0.1137  0.2175
 2254POSM   C2A26448  13.802  33.181  11.479 -0.0954 -0.1588 -0.0654
 2254POSM   C3A26449  13.454  33.060  11.701  0.1360  0.1181  0.0359
 2254POSM   C1B26450  13.838  32.330  11.153  0.0156 -0.2797 -0.0034
 2254POSM   D2B26451  13.690  32.102  11.580 -0.0277  0.1602  0.0544
 2254POSM   C3B26452  13.516  32.374  11.950  0.1364  0.0610 -0.1097
 2254POSM   C4B26453  13.488  32.676  12.340  0.3252 -0.0258 -0.0401
 2255DOPE   NH326454  15.888  31.172  10.458  0.3204  0.4573 -0.0113
 2255DOPE   PO426455  15.818  31.468  10.532  0.0727 -0.4090  0.1779
 2255DOPE   GL126456  15.689  31.410  10.910 -0.2652 -0.2021 -0.0917
 2255DOPE   GL226457  15.765  31.651  11.094  0.2365 -0.1195 -0.0990
 2255DOPE   C1A26458  15.306  31.506  11.157  0.2827 -0.1552  0.0185
 2255DOPE   D2A26459  15.052  31.639  11.485 -0.2789 -0.3926  0.2390
 2255DOPE   C3A26460  14.943  31.989  11.803  0.1092  0.0715 -0.1415
 2255DOPE   C4A26461  15.107  32.474  11.902 -0.3211  0.1474  0.1225
 2255DOPE   C1B26462  15.701  31.902  11.445 -0.4057 -0.1741  0.0017
 2255DOPE   D2B26463  15.833  32.311  11.471 -0.0800 -0.2265  0.0395
 2255DOPE   C3B26464  16.255  32.272  11.695  0.2730 -0.0662 -0.0961
 2255DOPE   C4B26465  16.566  32.469  12.001  0.2017  0.0526  0.2144
 2256POSM   NC326466  18.423  34.300  10.237  0.1553  0.3476 -0.2975
 2256POSM   PO426467  18.677  34.067  10.398  0.1759  0.2620  0.4593
 2256POSM   AM126468  18.643  34.119  10.717 -0.0931 -0.3213  0.0478
 2256POSM   AM226469  18.839  34.131  10.917  0.2821  0.2953  0.1824
 2256POSM   T1A26470  18.462  34.237  11.212  0.2019 -0.1352 -0.0336
 2256POSM   C2A26471  18.430  34.108  11.627  0.1783  0.3093  0.1620
 2256POSM   C3A26472  18.297  33.823  11.993  0.1545 -0.0775 -0.2607
 2256POSM   C1B26473  19.048  34.121  11.177 -0.3894 -0.3257 -0.0972
 2256POSM   D2B26474  19.485  34.279  11.274 -0.0636  0.0201 -0.0939
 2256POSM   C3B26475  19.441  34.143  11.682 -0.1379 -0.1126 -0.1426
 2256POSM   C4B26476  19.149  34.179  12.028  0.0305 -0.0889  0.0073
 2257POSM   NC326477  12.276  27.256   9.252 -0.0378 -0.1605  0.0702
 2257POSM   PO426478  12.328  27.314   9.675 -0.0503 -0.1719  0.0721
 2257POSM   AM126479  12.189  27.025   9.829 -0.3144  0.0100 -0.0344
 2257POSM   AM226480  12.226  26.894  10.086 -0.1099 -0.1925 -0.0627
 2257POSM   T1A26481  11.795  26.706   9.911  0.2744  0.0420  0.1577
 2257POSM   C2A26482  11.656  26.292  10.124 -0.2166  0.1534 -0.0275
 2257POSM   C3A26483  11.594  25.922  10.348  0.1188  0.0261  0.0836
 2257POSM   C1B26484  12.170  26.907  10.410  0.0724 -0.1371  0.0633
 2257POSM   D2B26485  12.047  26.748  10.846  0.0035 -0.1259 -0.0460
 2257POSM   C3B26486  12.208  26.857  11.278  0.0389  0.0598 -0.0422
 2257POSM   C4B26487  12.122  27.128  11.617 -0.0704  0.1679 -0.0932
 2258DOPC   NC326488  20.033  31.971  10.807  0.1725 -0.2654 -0.2251
 2258DOPC   PO426489  19.712  32.221  10.683 -0.0846  0.1544  0.1452
 2258DOPC   GL126490  19.757  32.264  11.019 -0.3948  0.0443 -0.0990
 2258DOPC   GL226491  19.800  32.543  11.168 -0.2602 -0.0457 -0.0213
 2258DOPC   C1A26492  19.518  32.283  11.420  0.2187  0.3705  0.2030
 2258DOPC   D2A26493  19.626  31.933  11.692 -0.0014 -0.0944 -0.1088
 2258DOPC   C3A26494  19.771  31.517  11.654 -0.3345 -0.0658  0.1329
 2258DOPC   C4A26495  20.008  31.266  11.886  0.0886 -0.3425  0.1416
 2258DOPC   C1B26496  19.604  32.762  11.465 -0.2016 -0.0530 -0.1103
 2258DOPC   D2B26497  19.417  32.989  11.825  0.1253  0.0886  0.0763
 2258DOPC   C3B26498  19.748  33.041  12.099 -0.0943 -0.1905 -0.1148
 2258DOPC   C4B26499  20.097  33.177  12.420 -0.0202  0.0722 -0.1837
 2259DOPC   NC326500  17.967  34.082  10.363  0.3949 -0.0028 -0.1812
 2259DOPC   PO426501  18.212  33.891  10.607  0.0577 -0.4155  0.1887
 2259DOPC   GL126502  18.128  33.977  10.959  0.2064  0.1762 -0.1448
 2259DOPC   GL226503  18.181  33.775  11.245 -0.0654  0.1060  0.0227
 2259DOPC   C1A26504  17.986  34.317  11.203  0.0060  0.0613  0.1568
 2259DOPC   D2A26505  17.931  34.510  11.589  0.0644 -0.0927 -0.1113
 2259DOPC   C3A26506  18.197  34.452  11.908  0.1407  0.4641 -0.1601
 2259DOPC   C4A26507  18.644  34.315  11.980  0.0258 -0.3525  0.0309
 2259DOPC   C1B26508  18.238  33.513  11.632 -0.0624 -0.2010 -0.0463
 2259DOPC   D2B26509  18.524  33.255  11.934  0.1443  0.1086  0.2123
 2259DOPC   C3B26510  18.696  33.321  12.343  0.0349 -0.1473  0.1151
 2259DOPC   C4B26511  18.504  33.004  12.701  0.2743  0.1419  0.0106
 2260DOPC   NC326512  16.710  28.585  10.931  0.0082  0.7039  0.2455
 2260DOPC   PO426513  16.990  28.764  10.756 -0.0755 -0.2870 -0.3766
 2260DOPC   GL126514  17.138  28.391  10.760  0.2684 -0.4042 -0.0871
 2260DOPC   GL226515  17.034  28.123  10.927  0.1231 -0.1861  0.0884
 2260DOPC   C1A26516  17.471  28.398  11.097 -0.0928 -0.1095  0.0865
 2260DOPC   D2A26517  17.843  28.353  11.346 -0.0035  0.1609 -0.2065
 2260DOPC   C3A26518  17.940  28.747  11.666  0.1168  0.4160  0.0500
 2260DOPC   C4A26519  17.935  28.835  12.100  0.1689  0.1910 -0.0841
 2260DOPC   C1B26520  16.982  28.156  11.386 -0.0804  0.1781 -0.0268
 2260DOPC   D2B26521  16.834  28.188  11.887 -0.1802  0.2766  0.0994
 2260DOPC   C3B26522  17.022  28.065  12.270 -0.1005 -0.0626 -0.1949
 2260DOPC   C4B26523  17.329  27.783  12.500 -0.0265  0.3023 -0.2531
 2261DOPE   NH326524  19.504  21.446   8.735 -0.1141 -0.0882 -0.1723
 2261DOPE   PO426525  19.327  21.173   8.746 -0.3160 -0.0280 -0.0604
 2261DOPE   GL126526  19.414  20.990   9.123 -0.4212  0.1101 -0.1683
 2261DOPE   GL226527  19.501  20.719   9.145 -0.1327  0.1364  0.2542
 2261DOPE   C1A26528  19.137  21.085   9.488 -0.0114  0.2301  0.1645
 2261DOPE   D2A26529  18.735  21.292   9.718 -0.0770  0.0445  0.0704
 2261DOPE   C3A26530  18.944  21.206  10.159  0.2828 -0.0891  0.3780
 2261DOPE   C4A26531  19.167  21.006  10.487 -0.0036 -0.2097 -0.1020
 2261DOPE   C1B26532  19.629  20.929   9.511 -0.1073 -0.4330  0.2832
 2261DOPE   D2B26533  19.610  21.013  10.012  0.3955 -0.1388 -0.0963
 2261DOPE   C3B26534  19.507  21.345  10.306 -0.0840 -0.0611  0.1827
 2261DOPE   C4B26535  19.662  21.571  10.740  0.2327  0.2302 -0.0478
 2262POSM   NC326536  19.587  22.231   9.471 -0.0114  0.2105 -0.0341
 2262POSM   PO426537  19.380  22.347   9.192  0.2595  0.1944  0.1551
 2262POSM   AM126538  19.148  22.361   9.448 -0.0652  0.2537 -0.1062
 2262POSM   AM226539  19.146  22.159   9.688  0.1605 -0.0345 -0.2382
 2262POSM   T1A26540  18.662  22.413   9.555 -0.0589  0.0819  0.1678
 2262POSM   C2A26541  18.394  22.282   9.912  0.3565  0.1309  0.1068
 2262POSM   C3A26542  18.348  22.496  10.368  0.0886  0.0746  0.1059
 2262POSM   C1B26543  18.953  22.102   9.934  0.1586 -0.1950  0.3413
 2262POSM   D2B26544  18.595  22.036  10.294 -0.1696 -0.1944  0.0630
 2262POSM   C3B26545  18.747  22.052  10.735  0.3319  0.3655 -0.0819
 2262POSM   C4B26546  18.758  21.729  11.133  0.2673 -0.0920 -0.2000
 2263DOPE   NH326547  11.423  32.862  10.463 -0.1389  0.1412 -0.1042
 2263DOPE   PO426548  11.431  33.159  10.333 -0.1623 -0.1636  0.0992
 2263DOPE   GL126549  11.564  33.220  10.735 -0.2453 -0.2108 -0.3611
 2263DOPE   GL226550  11.311  33.376  10.873  0.0417 -0.0940 -0.1887
 2263DOPE   C1A26551  11.575  32.851  11.021 -0.0148 -0.0975  0.1120
 2263DOPE   D2A26552  11.839  32.666  11.370 -0.1219 -0.2009  0.2898
 2263DOPE   C3A26553  11.904  32.530  11.825 -0.0464  0.0559  0.0956
 2263DOPE   C4A26554  11.817  32.526  12.316  0.1019 -0.1130 -0.0939
 2263DOPE   C1B26555  11.142  33.233  11.279 -0.0922 -0.2779 -0.2066
 2263DOPE   D2B26556  11.035  33.133  11.751 -0.0751 -0.1271 -0.0165
 2263DOPE   C3B26557  11.163  33.507  11.980  0.4488 -0.2270 -0.7164
 2263DOPE   C4B26558  11.322  33.862  12.298 -0.0282 -0.3123 -0.0225
 2264DOPC   NC326559  22.490  25.169  10.195  0.0065 -0.1134 -0.1671
 2264DOPC   PO426560  22.193  25.453  10.297  0.2520 -0.0944  0.0507
 2264DOPC   GL126561  22.356  25.265  10.660 -0.2143 -0.1424 -0.1255
 2264DOPC   GL226562  22.158  25.110  10.780 -0.2773 -0.0657 -0.0994
 2264DOPC   C1A26563  22.362  25.447  11.067 -0.2374  0.1202 -0.0445
 2264DOPC   D2A26564  22.216  25.425  11.493 -0.1882 -0.0967  0.1901
 2264DOPC   C3A26565  21.782  25.429  11.639 -0.0722 -0.0659 -0.1845
 2264DOPC   C4A26566  21.454  25.465  11.974 -0.1117  0.2038  0.1050
 2264DOPC   C1B26567  21.989  25.144  11.166  0.3568 -0.1337  0.1775
 2264DOPC   D2B26568  21.780  24.868  11.519 -0.3948 -0.2644  0.0527
 2264DOPC   C3B26569  21.716  25.010  11.959  0.0508 -0.0521  0.1587
 2264DOPC   C4B26570  21.353  25.028  12.288  0.0153 -0.2059  0.0187
 2265POSM   NC326571  21.779  25.154  10.442  0.1729 -0.1569  0.0516
 2265POSM   PO426572  21.410  25.183  10.257  0.0155  0.2190  0.1552
 2265POSM   AM126573  21.365  24.970  10.538 -0.0971  0.0444 -0.3783
 2265POSM   AM226574  21.385  25.057  10.791  0.0052 -0.1175  0.0868
 2265POSM   T1A26575  21.261  24.594  10.856 -0.3127  0.0722 -0.0287
 2265POSM   C2A26576  21.178  24.580  11.320  0.1876 -0.1710 -0.1179
 2265POSM   C3A26577  20.813  24.667  11.528 -0.0351  0.1048  0.1414
 2265POSM   C1B26578  21.642  24.897  10.898  0.0898  0.3174  0.2441
 2265POSM   D2B26579  22.068  24.668  10.933 -0.3594 -0.3704 -0.3519
 2265POSM   C3B26580  22.150  24.474  11.387  0.1510 -0.0076  0.0860
 2265POSM   C4B26581  22.115  24.418  11.813 -0.3373 -0.0111  0.0284
 2266DOPE   NH326582  19.707  30.405  11.016 -0.0910  0.0009 -0.2768
 2266DOPE   PO426583  19.781  30.582  11.271 -0.1879  0.0342  0.0730
 2266DOPE   GL126584  19.817  30.825  11.613 -0.1782 -0.1687  0.0292
 2266DOPE   GL226585  19.573  30.806  11.758  0.0555  0.1027 -0.0408
 2266DOPE   C1A26586  20.110  30.765  11.942 -0.2741 -0.3533 -0.0318
 2266DOPE   D2A26587  20.421  30.731  12.286 -0.0122 -0.3308 -0.0651
 2266DOPE   C3A26588  20.519  30.414  12.574  0.1966  0.0811  0.0817
 2266DOPE   C4A26589  20.432  30.166  12.955 -0.2401  0.3686  0.0704
 2266DOPE   C1B26590  19.628  30.378  12.060  0.0269  0.1772  0.1257
 2266DOPE   D2B26591  19.682  29.964  11.925  0.0472  0.3634  0.0382
 2266DOPE   C3B26592  19.928  29.855  12.298 -0.1298 -0.1087 -0.4256
 2266DOPE   C4B26593  19.970  30.040  12.733 -0.1682 -0.1947  0.0761
 2267DOPE   NH326594  10.369  28.879   9.984  0.2386 -0.2240 -0.0799
 2267DOPE   PO426595  10.142  28.801  10.179 -0.2370  0.4590 -0.4250
 2267DOPE   GL126596   9.951  28.953  10.573 -0.3552  0.1220 -0.0142
 2267DOPE   GL226597   9.875  29.196  10.602  0.2851 -0.2301  0.0179
 2267DOPE   C1A26598  10.140  28.860  10.969  0.1654 -0.1499 -0.4216
 2267DOPE   D2A26599  10.436  28.840  11.336  0.1508 -0.0793  0.1284
 2267DOPE   C3A26600  10.249  28.580  11.667 -0.0361  0.0646 -0.1369
 2267DOPE   C4A26601   9.906  28.674  12.015 -0.3946  0.0266  0.3294
 2267DOPE   C1B26602  10.011  29.331  11.015 -0.1717  0.0230  0.0010
 2267DOPE   D2B26603  10.371  29.387  11.359 -0.1121 -0.2114 -0.2435
 2267DOPE   C3B26604  10.256  29.588  11.794 -0.0563 -0.0298 -0.0122
 2267DOPE   C4B26605  10.271  29.347  12.237 -0.1287 -0.0866 -0.0754
 2268DOPC   NC326606  15.473  30.166  10.314  0.0919 -0.3811 -0.0164
 2268DOPC   PO426607  15.774  30.120  10.547  0.1360 -0.1051 -0.1514
 2268DOPC   GL126608  15.786  30.023  10.907  0.0906  0.4112  0.3984
 2268DOPC   GL226609  15.505  30.007  11.071 -0.0783  0.1591  0.1330
 2268DOPC   C1A26610  15.984  29.779  11.248 -0.0187 -0.0454  0.0215
 2268DOPC   D2A26611  16.245  29.532  11.580 -0.0631  0.0221  0.0699
 2268DOPC   C3A26612  16.123  29.440  12.015  0.0331  0.1208 -0.0575
 2268DOPC   C4A26613  16.081  29.526  12.429  0.1915  0.0801 -0.0031
 2268DOPC   C1B26614  15.329  30.411  11.264  0.0485 -0.0117  0.0482
 2268DOPC   D2B26615  15.050  30.612  11.589  0.1111  0.1900 -0.0173
 2268DOPC   C3B26616  14.737  30.496  11.934  0.0066 -0.1722 -0.0744
 2268DOPC   C4B26617  14.383  30.385  12.142 -0.2350  0.0859  0.1613
 2269DOPE   NH326618  14.429  31.310  10.794  0.1989 -0.1319 -0.0840
 2269DOPE   PO426619  14.502  30.981  10.731  0.1621 -0.2602 -0.0198
 2269DOPE   GL126620  14.568  30.987  11.130  0.0227 -0.0204 -0.0942
 2269DOPE   GL226621  14.341  31.105  11.235 -0.2985  0.1474  0.1115
 2269DOPE   C1A26622  14.964  31.094  11.460  0.0459 -0.0684  0.0248
 2269DOPE   D2A26623  14.975  30.983  11.923  0.1792 -0.0734  0.0737
 2269DOPE   C3A26624  15.333  31.156  12.198 -0.1993  0.1302  0.0513
 2269DOPE   C4A26625  15.440  31.500  12.477 -0.1858 -0.0265 -0.0168
 2269DOPE   C1B26626  14.551  31.392  11.557 -0.0839  0.2090 -0.0627
 2269DOPE   D2B26627  14.875  31.504  11.936  0.0005  0.1208 -0.0090
 2269DOPE   C3B26628  14.877  31.478  12.377 -0.2436  0.2061 -0.0655
 2269DOPE   C4B26629  14.482  31.398  12.570 -0.0338 -0.2290 -0.0947
 2270POSM   NC326630  21.590  31.622  10.415 -0.1257  0.0594 -0.0857
 2270POSM   PO426631  21.403  31.675  10.691 -0.3748  0.0138  0.0765
 2270POSM   AM126632  21.460  31.544  10.965 -0.0505  0.3328  0.1311
 2270POSM   AM226633  21.673  31.630  11.148  0.0669 -0.0475  0.1950
 2270POSM   T1A26634  21.541  31.131  11.217  0.1459  0.0911 -0.1235
 2270POSM   C2A26635  21.460  30.871  11.587  0.0465 -0.2157  0.3702
 2270POSM   C3A26636  20.994  30.717  11.609 -0.0876 -0.0128 -0.0892
 2270POSM   C1B26637  21.618  31.577  11.462  0.0652 -0.1501 -0.0233
 2270POSM   D2B26638  21.851  31.564  11.881 -0.4339 -0.1642 -0.0538
 2270POSM   C3B26639  21.679  31.541  12.320 -0.1873  0.0798  0.0950
 2270POSM   C4B26640  21.219  31.640  12.301 -0.1584 -0.3226  0.1442
 2271DOPC   NC326641  18.439  31.501  11.310 -0.0386  0.1610  0.1029
 2271DOPC   PO426642  18.657  31.334  11.083 -0.0587  0.1369  0.0015
 2271DOPC   GL126643  18.935  31.282  11.391 -0.0582  0.0276 -0.4148
 2271DOPC   GL226644  18.777  31.410  11.638  0.0792  0.1857 -0.3134
 2271DOPC   C1A26645  19.157  31.131  11.770 -0.1501  0.3607  0.3359
 2271DOPC   D2A26646  19.072  31.189  12.238 -0.0219  0.1134  0.0981
 2271DOPC   C3A26647  18.903  31.021  12.623  0.0445  0.0421 -0.4252
 2271DOPC   C4A26648  18.782  30.838  13.020 -0.1081  0.2095 -0.0570
 2271DOPC   C1B26649  18.890  31.760  11.960  0.3110 -0.0757 -0.3519
 2271DOPC   D2B26650  18.992  31.705  12.400 -0.0567  0.1065 -0.0623
 2271DOPC   C3B26651  18.815  31.712  12.817 -0.0391 -0.3141 -0.4006
 2271DOPC   C4B26652  18.666  31.331  13.031 -0.1095  0.1580  0.1294
 2272POSM   NC326653  17.809   2.334   9.727 -0.0816 -0.0345  0.1451
 2272POSM   PO426654  17.696   2.024   9.949 -0.1124 -0.0426  0.1662
 2272POSM   AM126655  17.529   1.976  10.215  0.1376 -0.0222  0.0090
 2272POSM   AM226656  17.495   1.721  10.375 -0.1671  0.0105 -0.0797
 2272POSM   T1A26657  17.440   2.107  10.687 -0.1629  0.1758  0.0615
 2272POSM   C2A26658  17.561   1.921  11.075 -0.1660 -0.1736  0.1137
 2272POSM   C3A26659  17.335   1.971  11.511 -0.1044  0.0162  0.0910
 2272POSM   C1B26660  17.389   1.617  10.675  0.3027  0.1641  0.2065
 2272POSM   D2B26661  17.291   1.487  11.089 -0.0252 -0.0414  0.0370
 2272POSM   C3B26662  17.670   1.476  11.403  0.1551 -0.0299  0.2918
 2272POSM   C4B26663  17.434   1.592  11.820  0.0301 -0.0802  0.1656
 2273DOPE   NH326664  18.261  21.412   8.812  0.0882 -0.0982  0.0112
 2273DOPE   PO426665  18.098  21.660   8.906  0.0490  0.0887 -0.1376
 2273DOPE   GL126666  17.989  21.592   9.287  0.3022 -0.1215  0.1032
 2273DOPE   GL226667  18.211  21.392   9.352  0.0672 -0.2392 -0.1628
 2273DOPE   C1A26668  17.677  21.607   9.653  0.2390  0.0908  0.1410
 2273DOPE   D2A26669  17.273  21.644  10.030 -0.1199  0.4222  0.1067
 2273DOPE   C3A26670  17.385  21.290  10.348  0.3995  0.0299 -0.3451
 2273DOPE   C4A26671  17.578  21.188  10.780  0.0505  0.0149 -0.0844
 2273DOPE   C1B26672  18.155  21.516   9.806  0.0773  0.2146  0.0690
 2273DOPE   D2B26673  18.221  21.817  10.080 -0.1794 -0.0710  0.1487
 2273DOPE   C3B26674  18.107  22.063  10.409  0.2014 -0.1195  0.3499
 2273DOPE   C4B26675  17.725  22.160  10.678 -0.0651 -0.0999  0.1174
 2274DOPC   NC326676  22.385  28.667  11.153 -0.0438 -0.1364  0.2030
 2274DOPC   PO426677  22.158  28.409  10.970  0.1089  0.3567  0.2431
 2274DOPC   GL126678  22.175  28.269  11.315  0.1286  0.1123  0.1407
 2274DOPC   GL226679  21.918  28.341  11.417 -0.2913 -0.5056 -0.2273
 2274DOPC   C1A26680  22.498  28.168  11.604 -0.1803 -0.1497 -0.0602
 2274DOPC   D2A26681  22.634  27.769  11.791 -0.1658  0.3450  0.1393
 2274DOPC   C3A26682  22.243  27.478  11.935  0.1027 -0.0435 -0.2199
 2274DOPC   C4A26683  21.825  27.275  11.959 -0.1932 -0.0266  0.0600
 2274DOPC   C1B26684  22.089  28.314  11.846 -0.3952 -0.1703  0.0637
 2274DOPC   D2B26685  22.120  28.254  12.333  0.2774  0.1548  0.1507
 2274DOPC   C3B26686  22.346  27.874  12.347 -0.0151  0.1225 -0.3430
 2274DOPC   C4B26687  22.213  27.453  12.461  0.0044  0.3397 -0.2374
 2275DOPE   NH326688  24.023  24.629  10.979  0.0143 -0.1554 -0.2392
 2275DOPE   PO426689  23.936  24.393  10.831  0.4530 -0.5538  0.0490
 2275DOPE   GL126690  23.773  24.325  11.244 -0.3723 -0.1091  0.0749
 2275DOPE   GL226691  23.547  24.274  11.167 -0.0135 -0.0340 -0.1959
 2275DOPE   C1A26692  23.952  24.006  11.501 -0.0916  0.0827  0.2663
 2275DOPE   D2A26693  23.957  23.731  11.891  0.0537  0.1105 -0.1067
 2275DOPE   C3A26694  23.976  23.599  12.347  0.1987  0.4391 -0.0218
 2275DOPE   C4A26695  23.906  23.453  12.791  0.0924  0.2466  0.1663
 2275DOPE   C1B26696  23.208  24.424  11.458  0.1210  0.2347  0.0466
 2275DOPE   D2B26697  22.929  24.553  11.791  0.0889 -0.0985 -0.2163
 2275DOPE   C3B26698  22.563  24.779  11.984  0.0826  0.0028 -0.3368
 2275DOPE   C4B26699  22.254  25.124  11.975  0.1581 -0.0028  0.0849
 2276POSM   NC326700  13.521  27.804   9.561 -0.2071 -0.0536 -0.1437
 2276POSM   PO426701  13.716  27.942   9.870  0.0300  0.1614 -0.0436
 2276POSM   AM126702  13.941  27.735  10.025  0.2314  0.2765  0.0672
 2276POSM   AM226703  13.974  27.840  10.298 -0.2800  0.0329 -0.2774
 2276POSM   T1A26704  14.332  27.585  10.390  0.0870  0.0470 -0.1259
 2276POSM   C2A26705  14.422  27.359  10.797  0.1151 -0.1791  0.2203
 2276POSM   C3A26706  14.197  27.529  11.162  0.0239  0.2438  0.1980
 2276POSM   C1B26707  13.875  27.731  10.585  0.1917  0.1848  0.3816
 2276POSM   D2B26708  13.734  27.637  11.064 -0.0477 -0.1671  0.0125
 2276POSM   C3B26709  13.791  27.490  11.474 -0.2538  0.2108  0.2688
 2276POSM   C4B26710  13.757  27.589  11.906 -0.3533 -0.1151  0.2494
 2277DOPC   NC326711  20.240  29.329  10.754  0.0777  0.1965  0.1173
 2277DOPC   PO426712  20.360  29.669  10.842 -0.0917 -0.2686  0.1804
 2277DOPC   GL126713  20.337  29.565  11.203 -0.4804  0.4486 -0.6105
 2277DOPC   GL226714  20.300  29.219  11.226  0.1819  0.0729 -0.0202
 2277DOPC   C1A26715  20.042  29.555  11.606  0.1673  0.2130 -0.0897
 2277DOPC   D2A26716  19.735  29.457  11.981  0.0461 -0.1851 -0.0067
 2277DOPC   C3A26717  20.144  29.390  12.259  0.1519  0.0754 -0.0020
 2277DOPC   C4A26718  20.406  29.251  12.656  0.2199 -0.2873  0.3416
 2277DOPC   C1B26719  20.677  29.437  11.447  0.0418 -0.0281  0.0456
 2277DOPC   D2B26720  20.977  29.712  11.673  0.2521  0.0230 -0.2144
 2277DOPC   C3B26721  21.040  29.752  12.130  0.0240 -0.0646  0.4542
 2277DOPC   C4B26722  21.194  29.909  12.558  0.2071  0.1521 -0.3014
 2278POSM   NC326723  17.266  26.865  10.306 -0.1147 -0.1945 -0.0627
 2278POSM   PO426724  17.506  27.223  10.321 -0.0598 -0.1164 -0.1307
 2278POSM   AM126725  17.258  27.312  10.491  0.0218  0.1265  0.1810
 2278POSM   AM226726  17.136  27.519  10.631  0.3597 -0.2941  0.2032
 2278POSM   T1A26727  17.094  27.094  10.947  0.0415  0.1674  0.0491
 2278POSM   C2A26728  17.138  27.189  11.385  0.1856 -0.1447 -0.0612
 2278POSM   C3A26729  17.272  27.059  11.834  0.0831  0.3829  0.2826
 2278POSM   C1B26730  17.042  27.574  10.952  0.0560 -0.2206  0.2122
 2278POSM   D2B26731  16.769  27.721  11.278  0.1000 -0.1049 -0.1364
 2278POSM   C3B26732  16.882  27.634  11.740 -0.1134  0.2011  0.1231
 2278POSM   C4B26733  17.199  27.493  12.116  0.3269 -0.0374 -0.0026
 2279POSM   NC326734  14.562  32.107  10.532 -0.0890  0.0968  0.0661
 2279POSM   PO426735  14.769  32.339  10.731  0.0295  0.3001 -0.2303
 2279POSM   AM126736  14.870  32.403  11.059 -0.0098  0.1131 -0.4896
 2279POSM   AM226737  15.002  32.252  11.277 -0.0086 -0.0393  0.1181
 2279POSM   T1A26738  14.708  32.426  11.576 -0.1301  0.0931  0.0790
 2279POSM   C2A26739  14.685  32.322  12.037  0.1225  0.0823 -0.2844
 2279POSM   C3A26740  14.784  32.000  12.316 -0.1058 -0.0883 -0.0679
 2279POSM   C1B26741  15.262  32.127  11.501  0.1099  0.3043 -0.0598
 2279POSM   D2B26742  15.553  32.223  11.848  0.2050 -0.2941 -0.0330
 2279POSM   C3B26743  15.818  32.568  12.002 -0.1998  0.1592 -0.1118
 2279POSM   C4B26744  15.868  33.021  12.015  0.1305  0.0477  0.0712
 2280DOPC   NC326745  19.520  25.653  10.073 -0.1005 -0.1308  0.0881
 2280DOPC   PO426746  19.179  25.698   9.880 -0.1202  0.2641  0.2092
 2280DOPC   GL126747  19.157  25.546  10.313 -0.2714  0.2971  0.0815
 2280DOPC   GL226748  19.375  25.422  10.460 -0.1485  0.0947 -0.0073
 2280DOPC   C1A26749  18.823  25.401  10.612 -0.1612 -0.0467 -0.0103
 2280DOPC   D2A26750  18.545  25.493  10.930 -0.3550  0.5020 -0.0207
 2280DOPC   C3A26751  18.067  25.478  10.899 -0.0833  0.3889  0.0038
 2280DOPC   C4A26752  17.632  25.539  10.963  0.0625 -0.2388  0.0286
 2280DOPC   C1B26753  19.230  25.228  10.815  0.1349 -0.1666 -0.0087
 2280DOPC   D2B26754  18.979  25.227  11.197  0.2469 -0.0024 -0.0796
 2280DOPC   C3B26755  18.538  25.214  11.338  0.1172 -0.2831  0.3877
 2280DOPC   C4B26756  18.296  25.050  11.744 -0.2600 -0.1623  0.0355
 2281DOPE   NH326757  16.849  25.046   9.288 -0.0245 -0.2459  0.1455
 2281DOPE   PO426758  16.786  25.114   9.594  0.0241 -0.2681  0.0325
 2281DOPE   GL126759  16.813  24.902   9.840  0.0676  0.1102  0.3092
 2281DOPE   GL226760  16.672  24.643   9.911 -0.3015 -0.2005 -0.1238
 2281DOPE   C1A26761  17.105  24.727  10.160 -0.1655 -0.0879 -0.0410
 2281DOPE   D2A26762  17.483  24.766  10.452  0.0545 -0.0475  0.0316
 2281DOPE   C3A26763  17.525  24.582  10.886  0.1101 -0.3650 -0.3318
 2281DOPE   C4A26764  17.393  24.674  11.312  0.3308 -0.3971 -0.4399
 2281DOPE   C1B26765  16.358  24.334  10.070  0.0149 -0.0473 -0.4274
 2281DOPE   D2B26766  16.126  24.076  10.343 -0.0594  0.2293  0.3080
 2281DOPE   C3B26767  16.366  23.804  10.606  0.1753  0.0193  0.3432
 2281DOPE   C4B26768  16.494  23.573  10.989 -0.1235  0.1117  0.0519
 2282POSM   NC326769  13.433  33.927  10.399 -0.0177  0.0097  0.1074
 2282POSM   PO426770  13.728  33.620  10.408  0.0759 -0.1656  0.0818
 2282POSM   AM126771  13.726  33.552  10.729 -0.2676 -0.2090  0.3354
 2282POSM   AM226772  13.755  33.709  10.958  0.0833  0.1768  0.1088
 2282POSM   T1A26773  13.510  33.193  11.037  0.1709  0.1782  0.1268
 2282POSM   C2A26774  13.190  32.871  11.182  0.0418 -0.0284 -0.1059
 2282POSM   C3A26775  12.720  32.799  11.218  0.1923 -0.1603 -0.3716
 2282POSM   C1B26776  13.712  33.642  11.295 -0.2117 -0.0422 -0.1604
 2282POSM   D2B26777  13.748  33.536  11.755 -0.2657 -0.1119 -0.0628
 2282POSM   C3B26778  14.068  33.251  11.926 -0.1320 -0.1526  0.0056
 2282POSM   C4B26779  13.967  32.815  12.154  0.1026  0.2923 -0.1573
 2283POSM   NC326780  15.150  25.892   9.905  0.0485  0.0176 -0.0852
 2283POSM   PO426781  14.864  26.190   9.848  0.4203 -0.3781 -0.0142
 2283POSM   AM126782  14.816  26.370  10.129  0.1224  0.1372 -0.5012
 2283POSM   AM226783  14.915  26.497  10.366 -0.3192 -0.0615  0.0711
 2283POSM   T1A26784  14.434  26.538  10.436 -0.2035 -0.0997 -0.2299
 2283POSM   C2A26785  14.165  26.465  10.867 -0.0213 -0.0958  0.3701
 2283POSM   C3A26786  13.773  26.677  10.967  0.0017 -0.3282 -0.1576
 2283POSM   C1B26787  15.110  26.591  10.576 -0.2149 -0.1044 -0.1380
 2283POSM   D2B26788  15.239  26.923  10.807 -0.2588 -0.0458 -0.1514
 2283POSM   C3B26789  14.952  27.241  10.773 -0.0175  0.3878 -0.0836
 2283POSM   C4B26790  14.777  27.519  11.104  0.0719 -0.1226  0.5423
 2284DOPS   CNO26791  16.972  32.232  10.525 -0.0256 -0.0574 -0.2226
 2284DOPS   PO426792  17.267  32.188  10.761  0.1589  0.1812 -0.3429
 2284DOPS   GL126793  17.003  32.331  11.006  0.0668  0.3738 -0.1019
 2284DOPS   GL226794  17.146  32.594  11.016 -0.3016 -0.1669 -0.0490
 2284DOPS   C1A26795  17.053  32.111  11.428  0.0086  0.4116 -0.0852
 2284DOPS   D2A26796  17.063  31.683  11.691 -0.0656  0.0054 -0.1066
 2284DOPS   C3A26797  17.319  31.583  12.095  0.0486 -0.1106 -0.4372
 2284DOPS   C4A26798  17.211  31.454  12.555 -0.0861 -0.1605 -0.3543
 2284DOPS   C1B26799  17.003  32.755  11.377  0.0180  0.2781  0.1144
 2284DOPS   D2B26800  17.115  32.529  11.763 -0.2125  0.1857 -0.1748
 2284DOPS   C3B26801  17.161  32.563  12.269 -0.1210 -0.1506  0.1293
 2284DOPS   C4B26802  17.297  32.356  12.709 -0.1236 -0.2498  0.1651
 2285DOPC   NC326803  14.273  32.806  10.754 -0.0493 -0.1557  0.3406
 2285DOPC   PO426804  14.249  32.484  10.515 -0.0956  0.1675  0.4368
 2285DOPC   GL126805  14.182  32.311  10.859 -0.1022  0.0255  0.3118
 2285DOPC   GL226806  14.304  32.068  10.979  0.1800  0.0551  0.0972
 2285DOPC   C1A26807  14.291  32.558  11.228  0.4343 -0.5668  0.0801
 2285DOPC   D2A26808  14.011  32.604  11.609  0.1231 -0.3232 -0.0388
 2285DOPC   C3A26809  13.559  32.618  11.515 -0.1257  0.1043  0.1610
 2285DOPC   C4A26810  13.165  32.656  11.793  0.1386  0.1531  0.0787
 2285DOPC   C1B26811  14.192  32.084  11.413 -0.1091  0.3470 -0.1428
 2285DOPC   D2B26812  14.195  32.199  11.899  0.1239  0.1414  0.0440
 2285DOPC   C3B26813  14.301  31.898  12.264  0.2299 -0.1397  0.3233
 2285DOPC   C4B26814  14.065  31.509  12.394 -0.0696 -0.0500  0.0109
 2286POSM   NC326815  10.665  27.898   9.952  0.0699 -0.0331  0.3560
 2286POSM   PO426816  10.993  28.022  10.080  0.1819  0.2225 -0.2243
 2286POSM   AM126817  10.927  27.843  10.363  0.1319  0.0607 -0.1949
 2286POSM   AM226818  10.742  27.670  10.416 -0.0752  0.2462  0.0907
 2286POSM   T1A26819  10.970  27.954  10.903  0.1211  0.1799 -0.3802
 2286POSM   C2A26820  11.087  28.091  11.370 -0.1714  0.0714  0.3533
 2286POSM   C3A26821  11.359  28.003  11.689 -0.1549 -0.1595  0.3108
 2286POSM   C1B26822  10.736  27.562  10.746 -0.2254 -0.2688 -0.3131
 2286POSM   D2B26823  10.634  27.443  11.211 -0.0693 -0.2217 -0.0536
 2286POSM   C3B26824  10.473  27.086  11.420 -0.2407 -0.0632 -0.0004
 2286POSM   C4B26825  10.804  26.716  11.325  0.0382  0.1813  0.5099
 2287DOPE   NH326826  17.916  26.287  10.218 -0.1127  0.1767  0.0467
 2287DOPE   PO426827  18.165  26.143  10.067  0.1314 -0.1988  0.0024
 2287DOPE   GL126828  18.358  26.254  10.374  0.1272 -0.1010 -0.0279
 2287DOPE   GL226829  18.633  26.185  10.478 -0.1241 -0.2941 -0.0663
 2287DOPE   C1A26830  18.085  26.208  10.723  0.2073 -0.0779  0.0074
 2287DOPE   D2A26831  17.931  25.940  11.071  0.0173 -0.1281 -0.2477
 2287DOPE   C3A26832  18.040  26.180  11.439  0.0696  0.1502 -0.3096
 2287DOPE   C4A26833  18.372  26.225  11.707 -0.2141  0.1993 -0.0730
 2287DOPE   C1B26834  18.909  25.885  10.690  0.1395  0.1256  0.1075
 2287DOPE   D2B26835  19.188  25.751  11.014 -0.0740 -0.1602  0.1675
 2287DOPE   C3B26836  18.927  25.706  11.435  0.2027  0.1247  0.1358
 2287DOPE   C4B26837  18.604  25.583  11.794  0.3071  0.0767 -0.2687
 2288POSM   NC326838  12.421  31.513  10.031  0.2314 -0.0109  0.0299
 2288POSM   PO426839  12.322  31.197  10.235  0.4273  0.3892  0.1838
 2288POSM   AM126840  12.106  31.254  10.452 -0.0778  0.1521  0.6496
 2288POSM   AM226841  12.060  31.399  10.681  0.5056 -0.0701 -0.0765
 2288POSM   T1A26842  11.639  31.105  10.569 -0.3844 -0.0513 -0.0279
 2288POSM   C2A26843  11.278  31.289  10.826  0.1712  0.1870  0.1939
 2288POSM   C3A26844  10.973  31.390  11.147 -0.3047  0.1176  0.0985
 2288POSM   C1B26845  11.854  31.368  10.951  0.0746 -0.0132 -0.1029
 2288POSM   D2B26846  11.563  31.180  11.306 -0.0395 -0.1782 -0.0638
 2288POSM   C3B26847  11.395  31.109  11.704 -0.0812 -0.2726 -0.4258
 2288POSM   C4B26848  11.282  31.333  12.123 -0.0311  0.2315 -0.0019
 2289POSM   NC326849  14.642  30.465  10.669  0.0040  0.0784  0.0828
 2289POSM   PO426850  14.298  30.199  10.633  0.3272  0.1208 -0.0640
 2289POSM   AM126851  14.508  30.106  10.909 -0.0380 -0.3296 -0.1454
 2289POSM   AM226852  14.607  30.219  11.133 -0.1228  0.2075  0.0583
 2289POSM   T1A26853  14.537  29.734  11.268  0.0295  0.1934  0.1441
 2289POSM   C2A26854  14.400  29.705  11.673 -0.0800 -0.0098 -0.1756
 2289POSM   C3A26855  14.233  29.361  11.924  0.3185 -0.1480 -0.0047
 2289POSM   C1B26856  14.682  30.153  11.488  0.1849 -0.3212  0.0494
 2289POSM   D2B26857  14.718  30.009  11.991  0.3139 -0.2887  0.0300
 2289POSM   C3B26858  14.945  30.285  12.312 -0.2585 -0.1091  0.1464
 2289POSM   C4B26859  14.969  30.733  12.410 -0.1098  0.1880  0.0456
 2290POSM   NC326860  13.767  30.300  10.533  0.4530 -0.1462 -0.1331
 2290POSM   PO426861  13.394  30.387  10.640  0.0752 -0.0281  0.1667
 2290POSM   AM126862  13.510  30.400  10.931  0.1179  0.2067  0.2736
 2290POSM   AM226863  13.534  30.638  11.060 -0.1764 -0.0732  0.1005
 2290POSM   T1A26864  13.644  30.210  11.377 -0.1348 -0.2001 -0.2137
 2290POSM   C2A26865  13.476  30.174  11.780  0.0586  0.1392  0.0044
 2290POSM   C3A26866  13.498  30.341  12.213  0.0688  0.0130  0.5647
 2290POSM   C1B26867  13.823  30.641  11.245 -0.1495  0.0631  0.2105
 2290POSM   D2B26868  14.143  30.365  11.485 -0.0616 -0.2887  0.0244
 2290POSM   C3B26869  14.013  30.049  11.757 -0.0862  0.0581  0.1793
 2290POSM   C4B26870  13.689  29.842  12.054 -0.1173 -0.2301  0.3237
 2291DOPS   CNO26871  21.400  28.308  10.511 -0.1413 -0.0040 -0.4076
 2291DOPS   PO426872  21.769  28.190  10.543 -0.2976  0.0331 -0.0566
 2291DOPS   GL126873  21.694  28.000  10.778  0.0421 -0.1100 -0.1753
 2291DOPS   GL226874  21.935  27.976  10.962  0.2925 -0.1869 -0.1010
 2291DOPS   C1A26875  21.232  27.921  10.976 -0.0074  0.4610  0.1990
 2291DOPS   D2A26876  21.143  27.965  11.470  0.1178  0.1319  0.0281
 2291DOPS   C3A26877  20.805  27.945  11.834  0.0696  0.2689 -0.1857
 2291DOPS   C4A26878  20.560  27.702  12.103 -0.0228  0.2337  0.2208
 2291DOPS   C1B26879  21.631  27.925  11.306 -0.2650 -0.2680  0.1050
 2291DOPS   D2B26880  21.588  27.687  11.703  0.0194 -0.0610 -0.0964
 2291DOPS   C3B26881  21.314  27.887  11.982  0.2482  0.1468 -0.2586
 2291DOPS   C4B26882  21.151  28.270  12.258 -0.0818  0.0358 -0.0881
 2292POSM   NC326883  17.610  24.908   9.856  0.2587  0.1898  0.0998
 2292POSM   PO426884  17.628  25.319   9.793 -0.0022 -0.1242  0.1768
 2292POSM   AM126885  17.726  25.295  10.107 -0.6980 -0.0921 -0.0835
 2292POSM   AM226886  17.963  25.324  10.259 -0.2946 -0.0539 -0.3379
 2292POSM   T1A26887  17.678  25.193  10.607 -0.0501  0.0165 -0.0488
 2292POSM   C2A26888  17.351  25.077  10.909  0.2675  0.0613 -0.0866
 2292POSM   C3A26889  17.049  24.987  11.224  0.0500  0.2821 -0.1528
 2292POSM   C1B26890  18.201  25.292  10.455 -0.1126 -0.0072 -0.1456
 2292POSM   D2B26891  18.437  25.025  10.774  0.0642  0.1027  0.1046
 2292POSM   C3B26892  18.885  24.926  10.709 -0.1094  0.0485  0.0713
 2292POSM   C4B26893  19.252  24.734  10.866  0.1629  0.0027  0.1336
 2293DOPE   NH326894  21.293  27.064  10.372  0.0275 -0.1416 -0.1496
 2293DOPE   PO426895  21.048  27.139  10.474 -0.0408  0.0626  0.0504
 2293DOPE   GL126896  20.959  26.775  10.697  0.3964  0.1136 -0.2497
 2293DOPE   GL226897  21.010  26.512  10.660 -0.1496 -0.0651  0.0191
 2293DOPE   C1A26898  20.736  26.664  11.124 -0.0891 -0.0313 -0.2883
 2293DOPE   D2A26899  20.912  26.620  11.547 -0.1690 -0.1096 -0.0125
 2293DOPE   C3A26900  20.979  26.945  11.858  0.1437 -0.0492  0.1895
 2293DOPE   C4A26901  20.929  27.436  11.837 -0.0480  0.5376  0.0308
 2293DOPE   C1B26902  21.175  26.578  11.076 -0.0166 -0.2017  0.0264
 2293DOPE   D2B26903  21.592  26.458  11.186  0.1223 -0.0827 -0.0202
 2293DOPE   C3B26904  21.856  26.504  11.540 -0.3052 -0.1492  0.0846
 2293DOPE   C4B26905  21.948  26.812  11.853 -0.2719 -0.0535 -0.2710
 2294DOPE   NH326906  22.684  34.012  11.559  0.0616 -0.0706  0.0016
 2294DOPE   PO426907  22.984  33.884  11.448  0.1222 -0.0112  0.0505
 2294DOPE   GL126908  23.067  33.760  11.781 -0.0834 -0.2091  0.0922
 2294DOPE   GL226909  22.850  33.832  11.990 -0.2823 -0.3046  0.0391
 2294DOPE   C1A26910  23.317  33.866  12.171 -0.0243  0.1233  0.0316
 2294DOPE   D2A26911  23.690  34.027  12.430 -0.1765  0.1120  0.2281
 2294DOPE   C3A26912  23.562  34.273  12.798  0.1202 -0.3508 -0.2684
 2294DOPE   C4A26913  23.143  34.482  12.967 -0.0351 -0.0711  0.1727
 2294DOPE   C1B26914  22.751  34.013  12.424  0.2554 -0.1912 -0.3645
 2294DOPE   D2B26915  22.722  34.134  12.874 -0.2880 -0.3880  0.2455
 2294DOPE   C3B26916  23.075  33.932  13.119  0.0467 -0.2126 -0.0477
 2294DOPE   C4B26917  23.540  33.821  13.029  0.0363  0.1668  0.1102
 2295DOPE   NH326918  18.028  30.009  11.318  0.0485  0.1129 -0.0864
 2295DOPE   PO426919  18.032  30.277  11.468 -0.0967  0.3210 -0.0540
 2295DOPE   GL126920  17.947  30.270  11.835 -0.0058 -0.0922 -0.4578
 2295DOPE   GL226921  17.698  30.207  11.893 -0.4368  0.0168  0.1478
 2295DOPE   C1A26922  17.951  30.265  12.273 -0.1069  0.1806 -0.1634
 2295DOPE   D2A26923  17.906  30.310  12.695  0.5973 -0.1084  0.0823
 2295DOPE   C3A26924  18.275  30.112  12.908 -0.1421 -0.2319  0.0473
 2295DOPE   C4A26925  18.701  30.296  13.080  0.4061 -0.2034  0.1989
 2295DOPE   C1B26926  17.558  29.805  12.057 -0.0151  0.4241 -0.1792
 2295DOPE   D2B26927  17.608  29.463  12.377 -0.0804 -0.0674  0.0961
 2295DOPE   C3B26928  17.706  29.675  12.843  0.1469  0.1283  0.1792
 2295DOPE   C4B26929  17.654  30.132  13.087 -0.0467  0.0167 -0.1236
 2296DOPE   NH326930  15.979  28.267  10.648  0.2534  0.0927 -0.1297
 2296DOPE   PO426931  15.728  28.477  10.638 -0.2050  0.0310  0.0686
 2296DOPE   GL126932  15.647  28.426  11.045  0.1911 -0.2020  0.4248
 2296DOPE   GL226933  15.837  28.169  11.174 -0.0240 -0.1891 -0.1064
 2296DOPE   C1A26934  15.272  28.515  11.275 -0.0703  0.2045 -0.0531
 2296DOPE   D2A26935  15.245  28.389  11.709 -0.0414 -0.1546  0.0777
 2296DOPE   C3A26936  15.017  28.017  11.829  0.1822 -0.0460  0.1058
 2296DOPE   C4A26937  14.546  27.934  11.910 -0.0380 -0.0007 -0.0786
 2296DOPE   C1B26938  15.942  27.911  11.576  0.0018  0.1438  0.3214
 2296DOPE   D2B26939  15.924  27.811  12.045  0.2939  0.0051  0.2228
 2296DOPE   C3B26940  15.962  28.013  12.482 -0.0431 -0.0544 -0.3052
 2296DOPE   C4B26941  15.677  28.236  12.758  0.1433  0.6042 -0.1602
 2297POSM   NC326942  11.339  27.232   9.028  0.1274  0.2630 -0.1063
 2297POSM   PO426943  11.465  27.064   9.387 -0.1839 -0.1262 -0.2254
 2297POSM   AM126944  11.443  27.072   9.741 -0.1585 -0.1204  0.2404
 2297POSM   AM226945  11.272  27.069   9.961 -0.3619  0.2982  0.1748
 2297POSM   T1A26946  11.781  27.209  10.138  0.0339 -0.1442  0.2972
 2297POSM   C2A26947  11.891  27.401  10.506  0.0410 -0.1247  0.0826
 2297POSM   C3A26948  12.271  27.260  10.736 -0.0316 -0.0479 -0.1329
 2297POSM   C1B26949  11.286  27.183  10.303 -0.1193 -0.0876 -0.0953
 2297POSM   D2B26950  11.331  27.148  10.780 -0.0377 -0.0712  0.1401
 2297POSM   C3B26951  11.784  27.205  10.961 -0.4067 -0.0080 -0.1758
 2297POSM   C4B26952  11.949  27.449  11.328  0.1988 -0.0491 -0.3367
 2298DOPC   NC326953  22.048  33.146  11.213  0.1716 -0.0473 -0.2411
 2298DOPC   PO426954  22.333  33.171  11.490  0.0842 -0.1494  0.0377
 2298DOPC   GL126955  22.434  32.864  11.771  0.0714  0.1131  0.0055
 2298DOPC   GL226956  22.597  32.900  11.985 -0.0359  0.1145 -0.0097
 2298DOPC   C1A26957  22.444  32.438  11.986 -0.0457  0.0464 -0.1335
 2298DOPC   D2A26958  22.508  32.172  12.410 -0.1773 -0.1269  0.0557
 2298DOPC   C3A26959  22.142  32.029  12.664  0.0089  0.3059  0.1282
 2298DOPC   C4A26960  21.853  32.044  13.045 -0.0887  0.0393  0.2080
 2298DOPC   C1B26961  22.533  32.808  12.415  0.0947  0.1374  0.2494
 2298DOPC   D2B26962  22.446  32.963  12.846 -0.2166 -0.1052 -0.1849
 2298DOPC   C3B26963  22.804  33.198  13.076  0.1236 -0.2188  0.2729
 2298DOPC   C4B26964  23.126  33.496  13.060  0.1521  0.0906  0.0180
 2299DOPC   NC326965  16.769   0.637  10.210  0.0412 -0.2259  0.0297
 2299DOPC   PO426966  16.492   0.739   9.959  0.0407  0.0445  0.0726
 2299DOPC   GL126967  16.222   0.547  10.261 -0.1485  0.2203 -0.0798
 2299DOPC   GL226968  16.009   0.416  10.460  0.1355  0.3343  0.0016
 2299DOPC   C1A26969  16.307   0.871  10.622  0.2754  0.3702 -0.0697
 2299DOPC   D2A26970  16.413   0.993  11.047  0.1821  0.1903  0.1955
 2299DOPC   C3A26971  16.810   1.273  11.122 -0.2556 -0.1838  0.1568
 2299DOPC   C4A26972  17.003   1.514  11.505  0.1884  0.4326  0.0356
 2299DOPC   C1B26973  16.040   0.373  10.919  0.2401 -0.1253 -0.0038
 2299DOPC   D2B26974  16.052   0.239  11.366  0.3642 -0.0313  0.2526
 2299DOPC   C3B26975  16.087   0.385  11.830  0.0329 -0.4172  0.0848
 2299DOPC   C4B26976  16.050   0.692  12.138 -0.1477 -0.2280 -0.2196
 2300POSM   NC326977  16.343  27.802  10.421  0.2181  0.0605 -0.2383
 2300POSM   PO426978  15.965  27.809  10.455  0.0411 -0.0257 -0.0813
 2300POSM   AM126979  15.977  27.738  10.769  0.0530  0.1411 -0.1598
 2300POSM   AM226980  16.134  27.852  10.952  0.1663  0.0481  0.1824
 2300POSM   T1A26981  15.731  27.596  11.178 -0.1950  0.1963 -0.2426
 2300POSM   C2A26982  15.732  27.470  11.649 -0.0503  0.0050  0.0193
 2300POSM   C3A26983  15.447  27.587  12.034 -0.2200 -0.2678  0.0514
 2300POSM   C1B26984  16.193  27.744  11.188 -0.2287 -0.1346  0.0563
 2300POSM   D2B26985  16.307  27.523  11.542 -0.0801  0.0076 -0.0396
 2300POSM   C3B26986  16.336  27.436  11.968 -0.0091  0.5021 -0.1018
 2300POSM   C4B26987  16.280  27.580  12.401  0.0640 -0.2258  0.1483
 2301POSM   NC326988  18.265   0.881  10.496  0.0879 -0.0629 -0.1523
 2301POSM   PO426989  18.028   0.615  10.615  0.0908  0.2128  0.2267
 2301POSM   AM126990  18.036   0.681  10.936 -0.1914 -0.0586  0.0769
 2301POSM   AM226991  17.917   0.450  11.127 -0.0011  0.0893  0.0544
 2301POSM   T1A26992  18.296   0.664  11.401  0.1703 -0.1589  0.1486
 2301POSM   C2A26993  18.453   0.571  11.809  0.1798 -0.2611  0.1097
 2301POSM   C3A26994  18.723   0.495  12.166 -0.1116 -0.0640  0.1074
 2301POSM   C1B26995  18.039   0.223  11.363  0.0398  0.3188  0.1055
 2301POSM   D2B26996  18.171   0.116  11.761 -0.1681  0.0149 -0.1597
 2301POSM   C3B26997  17.938   0.091  12.188 -0.2286 -0.0248  0.3194
 2301POSM   C4B26998  17.727  -0.242  12.338  0.1809 -0.0368  0.1216
 2302DOPS   CNO26999  22.171  26.303  10.220  0.1761 -0.1569 -0.2357
 2302DOPS   PO427000  22.390  26.406  10.490 -0.2421  0.1148  0.1174
 2302DOPS   GL127001  22.355  26.273  10.885  0.0949 -0.2511  0.2528
 2302DOPS   GL227002  22.182  26.087  10.916  0.2147  0.2711  0.1022
 2302DOPS   C1A27003  22.313  26.441  11.279  0.2913  0.1168  0.2873
 2302DOPS   D2A27004  22.617  26.440  11.605 -0.5345 -0.0826 -0.3571
 2302DOPS   C3A27005  22.268  26.474  11.906  0.0661 -0.4004 -0.2263
 2302DOPS   C4A27006  21.857  26.370  12.123 -0.2613  0.0205 -0.1058
 2302DOPS   C1B27007  21.932  25.905  11.324 -0.0311 -0.1441 -0.0334
 2302DOPS   D2B27008  21.670  25.976  11.725  0.3572 -0.2197  0.2142
 2302DOPS   C3B27009  21.453  26.409  11.922 -0.0450 -0.0949 -0.1961
 2302DOPS   C4B27010  21.034  26.490  11.994  0.2495 -0.0893 -0.0978
 2303DOPE   NH327011  19.836  34.539  10.487  0.0733  0.1249  0.0876
 2303DOPE   PO427012  20.163  34.439  10.534  0.0359  0.0414  0.0665
 2303DOPE   GL127013  20.030  34.608  10.900 -0.0415 -0.1143 -0.1014
 2303DOPE   GL227014  19.778  34.707  10.990  0.0372 -0.0013  0.0910
 2303DOPE   C1A27015  20.255  34.967  11.133 -0.2336 -0.0075  0.1973
 2303DOPE   D2A27016  20.147  35.140  11.542 -0.0878  0.1543 -0.3997
 2303DOPE   C3A27017  20.375  35.229  11.970 -0.0728  0.0216  0.0877
 2303DOPE   C4A27018  20.713  34.955  12.129  0.1159 -0.0511  0.1963
 2303DOPE   C1B27019  19.502  34.794  11.338  0.3007 -0.1657 -0.3432
 2303DOPE   D2B27020  19.637  35.046  11.705 -0.0210 -0.4034  0.0627
 2303DOPE   C3B27021  19.951  35.115  12.021 -0.0380  0.0313 -0.0017
 2303DOPE   C4B27022  19.938  35.151  12.518  0.1599 -0.0992  0.0149
 2304DOPC   NC327023  21.881  27.637  10.575 -0.1336 -0.0085  0.3269
 2304DOPC   PO427024  21.590  27.384  10.618  0.2802 -0.0375  0.1745
 2304DOPC   GL127025  21.302  27.322  10.882  0.2645  0.0596 -0.3407
 2304DOPC   GL227026  21.387  27.500  11.126 -0.1441  0.1335 -0.1819
 2304DOPC   C1A27027  21.211  27.041  11.263  0.0683  0.0613 -0.0004
 2304DOPC   D2A27028  21.414  26.734  11.540  0.2120 -0.1313 -0.1106
 2304DOPC   C3A27029  21.484  26.888  12.015  0.0382 -0.1294  0.1130
 2304DOPC   C4A27030  21.825  26.898  12.317  0.1645  0.4491 -0.0133
 2304DOPC   C1B27031  20.981  27.516  11.232  0.1860 -0.1150  0.0541
 2304DOPC   D2B27032  20.634  27.833  11.402 -0.0680  0.2385 -0.1092
 2304DOPC   C3B27033  20.340  27.564  11.683 -0.0129  0.0278  0.0602
 2304DOPC   C4B27034  20.085  27.129  11.717 -0.2390 -0.3522  0.2089
 2305DOPC   NC327035  16.446  34.413  10.079 -0.1768  0.0078 -0.1086
 2305DOPC   PO427036  16.238  34.287  10.434  0.1953  0.2679  0.0148
 2305DOPC   GL127037  16.468  34.289  10.729  0.1237 -0.2025  0.3106
 2305DOPC   GL227038  16.255  34.285  10.990  0.0326 -0.0682 -0.0235
 2305DOPC   C1A27039  16.841  34.340  11.036  0.1926  0.0403  0.0460
 2305DOPC   D2A27040  17.113  34.555  11.357  0.0431  0.0755 -0.1430
 2305DOPC   C3A27041  17.004  34.783  11.672 -0.1272 -0.3806 -0.0930
 2305DOPC   C4A27042  16.964  35.024  12.079 -0.1183 -0.0750 -0.1708
 2305DOPC   C1B27043  16.307  34.153  11.458  0.3521 -0.1100  0.1525
 2305DOPC   D2B27044  16.179  33.927  11.787  0.1118  0.2145  0.1705
 2305DOPC   C3B27045  16.454  33.930  12.127 -0.0519 -0.1648 -0.0877
 2305DOPC   C4B27046  16.926  33.900  12.216 -0.0116  0.1565  0.0497
 2306DOPC   NC327047  17.530   1.184   9.710 -0.0814 -0.0297 -0.0859
 2306DOPC   PO427048  17.537   1.153  10.111  0.0345 -0.0510 -0.1485
 2306DOPC   GL127049  17.540   1.172  10.496  0.0818  0.3120 -0.1764
 2306DOPC   GL227050  17.711   0.982  10.535 -0.0369 -0.0912 -0.1964
 2306DOPC   C1A27051  17.895   1.390  10.759  0.0992  0.4462  0.0346
 2306DOPC   D2A27052  18.099   1.544  11.092  0.1342 -0.0833 -0.2312
 2306DOPC   C3A27053  18.167   1.432  11.547  0.0249 -0.0367  0.1831
 2306DOPC   C4A27054  17.935   1.435  11.916  0.2571  0.1363 -0.1228
 2306DOPC   C1B27055  17.654   1.042  11.011  0.0869  0.2962  0.2229
 2306DOPC   D2B27056  17.509   0.726  11.344  0.0512  0.0708 -0.1901
 2306DOPC   C3B27057  17.780   0.612  11.711 -0.0574 -0.4018  0.3170
 2306DOPC   C4B27058  17.961   0.624  12.134 -0.0318  0.0040  0.0741
 2307DOPE   NH327059  20.498  25.188  10.292  0.2047  0.0036  0.0292
 2307DOPE   PO427060  20.278  25.410  10.164 -0.2109 -0.0591  0.0910
 2307DOPE   GL127061  20.313  25.521  10.564  0.2687 -0.1835  0.0039
 2307DOPE   GL227062  20.437  25.826  10.529  0.0789  0.0940  0.1679
 2307DOPE   C1A27063  20.414  25.198  10.949 -0.1140 -0.1223 -0.0665
 2307DOPE   D2A27064  20.431  24.857  11.281  0.1141  0.0702  0.2788
 2307DOPE   C3A27065  20.391  24.924  11.710  0.0348 -0.1297  0.2493
 2307DOPE   C4A27066  20.495  25.220  12.096  0.5038  0.4579  0.1526
 2307DOPE   C1B27067  20.411  25.768  10.943 -0.1457  0.0058 -0.0074
 2307DOPE   D2B27068  20.267  25.880  11.381  0.1594 -0.1132 -0.1976
 2307DOPE   C3B27069  19.948  26.174  11.497 -0.0130  0.1954  0.0118
 2307DOPE   C4B27070  19.630  26.172  11.800  0.0915  0.1000  0.3262
 2308DOPC   NC327071  20.692  32.908  10.782  0.0113  0.3666  0.0516
 2308DOPC   PO427072  20.797  32.600  10.996 -0.3263  0.2625  0.0264
 2308DOPC   GL127073  20.729  32.808  11.314 -0.0720 -0.2605  0.3508
 2308DOPC   GL227074  20.835  33.082  11.302  0.0228 -0.0303  0.3503
 2308DOPC   C1A27075  20.669  32.913  11.758 -0.0535  0.1776 -0.0865
 2308DOPC   D2A27076  20.424  33.286  11.896  0.1158 -0.0963  0.0054
 2308DOPC   C3A27077  20.557  33.589  12.262 -0.3053  0.0141  0.1490
 2308DOPC   C4A27078  20.816  33.719  12.642 -0.1742 -0.5150  0.0717
 2308DOPC   C1B27079  21.085  32.777  11.588  0.2583 -0.3005 -0.0912
 2308DOPC   D2B27080  21.196  32.396  11.834 -0.0266  0.0025 -0.1033
 2308DOPC   C3B27081  21.173  32.274  12.321  0.1905  0.0418  0.0457
 2308DOPC   C4B27082  21.095  31.934  12.657 -0.1173  0.2029 -0.0740
 2309POSM   NC327083  15.554  28.235  10.229  0.2606  0.0503 -0.2401
 2309POSM   PO427084  15.362  28.544  10.287  0.1231 -0.3047 -0.2158
 2309POSM   AM127085  15.220  28.752  10.519  0.2917 -0.4315  0.3344
 2309POSM   AM227086  15.379  28.812  10.777 -0.0580 -0.1062 -0.3286
 2309POSM   T1A27087  14.928  29.062  10.801  0.0916 -0.0802 -0.0997
 2309POSM   C2A27088  14.558  29.196  11.037 -0.2197  0.1250 -0.0006
 2309POSM   C3A27089  14.115  29.100  10.987 -0.0605 -0.2692  0.1788
 2309POSM   C1B27090  15.355  28.962  11.104 -0.0637  0.3888 -0.0235
 2309POSM   D2B27091  15.305  29.009  11.586  0.1772 -0.1432  0.3206
 2309POSM   C3B27092  15.386  28.748  11.996 -0.1744 -0.0805 -0.0146
 2309POSM   C4B27093  15.682  28.572  12.329  0.0912  0.2155 -0.2231
 2310DOPS   CNO27094  15.144  22.144   8.405  0.1911  0.2715 -0.1520
 2310DOPS   PO427095  15.275  22.033   8.764  0.0753  0.1300  0.1955
 2310DOPS   GL127096  15.329  21.852   9.053  0.1787 -0.1233  0.4326
 2310DOPS   GL227097  15.087  21.632   9.058 -0.0956  0.2969 -0.0666
 2310DOPS   C1A27098  15.678  21.977   9.379 -0.0121  0.1037 -0.1772
 2310DOPS   D2A27099  15.579  21.863   9.821  0.3677 -0.0238  0.1177
 2310DOPS   C3A27100  15.682  22.287  10.038 -0.2146  0.0969 -0.0444
 2310DOPS   C4A27101  15.477  22.612  10.155 -0.1496  0.4476 -0.0880
 2310DOPS   C1B27102  15.511  21.459   9.200  0.0477 -0.2848 -0.0356
 2310DOPS   D2B27103  15.763  21.139   9.421 -0.0039 -0.1550  0.2977
 2310DOPS   C3B27104  15.575  21.031   9.855  0.2001  0.1313  0.0152
 2310DOPS   C4B27105  15.221  20.921  10.218  0.2571 -0.1903  0.1171
 2311DOPE   NH327106  12.738  29.268  10.067  0.0043 -0.2590  0.0359
 2311DOPE   PO427107  12.605  29.325  10.344  0.3962 -0.2615  0.3814
 2311DOPE   GL127108  12.576  29.556  10.705 -0.2009 -0.1446 -0.1329
 2311DOPE   GL227109  12.691  29.398  10.931 -0.3429  0.0755  0.0078
 2311DOPE   C1A27110  12.692  29.948  10.904 -0.0848 -0.3067  0.1861
 2311DOPE   D2A27111  13.026  30.211  11.055  0.1017  0.1236  0.0426
 2311DOPE   C3A27112  13.068  30.343  11.522 -0.0076  0.1486 -0.2934
 2311DOPE   C4A27113  12.714  30.359  11.741  0.0101 -0.0506  0.0917
 2311DOPE   C1B27114  12.681  29.446  11.397  0.0359  0.0628  0.1794
 2311DOPE   D2B27115  12.467  29.383  11.820 -0.1421  0.3326  0.2940
 2311DOPE   C3B27116  12.093  29.159  11.910  0.0951  0.0162 -0.1806
 2311DOPE   C4B27117  11.648  29.160  11.899 -0.0945  0.1994  0.3342
 2312POSM   NC327118  12.702  25.961   8.966 -0.1723  0.1825 -0.0935
 2312POSM   PO427119  12.702  26.037   9.372 -0.1542 -0.0353  0.0194
 2312POSM   AM127120  12.658  25.918   9.701  0.0074 -0.1374 -0.1995
 2312POSM   AM227121  12.757  25.732   9.898 -0.0137 -0.3536 -0.1427
 2312POSM   T1A27122  12.636  26.141  10.165  0.0942 -0.0351  0.1698
 2312POSM   C2A27123  12.470  26.208  10.596  0.0522 -0.0692 -0.2484
 2312POSM   C3A27124  12.422  26.481  11.007 -0.2134 -0.2372 -0.0841
 2312POSM   C1B27125  12.590  25.589  10.217  0.0389  0.1536  0.0359
 2312POSM   D2B27126  12.412  25.214  10.434  0.1783 -0.0865  0.1130
 2312POSM   C3B27127  11.965  25.145  10.518 -0.1140  0.0272 -0.1281
 2312POSM   C4B27128  11.613  24.843  10.333  0.1183  0.4106 -0.1203
 2313DOPC   NC327129  19.369  29.050  10.841 -0.1647 -0.1698 -0.1231
 2313DOPC   PO427130  19.714  29.266  10.807 -0.0261  0.0428  0.4230
 2313DOPC   GL127131  19.578  29.317  11.128 -0.0099  0.0661 -0.6680
 2313DOPC   GL227132  19.738  29.335  11.323  0.0800 -0.2109 -0.1629
 2313DOPC   C1A27133  19.278  29.242  11.507 -0.0071  0.1019  0.3290
 2313DOPC   D2A27134  19.297  29.162  11.957  0.0032 -0.0311 -0.0011
 2313DOPC   C3A27135  19.582  29.130  12.311 -0.4028 -0.4147  0.1567
 2313DOPC   C4A27136  19.766  29.462  12.603  0.1892 -0.2222  0.1193
 2313DOPC   C1B27137  19.732  29.036  11.618  0.1671  0.2742 -0.0256
 2313DOPC   D2B27138  19.736  28.642  11.930  0.2603  0.4085  0.1033
 2313DOPC   C3B27139  19.543  28.314  11.589  0.0570 -0.0700 -0.2900
 2313DOPC   C4B27140  19.255  28.311  11.218  0.2225  0.0371 -0.0956
 2314DOPS   CNO27141  15.691  22.834   8.341  0.0337 -0.0925  0.0041
 2314DOPS   PO427142  15.736  22.691   8.665  0.1496  0.0152 -0.3029
 2314DOPS   GL127143  15.597  22.849   8.994  0.3084 -0.2364 -0.2642
 2314DOPS   GL227144  15.688  22.610   9.143 -0.1316  0.1033 -0.0266
 2314DOPS   C1A27145  15.808  23.195   9.272  0.2168 -0.1509  0.0291
 2314DOPS   D2A27146  16.032  23.595   9.256  0.4688 -0.1802 -0.1185
 2314DOPS   C3A27147  16.412  23.597   9.567 -0.0525 -0.3185  0.1421
 2314DOPS   C4A27148  16.699  23.240   9.745 -0.2805 -0.2568 -0.0399
 2314DOPS   C1B27149  16.100  22.697   9.363 -0.1105 -0.2720 -0.1130
 2314DOPS   D2B27150  16.533  22.785   9.463  0.0782 -0.3285  0.0158
 2314DOPS   C3B27151  16.647  22.477   9.811  0.0253 -0.1673 -0.4288
 2314DOPS   C4B27152  16.512  22.221  10.170 -0.1599  0.1159 -0.0309
 2315DOPC   NC327153  14.096  28.822  10.374  0.3617 -0.0206  0.1542
 2315DOPC   PO427154  14.388  28.636  10.208  0.0763  0.2522  0.0009
 2315DOPC   GL127155  14.244  28.406  10.559  0.1282  0.1097 -0.1624
 2315DOPC   GL227156  14.446  28.514  10.727 -0.1073  0.0261  0.0297
 2315DOPC   C1A27157  13.949  28.609  10.887  0.0098 -0.2463  0.1581
 2315DOPC   D2A27158  13.875  28.570  11.312 -0.2532  0.2360 -0.0041
 2315DOPC   C3A27159  14.160  28.838  11.547  0.0242  0.2102  0.0023
 2315DOPC   C4A27160  14.334  28.781  11.945 -0.5514 -0.2039 -0.1544
 2315DOPC   C1B27161  14.457  28.537  11.163  0.2398  0.0292 -0.0182
 2315DOPC   D2B27162  14.723  28.386  11.509  0.2592  0.3343 -0.1258
 2315DOPC   C3B27163  14.735  28.473  11.977  0.0125 -0.1058  0.1361
 2315DOPC   C4B27164  14.620  28.595  12.365 -0.0250 -0.0616  0.0161
 2316DOPC   NC327165  17.327  25.713   9.777 -0.0151 -0.2563 -0.2278
 2316DOPC   PO427166  17.060  25.486   9.558 -0.2335 -0.3098 -0.0986
 2316DOPC   GL127167  16.941  25.392   9.930 -0.0784  0.1281 -0.2165
 2316DOPC   GL227168  17.202  25.295  10.027  0.1080  0.1536  0.3174
 2316DOPC   C1A27169  16.701  25.138  10.255  0.3581  0.3774 -0.1756
 2316DOPC   D2A27170  16.487  24.719  10.392  0.1216 -0.1185  0.0380
 2316DOPC   C3A27171  16.790  24.342  10.482 -0.0561  0.0700 -0.0518
 2316DOPC   C4A27172  16.846  23.843  10.537 -0.0811  0.0789 -0.1152
 2316DOPC   C1B27173  17.168  25.230  10.447  0.1496 -0.1509  0.1729
 2316DOPC   D2B27174  16.855  25.186  10.801 -0.3710 -0.5422 -0.1355
 2316DOPC   C3B27175  16.637  25.578  10.854  0.0073 -0.0821  0.1416
 2316DOPC   C4B27176  16.274  25.788  10.717  0.3713 -0.2482 -0.0126
 2317DOPE   NH327177  17.257  26.473   9.674 -0.1615 -0.1501  0.2083
 2317DOPE   PO427178  17.096  26.549   9.949  0.2646  0.1392  0.3740
 2317DOPE   GL127179  16.799  26.498  10.337 -0.0611 -0.1384  0.3697
 2317DOPE   GL227180  16.537  26.376  10.285 -0.2270 -0.0180  0.0397
 2317DOPE   C1A27181  16.908  26.635  10.746 -0.0324 -0.0129  0.1365
 2317DOPE   D2A27182  16.787  26.739  11.161 -0.4060 -0.3488  0.1670
 2317DOPE   C3A27183  17.054  26.710  11.588  0.1960  0.0568 -0.1433
 2317DOPE   C4A27184  17.415  26.403  11.704 -0.1391 -0.1980 -0.0487
 2317DOPE   C1B27185  16.639  26.202  10.617  0.0158  0.0019  0.1299
 2317DOPE   D2B27186  16.844  26.163  11.031 -0.0370  0.2357 -0.1465
 2317DOPE   C3B27187  16.717  25.840  11.303  0.1178  0.0106  0.0197
 2317DOPE   C4B27188  16.628  25.373  11.316  0.0269  0.0446 -0.0743
 2318DOPC   NC327189  14.891  28.476  10.212 -0.1313  0.0528 -0.1291
 2318DOPC   PO427190  15.006  28.094  10.204 -0.0240 -0.1879  0.0821
 2318DOPC   GL127191  14.896  28.199  10.598  0.0022  0.1725  0.2026
 2318DOPC   GL227192  15.203  28.241  10.742 -0.3960  0.1885 -0.0420
 2318DOPC   C1A27193  14.835  28.158  11.087 -0.2017  0.0171 -0.2626
 2318DOPC   D2A27194  14.488  27.987  11.353 -0.0715 -0.1057 -0.3523
 2318DOPC   C3A27195  14.799  27.658  11.565 -0.1800  0.1304  0.2270
 2318DOPC   C4A27196  14.915  27.251  11.675 -0.1092  0.0401 -0.1379
 2318DOPC   C1B27197  14.931  28.587  10.858  0.3876  0.3837  0.1897
 2318DOPC   D2B27198  14.849  28.861  11.273  0.0225  0.0852  0.0818
 2318DOPC   C3B27199  14.931  29.347  11.302 -0.4510  0.0916 -0.2525
 2318DOPC   C4B27200  14.863  29.643  11.619  0.2546 -0.0396 -0.0995
 2319DOPC   NC327201  20.569   0.452  10.448 -0.2365 -0.1123 -0.0038
 2319DOPC   PO427202  20.483   0.762  10.622  0.2455 -0.5221 -0.2831
 2319DOPC   GL127203  20.348   0.666  10.881 -0.1820 -0.0967 -0.4967
 2319DOPC   GL227204  20.575   0.652  11.108 -0.2828  0.3289  0.0546
 2319DOPC   C1A27205  20.110   0.846  11.222 -0.0326 -0.1191  0.1248
 2319DOPC   D2A27206  20.089   1.125  11.570  0.0622  0.1562 -0.2568
 2319DOPC   C3A27207  19.872   0.862  11.875  0.0410 -0.1341  0.1263
 2319DOPC   C4A27208  19.682   0.912  12.366  0.0725 -0.0419  0.0513
 2319DOPC   C1B27209  20.643   0.350  11.410  0.0104 -0.0079  0.3108
 2319DOPC   D2B27210  20.546  -0.043  11.665  0.1326  0.2068  0.3167
 2319DOPC   C3B27211  20.184  -0.090  11.875  0.1429  0.0735 -0.0774
 2319DOPC   C4B27212  19.780  -0.152  12.126  0.3521 -0.3538 -0.5248
 2320POSM   NC327213  15.371  34.739  10.609  0.1365  0.0453  0.0771
 2320POSM   PO427214  14.961  34.692  10.504 -0.0166  0.0212  0.0274
 2320POSM   AM127215  14.890  34.781  10.830  0.0802  0.3351  0.0668
 2320POSM   AM227216  15.108  34.872  11.024  0.1100 -0.1826 -0.0825
 2320POSM   T1A27217  14.626  34.858  11.221 -0.0839 -0.0077 -0.0943
 2320POSM   C2A27218  14.295  34.881  11.563 -0.2057 -0.0897  0.1185
 2320POSM   C3A27219  13.852  35.061  11.579  0.0500 -0.2627  0.0707
 2320POSM   C1B27220  15.129  34.928  11.312 -0.0294  0.0685  0.0686
 2320POSM   D2B27221  15.239  35.071  11.770  0.0048 -0.2501 -0.2266
 2320POSM   C3B27222  14.928  35.384  11.965 -0.0096  0.1003 -0.2471
 2320POSM   C4B27223  14.808  35.764  12.212 -0.0205  0.2252 -0.1199
 2321DOPE   NH327224  18.346  27.157  10.189  0.4482  0.2767  0.0368
 2321DOPE   PO427225  18.161  27.146  10.425  0.1624  0.0709 -0.2242
 2321DOPE   GL127226  18.190  27.211  10.727  0.1197  0.1827  0.1724
 2321DOPE   GL227227  17.984  27.140  10.891  0.0360  0.1153  0.1929
 2321DOPE   C1A27228  18.408  27.041  11.142  0.0177  0.0326 -0.1749
 2321DOPE   D2A27229  18.692  26.771  11.413  0.2013 -0.1140  0.2246
 2321DOPE   C3A27230  19.060  26.963  11.695 -0.1106  0.0791 -0.1339
 2321DOPE   C4A27231  19.430  26.993  11.956  0.3125 -0.1060 -0.0080
 2321DOPE   C1B27232  17.856  27.116  11.319 -0.0213 -0.0754  0.3783
 2321DOPE   D2B27233  17.916  27.293  11.753  0.0385  0.0811 -0.0384
 2321DOPE   C3B27234  17.677  27.144  12.152  0.0903  0.0196  0.1028
 2321DOPE   C4B27235  17.503  26.747  12.173  0.1077 -0.0908 -0.1875
 2322DOPS   CNO27236  18.373  29.223  11.090  0.1459  0.0246 -0.0190
 2322DOPS   PO427237  18.166  29.540  11.169 -0.0889  0.4012 -0.3309
 2322DOPS   GL127238  18.005  29.559  11.567  0.1459 -0.0816 -0.2764
 2322DOPS   GL227239  17.819  29.757  11.636 -0.1504 -0.0736 -0.4129
 2322DOPS   C1A27240  17.940  29.374  12.027 -0.0678  0.1630 -0.2491
 2322DOPS   D2A27241  18.083  29.185  12.471 -0.2300 -0.0019 -0.0075
 2322DOPS   C3A27242  17.844  29.130  12.829  0.2225 -0.1467  0.1214
 2322DOPS   C4A27243  17.655  28.792  12.807  0.0932 -0.0408 -0.3936
 2322DOPS   C1B27244  18.050  29.847  11.983  0.0649  0.1277 -0.1220
 2322DOPS   D2B27245  17.990  29.817  12.458 -0.2759  0.3053  0.2270
 2322DOPS   C3B27246  18.184  29.598  12.829  0.0973  0.0215 -0.3849
 2322DOPS   C4B27247  18.462  29.253  12.919  0.0349  0.1712  0.0125
 2323DOPC   NC327248  17.110  33.974   9.994  0.0490  0.0203  0.2207
 2323DOPC   PO427249  16.888  34.077  10.279 -0.0651 -0.1467  0.0300
 2323DOPC   GL127250  16.856  34.123  10.654 -0.0117 -0.1877 -0.2609
 2323DOPC   GL227251  17.108  33.982  10.777  0.0368  0.3708 -0.0301
 2323DOPC   C1A27252  16.640  33.824  10.983  0.3476  0.3498  0.5387
 2323DOPC   D2A27253  16.621  33.675  11.355  0.0689  0.1495  0.1007
 2323DOPC   C3A27254  16.618  33.563  11.834 -0.1542  0.0092 -0.1162
 2323DOPC   C4A27255  16.665  33.439  12.240  0.1175 -0.1293  0.0505
 2323DOPC   C1B27256  17.092  33.910  11.220 -0.1269  0.0840 -0.0391
 2323DOPC   D2B27257  16.857  34.025  11.606 -0.0792  0.5161  0.2143
 2323DOPC   C3B27258  17.099  34.319  11.844 -0.0628 -0.2175  0.0910
 2323DOPC   C4B27259  17.200  34.611  12.139  0.3084 -0.0716  0.0009
 2324DOPE   NH327260  11.876  29.102  10.248 -0.2619 -0.0113 -0.0309
 2324DOPE   PO427261  11.627  29.102  10.446  0.1889 -0.0187  0.2410
 2324DOPE   GL127262  11.759  29.137  10.841  0.4052 -0.3003  0.0378
 2324DOPE   GL227263  12.068  29.261  10.724 -0.3855 -0.0019 -0.3196
 2324DOPE   C1A27264  11.824  29.386  11.248  0.1990  0.1903  0.2096
 2324DOPE   D2A27265  11.614  29.581  11.598  0.0640 -0.1439  0.0033
 2324DOPE   C3A27266  11.744  29.941  11.853  0.1534  0.0916 -0.0241
 2324DOPE   C4A27267  12.010  30.132  12.210 -0.0903 -0.0153 -0.1897
 2324DOPE   C1B27268  12.288  29.221  11.115 -0.0441  0.0125 -0.2980
 2324DOPE   D2B27269  12.398  28.950  11.546 -0.0322  0.1893 -0.0734
 2324DOPE   C3B27270  12.855  29.019  11.662 -0.5673  0.2751  0.2716
 2324DOPE   C4B27271  13.322  29.063  11.756  0.1351  0.1048 -0.0618
 2325DOPE   NH327272  18.787  28.674  10.329 -0.1900  0.1299  0.0551
 2325DOPE   PO427273  19.056  28.782  10.529  0.4252  0.1447  0.0654
 2325DOPE   GL127274  18.986  28.449  10.682 -0.2539  0.1720  0.2044
 2325DOPE   GL227275  19.029  28.220  10.734 -0.0333 -0.2438  0.2186
 2325DOPE   C1A27276  18.689  28.385  11.032  0.1321 -0.2852  0.1472
 2325DOPE   D2A27277  18.746  28.326  11.524 -0.0155  0.2381  0.3639
 2325DOPE   C3A27278  19.073  28.128  11.708 -0.1924 -0.0877  0.0026
 2325DOPE   C4A27279  18.997  27.881  12.078  0.1952 -0.0479 -0.2892
 2325DOPE   C1B27280  18.955  27.913  10.969  0.0672  0.1414 -0.1868
 2325DOPE   D2B27281  19.143  27.438  11.003 -0.1230 -0.0237  0.0011
 2325DOPE   C3B27282  19.312  27.207  11.336 -0.3308 -0.2304  0.0564
 2325DOPE   C4B27283  19.683  27.423  11.496  0.2434 -0.1494  0.2514
 2326POSM   NC327284  20.658  31.964  11.216 -0.0119  0.1607 -0.1661
 2326POSM   PO427285  20.511  32.169  10.942  0.4901  0.1723 -0.1981
 2326POSM   AM127286  20.472  32.362  11.240  0.1881 -0.0742 -0.0289
 2326POSM   AM227287  20.224  32.440  11.379  0.1167 -0.0027 -0.2050
 2326POSM   T1A27288  20.731  32.344  11.710  0.0745 -0.0197  0.0195
 2326POSM   C2A27289  20.651  32.480  12.137 -0.0355  0.1578 -0.0860
 2326POSM   C3A27290  20.698  32.272  12.530  0.0543 -0.2452  0.2380
 2326POSM   C1B27291  20.009  32.462  11.656  0.1253  0.0389 -0.2755
 2326POSM   D2B27292  19.707  32.564  11.955  0.3011  0.2294 -0.1334
 2326POSM   C3B27293  19.617  32.624  12.421  0.0656 -0.2758  0.0606
 2326POSM   C4B27294  19.278  32.669  12.669 -0.0163  0.0156 -0.1707
 2327POSM   NC327295  20.653  33.816  10.132 -0.1755  0.0043 -0.1018
 2327POSM   PO427296  20.889  33.596  10.338 -0.0300 -0.0548  0.1130
 2327POSM   AM127297  20.994  33.544  10.631 -0.0121 -0.1091  0.2272
 2327POSM   AM227298  20.906  33.402  10.805 -0.2397 -0.0964 -0.1684
 2327POSM   T1A27299  21.226  33.738  11.063 -0.0148  0.1429 -0.0884
 2327POSM   C2A27300  21.560  33.831  11.402 -0.1297  0.2815 -0.5180
 2327POSM   C3A27301  21.854  34.182  11.396  0.1779  0.0235 -0.2038
 2327POSM   C1B27302  20.697  33.503  11.076  0.1598 -0.0789 -0.2316
 2327POSM   D2B27303  20.489  33.484  11.470 -0.0553 -0.3344 -0.2358
 2327POSM   C3B27304  20.203  33.811  11.682 -0.1138 -0.0406  0.1172
 2327POSM   C4B27305  19.941  34.120  11.868 -0.2006 -0.0465 -0.0863
 2328DOPC   NC327306  12.855  28.440   9.870  0.1322 -0.1310 -0.0409
 2328DOPC   PO427307  12.461  28.335   9.907  0.0686  0.1081 -0.1000
 2328DOPC   GL127308  12.444  28.352  10.284  0.0284 -0.1475 -0.6913
 2328DOPC   GL227309  12.271  28.289  10.403  0.0729  0.2108 -0.0518
 2328DOPC   C1A27310  12.596  28.507  10.671  0.1191  0.1879 -0.2084
 2328DOPC   D2A27311  12.492  28.418  11.150  0.4178 -0.1762 -0.1302
 2328DOPC   C3A27312  12.167  28.390  11.471 -0.0121 -0.1376  0.1049
 2328DOPC   C4A27313  11.758  28.316  11.579 -0.0114  0.1848  0.0963
 2328DOPC   C1B27314  12.205  27.810  10.343  0.0225 -0.1556 -0.0279
 2328DOPC   D2B27315  12.363  27.398  10.204 -0.1751  0.0412  0.0939
 2328DOPC   C3B27316  12.671  27.098  10.336  0.0211  0.1585  0.1976
 2328DOPC   C4B27317  13.003  26.968  10.615  0.0820 -0.2530  0.0446
 2329DOPC   NC327318  14.583  33.760  10.479  0.1260 -0.2356  0.1535
 2329DOPC   PO427319  14.911  33.769  10.707  0.2655  0.0754 -0.2376
 2329DOPC   GL127320  14.896  33.591  11.019  0.0603  0.3331 -0.2419
 2329DOPC   GL227321  14.570  33.686  11.073  0.1451 -0.1150 -0.4446
 2329DOPC   C1A27322  15.039  33.600  11.490  0.2087  0.0781 -0.0982
 2329DOPC   D2A27323  15.114  33.543  11.932 -0.3816 -0.1497 -0.1277
 2329DOPC   C3A27324  15.143  33.502  12.384  0.2018 -0.1772 -0.0617
 2329DOPC   C4A27325  15.150  33.754  12.764  0.1273 -0.1572 -0.3043
 2329DOPC   C1B27326  14.660  33.355  11.399  0.5614 -0.2138  0.2548
 2329DOPC   D2B27327  14.699  33.284  11.831  0.3229 -0.3314  0.1008
 2329DOPC   C3B27328  14.478  33.224  12.246  0.0430 -0.1801 -0.2150
 2329DOPC   C4B27329  14.058  33.166  12.433  0.0617 -0.0185 -0.0643
 2330DOPC   NC327330  16.915  32.743  10.621  0.1080  0.2515 -0.0167
 2330DOPC   PO427331  16.825  33.121  10.741 -0.2322 -0.3241 -0.1702
 2330DOPC   GL127332  16.799  33.340  11.103 -0.2502 -0.3613  0.1727
 2330DOPC   GL227333  17.076  33.489  10.975 -0.1122  0.0276 -0.1312
 2330DOPC   C1A27334  16.760  33.179  11.563 -0.1449 -0.0340  0.2026
 2330DOPC   D2A27335  16.852  32.912  11.939 -0.2893 -0.0564  0.0581
 2330DOPC   C3A27336  16.681  32.819  12.396  0.1995 -0.2158 -0.1642
 2330DOPC   C4A27337  16.489  32.718  12.763 -0.0036 -0.0330  0.2306
 2330DOPC   C1B27338  17.344  33.272  11.385  0.0979 -0.5242  0.2401
 2330DOPC   D2B27339  17.473  32.899  11.659 -0.0603 -0.2447 -0.0051
 2330DOPC   C3B27340  17.382  33.049  12.088 -0.1768  0.2886 -0.0458
 2330DOPC   C4B27341  17.133  33.205  12.436  0.0061 -0.2549 -0.0547
 2331POSM   NC327342  18.293  26.664   9.755 -0.0718 -0.2008  0.1014
 2331POSM   PO427343  18.167  26.713  10.127 -0.2271  0.1392 -0.0958
 2331POSM   AM127344  18.266  26.661  10.466 -0.3450  0.1438  0.3477
 2331POSM   AM227345  18.472  26.757  10.590  0.0313 -0.1332  0.0178
 2331POSM   T1A27346  18.005  26.663  10.924 -0.6199 -0.3638 -0.1479
 2331POSM   C2A27347  17.646  26.424  11.195 -0.0176  0.3172  0.2047
 2331POSM   C3A27348  17.188  26.488  11.156  0.1038  0.1997  0.0435
 2331POSM   C1B27349  18.518  26.660  10.906  0.2729  0.3398 -0.1879
 2331POSM   D2B27350  18.415  26.370  11.216  0.2896 -0.0640  0.1542
 2331POSM   C3B27351  18.172  26.730  11.532  0.0771  0.1282 -0.2050
 2331POSM   C4B27352  17.752  26.775  11.644 -0.1774  0.0544  0.0485
 2332DOPC   NC327353  13.177  34.738  10.745  0.2379  0.1566 -0.0462
 2332DOPC   PO427354  13.564  34.675  10.648  0.3909  0.2783  0.0036
 2332DOPC   GL127355  13.570  34.563  11.015 -0.2142  0.1759  0.1876
 2332DOPC   GL227356  13.513  34.849  11.157  0.0144 -0.3715  0.0063
 2332DOPC   C1A27357  13.672  34.168  11.233  0.0356  0.0151 -0.1639
 2332DOPC   D2A27358  13.495  34.041  11.654  0.0305  0.1079 -0.0992
 2332DOPC   C3A27359  13.441  33.926  12.098 -0.2772 -0.2515 -0.3565
 2332DOPC   C4A27360  13.261  33.673  12.471  0.0105  0.0390  0.4930
 2332DOPC   C1B27361  13.389  34.829  11.567 -0.1154 -0.1621  0.2809
 2332DOPC   D2B27362  13.527  34.863  11.983 -0.2642 -0.2253 -0.0401
 2332DOPC   C3B27363  13.992  34.880  12.035  0.0482  0.0362  0.2942
 2332DOPC   C4B27364  14.387  35.048  12.115 -0.2763 -0.0638 -0.0183
 2333POSM   NC327365  22.640  28.191  10.923  0.0981  0.0869 -0.0028
 2333POSM   PO427366  22.750  27.870  10.694 -0.1101 -0.2542  0.2281
 2333POSM   AM127367  22.853  27.761  10.996  0.0326 -0.2363 -0.0752
 2333POSM   AM227368  22.998  27.915  11.177 -0.0499 -0.2380  0.0345
 2333POSM   T1A27369  22.829  27.493  11.390  0.1187 -0.1667  0.0676
 2333POSM   C2A27370  22.747  27.308  11.831 -0.0657 -0.0195 -0.1364
 2333POSM   C3A27371  22.851  27.081  12.224 -0.2246 -0.1019  0.0223
 2333POSM   C1B27372  23.028  28.023  11.519  0.0696 -0.1291 -0.2292
 2333POSM   D2B27373  23.060  27.961  11.998  0.1490 -0.0256  0.1459
 2333POSM   C3B27374  22.799  27.651  12.282  0.3140  0.1824 -0.3156
 2333POSM   C4B27375  22.655  27.437  12.664 -0.0041 -0.1056  0.2429
 2334DOPS   CNO27376  18.928  27.500   9.794  0.0731 -0.0621 -0.2271
 2334DOPS   PO427377  18.886  27.299  10.094 -0.0183  0.0523  0.2387
 2334DOPS   GL127378  18.678  27.344  10.437 -0.1516  0.0563 -0.4127
 2334DOPS   GL227379  18.817  27.111  10.606 -0.2098  0.1287 -0.1723
 2334DOPS   C1A27380  18.624  27.400  10.917 -0.0276  0.3751  0.0543
 2334DOPS   D2A27381  18.769  27.304  11.374  0.0058 -0.0767  0.4923
 2334DOPS   C3A27382  18.782  27.467  11.780  0.0466  0.0545  0.0740
 2334DOPS   C4A27383  18.474  27.513  12.079 -0.0418  0.4647  0.1240
 2334DOPS   C1B27384  18.878  26.972  11.013  0.2109  0.0983 -0.0461
 2334DOPS   D2B27385  19.165  26.652  11.251  0.3535 -0.2836  0.1740
 2334DOPS   C3B27386  19.306  26.557  11.642 -0.0004 -0.1190 -0.4299
 2334DOPS   C4B27387  19.275  26.522  12.134 -0.2969 -0.0580 -0.1779
 2335DOPC   NC327388  17.183  29.231  10.936  0.0567 -0.0417 -0.1182
 2335DOPC   PO427389  16.801  29.285  10.981 -0.1051 -0.0399  0.2620
 2335DOPC   GL127390  16.800  29.386  11.385 -0.2429 -0.1020 -0.1357
 2335DOPC   GL227391  16.807  29.658  11.453 -0.0785 -0.1045 -0.1741
 2335DOPC   C1A27392  16.549  29.211  11.777  0.0507  0.1274 -0.0967
 2335DOPC   D2A27393  16.459  28.995  12.196  0.0834  0.1516  0.0734
 2335DOPC   C3A27394  16.737  28.956  12.605  0.0383  0.0273  0.0727
 2335DOPC   C4A27395  17.101  28.844  12.906  0.4980 -0.1946 -0.4359
 2335DOPC   C1B27396  17.033  29.528  11.832  0.1864  0.0093 -0.4104
 2335DOPC   D2B27397  17.110  29.332  12.210  0.0774  0.0818 -0.2298
 2335DOPC   C3B27398  17.302  28.965  12.397  0.1352  0.5529 -0.2998
 2335DOPC   C4B27399  17.616  28.588  12.369 -0.1113 -0.3265 -0.2264
 2336DOPS   CNO27400  11.468  34.040  10.092 -0.1238 -0.3013  0.3217
 2336DOPS   PO427401  11.541  34.282  10.398  0.3844 -0.1068 -0.0321
 2336DOPS   GL127402  11.637  34.331  10.817 -0.0083  0.2528  0.4671
 2336DOPS   GL227403  11.373  34.482  10.921 -0.4019  0.0503 -0.0651
 2336DOPS   C1A27404  11.574  34.091  11.200 -0.0461  0.0945  0.0549
 2336DOPS   D2A27405  11.476  33.938  11.593  0.0085  0.0599  0.3414
 2336DOPS   C3A27406  11.059  34.164  11.705 -0.0268 -0.0169 -0.0943
 2336DOPS   C4A27407  10.833  34.005  12.082 -0.1491  0.0023 -0.1305
 2336DOPS   C1B27408  11.085  34.150  11.177  0.0167  0.0222 -0.0760
 2336DOPS   D2B27409  10.864  33.738  11.287  0.1233 -0.1368 -0.0942
 2336DOPS   C3B27410  10.646  33.677  11.730 -0.1506 -0.0836  0.2075
 2336DOPS   C4B27411  10.698  33.511  12.149  0.1037 -0.3857  0.1204
 2337DOPE   NH327412  16.236  30.197  10.437 -0.1883  0.0029  0.0841
 2337DOPE   PO427413  16.266  30.129  10.749 -0.0597 -0.1438  0.1288
 2337DOPE   GL127414  16.292  30.100  11.191  0.2215  0.0064  0.3017
 2337DOPE   GL227415  16.426  30.031  11.389 -0.0166  0.1732  0.2132
 2337DOPE   C1A27416  16.349  30.486  11.497  0.0198 -0.2183  0.0694
 2337DOPE   D2A27417  16.175  30.783  11.859  0.3421 -0.0714  0.0557
 2337DOPE   C3A27418  16.348  31.095  12.132  0.3778  0.0879 -0.4420
 2337DOPE   C4A27419  16.239  31.570  12.228 -0.0805 -0.0944 -0.1158
 2337DOPE   C1B27420  16.210  29.994  11.748  0.1754  0.3364  0.0040
 2337DOPE   D2B27421  16.258  29.944  12.203 -0.0040  0.2139  0.0461
 2337DOPE   C3B27422  15.914  30.038  12.413 -0.0594  0.0195  0.0335
 2337DOPE   C4B27423  15.541  30.298  12.340  0.2662 -0.0445  0.4689
 2338DOPE   NH327424  25.299  26.371  11.657  0.3353 -0.0908 -0.0037
 2338DOPE   PO427425  25.079  26.464  11.521 -0.1162  0.4278  0.1507
 2338DOPE   GL127426  24.818  26.397  11.748 -0.1397  0.2333  0.0442
 2338DOPE   GL227427  24.878  26.392  11.988 -0.2589  0.1480  0.1805
 2338DOPE   C1A27428  24.352  26.320  11.762 -0.1794  0.1574 -0.1195
 2338DOPE   D2A27429  24.126  26.002  12.020  0.2675 -0.0105 -0.0316
 2338DOPE   C3A27430  23.875  26.148  12.380 -0.1563 -0.0274  0.0217
 2338DOPE   C4A27431  23.498  26.072  12.659  0.1950  0.0301  0.1644
 2338DOPE   C1B27432  24.853  26.584  12.347  0.2393 -0.0520  0.3484
 2338DOPE   D2B27433  24.718  26.524  12.778 -0.0983  0.0474  0.3898
 2338DOPE   C3B27434  24.259  26.660  12.809  0.0209 -0.1519 -0.2692
 2338DOPE   C4B27435  23.716  26.503  12.814 -0.0454 -0.2460  0.3970
 2339DOPE   NH327436  20.683  26.858  10.238 -0.3168  0.1156  0.2122
 2339DOPE   PO427437  20.507  26.600  10.175 -0.0585 -0.0201 -0.2983
 2339DOPE   GL127438  20.481  26.318  10.460  0.1736  0.1272 -0.3328
 2339DOPE   GL227439  20.237  26.314  10.617 -0.1727  0.1387  0.0635
 2339DOPE   C1A27440  20.696  26.239  10.883  0.2089 -0.0827  0.1071
 2339DOPE   D2A27441  20.659  26.138  11.320  0.0139  0.0221 -0.1912
 2339DOPE   C3A27442  20.730  25.671  11.415 -0.0179  0.0301 -0.0529
 2339DOPE   C4A27443  20.786  25.240  11.444 -0.1746 -0.1512  0.0603
 2339DOPE   C1B27444  20.249  26.388  11.098  0.2386  0.3574 -0.0018
 2339DOPE   D2B27445  20.326  26.550  11.536  0.3667  0.0938 -0.1611
 2339DOPE   C3B27446  20.552  26.231  11.824 -0.2451 -0.2743 -0.2592
 2339DOPE   C4B27447  20.527  25.770  11.899  0.0350 -0.0153  0.0066
 2340DOPC   NC327448  21.889  25.845  10.402 -0.0667  0.3268 -0.0952
 2340DOPC   PO427449  21.775  26.166  10.553  0.0573  0.0357  0.1282
 2340DOPC   GL127450  21.738  25.878  10.847 -0.0971 -0.1445  0.2598
 2340DOPC   GL227451  21.956  25.578  10.869 -0.0865 -0.2157  0.1169
 2340DOPC   C1A27452  21.447  25.947  11.218 -0.2335  0.1269  0.0728
 2340DOPC   D2A27453  21.127  26.178  11.361  0.2533  0.2830 -0.0259
 2340DOPC   C3A27454  21.177  26.032  11.784 -0.2881 -0.0905 -0.1609
 2340DOPC   C4A27455  21.414  25.959  12.185 -0.0763 -0.1854 -0.1825
 2340DOPC   C1B27456  21.620  25.533  11.195  0.0583 -0.0240  0.0418
 2340DOPC   D2B27457  21.323  25.607  11.550 -0.0620  0.0150  0.1747
 2340DOPC   C3B27458  20.992  25.490  11.842  0.1676  0.0460 -0.2337
 2340DOPC   C4B27459  20.886  25.506  12.275 -0.0205 -0.1075  0.1577
 2341DOPS   CNO27460  23.609  32.048  11.359 -0.1046 -0.0402 -0.0404
 2341DOPS   PO427461  23.704  31.684  11.299 -0.0293 -0.1622  0.1210
 2341DOPS   GL127462  23.452  31.539  11.527  0.1341 -0.1195  0.0906
 2341DOPS   GL227463  23.605  31.366  11.693  0.2063  0.1662  0.0429
 2341DOPS   C1A27464  23.212  31.684  11.911 -0.4253  0.0086  0.0741
 2341DOPS   D2A27465  23.177  31.980  12.264  0.0265 -0.0147  0.1345
 2341DOPS   C3A27466  23.031  31.675  12.661 -0.3949 -0.1932  0.2793
 2341DOPS   C4A27467  22.851  31.410  12.907  0.1825 -0.2505 -0.0507
 2341DOPS   C1B27468  23.267  31.194  12.008  0.1520 -0.3678  0.2886
 2341DOPS   D2B27469  23.005  31.182  12.447  0.1709 -0.2164 -0.0524
 2341DOPS   C3B27470  22.990  30.817  12.769  0.5132 -0.0476  0.0940
 2341DOPS   C4B27471  22.892  30.408  12.867 -0.2830  0.2515  0.1131
 2342DOPS   CNO27472  19.940  33.546  10.462  0.1466 -0.2565 -0.0076
 2342DOPS   PO427473  19.887  33.191  10.462 -0.0895 -0.4054 -0.2281
 2342DOPS   GL127474  19.720  33.352  10.806  0.1285 -0.0524  0.1039
 2342DOPS   GL227475  19.404  33.252  10.935 -0.0907 -0.0150  0.1987
 2342DOPS   C1A27476  19.575  33.809  10.893 -0.1919  0.3971 -0.2886
 2342DOPS   D2A27477  19.998  34.087  10.910 -0.2670 -0.0719  0.0658
 2342DOPS   C3A27478  20.354  33.929  11.212 -0.3285  0.0562  0.0674
 2342DOPS   C4A27479  20.826  33.979  11.269  0.2714  0.1330 -0.2642
 2342DOPS   C1B27480  19.526  33.280  11.381 -0.0402  0.1605  0.0086
 2342DOPS   D2B27481  19.521  33.453  11.770 -0.2112 -0.1735 -0.2817
 2342DOPS   C3B27482  19.455  33.758  12.111  0.0811  0.2237  0.2173
 2342DOPS   C4B27483  19.626  34.195  12.299  0.1839 -0.2457  0.1509
 2343DOPC   NC327484  22.406  33.749  10.644 -0.4931 -0.1303  0.1349
 2343DOPC   PO427485  22.179  33.584  10.913 -0.0342  0.1733  0.1494
 2343DOPC   GL127486  21.895  33.597  11.193  0.3986  0.1902  0.0292
 2343DOPC   GL227487  22.104  33.710  11.438  0.0516  0.1154  0.1509
 2343DOPC   C1A27488  21.782  33.419  11.640  0.2756  0.0335 -0.1521
 2343DOPC   D2A27489  21.532  33.616  12.021  0.1336 -0.0576 -0.1822
 2343DOPC   C3A27490  21.355  33.208  12.257  0.0370 -0.0444 -0.1026
 2343DOPC   C4A27491  21.192  32.739  12.197 -0.1804  0.0375  0.0942
 2343DOPC   C1B27492  22.136  33.915  11.858 -0.0856  0.1022  0.2813
 2343DOPC   D2B27493  22.402  34.177  12.105 -0.0024  0.0329 -0.0987
 2343DOPC   C3B27494  22.222  34.223  12.510 -0.1513 -0.0055 -0.0040
 2343DOPC   C4B27495  22.139  34.539  12.847 -0.1103 -0.0071  0.2334
 2344DOPS   CNO27496  16.983  27.857  10.330 -0.0915  0.0741 -0.0823
 2344DOPS   PO427497  17.291  28.031  10.457 -0.0196 -0.4281  0.1180
 2344DOPS   GL127498  17.436  27.944  10.854  0.0091  0.2215  0.2621
 2344DOPS   GL227499  17.703  27.912  10.953  0.0453  0.1922  0.2650
 2344DOPS   C1A27500  17.385  27.829  11.284  0.0381 -0.1498 -0.1294
 2344DOPS   D2A27501  17.475  27.487  11.536 -0.1491 -0.0415  0.0764
 2344DOPS   C3A27502  17.647  27.588  11.986 -0.1571 -0.1083  0.3981
 2344DOPS   C4A27503  17.762  27.613  12.443 -0.3905  0.3431  0.0707
 2344DOPS   C1B27504  17.863  27.669  11.329 -0.2608 -0.1527  0.0464
 2344DOPS   D2B27505  18.044  27.799  11.731 -0.2423  0.0794  0.2148
 2344DOPS   C3B27506  18.108  27.822  12.202  0.2645  0.1258  0.1701
 2344DOPS   C4B27507  18.371  28.115  12.496  0.1172  0.2630 -0.4224
 2345DOPS   CNO27508  17.298  33.653  10.451  0.1470  0.4077 -0.1569
 2345DOPS   PO427509  17.600  33.403  10.546  0.2659  0.1280  0.1218
 2345DOPS   GL127510  17.510  33.421  10.945 -0.0096 -0.0906  0.0412
 2345DOPS   GL227511  17.683  33.279  11.059  0.2884  0.1363  0.2782
 2345DOPS   C1A27512  17.653  33.707  11.276  0.0761  0.2860  0.1030
 2345DOPS   D2A27513  17.899  33.905  11.598 -0.1664  0.0184 -0.3625
 2345DOPS   C3A27514  17.717  34.196  11.962 -0.2404  0.2454 -0.0240
 2345DOPS   C4A27515  17.389  34.122  12.264  0.1785  0.0668 -0.0925
 2345DOPS   C1B27516  17.565  32.816  11.152  0.0415 -0.1055  0.2988
 2345DOPS   D2B27517  17.521  32.419  11.416 -0.4538 -0.0936 -0.1425
 2345DOPS   C3B27518  17.761  32.497  11.777  0.0294 -0.0175  0.2855
 2345DOPS   C4B27519  17.667  32.631  12.214 -0.0290 -0.3065 -0.2989
 2346DOPC   NC327520  16.076  32.408  10.618  0.1800 -0.0559  0.1695
 2346DOPC   PO427521  15.801  32.573  10.851 -0.0770 -0.2295 -0.0814
 2346DOPC   GL127522  16.016  32.560  11.097  0.3593 -0.0209 -0.1147
 2346DOPC   GL227523  16.144  32.817  11.120  0.1480  0.0475 -0.1752
 2346DOPC   C1A27524  15.787  32.789  11.493  0.3585 -0.3022 -0.0359
 2346DOPC   D2A27525  15.431  32.769  11.765  0.1441  0.2271  0.0231
 2346DOPC   C3A27526  15.328  33.101  12.136 -0.1452 -0.4522 -0.0710
 2346DOPC   C4A27527  15.400  32.969  12.614  0.0016  0.0104  0.1697
 2346DOPC   C1B27528  16.312  32.930  11.539 -0.0275 -0.0634  0.0946
 2346DOPC   D2B27529  16.408  33.012  12.012 -0.0658 -0.2402 -0.2754
 2346DOPC   C3B27530  16.172  32.795  12.352 -0.1007 -0.2074  0.1174
 2346DOPC   C4B27531  16.198  32.350  12.375 -0.2129 -0.3512  0.1332
 2347DOPE   NH327532  22.463  23.412   9.994 -0.2851 -0.1055 -0.0145
 2347DOPE   PO427533  22.329  23.703   9.879 -0.5090 -0.3368 -0.0462
 2347DOPE   GL127534  22.076  23.480  10.144  0.2636  0.0240 -0.3656
 2347DOPE   GL227535  21.821  23.474  10.018 -0.2340 -0.0701 -0.0918
 2347DOPE   C1A27536  22.248  23.283  10.507 -0.2700 -0.0653 -0.0559
 2347DOPE   D2A27537  22.130  23.369  10.922  0.2383  0.1002  0.1726
 2347DOPE   C3A27538  22.141  23.634  11.318  0.0847  0.0246  0.2109
 2347DOPE   C4A27539  22.377  23.965  11.389  0.0802  0.1712 -0.3404
 2347DOPE   C1B27540  21.862  23.575  10.525  0.0535  0.3710 -0.1428
 2347DOPE   D2B27541  21.817  23.809  10.783  0.0106  0.0178  0.1454
 2347DOPE   C3B27542  21.598  23.550  11.037 -0.1646 -0.1633  0.2088
 2347DOPE   C4B27543  21.745  23.357  11.433  0.1529  0.5024  0.0402
 2348DOPE   NH327544  12.801   0.723  10.283  0.0862  0.0564  0.0978
 2348DOPE   PO427545  12.683   0.423  10.266 -0.3017 -0.3486 -0.2025
 2348DOPE   GL127546  12.769   0.249  10.555  0.0591 -0.0888 -0.2328
 2348DOPE   GL227547  12.929   0.389  10.716 -0.1572  0.2507 -0.1570
 2348DOPE   C1A27548  12.505   0.243  10.925  0.0872 -0.0793  0.2289
 2348DOPE   D2A27549  12.445   0.316  11.363  0.1311 -0.3209  0.0179
 2348DOPE   C3A27550  12.174   0.648  11.577 -0.0592 -0.0297  0.1470
 2348DOPE   C4A27551  11.905   0.666  11.985 -0.0629 -0.2829 -0.1502
 2348DOPE   C1B27552  13.012   0.212  11.131  0.1495 -0.1346 -0.0545
 2348DOPE   D2B27553  12.867   0.224  11.583 -0.3557 -0.0735 -0.0763
 2348DOPE   C3B27554  12.954   0.030  11.995 -0.0833  0.3668 -0.0993
 2348DOPE   C4B27555  13.163  -0.402  11.979 -0.1296  0.1727  0.0773
 2349POSM   NC327556  19.801  27.365  10.444 -0.0410 -0.0629 -0.2355
 2349POSM   PO427557  20.141  27.601  10.476  0.0656 -0.0237 -0.0423
 2349POSM   AM127558  20.227  27.625  10.794  0.5363  0.1751  0.2531
 2349POSM   AM227559  20.448  27.574  10.908  0.1564 -0.0558  0.4005
 2349POSM   T1A27560  20.085  27.831  11.229 -0.1993 -0.2824 -0.2557
 2349POSM   C2A27561  19.871  27.859  11.695  0.0364  0.1985 -0.2044
 2349POSM   C3A27562  20.062  27.951  12.077 -0.0906 -0.3252 -0.2158
 2349POSM   C1B27563  20.472  27.353  11.187 -0.0399 -0.2265 -0.2336
 2349POSM   D2B27564  20.600  27.039  11.538  0.0914 -0.2518 -0.2135
 2349POSM   C3B27565  20.475  27.177  11.956  0.1869  0.2356 -0.1049
 2349POSM   C4B27566  20.154  27.200  12.306  0.0560  0.1783  0.1158
 2350DOPS   CNO27567  19.761  31.371  10.471 -0.0288 -0.0772  0.1427
 2350DOPS   PO427568  19.833  31.516  10.795 -0.0757  0.0313 -0.1030
 2350DOPS   GL127569  20.016  31.664  11.167  0.1361  0.1084 -0.2702
 2350DOPS   GL227570  19.960  31.971  11.297  0.0534  0.1364  0.0849
 2350DOPS   C1A27571  20.302  31.564  11.514  0.0143 -0.2130  0.1401
 2350DOPS   D2A27572  20.302  31.626  12.005  0.0773  0.0433  0.1659
 2350DOPS   C3A27573  19.821  31.735  12.129 -0.2407 -0.0482  0.1018
 2350DOPS   C4A27574  19.595  31.652  12.474 -0.1188 -0.0824  0.3911
 2350DOPS   C1B27575  20.197  32.037  11.719  0.3406 -0.0566  0.0943
 2350DOPS   D2B27576  20.256  32.167  12.186  0.0244 -0.1438  0.3586
 2350DOPS   C3B27577  19.913  32.142  12.478  0.0873  0.3030 -0.3608
 2350DOPS   C4B27578  19.865  31.919  12.906 -0.2838  0.0549  0.0833
 2351DOPC   NC327579  20.319  25.990  10.094  0.0232  0.1524 -0.2748
 2351DOPC   PO427580  19.960  25.990   9.921 -0.1650 -0.1406  0.0524
 2351DOPC   GL127581  19.863  25.916  10.376  0.3028  0.0232 -0.0038
 2351DOPC   GL227582  19.867  25.639  10.425 -0.0515  0.4003 -0.0021
 2351DOPC   C1A27583  19.884  26.040  10.830  0.1769  0.1778 -0.1752
 2351DOPC   D2A27584  19.497  26.193  11.089  0.0217 -0.1728  0.0390
 2351DOPC   C3A27585  19.347  25.899  11.459  0.1447  0.3754 -0.4885
 2351DOPC   C4A27586  19.512  25.657  11.824 -0.2376  0.1744  0.0328
 2351DOPC   C1B27587  19.974  25.293  10.739  0.2929  0.0028 -0.0855
 2351DOPC   D2B27588  19.987  25.306  11.151  0.0718 -0.1241 -0.1956
 2351DOPC   C3B27589  19.874  25.589  11.464  0.1465  0.0114 -0.0471
 2351DOPC   C4B27590  20.060  25.867  11.828  0.0926  0.2340  0.0740
 2352DOPE   NH327591  12.897  29.821  10.412  0.0419 -0.2928 -0.0482
 2352DOPE   PO427592  13.051  29.564  10.274 -0.0475 -0.0325  0.2039
 2352DOPE   GL127593  13.021  29.405  10.625 -0.1683  0.1918 -0.0280
 2352DOPE   GL227594  13.075  29.140  10.669  0.0283  0.2640  0.1175
 2352DOPE   C1A27595  13.111  29.642  10.997  0.0542  0.0840 -0.2076
 2352DOPE   D2A27596  13.194  29.837  11.396 -0.0024 -0.1179 -0.0366
 2352DOPE   C3A27597  13.624  29.723  11.549  0.2202  0.3249 -0.0473
 2352DOPE   C4A27598  14.056  29.785  11.378  0.4879 -0.1207 -0.0238
 2352DOPE   C1B27599  13.065  28.682  10.726 -0.1555  0.1463  0.3109
 2352DOPE   D2B27600  13.064  28.352  11.106  0.0305 -0.0618  0.1621
 2352DOPE   C3B27601  13.050  28.293  11.535  0.2016 -0.0687  0.2212
 2352DOPE   C4B27602  13.154  28.587  11.818 -0.1612  0.1451 -0.0512
 2353DOPS   CNO27603  20.040  26.733  10.064  0.1028 -0.2383 -0.0721
 2353DOPS   PO427604  19.962  26.413  10.207  0.1014  0.2426  0.0632
 2353DOPS   GL127605  19.700  26.411  10.530  0.3075  0.1223 -0.3028
 2353DOPS   GL227606  19.421  26.410  10.647 -0.0956 -0.1202  0.1123
 2353DOPS   C1A27607  19.871  26.727  10.859  0.3072 -0.0564  0.2177
 2353DOPS   D2A27608  19.720  26.916  11.170 -0.0244 -0.1981 -0.2502
 2353DOPS   C3A27609  19.761  26.734  11.637 -0.0522  0.1206 -0.0774
 2353DOPS   C4A27610  19.888  26.748  12.067  0.1586 -0.0285  0.0357
 2353DOPS   C1B27611  19.440  25.917  10.610  0.2447 -0.0811 -0.2038
 2353DOPS   D2B27612  19.629  25.586  10.851 -0.1413  0.3587  0.3267
 2353DOPS   C3B27613  19.450  25.454  11.297 -0.0046 -0.1675 -0.0959
 2353DOPS   C4B27614  19.236  25.329  11.684  0.2180  0.5776 -0.0087
 2354DOPS   CNO27615  21.555  32.898  10.549 -0.0673  0.2712 -0.2429
 2354DOPS   PO427616  21.710  32.938  10.899  0.0731 -0.0715  0.2491
 2354DOPS   GL127617  21.716  32.743  11.241 -0.0300 -0.2631  0.0766
 2354DOPS   GL227618  21.632  32.880  11.421 -0.1192 -0.1083  0.0133
 2354DOPS   C1A27619  21.533  32.379  11.507 -0.0115  0.0947 -0.1243
 2354DOPS   D2A27620  21.544  32.012  11.784 -0.0198  0.0135 -0.0053
 2354DOPS   C3A27621  21.545  32.022  12.232 -0.1197 -0.2192 -0.4328
 2354DOPS   C4A27622  21.527  32.172  12.662 -0.3999  0.2979  0.1701
 2354DOPS   C1B27623  21.635  32.878  11.895  0.1864  0.0388  0.1559
 2354DOPS   D2B27624  21.838  33.195  12.200  0.1950  0.0490 -0.4884
 2354DOPS   C3B27625  21.673  33.403  12.621  0.0471 -0.1890  0.1254
 2354DOPS   C4B27626  21.628  33.620  13.056 -0.0594  0.2759  0.0310
 2355DOPE   NH327627   9.404  33.982  10.472 -0.1265 -0.0882  0.2865
 2355DOPE   PO427628   9.309  33.729  10.614 -0.1539 -0.1442  0.3384
 2355DOPE   GL127629   9.381  33.883  10.951  0.0112  0.1552  0.2540
 2355DOPE   GL227630   9.649  33.891  11.055  0.0719  0.0889  0.1424
 2355DOPE   C1A27631   9.248  34.030  11.405 -0.2805  0.1557  0.1149
 2355DOPE   D2A27632   9.103  34.092  11.860 -0.2787  0.0137  0.1108
 2355DOPE   C3A27633   9.151  33.938  12.266  0.1536 -0.0446 -0.2840
 2355DOPE   C4A27634   8.886  33.978  12.657  0.2518  0.2250 -0.1500
 2355DOPE   C1B27635   9.781  33.901  11.496  0.0875 -0.3551  0.3434
 2355DOPE   D2B27636   9.471  33.744  11.795  0.0375  0.0464  0.3153
 2355DOPE   C3B27637   9.291  33.474  12.067 -0.2816  0.0909  0.3089
 2355DOPE   C4B27638   9.049  33.522  12.458 -0.4433 -0.0852  0.3298
 2356DOPE   NH327639  18.683  29.680  11.125  0.0600 -0.1229  0.0536
 2356DOPE   PO427640  18.878  29.925  11.204  0.3745 -0.2495  0.0140
 2356DOPE   GL127641  18.846  29.647  11.549  0.1161  0.3363  0.1016
 2356DOPE   GL227642  18.595  29.474  11.531  0.1981  0.1840 -0.1743
 2356DOPE   C1A27643  18.543  29.657  11.963  0.0073  0.0748 -0.3742
 2356DOPE   D2A27644  18.487  29.533  12.380  0.1452 -0.2486  0.4132
 2356DOPE   C3A27645  18.880  29.460  12.649 -0.0796 -0.2343  0.0883
 2356DOPE   C4A27646  19.277  29.434  12.901  0.2425  0.0762  0.2047
 2356DOPE   C1B27647  18.846  29.197  11.746 -0.2642  0.0324 -0.0510
 2356DOPE   D2B27648  18.861  28.852  12.057  0.0439  0.3399  0.2055
 2356DOPE   C3B27649  19.083  28.989  12.473 -0.3148  0.0191  0.1532
 2356DOPE   C4B27650  19.055  28.993  12.947  0.0262 -0.0977  0.2306
 2357POSM   NC327651  23.925  25.285  10.343 -0.0082  0.1932  0.2037
 2357POSM   PO427652  23.834  25.051  10.635  0.0869  0.1127 -0.0102
 2357POSM   AM127653  23.752  25.151  10.930 -0.2526  0.2087  0.2733
 2357POSM   AM227654  23.677  25.363  11.111 -0.2097  0.0643  0.0304
 2357POSM   T1A27655  23.384  25.025  11.259  0.0776 -0.3211 -0.1132
 2357POSM   C2A27656  22.987  24.939  11.401  0.0241  0.1580 -0.0390
 2357POSM   C3A27657  22.665  24.595  11.411  0.1282  0.0174 -0.0720
 2357POSM   C1B27658  23.623  25.513  11.407  0.3660  0.1245 -0.0309
 2357POSM   D2B27659  23.498  25.476  11.828 -0.0023  0.1257 -0.0476
 2357POSM   C3B27660  23.349  25.919  11.957 -0.1202 -0.0072 -0.1559
 2357POSM   C4B27661  23.204  26.247  11.700 -0.2942 -0.1903 -0.1127
 2358DOPC   NC327662  23.773  28.367  11.100  0.0413  0.0215 -0.0593
 2358DOPC   PO427663  23.868  28.678  11.356  0.2326  0.0105  0.3986
 2358DOPC   GL127664  23.525  28.741  11.625 -0.0659 -0.3319  0.1685
 2358DOPC   GL227665  23.620  28.776  11.913  0.0328  0.1102 -0.0027
 2358DOPC   C1A27666  23.100  28.548  11.709 -0.3117  0.1405  0.5251
 2358DOPC   D2A27667  22.776  28.345  11.968 -0.0740  0.0657  0.2668
 2358DOPC   C3A27668  22.844  28.235  12.403 -0.1158  0.2223 -0.0409
 2358DOPC   C4A27669  22.884  28.530  12.676  0.0064  0.0206  0.0721
 2358DOPC   C1B27670  23.874  28.401  11.967 -0.4863 -0.1127  0.1446
 2358DOPC   D2B27671  24.243  28.181  12.068  0.2150  0.0604 -0.2831
 2358DOPC   C3B27672  24.516  28.454  12.333  0.0493 -0.0235  0.1534
 2358DOPC   C4B27673  24.407  28.895  12.470  0.1058  0.2329 -0.0241
 2359DOPC   NC327674  14.260  29.750  10.855 -0.0055 -0.0852 -0.0131
 2359DOPC   PO427675  13.909  29.802  10.686 -0.2265 -0.0425 -0.3184
 2359DOPC   GL127676  13.928  29.471  11.030 -0.1878 -0.0514  0.1341
 2359DOPC   GL227677  13.680  29.406  11.134  0.1699  0.0215 -0.0779
 2359DOPC   C1A27678  14.085  29.322  11.477  0.1383  0.0675 -0.1029
 2359DOPC   D2A27679  14.558  29.213  11.553 -0.1170  0.0760 -0.2994
 2359DOPC   C3A27680  14.854  28.910  11.793  0.2508  0.0206  0.0833
 2359DOPC   C4A27681  14.998  28.879  12.270 -0.0097  0.3070  0.0625
 2359DOPC   C1B27682  13.703  29.021  11.410  0.3141  0.0377 -0.0511
 2359DOPC   D2B27683  13.699  28.751  11.811 -0.0409 -0.1839  0.1933
 2359DOPC   C3B27684  13.426  28.829  12.164 -0.0822  0.0481 -0.0048
 2359DOPC   C4B27685  13.637  28.787  12.636 -0.2510 -0.4720 -0.2267
 2360DOPE   NH327686  21.071   1.321  10.639 -0.1060  0.1220 -0.0310
 2360DOPE   PO427687  20.738   1.342  10.626 -0.0475  0.0421  0.0265
 2360DOPE   GL127688  20.649   1.186  11.004  0.1070 -0.3491 -0.0910
 2360DOPE   GL227689  20.875   1.054  11.072 -0.1066  0.0087 -0.1727
 2360DOPE   C1A27690  20.577   0.971  11.467 -0.3631 -0.0741  0.0618
 2360DOPE   D2A27691  20.469   0.920  11.900 -0.2709  0.1912  0.0745
 2360DOPE   C3A27692  20.621   0.780  12.289 -0.0707 -0.0870  0.3582
 2360DOPE   C4A27693  20.409   0.510  12.558  0.2184 -0.2190  0.0681
 2360DOPE   C1B27694  21.061   1.137  11.491 -0.0081  0.0243 -0.3581
 2360DOPE   D2B27695  20.919   1.125  11.933  0.0123 -0.0364 -0.1089
 2360DOPE   C3B27696  20.979   1.088  12.398  0.1851  0.1324  0.4161
 2360DOPE   C4B27697  21.115   1.420  12.695  0.0815  0.2257 -0.1060
 2361POSM   NC327698  22.550   1.511  11.393 -0.0125  0.1142 -0.0789
 2361POSM   PO427699  22.453   1.168  11.196 -0.2077  0.2624 -0.0938
 2361POSM   AM127700  22.201   1.152  11.421 -0.0551 -0.1651  0.2786
 2361POSM   AM227701  22.062   0.950  11.583  0.2301 -0.0076  0.1474
 2361POSM   T1A27702  21.721   1.279  11.568  0.0348 -0.2715 -0.2989
 2361POSM   C2A27703  21.308   1.543  11.545  0.0433  0.2487  0.1432
 2361POSM   C3A27704  20.885   1.637  11.690 -0.1910 -0.0762  0.1601
 2361POSM   C1B27705  22.231   0.804  11.818  0.0347 -0.5216  0.3541
 2361POSM   D2B27706  22.517   0.810  12.195 -0.3148  0.0469  0.0990
 2361POSM   C3B27707  22.720   0.892  12.579 -0.1010 -0.1085  0.4297
 2361POSM   C4B27708  22.692   0.639  12.976 -0.1509 -0.2338  0.1406
 2362DOPE   NH327709  17.090  30.338  11.289 -0.1717  0.2219 -0.1452
 2362DOPE   PO427710  17.062  29.989  11.183 -0.0503 -0.1204 -0.0002
 2362DOPE   GL127711  16.853  30.057  11.584  0.1512 -0.3514  0.3988
 2362DOPE   GL227712  16.749  30.265  11.726 -0.0264  0.3589  0.3487
 2362DOPE   C1A27713  16.591  29.782  11.887  0.0782  0.1083 -0.0464
 2362DOPE   D2A27714  16.623  29.457  12.224  0.1944 -0.2915  0.0978
 2362DOPE   C3A27715  16.917  29.743  12.417  0.1257  0.3952 -0.0799
 2362DOPE   C4A27716  17.326  29.844  12.534  0.2109 -0.0010  0.0866
 2362DOPE   C1B27717  16.682  30.190  12.193  0.1718  0.1194 -0.1064
 2362DOPE   D2B27718  16.488  30.051  12.605 -0.0208 -0.3254  0.0103
 2362DOPE   C3B27719  16.579  29.598  12.783 -0.1221 -0.2495  0.2657
 2362DOPE   C4B27720  16.724  29.239  13.101  0.1495 -0.1075 -0.1104
 2363DOPC   NC327721  18.108  33.450  10.843  0.0187  0.1018  0.0722
 2363DOPC   PO427722  18.420  33.180  10.768  0.0449 -0.1853 -0.0763
 2363DOPC   GL127723  18.377  33.156  11.128 -0.1066  0.0767 -0.1631
 2363DOPC   GL227724  18.192  32.874  11.232  0.1509 -0.0482  0.0823
 2363DOPC   C1A27725  18.648  33.012  11.452  0.2749  0.3001 -0.1002
 2363DOPC   D2A27726  18.713  32.834  11.891 -0.4938 -0.2567 -0.3839
 2363DOPC   C3A27727  18.415  32.849  12.229 -0.1055 -0.2891  0.2108
 2363DOPC   C4A27728  18.041  32.784  12.526 -0.0248  0.3682  0.2257
 2363DOPC   C1B27729  17.882  33.203  11.474  0.0354  0.0517 -0.0468
 2363DOPC   D2B27730  17.700  33.430  11.798  0.0541  0.3161 -0.5245
 2363DOPC   C3B27731  17.890  33.271  12.256 -0.2066 -0.1699  0.2200
 2363DOPC   C4B27732  18.126  33.495  12.537  0.1091 -0.1744  0.2329
 2364DOPS   CNO27733  14.514  25.339  10.173  0.2612  0.1128 -0.0062
 2364DOPS   PO427734  14.132  25.343  10.092  0.1070 -0.1609 -0.3467
 2364DOPS   GL127735  14.138  25.220  10.478  0.3674  0.1343  0.0232
 2364DOPS   GL227736  13.962  25.584  10.512 -0.1019 -0.1480  0.1970
 2364DOPS   C1A27737  13.902  25.154  10.886 -0.2020  0.0486 -0.0538
 2364DOPS   D2A27738  13.757  25.178  11.330  0.0640  0.1611 -0.0476
 2364DOPS   C3A27739  13.783  24.794  11.552 -0.5063  0.0002  0.2415
 2364DOPS   C4A27740  13.884  24.395  11.461 -0.2896 -0.1180  0.1634
 2364DOPS   C1B27741  13.678  25.901  10.728  0.1070 -0.0595 -0.0432
 2364DOPS   D2B27742  13.372  26.138  10.953 -0.0817  0.0544 -0.1237
 2364DOPS   C3B27743  13.227  25.918  11.301 -0.1167  0.2014  0.1364
 2364DOPS   C4B27744  13.033  25.528  11.525  0.1662  0.1735 -0.0588
 2365DOPE   NH327745  15.427  32.886  10.867 -0.0847 -0.3410 -0.1743
 2365DOPE   PO427746  15.102  32.790  10.852  0.0807 -0.1521  0.0981
 2365DOPE   GL127747  15.078  33.094  11.145 -0.0130  0.0588  0.0378
 2365DOPE   GL227748  15.322  33.200  11.252 -0.1481  0.3781 -0.0291
 2365DOPE   C1A27749  14.993  32.948  11.580  0.1463 -0.1746 -0.0976
 2365DOPE   D2A27750  14.890  32.932  12.070  0.0134 -0.0934  0.0873
 2365DOPE   C3A27751  15.148  32.640  12.360  0.1031  0.1537  0.1364
 2365DOPE   C4A27752  15.366  32.207  12.369  0.1167 -0.0058 -0.1503
 2365DOPE   C1B27753  15.552  33.198  11.652  0.0035 -0.0196  0.0295
 2365DOPE   D2B27754  15.632  33.502  11.990  0.1260  0.0068  0.2981
 2365DOPE   C3B27755  15.677  33.343  12.420 -0.0114  0.1056  0.1618
 2365DOPE   C4B27756  15.768  33.204  12.874 -0.2228 -0.2798 -0.0800
 2366DOPE   NH327757  16.272  26.757   9.910  0.1696 -0.0007 -0.2566
 2366DOPE   PO427758  16.065  26.525  10.091  0.2379 -0.2399  0.0766
 2366DOPE   GL127759  16.073  26.725  10.382 -0.2781  0.0109 -0.0097
 2366DOPE   GL227760  16.329  26.947  10.449  0.1229 -0.0692  0.3439
 2366DOPE   C1A27761  15.885  26.708  10.798 -0.1898  0.0005 -0.0554
 2366DOPE   D2A27762  15.659  26.844  11.169  0.1300  0.0716 -0.0363
 2366DOPE   C3A27763  15.385  27.224  11.162 -0.0415  0.0433  0.1286
 2366DOPE   C4A27764  15.254  27.559  11.414  0.2120 -0.4725 -0.2946
 2366DOPE   C1B27765  16.371  26.591  10.725 -0.0330  0.0611  0.0838
 2366DOPE   D2B27766  16.048  26.284  10.857 -0.4709  0.1484 -0.2358
 2366DOPE   C3B27767  15.775  26.343  11.212  0.0093  0.4304  0.2593
 2366DOPE   C4B27768  15.652  26.494  11.627  0.0144 -0.2256  0.0611
 2367DOPS   CNO27769  22.938   1.634  11.106 -0.0485 -0.0207 -0.0995
 2367DOPS   PO427770  23.171   1.538  11.370  0.1122  0.0408 -0.6930
 2367DOPS   GL127771  22.911   1.624  11.673 -0.5485 -0.0133 -0.3182
 2367DOPS   GL227772  23.082   1.800  11.843 -0.0363  0.3725  0.1195
 2367DOPS   C1A27773  22.616   1.663  12.014 -0.0500  0.0324 -0.3944
 2367DOPS   D2A27774  22.683   1.317  12.331  0.2688 -0.0819  0.1027
 2367DOPS   C3A27775  23.022   1.233  12.600 -0.0466 -0.2149  0.2331
 2367DOPS   C4A27776  23.457   1.315  12.826 -0.0419  0.0206  0.0840
 2367DOPS   C1B27777  23.266   2.260  12.028  0.0968  0.0491 -0.0222
 2367DOPS   D2B27778  23.299   2.379  12.452  0.0389 -0.1708  0.1525
 2367DOPS   C3B27779  23.030   2.626  12.729  0.0089 -0.3698 -0.2198
 2367DOPS   C4B27780  22.757   3.026  12.699  0.0594  0.0586 -0.3101
 2368DOPE   NH327781  25.412  28.359  11.447 -0.0845 -0.0585 -0.2763
 2368DOPE   PO427782  25.344  28.578  11.681 -0.0452 -0.1317  0.4355
 2368DOPE   GL127783  25.201  28.363  12.022  0.0364  0.1145 -0.3204
 2368DOPE   GL227784  24.989  28.443  12.066  0.0664  0.0655 -0.0137
 2368DOPE   C1A27785  25.227  28.392  12.507  0.1967  0.0886  0.0433
 2368DOPE   D2A27786  25.328  28.611  12.864  0.1761  0.0651 -0.0588
 2368DOPE   C3A27787  25.355  28.218  13.097 -0.1229 -0.1401 -0.1902
 2368DOPE   C4A27788  25.040  27.841  13.013  0.0999 -0.2350 -0.0173
 2368DOPE   C1B27789  24.925  28.067  12.352 -0.1517  0.2633 -0.2174
 2368DOPE   D2B27790  24.701  28.022  12.749  0.0930  0.2932  0.0571
 2368DOPE   C3B27791  24.260  27.896  12.525  0.2020  0.0785  0.0319
 2368DOPE   C4B27792  23.923  27.609  12.356  0.1224  0.4558  0.2052
 2369DOPS   CNO27793  18.629  23.978   9.531 -0.1354  0.5565 -0.0998
 2369DOPS   PO427794  18.928  23.975   9.809  0.2158  0.1051 -0.1478
 2369DOPS   GL127795  18.834  23.948  10.238 -0.2585 -0.2877 -0.1576
 2369DOPS   GL227796  18.960  23.738  10.292  0.1439 -0.2296 -0.0546
 2369DOPS   C1A27797  18.441  23.963  10.463 -0.2773  0.3452  0.0419
 2369DOPS   D2A27798  18.018  23.856  10.258  0.2428  0.0190  0.1367
 2369DOPS   C3A27799  17.650  24.105  10.435  0.0128 -0.1128 -0.4014
 2369DOPS   C4A27800  17.247  24.259  10.641 -0.1514  0.0762 -0.0447
 2369DOPS   C1B27801  19.127  23.919  10.689 -0.4635 -0.0824  0.2789
 2369DOPS   D2B27802  19.210  24.009  11.129 -0.0013  0.0024 -0.3486
 2369DOPS   C3B27803  19.054  24.405  11.354 -0.1670 -0.0745  0.0441
 2369DOPS   C4B27804  18.843  24.772  11.231  0.0141 -0.0780 -0.0175
 2370DOPS   CNO27805  23.004  24.688   9.894  0.0874 -0.0351  0.0542
 2370DOPS   PO427806  22.986  24.970  10.182 -0.1057  0.1721  0.0422
 2370DOPS   GL127807  22.889  24.926  10.584  0.1050  0.0225 -0.2780
 2370DOPS   GL227808  22.566  24.877  10.627  0.0694 -0.2077  0.1581
 2370DOPS   C1A27809  22.808  25.259  10.905 -0.1674  0.1333  0.3287
 2370DOPS   D2A27810  22.769  25.685  11.083  0.1876 -0.2195  0.0298
 2370DOPS   C3A27811  22.404  25.855  11.318  0.1369 -0.1552  0.2356
 2370DOPS   C4A27812  22.148  25.864  11.772 -0.1830 -0.3306  0.2772
 2370DOPS   C1B27813  22.484  24.959  11.052 -0.4712  0.0242  0.0861
 2370DOPS   D2B27814  22.316  24.921  11.441  0.2640  0.3072 -0.0669
 2370DOPS   C3B27815  22.632  25.177  11.708 -0.2233  0.1504 -0.1124
 2370DOPS   C4B27816  22.484  25.531  11.964  0.3075 -0.0015 -0.3751
 2371DOPC   NC327817  16.279  26.125   9.947  0.1849  0.1453  0.0764
 2371DOPC   PO427818  16.562  25.903   9.899  0.2753 -0.0133 -0.1824
 2371DOPC   GL127819  16.350  25.630  10.292  0.1811  0.1399  0.2555
 2371DOPC   GL227820  16.126  25.651  10.158  0.0778 -0.0913 -0.1045
 2371DOPC   C1A27821  16.359  25.246  10.605 -0.2186  0.3744 -0.0088
 2371DOPC   D2A27822  16.143  24.903  10.760  0.4014 -0.0932  0.2452
 2371DOPC   C3A27823  16.469  24.625  10.844  0.1797  0.1246 -0.3081
 2371DOPC   C4A27824  16.568  24.183  10.954  0.1607 -0.0705  0.0459
 2371DOPC   C1B27825  15.736  25.776  10.379 -0.1863  0.0330 -0.1398
 2371DOPC   D2B27826  15.725  25.853  10.799  0.2392 -0.1150  0.0112
 2371DOPC   C3B27827  16.007  25.819  11.154  0.1674  0.1144 -0.1041
 2371DOPC   C4B27828  16.239  25.639  11.495 -0.4721  0.0678  0.1528
 2372DOPC   NC327829  18.983  30.914  11.112 -0.1746  0.1665  0.3367
 2372DOPC   PO427830  19.284  30.653  11.221  0.3021 -0.0487  0.3524
 2372DOPC   GL127831  19.243  30.593  11.541 -0.6954  0.1933 -0.0243
 2372DOPC   GL227832  18.914  30.702  11.567  0.1540  0.0873  0.1053
 2372DOPC   C1A27833  19.175  30.592  11.969  0.3520  0.0926  0.1229
 2372DOPC   D2A27834  19.438  30.796  12.369 -0.1525 -0.0845 -0.2847
 2372DOPC   C3A27835  19.447  31.208  12.567  0.2108 -0.1378 -0.0642
 2372DOPC   C4A27836  19.232  31.332  13.000 -0.1931  0.0190 -0.1289
 2372DOPC   C1B27837  18.662  30.950  11.905  0.0322 -0.1531  0.0261
 2372DOPC   D2B27838  18.587  31.364  12.111 -0.0349  0.1730 -0.2369
 2372DOPC   C3B27839  18.429  31.700  11.874  0.4291 -0.2599 -0.1050
 2372DOPC   C4B27840  18.211  32.116  11.836  0.0356  0.1269  0.0200
 2373DOPE   NH327841  18.293  27.723  10.459 -0.1037 -0.3202 -0.4269
 2373DOPE   PO427842  18.158  27.991  10.589 -0.0271 -0.1141 -0.0838
 2373DOPE   GL127843  18.368  27.860  10.921 -0.0221  0.2588 -0.0116
 2373DOPE   GL227844  18.182  27.603  10.978 -0.0629  0.2958  0.1214
 2373DOPE   C1A27845  18.615  27.794  11.289  0.0243 -0.2575 -0.2340
 2373DOPE   D2A27846  18.537  27.888  11.729  0.0193 -0.0610 -0.2853
 2373DOPE   C3A27847  18.714  28.281  12.034  0.1565 -0.3400  0.0656
 2373DOPE   C4A27848  18.947  28.311  12.415  0.2989 -0.0295  0.0309
 2373DOPE   C1B27849  18.302  27.437  11.398 -0.0484 -0.1880  0.1810
 2373DOPE   D2B27850  18.473  27.094  11.717 -0.3793 -0.1755  0.1116
 2373DOPE   C3B27851  18.608  27.007  12.187  0.3198  0.1828  0.2118
 2373DOPE   C4B27852  18.355  27.208  12.518 -0.2325  0.5312  0.2401
 2374DOPC   NC327853  21.282  32.635  11.062 -0.2080  0.1728 -0.3452
 2374DOPC   PO427854  21.173  33.003  10.970 -0.0642 -0.1709 -0.0322
 2374DOPC   GL127855  21.167  33.369  11.186 -0.3598 -0.0936 -0.3370
 2374DOPC   GL227856  21.426  33.371  11.315  0.0783 -0.1344 -0.1863
 2374DOPC   C1A27857  21.062  33.617  11.565 -0.0647 -0.2305  0.4056
 2374DOPC   D2A27858  21.261  34.058  11.773  0.1441  0.0133 -0.1075
 2374DOPC   C3A27859  21.376  34.184  12.230  0.1494  0.2731  0.1117
 2374DOPC   C4A27860  21.339  33.853  12.539 -0.0676  0.1125  0.3017
 2374DOPC   C1B27861  21.247  33.218  11.759  0.0119  0.1686 -0.1949
 2374DOPC   D2B27862  20.928  33.198  12.108 -0.0149  0.0047  0.0616
 2374DOPC   C3B27863  20.562  32.957  12.274 -0.0328  0.0829  0.4059
 2374DOPC   C4B27864  20.231  32.683  12.535  0.1837  0.0389  0.0545
 2375POSM   NC327865  17.030  26.053   9.985 -0.1530 -0.0968  0.4366
 2375POSM   PO427866  17.438  26.152   9.994  0.0059 -0.0608  0.2848
 2375POSM   AM127867  17.484  26.263  10.288  0.0691  0.0945 -0.0145
 2375POSM   AM227868  17.222  26.342  10.427 -0.3031  0.4967  0.2890
 2375POSM   T1A27869  17.571  26.468  10.731  0.1680  0.0312 -0.2203
 2375POSM   C2A27870  17.532  26.903  10.916 -0.0387  0.1190  0.0923
 2375POSM   C3A27871  17.494  27.382  11.015 -0.0360 -0.0530 -0.0907
 2375POSM   C1B27872  17.114  26.080  10.664 -0.2190 -0.0420  0.2719
 2375POSM   D2B27873  17.171  25.605  10.755 -0.0061 -0.1571  0.3258
 2375POSM   C3B27874  17.200  25.547  11.218 -0.0807 -0.0725 -0.2080
 2375POSM   C4B27875  17.377  25.572  11.677 -0.1037  0.0383 -0.0524
 2376DOPC   NC327876  14.832  33.243  10.658 -0.5298 -0.2313  0.2542
 2376DOPC   PO427877  14.454  33.306  10.693  0.0110 -0.1849 -0.0104
 2376DOPC   GL127878  14.363  33.213  11.095 -0.2925 -0.1147 -0.2315
 2376DOPC   GL227879  14.154  33.368  11.102  0.2809  0.0805 -0.1244
 2376DOPC   C1A27880  14.377  32.974  11.533  0.0467  0.1493  0.2608
 2376DOPC   D2A27881  14.392  32.718  11.966 -0.1264  0.0195 -0.4092
 2376DOPC   C3A27882  14.544  32.694  12.371  0.0474  0.2094 -0.1361
 2376DOPC   C4A27883  14.390  32.821  12.753 -0.1501  0.1903  0.1373
 2376DOPC   C1B27884  14.233  33.580  11.490 -0.1712  0.1733 -0.2160
 2376DOPC   D2B27885  14.396  33.678  11.930  0.1859 -0.0484  0.1788
 2376DOPC   C3B27886  14.596  33.688  12.287 -0.2486  0.0504 -0.0368
 2376DOPC   C4B27887  14.654  33.792  12.741 -0.2801  0.2987 -0.1817
 2377DOPC   NC327888  15.874  32.121  11.028  0.0537  0.1770  0.4357
 2377DOPC   PO427889  16.274  32.121  11.054  0.1729  0.1871 -0.1540
 2377DOPC   GL127890  16.175  31.842  11.337  0.3063 -0.1552  0.2461
 2377DOPC   GL227891  16.439  31.788  11.429 -0.1043  0.0963  0.0196
 2377DOPC   C1A27892  16.106  31.791  11.777  0.1959 -0.0287  0.1514
 2377DOPC   D2A27893  15.878  31.915  12.160  0.1379 -0.5320  0.0887
 2377DOPC   C3A27894  15.909  31.688  12.571  0.1050 -0.2767  0.2677
 2377DOPC   C4A27895  16.202  31.496  12.802  0.2222  0.0648  0.0177
 2377DOPC   C1B27896  16.600  31.881  11.834 -0.1116 -0.0410 -0.3262
 2377DOPC   D2B27897  16.890  32.119  12.045  0.0841 -0.0231  0.1636
 2377DOPC   C3B27898  17.013  32.000  12.518 -0.0967 -0.3225  0.0533
 2377DOPC   C4B27899  17.200  31.965  12.945 -0.2061 -0.1013  0.1135
 2378DOPE   NH327900  13.321  32.650  10.556  0.1036 -0.0505  0.1311
 2378DOPE   PO427901  13.137  32.400  10.453  0.2972  0.0231  0.3136
 2378DOPE   GL127902  13.170  32.170  10.845  0.4102 -0.2660 -0.0761
 2378DOPE   GL227903  13.108  32.439  10.957 -0.1950  0.0486 -0.0207
 2378DOPE   C1A27904  13.290  32.056  11.281 -0.2036 -0.3753 -0.5368
 2378DOPE   D2A27905  13.123  31.951  11.688 -0.1312 -0.1026  0.2536
 2378DOPE   C3A27906  13.455  31.621  11.656  0.1858 -0.3806 -0.1161
 2378DOPE   C4A27907  13.480  31.172  11.616  0.1448 -0.3281  0.0244
 2378DOPE   C1B27908  12.941  32.384  11.394 -0.2756  0.2563  0.1141
 2378DOPE   D2B27909  12.748  32.346  11.841 -0.0168  0.0499 -0.1106
 2378DOPE   C3B27910  12.820  31.920  12.062 -0.0446 -0.2283  0.2837
 2378DOPE   C4B27911  12.894  31.625  12.404  0.0479 -0.0776 -0.2315
 2379DOPE   NH327912  16.648  30.293  11.020  0.1078  0.0201  0.5313
 2379DOPE   PO427913  16.869  30.473  10.883  0.2336  0.1962  0.0981
 2379DOPE   GL127914  16.707  30.684  11.234 -0.0099  0.0151 -0.1177
 2379DOPE   GL227915  16.799  30.676  11.505 -0.3373  0.0845  0.2211
 2379DOPE   C1A27916  16.481  30.990  11.499 -0.2137  0.0225 -0.0383
 2379DOPE   D2A27917  16.137  31.349  11.473 -0.2390 -0.3871 -0.0621
 2379DOPE   C3A27918  15.949  31.355  11.913  0.1241  0.2249  0.0392
 2379DOPE   C4A27919  15.882  31.251  12.371  0.1538  0.1343 -0.0004
 2379DOPE   C1B27920  16.693  30.699  11.953  0.0695  0.0784 -0.3201
 2379DOPE   D2B27921  16.583  30.767  12.423  0.0901 -0.0475  0.2095
 2379DOPE   C3B27922  16.589  31.234  12.635 -0.0069  0.0934  0.1987
 2379DOPE   C4B27923  16.731  31.653  12.745  0.0956  0.0841  0.2759
 2380DOPC   NC327924  11.453  29.446   9.757 -0.1308  0.2608 -0.2384
 2380DOPC   PO427925  11.741  29.497  10.000  0.0039 -0.1501 -0.0846
 2380DOPC   GL127926  11.645  29.750  10.280 -0.2901 -0.1497  0.0243
 2380DOPC   GL227927  11.782  29.567  10.495  0.1706 -0.0539  0.2005
 2380DOPC   C1A27928  11.398  30.049  10.574 -0.1294  0.1815  0.4418
 2380DOPC   D2A27929  11.346  30.077  11.046 -0.0079  0.0789 -0.0941
 2380DOPC   C3A27930  11.529  30.449  11.289  0.0036 -0.2235 -0.0545
 2380DOPC   C4A27931  11.701  30.767  11.550  0.0416 -0.1741  0.3016
 2380DOPC   C1B27932  11.725  29.806  10.922  0.0308 -0.1795  0.1754
 2380DOPC   D2B27933  11.724  29.973  11.372  0.2289  0.0697  0.0994
 2380DOPC   C3B27934  11.357  30.200  11.627 -0.4453 -0.0560 -0.3632
 2380DOPC   C4B27935  11.067  30.101  11.941 -0.1492 -0.2930  0.1434
 2381DOPE   NH327936  19.899  29.666  10.993  0.1857  0.2343 -0.1447
 2381DOPE   PO427937  19.683  29.799  11.122 -0.2552 -0.3562  0.0104
 2381DOPE   GL127938  19.985  30.023  11.376  0.1666  0.1926 -0.3970
 2381DOPE   GL227939  20.173  30.210  11.256 -0.4438  0.1920 -0.0458
 2381DOPE   C1A27940  20.093  30.144  11.787 -0.1360  0.1799  0.0226
 2381DOPE   D2A27941  20.137  30.319  12.232  0.0960 -0.2085  0.0534
 2381DOPE   C3A27942  19.889  30.613  12.466  0.2611  0.1010  0.2536
 2381DOPE   C4A27943  19.735  30.915  12.795 -0.2023 -0.0034 -0.2010
 2381DOPE   C1B27944  20.458  29.913  11.542  0.0231 -0.1947  0.0088
 2381DOPE   D2B27945  20.316  29.747  11.954  0.0528  0.1280 -0.0247
 2381DOPE   C3B27946  20.653  29.434  12.069 -0.2412  0.1888  0.1360
 2381DOPE   C4B27947  21.017  29.228  11.836 -0.3632  0.0935  0.0257
 2382DOPS   CNO27948  13.588   0.871  10.188 -0.1594 -0.1896  0.1585
 2382DOPS   PO427949  13.333   0.661  10.320  0.1173 -0.0283 -0.4178
 2382DOPS   GL127950  13.472   0.834  10.617  0.0375  0.0177 -0.3292
 2382DOPS   GL227951  13.762   0.941  10.660 -0.0970 -0.0785 -0.0680
 2382DOPS   C1A27952  13.344   0.842  11.056  0.0584  0.3423 -0.3161
 2382DOPS   D2A27953  13.334   0.486  11.318 -0.1112  0.2513 -0.3392
 2382DOPS   C3A27954  13.458   0.528  11.754  0.2896  0.3464  0.0639
 2382DOPS   C4A27955  13.280   0.474  12.199 -0.5238 -0.3350 -0.0694
 2382DOPS   C1B27956  14.045   0.895  11.033 -0.0539  0.0182 -0.3243
 2382DOPS   D2B27957  14.253   0.592  11.309  0.0634  0.0664 -0.2373
 2382DOPS   C3B27958  14.430   0.668  11.747 -0.1602  0.1937 -0.1304
 2382DOPS   C4B27959  14.357   1.077  11.952  0.2488 -0.0930  0.3829
 2383DOPC   NC327960  15.749  34.177  10.860 -0.1327 -0.2202 -0.0773
 2383DOPC   PO427961  15.403  34.257  10.706 -0.2940  0.0458  0.0436
 2383DOPC   GL127962  15.233  34.482  10.988  0.0834  0.2418  0.0423
 2383DOPC   GL227963  15.421  34.496  11.171  0.0665  0.2637 -0.1520
 2383DOPC   C1A27964  14.828  34.441  11.257  0.1866 -0.3885  0.2012
 2383DOPC   D2A27965  14.386  34.396  11.368  0.0308 -0.0207 -0.0384
 2383DOPC   C3A27966  14.226  34.371  11.814 -0.0488  0.0615  0.1521
 2383DOPC   C4A27967  13.789  34.357  12.109 -0.1307 -0.0126  0.0889
 2383DOPC   C1B27968  15.232  34.165  11.418 -0.1207  0.1284 -0.3154
 2383DOPC   D2B27969  15.453  33.877  11.748  0.1125 -0.0009 -0.0167
 2383DOPC   C3B27970  15.389  33.873  12.212 -0.0143  0.3213  0.2098
 2383DOPC   C4B27971  14.954  34.002  12.410  0.2945  0.0111  0.3101
 2384POSM   NC327972  18.242  31.975  10.966 -0.0673  0.0252 -0.5427
 2384POSM   PO427973  18.400  32.185  10.612 -0.0870  0.2528  0.1477
 2384POSM   AM127974  18.593  32.292  10.905  0.3349  0.0925  0.0664
 2384POSM   AM227975  18.852  32.339  10.994 -0.1190 -0.1058 -0.3439
 2384POSM   T1A27976  18.557  32.498  11.382 -0.1386  0.2503 -0.0942
 2384POSM   C2A27977  18.272  32.627  11.762 -0.2022 -0.0475 -0.3986
 2384POSM   C3A27978  18.031  32.993  11.878  0.3297  0.1996 -0.0440
 2384POSM   C1B27979  18.927  32.259  11.293 -0.2130 -0.0581 -0.2841
 2384POSM   D2B27980  19.127  32.090  11.650  0.0448  0.2052  0.2452
 2384POSM   C3B27981  19.316  32.069  12.127 -0.0710  0.0518  0.0899
 2384POSM   C4B27982  19.278  32.217  12.499  0.0272  0.1011  0.1328
 2385DOPC   NC327983  13.311  31.979  10.291 -0.1594 -0.3028 -0.1926
 2385DOPC   PO427984  13.596  31.763  10.402  0.0220 -0.0681 -0.3398
 2385DOPC   GL127985  13.535  31.878  10.783  0.1206  0.0473 -0.0431
 2385DOPC   GL227986  13.253  31.699  10.852 -0.0829 -0.4195 -0.1616
 2385DOPC   C1A27987  13.706  31.635  11.146  0.1838 -0.2797 -0.1504
 2385DOPC   D2A27988  13.847  31.240  11.281 -0.1098 -0.3293 -0.0812
 2385DOPC   C3A27989  13.929  31.162  11.771  0.2757 -0.2943  0.0723
 2385DOPC   C4A27990  14.058  30.999  12.198  0.1230  0.0963 -0.0795
 2385DOPC   C1B27991  12.882  31.532  11.028  0.1641  0.2051  0.0208
 2385DOPC   D2B27992  12.655  31.159  11.146  0.0343 -0.0392  0.0162
 2385DOPC   C3B27993  12.566  31.255  11.576 -0.4438  0.0183  0.1043
 2385DOPC   C4B27994  12.481  31.396  11.993 -0.1423 -0.3222 -0.0775
 2386POSM   NC327995  17.405  30.067  10.785 -0.0960  0.1914  0.1682
 2386POSM   PO427996  17.559  30.059  11.163 -0.1467 -0.0189 -0.2904
 2386POSM   AM127997  17.462  30.094  11.457 -0.5032 -0.1371  0.1657
 2386POSM   AM227998  17.342  29.918  11.639 -0.2353  0.1099  0.1598
 2386POSM   T1A27999  17.334  30.450  11.779 -0.1044  0.0861 -0.1407
 2386POSM   C2A28000  17.360  30.805  12.090  0.2131 -0.0948 -0.0256
 2386POSM   C3A28001  17.578  31.105  12.381  0.3323 -0.1584 -0.0761
 2386POSM   C1B28002  17.156  30.013  11.919 -0.0085 -0.2946  0.0495
 2386POSM   D2B28003  17.209  30.325  12.288  0.3516  0.2030 -0.1212
 2386POSM   C3B28004  16.931  30.226  12.645 -0.2275 -0.0188 -0.1949
 2386POSM   C4B28005  16.743  30.071  13.076 -0.0542  0.2544 -0.1054
 2387DOPE   NH328006  14.950  31.120  10.480  0.2247  0.2765 -0.1944
 2387DOPE   PO428007  14.964  30.792  10.544 -0.2801 -0.0236  0.2982
 2387DOPE   GL128008  14.949  30.843  10.945  0.2635  0.1411  0.4499
 2387DOPE   GL228009  14.899  30.620  11.100 -0.1609 -0.0723  0.0373
 2387DOPE   C1A28010  15.373  30.895  11.226  0.1210 -0.1027  0.2248
 2387DOPE   D2A28011  15.511  30.817  11.674  0.1477  0.1115  0.4159
 2387DOPE   C3A28012  15.744  30.874  12.086 -0.0863  0.0807  0.0688
 2387DOPE   C4A28013  15.879  30.654  12.385 -0.2833  0.3170  0.1877
 2387DOPE   C1B28014  14.563  30.670  11.407  0.1093  0.0603 -0.1172
 2387DOPE   D2B28015  14.344  30.869  11.761 -0.1497  0.0110 -0.1410
 2387DOPE   C3B28016  13.953  30.626  11.824  0.1585 -0.4201  0.0427
 2387DOPE   C4B28017  13.534  30.617  11.617  0.1211  0.0390 -0.0885
 2388DOPE   NH328018  21.251  30.666  10.429  0.2382 -0.1192 -0.0328
 2388DOPE   PO428019  21.581  30.638  10.415  0.0828 -0.2069  0.0986
 2388DOPE   GL128020  21.615  30.586  10.788 -0.2581 -0.6388 -0.0670
 2388DOPE   GL228021  21.793  30.726  10.965  0.0612 -0.1062  0.2088
 2388DOPE   C1A28022  21.253  30.795  11.092  0.2781  0.3189 -0.1156
 2388DOPE   D2A28023  20.786  30.790  11.117  0.0213 -0.0450  0.2347
 2388DOPE   C3A28024  20.541  30.589  11.386  0.0092  0.1613 -0.0852
 2388DOPE   C4A28025  20.522  30.538  11.831  0.2235 -0.0513 -0.0988
 2388DOPE   C1B28026  21.920  30.793  11.387  0.0052 -0.0638  0.0615
 2388DOPE   D2B28027  21.887  31.090  11.745 -0.1713 -0.2565 -0.6005
 2388DOPE   C3B28028  22.034  30.924  12.108 -0.0128  0.0956 -0.1032
 2388DOPE   C4B28029  22.043  30.895  12.620 -0.0596 -0.1732  0.1917
 2389DOPS   CNO28030  21.053  24.928  10.105  0.2400  0.4260 -0.1997
 2389DOPS   PO428031  20.812  24.821  10.380 -0.2268 -0.3630  0.1602
 2389DOPS   GL128032  20.751  24.745  10.698  0.0362 -0.0452 -0.1267
 2389DOPS   GL228033  20.571  24.580  10.896  0.0758  0.3497 -0.2116
 2389DOPS   C1A28034  20.947  24.961  11.032  0.1205  0.2262 -0.2887
 2389DOPS   D2A28035  21.386  25.110  11.260  0.3085 -0.4642  0.2899
 2389DOPS   C3A28036  21.246  25.049  11.645 -0.0642  0.0802  0.1647
 2389DOPS   C4A28037  20.884  24.948  11.968 -0.0644 -0.2106 -0.0046
 2389DOPS   C1B28038  20.874  24.289  11.053 -0.3894 -0.1024  0.3197
 2389DOPS   D2B28039  20.759  24.178  11.522  0.2112 -0.0224  0.0973
 2389DOPS   C3B28040  21.112  24.419  11.782  0.1215 -0.1209 -0.1132
 2389DOPS   C4B28041  21.422  24.531  12.055  0.1330 -0.2951 -0.0359
 2390DOPE   NH328042  13.713  24.972   9.505  0.1784  0.0864  0.0628
 2390DOPE   PO428043  13.773  25.224   9.737  0.0379 -0.0838  0.0253
 2390DOPE   GL128044  13.615  25.394  10.144  0.3614  0.1962  0.0816
 2390DOPE   GL228045  13.706  25.132  10.294  0.2518 -0.0035 -0.0950
 2390DOPE   C1A28046  13.503  25.895  10.215  0.0973 -0.0995  0.0120
 2390DOPE   D2A28047  13.527  26.298  10.430 -0.3325 -0.0503 -0.2688
 2390DOPE   C3A28048  13.114  26.360  10.615  0.1854 -0.1747 -0.5757
 2390DOPE   C4A28049  13.041  26.626  10.974 -0.0698  0.3055  0.0657
 2390DOPE   C1B28050  13.423  25.386  10.566  0.2432 -0.1231 -0.0611
 2390DOPE   D2B28051  13.357  25.445  11.071  0.1947 -0.0914  0.1516
 2390DOPE   C3B28052  13.114  25.092  11.303  0.2228 -0.1945  0.1191
 2390DOPE   C4B28053  12.674  25.098  11.474 -0.2686  0.1589  0.0311
 2391DOPE   NH328054  21.924  22.621   9.500  0.0370 -0.2946  0.0525
 2391DOPE   PO428055  21.656  22.546   9.341 -0.0620 -0.2440 -0.2012
 2391DOPE   GL128056  21.546  22.420   9.678 -0.3164 -0.5573  0.0007
 2391DOPE   GL228057  21.400  22.171   9.596  0.1889  0.0017  0.4009
 2391DOPE   C1A28058  21.831  22.249   9.958  0.2734 -0.0107  0.1125
 2391DOPE   D2A28059  22.202  21.940  10.147  0.1292  0.0484 -0.0375
 2391DOPE   C3A28060  22.310  21.701  10.528 -0.0459 -0.0276 -0.1517
 2391DOPE   C4A28061  22.465  21.352  10.743  0.1716 -0.0505  0.0122
 2391DOPE   C1B28062  21.253  22.323  10.043  0.4691  0.1048  0.1806
 2391DOPE   D2B28063  20.844  22.283  10.268 -0.1780 -0.2725  0.1685
 2391DOPE   C3B28064  20.836  22.651  10.543  0.0593 -0.0110 -0.0761
 2391DOPE   C4B28065  20.695  22.854  10.917  0.0077 -0.0143 -0.1334
 2392POSM   NC328066  20.101  32.847  10.085  0.1989  0.2551  0.0815
 2392POSM   PO428067  20.265  32.873  10.454 -0.0900 -0.3940  0.1233
 2392POSM   AM128068  20.245  33.070  10.705 -0.4016  0.0668  0.3641
 2392POSM   AM228069  20.279  33.372  10.832  0.3881 -0.1122 -0.0810
 2392POSM   T1A28070  20.322  33.015  11.226  0.1570 -0.1619  0.1520
 2392POSM   C2A28071  20.090  32.919  11.646  0.1464 -0.0681 -0.2484
 2392POSM   C3A28072  20.146  32.778  12.057  0.0092 -0.1039 -0.1461
 2392POSM   C1B28073  20.046  33.529  11.120  0.2618  0.2274 -0.0986
 2392POSM   D2B28074  19.943  33.429  11.576  0.3652  0.1634 -0.0865
 2392POSM   C3B28075  19.956  33.510  12.029 -0.0996  0.1077  0.0887
 2392POSM   C4B28076  19.972  33.768  12.360 -0.0322  0.1422  0.1412
 2393DOPC   NC328077  25.930  34.256  11.615  0.3742  0.1159 -0.0189
 2393DOPC   PO428078  25.877  34.656  11.680 -0.0824  0.1935  0.3822
 2393DOPC   GL128079  25.824  34.537  12.039  0.1904  0.0648 -0.1722
 2393DOPC   GL228080  25.734  34.797  12.139 -0.0223  0.1614  0.1280
 2393DOPC   C1A28081  26.009  34.531  12.465  0.0789  0.1216  0.1935
 2393DOPC   D2A28082  26.131  34.618  12.901 -0.0936 -0.2130 -0.0481
 2393DOPC   C3A28083  26.560  34.698  13.016  0.0723 -0.0855 -0.1642
 2393DOPC   C4A28084  26.996  34.910  13.044 -0.1580 -0.2380 -0.0894
 2393DOPC   C1B28085  25.598  34.742  12.594 -0.0750 -0.1664 -0.4307
 2393DOPC   D2B28086  25.701  34.873  13.047  0.0362 -0.2000  0.3299
 2393DOPC   C3B28087  25.284  35.036  13.237  0.2449 -0.0823 -0.1806
 2393DOPC   C4B28088  25.032  35.400  13.229 -0.1939 -0.0220 -0.0723
 2394DOPC   NC328089  19.213  22.139   8.807 -0.1211 -0.0085  0.0275
 2394DOPC   PO428090  19.147  21.802   8.775  0.1807 -0.1996 -0.1995
 2394DOPC   GL128091  19.096  21.445   9.049 -0.0067 -0.4648 -0.0707
 2394DOPC   GL228092  18.973  21.529   9.284 -0.0367 -0.0310 -0.1763
 2394DOPC   C1A28093  19.424  21.434   9.323  0.2299 -0.1244  0.2392
 2394DOPC   D2A28094  19.619  21.458   9.752 -0.1645 -0.6191  0.3090
 2394DOPC   C3A28095  19.796  21.693  10.046  0.2420  0.0001 -0.0600
 2394DOPC   C4A28096  19.716  21.966  10.406  0.0749  0.0160 -0.0605
 2394DOPC   C1B28097  19.103  21.676   9.722  0.2616 -0.0571  0.0401
 2394DOPC   D2B28098  19.306  21.847  10.080  0.0489  0.0186 -0.1196
 2394DOPC   C3B28099  19.105  21.659  10.422 -0.1044 -0.1169 -0.2436
 2394DOPC   C4B28100  18.825  21.496  10.718 -0.4141 -0.4754 -0.3183
 2395DOPE   NH328101  14.707  24.179   8.712  0.0592 -0.1000 -0.3067
 2395DOPE   PO428102  14.765  24.278   9.000  0.3531  0.1187  0.2984
 2395DOPE   GL128103  14.740  24.356   9.381  0.2118  0.3136  0.0416
 2395DOPE   GL228104  15.022  24.395   9.400  0.0156  0.0368  0.2512
 2395DOPE   C1A28105  14.734  24.287   9.851 -0.0257 -0.2671 -0.3241
 2395DOPE   D2A28106  14.587  24.335  10.294  0.0413  0.0243  0.1053
 2395DOPE   C3A28107  14.765  24.562  10.675  0.1199 -0.1268  0.3498
 2395DOPE   C4A28108  14.819  24.724  11.102  0.1239  0.0024 -0.0594
 2395DOPE   C1B28109  15.469  24.311   9.610  0.4058 -0.1260  0.0182
 2395DOPE   D2B28110  15.753  24.386  10.009 -0.0484 -0.1226  0.0662
 2395DOPE   C3B28111  16.036  24.693  10.217  0.3423  0.1960 -0.1776
 2395DOPE   C4B28112  16.164  25.109  10.226 -0.1731 -0.1382  0.3510
 2396DOPE   NH328113  21.963  28.666  10.543  0.1215 -0.2656 -0.0791
 2396DOPE   PO428114  22.040  28.871  10.789  0.1212  0.0369  0.1277
 2396DOPE   GL128115  21.807  28.993  11.035  0.2286 -0.1076  0.1511
 2396DOPE   GL228116  21.866  28.833  11.296 -0.1417  0.1657  0.0064
 2396DOPE   C1A28117  21.359  28.902  11.039  0.0060 -0.1977 -0.3441
 2396DOPE   D2A28118  21.068  28.748  11.374  0.1464 -0.1848 -0.1716
 2396DOPE   C3A28119  20.788  28.285  11.289  0.0901 -0.0888  0.0347
 2396DOPE   C4A28120  20.620  28.017  10.959 -0.4246 -0.2980  0.1977
 2396DOPE   C1B28121  22.047  28.790  11.672  0.2425  0.3156 -0.1444
 2396DOPE   D2B28122  21.810  28.697  12.087 -0.0782  0.1636 -0.0640
 2396DOPE   C3B28123  21.629  28.976  12.434  0.0103 -0.2352  0.0494
 2396DOPE   C4B28124  21.516  29.388  12.635 -0.0744 -0.0560 -0.1460
 2397POSM   NC328125  18.203  25.686   9.911  0.1364  0.0382  0.0481
 2397POSM   PO428126  17.824  25.799   9.958 -0.3329  0.0566  0.0133
 2397POSM   AM128127  17.856  25.835  10.246  0.2718 -0.3245 -0.1420
 2397POSM   AM228128  18.031  25.757  10.402 -0.0169  0.2773 -0.0024
 2397POSM   T1A28129  17.656  25.973  10.651  0.0313 -0.0886  0.0884
 2397POSM   C2A28130  17.394  26.004  11.033 -0.1504  0.0758 -0.0257
 2397POSM   C3A28131  17.186  26.014  11.455  0.0716  0.1838 -0.2754
 2397POSM   C1B28132  18.301  25.759  10.552 -0.2919 -0.0755 -0.0670
 2397POSM   D2B28133  18.515  25.952  10.917 -0.2067  0.0591 -0.2561
 2397POSM   C3B28134  18.456  25.882  11.357  0.0915  0.3248 -0.1344
 2397POSM   C4B28135  18.128  25.762  11.702 -0.0812  0.2989 -0.0898
 2398POSM   NC328136  20.317  31.267  10.564  0.2662 -0.0117  0.1526
 2398POSM   PO428137  20.385  30.879  10.524  0.1912  0.0704  0.0438
 2398POSM   AM128138  20.420  30.911  10.838  0.1170  0.2866 -0.2950
 2398POSM   AM228139  20.275  30.901  11.110  0.0532 -0.1217 -0.1877
 2398POSM   T1A28140  20.590  31.316  11.161  0.1321 -0.3689  0.5665
 2398POSM   C2A28141  20.849  31.256  11.569 -0.2079 -0.1197 -0.1552
 2398POSM   C3A28142  20.850  31.439  12.001  0.4767  0.3596  0.1715
 2398POSM   C1B28143  20.243  31.015  11.452 -0.0018  0.2162 -0.1324
 2398POSM   D2B28144  20.472  31.106  11.829 -0.2224 -0.1096  0.0266
 2398POSM   C3B28145  20.816  30.895  12.039 -0.1370 -0.3097  0.4111
 2398POSM   C4B28146  21.021  31.058  12.431 -0.2143 -0.0655 -0.1353
 2399POSM   NC328147  11.920  33.224  10.398  0.0249  0.1524  0.1203
 2399POSM   PO428148  11.966  32.844  10.397 -0.2809 -0.1364 -0.1686
 2399POSM   AM128149  12.088  32.635  10.630  0.0395  0.3792  0.0150
 2399POSM   AM228150  12.289  32.793  10.830 -0.0598  0.1012 -0.3045
 2399POSM   T1A28151  12.466  32.302  10.797  0.1635 -0.1188 -0.1767
 2399POSM   C2A28152  12.686  32.023  11.156  0.1145 -0.1210 -0.1634
 2399POSM   C3A28153  12.738  31.675  11.525  0.2030 -0.2060 -0.1406
 2399POSM   C1B28154  12.260  32.617  11.084 -0.0308  0.0345 -0.0734
 2399POSM   D2B28155  12.324  32.619  11.543  0.2499 -0.2820 -0.0811
 2399POSM   C3B28156  12.626  32.847  11.773  0.3120 -0.0211  0.1305
 2399POSM   C4B28157  12.987  33.082  11.649  0.1893 -0.1778  0.0713
 2400POSM   NC328158  20.344  28.314  10.003  0.3538 -0.0224  0.0800
 2400POSM   PO428159  20.520  28.456  10.299  0.2022 -0.0780  0.1430
 2400POSM   AM128160  20.660  28.489  10.637  0.0872  0.1218 -0.2056
 2400POSM   AM228161  20.512  28.575  10.870 -0.2752  0.2317 -0.0746
 2400POSM   T1A28162  21.044  28.507  10.932  0.0371  0.0844 -0.1891
 2400POSM   C2A28163  21.322  28.333  11.215 -0.2062  0.1652 -0.0913
 2400POSM   C3A28164  21.469  28.275  11.671 -0.0318 -0.0221  0.1290
 2400POSM   C1B28165  20.581  28.743  11.146 -0.2822 -0.1751  0.1001
 2400POSM   D2B28166  20.639  28.987  11.613  0.1211  0.1591  0.1246
 2400POSM   C3B28167  20.343  29.068  11.916 -0.2408 -0.0616 -0.1474
 2400POSM   C4B28168  20.065  28.888  12.259  0.0807 -0.0448 -0.0951
 2401DOPC   NC328169  16.317  29.431  11.064 -0.0118  0.2562  0.0951
 2401DOPC   PO428170  16.165  29.182  10.818 -0.1304  0.1596  0.1941
 2401DOPC   GL128171  15.954  29.031  11.203 -0.2055 -0.0146 -0.0326
 2401DOPC   GL228172  15.806  28.868  11.024 -0.3411 -0.0108  0.0485
 2401DOPC   C1A28173  15.767  29.310  11.592 -0.0130 -0.2333 -0.1581
 2401DOPC   D2A28174  15.561  29.337  12.003  0.0833 -0.0199  0.3265
 2401DOPC   C3A28175  15.103  29.250  11.999  0.0899 -0.0983 -0.2627
 2401DOPC   C4A28176  14.706  29.490  12.153  0.0187  0.5393 -0.1652
 2401DOPC   C1B28177  15.688  28.722  11.417  0.1188  0.2809  0.1533
 2401DOPC   D2B28178  15.776  28.350  11.669  0.1073 -0.0861  0.0937
 2401DOPC   C3B28179  16.007  28.286  12.065 -0.1980 -0.0530  0.0033
 2401DOPC   C4B28180  16.413  28.457  12.242 -0.0914  0.0181  0.0706
 2402DOPC   NC328181  19.382  27.880  10.611  0.3787 -0.4232 -0.0888
 2402DOPC   PO428182  19.612  28.184  10.526 -0.0278 -0.1301  0.1706
 2402DOPC   GL128183  19.650  28.188  10.988 -0.2220 -0.1390 -0.1168
 2402DOPC   GL228184  19.843  28.386  11.159 -0.3828 -0.1635  0.2646
 2402DOPC   C1A28185  19.550  27.774  11.209 -0.1565  0.0033  0.3150
 2402DOPC   D2A28186  19.175  27.650  11.515 -0.1343  0.2209 -0.2838
 2402DOPC   C3A28187  19.327  27.582  11.912 -0.1285  0.0402  0.0904
 2402DOPC   C4A28188  19.758  27.483  12.032 -0.2224  0.2776 -0.0250
 2402DOPC   C1B28189  20.301  28.300  11.222  0.2517  0.2241 -0.0438
 2402DOPC   D2B28190  20.333  28.168  11.675  0.1167 -0.1287 -0.2425
 2402DOPC   C3B28191  20.689  28.506  11.809  0.0370 -0.1485 -0.2855
 2402DOPC   C4B28192  20.677  28.799  12.188  0.4322 -0.1387  0.0986
 2403DOPE   NH328193  18.882  33.129  10.643 -0.2582  0.0709 -0.1341
 2403DOPE   PO428194  19.043  33.410  10.623  0.3148  0.0470  0.0092
 2403DOPE   GL128195  19.090  33.602  10.974  0.3766 -0.1766 -0.1010
 2403DOPE   GL228196  18.871  33.335  11.092 -0.0447 -0.1209 -0.0597
 2403DOPE   C1A28197  19.302  33.756  11.369  0.1468  0.0334  0.3017
 2403DOPE   D2A28198  19.752  33.841  11.449  0.0446  0.2450  0.3458
 2403DOPE   C3A28199  19.979  34.280  11.411  0.0571 -0.1525  0.1734
 2403DOPE   C4A28200  19.971  34.752  11.436  0.0170  0.1691 -0.0607
 2403DOPE   C1B28201  18.675  33.634  11.358 -0.0975 -0.2649 -0.0527
 2403DOPE   D2B28202  18.918  33.905  11.663 -0.2619  0.3513 -0.1892
 2403DOPE   C3B28203  18.787  33.764  12.111  0.2003 -0.0442 -0.0349
 2403DOPE   C4B28204  18.735  34.037  12.430  0.0458 -0.1118 -0.2197
 2404DOPC   NC328205  18.916  32.277  10.512  0.0477  0.3401  0.0935
 2404DOPC   PO428206  18.846  31.936  10.709 -0.0961  0.0688  0.1680
 2404DOPC   GL128207  18.744  31.877  11.074  0.0308  0.4140 -0.1754
 2404DOPC   GL228208  18.962  31.719  11.236 -0.3090  0.1914  0.1239
 2404DOPC   C1A28209  18.559  31.965  11.520 -0.0052 -0.2210 -0.0137
 2404DOPC   D2A28210  18.688  32.316  11.830  0.3899  0.2458 -0.2148
 2404DOPC   C3A28211  18.446  32.355  12.177  0.2687 -0.1462  0.0675
 2404DOPC   C4A28212  18.049  32.312  12.370 -0.0500 -0.1319 -0.0011
 2404DOPC   C1B28213  19.219  31.588  11.566  0.1414 -0.1164  0.0130
 2404DOPC   D2B28214  19.398  31.506  12.003 -0.2121 -0.1284  0.1661
 2404DOPC   C3B28215  19.606  31.171  12.135 -0.2285 -0.0883  0.0762
 2404DOPC   C4B28216  19.993  31.150  12.378 -0.0665 -0.1239 -0.1918
 2405DOPC   NC328217  25.420   0.133  11.720 -0.0793  0.2455  0.2249
 2405DOPC   PO428218  25.162  -0.127  11.523 -0.0240  0.0825 -0.2125
 2405DOPC   GL128219  25.006  -0.378  11.797  0.1173  0.1552 -0.2051
 2405DOPC   GL228220  25.238  -0.266  11.988  0.3015 -0.0080 -0.2778
 2405DOPC   C1A28221  25.057  -0.639  12.190 -0.0059 -0.1446  0.0604
 2405DOPC   D2A28222  25.076  -1.072  12.300 -0.0353  0.0541 -0.3925
 2405DOPC   C3A28223  24.686  -1.160  12.476 -0.1922 -0.1756 -0.3123
 2405DOPC   C4A28224  24.445  -1.469  12.747 -0.2690  0.3845 -0.1501
 2405DOPC   C1B28225  25.130  -0.161  12.406 -0.0652 -0.1172  0.3102
 2405DOPC   D2B28226  24.834   0.074  12.642  0.0548  0.0503 -0.0645
 2405DOPC   C3B28227  24.783   0.094  13.138 -0.2661 -0.0753 -0.0529
 2405DOPC   C4B28228  24.840  -0.192  13.533 -0.1065 -0.0643 -0.0963
 2406DOPS   CNO28229  20.946  34.562  10.458 -0.3469 -0.0523  0.0130
 2406DOPS   PO428230  20.664  34.777  10.426  0.2497 -0.0487 -0.0252
 2406DOPS   GL128231  20.616  34.677  10.794 -0.1784 -0.2397 -0.1385
 2406DOPS   GL228232  20.555  34.390  10.876 -0.0297  0.1064 -0.1154
 2406DOPS   C1A28233  20.826  34.742  11.207  0.3309 -0.1465  0.1167
 2406DOPS   D2A28234  21.109  34.900  11.528 -0.0378 -0.1348  0.1923
 2406DOPS   C3A28235  21.117  34.750  11.998 -0.1584  0.0281  0.0016
 2406DOPS   C4A28236  21.375  34.721  12.429  0.1639  0.0935 -0.1759
 2406DOPS   C1B28237  20.397  34.500  11.281 -0.2008 -0.0891 -0.2639
 2406DOPS   D2B28238  20.392  34.277  11.710  0.0023  0.1435 -0.0513
 2406DOPS   C3B28239  20.656  33.904  11.802  0.0268 -0.2568 -0.1686
 2406DOPS   C4B28240  20.988  33.760  12.068  0.1086 -0.2954 -0.2325
 2407POSM   NC328241  22.503  31.343  10.703 -0.2786 -0.1730  0.0870
 2407POSM   PO428242  22.633  31.698  10.797 -0.1649 -0.1264  0.1686
 2407POSM   AM128243  22.670  31.588  11.112 -0.0679 -0.0673 -0.2033
 2407POSM   AM228244  22.592  31.321  11.169 -0.2783 -0.3852 -0.0765
 2407POSM   T1A28245  22.452  31.604  11.545 -0.0824 -0.1722 -0.0629
 2407POSM   C2A28246  22.347  31.785  11.973 -0.0049 -0.2173  0.3498
 2407POSM   C3A28247  22.028  32.033  12.157  0.3510  0.1297 -0.3452
 2407POSM   C1B28248  22.596  31.116  11.451 -0.0757 -0.2053 -0.2365
 2407POSM   D2B28249  22.371  30.731  11.628  0.0974 -0.1779  0.0858
 2407POSM   C3B28250  22.518  30.391  11.861 -0.0002  0.2732 -0.1868
 2407POSM   C4B28251  22.513  30.079  12.182  0.1402  0.0493 -0.4764
 2408DOPS   CNO28252  17.383   0.195  10.453  0.1265  0.3161 -0.0613
 2408DOPS   PO428253  17.027   0.224  10.375 -0.3499 -0.4193 -0.0376
 2408DOPS   GL128254  17.053   0.235  10.824  0.1726  0.2743  0.1251
 2408DOPS   GL228255  16.840   0.068  10.886 -0.0239 -0.2467  0.0427
 2408DOPS   C1A28256  17.048   0.332  11.297  0.0794  0.2005 -0.4052
 2408DOPS   D2A28257  17.231   0.487  11.709 -0.2268  0.1099 -0.1738
 2408DOPS   C3A28258  17.280   0.984  11.748 -0.0023  0.0171  0.0220
 2408DOPS   C4A28259  17.160   1.257  12.112 -0.1732 -0.2264 -0.0387
 2408DOPS   C1B28260  16.551   0.466  11.041 -0.1344  0.0470  0.0710
 2408DOPS   D2B28261  16.400   0.598  11.441 -0.1286  0.0552  0.0288
 2408DOPS   C3B28262  16.513   0.630  11.858 -0.0896 -0.1190  0.0359
 2408DOPS   C4B28263  16.896   0.743  12.008  0.0661 -0.2244 -0.3325
 2409POSM   NC328264  14.473  31.659  10.226  0.2264  0.2534  0.0311
 2409POSM   PO428265  14.729  31.616  10.569  0.3626  0.0577 -0.2141
 2409POSM   AM128266  14.618  31.741  10.846 -0.3634  0.2431  0.1238
 2409POSM   AM228267  14.722  31.738  11.120  0.0884  0.1941 -0.0195
 2409POSM   T1A28268  14.196  31.649  11.158 -0.2516  0.0375  0.1829
 2409POSM   C2A28269  13.982  31.665  11.586  0.4929  0.3547  0.1269
 2409POSM   C3A28270  13.837  31.719  12.024 -0.2831  0.0510  0.2861
 2409POSM   C1B28271  14.644  31.878  11.410 -0.2181  0.3043 -0.0925
 2409POSM   D2B28272  14.462  31.806  11.807 -0.1464  0.0684  0.2405
 2409POSM   C3B28273  14.388  31.368  12.029 -0.1507  0.0428 -0.0083
 2409POSM   C4B28274  14.613  31.054  12.288 -0.2111 -0.0953  0.1409
 2410DOPC   NC328275  16.766  31.932  10.953  0.1039  0.3011 -0.0269
 2410DOPC   PO428276  16.682  31.526  10.946 -0.1078  0.1984 -0.2229
 2410DOPC   GL128277  16.730  31.383  11.357  0.2496  0.0222  0.0421
 2410DOPC   GL228278  16.955  31.269  11.369  0.2050 -0.0653 -0.2861
 2410DOPC   C1A28279  16.556  31.396  11.779 -0.0959 -0.2956  0.1790
 2410DOPC   D2A28280  16.722  31.512  12.212  0.2605  0.1679 -0.1864
 2410DOPC   C3A28281  16.534  31.944  12.377  0.0034  0.1500  0.2307
 2410DOPC   C4A28282  16.647  32.311  12.592 -0.0500  0.0323 -0.1604
 2410DOPC   C1B28283  17.083  31.046  11.719  0.1357  0.0726  0.0097
 2410DOPC   D2B28284  17.082  31.167  12.151  0.2054 -0.2284 -0.3226
 2410DOPC   C3B28285  17.050  30.907  12.538 -0.0746 -0.2662 -0.3393
 2410DOPC   C4B28286  17.392  30.691  12.623 -0.2750 -0.0484  0.0346
 2411DOPC   NC328287  22.290  29.240  10.992 -0.2002 -0.1682 -0.0045
 2411DOPC   PO428288  22.646  29.072  10.939  0.1382 -0.2447 -0.0214
 2411DOPC   GL128289  22.748  28.941  11.314  0.1252 -0.0166 -0.1149
 2411DOPC   GL228290  22.689  29.167  11.463 -0.0239 -0.3698  0.2368
 2411DOPC   C1A28291  22.588  28.711  11.657 -0.0069  0.2540 -0.1359
 2411DOPC   D2A28292  22.413  28.654  12.035  0.2731  0.2425  0.3606
 2411DOPC   C3A28293  22.561  28.934  12.383 -0.0555  0.1624  0.1472
 2411DOPC   C4A28294  22.394  29.330  12.505 -0.0071  0.0059 -0.1083
 2411DOPC   C1B28295  22.477  29.170  11.892  0.1058  0.2457 -0.0857
 2411DOPC   D2B28296  22.152  29.050  12.143  0.2845  0.0787 -0.0110
 2411DOPC   C3B28297  21.897  29.360  12.370  0.2325 -0.1211 -0.0725
 2411DOPC   C4B28298  22.194  29.766  12.496 -0.1963 -0.0612  0.1485
 2412DOPC   NC328299  17.284  23.494   8.830 -0.2081  0.0983 -0.2295
 2412DOPC   PO428300  16.953  23.328   8.704 -0.1967  0.0578 -0.0521
 2412DOPC   GL128301  16.950  23.500   9.135 -0.2344 -0.2307 -0.1172
 2412DOPC   GL228302  16.717  23.350   9.243 -0.1134 -0.2007  0.0725
 2412DOPC   C1A28303  17.140  23.264   9.515  0.1929 -0.0664  0.0831
 2412DOPC   D2A28304  17.048  22.920   9.791  0.0346  0.0062  0.0399
 2412DOPC   C3A28305  16.822  22.989  10.126  0.3375 -0.0836 -0.1484
 2412DOPC   C4A28306  16.811  22.837  10.567  0.1732  0.2548  0.0261
 2412DOPC   C1B28307  16.303  23.180   9.406 -0.1747 -0.0902 -0.4668
 2412DOPC   D2B28308  15.938  23.281   9.747  0.0572 -0.2108 -0.0597
 2412DOPC   C3B28309  15.477  23.378   9.709 -0.0116  0.3958 -0.1165
 2412DOPC   C4B28310  15.048  23.454   9.887  0.2295  0.1238 -0.1223
 2413POSM   NC328311  17.534  31.788  10.601 -0.0547 -0.0654  0.0679
 2413POSM   PO428312  17.745  31.488  10.760  0.1500 -0.1793  0.2117
 2413POSM   AM128313  17.762  31.661  11.051  0.0188  0.0146 -0.0555
 2413POSM   AM228314  17.926  31.683  11.289  0.0787  0.1427 -0.2054
 2413POSM   T1A28315  17.517  31.831  11.472  0.0381 -0.0616  0.0736
 2413POSM   C2A28316  17.392  32.054  11.886  0.1487 -0.2308 -0.1454
 2413POSM   C3A28317  17.520  32.198  12.304 -0.1102 -0.1103  0.2058
 2413POSM   C1B28318  18.048  31.692  11.563 -0.0363 -0.0106  0.2308
 2413POSM   D2B28319  17.848  31.824  11.936 -0.3616  0.0837  0.2676
 2413POSM   C3B28320  18.136  31.840  12.295 -0.1195 -0.0371  0.1291
 2413POSM   C4B28321  18.367  31.903  12.720 -0.0561 -0.2804 -0.1411
 2414POSM   NC328322  14.455  26.140   9.553 -0.0177 -0.0579 -0.0886
 2414POSM   PO428323  14.086  26.189   9.592  0.1037  0.3630  0.0988
 2414POSM   AM128324  13.945  26.219   9.900  0.3124  0.0125 -0.3953
 2414POSM   AM228325  13.807  26.458  10.084  0.1447  0.1029  0.4032
 2414POSM   T1A28326  14.052  26.064  10.342 -0.1665 -0.1555 -0.0932
 2414POSM   C2A28327  14.137  26.001  10.834  0.0653  0.0981 -0.2686
 2414POSM   C3A28328  14.109  26.120  11.276  0.2940 -0.0363  0.2537
 2414POSM   C1B28329  13.955  26.597  10.310  0.2057 -0.1105  0.1135
 2414POSM   D2B28330  14.147  26.988  10.526  0.1953  0.1438 -0.0171
 2414POSM   C3B28331  14.200  26.956  10.991  0.2046  0.0794  0.0919
 2414POSM   C4B28332  13.914  26.960  11.424 -0.3499  0.0034  0.2600
 2415DOPE   NH328333  19.935  28.569  10.691 -0.0233  0.0135 -0.0562
 2415DOPE   PO428334  20.055  28.873  10.685  0.3874 -0.1254 -0.0836
 2415DOPE   GL128335  19.835  28.923  11.065 -0.2449  0.1509  0.0270
 2415DOPE   GL228336  19.977  28.853  11.228 -0.0835  0.0943  0.1119
 2415DOPE   C1A28337  19.432  28.782  11.290  0.0353  0.1749  0.0420
 2415DOPE   D2A28338  19.046  28.705  11.545 -0.2685  0.1341  0.0896
 2415DOPE   C3A28339  19.253  28.575  11.961  0.3623  0.1302 -0.0478
 2415DOPE   C4A28340  19.536  28.208  12.101 -0.1806  0.1286 -0.0357
 2415DOPE   C1B28341  20.180  28.658  11.552 -0.3511  0.0753 -0.0312
 2415DOPE   D2B28342  20.204  28.503  12.007 -0.4624  0.0446  0.0746
 2415DOPE   C3B28343  20.512  28.293  12.225 -0.0372  0.0165  0.1513
 2415DOPE   C4B28344  20.718  28.374  12.665  0.1425 -0.0911 -0.0123
 2416DOPS   CNO28345  26.721  27.824  11.483 -0.0208 -0.0350 -0.3282
 2416DOPS   PO428346  26.505  27.827  11.748  0.1047  0.0103  0.2448
 2416DOPS   GL128347  26.436  27.657  12.085 -0.1347  0.2453 -0.4462
 2416DOPS   GL228348  26.217  27.726  12.204  0.1594 -0.1357  0.0831
 2416DOPS   C1A28349  26.503  27.426  12.496  0.1303  0.1074 -0.2025
 2416DOPS   D2A28350  26.902  27.203  12.680  0.0561  0.1706  0.1913
 2416DOPS   C3A28351  27.014  27.195  13.148  0.0272 -0.1457  0.0300
 2416DOPS   C4A28352  27.041  27.183  13.588  0.3357  0.0334 -0.0757
 2416DOPS   C1B28353  25.975  28.054  12.499 -0.0321  0.4331  0.4064
 2416DOPS   D2B28354  25.840  28.297  12.875 -0.0011 -0.0528  0.4626
 2416DOPS   C3B28355  26.078  28.156  13.218  0.0192 -0.0215 -0.1462
 2416DOPS   C4B28356  26.207  28.034  13.629 -0.3149  0.4689  0.1510
 2417DOPE   NH328357  24.355   1.093  11.595 -0.3115  0.2845  0.0393
 2417DOPE   PO428358  24.240   0.813  11.437 -0.5143 -0.1208  0.4212
 2417DOPE   GL128359  24.177   0.599  11.792  0.0149 -0.0888 -0.1960
 2417DOPE   GL228360  24.027   0.795  11.984  0.3615  0.1995 -0.0862
 2417DOPE   C1A28361  24.462   0.395  12.115  0.1924 -0.1214 -0.2168
 2417DOPE   D2A28362  24.379   0.051  12.412 -0.0457  0.1121 -0.0772
 2417DOPE   C3A28363  24.299   0.251  12.834 -0.2783  0.1196 -0.1221
 2417DOPE   C4A28364  24.313   0.345  13.293  0.1307  0.1747 -0.0146
 2417DOPE   C1B28365  24.045   0.826  12.444 -0.0982  0.3365  0.0647
 2417DOPE   D2B28366  24.078   0.673  12.852 -0.5517  0.0890 -0.1145
 2417DOPE   C3B28367  23.847   0.348  13.082 -0.0159  0.0010 -0.5261
 2417DOPE   C4B28368  23.605  -0.063  13.114  0.2250 -0.0013 -0.0110
 2418DOPC   NC328369  13.538  28.225  10.248 -0.0234 -0.1860  0.0361
 2418DOPC   PO428370  13.216  28.079   9.985 -0.0538 -0.1107 -0.0828
 2418DOPC   GL128371  13.203  27.729  10.086 -0.1324 -0.0244  0.0538
 2418DOPC   GL228372  13.508  27.721  10.233  0.0848 -0.0578  0.0628
 2418DOPC   C1A28373  12.915  27.521  10.370  0.0478  0.3952  0.0931
 2418DOPC   D2A28374  12.805  27.500  10.788 -0.0337 -0.1174 -0.0708
 2418DOPC   C3A28375  12.569  27.548  11.133  0.1352 -0.1118 -0.2179
 2418DOPC   C4A28376  12.398  27.615  11.581 -0.1450  0.0988  0.2195
 2418DOPC   C1B28377  13.351  27.782  10.695  0.1750  0.0497 -0.1832
 2418DOPC   D2B28378  13.135  27.806  11.076  0.2886 -0.2066 -0.4631
 2418DOPC   C3B28379  13.306  27.820  11.504 -0.0320 -0.0201  0.0764
 2418DOPC   C4B28380  13.337  27.962  11.970 -0.0141 -0.1059 -0.0131
 2419DOPC   NC328381  14.360  27.115   9.254 -0.3286  0.0339 -0.1489
 2419DOPC   PO428382  14.481  27.073   9.628  0.3608  0.1162 -0.1507
 2419DOPC   GL128383  14.695  27.200   9.913  0.1020  0.0014 -0.3467
 2419DOPC   GL228384  15.008  27.212   9.854  0.0396 -0.2025 -0.1726
 2419DOPC   C1A28385  14.669  27.071  10.407 -0.1788 -0.0281  0.3331
 2419DOPC   D2A28386  14.636  26.793  10.802  0.0820 -0.0840  0.2488
 2419DOPC   C3A28387  14.624  27.034  11.197 -0.1165 -0.1069 -0.1471
 2419DOPC   C4A28388  14.341  27.140  11.526  0.3056  0.1668  0.0211
 2419DOPC   C1B28389  15.005  27.388  10.251 -0.2246 -0.0425  0.1000
 2419DOPC   D2B28390  14.916  27.712  10.547  0.0164 -0.0193  0.0358
 2419DOPC   C3B28391  14.572  27.905  10.784 -0.0643  0.1952  0.0574
 2419DOPC   C4B28392  14.161  27.953  10.889  0.0089  0.0751  0.1868
 2420POSM   NC328393  23.117  29.196  11.008  0.0259 -0.2236 -0.1325
 2420POSM   PO428394  23.503  29.004  11.062 -0.0129 -0.1409 -0.2915
 2420POSM   AM128395  23.437  29.047  11.342 -0.2432  0.1215 -0.0736
 2420POSM   AM228396  23.170  29.023  11.493 -0.1556  0.0624 -0.0895
 2420POSM   T1A28397  23.458  29.261  11.794  0.0550 -0.2875 -0.3098
 2420POSM   C2A28398  23.354  29.171  12.191  0.0660 -0.2066 -0.2990
 2420POSM   C3A28399  23.087  28.839  12.391  0.0741  0.1124  0.0827
 2420POSM   C1B28400  23.016  29.024  11.829  0.0565 -0.1805 -0.1874
 2420POSM   D2B28401  22.868  29.277  12.190 -0.0273 -0.1926  0.1990
 2420POSM   C3B28402  22.730  29.668  12.393 -0.0779  0.0162 -0.1665
 2420POSM   C4B28403  23.009  30.028  12.491  0.0757 -0.0940  0.1070
 2421POSM   NC328404  11.308  32.001  10.448  0.0093  0.0287  0.0265
 2421POSM   PO428405  11.349  32.293  10.161  0.0103 -0.3030 -0.0085
 2421POSM   AM128406  11.513  32.434  10.436 -0.1407  0.7435 -0.1466
 2421POSM   AM228407  11.685  32.411  10.645 -0.1847 -0.0697 -0.1273
 2421POSM   T1A28408  11.242  32.533  10.882 -0.3275 -0.3362  0.2898
 2421POSM   C2A28409  11.239  32.688  11.296 -0.2970  0.0628  0.0450
 2421POSM   C3A28410  11.366  32.612  11.781  0.0273  0.0669 -0.0846
 2421POSM   C1B28411  11.930  32.292  10.879  0.2790 -0.2838 -0.2115
 2421POSM   D2B28412  12.194  32.098  11.229  0.2048 -0.0415 -0.2519
 2421POSM   C3B28413  12.362  32.078  11.645  0.0782 -0.0029  0.0506
 2421POSM   C4B28414  12.292  32.296  12.054 -0.0834  0.1638 -0.1881
 2422DOPS   CNO28415  18.350  29.150  10.530  0.0828  0.3980  0.0688
 2422DOPS   PO428416  18.661  29.002  10.725  0.3679  0.2307 -0.2964
 2422DOPS   GL128417  18.514  28.813  11.083  0.0187  0.4002  0.1950
 2422DOPS   GL228418  18.610  28.920  11.404  0.2929  0.0378  0.1785
 2422DOPS   C1A28419  18.309  28.541  11.382  0.0056  0.2098  0.0995
 2422DOPS   D2A28420  18.259  28.302  11.791 -0.3181  0.0800 -0.0506
 2422DOPS   C3A28421  18.030  28.338  12.172  0.1169  0.0403 -0.2614
 2422DOPS   C4A28422  17.958  28.268  12.635 -0.1368  0.2203  0.0509
 2422DOPS   C1B28423  18.422  28.731  11.809 -0.1949  0.0788 -0.2995
 2422DOPS   D2B28424  18.389  28.625  12.284 -0.2351  0.3201  0.1768
 2422DOPS   C3B28425  18.164  28.719  12.687  0.0378  0.0333  0.0322
 2422DOPS   C4B28426  18.010  28.666  13.131 -0.3543  0.0276 -0.0603
 2423POSM   NC328427  16.000  24.379   8.704 -0.2311 -0.0321  0.0096
 2423POSM   PO428428  16.258  24.504   8.987  0.0379  0.0513  0.0340
 2423POSM   AM128429  16.328  24.234   9.173  0.1202 -0.1281  0.0515
 2423POSM   AM228430  16.542  24.099   9.319  0.0338 -0.0045 -0.1134
 2423POSM   T1A28431  16.170  24.054   9.607  0.2980 -0.3181  0.3273
 2423POSM   C2A28432  15.786  23.875   9.826 -0.2855 -0.3531 -0.1072
 2423POSM   C3A28433  15.730  23.563  10.114  0.0213  0.3178  0.3340
 2423POSM   C1B28434  16.646  24.215   9.632 -0.0611 -0.0378 -0.1496
 2423POSM   D2B28435  16.921  24.233   9.999  0.2083  0.2635  0.1071
 2423POSM   C3B28436  17.198  23.905  10.194  0.0166 -0.3492 -0.1358
 2423POSM   C4B28437  17.350  23.774  10.604  0.0470  0.0804  0.1426
 2424DOPE   NH328438  16.488   0.232  10.412  0.1959 -0.0953 -0.1885
 2424DOPE   PO428439  16.228   0.003  10.349  0.4391  0.0325  0.1024
 2424DOPE   GL128440  16.119  -0.102  10.765 -0.0837 -0.1940 -0.0385
 2424DOPE   GL228441  15.863  -0.019  10.700  0.1888  0.3160  0.0320
 2424DOPE   C1A28442  16.412  -0.055  11.118 -0.1123 -0.0266 -0.1662
 2424DOPE   D2A28443  16.587   0.165  11.420  0.0005  0.0250 -0.3487
 2424DOPE   C3A28444  16.489   0.113  11.869 -0.0544 -0.7851 -0.3093
 2424DOPE   C4A28445  16.360  -0.099  12.268 -0.0102 -0.1263  0.0060
 2424DOPE   C1B28446  15.947  -0.192  11.180 -0.1644 -0.0693  0.0269
 2424DOPE   D2B28447  16.124  -0.183  11.626  0.1892  0.0384  0.0738
 2424DOPE   C3B28448  15.877  -0.049  12.016 -0.2085 -0.1213 -0.2256
 2424DOPE   C4B28449  15.939   0.202  12.398 -0.0521  0.1338 -0.0103
 2425DOPE   NH328450  15.046  24.939   9.371 -0.1802 -0.1720 -0.1780
 2425DOPE   PO428451  14.816  25.171   9.459  0.3531 -0.1326 -0.0910
 2425DOPE   GL128452  14.826  24.982   9.839  0.0817 -0.0292 -0.2688
 2425DOPE   GL228453  14.658  24.748   9.720  0.3572 -0.0484  0.1604
 2425DOPE   C1A28454  15.050  24.963  10.244 -0.0811 -0.0695 -0.0799
 2425DOPE   D2A28455  15.161  24.839  10.664 -0.0259  0.2918 -0.2910
 2425DOPE   C3A28456  15.175  25.158  10.969 -0.1253  0.1077 -0.1805
 2425DOPE   C4A28457  14.891  25.459  11.140  0.1490  0.0964  0.2453
 2425DOPE   C1B28458  14.283  24.511   9.931 -0.2178  0.2041  0.0697
 2425DOPE   D2B28459  14.076  24.377  10.386  0.1107  0.2741  0.0364
 2425DOPE   C3B28460  13.717  24.174  10.528 -0.2261  0.1777 -0.1785
 2425DOPE   C4B28461  13.308  24.084  10.435  0.1250 -0.1118 -0.0868
 2426DOPE   NH328462  14.336  25.431   9.605 -0.2749  0.0916  0.1044
 2426DOPE   PO428463  14.311  25.717   9.766  0.0468  0.2251 -0.0376
 2426DOPE   GL128464  14.372  25.779  10.237  0.1336 -0.3299  0.3460
 2426DOPE   GL228465  14.694  25.868  10.223 -0.0488  0.2620 -0.1757
 2426DOPE   C1A28466  14.449  25.553  10.666  0.1012 -0.0538  0.0389
 2426DOPE   D2A28467  14.454  25.286  11.041  0.3407  0.1041  0.0026
 2426DOPE   C3A28468  14.165  25.559  11.317  0.0034  0.1287 -0.1219
 2426DOPE   C4A28469  13.711  25.743  11.269 -0.1773  0.2960  0.0971
 2426DOPE   C1B28470  14.660  26.052  10.628 -0.1037  0.0539 -0.2879
 2426DOPE   D2B28471  14.857  26.322  10.950 -0.2722 -0.1783 -0.1878
 2426DOPE   C3B28472  14.740  26.368  11.356 -0.2997 -0.1514 -0.0907
 2426DOPE   C4B28473  14.334  26.545  11.358  0.1749  0.0682  0.0382
 2427DOPS   CNO28474  15.400  25.265   9.585 -0.3380  0.1162 -0.1246
 2427DOPS   PO428475  15.494  25.591   9.640 -0.1087  0.2002  0.0379
 2427DOPS   GL128476  15.553  25.460  10.020  0.0525  0.2628  0.1827
 2427DOPS   GL228477  15.512  25.224  10.090  0.1085  0.1523 -0.0046
 2427DOPS   C1A28478  15.140  25.446  10.255 -0.3583 -0.0990 -0.1331
 2427DOPS   D2A28479  14.893  25.469  10.631  0.1090 -0.1856  0.1785
 2427DOPS   C3A28480  14.647  25.060  10.640 -0.0906  0.0095  0.2604
 2427DOPS   C4A28481  14.325  24.793  10.413  0.2541  0.3254 -0.1790
 2427DOPS   C1B28482  15.653  25.300  10.519 -0.1292  0.0972  0.2594
 2427DOPS   D2B28483  15.811  25.396  10.983 -0.1871 -0.0967 -0.0691
 2427DOPS   C3B28484  16.166  25.237  11.170 -0.0419 -0.0390 -0.2391
 2427DOPS   C4B28485  16.451  24.882  11.305 -0.0869 -0.2003 -0.1546
 2428POSM   NC328486  17.922  28.425  10.823  0.1762 -0.0717  0.1427
 2428POSM   PO428487  18.049  28.777  10.940  0.2429  0.1459 -0.0847
 2428POSM   AM128488  18.056  28.976  11.225 -0.1688  0.0323 -0.2577
 2428POSM   AM228489  17.834  29.148  11.289  0.0326  0.0548 -0.4272
 2428POSM   T1A28490  18.180  29.152  11.697 -0.1448 -0.0758 -0.4823
 2428POSM   C2A28491  18.382  29.110  12.098  0.1747 -0.3192 -0.1391
 2428POSM   C3A28492  18.603  28.982  12.511 -0.0500 -0.1324  0.1184
 2428POSM   C1B28493  17.566  28.980  11.387 -0.0668 -0.0759 -0.1923
 2428POSM   D2B28494  17.411  28.548  11.513  0.0383  0.0650  0.0082
 2428POSM   C3B28495  17.718  28.284  11.783  0.0688 -0.0419 -0.1991
 2428POSM   C4B28496  17.580  28.060  12.178 -0.0890 -0.0936 -0.3483
 2429POSM   NC328497  21.880  30.326  10.227 -0.1958  0.0306 -0.2604
 2429POSM   PO428498  21.971  30.091  10.536  0.2007 -0.1156 -0.0843
 2429POSM   AM128499  21.898  30.216  10.801 -0.3115  0.0421 -0.0084
 2429POSM   AM228500  22.104  30.305  10.982 -0.1059 -0.0667  0.1038
 2429POSM   T1A28501  21.589  30.298  11.180  0.1760 -0.2457 -0.1194
 2429POSM   C2A28502  21.596  30.362  11.629  0.1168 -0.0604  0.1702
 2429POSM   C3A28503  21.370  30.617  11.945 -0.0918 -0.1734  0.4119
 2429POSM   C1B28504  22.132  30.330  11.304 -0.0861 -0.2008 -0.0813
 2429POSM   D2B28505  22.136  30.114  11.700  0.0467  0.1877 -0.0457
 2429POSM   C3B28506  21.833  30.186  12.068 -0.1656  0.1314 -0.1693
 2429POSM   C4B28507  21.418  30.155  12.168  0.1935  0.1356 -0.1547
 2430DOPE   NH328508  23.458  26.836  10.781  0.3288  0.1275 -0.0674
 2430DOPE   PO428509  23.574  26.992  11.062  0.1209 -0.2046 -0.0091
 2430DOPE   GL128510  23.217  27.096  11.268  0.2517 -0.2125 -0.2945
 2430DOPE   GL228511  23.021  27.031  11.058 -0.2658 -0.0736 -0.1797
 2430DOPE   C1A28512  23.139  26.988  11.662 -0.0512 -0.3711  0.0360
 2430DOPE   D2A28513  23.086  26.620  11.952 -0.0789  0.4354  0.0101
 2430DOPE   C3A28514  22.689  26.535  12.171 -0.0633 -0.1984  0.0597
 2430DOPE   C4A28515  22.284  26.514  12.418 -0.1498  0.0349  0.1729
 2430DOPE   C1B28516  22.650  27.023  11.255  0.5337 -0.0672  0.2850
 2430DOPE   D2B28517  22.397  26.876  11.580  0.1683 -0.1556  0.3176
 2430DOPE   C3B28518  22.398  26.953  12.069  0.0171 -0.1591  0.1738
 2430DOPE   C4B28519  22.480  26.958  12.538 -0.0372  0.0203  0.2493
 2431DOPS   CNO28520  11.706   0.222  10.025 -0.0559 -0.0524  0.0462
 2431DOPS   PO428521  11.967   0.356  10.313  0.0876  0.0911  0.2685
 2431DOPS   GL128522  11.907   0.358  10.663  0.2397 -0.0214 -0.1331
 2431DOPS   GL228523  11.798   0.114  10.891  0.1683  0.2842 -0.1113
 2431DOPS   C1A28524  11.625   0.652  10.904  0.2763 -0.1153 -0.0288
 2431DOPS   D2A28525  11.312   0.618  11.242 -0.1132  0.3014  0.0173
 2431DOPS   C3A28526  11.353   0.652  11.711  0.0361  0.2528 -0.0583
 2431DOPS   C4A28527  11.418   0.902  12.059 -0.2478 -0.1236 -0.2808
 2431DOPS   C1B28528  12.063   0.411  11.085  0.2678 -0.2471  0.0232
 2431DOPS   D2B28529  12.280   0.829  11.141  0.0153 -0.0252  0.1118
 2431DOPS   C3B28530  12.352   1.127  11.556  0.0826 -0.1459 -0.2125
 2431DOPS   C4B28531  12.062   1.166  11.951  0.1613 -0.0419 -0.1767
 2432DOPE   NH328532  18.855  30.404  11.194  0.0028  0.0357 -0.0701
 2432DOPE   PO428533  18.539  30.415  11.405  0.0686  0.2038  0.2277
 2432DOPE   GL128534  18.624  30.434  11.885 -0.3847 -0.2247 -0.1118
 2432DOPE   GL228535  18.421  30.225  11.874  0.2574 -0.0480  0.1818
 2432DOPE   C1A28536  18.328  30.612  12.195  0.0744 -0.3682  0.1027
 2432DOPE   D2A28537  17.937  30.747  12.499 -0.0783 -0.0750 -0.1476
 2432DOPE   C3A28538  18.016  31.117  12.780 -0.0890 -0.1663  0.1222
 2432DOPE   C4A28539  18.183  31.474  13.004  0.0060 -0.3033 -0.1825
 2432DOPE   C1B28540  18.443  30.170  12.317  0.2001  0.0770  0.2305
 2432DOPE   D2B28541  18.505  30.505  12.653 -0.4013 -0.2573 -0.3760
 2432DOPE   C3B28542  18.426  30.988  12.586 -0.2527  0.0933 -0.2175
 2432DOPE   C4B28543  18.367  31.419  12.539 -0.0772 -0.1988  0.1942
 2433POSM   NC328544  11.169  25.714   8.956  0.4110 -0.0652 -0.4790
 2433POSM   PO428545  11.343  25.413   9.141  0.1103 -0.0226  0.1475
 2433POSM   AM128546  11.358  25.194   9.404 -0.0012  0.3308  0.3298
 2433POSM   AM228547  11.210  25.049   9.598 -0.1031  0.0667 -0.4034
 2433POSM   T1A28548  11.665  24.937   9.733  0.2608 -0.2065 -0.1025
 2433POSM   C2A28549  12.008  24.969   9.985 -0.0177 -0.4082  0.2987
 2433POSM   C3A28550  12.445  24.992  10.021 -0.3463  0.0813 -0.1362
 2433POSM   C1B28551  10.899  24.976   9.835 -0.0495 -0.0081  0.0440
 2433POSM   D2B28552  10.419  24.955   9.968 -0.0564 -0.1111 -0.1624
 2433POSM   C3B28553  10.253  24.788  10.340  0.1345  0.3374 -0.0174
 2433POSM   C4B28554   9.986  24.796  10.675  0.3169  0.0169  0.1308
 2434POSM   NC328555   9.866  33.578   9.873  0.2208  0.0653  0.0467
 2434POSM   PO428556   9.644  33.540  10.197  0.0029  0.2497 -0.0271
 2434POSM   AM128557   9.640  33.345  10.460  0.4046 -0.1252  0.1121
 2434POSM   AM228558   9.475  33.214  10.671 -0.4019  0.0810  0.2823
 2434POSM   T1A28559   9.988  33.189  10.761  0.0145  0.0136  0.0385
 2434POSM   C2A28560  10.363  33.150  11.105  0.0464  0.2095 -0.2151
 2434POSM   C3A28561  10.556  33.206  11.507 -0.3505  0.0815 -0.3435
 2434POSM   C1B28562   9.550  33.229  11.002  0.0620 -0.0501  0.0359
 2434POSM   D2B28563   9.489  33.467  11.385 -0.1286  0.3223 -0.2062
 2434POSM   C3B28564   9.615  33.230  11.771  0.0535  0.1555  0.0746
 2434POSM   C4B28565   9.694  33.148  12.237  0.3863 -0.1263  0.1347
 2435DOPC   NC328566  15.414  33.792  11.127  0.1878  0.1051  0.2528
 2435DOPC   PO428567  15.718  33.617  10.910 -0.2614 -0.1001  0.1303
 2435DOPC   GL128568  16.049  33.610  11.174  0.1406 -0.2873  0.0384
 2435DOPC   GL228569  15.942  33.929  11.238 -0.2727 -0.2546  0.2638
 2435DOPC   C1A28570  16.178  33.415  11.634  0.0589  0.1104 -0.1757
 2435DOPC   D2A28571  16.203  33.493  12.095 -0.1284 -0.2288 -0.2512
 2435DOPC   C3A28572  15.904  33.837  12.293 -0.1505 -0.4000 -0.0123
 2435DOPC   C4A28573  15.767  34.165  12.564  0.2603  0.0260 -0.1636
 2435DOPC   C1B28574  15.766  34.275  11.496 -0.0602 -0.0378 -0.0745
 2435DOPC   D2B28575  15.718  34.270  11.919 -0.0906 -0.0412 -0.0514
 2435DOPC   C3B28576  16.128  34.278  12.119  0.2486 -0.0352 -0.1407
 2435DOPC   C4B28577  16.540  34.352  11.906  0.1153  0.0921 -0.0840
 2436POSM   NC328578  13.109  30.688  10.312 -0.0126  0.1094  0.0430
 2436POSM   PO428579  13.292  31.033  10.254  0.1282 -0.2371 -0.0602
 2436POSM   AM128580  13.163  31.014  10.605 -0.1575  0.1309  0.0731
 2436POSM   AM228581  13.073  30.787  10.809  0.1309 -0.0016 -0.1153
 2436POSM   T1A28582  13.243  31.216  11.043 -0.0016  0.4062 -0.1548
 2436POSM   C2A28583  13.027  31.261  11.456  0.1426 -0.2344  0.2192
 2436POSM   C3A28584  12.939  31.446  11.883 -0.0008 -0.1268  0.1668
 2436POSM   C1B28585  13.010  30.774  11.164 -0.3053  0.2244  0.1875
 2436POSM   D2B28586  12.854  30.814  11.566 -0.1667  0.2313  0.0086
 2436POSM   C3B28587  13.161  30.819  11.933  0.0591  0.0511 -0.0347
 2436POSM   C4B28588  13.603  30.822  12.087  0.0163 -0.0096  0.0071
 2437DOPE   NH328589  15.626  26.741   9.904  0.1840 -0.3389  0.2525
 2437DOPE   PO428590  15.799  26.973  10.026 -0.0870 -0.3835 -0.1758
 2437DOPE   GL128591  15.860  27.099  10.395 -0.1263 -0.0076 -0.0479
 2437DOPE   GL228592  15.755  27.376  10.378  0.3572  0.0893 -0.2239
 2437DOPE   C1A28593  15.818  27.216  10.872  0.1050  0.0935  0.0394
 2437DOPE   D2A28594  16.006  27.195  11.286 -0.1119  0.0845  0.1376
 2437DOPE   C3A28595  16.079  27.019  11.724  0.2239  0.1173 -0.1073
 2437DOPE   C4A28596  16.268  26.938  12.123 -0.1905  0.0221 -0.1759
 2437DOPE   C1B28597  15.383  27.349  10.669  0.0650 -0.0559  0.0461
 2437DOPE   D2B28598  15.212  27.690  10.930 -0.2534 -0.1400 -0.1435
 2437DOPE   C3B28599  15.361  28.031  11.252  0.1460  0.0321  0.0880
 2437DOPE   C4B28600  15.471  27.962  11.691  0.1196  0.0307 -0.1708
 2438DOPS   CNO28601  16.819  28.312  10.488  0.0382 -0.4394 -0.1494
 2438DOPS   PO428602  16.445  28.365  10.563 -0.0042  0.3481  0.0838
 2438DOPS   GL128603  16.269  28.293  10.982 -0.0761  0.0530 -0.3079
 2438DOPS   GL228604  16.505  28.180  11.186  0.1281 -0.1158  0.1237
 2438DOPS   C1A28605  16.177  28.609  11.334  0.1385 -0.0411 -0.0161
 2438DOPS   D2A28606  16.294  28.674  11.771  0.0068 -0.2940 -0.2201
 2438DOPS   C3A28607  15.908  28.933  11.969 -0.4859  0.1847 -0.3053
 2438DOPS   C4A28608  15.771  29.133  12.360 -0.1901  0.1472  0.1869
 2438DOPS   C1B28609  16.402  28.059  11.642 -0.1228 -0.2123 -0.0133
 2438DOPS   D2B28610  16.488  27.961  12.096  0.1953 -0.0124 -0.2216
 2438DOPS   C3B28611  16.475  27.984  12.587  0.1155  0.2024  0.1202
 2438DOPS   C4B28612  16.195  28.009  12.944  0.0309  0.1759 -0.2038
 2439DOPC   NC328613  14.674  29.748   9.925  0.2357 -0.1111  0.0841
 2439DOPC   PO428614  14.793  29.572  10.264 -0.1822  0.3533  0.0969
 2439DOPC   GL128615  14.698  29.778  10.586 -0.2884  0.0557  0.0724
 2439DOPC   GL228616  14.741  29.557  10.778 -0.0033  0.2129 -0.1750
 2439DOPC   C1A28617  14.958  29.890  10.991 -0.0587 -0.3738 -0.0582
 2439DOPC   D2A28618  15.145  29.953  11.394 -0.0577  0.0226  0.2768
 2439DOPC   C3A28619  15.192  30.136  11.784 -0.1880 -0.1616  0.0961
 2439DOPC   C4A28620  15.266  30.545  12.024 -0.0482 -0.0991 -0.2574
 2439DOPC   C1B28621  15.207  29.449  10.894 -0.1149 -0.5235 -0.1688
 2439DOPC   D2B28622  15.428  29.526  11.257 -0.0310 -0.1330 -0.2892
 2439DOPC   C3B28623  15.423  29.682  11.696  0.1853 -0.0078  0.1407
 2439DOPC   C4B28624  15.713  29.845  12.013  0.2999 -0.3729 -0.1901
 2440DOPC   NC328625  18.992  34.494  10.639  0.1308 -0.1481  0.0683
 2440DOPC   PO428626  18.620  34.579  10.570  0.2163 -0.1526  0.0095
 2440DOPC   GL128627  18.586  34.547  10.908  0.0504  0.1398  0.1593
 2440DOPC   GL228628  18.334  34.736  10.960  0.0466 -0.1167 -0.0374
 2440DOPC   C1A28629  18.976  34.625  11.120 -0.1559 -0.2752  0.0481
 2440DOPC   D2A28630  19.043  34.437  11.581 -0.0999  0.0638 -0.2965
 2440DOPC   C3A28631  19.386  34.611  11.825 -0.0151  0.1636 -0.1948
 2440DOPC   C4A28632  19.318  34.575  12.318  0.0636 -0.1999 -0.1186
 2440DOPC   C1B28633  18.427  34.598  11.468 -0.2191 -0.1791 -0.2884
 2440DOPC   D2B28634  18.711  34.776  11.806 -0.0775  0.0149  0.0973
 2440DOPC   C3B28635  18.737  34.754  12.249 -0.1109  0.4189 -0.2959
 2440DOPC   C4B28636  18.320  34.662  12.491 -0.1433 -0.0111  0.1857
 2441DOPC   NC328637  17.930  29.289  10.821 -0.0890 -0.1443 -0.1407
 2441DOPC   PO428638  17.571  29.452  10.929 -0.0345 -0.2060  0.4841
 2441DOPC   GL128639  17.537  29.589  11.324  0.1458  0.0682  0.0442
 2441DOPC   GL228640  17.257  29.470  11.326 -0.1057 -0.2804 -0.0750
 2441DOPC   C1A28641  17.539  29.305  11.758  0.2436 -0.0859  0.2041
 2441DOPC   D2A28642  17.460  28.868  11.930 -0.0753  0.0560  0.1240
 2441DOPC   C3A28643  17.269  28.395  11.959  0.1075  0.0059 -0.0480
 2441DOPC   C4A28644  17.242  27.927  11.799  0.2347 -0.2263 -0.0589
 2441DOPC   C1B28645  17.074  29.127  11.587  0.1745  0.0854  0.0483
 2441DOPC   D2B28646  16.922  28.736  11.721  0.0761 -0.1998  0.1980
 2441DOPC   C3B28647  16.899  28.689  12.202 -0.1577 -0.4044 -0.0044
 2441DOPC   C4B28648  16.850  28.445  12.593  0.1673  0.0927  0.0183
 2442DOPS   CNO28649  18.073  34.713  10.233  0.0235  0.1047  0.1030
 2442DOPS   PO428650  17.744  34.519  10.265  0.1415 -0.0378  0.2451
 2442DOPS   GL128651  17.616  34.607  10.728 -0.1076  0.1495 -0.0475
 2442DOPS   GL228652  17.671  34.385  10.775 -0.2738 -0.0230  0.0202
 2442DOPS   C1A28653  17.587  34.728  11.202 -0.1370 -0.0396  0.0898
 2442DOPS   D2A28654  17.521  34.701  11.708 -0.0848  0.0981 -0.1849
 2442DOPS   C3A28655  17.499  35.011  12.031  0.0691 -0.0870 -0.0001
 2442DOPS   C4A28656  17.349  35.334  12.257 -0.0069  0.0701  0.3060
 2442DOPS   C1B28657  17.482  34.162  11.103  0.1952  0.3699 -0.2136
 2442DOPS   D2B28658  17.485  34.263  11.511  0.1725 -0.2003  0.1899
 2442DOPS   C3B28659  17.429  33.826  11.764 -0.0590  0.2240 -0.0134
 2442DOPS   C4B28660  17.174  33.476  11.876  0.0623  0.4274 -0.1355
 2443POSM   NC328661  15.407  20.515   8.278  0.0447 -0.0703  0.0256
 2443POSM   PO428662  15.132  20.801   8.301 -0.1715  0.0578  0.1388
 2443POSM   AM128663  15.096  20.893   8.607 -0.0001 -0.1048  0.0892
 2443POSM   AM228664  14.884  20.853   8.789 -0.1024  0.1357 -0.2982
 2443POSM   T1A28665  15.278  20.969   9.082 -0.0765  0.1419 -0.0553
 2443POSM   C2A28666  15.147  21.081   9.504 -0.0948  0.0101 -0.2332
 2443POSM   C3A28667  15.259  21.471   9.657  0.0468  0.2045 -0.1148
 2443POSM   C1B28668  14.776  20.909   9.134 -0.0508 -0.1653 -0.0969
 2443POSM   D2B28669  14.622  20.897   9.526  0.3000 -0.1481 -0.1314
 2443POSM   C3B28670  14.186  21.024   9.571 -0.1175  0.0787 -0.1354
 2443POSM   C4B28671  13.720  20.936   9.654 -0.3989  0.4644  0.3526
 2444POSM   NC328672  16.593   1.578  10.257 -0.1740 -0.2617 -0.1766
 2444POSM   PO428673  16.936   1.366  10.090  0.4847  0.0958 -0.4296
 2444POSM   AM128674  17.037   1.369  10.398  0.1688 -0.0067  0.4458
 2444POSM   AM228675  16.918   1.366  10.639 -0.0764 -0.0039 -0.4302
 2444POSM   T1A28676  17.223   1.020  10.743 -0.0937  0.1833 -0.0785
 2444POSM   C2A28677  17.052   0.819  11.123  0.0974  0.0488 -0.0447
 2444POSM   C3A28678  16.815   0.850  11.511  0.0733  0.1700  0.2161
 2444POSM   C1B28679  16.865   1.692  10.883  0.2415 -0.1947  0.1589
 2444POSM   D2B28680  16.812   1.999  11.286  0.1022 -0.0392  0.0909
 2444POSM   C3B28681  16.905   1.952  11.732  0.0564 -0.3733  0.2061
 2444POSM   C4B28682  16.816   1.878  12.166  0.2622  0.2070  0.1924
 2445DOPE   NH328683  12.119  28.736   9.921 -0.1539  0.0059 -0.0763
 2445DOPE   PO428684  12.267  28.781  10.184 -0.0874  0.0545 -0.0773
 2445DOPE   GL128685  12.343  28.900  10.524  0.0848 -0.3832 -0.0903
 2445DOPE   GL228686  12.115  28.725  10.695 -0.0791 -0.2158  0.1816
 2445DOPE   C1A28687  12.589  28.917  10.938  0.1981  0.0147 -0.2684
 2445DOPE   D2A28688  12.927  28.883  11.177  0.1364 -0.0077  0.1882
 2445DOPE   C3A28689  13.211  29.290  11.358  0.2575  0.1844  0.0748
 2445DOPE   C4A28690  13.084  29.507  11.743 -0.0902  0.1533  0.2204
 2445DOPE   C1B28691  11.918  28.641  11.114  0.0351 -0.1948  0.1262
 2445DOPE   D2B28692  11.798  28.892  11.530  0.1349  0.1042 -0.3913
 2445DOPE   C3B28693  11.513  28.667  11.841  0.1808 -0.0833  0.2311
 2445DOPE   C4B28694  11.132  28.442  12.012  0.2278 -0.0251  0.2187
 2446DOPC   NC328695  17.861  25.122   9.429 -0.0020 -0.0770 -0.0310
 2446DOPC   PO428696  18.028  24.775   9.462 -0.0351  0.0163 -0.3197
 2446DOPC   GL128697  18.018  24.660   9.771 -0.2767 -0.1890 -0.1010
 2446DOPC   GL228698  18.309  24.575   9.847  0.0582  0.0330 -0.1460
 2446DOPC   C1A28699  17.929  24.825  10.210 -0.1109  0.1014 -0.2340
 2446DOPC   D2A28700  18.026  24.815  10.703  0.1215  0.0889 -0.1522
 2446DOPC   C3A28701  17.837  25.068  11.020  0.1705  0.2137 -0.1396
 2446DOPC   C4A28702  17.810  24.904  11.533  0.2465  0.2273  0.2352
 2446DOPC   C1B28703  18.359  24.123   9.995  0.3670  0.1308 -0.3129
 2446DOPC   D2B28704  18.517  23.714  10.031 -0.0089  0.2360  0.0700
 2446DOPC   C3B28705  18.561  23.528  10.480 -0.1405 -0.1635 -0.0410
 2446DOPC   C4B28706  18.519  23.257  10.801  0.0691 -0.1089 -0.0539
 2447POSM   NC328707  25.270  27.382  11.484 -0.0967 -0.4050  0.3648
 2447POSM   PO428708  24.996  27.131  11.467 -0.0868 -0.5082  0.1841
 2447POSM   AM128709  24.866  27.069  11.770 -0.1235 -0.1538 -0.2431
 2447POSM   AM228710  24.835  27.213  12.007 -0.1197 -0.0348 -0.4186
 2447POSM   T1A28711  24.532  26.814  12.032  0.4297 -0.0428  0.1417
 2447POSM   C2A28712  24.451  26.904  12.436 -0.2112  0.0620 -0.0330
 2447POSM   C3A28713  24.051  27.081  12.616  0.0307 -0.3822 -0.1689
 2447POSM   C1B28714  24.977  27.098  12.334  0.1484  0.0509  0.0863
 2447POSM   D2B28715  24.953  27.047  12.826 -0.1030  0.0425 -0.1010
 2447POSM   C3B28716  24.518  27.049  12.975  0.2185 -0.2825  0.0246
 2447POSM   C4B28717  24.261  26.928  13.299 -0.2679 -0.0598  0.1332
 2448POSM   NC328718  17.273  31.299  10.783  0.1453 -0.0892  0.1003
 2448POSM   PO428719  17.532  31.033  10.817 -0.0094 -0.4542  0.1397
 2448POSM   AM128720  17.579  31.169  11.127  0.2352  0.1806  0.2363
 2448POSM   AM228721  17.459  31.364  11.292  0.0582 -0.2117 -0.2165
 2448POSM   T1A28722  17.558  30.902  11.596  0.1466  0.2873  0.0769
 2448POSM   C2A28723  17.853  30.884  11.931  0.2715  0.0212 -0.2308
 2448POSM   C3A28724  18.165  31.077  12.214 -0.0012  0.2058  0.3530
 2448POSM   C1B28725  17.536  31.394  11.623 -0.0481 -0.1299  0.0329
 2448POSM   D2B28726  17.770  31.374  12.009 -0.2228 -0.0045  0.0719
 2448POSM   C3B28727  17.723  31.595  12.391  0.0113 -0.1157  0.0483
 2448POSM   C4B28728  17.617  31.593  12.867  0.1358 -0.0397 -0.2059
 2449DOPC   NC328729  26.194   8.821  14.694  0.0586  0.2384  0.4212
 2449DOPC   PO428730  26.179   8.434  14.689 -0.1525  0.0387 -0.3354
 2449DOPC   GL128731  25.991   8.224  14.345 -0.1199 -0.0282 -0.1334
 2449DOPC   GL228732  26.253   8.326  14.138  0.2388 -0.0534  0.0224
 2449DOPC   C1A28733  26.062   7.799  14.219  0.3884  0.1643  0.0310
 2449DOPC   D2A28734  26.217   7.357  14.146 -0.2002  0.3266  0.0191
 2449DOPC   C3A28735  26.233   7.616  13.744  0.2444 -0.3272 -0.0399
 2449DOPC   C4A28736  26.277   7.720  13.282 -0.3445 -0.0503  0.0963
 2449DOPC   C1B28737  26.417   8.599  13.739 -0.1155  0.1791 -0.2554
 2449DOPC   D2B28738  26.356   8.880  13.364  0.2205  0.0599  0.0586
 2449DOPC   C3B28739  26.302   8.944  12.904 -0.2945 -0.1255  0.1158
 2449DOPC   C4B28740  26.472   8.872  12.456 -0.1427 -0.1144 -0.1416
 2450DOPC   NC328741  34.554   1.034  14.294  0.1661 -0.1413  0.1319
 2450DOPC   PO428742  34.662   1.415  14.165  0.2855  0.3847 -0.0988
 2450DOPC   GL128743  34.492   1.584  13.857 -0.0269 -0.2279 -0.0508
 2450DOPC   GL228744  34.637   1.653  13.567 -0.1812  0.0943  0.0744
 2450DOPC   C1A28745  34.136   1.410  13.572  0.1488  0.0480 -0.2487
 2450DOPC   D2A28746  34.047   1.189  13.138 -0.1641  0.1631  0.3022
 2450DOPC   C3A28747  34.022   1.158  12.704 -0.0236 -0.2244  0.0093
 2450DOPC   C4A28748  34.000   1.092  12.248 -0.1652 -0.1999  0.1382
 2450DOPC   C1B28749  34.532   1.354  13.211 -0.1470 -0.1255 -0.2367
 2450DOPC   D2B28750  34.529   1.107  12.852  0.2146 -0.0808  0.2088
 2450DOPC   C3B28751  34.563   1.260  12.465 -0.2066  0.4335  0.3020
 2450DOPC   C4B28752  34.399   1.243  12.006 -0.1391  0.1226  0.2280
 2451DOPE   NH328753  34.250   8.000  14.469 -0.0097 -0.2237 -0.0491
 2451DOPE   PO428754  34.234   7.772  14.263  0.4753 -0.0811  0.1698
 2451DOPE   GL128755  34.061   7.941  13.911 -0.0828  0.0113 -0.0974
 2451DOPE   GL228756  34.104   7.836  13.682  0.0103 -0.1282 -0.2186
 2451DOPE   C1A28757  33.598   7.987  13.735 -0.2538  0.1444  0.0683
 2451DOPE   D2A28758  33.432   8.072  13.274  0.1534 -0.1253 -0.2159
 2451DOPE   C3A28759  33.658   8.264  12.939 -0.4380  0.1900  0.0472
 2451DOPE   C4A28760  33.821   8.587  12.684 -0.0951 -0.1087 -0.1223
 2451DOPE   C1B28761  34.497   7.574  13.561  0.2749  0.1122 -0.2016
 2451DOPE   D2B28762  34.639   7.387  13.136 -0.0539 -0.0719 -0.0300
 2451DOPE   C3B28763  34.887   7.038  13.269 -0.1567 -0.1399  0.1448
 2451DOPE   C4B28764  34.802   6.585  13.275 -0.2450 -0.0010  0.2955
 2452DOPE   NH328765  23.225  10.582  13.812  0.0930 -0.0750  0.1078
 2452DOPE   PO428766  23.270  10.572  13.529 -0.1077  0.0770 -0.1508
 2452DOPE   GL128767  23.153  10.318  13.254  0.0093  0.3010  0.2662
 2452DOPE   GL228768  22.830  10.254  13.070  0.0559 -0.0392  0.2197
 2452DOPE   C1A28769  23.224  10.086  12.861 -0.0474 -0.0857  0.0180
 2452DOPE   D2A28770  23.113   9.999  12.426  0.0273  0.0733  0.3038
 2452DOPE   C3A28771  23.542   9.910  12.204  0.3318  0.0791 -0.0762
 2452DOPE   C4A28772  23.926   9.819  11.961 -0.0044  0.2407 -0.1192
 2452DOPE   C1B28773  23.077  10.503  12.721  0.0507 -0.0609 -0.1868
 2452DOPE   D2B28774  23.307  10.754  12.445  0.0093 -0.4517  0.2003
 2452DOPE   C3B28775  23.363  11.011  12.014  0.2548 -0.1935  0.2745
 2452DOPE   C4B28776  23.188  11.045  11.603  0.1777  0.0543  0.1716
 2453DOPC   NC328777  33.402  13.715  14.512  0.0634 -0.0908  0.0509
 2453DOPC   PO428778  33.676  13.957  14.536 -0.0879  0.3017 -0.0620
 2453DOPC   GL128779  33.624  13.880  14.204 -0.2054  0.0757  0.1494
 2453DOPC   GL228780  33.817  14.071  14.052  0.3231  0.1957 -0.2895
 2453DOPC   C1A28781  33.457  13.534  13.942 -0.1329  0.0344  0.0847
 2453DOPC   D2A28782  33.506  13.592  13.448  0.0825 -0.0129  0.1595
 2453DOPC   C3A28783  33.743  13.946  13.269  0.1222  0.1929  0.2310
 2453DOPC   C4A28784  33.984  14.166  13.039 -0.0596  0.0103 -0.0034
 2453DOPC   C1B28785  33.389  14.094  13.745 -0.3227  0.3600 -0.1439
 2453DOPC   D2B28786  33.178  14.056  13.334 -0.2923 -0.4005  0.0326
 2453DOPC   C3B28787  33.265  13.762  13.065 -0.0279  0.0195  0.0753
 2453DOPC   C4B28788  33.446  13.676  12.655  0.2368  0.0392 -0.3749
 2454DOPC   NC328789  34.322   8.655  14.171  0.2938 -0.3015 -0.1092
 2454DOPC   PO428790  34.041   8.388  14.050 -0.1491 -0.1164  0.1209
 2454DOPC   GL128791  34.029   8.744  13.841 -0.3274  0.1026 -0.1228
 2454DOPC   GL228792  34.266   8.782  13.669  0.0833 -0.1608  0.0402
 2454DOPC   C1A28793  33.804   8.996  13.487  0.0541  0.0578 -0.1176
 2454DOPC   D2A28794  33.746   9.347  13.193  0.3984  0.2275  0.2392
 2454DOPC   C3A28795  34.060   9.252  12.825  0.0736  0.0277  0.1622
 2454DOPC   C4A28796  34.196   9.242  12.354  0.1256 -0.1743  0.1143
 2454DOPC   C1B28797  34.525   8.628  13.295 -0.1029 -0.0953  0.0093
 2454DOPC   D2B28798  34.678   8.562  12.850  0.2384 -0.2346  0.0920
 2454DOPC   C3B28799  34.798   8.190  12.669  0.4230 -0.0765  0.0911
 2454DOPC   C4B28800  35.151   8.124  12.372  0.2990  0.0191  0.1512
 2455POSM   NC328801  23.350   4.679  14.728 -0.2930 -0.0339 -0.0366
 2455POSM   PO428802  23.716   4.805  14.672  0.0664 -0.3592  0.0410
 2455POSM   AM128803  23.919   4.761  14.426 -0.1646  0.1623  0.0629
 2455POSM   AM228804  24.212   4.734  14.315 -0.2435  0.1386  0.3098
 2455POSM   T1A28805  23.938   4.917  13.929 -0.1473  0.0473  0.0639
 2455POSM   C2A28806  23.772   5.056  13.559  0.0682  0.0961 -0.2794
 2455POSM   C3A28807  23.562   5.000  13.139 -0.3252 -0.1914  0.1934
 2455POSM   C1B28808  24.348   4.501  14.061 -0.1084 -0.3588 -0.4051
 2455POSM   D2B28809  24.189   4.360  13.664 -0.2505  0.0962  0.2096
 2455POSM   C3B28810  23.965   4.158  13.272 -0.2400 -0.2446  0.2405
 2455POSM   C4B28811  23.921   4.104  12.828 -0.2558  0.0333  0.1323
 2456DOPS   CNO28812  30.965   7.698  14.855  0.2352 -0.2305 -0.0690
 2456DOPS   PO428813  31.144   8.012  14.707  0.1511 -0.2904 -0.3373
 2456DOPS   GL128814  30.885   7.877  14.410  0.2649 -0.1073  0.2529
 2456DOPS   GL228815  30.994   8.061  14.179 -0.0900 -0.0092  0.0621
 2456DOPS   C1A28816  30.772   7.457  14.234  0.2403 -0.1245  0.2331
 2456DOPS   D2A28817  30.470   7.224  13.978  0.0022 -0.0747  0.3525
 2456DOPS   C3A28818  30.153   7.515  13.998  0.3681 -0.0151  0.1933
 2456DOPS   C4A28819  30.288   7.871  14.246  0.0348 -0.0454  0.0998
 2456DOPS   C1B28820  30.631   7.919  13.878  0.0300 -0.1518  0.1584
 2456DOPS   D2B28821  30.603   7.571  13.505 -0.0134 -0.1001  0.0515
 2456DOPS   C3B28822  30.412   7.821  13.126 -0.1899 -0.1048 -0.0374
 2456DOPS   C4B28823  30.365   8.257  12.952 -0.2175 -0.0672 -0.2136
 2457DOPC   NC328824  28.665   5.553  15.312 -0.2280 -0.1770  0.1880
 2457DOPC   PO428825  28.886   5.222  15.238 -0.1139  0.1845  0.1320
 2457DOPC   GL128826  28.812   5.278  14.839  0.2124  0.0029  0.0906
 2457DOPC   GL228827  28.676   5.578  14.833  0.1791  0.4362 -0.3144
 2457DOPC   C1A28828  28.930   5.268  14.350 -0.0112  0.2815  0.1538
 2457DOPC   D2A28829  29.080   5.342  13.895  0.1770  0.0042 -0.2629
 2457DOPC   C3A28830  28.931   5.250  13.446 -0.2662  0.2072  0.0288
 2457DOPC   C4A28831  29.170   5.342  13.115  0.3084 -0.4145 -0.0309
 2457DOPC   C1B28832  28.483   5.699  14.415 -0.0357 -0.0398  0.1969
 2457DOPC   D2B28833  28.322   5.508  14.069  0.2039  0.1453  0.3395
 2457DOPC   C3B28834  28.122   5.805  13.832  0.0387  0.0824 -0.0874
 2457DOPC   C4B28835  28.010   6.070  13.486  0.4282 -0.0966  0.2289
 2458DOPE   NH328836  25.233   5.345  14.981 -0.3874 -0.2024 -0.0186
 2458DOPE   PO428837  24.942   5.249  14.845 -0.0418  0.0327  0.0567
 2458DOPE   GL128838  24.912   5.228  14.547 -0.1463 -0.0964  0.2208
 2458DOPE   GL228839  24.602   5.193  14.486 -0.1734  0.1285  0.1478
 2458DOPE   C1A28840  24.927   5.298  14.106 -0.2434 -0.1680  0.1230
 2458DOPE   D2A28841  25.078   5.149  13.662  0.0884  0.2820  0.0593
 2458DOPE   C3A28842  24.742   5.137  13.419 -0.1167  0.1033 -0.1472
 2458DOPE   C4A28843  24.353   5.384  13.410  0.0883 -0.1665  0.1089
 2458DOPE   C1B28844  24.398   5.074  14.032 -0.1710  0.2249  0.0606
 2458DOPE   D2B28845  24.305   4.854  13.633 -0.3120  0.0035  0.1217
 2458DOPE   C3B28846  24.400   4.648  13.208 -0.1413 -0.2278  0.0381
 2458DOPE   C4B28847  24.389   4.784  12.753 -0.1415  0.1572  0.1402
 2459POSM   NC328848  31.756   6.156  14.482  0.0828 -0.3518  0.2938
 2459POSM   PO428849  31.626   5.807  14.554 -0.1319  0.0235 -0.1010
 2459POSM   AM128850  31.517   5.708  14.270  0.0831 -0.2226  0.0794
 2459POSM   AM228851  31.262   5.589  14.205  0.0763 -0.3016  0.1592
 2459POSM   T1A28852  31.482   5.797  13.779  0.1446  0.3033 -0.4287
 2459POSM   C2A28853  31.460   5.651  13.322  0.3256 -0.0083 -0.0294
 2459POSM   C3A28854  31.508   5.714  12.850 -0.1270  0.1151 -0.1338
 2459POSM   C1B28855  31.041   5.497  13.895  0.0596 -0.2841 -0.1619
 2459POSM   D2B28856  30.895   5.398  13.466 -0.0103 -0.1037  0.1946
 2459POSM   C3B28857  31.028   5.800  13.225  0.1046 -0.0734 -0.0232
 2459POSM   C4B28858  30.916   6.169  12.968 -0.0531 -0.1526  0.0146
 2460DOPS   CNO28859  30.779   9.612  14.644 -0.2997  0.1012 -0.0031
 2460DOPS   PO428860  30.603   9.321  14.682 -0.2733  0.0960  0.0402
 2460DOPS   GL128861  30.392   9.269  14.320 -0.2637  0.0942  0.0665
 2460DOPS   GL228862  30.699   9.313  14.192  0.2407 -0.4462  0.2669
 2460DOPS   C1A28863  30.262   9.358  13.876 -0.1119 -0.1990  0.1005
 2460DOPS   D2A28864  29.921   9.332  13.519 -0.2359 -0.4166  0.2641
 2460DOPS   C3A28865  29.874   8.975  13.223 -0.3215  0.1415  0.0692
 2460DOPS   C4A28866  29.667   8.603  13.304 -0.0695 -0.1050  0.0604
 2460DOPS   C1B28867  30.596   8.960  13.900 -0.1947 -0.0925 -0.1738
 2460DOPS   D2B28868  30.373   8.950  13.506  0.3777  0.0515 -0.0173
 2460DOPS   C3B28869  30.644   9.101  13.132 -0.3990 -0.0740 -0.0356
 2460DOPS   C4B28870  30.951   8.832  12.925 -0.2153 -0.0900  0.5174
 2461DOPC   NC328871   3.001   1.007  14.098  0.1743  0.1350  0.0866
 2461DOPC   PO428872   2.613   1.031  14.089 -0.0179 -0.0363  0.0855
 2461DOPC   GL128873   2.523   1.210  13.727  0.0143 -0.4370  0.1818
 2461DOPC   GL228874   2.272   1.105  13.621  0.0437 -0.0299  0.0339
 2461DOPC   C1A28875   2.642   1.624  13.499  0.0659 -0.0858  0.0398
 2461DOPC   D2A28876   2.418   1.833  13.085 -0.1751  0.1112 -0.3839
 2461DOPC   C3A28877   2.286   1.866  12.632 -0.1725  0.1966  0.3697
 2461DOPC   C4A28878   1.990   1.697  12.354 -0.1151 -0.1212 -0.2234
 2461DOPC   C1B28879   2.350   1.200  13.145  0.3582 -0.1683 -0.0067
 2461DOPC   D2B28880   2.176   1.386  12.782 -0.0622  0.1558  0.0641
 2461DOPC   C3B28881   1.835   1.100  12.773  0.2052 -0.0782  0.4061
 2461DOPC   C4B28882   1.375   0.970  12.804  0.2542  0.1229  0.2390
 2462DOPE   NH328883  30.928   2.980  14.754  0.0391 -0.0289  0.1945
 2462DOPE   PO428884  30.736   3.105  14.572 -0.0451 -0.0149  0.0383
 2462DOPE   GL128885  30.748   3.257  14.218 -0.0377 -0.5751  0.0573
 2462DOPE   GL228886  30.641   3.039  14.090  0.2395  0.1123  0.1230
 2462DOPE   C1A28887  30.986   3.275  13.789 -0.3439 -0.1333  0.0098
 2462DOPE   D2A28888  31.329   3.192  13.538 -0.0593 -0.0077 -0.0877
 2462DOPE   C3A28889  31.501   3.340  13.187  0.3320  0.0213  0.0323
 2462DOPE   C4A28890  31.350   3.600  12.876 -0.3789  0.1199 -0.3308
 2462DOPE   C1B28891  30.848   2.812  13.734  0.1059  0.1055  0.3534
 2462DOPE   D2B28892  31.042   2.804  13.343 -0.1536 -0.2407 -0.0299
 2462DOPE   C3B28893  31.103   3.112  12.988  0.1143  0.0467 -0.2690
 2462DOPE   C4B28894  30.861   3.439  12.931  0.1456  0.0596 -0.1247
 2463DOPE   NH328895  26.595   8.166  14.821  0.0882  0.3979 -0.0298
 2463DOPE   PO428896  26.896   8.060  14.838 -0.0248  0.2238  0.0413
 2463DOPE   GL128897  26.897   7.949  14.486  0.0307 -0.2370  0.4619
 2463DOPE   GL228898  27.202   7.948  14.508  0.1225  0.1698 -0.1772
 2463DOPE   C1A28899  26.636   7.963  14.095  0.0419 -0.1475 -0.0105
 2463DOPE   D2A28900  26.661   7.904  13.597  0.4257  0.2012 -0.3746
 2463DOPE   C3A28901  26.285   8.184  13.495  0.3135  0.0852 -0.2007
 2463DOPE   C4A28902  26.196   8.450  13.207 -0.4916 -0.1442  0.2123
 2463DOPE   C1B28903  27.109   8.191  14.134  0.2018 -0.1510  0.0864
 2463DOPE   D2B28904  26.829   8.375  13.851 -0.0228  0.1820 -0.0493
 2463DOPE   C3B28905  26.851   8.337  13.418  0.1241  0.3147  0.0450
 2463DOPE   C4B28906  26.597   8.120  13.078 -0.2544 -0.0234  0.2634
 2464DOPC   NC328907  33.677  10.616  14.325 -0.1579 -0.1715 -0.1385
 2464DOPC   PO428908  33.581  10.953  14.165  0.4869  0.0201  0.2666
 2464DOPC   GL128909  33.384  11.021  13.904 -0.0848 -0.0847 -0.0798
 2464DOPC   GL228910  33.561  10.901  13.678 -0.1630 -0.1007  0.1197
 2464DOPC   C1A28911  33.230  11.139  13.493  0.3940  0.0113 -0.3221
 2464DOPC   D2A28912  32.957  11.053  13.107  0.1621 -0.4415 -0.0433
 2464DOPC   C3A28913  32.758  10.917  12.695 -0.0380  0.1300  0.0423
 2464DOPC   C4A28914  32.756  11.019  12.214  0.1730 -0.3577 -0.0652
 2464DOPC   C1B28915  33.620  11.075  13.238 -0.0019  0.0130 -0.1752
 2464DOPC   D2B28916  33.889  11.429  13.039  0.0637 -0.0908 -0.1403
 2464DOPC   C3B28917  33.959  11.852  12.938 -0.0110 -0.2940  0.0241
 2464DOPC   C4B28918  33.706  12.174  12.641 -0.2493 -0.0054  0.2541
 2465POSM   NC328919  34.299   4.991  14.630  0.1075  0.0113  0.1336
 2465POSM   PO428920  34.130   5.164  14.282 -0.0070  0.1305 -0.3537
 2465POSM   AM128921  34.087   5.031  13.964  0.1823 -0.1366  0.1345
 2465POSM   AM228922  34.308   4.888  13.773 -0.2824 -0.0291  0.0115
 2465POSM   T1A28923  33.740   4.990  13.617  0.0318 -0.0252 -0.3226
 2465POSM   C2A28924  33.299   4.972  13.343 -0.0576 -0.1351 -0.0975
 2465POSM   C3A28925  33.087   4.717  13.008  0.3042  0.2237 -0.0010
 2465POSM   C1B28926  34.212   4.805  13.447 -0.1306 -0.0800  0.1386
 2465POSM   D2B28927  33.902   4.842  13.138 -0.0492  0.4404 -0.4747
 2465POSM   C3B28928  33.901   4.842  12.655 -0.1295 -0.3937 -0.1006
 2465POSM   C4B28929  34.279   4.911  12.411  0.1422  0.0034 -0.3088
 2466DOPE   NH328930  24.835  12.201  13.856  0.4331  0.0958  0.3990
 2466DOPE   PO428931  25.044  12.419  13.909  0.0469  0.0465 -0.3549
 2466DOPE   GL128932  25.019  12.479  13.510 -0.0664  0.0247 -0.1039
 2466DOPE   GL228933  24.778  12.368  13.393 -0.1567  0.1930 -0.2112
 2466DOPE   C1A28934  25.230  12.523  13.090 -0.3989  0.1583 -0.1134
 2466DOPE   D2A28935  25.156  12.374  12.664 -0.0505  0.1420  0.1366
 2466DOPE   C3A28936  25.179  12.433  12.279  0.1848  0.0953 -0.0472
 2466DOPE   C4A28937  24.964  12.498  11.844  0.0397  0.1506 -0.0922
 2466DOPE   C1B28938  24.737  12.189  12.965  0.2965  0.1073  0.1194
 2466DOPE   D2B28939  24.380  12.047  12.700 -0.0672 -0.1224  0.5721
 2466DOPE   C3B28940  24.390  11.653  12.396 -0.3089  0.0295 -0.0670
 2466DOPE   C4B28941  24.164  11.278  12.430  0.0494  0.1817  0.0272
 2467DOPS   CNO28942  27.924   4.063  15.163 -0.1009 -0.1200 -0.3738
 2467DOPS   PO428943  28.205   4.163  14.973 -0.2299 -0.2015 -0.1106
 2467DOPS   GL128944  27.895   4.319  14.687  0.1881  0.6630  0.1007
 2467DOPS   GL228945  27.907   4.039  14.474 -0.0877 -0.1313  0.0584
 2467DOPS   C1A28946  27.838   4.747  14.417 -0.0338  0.1559  0.2996
 2467DOPS   D2A28947  27.716   4.779  13.966 -0.0695 -0.0241  0.0940
 2467DOPS   C3A28948  27.897   4.708  13.516  0.0100 -0.0066 -0.0605
 2467DOPS   C4A28949  27.680   4.515  13.167 -0.0651  0.1566 -0.1737
 2467DOPS   C1B28950  28.203   3.948  14.108 -0.0853 -0.0810 -0.0344
 2467DOPS   D2B28951  28.184   3.557  13.812 -0.2141  0.0132 -0.1336
 2467DOPS   C3B28952  28.655   3.571  13.673 -0.0180  0.3549  0.3311
 2467DOPS   C4B28953  29.062   3.731  13.775  0.2451  0.0301  0.3180
 2468POSM   NC328954  28.857   9.227  15.153  0.0938 -0.4623 -0.1029
 2468POSM   PO428955  29.192   9.175  14.970 -0.1040  0.2806 -0.0268
 2468POSM   AM128956  29.246   9.065  14.655 -0.0147  0.2830 -0.2915
 2468POSM   AM228957  29.499   8.995  14.526 -0.0572  0.1440  0.1067
 2468POSM   T1A28958  29.009   8.779  14.254  0.1321 -0.0826  0.0355
 2468POSM   C2A28959  28.774   8.646  13.907  0.1531 -0.0104 -0.1831
 2468POSM   C3A28960  28.779   8.312  13.554 -0.0872 -0.0883 -0.0984
 2468POSM   C1B28961  29.562   8.883  14.176  0.1866 -0.3722 -0.1439
 2468POSM   D2B28962  29.740   8.906  13.726 -0.0035 -0.0993 -0.0621
 2468POSM   C3B28963  29.491   9.128  13.433 -0.1769  0.0840  0.0790
 2468POSM   C4B28964  29.562   9.449  13.085 -0.0691 -0.0260  0.3229
 2469POSM   NC328965  27.320   8.594  14.919  0.1958  0.3146 -0.0373
 2469POSM   PO428966  26.945   8.539  14.803 -0.1717 -0.3032  0.2250
 2469POSM   AM128967  27.109   8.556  14.529 -0.0539  0.0021 -0.1666
 2469POSM   AM228968  27.136   8.703  14.314  0.3133  0.1052  0.1071
 2469POSM   T1A28969  27.521   8.372  14.330  0.1950 -0.1163  0.3531
 2469POSM   C2A28970  27.803   8.180  14.040  0.1317  0.3233  0.0541
 2469POSM   C3A28971  27.970   8.074  13.609 -0.0832 -0.2181 -0.1764
 2469POSM   C1B28972  27.260   8.652  14.018  0.0798  0.1778 -0.0584
 2469POSM   D2B28973  27.287   8.316  13.691 -0.0753  0.1416 -0.0499
 2469POSM   C3B28974  27.376   7.918  13.820  0.2078  0.0723  0.0565
 2469POSM   C4B28975  27.048   7.671  14.060 -0.3079 -0.0266 -0.2480
 2470DOPC   NC328976  27.294   3.767  15.338  0.1726 -0.2376  0.3651
 2470DOPC   PO428977  27.478   3.824  14.987  0.0540  0.0092 -0.0854
 2470DOPC   GL128978  27.238   3.883  14.725  0.0524 -0.0545  0.1403
 2470DOPC   GL228979  27.153   3.567  14.602 -0.2302  0.2302  0.3595
 2470DOPC   C1A28980  27.410   3.808  14.274 -0.0624  0.1417  0.2530
 2470DOPC   D2A28981  27.525   3.700  13.849 -0.0449 -0.1251  0.0864
 2470DOPC   C3A28982  27.118   3.669  13.577 -0.2897 -0.3329  0.1456
 2470DOPC   C4A28983  26.849   3.884  13.191  0.1126  0.1398 -0.1080
 2470DOPC   C1B28984  26.998   3.570  14.124 -0.2731  0.1799  0.0927
 2470DOPC   D2B28985  26.653   3.475  13.848 -0.2321  0.1478 -0.0565
 2470DOPC   C3B28986  26.613   3.871  13.593 -0.0756  0.0565  0.1805
 2470DOPC   C4B28987  26.379   3.998  13.205  0.1545 -0.1434 -0.3060
 2471DOPS   CNO28988  32.124   6.944  14.403 -0.1278  0.2695  0.2424
 2471DOPS   PO428989  31.969   6.610  14.467 -0.0320  0.1693  0.2380
 2471DOPS   GL128990  31.683   6.525  14.153 -0.1448 -0.0391 -0.0836
 2471DOPS   GL228991  31.484   6.262  14.061  0.0869  0.1607 -0.2465
 2471DOPS   C1A28992  31.514   6.702  13.781  0.0251 -0.1034  0.1270
 2471DOPS   D2A28993  31.116   6.879  13.589 -0.5076  0.0683  0.0479
 2471DOPS   C3A28994  30.955   6.855  13.198  0.2018 -0.1881 -0.2370
 2471DOPS   C4A28995  30.881   7.154  12.858 -0.1009 -0.4499 -0.2773
 2471DOPS   C1B28996  31.093   6.384  13.858  0.2517 -0.1940  0.3237
 2471DOPS   D2B28997  30.966   6.436  13.423 -0.0936  0.4787  0.2807
 2471DOPS   C3B28998  31.352   6.534  13.172  0.2666 -0.1351 -0.0464
 2471DOPS   C4B28999  31.752   6.572  12.937  0.2204 -0.0264 -0.0217
 2472DOPE   NH329000  33.835   9.931  14.358  0.3594 -0.0446  0.1473
 2472DOPE   PO429001  33.888  10.214  14.168 -0.2470  0.1543  0.0495
 2472DOPE   GL129002  33.888  10.174  13.773 -0.1215  0.1446 -0.4388
 2472DOPE   GL229003  33.769   9.946  13.751  0.0990  0.1635 -0.2470
 2472DOPE   C1A29004  34.088  10.139  13.379 -0.0298  0.0035 -0.0920
 2472DOPE   D2A29005  33.944  10.033  12.985  0.1616 -0.0243 -0.0951
 2472DOPE   C3A29006  34.107  10.382  12.690 -0.0770  0.2668 -0.3302
 2472DOPE   C4A29007  34.324  10.589  12.407  0.1013  0.0270  0.0772
 2472DOPE   C1B29008  33.609  10.303  13.438  0.0576  0.0420 -0.3177
 2472DOPE   D2B29009  33.285  10.247  13.146  0.4176  0.0225  0.1036
 2472DOPE   C3B29010  33.026   9.850  13.030 -0.1383  0.0325 -0.0291
 2472DOPE   C4B29011  32.892   9.683  12.611 -0.1626  0.2221 -0.1202
 2473POSM   NC329012   0.710   4.765  14.440 -0.1579  0.1524 -0.1588
 2473POSM   PO429013   0.494   5.044  14.314 -0.0824  0.0062  0.0920
 2473POSM   AM129014   0.320   4.944  14.017  0.3449  0.0923  0.0530
 2473POSM   AM229015   0.148   5.118  13.844  0.0275  0.0043 -0.0949
 2473POSM   T1A29016   0.524   4.997  13.567 -0.3531 -0.1276  0.1719
 2473POSM   C2A29017   0.596   4.933  13.112 -0.0385  0.0871 -0.0638
 2473POSM   C3A29018   0.392   4.996  12.697 -0.0840 -0.0245 -0.0183
 2473POSM   C1B29019   0.035   4.826  13.675  0.0145 -0.2047 -0.0336
 2473POSM   D2B29020   0.192   4.433  13.443  0.1510 -0.1019 -0.1384
 2473POSM   C3B29021   0.650   4.479  13.419 -0.2672  0.0071 -0.3932
 2473POSM   C4B29022   1.053   4.444  13.230  0.3635 -0.5183  0.0751
 2474POSM   NC329023   1.493   0.446  14.139  0.0734 -0.2400  0.0710
 2474POSM   PO429024   1.272   0.806  14.134  0.0996 -0.1290 -0.2169
 2474POSM   AM129025   1.337   0.770  13.793  0.0259  0.0766 -0.0609
 2474POSM   AM229026   1.410   0.511  13.592  0.1521 -0.3066  0.0113
 2474POSM   T1A29027   1.412   1.024  13.348 -0.2058  0.0002  0.3059
 2474POSM   C2A29028   1.544   1.433  13.116  0.1431 -0.2276 -0.0344
 2474POSM   C3A29029   1.623   1.735  12.790 -0.1717  0.3056 -0.1773
 2474POSM   C1B29030   1.209   0.330  13.408  0.1293 -0.0502 -0.1268
 2474POSM   D2B29031   1.080   0.191  13.057 -0.1822  0.0578 -0.0540
 2474POSM   C3B29032   0.673   0.007  12.930  0.1423  0.0274 -0.4120
 2474POSM   C4B29033   0.367  -0.102  12.561  0.3771  0.3401  0.0611
 2475DOPC   NC329034  22.728   9.902  13.383 -0.0276 -0.0923 -0.0423
 2475DOPC   PO429035  22.816   9.653  13.573 -0.0124 -0.0294 -0.2212
 2475DOPC   GL129036  23.180   9.726  13.422 -0.0283 -0.0827  0.2048
 2475DOPC   GL229037  23.180   9.722  13.147  0.1013  0.0057  0.2739
 2475DOPC   C1A29038  23.542   9.978  13.246 -0.0684 -0.3502  0.1883
 2475DOPC   D2A29039  23.613  10.397  12.976 -0.0725  0.1395  0.1353
 2475DOPC   C3A29040  23.576  10.300  12.548  0.0078  0.1123 -0.2049
 2475DOPC   C4A29041  23.359  10.357  12.147 -0.1045  0.0224  0.0130
 2475DOPC   C1B29042  22.828   9.805  12.814 -0.0238 -0.0329 -0.2379
 2475DOPC   D2B29043  22.539   9.785  12.389  0.0026 -0.1178 -0.0693
 2475DOPC   C3B29044  22.522   9.990  11.989  0.2928 -0.1582  0.1669
 2475DOPC   C4B29045  22.204  10.148  11.713 -0.1181  0.0420 -0.4059
 2476DOPC   NC329046  27.526   1.435  15.031 -0.1346  0.1686 -0.0019
 2476DOPC   PO429047  27.227   1.691  15.023  0.1695  0.1917 -0.0245
 2476DOPC   GL129048  27.008   1.616  14.731 -0.0335 -0.1024  0.2413
 2476DOPC   GL229049  26.815   1.843  14.845 -0.0733  0.1136  0.0094
 2476DOPC   C1A29050  27.014   1.581  14.260 -0.0302 -0.0997 -0.0971
 2476DOPC   D2A29051  27.047   1.425  13.843  0.3133  0.1669  0.0526
 2476DOPC   C3A29052  26.654   1.537  13.647 -0.1642 -0.2466  0.1574
 2476DOPC   C4A29053  26.269   1.374  13.490 -0.1115  0.0461 -0.2523
 2476DOPC   C1B29054  26.557   1.668  14.534  0.3495 -0.2712  0.2396
 2476DOPC   D2B29055  26.440   1.553  14.119 -0.0304  0.1027  0.1180
 2476DOPC   C3B29056  26.324   1.868  13.766 -0.1764  0.0458  0.0645
 2476DOPC   C4B29057  26.209   2.243  13.594  0.0307  0.2787  0.3896
 2477POSM   NC329058  28.825   1.373  15.399  0.0597  0.0721 -0.0178
 2477POSM   PO429059  29.029   1.709  15.247 -0.1043  0.1352  0.2500
 2477POSM   AM129060  28.939   1.773  14.910  0.0380  0.1741  0.0250
 2477POSM   AM229061  28.743   1.940  14.736 -0.1019  0.1704 -0.5038
 2477POSM   T1A29062  29.233   1.863  14.534  0.2115 -0.3313 -0.0920
 2477POSM   C2A29063  29.497   2.196  14.338 -0.2805 -0.1031  0.1783
 2477POSM   C3A29064  29.497   2.580  14.106 -0.1750  0.2493  0.0502
 2477POSM   C1B29065  28.741   1.831  14.454  0.0952  0.0240  0.0105
 2477POSM   D2B29066  28.851   1.696  14.015 -0.0979 -0.1463  0.0714
 2477POSM   C3B29067  28.828   1.719  13.549  0.1189  0.1969  0.1086
 2477POSM   C4B29068  28.939   1.459  13.120  0.2875 -0.0115 -0.0533
 2478POSM   NC329069   2.524   5.597  13.708 -0.1554  0.2065 -0.0865
 2478POSM   PO429070   2.704   5.903  13.880  0.1071  0.0454  0.0601
 2478POSM   AM129071   2.910   5.943  13.624  0.3990  0.0027  0.1084
 2478POSM   AM229072   2.937   6.170  13.446  0.0657  0.1567  0.3705
 2478POSM   T1A29073   2.999   5.737  13.171 -0.1898 -0.2711 -0.1138
 2478POSM   C2A29074   3.187   5.697  12.705  0.0708 -0.0617  0.1833
 2478POSM   C3A29075   2.993   5.485  12.297 -0.2469  0.1683 -0.5238
 2478POSM   C1B29076   2.944   6.443  13.198 -0.2511  0.2660  0.0531
 2478POSM   D2B29077   3.179   6.642  12.810  0.0061  0.0615  0.0276
 2478POSM   C3B29078   2.966   6.716  12.448  0.1092 -0.1676  0.3226
 2478POSM   C4B29079   3.162   6.558  12.039 -0.2426 -0.1617 -0.3624
 2479DOPE   NH329080  33.326  10.037  14.120  0.0224 -0.0444 -0.1691
 2479DOPE   PO429081  33.287   9.703  14.081  0.2478  0.2878  0.0606
 2479DOPE   GL129082  33.465   9.633  13.737 -0.2417 -0.1383 -0.0698
 2479DOPE   GL229083  33.442   9.333  13.730 -0.0198 -0.0006  0.2745
 2479DOPE   C1A29084  33.493   9.811  13.315  0.2586  0.3233  0.1181
 2479DOPE   D2A29085  33.565   9.718  12.869 -0.0768 -0.1500  0.0744
 2479DOPE   C3A29086  33.525   9.387  12.561 -0.1288 -0.1013 -0.0412
 2479DOPE   C4A29087  33.713   9.000  12.553  0.1642  0.1050 -0.1067
 2479DOPE   C1B29088  33.246   9.394  13.285  0.2827  0.0176 -0.1259
 2479DOPE   D2B29089  33.113   9.395  12.869  0.1813 -0.0683  0.0612
 2479DOPE   C3B29090  32.760   9.153  12.684 -0.1225 -0.0249  0.2198
 2479DOPE   C4B29091  32.429   8.855  12.864 -0.0958 -0.2459  0.3580
 2480DOPC   NC329092  32.642  10.958  14.591 -0.1460 -0.1635  0.1367
 2480DOPC   PO429093  32.608  10.719  14.298 -0.0263  0.0764  0.0904
 2480DOPC   GL129094  32.592  10.867  13.893 -0.1876  0.4471 -0.0933
 2480DOPC   GL229095  32.701  11.060  13.689 -0.0628 -0.2159 -0.0379
 2480DOPC   C1A29096  32.271  10.816  13.578 -0.2490 -0.0786 -0.1171
 2480DOPC   D2A29097  32.322  10.369  13.469 -0.0354  0.2885  0.0385
 2480DOPC   C3A29098  32.651  10.026  13.453  0.2589 -0.0606  0.1684
 2480DOPC   C4A29099  32.834   9.637  13.537 -0.0190 -0.2155  0.1413
 2480DOPC   C1B29100  32.458  11.280  13.373 -0.3923 -0.3080 -0.0068
 2480DOPC   D2B29101  32.281  11.176  12.946  0.1958 -0.2068  0.3547
 2480DOPC   C3B29102  32.476  11.313  12.524  0.0715  0.1911  0.3173
 2480DOPC   C4B29103  32.793  11.496  12.192  0.1141 -0.2026  0.1609
 2481DOPE   NH329104  30.695   6.648  14.975  0.1243 -0.4257  0.1252
 2481DOPE   PO429105  30.870   6.460  14.814 -0.2640 -0.1185  0.4970
 2481DOPE   GL129106  30.555   6.201  14.636 -0.2625 -0.3787 -0.0725
 2481DOPE   GL229107  30.743   6.083  14.493  0.0685 -0.1173 -0.0721
 2481DOPE   C1A29108  30.306   6.110  14.231  0.0484  0.0100 -0.0006
 2481DOPE   D2A29109  30.122   6.314  13.836  0.1545 -0.0014 -0.1054
 2481DOPE   C3A29110  30.376   6.407  13.456 -0.2518 -0.2288 -0.1595
 2481DOPE   C4A29111  30.585   6.577  13.071 -0.1460  0.1954 -0.1509
 2481DOPE   C1B29112  30.953   5.929  14.133 -0.0722  0.1239 -0.0683
 2481DOPE   D2B29113  31.021   5.929  13.694  0.1802  0.1708 -0.1851
 2481DOPE   C3B29114  31.364   6.126  13.437 -0.0276 -0.0207  0.2740
 2481DOPE   C4B29115  31.657   6.080  13.108 -0.0475  0.4225 -0.1476
 2482DOPE   NH329116  33.174   2.103  14.790 -0.0306  0.1333 -0.1828
 2482DOPE   PO429117  33.129   2.251  14.541  0.2329  0.1811  0.0951
 2482DOPE   GL129118  32.892   2.173  14.191 -0.1101 -0.1602 -0.1313
 2482DOPE   GL229119  32.746   2.335  14.115 -0.2458 -0.0850  0.4208
 2482DOPE   C1A29120  32.973   1.953  13.797  0.1116  0.2642 -0.1282
 2482DOPE   D2A29121  32.926   1.838  13.381 -0.0912 -0.2448  0.0068
 2482DOPE   C3A29122  32.586   1.915  13.101  0.2726  0.0281 -0.1245
 2482DOPE   C4A29123  32.341   2.177  12.805 -0.2716 -0.2026 -0.3303
 2482DOPE   C1B29124  33.032   2.421  13.747  0.3375 -0.1497  0.1801
 2482DOPE   D2B29125  33.484   2.433  13.716  0.2797  0.1276 -0.0265
 2482DOPE   C3B29126  33.672   2.604  13.288  0.2807  0.0096 -0.0773
 2482DOPE   C4B29127  33.719   2.558  12.803 -0.0186 -0.0977  0.0829
 2483DOPE   NH329128  32.439   3.316  14.214 -0.1512  0.0076 -0.0726
 2483DOPE   PO429129  32.766   3.280  14.234  0.1153 -0.1302  0.2904
 2483DOPE   GL129130  32.707   3.277  13.872  0.0354 -0.1828  0.2507
 2483DOPE   GL229131  33.018   3.345  13.803  0.2241  0.3016 -0.2117
 2483DOPE   C1A29132  32.631   3.445  13.433 -0.0850 -0.0966 -0.0200
 2483DOPE   D2A29133  32.858   3.846  13.231 -0.0924  0.0362  0.0095
 2483DOPE   C3A29134  32.609   3.974  12.846  0.0573 -0.3080 -0.1806
 2483DOPE   C4A29135  32.556   4.038  12.379 -0.1853  0.3326 -0.1949
 2483DOPE   C1B29136  33.195   3.535  13.392 -0.2319  0.0536 -0.1793
 2483DOPE   D2B29137  33.451   3.546  12.991 -0.2984  0.5281  0.1810
 2483DOPE   C3B29138  33.546   3.817  12.669  0.3145  0.1484  0.1093
 2483DOPE   C4B29139  33.341   4.175  12.451  0.0023  0.0100 -0.0481
 2484DOPS   CNO29140  23.829   8.515  14.403  0.1495  0.0593  0.1029
 2484DOPS   PO429141  23.825   8.190  14.160 -0.0936 -0.2981 -0.2148
 2484DOPS   GL129142  24.011   8.251  13.829 -0.0304 -0.0383  0.0639
 2484DOPS   GL229143  24.097   7.921  13.823  0.0401 -0.0715  0.2292
 2484DOPS   C1A29144  24.250   8.522  13.583 -0.0248  0.0040  0.2224
 2484DOPS   D2A29145  24.508   8.915  13.501  0.1059  0.4512  0.1828
 2484DOPS   C3A29146  24.651   9.188  13.079 -0.2759  0.0289 -0.0592
 2484DOPS   C4A29147  24.974   9.256  12.741  0.1309 -0.0817  0.1631
 2484DOPS   C1B29148  24.235   7.938  13.365 -0.2388 -0.0150  0.0061
 2484DOPS   D2B29149  24.564   7.749  13.096  0.0130  0.0024 -0.0872
 2484DOPS   C3B29150  24.976   7.489  13.218  0.1935 -0.1088  0.0558
 2484DOPS   C4B29151  25.399   7.362  13.093 -0.1106  0.0546  0.4707
 2485DOPE   NH329152  29.797   5.113  14.858  0.3648 -0.2042 -0.2714
 2485DOPE   PO429153  29.999   5.096  14.556  0.1993  0.1919  0.1222
 2485DOPE   GL129154  29.792   4.974  14.287 -0.2519 -0.0338 -0.1459
 2485DOPE   GL229155  29.778   4.721  14.232 -0.0596  0.1407 -0.1212
 2485DOPE   C1A29156  29.500   5.025  13.949 -0.0751  0.1638 -0.0782
 2485DOPE   D2A29157  29.458   5.281  13.552 -0.0168 -0.2086  0.2838
 2485DOPE   C3A29158  29.547   5.658  13.324  0.0887  0.0265 -0.0632
 2485DOPE   C4A29159  29.824   5.888  12.991 -0.0462 -0.0965  0.2464
 2485DOPE   C1B29160  29.939   4.379  13.917 -0.0094 -0.0173  0.0138
 2485DOPE   D2B29161  30.226   4.207  13.558 -0.0168 -0.4731  0.2980
 2485DOPE   C3B29162  30.285   3.760  13.387  0.2254 -0.0875 -0.2280
 2485DOPE   C4B29163  30.156   3.412  13.113 -0.0509  0.2575 -0.0039
 2486DOPE   NH329164  28.856   8.267  15.261 -0.3446  0.0277  0.0187
 2486DOPE   PO429165  28.667   8.054  15.464  0.0019  0.1475  0.2016
 2486DOPE   GL129166  28.500   7.769  15.171 -0.0726  0.5391 -0.3055
 2486DOPE   GL229167  28.747   7.757  14.993  0.1359 -0.1251  0.2248
 2486DOPE   C1A29168  28.412   7.376  14.951  0.0201 -0.0446  0.1931
 2486DOPE   D2A29169  28.304   7.115  14.520 -0.0512 -0.0877 -0.2598
 2486DOPE   C3A29170  28.684   7.193  14.275  0.0542  0.0465 -0.1530
 2486DOPE   C4A29171  28.791   7.157  13.815 -0.2652  0.1473 -0.1465
 2486DOPE   C1B29172  28.870   7.589  14.562 -0.3887 -0.1578 -0.1408
 2486DOPE   D2B29173  28.825   7.702  14.145  0.2002  0.2398  0.0527
 2486DOPE   C3B29174  29.002   7.727  13.763 -0.1649 -0.3149  0.2182
 2486DOPE   C4B29175  29.078   7.937  13.396 -0.3124 -0.0606 -0.2051
 2487POSM   NC329176  30.117   1.012  15.337  0.0179  0.0662 -0.4377
 2487POSM   PO429177  30.009   0.647  15.401 -0.3238 -0.0107  0.3843
 2487POSM   AM129178  30.110   0.495  15.097 -0.1623 -0.2706  0.2617
 2487POSM   AM229179  30.233   0.248  15.031 -0.3362  0.1304 -0.2044
 2487POSM   T1A29180  30.307   0.521  14.623  0.0849 -0.0664 -0.0143
 2487POSM   C2A29181  30.657   0.539  14.338  0.0861 -0.0190  0.0920
 2487POSM   C3A29182  30.866   0.800  14.029  0.1457 -0.3216 -0.4781
 2487POSM   C1B29183  30.219   0.013  14.865  0.1480  0.0377  0.0192
 2487POSM   D2B29184  29.888  -0.263  14.656 -0.0845 -0.0180  0.2773
 2487POSM   C3B29185  29.849  -0.356  14.208  0.1510  0.2638  0.2799
 2487POSM   C4B29186  29.594  -0.557  13.911 -0.0070 -0.0576 -0.1771
 2488POSM   NC329187  24.956   4.536  15.174 -0.0662  0.0636  0.0456
 2488POSM   PO429188  25.238   4.806  15.019 -0.0308 -0.2041 -0.1619
 2488POSM   AM129189  25.155   4.753  14.718  0.1621 -0.4112 -0.0907
 2488POSM   AM229190  25.134   4.852  14.481 -0.2528 -0.1120 -0.1443
 2488POSM   T1A29191  25.121   4.331  14.488 -0.2114 -0.2693  0.0157
 2488POSM   C2A29192  25.028   4.209  14.078 -0.1046  0.1018 -0.1453
 2488POSM   C3A29193  24.866   4.104  13.665  0.4448  0.0360  0.0289
 2488POSM   C1B29194  25.327   4.787  14.161 -0.0061 -0.2581  0.3152
 2488POSM   D2B29195  25.322   4.725  13.691 -0.0758 -0.0387 -0.0838
 2488POSM   C3B29196  25.536   5.050  13.428  0.0247  0.3044 -0.3590
 2488POSM   C4B29197  25.804   5.408  13.433 -0.1167 -0.2228  0.5052
 2489DOPC   NC329198  29.791   6.895  15.154 -0.2387 -0.0672  0.4414
 2489DOPC   PO429199  30.133   6.737  15.139 -0.2974  0.2594  0.1291
 2489DOPC   GL129200  30.181   6.765  14.771 -0.1914 -0.0859 -0.0309
 2489DOPC   GL229201  30.334   6.560  14.631  0.2859 -0.0039  0.0813
 2489DOPC   C1A29202  29.875   6.881  14.492 -0.1379 -0.4080  0.1310
 2489DOPC   D2A29203  29.789   7.148  14.138  0.0934 -0.2338 -0.2232
 2489DOPC   C3A29204  29.663   7.566  14.013  0.3793 -0.0725 -0.0816
 2489DOPC   C4A29205  29.506   7.647  13.566  0.4414  0.1309 -0.1522
 2489DOPC   C1B29206  30.369   6.654  14.162  0.2569  0.1391  0.1413
 2489DOPC   D2B29207  30.126   6.820  13.764 -0.1285 -0.3199 -0.2533
 2489DOPC   C3B29208  29.848   6.541  13.487 -0.2363  0.1108  0.2867
 2489DOPC   C4B29209  29.756   6.423  13.031 -0.4686 -0.0722  0.1379
 2490DOPC   NC329210  27.777   9.548  14.583  0.0107  0.0022 -0.1425
 2490DOPC   PO429211  27.517   9.806  14.563 -0.0454  0.0857  0.0776
 2490DOPC   GL129212  27.681   9.853  14.173 -0.0886  0.1840  0.0469
 2490DOPC   GL229213  27.456  10.108  14.113  0.3868  0.1539 -0.2191
 2490DOPC   C1A29214  27.840   9.536  13.867 -0.1875 -0.3901  0.2821
 2490DOPC   D2A29215  27.759   9.289  13.514  0.2173  0.0090  0.1260
 2490DOPC   C3A29216  27.554   9.522  13.215 -0.1324  0.3227  0.2952
 2490DOPC   C4A29217  27.637   9.870  13.073 -0.2398  0.2355  0.2768
 2490DOPC   C1B29218  27.826  10.039  13.835  0.0175 -0.3393  0.1822
 2490DOPC   D2B29219  27.954   9.778  13.462  0.1057 -0.3126  0.1567
 2490DOPC   C3B29220  28.344   9.910  13.290 -0.2550 -0.1602 -0.1198
 2490DOPC   C4B29221  28.668   9.979  12.955  0.3213  0.1187  0.1713
 2491POSM   NC329222  24.792   9.859  14.488  0.0612 -0.2387  0.0130
 2491POSM   PO429223  24.993   9.508  14.505 -0.2926  0.2521 -0.1867
 2491POSM   AM129224  25.235   9.423  14.347  0.5370 -0.0051  0.0278
 2491POSM   AM229225  25.218   9.198  14.189 -0.3005 -0.3339  0.0857
 2491POSM   T1A29226  25.666   9.387  14.146 -0.0106 -0.1148  0.0999
 2491POSM   C2A29227  26.079   9.557  13.959 -0.0377  0.1376  0.0309
 2491POSM   C3A29228  26.439   9.844  13.889  0.0008 -0.3272 -0.1596
 2491POSM   C1B29229  25.261   8.954  13.974 -0.0097  0.3531  0.0294
 2491POSM   D2B29230  25.273   8.617  13.705 -0.0839  0.2584 -0.1585
 2491POSM   C3B29231  25.446   8.244  13.593 -0.1289 -0.2426 -0.0973
 2491POSM   C4B29232  25.821   7.911  13.625 -0.1071 -0.2692  0.4184
 2492DOPC   NC329233  31.962   2.751  14.762  0.4017 -0.2176 -0.1763
 2492DOPC   PO429234  31.709   2.494  14.590 -0.2925  0.0372  0.1745
 2492DOPC   GL129235  31.901   2.530  14.310 -0.0034  0.2834  0.1157
 2492DOPC   GL229236  31.745   2.618  14.047 -0.0930 -0.5156 -0.0600
 2492DOPC   C1A29237  32.198   2.373  13.989  0.2713  0.0362  0.3072
 2492DOPC   D2A29238  32.403   2.084  13.709 -0.1892 -0.1634 -0.0176
 2492DOPC   C3A29239  32.133   1.738  13.669 -0.0867  0.0002  0.0174
 2492DOPC   C4A29240  31.755   1.728  13.427  0.1730 -0.0130  0.2598
 2492DOPC   C1B29241  31.986   2.571  13.589 -0.1526 -0.3942 -0.0673
 2492DOPC   D2B29242  32.258   2.589  13.248  0.0860  0.1197 -0.0158
 2492DOPC   C3B29243  31.928   2.413  12.995  0.0203 -0.0187 -0.0044
 2492DOPC   C4B29244  31.856   2.044  12.792  0.0435  0.0989 -0.0399
 2493POSM   NC329245  24.157  10.316  13.923  0.0665 -0.1961  0.0144
 2493POSM   PO429246  24.462  10.124  14.123  0.2361  0.1921 -0.0381
 2493POSM   AM129247  24.601  10.176  13.810 -0.0879 -0.1581 -0.0774
 2493POSM   AM229248  24.546  10.384  13.600 -0.2420  0.3645 -0.1611
 2493POSM   T1A29249  25.006  10.039  13.571  0.0200  0.1338 -0.2014
 2493POSM   C2A29250  25.386   9.859  13.505 -0.0069 -0.2147  0.0053
 2493POSM   C3A29251  25.714   9.540  13.653  0.2780 -0.1276 -0.2752
 2493POSM   C1B29252  24.528  10.167  13.378  0.5581 -0.1390 -0.1106
 2493POSM   D2B29253  24.435   9.796  13.137 -0.6237  0.2985  0.1074
 2493POSM   C3B29254  24.849   9.716  12.914 -0.3229  0.2301  0.0823
 2493POSM   C4B29255  25.100   9.818  12.506 -0.2440  0.2072  0.1239
 2494DOPC   NC329256  26.922   3.629  15.006 -0.0337  0.5871 -0.3328
 2494DOPC   PO429257  26.555   3.525  15.192 -0.0928  0.1450 -0.1048
 2494DOPC   GL129258  26.500   3.247  15.038  0.4569  0.2841 -0.1356
 2494DOPC   GL229259  26.498   3.294  14.782 -0.1720 -0.2361 -0.0479
 2494DOPC   C1A29260  26.612   2.849  14.882 -0.0917 -0.0324  0.0279
 2494DOPC   D2A29261  26.426   2.492  14.668 -0.2081  0.0029  0.0787
 2494DOPC   C3A29262  26.481   2.554  14.212 -0.3990  0.1356 -0.0481
 2494DOPC   C4A29263  26.626   2.505  13.784 -0.0365  0.0753  0.2862
 2494DOPC   C1B29264  26.650   2.998  14.432  0.2679  0.2809  0.0254
 2494DOPC   D2B29265  26.865   2.823  14.070 -0.2773  0.3566 -0.2459
 2494DOPC   C3B29266  27.179   2.506  14.145 -0.0504  0.2048 -0.1796
 2494DOPC   C4B29267  27.546   2.258  14.057  0.1396 -0.2136 -0.1044
 2495POSM   NC329268  25.389  11.495  14.011 -0.1272  0.2129 -0.1171
 2495POSM   PO429269  24.996  11.661  14.075  0.1209 -0.1242 -0.0444
 2495POSM   AM129270  24.924  11.478  13.797 -0.1241  0.1972  0.0609
 2495POSM   AM229271  25.034  11.279  13.620 -0.0297  0.0204  0.2150
 2495POSM   T1A29272  24.596  11.398  13.431 -0.3092  0.0640  0.2031
 2495POSM   C2A29273  24.162  11.594  13.361 -0.0780  0.1836  0.0167
 2495POSM   C3A29274  24.010  11.807  12.962 -0.0446  0.0463  0.1377
 2495POSM   C1B29275  25.115  11.355  13.254 -0.0140  0.0810 -0.2461
 2495POSM   D2B29276  25.219  11.388  12.828 -0.1412  0.1858  0.0001
 2495POSM   C3B29277  25.594  11.293  12.660 -0.0452  0.0348  0.2351
 2495POSM   C4B29278  25.981  11.000  12.593  0.2337 -0.1341  0.0537
 2496DOPE   NH329279  28.189   8.616  14.940 -0.2344  0.1716  0.1065
 2496DOPE   PO429280  27.860   8.611  14.918 -0.1493 -0.0761  0.3097
 2496DOPE   GL129281  27.928   8.452  14.570  0.1739 -0.2820  0.3237
 2496DOPE   GL229282  28.117   8.658  14.410 -0.1554 -0.0460 -0.0765
 2496DOPE   C1A29283  28.220   8.180  14.343 -0.1042 -0.0487  0.0603
 2496DOPE   D2A29284  28.544   8.152  13.997 -0.1110 -0.2056 -0.0282
 2496DOPE   C3A29285  28.985   8.208  14.046 -0.1014  0.0887 -0.1497
 2496DOPE   C4A29286  29.319   8.524  13.842  0.0033  0.1965  0.1557
 2496DOPE   C1B29287  28.149   8.511  13.964  0.1804  0.0071  0.2249
 2496DOPE   D2B29288  28.242   8.521  13.552 -0.2409 -0.1562  0.3180
 2496DOPE   C3B29289  28.002   8.875  13.353  0.1571  0.2437 -0.1640
 2496DOPE   C4B29290  27.845   9.196  13.002  0.1581 -0.1590 -0.3771
 2497DOPC   NC329291  31.037   0.169  15.120 -0.0214  0.0238 -0.1124
 2497DOPC   PO429292  31.073   0.469  15.383 -0.3632 -0.1170 -0.4044
 2497DOPC   GL129293  30.907   0.605  15.107 -0.0676  0.4113 -0.0321
 2497DOPC   GL229294  30.661   0.508  15.039  0.1307  0.1362  0.0147
 2497DOPC   C1A29295  30.895   0.791  14.732  0.1091  0.2245 -0.0213
 2497DOPC   D2A29296  30.608   1.000  14.480 -0.2328  0.1589 -0.2263
 2497DOPC   C3A29297  30.354   0.912  14.079 -0.2756 -0.4376 -0.1295
 2497DOPC   C4A29298  30.400   0.873  13.627  0.3186  0.1911 -0.0550
 2497DOPC   C1B29299  30.700   0.091  14.700  0.1214 -0.2029  0.1276
 2497DOPC   D2B29300  30.765  -0.358  14.668 -0.0979 -0.0097 -0.0986
 2497DOPC   C3B29301  30.893  -0.655  14.333  0.4459  0.0531  0.1843
 2497DOPC   C4B29302  31.324  -0.732  14.111  0.1026 -0.0095  0.1093
 2498DOPC   NC329303  30.370   3.536  14.678 -0.2434  0.0601 -0.1415
 2498DOPC   PO429304  30.219   3.232  14.475  0.0460  0.1688 -0.1615
 2498DOPC   GL129305  30.207   3.244  14.073  0.1314 -0.0631 -0.1863
 2498DOPC   GL229306  30.108   3.026  14.018  0.1405 -0.0912  0.2061
 2498DOPC   C1A29307  30.496   3.392  13.701 -0.0439  0.1495 -0.0110
 2498DOPC   D2A29308  30.650   3.163  13.301 -0.2174  0.1059 -0.2599
 2498DOPC   C3A29309  30.378   2.941  12.938 -0.0649  0.2022 -0.2756
 2498DOPC   C4A29310  29.919   2.920  12.820 -0.1141  0.0558 -0.2828
 2498DOPC   C1B29311  29.853   2.708  13.770 -0.0929 -0.0785 -0.0704
 2498DOPC   D2B29312  30.008   2.441  13.446 -0.0370  0.0428 -0.3655
 2498DOPC   C3B29313  29.781   2.104  13.184 -0.2802 -0.0622  0.2962
 2498DOPC   C4B29314  29.894   1.916  12.733  0.1838 -0.1727  0.1245
 2499DOPC   NC329315  31.278   2.465  14.851  0.1081 -0.0682  0.0432
 2499DOPC   PO429316  30.919   2.465  14.754  0.0946  0.1846 -0.3112
 2499DOPC   GL129317  30.876   2.246  14.347 -0.4675 -0.1621  0.1489
 2499DOPC   GL229318  30.754   2.557  14.278  0.1056 -0.0335 -0.0128
 2499DOPC   C1A29319  30.830   2.265  13.874 -0.1739 -0.1710 -0.0654
 2499DOPC   D2A29320  30.493   2.321  13.528  0.0028  0.1843 -0.0761
 2499DOPC   C3A29321  30.636   2.533  13.127  0.2831  0.0592  0.1186
 2499DOPC   C4A29322  30.654   2.455  12.663 -0.0629 -0.0217  0.1767
 2499DOPC   C1B29323  30.426   2.625  13.962  0.0179 -0.4846  0.2250
 2499DOPC   D2B29324  30.344   2.904  13.582 -0.1035  0.2017  0.0068
 2499DOPC   C3B29325  29.968   2.929  13.361  0.2231 -0.2374 -0.1726
 2499DOPC   C4B29326  29.660   3.199  13.181 -0.1083  0.0039 -0.3338
 2500DOPC   NC329327  34.616   6.469  14.203  0.4339  0.2171 -0.1177
 2500DOPC   PO429328  34.452   6.785  14.375 -0.0380 -0.3785  0.3877
 2500DOPC   GL129329  34.390   6.831  13.964 -0.1067  0.0892 -0.0133
 2500DOPC   GL229330  34.352   6.574  13.791 -0.1140 -0.0552 -0.1372
 2500DOPC   C1A29331  34.416   6.979  13.495  0.2024 -0.1787 -0.0438
 2500DOPC   D2A29332  34.370   6.905  13.059 -0.2607  0.1396  0.0743
 2500DOPC   C3A29333  34.312   6.505  12.841  0.1729  0.0630  0.0300
 2500DOPC   C4A29334  34.574   6.498  12.422 -0.0615  0.1746 -0.3694
 2500DOPC   C1B29335  34.066   6.597  13.364 -0.3014  0.0562  0.0732
 2500DOPC   D2B29336  33.731   6.475  13.050  0.2065 -0.2653 -0.4448
 2500DOPC   C3B29337  33.549   6.754  12.764  0.2725 -0.1352 -0.0961
 2500DOPC   C4B29338  33.267   6.986  12.476 -0.0628  0.1872  0.3173
 2501DOPS   CNO29339  27.015   5.658  15.330  0.0793 -0.2695  0.0532
 2501DOPS   PO429340  26.993   6.011  15.192  0.2098 -0.2367 -0.1093
 2501DOPS   GL129341  26.984   6.014  14.828 -0.3282 -0.0683 -0.1341
 2501DOPS   GL229342  26.853   6.183  14.672 -0.3251 -0.0627 -0.1679
 2501DOPS   C1A29343  27.208   5.963  14.383 -0.1067  0.0433  0.1634
 2501DOPS   D2A29344  27.263   6.142  13.931 -0.0348 -0.0135  0.0191
 2501DOPS   C3A29345  27.401   5.940  13.531 -0.1211  0.0534  0.2233
 2501DOPS   C4A29346  27.505   6.115  13.066  0.0675  0.2615 -0.0986
 2501DOPS   C1B29347  26.871   6.302  14.207  0.0954 -0.2149  0.0733
 2501DOPS   D2B29348  26.870   6.476  13.776 -0.3530  0.0435  0.3530
 2501DOPS   C3B29349  26.994   6.948  13.901 -0.0007  0.0724 -0.2968
 2501DOPS   C4B29350  27.278   7.202  14.118  0.0377 -0.0978 -0.2873
 2502DOPC   NC329351  28.158   7.031  15.993 -0.0345  0.0890 -0.1993
 2502DOPC   PO429352  27.947   6.799  15.741 -0.0568 -0.0155  0.0711
 2502DOPC   GL129353  27.851   6.997  15.420  0.0880  0.1276  0.3997
 2502DOPC   GL229354  27.985   6.743  15.270  0.2146 -0.0737 -0.2567
 2502DOPC   C1A29355  27.784   7.252  15.045  0.2357  0.0879  0.0372
 2502DOPC   D2A29356  27.680   7.473  14.654  0.4617  0.1683  0.0650
 2502DOPC   C3A29357  27.920   7.257  14.281  0.0962 -0.1356 -0.1050
 2502DOPC   C4A29358  28.157   7.113  13.907 -0.0865 -0.3905 -0.3212
 2502DOPC   C1B29359  28.171   6.867  14.895  0.3506 -0.2141  0.0762
 2502DOPC   D2B29360  28.570   6.726  14.655  0.1254  0.2163  0.2911
 2502DOPC   C3B29361  28.418   6.716  14.131  0.0825 -0.1956 -0.0724
 2502DOPC   C4B29362  28.610   6.577  13.837  0.1416  0.0149  0.3653
 2503DOPS   CNO29363  30.127   4.749  15.051 -0.3745 -0.2406  0.1716
 2503DOPS   PO429364  30.134   4.509  14.774  0.1633  0.1045  0.0281
 2503DOPS   GL129365  30.209   4.655  14.389  0.1860 -0.7067  0.0634
 2503DOPS   GL229366  30.443   4.529  14.313  0.0138  0.0557 -0.3029
 2503DOPS   C1A29367  30.156   4.813  13.928  0.1129 -0.1724 -0.2779
 2503DOPS   D2A29368  29.920   4.921  13.581 -0.4008 -0.0327 -0.0349
 2503DOPS   C3A29369  30.124   4.668  13.328 -0.0092 -0.4782 -0.1530
 2503DOPS   C4A29370  30.254   4.480  12.943 -0.1521  0.1499  0.0581
 2503DOPS   C1B29371  30.561   4.495  13.842  0.2758 -0.0140 -0.0127
 2503DOPS   D2B29372  30.706   4.789  13.548  0.1127  0.0159 -0.4408
 2503DOPS   C3B29373  30.915   5.018  13.137  0.0945  0.0408 -0.1070
 2503DOPS   C4B29374  31.022   5.035  12.625  0.1241  0.0537  0.0849
 2504POSM   NC329375   2.415   1.514  14.009  0.0775 -0.1177 -0.0721
 2504POSM   PO429376   2.062   1.303  14.067 -0.0508 -0.2632  0.2991
 2504POSM   AM129377   1.959   1.383  13.740  0.1384 -0.1852  0.2855
 2504POSM   AM229378   1.826   1.288  13.497 -0.1608 -0.2687 -0.0940
 2504POSM   T1A29379   1.978   1.712  13.348  0.1339 -0.2218  0.2816
 2504POSM   C2A29380   1.989   2.051  13.004 -0.2992 -0.1889  0.3067
 2504POSM   C3A29381   1.859   2.222  12.619  0.3632 -0.1147  0.0699
 2504POSM   C1B29382   1.877   1.071  13.295 -0.1928  0.3238  0.5009
 2504POSM   D2B29383   2.115   0.710  13.125  0.1190  0.2281  0.1323
 2504POSM   C3B29384   2.284   0.792  12.683 -0.0248  0.0327  0.0689
 2504POSM   C4B29385   2.543   0.893  12.341  0.2862 -0.1533  0.0658
 2505DOPS   CNO29386  26.669   4.581  15.369 -0.0976 -0.3989  0.1041
 2505DOPS   PO429387  26.317   4.572  15.220  0.1158  0.0183  0.5085
 2505DOPS   GL129388  26.285   4.472  14.851  0.1584  0.1222  0.3769
 2505DOPS   GL229389  26.601   4.422  14.804  0.0305  0.0992 -0.0610
 2505DOPS   C1A29390  26.075   4.572  14.465  0.0505  0.2004 -0.0109
 2505DOPS   D2A29391  25.714   4.349  14.291 -0.1457  0.0242 -0.1269
 2505DOPS   C3A29392  25.733   4.235  13.878  0.1391 -0.1165  0.1801
 2505DOPS   C4A29393  25.789   4.033  13.447  0.2451 -0.1549  0.1483
 2505DOPS   C1B29394  26.638   4.450  14.333  0.0567  0.0071  0.0593
 2505DOPS   D2B29395  26.624   4.171  13.984  0.1905  0.2611 -0.0045
 2505DOPS   C3B29396  26.493   3.741  14.172 -0.0734 -0.1894  0.0213
 2505DOPS   C4B29397  26.270   3.407  14.297  0.0396  0.1312 -0.0636
 2506DOPS   CNO29398  25.613   4.517  15.263  0.2467  0.0363  0.0452
 2506DOPS   PO429399  25.898   4.311  15.115  0.0485  0.3737  0.0684
 2506DOPS   GL129400  25.963   3.936  14.933 -0.1295  0.0021  0.3305
 2506DOPS   GL229401  25.857   3.967  14.672 -0.2470 -0.1593 -0.0454
 2506DOPS   C1A29402  25.616   3.646  14.929 -0.1705  0.0822 -0.1406
 2506DOPS   D2A29403  25.169   3.630  14.826 -0.0222 -0.0572  0.3491
 2506DOPS   C3A29404  24.875   3.759  14.440  0.2527  0.0272 -0.1937
 2506DOPS   C4A29405  24.430   3.579  14.283  0.0428  0.0942  0.3054
 2506DOPS   C1B29406  25.888   3.816  14.250  0.4478  0.0600  0.0237
 2506DOPS   D2B29407  25.945   3.725  13.785 -0.0179  0.0833  0.2035
 2506DOPS   C3B29408  25.672   3.512  13.404  0.1435  0.0723  0.1006
 2506DOPS   C4B29409  25.247   3.337  13.425 -0.1257 -0.0491  0.1471
 2507DOPE   NH329410  25.664   2.975  15.559  0.0883 -0.1908 -0.1434
 2507DOPE   PO429411  25.853   2.999  15.287  0.0643  0.3043  0.1619
 2507DOPE   GL129412  26.026   3.140  14.912 -0.2150  0.2674 -0.1653
 2507DOPE   GL229413  26.037   3.420  15.075  0.0621 -0.0929  0.1050
 2507DOPE   C1A29414  26.119   2.929  14.507  0.0193 -0.0693 -0.0308
 2507DOPE   D2A29415  26.197   2.929  14.081 -0.1200  0.4107  0.1040
 2507DOPE   C3A29416  26.039   3.254  13.800 -0.0448  0.1219 -0.1907
 2507DOPE   C4A29417  26.247   3.536  13.450  0.0881 -0.0756  0.0007
 2507DOPE   C1B29418  25.898   3.400  14.611 -0.4253 -0.1165  0.0119
 2507DOPE   D2B29419  25.752   3.169  14.252  0.0289 -0.0472  0.1352
 2507DOPE   C3B29420  25.390   3.321  14.023 -0.0623  0.0493 -0.2642
 2507DOPE   C4B29421  25.067   3.089  13.788  0.1812 -0.0075  0.0244
 2508DOPE   NH329422   0.558   0.268  14.114 -0.0312  0.0576 -0.2275
 2508DOPE   PO429423   0.366   0.403  14.329  0.3039 -0.2781  0.3494
 2508DOPE   GL129424   0.197   0.608  13.994 -0.0618  0.0514 -0.1627
 2508DOPE   GL229425  -0.059   0.630  13.949 -0.0891 -0.2873 -0.1946
 2508DOPE   C1A29426   0.310   0.649  13.515 -0.3251 -0.1676  0.0526
 2508DOPE   D2A29427   0.196   0.963  13.178  0.1557  0.0107 -0.1028
 2508DOPE   C3A29428   0.579   1.117  12.951  0.0577  0.0421  0.1936
 2508DOPE   C4A29429   0.867   0.909  12.678  0.3985 -0.0616 -0.0166
 2508DOPE   C1B29430  -0.156   0.462  13.493  0.0682 -0.1044 -0.2343
 2508DOPE   D2B29431  -0.400   0.123  13.277 -0.2731  0.2385 -0.2366
 2508DOPE   C3B29432  -0.823   0.278  13.180  0.2719 -0.0773  0.3179
 2508DOPE   C4B29433  -1.293   0.292  12.953 -0.0692  0.0661  0.0742
 2509DOPE   NH329434  32.968   7.330  14.132  0.1339 -0.0106  0.1763
 2509DOPE   PO429435  33.295   7.267  14.040  0.0142  0.0268 -0.0680
 2509DOPE   GL129436  33.192   7.117  13.725  0.0886 -0.0322  0.1206
 2509DOPE   GL229437  32.863   7.065  13.708 -0.0468  0.3277  0.0290
 2509DOPE   C1A29438  33.367   7.340  13.353  0.0511 -0.1807 -0.0896
 2509DOPE   D2A29439  33.634   7.548  13.028  0.2794 -0.2689  0.1924
 2509DOPE   C3A29440  33.882   7.859  13.209 -0.0840 -0.0501 -0.0584
 2509DOPE   C4A29441  33.926   8.250  13.453  0.1950  0.2736 -0.0598
 2509DOPE   C1B29442  32.944   7.038  13.241 -0.1104 -0.2263 -0.0915
 2509DOPE   D2B29443  33.115   7.387  12.908  0.2134 -0.1129  0.2483
 2509DOPE   C3B29444  32.796   7.655  12.705  0.0363 -0.1236 -0.3284
 2509DOPE   C4B29445  32.527   7.916  12.829 -0.0645 -0.2063 -0.0780
 2510DOPC   NC329446  25.579   6.023  15.192  0.0349 -0.3950 -0.1745
 2510DOPC   PO429447  25.426   6.319  14.992 -0.1222  0.0973 -0.3170
 2510DOPC   GL129448  25.494   6.392  14.564 -0.1250  0.0887  0.0379
 2510DOPC   GL229449  25.261   6.455  14.352 -0.2909 -0.3122 -0.0152
 2510DOPC   C1A29450  25.839   6.683  14.434 -0.0846  0.0514  0.1799
 2510DOPC   D2A29451  26.091   6.714  14.056  0.0498 -0.0573  0.4224
 2510DOPC   C3A29452  26.368   6.538  13.710  0.2564 -0.2939  0.1476
 2510DOPC   C4A29453  26.516   6.200  13.431  0.0367 -0.2357  0.0554
 2510DOPC   C1B29454  25.271   6.194  13.889  0.3336  0.0387 -0.0984
 2510DOPC   D2B29455  25.546   5.997  13.535 -0.1143  0.1955  0.1475
 2510DOPC   C3B29456  25.687   6.222  13.123 -0.1578  0.2711 -0.0662
 2510DOPC   C4B29457  25.851   6.517  12.800 -0.3228 -0.0258  0.0303
 2511DOPC   NC329458   0.334   3.616  14.135 -0.0719  0.1601  0.0900
 2511DOPC   PO429459   0.486   3.949  14.229  0.1141  0.0401  0.1031
 2511DOPC   GL129460   0.425   4.021  13.918  0.1378 -0.2343  0.0060
 2511DOPC   GL229461   0.180   4.210  13.970  0.0374  0.2054  0.2851
 2511DOPC   C1A29462   0.406   3.993  13.451 -0.0314 -0.1215  0.2658
 2511DOPC   D2A29463   0.354   4.095  13.008  0.1780 -0.0924  0.0925
 2511DOPC   C3A29464   0.290   4.561  12.938 -0.2651 -0.0506  0.2632
 2511DOPC   C4A29465   0.153   4.895  13.204  0.1090 -0.1828  0.1855
 2511DOPC   C1B29466  -0.125   3.980  13.740 -0.0112 -0.0261  0.0749
 2511DOPC   D2B29467  -0.439   3.737  13.608 -0.2641 -0.0157 -0.2445
 2511DOPC   C3B29468  -0.601   3.982  13.260 -0.2335  0.1311 -0.1331
 2511DOPC   C4B29469  -0.868   4.384  13.322 -0.0704 -0.0980  0.2488
 2512POSM   NC329470  26.692   6.439  15.412 -0.0721  0.3232  0.0855
 2512POSM   PO429471  26.275   6.578  15.365 -0.0907  0.1756  0.0488
 2512POSM   AM129472  26.417   6.478  15.087 -0.4078 -0.0674 -0.0912
 2512POSM   AM229473  26.373   6.291  14.833 -0.3792  0.0026  0.1547
 2512POSM   T1A29474  26.693   6.668  14.705  0.0838  0.2020 -0.0072
 2512POSM   C2A29475  26.783   7.166  14.539  0.1261 -0.1962 -0.2403
 2512POSM   C3A29476  27.118   7.441  14.521  0.2082 -0.0376  0.1322
 2512POSM   C1B29477  26.362   6.345  14.497 -0.0921 -0.1545  0.1776
 2512POSM   D2B29478  26.205   6.229  14.113 -0.0362 -0.0677 -0.3147
 2512POSM   C3B29479  26.173   5.739  14.229 -0.1373  0.0543  0.0796
 2512POSM   C4B29480  25.777   5.512  14.350 -0.1807 -0.1978 -0.1909
 2513POSM   NC329481  25.207   6.851  15.160 -0.3137  0.1295  0.0070
 2513POSM   PO429482  24.961   7.113  15.025 -0.0325 -0.0116  0.1827
 2513POSM   AM129483  25.019   7.110  14.696  0.1278 -0.1298 -0.0845
 2513POSM   AM229484  24.943   7.189  14.424 -0.0558  0.3120 -0.0516
 2513POSM   T1A29485  25.401   6.907  14.413 -0.2442 -0.2211  0.2503
 2513POSM   C2A29486  25.622   6.788  14.013 -0.0163  0.2423  0.0294
 2513POSM   C3A29487  25.643   6.574  13.622 -0.0111 -0.1814 -0.0387
 2513POSM   C1B29488  24.768   7.165  14.122  0.2251  0.4266 -0.2958
 2513POSM   D2B29489  24.757   7.415  13.704  0.0939 -0.1935 -0.1295
 2513POSM   C3B29490  24.555   7.273  13.345 -0.0968  0.1470  0.0064
 2513POSM   C4B29491  24.669   7.048  12.944 -0.4678  0.1785  0.0049
 2514DOPE   NH329492  23.147   1.737  15.119 -0.2753  0.1079  0.2574
 2514DOPE   PO429493  23.160   1.725  14.779  0.0059  0.1135 -0.1126
 2514DOPE   GL129494  23.112   1.870  14.440  0.3812 -0.0581 -0.2286
 2514DOPE   GL229495  23.398   1.868  14.343  0.0297 -0.0589 -0.3121
 2514DOPE   C1A29496  22.716   1.950  14.189  0.1689  0.2782  0.1246
 2514DOPE   D2A29497  22.402   1.871  13.835  0.2235 -0.1345  0.0182
 2514DOPE   C3A29498  22.406   1.810  13.405  0.0179  0.3799  0.1841
 2514DOPE   C4A29499  22.648   2.024  13.081  0.2294 -0.1378 -0.0867
 2514DOPE   C1B29500  23.190   2.027  13.941  0.0616 -0.0885  0.4850
 2514DOPE   D2B29501  23.254   2.012  13.456 -0.0409  0.0545  0.4299
 2514DOPE   C3B29502  23.042   1.750  13.145  0.0492  0.1372  0.0369
 2514DOPE   C4B29503  22.703   1.545  12.898 -0.0924 -0.0917 -0.2017
 2515DOPE   NH329504  24.621   1.940  15.185 -0.0790  0.1808  0.2176
 2515DOPE   PO429505  24.346   2.123  15.169  0.0467  0.1030  0.1034
 2515DOPE   GL129506  24.352   2.205  14.745 -0.0991 -0.3120  0.2558
 2515DOPE   GL229507  24.178   2.474  14.743 -0.0391  0.0198 -0.0701
 2515DOPE   C1A29508  24.643   1.968  14.484 -0.1704  0.1710 -0.0175
 2515DOPE   D2A29509  24.708   1.725  14.086  0.1910 -0.1072  0.1500
 2515DOPE   C3A29510  24.474   1.884  13.705 -0.1219 -0.3433  0.0723
 2515DOPE   C4A29511  24.170   1.863  13.389 -0.2874 -0.0341  0.3665
 2515DOPE   C1B29512  24.284   2.524  14.351 -0.2848 -0.1078  0.0582
 2515DOPE   D2B29513  24.232   2.656  13.915  0.1714  0.2968  0.1215
 2515DOPE   C3B29514  23.889   2.396  13.805 -0.2092  0.0707  0.2856
 2515DOPE   C4B29515  23.817   1.925  13.772  0.0942 -0.0994  0.2102
 2516DOPE   NH329516  31.003   8.168  15.142  0.1072  0.2889  0.0454
 2516DOPE   PO429517  31.050   8.461  15.004 -0.1793 -0.0557 -0.3494
 2516DOPE   GL129518  30.902   8.353  14.554  0.1424  0.1204 -0.1666
 2516DOPE   GL229519  31.126   8.466  14.424  0.1409 -0.0213 -0.1275
 2516DOPE   C1A29520  30.574   8.403  14.217 -0.2241  0.2702  0.0528
 2516DOPE   D2A29521  30.492   8.464  13.768 -0.0006  0.3887 -0.1727
 2516DOPE   C3A29522  30.320   8.142  13.481 -0.1453  0.0399 -0.0677
 2516DOPE   C4A29523  29.930   8.071  13.199  0.1889  0.0338  0.4047
 2516DOPE   C1B29524  30.972   8.643  14.013  0.0212  0.0087 -0.0182
 2516DOPE   D2B29525  30.944   8.529  13.570 -0.1522  0.0364  0.2732
 2516DOPE   C3B29526  30.612   8.558  13.290  0.0745 -0.1258  0.0925
 2516DOPE   C4B29527  30.239   8.729  13.050 -0.0461  0.4239 -0.1855
 2517DOPC   NC329528  25.175   1.325  14.948  0.0906 -0.0401 -0.0635
 2517DOPC   PO429529  24.999   1.704  15.021  0.1648  0.1681 -0.2277
 2517DOPC   GL129530  25.071   1.721  14.640  0.0368 -0.1044 -0.1145
 2517DOPC   GL229531  24.860   1.531  14.550  0.2679  0.1017  0.0178
 2517DOPC   C1A29532  25.124   1.926  14.255  0.0060  0.0433  0.1327
 2517DOPC   D2A29533  25.052   2.023  13.822  0.0711 -0.0902 -0.0925
 2517DOPC   C3A29534  25.417   1.892  13.525 -0.1169  0.0211  0.2534
 2517DOPC   C4A29535  25.811   1.626  13.477 -0.4910  0.0542 -0.5104
 2517DOPC   C1B29536  25.029   1.284  14.138  0.1457 -0.2139  0.3495
 2517DOPC   D2B29537  24.816   1.322  13.702  0.1322  0.1792  0.1434
 2517DOPC   C3B29538  24.929   1.639  13.389  0.0600 -0.0658 -0.1261
 2517DOPC   C4B29539  24.849   2.062  13.371 -0.0695  0.1024  0.2566
 2518DOPC   NC329540  22.961   6.338  14.591 -0.1280 -0.2486  0.1479
 2518DOPC   PO429541  23.135   6.621  14.428 -0.3377 -0.2705 -0.0704
 2518DOPC   GL129542  23.384   6.566  14.155  0.3658 -0.1425  0.1132
 2518DOPC   GL229543  23.388   6.922  14.123 -0.0583 -0.2504  0.3068
 2518DOPC   C1A29544  23.523   6.242  13.909 -0.1247 -0.0843 -0.1514
 2518DOPC   D2A29545  23.622   5.841  13.676 -0.0623 -0.0602 -0.1128
 2518DOPC   C3A29546  23.724   6.015  13.213 -0.2626 -0.2136  0.0864
 2518DOPC   C4A29547  23.633   6.402  12.964 -0.1053  0.1943 -0.1135
 2518DOPC   C1B29548  23.356   6.686  13.709  0.1823  0.1425 -0.0372
 2518DOPC   D2B29549  23.401   6.380  13.410  0.1629  0.1611  0.0111
 2518DOPC   C3B29550  23.187   6.706  13.220 -0.0904 -0.1380  0.1480
 2518DOPC   C4B29551  23.186   6.659  12.724 -0.2848  0.1235 -0.0030
 2519POSM   NC329552  27.471   6.704  15.517 -0.0674 -0.0290 -0.1543
 2519POSM   PO429553  27.639   6.350  15.602  0.1888 -0.1128 -0.2553
 2519POSM   AM129554  27.591   6.333  15.288  0.1251 -0.0479  0.0925
 2519POSM   AM229555  27.413   6.300  15.114 -0.0768 -0.1483 -0.3166
 2519POSM   T1A29556  27.844   6.459  14.896  0.1232 -0.2186  0.1400
 2519POSM   C2A29557  28.194   6.428  14.558  0.1295 -0.2788  0.0849
 2519POSM   C3A29558  28.276   6.148  14.175  0.1964 -0.2111  0.0096
 2519POSM   C1B29559  27.258   6.506  14.823 -0.1106 -0.0108 -0.2111
 2519POSM   D2B29560  27.133   6.773  14.447  0.2201 -0.1463  0.0855
 2519POSM   C3B29561  27.418   6.747  14.109 -0.0786  0.0596  0.1703
 2519POSM   C4B29562  27.432   6.608  13.700 -0.0872 -0.2974 -0.0025
 2520DOPC   NC329563  27.354  10.967  14.476  0.1090  0.2937  0.1246
 2520DOPC   PO429564  27.597  10.675  14.389  0.3528  0.0076  0.1875
 2520DOPC   GL129565  27.531  10.603  13.990  0.1802  0.2700 -0.3209
 2520DOPC   GL229566  27.793  10.508  13.869 -0.1309  0.1318 -0.2109
 2520DOPC   C1A29567  27.161  10.440  13.760 -0.0715  0.0073  0.0927
 2520DOPC   D2A29568  26.951  10.244  13.372  0.1641 -0.0230  0.1191
 2520DOPC   C3A29569  27.158   9.962  13.067 -0.0887  0.0946 -0.0769
 2520DOPC   C4A29570  27.205   9.852  12.613  0.0856  0.0647 -0.2013
 2520DOPC   C1B29571  27.650  10.901  13.577  0.0834 -0.1397  0.0420
 2520DOPC   D2B29572  27.315  10.995  13.303  0.0570 -0.0573 -0.0444
 2520DOPC   C3B29573  27.350  10.951  12.809  0.0500 -0.3876 -0.4299
 2520DOPC   C4B29574  27.133  10.880  12.411 -0.1308  0.2001  0.0167
 2521DOPE   NH329575  33.126   1.756  14.410 -0.1015  0.2584 -0.2594
 2521DOPE   PO429576  33.201   1.421  14.339 -0.4536 -0.2559  0.0169
 2521DOPE   GL129577  33.201   1.234  14.036  0.2970 -0.1675 -0.0028
 2521DOPE   GL229578  33.144   1.457  13.848  0.0049  0.2697 -0.2649
 2521DOPE   C1A29579  33.355   0.982  13.703 -0.1643  0.3275  0.2458
 2521DOPE   D2A29580  33.183   0.723  13.386 -0.2242  0.3145  0.0973
 2521DOPE   C3A29581  33.034   0.781  12.963  0.0229  0.0649  0.2627
 2521DOPE   C4A29582  33.058   1.053  12.578 -0.2984 -0.0214 -0.2900
 2521DOPE   C1B29583  33.103   1.358  13.442 -0.1213  0.2057 -0.0970
 2521DOPE   D2B29584  33.332   1.159  13.100 -0.0828 -0.0452  0.1630
 2521DOPE   C3B29585  33.450   1.236  12.749 -0.0055 -0.0091 -0.0906
 2521DOPE   C4B29586  33.279   1.641  12.496 -0.2468  0.2338 -0.0634
 2522DOPC   NC329587  26.120   7.004  15.673 -0.0235 -0.0763  0.0171
 2522DOPC   PO429588  26.073   7.266  15.351  0.1075 -0.1630 -0.0196
 2522DOPC   GL129589  25.980   6.964  15.028 -0.2283 -0.1062 -0.1261
 2522DOPC   GL229590  26.153   6.782  14.849 -0.1278  0.0629  0.2305
 2522DOPC   C1A29591  25.877   7.138  14.576  0.3346 -0.0336 -0.1699
 2522DOPC   D2A29592  25.737   7.276  14.133  0.1669  0.1136 -0.2743
 2522DOPC   C3A29593  25.974   7.103  13.770 -0.0950 -0.2063 -0.1066
 2522DOPC   C4A29594  26.077   6.972  13.340  0.1156 -0.2862  0.1852
 2522DOPC   C1B29595  26.301   6.887  14.473  0.0176 -0.1517  0.0346
 2522DOPC   D2B29596  26.568   6.843  14.141 -0.1885 -0.2152 -0.0674
 2522DOPC   C3B29597  26.533   7.020  13.713  0.0485 -0.0963 -0.0143
 2522DOPC   C4B29598  26.571   7.218  13.298  0.0723 -0.0627 -0.0863
 2523DOPE   NH329599  26.197  12.113  14.224 -0.1331 -0.0520 -0.2033
 2523DOPE   PO429600  26.412  12.331  14.242 -0.0836  0.1483  0.0767
 2523DOPE   GL129601  26.321  12.487  13.920 -0.1245  0.6283  0.0259
 2523DOPE   GL229602  26.595  12.403  13.722  0.1170 -0.0407  0.1597
 2523DOPE   C1A29603  26.134  12.433  13.499  0.1984  0.2934 -0.0163
 2523DOPE   D2A29604  26.213  12.354  13.059  0.0040  0.0361 -0.0627
 2523DOPE   C3A29605  26.330  11.922  13.006  0.2793 -0.3277 -0.2589
 2523DOPE   C4A29606  26.482  11.460  13.008  0.0730 -0.1229  0.1210
 2523DOPE   C1B29607  26.617  12.255  13.311  0.1896  0.1069 -0.0039
 2523DOPE   D2B29608  26.862  12.262  12.919  0.0623  0.1521 -0.2521
 2523DOPE   C3B29609  26.533  12.292  12.602 -0.2171 -0.1759  0.0976
 2523DOPE   C4B29610  26.093  12.462  12.582 -0.0174 -0.1226 -0.2957
 2524DOPE   NH329611  31.815  33.962  15.180  0.2267  0.1138 -0.1472
 2524DOPE   PO429612  32.051  33.951  15.033  0.4238  0.1089  0.2051
 2524DOPE   GL129613  32.056  33.881  14.591 -0.1265 -0.3001  0.0888
 2524DOPE   GL229614  32.123  34.159  14.564  0.0160  0.2127 -0.0620
 2524DOPE   C1A29615  32.029  33.902  14.088 -0.0894  0.1750  0.1064
 2524DOPE   D2A29616  31.941  34.268  13.721 -0.1431 -0.3007 -0.1290
 2524DOPE   C3A29617  31.771  34.142  13.337  0.2555 -0.1985 -0.0636
 2524DOPE   C4A29618  31.864  33.986  12.930  0.0140 -0.0584 -0.1615
 2524DOPE   C1B29619  32.131  34.516  14.302 -0.0231  0.0001 -0.0027
 2524DOPE   D2B29620  31.954  34.830  13.980 -0.0970 -0.0067  0.0355
 2524DOPE   C3B29621  31.872  34.772  13.496  0.3030  0.2157 -0.2127
 2524DOPE   C4B29622  31.812  34.991  13.067 -0.1148  0.2630 -0.0842
 2525DOPC   NC329623  26.359   4.024  15.114  0.0806  0.1040 -0.1015
 2525DOPC   PO429624  26.759   4.028  15.204  0.3006  0.1541  0.1419
 2525DOPC   GL129625  26.712   3.986  14.757 -0.2556 -0.3257  0.1089
 2525DOPC   GL229626  26.583   3.775  14.685 -0.1715  0.1281 -0.0592
 2525DOPC   C1A29627  26.902   4.000  14.337 -0.1933  0.2384 -0.1412
 2525DOPC   D2A29628  27.152   4.120  13.918  0.3558 -0.0678  0.0036
 2525DOPC   C3A29629  27.171   4.551  13.831  0.0219 -0.2054  0.0281
 2525DOPC   C4A29630  27.402   4.794  13.559  0.0832  0.0375 -0.0838
 2525DOPC   C1B29631  26.278   4.073  14.497  0.1033 -0.1755  0.0879
 2525DOPC   D2B29632  26.169   4.181  14.116 -0.0440 -0.1043 -0.2652
 2525DOPC   C3B29633  26.278   4.335  13.695  0.0240  0.0442  0.5120
 2525DOPC   C4B29634  26.321   4.514  13.292  0.3489 -0.0589  0.2851
 2526DOPC   NC329635  24.020   4.656  15.214  0.0113  0.2219 -0.1423
 2526DOPC   PO429636  24.386   4.583  15.269 -0.0590  0.2073  0.1987
 2526DOPC   GL129637  24.405   4.392  14.846  0.0218  0.0298  0.0077
 2526DOPC   GL229638  24.113   4.439  14.758 -0.0223 -0.1837 -0.0552
 2526DOPC   C1A29639  24.620   4.420  14.443  0.3709  0.1961  0.0912
 2526DOPC   D2A29640  24.811   4.738  14.116  0.0943 -0.0095 -0.2023
 2526DOPC   C3A29641  24.825   4.669  13.663 -0.0794  0.3014 -0.1012
 2526DOPC   C4A29642  25.019   4.693  13.217 -0.4558  0.0233  0.1398
 2526DOPC   C1B29643  24.243   4.134  14.389  0.1889  0.1175 -0.0837
 2526DOPC   D2B29644  24.404   3.982  13.979 -0.1105  0.0079 -0.2840
 2526DOPC   C3B29645  24.498   3.583  13.766  0.1708  0.1648  0.0034
 2526DOPC   C4B29646  24.721   3.397  13.428 -0.1697  0.2701 -0.0948
 2527DOPC   NC329647   0.155   6.995  14.193  0.0017  0.0255 -0.3155
 2527DOPC   PO429648   0.431   6.909  13.890  0.3834 -0.2137 -0.0235
 2527DOPC   GL129649   0.495   6.827  13.512  0.0317  0.2121  0.2103
 2527DOPC   GL229650   0.723   6.758  13.287 -0.2525  0.0746 -0.1568
 2527DOPC   C1A29651   0.582   7.178  13.163 -0.0383 -0.2760 -0.0465
 2527DOPC   D2A29652   0.630   7.507  12.807 -0.3234 -0.1617 -0.0011
 2527DOPC   C3A29653   0.371   7.276  12.472  0.0917  0.1023 -0.4015
 2527DOPC   C4A29654   0.458   7.133  12.017 -0.0777 -0.1585  0.0257
 2527DOPC   C1B29655   0.384   6.734  12.982 -0.1820  0.3794 -0.0070
 2527DOPC   D2B29656   0.020   6.934  12.786 -0.0007  0.1285 -0.0466
 2527DOPC   C3B29657  -0.034   7.083  12.309  0.3278 -0.3354  0.3155
 2527DOPC   C4B29658  -0.150   7.376  11.963  0.0185  0.2307  0.1290
 2528DOPC   NC329659  23.532   3.220  15.483 -0.0523 -0.0831 -0.2988
 2528DOPC   PO429660  23.526   3.252  15.061  0.0307  0.0571 -0.0237
 2528DOPC   GL129661  23.536   3.360  14.697  0.0858 -0.0265 -0.1330
 2528DOPC   GL229662  23.349   3.136  14.577  0.1244  0.0717  0.2640
 2528DOPC   C1A29663  23.522   3.675  14.384 -0.2940  0.2330 -0.3248
 2528DOPC   D2A29664  23.343   4.092  14.188  0.0066 -0.1985  0.2021
 2528DOPC   C3A29665  23.296   4.389  13.849 -0.2981  0.0888  0.0514
 2528DOPC   C4A29666  22.904   4.560  13.765 -0.0377 -0.2464 -0.4219
 2528DOPC   C1B29667  23.361   3.210  14.156 -0.1949 -0.1126 -0.1012
 2528DOPC   D2B29668  23.665   3.492  13.926  0.0703  0.1045  0.0647
 2528DOPC   C3B29669  24.088   3.298  13.945 -0.0377  0.1552 -0.0963
 2528DOPC   C4B29670  24.315   3.058  14.297 -0.0509 -0.0757  0.1447
 2529DOPC   NC329671  30.591   4.196  14.656  0.0822 -0.1259  0.2740
 2529DOPC   PO429672  30.956   4.169  14.728 -0.2978  0.0332 -0.1298
 2529DOPC   GL129673  31.049   3.982  14.421 -0.1155  0.0579  0.1485
 2529DOPC   GL229674  31.255   4.153  14.336  0.2926  0.2579 -0.0928
 2529DOPC   C1A29675  30.920   3.686  14.113  0.3142  0.1157  0.1077
 2529DOPC   D2A29676  30.473   3.627  14.184  0.1013 -0.0202  0.1187
 2529DOPC   C3A29677  30.093   3.674  13.869  0.2112  0.2688 -0.1343
 2529DOPC   C4A29678  29.713   3.939  13.865  0.2568 -0.0433 -0.1195
 2529DOPC   C1B29679  31.055   4.367  13.978  0.2456  0.1139 -0.4064
 2529DOPC   D2B29680  31.010   4.406  13.502  0.1116 -0.1463  0.0275
 2529DOPC   C3B29681  30.633   4.214  13.232 -0.4566  0.2369 -0.1121
 2529DOPC   C4B29682  30.541   3.828  12.932 -0.4217 -0.0359 -0.2196
 2530DOPE   NH329683   1.842   5.199  13.704 -0.1272  0.3154  0.1198
 2530DOPE   PO429684   2.052   5.336  13.904 -0.0539 -0.0402  0.2092
 2530DOPE   GL129685   2.025   5.637  13.585 -0.2989  0.2294 -0.0123
 2530DOPE   GL229686   2.133   5.468  13.405  0.0867 -0.0917  0.0043
 2530DOPE   C1A29687   1.616   5.567  13.334 -0.0341 -0.0115 -0.0572
 2530DOPE   D2A29688   1.428   5.427  12.978  0.1373 -0.1071 -0.3894
 2530DOPE   C3A29689   0.999   5.438  12.878 -0.1735  0.0635  0.0539
 2530DOPE   C4A29690   0.632   5.407  13.161 -0.0796  0.0345  0.0144
 2530DOPE   C1B29691   1.914   5.324  12.997 -0.0813 -0.0167 -0.1049
 2530DOPE   D2B29692   1.899   5.328  12.533 -0.2155 -0.2605 -0.0288
 2530DOPE   C3B29693   1.659   5.646  12.274 -0.0217 -0.1622  0.0398
 2530DOPE   C4B29694   1.311   5.924  12.224 -0.0648 -0.2069  0.0226
 2531DOPE   NH329695  33.031   5.970  14.135 -0.2247  0.0277  0.0466
 2531DOPE   PO429696  33.194   6.228  14.017  0.2377  0.1064 -0.1574
 2531DOPE   GL129697  33.294   6.112  13.743  0.3978  0.1477 -0.0458
 2531DOPE   GL229698  33.335   5.779  13.766 -0.0317 -0.0534  0.1163
 2531DOPE   C1A29699  33.331   6.209  13.261  0.2295 -0.2042 -0.0640
 2531DOPE   D2A29700  33.268   6.159  12.793  0.1366 -0.1983  0.0539
 2531DOPE   C3A29701  33.263   6.478  12.504 -0.2584  0.2033 -0.3711
 2531DOPE   C4A29702  33.552   6.602  12.109 -0.1364 -0.2633 -0.0286
 2531DOPE   C1B29703  33.645   5.892  13.463 -0.0452  0.0186  0.1143
 2531DOPE   D2B29704  33.688   5.841  12.983 -0.0192  0.1652  0.0984
 2531DOPE   C3B29705  33.858   6.121  12.694  0.0612  0.0443  0.0136
 2531DOPE   C4B29706  33.913   6.531  12.476  0.1107 -0.2709 -0.2265
 2532POSM   NC329707  30.559  11.862  14.163  0.0556  0.1454 -0.1449
 2532POSM   PO429708  30.538  11.539  14.354 -0.1606 -0.0582  0.4560
 2532POSM   AM129709  30.625  11.402  14.048 -0.0775 -0.1738 -0.0292
 2532POSM   AM229710  30.844  11.373  13.833  0.4325  0.2561  0.2446
 2532POSM   T1A29711  30.397  11.185  13.692  0.1700  0.3521  0.1195
 2532POSM   C2A29712  30.391  10.887  13.345 -0.0391  0.0246  0.4881
 2532POSM   C3A29713  30.077  10.716  13.058 -0.3961  0.0285  0.1979
 2532POSM   C1B29714  30.765  11.580  13.582 -0.0856  0.2665  0.4664
 2532POSM   D2B29715  30.781  11.958  13.307  0.2507  0.0047 -0.0571
 2532POSM   C3B29716  30.426  12.046  12.964  0.0563 -0.4581  0.0301
 2532POSM   C4B29717  29.975  12.013  13.009 -0.2447  0.1343 -0.0239
 2533DOPC   NC329718  28.330   2.004  15.024 -0.0269  0.2656 -0.0238
 2533DOPC   PO429719  28.499   1.648  15.083 -0.0300 -0.1253  0.1459
 2533DOPC   GL129720  28.538   1.471  14.762 -0.0338 -0.0164 -0.1340
 2533DOPC   GL229721  28.292   1.325  14.702  0.0990 -0.0068  0.0254
 2533DOPC   C1A29722  28.660   1.230  14.350 -0.2602  0.0397 -0.1111
 2533DOPC   D2A29723  28.665   1.259  13.868  0.1118  0.1040  0.2882
 2533DOPC   C3A29724  28.499   1.348  13.481  0.0639 -0.0989  0.3398
 2533DOPC   C4A29725  28.429   1.238  13.063  0.0298 -0.0455 -0.2617
 2533DOPC   C1B29726  27.845   1.071  14.777 -0.1229 -0.5408 -0.1054
 2533DOPC   D2B29727  27.566   0.865  14.524 -0.1489 -0.0964 -0.2915
 2533DOPC   C3B29728  27.616   0.717  14.066 -0.0189  0.2957 -0.0570
 2533DOPC   C4B29729  27.614   0.440  13.667 -0.0721 -0.1046 -0.1434
 2534POSM   NC329730  29.116   2.495  15.255  0.3387 -0.0094  0.2908
 2534POSM   PO429731  28.995   2.688  14.905 -0.1636  0.0991  0.5031
 2534POSM   AM129732  28.962   2.585  14.581 -0.1141  0.1600  0.0655
 2534POSM   AM229733  28.909   2.352  14.424  0.0257 -0.2249  0.2622
 2534POSM   T1A29734  28.812   2.731  14.127  0.1495  0.4307  0.1313
 2534POSM   C2A29735  28.522   2.621  13.776  0.0005 -0.2928 -0.4723
 2534POSM   C3A29736  28.266   2.586  13.419  0.0249 -0.1075 -0.0280
 2534POSM   C1B29737  29.018   2.269  14.073 -0.0400  0.1213 -0.2573
 2534POSM   D2B29738  29.223   2.015  13.743  0.0430 -0.2317 -0.2870
 2534POSM   C3B29739  29.359   1.745  13.346 -0.1608  0.0245 -0.2822
 2534POSM   C4B29740  29.547   1.700  12.960 -0.0664  0.2265 -0.0891
 2535POSM   NC329741  27.687  11.502  13.891  0.2814  0.0279  0.0457
 2535POSM   PO429742  27.717  11.728  14.229 -0.0794  0.2371  0.2384
 2535POSM   AM129743  27.525  11.928  14.017  0.3839  0.0975  0.3424
 2535POSM   AM229744  27.237  11.902  13.940 -0.1269 -0.4755 -0.4248
 2535POSM   T1A29745  27.582  12.080  13.539  0.2438  0.0555  0.0415
 2535POSM   C2A29746  27.678  12.102  13.041 -0.0465  0.0885  0.0366
 2535POSM   C3A29747  27.901  11.838  12.760  0.0047 -0.0590 -0.0021
 2535POSM   C1B29748  27.252  11.660  13.722  0.0470  0.0827  0.3162
 2535POSM   D2B29749  27.518  11.527  13.431  0.0753  0.0492  0.0686
 2535POSM   C3B29750  27.943  11.737  13.382 -0.3236  0.0741  0.2250
 2535POSM   C4B29751  28.369  11.705  13.257  0.0553 -0.0544 -0.0190
 2536DOPS   CNO29752  30.058   7.186  15.427 -0.0320 -0.0841 -0.0729
 2536DOPS   PO429753  29.821   7.477  15.325  0.1468  0.0666 -0.0321
 2536DOPS   GL129754  29.692   7.297  15.015  0.0498 -0.1286 -0.2270
 2536DOPS   GL229755  29.424   7.228  15.141 -0.1172 -0.2379  0.1588
 2536DOPS   C1A29756  29.544   7.275  14.558 -0.0769  0.0285 -0.1635
 2536DOPS   D2A29757  29.227   7.300  14.297  0.0075 -0.2008  0.1154
 2536DOPS   C3A29758  29.250   7.230  13.839  0.1559 -0.1140  0.1979
 2536DOPS   C4A29759  29.329   7.182  13.400  0.0682 -0.1937  0.1097
 2536DOPS   C1B29760  29.267   7.558  14.832 -0.2814 -0.0306  0.2711
 2536DOPS   D2B29761  29.289   7.789  14.476  0.0907  0.1803 -0.2621
 2536DOPS   C3B29762  28.953   8.137  14.568  0.1501  0.0084 -0.0820
 2536DOPS   C4B29763  28.624   8.458  14.407  0.1750  0.0584  0.0529
 2537DOPC   NC329764  26.240   7.420  14.898  0.0367 -0.3383  0.1911
 2537DOPC   PO429765  26.394   7.761  15.106  0.0411 -0.0154 -0.1422
 2537DOPC   GL129766  26.705   7.660  14.856  0.0712  0.2337  0.0793
 2537DOPC   GL229767  26.788   7.450  14.966  0.0105  0.2554 -0.0537
 2537DOPC   C1A29768  26.669   7.606  14.392  0.0111  0.2422  0.4047
 2537DOPC   D2A29769  26.636   7.406  13.948 -0.2823  0.2583 -0.1623
 2537DOPC   C3A29770  26.992   7.408  13.632 -0.1234 -0.3619 -0.1167
 2537DOPC   C4A29771  27.408   7.578  13.479  0.0811 -0.5173 -0.0706
 2537DOPC   C1B29772  27.095   7.091  14.997 -0.2144 -0.2332 -0.1521
 2537DOPC   D2B29773  27.529   6.845  15.036 -0.0070  0.1790  0.1147
 2537DOPC   C3B29774  27.750   6.928  14.633  0.0058 -0.1693 -0.1938
 2537DOPC   C4B29775  27.921   6.722  14.280  0.0996 -0.0136 -0.0912
 2538DOPE   NH329776  27.135   9.056  14.725 -0.3091 -0.1188  0.0738
 2538DOPE   PO429777  27.360   9.298  14.631 -0.0964 -0.0823  0.1600
 2538DOPE   GL129778  27.419   9.124  14.268  0.2468 -0.1970  0.0091
 2538DOPE   GL229779  27.563   9.367  14.194 -0.0148 -0.2118  0.0681
 2538DOPE   C1A29780  27.404   9.116  13.849 -0.1169  0.1594 -0.1267
 2538DOPE   D2A29781  27.400   8.851  13.487 -0.0795  0.1386  0.1357
 2538DOPE   C3A29782  27.332   9.053  13.098 -0.0161  0.1499 -0.1343
 2538DOPE   C4A29783  27.295   9.378  12.761  0.7213 -0.1289  0.1264
 2538DOPE   C1B29784  27.359   9.637  13.853 -0.0230 -0.3384  0.1581
 2538DOPE   D2B29785  27.398  10.031  13.615  0.0437 -0.0671 -0.1792
 2538DOPE   C3B29786  27.499  10.439  13.332  0.0965 -0.1746  0.0102
 2538DOPE   C4B29787  27.180  10.545  13.040 -0.0168 -0.4529  0.0440
 2539DOPE   NH329788  28.881   4.827  14.866  0.5432 -0.0422 -0.0493
 2539DOPE   PO429789  29.144   4.679  14.901 -0.2378 -0.0036  0.1375
 2539DOPE   GL129790  29.080   4.490  14.506 -0.3572 -0.0008 -0.0500
 2539DOPE   GL229791  29.326   4.442  14.436  0.0178 -0.1256 -0.2583
 2539DOPE   C1A29792  28.773   4.693  14.238  0.1826  0.4567 -0.0312
 2539DOPE   D2A29793  28.658   5.082  13.936 -0.1088  0.3565  0.0368
 2539DOPE   C3A29794  28.466   4.988  13.543 -0.0510 -0.1082 -0.1018
 2539DOPE   C4A29795  28.546   5.099  13.101  0.1511  0.0888  0.2240
 2539DOPE   C1B29796  29.456   4.518  13.979 -0.2867  0.1167 -0.2228
 2539DOPE   D2B29797  29.226   4.750  13.691  0.0090  0.1013  0.4040
 2539DOPE   C3B29798  29.499   4.783  13.314  0.0639 -0.1267  0.0336
 2539DOPE   C4B29799  29.748   5.185  13.136 -0.0214 -0.0132  0.1724
 2540DOPC   NC329800  31.367   4.504  14.729  0.2428  0.0207 -0.1330
 2540DOPC   PO429801  31.474   4.697  14.417 -0.1296 -0.1939  0.2807
 2540DOPC   GL129802  31.462   4.682  14.038  0.0430 -0.0767  0.0277
 2540DOPC   GL229803  31.203   4.805  13.850  0.1125 -0.0909  0.2023
 2540DOPC   C1A29804  31.887   4.629  13.785 -0.0036 -0.1881 -0.1903
 2540DOPC   D2A29805  32.268   4.586  13.513  0.0260  0.0478  0.1963
 2540DOPC   C3A29806  32.375   4.413  13.087 -0.1691  0.0776 -0.0727
 2540DOPC   C4A29807  32.199   4.248  12.744 -0.4684  0.1412  0.0071
 2540DOPC   C1B29808  31.453   4.614  13.500 -0.1362  0.1953 -0.0765
 2540DOPC   D2B29809  31.791   4.804  13.300  0.1404 -0.2594  0.0963
 2540DOPC   C3B29810  31.844   4.691  12.847  0.1532  0.1502  0.0284
 2540DOPC   C4B29811  31.912   4.720  12.369  0.0264  0.1122  0.0722
 2541POSM   NC329812  31.578   7.730  14.769  0.1686  0.0389  0.0456
 2541POSM   PO429813  31.730   7.440  14.586 -0.0349 -0.0757 -0.1242
 2541POSM   AM129814  31.640   7.501  14.267  0.1646  0.2751  0.2195
 2541POSM   AM229815  31.717   7.619  13.996 -0.1590  0.0832 -0.3140
 2541POSM   T1A29816  31.242   7.699  14.017  0.2378  0.2667  0.2111
 2541POSM   C2A29817  31.110   7.774  13.603 -0.1945  0.1581 -0.0512
 2541POSM   C3A29818  30.879   8.081  13.324  0.0047 -0.1901 -0.1200
 2541POSM   C1B29819  31.724   7.689  13.663 -0.0085  0.0484 -0.1264
 2541POSM   D2B29820  31.711   7.484  13.252 -0.0792  0.0589 -0.1312
 2541POSM   C3B29821  31.883   7.425  12.830 -0.1568  0.2387 -0.0483
 2541POSM   C4B29822  32.191   7.631  12.530  0.0730  0.0396 -0.0184
 2542POSM   NC329823  25.943  10.975  14.589 -0.1979 -0.1055 -0.0664
 2542POSM   PO429824  25.981  11.283  14.306 -0.0990  0.2659 -0.1298
 2542POSM   AM129825  25.898  11.159  14.006  0.1883  0.2627 -0.4683
 2542POSM   AM229826  25.736  11.271  13.765 -0.0641 -0.0561  0.1166
 2542POSM   T1A29827  26.010  10.853  13.619  0.0105 -0.1691  0.2864
 2542POSM   C2A29828  26.190  10.546  13.308 -0.2429  0.0179 -0.1245
 2542POSM   C3A29829  26.614  10.536  13.081 -0.0770 -0.1772  0.1005
 2542POSM   C1B29830  25.495  11.076  13.633 -0.2790 -0.1132 -0.1475
 2542POSM   D2B29831  25.219  10.891  13.383 -0.0231 -0.1911 -0.4017
 2542POSM   C3B29832  24.932  11.028  12.964  0.0626 -0.1042 -0.2654
 2542POSM   C4B29833  24.733  11.340  12.719 -0.0837  0.0546  0.2587
 2543DOPC   NC329834  32.105   7.383  14.202 -0.0212  0.0254  0.1329
 2543DOPC   PO429835  32.476   7.492  14.205  0.4034  0.2156  0.1774
 2543DOPC   GL129836  32.517   7.438  13.746 -0.2896  0.2459 -0.1937
 2543DOPC   GL229837  32.318   7.592  13.671  0.0823  0.0273 -0.0971
 2543DOPC   C1A29838  32.630   7.465  13.275  0.2832 -0.2038  0.1048
 2543DOPC   D2A29839  32.482   7.312  12.844 -0.0671 -0.0935 -0.2965
 2543DOPC   C3A29840  32.778   7.090  12.609  0.2140  0.0728 -0.4141
 2543DOPC   C4A29841  32.838   6.691  12.343 -0.0332 -0.2084  0.1081
 2543DOPC   C1B29842  32.214   7.753  13.227  0.1244 -0.2296  0.3328
 2543DOPC   D2B29843  31.885   7.999  13.039 -0.0313 -0.2722 -0.0454
 2543DOPC   C3B29844  32.137   8.203  12.652 -0.0029 -0.2332 -0.0570
 2543DOPC   C4B29845  32.391   8.472  12.481 -0.3229  0.0842 -0.2063
 2544DOPS   CNO29846  29.016   8.678  14.935 -0.0375 -0.0483 -0.1269
 2544DOPS   PO429847  28.689   8.666  15.069  0.0608 -0.0762  0.2158
 2544DOPS   GL129848  28.594   8.774  14.686 -0.2995 -0.2703  0.4870
 2544DOPS   GL229849  28.704   8.991  14.626  0.2548  0.1919 -0.0248
 2544DOPS   C1A29850  28.447   8.915  14.201  0.0781  0.0114  0.0551
 2544DOPS   D2A29851  28.208   9.056  13.764 -0.0969  0.1603  0.0242
 2544DOPS   C3A29852  28.525   8.996  13.459 -0.2017 -0.1271  0.0086
 2544DOPS   C4A29853  28.548   8.593  13.183  0.0546  0.0450  0.0073
 2544DOPS   C1B29854  29.013   9.243  14.332 -0.3045 -0.2272 -0.1366
 2544DOPS   D2B29855  29.321   9.532  14.306 -0.2969 -0.0590  0.2965
 2544DOPS   C3B29856  29.492   9.857  14.015 -0.0668 -0.2258  0.1587
 2544DOPS   C4B29857  29.668  10.204  13.719 -0.0447 -0.0179 -0.1383
 2545DOPE   NH329858   1.575   4.039  14.189  0.0064  0.5071 -0.2625
 2545DOPE   PO429859   1.301   3.929  14.230 -0.1102 -0.0007 -0.1364
 2545DOPE   GL129860   1.224   3.864  13.841 -0.0892 -0.1942 -0.5181
 2545DOPE   GL229861   1.385   3.973  13.718 -0.0057 -0.1477  0.2696
 2545DOPE   C1A29862   0.920   3.674  13.521 -0.1046  0.3096  0.2704
 2545DOPE   D2A29863   0.712   3.729  13.130 -0.0445 -0.0286 -0.1672
 2545DOPE   C3A29864   0.808   4.173  12.928  0.1790 -0.1094  0.3714
 2545DOPE   C4A29865   0.797   4.579  12.742 -0.0455  0.2076 -0.3036
 2545DOPE   C1B29866   1.375   3.988  13.285 -0.4124 -0.2424 -0.3385
 2545DOPE   D2B29867   1.216   3.755  12.935 -0.0572 -0.3538  0.3610
 2545DOPE   C3B29868   1.388   3.635  12.529 -0.3631 -0.1602 -0.0689
 2545DOPE   C4B29869   1.304   3.267  12.228 -0.0685 -0.5668  0.3098
 2546DOPS   CNO29870  28.303  10.361  14.715 -0.0525 -0.0614 -0.0852
 2546DOPS   PO429871  28.356  10.069  14.530  0.1988  0.1831 -0.2287
 2546DOPS   GL129872  28.354  10.140  14.212 -0.1663 -0.1386  0.2077
 2546DOPS   GL229873  28.619  10.112  14.084 -0.1949 -0.2555  0.1217
 2546DOPS   C1A29874  28.311   9.841  13.831 -0.1762 -0.1477 -0.2517
 2546DOPS   D2A29875  28.280   9.474  13.599 -0.0198  0.0597 -0.1098
 2546DOPS   C3A29876  28.264   9.410  13.149 -0.0893 -0.1678  0.0203
 2546DOPS   C4A29877  28.360   9.634  12.755  0.2633  0.0273  0.0939
 2546DOPS   C1B29878  28.575  10.203  13.622 -0.1441  0.0637  0.2247
 2546DOPS   D2B29879  28.900  10.162  13.335 -0.1768 -0.5325 -0.2005
 2546DOPS   C3B29880  29.166   9.877  13.082  0.0263  0.0070 -0.1530
 2546DOPS   C4B29881  29.393   9.748  12.725 -0.0484  0.1991  0.0925
 2547DOPS   CNO29882  27.686   2.205  15.312 -0.0236  0.0783 -0.1099
 2547DOPS   PO429883  27.346   2.221  15.153  0.1192  0.3595 -0.0526
 2547DOPS   GL129884  27.252   2.260  14.770  0.5154 -0.2408  0.0352
 2547DOPS   GL229885  27.505   2.396  14.750 -0.0579  0.1246 -0.0156
 2547DOPS   C1A29886  27.263   2.052  14.373 -0.1187 -0.1546 -0.0763
 2547DOPS   D2A29887  27.074   1.952  13.961 -0.1386  0.1867 -0.3413
 2547DOPS   C3A29888  27.067   2.290  13.637  0.0641 -0.1739 -0.4800
 2547DOPS   C4A29889  27.445   2.568  13.442  0.0005  0.0240 -0.0176
 2547DOPS   C1B29890  27.860   2.374  14.448 -0.2383 -0.0871  0.3531
 2547DOPS   D2B29891  28.030   2.365  14.026 -0.4265 -0.3756 -0.0078
 2547DOPS   C3B29892  27.886   2.334  13.586  0.1419  0.1101  0.2854
 2547DOPS   C4B29893  27.894   2.439  13.154  0.1350 -0.0216  0.2725
 2548POSM   NC329894  24.356   8.658  14.588 -0.1450 -0.2746 -0.0401
 2548POSM   PO429895  24.308   9.011  14.607 -0.0437 -0.1988 -0.1952
 2548POSM   AM129896  24.578   9.022  14.396 -0.0691  0.0161  0.0015
 2548POSM   AM229897  24.739   9.133  14.211  0.4179 -0.3129 -0.1694
 2548POSM   T1A29898  24.794   8.635  14.212 -0.0235 -0.1996 -0.1094
 2548POSM   C2A29899  24.794   8.400  13.790  0.0889  0.2089 -0.1576
 2548POSM   C3A29900  24.593   7.934  13.754 -0.3258  0.0158  0.2290
 2548POSM   C1B29901  24.796   9.106  13.917 -0.2413  0.1443  0.3576
 2548POSM   D2B29902  24.983   9.000  13.478 -0.0076  0.2401 -0.0952
 2548POSM   C3B29903  24.894   8.675  13.258 -0.1505 -0.1390 -0.2169
 2548POSM   C4B29904  25.094   8.307  13.123 -0.2111 -0.1518 -0.1997
 2549POSM   NC329905  32.367   5.385  14.210  0.0395  0.1364  0.1552
 2549POSM   PO429906  32.511   5.760  14.162  0.1372 -0.2265 -0.1859
 2549POSM   AM129907  32.568   5.676  13.877 -0.1151  0.2455 -0.1634
 2549POSM   AM229908  32.458   5.523  13.695 -0.0426  0.2066  0.1144
 2549POSM   T1A29909  32.736   5.825  13.412  0.0327 -0.0734  0.0573
 2549POSM   C2A29910  32.835   5.861  12.962  0.1978 -0.1208 -0.2028
 2549POSM   C3A29911  32.735   6.222  12.698 -0.2762  0.2090 -0.1145
 2549POSM   C1B29912  32.337   5.534  13.396  0.1055  0.1841 -0.2507
 2549POSM   D2B29913  32.501   5.449  12.984  0.1449 -0.4518  0.1115
 2549POSM   C3B29914  32.227   5.130  12.775  0.1199  0.1948  0.0877
 2549POSM   C4B29915  32.348   4.730  12.651 -0.2102  0.1154  0.2783
 2550DOPC   NC329916  27.886   3.179  15.027  0.1217 -0.1202  0.1288
 2550DOPC   PO429917  27.744   3.186  15.409  0.1408  0.1496 -0.2689
 2550DOPC   GL129918  27.370   3.203  15.176 -0.1866  0.0029 -0.2775
 2550DOPC   GL229919  27.432   3.379  15.000  0.3112  0.4553  0.0444
 2550DOPC   C1A29920  27.149   3.106  14.730 -0.0088  0.0433 -0.0781
 2550DOPC   D2A29921  27.257   3.191  14.264  0.0234 -0.1446  0.0934
 2550DOPC   C3A29922  27.206   3.211  13.805  0.0505  0.1855  0.1450
 2550DOPC   C4A29923  27.290   3.248  13.331 -0.1820  0.0624  0.0672
 2550DOPC   C1B29924  27.629   3.315  14.588 -0.0977  0.0747 -0.1951
 2550DOPC   D2B29925  27.818   3.522  14.217 -0.1413  0.0312 -0.0978
 2550DOPC   C3B29926  27.693   3.130  14.050  0.2663  0.0002 -0.0120
 2550DOPC   C4B29927  27.468   2.759  13.880 -0.0601  0.0594  0.1134
 2551POSM   NC329928  28.742  10.554  14.944  0.2751  0.1882 -0.2533
 2551POSM   PO429929  28.678  10.824  14.680  0.2102 -0.2209 -0.1992
 2551POSM   AM129930  28.622  10.745  14.351  0.2979  0.0721 -0.0902
 2551POSM   AM229931  28.465  10.590  14.217 -0.0662 -0.0758  0.0013
 2551POSM   T1A29932  28.857  10.589  13.931  0.0059 -0.0435 -0.0131
 2551POSM   C2A29933  29.078  10.598  13.590  0.1052  0.1945  0.0733
 2551POSM   C3A29934  29.067  10.571  13.125  0.0928 -0.2989 -0.0056
 2551POSM   C1B29935  28.309  10.464  13.915 -0.3383  0.3063 -0.0780
 2551POSM   D2B29936  28.114  10.250  13.514  0.3840  0.0342  0.1511
 2551POSM   C3B29937  28.045  10.711  13.331 -0.0325  0.1401  0.4569
 2551POSM   C4B29938  27.777  10.997  13.091  0.3383  0.2858  0.4300
 2552DOPC   NC329939  30.444   5.782  14.879  0.3797  0.0432  0.0945
 2552DOPC   PO429940  30.094   5.832  14.922 -0.3469 -0.2861  0.0088
 2552DOPC   GL129941  29.843   5.874  14.658  0.1078  0.2306  0.1989
 2552DOPC   GL229942  29.901   6.211  14.645  0.0609  0.0307 -0.1519
 2552DOPC   C1A29943  29.815   5.854  14.204 -0.1911 -0.1027  0.3039
 2552DOPC   D2A29944  29.658   5.584  13.852  0.3811  0.0311 -0.1573
 2552DOPC   C3A29945  29.934   5.457  13.497  0.1167  0.1439  0.1857
 2552DOPC   C4A29946  30.212   5.575  13.109  0.0782 -0.1914 -0.2473
 2552DOPC   C1B29947  29.767   6.348  14.266 -0.0884  0.1507  0.2384
 2552DOPC   D2B29948  29.637   6.601  13.922 -0.1117 -0.1955  0.0935
 2552DOPC   C3B29949  29.273   6.625  13.562 -0.1002 -0.0475 -0.1340
 2552DOPC   C4B29950  28.933   6.840  13.270 -0.1743  0.2255  0.0122
 2553POSM   NC329951  29.288   4.312  15.137  0.0971  0.3045 -0.1775
 2553POSM   PO429952  29.172   4.075  14.832  0.1428  0.1497 -0.1180
 2553POSM   AM129953  29.006   4.026  14.554  0.2660 -0.0057  0.2279
 2553POSM   AM229954  29.130   3.952  14.312 -0.2815 -0.1526 -0.1050
 2553POSM   T1A29955  28.700   4.221  14.179 -0.2661  0.3352 -0.2098
 2553POSM   C2A29956  28.706   4.486  13.775 -0.1207 -0.1024  0.0192
 2553POSM   C3A29957  28.916   4.501  13.411 -0.1152  0.3108 -0.0065
 2553POSM   C1B29958  29.171   4.131  14.028 -0.0820  0.1564 -0.0397
 2553POSM   D2B29959  29.288   4.247  13.599 -0.1177  0.0776 -0.0582
 2553POSM   C3B29960  29.315   3.936  13.342 -0.1779  0.2890 -0.1649
 2553POSM   C4B29961  29.435   3.627  13.063 -0.0296 -0.0804  0.2562
 2554POSM   NC329962  31.744   3.061  14.426  0.1435 -0.1971 -0.0614
 2554POSM   PO429963  31.507   2.914  14.734  0.1800 -0.1832  0.1220
 2554POSM   AM129964  31.310   2.785  14.468  0.0669 -0.0653  0.3396
 2554POSM   AM229965  31.115   2.912  14.290  0.1743  0.1389 -0.0221
 2554POSM   T1A29966  31.265   2.431  14.094 -0.1202 -0.0627 -0.0149
 2554POSM   C2A29967  31.331   1.996  13.920 -0.1943 -0.4338  0.3620
 2554POSM   C3A29968  31.035   1.589  13.860  0.0839  0.4337  0.1154
 2554POSM   C1B29969  31.323   2.940  13.998 -0.0467 -0.0788  0.3406
 2554POSM   D2B29970  31.497   2.720  13.621  0.0378 -0.1658 -0.3118
 2554POSM   C3B29971  31.489   2.674  13.137  0.1791  0.0564  0.2451
 2554POSM   C4B29972  31.164   2.643  12.850 -0.3774 -0.1479 -0.0703
 2555DOPC   NC329973  24.939   3.155  14.936 -0.0394 -0.0082 -0.1215
 2555DOPC   PO429974  24.621   3.084  15.054  0.1172 -0.2530 -0.3064
 2555DOPC   GL129975  24.700   3.066  14.582 -0.0448 -0.0718 -0.0651
 2555DOPC   GL229976  24.682   2.817  14.581  0.3737  0.0404 -0.1367
 2555DOPC   C1A29977  24.799   3.293  14.180  0.0802 -0.0511 -0.1570
 2555DOPC   D2A29978  24.945   3.652  13.919 -0.2093 -0.3021  0.1239
 2555DOPC   C3A29979  25.311   3.788  13.593 -0.1690  0.0547 -0.2775
 2555DOPC   C4A29980  25.376   3.786  13.143 -0.1959 -0.2542 -0.1124
 2555DOPC   C1B29981  24.679   2.783  14.110 -0.0961 -0.0884  0.0712
 2555DOPC   D2B29982  24.609   2.960  13.681 -0.0401 -0.0916  0.1183
 2555DOPC   C3B29983  24.170   3.036  13.567 -0.2217 -0.0310 -0.1662
 2555DOPC   C4B29984  23.813   3.250  13.499  0.1862  0.0636 -0.2837
 2556DOPE   NH329985  26.456   1.907  15.208  0.2076 -0.1306  0.2287
 2556DOPE   PO429986  26.290   2.156  15.162 -0.2478 -0.7049 -0.0407
 2556DOPE   GL129987  26.362   2.048  14.762  0.3580 -0.0217  0.0370
 2556DOPE   GL229988  26.016   1.995  14.749  0.2125 -0.1209 -0.0552
 2556DOPE   C1A29989  26.237   2.167  14.324 -0.0432 -0.3912  0.0510
 2556DOPE   D2A29990  26.064   2.475  13.992 -0.1012 -0.1528  0.0124
 2556DOPE   C3A29991  26.047   2.763  13.605  0.2701  0.1827 -0.1121
 2556DOPE   C4A29992  25.938   3.111  13.360  0.0559 -0.0400 -0.0060
 2556DOPE   C1B29993  25.585   2.018  14.484  0.1556 -0.3333  0.2214
 2556DOPE   D2B29994  25.380   2.282  14.142  0.0399 -0.0877 -0.0764
 2556DOPE   C3B29995  25.622   2.285  13.692 -0.1830 -0.2786  0.1104
 2556DOPE   C4B29996  25.807   2.160  13.276  0.0977  0.0251 -0.2502
 2557DOPC   NC329997  24.187   7.396  14.404  0.4403 -0.0919  0.3021
 2557DOPC   PO429998  24.152   7.072  14.660 -0.3394 -0.3761 -0.0546
 2557DOPC   GL129999  24.145   6.859  14.367  0.1018 -0.1085  0.2884
 2557DOPC   GL230000  24.327   6.954  14.163  0.1380 -0.3751 -0.2359
 2557DOPC   C1A30001  24.388   6.474  14.195  0.4087 -0.3094  0.0680
 2557DOPC   D2A30002  24.255   6.080  14.073  0.1342  0.2365 -0.0485
 2557DOPC   C3A30003  24.192   5.925  13.609 -0.0124 -0.1292 -0.0267
 2557DOPC   C4A30004  24.434   5.938  13.189 -0.3349 -0.2456  0.1907
 2557DOPC   C1B30005  24.329   6.981  13.727 -0.3042  0.0357 -0.0683
 2557DOPC   D2B30006  24.169   6.976  13.354  0.1969  0.2071 -0.0309
 2557DOPC   C3B30007  24.170   7.177  12.938 -0.1353 -0.0538 -0.0542
 2557DOPC   C4B30008  24.321   7.598  12.744  0.0883 -0.0908 -0.1707
 2558POSM   NC330009   1.746   2.245  14.062  0.2466  0.3408  0.0304
 2558POSM   PO430010   1.426   2.457  14.055  0.5254  0.1771  0.5302
 2558POSM   AM130011   1.323   2.576  13.766 -0.0758  0.3067 -0.1228
 2558POSM   AM230012   1.124   2.510  13.576 -0.1701 -0.1830  0.2241
 2558POSM   T1A30013   1.166   2.973  13.452 -0.1343  0.1001 -0.1523
 2558POSM   C2A30014   0.779   3.248  13.506 -0.3335 -0.1465 -0.2920
 2558POSM   C3A30015   0.420   3.528  13.669 -0.2213  0.1145  0.2159
 2558POSM   C1B30016   1.137   2.359  13.277  0.3790 -0.1651  0.0318
 2558POSM   D2B30017   1.086   2.023  12.951 -0.0474  0.4298 -0.2141
 2558POSM   C3B30018   1.203   1.821  12.555  0.1161 -0.1222  0.0940
 2558POSM   C4B30019   1.602   1.946  12.255  0.1647  0.2849  0.1860
 2559POSM   NC330020  26.912  12.212  14.271 -0.1804  0.1750 -0.1513
 2559POSM   PO430021  27.236  12.361  14.206  0.1031  0.0902  0.2411
 2559POSM   AM130022  27.178  12.384  13.874 -0.2920  0.2128  0.1548
 2559POSM   AM230023  27.075  12.564  13.715  0.0798  0.2030 -0.0776
 2559POSM   T1A30024  27.024  12.167  13.484  0.1351 -0.0681 -0.1234
 2559POSM   C2A30025  27.253  11.884  13.198  0.1613  0.1472 -0.0076
 2559POSM   C3A30026  27.367  11.909  12.740 -0.1200 -0.0117 -0.2800
 2559POSM   C1B30027  26.941  12.633  13.366  0.2917  0.0633  0.2182
 2559POSM   D2B30028  26.604  12.732  12.993  0.2128  0.0489  0.0426
 2559POSM   C3B30029  26.785  13.098  12.757  0.0289 -0.1000 -0.0178
 2559POSM   C4B30030  26.809  13.447  12.450 -0.1689  0.2897 -0.0022
 2560POSM   NC330031  24.916   6.131  15.002  0.1869 -0.0126  0.2518
 2560POSM   PO430032  25.146   5.817  15.094 -0.0753  0.0281  0.0857
 2560POSM   AM130033  25.158   5.784  14.776  0.1448  0.3568  0.1569
 2560POSM   AM230034  25.266   5.974  14.629  0.1940 -0.3114 -0.2950
 2560POSM   T1A30035  24.985   5.719  14.345  0.3879  0.1993  0.0744
 2560POSM   C2A30036  25.112   5.686  13.883  0.2803  0.1280 -0.2678
 2560POSM   C3A30037  25.325   5.568  13.487 -0.3010  0.0232  0.1440
 2560POSM   C1B30038  25.464   5.912  14.385 -0.2211 -0.1411 -0.2750
 2560POSM   D2B30039  25.550   5.735  13.998  0.0818  0.1557 -0.0969
 2560POSM   C3B30040  26.019   5.754  13.808 -0.2515 -0.0797  0.0548
 2560POSM   C4B30041  26.237   5.530  13.553  0.1983 -0.1227  0.1148
 2561POSM   NC330042  28.055  10.808  14.473  0.1412  0.1656  0.2644
 2561POSM   PO430043  28.280  11.136  14.543  0.1064 -0.2645  0.1211
 2561POSM   AM130044  28.378  11.136  14.246  0.2293 -0.0843 -0.0879
 2561POSM   AM230045  28.225  11.036  14.025  0.2003 -0.1630 -0.0169
 2561POSM   T1A30046  28.708  11.089  13.878  0.0376 -0.0767  0.0344
 2561POSM   C2A30047  29.147  11.025  13.852  0.0650  0.0772 -0.1888
 2561POSM   C3A30048  29.420  11.382  13.693  0.1804 -0.2217 -0.1563
 2561POSM   C1B30049  28.258  10.899  13.734 -0.0570 -0.1534 -0.0071
 2561POSM   D2B30050  28.597  10.770  13.502 -0.1957  0.1103  0.3436
 2561POSM   C3B30051  28.488  10.455  13.122  0.2967  0.2517  0.0525
 2561POSM   C4B30052  28.106  10.201  12.953  0.0325 -0.3929  0.1389
 2562DOPC   NC330053   0.169   5.501  14.230  0.0462  0.1288 -0.0040
 2562DOPC   PO430054   0.249   5.827  14.047 -0.0241 -0.2567 -0.0349
 2562DOPC   GL130055   0.162   5.591  13.788 -0.0848 -0.2267 -0.0970
 2562DOPC   GL230056  -0.085   5.754  13.681 -0.1248 -0.0009  0.2846
 2562DOPC   C1A30057   0.171   5.330  13.401  0.0276 -0.1170  0.0869
 2562DOPC   D2A30058   0.188   5.367  12.951  0.1494 -0.1692 -0.1924
 2562DOPC   C3A30059   0.516   5.548  12.676 -0.1958 -0.1657  0.0803
 2562DOPC   C4A30060   0.598   5.883  12.317 -0.2235 -0.2545  0.1268
 2562DOPC   C1B30061  -0.276   5.720  13.263  0.2532  0.1321  0.0176
 2562DOPC   D2B30062  -0.171   5.733  12.806 -0.0141  0.2747 -0.1837
 2562DOPC   C3B30063   0.117   5.726  12.457  0.0103  0.0519  0.1003
 2562DOPC   C4B30064   0.325   5.381  12.227 -0.2530  0.1870 -0.2148
 2563POSM   NC330065  33.298   6.690  13.887 -0.0068 -0.0662  0.2470
 2563POSM   PO430066  33.050   6.787  14.160 -0.2769  0.1010  0.3423
 2563POSM   AM130067  32.855   6.661  13.958  0.2970  0.1957 -0.1641
 2563POSM   AM230068  32.625   6.652  13.822 -0.3526 -0.2000 -0.1058
 2563POSM   T1A30069  32.939   6.558  13.465 -0.1139 -0.1651  0.1274
 2563POSM   C2A30070  32.671   6.334  13.169  0.0685  0.0862  0.1475
 2563POSM   C3A30071  32.380   5.972  13.029  0.2347  0.2217  0.0058
 2563POSM   C1B30072  32.414   6.517  13.571  0.1931  0.1427 -0.1336
 2563POSM   D2B30073  32.116   6.369  13.209  0.0582 -0.3724 -0.2314
 2563POSM   C3B30074  32.195   6.354  12.770  0.4077 -0.0365 -0.0838
 2563POSM   C4B30075  32.325   6.625  12.362 -0.0819 -0.2029 -0.0643
 2564DOPS   CNO30076  28.334   8.345  15.323 -0.3490  0.0174  0.0047
 2564DOPS   PO430077  27.999   8.217  15.258  0.1641 -0.1194 -0.4394
 2564DOPS   GL130078  28.153   8.097  14.860 -0.1552 -0.3394  0.1852
 2564DOPS   GL230079  28.458   8.216  14.853  0.0660 -0.2035  0.0217
 2564DOPS   C1A30080  27.904   7.870  14.525  0.1801  0.0320  0.2176
 2564DOPS   D2A30081  27.568   7.756  14.227  0.0670 -0.0105  0.2084
 2564DOPS   C3A30082  27.705   7.492  13.889 -0.1089  0.1214  0.3984
 2564DOPS   C4A30083  27.914   7.467  13.439 -0.0850 -0.3453  0.0677
 2564DOPS   C1B30084  28.412   7.811  14.616 -0.0967 -0.3484 -0.6175
 2564DOPS   D2B30085  28.318   7.537  14.263  0.0240 -0.1740 -0.2087
 2564DOPS   C3B30086  28.418   7.595  13.836  0.2489 -0.0370 -0.0003
 2564DOPS   C4B30087  28.395   7.329  13.466 -0.3044 -0.1757  0.2101
 2565DOPS   CNO30088  23.677   9.680  14.585  0.2080  0.0240 -0.0369
 2565DOPS   PO430089  23.768   9.525  14.263  0.2085  0.1480  0.0204
 2565DOPS   GL130090  23.948   9.574  13.912 -0.0288  0.0708  0.1953
 2565DOPS   GL230091  24.127   9.794  13.858 -0.3417  0.1511 -0.1397
 2565DOPS   C1A30092  23.772   9.581  13.511 -0.0118  0.2264 -0.1353
 2565DOPS   D2A30093  23.546   9.367  13.173  0.0613 -0.1472 -0.0154
 2565DOPS   C3A30094  23.684   9.286  12.714  0.2094 -0.2632  0.2699
 2565DOPS   C4A30095  23.891   9.579  12.399  0.1196 -0.0364  0.0647
 2565DOPS   C1B30096  24.063  10.012  13.514 -0.1779 -0.1613 -0.1271
 2565DOPS   D2B30097  24.009  10.048  13.032 -0.0678 -0.0501  0.2349
 2565DOPS   C3B30098  23.699   9.884  12.750  0.4974 -0.0233 -0.1346
 2565DOPS   C4B30099  23.324   9.627  12.698  0.0624 -0.1987 -0.0768
 2566DOPS   CNO30100  29.047   9.586  14.819 -0.3476 -0.0083 -0.0581
 2566DOPS   PO430101  28.683   9.590  14.871 -0.1726 -0.0451  0.1276
 2566DOPS   GL130102  28.449   9.423  14.484  0.1404  0.0077  0.0733
 2566DOPS   GL230103  28.593   9.477  14.221 -0.1141  0.0504 -0.0311
 2566DOPS   C1A30104  28.068   9.241  14.252 -0.0432  0.3419 -0.0921
 2566DOPS   D2A30105  27.797   8.866  14.062  0.3534 -0.0468  0.3544
 2566DOPS   C3A30106  27.720   8.556  13.712 -0.1768 -0.0677  0.0413
 2566DOPS   C4A30107  27.650   8.399  13.325 -0.1119 -0.0287  0.4316
 2566DOPS   C1B30108  28.811   9.729  13.837  0.0177  0.0285 -0.1597
 2566DOPS   D2B30109  28.761   9.676  13.405 -0.0581 -0.0655 -0.1073
 2566DOPS   C3B30110  29.040   9.305  13.280 -0.1749  0.0355 -0.3220
 2566DOPS   C4B30111  29.104   8.826  13.436 -0.1795  0.0860  0.0869
 2567POSM   NC330112  34.608   4.549  14.061 -0.0897  0.1142 -0.0533
 2567POSM   PO430113  34.245   4.621  14.238  0.3066  0.1385 -0.2160
 2567POSM   AM130114  34.103   4.502  13.992 -0.0954 -0.1233 -0.0405
 2567POSM   AM230115  34.218   4.376  13.727 -0.1966 -0.3746  0.2163
 2567POSM   T1A30116  33.752   4.191  13.807  0.3611  0.0376  0.1288
 2567POSM   C2A30117  33.428   3.849  13.721  0.1135  0.2635  0.0141
 2567POSM   C3A30118  33.518   3.420  13.716 -0.1252  0.0763 -0.2973
 2567POSM   C1B30119  34.456   4.404  13.511 -0.0554 -0.1995  0.0502
 2567POSM   D2B30120  34.511   4.322  13.023 -0.1089 -0.1901 -0.2463
 2567POSM   C3B30121  34.307   4.454  12.638  0.1128 -0.2515  0.0603
 2567POSM   C4B30122  34.311   4.305  12.229  0.0216 -0.0710 -0.0124
 2568DOPE   NH330123  33.202   8.671  14.243 -0.0353  0.1851  0.5663
 2568DOPE   PO430124  33.177   8.996  14.199 -0.5032  0.2269  0.1868
 2568DOPE   GL130125  33.046   8.973  13.766 -0.1566 -0.3133  0.2730
 2568DOPE   GL230126  32.864   8.709  13.789 -0.0569 -0.0655 -0.1800
 2568DOPE   C1A30127  33.313   8.920  13.408 -0.1052  0.2486 -0.1614
 2568DOPE   D2A30128  33.394   8.946  12.922  0.1945  0.0318  0.3078
 2568DOPE   C3A30129  33.146   8.817  12.567 -0.4155  0.0790 -0.2006
 2568DOPE   C4A30130  32.859   8.482  12.343 -0.0745 -0.0529  0.0919
 2568DOPE   C1B30131  32.448   8.701  13.435  0.2079 -0.1979 -0.0366
 2568DOPE   D2B30132  32.091   8.746  13.156 -0.0670  0.2651  0.1549
 2568DOPE   C3B30133  32.031   8.673  12.727 -0.0023  0.0260 -0.1306
 2568DOPE   C4B30134  31.678   8.850  12.463  0.1703 -0.0922  0.2375
 2569POSM   NC330135  26.390   5.046  15.232  0.0159  0.0043 -0.1781
 2569POSM   PO430136  26.770   5.204  15.252  0.0913 -0.1351 -0.2155
 2569POSM   AM130137  26.743   5.159  14.930 -0.1270 -0.1827 -0.1283
 2569POSM   AM230138  26.555   4.957  14.772  0.2220  0.0720  0.3365
 2569POSM   T1A30139  26.938   5.217  14.467  0.0563 -0.2027  0.2496
 2569POSM   C2A30140  26.797   5.076  14.070  0.0043 -0.1027 -0.0194
 2569POSM   C3A30141  26.655   5.190  13.689 -0.1500 -0.1895 -0.0114
 2569POSM   C1B30142  26.465   4.893  14.439  0.1427 -0.4562 -0.0026
 2569POSM   D2B30143  26.339   4.676  14.056  0.2070 -0.0316 -0.1220
 2569POSM   C3B30144  26.211   4.903  13.630 -0.2622 -0.0270 -0.1418
 2569POSM   C4B30145  26.055   5.058  13.256  0.1744 -0.1160  0.0501
 2570DOPS   CNO30146  27.957   5.976  15.179 -0.1200  0.1760 -0.0019
 2570DOPS   PO430147  28.267   5.858  15.390 -0.2623  0.1686 -0.0255
 2570DOPS   GL130148  28.540   5.963  15.143  0.3594 -0.0352  0.1697
 2570DOPS   GL230149  28.358   6.027  14.858  0.2068 -0.4983  0.0318
 2570DOPS   C1A30150  28.970   6.189  14.991 -0.1070 -0.1060  0.1392
 2570DOPS   D2A30151  29.377   6.118  14.725  0.0946 -0.0800  0.0244
 2570DOPS   C3A30152  29.223   6.262  14.262  0.2161  0.0859 -0.0192
 2570DOPS   C4A30153  29.104   6.268  13.818  0.2154 -0.0178 -0.2058
 2570DOPS   C1B30154  28.031   5.887  14.553 -0.0233  0.1571 -0.1745
 2570DOPS   D2B30155  27.702   5.746  14.353  0.0030 -0.2366 -0.1318
 2570DOPS   C3B30156  27.677   5.747  13.948  0.0907  0.0360  0.2336
 2570DOPS   C4B30157  27.800   5.588  13.511 -0.0808  0.2217 -0.1389
 2571POSM   NC330158   1.874   4.471  14.704 -0.2888 -0.1674  0.2047
 2571POSM   PO430159   1.654   4.572  14.422  0.0257  0.1103  0.1209
 2571POSM   AM130160   1.501   4.521  14.103 -0.2795 -0.1436 -0.4463
 2571POSM   AM230161   1.253   4.398  13.966 -0.0529 -0.4191 -0.0220
 2571POSM   T1A30162   1.482   4.540  13.589  0.0045  0.0488 -0.0337
 2571POSM   C2A30163   1.572   4.449  13.157  0.0337 -0.0467 -0.2133
 2571POSM   C3A30164   1.393   4.526  12.721 -0.0859 -0.0756  0.0962
 2571POSM   C1B30165   1.010   4.549  13.774  0.0393 -0.2790 -0.4501
 2571POSM   D2B30166   1.037   4.892  13.489 -0.0200 -0.0794 -0.1271
 2571POSM   C3B30167   1.071   4.942  13.013  0.0495  0.0167  0.2642
 2571POSM   C4B30168   0.968   4.982  12.594  0.0550 -0.0729 -0.0759
 2572POSM   NC330169  29.947   2.765  14.431  0.3063  0.0202  0.1418
 2572POSM   PO430170  29.693   3.053  14.452 -0.0407  0.0563 -0.1616
 2572POSM   AM130171  29.661   3.059  14.133 -0.4358  0.1413 -0.2054
 2572POSM   AM230172  29.420   3.054  13.959 -0.0045 -0.1832 -0.0555
 2572POSM   T1A30173  29.802   3.324  13.768  0.1643 -0.3395 -0.0810
 2572POSM   C2A30174  29.798   3.742  13.435 -0.1385  0.3749 -0.0185
 2572POSM   C3A30175  29.777   4.139  13.213 -0.2527  0.1754  0.0165
 2572POSM   C1B30176  29.438   2.991  13.580 -0.1859  0.2877 -0.0730
 2572POSM   D2B30177  29.169   3.027  13.176  0.0149 -0.2354  0.1106
 2572POSM   C3B30178  29.412   2.973  12.836  0.0474 -0.1525  0.4102
 2572POSM   C4B30179  29.590   3.004  12.452 -0.0923 -0.0185  0.4105
 2573POSM   NC330180  24.224  11.299  14.307 -0.3385 -0.0851 -0.0718
 2573POSM   PO430181  24.591  11.402  14.279 -0.0293 -0.2728 -0.1002
 2573POSM   AM130182  24.583  11.188  14.013  0.1416 -0.0636 -0.0614
 2573POSM   AM230183  24.378  10.971  13.927 -0.2115  0.0536 -0.3098
 2573POSM   T1A30184  24.742  10.911  13.576  0.2119  0.2861 -0.0260
 2573POSM   C2A30185  24.733  10.653  13.210  0.0392  0.1388  0.0858
 2573POSM   C3A30186  24.891  10.578  12.728  0.3024  0.1387 -0.0431
 2573POSM   C1B30187  24.201  10.946  13.582  0.1149  0.0591 -0.1792
 2573POSM   D2B30188  24.384  10.997  13.166  0.0064  0.1394  0.0478
 2573POSM   C3B30189  24.503  10.925  12.711  0.0396 -0.0509  0.0770
 2573POSM   C4B30190  24.425  10.632  12.337  0.2369  0.0334  0.0003
 2574DOPE   NH330191   0.704   6.108  14.055 -0.0599  0.0202 -0.0918
 2574DOPE   PO430192   0.797   5.922  13.829 -0.0491  0.0045  0.0829
 2574DOPE   GL130193   0.536   5.832  13.510  0.1989  0.0109 -0.2974
 2574DOPE   GL230194   0.750   5.874  13.369  0.1602  0.0431 -0.0849
 2574DOPE   C1A30195   0.198   6.021  13.241  0.0441  0.2201 -0.2422
 2574DOPE   D2A30196  -0.119   6.209  12.993 -0.0137 -0.0885  0.0114
 2574DOPE   C3A30197  -0.408   6.107  12.633  0.1590 -0.0691 -0.0464
 2574DOPE   C4A30198  -0.450   5.758  12.351  0.2474 -0.1823 -0.0293
 2574DOPE   C1B30199   0.763   5.850  12.979 -0.1185  0.1038 -0.1527
 2574DOPE   D2B30200   1.000   5.823  12.598  0.0854  0.1453  0.1061
 2574DOPE   C3B30201   1.108   5.446  12.383 -0.0365  0.0098 -0.0814
 2574DOPE   C4B30202   1.030   5.091  12.087  0.1205 -0.1674  0.0731
 2575DOPE   NH330203  24.213   9.387  14.273  0.0027 -0.0533  0.2345
 2575DOPE   PO430204  24.462   9.574  14.301 -0.0215  0.1142  0.0695
 2575DOPE   GL130205  24.455   9.473  13.862 -0.1391  0.2425  0.1785
 2575DOPE   GL230206  24.593   9.746  13.742 -0.2486  0.0861 -0.3641
 2575DOPE   C1A30207  24.272   9.439  13.442  0.0030  0.1821 -0.1201
 2575DOPE   D2A30208  23.988   9.549  13.051  0.0325 -0.0883  0.1446
 2575DOPE   C3A30209  24.268   9.450  12.683  0.0470 -0.0698  0.1473
 2575DOPE   C4A30210  24.571   9.310  12.346 -0.3393  0.2496  0.1642
 2575DOPE   C1B30211  24.862   9.576  13.430 -0.2740 -0.0036  0.0082
 2575DOPE   D2B30212  25.238   9.451  13.199 -0.0484  0.0932  0.1230
 2575DOPE   C3B30213  25.277   9.845  12.981 -0.0226  0.1603 -0.1338
 2575DOPE   C4B30214  25.313  10.309  12.786  0.0934 -0.0943 -0.0446
 2576DOPS   CNO30215   1.988  33.858  14.264 -0.0176 -0.0253 -0.0319
 2576DOPS   PO430216   2.324  34.005  14.183 -0.0091 -0.1630 -0.0390
 2576DOPS   GL130217   2.504  34.127  13.860 -0.2769  0.0365 -0.0303
 2576DOPS   GL230218   2.426  33.891  13.667 -0.1317  0.0212  0.1141
 2576DOPS   C1A30219   2.911  34.181  13.632  0.2843 -0.1202  0.2854
 2576DOPS   D2A30220   2.976  34.106  13.182 -0.0918 -0.1321  0.2039
 2576DOPS   C3A30221   2.882  34.059  12.769  0.1153 -0.1122  0.0482
 2576DOPS   C4A30222   2.873  33.820  12.356 -0.0890 -0.0288 -0.0596
 2576DOPS   C1B30223   2.516  34.201  13.346 -0.2027 -0.0642 -0.2386
 2576DOPS   D2B30224   2.611  34.402  13.023  0.0867  0.4304  0.0066
 2576DOPS   C3B30225   2.331  34.670  12.719 -0.0448  0.1950  0.1687
 2576DOPS   C4B30226   2.466  35.137  12.661  0.4823 -0.1773  0.0598
 2577DOPS   CNO30227  20.411   6.574  14.414 -0.2759  0.0474  0.2044
 2577DOPS   PO430228  20.380   6.475  14.028  0.0279  0.1291  0.0677
 2577DOPS   GL130229  20.305   6.460  13.578  0.0744 -0.0651  0.1231
 2577DOPS   GL230230  19.995   6.427  13.605 -0.0482 -0.1661 -0.3724
 2577DOPS   C1A30231  20.295   6.043  13.312 -0.2211  0.1164  0.1354
 2577DOPS   D2A30232  20.315   5.619  13.147  0.0641 -0.5370  0.1662
 2577DOPS   C3A30233  20.187   5.635  12.674 -0.3455 -0.0112  0.0657
 2577DOPS   C4A30234  20.136   5.631  12.116 -0.0615  0.1479  0.0265
 2577DOPS   C1B30235  19.786   6.684  13.272 -0.2961  0.6913 -0.2124
 2577DOPS   D2B30236  19.530   6.839  12.870 -0.2229 -0.2007 -0.1154
 2577DOPS   C3B30237  19.871   7.130  12.722  0.2921 -0.1564 -0.2549
 2577DOPS   C4B30238  20.136   7.484  12.654  0.3919  0.1072  0.1081
 2578DOPE   NH330239  26.678   8.433  14.393 -0.2874 -0.1242 -0.1205
 2578DOPE   PO430240  26.588   8.722  14.370  0.0966  0.1327  0.0849
 2578DOPE   GL130241  26.548   8.891  14.128 -0.1841  0.2101  0.0013
 2578DOPE   GL230242  26.786   8.904  13.884  0.0085 -0.1085 -0.2664
 2578DOPE   C1A30243  26.220   9.040  13.806 -0.0824  0.0184  0.0421
 2578DOPE   D2A30244  25.980   9.228  13.465 -0.4208  0.1356  0.3406
 2578DOPE   C3A30245  25.862   9.592  13.192 -0.0437 -0.0715 -0.1106
 2578DOPE   C4A30246  25.693  10.013  13.174 -0.1468 -0.2355  0.1719
 2578DOPE   C1B30247  26.861   8.923  13.439  0.0719  0.2696  0.3099
 2578DOPE   D2B30248  26.811   8.911  13.010  0.1745  0.0103 -0.1445
 2578DOPE   C3B30249  26.592   8.571  12.851 -0.2138 -0.1960  0.1222
 2578DOPE   C4B30250  26.476   8.371  12.466 -0.0103 -0.2639  0.0476
 2579DOPC   NC330251  29.643  10.369  14.677 -0.0483  0.1092  0.3156
 2579DOPC   PO430252  29.315  10.093  14.640 -0.0260  0.1929  0.2514
 2579DOPC   GL130253  29.193  10.210  14.220  0.2503  0.1546  0.0786
 2579DOPC   GL230254  29.417  10.452  14.223 -0.0628 -0.1559 -0.1846
 2579DOPC   C1A30255  29.150  10.160  13.752  0.5703  0.0971 -0.0334
 2579DOPC   D2A30256  29.381  10.284  13.374  0.0579 -0.2621  0.3134
 2579DOPC   C3A30257  29.482  10.313  12.892  0.2440  0.1583  0.1851
 2579DOPC   C4A30258  29.225  10.605  12.666 -0.1482 -0.0637  0.2909
 2579DOPC   C1B30259  29.530  10.661  13.864 -0.3399 -0.0493 -0.1091
 2579DOPC   D2B30260  29.509  10.952  13.526 -0.0837  0.0296  0.1092
 2579DOPC   C3B30261  29.547  10.746  13.093  0.2609 -0.0044 -0.0728
 2579DOPC   C4B30262  29.712  10.738  12.683 -0.2540 -0.3334 -0.3580
 2580DOPE   NH330263  30.121   8.274  15.122 -0.1113  0.0806  0.0288
 2580DOPE   PO430264  29.838   8.343  15.063  0.0055  0.1817  0.2333
 2580DOPE   GL130265  29.755   8.353  14.714 -0.0320  0.0212  0.2840
 2580DOPE   GL230266  29.515   8.512  14.687  0.1816 -0.2078 -0.1500
 2580DOPE   C1A30267  29.887   8.598  14.384 -0.0683  0.1882 -0.0714
 2580DOPE   D2A30268  30.082   8.401  14.074  0.1873  0.0176  0.2090
 2580DOPE   C3A30269  29.954   8.048  13.805 -0.1670 -0.2029  0.1278
 2580DOPE   C4A30270  30.061   7.735  13.546 -0.0594  0.3586  0.0920
 2580DOPE   C1B30271  29.384   8.319  14.315 -0.3169  0.3936  0.2769
 2580DOPE   D2B30272  29.381   7.981  13.973 -0.1073 -0.2556 -0.0312
 2580DOPE   C3B30273  29.544   8.157  13.558  0.3124 -0.1574  0.0668
 2580DOPE   C4B30274  29.459   8.033  13.102  0.2454  0.2384  0.0511
 2581DOPC   NC330275  22.529   4.490  14.696  0.2755  0.1254 -0.0921
 2581DOPC   PO430276  22.884   4.378  14.803  0.2391 -0.0145  0.1619
 2581DOPC   GL130277  22.921   4.157  14.458 -0.3093 -0.0718  0.3467
 2581DOPC   GL230278  22.605   4.083  14.440  0.2284 -0.0067 -0.3652
 2581DOPC   C1A30279  22.892   4.139  14.017 -0.1576  0.0470 -0.1934
 2581DOPC   D2A30280  23.017   4.104  13.553 -0.0333 -0.0602  0.0501
 2581DOPC   C3A30281  22.832   3.730  13.298 -0.1262  0.1013 -0.1734
 2581DOPC   C4A30282  22.830   3.516  12.884  0.1616 -0.2082 -0.1027
 2581DOPC   C1B30283  22.398   3.970  14.040  0.2713 -0.0190 -0.0481
 2581DOPC   D2B30284  22.466   4.021  13.577 -0.0359 -0.4180 -0.0162
 2581DOPC   C3B30285  22.186   4.147  13.207  0.0004  0.0615  0.0721
 2581DOPC   C4B30286  21.920   4.369  12.857 -0.0274 -0.3434  0.1206
 2582DOPE   NH330287  32.163   4.783  14.479 -0.0772 -0.0665  0.0734
 2582DOPE   PO430288  31.967   4.533  14.451  0.0697  0.0003  0.0118
 2582DOPE   GL130289  31.938   4.206  14.139  0.3397  0.1858  0.0774
 2582DOPE   GL230290  31.608   4.167  14.038  0.1307 -0.4520  0.2042
 2582DOPE   C1A30291  32.093   3.905  13.863 -0.2080 -0.1032 -0.2251
 2582DOPE   D2A30292  32.160   3.470  13.591  0.1248  0.2018 -0.1115
 2582DOPE   C3A30293  32.094   3.366  13.171 -0.0317 -0.0484  0.2040
 2582DOPE   C4A30294  31.835   3.469  12.786  0.3978  0.1046  0.0006
 2582DOPE   C1B30295  31.715   4.134  13.656  0.0875  0.0240  0.2723
 2582DOPE   D2B30296  31.837   4.284  13.214  0.0454  0.0693  0.0422
 2582DOPE   C3B30297  31.400   4.306  13.000  0.0588 -0.2025 -0.1280
 2582DOPE   C4B30298  30.990   4.534  13.017  0.3279  0.0124  0.1739
 2583DOPE   NH330299   1.573   5.490  14.008  0.0794  0.2079  0.3126
 2583DOPE   PO430300   1.310   5.611  13.897 -0.1902  0.3000 -0.1111
 2583DOPE   GL130301   1.243   5.386  13.606 -0.0433  0.0445  0.0438
 2583DOPE   GL230302   1.113   5.466  13.377 -0.0732 -0.0091  0.0593
 2583DOPE   C1A30303   1.433   5.101  13.339 -0.0382  0.0371  0.1368
 2583DOPE   D2A30304   1.581   4.978  12.914 -0.2594  0.2198 -0.0966
 2583DOPE   C3A30305   1.420   5.118  12.555 -0.1749  0.4463 -0.1403
 2583DOPE   C4A30306   1.544   5.150  12.111  0.1097  0.2613  0.2813
 2583DOPE   C1B30307   1.255   5.864  13.125 -0.0472 -0.2112  0.1388
 2583DOPE   D2B30308   1.273   6.218  12.806 -0.3281  0.2547  0.1857
 2583DOPE   C3B30309   1.054   6.294  12.408 -0.3414 -0.0763  0.1459
 2583DOPE   C4B30310   0.703   6.387  12.129  0.1945 -0.0230  0.0478
 2584DOPC   NC330311  26.943   0.250  15.108 -0.1518  0.0966  0.4691
 2584DOPC   PO430312  27.139   0.534  15.276 -0.0341  0.0764  0.2565
 2584DOPC   GL130313  26.974   0.753  14.993 -0.1165 -0.0765  0.0676
 2584DOPC   GL230314  27.152   0.801  14.818  0.1689 -0.0506  0.0414
 2584DOPC   C1A30315  26.657   0.774  14.648 -0.0787 -0.1422 -0.3570
 2584DOPC   D2A30316  26.716   0.633  14.184 -0.0062 -0.0693  0.2136
 2584DOPC   C3A30317  26.607   0.556  13.758 -0.2230 -0.0803 -0.1092
 2584DOPC   C4A30318  26.807   0.504  13.343  0.2583 -0.2947 -0.0756
 2584DOPC   C1B30319  27.218   1.216  14.549 -0.2925  0.1022 -0.0541
 2584DOPC   D2B30320  27.590   1.458  14.575  0.1079  0.0017  0.0600
 2584DOPC   C3B30321  27.923   1.369  14.307  0.0786  0.0917  0.0666
 2584DOPC   C4B30322  28.180   1.227  13.870  0.4074  0.0922  0.0276
 2585DOPC   NC330323  34.096   2.782  14.430  0.0970  0.0476 -0.1593
 2585DOPC   PO430324  34.180   2.392  14.425 -0.4425 -0.2644  0.0189
 2585DOPC   GL130325  34.378   2.259  13.986  0.0424  0.2233 -0.1169
 2585DOPC   GL230326  34.324   2.020  13.835  0.1297  0.0073  0.3773
 2585DOPC   C1A30327  34.637   2.333  13.586  0.1321 -0.1429  0.3512
 2585DOPC   D2A30328  34.614   2.218  13.187 -0.1479 -0.1190  0.0219
 2585DOPC   C3A30329  34.265   2.265  12.847  0.2966  0.2614 -0.4240
 2585DOPC   C4A30330  34.028   2.118  12.469 -0.2840  0.0007  0.3385
 2585DOPC   C1B30331  34.285   1.926  13.381 -0.0222  0.1138  0.0402
 2585DOPC   D2B30332  34.096   1.724  12.996 -0.3487 -0.1411 -0.1066
 2585DOPC   C3B30333  34.535   1.758  12.787 -0.0700 -0.2284  0.2796
 2585DOPC   C4B30334  34.824   1.689  12.389 -0.0643  0.1494 -0.2330
 2586DOPE   NH330335  33.031   2.884  14.505  0.0079  0.0646 -0.2721
 2586DOPE   PO430336  32.818   2.688  14.535  0.0132 -0.1941  0.0615
 2586DOPE   GL130337  32.674   2.787  14.129  0.2234  0.0262  0.2133
 2586DOPE   GL230338  32.912   2.803  13.992 -0.2664 -0.3976 -0.1676
 2586DOPE   C1A30339  32.582   2.552  13.687 -0.1589 -0.0270  0.0022
 2586DOPE   D2A30340  32.774   2.314  13.366  0.2347  0.0324 -0.1290
 2586DOPE   C3A30341  32.762   2.602  13.088 -0.0239 -0.2765  0.0437
 2586DOPE   C4A30342  32.899   2.907  12.794  0.1079 -0.1097  0.0675
 2586DOPE   C1B30343  32.866   2.914  13.560  0.2590  0.1284 -0.0718
 2586DOPE   D2B30344  33.013   3.125  13.242 -0.0749 -0.0351  0.4568
 2586DOPE   C3B30345  33.487   3.086  13.226  0.2290 -0.1656 -0.0548
 2586DOPE   C4B30346  33.913   2.997  13.429  0.1199  0.1152 -0.2842
 2587DOPE   NH330347  32.522   6.587  14.349 -0.0921 -0.2374 -0.1605
 2587DOPE   PO430348  32.730   6.325  14.304 -0.0678 -0.1617 -0.1434
 2587DOPE   GL130349  32.418   6.189  14.011 -0.3170  0.0474 -0.1584
 2587DOPE   GL230350  32.193   6.193  14.133 -0.2479  0.3186  0.0605
 2587DOPE   C1A30351  32.345   6.046  13.584  0.3576  0.1520  0.4450
 2587DOPE   D2A30352  31.976   5.849  13.365 -0.1012  0.3784 -0.1344
 2587DOPE   C3A30353  31.958   5.582  12.981  0.2252 -0.3121 -0.2702
 2587DOPE   C4A30354  31.823   5.412  12.581 -0.0371  0.1638 -0.0301
 2587DOPE   C1B30355  31.924   6.018  13.833  0.1329 -0.2098 -0.4143
 2587DOPE   D2B30356  31.776   6.373  13.527  0.1222  0.2599 -0.3723
 2587DOPE   C3B30357  31.973   6.773  13.465  0.3802  0.0684  0.0457
 2587DOPE   C4B30358  32.118   7.168  13.215  0.2607  0.1100  0.0461
 2588DOPS   CNO30359  20.840   6.916  13.797 -0.1532  0.3638  0.0410
 2588DOPS   PO430360  20.749   6.670  13.508  0.2930 -0.0088 -0.2553
 2588DOPS   GL130361  20.513   6.715  13.229  0.0364 -0.1119  0.1393
 2588DOPS   GL230362  20.732   6.905  13.022 -0.1674 -0.1599 -0.1051
 2588DOPS   C1A30363  20.142   6.634  12.953 -0.1944 -0.1310  0.2816
 2588DOPS   D2A30364  19.814   6.410  12.674  0.1851 -0.1192  0.1263
 2588DOPS   C3A30365  19.960   6.036  12.321  0.0836  0.1957 -0.1495
 2588DOPS   C4A30366  19.769   6.083  11.891 -0.2049 -0.1969  0.0790
 2588DOPS   C1B30367  20.556   6.762  12.605 -0.2137 -0.2625 -0.0947
 2588DOPS   D2B30368  20.142   6.772  12.397 -0.1572 -0.1349 -0.1216
 2588DOPS   C3B30369  19.863   6.514  12.130 -0.2185  0.1827 -0.2234
 2588DOPS   C4B30370  19.465   6.712  11.944 -0.1682 -0.2983  0.1771
 2589POSM   NC330371  30.901  10.625  14.452 -0.0833  0.0100 -0.0621
 2589POSM   PO430372  30.809  10.257  14.589  0.3123 -0.2876 -0.0504
 2589POSM   AM130373  30.764  10.124  14.288 -0.2004 -0.1246 -0.0016
 2589POSM   AM230374  30.618   9.891  14.188 -0.0077  0.3704 -0.2715
 2589POSM   T1A30375  30.839  10.064  13.772  0.0303  0.1693  0.2049
 2589POSM   C2A30376  30.641   9.899  13.366  0.2462  0.0948 -0.1954
 2589POSM   C3A30377  30.353   9.888  12.992 -0.0644 -0.2596 -0.0864
 2589POSM   C1B30378  30.573   9.708  13.909 -0.0514  0.0371 -0.1790
 2589POSM   D2B30379  30.662   9.431  13.600 -0.0775  0.0705 -0.2146
 2589POSM   C3B30380  30.333   9.447  13.287 -0.0900 -0.0353  0.1950
 2589POSM   C4B30381  30.097   9.477  12.906 -0.1500  0.3543  0.0145
 2590DOPC   NC330382  21.230   6.656  13.735  0.1977  0.0136  0.0919
 2590DOPC   PO430383  21.374   6.939  13.944  0.2339  0.4321  0.4312
 2590DOPC   GL130384  21.689   6.794  13.664  0.0476  0.1762  0.1526
 2590DOPC   GL230385  21.997   6.948  13.578  0.0158 -0.3712 -0.0672
 2590DOPC   C1A30386  21.478   6.745  13.287  0.1951  0.1340  0.1573
 2590DOPC   D2A30387  21.276   6.957  12.928 -0.0957  0.0122  0.0067
 2590DOPC   C3A30388  21.165   6.856  12.500  0.1907  0.0374 -0.0822
 2590DOPC   C4A30389  21.138   6.960  12.047  0.1486 -0.2364  0.0798
 2590DOPC   C1B30390  22.277   6.961  13.254  0.1241 -0.2034  0.1297
 2590DOPC   D2B30391  22.323   6.879  12.814 -0.2407 -0.1562  0.1866
 2590DOPC   C3B30392  22.009   6.820  12.428 -0.0411 -0.2139 -0.0699
 2590DOPC   C4B30393  22.141   6.711  11.998 -0.3738  0.0920  0.3920
 2591DOPC   NC330394  24.645   2.485  14.972 -0.1297 -0.1783  0.0441
 2591DOPC   PO430395  25.002   2.660  14.990 -0.0115 -0.2206  0.1109
 2591DOPC   GL130396  25.134   2.806  14.614 -0.1323 -0.1989  0.1576
 2591DOPC   GL230397  25.332   2.582  14.577  0.1718  0.0370  0.1172
 2591DOPC   C1A30398  25.197   2.888  14.186 -0.0980 -0.0441 -0.1025
 2591DOPC   D2A30399  25.121   2.621  13.830 -0.3179 -0.1311  0.2100
 2591DOPC   C3A30400  24.741   2.487  13.631  0.0752  0.0603 -0.0163
 2591DOPC   C4A30401  24.344   2.309  13.474  0.3428 -0.0940  0.1810
 2591DOPC   C1B30402  24.922   2.410  14.344  0.0873  0.2597  0.1910
 2591DOPC   D2B30403  24.624   2.224  14.027 -0.0699 -0.1833 -0.0786
 2591DOPC   C3B30404  24.202   2.005  14.109  0.3857  0.2177 -0.0845
 2591DOPC   C4B30405  23.829   2.140  14.332 -0.1155  0.2219  0.0543
 2592DOPS   CNO30406  28.538   2.615  15.255 -0.1776  0.4491 -0.0528
 2592DOPS   PO430407  28.246   2.722  15.089  0.2354 -0.3132  0.2101
 2592DOPS   GL130408  28.123   2.677  14.646  0.4478 -0.1175 -0.0442
 2592DOPS   GL230409  27.903   2.833  14.581  0.0962  0.0266 -0.2805
 2592DOPS   C1A30410  28.419   2.417  14.386  0.0490 -0.0445 -0.1195
 2592DOPS   D2A30411  28.532   2.087  14.085  0.0234 -0.0152 -0.0134
 2592DOPS   C3A30412  28.662   2.152  13.651  0.0258  0.0694 -0.1021
 2592DOPS   C4A30413  28.907   2.161  13.247  0.1205  0.2159  0.0093
 2592DOPS   C1B30414  27.456   2.793  14.496  0.0857 -0.0430 -0.3657
 2592DOPS   D2B30415  27.059   2.648  14.614  0.0229 -0.1654  0.2020
 2592DOPS   C3B30416  26.804   2.251  14.461  0.1689  0.0148  0.1057
 2592DOPS   C4B30417  26.639   2.052  14.116 -0.2725 -0.0967 -0.0968
 2593DOPC   NC330418   1.016  10.757  14.715 -0.1785  0.2592 -0.0915
 2593DOPC   PO430419   0.679  10.523  14.760  0.0280  0.3740  0.2136
 2593DOPC   GL130420   0.662  10.647  14.415 -0.1163 -0.2171  0.3219
 2593DOPC   GL230421   0.544  10.925  14.407  0.0358 -0.0428 -0.2453
 2593DOPC   C1A30422   0.256  10.622  14.088 -0.2397 -0.0779 -0.1400
 2593DOPC   D2A30423   0.134  10.430  13.677  0.0167 -0.1759 -0.0531
 2593DOPC   C3A30424   0.264  10.337  13.234 -0.1565  0.0697  0.0654
 2593DOPC   C4A30425   0.605  10.328  12.893  0.1301  0.1325  0.0826
 2593DOPC   C1B30426   0.346  11.096  14.021  0.2495 -0.1387 -0.0888
 2593DOPC   D2B30427   0.257  10.910  13.554 -0.1322  0.0546 -0.1665
 2593DOPC   C3B30428   0.203  11.250  13.234  0.0773  0.2494  0.1973
 2593DOPC   C4B30429   0.098  11.292  12.773  0.0304 -0.2111 -0.0579
 2594POSM   NC330430  33.273   4.600  14.303 -0.1023  0.1163 -0.0102
 2594POSM   PO430431  33.310   4.219  14.345  0.1286 -0.0331  0.1351
 2594POSM   AM130432  33.317   4.219  14.007 -0.1173  0.0961  0.0054
 2594POSM   AM230433  33.242   4.404  13.786  0.2091 -0.0304  0.1973
 2594POSM   T1A30434  32.936   4.065  13.726  0.0380 -0.1929  0.2102
 2594POSM   C2A30435  32.503   4.050  13.611 -0.2669 -0.1723 -0.2181
 2594POSM   C3A30436  32.261   3.953  13.233 -0.2055 -0.1969 -0.1596
 2594POSM   C1B30437  33.359   4.500  13.500  0.1477  0.0880 -0.0451
 2594POSM   D2B30438  33.541   4.456  13.024  0.0112  0.0523 -0.2305
 2594POSM   C3B30439  33.867   4.215  12.809 -0.2148 -0.0624  0.0314
 2594POSM   C4B30440  33.907   4.008  12.357 -0.1922 -0.3397  0.0177
 2595DOPC   NC330441  32.278   1.788  14.778 -0.0605 -0.0990 -0.4868
 2595DOPC   PO430442  32.613   1.602  14.573  0.1223 -0.3700  0.3924
 2595DOPC   GL130443  32.470   1.565  14.247  0.1916 -0.0395  0.2485
 2595DOPC   GL230444  32.712   1.601  14.030  0.2579 -0.1001 -0.0968
 2595DOPC   C1A30445  32.275   1.300  13.943 -0.1807 -0.0962 -0.2565
 2595DOPC   D2A30446  32.171   0.878  13.764 -0.0805  0.3533  0.4890
 2595DOPC   C3A30447  32.151   0.777  13.285  0.0377 -0.2164  0.0472
 2595DOPC   C4A30448  32.139   0.573  12.894  0.0554 -0.1521  0.4572
 2595DOPC   C1B30449  32.604   1.513  13.574  0.0656  0.2030 -0.1699
 2595DOPC   D2B30450  32.320   1.256  13.293 -0.1743 -0.0259  0.2452
 2595DOPC   C3B30451  32.126   1.625  13.054  0.0292  0.0462 -0.3331
 2595DOPC   C4B30452  32.077   2.050  13.290 -0.2262 -0.1956  0.0452
 2596DOPC   NC330453  31.301   0.847  15.112 -0.1048 -0.0748 -0.0204
 2596DOPC   PO430454  31.653   0.780  15.000 -0.1653  0.2250 -0.0244
 2596DOPC   GL130455  31.521   0.569  14.688 -0.2064 -0.2387  0.1640
 2596DOPC   GL230456  31.297   0.468  14.784 -0.2698  0.0190 -0.2475
 2596DOPC   C1A30457  31.299   0.686  14.233  0.1952  0.1704 -0.1083
 2596DOPC   D2A30458  31.204   0.565  13.795 -0.0320  0.0094  0.1524
 2596DOPC   C3A30459  30.851   0.567  13.487  0.0538 -0.2349 -0.3007
 2596DOPC   C4A30460  30.583   0.769  13.161  0.3098 -0.0048  0.0682
 2596DOPC   C1B30461  31.123   0.219  14.414 -0.0051  0.2146 -0.0097
 2596DOPC   D2B30462  30.888   0.264  14.041 -0.1921 -0.2079 -0.1157
 2596DOPC   C3B30463  30.931   0.096  13.640 -0.1670 -0.0640  0.2703
 2596DOPC   C4B30464  30.583   0.226  13.296  0.0780 -0.1912  0.0084
 2597DOPE   NH330465  27.625   1.923  14.806  0.0785  0.0496  0.1162
 2597DOPE   PO430466  27.888   1.815  14.987 -0.1812 -0.2154 -0.0520
 2597DOPE   GL130467  28.059   1.736  14.586  0.2066  0.2021  0.2155
 2597DOPE   GL230468  28.239   1.988  14.550 -0.2811 -0.0361  0.1112
 2597DOPE   C1A30469  28.364   1.585  14.186 -0.2876  0.1834 -0.0758
 2597DOPE   D2A30470  28.298   1.674  13.734 -0.0624  0.1389 -0.0005
 2597DOPE   C3A30471  27.875   1.828  13.709 -0.0412  0.2376 -0.0029
 2597DOPE   C4A30472  27.498   2.066  13.585 -0.2188  0.1081 -0.3502
 2597DOPE   C1B30473  27.954   1.914  14.193 -0.4268  0.2118  0.0066
 2597DOPE   D2B30474  27.513   1.760  14.067 -0.0030 -0.0699 -0.0469
 2597DOPE   C3B30475  27.487   1.338  13.926  0.0964  0.0041 -0.1169
 2597DOPE   C4B30476  27.525   1.009  13.624  0.1073 -0.2885 -0.1242
 2598POSM   NC330477   0.484   1.516  14.273 -0.1931  0.1392  0.1221
 2598POSM   PO430478   0.312   1.218  14.074  0.0177  0.0927 -0.5039
 2598POSM   AM130479   0.191   1.296  13.770  0.2396  0.0367 -0.1585
 2598POSM   AM230480  -0.060   1.149  13.704  0.1604 -0.1199  0.0605
 2598POSM   T1A30481   0.224   1.458  13.329  0.1655 -0.2113 -0.2692
 2598POSM   C2A30482   0.193   1.416  12.862  0.1390  0.0157 -0.3390
 2598POSM   C3A30483   0.181   1.009  12.575  0.0230  0.0026 -0.0708
 2598POSM   C1B30484  -0.308   1.006  13.542  0.0146 -0.0009 -0.1515
 2598POSM   D2B30485  -0.502   0.709  13.283  0.1150  0.1467  0.0703
 2598POSM   C3B30486  -0.281   0.612  12.886  0.1353  0.1470 -0.1908
 2598POSM   C4B30487   0.137   0.457  12.623 -0.0097 -0.1749 -0.0418
 2599POSM   NC330488  24.346   6.025  14.624  0.1872 -0.0564 -0.0529
 2599POSM   PO430489  24.473   6.283  14.936 -0.1541 -0.0960  0.0726
 2599POSM   AM130490  24.649   6.364  14.669  0.1025  0.0738 -0.0601
 2599POSM   AM230491  24.825   6.206  14.501  0.1600 -0.1439 -0.0509
 2599POSM   T1A30492  24.772   6.677  14.271 -0.0063 -0.0623  0.1301
 2599POSM   C2A30493  24.858   6.786  13.830  0.2751 -0.0978 -0.1546
 2599POSM   C3A30494  25.009   7.005  13.354 -0.0545  0.1761 -0.0326
 2599POSM   C1B30495  24.862   6.198  14.198 -0.0913 -0.2883 -0.0558
 2599POSM   D2B30496  24.737   6.025  13.817  0.0270 -0.1355  0.0173
 2599POSM   C3B30497  24.549   6.277  13.509 -0.3245 -0.3452 -0.0153
 2599POSM   C4B30498  24.603   6.733  13.407 -0.0485  0.0095 -0.0449
 2600DOPE   NH330499  22.563   0.829  15.421  0.1350 -0.0632 -0.0847
 2600DOPE   PO430500  22.633   0.577  15.389  0.0138  0.2798  0.2236
 2600DOPE   GL130501  22.786   0.531  15.058 -0.2956  0.2715 -0.0653
 2600DOPE   GL230502  22.904   0.264  14.957 -0.0078 -0.0050 -0.2741
 2600DOPE   C1A30503  22.892   0.728  14.667  0.0048  0.0396  0.0814
 2600DOPE   D2A30504  23.100   0.866  14.234 -0.1657  0.1829 -0.0089
 2600DOPE   C3A30505  22.896   1.085  13.876 -0.1504 -0.2259  0.0699
 2600DOPE   C4A30506  22.886   0.872  13.448  0.2870 -0.1646 -0.1372
 2600DOPE   C1B30507  22.815   0.198  14.518 -0.0226  0.1733 -0.2803
 2600DOPE   D2B30508  23.021   0.138  14.039 -0.1500  0.0331 -0.1952
 2600DOPE   C3B30509  22.765  -0.135  13.796  0.0533 -0.1153 -0.0334
 2600DOPE   C4B30510  22.894  -0.300  13.370 -0.0530  0.1492 -0.1421
 2601POSM   NC330511  23.317   2.389  15.185 -0.1108  0.1243  0.1150
 2601POSM   PO430512  23.407   2.721  15.350 -0.1249  0.0541 -0.0823
 2601POSM   AM130513  23.527   2.756  15.046 -0.0919 -0.0644 -0.3475
 2601POSM   AM230514  23.793   2.779  14.940  0.1144  0.1148 -0.1572
 2601POSM   T1A30515  23.465   2.540  14.597  0.1731 -0.0485 -0.2294
 2601POSM   C2A30516  23.420   2.468  14.153  0.1198  0.0108  0.2945
 2601POSM   C3A30517  23.375   2.436  13.670 -0.2051 -0.3076 -0.0527
 2601POSM   C1B30518  23.850   2.866  14.625 -0.0318  0.1329 -0.2196
 2601POSM   D2B30519  23.794   2.793  14.174  0.0656 -0.3871  0.0032
 2601POSM   C3B30520  23.615   2.956  13.820  0.1438 -0.1325  0.2322
 2601POSM   C4B30521  23.402   2.933  13.385  0.1019 -0.2433  0.0211
 2602DOPE   NH330522  29.805  12.848  14.150 -0.0075  0.2212 -0.0859
 2602DOPE   PO430523  29.752  12.606  14.371 -0.0237 -0.3379  0.0938
 2602DOPE   GL130524  29.797  12.399  13.985 -0.1066 -0.3989  0.0889
 2602DOPE   GL230525  29.624  12.277  13.821  0.1994  0.0450  0.1724
 2602DOPE   C1A30526  29.930  12.606  13.615 -0.3414 -0.1803  0.0318
 2602DOPE   D2A30527  29.793  12.921  13.276  0.0169  0.0152 -0.1186
 2602DOPE   C3A30528  29.724  12.833  12.844  0.2763 -0.0296  0.0086
 2602DOPE   C4A30529  29.996  12.892  12.433  0.1017  0.1738  0.1988
 2602DOPE   C1B30530  29.892  12.120  13.543 -0.0269  0.0357  0.1619
 2602DOPE   D2B30531  30.352  11.955  13.532  0.1229 -0.1683 -0.1965
 2602DOPE   C3B30532  30.411  11.575  13.269  0.0104 -0.0887  0.0567
 2602DOPE   C4B30533  30.137  11.539  12.889 -0.3958 -0.1417  0.4181
 2603POSM   NC330534  19.569   7.477  13.671 -0.0188  0.0592  0.1679
 2603POSM   PO430535  19.831   7.272  13.892  0.3323 -0.1637  0.4400
 2603POSM   AM130536  19.985   7.199  13.594 -0.2053 -0.2517 -0.0438
 2603POSM   AM230537  19.951   7.358  13.321  0.0101  0.2724 -0.3461
 2603POSM   T1A30538  20.217   7.023  13.208  0.0250  0.1620 -0.1154
 2603POSM   C2A30539  20.391   7.157  12.848 -0.2198 -0.3804 -0.0672
 2603POSM   C3A30540  20.398   7.228  12.351 -0.4680  0.0117  0.0575
 2603POSM   C1B30541  19.646   7.206  13.227 -0.1353  0.0485 -0.1738
 2603POSM   D2B30542  19.255   6.926  13.266  0.0187 -0.0347  0.4876
 2603POSM   C3B30543  18.995   6.764  12.890  0.0572 -0.2634  0.0708
 2603POSM   C4B30544  18.806   6.674  12.507  0.2479  0.1716 -0.1660
 2604DOPS   CNO30545   2.316   2.315  14.329 -0.2026 -0.0159  0.2236
 2604DOPS   PO430546   2.172   2.425  13.986 -0.1878  0.0709  0.1282
 2604DOPS   GL130547   1.903   2.551  13.711  0.2872 -0.5521  0.0738
 2604DOPS   GL230548   2.097   2.815  13.686 -0.3289  0.4343 -0.1316
 2604DOPS   C1A30549   1.537   2.637  13.404  0.1207  0.0030 -0.0376
 2604DOPS   D2A30550   1.336   2.810  13.065  0.2552 -0.0264  0.3490
 2604DOPS   C3A30551   1.027   2.577  12.701  0.0825 -0.0705  0.1365
 2604DOPS   C4A30552   0.708   2.643  12.374  0.0749 -0.1475 -0.0543
 2604DOPS   C1B30553   2.056   2.731  13.265  0.0824  0.4599 -0.1094
 2604DOPS   D2B30554   2.284   2.546  12.928  0.0452 -0.0930 -0.0663
 2604DOPS   C3B30555   2.604   2.544  12.612 -0.0295  0.3362 -0.3366
 2604DOPS   C4B30556   2.793   2.821  12.243  0.0482 -0.0969 -0.1891
 2605DOPC   NC330557  26.174   9.211  14.384 -0.1348  0.1055 -0.0569
 2605DOPC   PO430558  26.518   9.335  14.437 -0.1691 -0.0661 -0.0341
 2605DOPC   GL130559  26.472   9.326  14.039 -0.2854 -0.0272 -0.3298
 2605DOPC   GL230560  26.734   9.479  13.979  0.1376 -0.0704 -0.0174
 2605DOPC   C1A30561  26.446   9.450  13.563 -0.0485 -0.0853 -0.1397
 2605DOPC   D2A30562  26.347   9.467  13.094 -0.1063  0.2865  0.0242
 2605DOPC   C3A30563  26.097   9.690  12.745 -0.0100 -0.4174  0.0681
 2605DOPC   C4A30564  25.631   9.749  12.558 -0.0921 -0.3788 -0.0888
 2605DOPC   C1B30565  26.912   9.369  13.625 -0.2302 -0.1673 -0.0381
 2605DOPC   D2B30566  27.014   9.507  13.174  0.0371 -0.0222 -0.1784
 2605DOPC   C3B30567  26.789   9.651  12.792  0.1634  0.2659 -0.0444
 2605DOPC   C4B30568  26.760  10.075  12.673 -0.0892  0.3777  0.0365
 2606DOPS   CNO30569  26.588  11.887  14.432 -0.0630 -0.1747 -0.0622
 2606DOPS   PO430570  26.872  11.674  14.273 -0.2048 -0.0971  0.1482
 2606DOPS   GL130571  26.880  11.419  13.943  0.0329  0.1352  0.1152
 2606DOPS   GL230572  26.621  11.346  13.927  0.0162 -0.2222  0.0320
 2606DOPS   C1A30573  27.023  10.959  13.732  0.0218 -0.0741  0.0649
 2606DOPS   D2A30574  26.859  10.703  13.457 -0.0126  0.0103 -0.0358
 2606DOPS   C3A30575  26.843  10.968  13.054 -0.0741  0.1247  0.1544
 2606DOPS   C4A30576  26.826  11.286  12.684  0.2153  0.0432  0.0990
 2606DOPS   C1B30577  26.316  11.362  13.625  0.0099  0.0696 -0.3811
 2606DOPS   D2B30578  26.032  11.313  13.318 -0.2375 -0.1848 -0.3780
 2606DOPS   C3B30579  25.887  10.894  13.102  0.2370 -0.1891  0.1312
 2606DOPS   C4B30580  25.673  10.541  13.196  0.1383 -0.1374 -0.3492
 2607DOPE   NH330581  32.678   7.025  14.427 -0.2222  0.2448 -0.2585
 2607DOPE   PO430582  32.576   7.027  14.132  0.1232 -0.3512 -0.2518
 2607DOPE   GL130583  32.288   7.055  13.821 -0.1266  0.2650 -0.1912
 2607DOPE   GL230584  32.419   7.052  13.540  0.0493  0.2444 -0.1719
 2607DOPE   C1A30585  31.948   7.255  13.696 -0.2706 -0.1963  0.0097
 2607DOPE   D2A30586  31.489   7.257  13.681 -0.0918  0.0539  0.1024
 2607DOPE   C3A30587  31.550   6.961  13.332  0.0437 -0.0610 -0.0769
 2607DOPE   C4A30588  31.593   7.072  12.891  0.3067  0.3841 -0.1391
 2607DOPE   C1B30589  32.394   6.790  13.180 -0.0102  0.0828 -0.1399
 2607DOPE   D2B30590  32.635   6.700  12.842 -0.5209  0.0692 -0.2457
 2607DOPE   C3B30591  33.090   6.565  12.977  0.1838  0.0025  0.1437
 2607DOPE   C4B30592  33.367   6.815  13.234 -0.1571 -0.1327 -0.2154
 2608DOPC   NC330593  23.893   4.110  15.366 -0.1714  0.0501  0.0557
 2608DOPC   PO430594  23.938   4.046  14.992  0.0838  0.1104 -0.3836
 2608DOPC   GL130595  23.756   4.046  14.586 -0.1923  0.3573  0.1450
 2608DOPC   GL230596  23.677   4.312  14.476 -0.3839 -0.0442 -0.0173
 2608DOPC   C1A30597  23.904   3.844  14.159 -0.1484  0.1315 -0.0697
 2608DOPC   D2A30598  24.028   3.893  13.677 -0.2474  0.0215 -0.0157
 2608DOPC   C3A30599  24.435   3.924  13.431 -0.2718  0.0852 -0.2547
 2608DOPC   C4A30600  24.896   3.824  13.209  0.0328  0.0592 -0.0177
 2608DOPC   C1B30601  23.843   4.360  14.054  0.0778 -0.0534  0.2245
 2608DOPC   D2B30602  23.728   4.409  13.617 -0.2742  0.1049 -0.1426
 2608DOPC   C3B30603  23.935   4.657  13.291  0.0131  0.0527 -0.0228
 2608DOPC   C4B30604  23.951   4.564  12.872 -0.0914  0.1293 -0.0403
 2609DOPS   CNO30605  23.778   5.817  14.809  0.2742  0.0359  0.2057
 2609DOPS   PO430606  23.733   5.646  14.448  0.2608  0.3204  0.0222
 2609DOPS   GL130607  23.520   5.626  14.093 -0.2840 -0.1167  0.0259
 2609DOPS   GL230608  23.596   5.282  14.047 -0.0067  0.2761 -0.0631
 2609DOPS   C1A30609  23.355   5.463  13.626 -0.1424 -0.0126 -0.1803
 2609DOPS   D2A30610  23.096   5.083  13.441  0.0173 -0.2634 -0.3087
 2609DOPS   C3A30611  23.031   5.071  12.958 -0.1129 -0.0395 -0.2519
 2609DOPS   C4A30612  23.274   4.880  12.602 -0.2380  0.0630  0.1197
 2609DOPS   C1B30613  23.398   4.920  13.823 -0.1440 -0.2872 -0.2210
 2609DOPS   D2B30614  23.341   4.651  13.436  0.1231  0.1329 -0.2823
 2609DOPS   C3B30615  23.430   4.181  13.297  0.1286 -0.0269  0.2491
 2609DOPS   C4B30616  23.451   3.892  12.927  0.0584 -0.2674 -0.1987
 2610DOPC   NC330617  25.965   5.350  15.490  0.1420  0.1723 -0.0042
 2610DOPC   PO430618  25.925   5.270  15.096 -0.2198 -0.2431  0.0448
 2610DOPC   GL130619  26.203   5.222  14.830  0.2545  0.2405  0.0043
 2610DOPC   GL230620  26.014   5.087  14.607 -0.0813  0.1876 -0.0678
 2610DOPC   C1A30621  26.454   5.406  14.455  0.0623  0.1203  0.0388
 2610DOPC   D2A30622  26.364   5.385  13.983 -0.0515  0.1433 -0.1770
 2610DOPC   C3A30623  25.952   5.275  13.936 -0.2263  0.2135 -0.0438
 2610DOPC   C4A30624  25.539   5.269  13.879  0.0501  0.0941  0.2324
 2610DOPC   C1B30625  25.784   4.948  14.249 -0.0923  0.0545 -0.0449
 2610DOPC   D2B30626  25.796   4.781  13.810  0.0896 -0.1743  0.2682
 2610DOPC   C3B30627  25.684   4.496  13.448  0.0259  0.2749  0.1516
 2610DOPC   C4B30628  25.268   4.295  13.443  0.0641 -0.1209  0.2172
 2611DOPE   NH330629  33.869   5.629  14.363 -0.0787  0.5457 -0.1035
 2611DOPE   PO430630  34.056   5.656  14.148  0.0316  0.2601  0.2906
 2611DOPE   GL130631  34.073   5.438  13.821 -0.0380  0.1264 -0.1598
 2611DOPE   GL230632  33.886   5.490  13.635  0.0787  0.0785  0.0713
 2611DOPE   C1A30633  34.366   5.327  13.495 -0.0486  0.2176 -0.0552
 2611DOPE   D2A30634  34.483   5.218  13.068 -0.2205  0.0319  0.0542
 2611DOPE   C3A30635  34.635   4.879  12.800 -0.0499  0.0360  0.1321
 2611DOPE   C4A30636  34.701   4.614  12.404 -0.0300  0.1244 -0.0369
 2611DOPE   C1B30637  33.801   5.377  13.246  0.0764  0.0787  0.3813
 2611DOPE   D2B30638  33.790   5.308  12.792 -0.0428  0.0219 -0.1455
 2611DOPE   C3B30639  33.790   5.636  12.492  0.0254  0.0097  0.1042
 2611DOPE   C4B30640  33.547   6.002  12.297  0.1946  0.0091  0.0292
 2612POSM   NC330641  31.262   9.605  14.887  0.2677  0.2041  0.0220
 2612POSM   PO430642  31.562   9.662  14.669 -0.0387 -0.1635  0.0351
 2612POSM   AM130643  31.691   9.508  14.440  0.2436  0.1568  0.0416
 2612POSM   AM230644  31.768   9.257  14.333 -0.0982 -0.0065  0.1021
 2612POSM   T1A30645  31.835   9.555  13.953 -0.2755  0.1005  0.0280
 2612POSM   C2A30646  31.815   9.645  13.572 -0.0245  0.0066  0.2007
 2612POSM   C3A30647  31.654  10.004  13.312  0.3052  0.1040  0.0998
 2612POSM   C1B30648  31.629   9.125  14.056 -0.2505  0.4651  0.1186
 2612POSM   D2B30649  31.547   9.213  13.648 -0.3353  0.0164  0.3383
 2612POSM   C3B30650  31.828   9.122  13.277  0.0369  0.0379 -0.2891
 2612POSM   C4B30651  32.003   9.160  12.817  0.2545 -0.2488 -0.1802
 2613DOPE   NH330652  28.390  11.589  14.290  0.1265  0.1949 -0.2037
 2613DOPE   PO430653  28.150  11.538  14.100 -0.2671 -0.0706  0.0568
 2613DOPE   GL130654  28.188  11.515  13.784 -0.2634 -0.0526  0.0247
 2613DOPE   GL230655  28.439  11.492  13.704  0.0696  0.1145 -0.1567
 2613DOPE   C1A30656  27.992  11.260  13.470  0.1500  0.1507  0.2096
 2613DOPE   D2A30657  28.028  11.393  13.004  0.2356  0.0720 -0.3939
 2613DOPE   C3A30658  28.445  11.468  12.750  0.1138  0.1255 -0.0361
 2613DOPE   C4A30659  28.804  11.441  12.544  0.1510 -0.2747  0.0497
 2613DOPE   C1B30660  28.569  11.247  13.282  0.1660  0.2495  0.1816
 2613DOPE   D2B30661  28.529  10.958  12.928  0.3013  0.1201 -0.1499
 2613DOPE   C3B30662  28.131  10.697  12.844 -0.2630 -0.3697  0.3578
 2613DOPE   C4B30663  27.750  10.506  12.925  0.0849  0.4829 -0.1804
 2614POSM   NC330664  31.234   6.108  14.496  0.2236  0.1130  0.0486
 2614POSM   PO430665  31.356   6.492  14.526 -0.1745  0.0862  0.3767
 2614POSM   AM130666  31.086   6.538  14.335  0.4609  0.1491  0.1903
 2614POSM   AM230667  30.825   6.693  14.394 -0.0656  0.1611  0.0022
 2614POSM   T1A30668  30.703   6.352  14.084  0.0144 -0.1276 -0.0199
 2614POSM   C2A30669  30.557   6.113  13.750  0.0154  0.3589  0.1414
 2614POSM   C3A30670  30.547   5.831  13.385 -0.0288 -0.0404 -0.0002
 2614POSM   C1B30671  30.685   7.013  14.439  0.1525 -0.0199  0.0565
 2614POSM   D2B30672  30.229   7.179  14.433  0.0302 -0.1107 -0.1951
 2614POSM   C3B30673  29.978   7.510  14.555  0.0245  0.1457 -0.0617
 2614POSM   C4B30674  29.769   7.936  14.308 -0.3174  0.0488 -0.0227
 2615DOPC   NC330675  31.710   4.176  14.554  0.2980 -0.0043  0.2620
 2615DOPC   PO430676  31.694   3.836  14.408  0.0462 -0.0757  0.2494
 2615DOPC   GL130677  31.403   3.748  14.144 -0.0038  0.1953  0.1132
 2615DOPC   GL230678  31.394   3.443  13.994 -0.2413  0.0341  0.0953
 2615DOPC   C1A30679  31.246   3.920  13.742 -0.0178  0.3036 -0.4414
 2615DOPC   D2A30680  31.232   3.899  13.255  0.0374 -0.0488 -0.1692
 2615DOPC   C3A30681  30.979   3.929  12.902 -0.2312 -0.1986  0.5371
 2615DOPC   C4A30682  30.801   4.206  12.557 -0.1539 -0.1963 -0.0310
 2615DOPC   C1B30683  31.620   3.588  13.609 -0.0709  0.2012 -0.2229
 2615DOPC   D2B30684  31.800   3.760  13.237  0.5378 -0.2252 -0.0089
 2615DOPC   C3B30685  31.810   3.992  12.816 -0.0729  0.1791 -0.3577
 2615DOPC   C4B30686  31.711   4.322  12.542 -0.0697  0.0367 -0.1233
 2616DOPE   NH330687  30.937   8.943  14.933 -0.0346  0.3331  0.0855
 2616DOPE   PO430688  31.157   9.145  14.792 -0.0411 -0.0128 -0.2775
 2616DOPE   GL130689  31.283   9.232  14.414  0.2627 -0.0310  0.1407
 2616DOPE   GL230690  31.172   9.471  14.391 -0.0763  0.0056  0.1273
 2616DOPE   C1A30691  31.137   9.110  14.011 -0.2615  0.1203 -0.1600
 2616DOPE   D2A30692  31.002   8.996  13.577 -0.0185  0.1960 -0.1766
 2616DOPE   C3A30693  31.171   9.156  13.190 -0.0682  0.2284 -0.1210
 2616DOPE   C4A30694  31.521   9.104  12.892  0.0615  0.2707  0.0742
 2616DOPE   C1B30695  31.304   9.530  13.915  0.0132  0.0132 -0.1698
 2616DOPE   D2B30696  31.217   9.577  13.462  0.0600  0.0862 -0.0130
 2616DOPE   C3B30697  31.530   9.548  13.201  0.0835 -0.2425 -0.0924
 2616DOPE   C4B30698  31.972   9.618  13.016  0.0748 -0.0672  0.1419
 2617POSM   NC330699  32.356   2.561  14.418  0.0217  0.0692 -0.1401
 2617POSM   PO430700  32.296   2.950  14.506  0.1165 -0.1073  0.1405
 2617POSM   AM130701  32.113   2.905  14.214 -0.2524  0.2118  0.4720
 2617POSM   AM230702  32.236   2.890  13.900  0.0487  0.0909  0.2045
 2617POSM   T1A30703  31.799   3.098  13.827 -0.2216 -0.3778 -0.0396
 2617POSM   C2A30704  31.837   3.006  13.376 -0.2256  0.0192 -0.2631
 2617POSM   C3A30705  31.863   2.910  12.890  0.0553 -0.1641 -0.0891
 2617POSM   C1B30706  32.311   2.978  13.599  0.4172 -0.0525  0.1250
 2617POSM   D2B30707  32.502   3.045  13.177 -0.0369 -0.2195  0.2313
 2617POSM   C3B30708  32.410   2.781  12.805  0.1585  0.1137 -0.1025
 2617POSM   C4B30709  32.101   2.605  12.473 -0.1012  0.1094  0.5225
 2618DOPE   NH330710  33.098  12.580  14.297  0.0511  0.1325  0.1132
 2618DOPE   PO430711  33.095  12.883  14.471  0.1265  0.2907 -0.3607
 2618DOPE   GL130712  33.080  13.019  14.049 -0.1438 -0.1324  0.2243
 2618DOPE   GL230713  33.249  13.077  13.795 -0.0438 -0.0230 -0.0084
 2618DOPE   C1A30714  32.818  13.342  13.852  0.1580 -0.0397 -0.0755
 2618DOPE   D2A30715  32.550  13.499  13.553  0.0531  0.2554 -0.0567
 2618DOPE   C3A30716  32.767  13.700  13.135  0.2567  0.1003  0.0180
 2618DOPE   C4A30717  33.001  13.449  12.814 -0.1481  0.1695 -0.1554
 2618DOPE   C1B30718  33.465  13.081  13.432 -0.0180  0.0720 -0.1964
 2618DOPE   D2B30719  33.785  12.933  13.112  0.3500 -0.0603 -0.1553
 2618DOPE   C3B30720  34.003  12.526  12.909 -0.1116 -0.1134  0.1136
 2618DOPE   C4B30721  34.207  12.344  12.548 -0.1094  0.1672  0.0849
 2619DOPE   NH330722  24.405   5.381  14.896  0.0007 -0.0467  0.1688
 2619DOPE   PO430723  24.201   5.514  14.693 -0.2686 -0.2787  0.2144
 2619DOPE   GL130724  24.197   5.581  14.221 -0.4035  0.0462  0.0292
 2619DOPE   GL230725  24.476   5.626  14.290 -0.1252 -0.1736 -0.0553
 2619DOPE   C1A30726  23.963   5.463  13.765  0.0809 -0.0741  0.0292
 2619DOPE   D2A30727  23.862   5.578  13.326  0.1766  0.0373 -0.0032
 2619DOPE   C3A30728  24.092   5.709  12.933 -0.0522  0.1670  0.1178
 2619DOPE   C4A30729  24.413   5.726  12.613 -0.2080  0.2584 -0.2400
 2619DOPE   C1B30730  24.533   5.507  13.829 -0.1861  0.1716 -0.3841
 2619DOPE   D2B30731  24.849   5.631  13.486 -0.2282 -0.0995 -0.2388
 2619DOPE   C3B30732  24.993   6.012  13.358  0.1229  0.0835 -0.1393
 2619DOPE   C4B30733  25.140   6.507  13.495 -0.2118 -0.0002  0.1094
 2620DOPE   NH330734  31.598   5.231  14.463  0.1421 -0.0508  0.0783
 2620DOPE   PO430735  31.947   5.262  14.428 -0.0983  0.2317 -0.0645
 2620DOPE   GL130736  31.776   5.403  14.080  0.5202 -0.0041  0.0638
 2620DOPE   GL230737  31.952   5.402  13.869 -0.0884  0.1433  0.1895
 2620DOPE   C1A30738  31.474   5.241  13.806  0.0551  0.0291 -0.0907
 2620DOPE   D2A30739  31.360   5.120  13.413  0.1728  0.2281 -0.0119
 2620DOPE   C3A30740  31.363   4.803  13.025  0.0324 -0.0254 -0.2412
 2620DOPE   C4A30741  31.287   4.592  12.617 -0.3011 -0.0945 -0.1827
 2620DOPE   C1B30742  31.843   5.289  13.415  0.0124  0.2132 -0.3035
 2620DOPE   D2B30743  31.679   5.181  13.005  0.1217 -0.0162  0.2669
 2620DOPE   C3B30744  31.222   5.336  12.937 -0.1823  0.0435 -0.6154
 2620DOPE   C4B30745  31.064   5.771  12.676  0.0181  0.0262 -0.2184
 2621DOPE   NH330746  28.590   3.060  15.002  0.1287  0.4152 -0.1669
 2621DOPE   PO430747  28.392   3.223  14.836 -0.0977  0.1972 -0.1714
 2621DOPE   GL130748  28.162   3.176  14.583 -0.0039  0.1499  0.1830
 2621DOPE   GL230749  28.279   3.309  14.363 -0.2546 -0.0873 -0.2169
 2621DOPE   C1A30750  28.222   2.819  14.223 -0.3001 -0.3871  0.3481
 2621DOPE   D2A30751  28.049   2.821  13.763 -0.1897 -0.2086 -0.0691
 2621DOPE   C3A30752  27.756   3.168  13.583  0.1564 -0.1460 -0.2981
 2621DOPE   C4A30753  27.885   3.644  13.429 -0.0470 -0.1513 -0.0793
 2621DOPE   C1B30754  28.537   3.163  13.989 -0.1749  0.2579 -0.2943
 2621DOPE   D2B30755  28.396   3.177  13.531  0.1414  0.2549  0.1058
 2621DOPE   C3B30756  28.115   3.067  13.145 -0.3059 -0.1184 -0.1239
 2621DOPE   C4B30757  28.259   2.761  12.865 -0.1729 -0.3026 -0.0452
 2622POSM   NC330758  34.680   3.312  14.599  0.0147 -0.0150 -0.2333
 2622POSM   PO430759  34.256   3.320  14.642 -0.2183 -0.0333 -0.1180
 2622POSM   AM130760  34.211   3.400  14.325 -0.1765  0.4080  0.0879
 2622POSM   AM230761  34.244   3.186  14.127 -0.3556 -0.0991  0.3145
 2622POSM   T1A30762  33.954   3.593  13.937  0.2787 -0.0734 -0.0761
 2622POSM   C2A30763  33.917   3.597  13.464 -0.0692 -0.0971 -0.0104
 2622POSM   C3A30764  33.985   3.577  12.952 -0.3133  0.1230  0.1423
 2622POSM   C1B30765  34.257   3.212  13.767 -0.1996 -0.4202 -0.1014
 2622POSM   D2B30766  34.377   3.242  13.317  0.2476  0.1961 -0.1718
 2622POSM   C3B30767  34.417   3.253  12.804  0.0344  0.3130 -0.0558
 2622POSM   C4B30768  34.286   3.481  12.390  0.0681  0.1776  0.1153
 2623DOPE   NH330769   0.542   6.492  14.253  0.0763  0.3138 -0.1776
 2623DOPE   PO430770   0.292   6.317  14.273 -0.0583 -0.1837  0.2895
 2623DOPE   GL130771   0.356   6.268  13.860  0.1185 -0.2171  0.1589
 2623DOPE   GL230772   0.091   6.236  13.780 -0.1258 -0.0250  0.1349
 2623DOPE   C1A30773   0.523   6.349  13.462  0.1385  0.3104 -0.2737
 2623DOPE   D2A30774   0.589   6.288  13.051  0.1223  0.0035  0.0476
 2623DOPE   C3A30775   0.315   6.128  12.660 -0.2343  0.1107 -0.1569
 2623DOPE   C4A30776   0.210   6.223  12.185 -0.1955 -0.2055 -0.1110
 2623DOPE   C1B30777  -0.271   6.170  13.467 -0.1851  0.1026 -0.0776
 2623DOPE   D2B30778  -0.694   6.119  13.155 -0.1022 -0.0078 -0.1246
 2623DOPE   C3B30779  -0.636   5.677  12.887  0.2002 -0.0337 -0.0338
 2623DOPE   C4B30780  -0.528   5.375  12.625 -0.1300  0.1313  0.0976
 2624DOPE   NH330781  33.009  10.965  14.132 -0.0953 -0.0823  0.1541
 2624DOPE   PO430782  32.826  11.227  14.222 -0.2479  0.2153  0.2325
 2624DOPE   GL130783  32.941  11.420  13.924 -0.1350  0.2208  0.0481
 2624DOPE   GL230784  33.190  11.432  13.857  0.0585 -0.1547  0.0761
 2624DOPE   C1A30785  32.932  11.493  13.435 -0.1171 -0.2691 -0.1748
 2624DOPE   D2A30786  32.865  11.574  12.969  0.2955  0.0177  0.0501
 2624DOPE   C3A30787  32.795  11.889  12.648  0.1027  0.0097  0.0408
 2624DOPE   C4A30788  32.880  12.139  12.284 -0.0354 -0.1232  0.3033
 2624DOPE   C1B30789  33.445  11.806  13.763 -0.1547  0.0498  0.0340
 2624DOPE   D2B30790  33.759  11.915  13.413 -0.0866 -0.0167  0.1245
 2624DOPE   C3B30791  33.656  12.367  13.296 -0.3012  0.0922  0.0758
 2624DOPE   C4B30792  33.502  12.573  12.996  0.1154  0.2293 -0.0720
 2625POSM   NC330793  29.546   5.897  15.183  0.1706 -0.1350  0.0765
 2625POSM   PO430794  29.629   5.584  15.023  0.1790  0.0575  0.2595
 2625POSM   AM130795  29.409   5.654  14.757  0.0854  0.1665 -0.2978
 2625POSM   AM230796  29.156   5.726  14.721  0.2213 -0.2427 -0.3608
 2625POSM   T1A30797  29.301   5.652  14.261 -0.1048  0.2012  0.4268
 2625POSM   C2A30798  29.214   5.789  13.787 -0.1129 -0.1933 -0.0917
 2625POSM   C3A30799  28.956   5.822  13.347  0.3189  0.4085  0.3327
 2625POSM   C1B30800  28.966   5.863  14.482  0.0727 -0.1059 -0.0417
 2625POSM   D2B30801  28.816   5.885  14.069 -0.0473 -0.1695  0.0784
 2625POSM   C3B30802  28.704   5.617  13.729  0.0372  0.0300  0.1920
 2625POSM   C4B30803  28.366   5.450  13.438  0.2911 -0.1848 -0.1050
 2626DOPC   NC330804  25.700   8.539  14.670 -0.1132 -0.2437 -0.3074
 2626DOPC   PO430805  25.359   8.625  14.860 -0.0762  0.1544  0.0740
 2626DOPC   GL130806  25.202   8.364  14.512 -0.2762 -0.4015 -0.1085
 2626DOPC   GL230807  25.371   8.117  14.491  0.2298  0.1861  0.0039
 2626DOPC   C1A30808  25.110   8.184  14.110  0.0553 -0.0383 -0.1532
 2626DOPC   D2A30809  25.049   7.796  13.841  0.1389 -0.1032  0.0348
 2626DOPC   C3A30810  24.920   7.948  13.428  0.3334  0.1406 -0.0073
 2626DOPC   C4A30811  24.623   8.278  13.286  0.0450  0.2217  0.2757
 2626DOPC   C1B30812  25.581   7.941  14.093 -0.0847  0.1199  0.1631
 2626DOPC   D2B30813  25.551   7.554  13.760  0.2887 -0.1781 -0.2293
 2626DOPC   C3B30814  25.407   7.771  13.390 -0.0644  0.0448 -0.3974
 2626DOPC   C4B30815  25.231   7.805  12.953 -0.3201 -0.3060 -0.1664
 2627DOPE   NH330816  24.754   0.609  15.063  0.2459  0.0142  0.0712
 2627DOPE   PO430817  24.823   0.903  15.076 -0.0806 -0.0623  0.0370
 2627DOPE   GL130818  24.792   1.108  14.826 -0.1278 -0.0386  0.1401
 2627DOPE   GL230819  24.561   1.100  14.637  0.2348 -0.0742 -0.0630
 2627DOPE   C1A30820  25.173   1.104  14.532 -0.0420 -0.0223  0.0648
 2627DOPE   D2A30821  25.550   1.303  14.258  0.0248 -0.0248 -0.0943
 2627DOPE   C3A30822  25.480   1.718  14.014  0.2451 -0.3289 -0.3152
 2627DOPE   C4A30823  25.884   1.923  13.972 -0.1748 -0.0354 -0.0179
 2627DOPE   C1B30824  24.537   1.190  14.202  0.1690  0.0515 -0.0367
 2627DOPE   D2B30825  24.306   1.422  13.884 -0.1782 -0.1893  0.0547
 2627DOPE   C3B30826  24.323   1.251  13.478 -0.1171 -0.0667 -0.1050
 2627DOPE   C4B30827  24.355   1.114  13.013  0.3379 -0.0948 -0.0084
 2628DOPC   NC330828   1.198   2.859  14.084  0.1321 -0.0724  0.0640
 2628DOPC   PO430829   0.892   3.120  14.165  0.1116  0.2312 -0.1297
 2628DOPC   GL130830   0.854   2.885  13.745 -0.0614 -0.1802  0.1660
 2628DOPC   GL230831   0.558   2.880  13.727 -0.1185 -0.1381  0.2002
 2628DOPC   C1A30832   0.790   2.722  13.287  0.1258 -0.0855 -0.1368
 2628DOPC   D2A30833   0.558   2.655  12.895  0.3131 -0.0659 -0.0037
 2628DOPC   C3A30834   0.193   2.689  12.643 -0.1625 -0.0259  0.0103
 2628DOPC   C4A30835   0.036   2.515  12.213  0.1314 -0.2622  0.2272
 2628DOPC   C1B30836   0.311   3.104  13.364 -0.2808 -0.1594  0.1190
 2628DOPC   D2B30837   0.098   3.219  13.016  0.0032 -0.2210  0.2069
 2628DOPC   C3B30838   0.257   3.639  12.847 -0.1024  0.0015 -0.1253
 2628DOPC   C4B30839   0.399   3.811  12.441  0.1114  0.2169 -0.2567
 2629POSM   NC330840  26.676   1.242  15.571  0.1464 -0.0594 -0.1393
 2629POSM   PO430841  26.345   1.443  15.485 -0.3208  0.1677  0.1304
 2629POSM   AM130842  26.321   1.391  15.158  0.0436 -0.1505 -0.0633
 2629POSM   AM230843  26.190   1.283  14.947  0.1171  0.1015 -0.0560
 2629POSM   T1A30844  26.607   1.269  14.724 -0.1146  0.4559 -0.2519
 2629POSM   C2A30845  26.739   1.171  14.284  0.1407 -0.0928  0.0778
 2629POSM   C3A30846  26.523   1.108  13.858 -0.1541  0.2708  0.1263
 2629POSM   C1B30847  26.114   1.471  14.674 -0.2733 -0.1358 -0.1203
 2629POSM   D2B30848  25.942   1.663  14.368  0.0717  0.2851 -0.1896
 2629POSM   C3B30849  25.963   1.478  13.945 -0.1150 -0.0288 -0.0132
 2629POSM   C4B30850  25.615   1.202  13.728 -0.0221  0.1939  0.0969
 2630DOPE   NH330851   0.508   2.867  14.378  0.0852  0.1937 -0.1412
 2630DOPE   PO430852   0.308   3.070  14.350 -0.2369  0.1093  0.0013
 2630DOPE   GL130853  -0.026   3.211  14.090  0.1421 -0.0278 -0.1152
 2630DOPE   GL230854   0.104   2.962  13.887 -0.1185  0.0752  0.2831
 2630DOPE   C1A30855  -0.055   3.350  13.635 -0.1109 -0.4398 -0.1488
 2630DOPE   D2A30856   0.089   3.664  13.330  0.0933  0.4244 -0.0896
 2630DOPE   C3A30857  -0.175   3.811  13.033 -0.0613 -0.1565  0.4993
 2630DOPE   C4A30858  -0.486   3.880  12.653  0.1018 -0.0491  0.3574
 2630DOPE   C1B30859  -0.107   2.873  13.505  0.2664 -0.0640 -0.0659
 2630DOPE   D2B30860  -0.084   2.698  13.070  0.0501 -0.1652 -0.1596
 2630DOPE   C3B30861  -0.305   2.678  12.688  0.0464  0.1822 -0.0484
 2630DOPE   C4B30862  -0.713   2.842  12.463  0.1935 -0.1066  0.1688
 2631DOPE   NH330863   0.589   2.466  14.091  0.3794 -0.1124  0.1181
 2631DOPE   PO430864   0.914   2.493  14.043 -0.1652  0.3025  0.0382
 2631DOPE   GL130865   0.911   2.129  13.956  0.1976  0.1168 -0.1149
 2631DOPE   GL230866   0.651   2.061  13.807 -0.2281 -0.0090 -0.1630
 2631DOPE   C1A30867   0.980   1.912  13.522  0.0276  0.1357 -0.3284
 2631DOPE   D2A30868   0.700   1.680  13.146 -0.0718  0.1646  0.1153
 2631DOPE   C3A30869   0.634   1.772  12.691  0.2072  0.3205 -0.0836
 2631DOPE   C4A30870   0.491   1.402  12.459  0.4538 -0.1372  0.2342
 2631DOPE   C1B30871   0.588   1.613  13.695  0.0416 -0.2019  0.0527
 2631DOPE   D2B30872   0.586   1.137  13.526 -0.4122 -0.1754 -0.0105
 2631DOPE   C3B30873   0.911   0.835  13.465 -0.0837  0.1560 -0.2125
 2631DOPE   C4B30874   1.077   0.730  13.112 -0.0771 -0.2282  0.0104
 2632POSM   NC330875  26.106   6.121  15.538 -0.0475  0.0464  0.1155
 2632POSM   PO430876  25.974   5.812  15.351  0.0708  0.3584 -0.1317
 2632POSM   AM130877  26.073   5.944  15.047  0.1905  0.2718  0.1532
 2632POSM   AM230878  25.990   6.003  14.766  0.4113  0.4239 -0.1136
 2632POSM   T1A30879  26.415   5.858  14.657  0.2206  0.1104  0.2459
 2632POSM   C2A30880  26.717   5.738  14.247 -0.1138 -0.0730  0.1861
 2632POSM   C3A30881  26.635   5.986  13.887 -0.0005 -0.0694  0.1067
 2632POSM   C1B30882  25.906   6.179  14.486  0.0893 -0.0415  0.0836
 2632POSM   D2B30883  25.747   6.235  14.044 -0.2343 -0.2262  0.0204
 2632POSM   C3B30884  25.978   6.218  13.651  0.1588 -0.1457 -0.0139
 2632POSM   C4B30885  26.123   6.504  13.316 -0.0296 -0.0927  0.1907
 2633DOPS   CNO30886  33.362   2.625  14.217 -0.2551 -0.1447  0.2647
 2633DOPS   PO430887  33.640   2.734  14.404 -0.1615  0.1911 -0.6105
 2633DOPS   GL130888  33.763   2.704  14.030 -0.2581 -0.1393 -0.0755
 2633DOPS   GL230889  33.797   2.923  14.017  0.0497  0.5737 -0.0185
 2633DOPS   C1A30890  34.009   2.480  13.704 -0.1724  0.1175  0.1431
 2633DOPS   D2A30891  34.195   2.517  13.332 -0.2123  0.1572  0.2155
 2633DOPS   C3A30892  34.125   2.772  12.969  0.2027  0.1405 -0.1164
 2633DOPS   C4A30893  33.842   3.090  12.815  0.3014 -0.0481 -0.2082
 2633DOPS   C1B30894  33.390   2.934  13.701 -0.0721 -0.0960 -0.0686
 2633DOPS   D2B30895  33.206   2.615  13.363  0.1159  0.0605 -0.0245
 2633DOPS   C3B30896  33.239   2.561  12.916 -0.2799  0.0338 -0.2120
 2633DOPS   C4B30897  33.155   2.581  12.440  0.2586 -0.4071 -0.0443
 2634DOPC   NC330898  27.097   9.746  14.327  0.3377  0.1128  0.0240
 2634DOPC   PO430899  27.033  10.086  14.499  0.0385  0.0863  0.1454
 2634DOPC   GL130900  26.965  10.208  14.102  0.0496 -0.0791  0.1489
 2634DOPC   GL230901  26.705  10.355  14.083  0.1017 -0.0113 -0.1064
 2634DOPC   C1A30902  26.952   9.934  13.751  0.0577  0.1603 -0.1569
 2634DOPC   D2A30903  26.677   9.823  13.359  0.1268  0.1660 -0.0204
 2634DOPC   C3A30904  26.408  10.085  13.076  0.1233  0.0137 -0.3883
 2634DOPC   C4A30905  25.993  10.295  12.927  0.0314  0.0425  0.1405
 2634DOPC   C1B30906  26.528  10.231  13.638  0.0411  0.1540 -0.3378
 2634DOPC   D2B30907  26.108  10.096  13.583 -0.0033  0.1032 -0.1912
 2634DOPC   C3B30908  25.800  10.408  13.651 -0.1326 -0.0877  0.0199
 2634DOPC   C4B30909  25.327  10.531  13.777  0.0488  0.0273 -0.2159
 2635POSM   NC330910  27.844   5.567  15.403  0.2502  0.0104 -0.1674
 2635POSM   PO430911  27.513   5.381  15.293 -0.0322  0.2673 -0.2045
 2635POSM   AM130912  27.499   5.596  15.055 -0.0140 -0.0738  0.0295
 2635POSM   AM230913  27.440   5.839  14.948  0.2702 -0.0830 -0.1047
 2635POSM   T1A30914  27.325   5.487  14.599  0.1680 -0.2732  0.0888
 2635POSM   C2A30915  27.279   5.515  14.139 -0.1668  0.1406 -0.0259
 2635POSM   C3A30916  27.067   5.713  13.834  0.2485 -0.2552  0.1598
 2635POSM   C1B30917  27.542   6.088  14.707 -0.1452  0.0644 -0.1832
 2635POSM   D2B30918  27.579   6.412  14.429  0.2640 -0.2969 -0.0734
 2635POSM   C3B30919  27.772   6.285  13.997  0.2765  0.1736 -0.0418
 2635POSM   C4B30920  28.157   6.513  13.744 -0.0582  0.0944  0.2155
 2636DOPE   NH330921  32.825   5.312  14.404  0.4300 -0.1630  0.0578
 2636DOPE   PO430922  32.589   5.131  14.531  0.3797 -0.2524 -0.0634
 2636DOPE   GL130923  32.555   4.916  14.163  0.0344 -0.2009  0.2490
 2636DOPE   GL230924  32.307   4.861  14.053 -0.0934 -0.0577  0.1166
 2636DOPE   C1A30925  32.681   5.119  13.830  0.0959  0.2006 -0.1312
 2636DOPE   D2A30926  32.782   5.275  13.397 -0.2492  0.1526 -0.0673
 2636DOPE   C3A30927  32.988   5.275  12.983 -0.1068  0.2300 -0.3274
 2636DOPE   C4A30928  33.390   5.056  12.823  0.1655 -0.2211 -0.1568
 2636DOPE   C1B30929  32.242   5.061  13.648  0.0377  0.0314  0.1996
 2636DOPE   D2B30930  32.306   4.965  13.219  0.2601  0.1107  0.0119
 2636DOPE   C3B30931  32.627   4.891  13.019  0.1017  0.0849 -0.1986
 2636DOPE   C4B30932  32.879   4.951  12.602  0.0620 -0.2900  0.2963
 2637DOPS   CNO30933  29.645   2.376  15.099 -0.2455 -0.0078  0.3591
 2637DOPS   PO430934  29.750   2.155  14.757 -0.2308  0.0878  0.2371
 2637DOPS   GL130935  29.844   1.941  14.399 -0.3231 -0.2115  0.1674
 2637DOPS   GL230936  29.628   1.706  14.350 -0.2111 -0.3139  0.0850
 2637DOPS   C1A30937  30.058   1.832  13.984 -0.0906 -0.2117 -0.0833
 2637DOPS   D2A30938  30.151   1.946  13.564  0.0253 -0.0662 -0.1542
 2637DOPS   C3A30939  30.445   1.877  13.219 -0.2317 -0.1532  0.1360
 2637DOPS   C4A30940  30.809   2.072  13.174 -0.2194 -0.1140 -0.5044
 2637DOPS   C1B30941  29.470   1.452  13.975 -0.0274 -0.1492 -0.0391
 2637DOPS   D2B30942  29.179   1.383  13.624 -0.0221 -0.0675  0.0534
 2637DOPS   C3B30943  29.345   1.206  13.258 -0.1597 -0.2059 -0.0644
 2637DOPS   C4B30944  29.773   1.129  13.036 -0.0481 -0.0696 -0.2684
 2638DOPS   CNO30945  30.576   4.735  14.764  0.2883 -0.0491 -0.0775
 2638DOPS   PO430946  30.802   5.057  14.743  0.1359 -0.0338  0.0668
 2638DOPS   GL130947  30.594   4.967  14.342 -0.2393 -0.1390  0.2704
 2638DOPS   GL230948  30.393   5.173  14.282 -0.3146  0.2252  0.3191
 2638DOPS   C1A30949  30.699   5.136  13.896  0.0166 -0.0540  0.1167
 2638DOPS   D2A30950  30.390   5.374  13.582 -0.3043  0.1391 -0.1964
 2638DOPS   C3A30951  30.362   5.034  13.235 -0.0225  0.0047 -0.2931
 2638DOPS   C4A30952  30.590   4.819  12.804 -0.4071 -0.1418  0.0153
 2638DOPS   C1B30953  30.472   5.583  14.012  0.3660 -0.2514  0.2012
 2638DOPS   D2B30954  30.151   5.821  13.788 -0.2821 -0.1468 -0.1887
 2638DOPS   C3B30955  30.042   6.038  13.435 -0.2063 -0.0260  0.0919
 2638DOPS   C4B30956  30.263   6.092  13.019  0.0801 -0.0143  0.1556
 2639DOPE   NH330957  32.726  33.981  14.957 -0.0917  0.0585 -0.1336
 2639DOPE   PO430958  32.650  34.034  14.644  0.2155 -0.0686 -0.0205
 2639DOPE   GL130959  32.580  34.014  14.371 -0.0026  0.0684  0.3302
 2639DOPE   GL230960  32.419  34.162  14.141 -0.1220 -0.2632  0.0121
 2639DOPE   C1A30961  32.450  33.638  14.142  0.1451 -0.3344 -0.0911
 2639DOPE   D2A30962  32.016  33.439  13.986  0.2205  0.0447  0.1929
 2639DOPE   C3A30963  31.963  33.704  13.618  0.0291  0.1617  0.1577
 2639DOPE   C4A30964  31.743  33.570  13.179 -0.2547 -0.0215 -0.1154
 2639DOPE   C1B30965  32.348  33.973  13.703  0.1999 -0.4786 -0.0932
 2639DOPE   D2B30966  32.339  33.797  13.306 -0.2618  0.3143  0.1384
 2639DOPE   C3B30967  32.487  33.986  12.904 -0.1163 -0.1594 -0.2636
 2639DOPE   C4B30968  32.179  34.119  12.548 -0.1682  0.4180 -0.0118
 2640DOPC   NC330969  29.414   3.467  14.503 -0.1800  0.0639  0.2062
 2640DOPC   PO430970  29.600   3.786  14.641  0.1163  0.1928 -0.3406
 2640DOPC   GL130971  29.604   3.894  14.306  0.2703 -0.3692 -0.2486
 2640DOPC   GL230972  29.745   4.172  14.348  0.1851  0.0922 -0.1801
 2640DOPC   C1A30973  29.414   3.577  14.011 -0.0681  0.1048  0.0755
 2640DOPC   D2A30974  29.416   3.464  13.520  0.4289  0.0622 -0.0448
 2640DOPC   C3A30975  28.974   3.452  13.322  0.1252  0.2143 -0.1294
 2640DOPC   C4A30976  28.587   3.307  13.128  0.1051 -0.0676  0.1116
 2640DOPC   C1B30977  30.188   3.982  14.314  0.1158 -0.2516  0.0394
 2640DOPC   D2B30978  30.632   4.105  14.160 -0.1164  0.2228 -0.2472
 2640DOPC   C3B30979  30.675   3.961  13.735 -0.2305  0.1889  0.0954
 2640DOPC   C4B30980  30.839   3.701  13.392  0.0882  0.0941 -0.0534
 2641DOPS   CNO30981   2.165   5.815  14.005 -0.1548 -0.0302 -0.0065
 2641DOPS   PO430982   2.131   6.165  14.009 -0.0381 -0.2379 -0.3846
 2641DOPS   GL130983   2.312   6.012  13.607  0.3337 -0.2877  0.0403
 2641DOPS   GL230984   2.022   6.107  13.473 -0.1487 -0.1080  0.3520
 2641DOPS   C1A30985   2.513   5.774  13.234  0.0719 -0.0657  0.3557
 2641DOPS   D2A30986   2.268   5.635  12.840  0.2894 -0.0858 -0.0997
 2641DOPS   C3A30987   2.161   5.823  12.419 -0.2890 -0.0810 -0.2577
 2641DOPS   C4A30988   2.108   6.210  12.187 -0.2625  0.3721 -0.0132
 2641DOPS   C1B30989   1.945   5.862  13.112 -0.0713 -0.0270  0.1677
 2641DOPS   D2B30990   1.657   5.848  12.708  0.2300  0.0643 -0.1124
 2641DOPS   C3B30991   1.615   6.263  12.457  0.2610 -0.1316  0.3003
 2641DOPS   C4B30992   1.537   6.383  12.038 -0.1476  0.4478  0.1639
 2642DOPE   NH330993  24.869   9.109  14.745 -0.2860  0.1996 -0.2225
 2642DOPE   PO430994  25.212   9.028  14.629  0.0575 -0.1278  0.2811
 2642DOPE   GL130995  25.487   8.840  14.439 -0.0455 -0.0169 -0.3310
 2642DOPE   GL230996  25.655   8.988  14.390  0.0515 -0.4718  0.0208
 2642DOPE   C1A30997  25.613   8.513  14.125 -0.4333  0.0679  0.2057
 2642DOPE   D2A30998  25.915   8.398  13.830  0.3124 -0.1646  0.2277
 2642DOPE   C3A30999  25.912   8.717  13.504 -0.0009  0.2279  0.1919
 2642DOPE   C4A31000  25.887   8.898  13.079  0.0402 -0.1899  0.1526
 2642DOPE   C1B31001  25.738   8.951  13.906 -0.1038  0.0113 -0.4318
 2642DOPE   D2B31002  25.518   9.047  13.477  0.0703  0.0638  0.0367
 2642DOPE   C3B31003  25.444   8.681  13.224 -0.0521 -0.2612  0.1290
 2642DOPE   C4B31004  25.490   8.467  12.785  0.3744  0.2069  0.0194
 2643DOPE   NH331005  31.632   6.889  14.710  0.1169 -0.1496  0.0280
 2643DOPE   PO431006  31.400   7.014  14.519 -0.4672 -0.1926 -0.2295
 2643DOPE   GL131007  31.234   7.213  14.175  0.2276 -0.1676 -0.0833
 2643DOPE   GL231008  31.174   6.971  14.033  0.0206  0.1748  0.1227
 2643DOPE   C1A31009  30.966   7.288  13.783  0.4145  0.0602  0.2295
 2643DOPE   D2A31010  31.096   7.358  13.370  0.0512  0.2070  0.5207
 2643DOPE   C3A31011  31.286   7.765  13.176  0.2249  0.0097 -0.2517
 2643DOPE   C4A31012  31.390   7.987  12.754  0.0716 -0.3276 -0.0682
 2643DOPE   C1B31013  30.729   6.799  13.828 -0.0077  0.0942  0.2398
 2643DOPE   D2B31014  30.522   6.903  13.462  0.1657 -0.1356  0.0943
 2643DOPE   C3B31015  30.154   7.163  13.435 -0.2529 -0.3196  0.1964
 2643DOPE   C4B31016  29.741   7.054  13.586 -0.3103  0.1693 -0.1018
 2644DOPE   NH331017  27.177   4.356  15.203 -0.0704  0.2293 -0.0988
 2644DOPE   PO431018  27.493   4.274  15.163  0.2822 -0.2098  0.1619
 2644DOPE   GL131019  27.470   4.225  14.759 -0.0290  0.3169  0.1540
 2644DOPE   GL231020  27.143   4.339  14.680 -0.0391  0.2220 -0.1461
 2644DOPE   C1A31021  27.502   4.405  14.304 -0.3418 -0.0721  0.2462
 2644DOPE   D2A31022  27.786   4.203  13.953 -0.2051  0.1165 -0.0572
 2644DOPE   C3A31023  27.655   4.117  13.549 -0.1307 -0.1698  0.2786
 2644DOPE   C4A31024  27.241   4.144  13.396 -0.0101  0.0142  0.1591
 2644DOPE   C1B31025  27.033   4.700  14.453 -0.0866 -0.0071 -0.1095
 2644DOPE   D2B31026  27.313   4.955  14.179  0.3634 -0.0147  0.0434
 2644DOPE   C3B31027  27.704   5.213  14.308 -0.0355  0.0884 -0.1659
 2644DOPE   C4B31028  28.091   5.354  14.473 -0.2921 -0.1533 -0.2575
 2645DOPC   NC331029  33.041   7.574  13.665  0.1331 -0.0367 -0.0943
 2645DOPC   PO431030  32.779   7.776  13.898  0.0412  0.0180  0.2670
 2645DOPC   GL131031  32.882   7.997  13.538 -0.2783 -0.0954 -0.2996
 2645DOPC   GL231032  32.624   8.040  13.455  0.1875 -0.1931  0.1666
 2645DOPC   C1A31033  33.011   7.868  13.107  0.0013 -0.2286  0.0180
 2645DOPC   D2A31034  33.300   7.929  12.760 -0.1440  0.4097  0.1885
 2645DOPC   C3A31035  33.755   7.853  12.604 -0.0492 -0.3444  0.4350
 2645DOPC   C4A31036  33.921   7.657  12.210  0.0552  0.1413  0.1788
 2645DOPC   C1B31037  32.921   8.377  13.333 -0.0474  0.3396 -0.2027
 2645DOPC   D2B31038  33.312   8.470  13.558  0.0540  0.1693 -0.1679
 2645DOPC   C3B31039  33.674   8.593  13.265  0.1633  0.0472  0.1953
 2645DOPC   C4B31040  34.094   8.782  13.113 -0.1006 -0.1021 -0.1380
 2646POSM   NC331041  25.204   8.216  15.055 -0.0690 -0.0868  0.2359
 2646POSM   PO431042  25.002   7.979  14.836 -0.3757 -0.1513  0.2264
 2646POSM   AM131043  24.970   7.829  14.561  0.0847  0.0519  0.0979
 2646POSM   AM231044  25.076   7.716  14.347 -0.4343 -0.0866 -0.1949
 2646POSM   T1A31045  24.615   7.621  14.238  0.2271 -0.1893 -0.0493
 2646POSM   C2A31046  24.327   7.479  13.896  0.0411  0.1912  0.2714
 2646POSM   C3A31047  24.131   7.448  13.454 -0.1473  0.1192 -0.0860
 2646POSM   C1B31048  25.236   7.489  14.169  0.0995  0.5219  0.1461
 2646POSM   D2B31049  25.264   7.076  13.892 -0.2889  0.1177 -0.1584
 2646POSM   C3B31050  25.568   7.102  13.487  0.1308  0.0597  0.0092
 2646POSM   C4B31051  25.870   7.382  13.291  0.1833  0.1222  0.0477
 2647POSM   NC331052  26.555  10.323  14.522 -0.0449  0.2017  0.2896
 2647POSM   PO431053  26.246  10.513  14.639 -0.1209  0.0999  0.0344
 2647POSM   AM131054  26.120  10.310  14.413 -0.3520  0.3683 -0.2848
 2647POSM   AM231055  26.163  10.132  14.200 -0.1742  0.0036  0.1629
 2647POSM   T1A31056  25.698  10.110  14.187 -0.0552 -0.1132 -0.0895
 2647POSM   C2A31057  25.401   9.738  14.014  0.2836  0.4114  0.2312
 2647POSM   C3A31058  25.240   9.457  13.719 -0.1664 -0.4098  0.1989
 2647POSM   C1B31059  26.217  10.394  13.988 -0.0984  0.1208  0.2455
 2647POSM   D2B31060  26.470  10.699  13.762  0.0626  0.0580 -0.1150
 2647POSM   C3B31061  26.421  10.974  13.403 -0.1004  0.4206  0.2494
 2647POSM   C4B31062  26.374  10.975  12.936  0.1476  0.3922  0.3664
 2648DOPC   NC331063  29.284   7.737  15.799 -0.0860  0.0192  0.0762
 2648DOPC   PO431064  29.053   7.426  15.889 -0.0016  0.0232 -0.1256
 2648DOPC   GL131065  28.985   7.359  15.458 -0.4326 -0.0393  0.0595
 2648DOPC   GL231066  28.913   7.046  15.449 -0.2868  0.2795  0.0091
 2648DOPC   C1A31067  28.955   7.199  15.001 -0.2869  0.2775  0.0921
 2648DOPC   D2A31068  29.057   6.993  14.631 -0.1235  0.2208 -0.1681
 2648DOPC   C3A31069  29.048   6.504  14.609 -0.2412  0.1292 -0.0378
 2648DOPC   C4A31070  28.667   6.243  14.505  0.1517  0.1081  0.5195
 2648DOPC   C1B31071  29.121   6.727  15.092 -0.0830 -0.0552 -0.0716
 2648DOPC   D2B31072  29.450   6.712  14.779  0.0081 -0.0954  0.0012
 2648DOPC   C3B31073  29.418   6.750  14.344  0.2166  0.0284  0.2076
 2648DOPC   C4B31074  29.016   6.776  14.090 -0.0376 -0.1132  0.4857
 2649DOPC   NC331075  28.683   4.320  14.707  0.0075  0.2717  0.0457
 2649DOPC   PO431076  28.458   4.565  14.856  0.1389  0.3203  0.2382
 2649DOPC   GL131077  28.246   4.659  14.473  0.1636  0.3296 -0.1709
 2649DOPC   GL231078  28.263   4.380  14.412  0.0309  0.3055 -0.0718
 2649DOPC   C1A31079  28.255   4.931  14.101 -0.2362 -0.1142 -0.1332
 2649DOPC   D2A31080  28.061   5.200  13.821  0.0126 -0.0804  0.3101
 2649DOPC   C3A31081  27.578   5.251  13.815 -0.1234  0.2902 -0.0002
 2649DOPC   C4A31082  27.137   5.239  13.665 -0.0020 -0.1723 -0.0582
 2649DOPC   C1B31083  28.265   4.457  13.952  0.0564 -0.0528  0.0873
 2649DOPC   D2B31084  28.113   4.242  13.566  0.1703 -0.3384  0.1024
 2649DOPC   C3B31085  28.330   3.883  13.215 -0.0572 -0.0539 -0.0201
 2649DOPC   C4B31086  28.579   3.764  12.851  0.2205  0.2946 -0.1004
 2650DOPS   CNO31087  22.768  10.434  13.499  0.2807 -0.3638  0.3049
 2650DOPS   PO431088  22.820  10.781  13.665 -0.1603 -0.0787  0.0753
 2650DOPS   GL131089  22.807  10.821  13.292  0.1402 -0.0857  0.3852
 2650DOPS   GL231090  23.101  10.828  13.100 -0.1022 -0.0396 -0.3562
 2650DOPS   C1A31091  22.647  10.744  12.842  0.4815  0.0852 -0.2230
 2650DOPS   D2A31092  22.775  10.722  12.398  0.3146  0.0837 -0.3126
 2650DOPS   C3A31093  22.411  10.622  12.094  0.0539  0.0102 -0.1618
 2650DOPS   C4A31094  21.973  10.554  12.034  0.0848  0.0877 -0.0966
 2650DOPS   C1B31095  23.504  10.925  12.895 -0.0665 -0.0358  0.0781
 2650DOPS   D2B31096  23.983  10.840  12.882 -0.0786  0.1448 -0.0674
 2650DOPS   C3B31097  24.078  10.440  12.674 -0.4111  0.0479  0.3393
 2650DOPS   C4B31098  24.272  10.060  12.519 -0.1538 -0.1662  0.0761
 2651DOPE   NH331099  33.326   0.430  14.526 -0.0173  0.0818 -0.1477
 2651DOPE   PO431100  33.520   0.282  14.630  0.3090 -0.0573  0.1601
 2651DOPE   GL131101  33.464   0.201  14.158 -0.0303  0.2239 -0.0001
 2651DOPE   GL231102  33.605   0.066  13.905 -0.1595  0.0371 -0.0222
 2651DOPE   C1A31103  33.252   0.434  13.846 -0.0861 -0.1437  0.1884
 2651DOPE   D2A31104  33.397   0.281  13.478 -0.0282  0.3254  0.2483
 2651DOPE   C3A31105  33.526  -0.054  13.280 -0.0850  0.2376  0.1676
 2651DOPE   C4A31106  33.706  -0.429  13.023  0.1783  0.3598 -0.1823
 2651DOPE   C1B31107  33.934  -0.002  13.611  0.1430 -0.0596 -0.0657
 2651DOPE   D2B31108  34.132  -0.333  13.349 -0.0823 -0.1984 -0.1760
 2651DOPE   C3B31109  34.261  -0.285  12.883 -0.0686 -0.2668  0.1465
 2651DOPE   C4B31110  34.148  -0.105  12.482 -0.2342  0.0351 -0.0253
 2652DOPS   CNO31111  33.192   5.319  14.762 -0.0118  0.0064 -0.1544
 2652DOPS   PO431112  33.267   5.044  14.486 -0.2063 -0.4197 -0.1177
 2652DOPS   GL131113  33.257   5.127  14.051 -0.2928  0.3902  0.4542
 2652DOPS   GL231114  33.117   4.920  13.816  0.0850 -0.1074  0.0221
 2652DOPS   C1A31115  33.330   5.315  13.677  0.1191 -0.3973  0.0607
 2652DOPS   D2A31116  33.298   5.524  13.262 -0.0977 -0.3468 -0.1367
 2652DOPS   C3A31117  33.317   5.584  12.779  0.1556  0.1723  0.0561
 2652DOPS   C4A31118  33.288   5.553  12.345  0.0259 -0.1630 -0.1094
 2652DOPS   C1B31119  32.797   4.747  13.498  0.0173  0.0812 -0.2634
 2652DOPS   D2B31120  32.870   4.325  13.283  0.1079 -0.0812 -0.2513
 2652DOPS   C3B31121  33.273   4.060  13.307 -0.1990 -0.1260  0.1384
 2652DOPS   C4B31122  33.679   3.931  13.174 -0.1125 -0.0720 -0.2299
 2653DOPE   NH331123  33.547   1.417  10.381  0.0704  0.0306 -0.2059
 2653DOPE   PO431124  33.471   1.328  10.675 -0.1494  0.0898 -0.0939
 2653DOPE   GL131125  33.523   1.453  11.087  0.0910  0.0458 -0.2340
 2653DOPE   GL231126  33.431   1.274  11.382 -0.4300 -0.0056 -0.1768
 2653DOPE   C1A31127  33.294   1.839  11.273 -0.6051 -0.3897  0.2781
 2653DOPE   D2A31128  33.152   2.239  11.512  0.1745  0.0246  0.1624
 2653DOPE   C3A31129  32.731   2.262  11.736 -0.1191  0.0406 -0.0619
 2653DOPE   C4A31130  32.299   2.338  11.990  0.1762  0.2580 -0.0607
 2653DOPE   C1B31131  33.787   1.157  11.649  0.2942 -0.0377 -0.0289
 2653DOPE   D2B31132  34.135   0.929  11.651  0.0380 -0.0266  0.1761
 2653DOPE   C3B31133  34.222   0.673  12.013 -0.2214 -0.1761  0.2660
 2653DOPE   C4B31134  34.357   0.751  12.461 -0.0877 -0.1357 -0.5243
 2654DOPS   CNO31135  27.075   5.369  10.810 -0.0551  0.1203 -0.0167
 2654DOPS   PO431136  26.874   5.412  11.134  0.1069 -0.5490 -0.3456
 2654DOPS   GL131137  26.908   5.356  11.546  0.1122 -0.1545  0.1248
 2654DOPS   GL231138  27.005   5.095  11.614  0.0422  0.3000  0.1198
 2654DOPS   C1A31139  27.026   5.416  11.989  0.1538  0.0485 -0.1202
 2654DOPS   D2A31140  27.222   5.108  12.301  0.1766  0.1078 -0.3238
 2654DOPS   C3A31141  27.242   5.384  12.679  0.3284 -0.0465  0.1648
 2654DOPS   C4A31142  27.194   5.768  12.975 -0.1433  0.2855  0.1648
 2654DOPS   C1B31143  26.856   4.924  12.040 -0.2254 -0.0200  0.0728
 2654DOPS   D2B31144  26.741   4.911  12.493 -0.0385 -0.1275 -0.0094
 2654DOPS   C3B31145  26.361   4.979  12.771  0.2026  0.0429  0.2324
 2654DOPS   C4B31146  25.902   4.859  12.734  0.1631 -0.0331 -0.0686
 2655DOPE   NH331147  33.016   1.539  10.607 -0.1279 -0.1079  0.1677
 2655DOPE   PO431148  33.010   1.437  10.839  0.2793 -0.3378 -0.2328
 2655DOPE   GL131149  33.044   1.420  11.260 -0.0523 -0.1461  0.4435
 2655DOPE   GL231150  32.824   1.256  11.285 -0.1221  0.1136  0.2360
 2655DOPE   C1A31151  33.040   1.365  11.712 -0.1549  0.2450  0.0895
 2655DOPE   D2A31152  33.273   1.379  12.076 -0.1436  0.2173  0.0042
 2655DOPE   C3A31153  33.470   0.986  12.281 -0.2700 -0.2456 -0.0445
 2655DOPE   C4A31154  33.529   0.755  12.674 -0.0392 -0.1275  0.1702
 2655DOPE   C1B31155  32.547   1.346  11.687  0.0857  0.4204 -0.0229
 2655DOPE   D2B31156  32.550   1.528  12.077  0.3250 -0.1006 -0.1482
 2655DOPE   C3B31157  32.918   1.811  12.053  0.1293 -0.3098 -0.0054
 2655DOPE   C4B31158  33.167   2.209  12.057  0.5189  0.0532 -0.0005
 2656DOPE   NH331159  32.560   0.335  10.589  0.0549  0.1037 -0.0727
 2656DOPE   PO431160  32.446   0.025  10.541  0.1822  0.2105  0.1663
 2656DOPE   GL131161  32.448   0.143  10.971  0.0608 -0.1140 -0.1402
 2656DOPE   GL231162  32.172   0.231  10.934 -0.2257  0.1924 -0.0350
 2656DOPE   C1A31163  32.716   0.262  11.307 -0.2279 -0.0374  0.0650
 2656DOPE   D2A31164  33.045   0.335  11.651  0.0093  0.0103 -0.0965
 2656DOPE   C3A31165  33.393   0.289  11.966  0.0421  0.0860 -0.1222
 2656DOPE   C4A31166  33.602  -0.125  12.118  0.2229 -0.3305  0.2583
 2656DOPE   C1B31167  32.249   0.049  11.345  0.4530  0.0534  0.0175
 2656DOPE   D2B31168  32.391  -0.006  11.724  0.2006 -0.0594  0.0032
 2656DOPE   C3B31169  32.541  -0.325  12.039  0.3122  0.1654 -0.0877
 2656DOPE   C4B31170  32.675  -0.619  12.449  0.1344  0.3341  0.1367
 2657DOPC   NC331171  33.878   4.140  10.446 -0.0448  0.1127  0.0650
 2657DOPC   PO431172  33.475   4.060  10.381  0.0433  0.2095  0.2460
 2657DOPC   GL131173  33.497   4.147  10.801 -0.3432 -0.0999  0.6606
 2657DOPC   GL231174  33.450   3.873  10.852 -0.1966  0.2099  0.3954
 2657DOPC   C1A31175  33.515   4.280  11.286  0.0146  0.0158 -0.0408
 2657DOPC   D2A31176  33.479   4.514  11.686 -0.1125  0.1038  0.1866
 2657DOPC   C3A31177  33.594   4.339  12.083 -0.1093 -0.0285 -0.0562
 2657DOPC   C4A31178  33.930   4.533  12.297  0.3227  0.2052 -0.1927
 2657DOPC   C1B31179  33.459   3.766  11.319  0.1211  0.3041 -0.3048
 2657DOPC   D2B31180  33.456   3.987  11.709  0.3255 -0.1102 -0.1169
 2657DOPC   C3B31181  33.550   3.786  12.135  0.0707  0.2718  0.0486
 2657DOPC   C4B31182  33.728   3.456  12.388 -0.2973  0.1347 -0.1891
 2658DOPC   NC331183  23.213   8.693   9.991 -0.0324  0.0324  0.0235
 2658DOPC   PO431184  23.163   8.313   9.803 -0.2497 -0.3821 -0.3127
 2658DOPC   GL131185  23.128   8.277  10.209  0.2485  0.2376 -0.0843
 2658DOPC   GL231186  23.076   7.987  10.364  0.0926 -0.2865  0.2539
 2658DOPC   C1A31187  22.877   8.480  10.537  0.0359 -0.0482 -0.0684
 2658DOPC   D2A31188  22.620   8.566  10.963  0.0651 -0.2522  0.1531
 2658DOPC   C3A31189  22.859   8.701  11.377  0.2989  0.0736  0.4722
 2658DOPC   C4A31190  23.286   8.700  11.466 -0.0467 -0.0707 -0.1439
 2658DOPC   C1B31191  23.338   8.206  10.676  0.1320 -0.1323  0.0222
 2658DOPC   D2B31192  23.725   8.531  10.828 -0.1240  0.0401  0.1667
 2658DOPC   C3B31193  23.736   8.644  11.261  0.2552 -0.0977  0.0733
 2658DOPC   C4B31194  23.757   8.723  11.774  0.3877 -0.1338  0.0916
 2659DOPE   NH331195  26.770  10.789  10.896  0.0937 -0.4057  0.2182
 2659DOPE   PO431196  26.575  11.040  10.886  0.2963 -0.0766 -0.1447
 2659DOPE   GL131197  26.616  11.138  11.272 -0.2587  0.0436  0.4603
 2659DOPE   GL231198  26.649  11.314  11.461 -0.1470  0.3481 -0.0937
 2659DOPE   C1A31199  26.782  10.780  11.515 -0.0657  0.0219  0.0266
 2659DOPE   D2A31200  27.187  10.476  11.604  0.0047 -0.1826 -0.0205
 2659DOPE   C3A31201  27.389  10.426  12.048  0.2316  0.0066 -0.2435
 2659DOPE   C4A31202  27.706  10.545  12.401 -0.1600 -0.1385 -0.2185
 2659DOPE   C1B31203  26.374  11.204  11.759 -0.2611 -0.3667 -0.1815
 2659DOPE   D2B31204  26.140  11.043  12.111  0.0207  0.1676 -0.4255
 2659DOPE   C3B31205  26.444  11.015  12.449 -0.0490 -0.3033 -0.0838
 2659DOPE   C4B31206  26.750  10.682  12.605  0.1424  0.1266  0.1466
 2660DOPE   NH331207  31.409   9.629  10.606 -0.2828  0.0738 -0.0523
 2660DOPE   PO431208  31.657   9.805  10.652  0.1535  0.1110  0.3069
 2660DOPE   GL131209  31.651   9.970  10.915 -0.1132 -0.2085  0.1045
 2660DOPE   GL231210  31.417   9.859  11.075 -0.1472 -0.5493  0.0433
 2660DOPE   C1A31211  31.973  10.144  11.232 -0.0430  0.2205  0.0663
 2660DOPE   D2A31212  32.271  10.131  11.612  0.1174  0.0162 -0.2746
 2660DOPE   C3A31213  32.386   9.879  11.992 -0.1957 -0.2766 -0.3127
 2660DOPE   C4A31214  32.564   9.508  12.184 -0.1915  0.4597 -0.0099
 2660DOPE   C1B31215  31.578   9.879  11.476 -0.0825 -0.1175  0.0372
 2660DOPE   D2B31216  31.602   9.481  11.755  0.0432  0.0287 -0.4244
 2660DOPE   C3B31217  31.892   9.460  12.162 -0.0795 -0.1107  0.1532
 2660DOPE   C4B31218  32.183   9.432  12.491  0.1763  0.3050  0.2632
 2661DOPE   NH331219  27.658   5.607  11.670 -0.3012 -0.1449 -0.2211
 2661DOPE   PO431220  27.921   5.775  11.751 -0.0319  0.1551 -0.2565
 2661DOPE   GL131221  28.179   5.794  12.054  0.1332  0.0595 -0.1491
 2661DOPE   GL231222  28.286   6.039  12.253  0.1036  0.0067 -0.3177
 2661DOPE   C1A31223  28.001   5.757  12.490  0.0861  0.0920 -0.0766
 2661DOPE   D2A31224  28.185   5.711  12.922  0.2426  0.0993  0.1039
 2661DOPE   C3A31225  28.438   5.926  13.274 -0.2913  0.1691  0.4147
 2661DOPE   C4A31226  28.442   6.346  13.390 -0.0405 -0.0456 -0.4978
 2661DOPE   C1B31227  28.592   5.730  12.406  0.1317 -0.0819  0.3344
 2661DOPE   D2B31228  29.012   5.510  12.434 -0.3956  0.0854  0.0343
 2661DOPE   C3B31229  29.424   5.557  12.663 -0.1698 -0.0100 -0.2488
 2661DOPE   C4B31230  29.862   5.459  12.732 -0.2004  0.0411  0.0074
 2662POSM   NC331231  26.095   9.244  10.898 -0.0789  0.0534 -0.0746
 2662POSM   PO431232  25.758   9.134  10.729  0.0251  0.1996 -0.0440
 2662POSM   AM131233  25.656   9.151  11.031 -0.1119 -0.0303 -0.0797
 2662POSM   AM231234  25.738   9.327  11.200 -0.1156  0.1837  0.0640
 2662POSM   T1A31235  25.602   8.891  11.440 -0.2219 -0.1460 -0.1260
 2662POSM   C2A31236  25.889   8.609  11.740 -0.1096  0.0155 -0.1656
 2662POSM   C3A31237  26.235   8.660  12.056  0.1213 -0.0611  0.1959
 2662POSM   C1B31238  25.664   9.386  11.515 -0.1336  0.2481 -0.0861
 2662POSM   D2B31239  25.604   9.517  11.953  0.1181 -0.1730  0.1651
 2662POSM   C3B31240  25.748  10.016  12.131  0.2252 -0.0437 -0.3453
 2662POSM   C4B31241  25.561  10.422  12.251  0.1427  0.0876  0.1799
 2663DOPE   NH331242  29.363   7.930  11.356 -0.0296  0.0973  0.1141
 2663DOPE   PO431243  29.209   8.190  11.273 -0.4271 -0.3395  0.1965
 2663DOPE   GL131244  29.276   8.261  11.657  0.1361  0.0599 -0.0204
 2663DOPE   GL231245  29.126   8.183  11.887  0.1719  0.2680  0.1744
 2663DOPE   C1A31246  29.719   8.266  11.811 -0.1842 -0.2348  0.0693
 2663DOPE   D2A31247  30.123   8.036  11.759 -0.1956  0.3779  0.0576
 2663DOPE   C3A31248  30.129   7.573  11.801 -0.0147  0.1917  0.2128
 2663DOPE   C4A31249  30.002   7.158  11.698  0.2195 -0.0697 -0.0075
 2663DOPE   C1B31250  29.440   8.156  12.266  0.1610 -0.4142  0.0948
 2663DOPE   D2B31251  29.668   7.975  12.576 -0.1425  0.1504 -0.0192
 2663DOPE   C3B31252  30.145   7.921  12.661 -0.0334 -0.0363 -0.4239
 2663DOPE   C4B31253  30.535   8.018  12.491  0.2425 -0.2243  0.1441
 2664POSM   NC331254  30.207   9.227  11.035  0.1650  0.0004 -0.3767
 2664POSM   PO431255  29.884   9.240  10.878 -0.1816  0.3522 -0.2076
 2664POSM   AM131256  29.741   9.161  11.196  0.2376 -0.2552 -0.0215
 2664POSM   AM231257  29.547   8.971  11.326  0.0379  0.3830  0.0047
 2664POSM   T1A31258  29.783   9.350  11.661 -0.0131 -0.0130  0.2815
 2664POSM   C2A31259  29.704   9.609  12.055 -0.0048  0.5134  0.1280
 2664POSM   C3A31260  29.825   9.779  12.450 -0.3030 -0.0922 -0.0514
 2664POSM   C1B31261  29.539   8.896  11.659  0.2229 -0.0120  0.2209
 2664POSM   D2B31262  29.373   8.674  12.039  0.0461 -0.0692  0.0884
 2664POSM   C3B31263  29.660   8.644  12.401 -0.0917  0.0887 -0.1441
 2664POSM   C4B31264  29.782   8.464  12.785  0.0970  0.0807  0.0861
 2665POSM   NC331265  28.151   3.426  10.610  0.1807  0.3358  0.3700
 2665POSM   PO431266  28.321   3.501  10.989 -0.1549 -0.0055 -0.3445
 2665POSM   AM131267  28.375   3.549  11.302  0.0455 -0.4051 -0.2336
 2665POSM   AM231268  28.166   3.675  11.463  0.2082 -0.1431  0.0788
 2665POSM   T1A31269  28.588   3.434  11.731 -0.0231  0.1372  0.2583
 2665POSM   C2A31270  28.989   3.324  11.928  0.1091  0.2573 -0.0018
 2665POSM   C3A31271  29.275   3.017  12.020 -0.2414 -0.2084 -0.0872
 2665POSM   C1B31272  28.072   3.555  11.738  0.0230 -0.0777  0.2818
 2665POSM   D2B31273  28.088   3.157  11.954  0.0781 -0.3338  0.1130
 2665POSM   C3B31274  28.218   2.806  11.790 -0.1487 -0.0264 -0.0357
 2665POSM   C4B31275  28.604   2.523  11.882  0.1454  0.2371 -0.2461
 2666DOPC   NC331276  31.545  12.030  10.523 -0.3137  0.3658 -0.0702
 2666DOPC   PO431277  31.876  12.309  10.501  0.1867 -0.0172  0.1961
 2666DOPC   GL131278  31.731  12.463  10.795  0.0860 -0.1050 -0.5205
 2666DOPC   GL231279  31.715  12.277  11.018  0.1974 -0.1748  0.1298
 2666DOPC   C1A31280  31.793  12.783  11.077  0.0515 -0.1757  0.1225
 2666DOPC   D2A31281  31.775  12.843  11.546  0.1670 -0.0685 -0.2315
 2666DOPC   C3A31282  31.496  12.619  11.781 -0.2216 -0.4409 -0.2345
 2666DOPC   C4A31283  31.315  12.516  12.246 -0.0059  0.0927 -0.2368
 2666DOPC   C1B31284  31.785  12.305  11.457  0.0225 -0.3848  0.1617
 2666DOPC   D2B31285  32.083  12.475  11.756  0.2315  0.0489 -0.0197
 2666DOPC   C3B31286  32.120  12.445  12.175 -0.2076 -0.0081  0.0481
 2666DOPC   C4B31287  32.311  12.247  12.517 -0.2031 -0.3108  0.0867
 2667DOPC   NC331288  33.268   7.207  10.744  0.3334  0.0470 -0.4112
 2667DOPC   PO431289  32.996   7.033  10.541 -0.0291  0.0106 -0.0117
 2667DOPC   GL131290  32.994   6.860  10.860 -0.2493 -0.1719  0.0894
 2667DOPC   GL231291  32.599   6.843  10.911  0.0632 -0.2397 -0.1656
 2667DOPC   C1A31292  32.959   6.541  11.147  0.2341  0.0166  0.0385
 2667DOPC   D2A31293  32.867   6.528  11.582  0.0869  0.0208 -0.2361
 2667DOPC   C3A31294  32.879   6.082  11.687  0.1696 -0.1407 -0.2109
 2667DOPC   C4A31295  33.194   5.842  11.829 -0.0776 -0.2497 -0.0468
 2667DOPC   C1B31296  32.516   6.871  11.378  0.2829 -0.3942 -0.0606
 2667DOPC   D2B31297  32.442   6.765  11.819 -0.2244 -0.1698  0.1270
 2667DOPC   C3B31298  32.723   7.038  12.001 -0.2161  0.2668 -0.1197
 2667DOPC   C4B31299  33.200   6.847  11.967  0.2665 -0.0676  0.1046
 2668DOPC   NC331300  28.712   7.636  11.429  0.0129 -0.0518 -0.0432
 2668DOPC   PO431301  28.819   7.993  11.585 -0.1122  0.1600 -0.0304
 2668DOPC   GL131302  28.853   7.730  11.889 -0.1019 -0.2348  0.1229
 2668DOPC   GL231303  28.611   7.832  12.043 -0.0986  0.0403  0.0902
 2668DOPC   C1A31304  29.050   7.859  12.250 -0.0508 -0.1902  0.0219
 2668DOPC   D2A31305  29.179   7.919  12.664 -0.0012 -0.1243  0.0453
 2668DOPC   C3A31306  29.198   7.617  12.996 -0.2494 -0.2626  0.0961
 2668DOPC   C4A31307  28.959   7.401  13.356  0.2627  0.0138 -0.0690
 2668DOPC   C1B31308  28.508   8.207  12.289  0.0974  0.1678 -0.4395
 2668DOPC   D2B31309  28.548   8.223  12.737 -0.0139 -0.0757  0.2303
 2668DOPC   C3B31310  28.856   8.264  13.036  0.4151 -0.0080  0.3446
 2668DOPC   C4B31311  29.213   8.405  13.224 -0.0758 -0.1087 -0.0360
 2669DOPE   NH331312  31.762   5.440  10.160  0.1687 -0.0570 -0.1520
 2669DOPE   PO431313  31.584   5.354  10.408  0.0226 -0.0829  0.2872
 2669DOPE   GL131314  31.335   5.211  10.684  0.0661  0.2498 -0.1506
 2669DOPE   GL231315  31.589   5.119  10.886 -0.0810  0.0483  0.0557
 2669DOPE   C1A31316  31.060   4.898  10.873  0.0065 -0.0033 -0.2229
 2669DOPE   D2A31317  30.899   4.932  11.339 -0.0301 -0.2533 -0.1766
 2669DOPE   C3A31318  31.275   4.966  11.600 -0.1658  0.0390 -0.1381
 2669DOPE   C4A31319  31.499   5.199  11.945 -0.1994  0.2395 -0.2395
 2669DOPE   C1B31320  31.539   4.852  11.244  0.2391 -0.0128  0.0045
 2669DOPE   D2B31321  31.161   4.503  11.349  0.1346  0.2906 -0.0865
 2669DOPE   C3B31322  30.973   4.597  11.793  0.1094 -0.2950 -0.1992
 2669DOPE   C4B31323  31.091   4.351  12.139  0.0473 -0.0476  0.0859
 2670POSM   NC331324  31.816   2.061  10.604 -0.5213  0.0434  0.0968
 2670POSM   PO431325  31.631   1.707  10.444  0.1897 -0.2522  0.0711
 2670POSM   AM131326  31.617   1.717  10.811  0.0209 -0.0217  0.1631
 2670POSM   AM231327  31.754   1.782  11.073  0.1998  0.3650  0.0730
 2670POSM   T1A31328  31.301   1.639  11.178  0.1306  0.1224  0.1456
 2670POSM   C2A31329  31.046   1.490  11.480 -0.0240 -0.3431 -0.2392
 2670POSM   C3A31330  30.644   1.421  11.540  0.0604 -0.2243 -0.0774
 2670POSM   C1B31331  31.795   1.960  11.376 -0.1927 -0.1926  0.2370
 2670POSM   D2B31332  31.665   1.909  11.822 -0.1499  0.0221  0.3537
 2670POSM   C3B31333  31.948   1.885  12.197 -0.2324  0.3147 -0.0045
 2670POSM   C4B31334  32.085   1.613  12.528 -0.0866 -0.0602  0.1874
 2671DOPE   NH331335  25.626  11.917  10.702 -0.1067  0.1073  0.0114
 2671DOPE   PO431336  25.733  12.226  10.786 -0.0054  0.0463  0.1846
 2671DOPE   GL131337  25.725  12.533  11.032  0.0410 -0.1350 -0.3045
 2671DOPE   GL231338  25.756  12.386  11.269 -0.1483  0.0377 -0.1116
 2671DOPE   C1A31339  26.001  12.849  11.217  0.0383 -0.1535 -0.3653
 2671DOPE   D2A31340  26.048  12.843  11.640  0.2774  0.3444 -0.2132
 2671DOPE   C3A31341  25.795  13.109  11.865  0.1057  0.0880  0.0752
 2671DOPE   C4A31342  25.500  13.413  11.767 -0.0857  0.0185  0.3637
 2671DOPE   C1B31343  25.746  12.427  11.719  0.0172 -0.0056 -0.2111
 2671DOPE   D2B31344  25.829  12.479  12.171  0.0275  0.2796 -0.0188
 2671DOPE   C3B31345  25.639  12.660  12.542  0.0192 -0.2473  0.0021
 2671DOPE   C4B31346  25.415  13.091  12.401 -0.1226 -0.2508  0.0869
 2672DOPC   NC331347   0.054   0.534  10.174  0.1005  0.0836  0.0794
 2672DOPC   PO431348  -0.299   0.536  10.273  0.0860 -0.1278  0.1545
 2672DOPC   GL131349  -0.234   0.510  10.651  0.0379  0.3746  0.2631
 2672DOPC   GL231350   0.051   0.534  10.647 -0.0931  0.3686 -0.0006
 2672DOPC   C1A31351  -0.167   0.800  11.020  0.0338 -0.4100  0.2531
 2672DOPC   D2A31352  -0.328   1.066  11.269  0.0565  0.1962 -0.1749
 2672DOPC   C3A31353  -0.063   1.222  11.644  0.0059  0.2504 -0.3460
 2672DOPC   C4A31354   0.132   1.175  12.079  0.0510 -0.1328  0.0443
 2672DOPC   C1B31355   0.212   0.104  10.760  0.0482 -0.1459 -0.1728
 2672DOPC   D2B31356   0.263  -0.313  10.894 -0.1775  0.0840  0.2645
 2672DOPC   C3B31357   0.446  -0.286  11.338 -0.1028 -0.0245  0.3015
 2672DOPC   C4B31358   0.529  -0.001  11.689 -0.1107 -0.3909 -0.1206
 2673POSM   NC331359  30.491   1.921  10.257 -0.0709  0.2488 -0.1206
 2673POSM   PO431360  30.373   1.892  10.623 -0.2945 -0.0070 -0.1018
 2673POSM   AM131361  30.641   1.779  10.768  0.0421  0.1332  0.1960
 2673POSM   AM231362  30.733   1.888  11.005  0.1083  0.0781 -0.5328
 2673POSM   T1A31363  30.752   1.367  11.061 -0.1214  0.2492 -0.2132
 2673POSM   C2A31364  30.911   1.039  11.343  0.1341 -0.1692  0.1236
 2673POSM   C3A31365  31.166   0.982  11.655 -0.0522  0.0465 -0.2495
 2673POSM   C1B31366  30.671   1.861  11.308 -0.0949  0.1152 -0.0242
 2673POSM   D2B31367  30.664   1.834  11.783  0.0611  0.0115  0.1731
 2673POSM   C3B31368  30.603   1.940  12.239  0.0052 -0.1013  0.0545
 2673POSM   C4B31369  30.584   1.974  12.717 -0.2772  0.1749 -0.2112
 2674DOPE   NH331370  32.036   4.211  10.500 -0.1875 -0.0242 -0.2476
 2674DOPE   PO431371  31.778   4.431  10.521 -0.2766  0.0091  0.3942
 2674DOPE   GL131372  31.893   4.669  10.818  0.0765  0.0121  0.0831
 2674DOPE   GL231373  32.182   4.616  10.746 -0.1888 -0.0869 -0.0511
 2674DOPE   C1A31374  31.802   4.477  11.256 -0.5394  0.1829 -0.2660
 2674DOPE   D2A31375  31.783   4.333  11.658 -0.2854  0.0143 -0.0771
 2674DOPE   C3A31376  32.256   4.530  11.651 -0.1472  0.0921 -0.1889
 2674DOPE   C4A31377  32.611   4.684  11.444  0.1183  0.0920 -0.0143
 2674DOPE   C1B31378  32.307   4.309  11.114  0.1519 -0.4242  0.0973
 2674DOPE   D2B31379  32.538   4.089  11.420 -0.2267 -0.1094  0.0023
 2674DOPE   C3B31380  32.353   4.150  11.916  0.1771 -0.0770  0.3937
 2674DOPE   C4B31381  31.973   4.271  12.147  0.1110 -0.2230  0.0266
 2675DOPE   NH331382  24.587   7.142  10.593 -0.2042 -0.0142 -0.0939
 2675DOPE   PO431383  24.276   7.164  10.651  0.0105 -0.0085  0.2968
 2675DOPE   GL131384  24.055   7.131  11.031 -0.0333 -0.3527 -0.1156
 2675DOPE   GL231385  23.841   7.074  11.052  0.0799  0.0957  0.0802
 2675DOPE   C1A31386  24.270   7.038  11.466 -0.0627  0.0013 -0.2070
 2675DOPE   D2A31387  24.278   6.960  11.924  0.2395 -0.2498  0.1759
 2675DOPE   C3A31388  24.726   6.939  12.030  0.1131 -0.1364  0.3132
 2675DOPE   C4A31389  24.985   7.003  12.413 -0.1180 -0.0560 -0.3614
 2675DOPE   C1B31390  23.686   7.179  11.498  0.2488 -0.1271  0.0459
 2675DOPE   D2B31391  23.759   7.072  11.910  0.0517 -0.2346  0.0232
 2675DOPE   C3B31392  23.600   6.894  12.312 -0.2235 -0.0703 -0.1628
 2675DOPE   C4B31393  23.670   6.839  12.759 -0.1329 -0.3480  0.1264
 2676DOPC   NC331394  29.540   9.906  11.047 -0.0890 -0.0905  0.2886
 2676DOPC   PO431395  29.285  10.172  10.897  0.0881 -0.0553 -0.0004
 2676DOPC   GL131396  29.041  10.313  11.190 -0.0545 -0.2195  0.2595
 2676DOPC   GL231397  29.189  10.096  11.396  0.2598 -0.1939  0.2108
 2676DOPC   C1A31398  28.676  10.179  11.521 -0.0158 -0.5061  0.0375
 2676DOPC   D2A31399  28.459  10.159  11.935 -0.2470 -0.0294 -0.1989
 2676DOPC   C3A31400  28.757  10.028  12.315  0.0739 -0.1989  0.1119
 2676DOPC   C4A31401  28.986  10.207  12.685 -0.4306  0.0488  0.2047
 2676DOPC   C1B31402  29.135  10.377  11.758 -0.0327 -0.2934 -0.1222
 2676DOPC   D2B31403  28.999  10.549  12.170  0.2620 -0.0715  0.0088
 2676DOPC   C3B31404  28.591  10.489  12.415 -0.1155  0.1940  0.1357
 2676DOPC   C4B31405  28.256  10.182  12.413  0.2957  0.1519  0.1103
 2677DOPE   NH331406  25.713   9.785  10.904 -0.1514  0.0735 -0.1307
 2677DOPE   PO431407  25.446   9.608  10.874 -0.3037  0.3330  0.0098
 2677DOPE   GL131408  25.372   9.639  11.284  0.2034  0.0316  0.3993
 2677DOPE   GL231409  25.286   9.932  11.258 -0.1634 -0.0742  0.2590
 2677DOPE   C1A31410  25.200   9.605  11.687  0.1931 -0.0395 -0.2597
 2677DOPE   D2A31411  25.005   9.527  12.089  0.1557  0.1189 -0.0172
 2677DOPE   C3A31412  25.329   9.368  12.367  0.0669 -0.1359  0.1370
 2677DOPE   C4A31413  25.764   9.304  12.361 -0.2264  0.3709  0.0583
 2677DOPE   C1B31414  25.692   9.867  11.506  0.0271  0.3156  0.3024
 2677DOPE   D2B31415  26.093   9.985  11.607 -0.4565 -0.0194  0.1799
 2677DOPE   C3B31416  26.187  10.285  11.915  0.0651 -0.2332  0.2913
 2677DOPE   C4B31417  26.422  10.670  11.902  0.0308  0.1692  0.1369
 2678POSM   NC331418  32.701   4.863  10.420  0.0967  0.3113 -0.2156
 2678POSM   PO431419  33.083   4.949  10.423  0.3628 -0.0569 -0.1221
 2678POSM   AM131420  33.067   5.060  10.733 -0.1420 -0.0606  0.3491
 2678POSM   AM231421  32.896   5.211  10.867  0.0993  0.0359 -0.0427
 2678POSM   T1A31422  33.390   5.097  11.107 -0.2022  0.2384  0.0375
 2678POSM   C2A31423  33.557   5.200  11.560 -0.4053  0.3755 -0.0248
 2678POSM   C3A31424  33.616   5.452  11.955  0.1596 -0.2397  0.4685
 2678POSM   C1B31425  32.937   5.219  11.205  0.0324 -0.0414 -0.0093
 2678POSM   D2B31426  33.039   5.269  11.663 -0.1576  0.2340  0.2987
 2678POSM   C3B31427  33.227   5.107  12.075  0.1137  0.2250 -0.3067
 2678POSM   C4B31428  33.591   5.153  12.385 -0.2028  0.0857 -0.1224
 2679DOPC   NC331429  34.033   8.807  10.023  0.1375  0.2220  0.2004
 2679DOPC   PO431430  34.112   9.031  10.318 -0.1962  0.0290 -0.1151
 2679DOPC   GL131431  33.956   9.040  10.655  0.0195 -0.3368  0.1056
 2679DOPC   GL231432  33.596   9.089  10.613  0.1089  0.0507 -0.1763
 2679DOPC   C1A31433  33.959   9.000  11.090  0.3855 -0.1881  0.0694
 2679DOPC   D2A31434  34.130   9.279  11.401 -0.0656 -0.2979 -0.5234
 2679DOPC   C3A31435  34.000   9.231  11.866  0.4337 -0.3180  0.0728
 2679DOPC   C4A31436  33.835   9.489  12.217  0.1994  0.0773  0.2249
 2679DOPC   C1B31437  33.411   9.119  11.016 -0.0603  0.2356  0.0731
 2679DOPC   D2B31438  33.417   8.839  11.398  0.2539 -0.1085  0.3593
 2679DOPC   C3B31439  33.714   8.750  11.738 -0.0003  0.1931  0.0370
 2679DOPC   C4B31440  33.976   8.795  12.126 -0.2094 -0.0767 -0.0373
 2680POSM   NC331441  30.591   8.525  10.585 -0.2258  0.1937 -0.1166
 2680POSM   PO431442  30.568   8.136  10.687  0.2186 -0.1349 -0.1713
 2680POSM   AM131443  30.782   8.147  10.949  0.3165  0.0503 -0.2692
 2680POSM   AM231444  31.032   8.259  11.009  0.0827 -0.0260  0.1445
 2680POSM   T1A31445  31.010   7.900  11.329  0.0574  0.1209  0.0056
 2680POSM   C2A31446  31.153   7.584  11.642 -0.0440  0.0208 -0.0167
 2680POSM   C3A31447  31.010   7.535  12.034 -0.1385  0.2924 -0.0283
 2680POSM   C1B31448  31.145   8.385  11.285 -0.1872  0.0957  0.3398
 2680POSM   D2B31449  31.321   8.242  11.675 -0.2077  0.0530  0.1348
 2680POSM   C3B31450  31.779   8.167  11.744 -0.4580 -0.2749 -0.1035
 2680POSM   C4B31451  32.078   8.091  12.058  0.4729  0.0687 -0.0158
 2681DOPE   NH331452  33.403   3.048  10.604 -0.1430 -0.1718  0.1801
 2681DOPE   PO431453  33.122   3.028  10.447 -0.0062  0.0844 -0.2233
 2681DOPE   GL131454  33.005   3.226  10.768  0.0908 -0.0148 -0.2125
 2681DOPE   GL231455  32.975   2.961  10.901  0.3318 -0.0843 -0.1512
 2681DOPE   C1A31456  32.839   3.228  11.258 -0.3470  0.0103  0.0747
 2681DOPE   D2A31457  32.811   3.218  11.719 -0.0525 -0.2417 -0.2054
 2681DOPE   C3A31458  32.925   3.143  12.148  0.0271 -0.0762 -0.0946
 2681DOPE   C4A31459  33.165   3.334  12.436 -0.0795  0.0898 -0.0690
 2681DOPE   C1B31460  33.352   2.813  11.179 -0.0365  0.0716 -0.1359
 2681DOPE   D2B31461  33.633   2.751  11.510 -0.4425 -0.4556 -0.0327
 2681DOPE   C3B31462  33.490   2.558  11.866 -0.1032  0.5046 -0.1722
 2681DOPE   C4B31463  33.704   2.460  12.280  0.2723  0.0882 -0.2611
 2682DOPC   NC331464   1.540   3.678  10.991  0.2634  0.3314  0.0428
 2682DOPC   PO431465   1.354   3.862  10.680  0.1369 -0.3944 -0.0823
 2682DOPC   GL131466   1.035   4.039  10.951  0.3075 -0.0783 -0.0739
 2682DOPC   GL231467   1.170   4.208  11.196 -0.0443 -0.3810  0.1335
 2682DOPC   C1A31468   0.764   3.913  11.331 -0.1742 -0.4446 -0.0270
 2682DOPC   D2A31469   0.443   4.080  11.519  0.3058  0.0648  0.0536
 2682DOPC   C3A31470   0.410   3.940  11.969 -0.1932 -0.2746 -0.2427
 2682DOPC   C4A31471   0.742   4.077  12.257  0.1198 -0.0632 -0.0999
 2682DOPC   C1B31472   1.514   4.181  11.527  0.0992  0.0477  0.0579
 2682DOPC   D2B31473   1.684   4.327  11.945 -0.2834 -0.5173 -0.2498
 2682DOPC   C3B31474   1.495   4.190  12.318  0.2480  0.0797 -0.0998
 2682DOPC   C4B31475   1.155   4.091  12.555  0.0123  0.3836  0.1893
 2683DOPE   NH331476  34.162   0.175  10.054  0.1652 -0.1384  0.0422
 2683DOPE   PO431477  34.301  -0.069  10.135  0.1792  0.0778 -0.0959
 2683DOPE   GL131478  34.284   0.108  10.546 -0.1243  0.3411 -0.2763
 2683DOPE   GL231479  34.025   0.100  10.560  0.0822 -0.3051 -0.1699
 2683DOPE   C1A31480  34.511   0.000  10.967  0.1233  0.0493 -0.0107
 2683DOPE   D2A31481  34.662  -0.037  11.390 -0.0819 -0.1442  0.0760
 2683DOPE   C3A31482  34.730   0.192  11.779 -0.0953 -0.1830 -0.0939
 2683DOPE   C4A31483  34.952   0.117  12.182  0.2478 -0.2002 -0.0059
 2683DOPE   C1B31484  34.123   0.385  10.890 -0.1261  0.0108  0.0709
 2683DOPE   D2B31485  33.756   0.428  11.187  0.0514 -0.0373 -0.1486
 2683DOPE   C3B31486  33.824   0.433  11.640  0.3476  0.2526  0.2576
 2683DOPE   C4B31487  33.742   0.737  11.982 -0.1103  0.0531  0.0635
 2684POSM   NC331488  23.586   5.473  10.742  0.0926  0.1856  0.3640
 2684POSM   PO431489  23.733   5.125  10.737 -0.0679  0.2062 -0.1144
 2684POSM   AM131490  23.677   5.189  11.078 -0.3747 -0.0314  0.0437
 2684POSM   AM231491  23.547   5.352  11.284 -0.1885 -0.0791  0.1631
 2684POSM   T1A31492  24.027   5.244  11.425 -0.0839 -0.0171  0.0590
 2684POSM   C2A31493  24.267   5.185  11.813 -0.5304 -0.2604 -0.1949
 2684POSM   C3A31494  24.728   5.091  11.831  0.0993  0.1552 -0.0422
 2684POSM   C1B31495  23.620   5.571  11.563  0.1503 -0.1808 -0.2922
 2684POSM   D2B31496  23.340   5.829  11.852 -0.0477  0.0715 -0.3249
 2684POSM   C3B31497  23.192   5.906  12.264 -0.0120  0.0619 -0.0602
 2684POSM   C4B31498  22.895   6.184  12.435 -0.3098  0.3860  0.0995
 2685DOPC   NC331499  30.246   5.784  11.174  0.0761 -0.1206 -0.1853
 2685DOPC   PO431500  30.502   6.052  11.046 -0.0299 -0.0405  0.0861
 2685DOPC   GL131501  30.686   5.953  11.364  0.1111  0.0167  0.1996
 2685DOPC   GL231502  30.532   5.785  11.624  0.1196 -0.0217 -0.1554
 2685DOPC   C1A31503  31.039   6.056  11.596 -0.1520  0.1274 -0.0886
 2685DOPC   D2A31504  31.475   6.106  11.740 -0.0291 -0.0073 -0.2756
 2685DOPC   C3A31505  31.612   6.049  12.227 -0.2441  0.3109  0.0351
 2685DOPC   C4A31506  31.909   5.962  12.551 -0.2639  0.0421  0.0911
 2685DOPC   C1B31507  30.635   5.662  12.037 -0.0411  0.0117  0.0651
 2685DOPC   D2B31508  30.771   5.414  12.449 -0.0472 -0.0716  0.0396
 2685DOPC   C3B31509  30.387   5.203  12.683  0.3078 -0.3922 -0.0918
 2685DOPC   C4B31510  29.992   4.900  12.776 -0.3163 -0.0521  0.1084
 2686POSM   NC331511  34.271   3.079  10.110  0.1698 -0.0567  0.4292
 2686POSM   PO431512  34.247   3.433  10.391  0.3129 -0.1538  0.1942
 2686POSM   AM131513  34.323   3.486  10.701  0.2275 -0.2306 -0.3600
 2686POSM   AM231514  34.567   3.444  10.870 -0.2090 -0.1103 -0.1787
 2686POSM   T1A31515  34.159   3.471  11.184  0.2255 -0.4057 -0.1687
 2686POSM   C2A31516  33.953   3.609  11.596 -0.0060 -0.3280  0.2971
 2686POSM   C3A31517  33.656   3.425  11.864  0.2663  0.0992 -0.4026
 2686POSM   C1B31518  34.799   3.254  11.056 -0.1966  0.1201 -0.1821
 2686POSM   D2B31519  34.980   3.100  11.465 -0.1602  0.0319  0.3520
 2686POSM   C3B31520  34.792   3.089  11.892  0.1202 -0.1700 -0.0909
 2686POSM   C4B31521  34.538   3.021  12.275  0.0038  0.1823  0.1447
 2687POSM   NC331522  26.516   6.826  11.404  0.1873  0.1066  0.2079
 2687POSM   PO431523  26.238   7.041  11.207  0.1680 -0.1310  0.3877
 2687POSM   AM131524  26.036   7.059  11.450  0.2154 -0.1129  0.3509
 2687POSM   AM231525  25.783   7.017  11.549  0.0371 -0.2858  0.1547
 2687POSM   T1A31526  25.902   7.324  11.881  0.0102 -0.3950 -0.0537
 2687POSM   C2A31527  25.940   7.685  12.068 -0.0999  0.0480 -0.0652
 2687POSM   C3A31528  25.725   7.914  12.417 -0.2603  0.2138 -0.0489
 2687POSM   C1B31529  25.682   6.905  11.850 -0.2237 -0.1384 -0.1027
 2687POSM   D2B31530  25.494   7.050  12.272 -0.2150  0.2118 -0.2649
 2687POSM   C3B31531  25.535   6.920  12.737 -0.0846 -0.2234 -0.2487
 2687POSM   C4B31532  25.454   6.705  13.140  0.1828 -0.1075  0.0566
 2688DOPC   NC331533  34.635   3.731  10.450  0.1779  0.0284  0.1299
 2688DOPC   PO431534  34.393   4.020  10.619 -0.0566 -0.0022 -0.0542
 2688DOPC   GL131535  34.416   4.094  11.059 -0.0817 -0.1312 -0.2532
 2688DOPC   GL231536  34.457   3.868  11.090  0.2543  0.0184  0.0632
 2688DOPC   C1A31537  34.424   4.414  11.399 -0.0403  0.1447 -0.1720
 2688DOPC   D2A31538  34.494   4.626  11.821  0.1601  0.2194 -0.1088
 2688DOPC   C3A31539  34.378   5.035  11.976  0.0144 -0.0712 -0.0499
 2688DOPC   C4A31540  34.066   5.260  12.203  0.0348  0.0152 -0.0248
 2688DOPC   C1B31541  34.363   3.964  11.548 -0.1254  0.2311 -0.0811
 2688DOPC   D2B31542  34.696   4.118  11.798  0.3456  0.4572  0.0698
 2688DOPC   C3B31543  34.758   4.036  12.215  0.2415  0.0881 -0.0425
 2688DOPC   C4B31544  34.791   4.064  12.652  0.0240  0.1422 -0.1234
 2689DOPE   NH331545  26.875   3.818  11.489 -0.0983  0.0369 -0.0147
 2689DOPE   PO431546  26.596   3.804  11.616 -0.0903 -0.0759  0.0404
 2689DOPE   GL131547  26.422   3.705  11.896 -0.1060  0.2724 -0.0279
 2689DOPE   GL231548  26.361   3.444  11.977  0.1417  0.0995  0.0946
 2689DOPE   C1A31549  26.039   3.798  12.071 -0.0405 -0.0031  0.0400
 2689DOPE   D2A31550  25.830   4.248  12.080 -0.0049  0.2020  0.4328
 2689DOPE   C3A31551  25.680   4.228  12.550 -0.1332  0.1972  0.0345
 2689DOPE   C4A31552  25.771   3.945  12.934 -0.1560 -0.0322  0.0778
 2689DOPE   C1B31553  26.577   3.758  12.298 -0.0588 -0.3151 -0.0722
 2689DOPE   D2B31554  26.944   3.837  12.643  0.1151 -0.1351 -0.0365
 2689DOPE   C3B31555  27.031   3.494  12.934 -0.0503 -0.1833  0.3067
 2689DOPE   C4B31556  26.822   3.184  13.304  0.0058 -0.3145  0.1909
 2690POSM   NC331557  28.992  11.678  10.514 -0.1186 -0.1209 -0.0744
 2690POSM   PO431558  28.606  11.685  10.616  0.1182  0.0072 -0.1785
 2690POSM   AM131559  28.464  11.522  10.850  0.0432 -0.0219 -0.2122
 2690POSM   AM231560  28.374  11.629  11.089  0.0642 -0.1495  0.3782
 2690POSM   T1A31561  28.478  11.142  11.212  0.1926 -0.0427 -0.2151
 2690POSM   C2A31562  28.352  11.144  11.646  0.2593  0.0289 -0.0758
 2690POSM   C3A31563  28.174  11.250  12.052  0.2310 -0.1013  0.3440
 2690POSM   C1B31564  28.477  11.846  11.351 -0.0377  0.1831  0.0836
 2690POSM   D2B31565  28.704  11.980  11.705 -0.0725  0.3216 -0.2291
 2690POSM   C3B31566  28.465  12.231  11.974 -0.2681 -0.0081  0.1292
 2690POSM   C4B31567  28.079  12.381  12.133  0.2483  0.1589  0.0005
 2691POSM   NC331568  31.920   2.743  10.406  0.1836  0.1667 -0.2667
 2691POSM   PO431569  31.695   2.551  10.650 -0.1240  0.0583 -0.0911
 2691POSM   AM131570  31.447   2.636  10.822  0.1348 -0.0012 -0.0283
 2691POSM   AM231571  31.431   2.641  11.105 -0.3669  0.0682  0.1115
 2691POSM   T1A31572  31.242   3.021  11.172 -0.3763 -0.4208  0.1734
 2691POSM   C2A31573  31.202   3.200  11.591 -0.0293  0.0465  0.0662
 2691POSM   C3A31574  31.082   3.309  12.049 -0.2864 -0.1871  0.3273
 2691POSM   C1B31575  31.708   2.540  11.337 -0.1683  0.5084  0.0502
 2691POSM   D2B31576  31.883   2.338  11.697 -0.1252 -0.1813 -0.3104
 2691POSM   C3B31577  31.810   2.339  12.177  0.1624 -0.0395  0.2752
 2691POSM   C4B31578  31.609   2.462  12.556 -0.1010 -0.0029  0.0424
 2692DOPS   CNO31579  33.107   4.442  10.414  0.2679  0.2049 -0.2848
 2692DOPS   PO431580  32.842   4.465  10.693  0.1554 -0.0080 -0.0459
 2692DOPS   GL131581  32.921   4.462  11.138 -0.0214 -0.2233 -0.1081
 2692DOPS   GL231582  33.057   4.178  11.064 -0.0359 -0.0657 -0.0282
 2692DOPS   C1A31583  33.091   4.795  11.417 -0.1388  0.2867 -0.3617
 2692DOPS   D2A31584  32.950   4.769  11.835 -0.1522  0.1189 -0.0399
 2692DOPS   C3A31585  33.183   4.587  12.203  0.1762 -0.1040  0.0177
 2692DOPS   C4A31586  33.409   4.667  12.582 -0.2154  0.0593  0.4946
 2692DOPS   C1B31587  32.944   4.291  11.533  0.0613 -0.0762 -0.0337
 2692DOPS   D2B31588  32.908   4.148  11.988 -0.2374 -0.0985  0.0626
 2692DOPS   C3B31589  32.702   4.494  12.273  0.1901 -0.1337 -0.3701
 2692DOPS   C4B31590  32.777   4.418  12.691 -0.0267 -0.0336 -0.2430
 2693DOPC   NC331591  26.487  10.167  10.664 -0.1489  0.0254 -0.1228
 2693DOPC   PO431592  26.844  10.360  10.650  0.2308 -0.0901 -0.1808
 2693DOPC   GL131593  26.798  10.212  11.021  0.0992  0.0953 -0.0607
 2693DOPC   GL231594  26.570  10.086  11.159 -0.1037 -0.5118 -0.0328
 2693DOPC   C1A31595  27.057  10.051  11.393  0.4387 -0.0585 -0.1088
 2693DOPC   D2A31596  27.051   9.864  11.792 -0.0315 -0.0451 -0.1120
 2693DOPC   C3A31597  27.007  10.061  12.191 -0.0148  0.1575 -0.1786
 2693DOPC   C4A31598  27.247  10.360  12.522  0.1569 -0.1166 -0.1356
 2693DOPC   C1B31599  26.602   9.800  11.525 -0.0105 -0.1483 -0.0922
 2693DOPC   D2B31600  26.606   9.921  11.978  0.4518 -0.1054  0.1492
 2693DOPC   C3B31601  26.604   9.536  12.278 -0.1176 -0.3175 -0.2110
 2693DOPC   C4B31602  26.377   9.333  12.604  0.1031  0.0689  0.3590
 2694POSM   NC331603  21.826   6.830  10.330  0.0047  0.0483  0.1584
 2694POSM   PO431604  22.052   6.533  10.214  0.1846  0.0192  0.1266
 2694POSM   AM131605  22.156   6.575  10.533  0.0686 -0.1902  0.3145
 2694POSM   AM231606  22.008   6.643  10.751 -0.0881 -0.1745 -0.0191
 2694POSM   T1A31607  22.447   6.812  10.877  0.3182 -0.0926 -0.0168
 2694POSM   C2A31608  22.524   6.910  11.291  0.2264  0.0764  0.1481
 2694POSM   C3A31609  22.363   7.104  11.672 -0.2360  0.2120  0.0756
 2694POSM   C1B31610  21.930   6.774  11.005  0.1577  0.0146 -0.2004
 2694POSM   D2B31611  21.998   6.869  11.476 -0.2347  0.2874 -0.0986
 2694POSM   C3B31612  21.752   7.243  11.536 -0.1000 -0.0820  0.1127
 2694POSM   C4B31613  21.435   7.563  11.276  0.1792  0.1164 -0.0767
 2695DOPE   NH331614  30.520   3.126  10.740 -0.2576 -0.1965 -0.0726
 2695DOPE   PO431615  30.380   2.824  10.670  0.1405  0.3128 -0.1116
 2695DOPE   GL131616  30.500   2.714  11.017 -0.1494  0.1703 -0.0936
 2695DOPE   GL231617  30.429   2.925  11.177 -0.1522  0.0169 -0.1949
 2695DOPE   C1A31618  30.383   2.427  11.361 -0.2881  0.1766 -0.1647
 2695DOPE   D2A31619  30.261   2.081  11.562  0.3198  0.0348 -0.0793
 2695DOPE   C3A31620  29.991   1.971  11.935  0.3461 -0.1754 -0.0642
 2695DOPE   C4A31621  30.093   1.785  12.343 -0.1325 -0.2454 -0.0690
 2695DOPE   C1B31622  30.784   2.818  11.405  0.1764 -0.1639 -0.0145
 2695DOPE   D2B31623  31.213   2.713  11.660  0.0414  0.0568  0.0314
 2695DOPE   C3B31624  31.366   2.485  11.977 -0.1301 -0.1574 -0.1152
 2695DOPE   C4B31625  31.382   2.058  12.264 -0.0168  0.0954 -0.1486
 2696POSM   NC331626  25.269   9.186  10.677  0.0835  0.4197 -0.0173
 2696POSM   PO431627  24.932   9.387  10.693 -0.1914 -0.0123 -0.1717
 2696POSM   AM131628  24.993   9.405  10.987 -0.1141  0.0188 -0.3949
 2696POSM   AM231629  24.911   9.577  11.161 -0.3678 -0.0581 -0.2388
 2696POSM   T1A31630  25.204   9.221  11.370  0.1825 -0.0489  0.1301
 2696POSM   C2A31631  25.314   9.132  11.781  0.1028  0.0826 -0.0123
 2696POSM   C3A31632  25.696   8.999  11.946 -0.0794 -0.1381  0.1262
 2696POSM   C1B31633  24.757   9.397  11.391  0.1068  0.3162  0.0290
 2696POSM   D2B31634  24.714   9.223  11.831  0.1267  0.1619 -0.2686
 2696POSM   C3B31635  24.316   9.069  12.023 -0.3923 -0.1716 -0.1929
 2696POSM   C4B31636  24.120   8.704  12.186  0.0015  0.1639 -0.0112
 2697POSM   NC331637  28.200   8.982  11.397  0.2010  0.2860  0.3228
 2697POSM   PO431638  28.535   8.786  11.367  0.0451  0.0617 -0.0588
 2697POSM   AM131639  28.554   8.787  11.679  0.0762 -0.3154 -0.1695
 2697POSM   AM231640  28.499   8.888  11.939  0.2442  0.0025 -0.0070
 2697POSM   T1A31641  28.888   8.540  12.010  0.0248 -0.0238  0.2056
 2697POSM   C2A31642  29.007   8.333  12.411 -0.2429 -0.4351 -0.0093
 2697POSM   C3A31643  29.318   8.372  12.746  0.1693 -0.1781  0.7670
 2697POSM   C1B31644  28.603   8.787  12.276 -0.0239 -0.2195 -0.4072
 2697POSM   D2B31645  28.654   8.677  12.714 -0.1173  0.1517 -0.1528
 2697POSM   C3B31646  29.008   8.825  12.962 -0.2065 -0.0163  0.0253
 2697POSM   C4B31647  29.469   8.836  12.920  0.0752 -0.4073  0.2738
 2698POSM   NC331648  27.173   7.211  11.220  0.3157 -0.0747 -0.1380
 2698POSM   PO431649  26.835   7.223  11.426 -0.0714  0.0196  0.0412
 2698POSM   AM131650  26.559   7.348  11.566  0.1313 -0.0935  0.1964
 2698POSM   AM231651  26.386   7.198  11.722 -0.0459  0.0653  0.0833
 2698POSM   T1A31652  26.483   7.694  11.916  0.1469 -0.0767  0.2003
 2698POSM   C2A31653  26.294   7.957  12.246  0.0115  0.0982 -0.2386
 2698POSM   C3A31654  26.191   8.036  12.725  0.3208 -0.1906 -0.3010
 2698POSM   C1B31655  26.312   7.138  12.048 -0.0664 -0.2355 -0.1269
 2698POSM   D2B31656  25.955   7.304  12.373  0.2984  0.0220 -0.2372
 2698POSM   C3B31657  26.164   7.451  12.783  0.2939  0.0697 -0.2026
 2698POSM   C4B31658  26.576   7.658  12.898 -0.1783  0.2806 -0.1306
 2699DOPS   CNO31659   0.113   6.103  10.143  0.0098 -0.1886  0.1426
 2699DOPS   PO431660   0.454   6.192  10.009 -0.1314  0.0159  0.1398
 2699DOPS   GL131661   0.437   6.309  10.424  0.5150 -0.2331 -0.3783
 2699DOPS   GL231662   0.569   6.133  10.603  0.1230 -0.2506  0.2426
 2699DOPS   C1A31663   0.123   6.298  10.734 -0.3338  0.1291 -0.4677
 2699DOPS   D2A31664  -0.022   6.474  11.109  0.0233 -0.0310  0.1828
 2699DOPS   C3A31665  -0.069   6.527  11.569  0.1934  0.1737  0.1744
 2699DOPS   C4A31666  -0.217   6.750  11.956 -0.1416 -0.0658 -0.0239
 2699DOPS   C1B31667   0.590   6.195  11.050 -0.1683  0.2663  0.3529
 2699DOPS   D2B31668   0.352   6.268  11.368  0.0818  0.0363  0.0166
 2699DOPS   C3B31669   0.476   6.088  11.812  0.0004 -0.2735 -0.2772
 2699DOPS   C4B31670   0.190   5.781  11.984  0.0098  0.0634 -0.1167
 2700POSM   NC331671  29.099   4.378  11.184 -0.2669 -0.0077 -0.1811
 2700POSM   PO431672  29.246   4.728  11.322 -0.1630 -0.0335  0.1559
 2700POSM   AM131673  29.194   4.564  11.622 -0.1200 -0.1053 -0.7147
 2700POSM   AM231674  29.203   4.290  11.674 -0.0469 -0.1160  0.2633
 2700POSM   T1A31675  29.061   4.485  12.083 -0.1443  0.1449 -0.1899
 2700POSM   C2A31676  28.961   4.347  12.531 -0.1755 -0.5403 -0.0911
 2700POSM   C3A31677  28.696   4.293  12.962 -0.1505  0.3549 -0.0495
 2700POSM   C1B31678  29.371   4.145  11.928  0.2166 -0.0739 -0.0268
 2700POSM   D2B31679  29.527   3.932  12.271 -0.1674 -0.0389  0.1420
 2700POSM   C3B31680  29.448   4.010  12.775 -0.1953  0.1394 -0.1042
 2700POSM   C4B31681  29.284   4.319  13.055  0.3126  0.0740 -0.0922
 2701DOPE   NH331682   0.716   4.515  10.167 -0.1498 -0.1197  0.0284
 2701DOPE   PO431683   0.711   4.597  10.471 -0.2933 -0.0095  0.2973
 2701DOPE   GL131684   0.788   4.441  10.829 -0.3878  0.1056 -0.0431
 2701DOPE   GL231685   0.972   4.638  10.905  0.2302 -0.1720 -0.1192
 2701DOPE   C1A31686   0.706   4.405  11.309  0.0387 -0.0007 -0.0495
 2701DOPE   D2A31687   0.772   4.376  11.755 -0.2000  0.0062  0.1537
 2701DOPE   C3A31688   1.067   4.027  11.762  0.0638 -0.0905 -0.1365
 2701DOPE   C4A31689   1.423   3.811  11.970 -0.1580  0.3476  0.0804
 2701DOPE   C1B31690   0.842   4.955  11.228  0.1988  0.0018 -0.0301
 2701DOPE   D2B31691   0.460   4.959  11.380  0.0877 -0.0289 -0.2994
 2701DOPE   C3B31692   0.640   4.880  11.798 -0.3477 -0.0278  0.1300
 2701DOPE   C4B31693   0.536   4.842  12.240  0.0902  0.0012 -0.0543
 2702DOPE   NH331694  34.394  12.378  10.481  0.1289 -0.5017 -0.0314
 2702DOPE   PO431695  34.116  12.543  10.538  0.2432 -0.1068 -0.0451
 2702DOPE   GL131696  34.180  12.474  10.937  0.1576  0.1158 -0.0669
 2702DOPE   GL231697  34.413  12.647  11.020  0.0300 -0.3775  0.1033
 2702DOPE   C1A31698  34.235  12.163  11.296  0.0093  0.2824 -0.4884
 2702DOPE   D2A31699  33.875  12.178  11.669  0.0065  0.1689 -0.0336
 2702DOPE   C3A31700  34.115  12.082  12.045 -0.3050  0.1728  0.0941
 2702DOPE   C4A31701  34.029  11.885  12.452 -0.0825  0.3165 -0.2084
 2702DOPE   C1B31702  34.571  12.468  11.431 -0.1546 -0.2523  0.1624
 2702DOPE   D2B31703  34.562  12.373  11.896  0.2436 -0.3679  0.0556
 2702DOPE   C3B31704  34.419  12.767  12.076  0.0149 -0.1404 -0.0636
 2702DOPE   C4B31705  34.668  13.075  12.228 -0.0834  0.1276 -0.0621
 2703DOPE   NH331706  30.671   6.416  10.742  0.0441  0.0439 -0.0150
 2703DOPE   PO431707  30.902   6.231  10.703  0.2686 -0.2072 -0.2579
 2703DOPE   GL131708  31.037   6.303  11.049  0.0527 -0.0866  0.0367
 2703DOPE   GL231709  30.837   6.383  11.208 -0.2397 -0.0007 -0.0697
 2703DOPE   C1A31710  31.442   6.206  11.217  0.2980 -0.0854  0.3053
 2703DOPE   D2A31711  31.862   6.160  11.392 -0.2819  0.1811  0.0214
 2703DOPE   C3A31712  32.028   6.054  11.771 -0.2168  0.1612 -0.1213
 2703DOPE   C4A31713  32.146   6.147  12.150  0.4219 -0.0382 -0.0424
 2703DOPE   C1B31714  30.733   6.666  11.545 -0.0465  0.0815 -0.0218
 2703DOPE   D2B31715  30.637   6.672  12.017 -0.2919  0.0226  0.0986
 2703DOPE   C3B31716  30.881   6.649  12.404 -0.0324 -0.0787 -0.0616
 2703DOPE   C4B31717  31.134   6.635  12.712 -0.5258 -0.2050  0.0573
 2704DOPE   NH331718  24.452   2.769  11.536 -0.3731 -0.3585  0.2190
 2704DOPE   PO431719  24.322   3.071  11.462  0.0330 -0.0960  0.0114
 2704DOPE   GL131720  24.411   3.165  11.844  0.2527  0.2212 -0.2253
 2704DOPE   GL231721  24.687   3.064  11.910  0.2483 -0.0319 -0.1487
 2704DOPE   C1A31722  24.448   3.572  12.139  0.0009  0.2955 -0.2139
 2704DOPE   D2A31723  24.332   3.839  12.534  0.0884  0.3183  0.2437
 2704DOPE   C3A31724  24.268   3.758  12.990 -0.0520 -0.2076  0.0351
 2704DOPE   C4A31725  24.219   3.510  13.388  0.1243  0.0877 -0.1103
 2704DOPE   C1B31726  25.022   2.885  12.099  0.0810  0.0593  0.1373
 2704DOPE   D2B31727  25.057   2.688  12.471 -0.0919 -0.0571  0.2111
 2704DOPE   C3B31728  24.894   2.936  12.818  0.0724 -0.1381 -0.0618
 2704DOPE   C4B31729  24.947   3.370  12.992 -0.1172  0.1908  0.0307
 2705POSM   NC331730  23.906   4.272  11.316  0.1751  0.1909 -0.3348
 2705POSM   PO431731  23.820   3.863  11.302 -0.2399  0.1303 -0.2694
 2705POSM   AM131732  23.822   3.913  11.626  0.2420  0.2657  0.0252
 2705POSM   AM231733  23.737   4.109  11.748  0.0751 -0.1681 -0.0907
 2705POSM   T1A31734  23.892   3.778  12.080  0.1068 -0.0595 -0.0611
 2705POSM   C2A31735  23.756   3.703  12.502  0.3933  0.2023 -0.2782
 2705POSM   C3A31736  23.784   3.497  12.945 -0.2388  0.1388 -0.1298
 2705POSM   C1B31737  23.794   4.323  12.018 -0.1636  0.1139  0.0685
 2705POSM   D2B31738  23.653   4.432  12.455 -0.2310  0.1234 -0.0602
 2705POSM   C3B31739  23.158   4.404  12.425  0.2436  0.1755  0.1930
 2705POSM   C4B31740  22.768   4.720  12.372 -0.1230  0.0427 -0.1859
 2706DOPC   NC331741  32.979   7.904  10.080 -0.3064 -0.1941  0.0407
 2706DOPC   PO431742  32.668   8.020  10.303 -0.2043  0.1329 -0.0792
 2706DOPC   GL131743  32.371   8.061  10.656 -0.2477  0.2552  0.0355
 2706DOPC   GL231744  32.423   7.970  10.959  0.4021  0.1516  0.1955
 2706DOPC   C1A31745  32.092   8.288  10.967  0.1904  0.0272  0.1753
 2706DOPC   D2A31746  31.671   8.359  11.176  0.0897  0.1103  0.1851
 2706DOPC   C3A31747  31.498   7.966  11.286 -0.0142  0.2560 -0.0872
 2706DOPC   C4A31748  31.450   7.546  11.211 -0.0374  0.0641 -0.2051
 2706DOPC   C1B31749  32.638   7.814  11.356 -0.0429  0.2656  0.0507
 2706DOPC   D2B31750  32.776   7.499  11.718  0.1017 -0.1681 -0.1795
 2706DOPC   C3B31751  32.530   7.475  12.095  0.0693 -0.2810 -0.0578
 2706DOPC   C4B31752  32.201   7.162  12.250  0.1003 -0.0420  0.1233
 2707DOPC   NC331753  30.959   9.761  10.868  0.3054  0.2236  0.2428
 2707DOPC   PO431754  31.035   9.394  10.860 -0.0780  0.3949  0.0727
 2707DOPC   GL131755  31.042   9.288  11.253  0.1439 -0.0017 -0.0830
 2707DOPC   GL231756  31.097   9.490  11.439  0.1960  0.0593  0.0576
 2707DOPC   C1A31757  30.719   9.165  11.582 -0.0375 -0.1070  0.0275
 2707DOPC   D2A31758  30.374   8.972  11.775  0.1078  0.2347  0.0454
 2707DOPC   C3A31759  30.404   8.843  12.185  0.2660  0.1082  0.0551
 2707DOPC   C4A31760  30.707   8.652  12.421 -0.0657  0.1189  0.0398
 2707DOPC   C1B31761  31.273   9.100  11.623  0.1077  0.2364 -0.1017
 2707DOPC   D2B31762  31.231   8.728  11.967  0.0389  0.2084  0.0475
 2707DOPC   C3B31763  31.559   8.394  12.131  0.1516  0.3096 -0.0821
 2707DOPC   C4B31764  32.030   8.557  12.224 -0.1513 -0.1050  0.1052
 2708POSM   NC331765  26.068   6.118  11.708 -0.0941 -0.0375 -0.1548
 2708POSM   PO431766  26.155   5.784  11.475  0.0155  0.4562  0.1702
 2708POSM   AM131767  26.210   5.712  11.773  0.0785  0.2586 -0.0217
 2708POSM   AM231768  26.063   5.514  11.909 -0.1376  0.0692 -0.1321
 2708POSM   T1A31769  26.289   5.853  12.213 -0.1499  0.0758 -0.1353
 2708POSM   C2A31770  26.235   5.800  12.634 -0.0110 -0.3557 -0.0963
 2708POSM   C3A31771  26.358   5.465  13.046  0.0505 -0.3616 -0.0564
 2708POSM   C1B31772  25.952   5.497  12.259 -0.0349 -0.0781  0.1513
 2708POSM   D2B31773  25.898   5.369  12.674 -0.1217  0.1914  0.0060
 2708POSM   C3B31774  25.522   5.348  12.947 -0.2294 -0.0063  0.1962
 2708POSM   C4B31775  25.129   5.255  13.140 -0.2346 -0.3085 -0.0541
 2709POSM   NC331776   1.933   6.501  10.051  0.4165 -0.0921 -0.2290
 2709POSM   PO431777   2.112   6.844   9.967  0.0131 -0.3479  0.3240
 2709POSM   AM131778   2.261   6.780  10.312 -0.4611  0.1829  0.0103
 2709POSM   AM231779   2.187   6.670  10.578 -0.2945  0.1625 -0.1338
 2709POSM   T1A31780   2.480   7.016  10.742 -0.0438  0.3781  0.3548
 2709POSM   C2A31781   2.641   6.929  11.184 -0.0402 -0.0522  0.1862
 2709POSM   C3A31782   2.588   7.002  11.627  0.2745  0.0674  0.0420
 2709POSM   C1B31783   1.989   6.659  10.851  0.0268 -0.0793  0.4557
 2709POSM   D2B31784   1.775   6.665  11.287 -0.0323  0.0641 -0.2725
 2709POSM   C3B31785   1.880   6.376  11.695 -0.1686 -0.2044 -0.0696
 2709POSM   C4B31786   1.759   5.983  11.917 -0.2183  0.0257  0.4003
 2710DOPS   CNO31787  33.780   2.195  10.247 -0.2195  0.2149  0.2957
 2710DOPS   PO431788  33.734   1.923  10.498  0.1705  0.2142 -0.3347
 2710DOPS   GL131789  33.938   2.024  10.844 -0.1625 -0.1358 -0.2620
 2710DOPS   GL231790  33.816   1.808  10.974  0.1598 -0.0957  0.2065
 2710DOPS   C1A31791  34.289   1.955  11.128 -0.1762  0.1301 -0.0883
 2710DOPS   D2A31792  34.546   2.187  11.410 -0.3717  0.1342 -0.1956
 2710DOPS   C3A31793  34.498   2.321  11.864  0.0199  0.1986  0.1105
 2710DOPS   C4A31794  34.269   2.478  12.224 -0.1069 -0.0679  0.0863
 2710DOPS   C1B31795  33.768   1.693  11.423  0.0644 -0.0449  0.1967
 2710DOPS   D2B31796  33.717   1.602  11.926  0.0713 -0.2868 -0.1852
 2710DOPS   C3B31797  33.588   1.933  12.243  0.0835  0.0191 -0.1816
 2710DOPS   C4B31798  33.370   2.174  12.560 -0.0729 -0.2296  0.1579
 2711DOPE   NH331799  31.641   7.962  10.281  0.2743  0.2935  0.0418
 2711DOPE   PO431800  31.755   7.756  10.507 -0.2185  0.2796 -0.2532
 2711DOPE   GL131801  32.007   7.710  10.765 -0.0338 -0.1877 -0.2486
 2711DOPE   GL231802  31.890   7.890  10.993 -0.2435  0.0539  0.0019
 2711DOPE   C1A31803  32.264   7.540  11.079  0.3777 -0.3126 -0.1366
 2711DOPE   D2A31804  32.345   7.339  11.492  0.2544  0.0196  0.4273
 2711DOPE   C3A31805  32.016   7.061  11.726  0.3240  0.0714 -0.0538
 2711DOPE   C4A31806  31.579   6.972  11.800  0.2542  0.0275 -0.2261
 2711DOPE   C1B31807  32.024   7.894  11.454 -0.1045 -0.0174 -0.0203
 2711DOPE   D2B31808  32.120   7.627  11.840  0.0982 -0.0473 -0.0778
 2711DOPE   C3B31809  31.830   7.632  12.164  0.0826 -0.2784  0.1092
 2711DOPE   C4B31810  31.502   7.337  12.135  0.1603 -0.1318  0.0188
 2712DOPC   NC331811  29.598   4.655  10.447  0.0921 -0.2171  0.0753
 2712DOPC   PO431812  29.813   4.504  10.734 -0.2580  0.3166  0.1299
 2712DOPC   GL131813  29.797   4.342  11.133  0.2841  0.2567 -0.1639
 2712DOPC   GL231814  29.593   4.342  11.282  0.0660 -0.1956 -0.2105
 2712DOPC   C1A31815  30.116   4.234  11.488  0.0405  0.0997 -0.1376
 2712DOPC   D2A31816  30.234   4.346  11.921  0.0781  0.0762 -0.1237
 2712DOPC   C3A31817  29.826   4.303  12.126 -0.1532 -0.1301 -0.1909
 2712DOPC   C4A31818  29.426   4.431  12.415 -0.0880  0.0706  0.1601
 2712DOPC   C1B31819  29.749   4.524  11.696 -0.4061  0.2996  0.1340
 2712DOPC   D2B31820  29.550   4.752  12.076  0.1600  0.0972 -0.1575
 2712DOPC   C3B31821  29.752   5.068  12.411  0.1533  0.0006  0.0100
 2712DOPC   C4B31822  30.045   5.419  12.250  0.1080 -0.1833 -0.1128
 2713DOPC   NC331823  31.441   7.337  10.618 -0.0978  0.0812 -0.1281
 2713DOPC   PO431824  31.463   6.973  10.553  0.0685 -0.2587  0.2607
 2713DOPC   GL131825  31.718   6.829  10.902 -0.0092 -0.2972 -0.0801
 2713DOPC   GL231826  31.824   7.094  11.068 -0.2077  0.3164 -0.0773
 2713DOPC   C1A31827  31.675   6.695  11.352  0.0575 -0.3220  0.1690
 2713DOPC   D2A31828  32.003   6.570  11.643 -0.0351 -0.0930  0.3967
 2713DOPC   C3A31829  31.749   6.548  11.973 -0.1692  0.0829 -0.3005
 2713DOPC   C4A31830  31.856   6.465  12.409 -0.2395 -0.1322 -0.2955
 2713DOPC   C1B31831  31.883   7.433  11.389 -0.0672 -0.1249  0.2068
 2713DOPC   D2B31832  31.635   7.669  11.688  0.2853  0.0582  0.2148
 2713DOPC   C3B31833  31.419   7.875  12.033 -0.0405  0.1546  0.2800
 2713DOPC   C4B31834  31.087   7.889  12.406 -0.3299 -0.2467  0.1058
 2714DOPC   NC331835  26.474  11.441  10.580 -0.0692 -0.0554 -0.0038
 2714DOPC   PO431836  26.131  11.612  10.649  0.2664 -0.2035  0.3271
 2714DOPC   GL131837  26.054  11.760  10.984  0.0372 -0.0996  0.0914
 2714DOPC   GL231838  26.020  11.986  11.106  0.1363  0.2700 -0.0160
 2714DOPC   C1A31839  26.047  11.514  11.390 -0.0863  0.0284 -0.0712
 2714DOPC   D2A31840  25.844  11.617  11.765 -0.1684 -0.0843 -0.1694
 2714DOPC   C3A31841  25.923  12.020  12.042 -0.0341  0.1217  0.1739
 2714DOPC   C4A31842  26.229  12.402  11.920 -0.1242 -0.0762 -0.1614
 2714DOPC   C1B31843  26.149  11.983  11.526 -0.0824 -0.0012  0.1144
 2714DOPC   D2B31844  26.481  11.708  11.779  0.0040 -0.2345 -0.1518
 2714DOPC   C3B31845  26.228  11.527  12.105  0.0036  0.1807 -0.1049
 2714DOPC   C4B31846  26.441  11.541  12.531 -0.1126  0.1108  0.0977
 2715DOPE   NH331847  29.945   0.454  10.944 -0.1283  0.0698 -0.1945
 2715DOPE   PO431848  29.745   0.244  11.091  0.0838  0.1821 -0.1184
 2715DOPE   GL131849  29.735   0.172  11.441 -0.1131 -0.0896  0.2051
 2715DOPE   GL231850  29.852  -0.139  11.413  0.0655  0.0751 -0.1002
 2715DOPE   C1A31851  29.626   0.515  11.684  0.0626 -0.4141 -0.0591
 2715DOPE   D2A31852  29.280   0.617  11.967 -0.1098  0.0789  0.0205
 2715DOPE   C3A31853  29.174   0.962  12.260 -0.0501  0.1517 -0.2293
 2715DOPE   C4A31854  29.200   1.027  12.762 -0.2758 -0.1032 -0.2437
 2715DOPE   C1B31855  30.045   0.020  11.731 -0.0352  0.2602  0.0373
 2715DOPE   D2B31856  30.044   0.341  12.044  0.0601 -0.1299  0.1455
 2715DOPE   C3B31857  29.885   0.738  11.984 -0.0776  0.0143 -0.2703
 2715DOPE   C4B31858  29.514   1.008  11.918 -0.0987 -0.3404 -0.3527
 2716DOPC   NC331859  34.077  11.271  10.715  0.5232 -0.1009  0.1398
 2716DOPC   PO431860  33.672  11.242  10.542 -0.1794 -0.2452 -0.1921
 2716DOPC   GL131861  33.714  10.967  10.871  0.2358 -0.0074  0.0093
 2716DOPC   GL231862  34.011  10.902  11.069  0.0081  0.2572  0.1197
 2716DOPC   C1A31863  33.389  10.881  11.220  0.1043  0.0653 -0.0734
 2716DOPC   D2A31864  33.521  10.792  11.629 -0.3928  0.0965  0.2731
 2716DOPC   C3A31865  33.647  10.527  12.005 -0.4186  0.3975 -0.0725
 2716DOPC   C4A31866  33.846  10.662  12.353  0.0500  0.0330 -0.4216
 2716DOPC   C1B31867  33.753  11.228  11.254 -0.0060  0.1502 -0.0738
 2716DOPC   D2B31868  33.617  11.348  11.713  0.1020 -0.1834 -0.2819
 2716DOPC   C3B31869  33.735  11.105  12.068 -0.0921 -0.0512  0.5075
 2716DOPC   C4B31870  33.669  11.146  12.515 -0.2384  0.1990 -0.0068
 2717POSM   NC331871  25.726   4.313  11.586 -0.1431 -0.4229  0.0110
 2717POSM   PO431872  26.050   4.367  11.361 -0.1543  0.0771 -0.1722
 2717POSM   AM131873  26.197   4.395  11.642  0.0953 -0.4944  0.1333
 2717POSM   AM231874  26.308   4.200  11.872 -0.0077 -0.0489  0.0975
 2717POSM   T1A31875  26.360   4.668  12.027 -0.3751  0.0960  0.2271
 2717POSM   C2A31876  26.223   4.576  12.443  0.0414  0.0032 -0.0636
 2717POSM   C3A31877  26.110   4.358  12.852 -0.1158  0.1274  0.4063
 2717POSM   C1B31878  26.393   4.207  12.228 -0.0145  0.0851  0.3589
 2717POSM   D2B31879  26.573   4.184  12.698 -0.0695 -0.0265 -0.0362
 2717POSM   C3B31880  26.670   4.613  12.837 -0.1604 -0.0743  0.0360
 2717POSM   C4B31881  26.667   4.953  13.183 -0.2229 -0.1131  0.1120
 2718DOPS   CNO31882  24.784  34.052  11.107  0.1229 -0.0782  0.1300
 2718DOPS   PO431883  24.802  34.314  11.398  0.0873 -0.0730  0.0702
 2718DOPS   GL131884  24.623  34.467  11.699 -0.1218  0.1908  0.4480
 2718DOPS   GL231885  24.603  34.125  11.848  0.0385  0.3173 -0.0427
 2718DOPS   C1A31886  24.676  34.531  12.116  0.0564 -0.0034  0.0878
 2718DOPS   D2A31887  24.512  34.364  12.571  0.1506  0.0868  0.2037
 2718DOPS   C3A31888  24.678  34.386  12.970 -0.0776  0.0713 -0.3301
 2718DOPS   C4A31889  24.680  34.123  13.393  0.2494  0.1894 -0.0913
 2718DOPS   C1B31890  24.766  33.660  11.909  0.1688  0.1663  0.2197
 2718DOPS   D2B31891  24.841  33.284  12.157  0.1476 -0.0934  0.0895
 2718DOPS   C3B31892  24.811  33.058  12.554 -0.2583 -0.0856  0.0699
 2718DOPS   C4B31893  24.762  33.010  13.017  0.0049  0.1432  0.6172
 2719DOPE   NH331894  25.357   7.439  11.074 -0.1311  0.0283 -0.0708
 2719DOPE   PO431895  25.601   7.351  11.261  0.0039 -0.1569  0.1214
 2719DOPE   GL131896  25.497   7.435  11.678  0.0639 -0.2306  0.0955
 2719DOPE   GL231897  25.202   7.607  11.674 -0.0372  0.1827 -0.4250
 2719DOPE   C1A31898  25.461   7.496  12.144  0.1301 -0.1312 -0.0829
 2719DOPE   D2A31899  25.549   7.436  12.608 -0.0353 -0.2634  0.2443
 2719DOPE   C3A31900  25.727   7.777  12.938 -0.2583 -0.0306  0.1068
 2719DOPE   C4A31901  25.783   8.199  13.171  0.3038 -0.3479  0.1565
 2719DOPE   C1B31902  24.934   7.869  11.914 -0.3829 -0.0692  0.1322
 2719DOPE   D2B31903  24.788   8.149  12.247  0.1384 -0.0712  0.0122
 2719DOPE   C3B31904  25.073   8.424  12.468  0.0167  0.0867  0.0450
 2719DOPE   C4B31905  25.090   8.798  12.768 -0.0534  0.3233  0.0488
 2720POSM   NC331906  25.864   6.834  10.966 -0.0312  0.1548  0.1969
 2720POSM   PO431907  25.472   6.935  11.011 -0.1923  0.0971  0.1074
 2720POSM   AM131908  25.246   6.955  11.278  0.0614  0.1227  0.1769
 2720POSM   AM231909  25.274   7.049  11.516  0.0697 -0.1187  0.0108
 2720POSM   T1A31910  24.878   6.759  11.583  0.1573  0.1637 -0.1294
 2720POSM   C2A31911  24.463   6.578  11.715 -0.1048 -0.2179 -0.0884
 2720POSM   C3A31912  24.132   6.281  11.861  0.2273 -0.0520 -0.2792
 2720POSM   C1B31913  25.121   7.147  11.813 -0.0823  0.1266 -0.1696
 2720POSM   D2B31914  24.842   7.435  12.112  0.1560  0.1219 -0.3512
 2720POSM   C3B31915  24.447   7.299  12.358 -0.1502 -0.2520  0.2754
 2720POSM   C4B31916  24.041   7.115  12.459 -0.0361 -0.1559 -0.2771
 2721DOPC   NC331917  29.235   7.307  10.856  0.2747  0.1099  0.0370
 2721DOPC   PO431918  29.201   7.509  11.212  0.0291 -0.0651  0.0633
 2721DOPC   GL131919  29.163   7.472  11.650  0.2473 -0.0667  0.0552
 2721DOPC   GL231920  29.307   7.657  11.774 -0.1085 -0.0906 -0.1484
 2721DOPC   C1A31921  29.011   7.325  12.092 -0.0763  0.1845  0.1811
 2721DOPC   D2A31922  29.180   7.451  12.493  0.1133  0.4041 -0.2676
 2721DOPC   C3A31923  29.590   7.488  12.638  0.0181 -0.1738  0.1840
 2721DOPC   C4A31924  29.834   7.423  13.058  0.3874 -0.0441  0.1662
 2721DOPC   C1B31925  29.559   7.691  12.168  0.0200 -0.1996 -0.2755
 2721DOPC   D2B31926  30.015   7.672  12.264  0.1181 -0.1843 -0.1853
 2721DOPC   C3B31927  30.160   7.335  12.580  0.0917  0.0003  0.4165
 2721DOPC   C4B31928  30.367   7.355  12.953  0.0425 -0.1099  0.0713
 2722DOPS   CNO31929  26.917   1.988  11.237  0.1641 -0.0998  0.0277
 2722DOPS   PO431930  26.977   1.961  11.616 -0.1370  0.1667 -0.2620
 2722DOPS   GL131931  27.225   2.077  11.864  0.2153 -0.1252 -0.0903
 2722DOPS   GL231932  27.397   1.847  11.912  0.0319  0.2028 -0.2280
 2722DOPS   C1A31933  27.165   2.183  12.324  0.2113 -0.2504  0.0600
 2722DOPS   D2A31934  27.088   1.958  12.759  0.0485  0.0004 -0.1092
 2722DOPS   C3A31935  26.643   1.990  12.937 -0.3886 -0.0008  0.0303
 2722DOPS   C4A31936  26.658   2.028  13.440  0.3255 -0.1673 -0.0372
 2722DOPS   C1B31937  27.832   1.599  12.060 -0.0595  0.2149 -0.1643
 2722DOPS   D2B31938  27.778   1.645  12.555 -0.4315  0.3209 -0.2436
 2722DOPS   C3B31939  28.085   1.658  12.903  0.0930 -0.1098 -0.2115
 2722DOPS   C4B31940  28.495   1.715  13.142 -0.0626  0.0498 -0.0518
 2723DOPC   NC331941  26.150   3.278  11.523  0.0065 -0.3277 -0.0406
 2723DOPC   PO431942  25.832   3.440  11.362 -0.0915 -0.1251 -0.4158
 2723DOPC   GL131943  25.860   3.538  11.760 -0.0361 -0.0740 -0.0637
 2723DOPC   GL231944  25.581   3.619  11.742 -0.2393 -0.1905  0.2689
 2723DOPC   C1A31945  25.839   3.375  12.227  0.0206  0.0803  0.1233
 2723DOPC   D2A31946  25.744   3.646  12.580 -0.0427  0.1264 -0.1023
 2723DOPC   C3A31947  25.937   3.459  12.982 -0.0907 -0.1404  0.1235
 2723DOPC   C4A31948  26.304   3.186  13.033  0.2151 -0.0085 -0.2376
 2723DOPC   C1B31949  25.520   3.887  12.047 -0.2188  0.0469  0.3957
 2723DOPC   D2B31950  25.259   4.177  12.266  0.6296 -0.0608  0.1080
 2723DOPC   C3B31951  25.448   4.597  12.387 -0.1300 -0.1355  0.1049
 2723DOPC   C4B31952  25.605   5.096  12.329  0.0079  0.0464  0.1430
 2724DOPC   NC331953  28.949   5.655  10.884  0.1084 -0.1076 -0.1296
 2724DOPC   PO431954  28.826   5.711  11.241  0.1763 -0.0195 -0.1143
 2724DOPC   GL131955  28.883   5.583  11.616  0.0636  0.2351 -0.1661
 2724DOPC   GL231956  29.081   5.481  11.842 -0.1373 -0.0818 -0.1741
 2724DOPC   C1A31957  28.794   5.836  11.980  0.0033 -0.0977 -0.0295
 2724DOPC   D2A31958  28.761   6.245  12.155 -0.0863 -0.0248 -0.2994
 2724DOPC   C3A31959  28.845   6.095  12.593  0.2046  0.4487  0.3151
 2724DOPC   C4A31960  28.745   6.200  13.000 -0.1778 -0.1963  0.1369
 2724DOPC   C1B31961  28.726   5.374  12.061  0.1429 -0.0970 -0.2194
 2724DOPC   D2B31962  28.402   5.181  12.280 -0.0594 -0.1845 -0.0420
 2724DOPC   C3B31963  28.251   5.237  12.737  0.0642  0.0736  0.3745
 2724DOPC   C4B31964  27.989   5.197  13.152  0.1773  0.0394 -0.1275
 2725DOPE   NH331965  34.289   4.463  10.430  0.0439  0.2127 -0.1708
 2725DOPE   PO431966  34.053   4.643  10.441  0.2041  0.0832 -0.0427
 2725DOPE   GL131967  33.910   4.486  10.800  0.0071 -0.4397  0.0883
 2725DOPE   GL231968  34.103   4.352  10.879  0.2168  0.1019 -0.3634
 2725DOPE   C1A31969  33.950   4.676  11.216  0.0748  0.1075  0.3242
 2725DOPE   D2A31970  34.021   4.973  11.573 -0.3420  0.0646  0.2608
 2725DOPE   C3A31971  34.175   5.428  11.734  0.0807 -0.0325  0.2585
 2725DOPE   C4A31972  33.978   5.750  11.947 -0.0782 -0.0775 -0.2467
 2725DOPE   C1B31973  33.979   4.081  11.245 -0.0019 -0.1408 -0.0453
 2725DOPE   D2B31974  33.912   4.096  11.723  0.0979  0.0222 -0.3928
 2725DOPE   C3B31975  33.987   4.516  11.821 -0.1721  0.0142  0.1303
 2725DOPE   C4B31976  33.753   4.881  11.984  0.0189  0.2178 -0.0520
 2726DOPC   NC331977  27.213   2.373  11.448 -0.3723  0.2731  0.1046
 2726DOPC   PO431978  26.785   2.405  11.473 -0.0743 -0.0969  0.0940
 2726DOPC   GL131979  26.876   2.402  11.868 -0.4279 -0.3382 -0.2161
 2726DOPC   GL231980  26.741   2.149  12.068  0.0040  0.0276  0.2411
 2726DOPC   C1A31981  27.012   2.687  12.185  0.2445  0.0345  0.2806
 2726DOPC   D2A31982  26.769   2.777  12.585  0.3908 -0.0751  0.1136
 2726DOPC   C3A31983  26.671   3.224  12.734  0.0588  0.0279 -0.2374
 2726DOPC   C4A31984  26.506   3.611  12.956 -0.1998  0.0102  0.1113
 2726DOPC   C1B31985  26.748   2.290  12.533  0.0692 -0.0672 -0.2234
 2726DOPC   D2B31986  26.755   2.530  13.022  0.2155 -0.0153 -0.0411
 2726DOPC   C3B31987  26.546   2.803  13.301 -0.0714 -0.0183  0.1123
 2726DOPC   C4B31988  26.496   3.034  13.678  0.0545  0.0744  0.0850
 2727DOPC   NC331989  32.218  14.410  10.665  0.0056 -0.1411  0.1161
 2727DOPC   PO431990  32.467  14.124  10.816 -0.0661 -0.3809  0.1135
 2727DOPC   GL131991  32.593  14.011  11.096 -0.3833 -0.0363 -0.1928
 2727DOPC   GL231992  32.384  13.859  11.212  0.2939  0.0628 -0.0938
 2727DOPC   C1A31993  32.826  14.263  11.420 -0.2990  0.0556  0.2417
 2727DOPC   D2A31994  33.078  14.122  11.787  0.3950 -0.0572  0.2261
 2727DOPC   C3A31995  32.830  14.174  12.143 -0.3235  0.2291  0.1947
 2727DOPC   C4A31996  32.684  14.409  12.480 -0.0562 -0.0168  0.0983
 2727DOPC   C1B31997  32.241  13.639  11.570 -0.2172  0.0241  0.1546
 2727DOPC   D2B31998  31.860  13.344  11.746  0.0710 -0.0467  0.0166
 2727DOPC   C3B31999  31.794  13.393  12.171  0.4207  0.0410 -0.4421
 2727DOPC   C4B32000  31.597  13.364  12.573  0.0524  0.0636 -0.0255
 2728POSM   NC332001  26.722   8.915  10.309 -0.3396 -0.2104  0.1304
 2728POSM   PO432002  26.574   9.251  10.496  0.2943  0.0151  0.2807
 2728POSM   AM132003  26.694   9.169  10.783  0.0518 -0.1513 -0.5200
 2728POSM   AM232004  26.593   9.110  11.030 -0.2039  0.1363  0.4127
 2728POSM   T1A32005  27.130   9.170  11.072 -0.2141  0.1994 -0.1154
 2728POSM   C2A32006  27.470   9.159  11.388  0.1317 -0.0600 -0.1062
 2728POSM   C3A32007  27.625   9.161  11.864 -0.1173 -0.0198 -0.2529
 2728POSM   C1B32008  26.593   9.202  11.365  0.0599 -0.2348 -0.1432
 2728POSM   D2B32009  26.608   9.418  11.773 -0.1183 -0.0426 -0.2438
 2728POSM   C3B32010  26.789   9.083  12.087  0.1466 -0.2517 -0.0089
 2728POSM   C4B32011  26.877   9.169  12.527  0.1668  0.1561 -0.1676
 2729DOPE   NH332012  27.714   5.016  11.481 -0.0761  0.1179 -0.1594
 2729DOPE   PO432013  27.437   4.889  11.493 -0.1230 -0.2704 -0.0055
 2729DOPE   GL132014  27.582   4.981  11.964  0.3490  0.1421 -0.0454
 2729DOPE   GL232015  27.536   5.254  11.975 -0.1069 -0.0755  0.3079
 2729DOPE   C1A32016  27.901   4.783  12.295  0.0367 -0.3056 -0.3091
 2729DOPE   D2A32017  28.298   4.696  12.346  0.0503  0.0037  0.1816
 2729DOPE   C3A32018  28.461   4.761  12.749  0.3416 -0.1140  0.3266
 2729DOPE   C4A32019  28.327   4.664  13.180  0.0071 -0.4742 -0.0643
 2729DOPE   C1B32020  27.514   5.617  12.209  0.1241 -0.0789  0.0963
 2729DOPE   D2B32021  27.480   5.832  12.607 -0.0884 -0.2774  0.4869
 2729DOPE   C3B32022  27.089   6.105  12.668  0.3207  0.3478 -0.1847
 2729DOPE   C4B32023  26.661   6.029  12.460  0.3547  0.3259  0.1081
 2730DOPS   CNO32024  25.394   4.381  11.214  0.1615 -0.0513  0.1958
 2730DOPS   PO432025  25.051   4.418  11.198  0.0251 -0.0436  0.2296
 2730DOPS   GL132026  25.102   4.582  11.530  0.1784  0.3429 -0.1374
 2730DOPS   GL232027  24.906   4.676  11.686  0.2031 -0.3112 -0.4598
 2730DOPS   C1A32028  25.420   4.584  11.859 -0.1065  0.0846 -0.1049
 2730DOPS   D2A32029  25.825   4.714  11.934  0.2475  0.2001  0.1146
 2730DOPS   C3A32030  26.078   5.049  12.109  0.1937 -0.1284 -0.1560
 2730DOPS   C4A32031  26.497   5.276  12.166  0.1379  0.1885  0.1202
 2730DOPS   C1B32032  24.976   4.391  11.975  0.1673  0.2008 -0.0992
 2730DOPS   D2B32033  24.735   4.298  12.375  0.2641 -0.1380  0.1522
 2730DOPS   C3B32034  24.790   4.457  12.786 -0.0312 -0.2882  0.0263
 2730DOPS   C4B32035  24.727   4.309  13.206 -0.2563 -0.1472 -0.0921
 2731DOPC   NC332036  26.129  12.069  10.516  0.0267  0.3446 -0.1201
 2731DOPC   PO432037  26.500  11.935  10.525  0.0634  0.1073 -0.1650
 2731DOPC   GL132038  26.476  12.069  10.911  0.0748  0.1236 -0.0589
 2731DOPC   GL232039  26.529  11.966  11.257 -0.0033  0.4308  0.0730
 2731DOPC   C1A32040  26.751  12.405  11.098 -0.1348 -0.2240  0.1426
 2731DOPC   D2A32041  27.079  12.451  11.416  0.1721 -0.1357  0.2620
 2731DOPC   C3A32042  27.121  12.025  11.726  0.1062  0.1224  0.1008
 2731DOPC   C4A32043  26.907  11.777  12.048 -0.0985  0.0785 -0.3308
 2731DOPC   C1B32044  26.640  12.169  11.646  0.4322 -0.1977 -0.2575
 2731DOPC   D2B32045  26.845  12.343  12.043  0.0683  0.3953  0.0198
 2731DOPC   C3B32046  27.077  12.137  12.375  0.2407  0.1700  0.1904
 2731DOPC   C4B32047  26.820  11.818  12.710  0.3247 -0.2386  0.5067
 2732DOPE   NH332048  21.968   6.049  10.283 -0.2744  0.1347 -0.1659
 2732DOPE   PO432049  22.115   5.778  10.258 -0.0029 -0.0935 -0.0393
 2732DOPE   GL132050  21.905   5.677  10.572 -0.3312  0.4106  0.3165
 2732DOPE   GL232051  21.884   5.884  10.764 -0.0455 -0.1268  0.0934
 2732DOPE   C1A32052  22.034   5.419  10.963  0.2241  0.1390  0.0838
 2732DOPE   D2A32053  22.282   5.484  11.296 -0.0818 -0.5897  0.0588
 2732DOPE   C3A32054  22.428   5.532  11.739  0.0217 -0.3870 -0.2181
 2732DOPE   C4A32055  22.556   5.503  12.156 -0.0537 -0.0132 -0.0138
 2732DOPE   C1B32056  22.147   5.914  11.108 -0.2349 -0.1121  0.2228
 2732DOPE   D2B32057  22.090   5.885  11.609  0.2145 -0.1551  0.3781
 2732DOPE   C3B32058  22.295   5.941  11.993 -0.3565 -0.2653  0.0537
 2732DOPE   C4B32059  22.562   6.300  12.091  0.0649  0.2824  0.3869
 2733DOPE   NH332060  29.673   4.815  11.140  0.0914  0.0256 -0.1693
 2733DOPE   PO432061  29.626   5.088  11.180  0.0949  0.0051 -0.0703
 2733DOPE   GL132062  29.673   5.081  11.550 -0.2403  0.2560 -0.0733
 2733DOPE   GL232063  29.377   5.053  11.698 -0.2065  0.1339 -0.3548
 2733DOPE   C1A32064  29.985   5.042  11.849 -0.4317  0.0791 -0.1136
 2733DOPE   D2A32065  30.145   4.799  12.214  0.1154  0.2181 -0.1203
 2733DOPE   C3A32066  29.967   4.512  12.540  0.1276 -0.0822 -0.1949
 2733DOPE   C4A32067  29.671   4.511  12.901 -0.0365  0.0418  0.1876
 2733DOPE   C1B32068  28.922   4.880  11.861 -0.2136  0.2767  0.2595
 2733DOPE   D2B32069  28.809   4.828  12.278 -0.0793 -0.2702  0.0722
 2733DOPE   C3B32070  28.756   5.151  12.653  0.0714  0.0808  0.3008
 2733DOPE   C4B32071  28.673   5.552  12.873 -0.3755  0.1212 -0.0305
 2734POSM   NC332072  33.100   7.343  10.158 -0.0877 -0.3495 -0.2392
 2734POSM   PO432073  33.023   7.548  10.489  0.1712  0.0119  0.1040
 2734POSM   AM132074  32.870   7.508  10.766 -0.0499 -0.0422 -0.1321
 2734POSM   AM232075  32.698   7.310  10.927 -0.1195 -0.1469  0.2008
 2734POSM   T1A32076  33.088   7.611  11.213  0.0516 -0.3780 -0.0900
 2734POSM   C2A32077  33.112   7.831  11.669  0.0947  0.4274 -0.1355
 2734POSM   C3A32078  33.024   7.968  12.147  0.1136 -0.1147 -0.2413
 2734POSM   C1B32079  32.801   7.254  11.223  0.1418  0.0143 -0.0304
 2734POSM   D2B32080  32.968   7.018  11.574  0.2929 -0.0793  0.0445
 2734POSM   C3B32081  33.246   7.363  11.803  0.1613 -0.1686  0.2212
 2734POSM   C4B32082  33.433   7.627  12.027  0.0954 -0.0413  0.0753
 2735POSM   NC332083  32.480  11.740  10.366 -0.3347 -0.1104  0.0936
 2735POSM   PO432084  32.363  12.127  10.408 -0.2039  0.3729 -0.0655
 2735POSM   AM132085  32.212  11.964  10.648 -0.4674 -0.0272  0.0545
 2735POSM   AM232086  31.971  11.876  10.777 -0.1753 -0.2761  0.0629
 2735POSM   T1A32087  32.277  11.941  11.165  0.1850 -0.0659  0.0844
 2735POSM   C2A32088  32.425  12.244  11.475  0.0521  0.0756 -0.0604
 2735POSM   C3A32089  32.543  12.238  11.946 -0.1244  0.0370 -0.3401
 2735POSM   C1B32090  31.771  11.747  11.058  0.2330 -0.0407 -0.3387
 2735POSM   D2B32091  31.604  11.818  11.426  0.0320 -0.0062  0.1025
 2735POSM   C3B32092  31.750  11.530  11.793  0.0089 -0.2886 -0.1833
 2735POSM   C4B32093  31.948  11.236  12.095 -0.1089  0.1082 -0.0275
 2736DOPC   NC332094  24.497   5.580  10.827 -0.1866  0.0727 -0.0497
 2736DOPC   PO432095  24.658   5.270  10.965  0.2472  0.1212  0.1975
 2736DOPC   GL132096  24.773   5.435  11.214 -0.0664 -0.2214 -0.3687
 2736DOPC   GL232097  24.864   5.748  11.287  0.3653  0.0708 -0.0495
 2736DOPC   C1A32098  24.588   5.489  11.633 -0.3318  0.0380 -0.0798
 2736DOPC   D2A32099  24.559   5.464  12.099  0.2758  0.3344 -0.0764
 2736DOPC   C3A32100  24.283   5.145  12.261  0.0523  0.1724  0.4186
 2736DOPC   C4A32101  24.073   4.769  12.315  0.0258  0.0466 -0.0898
 2736DOPC   C1B32102  25.036   5.779  11.766 -0.1373  0.0789 -0.0198
 2736DOPC   D2B32103  25.020   5.657  12.202 -0.1717  0.1962 -0.0935
 2736DOPC   C3B32104  25.230   5.977  12.412 -0.2498  0.0598 -0.2383
 2736DOPC   C4B32105  25.515   6.344  12.445  0.0109 -0.0101  0.0726
 2737DOPC   NC332106  26.931   9.881  10.539  0.2604  0.0764  0.0289
 2737DOPC   PO432107  27.290   9.743  10.636 -0.1207  0.3399 -0.1538
 2737DOPC   GL132108  27.245   9.827  11.021  0.3605  0.3583  0.1993
 2737DOPC   GL232109  27.267  10.143  10.918 -0.0893  0.0727 -0.0909
 2737DOPC   C1A32110  27.494   9.813  11.401  0.0176 -0.1675  0.5015
 2737DOPC   D2A32111  27.511  10.028  11.746  0.0924 -0.0007 -0.0470
 2737DOPC   C3A32112  27.531   9.959  12.197 -0.0483 -0.0519  0.1843
 2737DOPC   C4A32113  27.799  10.065  12.531  0.3207 -0.0885  0.1637
 2737DOPC   C1B32114  27.504  10.297  11.311 -0.1530  0.0144 -0.0453
 2737DOPC   D2B32115  27.747  10.502  11.645  0.0374 -0.0931  0.0328
 2737DOPC   C3B32116  27.812  10.918  11.770  0.3017  0.1253  0.1544
 2737DOPC   C4B32117  27.657  11.367  11.864 -0.0429  0.3767  0.1468
 2738DOPC   NC332118  30.472   3.998  10.493  0.1674  0.2691  0.2252
 2738DOPC   PO432119  30.298   3.663  10.709 -0.3095  0.0225  0.0474
 2738DOPC   GL132120  30.240   3.603  11.014 -0.0239 -0.3551 -0.0498
 2738DOPC   GL232121  30.282   3.790  11.232  0.2552 -0.0544 -0.2593
 2738DOPC   C1A32122  30.270   3.349  11.388 -0.1291 -0.1812 -0.2109
 2738DOPC   D2A32123  30.573   3.227  11.767  0.1096  0.2731 -0.3251
 2738DOPC   C3A32124  30.554   3.499  12.126 -0.0711 -0.0568 -0.2219
 2738DOPC   C4A32125  30.449   3.815  12.369 -0.0430 -0.0080  0.0834
 2738DOPC   C1B32126  30.614   4.086  11.261  0.3515  0.1181  0.3452
 2738DOPC   D2B32127  30.858   4.127  11.605  0.1589  0.0369  0.1917
 2738DOPC   C3B32128  30.657   4.173  12.023 -0.2127  0.0187 -0.2570
 2738DOPC   C4B32129  30.367   4.324  12.361 -0.0972 -0.1820 -0.0928
 2739POSM   NC332130  26.633   2.764  11.748  0.1115  0.2982 -0.2857
 2739POSM   PO432131  26.269   2.803  11.640  0.1747 -0.1229  0.0728
 2739POSM   AM132132  26.222   2.924  11.948 -0.1011  0.1269  0.0236
 2739POSM   AM232133  25.997   2.969  12.064  0.0754  0.1024 -0.1560
 2739POSM   T1A32134  26.513   3.099  12.257 -0.0262  0.0743  0.2498
 2739POSM   C2A32135  26.259   3.468  12.507  0.0046 -0.0330  0.1616
 2739POSM   C3A32136  26.156   3.915  12.550  0.0108  0.2574 -0.1349
 2739POSM   C1B32137  25.874   2.905  12.366 -0.1783 -0.0285 -0.1172
 2739POSM   D2B32138  25.725   3.130  12.675  0.0808  0.1285  0.1956
 2739POSM   C3B32139  25.328   3.047  12.996 -0.1218 -0.1912 -0.0351
 2739POSM   C4B32140  25.027   2.882  13.319 -0.1757  0.0686 -0.0383
 2740DOPC   NC332141  24.610  13.035  10.023 -0.2166  0.3082 -0.2771
 2740DOPC   PO432142  25.002  13.180  10.072  0.1531  0.2820  0.1589
 2740DOPC   GL132143  25.047  13.543  10.224  0.1246 -0.2780  0.1348
 2740DOPC   GL232144  25.284  13.777  10.179  0.1145 -0.0645 -0.2429
 2740DOPC   C1A32145  24.846  13.773  10.569 -0.2188 -0.0351 -0.3235
 2740DOPC   D2A32146  24.573  13.921  10.880 -0.1798  0.2447 -0.2033
 2740DOPC   C3A32147  24.485  13.534  11.093  0.1106 -0.0332  0.3827
 2740DOPC   C4A32148  24.616  13.389  11.506 -0.0887  0.2641  0.0921
 2740DOPC   C1B32149  25.312  13.840  10.673  0.1814 -0.3164  0.0632
 2740DOPC   D2B32150  25.320  14.050  11.021  0.1351 -0.1763  0.0813
 2740DOPC   C3B32151  25.309  14.138  11.440  0.1161  0.0985  0.1375
 2740DOPC   C4B32152  25.312  14.523  11.712 -0.2031  0.3159  0.1503
 2741POSM   NC332153   2.292   5.110  10.062 -0.0389 -0.0890  0.0208
 2741POSM   PO432154   2.029   5.355  10.089  0.1203 -0.1679  0.3415
 2741POSM   AM132155   1.916   5.432  10.397  0.1020  0.1947  0.1161
 2741POSM   AM232156   1.991   5.683  10.545  0.1695  0.2119  0.0130
 2741POSM   T1A32157   1.752   5.382  10.892  0.4692  0.1126  0.1864
 2741POSM   C2A32158   1.587   5.147  11.220  0.0650  0.1376  0.1482
 2741POSM   C3A32159   1.361   5.087  11.632 -0.2955  0.2509  0.3502
 2741POSM   C1B32160   2.038   5.839  10.835 -0.2590 -0.1624 -0.0894
 2741POSM   D2B32161   2.058   6.221  11.109  0.1069  0.2091  0.1134
 2741POSM   C3B32162   2.143   5.987  11.529 -0.3724 -0.1742  0.0987
 2741POSM   C4B32163   2.148   5.751  11.926 -0.3920 -0.0955  0.0736
 2742DOPS   CNO32164  32.266   1.917  10.465 -0.0187  0.1841 -0.3536
 2742DOPS   PO432165  32.268   1.970  10.873  0.0237 -0.2966 -0.3482
 2742DOPS   GL132166  32.277   1.904  11.336 -0.0925  0.3299 -0.5053
 2742DOPS   GL232167  32.110   1.600  11.482  0.0932  0.1123  0.0642
 2742DOPS   C1A32168  32.335   2.369  11.408  0.1954  0.1916 -0.0234
 2742DOPS   D2A32169  32.106   2.742  11.568  0.2033  0.1985 -0.0504
 2742DOPS   C3A32170  32.003   2.870  12.023 -0.1649 -0.3346 -0.2172
 2742DOPS   C4A32171  31.792   3.029  12.404  0.3032  0.1474 -0.3603
 2742DOPS   C1B32172  32.058   1.424  11.973  0.0537  0.0087 -0.0765
 2742DOPS   D2B32173  31.994   1.167  12.318 -0.3011 -0.6516 -0.4296
 2742DOPS   C3B32174  31.687   1.367  12.657  0.1018 -0.0403 -0.2346
 2742DOPS   C4B32175  31.446   1.583  13.060  0.2966 -0.1960  0.1074
 2743DOPC   NC332176  29.013   8.971  11.260  0.1034 -0.0013 -0.0077
 2743DOPC   PO432177  28.870   9.050  10.923 -0.2921 -0.3047 -0.2360
 2743DOPC   GL132178  28.854   9.402  11.149  0.1576  0.2942  0.0368
 2743DOPC   GL232179  28.558   9.290  11.245 -0.0785  0.2584  0.1993
 2743DOPC   C1A32180  28.932   9.705  11.461  0.1209 -0.0245 -0.2205
 2743DOPC   D2A32181  29.202   9.815  11.872 -0.1652 -0.4076  0.0942
 2743DOPC   C3A32182  29.173   9.639  12.281 -0.2742  0.0662 -0.2240
 2743DOPC   C4A32183  28.866   9.654  12.641 -0.2247  0.1085 -0.2526
 2743DOPC   C1B32184  28.814   9.272  11.618 -0.0029 -0.0802 -0.0981
 2743DOPC   D2B32185  29.010   9.052  11.936  0.1404  0.0486  0.0284
 2743DOPC   C3B32186  29.078   8.984  12.413 -0.0115  0.0513 -0.0374
 2743DOPC   C4B32187  29.190   9.278  12.765 -0.1508 -0.2681 -0.1245
 2744DOPS   CNO32188  25.350  10.131  10.824  0.1761  0.1194 -0.1734
 2744DOPS   PO432189  25.620  10.328  10.933  0.0943 -0.0157  0.1092
 2744DOPS   GL132190  25.610  10.242  11.253  0.2987 -0.0938  0.2028
 2744DOPS   GL232191  25.766  10.419  11.395 -0.2375  0.0132  0.3228
 2744DOPS   C1A32192  25.411  10.226  11.680 -0.0054 -0.0034 -0.1885
 2744DOPS   D2A32193  25.219  10.086  12.073 -0.0114  0.1554 -0.1984
 2744DOPS   C3A32194  24.947  10.478  12.198 -0.0575 -0.3033 -0.2129
 2744DOPS   C4A32195  25.010  10.955  12.384 -0.3082 -0.0918  0.2137
 2744DOPS   C1B32196  25.391  10.675  11.554  0.1082 -0.2177  0.1120
 2744DOPS   D2B32197  25.115  10.994  11.332  0.0120  0.0124 -0.0819
 2744DOPS   C3B32198  25.025  11.324  11.549 -0.2610  0.1192 -0.4604
 2744DOPS   C4B32199  25.336  11.640  11.755  0.0160 -0.0286 -0.1008
 2745DOPE   NH332200  30.068  10.880  10.654 -0.0966  0.2531  0.2035
 2745DOPE   PO432201  29.791  10.983  10.543  0.3394  0.0436  0.0339
 2745DOPE   GL132202  29.649  10.868  10.966 -0.0425 -0.0772 -0.4630
 2745DOPE   GL232203  29.433  10.646  11.077  0.0545  0.0920  0.0779
 2745DOPE   C1A32204  29.439  11.153  11.304  0.1849  0.1228 -0.1979
 2745DOPE   D2A32205  29.155  11.200  11.686 -0.0498 -0.1957 -0.0185
 2745DOPE   C3A32206  29.044  11.114  12.131  0.0068 -0.3844  0.1276
 2745DOPE   C4A32207  28.861  10.904  12.497 -0.2518  0.0983  0.0650
 2745DOPE   C1B32208  29.423  10.670  11.488 -0.1395  0.0024 -0.4135
 2745DOPE   D2B32209  29.425  10.857  11.926 -0.0931  0.2974  0.1324
 2745DOPE   C3B32210  29.482  10.480  12.252  0.1354 -0.2988  0.1504
 2745DOPE   C4B32211  29.337  10.076  12.388 -0.0262 -0.3921  0.0601
 2746DOPE   NH332212   0.715   4.023  10.612  0.0697 -0.2574  0.0101
 2746DOPE   PO432213   0.824   3.695  10.557 -0.0007 -0.2983 -0.0187
 2746DOPE   GL132214   0.758   3.678  10.897  0.0339 -0.2518 -0.1348
 2746DOPE   GL232215   1.022   3.422  10.950  0.0586  0.1372  0.2729
 2746DOPE   C1A32216   0.528   3.467  11.302 -0.1802 -0.0044 -0.1853
 2746DOPE   D2A32217   0.626   3.461  11.731  0.0449  0.1206 -0.0186
 2746DOPE   C3A32218   0.421   3.322  12.116 -0.1034  0.1126 -0.3500
 2746DOPE   C4A32219   0.147   3.194  12.488  0.1023 -0.3010  0.1430
 2746DOPE   C1B32220   1.220   3.292  11.319  0.3084 -0.0104 -0.2246
 2746DOPE   D2B32221   1.135   3.440  11.747 -0.2636 -0.0518 -0.1879
 2746DOPE   C3B32222   0.900   3.577  12.157 -0.2751 -0.0453  0.1100
 2746DOPE   C4B32223   0.813   3.623  12.608 -0.0725 -0.1124  0.1408
 2747DOPE   NH332224  29.327   6.350  11.574 -0.1329 -0.4381  0.2238
 2747DOPE   PO432225  29.211   6.632  11.427 -0.1681  0.0366  0.1124
 2747DOPE   GL132226  29.251   6.800  11.782 -0.1763 -0.3182 -0.1324
 2747DOPE   GL232227  29.394   7.061  11.877 -0.0621  0.2030  0.0529
 2747DOPE   C1A32228  29.034   6.865  12.233 -0.1420 -0.0191 -0.0672
 2747DOPE   D2A32229  28.894   6.689  12.651  0.1863  0.0321 -0.0027
 2747DOPE   C3A32230  28.525   6.657  12.963  0.5367 -0.1797 -0.0261
 2747DOPE   C4A32231  28.456   6.829  13.416 -0.0151 -0.1654  0.0375
 2747DOPE   C1B32232  29.745   6.727  11.793  0.0683  0.0911  0.3181
 2747DOPE   D2B32233  29.986   6.344  11.870 -0.1892 -0.0368 -0.1313
 2747DOPE   C3B32234  30.234   6.382  12.262 -0.0970 -0.3206  0.0558
 2747DOPE   C4B32235  30.516   6.318  12.605 -0.0486 -0.2197 -0.2033
 2748DOPC   NC332236  28.389   6.191  11.776  0.4443  0.4640 -0.1100
 2748DOPC   PO432237  28.295   6.599  11.791  0.5027 -0.3886  0.1360
 2748DOPC   GL132238  28.414   6.526  12.189 -0.0822  0.0062  0.3468
 2748DOPC   GL232239  28.160   6.698  12.289 -0.0991  0.1838 -0.6156
 2748DOPC   C1A32240  28.370   6.322  12.620 -0.2384 -0.4131  0.2990
 2748DOPC   D2A32241  28.159   6.254  13.002 -0.0190  0.0925  0.1467
 2748DOPC   C3A32242  28.010   6.583  13.271  0.0327  0.2476  0.0238
 2748DOPC   C4A32243  27.873   6.918  13.556  0.1411  0.0004  0.2356
 2748DOPC   C1B32244  28.363   7.008  12.614 -0.1369  0.1303 -0.1860
 2748DOPC   D2B32245  28.419   7.372  12.930  0.0023 -0.2516 -0.0883
 2748DOPC   C3B32246  28.815   7.275  12.857  0.0671  0.0345 -0.3141
 2748DOPC   C4B32247  29.154   7.160  12.917  0.2171  0.1235 -0.0038
 2749DOPS   CNO32248   0.614   8.808  10.190  0.1913 -0.0727 -0.2336
 2749DOPS   PO432249   0.758   8.654  10.488 -0.0673  0.2032 -0.1551
 2749DOPS   GL132250   0.613   8.527  10.832 -0.1316 -0.1791  0.1148
 2749DOPS   GL232251   0.530   8.766  10.993 -0.0522 -0.1250 -0.2433
 2749DOPS   C1A32252   0.769   8.216  11.112  0.3241  0.2722 -0.0740
 2749DOPS   D2A32253   0.762   7.832  11.477 -0.1234  0.3349 -0.0653
 2749DOPS   C3A32254   0.814   7.389  11.638  0.1156  0.3143  0.0476
 2749DOPS   C4A32255   1.166   7.165  11.821  0.0112  0.1613 -0.0576
 2749DOPS   C1B32256   0.545   8.675  11.476  0.0649  0.0741 -0.2524
 2749DOPS   D2B32257   0.771   8.805  11.837  0.5339  0.0727  0.2291
 2749DOPS   C3B32258   1.192   8.872  11.916 -0.4389 -0.1166 -0.1423
 2749DOPS   C4B32259   1.411   9.118  12.199  0.1005 -0.1247 -0.4413
 2750DOPS   CNO32260  31.982   9.210  10.095  0.1867  0.0413 -0.3665
 2750DOPS   PO432261  31.750   9.261  10.415 -0.0946  0.1666  0.1462
 2750DOPS   GL132262  31.707   9.364  10.819 -0.3566  0.1615  0.1724
 2750DOPS   GL232263  31.517   9.350  11.039  0.0509 -0.0574 -0.0055
 2750DOPS   C1A32264  31.910   9.616  11.191 -0.0664  0.0130 -0.0638
 2750DOPS   D2A32265  32.082   9.625  11.635  0.3067  0.1638 -0.3133
 2750DOPS   C3A32266  31.867   9.955  11.939 -0.0837  0.3654 -0.0617
 2750DOPS   C4A32267  31.483   9.799  12.148  0.0025 -0.0184 -0.2125
 2750DOPS   C1B32268  31.788   9.202  11.395 -0.0256 -0.0335 -0.0052
 2750DOPS   D2B32269  32.127   9.135  11.721 -0.0545 -0.0321 -0.1315
 2750DOPS   C3B32270  32.467   8.892  11.572  0.0365 -0.1728  0.0185
 2750DOPS   C4B32271  32.515   8.742  11.155 -0.1580  0.2084  0.0615
 2751DOPC   NC332272  31.410   8.892  10.593 -0.1440  0.0615  0.0765
 2751DOPC   PO432273  31.131   8.644  10.647 -0.1484  0.0519  0.1510
 2751DOPC   GL132274  31.079   8.737  11.060 -0.0800  0.1045  0.0711
 2751DOPC   GL232275  31.369   8.846  11.175 -0.0746  0.0981 -0.0275
 2751DOPC   C1A32276  30.869   8.714  11.483  0.0209  0.0989  0.0088
 2751DOPC   D2A32277  30.746   8.619  11.900 -0.1354 -0.0495  0.2202
 2751DOPC   C3A32278  30.458   8.278  12.055  0.1301  0.4157 -0.2294
 2751DOPC   C4A32279  30.037   8.231  12.316  0.2392  0.2221  0.0853
 2751DOPC   C1B32280  31.589   8.769  11.570  0.0941 -0.2589  0.1384
 2751DOPC   D2B32281  31.796   8.914  12.007  0.2922 -0.2368  0.1147
 2751DOPC   C3B32282  32.190   9.033  12.190 -0.0340  0.0839 -0.2222
 2751DOPC   C4B32283  32.701   8.930  12.078  0.1752  0.1502 -0.0383
 2752DOPS   CNO32284  27.880   6.203  11.436  0.0545  0.1533 -0.0016
 2752DOPS   PO432285  27.509   6.047  11.450  0.1564 -0.0381 -0.2872
 2752DOPS   GL132286  27.486   6.081  11.878  0.3205  0.1626 -0.2295
 2752DOPS   GL232287  27.212   6.004  12.042  0.2210  0.2081 -0.2189
 2752DOPS   C1A32288  27.714   6.179  12.267 -0.1130  0.2030  0.0356
 2752DOPS   D2A32289  27.832   6.261  12.645  0.1107 -0.4561 -0.0950
 2752DOPS   C3A32290  27.933   6.713  12.778 -0.0459 -0.0428 -0.0356
 2752DOPS   C4A32291  28.067   7.056  13.114 -0.0910 -0.1926  0.3274
 2752DOPS   C1B32292  27.024   5.693  12.349 -0.1625 -0.1794  0.0527
 2752DOPS   D2B32293  26.805   5.373  12.578  0.1348 -0.1089  0.0095
 2752DOPS   C3B32294  26.898   5.417  13.110 -0.0130 -0.2371  0.0753
 2752DOPS   C4B32295  26.750   5.654  13.476 -0.0981  0.1529 -0.0855
 2753DOPS   CNO32296  28.086   8.833  10.601 -0.3545  0.0834 -0.1547
 2753DOPS   PO432297  27.909   8.694  10.945 -0.2184 -0.0121 -0.1671
 2753DOPS   GL132298  27.754   8.819  11.416 -0.1586  0.2170 -0.0196
 2753DOPS   GL232299  27.590   8.615  11.560  0.0144  0.1527  0.0990
 2753DOPS   C1A32300  27.996   8.786  11.825 -0.0469  0.0134 -0.4027
 2753DOPS   D2A32301  28.203   8.552  12.119  0.1420  0.1609  0.0148
 2753DOPS   C3A32302  28.208   8.630  12.616 -0.2074  0.1294  0.0262
 2753DOPS   C4A32303  28.289   8.948  12.955 -0.1802 -0.1137  0.0155
 2753DOPS   C1B32304  27.239   8.729  11.784  0.0425 -0.2331 -0.3495
 2753DOPS   D2B32305  27.263   8.998  12.203 -0.0922  0.3168 -0.0679
 2753DOPS   C3B32306  27.472   8.881  12.587 -0.2609 -0.1278  0.1217
 2753DOPS   C4B32307  27.741   8.648  12.896  0.0405 -0.1248  0.0987
 2754DOPC   NC332308  24.200   9.136  10.085 -0.2880  0.2071 -0.3015
 2754DOPC   PO432309  24.023   8.912  10.336 -0.1920 -0.0808 -0.3852
 2754DOPC   GL132310  23.886   9.020  10.775 -0.1927 -0.0476  0.0098
 2754DOPC   GL232311  24.164   9.015  10.873 -0.3054 -0.1387  0.0168
 2754DOPC   C1A32312  23.455   8.957  10.963 -0.0236 -0.1103  0.1532
 2754DOPC   D2A32313  23.160   9.116  11.276 -0.2757 -0.3381  0.0496
 2754DOPC   C3A32314  23.127   9.020  11.751  0.0338  0.0190 -0.0822
 2754DOPC   C4A32315  23.351   9.046  12.150 -0.1527  0.3727 -0.0576
 2754DOPC   C1B32316  23.834   9.162  11.162  0.0361 -0.2605  0.2071
 2754DOPC   D2B32317  23.629   9.137  11.543 -0.0994 -0.3511 -0.0771
 2754DOPC   C3B32318  23.596   9.387  11.911 -0.1043 -0.2715 -0.0270
 2754DOPC   C4B32319  23.234   9.528  12.237  0.1947 -0.2443  0.0389
 2755DOPE   NH332320   0.630   2.110  10.458  0.1138 -0.1262  0.0155
 2755DOPE   PO432321   0.797   2.340  10.589  0.1503 -0.1435 -0.1608
 2755DOPE   GL132322   0.804   2.412  10.947  0.2341 -0.0285  0.0316
 2755DOPE   GL232323   0.687   2.139  11.006 -0.2982 -0.0479  0.2029
 2755DOPE   C1A32324   0.809   2.388  11.428 -0.4785  0.0830  0.4252
 2755DOPE   D2A32325   0.993   2.068  11.742  0.0652 -0.1335 -0.1387
 2755DOPE   C3A32326   1.022   2.237  12.205 -0.3020 -0.3452 -0.3361
 2755DOPE   C4A32327   1.414   2.383  12.441 -0.1087  0.1082 -0.0274
 2755DOPE   C1B32328   0.297   2.177  11.221 -0.0393 -0.0619 -0.1754
 2755DOPE   D2B32329   0.223   2.301  11.673  0.2906 -0.2583 -0.2443
 2755DOPE   C3B32330   0.601   2.313  11.923  0.0743  0.2616  0.1597
 2755DOPE   C4B32331   0.956   2.598  11.858 -0.2018 -0.2101 -0.2568
 2756DOPE   NH332332  24.206  13.487   9.333 -0.0094  0.0158  0.3530
 2756DOPE   PO432333  24.154  13.516   9.649  0.0443  0.0340 -0.0920
 2756DOPE   GL132334  23.993  13.284   9.972 -0.1057 -0.2120  0.0890
 2756DOPE   GL232335  24.028  13.476  10.174  0.1424 -0.3097  0.2748
 2756DOPE   C1A32336  24.152  12.905  10.261  0.2380  0.2606 -0.2167
 2756DOPE   D2A32337  24.423  12.738  10.600 -0.0377  0.1027 -0.3433
 2756DOPE   C3A32338  24.579  12.844  11.053 -0.0590  0.2848  0.5894
 2756DOPE   C4A32339  24.379  12.763  11.509  0.3025  0.0286  0.0484
 2756DOPE   C1B32340  23.942  13.371  10.566 -0.2981  0.1834 -0.2464
 2756DOPE   D2B32341  24.241  13.149  10.903 -0.0288 -0.1827  0.1252
 2756DOPE   C3B32342  24.108  13.175  11.394  0.0006  0.0650 -0.1912
 2756DOPE   C4B32343  23.879  13.128  11.779  0.3457 -0.0802 -0.2557
 2757POSM   NC332344  28.299   5.544  11.141  0.0081  0.1329  0.1135
 2757POSM   PO432345  28.164   5.357  11.442  0.0277  0.2282 -0.0046
 2757POSM   AM132346  28.098   5.240  11.727  0.0209  0.0434  0.1910
 2757POSM   AM232347  28.125   5.011  11.882 -0.2749  0.3576 -0.0096
 2757POSM   T1A32348  27.930   5.278  12.227 -0.1006 -0.0434 -0.0907
 2757POSM   C2A32349  27.757   5.224  12.598  0.0824  0.0100 -0.2828
 2757POSM   C3A32350  27.636   5.495  12.898 -0.0427  0.1214 -0.1199
 2757POSM   C1B32351  28.414   4.799  11.825 -0.0926 -0.1312 -0.2352
 2757POSM   D2B32352  28.677   4.418  11.689  0.0455  0.2309 -0.0813
 2757POSM   C3B32353  28.618   4.289  12.079  0.0144  0.1917  0.3834
 2757POSM   C4B32354  28.489   4.121  12.447 -0.2189  0.1655 -0.3427
 2758DOPS   CNO32355  32.970   7.999  10.687 -0.2489 -0.0826 -0.0648
 2758DOPS   PO432356  33.141   8.239  10.428 -0.0390  0.2441 -0.2519
 2758DOPS   GL132357  33.112   8.422  10.773 -0.3934  0.2508 -0.2709
 2758DOPS   GL232358  33.366   8.680  10.808  0.1329 -0.1967  0.0603
 2758DOPS   C1A32359  32.793   8.326  11.126 -0.0721  0.0606  0.0939
 2758DOPS   D2A32360  32.415   8.260  11.459  0.0401  0.0805  0.2505
 2758DOPS   C3A32361  32.475   7.938  11.791  0.1234 -0.2345 -0.0284
 2758DOPS   C4A32362  32.527   7.947  12.269  0.0423 -0.1564 -0.1523
 2758DOPS   C1B32363  33.030   8.777  11.058  0.1597 -0.0659  0.1130
 2758DOPS   D2B32364  32.940   8.739  11.525 -0.0832  0.2734 -0.1745
 2758DOPS   C3B32365  33.171   8.736  11.936  0.1066 -0.0973 -0.3298
 2758DOPS   C4B32366  33.532   8.650  12.214  0.0664 -0.0965 -0.1129
 2759DOPC   NC332367  34.255   1.880  10.568  0.1089  0.0622  0.2142
 2759DOPC   PO432368  34.615   1.947  10.413 -0.2090  0.5664  0.0213
 2759DOPC   GL132369  34.630   2.092  10.847 -0.0550 -0.2945  0.3910
 2759DOPC   GL232370  34.593   2.339  10.755  0.1577  0.1542 -0.0645
 2759DOPC   C1A32371  34.776   1.797  11.145  0.1877 -0.2571  0.1527
 2759DOPC   D2A32372  34.829   1.760  11.577 -0.3369 -0.1689  0.1078
 2759DOPC   C3A32373  34.560   1.730  11.950  0.1340 -0.2266  0.0305
 2759DOPC   C4A32374  34.276   1.611  12.306 -0.3836  0.2661 -0.4449
 2759DOPC   C1B32375  34.689   2.596  11.085 -0.2047 -0.0246  0.0716
 2759DOPC   D2B32376  34.731   2.694  11.558  0.2036 -0.0105 -0.1395
 2759DOPC   C3B32377  34.330   2.859  11.875 -0.0915 -0.1543 -0.3149
 2759DOPC   C4B32378  33.942   2.897  11.954 -0.0382  0.1439 -0.0105
 2760DOPE   NH332379  23.813   6.900  10.530 -0.1033 -0.0591 -0.0684
 2760DOPE   PO432380  24.027   6.723  10.677  0.3057  0.0187  0.1337
 2760DOPE   GL132381  24.038   6.605  11.027  0.2302  0.2178 -0.1385
 2760DOPE   GL232382  24.260   6.558  11.102 -0.2184 -0.1417 -0.0371
 2760DOPE   C1A32383  23.929   6.616  11.479  0.0440  0.0645 -0.2116
 2760DOPE   D2A32384  23.680   6.570  11.844 -0.1098  0.2358 -0.1549
 2760DOPE   C3A32385  24.037   6.637  12.180 -0.1332 -0.2067 -0.2269
 2760DOPE   C4A32386  24.479   6.463  12.232 -0.0508  0.2826  0.1908
 2760DOPE   C1B32387  24.418   6.216  11.386  0.1105 -0.2065  0.1233
 2760DOPE   D2B32388  24.520   6.000  11.832  0.0783 -0.1928  0.3364
 2760DOPE   C3B32389  24.269   5.988  12.204  0.2080 -0.2576 -0.1594
 2760DOPE   C4B32390  24.095   6.215  12.577 -0.1800  0.2055  0.0221
 2761DOPS   CNO32391  28.816   3.168  10.826  0.1319  0.3049 -0.0825
 2761DOPS   PO432392  29.160   3.284  10.919  0.0195  0.3219 -0.0486
 2761DOPS   GL132393  29.062   2.949  11.216 -0.1224  0.1942  0.0497
 2761DOPS   GL232394  29.270   3.012  11.476  0.3684 -0.2294  0.0529
 2761DOPS   C1A32395  28.869   2.906  11.672  0.0678 -0.2021  0.0496
 2761DOPS   D2A32396  28.764   2.888  12.160  0.0463  0.0938 -0.1407
 2761DOPS   C3A32397  29.096   3.130  12.445 -0.3784 -0.0709 -0.1122
 2761DOPS   C4A32398  29.018   3.426  12.857 -0.0370 -0.0815  0.1781
 2761DOPS   C1B32399  29.628   3.239  11.669 -0.0207 -0.1281 -0.0719
 2761DOPS   D2B32400  29.961   3.376  11.928  0.5124 -0.1714  0.1306
 2761DOPS   C3B32401  30.035   3.230  12.336  0.0596 -0.1703  0.0958
 2761DOPS   C4B32402  30.356   3.395  12.651 -0.0079 -0.2503  0.3081
 2762DOPS   CNO32403  32.696   9.006  10.603 -0.0022  0.1018 -0.1695
 2762DOPS   PO432404  32.338   9.086  10.454  0.2345  0.1838  0.1342
 2762DOPS   GL132405  32.210   9.198  10.872 -0.0327 -0.0223  0.1804
 2762DOPS   GL232406  32.019   9.029  10.950 -0.1818  0.1286 -0.0411
 2762DOPS   C1A32407  32.319   9.343  11.286  0.0004  0.2026  0.1122
 2762DOPS   D2A32408  32.551   9.347  11.678 -0.2359 -0.1002  0.1499
 2762DOPS   C3A32409  32.960   9.647  11.830  0.1171  0.0159 -0.0196
 2762DOPS   C4A32410  32.872   9.946  12.191 -0.0270 -0.0860 -0.2342
 2762DOPS   C1B32411  32.034   8.712  11.308 -0.4147  0.1466  0.0971
 2762DOPS   D2B32412  32.075   8.617  11.714 -0.0573 -0.1173 -0.2007
 2762DOPS   C3B32413  32.465   8.459  11.946  0.1035 -0.3827 -0.1122
 2762DOPS   C4B32414  32.898   8.331  11.791 -0.0158  0.2713 -0.2361
 2763DOPE   NH332415  25.273  11.884  10.102  0.2923 -0.3009 -0.2307
 2763DOPE   PO432416  25.187  12.158   9.988  0.0213  0.2657 -0.0016
 2763DOPE   GL132417  25.030  12.153  10.404 -0.2020  0.2562 -0.0117
 2763DOPE   GL232418  25.055  11.962  10.625 -0.1514  0.0140 -0.2510
 2763DOPE   C1A32419  24.796  12.424  10.739  0.0829 -0.1984 -0.1634
 2763DOPE   D2A32420  24.993  12.811  10.852 -0.0910  0.0408 -0.0408
 2763DOPE   C3A32421  24.887  13.203  11.137  0.0049 -0.0829  0.0723
 2763DOPE   C4A32422  25.057  13.569  11.046  0.3349 -0.0115  0.1727
 2763DOPE   C1B32423  24.733  11.960  10.991 -0.1410  0.0722  0.1201
 2763DOPE   D2B32424  24.583  11.575  11.248 -0.0750  0.2529 -0.2703
 2763DOPE   C3B32425  24.095  11.417  11.308  0.1119  0.0408  0.4637
 2763DOPE   C4B32426  23.753  11.329  11.674  0.1071 -0.0355 -0.1173
 2764DOPE   NH332427  29.987   6.215  11.034 -0.0212  0.1551  0.2036
 2764DOPE   PO432428  29.751   6.257  11.269  0.1100 -0.2310 -0.2916
 2764DOPE   GL132429  29.705   6.031  11.575  0.0192 -0.4326 -0.0419
 2764DOPE   GL232430  29.976   5.889  11.650  0.3456  0.0571 -0.0477
 2764DOPE   C1A32431  29.673   6.044  12.044 -0.1841  0.0696  0.1330
 2764DOPE   D2A32432  29.700   6.275  12.419 -0.0891 -0.0617  0.0256
 2764DOPE   C3A32433  29.421   6.532  12.693  0.0298 -0.1739 -0.1805
 2764DOPE   C4A32434  29.435   6.751  13.077  0.1112  0.0287  0.0326
 2764DOPE   C1B32435  30.136   5.870  12.093 -0.4186  0.3187 -0.1144
 2764DOPE   D2B32436  30.037   5.914  12.527 -0.0388 -0.1176  0.1181
 2764DOPE   C3B32437  30.419   5.713  12.703  0.1559 -0.1661 -0.3142
 2764DOPE   C4B32438  30.730   5.498  12.939 -0.1045 -0.0431  0.0682
 2765POSM   NC332439   1.758  34.569  10.718  0.0647 -0.1414 -0.1089
 2765POSM   PO432440   1.429  34.426  10.546 -0.0202  0.0908  0.2003
 2765POSM   AM132441   1.243  34.583  10.758  0.0475 -0.1098  0.2049
 2765POSM   AM232442   1.258  34.676  10.998 -0.0139 -0.3304  0.1028
 2765POSM   T1A32443   0.775  34.684  10.923 -0.1822 -0.2011 -0.1813
 2765POSM   C2A32444   0.504  34.942  11.132 -0.0971  0.0514  0.0493
 2765POSM   C3A32445   0.087  35.144  11.149  0.0869 -0.0089  0.0314
 2765POSM   C1B32446   1.393  34.661  11.298 -0.2156  0.2175 -0.1467
 2765POSM   D2B32447   1.464  34.913  11.630 -0.1257  0.1459  0.2182
 2765POSM   C3B32448   1.714  34.673  11.983  0.2357 -0.0775  0.3111
 2765POSM   C4B32449   1.916  34.368  12.290  0.2526 -0.0667  0.2296
 2766DOPC   NC332450  33.553   5.207  10.623  0.2226  0.2251  0.1299
 2766DOPC   PO432451  33.697   5.571  10.440 -0.2469 -0.0905  0.0146
 2766DOPC   GL132452  33.706   5.908  10.594  0.0161  0.1208 -0.0587
 2766DOPC   GL232453  33.916   6.118  10.510 -0.0269 -0.3243 -0.2182
 2766DOPC   C1A32454  33.691   6.020  11.036 -0.3956 -0.0343  0.0931
 2766DOPC   D2A32455  33.952   6.247  11.324  0.2038 -0.2028  0.0236
 2766DOPC   C3A32456  33.869   6.203  11.802  0.1454 -0.3618 -0.2237
 2766DOPC   C4A32457  34.139   6.199  12.215  0.2936  0.1525 -0.1709
 2766DOPC   C1B32458  34.014   6.428  10.854  0.1243  0.0927 -0.0878
 2766DOPC   D2B32459  34.267   6.695  11.085  0.0571 -0.0486 -0.2923
 2766DOPC   C3B32460  34.217   6.646  11.570 -0.0262 -0.0092 -0.0017
 2766DOPC   C4B32461  34.047   6.639  12.010  0.2068 -0.0645  0.0188
 2767DOPC   NC332462  25.230   6.460  11.077  0.0581 -0.2741  0.1252
 2767DOPC   PO432463  25.568   6.467  11.297 -0.1665  0.0255  0.5712
 2767DOPC   GL132464  25.607   6.562  11.624 -0.1597 -0.1467  0.0876
 2767DOPC   GL232465  25.308   6.551  11.687  0.0769  0.2021  0.0869
 2767DOPC   C1A32466  25.738   6.481  12.004 -0.1212  0.2383  0.2840
 2767DOPC   D2A32467  26.049   6.281  12.297  0.2061 -0.1728  0.1379
 2767DOPC   C3A32468  26.266   6.311  12.610  0.0418 -0.1190 -0.1232
 2767DOPC   C4A32469  26.198   6.167  12.997 -0.0844 -0.0493 -0.1824
 2767DOPC   C1B32470  25.276   6.605  12.104  0.0061 -0.1137  0.1081
 2767DOPC   D2B32471  25.031   6.561  12.493 -0.0193 -0.0234 -0.0269
 2767DOPC   C3B32472  25.255   6.259  12.833 -0.3343  0.1491 -0.0475
 2767DOPC   C4B32473  25.330   5.841  12.962 -0.0168  0.0622  0.3644
 2768DOPE   NH332474  32.108   9.574  10.655 -0.1550  0.0676 -0.1761
 2768DOPE   PO432475  32.210   9.838  10.582  0.1063  0.2920  0.2414
 2768DOPE   GL132476  32.222   9.892  10.988 -0.0719 -0.1532  0.0088
 2768DOPE   GL232477  32.487   9.743  10.971 -0.0900 -0.0889 -0.0539
 2768DOPE   C1A32478  32.493  10.215  11.134  0.0274 -0.2204  0.1393
 2768DOPE   D2A32479  32.704  10.646  11.171 -0.1416 -0.1827  0.1150
 2768DOPE   C3A32480  32.942  10.689  11.550 -0.1011 -0.0880 -0.0575
 2768DOPE   C4A32481  33.134  10.679  11.979  0.1437 -0.0559  0.0603
 2768DOPE   C1B32482  32.597   9.735  11.392  0.0028  0.1595 -0.1576
 2768DOPE   D2B32483  32.744  10.134  11.550 -0.0868 -0.0905 -0.0524
 2768DOPE   C3B32484  32.661  10.315  11.976 -0.0798 -0.2115  0.1700
 2768DOPE   C4B32485  32.642  10.449  12.430 -0.1854 -0.0918  0.0013
 2769POSM   NC332486   1.456  12.175  11.290 -0.1531  0.1672  0.4380
 2769POSM   PO432487   1.064  12.097  11.210  0.2225 -0.0191  0.3292
 2769POSM   AM132488   1.030  11.863  11.456  0.0894 -0.4311 -0.0482
 2769POSM   AM232489   0.959  11.582  11.483 -0.0856 -0.0005  0.0205
 2769POSM   T1A32490   0.948  11.906  11.954  0.0965  0.5721  0.0053
 2769POSM   C2A32491   0.640  11.887  12.351 -0.2439  0.0078  0.2174
 2769POSM   C3A32492   0.433  11.695  12.723 -0.0796 -0.0740 -0.0326
 2769POSM   C1B32493   1.082  11.433  11.773  0.0634  0.0209  0.1623
 2769POSM   D2B32494   1.015  11.345  12.188 -0.1774 -0.0482 -0.2465
 2769POSM   C3B32495   1.200  11.730  12.353 -0.2582  0.2272 -0.1111
 2769POSM   C4B32496   1.157  12.145  12.307 -0.1224  0.0199 -0.1779
 2770DOPE   NH332497  34.369   4.998  10.244 -0.2694 -0.0896 -0.4053
 2770DOPE   PO432498  34.591   4.938  10.446 -0.0642  0.2079 -0.1404
 2770DOPE   GL132499  34.516   5.047  10.838  0.1306 -0.3472 -0.2906
 2770DOPE   GL232500  34.255   4.906  10.893 -0.1913 -0.1700  0.1929
 2770DOPE   C1A32501  34.341   5.399  11.146 -0.0762 -0.0144 -0.4117
 2770DOPE   D2A32502  34.201   5.796  11.372  0.4234  0.0181  0.2208
 2770DOPE   C3A32503  34.474   6.063  11.532  0.0489  0.0320 -0.0877
 2770DOPE   C4A32504  34.593   6.224  11.931 -0.2701  0.0719 -0.0526
 2770DOPE   C1B32505  33.930   5.187  11.004  0.2843  0.1185 -0.2143
 2770DOPE   D2B32506  33.727   5.548  11.002  0.0732  0.0145  0.2138
 2770DOPE   C3B32507  34.133   5.826  10.897  0.1692  0.0935  0.0428
 2770DOPE   C4B32508  34.453   6.129  10.999 -0.0181 -0.1003 -0.2895
 2771DOPC   NC332509  33.342   6.054  10.322  0.5642  0.0312 -0.3108
 2771DOPC   PO432510  32.985   6.127  10.505  0.0132  0.4135 -0.1537
 2771DOPC   GL132511  33.150   6.105  10.873  0.1363  0.1354 -0.1352
 2771DOPC   GL232512  33.289   5.810  10.876  0.0457  0.0601 -0.2180
 2771DOPC   C1A32513  33.473   6.413  11.012  0.1397 -0.0059  0.0667
 2771DOPC   D2A32514  33.789   6.708  11.301  0.0675  0.0628  0.0105
 2771DOPC   C3A32515  33.679   6.940  11.671  0.0459  0.0181 -0.0031
 2771DOPC   C4A32516  33.645   7.069  12.064  0.1026  0.1093  0.0593
 2771DOPC   C1B32517  33.274   6.072  11.283  0.2285 -0.0620  0.2062
 2771DOPC   D2B32518  33.332   6.266  11.670 -0.2639 -0.0563  0.3223
 2771DOPC   C3B32519  33.086   6.290  12.063  0.0205 -0.0090 -0.1117
 2771DOPC   C4B32520  32.966   5.974  12.367  0.0037  0.1938  0.0247
 2772DOPS   CNO32521  25.407   2.720  11.258  0.1372 -0.1520  0.0177
 2772DOPS   PO432522  25.338   3.050  11.347  0.1295 -0.0583  0.2819
 2772DOPS   GL132523  25.510   2.875  11.750 -0.3053  0.0858  0.0100
 2772DOPS   GL232524  25.704   3.091  11.706 -0.2095 -0.0207  0.1567
 2772DOPS   C1A32525  25.403   2.587  12.126 -0.3178 -0.5068  0.3945
 2772DOPS   D2A32526  25.516   2.641  12.602  0.4085 -0.0970 -0.1718
 2772DOPS   C3A32527  25.199   2.567  12.963  0.0451  0.0256  0.1530
 2772DOPS   C4A32528  25.260   2.350  13.339  0.0622  0.0338  0.0272
 2772DOPS   C1B32529  25.428   3.097  12.119  0.0086  0.1596 -0.3047
 2772DOPS   D2B32530  25.170   3.169  12.521 -0.2369  0.0810 -0.0619
 2772DOPS   C3B32531  25.291   3.616  12.600 -0.1203  0.0767 -0.1429
 2772DOPS   C4B32532  25.245   4.071  12.765 -0.1675 -0.1498 -0.0687
 2773DOPE   NH332533  28.285  10.059  10.685  0.1470 -0.2327 -0.1244
 2773DOPE   PO432534  28.390  10.320  10.565 -0.2202 -0.1387 -0.2346
 2773DOPE   GL132535  28.340  10.374  11.005 -0.0098  0.0009  0.2121
 2773DOPE   GL232536  28.056  10.271  11.157  0.2662 -0.2942 -0.2116
 2773DOPE   C1A32537  28.506  10.665  11.304 -0.2652  0.1804  0.1092
 2773DOPE   D2A32538  28.686  10.703  11.750  0.2371  0.4620 -0.0373
 2773DOPE   C3A32539  28.573  10.980  12.048 -0.2881 -0.1546 -0.0369
 2773DOPE   C4A32540  28.364  11.014  12.475 -0.2122 -0.0051 -0.3917
 2773DOPE   C1B32541  28.005  10.121  11.584 -0.0104  0.0521  0.1827
 2773DOPE   D2B32542  27.923  10.216  11.981  0.0361  0.2111  0.2213
 2773DOPE   C3B32543  28.122   9.805  12.102  0.4831 -0.2324  0.1314
 2773DOPE   C4B32544  28.218   9.337  11.946  0.4286 -0.1507  0.0190
 2774DOPE   NH332545  25.424   5.684  11.214  0.1167 -0.1972 -0.3365
 2774DOPE   PO432546  25.338   5.974  11.184  0.2293 -0.0565  0.1500
 2774DOPE   GL132547  25.273   6.097  11.552  0.2684  0.0207 -0.2768
 2774DOPE   GL232548  24.970   6.270  11.519  0.3752  0.1468 -0.2314
 2774DOPE   C1A32549  25.404   6.073  11.998  0.0654  0.3230  0.1618
 2774DOPE   D2A32550  25.729   5.923  12.216 -0.2305  0.0489 -0.2032
 2774DOPE   C3A32551  25.761   5.962  12.680 -0.0741  0.0469 -0.0901
 2774DOPE   C4A32552  25.904   5.761  13.046 -0.0159 -0.1437 -0.0173
 2774DOPE   C1B32553  24.889   6.310  11.939 -0.0031  0.2871  0.0482
 2774DOPE   D2B32554  24.774   6.045  12.260  0.0352  0.2633  0.3167
 2774DOPE   C3B32555  24.761   6.109  12.722 -0.5072 -0.0538  0.0021
 2774DOPE   C4B32556  24.828   6.431  13.008  0.1103 -0.1764 -0.2264
 2775DOPS   CNO32557   0.313  12.614  10.717 -0.0422  0.1208 -0.0595
 2775DOPS   PO432558   0.018  12.470  10.771  0.2274 -0.0088 -0.1491
 2775DOPS   GL132559   0.192  12.308  11.073 -0.1938 -0.0361  0.0946
 2775DOPS   GL232560   0.329  12.493  11.196 -0.1169 -0.1235  0.3569
 2775DOPS   C1A32561  -0.002  12.022  11.409 -0.0445 -0.1272 -0.0353
 2775DOPS   D2A32562  -0.057  11.583  11.475  0.0415  0.3605 -0.1808
 2775DOPS   C3A32563   0.233  11.417  11.786  0.0439 -0.1224 -0.1457
 2775DOPS   C4A32564   0.612  11.482  11.968 -0.0207 -0.2192  0.0824
 2775DOPS   C1B32565   0.301  12.351  11.624 -0.2746 -0.2887 -0.3851
 2775DOPS   D2B32566   0.227  12.213  12.117 -0.2789  0.3211  0.2234
 2775DOPS   C3B32567   0.193  11.779  12.206  0.2157  0.4185  0.2226
 2775DOPS   C4B32568   0.157  11.323  12.272  0.0360  0.2609  0.3132
 2776DOPE   NH332569   1.367   0.629  10.293 -0.1669 -0.0624 -0.2333
 2776DOPE   PO432570   1.165   0.877  10.372  0.3247 -0.1542  0.1133
 2776DOPE   GL132571   1.365   0.911  10.739  0.0992  0.1528  0.2928
 2776DOPE   GL232572   1.483   0.713  10.799  0.1170 -0.3003 -0.2471
 2776DOPE   C1A32573   1.182   0.938  11.156  0.1827 -0.2525 -0.0881
 2776DOPE   D2A32574   1.004   1.078  11.589  0.0169  0.2301  0.3242
 2776DOPE   C3A32575   1.283   1.456  11.503 -0.1586  0.1727  0.1808
 2776DOPE   C4A32576   1.696   1.657  11.268  0.0848  0.0489  0.0018
 2776DOPE   C1B32577   1.677   1.005  11.115 -0.0151  0.3621 -0.1355
 2776DOPE   D2B32578   1.883   1.290  11.523  0.2127 -0.3229  0.0570
 2776DOPE   C3B32579   1.803   1.358  11.978  0.2385 -0.0577 -0.4636
 2776DOPE   C4B32580   1.571   1.403  12.400 -0.0311  0.1142 -0.4461
 2777DOPS   CNO32581  31.248   0.764  10.426 -0.3289 -0.1952 -0.0232
 2777DOPS   PO432582  31.413   0.719  10.750 -0.0233  0.0712  0.2162
 2777DOPS   GL132583  31.497   0.922  11.131 -0.4091 -0.0439  0.1323
 2777DOPS   GL232584  31.359   1.145  11.186 -0.0004 -0.2918  0.0181
 2777DOPS   C1A32585  31.807   0.913  11.432  0.0125 -0.0411  0.1564
 2777DOPS   D2A32586  31.922   0.977  11.870  0.1544  0.3448 -0.1632
 2777DOPS   C3A32587  32.349   0.979  12.023  0.0391 -0.0936 -0.2796
 2777DOPS   C4A32588  32.771   1.113  12.066  0.2558 -0.3084 -0.0216
 2777DOPS   C1B32589  31.564   1.396  11.543  0.0565  0.3436 -0.0431
 2777DOPS   D2B32590  31.520   1.246  11.959 -0.0361 -0.0368  0.1743
 2777DOPS   C3B32591  31.471   1.546  12.271  0.2138  0.2761  0.0900
 2777DOPS   C4B32592  31.056   1.721  12.369 -0.0574  0.4119  0.3315
 2778DOPS   CNO32593  33.656   0.861  10.667 -0.1584  0.0895 -0.2644
 2778DOPS   PO432594  33.423   0.598  10.525  0.4406 -0.5154  0.1220
 2778DOPS   GL132595  33.359   0.549  10.989  0.1783  0.0184  0.3097
 2778DOPS   GL232596  33.189   0.259  11.082 -0.1614 -0.1697  0.0075
 2778DOPS   C1A32597  33.351   0.709  11.435  0.0040  0.1134  0.4078
 2778DOPS   D2A32598  33.222   0.898  11.838  0.0465  0.1241  0.0088
 2778DOPS   C3A32599  33.092   0.665  12.204 -0.2031  0.1269 -0.0105
 2778DOPS   C4A32600  32.782   0.665  12.459  0.1027 -0.1806 -0.1218
 2778DOPS   C1B32601  33.449   0.132  11.422  0.0269 -0.0581 -0.0986
 2778DOPS   D2B32602  33.774  -0.185  11.568 -0.4247  0.3635 -0.0342
 2778DOPS   C3B32603  34.091  -0.268  11.911 -0.0614  0.0929 -0.0553
 2778DOPS   C4B32604  34.526  -0.161  12.093  0.0172  0.1634 -0.0140
 2779DOPC   NC332605  28.086   4.066  11.114 -0.0211  0.1510  0.2216
 2779DOPC   PO432606  28.466   3.965  11.074 -0.1559 -0.2997 -0.1443
 2779DOPC   GL132607  28.472   4.011  11.481 -0.1836 -0.3861  0.0743
 2779DOPC   GL232608  28.196   4.108  11.645  0.0844 -0.3318  0.0955
 2779DOPC   C1A32609  28.847   3.933  11.657 -0.0905 -0.1903  0.0619
 2779DOPC   D2A32610  29.050   3.814  12.088 -0.0395  0.1905 -0.0769
 2779DOPC   C3A32611  28.822   3.622  12.438 -0.1180 -0.1031  0.0829
 2779DOPC   C4A32612  28.606   3.268  12.632 -0.0495  0.0018  0.2569
 2779DOPC   C1B32613  28.390   3.880  11.949  0.0334  0.1521 -0.0966
 2779DOPC   D2B32614  28.354   3.475  12.196  0.2242  0.3642  0.1576
 2779DOPC   C3B32615  27.945   3.344  12.405 -0.3719  0.1430 -0.0539
 2779DOPC   C4B32616  27.814   2.985  12.633 -0.1478  0.1635 -0.0513
 2780DOPC   NC332617   0.352   9.095  10.597  0.3042  0.2375 -0.1747
 2780DOPC   PO432618   0.371   9.461  10.792  0.0945  0.0249  0.0465
 2780DOPC   GL132619   0.360   9.428  11.179  0.4360  0.2882  0.0209
 2780DOPC   GL232620   0.317   9.118  11.251 -0.0386 -0.2347  0.0616
 2780DOPC   C1A32621   0.672   9.497  11.444 -0.3768  0.1407 -0.0813
 2780DOPC   D2A32622   0.718   9.580  11.846 -0.0723  0.0304  0.5015
 2780DOPC   C3A32623   0.953   9.286  12.152 -0.0689 -0.4796  0.0841
 2780DOPC   C4A32624   0.939   8.924  12.348  0.1685  0.0695 -0.1692
 2780DOPC   C1B32625   0.404   9.133  11.652 -0.1089 -0.1058  0.1704
 2780DOPC   D2B32626   0.428   9.029  12.161  0.0659  0.1355 -0.0656
 2780DOPC   C3B32627   0.525   9.357  12.453  0.1070 -0.2322 -0.2258
 2780DOPC   C4B32628   0.587   9.749  12.718 -0.0567  0.0859 -0.0664
 2781DOPE   NH332629  29.807   3.842  10.983 -0.2192  0.1535 -0.1366
 2781DOPE   PO432630  29.614   3.693  10.788 -0.1248 -0.0900  0.2381
 2781DOPE   GL132631  29.468   3.452  11.183  0.0928  0.1990 -0.2265
 2781DOPE   GL232632  29.761   3.394  11.164  0.1386 -0.0639 -0.1766
 2781DOPE   C1A32633  29.326   3.635  11.622 -0.0180 -0.4487 -0.0660
 2781DOPE   D2A32634  29.479   3.510  12.049 -0.0729  0.1959 -0.3012
 2781DOPE   C3A32635  29.413   3.498  12.496 -0.0238 -0.1424 -0.0811
 2781DOPE   C4A32636  29.813   3.404  12.765 -0.2103 -0.2703  0.3226
 2781DOPE   C1B32637  29.808   3.654  11.475 -0.0525  0.0925 -0.2555
 2781DOPE   D2B32638  29.816   3.896  11.838 -0.2590 -0.1970  0.0966
 2781DOPE   C3B32639  29.989   3.770  12.218 -0.1030  0.0031  0.0491
 2781DOPE   C4B32640  29.926   3.931  12.623 -0.4722  0.0992  0.1985
 2782DOPC   NC332641  33.557  13.009  10.537  0.2077 -0.0928  0.3497
 2782DOPC   PO432642  33.251  13.249  10.521  0.1543  0.1872  0.2766
 2782DOPC   GL132643  33.000  13.143  10.827  0.1003  0.1461 -0.1073
 2782DOPC   GL232644  33.181  12.923  10.886 -0.0234  0.0194  0.0247
 2782DOPC   C1A32645  32.684  13.288  11.138  0.2511 -0.4343  0.2501
 2782DOPC   D2A32646  32.628  13.300  11.627  0.2593  0.1898 -0.0171
 2782DOPC   C3A32647  33.003  13.309  11.939  0.2344  0.0055  0.2975
 2782DOPC   C4A32648  33.144  13.503  12.291  0.0058 -0.0883 -0.0479
 2782DOPC   C1B32649  33.084  12.642  11.236 -0.0455  0.0130 -0.1533
 2782DOPC   D2B32650  32.868  12.396  11.615  0.3511 -0.1398 -0.1012
 2782DOPC   C3B32651  33.116  12.050  11.838  0.0424 -0.0953  0.4057
 2782DOPC   C4B32652  33.226  11.615  11.811  0.0700 -0.1252  0.3918
 2783POSM   NC332653  27.212   7.180  11.742  0.1560 -0.0213 -0.1216
 2783POSM   PO432654  27.453   6.934  11.666  0.1252  0.1464 -0.1769
 2783POSM   AM132655  27.566   6.838  11.953  0.0627 -0.0220  0.2802
 2783POSM   AM232656  27.499   6.644  12.193  0.2701 -0.0215  0.3588
 2783POSM   T1A32657  27.804   7.058  12.337  0.0942 -0.0122 -0.0036
 2783POSM   C2A32658  27.859   7.350  12.719 -0.1197 -0.1754  0.2024
 2783POSM   C3A32659  27.637   7.579  13.007  0.2336  0.3117 -0.0397
 2783POSM   C1B32660  27.496   6.670  12.488 -0.0954 -0.0226  0.2742
 2783POSM   D2B32661  27.329   6.645  12.918  0.0417 -0.1866  0.5133
 2783POSM   C3B32662  27.195   6.439  13.300  0.2217  0.3797 -0.1631
 2783POSM   C4B32663  26.971   6.052  13.292 -0.1439  0.3698 -0.1291
 2784DOPC   NC332664  26.334   8.225  11.378 -0.0785  0.0741 -0.0408
 2784DOPC   PO432665  26.193   8.376  11.054  0.0429  0.0970 -0.2317
 2784DOPC   GL132666  26.263   8.643  11.315  0.0828  0.0932  0.1618
 2784DOPC   GL232667  26.082   8.814  11.264  0.2233 -0.0725  0.2879
 2784DOPC   C1A32668  26.593   8.639  11.606 -0.0623 -0.0496  0.3017
 2784DOPC   D2A32669  26.791   8.552  12.062 -0.1024  0.0536  0.1591
 2784DOPC   C3A32670  26.990   8.675  12.412 -0.0550  0.0748 -0.3008
 2784DOPC   C4A32671  27.163   8.577  12.811 -0.1364 -0.2235  0.1163
 2784DOPC   C1B32672  26.243   9.003  11.659 -0.1496 -0.2312  0.0571
 2784DOPC   D2B32673  26.209   9.152  12.129 -0.0494 -0.0114 -0.1487
 2784DOPC   C3B32674  26.008   8.895  12.472  0.1870  0.0643 -0.1318
 2784DOPC   C4B32675  26.085   8.521  12.745  0.2401 -0.0194 -0.2786
 2785DOPC   NC332676  30.608   8.518  11.071  0.1097  0.3329 -0.2042
 2785DOPC   PO432677  30.206   8.493  11.118 -0.1715 -0.1214 -0.3017
 2785DOPC   GL132678  30.319   8.497  11.448 -0.2581 -0.3410 -0.0651
 2785DOPC   GL232679  30.182   8.488  11.654 -0.1611 -0.2793  0.1298
 2785DOPC   C1A32680  30.662   8.191  11.603 -0.0763 -0.0572 -0.3381
 2785DOPC   D2A32681  30.955   8.015  11.926 -0.0586 -0.0864  0.0004
 2785DOPC   C3A32682  31.020   8.361  12.254  0.2578  0.2040 -0.1307
 2785DOPC   C4A32683  31.252   8.576  12.538  0.2897  0.0656  0.0052
 2785DOPC   C1B32684  29.924   8.669  11.971  0.0548 -0.1055 -0.0515
 2785DOPC   D2B32685  29.925   9.137  12.094 -0.0003  0.1140 -0.0016
 2785DOPC   C3B32686  30.219   9.361  12.390 -0.2085 -0.0033 -0.0682
 2785DOPC   C4B32687  30.598   9.131  12.570  0.0349  0.1754 -0.0765
 2786DOPE   NH332688  26.010  10.654  10.951 -0.1091  0.1080 -0.0608
 2786DOPE   PO432689  26.301  10.592  10.894  0.1926 -0.0911  0.0946
 2786DOPE   GL132690  26.344  10.743  11.279  0.2268 -0.1736 -0.0975
 2786DOPE   GL232691  26.310  10.444  11.412  0.2663  0.1309  0.2684
 2786DOPE   C1A32692  25.985  10.909  11.508 -0.0795 -0.0249 -0.1263
 2786DOPE   D2A32693  25.831  10.632  11.895  0.1069 -0.1750 -0.2626
 2786DOPE   C3A32694  26.010  10.589  12.313 -0.1740 -0.1816 -0.0718
 2786DOPE   C4A32695  26.304  10.554  12.670 -0.2445  0.0838 -0.2123
 2786DOPE   C1B32696  26.646  10.289  11.652 -0.1056 -0.0268 -0.0893
 2786DOPE   D2B32697  26.876  10.493  12.039  0.1484  0.0028  0.0933
 2786DOPE   C3B32698  26.855  10.969  12.013 -0.0672 -0.0590  0.1334
 2786DOPE   C4B32699  26.706  11.357  12.184  0.1908  0.0354 -0.0377
 2787DOPE   NH332700  28.086   9.328  10.575 -0.1439 -0.0485 -0.1848
 2787DOPE   PO432701  27.851   9.511  10.608 -0.1954 -0.0736 -0.0468
 2787DOPE   GL132702  28.059   9.638  10.957  0.0115  0.4631  0.1044
 2787DOPE   GL232703  28.256   9.771  11.124  0.0458 -0.2243 -0.2030
 2787DOPE   C1A32704  27.885   9.495  11.345 -0.2023 -0.0747  0.4437
 2787DOPE   D2A32705  27.790   9.619  11.797 -0.0486  0.2468 -0.0698
 2787DOPE   C3A32706  27.716   9.465  12.259 -0.0008 -0.0867  0.0200
 2787DOPE   C4A32707  27.821   9.609  12.705 -0.1707  0.0065  0.1359
 2787DOPE   C1B32708  28.338   9.615  11.592 -0.1512 -0.0084 -0.1230
 2787DOPE   D2B32709  28.695   9.664  11.916 -0.2051 -0.2090  0.3253
 2787DOPE   C3B32710  28.655   9.372  12.274  0.0268 -0.2782  0.0185
 2787DOPE   C4B32711  28.706   9.157  12.702  0.0467 -0.1407 -0.1227
 2788DOPC   NC332712  24.464   9.215  10.529  0.2261 -0.1586 -0.1397
 2788DOPC   PO432713  24.563   9.605  10.450 -0.0066 -0.4526 -0.0364
 2788DOPC   GL132714  24.630   9.723  10.898  0.1670 -0.0207 -0.0099
 2788DOPC   GL232715  24.469   9.472  10.955 -0.0369 -0.0632  0.1129
 2788DOPC   C1A32716  24.382   9.886  11.307 -0.3193 -0.2287 -0.1107
 2788DOPC   D2A32717  24.301   9.982  11.746  0.1394  0.1369  0.1761
 2788DOPC   C3A32718  24.612  10.095  12.073  0.1457  0.1189  0.2528
 2788DOPC   C4A32719  24.744  10.160  12.525 -0.0277  0.3113  0.0913
 2788DOPC   C1B32720  24.326   9.248  11.287 -0.1727  0.1056  0.2370
 2788DOPC   D2B32721  24.138   8.962  11.601  0.4788  0.1570  0.2419
 2788DOPC   C3B32722  24.142   8.492  11.600 -0.2478  0.1377  0.0842
 2788DOPC   C4B32723  24.270   8.112  11.670  0.0347 -0.3031  0.0316
 2789DOPE   NH332724  34.524   7.799  10.466 -0.1349 -0.3568 -0.2083
 2789DOPE   PO432725  34.323   8.062  10.506  0.0878  0.2631 -0.0487
 2789DOPE   GL132726  34.345   8.075  10.949 -0.2095  0.2040  0.2127
 2789DOPE   GL232727  34.564   7.930  10.993  0.5521 -0.1503 -0.2218
 2789DOPE   C1A32728  34.369   8.451  11.156 -0.0014 -0.0182  0.0505
 2789DOPE   D2A32729  34.108   8.663  11.437 -0.1955  0.2193  0.0317
 2789DOPE   C3A32730  34.295   8.870  11.708 -0.1538 -0.2679  0.2507
 2789DOPE   C4A32731  34.501   8.867  12.132 -0.2116 -0.0098 -0.0160
 2789DOPE   C1B32732  34.449   8.076  11.427 -0.1316 -0.0954  0.1397
 2789DOPE   D2B32733  34.470   8.377  11.740  0.0019 -0.0321 -0.1234
 2789DOPE   C3B32734  34.119   8.390  11.911  0.0545 -0.0542  0.0081
 2789DOPE   C4B32735  33.912   8.236  12.348  0.0935  0.1713  0.0426
 2790DOPS   CNO32736  29.452   5.554  11.027  0.1220 -0.1678  0.2303
 2790DOPS   PO432737  29.743   5.746  11.176 -0.1740 -0.0896  0.0959
 2790DOPS   GL132738  29.706   5.509  11.420 -0.3120 -0.2252  0.4034
 2790DOPS   GL232739  29.633   5.488  11.705  0.2550 -0.2403 -0.2188
 2790DOPS   C1A32740  30.201   5.477  11.609  0.0963 -0.1997  0.2236
 2790DOPS   D2A32741  30.589   5.214  11.635  0.1425  0.3856 -0.4034
 2790DOPS   C3A32742  30.925   5.129  11.913 -0.1725 -0.0826 -0.1039
 2790DOPS   C4A32743  31.164   4.854  12.159 -0.1321  0.0018  0.2900
 2790DOPS   C1B32744  29.548   5.511  12.147  0.0064 -0.0003  0.3398
 2790DOPS   D2B32745  29.276   5.120  12.291 -0.0867  0.1931  0.4937
 2790DOPS   C3B32746  29.264   4.862  12.646 -0.0187 -0.0802 -0.0557
 2790DOPS   C4B32747  29.005   4.834  13.047  0.0156 -0.0177  0.0569
 2791DOPC   NC332748  25.412  13.026   9.859 -0.1360  0.3399  0.0232
 2791DOPC   PO432749  25.609  13.300   9.999  0.0540 -0.0453 -0.0611
 2791DOPC   GL132750  25.560  13.374  10.392  0.1740  0.1904  0.1292
 2791DOPC   GL232751  25.789  13.572  10.415  0.2613 -0.2959 -0.0823
 2791DOPC   C1A32752  25.481  13.280  10.802 -0.0653  0.1917 -0.0099
 2791DOPC   D2A32753  25.499  12.903  11.007  0.2877  0.3451  0.0263
 2791DOPC   C3A32754  25.545  12.861  11.450 -0.2668 -0.1243 -0.1025
 2791DOPC   C4A32755  25.457  12.760  11.930 -0.2714  0.1049 -0.0728
 2791DOPC   C1B32756  25.750  13.711  10.805 -0.0313  0.0144  0.1048
 2791DOPC   D2B32757  25.737  13.876  11.253 -0.1620 -0.0962  0.0083
 2791DOPC   C3B32758  25.365  13.657  11.387 -0.0101 -0.1220 -0.0028
 2791DOPC   C4B32759  25.216  13.203  11.471  0.2039  0.0585  0.1806
 2792POSM   NC332760  32.367   5.945  10.536  0.0661  0.0839 -0.2491
 2792POSM   PO432761  32.235   6.351  10.471 -0.0289 -0.0108 -0.0268
 2792POSM   AM132762  32.366   6.332  10.805 -0.2005  0.0238 -0.3367
 2792POSM   AM232763  32.627   6.225  10.867  0.1577 -0.0345  0.0007
 2792POSM   T1A32764  32.356   6.363  11.289 -0.0407 -0.4850 -0.2488
 2792POSM   C2A32765  32.434   6.264  11.741 -0.0545  0.0665  0.0152
 2792POSM   C3A32766  32.603   6.262  12.172 -0.0785  0.1798  0.4144
 2792POSM   C1B32767  32.745   6.084  11.149 -0.2100  0.0813  0.1225
 2792POSM   D2B32768  32.940   5.707  11.345 -0.0417  0.3030 -0.1228
 2792POSM   C3B32769  33.384   5.640  11.416 -0.0746 -0.3941  0.0190
 2792POSM   C4B32770  33.752   5.734  11.493 -0.3532 -0.2080  0.0255
 2793DOPC   NC332771  26.134   7.506  11.404 -0.0811  0.0469  0.1952
 2793DOPC   PO432772  26.064   7.842  11.218 -0.0711 -0.2825 -0.1341
 2793DOPC   GL132773  25.982   7.936  11.536 -0.0588 -0.3239 -0.1331
 2793DOPC   GL232774  26.060   8.116  11.763 -0.2570  0.3819  0.0433
 2793DOPC   C1A32775  25.599   7.983  11.802  0.0603  0.1272  0.0498
 2793DOPC   D2A32776  25.297   8.044  12.154 -0.2391 -0.0814 -0.2152
 2793DOPC   C3A32777  25.112   7.693  12.456  0.0740 -0.1200 -0.0398
 2793DOPC   C4A32778  24.788   7.449  12.713 -0.1895 -0.0041 -0.1520
 2793DOPC   C1B32779  25.867   8.303  12.150  0.1466 -0.0156 -0.2620
 2793DOPC   D2B32780  25.527   8.575  12.208 -0.0598  0.1332 -0.2871
 2793DOPC   C3B32781  25.505   8.914  12.528 -0.2842 -0.3286  0.1573
 2793DOPC   C4B32782  25.530   9.189  12.877 -0.0786 -0.2332 -0.1307
 2794POSM   NC332783  30.141   6.983  10.802 -0.0462 -0.0600  0.2479
 2794POSM   PO432784  30.291   6.650  10.960  0.1528 -0.1571  0.2381
 2794POSM   AM132785  30.313   6.563  11.268  0.0226  0.0791  0.2738
 2794POSM   AM232786  30.337   6.343  11.418  0.1490 -0.0180 -0.1790
 2794POSM   T1A32787  30.252   6.736  11.711  0.0531  0.0316  0.0338
 2794POSM   C2A32788  30.033   6.804  12.132  0.0236 -0.0123 -0.0476
 2794POSM   C3A32789  29.809   7.223  12.218 -0.0193  0.1569  0.0994
 2794POSM   C1B32790  30.510   6.246  11.721  0.0602  0.1222 -0.0053
 2794POSM   D2B32791  30.765   6.110  12.106 -0.1482 -0.2085 -0.0092
 2794POSM   C3B32792  31.070   6.187  12.413  0.1345  0.1933 -0.3721
 2794POSM   C4B32793  31.415   6.232  12.664 -0.1167 -0.1192 -0.0641
 2795DOPE   NH332794  25.949   5.343  11.473 -0.2875  0.1775  0.1974
 2795DOPE   PO432795  25.687   5.266  11.334 -0.2084 -0.0300  0.2702
 2795DOPE   GL132796  25.417   5.406  11.560 -0.1476 -0.2901 -0.0814
 2795DOPE   GL232797  25.179   5.287  11.636  0.0289  0.1766  0.1652
 2795DOPE   C1A32798  25.448   5.560  12.003  0.1665 -0.0185 -0.4738
 2795DOPE   D2A32799  25.444   5.547  12.462  0.3715 -0.0281  0.2544
 2795DOPE   C3A32800  25.055   5.488  12.708  0.1856  0.0974  0.2610
 2795DOPE   C4A32801  24.789   5.703  12.989 -0.1409  0.0459 -0.3227
 2795DOPE   C1B32802  25.132   5.114  12.066  0.3276 -0.2044  0.1591
 2795DOPE   D2B32803  25.135   5.044  12.546  0.0060 -0.1150 -0.0240
 2795DOPE   C3B32804  25.384   4.871  12.846 -0.2891  0.0203  0.0897
 2795DOPE   C4B32805  25.509   4.436  12.999  0.2799 -0.0714 -0.5362
 2796DOPE   NH332806   0.975   6.070  10.033  0.1156  0.2037  0.2426
 2796DOPE   PO432807   1.147   5.904  10.261  0.1876 -0.3022 -0.0596
 2796DOPE   GL132808   1.245   5.892  10.666  0.2453  0.2621 -0.2359
 2796DOPE   GL232809   1.037   6.085  10.805  0.0125 -0.0852  0.0873
 2796DOPE   C1A32810   1.633   6.127  10.895  0.0790  0.0409  0.4001
 2796DOPE   D2A32811   1.659   6.102  11.391 -0.5184 -0.1630  0.0969
 2796DOPE   C3A32812   1.334   5.885  11.644 -0.0613  0.0704  0.3385
 2796DOPE   C4A32813   1.264   5.497  11.840 -0.1231 -0.0501 -0.2584
 2796DOPE   C1B32814   1.197   6.222  11.241  0.1249  0.2997 -0.0651
 2796DOPE   D2B32815   1.312   6.431  11.643 -0.4367  0.2787 -0.1530
 2796DOPE   C3B32816   1.138   6.664  12.007  0.2745 -0.0148  0.0544
 2796DOPE   C4B32817   0.872   6.876  12.264 -0.1983 -0.1280  0.2386
 2797DOPS   CNO32818  31.102   0.140  10.461 -0.2810  0.0423 -0.1571
 2797DOPS   PO432819  31.017   0.350  10.747  0.0750  0.2876  0.2143
 2797DOPS   GL132820  31.069   0.456  11.070 -0.0759 -0.1246 -0.3270
 2797DOPS   GL232821  30.902   0.630  11.116  0.3227 -0.1111  0.1135
 2797DOPS   C1A32822  31.399   0.543  11.369 -0.1863 -0.0219 -0.0136
 2797DOPS   D2A32823  31.708   0.522  11.762  0.0690  0.3134 -0.0373
 2797DOPS   C3A32824  31.630   0.566  12.199 -0.0396 -0.1261  0.0845
 2797DOPS   C4A32825  31.398   0.581  12.645 -0.3046 -0.2089 -0.1318
 2797DOPS   C1B32826  30.801   0.619  11.554  0.0808 -0.0883  0.0232
 2797DOPS   D2B32827  30.665   0.516  12.029  0.0912  0.1286 -0.2445
 2797DOPS   C3B32828  30.505   0.808  12.284  0.0491  0.1037 -0.2901
 2797DOPS   C4B32829  30.082   0.715  12.500  0.0460  0.1007  0.0338
 2798DOPE   NH332830  29.915   1.003  11.414  0.2642 -0.0146  0.1809
 2798DOPE   PO432831  29.912   1.271  11.291  0.2501 -0.1803  0.0568
 2798DOPE   GL132832  29.920   1.457  11.607  0.1486  0.2575 -0.0461
 2798DOPE   GL232833  30.193   1.492  11.701 -0.1766 -0.0944  0.2551
 2798DOPE   C1A32834  29.960   1.190  12.017  0.0537  0.0049  0.0324
 2798DOPE   D2A32835  30.237   1.225  12.464  0.2443  0.0934 -0.2439
 2798DOPE   C3A32836  30.145   1.452  12.758  0.1327  0.0255  0.1665
 2798DOPE   C4A32837  29.988   1.546  13.204  0.0058  0.0163 -0.1008
 2798DOPE   C1B32838  30.440   1.501  12.093 -0.0041 -0.0331 -0.3069
 2798DOPE   D2B32839  30.636   1.506  12.546 -0.2185  0.0630  0.3527
 2798DOPE   C3B32840  30.608   1.073  12.736  0.1168  0.3514 -0.1100
 2798DOPE   C4B32841  30.917   0.749  12.638 -0.1707  0.0779  0.1634
 2799DOPE   NH332842  32.989   3.938  10.563  0.0267 -0.0920 -0.2896
 2799DOPE   PO432843  32.855   3.711  10.736  0.0994  0.3257  0.2330
 2799DOPE   GL132844  33.099   3.665  11.098  0.1603 -0.0923  0.5782
 2799DOPE   GL232845  33.266   3.413  11.065 -0.0763  0.1359 -0.1803
 2799DOPE   C1A32846  32.983   3.751  11.562 -0.1493  0.0980 -0.0372
 2799DOPE   D2A32847  33.171   3.560  11.914 -0.1299  0.1618  0.2702
 2799DOPE   C3A32848  33.057   3.820  12.262  0.2449  0.1853 -0.1198
 2799DOPE   C4A32849  33.029   3.792  12.725 -0.1440 -0.1857 -0.1050
 2799DOPE   C1B32850  33.307   3.289  11.497 -0.0952 -0.0127 -0.2832
 2799DOPE   D2B32851  33.320   3.014  11.847  0.0389  0.1803 -0.2803
 2799DOPE   C3B32852  33.513   2.983  12.268 -0.0158  0.3297  0.0077
 2799DOPE   C4B32853  33.370   2.968  12.692 -0.2011  0.1945 -0.1998
 2800POSM   NC332854  32.639  10.965  10.317 -0.2627 -0.0461  0.0701
 2800POSM   PO432855  32.743  11.341  10.380  0.0399  0.1396  0.3968
 2800POSM   AM132856  32.675  11.304  10.698  0.2360  0.0510  0.0389
 2800POSM   AM232857  32.804  11.214  10.995  0.1266 -0.0574  0.0681
 2800POSM   T1A32858  32.406  11.506  11.080 -0.3085  0.1786  0.1360
 2800POSM   C2A32859  32.311  11.639  11.541 -0.0369 -0.3627  0.1218
 2800POSM   C3A32860  32.045  11.969  11.769  0.1856 -0.2461  0.0100
 2800POSM   C1B32861  32.732  11.187  11.302 -0.2076 -0.0907  0.0340
 2800POSM   D2B32862  32.680  11.223  11.766 -0.2474  0.2690 -0.0001
 2800POSM   C3B32863  32.343  11.451  11.956  0.2376 -0.1072  0.0508
 2800POSM   C4B32864  32.405  11.847  12.269  0.2552 -0.2465 -0.1813
 2801DOPC   NC332865  33.894   7.780  10.474 -0.0602  0.0818  0.2508
 2801DOPC   PO432866  33.848   8.139  10.264 -0.0895  0.2125 -0.0992
 2801DOPC   GL132867  33.785   8.223  10.659  0.4664 -0.3729  0.0597
 2801DOPC   GL232868  33.546   8.170  10.770 -0.0994  0.0694  0.2008
 2801DOPC   C1A32869  33.900   7.975  11.018 -0.1067  0.5232  0.1083
 2801DOPC   D2A32870  33.588   7.751  11.339 -0.0946 -0.0637  0.1494
 2801DOPC   C3A32871  33.435   7.346  11.356 -0.4468  0.1073  0.1245
 2801DOPC   C4A32872  33.318   6.891  11.203 -0.1341 -0.0113 -0.3140
 2801DOPC   C1B32873  33.289   8.192  11.176  0.2256  0.1790 -0.0958
 2801DOPC   D2B32874  33.445   8.322  11.576  0.0821 -0.1376 -0.1726
 2801DOPC   C3B32875  33.428   8.163  12.009  0.1014 -0.2485  0.0438
 2801DOPC   C4B32876  33.423   8.235  12.462 -0.1513  0.2859 -0.1549
 2802DOPC   NC332877  27.697   3.955  11.455  0.2109 -0.0652  0.2294
 2802DOPC   PO432878  27.373   3.864  11.214 -0.2171  0.1006  0.2413
 2802DOPC   GL132879  27.350   3.710  11.668 -0.2224 -0.1783  0.1298
 2802DOPC   GL232880  27.222   4.035  11.703 -0.1665  0.3569  0.1322
 2802DOPC   C1A32881  27.612   3.423  11.921 -0.3704  0.1068  0.0411
 2802DOPC   D2A32882  27.575   3.042  12.179  0.1531  0.0365  0.1339
 2802DOPC   C3A32883  27.908   2.681  12.211 -0.0660 -0.0087 -0.1064
 2802DOPC   C4A32884  27.986   2.403  12.539 -0.0694  0.0000 -0.1206
 2802DOPC   C1B32885  27.569   3.956  12.031  0.1148  0.1197  0.2810
 2802DOPC   D2B32886  27.914   3.829  12.140 -0.2166 -0.1447 -0.1001
 2802DOPC   C3B32887  28.062   3.810  12.574  0.0302  0.0790  0.1733
 2802DOPC   C4B32888  28.140   3.532  12.923 -0.0852 -0.0092 -0.1762
 2803DOPE   NH332889  26.603   4.481  11.475  0.0755  0.0833  0.2328
 2803DOPE   PO432890  26.754   4.263  11.651 -0.2451  0.0214 -0.1276
 2803DOPE   GL132891  26.817   4.256  12.030  0.1819 -0.0863  0.1429
 2803DOPE   GL232892  26.829   4.480  12.246 -0.4146 -0.3625 -0.1880
 2803DOPE   C1A32893  27.149   4.065  12.248  0.2831  0.0880  0.0658
 2803DOPE   D2A32894  27.490   4.075  12.536 -0.2503  0.1352 -0.0424
 2803DOPE   C3A32895  27.746   4.477  12.653  0.3139  0.0450  0.2216
 2803DOPE   C4A32896  27.995   4.792  12.832 -0.2358 -0.0149 -0.1395
 2803DOPE   C1B32897  27.046   4.343  12.629 -0.2716  0.0550 -0.0078
 2803DOPE   D2B32898  27.159   4.499  13.021  0.0660  0.0288  0.0268
 2803DOPE   C3B32899  26.855   4.414  13.351 -0.1142  0.0822 -0.0003
 2803DOPE   C4B32900  26.728   4.688  13.698 -0.0287  0.3137 -0.0836
 2804DOPE   NH332901   0.256   5.522   9.581 -0.0353  0.1312 -0.2025
 2804DOPE   PO432902   0.212   5.703   9.843 -0.0983  0.1134 -0.0896
 2804DOPE   GL132903   0.350   5.716  10.225 -0.0014  0.1027 -0.1717
 2804DOPE   GL232904   0.643   5.660  10.226 -0.0509 -0.3292  0.1176
 2804DOPE   C1A32905   0.277   5.789  10.630  0.2315  0.0078 -0.2448
 2804DOPE   D2A32906   0.172   5.935  11.056  0.2904 -0.0304 -0.0769
 2804DOPE   C3A32907   0.379   5.753  11.436 -0.2646 -0.2681  0.2311
 2804DOPE   C4A32908   0.283   5.392  11.701  0.0400  0.0956  0.0454
 2804DOPE   C1B32909   0.740   5.653  10.684  0.0222 -0.1225  0.2926
 2804DOPE   D2B32910   0.778   5.649  11.107 -0.1047 -0.0911 -0.3543
 2804DOPE   C3B32911   0.860   5.912  11.518  0.1541 -0.1384 -0.0827
 2804DOPE   C4B32912   1.041   6.112  11.895 -0.1194 -0.0813 -0.0195
 2805POSM   NC332913  31.190   3.351  10.152  0.2247 -0.0511  0.0099
 2805POSM   PO432914  31.059   3.180  10.505  0.1781 -0.2431  0.0771
 2805POSM   AM132915  31.112   3.265  10.828  0.1453 -0.0458  0.2108
 2805POSM   AM232916  31.160   3.526  10.914  0.2114 -0.3841  0.1370
 2805POSM   T1A32917  30.797   3.323  11.210 -0.0867  0.1988 -0.2571
 2805POSM   C2A32918  30.709   3.649  11.552  0.3685  0.0910  0.0498
 2805POSM   C3A32919  30.284   3.798  11.709 -0.3279 -0.2559  0.1818
 2805POSM   C1B32920  31.343   3.485  11.175 -0.2144 -0.2465  0.2203
 2805POSM   D2B32921  31.710   3.508  11.482  0.0089 -0.0024 -0.0339
 2805POSM   C3B32922  31.616   3.419  11.900 -0.0914 -0.1231 -0.0902
 2805POSM   C4B32923  31.632   3.644  12.328 -0.0079  0.0274 -0.1197
 2806POSM   NC332924  33.865   7.034  10.347 -0.2197 -0.0013 -0.0342
 2806POSM   PO432925  33.685   7.379  10.433 -0.0749 -0.2657 -0.2233
 2806POSM   AM132926  33.868   7.326  10.735  0.0525 -0.0461 -0.3581
 2806POSM   AM232927  33.757   7.246  11.020 -0.0888  0.1462  0.0159
 2806POSM   T1A32928  34.228   7.509  11.035  0.2284 -0.2818 -0.2609
 2806POSM   C2A32929  34.058   7.731  11.432  0.0517 -0.0569 -0.2103
 2806POSM   C3A32930  33.772   7.446  11.683 -0.0563 -0.1976  0.1208
 2806POSM   C1B32931  33.975   7.132  11.282  0.3693  0.1661 -0.0356
 2806POSM   D2B32932  34.220   7.185  11.667  0.3419  0.0742 -0.1235
 2806POSM   C3B32933  34.130   7.146  12.119 -0.2602  0.0323  0.0751
 2806POSM   C4B32934  34.223   7.010  12.489 -0.0272 -0.0423  0.0509
 2807POSM   NC332935  26.310  12.814  10.414 -0.0476  0.1154 -0.0983
 2807POSM   PO432936  26.334  13.033  10.125  0.0456  0.1965 -0.2645
 2807POSM   AM132937  26.330  13.245  10.375  0.0085  0.2564 -0.3700
 2807POSM   AM232938  26.251  13.237  10.651 -0.3347 -0.0437 -0.0703
 2807POSM   T1A32939  26.199  13.702  10.556  0.1094  0.1251  0.0738
 2807POSM   C2A32940  26.377  14.091  10.559  0.0329 -0.2442 -0.0467
 2807POSM   C3A32941  26.528  14.378  10.921  0.0929  0.0338 -0.1505
 2807POSM   C1B32942  26.028  13.306  10.901  0.2135  0.1735 -0.1402
 2807POSM   D2B32943  25.724  13.269  11.283  0.1491  0.0296  0.0203
 2807POSM   C3B32944  25.860  13.588  11.594  0.0007  0.0634  0.0833
 2807POSM   C4B32945  25.650  13.938  11.827  0.1033  0.0815  0.2059
 2808POSM   NC332946   3.289   2.799   9.927 -0.0287 -0.0211  0.1021
 2808POSM   PO432947   2.964   2.842  10.107 -0.1764 -0.2296 -0.5165
 2808POSM   AM132948   3.022   2.930  10.413  0.0145  0.1908  0.2171
 2808POSM   AM232949   2.912   3.141  10.570 -0.1052  0.1350  0.2981
 2808POSM   T1A32950   3.183   2.785  10.830  0.0795  0.0784 -0.0871
 2808POSM   C2A32951   3.444   2.912  11.156  0.1729  0.0521 -0.0251
 2808POSM   C3A32952   3.712   3.160  11.501 -0.1796 -0.0922  0.0779
 2808POSM   C1B32953   3.039   3.292  10.826  0.3094 -0.1549 -0.2194
 2808POSM   D2B32954   2.967   3.618  11.113 -0.1797 -0.1666 -0.1003
 2808POSM   C3B32955   2.715   3.535  11.556 -0.0027  0.1070  0.3319
 2808POSM   C4B32956   2.815   3.458  12.054 -0.4562 -0.1368 -0.5987
 2809DOPC   NC332957  26.702   5.840  11.309  0.2006 -0.2712 -0.1651
 2809DOPC   PO432958  26.508   6.155  11.514  0.1860 -0.0587  0.2240
 2809DOPC   GL132959  26.438   6.511  11.707  0.0218  0.2055  0.2467
 2809DOPC   GL232960  26.235   6.713  11.868 -0.1422 -0.1200  0.1906
 2809DOPC   C1A32961  26.789   6.736  11.925  0.0657 -0.0676  0.0148
 2809DOPC   D2A32962  26.971   6.929  12.247  0.1143  0.0213  0.0500
 2809DOPC   C3A32963  26.758   7.315  12.132 -0.3906 -0.0071 -0.0042
 2809DOPC   C4A32964  26.474   7.521  12.413  0.0439 -0.1822  0.1374
 2809DOPC   C1B32965  26.042   6.802  12.283  0.1929  0.2323  0.2135
 2809DOPC   D2B32966  26.037   6.957  12.716 -0.1872  0.0722 -0.2285
 2809DOPC   C3B32967  26.356   6.773  12.948 -0.0710 -0.1361  0.0779
 2809DOPC   C4B32968  26.640   6.685  13.353  0.0592 -0.1196  0.0494
 2810DOPC   NC332969  31.261   4.299  10.508  0.4260 -0.0428  0.5310
 2810DOPC   PO432970  30.851   4.253  10.420  0.0044 -0.0310  0.3083
 2810DOPC   GL132971  30.722   4.303  10.791 -0.2387 -0.5236 -0.3378
 2810DOPC   GL232972  31.005   4.277  10.922 -0.0559  0.1331 -0.0401
 2810DOPC   C1A32973  30.502   4.503  11.114  0.0422  0.3996  0.2771
 2810DOPC   D2A32974  30.307   4.765  11.462 -0.1654 -0.2573  0.0380
 2810DOPC   C3A32975  30.542   4.714  11.893 -0.1428 -0.1643 -0.1358
 2810DOPC   C4A32976  30.721   4.768  12.325 -0.1650  0.1846  0.1211
 2810DOPC   C1B32977  31.080   3.927  11.262 -0.1382 -0.0461 -0.1191
 2810DOPC   D2B32978  31.232   3.725  11.640 -0.0073  0.3505 -0.2824
 2810DOPC   C3B32979  31.044   3.775  12.084  0.0840 -0.1911 -0.1265
 2810DOPC   C4B32980  30.931   3.610  12.453 -0.1244 -0.1786 -0.1493
 2811DOPE   NH332981  29.260   5.983  11.224 -0.0735 -0.0148 -0.0684
 2811DOPE   PO432982  29.347   5.821  11.498 -0.1695  0.0792  0.1318
 2811DOPE   GL132983  29.259   5.974  11.901 -0.3267  0.1000 -0.0335
 2811DOPE   GL232984  29.239   5.882  12.212 -0.3328 -0.0277 -0.0869
 2811DOPE   C1A32985  29.280   6.373  12.140  0.2751 -0.1079  0.0855
 2811DOPE   D2A32986  29.539   6.765  12.290 -0.0433 -0.4216 -0.0842
 2811DOPE   C3A32987  29.814   6.955  12.673  0.0224 -0.0219 -0.0622
 2811DOPE   C4A32988  30.008   6.881  13.092 -0.2965  0.2185 -0.0161
 2811DOPE   C1B32989  29.321   6.056  12.605  0.1078  0.4067 -0.1072
 2811DOPE   D2B32990  29.247   6.261  13.033 -0.0935  0.2798  0.1213
 2811DOPE   C3B32991  29.368   6.193  13.420  0.0849  0.0704 -0.1639
 2811DOPE   C4B32992  29.644   6.082  13.747 -0.3068 -0.0546 -0.0056
 2812DOPC   NC332993  30.974   5.410  10.795  0.1236 -0.2413  0.1454
 2812DOPC   PO432994  30.674   5.532  11.018  0.1991 -0.0654  0.2562
 2812DOPC   GL132995  30.940   5.455  11.298 -0.0558  0.0645  0.3653
 2812DOPC   GL232996  31.267   5.291  11.244  0.2260 -0.3138 -0.3623
 2812DOPC   C1A32997  31.142   5.502  11.710 -0.0128  0.1124  0.0398
 2812DOPC   D2A32998  31.133   5.698  12.108  0.3492  0.2435 -0.1494
 2812DOPC   C3A32999  31.404   5.477  12.412  0.1604 -0.0134 -0.0331
 2812DOPC   C4A33000  31.509   5.035  12.536 -0.0152  0.0209  0.0136
 2812DOPC   C1B33001  31.669   5.258  11.501  0.0512 -0.0986  0.2406
 2812DOPC   D2B33002  32.055   5.447  11.706 -0.0000 -0.1325  0.3133
 2812DOPC   C3B33003  32.073   5.194  12.152  0.3917  0.3246  0.0528
 2812DOPC   C4B33004  32.366   4.811  12.162  0.2533  0.2284  0.0668
 2813DOPC   NC333005  34.194   9.444  10.913  0.0294  0.0003  0.2670
 2813DOPC   PO433006  34.438   9.355  10.615  0.0816  0.0520 -0.1543
 2813DOPC   GL133007  34.344   9.009  10.842  0.2177 -0.1841  0.0249
 2813DOPC   GL233008  34.313   8.769  10.735  0.1050 -0.1023  0.1263
 2813DOPC   C1A33009  34.477   8.947  11.252  0.0169  0.2548 -0.1574
 2813DOPC   D2A33010  34.696   9.195  11.576  0.3380 -0.2150  0.0345
 2813DOPC   C3A33011  34.462   9.403  11.870 -0.1112 -0.1055  0.2224
 2813DOPC   C4A33012  34.368   9.743  12.223 -0.0235  0.0936 -0.2385
 2813DOPC   C1B33013  33.968   8.562  10.861  0.1771 -0.0327  0.1233
 2813DOPC   D2B33014  33.721   8.512  11.143 -0.1038 -0.2427  0.1290
 2813DOPC   C3B33015  33.929   8.207  11.451 -0.1596 -0.0203 -0.4653
 2813DOPC   C4B33016  33.853   7.967  11.801  0.0234  0.2551  0.2153
 2814DOPS   CNO33017  30.085  12.247  10.276  0.2562  0.1042  0.0818
 2814DOPS   PO433018  30.146  11.919  10.119 -0.3770  0.2034 -0.0184
 2814DOPS   GL133019  30.082  11.840  10.568  0.1796 -0.1097  0.2220
 2814DOPS   GL233020  29.905  12.047  10.681  0.0133 -0.1480  0.0706
 2814DOPS   C1A33021  30.251  11.624  10.960 -0.0344  0.3625  0.0199
 2814DOPS   D2A33022  30.314  11.143  11.154 -0.0794 -0.3997 -0.1180
 2814DOPS   C3A33023  30.482  11.286  11.529 -0.1140 -0.2103  0.2424
 2814DOPS   C4A33024  30.776  11.269  11.902 -0.2366 -0.0634 -0.0596
 2814DOPS   C1B33025  29.750  12.049  11.136 -0.1247 -0.0654 -0.0378
 2814DOPS   D2B33026  29.814  12.024  11.540 -0.2445 -0.1616 -0.0371
 2814DOPS   C3B33027  29.615  12.261  11.886  0.0270 -0.1268 -0.0972
 2814DOPS   C4B33028  29.732  12.378  12.312  0.1397 -0.0492  0.0552
 2815POSM   NC333029   1.027   7.462   9.879  0.1003 -0.1638  0.0387
 2815POSM   PO433030   1.206   7.765  10.019  0.0965 -0.0749 -0.2898
 2815POSM   AM133031   1.244   7.660  10.318  0.0582 -0.2612 -0.1012
 2815POSM   AM233032   1.271   7.828  10.544  0.0327  0.2670 -0.1270
 2815POSM   T1A33033   1.388   7.302  10.621 -0.2148  0.0387 -0.2560
 2815POSM   C2A33034   1.509   6.997  10.965 -0.1059 -0.2018  0.2229
 2815POSM   C3A33035   1.232   6.795  11.357 -0.0135 -0.1908  0.1278
 2815POSM   C1B33036   1.119   7.905  10.814  0.2273 -0.1342 -0.1065
 2815POSM   D2B33037   1.174   8.021  11.295  0.3158 -0.2269 -0.0672
 2815POSM   C3B33038   1.262   7.574  11.546  0.1315  0.2357 -0.0277
 2815POSM   C4B33039   1.215   7.675  11.982  0.0301  0.1927 -0.4661
 2816DOPS   CNO33040  30.728   7.729  10.865  0.1128 -0.1603 -0.1431
 2816DOPS   PO433041  30.500   7.444  10.938  0.1023 -0.1741 -0.0630
 2816DOPS   GL133042  30.570   7.387  11.281 -0.1800  0.1596 -0.1274
 2816DOPS   GL233043  30.845   7.431  11.285 -0.2029  0.2695 -0.0314
 2816DOPS   C1A33044  30.534   7.274  11.736  0.1519  0.2443  0.4662
 2816DOPS   D2A33045  30.356   7.213  12.161  0.2058 -0.2147 -0.0387
 2816DOPS   C3A33046  30.364   6.866  12.470 -0.1176 -0.0270 -0.4137
 2816DOPS   C4A33047  30.055   6.587  12.646  0.0842 -0.1654  0.0256
 2816DOPS   C1B33048  30.684   7.719  11.634 -0.0665  0.0534 -0.0236
 2816DOPS   D2B33049  30.524   7.718  12.087 -0.0866  0.1628 -0.2630
 2816DOPS   C3B33050  30.692   7.495  12.499  0.3678  0.0558 -0.0785
 2816DOPS   C4B33051  30.962   7.721  12.831 -0.0052  0.1261 -0.3318
 2817POSM   NC333052  26.952   7.758  10.761 -0.1137 -0.3205  0.0152
 2817POSM   PO433053  26.936   7.624  11.140  0.0759  0.2091 -0.1865
 2817POSM   AM133054  27.030   7.702  11.416  0.1699  0.0976 -0.2681
 2817POSM   AM233055  26.939   7.681  11.689 -0.0100  0.0682 -0.0892
 2817POSM   T1A33056  27.405   7.974  11.596  0.0145  0.0331 -0.0286
 2817POSM   C2A33057  27.577   7.897  12.072 -0.1548  0.2074 -0.3267
 2817POSM   C3A33058  27.799   7.680  12.426 -0.1153 -0.0234 -0.1238
 2817POSM   C1B33059  27.149   7.649  11.937 -0.1932 -0.2032 -0.1371
 2817POSM   D2B33060  27.222   7.779  12.378 -0.2194  0.1621  0.0429
 2817POSM   C3B33061  27.001   7.530  12.663  0.0885  0.2343  0.1501
 2817POSM   C4B33062  27.092   7.467  13.133  0.0410 -0.0574  0.2361
 2818DOPC   NC333063  25.943   9.991  10.211 -0.1099  0.3205  0.0902
 2818DOPC   PO433064  26.071   9.959  10.609  0.2434 -0.2491  0.0637
 2818DOPC   GL133065  26.184   9.752  10.829  0.4560 -0.1347 -0.0391
 2818DOPC   GL233066  26.423   9.641  10.760  0.0694 -0.1850  0.1087
 2818DOPC   C1A33067  26.219   9.598  11.290 -0.1816 -0.2108  0.3513
 2818DOPC   D2A33068  26.106   9.540  11.751  0.1568 -0.1173 -0.3123
 2818DOPC   C3A33069  26.122   9.685  12.198 -0.2065  0.1203  0.0678
 2818DOPC   C4A33070  26.307  10.041  12.391  0.1341 -0.3246  0.1256
 2818DOPC   C1B33071  26.762   9.647  11.059  0.0746 -0.2516 -0.0452
 2818DOPC   D2B33072  27.084   9.504  11.394 -0.0002 -0.1976 -0.0069
 2818DOPC   C3B33073  27.104   9.331  11.830  0.1046 -0.2443  0.1262
 2818DOPC   C4B33074  27.197   9.509  12.229 -0.0179  0.1128 -0.1303
 2819DOPC   NC333075  32.509   3.238  10.787 -0.1518  0.2993 -0.2509
 2819DOPC   PO433076  32.363   3.569  10.638  0.1466  0.0033 -0.1004
 2819DOPC   GL133077  32.294   3.778  11.011 -0.1581 -0.1746 -0.0235
 2819DOPC   GL233078  32.563   3.641  11.131 -0.2350  0.3357  0.3349
 2819DOPC   C1A33079  32.070   3.862  11.438 -0.0658  0.1764 -0.0559
 2819DOPC   D2A33080  31.904   3.880  11.857 -0.3493  0.0318 -0.0156
 2819DOPC   C3A33081  32.157   3.734  12.227 -0.0642 -0.2093 -0.1937
 2819DOPC   C4A33082  32.229   3.702  12.699 -0.0333 -0.1471  0.1844
 2819DOPC   C1B33083  32.515   3.600  11.550  0.1150  0.1694 -0.1253
 2819DOPC   D2B33084  32.668   3.703  12.000  0.2681  0.1696 -0.1332
 2819DOPC   C3B33085  32.660   3.547  12.412  0.2888 -0.1992 -0.0843
 2819DOPC   C4B33086  32.681   3.428  12.827  0.4966  0.1754 -0.1649
 2820DOPC   NC333087  27.032   0.581  11.716 -0.2616 -0.3295  0.1752
 2820DOPC   PO433088  26.974   0.943  11.602  0.0640 -0.3001 -0.0175
 2820DOPC   GL133089  26.854   1.021  11.976 -0.2275 -0.1702  0.2705
 2820DOPC   GL233090  26.680   0.753  12.004  0.0975 -0.2997 -0.0264
 2820DOPC   C1A33091  26.467   1.161  12.169 -0.0509  0.1216  0.1087
 2820DOPC   D2A33092  26.189   1.507  12.293  0.1440  0.4306 -0.1518
 2820DOPC   C3A33093  26.229   1.492  12.767 -0.0794  0.1085  0.0502
 2820DOPC   C4A33094  26.158   1.682  13.189  0.3052 -0.0536 -0.3264
 2820DOPC   C1B33095  26.559   0.704  12.419  0.0441  0.2185 -0.0247
 2820DOPC   D2B33096  26.534   0.664  12.939  0.1829  0.0966  0.0615
 2820DOPC   C3B33097  26.682   0.978  13.282  0.0338 -0.1920 -0.0099
 2820DOPC   C4B33098  26.922   0.932  13.645 -0.1598 -0.0120  0.1773
 2821POSM   NC333099  33.036   9.650   9.790  0.0918 -0.1089  0.0441
 2821POSM   PO433100  33.004   9.668  10.180  0.0494  0.0688 -0.2235
 2821POSM   AM133101  33.151   9.733  10.487 -0.2987 -0.0593 -0.1514
 2821POSM   AM233102  33.141   9.804  10.744  0.1788  0.0517 -0.2037
 2821POSM   T1A33103  33.531   9.602  10.751  0.2488  0.4720  0.2372
 2821POSM   C2A33104  33.754   9.455  11.087  0.0014 -0.0228  0.0815
 2821POSM   C3A33105  33.658   9.253  11.474 -0.0319 -0.1618  0.3354
 2821POSM   C1B33106  32.999   9.541  10.922  0.1643  0.0684 -0.3748
 2821POSM   D2B33107  32.947   9.206  11.263 -0.0282  0.1237  0.0022
 2821POSM   C3B33108  33.014   9.167  11.747 -0.3691  0.0423  0.0867
 2821POSM   C4B33109  33.016   9.302  12.177  0.0583 -0.0680  0.4878
 2822POSM   NC333110  23.809   4.308  10.496  0.1540  0.3658  0.0100
 2822POSM   PO433111  23.733   4.420  10.840 -0.0675 -0.1598 -0.2367
 2822POSM   AM133112  23.504   4.388  11.071 -0.2236  0.1204 -0.1922
 2822POSM   AM233113  23.211   4.397  11.087  0.2878  0.0535  0.2120
 2822POSM   T1A33114  23.483   4.503  11.569 -0.1295 -0.0591 -0.1751
 2822POSM   C2A33115  23.351   4.667  11.939 -0.0981 -0.2895 -0.0148
 2822POSM   C3A33116  23.053   4.991  12.072  0.0189  0.2727  0.2918
 2822POSM   C1B33117  23.046   4.377  11.439 -0.1186  0.0172  0.2830
 2822POSM   D2B33118  22.903   4.450  11.889  0.0508  0.1349  0.1430
 2822POSM   C3B33119  23.269   4.141  12.006 -0.1375 -0.0185 -0.0412
 2822POSM   C4B33120  23.424   3.973  12.401 -0.2115 -0.2162  0.0806
 2823DOPE   NH333121  27.861   7.272  11.431 -0.1786 -0.3035 -0.2213
 2823DOPE   PO433122  27.944   7.494  11.657 -0.1147  0.0892 -0.1124
 2823DOPE   GL133123  27.835   7.425  12.056  0.3519 -0.0935  0.0092
 2823DOPE   GL233124  27.605   7.346  11.980 -0.1200 -0.2666 -0.0969
 2823DOPE   C1A33125  28.238   7.438  12.293 -0.1949 -0.1903  0.1373
 2823DOPE   D2A33126  28.657   7.582  12.467 -0.2403  0.0598 -0.0425
 2823DOPE   C3A33127  28.739   7.766  12.863 -0.2623  0.2053 -0.2340
 2823DOPE   C4A33128  28.591   7.788  13.289  0.1724  0.1931  0.0591
 2823DOPE   C1B33129  27.311   7.268  12.324 -0.0266  0.0462 -0.0247
 2823DOPE   D2B33130  27.330   7.189  12.772 -0.2750 -0.1918  0.3493
 2823DOPE   C3B33131  27.529   7.125  13.181 -0.1602 -0.1026 -0.3265
 2823DOPE   C4B33132  27.418   7.133  13.627 -0.0301 -0.1372 -0.1020
 2824DOPS   CNO33133   1.621   4.697  10.227  0.0176 -0.2503  0.1387
 2824DOPS   PO433134   1.688   4.378  10.408 -0.4188 -0.0644  0.5649
 2824DOPS   GL133135   1.529   4.318  10.869 -0.1604  0.2625  0.4487
 2824DOPS   GL233136   1.681   4.134  10.968 -0.1629 -0.4688  0.0189
 2824DOPS   C1A33137   1.471   4.633  11.172 -0.1663 -0.0720 -0.0158
 2824DOPS   D2A33138   1.151   4.642  11.490  0.0360 -0.2267 -0.0711
 2824DOPS   C3A33139   1.228   4.510  11.917  0.1575 -0.0656 -0.0607
 2824DOPS   C4A33140   1.078   4.477  12.302  0.0084  0.2445 -0.0866
 2824DOPS   C1B33141   1.934   3.910  11.239  0.4509  0.0584  0.2689
 2824DOPS   D2B33142   2.265   3.614  11.327  0.0951  0.3357  0.0954
 2824DOPS   C3B33143   2.566   3.306  11.140  0.0083  0.1431  0.0398
 2824DOPS   C4B33144   2.967   3.039  11.307  0.2929 -0.1711  0.2601
 2825DOPE   NH333145  33.439  11.669  10.491 -0.4273 -0.0617 -0.3277
 2825DOPE   PO433146  33.261  11.792  10.730  0.0136 -0.0677 -0.0426
 2825DOPE   GL133147  33.381  11.713  11.159  0.0920  0.0184  0.1310
 2825DOPE   GL233148  33.116  11.717  11.198 -0.2045  0.0463 -0.1237
 2825DOPE   C1A33149  33.603  11.818  11.547  0.1220  0.1043 -0.1491
 2825DOPE   D2A33150  33.634  11.934  11.991  0.2104 -0.0624 -0.0828
 2825DOPE   C3A33151  33.474  12.347  12.177 -0.0031 -0.0734 -0.1166
 2825DOPE   C4A33152  33.030  12.568  12.117  0.2627 -0.1589  0.0103
 2825DOPE   C1B33153  33.250  11.316  11.358  0.1141 -0.1957  0.2274
 2825DOPE   D2B33154  33.146  11.134  11.701  0.0597 -0.1811  0.1275
 2825DOPE   C3B33155  33.285  11.222  12.128  0.2947 -0.0297  0.0558
 2825DOPE   C4B33156  33.095  11.276  12.571 -0.1039  0.0351 -0.0261
 2826DOPC   NC333157  24.338   7.643  10.465  0.4925 -0.1351 -0.1960
 2826DOPC   PO433158  24.601   7.628  10.769  0.2264  0.0155  0.0151
 2826DOPC   GL133159  24.252   7.733  10.930 -0.3999  0.0085  0.0041
 2826DOPC   GL233160  24.138   7.576  11.047  0.1545  0.2574  0.0004
 2826DOPC   C1A33161  24.130   8.119  11.180  0.3168 -0.3982 -0.1493
 2826DOPC   D2A33162  24.244   8.575  11.135  0.0884 -0.3076  0.0391
 2826DOPC   C3A33163  24.592   8.835  11.411  0.2840  0.0034  0.1773
 2826DOPC   C4A33164  25.012   8.825  11.551 -0.1684 -0.1703 -0.1202
 2826DOPC   C1B33165  23.742   7.655  11.197 -0.3000 -0.2897  0.3089
 2826DOPC   D2B33166  23.589   7.831  11.565 -0.0354  0.0094  0.3587
 2826DOPC   C3B33167  23.546   8.268  11.675  0.2452 -0.1945  0.0455
 2826DOPC   C4B33168  23.351   8.520  11.970  0.1479 -0.1617  0.3963
 2827DOPC   NC333169  28.191   4.878  11.378  0.0354  0.1502  0.1308
 2827DOPC   PO433170  27.971   4.528  11.348 -0.3306 -0.0593  0.1838
 2827DOPC   GL133171  27.827   4.631  11.752 -0.2591 -0.2484  0.0827
 2827DOPC   GL233172  28.043   4.450  11.931  0.0800 -0.0701 -0.0976
 2827DOPC   C1A33173  27.532   4.424  12.044  0.1030 -0.1122 -0.0851
 2827DOPC   D2A33174  27.341   4.630  12.429  0.1560  0.0686  0.0686
 2827DOPC   C3A33175  27.406   4.889  12.731 -0.1017 -0.2175 -0.1281
 2827DOPC   C4A33176  27.378   5.144  13.153 -0.1638 -0.1362 -0.0968
 2827DOPC   C1B33177  28.025   4.249  12.321 -0.1470 -0.2151 -0.1011
 2827DOPC   D2B33178  28.158   4.244  12.781  0.0832  0.1738  0.1926
 2827DOPC   C3B33179  27.822   4.054  13.030 -0.1983 -0.0629  0.3051
 2827DOPC   C4B33180  27.443   3.792  13.097  0.0260 -0.0224 -0.0473
 2828POSM   NC333181  34.566   7.190   9.751 -0.0873  0.1749  0.0518
 2828POSM   PO433182  34.440   6.966  10.045 -0.1299  0.0816  0.0850
 2828POSM   AM133183  34.534   7.022  10.378 -0.0003 -0.3544  0.1180
 2828POSM   AM233184  34.647   7.219  10.527 -0.2355 -0.0764 -0.1911
 2828POSM   T1A33185  34.625   6.778  10.753 -0.0965  0.0681  0.1430
 2828POSM   C2A33186  34.733   7.010  11.091  0.1042 -0.2611 -0.4216
 2828POSM   C3A33187  34.812   7.070  11.574 -0.0421 -0.0355 -0.1064
 2828POSM   C1B33188  34.771   7.415  10.770  0.1760 -0.0426 -0.0564
 2828POSM   D2B33189  34.837   7.537  11.150  0.0012 -0.1948 -0.1177
 2828POSM   C3B33190  34.500   7.506  11.477  0.0121 -0.0187 -0.1452
 2828POSM   C4B33191  34.272   7.686  11.865 -0.0657  0.2490 -0.1056
 2829POSM   NC333192  25.235  11.102  10.793 -0.0781  0.2177  0.0231
 2829POSM   PO433193  24.961  10.914  10.604 -0.0029 -0.0689  0.1926
 2829POSM   AM133194  24.830  10.874  10.881 -0.0597  0.0419 -0.4002
 2829POSM   AM233195  24.627  11.031  11.004 -0.1411 -0.1534  0.2253
 2829POSM   T1A33196  24.833  10.534  11.295  0.3005  0.0781  0.1887
 2829POSM   C2A33197  24.733  10.126  11.541  0.1599 -0.1393 -0.0503
 2829POSM   C3A33198  24.732   9.743  11.716 -0.3009 -0.1125 -0.0387
 2829POSM   C1B33199  24.548  11.021  11.338 -0.3558 -0.0755  0.2785
 2829POSM   D2B33200  24.612  11.226  11.736 -0.0245  0.0420  0.1183
 2829POSM   C3B33201  24.273  11.434  11.905  0.0253  0.0672  0.0462
 2829POSM   C4B33202  23.830  11.476  12.085  0.0814 -0.0377  0.1132
 2830DOPS   CNO33203  31.484   3.838  10.085  0.4206  0.1094  0.2341
 2830DOPS   PO433204  31.613   3.975  10.432  0.1175 -0.1335 -0.0346
 2830DOPS   GL133205  31.778   3.827  10.690 -0.2568 -0.1440  0.1151
 2830DOPS   GL233206  31.909   4.002  10.975 -0.5119  0.3501  0.1165
 2830DOPS   C1A33207  31.795   3.527  10.977 -0.1651  0.1082  0.1212
 2830DOPS   D2A33208  32.163   3.280  11.163 -0.0139  0.0137 -0.0159
 2830DOPS   C3A33209  32.114   3.215  11.649 -0.1321  0.1772 -0.0995
 2830DOPS   C4A33210  32.367   3.311  12.013 -0.0932 -0.0955  0.0411
 2830DOPS   C1B33211  31.547   4.003  11.306  0.0202  0.0202 -0.3230
 2830DOPS   D2B33212  31.351   4.169  11.742 -0.0352 -0.1521  0.0003
 2830DOPS   C3B33213  31.518   4.072  12.156 -0.0480  0.0421  0.2129
 2830DOPS   C4B33214  31.355   4.002  12.583  0.0471  0.0028 -0.0222
 2831POSM   NC333215  25.428   1.521  11.201  0.0216  0.0291  0.0975
 2831POSM   PO433216  25.446   1.842  11.409  0.0015 -0.1807 -0.1756
 2831POSM   AM133217  25.425   1.846  11.700 -0.2140 -0.0731 -0.1188
 2831POSM   AM233218  25.248   1.713  11.852  0.0808 -0.0518  0.0183
 2831POSM   T1A33219  25.458   2.104  12.156 -0.1310 -0.1572  0.0836
 2831POSM   C2A33220  25.363   2.106  12.529 -0.1001 -0.0329  0.0560
 2831POSM   C3A33221  25.364   1.949  13.011  0.1071  0.1418 -0.3490
 2831POSM   C1B33222  25.241   1.691  12.184 -0.0415  0.2071 -0.4617
 2831POSM   D2B33223  25.322   1.522  12.620 -0.0879 -0.0287  0.1245
 2831POSM   C3B33224  24.916   1.616  12.868  0.0230  0.0049  0.1362
 2831POSM   C4B33225  24.469   1.611  13.105  0.1086 -0.2029  0.1169
 2832DOPE   NH333226  31.295   6.545  10.713 -0.0359  0.0349  0.1659
 2832DOPE   PO433227  31.110   6.727  10.856  0.0652 -0.1003 -0.2324
 2832DOPE   GL133228  31.155   6.812  11.293  0.0856  0.1577  0.2567
 2832DOPE   GL233229  31.221   6.582  11.479 -0.0936 -0.1636 -0.4121
 2832DOPE   C1A33230  31.054   7.063  11.702 -0.1447  0.0262 -0.0806
 2832DOPE   D2A33231  30.838   7.082  12.158 -0.3334 -0.1542 -0.2011
 2832DOPE   C3A33232  31.214   7.117  12.468  0.0903  0.2025  0.3622
 2832DOPE   C4A33233  31.364   7.499  12.723 -0.0901 -0.2315  0.0470
 2832DOPE   C1B33234  31.157   6.494  11.983 -0.1358  0.0087 -0.1944
 2832DOPE   D2B33235  31.369   6.683  12.276  0.0074  0.0586 -0.0397
 2832DOPE   C3B33236  31.742   6.942  12.294  0.4793 -0.0504  0.1457
 2832DOPE   C4B33237  32.054   6.912  12.681 -0.0185  0.0528  0.1191
 2833DOPE   NH333238  27.844   2.064  11.320  0.3438  0.2567  0.3102
 2833DOPE   PO433239  27.586   2.117  11.546 -0.1197 -0.1847  0.0208
 2833DOPE   GL133240  27.672   2.290  11.902 -0.0628 -0.1937 -0.0805
 2833DOPE   GL233241  27.449   2.563  11.943  0.1035 -0.1187 -0.0795
 2833DOPE   C1A33242  27.647   2.070  12.326 -0.1245  0.2550 -0.0768
 2833DOPE   D2A33243  27.624   2.071  12.792  0.0763  0.1358 -0.1265
 2833DOPE   C3A33244  27.713   1.848  13.219 -0.2293  0.1627  0.0501
 2833DOPE   C4A33245  27.514   1.496  13.463 -0.2346 -0.0198 -0.2857
 2833DOPE   C1B33246  27.471   2.559  12.436 -0.0336 -0.0852 -0.0216
 2833DOPE   D2B33247  27.167   2.513  12.723  0.0435 -0.2582 -0.3866
 2833DOPE   C3B33248  27.238   2.268  13.108 -0.1680  0.1734 -0.0509
 2833DOPE   C4B33249  27.117   1.839  13.385 -0.1697 -0.4150  0.0163
 2834DOPE   NH333250  27.675   1.538  11.561 -0.2224 -0.1815 -0.1493
 2834DOPE   PO433251  27.868   1.523  11.323  0.4057 -0.2562 -0.2536
 2834DOPE   GL133252  28.210   1.613  11.640 -0.0420 -0.0125  0.1825
 2834DOPE   GL233253  28.074   1.824  11.730  0.0093 -0.0009  0.1309
 2834DOPE   C1A33254  28.285   1.533  12.150 -0.4048 -0.0666  0.0743
 2834DOPE   D2A33255  28.434   1.534  12.608  0.1907  0.2068  0.0803
 2834DOPE   C3A33256  28.843   1.359  12.626 -0.0071  0.0627 -0.0343
 2834DOPE   C4A33257  29.271   1.465  12.531  0.2651 -0.2397  0.2622
 2834DOPE   C1B33258  28.185   2.032  12.138 -0.0084 -0.4027 -0.2033
 2834DOPE   D2B33259  28.427   2.056  12.525 -0.0545 -0.0653 -0.3677
 2834DOPE   C3B33260  28.368   2.198  12.998 -0.0410 -0.0313 -0.2094
 2834DOPE   C4B33261  28.208   2.023  13.362  0.1098 -0.0596  0.0156
 2835DOPS   CNO33262  28.497   2.324  11.260 -0.1016 -0.1693 -0.1097
 2835DOPS   PO433263  28.325   1.965  11.294 -0.1619 -0.0897  0.0549
 2835DOPS   GL133264  28.677   1.800  11.529  0.2037 -0.2499 -0.2760
 2835DOPS   GL233265  28.886   1.938  11.432 -0.0825 -0.2616 -0.1408
 2835DOPS   C1A33266  28.711   2.077  11.910 -0.0081  0.1562  0.0496
 2835DOPS   D2A33267  28.857   2.258  12.262 -0.0132 -0.0839  0.1791
 2835DOPS   C3A33268  28.505   2.519  12.368  0.2109 -0.0598 -0.2596
 2835DOPS   C4A33269  28.304   2.938  12.444 -0.2832  0.0945  0.1407
 2835DOPS   C1B33270  28.992   2.354  11.618 -0.0019  0.1508  0.1356
 2835DOPS   D2B33271  29.173   2.544  12.037  0.2906 -0.1648  0.3892
 2835DOPS   C3B33272  29.305   2.591  12.511 -0.0716 -0.2343  0.2026
 2835DOPS   C4B33273  29.179   2.562  12.996  0.0564  0.5759 -0.0103
 2836POSM   NC333274  33.547   3.262  10.138  0.1750  0.2662 -0.0823
 2836POSM   PO433275  33.840   3.054  10.306  0.0095 -0.3708 -0.1930
 2836POSM   AM133276  33.902   3.187  10.632  0.1500 -0.0199 -0.1010
 2836POSM   AM233277  33.766   3.296  10.852  0.2224 -0.0331  0.1825
 2836POSM   T1A33278  34.141   2.969  11.013 -0.1541 -0.1897  0.0721
 2836POSM   C2A33279  34.438   3.085  11.312 -0.0477 -0.0751  0.0322
 2836POSM   C3A33280  34.492   3.486  11.554 -0.0918 -0.3404 -0.1476
 2836POSM   C1B33281  33.741   3.244  11.136 -0.1620 -0.0307  0.0735
 2836POSM   D2B33282  34.020   3.062  11.534  0.0469 -0.3228  0.1702
 2836POSM   C3B33283  34.194   3.338  11.931  0.0257 -0.4033 -0.2156
 2836POSM   C4B33284  34.274   3.821  12.009 -0.0834  0.1219  0.2022
 2837POSM   NC333285   2.031   7.327  10.061  0.1096 -0.0623 -0.1866
 2837POSM   PO433286   2.229   7.696  10.132  0.0970  0.0542 -0.0212
 2837POSM   AM133287   2.186   7.537  10.402  0.1741  0.2040  0.0617
 2837POSM   AM233288   2.166   7.458  10.662  0.1044  0.0431  0.1502
 2837POSM   T1A33289   1.943   7.082  10.491 -0.1823  0.2313  0.0041
 2837POSM   C2A33290   1.589   6.768  10.515 -0.1208  0.0030  0.0852
 2837POSM   C3A33291   1.350   6.570  10.867 -0.0543  0.1402  0.0778
 2837POSM   C1B33292   2.129   7.320  10.959 -0.0593 -0.2241  0.4609
 2837POSM   D2B33293   2.091   7.068  11.298 -0.0076  0.0325  0.2912
 2837POSM   C3B33294   2.133   7.235  11.712 -0.0948 -0.1837 -0.3248
 2837POSM   C4B33295   2.409   7.507  11.929  0.1495 -0.1705 -0.0028
 2838DOPE   NH333296   0.198   4.653  10.506  0.1304  0.2199  0.1382
 2838DOPE   PO433297   0.182   4.283  10.506  0.0766  0.2282 -0.0460
 2838DOPE   GL133298  -0.022   4.312  10.814  0.1005  0.0459  0.4051
 2838DOPE   GL233299  -0.177   4.549  10.858  0.0062  0.1572  0.2971
 2838DOPE   C1A33300   0.079   4.282  11.261  0.0842 -0.2945  0.1836
 2838DOPE   D2A33301   0.226   4.539  11.593  0.0345 -0.0833 -0.2739
 2838DOPE   C3A33302   0.262   4.467  12.057  0.0617 -0.1036  0.1483
 2838DOPE   C4A33303   0.392   4.355  12.498 -0.1186 -0.3640  0.1042
 2838DOPE   C1B33304   0.004   4.806  11.223  0.1132 -0.1145 -0.0575
 2838DOPE   D2B33305   0.003   5.017  11.610  0.1608  0.1809 -0.1266
 2838DOPE   C3B33306   0.086   4.972  12.093 -0.1463 -0.2770  0.0863
 2838DOPE   C4B33307  -0.074   5.234  12.443  0.1504  0.0737  0.1925
 2839DOPS   CNO33308  25.729  12.180  10.227  0.0911 -0.1440  0.0639
 2839DOPS   PO433309  25.961  12.466  10.301 -0.0908  0.4043  0.0809
 2839DOPS   GL133310  26.082  12.591  10.723 -0.3708 -0.1967  0.2219
 2839DOPS   GL233311  26.193  12.411  10.877 -0.1226 -0.0991  0.2812
 2839DOPS   C1A33312  26.459  12.792  10.942 -0.1453 -0.0475  0.1442
 2839DOPS   D2A33313  26.480  13.186  11.215 -0.2370  0.2132  0.2659
 2839DOPS   C3A33314  26.265  13.268  11.597 -0.0836 -0.2329 -0.0297
 2839DOPS   C4A33315  26.254  13.525  11.974 -0.2119 -0.2243 -0.0994
 2839DOPS   C1B33316  26.324  12.491  11.348 -0.1265  0.0266 -0.0651
 2839DOPS   D2B33317  26.553  12.658  11.705  0.2309  0.0180  0.5290
 2839DOPS   C3B33318  26.342  12.916  12.000  0.0574 -0.2521 -0.2574
 2839DOPS   C4B33319  26.420  13.170  12.430 -0.2759 -0.2258  0.2069
 2840DOPE   NH333320  31.950   4.940  10.456  0.0379  0.3861 -0.0807
 2840DOPE   PO433321  32.236   5.073  10.365 -0.0014 -0.1346 -0.1917
 2840DOPE   GL133322  32.354   5.049  10.703 -0.1713 -0.1611  0.0710
 2840DOPE   GL233323  32.429   5.307  10.775 -0.0370  0.1762  0.0002
 2840DOPE   C1A33324  32.020   5.077  11.053 -0.0243  0.2322  0.3231
 2840DOPE   D2A33325  32.097   5.009  11.507 -0.2367  0.4337 -0.0357
 2840DOPE   C3A33326  31.818   4.820  11.823 -0.3571  0.0082  0.1751
 2840DOPE   C4A33327  31.528   4.573  12.104 -0.0351 -0.2493  0.0114
 2840DOPE   C1B33328  32.438   5.246  11.240 -0.1523 -0.3261  0.1319
 2840DOPE   D2B33329  32.530   5.092  11.696 -0.0710  0.0823 -0.0649
 2840DOPE   C3B33330  32.752   5.185  12.123 -0.1871  0.4527  0.2506
 2840DOPE   C4B33331  32.835   5.442  12.541  0.1489 -0.1459  0.0560
 2841POSM   NC333332  24.540   3.513  11.507  0.0180  0.0504  0.0681
 2841POSM   PO433333  24.667   3.673  11.183  0.3174 -0.2005 -0.0071
 2841POSM   AM133334  24.776   3.885  11.385 -0.1786  0.1490  0.1157
 2841POSM   AM233335  24.725   4.135  11.425 -0.2217  0.0600 -0.2504
 2841POSM   T1A33336  24.802   3.844  11.869 -0.0615 -0.2724  0.0424
 2841POSM   C2A33337  24.889   3.807  12.297  0.1336  0.1835  0.2526
 2841POSM   C3A33338  24.797   3.897  12.740  0.2263  0.3099  0.1822
 2841POSM   C1B33339  24.609   4.256  11.735  0.0624  0.2067 -0.3117
 2841POSM   D2B33340  24.335   4.087  12.045 -0.1585 -0.0501  0.3876
 2841POSM   C3B33341  24.164   4.293  12.449 -0.0025 -0.0742  0.0312
 2841POSM   C4B33342  24.343   4.233  12.903 -0.1602 -0.0733  0.1806
 2842POSM   NC333343  27.344  11.753  10.737  0.0765  0.2165  0.2748
 2842POSM   PO433344  27.680  11.859  10.542 -0.0442 -0.0021  0.0303
 2842POSM   AM133345  27.857  11.998  10.754  0.2129 -0.2222 -0.3221
 2842POSM   AM233346  28.146  12.027  10.824 -0.0402  0.0426 -0.0437
 2842POSM   T1A33347  27.731  12.406  11.077  0.1064 -0.2406 -0.2053
 2842POSM   C2A33348  27.577  12.587  11.465  0.3249 -0.1463  0.1889
 2842POSM   C3A33349  27.740  12.740  11.868  0.0098 -0.0409 -0.0365
 2842POSM   C1B33350  28.135  12.097  11.154  0.1460 -0.1791 -0.2571
 2842POSM   D2B33351  28.110  12.124  11.625 -0.1356 -0.0667 -0.1649
 2842POSM   C3B33352  27.971  11.918  12.061  0.1588 -0.1455  0.2090
 2842POSM   C4B33353  27.901  11.536  12.335 -0.2978 -0.1554 -0.2875
 2843DOPC   NC333354  29.786  11.529  10.385  0.4934 -0.0282  0.3558
 2843DOPC   PO433355  29.490  11.761  10.468 -0.0371 -0.0952  0.0664
 2843DOPC   GL133356  29.592  11.726  10.827 -0.2263  0.0914 -0.1915
 2843DOPC   GL233357  29.823  11.504  10.868  0.2651  0.1414  0.0843
 2843DOPC   C1A33358  29.424  11.648  11.264  0.0347  0.0898  0.0082
 2843DOPC   D2A33359  29.503  11.581  11.689  0.0924  0.1662  0.4025
 2843DOPC   C3A33360  29.645  11.837  11.985  0.0326 -0.4130 -0.0616
 2843DOPC   C4A33361  29.575  11.956  12.464 -0.3769  0.0507  0.0324
 2843DOPC   C1B33362  29.915  11.581  11.341  0.0835 -0.0145  0.3229
 2843DOPC   D2B33363  30.097  11.605  11.801 -0.0839 -0.3285 -0.0818
 2843DOPC   C3B33364  30.103  12.040  11.933 -0.1990  0.2680 -0.2478
 2843DOPC   C4B33365  30.196  12.484  12.179  0.1041  0.2312 -0.2241
 2844POSM   NC333366  21.697   7.755  10.217 -0.0644 -0.1894  0.3882
 2844POSM   PO433367  22.082   7.765  10.109 -0.1247  0.1987 -0.1072
 2844POSM   AM133368  22.105   8.007  10.343 -0.2112 -0.2632 -0.0519
 2844POSM   AM233369  22.097   7.952  10.613  0.1609 -0.4694 -0.2429
 2844POSM   T1A33370  21.997   8.483  10.555 -0.0575 -0.4243  0.0954
 2844POSM   C2A33371  22.176   8.852  10.682  0.0893  0.0465 -0.0305
 2844POSM   C3A33372  22.407   9.124  10.983  0.1868  0.0760 -0.0392
 2844POSM   C1B33373  22.265   7.931  10.915 -0.2871  0.0661 -0.1061
 2844POSM   D2B33374  22.512   7.904  11.302  0.1146  0.0308  0.1552
 2844POSM   C3B33375  22.785   8.238  11.395  0.1402  0.2695  0.0439
 2844POSM   C4B33376  22.838   8.460  11.812 -0.0168  0.0946  0.0904
 2845DOPE   NH333377  29.567   2.945  11.018 -0.0288 -0.1070  0.2741
 2845DOPE   PO433378  29.486   2.617  11.123  0.2651 -0.0167 -0.0912
 2845DOPE   GL133379  29.605   2.643  11.552 -0.2431  0.2109  0.2722
 2845DOPE   GL233380  29.803   2.872  11.475 -0.2321 -0.2566 -0.2750
 2845DOPE   C1A33381  29.707   2.772  11.987 -0.0034  0.0634 -0.2823
 2845DOPE   D2A33382  30.018   2.709  12.363 -0.0033 -0.0407 -0.0428
 2845DOPE   C3A33383  30.451   2.883  12.283 -0.2389 -0.1865  0.2832
 2845DOPE   C4A33384  30.729   3.170  12.475 -0.2800  0.1759 -0.0153
 2845DOPE   C1B33385  30.128   2.907  11.811 -0.0376  0.0722  0.0030
 2845DOPE   D2B33386  30.530   2.693  11.824  0.1405 -0.1087  0.4983
 2845DOPE   C3B33387  30.874   2.879  11.973  0.0636  0.4795 -0.1455
 2845DOPE   C4B33388  30.993   2.734  12.416  0.0869 -0.1670  0.2597
 2846DOPS   CNO33389  27.153   5.739  11.601 -0.1163  0.1894  0.0406
 2846DOPS   PO433390  27.029   6.098  11.548  0.0720  0.1683 -0.0635
 2846DOPS   GL133391  26.791   6.274  11.865  0.2220  0.1186  0.0188
 2846DOPS   GL233392  26.528   6.188  11.989 -0.0658  0.0560 -0.0890
 2846DOPS   C1A33393  27.004   6.445  12.261  0.0789 -0.1732 -0.0610
 2846DOPS   D2A33394  26.893   6.589  12.713  0.2045  0.1793 -0.0140
 2846DOPS   C3A33395  26.657   6.322  12.943 -0.4705  0.3927 -0.2146
 2846DOPS   C4A33396  26.664   5.862  13.004  0.3862  0.1891 -0.0691
 2846DOPS   C1B33397  26.484   6.554  12.252  0.1159  0.0903 -0.1734
 2846DOPS   D2B33398  26.529   6.941  12.473  0.1040 -0.2111  0.0986
 2846DOPS   C3B33399  26.763   7.160  12.854 -0.0313 -0.0177 -0.1793
 2846DOPS   C4B33400  26.981   6.981  13.280  0.1105 -0.2463 -0.1767
 2847DOPC   NC333401  27.156   8.398  11.417  0.0766 -0.0682  0.1724
 2847DOPC   PO433402  26.853   8.165  11.293 -0.0373 -0.2795 -0.4025
 2847DOPC   GL133403  26.902   8.142  11.705  0.0795  0.0408 -0.1839
 2847DOPC   GL233404  26.591   8.146  11.792  0.2099  0.0943 -0.0120
 2847DOPC   C1A33405  27.250   8.276  12.031  0.0398  0.0854 -0.2350
 2847DOPC   D2A33406  27.421   8.250  12.501 -0.2135  0.0557  0.0285
 2847DOPC   C3A33407  27.817   8.187  12.700  0.1147  0.2353 -0.0554
 2847DOPC   C4A33408  28.137   8.283  13.043  0.2930 -0.2883 -0.0637
 2847DOPC   C1B33409  26.782   8.044  12.197 -0.1152  0.0116 -0.2430
 2847DOPC   D2B33410  26.888   8.158  12.636  0.0378  0.0593 -0.1892
 2847DOPC   C3B33411  27.185   7.942  12.876 -0.4758  0.0108 -0.3437
 2847DOPC   C4B33412  27.202   7.995  13.339  0.0547  0.1427 -0.0215
 2848DOPC   NC333413  31.852   6.333  10.849 -0.0476  0.4858 -0.0991
 2848DOPC   PO433414  31.877   6.055  10.672  0.2772  0.1929  0.1115
 2848DOPC   GL133415  32.184   5.985  11.022  0.3807 -0.4025  0.3967
 2848DOPC   GL233416  32.340   5.717  10.981  0.0228  0.0336  0.1595
 2848DOPC   C1A33417  32.320   5.896  11.404 -0.1795 -0.2683 -0.0423
 2848DOPC   D2A33418  32.534   5.576  11.700  0.3531  0.1537 -0.0681
 2848DOPC   C3A33419  32.613   5.750  12.142  0.2183  0.0525 -0.1963
 2848DOPC   C4A33420  32.413   5.902  12.508 -0.0321 -0.1470 -0.0905
 2848DOPC   C1B33421  31.947   5.579  11.214 -0.1804  0.1027  0.1697
 2848DOPC   D2B33422  31.534   5.690  11.445  0.0763 -0.4344 -0.1341
 2848DOPC   C3B33423  31.626   5.624  11.910 -0.1138 -0.1382  0.0637
 2848DOPC   C4B33424  31.981   5.682  12.177  0.0353 -0.0459  0.3084
 2849DOPC   NC333425  24.616   4.719  11.014 -0.1176  0.1439  0.1069
 2849DOPC   PO433426  24.340   4.503  11.158 -0.0902 -0.0793 -0.2366
 2849DOPC   GL133427  24.364   4.645  11.565  0.0178  0.0471  0.0866
 2849DOPC   GL233428  24.102   4.623  11.625  0.1747  0.3703 -0.2205
 2849DOPC   C1A33429  24.484   4.673  11.997  0.4353  0.0657  0.0276
 2849DOPC   D2A33430  24.744   4.840  12.264  0.0364 -0.0065  0.1169
 2849DOPC   C3A33431  24.705   5.221  12.540 -0.4579  0.2962  0.2952
 2849DOPC   C4A33432  24.550   5.297  12.969  0.0326  0.2594 -0.3840
 2849DOPC   C1B33433  23.806   4.914  11.898  0.1472 -0.0721  0.0278
 2849DOPC   D2B33434  23.717   5.058  12.335 -0.1865  0.3190  0.2114
 2849DOPC   C3B33435  24.071   5.220  12.667  0.2439  0.1897 -0.4970
 2849DOPC   C4B33436  24.098   5.071  13.150 -0.1243 -0.1180  0.0299
 2850DOPS   CNO33437  30.749   9.567  10.451  0.1824 -0.1513  0.1094
 2850DOPS   PO433438  30.543   9.453  10.734  0.3063  0.0028 -0.0063
 2850DOPS   GL133439  30.380   9.606  11.058 -0.1189 -0.0341 -0.0371
 2850DOPS   GL233440  30.675   9.578  11.226  0.0379 -0.1996  0.1393
 2850DOPS   C1A33441  30.254   9.411  11.464  0.0087  0.3311 -0.1243
 2850DOPS   D2A33442  30.252   9.437  11.890  0.1115 -0.1362 -0.0273
 2850DOPS   C3A33443  30.613   9.281  12.093 -0.4938 -0.2360 -0.1294
 2850DOPS   C4A33444  30.973   9.056  12.236 -0.1905  0.0630  0.4141
 2850DOPS   C1B33445  30.688   9.729  11.670  0.0278 -0.0542 -0.0816
 2850DOPS   D2B33446  30.734   9.808  12.118  0.0154  0.0442 -0.1551
 2850DOPS   C3B33447  31.076   9.663  12.459 -0.1782  0.2177  0.0745
 2850DOPS   C4B33448  31.109   9.233  12.675 -0.0365 -0.1154 -0.2326
 2851POSM   NC333449  26.486   2.021  11.610  0.1088 -0.1121  0.3946
 2851POSM   PO433450  26.189   2.263  11.486 -0.1704  0.2452 -0.1687
 2851POSM   AM133451  26.171   2.284  11.812  0.0518  0.5526 -0.1456
 2851POSM   AM233452  26.347   2.420  11.994  0.4533 -0.0102 -0.0105
 2851POSM   T1A33453  25.962   2.220  12.305 -0.0230  0.2588  0.0608
 2851POSM   C2A33454  25.929   2.338  12.716 -0.1821 -0.0960 -0.2823
 2851POSM   C3A33455  26.233   2.410  13.031 -0.2030  0.0817  0.0694
 2851POSM   C1B33456  26.392   2.521  12.313  0.3797  0.2397  0.2201
 2851POSM   D2B33457  26.275   2.779  12.658 -0.0355  0.1640 -0.1240
 2851POSM   C3B33458  25.921   2.798  12.974  0.0100 -0.1268 -0.0729
 2851POSM   C4B33459  25.613   2.682  13.271  0.2644 -0.4562  0.1187
 2852POSM   NC333460  30.042  10.023  10.429 -0.0763  0.1037 -0.0547
 2852POSM   PO433461  29.996   9.975  10.852 -0.0068 -0.0465  0.0494
 2852POSM   AM133462  30.142  10.099  11.128 -0.0501  0.5660 -0.1831
 2852POSM   AM233463  30.300   9.983  11.288  0.2043  0.3968  0.1052
 2852POSM   T1A33464  30.267  10.424  11.516  0.2894 -0.0255  0.2085
 2852POSM   C2A33465  30.320  10.879  11.714  0.2070  0.0904  0.0318
 2852POSM   C3A33466  30.177  11.192  11.994 -0.2359 -0.0343  0.0167
 2852POSM   C1B33467  30.179   9.885  11.558 -0.0456  0.1931  0.2862
 2852POSM   D2B33468  30.274   9.915  11.976  0.0240  0.1502 -0.1999
 2852POSM   C3B33469  30.307   9.918  12.416  0.0569  0.1582  0.2627
 2852POSM   C4B33470  30.604   9.642  12.623 -0.3599 -0.0213  0.0140
 2853DOPE   NH333471  25.037   7.425  10.721 -0.1487 -0.0036 -0.0967
 2853DOPE   PO433472  25.035   7.146  10.838 -0.2466 -0.0094  0.3488
 2853DOPE   GL133473  24.922   7.321  11.246  0.1581  0.2070  0.0949
 2853DOPE   GL233474  24.881   7.627  11.181 -0.2154 -0.0608  0.1262
 2853DOPE   C1A33475  24.655   7.333  11.621 -0.3416  0.2012 -0.0958
 2853DOPE   D2A33476  24.430   7.635  11.841 -0.1606 -0.1133  0.2185
 2853DOPE   C3A33477  24.069   7.455  12.050  0.2691  0.0280 -0.0080
 2853DOPE   C4A33478  23.599   7.483  12.025 -0.0380 -0.5126  0.0620
 2853DOPE   C1B33479  24.482   7.752  11.381  0.1114 -0.0010  0.1389
 2853DOPE   D2B33480  24.059   7.685  11.580  0.0428  0.2181  0.1334
 2853DOPE   C3B33481  23.960   7.929  11.967  0.2583 -0.0044 -0.0809
 2853DOPE   C4B33482  23.822   8.326  12.122  0.0009  0.2552  0.3710
 2854DOPC   NC333483  32.513   2.396  10.876  0.0810 -0.1907 -0.1035
 2854DOPC   PO433484  32.301   2.426  10.558  0.1605  0.1004 -0.1450
 2854DOPC   GL133485  32.259   2.756  10.929  0.1991 -0.1114 -0.1480
 2854DOPC   GL233486  32.034   2.822  10.999  0.2937 -0.1648  0.0641
 2854DOPC   C1A33487  32.484   2.885  11.322 -0.1376  0.0227  0.1134
 2854DOPC   D2A33488  32.585   2.777  11.746 -0.2624 -0.2363 -0.2446
 2854DOPC   C3A33489  32.469   2.850  12.229  0.0883 -0.2347  0.0244
 2854DOPC   C4A33490  32.324   3.184  12.558  0.0481  0.2492  0.2715
 2854DOPC   C1B33491  31.748   3.015  11.258  0.1687  0.1256  0.2233
 2854DOPC   D2B33492  31.677   2.941  11.687 -0.0775 -0.0656 -0.0996
 2854DOPC   C3B33493  31.434   2.955  12.070  0.4321 -0.0540 -0.1679
 2854DOPC   C4B33494  31.334   3.187  12.502 -0.1683 -0.1137 -0.1179
 2855POSM   NC333495  33.295   2.823   9.937  0.0411  0.0600 -0.0081
 2855POSM   PO433496  33.534   2.684  10.239  0.2310 -0.1627 -0.0923
 2855POSM   AM133497  33.694   2.613  10.527 -0.0604  0.0188 -0.0234
 2855POSM   AM233498  33.712   2.740  10.819  0.0769 -0.2117 -0.1332
 2855POSM   T1A33499  34.116   2.477  10.821 -0.0545 -0.2074 -0.0961
 2855POSM   C2A33500  34.225   2.541  11.265  0.1896  0.1438  0.1789
 2855POSM   C3A33501  34.076   2.481  11.734  0.1669  0.0295  0.1859
 2855POSM   C1B33502  33.686   2.424  11.011  0.1415  0.1243 -0.3686
 2855POSM   D2B33503  33.861   2.206  11.342  0.0985 -0.0861 -0.2173
 2855POSM   C3B33504  33.631   2.168  11.698 -0.2008 -0.0357 -0.0591
 2855POSM   C4B33505  33.331   1.828  11.791  0.0191  0.4399  0.3257
 2856POSM   NC333506  28.215   7.929  10.938 -0.1455  0.1395  0.1442
 2856POSM   PO433507  28.300   7.995  11.327 -0.0139  0.0074  0.0760
 2856POSM   AM133508  28.128   7.895  11.598  0.0676  0.2636  0.0597
 2856POSM   AM233509  27.874   8.030  11.694  0.2428 -0.2106 -0.0099
 2856POSM   T1A33510  28.130   7.913  12.113 -0.1289  0.1408 -0.1277
 2856POSM   C2A33511  28.251   7.891  12.583 -0.1423 -0.0492 -0.2772
 2856POSM   C3A33512  28.137   7.778  13.020  0.0855  0.0852 -0.2379
 2856POSM   C1B33513  27.838   8.290  11.938 -0.0570  0.1281  0.1705
 2856POSM   D2B33514  27.596   8.643  12.146 -0.1389 -0.1773  0.2114
 2856POSM   C3B33515  27.916   8.954  12.316  0.3053 -0.3546 -0.1491
 2856POSM   C4B33516  28.181   9.255  12.495  0.0706  0.0016  0.3175
 2857DOPC   NC333517  29.269  20.571  14.635  0.2377  0.2364 -0.0376
 2857DOPC   PO433518  29.216  20.246  14.865  0.0626  0.3240  0.1010
 2857DOPC   GL133519  29.288  19.928  14.585 -0.1919 -0.0575  0.3382
 2857DOPC   GL233520  29.056  19.996  14.404 -0.3767  0.0055  0.3086
 2857DOPC   C1A33521  29.490  20.186  14.197  0.0669 -0.0649  0.0688
 2857DOPC   D2A33522  29.661  20.312  13.792 -0.1429 -0.1935 -0.0683
 2857DOPC   C3A33523  29.751  20.150  13.339  0.0001  0.0001  0.1139
 2857DOPC   C4A33524  30.020  19.932  13.062  0.0398 -0.4367 -0.2649
 2857DOPC   C1B33525  28.991  20.343  14.099 -0.5105 -0.1607  0.1959
 2857DOPC   D2B33526  29.193  20.501  13.737 -0.1039 -0.2560 -0.0344
 2857DOPC   C3B33527  29.454  20.533  13.324  0.2065 -0.2546  0.1558
 2857DOPC   C4B33528  29.497  20.400  12.846 -0.0631 -0.0097  0.0951
 2858DOPC   NC333529  33.163  14.000  14.188  0.0425 -0.2263 -0.0464
 2858DOPC   PO433530  32.931  13.822  14.441  0.3323 -0.0566 -0.4652
 2858DOPC   GL133531  32.782  13.705  14.096 -0.1112 -0.1858 -0.2003
 2858DOPC   GL233532  32.522  13.739  14.010 -0.1639 -0.0039 -0.0503
 2858DOPC   C1A33533  33.048  13.688  13.666 -0.2396  0.0155 -0.0930
 2858DOPC   D2A33534  33.096  13.342  13.350  0.0395 -0.0281 -0.1748
 2858DOPC   C3A33535  33.511  13.339  13.028  0.0935 -0.2247 -0.1020
 2858DOPC   C4A33536  33.490  13.152  12.567 -0.0643  0.2530  0.0339
 2858DOPC   C1B33537  32.358  14.067  13.701  0.1310 -0.1901 -0.0347
 2858DOPC   D2B33538  32.257  14.393  13.470 -0.1977  0.1581 -0.1206
 2858DOPC   C3B33539  32.440  14.394  13.059 -0.0737 -0.2577 -0.1000
 2858DOPC   C4B33540  32.352  14.070  12.717 -0.2778 -0.2259 -0.2407
 2859DOPE   NH333541  32.685  22.081  14.932  0.2608 -0.2823  0.0817
 2859DOPE   PO433542  32.673  21.998  14.593  0.2535  0.1788 -0.2852
 2859DOPE   GL133543  32.706  22.052  14.119 -0.0907 -0.0579 -0.0161
 2859DOPE   GL233544  32.864  22.271  14.091  0.0224 -0.3087 -0.0349
 2859DOPE   C1A33545  33.025  21.847  13.870 -0.2774  0.2114 -0.1564
 2859DOPE   D2A33546  33.357  21.549  13.714 -0.1012 -0.1081  0.0629
 2859DOPE   C3A33547  33.306  21.420  13.281 -0.0004 -0.4646  0.1883
 2859DOPE   C4A33548  33.523  21.105  13.005  0.1403 -0.0858  0.0193
 2859DOPE   C1B33549  32.652  22.206  13.659 -0.0411 -0.1465  0.3560
 2859DOPE   D2B33550  32.207  22.037  13.598  0.0981  0.1706 -0.2321
 2859DOPE   C3B33551  31.928  22.209  13.217 -0.2062  0.1692 -0.0768
 2859DOPE   C4B33552  31.736  21.887  12.932  0.0890 -0.0929  0.2089
 2860DOPE   NH333553  27.989  17.843  14.174 -0.0409 -0.1215 -0.3231
 2860DOPE   PO433554  27.855  18.026  13.936  0.2810 -0.2040 -0.0257
 2860DOPE   GL133555  27.969  18.342  13.738  0.1921 -0.0185  0.0853
 2860DOPE   GL233556  27.710  18.457  13.603  0.0976  0.1786  0.3070
 2860DOPE   C1A33557  28.053  18.403  13.314 -0.0963 -0.0035  0.1182
 2860DOPE   D2A33558  28.246  18.481  12.885 -0.0070 -0.2627  0.0364
 2860DOPE   C3A33559  28.594  18.166  12.782 -0.3587 -0.2195  0.1367
 2860DOPE   C4A33560  28.638  17.782  12.867 -0.0747 -0.1710  0.2196
 2860DOPE   C1B33561  27.345  18.652  13.310 -0.1474  0.1356  0.0329
 2860DOPE   D2B33562  27.378  18.887  12.885  0.1822 -0.1622  0.1533
 2860DOPE   C3B33563  27.057  19.106  12.620  0.2056  0.1587  0.3414
 2860DOPE   C4B33564  26.864  19.393  12.392 -0.2519 -0.3877 -0.0683
 2861DOPC   NC333565   0.473  23.270  14.378 -0.2480 -0.0150 -0.2127
 2861DOPC   PO433566   0.147  23.237  14.557  0.1726  0.1744  0.0723
 2861DOPC   GL133567   0.131  23.345  14.121 -0.2494  0.0068  0.0056
 2861DOPC   GL233568   0.048  23.578  14.163  0.2736 -0.2779 -0.0334
 2861DOPC   C1A33569   0.172  23.189  13.715 -0.1084 -0.0721 -0.0618
 2861DOPC   D2A33570   0.271  23.295  13.307 -0.0950  0.2071  0.0762
 2861DOPC   C3A33571  -0.222  23.286  13.120 -0.3857 -0.3324  0.0233
 2861DOPC   C4A33572  -0.643  23.131  12.971 -0.3802 -0.0958 -0.2078
 2861DOPC   C1B33573   0.027  23.689  13.704 -0.1825  0.0535  0.2059
 2861DOPC   D2B33574   0.296  23.837  13.313  0.2482  0.0096  0.0366
 2861DOPC   C3B33575   0.077  23.684  12.896 -0.1848  0.0890  0.0196
 2861DOPC   C4B33576  -0.341  23.776  12.686 -0.0905  0.1490  0.1178
 2862DOPC   NC333577  34.400  23.688  14.595 -0.2769 -0.3581  0.0734
 2862DOPC   PO433578  34.401  23.302  14.640 -0.0027  0.1368 -0.2155
 2862DOPC   GL133579  34.216  23.418  14.263  0.0444 -0.0011  0.2133
 2862DOPC   GL233580  33.996  23.566  14.268  0.1894  0.0889  0.3915
 2862DOPC   C1A33581  34.082  23.194  13.853 -0.0238 -0.2065  0.1227
 2862DOPC   D2A33582  33.742  23.164  13.529 -0.1622  0.1810  0.2642
 2862DOPC   C3A33583  33.606  23.040  13.078 -0.3286 -0.0535 -0.1582
 2862DOPC   C4A33584  33.626  23.295  12.724 -0.0034 -0.3444  0.0252
 2862DOPC   C1B33585  33.753  23.953  14.192  0.3382 -0.1496 -0.0766
 2862DOPC   D2B33586  33.685  24.161  13.784 -0.2223  0.1156 -0.0997
 2862DOPC   C3B33587  33.520  24.213  13.340 -0.0666 -0.0303 -0.0209
 2862DOPC   C4B33588  33.668  24.245  12.871 -0.1151  0.1221  0.0911
 2863POSM   NC333589  30.192  14.134  14.275 -0.2666 -0.1600  0.1011
 2863POSM   PO433590  30.329  14.543  14.256  0.1331  0.0064  0.3172
 2863POSM   AM133591  30.143  14.429  13.974  0.2694 -0.0193 -0.1737
 2863POSM   AM233592  29.955  14.552  13.840 -0.1723 -0.1861  0.1743
 2863POSM   T1A33593  30.366  14.529  13.521  0.1664  0.0965 -0.1491
 2863POSM   C2A33594  30.228  14.500  13.080 -0.2277 -0.3415 -0.0998
 2863POSM   C3A33595  30.019  14.435  12.641  0.2733  0.2118 -0.0772
 2863POSM   C1B33596  29.894  14.395  13.545 -0.1704  0.2692 -0.0417
 2863POSM   D2B33597  29.824  14.266  13.069  0.0785 -0.0360  0.0216
 2863POSM   C3B33598  29.506  14.300  12.718 -0.2221  0.0564 -0.1640
 2863POSM   C4B33599  29.597  14.245  12.270 -0.0177  0.1214 -0.0142
 2864DOPS   CNO33600  32.811  21.492  14.621  0.0870  0.0593  0.1360
 2864DOPS   PO433601  32.540  21.252  14.767 -0.2603  0.1878  0.1480
 2864DOPS   GL133602  32.561  21.195  14.338 -0.4349 -0.5656  0.1929
 2864DOPS   GL233603  32.557  20.910  14.317  0.0012  0.2969 -0.0119
 2864DOPS   C1A33604  32.443  21.239  13.904 -0.0924  0.1619 -0.2601
 2864DOPS   D2A33605  32.640  20.939  13.561  0.1549  0.2430  0.1052
 2864DOPS   C3A33606  32.677  20.905  13.128 -0.0346  0.0678 -0.0428
 2864DOPS   C4A33607  32.556  21.114  12.755  0.0296  0.2360  0.1829
 2864DOPS   C1B33608  32.892  20.799  14.041  0.1168 -0.1153 -0.1551
 2864DOPS   D2B33609  33.157  20.629  13.750  0.2694  0.1214  0.0529
 2864DOPS   C3B33610  32.842  20.496  13.408  0.2442 -0.2012 -0.1660
 2864DOPS   C4B33611  32.689  20.396  12.936  0.2905  0.1094 -0.0048
 2865DOPC   NC333612  30.635  14.857  14.698 -0.1255 -0.0854  0.0325
 2865DOPC   PO433613  30.516  15.003  14.359 -0.2100  0.0986  0.2155
 2865DOPC   GL133614  30.773  15.198  13.972 -0.0657 -0.0074  0.1689
 2865DOPC   GL233615  30.550  15.343  13.889 -0.0757 -0.1905  0.0200
 2865DOPC   C1A33616  30.800  15.063  13.529  0.0146 -0.0879 -0.1126
 2865DOPC   D2A33617  30.540  14.947  13.144 -0.0079 -0.0410  0.1359
 2865DOPC   C3A33618  30.191  15.131  12.962  0.1451 -0.0737 -0.0471
 2865DOPC   C4A33619  30.107  14.950  12.536 -0.1559  0.0776  0.1016
 2865DOPC   C1B33620  30.286  15.080  13.545  0.0948 -0.0617 -0.1002
 2865DOPC   D2B33621  29.954  14.838  13.323  0.1151  0.4424  0.1457
 2865DOPC   C3B33622  29.710  14.742  12.944 -0.1450  0.1891 -0.5286
 2865DOPC   C4B33623  29.680  14.723  12.465 -0.1105 -0.1330 -0.0541
 2866DOPE   NH333624  27.402  15.586  13.925 -0.2290 -0.4206  0.0241
 2866DOPE   PO433625  27.274  15.573  13.633 -0.2254 -0.0350 -0.0552
 2866DOPE   GL133626  27.304  15.813  13.298 -0.0952 -0.1839 -0.1037
 2866DOPE   GL233627  27.431  15.979  13.269 -0.3105  0.2923 -0.0357
 2866DOPE   C1A33628  27.081  16.044  12.933  0.0797  0.2955 -0.0423
 2866DOPE   D2A33629  26.931  16.442  12.793  0.0623  0.1126  0.1822
 2866DOPE   C3A33630  26.940  16.501  12.371  0.0510 -0.0316 -0.1454
 2866DOPE   C4A33631  27.349  16.601  12.181  0.0552 -0.0400  0.6005
 2866DOPE   C1B33632  27.803  16.178  13.054 -0.0685 -0.1159  0.2736
 2866DOPE   D2B33633  27.967  16.264  12.597  0.0321  0.3872 -0.2199
 2866DOPE   C3B33634  27.762  16.178  12.156  0.0894 -0.3242 -0.0230
 2866DOPE   C4B33635  27.567  16.229  11.759 -0.1848  0.1662  0.3096
 2867POSM   NC333636  34.530  20.383  14.519 -0.1250  0.0367  0.0685
 2867POSM   PO433637  34.179  20.409  14.612  0.1828 -0.1717 -0.2919
 2867POSM   AM133638  33.964  20.567  14.432 -0.1263  0.1121  0.0984
 2867POSM   AM233639  33.934  20.519  14.154 -0.0403 -0.3754  0.0268
 2867POSM   T1A33640  33.949  21.039  14.214 -0.2594  0.3215  0.0018
 2867POSM   C2A33641  33.812  21.169  13.778  0.6063  0.0686  0.2399
 2867POSM   C3A33642  33.768  21.330  13.408 -0.2465  0.0998 -0.0654
 2867POSM   C1B33643  33.935  20.560  13.862  0.2941  0.0345  0.1607
 2867POSM   D2B33644  33.846  20.326  13.460  0.3260  0.3228 -0.1435
 2867POSM   C3B33645  33.951  20.584  13.129 -0.1535  0.0438 -0.1120
 2867POSM   C4B33646  34.117  21.030  13.066  0.3407  0.0452 -0.1063
 2868DOPS   CNO33647  31.703  22.834  14.950 -0.0885 -0.0565 -0.1262
 2868DOPS   PO433648  31.786  22.521  14.769  0.0960 -0.2205  0.0951
 2868DOPS   GL133649  32.019  22.563  14.396  0.1219 -0.1280  0.2484
 2868DOPS   GL233650  31.804  22.403  14.254 -0.0277 -0.1026 -0.1545
 2868DOPS   C1A33651  31.918  22.748  13.977  0.0439  0.1577  0.4256
 2868DOPS   D2A33652  32.000  23.015  13.607  0.1563  0.0337 -0.0872
 2868DOPS   C3A33653  31.897  23.449  13.662  0.0768  0.0390 -0.0812
 2868DOPS   C4A33654  31.886  23.896  13.544 -0.0238 -0.2767 -0.0211
 2868DOPS   C1B33655  31.825  22.246  13.780  0.1522  0.2190  0.1965
 2868DOPS   D2B33656  31.506  22.192  13.439  0.2483  0.0653 -0.2275
 2868DOPS   C3B33657  31.167  22.470  13.512 -0.2062  0.0395  0.1974
 2868DOPS   C4B33658  31.143  22.849  13.749 -0.2956 -0.1019  0.1270
 2869DOPC   NC333659   2.860  14.613  14.419  0.0361 -0.1057 -0.3277
 2869DOPC   PO433660   2.945  14.841  14.109 -0.1975 -0.0355  0.2641
 2869DOPC   GL133661   2.706  14.840  13.816  0.0277 -0.2337 -0.1062
 2869DOPC   GL233662   2.471  15.080  13.778  0.1930  0.2900  0.0007
 2869DOPC   C1A33663   2.596  14.655  13.422  0.1506 -0.0311  0.0886
 2869DOPC   D2A33664   2.530  14.689  12.977  0.0575  0.0799  0.2184
 2869DOPC   C3A33665   2.173  14.472  12.790  0.1735 -0.0502 -0.5326
 2869DOPC   C4A33666   1.699  14.416  12.868 -0.1757  0.1621 -0.0691
 2869DOPC   C1B33667   2.508  15.149  13.286  0.3048  0.0932  0.2486
 2869DOPC   D2B33668   2.935  15.352  13.074  0.0816 -0.1954  0.2747
 2869DOPC   C3B33669   3.065  15.277  12.600  0.1376  0.3129  0.0333
 2869DOPC   C4B33670   3.446  15.264  12.383  0.0530 -0.1360  0.0142
 2870DOPE   NH333671  30.821  12.600  14.446 -0.3051 -0.1924 -0.0362
 2870DOPE   PO433672  30.810  12.310  14.278 -0.1505 -0.1412 -0.0497
 2870DOPE   GL133673  30.922  12.084  13.969 -0.1260 -0.5161  0.0627
 2870DOPE   GL233674  30.926  12.268  13.756  0.2327 -0.0977  0.0557
 2870DOPE   C1A33675  31.182  11.876  13.644 -0.1905 -0.0575  0.1201
 2870DOPE   D2A33676  31.342  11.861  13.205 -0.4062  0.0879  0.0902
 2870DOPE   C3A33677  31.125  11.962  12.808  0.0315  0.1320  0.0119
 2870DOPE   C4A33678  31.097  12.110  12.375  0.1432  0.0976 -0.0245
 2870DOPE   C1B33679  30.851  12.439  13.308 -0.0135 -0.0212  0.1268
 2870DOPE   D2B33680  30.969  12.484  12.887  0.2159  0.1545 -0.0207
 2870DOPE   C3B33681  30.794  12.743  12.596  0.0426 -0.3259  0.0596
 2870DOPE   C4B33682  30.506  12.945  12.320  0.1580 -0.1977  0.1121
 2871DOPE   NH333683  29.441  18.779  14.828 -0.0153  0.0907  0.0098
 2871DOPE   PO433684  29.440  18.519  14.743 -0.1612 -0.0900  0.0510
 2871DOPE   GL133685  29.452  18.366  14.331 -0.0996 -0.2327 -0.3887
 2871DOPE   GL233686  29.264  18.152  14.170  0.2108  0.1983  0.0215
 2871DOPE   C1A33687  29.689  18.384  13.932 -0.0158  0.0077  0.3421
 2871DOPE   D2A33688  29.806  18.676  13.591 -0.0134  0.1957 -0.1094
 2871DOPE   C3A33689  29.737  18.845  13.189  0.2361 -0.0574 -0.0407
 2871DOPE   C4A33690  29.762  18.977  12.736 -0.1137 -0.0671 -0.2794
 2871DOPE   C1B33691  29.449  17.972  13.807  0.1731 -0.1215  0.0921
 2871DOPE   D2B33692  29.567  18.132  13.382  0.0352  0.2506  0.3030
 2871DOPE   C3B33693  29.607  17.930  13.008  0.2295  0.2257  0.0148
 2871DOPE   C4B33694  29.650  17.917  12.557 -0.0814  0.2095 -0.2012
 2872DOPC   NC333695  31.363  23.260  14.733  0.0918  0.1295  0.1324
 2872DOPC   PO433696  31.061  23.051  14.893 -0.2266  0.0301 -0.2406
 2872DOPC   GL133697  31.078  22.923  14.505  0.0316 -0.1907 -0.4276
 2872DOPC   GL233698  31.169  22.731  14.242 -0.0968  0.0102 -0.0692
 2872DOPC   C1A33699  31.315  23.215  14.239 -0.0051  0.3590  0.2866
 2872DOPC   D2A33700  31.579  23.120  13.870 -0.0086  0.0113 -0.3711
 2872DOPC   C3A33701  31.391  23.187  13.482 -0.1021  0.0772  0.2545
 2872DOPC   C4A33702  30.997  22.993  13.300  0.2584 -0.2483 -0.1779
 2872DOPC   C1B33703  31.433  22.525  13.913  0.2515 -0.0303  0.1182
 2872DOPC   D2B33704  31.671  22.656  13.517 -0.1487  0.0685 -0.0108
 2872DOPC   C3B33705  31.647  22.910  13.086  0.2025  0.0064  0.2469
 2872DOPC   C4B33706  31.510  23.291  12.850  0.0050 -0.2099  0.3118
 2873POSM   NC333707  33.546  20.304  14.406  0.0360 -0.0851  0.0739
 2873POSM   PO433708  33.745  20.079  14.632 -0.1124 -0.2574  0.4607
 2873POSM   AM133709  33.948  20.075  14.362  0.3513 -0.2354 -0.1048
 2873POSM   AM233710  34.198  20.080  14.236 -0.1117  0.0650  0.2011
 2873POSM   T1A33711  33.879  19.985  13.861 -0.0253  0.0039  0.0092
 2873POSM   C2A33712  34.042  19.764  13.491  0.1073  0.1132  0.1730
 2873POSM   C3A33713  33.969  19.333  13.250 -0.2238 -0.0647  0.1289
 2873POSM   C1B33714  34.357  20.131  13.941 -0.2587 -0.0544 -0.1434
 2873POSM   D2B33715  34.380  20.457  13.607 -0.1994 -0.0938 -0.2274
 2873POSM   C3B33716  34.434  20.464  13.099 -0.2002  0.1766 -0.0078
 2873POSM   C4B33717  34.633  20.219  12.714 -0.1678 -0.0756 -0.1428
 2874DOPE   NH333718  26.350  20.087  14.352  0.0618 -0.0356 -0.1042
 2874DOPE   PO433719  26.291  20.009  14.016  0.0084 -0.0971  0.0224
 2874DOPE   GL133720  26.248  19.865  13.708  0.0685 -0.4911 -0.3310
 2874DOPE   GL233721  26.326  19.546  13.656  0.0117 -0.3302  0.2356
 2874DOPE   C1A33722  26.119  19.850  13.287  0.0530  0.0766 -0.3040
 2874DOPE   D2A33723  26.167  19.656  12.868 -0.1279  0.1602 -0.2627
 2874DOPE   C3A33724  26.567  19.778  12.660  0.0255 -0.0761 -0.1837
 2874DOPE   C4A33725  26.906  19.979  12.459  0.2181 -0.2017  0.3108
 2874DOPE   C1B33726  26.596  19.860  13.384 -0.0839  0.0734 -0.1221
 2874DOPE   D2B33727  26.769  20.080  12.981 -0.1206 -0.0459 -0.0102
 2874DOPE   C3B33728  26.735  20.443  12.697 -0.1176  0.0657 -0.2273
 2874DOPE   C4B33729  26.515  20.857  12.581  0.3906  0.0920  0.1835
 2875DOPS   CNO33730  30.675  10.624  14.905  0.0418  0.1334  0.1804
 2875DOPS   PO433731  30.441  10.786  14.652 -0.2233  0.1657 -0.1184
 2875DOPS   GL133732  30.466  10.628  14.292 -0.0242 -0.0453 -0.1271
 2875DOPS   GL233733  30.399  10.383  14.173  0.3090 -0.2324  0.0577
 2875DOPS   C1A33734  30.298  10.725  13.867  0.0228 -0.0265  0.0047
 2875DOPS   D2A33735  29.930  10.603  13.566 -0.2577 -0.2151 -0.1617
 2875DOPS   C3A33736  29.864  10.294  13.245  0.1024 -0.0281 -0.0462
 2875DOPS   C4A33737  29.809   9.848  13.068  0.1533  0.0196 -0.2121
 2875DOPS   C1B33738  30.286  10.169  13.748 -0.1793 -0.3001 -0.0954
 2875DOPS   D2B33739  30.135   9.858  13.444  0.0517  0.1323  0.1998
 2875DOPS   C3B33740  29.668   9.783  13.546 -0.3051  0.0885 -0.0414
 2875DOPS   C4B33741  29.242   9.612  13.617  0.3085 -0.0776 -0.1827
 2876POSM   NC333742  31.276  19.293  14.725  0.2539  0.2247 -0.1918
 2876POSM   PO433743  30.896  19.426  14.924  0.2281  0.3510 -0.1622
 2876POSM   AM133744  30.766  19.258  14.627  0.0002 -0.0998 -0.0560
 2876POSM   AM233745  30.929  19.161  14.394 -0.0958 -0.0964  0.2445
 2876POSM   T1A33746  30.421  19.496  14.307  0.3936  0.0465  0.0999
 2876POSM   C2A33747  30.103  19.479  13.914 -0.1148 -0.0029  0.1841
 2876POSM   C3A33748  29.856  19.203  13.625  0.2837 -0.0118 -0.0840
 2876POSM   C1B33749  30.857  19.359  14.110  0.0166 -0.1915 -0.1632
 2876POSM   D2B33750  30.639  19.587  13.751  0.0862  0.1182 -0.2210
 2876POSM   C3B33751  30.729  19.970  13.528  0.0706 -0.2293  0.0165
 2876POSM   C4B33752  30.955  20.152  13.166 -0.1022  0.0885 -0.0097
 2877POSM   NC333753  28.484  19.437  14.575 -0.2684  0.3380 -0.2450
 2877POSM   PO433754  28.834  19.570  14.661  0.2030  0.0956  0.0210
 2877POSM   AM133755  28.991  19.498  14.365 -0.0086  0.3385 -0.0886
 2877POSM   AM233756  29.247  19.540  14.267 -0.1610 -0.1877  0.2087
 2877POSM   T1A33757  29.037  19.411  13.831  0.0867  0.2180  0.0746
 2877POSM   C2A33758  28.979  19.660  13.452 -0.2709  0.0424  0.0691
 2877POSM   C3A33759  28.952  19.484  12.983 -0.0869  0.0030 -0.0653
 2877POSM   C1B33760  29.342  19.753  14.029  0.2764 -0.2043  0.1303
 2877POSM   D2B33761  29.305  20.003  13.633  0.0159 -0.0806 -0.1132
 2877POSM   C3B33762  29.225  19.953  13.185  0.2019  0.1457  0.1204
 2877POSM   C4B33763  29.299  19.792  12.749  0.0617 -0.1497 -0.2514
 2878DOPC   NC333764  28.561  12.989  13.840  0.1076  0.2816 -0.0082
 2878DOPC   PO433765  28.496  13.389  13.853 -0.1369 -0.1623  0.1746
 2878DOPC   GL133766  28.493  13.388  13.463 -0.0850  0.2469  0.0466
 2878DOPC   GL233767  28.259  13.549  13.391 -0.0268 -0.3483  0.0082
 2878DOPC   C1A33768  28.512  13.339  12.966  0.1890 -0.2366 -0.1270
 2878DOPC   D2A33769  28.844  13.059  12.754 -0.4256 -0.0196 -0.1190
 2878DOPC   C3A33770  28.972  12.833  12.382  0.0428 -0.2545 -0.0341
 2878DOPC   C4A33771  29.080  12.921  11.916  0.0169  0.0394  0.1706
 2878DOPC   C1B33772  27.939  13.470  13.076  0.1015 -0.0110  0.1331
 2878DOPC   D2B33773  27.810  13.288  12.715 -0.2897 -0.0329  0.1947
 2878DOPC   C3B33774  28.137  13.319  12.415  0.0626  0.1178 -0.1693
 2878DOPC   C4B33775  28.122  13.041  12.073 -0.2795  0.1398 -0.0936
 2879DOPS   CNO33776  32.042  14.775  14.649 -0.1773  0.3559  0.1241
 2879DOPS   PO433777  31.856  15.098  14.681  0.0601  0.0508 -0.0389
 2879DOPS   GL133778  31.964  15.171  14.305  0.2679 -0.2512  0.0227
 2879DOPS   GL233779  32.137  14.940  14.156  0.0780  0.0787 -0.0471
 2879DOPS   C1A33780  31.944  15.292  13.851 -0.0974 -0.3716  0.0637
 2879DOPS   D2A33781  32.096  15.590  13.512  0.0308  0.3339  0.2160
 2879DOPS   C3A33782  31.985  15.611  13.086  0.2208 -0.3180  0.0160
 2879DOPS   C4A33783  31.843  15.598  12.573  0.2213 -0.1144  0.0306
 2879DOPS   C1B33784  32.217  14.874  13.725 -0.0859  0.1863  0.0608
 2879DOPS   D2B33785  32.350  14.933  13.265 -0.0520  0.3047  0.1909
 2879DOPS   C3B33786  32.269  15.264  12.908 -0.2329 -0.0516  0.0089
 2879DOPS   C4B33787  32.367  15.330  12.443 -0.1423 -0.1275  0.2312
 2880DOPE   NH333788  34.376  22.130  14.433 -0.0985  0.1382  0.1966
 2880DOPE   PO433789  34.602  22.311  14.498 -0.1108 -0.1913  0.2957
 2880DOPE   GL133790  34.604  22.506  14.160  0.1246 -0.1204 -0.1983
 2880DOPE   GL233791  34.288  22.503  14.163 -0.1358 -0.1205 -0.0440
 2880DOPE   C1A33792  34.721  22.741  13.752  0.2390 -0.2082  0.1471
 2880DOPE   D2A33793  34.781  22.876  13.254 -0.0307 -0.0849  0.0344
 2880DOPE   C3A33794  34.321  22.852  13.340 -0.0189 -0.0357  0.3132
 2880DOPE   C4A33795  33.909  22.720  13.316  0.0829  0.0780  0.0247
 2880DOPE   C1B33796  34.317  22.472  13.735  0.3360 -0.1080 -0.3092
 2880DOPE   D2B33797  34.534  22.390  13.313 -0.0128 -0.2659 -0.1237
 2880DOPE   C3B33798  34.496  22.035  13.027 -0.2227 -0.0834  0.0479
 2880DOPE   C4B33799  34.692  21.659  12.913 -0.4592  0.1926  0.0165
 2881POSM   NC333800  33.554  21.194  15.191 -0.1357  0.2009  0.0111
 2881POSM   PO433801  33.434  21.026  14.872  0.0955 -0.1435  0.2975
 2881POSM   AM133802  33.541  21.043  14.532 -0.0849 -0.0388 -0.1884
 2881POSM   AM233803  33.572  20.812  14.373 -0.1260  0.4241 -0.0237
 2881POSM   T1A33804  33.444  21.370  14.175  0.3208  0.0108  0.0677
 2881POSM   C2A33805  33.659  21.798  13.971 -0.1191  0.0805  0.3347
 2881POSM   C3A33806  33.981  22.116  13.953 -0.0240 -0.1883 -0.0999
 2881POSM   C1B33807  33.494  20.881  14.031 -0.0863  0.0457 -0.1133
 2881POSM   D2B33808  33.233  21.099  13.698  0.1109 -0.0093  0.0703
 2881POSM   C3B33809  33.193  20.923  13.333  0.1290  0.1763 -0.3436
 2881POSM   C4B33810  33.057  20.991  12.875 -0.0256  0.0426 -0.1099
 2882POSM   NC333811   0.419  13.985  14.862  0.3701  0.1233  0.0143
 2882POSM   PO433812   0.753  14.178  14.743 -0.4024  0.1141 -0.1530
 2882POSM   AM133813   0.731  14.152  14.405  0.1037 -0.2020 -0.1804
 2882POSM   AM233814   0.696  14.298  14.181  0.3490  0.1310 -0.2126
 2882POSM   T1A33815   0.650  13.870  13.992 -0.0073  0.2327 -0.0599
 2882POSM   C2A33816   0.440  13.697  13.641  0.2756 -0.0304  0.0603
 2882POSM   C3A33817   0.628  13.415  13.402  0.0717  0.1006  0.0502
 2882POSM   C1B33818   0.864  14.395  13.928  0.0277  0.0246 -0.0114
 2882POSM   D2B33819   1.071  14.259  13.563  0.1306 -0.1779 -0.1756
 2882POSM   C3B33820   1.037  13.909  13.264 -0.0012 -0.0101 -0.1658
 2882POSM   C4B33821   1.087  13.825  12.811 -0.0225 -0.2631 -0.1078
 2883DOPC   NC333822  27.294  20.917  15.170 -0.1625 -0.1950 -0.1183
 2883DOPC   PO433823  27.385  21.012  14.795  0.0132  0.0145  0.2324
 2883DOPC   GL133824  27.442  20.925  14.386  0.2524  0.0315 -0.1520
 2883DOPC   GL233825  27.534  21.149  14.268  0.3629  0.0160 -0.4287
 2883DOPC   C1A33826  27.708  20.734  14.005  0.2318 -0.0331  0.1090
 2883DOPC   D2A33827  27.665  20.600  13.588 -0.1029  0.2086 -0.0860
 2883DOPC   C3A33828  27.785  20.809  13.234 -0.1363  0.0967  0.0078
 2883DOPC   C4A33829  28.093  20.868  12.901  0.2966  0.0502  0.2303
 2883DOPC   C1B33830  27.193  20.990  14.007  0.3543  0.2241 -0.1240
 2883DOPC   D2B33831  26.750  20.945  13.963  0.4496  0.1762  0.0210
 2883DOPC   C3B33832  26.542  20.836  13.602 -0.0372  0.0299 -0.1423
 2883DOPC   C4B33833  26.314  21.015  13.271  0.1169 -0.1294 -0.1808
 2884DOPC   NC333834  28.936  14.204  14.046  0.1597 -0.3481 -0.0365
 2884DOPC   PO433835  29.197  13.982  13.831 -0.1188 -0.0375  0.1799
 2884DOPC   GL133836  29.472  14.138  13.514  0.2484  0.2463 -0.0379
 2884DOPC   GL233837  29.644  13.856  13.516 -0.2815 -0.0330 -0.2851
 2884DOPC   C1A33838  29.442  14.540  13.321  0.1368 -0.0758 -0.1276
 2884DOPC   D2A33839  29.198  14.702  12.907 -0.1290 -0.0077 -0.0289
 2884DOPC   C3A33840  29.139  14.491  12.423 -0.2355 -0.1662  0.1871
 2884DOPC   C4A33841  29.128  14.208  12.013  0.0619 -0.1487 -0.1817
 2884DOPC   C1B33842  29.586  13.465  13.371 -0.2131  0.1427  0.0482
 2884DOPC   D2B33843  29.333  13.133  13.472 -0.2278 -0.3093 -0.1286
 2884DOPC   C3B33844  29.325  13.148  13.040 -0.2241  0.2660  0.0629
 2884DOPC   C4B33845  29.163  13.429  12.737  0.0743  0.3441 -0.0448
 2885POSM   NC333846  32.231   9.292  14.638 -0.0623 -0.2262 -0.2243
 2885POSM   PO433847  32.198   8.974  14.442  0.0059  0.2527 -0.3087
 2885POSM   AM133848  32.100   8.960  14.121  0.1769  0.3499  0.2514
 2885POSM   AM233849  32.019   8.767  13.927  0.1456 -0.0590 -0.0435
 2885POSM   T1A33850  32.096   9.156  13.675 -0.0918 -0.0411 -0.0176
 2885POSM   C2A33851  32.227   9.426  13.358 -0.2773 -0.2830 -0.2833
 2885POSM   C3A33852  32.521   9.600  12.981  0.0143  0.0181 -0.0680
 2885POSM   C1B33853  31.991   8.634  13.648 -0.1440 -0.2077 -0.1189
 2885POSM   D2B33854  32.003   8.249  13.452  0.0576  0.1012  0.1097
 2885POSM   C3B33855  32.315   8.267  13.123 -0.3026 -0.1373  0.0828
 2885POSM   C4B33856  32.714   8.411  12.860  0.1930  0.2836  0.2436
 2886POSM   NC333857  34.441  17.287  14.706  0.3342  0.4011 -0.2064
 2886POSM   PO433858  34.118  17.424  14.664 -0.0387  0.2408  0.1052
 2886POSM   AM133859  33.955  17.467  14.363  0.2018  0.0796  0.1354
 2886POSM   AM233860  33.988  17.364  14.124  0.1694  0.0734  0.2904
 2886POSM   T1A33861  33.855  17.903  14.038  0.0815  0.3164 -0.2072
 2886POSM   C2A33862  33.902  18.070  13.629 -0.1434  0.1842 -0.0013
 2886POSM   C3A33863  33.879  18.374  13.305 -0.1241  0.1531  0.0396
 2886POSM   C1B33864  34.169  17.480  13.882  0.2411 -0.0460  0.0205
 2886POSM   D2B33865  34.238  17.723  13.531  0.1147 -0.0067  0.1427
 2886POSM   C3B33866  34.241  17.538  13.147  0.3665 -0.0326 -0.2931
 2886POSM   C4B33867  34.209  17.122  12.958 -0.1280 -0.0180  0.0229
 2887DOPE   NH333868   1.220  22.636  14.191 -0.1301  0.2737 -0.1432
 2887DOPE   PO433869   1.154  22.824  13.925 -0.1511  0.0657 -0.0205
 2887DOPE   GL133870   1.061  22.684  13.615  0.0597  0.3453 -0.1249
 2887DOPE   GL233871   1.200  22.856  13.375  0.1414  0.0815  0.1787
 2887DOPE   C1A33872   0.719  22.385  13.476 -0.2010 -0.3978 -0.1990
 2887DOPE   D2A33873   0.247  22.429  13.454 -0.3533 -0.0097 -0.0098
 2887DOPE   C3A33874  -0.019  22.170  13.711 -0.0743 -0.1104 -0.1641
 2887DOPE   C4A33875  -0.330  21.904  13.906  0.2000  0.2321 -0.1423
 2887DOPE   C1B33876   0.979  23.226  13.186  0.1748  0.2374  0.1726
 2887DOPE   D2B33877   0.902  23.485  12.858 -0.0724  0.2242 -0.1653
 2887DOPE   C3B33878   0.560  23.721  12.628 -0.0992 -0.0118 -0.2208
 2887DOPE   C4B33879   0.162  23.832  12.440 -0.0476 -0.1939  0.0208
 2888DOPC   NC333880  30.869  20.990  15.253  0.3023 -0.0575  0.3293
 2888DOPC   PO433881  30.488  21.002  15.311 -0.0554 -0.1544  0.1929
 2888DOPC   GL133882  30.441  20.905  14.978 -0.0889 -0.1608 -0.2838
 2888DOPC   GL233883  30.628  20.597  14.989  0.0811 -0.3873  0.0507
 2888DOPC   C1A33884  30.353  20.801  14.538 -0.0871  0.0350 -0.2252
 2888DOPC   D2A33885  30.118  20.957  14.106  0.1192  0.2047  0.0578
 2888DOPC   C3A33886  30.207  21.081  13.684 -0.0032  0.3941  0.0762
 2888DOPC   C4A33887  30.276  20.799  13.273  0.2477  0.1250 -0.0549
 2888DOPC   C1B33888  30.214  20.390  14.878  0.2697 -0.0546  0.1119
 2888DOPC   D2B33889  29.863  20.502  14.597  0.1130 -0.0860 -0.0496
 2888DOPC   C3B33890  30.063  20.417  14.173 -0.2470 -0.4991  0.0360
 2888DOPC   C4B33891  30.296  20.571  13.787 -0.2979 -0.2249  0.1860
 2889DOPE   NH333892  31.183  17.966  14.439  0.0498  0.0366  0.3962
 2889DOPE   PO433893  30.995  18.218  14.582 -0.0338  0.1435 -0.3960
 2889DOPE   GL133894  30.739  18.385  14.272  0.1558  0.0748 -0.0016
 2889DOPE   GL233895  30.644  18.610  14.161  0.2404 -0.1074  0.0047
 2889DOPE   C1A33896  30.570  18.246  13.850  0.2084 -0.0243  0.0177
 2889DOPE   D2A33897  30.434  17.982  13.496  0.2141  0.0851 -0.1656
 2889DOPE   C3A33898  30.502  18.059  13.033 -0.1456  0.0824 -0.1641
 2889DOPE   C4A33899  30.693  18.259  12.648  0.0541  0.2391  0.1601
 2889DOPE   C1B33900  30.838  18.880  13.804  0.1779  0.0914  0.0877
 2889DOPE   D2B33901  30.803  18.966  13.348 -0.1278  0.0241  0.0610
 2889DOPE   C3B33902  30.915  19.277  13.027  0.2370  0.0128 -0.0290
 2889DOPE   C4B33903  31.022  19.631  13.054  0.4015 -0.1306  0.1622
 2890DOPE   NH333904  33.574  15.167  14.502  0.0039  0.1706 -0.0985
 2890DOPE   PO433905  33.441  14.899  14.610  0.0708 -0.0990 -0.1188
 2890DOPE   GL133906  33.386  14.828  14.138 -0.2347  0.4519 -0.0269
 2890DOPE   GL233907  33.132  15.019  14.190  0.4270  0.3368 -0.0113
 2890DOPE   C1A33908  33.623  14.592  13.812 -0.0976  0.0563 -0.2384
 2890DOPE   D2A33909  33.764  14.467  13.393 -0.0679  0.0720  0.1447
 2890DOPE   C3A33910  34.225  14.603  13.369  0.0874 -0.0460  0.2818
 2890DOPE   C4A33911  34.575  14.764  13.108  0.0547 -0.2172  0.2761
 2890DOPE   C1B33912  33.460  15.088  13.777  0.3279  0.2481  0.0670
 2890DOPE   D2B33913  33.743  15.375  13.543 -0.1591 -0.2623  0.2718
 2890DOPE   C3B33914  33.810  15.439  13.044  0.1207  0.1534 -0.0298
 2890DOPE   C4B33915  33.969  15.519  12.632  0.1982 -0.2400  0.1036
 2891DOPE   NH333916  31.684  12.915  14.485  0.0156 -0.0378  0.0214
 2891DOPE   PO433917  31.428  12.711  14.427 -0.3177  0.4089 -0.1792
 2891DOPE   GL133918  31.529  12.803  14.015 -0.0626  0.3390  0.2020
 2891DOPE   GL233919  31.818  12.790  13.966 -0.2389  0.2008  0.3030
 2891DOPE   C1A33920  31.413  12.593  13.604  0.3486  0.0043  0.3164
 2891DOPE   D2A33921  31.349  12.367  13.171  0.0320 -0.1700  0.1212
 2891DOPE   C3A33922  31.500  12.275  12.746 -0.0855  0.1899 -0.0970
 2891DOPE   C4A33923  31.882  12.519  12.569 -0.3841 -0.1020 -0.4747
 2891DOPE   C1B33924  31.625  13.048  13.612  0.1120  0.1100 -0.0894
 2891DOPE   D2B33925  31.784  13.331  13.319  0.1036  0.0842 -0.0456
 2891DOPE   C3B33926  32.230  13.395  13.158  0.0046  0.2671 -0.3713
 2891DOPE   C4B33927  32.653  13.134  13.086  0.0332  0.3189 -0.1637
 2892DOPS   CNO33928  26.229  15.107  13.466  0.0374 -0.0578  0.1450
 2892DOPS   PO433929  26.253  14.736  13.501  0.1805  0.2756  0.1635
 2892DOPS   GL133930  26.158  14.710  13.109  0.1514 -0.3091  0.1239
 2892DOPS   GL233931  26.401  14.625  13.010 -0.0657  0.1252 -0.0180
 2892DOPS   C1A33932  26.050  14.840  12.669  0.3527  0.2482 -0.1966
 2892DOPS   D2A33933  25.953  15.063  12.310 -0.0236  0.2646  0.2309
 2892DOPS   C3A33934  25.707  14.965  11.962  0.0979 -0.1183  0.0598
 2892DOPS   C4A33935  25.680  14.946  11.492  0.0451  0.0760  0.2295
 2892DOPS   C1B33936  26.595  14.738  12.648  0.0507 -0.0532  0.1135
 2892DOPS   D2B33937  26.496  14.816  12.239  0.0594  0.1594  0.2076
 2892DOPS   C3B33938  26.259  15.017  11.935 -0.0921  0.1177  0.0974
 2892DOPS   C4B33939  26.227  15.390  11.666  0.1626 -0.2089  0.0829
 2893DOPE   NH333940  31.905  18.807  15.172 -0.0157 -0.2559 -0.5974
 2893DOPE   PO433941  32.040  18.789  14.902 -0.0992  0.3563  0.2041
 2893DOPE   GL133942  31.985  18.987  14.500  0.0440  0.4776 -0.3519
 2893DOPE   GL233943  32.208  19.215  14.428  0.1096  0.2053 -0.1068
 2893DOPE   C1A33944  31.915  19.024  13.981  0.3376  0.3203 -0.0083
 2893DOPE   D2A33945  31.616  18.741  13.743 -0.1991 -0.2837 -0.0233
 2893DOPE   C3A33946  31.226  18.808  13.463 -0.1756 -0.1306  0.1942
 2893DOPE   C4A33947  31.119  18.811  13.001  0.1271 -0.0675 -0.5438
 2893DOPE   C1B33948  32.443  19.233  14.027 -0.2549  0.0946 -0.0288
 2893DOPE   D2B33949  32.383  18.968  13.637 -0.1870 -0.4636 -0.2826
 2893DOPE   C3B33950  32.397  19.216  13.214 -0.1946 -0.0810 -0.0255
 2893DOPE   C4B33951  32.467  19.210  12.706  0.0391  0.1120  0.1435
 2894DOPE   NH333952  27.714  16.787  13.804 -0.1982  0.2558 -0.0113
 2894DOPE   PO433953  27.434  16.907  13.876  0.0933  0.1143  0.0617
 2894DOPE   GL133954  27.309  17.032  13.513  0.2235  0.0347 -0.0782
 2894DOPE   GL233955  27.199  17.243  13.353  0.1476  0.1692 -0.3369
 2894DOPE   C1A33956  27.540  16.886  13.142 -0.0448 -0.3758 -0.1370
 2894DOPE   D2A33957  27.767  16.713  12.801 -0.1766  0.0865 -0.0092
 2894DOPE   C3A33958  27.833  16.843  12.345 -0.0098  0.0664 -0.0965
 2894DOPE   C4A33959  27.786  16.819  11.876  0.1643  0.1429  0.0381
 2894DOPE   C1B33960  27.156  17.467  12.979 -0.2643 -0.1185 -0.1704
 2894DOPE   D2B33961  27.191  17.318  12.543 -0.0651  0.1923 -0.1754
 2894DOPE   C3B33962  26.931  17.275  12.204  0.2061  0.1776  0.0213
 2894DOPE   C4B33963  26.871  17.203  11.788 -0.1359  0.1744 -0.0493
 2895POSM   NC333964  27.829  12.352  14.032 -0.0512 -0.0129 -0.0270
 2895POSM   PO433965  28.069  12.586  13.845 -0.1694  0.1475  0.3225
 2895POSM   AM133966  27.803  12.619  13.631 -0.3160  0.2294 -0.2264
 2895POSM   AM233967  27.550  12.578  13.536 -0.2737  0.0427  0.2855
 2895POSM   T1A33968  27.945  12.502  13.152 -0.2056  0.1963  0.0840
 2895POSM   C2A33969  28.021  12.346  12.757  0.1919 -0.2102 -0.3169
 2895POSM   C3A33970  28.276  12.063  12.498  0.1584  0.0159  0.0164
 2895POSM   C1B33971  27.442  12.504  13.236  0.3116 -0.1176  0.4681
 2895POSM   D2B33972  27.328  12.392  12.792 -0.0041 -0.3811 -0.0323
 2895POSM   C3B33973  27.040  12.668  12.617 -0.0123 -0.4973 -0.0630
 2895POSM   C4B33974  26.749  12.764  12.315 -0.0817 -0.1176 -0.1521
 2896POSM   NC333975  30.340  17.536  14.677 -0.0364  0.1418 -0.2529
 2896POSM   PO433976  30.181  17.203  14.510  0.2368 -0.1856  0.2371
 2896POSM   AM133977  30.117  17.060  14.228  0.0125 -0.1188 -0.3515
 2896POSM   AM233978  30.329  16.997  14.053 -0.1095 -0.0478 -0.0378
 2896POSM   T1A33979  29.840  17.008  13.807  0.1973 -0.0514 -0.4379
 2896POSM   C2A33980  29.437  17.013  13.571 -0.0695  0.1602  0.2529
 2896POSM   C3A33981  28.964  17.084  13.620 -0.1858  0.3291 -0.0611
 2896POSM   C1B33982  30.407  17.054  13.707 -0.0226  0.3613  0.1623
 2896POSM   D2B33983  30.457  17.102  13.241  0.0144 -0.0723 -0.0362
 2896POSM   C3B33984  30.244  17.299  12.890  0.0163 -0.0455 -0.3026
 2896POSM   C4B33985  29.819  17.439  12.845 -0.0995 -0.2265  0.1605
 2897DOPC   NC333986  31.579  17.502  14.396 -0.2433  0.0341  0.2509
 2897DOPC   PO433987  31.697  17.855  14.469  0.0390 -0.0433  0.2017
 2897DOPC   GL133988  31.463  17.886  14.088 -0.3052  0.2209  0.0141
 2897DOPC   GL233989  31.595  17.695  13.887  0.0480  0.2835 -0.1848
 2897DOPC   C1A33990  31.546  18.234  13.823 -0.0433  0.2466  0.1255
 2897DOPC   D2A33991  31.562  18.405  13.363  0.2446  0.2808  0.0706
 2897DOPC   C3A33992  32.020  18.684  13.313 -0.0142 -0.5637 -0.0256
 2897DOPC   C4A33993  32.395  18.592  12.964  0.2620  0.1942  0.1197
 2897DOPC   C1B33994  31.396  17.855  13.497 -0.0120 -0.1629 -0.3417
 2897DOPC   D2B33995  30.953  17.892  13.279  0.0191  0.1625 -0.2865
 2897DOPC   C3B33996  31.020  18.253  13.057  0.1548  0.3541 -0.0093
 2897DOPC   C4B33997  31.396  18.433  12.918  0.1229  0.0988 -0.1903
 2898DOPC   NC333998  28.769  21.242  15.429 -0.0750 -0.1211  0.0599
 2898DOPC   PO433999  28.650  21.142  15.046 -0.0285 -0.2673 -0.1319
 2898DOPC   GL134000  28.698  20.952  14.722 -0.1018 -0.1831 -0.3735
 2898DOPC   GL234001  28.621  21.279  14.585  0.0056  0.3381 -0.0360
 2898DOPC   C1A34002  28.627  20.886  14.305 -0.1501  0.0759 -0.3740
 2898DOPC   D2A34003  28.539  20.892  13.879  0.1800  0.1115 -0.1123
 2898DOPC   C3A34004  28.347  21.269  13.654 -0.0482 -0.3050 -0.0051
 2898DOPC   C4A34005  28.139  21.645  13.631  0.1605  0.1907 -0.0981
 2898DOPC   C1B34006  28.799  21.342  14.089  0.0397 -0.1579  0.2265
 2898DOPC   D2B34007  28.871  21.351  13.661 -0.1692  0.0017  0.0590
 2898DOPC   C3B34008  28.598  21.626  13.386 -0.0744  0.3753  0.2562
 2898DOPC   C4B34009  28.687  22.000  13.128  0.2054 -0.2547 -0.3887
 2899POSM   NC334010  26.815  27.765  15.561  0.0898 -0.0883 -0.3566
 2899POSM   PO434011  26.457  27.606  15.591 -0.1469 -0.3095  0.2535
 2899POSM   AM134012  26.412  27.651  15.252 -0.0794 -0.0188 -0.1973
 2899POSM   AM234013  26.561  27.814  15.079 -0.1366 -0.0161  0.0132
 2899POSM   T1A34014  26.134  27.528  14.863  0.0780  0.0229  0.0489
 2899POSM   C2A34015  26.008  27.757  14.446  0.0544 -0.0311 -0.0358
 2899POSM   C3A34016  25.903  27.880  14.037  0.2974 -0.1186 -0.0120
 2899POSM   C1B34017  26.366  28.021  14.899  0.0988  0.0177 -0.0911
 2899POSM   D2B34018  26.199  28.273  14.621  0.2112  0.0029  0.3544
 2899POSM   C3B34019  25.991  28.322  14.195  0.1035 -0.0488 -0.0310
 2899POSM   C4B34020  25.720  28.337  13.843 -0.2948 -0.1493 -0.0034
 2900DOPC   NC334021  33.132  12.072  14.845 -0.0220 -0.1632  0.1712
 2900DOPC   PO434022  33.272  12.177  14.496  0.3387 -0.3711  0.0763
 2900DOPC   GL134023  33.385  12.059  14.172  0.0711 -0.2656  0.1799
 2900DOPC   GL234024  33.181  12.175  13.934 -0.2175  0.2387 -0.0642
 2900DOPC   C1A34025  33.709  12.191  13.828  0.1529  0.4250 -0.3301
 2900DOPC   D2A34026  34.115  12.281  13.596 -0.0026 -0.1240 -0.5910
 2900DOPC   C3A34027  34.366  12.282  13.170  0.2117  0.1514  0.2750
 2900DOPC   C4A34028  34.766  12.158  12.961  0.1932 -0.3577  0.2954
 2900DOPC   C1B34029  32.891  11.895  13.754  0.0987  0.1489 -0.1647
 2900DOPC   D2B34030  32.489  11.670  13.666 -0.1069  0.0387  0.1123
 2900DOPC   C3B34031  32.268  11.711  13.257 -0.1100  0.0686 -0.2121
 2900DOPC   C4B34032  32.243  11.728  12.776  0.4553  0.2392  0.1127
 2901POSM   NC334033  26.057  21.597  14.952 -0.0829 -0.0447 -0.2512
 2901POSM   PO434034  26.228  21.260  14.820  0.1356  0.2082 -0.0272
 2901POSM   AM134035  26.229  21.247  14.472  0.0331  0.0859 -0.0687
 2901POSM   AM234036  26.351  21.206  14.217 -0.3512  0.2413  0.1709
 2901POSM   T1A34037  25.892  21.317  14.102  0.0213  0.0214  0.0193
 2901POSM   C2A34038  25.775  21.758  14.017  0.2351 -0.0189  0.1108
 2901POSM   C3A34039  25.722  22.198  13.938  0.0035  0.2013 -0.0477
 2901POSM   C1B34040  26.391  21.280  13.864 -0.0015 -0.1102  0.2728
 2901POSM   D2B34041  26.504  21.397  13.460 -0.0197 -0.3043 -0.1231
 2901POSM   C3B34042  26.263  21.687  13.180 -0.0374 -0.0719  0.3484
 2901POSM   C4B34043  25.821  21.775  13.139  0.1153  0.0305 -0.3111
 2902DOPC   NC334044  27.083  16.499  14.104  0.0306 -0.1492 -0.0610
 2902DOPC   PO434045  27.046  16.579  13.726  0.0237 -0.0166  0.0305
 2902DOPC   GL134046  27.235  16.622  13.431 -0.1424  0.3168 -0.4452
 2902DOPC   GL234047  26.986  16.770  13.280 -0.2152  0.1601 -0.1207
 2902DOPC   C1A34048  27.354  16.416  13.028 -0.0528 -0.0191  0.0845
 2902DOPC   D2A34049  27.365  16.283  12.588  0.1775  0.0925  0.0031
 2902DOPC   C3A34050  27.491  15.890  12.562  0.2086  0.1923 -0.0421
 2902DOPC   C4A34051  27.537  15.625  12.895 -0.1649 -0.0944  0.0807
 2902DOPC   C1B34052  26.941  16.975  12.901  0.0341  0.1034 -0.2221
 2902DOPC   D2B34053  26.635  17.048  12.560 -0.2557 -0.1737 -0.1756
 2902DOPC   C3B34054  26.292  17.225  12.773  0.0555 -0.2711  0.4408
 2902DOPC   C4B34055  26.069  17.186  13.230  0.0411 -0.0756 -0.3047
 2903POSM   NC334056  26.565  20.859  14.557  0.2113 -0.0005  0.1811
 2903POSM   PO434057  26.450  20.643  14.214 -0.0644 -0.1428  0.1647
 2903POSM   AM134058  26.436  20.437  13.946 -0.4923  0.0425 -0.2253
 2903POSM   AM234059  26.245  20.395  13.754 -0.0675  0.0605 -0.2997
 2903POSM   T1A34060  26.770  20.314  13.576 -0.0928  0.1132 -0.1716
 2903POSM   C2A34061  26.799  20.581  13.153 -0.2184 -0.0678  0.0298
 2903POSM   C3A34062  26.962  20.953  12.914  0.0210 -0.4073  0.0419
 2903POSM   C1B34063  26.199  20.425  13.416  0.1537 -0.0574  0.0955
 2903POSM   D2B34064  26.369  20.396  13.014  0.2380 -0.0035  0.0595
 2903POSM   C3B34065  26.116  20.098  12.768  0.0310  0.0148 -0.0941
 2903POSM   C4B34066  26.170  19.784  12.357  0.1664 -0.1842 -0.0062
 2904DOPE   NH334067  28.041  19.057  14.827  0.1110  0.2045  0.0290
 2904DOPE   PO434068  27.995  19.275  14.592 -0.0505  0.0665  0.0346
 2904DOPE   GL134069  28.150  19.366  14.181  0.0189  0.2846 -0.1660
 2904DOPE   GL234070  28.136  19.450  13.895  0.1623 -0.1859 -0.2879
 2904DOPE   C1A34071  28.587  19.285  13.979 -0.1430 -0.1801  0.0699
 2904DOPE   D2A34072  28.662  19.290  13.495 -0.3011 -0.1697 -0.0245
 2904DOPE   C3A34073  28.437  19.375  13.112 -0.0238  0.0478  0.0331
 2904DOPE   C4A34074  28.296  19.516  12.673 -0.1517  0.1012  0.1505
 2904DOPE   C1B34075  28.087  19.322  13.431 -0.2744  0.1106 -0.1555
 2904DOPE   D2B34076  27.854  19.327  13.046  0.1759 -0.1507  0.3194
 2904DOPE   C3B34077  27.819  19.633  12.760  0.1559  0.0689 -0.2106
 2904DOPE   C4B34078  27.895  19.743  12.301 -0.0778  0.3173  0.0954
 2905DOPC   NC334079   2.632  13.014  14.547  0.0269 -0.0199 -0.0920
 2905DOPC   PO434080   2.857  13.291  14.553 -0.2404  0.0609  0.1185
 2905DOPC   GL134081   2.630  13.445  14.208  0.3301 -0.3878 -0.3827
 2905DOPC   GL234082   2.675  13.262  13.958 -0.1024 -0.1646 -0.2072
 2905DOPC   C1A34083   2.186  13.423  13.981 -0.1120 -0.0888  0.0209
 2905DOPC   D2A34084   1.742  13.232  13.951  0.0540  0.2094 -0.0191
 2905DOPC   C3A34085   1.303  13.428  14.021  0.0476 -0.2398 -0.0910
 2905DOPC   C4A34086   0.920  13.487  13.793  0.0896 -0.0360 -0.3083
 2905DOPC   C1B34087   2.882  12.839  13.771  0.0229  0.0334  0.1860
 2905DOPC   D2B34088   3.235  12.654  13.536  0.0635  0.2970  0.6334
 2905DOPC   C3B34089   3.316  12.807  13.058  0.1904 -0.1894 -0.0941
 2905DOPC   C4B34090   3.251  12.991  12.681  0.1677  0.0258 -0.0895
 2906DOPC   NC334091  32.551  10.379  13.903  0.0931 -0.1873 -0.2280
 2906DOPC   PO434092  32.926  10.422  13.973  0.2109  0.1516 -0.0995
 2906DOPC   GL134093  32.982  10.671  13.677  0.2800 -0.3217 -0.2483
 2906DOPC   GL234094  32.756  10.583  13.518 -0.0579  0.2470 -0.0928
 2906DOPC   C1A34095  33.197  10.693  13.256 -0.0601 -0.2523 -0.1836
 2906DOPC   D2A34096  32.908  10.519  12.974  0.2283  0.1341 -0.1022
 2906DOPC   C3A34097  32.640  10.143  12.884 -0.0638  0.2214  0.0383
 2906DOPC   C4A34098  32.482   9.908  12.574  0.0560 -0.2114 -0.2798
 2906DOPC   C1B34099  32.461  10.704  13.136 -0.1483  0.2117 -0.0779
 2906DOPC   D2B34100  32.316  10.613  12.722  0.1972 -0.1888  0.1545
 2906DOPC   C3B34101  31.881  10.475  12.563 -0.1879  0.0445 -0.0782
 2906DOPC   C4B34102  31.630  10.304  12.151  0.2387 -0.0057  0.0761
 2907DOPC   NC334103  24.989  17.348  13.874 -0.3151 -0.0804  0.1774
 2907DOPC   PO434104  25.102  17.650  14.135  0.0435 -0.1215 -0.1048
 2907DOPC   GL134105  25.040  17.833  13.812  0.0116 -0.0508 -0.1760
 2907DOPC   GL234106  25.325  17.723  13.678  0.0078 -0.5103  0.0592
 2907DOPC   C1A34107  24.806  17.934  13.473 -0.1857 -0.2014  0.2715
 2907DOPC   D2A34108  24.645  17.692  13.019 -0.1076  0.0813  0.0810
 2907DOPC   C3A34109  24.682  17.603  12.568 -0.3146 -0.2336  0.1002
 2907DOPC   C4A34110  24.929  17.551  12.206  0.1184 -0.5937  0.1697
 2907DOPC   C1B34111  25.265  18.162  13.526 -0.2658  0.0793 -0.0304
 2907DOPC   D2B34112  25.123  18.170  13.057  0.1081  0.0943  0.2088
 2907DOPC   C3B34113  25.353  18.163  12.637  0.2570  0.0129 -0.2934
 2907DOPC   C4B34114  25.436  18.043  12.237  0.1607 -0.1958  0.1204
 2908DOPC   NC334115  32.836  19.856  14.945 -0.0894  0.1178 -0.0347
 2908DOPC   PO434116  32.847  20.250  15.057  0.1951  0.2354  0.1825
 2908DOPC   GL134117  32.738  20.193  14.649  0.0179  0.2037 -0.4195
 2908DOPC   GL234118  32.686  20.475  14.537 -0.2855 -0.1780  0.0885
 2908DOPC   C1A34119  32.704  20.150  14.196  0.0184 -0.1101  0.2773
 2908DOPC   D2A34120  32.833  20.255  13.788 -0.3607  0.1446  0.1133
 2908DOPC   C3A34121  32.695  20.019  13.432 -0.0802 -0.5688 -0.0237
 2908DOPC   C4A34122  32.685  19.736  13.060 -0.2581  0.0444  0.1342
 2908DOPC   C1B34123  33.095  20.401  14.310 -0.1294 -0.2152  0.0603
 2908DOPC   D2B34124  33.393  20.214  13.959  0.0888  0.2081 -0.1121
 2908DOPC   C3B34125  33.396  20.003  13.550 -0.0651  0.2288  0.0338
 2908DOPC   C4B34126  33.146  20.068  13.152  0.1426 -0.0348  0.1211
 2909DOPS   CNO34127  31.084  17.404  14.481  0.0151  0.0900  0.1275
 2909DOPS   PO434128  30.700  17.514  14.401 -0.1120 -0.1386 -0.1871
 2909DOPS   GL134129  30.668  17.353  13.944  0.1035 -0.0015 -0.3692
 2909DOPS   GL234130  30.842  17.088  13.892  0.0422  0.1195  0.4112
 2909DOPS   C1A34131  30.748  17.430  13.528 -0.3948  0.2434  0.0407
 2909DOPS   D2A34132  30.547  17.593  13.112  0.0339  0.0558  0.1352
 2909DOPS   C3A34133  30.082  17.753  13.197  0.1555  0.2203 -0.0197
 2909DOPS   C4A34134  29.743  17.613  13.393  0.1539 -0.1447  0.0166
 2909DOPS   C1B34135  30.879  16.932  13.442  0.5477 -0.1357  0.0194
 2909DOPS   D2B34136  30.984  16.967  13.009  0.2022  0.1839 -0.1968
 2909DOPS   C3B34137  30.665  16.871  12.661 -0.0211  0.1849  0.2379
 2909DOPS   C4B34138  30.386  16.955  12.276  0.0360  0.2919  0.1362
 2910DOPC   NC334139  33.231  18.275  14.949 -0.1986  0.1139  0.3230
 2910DOPC   PO434140  32.832  18.213  14.850  0.0541 -0.0616 -0.0305
 2910DOPC   GL134141  32.760  18.350  14.478  0.2665 -0.0962  0.0117
 2910DOPC   GL234142  32.695  18.168  14.338  0.1412  0.1237  0.0662
 2910DOPC   C1A34143  32.413  18.546  14.171 -0.1470 -0.1422 -0.0204
 2910DOPC   D2A34144  32.105  18.550  13.810  0.0379  0.1897  0.1218
 2910DOPC   C3A34145  31.996  18.196  13.541  0.0454  0.1338  0.1569
 2910DOPC   C4A34146  32.095  17.823  13.497  0.4550  0.4122 -0.0045
 2910DOPC   C1B34147  32.745  18.075  13.950  0.2663  0.0791 -0.1127
 2910DOPC   D2B34148  32.860  17.967  13.463 -0.1330  0.0166 -0.2601
 2910DOPC   C3B34149  33.262  17.809  13.166 -0.0102  0.0014 -0.0571
 2910DOPC   C4B34150  33.750  17.780  13.203  0.0020 -0.0103  0.2550
 2911DOPS   CNO34151  31.055  20.008  15.107 -0.1323  0.1308 -0.0012
 2911DOPS   PO434152  31.238  19.904  14.762  0.2007  0.0524 -0.0412
 2911DOPS   GL134153  31.196  19.639  14.401  0.0593 -0.2547  0.0471
 2911DOPS   GL234154  30.866  19.695  14.462  0.2506 -0.1324 -0.1750
 2911DOPS   C1A34155  31.141  19.695  13.939  0.1458 -0.1255  0.0957
 2911DOPS   D2A34156  31.171  19.824  13.481  0.3199  0.1435  0.0575
 2911DOPS   C3A34157  31.432  20.185  13.400  0.2042  0.2697 -0.1177
 2911DOPS   C4A34158  31.206  20.578  13.242 -0.1206  0.0099 -0.0849
 2911DOPS   C1B34159  30.626  19.928  14.181 -0.1172  0.2852  0.0752
 2911DOPS   D2B34160  30.246  19.929  13.997 -0.1404  0.2392  0.0098
 2911DOPS   C3B34161  30.224  20.091  13.544 -0.2051 -0.2891  0.0324
 2911DOPS   C4B34162  30.456  20.302  13.116  0.0756  0.0728 -0.1450
 2912POSM   NC334163   2.830  11.112  14.655 -0.0775  0.1753 -0.5623
 2912POSM   PO434164   2.893  11.251  14.312 -0.0546 -0.0836 -0.0077
 2912POSM   AM134165   2.826  11.402  14.028 -0.2364 -0.4054 -0.0638
 2912POSM   AM234166   2.633  11.366  13.788 -0.3412  0.1173  0.0274
 2912POSM   T1A34167   3.061  11.726  13.710 -0.0178 -0.3296  0.1411
 2912POSM   C2A34168   2.967  12.081  13.489  0.3179  0.1275  0.2859
 2912POSM   C3A34169   3.105  12.345  13.174  0.1746  0.0048  0.0480
 2912POSM   C1B34170   2.730  11.512  13.491 -0.4658 -0.2088  0.1225
 2912POSM   D2B34171   2.580  11.724  13.151 -0.1844  0.0692  0.0875
 2912POSM   C3B34172   2.450  12.180  13.185  0.0813 -0.1403 -0.3012
 2912POSM   C4B34173   2.417  12.424  12.774 -0.1584  0.1305  0.1846
 2913DOPS   CNO34174  27.753  15.894  13.722  0.0195  0.1655  0.0943
 2913DOPS   PO434175  27.907  15.568  13.842  0.4550 -0.2671 -0.2016
 2913DOPS   GL134176  28.096  15.750  13.548 -0.1589 -0.1987 -0.0245
 2913DOPS   GL234177  28.100  16.024  13.393 -0.1236  0.1597  0.2153
 2913DOPS   C1A34178  28.534  15.735  13.303  0.1050  0.1155 -0.1007
 2913DOPS   D2A34179  28.899  15.474  13.080  0.0073  0.1939  0.0129
 2913DOPS   C3A34180  29.046  15.577  12.668  0.0730  0.1303  0.0521
 2913DOPS   C4A34181  28.905  15.849  12.299 -0.1064 -0.3740  0.0348
 2913DOPS   C1B34182  28.126  15.749  13.038 -0.0734 -0.0800  0.2193
 2913DOPS   D2B34183  28.026  15.637  12.590 -0.1299  0.0024  0.3451
 2913DOPS   C3B34184  27.777  15.694  12.160 -0.1601 -0.1410  0.2960
 2913DOPS   C4B34185  27.764  15.774  11.718 -0.1024  0.1390 -0.0846
 2914DOPS   CNO34186  28.961  13.229  14.198  0.0414  0.2845 -0.3357
 2914DOPS   PO434187  29.095  13.033  13.910  0.1446 -0.0232 -0.2231
 2914DOPS   GL134188  28.992  12.777  13.590 -0.3773 -0.1275 -0.0030
 2914DOPS   GL234189  28.895  12.889  13.390 -0.1370 -0.0797 -0.1807
 2914DOPS   C1A34190  29.272  12.437  13.477  0.2570  0.1535 -0.1205
 2914DOPS   D2A34191  29.713  12.411  13.245 -0.2223  0.2226  0.0602
 2914DOPS   C3A34192  29.549  12.401  12.786 -0.4722 -0.1227 -0.0615
 2914DOPS   C4A34193  29.225  12.451  12.464  0.0927 -0.2127  0.1996
 2914DOPS   C1B34194  28.897  13.300  13.229 -0.2206  0.0782 -0.3828
 2914DOPS   D2B34195  29.089  13.705  13.369 -0.0243  0.1977 -0.0878
 2914DOPS   C3B34196  29.376  13.895  13.078 -0.2692  0.0469  0.0666
 2914DOPS   C4B34197  29.559  13.841  12.609 -0.0756 -0.0756  0.2089
 2915DOPE   NH334198  26.796  18.373  14.783 -0.0323  0.0881  0.0322
 2915DOPE   PO434199  26.535  18.567  14.688  0.0919 -0.2330  0.1438
 2915DOPE   GL134200  26.765  18.805  14.398  0.1901  0.0372  0.2263
 2915DOPE   GL234201  26.835  18.641  14.193 -0.2926  0.3741  0.0292
 2915DOPE   C1A34202  26.702  19.071  14.043  0.0693 -0.0964  0.0583
 2915DOPE   D2A34203  26.870  19.419  13.722  0.0027  0.2128 -0.1272
 2915DOPE   C3A34204  26.612  19.320  13.362 -0.0956  0.2829  0.0760
 2915DOPE   C4A34205  26.179  19.201  13.215 -0.1403  0.1587  0.3069
 2915DOPE   C1B34206  26.522  18.422  13.930 -0.0087  0.1415  0.0443
 2915DOPE   D2B34207  26.375  18.406  13.504 -0.3189  0.0707 -0.0368
 2915DOPE   C3B34208  26.197  18.020  13.397 -0.5534  0.4644  0.2275
 2915DOPE   C4B34209  26.058  18.003  12.921 -0.0602 -0.1105 -0.0792
 2916DOPE   NH334210   1.544  13.733  14.976  0.3320 -0.2906 -0.2515
 2916DOPE   PO434211   1.629  13.934  14.750 -0.1756  0.4471 -0.1073
 2916DOPE   GL134212   1.585  13.728  14.521 -0.6130 -0.4504 -0.1806
 2916DOPE   GL234213   1.431  13.520  14.514  0.1757 -0.0289  0.1661
 2916DOPE   C1A34214   1.634  13.826  14.070  0.1835 -0.0793 -0.3649
 2916DOPE   D2A34215   1.286  13.839  13.726  0.2238  0.3081  0.0543
 2916DOPE   C3A34216   1.252  13.534  13.426  0.0020  0.4042  0.2504
 2916DOPE   C4A34217   1.210  13.360  13.008  0.0838  0.1936  0.1661
 2916DOPE   C1B34218   1.005  13.274  14.433 -0.0270 -0.1058 -0.2410
 2916DOPE   D2B34219   0.820  12.859  14.342  0.3958 -0.0324 -0.0491
 2916DOPE   C3B34220   0.808  12.962  13.910  0.1205  0.2559 -0.0064
 2916DOPE   C4B34221   1.039  13.020  13.500  0.1450  0.1527  0.0240
 2917DOPE   NH334222  31.257  22.536  14.781  0.3512 -0.2316 -0.3360
 2917DOPE   PO434223  31.128  22.239  14.896  0.1795 -0.0731 -0.3231
 2917DOPE   GL134224  30.949  22.167  14.578 -0.0392  0.0956  0.3115
 2917DOPE   GL234225  30.624  22.191  14.578 -0.2643 -0.0574  0.2201
 2917DOPE   C1A34226  31.149  22.224  14.179  0.0244 -0.2006 -0.0226
 2917DOPE   D2A34227  31.398  21.961  13.903  0.1622 -0.1613  0.3127
 2917DOPE   C3A34228  31.659  21.683  13.704  0.1138  0.0988 -0.0636
 2917DOPE   C4A34229  31.592  21.197  13.644 -0.1375 -0.2728 -0.0680
 2917DOPE   C1B34230  30.739  22.476  14.266 -0.2725  0.0986 -0.1083
 2917DOPE   D2B34231  30.656  22.736  13.934 -0.0502  0.0868  0.0521
 2917DOPE   C3B34232  30.539  22.642  13.462 -0.0357 -0.1206 -0.1028
 2917DOPE   C4B34233  30.112  22.510  13.317 -0.1093  0.0314 -0.0128
 2918DOPC   NC334234  29.532  17.999  14.754  0.0606 -0.0167 -0.2270
 2918DOPC   PO434235  29.296  17.797  14.498  0.0270  0.0543 -0.2079
 2918DOPC   GL134236  29.443  17.666  14.140 -0.0494  0.1113 -0.3805
 2918DOPC   GL234237  29.198  17.422  14.098 -0.1924  0.0140  0.0326
 2918DOPC   C1A34238  29.808  17.616  13.880 -0.0051  0.2625 -0.1951
 2918DOPC   D2A34239  30.200  17.514  13.657 -0.1513 -0.0611  0.3388
 2918DOPC   C3A34240  30.011  17.211  13.353  0.3456  0.2749  0.0704
 2918DOPC   C4A34241  30.074  16.816  13.139 -0.1026 -0.2319 -0.1849
 2918DOPC   C1B34242  29.335  17.549  13.687  0.2085 -0.2173  0.3900
 2918DOPC   D2B34243  29.312  17.418  13.211  0.1989  0.0621  0.2562
 2918DOPC   C3B34244  29.205  17.541  12.744  0.2513 -0.0252  0.3222
 2918DOPC   C4B34245  28.959  17.718  12.398  0.0707  0.0637  0.0366
 2919DOPC   NC334246  34.007  14.413  14.408  0.1458  0.0842  0.1111
 2919DOPC   PO434247  33.894  14.773  14.408 -0.2423  0.2365 -0.4186
 2919DOPC   GL134248  33.784  15.052  14.102  0.2866 -0.0675  0.2055
 2919DOPC   GL234249  34.002  15.266  14.063  0.0077  0.0184 -0.1792
 2919DOPC   C1A34250  33.956  14.947  13.647  0.3012  0.1188 -0.0068
 2919DOPC   D2A34251  34.198  15.149  13.363 -0.1335 -0.0973  0.0724
 2919DOPC   C3A34252  34.220  15.599  13.303  0.2571  0.0777 -0.0831
 2919DOPC   C4A34253  33.988  15.858  13.016 -0.0004 -0.2252 -0.1344
 2919DOPC   C1B34254  33.651  15.533  13.973  0.1247  0.0721 -0.2297
 2919DOPC   D2B34255  33.278  15.831  13.901 -0.4051  0.0503  0.0801
 2919DOPC   C3B34256  33.366  16.305  13.820  0.2884 -0.4299  0.2025
 2919DOPC   C4B34257  33.434  16.752  13.957  0.2454 -0.0827 -0.1007
 2920POSM   NC334258  29.746  17.946  14.322  0.2270 -0.0682 -0.0579
 2920POSM   PO434259  30.047  17.984  14.560  0.0296 -0.1066 -0.1679
 2920POSM   AM134260  30.108  18.168  14.259 -0.2188 -0.3158 -0.0329
 2920POSM   AM234261  30.096  18.108  13.999  0.1411 -0.2247  0.3065
 2920POSM   T1A34262  30.143  18.566  13.967 -0.1277  0.2240 -0.1631
 2920POSM   C2A34263  30.378  18.697  13.585 -0.0144 -0.4203  0.0458
 2920POSM   C3A34264  30.308  18.972  13.185 -0.3915  0.3042 -0.0347
 2920POSM   C1B34265  30.008  18.093  13.668 -0.2299  0.0426  0.0728
 2920POSM   D2B34266  30.106  18.325  13.332  0.0209 -0.1964 -0.0285
 2920POSM   C3B34267  29.952  18.253  12.876 -0.1198  0.2280 -0.2277
 2920POSM   C4B34268  30.116  17.897  12.681  0.0366 -0.0105  0.0420
 2921POSM   NC334269  26.924  21.719  15.023 -0.0459  0.0944 -0.2726
 2921POSM   PO434270  26.561  21.585  15.039  0.1491 -0.1002  0.1457
 2921POSM   AM134271  26.571  21.632  14.727 -0.1632  0.3020 -0.3914
 2921POSM   AM234272  26.665  21.417  14.559  0.0711  0.2473  0.0706
 2921POSM   T1A34273  26.491  21.764  14.247 -0.0548  0.2282 -0.1345
 2921POSM   C2A34274  26.227  21.823  13.838 -0.0902  0.2625 -0.0612
 2921POSM   C3A34275  26.000  21.995  13.536 -0.1903  0.3054 -0.1391
 2921POSM   C1B34276  26.826  21.399  14.251  0.0600 -0.0909 -0.1889
 2921POSM   D2B34277  26.898  21.558  13.805  0.0743  0.0054 -0.1289
 2921POSM   C3B34278  26.941  21.234  13.515 -0.0995  0.2580 -0.1019
 2921POSM   C4B34279  27.373  21.054  13.371 -0.0313  0.1857  0.1186
 2922DOPE   NH334280  28.250  15.941  13.941  0.1754  0.1620 -0.1019
 2922DOPE   PO434281  28.564  15.860  13.980  0.2302  0.5465 -0.2452
 2922DOPE   GL134282  28.796  16.146  13.763  0.4714 -0.4183 -0.0151
 2922DOPE   GL234283  28.517  16.178  13.548 -0.1123  0.2132  0.1590
 2922DOPE   C1A34284  28.922  16.037  13.287  0.3786 -0.2510  0.2102
 2922DOPE   D2A34285  28.896  16.042  12.793  0.1542  0.0603  0.0592
 2922DOPE   C3A34286  29.206  16.297  12.476  0.1619 -0.1707  0.0154
 2922DOPE   C4A34287  29.518  16.546  12.231 -0.0995 -0.1076  0.1086
 2922DOPE   C1B34288  28.464  16.176  13.120 -0.1545 -0.1910 -0.0030
 2922DOPE   D2B34289  28.462  15.962  12.669  0.0311  0.0700  0.0243
 2922DOPE   C3B34290  28.667  16.236  12.337 -0.0511 -0.1800 -0.0846
 2922DOPE   C4B34291  28.603  16.203  11.856 -0.0325 -0.1501  0.0661
 2923DOPE   NH334292  27.206  15.073  13.591  0.3281 -0.2557  0.0246
 2923DOPE   PO434293  27.027  15.244  13.325 -0.1634  0.0056 -0.3701
 2923DOPE   GL134294  26.956  15.249  12.908 -0.0943 -0.0625  0.2633
 2923DOPE   GL234295  26.846  15.536  12.940 -0.0985 -0.2336 -0.1212
 2923DOPE   C1A34296  26.872  15.198  12.440 -0.0225 -0.4705 -0.1035
 2923DOPE   D2A34297  26.784  15.057  11.944 -0.2180  0.2263 -0.0105
 2923DOPE   C3A34298  26.733  15.025  11.460 -0.0919 -0.0138 -0.3098
 2923DOPE   C4A34299  26.827  14.867  11.056 -0.2132 -0.0870  0.1340
 2923DOPE   C1B34300  27.031  15.721  12.582 -0.0297 -0.0353  0.1472
 2923DOPE   D2B34301  27.051  16.008  12.278 -0.0426  0.0681 -0.2003
 2923DOPE   C3B34302  27.351  15.867  12.032  0.1596  0.4112  0.1029
 2923DOPE   C4B34303  27.301  15.594  11.686 -0.1437 -0.0247  0.0501
 2924DOPE   NH334304  30.068  24.350  15.287  0.2478 -0.2395 -0.0873
 2924DOPE   PO434305  29.883  24.117  15.357  0.1658 -0.2950 -0.0407
 2924DOPE   GL134306  29.670  24.048  15.004  0.2413 -0.1042 -0.0432
 2924DOPE   GL234307  29.599  23.793  15.117 -0.2505 -0.1246 -0.0212
 2924DOPE   C1A34308  29.383  24.211  14.664  0.0231  0.2545 -0.0834
 2924DOPE   D2A34309  29.165  24.399  14.284 -0.2301  0.1128  0.1080
 2924DOPE   C3A34310  29.338  24.464  13.843  0.2423  0.0311  0.1704
 2924DOPE   C4A34311  29.070  24.667  13.532 -0.0665 -0.1049  0.0407
 2924DOPE   C1B34312  29.199  23.901  14.941 -0.2998  0.2849  0.0752
 2924DOPE   D2B34313  28.899  23.805  14.635  0.2566  0.0668  0.0541
 2924DOPE   C3B34314  28.896  23.342  14.608  0.4333  0.1034 -0.1107
 2924DOPE   C4B34315  28.660  22.994  14.636 -0.1078 -0.1130 -0.0099
 2925DOPC   NC334316  29.408  13.503  13.828  0.0813 -0.1225  0.1065
 2925DOPC   PO434317  29.719  13.474  14.103 -0.3267  0.0586  0.1552
 2925DOPC   GL134318  29.991  13.673  13.817 -0.0986 -0.1697  0.1055
 2925DOPC   GL234319  30.287  13.842  13.820  0.1366  0.0394  0.0051
 2925DOPC   C1A34320  30.081  13.886  13.358 -0.0102 -0.0006  0.0191
 2925DOPC   D2A34321  30.016  13.807  12.870  0.1938 -0.1835 -0.1694
 2925DOPC   C3A34322  30.232  13.917  12.480  0.2418 -0.1356 -0.0688
 2925DOPC   C4A34323  30.428  13.998  12.059  0.0068  0.0066  0.0523
 2925DOPC   C1B34324  30.560  14.033  13.457 -0.1413  0.2673  0.4529
 2925DOPC   D2B34325  30.554  14.088  12.983  0.0590 -0.1422 -0.2417
 2925DOPC   C3B34326  30.998  14.095  13.002 -0.1105  0.2228 -0.0577
 2925DOPC   C4B34327  31.455  14.038  12.916  0.0453 -0.0168  0.1542
 2926DOPC   NC334328  25.765  17.005  13.702 -0.2426  0.3149  0.1495
 2926DOPC   PO434329  25.452  17.152  13.803  0.0934 -0.0551 -0.0735
 2926DOPC   GL134330  25.372  17.331  13.486 -0.6378  0.0302 -0.2488
 2926DOPC   GL234331  25.513  17.171  13.285 -0.1756  0.1081 -0.0617
 2926DOPC   C1A34332  25.123  17.557  13.230  0.3865 -0.0767 -0.0894
 2926DOPC   D2A34333  25.117  17.712  12.790  0.1761 -0.3192 -0.2447
 2926DOPC   C3A34334  24.900  18.029  12.506 -0.3092 -0.1165  0.0674
 2926DOPC   C4A34335  24.923  18.339  12.189 -0.4852 -0.1357  0.0610
 2926DOPC   C1B34336  25.162  17.151  12.976  0.2191  0.0255  0.1983
 2926DOPC   D2B34337  24.701  17.017  13.028 -0.0624  0.1533 -0.1449
 2926DOPC   C3B34338  24.464  16.715  12.722 -0.2234  0.0137  0.1969
 2926DOPC   C4B34339  24.425  16.713  12.240 -0.0359  0.0117  0.1748
 2927POSM   NC334340  31.821  11.920  14.105  0.2132 -0.4217  0.4502
 2927POSM   PO434341  31.955  11.579  14.103 -0.1623  0.0564  0.1539
 2927POSM   AM134342  31.883  11.508  13.772 -0.0800 -0.1579 -0.2055
 2927POSM   AM234343  31.784  11.288  13.573 -0.0446  0.1512  0.0811
 2927POSM   T1A34344  31.794  11.632  13.268 -0.2933 -0.2149  0.0328
 2927POSM   C2A34345  31.819  11.403  12.934  0.0332  0.2822 -0.0414
 2927POSM   C3A34346  31.925  11.482  12.504  0.2839 -0.1229  0.0244
 2927POSM   C1B34347  31.871  11.104  13.328 -0.0931 -0.5001 -0.2921
 2927POSM   D2B34348  31.924  10.698  13.081  0.1511 -0.2612 -0.2777
 2927POSM   C3B34349  31.575  10.433  13.010 -0.4036  0.2698 -0.2953
 2927POSM   C4B34350  31.446  10.122  12.647 -0.0300 -0.2030  0.3762
 2928DOPC   NC334351  29.073  25.126  15.133  0.0071  0.0885  0.2211
 2928DOPC   PO434352  28.666  25.020  15.167 -0.0357  0.0345  0.1512
 2928DOPC   GL134353  28.760  24.891  14.812  0.2589  0.2260 -0.0964
 2928DOPC   GL234354  28.610  24.735  14.740  0.1436 -0.0008 -0.3214
 2928DOPC   C1A34355  28.969  24.959  14.403 -0.3751 -0.2340 -0.2930
 2928DOPC   D2A34356  29.180  24.906  13.979  0.0343  0.2596  0.1283
 2928DOPC   C3A34357  29.137  25.168  13.644 -0.1053 -0.3211  0.0911
 2928DOPC   C4A34358  29.364  25.288  13.300  0.2113  0.0867  0.0249
 2928DOPC   C1B34359  28.386  24.903  14.394 -0.0524 -0.1507 -0.0836
 2928DOPC   D2B34360  28.588  24.936  13.987  0.3200  0.4249  0.1767
 2928DOPC   C3B34361  28.282  24.720  13.701 -0.1653  0.0910 -0.0008
 2928DOPC   C4B34362  28.209  24.475  13.296  0.0260  0.0652  0.3543
 2929DOPE   NH334363  30.995  13.468  14.340 -0.2130 -0.1468 -0.0995
 2929DOPE   PO434364  31.261  13.632  14.264  0.0257 -0.1672 -0.0903
 2929DOPE   GL134365  31.337  13.840  14.048  0.1248  0.2254  0.4264
 2929DOPE   GL234366  31.608  14.074  14.132  0.2225 -0.3208 -0.0696
 2929DOPE   C1A34367  31.553  13.746  13.653  0.0103  0.1670 -0.0766
 2929DOPE   D2A34368  31.509  13.678  13.219 -0.2478 -0.0189  0.0580
 2929DOPE   C3A34369  31.877  13.624  12.867  0.1879 -0.1411  0.1179
 2929DOPE   C4A34370  32.357  13.607  12.761  0.0554 -0.2734 -0.0303
 2929DOPE   C1B34371  31.847  14.123  13.714 -0.3510  0.0584 -0.2130
 2929DOPE   D2B34372  31.783  14.145  13.256  0.1050  0.1571  0.0209
 2929DOPE   C3B34373  31.871  14.269  12.817  0.3689 -0.0637 -0.1213
 2929DOPE   C4B34374  31.629  14.567  12.529 -0.1133 -0.0056  0.2330
 2930DOPC   NC334375  27.605  19.993  14.786 -0.1072  0.1966  0.1556
 2930DOPC   PO434376  27.358  19.805  14.480 -0.0621 -0.0646 -0.2077
 2930DOPC   GL134377  27.350  20.005  14.158  0.2017  0.1783 -0.1678
 2930DOPC   GL234378  27.401  20.285  14.339 -0.0476 -0.0384 -0.1967
 2930DOPC   C1A34379  27.266  19.866  13.768 -0.0401 -0.1640 -0.1128
 2930DOPC   D2A34380  27.086  19.791  13.310  0.4117  0.0366 -0.3148
 2930DOPC   C3A34381  26.940  19.541  12.971  0.1943  0.0985  0.0666
 2930DOPC   C4A34382  26.527  19.354  12.869 -0.0903  0.1131  0.0841
 2930DOPC   C1B34383  27.224  20.407  13.938 -0.0518 -0.1930  0.2506
 2930DOPC   D2B34384  27.091  20.734  13.597  0.2892  0.0204  0.2799
 2930DOPC   C3B34385  27.298  20.632  13.170 -0.1367 -0.0001 -0.3645
 2930DOPC   C4B34386  27.264  20.482  12.757  0.0078  0.0196  0.3241
 2931DOPE   NH334387  26.023  20.424  14.198  0.2615  0.4973 -0.0330
 2931DOPE   PO434388  25.827  20.168  14.380 -0.0182 -0.0567  0.0120
 2931DOPE   GL134389  25.607  20.200  14.010 -0.0471  0.0255  0.2992
 2931DOPE   GL234390  25.835  20.060  13.825 -0.1153 -0.1433 -0.2210
 2931DOPE   C1A34391  25.704  20.632  13.850 -0.2149  0.1394  0.2080
 2931DOPE   D2A34392  25.789  20.795  13.422  0.0034  0.1278  0.2172
 2931DOPE   C3A34393  25.367  20.841  13.218 -0.3184 -0.1180 -0.1096
 2931DOPE   C4A34394  25.191  20.483  12.985 -0.0317  0.3920 -0.0730
 2931DOPE   C1B34395  25.778  20.169  13.395 -0.2000  0.1693  0.0742
 2931DOPE   D2B34396  25.678  20.399  13.002 -0.0319 -0.1181  0.1332
 2931DOPE   C3B34397  25.614  20.278  12.604  0.0083 -0.3749  0.1187
 2931DOPE   C4B34398  25.676  19.896  12.453 -0.4702 -0.1267 -0.2291
 2932DOPE   NH334399  34.464  12.836  14.696  0.0359  0.1310 -0.3188
 2932DOPE   PO434400  34.601  12.609  14.898 -0.0280  0.0290  0.2458
 2932DOPE   GL134401  34.548  12.450  14.479 -0.1656 -0.1296  0.2204
 2932DOPE   GL234402  34.588  12.701  14.233 -0.2870 -0.2922  0.0910
 2932DOPE   C1A34403  34.727  12.199  14.125  0.1232 -0.0699 -0.0711
 2932DOPE   D2A34404  34.680  12.157  13.695 -0.1800 -0.3431 -0.0572
 2932DOPE   C3A34405  34.797  12.478  13.364  0.2907  0.3313  0.4382
 2932DOPE   C4A34406  34.659  12.878  13.280  0.0726 -0.0623  0.0625
 2932DOPE   C1B34407  34.427  12.716  13.768 -0.1579 -0.2605  0.1045
 2932DOPE   D2B34408  34.179  12.749  13.338 -0.1704  0.2252 -0.3522
 2932DOPE   C3B34409  34.225  13.042  12.905 -0.1860 -0.0380 -0.1591
 2932DOPE   C4B34410  34.378  13.311  12.542 -0.4029  0.2809 -0.2263
 2933DOPC   NC334411  31.507  14.702  14.697  0.0516  0.1168 -0.0967
 2933DOPC   PO434412  31.122  14.736  14.559 -0.2426  0.1180  0.0144
 2933DOPC   GL134413  30.834  14.697  14.192  0.1043  0.2157 -0.0858
 2933DOPC   GL234414  31.109  14.843  13.979 -0.1743  0.0120 -0.1210
 2933DOPC   C1A34415  30.801  14.524  13.741 -0.2074 -0.1848  0.0222
 2933DOPC   D2A34416  30.809  14.458  13.278 -0.0037 -0.1428 -0.1734
 2933DOPC   C3A34417  30.681  14.527  12.868  0.0554 -0.0585 -0.0124
 2933DOPC   C4A34418  30.559  14.573  12.394  0.1429 -0.1262 -0.1238
 2933DOPC   C1B34419  31.207  14.754  13.532 -0.0089  0.1076  0.2226
 2933DOPC   D2B34420  31.048  14.869  13.094  0.0691  0.0041 -0.0877
 2933DOPC   C3B34421  31.004  14.778  12.596  0.0350  0.0464 -0.1856
 2933DOPC   C4B34422  31.324  14.796  12.227 -0.0711 -0.0523  0.1271
 2934DOPC   NC334423  29.435  14.533  13.802 -0.3549 -0.5480 -0.2068
 2934DOPC   PO434424  29.036  14.614  13.841 -0.1023 -0.3398  0.2768
 2934DOPC   GL134425  28.842  14.591  13.465 -0.5349  0.1650  0.5089
 2934DOPC   GL234426  29.057  14.334  13.422  0.1855  0.1678 -0.0666
 2934DOPC   C1A34427  28.654  14.621  13.019  0.1582 -0.0850 -0.2209
 2934DOPC   D2A34428  28.301  14.721  12.675  0.0132 -0.2086  0.0782
 2934DOPC   C3A34429  28.328  15.109  12.468 -0.2100 -0.3901 -0.3908
 2934DOPC   C4A34430  28.494  15.157  12.061  0.0814  0.0776 -0.0930
 2934DOPC   C1B34431  28.958  14.250  12.960 -0.1164 -0.0969 -0.0825
 2934DOPC   D2B34432  29.129  14.030  12.572  0.1173  0.4574  0.2853
 2934DOPC   C3B34433  28.682  13.984  12.374 -0.0929  0.0011 -0.1486
 2934DOPC   C4B34434  28.571  14.088  11.947 -0.2669  0.0445  0.0886
 2935DOPC   NC334435   0.395  20.711  14.273 -0.1930 -0.2587 -0.1356
 2935DOPC   PO434436   0.133  20.677  14.519 -0.3143  0.3452  0.1488
 2935DOPC   GL134437  -0.028  20.782  14.082 -0.2937 -0.1477  0.1288
 2935DOPC   GL234438  -0.113  20.503  14.014 -0.1390 -0.1727  0.1447
 2935DOPC   C1A34439  -0.409  20.950  13.893  0.1833 -0.1160 -0.1403
 2935DOPC   D2A34440  -0.698  20.864  13.527  0.1087  0.2767 -0.1316
 2935DOPC   C3A34441  -1.159  20.798  13.576  0.0136  0.3272  0.0786
 2935DOPC   C4A34442  -1.391  20.500  13.347  0.1835  0.2350  0.0650
 2935DOPC   C1B34443   0.009  20.688  13.608  0.1045 -0.1899  0.3625
 2935DOPC   D2B34444  -0.216  21.004  13.305  0.0197 -0.1493 -0.0073
 2935DOPC   C3B34445  -0.178  21.162  12.908  0.1308 -0.0754 -0.1529
 2935DOPC   C4B34446  -0.478  21.140  12.531 -0.0855  0.0399 -0.0902
 2936DOPC   NC334447  27.726  13.720  13.533 -0.0515  0.1692 -0.0253
 2936DOPC   PO434448  27.613  14.121  13.591 -0.0636 -0.0890  0.0085
 2936DOPC   GL134449  27.400  14.264  13.210 -0.5685 -0.1711  0.3096
 2936DOPC   GL234450  27.100  14.298  13.235 -0.1876  0.1422 -0.1309
 2936DOPC   C1A34451  27.585  14.359  12.822  0.1244 -0.2054 -0.0575
 2936DOPC   D2A34452  27.921  14.350  12.482 -0.1026  0.2271  0.0384
 2936DOPC   C3A34453  27.982  14.785  12.213  0.1500 -0.1222  0.0246
 2936DOPC   C4A34454  27.825  15.176  12.365 -0.0370  0.3362  0.0581
 2936DOPC   C1B34455  26.991  14.276  12.753 -0.3649 -0.1844  0.2139
 2936DOPC   D2B34456  26.959  13.962  12.421  0.0441  0.0339 -0.3799
 2936DOPC   C3B34457  26.574  13.829  12.222 -0.0896  0.0108 -0.3489
 2936DOPC   C4B34458  26.199  14.077  12.079  0.1157 -0.0695  0.0012
 2937DOPC   NC334459  30.959  16.119  14.685 -0.1543  0.1799 -0.0104
 2937DOPC   PO434460  30.994  15.720  14.547  0.0256  0.0347 -0.1995
 2937DOPC   GL134461  31.191  15.568  14.239  0.2487 -0.1898 -0.0598
 2937DOPC   GL234462  31.318  15.794  14.065 -0.0662 -0.4684  0.2702
 2937DOPC   C1A34463  31.132  15.330  13.832 -0.7228  0.0065 -0.1068
 2937DOPC   D2A34464  31.150  15.396  13.367  0.1612  0.0535  0.4127
 2937DOPC   C3A34465  31.179  15.327  12.903 -0.1505  0.0971  0.0657
 2937DOPC   C4A34466  31.391  15.345  12.485  0.0827 -0.0080 -0.3569
 2937DOPC   C1B34467  31.092  15.890  13.600  0.2882  0.0084  0.1660
 2937DOPC   D2B34468  30.700  15.670  13.441  0.1033 -0.0952  0.2707
 2937DOPC   C3B34469  30.687  15.385  13.030 -0.0645 -0.1671 -0.3271
 2937DOPC   C4B34470  30.612  15.098  12.668 -0.0040 -0.1039  0.1057
 2938DOPE   NH334471  34.355  16.643  14.870  0.2778 -0.0074 -0.2978
 2938DOPE   PO434472  34.527  16.731  14.599  0.0884  0.1014  0.0699
 2938DOPE   GL134473  34.465  16.656  14.234  0.2291 -0.2548 -0.2058
 2938DOPE   GL234474  34.542  16.395  14.158  0.1259 -0.0789 -0.2521
 2938DOPE   C1A34475  34.347  16.971  13.984  0.1229  0.3705 -0.1093
 2938DOPE   D2A34476  34.323  17.174  13.527  0.0011 -0.1221  0.0549
 2938DOPE   C3A34477  33.895  17.357  13.476  0.2338  0.0635 -0.2684
 2938DOPE   C4A34478  33.539  17.318  13.270  0.0076  0.0179 -0.2397
 2938DOPE   C1B34479  34.291  16.466  13.838 -0.1753  0.5190 -0.1289
 2938DOPE   D2B34480  34.195  16.702  13.455 -0.0027 -0.1948 -0.1795
 2938DOPE   C3B34481  34.263  16.560  13.009 -0.0961  0.2756 -0.0374
 2938DOPE   C4B34482  34.038  16.324  12.707  0.2306  0.0804 -0.2591
 2939DOPE   NH334483  32.386  19.206  14.937  0.1774  0.0410  0.1248
 2939DOPE   PO434484  32.494  19.481  14.972  0.2908  0.0303  0.3518
 2939DOPE   GL134485  32.368  19.599  14.616 -0.1256 -0.2280 -0.1695
 2939DOPE   GL234486  32.359  19.919  14.632  0.1714  0.1246 -0.0390
 2939DOPE   C1A34487  32.556  19.706  14.206 -0.1276  0.0125 -0.1353
 2939DOPE   D2A34488  32.611  19.618  13.758 -0.1659 -0.1206  0.1188
 2939DOPE   C3A34489  32.829  19.310  13.534  0.0207 -0.1853 -0.1064
 2939DOPE   C4A34490  33.005  18.927  13.519 -0.0379  0.4512  0.2653
 2939DOPE   C1B34491  32.149  20.066  14.231  0.3280 -0.4540 -0.1097
 2939DOPE   D2B34492  32.223  20.046  13.831  0.0277 -0.1363  0.1450
 2939DOPE   C3B34493  31.924  20.125  13.480  0.1750 -0.0255  0.2774
 2939DOPE   C4B34494  31.833  20.296  13.075  0.2440  0.2250 -0.2044
 2940POSM   NC334495  29.525  19.667  14.935  0.0997  0.0204 -0.0987
 2940POSM   PO434496  29.429  19.344  14.750 -0.2958 -0.1057 -0.1223
 2940POSM   AM134497  29.508  19.169  14.473  0.1145  0.4643  0.2074
 2940POSM   AM234498  29.530  18.851  14.394 -0.1646  0.3735  0.1634
 2940POSM   T1A34499  29.590  19.326  14.014 -0.1951 -0.0210 -0.0152
 2940POSM   C2A34500  29.460  19.486  13.625  0.2853  0.0970 -0.1350
 2940POSM   C3A34501  29.586  19.543  13.177 -0.0021 -0.1140  0.3257
 2940POSM   C1B34502  29.820  18.922  14.182  0.1112 -0.0581 -0.1041
 2940POSM   D2B34503  30.205  19.036  14.021 -0.1426  0.0300  0.2521
 2940POSM   C3B34504  30.357  19.193  13.618  0.0827 -0.0054  0.1337
 2940POSM   C4B34505  30.515  19.423  13.229 -0.0863 -0.1211 -0.0260
 2941DOPC   NC334506  33.727  11.369  14.501  0.1110 -0.0929 -0.0095
 2941DOPC   PO434507  33.342  11.358  14.305  0.1161  0.2195 -0.0866
 2941DOPC   GL134508  33.667  11.493  14.029 -0.1073 -0.2924 -0.1184
 2941DOPC   GL234509  33.692  11.717  14.176  0.0440  0.2611 -0.0991
 2941DOPC   C1A34510  33.686  11.374  13.622  0.2216  0.2681  0.2738
 2941DOPC   D2A34511  33.430  11.587  13.312  0.0067  0.2116  0.0175
 2941DOPC   C3A34512  33.401  11.561  12.838 -0.0766 -0.1114 -0.0686
 2941DOPC   C4A34513  33.269  11.809  12.454  0.3761 -0.2075  0.0569
 2941DOPC   C1B34514  34.045  11.774  13.890 -0.2719  0.4230 -0.3456
 2941DOPC   D2B34515  34.149  11.624  13.467 -0.5427 -0.2315  0.1079
 2941DOPC   C3B34516  34.564  11.776  13.384 -0.1128  0.3553  0.0430
 2941DOPC   C4B34517  34.997  11.724  13.147 -0.0207 -0.3419  0.2062
 2942POSM   NC334518  30.481  13.422  14.035 -0.3784 -0.1496 -0.2544
 2942POSM   PO434519  30.599  13.088  14.208  0.0675 -0.1488 -0.2093
 2942POSM   AM134520  30.643  12.834  14.015  0.0083  0.0681  0.2107
 2942POSM   AM234521  30.772  12.771  13.801 -0.1596  0.1054  0.1364
 2942POSM   T1A34522  30.428  12.458  13.728  0.3675 -0.0967 -0.2946
 2942POSM   C2A34523  30.257  12.420  13.242  0.1012  0.0552  0.3289
 2942POSM   C3A34524  30.035  12.456  12.855  0.4131  0.4443  0.0832
 2942POSM   C1B34525  30.861  12.919  13.517  0.0848 -0.0970  0.1514
 2942POSM   D2B34526  30.756  13.152  13.121 -0.0329  0.1434 -0.0786
 2942POSM   C3B34527  30.436  13.191  12.814  0.2068 -0.1185  0.0471
 2942POSM   C4B34528  30.173  13.469  12.560  0.2119 -0.2384 -0.0121
 2943POSM   NC334529  26.692  23.121  15.320  0.0145 -0.1147 -0.1446
 2943POSM   PO434530  26.436  22.903  15.075 -0.0656 -0.1495 -0.0697
 2943POSM   AM134531  26.544  23.095  14.872  0.2156  0.1070  0.1060
 2943POSM   AM234532  26.497  23.188  14.590 -0.0579  0.0513  0.1514
 2943POSM   T1A34533  26.989  23.309  14.726  0.0593  0.2643 -0.3348
 2943POSM   C2A34534  27.375  23.401  14.519  0.2850  0.1418 -0.1872
 2943POSM   C3A34535  27.506  23.413  14.131  0.2262 -0.1683 -0.0875
 2943POSM   C1B34536  26.695  23.377  14.376 -0.1590  0.0639  0.1858
 2943POSM   D2B34537  26.755  23.543  13.950  0.0716  0.2341 -0.0351
 2943POSM   C3B34538  27.151  23.563  13.764  0.1815  0.0787  0.0387
 2943POSM   C4B34539  27.501  23.226  13.685 -0.1684  0.2123  0.3073
 2944DOPS   CNO34540  31.537  18.882  14.824 -0.3234 -0.0860 -0.1546
 2944DOPS   PO434541  31.340  18.526  14.782  0.1455  0.2741 -0.3139
 2944DOPS   GL134542  31.281  18.665  14.383  0.1685  0.2093  0.0386
 2944DOPS   GL234543  31.500  18.897  14.274 -0.0106 -0.2627 -0.0130
 2944DOPS   C1A34544  31.214  18.545  13.948 -0.2085 -0.1046  0.1440
 2944DOPS   D2A34545  31.100  18.277  13.587 -0.0929  0.4730  0.1889
 2944DOPS   C3A34546  30.787  18.498  13.463  0.1214 -0.1940  0.0284
 2944DOPS   C4A34547  30.606  18.596  13.119  0.0453  0.1827  0.1783
 2944DOPS   C1B34548  31.238  19.166  13.946  0.0011  0.0857 -0.1099
 2944DOPS   D2B34549  31.176  19.334  13.498 -0.0339 -0.3665  0.1985
 2944DOPS   C3B34550  31.467  19.343  13.136 -0.2048 -0.1266  0.1320
 2944DOPS   C4B34551  31.951  19.369  12.994  0.1064  0.0595  0.0558
 2945DOPC   NC334552  27.885  21.242  14.632  0.5842  0.1719 -0.1356
 2945DOPC   PO434553  27.742  21.518  14.850 -0.2294 -0.0805 -0.1786
 2945DOPC   GL134554  27.573  21.664  14.529  0.2318 -0.5351  0.2061
 2945DOPC   GL234555  27.858  21.620  14.318  0.1629  0.0434 -0.2524
 2945DOPC   C1A34556  27.549  22.080  14.294  0.0510  0.1200 -0.1429
 2945DOPC   D2A34557  27.728  22.519  14.191 -0.1748  0.3622  0.1306
 2945DOPC   C3A34558  27.434  22.879  14.063  0.0557  0.0123  0.1187
 2945DOPC   C4A34559  27.084  23.213  14.153  0.0227  0.0153  0.2137
 2945DOPC   C1B34560  27.836  21.393  13.947 -0.3229  0.0705  0.0372
 2945DOPC   D2B34561  27.854  21.069  13.639 -0.0070 -0.1230  0.0102
 2945DOPC   C3B34562  28.060  21.265  13.253  0.0628  0.0913 -0.1248
 2945DOPC   C4B34563  27.921  21.328  12.823 -0.1090  0.0218 -0.1476
 2946DOPE   NH334564  28.022  16.689  14.309 -0.0475  0.1317  0.2885
 2946DOPE   PO434565  28.206  16.870  14.136 -0.4085  0.0609 -0.0930
 2946DOPE   GL134566  28.155  16.959  13.664  0.2107  0.0495  0.3930
 2946DOPE   GL234567  27.925  17.189  13.503  0.3751 -0.0090  0.0022
 2946DOPE   C1A34568  28.507  17.204  13.533 -0.1128  0.1237 -0.0354
 2946DOPE   D2A34569  28.750  17.387  13.181 -0.2502 -0.0675 -0.1485
 2946DOPE   C3A34570  29.009  17.805  13.248 -0.2816 -0.1023  0.1775
 2946DOPE   C4A34571  29.174  18.035  12.864 -0.2791 -0.2242 -0.0346
 2946DOPE   C1B34572  28.068  17.544  13.239  0.0526 -0.1319  0.2121
 2946DOPE   D2B34573  27.876  17.948  13.388  0.1519  0.0420  0.0500
 2946DOPE   C3B34574  27.586  18.280  13.152  0.1743 -0.1441  0.1366
 2946DOPE   C4B34575  27.468  18.391  12.767  0.1863 -0.0720  0.2306
 2947DOPE   NH334576  32.106   8.405  14.204 -0.1862  0.3732  0.1883
 2947DOPE   PO434577  31.813   8.472  14.320  0.0137  0.1080  0.0821
 2947DOPE   GL134578  31.562   8.461  14.156 -0.0506 -0.0584 -0.1255
 2947DOPE   GL234579  31.359   8.266  13.976 -0.0708 -0.1535  0.1892
 2947DOPE   C1A34580  31.476   8.729  13.736 -0.3242  0.2439 -0.0980
 2947DOPE   D2A34581  31.380   8.753  13.323 -0.0408  0.0408  0.1535
 2947DOPE   C3A34582  31.226   8.410  13.008 -0.0235 -0.0611  0.1215
 2947DOPE   C4A34583  30.857   8.303  12.832 -0.0485  0.0846  0.0796
 2947DOPE   C1B34584  31.470   8.220  13.513 -0.3209  0.2154  0.0041
 2947DOPE   D2B34585  31.714   8.438  13.155 -0.1479  0.0289  0.0132
 2947DOPE   C3B34586  31.680   8.385  12.709 -0.1695  0.1139 -0.1234
 2947DOPE   C4B34587  31.718   8.048  12.439  0.0396  0.0929  0.0175
 2948DOPC   NC334588  31.141  16.855  14.259 -0.1708  0.0572  0.1483
 2948DOPC   PO434589  31.411  16.992  14.514  0.2693  0.0986 -0.2629
 2948DOPC   GL134590  31.642  16.852  14.229 -0.4605  0.1783 -0.0091
 2948DOPC   GL234591  31.521  17.086  13.962 -0.0890  0.0968 -0.4485
 2948DOPC   C1A34592  31.980  16.877  13.948 -0.0266 -0.0854  0.0296
 2948DOPC   D2A34593  32.326  16.644  13.775  0.0823  0.0087 -0.1013
 2948DOPC   C3A34594  32.575  16.792  13.390  0.0260 -0.0724 -0.0161
 2948DOPC   C4A34595  32.913  16.655  13.123  0.3765 -0.0117  0.1748
 2948DOPC   C1B34596  31.346  17.291  13.621 -0.2276  0.2554  0.1286
 2948DOPC   D2B34597  31.157  17.414  13.219  0.0138 -0.2961  0.1756
 2948DOPC   C3B34598  31.428  17.545  12.781 -0.0199  0.4593  0.0687
 2948DOPC   C4B34599  31.311  17.457  12.337  0.0068  0.1554  0.1896
 2949POSM   NC334600  30.692  22.207  15.138 -0.0537 -0.4272 -0.2958
 2949POSM   PO434601  30.306  22.353  15.053 -0.1761 -0.0330 -0.0308
 2949POSM   AM134602  30.302  22.528  14.750 -0.0652  0.3841  0.1900
 2949POSM   AM234603  30.191  22.475  14.488 -0.0007 -0.0680  0.0070
 2949POSM   T1A34604  30.389  22.881  14.386  0.2205  0.2176  0.1190
 2949POSM   C2A34605  30.214  23.089  13.979  0.0235 -0.2045 -0.1951
 2949POSM   C3A34606  30.129  23.268  13.568  0.2616 -0.0362 -0.0793
 2949POSM   C1B34607  30.253  22.336  14.178  0.1318 -0.1831  0.3018
 2949POSM   D2B34608  30.313  22.265  13.748  0.1566  0.1198 -0.1426
 2949POSM   C3B34609  30.428  21.810  13.550 -0.1904 -0.3237 -0.2414
 2949POSM   C4B34610  30.354  21.365  13.357 -0.2289 -0.0392  0.3254
 2950POSM   NC334611  27.760  21.969  14.789 -0.0588  0.2662  0.2056
 2950POSM   PO434612  27.344  21.920  14.858 -0.0383 -0.2347 -0.1524
 2950POSM   AM134613  27.200  21.906  14.583  0.1414  0.1248  0.2656
 2950POSM   AM234614  26.930  21.919  14.475  0.2568  0.0407 -0.2842
 2950POSM   T1A34615  27.291  21.606  14.160  0.1844 -0.0385 -0.0942
 2950POSM   C2A34616  27.395  21.432  13.764 -0.1202 -0.0658  0.2358
 2950POSM   C3A34617  27.697  21.545  13.463 -0.1754 -0.0492 -0.0201
 2950POSM   C1B34618  26.973  22.018  14.167 -0.3127  0.2317  0.2090
 2950POSM   D2B34619  27.186  21.960  13.747 -0.0913 -0.0925  0.1126
 2950POSM   C3B34620  26.994  21.748  13.372 -0.1984 -0.0513  0.1601
 2950POSM   C4B34621  26.779  21.859  12.945  0.1195 -0.2087 -0.0391
 2951DOPC   NC334622  30.003  21.112  15.347  0.0105  0.0722  0.0917
 2951DOPC   PO434623  29.814  21.469  15.295  0.0124 -0.1799 -0.3628
 2951DOPC   GL134624  29.834  21.435  14.869 -0.0555 -0.0337 -0.0006
 2951DOPC   GL234625  29.620  21.368  14.640  0.2939  0.0576  0.2075
 2951DOPC   C1A34626  30.090  21.309  14.487  0.0725 -0.1615 -0.3778
 2951DOPC   D2A34627  30.279  21.445  14.067 -0.0346 -0.0916 -0.0168
 2951DOPC   C3A34628  30.101  21.839  13.945  0.1882  0.0652  0.0109
 2951DOPC   C4A34629  29.814  22.154  14.249 -0.0410 -0.1664 -0.1762
 2951DOPC   C1B34630  29.691  20.934  14.466 -0.1278  0.0460  0.1520
 2951DOPC   D2B34631  29.503  20.662  14.202  0.3788 -0.2977  0.0481
 2951DOPC   C3B34632  29.757  20.807  13.827 -0.0410  0.0356 -0.4358
 2951DOPC   C4B34633  29.911  20.590  13.477  0.0312  0.1118  0.0025
 2952DOPS   CNO34634  28.480  18.732  15.105  0.1335 -0.0902  0.2947
 2952DOPS   PO434635  28.534  19.022  14.852  0.0335  0.0561 -0.0658
 2952DOPS   GL134636  28.673  19.006  14.360 -0.0740  0.2040  0.4110
 2952DOPS   GL234637  28.681  18.778  14.092 -0.4733  0.1067 -0.2278
 2952DOPS   C1A34638  29.065  19.090  14.154 -0.0931 -0.1066  0.2179
 2952DOPS   D2A34639  29.399  18.923  13.826 -0.0256  0.1288 -0.0694
 2952DOPS   C3A34640  29.221  19.103  13.406  0.0432 -0.1486 -0.4176
 2952DOPS   C4A34641  29.256  19.073  12.941  0.1100  0.0540 -0.0188
 2952DOPS   C1B34642  28.860  18.893  13.691  0.1147 -0.0122 -0.0156
 2952DOPS   D2B34643  28.833  18.869  13.232 -0.1620 -0.2272 -0.0579
 2952DOPS   C3B34644  28.640  19.006  12.810  0.0087 -0.0341  0.0254
 2952DOPS   C4B34645  28.500  19.170  12.400 -0.1903 -0.0288  0.3777
 2953DOPE   NH334646  34.286  15.153  14.470  0.0873 -0.1721  0.2265
 2953DOPE   PO434647  34.595  15.135  14.577  0.2058  0.1445 -0.0657
 2953DOPE   GL134648  34.688  15.352  14.254  0.1035 -0.2131  0.1369
 2953DOPE   GL234649  34.526  15.516  14.097 -0.1947 -0.0552  0.0426
 2953DOPE   C1A34650  34.991  15.139  13.940  0.1004  0.2776 -0.2452
 2953DOPE   D2A34651  35.385  15.210  13.778  0.2769 -0.0016 -0.3206
 2953DOPE   C3A34652  35.664  15.554  13.648 -0.1606 -0.0508 -0.0801
 2953DOPE   C4A34653  35.894  15.708  13.231 -0.1331  0.2763 -0.2131
 2953DOPE   C1B34654  34.479  15.355  13.706 -0.0982  0.0912 -0.1888
 2953DOPE   D2B34655  34.705  15.192  13.372  0.1582  0.3574 -0.0024
 2953DOPE   C3B34656  34.480  15.261  12.945  0.1314 -0.1733 -0.0905
 2953DOPE   C4B34657  34.515  15.463  12.522  0.2680 -0.0051 -0.2975
 2954DOPS   CNO34658  29.073  21.490  15.159 -0.2843 -0.0260  0.0868
 2954DOPS   PO434659  29.129  21.369  14.807 -0.0999 -0.1695 -0.0603
 2954DOPS   GL134660  29.195  21.306  14.347 -0.1423  0.0588 -0.1593
 2954DOPS   GL234661  29.127  21.014  14.376 -0.2328 -0.0428  0.1484
 2954DOPS   C1A34662  29.426  21.091  13.970  0.1850 -0.0336  0.0973
 2954DOPS   D2A34663  29.462  20.987  13.510 -0.1470 -0.2676 -0.1284
 2954DOPS   C3A34664  29.841  21.109  13.325 -0.0596  0.1431 -0.2631
 2954DOPS   C4A34665  30.033  21.162  12.934 -0.2287  0.4066 -0.2003
 2954DOPS   C1B34666  29.012  20.850  13.976  0.1519 -0.0060  0.2278
 2954DOPS   D2B34667  28.833  20.814  13.489 -0.4742  0.0657  0.0769
 2954DOPS   C3B34668  29.103  21.175  13.266 -0.1507 -0.2195 -0.3163
 2954DOPS   C4B34669  29.454  21.235  12.959 -0.2230 -0.2561  0.2263
 2955DOPS   CNO34670  30.000  15.413  14.424  0.1126  0.0274  0.4096
 2955DOPS   PO434671  30.051  15.493  14.042 -0.1105  0.2125 -0.1522
 2955DOPS   GL134672  30.305  15.749  13.777  0.0155  0.1652 -0.2807
 2955DOPS   GL234673  30.245  15.553  13.576  0.2026  0.2567  0.2904
 2955DOPS   C1A34674  30.341  16.086  13.473 -0.3061 -0.2448  0.1604
 2955DOPS   D2A34675  30.098  16.342  13.225  0.1929 -0.0447  0.1357
 2955DOPS   C3A34676  30.242  16.509  12.792  0.0486  0.4967  0.2339
 2955DOPS   C4A34677  30.124  16.471  12.362 -0.0000 -0.0543 -0.1435
 2955DOPS   C1B34678  30.249  15.696  13.151 -0.0592  0.1193  0.0331
 2955DOPS   D2B34679  30.302  16.017  12.818 -0.0600 -0.0451 -0.2001
 2955DOPS   C3B34680  30.627  16.290  12.562 -0.3496  0.1920  0.0698
 2955DOPS   C4B34681  30.580  16.533  12.279 -0.0392  0.2957 -0.2294
 2956POSM   NC334682  28.334  18.142  14.444  0.1431 -0.1193 -0.3011
 2956POSM   PO434683  28.175  18.398  14.208 -0.1905  0.1490 -0.1295
 2956POSM   AM134684  28.270  18.551  13.955  0.2256  0.1890  0.0889
 2956POSM   AM234685  28.172  18.827  13.891  0.3043 -0.0734 -0.1239
 2956POSM   T1A34686  28.518  18.515  13.520  0.0214  0.1732 -0.1403
 2956POSM   C2A34687  28.832  18.345  13.208  0.1318 -0.0623  0.2751
 2956POSM   C3A34688  29.018  18.548  12.858 -0.1680 -0.4058 -0.1589
 2956POSM   C1B34689  28.317  18.972  13.643 -0.0645 -0.2197  0.0093
 2956POSM   D2B34690  28.317  18.914  13.173 -0.1177 -0.1516  0.0786
 2956POSM   C3B34691  28.187  19.036  12.792 -0.1349  0.1790 -0.1783
 2956POSM   C4B34692  27.861  19.224  12.516 -0.1919  0.0878  0.1093
 2957POSM   NC334693   0.709  18.443  14.178  0.0139 -0.3078 -0.2739
 2957POSM   PO434694   0.399  18.577  14.393  0.1339 -0.2766  0.0434
 2957POSM   AM134695   0.256  18.659  14.102  0.0187  0.2298  0.0660
 2957POSM   AM234696   0.358  18.752  13.831 -0.1494  0.0615 -0.2022
 2957POSM   T1A34697  -0.129  18.760  13.783 -0.2206 -0.0383 -0.3526
 2957POSM   C2A34698  -0.368  18.777  13.379  0.3365  0.1481 -0.3297
 2957POSM   C3A34699  -0.587  18.895  12.973 -0.2109 -0.0169 -0.2087
 2957POSM   C1B34700   0.537  18.658  13.549  0.1772  0.2709 -0.2966
 2957POSM   D2B34701   0.597  18.404  13.167 -0.1669 -0.0093 -0.0810
 2957POSM   C3B34702   0.636  18.576  12.751 -0.0705 -0.2965  0.0306
 2957POSM   C4B34703   0.860  18.897  12.537  0.1267 -0.0690  0.0152
 2958DOPC   NC334704  30.055  14.978  14.070  0.2234 -0.0492 -0.1276
 2958DOPC   PO434705  29.622  14.936  14.012  0.1186 -0.0565 -0.0469
 2958DOPC   GL134706  29.642  15.060  13.688  0.0316  0.3043  0.2734
 2958DOPC   GL234707  29.808  15.274  13.706  0.0362 -0.0489  0.0350
 2958DOPC   C1A34708  29.391  15.065  13.326  0.1345  0.0739 -0.3011
 2958DOPC   D2A34709  29.322  15.237  12.973 -0.1786  0.0158 -0.3708
 2958DOPC   C3A34710  29.251  15.085  12.542  0.1217 -0.0373 -0.3383
 2958DOPC   C4A34711  29.017  15.309  12.253  0.1757  0.3828 -0.1196
 2958DOPC   C1B34712  29.852  15.340  13.264 -0.1582 -0.2384 -0.2008
 2958DOPC   D2B34713  29.758  15.481  12.810  0.3055  0.1214 -0.4651
 2958DOPC   C3B34714  30.120  15.499  12.543 -0.0663 -0.1464 -0.0266
 2958DOPC   C4B34715  30.573  15.591  12.653 -0.0486  0.1665  0.1042
 2959POSM   NC334716  30.512  22.975  15.070  0.1597 -0.0182  0.0223
 2959POSM   PO434717  30.311  23.330  15.094  0.0415 -0.2552  0.4556
 2959POSM   AM134718  30.261  23.425  14.773  0.0090 -0.0906 -0.3712
 2959POSM   AM234719  30.044  23.427  14.611  0.2352 -0.0395 -0.1179
 2959POSM   T1A34720  30.436  23.449  14.301  0.1199  0.1102 -0.3271
 2959POSM   C2A34721  30.517  23.585  13.872  0.0798  0.0800  0.2753
 2959POSM   C3A34722  30.662  23.851  13.513 -0.0890 -0.2723  0.0334
 2959POSM   C1B34723  29.903  23.445  14.310 -0.1857 -0.1703  0.1348
 2959POSM   D2B34724  29.820  23.399  13.884 -0.0662  0.4072 -0.0226
 2959POSM   C3B34725  29.724  23.623  13.521 -0.1657  0.1641 -0.1672
 2959POSM   C4B34726  29.758  23.828  13.056  0.1053  0.0006 -0.1937
 2960DOPC   NC334727   0.205  18.067  14.585  0.0130 -0.0458  0.0440
 2960DOPC   PO434728   0.358  18.122  14.244  0.4135 -0.0329 -0.1853
 2960DOPC   GL134729   0.418  18.249  13.892  0.1645  0.2238  0.1543
 2960DOPC   GL234730   0.458  18.002  13.652 -0.0603 -0.2361  0.2015
 2960DOPC   C1A34731   0.855  18.277  13.663 -0.4784  0.0273 -0.0734
 2960DOPC   D2A34732   1.095  18.560  13.386 -0.0050 -0.1123 -0.0584
 2960DOPC   C3A34733   1.103  18.532  12.912 -0.1984 -0.0821 -0.1761
 2960DOPC   C4A34734   1.293  18.599  12.482  0.3527  0.0705  0.0405
 2960DOPC   C1B34735   0.357  17.797  13.196 -0.0316 -0.3390 -0.0509
 2960DOPC   D2B34736   0.269  17.704  12.698  0.0610 -0.1698  0.1413
 2960DOPC   C3B34737   0.312  17.307  12.477 -0.0605 -0.0771  0.0695
 2960DOPC   C4B34738   0.406  16.898  12.699  0.2648  0.0730 -0.1071
 2961POSM   NC334739  31.913  15.653  14.749  0.2026  0.1242  0.0390
 2961POSM   PO434740  32.193  15.943  14.655  0.3503  0.0291 -0.1753
 2961POSM   AM134741  32.221  15.790  14.406 -0.0327  0.2658 -0.1019
 2961POSM   AM234742  32.055  15.631  14.242  0.3184  0.3028 -0.0655
 2961POSM   T1A34743  32.389  15.800  13.921  0.0701  0.4735  0.0769
 2961POSM   C2A34744  32.555  16.110  13.566  0.0494 -0.0133  0.0988
 2961POSM   C3A34745  32.704  16.124  13.172  0.0141  0.0466 -0.1798
 2961POSM   C1B34746  31.918  15.819  13.954 -0.1044 -0.1898  0.0686
 2961POSM   D2B34747  31.814  15.987  13.540  0.4162  0.2050 -0.0323
 2961POSM   C3B34748  31.876  16.436  13.502 -0.0382 -0.0505 -0.0653
 2961POSM   C4B34749  31.666  16.863  13.449  0.0904 -0.2465  0.1245
 2962POSM   NC334750  34.705  14.591  14.677  0.0843  0.1912  0.0859
 2962POSM   PO434751  34.403  14.687  14.519  0.0357  0.3431 -0.0367
 2962POSM   AM134752  34.327  14.738  14.217  0.0433 -0.3230 -0.2321
 2962POSM   AM234753  34.361  14.960  14.056 -0.2188 -0.0811  0.0415
 2962POSM   T1A34754  34.183  14.442  13.854  0.3145  0.1280  0.1237
 2962POSM   C2A34755  34.089  14.180  13.574  0.2797  0.0867  0.1313
 2962POSM   C3A34756  34.256  13.873  13.302 -0.2247  0.0292 -0.0871
 2962POSM   C1B34757  34.462  14.864  13.743  0.1718 -0.4272 -0.1532
 2962POSM   D2B34758  34.883  14.748  13.509  0.0854  0.2953 -0.0394
 2962POSM   C3B34759  34.963  14.409  13.174 -0.3574 -0.2668  0.1987
 2962POSM   C4B34760  35.206  14.275  12.819 -0.1880 -0.0744 -0.3831
 2963DOPC   NC334761  26.849  15.735  13.380  0.0411 -0.0539 -0.3336
 2963DOPC   PO434762  26.613  15.457  13.473 -0.0169  0.0993  0.0900
 2963DOPC   GL134763  26.404  15.421  13.091 -0.3069 -0.0406  0.0495
 2963DOPC   GL234764  26.518  15.118  13.086  0.1343  0.4233 -0.0875
 2963DOPC   C1A34765  26.381  15.657  12.714 -0.0265 -0.1165 -0.0853
 2963DOPC   D2A34766  26.632  16.048  12.623 -0.0985 -0.0219 -0.0380
 2963DOPC   C3A34767  26.604  16.188  12.175  0.0050  0.1391 -0.0307
 2963DOPC   C4A34768  26.588  16.341  11.724 -0.2693 -0.1008  0.0760
 2963DOPC   C1B34769  26.401  15.166  12.616 -0.0444  0.2403  0.2245
 2963DOPC   D2B34770  26.397  15.442  12.237  0.0228 -0.1692  0.4490
 2963DOPC   C3B34771  26.248  15.842  12.315 -0.0473 -0.0214  0.0524
 2963DOPC   C4B34772  26.017  16.272  12.384  0.1759 -0.1285 -0.0678
 2964DOPE   NH334773  27.706  15.517  13.369 -0.2464 -0.0854 -0.4757
 2964DOPE   PO434774  27.674  15.223  13.492  0.0579  0.1633 -0.1613
 2964DOPE   GL134775  28.061  15.257  13.337 -0.1301 -0.0641 -0.1309
 2964DOPE   GL234776  27.970  15.202  13.022 -0.0081  0.2590  0.0562
 2964DOPE   C1A34777  28.435  15.146  13.029 -0.2330 -0.0183 -0.2061
 2964DOPE   D2A34778  28.778  15.148  12.716  0.0192  0.2388 -0.0304
 2964DOPE   C3A34779  28.773  14.780  12.427  0.1397 -0.0930  0.1493
 2964DOPE   C4A34780  28.807  14.573  12.007  0.2066 -0.2001  0.2699
 2964DOPE   C1B34781  27.781  14.823  12.760 -0.1452  0.0472 -0.0239
 2964DOPE   D2B34782  27.468  14.653  12.424 -0.2891  0.0921 -0.0936
 2964DOPE   C3B34783  27.443  14.866  12.022  0.0065 -0.3465  0.3423
 2964DOPE   C4B34784  27.635  15.198  11.798  0.0412  0.0388 -0.1775
 2965DOPC   NC334785  25.659  15.955  13.240  0.0287  0.0862  0.0132
 2965DOPC   PO434786  25.764  16.237  13.514  0.0513 -0.1926  0.1193
 2965DOPC   GL134787  26.074  16.147  13.205 -0.1767 -0.1740 -0.1402
 2965DOPC   GL234788  26.074  15.934  12.982  0.1206  0.2727  0.3160
 2965DOPC   C1A34789  26.280  16.326  12.810 -0.1884  0.0487 -0.0314
 2965DOPC   D2A34790  26.445  16.595  12.464 -0.2769 -0.0835 -0.2492
 2965DOPC   C3A34791  26.186  16.540  12.039 -0.0546  0.1958 -0.0424
 2965DOPC   C4A34792  26.162  16.693  11.604  0.1163 -0.0669  0.2197
 2965DOPC   C1B34793  25.737  15.987  12.660 -0.3533 -0.2541  0.5274
 2965DOPC   D2B34794  25.747  15.911  12.197  0.1398  0.0035 -0.1197
 2965DOPC   C3B34795  25.680  16.365  11.989 -0.4281  0.0084  0.0397
 2965DOPC   C4B34796  25.708  16.777  11.816 -0.0627  0.3943  0.0376
 2966POSM   NC334797  34.740  19.277  14.637 -0.0585  0.1944  0.0298
 2966POSM   PO434798  34.493  19.227  14.349 -0.0088  0.1858 -0.0039
 2966POSM   AM134799  34.664  19.354  14.114 -0.0007  0.2740  0.1353
 2966POSM   AM234800  34.823  19.580  14.070  0.0924 -0.1772 -0.3392
 2966POSM   T1A34801  35.004  19.231  13.753  0.3677 -0.2612 -0.1306
 2966POSM   C2A34802  34.912  19.011  13.395  0.1651 -0.5209 -0.0758
 2966POSM   C3A34803  34.889  18.691  13.109 -0.3605  0.1539 -0.3513
 2966POSM   C1B34804  34.756  19.850  13.854  0.0903  0.1386 -0.2322
 2966POSM   D2B34805  34.536  19.995  13.422  0.4170  0.2864  0.1274
 2966POSM   C3B34806  34.537  19.763  13.012 -0.1477  0.2465  0.0069
 2966POSM   C4B34807  34.267  19.397  12.806 -0.0914  0.1371  0.0597
 2967POSM   NC334808  24.886  21.227  14.794 -0.0468  0.0023  0.1867
 2967POSM   PO434809  25.200  21.455  14.707  0.1526  0.0873 -0.3557
 2967POSM   AM134810  25.339  21.505  14.402 -0.2679 -0.0511  0.3453
 2967POSM   AM234811  25.397  21.413  14.137 -0.0908  0.1033  0.0223
 2967POSM   T1A34812  25.313  21.966  14.104 -0.0128 -0.0538  0.0208
 2967POSM   C2A34813  25.271  22.389  13.930  0.1929 -0.2195 -0.1783
 2967POSM   C3A34814  25.060  22.635  13.521  0.0717  0.0994  0.0406
 2967POSM   C1B34815  25.408  21.558  13.842 -0.4420  0.1476  0.2537
 2967POSM   D2B34816  25.549  21.909  13.570  0.0978  0.0652 -0.3825
 2967POSM   C3B34817  25.344  21.991  13.177  0.4975 -0.0626 -0.2811
 2967POSM   C4B34818  24.896  21.956  13.025  0.0123  0.1889  0.0781
 2968POSM   NC334819  28.957  16.416  14.302  0.0176 -0.2636  0.0416
 2968POSM   PO434820  29.254  16.203  14.335  0.2548  0.1186 -0.3915
 2968POSM   AM134821  29.273  16.156  14.002  0.3200  0.0380 -0.2898
 2968POSM   AM234822  29.333  16.293  13.774  0.1996 -0.0047  0.0848
 2968POSM   T1A34823  29.458  15.778  13.722 -0.0577 -0.0822  0.0044
 2968POSM   C2A34824  29.346  15.546  13.401 -0.0338  0.1524  0.0033
 2968POSM   C3A34825  29.361  15.786  12.989 -0.1834 -0.0533 -0.2206
 2968POSM   C1B34826  29.354  16.188  13.450  0.2221  0.0159  0.0682
 2968POSM   D2B34827  29.248  16.317  13.043 -0.0011 -0.0848  0.1140
 2968POSM   C3B34828  29.176  16.822  12.956  0.0944  0.1517 -0.1984
 2968POSM   C4B34829  29.565  17.070  12.962 -0.0363 -0.1362  0.0296
 2969POSM   NC334830  27.828  24.104  15.920  0.0262 -0.1948 -0.1899
 2969POSM   PO434831  27.794  24.069  15.546  0.0336 -0.0676  0.1507
 2969POSM   AM134832  27.921  24.202  15.290  0.1861  0.2194  0.1168
 2969POSM   AM234833  28.034  24.006  15.085 -0.0984  0.2053  0.1029
 2969POSM   T1A34834  28.109  24.439  14.907 -0.1823  0.2316 -0.0067
 2969POSM   C2A34835  28.025  24.476  14.462 -0.0708  0.2614 -0.1014
 2969POSM   C3A34836  27.815  24.398  14.054 -0.1002 -0.2320 -0.2865
 2969POSM   C1B34837  28.053  23.830  14.789 -0.0873  0.0045  0.0174
 2969POSM   D2B34838  27.863  23.543  14.487 -0.0919  0.0065 -0.1849
 2969POSM   C3B34839  28.061  23.435  14.056  0.0283  0.0809  0.3390
 2969POSM   C4B34840  28.102  23.620  13.639  0.1398 -0.0791  0.2166
 2970DOPC   NC334841   2.993  19.103  13.394  0.5333  0.1058  0.0160
 2970DOPC   PO434842   3.093  19.485  13.497 -0.0622 -0.0685  0.1329
 2970DOPC   GL134843   3.144  19.567  13.101 -0.0955  0.0432  0.3785
 2970DOPC   GL234844   3.356  19.385  13.059 -0.1958 -0.0612 -0.1547
 2970DOPC   C1A34845   2.960  19.683  12.698  0.0233  0.0713 -0.0690
 2970DOPC   D2A34846   2.741  19.885  12.331  0.1122 -0.2134  0.1076
 2970DOPC   C3A34847   2.377  20.067  12.181  0.3580 -0.0091 -0.0368
 2970DOPC   C4A34848   2.033  20.189  11.911 -0.0406  0.0826 -0.1328
 2970DOPC   C1B34849   3.133  19.182  12.663 -0.0936  0.2037 -0.0976
 2970DOPC   D2B34850   3.006  19.405  12.282  0.0591 -0.1696  0.0587
 2970DOPC   C3B34851   3.315  19.423  11.928  0.1294  0.0238 -0.3290
 2970DOPC   C4B34852   3.252  19.499  11.509  0.0236 -0.0794 -0.1964
 2971POSM   NC334853   2.883  19.591  13.943  0.2089  0.0074 -0.2861
 2971POSM   PO434854   2.536  19.677  14.111 -0.2265 -0.0736  0.1615
 2971POSM   AM134855   2.283  19.682  13.897  0.0816  0.1403 -0.1671
 2971POSM   AM234856   1.990  19.655  13.949  0.1794  0.1811 -0.0223
 2971POSM   T1A34857   2.100  19.511  13.406 -0.1283 -0.1140  0.1393
 2971POSM   C2A34858   2.301  19.485  12.943  0.1800 -0.3402  0.1026
 2971POSM   C3A34859   2.712  19.272  12.974 -0.2100 -0.0287 -0.1857
 2971POSM   C1B34860   1.768  19.763  13.645 -0.0095 -0.1033 -0.0183
 2971POSM   D2B34861   1.610  20.091  13.337 -0.3035 -0.0168  0.0821
 2971POSM   C3B34862   1.612  20.118  12.874 -0.1172 -0.0615 -0.2313
 2971POSM   C4B34863   1.473  20.040  12.435  0.1828 -0.0651  0.1579
 2972DOPS   CNO34864  28.893  17.771  14.205 -0.2105 -0.1556 -0.1336
 2972DOPS   PO434865  28.523  17.743  14.234 -0.0576 -0.1017 -0.1120
 2972DOPS   GL134866  28.438  17.763  13.874  0.0556 -0.0709 -0.1130
 2972DOPS   GL234867  28.383  18.068  13.867  0.0157  0.0523 -0.1345
 2972DOPS   C1A34868  28.470  17.807  13.411 -0.0172  0.0562  0.4040
 2972DOPS   D2A34869  28.227  18.001  13.040 -0.1979  0.2472 -0.0457
 2972DOPS   C3A34870  27.797  17.897  12.878 -0.1199 -0.0606 -0.1637
 2972DOPS   C4A34871  27.398  17.867  12.699  0.1477 -0.1522 -0.3539
 2972DOPS   C1B34872  28.820  18.125  13.720 -0.0499  0.3207  0.0277
 2972DOPS   D2B34873  29.169  18.411  13.747  0.1117  0.0862 -0.1074
 2972DOPS   C3B34874  29.310  18.614  13.367 -0.0710 -0.0541  0.0654
 2972DOPS   C4B34875  29.537  18.442  12.996 -0.3188  0.0560 -0.0740
 2973DOPS   CNO34876  24.148  19.668  14.189 -0.3806 -0.1529 -0.0470
 2973DOPS   PO434877  24.387  19.908  14.178 -0.3789  0.0919 -0.2123
 2973DOPS   GL134878  24.608  20.081  13.944  0.2230 -0.0675  0.1511
 2973DOPS   GL234879  24.651  19.851  13.759  0.0007 -0.0298 -0.0519
 2973DOPS   C1A34880  24.783  20.470  13.810  0.3289  0.1863 -0.0893
 2973DOPS   D2A34881  24.959  20.718  13.454  0.2400 -0.1190 -0.0940
 2973DOPS   C3A34882  24.883  20.852  13.057 -0.0563 -0.0596 -0.1272
 2973DOPS   C4A34883  25.068  20.920  12.618 -0.2130  0.0273  0.2993
 2973DOPS   C1B34884  24.833  19.876  13.383 -0.2067  0.0531 -0.1946
 2973DOPS   D2B34885  24.890  20.066  12.961  0.1213 -0.1030  0.2714
 2973DOPS   C3B34886  24.788  20.006  12.502  0.0011  0.0900 -0.2183
 2973DOPS   C4B34887  24.634  19.620  12.294  0.1274 -0.1495  0.1387
 2974DOPS   CNO34888  27.724  16.335  14.017 -0.1444  0.0377 -0.2185
 2974DOPS   PO434889  28.058  16.419  13.887  0.1398  0.1430  0.0697
 2974DOPS   GL134890  28.109  16.487  13.404 -0.1185  0.3829 -0.1237
 2974DOPS   GL234891  27.955  16.751  13.320  0.0356  0.1129  0.0018
 2974DOPS   C1A34892  28.253  16.580  12.923  0.2109  0.1802 -0.0447
 2974DOPS   D2A34893  28.341  16.784  12.530 -0.0882 -0.2691  0.0510
 2974DOPS   C3A34894  28.313  16.518  12.136 -0.2170  0.1735 -0.2562
 2974DOPS   C4A34895  28.046  16.331  11.850 -0.1067 -0.0965  0.1744
 2974DOPS   C1B34896  28.080  17.046  13.068  0.2509  0.2191  0.0871
 2974DOPS   D2B34897  28.320  17.283  12.710 -0.3986 -0.0074  0.0703
 2974DOPS   C3B34898  28.172  17.731  12.536  0.1932 -0.0607  0.0319
 2974DOPS   C4B34899  28.051  17.918  12.108 -0.1014  0.0129  0.3240
 2975POSM   NC334900  30.278  15.901  14.201 -0.4065 -0.2721  0.1765
 2975POSM   PO434901  30.407  16.178  14.435 -0.1926 -0.2247 -0.4652
 2975POSM   AM134902  30.711  16.104  14.271  0.0682  0.2910 -0.0813
 2975POSM   AM234903  30.812  15.899  14.108  0.1794 -0.2785 -0.0402
 2975POSM   T1A34904  31.176  16.247  14.066  0.1801  0.0653  0.1312
 2975POSM   C2A34905  31.636  16.360  14.001  0.2130  0.2624  0.1752
 2975POSM   C3A34906  32.130  16.246  14.064  0.1800  0.0356 -0.1881
 2975POSM   C1B34907  30.694  16.072  13.800 -0.2714 -0.0698 -0.2595
 2975POSM   D2B34908  30.812  16.211  13.333 -0.0235  0.2366 -0.0785
 2975POSM   C3B34909  30.888  15.886  12.972  0.1427  0.0078 -0.1453
 2975POSM   C4B34910  31.309  15.778  12.743 -0.1456  0.0414  0.0559
 2976DOPE   NH334911  31.677  24.204  15.187  0.1203 -0.1206  0.2376
 2976DOPE   PO434912  31.774  24.260  14.846  0.0878 -0.1099  0.1458
 2976DOPE   GL134913  31.589  24.163  14.456 -0.1979  0.0260  0.4696
 2976DOPE   GL234914  31.366  23.882  14.470 -0.1324 -0.4061 -0.0161
 2976DOPE   C1A34915  31.283  24.184  14.068 -0.1504 -0.0260  0.1451
 2976DOPE   D2A34916  30.897  23.916  13.938  0.3332  0.1999 -0.0763
 2976DOPE   C3A34917  31.004  23.526  13.703 -0.0669 -0.1325 -0.1966
 2976DOPE   C4A34918  31.068  23.626  13.242  0.1477 -0.3418 -0.0977
 2976DOPE   C1B34919  31.015  23.584  14.340  0.0819 -0.0530  0.1422
 2976DOPE   D2B34920  30.836  23.194  14.125  0.0283  0.2543  0.2068
 2976DOPE   C3B34921  30.715  23.161  13.685 -0.1658 -0.1087  0.3897
 2976DOPE   C4B34922  30.534  23.233  13.267  0.1467  0.1302  0.0751
 2977POSM   NC334923  29.340  11.481  14.238 -0.3055 -0.2061 -0.1331
 2977POSM   PO434924  29.412  11.112  14.381 -0.0220  0.3250  0.0703
 2977POSM   AM134925  29.635  10.949  14.245 -0.1199  0.1018  0.1452
 2977POSM   AM234926  29.850  11.063  14.081  0.1689  0.0461 -0.2088
 2977POSM   T1A34927  29.863  10.485  14.172  0.2273  0.2126 -0.3969
 2977POSM   C2A34928  29.829  10.075  14.292 -0.1223  0.0340 -0.0048
 2977POSM   C3A34929  30.049   9.821  13.949  0.3537  0.0395 -0.1138
 2977POSM   C1B34930  29.922  11.108  13.754  0.4120 -0.0301  0.1837
 2977POSM   D2B34931  29.961  11.097  13.301  0.1523  0.1772 -0.2210
 2977POSM   C3B34932  29.731  11.233  12.918 -0.0745  0.0497  0.0691
 2977POSM   C4B34933  29.474  11.609  12.794 -0.3216 -0.0137 -0.0125
 2978DOPS   CNO34934  32.963  17.329  14.856  0.0795 -0.3887 -0.1514
 2978DOPS   PO434935  32.575  17.399  14.809  0.2011  0.1094  0.0233
 2978DOPS   GL134936  32.510  17.413  14.454  0.0199  0.0036  0.1558
 2978DOPS   GL234937  32.758  17.466  14.309 -0.0377 -0.0073 -0.4566
 2978DOPS   C1A34938  32.450  17.227  14.001  0.2301  0.1556  0.0619
 2978DOPS   D2A34939  32.447  17.204  13.604 -0.3658  0.2132 -0.0347
 2978DOPS   C3A34940  32.063  17.112  13.344 -0.0205 -0.0046 -0.5943
 2978DOPS   C4A34941  31.873  16.733  13.041  0.1371  0.1831  0.1809
 2978DOPS   C1B34942  32.971  17.633  13.889  0.4529 -0.0301  0.2636
 2978DOPS   D2B34943  32.972  17.386  13.587  0.3331  0.2844 -0.1237
 2978DOPS   C3B34944  33.017  17.367  13.163 -0.0361 -0.1653 -0.0765
 2978DOPS   C4B34945  32.892  17.730  12.919  0.0780 -0.2256  0.0362
 2979POSM   NC334946  33.719  16.085  15.036 -0.2437 -0.0616 -0.1844
 2979POSM   PO434947  33.938  16.460  15.093 -0.2265  0.3482  0.1649
 2979POSM   AM134948  33.855  16.458  14.751 -0.1432 -0.3695 -0.1009
 2979POSM   AM234949  33.986  16.499  14.496 -0.1584 -0.2346 -0.0852
 2979POSM   T1A34950  33.491  16.608  14.492 -0.1116 -0.1113 -0.3183
 2979POSM   C2A34951  33.067  16.621  14.302 -0.2000  0.0761  0.2230
 2979POSM   C3A34952  32.647  16.626  14.119 -0.1264  0.1259 -0.1417
 2979POSM   C1B34953  33.925  16.750  14.244  0.2825  0.0814  0.2266
 2979POSM   D2B34954  33.904  16.968  13.804 -0.4166 -0.1452  0.2905
 2979POSM   C3B34955  33.505  17.223  13.769 -0.1113  0.5560  0.1133
 2979POSM   C4B34956  33.471  17.664  13.651  0.1474 -0.1005 -0.1471
 2980POSM   NC334957  29.662  15.888  14.267  0.2901  0.1558 -0.0859
 2980POSM   PO434958  29.835  16.236  14.252  0.1595 -0.0941  0.0950
 2980POSM   AM134959  29.839  16.246  13.939 -0.1355  0.3018 -0.2506
 2980POSM   AM234960  29.896  16.050  13.724 -0.0518 -0.1006 -0.0837
 2980POSM   T1A34961  29.738  16.585  13.600  0.0220  0.1638  0.2362
 2980POSM   C2A34962  29.620  16.576  13.181  0.0490 -0.2556  0.0489
 2980POSM   C3A34963  29.689  16.575  12.686 -0.3320  0.0999  0.3361
 2980POSM   C1B34964  29.791  15.937  13.428  0.5519 -0.0123  0.0797
 2980POSM   D2B34965  29.839  15.986  12.926 -0.0686 -0.1869  0.0937
 2980POSM   C3B34966  29.788  16.081  12.437  0.1151 -0.0472 -0.3936
 2980POSM   C4B34967  29.964  16.188  11.969  0.2990  0.4163  0.2471
 2981POSM   NC334968  26.692  17.425  14.107 -0.2052  0.2513  0.0109
 2981POSM   PO434969  26.960  17.700  14.147  0.0587  0.1931  0.1816
 2981POSM   AM134970  26.907  17.701  13.805  0.5723  0.1113  0.2819
 2981POSM   AM234971  26.896  17.945  13.644 -0.2852  0.0429 -0.0134
 2981POSM   T1A34972  26.595  17.493  13.516  0.1749 -0.1538  0.0594
 2981POSM   C2A34973  26.587  17.062  13.292  0.0664 -0.2426  0.0334
 2981POSM   C3A34974  26.499  16.634  13.101 -0.2372 -0.0668 -0.2549
 2981POSM   C1B34975  26.734  18.007  13.355  0.1860  0.0767 -0.1223
 2981POSM   D2B34976  26.611  17.947  12.870 -0.0957  0.3768 -0.2258
 2981POSM   C3B34977  26.414  18.113  12.528 -0.0627  0.2091 -0.1156
 2981POSM   C4B34978  26.663  18.367  12.197 -0.1739 -0.1570 -0.0810
 2982DOPE   NH334979   1.118  19.060  14.585 -0.2561  0.1367  0.0525
 2982DOPE   PO434980   1.354  18.965  14.342  0.1276  0.2126  0.3568
 2982DOPE   GL134981   1.442  19.040  13.942  0.1612  0.1441  0.1389
 2982DOPE   GL234982   1.199  18.962  13.770  0.0349  0.0325  0.0335
 2982DOPE   C1A34983   1.603  19.290  13.620  0.0850  0.2468  0.1450
 2982DOPE   D2A34984   1.526  19.548  13.246 -0.0160  0.0842 -0.2380
 2982DOPE   C3A34985   1.100  19.736  13.257 -0.4282 -0.7247  0.0787
 2982DOPE   C4A34986   0.680  19.977  13.121 -0.1710  0.3996  0.1184
 2982DOPE   C1B34987   1.000  19.166  13.390 -0.1994  0.2088 -0.0837
 2982DOPE   D2B34988   0.780  18.921  13.062 -0.0801 -0.1722 -0.2640
 2982DOPE   C3B34989   0.471  19.124  12.749 -0.3314  0.0467 -0.3615
 2982DOPE   C4B34990   0.284  19.135  12.383  0.1637  0.0403 -0.4511
 2983DOPE   NH334991  27.325  17.959  13.938 -0.1564 -0.1583  0.1274
 2983DOPE   PO434992  27.220  18.284  13.967  0.1611  0.1390 -0.1811
 2983DOPE   GL134993  27.065  18.417  13.576  0.0495 -0.0341  0.2904
 2983DOPE   GL234994  26.989  18.664  13.721  0.2177  0.2769  0.1035
 2983DOPE   C1A34995  26.875  18.566  13.130 -0.0222 -0.1602 -0.0502
 2983DOPE   D2A34996  26.616  18.854  12.889  0.1509  0.2216  0.1158
 2983DOPE   C3A34997  26.311  18.745  12.555 -0.0014 -0.3307 -0.3924
 2983DOPE   C4A34998  26.273  18.773  12.127 -0.1922 -0.1602 -0.0440
 2983DOPE   C1B34999  27.220  19.063  13.589  0.3519 -0.2626  0.2988
 2983DOPE   D2B35000  27.460  19.395  13.345 -0.4788  0.0150 -0.1181
 2983DOPE   C3B35001  27.414  19.380  12.900 -0.1773 -0.1029 -0.0432
 2983DOPE   C4B35002  27.369  19.430  12.444 -0.3764  0.2935 -0.3130
 2984DOPS   CNO35003  34.726  13.268  14.463 -0.1558 -0.1305  0.2418
 2984DOPS   PO435004  34.979  13.523  14.555  0.0046 -0.0636 -0.0369
 2984DOPS   GL135005  35.044  13.559  14.133 -0.0506 -0.1196  0.0587
 2984DOPS   GL235006  35.274  13.363  14.113  0.3973 -0.1664  0.1997
 2984DOPS   C1A35007  34.935  13.947  13.904  0.2555 -0.3767  0.2292
 2984DOPS   D2A35008  34.696  14.133  13.546 -0.0314  0.1178 -0.2509
 2984DOPS   C3A35009  34.860  13.809  13.253  0.1282 -0.1902  0.2420
 2984DOPS   C4A35010  34.932  13.665  12.781 -0.2161 -0.1540 -0.2738
 2984DOPS   C1B35011  35.030  13.272  13.746 -0.1942  0.1655 -0.0996
 2984DOPS   D2B35012  34.880  13.312  13.355  0.3080 -0.1874  0.0147
 2984DOPS   C3B35013  34.519  13.530  13.030  0.1102 -0.0151  0.0047
 2984DOPS   C4B35014  34.154  13.746  12.760 -0.2945 -0.2142  0.3597
 2985DOPS   CNO35015  26.050  17.821  14.205 -0.0420  0.0054  0.1483
 2985DOPS   PO435016  26.210  17.563  13.966  0.2614  0.0332 -0.0476
 2985DOPS   GL135017  26.141  17.573  13.594 -0.0786  0.1023 -0.1462
 2985DOPS   GL235018  25.802  17.490  13.515 -0.1098  0.1327 -0.0432
 2985DOPS   C1A35019  26.263  17.609  13.146  0.1270  0.3804 -0.0546
 2985DOPS   D2A35020  26.643  17.504  12.842  0.0483 -0.2786  0.0665
 2985DOPS   C3A35021  26.902  17.749  12.512 -0.0298 -0.0077 -0.1682
 2985DOPS   C4A35022  27.129  18.123  12.344  0.1375 -0.1301 -0.2600
 2985DOPS   C1B35023  25.712  17.637  13.104 -0.3466  0.0955 -0.1350
 2985DOPS   D2B35024  25.643  17.707  12.636  0.0223  0.3768  0.2296
 2985DOPS   C3B35025  25.984  17.885  12.416  0.0023  0.4414  0.1849
 2985DOPS   C4B35026  26.042  17.776  11.983 -0.3631  0.2013 -0.3060
 2986DOPE   NH335027  27.118  22.255  15.134  0.0850 -0.0633 -0.1078
 2986DOPE   PO435028  27.023  22.294  14.848 -0.0810  0.2032 -0.0124
 2986DOPE   GL135029  26.861  22.367  14.585 -0.0263  0.2081 -0.1514
 2986DOPE   GL235030  26.738  22.652  14.674 -0.0344 -0.0400  0.2095
 2986DOPE   C1A35031  26.606  22.413  14.183  0.1993  0.1610  0.0212
 2986DOPE   D2A35032  26.739  22.385  13.769 -0.0425  0.0126  0.0846
 2986DOPE   C3A35033  26.968  22.322  13.391 -0.0829  0.2817 -0.2909
 2986DOPE   C4A35034  27.248  22.037  13.091 -0.2438  0.0660  0.0784
 2986DOPE   C1B35035  26.859  22.792  14.303  0.1811 -0.0745 -0.1248
 2986DOPE   D2B35036  26.938  22.832  13.854 -0.0555  0.0371  0.0522
 2986DOPE   C3B35037  27.228  22.793  13.520  0.1768 -0.2142 -0.0823
 2986DOPE   C4B35038  27.338  22.583  13.162  0.1439  0.3292  0.2319
 2987DOPC   NC335039  29.334  22.534  15.172 -0.5197  0.1435 -0.0891
 2987DOPC   PO435040  29.033  22.272  14.996 -0.1455 -0.1924  0.0236
 2987DOPC   GL135041  29.016  22.390  14.552 -0.0841 -0.2003 -0.1734
 2987DOPC   GL235042  28.984  22.145  14.424  0.0585 -0.0995  0.1802
 2987DOPC   C1A35043  29.205  22.719  14.242  0.1450 -0.1546  0.2087
 2987DOPC   D2A35044  29.155  22.981  13.854  0.2439 -0.0069  0.1557
 2987DOPC   C3A35045  29.542  23.102  13.658  0.0835  0.1709  0.5172
 2987DOPC   C4A35046  29.815  22.973  13.290 -0.0175 -0.0839 -0.1743
 2987DOPC   C1B35047  28.932  21.819  14.068 -0.0587 -0.0032  0.0647
 2987DOPC   D2B35048  29.271  21.568  13.940 -0.1162  0.1403  0.0127
 2987DOPC   C3B35049  29.353  21.514  13.473  0.1866 -0.2001 -0.0757
 2987DOPC   C4B35050  29.614  21.784  13.187  0.1942 -0.4281 -0.1748
 2988DOPE   NH335051  31.841  20.001  14.942 -0.0421  0.0045 -0.1574
 2988DOPE   PO435052  32.031  19.716  14.938  0.0755 -0.0842 -0.3819
 2988DOPE   GL135053  31.939  19.739  14.538  0.4604 -0.3794  0.1732
 2988DOPE   GL235054  31.618  19.750  14.535 -0.1118 -0.0719  0.2083
 2988DOPE   C1A35055  32.067  19.554  14.109 -0.0220 -0.0302  0.1719
 2988DOPE   D2A35056  32.125  19.444  13.654 -0.5582 -0.1816  0.0587
 2988DOPE   C3A35057  32.203  19.754  13.350 -0.1383  0.1198 -0.2574
 2988DOPE   C4A35058  32.288  20.100  13.087 -0.0305  0.2265 -0.4139
 2988DOPE   C1B35059  31.591  19.389  14.269  0.1516 -0.0748  0.1504
 2988DOPE   D2B35060  31.639  19.412  13.817 -0.0574 -0.0966  0.1409
 2988DOPE   C3B35061  31.798  19.145  13.460  0.3295  0.0642 -0.1512
 2988DOPE   C4B35062  31.614  18.844  13.157 -0.0509 -0.1099  0.0084
 2989DOPC   NC335063  25.966  15.147  13.078  0.2448  0.1286  0.0619
 2989DOPC   PO435064  25.744  15.482  13.157 -0.1224  0.2680 -0.2903
 2989DOPC   GL135065  25.660  15.483  12.723  0.0940 -0.0540 -0.2514
 2989DOPC   GL235066  25.945  15.514  12.571 -0.1560 -0.0963 -0.1241
 2989DOPC   C1A35067  25.401  15.454  12.321  0.1711 -0.0492  0.0153
 2989DOPC   D2A35068  25.163  15.691  11.990  0.0558 -0.0626  0.2155
 2989DOPC   C3A35069  24.732  15.731  11.811 -0.0605  0.0404 -0.0699
 2989DOPC   C4A35070  24.585  15.879  11.381 -0.2325 -0.1746  0.1083
 2989DOPC   C1B35071  25.938  15.469  12.062  0.0005  0.1090 -0.1258
 2989DOPC   D2B35072  25.624  15.541  11.736  0.2499  0.2820 -0.2282
 2989DOPC   C3B35073  25.553  15.994  11.641 -0.0630 -0.1953 -0.1039
 2989DOPC   C4B35074  25.488  16.413  11.532  0.0809  0.0054 -0.1340
 2990DOPE   NH335075  32.412  15.114  14.638 -0.0355  0.0170 -0.0477
 2990DOPE   PO435076  32.283  15.380  14.607  0.2316  0.1633 -0.1913
 2990DOPE   GL135077  32.481  15.385  14.182 -0.0319  0.2998 -0.2541
 2990DOPE   GL235078  32.595  15.079  14.129 -0.0848 -0.0621  0.1249
 2990DOPE   C1A35079  32.534  15.373  13.700  0.1261  0.0261 -0.3241
 2990DOPE   D2A35080  32.524  15.546  13.282 -0.1676 -0.1412 -0.2158
 2990DOPE   C3A35081  32.287  15.934  13.158 -0.0018 -0.0400 -0.0686
 2990DOPE   C4A35082  31.825  16.142  13.054 -0.1889  0.3077  0.0639
 2990DOPE   C1B35083  32.770  14.858  13.784 -0.1572  0.1566 -0.1868
 2990DOPE   D2B35084  32.764  14.637  13.343  0.1984 -0.0136 -0.4104
 2990DOPE   C3B35085  32.782  14.731  12.878 -0.0731  0.2614  0.0660
 2990DOPE   C4B35086  32.601  14.924  12.466  0.0728  0.3383 -0.2881
 2991DOPE   NH335087   2.387  20.820  14.168 -0.1283  0.1647 -0.2043
 2991DOPE   PO435088   2.246  20.616  13.999 -0.0147 -0.0364 -0.0826
 2991DOPE   GL135089   2.325  20.536  13.537 -0.0951 -0.0208 -0.1908
 2991DOPE   GL235090   2.497  20.757  13.411 -0.4498 -0.0193 -0.0869
 2991DOPE   C1A35091   2.326  20.433  13.056  0.0835 -0.3697  0.0643
 2991DOPE   D2A35092   2.391  20.401  12.638 -0.2740 -0.1943  0.2582
 2991DOPE   C3A35093   1.979  20.309  12.505 -0.4903 -0.0990 -0.4594
 2991DOPE   C4A35094   1.702  20.442  12.176  0.0261  0.1427  0.0042
 2991DOPE   C1B35095   2.488  21.021  13.055 -0.1578  0.0638 -0.0925
 2991DOPE   D2B35096   2.463  21.045  12.582  0.4197  0.0828 -0.1728
 2991DOPE   C3B35097   2.617  21.469  12.518 -0.3071 -0.0644 -0.1973
 2991DOPE   C4B35098   2.530  21.886  12.767 -0.0495  0.2677  0.2215
 2992DOPC   NC335099  30.000  12.210  14.471 -0.2473 -0.3521 -0.3155
 2992DOPC   PO435100  30.177  11.860  14.445  0.2379  0.1301  0.3336
 2992DOPC   GL135101  30.076  11.740  14.142  0.0137  0.1996  0.0528
 2992DOPC   GL235102  30.062  11.480  14.079 -0.0385 -0.0044  0.0082
 2992DOPC   C1A35103  29.716  11.803  13.883  0.0738  0.0022  0.1235
 2992DOPC   D2A35104  29.401  11.896  13.563  0.3554 -0.0758 -0.2354
 2992DOPC   C3A35105  29.461  12.046  13.145 -0.1363 -0.2277 -0.3346
 2992DOPC   C4A35106  29.162  12.065  12.789  0.4749  0.1231 -0.0239
 2992DOPC   C1B35107  30.057  11.541  13.644  0.2584  0.0263  0.0305
 2992DOPC   D2B35108  29.726  11.612  13.268 -0.0199 -0.1210  0.1946
 2992DOPC   C3B35109  29.318  11.405  13.235  0.1391  0.0779  0.1449
 2992DOPC   C4B35110  28.975  11.510  13.013 -0.0814  0.1126 -0.1143
 2993DOPC   NC335111   0.727  14.665  14.647 -0.2115  0.3432 -0.2811
 2993DOPC   PO435112   0.362  14.503  14.495 -0.0196 -0.1007  0.6143
 2993DOPC   GL135113   0.558  14.801  14.246 -0.1521  0.0595  0.2832
 2993DOPC   GL235114   0.492  15.012  14.340 -0.2153 -0.1035 -0.1072
 2993DOPC   C1A35115   1.009  14.826  14.208 -0.0641  0.0254 -0.0144
 2993DOPC   D2A35116   1.155  15.002  13.795 -0.1388 -0.1680 -0.0725
 2993DOPC   C3A35117   0.945  14.792  13.471  0.1252 -0.0588 -0.0449
 2993DOPC   C4A35118   0.689  14.510  13.268  0.1262 -0.0029 -0.1812
 2993DOPC   C1B35119   0.808  15.290  14.226  0.1013  0.2449  0.0193
 2993DOPC   D2B35120   1.201  15.466  14.047 -0.0412  0.3218 -0.0186
 2993DOPC   C3B35121   1.286  15.803  13.802 -0.1945 -0.0844 -0.3828
 2993DOPC   C4B35122   1.227  16.088  13.515  0.0619  0.1884 -0.3262
 2994DOPE   NH335123  31.252  14.438  14.215 -0.0570 -0.0765 -0.1259
 2994DOPE   PO435124  31.115  14.156  14.299 -0.0827 -0.0760  0.1327
 2994DOPE   GL135125  31.013  14.179  13.871 -0.0083  0.5415  0.4350
 2994DOPE   GL235126  31.282  14.204  13.773 -0.4862 -0.2420  0.1612
 2994DOPE   C1A35127  31.026  13.869  13.490 -0.0638 -0.0336  0.3460
 2994DOPE   D2A35128  31.021  13.609  13.092 -0.1707  0.0579 -0.1350
 2994DOPE   C3A35129  31.218  13.728  12.629 -0.3872  0.1318  0.1452
 2994DOPE   C4A35130  31.372  13.720  12.202  0.1279  0.1975  0.2986
 2994DOPE   C1B35131  31.316  14.304  13.356 -0.1782  0.0129  0.2789
 2994DOPE   D2B35132  31.373  14.522  12.994 -0.3039  0.1903  0.3151
 2994DOPE   C3B35133  31.552  14.943  13.050 -0.0899  0.0524 -0.3965
 2994DOPE   C4B35134  31.829  15.116  13.362 -0.1930 -0.1923 -0.3414
 2995DOPE   NH335135   1.200  17.593  14.400  0.1283  0.3571  0.1283
 2995DOPE   PO435136   1.125  17.258  14.389  0.1512  0.1249  0.5377
 2995DOPE   GL135137   0.863  17.161  14.122 -0.1186 -0.2357  0.2743
 2995DOPE   GL235138   0.827  16.926  14.023  0.1046 -0.0257 -0.2082
 2995DOPE   C1A35139   0.407  17.307  14.074 -0.3327 -0.5212  0.0036
 2995DOPE   D2A35140   0.190  17.693  13.992 -0.4470 -0.0733  0.1654
 2995DOPE   C3A35141   0.003  17.822  13.625 -0.2354  0.2289 -0.2568
 2995DOPE   C4A35142  -0.146  17.832  13.186 -0.1306  0.1918  0.2942
 2995DOPE   C1B35143   0.700  17.111  13.615 -0.1921  0.0897  0.1005
 2995DOPE   D2B35144   0.744  17.411  13.350 -0.1129 -0.1433 -0.0418
 2995DOPE   C3B35145   0.708  17.462  12.883  0.2730 -0.0810  0.0220
 2995DOPE   C4B35146   0.751  17.710  12.513  0.2743 -0.0018 -0.2555
 2996DOPS   CNO35147  24.872  16.384  13.733  0.1457 -0.0776  0.0624
 2996DOPS   PO435148  24.751  16.092  13.506 -0.0086 -0.1265  0.0997
 2996DOPS   GL135149  24.932  16.050  13.094  0.0967 -0.1594  0.0167
 2996DOPS   GL235150  25.156  15.883  13.146  0.3341 -0.2242  0.1561
 2996DOPS   C1A35151  24.849  16.224  12.652 -0.1978 -0.1783 -0.1184
 2996DOPS   D2A35152  24.910  16.501  12.316 -0.2189  0.0299 -0.1075
 2996DOPS   C3A35153  25.264  16.725  12.099  0.0534  0.1930  0.1335
 2996DOPS   C4A35154  25.176  17.149  11.888 -0.0743 -0.0569  0.1124
 2996DOPS   C1B35155  25.322  16.213  12.852  0.1320  0.2018  0.0357
 2996DOPS   D2B35156  25.512  16.403  12.462 -0.1152 -0.4256 -0.0204
 2996DOPS   C3B35157  25.773  16.746  12.318 -0.0873  0.1322  0.0695
 2996DOPS   C4B35158  26.190  17.011  12.350  0.0115  0.3136 -0.2250
 2997POSM   NC335159  29.807  23.302  15.063 -0.0529 -0.2367  0.1269
 2997POSM   PO435160  29.655  22.948  15.066 -0.2346 -0.1810  0.0001
 2997POSM   AM135161  29.606  22.922  14.728 -0.0254 -0.3964 -0.0372
 2997POSM   AM235162  29.524  23.089  14.498 -0.1526  0.1760  0.1422
 2997POSM   T1A35163  29.842  22.779  14.297  0.1125  0.0199  0.3015
 2997POSM   C2A35164  29.866  22.558  13.909 -0.3870 -0.0571  0.2445
 2997POSM   C3A35165  29.539  22.517  13.582 -0.0846 -0.0059 -0.1841
 2997POSM   C1B35166  29.373  23.317  14.279 -0.0760  0.0828  0.3003
 2997POSM   D2B35167  29.357  23.512  13.868  0.0453  0.2056 -0.2002
 2997POSM   C3B35168  29.176  23.974  13.818 -0.0279  0.1325  0.0691
 2997POSM   C4B35169  29.143  24.130  13.427  0.0684 -0.1149 -0.1670
 2998DOPC   NC335170  27.339  14.541  13.651  0.1571  0.1249 -0.0389
 2998DOPC   PO435171  27.655  14.716  13.453 -0.1332  0.0156  0.0366
 2998DOPC   GL135172  27.403  14.752  13.088  0.0961  0.0391 -0.0758
 2998DOPC   GL235173  27.440  15.047  13.081 -0.0839  0.2118  0.0029
 2998DOPC   C1A35174  27.051  14.839  12.785  0.1257 -0.2281  0.0165
 2998DOPC   D2A35175  26.955  14.670  12.332  0.0119 -0.0591  0.3013
 2998DOPC   C3A35176  27.062  14.496  11.966  0.2340  0.2023  0.0810
 2998DOPC   C4A35177  27.316  14.270  11.649  0.1160  0.3979 -0.0559
 2998DOPC   C1B35178  27.374  15.220  12.670 -0.1520  0.1104 -0.2267
 2998DOPC   D2B35179  27.218  15.464  12.239  0.0045 -0.1416  0.2800
 2998DOPC   C3B35180  26.842  15.568  12.008 -0.0160  0.1109  0.1937
 2998DOPC   C4B35181  26.451  15.800  11.872  0.0099  0.4192  0.1938
 2999DOPC   NC335182  28.599  17.225  14.052  0.4456 -0.2213  0.1594
 2999DOPC   PO435183  28.804  16.931  14.236  0.1106  0.1038 -0.2670
 2999DOPC   GL135184  28.641  16.759  13.909  0.0646  0.3287  0.1564
 2999DOPC   GL235185  28.876  16.625  13.833 -0.1992 -0.0092  0.0952
 2999DOPC   C1A35186  28.560  16.715  13.462  0.1283 -0.2111  0.2294
 2999DOPC   D2A35187  28.582  16.928  13.073 -0.0548 -0.0603  0.0104
 2999DOPC   C3A35188  28.847  17.114  12.738 -0.1079  0.0063  0.2022
 2999DOPC   C4A35189  29.231  17.092  12.492  0.0879  0.0602 -0.1401
 2999DOPC   C1B35190  29.129  16.600  13.477 -0.1650 -0.0170 -0.0224
 2999DOPC   D2B35191  28.815  16.481  13.107 -0.2587 -0.3152  0.2145
 2999DOPC   C3B35192  28.756  16.640  12.723 -0.1442  0.0101  0.0082
 2999DOPC   C4B35193  28.823  16.752  12.262 -0.3133 -0.0937 -0.0003
 3000DOPS   CNO35194  28.800  11.257  14.374 -0.0256 -0.1295 -0.0456
 3000DOPS   PO435195  28.882  11.613  14.483  0.3408 -0.2638 -0.3668
 3000DOPS   GL135196  28.791  11.820  14.117 -0.0371 -0.2119 -0.2007
 3000DOPS   GL235197  28.871  11.556  13.955  0.1813  0.0254  0.0278
 3000DOPS   C1A35198  28.881  11.959  13.689 -0.1105  0.0763  0.0145
 3000DOPS   D2A35199  28.943  11.924  13.249  0.1623  0.2264 -0.0193
 3000DOPS   C3A35200  28.866  12.341  13.124  0.1938  0.1839 -0.4409
 3000DOPS   C4A35201  29.187  12.699  12.992 -0.0506 -0.0993  0.1119
 3000DOPS   C1B35202  28.967  11.404  13.535  0.2235 -0.1624  0.1564
 3000DOPS   D2B35203  29.023  11.003  13.335  0.0870  0.4072 -0.1370
 3000DOPS   C3B35204  29.166  11.019  12.876 -0.1846 -0.1270 -0.0627
 3000DOPS   C4B35205  29.436  11.174  12.493 -0.0639 -0.2088 -0.0303
 3001DOPC   NC335206   0.117  24.926  14.436 -0.2178  0.1108  0.0956
 3001DOPC   PO435207  -0.250  25.112  14.497 -0.4556  0.0124 -0.1724
 3001DOPC   GL135208  -0.284  24.877  14.191 -0.2234 -0.0806 -0.1174
 3001DOPC   GL235209  -0.321  24.640  14.307 -0.1590  0.2022  0.3245
 3001DOPC   C1A35210  -0.024  25.058  13.854 -0.1847 -0.1294  0.1009
 3001DOPC   D2A35211  -0.043  25.410  13.489  0.0044  0.0301  0.1013
 3001DOPC   C3A35212  -0.264  25.317  13.076  0.2668 -0.1178  0.1463
 3001DOPC   C4A35213  -0.375  25.556  12.693  0.0310 -0.1195 -0.0207
 3001DOPC   C1B35214  -0.274  24.619  13.836 -0.1881  0.0667  0.1382
 3001DOPC   D2B35215  -0.332  24.618  13.337  0.2639  0.0514 -0.0033
 3001DOPC   C3B35216  -0.239  24.737  12.913  0.2035  0.1619 -0.0181
 3001DOPC   C4B35217  -0.403  25.028  12.678 -0.5431  0.1708  0.1466
 3002POSM   NC335218  33.151  15.446  15.270 -0.2282 -0.4107  0.1073
 3002POSM   PO435219  33.049  15.772  15.066  0.0648  0.1257 -0.1052
 3002POSM   AM135220  33.203  15.848  14.781 -0.0454  0.1680  0.3761
 3002POSM   AM235221  33.397  15.850  14.646 -0.3170 -0.1493 -0.1589
 3002POSM   T1A35222  33.080  16.095  14.337  0.1085  0.0666  0.0211
 3002POSM   C2A35223  32.900  16.203  13.927 -0.0694  0.0529  0.0183
 3002POSM   C3A35224  32.896  16.510  13.570 -0.2198 -0.2091 -0.0425
 3002POSM   C1B35225  33.621  16.053  14.540  0.3482  0.1788  0.0994
 3002POSM   D2B35226  33.751  16.212  14.137 -0.3743 -0.3911 -0.0964
 3002POSM   C3B35227  33.797  16.513  13.782  0.0051 -0.1037 -0.1172
 3002POSM   C4B35228  33.747  16.761  13.387  0.3481  0.1776 -0.3846
 3003DOPC   NC335229  31.668  10.370  14.113  0.3096  0.0375 -0.0679
 3003DOPC   PO435230  32.022  10.193  14.177 -0.1406  0.0990  0.4714
 3003DOPC   GL135231  31.767  10.038  13.823  0.0958 -0.2968  0.0423
 3003DOPC   GL235232  31.896  10.245  13.656 -0.2315  0.0865  0.3731
 3003DOPC   C1A35233  31.352  10.150  13.666  0.1605  0.0507  0.1878
 3003DOPC   D2A35234  31.142  10.189  13.212  0.1808  0.0329  0.2371
 3003DOPC   C3A35235  31.051   9.886  12.920  0.0308  0.2298 -0.0921
 3003DOPC   C4A35236  30.914   9.523  13.042 -0.3414  0.1169  0.1362
 3003DOPC   C1B35237  31.721  10.628  13.546  0.0231 -0.0111  0.1662
 3003DOPC   D2B35238  31.425  10.904  13.274 -0.0185  0.2107  0.1000
 3003DOPC   C3B35239  31.558  10.942  12.833 -0.0722  0.3274 -0.2864
 3003DOPC   C4B35240  31.922  10.955  12.677 -0.3797 -0.0673  0.1253
 3004DOPC   NC335241  34.650   9.716  14.525  0.0720  0.0183 -0.0618
 3004DOPC   PO435242  34.304   9.894  14.396  0.0276  0.1032  0.0024
 3004DOPC   GL135243  34.169   9.795  14.062  0.2651 -0.0832  0.1910
 3004DOPC   GL235244  34.376   9.950  13.923  0.4652  0.3693  0.1389
 3004DOPC   C1A35245  34.444   9.585  13.692 -0.0500 -0.0196 -0.0290
 3004DOPC   D2A35246  34.722   9.513  13.329 -0.0216 -0.0926 -0.1093
 3004DOPC   C3A35247  34.853   9.552  12.893 -0.0246  0.1132  0.2015
 3004DOPC   C4A35248  34.872   9.704  12.467  0.2317 -0.2145  0.1114
 3004DOPC   C1B35249  34.356  10.372  13.755  0.1732 -0.0586  0.0556
 3004DOPC   D2B35250  34.454  10.684  13.395 -0.1562 -0.0787  0.0773
 3004DOPC   C3B35251  34.832  10.765  13.133  0.2151 -0.1328 -0.2060
 3004DOPC   C4B35252  35.169  10.735  12.780  0.0847  0.2172 -0.4034
 3005DOPE   NH335253  32.619   8.150  14.292  0.1518  0.2407  0.0696
 3005DOPE   PO435254  32.667   8.486  14.202 -0.2592  0.0606 -0.0846
 3005DOPE   GL135255  32.466   8.824  13.964 -0.4201  0.1746  0.3000
 3005DOPE   GL235256  32.502   9.132  14.093  0.3184  0.0030  0.1608
 3005DOPE   C1A35257  32.608   9.115  13.607  0.1835 -0.0081 -0.1247
 3005DOPE   D2A35258  32.778   9.230  13.238 -0.1583 -0.0274 -0.1963
 3005DOPE   C3A35259  32.897   8.843  13.017 -0.1630  0.1270 -0.0897
 3005DOPE   C4A35260  33.224   8.448  12.971 -0.0899 -0.0577 -0.2121
 3005DOPE   C1B35261  32.385   9.491  13.879 -0.1232  0.1830 -0.3230
 3005DOPE   D2B35262  32.240   9.888  13.748 -0.2528 -0.2024 -0.2385
 3005DOPE   C3B35263  32.148   9.959  13.296  0.2597  0.4784  0.0634
 3005DOPE   C4B35264  32.100  10.222  12.919 -0.0526 -0.2691 -0.1087
 3006POSM   NC335265  34.116  13.489  15.150 -0.3015 -0.1672  0.1647
 3006POSM   PO435266  34.311  13.446  14.797  0.1160  0.0461 -0.0742
 3006POSM   AM135267  34.325  13.462  14.469  0.1096  0.2341  0.0494
 3006POSM   AM235268  34.279  13.229  14.310  0.2768  0.1692 -0.1260
 3006POSM   T1A35269  34.099  13.584  14.018 -0.2171 -0.1021 -0.3290
 3006POSM   C2A35270  33.946  13.411  13.602  0.1213 -0.1019 -0.1332
 3006POSM   C3A35271  33.985  13.441  13.202 -0.2080  0.1534 -0.0647
 3006POSM   C1B35272  34.179  13.082  14.014 -0.1203  0.2946 -0.0055
 3006POSM   D2B35273  33.876  12.949  13.690  0.2117  0.0583  0.3212
 3006POSM   C3B35274  33.909  12.605  13.993 -0.1898  0.0211 -0.1672
 3006POSM   C4B35275  34.229  12.236  14.097  0.2382  0.1050  0.0459
 3007POSM   NC335276  27.209  17.381  13.886 -0.1746  0.0202  0.1867
 3007POSM   PO435277  27.576  17.459  13.857 -0.0770  0.1121 -0.1089
 3007POSM   AM135278  27.560  17.651  13.587  0.0533 -0.2544  0.0528
 3007POSM   AM235279  27.598  17.547  13.323  0.0256  0.5152 -0.1356
 3007POSM   T1A35280  27.320  17.894  13.220  0.0723 -0.1416  0.0637
 3007POSM   C2A35281  27.066  18.138  12.935 -0.2334  0.1127 -0.0738
 3007POSM   C3A35282  26.993  18.497  12.648  0.1809 -0.0641  0.1917
 3007POSM   C1B35283  27.625  17.382  13.077  0.0203  0.2363  0.1243
 3007POSM   D2B35284  27.814  17.340  12.630 -0.0571  0.0924  0.1426
 3007POSM   C3B35285  27.648  17.665  12.319  0.2811 -0.0527 -0.0221
 3007POSM   C4B35286  27.229  17.662  12.122 -0.0595  0.1751 -0.0656
 3008DOPE   NH335287  28.437  13.873  13.789 -0.0501  0.1867 -0.5459
 3008DOPE   PO435288  28.685  13.942  13.639  0.1702  0.3490 -0.0677
 3008DOPE   GL135289  28.670  13.901  13.266  0.1564 -0.1193 -0.2146
 3008DOPE   GL235290  28.466  14.168  13.198  0.0816 -0.0690 -0.1020
 3008DOPE   C1A35291  28.764  13.761  12.828 -0.0477 -0.1620 -0.0125
 3008DOPE   D2A35292  28.656  13.499  12.488  0.1467  0.2013 -0.0293
 3008DOPE   C3A35293  28.990  13.602  12.239  0.0825  0.0974  0.2465
 3008DOPE   C4A35294  29.393  13.816  12.102 -0.0941 -0.1012 -0.1089
 3008DOPE   C1B35295  28.427  14.224  12.733 -0.3005  0.0635  0.0885
 3008DOPE   D2B35296  28.410  14.413  12.293 -0.2739  0.2062 -0.0855
 3008DOPE   C3B35297  28.094  14.227  11.996 -0.1879 -0.1231 -0.1878
 3008DOPE   C4B35298  28.175  13.863  11.704 -0.1255 -0.0069 -0.0564
 3009POSM   NC335299  27.710  12.927  13.958  0.1822 -0.0903 -0.0141
 3009POSM   PO435300  27.688  13.183  13.673 -0.0675  0.1959  0.3373
 3009POSM   AM135301  27.753  13.071  13.345  0.0663 -0.1461 -0.0263
 3009POSM   AM235302  27.661  12.964  13.093  0.0221  0.1900 -0.2708
 3009POSM   T1A35303  28.136  13.028  13.101 -0.1043  0.0173  0.1072
 3009POSM   C2A35304  28.192  12.892  12.660  0.1336  0.2431 -0.2408
 3009POSM   C3A35305  28.437  12.620  12.306  0.4499  0.0405 -0.0639
 3009POSM   C1B35306  27.688  12.743  12.850 -0.0508  0.0871  0.0573
 3009POSM   D2B35307  27.693  12.630  12.374 -0.0121  0.4052 -0.2233
 3009POSM   C3B35308  27.564  12.209  12.261  0.0244 -0.2906 -0.0116
 3009POSM   C4B35309  27.471  11.751  12.146  0.0598 -0.1188  0.0240
 3010DOPE   NH335310  31.387  24.010  15.570 -0.1930  0.3417 -0.2874
 3010DOPE   PO435311  31.188  24.066  15.329 -0.3717 -0.0709 -0.0537
 3010DOPE   GL135312  31.005  24.034  14.936 -0.1199  0.2608 -0.2927
 3010DOPE   GL235313  30.967  23.675  14.797  0.1115  0.0772 -0.4442
 3010DOPE   C1A35314  30.901  24.113  14.538 -0.1696  0.0021  0.2101
 3010DOPE   D2A35315  30.862  24.404  14.161 -0.0009 -0.0207  0.2317
 3010DOPE   C3A35316  30.972  24.500  13.757  0.0210 -0.3650  0.0054
 3010DOPE   C4A35317  31.045  24.288  13.347 -0.2160 -0.2991 -0.0238
 3010DOPE   C1B35318  30.535  23.829  14.684 -0.1918  0.3339 -0.3100
 3010DOPE   D2B35319  30.092  23.858  14.863  0.0384 -0.0443  0.1625
 3010DOPE   C3B35320  29.699  23.763  14.634  0.0224  0.1601 -0.1709
 3010DOPE   C4B35321  29.356  23.806  14.329 -0.0085 -0.0344  0.3560
 3011POSM   NC335322  28.025  14.415  13.554 -0.2093 -0.0258  0.0091
 3011POSM   PO435323  28.066  14.054  13.465  0.1807  0.3700 -0.2209
 3011POSM   AM135324  27.995  13.936  13.161 -0.1227 -0.4892  0.1411
 3011POSM   AM235325  27.707  13.915  13.032 -0.0453 -0.0811  0.1947
 3011POSM   T1A35326  28.204  13.768  12.793 -0.0946  0.1029  0.0152
 3011POSM   C2A35327  28.147  13.855  12.342 -0.1507 -0.0411  0.0306
 3011POSM   C3A35328  27.902  13.571  12.043  0.0199  0.2609 -0.0934
 3011POSM   C1B35329  27.739  13.846  12.734  0.1837 -0.1073 -0.1447
 3011POSM   D2B35330  27.595  13.959  12.289  0.0879  0.2718 -0.0252
 3011POSM   C3B35331  27.600  14.356  12.127  0.0977  0.0246  0.1812
 3011POSM   C4B35332  27.781  14.510  11.779 -0.1243 -0.1288  0.1818
 3012DOPS   CNO35333   2.342  16.758  14.586 -0.1433  0.0730 -0.0957
 3012DOPS   PO435334   2.383  16.699  14.214  0.1848  0.4025 -0.1134
 3012DOPS   GL135335   2.319  16.530  13.778 -0.0595 -0.3136  0.0660
 3012DOPS   GL235336   2.429  16.393  13.564 -0.1301 -0.0147  0.0962
 3012DOPS   C1A35337   2.118  16.701  13.409  0.4119 -0.0570  0.1646
 3012DOPS   D2A35338   2.339  16.643  13.004 -0.0171 -0.0471 -0.1560
 3012DOPS   C3A35339   2.017  16.610  12.692  0.0737 -0.0286 -0.2481
 3012DOPS   C4A35340   2.056  16.451  12.294 -0.3179 -0.0219  0.1653
 3012DOPS   C1B35341   2.176  16.109  13.278  0.2793  0.0593 -0.0205
 3012DOPS   D2B35342   1.959  16.109  12.924  0.1131  0.2165 -0.2903
 3012DOPS   C3B35343   2.239  16.100  12.579  0.0627  0.4254 -0.0411
 3012DOPS   C4B35344   2.616  16.007  12.388  0.2470  0.3606  0.4266
 3013DOPC   NC335345  29.482  21.712  15.004 -0.0364  0.0568  0.0830
 3013DOPC   PO435346  29.506  22.075  14.893 -0.3595 -0.0557 -0.1073
 3013DOPC   GL135347  29.408  21.967  14.482  0.5250 -0.0501  0.0502
 3013DOPC   GL235348  29.339  21.763  14.453  0.1462  0.0254  0.0225
 3013DOPC   C1A35349  29.304  22.230  14.069  0.0155  0.2145  0.3293
 3013DOPC   D2A35350  28.961  22.470  13.810 -0.3468  0.1191  0.1301
 3013DOPC   C3A35351  28.783  22.872  13.604  0.1572  0.1266  0.0882
 3013DOPC   C4A35352  28.905  23.355  13.646 -0.0700 -0.0680 -0.1260
 3013DOPC   C1B35353  29.736  21.648  14.244  0.3542  0.0240 -0.2612
 3013DOPC   D2B35354  29.814  21.406  13.882 -0.0259  0.0413 -0.0250
 3013DOPC   C3B35355  29.930  21.593  13.528 -0.0657  0.0619  0.0150
 3013DOPC   C4B35356  30.020  21.995  13.412  0.0349 -0.0633 -0.1989
 3014DOPS   CNO35357  24.056  22.935  14.489 -0.0606 -0.0718 -0.0994
 3014DOPS   PO435358  24.097  23.290  14.620 -0.0455 -0.1219  0.0781
 3014DOPS   GL135359  24.226  23.335  14.242 -0.1425 -0.0627  0.0217
 3014DOPS   GL235360  24.377  23.543  14.257 -0.2000  0.0951 -0.2656
 3014DOPS   C1A35361  23.890  23.432  13.988 -0.0657 -0.0707  0.2927
 3014DOPS   D2A35362  23.907  23.258  13.591 -0.1214  0.1120 -0.2391
 3014DOPS   C3A35363  23.690  23.293  13.188 -0.2154 -0.2633  0.0085
 3014DOPS   C4A35364  23.375  23.025  13.019 -0.2219  0.0298  0.1085
 3014DOPS   C1B35365  24.424  23.596  13.765 -0.1667 -0.1383 -0.0531
 3014DOPS   D2B35366  24.508  23.237  13.544 -0.0945  0.1384 -0.0184
 3014DOPS   C3B35367  24.196  23.084  13.200  0.3013 -0.1333 -0.2144
 3014DOPS   C4B35368  23.890  22.930  12.885  0.2940  0.0829 -0.1169
 3015DOPE   NH335369  31.262  21.774  14.900 -0.4327 -0.0549  0.0080
 3015DOPE   PO435370  30.918  21.795  14.925  0.1188 -0.0404  0.0459
 3015DOPE   GL135371  30.664  21.786  14.560 -0.4718  0.1388  0.3586
 3015DOPE   GL235372  30.354  21.740  14.469  0.0694  0.2254 -0.1953
 3015DOPE   C1A35373  30.756  21.523  14.151 -0.1568  0.0949 -0.1214
 3015DOPE   D2A35374  30.693  21.431  13.718 -0.3038 -0.2426 -0.0369
 3015DOPE   C3A35375  30.719  20.964  13.611 -0.3204  0.0852 -0.1563
 3015DOPE   C4A35376  30.684  20.517  13.480  0.0434 -0.1836 -0.2387
 3015DOPE   C1B35377  30.540  21.930  14.087 -0.2292  0.2044  0.1132
 3015DOPE   D2B35378  30.790  22.204  13.872 -0.0218 -0.3478 -0.0061
 3015DOPE   C3B35379  31.003  21.989  13.463 -0.1805 -0.0063  0.3580
 3015DOPE   C4B35380  31.250  21.874  13.107  0.0741  0.2291  0.0153
 3016DOPC   NC335381  24.305  18.591  13.498 -0.0363 -0.4292  0.2209
 3016DOPC   PO435382  24.157  18.838  13.738 -0.0318 -0.0727 -0.1892
 3016DOPC   GL135383  24.272  19.094  13.489  0.1820  0.0251 -0.2352
 3016DOPC   GL235384  24.507  19.101  13.396 -0.1535  0.0352  0.1483
 3016DOPC   C1A35385  24.167  19.225  13.074  0.2722 -0.2359  0.3660
 3016DOPC   D2A35386  24.194  19.172  12.630 -0.3305 -0.0423 -0.3590
 3016DOPC   C3A35387  24.545  18.934  12.489  0.3525 -0.1004 -0.3075
 3016DOPC   C4A35388  24.563  18.526  12.488 -0.0201  0.1242 -0.1093
 3016DOPC   C1B35389  24.445  19.555  13.360 -0.2727 -0.0678 -0.0050
 3016DOPC   D2B35390  24.423  19.909  13.055 -0.5752  0.2839  0.1399
 3016DOPC   C3B35391  24.324  19.916  12.588  0.1112  0.0834  0.1262
 3016DOPC   C4B35392  24.320  19.965  12.094  0.1768 -0.2921  0.0880
 3017DOPS   CNO35393  22.267  13.196  13.305  0.2656  0.0300  0.1007
 3017DOPS   PO435394  22.603  13.370  13.193  0.2604 -0.0521 -0.0985
 3017DOPS   GL135395  22.768  13.349  12.837 -0.0265  0.1766 -0.1344
 3017DOPS   GL235396  22.739  13.640  12.748  0.0916 -0.0854  0.2976
 3017DOPS   C1A35397  22.517  13.307  12.473  0.0114  0.0402  0.2344
 3017DOPS   D2A35398  22.561  13.389  11.993 -0.1627  0.1644  0.0451
 3017DOPS   C3A35399  22.368  13.735  11.911  0.1189  0.2385  0.0614
 3017DOPS   C4A35400  22.141  14.114  12.195  0.0504 -0.3054  0.3905
 3017DOPS   C1B35401  23.198  13.809  12.619 -0.0899  0.1065  0.0451
 3017DOPS   D2B35402  23.311  13.843  12.171 -0.1376  0.0311 -0.0867
 3017DOPS   C3B35403  22.941  13.847  11.842 -0.2391 -0.2574  0.5285
 3017DOPS   C4B35404  22.749  13.539  11.586 -0.0120  0.1933  0.3072
 3018DOPC   NC335405  31.235   9.990  14.562 -0.0124 -0.2149  0.0845
 3018DOPC   PO435406  31.217  10.271  14.269 -0.0794  0.3438  0.1102
 3018DOPC   GL135407  31.036  10.477  14.027 -0.1267 -0.0194  0.4383
 3018DOPC   GL235408  30.754  10.571  13.953  0.1170  0.0205  0.1239
 3018DOPC   C1A35409  31.098  10.548  13.591 -0.0091  0.3397 -0.0710
 3018DOPC   D2A35410  30.965  10.686  13.149  0.0844  0.2731  0.1319
 3018DOPC   C3A35411  30.588  10.745  12.862  0.0615 -0.0735 -0.0506
 3018DOPC   C4A35412  30.327  10.439  12.638 -0.2063  0.0594 -0.1563
 3018DOPC   C1B35413  30.605  10.499  13.516 -0.0583 -0.0199  0.3806
 3018DOPC   D2B35414  30.336  10.334  13.204 -0.1684 -0.2413 -0.2388
 3018DOPC   C3B35415  30.683  10.223  12.947 -0.1289 -0.4463  0.0049
 3018DOPC   C4B35416  31.068  10.417  12.783 -0.0194 -0.5024  0.1180
 3019DOPE   NH335417  32.539  22.491  14.479 -0.1036 -0.2048 -0.1156
 3019DOPE   PO435418  32.320  22.318  14.663 -0.0918 -0.0688 -0.1953
 3019DOPE   GL135419  32.304  22.145  14.239 -0.0461 -0.1771 -0.0908
 3019DOPE   GL235420  32.268  22.428  14.068 -0.2741 -0.3056  0.0504
 3019DOPE   C1A35421  32.448  21.771  13.942  0.2003  0.0349 -0.1439
 3019DOPE   D2A35422  32.665  21.497  13.569 -0.1708 -0.1169  0.1206
 3019DOPE   C3A35423  32.448  21.320  13.291 -0.0538 -0.4075  0.2916
 3019DOPE   C4A35424  32.087  21.263  12.971 -0.0717  0.2165 -0.3602
 3019DOPE   C1B35425  32.260  22.532  13.665  0.1343  0.0933 -0.2747
 3019DOPE   D2B35426  32.406  22.298  13.230 -0.3457  0.1152  0.0485
 3019DOPE   C3B35427  32.659  21.899  13.206  0.0676  0.0742 -0.0196
 3019DOPE   C4B35428  32.922  21.578  13.018 -0.1532 -0.1984 -0.2824
 3020POSM   NC335429  30.352  19.589  14.775  0.1599  0.0665  0.3807
 3020POSM   PO435430  29.974  19.493  14.876  0.0247 -0.0025  0.1435
 3020POSM   AM135431  29.933  19.754  14.661  0.1179 -0.2604 -0.1796
 3020POSM   AM235432  29.723  19.788  14.488  0.2204 -0.0091 -0.0710
 3020POSM   T1A35433  30.215  20.073  14.473 -0.0006  0.0833 -0.3420
 3020POSM   C2A35434  30.598  20.382  14.439 -0.0184 -0.1350 -0.0628
 3020POSM   C3A35435  30.876  20.774  14.420  0.1973 -0.1280  0.1645
 3020POSM   C1B35436  29.818  19.841  14.201 -0.4180  0.2340  0.3100
 3020POSM   D2B35437  29.808  19.818  13.728 -0.2534  0.0554 -0.1499
 3020POSM   C3B35438  30.104  19.615  13.439  0.0629 -0.0508  0.0971
 3020POSM   C4B35439  30.006  19.388  13.050  0.2140 -0.2041 -0.0717
 3021DOPE   NH335440  27.870  21.769  15.295 -0.1721 -0.0337  0.0317
 3021DOPE   PO435441  28.157  21.864  15.136 -0.2201 -0.2296 -0.0099
 3021DOPE   GL135442  28.232  22.149  14.859 -0.2342 -0.0235  0.0062
 3021DOPE   GL235443  28.530  22.125  14.808  0.1465  0.0102  0.1208
 3021DOPE   C1A35444  28.103  22.063  14.416  0.0731 -0.1607  0.0873
 3021DOPE   D2A35445  28.128  22.048  13.948 -0.1155 -0.1189 -0.0162
 3021DOPE   C3A35446  27.705  21.900  13.860 -0.1704 -0.1387  0.0042
 3021DOPE   C4A35447  27.624  22.048  13.442  0.2530  0.0646  0.4860
 3021DOPE   C1B35448  28.557  21.826  14.450 -0.2398  0.2247 -0.1639
 3021DOPE   D2B35449  28.424  21.630  14.100  0.2494 -0.0669 -0.1172
 3021DOPE   C3B35450  28.219  21.251  14.234  0.0747 -0.3023  0.0984
 3021DOPE   C4B35451  28.140  20.805  14.263 -0.2195  0.5167  0.2883
 3022POSM   NC335452  31.246  21.550  15.565 -0.2104  0.0982 -0.3466
 3022POSM   PO435453  31.174  21.353  15.253  0.0726 -0.1506  0.1023
 3022POSM   AM135454  31.048  21.328  14.918 -0.1013  0.0991  0.0073
 3022POSM   AM235455  30.799  21.288  14.794 -0.1439  0.1195 -0.1249
 3022POSM   T1A35456  31.168  21.225  14.425  0.1391 -0.0371 -0.0452
 3022POSM   C2A35457  31.132  21.091  13.993 -0.0963  0.0236  0.1302
 3022POSM   C3A35458  31.217  20.713  13.705 -0.0597 -0.1226  0.0998
 3022POSM   C1B35459  30.661  21.174  14.538 -0.0304 -0.0660 -0.0193
 3022POSM   D2B35460  30.630  20.996  14.083 -0.2697  0.0291  0.1911
 3022POSM   C3B35461  30.781  20.565  14.027  0.3058  0.1227 -0.1738
 3022POSM   C4B35462  30.998  20.228  13.851  0.1295  0.0542 -0.1940
 3023DOPC   NC335463  34.037  17.884  14.483 -0.2521 -0.3325 -0.0533
 3023DOPC   PO435464  34.052  18.303  14.636  0.1145 -0.1069  0.2929
 3023DOPC   GL135465  33.968  18.318  14.227 -0.1956  0.2287  0.3748
 3023DOPC   GL235466  33.668  18.311  14.272  0.1746 -0.1899  0.0556
 3023DOPC   C1A35467  34.179  18.442  13.805 -0.3520  0.1526 -0.2978
 3023DOPC   D2A35468  34.337  18.244  13.427 -0.0894 -0.1346  0.2309
 3023DOPC   C3A35469  34.321  18.431  12.999  0.1911 -0.0745 -0.0570
 3023DOPC   C4A35470  34.455  18.575  12.598 -0.0633 -0.0244 -0.1564
 3023DOPC   C1B35471  33.628  18.427  13.837 -0.0799  0.1119  0.1848
 3023DOPC   D2B35472  33.464  18.188  13.494 -0.0894 -0.0028 -0.1303
 3023DOPC   C3B35473  33.496  18.270  13.026  0.3552 -0.1267 -0.0901
 3023DOPC   C4B35474  33.338  18.524  12.699  0.0413 -0.0952  0.4705
 3024DOPE   NH335475  33.367  23.132  14.462 -0.0569  0.1396 -0.1429
 3024DOPE   PO435476  33.614  23.107  14.282 -0.2000 -0.1811  0.0463
 3024DOPE   GL135477  33.570  23.487  14.056 -0.5795  0.3518  0.0321
 3024DOPE   GL235478  33.446  23.322  13.848  0.0279 -0.1021 -0.0210
 3024DOPE   C1A35479  33.838  23.621  13.707 -0.0753 -0.1114  0.0382
 3024DOPE   D2A35480  34.121  23.483  13.327  0.0714 -0.2175  0.0230
 3024DOPE   C3A35481  34.458  23.821  13.313  0.0117  0.0315 -0.1031
 3024DOPE   C4A35482  34.641  24.213  13.144 -0.1313  0.0775 -0.2234
 3024DOPE   C1B35483  33.230  23.321  13.476  0.0039  0.1293  0.3839
 3024DOPE   D2B35484  32.798  23.188  13.339  0.0121  0.0854 -0.2355
 3024DOPE   C3B35485  32.465  22.866  13.289  0.0987 -0.1177  0.1278
 3024DOPE   C4B35486  32.126  22.683  13.107  0.0469 -0.0030  0.1631
 3025POSM   NC335487  32.238  12.673  14.216 -0.5004  0.0760 -0.1076
 3025POSM   PO435488  32.206  13.012  14.493  0.2880 -0.3664 -0.0999
 3025POSM   AM135489  32.142  13.146  14.172  0.4025  0.0506  0.0351
 3025POSM   AM235490  32.285  13.194  13.948 -0.0184 -0.0404  0.0564
 3025POSM   T1A35491  32.056  13.589  13.969  0.3828  0.4608 -0.0371
 3025POSM   C2A35492  32.048  13.717  13.543 -0.3720 -0.1761  0.2467
 3025POSM   C3A35493  32.253  13.915  13.182 -0.2686  0.2830  0.1945
 3025POSM   C1B35494  32.126  13.170  13.650 -0.1350  0.0229 -0.0401
 3025POSM   D2B35495  32.197  12.930  13.294  0.3398 -0.1533 -0.0164
 3025POSM   C3B35496  32.499  12.598  13.195  0.0405 -0.1090  0.1513
 3025POSM   C4B35497  32.488  12.177  13.008 -0.0316 -0.2963  0.0136
 3026DOPE   NH335498   0.778  21.762  14.226  0.1168  0.1462  0.2084
 3026DOPE   PO435499   0.579  22.003  14.195 -0.0426  0.0821 -0.0336
 3026DOPE   GL135500   0.545  21.932  13.798 -0.4432  0.3329  0.2453
 3026DOPE   GL235501   0.861  21.906  13.699  0.1814 -0.0049 -0.3776
 3026DOPE   C1A35502   0.304  21.920  13.417 -0.1799 -0.0722 -0.1770
 3026DOPE   D2A35503   0.277  22.065  12.964  0.1859 -0.1596  0.1331
 3026DOPE   C3A35504   0.062  22.422  12.814  0.1229  0.1359 -0.1450
 3026DOPE   C4A35505  -0.104  22.837  12.772  0.2288  0.1478 -0.2172
 3026DOPE   C1B35506   0.834  21.923  13.235 -0.3517 -0.2524 -0.1022
 3026DOPE   D2B35507   0.756  21.891  12.815  0.1099  0.0883  0.0364
 3026DOPE   C3B35508   0.849  21.552  12.605 -0.1406 -0.1363  0.1125
 3026DOPE   C4B35509   1.176  21.229  12.683 -0.0015 -0.0530 -0.0894
 3027DOPE   NH335510  26.339  12.785  14.264  0.0643 -0.0667 -0.0650
 3027DOPE   PO435511  26.368  13.063  14.077  0.0984 -0.2711 -0.1742
 3027DOPE   GL135512  26.237  13.243  13.742  0.1146 -0.4961  0.0749
 3027DOPE   GL235513  26.504  13.463  13.687 -0.0471 -0.5168  0.2383
 3027DOPE   C1A35514  25.929  13.354  13.450 -0.1228 -0.0530 -0.0956
 3027DOPE   D2A35515  25.633  13.386  13.137  0.2118 -0.1307 -0.1565
 3027DOPE   C3A35516  25.538  12.915  13.036 -0.0726 -0.1187 -0.1772
 3027DOPE   C4A35517  25.725  12.523  13.014 -0.1039 -0.2615  0.2385
 3027DOPE   C1B35518  26.500  13.712  13.245  0.0816  0.0284 -0.2012
 3027DOPE   D2B35519  26.665  14.097  13.058 -0.0790  0.1854  0.1046
 3027DOPE   C3B35520  26.467  14.218  12.673  0.2029 -0.0002  0.0090
 3027DOPE   C4B35521  26.585  14.299  12.260 -0.1613 -0.1551  0.2694
 3028DOPE   NH335522  33.956  19.513  14.543  0.1833 -0.1469 -0.0404
 3028DOPE   PO435523  33.877  19.182  14.559  0.0624  0.1649 -0.0903
 3028DOPE   GL135524  33.959  19.150  14.178  0.3656 -0.0541  0.1549
 3028DOPE   GL235525  34.035  18.840  14.172  0.0222  0.0790  0.1884
 3028DOPE   C1A35526  33.831  19.373  13.823  0.2730 -0.0733 -0.1419
 3028DOPE   D2A35527  33.606  19.549  13.520  0.0162  0.1775 -0.1686
 3028DOPE   C3A35528  33.626  19.788  13.142 -0.3190  0.0294  0.1139
 3028DOPE   C4A35529  33.593  20.169  12.974 -0.1799 -0.3198 -0.0738
 3028DOPE   C1B35530  34.215  19.035  13.829 -0.2145 -0.4243 -0.0027
 3028DOPE   D2B35531  34.433  19.438  13.619 -0.3051  0.1365  0.1634
 3028DOPE   C3B35532  34.476  19.286  13.204  0.0016 -0.1886  0.0615
 3028DOPE   C4B35533  34.717  19.134  12.851  0.2234  0.0175  0.3731
 3029DOPE   NH335534  28.590  12.161  14.425 -0.3086  0.2591 -0.0532
 3029DOPE   PO435535  28.906  12.252  14.389  0.1410  0.2119  0.1931
 3029DOPE   GL135536  28.843  12.241  14.059  0.3071 -0.1562  0.1562
 3029DOPE   GL235537  29.067  12.421  13.937  0.2213  0.1002  0.0283
 3029DOPE   C1A35538  28.450  12.100  13.854 -0.0439 -0.0531 -0.1670
 3029DOPE   D2A35539  28.182  12.200  13.489 -0.2162  0.0856  0.0080
 3029DOPE   C3A35540  28.415  12.207  13.064 -0.1250 -0.1301 -0.0075
 3029DOPE   C4A35541  28.670  11.912  12.816  0.3545 -0.0987 -0.0490
 3029DOPE   C1B35542  28.706  12.423  13.618 -0.3144 -0.2029  0.0100
 3029DOPE   D2B35543  28.436  12.685  13.344  0.1811  0.0343  0.4607
 3029DOPE   C3B35544  28.549  12.662  12.872  0.2150 -0.2801  0.2943
 3029DOPE   C4B35545  28.782  12.351  12.633 -0.0070  0.3321 -0.0084
 3030POSM   NC335546  34.662  13.842  14.787 -0.0387  0.1674  0.1763
 3030POSM   PO435547  34.521  14.176  14.758 -0.1965  0.2975  0.3090
 3030POSM   AM135548  34.480  14.188  14.420 -0.1490  0.1504 -0.4111
 3030POSM   AM235549  34.551  14.349  14.221 -0.1035  0.0677  0.2291
 3030POSM   T1A35550  34.379  13.996  13.944 -0.1321 -0.0716 -0.0706
 3030POSM   C2A35551  34.467  13.643  13.713  0.0254  0.1457  0.0350
 3030POSM   C3A35552  34.378  13.197  13.512 -0.3311  0.0444  0.0558
 3030POSM   C1B35553  34.814  14.453  13.969 -0.0325 -0.1054 -0.3310
 3030POSM   D2B35554  35.220  14.590  13.803  0.3412  0.2094 -0.1328
 3030POSM   C3B35555  35.347  14.154  13.630 -0.0820 -0.3604 -0.3781
 3030POSM   C4B35556  35.337  14.015  13.223 -0.3273 -0.1053  0.1224
 3031DOPE   NH335557  33.147  21.876  14.405 -0.0638  0.1691 -0.0946
 3031DOPE   PO435558  33.422  22.053  14.429  0.0367  0.0551  0.3519
 3031DOPE   GL135559  33.320  22.179  14.103  0.6515 -0.4768 -0.3998
 3031DOPE   GL235560  33.552  22.347  14.028  0.4096 -0.0498 -0.0525
 3031DOPE   C1A35561  33.247  22.290  13.633  0.0905  0.0913 -0.4011
 3031DOPE   D2A35562  33.085  22.167  13.192  0.1283 -0.1162 -0.2987
 3031DOPE   C3A35563  33.433  21.956  12.953  0.2879  0.2999  0.0036
 3031DOPE   C4A35564  33.686  21.610  13.003  0.0612 -0.0576 -0.0410
 3031DOPE   C1B35565  33.763  22.380  13.611  0.0017 -0.0011 -0.0430
 3031DOPE   D2B35566  34.007  22.227  13.188 -0.3999  0.1862 -0.0736
 3031DOPE   C3B35567  34.239  22.574  12.950  0.0040 -0.2966  0.0874
 3031DOPE   C4B35568  34.453  22.498  12.538 -0.3179 -0.0732 -0.0696
 3032DOPE   NH335569  33.342  22.593  14.401 -0.0899  0.2014 -0.0568
 3032DOPE   PO435570  33.091  22.681  14.229 -0.1174 -0.1596 -0.2789
 3032DOPE   GL135571  32.980  22.764  13.752 -0.0867  0.0811 -0.0138
 3032DOPE   GL235572  32.748  22.670  13.677 -0.0239 -0.3275 -0.2974
 3032DOPE   C1A35573  33.279  22.757  13.390  0.0913 -0.1753 -0.1859
 3032DOPE   D2A35574  33.470  22.447  13.155 -0.3087  0.1529  0.1165
 3032DOPE   C3A35575  33.750  22.643  12.781 -0.1051 -0.1003  0.5913
 3032DOPE   C4A35576  34.035  22.946  12.499 -0.0265 -0.1929 -0.1413
 3032DOPE   C1B35577  32.826  22.576  13.216 -0.2116  0.2112 -0.2293
 3032DOPE   D2B35578  32.781  22.472  12.783 -0.0672 -0.2025  0.0719
 3032DOPE   C3B35579  33.210  22.380  12.663  0.1730  0.0622 -0.3592
 3032DOPE   C4B35580  33.562  22.299  12.408 -0.2182 -0.1699  0.0540
 3033POSM   NC335581  32.136  14.438  14.083 -0.1698  0.0835 -0.0935
 3033POSM   PO435582  31.775  14.488  14.326 -0.0197  0.0460  0.2144
 3033POSM   AM135583  31.666  14.677  14.064  0.2418  0.1190  0.0619
 3033POSM   AM235584  31.637  14.568  13.781  0.0825 -0.0144 -0.1368
 3033POSM   T1A35585  31.508  15.092  13.768  0.2242  0.2885 -0.0670
 3033POSM   C2A35586  31.584  15.576  13.639  0.0685  0.4184  0.1695
 3033POSM   C3A35587  31.477  15.808  13.202  0.1081  0.2181 -0.5229
 3033POSM   C1B35588  31.793  14.595  13.458  0.1370  0.2034 -0.2007
 3033POSM   D2B35589  32.000  14.632  13.044  0.0189  0.2757 -0.1989
 3033POSM   C3B35590  32.212  14.552  12.613  0.1434 -0.0802 -0.2499
 3033POSM   C4B35591  32.285  14.316  12.224 -0.1179 -0.3231 -0.0686
 3034DOPC   NC335592  27.496  19.270  14.402  0.3138 -0.1000  0.1603
 3034DOPC   PO435593  27.771  19.140  14.150 -0.1527  0.0441 -0.1165
 3034DOPC   GL135594  27.713  19.210  13.778  0.1120  0.2174 -0.3022
 3034DOPC   GL235595  27.458  19.409  13.833 -0.0853 -0.0533  0.0633
 3034DOPC   C1A35596  27.694  18.907  13.429 -0.0521  0.0461 -0.1948
 3034DOPC   D2A35597  27.828  18.780  13.041 -0.0045 -0.1306  0.2316
 3034DOPC   C3A35598  27.882  18.727  12.570 -0.1714 -0.0762  0.0089
 3034DOPC   C4A35599  28.194  18.825  12.216 -0.1745  0.1453  0.2324
 3034DOPC   C1B35600  27.700  19.744  13.605  0.1943  0.1524 -0.4456
 3034DOPC   D2B35601  27.874  20.082  13.373 -0.3628  0.1531  0.0803
 3034DOPC   C3B35602  28.283  20.254  13.277 -0.0369 -0.1393 -0.0487
 3034DOPC   C4B35603  28.448  20.469  12.935 -0.1261 -0.2465 -0.1516
 3035DOPE   NH335604  29.861  13.249  14.535  0.0526  0.2452  0.1887
 3035DOPE   PO435605  30.096  13.086  14.393 -0.0173 -0.3164 -0.0102
 3035DOPE   GL135606  30.104  13.207  13.974  0.3666  0.1142  0.2670
 3035DOPE   GL235607  30.238  12.948  13.833 -0.2108 -0.0409 -0.3107
 3035DOPE   C1A35608  30.092  13.333  13.502  0.3011 -0.1542 -0.0007
 3035DOPE   D2A35609  30.034  13.299  13.066 -0.0426  0.0118  0.0936
 3035DOPE   C3A35610  29.759  13.277  12.730  0.1030 -0.0750 -0.0864
 3035DOPE   C4A35611  29.440  13.046  12.477 -0.3564  0.0712  0.0464
 3035DOPE   C1B35612  30.301  12.912  13.371 -0.0870  0.3099 -0.1019
 3035DOPE   D2B35613  30.456  12.709  12.953  0.0110  0.2281 -0.1507
 3035DOPE   C3B35614  30.414  12.424  12.588 -0.0842 -0.3029  0.0087
 3035DOPE   C4B35615  30.125  12.022  12.488 -0.1043 -0.1413  0.0026
 3036DOPC   NC335616   1.709  17.528  13.804  0.0037  0.1753 -0.2375
 3036DOPC   PO435617   1.557  17.730  14.085  0.2506  0.0603  0.2106
 3036DOPC   GL135618   1.510  17.940  13.775 -0.1174  0.0331  0.0331
 3036DOPC   GL235619   1.239  17.987  13.606  0.0244  0.2697  0.1925
 3036DOPC   C1A35620   1.646  17.774  13.343 -0.1086 -0.1489  0.0699
 3036DOPC   D2A35621   1.873  18.003  12.969  0.1554 -0.0294  0.0059
 3036DOPC   C3A35622   1.707  17.781  12.597  0.2137  0.3650  0.0231
 3036DOPC   C4A35623   1.768  17.547  12.195  0.0455  0.3340 -0.4012
 3036DOPC   C1B35624   0.898  17.888  13.278 -0.1936  0.0266 -0.0445
 3036DOPC   D2B35625   0.618  18.009  12.850 -0.2545 -0.0019 -0.1723
 3036DOPC   C3B35626   0.307  18.135  12.524 -0.0048  0.3186 -0.0183
 3036DOPC   C4B35627   0.201  18.569  12.335 -0.2709 -0.0655  0.3538
 3037POSM   NC335628  25.662  11.988  14.320 -0.1465 -0.3995 -0.1084
 3037POSM   PO435629  25.810  11.740  14.103 -0.0185  0.1347  0.1535
 3037POSM   AM135630  25.862  11.709  13.793  0.3749  0.1389 -0.3534
 3037POSM   AM235631  25.826  11.838  13.545 -0.0658  0.0255 -0.0886
 3037POSM   T1A35632  26.292  11.902  13.557 -0.3128 -0.4681  0.0296
 3037POSM   C2A35633  26.682  11.706  13.395 -0.1344 -0.2369  0.2297
 3037POSM   C3A35634  27.001  11.309  13.370 -0.1655  0.0749 -0.2044
 3037POSM   C1B35635  25.886  11.941  13.244 -0.1966  0.1068  0.1876
 3037POSM   D2B35636  25.868  12.081  12.799 -0.0136  0.0622  0.2713
 3037POSM   C3B35637  26.159  11.943  12.493 -0.0662  0.1807  0.2159
 3037POSM   C4B35638  26.478  12.003  12.178 -0.2236 -0.1262 -0.2913
 3038DOPE   NH335639  32.439  13.837  14.493  0.3935  0.1047  0.1293
 3038DOPE   PO435640  32.495  14.138  14.301 -0.1222 -0.1984  0.3056
 3038DOPE   GL135641  32.795  14.238  14.043  0.2930  0.2355  0.2151
 3038DOPE   GL235642  32.878  14.126  13.760 -0.0197  0.0319  0.0194
 3038DOPE   C1A35643  33.127  14.535  13.845 -0.1276  0.1261 -0.2082
 3038DOPE   D2A35644  33.219  14.788  13.482 -0.0146  0.2233  0.0671
 3038DOPE   C3A35645  33.239  14.609  13.104 -0.0012  0.2576  0.3965
 3038DOPE   C4A35646  33.637  14.581  12.900 -0.2242  0.2818  0.0706
 3038DOPE   C1B35647  32.720  14.112  13.363 -0.3209 -0.1724  0.1169
 3038DOPE   D2B35648  32.886  14.224  12.969  0.0320  0.0067  0.2309
 3038DOPE   C3B35649  32.865  13.852  12.666  0.1464  0.1197 -0.2095
 3038DOPE   C4B35650  32.562  13.822  12.321 -0.0007 -0.0081 -0.1689
 3039DOPE   NH335651  33.760  18.713  14.633 -0.0112 -0.1462  0.1476
 3039DOPE   PO435652  33.506  18.552  14.637 -0.0742 -0.2094  0.2629
 3039DOPE   GL135653  33.253  18.638  14.337  0.0082  0.2834  0.2973
 3039DOPE   GL235654  33.495  18.822  14.211 -0.2273  0.1272 -0.1638
 3039DOPE   C1A35655  32.996  18.488  14.053  0.0728 -0.0110  0.0707
 3039DOPE   D2A35656  32.655  18.644  13.759  0.2548  0.2106  0.2807
 3039DOPE   C3A35657  32.492  18.377  13.417  0.3253 -0.3242  0.0512
 3039DOPE   C4A35658  32.315  18.061  13.162  0.0162 -0.0900  0.2091
 3039DOPE   C1B35659  33.541  18.888  13.735 -0.0596  0.4387 -0.2509
 3039DOPE   D2B35660  33.828  18.866  13.426  0.2502 -0.1097  0.0575
 3039DOPE   C3B35661  33.661  18.858  12.967  0.2154  0.3071 -0.3267
 3039DOPE   C4B35662  33.672  18.894  12.511 -0.0402  0.1184 -0.3117
 3040POSM   NC335663  30.396   9.630  15.020 -0.1628 -0.1339  0.0979
 3040POSM   PO435664  30.126   9.331  15.002 -0.0043  0.1926 -0.0961
 3040POSM   AM135665  30.167   9.181  14.699 -0.0579 -0.2053  0.0992
 3040POSM   AM235666  29.934   9.190  14.488 -0.0037 -0.3637  0.1250
 3040POSM   T1A35667  30.311   8.864  14.365 -0.0702  0.0336  0.0161
 3040POSM   C2A35668  30.149   8.831  13.946 -0.1739 -0.1118  0.0056
 3040POSM   C3A35669  30.029   8.574  13.578 -0.0763  0.1207 -0.0934
 3040POSM   C1B35670  29.870   9.287  14.194  0.1733  0.0365  0.3172
 3040POSM   D2B35671  29.591   9.402  13.852  0.0990  0.0870  0.0575
 3040POSM   C3B35672  29.248   9.146  13.884 -0.2750  0.0566 -0.0654
 3040POSM   C4B35673  28.830   9.227  13.744  0.0827  0.0972 -0.0325
 3041DOPS   CNO35674  31.728  12.234  14.674  0.0252  0.0010 -0.3221
 3041DOPS   PO435675  31.803  12.364  14.317 -0.0664 -0.2402 -0.1101
 3041DOPS   GL135676  31.704  12.347  13.891  0.4566 -0.0483  0.4548
 3041DOPS   GL235677  31.654  12.090  13.697  0.2152 -0.2835 -0.0959
 3041DOPS   C1A35678  31.888  12.584  13.534 -0.0186 -0.2302  0.0852
 3041DOPS   D2A35679  31.751  12.771  13.155 -0.1247  0.0961 -0.1294
 3041DOPS   C3A35680  31.927  13.109  12.855  0.0573  0.1927  0.0156
 3041DOPS   C4A35681  32.227  13.025  12.487 -0.0080 -0.1801 -0.1550
 3041DOPS   C1B35682  31.765  12.120  13.252 -0.0799  0.0659 -0.0521
 3041DOPS   D2B35683  31.834  11.933  12.853  0.1074  0.0339 -0.0873
 3041DOPS   C3B35684  31.532  11.746  12.584  0.3559 -0.0512  0.0780
 3041DOPS   C4B35685  31.539  11.625  12.197  0.3177  0.1902  0.0179
 3042DOPC   NC335686  25.882  25.226  15.362 -0.0556  0.1539  0.2377
 3042DOPC   PO435687  25.797  25.617  15.300 -0.0670  0.1116  0.3641
 3042DOPC   GL135688  25.820  25.676  14.905  0.2085  0.5482 -0.2809
 3042DOPC   GL235689  25.887  25.433  14.782 -0.3871 -0.0816  0.2019
 3042DOPC   C1A35690  25.583  25.716  14.511  0.2319  0.1068  0.0607
 3042DOPC   D2A35691  25.373  25.957  14.134  0.0676 -0.1283 -0.2428
 3042DOPC   C3A35692  25.324  25.726  13.709 -0.0841 -0.0303  0.0702
 3042DOPC   C4A35693  24.994  25.730  13.342 -0.0513 -0.0423  0.4149
 3042DOPC   C1B35694  25.962  25.328  14.368  0.1743 -0.1710  0.0881
 3042DOPC   D2B35695  25.871  25.060  14.077  0.0170  0.3493  0.0817
 3042DOPC   C3B35696  25.881  25.133  13.607 -0.0544 -0.0247 -0.0296
 3042DOPC   C4B35697  25.796  25.022  13.138 -0.0209 -0.1112 -0.4638
 3043POSM   NC335698  32.323  20.767  14.911 -0.0357 -0.0643 -0.2663
 3043POSM   PO435699  32.277  20.384  14.843 -0.0928 -0.1131 -0.0605
 3043POSM   AM135700  32.206  20.463  14.546 -0.0799 -0.1251 -0.1517
 3043POSM   AM235701  32.037  20.677  14.426  0.0817  0.3006  0.1649
 3043POSM   T1A35702  32.336  20.479  14.026  0.0587 -0.1513  0.1495
 3043POSM   C2A35703  32.218  20.502  13.559 -0.0045 -0.1151 -0.0530
 3043POSM   C3A35704  32.272  20.642  13.186  0.4445  0.2510  0.1487
 3043POSM   C1B35705  31.872  20.483  14.198  0.3161  0.2779 -0.3502
 3043POSM   D2B35706  31.614  20.410  13.841 -0.0473  0.4965 -0.1617
 3043POSM   C3B35707  31.750  20.639  13.504  0.2525  0.0792 -0.1099
 3043POSM   C4B35708  31.594  20.908  13.187  0.0234 -0.0571  0.1380
 3044DOPE   NH335709  32.535  11.599  14.192 -0.0204 -0.0251 -0.1745
 3044DOPE   PO435710  32.355  11.873  14.224  0.2831  0.1527 -0.0991
 3044DOPE   GL135711  32.330  12.090  13.874 -0.2488  0.2238  0.2424
 3044DOPE   GL235712  32.188  12.272  13.941  0.0159 -0.0150  0.0001
 3044DOPE   C1A35713  32.198  12.238  13.416 -0.0342 -0.3261  0.1833
 3044DOPE   D2A35714  32.064  12.394  12.985 -0.2122  0.0389 -0.0705
 3044DOPE   C3A35715  32.318  12.688  12.783  0.3322  0.0142 -0.1341
 3044DOPE   C4A35716  32.583  12.633  12.368 -0.0442  0.1089 -0.0484
 3044DOPE   C1B35717  32.341  12.641  13.692  0.2748  0.1462 -0.0404
 3044DOPE   D2B35718  32.608  12.971  13.648  0.1799  0.0586  0.5012
 3044DOPE   C3B35719  32.923  12.815  13.348  0.1021 -0.0095  0.5021
 3044DOPE   C4B35720  33.175  12.968  13.012  0.1676  0.1980 -0.0166
 3045DOPS   CNO35721  31.186  11.149  14.356 -0.0659 -0.0746  0.2871
 3045DOPS   PO435722  31.295  10.786  14.234 -0.2454 -0.2337  0.0865
 3045DOPS   GL135723  31.107  10.957  13.897 -0.0483  0.1792  0.1786
 3045DOPS   GL235724  31.271  11.097  13.741  0.1874 -0.0915 -0.3676
 3045DOPS   C1A35725  30.828  10.971  13.530  0.1494 -0.2385  0.0863
 3045DOPS   D2A35726  30.841  11.205  13.167  0.2171  0.0108  0.0824
 3045DOPS   C3A35727  30.461  11.200  12.966  0.0711  0.1125 -0.1277
 3045DOPS   C4A35728  30.113  11.072  12.699  0.0856  0.1928 -0.1285
 3045DOPS   C1B35729  31.371  11.411  13.378 -0.0482  0.1306 -0.4097
 3045DOPS   D2B35730  31.287  11.459  12.941  0.1127 -0.0657 -0.0319
 3045DOPS   C3B35731  30.839  11.578  12.832 -0.4161  0.0542 -0.4637
 3045DOPS   C4B35732  30.584  11.860  12.532  0.2166  0.0893  0.3482
 3046DOPS   CNO35733  31.802  20.568  14.989  0.0310  0.1379  0.3271
 3046DOPS   PO435734  31.464  20.383  14.930  0.1679 -0.1873 -0.1982
 3046DOPS   GL135735  31.353  20.322  14.543  0.0581  0.0090  0.2108
 3046DOPS   GL235736  31.071  20.235  14.341 -0.0295 -0.0590 -0.1240
 3046DOPS   C1A35737  31.339  20.630  14.206 -0.2456 -0.0009  0.2495
 3046DOPS   D2A35738  31.600  21.037  14.142 -0.1183  0.3579 -0.3527
 3046DOPS   C3A35739  31.942  20.898  13.931  0.0281 -0.0452  0.1282
 3046DOPS   C4A35740  32.086  20.995  13.522  0.1518  0.0276  0.0625
 3046DOPS   C1B35741  31.413  20.071  14.156  0.1287  0.2648 -0.1335
 3046DOPS   D2B35742  31.751  19.871  13.898 -0.0784  0.1077  0.1621
 3046DOPS   C3B35743  31.689  19.728  13.411 -0.0256 -0.2315 -0.2249
 3046DOPS   C4B35744  31.742  19.820  12.991  0.1115 -0.3510  0.0123
 3047DOPE   NH335745   2.642  10.620  14.052 -0.2125 -0.1895  0.1231
 3047DOPE   PO435746   2.545  10.912  14.144  0.0641 -0.0626 -0.3968
 3047DOPE   GL135747   2.439  10.982  13.751  0.3744 -0.2691 -0.2900
 3047DOPE   GL235748   2.304  10.710  13.621 -0.0192 -0.0455  0.0401
 3047DOPE   C1A35749   2.527  11.137  13.337  0.3214  0.3682 -0.4912
 3047DOPE   D2A35750   2.332  11.073  12.884 -0.1915 -0.0282  0.2316
 3047DOPE   C3A35751   2.193  10.741  12.575  0.3139  0.0957 -0.1963
 3047DOPE   C4A35752   2.215  10.487  12.185  0.0267  0.1277 -0.1277
 3047DOPE   C1B35753   2.070  10.778  13.206  0.1008 -0.0666 -0.4310
 3047DOPE   D2B35754   1.849  10.487  13.006 -0.0791  0.3852 -0.2525
 3047DOPE   C3B35755   1.833  10.364  12.561  0.0793 -0.0494  0.0530
 3047DOPE   C4B35756   1.635  10.170  12.179  0.3034 -0.1821  0.1416
 3048DOPC   NC335757  31.146  12.601  14.064  0.2083  0.3023  0.0454
 3048DOPC   PO435758  31.122  13.043  14.091 -0.1902  0.0739 -0.6835
 3048DOPC   GL135759  30.929  13.301  13.922  0.0250  0.1022  0.3594
 3048DOPC   GL235760  31.198  13.414  13.754  0.1214 -0.3199  0.2765
 3048DOPC   C1A35761  30.727  13.472  13.507  0.1354 -0.0928  0.4042
 3048DOPC   D2A35762  30.459  13.577  13.157  0.0522 -0.1217  0.0817
 3048DOPC   C3A35763  30.709  13.644  12.733 -0.1079 -0.3059 -0.3358
 3048DOPC   C4A35764  30.762  14.095  12.491 -0.0573  0.2129  0.1697
 3048DOPC   C1B35765  31.209  13.251  13.322  0.1939  0.0985 -0.3467
 3048DOPC   D2B35766  31.265  12.947  12.972 -0.0001  0.0673  0.1304
 3048DOPC   C3B35767  31.535  12.840  12.616 -0.3957  0.0092 -0.3775
 3048DOPC   C4B35768  31.785  12.857  12.181  0.1995 -0.2900  0.1561
 3049DOPS   CNO35769   0.485  19.440  14.884 -0.1904 -0.1912 -0.0714
 3049DOPS   PO435770   0.655  19.413  14.516 -0.0854 -0.1139  0.0985
 3049DOPS   GL135771   0.628  19.550  14.177  0.2548 -0.1874 -0.2695
 3049DOPS   GL235772   0.479  19.814  14.180 -0.0515  0.0635 -0.0101
 3049DOPS   C1A35773   0.752  19.349  13.779  0.2249 -0.2555 -0.4164
 3049DOPS   D2A35774   0.553  19.393  13.355 -0.1370 -0.2430  0.0330
 3049DOPS   C3A35775   0.846  19.413  12.996  0.5270 -0.2366  0.0828
 3049DOPS   C4A35776   0.834  19.762  12.643  0.2036  0.4558 -0.3844
 3049DOPS   C1B35777   0.425  19.714  13.747  0.2136 -0.2156  0.0861
 3049DOPS   D2B35778   0.139  19.645  13.392  0.1769 -0.1092 -0.1311
 3049DOPS   C3B35779   0.238  19.555  12.964  0.0810 -0.2121 -0.3544
 3049DOPS   C4B35780   0.064  19.569  12.549  0.5916 -0.3544  0.1000
 3050DOPE   NH335781  28.416  19.958  14.759 -0.0143  0.1313 -0.2682
 3050DOPE   PO435782  28.718  20.021  14.753 -0.1592  0.1129  0.0950
 3050DOPE   GL135783  28.565  20.037  14.341  0.0400  0.1077  0.3405
 3050DOPE   GL235784  28.659  19.774  14.231 -0.2289  0.1500  0.0878
 3050DOPE   C1A35785  28.483  20.343  14.001 -0.1599  0.0239  0.1806
 3050DOPE   D2A35786  28.167  20.543  13.729  0.0898  0.2601 -0.0686
 3050DOPE   C3A35787  28.273  20.771  13.314  0.1998 -0.0885 -0.2090
 3050DOPE   C4A35788  28.593  21.071  13.111 -0.1509 -0.1248  0.1988
 3050DOPE   C1B35789  28.826  19.946  13.823  0.1231  0.1296  0.0219
 3050DOPE   D2B35790  28.736  20.189  13.446 -0.1455  0.1337  0.1328
 3050DOPE   C3B35791  28.731  19.901  13.083  0.1221 -0.0154  0.0725
 3050DOPE   C4B35792  28.690  19.878  12.638  0.3717 -0.2062  0.0553
 3051DOPE   NH335793  33.462  17.237  14.710 -0.1260 -0.4055 -0.0350
 3051DOPE   PO435794  33.616  17.509  14.638  0.0975 -0.0850 -0.0046
 3051DOPE   GL135795  33.321  17.536  14.335 -0.2412  0.0970 -0.0343
 3051DOPE   GL235796  33.386  17.729  14.207  0.2540 -0.2029 -0.2551
 3051DOPE   C1A35797  33.124  17.192  14.064  0.2387  0.0372  0.1042
 3051DOPE   D2A35798  32.859  16.936  13.836 -0.1406 -0.1640 -0.1302
 3051DOPE   C3A35799  33.221  16.876  13.460 -0.3274 -0.4043 -0.5889
 3051DOPE   C4A35800  33.325  16.945  13.005  0.0041 -0.0838 -0.2135
 3051DOPE   C1B35801  33.249  18.099  13.919 -0.0344 -0.1967  0.5296
 3051DOPE   D2B35802  33.055  18.393  13.570  0.2572  0.3525 -0.0750
 3051DOPE   C3B35803  32.980  18.318  13.136  0.0155 -0.2323 -0.2761
 3051DOPE   C4B35804  32.675  18.266  12.812 -0.2603 -0.2565  0.2456
 3052DOPE   NH335805  30.002  16.510  14.638 -0.1490 -0.0469 -0.0345
 3052DOPE   PO435806  30.200  16.707  14.532 -0.2685 -0.0886 -0.0469
 3052DOPE   GL135807  30.331  16.559  14.205 -0.2016 -0.0743 -0.1339
 3052DOPE   GL235808  30.319  16.374  13.933  0.1150  0.2742 -0.0744
 3052DOPE   C1A35809  30.804  16.586  13.984  0.3094  0.1466 -0.1989
 3052DOPE   D2A35810  31.238  16.635  13.769  0.0048  0.0417  0.4803
 3052DOPE   C3A35811  31.402  16.308  13.511 -0.0809 -0.0543 -0.1193
 3052DOPE   C4A35812  31.220  16.213  13.108  0.0100  0.2556  0.1637
 3052DOPE   C1B35813  30.521  16.574  13.531  0.0206  0.1893 -0.2808
 3052DOPE   D2B35814  30.606  16.651  13.093 -0.1941 -0.0499  0.0978
 3052DOPE   C3B35815  30.975  16.506  12.856 -0.1527 -0.1501 -0.0171
 3052DOPE   C4B35816  31.079  16.607  12.432  0.0100 -0.2574 -0.1705
 3053DOPC   NC335817   2.211  23.180  13.811  0.0578 -0.4510  0.1629
 3053DOPC   PO435818   2.599  23.330  13.746  0.0012  0.0151 -0.0255
 3053DOPC   GL135819   2.589  23.532  13.411  0.0555 -0.1257 -0.0447
 3053DOPC   GL235820   2.566  23.231  13.173  0.2758  0.0962 -0.1602
 3053DOPC   C1A35821   2.825  23.644  13.044 -0.2192 -0.0602 -0.0587
 3053DOPC   D2A35822   3.038  23.861  12.704 -0.0175  0.1783  0.4205
 3053DOPC   C3A35823   2.874  23.679  12.295  0.1953  0.1190 -0.1079
 3053DOPC   C4A35824   3.192  23.468  12.060 -0.1768 -0.0724 -0.0102
 3053DOPC   C1B35825   2.190  22.915  13.090  0.0693  0.0626  0.0200
 3053DOPC   D2B35826   2.032  22.592  12.830 -0.1469  0.1065 -0.0665
 3053DOPC   C3B35827   1.703  22.666  12.457  0.0468 -0.2419  0.0421
 3053DOPC   C4B35828   1.311  22.893  12.191  0.2201 -0.0505 -0.0029
 3054POSM   NC335829  25.994  18.370  14.741  0.1673  0.2761  0.1494
 3054POSM   PO435830  25.746  18.700  14.737 -0.1339 -0.0163  0.3999
 3054POSM   AM135831  25.900  18.678  14.437 -0.2682 -0.1546 -0.0851
 3054POSM   AM235832  26.145  18.687  14.320 -0.1373 -0.1099 -0.0271
 3054POSM   T1A35833  25.830  18.546  13.914 -0.0976  0.0129  0.1205
 3054POSM   C2A35834  25.811  18.315  13.521  0.2008  0.1773  0.1152
 3054POSM   C3A35835  25.597  18.213  13.110 -0.4068 -0.0560 -0.5775
 3054POSM   C1B35836  26.221  18.814  14.058 -0.0282  0.0925 -0.3932
 3054POSM   D2B35837  26.263  18.982  13.674 -0.1284  0.2842 -0.2665
 3054POSM   C3B35838  26.607  18.809  13.430 -0.1128  0.0131 -0.1160
 3054POSM   C4B35839  26.911  19.016  13.180 -0.1420  0.3193  0.0585
 3055POSM   NC335840  22.931  20.272  13.695  0.2188  0.1539  0.1461
 3055POSM   PO435841  22.710  20.589  13.626  0.4737  0.1668  0.4268
 3055POSM   AM135842  22.808  20.493  13.305 -0.2366  0.2189  0.1648
 3055POSM   AM235843  22.782  20.654  13.098 -0.2350  0.0151  0.2055
 3055POSM   T1A35844  23.027  20.274  12.850  0.2764  0.0918 -0.1788
 3055POSM   C2A35845  23.163  19.921  12.564 -0.2772 -0.2764 -0.2345
 3055POSM   C3A35846  23.359  19.779  12.122 -0.0515  0.1163  0.0277
 3055POSM   C1B35847  22.771  20.772  12.778  0.1491  0.1624  0.0234
 3055POSM   D2B35848  22.885  21.075  12.405  0.2050 -0.1132  0.0483
 3055POSM   C3B35849  22.528  21.266  12.181  0.0816 -0.0251 -0.1501
 3055POSM   C4B35850  22.275  21.565  11.930  0.0407  0.2737 -0.1290
 3056DOPC   NC335851  32.310  18.281  14.737  0.0575  0.0250  0.3567
 3056DOPC   PO435852  32.203  18.008  14.503 -0.1087  0.2091 -0.3447
 3056DOPC   GL135853  32.302  17.679  14.196  0.0105 -0.3355  0.1481
 3056DOPC   GL235854  32.043  17.489  14.108  0.2763 -0.0330  0.2225
 3056DOPC   C1A35855  32.457  17.639  13.743  0.0375  0.1700 -0.0012
 3056DOPC   D2A35856  32.465  17.582  13.231 -0.3040  0.3061 -0.0587
 3056DOPC   C3A35857  32.491  17.145  13.068  0.0865  0.0956  0.2495
 3056DOPC   C4A35858  32.565  16.768  12.833 -0.1608 -0.4604  0.1007
 3056DOPC   C1B35859  31.955  17.370  13.758 -0.2422 -0.3337 -0.0273
 3056DOPC   D2B35860  31.679  17.487  13.341 -0.2203 -0.1729  0.2061
 3056DOPC   C3B35861  31.604  17.137  13.033 -0.1144  0.0524  0.0445
 3056DOPC   C4B35862  31.386  16.677  13.076  0.0296 -0.0223  0.1147
 3057DOPC   NC335863  32.677  15.667  14.595  0.1629 -0.0687  0.1746
 3057DOPC   PO435864  32.845  15.332  14.466 -0.1265  0.1406  0.2336
 3057DOPC   GL135865  32.964  15.490  14.068  0.1657  0.1158  0.1530
 3057DOPC   GL235866  32.800  15.735  14.088 -0.1322 -0.5048 -0.2025
 3057DOPC   C1A35867  33.053  15.292  13.614  0.0341  0.0394  0.2578
 3057DOPC   D2A35868  32.876  15.156  13.267 -0.1418 -0.0589 -0.0951
 3057DOPC   C3A35869  32.743  15.314  12.854  0.0762  0.2166  0.0595
 3057DOPC   C4A35870  32.611  15.747  12.828 -0.0513 -0.2521  0.0588
 3057DOPC   C1B35871  32.879  15.759  13.567  0.3900 -0.0425 -0.1860
 3057DOPC   D2B35872  33.062  15.594  13.157 -0.1413  0.1799  0.1089
 3057DOPC   C3B35873  33.412  15.280  13.228  0.0097  0.3216 -0.0700
 3057DOPC   C4B35874  33.708  14.952  13.229  0.0618 -0.1409  0.0723
 3058DOPS   CNO35875  27.772  19.650  14.141 -0.2509 -0.1979  0.0938
 3058DOPS   PO435876  27.941  19.818  14.449 -0.0118  0.0717  0.1681
 3058DOPS   GL135877  27.835  20.109  14.241 -0.0562  0.1319  0.2087
 3058DOPS   GL235878  28.036  20.275  14.140 -0.2613 -0.2456  0.4597
 3058DOPS   C1A35879  27.671  20.178  13.812 -0.0050 -0.1181  0.1671
 3058DOPS   D2A35880  27.398  20.202  13.435  0.5321 -0.1936  0.1199
 3058DOPS   C3A35881  27.548  19.895  13.107 -0.2025 -0.1531 -0.4003
 3058DOPS   C4A35882  27.291  19.863  12.691 -0.2296  0.2644 -0.0361
 3058DOPS   C1B35883  28.238  19.968  13.794 -0.2093  0.1662 -0.0201
 3058DOPS   D2B35884  28.486  19.759  13.492  0.1328  0.2938  0.0327
 3058DOPS   C3B35885  28.194  19.790  13.100 -0.2660  0.0439 -0.2368
 3058DOPS   C4B35886  28.222  20.067  12.727 -0.2022  0.0135 -0.0529
 3059DOPE   NH335887  32.774  12.127  14.435 -0.3072 -0.3575 -0.1547
 3059DOPE   PO435888  32.635  12.379  14.262  0.2173 -0.1007 -0.1151
 3059DOPE   GL135889  32.763  12.390  13.929 -0.0485 -0.1877 -0.0009
 3059DOPE   GL235890  32.915  12.607  13.843 -0.2334  0.0240 -0.1274
 3059DOPE   C1A35891  32.718  12.266  13.508 -0.2622  0.2200 -0.0644
 3059DOPE   D2A35892  32.914  12.390  13.122 -0.4217 -0.0779  0.3348
 3059DOPE   C3A35893  32.952  12.639  12.776 -0.1443 -0.0218  0.0942
 3059DOPE   C4A35894  33.051  12.991  12.462 -0.2683 -0.0332  0.1573
 3059DOPE   C1B35895  33.264  12.544  13.588  0.0687 -0.1975 -0.2000
 3059DOPE   D2B35896  33.278  12.091  13.411  0.2921 -0.0867  0.2420
 3059DOPE   C3B35897  33.201  12.009  12.981  0.2419  0.2774 -0.0727
 3059DOPE   C4B35898  33.222  12.309  12.591  0.2664  0.0449  0.1577
 3060DOPS   CNO35899  33.340  19.287  15.021  0.1949  0.0495  0.0482
 3060DOPS   PO435900  33.345  19.131  14.687  0.0132 -0.0545 -0.1742
 3060DOPS   GL135901  32.936  19.027  14.505  0.1430 -0.0120  0.1646
 3060DOPS   GL235902  32.685  19.250  14.440 -0.1061  0.2431  0.0010
 3060DOPS   C1A35903  33.038  19.014  14.015 -0.4082 -0.0817  0.0270
 3060DOPS   D2A35904  33.275  19.270  13.734  0.0915 -0.2342 -0.0964
 3060DOPS   C3A35905  33.356  19.186  13.276 -0.0160  0.2841 -0.0216
 3060DOPS   C4A35906  33.198  18.749  13.071 -0.1697  0.0482 -0.1158
 3060DOPS   C1B35907  32.996  19.460  14.185 -0.0888  0.2493  0.0314
 3060DOPS   D2B35908  33.034  19.801  13.918 -0.1318  0.1645  0.3049
 3060DOPS   C3B35909  33.054  19.690  13.443 -0.2315 -0.2514 -0.4690
 3060DOPS   C4B35910  33.242  19.549  12.988 -0.1902 -0.0097 -0.4652
 3061DOPE   NH335911   0.016  13.597  10.781 -0.0897  0.4538  0.1092
 3061DOPE   PO435912  -0.245  13.443  10.843 -0.1375 -0.2338 -0.0591
 3061DOPE   GL135913  -0.223  13.471  11.200  0.2300 -0.0740 -0.1517
 3061DOPE   GL235914  -0.337  13.135  11.259  0.0207 -0.1789  0.1313
 3061DOPE   C1A35915  -0.467  13.804  11.458 -0.0386 -0.0881  0.2529
 3061DOPE   D2A35916  -0.463  14.021  11.862 -0.0142  0.1398 -0.3809
 3061DOPE   C3A35917  -0.678  13.939  12.208  0.2607  0.1642  0.3338
 3061DOPE   C4A35918  -0.958  14.068  12.579  0.2122  0.3605 -0.1393
 3061DOPE   C1B35919  -0.571  12.775  11.459 -0.1196 -0.3072  0.2985
 3061DOPE   D2B35920  -0.644  12.532  11.782  0.0965 -0.1526  0.1538
 3061DOPE   C3B35921  -0.883  12.548  12.204  0.0974 -0.0072 -0.0989
 3061DOPE   C4B35922  -0.667  12.850  12.475 -0.2043 -0.1675 -0.1450
 3062DOPS   CNO35923  27.473  17.087  10.352  0.4089 -0.1166  0.2692
 3062DOPS   PO435924  27.107  17.055  10.315 -0.1373  0.1517  0.3974
 3062DOPS   GL135925  26.930  16.897  10.670  0.2105  0.0276 -0.1485
 3062DOPS   GL235926  27.138  17.094  10.790 -0.0610  0.2583 -0.2045
 3062DOPS   C1A35927  26.605  16.625  10.740  0.1645  0.0726  0.0187
 3062DOPS   D2A35928  26.240  16.380  10.926  0.0866 -0.3359  0.1890
 3062DOPS   C3A35929  26.141  16.237  11.357  0.0343  0.0365 -0.2226
 3062DOPS   C4A35930  26.062  16.009  11.756  0.2116  0.0519  0.1314
 3062DOPS   C1B35931  26.820  17.052  11.082 -0.1353  0.0289  0.2218
 3062DOPS   D2B35932  26.865  16.605  11.137  0.4468  0.0958  0.1443
 3062DOPS   C3B35933  26.664  16.208  11.299 -0.0719  0.2265 -0.1871
 3062DOPS   C4B35934  26.472  15.830  11.352  0.0195  0.3210  0.0569
 3063DOPE   NH335935  33.661  15.290  10.650 -0.0456  0.1493 -0.0484
 3063DOPE   PO435936  33.425  15.358  10.858 -0.0561  0.0750  0.0945
 3063DOPE   GL135937  33.361  15.282  11.175 -0.1232 -0.1129 -0.0544
 3063DOPE   GL235938  33.594  15.146  11.312  0.3435  0.1167 -0.2842
 3063DOPE   C1A35939  33.363  15.406  11.646 -0.1441  0.2181 -0.1970
 3063DOPE   D2A35940  33.233  15.147  11.966 -0.1277 -0.2540 -0.0418
 3063DOPE   C3A35941  33.098  15.122  12.410  0.2576  0.1999 -0.1965
 3063DOPE   C4A35942  33.134  15.025  12.855  0.0378 -0.0202 -0.2504
 3063DOPE   C1B35943  33.614  14.900  11.695  0.1583  0.0415 -0.0711
 3063DOPE   D2B35944  33.690  14.938  12.212 -0.3778  0.3258 -0.1666
 3063DOPE   C3B35945  33.573  15.046  12.613  0.1351 -0.2037  0.0685
 3063DOPE   C4B35946  33.395  15.461  12.700 -0.1232  0.5218 -0.3254
 3064DOPE   NH335947   2.911  11.505  10.709  0.2606 -0.2694 -0.0737
 3064DOPE   PO435948   2.791  11.801  10.759 -0.1359 -0.0325 -0.0199
 3064DOPE   GL135949   2.841  11.816  11.185  0.0235  0.3570  0.2418
 3064DOPE   GL235950   2.825  12.047  11.275  0.0694 -0.0094 -0.2711
 3064DOPE   C1A35951   3.018  11.626  11.504  0.1879 -0.0173 -0.1453
 3064DOPE   D2A35952   3.033  11.781  11.960  0.1001  0.2729  0.1281
 3064DOPE   C3A35953   3.256  11.947  12.331  0.5433 -0.3649 -0.1824
 3064DOPE   C4A35954   3.714  11.997  12.527 -0.0191 -0.0459  0.0530
 3064DOPE   C1B35955   3.079  12.150  11.593 -0.0148  0.2099 -0.1162
 3064DOPE   D2B35956   3.050  12.298  12.033 -0.1110 -0.1803 -0.1568
 3064DOPE   C3B35957   2.942  12.786  12.192  0.0824  0.2650 -0.0765
 3064DOPE   C4B35958   2.742  13.112  12.475  0.3843 -0.3847 -0.0345
 3065DOPC   NC335959   0.819  13.387  10.841  0.3590 -0.0823  0.3291
 3065DOPC   PO435960   1.092  13.096  10.916 -0.3074  0.1023 -0.0503
 3065DOPC   GL135961   1.278  12.808  11.231 -0.0475 -0.1321 -0.1354
 3065DOPC   GL235962   1.548  12.792  11.011  0.0246  0.0493 -0.1588
 3065DOPC   C1A35963   1.463  12.796  11.686  0.2129 -0.0557 -0.2511
 3065DOPC   D2A35964   1.219  12.558  12.061  0.0570  0.0699  0.2699
 3065DOPC   C3A35965   1.189  12.657  12.483 -0.0328 -0.2975 -0.1252
 3065DOPC   C4A35966   1.401  12.474  12.814 -0.0570  0.1733 -0.0178
 3065DOPC   C1B35967   1.656  13.105  11.334  0.0020  0.5937  0.2130
 3065DOPC   D2B35968   1.719  13.173  11.826 -0.0458  0.1920 -0.2806
 3065DOPC   C3B35969   1.589  12.897  12.164  0.1146  0.1926 -0.3452
 3065DOPC   C4B35970   1.865  12.668  12.454 -0.1595  0.1964  0.1635
 3066DOPC   NC335971  25.737  23.718  11.249  0.0937 -0.0226 -0.1558
 3066DOPC   PO435972  25.545  23.421  11.103  0.2369  0.0997  0.1513
 3066DOPC   GL135973  25.481  23.382  11.462 -0.0340 -0.1023 -0.2010
 3066DOPC   GL235974  25.261  23.248  11.466 -0.3832  0.0970 -0.0631
 3066DOPC   C1A35975  25.522  23.121  11.861 -0.0610  0.3366  0.0344
 3066DOPC   D2A35976  25.500  23.109  12.313  0.1734 -0.0964  0.2320
 3066DOPC   C3A35977  25.297  23.011  12.694 -0.0134 -0.0439  0.1683
 3066DOPC   C4A35978  25.174  22.921  13.076  0.0929  0.4786 -0.4881
 3066DOPC   C1B35979  25.082  23.349  11.880  0.0571 -0.1101 -0.0763
 3066DOPC   D2B35980  25.315  23.535  12.252  0.1674  0.1532 -0.0385
 3066DOPC   C3B35981  25.252  23.469  12.687  0.0951  0.1787  0.0612
 3066DOPC   C4B35982  25.245  23.656  13.144 -0.1263 -0.1462 -0.0691
 3067DOPE   NH335983  24.655  21.159  10.156 -0.1495  0.0814 -0.0238
 3067DOPE   PO435984  24.506  20.913  10.288  0.0171 -0.3213 -0.2651
 3067DOPE   GL135985  24.624  20.810  10.622 -0.0734 -0.0351 -0.1347
 3067DOPE   GL235986  24.418  20.693  10.781 -0.1437 -0.1031  0.1760
 3067DOPE   C1A35987  24.681  21.014  11.060 -0.0630 -0.2810  0.0279
 3067DOPE   D2A35988  24.383  21.206  11.353 -0.2573  0.0290  0.1801
 3067DOPE   C3A35989  24.214  20.828  11.544 -0.0316 -0.1446  0.0212
 3067DOPE   C4A35990  24.296  20.596  11.903 -0.0803  0.0009 -0.0630
 3067DOPE   C1B35991  24.493  20.266  10.713  0.2463 -0.1215 -0.1963
 3067DOPE   D2B35992  24.535  19.841  10.751 -0.2104 -0.2030  0.0381
 3067DOPE   C3B35993  24.916  19.558  10.864  0.4374  0.0744  0.0445
 3067DOPE   C4B35994  25.143  19.164  11.098 -0.3898  0.0964  0.0599
 3068DOPE   NH335995   0.369  20.636  10.527  0.1448 -0.0576 -0.1597
 3068DOPE   PO435996   0.645  20.752  10.658  0.0932  0.1714 -0.0372
 3068DOPE   GL135997   0.684  20.879  11.115 -0.3147 -0.0937 -0.0919
 3068DOPE   GL235998   0.936  21.029  10.952  0.1650  0.1931 -0.0550
 3068DOPE   C1A35999   0.677  20.601  11.507  0.0564 -0.0959  0.2676
 3068DOPE   D2A36000   1.067  20.599  11.735 -0.1425 -0.0734 -0.1178
 3068DOPE   C3A36001   1.182  20.295  12.079  0.0595  0.2064 -0.0415
 3068DOPE   C4A36002   0.937  20.160  12.409  0.0166  0.0335  0.3429
 3068DOPE   C1B36003   0.854  21.173  11.391 -0.1195 -0.0304  0.1743
 3068DOPE   D2B36004   0.945  21.286  11.841 -0.0122  0.1257  0.0018
 3068DOPE   C3B36005   1.237  21.240  12.172 -0.0041  0.0542 -0.4754
 3068DOPE   C4B36006   1.625  21.242  12.380 -0.1946 -0.0892  0.2371
 3069DOPE   NH336007  31.955  18.236  10.704 -0.0463  0.0957 -0.2035
 3069DOPE   PO436008  32.055  18.039  10.955  0.1144 -0.0233  0.0545
 3069DOPE   GL136009  32.337  17.895  11.235  0.1095  0.2514  0.2728
 3069DOPE   GL236010  32.391  18.203  11.412  0.1600  0.1612 -0.2004
 3069DOPE   C1A36011  32.320  17.760  11.649  0.1650  0.0585  0.2302
 3069DOPE   D2A36012  32.224  17.801  12.133  0.0228 -0.2435 -0.2052
 3069DOPE   C3A36013  32.238  17.350  12.206 -0.0542 -0.1918  0.1951
 3069DOPE   C4A36014  32.542  17.010  12.169 -0.0877 -0.1214 -0.1991
 3069DOPE   C1B36015  32.454  18.179  11.870  0.3472  0.2262 -0.1363
 3069DOPE   D2B36016  32.521  18.204  12.311 -0.0365 -0.1902 -0.0581
 3069DOPE   C3B36017  32.226  18.171  12.631  0.1269 -0.0879  0.2497
 3069DOPE   C4B36018  31.949  18.374  12.966  0.0265  0.1676 -0.0825
 3070POSM   NC336019  26.325  20.718  10.857  0.4683 -0.0061 -0.0701
 3070POSM   PO436020  26.536  20.645  10.541  0.1963 -0.1621 -0.2586
 3070POSM   AM136021  26.723  20.527  10.762  0.1482 -0.3224 -0.0651
 3070POSM   AM236022  26.778  20.228  10.830 -0.2564  0.3477 -0.0839
 3070POSM   T1A36023  26.681  20.506  11.252  0.0589 -0.3871 -0.0578
 3070POSM   C2A36024  26.943  20.355  11.597  0.0959 -0.0169  0.2693
 3070POSM   C3A36025  26.858  20.147  12.048  0.0500 -0.3314  0.0654
 3070POSM   C1B36026  26.845  20.033  11.114  0.3175 -0.1550  0.2404
 3070POSM   D2B36027  26.683  19.650  11.290 -0.0563 -0.1232 -0.0806
 3070POSM   C3B36028  26.397  19.639  11.700 -0.0359  0.0506 -0.1990
 3070POSM   C4B36029  26.577  19.699  12.108 -0.0736  0.0433 -0.1401
 3071DOPE   NH336030  27.014  20.680  10.451 -0.2494  0.0627  0.1063
 3071DOPE   PO436031  27.000  20.363  10.428  0.1150 -0.1125 -0.3137
 3071DOPE   GL136032  27.288  20.318  10.634  0.3815 -0.0316  0.1519
 3071DOPE   GL236033  27.163  20.446  10.904  0.0182 -0.1179 -0.0776
 3071DOPE   C1A36034  27.386  19.948  10.856 -0.0735 -0.0235 -0.0462
 3071DOPE   D2A36035  27.254  19.720  11.261 -0.1966 -0.3130  0.1088
 3071DOPE   C3A36036  27.419  19.486  11.603  0.0172  0.1171  0.1272
 3071DOPE   C4A36037  27.596  19.363  11.969 -0.2114  0.0938 -0.0178
 3071DOPE   C1B36038  27.495  20.294  11.237  0.0902  0.2554 -0.2553
 3071DOPE   D2B36039  27.348  20.059  11.590 -0.0161 -0.3073  0.1718
 3071DOPE   C3B36040  26.916  19.849  11.655 -0.0348 -0.1067  0.2170
 3071DOPE   C4B36041  26.923  19.385  11.769 -0.1738 -0.1900  0.1145
 3072POSM   NC336042  31.304  20.872  11.190  0.2507 -0.2508  0.2284
 3072POSM   PO436043  31.395  21.273  11.233  0.2361 -0.0530 -0.3457
 3072POSM   AM136044  31.655  21.340  11.411 -0.0539 -0.4473  0.0302
 3072POSM   AM236045  31.985  21.358  11.417  0.1535 -0.2978  0.1723
 3072POSM   T1A36046  31.854  21.367  11.912  0.0136 -0.0442 -0.1906
 3072POSM   C2A36047  31.907  21.242  12.366 -0.4467 -0.1200 -0.1394
 3072POSM   C3A36048  31.838  20.949  12.736  0.2258 -0.0361 -0.0060
 3072POSM   C1B36049  32.116  21.626  11.648 -0.1076 -0.4718 -0.2405
 3072POSM   D2B36050  32.025  21.768  12.098 -0.1886  0.1450 -0.0747
 3072POSM   C3B36051  32.099  21.673  12.513  0.3043 -0.1544 -0.1439
 3072POSM   C4B36052  32.425  21.645  12.803 -0.3353 -0.1297  0.0602
 3073POSM   NC336053  27.882  11.021  10.383  0.1349 -0.2267  0.0008
 3073POSM   PO436054  27.590  10.880  10.607 -0.0555  0.0081  0.0126
 3073POSM   AM136055  27.693  10.931  10.930 -0.4516  0.0250  0.1988
 3073POSM   AM236056  27.533  10.940  11.212 -0.1227 -0.0028  0.0322
 3073POSM   T1A36057  28.017  10.840  11.338  0.0728 -0.0551 -0.2757
 3073POSM   C2A36058  28.208  10.635  11.740 -0.0900  0.0498 -0.1283
 3073POSM   C3A36059  28.133  10.673  12.162  0.4560 -0.2418  0.0638
 3073POSM   C1B36060  27.682  11.183  11.410  0.1774 -0.0063 -0.2949
 3073POSM   D2B36061  27.977  11.514  11.477 -0.0802 -0.0672 -0.0148
 3073POSM   C3B36062  28.331  11.632  11.781 -0.0633 -0.2351 -0.0134
 3073POSM   C4B36063  28.388  11.693  12.234 -0.3227  0.0066  0.1292
 3074DOPC   NC336064  32.409  22.351  10.987  0.1235  0.0212 -0.0795
 3074DOPC   PO436065  32.745  22.448  10.823  0.0263 -0.0729 -0.2560
 3074DOPC   GL136066  32.785  22.550  11.167  0.1145 -0.2966  0.1111
 3074DOPC   GL236067  32.788  22.813  11.165  0.1209  0.2591 -0.2694
 3074DOPC   C1A36068  32.864  22.710  11.608  0.0281  0.1021 -0.0189
 3074DOPC   D2A36069  33.067  22.833  12.020 -0.0005 -0.3335 -0.2223
 3074DOPC   C3A36070  32.861  22.880  12.428 -0.2095 -0.1453 -0.3003
 3074DOPC   C4A36071  32.455  22.846  12.695  0.1821  0.1450 -0.1247
 3074DOPC   C1B36072  32.457  22.928  11.473  0.1960  0.2677 -0.1798
 3074DOPC   D2B36073  32.051  23.019  11.727  0.0600 -0.3022 -0.0371
 3074DOPC   C3B36074  32.107  23.329  12.070  0.1041 -0.1661  0.1711
 3074DOPC   C4B36075  31.961  23.493  12.510 -0.2222  0.1384  0.0804
 3075DOPC   NC336076  30.141  19.168  10.908 -0.0466 -0.0118 -0.1903
 3075DOPC   PO436077  30.082  18.864  11.180 -0.4341 -0.4136 -0.1720
 3075DOPC   GL136078  29.808  18.856  11.505  0.0785  0.1407  0.0341
 3075DOPC   GL236079  29.935  18.712  11.620 -0.1649  0.0470  0.0070
 3075DOPC   C1A36080  29.520  19.126  11.772 -0.0304  0.2377 -0.1800
 3075DOPC   D2A36081  29.632  19.432  12.119 -0.1487  0.3318  0.6015
 3075DOPC   C3A36082  29.289  19.721  12.279  0.2470  0.2809 -0.0117
 3075DOPC   C4A36083  29.275  20.186  12.450  0.2158 -0.1190 -0.1173
 3075DOPC   C1B36084  29.817  18.625  12.094  0.2942  0.0364 -0.1578
 3075DOPC   D2B36085  29.750  18.455  12.468  0.2061  0.1411 -0.1907
 3075DOPC   C3B36086  29.333  18.649  12.510 -0.0237 -0.1178  0.1429
 3075DOPC   C4B36087  29.014  18.878  12.446 -0.0566  0.0769  0.1487
 3076DOPC   NC336088  28.778  14.884  10.069 -0.1331  0.0442  0.0065
 3076DOPC   PO436089  28.951  15.233  10.176  0.0192 -0.1873  0.0871
 3076DOPC   GL136090  28.945  15.242  10.538 -0.1167  0.4814  0.1872
 3076DOPC   GL236091  28.653  15.289  10.576 -0.0065  0.1678  0.0273
 3076DOPC   C1A36092  29.269  15.056  10.821 -0.1883  0.1944  0.4116
 3076DOPC   D2A36093  29.319  15.052  11.234  0.0038 -0.3177  0.0605
 3076DOPC   C3A36094  29.634  14.907  11.530  0.1213 -0.0489 -0.0320
 3076DOPC   C4A36095  29.808  14.888  11.983 -0.0443 -0.2595 -0.0577
 3076DOPC   C1B36096  28.670  15.020  10.914 -0.2599 -0.0733 -0.2967
 3076DOPC   D2B36097  28.798  14.941  11.328 -0.1215 -0.0639 -0.0371
 3076DOPC   C3B36098  28.825  14.524  11.493  0.0103  0.1777 -0.4508
 3076DOPC   C4B36099  28.968  14.049  11.462  0.0148  0.1655 -0.0465
 3077DOPE   NH336100  30.469  12.383   9.925  0.0650  0.1250  0.2865
 3077DOPE   PO436101  30.669  12.192  10.131  0.2079  0.2139  0.0469
 3077DOPE   GL136102  30.598  12.215  10.606 -0.1820 -0.3946  0.2115
 3077DOPE   GL236103  30.567  11.926  10.605  0.1333  0.1024 -0.3002
 3077DOPE   C1A36104  30.313  12.215  10.947  0.4453 -0.1808 -0.1423
 3077DOPE   D2A36105  30.076  12.383  11.315  0.2239 -0.0249 -0.0580
 3077DOPE   C3A36106  29.973  12.601  11.682  0.2744 -0.0839 -0.0457
 3077DOPE   C4A36107  30.137  12.997  11.979  0.1005 -0.0207  0.0072
 3077DOPE   C1B36108  30.777  12.089  11.017 -0.4464 -0.2894  0.1938
 3077DOPE   D2B36109  30.831  12.091  11.509 -0.0494  0.0655  0.1750
 3077DOPE   C3B36110  30.547  11.839  11.806  0.1731 -0.4041 -0.1062
 3077DOPE   C4B36111  30.462  11.557  12.141 -0.2291 -0.2092  0.1098
 3078POSM   NC336112  31.085  11.398  10.031  0.0630  0.0280  0.2481
 3078POSM   PO436113  30.779  11.189  10.124  0.1829  0.0357  0.1526
 3078POSM   AM136114  30.882  11.260  10.411  0.3275  0.1376  0.2580
 3078POSM   AM236115  31.004  11.131  10.659 -0.4014  0.2795  0.2115
 3078POSM   T1A36116  30.796  11.501  10.847 -0.1931 -0.4534  0.1763
 3078POSM   C2A36117  30.633  11.666  11.242 -0.0472  0.2304 -0.0159
 3078POSM   C3A36118  30.310  11.937  11.339 -0.1182  0.0336 -0.1625
 3078POSM   C1B36119  31.315  11.211  10.802 -0.2238  0.2306 -0.1844
 3078POSM   D2B36120  31.477  11.269  11.246 -0.0757 -0.2050  0.1550
 3078POSM   C3B36121  31.927  11.352  11.378 -0.3645 -0.3102 -0.0269
 3078POSM   C4B36122  32.252  11.113  11.413  0.1666 -0.1491 -0.3501
 3079DOPE   NH336123  28.351  21.588  11.385  0.2384  0.4698  0.1634
 3079DOPE   PO436124  28.067  21.628  11.406  0.0369  0.1322 -0.0873
 3079DOPE   GL136125  27.662  21.490  11.421 -0.3222  0.1823  0.1575
 3079DOPE   GL236126  27.578  21.663  11.656 -0.0649 -0.0707 -0.0771
 3079DOPE   C1A36127  27.421  21.180  11.746 -0.1562 -0.0062 -0.2873
 3079DOPE   D2A36128  27.501  20.851  12.115 -0.2776 -0.3562 -0.2046
 3079DOPE   C3A36129  27.628  20.538  12.433  0.0123 -0.1299 -0.5357
 3079DOPE   C4A36130  27.685  20.111  12.583 -0.0562 -0.0853  0.0160
 3079DOPE   C1B36131  27.264  21.716  11.915  0.0004  0.2104 -0.2347
 3079DOPE   D2B36132  27.075  21.779  12.286  0.1800 -0.0321  0.1519
 3079DOPE   C3B36133  26.950  21.496  12.638  0.0783  0.2996 -0.1202
 3079DOPE   C4B36134  27.191  21.394  13.062  0.2570  0.3250  0.3318
 3080DOPC   NC336135  31.944  10.206  10.707 -0.1787 -0.0632  0.4120
 3080DOPC   PO436136  31.968  10.462  10.444 -0.1808 -0.0842  0.0639
 3080DOPC   GL136137  32.039  10.718  10.752 -0.0114  0.4174  0.1545
 3080DOPC   GL236138  31.799  10.804  10.903 -0.2026 -0.2613 -0.1957
 3080DOPC   C1A36139  32.195  10.630  11.165 -0.0443  0.2069 -0.0089
 3080DOPC   D2A36140  32.418  10.621  11.557 -0.1515 -0.2166  0.1449
 3080DOPC   C3A36141  32.388  10.916  11.929 -0.0784 -0.0174 -0.1953
 3080DOPC   C4A36142  32.225  10.864  12.320  0.2273  0.0240  0.2242
 3080DOPC   C1B36143  31.796  10.832  11.337  0.2363 -0.3072  0.2999
 3080DOPC   D2B36144  31.940  10.886  11.731  0.1515 -0.1419  0.3430
 3080DOPC   C3B36145  31.753  10.765  12.108  0.1815 -0.1071 -0.2172
 3080DOPC   C4B36146  31.415  10.680  12.442 -0.3031  0.2382  0.0188
 3081POSM   NC336147  31.449  12.499  10.355  0.1402  0.0962  0.1455
 3081POSM   PO436148  31.275  12.835  10.329 -0.1992 -0.0039  0.0394
 3081POSM   AM136149  31.196  12.801  10.622  0.0498 -0.0508 -0.3850
 3081POSM   AM236150  31.327  12.725  10.866  0.1005  0.3237  0.0349
 3081POSM   T1A36151  30.849  12.590  10.977  0.0607  0.1211  0.0119
 3081POSM   C2A36152  30.558  12.444  11.281 -0.3386 -0.1292 -0.2963
 3081POSM   C3A36153  30.429  12.340  11.699 -0.3224 -0.1070 -0.2207
 3081POSM   C1B36154  31.354  12.754  11.240  0.0250 -0.2224 -0.1069
 3081POSM   D2B36155  31.083  12.841  11.622  0.1408 -0.0231  0.0952
 3081POSM   C3B36156  30.930  12.472  11.806  0.1206  0.1393 -0.1431
 3081POSM   C4B36157  30.660  12.220  12.104  0.1150  0.0408 -0.1219
 3082DOPE   NH336158  34.263  17.422  10.572  0.0560  0.0304  0.1397
 3082DOPE   PO436159  34.141  17.448  10.849 -0.0228  0.1034  0.1720
 3082DOPE   GL136160  34.004  17.622  11.223  0.0911 -0.1645  0.0219
 3082DOPE   GL236161  34.227  17.704  11.269 -0.0272  0.3013  0.0495
 3082DOPE   C1A36162  33.897  17.924  11.569 -0.0460 -0.1700 -0.0090
 3082DOPE   D2A36163  33.832  17.949  12.056  0.1205 -0.2304  0.0001
 3082DOPE   C3A36164  34.178  18.099  12.375 -0.1310 -0.2095  0.0254
 3082DOPE   C4A36165  34.594  18.120  12.572  0.0306  0.2198 -0.2390
 3082DOPE   C1B36166  34.496  17.745  11.662  0.1475  0.1470  0.1401
 3082DOPE   D2B36167  34.880  17.737  11.808  0.0148 -0.1063  0.0831
 3082DOPE   C3B36168  35.114  17.333  11.854  0.2029  0.1456 -0.0647
 3082DOPE   C4B36169  35.458  17.031  11.748  0.0722 -0.3416 -0.0741
 3083DOPE   NH336170  24.429  17.302   9.353  0.0572 -0.1304  0.2092
 3083DOPE   PO436171  24.437  17.426   9.656  0.1035  0.0766 -0.2420
 3083DOPE   GL136172  24.351  17.492   9.983 -0.1893  0.2559 -0.1218
 3083DOPE   GL236173  24.095  17.349  10.032  0.0938 -0.1110 -0.1882
 3083DOPE   C1A36174  24.393  17.469  10.463  0.4828 -0.0958 -0.2867
 3083DOPE   D2A36175  24.556  17.301  10.857 -0.4502 -0.2161  0.3341
 3083DOPE   C3A36176  24.483  17.222  11.263 -0.0120  0.2217  0.4662
 3083DOPE   C4A36177  24.393  16.879  11.550  0.2933  0.1823  0.0778
 3083DOPE   C1B36178  23.794  17.452  10.373  0.1111  0.1022 -0.0288
 3083DOPE   D2B36179  23.924  17.697  10.732  0.5075  0.0882 -0.0076
 3083DOPE   C3B36180  24.067  17.399  10.987 -0.0555  0.1441  0.3130
 3083DOPE   C4B36181  23.937  17.133  11.339  0.1024 -0.0953  0.2480
 3084DOPC   NC336182  30.217  18.351  10.939  0.1548 -0.0210 -0.2430
 3084DOPC   PO436183  29.966  18.140  11.195 -0.3133  0.1877  0.2280
 3084DOPC   GL136184  29.687  18.200  11.399 -0.0426 -0.3327 -0.1762
 3084DOPC   GL236185  29.885  18.242  11.676  0.0706 -0.2634 -0.2504
 3084DOPC   C1A36186  29.387  18.108  11.714  0.0848  0.1214 -0.2104
 3084DOPC   D2A36187  29.151  17.811  11.971 -0.3444 -0.0971  0.1925
 3084DOPC   C3A36188  29.156  17.373  12.026  0.4272 -0.1677 -0.0119
 3084DOPC   C4A36189  29.123  16.864  11.892 -0.4558 -0.2282  0.3004
 3084DOPC   C1B36190  29.617  18.111  12.084 -0.2119 -0.2572  0.0379
 3084DOPC   D2B36191  29.259  18.148  12.383  0.2969 -0.0357  0.0594
 3084DOPC   C3B36192  28.891  18.377  12.327  0.3142  0.1343  0.3300
 3084DOPC   C4B36193  28.589  18.620  12.494  0.3572  0.1206  0.1940
 3085DOPE   NH336194  28.088  18.866  10.465 -0.2626 -0.1347 -0.4431
 3085DOPE   PO436195  27.876  19.134  10.467  0.0265 -0.0389  0.0356
 3085DOPE   GL136196  27.667  19.049  10.782 -0.1027 -0.3648 -0.0082
 3085DOPE   GL236197  27.662  18.806  10.860  0.3787 -0.0146 -0.1542
 3085DOPE   C1A36198  27.602  19.083  11.268 -0.3683  0.2109  0.0710
 3085DOPE   D2A36199  27.855  19.196  11.621 -0.2942  0.3370 -0.0144
 3085DOPE   C3A36200  27.770  18.885  11.950 -0.2161  0.1802  0.0439
 3085DOPE   C4A36201  27.514  18.873  12.305  0.0433  0.3028 -0.0530
 3085DOPE   C1B36202  27.940  18.625  11.146 -0.0638  0.0530  0.1405
 3085DOPE   D2B36203  28.048  18.660  11.588  0.0361 -0.0173 -0.0568
 3085DOPE   C3B36204  28.389  18.500  11.750  0.1161  0.0884  0.0762
 3085DOPE   C4B36205  28.714  18.774  12.000 -0.0116  0.1251 -0.1585
 3086POSM   NC336206  33.515  17.882  11.125 -0.1766  0.0961  0.1665
 3086POSM   PO436207  33.568  17.510  11.061  0.3020  0.2010  0.3404
 3086POSM   AM136208  33.589  17.433  11.368  0.3038 -0.0757  0.3660
 3086POSM   AM236209  33.506  17.459  11.638 -0.2374  0.1632  0.0941
 3086POSM   T1A36210  34.032  17.476  11.648 -0.2823  0.0913 -0.0459
 3086POSM   C2A36211  34.188  17.692  12.042 -0.0363  0.0743  0.2710
 3086POSM   C3A36212  34.189  17.644  12.490 -0.2266 -0.2910  0.0641
 3086POSM   C1B36213  33.665  17.431  11.936  0.2433  0.0368  0.0690
 3086POSM   D2B36214  33.991  17.259  12.264  0.3525  0.1054 -0.1310
 3086POSM   C3B36215  34.178  17.041  11.962 -0.4918 -0.0297  0.1658
 3086POSM   C4B36216  34.276  16.661  11.734  0.0412 -0.0340 -0.0058
 3087DOPC   NC336217  33.912  20.180  10.541  0.0616 -0.2073  0.0969
 3087DOPC   PO436218  34.151  19.976  10.719  0.1093 -0.0191 -0.4585
 3087DOPC   GL136219  34.193  19.931  11.153  0.2158 -0.0046  0.0381
 3087DOPC   GL236220  34.253  19.673  11.215 -0.3153 -0.0083  0.2218
 3087DOPC   C1A36221  34.357  20.132  11.527  0.0064  0.2039  0.0749
 3087DOPC   D2A36222  34.477  20.298  11.964  0.3602  0.2162 -0.0631
 3087DOPC   C3A36223  34.827  20.147  12.239  0.0335  0.4152  0.0428
 3087DOPC   C4A36224  35.193  20.390  12.375  0.0854  0.1756 -0.2750
 3087DOPC   C1B36225  34.201  19.716  11.673 -0.1906 -0.0668 -0.1702
 3087DOPC   D2B36226  34.541  19.661  11.988 -0.3693  0.1646  0.0254
 3087DOPC   C3B36227  34.542  19.310  12.227  0.1332 -0.1670  0.3318
 3087DOPC   C4B36228  34.624  18.853  12.110 -0.4346  0.1059  0.0330
 3088POSM   NC336229  29.658  24.357  11.448 -0.2719 -0.0059  0.2715
 3088POSM   PO436230  29.625  24.768  11.496  0.1220  0.0791 -0.0091
 3088POSM   AM136231  29.842  24.740  11.711  0.0776 -0.3421  0.4100
 3088POSM   AM236232  29.919  24.512  11.827  0.1284  0.1417  0.1273
 3088POSM   T1A36233  30.196  24.930  12.044  0.0343  0.0754 -0.0977
 3088POSM   C2A36234  30.507  25.033  12.323 -0.1215  0.0928 -0.0316
 3088POSM   C3A36235  30.632  24.995  12.805 -0.2885  0.4130  0.2530
 3088POSM   C1B36236  29.969  24.185  11.907  0.0612 -0.1600  0.2044
 3088POSM   D2B36237  29.993  23.875  12.285  0.0055  0.0017  0.1980
 3088POSM   C3B36238  30.005  24.094  12.697 -0.3127  0.6138  0.1361
 3088POSM   C4B36239  30.366  24.340  12.935  0.0829 -0.3712 -0.4505
 3089DOPE   NH336240  29.987  14.068  10.102  0.0742  0.1742  0.0883
 3089DOPE   PO436241  29.670  14.019  10.216 -0.3369  0.1063  0.3074
 3089DOPE   GL136242  29.651  14.029  10.578 -0.1852  0.2106  0.0439
 3089DOPE   GL236243  29.809  13.874  10.855  0.1849 -0.3618  0.0874
 3089DOPE   C1A36244  29.658  14.270  10.952  0.0575  0.1890 -0.1704
 3089DOPE   D2A36245  29.826  14.523  11.290  0.1973 -0.1523 -0.0671
 3089DOPE   C3A36246  29.915  14.422  11.767 -0.0009 -0.1748 -0.0024
 3089DOPE   C4A36247  30.051  14.289  12.156  0.3588  0.1365 -0.1386
 3089DOPE   C1B36248  30.173  13.768  11.079  0.0096  0.2203  0.0560
 3089DOPE   D2B36249  30.310  13.710  11.544  0.1098  0.0994 -0.1222
 3089DOPE   C3B36250  30.250  13.450  11.919 -0.3746 -0.0118 -0.1143
 3089DOPE   C4B36251  29.854  13.419  12.176 -0.1776 -0.1114 -0.1114
 3090DOPC   NC336252  33.922  16.466  10.642 -0.2459 -0.0143  0.1405
 3090DOPC   PO436253  34.187  16.662  10.842 -0.1718 -0.1241 -0.0115
 3090DOPC   GL136254  34.010  16.929  11.117  0.0412 -0.0946  0.0653
 3090DOPC   GL236255  34.183  17.135  11.275 -0.0916  0.0479  0.0903
 3090DOPC   C1A36256  33.805  17.039  11.539  0.0670 -0.3185 -0.2476
 3090DOPC   D2A36257  33.697  16.937  11.983  0.0599  0.0112 -0.0154
 3090DOPC   C3A36258  33.532  17.186  12.389  0.0645  0.2775  0.1155
 3090DOPC   C4A36259  33.765  17.350  12.793  0.3996  0.0805 -0.0700
 3090DOPC   C1B36260  34.484  17.178  11.592 -0.1433  0.4590  0.0939
 3090DOPC   D2B36261  34.640  17.358  11.976 -0.0924 -0.1758  0.1149
 3090DOPC   C3B36262  34.543  17.137  12.378 -0.0615  0.0659  0.0263
 3090DOPC   C4B36263  34.258  16.812  12.566 -0.0303 -0.1968 -0.1042
 3091DOPE   NH336264   1.793  10.114  10.518 -0.1217  0.0557  0.0682
 3091DOPE   PO436265   1.987   9.897  10.613 -0.1419 -0.0935  0.2084
 3091DOPE   GL136266   2.030  10.028  10.931 -0.1326 -0.0805  0.1145
 3091DOPE   GL236267   1.952  10.260  10.983 -0.1776  0.3318 -0.1491
 3091DOPE   C1A36268   2.149  10.121  11.390  0.1293 -0.2926  0.3010
 3091DOPE   D2A36269   2.022  10.410  11.713  0.0249 -0.3280  0.0747
 3091DOPE   C3A36270   1.847  10.814  11.654 -0.1542 -0.1405  0.2267
 3091DOPE   C4A36271   1.513  11.128  11.555 -0.0538 -0.0399  0.0413
 3091DOPE   C1B36272   2.110  10.706  11.226 -0.2504 -0.1124  0.0523
 3091DOPE   D2B36273   2.167  11.127  11.281  0.1221 -0.3455 -0.2233
 3091DOPE   C3B36274   2.231  11.394  11.673 -0.0517  0.1807 -0.2233
 3091DOPE   C4B36275   2.545  11.593  11.869 -0.0073  0.1372 -0.0403
 3092POSM   NC336276  24.485  16.550   9.791 -0.3630  0.0320  0.2090
 3092POSM   PO436277  24.773  16.428   9.601 -0.1354 -0.0976 -0.2486
 3092POSM   AM136278  24.888  16.254   9.868  0.1515 -0.0392  0.0380
 3092POSM   AM236279  24.742  16.192  10.140  0.1649  0.0067 -0.1019
 3092POSM   T1A36280  25.320  16.120  10.075  0.0121 -0.4389 -0.2682
 3092POSM   C2A36281  25.664  15.935  10.313 -0.0476 -0.6381 -0.0533
 3092POSM   C3A36282  26.086  15.957  10.436 -0.1134 -0.3025  0.1368
 3092POSM   C1B36283  24.456  16.076  10.357 -0.0979 -0.0156  0.0235
 3092POSM   D2B36284  24.126  16.017  10.743  0.1398  0.0529  0.1371
 3092POSM   C3B36285  24.282  16.249  11.113 -0.2329 -0.1557  0.2285
 3092POSM   C4B36286  24.363  16.394  11.545  0.0556  0.2306  0.0507
 3093DOPC   NC336287  30.420  17.758  11.252  0.0490  0.1134  0.2622
 3093DOPC   PO436288  30.531  17.986  10.965  0.1615 -0.0501 -0.1275
 3093DOPC   GL136289  30.434  18.181  11.357  0.0272  0.1774 -0.3402
 3093DOPC   GL236290  30.349  18.448  11.436 -0.0646  0.0854  0.3349
 3093DOPC   C1A36291  30.257  17.977  11.788  0.0379  0.4267  0.1072
 3093DOPC   D2A36292  30.371  17.851  12.202 -0.0846  0.0084  0.0368
 3093DOPC   C3A36293  30.588  17.777  12.619  0.2524  0.1225 -0.0957
 3093DOPC   C4A36294  31.052  17.849  12.814 -0.1365  0.0367 -0.0962
 3093DOPC   C1B36295  30.252  18.420  11.907 -0.1519  0.3969 -0.3953
 3093DOPC   D2B36296  30.225  18.320  12.377 -0.0876 -0.0148  0.5774
 3093DOPC   C3B36297  30.305  18.705  12.662  0.0748 -0.1032 -0.1742
 3093DOPC   C4B36298  30.484  19.153  12.740  0.0405  0.2575 -0.0618
 3094POSM   NC336299  34.078  13.370  11.028  0.1352  0.0791  0.1702
 3094POSM   PO436300  33.847  13.374  10.706  0.1405 -0.2486  0.0782
 3094POSM   AM136301  33.559  13.282  10.904 -0.0524  0.0732 -0.3334
 3094POSM   AM236302  33.575  13.195  11.189  0.1386 -0.2048  0.1096
 3094POSM   T1A36303  33.193  13.530  11.168 -0.2703 -0.0395  0.1129
 3094POSM   C2A36304  32.935  13.680  11.493 -0.1109 -0.1585 -0.0373
 3094POSM   C3A36305  32.667  13.721  11.887 -0.0528 -0.1047 -0.1102
 3094POSM   C1B36306  33.600  13.352  11.522 -0.0618 -0.4321  0.0413
 3094POSM   D2B36307  33.605  13.301  11.988  0.0756 -0.3012 -0.1106
 3094POSM   C3B36308  33.516  12.859  12.154  0.0457  0.3459 -0.0598
 3094POSM   C4B36309  33.620  12.696  12.564  0.0099 -0.0154  0.1408
 3095POSM   NC336310  25.800  20.434  10.282 -0.0658  0.1277  0.3003
 3095POSM   PO436311  25.518  20.584  10.502 -0.1843  0.0156  0.1762
 3095POSM   AM136312  25.452  20.485  10.801 -0.0213  0.0005 -0.1474
 3095POSM   AM236313  25.466  20.234  10.952  0.1415 -0.1384  0.1579
 3095POSM   T1A36314  25.422  20.605  11.297  0.0703  0.0610  0.3148
 3095POSM   C2A36315  25.305  20.638  11.766  0.0110  0.1510  0.0283
 3095POSM   C3A36316  25.252  20.757  12.208 -0.2937  0.0784 -0.2093
 3095POSM   C1B36317  25.270  20.149  11.239  0.1080  0.2108  0.0764
 3095POSM   D2B36318  25.095  20.192  11.721 -0.0752  0.0864  0.0230
 3095POSM   C3B36319  24.790  20.322  12.041 -0.0914 -0.3835 -0.1757
 3095POSM   C4B36320  24.765  20.700  12.255 -0.1010 -0.0718 -0.2661
 3096DOPC   NC336321  29.318  14.368  10.387 -0.1289  0.2381 -0.0892
 3096DOPC   PO436322  28.989  14.423  10.156  0.2351 -0.1765  0.0381
 3096DOPC   GL136323  28.930  14.548  10.535 -0.1133  0.0933  0.0393
 3096DOPC   GL236324  28.948  14.797  10.600 -0.1967 -0.1323  0.2464
 3096DOPC   C1A36325  28.806  14.264  10.936  0.0124  0.0967  0.0043
 3096DOPC   D2A36326  28.489  14.051  11.237  0.0720 -0.2257  0.1044
 3096DOPC   C3A36327  28.604  13.640  11.394 -0.2312  0.1084  0.1442
 3096DOPC   C4A36328  28.839  13.268  11.659  0.0153  0.0608  0.0236
 3096DOPC   C1B36329  29.239  14.543  10.879  0.2778 -0.0222  0.0294
 3096DOPC   D2B36330  29.302  14.369  11.317 -0.0462 -0.2769 -0.0153
 3096DOPC   C3B36331  29.347  14.527  11.741 -0.1364 -0.1082  0.3128
 3096DOPC   C4B36332  29.278  14.836  12.087 -0.1791  0.1503  0.2813
 3097DOPE   NH336333  28.976  15.700  10.326 -0.2902  0.4458 -0.2758
 3097DOPE   PO436334  28.857  15.995  10.262 -0.1330 -0.1831 -0.0402
 3097DOPE   GL136335  28.536  16.080  10.321  0.1568  0.5948 -0.2991
 3097DOPE   GL236336  28.472  16.239  10.563  0.2507  0.3136  0.0240
 3097DOPE   C1A36337  28.325  15.767  10.630 -0.0207 -0.2119 -0.0643
 3097DOPE   D2A36338  27.957  15.475  10.789 -0.1378  0.2122 -0.0332
 3097DOPE   C3A36339  27.785  15.165  10.498 -0.2009  0.0178 -0.2288
 3097DOPE   C4A36340  27.564  14.942  10.154  0.1220  0.2060  0.1903
 3097DOPE   C1B36341  28.693  16.012  10.886 -0.0446 -0.0125  0.0005
 3097DOPE   D2B36342  28.648  15.849  11.299 -0.0436  0.1972 -0.1029
 3097DOPE   C3B36343  28.443  15.493  11.548  0.1722  0.2559  0.1710
 3097DOPE   C4B36344  28.075  15.367  11.856 -0.2045 -0.2046  0.0464
 3098POSM   NC336345  27.246  24.951  11.595 -0.0917  0.0400  0.0735
 3098POSM   PO436346  26.881  24.846  11.344 -0.2166 -0.1114  0.1193
 3098POSM   AM136347  26.869  24.734  11.654  0.3215 -0.0039 -0.0944
 3098POSM   AM236348  27.018  24.548  11.854  0.2503 -0.2130 -0.0702
 3098POSM   T1A36349  26.654  24.874  12.042  0.0367 -0.3279 -0.2104
 3098POSM   C2A36350  26.825  24.834  12.439  0.0041 -0.1775 -0.1263
 3098POSM   C3A36351  27.230  24.685  12.455 -0.2242  0.1868  0.0244
 3098POSM   C1B36352  26.923  24.449  12.112 -0.0174  0.0492 -0.0503
 3098POSM   D2B36353  26.909  24.288  12.539 -0.0190  0.0808 -0.0964
 3098POSM   C3B36354  26.739  24.583  12.878  0.1892  0.1407  0.0641
 3098POSM   C4B36355  26.862  24.582  13.323  0.1134  0.2068 -0.1580
 3099POSM   NC336356  27.812  18.000  10.419  0.2134 -0.1217 -0.0287
 3099POSM   PO436357  28.136  17.797  10.405  0.2574 -0.0717  0.5087
 3099POSM   AM136358  28.144  17.853  10.712  0.1749  0.0914 -0.0799
 3099POSM   AM236359  28.138  18.032  10.959 -0.2800  0.4452  0.1761
 3099POSM   T1A36360  28.157  17.529  11.146  0.4721  0.1006  0.1578
 3099POSM   C2A36361  28.023  17.656  11.593  0.0247  0.4162 -0.3663
 3099POSM   C3A36362  27.939  17.357  11.980 -0.1206 -0.1140  0.1487
 3099POSM   C1B36363  28.003  18.069  11.245 -0.0234  0.1271 -0.1175
 3099POSM   D2B36364  28.039  18.177  11.648  0.2492 -0.1571  0.1210
 3099POSM   C3B36365  28.026  18.419  12.072 -0.2559 -0.1538  0.0546
 3099POSM   C4B36366  28.103  18.247  12.461  0.3497 -0.0293  0.1862
 3100DOPS   CNO36367  34.006  19.054  11.052 -0.1995  0.2579  0.0143
 3100DOPS   PO436368  33.696  18.974  11.032  0.4011 -0.0996  0.0470
 3100DOPS   GL136369  33.645  18.869  11.368 -0.2317  0.0206 -0.1328
 3100DOPS   GL236370  33.580  19.159  11.507 -0.2301  0.0163  0.1271
 3100DOPS   C1A36371  33.270  18.792  11.615 -0.0888  0.2021 -0.0106
 3100DOPS   D2A36372  33.197  18.642  12.043 -0.1431 -0.0286 -0.0295
 3100DOPS   C3A36373  33.228  18.989  12.324  0.0413 -0.0051 -0.0736
 3100DOPS   C4A36374  33.288  19.099  12.735  0.1347  0.0459  0.1483
 3100DOPS   C1B36375  33.804  19.452  11.859  0.2693  0.2930  0.0151
 3100DOPS   D2B36376  33.964  19.608  12.252  0.2518 -0.0219  0.2382
 3100DOPS   C3B36377  33.939  19.820  12.677 -0.0467 -0.0545 -0.0407
 3100DOPS   C4B36378  34.066  20.066  13.029 -0.0399  0.1391 -0.1001
 3101DOPC   NC336379  26.559  24.072  11.246  0.3122 -0.0935 -0.1857
 3101DOPC   PO436380  26.785  24.309  11.475 -0.1279  0.2056 -0.1503
 3101DOPC   GL136381  26.555  24.310  11.778  0.1676 -0.5465 -0.1108
 3101DOPC   GL236382  26.443  24.080  11.782  0.3710 -0.0141  0.1451
 3101DOPC   C1A36383  26.621  24.102  12.228  0.0379  0.1524 -0.0033
 3101DOPC   D2A36384  26.689  23.699  12.466  0.0494  0.3498  0.1226
 3101DOPC   C3A36385  26.582  23.451  12.917  0.1085  0.1200  0.2170
 3101DOPC   C4A36386  26.759  23.460  13.358 -0.0222 -0.0855 -0.1424
 3101DOPC   C1B36387  26.327  23.775  12.041 -0.2188 -0.1207 -0.1483
 3101DOPC   D2B36388  26.176  23.546  12.424  0.1645  0.1789 -0.0539
 3101DOPC   C3B36389  26.193  23.681  12.843 -0.2097 -0.1360 -0.0165
 3101DOPC   C4B36390  26.201  23.797  13.267  0.0266  0.1071  0.2039
 3102POSM   NC336391  26.715  15.453   9.615 -0.1836 -0.0126  0.1707
 3102POSM   PO436392  26.367  15.630   9.512 -0.2049  0.2269 -0.2616
 3102POSM   AM136393  26.303  15.439   9.804 -0.1700  0.2124 -0.0525
 3102POSM   AM236394  26.419  15.235   9.951  0.1092 -0.1483 -0.1028
 3102POSM   T1A36395  26.056  15.518  10.244  0.1269  0.1141  0.0470
 3102POSM   C2A36396  25.766  15.597  10.621 -0.1126  0.1081  0.0109
 3102POSM   C3A36397  25.488  15.644  11.000 -0.0058 -0.1746 -0.3298
 3102POSM   C1B36398  26.298  15.028  10.148 -0.2110 -0.1426 -0.1945
 3102POSM   D2B36399  26.065  14.950  10.546 -0.1162  0.1233  0.0640
 3102POSM   C3B36400  26.300  14.998  10.986  0.0399  0.1723  0.2572
 3102POSM   C4B36401  26.195  14.953  11.435  0.1112  0.0089  0.0097
 3103DOPE   NH336402  31.127  16.266  10.571 -0.0943 -0.1588  0.0588
 3103DOPE   PO436403  31.454  16.238  10.656  0.5672  0.0737  0.0289
 3103DOPE   GL136404  31.276  16.258  10.997  0.0508  0.1143 -0.1900
 3103DOPE   GL236405  31.565  16.148  11.122 -0.1548  0.2386 -0.0989
 3103DOPE   C1A36406  31.353  16.625  11.342 -0.2334 -0.1462  0.2274
 3103DOPE   D2A36407  31.317  16.787  11.793  0.0174 -0.3352  0.2056
 3103DOPE   C3A36408  31.521  16.592  12.141 -0.2984  0.0494 -0.2297
 3103DOPE   C4A36409  31.660  16.652  12.592 -0.0540  0.0246 -0.0185
 3103DOPE   C1B36410  31.841  15.934  11.441  0.0275 -0.0066  0.1776
 3103DOPE   D2B36411  31.980  15.813  11.900  0.3874 -0.2799  0.1149
 3103DOPE   C3B36412  32.234  15.822  12.241 -0.4685 -0.0082 -0.1923
 3103DOPE   C4B36413  32.680  15.702  12.275  0.1756  0.2563  0.0672
 3104POSM   NC336414  26.575  19.435  10.522 -0.0094 -0.0362 -0.2772
 3104POSM   PO436415  26.963  19.394  10.381  0.0330 -0.1895 -0.3326
 3104POSM   AM136416  26.987  19.195  10.648 -0.1681 -0.2364  0.5347
 3104POSM   AM236417  26.888  19.230  10.873  0.3698 -0.0489  0.2502
 3104POSM   T1A36418  27.167  18.817  10.958 -0.0749  0.0364  0.1446
 3104POSM   C2A36419  27.382  18.694  11.330 -0.1225 -0.3972  0.0705
 3104POSM   C3A36420  27.533  18.464  11.737  0.4193  0.0345  0.0722
 3104POSM   C1B36421  26.646  19.216  11.076 -0.2480  0.0244 -0.2916
 3104POSM   D2B36422  26.461  19.105  11.517 -0.1060  0.3546 -0.1246
 3104POSM   C3B36423  26.438  19.218  11.965  0.1211  0.0587 -0.1829
 3104POSM   C4B36424  26.338  19.255  12.398 -0.0272 -0.0645 -0.1713
 3105POSM   NC336425  27.185  19.824  10.338  0.1562 -0.0314  0.1233
 3105POSM   PO436426  27.510  19.682  10.188 -0.0771 -0.0453 -0.1872
 3105POSM   AM136427  27.543  19.536  10.478  0.1229 -0.0285  0.0053
 3105POSM   AM236428  27.401  19.354  10.613  0.0362  0.3191 -0.1179
 3105POSM   T1A36429  27.717  19.598  10.966  0.1887 -0.0826  0.5379
 3105POSM   C2A36430  27.782  19.820  11.372  0.0187  0.0625 -0.0794
 3105POSM   C3A36431  27.763  19.793  11.823 -0.2954 -0.1008 -0.0614
 3105POSM   C1B36432  27.321  19.291  10.947  0.2847 -0.4501 -0.1500
 3105POSM   D2B36433  27.140  19.126  11.342 -0.0791 -0.1221  0.1486
 3105POSM   C3B36434  27.264  18.940  11.718  0.0878  0.0747 -0.3216
 3105POSM   C4B36435  27.170  19.137  12.137  0.0324 -0.0561  0.3938
 3106POSM   NC336436  31.019  17.490  10.371 -0.0233 -0.0406  0.4392
 3106POSM   PO436437  31.171  17.271  10.684 -0.2862  0.0933  0.1670
 3106POSM   AM136438  31.065  17.184  10.959 -0.1429  0.1399 -0.0422
 3106POSM   AM236439  31.056  17.017  11.198 -0.2359  0.1623 -0.0446
 3106POSM   T1A36440  30.889  17.462  11.350  0.0532 -0.0166  0.3279
 3106POSM   C2A36441  30.780  17.807  11.685  0.2726 -0.2003 -0.0328
 3106POSM   C3A36442  30.794  18.135  12.047 -0.0433 -0.1982  0.0622
 3106POSM   C1B36443  30.906  16.953  11.563  0.0911 -0.1809 -0.2034
 3106POSM   D2B36444  30.851  16.861  11.991  0.2448  0.1528  0.1091
 3106POSM   C3B36445  31.166  17.018  12.208  0.0000 -0.0539 -0.0974
 3106POSM   C4B36446  31.290  17.101  12.661 -0.0810 -0.0993  0.3108
 3107DOPS   CNO36447   2.581  13.496  10.189 -0.0945 -0.1685 -0.2529
 3107DOPS   PO436448   2.773  13.737  10.429 -0.0970 -0.1285 -0.1310
 3107DOPS   GL136449   2.914  13.852  10.812 -0.3833 -0.0466 -0.2172
 3107DOPS   GL236450   2.594  13.959  10.860  0.1023  0.3053  0.0639
 3107DOPS   C1A36451   3.225  14.074  11.115 -0.1301  0.3559 -0.0896
 3107DOPS   D2A36452   3.497  14.164  11.459 -0.0718 -0.4194 -0.2548
 3107DOPS   C3A36453   3.493  14.035  11.882 -0.0235  0.0300 -0.1021
 3107DOPS   C4A36454   3.255  13.666  12.020 -0.1855  0.0598  0.1637
 3107DOPS   C1B36455   2.287  13.723  11.167 -0.1596  0.2300  0.0599
 3107DOPS   D2B36456   2.052  13.564  11.542 -0.0756 -0.2174 -0.0896
 3107DOPS   C3B36457   2.213  13.388  11.897 -0.0565 -0.1476  0.0475
 3107DOPS   C4B36458   2.575  13.187  11.992  0.1656 -0.1891 -0.3480
 3108POSM   NC336459  31.268  13.561  10.380  0.0909 -0.1500 -0.3309
 3108POSM   PO436460  31.000  13.319  10.514  0.0314 -0.3213  0.2196
 3108POSM   AM136461  30.906  13.498  10.797 -0.2360  0.1486  0.0048
 3108POSM   AM236462  31.120  13.619  10.935  0.1903  0.2404  0.0375
 3108POSM   T1A36463  30.665  13.781  11.132  0.0356 -0.0828 -0.1562
 3108POSM   C2A36464  30.697  13.985  11.592 -0.1016  0.1684  0.2695
 3108POSM   C3A36465  30.900  13.941  12.043  0.2121 -0.2217  0.1868
 3108POSM   C1B36466  31.141  13.669  11.265 -0.0246 -0.0608  0.4703
 3108POSM   D2B36467  31.232  13.826  11.664 -0.3392  0.0039  0.1128
 3108POSM   C3B36468  31.673  13.794  11.810 -0.0909  0.0686  0.1918
 3108POSM   C4B36469  31.753  14.046  12.243 -0.0221  0.0237 -0.1326
 3109DOPE   NH336470   0.912  17.982  10.135  0.1032  0.0487  0.1834
 3109DOPE   PO436471   0.610  18.086  10.138  0.2115 -0.0816 -0.0834
 3109DOPE   GL136472   0.669  18.291  10.502  0.0046  0.0873 -0.1953
 3109DOPE   GL236473   0.688  18.491  10.653 -0.0263 -0.0823  0.1088
 3109DOPE   C1A36474   0.927  18.071  10.849  0.4146 -0.0760 -0.2560
 3109DOPE   D2A36475   0.939  17.904  11.322  0.2561 -0.1543 -0.0703
 3109DOPE   C3A36476   0.527  17.958  11.456  0.4816 -0.2324 -0.1519
 3109DOPE   C4A36477   0.329  18.177  11.850  0.1467  0.1809 -0.1281
 3109DOPE   C1B36478   0.728  18.856  10.929 -0.0072 -0.2152  0.1131
 3109DOPE   D2B36479   0.697  19.286  11.019  0.0843 -0.0037  0.1004
 3109DOPE   C3B36480   0.863  19.211  11.443 -0.0718  0.1114  0.1765
 3109DOPE   C4B36481   0.624  19.126  11.889 -0.0240  0.0222 -0.1008
 3110DOPE   NH336482  32.891  21.471  10.772 -0.2466  0.0733  0.1710
 3110DOPE   PO436483  32.590  21.486  10.725  0.4243  0.1829 -0.0279
 3110DOPE   GL136484  32.672  21.594  11.166  0.4156 -0.2232 -0.0353
 3110DOPE   GL236485  32.467  21.471  11.369  0.2961  0.0791  0.1620
 3110DOPE   C1A36486  32.953  21.525  11.545  0.0062 -0.0087 -0.1779
 3110DOPE   D2A36487  33.387  21.449  11.798 -0.1187  0.1160 -0.2396
 3110DOPE   C3A36488  33.312  21.412  12.283  0.0346 -0.0121  0.4388
 3110DOPE   C4A36489  33.358  21.495  12.727 -0.1834 -0.2982 -0.1947
 3110DOPE   C1B36490  32.556  21.371  11.819  0.2202  0.0987 -0.0951
 3110DOPE   D2B36491  32.383  21.302  12.223  0.3728 -0.1543  0.0219
 3110DOPE   C3B36492  32.304  20.852  12.380  0.1231 -0.2504  0.0829
 3110DOPE   C4B36493  31.881  20.620  12.323 -0.1228  0.0723 -0.3049
 3111DOPE   NH336494  30.372  22.886  11.147 -0.1023 -0.0415 -0.0633
 3111DOPE   PO436495  30.657  23.021  11.104 -0.2097  0.0130  0.3412
 3111DOPE   GL136496  30.600  22.816  11.511  0.1967  0.3168  0.0720
 3111DOPE   GL236497  30.695  23.027  11.619  0.0283  0.4658 -0.2228
 3111DOPE   C1A36498  30.561  22.737  11.989 -0.3254 -0.1977  0.1808
 3111DOPE   D2A36499  30.743  22.867  12.368 -0.0292 -0.0493 -0.2040
 3111DOPE   C3A36500  30.883  22.545  12.594  0.0909  0.0271 -0.0968
 3111DOPE   C4A36501  30.948  22.374  13.029 -0.0716  0.0331 -0.1912
 3111DOPE   C1B36502  30.545  23.320  11.925  0.0183 -0.0105 -0.1837
 3111DOPE   D2B36503  30.443  23.586  12.274  0.0016  0.0506 -0.0245
 3111DOPE   C3B36504  30.142  23.590  12.609  0.1128 -0.1063 -0.1251
 3111DOPE   C4B36505  30.107  23.410  13.009  0.0005  0.0103 -0.1404
 3112DOPE   NH336506  25.073  14.495   9.687 -0.4544  0.3440  0.1166
 3112DOPE   PO436507  24.760  14.434   9.631  0.0877 -0.1181  0.1795
 3112DOPE   GL136508  24.713  14.584  10.036  0.1029  0.0401  0.1237
 3112DOPE   GL236509  24.660  14.301  10.149 -0.1190  0.1110 -0.0152
 3112DOPE   C1A36510  24.770  14.780  10.527 -0.0051 -0.0476 -0.0151
 3112DOPE   D2A36511  24.700  14.897  10.941 -0.2076 -0.1716 -0.1117
 3112DOPE   C3A36512  24.494  14.721  11.272  0.0816 -0.0779 -0.0996
 3112DOPE   C4A36513  24.325  14.576  11.624 -0.0919  0.0619 -0.1216
 3112DOPE   C1B36514  24.397  14.284  10.499  0.0909  0.0267 -0.3595
 3112DOPE   D2B36515  24.144  14.274  10.919 -0.1973 -0.5030  0.0547
 3112DOPE   C3B36516  24.367  14.168  11.318 -0.0373 -0.1118  0.0467
 3112DOPE   C4B36517  24.732  13.840  11.356  0.4171 -0.0128 -0.0769
 3113POSM   NC336518  22.935  14.908   9.012 -0.0701 -0.4055 -0.2665
 3113POSM   PO436519  22.955  14.716   9.341 -0.2951 -0.4726  0.1384
 3113POSM   AM136520  22.948  14.639   9.672  0.1768  0.0459  0.1863
 3113POSM   AM236521  23.030  14.431   9.822  0.1265  0.1312  0.1993
 3113POSM   T1A36522  22.699  14.659  10.136  0.1009  0.0510  0.3327
 3113POSM   C2A36523  22.593  14.448  10.440  0.3720 -0.1694 -0.0702
 3113POSM   C3A36524  22.615  14.357  10.861 -0.1203 -0.0675  0.1292
 3113POSM   C1B36525  23.086  14.335  10.147 -0.1295  0.0843 -0.3850
 3113POSM   D2B36526  23.027  14.175  10.561 -0.0393 -0.1590  0.1738
 3113POSM   C3B36527  23.165  13.792  10.691 -0.0798 -0.1865  0.1741
 3113POSM   C4B36528  23.580  13.671  10.666 -0.0426  0.0982 -0.0879
 3114DOPC   NC336529  34.136  21.541  10.449 -0.2926 -0.0412  0.3045
 3114DOPC   PO436530  34.467  21.338  10.532  0.0800  0.0157 -0.0721
 3114DOPC   GL136531  34.439  21.343  10.906  0.1380 -0.3668 -0.3797
 3114DOPC   GL236532  34.205  21.541  11.003 -0.1953 -0.1272  0.0024
 3114DOPC   C1A36533  34.192  21.133  11.283 -0.0168  0.0771  0.4519
 3114DOPC   D2A36534  34.101  21.142  11.743 -0.0769 -0.1415 -0.2509
 3114DOPC   C3A36535  34.421  21.144  12.060  0.1012  0.1028 -0.2311
 3114DOPC   C4A36536  34.726  21.326  12.346 -0.0299 -0.2395  0.1496
 3114DOPC   C1B36537  34.398  21.577  11.421 -0.0153 -0.0130  0.0985
 3114DOPC   D2B36538  34.366  21.747  11.836  0.0139 -0.1527  0.0724
 3114DOPC   C3B36539  34.342  21.601  12.256  0.5363  0.0192 -0.1727
 3114DOPC   C4B36540  34.160  21.599  12.701  0.0100  0.1062 -0.1560
 3115DOPC   NC336541  28.753  21.237  11.237 -0.0241  0.0171  0.0067
 3115DOPC   PO436542  28.875  21.618  11.215  0.2240 -0.2875 -0.0901
 3115DOPC   GL136543  29.134  21.716  11.568  0.2875  0.2891  0.0952
 3115DOPC   GL236544  29.420  21.696  11.446 -0.1013 -0.0948  0.3307
 3115DOPC   C1A36545  29.073  21.699  12.040 -0.1129 -0.3479 -0.1483
 3115DOPC   D2A36546  28.755  21.443  12.253  0.2296  0.0011  0.2383
 3115DOPC   C3A36547  28.340  21.145  12.156 -0.0905 -0.3039  0.0105
 3115DOPC   C4A36548  27.955  20.967  12.363 -0.0870 -0.2433 -0.0107
 3115DOPC   C1B36549  29.498  21.547  11.857 -0.4962 -0.3052 -0.2049
 3115DOPC   D2B36550  29.602  21.480  12.248  0.0863 -0.2549  0.0073
 3115DOPC   C3B36551  29.798  21.573  12.680  0.4139  0.3250  0.0850
 3115DOPC   C4B36552  30.061  21.646  12.995 -0.2036 -0.3615  0.1216
 3116POSM   NC336553  29.557  17.870  10.990 -0.4138 -0.0424  0.1279
 3116POSM   PO436554  29.957  17.765  10.902  0.0417  0.0790  0.0087
 3116POSM   AM136555  29.921  17.675  11.229 -0.1757 -0.0609  0.3324
 3116POSM   AM236556  29.774  17.731  11.449 -0.0367 -0.1189  0.0354
 3116POSM   T1A36557  30.191  17.512  11.603 -0.0860 -0.2627  0.1107
 3116POSM   C2A36558  30.035  17.359  12.055 -0.0555 -0.2802  0.2918
 3116POSM   C3A36559  30.174  17.449  12.466 -0.4561  0.0263  0.1827
 3116POSM   C1B36560  29.820  17.762  11.798  0.1158  0.0823  0.1068
 3116POSM   D2B36561  29.628  17.600  12.177 -0.1067  0.2077  0.1308
 3116POSM   C3B36562  29.709  17.251  12.404  0.1248  0.1661  0.1273
 3116POSM   C4B36563  29.960  16.947  12.603 -0.1960  0.2164 -0.1270
 3117POSM   NC336564  34.175  18.778  10.676  0.1867  0.1359  0.0563
 3117POSM   PO436565  34.140  18.405  10.546 -0.2079 -0.0248  0.1573
 3117POSM   AM136566  34.284  18.330  10.830  0.1470 -0.1620 -0.1057
 3117POSM   AM236567  34.365  18.159  11.038  0.1616 -0.0772  0.0139
 3117POSM   T1A36568  34.643  18.507  11.167 -0.0932  0.0979  0.0988
 3117POSM   C2A36569  35.032  18.474  11.413  0.5159 -0.1014  0.1859
 3117POSM   C3A36570  35.324  18.629  11.724  0.1743 -0.2203 -0.0422
 3117POSM   C1B36571  34.231  18.178  11.380 -0.0705  0.0740 -0.0445
 3117POSM   D2B36572  34.194  18.242  11.843  0.0481 -0.3209 -0.0041
 3117POSM   C3B36573  34.182  18.560  12.183  0.0997 -0.0954 -0.1797
 3117POSM   C4B36574  34.204  18.962  12.479 -0.2814  0.3047 -0.2558
 3118DOPS   CNO36575  33.532  14.510  10.472  0.0146  0.1663  0.2081
 3118DOPS   PO436576  33.540  14.159  10.504  0.3080 -0.1004 -0.2169
 3118DOPS   GL136577  33.379  14.390  10.873 -0.5152 -0.0200  0.0350
 3118DOPS   GL236578  33.348  14.186  11.062 -0.0601  0.4705 -0.0131
 3118DOPS   C1A36579  33.091  14.671  11.137 -0.0857 -0.0259 -0.1965
 3118DOPS   D2A36580  32.682  14.751  11.418  0.0161 -0.0177 -0.0066
 3118DOPS   C3A36581  32.535  15.155  11.534  0.1298 -0.0710 -0.4251
 3118DOPS   C4A36582  32.334  15.417  11.927 -0.0960  0.1276 -0.2551
 3118DOPS   C1B36583  33.505  13.906  11.438  0.1552 -0.1274  0.3126
 3118DOPS   D2B36584  33.338  13.675  11.824 -0.2117 -0.3178  0.2278
 3118DOPS   C3B36585  33.640  13.719  12.198  0.2660  0.1420  0.1140
 3118DOPS   C4B36586  33.872  13.425  12.501  0.3519 -0.2018  0.0262
 3119DOPE   NH336587  33.554  20.934  10.627  0.0671  0.1829 -0.0931
 3119DOPE   PO436588  33.401  21.179  10.756 -0.2133  0.0988  0.5214
 3119DOPE   GL136589  33.646  21.162  11.109 -0.1847  0.4103  0.1795
 3119DOPE   GL236590  33.670  20.837  11.121  0.1084 -0.1878  0.0637
 3119DOPE   C1A36591  33.577  21.011  11.584  0.1368 -0.1967  0.1587
 3119DOPE   D2A36592  33.679  20.753  11.940 -0.2554  0.0316 -0.0312
 3119DOPE   C3A36593  33.720  21.175  12.135  0.0178  0.1967  0.1950
 3119DOPE   C4A36594  33.805  21.163  12.594  0.0668 -0.0852  0.1527
 3119DOPE   C1B36595  33.893  20.617  11.535  0.2909 -0.1202  0.1122
 3119DOPE   D2B36596  34.261  20.715  11.841  0.0339  0.1093 -0.0072
 3119DOPE   C3B36597  34.107  20.742  12.292  0.1837  0.0259  0.0283
 3119DOPE   C4B36598  34.052  20.449  12.618 -0.0290  0.1975 -0.1574
 3120DOPC   NC336599   0.307  15.515  11.210 -0.1429  0.1416  0.2665
 3120DOPC   PO436600   0.269  15.834  11.004 -0.1241 -0.3802  0.2042
 3120DOPC   GL136601   0.424  15.900  11.426  0.1661 -0.2107 -0.0488
 3120DOPC   GL236602   0.141  15.800  11.546 -0.2834  0.0176  0.1040
 3120DOPC   C1A36603   0.640  16.187  11.749 -0.1922  0.0537  0.1913
 3120DOPC   D2A36604   0.467  16.572  11.937 -0.0543  0.1238 -0.1739
 3120DOPC   C3A36605   0.541  16.916  12.242 -0.3992 -0.3140  0.0528
 3120DOPC   C4A36606   0.790  17.276  12.267  0.3114 -0.1429  0.1288
 3120DOPC   C1B36607  -0.120  15.972  11.897  0.2461 -0.0439  0.1109
 3120DOPC   D2B36608  -0.476  15.796  12.156  0.0679 -0.2883 -0.0135
 3120DOPC   C3B36609  -0.506  15.892  12.581 -0.0710  0.2641 -0.1423
 3120DOPC   C4B36610  -0.334  16.036  12.959 -0.6161 -0.0673 -0.1603
 3121DOPC   NC336611  29.079  18.661  10.385  0.1120  0.1148  0.0680
 3121DOPC   PO436612  29.275  18.582  10.732  0.1451  0.2458  0.0218
 3121DOPC   GL136613  29.357  18.611  11.137 -0.1611 -0.0211 -0.1650
 3121DOPC   GL236614  29.607  18.594  11.130  0.1178 -0.2474  0.0345
 3121DOPC   C1A36615  29.194  18.216  11.287 -0.0346  0.2630  0.0555
 3121DOPC   D2A36616  29.166  17.725  11.273 -0.2551  0.0918  0.1400
 3121DOPC   C3A36617  29.348  17.455  11.564 -0.3039 -0.2036 -0.2128
 3121DOPC   C4A36618  29.623  17.175  11.860  0.0600  0.1782 -0.3239
 3121DOPC   C1B36619  29.361  18.649  11.564  0.4331  0.0773 -0.2250
 3121DOPC   D2B36620  29.179  18.696  11.948  0.3573  0.2764  0.1134
 3121DOPC   C3B36621  29.185  19.134  12.102  0.1427  0.2182 -0.0164
 3121DOPC   C4B36622  29.278  19.341  12.555 -0.4641 -0.1747  0.0389
 3122DOPC   NC336623  28.795  22.085  11.437 -0.1389  0.1086 -0.0153
 3122DOPC   PO436624  29.135  22.212  11.477  0.1122 -0.4703  0.2160
 3122DOPC   GL136625  29.040  22.181  11.864  0.1393 -0.4530  0.0759
 3122DOPC   GL236626  28.814  22.185  12.022  0.1124 -0.2273  0.0096
 3122DOPC   C1A36627  29.294  22.036  12.239  0.1125 -0.1078  0.0583
 3122DOPC   D2A36628  29.758  21.963  12.250 -0.1349 -0.0281  0.2624
 3122DOPC   C3A36629  30.031  22.123  12.565 -0.0699  0.1204 -0.2767
 3122DOPC   C4A36630  29.977  22.483  12.876 -0.1525 -0.1922 -0.1581
 3122DOPC   C1B36631  28.725  21.954  12.429 -0.2053 -0.1183  0.1195
 3122DOPC   D2B36632  28.743  21.631  12.767 -0.0197 -0.3021  0.2025
 3122DOPC   C3B36633  28.873  21.209  12.771 -0.0231  0.3168 -0.1253
 3122DOPC   C4B36634  29.100  20.832  12.869  0.4531 -0.0937 -0.2228
 3123DOPE   NH336635  30.383  12.640  10.394  0.2624 -0.1376  0.0002
 3123DOPE   PO436636  30.093  12.761  10.411  0.1685  0.0443  0.0065
 3123DOPE   GL136637  30.188  12.886  10.738  0.2762  0.0196 -0.1316
 3123DOPE   GL236638  30.356  12.735  10.882  0.1988 -0.1063 -0.0123
 3123DOPE   C1A36639  29.983  12.891  11.175  0.3859 -0.0131  0.1942
 3123DOPE   D2A36640  29.853  13.083  11.599 -0.1859 -0.1407 -0.1716
 3123DOPE   C3A36641  29.852  13.545  11.657  0.3225  0.0018 -0.2196
 3123DOPE   C4A36642  29.863  13.894  11.980 -0.1231 -0.2854  0.1795
 3123DOPE   C1B36643  30.676  12.978  11.184  0.0048  0.1540 -0.3031
 3123DOPE   D2B36644  30.777  13.334  11.349 -0.3401  0.0679 -0.0939
 3123DOPE   C3B36645  30.872  13.391  11.776 -0.0343  0.4168  0.0193
 3123DOPE   C4B36646  30.724  13.501  12.233 -0.0469 -0.0292 -0.0224
 3124DOPC   NC336647  32.129  20.112  10.403  0.0053  0.0072  0.0691
 3124DOPC   PO436648  31.863  20.257  10.634  0.2192 -0.0427  0.0208
 3124DOPC   GL136649  31.792  20.247  11.088 -0.0768  0.0291  0.0360
 3124DOPC   GL236650  31.623  20.462  11.208 -0.0156 -0.0776 -0.1660
 3124DOPC   C1A36651  31.572  20.077  11.416 -0.0839  0.4542 -0.1200
 3124DOPC   D2A36652  31.238  20.102  11.784 -0.0014  0.1276 -0.0682
 3124DOPC   C3A36653  31.492  19.751  12.020 -0.1753  0.2578 -0.0306
 3124DOPC   C4A36654  31.729  19.537  12.364 -0.4502  0.1916 -0.0918
 3124DOPC   C1B36655  31.479  20.542  11.606 -0.1758  0.1868 -0.0046
 3124DOPC   D2B36656  31.185  20.585  11.881  0.0488 -0.1118 -0.2352
 3124DOPC   C3B36657  31.366  20.653  12.325  0.1988  0.0513  0.3529
 3124DOPC   C4B36658  31.542  20.536  12.730  0.2468  0.0939 -0.3062
 3125POSM   NC336659  28.232  16.486  10.254 -0.0785  0.2305 -0.0261
 3125POSM   PO436660  28.027  16.816  10.289 -0.1779  0.1666  0.2290
 3125POSM   AM136661  27.959  16.817  10.620  0.0143 -0.0832 -0.0290
 3125POSM   AM236662  27.758  16.869  10.746 -0.3088  0.0423 -0.0041
 3125POSM   T1A36663  28.110  17.063  11.048  0.0330 -0.4613 -0.4098
 3125POSM   C2A36664  28.502  16.952  11.285  0.1137  0.1303 -0.3075
 3125POSM   C3A36665  28.608  16.522  11.225 -0.1439 -0.0050 -0.0302
 3125POSM   C1B36666  27.636  16.727  11.005  0.1708  0.0551  0.1631
 3125POSM   D2B36667  27.512  16.625  11.459  0.1239 -0.2200 -0.2049
 3125POSM   C3B36668  27.196  16.215  11.451 -0.3124  0.0750 -0.1745
 3125POSM   C4B36669  26.908  15.938  11.666  0.1462  0.1537 -0.0771
 3126DOPS   CNO36670  25.003  11.491  11.047 -0.0029 -0.0837  0.1671
 3126DOPS   PO436671  25.284  11.591  10.848 -0.3192 -0.1280  0.2337
 3126DOPS   GL136672  25.379  11.456  11.261 -0.2171 -0.3514  0.2334
 3126DOPS   GL236673  25.626  11.598  11.203 -0.0263 -0.3196  0.0604
 3126DOPS   C1A36674  25.558  11.200  11.562 -0.1387  0.0396  0.2436
 3126DOPS   D2A36675  25.674  11.163  12.009  0.2055  0.2664  0.0257
 3126DOPS   C3A36676  25.517  10.892  12.327 -0.0175 -0.0373  0.1340
 3126DOPS   C4A36677  25.455  10.798  12.777  0.3195 -0.0245  0.1524
 3126DOPS   C1B36678  25.602  11.999  11.474  0.0091  0.0475 -0.0981
 3126DOPS   D2B36679  25.351  12.150  11.847  0.0935  0.0448 -0.0156
 3126DOPS   C3B36680  25.207  11.885  12.186  0.0975 -0.0384 -0.2696
 3126DOPS   C4B36681  25.208  11.405  12.347  0.2539  0.3408 -0.1109
 3127DOPE   NH336682  27.867  17.313  10.162  0.2227 -0.0421  0.3300
 3127DOPE   PO436683  27.723  17.543  10.331 -0.2084  0.0213 -0.0850
 3127DOPE   GL136684  27.594  17.467  10.655  0.2253 -0.0851  0.3313
 3127DOPE   GL236685  27.635  17.661  10.887  0.2428  0.1504 -0.1286
 3127DOPE   C1A36686  27.556  17.199  11.029  0.4804  0.1579  0.2389
 3127DOPE   D2A36687  27.795  17.053  11.448 -0.0237 -0.1943 -0.4161
 3127DOPE   C3A36688  28.208  17.196  11.633  0.0618 -0.0570 -0.1143
 3127DOPE   C4A36689  28.256  17.011  12.095  0.0259 -0.0309  0.3226
 3127DOPE   C1B36690  27.534  17.596  11.391  0.4473  0.2481 -0.0849
 3127DOPE   D2B36691  27.494  17.305  11.750 -0.3102 -0.0182  0.0990
 3127DOPE   C3B36692  27.486  17.101  12.163  0.3059  0.1590 -0.2065
 3127DOPE   C4B36693  27.374  16.897  12.597  0.0231 -0.3755  0.0788
 3128POSM   NC336694  24.315  18.434   9.763 -0.0767  0.0027  0.0387
 3128POSM   PO436695  24.000  18.319   9.555 -0.4483  0.1208  0.4215
 3128POSM   AM136696  23.913  18.130   9.816 -0.0462  0.0898  0.3750
 3128POSM   AM236697  24.164  17.994   9.946 -0.0358  0.2014 -0.0779
 3128POSM   T1A36698  23.693  18.010  10.209  0.3249 -0.2423 -0.1241
 3128POSM   C2A36699  23.538  18.018  10.595 -0.1314 -0.0478  0.0376
 3128POSM   C3A36700  23.295  18.154  10.932 -0.2153  0.2792 -0.3728
 3128POSM   C1B36701  24.173  17.896  10.272 -0.0898 -0.1958  0.1091
 3128POSM   D2B36702  24.384  17.971  10.621 -0.0146  0.0473  0.0449
 3128POSM   C3B36703  24.346  17.823  11.028 -0.1301 -0.1874  0.1010
 3128POSM   C4B36704  24.421  17.751  11.500  0.2299 -0.1141 -0.0366
 3129DOPC   NC336705  30.671  16.006  10.359 -0.1619  0.1595  0.0185
 3129DOPC   PO436706  31.035  15.880  10.268  0.0698 -0.1772 -0.1674
 3129DOPC   GL136707  31.131  15.784  10.677  0.2575  0.3093 -0.1497
 3129DOPC   GL236708  31.140  15.470  10.655 -0.0967 -0.0067 -0.2616
 3129DOPC   C1A36709  31.175  15.867  11.138  0.0971 -0.1037 -0.1692
 3129DOPC   D2A36710  31.316  15.872  11.592 -0.1634  0.0375  0.1150
 3129DOPC   C3A36711  31.171  15.675  12.000 -0.2089 -0.0398  0.2702
 3129DOPC   C4A36712  30.947  15.504  12.390 -0.2127  0.1381  0.0173
 3129DOPC   C1B36713  30.986  15.399  11.079 -0.0639  0.2703  0.1205
 3129DOPC   D2B36714  30.821  15.539  11.508 -0.0024 -0.1413  0.2117
 3129DOPC   C3B36715  30.917  15.288  11.885  0.1076  0.0410 -0.1921
 3129DOPC   C4B36716  30.760  14.969  12.204 -0.1026 -0.1545  0.1052
 3130DOPS   CNO36717  28.404  12.191   9.947 -0.1463  0.1554  0.1047
 3130DOPS   PO436718  28.322  12.551  10.034  0.1629  0.2409 -0.2263
 3130DOPS   GL136719  28.554  12.788  10.421  0.1922 -0.0327 -0.1756
 3130DOPS   GL236720  28.392  12.527  10.586 -0.1052 -0.1648 -0.1809
 3130DOPS   C1A36721  28.472  13.100  10.793  0.2029  0.2864 -0.0161
 3130DOPS   D2A36722  28.545  13.085  11.261 -0.2276  0.1091 -0.5085
 3130DOPS   C3A36723  28.334  13.282  11.644  0.1019 -0.1083 -0.1338
 3130DOPS   C4A36724  28.448  13.596  11.996  0.0009  0.0580 -0.1306
 3130DOPS   C1B36725  28.716  12.689  10.905 -0.0573  0.1882 -0.0231
 3130DOPS   D2B36726  28.952  12.778  11.269 -0.0704  0.3285  0.0255
 3130DOPS   C3B36727  28.958  12.514  11.656  0.1225  0.1347  0.2695
 3130DOPS   C4B36728  28.971  12.443  12.065 -0.1274  0.0363 -0.0622
 3131DOPC   NC336729  26.529  18.542  10.201  0.3475 -0.1258 -0.0520
 3131DOPC   PO436730  26.184  18.544  10.397 -0.0725  0.4023 -0.0937
 3131DOPC   GL136731  26.213  18.525  10.743 -0.3792  0.0036  0.1077
 3131DOPC   GL236732  26.183  18.232  10.864  0.1152 -0.2144  0.0707
 3131DOPC   C1A36733  26.219  18.713  11.151  0.1214 -0.1482 -0.0382
 3131DOPC   D2A36734  26.201  18.634  11.575 -0.0205 -0.1835 -0.0350
 3131DOPC   C3A36735  25.846  18.665  11.893  0.1940  0.0170  0.1589
 3131DOPC   C4A36736  25.833  18.814  12.330 -0.2897 -0.0177 -0.3181
 3131DOPC   C1B36737  26.539  18.302  11.150 -0.1250 -0.1917  0.1861
 3131DOPC   D2B36738  26.661  18.287  11.591  0.3268  0.2977 -0.2523
 3131DOPC   C3B36739  27.035  18.385  11.780  0.2229 -0.0381 -0.0992
 3131DOPC   C4B36740  27.182  18.591  12.069 -0.0500  0.0583 -0.1416
 3132DOPC   NC336741  29.152  16.020  10.680 -0.0152  0.3049 -0.1578
 3132DOPC   PO436742  29.513  16.004  10.512 -0.0362 -0.2427  0.2153
 3132DOPC   GL136743  29.511  16.105  10.915  0.2212  0.1001 -0.1849
 3132DOPC   GL236744  29.742  16.247  10.991 -0.2303  0.0479  0.3286
 3132DOPC   C1A36745  29.175  15.874  11.192 -0.4449 -0.3375 -0.2665
 3132DOPC   D2A36746  29.021  15.852  11.652  0.0266  0.1151  0.1731
 3132DOPC   C3A36747  28.728  15.584  11.926 -0.0966 -0.0433  0.2430
 3132DOPC   C4A36748  28.490  15.554  12.348 -0.3569 -0.0465  0.0289
 3132DOPC   C1B36749  29.674  15.846  11.271 -0.2623 -0.1307  0.0146
 3132DOPC   D2B36750  29.917  15.762  11.656  0.1528  0.1311  0.1428
 3132DOPC   C3B36751  29.875  15.699  12.115  0.3320  0.0127  0.1338
 3132DOPC   C4B36752  29.490  15.628  12.424  0.0235  0.0828  0.0556
 3133DOPE   NH336753  29.813  14.712   9.786 -0.1063 -0.0023  0.0647
 3133DOPE   PO436754  29.732  14.474   9.975 -0.1777  0.0440 -0.2788
 3133DOPE   GL136755  29.751  14.464  10.369 -0.4174  0.1902  0.2322
 3133DOPE   GL236756  29.932  14.359  10.568 -0.0191  0.2291  0.1357
 3133DOPE   C1A36757  29.663  14.760  10.711 -0.3453  0.1301 -0.1483
 3133DOPE   D2A36758  29.803  15.088  10.952 -0.1577  0.0074  0.2073
 3133DOPE   C3A36759  29.975  15.362  11.290 -0.0846  0.1588 -0.3195
 3133DOPE   C4A36760  29.928  15.279  11.725 -0.1010 -0.2148  0.4025
 3133DOPE   C1B36761  30.163  14.298  10.933 -0.3989  0.0801  0.0503
 3133DOPE   D2B36762  30.254  14.302  11.380  0.1547  0.1307 -0.0105
 3133DOPE   C3B36763  29.885  14.038  11.416 -0.1148 -0.3504 -0.2776
 3133DOPE   C4B36764  29.469  13.985  11.613  0.0344 -0.1536  0.1540
 3134DOPC   NC336765  26.317  14.458  10.218  0.0857  0.0038 -0.1017
 3134DOPC   PO436766  26.612  14.260  10.034  0.0740 -0.2263 -0.0227
 3134DOPC   GL136767  26.769  14.471  10.323 -0.1927  0.3913  0.4752
 3134DOPC   GL236768  26.986  14.207  10.368 -0.1829 -0.3157 -0.1760
 3134DOPC   C1A36769  27.003  14.525  10.765 -0.1534  0.2275  0.4589
 3134DOPC   D2A36770  27.126  14.296  11.106 -0.1383  0.2577  0.2064
 3134DOPC   C3A36771  26.854  14.446  11.415 -0.1216  0.0776  0.0632
 3134DOPC   C4A36772  26.576  14.550  11.785  0.0643  0.2466 -0.0912
 3134DOPC   C1B36773  26.857  14.014  10.700 -0.1243  0.0688 -0.2448
 3134DOPC   D2B36774  26.601  13.673  10.860  0.2219  0.1438 -0.0532
 3134DOPC   C3B36775  26.625  13.853  11.310  0.1372 -0.0033 -0.0191
 3134DOPC   C4B36776  26.608  14.082  11.719 -0.0167  0.2126  0.0407
 3135DOPC   NC336777  30.279  22.070  10.747 -0.0499 -0.1024 -0.1965
 3135DOPC   PO436778  30.022  22.079  11.049  0.1025 -0.1305  0.3705
 3135DOPC   GL136779  29.924  21.883  11.366  0.2603 -0.0081 -0.0063
 3135DOPC   GL236780  30.163  21.853  11.517  0.1982 -0.0683 -0.0832
 3135DOPC   C1A36781  29.690  22.056  11.772  0.1273 -0.0469  0.2533
 3135DOPC   D2A36782  29.675  22.400  12.010 -0.0550  0.0360  0.2360
 3135DOPC   C3A36783  29.540  22.411  12.457 -0.1882  0.2235 -0.1126
 3135DOPC   C4A36784  29.595  22.085  12.752  0.3182 -0.0350 -0.0126
 3135DOPC   C1B36785  30.160  22.036  11.951 -0.2654 -0.2847 -0.3226
 3135DOPC   D2B36786  30.159  22.464  12.139 -0.0137  0.0221 -0.0083
 3135DOPC   C3B36787  30.360  22.562  12.569 -0.0173 -0.2109 -0.3512
 3135DOPC   C4B36788  30.446  22.279  12.978  0.1757  0.2315  0.1397
 3136POSM   NC336789  27.936  19.748  10.500 -0.1638  0.1309  0.0861
 3136POSM   PO436790  28.245  19.514  10.421 -0.0820 -0.0339 -0.1567
 3136POSM   AM136791  28.277  19.552  10.761  0.3104 -0.1533 -0.0284
 3136POSM   AM236792  28.306  19.776  10.887  0.1286 -0.3804  0.1116
 3136POSM   T1A36793  28.192  19.491  11.263 -0.2823 -0.2622  0.0871
 3136POSM   C2A36794  28.158  19.541  11.725 -0.0175  0.0918 -0.4055
 3136POSM   C3A36795  28.118  19.292  12.082 -0.1687  0.1544 -0.1178
 3136POSM   C1B36796  28.283  19.967  11.191 -0.2611  0.1466 -0.0406
 3136POSM   D2B36797  28.107  20.149  11.613  0.0457 -0.0609 -0.0757
 3136POSM   C3B36798  28.179  20.019  12.030 -0.0591  0.2260  0.0895
 3136POSM   C4B36799  28.523  20.241  12.351  0.2582 -0.1166  0.3091
 3137DOPE   NH336800  32.051  17.435  11.088 -0.0999 -0.3487 -0.1574
 3137DOPE   PO436801  32.320  17.310  10.980 -0.0091  0.4211 -0.2343
 3137DOPE   GL136802  32.474  17.257  11.296  0.4153 -0.3018 -0.2140
 3137DOPE   GL236803  32.259  17.212  11.519 -0.2520 -0.3557  0.0546
 3137DOPE   C1A36804  32.712  17.398  11.698  0.0061  0.2826  0.1526
 3137DOPE   D2A36805  32.671  17.559  12.147 -0.2194  0.1630 -0.2234
 3137DOPE   C3A36806  32.973  17.769  12.392  0.2615  0.0429  0.0628
 3137DOPE   C4A36807  33.213  18.033  12.681 -0.0347 -0.2320 -0.4492
 3137DOPE   C1B36808  32.178  16.796  11.757 -0.1332  0.0818  0.0399
 3137DOPE   D2B36809  32.316  16.605  12.174  0.2209  0.1493 -0.4250
 3137DOPE   C3B36810  32.179  16.480  12.581 -0.0428  0.2456  0.1051
 3137DOPE   C4B36811  32.288  16.405  12.981  0.1571 -0.0168  0.0145
 3138DOPS   CNO36812  27.489  15.532   9.387 -0.0664  0.3235  0.0083
 3138DOPS   PO436813  27.206  15.490   9.647  0.1097  0.2663 -0.1450
 3138DOPS   GL136814  27.045  15.485  10.027  0.2244  0.1546 -0.0181
 3138DOPS   GL236815  27.266  15.380  10.290 -0.2524 -0.1404  0.4511
 3138DOPS   C1A36816  26.718  15.520  10.387 -0.0237  0.0029  0.1456
 3138DOPS   D2A36817  26.381  15.368  10.646 -0.1120 -0.3319 -0.1106
 3138DOPS   C3A36818  26.576  15.355  11.130 -0.0085 -0.0594 -0.1324
 3138DOPS   C4A36819  26.921  15.490  11.329 -0.1659 -0.4117 -0.3148
 3138DOPS   C1B36820  27.536  15.687  10.473  0.0588  0.1641 -0.3787
 3138DOPS   D2B36821  27.459  16.139  10.613  0.3767 -0.1264 -0.2143
 3138DOPS   C3B36822  27.583  16.265  11.025  0.2419  0.1555 -0.1598
 3138DOPS   C4B36823  27.935  16.224  11.320  0.1292  0.0391  0.1565
 3139DOPC   NC336824  27.281  22.918  10.824 -0.0697  0.1502 -0.0069
 3139DOPC   PO436825  27.409  22.715  11.144  0.4847  0.2524  0.1001
 3139DOPC   GL136826  27.582  22.864  11.469  0.2171  0.1348 -0.2193
 3139DOPC   GL236827  27.739  22.648  11.585  0.0105 -0.0580  0.2768
 3139DOPC   C1A36828  27.354  22.840  11.875 -0.1793 -0.2254  0.0772
 3139DOPC   D2A36829  27.308  22.884  12.361 -0.0475  0.2013  0.2660
 3139DOPC   C3A36830  27.168  22.889  12.797 -0.0884  0.0166 -0.0986
 3139DOPC   C4A36831  27.138  23.181  13.171  0.0283  0.0175 -0.1122
 3139DOPC   C1B36832  27.592  22.316  11.866  0.1584 -0.0205  0.0608
 3139DOPC   D2B36833  27.296  22.277  12.226  0.1176  0.1348  0.4109
 3139DOPC   C3B36834  27.063  22.473  12.576  0.1256  0.1959  0.0030
 3139DOPC   C4B36835  26.785  22.368  12.923  0.2896 -0.1095 -0.2473
 3140DOPE   NH336836  26.015  16.691   9.863  0.2515  0.0876  0.0519
 3140DOPE   PO436837  26.041  16.380   9.805 -0.1657 -0.0424 -0.0900
 3140DOPE   GL136838  26.104  16.411  10.342 -0.0614  0.1817  0.2023
 3140DOPE   GL236839  26.357  16.322  10.217  0.1286  0.2929  0.2820
 3140DOPE   C1A36840  25.792  16.310  10.682  0.0670 -0.0232  0.1661
 3140DOPE   D2A36841  25.371  16.091  10.762 -0.1357  0.4657  0.4264
 3140DOPE   C3A36842  25.179  16.182  11.136  0.0847 -0.3743 -0.2343
 3140DOPE   C4A36843  25.069  15.854  11.486  0.0567 -0.1026 -0.0216
 3140DOPE   C1B36844  26.573  16.073  10.564 -0.1333  0.1903 -0.1392
 3140DOPE   D2B36845  26.589  15.742  10.855  0.1312  0.0460 -0.0053
 3140DOPE   C3B36846  26.137  15.785  10.937  0.3266 -0.0576 -0.2103
 3140DOPE   C4B36847  25.784  16.064  11.111 -0.0838 -0.0942  0.2328
 3141DOPE   NH336848  31.322  17.654  10.989  0.0486 -0.0461  0.0153
 3141DOPE   PO436849  31.605  17.832  11.034 -0.0696  0.0074 -0.1808
 3141DOPE   GL136850  31.593  17.933  11.400  0.3182  0.1891 -0.2781
 3141DOPE   GL236851  31.365  17.746  11.487 -0.4432  0.0525 -0.0585
 3141DOPE   C1A36852  31.459  18.320  11.618  0.3269  0.0119 -0.2550
 3141DOPE   D2A36853  31.417  18.654  11.972 -0.1037  0.0273 -0.0814
 3141DOPE   C3A36854  31.779  18.975  12.169  0.1495 -0.1814 -0.0576
 3141DOPE   C4A36855  32.068  19.168  12.371  0.0400 -0.0633 -0.3354
 3141DOPE   C1B36856  31.252  17.952  11.910 -0.0484  0.4331  0.1044
 3141DOPE   D2B36857  31.533  18.232  12.150 -0.0120  0.4684 -0.0169
 3141DOPE   C3B36858  31.584  18.007  12.585 -0.4763  0.2640  0.1419
 3141DOPE   C4B36859  31.608  18.005  13.034 -0.0755 -0.2568 -0.1765
 3142POSM   NC336860  31.727  21.714  10.952  0.0510  0.1041 -0.0439
 3142POSM   PO436861  31.592  22.092  10.951 -0.0299  0.4938  0.1564
 3142POSM   AM136862  31.425  22.007  11.204 -0.1469 -0.2614  0.2259
 3142POSM   AM236863  31.426  21.773  11.398  0.5003  0.1244 -0.1388
 3142POSM   T1A36864  31.298  22.224  11.680 -0.1473 -0.3855 -0.0107
 3142POSM   C2A36865  31.446  22.220  12.126  0.1215  0.0202  0.1900
 3142POSM   C3A36866  31.764  22.105  12.497  0.2058  0.3413 -0.1941
 3142POSM   C1B36867  31.653  21.840  11.661 -0.3205  0.0998  0.1034
 3142POSM   D2B36868  31.832  22.172  11.826 -0.2393 -0.1623 -0.1284
 3142POSM   C3B36869  32.237  22.162  12.101  0.2143 -0.0097  0.0695
 3142POSM   C4B36870  32.508  21.841  12.321  0.0254 -0.5711  0.1762
 3143POSM   NC336871  31.145  22.210  10.844 -0.1029  0.0656  0.5594
 3143POSM   PO436872  30.906  22.516  10.916 -0.0567 -0.3181  0.2066
 3143POSM   AM136873  31.005  22.597  11.216  0.0876 -0.2682  0.1548
 3143POSM   AM236874  31.063  22.862  11.357  0.0702  0.0961  0.2553
 3143POSM   T1A36875  30.853  22.505  11.646 -0.1739  0.1931  0.0776
 3143POSM   C2A36876  31.085  22.593  12.043  0.2932 -0.0058 -0.1178
 3143POSM   C3A36877  31.241  22.984  12.182  0.1164 -0.1927  0.0096
 3143POSM   C1B36878  31.236  23.037  11.664  0.0520  0.1523  0.0842
 3143POSM   D2B36879  31.579  23.231  11.907 -0.0489  0.1306 -0.2718
 3143POSM   C3B36880  31.751  23.072  12.285  0.2380  0.0017 -0.0367
 3143POSM   C4B36881  31.996  23.055  12.715 -0.1840 -0.2565 -0.2021
 3144DOPC   NC336882  25.170  15.251   9.186  0.1062  0.0612 -0.0306
 3144DOPC   PO436883  25.102  15.619   9.281  0.0577 -0.2070  0.3038
 3144DOPC   GL136884  25.083  15.490   9.629 -0.1619 -0.5349  0.2789
 3144DOPC   GL236885  24.963  15.214   9.660 -0.0915 -0.1113 -0.1029
 3144DOPC   C1A36886  24.945  15.726  10.017 -0.2756  0.1316 -0.0991
 3144DOPC   D2A36887  25.222  15.716  10.397  0.0191  0.1546  0.0739
 3144DOPC   C3A36888  25.030  15.616  10.765 -0.0571  0.0624 -0.1981
 3144DOPC   C4A36889  24.792  15.511  11.183  0.1011 -0.1769  0.2683
 3144DOPC   C1B36890  24.738  15.114  10.036  0.2598  0.1438  0.0747
 3144DOPC   D2B36891  24.367  14.875  10.293  0.0665 -0.0225  0.3429
 3144DOPC   C3B36892  24.151  15.226  10.462  0.0812  0.2652 -0.1665
 3144DOPC   C4B36893  23.914  15.508  10.773 -0.2180 -0.2462  0.1162
 3145DOPC   NC336894  30.020  22.341  11.488  0.1208  0.0384 -0.1490
 3145DOPC   PO436895  30.086  22.696  11.553  0.0082 -0.3162  0.1563
 3145DOPC   GL136896  29.965  22.808  11.922  0.2298  0.0995  0.1991
 3145DOPC   GL236897  29.900  23.112  11.821  0.0989  0.2746  0.2807
 3145DOPC   C1A36898  30.155  22.977  12.325 -0.2779 -0.1001 -0.3084
 3145DOPC   D2A36899  30.476  23.187  12.610  0.0737  0.0297  0.0930
 3145DOPC   C3A36900  30.838  23.324  12.356  0.0059  0.1270  0.1568
 3145DOPC   C4A36901  31.045  23.440  11.958  0.0289 -0.3500  0.1340
 3145DOPC   C1B36902  29.824  23.335  12.255  0.2251  0.1170 -0.0810
 3145DOPC   D2B36903  29.631  23.525  12.630 -0.0813 -0.3264  0.0824
 3145DOPC   C3B36904  29.578  23.357  13.070  0.3396  0.0971 -0.0018
 3145DOPC   C4B36905  29.232  23.531  13.345 -0.1910 -0.0657 -0.0877
 3146DOPC   NC336906  30.382  20.634  11.038 -0.0103 -0.0540  0.0486
 3146DOPC   PO436907  30.544  21.016  11.039  0.2849 -0.0102  0.1221
 3146DOPC   GL136908  30.472  20.982  11.477  0.1329 -0.2028  0.3165
 3146DOPC   GL236909  30.240  20.969  11.453 -0.0650 -0.2435  0.1415
 3146DOPC   C1A36910  30.795  20.834  11.735  0.1044  0.1329  0.0062
 3146DOPC   D2A36911  30.735  20.738  12.224 -0.2190 -0.0192  0.0456
 3146DOPC   C3A36912  30.475  20.398  12.367  0.0562 -0.2026  0.3026
 3146DOPC   C4A36913  30.202  20.160  12.648 -0.1577  0.2312  0.0088
 3146DOPC   C1B36914  30.426  21.183  11.854  0.1355 -0.3457  0.1795
 3146DOPC   D2B36915  30.481  21.672  11.867  0.0376  0.2419  0.2798
 3146DOPC   C3B36916  30.663  21.637  12.299  0.0584 -0.1955 -0.3504
 3146DOPC   C4B36917  31.020  21.588  12.480  0.0450 -0.1323 -0.0412
 3147POSM   NC336918  27.352  16.638  10.568 -0.1399  0.1654 -0.2728
 3147POSM   PO436919  27.632  16.491  10.301 -0.0559 -0.2425 -0.2451
 3147POSM   AM136920  27.842  16.426  10.496 -0.1328  0.3105 -0.1103
 3147POSM   AM236921  27.964  16.169  10.573  0.1899 -0.3367 -0.2438
 3147POSM   T1A36922  28.130  16.520  10.932  0.1447  0.2943 -0.1740
 3147POSM   C2A36923  28.102  16.702  11.401 -0.1349 -0.3304 -0.4649
 3147POSM   C3A36924  28.419  16.701  11.672 -0.1182 -0.0249 -0.2829
 3147POSM   C1B36925  27.954  16.026  10.818  0.1767  0.0600 -0.0302
 3147POSM   D2B36926  28.141  15.808  11.138 -0.0752  0.0801 -0.2060
 3147POSM   C3B36927  28.218  15.941  11.574  0.0207  0.2996 -0.0351
 3147POSM   C4B36928  28.247  15.888  12.023 -0.0258  0.0269 -0.3184
 3148DOPC   NC336929  26.421  24.630  11.402 -0.0659 -0.0679 -0.1236
 3148DOPC   PO436930  26.058  24.757  11.304  0.1731 -0.1145 -0.2133
 3148DOPC   GL136931  25.991  24.686  11.672 -0.3229  0.0849  0.1351
 3148DOPC   GL236932  26.100  24.422  11.763  0.1690 -0.0167  0.1569
 3148DOPC   C1A36933  25.727  24.648  12.086  0.0626  0.3470 -0.3609
 3148DOPC   D2A36934  25.772  24.429  12.489 -0.1785  0.0241 -0.3195
 3148DOPC   C3A36935  25.779  23.927  12.488  0.0500 -0.0916  0.3517
 3148DOPC   C4A36936  25.726  23.563  12.719  0.0974  0.0832  0.0841
 3148DOPC   C1B36937  26.091  24.228  12.185 -0.1878 -0.0286 -0.0107
 3148DOPC   D2B36938  26.272  24.102  12.626  0.2109  0.1005  0.2464
 3148DOPC   C3B36939  26.522  24.115  12.975 -0.0241 -0.0835  0.0277
 3148DOPC   C4B36940  26.416  24.288  13.377  0.2781  0.1217  0.1790
 3149POSM   NC336941   1.109  20.570  10.593  0.0889 -0.2930  0.2108
 3149POSM   PO436942   1.270  20.400  10.339  0.1390  0.1863 -0.0489
 3149POSM   AM136943   1.543  20.366  10.484  0.2763  0.0682 -0.3483
 3149POSM   AM236944   1.816  20.380  10.475  0.0326  0.1029  0.0088
 3149POSM   T1A36945   1.813  20.242  10.933  0.1576 -0.2170 -0.1064
 3149POSM   C2A36946   2.127  20.163  11.286 -0.1243 -0.0973  0.3683
 3149POSM   C3A36947   2.380  19.991  11.642 -0.0081 -0.3570  0.0667
 3149POSM   C1B36948   1.974  20.622  10.671 -0.0002  0.1367 -0.3692
 3149POSM   D2B36949   2.020  21.046  10.846 -0.1937  0.0877  0.2612
 3149POSM   C3B36950   1.886  21.124  11.274  0.2380 -0.1235  0.0454
 3149POSM   C4B36951   1.877  21.318  11.684  0.0200  0.1817  0.0368
 3150DOPS   CNO36952  34.236  15.556  10.810 -0.1315  0.2647  0.3192
 3150DOPS   PO436953  33.870  15.692  10.904 -0.0274  0.3087 -0.3322
 3150DOPS   GL136954  33.982  15.826  11.262 -0.1886 -0.0382  0.1408
 3150DOPS   GL236955  34.135  15.636  11.307  0.2292 -0.1921 -0.0157
 3150DOPS   C1A36956  33.937  15.658  11.718 -0.0366  0.0243  0.0555
 3150DOPS   D2A36957  33.642  15.434  12.038  0.2445 -0.3618 -0.3312
 3150DOPS   C3A36958  33.235  15.571  12.238 -0.0607  0.0536 -0.0527
 3150DOPS   C4A36959  33.057  15.798  12.595  0.0363 -0.2469 -0.2885
 3150DOPS   C1B36960  34.441  15.539  11.677 -0.0738 -0.1108 -0.0553
 3150DOPS   D2B36961  34.597  15.336  12.018  0.1213  0.0782 -0.0060
 3150DOPS   C3B36962  34.988  15.512  12.196  0.2228 -0.0837 -0.3357
 3150DOPS   C4B36963  35.147  15.947  12.157  0.0065  0.3933  0.0018
 3151DOPC   NC336964  30.664  16.385  10.005 -0.0563 -0.3706  0.0011
 3151DOPC   PO436965  30.744  16.496  10.324  0.3550  0.0817 -0.0763
 3151DOPC   GL136966  30.708  16.337  10.809 -0.1679 -0.2182 -0.5466
 3151DOPC   GL236967  30.701  16.062  10.872 -0.1685 -0.1027 -0.0482
 3151DOPC   C1A36968  30.905  16.516  11.175  0.1314 -0.0144 -0.1076
 3151DOPC   D2A36969  30.905  16.445  11.632 -0.2268  0.0057  0.0113
 3151DOPC   C3A36970  31.088  16.333  12.053  0.0635  0.2925 -0.2064
 3151DOPC   C4A36971  31.070  16.015  12.349  0.0639  0.1443  0.1870
 3151DOPC   C1B36972  30.765  16.061  11.333  0.3628  0.2888  0.0790
 3151DOPC   D2B36973  30.882  15.972  11.761  0.3153  0.1048 -0.0150
 3151DOPC   C3B36974  30.621  16.108  12.061 -0.0516  0.0952 -0.0686
 3151DOPC   C4B36975  30.269  15.924  12.309 -0.1160 -0.4061  0.1228
 3152DOPS   CNO36976  24.327  24.204  11.138 -0.0332 -0.0871 -0.1467
 3152DOPS   PO436977  24.644  24.097  10.992 -0.0617 -0.4299 -0.1266
 3152DOPS   GL136978  24.484  23.777  11.266 -0.1421 -0.0926 -0.0625
 3152DOPS   GL236979  24.203  23.693  11.180 -0.1760 -0.0427 -0.1692
 3152DOPS   C1A36980  24.445  23.816  11.745 -0.0744 -0.4315 -0.0967
 3152DOPS   D2A36981  24.320  23.928  12.186  0.4770  0.2548  0.1175
 3152DOPS   C3A36982  24.431  23.915  12.710 -0.1541  0.0636 -0.2335
 3152DOPS   C4A36983  24.822  23.866  12.926 -0.3793 -0.0583 -0.0641
 3152DOPS   C1B36984  24.177  23.370  11.529 -0.0406 -0.3383  0.0316
 3152DOPS   D2B36985  24.060  23.260  11.981  0.1142 -0.1050 -0.2728
 3152DOPS   C3B36986  24.079  23.016  12.414 -0.3960  0.0999  0.0905
 3152DOPS   C4B36987  24.398  22.948  12.716  0.1775 -0.1114 -0.2067
 3153DOPE   NH336988  29.037  22.761  11.734 -0.0376 -0.1398  0.3686
 3153DOPE   PO436989  29.121  22.607  11.988 -0.1228  0.0599 -0.1001
 3153DOPE   GL136990  28.972  22.518  12.330 -0.0621 -0.2428 -0.2379
 3153DOPE   GL236991  29.088  22.721  12.501  0.0639 -0.0091  0.4152
 3153DOPE   C1A36992  29.058  22.233  12.679 -0.0079  0.2481  0.2723
 3153DOPE   D2A36993  29.127  22.315  13.141  0.1880 -0.1025 -0.0656
 3153DOPE   C3A36994  29.204  22.094  13.522  0.0293 -0.0718 -0.3747
 3153DOPE   C4A36995  29.523  21.914  13.802  0.1323 -0.1300 -0.0049
 3153DOPE   C1B36996  28.900  22.702  12.887  0.0032  0.1016 -0.2227
 3153DOPE   D2B36997  28.692  22.569  13.255  0.1878 -0.1296  0.3345
 3153DOPE   C3B36998  28.487  22.489  13.604  0.2126 -0.0370 -0.2164
 3153DOPE   C4B36999  28.112  22.623  13.781 -0.0176  0.4822  0.2892
 3154DOPE   NH337000   1.086  12.578  10.874  0.4244  0.0462  0.1326
 3154DOPE   PO437001   0.878  12.580  11.150 -0.2001  0.1638 -0.0627
 3154DOPE   GL137002   0.752  12.452  11.501 -0.3151 -0.0814 -0.3020
 3154DOPE   GL237003   0.684  12.724  11.576 -0.0511  0.0340 -0.0767
 3154DOPE   C1A37004   0.739  12.349  11.958  0.1816 -0.0958 -0.1805
 3154DOPE   D2A37005   0.680  12.430  12.384  0.0821 -0.1344  0.0067
 3154DOPE   C3A37006   0.399  12.170  12.661 -0.3183 -0.0969  0.0785
 3154DOPE   C4A37007  -0.097  12.086  12.512 -0.2535  0.0369  0.0532
 3154DOPE   C1B37008   0.750  12.946  11.930 -0.2587  0.0032 -0.1258
 3154DOPE   D2B37009   0.807  13.049  12.388  0.0998 -0.3107  0.1635
 3154DOPE   C3B37010   0.632  12.818  12.739  0.0530  0.0365  0.0209
 3154DOPE   C4B37011   0.263  12.581  12.974  0.0249 -0.0727  0.1362
 3155DOPE   NH337012  33.338  15.854  10.862 -0.3928  0.1288  0.5019
 3155DOPE   PO437013  33.048  15.679  10.965 -0.0449 -0.0433  0.2225
 3155DOPE   GL137014  32.942  15.454  11.209  0.0784  0.2151 -0.0008
 3155DOPE   GL237015  32.923  15.605  11.477  0.1436 -0.3556  0.2693
 3155DOPE   C1A37016  33.083  15.053  11.453 -0.2362  0.2954  0.1627
 3155DOPE   D2A37017  33.090  14.688  11.768 -0.0070 -0.1623 -0.0218
 3155DOPE   C3A37018  33.024  14.713  12.175  0.1617 -0.0413 -0.3498
 3155DOPE   C4A37019  33.261  14.587  12.593 -0.0484  0.3180  0.0106
 3155DOPE   C1B37020  32.828  15.405  11.875 -0.0210  0.1858 -0.0457
 3155DOPE   D2B37021  32.593  15.023  11.997 -0.3828 -0.0088 -0.0256
 3155DOPE   C3B37022  32.213  14.809  12.208 -0.2442 -0.1523  0.0421
 3155DOPE   C4B37023  31.843  14.572  12.032  0.1439 -0.2173 -0.0096
 3156DOPC   NC337024  30.754  14.121   9.683 -0.0938 -0.0930 -0.0577
 3156DOPC   PO437025  30.430  13.919   9.766  0.1453 -0.1383  0.1980
 3156DOPC   GL137026  30.587  14.186  10.121  0.2098  0.2182 -0.1045
 3156DOPC   GL237027  30.854  14.200  10.212  0.2701 -0.3678  0.0956
 3156DOPC   C1A37028  30.337  14.515  10.288  0.1754  0.0463 -0.1597
 3156DOPC   D2A37029  30.205  14.773  10.663  0.0237  0.1757 -0.0374
 3156DOPC   C3A37030  30.293  14.756  11.113  0.0109  0.2651 -0.1046
 3156DOPC   C4A37031  30.139  14.846  11.536 -0.1180  0.3421  0.3228
 3156DOPC   C1B37032  30.697  14.399  10.610 -0.1541  0.1731 -0.1728
 3156DOPC   D2B37033  30.779  14.679  10.996  0.1696 -0.2680 -0.1350
 3156DOPC   C3B37034  30.615  14.636  11.465 -0.3493  0.3300 -0.0339
 3156DOPC   C4B37035  30.401  14.549  11.874  0.1589  0.3059 -0.2116
 3157DOPS   CNO37036   0.638  19.986  10.384 -0.2734 -0.2945  0.0650
 3157DOPS   PO437037   0.613  20.212  10.653  0.0111 -0.1140 -0.2604
 3157DOPS   GL137038   0.783  20.322  10.930 -0.0250  0.0294  0.1695
 3157DOPS   GL237039   0.839  20.179  11.108  0.1001 -0.0881  0.1316
 3157DOPS   C1A37040   1.073  20.575  11.193 -0.1010 -0.0121 -0.3078
 3157DOPS   D2A37041   1.269  20.973  11.302 -0.2765  0.0584 -0.1499
 3157DOPS   C3A37042   1.323  21.010  11.755 -0.2839 -0.1298  0.0520
 3157DOPS   C4A37043   1.368  20.765  12.178 -0.3040  0.1690 -0.3637
 3157DOPS   C1B37044   0.875  20.123  11.602 -0.1245  0.2160  0.0138
 3157DOPS   D2B37045   0.683  20.252  11.977 -0.2221 -0.0547  0.3560
 3157DOPS   C3B37046   0.673  20.708  12.050 -0.2883  0.2188  0.0121
 3157DOPS   C4B37047   0.745  21.044  12.275 -0.2277  0.2000  0.1181
 3158DOPS   CNO37048  31.794  23.083  10.802 -0.2553  0.3595  0.1733
 3158DOPS   PO437049  31.746  23.448  10.850 -0.3379 -0.3127 -0.0844
 3158DOPS   GL137050  31.695  23.257  11.270 -0.1213  0.0928  0.0836
 3158DOPS   GL237051  31.667  23.045  11.422 -0.1899  0.0585 -0.0659
 3158DOPS   C1A37052  31.928  23.509  11.575  0.1107  0.2001  0.2323
 3158DOPS   D2A37053  32.170  23.859  11.454  0.0557 -0.3584 -0.1768
 3158DOPS   C3A37054  32.463  24.041  11.832 -0.4589 -0.0778 -0.1114
 3158DOPS   C4A37055  32.787  23.999  12.117  0.0758 -0.0552  0.1142
 3158DOPS   C1B37056  31.692  22.696  11.757 -0.1973  0.1008 -0.0271
 3158DOPS   D2B37057  31.812  22.507  12.181  0.0887 -0.1008 -0.1101
 3158DOPS   C3B37058  31.579  22.666  12.556 -0.0262  0.1514 -0.1013
 3158DOPS   C4B37059  31.253  22.811  12.750  0.0057  0.0264  0.1716
 3159DOPC   NC337060  30.894  20.075  10.739  0.0148  0.2278 -0.2708
 3159DOPC   PO437061  30.707  20.245  11.012  0.1865 -0.3324  0.0193
 3159DOPC   GL137062  30.595  20.245  11.446  0.3456  0.0121  0.1645
 3159DOPC   GL237063  30.376  20.393  11.448 -0.1491  0.1797 -0.2911
 3159DOPC   C1A37064  30.722  20.285  11.928 -0.1226  0.0663  0.0909
 3159DOPC   D2A37065  31.024  20.262  12.271  0.0051  0.0114 -0.0928
 3159DOPC   C3A37066  31.041  20.516  12.650 -0.0427  0.1464 -0.1287
 3159DOPC   C4A37067  30.724  20.668  13.012 -0.2630 -0.2699  0.1914
 3159DOPC   C1B37068  30.382  20.618  11.841 -0.2099 -0.0879  0.1106
 3159DOPC   D2B37069  30.094  20.871  12.058  0.2358  0.1697 -0.0038
 3159DOPC   C3B37070  29.911  20.537  12.325 -0.0144  0.2118 -0.0558
 3159DOPC   C4B37071  29.751  20.109  12.488  0.2409  0.0696 -0.6244
 3160DOPS   CNO37072  27.174  17.539  10.568  0.2640  0.0427 -0.0230
 3160DOPS   PO437073  26.905  17.763  10.458 -0.2739  0.0975 -0.1874
 3160DOPS   GL137074  26.883  17.577  10.912 -0.0948 -0.4328  0.2217
 3160DOPS   GL237075  26.639  17.475  10.809 -0.2202  0.1054 -0.2224
 3160DOPS   C1A37076  27.108  17.388  11.270 -0.0004 -0.3777  0.0884
 3160DOPS   D2A37077  27.187  16.992  11.401  0.0269 -0.2829 -0.0283
 3160DOPS   C3A37078  27.150  16.811  11.777  0.2359  0.0831 -0.0802
 3160DOPS   C4A37079  27.011  16.366  11.920 -0.1173 -0.0904  0.0346
 3160DOPS   C1B37080  26.593  17.466  11.249 -0.1075 -0.1125  0.2114
 3160DOPS   D2B37081  26.380  17.161  11.523  0.3970 -0.2264 -0.1147
 3160DOPS   C3B37082  26.401  17.324  11.936  0.0167 -0.0173 -0.3190
 3160DOPS   C4B37083  26.411  17.527  12.373 -0.4134 -0.0152  0.0908
 3161DOPS   CNO37084  28.665  20.425  11.127  0.1430 -0.1741 -0.0305
 3161DOPS   PO437085  28.543  20.806  10.994 -0.0798  0.1690 -0.3239
 3161DOPS   GL137086  28.620  20.812  11.396  0.2639  0.0788  0.1461
 3161DOPS   GL237087  28.357  20.624  11.491  0.2115 -0.3343 -0.0716
 3161DOPS   C1A37088  28.627  20.738  11.881 -0.0570 -0.2235  0.0663
 3161DOPS   D2A37089  28.863  20.919  12.283 -0.0345  0.0669  0.2565
 3161DOPS   C3A37090  28.883  20.545  12.534  0.2278  0.1269  0.4863
 3161DOPS   C4A37091  28.993  20.272  12.905 -0.2687 -0.2380  0.1641
 3161DOPS   C1B37092  28.620  20.291  11.629 -0.1245 -0.2626 -0.5269
 3161DOPS   D2B37093  28.539  19.855  11.622  0.3696 -0.0551 -0.0383
 3161DOPS   C3B37094  28.947  19.606  11.736 -0.0547  0.2277  0.0967
 3161DOPS   C4B37095  29.451  19.595  11.698 -0.3038  0.1807  0.2663
 3162DOPC   NC337096  26.179  22.305  11.434  0.0993  0.0819  0.2206
 3162DOPC   PO437097  26.242  22.092  11.103 -0.1198 -0.1909 -0.0039
 3162DOPC   GL137098  26.292  21.801  11.456 -0.0532 -0.2717  0.3236
 3162DOPC   GL237099  26.473  21.935  11.544  0.1974 -0.1125  0.2308
 3162DOPC   C1A37100  26.107  21.574  11.822  0.0544 -0.1463  0.0911
 3162DOPC   D2A37101  25.808  21.362  12.103 -0.2408  0.2829 -0.3181
 3162DOPC   C3A37102  25.774  21.516  12.528  0.2807 -0.3106  0.0533
 3162DOPC   C4A37103  25.473  21.682  12.815  0.1641  0.3017 -0.3640
 3162DOPC   C1B37104  26.335  22.066  11.922 -0.0386  0.1301 -0.0748
 3162DOPC   D2B37105  26.095  21.784  12.252 -0.0544 -0.1647  0.2846
 3162DOPC   C3B37106  26.226  21.785  12.690  0.0369  0.0347 -0.2083
 3162DOPC   C4B37107  26.324  22.130  12.940 -0.0206  0.0819  0.2228
 3163DOPE   NH337108  33.355  12.254  10.459  0.0585  0.2074  0.1826
 3163DOPE   PO437109  33.634  12.104  10.506  0.0616  0.1111  0.0052
 3163DOPE   GL137110  33.585  12.114  10.930 -0.1322 -0.3237 -0.0587
 3163DOPE   GL237111  33.785  12.004  11.123  0.0512 -0.2234 -0.3363
 3163DOPE   C1A37112  33.318  12.140  11.310  0.2173 -0.0410  0.3806
 3163DOPE   D2A37113  33.348  12.455  11.626 -0.0417  0.0011 -0.0254
 3163DOPE   C3A37114  33.050  12.820  11.694 -0.1016 -0.0181  0.1740
 3163DOPE   C4A37115  33.102  13.112  11.447  0.0328 -0.3793 -0.3017
 3163DOPE   C1B37116  33.759  12.450  11.286  0.1870  0.0779  0.2577
 3163DOPE   D2B37117  33.655  12.828  11.579  0.2723  0.1646  0.1008
 3163DOPE   C3B37118  33.945  12.970  11.915  0.0145  0.1111  0.0416
 3163DOPE   C4B37119  34.113  13.321  12.064  0.0056 -0.0432 -0.1748
 3164DOPE   NH337120  24.178  25.455  11.084 -0.2321  0.1533 -0.0957
 3164DOPE   PO437121  24.220  25.149  10.975 -0.3135  0.0797 -0.0190
 3164DOPE   GL137122  23.984  24.980  11.252  0.3488  0.0978 -0.2341
 3164DOPE   GL237123  23.936  25.148  11.481  0.1236 -0.0978  0.1954
 3164DOPE   C1A37124  23.729  24.690  11.517 -0.3796  0.1334 -0.0005
 3164DOPE   D2A37125  23.568  24.332  11.824 -0.1625  0.1925 -0.1213
 3164DOPE   C3A37126  23.270  24.261  12.178  0.2370 -0.0256  0.0826
 3164DOPE   C4A37127  23.033  23.969  12.426 -0.4261  0.0314  0.0028
 3164DOPE   C1B37128  23.629  25.039  11.843  0.0193 -0.2120  0.0310
 3164DOPE   D2B37129  23.202  25.021  11.897 -0.0280 -0.0783  0.0064
 3164DOPE   C3B37130  23.012  25.441  11.950 -0.3237 -0.1655  0.2556
 3164DOPE   C4B37131  22.885  25.723  12.287  0.0674  0.1158 -0.1680
 3165POSM   NC337132  32.881  16.416  11.229  0.1755 -0.0073  0.0382
 3165POSM   PO437133  33.113  16.073  11.310 -0.0159 -0.3707  0.1638
 3165POSM   AM137134  32.997  16.072  11.624  0.3812  0.0034 -0.2438
 3165POSM   AM237135  33.051  15.904  11.845 -0.4649 -0.1626 -0.0607
 3165POSM   T1A37136  32.603  16.069  11.972 -0.1505  0.0126  0.1392
 3165POSM   C2A37137  32.516  16.161  12.411 -0.1279 -0.0880  0.0658
 3165POSM   C3A37138  32.161  15.991  12.707 -0.1692 -0.0750 -0.0490
 3165POSM   C1B37139  33.046  16.082  12.162 -0.2208  0.3117  0.1096
 3165POSM   D2B37140  33.217  16.294  12.532  0.0320 -0.5096 -0.1899
 3165POSM   C3B37141  33.121  16.270  12.921  0.1553 -0.0566 -0.1523
 3165POSM   C4B37142  33.166  16.143  13.371  0.2338 -0.1865  0.3112
 3166DOPS   CNO37143  32.219  21.765  11.024 -0.0396 -0.0678  0.0564
 3166DOPS   PO437144  32.090  22.047  11.238  0.2007 -0.2288 -0.0086
 3166DOPS   GL137145  32.314  22.028  11.484 -0.1811  0.4609 -0.3558
 3166DOPS   GL237146  32.414  22.295  11.603  0.0340 -0.1494  0.0208
 3166DOPS   C1A37147  32.563  21.841  11.777 -0.3671  0.0504  0.1193
 3166DOPS   D2A37148  32.905  21.621  12.050  0.1269 -0.0122 -0.2811
 3166DOPS   C3A37149  33.020  21.902  12.410 -0.1177  0.2354 -0.1664
 3166DOPS   C4A37150  32.765  22.003  12.735  0.1777 -0.1401 -0.0342
 3166DOPS   C1B37151  32.342  22.601  11.907 -0.2377 -0.0026  0.0570
 3166DOPS   D2B37152  32.199  22.861  12.242  0.0709  0.2024 -0.0081
 3166DOPS   C3B37153  32.081  22.525  12.575 -0.0587 -0.1212 -0.0757
 3166DOPS   C4B37154  32.203  22.121  12.770 -0.2126  0.0783  0.1642
 3167DOPC   NC337155  30.659  13.323   9.924  0.3820  0.0028 -0.2297
 3167DOPC   PO437156  30.375  13.157  10.183 -0.0893 -0.0297 -0.1156
 3167DOPC   GL137157  30.298  13.363  10.550 -0.0213  0.0978 -0.0085
 3167DOPC   GL237158  30.438  13.334  10.799 -0.0041  0.1054  0.2738
 3167DOPC   C1A37159  29.890  13.241  10.761  0.0365  0.1118 -0.1622
 3167DOPC   D2A37160  29.830  13.353  11.190  0.0417 -0.0874 -0.1611
 3167DOPC   C3A37161  29.496  13.710  11.174 -0.0736 -0.2056 -0.0346
 3167DOPC   C4A37162  29.267  13.999  10.901  0.2027 -0.2029  0.0210
 3167DOPC   C1B37163  30.284  13.296  11.229 -0.0579 -0.1598  0.1546
 3167DOPC   D2B37164  30.298  12.920  11.531 -0.1615 -0.1495  0.1106
 3167DOPC   C3B37165  30.645  12.892  11.820  0.0961 -0.0856 -0.0218
 3167DOPC   C4B37166  30.960  12.878  12.098  0.0608 -0.4388  0.0814
 3168DOPE   NH337167  25.939  14.151   9.630  0.1354 -0.0853  0.0161
 3168DOPE   PO437168  26.049  14.392   9.806 -0.0095  0.1286 -0.0327
 3168DOPE   GL137169  25.952  14.725  10.015  0.1024  0.4954 -0.3818
 3168DOPE   GL237170  25.766  14.535  10.266 -0.2346 -0.0185 -0.0485
 3168DOPE   C1A37171  25.730  15.094  10.209 -0.0525 -0.1264 -0.0185
 3168DOPE   D2A37172  25.458  15.160  10.576  0.0223  0.0047 -0.0757
 3168DOPE   C3A37173  25.652  15.083  11.001 -0.0923  0.0825  0.2103
 3168DOPE   C4A37174  25.865  15.371  11.255 -0.0121  0.2697 -0.3760
 3168DOPE   C1B37175  25.672  14.688  10.689 -0.0007  0.0024  0.2719
 3168DOPE   D2B37176  25.991  14.652  11.046  0.1861  0.1984  0.2893
 3168DOPE   C3B37177  26.209  14.409  11.358 -0.1544  0.1507 -0.3451
 3168DOPE   C4B37178  26.124  14.055  11.596 -0.2644 -0.0146  0.1777
 3169DOPS   CNO37179  30.447  15.198  10.109 -0.2002  0.0437 -0.1659
 3169DOPS   PO437180  30.366  15.564  10.216 -0.0327 -0.0968  0.3886
 3169DOPS   GL137181  30.722  15.472  10.409  0.1789  0.2299  0.0270
 3169DOPS   GL237182  30.629  15.617  10.626  0.0627  0.0450  0.0663
 3169DOPS   C1A37183  30.775  15.029  10.537  0.3524 -0.2065  0.0078
 3169DOPS   D2A37184  31.098  14.673  10.483  0.1183  0.1380 -0.1132
 3169DOPS   C3A37185  31.165  14.390  10.846  0.1737 -0.3619  0.1472
 3169DOPS   C4A37186  30.876  14.221  11.196  0.1676 -0.0416 -0.1241
 3169DOPS   C1B37187  30.528  15.236  10.916 -0.0716  0.2219 -0.0140
 3169DOPS   D2B37188  30.686  15.043  11.300  0.4232  0.0943 -0.0762
 3169DOPS   C3B37189  30.489  15.136  11.676  0.1149 -0.2826  0.0875
 3169DOPS   C4B37190  30.260  15.014  12.069  0.0261 -0.1687  0.1890
 3170DOPS   CNO37191  32.268  19.448  10.930  0.0934 -0.1222  0.1862
 3170DOPS   PO437192  32.158  19.789  10.813  0.2023 -0.0876  0.1497
 3170DOPS   GL137193  31.991  19.877  11.196 -0.0075 -0.1583  0.2136
 3170DOPS   GL237194  32.250  19.901  11.358 -0.0451 -0.3995 -0.2048
 3170DOPS   C1A37195  31.868  19.708  11.584  0.1714  0.1912 -0.1197
 3170DOPS   D2A37196  32.006  19.385  11.921  0.2681  0.2866  0.3927
 3170DOPS   C3A37197  32.396  19.126  11.932 -0.0709 -0.0573 -0.3237
 3170DOPS   C4A37198  32.685  19.106  12.271  0.2592 -0.0085 -0.2376
 3170DOPS   C1B37199  32.262  19.947  11.764 -0.0300 -0.0401 -0.4101
 3170DOPS   D2B37200  31.983  19.995  12.089  0.1973 -0.2013  0.0791
 3170DOPS   C3B37201  31.952  20.152  12.485  0.2586 -0.0815  0.2483
 3170DOPS   C4B37202  32.115  20.542  12.726  0.0632  0.2823 -0.1137
 3171DOPE   NH337203  24.639  24.570  11.232  0.2019 -0.0365  0.3055
 3171DOPE   PO437204  24.401  24.753  11.293  0.3913 -0.0944 -0.2934
 3171DOPE   GL137205  24.452  24.630  11.699  0.4966  0.0339 -0.1563
 3171DOPE   GL237206  24.261  24.369  11.620  0.1440 -0.2734 -0.0297
 3171DOPE   C1A37207  24.657  24.457  12.088 -0.4018 -0.4529 -0.1182
 3171DOPE   D2A37208  24.826  24.294  12.531 -0.0719 -0.2175  0.0020
 3171DOPE   C3A37209  25.212  24.506  12.667 -0.4344 -0.1336  0.2026
 3171DOPE   C4A37210  25.609  24.598  12.939 -0.0597  0.1799 -0.1335
 3171DOPE   C1B37211  23.970  24.553  11.943 -0.1432 -0.4180 -0.0456
 3171DOPE   D2B37212  23.543  24.688  12.194 -0.0140 -0.0667  0.0942
 3171DOPE   C3B37213  23.563  25.162  12.366 -0.0102 -0.2133  0.1909
 3171DOPE   C4B37214  23.583  25.616  12.287 -0.4668  0.1153  0.2606
 3172DOPE   NH337215  30.508  16.870  10.502  0.0970 -0.4623  0.0641
 3172DOPE   PO437216  30.722  17.085  10.608 -0.0417  0.0501 -0.1402
 3172DOPE   GL137217  30.569  16.999  10.963 -0.4155 -0.0419  0.1581
 3172DOPE   GL237218  30.534  16.773  11.018 -0.1716 -0.0341  0.0347
 3172DOPE   C1A37219  30.476  17.055  11.409  0.1516 -0.1111 -0.0051
 3172DOPE   D2A37220  30.555  17.245  11.827 -0.0168  0.2076 -0.0435
 3172DOPE   C3A37221  30.676  17.313  12.293 -0.2107 -0.0475 -0.2897
 3172DOPE   C4A37222  30.938  17.425  12.701  0.4284 -0.1624 -0.0126
 3172DOPE   C1B37223  30.448  16.459  11.381 -0.3078 -0.1042  0.1527
 3172DOPE   D2B37224  30.368  16.119  11.665 -0.1756 -0.1048 -0.1171
 3172DOPE   C3B37225  30.446  15.702  11.811  0.2580  0.3277 -0.0233
 3172DOPE   C4B37226  30.496  15.474  12.176  0.1561 -0.1470 -0.0303
 3173POSM   NC337227   1.899  12.172  10.437 -0.2689 -0.2657 -0.2200
 3173POSM   PO437228   1.953  12.441  10.779  0.0128  0.1315  0.0334
 3173POSM   AM137229   1.913  12.582  11.104 -0.4615 -0.2207 -0.3067
 3173POSM   AM237230   2.045  12.754  11.260  0.1054  0.1201  0.1359
 3173POSM   T1A37231   1.753  12.409  11.567 -0.0208  0.2430  0.2063
 3173POSM   C2A37232   1.754  12.419  11.977  0.0577  0.1155 -0.1068
 3173POSM   C3A37233   1.635  12.280  12.383 -0.1443 -0.0975  0.0050
 3173POSM   C1B37234   1.980  12.832  11.607  0.0214  0.0656 -0.2354
 3173POSM   D2B37235   2.068  12.899  12.085 -0.1031 -0.3492 -0.3518
 3173POSM   C3B37236   2.109  13.223  12.420  0.0356 -0.2210  0.0147
 3173POSM   C4B37237   2.125  13.580  12.738 -0.1291 -0.0824 -0.1109
 3174DOPC   NC337238  31.712  15.358  10.607  0.0951  0.0395  0.2043
 3174DOPC   PO437239  31.610  15.738  10.688 -0.0851 -0.1781  0.1174
 3174DOPC   GL137240  31.444  15.364  10.990 -0.5431 -0.3736 -0.0397
 3174DOPC   GL237241  31.551  15.565  11.224  0.3538 -0.0768 -0.0600
 3174DOPC   C1A37242  31.206  14.969  10.948  0.0107  0.0843 -0.0522
 3174DOPC   D2A37243  31.229  14.666  11.239  0.3752  0.4697  0.0121
 3174DOPC   C3A37244  31.588  14.532  11.476 -0.0398 -0.1918  0.0162
 3174DOPC   C4A37245  31.843  14.231  11.671  0.0023 -0.2995  0.0360
 3174DOPC   C1B37246  31.551  15.426  11.708 -0.0173 -0.0116  0.1583
 3174DOPC   D2B37247  31.651  15.506  12.138  0.3305  0.0755  0.4601
 3174DOPC   C3B37248  31.775  15.057  12.249 -0.0264  0.1305 -0.1240
 3174DOPC   C4B37249  31.981  14.982  12.651 -0.1838  0.3147  0.0892
 3175DOPC   NC337250  29.119  17.671  10.300 -0.1160  0.2313  0.0377
 3175DOPC   PO437251  28.818  17.445  10.424 -0.2595 -0.0936  0.3251
 3175DOPC   GL137252  28.667  17.777  10.623  0.1285 -0.2181 -0.2049
 3175DOPC   GL237253  28.435  17.552  10.777 -0.2900  0.0938 -0.0713
 3175DOPC   C1A37254  28.717  17.842  11.067  0.0069 -0.1013 -0.0985
 3175DOPC   D2A37255  28.540  17.520  11.414 -0.0709  0.0682 -0.0155
 3175DOPC   C3A37256  28.411  17.665  11.903  0.3148  0.0031 -0.1455
 3175DOPC   C4A37257  28.653  17.960  12.095 -0.1775  0.1486 -0.0543
 3175DOPC   C1B37258  28.769  17.340  11.000 -0.1145 -0.5847  0.3962
 3175DOPC   D2B37259  29.001  17.256  11.348 -0.1880  0.0162  0.2878
 3175DOPC   C3B37260  28.721  17.142  11.768  0.1198  0.3548 -0.1720
 3175DOPC   C4B37261  28.705  17.245  12.250  0.0677  0.2815  0.1208
 3176DOPE   NH337262  31.613  24.352  10.923 -0.3516 -0.0554 -0.2662
 3176DOPE   PO437263  31.613  24.369  11.260 -0.1786 -0.1332  0.0390
 3176DOPE   GL137264  31.590  24.070  11.514 -0.2338 -0.3546 -0.2717
 3176DOPE   GL237265  31.820  24.122  11.778 -0.1517  0.0172  0.3449
 3176DOPE   C1A37266  31.520  23.760  11.883 -0.3166  0.0417  0.0407
 3176DOPE   D2A37267  31.430  23.615  12.338  0.1879 -0.0080 -0.0118
 3176DOPE   C3A37268  31.553  23.965  12.641 -0.0789  0.0997 -0.1966
 3176DOPE   C4A37269  31.670  24.424  12.747 -0.0688 -0.0644 -0.2055
 3176DOPE   C1B37270  31.988  23.772  12.055 -0.0579  0.3466 -0.3374
 3176DOPE   D2B37271  32.337  23.785  12.366  0.0941 -0.1738 -0.0088
 3176DOPE   C3B37272  32.466  24.158  12.610 -0.1890  0.0432  0.1221
 3176DOPE   C4B37273  32.345  24.612  12.748 -0.1108  0.1176 -0.3251
 3177POSM   NC337274  33.304  21.602  10.540  0.1689  0.2108  0.0510
 3177POSM   PO437275  33.673  21.505  10.517 -0.0080 -0.2964 -0.0462
 3177POSM   AM137276  33.638  21.556  10.850 -0.1562  0.2605  0.1660
 3177POSM   AM237277  33.501  21.708  11.050  0.1699 -0.0112  0.4544
 3177POSM   T1A37278  33.876  21.600  11.340  0.0519  0.0376  0.0265
 3177POSM   C2A37279  33.820  21.754  11.754  0.3283 -0.0109 -0.0488
 3177POSM   C3A37280  34.010  21.900  12.142 -0.1548  0.0536  0.1339
 3177POSM   C1B37281  33.201  21.867  11.183 -0.2678 -0.1809 -0.0238
 3177POSM   D2B37282  32.956  22.123  11.496 -0.1888 -0.0106 -0.2714
 3177POSM   C3B37283  32.753  22.305  11.909  0.2525  0.0109  0.0951
 3177POSM   C4B37284  32.547  22.469  12.333 -0.0691 -0.1902  0.0541
 3178DOPE   NH337285  32.587  18.944  11.022 -0.3472 -0.1552 -0.0190
 3178DOPE   PO437286  32.281  18.950  11.152 -0.0856  0.0174  0.0132
 3178DOPE   GL137287  32.468  18.895  11.471 -0.0406  0.1233 -0.5674
 3178DOPE   GL237288  32.346  18.619  11.573  0.3021 -0.0120  0.1416
 3178DOPE   C1A37289  32.855  19.100  11.654  0.2147 -0.1822  0.1863
 3178DOPE   D2A37290  32.890  19.428  11.972  0.6457  0.3022  0.0180
 3178DOPE   C3A37291  32.523  19.603  12.179  0.1473  0.0231 -0.0478
 3178DOPE   C4A37292  32.268  19.627  12.567  0.0964  0.4320 -0.0872
 3178DOPE   C1B37293  32.120  18.703  11.977  0.1281  0.0341 -0.3194
 3178DOPE   D2B37294  32.257  18.682  12.459 -0.0826  0.2627 -0.0377
 3178DOPE   C3B37295  31.948  18.877  12.779 -0.3279 -0.2215  0.0264
 3178DOPE   C4B37296  31.600  19.191  12.661  0.2347  0.0610 -0.0642
 3179DOPC   NC337297  33.457  17.050  11.095  0.2416  0.0104  0.0583
 3179DOPC   PO437298  33.169  16.803  11.091 -0.1542  0.1182  0.4047
 3179DOPC   GL137299  33.268  16.846  11.504  0.3043 -0.2029  0.1434
 3179DOPC   GL237300  33.295  16.527  11.565  0.1258  0.0426 -0.0683
 3179DOPC   C1A37301  33.239  17.128  11.831 -0.1538  0.1587 -0.2380
 3179DOPC   D2A37302  33.023  17.220  12.205 -0.1126 -0.2042  0.1209
 3179DOPC   C3A37303  32.655  17.296  12.540  0.1663  0.0304 -0.1972
 3179DOPC   C4A37304  32.467  17.726  12.637  0.0957  0.0309 -0.1283
 3179DOPC   C1B37305  32.997  16.561  11.921  0.0625  0.0897  0.1735
 3179DOPC   D2B37306  32.801  16.578  12.335  0.0747  0.0939 -0.2955
 3179DOPC   C3B37307  32.967  16.920  12.595 -0.2614 -0.1575 -0.3284
 3179DOPC   C4B37308  33.178  17.358  12.695 -0.1150  0.1888  0.0045
 3180DOPS   CNO37309  25.571  13.870   9.417  0.0010 -0.4532 -0.1200
 3180DOPS   PO437310  25.438  14.163   9.575 -0.0310 -0.0974 -0.0460
 3180DOPS   GL137311  25.563  14.270  10.001  0.0067 -0.0350 -0.3215
 3180DOPS   GL237312  25.314  14.231  10.216 -0.0121 -0.2940 -0.1421
 3180DOPS   C1A37313  25.745  14.084  10.407 -0.0895 -0.0908  0.0391
 3180DOPS   D2A37314  25.813  14.227  10.863 -0.2052  0.2124  0.0513
 3180DOPS   C3A37315  26.149  14.049  11.046 -0.1394 -0.0358  0.1317
 3180DOPS   C4A37316  26.169  13.619  11.178 -0.1089 -0.0450 -0.0161
 3180DOPS   C1B37317  24.980  14.299  10.526  0.1224 -0.0473 -0.0580
 3180DOPS   D2B37318  24.679  14.402  10.904  0.1034 -0.1526  0.0253
 3180DOPS   C3B37319  24.832  14.346  11.348 -0.0073 -0.0086 -0.0851
 3180DOPS   C4B37320  24.879  14.208  11.804  0.0162 -0.0778  0.2500
 3181DOPE   NH337321  28.053  20.878  10.945  0.0467 -0.0825  0.2949
 3181DOPE   PO437322  28.127  21.013  11.232 -0.1519  0.0637 -0.2246
 3181DOPE   GL137323  27.895  21.149  11.599 -0.4428  0.2327 -0.2203
 3181DOPE   GL237324  27.934  21.379  11.881  0.3318  0.0708  0.2491
 3181DOPE   C1A37325  27.997  20.757  11.856 -0.2341 -0.1043  0.1848
 3181DOPE   D2A37326  28.256  20.579  12.152  0.1824  0.1110 -0.0444
 3181DOPE   C3A37327  28.083  20.477  12.536  0.0668 -0.2654  0.1733
 3181DOPE   C4A37328  27.892  20.400  12.944  0.2115 -0.0016 -0.2897
 3181DOPE   C1B37329  27.648  21.326  12.259  0.1795 -0.1740  0.1810
 3181DOPE   D2B37330  27.502  21.531  12.675 -0.3505  0.0953 -0.0455
 3181DOPE   C3B37331  27.740  21.847  12.901  0.1697  0.1542 -0.2229
 3181DOPE   C4B37332  27.729  22.323  12.885 -0.1097 -0.0648  0.0200
 3182DOPE   NH337333  28.252  14.438   9.441 -0.0229 -0.0758 -0.0081
 3182DOPE   PO437334  28.035  14.447   9.660 -0.1246  0.0868 -0.0014
 3182DOPE   GL137335  27.841  14.408  10.022  0.1187  0.1636  0.2157
 3182DOPE   GL237336  27.907  14.106  10.130 -0.0268  0.3165  0.0111
 3182DOPE   C1A37337  27.962  14.486  10.473  0.0132 -0.1726  0.2402
 3182DOPE   D2A37338  27.909  14.677  10.916  0.0044  0.0226 -0.0966
 3182DOPE   C3A37339  27.705  15.038  10.989 -0.2693 -0.0563 -0.1357
 3182DOPE   C4A37340  27.415  15.343  10.789  0.3436 -0.0670  0.0311
 3182DOPE   C1B37341  27.851  14.036  10.561  0.2746 -0.2752  0.0121
 3182DOPE   D2B37342  27.961  14.159  11.030  0.0455  0.2802 -0.1276
 3182DOPE   C3B37343  27.697  14.063  11.394  0.0003  0.2083 -0.0921
 3182DOPE   C4B37344  27.632  13.974  11.820 -0.1697 -0.2519  0.2435
 3183DOPS   CNO37345  34.465  23.985  10.144 -0.0772  0.0586 -0.0059
 3183DOPS   PO437346  34.472  24.128  10.516  0.0467  0.1269 -0.4306
 3183DOPS   GL137347  34.467  24.027  10.876 -0.2551 -0.0608  0.2439
 3183DOPS   GL237348  34.539  23.752  10.980 -0.1201 -0.0662 -0.1055
 3183DOPS   C1A37349  34.250  23.881  11.288 -0.2592  0.2673  0.1352
 3183DOPS   D2A37350  34.286  23.959  11.710  0.0419  0.2578  0.0140
 3183DOPS   C3A37351  33.984  23.855  12.044  0.0840 -0.0294 -0.2032
 3183DOPS   C4A37352  33.770  24.024  12.441  0.1549  0.1795  0.2964
 3183DOPS   C1B37353  34.862  23.858  11.259  0.0088 -0.0085  0.1425
 3183DOPS   D2B37354  35.072  23.862  11.697  0.1614  0.1799  0.0200
 3183DOPS   C3B37355  35.001  23.532  12.068 -0.1612  0.0821  0.1516
 3183DOPS   C4B37356  35.095  23.292  12.502 -0.2071  0.0005 -0.4088
 3184DOPE   NH337357  34.478  14.797  11.064  0.2508 -0.3317 -0.2373
 3184DOPE   PO437358  34.505  15.073  11.226  0.1887 -0.0718  0.1265
 3184DOPE   GL137359  34.536  15.049  11.611  0.1475 -0.1659 -0.1022
 3184DOPE   GL237360  34.449  14.774  11.660  0.1733  0.1577 -0.1222
 3184DOPE   C1A37361  34.805  14.850  11.975 -0.2184 -0.1587 -0.0491
 3184DOPE   D2A37362  35.090  14.932  12.337 -0.1506  0.1271 -0.0221
 3184DOPE   C3A37363  34.922  15.230  12.662 -0.0707 -0.0491  0.0277
 3184DOPE   C4A37364  35.191  15.646  12.660  0.2413  0.2645 -0.1213
 3184DOPE   C1B37365  34.559  14.423  11.903  0.0878 -0.1829 -0.0792
 3184DOPE   D2B37366  34.412  14.330  12.357 -0.1329  0.0781 -0.0249
 3184DOPE   C3B37367  34.368  14.377  12.797  0.0636 -0.1077  0.3872
 3184DOPE   C4B37368  34.515  14.245  13.145 -0.3536  0.0884 -0.0414
 3185DOPS   CNO37369  31.494  10.430  10.644  0.0350  0.0671 -0.2423
 3185DOPS   PO437370  31.255  10.133  10.625 -0.0048  0.0252 -0.3894
 3185DOPS   GL137371  31.320  10.315  11.064 -0.1932  0.0912  0.2137
 3185DOPS   GL237372  31.557  10.394  11.269 -0.2670 -0.1361 -0.0378
 3185DOPS   C1A37373  31.169  10.443  11.508 -0.3622 -0.1944  0.2066
 3185DOPS   D2A37374  31.273  10.619  11.878  0.0263 -0.0925 -0.1450
 3185DOPS   C3A37375  31.139  10.345  12.180  0.2791 -0.1049  0.0475
 3185DOPS   C4A37376  30.747  10.199  12.404  0.0770 -0.0369  0.0462
 3185DOPS   C1B37377  31.849  10.432  11.665 -0.1382 -0.1298  0.0864
 3185DOPS   D2B37378  32.144  10.519  11.973  0.2424 -0.0783 -0.0528
 3185DOPS   C3B37379  32.216  10.221  12.331  0.1385 -0.1168 -0.0784
 3185DOPS   C4B37380  31.959   9.910  12.527 -0.0728  0.0933 -0.1978
 3186DOPS   CNO37381   1.176  11.835  10.835  0.0558 -0.0900 -0.1818
 3186DOPS   PO437382   1.388  11.705  11.128  0.0817  0.0694 -0.1075
 3186DOPS   GL137383   1.431  11.654  11.568 -0.1202  0.2542 -0.2349
 3186DOPS   GL237384   1.374  11.907  11.717 -0.0819 -0.1438  0.1041
 3186DOPS   C1A37385   1.602  11.423  11.918  0.0732 -0.0479  0.2018
 3186DOPS   D2A37386   1.927  11.118  12.035  0.0318  0.0054 -0.2389
 3186DOPS   C3A37387   2.130  11.230  12.477  0.1725 -0.0765 -0.2959
 3186DOPS   C4A37388   2.408  11.608  12.448 -0.1714 -0.1209 -0.1575
 3186DOPS   C1B37389   1.662  11.891  12.063  0.2246  0.0638  0.1250
 3186DOPS   D2B37390   1.986  11.588  12.190 -0.0273  0.4087  0.0347
 3186DOPS   C3B37391   1.807  11.661  12.596  0.0385  0.1240 -0.2828
 3186DOPS   C4B37392   1.483  11.936  12.747  0.1235  0.0809 -0.0338
 3187DOPC   NC337393  28.077  13.859   9.750 -0.2812 -0.1274  0.3077
 3187DOPC   PO437394  28.398  14.040   9.824 -0.3131 -0.3815  0.0500
 3187DOPC   GL137395  28.390  14.231  10.150  0.0220  0.1355 -0.0969
 3187DOPC   GL237396  28.459  14.516  10.089  0.0282  0.1028 -0.0723
 3187DOPC   C1A37397  28.542  14.376  10.575 -0.0552  0.1364 -0.0629
 3187DOPC   D2A37398  28.398  14.572  10.996  0.0218 -0.0145 -0.2473
 3187DOPC   C3A37399  28.201  14.409  11.395 -0.0648  0.0729  0.0654
 3187DOPC   C4A37400  28.337  14.601  11.795 -0.1408  0.2821 -0.0779
 3187DOPC   C1B37401  28.473  14.833  10.464  0.2939 -0.1084 -0.0617
 3187DOPC   D2B37402  28.200  15.044  10.739 -0.0414  0.0880  0.1847
 3187DOPC   C3B37403  28.242  15.183  11.131  0.0065 -0.2399 -0.1825
 3187DOPC   C4B37404  28.293  15.014  11.501 -0.1361  0.1143  0.2562
 3188DOPC   NC337405  33.839  19.599  10.890 -0.1006  0.1905  0.2696
 3188DOPC   PO437406  33.626  19.886  10.883 -0.1431  0.0588  0.0050
 3188DOPC   GL137407  33.534  19.782  11.363 -0.2387 -0.0223  0.0215
 3188DOPC   GL237408  33.772  19.679  11.385 -0.0830  0.3594 -0.0966
 3188DOPC   C1A37409  33.491  19.814  11.797 -0.2015 -0.0463 -0.1055
 3188DOPC   D2A37410  33.543  19.967  12.215  0.0626  0.0277  0.0703
 3188DOPC   C3A37411  33.439  20.334  12.457 -0.0489  0.2264 -0.0421
 3188DOPC   C4A37412  33.162  20.464  12.762 -0.0021 -0.0881 -0.1614
 3188DOPC   C1B37413  33.842  20.127  11.511  0.1163  0.1039  0.0400
 3188DOPC   D2B37414  33.999  20.240  11.903 -0.0472 -0.0627  0.0375
 3188DOPC   C3B37415  34.188  20.095  12.299 -0.1767 -0.3606  0.0309
 3188DOPC   C4B37416  34.439  19.778  12.488  0.3977  0.1773 -0.1372
 3189DOPE   NH337417  32.715  17.619  11.165 -0.1090  0.1978 -0.1979
 3189DOPE   PO437418  33.024  17.779  11.130 -0.1233 -0.2254 -0.1075
 3189DOPE   GL137419  33.116  17.747  11.450  0.3119 -0.0654  0.0315
 3189DOPE   GL237420  32.853  17.833  11.606  0.3994 -0.1104  0.0603
 3189DOPE   C1A37421  33.409  18.023  11.682 -0.3410 -0.0582  0.1603
 3189DOPE   D2A37422  33.552  18.431  11.805 -0.0289  0.1386 -0.0692
 3189DOPE   C3A37423  33.950  18.644  11.622  0.1599  0.0579  0.0304
 3189DOPE   C4A37424  34.407  18.609  11.591 -0.0343 -0.2633 -0.1135
 3189DOPE   C1B37425  33.159  17.657  11.936  0.2031  0.0930 -0.3178
 3189DOPE   D2B37426  33.500  17.663  12.312 -0.2958 -0.1275 -0.1587
 3189DOPE   C3B37427  33.643  17.827  12.683  0.1983 -0.3168 -0.1331
 3189DOPE   C4B37428  34.040  18.035  12.915  0.2272 -0.1085  0.1904
 3190DOPC   NC337429  32.704  24.389  10.930  0.1652 -0.0140 -0.1219
 3190DOPC   PO437430  32.424  24.664  11.003 -0.2012  0.0586  0.0746
 3190DOPC   GL137431  32.511  24.732  11.392  0.3527  0.0662 -0.2487
 3190DOPC   GL237432  32.303  24.896  11.466 -0.1807  0.0951 -0.2579
 3190DOPC   C1A37433  32.760  25.040  11.636 -0.0822 -0.1004  0.3009
 3190DOPC   D2A37434  32.704  25.372  11.982  0.0853  0.0581 -0.2741
 3190DOPC   C3A37435  32.357  25.565  12.231 -0.1269  0.0302  0.1739
 3190DOPC   C4A37436  32.204  25.720  12.593  0.2707  0.0578 -0.2816
 3190DOPC   C1B37437  32.213  24.680  11.891 -0.0102  0.1920  0.2349
 3190DOPC   D2B37438  32.291  24.450  12.236 -0.0121 -0.1909  0.0109
 3190DOPC   C3B37439  31.917  24.224  12.371 -0.0050 -0.4013 -0.1709
 3190DOPC   C4B37440  31.499  24.153  12.198  0.1959  0.0332  0.0810
 3191POSM   NC337441  29.828  17.341  10.666 -0.2179  0.3612 -0.1216
 3191POSM   PO437442  30.140  17.203  10.549  0.1246 -0.1880 -0.1887
 3191POSM   AM137443  30.170  16.970  10.780 -0.3279  0.2099 -0.2721
 3191POSM   AM237444  29.981  16.894  11.021  0.1341 -0.2947 -0.0244
 3191POSM   T1A37445  30.138  16.457  10.842  0.3569 -0.0835  0.3992
 3191POSM   C2A37446  30.186  15.997  10.706 -0.0900  0.2435 -0.1305
 3191POSM   C3A37447  30.056  15.540  10.862  0.1970  0.1728 -0.0051
 3191POSM   C1B37448  30.025  16.701  11.266  0.0294 -0.0508  0.1675
 3191POSM   D2B37449  29.947  16.292  11.440 -0.2055  0.5322  0.0349
 3191POSM   C3B37450  30.146  15.964  11.196 -0.2044  0.0949  0.0356
 3191POSM   C4B37451  30.426  15.687  11.129 -0.0452  0.0833 -0.0525
 3192DOPC   NC337452  29.857  20.852  11.221  0.3447  0.2595  0.1414
 3192DOPC   PO437453  29.477  20.961  11.133 -0.1725  0.2635 -0.0485
 3192DOPC   GL137454  29.365  21.042  11.507  0.0999 -0.4753 -0.2867
 3192DOPC   GL237455  29.197  21.247  11.461  0.0927  0.0870 -0.1711
 3192DOPC   C1A37456  29.121  20.667  11.680 -0.0220  0.2016  0.0640
 3192DOPC   D2A37457  28.983  20.435  12.048 -0.0441  0.2859  0.0326
 3192DOPC   C3A37458  28.765  19.999  12.026 -0.0995  0.1794  0.3590
 3192DOPC   C4A37459  28.407  19.679  12.217  0.0124 -0.1110  0.0577
 3192DOPC   C1B37460  29.104  21.144  11.909 -0.1108 -0.0296 -0.1044
 3192DOPC   D2B37461  29.196  21.272  12.393 -0.2438 -0.1398  0.1064
 3192DOPC   C3B37462  29.219  21.688  12.538 -0.0925  0.1565 -0.2939
 3192DOPC   C4B37463  29.134  21.851  13.019 -0.0810 -0.3342  0.1263
 3193DOPC   NC337464  31.453  16.894  10.887  0.2315  0.1124  0.0936
 3193DOPC   PO437465  31.600  17.252  10.967  0.0322 -0.0197  0.1776
 3193DOPC   GL137466  31.603  17.383  11.336 -0.1661  0.0531 -0.1136
 3193DOPC   GL237467  31.378  17.260  11.490  0.3144  0.1941  0.1845
 3193DOPC   C1A37468  31.827  17.564  11.694 -0.3539  0.1727 -0.0044
 3193DOPC   D2A37469  31.676  17.679  12.105 -0.1417  0.1315 -0.0440
 3193DOPC   C3A37470  31.928  17.667  12.524  0.0407 -0.0233  0.2148
 3193DOPC   C4A37471  32.021  17.673  12.975  0.1654 -0.0080 -0.0578
 3193DOPC   C1B37472  31.114  17.463  11.821 -0.0043  0.0032  0.2974
 3193DOPC   D2B37473  30.905  17.685  12.173  0.1527  0.1212 -0.1314
 3193DOPC   C3B37474  31.137  17.987  12.381  0.0269  0.0769 -0.0216
 3193DOPC   C4B37475  31.095  18.416  12.329 -0.2558 -0.1822  0.1497
 3194DOPE   NH337476  25.588  25.228  10.969 -0.1171  0.2437  0.2710
 3194DOPE   PO437477  25.632  25.072  11.258 -0.1208  0.2724  0.3105
 3194DOPE   GL137478  25.659  25.068  11.652  0.1952  0.0126 -0.0393
 3194DOPE   GL237479  25.398  24.999  11.716 -0.0260 -0.0600 -0.3299
 3194DOPE   C1A37480  25.977  25.088  11.920 -0.4775 -0.3988 -0.0452
 3194DOPE   D2A37481  26.208  24.722  12.139 -0.3182 -0.0955  0.1323
 3194DOPE   C3A37482  26.404  24.597  12.498 -0.1506 -0.0256 -0.3504
 3194DOPE   C4A37483  26.254  24.545  12.966  0.0929 -0.1613  0.0538
 3194DOPE   C1B37484  25.522  25.198  12.081  0.1447  0.0985 -0.0025
 3194DOPE   D2B37485  25.520  24.920  12.448 -0.1840  0.1394 -0.0763
 3194DOPE   C3B37486  25.346  25.035  12.830  0.2502  0.2365 -0.1818
 3194DOPE   C4B37487  25.438  25.419  13.044  0.0479  0.1445  0.0114
 3195DOPE   NH337488  27.557  24.099  11.304  0.0465  0.1453  0.0694
 3195DOPE   PO437489  27.846  24.012  11.448 -0.2925 -0.0043  0.1988
 3195DOPE   GL137490  27.834  23.908  11.823  0.3465  0.2845  0.1928
 3195DOPE   GL237491  28.083  23.656  11.832 -0.1016 -0.1343 -0.0122
 3195DOPE   C1A37492  27.771  24.111  12.224  0.0068  0.0366  0.3588
 3195DOPE   D2A37493  27.428  24.248  12.496  0.2268  0.2692  0.0069
 3195DOPE   C3A37494  27.228  24.405  12.860  0.3937  0.4144 -0.3371
 3195DOPE   C4A37495  27.185  24.840  12.940 -0.0422  0.1290 -0.0041
 3195DOPE   C1B37496  27.838  23.611  12.190 -0.0299  0.0789  0.1406
 3195DOPE   D2B37497  27.806  23.422  12.600  0.2876  0.0213 -0.2912
 3195DOPE   C3B37498  27.447  23.434  12.859  0.1930 -0.2386 -0.0674
 3195DOPE   C4B37499  27.258  23.616  13.259 -0.0161 -0.0883 -0.0138
 3196DOPC   NC337500  24.682  21.963  10.751  0.0618  0.4280 -0.2520
 3196DOPC   PO437501  24.703  21.588  10.537  0.1252 -0.2071 -0.0909
 3196DOPC   GL137502  24.635  21.422  10.857  0.1917 -0.0469  0.0471
 3196DOPC   GL237503  24.362  21.297  10.821 -0.1472 -0.1924 -0.0747
 3196DOPC   C1A37504  24.839  21.413  11.283  0.1123  0.3080  0.1436
 3196DOPC   D2A37505  24.706  21.382  11.750 -0.1511 -0.3580  0.0557
 3196DOPC   C3A37506  24.380  21.111  11.947  0.2874  0.2162  0.0760
 3196DOPC   C4A37507  24.206  21.176  12.350 -0.1019  0.0428  0.1277
 3196DOPC   C1B37508  24.045  21.025  11.044 -0.0626  0.0494 -0.1715
 3196DOPC   D2B37509  23.707  20.821  11.261 -0.1261  0.3862 -0.2813
 3196DOPC   C3B37510  23.672  20.348  11.231  0.1190 -0.0990  0.2901
 3196DOPC   C4B37511  23.256  20.126  11.133  0.2448 -0.1194 -0.2657
 3197DOPE   NH337512  33.022  22.956  10.773 -0.2019  0.3043  0.1323
 3197DOPE   PO437513  32.771  23.144  10.743  0.1039 -0.4529  0.3815
 3197DOPE   GL137514  32.630  23.435  11.008  0.2277  0.2565 -0.2905
 3197DOPE   GL237515  32.850  23.286  11.259  0.1762 -0.1805 -0.0950
 3197DOPE   C1A37516  32.415  23.448  11.452  0.0518  0.2828  0.1281
 3197DOPE   D2A37517  32.508  23.536  11.933 -0.0159 -0.3584 -0.0775
 3197DOPE   C3A37518  32.960  23.432  12.102 -0.0605 -0.1751 -0.3436
 3197DOPE   C4A37519  33.167  23.320  12.496 -0.0635 -0.1800 -0.0545
 3197DOPE   C1B37520  32.919  23.162  11.684 -0.0076 -0.3415  0.1746
 3197DOPE   D2B37521  32.623  23.034  11.978  0.0519 -0.4197  0.1222
 3197DOPE   C3B37522  32.527  23.292  12.343 -0.0075 -0.2219  0.0299
 3197DOPE   C4B37523  32.367  23.395  12.822 -0.2312 -0.0849 -0.1978
 3198DOPS   CNO37524  29.745  23.027  11.346 -0.3018 -0.0576  0.0147
 3198DOPS   PO437525  29.406  23.106  11.471 -0.1973 -0.0455 -0.0540
 3198DOPS   GL137526  29.294  23.165  11.935 -0.3415 -0.0026 -0.2566
 3198DOPS   GL237527  29.465  22.991  11.959  0.2818 -0.1443 -0.0065
 3198DOPS   C1A37528  29.267  23.270  12.352  0.1442 -0.0660 -0.2311
 3198DOPS   D2A37529  29.375  23.063  12.784 -0.3263 -0.1692 -0.0755
 3198DOPS   C3A37530  29.471  22.636  12.926  0.1391  0.0666  0.0450
 3198DOPS   C4A37531  29.625  22.252  13.204  0.1078  0.3211  0.0812
 3198DOPS   C1B37532  29.701  22.865  12.328  0.2325  0.1744 -0.1171
 3198DOPS   D2B37533  29.841  22.989  12.726 -0.1770  0.1439  0.1068
 3198DOPS   C3B37534  30.226  22.871  12.968 -0.0697  0.0196 -0.4015
 3198DOPS   C4B37535  30.677  22.796  12.992 -0.1691 -0.3647 -0.1795
 3199DOPC   NC337536  28.107  23.310  11.446 -0.1406 -0.1555  0.1338
 3199DOPC   PO437537  28.096  22.936  11.291  0.0295 -0.2118  0.0198
 3199DOPC   GL137538  28.011  22.991  11.723 -0.1094 -0.2353 -0.3092
 3199DOPC   GL237539  28.190  23.167  11.939 -0.0824 -0.0053  0.0202
 3199DOPC   C1A37540  27.914  22.653  12.032  0.0172 -0.0562  0.0120
 3199DOPC   D2A37541  27.712  22.521  12.427  0.0889  0.1895  0.2288
 3199DOPC   C3A37542  27.685  22.895  12.736  0.0039 -0.0927 -0.1028
 3199DOPC   C4A37543  27.582  23.034  13.175 -0.0484 -0.1850  0.5053
 3199DOPC   C1B37544  28.282  23.447  12.367 -0.1765 -0.1460  0.1790
 3199DOPC   D2B37545  28.427  23.667  12.787  0.0050  0.1243 -0.0926
 3199DOPC   C3B37546  28.780  23.753  13.096 -0.0705  0.1169  0.0029
 3199DOPC   C4B37547  28.666  23.857  13.601  0.1441  0.2758  0.0504
 3200POSM   NC337548   0.128  18.000  10.140  0.0113  0.3620 -0.4275
 3200POSM   PO437549   0.164  18.365  10.328 -0.0929 -0.0830  0.4135
 3200POSM   AM137550   0.219  18.451  10.608 -0.1405 -0.0797 -0.1158
 3200POSM   AM237551   0.198  18.336  10.876  0.0420 -0.0344 -0.1081
 3200POSM   T1A37552   0.209  18.766  10.981  0.1273  0.1106 -0.0473
 3200POSM   C2A37553   0.458  18.934  11.365  0.0660 -0.0113 -0.1356
 3200POSM   C3A37554   0.143  18.957  11.750 -0.1222  0.0586 -0.0326
 3200POSM   C1B37555   0.527  18.247  11.014 -0.1356  0.0588 -0.1798
 3200POSM   D2B37556   0.824  18.366  11.363 -0.0350 -0.4283 -0.0868
 3200POSM   C3B37557   0.848  18.158  11.766 -0.0317 -0.0455 -0.0676
 3200POSM   C4B37558   1.133  18.016  12.168  0.3454 -0.0700 -0.4923
 3201DOPC   NC337559  26.104  19.519  10.024 -0.1060  0.1659 -0.1650
 3201DOPC   PO437560  26.186  19.706  10.333  0.0370  0.0154  0.0804
 3201DOPC   GL137561  26.180  19.477  10.778  0.3121  0.0070  0.1088
 3201DOPC   GL237562  25.870  19.500  10.921 -0.1260 -0.0079 -0.0235
 3201DOPC   C1A37563  26.154  19.232  11.192 -0.2184  0.1435  0.1465
 3201DOPC   D2A37564  25.925  19.462  11.484 -0.3092  0.0302 -0.2027
 3201DOPC   C3A37565  25.478  19.372  11.431 -0.1711  0.2886 -0.0353
 3201DOPC   C4A37566  25.321  19.039  11.648  0.2278  0.0925 -0.2174
 3201DOPC   C1B37567  26.180  19.784  11.211  0.0754 -0.2147 -0.0903
 3201DOPC   D2B37568  26.033  19.962  11.628 -0.4396  0.1510  0.0390
 3201DOPC   C3B37569  25.815  19.753  11.973  0.0394  0.0929  0.1931
 3201DOPC   C4B37570  25.864  19.381  12.284 -0.1745  0.0966 -0.1464
 3202POSM   NC337571  32.144  17.107  10.449  0.0773 -0.3570 -0.0854
 3202POSM   PO437572  32.014  16.957  10.811 -0.1438 -0.0482 -0.1687
 3202POSM   AM137573  31.903  16.897  11.104  0.0183 -0.0272  0.3294
 3202POSM   AM237574  31.839  17.031  11.364  0.2637 -0.1655 -0.2412
 3202POSM   T1A37575  31.821  16.513  11.422 -0.4976 -0.0366  0.1085
 3202POSM   C2A37576  31.502  16.302  11.663  0.2898  0.0705  0.0914
 3202POSM   C3A37577  31.517  16.018  12.044 -0.0076  0.0526  0.3528
 3202POSM   C1B37578  31.745  16.971  11.608 -0.0678  0.3048 -0.2573
 3202POSM   D2B37579  31.621  17.081  12.095  0.2099 -0.1962 -0.2270
 3202POSM   C3B37580  31.753  17.174  12.507 -0.1316  0.1801  0.0953
 3202POSM   C4B37581  32.071  17.223  12.818  0.0461 -0.3477 -0.3129
 3203DOPE   NH337582  27.627  18.718  10.373 -0.1599 -0.0352 -0.3613
 3203DOPE   PO437583  27.493  18.461  10.556 -0.0660 -0.2600  0.3300
 3203DOPE   GL137584  27.254  18.251  10.823  0.1353 -0.2938  0.0232
 3203DOPE   GL237585  27.319  18.005  10.688  0.0372 -0.0942  0.1668
 3203DOPE   C1A37586  27.029  18.320  11.204 -0.0003  0.2056 -0.2177
 3203DOPE   D2A37587  26.861  18.729  11.409 -0.2589  0.0516  0.0033
 3203DOPE   C3A37588  26.650  18.734  11.825  0.1029 -0.3148  0.2405
 3203DOPE   C4A37589  26.781  18.858  12.242 -0.0037  0.0694  0.3028
 3203DOPE   C1B37590  27.252  17.887  11.131 -0.3682 -0.0588  0.1883
 3203DOPE   D2B37591  27.265  18.001  11.543 -0.2005 -0.2234 -0.0613
 3203DOPE   C3B37592  27.594  17.970  11.850  0.0661  0.0064  0.2023
 3203DOPE   C4B37593  27.629  18.218  12.271  0.1783 -0.2112  0.1513
 3204DOPE   NH337594  34.627  16.840  10.754  0.2707 -0.1514 -0.0805
 3204DOPE   PO437595  34.535  17.154  10.875 -0.1199 -0.3033 -0.1345
 3204DOPE   GL137596  34.973  17.245  10.979 -0.0945  0.0090  0.1447
 3204DOPE   GL237597  34.961  17.073  11.222  0.1506 -0.2949  0.2591
 3204DOPE   C1A37598  34.906  17.516  11.399  0.2220 -0.1766  0.1048
 3204DOPE   D2A37599  34.840  17.924  11.241  0.0516 -0.0506 -0.2135
 3204DOPE   C3A37600  34.673  18.188  11.624 -0.1842 -0.4950  0.0054
 3204DOPE   C4A37601  34.661  18.216  12.091 -0.0354  0.2427 -0.1682
 3204DOPE   C1B37602  34.939  16.859  11.607 -0.0354 -0.0825 -0.2311
 3204DOPE   D2B37603  34.860  16.912  12.039  0.1291  0.2287  0.0791
 3204DOPE   C3B37604  34.491  16.649  12.159  0.1328  0.1284 -0.0320
 3204DOPE   C4B37605  34.537  16.342  12.534  0.1824  0.0508 -0.1813
 3205DOPS   CNO37606  31.131  11.928   9.937 -0.1281  0.0034 -0.1470
 3205DOPS   PO437607  31.149  12.068  10.250 -0.1792 -0.0218 -0.3512
 3205DOPS   GL137608  31.080  12.031  10.654  0.1516 -0.3623 -0.0036
 3205DOPS   GL237609  31.185  12.283  10.807 -0.0689  0.1654  0.1004
 3205DOPS   C1A37610  31.210  11.739  11.005  0.0407 -0.0166  0.0290
 3205DOPS   D2A37611  31.073  11.601  11.411 -0.2870  0.0213  0.3255
 3205DOPS   C3A37612  31.084  11.701  11.856 -0.3866  0.0518  0.0200
 3205DOPS   C4A37613  31.095  11.494  12.258 -0.1300  0.0141 -0.3506
 3205DOPS   C1B37614  31.294  12.220  11.249 -0.1294  0.1103  0.2803
 3205DOPS   D2B37615  31.335  12.151  11.657  0.0102  0.0542  0.1974
 3205DOPS   C3B37616  31.615  12.065  11.984 -0.0441  0.0353 -0.2534
 3205DOPS   C4B37617  31.873  12.058  12.344  0.1455  0.1147  0.1907
 3206DOPE   NH337618  28.735  16.447  10.063 -0.3205 -0.0224 -0.1247
 3206DOPE   PO437619  28.735  16.574  10.362 -0.0002  0.0034  0.3645
 3206DOPE   GL137620  29.040  16.500  10.637 -0.1806 -0.2894 -0.0227
 3206DOPE   GL237621  29.273  16.537  10.638 -0.1145 -0.1230  0.3808
 3206DOPE   C1A37622  29.057  16.362  11.073  0.1083 -0.0048  0.0770
 3206DOPE   D2A37623  29.460  16.307  11.369  0.1940  0.2488  0.0261
 3206DOPE   C3A37624  29.520  16.106  11.730 -0.0848 -0.3064  0.1975
 3206DOPE   C4A37625  29.362  15.971  12.128  0.0481  0.2463 -0.1734
 3206DOPE   C1B37626  29.496  16.625  11.017  0.1023  0.3173  0.0803
 3206DOPE   D2B37627  29.499  16.804  11.414 -0.2508 -0.1931  0.0592
 3206DOPE   C3B37628  29.667  16.628  11.811  0.0333 -0.4021  0.3282
 3206DOPE   C4B37629  29.897  16.796  12.125 -0.1020  0.0726 -0.5830
 3207DOPE   NH337630  33.884  14.471  10.807 -0.1222 -0.1248  0.0743
 3207DOPE   PO437631  33.890  14.177  10.901  0.4063  0.1155 -0.1849
 3207DOPE   GL137632  33.737  14.272  11.275 -0.0784  0.5009  0.2693
 3207DOPE   GL237633  33.634  14.567  11.258 -0.5035  0.0212 -0.2943
 3207DOPE   C1A37634  33.869  14.099  11.681 -0.1099  0.0230  0.1111
 3207DOPE   D2A37635  33.929  13.661  11.820 -0.2090  0.0014  0.0582
 3207DOPE   C3A37636  34.161  13.377  11.588 -0.1018  0.0519  0.2495
 3207DOPE   C4A37637  34.489  13.108  11.731 -0.1680  0.2235  0.0413
 3207DOPE   C1B37638  33.466  14.392  11.617  0.0839  0.1921 -0.1889
 3207DOPE   D2B37639  33.509  14.240  12.054 -0.2284  0.2398  0.0620
 3207DOPE   C3B37640  33.227  14.103  12.405  0.1915  0.3825 -0.0216
 3207DOPE   C4B37641  33.402  14.160  12.831  0.0748 -0.2664 -0.2554
 3208POSM   NC337642  30.907  23.466  10.897  0.0797  0.0658  0.1316
 3208POSM   PO437643  31.205  23.692  11.037 -0.1337 -0.0703  0.3469
 3208POSM   AM137644  31.090  23.765  11.340 -0.1024 -0.2994  0.2354
 3208POSM   AM237645  31.120  23.974  11.501 -0.0092 -0.0695  0.0854
 3208POSM   T1A37646  30.741  23.702  11.698  0.0204 -0.1520  0.0761
 3208POSM   C2A37647  30.449  23.965  11.982 -0.3250 -0.0909 -0.2990
 3208POSM   C3A37648  30.339  24.374  12.164 -0.3198 -0.1293  0.5560
 3208POSM   C1B37649  31.111  24.002  11.801  0.1312 -0.3087  0.1767
 3208POSM   D2B37650  30.917  23.919  12.194  0.0926 -0.1370  0.1390
 3208POSM   C3B37651  31.023  23.716  12.585  0.0182  0.0266  0.0160
 3208POSM   C4B37652  31.034  23.309  12.795  0.0060  0.1375  0.1383
 3209DOPC   NC337653   0.896  19.153  10.598  0.2562 -0.0740  0.2185
 3209DOPC   PO437654   0.665  19.489  10.553  0.0496 -0.2087  0.1658
 3209DOPC   GL137655   0.847  19.720  10.873  0.1123 -0.2110  0.2942
 3209DOPC   GL237656   1.081  19.642  10.964  0.2107 -0.2706 -0.1292
 3209DOPC   C1A37657   0.687  19.692  11.333  0.0214 -0.0391 -0.0903
 3209DOPC   D2A37658   0.780  19.599  11.797 -0.1537 -0.0802  0.0562
 3209DOPC   C3A37659   1.115  19.268  11.931 -0.0236  0.0642 -0.0914
 3209DOPC   C4A37660   1.276  18.882  12.032 -0.1310  0.1697  0.0773
 3209DOPC   C1B37661   1.155  19.668  11.461  0.1567 -0.2884 -0.1012
 3209DOPC   D2B37662   1.377  19.840  11.793 -0.0975 -0.1412 -0.0182
 3209DOPC   C3B37663   1.057  19.768  12.149  0.3037 -0.1382 -0.0425
 3209DOPC   C4B37664   0.857  19.367  12.339  0.1677 -0.1096 -0.0163
 3210DOPC   NC337665  30.896  10.511  10.662  0.0684 -0.2596  0.0434
 3210DOPC   PO437666  30.738  10.240  10.945  0.2322 -0.0201 -0.0926
 3210DOPC   GL137667  30.793  10.081  11.346  0.1018 -0.1245 -0.3568
 3210DOPC   GL237668  31.033   9.995  11.311  0.0925 -0.0286 -0.0060
 3210DOPC   C1A37669  30.741  10.208  11.783 -0.0118 -0.4723 -0.0557
 3210DOPC   D2A37670  30.357  10.388  12.021  0.0045  0.0063  0.1002
 3210DOPC   C3A37671  30.341  10.773  12.251  0.4762  0.1468 -0.0359
 3210DOPC   C4A37672  30.538  11.148  12.442 -0.0172  0.1633 -0.2310
 3210DOPC   C1B37673  31.197   9.893  11.755  0.0037 -0.3142 -0.2820
 3210DOPC   D2B37674  31.135   9.499  11.950  0.2685 -0.0513 -0.1133
 3210DOPC   C3B37675  31.419   9.293  12.329  0.2273  0.0176  0.0759
 3210DOPC   C4B37676  31.596   9.523  12.681  0.0728 -0.0388  0.2707
 3211DOPE   NH337677  29.633  12.729  10.195 -0.2340  0.1934  0.1058
 3211DOPE   PO437678  29.375  12.538  10.049  0.0939  0.0167  0.2816
 3211DOPE   GL137679  29.183  12.620  10.393  0.2217  0.2863  0.0620
 3211DOPE   GL237680  29.025  12.457  10.543 -0.2080 -0.1608  0.0041
 3211DOPE   C1A37681  29.049  12.987  10.649  0.0527 -0.2581  0.0489
 3211DOPE   D2A37682  28.910  13.263  11.009  0.0033 -0.2808  0.1049
 3211DOPE   C3A37683  29.106  13.528  11.285  0.1225  0.0981  0.2674
 3211DOPE   C4A37684  29.099  13.660  11.735  0.0461 -0.0251 -0.2623
 3211DOPE   C1B37685  29.195  12.501  10.922  0.1984  0.2217  0.0962
 3211DOPE   D2B37686  29.530  12.501  11.228  0.0587  0.0258  0.0770
 3211DOPE   C3B37687  29.409  12.643  11.613  0.1385  0.0246 -0.0877
 3211DOPE   C4B37688  29.537  12.881  12.012  0.1200  0.1670  0.1315
 3212DOPE   NH337689  32.659  15.107  11.019 -0.1763  0.4344  0.0648
 3212DOPE   PO437690  32.391  14.915  10.873  0.1427 -0.1072 -0.1178
 3212DOPE   GL137691  32.250  14.927  11.279 -0.0416 -0.0004  0.0659
 3212DOPE   GL237692  31.979  14.765  11.255 -0.2637 -0.2986 -0.2506
 3212DOPE   C1A37693  32.255  14.661  11.685  0.0684 -0.4327  0.0728
 3212DOPE   D2A37694  32.433  14.183  11.720 -0.0956 -0.2507  0.0010
 3212DOPE   C3A37695  32.172  13.891  11.996  0.5244  0.1113 -0.2140
 3212DOPE   C4A37696  32.064  13.723  12.412  0.0579 -0.0003 -0.0269
 3212DOPE   C1B37697  31.624  15.049  11.305  0.1184  0.2318  0.0723
 3212DOPE   D2B37698  31.206  15.140  11.483 -0.1505 -0.1067  0.1783
 3212DOPE   C3B37699  31.035  14.745  11.713  0.0868  0.1502  0.0636
 3212DOPE   C4B37700  30.825  14.405  11.978  0.2833  0.0141  0.0648
 3213POSM   NC337701  31.495  14.491  10.176 -0.1629 -0.2091  0.2138
 3213POSM   PO437702  31.755  14.362  10.469 -0.2864 -0.1064 -0.0050
 3213POSM   AM137703  31.584  14.143  10.675 -0.1901  0.2612  0.4435
 3213POSM   AM237704  31.507  14.087  10.930  0.0911  0.1733 -0.2217
 3213POSM   T1A37705  31.121  13.961  10.620 -0.0256  0.0096  0.0800
 3213POSM   C2A37706  30.704  13.862  10.637 -0.0506 -0.0788  0.1092
 3213POSM   C3A37707  30.311  14.032  10.514  0.0100 -0.0726  0.0326
 3213POSM   C1B37708  31.360  14.157  11.227  0.0978 -0.3949 -0.0766
 3213POSM   D2B37709  31.212  14.285  11.620  0.0880 -0.0477 -0.0102
 3213POSM   C3B37710  31.365  14.267  12.045  0.4317 -0.1451  0.3350
 3213POSM   C4B37711  31.201  14.260  12.490  0.1867 -0.1751  0.1252
 3214POSM   NC337712   0.373  14.050  11.158 -0.2259 -0.1078 -0.2916
 3214POSM   PO437713   0.470  13.738  10.888  0.0877  0.0355  0.3360
 3214POSM   AM137714   0.383  13.618  11.169 -0.0017 -0.0130 -0.1935
 3214POSM   AM237715   0.152  13.658  11.322 -0.1315 -0.0034  0.1528
 3214POSM   T1A37716   0.579  13.684  11.622  0.0095  0.2707  0.0235
 3214POSM   C2A37717   0.924  13.539  11.867  0.1332 -0.0103  0.0130
 3214POSM   C3A37718   1.272  13.249  11.968  0.1926 -0.0092 -0.2889
 3214POSM   C1B37719  -0.025  13.604  11.568  0.1640 -0.1355 -0.2153
 3214POSM   D2B37720  -0.221  13.559  12.045 -0.2410 -0.2436 -0.3464
 3214POSM   C3B37721  -0.264  13.816  12.427 -0.0488 -0.1832 -0.1169
 3214POSM   C4B37722  -0.009  14.170  12.653  0.1475  0.1795 -0.1206
 3215POSM   NC337723  24.829  23.640  10.831 -0.0358 -0.3333  0.0611
 3215POSM   PO437724  25.168  23.733  10.934 -0.0504 -0.0010 -0.0739
 3215POSM   AM137725  25.057  23.720  11.243 -0.2551  0.1686 -0.0467
 3215POSM   AM237726  25.168  23.763  11.498 -0.0131 -0.1903 -0.0320
 3215POSM   T1A37727  24.727  23.487  11.510  0.2228  0.1003 -0.1941
 3215POSM   C2A37728  24.586  23.298  11.942  0.0671 -0.1103 -0.1469
 3215POSM   C3A37729  24.419  23.381  12.392 -0.1603 -0.1839  0.1805
 3215POSM   C1B37730  25.104  23.892  11.774 -0.1401 -0.1209  0.1199
 3215POSM   D2B37731  24.842  23.979  12.090  0.2931  0.0505 -0.0383
 3215POSM   C3B37732  24.791  23.703  12.451  0.0717  0.4196  0.2211
 3215POSM   C4B37733  24.724  23.409  12.765  0.1192  0.4640  0.0810
 3216POSM   NC337734  34.536  15.948  10.689 -0.0367  0.0260 -0.0080
 3216POSM   PO437735  34.631  16.332  10.827  0.1448  0.3427  0.0157
 3216POSM   AM137736  34.660  16.230  11.103 -0.1915 -0.1938  0.3854
 3216POSM   AM237737  34.851  16.282  11.292  0.0916  0.3675 -0.2040
 3216POSM   T1A37738  34.398  16.088  11.471  0.2349  0.1146 -0.0125
 3216POSM   C2A37739  34.028  16.121  11.764 -0.0615 -0.1259 -0.2615
 3216POSM   C3A37740  33.931  16.312  12.212  0.2117  0.1003 -0.1422
 3216POSM   C1B37741  34.972  16.309  11.621 -0.2668 -0.0503 -0.1084
 3216POSM   D2B37742  34.884  16.365  12.083  0.1198 -0.1808 -0.0752
 3216POSM   C3B37743  35.103  16.487  12.435 -0.3567 -0.2039 -0.1564
 3216POSM   C4B37744  35.533  16.620  12.552  0.0736  0.0825 -0.0168
 3217DOPC   NC337745  28.689  19.617  10.633 -0.1405  0.1416 -0.1505
 3217DOPC   PO437746  28.696  20.017  10.618 -0.2190  0.2609  0.1086
 3217DOPC   GL137747  28.851  19.981  11.063 -0.0287  0.1558 -0.0119
 3217DOPC   GL237748  28.805  19.819  11.159  0.2688 -0.1677 -0.1592
 3217DOPC   C1A37749  29.027  20.070  11.478 -0.1655 -0.0379 -0.0155
 3217DOPC   D2A37750  29.328  20.079  11.871  0.0786  0.1816 -0.3957
 3217DOPC   C3A37751  29.766  20.070  11.952  0.1992  0.0366  0.1098
 3217DOPC   C4A37752  30.216  20.111  12.012 -0.0584  0.0562 -0.1443
 3217DOPC   C1B37753  28.848  19.340  11.260  0.0356  0.1890  0.0244
 3217DOPC   D2B37754  28.951  19.065  11.635  0.3972 -0.0152  0.0770
 3217DOPC   C3B37755  28.790  18.646  11.514  0.0061 -0.2004 -0.1144
 3217DOPC   C4B37756  28.916  18.281  11.824  0.1147 -0.0356 -0.2563
 3218DOPC   NC337757  31.556  13.187  10.678  0.1305 -0.0051 -0.1242
 3218DOPC   PO437758  31.589  13.575  10.724 -0.1603  0.0690 -0.0241
 3218DOPC   GL137759  31.581  13.517  11.107  0.0551  0.1607  0.1123
 3218DOPC   GL237760  31.657  13.706  11.305 -0.1326 -0.2737  0.4282
 3218DOPC   C1A37761  31.380  13.256  11.433 -0.1859 -0.0655 -0.1071
 3218DOPC   D2A37762  31.389  13.400  11.830 -0.0835 -0.0535 -0.2876
 3218DOPC   C3A37763  31.220  13.234  12.264  0.0401 -0.0068  0.1495
 3218DOPC   C4A37764  30.962  13.187  12.635  0.2185 -0.3041  0.1539
 3218DOPC   C1B37765  31.985  13.386  11.244 -0.0643  0.1468 -0.1633
 3218DOPC   D2B37766  32.233  12.985  11.355 -0.2305 -0.2658  0.0913
 3218DOPC   C3B37767  32.246  13.056  11.813 -0.0655  0.1168  0.0152
 3218DOPC   C4B37768  32.277  13.400  12.108 -0.3904  0.1937 -0.2772
 3219DOPE   NH337769  30.959  19.609  10.721 -0.1120 -0.1078  0.1123
 3219DOPE   PO437770  31.260  19.707  10.721  0.0542 -0.1430 -0.1164
 3219DOPE   GL137771  31.099  19.661  11.120 -0.1222  0.2180  0.1303
 3219DOPE   GL237772  30.909  19.803  11.191 -0.1316 -0.2682 -0.1843
 3219DOPE   C1A37773  31.280  19.650  11.582  0.0881 -0.0649  0.3253
 3219DOPE   D2A37774  30.998  19.520  11.946 -0.0973  0.1432 -0.3749
 3219DOPE   C3A37775  31.096  19.660  12.358  0.0423 -0.0357 -0.2687
 3219DOPE   C4A37776  31.403  19.586  12.743  0.1640 -0.0916  0.0149
 3219DOPE   C1B37777  30.843  19.881  11.648  0.2906 -0.2035  0.3524
 3219DOPE   D2B37778  30.505  19.755  11.903  0.2017  0.2335  0.2174
 3219DOPE   C3B37779  30.610  19.908  12.336  0.1461 -0.1899 -0.0122
 3219DOPE   C4B37780  30.798  20.090  12.729  0.1955  0.2796  0.0687
 3220DOPC   NC337781  33.325  18.687  11.082 -0.0730  0.2842 -0.2989
 3220DOPC   PO437782  32.917  18.567  11.030 -0.0060 -0.0701 -0.1961
 3220DOPC   GL137783  32.802  18.658  11.490 -0.3155 -0.2235  0.0231
 3220DOPC   GL237784  32.869  18.368  11.586 -0.0735  0.1718 -0.3741
 3220DOPC   C1A37785  32.666  18.655  11.966  0.2305  0.1086 -0.0916
 3220DOPC   D2A37786  32.852  18.560  12.382  0.1099 -0.0405 -0.0590
 3220DOPC   C3A37787  32.816  18.845  12.774  0.3918 -0.2066  0.4702
 3220DOPC   C4A37788  32.872  19.199  13.042 -0.0577  0.2126 -0.1988
 3220DOPC   C1B37789  32.970  18.232  12.003  0.0366  0.1655  0.0659
 3220DOPC   D2B37790  33.358  18.156  12.187  0.0410  0.1799  0.3255
 3220DOPC   C3B37791  33.696  18.400  12.328 -0.2640  0.1065 -0.1205
 3220DOPC   C4B37792  33.910  18.449  12.727  0.3243 -0.2160 -0.1335
 3221DOPC   NC337793  32.628  19.504  10.586  0.3499 -0.1599  0.0512
 3221DOPC   PO437794  32.880  19.344  10.864 -0.0999 -0.1859  0.6697
 3221DOPC   GL137795  32.936  19.494  11.239  0.0481 -0.2772 -0.0007
 3221DOPC   GL237796  32.629  19.339  11.296  0.1481 -0.1554  0.0803
 3221DOPC   C1A37797  33.199  19.496  11.574  0.1413  0.1007  0.0787
 3221DOPC   D2A37798  33.356  19.265  11.953  0.0906  0.0530 -0.0887
 3221DOPC   C3A37799  33.509  19.397  12.367 -0.2478  0.2442 -0.0354
 3221DOPC   C4A37800  33.748  19.379  12.764  0.2278  0.0329 -0.0060
 3221DOPC   C1B37801  32.666  19.692  11.549 -0.1871 -0.1217  0.2720
 3221DOPC   D2B37802  32.802  19.947  11.896 -0.0070  0.0960 -0.4035
 3221DOPC   C3B37803  33.065  19.809  12.207  0.2295  0.0452 -0.2711
 3221DOPC   C4B37804  33.292  19.842  12.596 -0.0994 -0.1037 -0.1334
 3222DOPS   CNO37805  30.754  21.964  10.906 -0.0938  0.1690  0.3940
 3222DOPS   PO437806  30.530  21.876  11.194 -0.1418 -0.0416  0.3577
 3222DOPS   GL137807  30.696  21.870  11.540  0.1435  0.2796 -0.3108
 3222DOPS   GL237808  30.567  22.102  11.644  0.0635  0.2071 -0.0068
 3222DOPS   C1A37809  30.970  21.897  11.919  0.0316  0.0347 -0.0196
 3222DOPS   D2A37810  31.024  22.083  12.402 -0.0368  0.0952 -0.1498
 3222DOPS   C3A37811  31.321  22.172  12.697  0.0333 -0.2420  0.0755
 3222DOPS   C4A37812  31.487  22.434  13.027 -0.2943  0.1263 -0.0503
 3222DOPS   C1B37813  30.634  22.232  12.083 -0.0698 -0.0663  0.0035
 3222DOPS   D2B37814  30.554  22.107  12.503 -0.2629 -0.1828 -0.2436
 3222DOPS   C3B37815  30.630  21.718  12.797 -0.0575 -0.1270 -0.1078
 3222DOPS   C4B37816  30.883  21.539  13.246 -0.0028  0.0175 -0.1273
 3223POSM   NC337817  34.745  19.337  10.196  0.1247 -0.0652  0.3041
 3223POSM   PO437818  34.557  19.103  10.440 -0.1306 -0.0191 -0.1213
 3223POSM   AM137819  34.673  19.101  10.765  0.0679 -0.0026  0.1254
 3223POSM   AM237820  34.536  18.952  10.964 -0.0278 -0.2306  0.3705
 3223POSM   T1A37821  34.863  19.301  11.167  0.2286  0.1098  0.0520
 3223POSM   C2A37822  35.045  19.476  11.571  0.0268  0.0217  0.2138
 3223POSM   C3A37823  35.018  19.476  12.049  0.1086  0.0280  0.0779
 3223POSM   C1B37824  34.476  18.997  11.287 -0.1563 -0.0021 -0.0874
 3223POSM   D2B37825  34.453  19.131  11.733  0.1494 -0.0824 -0.0713
 3223POSM   C3B37826  34.111  19.058  11.972  0.3429  0.0156  0.0627
 3223POSM   C4B37827  33.676  18.908  11.977  0.1179 -0.0666 -0.3598
 3224DOPS   CNO37828  31.366  19.162  10.684 -0.1005  0.0170 -0.1026
 3224DOPS   PO437829  31.197  18.844  10.809  0.2608  0.0390 -0.0702
 3224DOPS   GL137830  31.077  18.653  11.103 -0.0102  0.1134  0.1199
 3224DOPS   GL237831  30.849  18.429  11.036  0.3425 -0.0321  0.1233
 3224DOPS   C1A37832  30.693  18.750  11.378 -0.2636  0.0669  0.0336
 3224DOPS   D2A37833  30.377  18.871  11.661  0.2091  0.0753  0.2011
 3224DOPS   C3A37834  30.560  19.259  11.861 -0.2475 -0.1941  0.1686
 3224DOPS   C4A37835  30.669  19.374  12.297  0.0835  0.2332  0.0040
 3224DOPS   C1B37836  30.964  18.251  11.512 -0.4198 -0.0913 -0.0998
 3224DOPS   D2B37837  30.901  18.566  11.819 -0.5769 -0.0426  0.1579
 3224DOPS   C3B37838  30.616  18.561  12.179 -0.1736  0.1378  0.2003
 3224DOPS   C4B37839  30.391  18.941  12.208  0.1940  0.0274  0.0087
 3225POSM   NC337840  28.470  18.155  10.565 -0.1621  0.2839 -0.0262
 3225POSM   PO437841  28.435  18.500  10.431 -0.0650  0.1215 -0.0518
 3225POSM   AM137842  28.425  18.587  10.786  0.0629  0.0402  0.2205
 3225POSM   AM237843  28.478  18.840  10.964 -0.2217 -0.0589  0.1589
 3225POSM   T1A37844  28.377  18.395  11.260 -0.2068  0.0752  0.1629
 3225POSM   C2A37845  28.472  18.015  11.482  0.0501 -0.0901  0.0131
 3225POSM   C3A37846  28.819  17.761  11.660 -0.0553 -0.0000  0.3510
 3225POSM   C1B37847  28.398  18.916  11.284  0.3100 -0.3202 -0.0718
 3225POSM   D2B37848  28.354  18.987  11.734 -0.1436  0.0628 -0.1504
 3225POSM   C3B37849  28.594  19.286  11.914  0.1794 -0.0148 -0.0661
 3225POSM   C4B37850  28.848  19.526  12.240  0.0189  0.1051  0.1724
 3226DOPC   NC337851  25.654  20.890  10.878  0.0440 -0.0295 -0.3334
 3226DOPC   PO437852  26.025  21.035  10.973  0.2498  0.1403 -0.0836
 3226DOPC   GL137853  26.096  20.761  11.296 -0.0739 -0.0557 -0.2512
 3226DOPC   GL237854  25.857  20.730  11.343  0.3782 -0.1845 -0.1544
 3226DOPC   C1A37855  26.240  20.349  11.433  0.1819 -0.3607 -0.0217
 3226DOPC   D2A37856  26.505  20.064  11.594  0.1263 -0.0681 -0.3513
 3226DOPC   C3A37857  26.322  20.133  11.999  0.0667  0.2630  0.1638
 3226DOPC   C4A37858  26.434  20.197  12.424  0.3598 -0.1448  0.0831
 3226DOPC   C1B37859  25.756  20.745  11.802  0.0454 -0.0750  0.0288
 3226DOPC   D2B37860  25.751  20.900  12.257  0.3898 -0.0599 -0.1224
 3226DOPC   C3B37861  26.089  21.087  12.469  0.2063  0.2092 -0.4572
 3226DOPC   C4B37862  26.279  21.340  12.816  0.2654  0.1322  0.0603
 3227DOPC   NC337863  34.760  12.967  10.851 -0.0431  0.0677  0.3395
 3227DOPC   PO437864  34.938  13.209  11.097  0.1853 -0.1337 -0.1088
 3227DOPC   GL137865  34.835  13.176  11.433  0.1905  0.0783  0.2599
 3227DOPC   GL237866  35.153  13.191  11.574  0.2528 -0.0830  0.1870
 3227DOPC   C1A37867  34.926  12.849  11.819  0.1935 -0.1049  0.0954
 3227DOPC   D2A37868  35.171  12.788  12.184  0.0124  0.0675 -0.1685
 3227DOPC   C3A37869  34.863  12.630  12.460 -0.0768  0.1092  0.0791
 3227DOPC   C4A37870  34.505  12.665  12.753 -0.0933  0.3625 -0.1767
 3227DOPC   C1B37871  35.141  13.322  12.012  0.2548  0.1799  0.2339
 3227DOPC   D2B37872  35.466  13.609  12.328 -0.2985  0.1606  0.0089
 3227DOPC   C3B37873  35.260  14.093  12.353 -0.0368 -0.0126 -0.0229
 3227DOPC   C4B37874  34.952  14.427  12.272  0.0795  0.1383 -0.0990
 3228DOPC   NC337875  26.417  11.502  11.057  0.0963 -0.0592  0.1709
 3228DOPC   PO437876  26.782  11.602  10.964  0.0776 -0.3339  0.0577
 3228DOPC   GL137877  27.083  11.442  11.115 -0.4058 -0.1960  0.1117
 3228DOPC   GL237878  27.360  11.545  11.200 -0.0675 -0.2865 -0.0842
 3228DOPC   C1A37879  27.125  11.120  11.402 -0.0349  0.1929  0.1464
 3228DOPC   D2A37880  27.284  10.923  11.814 -0.3726 -0.0922 -0.0615
 3228DOPC   C3A37881  27.569  11.011  12.194 -0.1144 -0.0549 -0.1344
 3228DOPC   C4A37882  27.814  11.080  12.561  0.0893 -0.1121  0.1367
 3228DOPC   C1B37883  27.223  11.528  11.606  0.2215 -0.2462  0.1526
 3228DOPC   D2B37884  27.159  11.362  12.035  0.2158 -0.5041 -0.0563
 3228DOPC   C3B37885  27.274  11.373  12.507  0.0720 -0.0764  0.0150
 3228DOPC   C4B37886  27.375  11.460  12.920  0.0044 -0.0898  0.1392
 3229POSM   NC337887  30.877  21.198  11.313 -0.1444 -0.1020 -0.1647
 3229POSM   PO437888  30.971  21.590  11.328 -0.3815 -0.0906  0.1117
 3229POSM   AM137889  31.072  21.506  11.630 -0.0071  0.4659  0.0742
 3229POSM   AM237890  31.275  21.478  11.765 -0.1196  0.0391  0.2110
 3229POSM   T1A37891  30.946  21.212  12.065  0.0678 -0.2842  0.1249
 3229POSM   C2A37892  30.908  21.144  12.546 -0.1429  0.0480 -0.1409
 3229POSM   C3A37893  30.675  21.153  12.933  0.1048 -0.1119  0.2806
 3229POSM   C1B37894  31.304  21.592  12.071  0.2088 -0.2207 -0.3076
 3229POSM   D2B37895  31.541  21.662  12.454  0.1106 -0.1584  0.2132
 3229POSM   C3B37896  31.354  21.513  12.828  0.2753 -0.1590  0.1585
 3229POSM   C4B37897  31.595  21.489  13.210 -0.1394  0.0325 -0.0916
 3230POSM   NC337898  29.481  15.841  10.057  0.1122  0.2404  0.0581
 3230POSM   PO437899  29.457  15.479  10.163  0.1243  0.0509 -0.1358
 3230POSM   AM137900  29.346  15.497  10.478  0.1772  0.1077 -0.0940
 3230POSM   AM237901  29.494  15.548  10.692  0.2396 -0.0361  0.1152
 3230POSM   T1A37902  29.001  15.546  10.891 -0.1896 -0.1270 -0.1407
 3230POSM   C2A37903  28.999  15.458  11.367  0.0975  0.0675 -0.0665
 3230POSM   C3A37904  29.148  15.133  11.701  0.1478  0.1862 -0.1969
 3230POSM   C1B37905  29.446  15.478  11.034 -0.0977 -0.1314  0.3448
 3230POSM   D2B37906  29.498  15.412  11.481 -0.0406 -0.2048 -0.1173
 3230POSM   C3B37907  29.467  15.451  11.956  0.2420 -0.4734  0.3322
 3230POSM   C4B37908  29.680  15.218  12.307 -0.0057  0.0747  0.2424
 3231DOPE   NH337909  32.238  20.272  10.971 -0.0218  0.1221  0.0377
 3231DOPE   PO437910  32.520  20.281  11.121  0.0623 -0.4800 -0.2168
 3231DOPE   GL137911  32.419  20.396  11.548 -0.2723  0.0301  0.3926
 3231DOPE   GL237912  32.172  20.452  11.452  0.0681  0.0610  0.4956
 3231DOPE   C1A37913  32.357  20.331  12.002 -0.0763 -0.0852  0.2090
 3231DOPE   D2A37914  32.440  20.199  12.463  0.1730  0.1219 -0.0350
 3231DOPE   C3A37915  32.742  19.898  12.565 -0.0036 -0.3168  0.0592
 3231DOPE   C4A37916  32.942  19.465  12.559  0.1546 -0.2726 -0.0518
 3231DOPE   C1B37917  31.949  20.306  11.733 -0.0277 -0.1011  0.0816
 3231DOPE   D2B37918  31.610  20.304  12.046 -0.1800  0.1132  0.3289
 3231DOPE   C3B37919  31.433  20.051  12.391  0.0328  0.2391 -0.0925
 3231DOPE   C4B37920  31.267  20.056  12.765  0.2043 -0.2602 -0.1085
 3232DOPS   CNO37921   1.512  18.427   9.727 -0.0508  0.0769 -0.2121
 3232DOPS   PO437922   1.747  18.519  10.037 -0.0426  0.4564 -0.2282
 3232DOPS   GL137923   1.790  18.420  10.363 -0.1592  0.1751 -0.0559
 3232DOPS   GL237924   1.708  18.159  10.562 -0.0164 -0.1580 -0.2153
 3232DOPS   C1A37925   1.737  18.615  10.802 -0.1523  0.1852 -0.1192
 3232DOPS   D2A37926   1.647  18.782  11.205 -0.1925  0.0265  0.2011
 3232DOPS   C3A37927   1.727  18.523  11.638 -0.2430  0.1702 -0.4731
 3232DOPS   C4A37928   1.777  18.570  12.129  0.1451  0.0446 -0.1604
 3232DOPS   C1B37929   2.056  17.988  10.439 -0.2825  0.0314  0.2258
 3232DOPS   D2B37930   2.476  17.877  10.578 -0.2308  0.1222  0.1312
 3232DOPS   C3B37931   2.485  18.041  11.015  0.1893 -0.1976 -0.0413
 3232DOPS   C4B37932   2.747  18.206  11.380 -0.1072  0.0037  0.0726
 3233DOPE   NH337933  34.078  22.555  10.373 -0.2175  0.1753  0.1256
 3233DOPE   PO437934  34.021  22.563  10.728 -0.0472 -0.2717  0.2132
 3233DOPE   GL137935  34.287  22.440  10.940  0.4444 -0.0025 -0.1136
 3233DOPE   GL237936  34.269  22.159  10.872  0.1142 -0.1348  0.0697
 3233DOPE   C1A37937  34.379  22.650  11.357 -0.0400  0.1359 -0.2234
 3233DOPE   D2A37938  34.223  22.686  11.803  0.0258  0.0401 -0.0316
 3233DOPE   C3A37939  34.432  22.867  12.204  0.1021 -0.1092 -0.0314
 3233DOPE   C4A37940  34.574  23.233  12.447  0.0655 -0.0288 -0.1576
 3233DOPE   C1B37941  34.592  21.974  11.158  0.1791  0.1758 -0.0852
 3233DOPE   D2B37942  34.887  21.728  11.384 -0.1741 -0.2264 -0.1350
 3233DOPE   C3B37943  35.343  21.679  11.295  0.1473 -0.1416  0.0882
 3233DOPE   C4B37944  35.681  21.711  11.547 -0.0018  0.1222  0.0745
 3234DOPC   NC337945  26.568  17.081  10.372 -0.2288 -0.0655  0.1013
 3234DOPC   PO437946  26.371  16.949  10.082 -0.1678 -0.0960 -0.1210
 3234DOPC   GL137947  26.197  16.848  10.481 -0.2798  0.3242 -0.0557
 3234DOPC   GL237948  25.903  16.890  10.329  0.3343  0.0223  0.3250
 3234DOPC   C1A37949  25.878  16.756  10.840  0.0435 -0.0723  0.3552
 3234DOPC   D2A37950  25.753  16.946  11.265 -0.2066  0.1729 -0.1606
 3234DOPC   C3A37951  25.299  16.937  11.398  0.1504 -0.0310 -0.4769
 3234DOPC   C4A37952  24.883  16.993  11.507 -0.0220 -0.1753 -0.1423
 3234DOPC   C1B37953  25.461  16.860  10.481 -0.1200  0.0130  0.1489
 3234DOPC   D2B37954  25.149  16.512  10.362  0.3570  0.1495  0.0073
 3234DOPC   C3B37955  24.917  16.099  10.553  0.1108 -0.0682  0.1168
 3234DOPC   C4B37956  24.617  16.021  10.848 -0.5184 -0.1270 -0.1121
 3235DOPC   NC337957  29.308  13.534   9.647 -0.0070  0.1736 -0.3928
 3235DOPC   PO437958  29.486  13.585   9.979  0.0335  0.0276  0.1625
 3235DOPC   GL137959  29.356  13.606  10.373 -0.1185 -0.3137 -0.0837
 3235DOPC   GL237960  29.079  13.646  10.532 -0.1551  0.0021  0.2813
 3235DOPC   C1A37961  29.412  13.350  10.763 -0.0120  0.0958 -0.1289
 3235DOPC   D2A37962  29.333  13.075  11.143  0.1812  0.0280 -0.1707
 3235DOPC   C3A37963  29.399  13.226  11.623 -0.0470 -0.0090  0.1972
 3235DOPC   C4A37964  29.359  13.309  12.072  0.2006 -0.4346 -0.0248
 3235DOPC   C1B37965  28.697  13.716  10.835 -0.1852  0.2500 -0.0312
 3235DOPC   D2B37966  28.247  13.561  10.930  0.3049 -0.0107 -0.1310
 3235DOPC   C3B37967  28.050  13.194  11.168 -0.0531 -0.2388 -0.2592
 3235DOPC   C4B37968  28.000  12.810  11.434 -0.1394 -0.3560 -0.4104
 3236POSM   NC337969   1.237  19.609  10.431  0.1453 -0.1980  0.3585
 3236POSM   PO437970   1.259  19.210  10.265  0.1536  0.0077  0.2369
 3236POSM   AM137971   1.317  19.163  10.565 -0.0024  0.1956 -0.3199
 3236POSM   AM237972   1.556  19.128  10.732  0.1225 -0.5698 -0.3557
 3236POSM   T1A37973   1.202  19.174  11.059 -0.0305  0.0853 -0.1298
 3236POSM   C2A37974   1.399  19.188  11.502  0.2965 -0.1673  0.0829
 3236POSM   C3A37975   1.608  19.317  11.857  0.1656  0.0603 -0.2126
 3236POSM   C1B37976   1.762  19.212  10.997 -0.0403 -0.2849  0.0748
 3236POSM   D2B37977   1.891  19.367  11.432 -0.0172  0.1595 -0.3842
 3236POSM   C3B37978   2.316  19.247  11.662 -0.0488 -0.1599  0.1805
 3236POSM   C4B37979   2.391  19.157  12.126  0.0281 -0.1483  0.2243
 3237POSM   NC337980  25.922  22.747  11.441 -0.0035 -0.1421  0.1403
 3237POSM   PO437981  26.180  22.948  11.687 -0.2166 -0.0430 -0.1984
 3237POSM   AM137982  26.192  22.766  11.983 -0.0348 -0.0753 -0.0236
 3237POSM   AM237983  26.107  22.521  11.999  0.0688  0.0865 -0.1440
 3237POSM   T1A37984  26.281  22.707  12.458 -0.2252 -0.0742  0.0639
 3237POSM   C2A37985  26.498  22.760  12.885  0.0079 -0.0128  0.1337
 3237POSM   C3A37986  26.823  22.792  13.234  0.2267  0.5550  0.1072
 3237POSM   C1B37987  26.096  22.300  12.275 -0.1977  0.1033 -0.0385
 3237POSM   D2B37988  25.854  22.099  12.630 -0.0366  0.0101  0.1327
 3237POSM   C3B37989  25.423  22.216  12.740  0.2710 -0.3157  0.0681
 3237POSM   C4B37990  25.131  22.441  12.911 -0.3448  0.0972  0.3237
 3238DOPS   CNO37991  33.704  16.105  11.000 -0.0937  0.0722  0.1711
 3238DOPS   PO437992  33.693  16.160  11.378  0.0128  0.1753 -0.0598
 3238DOPS   GL137993  33.512  16.129  11.715  0.1027 -0.2132  0.3304
 3238DOPS   GL237994  33.597  15.961  11.888  0.1442 -0.2190 -0.0922
 3238DOPS   C1A37995  33.477  16.418  12.049  0.1672 -0.1331 -0.1804
 3238DOPS   D2A37996  33.293  16.756  12.242  0.0708 -0.0283 -0.1810
 3238DOPS   C3A37997  33.581  16.653  12.521  0.2556 -0.3798 -0.2531
 3238DOPS   C4A37998  33.847  16.858  12.865 -0.0307 -0.3863  0.1666
 3238DOPS   C1B37999  33.627  15.890  12.311 -0.0681  0.0273  0.1529
 3238DOPS   D2B38000  33.602  16.119  12.704 -0.0777 -0.2357 -0.0290
 3238DOPS   C3B38001  33.457  15.839  13.046  0.3309 -0.1327  0.3067
 3238DOPS   C4B38002  33.590  15.894  13.509  0.1822 -0.1226  0.2874
 3239POSM   NC338003  29.345  11.290  10.812  0.0354  0.0292  0.0183
 3239POSM   PO438004  28.993  11.240  10.691  0.1451 -0.0881 -0.2932
 3239POSM   AM138005  28.911  11.435  10.978 -0.2482  0.1169  0.1162
 3239POSM   AM238006  28.878  11.708  11.006 -0.1562 -0.0364 -0.0167
 3239POSM   T1A38007  28.815  11.451  11.483  0.1703 -0.0957 -0.1732
 3239POSM   C2A38008  28.887  11.539  11.953 -0.0237  0.3439 -0.1005
 3239POSM   C3A38009  29.288  11.551  12.165 -0.4957  0.2130 -0.1821
 3239POSM   C1B38010  28.978  11.952  11.222  0.1073  0.0432 -0.2911
 3239POSM   D2B38011  29.259  12.125  11.554  0.0519  0.1958  0.0874
 3239POSM   C3B38012  29.192  12.029  12.046  0.1598  0.0288  0.5991
 3239POSM   C4B38013  28.826  11.943  12.367 -0.0627 -0.4393 -0.2919
 3240DOPE   NH338014  30.190  21.601  11.052  0.1043  0.3933  0.1193
 3240DOPE   PO438015  30.111  21.298  11.101  0.3072  0.0525  0.0590
 3240DOPE   GL138016  29.967  21.432  11.430  0.1624  0.0060 -0.2573
 3240DOPE   GL238017  29.783  21.269  11.532 -0.0401 -0.3059  0.0933
 3240DOPE   C1A38018  30.017  21.497  11.904 -0.0881 -0.0550 -0.1206
 3240DOPE   D2A38019  30.152  21.656  12.334  0.0174 -0.0396  0.1137
 3240DOPE   C3A38020  30.384  21.264  12.488  0.0668  0.0272  0.0811
 3240DOPE   C4A38021  30.318  20.813  12.666  0.0106  0.0626 -0.2000
 3240DOPE   C1B38022  29.685  21.099  11.957  0.0445  0.2343  0.0955
 3240DOPE   D2B38023  29.809  21.071  12.408  0.1752  0.0123 -0.1355
 3240DOPE   C3B38024  29.673  20.857  12.748  0.0525 -0.1353 -0.1251
 3240DOPE   C4B38025  29.982  20.517  12.903  0.1527 -0.1376 -0.1717
 3241DOPE   NH338026  27.500  12.639  10.157 -0.1350 -0.1762 -0.2360
 3241DOPE   PO438027  27.263  12.860  10.100  0.0915 -0.0226 -0.0028
 3241DOPE   GL138028  27.260  13.074  10.414  0.2370 -0.0062 -0.0618
 3241DOPE   GL238029  27.365  12.866  10.579 -0.0242 -0.2891  0.3128
 3241DOPE   C1A38030  26.986  13.056  10.808 -0.0294  0.4455 -0.1451
 3241DOPE   D2A38031  26.944  12.873  11.248 -0.2243  0.0270  0.2353
 3241DOPE   C3A38032  27.101  12.832  11.664  0.1383  0.0361 -0.0445
 3241DOPE   C4A38033  27.254  12.656  12.054  0.1925  0.0293 -0.0269
 3241DOPE   C1B38034  27.179  12.517  10.826 -0.1485 -0.1815  0.1360
 3241DOPE   D2B38035  27.124  12.108  11.082 -0.0507 -0.0414  0.0805
 3241DOPE   C3B38036  27.532  12.024  11.366 -0.0000 -0.2650 -0.3539
 3241DOPE   C4B38037  27.651  11.787  11.717 -0.1888  0.2865 -0.5816
 3242DOPE   NH338038  27.949  12.885  10.085 -0.0056 -0.2977 -0.0759
 3242DOPE   PO438039  27.762  13.097  10.232  0.4874  0.0131 -0.3899
 3242DOPE   GL138040  27.715  13.219  10.641  0.1308 -0.1136 -0.1754
 3242DOPE   GL238041  27.771  13.551  10.616  0.2033  0.2805  0.2155
 3242DOPE   C1A38042  27.392  13.328  10.928 -0.3862 -0.3214  0.0120
 3242DOPE   D2A38043  27.064  13.637  11.098 -0.0737  0.0694 -0.0518
 3242DOPE   C3A38044  27.085  13.823  11.495 -0.1439 -0.1661 -0.1351
 3242DOPE   C4A38045  27.121  13.884  11.941  0.0258 -0.0668 -0.0691
 3242DOPE   C1B38046  27.773  13.589  11.067 -0.1349  0.1377 -0.0285
 3242DOPE   D2B38047  27.644  13.546  11.513 -0.3092  0.0076  0.0339
 3242DOPE   C3B38048  27.757  13.224  11.761 -0.1086  0.1625 -0.2888
 3242DOPE   C4B38049  27.673  13.112  12.215 -0.2505 -0.1302 -0.3295
 3243DOPS   CNO38050  30.333  10.872  10.212  0.0936  0.3205  0.1356
 3243DOPS   PO438051  30.568  10.905  10.507 -0.2170 -0.0223 -0.0712
 3243DOPS   GL138052  30.676  10.920  10.874 -0.3766  0.0184  0.3860
 3243DOPS   GL238053  30.568  10.706  11.043  0.2393  0.2554 -0.1039
 3243DOPS   C1A38054  30.819  11.149  11.222  0.0201  0.0868 -0.2777
 3243DOPS   D2A38055  31.147  11.002  11.516  0.2059  0.0567  0.0753
 3243DOPS   C3A38056  31.308  11.083  11.988 -0.3801 -0.2607  0.1676
 3243DOPS   C4A38057  31.459  11.159  12.428  0.0564  0.0767 -0.1644
 3243DOPS   C1B38058  30.750  10.736  11.465  0.0302  0.0758  0.0707
 3243DOPS   D2B38059  30.844  10.747  11.915  0.2730 -0.2265  0.1510
 3243DOPS   C3B38060  30.909  10.759  12.348 -0.0316 -0.0205  0.2246
 3243DOPS   C4B38061  30.953  11.042  12.696 -0.0199  0.0852 -0.1157
 3244POSM   NC338062  32.014  16.344  10.930 -0.3437  0.0206 -0.0490
 3244POSM   PO438063  32.432  16.258  10.914  0.0705 -0.0078 -0.1644
 3244POSM   AM138064  32.424  16.122  11.210 -0.0595 -0.1667 -0.1753
 3244POSM   AM238065  32.620  15.987  11.393 -0.0635  0.1919  0.3058
 3244POSM   T1A38066  32.206  16.181  11.681  0.0293  0.0839  0.0493
 3244POSM   C2A38067  31.963  16.335  12.037  0.0189 -0.1680 -0.0502
 3244POSM   C3A38068  31.780  16.126  12.443 -0.3156 -0.0674  0.0404
 3244POSM   C1B38069  32.441  15.717  11.544 -0.0933  0.1137  0.3314
 3244POSM   D2B38070  32.030  15.480  11.474  0.1162  0.1520  0.1470
 3244POSM   C3B38071  31.991  15.106  11.690  0.1574 -0.0788  0.1289
 3244POSM   C4B38072  31.545  14.905  11.805  0.0526 -0.1737 -0.1168
 3245POSM   NC338073   0.825  16.832  10.531  0.0895  0.0542 -0.1215
 3245POSM   PO438074   0.573  16.525  10.602  0.2748  0.1698 -0.3469
 3245POSM   AM138075   0.681  16.401  10.856  0.2812 -0.1257 -0.5198
 3245POSM   AM238076   0.633  16.177  10.999 -0.3601  0.0568 -0.0759
 3245POSM   T1A38077   1.065  16.483  11.171 -0.0547  0.0858  0.1297
 3245POSM   C2A38078   1.378  16.368  11.493 -0.3140  0.2188  0.0941
 3245POSM   C3A38079   1.844  16.330  11.561 -0.1554  0.0147 -0.0003
 3245POSM   C1B38080   0.579  16.375  11.275 -0.2120  0.0686 -0.0335
 3245POSM   D2B38081   0.832  16.668  11.554 -0.0144  0.2022 -0.0736
 3245POSM   C3B38082   0.954  16.700  12.035  0.1964  0.0149  0.1306
 3245POSM   C4B38083   1.225  17.037  12.266  0.3695  0.2019 -0.0337
 3246DOPE   NH338084  33.992  15.164  11.033 -0.3752 -0.0250 -0.0861
 3246DOPE   PO438085  33.998  14.881  10.970  0.2286 -0.2546 -0.2850
 3246DOPE   GL138086  33.976  14.869  11.421 -0.2730 -0.1391 -0.0643
 3246DOPE   GL238087  34.034  15.140  11.505 -0.3669  0.0723 -0.0087
 3246DOPE   C1A38088  33.973  14.585  11.726 -0.3174 -0.0084  0.1864
 3246DOPE   D2A38089  33.999  14.443  12.094 -0.0054  0.2258 -0.1747
 3246DOPE   C3A38090  33.823  14.529  12.479 -0.3445  0.3925  0.2125
 3246DOPE   C4A38091  34.052  14.851  12.817  0.0587 -0.0569  0.0520
 3246DOPE   C1B38092  34.129  15.156  11.968 -0.2747 -0.1273  0.0461
 3246DOPE   D2B38093  34.158  15.063  12.443  0.0086  0.3140  0.0466
 3246DOPE   C3B38094  34.508  14.820  12.476  0.3004  0.0490 -0.0241
 3246DOPE   C4B38095  34.902  14.683  12.695 -0.0878  0.0918 -0.0058
 3247DOPS   CNO38096  24.470  27.997  11.382 -0.0892 -0.1544 -0.0603
 3247DOPS   PO438097  24.339  27.819  11.660  0.0894 -0.0148 -0.1018
 3247DOPS   GL138098  24.065  27.636  11.878 -0.2047 -0.2575  0.1775
 3247DOPS   GL238099  23.840  27.864  11.893 -0.3512  0.0194 -0.0068
 3247DOPS   C1A38100  23.860  27.188  11.945 -0.2110  0.0189  0.1656
 3247DOPS   D2A38101  23.500  26.894  12.022  0.3224  0.0937 -0.1389
 3247DOPS   C3A38102  23.246  26.803  12.445  0.2531 -0.3475  0.0471
 3247DOPS   C4A38103  22.932  26.942  12.708 -0.0395  0.2407 -0.2674
 3247DOPS   C1B38104  23.471  27.825  12.266  0.2156 -0.2760 -0.2640
 3247DOPS   D2B38105  23.518  27.780  12.709 -0.0852 -0.1107  0.0706
 3247DOPS   C3B38106  23.887  27.999  12.975  0.2802  0.1218  0.2337
 3247DOPS   C4B38107  24.333  27.873  13.123 -0.4844 -0.1305 -0.0316
 3248DOPE   NH338108  31.776  19.010  10.841 -0.1756  0.0959 -0.1305
 3248DOPE   PO438109  31.960  18.749  10.783  0.1364 -0.5418 -0.0859
 3248DOPE   GL138110  31.971  18.621  11.143 -0.0362 -0.0826  0.2552
 3248DOPE   GL238111  31.861  18.378  11.248 -0.0477 -0.0323 -0.0895
 3248DOPE   C1A38112  31.833  18.833  11.573  0.1557 -0.1541 -0.2395
 3248DOPE   D2A38113  31.555  19.227  11.741 -0.0803  0.3670 -0.0765
 3248DOPE   C3A38114  31.327  19.190  12.168 -0.0345 -0.2349 -0.0021
 3248DOPE   C4A38115  31.052  19.194  12.583 -0.3681 -0.2091  0.2320
 3248DOPE   C1B38116  31.948  18.255  11.722 -0.0290  0.0380 -0.2018
 3248DOPE   D2B38117  32.048  18.305  12.218  0.0207 -0.0701  0.0295
 3248DOPE   C3B38118  31.752  18.473  12.510 -0.2086 -0.0748  0.0720
 3248DOPE   C4B38119  31.396  18.778  12.444  0.0791 -0.0200 -0.3236
 3249POSM   NC338120  23.847  15.250   9.144 -0.2803 -0.0504 -0.0024
 3249POSM   PO438121  23.616  15.207   9.417 -0.0384 -0.2941 -0.2718
 3249POSM   AM138122  23.457  15.197   9.711  0.3930 -0.2406 -0.1883
 3249POSM   AM238123  23.187  15.122   9.763 -0.2163 -0.1786 -0.1614
 3249POSM   T1A38124  23.502  15.170  10.190  0.0829 -0.3927 -0.2693
 3249POSM   C2A38125  23.641  15.134  10.593 -0.0325 -0.2689  0.2400
 3249POSM   C3A38126  23.834  15.089  11.027 -0.0436  0.0096 -0.1545
 3249POSM   C1B38127  23.058  14.919  10.010 -0.6464 -0.3937  0.2780
 3249POSM   D2B38128  23.043  14.733  10.451  0.1964  0.3271  0.2747
 3249POSM   C3B38129  22.682  14.875  10.713  0.3540  0.1103  0.0124
 3249POSM   C4B38130  22.532  15.063  11.107  0.0907  0.1202 -0.1252
 3250POSM   NC338131  25.102  24.182  11.121 -0.0784 -0.0242  0.2508
 3250POSM   PO438132  25.473  24.124  11.204  0.1712  0.0885 -0.0356
 3250POSM   AM138133  25.467  24.098  11.520  0.0681  0.1965 -0.1914
 3250POSM   AM238134  25.615  24.211  11.753 -0.1688 -0.0686 -0.0610
 3250POSM   T1A38135  25.564  23.671  11.773 -0.1877 -0.3345 -0.2523
 3250POSM   C2A38136  25.813  23.505  12.111 -0.1051 -0.0618  0.0585
 3250POSM   C3A38137  26.015  23.129  12.246 -0.0010 -0.2920 -0.0187
 3250POSM   C1B38138  25.508  24.152  12.133  0.1837 -0.1347  0.0252
 3250POSM   D2B38139  25.211  24.044  12.460 -0.0160 -0.0439  0.0501
 3250POSM   C3B38140  25.533  24.120  12.824 -0.1160  0.0292 -0.1045
 3250POSM   C4B38141  25.970  24.194  12.996 -0.1655  0.1643  0.0599
 3251DOPC   NC338142  27.499  21.247  10.649  0.1198 -0.0077 -0.1306
 3251DOPC   PO438143  27.288  20.935  10.847  0.2470 -0.1686  0.0104
 3251DOPC   GL138144  27.127  20.919  11.250 -0.0090 -0.5996 -0.3843
 3251DOPC   GL238145  27.215  20.678  11.374 -0.3240 -0.0107 -0.1786
 3251DOPC   C1A38146  26.841  20.855  11.629  0.1663 -0.0806  0.1689
 3251DOPC   D2A38147  26.521  20.553  11.762  0.4652  0.0173  0.1153
 3251DOPC   C3A38148  26.254  20.744  12.074 -0.0666 -0.1552  0.0124
 3251DOPC   C4A38149  26.122  20.557  12.478 -0.3210 -0.1385 -0.1249
 3251DOPC   C1B38150  27.536  20.635  11.688  0.0478  0.1104 -0.2240
 3251DOPC   D2B38151  27.721  20.324  12.001 -0.1175  0.0762 -0.0744
 3251DOPC   C3B38152  27.364  20.064  12.181 -0.0860  0.2309  0.3257
 3251DOPC   C4B38153  27.208  19.686  12.075 -0.0550 -0.0101 -0.0497
 3252POSM   NC338154  22.871  23.771  10.557 -0.1266 -0.0184  0.1587
 3252POSM   PO438155  23.071  23.566  10.306 -0.1619  0.0260  0.0707
 3252POSM   AM138156  23.105  23.336  10.537  0.2242  0.1127  0.0218
 3252POSM   AM238157  23.223  23.243  10.752 -0.0951 -0.1314 -0.1658
 3252POSM   T1A38158  22.916  22.905  10.681 -0.3406  0.2679  0.0392
 3252POSM   C2A38159  22.825  22.471  10.587 -0.1479  0.3525  0.1493
 3252POSM   C3A38160  22.396  22.277  10.564  0.1221  0.4531  0.2652
 3252POSM   C1B38161  23.120  23.211  11.068  0.0316  0.2753  0.1019
 3252POSM   D2B38162  23.000  23.220  11.504  0.0108 -0.0958  0.2436
 3252POSM   C3B38163  22.995  23.021  11.870 -0.1095  0.0557  0.2818
 3252POSM   C4B38164  22.839  22.614  11.992  0.0727  0.0852 -0.1552
 3253DOPE   NH338165  28.036  12.233  10.290  0.1831 -0.2201 -0.0716
 3253DOPE   PO438166  27.915  12.483  10.371  0.5067 -0.0838 -0.0305
 3253DOPE   GL138167  27.785  12.747  10.548  0.0063  0.2330  0.1631
 3253DOPE   GL238168  28.057  12.842  10.674  0.2545  0.0530  0.2032
 3253DOPE   C1A38169  27.701  12.881  10.979 -0.1288  0.0834 -0.1446
 3253DOPE   D2A38170  27.502  13.050  11.373 -0.0009 -0.0596  0.0753
 3253DOPE   C3A38171  27.089  13.305  11.421  0.1163 -0.1923 -0.0514
 3253DOPE   C4A38172  26.772  13.505  11.731 -0.0314  0.0403  0.0796
 3253DOPE   C1B38173  28.227  12.631  11.024 -0.1007  0.0603  0.2758
 3253DOPE   D2B38174  28.538  12.526  11.369  0.0588 -0.0787 -0.1234
 3253DOPE   C3B38175  28.570  12.807  11.769  0.0734 -0.0409 -0.2621
 3253DOPE   C4B38176  28.603  13.081  12.174  0.0102 -0.1082 -0.1926
 3254DOPS   CNO38177  29.843  17.262  10.113 -0.2659  0.0499  0.0905
 3254DOPS   PO438178  29.499  17.283  10.267  0.0828  0.1389 -0.0501
 3254DOPS   GL138179  29.252  17.223  10.631 -0.0080 -0.1664  0.1218
 3254DOPS   GL238180  29.200  17.456  10.776  0.2220 -0.3162  0.2199
 3254DOPS   C1A38181  29.077  16.920  10.908  0.1086  0.2416  0.0344
 3254DOPS   D2A38182  28.988  16.784  11.375 -0.1530 -0.1137 -0.3430
 3254DOPS   C3A38183  28.992  16.355  11.550  0.0892 -0.1199 -0.0001
 3254DOPS   C4A38184  29.141  16.354  12.014  0.1383  0.0895  0.0005
 3254DOPS   C1B38185  29.488  17.165  11.025  0.1122  0.1818 -0.1066
 3254DOPS   D2B38186  29.828  17.241  11.425 -0.2265  0.3891 -0.1234
 3254DOPS   C3B38187  30.061  16.941  11.693  0.0444  0.0711  0.1264
 3254DOPS   C4B38188  30.266  16.559  11.905 -0.0590  0.2882  0.1361
 3255DOPC   NC338189  25.945  20.005  10.675  0.1079 -0.1698 -0.3730
 3255DOPC   PO438190  25.922  20.421  10.803 -0.1385 -0.0114  0.2373
 3255DOPC   GL138191  25.883  20.188  11.160 -0.0756 -0.2609  0.0699
 3255DOPC   GL238192  25.760  19.945  11.222  0.2364 -0.0128  0.2462
 3255DOPC   C1A38193  25.719  20.301  11.549  0.0973 -0.1691  0.1983
 3255DOPC   D2A38194  25.795  20.242  12.015 -0.1161 -0.2913 -0.3377
 3255DOPC   C3A38195  25.338  20.282  12.123  0.1897 -0.4086 -0.1062
 3255DOPC   C4A38196  25.130  20.358  12.478 -0.1195 -0.1797 -0.0225
 3255DOPC   C1B38197  25.482  19.872  11.650 -0.1807 -0.1570 -0.0109
 3255DOPC   D2B38198  25.415  19.470  11.920  0.4350  0.3230  0.0261
 3255DOPC   C3B38199  25.355  19.514  12.383 -0.2173 -0.3274 -0.0369
 3255DOPC   C4B38200  25.233  19.819  12.693  0.1005 -0.1374  0.0471
 3256DOPC   NC338201  31.812  20.909  11.205 -0.3164  0.0761  0.0827
 3256DOPC   PO438202  32.114  20.732  10.967  0.2122  0.4258  0.3254
 3256DOPC   GL138203  32.417  20.917  11.187  0.2058 -0.1604  0.0381
 3256DOPC   GL238204  32.603  20.775  11.357 -0.2179  0.3344 -0.3651
 3256DOPC   C1A38205  32.220  20.948  11.623  0.1990 -0.4980  0.2048
 3256DOPC   D2A38206  31.854  20.847  11.826 -0.0806  0.3096  0.1939
 3256DOPC   C3A38207  31.527  21.059  12.097 -0.2407 -0.3265  0.0731
 3256DOPC   C4A38208  31.388  21.153  12.494  0.0334 -0.0648  0.0306
 3256DOPC   C1B38209  32.990  20.984  11.593  0.2173  0.0279 -0.2543
 3256DOPC   D2B38210  33.216  21.014  11.998  0.0651 -0.1002  0.2677
 3256DOPC   C3B38211  33.263  20.808  12.386  0.0186  0.3559 -0.0314
 3256DOPC   C4B38212  33.646  20.721  12.677  0.0180  0.2250 -0.1286
 3257DOPC   NC338213  25.713  18.552  10.110  0.0523  0.0810  0.0979
 3257DOPC   PO438214  25.609  18.217  10.103  0.2084  0.2288 -0.1706
 3257DOPC   GL138215  25.743  18.411  10.523 -0.4027  0.1150  0.5734
 3257DOPC   GL238216  25.791  18.147  10.588  0.0406  0.0126 -0.1706
 3257DOPC   C1A38217  25.549  18.440  10.966  0.0347 -0.1727 -0.0985
 3257DOPC   D2A38218  25.759  18.436  11.357  0.0490 -0.1476 -0.5628
 3257DOPC   C3A38219  26.132  18.176  11.401  0.0965  0.2115 -0.0405
 3257DOPC   C4A38220  26.306  17.833  11.132 -0.0198 -0.0843  0.0967
 3257DOPC   C1B38221  25.815  17.959  11.032 -0.2339 -0.3311 -0.0683
 3257DOPC   D2B38222  25.684  17.869  11.420 -0.3871  0.4739  0.0505
 3257DOPC   C3B38223  25.768  18.151  11.784  0.1341 -0.1265 -0.2322
 3257DOPC   C4B38224  26.211  18.247  11.903 -0.2585  0.1340  0.1046
 3258DOPS   CNO38225  30.532  19.861  10.514 -0.1013 -0.2194 -0.2059
 3258DOPS   PO438226  30.464  19.744  10.866  0.0556 -0.2497  0.3667
 3258DOPS   GL138227  30.517  19.638  11.288  0.2451  0.0685  0.0732
 3258DOPS   GL238228  30.399  19.823  11.458 -0.2767 -0.1679  0.0115
 3258DOPS   C1A38229  30.874  19.381  11.462  0.1654  0.1406  0.0595
 3258DOPS   D2A38230  31.018  19.042  11.687 -0.1557 -0.1384 -0.0314
 3258DOPS   C3A38231  30.911  18.950  12.149 -0.0586 -0.0152 -0.0974
 3258DOPS   C4A38232  30.846  18.796  12.594  0.1925 -0.0825  0.0292
 3258DOPS   C1B38233  29.990  20.041  11.486  0.0863 -0.1506 -0.2165
 3258DOPS   D2B38234  29.837  20.482  11.568 -0.2156 -0.2499  0.0118
 3258DOPS   C3B38235  29.551  20.515  11.926  0.1399  0.1084 -0.0387
 3258DOPS   C4B38236  29.422  20.803  12.255  0.1624 -0.1975 -0.0846
 3259POSM   NC338237  29.563  10.352  10.420  0.1043 -0.0853 -0.0258
 3259POSM   PO438238  29.726  10.441  10.727  0.0095  0.2799 -0.1706
 3259POSM   AM138239  29.875  10.401  10.993  0.1424 -0.3058  0.3387
 3259POSM   AM238240  30.077  10.601  11.099 -0.3831  0.0939 -0.0925
 3259POSM   T1A38241  29.767  10.278  11.446  0.1463 -0.0158 -0.1612
 3259POSM   C2A38242  29.885  10.537  11.842  0.0540 -0.1389 -0.0039
 3259POSM   C3A38243  29.867  10.863  12.184 -0.2630  0.2498 -0.2109
 3259POSM   C1B38244  29.909  10.787  11.368 -0.0994  0.1377  0.0567
 3259POSM   D2B38245  29.788  11.159  11.641  0.1130  0.0672  0.2319
 3259POSM   C3B38246  29.736  11.356  12.064  0.0144  0.1349 -0.0401
 3259POSM   C4B38247  29.856  11.516  12.464  0.3826 -0.0204  0.0530
 3260POSM   NC338248  28.207  22.466  11.552  0.1838  0.1323  0.0787
 3260POSM   PO438249  28.343  22.177  11.346  0.1368 -0.0191  0.1366
 3260POSM   AM138250  28.296  21.988  11.610 -0.0706 -0.0706 -0.0184
 3260POSM   AM238251  28.476  21.867  11.812 -0.1820 -0.2185 -0.3460
 3260POSM   T1A38252  27.948  21.939  11.912 -0.1991 -0.1100 -0.1643
 3260POSM   C2A38253  27.656  21.904  12.285 -0.1691 -0.0782  0.3002
 3260POSM   C3A38254  27.377  22.010  12.603 -0.2731 -0.2400 -0.6092
 3260POSM   C1B38255  28.395  21.753  12.106 -0.0145  0.1299  0.1271
 3260POSM   D2B38256  28.059  21.585  12.393  0.1669 -0.0275  0.0421
 3260POSM   C3B38257  28.376  21.346  12.607  0.1506 -0.1970 -0.1311
 3260POSM   C4B38258  28.504  20.878  12.666 -0.1020  0.0395  0.1320
 3261DOPE   NH338259  26.425  17.730  10.171 -0.2509  0.1568 -0.0186
 3261DOPE   PO438260  26.358  17.460  10.104 -0.1124 -0.1513 -0.0322
 3261DOPE   GL138261  26.182  17.336  10.496 -0.0587 -0.1895 -0.1606
 3261DOPE   GL238262  25.905  17.295  10.571 -0.3102  0.0729  0.3829
 3261DOPE   C1A38263  26.380  17.090  10.904  0.2038 -0.0502 -0.2123
 3261DOPE   D2A38264  26.353  16.764  11.198  0.3540 -0.2338  0.1678
 3261DOPE   C3A38265  26.668  16.806  11.522 -0.2916  0.1234  0.0491
 3261DOPE   C4A38266  26.630  16.783  11.971  0.1532  0.1285 -0.0119
 3261DOPE   C1B38267  25.971  17.426  11.018  0.0304  0.0266  0.0051
 3261DOPE   D2B38268  26.066  17.572  11.471  0.3799 -0.3048  0.1119
 3261DOPE   C3B38269  26.415  17.770  11.690  0.3414 -0.0398  0.2595
 3261DOPE   C4B38270  26.596  17.915  12.026 -0.0656  0.5224  0.1148
 3262DOPC   NC338271  29.414   9.072  10.837 -0.3065 -0.2471 -0.0454
 3262DOPC   PO438272  29.352   9.361  11.093 -0.1855  0.0373  0.0112
 3262DOPC   GL138273  29.423   9.472  11.402 -0.4598  0.1139  0.0193
 3262DOPC   GL238274  29.303   9.308  11.637 -0.3772  0.0489  0.0448
 3262DOPC   C1A38275  29.596   9.815  11.581  0.2046 -0.1952 -0.0351
 3262DOPC   D2A38276  29.786  10.060  11.947  0.1083  0.3217  0.1944
 3262DOPC   C3A38277  29.929  10.301  12.261 -0.2073 -0.2722  0.1107
 3262DOPC   C4A38278  29.889  10.266  12.698 -0.1288 -0.2755  0.0100
 3262DOPC   C1B38279  29.411   9.223  12.112 -0.4846  0.1290 -0.0712
 3262DOPC   D2B38280  29.601   9.123  12.522 -0.2179  0.0873 -0.0818
 3262DOPC   C3B38281  30.005   8.938  12.599  0.1519 -0.1436  0.0011
 3262DOPC   C4B38282  30.263   8.553  12.609  0.0770 -0.3938 -0.3772
 3263POSM   NC338283   1.725  18.040   9.896 -0.4599 -0.1446  0.0675
 3263POSM   PO438284   1.434  17.812  10.035  0.2123 -0.1392 -0.3428
 3263POSM   AM138285   1.494  17.742  10.345 -0.1948 -0.1481  0.0873
 3263POSM   AM238286   1.349  17.710  10.573  0.1033 -0.2127 -0.2071
 3263POSM   T1A38287   1.787  17.502  10.687  0.0940  0.1293 -0.0365
 3263POSM   C2A38288   2.077  17.119  10.921 -0.0068  0.1740 -0.1336
 3263POSM   C3A38289   2.486  17.124  11.181 -0.0727  0.1943  0.0814
 3263POSM   C1B38290   1.495  17.846  10.870  0.2909 -0.0050 -0.0074
 3263POSM   D2B38291   1.628  17.796  11.332  0.0341 -0.1835  0.1995
 3263POSM   C3B38292   2.016  17.959  11.510  0.3101 -0.0693 -0.1744
 3263POSM   C4B38293   2.459  17.892  11.664  0.1761 -0.4138  0.3588
 3264POSM   NC338294  29.414  19.051  11.230  0.0615  0.2334 -0.0695
 3264POSM   PO438295  29.733  19.261  11.158 -0.4349  0.3935  0.0883
 3264POSM   AM138296  29.886  19.308  11.467  0.1228  0.0615  0.2493
 3264POSM   AM238297  30.111  19.415  11.503  0.0847 -0.0922  0.0412
 3264POSM   T1A38298  29.998  19.130  11.918  0.0378 -0.0382 -0.1787
 3264POSM   C2A38299  29.997  19.230  12.371  0.0118 -0.0492 -0.3292
 3264POSM   C3A38300  29.756  19.578  12.654 -0.0830  0.2669  0.1415
 3264POSM   C1B38301  30.065  19.607  11.792 -0.2554 -0.0430 -0.2461
 3264POSM   D2B38302  30.049  19.699  12.205 -0.0935  0.1453  0.1396
 3264POSM   C3B38303  30.266  19.664  12.627 -0.4057 -0.0132 -0.0986
 3264POSM   C4B38304  30.494  19.804  12.984  0.2486  0.0128 -0.2116
 3265DOPC   NC338305  24.104  33.608  15.634 -0.0938  0.3752 -0.1214
 3265DOPC   PO438306  24.314  33.740  15.295  0.2475  0.0384  0.1542
 3265DOPC   GL138307  24.326  33.778  14.934 -0.0555  0.1178  0.3692
 3265DOPC   GL238308  24.449  33.582  14.792  0.0711  0.1750 -0.1683
 3265DOPC   C1A38309  24.229  33.877  14.465 -0.0792 -0.0781 -0.0745
 3265DOPC   D2A38310  24.055  33.979  14.054  0.0430  0.0560  0.4441
 3265DOPC   C3A38311  24.297  34.331  13.778 -0.0740  0.0330 -0.3103
 3265DOPC   C4A38312  24.421  34.795  13.691  0.4420 -0.2922 -0.2215
 3265DOPC   C1B38313  24.737  33.595  14.428  0.0757 -0.0446  0.0847
 3265DOPC   D2B38314  25.087  33.774  14.147 -0.0527 -0.2317 -0.0281
 3265DOPC   C3B38315  25.255  33.740  13.725 -0.4714 -0.0517  0.1166
 3265DOPC   C4B38316  25.648  33.628  13.586  0.0396  0.1219  0.4329
 3266DOPC   NC338317  32.632  29.473  15.399 -0.5541 -0.0617 -0.0353
 3266DOPC   PO438318  32.818  29.446  15.053  0.3304 -0.0140  0.2054
 3266DOPC   GL138319  32.607  29.417  14.691 -0.2322 -0.1336 -0.0435
 3266DOPC   GL238320  32.362  29.394  14.820 -0.1838  0.0966 -0.1151
 3266DOPC   C1A38321  32.731  29.384  14.215 -0.0239 -0.0900 -0.2111
 3266DOPC   D2A38322  32.941  29.492  13.804  0.0050 -0.0147  0.3095
 3266DOPC   C3A38323  32.853  29.177  13.468 -0.0851 -0.0589 -0.3114
 3266DOPC   C4A38324  32.978  29.086  12.997 -0.3211 -0.3105  0.0812
 3266DOPC   C1B38325  32.137  29.618  14.514  0.2530  0.2287 -0.1058
 3266DOPC   D2B38326  31.958  29.836  14.144  0.0411  0.3112  0.0435
 3266DOPC   C3B38327  31.693  30.210  14.110  0.1438 -0.1256  0.1005
 3266DOPC   C4B38328  31.699  30.568  14.353 -0.2095 -0.1097  0.0153
 3267DOPE   NH338329  33.639  34.501  14.709 -0.0048 -0.1385  0.1190
 3267DOPE   PO438330  33.715  34.606  14.418 -0.1869  0.0831 -0.0241
 3267DOPE   GL138331  33.437  34.499  14.116 -0.2657  0.3632  0.0203
 3267DOPE   GL238332  33.502  34.244  14.011  0.1198  0.1920 -0.3665
 3267DOPE   C1A38333  33.090  34.716  13.947  0.1409 -0.2677  0.2727
 3267DOPE   D2A38334  32.864  34.828  13.543  0.0852  0.0800 -0.1935
 3267DOPE   C3A38335  32.971  35.025  13.149 -0.1917  0.4209 -0.1896
 3267DOPE   C4A38336  33.073  35.097  12.657  0.3804  0.2188 -0.0005
 3267DOPE   C1B38337  33.298  34.434  13.624  0.2439 -0.4084  0.0604
 3267DOPE   D2B38338  33.023  34.491  13.260 -0.0737 -0.2291  0.0687
 3267DOPE   C3B38339  33.239  34.620  12.886  0.1303 -0.0093  0.1757
 3267DOPE   C4B38340  33.566  34.712  12.628 -0.3808  0.4676  0.1459
 3268DOPE   NH338341  24.977  32.816  15.042  0.1377 -0.1161  0.0052
 3268DOPE   PO438342  24.970  32.495  15.032 -0.0447  0.2556 -0.1065
 3268DOPE   GL138343  24.727  32.455  14.739  0.2246 -0.0956 -0.3160
 3268DOPE   GL238344  24.569  32.754  14.643 -0.0224  0.3514  0.0270
 3268DOPE   C1A38345  24.726  32.147  14.346  0.1377 -0.0297 -0.1040
 3268DOPE   D2A38346  24.816  31.913  13.940 -0.0117 -0.0960  0.2106
 3268DOPE   C3A38347  25.008  31.849  13.550 -0.1774 -0.1943  0.0127
 3268DOPE   C4A38348  25.053  31.896  13.079  0.0616 -0.1964  0.1290
 3268DOPE   C1B38349  24.284  32.581  14.400 -0.2117 -0.0126 -0.2274
 3268DOPE   D2B38350  23.827  32.532  14.392  0.1395  0.0305  0.0480
 3268DOPE   C3B38351  23.710  32.307  14.052 -0.2043 -0.2975  0.1291
 3268DOPE   C4B38352  23.794  31.948  13.862 -0.1348  0.1893  0.1184
 3269DOPC   NC338353  31.564   1.543  14.571 -0.0566  0.0008 -0.0389
 3269DOPC   PO438354  31.806   1.820  14.650 -0.0896  0.0361 -0.0698
 3269DOPC   GL138355  31.655   1.837  14.236 -0.2148 -0.1118  0.4538
 3269DOPC   GL238356  31.777   2.118  14.166  0.2797  0.3463  0.2483
 3269DOPC   C1A38357  31.551   1.582  13.862  0.1247  0.1375 -0.1787
 3269DOPC   D2A38358  31.351   1.420  13.501 -0.2625 -0.4115 -0.1404
 3269DOPC   C3A38359  31.169   1.854  13.444  0.0590  0.4450 -0.0033
 3269DOPC   C4A38360  31.173   2.286  13.459  0.0298 -0.1325  0.1126
 3269DOPC   C1B38361  31.775   2.185  13.714  0.0079 -0.2223  0.0869
 3269DOPC   D2B38362  31.619   2.196  13.288 -0.4425 -0.0066  0.2437
 3269DOPC   C3B38363  31.315   2.111  12.970  0.0650 -0.1635  0.1689
 3269DOPC   C4B38364  31.054   2.173  12.611 -0.1660  0.1708 -0.0560
 3270DOPC   NC338365   0.646  33.054  14.236  0.1554 -0.3301  0.2624
 3270DOPC   PO438366   1.018  33.036  14.011  0.2608  0.1981 -0.0672
 3270DOPC   GL138367   0.855  32.909  13.659  0.1581  0.0504  0.0265
 3270DOPC   GL238368   1.165  32.978  13.501  0.2352  0.0379  0.1369
 3270DOPC   C1A38369   0.809  33.068  13.220  0.2963 -0.0966  0.0954
 3270DOPC   D2A38370   0.618  33.385  12.908 -0.2130 -0.0062  0.1831
 3270DOPC   C3A38371   0.456  33.747  12.638  0.2563 -0.2597 -0.3886
 3270DOPC   C4A38372   0.168  34.017  12.454 -0.0999 -0.1144  0.1273
 3270DOPC   C1B38373   1.211  32.684  13.195  0.0386 -0.1119 -0.2182
 3270DOPC   D2B38374   1.451  32.499  12.888  0.1017  0.2920  0.3181
 3270DOPC   C3B38375   1.607  32.563  12.446 -0.2364 -0.2061 -0.1937
 3270DOPC   C4B38376   1.621  32.804  12.032 -0.1690 -0.0324  0.3278
 3271POSM   NC338377  28.546  27.478  15.494 -0.2468  0.3127 -0.1557
 3271POSM   PO438378  28.907  27.588  15.612  0.0575 -0.0939 -0.1247
 3271POSM   AM138379  28.936  27.555  15.295  0.1018 -0.0376  0.1436
 3271POSM   AM238380  29.094  27.429  15.113 -0.1084 -0.2087  0.0600
 3271POSM   T1A38381  28.698  27.742  14.875 -0.1221  0.0551  0.0766
 3271POSM   C2A38382  28.668  27.721  14.408  0.0917  0.0965 -0.0496
 3271POSM   C3A38383  28.517  27.795  13.951 -0.0410 -0.0189  0.0508
 3271POSM   C1B38384  29.280  27.482  14.838 -0.1847 -0.0214 -0.1132
 3271POSM   D2B38385  29.439  27.501  14.400 -0.3142 -0.1547  0.0983
 3271POSM   C3B38386  29.871  27.325  14.206 -0.1704 -0.1638  0.0542
 3271POSM   C4B38387  30.230  27.094  14.005 -0.1980 -0.1591  0.0587
 3272DOPS   CNO38388  31.180   1.929  14.573  0.2536 -0.3496 -0.1894
 3272DOPS   PO438389  31.110   1.603  14.742 -0.0044 -0.1072  0.0177
 3272DOPS   GL138390  30.964   1.544  14.404  0.0119 -0.0984 -0.1660
 3272DOPS   GL238391  31.162   1.406  14.259 -0.0658  0.0444 -0.4321
 3272DOPS   C1A38392  30.640   1.361  14.124 -0.0568  0.0818 -0.2297
 3272DOPS   D2A38393  30.774   1.201  13.717  0.1675 -0.1839  0.2838
 3272DOPS   C3A38394  30.924   1.409  13.276 -0.0797  0.1185  0.1531
 3272DOPS   C4A38395  30.588   1.497  13.010  0.0013 -0.1553 -0.0979
 3272DOPS   C1B38396  31.256   1.105  13.903 -0.2573  0.3795  0.0269
 3272DOPS   D2B38397  31.414   0.918  13.468 -0.0123 -0.0441 -0.3080
 3272DOPS   C3B38398  31.246   1.058  13.063  0.3880 -0.0986  0.1509
 3272DOPS   C4B38399  31.069   1.296  12.685 -0.2381  0.0701  0.0238
 3273DOPC   NC338400  26.914  26.132  15.628  0.0120  0.3679  0.0472
 3273DOPC   PO438401  26.637  26.233  15.390 -0.1146 -0.2240  0.1866
 3273DOPC   GL138402  26.676  26.534  15.130 -0.0747  0.1918  0.1760
 3273DOPC   GL238403  26.945  26.482  15.009 -0.0899  0.4327 -0.1742
 3273DOPC   C1A38404  26.686  26.983  14.929  0.0465  0.0676 -0.0138
 3273DOPC   D2A38405  26.739  27.431  14.793  0.0979  0.1551  0.1108
 3273DOPC   C3A38406  26.473  27.761  14.535 -0.1952 -0.3888  0.2457
 3273DOPC   C4A38407  26.346  27.748  14.072  0.0498  0.0903 -0.0338
 3273DOPC   C1B38408  26.912  26.221  14.700  0.3305 -0.1493  0.0266
 3273DOPC   D2B38409  26.794  26.223  14.200 -0.4504 -0.4678 -0.1858
 3273DOPC   C3B38410  27.084  26.280  13.834  0.1145  0.2095 -0.2982
 3273DOPC   C4B38411  27.417  26.484  13.615  0.1059 -0.0751 -0.1168
 3274DOPE   NH338412  24.738  29.643  14.913 -0.1517 -0.2036  0.1068
 3274DOPE   PO438413  24.809  29.949  14.945 -0.3413 -0.1099  0.0590
 3274DOPE   GL138414  25.089  29.718  14.566  0.2041  0.0068  0.5210
 3274DOPE   GL238415  24.930  29.494  14.427 -0.2312  0.1468 -0.2034
 3274DOPE   C1A38416  25.446  29.573  14.381 -0.2041  0.2054  0.0351
 3274DOPE   D2A38417  25.520  29.738  13.963 -0.1001  0.1553  0.1205
 3274DOPE   C3A38418  25.564  29.808  13.516  0.2727 -0.1954 -0.3960
 3274DOPE   C4A38419  25.686  29.509  13.158 -0.0057 -0.1256 -0.1182
 3274DOPE   C1B38420  25.015  29.877  14.090 -0.0530 -0.0879  0.0037
 3274DOPE   D2B38421  24.704  30.074  13.815  0.0866 -0.0977  0.2031
 3274DOPE   C3B38422  25.079  30.049  13.512  0.2102 -0.2301  0.2874
 3274DOPE   C4B38423  25.462  30.305  13.497  0.0684 -0.0879 -0.0475
 3275POSM   NC338424  31.933   1.524  15.078 -0.3851 -0.0940 -0.3516
 3275POSM   PO438425  31.859   1.243  14.829  0.1536  0.0557 -0.2191
 3275POSM   AM138426  31.768   1.064  14.591  0.1940  0.1701 -0.0236
 3275POSM   AM238427  31.625   1.102  14.328  0.1004  0.1978 -0.3853
 3275POSM   T1A38428  31.750   0.664  14.329  0.0992 -0.0785  0.3098
 3275POSM   C2A38429  31.673   0.682  13.891  0.0017  0.0875 -0.0840
 3275POSM   C3A38430  31.797   0.490  13.467 -0.0501  0.1190 -0.0516
 3275POSM   C1B38431  31.781   1.130  14.025  0.2060 -0.1846 -0.0124
 3275POSM   D2B38432  31.871   1.237  13.571 -0.0952 -0.1254 -0.3397
 3275POSM   C3B38433  31.756   1.216  13.130 -0.0610  0.1456 -0.5254
 3275POSM   C4B38434  32.121   1.174  12.856 -0.0255 -0.1809 -0.0582
 3276DOPS   CNO38435  32.076   0.001  14.863  0.1344 -0.5490  0.0440
 3276DOPS   PO438436  31.789   0.185  14.705 -0.1274  0.2152 -0.0633
 3276DOPS   GL138437  31.680   0.044  14.358  0.2878  0.0073 -0.1971
 3276DOPS   GL238438  31.574   0.251  14.205  0.0546 -0.1223  0.3113
 3276DOPS   C1A38439  31.602  -0.298  14.069  0.3176  0.0351 -0.1957
 3276DOPS   D2A38440  31.417  -0.459  13.661  0.0698 -0.1498  0.0920
 3276DOPS   C3A38441  31.329  -0.144  13.446  0.2234  0.3677 -0.0694
 3276DOPS   C4A38442  31.111   0.071  13.068  0.0360  0.0570  0.1157
 3276DOPS   C1B38443  31.523   0.200  13.786  0.1227  0.2038 -0.3730
 3276DOPS   D2B38444  31.363   0.366  13.377  0.0949 -0.1994 -0.1922
 3276DOPS   C3B38445  31.601   0.686  13.077 -0.0252 -0.3208  0.2198
 3276DOPS   C4B38446  31.823   0.832  12.663  0.5043 -0.1525  0.1331
 3277DOPC   NC338447  34.145  26.973  14.648  0.4243 -0.3313  0.2608
 3277DOPC   PO438448  33.758  27.033  14.566 -0.4685  0.3092  0.0785
 3277DOPC   GL138449  33.678  27.081  14.172  0.0024 -0.0478 -0.1162
 3277DOPC   GL238450  33.509  27.262  14.022 -0.0237  0.1001  0.2190
 3277DOPC   C1A38451  34.010  27.161  13.795 -0.2930  0.0788 -0.2356
 3277DOPC   D2A38452  34.079  26.979  13.362 -0.0292 -0.2152 -0.3084
 3277DOPC   C3A38453  33.886  27.065  12.981 -0.0098 -0.3642 -0.0744
 3277DOPC   C4A38454  34.034  26.967  12.561 -0.0196 -0.1350 -0.1894
 3277DOPC   C1B38455  33.370  27.499  13.639  0.1920  0.0616 -0.1159
 3277DOPC   D2B38456  33.011  27.793  13.509 -0.0035 -0.2017 -0.0283
 3277DOPC   C3B38457  32.873  28.073  13.165 -0.0139  0.0114 -0.2381
 3277DOPC   C4B38458  33.058  28.081  12.757 -0.0939  0.1761 -0.2699
 3278DOPE   NH338459  26.364  28.295  15.923  0.1855  0.1323  0.3282
 3278DOPE   PO438460  26.667  28.359  15.755 -0.0104 -0.0057  0.2397
 3278DOPE   GL138461  26.915  28.258  15.453 -0.0778 -0.1578  0.5022
 3278DOPE   GL238462  26.812  28.320  15.192 -0.3513 -0.1878  0.0583
 3278DOPE   C1A38463  27.307  27.998  15.294  0.0180 -0.0191 -0.1987
 3278DOPE   D2A38464  27.675  27.733  15.297  0.1335  0.0234 -0.0457
 3278DOPE   C3A38465  27.711  27.379  14.970 -0.0164 -0.3291 -0.0061
 3278DOPE   C4A38466  28.022  27.298  14.656 -0.2191  0.1222  0.1656
 3278DOPE   C1B38467  26.743  28.339  14.719 -0.1720  0.1564 -0.0318
 3278DOPE   D2B38468  26.655  28.261  14.263 -0.0912 -0.0772 -0.0076
 3278DOPE   C3B38469  26.669  28.016  13.882 -0.3353  0.1053  0.3782
 3278DOPE   C4B38470  26.948  28.193  13.496  0.0373 -0.1842 -0.3141
 3279DOPE   NH338471  30.066  28.334  15.626 -0.1740 -0.1397 -0.1975
 3279DOPE   PO438472  30.083  28.160  15.351  0.3487 -0.3513  0.0466
 3279DOPE   GL138473  30.055  28.072  14.930  0.2892  0.3339  0.2159
 3279DOPE   GL238474  30.114  27.790  14.786  0.0629 -0.2098  0.2692
 3279DOPE   C1A38475  30.146  28.293  14.559 -0.0009  0.0387 -0.1327
 3279DOPE   D2A38476  29.991  28.372  14.107 -0.1094  0.1101 -0.0919
 3279DOPE   C3A38477  29.835  28.184  13.663  0.0971 -0.1335 -0.1526
 3279DOPE   C4A38478  29.758  27.727  13.531  0.1891  0.1694 -0.2354
 3279DOPE   C1B38479  30.058  27.759  14.367 -0.1416 -0.1021 -0.0826
 3279DOPE   D2B38480  30.067  27.768  13.896  0.3054 -0.2399  0.1677
 3279DOPE   C3B38481  30.244  27.393  13.581  0.1314 -0.1310 -0.0299
 3279DOPE   C4B38482  30.530  27.305  13.222  0.1225 -0.0718 -0.2944
 3280DOPC   NC338483  29.786   1.638  14.813 -0.3788 -0.1794  0.0594
 3280DOPC   PO438484  30.102   1.428  14.905 -0.1061  0.2064 -0.0574
 3280DOPC   GL138485  30.199   1.212  14.555 -0.5703  0.1422 -0.2456
 3280DOPC   GL238486  30.087   1.447  14.382 -0.0942 -0.0046 -0.1404
 3280DOPC   C1A38487  29.967   0.785  14.393  0.1029 -0.0866 -0.0015
 3280DOPC   D2A38488  30.005   0.522  13.950 -0.1219 -0.1055  0.2894
 3280DOPC   C3A38489  30.013   0.065  13.842 -0.1188  0.1679 -0.1529
 3280DOPC   C4A38490  29.950  -0.334  13.681 -0.0921  0.3889 -0.4040
 3280DOPC   C1B38491  30.018   1.354  13.949 -0.0367  0.1228 -0.1475
 3280DOPC   D2B38492  29.710   1.238  13.584  0.0025  0.1120 -0.1399
 3280DOPC   C3B38493  29.961   0.838  13.458  0.0407  0.0809 -0.0203
 3280DOPC   C4B38494  30.059   0.430  13.347  0.0837 -0.0338  0.0131
 3281POSM   NC338495  30.943  28.019  15.281 -0.1525 -0.1133 -0.0942
 3281POSM   PO438496  30.967  28.417  15.324  0.0794 -0.1023 -0.3659
 3281POSM   AM138497  30.897  28.428  15.010  0.0099  0.0259  0.1352
 3281POSM   AM238498  31.053  28.557  14.810 -0.1334  0.1972  0.0278
 3281POSM   T1A38499  30.657  28.379  14.553 -0.0260  0.0487  0.0182
 3281POSM   C2A38500  30.458  28.631  14.272  0.0339 -0.2002 -0.0095
 3281POSM   C3A38501  30.339  29.080  14.154  0.3007 -0.3395 -0.0568
 3281POSM   C1B38502  30.834  28.818  14.784  0.2237 -0.1194 -0.2076
 3281POSM   D2B38503  30.597  29.124  14.597  0.2776  0.2363  0.0888
 3281POSM   C3B38504  30.719  29.421  14.286  0.3941 -0.2914 -0.0464
 3281POSM   C4B38505  30.623  29.858  14.220  0.0659 -0.1133 -0.0013
 3282DOPE   NH338506  25.852  31.747  15.295  0.2808 -0.1260  0.4507
 3282DOPE   PO438507  25.824  32.084  15.303  0.0098  0.1958 -0.0465
 3282DOPE   GL138508  25.576  32.074  15.040 -0.0955  0.1987  0.1643
 3282DOPE   GL238509  25.739  31.968  14.810  0.0566  0.0342  0.0789
 3282DOPE   C1A38510  25.520  32.361  14.689  0.1542 -0.0722  0.1837
 3282DOPE   D2A38511  25.150  32.464  14.309  0.3598 -0.0536 -0.2674
 3282DOPE   C3A38512  25.343  32.874  14.057 -0.1138  0.2732 -0.0321
 3282DOPE   C4A38513  25.264  33.255  13.770  0.1501 -0.2219 -0.3127
 3282DOPE   C1B38514  25.836  32.126  14.370  0.2311  0.0007  0.0960
 3282DOPE   D2B38515  25.714  32.300  13.950  0.1051 -0.0385  0.3257
 3282DOPE   C3B38516  25.907  32.316  13.581 -0.1891  0.0769 -0.0100
 3282DOPE   C4B38517  26.161  32.288  13.227 -0.0564  0.1208 -0.0599
 3283DOPS   CNO38518  30.343  26.545  15.807 -0.0622 -0.1338 -0.2445
 3283DOPS   PO438519  30.260  26.645  15.450 -0.1336 -0.2137  0.2866
 3283DOPS   GL138520  30.426  26.525  15.097 -0.2043 -0.2469 -0.3845
 3283DOPS   GL238521  30.495  26.830  14.944 -0.0129 -0.1340 -0.1496
 3283DOPS   C1A38522  30.121  26.408  14.768 -0.0823 -0.1416 -0.1450
 3283DOPS   D2A38523  29.909  26.200  14.423 -0.0811  0.0291  0.0792
 3283DOPS   C3A38524  29.603  26.191  14.084  0.2368 -0.5560 -0.0021
 3283DOPS   C4A38525  29.251  26.447  13.965  0.2458 -0.1023 -0.0078
 3283DOPS   C1B38526  30.226  26.882  14.606 -0.1844 -0.3249  0.0958
 3283DOPS   D2B38527  29.860  26.728  14.329 -0.2157  0.0072 -0.1079
 3283DOPS   C3B38528  29.852  26.709  13.859 -0.1603  0.0187  0.1202
 3283DOPS   C4B38529  29.807  26.593  13.390  0.0505  0.4395  0.0556
 3284POSM   NC338530  29.142  33.408  15.474 -0.1821  0.0019  0.0049
 3284POSM   PO438531  29.382  33.173  15.680  0.2102  0.1293  0.0591
 3284POSM   AM138532  29.556  33.035  15.409  0.1163  0.1875 -0.3036
 3284POSM   AM238533  29.423  32.888  15.220 -0.0785 -0.2493 -0.1820
 3284POSM   T1A38534  29.922  32.836  15.157 -0.2492  0.3375  0.1645
 3284POSM   C2A38535  30.317  32.910  14.878 -0.1083 -0.1227  0.2649
 3284POSM   C3A38536  30.617  32.794  14.495  0.2134  0.0941 -0.4362
 3284POSM   C1B38537  29.488  32.801  14.896 -0.0184 -0.0953 -0.2197
 3284POSM   D2B38538  29.410  32.504  14.543 -0.0258 -0.2131  0.0764
 3284POSM   C3B38539  29.699  32.205  14.415  0.3087 -0.0416 -0.1032
 3284POSM   C4B38540  30.019  31.941  14.245 -0.1697 -0.3356  0.0302
 3285POSM   NC338541  29.239  31.508  15.340  0.1880  0.2107  0.1821
 3285POSM   PO438542  28.846  31.476  15.357  0.0650 -0.1584 -0.0219
 3285POSM   AM138543  28.849  31.681  15.094 -0.2019  0.4059  0.2909
 3285POSM   AM238544  29.035  31.672  14.902 -0.1165  0.0162 -0.0333
 3285POSM   T1A38545  28.549  31.791  14.727 -0.4754  0.1956 -0.1262
 3285POSM   C2A38546  28.219  31.809  14.375 -0.1845  0.1314 -0.0719
 3285POSM   C3A38547  28.150  31.687  13.950 -0.1164 -0.1896 -0.0849
 3285POSM   C1B38548  29.374  31.694  14.928 -0.1318  0.0494 -0.2597
 3285POSM   D2B38549  29.679  31.761  15.252 -0.0417  0.0450 -0.0699
 3285POSM   C3B38550  29.975  32.031  15.009  0.1768  0.1056 -0.1810
 3285POSM   C4B38551  29.912  32.421  14.803  0.0930 -0.2170  0.1573
 3286DOPC   NC338552  27.630  24.563  15.024  0.1626  0.1278  0.2044
 3286DOPC   PO438553  27.431  24.338  15.294  0.0051 -0.0909  0.0372
 3286DOPC   GL138554  27.293  24.194  14.911 -0.0009 -0.1675  0.1180
 3286DOPC   GL238555  27.101  24.350  14.742 -0.0414  0.1992 -0.0191
 3286DOPC   C1A38556  27.651  24.073  14.649  0.1524 -0.1729  0.0981
 3286DOPC   D2A38557  27.976  24.035  14.353 -0.0542  0.0099  0.1455
 3286DOPC   C3A38558  27.855  23.919  13.942 -0.0453  0.2003 -0.0111
 3286DOPC   C4A38559  27.609  23.746  13.620  0.2358  0.0362  0.0503
 3286DOPC   C1B38560  26.753  24.364  14.386  0.1728  0.3261 -0.2275
 3286DOPC   D2B38561  26.474  24.745  14.213  0.1284  0.4006  0.2221
 3286DOPC   C3B38562  26.395  24.935  13.807 -0.1671 -0.1863  0.1060
 3286DOPC   C4B38563  26.213  24.747  13.437  0.1331  0.1766 -0.1443
 3287DOPS   CNO38564  29.669  30.436  15.604 -0.0359 -0.0435  0.2939
 3287DOPS   PO438565  29.773  30.660  15.322  0.2185 -0.0597  0.0278
 3287DOPS   GL138566  29.449  30.631  15.116 -0.2357  0.0144 -0.1020
 3287DOPS   GL238567  29.326  30.343  15.277 -0.2495  0.0788  0.0757
 3287DOPS   C1A38568  29.290  30.672  14.667 -0.1746 -0.2413 -0.1349
 3287DOPS   D2A38569  29.242  30.333  14.327  0.1335 -0.1527 -0.5088
 3287DOPS   C3A38570  29.704  30.248  14.296 -0.1240  0.1936  0.0520
 3287DOPS   C4A38571  30.110  30.112  14.191  0.0443 -0.1528 -0.1360
 3287DOPS   C1B38572  29.533  29.928  15.220  0.2033  0.0058 -0.1587
 3287DOPS   D2B38573  29.689  29.536  14.908 -0.0651  0.2517  0.1968
 3287DOPS   C3B38574  29.784  29.811  14.618 -0.1675  0.1597  0.1610
 3287DOPS   C4B38575  29.698  29.738  14.142 -0.1331 -0.1141 -0.0890
 3288DOPE   NH338576   0.259  33.883  14.450  0.1828  0.1548  0.0437
 3288DOPE   PO438577   0.030  34.092  14.460  0.0424 -0.3823  0.6107
 3288DOPE   GL138578   0.207  34.030  14.008 -0.2184  0.0956 -0.0213
 3288DOPE   GL238579   0.202  34.240  13.733 -0.1954  0.1529  0.2852
 3288DOPE   C1A38580   0.121  33.754  13.627  0.1711 -0.1717 -0.3438
 3288DOPE   D2A38581  -0.196  33.613  13.328 -0.0503 -0.2795  0.0694
 3288DOPE   C3A38582  -0.487  33.217  13.337 -0.0274 -0.0029  0.0282
 3288DOPE   C4A38583  -0.873  33.052  13.166  0.0221 -0.1661 -0.0928
 3288DOPE   C1B38584   0.020  34.235  13.332 -0.0848 -0.2012  0.1033
 3288DOPE   D2B38585  -0.034  34.529  13.038  0.2423 -0.2591  0.0807
 3288DOPE   C3B38586  -0.073  34.482  12.614 -0.0560 -0.1970  0.1052
 3288DOPE   C4B38587  -0.352  34.227  12.421 -0.6487  0.3646 -0.0388
 3289POSM   NC338588  33.425  31.899  15.132 -0.2504 -0.0717  0.0221
 3289POSM   PO438589  33.599  32.262  15.039  0.0327 -0.0441 -0.4863
 3289POSM   AM138590  33.608  32.095  14.731 -0.2050  0.0311  0.2187
 3289POSM   AM238591  33.538  31.853  14.605  0.1649  0.1493  0.0674
 3289POSM   T1A38592  33.475  32.350  14.288 -0.0239  0.4019  0.5395
 3289POSM   C2A38593  33.268  32.537  13.938 -0.0199 -0.0325  0.0500
 3289POSM   C3A38594  33.081  32.556  13.491 -0.0032  0.2312 -0.0148
 3289POSM   C1B38595  33.519  31.880  14.297  0.0564  0.0235 -0.1448
 3289POSM   D2B38596  33.582  32.121  13.858 -0.0048  0.1050 -0.2119
 3289POSM   C3B38597  33.731  31.811  13.482 -0.1328 -0.4322 -0.0906
 3289POSM   C4B38598  33.877  31.584  13.119  0.3656  0.1151 -0.2802
 3290POSM   NC338599  33.650  24.766  15.023 -0.0099  0.2526 -0.1319
 3290POSM   PO438600  33.580  24.750  14.649 -0.1363 -0.1177 -0.1141
 3290POSM   AM138601  33.677  24.892  14.369 -0.3882  0.2102  0.3189
 3290POSM   AM238602  33.919  24.997  14.289 -0.0915 -0.2693 -0.3618
 3290POSM   T1A38603  33.475  25.051  13.962  0.1133  0.1848  0.1092
 3290POSM   C2A38604  33.233  25.226  13.559 -0.1259 -0.3137  0.0407
 3290POSM   C3A38605  32.824  25.220  13.342  0.3566 -0.1471  0.2409
 3290POSM   C1B38606  34.099  25.042  14.044 -0.1622 -0.3862  0.2079
 3290POSM   D2B38607  34.298  25.128  13.623  0.1167 -0.0676 -0.1112
 3290POSM   C3B38608  34.107  25.110  13.186  0.0093  0.0070 -0.1260
 3290POSM   C4B38609  33.694  25.122  12.973  0.0028  0.0187 -0.2490
 3291DOPC   NC338610  23.869  31.937  15.086  0.0777  0.1349  0.0938
 3291DOPC   PO438611  23.831  31.577  15.223 -0.0844 -0.0766 -0.0887
 3291DOPC   GL138612  24.041  31.365  14.923 -0.4005  0.1516 -0.1760
 3291DOPC   GL238613  23.785  31.244  14.841  0.0433  0.1215 -0.0875
 3291DOPC   C1A38614  24.045  31.636  14.542  0.0484  0.0888 -0.1101
 3291DOPC   D2A38615  23.756  31.950  14.410  0.2759 -0.1827 -0.1840
 3291DOPC   C3A38616  23.333  31.885  14.231 -0.1951  0.1561 -0.2960
 3291DOPC   C4A38617  23.143  32.222  13.936  0.1093 -0.1091 -0.4473
 3291DOPC   C1B38618  23.455  31.486  14.597 -0.0889 -0.0610 -0.0492
 3291DOPC   D2B38619  23.001  31.593  14.428 -0.2500 -0.0662  0.0498
 3291DOPC   C3B38620  23.008  31.620  13.956 -0.2456  0.3519 -0.3305
 3291DOPC   C4B38621  22.868  31.888  13.600 -0.3907  0.1203 -0.1034
 3292DOPC   NC338622  24.942  27.119  15.310 -0.4755  0.3644 -0.4534
 3292DOPC   PO438623  24.888  26.767  15.509 -0.0251 -0.0533  0.2489
 3292DOPC   GL138624  24.969  26.571  15.130  0.1277  0.2002 -0.0763
 3292DOPC   GL238625  25.219  26.793  14.965  0.1596  0.0476  0.1449
 3292DOPC   C1A38626  24.845  26.657  14.672 -0.0515  0.0635 -0.0970
 3292DOPC   D2A38627  25.070  26.484  14.307 -0.0377  0.0674  0.1027
 3292DOPC   C3A38628  24.879  26.077  14.179 -0.0129 -0.2977  0.0694
 3292DOPC   C4A38629  24.780  25.831  13.804 -0.1441 -0.0184  0.2014
 3292DOPC   C1B38630  25.349  26.872  14.523  0.0399  0.1118 -0.1384
 3292DOPC   D2B38631  25.323  26.837  14.082  0.2293 -0.1020 -0.0169
 3292DOPC   C3B38632  24.992  26.690  13.836 -0.0898 -0.0131  0.0455
 3292DOPC   C4B38633  24.831  26.578  13.370  0.0246 -0.0316  0.2927
 3293POSM   NC338634  31.652  25.860  14.915 -0.1145 -0.1533  0.0059
 3293POSM   PO438635  31.361  25.877  15.120  0.1196  0.0826 -0.0316
 3293POSM   AM138636  31.219  26.054  14.877 -0.0008 -0.0130  0.1409
 3293POSM   AM238637  31.235  26.249  14.662  0.1440 -0.2412  0.0986
 3293POSM   T1A38638  30.809  26.033  14.595  0.1750  0.1178 -0.2226
 3293POSM   C2A38639  30.430  26.125  14.313  0.0784  0.1411 -0.0482
 3293POSM   C3A38640  30.203  26.489  14.097  0.1040 -0.0612  0.0452
 3293POSM   C1B38641  31.144  26.329  14.373  0.0108 -0.0839  0.2757
 3293POSM   D2B38642  30.936  26.425  13.993 -0.0638 -0.1071  0.2155
 3293POSM   C3B38643  30.658  26.700  13.889 -0.1259 -0.2846  0.2524
 3293POSM   C4B38644  30.352  26.906  13.587 -0.2515  0.1027  0.2321
 3294POSM   NC338645  34.531  28.880  14.901  0.0173  0.1355  0.0742
 3294POSM   PO438646  34.754  28.580  14.933  0.2043 -0.4349  0.2392
 3294POSM   AM138647  34.602  28.474  14.651  0.0879 -0.0689  0.0115
 3294POSM   AM238648  34.691  28.426  14.404  0.2126  0.3016  0.0469
 3294POSM   T1A38649  34.215  28.377  14.337  0.0438 -0.0977  0.1863
 3294POSM   C2A38650  33.878  28.484  14.085  0.3599  0.1432 -0.0308
 3294POSM   C3A38651  33.641  28.588  13.696  0.0936  0.0820 -0.0419
 3294POSM   C1B38652  34.635  28.323  14.060  0.0848  0.3701 -0.1714
 3294POSM   D2B38653  34.643  28.059  13.686  0.1327  0.0224 -0.1134
 3294POSM   C3B38654  34.630  27.808  13.291  0.0218  0.1643 -0.2690
 3294POSM   C4B38655  34.764  27.742  12.875  0.0202  0.0755  0.0452
 3295DOPE   NH338656  32.678   1.006  14.766 -0.1403  0.2838  0.0967
 3295DOPE   PO438657  32.646   0.758  14.535  0.2648  0.1824 -0.0590
 3295DOPE   GL138658  32.539   0.779  14.102 -0.1451  0.1307  0.4231
 3295DOPE   GL238659  32.285   0.643  14.169 -0.0910 -0.0939  0.0453
 3295DOPE   C1A38660  32.632   1.052  13.713 -0.1582 -0.0070  0.0615
 3295DOPE   D2A38661  32.765   1.020  13.274 -0.1450  0.2306 -0.1206
 3295DOPE   C3A38662  32.835   1.335  12.958  0.0320 -0.0091 -0.2935
 3295DOPE   C4A38663  32.729   1.580  12.541 -0.2082 -0.2003 -0.0203
 3295DOPE   C1B38664  32.275   0.425  13.683  0.0511  0.1896  0.1304
 3295DOPE   D2B38665  32.267   0.147  13.256 -0.2153  0.2139  0.0114
 3295DOPE   C3B38666  32.611  -0.056  13.039 -0.2859 -0.0168 -0.0598
 3295DOPE   C4B38667  32.796  -0.403  12.839 -0.2103 -0.3209 -0.0583
 3296DOPC   NC338668  30.275  34.617  15.386  0.1748 -0.1950 -0.1668
 3296DOPC   PO438669  30.164  34.208  15.327  0.0799 -0.3284  0.0001
 3296DOPC   GL138670  30.093  34.131  14.969 -0.2383  0.0074  0.3531
 3296DOPC   GL238671  30.288  34.327  14.818 -0.1012 -0.0819  0.0927
 3296DOPC   C1A38672  30.153  33.876  14.590  0.0798  0.0627  0.1127
 3296DOPC   D2A38673  29.959  33.695  14.226 -0.1140  0.0993 -0.2545
 3296DOPC   C3A38674  30.090  34.026  13.942  0.2210  0.0580 -0.0758
 3296DOPC   C4A38675  30.231  34.109  13.511 -0.0713 -0.5065 -0.2326
 3296DOPC   C1B38676  30.373  34.327  14.410  0.1043 -0.0604 -0.2743
 3296DOPC   D2B38677  30.442  34.385  13.951  0.0997 -0.2030  0.1374
 3296DOPC   C3B38678  30.507  34.727  13.696  0.0074  0.0114 -0.2145
 3296DOPC   C4B38679  30.475  35.165  13.754 -0.3112 -0.0403 -0.2672
 3297DOPE   NH338680  31.116  30.331  15.702 -0.2493 -0.0566 -0.3760
 3297DOPE   PO438681  30.817  30.254  15.674 -0.0713 -0.1720 -0.0385
 3297DOPE   GL138682  30.912  30.343  15.179 -0.2319  0.2396  0.0201
 3297DOPE   GL238683  30.883  30.601  15.043  0.0016  0.1872  0.0022
 3297DOPE   C1A38684  30.860  30.220  14.746 -0.0719 -0.1702 -0.0846
 3297DOPE   D2A38685  30.835  30.353  14.314 -0.0220  0.3417 -0.2408
 3297DOPE   C3A38686  31.047  30.115  14.021 -0.0949 -0.2543  0.3369
 3297DOPE   C4A38687  31.079  30.169  13.563  0.0000 -0.0877  0.1363
 3297DOPE   C1B38688  30.848  30.766  14.611  0.2785 -0.0153  0.0078
 3297DOPE   D2B38689  30.665  30.878  14.198 -0.0544  0.1306 -0.1269
 3297DOPE   C3B38690  30.434  30.626  13.886 -0.0952  0.0758  0.0963
 3297DOPE   C4B38691  30.167  30.680  13.504 -0.1039  0.0617  0.0962
 3298DOPE   NH338692  33.146  27.764  14.901  0.0383 -0.3140  0.1657
 3298DOPE   PO438693  33.015  27.537  14.687  0.0256  0.1177 -0.4395
 3298DOPE   GL138694  32.973  27.510  14.229  0.0781 -0.0300  0.1117
 3298DOPE   GL238695  33.197  27.727  14.167  0.0747  0.0645 -0.2095
 3298DOPE   C1A38696  32.951  27.259  13.851  0.0045 -0.0205 -0.1019
 3298DOPE   D2A38697  33.023  27.054  13.436  0.1110  0.0399  0.1721
 3298DOPE   C3A38698  32.807  26.699  13.281  0.0733  0.1690  0.0862
 3298DOPE   C4A38699  32.825  26.347  12.964 -0.1451 -0.0010  0.1675
 3298DOPE   C1B38700  32.821  27.994  13.995 -0.1495 -0.0596  0.0311
 3298DOPE   D2B38701  32.628  28.167  13.606  0.1416  0.1130 -0.0919
 3298DOPE   C3B38702  32.388  28.564  13.534  0.0106 -0.0453 -0.0005
 3298DOPE   C4B38703  32.321  29.005  13.505  0.0155  0.0592  0.1499
 3299DOPE   NH338704  28.326  27.777  16.186 -0.1526  0.0085 -0.2014
 3299DOPE   PO438705  28.427  27.786  15.893  0.3022 -0.1124 -0.1470
 3299DOPE   GL138706  28.577  27.923  15.589 -0.1601 -0.4472 -0.2879
 3299DOPE   GL238707  28.666  28.278  15.567 -0.2268 -0.1334  0.1061
 3299DOPE   C1A38708  28.470  28.050  15.123 -0.0227  0.0678 -0.2535
 3299DOPE   D2A38709  28.341  28.092  14.694  0.3382 -0.1469 -0.0930
 3299DOPE   C3A38710  28.620  28.233  14.267 -0.1638  0.2790 -0.0828
 3299DOPE   C4A38711  28.957  28.613  14.382  0.1115 -0.2524  0.1075
 3299DOPE   C1B38712  28.779  28.516  15.201  0.2285  0.0228 -0.0754
 3299DOPE   D2B38713  28.603  28.552  14.761 -0.1972 -0.1599  0.1076
 3299DOPE   C3B38714  28.874  28.228  14.736 -0.0946 -0.3013  0.1325
 3299DOPE   C4B38715  29.154  27.873  14.611 -0.1922 -0.0564  0.0137
 3300DOPS   CNO38716  22.365  31.375  15.083 -0.0948  0.3299  0.2009
 3300DOPS   PO438717  22.016  31.321  14.949  0.0121  0.0957  0.1750
 3300DOPS   GL138718  22.232  31.319  14.635 -0.0460 -0.0022 -0.3326
 3300DOPS   GL238719  22.490  31.426  14.595  0.2141 -0.0541 -0.0389
 3300DOPS   C1A38720  22.388  31.036  14.286 -0.1590 -0.0188 -0.1174
 3300DOPS   D2A38721  22.594  30.655  14.112  0.3062  0.1347 -0.1528
 3300DOPS   C3A38722  22.940  30.681  13.781  0.2231  0.1828  0.0201
 3300DOPS   C4A38723  23.366  30.688  13.672 -0.1286 -0.0241  0.0655
 3300DOPS   C1B38724  22.272  31.473  14.138  0.3936 -0.1378  0.0092
 3300DOPS   D2B38725  22.136  31.175  13.775  0.1820  0.2574 -0.3938
 3300DOPS   C3B38726  22.379  30.846  13.541 -0.0707 -0.0513 -0.2104
 3300DOPS   C4B38727  22.543  30.727  13.141  0.2094  0.1414 -0.0482
 3301DOPE   NH338728  30.070  33.645  15.744 -0.0454  0.2668 -0.0058
 3301DOPE   PO438729  29.966  33.937  15.807 -0.2867  0.3588 -0.1757
 3301DOPE   GL138730  29.841  33.922  15.374  0.2362  0.3597  0.0495
 3301DOPE   GL238731  29.685  34.149  15.249  0.0940 -0.0952  0.1168
 3301DOPE   C1A38732  29.795  33.750  14.942  0.2413 -0.2605 -0.2698
 3301DOPE   D2A38733  29.637  33.491  14.541  0.2052  0.1006 -0.0971
 3301DOPE   C3A38734  29.753  33.251  14.182  0.2953 -0.2219  0.1642
 3301DOPE   C4A38735  29.989  33.161  13.812 -0.1442 -0.0725  0.1740
 3301DOPE   C1B38736  29.529  34.223  14.866 -0.2426 -0.0616  0.3145
 3301DOPE   D2B38737  29.679  34.049  14.487  0.1078 -0.0343 -0.0244
 3301DOPE   C3B38738  29.456  33.781  14.155  0.0496 -0.0716 -0.2274
 3301DOPE   C4B38739  29.157  33.441  14.026 -0.0563  0.0042  0.1229
 3302DOPE   NH338740  28.311  30.794  15.540 -0.0812 -0.1016 -0.0962
 3302DOPE   PO438741  28.544  31.009  15.420  0.1171 -0.1851  0.0483
 3302DOPE   GL138742  28.544  31.132  15.045 -0.3570 -0.0404  0.2096
 3302DOPE   GL238743  28.374  30.883  14.963  0.1618  0.0168  0.0004
 3302DOPE   C1A38744  28.785  31.285  14.638  0.2144  0.2578 -0.1976
 3302DOPE   D2A38745  28.977  31.579  14.393  0.0328 -0.4065 -0.1557
 3302DOPE   C3A38746  28.890  31.893  14.106  0.1650  0.0656 -0.0328
 3302DOPE   C4A38747  29.007  32.152  13.739 -0.0741  0.4313  0.0307
 3302DOPE   C1B38748  28.323  30.674  14.548 -0.0910  0.3248 -0.1515
 3302DOPE   D2B38749  28.496  30.450  14.177 -0.0072  0.0139 -0.0523
 3302DOPE   C3B38750  28.633  30.031  14.044 -0.1147 -0.3307 -0.2535
 3302DOPE   C4B38751  28.866  29.661  13.808 -0.1939  0.1596 -0.4050
 3303POSM   NC338752  27.257  24.790  15.394  0.1969 -0.1013 -0.1407
 3303POSM   PO438753  27.206  24.794  15.023 -0.0234 -0.2049 -0.1433
 3303POSM   AM138754  27.295  24.758  14.670 -0.2152  0.1739 -0.0196
 3303POSM   AM238755  27.470  24.603  14.480  0.0611 -0.0389  0.0035
 3303POSM   T1A38756  27.286  24.927  14.161 -0.0009  0.0142 -0.0533
 3303POSM   C2A38757  27.256  25.353  13.904  0.1255 -0.0433  0.2354
 3303POSM   C3A38758  27.166  25.766  13.922  0.2040  0.1589 -0.1291
 3303POSM   C1B38759  27.276  24.395  14.259  0.1919 -0.0891  0.0766
 3303POSM   D2B38760  27.004  24.065  14.049  0.0812  0.0485  0.0434
 3303POSM   C3B38761  26.899  24.111  13.607  0.2195 -0.1532 -0.0843
 3303POSM   C4B38762  27.018  24.057  13.161 -0.0940  0.1306 -0.3174
 3304POSM   NC338763  27.106  28.654  15.782  0.0684 -0.0559  0.0144
 3304POSM   PO438764  27.075  29.039  15.818  0.0192 -0.2010  0.1100
 3304POSM   AM138765  27.131  29.095  15.499 -0.3390  0.1683 -0.1586
 3304POSM   AM238766  27.159  29.289  15.290  0.1388 -0.1380 -0.1739
 3304POSM   T1A38767  27.433  28.884  15.114 -0.1734 -0.0519  0.0237
 3304POSM   C2A38768  27.680  28.613  14.805 -0.0222 -0.1082  0.0481
 3304POSM   C3A38769  27.676  28.342  14.482  0.2571 -0.0962  0.1535
 3304POSM   C1B38770  27.105  29.357  14.980  0.0159 -0.0037 -0.1453
 3304POSM   D2B38771  26.960  29.244  14.571 -0.1685 -0.0791 -0.0105
 3304POSM   C3B38772  26.810  29.528  14.271 -0.2052 -0.1115 -0.2160
 3304POSM   C4B38773  26.396  29.526  14.171  0.4750  0.0091 -0.2180
 3305DOPC   NC338774  29.235  30.627  15.663  0.1960  0.2395  0.1338
 3305DOPC   PO438775  28.851  30.646  15.644  0.1719  0.3824  0.2692
 3305DOPC   GL138776  28.896  30.320  15.375 -0.3253 -0.2748 -0.0860
 3305DOPC   GL238777  29.000  29.999  15.292 -0.2784 -0.1182 -0.0728
 3305DOPC   C1A38778  28.960  30.352  14.904  0.4463 -0.0975 -0.1405
 3305DOPC   D2A38779  28.798  30.145  14.522 -0.3576 -0.0914  0.3366
 3305DOPC   C3A38780  29.042  29.868  14.242 -0.0178  0.1797 -0.0565
 3305DOPC   C4A38781  29.268  29.521  14.077  0.2515 -0.0916 -0.1765
 3305DOPC   C1B38782  28.578  29.929  15.282  0.0371  0.0868 -0.0254
 3305DOPC   D2B38783  28.165  29.832  15.069 -0.0593 -0.1649  0.0880
 3305DOPC   C3B38784  28.005  29.605  14.689 -0.1614  0.1191 -0.0409
 3305DOPC   C4B38785  27.765  29.562  14.304  0.4279  0.0168 -0.2136
 3306DOPC   NC338786  26.176  34.424  15.346 -0.0603 -0.1331  0.2544
 3306DOPC   PO438787  25.947  34.173  15.230  0.1420 -0.0773  0.0516
 3306DOPC   GL138788  25.667  34.066  14.913  0.2380  0.6860 -0.0562
 3306DOPC   GL238789  25.865  34.011  14.758  0.0793  0.0736 -0.0961
 3306DOPC   C1A38790  25.526  34.364  14.623 -0.1297  0.0362  0.1376
 3306DOPC   D2A38791  25.481  34.498  14.166  0.0514  0.1955 -0.1569
 3306DOPC   C3A38792  25.352  34.750  13.800 -0.0507 -0.0430  0.2603
 3306DOPC   C4A38793  25.366  34.543  13.398 -0.0063 -0.0666  0.0037
 3306DOPC   C1B38794  25.928  34.266  14.324 -0.1808  0.0948  0.0939
 3306DOPC   D2B38795  26.136  34.185  13.908  0.1320 -0.0765  0.0427
 3306DOPC   C3B38796  25.954  34.267  13.484  0.0512 -0.0230  0.0121
 3306DOPC   C4B38797  25.747  34.375  13.121 -0.4691  0.1194 -0.1948
 3307POSM   NC338798  25.726   0.887  15.788 -0.2433  0.0137 -0.2863
 3307POSM   PO438799  25.547   0.830  15.424 -0.2251 -0.0116  0.1159
 3307POSM   AM138800  25.780   0.854  15.202  0.2134  0.0454 -0.0097
 3307POSM   AM238801  25.987   0.716  15.127  0.1487 -0.0594 -0.2040
 3307POSM   T1A38802  25.803   1.025  14.692  0.1459  0.0836  0.1716
 3307POSM   C2A38803  25.758   0.862  14.281  0.2004  0.3502 -0.1589
 3307POSM   C3A38804  25.706   0.748  13.830  0.1486  0.2527  0.0338
 3307POSM   C1B38805  26.206   0.775  14.886 -0.2621 -0.2916 -0.1252
 3307POSM   D2B38806  26.273   1.008  14.444 -0.1721 -0.3734  0.1523
 3307POSM   C3B38807  26.157   0.735  14.083  0.1695 -0.0021  0.0921
 3307POSM   C4B38808  26.105   0.381  13.751 -0.1215  0.0694 -0.1206
 3308DOPC   NC338809  33.289  25.663  14.753  0.0953  0.3457 -0.1319
 3308DOPC   PO438810  33.160  25.987  14.609  0.3637  0.1062 -0.0856
 3308DOPC   GL138811  33.095  26.075  14.176 -0.3169 -0.0477  0.0658
 3308DOPC   GL238812  33.001  26.354  14.077 -0.2259  0.0342  0.0064
 3308DOPC   C1A38813  32.694  26.005  13.934  0.2278 -0.0884 -0.0266
 3308DOPC   D2A38814  32.234  26.031  13.824 -0.2076  0.3823 -0.1020
 3308DOPC   C3A38815  32.087  25.845  13.391 -0.1242  0.0419 -0.0054
 3308DOPC   C4A38816  32.191  25.533  13.073  0.3219 -0.2674 -0.3122
 3308DOPC   C1B38817  33.005  26.645  13.759  0.2035  0.3481  0.0885
 3308DOPC   D2B38818  33.280  26.553  13.374 -0.0248  0.1067 -0.3608
 3308DOPC   C3B38819  33.202  26.898  12.992 -0.1684 -0.0612 -0.3017
 3308DOPC   C4B38820  33.164  27.138  12.574  0.5835  0.1394  0.0189
 3309POSM   NC338821  20.868  31.096  14.348  0.2493  0.0334  0.0439
 3309POSM   PO438822  20.660  31.295  14.618 -0.1048  0.0660 -0.0275
 3309POSM   AM138823  20.591  31.426  14.329 -0.3120 -0.1129 -0.0835
 3309POSM   AM238824  20.673  31.503  14.112 -0.2886 -0.3387 -0.1027
 3309POSM   T1A38825  20.328  31.815  14.058  0.0730 -0.2290 -0.1034
 3309POSM   C2A38826  20.181  31.842  13.647 -0.1630 -0.0663 -0.0292
 3309POSM   C3A38827  20.081  31.681  13.260  0.0662 -0.1491 -0.3080
 3309POSM   C1B38828  20.708  31.537  13.812 -0.1659  0.0056 -0.2021
 3309POSM   D2B38829  20.568  31.588  13.373 -0.5937 -0.3056  0.4552
 3309POSM   C3B38830  20.964  31.626  13.082  0.0570 -0.0655 -0.1099
 3309POSM   C4B38831  21.173  31.433  12.748  0.0303  0.3542  0.0892
 3310DOPC   NC338832  26.242  29.734  15.558 -0.1886  0.1501 -0.4535
 3310DOPC   PO438833  26.313  30.077  15.688 -0.1797 -0.4695  0.1832
 3310DOPC   GL138834  26.408  30.085  15.272  0.0147 -0.4589  0.0412
 3310DOPC   GL238835  26.566  30.393  15.265  0.0255 -0.0482  0.0227
 3310DOPC   C1A38836  26.258  30.217  14.826 -0.1864 -0.1096 -0.1616
 3310DOPC   D2A38837  26.066  30.429  14.516  0.1208  0.1142 -0.1346
 3310DOPC   C3A38838  26.315  30.448  14.131  0.0171 -0.0134 -0.2214
 3310DOPC   C4A38839  26.453  30.245  13.749 -0.1089  0.0820  0.2248
 3310DOPC   C1B38840  26.824  30.184  14.912  0.0323 -0.0733  0.1122
 3310DOPC   D2B38841  26.855  29.790  14.662 -0.3032 -0.4760 -0.1717
 3310DOPC   C3B38842  26.453  29.641  14.695  0.1088  0.0415 -0.0012
 3310DOPC   C4B38843  26.276  29.220  14.568 -0.2755 -0.3483  0.0798
 3311POSM   NC338844  24.791   0.063  15.008 -0.3657  0.0265 -0.2719
 3311POSM   PO438845  25.152   0.129  15.151  0.1134 -0.0971  0.3482
 3311POSM   AM138846  25.255   0.363  14.989  0.5934  0.1236 -0.1269
 3311POSM   AM238847  25.127   0.439  14.724 -0.2665 -0.1473  0.0735
 3311POSM   T1A38848  25.662   0.537  14.806 -0.1198 -0.0330  0.1000
 3311POSM   C2A38849  26.020   0.434  14.543 -0.1046 -0.1814 -0.0516
 3311POSM   C3A38850  26.379   0.205  14.380 -0.0205  0.2491 -0.2070
 3311POSM   C1B38851  25.295   0.608  14.479  0.1369 -0.3195  0.1120
 3311POSM   D2B38852  25.280   0.752  14.076 -0.1491 -0.0206 -0.0912
 3311POSM   C3B38853  25.152   0.492  13.755  0.0485 -0.1977 -0.4206
 3311POSM   C4B38854  24.739   0.323  13.557 -0.0560  0.2274 -0.0594
 3312DOPE   NH338855  25.749  32.984  15.376 -0.2633 -0.0496  0.0108
 3312DOPE   PO438856  25.738  33.225  15.179 -0.0860  0.0418  0.1548
 3312DOPE   GL138857  25.734  33.274  14.834  0.1161  0.1157  0.1556
 3312DOPE   GL238858  25.759  33.506  14.690  0.0151  0.0512  0.0944
 3312DOPE   C1A38859  25.666  33.049  14.432  0.0841  0.0220 -0.1456
 3312DOPE   D2A38860  25.820  32.712  14.239 -0.1292  0.0182  0.0184
 3312DOPE   C3A38861  26.057  32.766  13.853  0.0053 -0.1627  0.1447
 3312DOPE   C4A38862  26.141  32.859  13.375 -0.1499  0.5150  0.0113
 3312DOPE   C1B38863  26.013  33.677  14.346  0.1800 -0.1261 -0.2192
 3312DOPE   D2B38864  26.028  33.618  13.895  0.4606 -0.0462 -0.0028
 3312DOPE   C3B38865  26.248  33.234  13.634  0.2293 -0.2902 -0.0604
 3312DOPE   C4B38866  26.647  33.035  13.510 -0.0933 -0.0584  0.0551
 3313DOPC   NC338867  33.898  26.530  14.765 -0.0211 -0.0816 -0.3564
 3313DOPC   PO438868  34.252  26.457  14.583 -0.1987 -0.1406 -0.1453
 3313DOPC   GL138869  34.410  26.536  14.209  0.6883 -0.1269  0.1361
 3313DOPC   GL238870  34.383  26.779  14.138  0.0156  0.1153 -0.0078
 3313DOPC   C1A38871  34.291  26.213  13.883 -0.1913 -0.0250  0.1892
 3313DOPC   D2A38872  34.247  25.766  13.926 -0.0386 -0.0471 -0.1234
 3313DOPC   C3A38873  33.976  25.476  13.768  0.0914 -0.2218 -0.2933
 3313DOPC   C4A38874  33.755  25.176  13.549 -0.0457  0.2477  0.3641
 3313DOPC   C1B38875  34.269  26.735  13.707  0.1947 -0.1492  0.4590
 3313DOPC   D2B38876  34.201  26.377  13.394  0.1523 -0.1148 -0.1994
 3313DOPC   C3B38877  34.343  26.175  12.980 -0.1495  0.2248 -0.2244
 3313DOPC   C4B38878  34.353  26.078  12.471 -0.0747  0.2429 -0.1561
 3314DOPC   NC338879  30.784  24.293  15.205  0.1731 -0.0220 -0.1669
 3314DOPC   PO438880  30.530  24.577  15.288  0.0102 -0.0492 -0.0778
 3314DOPC   GL138881  30.340  24.608  14.973 -0.1171  0.1079  0.1880
 3314DOPC   GL238882  30.449  24.357  14.789  0.2945 -0.1765 -0.0684
 3314DOPC   C1A38883  30.155  24.843  14.625 -0.0859  0.0910  0.1574
 3314DOPC   D2A38884  30.036  24.667  14.183  0.0574  0.0219 -0.2249
 3314DOPC   C3A38885  29.836  24.393  13.792 -0.2673  0.2433 -0.0112
 3314DOPC   C4A38886  29.616  24.163  13.461  0.0024 -0.1081 -0.0617
 3314DOPC   C1B38887  30.352  24.138  14.327 -0.0701 -0.0795  0.2670
 3314DOPC   D2B38888  30.174  23.999  13.902 -0.1181  0.0067 -0.2310
 3314DOPC   C3B38889  30.156  24.140  13.445 -0.1983 -0.1253  0.0910
 3314DOPC   C4B38890  30.273  23.829  13.183 -0.3314 -0.1223 -0.1738
 3315DOPC   NC338891  28.146  26.110  15.307  0.2340 -0.1191  0.0157
 3315DOPC   PO438892  27.767  26.094  15.276  0.2350  0.1780  0.1177
 3315DOPC   GL138893  27.703  26.363  15.113  0.0870 -0.0914 -0.0369
 3315DOPC   GL238894  27.982  26.473  15.039 -0.0475  0.0072  0.0026
 3315DOPC   C1A38895  27.406  26.504  14.788  0.2001  0.0553  0.2024
 3315DOPC   D2A38896  27.181  26.532  14.372  0.0898 -0.1506 -0.0857
 3315DOPC   C3A38897  27.262  26.810  13.996  0.1118 -0.0281  0.0268
 3315DOPC   C4A38898  27.494  26.960  13.667  0.2555 -0.0255 -0.3283
 3315DOPC   C1B38899  27.757  26.828  14.877  0.1475 -0.0825  0.0982
 3315DOPC   D2B38900  27.636  26.934  14.431  0.0593  0.1417 -0.3302
 3315DOPC   C3B38901  27.999  27.148  14.182 -0.0004 -0.2411  0.0192
 3315DOPC   C4B38902  28.221  27.539  14.219 -0.0727 -0.1509 -0.2756
 3316DOPC   NC338903  31.172  33.827  15.483 -0.4347  0.3953  0.3510
 3316DOPC   PO438904  31.315  34.000  15.167 -0.0038  0.1184  0.0107
 3316DOPC   GL138905  31.382  34.158  14.834 -0.0685  0.2323  0.0096
 3316DOPC   GL238906  31.602  33.943  14.721  0.2328  0.0211  0.0304
 3316DOPC   C1A38907  31.305  34.504  14.521  0.1770 -0.0531  0.0417
 3316DOPC   D2A38908  31.136  34.603  14.078  0.1677  0.0117 -0.0043
 3316DOPC   C3A38909  30.732  34.643  14.245  0.0547 -0.2231  0.0873
 3316DOPC   C4A38910  30.383  34.872  14.379  0.1463  0.4593 -0.4737
 3316DOPC   C1B38911  31.695  33.689  14.324 -0.1425  0.0411  0.0722
 3316DOPC   D2B38912  31.586  33.678  13.879 -0.1977 -0.3647 -0.3459
 3316DOPC   C3B38913  31.601  33.333  13.563 -0.0504 -0.0700  0.0857
 3316DOPC   C4B38914  31.485  32.840  13.592  0.1493  0.1985 -0.1391
 3317DOPS   CNO38915  31.823  30.716  15.571 -0.2441  0.0283 -0.0380
 3317DOPS   PO438916  31.478  30.621  15.534  0.1010 -0.2845  0.1169
 3317DOPS   GL138917  31.426  30.460  15.191  0.0993  0.0148  0.2729
 3317DOPS   GL238918  31.361  30.169  15.297 -0.0679 -0.0899 -0.0317
 3317DOPS   C1A38919  31.283  30.510  14.739  0.1940 -0.0727 -0.2945
 3317DOPS   D2A38920  31.273  30.224  14.447  0.1292 -0.0290  0.0684
 3317DOPS   C3A38921  31.014  29.863  14.493 -0.0930 -0.0049  0.0767
 3317DOPS   C4A38922  30.719  29.700  14.802  0.3275 -0.1743  0.0397
 3317DOPS   C1B38923  31.428  30.034  14.904 -0.3138  0.2226  0.0711
 3317DOPS   D2B38924  31.653  29.874  14.550  0.0019  0.0414  0.1834
 3317DOPS   C3B38925  31.387  29.804  14.165 -0.0122  0.0177  0.0906
 3317DOPS   C4B38926  31.180  29.569  13.836 -0.2176 -0.3267  0.0455
 3318DOPC   NC338927  27.550  27.356  15.706 -0.0497  0.1109 -0.1898
 3318DOPC   PO438928  27.802  27.072  15.856  0.2475 -0.3116 -0.0711
 3318DOPC   GL138929  28.090  27.059  15.491  0.1459 -0.1928 -0.2090
 3318DOPC   GL238930  28.330  27.025  15.517  0.0583  0.1636  0.4677
 3318DOPC   C1A38931  28.164  27.426  15.170  0.0216  0.1448  0.3289
 3318DOPC   D2A38932  28.029  27.748  14.913 -0.0485  0.1421  0.1627
 3318DOPC   C3A38933  27.924  27.854  14.514 -0.5166  0.1445 -0.2438
 3318DOPC   C4A38934  27.555  27.792  14.193 -0.0222 -0.0049 -0.0094
 3318DOPC   C1B38935  28.242  26.848  15.153  0.0401  0.2162  0.0160
 3318DOPC   D2B38936  28.217  26.756  14.639 -0.1231 -0.0104  0.0459
 3318DOPC   C3B38937  28.291  26.619  14.212  0.1217  0.0778 -0.0415
 3318DOPC   C4B38938  28.537  26.373  13.923 -0.0005  0.1357 -0.3238
 3319DOPS   CNO38939  31.050  31.391  15.898  0.0594 -0.1730 -0.2048
 3319DOPS   PO438940  31.182  31.641  15.685  0.1364 -0.5149 -0.2972
 3319DOPS   GL138941  30.943  31.526  15.317  0.1616 -0.3768  0.1913
 3319DOPS   GL238942  31.135  31.245  15.325  0.2597 -0.0500 -0.4817
 3319DOPS   C1A38943  30.905  31.666  14.891  0.2749 -0.0971 -0.2984
 3319DOPS   D2A38944  31.105  31.722  14.503 -0.2712  0.1113  0.2524
 3319DOPS   C3A38945  30.918  31.639  14.076  0.0901  0.1377 -0.1966
 3319DOPS   C4A38946  30.659  31.424  13.746  0.2576  0.1145  0.1133
 3319DOPS   C1B38947  31.010  31.177  14.927 -0.3085  0.1163 -0.2529
 3319DOPS   D2B38948  30.968  31.220  14.513 -0.2051 -0.0228 -0.1439
 3319DOPS   C3B38949  30.589  31.344  14.286 -0.0738 -0.0787  0.1700
 3319DOPS   C4B38950  30.262  31.131  14.078 -0.2180 -0.0970  0.1565
 3320POSM   NC338951   0.877  23.893  14.485 -0.2339 -0.0364  0.0429
 3320POSM   PO438952   0.509  23.829  14.296 -0.1637 -0.3314 -0.1881
 3320POSM   AM138953   0.329  23.984  14.075  0.2028 -0.1501 -0.3529
 3320POSM   AM238954   0.076  24.053  14.082 -0.4735 -0.0650 -0.1613
 3320POSM   T1A38955   0.222  24.182  13.626 -0.0425 -0.1076  0.1167
 3320POSM   C2A38956   0.179  24.629  13.518  0.0293  0.3467  0.3848
 3320POSM   C3A38957   0.059  24.935  13.231 -0.2387 -0.0679  0.1762
 3320POSM   C1B38958  -0.200  24.167  13.914 -0.0879 -0.0201 -0.6619
 3320POSM   D2B38959  -0.556  24.233  13.613  0.0530 -0.1311 -0.1077
 3320POSM   C3B38960  -0.801  23.953  13.335 -0.1890 -0.1070 -0.1442
 3320POSM   C4B38961  -0.841  23.741  12.896 -0.1671 -0.2320  0.1002
 3321DOPS   CNO38962  25.949  31.609  15.763  0.2470 -0.1982 -0.0868
 3321DOPS   PO438963  26.049  31.345  15.501  0.3977  0.4191 -0.2024
 3321DOPS   GL138964  25.979  31.361  15.126  0.0874 -0.3381  0.1083
 3321DOPS   GL238965  26.229  31.265  14.975  0.1520 -0.2147  0.0867
 3321DOPS   C1A38966  25.837  31.395  14.690  0.0199 -0.0750 -0.1397
 3321DOPS   D2A38967  25.982  31.310  14.291 -0.0301  0.0503  0.0822
 3321DOPS   C3A38968  25.687  31.322  13.891 -0.1707 -0.2624 -0.2935
 3321DOPS   C4A38969  25.342  31.021  13.883 -0.0368  0.1046 -0.1853
 3321DOPS   C1B38970  26.461  31.162  14.591  0.2515 -0.0030 -0.0480
 3321DOPS   D2B38971  26.583  30.889  14.196 -0.0308  0.0271  0.1986
 3321DOPS   C3B38972  26.810  30.493  13.998 -0.0783  0.2838 -0.1983
 3321DOPS   C4B38973  26.984  30.426  13.614 -0.0180  0.0952  0.0892
 3322DOPS   CNO38974  23.622  24.818  15.211  0.1472 -0.1557 -0.0216
 3322DOPS   PO438975  23.657  25.143  14.943 -0.2196  0.1153  0.0295
 3322DOPS   GL138976  23.771  25.131  14.494 -0.5669  0.0429 -0.0589
 3322DOPS   GL238977  23.954  24.844  14.417 -0.0569  0.2291 -0.0503
 3322DOPS   C1A38978  24.093  25.304  14.244 -0.0117  0.0709 -0.3016
 3322DOPS   D2A38979  24.162  25.697  14.015  0.3216  0.0581  0.0554
 3322DOPS   C3A38980  24.331  26.039  14.311 -0.0432 -0.2347  0.1550
 3322DOPS   C4A38981  24.651  26.138  14.689 -0.3519  0.1014 -0.0880
 3322DOPS   C1B38982  23.858  24.888  14.019 -0.2399  0.1215  0.0848
 3322DOPS   D2B38983  23.926  24.856  13.576 -0.0683  0.1419  0.0506
 3322DOPS   C3B38984  24.039  25.224  13.262 -0.1457 -0.3309  0.0540
 3322DOPS   C4B38985  24.074  25.695  13.152  0.0853 -0.2070 -0.0416
 3323DOPE   NH338986  26.158  29.233  16.056  0.1993  0.1302 -0.3429
 3323DOPE   PO438987  26.334  29.295  15.764  0.0988 -0.1709  0.0576
 3323DOPE   GL138988  26.393  29.223  15.371  0.2845 -0.2084 -0.0442
 3323DOPE   GL238989  26.223  29.399  15.234  0.1303  0.1160 -0.1897
 3323DOPE   C1A38990  26.676  29.223  15.011 -0.1375 -0.0494 -0.2374
 3323DOPE   D2A38991  26.946  28.849  15.000 -0.2681  0.1208  0.1681
 3323DOPE   C3A38992  27.217  28.733  14.606  0.0392 -0.1538 -0.0507
 3323DOPE   C4A38993  27.319  28.585  14.190  0.0947 -0.2766 -0.3126
 3323DOPE   C1B38994  26.169  28.980  15.060  0.1993  0.1069  0.0699
 3323DOPE   D2B38995  26.023  28.726  14.757  0.0822  0.2880  0.2511
 3323DOPE   C3B38996  26.090  28.850  14.341 -0.2078  0.0012  0.1286
 3323DOPE   C4B38997  26.215  28.660  13.925 -0.0098 -0.2714  0.0541
 3324DOPE   NH338998  32.957  27.020  14.776  0.0619  0.1148 -0.3349
 3324DOPE   PO438999  32.677  26.858  14.716  0.2223 -0.3634 -0.3584
 3324DOPE   GL139000  32.560  26.980  14.273  0.4974  0.2512  0.1143
 3324DOPE   GL239001  32.752  26.867  14.136  0.1413 -0.0934  0.2188
 3324DOPE   C1A39002  32.214  27.170  14.089 -0.0979  0.0416 -0.1681
 3324DOPE   D2A39003  32.019  27.393  13.828  0.2840  0.0106 -0.0241
 3324DOPE   C3A39004  31.898  27.459  13.393  0.0345 -0.1630 -0.3006
 3324DOPE   C4A39005  31.625  27.586  13.036  0.0364  0.4173 -0.1196
 3324DOPE   C1B39006  32.562  26.970  13.725  0.1589 -0.2829  0.1972
 3324DOPE   D2B39007  32.173  27.067  13.479 -0.1717 -0.1057  0.2185
 3324DOPE   C3B39008  32.347  26.900  13.120  0.0935 -0.0406 -0.1513
 3324DOPE   C4B39009  32.163  26.961  12.662 -0.2505 -0.0160 -0.1247
 3325DOPE   NH339010  30.607  34.118  15.137 -0.2098  0.1540  0.2696
 3325DOPE   PO439011  30.840  34.069  15.285  0.0457  0.1908  0.0314
 3325DOPE   GL139012  30.934  33.957  14.861  0.0179 -0.0474 -0.2119
 3325DOPE   GL239013  30.736  33.821  14.697 -0.1910 -0.0376 -0.0414
 3325DOPE   C1A39014  31.161  33.759  14.501  0.2940 -0.1726 -0.0666
 3325DOPE   D2A39015  31.075  33.598  14.061  0.0224 -0.0395  0.3711
 3325DOPE   C3A39016  30.790  33.951  13.866 -0.1080  0.0514  0.0702
 3325DOPE   C4A39017  30.887  34.356  13.681 -0.3341  0.3821 -0.1668
 3325DOPE   C1B39018  30.555  33.723  14.297 -0.2094  0.0529 -0.2643
 3325DOPE   D2B39019  30.367  33.562  13.920  0.1696  0.1985 -0.5413
 3325DOPE   C3B39020  30.626  33.455  13.562 -0.1782 -0.0312  0.2432
 3325DOPE   C4B39021  31.017  33.664  13.395 -0.0366  0.1319 -0.0959
 3326DOPC   NC339022  27.869  28.680  15.881 -0.0803  0.1087  0.0715
 3326DOPC   PO439023  27.537  28.467  16.002 -0.0408 -0.2475 -0.1512
 3326DOPC   GL139024  27.499  28.394  15.680  0.0395 -0.1894  0.0752
 3326DOPC   GL239025  27.693  28.445  15.501  0.2704 -0.2252 -0.0629
 3326DOPC   C1A39026  27.276  28.463  15.252 -0.2376 -0.1856  0.0357
 3326DOPC   D2A39027  27.203  28.284  14.854  0.2600 -0.3757  0.0885
 3326DOPC   C3A39028  27.172  28.173  14.380  0.5619 -0.3329 -0.2742
 3326DOPC   C4A39029  27.180  28.000  13.933 -0.0165 -0.0624  0.2460
 3326DOPC   C1B39030  27.817  28.217  15.160 -0.2968  0.2882 -0.3423
 3326DOPC   D2B39031  27.536  27.963  14.828  0.0466  0.0070 -0.0834
 3326DOPC   C3B39032  27.452  27.518  14.588 -0.1146 -0.1237 -0.2761
 3326DOPC   C4B39033  27.466  27.292  14.166  0.2588  0.2375 -0.1373
 3327DOPC   NC339034   1.036  26.969  14.594 -0.0380  0.0035 -0.1510
 3327DOPC   PO439035   1.257  27.323  14.592  0.1741 -0.1611  0.2065
 3327DOPC   GL139036   1.281  27.132  14.211  0.1093 -0.1832  0.1897
 3327DOPC   GL239037   1.403  27.278  13.943 -0.1736 -0.0247 -0.5450
 3327DOPC   C1A39038   1.154  26.823  13.949  0.2187  0.1633  0.0448
 3327DOPC   D2A39039   0.715  26.708  13.790 -0.1841 -0.0110  0.1016
 3327DOPC   C3A39040   0.387  26.986  13.710 -0.4016 -0.1339 -0.1948
 3327DOPC   C4A39041  -0.066  27.032  13.748  0.2773  0.1888 -0.0225
 3327DOPC   C1B39042   1.116  27.186  13.584 -0.0284  0.2200 -0.4630
 3327DOPC   D2B39043   1.054  27.308  13.088 -0.2485 -0.1750  0.0084
 3327DOPC   C3B39044   0.792  27.148  12.776  0.1559  0.1439 -0.1875
 3327DOPC   C4B39045   0.344  27.251  12.594  0.0673  0.2262  0.2117
 3328POSM   NC339046  26.849  26.835  15.444  0.0413  0.1719  0.2787
 3328POSM   PO439047  27.132  26.999  15.652 -0.0981 -0.1364  0.1891
 3328POSM   AM139048  27.146  27.225  15.406  0.1472  0.4103  0.0447
 3328POSM   AM239049  27.230  27.469  15.276 -0.2341 -0.0743  0.1337
 3328POSM   T1A39050  27.240  27.087  14.941  0.0309 -0.0699 -0.0331
 3328POSM   C2A39051  27.091  27.025  14.530 -0.1087  0.0438  0.4526
 3328POSM   C3A39052  26.632  27.077  14.421  0.0363 -0.2504  0.0390
 3328POSM   C1B39053  27.188  27.619  14.990  0.1084  0.1022  0.0701
 3328POSM   D2B39054  27.019  27.840  14.693 -0.0132 -0.1478 -0.0630
 3328POSM   C3B39055  26.907  27.791  14.235 -0.0373  0.0579  0.0119
 3328POSM   C4B39056  26.949  27.629  13.751 -0.0428  0.3717  0.2126
 3329POSM   NC339057  24.175  34.214  15.198  0.0297 -0.0146 -0.1194
 3329POSM   PO439058  24.418  34.561  15.308 -0.0868 -0.1643 -0.0179
 3329POSM   AM139059  24.582  34.460  15.032  0.2710 -0.4381  0.1136
 3329POSM   AM239060  24.643  34.187  14.912 -0.2764  0.2210 -0.3775
 3329POSM   T1A39061  24.490  34.537  14.529  0.0907 -0.1956 -0.1515
 3329POSM   C2A39062  24.157  34.441  14.246 -0.0104  0.1228  0.0138
 3329POSM   C3A39063  23.824  34.458  13.917  0.0525  0.1008 -0.2071
 3329POSM   C1B39064  24.650  34.061  14.615 -0.2211  0.1848  0.2421
 3329POSM   D2B39065  24.581  34.074  14.143  0.0478  0.2187 -0.1116
 3329POSM   C3B39066  24.660  33.727  13.876 -0.1819 -0.2862  0.0562
 3329POSM   C4B39067  24.809  33.327  13.987 -0.0329  0.0425 -0.0997
 3330DOPE   NH339068  26.125  27.233  15.670  0.0315  0.1479 -0.1217
 3330DOPE   PO439069  26.254  27.055  15.426  0.0707  0.1021 -0.1112
 3330DOPE   GL139070  26.234  27.012  15.077  0.2300 -0.0278 -0.1317
 3330DOPE   GL239071  26.119  26.783  15.051 -0.0046 -0.2825 -0.2071
 3330DOPE   C1A39072  26.128  27.076  14.617 -0.2489 -0.1720  0.0803
 3330DOPE   D2A39073  26.253  27.335  14.277 -0.1293 -0.1436 -0.2907
 3330DOPE   C3A39074  26.519  27.267  13.929 -0.2433 -0.0655 -0.4113
 3330DOPE   C4A39075  26.950  27.232  14.128  0.0326 -0.2129 -0.2233
 3330DOPE   C1B39076  26.333  26.634  14.722  0.3382 -0.2263 -0.1015
 3330DOPE   D2B39077  26.720  26.653  14.557 -0.1758 -0.0151 -0.0592
 3330DOPE   C3B39078  26.720  26.696  14.087  0.1085 -0.4280  0.1421
 3330DOPE   C4B39079  26.449  26.844  13.743  0.2036 -0.0244 -0.0802
 3331DOPE   NH339080  25.562  28.203  15.381 -0.2692 -0.2412 -0.0957
 3331DOPE   PO439081  25.821  28.315  15.540  0.1794 -0.2212 -0.2062
 3331DOPE   GL139082  26.016  28.425  15.261 -0.1795  0.0756 -0.0308
 3331DOPE   GL239083  25.941  28.306  15.037  0.0608 -0.2483 -0.2953
 3331DOPE   C1A39084  26.417  28.510  15.067  0.0914 -0.0294 -0.1644
 3331DOPE   D2A39085  26.506  28.810  14.673 -0.1465  0.2366  0.5035
 3331DOPE   C3A39086  26.632  28.877  14.282 -0.1931 -0.0556  0.3380
 3331DOPE   C4A39087  26.702  29.106  13.949 -0.0691 -0.0935 -0.0887
 3331DOPE   C1B39088  25.645  28.078  14.761 -0.3857 -0.0446  0.2800
 3331DOPE   D2B39089  25.430  27.896  14.457 -0.2590 -0.2541  0.0675
 3331DOPE   C3B39090  25.137  28.237  14.364 -0.1919  0.0486  0.0849
 3331DOPE   C4B39091  24.871  28.625  14.486  0.1760 -0.0116  0.2169
 3332DOPE   NH339092  30.471   2.245  15.058 -0.1332 -0.0103 -0.0526
 3332DOPE   PO439093  30.190   2.363  14.983 -0.1262  0.2188 -0.0090
 3332DOPE   GL139094  30.149   2.383  14.587 -0.0906 -0.0746 -0.3119
 3332DOPE   GL239095  30.394   2.285  14.511 -0.2976 -0.3082  0.1697
 3332DOPE   C1A39096  29.999   2.289  14.164  0.0488  0.2443 -0.0296
 3332DOPE   D2A39097  29.763   2.147  13.801 -0.0001  0.1743 -0.2729
 3332DOPE   C3A39098  29.553   2.421  13.562 -0.0101 -0.4358 -0.3212
 3332DOPE   C4A39099  29.110   2.600  13.497  0.2156  0.0942  0.0214
 3332DOPE   C1B39100  30.499   1.827  14.285 -0.4589  0.0655  0.0818
 3332DOPE   D2B39101  30.566   1.777  13.805  0.1057 -0.2825  0.0070
 3332DOPE   C3B39102  30.364   1.424  13.503  0.0504 -0.0173  0.1585
 3332DOPE   C4B39103  30.244   1.132  13.145 -0.3518  0.1221 -0.1144
 3333DOPC   NC339104  24.522  25.160  15.205 -0.2181  0.1953  0.0281
 3333DOPC   PO439105  24.694  24.788  15.207  0.1807  0.1333  0.0820
 3333DOPC   GL139106  24.825  24.751  14.889 -0.4793  0.2428 -0.1149
 3333DOPC   GL239107  24.700  24.643  14.699 -0.2181  0.0603  0.1214
 3333DOPC   C1A39108  25.210  24.742  14.641  0.2914  0.2113 -0.0637
 3333DOPC   D2A39109  25.431  24.870  14.325 -0.0524 -0.0697 -0.1927
 3333DOPC   C3A39110  25.430  24.936  13.863  0.1531 -0.2216 -0.3289
 3333DOPC   C4A39111  25.412  25.208  13.450 -0.1383 -0.4120 -0.2738
 3333DOPC   C1B39112  24.696  24.459  14.292  0.0925  0.1608  0.0135
 3333DOPC   D2B39113  24.675  24.447  13.802 -0.0266 -0.3439  0.3089
 3333DOPC   C3B39114  24.779  24.552  13.329 -0.0726  0.2444 -0.0569
 3333DOPC   C4B39115  25.124  24.692  13.101  0.1709 -0.0934  0.1922
 3334DOPC   NC339116  25.948  30.068  15.282  0.1165 -0.0146 -0.5102
 3334DOPC   PO439117  25.565  30.152  15.345  0.1537 -0.0561 -0.1356
 3334DOPC   GL139118  25.593  30.404  15.118 -0.0586  0.0862 -0.3645
 3334DOPC   GL239119  25.912  30.530  15.055  0.0113 -0.0019 -0.0653
 3334DOPC   C1A39120  25.578  30.495  14.671 -0.0948 -0.0694  0.1756
 3334DOPC   D2A39121  25.438  30.727  14.268 -0.0497  0.0849  0.0389
 3334DOPC   C3A39122  25.699  30.560  13.936  0.0502  0.0277  0.0269
 3334DOPC   C4A39123  25.906  30.203  13.689  0.1893  0.1522  0.2944
 3334DOPC   C1B39124  26.006  30.845  14.706  0.1556  0.1335 -0.0199
 3334DOPC   D2B39125  26.041  30.865  14.218  0.2993  0.1184 -0.1527
 3334DOPC   C3B39126  26.246  31.116  13.894  0.3011  0.1741 -0.0840
 3334DOPC   C4B39127  26.318  31.533  13.676  0.0784  0.0484  0.2148
 3335POSM   NC339128  28.844  28.592  16.104  0.4046  0.2449 -0.0309
 3335POSM   PO439129  28.603  28.752  15.841 -0.3208 -0.0381  0.1043
 3335POSM   AM139130  28.621  28.929  15.557 -0.0548  0.0915 -0.2556
 3335POSM   AM239131  28.477  29.032  15.332 -0.0849 -0.0264  0.1316
 3335POSM   T1A39132  28.980  29.048  15.168  0.1519  0.0540  0.2318
 3335POSM   C2A39133  29.093  29.420  14.897 -0.0393 -0.3300  0.0236
 3335POSM   C3A39134  29.124  29.883  14.793  0.3434  0.2235 -0.1189
 3335POSM   C1B39135  28.507  28.981  14.989 -0.0714 -0.0657 -0.1732
 3335POSM   D2B39136  28.513  29.236  14.578 -0.0144  0.2407  0.1670
 3335POSM   C3B39137  28.941  29.297  14.454 -0.0125  0.2719  0.2980
 3335POSM   C4B39138  29.392  29.501  14.538  0.0141  0.2126  0.0223
 3336DOPC   NC339139  24.293   1.168  15.080  0.1210  0.4944 -0.2961
 3336DOPC   PO439140  23.969   1.321  14.955 -0.0382 -0.0954  0.4813
 3336DOPC   GL139141  23.811   1.295  14.580 -0.0364  0.0143 -0.1316
 3336DOPC   GL239142  23.585   1.534  14.643 -0.1959 -0.1620 -0.0426
 3336DOPC   C1A39143  23.802   1.583  14.209  0.1333 -0.3975 -0.0902
 3336DOPC   D2A39144  23.456   1.602  13.836 -0.0689 -0.2457  0.0430
 3336DOPC   C3A39145  23.378   1.286  13.520 -0.0244 -0.0456 -0.0601
 3336DOPC   C4A39146  23.377   0.768  13.496  0.1492 -0.0768 -0.0172
 3336DOPC   C1B39147  23.435   1.290  14.311  0.2918  0.2459  0.1825
 3336DOPC   D2B39148  23.510   0.980  13.983  0.0993 -0.2201  0.0073
 3336DOPC   C3B39149  23.852   1.084  13.757 -0.1284  0.0247 -0.0348
 3336DOPC   C4B39150  23.836   1.482  13.506 -0.0038 -0.1043 -0.0759
 3337DOPE   NH339151  32.140  27.753  14.945 -0.0439 -0.2322  0.0755
 3337DOPE   PO439152  32.159  27.431  15.034  0.0408 -0.1380 -0.2182
 3337DOPE   GL139153  31.963  27.403  14.610  0.4696 -0.0355  0.3451
 3337DOPE   GL239154  32.054  27.561  14.478  0.1981  0.1309  0.0560
 3337DOPE   C1A39155  31.682  27.147  14.313 -0.2205 -0.0079 -0.2840
 3337DOPE   D2A39156  31.398  26.841  14.150 -0.1178  0.2034  0.0455
 3337DOPE   C3A39157  31.009  26.789  14.342 -0.3309  0.2618  0.4386
 3337DOPE   C4A39158  30.703  26.574  14.564 -0.1947  0.5017 -0.1659
 3337DOPE   C1B39159  31.879  27.747  14.142  0.1362  0.1002  0.0958
 3337DOPE   D2B39160  31.611  27.755  13.709 -0.0892 -0.1684  0.2538
 3337DOPE   C3B39161  31.217  27.553  13.686  0.1072 -0.1978  0.0032
 3337DOPE   C4B39162  31.113  27.501  13.205 -0.0229  0.0446  0.0718
 3338DOPC   NC339163  26.690  32.761  15.310  0.2155 -0.0422  0.0592
 3338DOPC   PO439164  26.667  32.437  15.559 -0.1230 -0.1840  0.3460
 3338DOPC   GL139165  26.862  32.315  15.168 -0.2517  0.1077  0.1204
 3338DOPC   GL239166  26.563  32.219  15.043 -0.0402  0.0877 -0.1362
 3338DOPC   C1A39167  27.206  32.585  15.012  0.0628  0.3591  0.0278
 3338DOPC   D2A39168  27.377  32.961  15.032 -0.0566  0.2197  0.0757
 3338DOPC   C3A39169  27.600  33.102  14.621 -0.1311  0.0789 -0.2354
 3338DOPC   C4A39170  27.629  33.403  14.348 -0.1140 -0.2339  0.0456
 3338DOPC   C1B39171  26.738  32.502  14.683  0.3928 -0.1822 -0.2099
 3338DOPC   D2B39172  26.827  32.409  14.231  0.2847 -0.1534 -0.0139
 3338DOPC   C3B39173  26.589  32.535  13.843  0.0494 -0.1734 -0.0180
 3338DOPC   C4B39174  26.552  32.433  13.403  0.1830  0.0961 -0.1277
 3339DOPE   NH339175  24.459  32.570  15.102  0.2422  0.2567  0.0109
 3339DOPE   PO439176  24.425  32.882  15.192 -0.0263  0.0815 -0.0363
 3339DOPE   GL139177  24.229  33.034  14.878 -0.0650  0.2576 -0.0604
 3339DOPE   GL239178  24.067  32.823  14.785 -0.1431 -0.0617 -0.1860
 3339DOPE   C1A39179  24.346  33.231  14.446 -0.2348  0.0005 -0.0678
 3339DOPE   D2A39180  24.252  33.437  14.053  0.0102 -0.0561 -0.0386
 3339DOPE   C3A39181  24.448  33.374  13.694  0.1250 -0.1174 -0.0763
 3339DOPE   C4A39182  24.509  33.505  13.232 -0.5285  0.1923 -0.0290
 3339DOPE   C1B39183  23.828  33.175  14.654 -0.3117 -0.1219 -0.0209
 3339DOPE   D2B39184  23.830  33.514  14.417  0.1003 -0.1460  0.0703
 3339DOPE   C3B39185  23.745  33.543  13.931  0.2323  0.2645  0.2212
 3339DOPE   C4B39186  23.410  33.304  13.720  0.1174 -0.0228  0.3536
 3340DOPE   NH339187  32.929  23.970  14.671 -0.0407 -0.0647 -0.1027
 3340DOPE   PO439188  33.166  23.925  14.449  0.5135  0.0197  0.0830
 3340DOPE   GL139189  33.150  24.043  14.135 -0.5629  0.2489  0.2628
 3340DOPE   GL239190  33.280  23.831  13.981 -0.1680 -0.1019  0.3332
 3340DOPE   C1A39191  33.186  24.252  13.739 -0.0649  0.1858 -0.0351
 3340DOPE   D2A39192  32.983  24.612  13.540 -0.1497  0.2159  0.1048
 3340DOPE   C3A39193  32.543  24.653  13.530  0.2478  0.2440 -0.1646
 3340DOPE   C4A39194  32.132  24.390  13.598  0.0680  0.1434 -0.0126
 3340DOPE   C1B39195  33.393  23.822  13.529 -0.0992 -0.4357  0.1695
 3340DOPE   D2B39196  33.562  23.580  13.150 -0.0868  0.0970 -0.3210
 3340DOPE   C3B39197  33.093  23.496  12.943  0.0152 -0.2282 -0.0897
 3340DOPE   C4B39198  32.807  23.164  12.888  0.1566  0.1048 -0.0891
 3341DOPC   NC339199  27.988  25.640  15.157  0.2173  0.1051  0.3828
 3341DOPC   PO439200  28.108  25.285  15.301 -0.1326  0.1933  0.0687
 3341DOPC   GL139201  28.219  25.253  14.829 -0.1512 -0.4466 -0.3571
 3341DOPC   GL239202  28.406  25.489  14.859  0.2905 -0.0383  0.2050
 3341DOPC   C1A39203  28.160  25.420  14.407 -0.0553 -0.1265  0.1600
 3341DOPC   D2A39204  28.396  25.442  14.039 -0.1555 -0.1214  0.1110
 3341DOPC   C3A39205  28.356  25.303  13.628 -0.0922 -0.1485 -0.0417
 3341DOPC   C4A39206  28.075  25.018  13.387 -0.2543 -0.2159  0.0487
 3341DOPC   C1B39207  28.629  25.406  14.492  0.0205 -0.1187  0.0517
 3341DOPC   D2B39208  28.887  25.367  14.094 -0.1167 -0.1067 -0.0085
 3341DOPC   C3B39209  28.758  25.541  13.671  0.4336 -0.0575  0.2236
 3341DOPC   C4B39210  28.604  25.912  13.457  0.0787 -0.1696  0.0146
 3342DOPC   NC339211  27.461  30.641  15.484 -0.2181  0.0605  0.0531
 3342DOPC   PO439212  27.824  30.644  15.392  0.3255 -0.1401  0.1075
 3342DOPC   GL139213  27.789  30.422  15.024 -0.0208 -0.0024 -0.1268
 3342DOPC   GL239214  28.058  30.470  14.963  0.1102 -0.0531 -0.2846
 3342DOPC   C1A39215  27.841  30.115  14.673 -0.2078  0.1214 -0.1813
 3342DOPC   D2A39216  27.510  30.069  14.341 -0.0520  0.1383 -0.2248
 3342DOPC   C3A39217  27.034  30.099  14.312  0.3147 -0.3598  0.0337
 3342DOPC   C4A39218  26.602  30.008  14.211 -0.0391 -0.1087 -0.2761
 3342DOPC   C1B39219  28.388  30.252  14.856  0.3314 -0.0409 -0.1570
 3342DOPC   D2B39220  28.262  30.115  14.429  0.1901  0.0148  0.1440
 3342DOPC   C3B39221  27.913  30.335  14.231 -0.0696 -0.0219 -0.2296
 3342DOPC   C4B39222  27.767  30.513  13.894  0.0454 -0.1264 -0.0388
 3343DOPC   NC339223   1.750  31.249  14.043  0.2180 -0.3054 -0.0068
 3343DOPC   PO439224   1.628  31.609  14.190 -0.2062  0.0896  0.1148
 3343DOPC   GL139225   1.419  31.584  13.849 -0.0678  0.1187 -0.2531
 3343DOPC   GL239226   1.072  31.573  13.808  0.2996  0.1175 -0.2355
 3343DOPC   C1A39227   1.244  31.527  13.372  0.0695  0.1846  0.0360
 3343DOPC   D2A39228   1.120  31.134  13.091 -0.0808 -0.2167  0.2983
 3343DOPC   C3A39229   1.276  31.025  12.643  0.0624  0.2243 -0.0492
 3343DOPC   C4A39230   1.510  31.030  12.251 -0.1668 -0.2017 -0.0666
 3343DOPC   C1B39231   1.039  32.017  13.578 -0.3022 -0.2553  0.0544
 3343DOPC   D2B39232   0.887  32.369  13.288 -0.0200 -0.2204 -0.1085
 3343DOPC   C3B39233   0.904  32.444  12.816  0.2869  0.4811 -0.2411
 3343DOPC   C4B39234   0.966  32.051  12.543 -0.1100  0.1525  0.0494
 3344DOPC   NC339235  22.948  26.624  14.367 -0.1473 -0.2668 -0.0673
 3344DOPC   PO439236  22.618  26.549  14.493 -0.0004 -0.1392 -0.0719
 3344DOPC   GL139237  22.566  26.550  14.082 -0.2779 -0.1773 -0.4623
 3344DOPC   GL239238  22.500  26.251  14.061 -0.0352  0.3338  0.2224
 3344DOPC   C1A39239  22.664  26.802  13.713  0.0732  0.1790  0.1496
 3344DOPC   D2A39240  22.811  26.634  13.285 -0.3423  0.2079 -0.0334
 3344DOPC   C3A39241  22.894  26.172  13.237 -0.0272 -0.2988  0.2044
 3344DOPC   C4A39242  22.956  25.979  12.794  0.0771 -0.1468 -0.0940
 3344DOPC   C1B39243  22.397  26.365  13.631 -0.2278  0.2622 -0.3434
 3344DOPC   D2B39244  22.368  26.268  13.195  0.2153  0.3114  0.4940
 3344DOPC   C3B39245  22.191  26.543  12.875 -0.2002  0.0047  0.3332
 3344DOPC   C4B39246  21.722  26.649  12.825  0.1258 -0.4721  0.1734
 3345DOPC   NC339247  27.759  29.728  15.598  0.1796  0.1773 -0.1400
 3345DOPC   PO439248  27.557  29.402  15.654 -0.1616  0.1411  0.3576
 3345DOPC   GL139249  27.689  29.210  15.351 -0.1679 -0.0800  0.1831
 3345DOPC   GL239250  27.626  29.405  15.158  0.0100 -0.1671  0.2511
 3345DOPC   C1A39251  27.932  28.838  15.244 -0.0009 -0.2539 -0.0787
 3345DOPC   D2A39252  28.205  28.522  15.019  0.2957 -0.0061 -0.1476
 3345DOPC   C3A39253  28.194  28.546  14.507 -0.2370 -0.0376 -0.0736
 3345DOPC   C4A39254  27.925  28.660  14.148  0.0060  0.0782  0.0143
 3345DOPC   C1B39255  27.609  29.242  14.705  0.0419 -0.0949 -0.3383
 3345DOPC   D2B39256  27.573  29.117  14.330  0.5083  0.1357 -0.3963
 3345DOPC   C3B39257  27.236  29.299  14.001  0.4017  0.3938 -0.2502
 3345DOPC   C4B39258  27.040  29.433  13.637  0.1052 -0.0722  0.3187
 3346DOPE   NH339259  30.707  31.123  16.280 -0.0912  0.0247 -0.3084
 3346DOPE   PO439260  30.520  31.387  16.230  0.3708 -0.1928 -0.0833
 3346DOPE   GL139261  30.532  31.336  15.848 -0.0862 -0.0261  0.0192
 3346DOPE   GL239262  30.667  31.170  15.664  0.2657  0.0305  0.0104
 3346DOPE   C1A39263  30.316  31.510  15.450 -0.1820  0.1301  0.5088
 3346DOPE   D2A39264  30.075  31.557  15.081  0.1649  0.0935 -0.0891
 3346DOPE   C3A39265  30.260  31.757  14.657 -0.0410 -0.1097 -0.3098
 3346DOPE   C4A39266  30.619  31.926  14.421 -0.2626 -0.1190  0.0056
 3346DOPE   C1B39267  30.635  31.216  15.228 -0.3100 -0.0386 -0.1485
 3346DOPE   D2B39268  30.551  31.339  14.780  0.3127 -0.0263  0.0493
 3346DOPE   C3B39269  30.111  31.171  14.561 -0.1578 -0.0878  0.2327
 3346DOPE   C4B39270  29.733  30.913  14.394  0.1552 -0.0234 -0.0073
 3347DOPE   NH339271  27.604  32.769  15.533  0.1924 -0.1923 -0.2352
 3347DOPE   PO439272  27.630  32.480  15.689 -0.0573  0.1517  0.3026
 3347DOPE   GL139273  27.531  32.167  15.323 -0.0631 -0.3736  0.0678
 3347DOPE   GL239274  27.651  32.383  15.155 -0.3636  0.1768  0.1923
 3347DOPE   C1A39275  27.360  32.013  14.907 -0.0308 -0.2575 -0.0865
 3347DOPE   D2A39276  27.015  31.975  14.557  0.0206 -0.2273  0.2473
 3347DOPE   C3A39277  26.565  32.087  14.551  0.4303  0.2523  0.3683
 3347DOPE   C4A39278  26.157  32.325  14.710  0.2870 -0.1820  0.0581
 3347DOPE   C1B39279  27.667  32.564  14.758 -0.2237  0.2246  0.1693
 3347DOPE   D2B39280  27.939  32.785  14.452 -0.4208  0.4220 -0.2876
 3347DOPE   C3B39281  27.942  32.728  13.974  0.1571  0.0309 -0.1219
 3347DOPE   C4B39282  27.886  32.349  13.674 -0.1513  0.0361  0.0769
 3348POSM   NC339283  29.735  32.381  16.281 -0.1259 -0.0115 -0.1978
 3348POSM   PO439284  30.034  32.484  16.002 -0.1465 -0.0266  0.3303
 3348POSM   AM139285  29.853  32.374  15.731 -0.1930  0.0680  0.3239
 3348POSM   AM239286  29.740  32.109  15.693 -0.1755  0.4656 -0.0860
 3348POSM   T1A39287  29.642  32.428  15.247  0.1619 -0.1136 -0.0342
 3348POSM   C2A39288  29.433  32.179  14.922 -0.1229  0.1472 -0.0220
 3348POSM   C3A39289  29.176  32.017  14.588 -0.0034 -0.1439  0.1971
 3348POSM   C1B39290  30.046  31.983  15.507 -0.0392  0.1450  0.1165
 3348POSM   D2B39291  30.468  32.095  15.417 -0.2358  0.0514 -0.1820
 3348POSM   C3B39292  30.572  32.057  14.949  0.0044 -0.0692 -0.0866
 3348POSM   C4B39293  30.949  32.183  14.683  0.0423 -0.0640  0.1922
 3349DOPC   NC339294  31.299  25.306  14.441  0.1740  0.2018  0.1091
 3349DOPC   PO439295  31.343  25.707  14.526 -0.2472  0.2897 -0.0659
 3349DOPC   GL139296  31.383  25.820  14.193 -0.0511 -0.2091  0.2754
 3349DOPC   GL239297  31.117  25.855  14.114  0.1545  0.2434  0.1755
 3349DOPC   C1A39298  31.399  26.194  13.947 -0.0338  0.0157  0.1971
 3349DOPC   D2A39299  31.418  26.588  13.704 -0.0561 -0.0893 -0.2344
 3349DOPC   C3A39300  31.739  26.795  13.399 -0.1811  0.0427  0.3168
 3349DOPC   C4A39301  31.760  27.108  13.032 -0.1392 -0.0886 -0.0311
 3349DOPC   C1B39302  31.008  25.555  13.741  0.0206 -0.1605  0.0904
 3349DOPC   D2B39303  30.629  25.576  13.539  0.1912  0.0225  0.0127
 3349DOPC   C3B39304  30.270  25.961  13.536 -0.0798 -0.2728 -0.0062
 3349DOPC   C4B39305  29.944  26.219  13.743 -0.4681  0.0576 -0.1416
 3350POSM   NC339306  29.252  27.254  15.584 -0.1747 -0.1617  0.1426
 3350POSM   PO439307  29.265  26.866  15.726  0.0369  0.1263  0.1804
 3350POSM   AM139308  29.341  26.724  15.419 -0.2929 -0.3800  0.0102
 3350POSM   AM239309  29.316  26.755  15.141 -0.1323  0.3437  0.1855
 3350POSM   T1A39310  29.673  26.392  15.198 -0.1791  0.1939  0.1543
 3350POSM   C2A39311  29.891  25.989  14.961 -0.1695 -0.1449  0.1860
 3350POSM   C3A39312  30.378  25.956  14.903 -0.0600  0.1740  0.0710
 3350POSM   C1B39313  29.199  26.928  14.870 -0.3557 -0.0626  0.0705
 3350POSM   D2B39314  28.989  27.196  14.549  0.0195 -0.0193 -0.1909
 3350POSM   C3B39315  28.940  27.255  14.106 -0.0839 -0.0722 -0.0888
 3350POSM   C4B39316  28.679  27.392  13.814  0.3283 -0.1978  0.2522
 3351POSM   NC339317  22.692   0.096  15.409  0.2500 -0.2912 -0.0419
 3351POSM   PO439318  22.448  -0.152  15.211  0.1182 -0.0201 -0.1718
 3351POSM   AM139319  22.362  -0.226  14.944 -0.1606 -0.0898  0.0855
 3351POSM   AM239320  22.326  -0.113  14.671  0.1869 -0.0245 -0.1345
 3351POSM   T1A39321  22.066  -0.531  14.663  0.1079 -0.1565  0.0766
 3351POSM   C2A39322  21.800  -0.902  14.498  0.1300 -0.0352  0.2965
 3351POSM   C3A39323  21.767  -1.419  14.427  0.0977  0.1268  0.0486
 3351POSM   C1B39324  22.354  -0.284  14.364 -0.1459 -0.4216  0.2314
 3351POSM   D2B39325  22.140  -0.674  14.108 -0.0939 -0.0204 -0.2552
 3351POSM   C3B39326  22.317  -0.809  13.661 -0.0346  0.1010 -0.1593
 3351POSM   C4B39327  22.689  -0.776  13.432 -0.1120 -0.1783 -0.0096
 3352DOPS   CNO39328  29.300  31.276  15.912 -0.1146 -0.2579 -0.2535
 3352DOPS   PO439329  28.968  31.121  15.737  0.0480 -0.1538 -0.3063
 3352DOPS   GL139330  28.957  31.037  15.359 -0.1464 -0.5033 -0.2584
 3352DOPS   GL239331  28.950  30.761  15.171  0.2256  0.2849 -0.1476
 3352DOPS   C1A39332  29.196  31.107  14.922  0.0017  0.0542 -0.0136
 3352DOPS   D2A39333  29.237  31.133  14.433  0.2012 -0.0672 -0.3897
 3352DOPS   C3A39334  29.300  31.452  14.088  0.0337  0.0572  0.1360
 3352DOPS   C4A39335  29.199  31.714  13.717  0.2571 -0.0680  0.1058
 3352DOPS   C1B39336  28.780  30.820  14.706  0.0407  0.0040  0.1187
 3352DOPS   D2B39337  28.921  30.757  14.266  0.0208  0.1051  0.1801
 3352DOPS   C3B39338  29.011  31.111  14.003 -0.1359 -0.0285 -0.1195
 3352DOPS   C4B39339  28.864  31.326  13.576 -0.1382  0.4980  0.2870
 3353DOPC   NC339340  24.780  30.681  15.500 -0.0359 -0.0562 -0.0964
 3353DOPC   PO439341  24.845  30.848  15.147 -0.1738 -0.0156  0.1402
 3353DOPC   GL139342  24.800  30.984  14.737 -0.3714  0.1119 -0.0795
 3353DOPC   GL239343  24.565  30.849  14.639 -0.0687  0.0505  0.1905
 3353DOPC   C1A39344  24.991  30.943  14.307 -0.3037 -0.0174  0.1544
 3353DOPC   D2A39345  24.900  31.056  13.871  0.0538  0.1781 -0.0055
 3353DOPC   C3A39346  24.595  30.768  13.663 -0.1550 -0.2666 -0.1700
 3353DOPC   C4A39347  24.175  30.771  13.408  0.0007 -0.1170 -0.2102
 3353DOPC   C1B39348  24.365  31.216  14.491 -0.0590 -0.2343  0.1500
 3353DOPC   D2B39349  23.880  31.186  14.335  0.1626 -0.2945  0.0891
 3353DOPC   C3B39350  23.663  31.490  14.109  0.2218  0.3506  0.0353
 3353DOPC   C4B39351  23.463  31.595  13.751  0.0393  0.0142  0.4126
 3354DOPE   NH339352  25.172  32.109  15.311 -0.0427 -0.0883  0.0892
 3354DOPE   PO439353  25.244  31.818  15.195  0.2006 -0.1544 -0.0014
 3354DOPE   GL139354  25.179  31.687  14.832 -0.0379 -0.3570 -0.1963
 3354DOPE   GL239355  25.411  31.616  14.653  0.3487 -0.3666 -0.0529
 3354DOPE   C1A39356  25.076  31.910  14.476 -0.1430  0.1032 -0.3590
 3354DOPE   D2A39357  25.395  31.893  14.111  0.2571 -0.1357 -0.0795
 3354DOPE   C3A39358  25.235  32.249  13.827  0.0615 -0.0925  0.1142
 3354DOPE   C4A39359  25.072  32.347  13.420 -0.1374  0.0163 -0.0022
 3354DOPE   C1B39360  25.403  31.397  14.260 -0.0169  0.4608  0.0746
 3354DOPE   D2B39361  25.094  31.506  13.923 -0.0534 -0.0991  0.4918
 3354DOPE   C3B39362  25.262  31.384  13.493 -0.1738  0.0533 -0.1146
 3354DOPE   C4B39363  25.462  31.189  13.122 -0.1094  0.0737 -0.0988
 3355DOPE   NH339364  30.712  25.272  15.104 -0.2120  0.0237  0.3141
 3355DOPE   PO439365  30.496  25.100  15.084 -0.0635 -0.1479  0.1365
 3355DOPE   GL139366  30.600  25.018  14.696 -0.5297  0.1434 -0.0521
 3355DOPE   GL239367  30.861  25.124  14.625 -0.2374 -0.1117 -0.0295
 3355DOPE   C1A39368  30.528  24.819  14.281  0.0127 -0.1613 -0.0006
 3355DOPE   D2A39369  30.424  24.491  13.912  0.1897 -0.0492 -0.0186
 3355DOPE   C3A39370  30.583  24.483  13.469  0.1092 -0.1716  0.2298
 3355DOPE   C4A39371  30.757  24.583  13.026 -0.1446  0.0893 -0.3339
 3355DOPE   C1B39372  30.625  25.300  14.239 -0.4829  0.1168 -0.2377
 3355DOPE   D2B39373  30.464  25.690  14.100  0.0832  0.1463 -0.1911
 3355DOPE   C3B39374  30.725  25.958  13.872 -0.1805 -0.2620 -0.3496
 3355DOPE   C4B39375  30.955  26.169  13.552 -0.3456  0.0471 -0.2945
 3356DOPC   NC339376  33.285  32.690  14.844  0.2178 -0.1011 -0.1596
 3356DOPC   PO439377  32.915  32.677  14.998  0.1185  0.0396 -0.1622
 3356DOPC   GL139378  32.879  32.539  14.687  0.1884  0.1613  0.0503
 3356DOPC   GL239379  32.993  32.678  14.442  0.3156  0.3114  0.0213
 3356DOPC   C1A39380  32.483  32.517  14.395 -0.0460  0.1640 -0.1210
 3356DOPC   D2A39381  32.416  32.295  14.020  0.2470  0.2435 -0.0758
 3356DOPC   C3A39382  32.174  32.499  13.690 -0.0956 -0.1754 -0.0482
 3356DOPC   C4A39383  31.975  32.662  13.306  0.2673  0.1532  0.3576
 3356DOPC   C1B39384  32.878  32.279  14.256 -0.0606  0.0275 -0.0891
 3356DOPC   D2B39385  32.854  32.199  13.800  0.0982 -0.0769 -0.3475
 3356DOPC   C3B39386  32.759  31.729  13.696  0.0630 -0.0833  0.2460
 3356DOPC   C4B39387  32.365  31.483  13.668  0.2621  0.1681 -0.1848
 3357POSM   NC339388  32.432  32.489  15.736 -0.0242  0.1098  0.0100
 3357POSM   PO439389  32.340  32.809  15.531  0.1456 -0.1806  0.1847
 3357POSM   AM139390  32.090  32.912  15.360 -0.2210  0.0004  0.0339
 3357POSM   AM239391  31.828  33.067  15.359 -0.0762 -0.3714  0.1194
 3357POSM   T1A39392  31.964  33.040  14.930  0.0115  0.0724  0.0374
 3357POSM   C2A39393  31.785  32.995  14.467 -0.2044 -0.1305  0.2293
 3357POSM   C3A39394  31.527  32.600  14.295  0.3206  0.0820  0.2938
 3357POSM   C1B39395  31.485  33.063  15.210  0.0686 -0.1854 -0.1851
 3357POSM   D2B39396  31.104  32.997  15.000 -0.2915 -0.0265  0.0790
 3357POSM   C3B39397  31.219  32.899  14.568  0.1105 -0.1819 -0.0299
 3357POSM   C4B39398  31.140  32.925  14.118  0.1556 -0.2142  0.4282
 3358POSM   NC339399  25.578   0.346  15.325 -0.3243 -0.4571  0.0814
 3358POSM   PO439400  25.661  -0.023  15.459  0.0459 -0.1036 -0.1079
 3358POSM   AM139401  25.733  -0.107  15.155  0.0856 -0.0884 -0.1283
 3358POSM   AM239402  25.575  -0.003  14.924  0.1402  0.0901 -0.1553
 3358POSM   T1A39403  26.026  -0.119  14.753  0.2643 -0.1463  0.3278
 3358POSM   C2A39404  25.948  -0.039  14.277  0.1033  0.2326  0.3124
 3358POSM   C3A39405  25.883  -0.149  13.864  0.0696  0.0449 -0.3348
 3358POSM   C1B39406  25.536   0.091  14.613  0.1554  0.1859 -0.1267
 3358POSM   D2B39407  25.200   0.189  14.287  0.2714  0.0898 -0.1353
 3358POSM   C3B39408  25.598   0.302  14.083 -0.0509  0.2580 -0.2077
 3358POSM   C4B39409  25.663   0.344  13.597 -0.0582 -0.1250  0.2008
 3359DOPC   NC339410  32.431   0.304  14.508 -0.0111  0.2874 -0.0413
 3359DOPC   PO439411  32.818   0.275  14.531 -0.0687 -0.3120 -0.0679
 3359DOPC   GL139412  32.744   0.119  14.186 -0.0927  0.6452 -0.1039
 3359DOPC   GL239413  32.740   0.373  14.004 -0.2121  0.3005 -0.1243
 3359DOPC   C1A39414  32.485  -0.113  13.854  0.1766 -0.0353  0.1038
 3359DOPC   D2A39415  32.438  -0.243  13.441  0.0091  0.0301  0.1830
 3359DOPC   C3A39416  32.099  -0.347  13.136 -0.2239 -0.0360  0.1297
 3359DOPC   C4A39417  31.995  -0.225  12.700  0.1040  0.0922 -0.0234
 3359DOPC   C1B39418  32.759   0.512  13.581  0.0445  0.0177 -0.1685
 3359DOPC   D2B39419  32.598   0.554  13.197  0.1447 -0.0403  0.0924
 3359DOPC   C3B39420  32.561   0.904  12.873 -0.0858 -0.0758 -0.3534
 3359DOPC   C4B39421  32.443   1.153  12.481 -0.2002  0.1217 -0.0276
 3360DOPS   CNO39422  26.456  33.062  15.622  0.1855  0.0303  0.0479
 3360DOPS   PO439423  26.224  32.820  15.459 -0.2370 -0.0082 -0.1370
 3360DOPS   GL139424  26.447  33.104  15.088 -0.3238 -0.1074 -0.4399
 3360DOPS   GL239425  26.205  33.210  14.968  0.2994  0.1920 -0.0817
 3360DOPS   C1A39426  26.554  33.035  14.578 -0.1102  0.0090 -0.2471
 3360DOPS   D2A39427  26.440  33.442  14.439 -0.3625  0.2627  0.0370
 3360DOPS   C3A39428  26.584  33.463  13.961 -0.0254 -0.2026  0.0032
 3360DOPS   C4A39429  26.574  33.584  13.497  0.2694  0.0871  0.2089
 3360DOPS   C1B39430  26.062  32.873  14.663  0.3925  0.0129 -0.2505
 3360DOPS   D2B39431  26.331  32.631  14.349  0.0602 -0.1255 -0.2282
 3360DOPS   C3B39432  26.291  32.217  14.125  0.0221  0.1613  0.1463
 3360DOPS   C4B39433  26.367  32.088  13.693  0.1721  0.1942  0.0148
 3361DOPE   NH339434  34.472  27.570  14.921 -0.1064 -0.3270  0.0807
 3361DOPE   PO439435  34.433  27.462  14.665 -0.0833 -0.1983 -0.2773
 3361DOPE   GL139436  34.345  27.693  14.346 -0.0565  0.3768  0.1785
 3361DOPE   GL239437  34.422  27.922  14.365  0.3104 -0.2386  0.1229
 3361DOPE   C1A39438  34.373  27.590  13.923  0.1050  0.0786 -0.2290
 3361DOPE   D2A39439  34.469  27.385  13.582  0.3074 -0.0224  0.1807
 3361DOPE   C3A39440  34.273  27.479  13.159  0.2329  0.0661 -0.2330
 3361DOPE   C4A39441  34.204  27.431  12.713  0.1405  0.2396 -0.1654
 3361DOPE   C1B39442  34.205  28.019  13.909 -0.0300  0.2003 -0.1755
 3361DOPE   D2B39443  34.124  27.810  13.500  0.2584 -0.2085  0.1349
 3361DOPE   C3B39444  34.183  28.042  13.097 -0.1563  0.2145  0.1497
 3361DOPE   C4B39445  34.428  28.044  12.684  0.1021 -0.0541  0.1279
 3362DOPS   CNO39446  26.893  32.914  15.762  0.0641 -0.0125  0.1648
 3362DOPS   PO439447  27.162  33.020  15.503 -0.0484 -0.3406 -0.0255
 3362DOPS   GL139448  27.004  33.160  15.155 -0.3926  0.2984 -0.1716
 3362DOPS   GL239449  26.893  32.932  14.898 -0.0954 -0.1369  0.1973
 3362DOPS   C1A39450  27.141  33.306  14.720 -0.0336  0.2173  0.0935
 3362DOPS   D2A39451  27.151  33.175  14.270  0.1764  0.0096  0.1916
 3362DOPS   C3A39452  27.512  33.035  14.036 -0.2264  0.1611 -0.3810
 3362DOPS   C4A39453  27.535  32.740  13.668 -0.0159 -0.0598 -0.2754
 3362DOPS   C1B39454  27.219  32.767  14.550  0.0246  0.1225 -0.0380
 3362DOPS   D2B39455  27.551  32.558  14.266 -0.1332 -0.0498  0.1460
 3362DOPS   C3B39456  27.300  32.220  14.037  0.0284 -0.0337 -0.0527
 3362DOPS   C4B39457  27.124  32.011  13.630 -0.0539  0.1571  0.3044
 3363DOPS   CNO39458  27.222  25.244  15.575 -0.0772  0.0018  0.1906
 3363DOPS   PO439459  27.247  25.252  15.201 -0.0298  0.0774 -0.0000
 3363DOPS   GL139460  27.633  25.274  15.076  0.3702  0.2731 -0.0434
 3363DOPS   GL239461  27.709  25.025  14.975  0.0541  0.0891  0.2801
 3363DOPS   C1A39462  27.784  25.529  14.701  0.0519  0.0922 -0.0432
 3363DOPS   D2A39463  27.562  25.603  14.268 -0.1987  0.1421  0.0685
 3363DOPS   C3A39464  27.918  25.588  13.975  0.0674 -0.0444  0.2137
 3363DOPS   C4A39465  28.286  25.904  13.866  0.1379  0.2756  0.0251
 3363DOPS   C1B39466  27.786  25.027  14.477 -0.0699  0.1688 -0.3606
 3363DOPS   D2B39467  27.934  24.955  14.065 -0.0534  0.4624 -0.0190
 3363DOPS   C3B39468  27.725  25.170  13.739 -0.2649 -0.0799  0.1384
 3363DOPS   C4B39469  27.600  25.458  13.448  0.0924  0.0981 -0.2537
 3364POSM   NC339470  26.566  31.558  15.865 -0.3558  0.0452  0.0898
 3364POSM   PO439471  26.897  31.502  15.646 -0.0751  0.0974 -0.2510
 3364POSM   AM139472  26.949  31.517  15.328  0.1341 -0.2301  0.0232
 3364POSM   AM239473  27.144  31.559  15.147 -0.0293  0.2018 -0.0578
 3364POSM   T1A39474  26.788  31.172  14.989  0.0250 -0.3033  0.2768
 3364POSM   C2A39475  26.683  30.780  14.791 -0.1104 -0.0973  0.2570
 3364POSM   C3A39476  26.639  30.422  14.500  0.2156  0.3165 -0.2293
 3364POSM   C1B39477  27.199  31.566  14.789 -0.3492 -0.3277 -0.2716
 3364POSM   D2B39478  27.305  31.417  14.368 -0.3667  0.1650 -0.0647
 3364POSM   C3B39479  27.436  30.958  14.404 -0.2500 -0.0381 -0.1550
 3364POSM   C4B39480  27.644  30.546  14.575 -0.4179  0.0549 -0.1532
 3365POSM   NC339481  31.911  28.009  15.568 -0.2100 -0.2666 -0.4364
 3365POSM   PO439482  31.806  27.996  15.210  0.0278  0.0903  0.2054
 3365POSM   AM139483  31.730  27.925  14.920 -0.1117  0.0468  0.0316
 3365POSM   AM239484  31.655  27.696  14.825  0.0633  0.0079  0.2065
 3365POSM   T1A39485  31.669  28.089  14.493 -0.0802 -0.2479 -0.1077
 3365POSM   C2A39486  31.432  28.095  14.088  0.0909 -0.0871  0.3228
 3365POSM   C3A39487  31.180  28.047  13.645  0.1036 -0.0023  0.1583
 3365POSM   C1B39488  31.484  27.627  14.558 -0.0866  0.1104  0.1157
 3365POSM   D2B39489  31.347  27.585  14.157 -0.1058 -0.1368  0.4118
 3365POSM   C3B39490  30.961  27.852  14.014 -0.5357 -0.0138 -0.1190
 3365POSM   C4B39491  30.696  28.123  13.733  0.1320  0.0115  0.0059
 3366DOPC   NC339492  26.428  25.403  14.917 -0.0523 -0.0551 -0.1144
 3366DOPC   PO439493  26.339  25.053  14.933  0.1255 -0.0055 -0.0330
 3366DOPC   GL139494  26.580  25.080  14.523 -0.1913  0.0187 -0.1016
 3366DOPC   GL239495  26.797  25.200  14.642 -0.2564  0.2364 -0.1684
 3366DOPC   C1A39496  26.387  25.240  14.179 -0.0191  0.0009 -0.0567
 3366DOPC   D2A39497  26.254  25.393  13.774 -0.2281  0.2380  0.0878
 3366DOPC   C3A39498  26.389  25.376  13.288  0.4047 -0.0144 -0.0390
 3366DOPC   C4A39499  26.105  25.438  12.944  0.3388 -0.0194 -0.1244
 3366DOPC   C1B39500  26.848  25.066  14.166 -0.0706 -0.1352  0.0759
 3366DOPC   D2B39501  26.868  24.982  13.725  0.3941 -0.3874 -0.1153
 3366DOPC   C3B39502  27.278  24.958  13.533 -0.1339 -0.0524  0.2476
 3366DOPC   C4B39503  27.588  25.016  13.247 -0.1948  0.1571  0.0250
 3367POSM   NC339504  29.163   3.614  14.884 -0.1135  0.1036  0.1170
 3367POSM   PO439505  29.008   3.288  14.854  0.2921  0.0731 -0.3012
 3367POSM   AM139506  28.912   3.338  14.566 -0.0407 -0.3455  0.4839
 3367POSM   AM239507  28.777   3.564  14.454 -0.0897  0.1620  0.3100
 3367POSM   T1A39508  29.046   3.314  14.093 -0.0011  0.1113 -0.2535
 3367POSM   C2A39509  28.965   3.024  13.749 -0.1908  0.0137 -0.2162
 3367POSM   C3A39510  28.755   2.929  13.341  0.1056  0.3916 -0.0268
 3367POSM   C1B39511  28.756   3.723  14.151  0.2670 -0.2439  0.0654
 3367POSM   D2B39512  28.609   4.017  13.736 -0.1683  0.0075 -0.0224
 3367POSM   C3B39513  28.837   3.968  13.360  0.0280 -0.1445  0.2669
 3367POSM   C4B39514  29.001   3.934  12.944 -0.0302  0.1142 -0.0252
 3368DOPC   NC339515  28.414  31.459  15.578  0.0310  0.0790 -0.1585
 3368DOPC   PO439516  28.468  31.816  15.418  0.0444 -0.2578 -0.0576
 3368DOPC   GL139517  28.319  31.900  15.103 -0.0637 -0.1858 -0.3769
 3368DOPC   GL239518  28.257  32.197  15.110  0.2394  0.1971 -0.1443
 3368DOPC   C1A39519  27.875  31.937  14.929 -0.1744 -0.1508 -0.0805
 3368DOPC   D2A39520  27.704  32.066  14.516 -0.1299 -0.0539  0.3374
 3368DOPC   C3A39521  27.779  31.898  14.095 -0.1020  0.1229  0.1664
 3368DOPC   C4A39522  27.576  31.917  13.724 -0.4381 -0.0249  0.2225
 3368DOPC   C1B39523  28.178  32.263  14.654  0.0739  0.1056  0.0788
 3368DOPC   D2B39524  28.091  32.300  14.177 -0.1081  0.2750 -0.1217
 3368DOPC   C3B39525  28.468  32.103  13.986 -0.0561 -0.1122  0.0367
 3368DOPC   C4B39526  28.626  31.766  13.694  0.0857  0.3027 -0.0112
 3369POSM   NC339527  28.721  29.280  15.915 -0.0665  0.2392 -0.1975
 3369POSM   PO439528  28.360  29.397  15.901 -0.0345 -0.0353  0.5170
 3369POSM   AM139529  28.409  29.442  15.588 -0.2391 -0.1313  0.2302
 3369POSM   AM239530  28.168  29.431  15.372  0.1687  0.0648 -0.1786
 3369POSM   T1A39531  28.612  29.493  15.126 -0.0332 -0.0654  0.1154
 3369POSM   C2A39532  28.531  29.718  14.676  0.0463  0.0937 -0.2771
 3369POSM   C3A39533  28.292  29.640  14.254  0.0060 -0.3407 -0.0227
 3369POSM   C1B39534  28.133  29.290  15.082  0.4890 -0.2510  0.3602
 3369POSM   D2B39535  28.015  28.946  14.759 -0.2752 -0.0665 -0.1003
 3369POSM   C3B39536  28.067  29.156  14.351  0.2374  0.0104  0.0782
 3369POSM   C4B39537  28.343  29.264  13.952  0.0034  0.1876  0.0330
 3370POSM   NC339538  31.652  24.764  14.921  0.2170  0.3625 -0.0875
 3370POSM   PO439539  31.360  24.962  14.845 -0.0590 -0.2659 -0.0022
 3370POSM   AM139540  31.320  24.816  14.519  0.1805 -0.1995 -0.0040
 3370POSM   AM239541  31.406  24.572  14.348  0.3939 -0.1442 -0.0418
 3370POSM   T1A39542  31.040  24.920  14.121 -0.1070  0.0737 -0.1975
 3370POSM   C2A39543  30.679  24.934  13.783 -0.0164  0.1847 -0.1569
 3370POSM   C3A39544  30.190  24.941  13.782 -0.0559  0.1596  0.0063
 3370POSM   C1B39545  31.446  24.625  14.005  0.0277 -0.1642  0.2917
 3370POSM   D2B39546  31.354  24.669  13.534 -0.1875  0.0176 -0.0020
 3370POSM   C3B39547  30.963  24.932  13.305  0.1469 -0.1968  0.1921
 3370POSM   C4B39548  30.735  25.340  13.129  0.0842 -0.0736 -0.0065
 3371DOPC   NC339549  24.731  28.370  15.732 -0.1573  0.1753  0.4548
 3371DOPC   PO439550  25.005  28.519  15.461  0.3649 -0.1202  0.1886
 3371DOPC   GL139551  25.160  28.437  15.169  0.2818 -0.2579  0.1713
 3371DOPC   GL239552  24.965  28.542  14.934 -0.0899  0.0309  0.1830
 3371DOPC   C1A39553  25.500  28.551  14.872  0.0735  0.2083 -0.2066
 3371DOPC   D2A39554  25.555  28.529  14.432  0.1475 -0.0822  0.0004
 3371DOPC   C3A39555  25.720  28.806  14.084 -0.1192 -0.2732  0.1953
 3371DOPC   C4A39556  25.814  28.758  13.609  0.1611  0.0540 -0.0137
 3371DOPC   C1B39557  25.090  28.117  14.893  0.0910  0.0380  0.1530
 3371DOPC   D2B39558  25.322  27.812  15.079  0.0988 -0.1880 -0.0312
 3371DOPC   C3B39559  25.601  27.597  14.807 -0.0141  0.1488 -0.0305
 3371DOPC   C4B39560  25.775  27.334  14.457 -0.0581  0.1504 -0.2687
 3372DOPE   NH339561  25.700  23.363  15.270  0.0810 -0.0520 -0.0088
 3372DOPE   PO439562  25.548  23.486  15.010  0.1061 -0.1549  0.1321
 3372DOPE   GL139563  25.758  23.829  14.870 -0.1374 -0.0426  0.1992
 3372DOPE   GL239564  25.952  24.059  14.841 -0.3366 -0.0621 -0.0345
 3372DOPE   C1A39565  25.787  23.988  14.395 -0.1424  0.0532  0.1945
 3372DOPE   D2A39566  26.008  23.805  14.077  0.0427  0.2169 -0.2576
 3372DOPE   C3A39567  26.002  24.030  13.665 -0.1433  0.1277 -0.0059
 3372DOPE   C4A39568  25.682  23.960  13.317  0.2160 -0.1644  0.2043
 3372DOPE   C1B39569  26.252  24.162  14.508 -0.0159  0.1068  0.0879
 3372DOPE   D2B39570  26.241  24.293  14.016  0.2950  0.4332 -0.0291
 3372DOPE   C3B39571  26.612  24.466  13.865  0.0449  0.0425 -0.0361
 3372DOPE   C4B39572  27.067  24.527  13.789 -0.1732 -0.3154  0.1111
 3373DOPC   NC339573  23.880  30.421  14.422 -0.4182  0.0534  0.3443
 3373DOPC   PO439574  23.742  30.042  14.490  0.0536  0.0813  0.2613
 3373DOPC   GL139575  23.587  30.029  14.092 -0.2383 -0.1294  0.5120
 3373DOPC   GL239576  23.468  30.309  14.138 -0.4513 -0.0142  0.2226
 3373DOPC   C1A39577  23.722  29.704  13.782  0.0578  0.1135  0.0155
 3373DOPC   D2A39578  23.850  29.259  13.696  0.1036 -0.2380 -0.2238
 3373DOPC   C3A39579  24.329  29.172  13.656  0.2961 -0.0886  0.1595
 3373DOPC   C4A39580  24.755  29.200  13.447  0.1217 -0.0619 -0.2325
 3373DOPC   C1B39581  23.653  30.268  13.674 -0.1353 -0.1023  0.0082
 3373DOPC   D2B39582  23.732  30.496  13.270  0.2559 -0.1395  0.1941
 3373DOPC   C3B39583  23.610  30.976  13.348 -0.0229 -0.2623 -0.2182
 3373DOPC   C4B39584  23.735  31.380  13.192  0.1171 -0.2071 -0.2628
 3374POSM   NC339585  32.278  33.289  15.610 -0.0894 -0.2607 -0.1509
 3374POSM   PO439586  32.152  33.595  15.400 -0.1120  0.0973  0.1638
 3374POSM   AM139587  32.002  33.479  15.136 -0.3056 -0.0118 -0.2660
 3374POSM   AM239588  31.724  33.485  14.979  0.1405  0.0512  0.3224
 3374POSM   T1A39589  32.063  33.414  14.644 -0.1856  0.0430 -0.0699
 3374POSM   C2A39590  32.282  33.172  14.326 -0.0648  0.0439  0.0015
 3374POSM   C3A39591  32.733  33.150  14.263 -0.0717  0.1619  0.0235
 3374POSM   C1B39592  31.522  33.365  14.735 -0.2191  0.4089 -0.1764
 3374POSM   D2B39593  31.414  33.296  14.315  0.3976  0.3306  0.1922
 3374POSM   C3B39594  31.648  33.075  14.026 -0.1558  0.1495  0.0036
 3374POSM   C4B39595  31.983  33.032  13.715  0.0612  0.1825 -0.2233
 3375POSM   NC339596  22.161  34.196  15.281  0.1429 -0.1566 -0.0602
 3375POSM   PO439597  22.363  33.886  15.430  0.0781 -0.0555 -0.3277
 3375POSM   AM139598  22.533  33.974  15.150  0.1701  0.0503  0.1388
 3375POSM   AM239599  22.451  34.043  14.896 -0.1876  0.0913  0.2139
 3375POSM   T1A39600  22.932  34.028  14.886  0.2617  0.0828 -0.2105
 3375POSM   C2A39601  23.212  33.882  14.510 -0.1279 -0.0026  0.1736
 3375POSM   C3A39602  23.243  33.617  14.167  0.2215  0.0583  0.1790
 3375POSM   C1B39603  22.550  34.091  14.560 -0.5254  0.0438  0.1195
 3375POSM   D2B39604  22.636  34.052  14.064 -0.3555  0.3291 -0.1397
 3375POSM   C3B39605  23.038  33.918  13.841 -0.2864 -0.4246  0.2523
 3375POSM   C4B39606  23.389  33.824  13.514  0.2915 -0.2022  0.0172
 3376POSM   NC339607  27.459  31.492  15.601  0.0802  0.1436 -0.1296
 3376POSM   PO439608  27.668  31.152  15.509  0.2417  0.0307 -0.1016
 3376POSM   AM139609  27.583  31.014  15.201 -0.0361  0.1740  0.0684
 3376POSM   AM239610  27.697  30.955  14.959 -0.0654 -0.0978 -0.2274
 3376POSM   T1A39611  27.236  30.898  14.846 -0.0534  0.0930 -0.0128
 3376POSM   C2A39612  26.981  31.007  14.485  0.0583 -0.0284 -0.0565
 3376POSM   C3A39613  27.072  31.008  14.016  0.0196 -0.0234 -0.2478
 3376POSM   C1B39614  27.879  30.995  14.667 -0.0748  0.2450 -0.0173
 3376POSM   D2B39615  27.930  30.905  14.234 -0.1275 -0.0420  0.0895
 3376POSM   C3B39616  28.236  31.068  13.865 -0.0097 -0.2937  0.0992
 3376POSM   C4B39617  28.607  30.817  13.729  0.0989 -0.0550  0.0054
 3377POSM   NC339618  27.510   0.399  15.599  0.2478  0.0096  0.0259
 3377POSM   PO439619  27.857   0.387  15.356  0.1320  0.1297 -0.0633
 3377POSM   AM139620  27.773   0.365  15.024 -0.1310 -0.0309 -0.2022
 3377POSM   AM239621  27.850   0.503  14.819 -0.4176  0.0637  0.0338
 3377POSM   T1A39622  27.409   0.381  14.631 -0.1831  0.2065 -0.1319
 3377POSM   C2A39623  27.172   0.594  14.351  0.3093  0.1878 -0.1318
 3377POSM   C3A39624  27.181   0.986  14.109 -0.3774 -0.0368  0.3883
 3377POSM   C1B39625  27.858   0.440  14.458 -0.2879  0.1360  0.0474
 3377POSM   D2B39626  27.923   0.252  13.988  0.0044 -0.1430 -0.1699
 3377POSM   C3B39627  27.829  -0.039  13.622  0.3149 -0.1627  0.0604
 3377POSM   C4B39628  27.752  -0.438  13.442 -0.1822  0.1025  0.4114
 3378DOPC   NC339629   1.521  28.575  14.672 -0.1114 -0.1431  0.2466
 3378DOPC   PO439630   1.547  28.661  14.294  0.1417 -0.1222  0.1309
 3378DOPC   GL139631   1.323  28.875  14.061 -0.0717  0.0001  0.3803
 3378DOPC   GL239632   1.520  28.998  13.842 -0.0337  0.1558  0.0702
 3378DOPC   C1A39633   1.043  28.738  13.756 -0.3312 -0.0506  0.1636
 3378DOPC   D2A39634   1.059  28.992  13.390 -0.0764 -0.2614 -0.3051
 3378DOPC   C3A39635   0.737  29.311  13.198  0.1244 -0.0178  0.0491
 3378DOPC   C4A39636   0.599  29.774  13.354 -0.0257 -0.0706 -0.3113
 3378DOPC   C1B39637   1.961  28.901  13.684  0.0687  0.2828 -0.0341
 3378DOPC   D2B39638   2.240  28.568  13.695  0.1053  0.0931 -0.0715
 3378DOPC   C3B39639   2.200  28.268  13.358 -0.0067 -0.3526 -0.1393
 3378DOPC   C4B39640   2.067  28.024  13.014 -0.0365 -0.0842 -0.4163
 3379POSM   NC339641  33.420  33.532  14.988  0.5247 -0.0100  0.0649
 3379POSM   PO439642  33.677  33.671  14.749  0.0920  0.0126  0.0445
 3379POSM   AM139643  33.644  33.546  14.464  0.1615  0.1013  0.4082
 3379POSM   AM239644  33.402  33.450  14.266  0.0674  0.1860  0.0191
 3379POSM   T1A39645  33.915  33.321  14.113  0.0736 -0.0420  0.0413
 3379POSM   C2A39646  34.299  33.168  13.843  0.5284 -0.2018  0.1131
 3379POSM   C3A39647  34.726  33.258  13.730 -0.3719  0.3084  0.0453
 3379POSM   C1B39648  33.376  33.389  13.905 -0.1253 -0.2042 -0.0587
 3379POSM   D2B39649  33.313  33.000  13.597 -0.1446  0.2546  0.0114
 3379POSM   C3B39650  32.961  32.978  13.313  0.0142 -0.1647  0.0872
 3379POSM   C4B39651  32.683  33.211  13.142  0.0002 -0.4663 -0.0237
 3380DOPS   CNO39652  28.597  25.429  15.489 -0.0973 -0.0513 -0.0919
 3380DOPS   PO439653  28.470  25.706  15.313 -0.1186  0.2592 -0.1955
 3380DOPS   GL139654  28.360  25.942  14.957 -0.2336  0.0893  0.0357
 3380DOPS   GL239655  28.708  25.946  14.830 -0.0141 -0.1865  0.0210
 3380DOPS   C1A39656  28.151  26.177  14.654  0.1720  0.0772 -0.0951
 3380DOPS   D2A39657  27.843  26.480  14.522  0.0695 -0.1310 -0.1523
 3380DOPS   C3A39658  27.740  26.515  14.087 -0.0585 -0.2380  0.1400
 3380DOPS   C4A39659  27.879  26.253  13.734 -0.2589  0.0133 -0.0889
 3380DOPS   C1B39660  28.994  25.792  14.496  0.3011  0.2061 -0.0142
 3380DOPS   D2B39661  29.355  25.671  14.227 -0.1218 -0.0896 -0.0174
 3380DOPS   C3B39662  29.455  25.795  13.793  0.0505 -0.2017  0.0204
 3380DOPS   C4B39663  29.555  26.125  13.505  0.0242  0.4245 -0.5016
 3381DOPS   CNO39664  21.206  31.741  14.656  0.1413  0.2732  0.1307
 3381DOPS   PO439665  21.227  32.120  14.656  0.0499  0.4326 -0.1628
 3381DOPS   GL139666  21.248  32.075  14.278  0.0345  0.1957  0.1106
 3381DOPS   GL239667  21.035  31.867  14.173 -0.0486  0.0292  0.0286
 3381DOPS   C1A39668  21.450  31.950  13.870  0.0345 -0.0621  0.1225
 3381DOPS   D2A39669  21.340  31.776  13.422  0.1051 -0.0413  0.1395
 3381DOPS   C3A39670  21.294  32.103  13.143  0.1658 -0.0944 -0.1015
 3381DOPS   C4A39671  20.858  32.245  12.967 -0.0151 -0.0940 -0.3044
 3381DOPS   C1B39672  20.953  31.952  13.709  0.3582  0.2209 -0.0555
 3381DOPS   D2B39673  20.960  32.352  13.501  0.1559  0.2290  0.0322
 3381DOPS   C3B39674  20.583  32.547  13.261  0.0874  0.0291  0.0833
 3381DOPS   C4B39675  20.336  32.869  13.039 -0.0818 -0.2396 -0.1205
 3382DOPS   CNO39676  28.505  32.798  15.619  0.1072  0.0908 -0.0729
 3382DOPS   PO439677  28.189  32.990  15.583 -0.1339 -0.1411 -0.0312
 3382DOPS   GL139678  28.064  33.214  15.312  0.0235 -0.1201  0.1389
 3382DOPS   GL239679  27.865  33.070  15.186  0.3110  0.0317  0.2563
 3382DOPS   C1A39680  28.164  33.598  15.086  0.4120 -0.2685  0.1250
 3382DOPS   D2A39681  28.040  33.824  14.665  0.1832 -0.0638 -0.0247
 3382DOPS   C3A39682  28.330  33.771  14.332  0.0736 -0.2265  0.2949
 3382DOPS   C4A39683  28.229  33.653  13.874  0.0407  0.0917  0.0096
 3382DOPS   C1B39684  28.163  32.850  14.926 -0.1156  0.0044 -0.1706
 3382DOPS   D2B39685  28.457  32.727  14.567 -0.1621 -0.0187 -0.2107
 3382DOPS   C3B39686  28.326  33.067  14.290 -0.1722  0.1866 -0.1776
 3382DOPS   C4B39687  28.322  33.109  13.791  0.3672  0.1019  0.2953
 3383POSM   NC339688  31.428  27.341  15.140 -0.0127  0.1573  0.4350
 3383POSM   PO439689  31.355  27.696  15.229 -0.2897  0.1762  0.0420
 3383POSM   AM139690  31.190  27.734  14.946  0.2805  0.0841 -0.0322
 3383POSM   AM239691  31.048  27.535  14.780  0.1906 -0.2281 -0.0623
 3383POSM   T1A39692  31.146  27.995  14.494  0.1342  0.2890  0.0743
 3383POSM   C2A39693  30.996  28.335  14.164 -0.1773  0.0270  0.1958
 3383POSM   C3A39694  30.936  28.696  13.929  0.3739 -0.0723 -0.6792
 3383POSM   C1B39695  30.900  27.455  14.472 -0.1597  0.0256  0.0459
 3383POSM   D2B39696  31.036  27.255  14.036 -0.2125  0.1119  0.4585
 3383POSM   C3B39697  30.837  27.123  13.670  0.0353  0.1601  0.3144
 3383POSM   C4B39698  31.005  26.779  13.403 -0.2871  0.0728 -0.2594
 3384DOPE   NH339699  28.527  34.773  15.744 -0.3066 -0.1765  0.1353
 3384DOPE   PO439700  28.841  34.692  15.666  0.0039 -0.3156 -0.1556
 3384DOPE   GL139701  28.635  34.872  15.311 -0.1387 -0.1394 -0.2713
 3384DOPE   GL239702  28.882  34.839  15.098  0.1616  0.3565  0.1427
 3384DOPE   C1A39703  28.614  35.221  15.014 -0.0631  0.3541  0.1230
 3384DOPE   D2A39704  28.363  35.209  14.618  0.1844  0.3175  0.1790
 3384DOPE   C3A39705  28.416  35.058  14.181 -0.1833 -0.0272 -0.0301
 3384DOPE   C4A39706  28.239  34.685  13.933 -0.1761  0.0164 -0.0674
 3384DOPE   C1B39707  28.702  34.620  14.748 -0.0139 -0.6081  0.1728
 3384DOPE   D2B39708  28.636  34.574  14.313 -0.2320 -0.1150  0.1673
 3384DOPE   C3B39709  28.459  34.285  14.016  0.1150  0.1857 -0.2998
 3384DOPE   C4B39710  28.271  34.164  13.662 -0.0890  0.2981  0.2716
 3385POSM   NC339711  27.917  23.117  15.806 -0.0310 -0.1980 -0.0296
 3385POSM   PO439712  28.239  23.261  15.591  0.3084 -0.0175  0.0030
 3385POSM   AM139713  28.262  23.281  15.291 -0.1427  0.2097  0.2681
 3385POSM   AM239714  28.143  23.204  15.056 -0.2738  0.0049 -0.1565
 3385POSM   T1A39715  28.474  23.558  14.927 -0.0211  0.2700  0.0220
 3385POSM   C2A39716  28.432  23.609  14.430  0.0223  0.4660  0.0293
 3385POSM   C3A39717  28.406  23.870  14.022 -0.0983  0.6584 -0.0458
 3385POSM   C1B39718  28.205  23.191  14.668  0.0717  0.5301 -0.1214
 3385POSM   D2B39719  28.379  23.122  14.262 -0.2789  0.1597 -0.1326
 3385POSM   C3B39720  28.344  23.172  13.753  0.1875 -0.0591 -0.0996
 3385POSM   C4B39721  28.407  22.979  13.353 -0.0002  0.1103  0.0868
 3386DOPS   CNO39722  29.631  28.984  15.573  0.1906 -0.0589  0.1031
 3386DOPS   PO439723  29.921  28.791  15.722 -0.2172 -0.0250 -0.1698
 3386DOPS   GL139724  29.836  28.599  15.338 -0.2225  0.4011 -0.2367
 3386DOPS   GL239725  29.933  28.550  15.125  0.0777 -0.0640  0.1322
 3386DOPS   C1A39726  29.418  28.736  15.173 -0.2072  0.3901  0.1519
 3386DOPS   D2A39727  29.178  28.640  14.827  0.0592  0.1168  0.1386
 3386DOPS   C3A39728  29.373  28.382  14.477  0.0813 -0.2187 -0.1191
 3386DOPS   C4A39729  29.466  28.407  14.028  0.1823  0.0168 -0.2285
 3386DOPS   C1B39730  29.745  28.604  14.720 -0.0032 -0.0445  0.0996
 3386DOPS   D2B39731  29.784  28.763  14.283  0.2617  0.1616  0.1270
 3386DOPS   C3B39732  29.696  28.807  13.839 -0.1511  0.0334  0.0225
 3386DOPS   C4B39733  29.778  28.931  13.351 -0.0985 -0.1443 -0.1050
 3387POSM   NC339734  33.230  29.200  14.955 -0.0163 -0.0652 -0.3898
 3387POSM   PO439735  33.482  29.479  15.092  0.0725 -0.0399 -0.2514
 3387POSM   AM139736  33.394  29.714  14.866 -0.0085  0.5011 -0.1219
 3387POSM   AM239737  33.140  29.760  14.790 -0.0015  0.0133  0.0588
 3387POSM   T1A39738  33.524  29.980  14.451  0.4007  0.0900 -0.2344
 3387POSM   C2A39739  33.741  30.391  14.414  0.0180 -0.1248 -0.1886
 3387POSM   C3A39740  33.596  30.782  14.178  0.0682 -0.3764  0.4195
 3387POSM   C1B39741  33.102  29.750  14.467  0.0399  0.2813  0.0828
 3387POSM   D2B39742  33.201  29.937  14.052 -0.1790 -0.0573 -0.0644
 3387POSM   C3B39743  33.327  29.771  13.631 -0.0316 -0.0700 -0.0565
 3387POSM   C4B39744  33.664  29.586  13.322 -0.4477  0.0691  0.0262
 3388POSM   NC339745  28.699  26.804  16.027  0.1559  0.2812 -0.0231
 3388POSM   PO439746  28.775  27.155  15.830  0.2361  0.0187 -0.1964
 3388POSM   AM139747  28.786  27.070  15.537 -0.0323 -0.3014  0.1805
 3388POSM   AM239748  28.892  26.864  15.401  0.0739 -0.0103  0.3816
 3388POSM   T1A39749  28.578  27.189  15.099 -0.0079  0.3476 -0.1583
 3388POSM   C2A39750  28.511  27.266  14.661  0.0012  0.1726  0.1089
 3388POSM   C3A39751  28.481  27.110  14.216  0.2359  0.0742 -0.2704
 3388POSM   C1B39752  28.780  26.758  15.078  0.0999 -0.1256  0.0499
 3388POSM   D2B39753  28.749  26.723  14.588 -0.2259  0.0469  0.0484
 3388POSM   C3B39754  28.839  26.312  14.386  0.1077  0.0930 -0.0279
 3388POSM   C4B39755  28.810  25.925  14.078 -0.1098  0.0826 -0.2651
 3389POSM   NC339756  21.632  31.256  14.691  0.3192  0.0164 -0.1356
 3389POSM   PO439757  21.703  30.905  14.699 -0.0354  0.1503 -0.1948
 3389POSM   AM139758  21.838  30.905  14.392 -0.0294  0.1820  0.0691
 3389POSM   AM239759  21.880  31.125  14.218  0.1578 -0.0047 -0.0313
 3389POSM   T1A39760  22.104  30.650  14.064  0.0411  0.2533  0.0959
 3389POSM   C2A39761  21.991  30.461  13.598  0.1855 -0.0342 -0.0964
 3389POSM   C3A39762  22.043  30.499  13.170  0.3218 -0.4050  0.0738
 3389POSM   C1B39763  21.675  31.026  13.921  0.1880 -0.3591 -0.0471
 3389POSM   D2B39764  21.675  30.979  13.474 -0.3097  0.0146 -0.0967
 3389POSM   C3B39765  22.028  31.042  13.189 -0.4924  0.0197  0.1798
 3389POSM   C4B39766  22.429  31.142  12.951 -0.0869  0.0751 -0.0868
 3390DOPE   NH339767   0.858  29.897  14.439 -0.1912  0.0050 -0.1256
 3390DOPE   PO439768   0.808  29.633  14.223 -0.0833 -0.2924 -0.0797
 3390DOPE   GL139769   0.668  29.430  13.920 -0.0399  0.2046  0.0450
 3390DOPE   GL239770   0.767  29.191  13.795  0.0235 -0.1678 -0.2769
 3390DOPE   C1A39771   0.377  29.375  13.585 -0.0601  0.1718  0.1271
 3390DOPE   D2A39772   0.012  29.526  13.358  0.2187  0.0713  0.2407
 3390DOPE   C3A39773  -0.157  29.324  12.992 -0.0299 -0.0009 -0.3670
 3390DOPE   C4A39774  -0.001  29.172  12.561  0.0818 -0.4065 -0.0344
 3390DOPE   C1B39775   0.511  28.925  13.476 -0.1575  0.1549  0.0088
 3390DOPE   D2B39776   0.109  29.036  13.326 -0.0011 -0.0634  0.1863
 3390DOPE   C3B39777  -0.115  28.795  13.023  0.2530 -0.2168 -0.0978
 3390DOPE   C4B39778  -0.374  28.489  12.840  0.0400 -0.2191 -0.0615
 3391DOPE   NH339779  21.515  30.445  14.685 -0.1453  0.2008 -0.2037
 3391DOPE   PO439780  21.415  30.189  14.508 -0.0766  0.0615  0.0404
 3391DOPE   GL139781  21.440  30.243  14.108  0.1850  0.0262 -0.0459
 3391DOPE   GL239782  21.257  30.226  13.898  0.2573 -0.1632 -0.2541
 3391DOPE   C1A39783  21.728  30.094  13.790 -0.2159 -0.0059 -0.2037
 3391DOPE   D2A39784  21.749  30.030  13.329 -0.1400  0.2366  0.1148
 3391DOPE   C3A39785  22.167  29.871  13.292 -0.1075 -0.0965 -0.0706
 3391DOPE   C4A39786  22.470  29.778  13.646  0.1907  0.2096 -0.0362
 3391DOPE   C1B39787  21.089  30.326  13.511  0.3167 -0.0091 -0.1203
 3391DOPE   D2B39788  20.887  30.322  13.153  0.1173 -0.0730 -0.0626
 3391DOPE   C3B39789  21.040  30.385  12.742 -0.1478 -0.0249 -0.3182
 3391DOPE   C4B39790  20.994  30.502  12.318 -0.1459 -0.3244 -0.2280
 3392DOPS   CNO39791  32.139  26.023  14.820  0.1445  0.2335  0.3297
 3392DOPS   PO439792  31.989  25.763  14.625  0.3114 -0.0351 -0.2222
 3392DOPS   GL139793  31.977  26.022  14.219 -0.2116  0.0295 -0.0026
 3392DOPS   GL239794  31.796  26.343  14.130 -0.1147 -0.0723  0.2814
 3392DOPS   C1A39795  31.745  25.820  13.872 -0.1326 -0.0422 -0.4495
 3392DOPS   D2A39796  31.707  25.448  13.589 -0.2611  0.2041 -0.1242
 3392DOPS   C3A39797  32.056  25.213  13.444  0.0235 -0.1791  0.0191
 3392DOPS   C4A39798  32.329  24.990  13.112 -0.0331 -0.1879  0.2555
 3392DOPS   C1B39799  31.768  26.249  13.636  0.4406 -0.2301 -0.2836
 3392DOPS   D2B39800  31.651  26.202  13.217  0.5348 -0.1241 -0.1538
 3392DOPS   C3B39801  31.215  26.297  13.148 -0.1619  0.0438  0.0040
 3392DOPS   C4B39802  30.816  26.154  12.948  0.1348  0.1982  0.0737
 3393DOPS   CNO39803  25.817  29.525  15.768 -0.0388  0.1360 -0.2685
 3393DOPS   PO439804  25.770  29.511  15.393  0.0871  0.0713 -0.4223
 3393DOPS   GL139805  25.836  29.671  15.046  0.2665  0.0212 -0.0346
 3393DOPS   GL239806  25.643  29.517  14.865 -0.1212 -0.1298  0.1183
 3393DOPS   C1A39807  25.735  30.044  14.732 -0.0891  0.4301 -0.2503
 3393DOPS   D2A39808  25.611  30.095  14.297  0.1076 -0.2662 -0.0921
 3393DOPS   C3A39809  25.329  30.214  13.992 -0.3190 -0.3589 -0.0627
 3393DOPS   C4A39810  25.128  30.571  13.851 -0.0999 -0.2430 -0.1958
 3393DOPS   C1B39811  25.965  29.700  14.538  0.0122  0.3178 -0.0159
 3393DOPS   D2B39812  26.055  29.901  14.131 -0.2861  0.1179 -0.1259
 3393DOPS   C3B39813  26.170  29.702  13.780  0.0801 -0.1252 -0.0479
 3393DOPS   C4B39814  26.538  29.525  13.676  0.0828  0.2454  0.1340
 3394DOPE   NH339815  26.884  33.832  15.553  0.0597  0.1403  0.1666
 3394DOPE   PO439816  26.935  33.529  15.412 -0.0281  0.1269 -0.1279
 3394DOPE   GL139817  27.281  33.613  15.037 -0.2311  0.1158 -0.1673
 3394DOPE   GL239818  27.265  33.874  15.168  0.0282 -0.0489  0.3727
 3394DOPE   C1A39819  27.427  33.819  14.597  0.0164  0.3824 -0.3622
 3394DOPE   D2A39820  27.680  33.865  14.188  0.0444  0.0862 -0.0790
 3394DOPE   C3A39821  27.667  33.541  13.857  0.1896 -0.0121  0.0278
 3394DOPE   C4A39822  27.468  33.525  13.407 -0.0093 -0.1761 -0.1637
 3394DOPE   C1B39823  26.954  33.841  14.846 -0.4568 -0.3281 -0.0769
 3394DOPE   D2B39824  26.894  33.669  14.433  0.0851 -0.2208 -0.3616
 3394DOPE   C3B39825  27.209  33.718  14.081 -0.2010  0.0822  0.1092
 3394DOPE   C4B39826  27.433  34.003  13.705 -0.1417  0.3210 -0.0872
 3395DOPC   NC339827  29.647   0.115  15.764 -0.2385 -0.1326 -0.0996
 3395DOPC   PO439828  30.010   0.178  15.587 -0.1945 -0.2634  0.2353
 3395DOPC   GL139829  29.743   0.274  15.296  0.2153 -0.0017  0.1680
 3395DOPC   GL239830  29.490   0.445  15.349 -0.0986 -0.1984 -0.0222
 3395DOPC   C1A39831  29.746   0.398  14.838  0.1575 -0.1949  0.0309
 3395DOPC   D2A39832  29.895   0.251  14.370 -0.2818 -0.0483 -0.0918
 3395DOPC   C3A39833  29.602   0.245  14.064  0.1142 -0.1560 -0.0114
 3395DOPC   C4A39834  29.508  -0.031  13.758  0.3319 -0.2039 -0.0992
 3395DOPC   C1B39835  29.252   0.499  14.945  0.1085 -0.0553 -0.0325
 3395DOPC   D2B39836  28.922   0.376  14.619  0.0297  0.0422  0.0275
 3395DOPC   C3B39837  28.721   0.655  14.295 -0.2905 -0.1752  0.3453
 3395DOPC   C4B39838  28.624   0.715  13.851 -0.1688 -0.1273  0.1546
 3396DOPE   NH339839  28.978  34.240  15.754 -0.1626  0.0165 -0.2058
 3396DOPE   PO439840  29.021  33.942  15.619 -0.0622  0.0978  0.0125
 3396DOPE   GL139841  29.010  33.863  15.204 -0.0222 -0.2421  0.1619
 3396DOPE   GL239842  29.313  33.854  15.150 -0.2095  0.0053  0.0917
 3396DOPE   C1A39843  28.748  33.529  15.025  0.4330  0.0059 -0.0790
 3396DOPE   D2A39844  28.493  33.434  14.652 -0.2696 -0.0501 -0.4303
 3396DOPE   C3A39845  28.069  33.317  14.657 -0.0992 -0.1227 -0.1065
 3396DOPE   C4A39846  27.683  33.484  14.949 -0.5477  0.0406  0.1643
 3396DOPE   C1B39847  29.243  33.808  14.721 -0.0608 -0.1735  0.0467
 3396DOPE   D2B39848  28.913  33.837  14.430  0.4928  0.0897 -0.1132
 3396DOPE   C3B39849  28.718  33.487  14.198  0.0041 -0.0065  0.2728
 3396DOPE   C4B39850  28.791  33.273  13.753 -0.0082  0.1976 -0.1102
 3397DOPC   NC339851  22.076  28.987  14.366 -0.0346  0.2208  0.1100
 3397DOPC   PO439852  22.219  28.628  14.506  0.0920 -0.0116 -0.3128
 3397DOPC   GL139853  22.329  28.572  14.132  0.2328 -0.1201  0.0697
 3397DOPC   GL239854  22.282  28.305  13.964 -0.0768 -0.1986 -0.2341
 3397DOPC   C1A39855  22.049  28.711  13.768  0.2671  0.0702  0.2834
 3397DOPC   D2A39856  21.750  28.709  13.426  0.0346  0.3897 -0.3108
 3397DOPC   C3A39857  22.017  28.342  13.342 -0.1544 -0.0959  0.1896
 3397DOPC   C4A39858  22.135  27.956  13.079  0.2220 -0.1165 -0.1257
 3397DOPC   C1B39859  22.448  28.175  13.510 -0.1347  0.0291  0.3621
 3397DOPC   D2B39860  22.807  28.395  13.190  0.2066  0.2660  0.0924
 3397DOPC   C3B39861  23.116  28.034  13.108  0.2992 -0.0516  0.1899
 3397DOPC   C4B39862  23.113  27.595  12.931  0.0304  0.3253 -0.1717
 3398DOPE   NH339863  32.175  29.576  15.447 -0.0469  0.2047 -0.1421
 3398DOPE   PO439864  32.296  29.746  15.228 -0.1494  0.0420 -0.1210
 3398DOPE   GL139865  31.996  29.677  14.987 -0.0878 -0.1735 -0.7798
 3398DOPE   GL239866  32.037  29.973  14.812 -0.1610 -0.2273 -0.2362
 3398DOPE   C1A39867  31.842  29.303  14.778 -0.2931  0.1011 -0.0035
 3398DOPE   D2A39868  31.769  28.952  14.480  0.0546  0.1189  0.3478
 3398DOPE   C3A39869  31.971  28.880  14.024 -0.0030  0.2465  0.1166
 3398DOPE   C4A39870  31.901  28.722  13.566 -0.1053 -0.0487  0.0654
 3398DOPE   C1B39871  32.087  30.214  14.424 -0.0765 -0.0704 -0.2294
 3398DOPE   D2B39872  32.197  30.270  13.994  0.0025 -0.0530 -0.2234
 3398DOPE   C3B39873  31.851  30.196  13.645 -0.1317  0.0179  0.2445
 3398DOPE   C4B39874  31.481  29.928  13.606  0.3355  0.1479  0.1945
 3399DOPE   NH339875  32.369  30.839  15.626  0.2002 -0.3327 -0.1177
 3399DOPE   PO439876  32.302  30.873  15.322 -0.0147 -0.3625 -0.0497
 3399DOPE   GL139877  32.238  30.706  15.048 -0.3350  0.1040 -0.3460
 3399DOPE   GL239878  32.308  30.621  14.857 -0.0277  0.4894  0.0626
 3399DOPE   C1A39879  31.818  30.769  14.835 -0.0748 -0.2425 -0.2174
 3399DOPE   D2A39880  31.390  30.950  14.564 -0.2180 -0.0262 -0.0061
 3399DOPE   C3A39881  31.282  30.722  14.159  0.2509  0.0415  0.0144
 3399DOPE   C4A39882  30.950  30.604  13.903 -0.0406  0.0057  0.2858
 3399DOPE   C1B39883  32.163  30.767  14.487 -0.0212  0.2192 -0.2620
 3399DOPE   D2B39884  32.279  30.780  14.034 -0.2051  0.0412 -0.1717
 3399DOPE   C3B39885  31.820  30.718  13.846 -0.1041 -0.2153 -0.2721
 3399DOPE   C4B39886  31.431  30.499  13.720  0.1101 -0.1523  0.0524
 3400DOPC   NC339887  27.454  23.870  15.222  0.0548  0.2626  0.0769
 3400DOPC   PO439888  27.412  23.537  15.121  0.0460  0.0473 -0.0296
 3400DOPC   GL139889  27.370  23.220  14.924  0.1581 -0.1115  0.2342
 3400DOPC   GL239890  27.680  23.246  14.890 -0.3690  0.1861 -0.3444
 3400DOPC   C1A39891  27.277  22.919  14.589  0.1343 -0.0566 -0.3942
 3400DOPC   D2A39892  27.243  22.465  14.363  0.0857 -0.2578  0.0734
 3400DOPC   C3A39893  27.272  22.386  13.943  0.1236  0.4003  0.2860
 3400DOPC   C4A39894  27.609  22.467  13.684 -0.1424  0.1661  0.0235
 3400DOPC   C1B39895  27.796  23.043  14.458 -0.1273 -0.1917  0.0819
 3400DOPC   D2B39896  27.928  22.984  14.019 -0.1737  0.0382  0.0433
 3400DOPC   C3B39897  27.905  22.987  13.565  0.1833  0.1864 -0.2355
 3400DOPC   C4B39898  28.006  22.670  13.248 -0.0415  0.0896  0.1853
 3401DOPC   NC339899   0.336  28.339  14.676 -0.1413  0.0323  0.4228
 3401DOPC   PO439900   0.301  28.056  14.402 -0.1037  0.0953  0.0966
 3401DOPC   GL139901   0.250  28.068  14.014  0.0825 -0.0550 -0.2582
 3401DOPC   GL239902   0.522  27.995  13.782 -0.2202  0.1778 -0.0604
 3401DOPC   C1A39903   0.124  27.676  13.859  0.1489  0.0374  0.3459
 3401DOPC   D2A39904   0.195  27.409  13.476 -0.0599  0.1447 -0.1730
 3401DOPC   C3A39905   0.078  27.265  13.010 -0.1435 -0.1106  0.0360
 3401DOPC   C4A39906  -0.266  27.046  12.778 -0.1009 -0.3351 -0.1453
 3401DOPC   C1B39907   0.332  27.865  13.410 -0.0086 -0.3413 -0.0427
 3401DOPC   D2B39908   0.449  27.926  12.996 -0.0857 -0.1129  0.1923
 3401DOPC   C3B39909   0.524  27.690  12.630  0.1577 -0.0742  0.2962
 3401DOPC   C4B39910   0.673  27.472  12.274  0.0663 -0.1806  0.0041
 3402DOPE   NH339911  32.139  25.315  14.563  0.1425  0.1817 -0.2136
 3402DOPE   PO439912  31.999  25.041  14.662 -0.1813 -0.0761 -0.1352
 3402DOPE   GL139913  31.741  24.974  14.367  0.1459  0.0357 -0.0434
 3402DOPE   GL239914  31.966  24.927  14.190 -0.1963  0.0567  0.0510
 3402DOPE   C1A39915  31.576  25.136  13.990  0.1712 -0.2586 -0.1340
 3402DOPE   D2A39916  31.281  25.176  13.640 -0.3543 -0.1415  0.1229
 3402DOPE   C3A39917  31.270  25.311  13.193  0.1353  0.2888 -0.0071
 3402DOPE   C4A39918  31.056  25.197  12.814 -0.2023  0.0019 -0.1619
 3402DOPE   C1B39919  31.862  24.857  13.717 -0.0437  0.0786  0.1380
 3402DOPE   D2B39920  31.839  24.667  13.272  0.0994 -0.1755  0.1295
 3402DOPE   C3B39921  32.051  24.239  13.128  0.1957  0.1905 -0.2890
 3402DOPE   C4B39922  32.106  23.861  12.842 -0.0304 -0.0690 -0.6820
 3403DOPE   NH339923  34.511  31.890  14.806  0.0331 -0.3371  0.0366
 3403DOPE   PO439924  34.544  31.845  14.508  0.3873 -0.3493  0.0499
 3403DOPE   GL139925  34.467  31.871  14.154 -0.3834  0.0935  0.1447
 3403DOPE   GL239926  34.705  31.886  13.999  0.1553 -0.1088 -0.1922
 3403DOPE   C1A39927  34.010  31.844  14.085  0.1106 -0.2144  0.2848
 3403DOPE   D2A39928  33.680  31.542  13.951  0.3334  0.1438  0.3678
 3403DOPE   C3A39929  33.261  31.759  13.883  0.0269 -0.0635 -0.0330
 3403DOPE   C4A39930  33.236  32.046  13.516 -0.0877 -0.1965 -0.0742
 3403DOPE   C1B39931  34.704  31.792  13.575 -0.2719  0.2212  0.2050
 3403DOPE   D2B39932  34.635  31.646  13.144 -0.0780 -0.2685  0.1599
 3403DOPE   C3B39933  34.818  31.927  12.777  0.0200 -0.2692 -0.1765
 3403DOPE   C4B39934  34.886  32.210  12.430 -0.3207 -0.0207  0.2527
 3404DOPS   CNO39935  24.552  27.884  15.592 -0.0929  0.1399  0.0045
 3404DOPS   PO439936  24.717  27.723  15.309 -0.1247 -0.0057  0.2590
 3404DOPS   GL139937  24.757  27.696  14.888 -0.0201  0.0428 -0.3123
 3404DOPS   GL239938  24.467  27.647  14.756  0.1603 -0.1393 -0.0065
 3404DOPS   C1A39939  25.018  27.526  14.563 -0.0780  0.0299  0.2029
 3404DOPS   D2A39940  25.301  27.448  14.195  0.1815  0.0899 -0.0897
 3404DOPS   C3A39941  25.257  27.219  13.796  0.0640 -0.0693  0.0672
 3404DOPS   C4A39942  25.310  26.903  13.477  0.1533 -0.1920 -0.0851
 3404DOPS   C1B39943  24.552  27.509  14.279 -0.2075 -0.0881 -0.2221
 3404DOPS   D2B39944  24.519  27.674  13.827  0.0096 -0.1823 -0.0619
 3404DOPS   C3B39945  24.484  27.335  13.523 -0.1706 -0.0500 -0.0927
 3404DOPS   C4B39946  24.779  27.059  13.465 -0.0801  0.3020  0.2282
 3405POSM   NC339947  28.829   0.910  15.683  0.0304 -0.0144  0.2136
 3405POSM   PO439948  28.451   0.872  15.558 -0.2112 -0.2275 -0.1459
 3405POSM   AM139949  28.552   0.873  15.223 -0.4193 -0.1227 -0.1049
 3405POSM   AM239950  28.469   1.033  15.048  0.2474 -0.0441  0.0651
 3405POSM   T1A39951  28.830   0.845  14.762  0.3230 -0.0979 -0.1211
 3405POSM   C2A39952  29.110   0.931  14.415 -0.1243  0.1304  0.1887
 3405POSM   C3A39953  29.124   1.419  14.308  0.0543  0.1092 -0.1384
 3405POSM   C1B39954  28.290   0.851  14.806 -0.1270  0.0063 -0.1680
 3405POSM   D2B39955  28.151   0.895  14.377 -0.2074 -0.2593 -0.0630
 3405POSM   C3B39956  28.124   0.731  13.934 -0.0227  0.0812 -0.1899
 3405POSM   C4B39957  28.096   0.477  13.545  0.1515 -0.2813 -0.3776
 3406DOPC   NC339958  21.842  29.387  14.520  0.0075 -0.1475  0.0638
 3406DOPC   PO439959  22.022  29.729  14.529 -0.0766 -0.4282  0.1092
 3406DOPC   GL139960  22.275  29.745  14.276 -0.5177 -0.2299 -0.3455
 3406DOPC   GL239961  22.114  29.588  14.055 -0.4537  0.0172  0.1040
 3406DOPC   C1A39962  22.595  30.026  14.159 -0.2107  0.0595 -0.0323
 3406DOPC   D2A39963  22.536  30.272  13.752  0.1066 -0.3247 -0.1362
 3406DOPC   C3A39964  22.552  30.274  13.292  0.1571 -0.0799  0.2134
 3406DOPC   C4A39965  22.364  30.251  12.860 -0.3767  0.0296 -0.1375
 3406DOPC   C1B39966  21.810  29.598  13.678 -0.2170  0.1420 -0.2782
 3406DOPC   D2B39967  21.789  29.516  13.228 -0.2558  0.1869  0.0305
 3406DOPC   C3B39968  21.859  29.688  12.840  0.1692  0.1496  0.2296
 3406DOPC   C4B39969  21.693  29.777  12.434 -0.0860 -0.0032  0.0007
 3407DOPC   NC339970  23.166  31.490  15.056 -0.0191  0.1010 -0.2485
 3407DOPC   PO439971  22.855  31.290  15.086  0.3738  0.2043 -0.2226
 3407DOPC   GL139972  22.938  31.254  14.734  0.1115  0.0089  0.3000
 3407DOPC   GL239973  23.245  31.088  14.719 -0.1434 -0.0992 -0.0200
 3407DOPC   C1A39974  22.852  31.074  14.312 -0.1741 -0.3007 -0.2475
 3407DOPC   D2A39975  22.692  31.144  13.866  0.0739 -0.0065  0.1058
 3407DOPC   C3A39976  22.526  31.482  13.549 -0.1768  0.0695 -0.0059
 3407DOPC   C4A39977  22.412  31.702  13.158 -0.2391  0.4155 -0.0287
 3407DOPC   C1B39978  23.270  31.242  14.223 -0.1844  0.3783  0.4112
 3407DOPC   D2B39979  23.259  31.151  13.741 -0.0674  0.0059  0.1116
 3407DOPC   C3B39980  23.114  31.456  13.362 -0.2933 -0.1451 -0.2185
 3407DOPC   C4B39981  23.332  31.658  13.058  0.2418 -0.4305 -0.1410
 3408DOPS   CNO39982  28.599  22.122  15.319 -0.0408  0.0296 -0.0148
 3408DOPS   PO439983  28.302  22.387  15.290 -0.1805 -0.0172 -0.1837
 3408DOPS   GL139984  28.452  22.518  14.995  0.1286 -0.2544  0.0122
 3408DOPS   GL239985  28.665  22.603  14.902 -0.0731 -0.0692 -0.2706
 3408DOPS   C1A39986  28.171  22.641  14.647  0.2099 -0.1017 -0.1866
 3408DOPS   D2A39987  28.216  22.481  14.204  0.3664  0.0116  0.1207
 3408DOPS   C3A39988  28.574  22.197  14.130 -0.0021 -0.0930  0.1733
 3408DOPS   C4A39989  28.565  21.980  13.698 -0.1206  0.1912 -0.2037
 3408DOPS   C1B39990  28.595  22.560  14.498 -0.0027 -0.1771  0.0816
 3408DOPS   D2B39991  28.709  22.749  14.135 -0.2311 -0.1561  0.1254
 3408DOPS   C3B39992  28.829  23.204  14.129 -0.2062  0.2069  0.2659
 3408DOPS   C4B39993  28.911  23.657  14.078 -0.2801  0.2174 -0.3823
 3409DOPC   NC339994  34.000   1.903  14.299 -0.2975  0.1816  0.1324
 3409DOPC   PO439995  33.653   1.689  14.309  0.0518 -0.0930  0.3145
 3409DOPC   GL139996  33.520   1.614  13.984 -0.1496  0.1907  0.6046
 3409DOPC   GL239997  33.776   1.758  13.847 -0.1555 -0.0386 -0.1597
 3409DOPC   C1A39998  33.376   1.735  13.561 -0.0107 -0.2239  0.3351
 3409DOPC   D2A39999  33.323   2.120  13.234 -0.0175 -0.1393 -0.0155
 3409DOPC   C3A40000  33.019   2.155  12.943  0.0055  0.1421  0.2079
 3409DOPC   C4A40001  32.902   2.026  12.515 -0.1320  0.2793 -0.0955
 3409DOPC   C1B40002  33.809   2.082  13.481  0.1862 -0.1261 -0.5481
 3409DOPC   D2B40003  33.852   2.128  13.082 -0.0154 -0.2556  0.1182
 3409DOPC   C3B40004  33.721   1.846  12.744  0.0268  0.1537 -0.1207
 3409DOPC   C4B40005  33.737   1.462  12.448 -0.0325  0.0841 -0.0247
 3410POSM   NC340006  33.948  33.219  14.690  0.1419  0.3280  0.1552
 3410POSM   PO440007  33.597  33.071  14.756 -0.1968  0.1115 -0.0847
 3410POSM   AM140008  33.526  33.032  14.429 -0.0472  0.0738 -0.0258
 3410POSM   AM240009  33.604  32.848  14.269  0.0346  0.0030  0.0905
 3410POSM   T1A40010  33.158  33.003  14.121 -0.0546 -0.2910 -0.0636
 3410POSM   C2A40011  32.795  32.801  13.883 -0.3095 -0.3154 -0.1194
 3410POSM   C3A40012  32.488  32.843  13.615 -0.0204 -0.1031 -0.2019
 3410POSM   C1B40013  33.644  32.971  13.931 -0.0266 -0.0420  0.0173
 3410POSM   D2B40014  33.770  33.248  13.599 -0.1476  0.1326 -0.1760
 3410POSM   C3B40015  33.559  33.640  13.509 -0.1617 -0.0597  0.0309
 3410POSM   C4B40016  33.713  34.089  13.518 -0.1162 -0.0382  0.1402
 3411DOPC   NC340017  29.490  23.983  15.647 -0.3966  0.0061 -0.0009
 3411DOPC   PO440018  29.109  23.887  15.567 -0.3732 -0.0529  0.1597
 3411DOPC   GL140019  28.889  24.109  15.205 -0.0170 -0.3237  0.2853
 3411DOPC   GL240020  28.636  24.012  15.188 -0.0076  0.0805  0.1739
 3411DOPC   C1A40021  28.930  24.376  14.798 -0.2645  0.2220 -0.4305
 3411DOPC   D2A40022  29.251  24.689  14.705 -0.1177 -0.1598  0.1349
 3411DOPC   C3A40023  29.559  24.688  14.351  0.0269  0.1197 -0.2459
 3411DOPC   C4A40024  29.644  24.853  13.902  0.0941 -0.3283 -0.0569
 3411DOPC   C1B40025  28.490  24.052  14.712 -0.3709  0.0279 -0.2024
 3411DOPC   D2B40026  28.648  24.383  14.389  0.2004 -0.1203 -0.2194
 3411DOPC   C3B40027  28.338  24.374  14.034 -0.1416 -0.2804  0.0441
 3411DOPC   C4B40028  28.257  24.153  13.637  0.3336  0.3077  0.1136
 3412DOPC   NC340029  33.195  24.962  14.456  0.0943  0.2965 -0.2285
 3412DOPC   PO440030  32.881  24.905  14.645 -0.0804  0.1244 -0.0107
 3412DOPC   GL140031  32.812  24.710  14.293 -0.3724 -0.0037 -0.5148
 3412DOPC   GL240032  32.634  24.691  14.052  0.3751 -0.0252 -0.3077
 3412DOPC   C1A40033  33.159  24.673  14.009 -0.0417 -0.0685 -0.0004
 3412DOPC   D2A40034  33.502  24.589  13.682  0.1248 -0.1679 -0.0485
 3412DOPC   C3A40035  33.574  24.742  13.237  0.3327 -0.2083 -0.0114
 3412DOPC   C4A40036  33.410  24.810  12.776  0.0864  0.2640  0.2442
 3412DOPC   C1B40037  32.430  25.033  13.890  0.0328 -0.0523 -0.1156
 3412DOPC   D2B40038  32.562  25.464  13.721  0.0486 -0.1503  0.0470
 3412DOPC   C3B40039  32.580  25.864  13.471  0.1719  0.1400  0.0914
 3412DOPC   C4B40040  32.887  26.218  13.479  0.3025  0.0516  0.0920
 3413DOPE   NH340041  32.661  24.644  14.987 -0.1939 -0.0961 -0.2507
 3413DOPE   PO440042  32.655  24.438  14.711  0.4280  0.0273  0.1335
 3413DOPE   GL140043  32.720  24.263  14.338 -0.1198  0.1558  0.3367
 3413DOPE   GL240044  32.776  24.241  14.049  0.4630 -0.3324 -0.0630
 3413DOPE   C1A40045  32.327  24.222  14.066  0.0363  0.1125 -0.1726
 3413DOPE   D2A40046  31.870  24.201  14.064 -0.1970  0.1273  0.0299
 3413DOPE   C3A40047  31.617  24.307  13.710  0.0047  0.2924 -0.0637
 3413DOPE   C4A40048  31.546  24.276  13.217 -0.0884  0.1216 -0.2569
 3413DOPE   C1B40049  32.614  24.189  13.610 -0.0643 -0.1593 -0.0345
 3413DOPE   D2B40050  32.591  24.333  13.167 -0.2635  0.0563  0.1366
 3413DOPE   C3B40051  32.783  24.738  13.112  0.1798 -0.0725 -0.0757
 3413DOPE   C4B40052  33.071  25.086  12.981  0.0278 -0.1187  0.3195
 3414POSM   NC340053  32.823  25.744  14.379 -0.0840  0.0883 -0.0823
 3414POSM   PO440054  33.085  25.464  14.380  0.2134  0.1135  0.0159
 3414POSM   AM140055  33.219  25.566  14.109 -0.0659  0.0878  0.1418
 3414POSM   AM240056  33.069  25.673  13.913  0.1499 -0.3369  0.4075
 3414POSM   T1A40057  33.512  25.654  13.708  0.0391  0.3521  0.3846
 3414POSM   C2A40058  33.463  25.573  13.229  0.1780 -0.1180 -0.0192
 3414POSM   C3A40059  33.339  25.527  12.767  0.2331 -0.2054  0.0643
 3414POSM   C1B40060  33.029  25.718  13.557 -0.0726  0.0614 -0.1986
 3414POSM   D2B40061  33.015  25.706  13.060 -0.0726  0.0139  0.0391
 3414POSM   C3B40062  32.683  25.395  12.923  0.0927  0.1993  0.2206
 3414POSM   C4B40063  32.341  25.278  12.636 -0.0191 -0.1211 -0.0935
 3415POSM   NC340064  27.931  32.086  15.507  0.2432 -0.2237  0.0115
 3415POSM   PO440065  27.988  31.700  15.628  0.2059 -0.0035 -0.1649
 3415POSM   AM140066  27.975  31.644  15.295  0.0015  0.1888  0.2640
 3415POSM   AM240067  27.725  31.567  15.160  0.0548  0.2588 -0.2371
 3415POSM   T1A40068  28.152  31.501  14.839  0.3639 -0.1414 -0.2494
 3415POSM   C2A40069  28.302  31.322  14.382 -0.5106 -0.1704  0.0605
 3415POSM   C3A40070  28.601  31.450  14.054  0.1829 -0.1855  0.0750
 3415POSM   C1B40071  27.672  31.438  14.863  0.2274 -0.1511 -0.0141
 3415POSM   D2B40072  27.847  31.511  14.434  0.4136 -0.0106 -0.1193
 3415POSM   C3B40073  27.777  31.326  14.012  0.1736  0.2654  0.0114
 3415POSM   C4B40074  27.505  30.994  13.884  0.0722 -0.1769 -0.0441
 3416DOPE   NH340075  25.883  26.232  15.532  0.1635  0.1037 -0.1195
 3416DOPE   PO440076  26.148  26.045  15.445 -0.0050 -0.2468 -0.4380
 3416DOPE   GL140077  26.293  26.079  15.055  0.0096  0.2240 -0.2785
 3416DOPE   GL240078  26.201  25.864  14.988  0.3915  0.1643 -0.1264
 3416DOPE   C1A40079  26.401  26.170  14.587 -0.2394 -0.0259 -0.1317
 3416DOPE   D2A40080  26.341  26.386  14.214  0.0914 -0.0801  0.1567
 3416DOPE   C3A40081  26.167  26.823  14.142  0.2640 -0.1393  0.0095
 3416DOPE   C4A40082  25.757  27.097  14.025  0.0545 -0.2500 -0.2060
 3416DOPE   C1B40083  26.254  25.685  14.534  0.3332  0.1841  0.3664
 3416DOPE   D2B40084  26.390  25.747  14.059  0.2114 -0.0101 -0.0474
 3416DOPE   C3B40085  26.149  25.991  13.709  0.4792  0.1611 -0.0393
 3416DOPE   C4B40086  26.048  26.247  13.336  0.0011  0.0220  0.1300
 3417POSM   NC340087  24.602  26.407  15.354  0.0041 -0.1366 -0.2055
 3417POSM   PO440088  24.213  26.320  15.397 -0.2395  0.1376 -0.1776
 3417POSM   AM140089  24.176  26.212  15.077  0.2314  0.0471 -0.0541
 3417POSM   AM240090  24.242  26.361  14.820 -0.3020 -0.2265 -0.1394
 3417POSM   T1A40091  24.233  25.870  14.782  0.1882  0.3637  0.0684
 3417POSM   C2A40092  24.571  25.672  14.493  0.2756  0.2887 -0.1927
 3417POSM   C3A40093  24.596  25.401  14.043  0.1691 -0.1855  0.1120
 3417POSM   C1B40094  24.326  26.529  14.544 -0.0701  0.1189  0.3355
 3417POSM   D2B40095  24.575  26.507  14.198 -0.0178  0.1959  0.1875
 3417POSM   C3B40096  24.553  26.280  13.764  0.1496  0.1726 -0.0521
 3417POSM   C4B40097  24.410  25.940  13.448  0.0831 -0.3783 -0.1100
 3418DOPE   NH340098  26.007  33.642  15.127 -0.1347 -0.0024 -0.2698
 3418DOPE   PO440099  26.276  33.763  14.924  0.1118 -0.1132 -0.0557
 3418DOPE   GL140100  26.572  33.854  14.689  0.3036 -0.1501 -0.2506
 3418DOPE   GL240101  26.393  33.928  14.445  0.1295  0.1669 -0.1661
 3418DOPE   C1A40102  26.824  34.185  14.446 -0.1492 -0.0661  0.0811
 3418DOPE   D2A40103  27.115  34.179  14.050 -0.2339 -0.0532 -0.2546
 3418DOPE   C3A40104  27.393  34.556  13.941  0.1730 -0.2285 -0.1898
 3418DOPE   C4A40105  27.445  35.000  14.109  0.1066 -0.0086  0.0256
 3418DOPE   C1B40106  26.614  33.936  14.052 -0.0397 -0.2153 -0.1882
 3418DOPE   D2B40107  26.588  34.161  13.651 -0.0755 -0.1167 -0.1192
 3418DOPE   C3B40108  26.351  34.541  13.643  0.0411 -0.0572  0.2578
 3418DOPE   C4B40109  26.012  34.807  13.393  0.0782  0.1559 -0.1495
 3419POSM   NC340110  22.700  29.636  14.503 -0.4144  0.1755 -0.2283
 3419POSM   PO440111  22.390  29.374  14.453 -0.1464  0.1924 -0.0938
 3419POSM   AM140112  22.504  29.381  14.138 -0.2889  0.0488 -0.2192
 3419POSM   AM240113  22.696  29.522  13.980 -0.5301  0.0908  0.1837
 3419POSM   T1A40114  22.307  29.279  13.690 -0.0376 -0.0006 -0.2864
 3419POSM   C2A40115  22.148  29.093  13.297  0.1574  0.1815 -0.4350
 3419POSM   C3A40116  22.041  29.183  12.846 -0.3346  0.1473 -0.0284
 3419POSM   C1B40117  22.823  29.243  13.857  0.0439 -0.1313 -0.0170
 3419POSM   D2B40118  22.950  28.887  13.555 -0.1551 -0.1708  0.0751
 3419POSM   C3B40119  22.713  28.987  13.135 -0.1271  0.1219  0.0743
 3419POSM   C4B40120  22.818  29.273  12.786 -0.0107  0.2096 -0.0509
 3420DOPS   CNO40121   3.148  22.823  14.128  0.0544  0.1191 -0.0791
 3420DOPS   PO440122   3.049  23.165  13.991  0.0873  0.1664  0.0735
 3420DOPS   GL140123   2.999  23.076  13.682  0.2671  0.0755 -0.0185
 3420DOPS   GL240124   3.031  23.338  13.454 -0.2465 -0.2473  0.2458
 3420DOPS   C1A40125   2.923  22.872  13.327 -0.1493  0.0663 -0.1766
 3420DOPS   D2A40126   2.921  23.101  12.894 -0.1411 -0.0279 -0.1412
 3420DOPS   C3A40127   3.094  23.232  12.495 -0.1585  0.0101 -0.2225
 3420DOPS   C4A40128   3.499  23.152  12.290 -0.0633  0.0434 -0.0778
 3420DOPS   C1B40129   3.251  23.444  13.068 -0.1822 -0.0709 -0.0536
 3420DOPS   D2B40130   3.456  23.591  12.654  0.5076 -0.1056  0.4521
 3420DOPS   C3B40131   3.663  23.612  12.203 -0.0577  0.1782  0.2592
 3420DOPS   C4B40132   3.944  23.520  11.853  0.2188 -0.1049 -0.2410
 3421DOPC   NC340133  28.284  34.005  15.365  0.1865  0.1758  0.0334
 3421DOPC   PO440134  28.445  34.184  15.677 -0.2830 -0.0540 -0.0681
 3421DOPC   GL140135  28.707  34.272  15.399  0.0280  0.1523  0.0225
 3421DOPC   GL240136  28.511  34.463  15.216  0.1110 -0.0907  0.0834
 3421DOPC   C1A40137  28.642  34.013  14.990 -0.4135  0.2613 -0.0153
 3421DOPC   D2A40138  28.521  34.159  14.563 -0.2384 -0.0030  0.0429
 3421DOPC   C3A40139  28.130  34.236  14.372 -0.1353  0.2542  0.4164
 3421DOPC   C4A40140  27.914  34.290  13.967 -0.3179 -0.2334 -0.0722
 3421DOPC   C1B40141  28.171  34.305  14.928  0.2248 -0.0722  0.1144
 3421DOPC   D2B40142  27.810  34.573  14.941  0.3335  0.0531 -0.0919
 3421DOPC   C3B40143  27.414  34.691  14.703 -0.4522  0.3975  0.1122
 3421DOPC   C4B40144  27.143  34.567  14.341  0.3568  0.0872 -0.3378
 3422DOPS   CNO40145  23.624   0.578  15.563  0.1111 -0.3340 -0.0821
 3422DOPS   PO440146  23.424   0.870  15.381  0.1162 -0.3891 -0.0637
 3422DOPS   GL140147  23.559   0.875  15.010  0.0949 -0.1852 -0.3408
 3422DOPS   GL240148  23.370   0.683  14.883  0.0871 -0.2317 -0.0557
 3422DOPS   C1A40149  23.605   0.879  14.497  0.0468  0.5028  0.1664
 3422DOPS   D2A40150  23.977   1.105  14.247 -0.1354 -0.1688  0.0840
 3422DOPS   C3A40151  24.294   0.926  13.897 -0.1300  0.3388  0.1659
 3422DOPS   C4A40152  24.350   0.486  13.810 -0.1944 -0.0864  0.1342
 3422DOPS   C1B40153  23.362   0.453  14.450  0.1168  0.1682 -0.1687
 3422DOPS   D2B40154  23.459   0.531  13.979  0.1432 -0.0368 -0.3141
 3422DOPS   C3B40155  23.787   0.576  13.669  0.2044  0.3670  0.0120
 3422DOPS   C4B40156  24.115   0.810  13.391 -0.0594 -0.1940 -0.0336
 3423DOPE   NH340157  32.902  34.441  14.807 -0.3974  0.1151  0.1730
 3423DOPE   PO440158  33.123  34.297  14.665  0.0193  0.0504 -0.0803
 3423DOPE   GL140159  33.187  34.032  14.252  0.1043  0.1794  0.2828
 3423DOPE   GL240160  32.932  34.230  14.222 -0.3246 -0.0630  0.1206
 3423DOPE   C1A40161  32.974  33.650  14.221 -0.3004  0.2133  0.0806
 3423DOPE   D2A40162  32.887  33.382  13.852  0.0115  0.1116  0.0128
 3423DOPE   C3A40163  32.473  33.384  13.700 -0.1535 -0.4091  0.1558
 3423DOPE   C4A40164  32.221  33.298  13.337 -0.0439  0.2725  0.0440
 3423DOPE   C1B40165  32.825  34.135  13.797  0.0698  0.0619 -0.0001
 3423DOPE   D2B40166  32.694  34.140  13.333  0.2552  0.3704  0.2655
 3423DOPE   C3B40167  32.798  33.685  13.384  0.0888 -0.0356  0.0755
 3423DOPE   C4B40168  33.144  33.394  13.158  0.1462  0.0491 -0.1464
 3424DOPC   NC340169  24.652  30.408  14.814  0.1063  0.1002 -0.4224
 3424DOPC   PO440170  24.417  30.343  14.506 -0.0133  0.0687 -0.0844
 3424DOPC   GL140171  24.271  30.527  14.200 -0.0304 -0.3088  0.0689
 3424DOPC   GL240172  24.409  30.740  14.112  0.0432 -0.2447 -0.2627
 3424DOPC   C1A40173  24.284  30.384  13.719 -0.4046 -0.0820 -0.2990
 3424DOPC   D2A40174  24.608  30.337  13.411 -0.3968 -0.1975 -0.1098
 3424DOPC   C3A40175  24.464  30.065  13.147  0.0841  0.0570 -0.1549
 3424DOPC   C4A40176  24.476  29.740  12.795 -0.0836 -0.2021 -0.1063
 3424DOPC   C1B40177  24.305  31.105  13.864  0.0137 -0.1458  0.0281
 3424DOPC   D2B40178  23.894  31.246  13.704  0.0714  0.2188 -0.3042
 3424DOPC   C3B40179  24.003  31.652  13.520 -0.2513  0.2112 -0.3224
 3424DOPC   C4B40180  23.833  31.927  13.221 -0.0623 -0.1219 -0.0242
 3425DOPS   CNO40181  23.615  27.111  15.053 -0.2374  0.2699  0.0541
 3425DOPS   PO440182  23.972  27.220  14.961 -0.3293 -0.0636 -0.1085
 3425DOPS   GL140183  23.921  27.168  14.540  0.1352 -0.1210  0.0907
 3425DOPS   GL240184  24.250  27.109  14.540  0.0196 -0.0189  0.0470
 3425DOPS   C1A40185  23.669  27.108  14.140  0.1207 -0.2011  0.1111
 3425DOPS   D2A40186  23.533  27.113  13.695  0.2490  0.1752  0.0218
 3425DOPS   C3A40187  23.370  27.355  13.310 -0.0958  0.2586  0.3137
 3425DOPS   C4A40188  23.369  27.089  12.902 -0.1491 -0.2425  0.2601
 3425DOPS   C1B40189  24.079  26.831  14.181  0.2641  0.3074  0.0043
 3425DOPS   D2B40190  23.974  26.795  13.722  0.1649 -0.1568 -0.1537
 3425DOPS   C3B40191  24.194  26.443  13.484 -0.0154 -0.0166 -0.0138
 3425DOPS   C4B40192  24.153  26.210  13.112 -0.1331 -0.1608  0.4924
 3426DOPC   NC340193  26.845  25.937  15.048  0.3323 -0.0523  0.0230
 3426DOPC   PO440194  26.890  25.547  15.010 -0.2727 -0.0150 -0.1194
 3426DOPC   GL140195  26.929  25.699  14.676  0.1422  0.4922 -0.0157
 3426DOPC   GL240196  26.710  25.747  14.580 -0.0245  0.2216 -0.0685
 3426DOPC   C1A40197  27.156  25.907  14.352  0.1328  0.1128  0.0527
 3426DOPC   D2A40198  27.513  26.098  14.098  0.0884 -0.2704  0.0886
 3426DOPC   C3A40199  27.947  25.992  14.265  0.3074  0.0982 -0.0516
 3426DOPC   C4A40200  28.400  25.862  14.355 -0.2069 -0.0626  0.1718
 3426DOPC   C1B40201  26.798  25.574  14.192  0.0198  0.0986 -0.0076
 3426DOPC   D2B40202  26.759  25.479  13.796 -0.1355  0.1115 -0.1008
 3426DOPC   C3B40203  26.630  25.865  13.580  0.0777 -0.1653 -0.1271
 3426DOPC   C4B40204  26.792  26.168  13.299 -0.0446 -0.4720  0.0867
 3427DOPE   NH340205  34.729  32.282  14.290 -0.1146  0.2230 -0.1958
 3427DOPE   PO440206  34.684  32.600  14.336 -0.1295  0.2048  0.3037
 3427DOPE   GL140207  34.850  32.632  13.994  0.1364  0.0967 -0.0160
 3427DOPE   GL240208  34.593  32.796  13.908  0.0750  0.0265  0.0113
 3427DOPE   C1A40209  34.812  32.370  13.606 -0.1198 -0.1575 -0.2917
 3427DOPE   D2A40210  34.519  32.139  13.289 -0.4053  0.1000  0.2371
 3427DOPE   C3A40211  34.260  31.750  13.398  0.1286  0.3847 -0.0021
 3427DOPE   C4A40212  34.078  31.341  13.502  0.0348 -0.0043  0.5315
 3427DOPE   C1B40213  34.293  32.754  13.575 -0.2318 -0.2728  0.2844
 3427DOPE   D2B40214  34.258  32.624  13.152 -0.0151 -0.1935 -0.1643
 3427DOPE   C3B40215  33.831  32.572  13.058  0.0437 -0.2529  0.1310
 3427DOPE   C4B40216  33.507  32.281  13.122  0.0131 -0.0563  0.0729
 3428POSM   NC340217  29.503  34.657  16.264  0.1414 -0.2618 -0.2245
 3428POSM   PO440218  29.360  34.556  15.912  0.1454 -0.1106  0.0595
 3428POSM   AM140219  29.334  34.538  15.563 -0.1296  0.0260 -0.1046
 3428POSM   AM240220  29.427  34.686  15.325  0.0393 -0.2525 -0.2608
 3428POSM   T1A40221  29.123  34.372  15.136 -0.0282 -0.2561  0.2296
 3428POSM   C2A40222  29.011  34.236  14.715  0.3319  0.2256 -0.1191
 3428POSM   C3A40223  29.194  34.250  14.323 -0.1469  0.4702 -0.1666
 3428POSM   C1B40224  29.444  34.788  15.001  0.1186 -0.0005  0.1064
 3428POSM   D2B40225  29.428  34.677  14.539  0.0520  0.0119  0.5024
 3428POSM   C3B40226  29.119  34.718  14.143 -0.0124  0.2053  0.0654
 3428POSM   C4B40227  28.807  34.533  13.831  0.0449 -0.0826 -0.0094
 3429DOPE   NH340228  26.616  31.948  15.470  0.0335  0.3198  0.3354
 3429DOPE   PO440229  26.326  31.860  15.529 -0.0162 -0.4658  0.0495
 3429DOPE   GL140230  26.325  31.678  15.158  0.1766  0.2427 -0.2358
 3429DOPE   GL240231  26.197  31.898  14.998 -0.1098  0.1319  0.0399
 3429DOPE   C1A40232  26.695  31.690  14.873 -0.1163 -0.2212  0.2090
 3429DOPE   D2A40233  26.839  31.561  14.490  0.0103 -0.1498  0.0391
 3429DOPE   C3A40234  26.705  31.349  14.061  0.1518 -0.1599  0.1395
 3429DOPE   C4A40235  26.787  31.365  13.634 -0.1362  0.1452  0.1464
 3429DOPE   C1B40236  26.263  31.654  14.644  0.0140  0.1071  0.4100
 3429DOPE   D2B40237  26.345  31.706  14.213  0.3505 -0.1095 -0.1458
 3429DOPE   C3B40238  26.764  31.893  14.087 -0.2308 -0.2831  0.0248
 3429DOPE   C4B40239  27.153  31.682  13.952 -0.0782 -0.0670 -0.2432
 3430POSM   NC340240  29.460  34.075  15.736 -0.1137 -0.2776 -0.0879
 3430POSM   PO440241  29.560  33.689  15.634  0.2028 -0.0587 -0.2690
 3430POSM   AM140242  29.564  33.532  15.378  0.1428  0.0797 -0.2135
 3430POSM   AM240243  29.751  33.386  15.215  0.0119 -0.1575 -0.1662
 3430POSM   T1A40244  29.302  33.340  14.985 -0.1716 -0.1147 -0.0920
 3430POSM   C2A40245  29.229  33.292  14.533 -0.0363 -0.1440  0.1028
 3430POSM   C3A40246  29.332  33.004  14.267  0.2403  0.0110  0.0610
 3430POSM   C1B40247  29.795  33.256  14.908  0.2430 -0.4306  0.1072
 3430POSM   D2B40248  29.802  32.974  14.553 -0.0645 -0.1587  0.0527
 3430POSM   C3B40249  29.757  32.722  14.157  0.2524  0.1628  0.1680
 3430POSM   C4B40250  29.806  32.342  13.942  0.0595 -0.0616  0.2702
 3431DOPC   NC340251  32.571  28.235  14.453 -0.0520  0.1487  0.3288
 3431DOPC   PO440252  32.620  27.885  14.611 -0.0645 -0.0664 -0.0137
 3431DOPC   GL140253  32.499  27.778  14.214  0.2917  0.0936 -0.1106
 3431DOPC   GL240254  32.335  27.959  14.059  0.1258  0.4289  0.1297
 3431DOPC   C1A40255  32.497  27.501  13.823  0.0969  0.0202 -0.0825
 3431DOPC   D2A40256  32.597  27.453  13.400  0.1548  0.1424 -0.0514
 3431DOPC   C3A40257  32.376  27.775  13.209 -0.0523  0.0478  0.1485
 3431DOPC   C4A40258  32.322  28.239  13.096  0.0628  0.1256  0.2306
 3431DOPC   C1B40259  32.200  27.994  13.634 -0.0020 -0.0076  0.0152
 3431DOPC   D2B40260  31.924  27.958  13.250 -0.1288  0.2705  0.0774
 3431DOPC   C3B40261  31.447  27.982  13.242  0.0740  0.2290  0.2285
 3431DOPC   C4B40262  31.172  27.844  12.930 -0.1668 -0.2237  0.0102
 3432DOPE   NH340263  26.693   0.624  15.528 -0.0296  0.0482  0.0346
 3432DOPE   PO440264  26.514   0.449  15.319 -0.1367 -0.2075  0.1041
 3432DOPE   GL140265  26.513   0.316  14.894 -0.2199 -0.2869 -0.4109
 3432DOPE   GL240266  26.476   0.043  15.007 -0.1086 -0.0326 -0.0564
 3432DOPE   C1A40267  26.890   0.177  14.600  0.2407 -0.0693 -0.1929
 3432DOPE   D2A40268  26.962   0.193  14.115  0.0785  0.1849 -0.0551
 3432DOPE   C3A40269  27.115   0.523  13.816 -0.0789 -0.0489 -0.1125
 3432DOPE   C4A40270  27.259   0.619  13.397 -0.2541  0.0758  0.3728
 3432DOPE   C1B40271  26.530  -0.200  14.602  0.0699 -0.1084  0.0102
 3432DOPE   D2B40272  26.456  -0.285  14.144  0.1411  0.0859  0.0743
 3432DOPE   C3B40273  26.831  -0.258  13.903 -0.0753 -0.1832 -0.0243
 3432DOPE   C4B40274  27.028  -0.372  13.520 -0.2101  0.0524  0.0210
 3433POSM   NC340275  31.987  21.981  14.560 -0.2157  0.1155  0.2425
 3433POSM   PO440276  31.917  21.681  14.800 -0.3995 -0.1906  0.0408
 3433POSM   AM140277  31.797  21.561  14.494 -0.0815  0.1791  0.0194
 3433POSM   AM240278  31.581  21.565  14.312 -0.1976  0.0831  0.0341
 3433POSM   T1A40279  31.956  21.375  14.046  0.1103 -0.4454 -0.0915
 3433POSM   C2A40280  32.132  21.486  13.633  0.0295  0.0725  0.0923
 3433POSM   C3A40281  32.133  21.755  13.207  0.3243  0.0774 -0.0395
 3433POSM   C1B40282  31.394  21.489  14.078  0.0973 -0.1492  0.2816
 3433POSM   D2B40283  31.165  21.512  13.731 -0.2725  0.3346  0.1336
 3433POSM   C3B40284  31.161  21.106  13.410  0.0582  0.0549 -0.0196
 3433POSM   C4B40285  31.173  20.983  12.890 -0.1371 -0.1080  0.2239
 3434DOPE   NH340286  34.468   0.230  14.484 -0.0725  0.1617  0.1513
 3434DOPE   PO440287  34.667   0.196  14.246  0.1972 -0.1857 -0.0468
 3434DOPE   GL140288  34.632   0.137  13.901  0.1247  0.0473 -0.1099
 3434DOPE   GL240289  34.904   0.172  13.823  0.0196  0.2246  0.2179
 3434DOPE   C1A40290  34.497  -0.217  13.676 -0.2819  0.1089  0.0935
 3434DOPE   D2A40291  34.421  -0.695  13.652  0.1364  0.0246  0.4225
 3434DOPE   C3A40292  34.385  -0.756  13.192 -0.0172 -0.0532  0.1357
 3434DOPE   C4A40293  34.664  -0.784  12.854  0.2391  0.1737  0.1420
 3434DOPE   C1B40294  35.012   0.068  13.413 -0.0122  0.2266  0.0980
 3434DOPE   D2B40295  34.981   0.247  13.047  0.2914 -0.0935 -0.1031
 3434DOPE   C3B40296  34.583   0.180  12.810 -0.1061  0.0450 -0.1305
 3434DOPE   C4B40297  34.521   0.293  12.325 -0.1043  0.1253  0.3537
 3435DOPE   NH340298  25.283  29.413  15.251  0.2293  0.2223  0.0963
 3435DOPE   PO440299  25.175  29.391  14.964  0.3388  0.0331 -0.1157
 3435DOPE   GL140300  25.311  29.252  14.737 -0.5151  0.3115 -0.1013
 3435DOPE   GL240301  25.147  28.993  14.594 -0.2946 -0.3730 -0.1319
 3435DOPE   C1A40302  25.720  29.148  14.523 -0.1456  0.2444  0.3184
 3435DOPE   D2A40303  25.803  29.322  14.070  0.0195  0.0550 -0.1163
 3435DOPE   C3A40304  26.229  29.194  13.854 -0.0567  0.1149  0.1273
 3435DOPE   C4A40305  26.558  28.942  13.518  0.0485 -0.0079 -0.1587
 3435DOPE   C1B40306  25.287  29.017  14.154  0.2705  0.0343  0.0128
 3435DOPE   D2B40307  25.216  29.127  13.720 -0.0641 -0.0268  0.1821
 3435DOPE   C3B40308  25.642  29.299  13.618  0.2264 -0.1474 -0.2179
 3435DOPE   C4B40309  26.043  29.251  13.354  0.0021  0.3443  0.2719
 3436DOPE   NH340310  28.861  32.018  15.693  0.0963  0.1868 -0.0899
 3436DOPE   PO440311  29.171  31.897  15.622  0.2423 -0.0432  0.0830
 3436DOPE   GL140312  29.138  32.080  15.286 -0.2229 -0.1782  0.1054
 3436DOPE   GL240313  28.855  32.090  15.201 -0.0686 -0.0949 -0.4083
 3436DOPE   C1A40314  29.034  32.501  15.000  0.0613  0.1490  0.1220
 3436DOPE   D2A40315  29.009  32.930  14.781 -0.1402 -0.1991  0.0471
 3436DOPE   C3A40316  28.829  32.971  14.395  0.2423  0.1477  0.3220
 3436DOPE   C4A40317  28.756  32.834  13.964  0.1743  0.1951 -0.2173
 3436DOPE   C1B40318  28.646  32.285  14.838 -0.1648 -0.0343 -0.1703
 3436DOPE   D2B40319  28.582  32.232  14.429 -0.3324  0.3624  0.1839
 3436DOPE   C3B40320  28.978  32.409  14.236  0.0928  0.0507  0.0540
 3436DOPE   C4B40321  29.264  32.512  13.913 -0.0331  0.1496 -0.0014
 3437DOPE   NH340322  25.933  22.880  15.040  0.1816 -0.1157 -0.0171
 3437DOPE   PO440323  25.835  22.600  14.914  0.2751 -0.0258  0.0553
 3437DOPE   GL140324  25.978  22.795  14.592 -0.1738 -0.0946  0.0849
 3437DOPE   GL240325  26.233  22.766  14.450 -0.1069  0.0026  0.1572
 3437DOPE   C1A40326  25.861  22.691  14.131 -0.0244  0.1091  0.1399
 3437DOPE   D2A40327  25.597  22.708  13.749 -0.0896  0.1125 -0.1214
 3437DOPE   C3A40328  25.496  22.450  13.372 -0.0737  0.2344  0.0770
 3437DOPE   C4A40329  25.786  22.339  13.047 -0.0660 -0.2327 -0.2227
 3437DOPE   C1B40330  26.281  22.928  14.025 -0.2309 -0.1597 -0.0868
 3437DOPE   D2B40331  26.477  22.864  13.572 -0.1100 -0.2574 -0.1106
 3437DOPE   C3B40332  26.424  22.475  13.362 -0.1407  0.1684  0.3320
 3437DOPE   C4B40333  26.528  22.044  13.512 -0.2479 -0.0999  0.0888
 3438POSM   NC340334  32.625  30.392  15.277  0.0875  0.0399 -0.0932
 3438POSM   PO440335  32.372  30.222  15.164  0.3274  0.1548  0.0292
 3438POSM   AM140336  32.460  30.147  14.838  0.4884  0.1367  0.1347
 3438POSM   AM240337  32.534  29.904  14.752 -0.1770 -0.2262  0.2119
 3438POSM   T1A40338  32.563  30.419  14.454  0.0785 -0.1031 -0.0022
 3438POSM   C2A40339  32.661  30.472  14.044 -0.1273 -0.1077  0.0144
 3438POSM   C3A40340  32.615  30.320  13.666 -0.0101 -0.1133  0.2202
 3438POSM   C1B40341  32.545  29.840  14.427  0.1229 -0.2692  0.3096
 3438POSM   D2B40342  32.603  29.904  13.980  0.1253 -0.1599 -0.0944
 3438POSM   C3B40343  32.304  29.913  13.627  0.4051  0.1784 -0.0669
 3438POSM   C4B40344  31.886  29.695  13.734  0.0433  0.1866 -0.0331
 3439DOPE   NH340345  31.684  31.577  15.595  0.1785 -0.4102 -0.0791
 3439DOPE   PO440346  31.523  31.526  15.299  0.1332 -0.2979 -0.0580
 3439DOPE   GL140347  31.341  31.654  15.093  0.3009  0.1940  0.1474
 3439DOPE   GL240348  31.376  31.461  14.835 -0.3421  0.0998  0.2130
 3439DOPE   C1A40349  31.451  32.063  14.931 -0.2653  0.2640 -0.4119
 3439DOPE   D2A40350  31.481  32.124  14.483 -0.0519 -0.1061  0.0036
 3439DOPE   C3A40351  31.131  32.349  14.241 -0.1827  0.1679 -0.1136
 3439DOPE   C4A40352  30.722  32.373  14.261  0.3115 -0.2413 -0.2624
 3439DOPE   C1B40353  31.787  31.271  14.661 -0.1305  0.1970 -0.0878
 3439DOPE   D2B40354  31.802  31.059  14.244 -0.1371 -0.3195  0.1888
 3439DOPE   C3B40355  31.846  31.248  13.812  0.0994  0.4258  0.1413
 3439DOPE   C4B40356  31.857  31.681  13.663  0.0416  0.1400 -0.0165
 3440DOPE   NH340357   0.355  32.452  14.599  0.0278  0.1089  0.0942
 3440DOPE   PO440358   0.471  32.552  14.324 -0.3794 -0.2034 -0.2419
 3440DOPE   GL140359   0.649  32.677  13.986  0.0041  0.3695  0.0675
 3440DOPE   GL240360   0.561  32.485  13.774  0.0455  0.1269  0.0275
 3440DOPE   C1A40361   0.426  32.962  13.707 -0.0627 -0.1182  0.1535
 3440DOPE   D2A40362  -0.005  32.894  13.458  0.1096  0.0294 -0.0303
 3440DOPE   C3A40363  -0.163  33.023  13.000  0.0226  0.0757 -0.1711
 3440DOPE   C4A40364  -0.193  33.153  12.559 -0.4001  0.1154 -0.3002
 3440DOPE   C1B40365   0.389  32.573  13.364 -0.2478 -0.4262  0.1241
 3440DOPE   D2B40366   0.025  32.526  13.064  0.2166  0.1489 -0.0157
 3440DOPE   C3B40367   0.101  32.681  12.634 -0.1731  0.1808 -0.1427
 3440DOPE   C4B40368   0.309  33.065  12.471 -0.0647  0.0336 -0.3440
 3441POSM   NC340369  30.651  28.562  15.730  0.1907 -0.3626 -0.0311
 3441POSM   PO440370  30.551  28.256  15.536 -0.1356 -0.3157  0.1362
 3441POSM   AM140371  30.546  28.238  15.223  0.0015 -0.0513  0.1769
 3441POSM   AM240372  30.404  28.369  15.024  0.1545 -0.2304 -0.0581
 3441POSM   T1A40373  30.630  27.933  14.836  0.2282  0.3802  0.0154
 3441POSM   C2A40374  30.647  27.872  14.374  0.4518  0.0225  0.2017
 3441POSM   C3A40375  30.401  28.098  14.120 -0.0804 -0.1197 -0.0302
 3441POSM   C1B40376  30.339  28.632  14.907  0.2605 -0.0925 -0.4736
 3441POSM   D2B40377  30.173  28.879  14.607 -0.0717 -0.0783 -0.1900
 3441POSM   C3B40378  29.836  29.216  14.535 -0.1361 -0.1510 -0.3769
 3441POSM   C4B40379  29.730  29.268  14.100 -0.0588  0.1355 -0.0560
 3442DOPC   NC340380  24.359  32.090  15.736 -0.0202 -0.0784 -0.4934
 3442DOPC   PO440381  24.218  32.211  15.343  0.1069  0.0209 -0.3617
 3442DOPC   GL140382  24.396  32.010  15.026 -0.1167 -0.1066  0.0299
 3442DOPC   GL240383  24.346  31.778  14.968  0.1520 -0.1307  0.3153
 3442DOPC   C1A40384  24.250  32.085  14.572  0.2936  0.3366 -0.0750
 3442DOPC   D2A40385  24.181  32.089  14.129  0.3182 -0.0325 -0.2173
 3442DOPC   C3A40386  24.160  31.662  14.048  0.1472  0.1865  0.0572
 3442DOPC   C4A40387  24.609  31.476  14.092  0.1557 -0.1441 -0.3950
 3442DOPC   C1B40388  24.594  31.673  14.648  0.0089  0.0758 -0.0800
 3442DOPC   D2B40389  24.896  31.363  14.557  0.1882 -0.0597  0.3219
 3442DOPC   C3B40390  25.284  31.091  14.665  0.1270 -0.1771 -0.0823
 3442DOPC   C4B40391  25.614  31.023  14.920  0.0547 -0.1489  0.1448
 3443DOPE   NH340392  25.204  26.266  15.492  0.0915  0.0812 -0.2435
 3443DOPE   PO440393  25.378  26.506  15.429 -0.3937 -0.1094  0.0611
 3443DOPE   GL140394  25.612  26.510  15.103  0.1904  0.2040  0.4130
 3443DOPE   GL240395  25.869  26.307  15.059 -0.1899  0.1299 -0.2914
 3443DOPE   C1A40396  25.337  26.302  14.762 -0.0027  0.0115  0.1484
 3443DOPE   D2A40397  25.104  25.872  14.610 -0.0785 -0.0950  0.2604
 3443DOPE   C3A40398  25.018  25.573  14.228 -0.2291  0.0556 -0.0088
 3443DOPE   C4A40399  25.005  25.317  13.847 -0.2299 -0.1787  0.0079
 3443DOPE   C1B40400  25.827  26.140  14.639 -0.1540  0.1396 -0.1241
 3443DOPE   D2B40401  25.955  26.024  14.215 -0.1909  0.1293  0.1874
 3443DOPE   C3B40402  25.977  26.415  13.898 -0.1269 -0.0906  0.2215
 3443DOPE   C4B40403  25.771  26.774  13.684 -0.0075  0.1933 -0.3027
 3444DOPC   NC340404  32.910  31.160  14.755 -0.1532  0.0190  0.0730
 3444DOPC   PO440405  32.760  30.875  14.978  0.1259 -0.0462  0.2585
 3444DOPC   GL140406  32.579  30.894  14.588 -0.1079  0.0986 -0.1780
 3444DOPC   GL240407  32.751  30.891  14.369  0.2047  0.0784 -0.3159
 3444DOPC   C1A40408  32.528  31.356  14.392  0.0191 -0.1044  0.0101
 3444DOPC   D2A40409  32.340  31.727  14.692 -0.2899  0.3081  0.1999
 3444DOPC   C3A40410  32.170  32.093  14.439  0.2557 -0.2339  0.0679
 3444DOPC   C4A40411  31.918  32.232  14.070 -0.1249 -0.1849 -0.1279
 3444DOPC   C1B40412  32.671  31.089  13.974 -0.0739  0.3345  0.1370
 3444DOPC   D2B40413  32.518  30.941  13.560 -0.0233 -0.0679  0.2380
 3444DOPC   C3B40414  32.826  30.906  13.224  0.0973  0.2572  0.0755
 3444DOPC   C4B40415  33.177  31.159  13.164  0.0217 -0.3822  0.1535
 3445POSM   NC340416  26.280  22.042  15.217  0.0011 -0.0418  0.1417
 3445POSM   PO440417  25.952  22.063  14.990  0.3361 -0.2015 -0.1005
 3445POSM   AM140418  25.869  22.179  14.755 -0.1770  0.1655  0.4175
 3445POSM   AM240419  25.962  22.333  14.525 -0.1704  0.2393 -0.1294
 3445POSM   T1A40420  25.466  22.289  14.490  0.0788 -0.1530 -0.0135
 3445POSM   C2A40421  25.025  22.392  14.348 -0.3636  0.1573 -0.1515
 3445POSM   C3A40422  24.786  22.306  13.926 -0.1195 -0.4123 -0.1776
 3445POSM   C1B40423  26.124  22.219  14.282  0.1205 -0.3649 -0.2182
 3445POSM   D2B40424  26.236  22.356  13.887 -0.2775  0.2352  0.2300
 3445POSM   C3B40425  26.003  22.541  13.614 -0.3113 -0.2719  0.1013
 3445POSM   C4B40426  25.901  22.829  13.301  0.2044  0.1443  0.1164
 3446DOPE   NH340427  30.568  26.967  15.637 -0.4612 -0.1735 -0.1514
 3446DOPE   PO440428  30.685  27.238  15.658 -0.3362  0.0670  0.2256
 3446DOPE   GL140429  30.400  27.311  15.339  0.1392  0.2078 -0.3609
 3446DOPE   GL240430  30.137  27.073  15.217 -0.1556 -0.0582  0.1564
 3446DOPE   C1A40431  30.498  27.369  14.870 -0.1296 -0.2139 -0.0908
 3446DOPE   D2A40432  30.427  27.341  14.423  0.0729 -0.0675 -0.0317
 3446DOPE   C3A40433  30.567  27.449  13.994  0.1232 -0.1785  0.0682
 3446DOPE   C4A40434  30.760  27.615  13.608 -0.0532 -0.1657 -0.0086
 3446DOPE   C1B40435  29.827  26.828  14.988 -0.0582  0.1393 -0.3251
 3446DOPE   D2B40436  29.531  26.527  14.752  0.0455  0.1724  0.0970
 3446DOPE   C3B40437  29.219  26.705  14.417  0.0659  0.0913 -0.0553
 3446DOPE   C4B40438  28.849  26.761  14.106  0.0841  0.0736  0.2371
 3447DOPE   NH340439  33.329  29.937  15.311 -0.1534 -0.0329 -0.1695
 3447DOPE   PO440440  33.266  30.154  15.109  0.4831 -0.0392 -0.1684
 3447DOPE   GL140441  33.267  30.210  14.731  0.1685 -0.0667 -0.0359
 3447DOPE   GL240442  33.083  30.226  14.458  0.0320  0.2287 -0.0583
 3447DOPE   C1A40443  33.263  30.669  14.541 -0.1171 -0.3671  0.0589
 3447DOPE   D2A40444  33.249  31.119  14.399  0.2507 -0.0868 -0.0547
 3447DOPE   C3A40445  33.375  31.170  13.952 -0.1263  0.1533  0.0963
 3447DOPE   C4A40446  33.441  31.405  13.519  0.0226  0.0241 -0.0606
 3447DOPE   C1B40447  33.174  30.449  14.059 -0.1645  0.2567  0.0667
 3447DOPE   D2B40448  33.038  30.767  13.717  0.1986 -0.0944  0.0398
 3447DOPE   C3B40449  33.323  30.702  13.328  0.2145 -0.3999 -0.2193
 3447DOPE   C4B40450  33.659  30.521  13.082 -0.1185  0.0100 -0.0322
 3448POSM   NC340451  29.739  25.698  15.361  0.2328 -0.1476 -0.1268
 3448POSM   PO440452  29.384  25.506  15.341  0.1530 -0.0227  0.2561
 3448POSM   AM140453  29.382  25.474  15.026 -0.1622  0.1108  0.5132
 3448POSM   AM240454  29.631  25.515  14.876  0.0079  0.2749  0.1439
 3448POSM   T1A40455  29.363  25.197  14.594 -0.3831 -0.0742 -0.0522
 3448POSM   C2A40456  29.580  25.214  14.208 -0.0245  0.0236  0.2594
 3448POSM   C3A40457  29.648  25.331  13.797 -0.0728  0.1202  0.2585
 3448POSM   C1B40458  29.588  25.779  14.656  0.0131 -0.0426  0.3344
 3448POSM   D2B40459  29.322  26.128  14.479  0.1991  0.0324 -0.1974
 3448POSM   C3B40460  29.042  26.367  14.855  0.0426  0.0896  0.1910
 3448POSM   C4B40461  29.076  26.379  15.335 -0.1623  0.4128  0.0396
 3449DOPS   CNO40462  31.543  28.957  15.575  0.2286  0.0140  0.0870
 3449DOPS   PO440463  31.284  29.235  15.666 -0.0388  0.0475  0.2156
 3449DOPS   GL140464  31.375  29.339  15.247  0.1217 -0.2272  0.2380
 3449DOPS   GL240465  31.620  29.472  15.206 -0.0307  0.1024 -0.0848
 3449DOPS   C1A40466  31.386  29.019  14.822 -0.1215  0.2284  0.0989
 3449DOPS   D2A40467  31.186  28.874  14.419  0.1342  0.0031  0.1065
 3449DOPS   C3A40468  31.027  29.161  14.069  0.0156 -0.1202 -0.1750
 3449DOPS   C4A40469  30.687  29.266  13.759 -0.1556 -0.0527  0.0077
 3449DOPS   C1B40470  31.321  29.586  14.844 -0.0944  0.1808  0.0797
 3449DOPS   D2B40471  31.329  29.363  14.406 -0.1000  0.1327  0.0805
 3449DOPS   C3B40472  31.624  29.325  14.101  0.1660 -0.3161 -0.0832
 3449DOPS   C4B40473  31.616  29.302  13.664 -0.1479  0.1026 -0.0497
 3450DOPC   NC340474  27.827  34.385  16.015 -0.3483 -0.0814 -0.2202
 3450DOPC   PO440475  28.151  34.566  16.016  0.0588 -0.2683  0.0975
 3450DOPC   GL140476  28.060  34.520  15.635  0.0494 -0.2139 -0.0236
 3450DOPC   GL240477  28.113  34.730  15.397 -0.0786  0.0608  0.0122
 3450DOPC   C1A40478  27.822  34.275  15.342  0.1272 -0.1199  0.0743
 3450DOPC   D2A40479  27.675  34.063  14.948 -0.0927  0.0768 -0.0026
 3450DOPC   C3A40480  27.268  34.245  14.833  0.0980 -0.0234  0.0260
 3450DOPC   C4A40481  26.959  34.513  14.938 -0.0441 -0.1171 -0.0223
 3450DOPC   C1B40482  28.267  34.881  14.993 -0.1634  0.1829  0.1397
 3450DOPC   D2B40483  28.279  34.689  14.568  0.0311 -0.2054 -0.2322
 3450DOPC   C3B40484  27.860  34.662  14.358 -0.1101  0.3107 -0.1646
 3450DOPC   C4B40485  27.534  34.310  14.411 -0.2480  0.1434  0.0349
 3451POSM   NC340486  30.173  29.156  15.983  0.0159 -0.4323  0.0398
 3451POSM   PO440487  30.449  29.009  15.734 -0.1242  0.0370 -0.2679
 3451POSM   AM140488  30.249  29.185  15.511  0.0365  0.0234  0.0944
 3451POSM   AM240489  30.038  29.124  15.352 -0.0485  0.0971 -0.1965
 3451POSM   T1A40490  30.104  29.646  15.320  0.1385  0.1064  0.0633
 3451POSM   C2A40491  30.133  29.939  14.945 -0.2477  0.1828 -0.3485
 3451POSM   C3A40492  30.398  30.106  14.602  0.4074 -0.0871  0.0519
 3451POSM   C1B40493  29.824  29.079  15.072  0.1996  0.0703 -0.0800
 3451POSM   D2B40494  29.439  29.050  14.771 -0.1735 -0.2524  0.0654
 3451POSM   C3B40495  29.319  28.946  14.369  0.4404 -0.0305  0.0692
 3451POSM   C4B40496  29.188  28.834  13.962  0.3253  0.0391 -0.0107
 3452DOPE   NH340497  32.621  23.167  14.690  0.0481  0.0020  0.0770
 3452DOPE   PO440498  32.780  22.973  14.486  0.0198 -0.1557  0.0699
 3452DOPE   GL140499  32.634  22.909  14.138 -0.2446 -0.1259  0.0552
 3452DOPE   GL240500  32.359  22.885  14.232 -0.2323  0.0800  0.1224
 3452DOPE   C1A40501  32.449  23.130  13.747  0.1271  0.2250  0.1407
 3452DOPE   D2A40502  32.316  23.354  13.342 -0.3175 -0.0152 -0.1798
 3452DOPE   C3A40503  31.972  23.449  13.097  0.1062  0.0314 -0.0522
 3452DOPE   C4A40504  31.573  23.677  13.128  0.2873 -0.1797  0.0318
 3452DOPE   C1B40505  32.032  23.201  14.100  0.1786 -0.0087 -0.1229
 3452DOPE   D2B40506  31.662  23.513  14.305  0.1800  0.2249 -0.1641
 3452DOPE   C3B40507  31.389  23.705  13.981 -0.0049 -0.1870  0.3566
 3452DOPE   C4B40508  31.366  23.848  13.547 -0.0829 -0.0945 -0.0036
 3453DOPS   CNO40509  29.689  25.338  15.825  0.1893  0.1850 -0.0252
 3453DOPS   PO440510  29.844  25.237  15.481  0.3197  0.0373 -0.1162
 3453DOPS   GL140511  29.956  25.242  15.143 -0.2215  0.0715 -0.1382
 3453DOPS   GL240512  30.063  24.924  15.075 -0.1865 -0.0468  0.0871
 3453DOPS   C1A40513  30.107  25.307  14.697 -0.0073  0.0054  0.0168
 3453DOPS   D2A40514  30.147  25.756  14.569 -0.1463  0.1129  0.1451
 3453DOPS   C3A40515  29.970  25.772  14.151 -0.0431  0.0882  0.0733
 3453DOPS   C4A40516  30.162  25.493  13.789 -0.2637 -0.2051  0.0093
 3453DOPS   C1B40517  29.745  24.583  14.901 -0.0603 -0.0655  0.1928
 3453DOPS   D2B40518  29.915  24.308  14.572  0.1820  0.1032  0.2595
 3453DOPS   C3B40519  29.679  24.207  14.229 -0.0479  0.0045 -0.1138
 3453DOPS   C4B40520  29.681  23.884  13.933  0.0247 -0.1930  0.0630
 3454DOPS   CNO40521  29.662   1.737  15.510  0.3531  0.0407 -0.1449
 3454DOPS   PO440522  29.511   1.420  15.352  0.2344 -0.1382 -0.2553
 3454DOPS   GL140523  29.561   1.281  15.050  0.1549 -0.1834 -0.1626
 3454DOPS   GL240524  29.391   1.419  14.813 -0.1879  0.2097 -0.2162
 3454DOPS   C1A40525  29.437   0.910  14.806 -0.1074 -0.0168 -0.0033
 3454DOPS   D2A40526  29.496   0.635  14.487  0.0264 -0.1086 -0.2189
 3454DOPS   C3A40527  29.251   0.604  14.082 -0.1696  0.1113 -0.0506
 3454DOPS   C4A40528  29.015   0.348  13.793 -0.0454 -0.0753 -0.4179
 3454DOPS   C1B40529  29.656   1.216  14.415 -0.1436  0.0998 -0.1599
 3454DOPS   D2B40530  29.613   0.945  14.003  0.1066  0.2565 -0.0358
 3454DOPS   C3B40531  29.514   0.626  13.652  0.1064 -0.4303 -0.0299
 3454DOPS   C4B40532  29.310   0.365  13.407  0.0695  0.0071  0.2154
 3455DOPE   NH340533   1.789  23.590  14.123 -0.3080 -0.0499 -0.0093
 3455DOPE   PO440534   1.695  23.326  13.965 -0.0866 -0.3073  0.1826
 3455DOPE   GL140535   1.705  23.394  13.637 -0.0968 -0.1479 -0.0393
 3455DOPE   GL240536   1.545  23.521  13.416  0.0524  0.0486  0.1387
 3455DOPE   C1A40537   2.034  23.394  13.298 -0.1540 -0.5550 -0.3386
 3455DOPE   D2A40538   2.107  23.378  12.855 -0.0685  0.0523  0.0179
 3455DOPE   C3A40539   1.970  23.697  12.569  0.0497  0.0715 -0.0667
 3455DOPE   C4A40540   2.149  23.882  12.157 -0.1920 -0.0110  0.4231
 3455DOPE   C1B40541   1.555  23.387  12.981  0.0351 -0.3955 -0.0651
 3455DOPE   D2B40542   1.720  23.147  12.605  0.1380 -0.2636  0.2140
 3455DOPE   C3B40543   2.140  22.932  12.516  0.0671 -0.2465  0.3628
 3455DOPE   C4B40544   2.288  22.576  12.187  0.1792  0.0469  0.1984
 3456DOPC   NC340545  32.483  26.509  14.442 -0.1708 -0.1190  0.1305
 3456DOPC   PO440546  32.108  26.489  14.442 -0.2207  0.2981  0.2029
 3456DOPC   GL140547  32.125  26.702  14.172 -0.1706 -0.0653 -0.3787
 3456DOPC   GL240548  32.360  26.559  13.978 -0.0581 -0.0913  0.0149
 3456DOPC   C1A40549  31.867  26.931  13.855  0.2496 -0.2707 -0.0087
 3456DOPC   D2A40550  31.558  27.203  13.755 -0.2576 -0.4641 -0.1457
 3456DOPC   C3A40551  31.349  27.117  13.324 -0.1222  0.2724 -0.0052
 3456DOPC   C4A40552  31.267  26.755  12.963  0.3545  0.1823 -0.0492
 3456DOPC   C1B40553  32.292  26.580  13.512  0.2182  0.0125  0.0180
 3456DOPC   D2B40554  32.320  26.360  13.139 -0.1747 -0.0126  0.2664
 3456DOPC   C3B40555  32.431  26.493  12.694 -0.4250 -0.3335 -0.2551
 3456DOPC   C4B40556  32.430  26.436  12.231  0.1481  0.1059  0.0130
 3457DOPS   CNO40557  32.897  31.662  14.946  0.1259 -0.2389 -0.4510
 3457DOPS   PO440558  33.248  31.501  14.899  0.0894  0.2760 -0.0556
 3457DOPS   GL140559  33.057  31.560  14.534 -0.1340  0.0049 -0.0633
 3457DOPS   GL240560  33.025  31.865  14.438 -0.0361 -0.1708  0.1191
 3457DOPS   C1A40561  32.939  31.461  14.083  0.1166  0.0263 -0.1945
 3457DOPS   D2A40562  32.974  31.286  13.626  0.0418 -0.1823  0.0075
 3457DOPS   C3A40563  32.648  31.327  13.308  0.0964 -0.0258  0.2920
 3457DOPS   C4A40564  32.783  31.356  12.880  0.0014 -0.1314  0.4181
 3457DOPS   C1B40565  32.622  31.815  14.275 -0.2051  0.0899  0.4581
 3457DOPS   D2B40566  32.210  31.751  14.033 -0.3610 -0.2039 -0.2244
 3457DOPS   C3B40567  32.290  31.998  13.575  0.2271 -0.1852 -0.1687
 3457DOPS   C4B40568  32.421  32.388  13.335 -0.0769  0.3082  0.2716
 3458DOPE   NH340569  25.226  33.066  15.362 -0.2309 -0.0997 -0.0882
 3458DOPE   PO440570  25.206  33.281  15.140 -0.2636  0.2799 -0.0606
 3458DOPE   GL140571  25.198  33.216  14.767 -0.1559  0.2448 -0.1206
 3458DOPE   GL240572  25.193  33.374  14.497 -0.3601  0.2621 -0.1999
 3458DOPE   C1A40573  25.023  32.885  14.495  0.0255  0.3894  0.1241
 3458DOPE   D2A40574  24.733  32.715  14.216  0.1044  0.1852  0.0791
 3458DOPE   C3A40575  24.411  32.884  13.943  0.0418 -0.0873  0.4473
 3458DOPE   C4A40576  24.034  32.597  13.764  0.0872  0.0066  0.2133
 3458DOPE   C1B40577  25.493  33.434  14.179 -0.3023 -0.1888 -0.0210
 3458DOPE   D2B40578  25.745  33.146  13.954  0.0590 -0.1549  0.2865
 3458DOPE   C3B40579  26.125  33.200  14.175  0.0646 -0.0175  0.0127
 3458DOPE   C4B40580  26.563  32.991  14.084 -0.2881 -0.0840 -0.1088
 3459DOPE   NH340581  30.443  33.936  15.602 -0.0143 -0.0786 -0.2409
 3459DOPE   PO440582  30.636  33.683  15.523  0.0824  0.0139  0.2126
 3459DOPE   GL140583  30.515  33.644  15.150  0.0559 -0.1952  0.0813
 3459DOPE   GL240584  30.230  33.700  15.174  0.2180 -0.0447 -0.3419
 3459DOPE   C1A40585  30.693  33.331  14.776  0.1370  0.0336  0.0308
 3459DOPE   D2A40586  30.956  33.278  14.409  0.4653 -0.1136 -0.1027
 3459DOPE   C3A40587  30.727  33.187  13.997  0.1011 -0.2390 -0.0798
 3459DOPE   C4A40588  30.625  32.956  13.576  0.0197  0.3290  0.0751
 3459DOPE   C1B40589  30.230  33.408  14.745  0.2452 -0.2235  0.0726
 3459DOPE   D2B40590  30.371  33.268  14.355 -0.2332  0.0060 -0.2634
 3459DOPE   C3B40591  30.233  32.888  14.171 -0.3054 -0.2184  0.0935
 3459DOPE   C4B40592  30.308  32.574  13.857  0.0834  0.0654 -0.1656
 3460DOPE   NH340593  30.531  29.884  15.860  0.2224  0.0336 -0.0914
 3460DOPE   PO440594  30.808  29.742  15.800  0.0678  0.1507 -0.1641
 3460DOPE   GL140595  30.669  29.721  15.403 -0.2871  0.0789 -0.1795
 3460DOPE   GL240596  30.532  29.941  15.321  0.1263 -0.1498 -0.1794
 3460DOPE   C1A40597  30.534  29.367  15.153 -0.1053 -0.0164  0.0958
 3460DOPE   D2A40598  30.223  29.421  14.904  0.4032 -0.2358  0.1909
 3460DOPE   C3A40599  30.232  29.477  14.445  0.1386 -0.2559  0.1667
 3460DOPE   C4A40600  30.161  29.607  13.959  0.1044  0.0006 -0.1497
 3460DOPE   C1B40601  30.288  30.317  15.176  0.0545  0.1577  0.1533
 3460DOPE   D2B40602  30.363  30.629  14.853  0.1103 -0.1556 -0.2197
 3460DOPE   C3B40603  30.238  30.558  14.410  0.1803 -0.1648  0.0722
 3460DOPE   C4B40604  29.952  30.628  14.017  0.0533 -0.1934  0.0145
 3461DOPC   NC340605   0.616  33.862  13.880 -0.2987  0.3170  0.0151
 3461DOPC   PO440606   0.501  33.572  14.150 -0.1163  0.2231  0.1938
 3461DOPC   GL140607   0.389  33.434  13.803 -0.0792 -0.0518 -0.4089
 3461DOPC   GL240608   0.691  33.370  13.728  0.0085 -0.1690 -0.4410
 3461DOPC   C1A40609   0.346  33.272  13.336  0.2546  0.1399  0.1917
 3461DOPC   D2A40610   0.397  32.920  13.032  0.0378 -0.1844 -0.2230
 3461DOPC   C3A40611   0.738  32.914  12.713  0.1839 -0.0751 -0.0317
 3461DOPC   C4A40612   1.187  32.914  12.505  0.1428  0.0682 -0.1211
 3461DOPC   C1B40613   0.796  33.566  13.366 -0.0289  0.0043  0.0089
 3461DOPC   D2B40614   0.815  33.830  13.013  0.1701  0.0692 -0.0143
 3461DOPC   C3B40615   0.894  34.291  12.960  0.0092 -0.0114 -0.2099
 3461DOPC   C4B40616   0.975  34.566  12.598 -0.1364 -0.1153 -0.1374
 3462POSM   NC340617  27.262  30.103  16.161 -0.0525 -0.0185 -0.0326
 3462POSM   PO440618  27.186  30.325  15.856  0.0050  0.0139  0.0969
 3462POSM   AM140619  27.166  30.228  15.542  0.0005 -0.0700  0.1638
 3462POSM   AM240620  26.997  30.108  15.366  0.0738  0.0837  0.1238
 3462POSM   T1A40621  27.322  30.392  15.035  0.1381  0.1614 -0.1152
 3462POSM   C2A40622  27.139  30.507  14.551  0.0228 -0.0910 -0.2091
 3462POSM   C3A40623  27.364  30.498  14.149  0.0306  0.1978 -0.3854
 3462POSM   C1B40624  27.176  29.864  15.203  0.0880 -0.1065 -0.0056
 3462POSM   D2B40625  27.453  29.825  14.805 -0.0453  0.2943 -0.0329
 3462POSM   C3B40626  27.293  29.654  14.447  0.2107 -0.0016  0.0361
 3462POSM   C4B40627  27.224  29.771  14.007 -0.1787 -0.4519 -0.1096
 3463POSM   NC340628  23.306  33.942  15.264 -0.1721  0.0171 -0.0611
 3463POSM   PO440629  23.208  33.562  15.279  0.1714  0.3583  0.3651
 3463POSM   AM140630  23.092  33.521  14.951 -0.2241 -0.2365  0.1089
 3463POSM   AM240631  22.864  33.559  14.732 -0.0861  0.1057  0.1905
 3463POSM   T1A40632  23.314  33.302  14.550 -0.0711 -0.3956  0.0411
 3463POSM   C2A40633  23.527  33.169  14.187  0.1619  0.1070  0.0227
 3463POSM   C3A40634  23.898  33.092  13.901  0.3141  0.1146  0.1935
 3463POSM   C1B40635  22.811  33.582  14.403  0.1116  0.1543 -0.1332
 3463POSM   D2B40636  22.651  33.543  13.922 -0.1407 -0.1116  0.1771
 3463POSM   C3B40637  22.265  33.445  13.751  0.0181 -0.2645  0.1578
 3463POSM   C4B40638  21.937  33.421  13.417  0.3687 -0.0734 -0.3306
 3464DOPC   NC340639  30.205  27.571  15.661 -0.1261 -0.1376 -0.1741
 3464DOPC   PO440640  29.901  27.385  15.534 -0.0082 -0.0091 -0.4404
 3464DOPC   GL140641  29.945  27.537  15.174 -0.0596  0.1095  0.4610
 3464DOPC   GL240642  29.815  27.799  15.218  0.2690 -0.1765 -0.2401
 3464DOPC   C1A40643  29.908  27.354  14.773 -0.0035 -0.2084  0.0885
 3464DOPC   D2A40644  29.604  27.088  14.583  0.0479 -0.0320 -0.0644
 3464DOPC   C3A40645  29.518  27.048  14.122 -0.0208 -0.0362 -0.0400
 3464DOPC   C4A40646  29.788  27.186  13.704  0.1763 -0.1260  0.1977
 3464DOPC   C1B40647  29.659  27.865  14.797  0.0633  0.1936 -0.0602
 3464DOPC   D2B40648  29.658  28.066  14.342 -0.1578 -0.0618 -0.0328
 3464DOPC   C3B40649  29.553  27.823  13.949  0.1252 -0.0767 -0.0128
 3464DOPC   C4B40650  29.188  27.545  13.765  0.1222 -0.2091 -0.0016
 3465DOPC   NC340651  30.090  31.530  15.925  0.0160 -0.0102  0.0636
 3465DOPC   PO440652  29.795  31.263  15.931 -0.2522 -0.0308 -0.0134
 3465DOPC   GL140653  29.873  31.358  15.509  0.1109 -0.0873 -0.1571
 3465DOPC   GL240654  30.021  31.074  15.490  0.2688  0.0526 -0.0400
 3465DOPC   C1A40655  29.622  31.274  15.116 -0.0627  0.2072 -0.0889
 3465DOPC   D2A40656  29.684  31.370  14.691  0.1825 -0.0653  0.1037
 3465DOPC   C3A40657  29.562  31.726  14.429 -0.1882  0.1399  0.1277
 3465DOPC   C4A40658  29.378  32.033  14.116  0.2290 -0.1742 -0.2244
 3465DOPC   C1B40659  30.146  31.055  15.073 -0.1038  0.0027  0.1143
 3465DOPC   D2B40660  29.873  30.799  14.877 -0.1616  0.3770 -0.1552
 3465DOPC   C3B40661  29.953  30.378  14.753 -0.2644 -0.0023  0.0814
 3465DOPC   C4B40662  29.540  30.264  14.824 -0.3323 -0.3905 -0.0131
 3466DOPS   CNO40663  23.717  33.735  15.323 -0.0521 -0.3839 -0.0788
 3466DOPS   PO440664  23.853  34.023  15.494 -0.0084 -0.1528 -0.0952
 3466DOPS   GL140665  23.716  34.107  15.020 -0.1586  0.1045  0.2216
 3466DOPS   GL240666  23.917  33.941  14.806 -0.1274  0.1087  0.0495
 3466DOPS   C1A40667  23.912  34.423  14.748 -0.1005  0.0056 -0.2390
 3466DOPS   D2A40668  23.875  34.802  14.513  0.3869  0.0727 -0.0129
 3466DOPS   C3A40669  23.897  35.288  14.362 -0.0046 -0.1384 -0.2739
 3466DOPS   C4A40670  24.297  35.511  14.316 -0.0966  0.0045  0.0304
 3466DOPS   C1B40671  23.660  34.045  14.409  0.1630  0.2884  0.0271
 3466DOPS   D2B40672  23.576  34.039  13.953 -0.0719 -0.0042 -0.0707
 3466DOPS   C3B40673  23.859  34.022  13.579 -0.1802  0.0148 -0.0156
 3466DOPS   C4B40674  24.299  33.890  13.535  0.1830  0.2094  0.0103
 3467DOPE   NH340675   0.670  25.913  14.799 -0.0386 -0.1147 -0.3784
 3467DOPE   PO440676   0.378  25.810  14.735  0.0242 -0.0314 -0.0762
 3467DOPE   GL140677   0.059  25.996  14.527 -0.1632 -0.1532  0.0640
 3467DOPE   GL240678  -0.035  26.287  14.461  0.2657  0.2071  0.2772
 3467DOPE   C1A40679  -0.148  25.906  14.130 -0.0869  0.0629  0.1021
 3467DOPE   D2A40680  -0.098  25.890  13.660  0.2234  0.1112  0.0220
 3467DOPE   C3A40681  -0.447  25.701  13.407 -0.1897 -0.0275 -0.0241
 3467DOPE   C4A40682  -0.733  25.573  13.041 -0.2570 -0.0754 -0.0626
 3467DOPE   C1B40683  -0.055  26.430  13.995 -0.0947  0.0400  0.0284
 3467DOPE   D2B40684   0.189  26.555  13.634  0.2426 -0.2028 -0.0215
 3467DOPE   C3B40685   0.219  26.532  13.176  0.3235  0.0396  0.0915
 3467DOPE   C4B40686  -0.122  26.568  12.848 -0.0568  0.2419 -0.1431
 3468DOPS   CNO40687  31.724  28.470  15.672  0.1488 -0.2670  0.1611
 3468DOPS   PO440688  31.869  28.502  15.331 -0.2257 -0.1742  0.3091
 3468DOPS   GL140689  31.757  28.488  15.046 -0.6754 -0.0134  0.1057
 3468DOPS   GL240690  31.957  28.351  14.826 -0.0677  0.0955  0.2189
 3468DOPS   C1A40691  31.534  28.504  14.655  0.4244 -0.1496  0.1563
 3468DOPS   D2A40692  31.629  28.548  14.182 -0.2006  0.0048  0.0578
 3468DOPS   C3A40693  31.446  28.885  13.921 -0.2101  0.4513 -0.0230
 3468DOPS   C4A40694  31.213  29.057  13.526  0.1262  0.0400  0.1639
 3468DOPS   C1B40695  32.078  28.450  14.426 -0.2501 -0.4386 -0.1339
 3468DOPS   D2B40696  32.141  28.409  13.946 -0.0306 -0.1422 -0.0252
 3468DOPS   C3B40697  31.696  28.267  13.679 -0.1320 -0.2583  0.1477
 3468DOPS   C4B40698  31.329  28.516  13.597  0.2031 -0.1155 -0.1341
 3469DOPE   NH340699  31.427  24.947  11.269 -0.2238  0.0285 -0.0403
 3469DOPE   PO440700  31.318  24.751  11.046  0.1158 -0.0462  0.2224
 3469DOPE   GL140701  31.182  24.593  11.420 -0.0018 -0.2039  0.0188
 3469DOPE   GL240702  31.327  24.440  11.634  0.0121  0.0458 -0.1521
 3469DOPE   C1A40703  30.829  24.364  11.556 -0.0074 -0.4452  0.0563
 3469DOPE   D2A40704  30.380  24.297  11.515 -0.2261 -0.0733 -0.0575
 3469DOPE   C3A40705  30.238  23.882  11.536  0.1409  0.0079 -0.0459
 3469DOPE   C4A40706  30.039  23.628  11.858  0.4706  0.0672 -0.2493
 3469DOPE   C1B40707  31.447  24.689  11.962 -0.1427  0.0207 -0.0021
 3469DOPE   D2B40708  31.846  24.692  12.289 -0.3456  0.3366  0.1499
 3469DOPE   C3B40709  31.928  24.889  12.676  0.2353 -0.2936  0.0019
 3469DOPE   C4B40710  31.739  25.157  13.075 -0.1214  0.4934 -0.0246
 3470DOPS   CNO40711  24.116  29.625  11.484 -0.1954  0.4330 -0.0192
 3470DOPS   PO440712  24.355  29.351  11.624 -0.2258  0.4472  0.5226
 3470DOPS   GL140713  24.442  29.082  11.864 -0.1237  0.0418 -0.0395
 3470DOPS   GL240714  24.634  29.108  12.023  0.2295  0.0952  0.2042
 3470DOPS   C1A40715  24.114  28.785  12.099  0.3594 -0.0205  0.1077
 3470DOPS   D2A40716  24.043  28.515  12.472 -0.1957  0.0104  0.3646
 3470DOPS   C3A40717  23.745  28.195  12.487 -0.0572  0.3924  0.1312
 3470DOPS   C4A40718  23.351  28.290  12.682  0.0578  0.1640  0.4083
 3470DOPS   C1B40719  24.394  29.360  12.393 -0.4647 -0.1710  0.0709
 3470DOPS   D2B40720  24.117  29.393  12.746  0.0502 -0.2376 -0.0257
 3470DOPS   C3B40721  23.705  29.682  12.746  0.0442 -0.0225 -0.0365
 3470DOPS   C4B40722  23.529  29.907  12.400  0.2774 -0.1127  0.0194
 3471DOPE   NH340723  30.653  26.501  11.347  0.1782 -0.1283 -0.0238
 3471DOPE   PO440724  30.756  26.158  11.370  0.2085 -0.0120 -0.0242
 3471DOPE   GL140725  30.978  26.153  11.708 -0.0079 -0.0458 -0.0226
 3471DOPE   GL240726  30.914  25.910  11.910  0.0736  0.0352  0.2504
 3471DOPE   C1A40727  31.062  26.378  12.099 -0.1007  0.1674  0.1445
 3471DOPE   D2A40728  31.120  26.379  12.573  0.0388  0.0320 -0.0875
 3471DOPE   C3A40729  30.744  26.589  12.743  0.2110 -0.3208 -0.0680
 3471DOPE   C4A40730  30.518  26.802  13.086 -0.0996 -0.0959  0.2455
 3471DOPE   C1B40731  31.305  25.823  11.657  0.1084 -0.0339 -0.3438
 3471DOPE   D2B40732  31.661  25.586  11.626  0.1973  0.1037  0.1235
 3471DOPE   C3B40733  31.825  25.498  12.061  0.0368  0.0491 -0.2831
 3471DOPE   C4B40734  31.812  25.362  12.545 -0.1599 -0.0353  0.3025
 3472DOPE   NH340735  33.549  24.669  10.391 -0.3654  0.2382 -0.1486
 3472DOPE   PO440736  33.414  24.966  10.523  0.0497  0.1987  0.3495
 3472DOPE   GL140737  33.513  24.980  10.911 -0.2155 -0.0933 -0.2383
 3472DOPE   GL240738  33.301  25.158  10.972  0.1753 -0.0245  0.1791
 3472DOPE   C1A40739  33.350  24.926  11.380  0.0834 -0.1906  0.1514
 3472DOPE   D2A40740  33.273  24.736  11.811  0.1756  0.1315  0.1520
 3472DOPE   C3A40741  33.522  24.751  12.204 -0.2914 -0.2857 -0.0710
 3472DOPE   C4A40742  33.725  24.518  12.480 -0.1586 -0.1228  0.2834
 3472DOPE   C1B40743  33.634  25.432  11.170  0.2486  0.0327 -0.2461
 3472DOPE   D2B40744  33.787  25.626  11.560 -0.2706  0.0624 -0.1605
 3472DOPE   C3B40745  34.136  25.482  11.858  0.1820  0.1411  0.0892
 3472DOPE   C4B40746  34.301  25.239  12.249  0.0756  0.1042 -0.4605
 3473DOPC   NC340747  31.604  26.229  10.850 -0.0181 -0.0589 -0.0047
 3473DOPC   PO440748  31.821  25.943  10.929  0.1576 -0.0487 -0.0117
 3473DOPC   GL140749  31.925  25.827  11.289  0.2378 -0.1962 -0.1862
 3473DOPC   GL240750  32.106  25.663  11.343  0.0349 -0.3606  0.2709
 3473DOPC   C1A40751  31.799  26.036  11.686 -0.1921 -0.0863 -0.1335
 3473DOPC   D2A40752  32.000  25.963  12.067  0.0268 -0.0940 -0.2516
 3473DOPC   C3A40753  32.044  26.233  12.477 -0.1468 -0.0259 -0.1181
 3473DOPC   C4A40754  32.034  26.109  12.872 -0.3820  0.3606  0.0536
 3473DOPC   C1B40755  32.371  25.761  11.772 -0.0681  0.0144 -0.0843
 3473DOPC   D2B40756  32.633  25.934  12.081  0.0078  0.0929 -0.6571
 3473DOPC   C3B40757  32.609  26.052  12.487 -0.1350  0.2568 -0.0970
 3473DOPC   C4B40758  32.497  25.941  12.944  0.1385 -0.0154  0.5270
 3474DOPC   NC340759  27.182  32.700  12.012 -0.1541  0.0472 -0.1762
 3474DOPC   PO440760  26.883  32.677  11.786  0.2649  0.3126  0.0288
 3474DOPC   GL140761  26.549  32.475  12.064 -0.2131 -0.2107 -0.4616
 3474DOPC   GL240762  26.771  32.460  12.273 -0.2373  0.0729  0.1291
 3474DOPC   C1A40763  26.332  32.442  12.454 -0.0653  0.4246  0.3832
 3474DOPC   D2A40764  26.011  32.398  12.799  0.0322 -0.0100 -0.0138
 3474DOPC   C3A40765  25.903  31.981  12.911  0.2425 -0.1024  0.1029
 3474DOPC   C4A40766  26.099  31.735  13.246  0.0392  0.2158  0.0311
 3474DOPC   C1B40767  26.737  32.390  12.731  0.0593  0.0307 -0.2174
 3474DOPC   D2B40768  26.457  32.667  12.995 -0.0114 -0.2265 -0.1509
 3474DOPC   C3B40769  26.166  32.909  12.736 -0.1693  0.2152 -0.2923
 3474DOPC   C4B40770  25.823  33.074  12.447  0.1497  0.2310  0.0846
 3475DOPE   NH340771  22.104  32.518  11.010 -0.0872  0.2040  0.0643
 3475DOPE   PO440772  22.232  32.715  11.254 -0.0119  0.0415  0.0290
 3475DOPE   GL140773  22.072  32.732  11.613 -0.0208 -0.0233 -0.1144
 3475DOPE   GL240774  21.981  32.491  11.699  0.0967 -0.0986  0.1330
 3475DOPE   C1A40775  22.130  32.793  12.104 -0.0869  0.1818 -0.0161
 3475DOPE   D2A40776  22.076  32.505  12.462  0.1516  0.2123 -0.0550
 3475DOPE   C3A40777  22.320  32.525  12.891  0.0563  0.0207 -0.2265
 3475DOPE   C4A40778  22.483  32.234  13.218 -0.0753  0.4858  0.0318
 3475DOPE   C1B40779  21.741  32.457  12.051 -0.2535 -0.0441  0.0915
 3475DOPE   D2B40780  21.570  32.605  12.433 -0.2884 -0.3467 -0.0948
 3475DOPE   C3B40781  21.282  32.952  12.689  0.1453 -0.3574  0.2818
 3475DOPE   C4B40782  21.230  33.369  12.783 -0.0347 -0.0541  0.0500
 3476DOPE   NH340783  34.634  31.250  10.771  0.0579  0.0608  0.0576
 3476DOPE   PO440784  34.886  31.094  10.627 -0.1205 -0.0654  0.0070
 3476DOPE   GL140785  35.063  31.039  10.949 -0.1336 -0.3225  0.2299
 3476DOPE   GL240786  35.285  30.911  10.986  0.0368  0.0521  0.0364
 3476DOPE   C1A40787  34.848  31.250  11.291  0.2414 -0.1185  0.2558
 3476DOPE   D2A40788  34.602  31.035  11.637  0.1260 -0.1935  0.0320
 3476DOPE   C3A40789  34.473  30.954  12.064 -0.0356 -0.2668  0.0496
 3476DOPE   C4A40790  34.446  30.590  12.388 -0.1855 -0.2067 -0.3051
 3476DOPE   C1B40791  35.298  31.043  11.421 -0.2254 -0.0789 -0.0885
 3476DOPE   D2B40792  35.173  31.466  11.626 -0.0696  0.1306 -0.1129
 3476DOPE   C3B40793  35.491  31.808  11.647 -0.4275  0.2725  0.0291
 3476DOPE   C4B40794  35.631  32.227  11.820 -0.2030 -0.2085 -0.0059
 3477DOPE   NH340795  28.133  31.463  11.807  0.4237  0.1254 -0.2756
 3477DOPE   PO440796  28.316  31.721  11.812  0.1167 -0.0983 -0.0266
 3477DOPE   GL140797  28.166  31.804  12.183 -0.0262 -0.1396 -0.4212
 3477DOPE   GL240798  28.401  31.855  12.299  0.2328 -0.2186  0.1956
 3477DOPE   C1A40799  27.833  31.793  12.527 -0.2845  0.0916  0.0554
 3477DOPE   D2A40800  27.451  31.905  12.821 -0.0603  0.0759 -0.0163
 3477DOPE   C3A40801  27.276  31.679  13.214 -0.0675 -0.1396  0.0499
 3477DOPE   C4A40802  27.342  31.340  13.530  0.4195  0.0932 -0.0513
 3477DOPE   C1B40803  28.570  31.636  12.686  0.2363  0.1175  0.2328
 3477DOPE   D2B40804  28.615  31.385  13.053 -0.1664  0.1846 -0.0603
 3477DOPE   C3B40805  28.342  31.438  13.436  0.1713  0.1755 -0.0295
 3477DOPE   C4B40806  27.895  31.465  13.482 -0.0457 -0.0853 -0.0446
 3478POSM   NC340807  24.398  33.165  11.156 -0.1221 -0.0498  0.2500
 3478POSM   PO440808  24.213  33.037  11.465  0.1213  0.1211 -0.0232
 3478POSM   AM140809  24.114  33.099  11.791  0.1134  0.1771 -0.0984
 3478POSM   AM240810  24.326  33.187  11.958 -0.0140  0.2233 -0.2616
 3478POSM   T1A40811  23.904  33.112  12.203  0.3982 -0.0383 -0.0860
 3478POSM   C2A40812  23.831  33.032  12.669  0.0256  0.0235 -0.2595
 3478POSM   C3A40813  23.566  33.257  13.014 -0.1819 -0.3835  0.1923
 3478POSM   C1B40814  24.328  33.385  12.245 -0.1185  0.1526 -0.0988
 3478POSM   D2B40815  24.059  33.514  12.555  0.1743 -0.3156  0.0072
 3478POSM   C3B40816  24.091  33.585  13.037 -0.0559  0.0555  0.1475
 3478POSM   C4B40817  23.950  33.448  13.428  0.0885  0.0152 -0.0424
 3479DOPE   NH340818  25.420  33.269  11.377 -0.0668  0.1328 -0.0497
 3479DOPE   PO440819  25.259  33.296  11.649  0.2280  0.2588 -0.2516
 3479DOPE   GL140820  25.419  33.408  12.063 -0.0926  0.0753  0.2439
 3479DOPE   GL240821  25.694  33.396  11.960 -0.0645  0.1878  0.0411
 3479DOPE   C1A40822  25.302  32.996  12.280  0.1632 -0.0673 -0.0019
 3479DOPE   D2A40823  25.322  32.939  12.739 -0.3601 -0.1390  0.6562
 3479DOPE   C3A40824  25.728  33.121  12.917  0.2050  0.2450 -0.0264
 3479DOPE   C4A40825  26.028  33.296  13.215  0.0128  0.2573  0.2262
 3479DOPE   C1B40826  25.878  33.573  12.269  0.0121  0.3116  0.3312
 3479DOPE   D2B40827  25.940  33.531  12.687  0.1295  0.2957  0.0029
 3479DOPE   C3B40828  25.753  33.784  13.000  0.0551  0.1580 -0.0788
 3479DOPE   C4B40829  25.450  33.976  13.317 -0.1772 -0.1204  0.0970
 3480POSM   NC340830  32.564  30.422  10.910  0.2471  0.2825  0.1009
 3480POSM   PO440831  32.474  30.204  11.227 -0.1155  0.0445 -0.0967
 3480POSM   AM140832  32.415  30.284  11.522  0.2251  0.1061  0.0060
 3480POSM   AM240833  32.193  30.362  11.692  0.2311 -0.0518 -0.1404
 3480POSM   T1A40834  32.559  30.130  11.989  0.1279 -0.1250  0.0094
 3480POSM   C2A40835  32.643  30.379  12.371 -0.0043  0.0206  0.0224
 3480POSM   C3A40836  32.780  30.710  12.689 -0.2453  0.1794  0.1289
 3480POSM   C1B40837  32.275  30.499  12.041 -0.1005  0.1475  0.0885
 3480POSM   D2B40838  32.256  30.770  12.419 -0.0127  0.2160  0.0638
 3480POSM   C3B40839  32.425  31.013  12.807  0.3359  0.0189 -0.0766
 3480POSM   C4B40840  32.170  31.100  13.181 -0.0200 -0.1406 -0.0116
 3481POSM   NC340841  23.325  27.756  10.736 -0.0556 -0.0172 -0.2101
 3481POSM   PO440842  23.577  27.999  10.910 -0.0233 -0.0459 -0.3578
 3481POSM   AM140843  23.516  27.916  11.215  0.1878 -0.0081 -0.2866
 3481POSM   AM240844  23.523  28.043  11.431  0.0774  0.0429  0.1818
 3481POSM   T1A40845  23.357  27.640  11.605  0.2721  0.1491  0.1508
 3481POSM   C2A40846  23.197  27.397  11.986  0.0529 -0.0643 -0.0477
 3481POSM   C3A40847  23.203  27.407  12.439  0.1806 -0.0392  0.0160
 3481POSM   C1B40848  23.486  28.221  11.730  0.0789 -0.2270 -0.0569
 3481POSM   D2B40849  23.274  28.405  12.124  0.2387  0.1795 -0.0138
 3481POSM   C3B40850  23.562  28.639  12.412 -0.2316  0.1000  0.0412
 3481POSM   C4B40851  23.786  29.031  12.536  0.2411 -0.1168 -0.1453
 3482DOPC   NC340852  29.837  32.068  11.461 -0.0131 -0.0981 -0.0883
 3482DOPC   PO440853  29.964  32.032  11.847 -0.1840  0.0984  0.0494
 3482DOPC   GL140854  30.175  31.910  12.222  0.0887  0.1912 -0.4789
 3482DOPC   GL240855  29.952  31.843  12.365 -0.0418 -0.0894  0.0787
 3482DOPC   C1A40856  30.286  32.129  12.629  0.0284  0.1388 -0.0973
 3482DOPC   D2A40857  30.198  32.070  13.079  0.1291 -0.0025  0.2900
 3482DOPC   C3A40858  30.561  32.147  13.453  0.1701 -0.1524 -0.3831
 3482DOPC   C4A40859  30.922  32.012  13.746 -0.0478  0.2588  0.0240
 3482DOPC   C1B40860  29.777  32.006  12.767 -0.1383 -0.0978  0.5117
 3482DOPC   D2B40861  29.709  31.980  13.200 -0.1677  0.0123 -0.1435
 3482DOPC   C3B40862  29.572  31.629  13.443  0.2135 -0.1952 -0.0989
 3482DOPC   C4B40863  29.389  31.250  13.604  0.2648 -0.0676 -0.0458
 3483DOPC   NC340864  29.464  32.923  11.698  0.2396  0.2946  0.1644
 3483DOPC   PO440865  29.828  32.990  11.679  0.2966 -0.1513 -0.0509
 3483DOPC   GL140866  29.736  33.055  12.126  0.0980 -0.3734 -0.2381
 3483DOPC   GL240867  29.733  32.871  12.218 -0.0286 -0.2699 -0.0745
 3483DOPC   C1A40868  29.967  33.347  12.439  0.2078 -0.1459  0.3804
 3483DOPC   D2A40869  30.191  33.652  12.699 -0.0591  0.1949 -0.0989
 3483DOPC   C3A40870  30.431  33.667  13.098 -0.0210 -0.1526 -0.2216
 3483DOPC   C4A40871  30.694  34.016  13.336 -0.0749  0.2472 -0.0951
 3483DOPC   C1B40872  29.743  32.948  12.675  0.1625  0.0731 -0.1776
 3483DOPC   D2B40873  29.854  33.296  12.936 -0.2107  0.0005 -0.0104
 3483DOPC   C3B40874  30.277  33.233  13.110  0.0107 -0.3699  0.1272
 3483DOPC   C4B40875  30.731  33.154  13.090 -0.2080  0.1500 -0.2857
 3484DOPC   NC340876  26.570  29.837  11.609 -0.0485  0.1837  0.1629
 3484DOPC   PO440877  26.468  30.196  11.633  0.1086  0.0044 -0.1687
 3484DOPC   GL140878  26.503  30.319  11.978 -0.1353  0.3320 -0.2416
 3484DOPC   GL240879  26.708  30.435  12.207 -0.1405  0.2088  0.2729
 3484DOPC   C1A40880  26.260  30.272  12.393 -0.0829 -0.0196 -0.0469
 3484DOPC   D2A40881  26.182  30.154  12.818  0.3640 -0.1345 -0.0839
 3484DOPC   C3A40882  26.253  30.367  13.236  0.0060  0.0285  0.3038
 3484DOPC   C4A40883  26.127  30.610  13.574  0.1122 -0.1351  0.1079
 3484DOPC   C1B40884  27.046  30.422  12.547 -0.0772  0.2342 -0.1248
 3484DOPC   D2B40885  27.077  30.511  13.020 -0.2703  0.1207 -0.2101
 3484DOPC   C3B40886  26.769  30.286  13.209 -0.0619  0.0688  0.1014
 3484DOPC   C4B40887  26.592  29.895  13.321 -0.1542  0.0094 -0.0927
 3485DOPE   NH340888  29.549  23.550  11.653  0.0280 -0.0261  0.0842
 3485DOPE   PO440889  29.607  23.857  11.501  0.0566 -0.2479  0.2137
 3485DOPE   GL140890  29.630  23.853  11.975  0.0382 -0.2439  0.3952
 3485DOPE   GL240891  29.469  23.738  12.175  0.2452  0.3480  0.0693
 3485DOPE   C1A40892  29.614  24.172  12.303 -0.1534  0.0170  0.0189
 3485DOPE   D2A40893  29.539  24.243  12.710  0.1994  0.3870 -0.1804
 3485DOPE   C3A40894  29.851  24.433  13.012 -0.2610 -0.2947 -0.1665
 3485DOPE   C4A40895  30.114  24.590  13.367  0.2624  0.0352  0.1995
 3485DOPE   C1B40896  29.251  23.889  12.540 -0.1168 -0.2703 -0.0769
 3485DOPE   D2B40897  29.063  24.087  12.923  0.2615  0.0312  0.1090
 3485DOPE   C3B40898  29.239  24.485  13.108  0.1905  0.2054  0.0731
 3485DOPE   C4B40899  29.557  24.694  13.349  0.0757 -0.1623  0.1189
 3486POSM   NC340900  26.966  25.327  11.278  0.1521 -0.0306  0.1389
 3486POSM   PO440901  27.368  25.404  11.358 -0.1798 -0.1437  0.1173
 3486POSM   AM140902  27.306  25.419  11.658  0.2394 -0.0458 -0.3621
 3486POSM   AM240903  27.142  25.576  11.821 -0.0607  0.2236  0.1456
 3486POSM   T1A40904  27.178  25.171  12.106 -0.3143 -0.0855  0.0665
 3486POSM   C2A40905  27.511  25.130  12.395 -0.2429  0.1288 -0.1582
 3486POSM   C3A40906  27.710  24.929  12.743  0.0197 -0.0292 -0.0963
 3486POSM   C1B40907  27.013  25.662  12.127  0.2955  0.0093 -0.0336
 3486POSM   D2B40908  27.089  25.700  12.595  0.0590  0.1794 -0.0386
 3486POSM   C3B40909  26.867  26.116  12.758 -0.1888  0.0497 -0.1520
 3486POSM   C4B40910  26.582  26.458  12.755 -0.0813 -0.2220 -0.0238
 3487DOPE   NH340911  24.533  32.713  11.809 -0.4174 -0.1440  0.2501
 3487DOPE   PO440912  24.448  32.409  11.827 -0.1720 -0.2454 -0.0552
 3487DOPE   GL140913  24.401  32.514  12.211  0.3911 -0.0481 -0.4303
 3487DOPE   GL240914  24.427  32.831  12.301  0.0647 -0.0775 -0.0432
 3487DOPE   C1A40915  24.335  32.305  12.577 -0.1300 -0.1609  0.0985
 3487DOPE   D2A40916  24.303  32.027  12.966  0.0108 -0.4789  0.1479
 3487DOPE   C3A40917  24.159  31.594  13.004 -0.0969  0.0328 -0.1055
 3487DOPE   C4A40918  24.300  31.234  13.346 -0.0680  0.1653  0.0002
 3487DOPE   C1B40919  24.310  32.803  12.776 -0.0301 -0.1424  0.0698
 3487DOPE   D2B40920  24.113  33.038  13.067 -0.0632 -0.0915 -0.0290
 3487DOPE   C3B40921  24.445  32.887  13.329  0.1476 -0.2812  0.0241
 3487DOPE   C4B40922  24.816  32.777  13.574 -0.1417 -0.0554  0.2548
 3488DOPC   NC340923  30.921  25.369  11.560 -0.2205  0.1779 -0.4807
 3488DOPC   PO440924  30.942  24.992  11.464  0.2552  0.0965 -0.1966
 3488DOPC   GL140925  30.935  24.772  11.755 -0.0379  0.1699 -0.4649
 3488DOPC   GL240926  30.786  24.984  11.954  0.0397  0.0862 -0.1123
 3488DOPC   C1A40927  30.964  24.428  12.075 -0.0628  0.1770 -0.1305
 3488DOPC   D2A40928  30.755  24.339  12.494  0.3016 -0.5598 -0.0720
 3488DOPC   C3A40929  30.566  23.958  12.587 -0.1887  0.2731 -0.0344
 3488DOPC   C4A40930  30.578  23.594  12.876 -0.1255  0.0332 -0.2190
 3488DOPC   C1B40931  31.014  24.899  12.314  0.0393  0.0636  0.0745
 3488DOPC   D2B40932  31.289  24.534  12.477  0.0564  0.0066 -0.0461
 3488DOPC   C3B40933  31.184  24.211  12.783  0.1916 -0.0608  0.1089
 3488DOPC   C4B40934  30.870  24.043  12.988  0.0326  0.0428 -0.1659
 3489POSM   NC340935  33.188  23.654  10.478  0.3444  0.4131 -0.2621
 3489POSM   PO440936  33.147  23.455  10.803  0.1917 -0.1927 -0.1957
 3489POSM   AM140937  33.259  23.639  11.053 -0.3129 -0.0264  0.0894
 3489POSM   AM240938  33.240  23.732  11.309  0.0967 -0.1109 -0.0952
 3489POSM   T1A40939  33.708  23.738  11.344  0.1669 -0.1301  0.6391
 3489POSM   C2A40940  33.994  23.521  11.599 -0.1992  0.3858 -0.1874
 3489POSM   C3A40941  34.113  23.231  12.002 -0.1892 -0.0137  0.0703
 3489POSM   C1B40942  33.290  23.422  11.524  0.0003  0.0014 -0.1996
 3489POSM   D2B40943  33.375  23.169  11.888 -0.3793  0.0440 -0.0249
 3489POSM   C3B40944  33.666  23.463  12.222 -0.0699  0.2869  0.2459
 3489POSM   C4B40945  34.120  23.506  12.423  0.0943 -0.0485  0.0244
 3490DOPE   NH340946  30.656  29.017  11.663  0.2037 -0.3531  0.0115
 3490DOPE   PO440947  30.916  29.139  11.662 -0.0961  0.2229  0.0942
 3490DOPE   GL140948  30.954  29.273  11.966 -0.2546 -0.0505  0.2249
 3490DOPE   GL240949  30.677  29.305  12.094 -0.0321 -0.0678 -0.1412
 3490DOPE   C1A40950  31.061  29.175  12.398 -0.1300 -0.0727 -0.1649
 3490DOPE   D2A40951  31.243  29.120  12.835  0.3335  0.3168 -0.1061
 3490DOPE   C3A40952  31.578  29.211  13.102 -0.5350 -0.2067  0.0494
 3490DOPE   C4A40953  32.017  29.366  13.309  0.1589 -0.1327 -0.0063
 3490DOPE   C1B40954  30.863  29.654  12.348 -0.2642 -0.2783 -0.0352
 3490DOPE   D2B40955  31.087  30.067  12.478 -0.2984 -0.0076  0.0440
 3490DOPE   C3B40956  31.470  30.133  12.756  0.4628 -0.0900 -0.1413
 3490DOPE   C4B40957  31.505  30.228  13.180 -0.0023  0.1781 -0.0287
 3491DOPE   NH340958  23.616  29.719  11.334 -0.0210  0.1378 -0.0627
 3491DOPE   PO440959  23.361  29.533  11.268  0.1523 -0.0003  0.2656
 3491DOPE   GL140960  23.242  29.654  11.621  0.0966 -0.0048 -0.0007
 3491DOPE   GL240961  23.014  29.517  11.598 -0.4128 -0.1350  0.2220
 3491DOPE   C1A40962  23.172  29.685  12.081  0.2738  0.0338  0.0259
 3491DOPE   D2A40963  23.211  29.531  12.519  0.0272  0.1027  0.1344
 3491DOPE   C3A40964  23.100  29.711  12.913 -0.1144 -0.2191 -0.1414
 3491DOPE   C4A40965  23.233  30.118  12.937  0.1831  0.1073  0.2050
 3491DOPE   C1B40966  22.670  29.623  11.892 -0.2610 -0.0542  0.3658
 3491DOPE   D2B40967  22.233  29.604  12.020  0.1985  0.1722  0.2156
 3491DOPE   C3B40968  21.890  29.713  11.726  0.0082  0.1497 -0.0298
 3491DOPE   C4B40969  21.462  29.858  11.828 -0.6691  0.2997  0.2725
 3492DOPC   NC340970  27.859  30.999  11.706 -0.0860 -0.2195  0.0829
 3492DOPC   PO440971  27.632  30.796  11.958 -0.1098 -0.0287 -0.0310
 3492DOPC   GL140972  27.819  30.681  12.270  0.0835  0.0604 -0.2463
 3492DOPC   GL240973  27.528  30.595  12.420 -0.0771 -0.3794 -0.4415
 3492DOPC   C1A40974  27.947  30.272  12.365 -0.4480 -0.0262  0.2894
 3492DOPC   D2A40975  28.011  29.976  12.742  0.0253  0.2536  0.1730
 3492DOPC   C3A40976  27.676  29.939  13.032  0.4615  0.0433 -0.0631
 3492DOPC   C4A40977  27.797  30.079  13.435  0.4512 -0.1873 -0.2243
 3492DOPC   C1B40978  27.243  30.886  12.686 -0.0211  0.0921 -0.0388
 3492DOPC   D2B40979  26.929  30.997  13.019  0.0120 -0.0460 -0.1239
 3492DOPC   C3B40980  26.911  30.946  13.472  0.1010  0.0908 -0.1855
 3492DOPC   C4B40981  26.575  30.719  13.641 -0.0836 -0.1091 -0.1269
 3493DOPE   NH340982  24.243  33.720  11.125  0.0720 -0.0049  0.0835
 3493DOPE   PO440983  24.213  33.557  11.415 -0.1484  0.0220  0.1069
 3493DOPE   GL140984  24.274  33.777  11.773 -0.0704 -0.2105 -0.3372
 3493DOPE   GL240985  24.067  33.632  11.905 -0.1023  0.2488  0.1475
 3493DOPE   C1A40986  24.315  33.893  12.262  0.0837 -0.2478  0.2258
 3493DOPE   D2A40987  24.225  33.928  12.718  0.0887 -0.2326 -0.0682
 3493DOPE   C3A40988  24.647  33.922  12.954 -0.1337 -0.2521  0.2334
 3493DOPE   C4A40989  24.951  33.750  13.256 -0.2239  0.1220  0.3349
 3493DOPE   C1B40990  23.713  33.628  12.175  0.0853  0.2387  0.2264
 3493DOPE   D2B40991  23.451  33.476  12.578 -0.4645  0.1304  0.1666
 3493DOPE   C3B40992  23.140  33.742  12.616 -0.1788  0.2935  0.1860
 3493DOPE   C4B40993  23.170  34.161  12.598 -0.3598  0.0959  0.3175
 3494POSM   NC340994  33.648  30.423  10.830 -0.0891  0.0511 -0.2851
 3494POSM   PO440995  33.978  30.339  11.007  0.0341 -0.1788 -0.0912
 3494POSM   AM140996  33.820  30.393  11.269  0.1983 -0.3912 -0.2196
 3494POSM   AM240997  33.512  30.389  11.318  0.1710 -0.0245  0.2826
 3494POSM   T1A40998  33.817  30.322  11.743 -0.2946 -0.0240 -0.1409
 3494POSM   C2A40999  33.544  30.247  12.083  0.0526  0.0916 -0.0999
 3494POSM   C3A41000  33.050  30.325  12.141  0.1309 -0.1099 -0.3075
 3494POSM   C1B41001  33.291  30.372  11.629 -0.4401  0.0559  0.0584
 3494POSM   D2B41002  32.920  30.148  11.661 -0.1695  0.4050  0.2073
 3494POSM   C3B41003  32.983  29.792  11.989  0.0103  0.3295  0.1625
 3494POSM   C4B41004  32.759  29.871  12.405  0.4481  0.1490 -0.0743
 3495DOPC   NC341005  30.203  31.116  12.405  0.1513 -0.1826 -0.2021
 3495DOPC   PO441006  30.503  31.017  12.124  0.2553 -0.2128 -0.0766
 3495DOPC   GL141007  30.668  31.250  12.468  0.1343  0.0151  0.0745
 3495DOPC   GL241008  30.723  31.006  12.605  0.3855 -0.1033  0.1230
 3495DOPC   C1A41009  30.995  31.633  12.427 -0.1903 -0.1713 -0.3013
 3495DOPC   D2A41010  31.458  31.690  12.516  0.1801 -0.3723  0.0066
 3495DOPC   C3A41011  31.610  31.450  12.855  0.1769  0.0293 -0.3569
 3495DOPC   C4A41012  31.710  31.343  13.339 -0.1182 -0.1236  0.3330
 3495DOPC   C1B41013  30.899  30.987  13.059  0.2310 -0.0027 -0.1862
 3495DOPC   D2B41014  31.084  31.280  13.359 -0.1513 -0.0244 -0.2473
 3495DOPC   C3B41015  31.194  31.608  13.659 -0.0641  0.1282 -0.1721
 3495DOPC   C4B41016  31.436  31.932  13.974 -0.1490 -0.0276  0.2766
 3496POSM   NC341017  30.645  34.044  11.524 -0.1023  0.1504  0.2075
 3496POSM   PO441018  30.418  33.724  11.564 -0.0969  0.1370  0.1850
 3496POSM   AM141019  30.505  33.754  11.846  0.2682 -0.1704 -0.4277
 3496POSM   AM241020  30.511  33.707  12.141  0.2446  0.2524  0.2542
 3496POSM   T1A41021  30.567  34.165  12.149 -0.3583  0.0876 -0.1885
 3496POSM   C2A41022  30.623  34.480  12.429  0.0421  0.2892  0.4424
 3496POSM   C3A41023  30.497  34.671  12.842  0.0294  0.0324 -0.3530
 3496POSM   C1B41024  30.703  33.699  12.452 -0.0323 -0.1320  0.2176
 3496POSM   D2B41025  30.880  33.781  12.900  0.2598 -0.1284  0.1083
 3496POSM   C3B41026  31.320  33.690  13.032 -0.0402  0.1961 -0.0621
 3496POSM   C4B41027  31.449  33.843  13.473  0.1823 -0.0227 -0.1809
 3497DOPE   NH341028  28.889  23.977  11.715 -0.1486  0.0366  0.1654
 3497DOPE   PO441029  29.217  24.023  11.735 -0.2001  0.0496  0.1834
 3497DOPE   GL141030  29.215  24.078  12.025 -0.5314  0.1127 -0.2446
 3497DOPE   GL241031  28.962  24.051  12.180 -0.0210  0.1733  0.1324
 3497DOPE   C1A41032  29.138  24.414  12.393 -0.1751  0.0265  0.0287
 3497DOPE   D2A41033  29.345  24.696  12.621 -0.1072  0.3188  0.2498
 3497DOPE   C3A41034  29.781  24.760  12.657 -0.2037 -0.0236 -0.2752
 3497DOPE   C4A41035  30.241  24.666  12.546 -0.0302 -0.2098 -0.1191
 3497DOPE   C1B41036  28.641  24.095  12.526  0.2052  0.2138 -0.2632
 3497DOPE   D2B41037  28.370  24.265  12.862 -0.1776 -0.1929  0.0136
 3497DOPE   C3B41038  28.306  23.975  13.186 -0.0987 -0.1300  0.2869
 3497DOPE   C4B41039  28.421  23.502  13.311 -0.0147 -0.2326 -0.1913
 3498DOPC   NC341040  32.192  25.596  10.810  0.0968  0.0801 -0.0563
 3498DOPC   PO441041  32.294  25.954  10.716 -0.2253  0.2098  0.1931
 3498DOPC   GL141042  32.495  26.092  11.045 -0.2002  0.2579 -0.1980
 3498DOPC   GL241043  32.552  25.848  11.194 -0.2222  0.4529  0.0369
 3498DOPC   C1A41044  32.453  26.206  11.469 -0.2419  0.3301 -0.1349
 3498DOPC   D2A41045  32.223  26.358  11.770 -0.2421 -0.2575 -0.0346
 3498DOPC   C3A41046  31.821  26.502  11.784 -0.1719  0.0467  0.1810
 3498DOPC   C4A41047  31.497  26.750  12.031 -0.0158 -0.0213  0.0483
 3498DOPC   C1B41048  32.849  25.795  11.610 -0.1818  0.1344  0.0233
 3498DOPC   D2B41049  32.890  26.226  11.771 -0.3359 -0.1700 -0.2067
 3498DOPC   C3B41050  33.006  26.268  12.166 -0.0039 -0.0086 -0.0867
 3498DOPC   C4B41051  32.940  26.536  12.535  0.1981 -0.2885 -0.2976
 3499DOPE   NH341052  34.035  23.832  10.766  0.0584  0.2284  0.0004
 3499DOPE   PO441053  33.979  24.126  10.747  0.1539 -0.1638 -0.1489
 3499DOPE   GL141054  33.951  24.198  11.183 -0.3029  0.3207  0.0349
 3499DOPE   GL241055  34.069  24.387  11.248  0.1396 -0.3991  0.2435
 3499DOPE   C1A41056  33.781  24.093  11.647  0.2634 -0.2148  0.0103
 3499DOPE   D2A41057  33.945  24.334  12.036 -0.1095 -0.1775 -0.2141
 3499DOPE   C3A41058  34.289  24.099  12.334 -0.3584 -0.0874  0.1685
 3499DOPE   C4A41059  34.615  24.288  12.609 -0.4287  0.4002  0.0491
 3499DOPE   C1B41060  34.226  24.445  11.675 -0.2787 -0.0231  0.2702
 3499DOPE   D2B41061  34.467  24.463  12.095  0.1769  0.2186 -0.3639
 3499DOPE   C3B41062  34.203  24.642  12.425  0.0975  0.1883  0.2617
 3499DOPE   C4B41063  34.022  24.749  12.796 -0.0053 -0.1340 -0.1791
 3500POSM   NC341064  25.614  29.791  11.092  0.3357 -0.2744 -0.0861
 3500POSM   PO441065  25.544  30.067  11.384  0.0326  0.0051 -0.1659
 3500POSM   AM141066  25.497  30.043  11.725 -0.2025 -0.2456  0.1676
 3500POSM   AM241067  25.698  30.030  11.950  0.3154  0.2971 -0.0112
 3500POSM   T1A41068  25.256  30.219  12.149  0.0119  0.1062 -0.2761
 3500POSM   C2A41069  25.147  30.230  12.588  0.2857 -0.1458  0.1205
 3500POSM   C3A41070  24.994  30.293  13.017 -0.1658 -0.2653  0.1813
 3500POSM   C1B41071  25.677  29.925  12.213  0.1176  0.2912  0.1441
 3500POSM   D2B41072  25.345  29.770  12.581  0.3617  0.3575  0.2644
 3500POSM   C3B41073  24.944  29.679  12.810  0.1088  0.1251  0.1129
 3500POSM   C4B41074  24.747  29.679  13.246 -0.0258 -0.1051 -0.0163
 3501DOPC   NC341075  30.076  30.226  11.790  0.1865 -0.0578  0.0265
 3501DOPC   PO441076  29.996  29.829  11.825 -0.3279  0.0030  0.0683
 3501DOPC   GL141077  29.871  30.070  12.162  0.3567 -0.4165  0.0739
 3501DOPC   GL241078  30.068  29.967  12.296 -0.0842  0.3121  0.2380
 3501DOPC   C1A41079  30.070  30.446  12.372  0.0407 -0.2117  0.3326
 3501DOPC   D2A41080  30.318  30.705  12.673 -0.1352  0.1939  0.2433
 3501DOPC   C3A41081  30.489  30.707  13.090  0.2115  0.4269  0.3204
 3501DOPC   C4A41082  30.727  30.500  13.459 -0.1761 -0.7400  0.2640
 3501DOPC   C1B41083  29.891  30.125  12.715 -0.0849 -0.0814  0.0192
 3501DOPC   D2B41084  30.066  30.378  13.022 -0.0358 -0.0051  0.3238
 3501DOPC   C3B41085  30.344  30.216  13.392 -0.2157 -0.1549 -0.1719
 3501DOPC   C4B41086  30.586  30.169  13.797 -0.0214  0.0098 -0.2197
 3502POSM   NC341087  33.040  25.652  10.872  0.3620 -0.0093 -0.2100
 3502POSM   PO441088  32.703  25.617  10.739  0.0085 -0.1827  0.2132
 3502POSM   AM141089  32.638  25.352  10.928  0.5263 -0.0588  0.0316
 3502POSM   AM241090  32.755  25.115  10.973  0.1931 -0.0550  0.3081
 3502POSM   T1A41091  32.503  25.394  11.434  0.2250  0.2691  0.2513
 3502POSM   C2A41092  32.216  25.279  11.773 -0.2713 -0.3880  0.1374
 3502POSM   C3A41093  32.112  25.105  12.225 -0.1365 -0.4046 -0.1606
 3502POSM   C1B41094  32.917  25.230  11.231  0.2687  0.1329  0.0839
 3502POSM   D2B41095  33.258  25.367  11.495  0.1152  0.1272  0.3115
 3502POSM   C3B41096  33.166  25.370  11.921 -0.2568 -0.0800  0.3012
 3502POSM   C4B41097  33.254  25.166  12.298 -0.0894  0.0617 -0.1677
 3503POSM   NC341098  28.698  30.820  11.856  0.0499  0.2096 -0.1406
 3503POSM   PO441099  28.293  30.814  11.745 -0.2996 -0.0215 -0.2885
 3503POSM   AM141100  28.143  30.836  12.016  0.0964 -0.1898 -0.0217
 3503POSM   AM241101  28.132  31.089  12.150  0.0127 -0.1606  0.1075
 3503POSM   T1A41102  28.247  30.736  12.539 -0.0797  0.3512  0.0385
 3503POSM   C2A41103  28.300  31.021  12.906 -0.0943  0.0210  0.5806
 3503POSM   C3A41104  28.384  30.956  13.338  0.2932  0.0024  0.1057
 3503POSM   C1B41105  28.178  31.301  12.370 -0.2391 -0.1532  0.1245
 3503POSM   D2B41106  28.143  31.465  12.828 -0.2592 -0.0907 -0.0197
 3503POSM   C3B41107  27.785  31.229  13.043  0.2810 -0.1068 -0.2952
 3503POSM   C4B41108  27.356  31.148  13.086  0.0450  0.1397  0.0584
 3504DOPC   NC341109  30.149  28.391  12.045  0.0517 -0.4010 -0.1696
 3504DOPC   PO441110  30.100  28.750  11.839 -0.0591 -0.0063  0.1943
 3504DOPC   GL141111  30.174  28.986  12.070 -0.0021  0.0940  0.1248
 3504DOPC   GL241112  30.473  28.889  12.204  0.1880  0.0538  0.0539
 3504DOPC   C1A41113  30.096  29.105  12.488  0.1495  0.2364 -0.0345
 3504DOPC   D2A41114  30.248  29.293  12.890  0.1611  0.1045  0.3298
 3504DOPC   C3A41115  29.945  29.378  13.300 -0.3808 -0.0168  0.2623
 3504DOPC   C4A41116  29.653  29.594  13.600  0.2342 -0.3352  0.0982
 3504DOPC   C1B41117  30.684  28.960  12.586 -0.3809 -0.2132 -0.2496
 3504DOPC   D2B41118  30.652  29.028  13.013  0.0073 -0.0408 -0.3210
 3504DOPC   C3B41119  30.312  29.035  13.357  0.2426  0.2407 -0.0046
 3504DOPC   C4B41120  30.082  29.156  13.720  0.3228 -0.1377 -0.0580
 3505DOPE   NH341121  27.108  26.527  11.496  0.2493  0.0824  0.2833
 3505DOPE   PO441122  26.938  26.264  11.498  0.0217  0.4594 -0.0341
 3505DOPE   GL141123  26.863  26.060  11.839 -0.0239  0.4809 -0.3340
 3505DOPE   GL241124  26.623  25.898  11.915  0.1912  0.0967  0.2057
 3505DOPE   C1A41125  26.884  26.146  12.297  0.4654 -0.5148 -0.2113
 3505DOPE   D2A41126  27.264  26.315  12.489 -0.2011 -0.0265  0.0023
 3505DOPE   C3A41127  27.496  26.001  12.738 -0.1055  0.2262  0.0621
 3505DOPE   C4A41128  27.429  25.711  13.065  0.5550 -0.0539 -0.1626
 3505DOPE   C1B41129  26.512  25.505  12.187 -0.0388  0.0354 -0.1227
 3505DOPE   D2B41130  26.374  25.101  12.470  0.2657 -0.1926 -0.1907
 3505DOPE   C3B41131  26.396  25.045  12.892 -0.0903 -0.0018 -0.0966
 3505DOPE   C4B41132  26.723  25.045  13.200 -0.2414 -0.3956 -0.1901
 3506POSM   NC341133  25.717   0.864  11.688  0.0734  0.1331 -0.0267
 3506POSM   PO441134  25.439   0.599  11.586 -0.0189  0.0319  0.3942
 3506POSM   AM141135  25.286   0.645  11.887  0.0496  0.2739  0.4293
 3506POSM   AM241136  25.059   0.715  12.044  0.2513 -0.4953 -0.2310
 3506POSM   T1A41137  25.341   0.325  12.252 -0.0581  0.3582  0.0361
 3506POSM   C2A41138  25.318   0.328  12.746 -0.2083  0.1501  0.1328
 3506POSM   C3A41139  25.199  -0.115  12.864  0.2207 -0.2105 -0.2161
 3506POSM   C1B41140  24.900   0.603  12.286  0.0751 -0.0211  0.2789
 3506POSM   D2B41141  24.537   0.746  12.528 -0.2316  0.1462  0.2813
 3506POSM   C3B41142  24.537   1.223  12.579  0.2129 -0.0017 -0.1985
 3506POSM   C4B41143  24.672   1.620  12.401 -0.0535  0.2872 -0.1692
 3507POSM   NC341144  26.337  26.719  11.688  0.1593  0.0273  0.3296
 3507POSM   PO441145  26.451  26.351  11.645  0.1150 -0.3600  0.2387
 3507POSM   AM141146  26.386  26.351  11.990 -0.2537  0.2333  0.0732
 3507POSM   AM241147  26.155  26.506  12.145  0.3656  0.0092  0.1340
 3507POSM   T1A41148  26.418  26.126  12.457 -0.1669 -0.0146 -0.0766
 3507POSM   C2A41149  26.086  26.103  12.786  0.0579 -0.1072  0.1476
 3507POSM   C3A41150  25.638  26.307  12.832 -0.0295 -0.2601 -0.0125
 3507POSM   C1B41151  26.128  26.573  12.492 -0.1192  0.1360  0.1915
 3507POSM   D2B41152  26.048  26.577  12.959 -0.1549 -0.2515 -0.1509
 3507POSM   C3B41153  26.135  27.007  13.225  0.0210  0.2304  0.0759
 3507POSM   C4B41154  26.129  27.222  13.648  0.1105 -0.1821 -0.3766
 3508DOPS   CNO41155  31.720  30.501  11.771  0.0579 -0.1597  0.2178
 3508DOPS   PO441156  31.350  30.595  11.755 -0.3044  0.0357  0.0410
 3508DOPS   GL141157  31.314  30.851  12.143 -0.0807  0.0788  0.1310
 3508DOPS   GL241158  31.142  30.768  12.270 -0.0079 -0.1294 -0.1347
 3508DOPS   C1A41159  31.243  31.234  12.370  0.0436  0.0526 -0.1539
 3508DOPS   D2A41160  31.100  31.380  12.800 -0.1337  0.2240  0.2120
 3508DOPS   C3A41161  30.731  31.459  12.996 -0.2341 -0.1102  0.1186
 3508DOPS   C4A41162  30.523  31.661  13.272  0.0182  0.1715  0.1740
 3508DOPS   C1B41163  31.425  30.538  12.519  0.0559 -0.0905  0.3841
 3508DOPS   D2B41164  31.520  30.775  12.921  0.0400  0.0115 -0.0696
 3508DOPS   C3B41165  31.818  30.582  13.225  0.0725  0.1217 -0.1484
 3508DOPS   C4B41166  32.311  30.484  13.279 -0.0781  0.2138 -0.1222
 3509DOPC   NC341167  25.070   1.426  11.522  0.0861  0.0085 -0.0504
 3509DOPC   PO441168  25.211   1.063  11.614  0.3812  0.0589 -0.1302
 3509DOPC   GL141169  25.233   1.197  11.973  0.2466 -0.2604 -0.2899
 3509DOPC   GL241170  25.494   1.264  12.197  0.0443  0.0493 -0.2564
 3509DOPC   C1A41171  24.987   1.198  12.362  0.0336 -0.0097 -0.1988
 3509DOPC   D2A41172  24.891   1.049  12.803  0.1788  0.0077  0.0084
 3509DOPC   C3A41173  24.885   1.119  13.253 -0.3367  0.0705  0.0210
 3509DOPC   C4A41174  25.195   0.998  13.548 -0.2428 -0.4275 -0.2451
 3509DOPC   C1B41175  25.806   1.181  12.514  0.1379 -0.1260 -0.2631
 3509DOPC   D2B41176  26.184   1.004  12.710  0.0948  0.2068  0.0355
 3509DOPC   C3B41177  26.163   0.824  13.135  0.0044  0.0347 -0.0965
 3509DOPC   C4B41178  26.153   0.855  13.593 -0.0327 -0.4133  0.2710
 3510POSM   NC341179  23.384  31.348  10.494 -0.1430 -0.4189  0.2816
 3510POSM   PO441180  23.562  31.430  10.842 -0.0796 -0.0065 -0.0342
 3510POSM   AM141181  23.373  31.370  11.111  0.2978  0.1075 -0.0905
 3510POSM   AM241182  23.306  31.132  11.270 -0.0567  0.2025  0.1231
 3510POSM   T1A41183  23.002  31.431  11.515  0.1792  0.2320  0.3004
 3510POSM   C2A41184  22.744  31.340  11.863  0.3699 -0.1197 -0.0182
 3510POSM   C3A41185  22.312  31.298  11.932  0.0218  0.0422  0.0231
 3510POSM   C1B41186  23.151  30.985  11.485  0.2120  0.2569  0.0601
 3510POSM   D2B41187  22.980  30.787  11.863 -0.0635 -0.1430 -0.0247
 3510POSM   C3B41188  22.579  30.905  12.085 -0.3936 -0.2198  0.0215
 3510POSM   C4B41189  22.476  31.156  12.433 -0.0772  0.0104  0.2905
 3511DOPE   NH341190  27.959  27.638  11.659 -0.3516 -0.3325 -0.1985
 3511DOPE   PO441191  27.975  27.295  11.752 -0.2074 -0.0587  0.2308
 3511DOPE   GL141192  28.085  27.222  12.134  0.3165 -0.0365  0.1782
 3511DOPE   GL241193  27.968  26.908  12.217 -0.2569 -0.3872 -0.0144
 3511DOPE   C1A41194  28.380  27.480  12.480 -0.2978  0.1744  0.0978
 3511DOPE   D2A41195  28.669  27.400  12.813  0.0396 -0.0827 -0.0553
 3511DOPE   C3A41196  28.665  27.299  13.268 -0.0370  0.1273 -0.0085
 3511DOPE   C4A41197  29.038  27.121  13.482 -0.0606  0.3438  0.0508
 3511DOPE   C1B41198  28.331  26.878  12.528  0.1850  0.1488 -0.1871
 3511DOPE   D2B41199  28.573  26.891  12.958  0.1493 -0.1578 -0.3195
 3511DOPE   C3B41200  28.735  26.710  13.361 -0.1792 -0.2970 -0.0802
 3511DOPE   C4B41201  28.936  26.365  13.630  0.0829  0.0621 -0.2302
 3512POSM   NC341202  22.200   0.184  11.018 -0.0860  0.0812  0.0109
 3512POSM   PO441203  22.294  -0.194  10.966 -0.1087  0.2086  0.0853
 3512POSM   AM141204  22.325  -0.210  11.306  0.2945  0.0944 -0.0323
 3512POSM   AM241205  22.445  -0.363  11.526 -0.3996 -0.1096  0.0027
 3512POSM   T1A41206  22.064  -0.173  11.754 -0.0028  0.0347  0.0771
 3512POSM   C2A41207  21.857  -0.522  12.003  0.0450 -0.0133 -0.1786
 3512POSM   C3A41208  21.854  -0.864  12.369 -0.0493 -0.2782 -0.0881
 3512POSM   C1B41209  22.601  -0.204  11.789  0.0168 -0.0649 -0.0688
 3512POSM   D2B41210  22.812   0.096  12.097  0.0174 -0.0133 -0.1175
 3512POSM   C3B41211  22.615   0.341  12.447  0.2044  0.0542 -0.0344
 3512POSM   C4B41212  22.308   0.546  12.687  0.0688  0.1244  0.4156
 3513POSM   NC341213  26.758  33.492  12.171  0.1337 -0.0880  0.1231
 3513POSM   PO441214  27.088  33.373  12.006  0.0440 -0.1548  0.0025
 3513POSM   AM141215  27.003  33.077  12.140 -0.0909  0.2335 -0.0631
 3513POSM   AM241216  26.749  33.020  12.280 -0.0226 -0.0070 -0.0970
 3513POSM   T1A41217  27.128  32.764  12.514  0.1650  0.3679  0.2511
 3513POSM   C2A41218  27.234  32.408  12.804  0.1817 -0.2412 -0.2901
 3513POSM   C3A41219  27.431  32.218  13.196  0.0678  0.0665  0.1194
 3513POSM   C1B41220  26.674  33.094  12.595 -0.0937  0.1712 -0.1615
 3513POSM   D2B41221  26.602  33.287  13.026 -0.0421  0.1019  0.1927
 3513POSM   C3B41222  26.981  33.495  13.209  0.0346 -0.0342  0.1196
 3513POSM   C4B41223  26.977  33.836  13.552 -0.1941 -0.1352  0.1778
 3514POSM   NC341224  24.820  30.897  11.382  0.1476 -0.0051 -0.1443
 3514POSM   PO441225  24.852  31.140  11.671 -0.1003  0.1006  0.0638
 3514POSM   AM141226  24.637  31.275  11.903 -0.0427 -0.1900 -0.4037
 3514POSM   AM241227  24.348  31.364  11.948 -0.0656  0.2071  0.1157
 3514POSM   T1A41228  24.718  31.242  12.426  0.0623 -0.1196 -0.0467
 3514POSM   C2A41229  24.526  31.057  12.812 -0.3650 -0.2603 -0.1992
 3514POSM   C3A41230  24.632  30.681  13.101 -0.3063  0.2710  0.2608
 3514POSM   C1B41231  24.033  31.441  12.108  0.2495 -0.1492  0.0210
 3514POSM   D2B41232  23.607  31.539  12.252 -0.1765 -0.1279 -0.1876
 3514POSM   C3B41233  23.513  31.370  12.653 -0.0201  0.1190  0.0918
 3514POSM   C4B41234  23.299  31.127  12.968 -0.0883  0.0466  0.1268
 3515DOPS   CNO41235  31.817  28.795  11.126 -0.1986  0.4431  0.1587
 3515DOPS   PO441236  31.673  28.450  11.130  0.1723  0.0095 -0.0115
 3515DOPS   GL141237  31.627  28.099  11.326 -0.1359 -0.2953  0.0325
 3515DOPS   GL241238  31.614  27.823  11.412 -0.4291  0.0116 -0.3075
 3515DOPS   C1A41239  31.741  28.135  11.760  0.1470 -0.3550  0.1570
 3515DOPS   D2A41240  32.047  28.111  12.117 -0.1710  0.1606  0.0758
 3515DOPS   C3A41241  32.005  28.515  12.319 -0.0135 -0.1248  0.4811
 3515DOPS   C4A41242  32.238  28.642  12.716  0.0618  0.1136 -0.1359
 3515DOPS   C1B41243  31.509  27.484  11.762  0.3340  0.1792  0.0471
 3515DOPS   D2B41244  31.534  27.261  12.191  0.0505 -0.1495 -0.0718
 3515DOPS   C3B41245  31.786  27.391  12.591 -0.2242 -0.1088 -0.1684
 3515DOPS   C4B41246  32.147  27.370  12.961  0.1053  0.0251 -0.0633
 3516POSM   NC341247  29.885  26.406  11.699 -0.0865 -0.0028 -0.0441
 3516POSM   PO441248  29.669  26.722  11.645  0.1347  0.1229  0.0795
 3516POSM   AM141249  29.556  26.845  11.943 -0.0819  0.0679  0.0694
 3516POSM   AM241250  29.592  26.892  12.224 -0.1280 -0.0656 -0.2574
 3516POSM   T1A41251  29.164  26.681  12.250  0.1519  0.0666 -0.1038
 3516POSM   C2A41252  28.853  26.589  12.530  0.2194  0.1331  0.0960
 3516POSM   C3A41253  28.851  26.322  12.897 -0.2505  0.0691 -0.2048
 3516POSM   C1B41254  29.586  26.934  12.555  0.0191  0.0858  0.2074
 3516POSM   D2B41255  29.746  26.781  12.907  0.0073  0.1371  0.0617
 3516POSM   C3B41256  29.523  26.975  13.218 -0.1395  0.1065  0.0460
 3516POSM   C4B41257  29.412  27.401  13.367  0.4427 -0.1023 -0.0499
 3517DOPE   NH341258  32.854  27.770  10.745 -0.1707  0.1934  0.1837
 3517DOPE   PO441259  32.678  27.526  10.652  0.2919  0.2665  0.0288
 3517DOPE   GL141260  32.622  27.457  10.970 -0.2077  0.3245 -0.2572
 3517DOPE   GL241261  32.503  27.806  11.070  0.0520 -0.1806 -0.2213
 3517DOPE   C1A41262  32.289  27.360  11.214 -0.0776 -0.1706  0.0683
 3517DOPE   D2A41263  31.935  27.379  11.449  0.1532 -0.3646 -0.1086
 3517DOPE   C3A41264  31.975  27.656  11.819 -0.5361  0.2001  0.0316
 3517DOPE   C4A41265  31.691  27.804  12.182  0.1802  0.1270 -0.0520
 3517DOPE   C1B41266  32.246  27.921  11.455  0.1258 -0.2803 -0.0312
 3517DOPE   D2B41267  32.395  28.198  11.795 -0.2644  0.0844 -0.1426
 3517DOPE   C3B41268  32.162  28.605  11.832  0.0531 -0.0729  0.2085
 3517DOPE   C4B41269  31.912  28.961  12.047 -0.0760 -0.0563  0.1359
 3518DOPE   NH341270  31.744  34.522  10.973 -0.3869 -0.0743 -0.0431
 3518DOPE   PO441271  31.507  34.578  10.744 -0.0453  0.3045  0.0949
 3518DOPE   GL141272  31.550  34.914  10.997  0.0584  0.0525  0.0475
 3518DOPE   GL241273  31.339  34.880  11.169 -0.2374  0.1886 -0.1923
 3518DOPE   C1A41274  31.786  34.923  11.393  0.1799  0.0810  0.1795
 3518DOPE   D2A41275  31.843  34.844  11.840  0.0775 -0.1554 -0.0013
 3518DOPE   C3A41276  31.548  34.869  12.204 -0.1515  0.1836  0.0408
 3518DOPE   C4A41277  31.507  34.835  12.683  0.0634 -0.1673  0.0754
 3518DOPE   C1B41278  31.081  34.953  11.528 -0.3194 -0.0482 -0.0964
 3518DOPE   D2B41279  31.138  35.290  11.875 -0.1364 -0.1393 -0.1008
 3518DOPE   C3B41280  31.102  35.172  12.291  0.1651  0.1588 -0.2348
 3518DOPE   C4B41281  30.864  34.979  12.633  0.2562 -0.0379  0.1165
 3519DOPE   NH341282  28.189  34.260  11.663  0.3610 -0.1052  0.0641
 3519DOPE   PO441283  27.852  34.291  11.682 -0.0156 -0.0785 -0.0849
 3519DOPE   GL141284  27.899  34.265  12.059 -0.3329 -0.2255 -0.3577
 3519DOPE   GL241285  27.992  34.088  12.200 -0.0400  0.1344  0.0576
 3519DOPE   C1A41286  27.964  34.518  12.447 -0.2899 -0.1582 -0.0321
 3519DOPE   D2A41287  28.252  34.628  12.741 -0.1555  0.1293 -0.2024
 3519DOPE   C3A41288  28.515  34.396  13.049 -0.0491 -0.1241  0.0462
 3519DOPE   C4A41289  28.718  34.226  13.409  0.1812 -0.0782 -0.3473
 3519DOPE   C1B41290  27.824  33.743  12.483 -0.0975  0.3745 -0.0425
 3519DOPE   D2B41291  27.734  33.345  12.586  0.2821  0.0063  0.2350
 3519DOPE   C3B41292  27.715  33.264  13.028  0.0574  0.1589  0.1655
 3519DOPE   C4B41293  27.915  33.256  13.483 -0.0344 -0.1386  0.2125
 3520DOPE   NH341294  23.996  27.286  11.139 -0.0253 -0.1732  0.1941
 3520DOPE   PO441295  24.268  27.427  11.201 -0.1600 -0.1533  0.1813
 3520DOPE   GL141296  24.321  27.146  11.518 -0.3775  0.1018  0.0488
 3520DOPE   GL241297  24.424  27.319  11.648  0.0276 -0.1897  0.3726
 3520DOPE   C1A41298  24.169  26.773  11.751  0.2647  0.4518 -0.2111
 3520DOPE   D2A41299  24.143  26.511  12.187  0.0482  0.0848  0.0037
 3520DOPE   C3A41300  23.850  26.749  12.383 -0.2049  0.0784  0.2339
 3520DOPE   C4A41301  23.613  27.131  12.444  0.1693  0.1420 -0.3839
 3520DOPE   C1B41302  24.367  27.295  12.101 -0.0121 -0.1286  0.0235
 3520DOPE   D2B41303  24.507  27.415  12.506 -0.2064  0.1826 -0.0203
 3520DOPE   C3B41304  24.246  27.407  12.856 -0.1015 -0.1900 -0.0338
 3520DOPE   C4B41305  23.789  27.486  12.965  0.0986 -0.3250 -0.1471
 3521POSM   NC341306  24.748  28.061  11.788  0.1490 -0.2103 -0.3065
 3521POSM   PO441307  25.074  28.021  11.612  0.2036 -0.0826 -0.1133
 3521POSM   AM141308  25.181  27.792  11.793  0.2818 -0.0336  0.0538
 3521POSM   AM241309  25.424  27.775  11.956 -0.1124  0.2033  0.1082
 3521POSM   T1A41310  25.140  27.558  12.230 -0.0521  0.0739 -0.1730
 3521POSM   C2A41311  24.988  27.512  12.701 -0.1958 -0.1153  0.3668
 3521POSM   C3A41312  24.724  27.508  13.104  0.1645 -0.1102  0.1493
 3521POSM   C1B41313  25.560  27.829  12.262 -0.0204  0.1394  0.0475
 3521POSM   D2B41314  25.511  27.993  12.677 -0.0581  0.0405  0.0701
 3521POSM   C3B41315  25.728  27.853  13.011 -0.1941 -0.1466  0.0419
 3521POSM   C4B41316  25.562  27.840  13.438  0.0901  0.1746  0.3053
 3522DOPC   NC341317  33.115  32.227  11.171 -0.2862 -0.0029  0.0067
 3522DOPC   PO441318  33.351  32.468  11.400  0.0895 -0.3852 -0.1085
 3522DOPC   GL141319  33.444  32.560  11.734  0.4387  0.0779  0.1022
 3522DOPC   GL241320  33.712  32.594  11.680 -0.0510 -0.1039 -0.1677
 3522DOPC   C1A41321  33.628  32.256  12.042 -0.4992 -0.0454 -0.1936
 3522DOPC   D2A41322  33.784  31.827  12.030 -0.3186  0.1376  0.1323
 3522DOPC   C3A41323  33.919  31.610  12.441  0.0580 -0.0721  0.0900
 3522DOPC   C4A41324  34.237  31.632  12.780 -0.0381  0.1200  0.2052
 3522DOPC   C1B41325  33.731  32.751  12.112 -0.1377 -0.0275 -0.0358
 3522DOPC   D2B41326  34.072  32.960  12.312 -0.1691  0.3473  0.0234
 3522DOPC   C3B41327  34.158  33.048  12.767  0.1438  0.2518  0.1272
 3522DOPC   C4B41328  34.369  33.506  12.895  0.1480 -0.0951  0.0660
 3523DOPC   NC341329  28.962   1.439  11.343  0.1526 -0.1083  0.1525
 3523DOPC   PO441330  28.703   1.273  11.623  0.2139 -0.1862  0.1155
 3523DOPC   GL141331  28.899   1.506  11.918 -0.0241 -0.1437 -0.3622
 3523DOPC   GL241332  28.871   1.289  12.123 -0.0493  0.0503  0.0179
 3523DOPC   C1A41333  28.826   1.764  12.304 -0.2971  0.1127  0.0975
 3523DOPC   D2A41334  28.823   1.895  12.796  0.1692  0.1062  0.1523
 3523DOPC   C3A41335  28.828   2.334  12.724 -0.1466 -0.0145 -0.2198
 3523DOPC   C4A41336  28.807   2.790  12.739  0.3251 -0.1066  0.1265
 3523DOPC   C1B41337  28.505   1.065  12.384 -0.3934  0.1065 -0.2545
 3523DOPC   D2B41338  28.728   0.914  12.790  0.3082  0.0158 -0.0986
 3523DOPC   C3B41339  28.864   1.008  13.229  0.2260 -0.3483 -0.3010
 3523DOPC   C4B41340  29.092   0.906  13.647 -0.1754 -0.0108  0.1145
 3524POSM   NC341341  26.669  31.103  11.532 -0.3386  0.0197 -0.3713
 3524POSM   PO441342  26.304  31.206  11.604  0.1702  0.2626  0.0259
 3524POSM   AM141343  26.287  31.064  11.891 -0.3749 -0.1096 -0.2258
 3524POSM   AM241344  26.232  31.145  12.198  0.0972 -0.0076  0.0788
 3524POSM   T1A41345  26.333  30.697  12.225  0.1522 -0.2327 -0.1474
 3524POSM   C2A41346  26.528  30.598  12.640 -0.1658 -0.2355 -0.1207
 3524POSM   C3A41347  26.472  30.790  13.084  0.0534 -0.3503  0.0941
 3524POSM   C1B41348  26.031  31.028  12.418 -0.4415 -0.0867  0.0486
 3524POSM   D2B41349  26.018  30.701  12.714  0.0835 -0.1456 -0.1856
 3524POSM   C3B41350  25.888  30.813  13.170 -0.1960 -0.0420 -0.0871
 3524POSM   C4B41351  25.602  30.850  13.501  0.3773 -0.0020  0.0780
 3525POSM   NC341352  33.694  29.546  10.950 -0.2847 -0.1069  0.1251
 3525POSM   PO441353  33.727  29.873  11.193 -0.2323  0.1861 -0.1472
 3525POSM   AM141354  33.948  29.958  11.431  0.0582  0.0205  0.0906
 3525POSM   AM241355  34.180  30.024  11.502  0.0960 -0.0021  0.1024
 3525POSM   T1A41356  33.953  29.889  11.941  0.4084 -0.0828  0.1713
 3525POSM   C2A41357  33.856  29.744  12.406  0.3485 -0.0211  0.2976
 3525POSM   C3A41358  33.795  29.571  12.814  0.0730 -0.0746  0.2196
 3525POSM   C1B41359  34.467  30.136  11.595  0.2494 -0.0570 -0.1982
 3525POSM   D2B41360  34.738  30.316  11.945 -0.2275  0.2386 -0.0024
 3525POSM   C3B41361  34.641  30.055  12.295  0.0239 -0.1943 -0.3041
 3525POSM   C4B41362  34.663  29.756  12.622 -0.2372  0.1338 -0.1289
 3526DOPS   CNO41363  30.785  26.705  10.912 -0.0474  0.1194  0.1507
 3526DOPS   PO441364  30.796  26.953  11.197 -0.0709  0.1612  0.3480
 3526DOPS   GL141365  31.070  27.094  11.537  0.0802 -0.2074  0.4168
 3526DOPS   GL241366  31.410  27.017  11.600  0.5094 -0.2463 -0.2638
 3526DOPS   C1A41367  31.026  27.015  12.008  0.1467 -0.0454 -0.0726
 3526DOPS   D2A41368  31.187  26.888  12.429  0.0827 -0.0226  0.0765
 3526DOPS   C3A41369  31.644  26.863  12.632  0.1937  0.1319 -0.0833
 3526DOPS   C4A41370  31.870  26.608  12.962 -0.2634 -0.0659  0.1901
 3526DOPS   C1B41371  31.842  27.029  11.791 -0.0004 -0.2208 -0.0506
 3526DOPS   D2B41372  32.074  27.281  12.131 -0.0439  0.2602  0.0108
 3526DOPS   C3B41373  32.172  27.674  12.376  0.0495 -0.0395  0.4129
 3526DOPS   C4B41374  32.126  28.084  12.667  0.0535 -0.1760 -0.0534
 3527DOPE   NH341375  29.961  33.446  11.937  0.3381  0.1674  0.1807
 3527DOPE   PO441376  29.864  33.686  11.766 -0.0106  0.1700  0.1890
 3527DOPE   GL141377  30.081  33.915  12.002 -0.1128 -0.0862 -0.2141
 3527DOPE   GL241378  30.176  34.078  11.790 -0.0402  0.1492 -0.0330
 3527DOPE   C1A41379  30.190  34.035  12.407  0.0211 -0.1028 -0.1228
 3527DOPE   D2A41380  30.431  34.134  12.689 -0.1036 -0.0695 -0.0095
 3527DOPE   C3A41381  30.269  34.256  13.046  0.6616 -0.1032  0.1565
 3527DOPE   C4A41382  29.853  34.277  13.191  0.0690  0.3458 -0.0643
 3527DOPE   C1B41383  30.162  34.434  12.056  0.0059  0.0905  0.1498
 3527DOPE   D2B41384  30.091  34.491  12.550 -0.2094  0.3303  0.0009
 3527DOPE   C3B41385  29.977  34.666  12.930  0.1401 -0.2481 -0.1444
 3527DOPE   C4B41386  30.149  34.708  13.370 -0.1749 -0.0836  0.0294
 3528DOPC   NC341387  31.558  31.035  11.737  0.1664 -0.1310 -0.1738
 3528DOPC   PO441388  31.786  31.325  11.586 -0.2041  0.0246  0.1892
 3528DOPC   GL141389  32.085  31.249  11.805 -0.0194  0.1100  0.2144
 3528DOPC   GL241390  32.100  31.542  11.902  0.2994 -0.0708 -0.1484
 3528DOPC   C1A41391  32.171  31.249  12.270  0.0317 -0.0369  0.1271
 3528DOPC   D2A41392  32.113  31.378  12.693 -0.1055 -0.0227 -0.1952
 3528DOPC   C3A41393  32.024  31.614  13.087  0.1358  0.1253  0.0711
 3528DOPC   C4A41394  31.998  32.009  13.195 -0.3265 -0.2166  0.0983
 3528DOPC   C1B41395  31.949  31.752  12.309  0.2002 -0.0154  0.0487
 3528DOPC   D2B41396  32.230  31.941  12.688  0.0805 -0.3326 -0.0866
 3528DOPC   C3B41397  32.520  31.793  13.041 -0.0052  0.0243  0.0972
 3528DOPC   C4B41398  32.961  31.698  13.259  0.0665 -0.2422 -0.1707
 3529DOPC   NC341399  27.965  32.439  11.641 -0.2441 -0.0691 -0.0817
 3529DOPC   PO441400  28.001  32.832  11.708 -0.2403  0.0165  0.4379
 3529DOPC   GL141401  28.044  33.015  12.081 -0.0759 -0.3318  0.3516
 3529DOPC   GL241402  28.278  32.822  12.163  0.1010 -0.1020  0.0701
 3529DOPC   C1A41403  28.075  32.967  12.561 -0.1050 -0.0425 -0.0156
 3529DOPC   D2A41404  28.229  33.022  12.997  0.0362  0.0256 -0.0013
 3529DOPC   C3A41405  28.362  33.383  13.235 -0.0776  0.0726  0.0689
 3529DOPC   C4A41406  28.408  33.816  13.183 -0.0414 -0.2470  0.2933
 3529DOPC   C1B41407  28.422  32.583  12.542 -0.3059 -0.2986 -0.1302
 3529DOPC   D2B41408  28.765  32.265  12.624  0.0604 -0.0152 -0.0731
 3529DOPC   C3B41409  28.833  32.494  13.045  0.0649  0.0098 -0.0689
 3529DOPC   C4B41410  28.982  32.700  13.461  0.1128 -0.1850  0.0627
 3530DOPC   NC341411  26.348   0.392  11.945  0.1166  0.0634  0.1727
 3530DOPC   PO441412  26.736   0.246  11.833 -0.3678  0.0976 -0.2716
 3530DOPC   GL141413  26.697   0.178  12.185 -0.1034  0.1462 -0.2687
 3530DOPC   GL241414  26.562  -0.102  12.246 -0.2456 -0.0987  0.1821
 3530DOPC   C1A41415  26.964   0.305  12.567 -0.3554 -0.0503  0.1485
 3530DOPC   D2A41416  27.226   0.586  12.737 -0.2245  0.2091 -0.3149
 3530DOPC   C3A41417  27.114   0.949  13.035 -0.0136  0.0427  0.1699
 3530DOPC   C4A41418  27.041   1.339  13.334 -0.0432  0.3128  0.0682
 3530DOPC   C1B41419  26.294   0.214  12.511  0.2429 -0.0061  0.0415
 3530DOPC   D2B41420  26.089   0.332  12.895  0.1559 -0.3737  0.0875
 3530DOPC   C3B41421  26.344   0.349  13.307  0.2893 -0.3006 -0.0281
 3530DOPC   C4B41422  26.738   0.093  13.552 -0.1261 -0.0038 -0.1027
 3531DOPE   NH341423  29.422  25.351  11.915  0.0247  0.0718  0.2431
 3531DOPE   PO441424  29.610  25.218  11.726 -0.2458 -0.4138 -0.2639
 3531DOPE   GL141425  29.773  25.123  12.038 -0.0898 -0.0612 -0.1938
 3531DOPE   GL241426  29.620  24.913  12.096 -0.2799  0.0258  0.1090
 3531DOPE   C1A41427  30.046  25.154  12.466 -0.1382  0.1453  0.0874
 3531DOPE   D2A41428  30.307  25.386  12.737  0.3986  0.1425  0.1437
 3531DOPE   C3A41429  30.132  25.419  13.156  0.0965  0.1247  0.1415
 3531DOPE   C4A41430  29.883  25.108  13.463  0.0326 -0.1172 -0.0906
 3531DOPE   C1B41431  29.457  25.178  12.422 -0.3232  0.2735 -0.0293
 3531DOPE   D2B41432  29.204  25.279  12.775 -0.0373  0.1943 -0.1346
 3531DOPE   C3B41433  29.012  25.008  13.107 -0.1416  0.0235  0.0314
 3531DOPE   C4B41434  28.657  24.890  13.418 -0.1747 -0.0274  0.0975
 3532DOPC   NC341435  32.110  32.578  10.754  0.0043  0.2383  0.2561
 3532DOPC   PO441436  32.020  32.648  11.120 -0.1323  0.0856 -0.5470
 3532DOPC   GL141437  32.123  32.901  11.373 -0.2436  0.0142 -0.2515
 3532DOPC   GL241438  32.107  33.184  11.442  0.2055  0.1618  0.1358
 3532DOPC   C1A41439  32.142  32.869  11.796  0.2410 -0.1390  0.1366
 3532DOPC   D2A41440  32.353  32.633  12.079  0.0669  0.1047  0.0204
 3532DOPC   C3A41441  32.229  32.608  12.531  0.0553 -0.0833  0.1090
 3532DOPC   C4A41442  32.137  32.370  12.841  0.0928 -0.0973  0.1878
 3532DOPC   C1B41443  32.093  33.414  11.805 -0.1091  0.0431 -0.1603
 3532DOPC   D2B41444  32.048  33.473  12.267  0.4296 -0.0504  0.0704
 3532DOPC   C3B41445  31.992  33.082  12.546 -0.0745  0.0577 -0.2054
 3532DOPC   C4B41446  32.112  32.956  12.945 -0.0893 -0.0422  0.3720
 3533POSM   NC341447  25.712  30.632  11.343 -0.3782 -0.3507  0.2325
 3533POSM   PO441448  25.936  30.841  11.611  0.1890  0.1648  0.0123
 3533POSM   AM141449  25.866  30.839  11.925  0.1340  0.2766 -0.2242
 3533POSM   AM241450  25.679  31.005  12.068  0.2390 -0.0429  0.0684
 3533POSM   T1A41451  25.764  30.562  12.318 -0.1678  0.2460 -0.0944
 3533POSM   C2A41452  25.730  30.245  12.611  0.1260 -0.0181 -0.0194
 3533POSM   C3A41453  25.852  29.788  12.638  0.6425  0.0053  0.0660
 3533POSM   C1B41454  25.544  31.101  12.351 -0.1890  0.1248  0.1308
 3533POSM   D2B41455  25.167  31.112  12.626 -0.1130 -0.1908 -0.1544
 3533POSM   C3B41456  24.903  30.716  12.692 -0.2027  0.1082 -0.0148
 3533POSM   C4B41457  24.596  30.376  12.710 -0.1501  0.1386  0.0240
 3534DOPS   CNO41458  26.516  23.637  10.995 -0.1451 -0.1045  0.0906
 3534DOPS   PO441459  26.319  23.645  11.320 -0.1818 -0.2860  0.1152
 3534DOPS   GL141460  26.473  23.662  11.639 -0.4081 -0.2014 -0.2538
 3534DOPS   GL241461  26.589  23.403  11.661 -0.0123  0.2965  0.0082
 3534DOPS   C1A41462  26.810  23.726  11.960  0.2230 -0.1313  0.0826
 3534DOPS   D2A41463  27.132  23.972  12.151  0.0487  0.1140  0.0823
 3534DOPS   C3A41464  27.231  23.827  12.553  0.2044  0.1945 -0.0306
 3534DOPS   C4A41465  27.007  23.623  12.853 -0.0229 -0.3078 -0.0297
 3534DOPS   C1B41466  26.505  23.294  12.126 -0.1522  0.1025 -0.0596
 3534DOPS   D2B41467  26.416  23.141  12.583 -0.0098 -0.2975  0.1162
 3534DOPS   C3B41468  26.058  23.146  12.813 -0.3008  0.0206 -0.1540
 3534DOPS   C4B41469  25.687  23.143  13.034  0.1133  0.1611  0.0581
 3535DOPE   NH341470  24.500  31.982  11.593 -0.1901 -0.0081 -0.0826
 3535DOPE   PO441471  24.692  31.725  11.760 -0.0354 -0.2383 -0.0226
 3535DOPE   GL141472  24.534  31.965  12.049 -0.1206  0.2557 -0.1746
 3535DOPE   GL241473  24.664  32.149  12.170 -0.5721 -0.0868  0.1336
 3535DOPE   C1A41474  24.416  31.776  12.447 -0.0869  0.2245  0.0499
 3535DOPE   D2A41475  24.588  31.577  12.792  0.2667  0.0697 -0.1114
 3535DOPE   C3A41476  24.589  31.759  13.215 -0.3660  0.0934  0.3079
 3535DOPE   C4A41477  24.461  31.696  13.652  0.0358 -0.0475  0.0041
 3535DOPE   C1B41478  24.826  32.083  12.597  0.0769 -0.0260 -0.3030
 3535DOPE   D2B41479  24.668  32.405  12.910 -0.1573 -0.0714 -0.1957
 3535DOPE   C3B41480  24.559  32.279  13.326 -0.0238  0.6935  0.0421
 3535DOPE   C4B41481  24.569  32.369  13.802  0.1219 -0.2155 -0.1434
 3536POSM   NC341482  25.768  26.522  11.811  0.0669 -0.0368 -0.1762
 3536POSM   PO441483  25.924  26.899  11.868 -0.0693 -0.0515  0.0244
 3536POSM   AM141484  25.678  26.966  12.092 -0.2397  0.1623 -0.0465
 3536POSM   AM241485  25.664  26.762  12.332 -0.1450 -0.2361 -0.0213
 3536POSM   T1A41486  25.470  27.251  12.468 -0.0839 -0.2464  0.1052
 3536POSM   C2A41487  25.412  27.312  12.903  0.0895 -0.0934  0.0136
 3536POSM   C3A41488  25.227  27.463  13.260 -0.0235  0.2537 -0.3034
 3536POSM   C1B41489  25.391  26.675  12.583 -0.0867 -0.0099  0.5834
 3536POSM   D2B41490  25.278  26.647  13.000 -0.0785 -0.1134  0.0299
 3536POSM   C3B41491  25.557  26.403  13.322 -0.0195  0.2482 -0.2523
 3536POSM   C4B41492  25.670  26.110  13.628 -0.1520  0.1913 -0.0734
 3537DOPC   NC341493  29.513  29.881  11.883 -0.3645 -0.1636  0.1338
 3537DOPC   PO441494  29.477  30.265  11.811  0.0037 -0.2060 -0.2320
 3537DOPC   GL141495  29.363  30.198  12.221  0.2503  0.0536 -0.0143
 3537DOPC   GL241496  29.590  30.341  12.377  0.0294 -0.0737 -0.1642
 3537DOPC   C1A41497  29.554  29.827  12.455  0.0752  0.0430 -0.0615
 3537DOPC   D2A41498  29.649  29.680  12.918 -0.1007 -0.0248  0.1348
 3537DOPC   C3A41499  29.429  29.957  13.219 -0.5422  0.0188 -0.1683
 3537DOPC   C4A41500  29.214  30.330  13.296 -0.3517 -0.2764 -0.1082
 3537DOPC   C1B41501  29.637  30.521  12.837  0.1075 -0.2636  0.2774
 3537DOPC   D2B41502  29.720  30.417  13.315 -0.0142  0.0034  0.1777
 3537DOPC   C3B41503  29.582  30.404  13.792 -0.0385 -0.3706  0.1868
 3537DOPC   C4B41504  29.403  30.720  14.049  0.1063 -0.0085  0.1398
 3538DOPS   CNO41505  26.122  27.382  11.847 -0.0068 -0.1172  0.1413
 3538DOPS   PO441506  25.775  27.402  11.684 -0.1967 -0.1775  0.1381
 3538DOPS   GL141507  25.765  27.363  12.158 -0.2352  0.0615  0.0871
 3538DOPS   GL241508  26.014  27.187  12.299 -0.2355  0.0403  0.1651
 3538DOPS   C1A41509  25.876  27.547  12.611  0.1869 -0.1310 -0.0063
 3538DOPS   D2A41510  25.899  27.406  13.008 -0.1580  0.3650  0.0556
 3538DOPS   C3A41511  26.055  27.665  13.313  0.3363  0.2001  0.4274
 3538DOPS   C4A41512  26.459  27.640  13.547  0.0886  0.0587  0.1640
 3538DOPS   C1B41513  25.858  27.012  12.729  0.0629  0.2285 -0.1000
 3538DOPS   D2B41514  25.649  26.937  13.135 -0.2997 -0.0298 -0.0585
 3538DOPS   C3B41515  25.652  27.292  13.443 -0.1792  0.0084 -0.0332
 3538DOPS   C4B41516  25.718  27.540  13.787  0.2792 -0.0191 -0.1885
 3539DOPC   NC341517  27.100  29.943  11.394 -0.0358  0.0464 -0.0181
 3539DOPC   PO441518  27.325  29.838  11.668  0.0679 -0.2099  0.1253
 3539DOPC   GL141519  27.288  29.745  12.053  0.0782  0.0741 -0.3050
 3539DOPC   GL241520  27.154  29.489  12.194 -0.0184  0.1473  0.1196
 3539DOPC   C1A41521  27.375  30.091  12.391 -0.0733  0.3117 -0.1399
 3539DOPC   D2A41522  27.494  30.295  12.803  0.0912 -0.2567 -0.1804
 3539DOPC   C3A41523  27.389  30.260  13.324  0.1278  0.0697  0.0211
 3539DOPC   C4A41524  27.409  30.135  13.751  0.3356  0.2577 -0.0597
 3539DOPC   C1B41525  26.981  29.524  12.649  0.1790 -0.0022 -0.0447
 3539DOPC   D2B41526  27.121  29.937  12.957  0.1781 -0.0326 -0.2962
 3539DOPC   C3B41527  27.091  29.905  13.429  0.2263 -0.0399  0.0848
 3539DOPC   C4B41528  26.823  29.923  13.766 -0.0761 -0.0129 -0.0374
 3540DOPC   NC341529  27.795  29.890  11.962 -0.0012  0.3734 -0.0357
 3540DOPC   PO441530  28.032  29.604  11.937 -0.1617  0.1417 -0.1816
 3540DOPC   GL141531  27.966  29.512  12.311 -0.2476  0.1322 -0.2875
 3540DOPC   GL241532  27.777  29.634  12.376  0.2697 -0.1139 -0.1342
 3540DOPC   C1A41533  28.005  29.510  12.801 -0.0705  0.1059  0.3904
 3540DOPC   D2A41534  27.986  29.616  13.210  0.3324 -0.3790  0.1307
 3540DOPC   C3A41535  27.972  29.475  13.602  0.1612  0.0185  0.1926
 3540DOPC   C4A41536  27.681  29.281  13.847 -0.0638  0.0117 -0.2610
 3540DOPC   C1B41537  27.530  29.648  12.719 -0.1097 -0.0439 -0.1303
 3540DOPC   D2B41538  27.386  29.552  13.121  0.0632  0.2620 -0.0433
 3540DOPC   C3B41539  27.525  29.679  13.562 -0.0855  0.2430  0.2426
 3540DOPC   C4B41540  27.728  29.839  13.943 -0.0085 -0.1585 -0.0481
 3541DOPE   NH341541  30.348  28.323  11.485 -0.2108 -0.0295  0.3244
 3541DOPE   PO441542  30.671  28.264  11.397 -0.1029 -0.5102  0.0647
 3541DOPE   GL141543  30.791  28.233  11.660  0.1166  0.0702  0.1075
 3541DOPE   GL241544  30.679  28.075  11.913  0.2319 -0.1623  0.2639
 3541DOPE   C1A41545  31.100  28.234  12.042  0.1752 -0.1228  0.0796
 3541DOPE   D2A41546  31.080  28.079  12.444  0.1936 -0.1561 -0.0602
 3541DOPE   C3A41547  31.253  28.409  12.703  0.0172 -0.2533  0.2151
 3541DOPE   C4A41548  31.289  28.690  13.079 -0.1735 -0.2122 -0.2208
 3541DOPE   C1B41549  30.687  27.839  12.336  0.0612 -0.0709  0.1881
 3541DOPE   D2B41550  30.444  27.536  12.477  0.3057 -0.4859  0.0393
 3541DOPE   C3B41551  30.464  27.089  12.671  0.0430 -0.0714  0.3095
 3541DOPE   C4B41552  30.253  26.713  12.588 -0.2197  0.0934  0.3818
 3542DOPC   NC341553  25.249  25.715  11.949 -0.1024  0.1142 -0.0319
 3542DOPC   PO441554  25.051  25.974  11.677  0.2217  0.0379 -0.1326
 3542DOPC   GL141555  24.694  25.956  11.850  0.1300 -0.1472 -0.1637
 3542DOPC   GL241556  24.756  25.727  12.023  0.0105  0.1440 -0.3499
 3542DOPC   C1A41557  24.548  26.184  12.242 -0.0439  0.0901 -0.3209
 3542DOPC   D2A41558  24.263  26.145  12.603 -0.0365  0.1113  0.0360
 3542DOPC   C3A41559  23.950  25.781  12.665 -0.2291  0.1779  0.0407
 3542DOPC   C4A41560  23.912  25.315  12.782  0.4239 -0.0251  0.0721
 3542DOPC   C1B41561  25.003  25.875  12.377 -0.0337  0.4164 -0.4803
 3542DOPC   D2B41562  25.203  26.234  12.609 -0.0734 -0.1293 -0.0778
 3542DOPC   C3B41563  25.113  26.149  13.064 -0.1635 -0.4117  0.2481
 3542DOPC   C4B41564  25.132  26.205  13.520  0.0954 -0.0470  0.0624
 3543DOPC   NC341565  29.464  34.528  11.078  0.0729  0.0492  0.1245
 3543DOPC   PO441566  29.346  34.581  11.448  0.4313 -0.1761 -0.0174
 3543DOPC   GL141567  29.520  34.549  11.761 -0.1696 -0.1059 -0.0243
 3543DOPC   GL241568  29.725  34.273  11.765  0.1658  0.0426 -0.0476
 3543DOPC   C1A41569  29.706  34.730  12.148 -0.1401 -0.1774  0.1022
 3543DOPC   D2A41570  29.854  34.959  12.531 -0.1204 -0.0957  0.3630
 3543DOPC   C3A41571  29.808  35.302  12.924 -0.0770 -0.1006  0.0430
 3543DOPC   C4A41572  29.498  35.509  13.150  0.0213 -0.2387  0.3793
 3543DOPC   C1B41573  29.716  34.272  12.246 -0.0870  0.0655 -0.2010
 3543DOPC   D2B41574  29.576  34.516  12.635  0.2231  0.1598 -0.0801
 3543DOPC   C3B41575  29.362  34.368  13.051 -0.2058  0.2935 -0.1537
 3543DOPC   C4B41576  29.169  34.451  13.468 -0.0688  0.0578  0.0227
 3544POSM   NC341577  30.983   2.206  10.138  0.0564 -0.4446  0.0683
 3544POSM   PO441578  30.914   2.031  10.465 -0.0817 -0.2335  0.1282
 3544POSM   AM141579  31.009   2.156  10.721  0.1932 -0.0194  0.0569
 3544POSM   AM241580  31.312   2.212  10.753 -0.4713 -0.3735  0.2818
 3544POSM   T1A41581  31.018   2.375  11.172 -0.1287 -0.1158  0.0453
 3544POSM   C2A41582  30.839   2.267  11.583 -0.0220 -0.5268 -0.0355
 3544POSM   C3A41583  30.911   2.327  12.062  0.3435 -0.0591 -0.2578
 3544POSM   C1B41584  31.416   2.117  11.048 -0.0480 -0.1953 -0.0887
 3544POSM   D2B41585  31.363   2.222  11.493 -0.0623 -0.0902 -0.2764
 3544POSM   C3B41586  31.164   1.875  11.759 -0.1632 -0.2130 -0.2901
 3544POSM   C4B41587  31.066   1.464  11.951  0.1965 -0.1254 -0.1706
 3545DOPE   NH341588  28.009  29.085  12.160  0.1496  0.0176 -0.2058
 3545DOPE   PO441589  28.155  29.030  12.416  0.1341  0.0265 -0.1664
 3545DOPE   GL141590  28.162  28.805  12.709  0.1113  0.1012  0.0721
 3545DOPE   GL241591  28.448  28.838  12.770 -0.0161  0.0508 -0.0382
 3545DOPE   C1A41592  27.947  28.553  13.076  0.1555  0.0882  0.1126
 3545DOPE   D2A41593  27.931  28.141  13.269 -0.2516 -0.3393 -0.0079
 3545DOPE   C3A41594  27.631  28.146  13.561 -0.1069  0.1327 -0.3853
 3545DOPE   C4A41595  27.691  28.248  14.016  0.0401 -0.1406 -0.1571
 3545DOPE   C1B41596  28.442  28.681  13.200  0.1585 -0.2462  0.0564
 3545DOPE   D2B41597  28.737  28.590  13.556  0.0775 -0.1814 -0.3274
 3545DOPE   C3B41598  28.798  28.202  13.797 -0.4860  0.2436 -0.0857
 3545DOPE   C4B41599  29.019  27.937  14.096 -0.0233  0.0978 -0.1104
 3546DOPS   CNO41600  27.428  27.347  11.806  0.2781  0.0119  0.0413
 3546DOPS   PO441601  27.559  27.115  12.004  0.0326  0.2511 -0.1793
 3546DOPS   GL141602  27.585  27.105  12.321 -0.3337  0.0189 -0.0579
 3546DOPS   GL241603  27.363  26.901  12.507 -0.1582 -0.0082 -0.2945
 3546DOPS   C1A41604  27.933  27.334  12.538 -0.2427 -0.3544 -0.1454
 3546DOPS   D2A41605  27.838  27.498  13.025  0.0779  0.0937  0.0159
 3546DOPS   C3A41606  27.880  27.352  13.477 -0.0057 -0.0010  0.2252
 3546DOPS   C4A41607  28.218  27.331  13.752  0.0099 -0.0430  0.1004
 3546DOPS   C1B41608  27.776  26.935  12.758 -0.1635  0.0551 -0.1375
 3546DOPS   D2B41609  28.154  27.130  12.942  0.1642  0.1648  0.1968
 3546DOPS   C3B41610  28.225  27.004  13.404  0.0920  0.2041  0.1508
 3546DOPS   C4B41611  28.519  26.887  13.786 -0.0251 -0.1422 -0.0571
 3547DOPC   NC341612  30.148   2.062  11.013  0.1868  0.1338 -0.2602
 3547DOPC   PO441613  29.818   2.223  10.978  0.4126  0.0683  0.2321
 3547DOPC   GL141614  29.782   2.297  11.374  0.2800 -0.3495 -0.1019
 3547DOPC   GL241615  29.516   2.138  11.487 -0.0899 -0.0382  0.1053
 3547DOPC   C1A41616  29.987   2.465  11.728 -0.1155 -0.3423  0.0699
 3547DOPC   D2A41617  30.355   2.291  12.038  0.2226 -0.3179  0.1016
 3547DOPC   C3A41618  30.238   2.264  12.536  0.0816 -0.0328 -0.0712
 3547DOPC   C4A41619  30.144   2.397  12.957  0.0161  0.1892  0.0564
 3547DOPC   C1B41620  29.527   2.241  11.900 -0.0247  0.0146  0.1017
 3547DOPC   D2B41621  29.739   2.258  12.339 -0.0930  0.0924  0.4342
 3547DOPC   C3B41622  29.690   2.485  12.777  0.1450 -0.0558  0.1330
 3547DOPC   C4B41623  29.623   2.660  13.153 -0.3083  0.1135  0.2243
 3548DOPE   NH341624  24.020  30.490  11.168  0.0839 -0.4882 -0.0378
 3548DOPE   PO441625  24.305  30.394  11.218  0.0093  0.1874  0.0300
 3548DOPE   GL141626  24.486  30.564  11.546  0.3623 -0.2065  0.0644
 3548DOPE   GL241627  24.622  30.331  11.689 -0.0029  0.1436  0.1418
 3548DOPE   C1A41628  24.333  30.888  11.798 -0.1444 -0.1868  0.3291
 3548DOPE   D2A41629  23.899  31.043  11.909 -0.0338 -0.1244 -0.7555
 3548DOPE   C3A41630  23.782  30.925  12.351 -0.4301 -0.0743 -0.0549
 3548DOPE   C4A41631  23.648  30.761  12.798 -0.0260 -0.0256  0.1211
 3548DOPE   C1B41632  24.349  30.033  11.872  0.1392 -0.0126 -0.0816
 3548DOPE   D2B41633  23.944  29.994  12.056 -0.1617 -0.0192 -0.0129
 3548DOPE   C3B41634  23.779  29.591  11.950  0.0553 -0.1718 -0.1398
 3548DOPE   C4B41635  24.018  29.267  12.105  0.1552  0.0119 -0.1592
 3549DOPE   NH341636  29.221  28.942  11.634  0.4021 -0.1037  0.0827
 3549DOPE   PO441637  29.310  28.675  11.788  0.0800  0.2000  0.1777
 3549DOPE   GL141638  29.441  28.546  12.079 -0.1822 -0.2056  0.0384
 3549DOPE   GL241639  29.683  28.516  12.091 -0.0782 -0.2462  0.1483
 3549DOPE   C1A41640  29.314  28.615  12.552  0.1723  0.0886  0.0091
 3549DOPE   D2A41641  29.344  28.700  13.008  0.0959 -0.4295 -0.0598
 3549DOPE   C3A41642  29.508  28.377  13.300  0.0191  0.1290 -0.0175
 3549DOPE   C4A41643  29.722  28.016  13.173 -0.3749 -0.0653 -0.1338
 3549DOPE   C1B41644  29.940  28.568  12.457 -0.1066  0.1550  0.2419
 3549DOPE   D2B41645  30.307  28.665  12.696 -0.1767 -0.0976 -0.0582
 3549DOPE   C3B41646  30.787  28.573  12.839  0.2290 -0.0628 -0.1918
 3549DOPE   C4B41647  30.972  28.331  13.196 -0.3612  0.3417  0.0309
 3550POSM   NC341648  31.899  31.681  11.260  0.0371 -0.0154 -0.1417
 3550POSM   PO441649  32.318  31.735  11.284 -0.1478  0.0447  0.3660
 3550POSM   AM141650  32.257  31.833  11.610 -0.1174 -0.1073  0.1212
 3550POSM   AM241651  32.491  31.912  11.785  0.0780  0.0154  0.0509
 3550POSM   T1A41652  32.104  32.142  12.006  0.0034  0.1079 -0.0756
 3550POSM   C2A41653  31.890  32.287  12.400  0.2481 -0.2387 -0.1122
 3550POSM   C3A41654  31.763  32.047  12.760 -0.0845 -0.3072 -0.1014
 3550POSM   C1B41655  32.520  31.824  12.133 -0.0373  0.2322  0.0073
 3550POSM   D2B41656  32.745  31.791  12.563 -0.0360 -0.1512 -0.0048
 3550POSM   C3B41657  33.112  31.510  12.551 -0.0831 -0.2523 -0.0887
 3550POSM   C4B41658  33.141  31.099  12.667  0.0374  0.1215 -0.2488
 3551POSM   NC341659  32.859  34.524  10.305 -0.1448 -0.0720 -0.2970
 3551POSM   PO441660  32.917  34.141  10.299  0.2038 -0.1488 -0.0407
 3551POSM   AM141661  32.802  34.145  10.628  0.0680 -0.4809 -0.1800
 3551POSM   AM241662  32.610  34.182  10.808  0.2072  0.0162 -0.0944
 3551POSM   T1A41663  32.976  34.119  11.125  0.1570 -0.0254  0.3739
 3551POSM   C2A41664  32.878  34.008  11.494  0.1078  0.2666 -0.1098
 3551POSM   C3A41665  32.843  34.098  11.914 -0.0858 -0.0266 -0.0850
 3551POSM   C1B41666  32.479  33.988  11.067 -0.0968  0.1662  0.1641
 3551POSM   D2B41667  32.542  33.681  11.450  0.0474  0.0974 -0.0741
 3551POSM   C3B41668  32.642  33.627  11.901  0.0385 -0.1776  0.1140
 3551POSM   C4B41669  32.956  33.324  12.075 -0.1540 -0.0268  0.0568
 3552DOPC   NC341670  24.965  29.435  11.739  0.1493  0.0369  0.2069
 3552DOPC   PO441671  25.257  29.661  11.593 -0.0036 -0.1534  0.2828
 3552DOPC   GL141672  25.243  29.786  12.083 -0.2144 -0.0597 -0.0454
 3552DOPC   GL241673  25.385  29.525  12.028  0.1634  0.0834 -0.0553
 3552DOPC   C1A41674  24.898  29.907  12.329 -0.0921  0.0412 -0.1564
 3552DOPC   D2A41675  24.432  29.965  12.375 -0.0923  0.2139 -0.0429
 3552DOPC   C3A41676  24.172  30.095  12.693  0.0860 -0.3714 -0.1049
 3552DOPC   C4A41677  24.088  30.477  12.956  0.1808 -0.0490  0.0163
 3552DOPC   C1B41678  25.031  29.409  12.317 -0.1189  0.1033 -0.1884
 3552DOPC   D2B41679  24.782  29.192  12.642 -0.1574 -0.0156  0.3203
 3552DOPC   C3B41680  24.562  29.276  12.985 -0.1896 -0.1678 -0.0158
 3552DOPC   C4B41681  24.167  29.346  13.223 -0.1386 -0.2209 -0.1087
 3553DOPC   NC341682  26.954   3.304  11.300 -0.0129 -0.1317  0.0169
 3553DOPC   PO441683  26.696   3.312  11.588 -0.1745  0.3858  0.0782
 3553DOPC   GL141684  26.802   3.414  11.983 -0.2054 -0.2051  0.4426
 3553DOPC   GL241685  27.009   3.639  12.007 -0.0384  0.0637 -0.1547
 3553DOPC   C1A41686  27.075   3.185  12.281 -0.1617 -0.0294 -0.2190
 3553DOPC   D2A41687  27.306   3.096  12.692  0.0079 -0.0799  0.0795
 3553DOPC   C3A41688  27.147   2.831  13.083  0.0178  0.0590 -0.1503
 3553DOPC   C4A41689  27.029   2.787  13.544  0.0967 -0.0763  0.1437
 3553DOPC   C1B41690  27.376   3.528  12.359 -0.1474 -0.0132 -0.0341
 3553DOPC   D2B41691  27.644   3.585  12.729  0.0067 -0.1523 -0.0439
 3553DOPC   C3B41692  27.669   3.344  13.053 -0.0800  0.0864  0.1506
 3553DOPC   C4B41693  27.645   2.898  13.111 -0.0101 -0.0783  0.0328
 3554DOPC   NC341694  28.935  32.989  11.741 -0.1348  0.0412  0.0480
 3554DOPC   PO441695  28.845  32.740  11.992  0.0194 -0.3365  0.0395
 3554DOPC   GL141696  28.734  32.792  12.334 -0.1554  0.0381  0.3366
 3554DOPC   GL241697  28.943  32.716  12.544 -0.3816 -0.2716  0.3761
 3554DOPC   C1A41698  28.699  33.101  12.691  0.0351 -0.0630  0.1309
 3554DOPC   D2A41699  28.765  33.061  13.147  0.1414 -0.0978 -0.0497
 3554DOPC   C3A41700  28.454  32.878  13.394 -0.1277 -0.0168 -0.2179
 3554DOPC   C4A41701  28.357  32.592  13.741  0.1915 -0.0550  0.1064
 3554DOPC   C1B41702  29.184  32.942  12.811 -0.1627 -0.0774 -0.3155
 3554DOPC   D2B41703  29.462  32.994  13.128  0.0098 -0.5824 -0.0978
 3554DOPC   C3B41704  29.705  33.304  13.378 -0.3885 -0.1055 -0.0098
 3554DOPC   C4B41705  29.670  33.502  13.781  0.2209 -0.0812  0.0576
 3555POSM   NC341706  26.416  28.806  11.671  0.0457 -0.3916  0.1471
 3555POSM   PO441707  26.547  29.135  11.451  0.0020 -0.3023  0.0466
 3555POSM   AM141708  26.608  29.245  11.759  0.2447  0.0149  0.1102
 3555POSM   AM241709  26.745  29.156  11.984 -0.1630 -0.1183 -0.2153
 3555POSM   T1A41710  26.649  29.622  12.105  0.1923  0.0192  0.0133
 3555POSM   C2A41711  26.826  29.983  12.351  0.1386 -0.0138  0.3150
 3555POSM   C3A41712  26.687  30.093  12.798  0.1233 -0.1654 -0.1944
 3555POSM   C1B41713  26.784  29.174  12.303  0.0275 -0.1738  0.2464
 3555POSM   D2B41714  26.609  29.114  12.731  0.1389 -0.0355  0.1684
 3555POSM   C3B41715  26.261  28.942  12.930  0.2840  0.0501 -0.1182
 3555POSM   C4B41716  26.060  28.629  13.120 -0.0140 -0.2414  0.3442
 3556DOPC   NC341717  23.201  34.535  10.976 -0.1834 -0.2155 -0.1667
 3556DOPC   PO441718  23.149  34.472  11.340  0.0168  0.5413 -0.1446
 3556DOPC   GL141719  23.043  34.311  11.670 -0.4170 -0.2095  0.1156
 3556DOPC   GL241720  23.271  34.143  11.752 -0.0159  0.2443  0.1866
 3556DOPC   C1A41721  22.885  34.400  12.095 -0.2084  0.1181 -0.3528
 3556DOPC   D2A41722  22.617  34.557  12.446 -0.2508  0.1470 -0.0402
 3556DOPC   C3A41723  22.181  34.655  12.317 -0.0883 -0.0525  0.1728
 3556DOPC   C4A41724  21.749  34.417  12.451 -0.2840  0.2491 -0.0989
 3556DOPC   C1B41725  23.374  34.405  12.121  0.1796 -0.1559  0.5666
 3556DOPC   D2B41726  23.584  34.632  12.478  0.0873 -0.0996 -0.3078
 3556DOPC   C3B41727  23.502  35.006  12.700  0.1262 -0.2679  0.0272
 3556DOPC   C4B41728  23.349  35.210  13.098  0.1609  0.1354  0.0089
 3557POSM   NC341729  32.104  28.951  11.505 -0.0181 -0.1477 -0.1873
 3557POSM   PO441730  31.865  29.232  11.364  0.1538  0.0138  0.1698
 3557POSM   AM141731  31.954  29.408  11.656  0.0174  0.1849  0.1745
 3557POSM   AM241732  32.219  29.413  11.775 -0.2206 -0.0294 -0.0542
 3557POSM   T1A41733  31.828  29.468  12.098 -0.0102 -0.2348 -0.3230
 3557POSM   C2A41734  31.831  29.747  12.491  0.0854  0.0190 -0.0300
 3557POSM   C3A41735  32.247  30.020  12.550 -0.1575 -0.0712  0.1735
 3557POSM   C1B41736  32.344  29.270  11.984  0.0278  0.0946 -0.0775
 3557POSM   D2B41737  32.364  28.913  12.289  0.2197  0.1417 -0.1160
 3557POSM   C3B41738  31.985  29.032  12.519  0.0190 -0.3013  0.1706
 3557POSM   C4B41739  31.613  29.300  12.552  0.1695 -0.0789 -0.1031
 3558DOPS   CNO41740  30.539  25.761  11.608  0.3966  0.0347 -0.1558
 3558DOPS   PO441741  30.447  25.464  11.851  0.1965 -0.3640  0.2010
 3558DOPS   GL141742  30.467  25.817  12.077 -0.1022  0.1368 -0.2290
 3558DOPS   GL241743  30.469  25.614  12.312  0.0016 -0.1366 -0.0559
 3558DOPS   C1A41744  30.804  25.968  12.356  0.0633 -0.0616  0.4293
 3558DOPS   D2A41745  30.828  25.695  12.773 -0.1378  0.2932 -0.1107
 3558DOPS   C3A41746  30.948  25.770  13.233  0.0597 -0.0104 -0.1733
 3558DOPS   C4A41747  31.335  25.841  13.479 -0.3239 -0.0097 -0.2067
 3558DOPS   C1B41748  30.904  25.433  12.309 -0.0419  0.0637  0.2682
 3558DOPS   D2B41749  31.290  25.500  12.509 -0.0420  0.2081 -0.1601
 3558DOPS   C3B41750  31.289  25.916  12.680 -0.2483  0.2208 -0.0963
 3558DOPS   C4B41751  31.564  26.288  12.730  0.1811  0.2831 -0.0938
 3559DOPC   NC341752  28.896  29.846  11.533 -0.0348 -0.0124 -0.0578
 3559DOPC   PO441753  29.010  29.633  11.833 -0.1320  0.0359 -0.0531
 3559DOPC   GL141754  29.136  29.705  12.176 -0.0718  0.1668  0.2351
 3559DOPC   GL241755  29.148  29.565  12.382 -0.0099 -0.0582  0.0820
 3559DOPC   C1A41756  28.894  30.025  12.482  0.0980 -0.1966  0.2158
 3559DOPC   D2A41757  28.826  30.166  12.974 -0.0011 -0.0461  0.3638
 3559DOPC   C3A41758  28.907  29.948  13.377 -0.0455 -0.0061  0.1099
 3559DOPC   C4A41759  29.255  29.892  13.724  0.0419  0.1022 -0.0058
 3559DOPC   C1B41760  29.540  29.333  12.537 -0.0288 -0.1697  0.2331
 3559DOPC   D2B41761  29.693  29.055  12.863 -0.2191 -0.3216 -0.1751
 3559DOPC   C3B41762  29.337  29.273  13.058 -0.0875  0.2708 -0.1513
 3559DOPC   C4B41763  29.043  29.490  13.366 -0.1122 -0.1128 -0.0969
 3560DOPS   CNO41764  23.475  33.350  11.210 -0.3565  0.0287 -0.2297
 3560DOPS   PO441765  23.273  33.148  11.499 -0.0071  0.0053 -0.0856
 3560DOPS   GL141766  23.387  33.343  11.889 -0.0151  0.2761 -0.2073
 3560DOPS   GL241767  23.488  33.144  11.933  0.0614 -0.0602  0.1666
 3560DOPS   C1A41768  23.092  33.374  12.210  0.0505  0.1865 -0.1181
 3560DOPS   D2A41769  22.726  33.398  12.482 -0.0695 -0.0824 -0.5313
 3560DOPS   C3A41770  22.705  33.635  12.897  0.0894 -0.0043 -0.3246
 3560DOPS   C4A41771  22.496  33.580  13.278 -0.0281 -0.0302 -0.1190
 3560DOPS   C1B41772  23.424  33.011  12.388 -0.1490  0.1487 -0.0839
 3560DOPS   D2B41773  23.372  32.692  12.710 -0.0301  0.1196 -0.0824
 3560DOPS   C3B41774  23.612  32.601  13.108 -0.2628 -0.0026  0.0797
 3560DOPS   C4B41775  23.638  32.337  13.455 -0.2425  0.3253  0.2103
 3561DOPE   NH341776  28.407   0.300  11.820  0.0638  0.3472 -0.1296
 3561DOPE   PO441777  28.440   0.062  11.650  0.0537 -0.0322 -0.4167
 3561DOPE   GL141778  28.231  -0.203  11.989 -0.1256  0.1905  0.1354
 3561DOPE   GL241779  28.019   0.008  12.048  0.0483 -0.1714  0.0434
 3561DOPE   C1A41780  28.427  -0.453  12.344  0.0501  0.0219 -0.2416
 3561DOPE   D2A41781  28.822  -0.382  12.534  0.0764 -0.2288 -0.0457
 3561DOPE   C3A41782  28.949  -0.067  12.818 -0.0547  0.0703  0.2505
 3561DOPE   C4A41783  28.895   0.069  13.274 -0.0111 -0.4151 -0.4242
 3561DOPE   C1B41784  28.027   0.325  12.317 -0.2025  0.3873 -0.1138
 3561DOPE   D2B41785  28.077   0.281  12.806 -0.2959  0.0171  0.1754
 3561DOPE   C3B41786  27.877  -0.059  13.077 -0.1966  0.2021 -0.2328
 3561DOPE   C4B41787  27.466  -0.070  13.272 -0.0186  0.0526  0.0284
 3562DOPE   NH341788  32.798  28.591  10.866  0.2543 -0.0002  0.0358
 3562DOPE   PO441789  32.972  28.326  10.977  0.0359  0.1483  0.3180
 3562DOPE   GL141790  33.087  28.000  11.247 -0.2756 -0.1175 -0.1804
 3562DOPE   GL241791  33.059  27.745  11.195 -0.1238  0.3116 -0.0382
 3562DOPE   C1A41792  32.785  27.938  11.559  0.1821  0.1405 -0.2031
 3562DOPE   D2A41793  32.567  27.633  11.870  0.1373  0.0662 -0.1539
 3562DOPE   C3A41794  32.559  27.291  12.211 -0.3356 -0.3030  0.2402
 3562DOPE   C4A41795  32.654  26.904  12.484  0.0599  0.1296  0.1919
 3562DOPE   C1B41796  32.724  27.464  11.417  0.2233 -0.0126 -0.0118
 3562DOPE   D2B41797  32.781  27.194  11.756  0.4338  0.0298 -0.0694
 3562DOPE   C3B41798  33.014  27.419  12.113  0.1114 -0.0513  0.0102
 3562DOPE   C4B41799  33.235  27.622  12.482 -0.3125  0.1371 -0.1647
 3563DOPE   NH341800  29.366  32.064  11.717 -0.1844 -0.1878 -0.0649
 3563DOPE   PO441801  29.388  32.032  12.033  0.0684 -0.1582 -0.0492
 3563DOPE   GL141802  29.361  32.225  12.371 -0.0343  0.1285 -0.2378
 3563DOPE   GL241803  29.438  32.517  12.433  0.1226  0.3677  0.0793
 3563DOPE   C1A41804  29.326  32.143  12.792  0.2379 -0.0977 -0.0419
 3563DOPE   D2A41805  29.127  32.107  13.235 -0.0895 -0.0560  0.1475
 3563DOPE   C3A41806  29.002  31.643  13.255 -0.0369 -0.1678 -0.0213
 3563DOPE   C4A41807  29.074  31.214  13.113 -0.0542  0.2037  0.2025
 3563DOPE   C1B41808  29.646  32.514  12.871  0.0141  0.0706  0.0853
 3563DOPE   D2B41809  29.552  32.400  13.274  0.1027  0.1454 -0.2727
 3563DOPE   C3B41810  29.505  32.109  13.591 -0.2878 -0.1382 -0.2101
 3563DOPE   C4B41811  29.710  31.803  13.868 -0.1800 -0.0436 -0.2296
 3564DOPC   NC341812  28.800  26.590  11.966  0.3670  0.0097 -0.1808
 3564DOPC   PO441813  28.679  26.180  11.936  0.1660 -0.1441  0.1491
 3564DOPC   GL141814  28.640  26.080  12.350  0.0397 -0.0022  0.1968
 3564DOPC   GL241815  28.741  25.816  12.333  0.2015  0.0617  0.1933
 3564DOPC   C1A41816  28.418  25.891  12.765  0.2147 -0.0351 -0.2652
 3564DOPC   D2A41817  28.343  25.572  13.097 -0.0518 -0.0867 -0.4234
 3564DOPC   C3A41818  28.058  25.727  13.422  0.0036  0.3295  0.3968
 3564DOPC   C4A41819  27.640  25.859  13.650  0.1358  0.0782  0.0016
 3564DOPC   C1B41820  28.997  25.443  12.301 -0.0169  0.2089 -0.0227
 3564DOPC   D2B41821  28.988  24.971  12.494  0.2110  0.6527 -0.0244
 3564DOPC   C3B41822  28.590  24.947  12.741 -0.0126  0.1369 -0.0627
 3564DOPC   C4B41823  28.211  24.774  12.877  0.3372 -0.1287 -0.0582
 3565DOPS   CNO41824  33.976  31.196  10.507  0.1184 -0.2072 -0.1594
 3565DOPS   PO441825  34.057  31.195  10.853  0.0529 -0.0954  0.0430
 3565DOPS   GL141826  34.260  31.187  11.275 -0.2614  0.1088  0.0001
 3565DOPS   GL241827  34.052  31.119  11.518 -0.0727 -0.2636 -0.1677
 3565DOPS   C1A41828  34.360  31.482  11.588  0.1383  0.3241  0.1483
 3565DOPS   D2A41829  34.625  31.446  11.984  0.3403 -0.1625 -0.0475
 3565DOPS   C3A41830  34.910  31.541  12.332 -0.1496 -0.0154  0.2980
 3565DOPS   C4A41831  35.194  31.891  12.193 -0.0363 -0.1406  0.1968
 3565DOPS   C1B41832  34.036  30.832  11.846  0.1162  0.1675 -0.4088
 3565DOPS   D2B41833  33.928  30.798  12.290 -0.0360 -0.0911  0.1764
 3565DOPS   C3B41834  34.066  30.570  12.673  0.2723 -0.1824 -0.1238
 3565DOPS   C4B41835  34.184  30.321  13.091  0.1257 -0.1364  0.2267
 3566DOPS   CNO41836  30.491   0.864  10.735  0.1753 -0.3562  0.5384
 3566DOPS   PO441837  30.452   0.513  10.935  0.0822 -0.2240 -0.0023
 3566DOPS   GL141838  30.220   0.674  11.278 -0.2234 -0.0031  0.1642
 3566DOPS   GL241839  30.161   0.419  11.428  0.0283  0.3161 -0.0697
 3566DOPS   C1A41840  30.355   0.764  11.732  0.0737  0.0148 -0.0846
 3566DOPS   D2A41841  30.659   1.064  11.879  0.1374 -0.1571  0.1314
 3566DOPS   C3A41842  31.044   0.950  12.120 -0.0901  0.0544 -0.0962
 3566DOPS   C4A41843  31.428   1.045  12.411 -0.0166 -0.2242  0.1578
 3566DOPS   C1B41844  30.458   0.223  11.644  0.2943  0.1452  0.3552
 3566DOPS   D2B41845  30.471   0.046  12.070  0.1835 -0.3196  0.1250
 3566DOPS   C3B41846  30.337   0.205  12.442 -0.0835 -0.3193 -0.0187
 3566DOPS   C4B41847  30.273   0.304  12.903  0.0263 -0.1096 -0.1850
 3567DOPC   NC341848  29.122  33.547  12.159 -0.1504  0.3681 -0.3709
 3567DOPC   PO441849  29.334  33.320  11.889 -0.2219 -0.0764 -0.2813
 3567DOPC   GL141850  29.590  33.469  12.184 -0.2028 -0.2228  0.3881
 3567DOPC   GL241851  29.446  33.362  12.449  0.1782 -0.0647 -0.1511
 3567DOPC   C1A41852  29.736  33.786  12.440  0.2532 -0.1953  0.1156
 3567DOPC   D2A41853  29.681  33.991  12.847 -0.1019 -0.0401 -0.0743
 3567DOPC   C3A41854  29.918  33.763  13.115 -0.1622  0.0719 -0.0737
 3567DOPC   C4A41855  30.115  33.548  13.499  0.1109  0.2963  0.1294
 3567DOPC   C1B41856  29.309  33.399  12.915  0.1258 -0.0671  0.2121
 3567DOPC   D2B41857  29.210  33.350  13.407 -0.3891  0.0970 -0.2209
 3567DOPC   C3B41858  29.260  33.767  13.657 -0.1209  0.1205 -0.1940
 3567DOPC   C4B41859  28.979  34.054  13.930 -0.0780 -0.3602  0.0266
 3568DOPS   CNO41860  25.717  31.618  11.519 -0.5358  0.1446 -0.0216
 3568DOPS   PO441861  25.813  31.356  11.759  0.2772  0.1265 -0.0829
 3568DOPS   GL141862  25.746  31.504  12.180  0.1805  0.0805 -0.0135
 3568DOPS   GL241863  25.946  31.510  12.285 -0.1186  0.0449 -0.2499
 3568DOPS   C1A41864  25.459  31.757  12.422 -0.3917  0.0006  0.3348
 3568DOPS   D2A41865  25.161  31.635  12.693 -0.1996  0.0397 -0.2172
 3568DOPS   C3A41866  24.970  31.327  13.011  0.2899 -0.0754 -0.0449
 3568DOPS   C4A41867  24.760  31.294  13.450 -0.0370 -0.1382 -0.3528
 3568DOPS   C1B41868  25.727  31.518  12.681 -0.0722 -0.1280 -0.0931
 3568DOPS   D2B41869  25.557  31.658  13.112  0.0479  0.0330 -0.1867
 3568DOPS   C3B41870  25.664  31.793  13.571 -0.1312  0.1371 -0.2119
 3568DOPS   C4B41871  25.915  31.766  13.986  0.2996 -0.1809  0.1810
 3569DOPS   CNO41872  28.532  33.942  11.605 -0.1549 -0.1241 -0.0638
 3569DOPS   PO441873  28.414  33.575  11.535  0.1354 -0.0719 -0.4092
 3569DOPS   GL141874  28.381  33.586  11.885  0.1618 -0.6006 -0.4494
 3569DOPS   GL241875  28.386  33.824  12.066 -0.0599 -0.0834 -0.2424
 3569DOPS   C1A41876  28.129  33.455  12.239  0.0118  0.0545  0.1218
 3569DOPS   D2A41877  28.208  33.501  12.692  0.0475  0.2765 -0.2388
 3569DOPS   C3A41878  27.956  33.713  13.011 -0.0107  0.0206 -0.1635
 3569DOPS   C4A41879  27.937  33.781  13.428 -0.2114 -0.1627  0.2169
 3569DOPS   C1B41880  28.666  33.721  12.358 -0.0409 -0.1595  0.2623
 3569DOPS   D2B41881  28.933  33.517  12.674 -0.0847 -0.0486  0.1788
 3569DOPS   C3B41882  28.869  33.601  13.124  0.3292  0.1493 -0.1352
 3569DOPS   C4B41883  28.687  33.704  13.564 -0.0520  0.0329  0.1608
 3570DOPC   NC341884  23.759  32.924  11.516 -0.1495  0.0925 -0.0188
 3570DOPC   PO441885  23.600  32.583  11.496 -0.1301  0.0336 -0.2559
 3570DOPC   GL141886  23.355  32.745  11.805 -0.0967  0.2395 -0.3287
 3570DOPC   GL241887  23.065  32.768  11.837 -0.1974 -0.1999 -0.0423
 3570DOPC   C1A41888  23.374  32.531  12.216  0.0726 -0.2013  0.3894
 3570DOPC   D2A41889  23.504  32.194  12.579  0.1399 -0.1416 -0.0673
 3570DOPC   C3A41890  23.383  32.149  13.033  0.1981  0.4000  0.0166
 3570DOPC   C4A41891  23.311  31.945  13.447  0.0125 -0.2430 -0.1821
 3570DOPC   C1B41892  22.981  32.916  12.255 -0.3506 -0.2125  0.1291
 3570DOPC   D2B41893  22.929  32.966  12.712  0.0995 -0.1947 -0.3410
 3570DOPC   C3B41894  22.800  32.677  13.044  0.0788  0.0569 -0.2339
 3570DOPC   C4B41895  22.551  32.694  13.416 -0.2786 -0.1187  0.0873
 3571DOPE   NH341896  32.222  23.675  10.981 -0.0558  0.0422 -0.0215
 3571DOPE   PO441897  32.490  23.864  10.930  0.2247 -0.3363  0.1686
 3571DOPE   GL141898  32.659  23.919  11.323 -0.0618  0.2005 -0.1908
 3571DOPE   GL241899  32.758  24.222  11.376 -0.3772  0.0359 -0.0144
 3571DOPE   C1A41900  32.898  23.720  11.692  0.1250  0.0677  0.2609
 3571DOPE   D2A41901  33.364  23.706  11.888 -0.0180  0.2042  0.2687
 3571DOPE   C3A41902  33.321  23.837  12.351  0.0272  0.1489 -0.2561
 3571DOPE   C4A41903  33.147  23.987  12.732  0.3082 -0.2550  0.2261
 3571DOPE   C1B41904  32.755  24.481  11.762 -0.3295 -0.2269  0.1606
 3571DOPE   D2B41905  32.786  24.779  12.092  0.0241 -0.0501 -0.0748
 3571DOPE   C3B41906  32.792  25.166  12.378 -0.1817 -0.3934  0.0262
 3571DOPE   C4B41907  32.792  25.611  12.419 -0.2249  0.0137  0.0505
 3572DOPE   NH341908  23.350   1.073  11.489 -0.2934 -0.1793 -0.1818
 3572DOPE   PO441909  23.026   1.061  11.427  0.1695  0.0649  0.0149
 3572DOPE   GL141910  23.041   1.004  11.866 -0.3255  0.1483  0.0299
 3572DOPE   GL241911  23.131   1.275  11.896  0.0511 -0.2897 -0.2229
 3572DOPE   C1A41912  23.225   0.868  12.271 -0.1023 -0.0269  0.0161
 3572DOPE   D2A41913  23.141   0.643  12.636 -0.1636  0.0827  0.1798
 3572DOPE   C3A41914  23.130   0.878  12.995  0.0103  0.1710 -0.0326
 3572DOPE   C4A41915  22.995   1.270  13.225 -0.1309  0.2290  0.1163
 3572DOPE   C1B41916  23.291   1.542  12.229  0.1514 -0.3360 -0.0563
 3572DOPE   D2B41917  23.136   1.782  12.621 -0.2334  0.0218  0.2586
 3572DOPE   C3B41918  23.328   2.152  12.871 -0.3215 -0.0550 -0.0123
 3572DOPE   C4B41919  23.461   2.555  13.126  0.1725  0.0650 -0.2093
 3573POSM   NC341920  28.243  27.680  12.029  0.5508  0.0289 -0.4155
 3573POSM   PO441921  28.530  27.843  11.879  0.2396 -0.0417 -0.0044
 3573POSM   AM141922  28.626  27.843  12.151  0.0730  0.1132  0.0359
 3573POSM   AM241923  28.855  27.723  12.293 -0.2471  0.1507 -0.0454
 3573POSM   T1A41924  28.637  27.912  12.663 -0.2793  0.1228 -0.0097
 3573POSM   C2A41925  28.777  27.839  13.069  0.3743  0.2780 -0.2295
 3573POSM   C3A41926  28.826  27.823  13.481  0.1478  0.0572 -0.1435
 3573POSM   C1B41927  29.060  27.698  12.538 -0.0299 -0.1786  0.1149
 3573POSM   D2B41928  29.382  27.830  12.857 -0.0758 -0.1631 -0.2217
 3573POSM   C3B41929  29.262  27.855  13.286  0.2516 -0.1275  0.0389
 3573POSM   C4B41930  29.294  28.128  13.679 -0.3755  0.0452  0.0854
 3574DOPS   CNO41931  31.942  34.685  10.528 -0.1161 -0.2297  0.0295
 3574DOPS   PO441932  32.151  34.375  10.683  0.1837 -0.2844  0.1045
 3574DOPS   GL141933  32.240  34.550  11.028  0.3881 -0.1874  0.3801
 3574DOPS   GL241934  32.152  34.348  11.231 -0.0622 -0.1327 -0.0675
 3574DOPS   C1A41935  32.645  34.515  11.278 -0.1135  0.2539 -0.2890
 3574DOPS   D2A41936  33.080  34.489  11.483  0.2095  0.1516 -0.0717
 3574DOPS   C3A41937  33.118  34.671  11.916 -0.1391 -0.0813 -0.0599
 3574DOPS   C4A41938  32.984  34.632  12.352  0.2699 -0.0545 -0.3041
 3574DOPS   C1B41939  31.916  34.394  11.622 -0.0015  0.0360 -0.1451
 3574DOPS   D2B41940  32.009  34.341  12.128 -0.1145 -0.1587  0.2830
 3574DOPS   C3B41941  32.130  34.724  12.248 -0.1558 -0.0794  0.2049
 3574DOPS   C4B41942  31.932  35.068  12.502 -0.0150 -0.1924  0.1597
 3575DOPC   NC341943  29.180  25.832  11.954 -0.2461  0.2230  0.0544
 3575DOPC   PO441944  29.320  26.115  11.711  0.0040  0.1756  0.1561
 3575DOPC   GL141945  29.204  26.286  12.001 -0.0984 -0.0833 -0.1409
 3575DOPC   GL241946  29.553  26.384  12.073  0.0935 -0.1106  0.1164
 3575DOPC   C1A41947  29.153  26.139  12.414 -0.1601 -0.0713 -0.0429
 3575DOPC   D2A41948  29.064  25.876  12.757  0.0107 -0.3842 -0.0808
 3575DOPC   C3A41949  29.436  25.643  12.998  0.0354 -0.3545 -0.1525
 3575DOPC   C4A41950  29.703  25.626  13.353  0.2366  0.4786  0.0075
 3575DOPC   C1B41951  29.552  26.420  12.464 -0.1133  0.0401  0.0343
 3575DOPC   D2B41952  29.394  26.453  12.842 -0.1770  0.0405 -0.2909
 3575DOPC   C3B41953  29.259  26.582  13.304 -0.0522  0.3091 -0.0025
 3575DOPC   C4B41954  29.369  26.836  13.687 -0.2935 -0.0535  0.1111
 3576DOPE   NH341955  25.398  31.018  11.669 -0.0794 -0.3221  0.2964
 3576DOPE   PO441956  25.249  30.782  11.506 -0.2113 -0.1825  0.3300
 3576DOPE   GL141957  25.075  30.795  11.862  0.2458  0.1777 -0.1105
 3576DOPE   GL241958  24.954  30.595  11.896 -0.2182 -0.0225 -0.2224
 3576DOPE   C1A41959  24.670  30.820  12.185 -0.0040  0.1130 -0.0731
 3576DOPE   D2A41960  24.304  30.951  12.304 -0.1106  0.0293 -0.0527
 3576DOPE   C3A41961  24.081  30.597  12.516 -0.0852  0.1736 -0.0721
 3576DOPE   C4A41962  23.756  30.372  12.267  0.0181  0.2534 -0.1414
 3576DOPE   C1B41963  25.177  30.684  12.270  0.1743  0.0241  0.0104
 3576DOPE   D2B41964  25.441  30.677  12.647  0.1931  0.3393  0.2346
 3576DOPE   C3B41965  25.276  30.663  13.048  0.3144 -0.0868 -0.0126
 3576DOPE   C4B41966  25.074  30.824  13.455 -0.1300  0.2480 -0.1957
 3577DOPS   CNO41967  28.863  23.254  11.499  0.1422 -0.0368 -0.2346
 3577DOPS   PO441968  28.522  23.467  11.553 -0.0548  0.2882  0.1918
 3577DOPS   GL141969  28.686  23.268  11.951  0.0257  0.2452  0.1087
 3577DOPS   GL241970  28.889  23.060  12.081 -0.2187 -0.0023 -0.0134
 3577DOPS   C1A41971  28.822  23.593  12.250 -0.2134  0.1608  0.1682
 3577DOPS   D2A41972  28.945  23.463  12.700 -0.1356 -0.0048 -0.0997
 3577DOPS   C3A41973  28.894  23.163  13.081 -0.0333  0.0153 -0.1680
 3577DOPS   C4A41974  29.214  22.852  13.349 -0.1678 -0.0323  0.1389
 3577DOPS   C1B41975  28.662  23.105  12.484 -0.2028  0.1315  0.4841
 3577DOPS   D2B41976  28.407  22.993  12.869 -0.1336 -0.2459 -0.2504
 3577DOPS   C3B41977  28.048  23.183  13.041 -0.2479  0.2159  0.1513
 3577DOPS   C4B41978  27.802  23.551  13.189  0.0572 -0.2764  0.0268
 3578DOPS   CNO41979  30.928  33.181  10.888 -0.1482 -0.0040 -0.1482
 3578DOPS   PO441980  31.145  32.932  11.069  0.2312  0.1015  0.2900
 3578DOPS   GL141981  31.266  33.043  11.435  0.4588  0.0123 -0.2078
 3578DOPS   GL241982  31.271  32.781  11.575  0.1369  0.3437 -0.0052
 3578DOPS   C1A41983  31.371  33.405  11.717  0.0471  0.0750  0.1449
 3578DOPS   D2A41984  31.465  33.759  12.046 -0.0013 -0.2312 -0.4469
 3578DOPS   C3A41985  31.855  33.881  12.261  0.0873 -0.1506  0.0587
 3578DOPS   C4A41986  32.305  33.972  12.072  0.2033 -0.1519 -0.1478
 3578DOPS   C1B41987  31.331  33.019  11.986 -0.2992  0.0206 -0.1148
 3578DOPS   D2B41988  31.564  33.260  12.280  0.1312  0.0132  0.0440
 3578DOPS   C3B41989  31.388  33.131  12.716 -0.3423 -0.4365 -0.0642
 3578DOPS   C4B41990  31.649  33.106  13.085 -0.3109  0.0622  0.2948
 3579DOPE   NH341991  19.424  32.633  10.837 -0.3544 -0.0094  0.2949
 3579DOPE   PO441992  19.141  32.705  10.764 -0.1219  0.1719  0.2429
 3579DOPE   GL141993  19.206  32.639  11.184 -0.0124  0.3102 -0.1850
 3579DOPE   GL241994  19.194  32.927  11.260 -0.1904 -0.0249 -0.0305
 3579DOPE   C1A41995  19.134  32.578  11.661  0.0360 -0.0729 -0.0098
 3579DOPE   D2A41996  19.169  32.561  12.107  0.0314  0.1492  0.2816
 3579DOPE   C3A41997  18.831  32.665  12.412 -0.0188  0.2626  0.0149
 3579DOPE   C4A41998  18.459  32.562  12.672 -0.0600  0.0120 -0.1795
 3579DOPE   C1B41999  19.036  33.274  11.555 -0.5682  0.2604  0.4074
 3579DOPE   D2B42000  19.036  33.402  11.968  0.2083  0.1009 -0.1653
 3579DOPE   C3B42001  19.166  33.518  12.411  0.2044 -0.1769  0.1319
 3579DOPE   C4B42002  19.269  33.518  12.920  0.3075 -0.3331  0.3145
 3580DOPE   NH342003  29.507  30.791  11.695 -0.1836 -0.1677 -0.1112
 3580DOPE   PO442004  29.626  31.061  11.829 -0.0168 -0.1103 -0.2861
 3580DOPE   GL142005  29.729  31.138  12.254  0.0702 -0.2674 -0.1862
 3580DOPE   GL242006  29.729  31.383  12.429  0.0299 -0.0334 -0.0449
 3580DOPE   C1A42007  29.804  30.984  12.710 -0.0115 -0.1079 -0.3062
 3580DOPE   D2A42008  30.013  30.989  13.162 -0.0596  0.0405 -0.2190
 3580DOPE   C3A42009  30.090  31.217  13.556 -0.1686  0.2020  0.2139
 3580DOPE   C4A42010  30.234  31.591  13.859 -0.0144 -0.2025  0.0837
 3580DOPE   C1B42011  29.914  31.512  12.777  0.2371  0.0010  0.4099
 3580DOPE   D2B42012  30.042  31.610  13.220  0.1673  0.0656  0.1621
 3580DOPE   C3B42013  30.096  31.938  13.533 -0.0195 -0.0760 -0.1024
 3580DOPE   C4B42014  30.018  32.384  13.481  0.1035  0.1866 -0.0899
 3581POSM   NC342015  32.918  24.771  10.697 -0.2343  0.1854  0.2297
 3581POSM   PO442016  33.217  24.525  10.841 -0.2728 -0.3079  0.2132
 3581POSM   AM142017  33.363  24.553  11.151 -0.0520  0.2549  0.2807
 3581POSM   AM242018  33.591  24.501  11.330  0.0056  0.2219  0.0120
 3581POSM   T1A42019  33.236  24.268  11.587  0.0054 -0.2784  0.1042
 3581POSM   C2A42020  33.432  24.262  12.052  0.5666  0.0705  0.1374
 3581POSM   C3A42021  33.272  24.353  12.482  0.1961  0.0439 -0.1166
 3581POSM   C1B42022  33.776  24.625  11.652  0.0534  0.0318  0.1525
 3581POSM   D2B42023  34.043  24.872  11.957 -0.3450  0.3076 -0.2075
 3581POSM   C3B42024  33.858  25.034  12.369  0.1304 -0.2599  0.1017
 3581POSM   C4B42025  33.782  25.426  12.603 -0.0616 -0.2338 -0.0655
 3582DOPC   NC342026  32.201  28.560  10.951 -0.1470  0.2191  0.0425
 3582DOPC   PO442027  32.398  28.731  11.222  0.1038  0.0710 -0.0148
 3582DOPC   GL142028  32.564  28.915  11.560  0.3539 -0.0063 -0.0113
 3582DOPC   GL242029  32.673  29.153  11.695  0.2413 -0.1993 -0.0340
 3582DOPC   C1A42030  32.664  28.596  11.954 -0.3619 -0.0917  0.0927
 3582DOPC   D2A42031  32.516  28.291  12.281 -0.1188  0.1479 -0.0276
 3582DOPC   C3A42032  32.610  28.299  12.712 -0.0831 -0.0050 -0.0607
 3582DOPC   C4A42033  32.700  28.550  13.095 -0.0617 -0.0030 -0.2090
 3582DOPC   C1B42034  32.761  29.184  12.188 -0.0017 -0.0939  0.0296
 3582DOPC   D2B42035  32.818  29.393  12.620  0.0173  0.0258  0.2464
 3582DOPC   C3B42036  32.822  29.737  12.880 -0.3798 -0.0817  0.1469
 3582DOPC   C4B42037  32.447  29.933  13.105  0.0193  0.1126 -0.1566
 3583DOPC   NC342038  29.269  31.343  12.218 -0.0011  0.0645  0.0304
 3583DOPC   PO442039  29.084  31.094  11.951  0.3773 -0.0318 -0.0082
 3583DOPC   GL142040  29.081  30.895  12.381  0.1435 -0.2153 -0.1579
 3583DOPC   GL242041  29.363  30.822  12.272 -0.0552  0.2117  0.0375
 3583DOPC   C1A42042  29.161  30.515  12.622  0.0244 -0.0372  0.2742
 3583DOPC   D2A42043  29.299  30.098  12.775  0.2214  0.0035  0.1937
 3583DOPC   C3A42044  29.100  29.724  12.896  0.0174 -0.0758 -0.2635
 3583DOPC   C4A42045  28.975  29.283  12.765  0.1874  0.0636 -0.1809
 3583DOPC   C1B42046  29.331  30.978  12.728 -0.3925 -0.2109 -0.0269
 3583DOPC   D2B42047  29.408  30.829  13.154 -0.3651  0.0353  0.2678
 3583DOPC   C3B42048  29.673  30.885  13.513 -0.0359 -0.0725 -0.0719
 3583DOPC   C4B42049  29.747  31.092  13.908  0.0592 -0.0700 -0.1389
 3584DOPE   NH342050  32.414   1.493  11.061 -0.0733  0.0896  0.0979
 3584DOPE   PO442051  32.513   1.509  10.732 -0.0529 -0.1740 -0.0215
 3584DOPE   GL142052  32.752   1.860  10.801 -0.1509  0.2964 -0.0697
 3584DOPE   GL242053  32.793   1.827  11.073 -0.0490 -0.1232 -0.2511
 3584DOPE   C1A42054  33.057   2.227  10.935 -0.0167  0.0449  0.0807
 3584DOPE   D2A42055  32.888   2.568  11.198  0.1027 -0.0089 -0.1090
 3584DOPE   C3A42056  33.069   2.731  11.549 -0.3178  0.0946  0.0086
 3584DOPE   C4A42057  32.994   2.652  12.007  0.1094  0.1749  0.4647
 3584DOPE   C1B42058  32.748   1.748  11.494  0.1769 -0.0320 -0.2820
 3584DOPE   D2B42059  32.409   1.861  11.770  0.0501 -0.2234  0.2425
 3584DOPE   C3B42060  32.454   1.962  12.265  0.2043  0.5147  0.2056
 3584DOPE   C4B42061  32.516   2.401  12.414  0.1333  0.1934 -0.1186
 3585POSM   NC342062  33.126  32.890  11.473 -0.1001  0.0898 -0.0995
 3585POSM   PO442063  32.844  32.586  11.353  0.1296  0.3136 -0.0312
 3585POSM   AM142064  32.928  32.529  11.687 -0.3819 -0.0986  0.2643
 3585POSM   AM242065  32.997  32.236  11.755  0.1269  0.1269 -0.2121
 3585POSM   T1A42066  32.948  32.757  12.125  0.0762 -0.1804 -0.3077
 3585POSM   C2A42067  32.754  32.711  12.555  0.0277  0.0762  0.0517
 3585POSM   C3A42068  32.549  32.686  12.990  0.0682 -0.1979 -0.0019
 3585POSM   C1B42069  32.800  32.270  12.038  0.3204 -0.1206  0.0144
 3585POSM   D2B42070  32.506  32.226  12.384 -0.2030  0.0010 -0.3382
 3585POSM   C3B42071  32.652  32.245  12.811  0.2129  0.0009 -0.0372
 3585POSM   C4B42072  33.063  32.078  12.984  0.1535 -0.3478  0.4817
 3586DOPE   NH342073  28.637  29.628  12.130  0.0571 -0.2798  0.2104
 3586DOPE   PO442074  28.428  29.395  12.134  0.0759 -0.1941 -0.3043
 3586DOPE   GL142075  28.405  29.413  12.559  0.2436 -0.0845 -0.1375
 3586DOPE   GL242076  28.619  29.581  12.655  0.0224 -0.0686  0.0136
 3586DOPE   C1A42077  28.488  29.284  13.021  0.3025 -0.2342  0.3752
 3586DOPE   D2A42078  28.536  29.418  13.444  0.2435  0.1976 -0.0537
 3586DOPE   C3A42079  28.416  29.782  13.688  0.1813  0.0273  0.1231
 3586DOPE   C4A42080  28.162  30.161  13.808 -0.1284  0.1882 -0.0387
 3586DOPE   C1B42081  28.432  29.864  13.011 -0.0935  0.0011  0.1563
 3586DOPE   D2B42082  28.158  30.209  13.203  0.0407  0.2737 -0.0334
 3586DOPE   C3B42083  28.132  30.550  13.546 -0.3307 -0.1410  0.1706
 3586DOPE   C4B42084  27.902  30.959  13.502 -0.1144 -0.1205 -0.2124
 3587DOPC   NC342085  30.893  30.213  12.070 -0.0422  0.1193  0.0365
 3587DOPC   PO442086  30.576  30.234  11.807  0.1313  0.0760 -0.0183
 3587DOPC   GL142087  30.432  30.296  12.170 -0.0217  0.0505  0.1349
 3587DOPC   GL242088  30.531  30.543  12.247  0.0227 -0.1789  0.0393
 3587DOPC   C1A42089  30.513  30.066  12.543 -0.0729  0.0908  0.0426
 3587DOPC   D2A42090  30.647  30.164  12.990  0.2680 -0.0924  0.3511
 3587DOPC   C3A42091  30.961  29.928  13.111 -0.0115 -0.2462  0.2920
 3587DOPC   C4A42092  31.147  29.539  13.346  0.1007  0.0326 -0.1483
 3587DOPC   C1B42093  30.789  30.495  12.640  0.1722  0.0141 -0.1652
 3587DOPC   D2B42094  31.114  30.430  12.953  0.0730 -0.0428  0.0658
 3587DOPC   C3B42095  31.168  30.629  13.328  0.2411 -0.1183 -0.1864
 3587DOPC   C4B42096  31.491  30.926  13.464 -0.0784 -0.1193  0.0032
 3588DOPS   CNO42097  26.113  25.991  11.913 -0.0987 -0.0905 -0.0092
 3588DOPS   PO442098  25.721  26.006  11.900  0.0603 -0.0542 -0.0808
 3588DOPS   GL142099  25.610  25.834  12.195  0.1814  0.0161 -0.0141
 3588DOPS   GL242100  25.850  25.704  12.255  0.0547 -0.1048  0.2553
 3588DOPS   C1A42101  25.612  25.849  12.681  0.2401 -0.0577  0.2397
 3588DOPS   D2A42102  25.530  25.897  13.170 -0.1347 -0.2905 -0.5270
 3588DOPS   C3A42103  25.915  25.747  13.335  0.2884  0.1110 -0.2673
 3588DOPS   C4A42104  26.363  25.863  13.141  0.0308  0.0092  0.1233
 3588DOPS   C1B42105  26.219  25.707  12.529  0.0921  0.1210 -0.1603
 3588DOPS   D2B42106  26.562  25.527  12.688 -0.0524  0.0341  0.1268
 3588DOPS   C3B42107  26.844  25.596  13.072 -0.1656 -0.2305 -0.3165
 3588DOPS   C4B42108  27.127  25.473  13.415 -0.2761  0.1280 -0.0818
 3589DOPE   NH342109  27.563  34.597  11.905  0.1621 -0.0481 -0.1665
 3589DOPE   PO442110  27.356  34.350  11.783  0.2150  0.2939  0.2760
 3589DOPE   GL142111  27.224  34.368  12.226  0.1336  0.1459 -0.0569
 3589DOPE   GL242112  27.531  34.287  12.320  0.0063 -0.3080  0.4443
 3589DOPE   C1A42113  27.214  34.567  12.636  0.1559 -0.0366 -0.2328
 3589DOPE   D2A42114  27.160  34.438  13.015  0.0961  0.0646 -0.1299
 3589DOPE   C3A42115  27.350  34.046  13.175  0.1626  0.0522 -0.1068
 3589DOPE   C4A42116  27.412  33.645  12.959  0.2409  0.0377 -0.0984
 3589DOPE   C1B42117  27.594  34.288  12.763 -0.1402  0.0829 -0.0612
 3589DOPE   D2B42118  27.976  34.217  13.004 -0.2098 -0.1375 -0.3893
 3589DOPE   C3B42119  28.267  34.003  12.725 -0.0477  0.5722  0.3931
 3589DOPE   C4B42120  28.747  33.980  12.800  0.0401  0.1410 -0.0179
 3590DOPE   NH342121  27.584  29.411  11.908 -0.1175  0.0365 -0.1701
 3590DOPE   PO442122  27.531  29.149  12.047 -0.0421  0.0587 -0.0790
 3590DOPE   GL142123  27.626  29.163  12.505  0.0670 -0.3836 -0.2287
 3590DOPE   GL242124  27.341  29.158  12.537  0.2236  0.0376 -0.0542
 3590DOPE   C1A42125  27.736  29.185  12.995 -0.1360  0.2332 -0.2432
 3590DOPE   D2A42126  28.093  29.081  13.248  0.1712 -0.2704  0.2221
 3590DOPE   C3A42127  28.145  28.911  13.683  0.2353 -0.2000  0.0107
 3590DOPE   C4A42128  28.356  28.603  13.939 -0.2215 -0.3904 -0.2288
 3590DOPE   C1B42129  27.276  29.093  13.029  0.0261  0.0301 -0.0011
 3590DOPE   D2B42130  27.353  29.063  13.496  0.1352  0.1232 -0.1635
 3590DOPE   C3B42131  27.035  28.805  13.723 -0.0352 -0.0936  0.1112
 3590DOPE   C4B42132  26.652  28.519  13.831  0.0419  0.1088  0.1012
 3591DOPS   CNO42133  34.038  33.581  10.690 -0.1547 -0.3494  0.2248
 3591DOPS   PO442134  34.177  33.258  10.840 -0.0932  0.1769 -0.2929
 3591DOPS   GL142135  34.252  33.377  11.177 -0.3174  0.0816  0.1252
 3591DOPS   GL242136  34.134  33.103  11.351  0.0455 -0.2211 -0.0663
 3591DOPS   C1A42137  34.228  33.645  11.571 -0.3876  0.2405  0.1637
 3591DOPS   D2A42138  33.998  34.006  11.721 -0.1438 -0.0270  0.4769
 3591DOPS   C3A42139  33.749  34.111  12.069  0.2099 -0.1696 -0.0456
 3591DOPS   C4A42140  33.834  34.306  12.508  0.1141  0.1475 -0.0827
 3591DOPS   C1B42141  33.802  33.207  11.658  0.2952 -0.0048 -0.0262
 3591DOPS   D2B42142  33.374  33.254  11.874  0.0356 -0.0387 -0.0847
 3591DOPS   C3B42143  33.279  33.080  12.333  0.1594  0.1339 -0.2928
 3591DOPS   C4B42144  33.090  33.051  12.738 -0.3845 -0.2679 -0.1247
 3592DOPE   NH342145  34.671  26.416  10.455 -0.0394 -0.0646  0.0114
 3592DOPE   PO442146  34.535  26.430  10.709  0.4291 -0.4182  0.0624
 3592DOPE   GL142147  34.585  26.469  11.121  0.0212  0.2759  0.3128
 3592DOPE   GL242148  34.566  26.163  11.173  0.1874 -0.1399 -0.1096
 3592DOPE   C1A42149  34.886  26.607  11.416 -0.3673  0.2028 -0.0105
 3592DOPE   D2A42150  35.259  26.878  11.372 -0.0611  0.1966  0.0984
 3592DOPE   C3A42151  35.466  26.877  11.805 -0.0065  0.2164 -0.3940
 3592DOPE   C4A42152  35.440  26.885  12.265 -0.1948 -0.0370  0.0693
 3592DOPE   C1B42153  34.273  26.339  11.451  0.1355 -0.0825 -0.1408
 3592DOPE   D2B42154  34.015  26.574  11.746 -0.0029 -0.1138 -0.2275
 3592DOPE   C3B42155  33.927  26.358  12.136 -0.2540 -0.3267 -0.1437
 3592DOPE   C4B42156  33.920  26.434  12.622 -0.1281  0.2822  0.0758
 3593DOPS   CNO42157  28.068  28.116  11.733 -0.0526  0.1650  0.0189
 3593DOPS   PO442158  27.869  28.129  12.036  0.0324  0.0887  0.1823
 3593DOPS   GL142159  28.039  27.950  12.337 -0.0970  0.1322 -0.0402
 3593DOPS   GL242160  28.279  28.054  12.375  0.2990  0.0441  0.0813
 3593DOPS   C1A42161  27.665  27.804  12.578  0.1095  0.0366 -0.0981
 3593DOPS   D2A42162  27.379  27.734  12.910 -0.0777 -0.2349 -0.0223
 3593DOPS   C3A42163  27.311  27.774  13.342  0.1481  0.0066 -0.0121
 3593DOPS   C4A42164  27.437  27.559  13.763  0.0367  0.0285 -0.1848
 3593DOPS   C1B42165  28.153  27.891  12.814 -0.0354  0.0237  0.1233
 3593DOPS   D2B42166  28.355  27.626  13.084 -0.2461 -0.2224 -0.2674
 3593DOPS   C3B42167  28.250  27.719  13.518 -0.2345 -0.2563  0.3217
 3593DOPS   C4B42168  27.919  27.751  13.858 -0.0210 -0.0225 -0.2456
 3594DOPS   CNO42169  33.243  22.586  10.554  0.1550  0.1683 -0.2318
 3594DOPS   PO442170  33.505  22.634  10.806  0.1674  0.0677  0.2138
 3594DOPS   GL142171  33.675  22.764  11.256  0.3836  0.0766  0.0755
 3594DOPS   GL242172  33.930  22.796  11.177  0.2092  0.0179 -0.4518
 3594DOPS   C1A42173  33.781  22.954  11.667  0.0704 -0.0657  0.0633
 3594DOPS   D2A42174  33.656  22.717  12.127  0.0052 -0.2763  0.0586
 3594DOPS   C3A42175  33.442  22.842  12.472  0.3016 -0.0666  0.0074
 3594DOPS   C4A42176  33.165  22.804  12.824  0.0209  0.3580 -0.2089
 3594DOPS   C1B42177  33.934  22.467  11.503 -0.0674 -0.3702 -0.2595
 3594DOPS   D2B42178  33.733  22.250  11.883 -0.1933  0.3274 -0.0125
 3594DOPS   C3B42179  34.014  22.361  12.264 -0.0143 -0.0056 -0.0827
 3594DOPS   C4B42180  34.003  22.202  12.672 -0.0632 -0.1260  0.0398
 3595DOPC   NC342181  26.658  27.349  11.768 -0.1622 -0.1074 -0.0622
 3595DOPC   PO442182  26.750  27.006  11.608 -0.0171 -0.1111 -0.0188
 3595DOPC   GL142183  26.664  26.902  11.997 -0.0280 -0.1416 -0.0838
 3595DOPC   GL242184  26.388  26.958  12.123 -0.0650 -0.0043 -0.2328
 3595DOPC   C1A42185  26.844  26.684  12.408 -0.1719 -0.1466 -0.0960
 3595DOPC   D2A42186  27.063  26.620  12.842 -0.1054  0.1392 -0.2004
 3595DOPC   C3A42187  27.224  26.321  13.115  0.0173 -0.0342 -0.2577
 3595DOPC   C4A42188  27.167  25.959  13.470 -0.2495  0.1804  0.2895
 3595DOPC   C1B42189  26.459  26.954  12.530 -0.0118  0.0794  0.3357
 3595DOPC   D2B42190  26.572  26.922  12.976 -0.1232  0.3291  0.1139
 3595DOPC   C3B42191  26.457  26.624  13.329  0.1120 -0.0479  0.0054
 3595DOPC   C4B42192  26.511  26.363  13.720  0.1664  0.1320  0.0154
 3596DOPC   NC342193  34.213  29.879  11.001  0.3260 -0.0374  0.0737
 3596DOPC   PO442194  34.079  29.586  11.234 -0.2389 -0.0074  0.1677
 3596DOPC   GL142195  34.359  29.437  11.471  0.0528  0.0685 -0.1823
 3596DOPC   GL242196  34.520  29.192  11.337 -0.3413  0.0945  0.1699
 3596DOPC   C1A42197  34.500  29.715  11.827  0.0701 -0.1721  0.0398
 3596DOPC   D2A42198  34.320  29.684  12.260  0.2274  0.2063  0.0950
 3596DOPC   C3A42199  34.294  29.430  12.702 -0.4174  0.0506 -0.0347
 3596DOPC   C4A42200  34.180  28.986  12.775  0.1818 -0.0754 -0.4508
 3596DOPC   C1B42201  34.826  29.405  11.631 -0.1868  0.1719  0.0450
 3596DOPC   D2B42202  35.251  29.394  11.828  0.0302  0.1626  0.4143
 3596DOPC   C3B42203  35.211  29.217  12.214 -0.0872  0.0111  0.0601
 3596DOPC   C4B42204  35.308  28.765  12.329  0.2372  0.1677 -0.3175
 3597DOPE   NH342205  28.815  31.291  11.611 -0.0065  0.3216  0.2602
 3597DOPE   PO442206  28.550  31.260  11.774  0.1742  0.0638 -0.1742
 3597DOPE   GL142207  28.567  31.456  12.113 -0.0578 -0.0742  0.2306
 3597DOPE   GL242208  28.718  31.194  12.315 -0.0121  0.3452 -0.1746
 3597DOPE   C1A42209  28.878  31.733  12.314 -0.1242  0.4119  0.0237
 3597DOPE   D2A42210  29.330  31.748  12.460 -0.2552  0.1837  0.1325
 3597DOPE   C3A42211  29.402  31.590  12.886 -0.1645 -0.1018 -0.2748
 3597DOPE   C4A42212  29.653  31.277  13.102 -0.0261 -0.2108  0.0961
 3597DOPE   C1B42213  29.024  31.403  12.635  0.0663  0.1420 -0.1577
 3597DOPE   D2B42214  28.986  31.808  12.845 -0.3262 -0.2898 -0.2854
 3597DOPE   C3B42215  28.578  31.859  13.113  0.0786 -0.2394  0.4509
 3597DOPE   C4B42216  28.604  32.164  13.416  0.1663  0.1475  0.1495
 3598DOPC   NC342217  33.821  33.488  11.124 -0.0640  0.2185 -0.0091
 3598DOPC   PO442218  33.550  33.622  10.891  0.2733  0.1004 -0.1060
 3598DOPC   GL142219  33.445  33.906  11.164  0.3015 -0.0583 -0.3572
 3598DOPC   GL242220  33.569  34.159  11.253 -0.0851  0.2880 -0.0316
 3598DOPC   C1A42221  33.607  33.680  11.570  0.2594  0.0383  0.1645
 3598DOPC   D2A42222  33.766  33.595  11.978  0.2783  0.1632  0.1852
 3598DOPC   C3A42223  33.810  33.700  12.420  0.1710 -0.1426 -0.1065
 3598DOPC   C4A42224  34.058  33.918  12.756 -0.0312 -0.1371  0.2777
 3598DOPC   C1B42225  33.451  34.206  11.654  0.0022 -0.1760  0.2542
 3598DOPC   D2B42226  33.299  34.274  12.088 -0.0395  0.4067 -0.0198
 3598DOPC   C3B42227  33.376  34.119  12.537 -0.1437 -0.0998  0.3172
 3598DOPC   C4B42228  33.535  33.888  12.891  0.0080 -0.0875  0.2881
 3599POSM   NC342229  29.588  27.972  11.383 -0.2980  0.0172 -0.3044
 3599POSM   PO442230  29.332  27.776  11.576 -0.1352 -0.0158  0.2424
 3599POSM   AM142231  29.371  27.569  11.819  0.2015  0.0765  0.3185
 3599POSM   AM242232  29.389  27.631  12.105 -0.0867  0.2535  0.1469
 3599POSM   T1A42233  29.191  27.215  12.129 -0.1527  0.1463 -0.1044
 3599POSM   C2A42234  28.970  27.133  12.516  0.3412  0.1253  0.1345
 3599POSM   C3A42235  29.110  26.851  12.830 -0.0124 -0.3469  0.1170
 3599POSM   C1B42236  29.577  27.645  12.405  0.0223  0.1383 -0.0613
 3599POSM   D2B42237  29.869  27.825  12.707 -0.0634  0.1823  0.0084
 3599POSM   C3B42238  30.012  27.587  13.119 -0.0250 -0.0218  0.1086
 3599POSM   C4B42239  30.010  27.121  13.246 -0.1774 -0.2434  0.1645
 3600DOPC   NC342240  26.513   1.147  11.627  0.0513  0.0386  0.4506
 3600DOPC   PO442241  26.098   1.078  11.507  0.2327  0.0720  0.0313
 3600DOPC   GL142242  26.160   0.889  11.866  0.1926  0.0722  0.0376
 3600DOPC   GL242243  25.995   1.110  12.048  0.1421 -0.3156  0.1728
 3600DOPC   C1A42244  26.065   0.690  12.262  0.0595  0.1446 -0.1309
 3600DOPC   D2A42245  25.819   0.370  12.451 -0.3306 -0.0358  0.0495
 3600DOPC   C3A42246  25.730   0.673  12.773 -0.5884 -0.2390  0.2301
 3600DOPC   C4A42247  25.544   0.703  13.215  0.0017 -0.0231 -0.2327
 3600DOPC   C1B42248  25.599   0.775  12.161  0.1559 -0.1509 -0.1101
 3600DOPC   D2B42249  25.290   0.836  12.498 -0.0212 -0.1805  0.0366
 3600DOPC   C3B42250  25.397   1.124  12.878  0.0194 -0.0252 -0.1260
 3600DOPC   C4B42251  25.346   1.404  13.234  0.1911  0.1541 -0.3511
 3601DOPC   NC342252  29.231   0.107  11.917  0.2231 -0.1430 -0.0531
 3601DOPC   PO442253  28.960  -0.098  11.724 -0.1433  0.3119 -0.2123
 3601DOPC   GL142254  28.742   0.091  12.002 -0.0563  0.2187  0.0118
 3601DOPC   GL242255  28.862   0.290  12.145  0.1006  0.1543  0.2083
 3601DOPC   C1A42256  28.521   0.087  12.417 -0.1790  0.0870  0.1745
 3601DOPC   D2A42257  28.579   0.327  12.813 -0.3814  0.1151  0.0494
 3601DOPC   C3A42258  28.372   0.122  13.174 -0.3139 -0.0121  0.0831
 3601DOPC   C4A42259  28.265  -0.203  13.429  0.1367 -0.3180 -0.0305
 3601DOPC   C1B42260  28.952   0.531  12.518 -0.1532  0.2890  0.0197
 3601DOPC   D2B42261  28.993   0.601  12.994  0.2777  0.1591  0.1268
 3601DOPC   C3B42262  28.740   0.539  13.377  0.0224  0.2153 -0.0758
 3601DOPC   C4B42263  28.550   0.266  13.690  0.2856  0.0132  0.2737
 3602DOPE   NH342264  25.952   1.841  11.268 -0.0886  0.0998 -0.0452
 3602DOPE   PO442265  25.891   1.519  11.317  0.4465  0.0730 -0.1234
 3602DOPE   GL142266  25.818   1.744  11.679  0.3307 -0.0750  0.0397
 3602DOPE   GL242267  25.853   2.001  11.740  0.1637 -0.1455  0.2605
 3602DOPE   C1A42268  25.795   1.737  12.181 -0.0944 -0.2418 -0.2005
 3602DOPE   D2A42269  25.851   1.825  12.630 -0.1626 -0.1558  0.1168
 3602DOPE   C3A42270  25.706   1.597  12.995 -0.3817 -0.1441  0.1099
 3602DOPE   C4A42271  25.781   1.148  13.182  0.2293  0.3050  0.1632
 3602DOPE   C1B42272  26.232   1.920  12.047  0.0090 -0.1992  0.0601
 3602DOPE   D2B42273  26.335   1.948  12.495 -0.0325  0.1551 -0.1422
 3602DOPE   C3B42274  26.798   1.772  12.401  0.0511  0.2631  0.0088
 3602DOPE   C4B42275  26.965   1.368  12.251  0.2049 -0.1988  0.0916
 3603DOPE   NH342276  23.570   0.539  11.282  0.0813 -0.2627 -0.0395
 3603DOPE   PO442277  23.766   0.720  11.494 -0.1886 -0.2178 -0.1484
 3603DOPE   GL142278  23.555   0.795  11.873  0.5589  0.1173  0.1407
 3603DOPE   GL242279  23.355   0.570  11.899 -0.3103 -0.3628  0.1004
 3603DOPE   C1A42280  23.655   1.183  12.114  0.1240 -0.1137  0.0538
 3603DOPE   D2A42281  23.784   1.588  12.210  0.1259  0.0887 -0.0424
 3603DOPE   C3A42282  23.600   1.763  12.588  0.0366  0.0507  0.1159
 3603DOPE   C4A42283  23.578   1.731  13.078 -0.1297 -0.0594 -0.2182
 3603DOPE   C1B42284  23.290   0.264  12.174 -0.1242 -0.2370 -0.0581
 3603DOPE   D2B42285  23.069  -0.015  12.487 -0.2404 -0.2645 -0.2068
 3603DOPE   C3B42286  22.856   0.121  12.833  0.3025 -0.1633 -0.2107
 3603DOPE   C4B42287  22.537  -0.068  13.048 -0.1489 -0.3278  0.0859
 3604DOPC   NC342288  21.015  32.181  10.804 -0.0017  0.1980 -0.1420
 3604DOPC   PO442289  21.328  32.055  10.983 -0.3750  0.0124 -0.0052
 3604DOPC   GL142290  21.306  31.925  11.389  0.3100 -0.0209 -0.3016
 3604DOPC   GL242291  21.167  31.679  11.262 -0.2317 -0.0781 -0.0664
 3604DOPC   C1A42292  21.285  31.565  11.759 -0.2154  0.0358 -0.0503
 3604DOPC   D2A42293  21.280  31.160  11.951  0.0995  0.2518 -0.5043
 3604DOPC   C3A42294  21.500  30.905  12.298 -0.0269 -0.0375 -0.4045
 3604DOPC   C4A42295  21.510  30.515  12.523  0.0658 -0.1181 -0.2257
 3604DOPC   C1B42296  20.831  31.777  11.654 -0.1500  0.2438 -0.1523
 3604DOPC   D2B42297  20.941  31.954  12.026  0.1919 -0.0713  0.0120
 3604DOPC   C3B42298  20.634  31.781  12.370 -0.2816  0.2056  0.0023
 3604DOPC   C4B42299  20.201  31.724  12.538  0.2268  0.0063 -0.0347
 3605DOPE   NH342300   0.975  29.820  10.458  0.1764 -0.2890 -0.2201
 3605DOPE   PO442301   0.643  29.775  10.457  0.0130  0.0738 -0.0426
 3605DOPE   GL142302   0.750  29.753  10.849  0.0749  0.0991  0.0885
 3605DOPE   GL242303   0.685  29.938  10.985  0.2710  0.0931 -0.1173
 3605DOPE   C1A42304   0.845  29.544  11.260 -0.1961 -0.0045 -0.0055
 3605DOPE   D2A42305   1.129  29.603  11.582  0.1024  0.0083 -0.3295
 3605DOPE   C3A42306   1.043  29.402  11.972 -0.2177 -0.0048  0.1204
 3605DOPE   C4A42307   0.918  29.106  12.264  0.0684 -0.0028  0.0355
 3605DOPE   C1B42308   0.749  30.050  11.452 -0.2358  0.0875 -0.3630
 3605DOPE   D2B42309   0.767  29.826  11.873 -0.1285  0.4919 -0.0973
 3605DOPE   C3B42310   0.738  29.619  12.306  0.0076 -0.0353 -0.1707
 3605DOPE   C4B42311   0.764  29.309  12.705  0.1557  0.1051 -0.1094
 3606DOPS   CNO42312  27.182  32.296  11.721  0.0753  0.2074  0.1071
 3606DOPS   PO442313  27.526  32.201  11.565 -0.0872 -0.2084  0.0264
 3606DOPS   GL142314  27.608  32.244  11.989 -0.0630  0.2736 -0.0094
 3606DOPS   GL242315  27.830  32.071  12.029 -0.3794 -0.3306  0.1420
 3606DOPS   C1A42316  27.559  32.213  12.461 -0.0305  0.0059 -0.1825
 3606DOPS   D2A42317  27.760  32.371  12.817  0.0756 -0.5444 -0.1726
 3606DOPS   C3A42318  27.870  31.988  13.092  0.1413 -0.2064  0.0537
 3606DOPS   C4A42319  28.152  31.926  13.470 -0.0659 -0.1405 -0.1269
 3606DOPS   C1B42320  28.104  32.279  12.285  0.5922 -0.1968 -0.0982
 3606DOPS   D2B42321  28.265  32.173  12.714 -0.0949  0.1766  0.1567
 3606DOPS   C3B42322  28.195  32.467  13.106 -0.0749 -0.1146 -0.0432
 3606DOPS   C4B42323  27.953  32.748  13.339  0.3147  0.0718  0.2741
 3607DOPC   NC342324  27.758   0.773  11.427  0.0658 -0.0248 -0.3945
 3607DOPC   PO442325  27.538   1.095  11.340  0.1838  0.1568 -0.1848
 3607DOPC   GL142326  27.619   1.104  11.785  0.1723 -0.2833 -0.4020
 3607DOPC   GL242327  27.451   0.852  11.834  0.0973  0.1301 -0.0136
 3607DOPC   C1A42328  27.479   1.244  12.230  0.2830  0.1068  0.0102
 3607DOPC   D2A42329  27.308   1.592  12.484  0.1945  0.2145 -0.3880
 3607DOPC   C3A42330  26.988   1.458  12.851 -0.0150 -0.1855  0.0374
 3607DOPC   C4A42331  26.613   1.510  13.123 -0.1574  0.1431 -0.2107
 3607DOPC   C1B42332  27.681   0.793  12.270  0.0772  0.1344  0.1578
 3607DOPC   D2B42333  27.725   0.656  12.707  0.1721  0.3536  0.2617
 3607DOPC   C3B42334  27.522   1.019  12.826 -0.0618 -0.0600  0.3609
 3607DOPC   C4B42335  27.518   1.486  12.920 -0.1473 -0.1985 -0.0763
 3608POSM   NC342336  34.130  30.761  11.170 -0.1378 -0.0604 -0.2065
 3608POSM   PO442337  33.765  30.823  11.228  0.3635 -0.0231  0.0531
 3608POSM   AM142338  33.657  30.887  11.513  0.0447 -0.5752  0.1643
 3608POSM   AM242339  33.466  31.062  11.609 -0.2394 -0.0675  0.2023
 3608POSM   T1A42340  33.570  30.746  12.003  0.0846 -0.0762  0.3748
 3608POSM   C2A42341  33.253  30.690  12.380  0.1244 -0.2340  0.2501
 3608POSM   C3A42342  33.193  30.656  12.864 -0.0070  0.0063 -0.2365
 3608POSM   C1B42343  33.176  30.908  11.700  0.0815 -0.1880  0.2400
 3608POSM   D2B42344  32.836  30.643  11.872 -0.5791 -0.1224 -0.0107
 3608POSM   C3B42345  32.769  30.922  12.202 -0.1671 -0.3788 -0.1763
 3608POSM   C4B42346  32.604  31.308  12.437  0.3244  0.2848 -0.1719
 3609DOPC   NC342347  22.565  30.425  10.939  0.1995  0.2356 -0.1119
 3609DOPC   PO442348  22.839  30.151  10.998 -0.3071  0.0091  0.0499
 3609DOPC   GL142349  22.846  29.877  11.352 -0.0006  0.3989 -0.2567
 3609DOPC   GL242350  22.606  30.072  11.468  0.2112 -0.0625  0.3437
 3609DOPC   C1A42351  22.993  30.009  11.752 -0.0654 -0.3254 -0.0817
 3609DOPC   D2A42352  23.144  30.352  11.991 -0.0728  0.1173  0.0765
 3609DOPC   C3A42353  22.879  30.523  12.365  0.0553  0.1257  0.1612
 3609DOPC   C4A42354  22.466  30.645  12.471 -0.0997 -0.0190  0.2387
 3609DOPC   C1B42355  22.352  29.665  11.533  0.1118  0.0132 -0.1787
 3609DOPC   D2B42356  22.156  29.246  11.545 -0.1306  0.0889  0.0077
 3609DOPC   C3B42357  21.772  29.237  11.894 -0.0333 -0.0280 -0.1051
 3609DOPC   C4B42358  21.440  29.439  12.133 -0.1662  0.0103  0.1052
 3610POSM   NC342359  27.565  34.671  11.332 -0.1555 -0.3092  0.3601
 3610POSM   PO442360  27.541  35.016  11.524 -0.1763 -0.4671 -0.0739
 3610POSM   AM142361  27.476  35.163  11.822  0.1986  0.3426 -0.0004
 3610POSM   AM242362  27.591  35.072  12.053 -0.1679  0.2322 -0.2248
 3610POSM   T1A42363  27.222  35.363  12.237  0.2544 -0.0911 -0.3299
 3610POSM   C2A42364  27.097  35.713  12.436  0.0206  0.0708 -0.0200
 3610POSM   C3A42365  26.707  35.827  12.698 -0.1352  0.1293 -0.0247
 3610POSM   C1B42366  27.542  34.914  12.385  0.0397 -0.0654 -0.0184
 3610POSM   D2B42367  27.454  34.978  12.858  0.2891 -0.0492  0.1035
 3610POSM   C3B42368  27.698  35.176  13.192  0.0347 -0.1620 -0.0100
 3610POSM   C4B42369  27.810  35.574  13.309 -0.0221  0.1202  0.0012
 3611DOPE   NH342370  24.119  32.433  11.407 -0.0000 -0.1786  0.0815
 3611DOPE   PO442371  23.960  32.244  11.643 -0.0408  0.0782 -0.1768
 3611DOPE   GL142372  23.765  32.414  11.896 -0.1129 -0.1678  0.2319
 3611DOPE   GL242373  24.005  32.648  11.927  0.0782  0.0409 -0.3830
 3611DOPE   C1A42374  23.915  32.138  12.320 -0.1606 -0.1723  0.0013
 3611DOPE   D2A42375  23.889  31.811  12.620  0.0800 -0.4709 -0.1602
 3611DOPE   C3A42376  24.031  31.373  12.573  0.0677  0.0610 -0.2700
 3611DOPE   C4A42377  24.015  31.052  12.901  0.1029  0.1115 -0.1615
 3611DOPE   C1B42378  23.967  32.643  12.397 -0.2884  0.2542  0.0322
 3611DOPE   D2B42379  23.957  32.402  12.811 -0.0220 -0.0914  0.5857
 3611DOPE   C3B42380  24.089  32.445  13.256  0.0582 -0.1106 -0.0231
 3611DOPE   C4B42381  24.156  32.098  13.576  0.1587 -0.0203 -0.2477
 3612DOPE   NH342382  32.537  31.370  11.732  0.2211 -0.1186  0.1167
 3612DOPE   PO442383  32.722  31.517  11.551  0.1789  0.2666 -0.1771
 3612DOPE   GL142384  32.987  31.620  11.849 -0.1806 -0.0182 -0.0658
 3612DOPE   GL242385  32.877  31.453  12.050 -0.1034  0.2873 -0.0351
 3612DOPE   C1A42386  33.059  31.875  12.186  0.1006 -0.2759  0.0329
 3612DOPE   D2A42387  33.028  32.237  12.505 -0.0505 -0.2074  0.5620
 3612DOPE   C3A42388  33.282  32.625  12.462 -0.3453  0.0059 -0.1522
 3612DOPE   C4A42389  33.625  32.964  12.605 -0.0581 -0.3208  0.1267
 3612DOPE   C1B42390  33.228  31.205  12.154  0.0186  0.0978 -0.0196
 3612DOPE   D2B42391  33.579  31.261  12.462  0.0484 -0.1158  0.0252
 3612DOPE   C3B42392  33.496  31.379  12.875  0.0931 -0.0999  0.2741
 3612DOPE   C4B42393  33.422  31.753  13.129  0.0728 -0.1297  0.3395
 3613DOPS   CNO42394  28.540  22.616  11.141  0.1689  0.3527  0.2114
 3613DOPS   PO442395  28.710  22.529  11.438  0.1071  0.0274 -0.0433
 3613DOPS   GL142396  28.607  22.507  11.771  0.1442 -0.4999 -0.0660
 3613DOPS   GL242397  28.603  22.680  12.034  0.1483 -0.2576  0.2943
 3613DOPS   C1A42398  28.334  22.286  12.078 -0.4062  0.0986  0.0197
 3613DOPS   D2A42399  28.129  22.054  12.417  0.0214 -0.2297 -0.1400
 3613DOPS   C3A42400  28.321  21.839  12.769 -0.1886  0.2422 -0.0880
 3613DOPS   C4A42401  28.185  21.743  13.169  0.1119 -0.1195 -0.1309
 3613DOPS   C1B42402  28.572  22.584  12.448 -0.1308 -0.1929 -0.0076
 3613DOPS   D2B42403  28.541  22.281  12.764  0.2643  0.1710 -0.2881
 3613DOPS   C3B42404  28.258  22.310  13.126 -0.3149  0.1615  0.0851
 3613DOPS   C4B42405  28.093  22.203  13.485  0.1370 -0.1344 -0.0958
 3614DOPE   NH342406  25.041  25.413  11.125 -0.0742 -0.0379 -0.3343
 3614DOPE   PO442407  25.271  25.439  11.366 -0.0945 -0.3399  0.0367
 3614DOPE   GL142408  25.006  25.466  11.646  0.3718 -0.2507  0.1218
 3614DOPE   GL242409  24.755  25.612  11.540  0.1905  0.0957 -0.0046
 3614DOPE   C1A42410  25.049  25.288  12.117 -0.2126  0.2199  0.0333
 3614DOPE   D2A42411  25.343  25.513  12.431  0.1384 -0.2568  0.1442
 3614DOPE   C3A42412  25.737  25.314  12.557  0.0790 -0.6491 -0.2178
 3614DOPE   C4A42413  25.949  24.878  12.685 -0.0564 -0.0688  0.1520
 3614DOPE   C1B42414  24.573  25.316  11.858  0.0208  0.1530  0.0678
 3614DOPE   D2B42415  24.572  25.342  12.318 -0.2214  0.0940 -0.1897
 3614DOPE   C3B42416  24.525  25.684  12.601 -0.1233 -0.2010 -0.4227
 3614DOPE   C4B42417  24.612  26.019  12.930  0.0026  0.0374 -0.2321
 3615DOPE   NH342418  32.392  26.342  10.361  0.1421 -0.0643  0.0654
 3615DOPE   PO442419  32.506  26.577  10.422  0.0921  0.0990 -0.0699
 3615DOPE   GL142420  32.449  26.523  10.797 -0.2543  0.1089  0.0931
 3615DOPE   GL242421  32.282  26.819  10.878 -0.0697  0.0335  0.1151
 3615DOPE   C1A42422  32.759  26.470  11.165 -0.2709 -0.1477  0.0209
 3615DOPE   D2A42423  32.585  26.629  11.582  0.1966  0.3858  0.0615
 3615DOPE   C3A42424  32.833  26.741  12.005  0.1207  0.2576 -0.0754
 3615DOPE   C4A42425  33.233  26.794  12.222 -0.2920  0.4998  0.2906
 3615DOPE   C1B42426  32.588  26.957  11.159  0.1366  0.0958  0.1103
 3615DOPE   D2B42427  33.028  26.889  11.239 -0.1905 -0.1522  0.6582
 3615DOPE   C3B42428  33.188  27.282  11.378 -0.0923 -0.2114 -0.1632
 3615DOPE   C4B42429  33.192  27.646  11.691 -0.0449  0.3800 -0.1709
 3616POSM   NC342430  33.514   0.105  10.684 -0.0169  0.1621  0.1992
 3616POSM   PO442431  33.705  -0.283  10.641  0.1059 -0.6251  0.0507
 3616POSM   AM142432  33.857  -0.208  10.911 -0.0329 -0.1552 -0.2229
 3616POSM   AM242433  33.989  -0.056  11.126 -0.0532  0.0761  0.1152
 3616POSM   T1A42434  34.085  -0.537  11.255 -0.0119 -0.0946  0.3683
 3616POSM   C2A42435  34.470  -0.589  11.565 -0.1636 -0.0059 -0.1467
 3616POSM   C3A42436  34.831  -0.357  11.707  0.3199  0.1974 -0.0684
 3616POSM   C1B42437  34.199  -0.004  11.410  0.0683 -0.0783 -0.0877
 3616POSM   D2B42438  34.261   0.216  11.817  0.0455  0.3603 -0.2186
 3616POSM   C3B42439  33.905   0.243  12.162 -0.0345  0.0435  0.1673
 3616POSM   C4B42440  33.525   0.353  12.436  0.2215  0.2470 -0.2248
 3617DOPC   NC342441  33.666  31.281  11.179 -0.1408  0.1545 -0.0039
 3617DOPC   PO442442  33.571  31.627  11.311  0.0525 -0.1386 -0.2181
 3617DOPC   GL142443  33.879  31.572  11.591 -0.1224  0.0242 -0.0188
 3617DOPC   GL242444  34.033  31.891  11.523 -0.1334  0.0665 -0.0311
 3617DOPC   C1A42445  33.921  31.325  11.995  0.1841  0.3237  0.0427
 3617DOPC   D2A42446  34.279  31.291  12.388  0.1090  0.2125  0.0244
 3617DOPC   C3A42447  34.002  31.162  12.711  0.1191 -0.3965 -0.1099
 3617DOPC   C4A42448  33.641  30.917  12.782  0.2263 -0.1697 -0.0925
 3617DOPC   C1B42449  34.273  31.903  11.930  0.0228  0.0784 -0.0745
 3617DOPC   D2B42450  34.538  31.864  12.341  0.2260  0.0397 -0.0955
 3617DOPC   C3B42451  34.355  32.170  12.582 -0.0194  0.1426  0.0021
 3617DOPC   C4B42452  34.342  32.658  12.636  0.1578 -0.1720 -0.0857
 3618DOPC   NC342453  28.389  26.492  11.681  0.0161 -0.0694 -0.1569
 3618DOPC   PO442454  28.346  26.832  11.837 -0.1734 -0.2231  0.3407
 3618DOPC   GL142455  28.461  26.475  12.260 -0.2304 -0.0870 -0.0130
 3618DOPC   GL242456  28.259  26.255  12.282 -0.2754 -0.2422 -0.1299
 3618DOPC   C1A42457  28.364  26.420  12.751 -0.0751 -0.1126  0.3015
 3618DOPC   D2A42458  28.082  26.621  13.035  0.1266  0.0450 -0.4456
 3618DOPC   C3A42459  27.833  26.753  13.355  0.0786 -0.0350  0.2158
 3618DOPC   C4A42460  27.970  26.802  13.805  0.0824 -0.0723 -0.1103
 3618DOPC   C1B42461  27.962  26.146  12.614  0.3668  0.2815 -0.2205
 3618DOPC   D2B42462  27.911  25.819  12.939 -0.1920  0.0441 -0.1625
 3618DOPC   C3B42463  28.249  26.117  13.178 -0.0744  0.2650 -0.2098
 3618DOPC   C4B42464  28.283  26.479  13.510  0.1403 -0.0358  0.0258
 3619DOPE   NH342465  27.628  26.230  11.332 -0.0524  0.1686  0.3269
 3619DOPE   PO442466  27.931  26.133  11.408  0.0935  0.2312 -0.0504
 3619DOPE   GL142467  27.718  26.089  11.752  0.0631 -0.1758 -0.0182
 3619DOPE   GL242468  27.649  25.808  11.796 -0.0595  0.0871  0.0846
 3619DOPE   C1A42469  27.720  26.126  12.180  0.2210  0.0171 -0.0041
 3619DOPE   D2A42470  27.729  26.528  12.422  0.0538 -0.1954  0.0305
 3619DOPE   C3A42471  27.649  26.468  12.856  0.1613 -0.3011  0.3456
 3619DOPE   C4A42472  27.731  26.200  13.233  0.2130  0.2717 -0.2610
 3619DOPE   C1B42473  27.543  25.669  12.245 -0.2658  0.2913  0.3120
 3619DOPE   D2B42474  27.710  25.489  12.651 -0.3346  0.0871 -0.1989
 3619DOPE   C3B42475  27.386  25.309  12.885  0.1146 -0.1326  0.0034
 3619DOPE   C4B42476  26.927  25.248  12.755 -0.2507  0.2270 -0.2388
 3620DOPE   NH342477  29.853  27.724  11.822  0.0684  0.2274 -0.0126
 3620DOPE   PO442478  30.047  27.983  11.775 -0.2360  0.0371 -0.0967
 3620DOPE   GL142479  30.222  27.888  12.069 -0.1980 -0.1576 -0.0653
 3620DOPE   GL242480  30.323  27.615  12.016  0.1644 -0.0540  0.2003
 3620DOPE   C1A42481  30.187  28.145  12.497 -0.4342  0.2516 -0.0159
 3620DOPE   D2A42482  30.261  28.160  12.982 -0.3523 -0.2095 -0.1370
 3620DOPE   C3A42483  30.465  28.385  13.247 -0.2631 -0.0320 -0.1481
 3620DOPE   C4A42484  30.721  28.732  13.440  0.0272 -0.0348  0.2219
 3620DOPE   C1B42485  30.523  27.190  12.128  0.0237  0.0880 -0.2992
 3620DOPE   D2B42486  30.573  26.771  12.008 -0.0070 -0.1714  0.0219
 3620DOPE   C3B42487  30.583  26.378  12.297  0.1027 -0.0227 -0.0908
 3620DOPE   C4B42488  30.423  26.166  12.646  0.0184  0.0241 -0.0517
 3621POSM   NC342489  27.934  24.415  11.785  0.0326 -0.0678 -0.0999
 3621POSM   PO442490  27.699  24.587  11.505 -0.3357 -0.0388  0.1047
 3621POSM   AM142491  27.581  24.746  11.787  0.0652 -0.2863 -0.1969
 3621POSM   AM242492  27.491  24.757  12.079 -0.0786 -0.0059  0.1542
 3621POSM   T1A42493  27.631  25.252  11.944  0.1734 -0.3055 -0.1156
 3621POSM   C2A42494  27.932  25.372  12.215  0.0389  0.0676 -0.0543
 3621POSM   C3A42495  28.141  25.736  12.340 -0.2819 -0.3182  0.0266
 3621POSM   C1B42496  27.721  24.648  12.338  0.1350 -0.4201  0.1748
 3621POSM   D2B42497  27.879  24.401  12.659 -0.0579  0.2554 -0.3305
 3621POSM   C3B42498  27.783  24.567  13.094  0.0030 -0.0254  0.0864
 3621POSM   C4B42499  27.753  24.650  13.584  0.0603  0.0206  0.2155
 3622POSM   NC342500  31.325  29.177  11.316  0.2142 -0.1864  0.0321
 3622POSM   PO442501  31.128  29.543  11.394 -0.3567 -0.0751  0.0473
 3622POSM   AM142502  31.284  29.463  11.688 -0.0828  0.3703 -0.3658
 3622POSM   AM242503  31.429  29.257  11.818  0.0149 -0.2086 -0.1353
 3622POSM   T1A42504  31.342  29.600  12.185  0.1095  0.1734  0.0853
 3622POSM   C2A42505  31.255  29.582  12.637 -0.0705  0.3336 -0.1794
 3622POSM   C3A42506  31.585  29.667  12.982  0.1884  0.3437  0.0456
 3622POSM   C1B42507  31.444  29.084  12.089 -0.3281 -0.3487  0.3218
 3622POSM   D2B42508  31.476  28.808  12.399  0.0717 -0.0819 -0.0544
 3622POSM   C3B42509  31.674  28.662  12.775 -0.0176 -0.0282  0.2670
 3622POSM   C4B42510  31.764  28.462  13.205 -0.2688 -0.2042 -0.1127
 3623POSM   NC342511  25.284  32.574  11.492  0.0013  0.1218 -0.0548
 3623POSM   PO442512  24.928  32.437  11.624 -0.3727 -0.1009  0.1179
 3623POSM   AM142513  24.952  32.431  11.959 -0.3963  0.1130  0.2579
 3623POSM   AM242514  24.881  32.567  12.211 -0.0218  0.0086  0.0516
 3623POSM   T1A42515  25.281  32.254  12.348 -0.1426 -0.1483  0.1499
 3623POSM   C2A42516  25.414  32.102  12.732 -0.2234 -0.2280 -0.0017
 3623POSM   C3A42517  25.481  32.135  13.223  0.1254  0.3607  0.0729
 3623POSM   C1B42518  24.963  32.569  12.572  0.2363  0.0760  0.0544
 3623POSM   D2B42519  25.120  32.568  12.998  0.1030 -0.2042 -0.1978
 3623POSM   C3B42520  25.180  32.913  13.236 -0.5606  0.1286 -0.1521
 3623POSM   C4B42521  24.967  33.301  13.432 -0.0441 -0.4758 -0.1965
 3624POSM   NC342522  31.567  30.185  11.400 -0.4372  0.0994  0.3316
 3624POSM   PO442523  31.919  30.065  11.324  0.1730 -0.0259  0.0208
 3624POSM   AM142524  31.913  29.987  11.669  0.0713 -0.0468 -0.1510
 3624POSM   AM242525  31.743  29.908  11.908  0.3691 -0.1608  0.2123
 3624POSM   T1A42526  32.216  29.796  12.068 -0.0983 -0.0636  0.2950
 3624POSM   C2A42527  32.253  29.500  12.461  0.0161 -0.0639 -0.0064
 3624POSM   C3A42528  32.091  29.429  12.833 -0.0983  0.1199  0.0037
 3624POSM   C1B42529  31.866  30.083  12.161  0.1371 -0.2046  0.3701
 3624POSM   D2B42530  31.911  30.386  12.514 -0.1030  0.1917  0.2092
 3624POSM   C3B42531  31.958  30.186  12.928  0.0031  0.1694  0.2845
 3624POSM   C4B42532  31.996  29.896  13.251 -0.2478 -0.1793  0.1031
 3625DOPC   NC342533  26.440  30.714  11.645 -0.0222  0.1031  0.0328
 3625DOPC   PO442534  26.800  30.706  11.762 -0.0765 -0.0360  0.0276
 3625DOPC   GL142535  26.878  31.053  11.947 -0.0125  0.3372 -0.0430
 3625DOPC   GL242536  26.679  31.186  12.050  0.0064  0.0919  0.0824
 3625DOPC   C1A42537  26.782  30.944  12.427 -0.0435  0.1879 -0.1341
 3625DOPC   D2A42538  26.429  31.125  12.655 -0.0119  0.3047 -0.1257
 3625DOPC   C3A42539  26.065  31.229  12.975 -0.0263  0.1774  0.0313
 3625DOPC   C4A42540  25.854  31.318  13.370  0.0526 -0.2527  0.2167
 3625DOPC   C1B42541  26.557  31.520  12.342 -0.2192  0.3519  0.1305
 3625DOPC   D2B42542  26.481  31.596  12.794  0.2836  0.3864 -0.0334
 3625DOPC   C3B42543  26.523  31.345  13.141 -0.0477 -0.1270 -0.2249
 3625DOPC   C4B42544  26.324  31.071  13.449 -0.3436 -0.5971  0.2111
 3626DOPC   NC342545  30.088  25.981  11.862 -0.0146 -0.1102 -0.1320
 3626DOPC   PO442546  29.668  25.819  11.866  0.2237  0.0759 -0.1249
 3626DOPC   GL142547  29.605  25.898  12.209 -0.1202 -0.1154 -0.2294
 3626DOPC   GL242548  29.439  25.699  12.351 -0.2255  0.0855  0.1666
 3626DOPC   C1A42549  29.595  25.967  12.689  0.0735  0.2292  0.0116
 3626DOPC   D2A42550  29.802  26.167  13.059  0.0113 -0.0505 -0.1076
 3626DOPC   C3A42551  30.254  26.282  13.148 -0.2614 -0.2201 -0.0764
 3626DOPC   C4A42552  30.496  26.425  13.503 -0.0422 -0.0582 -0.1220
 3626DOPC   C1B42553  29.764  25.482  12.653  0.1362 -0.1096  0.3279
 3626DOPC   D2B42554  29.760  25.150  12.981 -0.0028 -0.0953  0.2091
 3626DOPC   C3B42555  30.151  24.952  12.952 -0.0603 -0.5149 -0.2335
 3626DOPC   C4B42556  30.451  24.980  13.345  0.5757 -0.2252  0.3009
 3627DOPE   NH342557  30.718  32.563  11.536 -0.2220 -0.0312  0.2000
 3627DOPE   PO442558  30.718  32.297  11.715  0.1704 -0.0192  0.1194
 3627DOPE   GL142559  30.722  32.546  11.998  0.0273 -0.1940 -0.1783
 3627DOPE   GL242560  31.051  32.603  12.043  0.0297  0.0620  0.0689
 3627DOPE   C1A42561  30.816  32.349  12.433  0.0663 -0.0799  0.0175
 3627DOPE   D2A42562  31.276  32.199  12.577  0.3023  0.0542 -0.1558
 3627DOPE   C3A42563  31.281  31.922  12.920  0.5041  0.2478  0.0640
 3627DOPE   C4A42564  31.015  31.807  13.217  0.1990 -0.0456  0.0731
 3627DOPE   C1B42565  31.345  32.686  12.431 -0.1922 -0.2603  0.1353
 3627DOPE   D2B42566  31.717  32.682  12.777 -0.0532  0.1840 -0.0517
 3627DOPE   C3B42567  31.525  32.539  13.204  0.1660  0.2757 -0.1537
 3627DOPE   C4B42568  31.663  32.385  13.648 -0.2469  0.2287  0.0766
 3628DOPC   NC342569  30.621  31.075  11.630  0.3044  0.1414  0.4404
 3628DOPC   PO442570  30.476  31.454  11.725 -0.1154 -0.0871  0.0372
 3628DOPC   GL142571  30.534  31.603  12.157 -0.1064  0.1442  0.0992
 3628DOPC   GL242572  30.645  31.876  12.236 -0.1203  0.2316 -0.0499
 3628DOPC   C1A42573  30.406  31.584  12.587  0.0744 -0.3263 -0.2068
 3628DOPC   D2A42574  30.342  31.221  12.875 -0.0132  0.2575  0.0436
 3628DOPC   C3A42575  30.486  31.153  13.300  0.1949 -0.1121  0.2086
 3628DOPC   C4A42576  30.799  30.955  13.612 -0.1999  0.0918 -0.0791
 3628DOPC   C1B42577  30.766  31.948  12.672 -0.2029 -0.0680 -0.0540
 3628DOPC   D2B42578  30.830  32.274  12.996  0.0103  0.2414 -0.0476
 3628DOPC   C3B42579  31.169  32.230  13.344 -0.0214  0.2234 -0.0586
 3628DOPC   C4B42580  31.564  31.943  13.410 -0.0100 -0.3389 -0.2322
 3629DOPC   NC342581  30.283  32.356  12.070  0.0283  0.1612 -0.3536
 3629DOPC   PO442582  30.276  32.694  11.978  0.0390 -0.1371  0.0786
 3629DOPC   GL142583  30.297  32.936  12.305  0.2978 -0.3549 -0.1122
 3629DOPC   GL242584  30.312  32.659  12.528  0.0743  0.1233  0.1070
 3629DOPC   C1A42585  30.492  33.232  12.601  0.0494  0.2521 -0.1556
 3629DOPC   D2A42586  30.956  33.309  12.729 -0.0505  0.1668 -0.0469
 3629DOPC   C3A42587  31.202  33.253  13.110 -0.1372 -0.1518  0.3214
 3629DOPC   C4A42588  31.131  33.229  13.596  0.0284 -0.0380 -0.2622
 3629DOPC   C1B42589  30.201  32.639  13.059 -0.1835  0.1639  0.0124
 3629DOPC   D2B42590  30.120  32.828  13.420 -0.0291  0.1520  0.3428
 3629DOPC   C3B42591  29.711  32.742  13.650 -0.1139  0.3067  0.4594
 3629DOPC   C4B42592  29.264  32.958  13.734 -0.0446  0.2634 -0.1861
 3630DOPS   CNO42593  32.269   0.880  10.410 -0.5406 -0.1055  0.0105
 3630DOPS   PO442594  32.103   1.036  10.718  0.0229 -0.1661 -0.0529
 3630DOPS   GL142595  32.158   0.903  11.121  0.0501 -0.1251 -0.2625
 3630DOPS   GL242596  32.301   1.098  11.309 -0.2066 -0.1333 -0.0562
 3630DOPS   C1A42597  32.165   0.609  11.505 -0.1464  0.2220 -0.1282
 3630DOPS   D2A42598  32.212   0.427  11.971 -0.2317  0.0635 -0.1831
 3630DOPS   C3A42599  32.287   0.586  12.411  0.0073  0.4762 -0.2458
 3630DOPS   C4A42600  32.483   0.304  12.746 -0.0017  0.0459  0.0811
 3630DOPS   C1B42601  32.606   0.859  11.587 -0.0490  0.0849  0.0244
 3630DOPS   D2B42602  32.664   0.560  11.932 -0.0498  0.1175 -0.2276
 3630DOPS   C3B42603  32.633   0.228  12.239  0.0047  0.1943 -0.4744
 3630DOPS   C4B42604  32.522  -0.154  12.528 -0.0813  0.1218 -0.0839
 3631POSM   NC342605   0.783  27.907   9.887 -0.1616 -0.1004  0.1697
 3631POSM   PO442606   1.150  27.936  10.074  0.1679  0.2979  0.2358
 3631POSM   AM142607   1.098  27.843  10.383 -0.0340 -0.1348  0.1078
 3631POSM   AM242608   1.157  27.624  10.561  0.0890 -0.3281 -0.0841
 3631POSM   T1A42609   0.756  27.876  10.762 -0.0029 -0.0692  0.0995
 3631POSM   C2A42610   0.414  27.739  11.018 -0.2188  0.2209 -0.2901
 3631POSM   C3A42611   0.322  27.918  11.426 -0.0762  0.3684  0.3514
 3631POSM   C1B42612   1.294  27.653  10.885 -0.1835 -0.0792  0.0580
 3631POSM   D2B42613   1.461  27.830  11.268 -0.2625  0.3283 -0.0165
 3631POSM   C3B42614   1.630  27.879  11.713 -0.3489  0.1598 -0.1151
 3631POSM   C4B42615   2.038  27.988  11.864 -0.2562  0.0068 -0.1099
 3632DOPS   CNO42616  30.950  34.146  11.063  0.0695 -0.1450  0.1714
 3632DOPS   PO442617  30.662  34.412  11.104  0.2220  0.0665 -0.0448
 3632DOPS   GL142618  31.029  34.541  11.307 -0.0160 -0.1075  0.1024
 3632DOPS   GL242619  30.823  34.495  11.551  0.0351 -0.2097 -0.0940
 3632DOPS   C1A42620  31.352  34.583  11.680  0.1237 -0.2952  0.3559
 3632DOPS   D2A42621  31.516  34.308  12.030  0.0100 -0.0541  0.0729
 3632DOPS   C3A42622  31.580  34.355  12.506  0.0484  0.3550  0.0711
 3632DOPS   C4A42623  31.589  34.451  12.986 -0.1276 -0.0906 -0.1658
 3632DOPS   C1B42624  30.905  34.577  12.000 -0.4586  0.1324 -0.0819
 3632DOPS   D2B42625  31.142  34.631  12.417 -0.0908  0.1951  0.0953
 3632DOPS   C3B42626  30.959  34.444  12.826 -0.1675  0.2695 -0.0556
 3632DOPS   C4B42627  30.762  34.542  13.235 -0.1848 -0.1120 -0.0289
 3633POSM   NC342628  26.074  31.943  11.616  0.0757 -0.1178 -0.4514
 3633POSM   PO442629  25.758  31.950  11.896 -0.1216  0.0136  0.1691
 3633POSM   AM142630  26.040  31.906  12.105 -0.1531 -0.1695  0.1360
 3633POSM   AM242631  26.305  32.030  12.140 -0.1447  0.1774 -0.0288
 3633POSM   T1A42632  26.206  31.954  12.567  0.0928  0.2188 -0.0656
 3633POSM   C2A42633  26.477  32.031  12.941 -0.1302 -0.0956  0.2997
 3633POSM   C3A42634  26.584  31.805  13.341 -0.0986  0.1544  0.2124
 3633POSM   C1B42635  26.641  32.001  12.279  0.0701  0.0435 -0.3871
 3633POSM   D2B42636  27.119  32.067  12.246  0.1550  0.0373 -0.3382
 3633POSM   C3B42637  27.376  31.681  12.355  0.0686 -0.0722 -0.1845
 3633POSM   C4B42638  27.494  31.418  12.664  0.3741 -0.0053 -0.1184
 3634DOPC   NC342639  25.136  33.956  11.682 -0.2531 -0.1819 -0.3539
 3634DOPC   PO442640  25.511  33.758  11.629  0.1472 -0.1139  0.3657
 3634DOPC   GL142641  25.555  33.934  11.951 -0.1171 -0.0294  0.0974
 3634DOPC   GL242642  25.823  33.989  12.039 -0.2374  0.1656  0.4289
 3634DOPC   C1A42643  25.567  34.298  12.319 -0.0282 -0.0077 -0.0413
 3634DOPC   D2A42644  25.362  34.232  12.704 -0.1833  0.0342  0.3592
 3634DOPC   C3A42645  25.159  33.826  12.803  0.0972 -0.0312 -0.1817
 3634DOPC   C4A42646  24.943  33.440  12.844 -0.2676  0.4145  0.3403
 3634DOPC   C1B42647  25.550  33.811  12.457 -0.2925  0.0239  0.1111
 3634DOPC   D2B42648  25.391  33.411  12.639  0.0742  0.0213  0.1068
 3634DOPC   C3B42649  25.356  33.378  13.135 -0.1301 -0.0625 -0.1456
 3634DOPC   C4B42650  25.655  33.087  13.434  0.1263 -0.2568  0.2943
 3635DOPC   NC342651  33.910  29.415  11.731 -0.1966  0.2093  0.1260
 3635DOPC   PO442652  33.644  29.478  11.468 -0.1711 -0.0643 -0.0605
 3635DOPC   GL142653  33.394  29.495  11.694  0.1255  0.2992  0.0971
 3635DOPC   GL242654  33.194  29.328  11.802  0.4790 -0.2073  0.1058
 3635DOPC   C1A42655  33.419  29.725  12.112  0.2679  0.0043 -0.0654
 3635DOPC   D2A42656  33.206  30.000  12.418 -0.2203  0.0740  0.2380
 3635DOPC   C3A42657  32.937  30.243  12.673 -0.0008  0.2033 -0.4046
 3635DOPC   C4A42658  32.812  30.316  13.126 -0.2248  0.1567 -0.1772
 3635DOPC   C1B42659  33.207  29.316  12.206  0.2966  0.1710  0.0267
 3635DOPC   D2B42660  33.314  29.525  12.626 -0.1815 -0.1436  0.0112
 3635DOPC   C3B42661  33.312  29.894  12.903  0.1516  0.1606  0.0532
 3635DOPC   C4B42662  33.292  30.235  13.122  0.0442 -0.2194  0.2730
 3636DOPC   NC342663  27.207  26.931  11.709  0.4693 -0.2908 -0.1088
 3636DOPC   PO442664  27.032  27.135  12.017  0.0548 -0.0201 -0.0090
 3636DOPC   GL142665  27.048  27.477  12.199 -0.2786 -0.1053  0.1634
 3636DOPC   GL242666  27.293  27.423  12.343  0.4362 -0.1440  0.2590
 3636DOPC   C1A42667  27.019  27.725  12.571  0.1067  0.0314  0.0900
 3636DOPC   D2A42668  26.913  27.820  13.051  0.1469 -0.4175  0.0678
 3636DOPC   C3A42669  26.568  28.003  13.189  0.1962 -0.1337 -0.0066
 3636DOPC   C4A42670  26.495  28.418  13.334  0.2232 -0.0551  0.0717
 3636DOPC   C1B42671  27.415  27.301  12.772  0.1388 -0.1558  0.0116
 3636DOPC   D2B42672  27.504  27.214  13.204 -0.0608 -0.0675 -0.0417
 3636DOPC   C3B42673  27.333  26.802  13.236 -0.4002  0.1131 -0.0303
 3636DOPC   C4B42674  26.946  26.724  13.403 -0.0072  0.2243 -0.0086
 3637POSM   NC342675  30.595  33.783  11.043  0.1499  0.0071 -0.4337
 3637POSM   PO442676  30.872  33.645  11.274 -0.1128 -0.2770 -0.1026
 3637POSM   AM142677  31.118  33.840  11.371 -0.0851 -0.1823  0.1624
 3637POSM   AM242678  31.144  34.038  11.586 -0.1868  0.0295  0.2165
 3637POSM   T1A42679  31.593  33.903  11.565 -0.2027  0.1394  0.0752
 3637POSM   C2A42680  32.076  33.881  11.560  0.1677 -0.1737 -0.1453
 3637POSM   C3A42681  32.364  34.261  11.626 -0.2062  0.0238  0.0902
 3637POSM   C1B42682  31.052  34.004  11.896  0.0531  0.2153  0.0582
 3637POSM   D2B42683  31.054  34.037  12.372  0.0050  0.0029 -0.4364
 3637POSM   C3B42684  31.266  34.068  12.760 -0.2035 -0.1052  0.2606
 3637POSM   C4B42685  31.169  34.150  13.226 -0.1016  0.3285 -0.1530
 3638POSM   NC342686  27.154  27.995  11.435  0.0596  0.1717 -0.0386
 3638POSM   PO442687  26.991  28.241  11.699 -0.2426  0.3077  0.1691
 3638POSM   AM142688  26.919  28.160  12.012  0.0490  0.2791 -0.3026
 3638POSM   AM242689  26.807  27.953  12.179  0.1041  0.1532 -0.0246
 3638POSM   T1A42690  26.983  28.272  12.521 -0.0081 -0.0800  0.3269
 3638POSM   C2A42691  26.925  28.354  12.975 -0.2312  0.0068 -0.1575
 3638POSM   C3A42692  26.909  28.693  13.251 -0.2996  0.1801 -0.1966
 3638POSM   C1B42693  26.591  27.935  12.482  0.0475 -0.2474  0.1828
 3638POSM   D2B42694  26.295  27.810  12.842  0.2814 -0.1426  0.2021
 3638POSM   C3B42695  26.430  27.414  13.035  0.1381 -0.1149  0.1605
 3638POSM   C4B42696  26.590  27.170  13.373  0.1189  0.1525  0.0101
 3639DOPE   NH342697  29.008  28.003  11.931 -0.1890  0.0699  0.0498
 3639DOPE   PO442698  29.052  28.268  12.006  0.2049 -0.0163  0.0829
 3639DOPE   GL142699  29.118  28.201  12.372 -0.1242  0.2321  0.3230
 3639DOPE   GL242700  29.354  28.055  12.380 -0.0975 -0.2409  0.2993
 3639DOPE   C1A42701  29.052  28.206  12.835 -0.0572  0.1434  0.2078
 3639DOPE   D2A42702  29.009  28.363  13.259 -0.0776  0.0554  0.1519
 3639DOPE   C3A42703  29.229  28.715  13.523 -0.0042 -0.0961 -0.2205
 3639DOPE   C4A42704  29.320  29.152  13.588  0.3270 -0.0485 -0.1135
 3639DOPE   C1B42705  29.612  28.269  12.726  0.5919 -0.2602 -0.1727
 3639DOPE   D2B42706  29.917  28.560  13.026 -0.1268  0.0827  0.0460
 3639DOPE   C3B42707  30.073  28.600  13.504  0.0198  0.0228 -0.0483
 3639DOPE   C4B42708  30.415  28.524  13.793  0.1278 -0.2365  0.0118
 3640DOPS   CNO42709  34.723  27.847  10.343 -0.0452  0.0576  0.0962
 3640DOPS   PO442710  34.990  27.679  10.566 -0.1310 -0.1970  0.0417
 3640DOPS   GL142711  34.773  27.733  10.823  0.1906 -0.3783 -0.3488
 3640DOPS   GL242712  34.582  27.945  10.772  0.3020 -0.2029  0.1468
 3640DOPS   C1A42713  34.786  27.546  11.274 -0.0794 -0.2074  0.0717
 3640DOPS   D2A42714  34.782  27.550  11.700  0.1818 -0.2206 -0.0284
 3640DOPS   C3A42715  34.892  27.951  11.955 -0.2007  0.2767 -0.0175
 3640DOPS   C4A42716  35.087  28.385  12.026  0.0426 -0.0918  0.1886
 3640DOPS   C1B42717  34.721  28.083  11.194  0.2593 -0.1789 -0.3694
 3640DOPS   D2B42718  34.823  28.324  11.592 -0.2124  0.2192 -0.3942
 3640DOPS   C3B42719  34.609  28.760  11.638  0.1602  0.1098  0.1434
 3640DOPS   C4B42720  34.417  29.119  11.842  0.3232 -0.0204  0.0304
 3641DOPE   NH342721  34.450  32.967  10.521  0.1220 -0.0665  0.0270
 3641DOPE   PO442722  34.715  33.181  10.588  0.1331  0.0321  0.0728
 3641DOPE   GL142723  34.886  33.214  10.870  0.3231 -0.1007 -0.4603
 3641DOPE   GL242724  34.630  33.418  10.992 -0.1424  0.0535  0.0052
 3641DOPE   C1A42725  35.032  32.916  11.193  0.0867 -0.2221  0.1156
 3641DOPE   D2A42726  35.260  32.612  11.500 -0.2710 -0.2375 -0.0970
 3641DOPE   C3A42727  35.613  32.409  11.365 -0.0517  0.0475 -0.2849
 3641DOPE   C4A42728  35.680  31.927  11.230 -0.0181 -0.0602 -0.2175
 3641DOPE   C1B42729  34.668  33.381  11.405 -0.0405 -0.2428 -0.3394
 3641DOPE   D2B42730  34.697  33.655  11.811 -0.0074 -0.0849 -0.4334
 3641DOPE   C3B42731  34.676  34.058  12.027 -0.0091  0.3419 -0.2244
 3641DOPE   C4B42732  35.064  34.341  12.113 -0.4706 -0.0300  0.0946
 3642DOPC   NC342733  23.134  32.711  11.321 -0.2991  0.3207  0.2030
 3642DOPC   PO442734  23.146  32.332  11.251 -0.0878 -0.1108 -0.2364
 3642DOPC   GL142735  23.075  32.096  11.578  0.0150  0.1357 -0.0572
 3642DOPC   GL242736  23.283  32.287  11.766  0.0776 -0.0429  0.0291
 3642DOPC   C1A42737  22.791  31.955  11.844 -0.4292 -0.1825 -0.0510
 3642DOPC   D2A42738  22.743  31.723  12.240  0.1539 -0.3123  0.1487
 3642DOPC   C3A42739  22.497  31.665  12.615 -0.4130  0.0061 -0.0242
 3642DOPC   C4A42740  22.103  31.425  12.691  0.0295 -0.2259  0.1454
 3642DOPC   C1B42741  22.920  32.376  12.004  0.1458 -0.2793 -0.1851
 3642DOPC   D2B42742  22.852  32.481  12.449  0.1862  0.0438  0.1433
 3642DOPC   C3B42743  22.837  32.225  12.878 -0.4074 -0.0212  0.1346
 3642DOPC   C4B42744  22.894  31.876  13.130  0.2689 -0.1666  0.0141
 3643DOPC   NC342745  28.496  28.316  11.991  0.2400  0.0223  0.0099
 3643DOPC   PO442746  28.253  28.556  12.124 -0.1011  0.2023  0.0750
 3643DOPC   GL142747  27.938  28.489  12.274 -0.1591  0.2172 -0.1042
 3643DOPC   GL242748  27.776  28.720  12.451  0.0809  0.1262  0.2335
 3643DOPC   C1A42749  27.842  28.258  12.689  0.1075 -0.1648  0.2325
 3643DOPC   D2A42750  27.473  28.226  13.000 -0.0686 -0.0607  0.0570
 3643DOPC   C3A42751  27.418  28.588  13.229  0.1240  0.0744  0.3763
 3643DOPC   C4A42752  27.747  28.657  13.611  0.3860  0.1806  0.2102
 3643DOPC   C1B42753  27.458  28.683  12.718  0.0255  0.0725  0.1438
 3643DOPC   D2B42754  27.046  28.800  12.699 -0.0992 -0.0811 -0.1691
 3643DOPC   C3B42755  26.659  28.641  12.601 -0.0021 -0.1473 -0.1960
 3643DOPC   C4B42756  26.412  28.302  12.819 -0.0479 -0.1213  0.0385
 3644POSM   NC342757  33.208  29.585  11.238  0.3451 -0.0494  0.1614
 3644POSM   PO442758  33.342  29.254  11.122  0.1510  0.2386 -0.0815
 3644POSM   AM142759  33.318  29.132  11.415 -0.2699 -0.4824  0.1660
 3644POSM   AM242760  33.185  28.902  11.552 -0.0988  0.2246 -0.0629
 3644POSM   T1A42761  33.589  29.020  11.812  0.1457 -0.5724  0.0306
 3644POSM   C2A42762  33.733  29.235  12.203 -0.1035  0.1566  0.0289
 3644POSM   C3A42763  34.168  29.156  12.332  0.0911 -0.0783  0.0787
 3644POSM   C1B42764  33.090  28.815  11.840 -0.2881 -0.0390  0.2549
 3644POSM   D2B42765  33.055  28.803  12.288 -0.1513  0.1086 -0.3095
 3644POSM   C3B42766  32.742  28.842  12.631 -0.0495 -0.0078 -0.0775
 3644POSM   C4B42767  32.437  29.025  12.960 -0.2487 -0.1067  0.2368
 3645POSM   NC342768  24.015  34.585  11.299 -0.0100  0.0122  0.1251
 3645POSM   PO442769  23.758  34.433  11.548 -0.2674 -0.1089  0.0074
 3645POSM   AM142770  23.821  34.512  11.870  0.0687  0.0064 -0.1637
 3645POSM   AM242771  23.835  34.707  12.054 -0.6664 -0.3516 -0.0294
 3645POSM   T1A42772  24.073  34.342  12.307  0.2782  0.3988 -0.0011
 3645POSM   C2A42773  24.023  34.389  12.759 -0.2549  0.1326 -0.0834
 3645POSM   C3A42774  23.950  34.117  13.111  0.1632 -0.3612  0.0986
 3645POSM   C1B42775  23.851  35.028  12.191  0.2368  0.2138  0.1659
 3645POSM   D2B42776  23.631  35.395  12.309 -0.1605  0.1712 -0.1378
 3645POSM   C3B42777  23.591  35.651  12.679  0.0659 -0.1815 -0.1318
 3645POSM   C4B42778  23.711  35.792  13.146 -0.0035  0.2017 -0.1252
 3646DOPS   CNO42779  30.203  29.146  11.524  0.0639  0.0569  0.1400
 3646DOPS   PO442780  30.280  29.410  11.795 -0.2551  0.0160 -0.0778
 3646DOPS   GL142781  30.175  29.457  12.145  0.0901 -0.1658  0.1404
 3646DOPS   GL242782  29.914  29.484  12.201  0.0104 -0.1865  0.0640
 3646DOPS   C1A42783  30.501  29.404  12.496  0.3790 -0.3136 -0.1598
 3646DOPS   D2A42784  30.823  29.426  12.806 -0.1119  0.0199 -0.3440
 3646DOPS   C3A42785  30.635  29.550  13.166 -0.1092  0.2044 -0.1750
 3646DOPS   C4A42786  30.390  29.718  13.542 -0.1520  0.1077 -0.2471
 3646DOPS   C1B42787  30.027  29.603  12.601  0.0222  0.1555 -0.1055
 3646DOPS   D2B42788  30.254  29.822  12.940 -0.1725 -0.0662 -0.2245
 3646DOPS   C3B42789  29.933  29.956  13.283  0.3375 -0.1963 -0.0739
 3646DOPS   C4B42790  29.902  30.030  13.740  0.1844 -0.1429  0.3960
 3647POSM   NC342791  27.017  22.458  10.961  0.0449  0.0618  0.3038
 3647POSM   PO442792  26.849  22.809  11.066  0.1028  0.3994 -0.2888
 3647POSM   AM142793  26.833  22.792  11.388  0.4370  0.1214 -0.0884
 3647POSM   AM242794  26.871  22.972  11.558  0.0482 -0.0170  0.2356
 3647POSM   T1A42795  27.021  22.430  11.731 -0.0986  0.1519 -0.1631
 3647POSM   C2A42796  26.803  22.026  11.863  0.1214  0.1156  0.0571
 3647POSM   C3A42797  26.587  21.701  12.068 -0.0159 -0.1115  0.1182
 3647POSM   C1B42798  26.829  22.991  11.884 -0.2140  0.2875  0.0057
 3647POSM   D2B42799  26.766  22.766  12.282 -0.0130 -0.3141 -0.0238
 3647POSM   C3B42800  26.601  22.340  12.279 -0.0560 -0.0110 -0.0557
 3647POSM   C4B42801  26.617  22.038  12.536  0.1311 -0.1425 -0.0885
 3648DOPE   NH342802  29.132  34.155  11.637  0.0863 -0.2343 -0.0688
 3648DOPE   PO442803  28.974  34.022  11.851 -0.1324  0.2269 -0.0106
 3648DOPE   GL142804  29.033  34.164  12.205 -0.0337 -0.0264  0.1095
 3648DOPE   GL242805  29.212  34.379  12.129  0.2113  0.0468  0.4957
 3648DOPE   C1A42806  29.306  34.092  12.544 -0.1837 -0.1298  0.0610
 3648DOPE   D2A42807  29.216  33.867  12.918  0.3316 -0.0284  0.3640
 3648DOPE   C3A42808  29.430  33.981  13.290 -0.2473 -0.1691 -0.0723
 3648DOPE   C4A42809  29.772  33.971  13.540 -0.3736  0.0678  0.2521
 3648DOPE   C1B42810  29.253  34.748  12.397 -0.2177 -0.2494 -0.0043
 3648DOPE   D2B42811  29.338  35.082  12.659  0.0654  0.3662  0.0629
 3648DOPE   C3B42812  29.441  34.874  13.024 -0.0058 -0.1005 -0.0370
 3648DOPE   C4B42813  29.730  34.806  13.354 -0.3873  0.0362  0.3047
 3649DOPE   NH342814  25.689  29.521  11.632 -0.1337  0.0619 -0.2228
 3649DOPE   PO442815  25.707  29.218  11.799 -0.0965  0.1849  0.0382
 3649DOPE   GL142816  25.802  29.253  12.115  0.0378 -0.2193 -0.2960
 3649DOPE   GL242817  25.748  29.360  12.395  0.2556 -0.2278  0.1872
 3649DOPE   C1A42818  26.240  29.313  12.294 -0.1190  0.0323 -0.2130
 3649DOPE   D2A42819  26.359  29.706  12.565 -0.0131  0.1358 -0.0238
 3649DOPE   C3A42820  26.616  29.617  12.910  0.0644  0.1281 -0.1912
 3649DOPE   C4A42821  26.804  29.335  13.221 -0.1087 -0.0167 -0.1223
 3649DOPE   C1B42822  26.037  29.368  12.794 -0.0795 -0.2297 -0.2433
 3649DOPE   D2B42823  26.161  29.736  13.094  0.0228 -0.1053 -0.1840
 3649DOPE   C3B42824  25.800  30.034  13.129  0.1098  0.2424 -0.3112
 3649DOPE   C4B42825  25.347  29.969  13.109  0.3151 -0.2612  0.1106
 3650DOPE   NH342826  28.626  28.933  12.318  0.0257  0.3899  0.2465
 3650DOPE   PO442827  28.769  28.727  12.115  0.0653 -0.1575  0.1160
 3650DOPE   GL142828  28.916  28.572  12.448 -0.1955 -0.2243 -0.3238
 3650DOPE   GL242829  28.693  28.355  12.447 -0.0100  0.3292 -0.2835
 3650DOPE   C1A42830  28.854  28.653  12.895  0.1588 -0.0119  0.0756
 3650DOPE   D2A42831  28.923  28.997  13.235  0.3090 -0.1600  0.1158
 3650DOPE   C3A42832  28.825  29.098  13.685  0.3500 -0.3817 -0.4011
 3650DOPE   C4A42833  28.758  29.015  14.117 -0.1710 -0.0394  0.3274
 3650DOPE   C1B42834  28.343  28.350  12.792 -0.3263  0.0870 -0.1063
 3650DOPE   D2B42835  28.459  28.183  13.247 -0.0728 -0.1599 -0.2337
 3650DOPE   C3B42836  28.248  28.233  13.657  0.0610 -0.3366  0.1782
 3650DOPE   C4B42837  28.134  28.108  14.139 -0.0060  0.0551 -0.0525
 3651DOPS   CNO42838  30.311  26.949  11.226  0.0723 -0.1359 -0.1093
 3651DOPS   PO442839  30.255  26.809  11.609  0.0696 -0.5079 -0.1323
 3651DOPS   GL142840  30.112  26.980  11.848  0.0711  0.1471 -0.0938
 3651DOPS   GL242841  30.099  26.725  12.102 -0.2651  0.0739 -0.1023
 3651DOPS   C1A42842  30.017  27.203  12.280 -0.0541  0.0897 -0.1383
 3651DOPS   D2A42843  29.954  27.285  12.702 -0.0294  0.1362  0.1349
 3651DOPS   C3A42844  29.589  27.397  12.907  0.0052 -0.0517  0.1273
 3651DOPS   C4A42845  29.129  27.368  12.953  0.0263 -0.2740 -0.0810
 3651DOPS   C1B42846  30.015  26.277  12.301 -0.0720  0.0534 -0.0980
 3651DOPS   D2B42847  30.017  25.816  12.407 -0.0703  0.1144  0.1351
 3651DOPS   C3B42848  30.074  25.836  12.868 -0.1893  0.0032 -0.1244
 3651DOPS   C4B42849  30.461  25.785  13.116  0.0526 -0.0125  0.1521
 3652POSM   NC342850  31.278  28.395  11.467  0.0859 -0.1891 -0.0727
 3652POSM   PO442851  30.975  28.664  11.482 -0.1805  0.0420 -0.0753
 3652POSM   AM142852  31.127  28.731  11.771 -0.2316  0.5494 -0.1319
 3652POSM   AM242853  31.053  28.786  12.040 -0.2661  0.0146 -0.1103
 3652POSM   T1A42854  31.486  28.524  11.962 -0.2133  0.3177 -0.1216
 3652POSM   C2A42855  31.532  28.264  12.343 -0.0379 -0.0774  0.3726
 3652POSM   C3A42856  31.617  28.044  12.781  0.0804  0.4138 -0.0603
 3652POSM   C1B42857  31.032  28.637  12.312  0.4033  0.0965 -0.1495
 3652POSM   D2B42858  30.621  28.411  12.394 -0.1752 -0.3178 -0.2543
 3652POSM   C3B42859  30.694  28.099  12.776 -0.0494  0.0255  0.0025
 3652POSM   C4B42860  30.717  27.946  13.227 -0.3636  0.2458 -0.2114
 3653POSM   NC342861  34.727  29.575  10.897  0.1962  0.2760 -0.0982
 3653POSM   PO442862  34.745  29.938  10.814 -0.1280  0.1843  0.1921
 3653POSM   AM142863  34.972  29.907  11.044 -0.2182  0.2680  0.0589
 3653POSM   AM242864  35.099  29.700  11.245 -0.1105  0.1143  0.0111
 3653POSM   T1A42865  35.006  30.098  11.502 -0.0025  0.0104  0.0957
 3653POSM   C2A42866  35.052  29.869  11.903  0.3188 -0.1426 -0.2198
 3653POSM   C3A42867  34.838  29.509  12.171 -0.1966  0.1817 -0.0777
 3653POSM   C1B42868  35.140  29.386  11.245 -0.1793  0.2478  0.0231
 3653POSM   D2B42869  34.997  28.952  11.403 -0.0085 -0.0239 -0.2395
 3653POSM   C3B42870  35.069  28.863  11.788  0.2289 -0.1974  0.1959
 3653POSM   C4B42871  34.782  28.908  12.105  0.2918  0.2755 -0.1076
 3654DOPE   NH342872  30.688  27.492  11.340 -0.4623 -0.1418 -0.1440
 3654DOPE   PO442873  30.571  27.747  11.548 -0.3106 -0.2170 -0.1796
 3654DOPE   GL142874  30.749  27.556  11.932 -0.2234 -0.2187  0.1760
 3654DOPE   GL242875  30.952  27.471  11.798 -0.0521  0.0928 -0.0424
 3654DOPE   C1A42876  30.876  27.368  12.395 -0.0765  0.0335  0.1240
 3654DOPE   D2A42877  30.819  27.550  12.767 -0.3123  0.2869 -0.1122
 3654DOPE   C3A42878  30.428  27.679  12.974  0.0001 -0.0571 -0.0902
 3654DOPE   C4A42879  30.292  27.897  13.407 -0.0248 -0.3617  0.2622
 3654DOPE   C1B42880  31.196  27.760  12.066  0.1291 -0.1631 -0.1862
 3654DOPE   D2B42881  31.332  27.671  12.496  0.0764 -0.1042 -0.0825
 3654DOPE   C3B42882  31.306  27.282  12.809  0.2113  0.1132  0.0330
 3654DOPE   C4B42883  30.915  27.084  12.963  0.0274  0.2281  0.0439
 3655DOPS   CNO42884  25.110   0.935  11.143  0.0442 -0.2845  0.1051
 3655DOPS   PO442885  24.785   1.058  11.343  0.2290  0.0306 -0.1478
 3655DOPS   GL142886  24.771   1.034  11.751 -0.0682 -0.2873  0.0118
 3655DOPS   GL242887  24.759   1.291  11.874  0.0414 -0.2257 -0.0641
 3655DOPS   C1A42888  24.515   0.972  12.140  0.1288  0.2289  0.1602
 3655DOPS   D2A42889  24.280   1.325  12.217  0.1047  0.0214 -0.3077
 3655DOPS   C3A42890  23.957   1.301  12.573 -0.0503  0.3763  0.2132
 3655DOPS   C4A42891  23.950   1.423  12.998 -0.1262  0.3056 -0.0763
 3655DOPS   C1B42892  24.739   1.697  11.909 -0.0895  0.0345  0.0137
 3655DOPS   D2B42893  24.526   2.007  12.072 -0.2079  0.0030  0.0383
 3655DOPS   C3B42894  24.395   2.238  12.473 -0.0219  0.2857 -0.2111
 3655DOPS   C4B42895  24.582   2.620  12.627 -0.1949  0.0920 -0.0247
 3656DOPE   NH342896  30.618  33.255  11.395 -0.0648  0.1453 -0.1388
 3656DOPE   PO442897  30.814  33.037  11.519  0.0726 -0.2977 -0.0225
 3656DOPE   GL142898  30.891  33.028  11.914 -0.1050  0.1530 -0.1404
 3656DOPE   GL242899  30.721  32.993  12.107  0.2624 -0.6293 -0.1537
 3656DOPE   C1A42900  31.081  33.385  12.201  0.0277  0.2000  0.0022
 3656DOPE   D2A42901  31.354  33.661  12.508  0.2798  0.0359 -0.0792
 3656DOPE   C3A42902  31.773  33.539  12.667 -0.3200  0.2524  0.1341
 3656DOPE   C4A42903  32.206  33.541  12.866 -0.0783  0.1762 -0.2650
 3656DOPE   C1B42904  30.889  32.864  12.505 -0.3101 -0.1362  0.4434
 3656DOPE   D2B42905  31.113  32.696  12.883 -0.0309 -0.1532  0.1728
 3656DOPE   C3B42906  31.040  32.782  13.352 -0.1921 -0.2230 -0.0917
 3656DOPE   C4B42907  30.985  32.599  13.777  0.2737  0.2064 -0.1433
 3657POSM   NC342908  26.416  28.172  12.076 -0.2582  0.0440 -0.0062
 3657POSM   PO442909  26.077  28.405  11.951 -0.1668  0.0035 -0.0177
 3657POSM   AM142910  25.896  28.600  12.070 -0.0129 -0.0205  0.0640
 3657POSM   AM242911  25.631  28.727  12.071  0.1225 -0.0066 -0.2731
 3657POSM   T1A42912  25.942  28.882  12.511  0.1068  0.3237  0.0043
 3657POSM   C2A42913  25.738  29.007  12.903  0.0255  0.0816  0.3514
 3657POSM   C3A42914  25.504  28.879  13.261 -0.0247 -0.2546  0.2200
 3657POSM   C1B42915  25.497  28.812  12.359  0.4059 -0.3477 -0.0062
 3657POSM   D2B42916  25.007  28.807  12.448  0.0328 -0.0760  0.3143
 3657POSM   C3B42917  24.767  28.590  12.762 -0.2555  0.2553  0.0707
 3657POSM   C4B42918  24.764  28.326  13.155 -0.0121 -0.1850 -0.2517
 3658POSM   NC342919  25.122   2.309  11.280 -0.0990 -0.0385 -0.0318
 3658POSM   PO442920  24.749   2.334  11.421  0.2670 -0.1458 -0.3055
 3658POSM   AM142921  24.717   2.424  11.735 -0.6277  0.1564  0.1387
 3658POSM   AM242922  24.871   2.345  11.970  0.3629 -0.1394  0.2193
 3658POSM   T1A42923  24.502   2.614  12.119  0.0915  0.2644  0.1041
 3658POSM   C2A42924  24.548   3.024  12.340  0.2080 -0.0893  0.2894
 3658POSM   C3A42925  24.727   3.352  12.520 -0.0062  0.1935 -0.1357
 3658POSM   C1B42926  24.957   2.240  12.242  0.2649  0.0453 -0.3004
 3658POSM   D2B42927  24.869   2.080  12.653 -0.0768  0.0023 -0.0208
 3658POSM   C3B42928  24.508   2.205  12.985 -0.1459 -0.1801  0.0792
 3658POSM   C4B42929  24.132   2.460  13.053 -0.0643  0.2845  0.0342
 3659DOPC   NC342930  26.420  32.739  11.698  0.0722 -0.0654  0.1743
 3659DOPC   PO442931  26.074  32.887  11.630 -0.2057 -0.0474  0.2879
 3659DOPC   GL142932  26.027  32.877  11.948  0.3239  0.1913 -0.0523
 3659DOPC   GL242933  26.233  32.850  12.193  0.0736  0.1891 -0.5200
 3659DOPC   C1A42934  25.721  32.650  12.243  0.2852  0.2139 -0.2913
 3659DOPC   D2A42935  25.588  32.584  12.678 -0.2417  0.1540 -0.0672
 3659DOPC   C3A42936  25.615  32.679  13.129 -0.0356  0.2486 -0.1253
 3659DOPC   C4A42937  25.441  32.645  13.567 -0.0773 -0.3902 -0.0765
 3659DOPC   C1B42938  26.306  33.283  12.313 -0.1017  0.1903  0.0880
 3659DOPC   D2B42939  26.366  33.706  12.499  0.0565  0.0546  0.0141
 3659DOPC   C3B42940  26.308  33.730  12.955 -0.1966 -0.1549 -0.1686
 3659DOPC   C4B42941  26.101  33.762  13.385  0.0619 -0.1034  0.2388
 3660POSM   NC342942  23.249  30.057  11.306  0.4254 -0.3493 -0.3024
 3660POSM   PO442943  23.646  30.160  11.177  0.0665  0.0826 -0.2774
 3660POSM   AM142944  23.621  30.388  11.374 -0.2357  0.0038 -0.2366
 3660POSM   AM242945  23.461  30.509  11.604  0.0179  0.2347 -0.0721
 3660POSM   T1A42946  23.906  30.491  11.809 -0.0877  0.0036 -0.1576
 3660POSM   C2A42947  24.278  30.470  12.074 -0.0515  0.0403 -0.0843
 3660POSM   C3A42948  24.682  30.349  12.242 -0.2776  0.1111 -0.0108
 3660POSM   C1B42949  23.477  30.714  11.918  0.0248 -0.0333 -0.1874
 3660POSM   D2B42950  23.302  30.785  12.316 -0.0566 -0.0052  0.0788
 3660POSM   C3B42951  23.358  30.440  12.578  0.2537 -0.1138  0.0555
 3660POSM   C4B42952  23.678  30.222  12.765 -0.0254 -0.0417  0.2640
 3661DOPE   NH342953  28.739  24.965  11.352  0.0035 -0.0338  0.1929
 3661DOPE   PO442954  28.769  24.859  11.618  0.0562  0.2165 -0.0908
 3661DOPE   GL142955  28.711  24.951  11.995  0.0958  0.1489 -0.2662
 3661DOPE   GL242956  28.425  25.041  11.982 -0.1189 -0.0644  0.0618
 3661DOPE   C1A42957  28.656  24.634  12.353 -0.2506  0.1667 -0.3853
 3661DOPE   D2A42958  28.883  24.583  12.795  0.0270  0.1549  0.1144
 3661DOPE   C3A42959  28.734  24.366  13.205  0.4576  0.2426  0.2805
 3661DOPE   C4A42960  28.716  24.343  13.669 -0.0582 -0.3198 -0.1579
 3661DOPE   C1B42961  28.509  25.324  12.274 -0.3105  0.0118 -0.1234
 3661DOPE   D2B42962  28.726  25.497  12.690  0.0329 -0.1312 -0.1850
 3661DOPE   C3B42963  28.908  25.610  13.127  0.0205 -0.1604  0.2374
 3661DOPE   C4B42964  29.087  26.044  13.251 -0.3326  0.2478  0.2957
 3662DOPS   CNO42965  28.234  29.884  11.533 -0.1940  0.0742  0.2648
 3662DOPS   PO442966  28.528  29.968  11.777 -0.0967 -0.0641  0.0103
 3662DOPS   GL142967  28.570  30.190  12.161  0.3291 -0.1796 -0.2656
 3662DOPS   GL242968  28.435  30.389  12.016  0.0638 -0.1787 -0.1626
 3662DOPS   C1A42969  28.457  30.213  12.607 -0.1049  0.0687 -0.2123
 3662DOPS   D2A42970  28.478  30.511  12.969  0.2302 -0.1405  0.0877
 3662DOPS   C3A42971  28.604  30.398  13.436  0.0695  0.1780  0.0162
 3662DOPS   C4A42972  28.937  30.390  13.749  0.1145 -0.3337 -0.0553
 3662DOPS   C1B42973  28.687  30.600  12.335  0.1270 -0.1662 -0.1911
 3662DOPS   D2B42974  28.758  30.863  12.773 -0.1868  0.1312  0.1308
 3662DOPS   C3B42975  28.883  30.706  13.205 -0.3625  0.0096  0.4229
 3662DOPS   C4B42976  29.151  30.779  13.570  0.2316  0.0898  0.1692
 3663DOPC   NC342977  27.517  33.474  12.129 -0.1294 -0.0625  0.2253
 3663DOPC   PO442978  27.500  33.090  12.049 -0.2618  0.4463  0.0946
 3663DOPC   GL142979  27.376  33.098  12.405 -0.3964 -0.0665 -0.2678
 3663DOPC   GL242980  27.218  33.300  12.500 -0.0398  0.1006  0.3248
 3663DOPC   C1A42981  27.563  32.862  12.768  0.1529 -0.2873  0.0580
 3663DOPC   D2A42982  27.391  32.716  13.159 -0.1602 -0.0972  0.1686
 3663DOPC   C3A42983  27.263  33.042  13.398 -0.1576  0.0205 -0.1548
 3663DOPC   C4A42984  27.166  33.312  13.725 -0.0410 -0.3102 -0.0760
 3663DOPC   C1B42985  27.110  33.137  12.901  0.0710 -0.1871  0.0789
 3663DOPC   D2B42986  26.924  32.728  13.103  0.0166 -0.1417 -0.0955
 3663DOPC   C3B42987  26.958  32.650  13.521 -0.1216 -0.4201  0.2236
 3663DOPC   C4B42988  27.021  32.779  13.976  0.0470  0.0726  0.2378
 3664DOPC   NC342989  32.748  33.261  10.671  0.0252  0.0804  0.0262
 3664DOPC   PO442990  32.860  33.090  10.994 -0.2663  0.1671 -0.3075
 3664DOPC   GL142991  32.756  33.306  11.347 -0.3383 -0.0824 -0.0003
 3664DOPC   GL242992  32.649  33.043  11.453 -0.1269  0.2686 -0.0579
 3664DOPC   C1A42993  33.089  33.565  11.590 -0.0322  0.2065  0.1855
 3664DOPC   D2A42994  33.229  33.751  12.002  0.2431 -0.1347  0.1988
 3664DOPC   C3A42995  32.930  33.741  12.397  0.0470  0.1666  0.1280
 3664DOPC   C4A42996  32.513  33.698  12.461 -0.0164 -0.0977 -0.0262
 3664DOPC   C1B42997  32.594  33.075  11.869 -0.1202  0.2311 -0.5242
 3664DOPC   D2B42998  32.445  33.009  12.286  0.2847 -0.0519  0.4982
 3664DOPC   C3B42999  32.569  33.254  12.665  0.1782  0.2169 -0.1147
 3664DOPC   C4B43000  32.856  33.582  12.850 -0.4911  0.0671  0.1736
 3665DOPC   NC343001  27.389  31.808  11.825 -0.0117  0.0344 -0.0543
 3665DOPC   PO443002  27.558  31.450  11.707  0.2945  0.0789 -0.0285
 3665DOPC   GL143003  27.408  31.254  12.019 -0.1009 -0.3620 -0.3434
 3665DOPC   GL243004  27.637  31.240  12.241  0.2079  0.2821 -0.0000
 3665DOPC   C1A43005  27.156  31.285  12.356  0.0297  0.2690 -0.1635
 3665DOPC   D2A43006  26.973  31.437  12.734 -0.2148  0.0439 -0.0087
 3665DOPC   C3A43007  26.971  31.884  12.790  0.0365 -0.2161  0.0438
 3665DOPC   C4A43008  26.902  32.206  13.178 -0.2107 -0.2576 -0.1993
 3665DOPC   C1B43009  27.790  31.043  12.567 -0.2713 -0.2454  0.1111
 3665DOPC   D2B43010  27.898  30.724  12.861  0.1031  0.2064 -0.0138
 3665DOPC   C3B43011  27.721  30.623  13.212  0.0345  0.2312 -0.1500
 3665DOPC   C4B43012  27.351  30.761  13.447  0.0220 -0.2071  0.2427
 3666DOPS   CNO43013  28.867   0.439  11.649 -0.0114  0.0320  0.0190
 3666DOPS   PO443014  28.579   0.632  11.473  0.1357 -0.3693 -0.2058
 3666DOPS   GL143015  28.461   0.765  11.854  0.0499  0.1109  0.0592
 3666DOPS   GL243016  28.734   0.834  11.950  0.0715  0.2302  0.0452
 3666DOPS   C1A43017  28.109   0.981  12.135  0.0892 -0.1476  0.0061
 3666DOPS   D2A43018  27.947   1.156  12.552 -0.2898 -0.0765 -0.3328
 3666DOPS   C3A43019  27.975   1.125  12.998 -0.0116 -0.2269  0.4276
 3666DOPS   C4A43020  28.013   1.337  13.394 -0.2804 -0.2146  0.2211
 3666DOPS   C1B43021  28.544   0.581  12.333 -0.0436 -0.0542  0.0346
 3666DOPS   D2B43022  28.209   0.752  12.633  0.1949  0.0142  0.0408
 3666DOPS   C3B43023  28.288   0.636  13.117  0.0574  0.2651 -0.0300
 3666DOPS   C4B43024  28.361   0.878  13.473  0.0512 -0.1666  0.1606
 3667POSM   NC343025  26.931  23.587  11.312  0.2928  0.1867  0.0498
 3667POSM   PO443026  27.278  23.610  11.087 -0.1565 -0.0496 -0.0059
 3667POSM   AM143027  27.483  23.626  11.380 -0.2342  0.6004 -0.1389
 3667POSM   AM243028  27.573  23.422  11.505  0.1763  0.2332 -0.0722
 3667POSM   T1A43029  27.469  23.676  11.871  0.1810 -0.1497 -0.3219
 3667POSM   C2A43030  27.269  23.412  12.177  0.1396  0.2023 -0.2764
 3667POSM   C3A43031  26.951  23.284  12.516 -0.3898  0.0472 -0.0741
 3667POSM   C1B43032  27.620  23.227  11.793  0.1507 -0.0655 -0.1857
 3667POSM   D2B43033  27.765  23.072  12.245  0.0253  0.0402 -0.0855
 3667POSM   C3B43034  28.141  22.916  12.402 -0.1308 -0.0792 -0.5136
 3667POSM   C4B43035  28.133  22.500  12.575 -0.0993  0.1053 -0.1614
 3668POSM   NC343036  29.459   1.902  11.012 -0.0538 -0.1935  0.1135
 3668POSM   PO443037  29.383   1.587  11.209  0.0962 -0.2962 -0.0643
 3668POSM   AM143038  29.349   1.673  11.519 -0.1501  0.2208  0.2954
 3668POSM   AM243039  29.501   1.628  11.755 -0.3757  0.1804  0.3907
 3668POSM   T1A43040  29.184   1.894  11.919  0.1184  0.0674 -0.0098
 3668POSM   C2A43041  29.296   2.026  12.342  0.0126  0.0812 -0.0066
 3668POSM   C3A43042  29.344   2.107  12.774 -0.0830  0.0722 -0.0527
 3668POSM   C1B43043  29.608   1.647  12.100  0.1409 -0.2487 -0.3373
 3668POSM   D2B43044  29.727   1.441  12.453 -0.0700  0.1016 -0.0569
 3668POSM   C3B43045  29.650   0.999  12.390  0.0118 -0.1077 -0.1917
 3668POSM   C4B43046  29.633   0.566  12.340  0.1676 -0.2555  0.3530
 3669DOPE   NH343047  21.791  29.720  10.272 -0.1082  0.0105  0.0875
 3669DOPE   PO443048  21.535  29.565  10.445 -0.3720 -0.1888  0.1820
 3669DOPE   GL143049  21.656  29.702  10.804  0.0614 -0.1092 -0.2617
 3669DOPE   GL243050  21.507  29.905  10.855 -0.1141  0.1492  0.0810
 3669DOPE   C1A43051  21.678  29.483  11.178 -0.0096 -0.1618  0.3834
 3669DOPE   D2A43052  21.313  29.290  11.363  0.0219 -0.2269 -0.1745
 3669DOPE   C3A43053  21.443  28.947  11.633  0.0482  0.0270 -0.0347
 3669DOPE   C4A43054  21.189  28.604  11.861  0.2013  0.0439 -0.2951
 3669DOPE   C1B43055  21.301  29.843  11.243 -0.0185  0.2235  0.0965
 3669DOPE   D2B43056  21.088  30.230  11.364  0.1157  0.2273  0.2356
 3669DOPE   C3B43057  20.940  30.251  11.759 -0.1856  0.0444 -0.0053
 3669DOPE   C4B43058  20.637  30.197  12.116 -0.0085  0.0941  0.0489
 3670DOPC   NC343059  28.203  23.759  11.306 -0.3088  0.0545 -0.0167
 3670DOPC   PO443060  28.356  24.014  11.615 -0.2159  0.1677  0.2131
 3670DOPC   GL143061  28.449  24.151  11.940 -0.2239  0.2748  0.3933
 3670DOPC   GL243062  28.398  23.931  12.128 -0.1222 -0.0358  0.0996
 3670DOPC   C1A43063  28.195  24.435  12.255 -0.1521  0.1797 -0.2946
 3670DOPC   D2A43064  28.160  24.888  12.399 -0.1211  0.0826 -0.4504
 3670DOPC   C3A43065  28.086  25.226  12.659 -0.1694  0.3753 -0.1901
 3670DOPC   C4A43066  27.921  25.298  13.045 -0.2375  0.0223  0.2359
 3670DOPC   C1B43067  28.131  23.992  12.487  0.2219  0.0217 -0.1984
 3670DOPC   D2B43068  27.745  23.917  12.709  0.2427  0.1474  0.1201
 3670DOPC   C3B43069  27.550  23.979  13.094  0.0671  0.0118  0.1169
 3670DOPC   C4B43070  27.808  24.160  13.431 -0.1178 -0.1115 -0.0248
 3671POSM   NC343071  31.985  26.890  10.324  0.2156  0.1958  0.2105
 3671POSM   PO443072  31.750  26.863  10.674 -0.0696  0.0221  0.1956
 3671POSM   AM143073  31.695  26.666  10.911  0.4127 -0.2362  0.3178
 3671POSM   AM243074  31.865  26.691  11.124  0.2674  0.2355 -0.0996
 3671POSM   T1A43075  31.523  26.435  11.317  0.0725 -0.3424  0.0801
 3671POSM   C2A43076  31.379  26.313  11.738 -0.0451 -0.1518 -0.0710
 3671POSM   C3A43077  31.557  26.296  12.152  0.0106  0.1937 -0.0013
 3671POSM   C1B43078  32.082  26.864  11.345  0.1391 -0.0611  0.4590
 3671POSM   D2B43079  32.352  27.086  11.646  0.0861 -0.2397  0.0979
 3671POSM   C3B43080  32.305  26.846  12.044 -0.2525 -0.2096 -0.0707
 3671POSM   C4B43081  31.943  26.656  12.281 -0.4298 -0.0695 -0.0985
 3672POSM   NC343082  27.583  33.947  11.958 -0.1919  0.2404  0.1751
 3672POSM   PO443083  27.234  33.903  11.987 -0.2303  0.1113 -0.0162
 3672POSM   AM143084  27.176  33.755  12.270  0.2202 -0.5043  0.1185
 3672POSM   AM243085  27.365  33.808  12.484  0.2120  0.0164 -0.1717
 3672POSM   T1A43086  26.907  33.644  12.635 -0.2193  0.2458 -0.1702
 3672POSM   C2A43087  26.764  33.940  13.006 -0.0825  0.0768  0.0939
 3672POSM   C3A43088  26.460  34.229  13.210 -0.0915 -0.0190  0.1018
 3672POSM   C1B43089  27.160  34.046  12.634  0.0237  0.0867 -0.0720
 3672POSM   D2B43090  26.834  34.288  12.610 -0.1636  0.0573 -0.1583
 3672POSM   C3B43091  26.390  34.220  12.594  0.3317  0.1430  0.1032
 3672POSM   C4B43092  25.975  34.052  12.545  0.0900  0.2702 -0.0617
 3673G2HHO Head43093  20.606  19.017  19.362  0.2011 -0.3496  0.2427
 3673G2HHO Head43094  20.611  18.684  19.401 -0.0475 -0.0470  0.1078
 3673G2HHO Head43095  20.896  18.337  19.472  0.0393 -0.1239 -0.3128
 3673G2HHO Head43096  20.716  18.276  19.247 -0.1640  0.1282  0.0391
 3673G2HHO Head43097  20.407  18.443  19.223 -0.3880 -0.2444  0.1232
 3673G2HHO Head43098  20.059  18.997  19.465 -0.0197  0.0271 -0.1642
 3673G2HHO Head43099  20.136  18.765  19.665  0.2632  0.0753  0.1265
 3673G2HHO Head43100  20.521  18.730  19.887  0.2277 -0.2191 -0.2060
 3673G2HHO Head43101  20.457  18.469  19.772  0.0291  0.1191  0.0579
 3673G2HHO Head43102  20.171  18.429  19.568  0.4638  0.0585  0.3073
 3673G2HHO link43103  20.174  18.367  19.312 -0.4579  0.0412  0.1682
 3673G2HHO link43104  19.981  18.218  19.179 -0.2071 -0.2790  0.0084
 3673G2HHO Tail43105  20.002  18.143  18.860 -0.0104 -0.1801  0.0301
 3673G2HHO Tail43106  19.671  18.144  18.763  0.0924  0.0391 -0.1754
 3673G2HHO Tail43107  19.462  18.365  18.716  0.6729 -0.2930  0.0593
 3673G2HHO Tail43108  19.083  18.466  18.521  0.1563  0.5939 -0.1463
 3673G2HHO Tail43109  20.145  18.436  18.738 -0.0269 -0.1957  0.0369
 3673G2HHO Tail43110  20.229  18.541  18.451  0.1271 -0.1375 -0.2226
 3673G2HHO Tail43111  20.440  18.378  18.107 -0.0742  0.1280  0.1611
 3674G2HHO Head43112  15.016  23.316  17.833  0.1749  0.1492 -0.2337
 3674G2HHO Head43113  15.144  23.046  17.974  0.1494  0.2112  0.0070
 3674G2HHO Head43114  15.299  23.020  18.386  0.0578 -0.0584  0.2399
 3674G2HHO Head43115  15.141  22.799  18.353 -0.1287 -0.2383 -0.4155
 3674G2HHO Head43116  14.923  22.800  18.085 -0.1610 -0.3427 -0.4516
 3674G2HHO Head43117  14.565  23.109  17.763  0.2439 -0.2365  0.0653
 3674G2HHO Head43118  14.804  22.970  17.609  0.0183 -0.0647 -0.2121
 3674G2HHO Head43119  14.538  22.259  17.379 -0.0630 -0.0482  0.0358
 3674G2HHO Head43120  14.579  22.572  17.526 -0.0490  0.1821  0.0176
 3674G2HHO Head43121  14.873  22.634  17.684 -0.3825  0.0067 -0.3991
 3674G2HHO link43122  14.877  22.574  17.957 -0.3795 -0.4196  0.6239
 3674G2HHO link43123  14.847  22.322  18.074 -0.1808 -0.1762  0.0585
 3674G2HHO Tail43124  14.973  22.051  17.941 -0.2901  0.3936  0.1235
 3674G2HHO Tail43125  14.889  21.815  18.195  0.2612  0.2933  0.2008
 3674G2HHO Tail43126  14.758  21.505  18.205  0.4301 -0.2786 -0.0519
 3674G2HHO Tail43127  14.860  21.091  18.289  0.0370 -0.0057 -0.3000
 3674G2HHO Tail43128  14.734  21.966  17.716 -0.0553 -0.1717  0.0417
 3674G2HHO Tail43129  14.706  21.697  17.534  0.0996 -0.4073 -0.5768
 3674G2HHO Tail43130  14.923  21.418  17.315  0.3967  0.0241  0.0924
 3675G2HHO Head43131  18.252  20.683  20.240  0.1196 -0.5098 -0.2282
 3675G2HHO Head43132  18.196  20.789  20.522 -0.5286 -0.2663 -0.0426
 3675G2HHO Head43133  18.754  20.597  20.835 -0.0692  0.1088 -0.3204
 3675G2HHO Head43134  18.480  20.494  20.679  0.0728 -0.0525  0.1482
 3675G2HHO Head43135  18.162  20.583  20.800  0.2784  0.2522  0.3613
 3675G2HHO Head43136  17.375  20.101  20.856  0.2099  0.2505 -0.1193
 3675G2HHO Head43137  17.616  20.126  21.051 -0.0358 -0.4224  0.0272
 3675G2HHO Head43138  18.225  19.886  21.030 -0.1271  0.1511 -0.2944
 3675G2HHO Head43139  18.029  20.113  21.197  0.2047 -0.3700  0.1295
 3675G2HHO Head43140  17.862  20.375  21.026  0.0026 -0.4710  0.3669
 3675G2HHO link43141  17.966  20.413  20.794  0.0635  0.1903 -0.0414
 3675G2HHO link43142  17.914  20.243  20.569  0.2226  0.1166 -0.0410
 3675G2HHO Tail43143  17.953  20.363  20.261  0.2104 -0.1521 -0.1665
 3675G2HHO Tail43144  18.039  20.075  20.088 -0.1209 -0.1285  0.0395
 3675G2HHO Tail43145  18.151  20.032  19.799  0.0714 -0.1308  0.0207
 3675G2HHO Tail43146  18.452  19.773  19.621  0.0592 -0.2407 -0.0174
 3675G2HHO Tail43147  17.627  20.441  20.169  0.2086 -0.4487  0.0718
 3675G2HHO Tail43148  17.436  20.423  19.912  0.1870 -0.2033 -0.0535
 3675G2HHO Tail43149  17.234  20.123  19.673 -0.0115 -0.3665 -0.2953
 3676G2HHO Head43150  20.184  19.612  20.009 -0.3047 -0.0934  0.4415
 3676G2HHO Head43151  19.950  19.675  19.792  0.2434 -0.0970 -0.2211
 3676G2HHO Head43152  19.741  19.421  20.095 -0.0183  0.2331 -0.0747
 3676G2HHO Head43153  19.752  19.316  19.766 -0.0143  0.2654 -0.0216
 3676G2HHO Head43154  19.907  19.505  19.506 -0.1590 -0.3529  0.3074
 3676G2HHO Head43155  20.667  19.158  19.882  0.4089 -0.0609  0.3330
 3676G2HHO Head43156  20.389  19.211  19.763 -0.3443 -0.2614  0.1980
 3676G2HHO Head43157  20.374  19.950  19.681  0.0136  0.2409 -0.0343
 3676G2HHO Head43158  20.521  19.667  19.617  0.2142  0.3211 -0.0160
 3676G2HHO Head43159  20.347  19.397  19.473  0.0353 -0.2766 -0.1961
 3676G2HHO link43160  20.126  19.448  19.360  0.0278 -0.1378  0.0066
 3676G2HHO link43161  20.077  19.378  19.092  0.2791 -0.2618 -0.0304
 3676G2HHO Tail43162  19.829  19.167  19.011 -0.0975  0.0382  0.0268
 3676G2HHO Tail43163  19.640  19.364  18.792  0.0734  0.1912  0.4874
 3676G2HHO Tail43164  19.616  19.433  18.464 -0.0638  0.3688 -0.0265
 3676G2HHO Tail43165  19.724  19.243  18.077 -0.0518  0.0229 -0.2339
 3676G2HHO Tail43166  19.629  19.218  19.288  0.3951 -0.2196  0.2306
 3676G2HHO Tail43167  19.397  19.437  19.312  0.0392  0.3389 -0.1376
 3676G2HHO Tail43168  19.123  19.648  19.059 -0.0109  0.3377  0.3567
 3677G2HHO Head43169  19.527  15.861  18.006  0.2149  0.0034  0.1996
 3677G2HHO Head43170  19.753  16.031  17.883  0.2162 -0.0977  0.1999
 3677G2HHO Head43171  19.614  16.261  18.551  0.2127 -0.1706  0.3300
 3677G2HHO Head43172  19.687  16.128  18.326  0.1999  0.2405 -0.1708
 3677G2HHO Head43173  19.924  16.270  18.085  0.1517 -0.3517  0.1248
 3677G2HHO Head43174  20.146  15.954  18.833  0.2198 -0.0906  0.1604
 3677G2HHO Head43175  20.042  16.225  18.672  0.0041  0.0927  0.7353
 3677G2HHO Head43176  20.069  16.935  18.495 -0.3315  0.2727  0.1449
 3677G2HHO Head43177  19.981  16.610  18.507  0.0677 -0.0779  0.2871
 3677G2HHO Head43178  20.207  16.358  18.390 -0.0366 -0.2144  0.2105
 3677G2HHO link43179  20.166  16.247  18.160  0.5457 -0.0211 -0.2046
 3677G2HHO link43180  20.336  16.085  18.007 -0.0173 -0.3988 -0.6676
 3677G2HHO Tail43181  20.233  15.874  17.784 -0.2524 -0.2515 -0.1871
 3677G2HHO Tail43182  20.556  15.761  17.658 -0.0475  0.0051  0.4496
 3677G2HHO Tail43183  20.848  15.850  17.607 -0.0725 -0.1540  0.1895
 3677G2HHO Tail43184  21.097  16.047  17.294 -0.3725 -0.0083 -0.1850
 3677G2HHO Tail43185  20.128  16.089  17.521 -0.2331 -0.0272 -0.1486
 3677G2HHO Tail43186  20.197  16.123  17.211  0.3071  0.0839  0.1628
 3677G2HHO Tail43187  20.152  15.865  16.878 -0.1696 -0.1574  0.4500
 3678G2HHO Head43188  22.309  18.137  19.313 -0.3078 -0.0286 -0.2856
 3678G2HHO Head43189  22.017  18.099  19.202  0.0159  0.0208  0.0447
 3678G2HHO Head43190  21.913  18.225  18.510  0.0895 -0.0882 -0.1014
 3678G2HHO Head43191  22.038  18.226  18.781  0.2503  0.2153  0.1376
 3678G2HHO Head43192  22.005  17.895  18.923  0.3364 -0.1356  0.1299
 3678G2HHO Head43193  22.821  17.590  19.289  0.1747 -0.2361 -0.0775
 3678G2HHO Head43194  22.540  17.678  19.253  0.1656  0.1115 -0.2052
 3678G2HHO Head43195  22.745  17.476  18.625 -0.0687 -0.0712 -0.3301
 3678G2HHO Head43196  22.701  17.602  18.893  0.2958  0.4003 -0.0861
 3678G2HHO Head43197  22.432  17.791  18.946  0.0043 -0.0857  0.0988
 3678G2HHO link43198  22.206  17.715  18.850  0.2990  0.4189  0.0673
 3678G2HHO link43199  22.165  17.449  18.773  0.1467  0.0036 -0.1176
 3678G2HHO Tail43200  21.862  17.323  18.763 -0.4302 -0.0152  0.1778
 3678G2HHO Tail43201  21.760  17.397  18.432  0.3630 -0.3972  0.0704
 3678G2HHO Tail43202  21.470  17.372  18.325 -0.5194 -0.0478 -0.3634
 3678G2HHO Tail43203  21.220  17.044  18.167 -0.1269  0.1160 -0.0100
 3678G2HHO Tail43204  21.955  17.004  18.700 -0.2375 -0.3473 -0.0326
 3678G2HHO Tail43205  21.840  16.784  18.506 -0.1285  0.3863 -0.2535
 3678G2HHO Tail43206  21.842  16.655  18.080 -0.1639  0.4024  0.1899
 3679G2HHO Head43207  22.102  18.214  16.792 -0.1481  0.0847  0.1710
 3679G2HHO Head43208  21.983  18.082  17.040  0.1385 -0.1275  0.3110
 3679G2HHO Head43209  22.213  17.649  17.457  0.1496 -0.2095  0.1003
 3679G2HHO Head43210  21.907  17.763  17.319  0.2919  0.1670 -0.0672
 3679G2HHO Head43211  21.844  17.780  16.986 -0.0050  0.1572  0.3639
 3679G2HHO Head43212  22.031  17.790  16.513  0.1112  0.1443  0.0635
 3679G2HHO Head43213  21.773  17.855  16.431  0.2114  0.1433 -0.2809
 3679G2HHO Head43214  21.414  18.409  16.738  0.0010  0.3405  0.0703
 3679G2HHO Head43215  21.618  18.194  16.686  0.4852 -0.1156 -0.7326
 3679G2HHO Head43216  21.541  17.861  16.676  0.1652  0.1369 -0.2107
 3679G2HHO link43217  21.590  17.731  16.896 -0.2497  0.2936 -0.1532
 3679G2HHO link43218  21.387  17.600  17.052 -0.2251  0.0923  0.2011
 3679G2HHO Tail43219  21.140  17.394  16.933 -0.0484 -0.1427 -0.0468
 3679G2HHO Tail43220  21.187  17.089  17.101  0.2762  0.0005 -0.2185
 3679G2HHO Tail43221  21.029  16.946  17.323  0.2525  0.2526  0.1041
 3679G2HHO Tail43222  20.971  16.587  17.562 -0.0359 -0.0809  0.0213
 3679G2HHO Tail43223  20.870  17.506  17.129 -0.0450 -0.0903  0.2668
 3679G2HHO Tail43224  20.702  17.773  17.128  0.0594 -0.0684 -0.3738
 3679G2HHO Tail43225  20.282  17.884  17.157  0.1694  0.0024  0.0171
 3680G2HHO Head43226  12.841  15.847  17.824  0.2804  0.1707 -0.1924
 3680G2HHO Head43227  12.979  15.632  17.940 -0.1514 -0.0285  0.0763
 3680G2HHO Head43228  12.563  15.469  17.904 -0.2102 -0.0703 -0.1717
 3680G2HHO Head43229  12.656  15.507  18.213  0.4026 -0.2901  0.4561
 3680G2HHO Head43230  12.980  15.621  18.278 -0.4972 -0.1290 -0.0533
 3680G2HHO Head43231  12.816  15.433  19.066  0.0339  0.1638  0.2262
 3680G2HHO Head43232  12.785  15.418  18.739 -0.2174 -0.0049 -0.2623
 3680G2HHO Head43233  13.349  14.907  18.855 -0.2350  0.1410 -0.0591
 3680G2HHO Head43234  13.169  15.186  18.853  0.0588 -0.0282 -0.1685
 3680G2HHO Head43235  13.038  15.293  18.533  0.2047 -0.1993 -0.1815
 3680G2HHO link43236  13.147  15.470  18.389  0.1290  0.2194 -0.4037
 3680G2HHO link43237  13.418  15.466  18.340  0.0175 -0.0437 -0.1284
 3680G2HHO Tail43238  13.582  15.754  18.280 -0.0087 -0.2432  0.4078
 3680G2HHO Tail43239  13.696  15.709  17.953 -0.1388 -0.1108  0.1404
 3680G2HHO Tail43240  13.935  15.530  17.841 -0.0972  0.0637 -0.4675
 3680G2HHO Tail43241  14.253  15.567  17.543  0.1986  0.0118  0.0367
 3680G2HHO Tail43242  13.303  15.955  18.299 -0.1395  0.2835 -0.1479
 3680G2HHO Tail43243  13.271  16.271  18.305  0.0745 -0.1727  0.0904
 3680G2HHO Tail43244  13.345  16.602  18.571  0.0603  0.2860  0.0890
 3681G2HHO Head43245  16.560  21.249  19.001 -0.1530  0.0438  0.0963
 3681G2HHO Head43246  16.465  21.520  18.910  0.2496  0.2633  0.4045
 3681G2HHO Head43247  16.251  21.507  19.632  0.2636  0.1667  0.0220
 3681G2HHO Head43248  16.367  21.515  19.335  0.1304  0.0692 -0.4414
 3681G2HHO Head43249  16.212  21.689  19.073 -0.0082 -0.5030  0.0350
 3681G2HHO Head43250  16.290  21.969  19.467 -0.0217  0.4461  0.0979
 3681G2HHO Head43251  15.965  21.839  19.501 -0.0545  0.2673 -0.1958
 3681G2HHO Head43252  15.609  22.096  19.503 -0.3388 -0.0627  0.2903
 3681G2HHO Head43253  15.580  21.828  19.328  0.3576  0.2531  0.1067
 3681G2HHO Head43254  15.865  21.616  19.246  0.5576 -0.3515 -0.3579
 3681G2HHO link43255  15.983  21.632  18.996  0.1200 -0.3306 -0.3605
 3681G2HHO link43256  15.871  21.500  18.778 -0.4237  0.1749  0.0410
 3681G2HHO Tail43257  15.991  21.470  18.471 -0.0617 -0.0590  0.1368
 3681G2HHO Tail43258  16.304  21.322  18.542  0.0259 -0.1752  0.2110
 3681G2HHO Tail43259  16.408  21.023  18.569 -0.3493 -0.1649 -0.2364
 3681G2HHO Tail43260  16.631  20.762  18.314 -0.4037  0.4337  0.1033
 3681G2HHO Tail43261  15.820  21.180  18.362  0.4374  0.3300 -0.1509
 3681G2HHO Tail43262  15.890  20.942  18.165 -0.0018 -0.3796 -0.3003
 3681G2HHO Tail43263  16.236  20.679  18.081 -0.0708 -0.0961  0.0814
 3682G2HHO Head43264  18.336  13.085  15.868 -0.0513 -0.4451  0.0810
 3682G2HHO Head43265  18.636  13.097  15.909 -0.3005 -0.1278 -0.0393
 3682G2HHO Head43266  18.645  12.851  16.289 -0.1620 -0.2698 -0.1402
 3682G2HHO Head43267  18.840  13.109  16.280 -0.0834 -0.0144  0.1068
 3682G2HHO Head43268  18.788  13.374  16.064 -0.5954  0.4175 -0.4338
 3682G2HHO Head43269  19.135  12.728  16.028 -0.1409 -0.0032 -0.0837
 3682G2HHO Head43270  19.001  12.955  15.910 -0.2403  0.1633  0.2259
 3682G2HHO Head43271  19.582  12.942  16.008  0.0914  0.4125  0.4574
 3682G2HHO Head43272  19.325  13.148  16.105 -0.0906 -0.0086  0.4196
 3682G2HHO Head43273  19.118  13.283  15.877  0.1486 -0.0914  0.2401
 3682G2HHO link43274  18.981  13.506  15.939 -0.1149 -0.1714  0.0034
 3682G2HHO link43275  19.096  13.753  15.983 -0.1516 -0.1499 -0.0906
 3682G2HHO Tail43276  19.201  13.773  16.298  0.0629  0.1585 -0.2778
 3682G2HHO Tail43277  18.907  13.882  16.459  0.2322  0.2392 -0.1994
 3682G2HHO Tail43278  18.747  13.803  16.735 -0.0870 -0.1440  0.0806
 3682G2HHO Tail43279  18.694  13.983  17.121 -0.2272 -0.1799  0.0584
 3682G2HHO Tail43280  19.354  14.069  16.233  0.0123  0.2492 -0.0427
 3682G2HHO Tail43281  19.400  14.365  16.372  0.3441  0.5506 -0.0367
 3682G2HHO Tail43282  19.595  14.749  16.322 -0.0759  0.1532 -0.0977
 3683G2HHO Head43283  12.906  18.490  19.582  0.2435  0.1536  0.4756
 3683G2HHO Head43284  12.823  18.767  19.475 -0.1845  0.5448  0.0360
 3683G2HHO Head43285  13.141  18.550  19.015 -0.0358  0.2499  0.0731
 3683G2HHO Head43286  12.852  18.528  19.116 -0.1616 -0.0451 -0.1576
 3683G2HHO Head43287  12.645  18.815  19.185 -0.4281 -0.2504  0.5707
 3683G2HHO Head43288  11.773  18.930  19.233 -0.1663  0.0109  0.2408
 3683G2HHO Head43289  11.976  18.992  19.452 -0.0217 -0.0614  0.3306
 3683G2HHO Head43290  12.353  19.425  19.433  0.0075 -0.1388  0.1881
 3683G2HHO Head43291  12.419  19.141  19.576  0.0609  0.2679  0.4700
 3683G2HHO Head43292  12.297  18.860  19.409  0.2497  0.2252  0.2160
 3683G2HHO link43293  12.390  18.804  19.180 -0.0278  0.0863 -0.3654
 3683G2HHO link43294  12.233  18.694  18.971  0.0731  0.0075 -0.5472
 3683G2HHO Tail43295  12.294  18.408  18.842 -0.3811  0.1722  0.2380
 3683G2HHO Tail43296  12.156  18.456  18.518 -0.0939  0.0150  0.1424
 3683G2HHO Tail43297  12.223  18.496  18.193 -0.3918  0.0611  0.3680
 3683G2HHO Tail43298  12.488  18.306  17.912  0.0697  0.0905 -0.0721
 3683G2HHO Tail43299  12.626  18.434  18.747 -0.1189  0.2126  0.2377
 3683G2HHO Tail43300  12.836  18.182  18.719  0.2940 -0.3350 -0.2568
 3683G2HHO Tail43301  13.205  18.061  18.535  0.1626  0.2201  0.2799
 3684G2HHO Head43302  23.092  16.468  18.271 -0.0789  0.2095 -0.0513
 3684G2HHO Head43303  22.918  16.294  18.475 -0.0097 -0.2146  0.3057
 3684G2HHO Head43304  22.693  16.516  18.898  0.1484  0.2957  0.0595
 3684G2HHO Head43305  22.593  16.261  18.767  0.0626  0.3603  0.3887
 3684G2HHO Head43306  22.581  16.236  18.405  0.2484 -0.1145 -0.1545
 3684G2HHO Head43307  22.367  16.713  17.672  0.1949 -0.0654  0.1465
 3684G2HHO Head43308  22.561  16.771  17.902  0.0309  0.1841 -0.1435
 3684G2HHO Head43309  22.647  16.911  18.557 -0.1633  0.3492 -0.0868
 3684G2HHO Head43310  22.737  16.835  18.255 -0.2354 -0.1933 -0.3896
 3684G2HHO Head43311  22.644  16.521  18.122 -0.1956 -0.1666 -0.1369
 3684G2HHO link43312  22.459  16.390  18.237  0.1677  0.0252 -0.1048
 3684G2HHO link43313  22.210  16.325  18.109 -0.0964 -0.4515  0.0225
 3684G2HHO Tail43314  22.044  16.054  18.112 -0.0724 -0.0174 -0.3606
 3684G2HHO Tail43315  21.774  16.148  17.914 -0.0021 -0.2359 -0.2010
 3684G2HHO Tail43316  21.515  16.333  17.954  0.1300 -0.1731 -0.0861
 3684G2HHO Tail43317  21.413  16.740  17.850  0.1658  0.0624  0.0140
 3684G2HHO Tail43318  21.898  16.134  18.406  0.0116 -0.2226  0.0037
 3684G2HHO Tail43319  21.715  16.361  18.517  0.0456  0.0856  0.0344
 3684G2HHO Tail43320  21.404  16.622  18.389 -0.0919 -0.1092  0.0389
 3685G2HHO Head43321  19.470  15.309  18.755 -0.0552  0.0361  0.0010
 3685G2HHO Head43322  19.329  15.206  18.472  0.0310 -0.1046  0.3776
 3685G2HHO Head43323  19.159  15.652  18.690  0.2873  0.0892  0.0756
 3685G2HHO Head43324  19.211  15.642  18.338  0.0899 -0.1890  0.2090
 3685G2HHO Head43325  19.346  15.362  18.166 -0.1417  0.2885  0.1161
 3685G2HHO Head43326  19.635  15.746  18.548  0.3453  0.0468  0.0892
 3685G2HHO Head43327  19.776  15.505  18.484  0.2952  0.1978  0.1586
 3685G2HHO Head43328  20.111  15.782  18.342 -0.1229 -0.1894  0.4314
 3685G2HHO Head43329  19.995  15.616  18.091 -0.1757  0.4358  0.0255
 3685G2HHO Head43330  19.756  15.379  18.153  0.2058 -0.2258 -0.2501
 3685G2HHO link43331  19.548  15.366  18.012 -0.0666  0.4009 -0.1965
 3685G2HHO link43332  19.549  15.419  17.731 -0.0692  0.3915  0.1985
 3685G2HHO Tail43333  19.364  15.246  17.507  0.1549 -0.3590  0.4468
 3685G2HHO Tail43334  19.107  15.466  17.452 -0.1201  0.0303 -0.0290
 3685G2HHO Tail43335  18.820  15.466  17.344  0.5365 -0.1704 -0.1645
 3685G2HHO Tail43336  18.588  15.275  17.040 -0.0231 -0.1393  0.0678
 3685G2HHO Tail43337  19.560  15.297  17.216 -0.2082 -0.1701 -0.1432
 3685G2HHO Tail43338  19.774  15.126  17.076  0.3619 -0.2169 -0.2421
 3685G2HHO Tail43339  20.114  14.871  17.154  0.1845 -0.2684  0.1879
 3686G2HHO Head43340  15.304  13.546  16.309  0.1951  0.3947 -0.2573
 3686G2HHO Head43341  15.532  13.733  16.358  0.1116  0.1152 -0.4760
 3686G2HHO Head43342  15.872  13.180  16.380 -0.0886  0.0959  0.1156
 3686G2HHO Head43343  15.675  13.373  16.513 -0.4673  0.2585 -0.1858
 3686G2HHO Head43344  15.785  13.686  16.599  0.1003  0.0980 -0.0224
 3686G2HHO Head43345  15.668  13.463  15.960 -0.1044  0.0741 -0.0240
 3686G2HHO Head43346  15.908  13.588  16.035 -0.0915  0.1424 -0.2182
 3686G2HHO Head43347  16.353  13.527  15.834 -0.1862 -0.2961 -0.1303
 3686G2HHO Head43348  16.345  13.654  16.113 -0.0577  0.1782  0.2693
 3686G2HHO Head43349  16.086  13.575  16.333  0.1369  0.0590 -0.1642
 3686G2HHO link43350  16.037  13.735  16.544 -0.3440 -0.4168  0.1520
 3686G2HHO link43351  16.216  13.921  16.671 -0.1754  0.1521  0.4723
 3686G2HHO Tail43352  16.303  13.920  16.988  0.1357 -0.1236  0.1382
 3686G2HHO Tail43353  16.633  13.905  16.958 -0.2064 -0.2700 -0.0844
 3686G2HHO Tail43354  16.852  14.128  16.974  0.1702  0.1393 -0.2216
 3686G2HHO Tail43355  17.079  14.400  17.232  0.0834 -0.3623 -0.0031
 3686G2HHO Tail43356  16.286  14.274  17.041  0.4345 -0.1077 -0.2337
 3686G2HHO Tail43357  16.085  14.517  17.081  0.1624  0.4210  0.2011
 3686G2HHO Tail43358  15.905  14.903  16.957 -0.1360  0.3339 -0.1941
 3687G2HHO Head43359  17.788  15.495  19.515  0.3523  0.4075  0.1721
 3687G2HHO Head43360  17.857  15.311  19.279 -0.0401  0.0472  0.0928
 3687G2HHO Head43361  17.651  15.098  19.834  0.3058 -0.1423 -0.3872
 3687G2HHO Head43362  17.559  15.089  19.540 -0.4974 -0.1494  0.1831
 3687G2HHO Head43363  17.774  14.971  19.290  0.3845 -0.0591  0.3896
 3687G2HHO Head43364  18.196  15.064  19.933  0.2492 -0.0414 -0.2923
 3687G2HHO Head43365  18.125  15.141  19.668  0.1873  0.0554  0.2145
 3687G2HHO Head43366  18.436  14.461  19.613 -0.2506  0.0943  0.0338
 3687G2HHO Head43367  18.382  14.766  19.626  0.1352  0.1574  0.2253
 3687G2HHO Head43368  18.169  14.917  19.386  0.1617 -0.0350 -0.5729
 3687G2HHO link43369  17.959  14.781  19.286 -0.2504 -0.3139 -0.5394
 3687G2HHO link43370  17.970  14.565  19.105  0.1845 -0.2181  0.1676
 3687G2HHO Tail43371  17.791  14.557  18.827  0.0830  0.1493  0.3399
 3687G2HHO Tail43372  17.497  14.439  18.977 -0.1224 -0.2969  0.3614
 3687G2HHO Tail43373  17.202  14.466  18.884  0.3539 -0.3546 -0.2646
 3687G2HHO Tail43374  16.880  14.243  18.682  0.0439 -0.0250 -0.1172
 3687G2HHO Tail43375  17.906  14.239  18.713 -0.1892 -0.2857  0.4104
 3687G2HHO Tail43376  17.998  14.142  18.419  0.0255  0.1325  0.1244
 3687G2HHO Tail43377  18.226  13.845  18.204  0.0942  0.1152 -0.0002
 3688G2HHO Head43378  19.089  16.293  15.438  0.0406  0.1629 -0.2508
 3688G2HHO Head43379  18.809  16.173  15.380  0.0872  0.0162  0.1999
 3688G2HHO Head43380  18.408  16.264  15.129  0.3266 -0.1407 -0.0218
 3688G2HHO Head43381  18.488  15.951  15.138  0.1396 -0.1762 -0.1404
 3688G2HHO Head43382  18.758  15.832  15.317  0.1240  0.3097  0.1063
 3688G2HHO Head43383  18.026  15.724  15.731  0.0731  0.1320 -0.4068
 3688G2HHO Head43384  18.296  15.648  15.777  0.3608  0.1754  0.0953
 3688G2HHO Head43385  17.988  15.489  15.281 -0.0340  0.0404  0.2806
 3688G2HHO Head43386  18.242  15.662  15.328  0.3008  0.0226 -0.2933
 3688G2HHO Head43387  18.511  15.543  15.517  0.2693 -0.2628  0.0441
 3688G2HHO link43388  18.750  15.650  15.509 -0.1376  0.0139  0.4296
 3688G2HHO link43389  18.982  15.504  15.588 -0.2006 -0.1601  0.0714
 3688G2HHO Tail43390  18.996  15.169  15.563 -0.0757  0.2054 -0.1525
 3688G2HHO Tail43391  19.258  15.070  15.777  0.1564 -0.1179 -0.3565
 3688G2HHO Tail43392  19.263  14.902  16.063  0.0631 -0.4927  0.0141
 3688G2HHO Tail43393  19.034  14.627  16.308 -0.2019 -0.3822 -0.1444
 3688G2HHO Tail43394  18.724  15.083  15.775 -0.3050 -0.0672 -0.0449
 3688G2HHO Tail43395  18.702  14.942  16.059  0.3294  0.0499 -0.0804
 3688G2HHO Tail43396  18.455  14.636  16.251 -0.3559  0.0988  0.0426
 3689G2HHO Head43397  15.930  14.023  16.298 -0.1990  0.2933 -0.3237
 3689G2HHO Head43398  16.038  14.139  15.976  0.2918  0.2316  0.2089
 3689G2HHO Head43399  16.134  14.870  15.864 -0.0980 -0.2211 -0.0726
 3689G2HHO Head43400  16.082  14.539  15.994 -0.2014 -0.1164 -0.3006
 3689G2HHO Head43401  16.333  14.312  15.919  0.0898 -0.0953  0.1195
 3689G2HHO Head43402  16.587  15.012  16.183 -0.1190 -0.1238  0.4380
 3689G2HHO Head43403  16.556  14.803  15.983  0.3596  0.1141  0.2657
 3689G2HHO Head43404  17.116  14.832  16.255  0.0279  0.0358  0.0078
 3689G2HHO Head43405  16.843  14.649  16.293  0.0189 -0.1387  0.1971
 3689G2HHO Head43406  16.675  14.472  16.042 -0.2999 -0.1671 -0.4335
 3689G2HHO link43407  16.520  14.267  16.092 -0.0543 -0.0390  0.0774
 3689G2HHO link43408  16.497  14.115  16.332  0.4682 -0.0065 -0.2152
 3689G2HHO Tail43409  16.723  14.114  16.562 -0.1574 -0.0243  0.1831
 3689G2HHO Tail43410  16.998  14.214  16.384  0.1380 -0.1469 -0.0059
 3689G2HHO Tail43411  17.297  14.164  16.404 -0.1007 -0.1949  0.2320
 3689G2HHO Tail43412  17.641  14.346  16.573 -0.3469  0.0034 -0.0052
 3689G2HHO Tail43413  16.627  14.411  16.728 -0.3969  0.0668  0.2104
 3689G2HHO Tail43414  16.653  14.546  17.024 -0.2618 -0.3506 -0.0544
 3689G2HHO Tail43415  16.393  14.623  17.383  0.0419  0.3612  0.4292
 3690G2HHO Head43416  20.582  16.908  19.323  0.0525 -0.3763  0.4985
 3690G2HHO Head43417  20.661  16.770  19.066 -0.3901 -0.2920  0.2788
 3690G2HHO Head43418  20.502  17.354  19.110  0.4183  0.1799  0.1430
 3690G2HHO Head43419  20.349  17.094  18.975 -0.0542  0.2876 -0.0682
 3690G2HHO Head43420  20.541  16.889  18.778 -0.3998  0.4657  0.3908
 3690G2HHO Head43421  20.407  16.166  19.193 -0.1085  0.3542 -0.0836
 3690G2HHO Head43422  20.441  16.428  19.080  0.0247 -0.1592 -0.1709
 3690G2HHO Head43423  19.932  16.397  19.146  0.1516  0.0625 -0.0661
 3690G2HHO Head43424  20.061  16.607  18.946 -0.3324 -0.0216 -0.3630
 3690G2HHO Head43425  20.332  16.514  18.756  0.1518 -0.2738  0.1229
 3690G2HHO link43426  20.455  16.712  18.612  0.1134  0.0486 -0.3599
 3690G2HHO link43427  20.486  16.713  18.338 -0.0779 -0.1635  0.0763
 3690G2HHO Tail43428  20.256  16.793  18.125 -0.2116 -0.3869 -0.1197
 3690G2HHO Tail43429  20.437  17.021  17.928  0.0458 -0.5127 -0.2758
 3690G2HHO Tail43430  20.341  17.287  17.777  0.2415  0.3863  0.0865
 3690G2HHO Tail43431  19.989  17.466  17.627 -0.2818 -0.0884 -0.0515
 3690G2HHO Tail43432  20.269  16.532  17.889  0.2644  0.0258  0.0528
 3690G2HHO Tail43433  20.380  16.512  17.603 -0.0230  0.6823 -0.3766
 3690G2HHO Tail43434  20.618  16.226  17.379 -0.0204 -0.0853  0.0748
 3691G2HHO Head43435  22.367  13.947  17.073 -0.1480  0.1402  0.0649
 3691G2HHO Head43436  22.183  13.853  17.314  0.2350  0.1200  0.0855
 3691G2HHO Head43437  22.107  14.324  17.754  0.3319 -0.4559 -0.0130
 3691G2HHO Head43438  22.051  14.056  17.636 -0.0529  0.0661  0.1193
 3691G2HHO Head43439  21.865  13.997  17.350  0.1204  0.1882 -0.0117
 3691G2HHO Head43440  22.137  13.642  17.756  0.0776 -0.1134 -0.3389
 3691G2HHO Head43441  22.063  13.479  17.560  0.0762 -0.0549  0.5345
 3691G2HHO Head43442  21.459  13.533  17.867 -0.1111 -0.0655  0.1792
 3691G2HHO Head43443  21.666  13.373  17.642  0.1201 -0.1898 -0.1731
 3691G2HHO Head43444  21.775  13.564  17.359  0.0825  0.1466  0.1451
 3691G2HHO link43445  21.661  13.805  17.336  0.0432  0.3183 -0.1483
 3691G2HHO link43446  21.403  13.858  17.466  0.1247  0.0280 -0.1136
 3691G2HHO Tail43447  21.270  14.152  17.539 -0.0068  0.3507 -0.1070
 3691G2HHO Tail43448  21.069  14.219  17.252  0.0059  0.4033  0.0505
 3691G2HHO Tail43449  20.925  14.499  17.130 -0.2715 -0.2342 -0.4116
 3691G2HHO Tail43450  20.535  14.676  17.040  0.0669 -0.3422  0.5065
 3691G2HHO Tail43451  21.019  14.038  17.740  0.2798  0.1245  0.1463
 3691G2HHO Tail43452  20.835  14.195  17.947 -0.0646 -0.0398  0.0701
 3691G2HHO Tail43453  20.849  14.466  18.292  0.1252  0.1458 -0.0198
 3692G2HHO Head43454  15.184  16.559  19.161 -0.0602  0.1729 -0.2167
 3692G2HHO Head43455  15.124  16.646  18.847 -0.3895  0.2183  0.1416
 3692G2HHO Head43456  15.612  16.311  18.909  0.0668 -0.0089 -0.2886
 3692G2HHO Head43457  15.299  16.224  18.835 -0.0640  0.0510 -0.0457
 3692G2HHO Head43458  15.117  16.408  18.594  0.1371  0.1378  0.2528
 3692G2HHO Head43459  14.400  16.738  18.961  0.0549  0.0279  0.0603
 3692G2HHO Head43460  14.690  16.598  18.904 -0.1352 -0.2929  0.2118
 3692G2HHO Head43461  15.027  15.969  19.057  0.0234  0.1110  0.0031
 3692G2HHO Head43462  14.853  16.218  19.041 -0.2878  0.0956  0.7370
 3692G2HHO Head43463  14.727  16.308  18.719 -0.0501 -0.2187 -0.1050
 3692G2HHO link43464  14.906  16.317  18.510  0.3034 -0.0108  0.1789
 3692G2HHO link43465  14.856  16.214  18.247  0.1685 -0.1235  0.0354
 3692G2HHO Tail43466  15.082  16.052  18.074 -0.1114  0.4692 -0.1510
 3692G2HHO Tail43467  14.941  15.731  18.026 -0.0078  0.0330  0.1104
 3692G2HHO Tail43468  15.002  15.407  18.008 -0.2032  0.0416 -0.2607
 3692G2HHO Tail43469  14.785  15.056  17.928  0.1288  0.3833 -0.0405
 3692G2HHO Tail43470  14.990  16.172  17.758 -0.2846 -0.1483 -0.1516
 3692G2HHO Tail43471  14.723  16.256  17.610  0.3320  0.0268  0.3924
 3692G2HHO Tail43472  14.417  16.101  17.327  0.0009  0.1753 -0.0467
 3693G2HHO Head43473  14.153  21.457  18.627  0.1072  0.0422 -0.2324
 3693G2HHO Head43474  14.350  21.445  18.863  0.1396  0.1660 -0.2750
 3693G2HHO Head43475  14.408  22.138  18.864 -0.1591 -0.1800  0.1109
 3693G2HHO Head43476  14.391  21.874  18.988  0.1050 -0.2176  0.0337
 3693G2HHO Head43477  14.650  21.650  18.935  0.2215 -0.2371 -0.2838
 3693G2HHO Head43478  14.201  22.013  19.383  0.1934 -0.2550  0.0719
 3693G2HHO Head43479  14.384  21.785  19.490 -0.2606  0.2968  0.1241
 3693G2HHO Head43480  14.990  21.395  19.773 -0.1071  0.1856 -0.0540
 3693G2HHO Head43481  14.763  21.671  19.666  0.0683  0.1277  0.2511
 3693G2HHO Head43482  14.729  21.775  19.336  0.5575 -0.2552  0.3962
 3693G2HHO link43483  14.811  21.601  19.126  0.2644  0.0068 -0.4159
 3693G2HHO link43484  14.983  21.366  19.151 -0.1513  0.0179  0.1853
 3693G2HHO Tail43485  14.923  21.079  19.005 -0.1056 -0.3969  0.4539
 3693G2HHO Tail43486  14.665  21.155  18.794 -0.0297  0.0721  0.4607
 3693G2HHO Tail43487  14.657  21.386  18.572 -0.5032 -0.0632 -0.0688
 3693G2HHO Tail43488  14.542  21.800  18.529  0.3374  0.2078 -0.0242
 3693G2HHO Tail43489  15.196  21.090  18.765 -0.0626  0.2474  0.0857
 3693G2HHO Tail43490  15.265  21.229  18.505 -0.0998  0.0354  0.0321
 3693G2HHO Tail43491  15.369  21.156  18.087  0.1966 -0.1219 -0.1322
 3694G2HHO Head43492  21.614  14.603  18.657 -0.1569 -0.1755 -0.1767
 3694G2HHO Head43493  21.612  14.888  18.837 -0.1377 -0.0348  0.1046
 3694G2HHO Head43494  21.921  14.654  19.211 -0.0589 -0.1255  0.1153
 3694G2HHO Head43495  21.609  14.608  19.162 -0.2036 -0.0980  0.1740
 3694G2HHO Head43496  21.400  14.885  19.118 -0.1176 -0.1919  0.2460
 3694G2HHO Head43497  21.615  14.960  19.560 -0.0637  0.0349  0.1866
 3694G2HHO Head43498  21.434  14.678  19.513  0.3468  0.2032 -0.4376
 3694G2HHO Head43499  21.355  14.247  19.525 -0.0434 -0.0696 -0.3587
 3694G2HHO Head43500  21.257  14.356  19.281 -0.0679  0.1557 -0.0558
 3694G2HHO Head43501  21.144  14.677  19.311  0.4115  0.2691  0.1564
 3694G2HHO link43502  21.141  14.846  19.096  0.6805 -0.1210 -0.1238
 3694G2HHO link43503  20.935  15.026  19.005  0.2449 -0.1996  0.1081
 3694G2HHO Tail43504  20.916  15.115  18.678  0.0060  0.1523  0.0245
 3694G2HHO Tail43505  20.964  15.472  18.668  0.1267  0.1658  0.1485
 3694G2HHO Tail43506  20.853  15.722  18.501 -0.2095  0.0189  0.0165
 3694G2HHO Tail43507  20.815  15.848  18.085  0.0486  0.2186  0.1349
 3694G2HHO Tail43508  21.250  15.018  18.546  0.5774  0.0285  0.0357
 3694G2HHO Tail43509  21.398  15.095  18.255  0.0530  0.1366  0.0539
 3694G2HHO Tail43510  21.506  14.901  17.892 -0.4061 -0.1406 -0.1367
 3695G2HHO Head43511  12.076  16.222  18.230  0.0096  0.2968  0.2390
 3695G2HHO Head43512  12.332  16.387  18.269  0.1873  0.1622  0.1212
 3695G2HHO Head43513  12.800  16.349  18.605  0.3072  0.1635 -0.1791
 3695G2HHO Head43514  12.719  16.482  18.355 -0.2786 -0.0123 -0.3614
 3695G2HHO Head43515  12.610  16.320  18.065 -0.0906 -0.2510  0.0754
 3695G2HHO Head43516  12.002  16.461  17.388 -0.0121 -0.1068  0.0901
 3695G2HHO Head43517  12.303  16.561  17.497  0.5394  0.3528  0.3814
 3695G2HHO Head43518  11.922  16.031  17.629  0.0555 -0.0141 -0.2198
 3695G2HHO Head43519  12.110  16.263  17.776 -0.1823 -0.4306  0.2221
 3695G2HHO Head43520  12.453  16.337  17.696  0.1791  0.4082 -0.4046
 3695G2HHO link43521  12.637  16.429  17.849  0.1848  0.1064  0.1794
 3695G2HHO link43522  12.775  16.666  17.785 -0.0220 -0.2238 -0.0428
 3695G2HHO Tail43523  12.682  16.864  17.549  0.2504 -0.3756  0.5489
 3695G2HHO Tail43524  12.421  17.024  17.712  0.0548  0.0152  0.1663
 3695G2HHO Tail43525  12.429  17.312  17.863  0.0804  0.0946  0.2207
 3695G2HHO Tail43526  12.709  17.623  17.979 -0.1996  0.1104 -0.2151
 3695G2HHO Tail43527  12.925  17.116  17.582  0.0176  0.4989  0.2034
 3695G2HHO Tail43528  13.090  17.228  17.823 -0.1123 -0.0713  0.4845
 3695G2HHO Tail43529  13.481  17.239  17.990  0.0821 -0.1655  0.2637
 3696G2HHO Head43530  16.929  15.704  16.578 -0.2088  0.0907  0.5328
 3696G2HHO Head43531  16.970  15.742  16.262  0.1330  0.1611 -0.1460
 3696G2HHO Head43532  16.547  15.464  16.353  0.0981  0.1228 -0.1398
 3696G2HHO Head43533  16.645  15.506  16.112 -0.1445 -0.1501  0.1283
 3696G2HHO Head43534  16.722  15.852  16.068  0.3008 -0.2011  0.0217
 3696G2HHO Head43535  17.010  16.607  16.397 -0.2342  0.2057  0.0712
 3696G2HHO Head43536  16.979  16.348  16.287  0.3366 -0.2225 -0.1069
 3696G2HHO Head43537  16.302  16.508  16.460 -0.0048  0.1392 -0.0710
 3696G2HHO Head43538  16.586  16.513  16.366 -0.2403  0.0670  0.3304
 3696G2HHO Head43539  16.681  16.262  16.131  0.3269 -0.0532  0.0271
 3696G2HHO link43540  16.553  16.046  16.164  0.1993  0.2064 -0.1034
 3696G2HHO link43541  16.277  16.006  16.242  0.1276  0.2545  0.2567
 3696G2HHO Tail43542  16.204  15.743  16.413 -0.2088  0.0906  0.0446
 3696G2HHO Tail43543  15.854  15.772  16.421 -0.0775  0.3128  0.5220
 3696G2HHO Tail43544  15.601  15.607  16.544  0.0875  0.1097  0.2509
 3696G2HHO Tail43545  15.437  15.207  16.598 -0.2254  0.2425 -0.2598
 3696G2HHO Tail43546  16.264  15.880  16.734  0.0895 -0.1098  0.3165
 3696G2HHO Tail43547  16.120  15.869  17.019 -0.4005 -0.1860 -0.1950
 3696G2HHO Tail43548  15.721  15.872  17.207  0.0564 -0.1262 -0.2690
 3697G2HHO Head43549  12.617  20.812  17.340 -0.0088  0.0715 -0.2101
 3697G2HHO Head43550  12.697  20.619  17.563  0.0309  0.3073  0.2908
 3697G2HHO Head43551  12.677  20.202  17.763 -0.1567  0.0533  0.1833
 3697G2HHO Head43552  12.914  20.355  17.834 -0.3243  0.0602  0.2917
 3697G2HHO Head43553  13.026  20.635  17.661 -0.1455 -0.1034 -0.0587
 3697G2HHO Head43554  12.882  21.202  18.491  0.2533 -0.1605 -0.4108
 3697G2HHO Head43555  13.047  20.936  18.366  0.1245 -0.2804 -0.0487
 3697G2HHO Head43556  12.528  21.123  17.807  0.3959 -0.1264 -0.0611
 3697G2HHO Head43557  12.707  21.060  18.067 -0.1166  0.1337  0.1027
 3697G2HHO Head43558  12.969  20.842  18.021  0.1499  0.0749 -0.1101
 3697G2HHO link43559  13.119  20.843  17.801  0.1920 -0.1474 -0.1146
 3697G2HHO link43560  13.385  20.938  17.786 -0.3288  0.3034 -0.1139
 3697G2HHO Tail43561  13.614  20.819  17.586 -0.0302  0.1864  0.0200
 3697G2HHO Tail43562  13.447  20.837  17.286  0.5442  0.0068  0.2028
 3697G2HHO Tail43563  13.510  20.737  17.005  0.2784  0.6154  0.2548
 3697G2HHO Tail43564  13.833  20.583  16.757 -0.5343 -0.1246  0.3180
 3697G2HHO Tail43565  13.877  21.051  17.527  0.3445 -0.1743 -0.3327
 3697G2HHO Tail43566  14.177  21.012  17.387  0.5498 -0.5630  0.1068
 3697G2HHO Tail43567  14.613  20.976  17.422  0.0661 -0.1047  0.2194
 3698G2HHO Head43568  15.800  18.836  19.321 -0.0436 -0.3115 -0.0823
 3698G2HHO Head43569  16.068  18.897  19.214  0.0517 -0.1580  0.1858
 3698G2HHO Head43570  15.911  19.204  19.620  0.0413 -0.0073 -0.3557
 3698G2HHO Head43571  16.115  19.299  19.426 -0.0032 -0.1565  0.3350
 3698G2HHO Head43572  16.120  19.222  19.075 -0.2353  0.2669  0.1151
 3698G2HHO Head43573  15.189  18.990  18.981  0.3172 -0.2567  0.1459
 3698G2HHO Head43574  15.488  19.144  19.086  0.5471 -0.0007  0.0995
 3698G2HHO Head43575  15.583  18.885  18.400 -0.3844  0.0654  0.0238
 3698G2HHO Head43576  15.527  19.087  18.648  0.3266  0.1358 -0.1634
 3698G2HHO Head43577  15.767  19.135  18.897 -0.3598 -0.1311 -0.2057
 3698G2HHO link43578  15.962  19.328  18.906  0.1795  0.0595 -0.0836
 3698G2HHO link43579  16.023  19.448  18.657  0.1001 -0.1108 -0.2808
 3698G2HHO Tail43580  16.329  19.536  18.599  0.0728  0.3200  0.2424
 3698G2HHO Tail43581  16.328  19.505  18.250  0.0276 -0.0882 -0.0704
 3698G2HHO Tail43582  16.468  19.669  18.018  0.0399  0.1999  0.1374
 3698G2HHO Tail43583  16.860  19.705  17.807  0.0580  0.5261  0.0529
 3698G2HHO Tail43584  16.485  19.248  18.711 -0.1600 -0.0367 -0.0576
 3698G2HHO Tail43585  16.564  18.976  18.590  0.8603  0.1025 -0.1317
 3698G2HHO Tail43586  16.827  18.778  18.309  0.1607  0.2993 -0.2119
 3699G2HHO Head43587  16.282  14.636  19.835  0.1839 -0.0581 -0.3773
 3699G2HHO Head43588  16.197  14.397  19.626  0.2012  0.0126 -0.0797
 3699G2HHO Head43589  16.785  14.005  19.528  0.2767 -0.0276  0.1890
 3699G2HHO Head43590  16.498  14.025  19.492 -0.1351  0.2557 -0.2660
 3699G2HHO Head43591  16.381  14.332  19.349 -0.1512 -0.2306 -0.0450
 3699G2HHO Head43592  16.044  13.982  19.631 -0.2670  0.2743  0.0777
 3699G2HHO Head43593  15.919  14.004  19.329  0.0934  0.1521 -0.2571
 3699G2HHO Head43594  15.645  14.360  19.529 -0.0422 -0.0704  0.2989
 3699G2HHO Head43595  15.793  14.456  19.278 -0.1291 -0.2795  0.1012
 3699G2HHO Head43596  16.027  14.249  19.124  0.2672  0.1667 -0.2400
 3699G2HHO link43597  16.283  14.333  19.115  0.4139  0.0676 -0.6385
 3699G2HHO link43598  16.414  14.401  18.877 -0.3381  0.0277  0.0460
 3699G2HHO Tail43599  16.297  14.639  18.674  0.1481  0.4456 -0.1322
 3699G2HHO Tail43600  16.557  14.657  18.419  0.0346  0.3262 -0.4356
 3699G2HHO Tail43601  16.621  14.557  18.109  0.2055  0.3712 -0.2647
 3699G2HHO Tail43602  16.677  14.182  17.900  0.0583 -0.2899 -0.1144
 3699G2HHO Tail43603  16.078  14.428  18.524  0.1227 -0.0029 -0.1024
 3699G2HHO Tail43604  15.829  14.448  18.323 -0.1200 -0.1765 -0.2051
 3699G2HHO Tail43605  15.397  14.404  18.346  0.2052  0.2018 -0.2652
 3700G2HHO Head43606  15.551  16.965  16.491 -0.0892 -0.1500  0.0872
 3700G2HHO Head43607  15.293  16.975  16.682 -0.0708 -0.1206 -0.0304
 3700G2HHO Head43608  15.609  17.034  17.063  0.2284  0.2391 -0.3716
 3700G2HHO Head43609  15.288  16.863  17.095 -0.0011  0.2553 -0.2198
 3700G2HHO Head43610  15.184  16.679  16.827  0.1779  0.0816 -0.1321
 3700G2HHO Head43611  15.956  16.463  16.901 -0.3189  0.1141  0.1331
 3700G2HHO Head43612  15.760  16.617  16.763  0.6083 -0.0720  0.2946
 3700G2HHO Head43613  15.808  16.225  16.265  0.3411 -0.1471  0.1774
 3700G2HHO Head43614  15.685  16.239  16.529  0.0196 -0.0476 -0.2811
 3700G2HHO Head43615  15.465  16.493  16.610 -0.0710  0.0459  0.3755
 3700G2HHO link43616  15.269  16.445  16.746 -0.2214 -0.1865  0.0137
 3700G2HHO link43617  15.097  16.231  16.698 -0.3873 -0.1409 -0.0922
 3700G2HHO Tail43618  14.793  16.254  16.788 -0.2315  0.0269 -0.0427
 3700G2HHO Tail43619  14.761  15.926  16.883 -0.1648 -0.3754 -0.0988
 3700G2HHO Tail43620  14.822  15.774  17.153 -0.0018  0.0171  0.2509
 3700G2HHO Tail43621  14.695  15.794  17.556  0.1204  0.3556  0.2967
 3700G2HHO Tail43622  14.854  16.426  17.091  0.0519  0.0131 -0.2273
 3700G2HHO Tail43623  14.886  16.738  17.163  0.3015  0.1003  0.2515
 3700G2HHO Tail43624  14.770  17.046  17.437 -0.2765 -0.0769 -0.0627
 3701G2HHO Head43625  18.321  19.782  17.511  0.2242 -0.0137  0.0870
 3701G2HHO Head43626  18.255  19.520  17.271  0.3025  0.3261 -0.0969
 3701G2HHO Head43627  18.287  19.089  17.170 -0.1523 -0.0415 -0.0254
 3701G2HHO Head43628  18.026  19.201  17.117 -0.2130 -0.3623  0.1856
 3701G2HHO Head43629  17.991  19.551  17.047 -0.0873  0.2545  0.5861
 3701G2HHO Head43630  17.814  19.299  16.678  0.1687 -0.0939 -0.0049
 3701G2HHO Head43631  17.595  19.544  16.704 -0.2254 -0.1241  0.2355
 3701G2HHO Head43632  17.813  19.908  16.383  0.0067  0.1075  0.0729
 3701G2HHO Head43633  17.841  19.963  16.692  0.0550 -0.2281 -0.2251
 3701G2HHO Head43634  17.674  19.768  16.936 -0.4323  0.2091  0.0850
 3701G2HHO link43635  17.798  19.684  17.139  0.1797 -0.3914  0.1157
 3701G2HHO link43636  17.820  19.835  17.367  0.0023  0.1983 -0.4355
 3701G2HHO Tail43637  17.723  19.708  17.660  0.2956 -0.0960  0.2117
 3701G2HHO Tail43638  17.958  19.844  17.865 -0.2239 -0.1700 -0.0913
 3701G2HHO Tail43639  18.003  20.122  18.019 -0.2260 -0.2955  0.1902
 3701G2HHO Tail43640  18.315  20.423  18.096 -0.1667  0.1180 -0.2118
 3701G2HHO Tail43641  17.456  19.938  17.729 -0.1102 -0.2405  0.1562
 3701G2HHO Tail43642  17.328  20.085  17.987  0.1763 -0.1165  0.1011
 3701G2HHO Tail43643  17.250  20.459  18.165 -0.0115 -0.0121  0.0600
 3702G2HHO Head43644  18.384  17.818  16.508  0.1409  0.1474 -0.0839
 3702G2HHO Head43645  18.444  17.551  16.434 -0.1729  0.1876 -0.0024
 3702G2HHO Head43646  18.698  17.212  17.006 -0.2350  0.3432  0.0619
 3702G2HHO Head43647  18.574  17.256  16.734  0.0229 -0.0429 -0.0123
 3702G2HHO Head43648  18.765  17.440  16.512 -0.1536  0.0405 -0.0988
 3702G2HHO Head43649  18.207  17.309  16.156  0.0121  0.2815 -0.0028
 3702G2HHO Head43650  18.459  17.433  16.027  0.0168 -0.1395  0.3137
 3702G2HHO Head43651  18.450  17.067  15.736 -0.0458 -0.2124 -0.0364
 3702G2HHO Head43652  18.747  17.107  15.862 -0.4444  0.3138 -0.0761
 3702G2HHO Head43653  18.805  17.354  16.098 -0.2197 -0.0137  0.1561
 3702G2HHO link43654  18.899  17.317  16.338  0.0043 -0.1127  0.0049
 3702G2HHO link43655  19.082  17.111  16.422 -0.1360  0.1410  0.0689
 3702G2HHO Tail43656  19.414  17.165  16.455  0.1245 -0.1473  0.3337
 3702G2HHO Tail43657  19.412  17.333  16.757 -0.3560  0.1219  0.1427
 3702G2HHO Tail43658  19.610  17.415  16.991 -0.0464  0.0957  0.0839
 3702G2HHO Tail43659  19.817  17.750  17.171 -0.0410 -0.2313 -0.0672
 3702G2HHO Tail43660  19.513  16.855  16.563  0.0425  0.2966 -0.2770
 3702G2HHO Tail43661  19.646  16.739  16.828  0.2214  0.2817 -0.1427
 3702G2HHO Tail43662  19.993  16.518  16.913 -0.2122 -0.1866 -0.2821
 3703G2HHO Head43663  13.053  16.518  19.371 -0.1187 -0.3091 -0.1753
 3703G2HHO Head43664  13.235  16.580  19.148 -0.0125 -0.2121 -0.4138
 3703G2HHO Head43665  13.325  16.138  19.348 -0.4034 -0.0842  0.3565
 3703G2HHO Head43666  13.587  16.325  19.348 -0.2214  0.0847  0.0384
 3703G2HHO Head43667  13.571  16.653  19.272  0.2200 -0.2025 -0.2603
 3703G2HHO Head43668  13.734  16.985  19.755  0.1348  0.4873 -0.1689
 3703G2HHO Head43669  13.869  17.117  19.509  0.1159  0.4604  0.1188
 3703G2HHO Head43670  14.323  17.028  19.351 -0.2678 -0.0025 -0.1748
 3703G2HHO Head43671  14.087  17.154  19.154  0.0245 -0.2270  0.2408
 3703G2HHO Head43672  13.768  17.034  19.183 -0.0300  0.2836  0.1335
 3703G2HHO link43673  13.744  16.775  19.096  0.0804 -0.3888  0.6290
 3703G2HHO link43674  13.867  16.667  18.847  0.2312  0.0952 -0.0196
 3703G2HHO Tail43675  14.015  16.842  18.616  0.0147  0.0313  0.0399
 3703G2HHO Tail43676  13.816  16.815  18.316  0.0650  0.2352 -0.2141
 3703G2HHO Tail43677  13.842  16.783  18.002 -0.2425 -0.2411 -0.1275
 3703G2HHO Tail43678  13.903  16.465  17.718  0.0016  0.1872  0.0185
 3703G2HHO Tail43679  13.981  17.168  18.684 -0.3310 -0.0837 -0.3364
 3703G2HHO Tail43680  14.131  17.445  18.595  0.1448 -0.1724  0.2212
 3703G2HHO Tail43681  14.182  17.692  18.232 -0.2628 -0.2101  0.0712
 3704G2HHO Head43682  21.598  15.829  19.669 -0.3949 -0.0769  0.0318
 3704G2HHO Head43683  21.696  15.966  19.387 -0.0460  0.2220 -0.2431
 3704G2HHO Head43684  21.866  15.672  18.670 -0.0880  0.0042 -0.0146
 3704G2HHO Head43685  21.773  15.735  19.010 -0.3341  0.2417  0.0677
 3704G2HHO Head43686  21.994  15.861  19.245  0.3834  0.2403  0.3781
 3704G2HHO Head43687  22.091  15.469  19.413  0.3444  0.1919  0.1450
 3704G2HHO Head43688  22.369  15.588  19.372  0.3764 -0.0700 -0.1221
 3704G2HHO Head43689  22.550  16.246  19.703  0.2214 -0.2622 -0.0634
 3704G2HHO Head43690  22.510  15.931  19.571 -0.2798  0.0749 -0.0368
 3704G2HHO Head43691  22.405  15.904  19.246 -0.3173 -0.0584  0.4427
 3704G2HHO link43692  22.177  16.024  19.151 -0.3878 -0.2108 -0.2230
 3704G2HHO link43693  22.160  16.172  18.909 -0.0424  0.0392 -0.1878
 3704G2HHO Tail43694  22.202  16.502  18.888 -0.0030  0.5844 -0.0808
 3704G2HHO Tail43695  21.878  16.596  18.940  0.0187  0.6512  0.0102
 3704G2HHO Tail43696  21.585  16.636  18.831 -0.0488  0.0254 -0.2689
 3704G2HHO Tail43697  21.329  16.979  18.745 -0.2461  0.2549  0.1693
 3704G2HHO Tail43698  22.247  16.551  18.550  0.1862  0.2792  0.4190
 3704G2HHO Tail43699  22.235  16.797  18.360 -0.1241 -0.0201 -0.0476
 3704G2HHO Tail43700  22.298  17.231  18.352 -0.1902 -0.2565 -0.3929
 3705G2HHO Head43701  14.615  15.429  19.173 -0.0123  0.3018 -0.2139
 3705G2HHO Head43702  14.679  15.109  19.058 -0.4613 -0.1594 -0.1092
 3705G2HHO Head43703  14.419  15.491  18.587 -0.0015  0.2655  0.2537
 3705G2HHO Head43704  14.705  15.352  18.687 -0.4082 -0.2076  0.1952
 3705G2HHO Head43705  14.738  15.015  18.732  0.2317 -0.1050  0.3581
 3705G2HHO Head43706  15.360  14.869  19.299  0.1944  0.3229 -0.1053
 3705G2HHO Head43707  15.114  14.871  19.167  0.3744  0.1289  0.3379
 3705G2HHO Head43708  15.158  15.548  18.906 -0.0452 -0.1692  0.0098
 3705G2HHO Head43709  15.036  15.279  18.983  0.1476 -0.2499 -0.3891
 3705G2HHO Head43710  15.106  14.982  18.829 -0.0714 -0.1625  0.1621
 3705G2HHO link43711  14.933  14.884  18.646 -0.3761 -0.2949 -0.0005
 3705G2HHO link43712  14.999  14.809  18.376  0.2334 -0.0146 -0.1022
 3705G2HHO Tail43713  15.218  14.979  18.200 -0.2006  0.2917 -0.2249
 3705G2HHO Tail43714  15.481  14.980  18.442  0.1774 -0.0726  0.5163
 3705G2HHO Tail43715  15.713  14.794  18.545  0.3933 -0.1803  0.2441
 3705G2HHO Tail43716  15.933  14.780  18.915 -0.3310  0.0483 -0.0477
 3705G2HHO Tail43717  15.335  14.725  17.974  0.0745  0.1389  0.0337
 3705G2HHO Tail43718  15.373  14.703  17.671  0.1311 -0.1659  0.2948
 3705G2HHO Tail43719  15.507  14.938  17.348 -0.0257  0.0102 -0.0107
 3706G2HHO Head43720  19.121  21.401  20.091 -0.1959  0.1177  0.4334
 3706G2HHO Head43721  19.115  21.178  19.891  0.1708 -0.1041  0.2319
 3706G2HHO Head43722  19.327  20.593  20.099  0.0245 -0.1927 -0.3205
 3706G2HHO Head43723  19.177  20.835  20.126 -0.0953 -0.1698  0.0838
 3706G2HHO Head43724  18.895  20.913  19.924  0.4116  0.0524  0.1404
 3706G2HHO Head43725  18.432  21.533  20.463 -0.0875 -0.0033  0.0918
 3706G2HHO Head43726  18.385  21.271  20.330  0.2679  0.0538  0.2889
 3706G2HHO Head43727  19.068  21.034  20.482 -0.0813  0.0965 -0.1391
 3706G2HHO Head43728  18.861  21.226  20.406  0.0930  0.1594  0.0187
 3706G2HHO Head43729  18.641  21.174  20.143  0.1213 -0.2043  0.2261
 3706G2HHO link43730  18.654  20.952  20.011 -0.1419 -0.0967  0.1150
 3706G2HHO link43731  18.431  20.860  19.872 -0.2200 -0.0227 -0.1037
 3706G2HHO Tail43732  18.432  20.798  19.546  0.2573  0.2686  0.1314
 3706G2HHO Tail43733  18.270  20.475  19.550  0.0623 -0.0327 -0.0307
 3706G2HHO Tail43734  18.009  20.362  19.406 -0.1378  0.0592 -0.1365
 3706G2HHO Tail43735  17.848  20.011  19.204  0.1505  0.0537  0.2094
 3706G2HHO Tail43736  18.154  20.990  19.446 -0.0943 -0.1342 -0.3892
 3706G2HHO Tail43737  17.932  20.936  19.228  0.2329 -0.2435 -0.6272
 3706G2HHO Tail43738  17.693  20.616  19.080  0.0127  0.0569  0.3399
 3707G2HHO Head43739  11.444  19.699  18.287  0.0653 -0.1551  0.1356
 3707G2HHO Head43740  11.743  19.590  18.339  0.5434  0.0895  0.0970
 3707G2HHO Head43741  11.331  19.166  18.100 -0.2464 -0.1594 -0.2941
 3707G2HHO Head43742  11.629  19.236  18.137  0.1786  0.0729  0.1342
 3707G2HHO Head43743  11.777  19.264  18.456 -0.1296  0.3113  0.3466
 3707G2HHO Head43744  12.081  19.968  18.783 -0.0312  0.1112  0.2922
 3707G2HHO Head43745  11.960  19.670  18.774  0.0194 -0.2687  0.0936
 3707G2HHO Head43746  12.561  19.762  18.484  0.2171  0.4861 -0.2175
 3707G2HHO Head43747  12.276  19.679  18.476 -0.0055  0.3485 -0.0431
 3707G2HHO Head43748  12.149  19.402  18.641 -0.2826 -0.2192  0.1020
 3707G2HHO link43749  12.032  19.191  18.517 -0.1399 -0.6100  0.3200
 3707G2HHO link43750  12.148  18.934  18.510 -0.0018  0.3064 -0.0208
 3707G2HHO Tail43751  12.466  18.931  18.623 -0.3974  0.1864 -0.2132
 3707G2HHO Tail43752  12.644  18.756  18.379  0.0807  0.1771  0.0481
 3707G2HHO Tail43753  12.650  18.448  18.302 -0.1858 -0.1495 -0.0905
 3707G2HHO Tail43754  12.428  18.075  18.358 -0.3797 -0.2658 -0.0197
 3707G2HHO Tail43755  12.533  19.258  18.507 -0.0312  0.1181 -0.2965
 3707G2HHO Tail43756  12.746  19.396  18.311 -0.2623  0.4416  0.0282
 3707G2HHO Tail43757  13.151  19.561  18.299  0.1101 -0.2384  0.0904
 3708G2HHO Head43758  16.656  18.210  17.914  0.1287  0.0632  0.3336
 3708G2HHO Head43759  16.831  18.352  18.078 -0.1253 -0.0730  0.2672
 3708G2HHO Head43760  17.259  18.258  17.564 -0.0331 -0.0881  0.0817
 3708G2HHO Head43761  17.082  18.144  17.772  0.0385 -0.3243  0.2836
 3708G2HHO Head43762  17.135  18.222  18.105 -0.6319 -0.0955  0.1158
 3708G2HHO Head43763  17.362  18.180  18.804 -0.3560  0.1016 -0.0708
 3708G2HHO Head43764  17.197  18.425  18.720  0.2460 -0.0165  0.1510
 3708G2HHO Head43765  17.585  18.923  18.375 -0.1381 -0.0598 -0.0068
 3708G2HHO Head43766  17.341  18.808  18.497 -0.5221  0.2776  0.2809
 3708G2HHO Head43767  17.211  18.502  18.376  0.0160  0.3487 -0.4085
 3708G2HHO link43768  17.350  18.366  18.188 -0.2220 -0.1185 -0.3259
 3708G2HHO link43769  17.539  18.510  18.020 -0.0999  0.1756 -0.2959
 3708G2HHO Tail43770  17.473  18.754  17.808  0.1030 -0.0703  0.2398
 3708G2HHO Tail43771  17.217  18.918  17.995 -0.0637 -0.0252 -0.1218
 3708G2HHO Tail43772  17.151  19.204  18.082 -0.1927  0.2466  0.5580
 3708G2HHO Tail43773  17.325  19.605  18.070  0.4206 -0.1676  0.1264
 3708G2HHO Tail43774  17.741  18.963  17.833  0.1488  0.0618  0.0990
 3708G2HHO Tail43775  17.953  19.037  18.055  0.1096  0.0801 -0.2315
 3708G2HHO Tail43776  17.976  19.128  18.481 -0.1173 -0.2889  0.0751
 3709G2HHO Head43777  18.723  18.948  20.340 -0.1514 -0.1400  0.0410
 3709G2HHO Head43778  18.758  19.239  20.306  0.1384 -0.2771  0.0165
 3709G2HHO Head43779  18.641  19.379  19.875  0.2082 -0.1498 -0.0988
 3709G2HHO Head43780  18.413  19.390  20.096 -0.4360 -0.0803  0.0036
 3709G2HHO Head43781  18.504  19.443  20.436  0.1206  0.2853  0.1803
 3709G2HHO Head43782  18.141  19.159  21.228  0.1342  0.4123 -0.0548
 3709G2HHO Head43783  18.411  19.128  21.072  0.0497  0.0403  0.0840
 3709G2HHO Head43784  18.966  18.971  20.915 -0.0720  0.3050 -0.1736
 3709G2HHO Head43785  18.795  19.190  20.775  0.3017  0.1769  0.3171
 3709G2HHO Head43786  18.448  19.158  20.729  0.0668  0.4087 -0.2076
 3709G2HHO link43787  18.327  19.362  20.618 -0.2246  0.3282  0.4791
 3709G2HHO link43788  18.109  19.512  20.695  0.2908  0.0873 -0.1439
 3709G2HHO Tail43789  18.009  19.769  20.519 -0.0869 -0.3247 -0.1149
 3709G2HHO Tail43790  18.306  19.947  20.474 -0.0114  0.2374  0.0002
 3709G2HHO Tail43791  18.397  20.227  20.326  0.4546 -0.3966  0.2176
 3709G2HHO Tail43792  18.652  20.366  20.019  0.0960 -0.1868  0.2814
 3709G2HHO Tail43793  17.986  19.610  20.206 -0.0962  0.2042 -0.2442
 3709G2HHO Tail43794  17.866  19.668  19.920 -0.2482  0.0844 -0.2880
 3709G2HHO Tail43795  17.991  19.679  19.517 -0.1056 -0.0606 -0.1563
 3710G2HHO Head43796  17.552  19.963  20.407 -0.0815 -0.1937  0.0887
 3710G2HHO Head43797  17.449  19.998  20.128 -0.3108 -0.0518  0.0680
 3710G2HHO Head43798  16.855  20.161  20.083 -0.1571 -0.0260 -0.1235
 3710G2HHO Head43799  16.993  19.859  20.161  0.4820  0.1044 -0.3800
 3710G2HHO Head43800  17.262  19.728  20.001  0.3365 -0.3602 -0.5960
 3710G2HHO Head43801  17.381  19.285  20.786  0.1748  0.0877  0.1091
 3710G2HHO Head43802  17.244  19.226  20.509 -0.2217  0.1283 -0.0212
 3710G2HHO Head43803  17.015  19.770  20.761  0.1098  0.0045  0.0526
 3710G2HHO Head43804  17.240  19.652  20.579 -0.1521 -0.0408  0.0836
 3710G2HHO Head43805  17.163  19.475  20.288  0.0494  0.1962  0.2314
 3710G2HHO link43806  17.329  19.492  20.085 -0.7160  0.2966  0.2983
 3710G2HHO link43807  17.423  19.266  19.945 -0.2181  0.1038 -0.1815
 3710G2HHO Tail43808  17.497  19.267  19.613  0.4677  0.1172 -0.2900
 3710G2HHO Tail43809  17.493  19.614  19.568  0.2090  0.4591  0.3151
 3710G2HHO Tail43810  17.405  19.811  19.319 -0.1387 -0.0898  0.0292
 3710G2HHO Tail43811  17.350  19.821  18.883 -0.0145 -0.0670  0.3098
 3710G2HHO Tail43812  17.834  19.226  19.641 -0.0321 -0.1783 -0.2434
 3710G2HHO Tail43813  18.073  19.197  19.443  0.0843 -0.4065  0.2386
 3710G2HHO Tail43814  18.118  19.124  19.014  0.0336 -0.1479  0.2680
 3711G2HHO Head43815  21.367  19.160  19.048  0.0804  0.0273  0.1129
 3711G2HHO Head43816  21.256  18.944  19.224  0.3522 -0.1976 -0.4289
 3711G2HHO Head43817  21.020  18.789  19.700 -0.0410  0.0494 -0.1412
 3711G2HHO Head43818  21.325  18.793  19.619 -0.0118  0.3890 -0.0100
 3711G2HHO Head43819  21.409  18.645  19.325 -0.1257  0.3748 -0.5546
 3711G2HHO Head43820  21.803  18.169  19.755 -0.1235 -0.3772 -0.0549
 3711G2HHO Head43821  21.739  18.183  19.452  0.1044 -0.3969  0.2589
 3711G2HHO Head43822  21.089  18.005  19.764  0.0209  0.0514 -0.4056
 3711G2HHO Head43823  21.344  18.176  19.695 -0.3683  0.4461  0.0466
 3711G2HHO Head43824  21.408  18.209  19.361 -0.1394 -0.0423  0.1642
 3711G2HHO link43825  21.303  18.412  19.228 -0.7451  0.0262  0.0604
 3711G2HHO link43826  21.128  18.367  19.012 -0.0875 -0.2268  0.1449
 3711G2HHO Tail43827  21.244  18.225  18.750  0.1095  0.1219 -0.1373
 3711G2HHO Tail43828  20.921  18.110  18.620  0.1223 -0.0737  0.0989
 3711G2HHO Tail43829  20.821  18.157  18.325 -0.3149  0.2957 -0.0058
 3711G2HHO Tail43830  20.863  17.997  17.925  0.0981 -0.2770 -0.0356
 3711G2HHO Tail43831  21.300  18.487  18.520 -0.2351  0.3478  0.0819
 3711G2HHO Tail43832  21.128  18.746  18.438 -0.1764 -0.7803  0.0439
 3711G2HHO Tail43833  20.968  19.128  18.612  0.1964 -0.1851 -0.0645
 3712G2HHO Head43834  16.513  15.797  17.779  0.4939 -0.2066 -0.0088
 3712G2HHO Head43835  16.623  15.702  18.056  0.1907  0.3876  0.0594
 3712G2HHO Head43836  16.760  15.147  18.573  0.0554  0.1945 -0.1285
 3712G2HHO Head43837  16.635  15.353  18.383  0.1377 -0.4458 -0.1446
 3712G2HHO Head43838  16.779  15.391  18.077  0.1215  0.1095  0.5635
 3712G2HHO Head43839  17.386  15.537  18.667  0.1901  0.2298 -0.2203
 3712G2HHO Head43840  17.125  15.466  18.530  0.2187  0.1750  0.0656
 3712G2HHO Head43841  16.735  15.788  18.513 -0.0994 -0.2591  0.4082
 3712G2HHO Head43842  16.964  15.775  18.299 -0.1579 -0.5444  0.2408
 3712G2HHO Head43843  17.136  15.494  18.191 -0.2383 -0.1787  0.0083
 3712G2HHO link43844  17.011  15.318  18.019 -0.4739 -0.1268  0.0678
 3712G2HHO link43845  17.105  15.210  17.771 -0.1725  0.0049 -0.0156
 3712G2HHO Tail43846  16.892  15.106  17.538  0.0033 -0.0578  0.1592
 3712G2HHO Tail43847  16.773  14.804  17.697  0.2191 -0.0732 -0.0718
 3712G2HHO Tail43848  16.824  14.502  17.649  0.0634  0.4216 -0.0112
 3712G2HHO Tail43849  16.675  14.153  17.417 -0.2063 -0.1577  0.0830
 3712G2HHO Tail43850  16.635  15.341  17.623  0.1431  0.0180 -0.0036
 3712G2HHO Tail43851  16.352  15.459  17.493  0.3409  0.0437 -0.1079
 3712G2HHO Tail43852  16.176  15.856  17.494  0.3392  0.0966  0.3187
 3713G2HHO Head43853  15.382  21.853  16.478  0.3747  0.1163 -0.1998
 3713G2HHO Head43854  15.241  21.749  16.739 -0.3519  0.1851 -0.1742
 3713G2HHO Head43855  14.885  21.907  16.536 -0.1541 -0.3728 -0.0328
 3713G2HHO Head43856  14.827  21.594  16.611 -0.1315 -0.2823  0.4989
 3713G2HHO Head43857  15.090  21.420  16.772 -0.2303  0.1052 -0.0960
 3713G2HHO Head43858  14.861  21.356  16.001 -0.1390 -0.1182  0.0504
 3713G2HHO Head43859  15.089  21.463  16.246  0.0457 -0.5036  0.0359
 3713G2HHO Head43860  15.075  20.747  16.293  0.2511 -0.0672  0.0710
 3713G2HHO Head43861  15.154  21.029  16.197  0.1442  0.0271 -0.0571
 3713G2HHO Head43862  15.275  21.250  16.433  0.2390  0.2687  0.0530
 3713G2HHO link43863  15.205  21.198  16.693 -0.0423  0.2759  0.4308
 3713G2HHO link43864  15.140  20.938  16.791 -0.0925 -0.2444 -0.0434
 3713G2HHO Tail43865  15.345  20.775  16.982 -0.0538  0.2394 -0.0145
 3713G2HHO Tail43866  15.458  21.000  17.208 -0.2269  0.1863  0.1031
 3713G2HHO Tail43867  15.673  21.044  17.440 -0.0649  0.1103  0.6356
 3713G2HHO Tail43868  15.750  21.298  17.794 -0.2537 -0.1753  0.3145
 3713G2HHO Tail43869  15.130  20.612  17.188 -0.1897  0.0313  0.0854
 3713G2HHO Tail43870  15.052  20.314  17.272  0.3224 -0.1668  0.2262
 3713G2HHO Tail43871  15.191  19.899  17.250  0.0583 -0.1678  0.2299
 3714G2HHO Head43872  12.249  19.894  17.588  0.1034  0.1860  0.0867
 3714G2HHO Head43873  12.474  19.786  17.457  0.2251  0.4835 -0.0770
 3714G2HHO Head43874  12.330  19.402  17.669 -0.0335 -0.0995  0.1848
 3714G2HHO Head43875  12.312  19.356  17.380  0.4379  0.0169  0.2360
 3714G2HHO Head43876  12.439  19.594  17.160  0.0856 -0.0801  0.1539
 3714G2HHO Head43877  12.269  20.088  16.544 -0.0194  0.2787  0.3108
 3714G2HHO Head43878  12.372  19.949  16.790  0.0121  0.2980  0.3587
 3714G2HHO Head43879  12.746  19.712  16.224  0.0514 -0.3556 -0.2506
 3714G2HHO Head43880  12.736  19.822  16.536 -0.3210  0.0115 -0.0825
 3714G2HHO Head43881  12.537  19.648  16.772 -0.1078 -0.1349  0.0382
 3714G2HHO link43882  12.631  19.522  16.969  0.0850  0.3894 -0.0374
 3714G2HHO link43883  12.770  19.273  16.923 -0.3130 -0.1042 -0.5095
 3714G2HHO Tail43884  12.642  18.980  16.991 -0.0145 -0.2392  0.0568
 3714G2HHO Tail43885  12.651  18.992  17.346  0.0296 -0.0340  0.0285
 3714G2HHO Tail43886  12.909  18.940  17.578 -0.0762 -0.0074  0.2087
 3714G2HHO Tail43887  12.911  18.710  17.934  0.2637 -0.1877 -0.0013
 3714G2HHO Tail43888  12.914  18.774  16.946 -0.4333 -0.3426 -0.0702
 3714G2HHO Tail43889  13.092  18.581  17.110  0.0363  0.2795 -0.1431
 3714G2HHO Tail43890  13.458  18.610  17.345 -0.3946 -0.0023 -0.0974
 3715G2HHO Head43891  18.933  16.823  17.392  0.1035 -0.0986 -0.2599
 3715G2HHO Head43892  18.687  16.949  17.356 -0.0506 -0.1516 -0.4457
 3715G2HHO Head43893  18.234  17.218  17.264  0.0658 -0.0928  0.0726
 3715G2HHO Head43894  18.447  17.287  17.458  0.2226 -0.1125 -0.1768
 3715G2HHO Head43895  18.522  17.021  17.659  0.0933 -0.0968 -0.0758
 3715G2HHO Head43896  18.473  16.498  17.523 -0.0618  0.1593 -0.2845
 3715G2HHO Head43897  18.636  16.529  17.785 -0.1744  0.0797  0.1405
 3715G2HHO Head43898  18.090  16.605  18.212  0.0133  0.0880  0.0804
 3715G2HHO Head43899  18.269  16.691  17.955  0.1814  0.1826  0.0671
 3715G2HHO Head43900  18.596  16.796  18.002  0.2867 -0.5824  0.4878
 3715G2HHO link43901  18.652  17.040  17.906 -0.2702  0.0798 -0.4633
 3715G2HHO link43902  18.893  17.174  17.988 -0.0713 -0.1113  0.1090
 3715G2HHO Tail43903  18.951  17.484  17.912 -0.0439  0.1674  0.3131
 3715G2HHO Tail43904  19.021  17.635  18.224 -0.2278  0.1867 -0.1007
 3715G2HHO Tail43905  18.955  17.543  18.511  0.0146 -0.1307  0.2006
 3715G2HHO Tail43906  19.087  17.591  18.904 -0.0285 -0.1953  0.1385
 3715G2HHO Tail43907  19.265  17.452  17.771  0.2988  0.0735  0.3693
 3715G2HHO Tail43908  19.385  17.512  17.481 -0.4054  0.0622 -0.1261
 3715G2HHO Tail43909  19.273  17.741  17.126 -0.0362  0.1418 -0.3446
 3716G2HHO Head43910  15.827  22.219  18.637 -0.1783 -0.0492 -0.0138
 3716G2HHO Head43911  15.907  21.916  18.589 -0.0006  0.5561 -0.1481
 3716G2HHO Head43912  16.557  22.229  18.854  0.0925 -0.1048  0.0310
 3716G2HHO Head43913  16.305  22.026  18.866 -0.0912 -0.3362 -0.5283
 3716G2HHO Head43914  16.229  21.796  18.634 -0.3387  0.2257  0.0324
 3716G2HHO Head43915  16.972  21.974  18.136  0.3312  0.1142 -0.1601
 3716G2HHO Head43916  16.925  21.761  18.344 -0.1180 -0.0521  0.0234
 3716G2HHO Head43917  16.982  22.115  18.632 -0.1805 -0.2377  0.2386
 3716G2HHO Head43918  16.799  21.871  18.751 -0.0774 -0.1346 -0.1337
 3716G2HHO Head43919  16.640  21.668  18.507  0.0544  0.0017 -0.0881
 3716G2HHO link43920  16.391  21.737  18.427 -0.2919  0.0433 -0.6195
 3716G2HHO link43921  16.310  21.722  18.159 -0.0624  0.1018  0.0977
 3716G2HHO Tail43922  16.094  21.497  18.028 -0.3174 -0.0220  0.1169
 3716G2HHO Tail43923  16.160  21.537  17.677  0.2122 -0.1970  0.0282
 3716G2HHO Tail43924  16.361  21.397  17.504  0.2898  0.0879 -0.5063
 3716G2HHO Tail43925  16.714  21.494  17.258 -0.2179  0.1551 -0.1499
 3716G2HHO Tail43926  16.270  21.189  18.070 -0.2703 -0.3461  0.0190
 3716G2HHO Tail43927  16.486  21.028  17.921  0.2436  0.2294  0.1851
 3716G2HHO Tail43928  16.593  20.826  17.551  0.3989 -0.1011 -0.2777
 3717G2HHO Head43929  14.875  14.372  16.265 -0.2425  0.0340 -0.1203
 3717G2HHO Head43930  14.581  14.484  16.163  0.0851  0.2550 -0.2253
 3717G2HHO Head43931  13.970  14.611  16.169 -0.3233 -0.2111  0.2462
 3717G2HHO Head43932  14.138  14.397  16.311  0.1017  0.2801  0.0832
 3717G2HHO Head43933  14.369  14.206  16.119  0.3416  0.0818 -0.0643
 3717G2HHO Head43934  14.107  13.464  15.723 -0.2933 -0.0251  0.0091
 3717G2HHO Head43935  14.104  13.759  15.829  0.1578  0.2103  0.0422
 3717G2HHO Head43936  13.854  14.111  16.446  0.2388  0.4099 -0.0952
 3717G2HHO Head43937  13.939  13.932  16.159  0.1652 -0.1951 -0.0330
 3717G2HHO Head43938  14.259  13.805  16.139  0.1862  0.1456 -0.1704
 3717G2HHO link43939  14.457  13.971  16.172 -0.0596 -0.0088  0.5350
 3717G2HHO link43940  14.732  13.906  16.237 -0.1284  0.0211  0.0616
 3717G2HHO Tail43941  14.882  13.954  16.539  0.0519  0.1792  0.1467
 3717G2HHO Tail43942  14.895  13.621  16.672 -0.6041  0.2654 -0.1789
 3717G2HHO Tail43943  15.005  13.483  16.953 -0.1622 -0.0998  0.2067
 3717G2HHO Tail43944  14.823  13.299  17.310  0.0073  0.3121 -0.2319
 3717G2HHO Tail43945  15.201  13.994  16.412 -0.1464 -0.2689  0.0770
 3717G2HHO Tail43946  15.464  14.164  16.483 -0.4463 -0.1762 -0.1519
 3717G2HHO Tail43947  15.777  14.176  16.800  0.1860 -0.0949 -0.1818
 3718G2HHO Head43948  21.678  14.003  17.926  0.2242  0.0686  0.0503
 3718G2HHO Head43949  21.373  14.021  17.965  0.2282  0.2576 -0.0315
 3718G2HHO Head43950  21.787  13.676  18.293  0.1649  0.0180 -0.0762
 3718G2HHO Head43951  21.522  13.864  18.367 -0.2428  0.0948  0.4360
 3718G2HHO Head43952  21.216  13.858  18.216 -0.0303 -0.0250  0.0659
 3718G2HHO Head43953  21.438  14.255  18.938 -0.0051 -0.1126  0.4213
 3718G2HHO Head43954  21.364  14.135  18.638  0.1032  0.2350  0.2157
 3718G2HHO Head43955  21.262  13.510  18.725  0.0738 -0.0430 -0.0103
 3718G2HHO Head43956  21.166  13.797  18.800 -0.4637 -0.1642  0.1827
 3718G2HHO Head43957  21.044  14.038  18.566  0.0796  0.1882  0.0662
 3718G2HHO link43958  20.983  13.972  18.331  0.5086  0.3432  0.4159
 3718G2HHO link43959  20.725  13.897  18.225  0.2691  0.1257  0.3551
 3718G2HHO Tail43960  20.420  14.029  18.332  0.1754  0.0057  0.3219
 3718G2HHO Tail43961  20.544  14.159  18.618  0.2573 -0.2348  0.3363
 3718G2HHO Tail43962  20.620  14.435  18.734 -0.0952 -0.3786  0.1202
 3718G2HHO Tail43963  20.544  14.867  18.711  0.4388 -0.1333  0.3325
 3718G2HHO Tail43964  20.364  14.311  18.131  0.0960 -0.0104 -0.1555
 3718G2HHO Tail43965  20.454  14.418  17.848 -0.0872  0.2200  0.0160
 3718G2HHO Tail43966  20.497  14.270  17.444  0.1292  0.5265  0.3484
 3719G2HHO Head43967  16.466  12.306  17.729  0.3452  0.0442  0.2447
 3719G2HHO Head43968  16.530  12.438  18.014  0.1317 -0.6925 -0.1496
 3719G2HHO Head43969  16.016  12.337  17.938  0.4496  0.2601  0.0082
 3719G2HHO Head43970  16.113  12.583  18.153  0.7146 -0.0706  0.4957
 3719G2HHO Head43971  16.394  12.744  18.050 -0.4608 -0.2413 -0.1736
 3719G2HHO Head43972  16.019  12.931  18.774  0.2166 -0.0479 -0.3672
 3719G2HHO Head43973  16.113  12.823  18.535 -0.2732 -0.3373  0.1882
 3719G2HHO Head43974  16.449  12.588  18.904  0.2106  0.3348  0.1533
 3719G2HHO Head43975  16.447  12.599  18.601 -0.0092  0.1203 -0.1721
 3719G2HHO Head43976  16.423  12.902  18.447 -0.1042  0.1317 -0.3131
 3719G2HHO link43977  16.508  12.935  18.187  0.2736  0.6186  0.4049
 3719G2HHO link43978  16.601  13.179  18.076 -0.1447 -0.4316 -0.0977
 3719G2HHO Tail43979  16.882  13.256  17.931 -0.0756  0.0212 -0.1170
 3719G2HHO Tail43980  16.777  13.410  17.626 -0.2292 -0.2293 -0.3931
 3719G2HHO Tail43981  16.848  13.707  17.509 -0.2286  0.0325 -0.0397
 3719G2HHO Tail43982  17.136  13.877  17.233  0.3892  0.0101  0.1810
 3719G2HHO Tail43983  16.928  13.561  18.074 -0.1941  0.0907 -0.2642
 3719G2HHO Tail43984  16.963  13.859  17.969 -0.0558 -0.0293  0.1313
 3719G2HHO Tail43985  17.110  14.104  17.627 -0.0921  0.2444 -0.1366
 3720G2HHO Head43986  20.466  14.067  19.133  0.2115 -0.0830  0.6287
 3720G2HHO Head43987  20.443  13.774  19.010 -0.2885 -0.3331 -0.3573
 3720G2HHO Head43988  20.275  13.196  19.341  0.0300  0.2103 -0.4308
 3720G2HHO Head43989  20.241  13.505  19.332 -0.3577  0.0350 -0.0109
 3720G2HHO Head43990  20.135  13.644  19.029 -0.0093 -0.1356 -0.1206
 3720G2HHO Head43991  19.847  13.365  19.493 -0.3379  0.0655  0.0231
 3720G2HHO Head43992  19.684  13.408  19.222 -0.1749  0.0715  0.1652
 3720G2HHO Head43993  19.214  13.920  18.912  0.1893 -0.0208  0.1234
 3720G2HHO Head43994  19.418  13.737  19.094 -0.0863 -0.1932 -0.1163
 3720G2HHO Head43995  19.749  13.670  19.002 -0.1256 -0.0945 -0.0875
 3720G2HHO link43996  19.937  13.829  19.050  0.1743  0.3731 -0.0886
 3720G2HHO link43997  19.962  14.087  18.963  0.0306 -0.2126 -0.2247
 3720G2HHO Tail43998  19.976  14.153  18.642  0.1260 -0.0784 -0.0532
 3720G2HHO Tail43999  19.644  14.255  18.619 -0.1349  0.0076  0.0193
 3720G2HHO Tail44000  19.396  14.129  18.449  0.1843 -0.0203 -0.0756
 3720G2HHO Tail44001  18.976  14.177  18.496  0.1206  0.2297 -0.1926
 3720G2HHO Tail44002  20.153  14.475  18.634 -0.0744 -0.0233 -0.1235
 3720G2HHO Tail44003  20.220  14.696  18.435  0.0097  0.0969  0.3535
 3720G2HHO Tail44004  20.546  14.876  18.194 -0.1315  0.2381  0.3442
 3721G2HHO Head44005  20.732  20.483  17.132  0.1425 -0.1977 -0.5433
 3721G2HHO Head44006  20.735  20.407  17.448  0.0566  0.0801 -0.0149
 3721G2HHO Head44007  20.360  20.162  17.092  0.0015  0.3288  0.2102
 3721G2HHO Head44008  20.626  20.011  17.210 -0.3048  0.5972  0.1499
 3721G2HHO Head44009  20.746  20.065  17.520  0.0222 -0.1482 -0.4859
 3721G2HHO Head44010  21.288  19.621  17.466  0.2922 -0.1477 -0.1124
 3721G2HHO Head44011  21.182  19.887  17.637 -0.0036 -0.0472  0.0344
 3721G2HHO Head44012  21.152  20.368  17.763  0.0029 -0.1175  0.0463
 3721G2HHO Head44013  21.075  20.162  17.979 -0.4918 -0.0664  0.2075
 3721G2HHO Head44014  20.897  19.892  17.859  0.1551 -0.3988  0.1822
 3721G2HHO link44015  20.672  19.952  17.748  0.5679  0.1967  0.2943
 3721G2HHO link44016  20.397  19.910  17.832  0.2366 -0.3595 -0.1075
 3721G2HHO Tail44017  20.146  19.774  17.663 -0.1140  0.0296  0.0669
 3721G2HHO Tail44018  20.277  19.474  17.568 -0.4202  0.2791 -0.1034
 3721G2HHO Tail44019  20.257  19.167  17.660 -0.2115 -0.3439 -0.0825
 3721G2HHO Tail44020  20.543  18.840  17.737 -0.2590 -0.2058 -0.1330
 3721G2HHO Tail44021  19.967  19.641  17.936 -0.3289 -0.1864 -0.0542
 3721G2HHO Tail44022  19.693  19.717  18.109 -0.1607  0.1014 -0.2164
 3721G2HHO Tail44023  19.287  19.559  18.150 -0.0638 -0.0141  0.1062
 3722G2HHO Head44024  14.914  22.012  18.974  0.3217  0.0769 -0.3343
 3722G2HHO Head44025  15.228  21.948  18.978  0.3452  0.4065  0.0114
 3722G2HHO Head44026  15.886  22.062  19.074 -0.0659  0.0659 -0.0057
 3722G2HHO Head44027  15.671  21.891  18.947  0.0341  0.1251  0.3084
 3722G2HHO Head44028  15.435  21.986  18.703  0.3068 -0.2898  0.1233
 3722G2HHO Head44029  15.579  22.599  18.391  0.1404  0.0562 -0.0883
 3722G2HHO Head44030  15.591  22.286  18.244  0.2057  0.2276  0.0884
 3722G2HHO Head44031  14.920  22.317  18.561  0.0311  0.0307 -0.2473
 3722G2HHO Head44032  15.191  22.346  18.390  0.2430 -0.2421  0.2618
 3722G2HHO Head44033  15.345  22.044  18.290  0.2873 -0.2180 -0.1250
 3722G2HHO link44034  15.387  21.840  18.479  0.3216  0.2591  0.9454
 3722G2HHO link44035  15.507  21.588  18.421  0.1297 -0.0966 -0.0233
 3722G2HHO Tail44036  15.629  21.553  18.121 -0.1828 -0.0019  0.1437
 3722G2HHO Tail44037  15.362  21.668  17.945 -0.1355 -0.0010  0.2435
 3722G2HHO Tail44038  15.070  21.551  17.856 -0.6179  0.2204  0.5795
 3722G2HHO Tail44039  14.809  21.190  17.846 -0.0334  0.0277 -0.0968
 3722G2HHO Tail44040  15.853  21.825  18.123  0.4049  0.3122  0.1030
 3722G2HHO Tail44041  16.006  21.931  17.885 -0.1302  0.2303  0.1694
 3722G2HHO Tail44042  16.411  22.066  17.788 -0.0322  0.0249 -0.1702
 3723G2HHO Head44043  21.058  15.605  16.144  0.2326 -0.2114  0.1674
 3723G2HHO Head44044  20.893  15.454  15.859  0.1139  0.5261  0.1257
 3723G2HHO Head44045  20.553  15.609  16.352 -0.0803  0.2657  0.0015
 3723G2HHO Head44046  20.666  15.354  16.245  0.2668 -0.2656  0.1632
 3723G2HHO Head44047  20.630  15.265  15.912  0.2509  0.3272 -0.2649
 3723G2HHO Head44048  20.207  15.417  15.050  0.3827 -0.0270 -0.1665
 3723G2HHO Head44049  20.381  15.487  15.307  0.1777 -0.1809  0.0799
 3723G2HHO Head44050  19.985  14.957  15.520 -0.0846 -0.1011  0.0973
 3723G2HHO Head44051  20.131  15.138  15.391  0.2245 -0.2523  0.2456
 3723G2HHO Head44052  20.425  15.242  15.546  0.2933 -0.0331 -0.0887
 3723G2HHO link44053  20.404  15.294  15.780  0.0621  0.5792  0.1612
 3723G2HHO link44054  20.183  15.460  15.857 -0.1103 -0.3045  0.2932
 3723G2HHO Tail44055  19.921  15.399  16.042  0.0505  0.2508 -0.4193
 3723G2HHO Tail44056  19.655  15.532  15.869 -0.0387  0.0094 -0.1624
 3723G2HHO Tail44057  19.337  15.517  15.883 -0.2571  0.2908 -0.3554
 3723G2HHO Tail44058  18.991  15.391  16.104  0.0425 -0.2588 -0.2797
 3723G2HHO Tail44059  19.871  15.056  15.988  0.3077 -0.3305 -0.0991
 3723G2HHO Tail44060  19.633  14.868  15.868 -0.0240 -0.1964 -0.0602
 3723G2HHO Tail44061  19.462  14.475  15.923 -0.3171  0.1812  0.2673
 3724G2HHO Head44062  15.617  20.106  20.509 -0.2046  0.1870  0.5744
 3724G2HHO Head44063  15.907  20.123  20.349 -0.1450 -0.2572 -0.0448
 3724G2HHO Head44064  15.469  20.695  20.159 -0.0594  0.1660 -0.0523
 3724G2HHO Head44065  15.591  20.390  20.140 -0.1000 -0.3170 -0.2795
 3724G2HHO Head44066  15.932  20.350  20.088  0.0351  0.1318 -0.0974
 3724G2HHO Head44067  16.305  20.375  20.445  0.0620 -0.1615 -0.0257
 3724G2HHO Head44068  16.389  20.140  20.269 -0.2455  0.0800  0.1748
 3724G2HHO Head44069  16.184  19.702  20.135  0.0456  0.2795  0.1306
 3724G2HHO Head44070  16.381  19.867  19.959 -0.4058  0.0702  0.1788
 3724G2HHO Head44071  16.294  20.203  19.936  0.2517 -0.1127 -0.0968
 3724G2HHO link44072  16.044  20.263  19.871  0.0770 -0.0403 -0.0286
 3724G2HHO link44073  15.996  20.371  19.621  0.1363  0.2617 -0.1882
 3724G2HHO Tail44074  16.233  20.416  19.405 -0.3366  0.1074  0.4790
 3724G2HHO Tail44075  16.088  20.281  19.106 -0.3568  0.1622 -0.2156
 3724G2HHO Tail44076  16.032  20.377  18.827 -0.1686 -0.1610 -0.3897
 3724G2HHO Tail44077  16.052  20.753  18.606  0.2287  0.0934  0.2182
 3724G2HHO Tail44078  16.461  20.165  19.501  0.0725 -0.1139  0.0447
 3724G2HHO Tail44079  16.734  20.065  19.390  0.2407  0.3904  0.1841
 3724G2HHO Tail44080  16.940  19.735  19.209 -0.2100 -0.2107 -0.2900
 3725G2HHO Head44081  15.617  19.906  15.966 -0.1266  0.3413 -0.0106
 3725G2HHO Head44082  15.474  19.750  16.185 -0.3854  0.0741  0.2865
 3725G2HHO Head44083  15.290  20.216  16.253  0.2464 -0.1898  0.0639
 3725G2HHO Head44084  15.046  19.987  16.278  0.0410  0.0638  0.1076
 3725G2HHO Head44085  15.137  19.662  16.147  0.2037 -0.2424 -0.1617
 3725G2HHO Head44086  15.692  18.949  16.190 -0.3222  0.0281 -0.0631
 3725G2HHO Head44087  15.548  19.256  16.130 -0.0967  0.1234  0.3354
 3725G2HHO Head44088  15.324  18.689  16.284 -0.1738  0.2630  0.2283
 3725G2HHO Head44089  15.290  19.011  16.380 -0.0106 -0.1091  0.1702
 3725G2HHO Head44090  15.214  19.240  16.130 -0.1891 -0.1527  0.0302
 3725G2HHO link44091  15.036  19.450  16.205 -0.1750  0.4251 -0.0682
 3725G2HHO link44092  14.819  19.410  16.384  0.2392  0.1536 -0.3117
 3725G2HHO Tail44093  14.799  19.147  16.596 -0.1057 -0.1976 -0.2142
 3725G2HHO Tail44094  14.470  19.169  16.714 -0.0222 -0.0242 -0.1985
 3725G2HHO Tail44095  14.315  19.183  17.001 -0.1045 -0.3012  0.2666
 3725G2HHO Tail44096  14.107  19.471  17.248  0.0864  0.0186 -0.0024
 3725G2HHO Tail44097  14.757  18.879  16.392  0.0759  0.2130 -0.0945
 3725G2HHO Tail44098  14.750  18.562  16.476  0.1237  0.1869  0.0170
 3725G2HHO Tail44099  14.440  18.256  16.577 -0.0167  0.3953 -0.1492
 3726G2HHO Head44100  14.149  15.585  19.054  0.4088 -0.0218 -0.1943
 3726G2HHO Head44101  13.996  15.380  19.180  0.1908  0.3307 -0.1318
 3726G2HHO Head44102  13.879  14.654  19.021  0.1210 -0.1018  0.0196
 3726G2HHO Head44103  13.934  14.911  19.141 -0.0907  0.4443  0.0268
 3726G2HHO Head44104  13.768  15.195  19.008  0.1229  0.0676  0.0760
 3726G2HHO Head44105  13.320  15.458  19.336  0.0320 -0.1000  0.1969
 3726G2HHO Head44106  13.555  15.602  19.091  0.2278 -0.6368 -0.2356
 3726G2HHO Head44107  14.023  15.868  18.686  0.0204 -0.3275 -0.2660
 3726G2HHO Head44108  13.706  15.788  18.696 -0.2349 -0.1799  0.3454
 3726G2HHO Head44109  13.597  15.462  18.788  0.1441  0.0631  0.1270
 3726G2HHO link44110  13.729  15.244  18.764 -0.2834  0.2976  0.3969
 3726G2HHO link44111  13.740  15.068  18.551  0.0034  0.2199  0.1082
 3726G2HHO Tail44112  13.923  15.153  18.291  0.4578 -0.0855  0.1696
 3726G2HHO Tail44113  13.709  15.088  18.021 -0.2645 -0.0062  0.1320
 3726G2HHO Tail44114  13.754  15.084  17.700 -0.0494 -0.3100 -0.3264
 3726G2HHO Tail44115  14.060  15.064  17.398 -0.3723  0.4193 -0.0914
 3726G2HHO Tail44116  13.948  15.495  18.322  0.1442 -0.2014 -0.0444
 3726G2HHO Tail44117  14.097  15.741  18.181 -0.3404  0.6811 -0.5047
 3726G2HHO Tail44118  14.140  15.955  17.813  0.2832 -0.1455  0.2701
 3727G2HHO Head44119  19.514  18.908  16.347  0.1150 -0.0415  0.0388
 3727G2HHO Head44120  19.210  18.930  16.456  0.0061 -0.2388  0.1134
 3727G2HHO Head44121  19.079  19.525  16.844  0.0747  0.0153  0.0945
 3727G2HHO Head44122  19.225  19.286  16.755 -0.3589  0.1300 -0.2401
 3727G2HHO Head44123  19.151  18.956  16.798  0.5140  0.4283  0.5965
 3727G2HHO Head44124  18.803  18.290  16.558 -0.2717 -0.0589 -0.2886
 3727G2HHO Head44125  19.107  18.426  16.604 -0.0639 -0.5323  0.2053
 3727G2HHO Head44126  18.649  18.698  16.883  0.2283  0.1960  0.0207
 3727G2HHO Head44127  18.876  18.478  16.987  0.0383 -0.0575  0.1320
 3727G2HHO Head44128  19.209  18.550  16.929  0.3540  0.1280  0.2522
 3727G2HHO link44129  19.280  18.793  16.954 -0.1479 -0.1393  0.1315
 3727G2HHO link44130  19.425  18.891  17.182  0.0148  0.2377  0.1188
 3727G2HHO Tail44131  19.744  18.855  17.249 -0.0917  0.1975 -0.2324
 3727G2HHO Tail44132  19.734  18.504  17.290  0.0550 -0.0551 -0.3043
 3727G2HHO Tail44133  19.758  18.263  17.096 -0.0599  0.0280  0.0723
 3727G2HHO Tail44134  19.594  18.068  16.745  0.2955  0.0356  0.1623
 3727G2HHO Tail44135  19.772  19.004  17.562 -0.0936 -0.1529  0.2280
 3727G2HHO Tail44136  19.772  19.309  17.645 -0.0801 -0.1682 -0.0797
 3727G2HHO Tail44137  19.725  19.694  17.457 -0.0555  0.1900 -0.2156
 3728G2HHO Head44138  15.157  17.878  19.044  0.3603  0.1506 -0.4144
 3728G2HHO Head44139  14.884  17.973  18.926  0.2337 -0.0809 -0.5007
 3728G2HHO Head44140  14.519  18.364  18.947  0.3246  0.2434  0.1109
 3728G2HHO Head44141  14.801  18.339  18.784 -0.2500 -0.2760  0.0218
 3728G2HHO Head44142  14.900  18.069  18.578  0.1336  0.3137  0.2450
 3728G2HHO Head44143  14.286  17.690  19.024  0.0672 -0.1596 -0.3035
 3728G2HHO Head44144  14.392  17.925  18.812  0.0959  0.2946 -0.1699
 3728G2HHO Head44145  14.490  17.259  18.813  0.1238 -0.1717 -0.1165
 3728G2HHO Head44146  14.667  17.542  18.737 -0.1255 -0.2361  0.1064
 3728G2HHO Head44147  14.559  17.800  18.522 -0.1469 -0.2080  0.1393
 3728G2HHO link44148  14.731  17.945  18.391 -0.1658 -0.1316  0.0255
 3728G2HHO link44149  14.708  18.052  18.125 -0.1045  0.0087 -0.0339
 3728G2HHO Tail44150  14.422  18.193  18.029 -0.0666  0.1014 -0.2826
 3728G2HHO Tail44151  14.551  18.508  17.916  0.0595 -0.0034 -0.2863
 3728G2HHO Tail44152  14.412  18.752  17.749  0.0400 -0.2103 -0.1474
 3728G2HHO Tail44153  14.223  18.891  17.388 -0.2582  0.1114 -0.3611
 3728G2HHO Tail44154  14.347  18.005  17.735  0.1512 -0.1669  0.0674
 3728G2HHO Tail44155  14.105  18.034  17.532  0.3265  0.3407 -0.2546
 3728G2HHO Tail44156  13.669  18.107  17.535  0.1443 -0.2096  0.4460
 3729G2HHO Head44157  21.718  19.594  18.388  0.2039 -0.1201 -0.1284
 3729G2HHO Head44158  21.924  19.429  18.580 -0.1560 -0.0679  0.0833
 3729G2HHO Head44159  21.969  19.017  19.161 -0.1524  0.3860  0.1741
 3729G2HHO Head44160  22.070  19.133  18.926  0.4111 -0.1099 -0.0210
 3729G2HHO Head44161  21.861  19.104  18.633 -0.0586  0.1415 -0.0904
 3729G2HHO Head44162  22.507  18.850  17.978 -0.0700  0.3449  0.0890
 3729G2HHO Head44163  22.266  18.972  18.041 -0.1271  0.1256 -0.1326
 3729G2HHO Head44164  22.226  19.419  17.960 -0.2883 -0.1502  0.1346
 3729G2HHO Head44165  22.191  19.394  18.248  0.0584  0.0012 -0.1500
 3729G2HHO Head44166  22.177  19.054  18.375 -0.2288  0.1050  0.2675
 3729G2HHO link44167  21.953  18.946  18.472  0.0008 -0.0716 -0.2161
 3729G2HHO link44168  21.814  18.725  18.360 -0.2917  0.1109 -0.0955
 3729G2HHO Tail44169  21.830  18.668  18.047  0.3224 -0.2685  0.4556
 3729G2HHO Tail44170  21.719  18.338  18.019  0.1059  0.1938 -0.3319
 3729G2HHO Tail44171  21.820  18.027  18.074 -0.0640  0.2100  0.1957
 3729G2HHO Tail44172  22.003  17.779  18.387  0.2350 -0.2567 -0.2364
 3729G2HHO Tail44173  21.540  18.820  17.938 -0.0160  0.2089 -0.1979
 3729G2HHO Tail44174  21.311  18.959  18.091  0.0808  0.0890 -0.0912
 3729G2HHO Tail44175  20.867  18.929  18.116  0.1164 -0.0462  0.0436
 3730G2HHO Head44176  14.696  20.382  15.640  0.0294  0.4777 -0.0293
 3730G2HHO Head44177  14.478  20.131  15.658  0.4141  0.2833 -0.1635
 3730G2HHO Head44178  14.727  20.411  16.153 -0.0928 -0.3591  0.2672
 3730G2HHO Head44179  14.619  20.113  16.111  0.1734  0.1624  0.1684
 3730G2HHO Head44180  14.311  20.035  15.959  0.0449 -0.3103 -0.0489
 3730G2HHO Head44181  14.255  19.613  15.238  0.1470  0.0159 -0.4371
 3730G2HHO Head44182  14.334  19.783  15.469  0.0912  0.1940  0.0068
 3730G2HHO Head44183  14.081  19.140  15.633  0.0671  0.0340  0.1753
 3730G2HHO Head44184  14.252  19.407  15.652  0.3139 -0.1638 -0.3812
 3730G2HHO Head44185  14.125  19.726  15.732  0.1340  0.1445  0.4011
 3730G2HHO link44186  14.190  19.807  15.970 -0.3239 -0.0301  0.1957
 3730G2HHO link44187  14.107  19.662  16.206 -0.1248  0.1092  0.0335
 3730G2HHO Tail44188  14.329  19.577  16.428 -0.3422  0.2374 -0.0816
 3730G2HHO Tail44189  14.500  19.873  16.442 -0.0911 -0.0158 -0.1949
 3730G2HHO Tail44190  14.715  20.032  16.634 -0.2354 -0.0584  0.3902
 3730G2HHO Tail44191  14.804  20.384  16.876 -0.2037 -0.2601  0.1588
 3730G2HHO Tail44192  14.140  19.591  16.701 -0.0146  0.0810 -0.1815
 3730G2HHO Tail44193  14.037  19.815  16.917  0.1947  0.1155 -0.1916
 3730G2HHO Tail44194  13.789  19.838  17.280 -0.2069  0.0048 -0.0190
 3731G2HHO Head44195  16.899  12.815  18.883  0.0272  0.2737  0.1395
 3731G2HHO Head44196  17.135  12.665  18.712 -0.0534 -0.2580  0.0596
 3731G2HHO Head44197  17.125  12.412  19.066 -0.1157 -0.2948 -0.0544
 3731G2HHO Head44198  17.331  12.627  19.069  0.0113 -0.2426 -0.2708
 3731G2HHO Head44199  17.474  12.708  18.777 -0.2436 -0.2787  0.2599
 3731G2HHO Head44200  17.522  13.585  19.219 -0.1543  0.2256 -0.0448
 3731G2HHO Head44201  17.618  13.247  19.173 -0.2815 -0.5920 -0.3491
 3731G2HHO Head44202  17.317  13.443  18.559  0.5026 -0.0320  0.0700
 3731G2HHO Head44203  17.318  13.404  18.841 -0.4555 -0.0356  0.6326
 3731G2HHO Head44204  17.435  13.093  18.920  0.2118  0.0406 -0.1571
 3731G2HHO link44205  17.562  12.942  18.740 -0.1540 -0.3627 -0.2583
 3731G2HHO link44206  17.631  13.047  18.486  0.1334 -0.3566 -0.1151
 3731G2HHO Tail44207  17.899  12.975  18.309 -0.0023 -0.0190  0.1090
 3731G2HHO Tail44208  17.759  13.020  17.983 -0.0053 -0.1006 -0.2960
 3731G2HHO Tail44209  17.725  13.269  17.781  0.1106  0.2594 -0.2160
 3731G2HHO Tail44210  17.823  13.419  17.366  0.3924 -0.1010 -0.3144
 3731G2HHO Tail44211  18.064  13.289  18.345  0.0587 -0.3107  0.0766
 3731G2HHO Tail44212  18.343  13.412  18.305 -0.2288 -0.2632  0.0946
 3731G2HHO Tail44213  18.732  13.391  18.505  0.0122 -0.0277 -0.2569
 3732G2HHO Head44214  18.914  20.612  17.411 -0.1134 -0.0472  0.1372
 3732G2HHO Head44215  19.031  20.854  17.530 -0.1893  0.0804  0.1047
 3732G2HHO Head44216  19.395  20.697  17.271  0.0564 -0.1229  0.1397
 3732G2HHO Head44217  19.460  20.846  17.510 -0.3776  0.1959  0.2743
 3732G2HHO Head44218  19.257  20.824  17.779  0.1400 -0.4680  0.1342
 3732G2HHO Head44219  19.258  21.706  17.607 -0.0495  0.0602 -0.2297
 3732G2HHO Head44220  19.283  21.530  17.870  0.0931 -0.0312 -0.0680
 3732G2HHO Head44221  19.726  21.273  17.451  0.3439 -0.1755  0.0635
 3732G2HHO Head44222  19.463  21.288  17.551 -0.2308 -0.2611  0.3762
 3732G2HHO Head44223  19.414  21.187  17.878  0.5571 -0.0147  0.1939
 3732G2HHO link44224  19.247  21.024  17.949  0.3491  0.3681  0.6422
 3732G2HHO link44225  19.003  21.099  18.060  0.2075  0.1739  0.2198
 3732G2HHO Tail44226  18.722  20.932  18.021 -0.0227 -0.4259  0.2825
 3732G2HHO Tail44227  18.509  21.194  18.032  0.2619 -0.0446  0.2942
 3732G2HHO Tail44228  18.176  21.232  17.962  0.2646 -0.1370 -0.1006
 3732G2HHO Tail44229  17.775  21.245  18.094 -0.3515 -0.3976 -0.2664
 3732G2HHO Tail44230  18.670  20.807  18.330  0.1048  0.0476 -0.0770
 3732G2HHO Tail44231  18.798  20.915  18.602  0.1992 -0.5403  0.0231
 3732G2HHO Tail44232  18.926  21.261  18.826  0.0151 -0.1021  0.1257
 3733G2HHO Head44233  14.538  12.286  17.250  0.0389  0.1451 -0.0081
 3733G2HHO Head44234  14.627  12.533  17.059 -0.2784 -0.0940  0.1705
 3733G2HHO Head44235  15.311  12.693  17.095 -0.1033 -0.0427 -0.0907
 3733G2HHO Head44236  15.090  12.528  17.104  0.1188  0.3521  0.0508
 3733G2HHO Head44237  14.884  12.450  16.817 -0.6661 -0.1768  0.1299
 3733G2HHO Head44238  15.498  12.157  16.599 -0.2236  0.0015  0.0698
 3733G2HHO Head44239  15.380  12.393  16.716  0.0940 -0.1142 -0.2645
 3733G2HHO Head44240  15.176  12.359  16.013 -0.0473 -0.2971 -0.0545
 3733G2HHO Head44241  15.293  12.386  16.296 -0.0306 -0.3631  0.0699
 3733G2HHO Head44242  15.167  12.596  16.539 -0.2866  0.0578 -0.3969
 3733G2HHO link44243  14.919  12.601  16.594  0.0637  0.3723 -0.3181
 3733G2HHO link44244  14.727  12.768  16.512  0.0138  0.0403  0.2412
 3733G2HHO Tail44245  14.782  13.089  16.509 -0.0661  0.0814  0.2589
 3733G2HHO Tail44246  14.592  13.158  16.799 -0.0328 -0.2789  0.0540
 3733G2HHO Tail44247  14.506  13.450  16.886 -0.2675 -0.3122 -0.2133
 3733G2HHO Tail44248  14.655  13.743  17.182 -0.0160 -0.3120  0.1730
 3733G2HHO Tail44249  15.099  13.100  16.646  0.2895 -0.1564 -0.2135
 3733G2HHO Tail44250  15.331  13.283  16.729 -0.1242 -0.1295 -0.0286
 3733G2HHO Tail44251  15.437  13.708  16.840  0.0275 -0.2690  0.2378
 3734G2HHO Head44252  20.423  20.249  19.074  0.0921 -0.1702  0.2919
 3734G2HHO Head44253  20.273  20.482  19.228 -0.3344 -0.1460 -0.2014
 3734G2HHO Head44254  20.365  20.500  19.685  0.5389 -0.0908  0.1553
 3734G2HHO Head44255  20.097  20.418  19.652  0.1947  0.0704 -0.0008
 3734G2HHO Head44256  19.932  20.437  19.335  0.0415 -0.4982  0.2130
 3734G2HHO Head44257  19.572  21.081  19.888  0.0474 -0.0641 -0.0350
 3734G2HHO Head44258  19.412  20.871  19.713 -0.3241  0.3458  0.0043
 3734G2HHO Head44259  19.049  20.602  19.619  0.0856  0.5945 -0.0925
 3734G2HHO Head44260  19.271  20.455  19.641 -0.2562  0.3726 -0.1931
 3734G2HHO Head44261  19.591  20.593  19.555  0.0228 -0.0236  0.0737
 3734G2HHO link44262  19.713  20.606  19.305  0.5733 -0.1331 -0.4098
 3734G2HHO link44263  19.546  20.604  19.073 -0.0723  0.3243  0.0340
 3734G2HHO Tail44264  19.268  20.431  19.064 -0.1777  0.0912  0.2946
 3734G2HHO Tail44265  19.364  20.216  19.295 -0.0019 -0.3550 -0.0710
 3734G2HHO Tail44266  19.363  19.917  19.403  0.3214 -0.0910  0.2826
 3734G2HHO Tail44267  19.484  19.641  19.730 -0.0971 -0.0164 -0.2703
 3734G2HHO Tail44268  19.329  20.232  18.775 -0.0734 -0.2069  0.1308
 3734G2HHO Tail44269  19.199  20.241  18.491  0.1002 -0.0315  0.2260
 3734G2HHO Tail44270  19.038  19.978  18.171  0.1991 -0.0542 -0.0649
 3735G2HHO Head44271  12.243  18.881  18.030  0.3667 -0.2769 -0.2940
 3735G2HHO Head44272  12.511  18.783  17.848  0.1440 -0.0102  0.1874
 3735G2HHO Head44273  12.149  18.944  17.213 -0.2618  0.1370  0.0013
 3735G2HHO Head44274  12.244  18.892  17.512 -0.0132  0.2311 -0.0172
 3735G2HHO Head44275  12.424  18.602  17.561  0.0404  0.0403 -0.0772
 3735G2HHO Head44276  12.471  18.454  16.644  0.4275 -0.2096  0.1545
 3735G2HHO Head44277  12.642  18.460  16.884 -0.1514  0.1192  0.4090
 3735G2HHO Head44278  12.001  18.397  17.199 -0.2457  0.1335  0.0134
 3735G2HHO Head44279  12.230  18.444  17.033  0.3368  0.2974 -0.1107
 3735G2HHO Head44280  12.507  18.601  17.170 -0.1195 -0.0193  0.3640
 3735G2HHO link44281  12.607  18.518  17.398  0.1672 -0.2280 -0.1867
 3735G2HHO link44282  12.883  18.496  17.468 -0.5333 -0.1122  0.3446
 3735G2HHO Tail44283  13.031  18.249  17.621 -0.2948  0.1592 -0.3696
 3735G2HHO Tail44284  13.214  18.131  17.359  0.1721 -0.2828  0.5916
 3735G2HHO Tail44285  13.412  18.221  17.125 -0.1701 -0.0052 -0.0165
 3735G2HHO Tail44286  13.810  18.140  16.973  0.3718 -0.0465  0.0391
 3735G2HHO Tail44287  13.296  18.427  17.808 -0.2846 -0.0675 -0.2371
 3735G2HHO Tail44288  13.605  18.480  17.767  0.2287 -0.0916 -0.2698
 3735G2HHO Tail44289  13.995  18.340  17.882 -0.3960  0.1818  0.1150
 3736G2HHO Head44290  11.973  17.571  18.189  0.0934  0.4012 -0.0476
 3736G2HHO Head44291  12.256  17.606  18.067 -0.0782 -0.2666  0.3336
 3736G2HHO Head44292  11.731  17.523  17.736  0.1566  0.2005  0.1634
 3736G2HHO Head44293  12.063  17.489  17.679  0.2011  0.2450  0.3075
 3736G2HHO Head44294  12.299  17.750  17.754  0.1130 -0.2525  0.0139
 3736G2HHO Head44295  11.754  18.095  18.389  0.0723  0.1661 -0.1007
 3736G2HHO Head44296  12.016  18.114  18.168 -0.0880  0.0080  0.2321
 3736G2HHO Head44297  11.952  18.562  17.655 -0.4261  0.1364 -0.1553
 3736G2HHO Head44298  11.886  18.350  17.857 -0.0404  0.3171 -0.2510
 3736G2HHO Head44299  12.018  18.024  17.833 -0.2887  0.1329 -0.1599
 3736G2HHO link44300  12.233  17.983  17.695 -0.1588 -0.2672  0.1998
 3736G2HHO link44301  12.310  18.117  17.461  0.2959  0.4493  0.0382
 3736G2HHO Tail44302  12.618  18.144  17.347  0.1278 -0.2355  0.0460
 3736G2HHO Tail44303  12.768  17.883  17.547  0.0510  0.2532 -0.0065
 3736G2HHO Tail44304  13.072  17.845  17.686  0.1562  0.4022  0.3446
 3736G2HHO Tail44305  13.402  17.560  17.651  0.4240  0.0384 -0.1747
 3736G2HHO Tail44306  12.572  17.976  17.035  0.2810 -0.3210 -0.1583
 3736G2HHO Tail44307  12.675  17.703  16.946 -0.0463  0.3736  0.2340
 3736G2HHO Tail44308  12.990  17.499  16.736 -0.5541  0.0594 -0.1694
 3737G2HHO Head44309  15.677  17.948  17.025 -0.2627 -0.3185  0.0443
 3737G2HHO Head44310  15.566  17.757  16.863 -0.0877 -0.1932 -0.1061
 3737G2HHO Head44311  15.398  17.616  16.479 -0.2145 -0.3056  0.0735
 3737G2HHO Head44312  15.459  17.387  16.685 -0.2796 -0.3805 -0.2036
 3737G2HHO Head44313  15.479  17.469  17.022  0.3112 -0.0281 -0.1057
 3737G2HHO Head44314  15.868  17.596  17.392 -0.2205 -0.0737  0.2122
 3737G2HHO Head44315  15.614  17.748  17.427  0.1050 -0.1913  0.1623
 3737G2HHO Head44316  15.367  18.158  17.377 -0.3539 -0.0122 -0.0124
 3737G2HHO Head44317  15.194  17.903  17.394  0.2300 -0.0204 -0.3836
 3737G2HHO Head44318  15.314  17.586  17.373  0.2019  0.0746  0.3636
 3737G2HHO link44319  15.269  17.450  17.164 -0.1123 -0.3476  0.1020
 3737G2HHO link44320  15.021  17.332  17.073 -0.1254 -0.0570 -0.2926
 3737G2HHO Tail44321  14.755  17.499  16.975  0.0330 -0.1319  0.1901
 3737G2HHO Tail44322  14.505  17.260  17.035  0.2162 -0.1066  0.0374
 3737G2HHO Tail44323  14.492  16.969  17.106  0.1400  0.6742 -0.1339
 3737G2HHO Tail44324  14.405  16.589  16.902  0.0502  0.1946  0.1142
 3737G2HHO Tail44325  14.685  17.695  17.249  0.0112 -0.1096  0.2699
 3737G2HHO Tail44326  14.548  17.994  17.295  0.0465  0.4812  0.0587
 3737G2HHO Tail44327  14.261  18.250  17.089 -0.0449  0.0783  0.1220
 3738G2HHO Head44328  16.634  18.199  19.542 -0.3010  0.2073 -0.0464
 3738G2HHO Head44329  16.760  18.470  19.372 -0.2766 -0.3159 -0.2658
 3738G2HHO Head44330  17.199  18.010  19.300  0.0192 -0.1306  0.2614
 3738G2HHO Head44331  17.167  18.315  19.249 -0.2062  0.0474 -0.2787
 3738G2HHO Head44332  16.904  18.412  19.054 -0.2767 -0.0774 -0.0493
 3738G2HHO Head44333  16.570  19.071  19.166  0.2147 -0.1206  0.3113
 3738G2HHO Head44334  16.429  18.875  18.980  0.0604  0.1091  0.0877
 3738G2HHO Head44335  16.319  18.551  19.265  0.0548  0.0755  0.0673
 3738G2HHO Head44336  16.450  18.404  19.027 -0.1160 -0.1454 -0.2478
 3738G2HHO Head44337  16.645  18.625  18.833  0.0278  0.1040  0.0176
 3738G2HHO link44338  16.914  18.614  18.879  0.3658  0.0234  0.2426
 3738G2HHO link44339  17.079  18.842  18.888  0.0491 -0.0474  0.0243
 3738G2HHO Tail44340  17.011  19.078  18.676  0.3174 -0.2292  0.3828
 3738G2HHO Tail44341  16.901  19.321  18.901  0.1327  0.1218  0.5067
 3738G2HHO Tail44342  16.823  19.627  18.812  0.0540  0.2725  0.1628
 3738G2HHO Tail44343  16.645  19.837  18.473  0.2981 -0.1348 -0.0988
 3738G2HHO Tail44344  17.309  19.251  18.605 -0.2477 -0.1159 -0.0849
 3738G2HHO Tail44345  17.351  19.538  18.503 -0.4173 -0.1312 -0.1957
 3738G2HHO Tail44346  17.153  19.912  18.426  0.0190  0.0457  0.0075
 3739G2HHO Head44347  18.871  20.604  16.895 -0.0362  0.3121 -0.0494
 3739G2HHO Head44348  19.005  20.879  16.981  0.2463  0.0356  0.4143
 3739G2HHO Head44349  19.168  21.309  16.742  0.0478  0.1126  0.0987
 3739G2HHO Head44350  18.890  21.259  16.839  0.0581  0.0996  0.2134
 3739G2HHO Head44351  18.822  21.111  17.152  0.1113 -0.3152 -0.0425
 3739G2HHO Head44352  18.391  21.357  16.594  0.2798 -0.0138 -0.0398
 3739G2HHO Head44353  18.253  21.311  16.838  0.3165  0.4568  0.5187
 3739G2HHO Head44354  18.468  21.788  16.826  0.0233 -0.1266 -0.2653
 3739G2HHO Head44355  18.601  21.556  16.979 -0.4062 -0.1591  0.0823
 3739G2HHO Head44356  18.436  21.305  17.138  0.3169  0.1509  0.1973
 3739G2HHO link44357  18.567  21.081  17.211  0.1780  0.6009  0.2947
 3739G2HHO link44358  18.454  20.863  17.361  0.1583  0.1544  0.0197
 3739G2HHO Tail44359  18.435  20.869  17.688  0.3160 -0.2906  0.2459
 3739G2HHO Tail44360  18.615  20.594  17.771 -0.0928 -0.2943  0.1915
 3739G2HHO Tail44361  18.772  20.480  18.028 -0.1191 -0.0675  0.0128
 3739G2HHO Tail44362  18.720  20.265  18.412 -0.3013 -0.2286 -0.0701
 3739G2HHO Tail44363  18.110  20.769  17.728  0.1444  0.0851 -0.1402
 3739G2HHO Tail44364  17.815  20.813  17.590 -0.2767 -0.4121 -0.8119
 3739G2HHO Tail44365  17.485  20.620  17.390 -0.0453  0.2537  0.1015
 3740G2HHO Head44366  18.914  16.472  18.568  0.1127 -0.1861  0.2114
 3740G2HHO Head44367  19.134  16.681  18.681  0.0171  0.6165  0.5246
 3740G2HHO Head44368  19.081  16.710  18.008  0.2583 -0.2010  0.0417
 3740G2HHO Head44369  19.239  16.538  18.266  0.2868 -0.0915 -0.0282
 3740G2HHO Head44370  19.439  16.713  18.486  0.2794  0.1475 -0.3039
 3740G2HHO Head44371  19.563  16.581  18.910 -0.2430 -0.1933 -0.1849
 3740G2HHO Head44372  19.653  16.891  18.906 -0.1944  0.0521 -0.0066
 3740G2HHO Head44373  19.266  16.973  19.098 -0.1079  0.0527  0.0951
 3740G2HHO Head44374  19.324  17.152  18.852 -0.0153  0.4840  0.0870
 3740G2HHO Head44375  19.564  17.078  18.627  0.0903 -0.1560 -0.4118
 3740G2HHO link44376  19.514  16.946  18.423  0.0349 -0.3334 -0.0199
 3740G2HHO link44377  19.608  17.016  18.174  0.0049 -0.2740  0.1890
 3740G2HHO Tail44378  19.674  17.324  18.105 -0.0441 -0.5622 -0.2065
 3740G2HHO Tail44379  20.001  17.360  18.219 -0.3217  0.0136 -0.2701
 3740G2HHO Tail44380  20.227  17.540  18.122  0.1353 -0.2154  0.0847
 3740G2HHO Tail44381  20.570  17.780  18.251 -0.0257 -0.0691  0.4394
 3740G2HHO Tail44382  19.511  17.476  18.368  0.2323  0.2546  0.0055
 3740G2HHO Tail44383  19.404  17.767  18.433 -0.4649 -0.1694  0.1315
 3740G2HHO Tail44384  19.402  18.147  18.225 -0.1845  0.1941  0.1796
 3741G2HHO Head44385  17.444  21.416  19.475  0.1337 -0.3717  0.0655
 3741G2HHO Head44386  17.743  21.338  19.407 -0.2332  0.0065  0.0785
 3741G2HHO Head44387  17.604  21.458  19.973 -0.1245 -0.1013 -0.1982
 3741G2HHO Head44388  17.751  21.558  19.750 -0.3244  0.0924 -0.0427
 3741G2HHO Head44389  18.011  21.349  19.643 -0.2573 -0.3371  0.3352
 3741G2HHO Head44390  18.001  21.738  20.071  0.0084  0.1439 -0.1381
 3741G2HHO Head44391  18.299  21.628  20.057  0.5044 -0.1630 -0.1628
 3741G2HHO Head44392  18.731  21.711  20.175  0.0398  0.1169 -0.1523
 3741G2HHO Head44393  18.671  21.601  19.878 -0.1425 -0.0476 -0.3313
 3741G2HHO Head44394  18.394  21.398  19.806 -0.1041  0.2743 -0.1247
 3741G2HHO link44395  18.259  21.433  19.574 -0.2397  0.2622 -0.5005
 3741G2HHO link44396  18.361  21.477  19.318 -0.2727 -0.0495  0.0862
 3741G2HHO Tail44397  18.388  21.201  19.138  0.1771  0.2997 -0.3290
 3741G2HHO Tail44398  18.704  21.058  19.239 -0.0467 -0.1432 -0.3505
 3741G2HHO Tail44399  18.948  21.068  19.458 -0.1732 -0.0375  0.2789
 3741G2HHO Tail44400  19.312  21.304  19.524  0.2452  0.0691  0.3976
 3741G2HHO Tail44401  18.459  21.310  18.822  0.1948 -0.0904 -0.1359
 3741G2HHO Tail44402  18.441  21.165  18.532 -0.1519  0.0151  0.1468
 3741G2HHO Tail44403  18.146  20.906  18.313  0.0207 -0.0738 -0.0101
 3742G2HHO Head44404  16.442  17.913  16.570  0.2251 -0.1308 -0.1025
 3742G2HHO Head44405  16.164  17.870  16.424  0.0744 -0.3514  0.1979
 3742G2HHO Head44406  15.923  17.421  16.847  0.0157  0.0068 -0.0570
 3742G2HHO Head44407  15.867  17.580  16.578 -0.1204  0.1356  0.1106
 3742G2HHO Head44408  15.848  17.920  16.588  0.2014  0.2547 -0.0967
 3742G2HHO Head44409  16.197  17.691  15.962  0.2083  0.1353  0.1386
 3742G2HHO Head44410  15.859  17.718  16.056 -0.0114  0.2974  0.3996
 3742G2HHO Head44411  15.485  17.559  15.919 -0.2370  0.3712 -0.1553
 3742G2HHO Head44412  15.499  17.896  15.966  0.2617  0.0493 -0.1224
 3742G2HHO Head44413  15.728  18.011  16.192  0.6227 -0.4514  0.4518
 3742G2HHO link44414  15.647  18.008  16.447  0.3919 -0.0753 -0.1697
 3742G2HHO link44415  15.422  18.151  16.554 -0.2334  0.3538  0.2764
 3742G2HHO Tail44416  15.468  18.465  16.620  0.1668 -0.6893  0.0233
 3742G2HHO Tail44417  15.145  18.554  16.746 -0.2786  0.1962 -0.2346
 3742G2HHO Tail44418  15.000  18.840  16.846 -0.1722  0.4859  0.5033
 3742G2HHO Tail44419  15.054  19.222  17.056  0.0926 -0.2094  0.4111
 3742G2HHO Tail44420  15.581  18.434  16.956  0.0696 -0.1039  0.2076
 3742G2HHO Tail44421  15.596  18.655  17.204 -0.1389 -0.0640 -0.0152
 3742G2HHO Tail44422  15.459  18.722  17.611 -0.3103 -0.0264  0.0913
 3743G2HHO Head44423  19.003  18.453  20.305  0.0990  0.0034  0.2671
 3743G2HHO Head44424  19.092  18.722  20.207 -0.1462 -0.1925  0.2107
 3743G2HHO Head44425  19.285  18.653  20.613 -0.0264 -0.0471  0.0735
 3743G2HHO Head44426  19.473  18.606  20.324 -0.0457  0.0310 -0.3771
 3743G2HHO Head44427  19.383  18.767  20.029  0.4909 -0.0710  0.3462
 3743G2HHO Head44428  19.904  18.469  19.998  0.2632  0.0194 -0.0172
 3743G2HHO Head44429  19.923  18.730  20.176 -0.1299  0.1567 -0.2429
 3743G2HHO Head44430  19.541  19.088  20.719  0.2062  0.2167 -0.1711
 3743G2HHO Head44431  19.711  18.930  20.498  0.4342  0.5665 -0.1235
 3743G2HHO Head44432  19.698  18.996  20.154 -0.5501 -0.1007 -0.0640
 3743G2HHO link44433  19.489  19.010  20.008  0.2732 -0.0207  0.5636
 3743G2HHO link44434  19.313  19.231  19.987  0.3047 -0.1888 -0.2303
 3743G2HHO Tail44435  19.101  19.258  19.734  0.3527  0.0678  0.2915
 3743G2HHO Tail44436  19.231  19.065  19.490  0.0652  0.1921  0.0483
 3743G2HHO Tail44437  19.208  19.039  19.164 -0.2603 -0.2141  0.4559
 3743G2HHO Tail44438  19.414  18.926  18.799  0.1743 -0.0738  0.1446
 3743G2HHO Tail44439  18.883  18.995  19.809 -0.0501 -0.0881  0.1391
 3743G2HHO Tail44440  18.594  18.923  19.933  0.1375 -0.0595 -0.1830
 3743G2HHO Tail44441  18.188  19.051  19.899  0.0308 -0.1133 -0.0457
 3744G2HHO Head44442  13.507  20.459  16.315 -0.2065 -0.4514  0.1523
 3744G2HHO Head44443  13.625  20.200  16.366  0.3536  0.6299  0.0214
 3744G2HHO Head44444  14.096  20.168  16.378  0.0538  0.1185  0.3003
 3744G2HHO Head44445  13.894  19.943  16.513  0.1013  0.2226 -0.2872
 3744G2HHO Head44446  13.610  20.071  16.681  0.1957  0.2036 -0.2321
 3744G2HHO Head44447  12.812  19.897  17.018 -0.0450  0.1826  0.0567
 3744G2HHO Head44448  12.954  20.136  16.912 -0.1722  0.1519 -0.2992
 3744G2HHO Head44449  12.994  20.570  16.596 -0.1135  0.1546 -0.0299
 3744G2HHO Head44450  13.234  20.411  16.682 -0.1144  0.2499 -0.0426
 3744G2HHO Head44451  13.211  20.064  16.676  0.0738 -0.3643  0.0328
 3744G2HHO link44452  13.407  19.945  16.771 -0.2080 -0.2503 -0.3283
 3744G2HHO link44453  13.394  19.767  16.992 -0.0335  0.3772 -0.1869
 3744G2HHO Tail44454  13.166  19.513  17.010  0.0012 -0.0983  0.3037
 3744G2HHO Tail44455  13.360  19.230  17.048 -0.0312 -0.2052  0.2259
 3744G2HHO Tail44456  13.324  18.908  17.056  0.0807 -0.0179 -0.0407
 3744G2HHO Tail44457  13.477  18.560  16.893 -0.2763 -0.0648 -0.0257
 3744G2HHO Tail44458  13.047  19.555  17.335  0.0354 -0.1665 -0.1448
 3744G2HHO Tail44459  12.810  19.430  17.515 -0.2123  0.0853 -0.1191
 3744G2HHO Tail44460  12.734  19.217  17.898 -0.2679  0.0179 -0.0570
 3745G2HHO Head44461  19.089  16.936  16.932  0.0689  0.0700  0.0855
 3745G2HHO Head44462  19.347  16.965  17.105  0.3225  0.0774  0.1421
 3745G2HHO Head44463  19.396  16.295  16.944  0.0058 -0.2927 -0.2574
 3745G2HHO Head44464  19.271  16.493  17.124  0.3391  0.0439 -0.0242
 3745G2HHO Head44465  19.451  16.718  17.326  0.3147  0.3865 -0.2470
 3745G2HHO Head44466  19.359  15.886  17.551 -0.2013  0.0136  0.1554
 3745G2HHO Head44467  19.350  16.177  17.425  0.1527 -0.2964 -0.5858
 3745G2HHO Head44468  18.944  16.229  17.993  0.0484 -0.1711 -0.0299
 3745G2HHO Head44469  19.226  16.306  17.870  0.1044  0.0541 -0.0670
 3745G2HHO Head44470  19.243  16.498  17.581  0.0914 -0.1573 -0.5659
 3745G2HHO link44471  19.402  16.699  17.579  0.0903  0.2820  0.1645
 3745G2HHO link44472  19.422  16.915  17.745  0.1354  0.1991 -0.2357
 3745G2HHO Tail44473  19.625  17.158  17.677 -0.2435 -0.4126 -0.4123
 3745G2HHO Tail44474  19.925  17.021  17.797 -0.1167 -0.1855 -0.2056
 3745G2HHO Tail44475  20.155  16.848  17.644 -0.0732 -0.3820 -0.2484
 3745G2HHO Tail44476  20.511  16.915  17.414 -0.0691 -0.2449  0.2697
 3745G2HHO Tail44477  19.685  17.093  17.353  0.0006  0.0849  0.0973
 3745G2HHO Tail44478  19.890  16.898  17.197 -0.0907  0.3517  0.4119
 3745G2HHO Tail44479  20.255  16.919  16.980  0.0567 -0.0433  0.1172
 3746G2HHO Head44480  17.603  14.472  19.498  0.2325 -0.1309  0.2880
 3746G2HHO Head44481  17.329  14.343  19.379 -0.0159 -0.0451  0.1327
 3746G2HHO Head44482  17.214  13.690  19.680 -0.0446 -0.1023 -0.2261
 3746G2HHO Head44483  17.395  13.937  19.529  0.1733  0.2906 -0.0411
 3746G2HHO Head44484  17.356  14.035  19.203 -0.0804  0.3768  0.1039
 3746G2HHO Head44485  18.075  14.135  19.554 -0.3099 -0.0861  0.0072
 3746G2HHO Head44486  17.815  14.095  19.454 -0.0022  0.3682 -0.1344
 3746G2HHO Head44487  18.312  13.908  19.021  0.2434  0.1202  0.1527
 3746G2HHO Head44488  18.066  14.058  19.085  0.3276  0.0523 -0.3793
 3746G2HHO Head44489  17.760  13.926  19.167  0.1079  0.3408 -0.0862
 3746G2HHO link44490  17.539  13.958  19.017 -0.2577  0.1454 -0.1760
 3746G2HHO link44491  17.531  13.941  18.735  0.2931  0.1861 -0.3444
 3746G2HHO Tail44492  17.337  14.152  18.564  0.2369 -0.2801  0.7736
 3746G2HHO Tail44493  17.571  14.242  18.317 -0.1965 -0.2289  0.0574
 3746G2HHO Tail44494  17.574  14.283  18.003 -0.0447  0.1748  0.1306
 3746G2HHO Tail44495  17.763  14.105  17.661 -0.0502  0.1707 -0.1723
 3746G2HHO Tail44496  17.177  13.924  18.367  0.0427  0.1397 -0.0600
 3746G2HHO Tail44497  16.867  13.889  18.349  0.0152 -0.1307  0.0722
 3746G2HHO Tail44498  16.492  14.122  18.433 -0.2318 -0.0149  0.0415
 3747G2HHO Head44499  17.305  19.843  17.160 -0.2518  0.3614 -0.0334
 3747G2HHO Head44500  17.343  19.543  17.288  0.1359  0.1508  0.5044
 3747G2HHO Head44501  17.130  19.178  17.092  0.2477 -0.1646  0.1498
 3747G2HHO Head44502  17.377  19.188  16.994 -0.0707 -0.1311 -0.2056
 3747G2HHO Head44503  17.627  19.350  17.183  0.1541 -0.4094 -0.0304
 3747G2HHO Head44504  17.426  18.679  16.994 -0.1025 -0.1204 -0.0341
 3747G2HHO Head44505  17.409  18.840  17.245  0.1324 -0.1845 -0.1834
 3747G2HHO Head44506  17.948  18.849  16.859 -0.4057  0.2636  0.1983
 3747G2HHO Head44507  17.828  18.751  17.138 -0.3403 -0.1381  0.1250
 3747G2HHO Head44508  17.710  18.975  17.370  0.0607  0.0869 -0.0792
 3747G2HHO link44509  17.769  19.222  17.361  0.1959 -0.0899  0.4144
 3747G2HHO link44510  17.913  19.344  17.581  0.0014  0.1978 -0.1107
 3747G2HHO Tail44511  18.233  19.279  17.640 -0.0990 -0.1742  0.1692
 3747G2HHO Tail44512  18.246  19.412  17.974  0.1902  0.1926  0.1522
 3747G2HHO Tail44513  18.049  19.572  18.178 -0.1616 -0.1544  0.7704
 3747G2HHO Tail44514  18.031  19.923  18.419 -0.1216  0.2153  0.1992
 3747G2HHO Tail44515  18.233  18.929  17.661  0.0180  0.1272 -0.1277
 3747G2HHO Tail44516  18.445  18.684  17.735  0.2396 -0.1035  0.0612
 3747G2HHO Tail44517  18.512  18.427  18.081  0.0326  0.2573  0.1227
 3748G2HHO Head44518  16.203  19.587  17.085  0.0158 -0.5340 -0.1818
 3748G2HHO Head44519  16.223  19.324  16.926 -0.3015  0.0106  0.2564
 3748G2HHO Head44520  16.172  18.987  16.283  0.2758 -0.0170  0.4640
 3748G2HHO Head44521  16.134  19.172  16.515  0.2460 -0.2809  0.3674
 3748G2HHO Head44522  16.402  19.341  16.631  0.1431  0.0831 -0.0111
 3748G2HHO Head44523  16.713  19.053  15.957 -0.1177 -0.4960 -0.0370
 3748G2HHO Head44524  16.519  19.241  16.092 -0.2358  0.3023 -0.2588
 3748G2HHO Head44525  17.043  19.229  16.602 -0.1589 -0.0552 -0.3436
 3748G2HHO Head44526  16.856  19.284  16.360  0.1553 -0.3342 -0.1440
 3748G2HHO Head44527  16.616  19.518  16.301  0.0108  0.0743 -0.1209
 3748G2HHO link44528  16.459  19.576  16.525  0.0758 -0.1383  0.0605
 3748G2HHO link44529  16.252  19.775  16.533  0.0028 -0.2903 -0.0330
 3748G2HHO Tail44530  15.969  19.765  16.342  0.0748  0.0273  0.2908
 3748G2HHO Tail44531  15.790  20.055  16.435  0.2490 -0.0786 -0.1040
 3748G2HHO Tail44532  15.574  20.181  16.634  0.0168 -0.0841 -0.2354
 3748G2HHO Tail44533  15.491  20.211  17.061  0.1979 -0.2600  0.0638
 3748G2HHO Tail44534  15.788  19.546  16.530  0.0355  0.1158 -0.1103
 3748G2HHO Tail44535  15.585  19.301  16.555  0.4449 -0.3247 -0.0339
 3748G2HHO Tail44536  15.514  18.932  16.776 -0.3454 -0.1437 -0.0662
 3749G2HHO Head44537  19.651  17.827  19.362  0.1738  0.1378  0.0492
 3749G2HHO Head44538  19.463  17.864  19.099 -0.3769 -0.1043 -0.0570
 3749G2HHO Head44539  19.707  17.209  19.225 -0.5873  0.1069  0.0154
 3749G2HHO Head44540  19.492  17.457  19.104 -0.4910 -0.3792  0.0741
 3749G2HHO Head44541  19.556  17.666  18.840 -0.0190  0.0586  0.0502
 3749G2HHO Head44542  20.061  17.503  19.490  0.0902  0.2860  0.0471
 3749G2HHO Head44543  20.091  17.492  19.187  0.1312 -0.0653  0.1919
 3749G2HHO Head44544  20.392  17.926  19.315  0.3028  0.0174  0.0390
 3749G2HHO Head44545  20.234  17.869  19.018 -0.0684  0.1483  0.1632
 3749G2HHO Head44546  19.912  17.730  18.998  0.1464 -0.1207 -0.1187
 3749G2HHO link44547  19.800  17.701  18.758 -0.4193  0.0494  0.4673
 3749G2HHO link44548  19.923  17.748  18.505 -0.7577 -0.2297  0.0237
 3749G2HHO Tail44549  19.762  17.926  18.279 -0.0557  0.1256 -0.1508
 3749G2HHO Tail44550  19.860  18.253  18.325 -0.1318  0.3068  0.0768
 3749G2HHO Tail44551  20.006  18.426  18.103 -0.2356  0.3908  0.0961
 3749G2HHO Tail44552  20.012  18.835  17.990 -0.1589  0.0850 -0.4286
 3749G2HHO Tail44553  19.955  17.879  17.991 -0.0951  0.3392  0.1690
 3749G2HHO Tail44554  20.214  18.031  17.883  0.1203 -0.3266 -0.1300
 3749G2HHO Tail44555  20.475  18.009  17.536  0.4018 -0.1058 -0.3493
 3750G2HHO Head44556  18.099  21.101  20.853 -0.0463 -0.0018  0.2433
 3750G2HHO Head44557  17.830  21.010  20.760 -0.4074  0.0559 -0.0025
 3750G2HHO Head44558  17.538  20.674  20.838 -0.5036  0.0791 -0.2865
 3750G2HHO Head44559  17.715  20.648  20.569 -0.3150  0.2882 -0.4935
 3750G2HHO Head44560  17.784  20.949  20.422 -0.2478 -0.2877 -0.1477
 3750G2HHO Head44561  17.181  21.319  20.811  0.2292 -0.2647  0.3086
 3750G2HHO Head44562  17.431  21.236  20.729  0.2994 -0.0082  0.0022
 3750G2HHO Head44563  16.985  21.219  20.277  0.0165 -0.0005 -0.1173
 3750G2HHO Head44564  17.223  21.412  20.349  0.1954  0.2461 -0.0971
 3750G2HHO Head44565  17.536  21.280  20.389  0.3310 -0.1781 -0.0952
 3750G2HHO link44566  17.610  21.061  20.268  0.1506 -0.0263  0.0462
 3750G2HHO link44567  17.501  20.955  20.023 -0.1980  0.0018  0.0258
 3750G2HHO Tail44568  17.666  20.996  19.739 -0.0482  0.0189 -0.0417
 3750G2HHO Tail44569  17.919  20.755  19.798 -0.0568 -0.1340  0.2166
 3750G2HHO Tail44570  17.941  20.447  19.850  0.3714  0.0588 -0.1214
 3750G2HHO Tail44571  17.731  20.120  19.660 -0.2175 -0.0303  0.1995
 3750G2HHO Tail44572  17.475  20.810  19.508  0.0241 -0.1659  0.2199
 3750G2HHO Tail44573  17.472  20.497  19.437 -0.1506  0.3101  0.1234
 3750G2HHO Tail44574  17.239  20.254  19.154 -0.2293  0.0263 -0.1697
 3751G2HHO Head44575  18.707  21.533  18.419 -0.0309  0.0473 -0.0833
 3751G2HHO Head44576  18.471  21.679  18.275 -0.0960 -0.0583  0.1463
 3751G2HHO Head44577  18.321  21.850  17.839  0.1826  0.0374  0.3289
 3751G2HHO Head44578  18.102  21.724  18.004  0.2305 -0.4783  0.0714
 3751G2HHO Head44579  18.158  21.553  18.293  0.3337  0.1319  0.0137
 3751G2HHO Head44580  18.621  21.742  18.989 -0.0953 -0.1731  0.1415
 3751G2HHO Head44581  18.419  21.779  18.709  0.3013  0.3139  0.0735
 3751G2HHO Head44582  18.270  22.083  19.044  0.0370  0.2536 -0.0686
 3751G2HHO Head44583  18.064  21.966  18.858 -0.3126  0.0226  0.1091
 3751G2HHO Head44584  18.101  21.652  18.717 -0.2835 -0.1182  0.0135
 3751G2HHO link44585  17.979  21.603  18.484  0.1890  0.0983 -0.1707
 3751G2HHO link44586  17.716  21.512  18.478  0.2081  0.2202  0.0978
 3751G2HHO Tail44587  17.473  21.705  18.373 -0.0840  0.1038  0.0403
 3751G2HHO Tail44588  17.366  21.550  18.096  0.0884 -0.0251 -0.4019
 3751G2HHO Tail44589  17.084  21.508  17.975 -0.0848 -0.0782 -0.0206
 3751G2HHO Tail44590  16.893  21.218  17.696 -0.4249  0.3468  0.2454
 3751G2HHO Tail44591  17.226  21.608  18.602 -0.0143  0.0480 -0.2427
 3751G2HHO Tail44592  17.002  21.381  18.656  0.0085  0.2078  0.6361
 3751G2HHO Tail44593  16.945  20.945  18.658 -0.0069 -0.1979 -0.1292
 3752G2HHO Head44594  13.191  15.753  18.762  0.1277 -0.2259 -0.2443
 3752G2HHO Head44595  13.056  15.854  19.003 -0.1210 -0.2061 -0.1179
 3752G2HHO Head44596  13.549  16.231  18.916 -0.1215 -0.1276 -0.0313
 3752G2HHO Head44597  13.251  16.236  18.827  0.0187 -0.2953 -0.1778
 3752G2HHO Head44598  12.995  16.199  19.070  0.0001  0.1026 -0.1963
 3752G2HHO Head44599  12.810  15.749  19.476  0.2129  0.1544 -0.0793
 3752G2HHO Head44600  12.594  15.977  19.412 -0.0575 -0.2902  0.0665
 3752G2HHO Head44601  12.165  16.171  19.476 -0.3653 -0.1655 -0.0576
 3752G2HHO Head44602  12.284  16.226  19.204  0.2429 -0.0892  0.1227
 3752G2HHO Head44603  12.583  16.110  19.103 -0.3233  0.4079  0.1751
 3752G2HHO link44604  12.757  16.291  19.021  0.3119  0.3585  0.1465
 3752G2HHO link44605  12.695  16.567  19.019 -0.1073 -0.2591 -0.1310
 3752G2HHO Tail44606  12.567  16.746  18.779  0.0295 -0.0752  0.0326
 3752G2HHO Tail44607  12.849  16.831  18.591  0.0076  0.1993 -0.1018
 3752G2HHO Tail44608  12.922  16.857  18.271 -0.1047 -0.0887  0.2095
 3752G2HHO Tail44609  13.171  16.830  17.938  0.2018  0.3990  0.0867
 3752G2HHO Tail44610  12.491  17.040  18.939 -0.0752 -0.1424 -0.0577
 3752G2HHO Tail44611  12.468  17.344  18.826  0.1249 -0.0493 -0.0415
 3752G2HHO Tail44612  12.473  17.544  18.435 -0.0820  0.2469 -0.0668
 3753G2HHO Head44613  13.810  16.367  16.187  0.2312 -0.1008 -0.0376
 3753G2HHO Head44614  13.563  16.542  16.261  0.4630  0.1080 -0.4771
 3753G2HHO Head44615  13.271  16.730  16.570 -0.1511 -0.0243 -0.0366
 3753G2HHO Head44616  13.202  16.801  16.254 -0.1014 -0.0639  0.0277
 3753G2HHO Head44617  13.442  16.749  16.013  0.0377 -0.2123 -0.0623
 3753G2HHO Head44618  13.222  17.395  15.392 -0.1344  0.2066 -0.1228
 3753G2HHO Head44619  13.338  17.121  15.522  0.0928  0.1820 -0.0690
 3753G2HHO Head44620  12.932  16.877  15.650  0.1123  0.1637  0.0148
 3753G2HHO Head44621  13.076  17.069  15.859 -0.0921  0.0399  0.1267
 3753G2HHO Head44622  13.423  17.125  15.847 -0.2115  0.0384 -0.3197
 3753G2HHO link44623  13.599  16.937  15.948  0.1263  0.4654  0.0605
 3753G2HHO link44624  13.853  16.996  16.070 -0.0009 -0.0292 -0.3323
 3753G2HHO Tail44625  13.880  17.095  16.377  0.0256  0.1530  0.2894
 3753G2HHO Tail44626  14.228  17.073  16.401  0.0704  0.3088  0.1533
 3753G2HHO Tail44627  14.438  16.993  16.657 -0.1207  0.0153  0.2878
 3753G2HHO Tail44628  14.844  16.991  16.767 -0.2856  0.3851 -0.0377
 3753G2HHO Tail44629  13.808  16.786  16.543  0.1209  0.4036 -0.2065
 3753G2HHO Tail44630  13.951  16.586  16.744 -0.4441  0.0124 -0.5498
 3753G2HHO Tail44631  14.034  16.522  17.160  0.0017  0.1866  0.3350
 3754G2HHO Head44632  13.863  21.924  17.830 -0.3445  0.3706  0.3324
 3754G2HHO Head44633  13.724  21.810  17.572 -0.4150 -0.1303  0.3077
 3754G2HHO Head44634  13.656  21.312  17.908  0.0923  0.2144  0.2100
 3754G2HHO Head44635  13.574  21.427  17.627 -0.0919  0.2360 -0.2803
 3754G2HHO Head44636  13.853  21.520  17.414  0.2800  0.1142 -0.1923
 3754G2HHO Head44637  14.293  21.209  18.206  0.0854 -0.1131 -0.1871
 3754G2HHO Head44638  14.092  21.207  17.951  0.1731  0.3228  0.2687
 3754G2HHO Head44639  14.318  21.886  18.084 -0.2528  0.0521 -0.3333
 3754G2HHO Head44640  14.336  21.578  17.919 -0.2554  0.3191  0.1153
 3754G2HHO Head44641  14.067  21.476  17.732  0.4957 -0.3205 -0.5016
 3754G2HHO link44642  14.077  21.445  17.478 -0.4959  0.3763 -0.2354
 3754G2HHO link44643  14.332  21.427  17.351  0.0654  0.0257 -0.1445
 3754G2HHO Tail44644  14.397  21.537  17.052 -0.3505 -0.0018 -0.2094
 3754G2HHO Tail44645  14.601  21.805  17.123 -0.1249 -0.0072 -0.0664
 3754G2HHO Tail44646  14.895  21.847  17.159 -0.2545  0.3801  0.0493
 3754G2HHO Tail44647  15.185  21.816  17.497  0.0605  0.0033  0.1889
 3754G2HHO Tail44648  14.643  21.330  16.948 -0.0413  0.1597 -0.3123
 3754G2HHO Tail44649  14.632  21.002  16.946  0.0147  0.0158  0.0746
 3754G2HHO Tail44650  14.378  20.688  17.069 -0.0544 -0.0717  0.0864
 3755G2HHO Head44651  13.079  13.513  18.354 -0.0058 -0.0166 -0.0101
 3755G2HHO Head44652  13.152  13.542  18.038 -0.0520  0.2051 -0.0855
 3755G2HHO Head44653  13.567  13.493  18.471 -0.1333 -0.0105  0.2912
 3755G2HHO Head44654  13.480  13.313  18.204 -0.1095  0.2697  0.2432
 3755G2HHO Head44655  13.463  13.461  17.887 -0.0135  0.3117  0.3369
 3755G2HHO Head44656  13.103  13.583  17.587  0.2245  0.0699 -0.2000
 3755G2HHO Head44657  13.378  13.659  17.411 -0.2133  0.0616 -0.1618
 3755G2HHO Head44658  13.871  13.241  17.324  0.2391 -0.0091 -0.0835
 3755G2HHO Head44659  13.621  13.354  17.445 -0.2659 -0.0673  0.2387
 3755G2HHO Head44660  13.668  13.659  17.608 -0.4085  0.2333  0.3343
 3755G2HHO link44661  13.641  13.644  17.860 -0.3618  0.3305  0.4953
 3755G2HHO link44662  13.858  13.673  18.038  0.1050 -0.2638 -0.1407
 3755G2HHO Tail44663  14.069  13.924  17.987  0.0405  0.0403  0.1777
 3755G2HHO Tail44664  13.938  14.003  17.680 -0.2994 -0.2398  0.1255
 3755G2HHO Tail44665  13.672  14.115  17.553 -0.4808  0.0040  0.2728
 3755G2HHO Tail44666  13.502  14.322  17.185 -0.1173  0.1309  0.2489
 3755G2HHO Tail44667  13.912  14.161  18.181 -0.3596 -0.3122  0.2103
 3755G2HHO Tail44668  13.672  14.183  18.345 -0.3964  0.3301 -0.1512
 3755G2HHO Tail44669  13.386  13.956  18.557 -0.1211 -0.4643 -0.3874
 3756G2HHO Head44670  20.144  20.302  17.571 -0.1745 -0.3716 -0.0319
 3756G2HHO Head44671  19.876  20.158  17.547 -0.1363  0.1462  0.2789
 3756G2HHO Head44672  19.820  20.588  17.010  0.0639 -0.0713  0.1659
 3756G2HHO Head44673  19.882  20.437  17.226 -0.2893 -0.2622  0.3002
 3756G2HHO Head44674  19.696  20.156  17.259 -0.3124 -0.1951  0.2424
 3756G2HHO Head44675  20.412  19.583  17.032 -0.0416 -0.0461 -0.2013
 3756G2HHO Head44676  20.202  19.710  17.162  0.1393 -0.2189 -0.0587
 3756G2HHO Head44677  19.836  19.657  16.551  0.3948 -0.3922 -0.0062
 3756G2HHO Head44678  20.068  19.766  16.724  0.0742  0.3191  0.1900
 3756G2HHO Head44679  19.977  19.921  17.029  0.0060  0.1052  0.2793
 3756G2HHO link44680  19.732  19.941  17.118 -0.1752  0.1881  0.3213
 3756G2HHO link44681  19.526  19.791  16.995  0.1985 -0.3012 -0.1885
 3756G2HHO Tail44682  19.555  19.474  16.945  0.3185 -0.1278  0.4851
 3756G2HHO Tail44683  19.371  19.382  17.241  0.0106 -0.0456 -0.0343
 3756G2HHO Tail44684  19.353  19.188  17.498  0.2292 -0.1020 -0.2934
 3756G2HHO Tail44685  19.145  19.116  17.874  0.0266  0.2427  0.2571
 3756G2HHO Tail44686  19.858  19.420  17.108  0.0090  0.3041  0.2183
 3756G2HHO Tail44687  20.093  19.186  17.081  0.0040  0.1142 -0.1707
 3756G2HHO Tail44688  20.186  18.770  17.169 -0.0523  0.0798  0.0802
 3757G2HHO Head44689  20.767  15.739  20.130 -0.0122  0.3020  0.1031
 3757G2HHO Head44690  20.786  15.843  19.846 -0.3227 -0.3202  0.2298
 3757G2HHO Head44691  21.135  15.924  19.567  0.3377  0.1068  0.1313
 3757G2HHO Head44692  20.843  15.977  19.460  0.3408  0.2164 -0.0002
 3757G2HHO Head44693  20.572  16.054  19.689 -0.0156  0.1349  0.1098
 3757G2HHO Head44694  20.541  16.236  20.562  0.1482 -0.3341  0.4289
 3757G2HHO Head44695  20.566  16.154  20.245 -0.1221 -0.3032  0.0809
 3757G2HHO Head44696  20.497  16.754  20.436  0.0502 -0.0319  0.1882
 3757G2HHO Head44697  20.654  16.578  20.192  0.2132 -0.1874  0.4936
 3757G2HHO Head44698  20.470  16.361  19.979  0.0560  0.2677  0.3580
 3757G2HHO link44699  20.562  16.316  19.731  0.2561 -0.3715 -0.3015
 3757G2HHO link44700  20.726  16.500  19.600 -0.1328 -0.3691  0.1938
 3757G2HHO Tail44701  20.991  16.404  19.426 -0.2237 -0.5850 -0.6129
 3757G2HHO Tail44702  20.874  16.290  19.125 -0.1005  0.0941  0.0933
 3757G2HHO Tail44703  20.844  16.379  18.822  0.5645 -0.4664 -0.3304
 3757G2HHO Tail44704  20.946  16.731  18.572 -0.0612 -0.1958  0.1778
 3757G2HHO Tail44705  21.131  16.724  19.359 -0.1826 -0.0634 -0.0773
 3757G2HHO Tail44706  21.110  16.922  19.124 -0.0590 -0.0663  0.2222
 3757G2HHO Tail44707  20.899  17.185  18.815  0.2475 -0.1541 -0.1132
 3758G2HHO Head44708  21.787  18.525  17.055  0.1960  0.6248  0.4013
 3758G2HHO Head44709  21.509  18.657  17.190  0.3430  0.2481 -0.1421
 3758G2HHO Head44710  21.168  18.776  17.595  0.4851 -0.1100 -0.2237
 3758G2HHO Head44711  21.150  18.882  17.300  0.2519 -0.3852 -0.4417
 3758G2HHO Head44712  21.217  18.695  17.023 -0.1916  0.2132 -0.0704
 3758G2HHO Head44713  20.543  18.821  16.489 -0.2547 -0.0524  0.0462
 3758G2HHO Head44714  20.731  18.621  16.567 -0.1629 -0.0080 -0.4460
 3758G2HHO Head44715  20.554  18.120  16.813  0.0651 -0.1599  0.0327
 3758G2HHO Head44716  20.538  18.421  16.883 -0.1717  0.2739  0.0247
 3758G2HHO Head44717  20.826  18.622  16.912  0.0975  0.2675 -0.0470
 3758G2HHO link44718  21.037  18.487  16.982  0.3027 -0.3764 -0.0526
 3758G2HHO link44719  21.040  18.233  17.088  0.0802 -0.1338 -0.0216
 3758G2HHO Tail44720  20.887  18.184  17.363 -0.1344 -0.4476 -0.3075
 3758G2HHO Tail44721  20.722  18.471  17.429 -0.3257 -0.2269  0.1280
 3758G2HHO Tail44722  20.670  18.725  17.267  0.4804  0.0706  0.2417
 3758G2HHO Tail44723  20.541  19.141  17.316  0.0487  0.1191 -0.0493
 3758G2HHO Tail44724  21.163  18.215  17.575 -0.1489  0.1558 -0.1608
 3758G2HHO Tail44725  21.338  18.021  17.776  0.0827 -0.1602  0.1175
 3758G2HHO Tail44726  21.346  17.646  17.975 -0.0584  0.2619 -0.0373
 3759G2HHO Head44727  18.467  14.390  19.097  0.2119 -0.0561  0.2044
 3759G2HHO Head44728  18.703  14.228  18.930 -0.1947 -0.0444  0.1204
 3759G2HHO Head44729  18.897  14.355  19.440 -0.2827  0.0725 -0.0471
 3759G2HHO Head44730  19.034  14.240  19.238 -0.1552 -0.0545  0.2766
 3759G2HHO Head44731  19.045  14.336  18.918 -0.6356 -0.3152  0.1499
 3759G2HHO Head44732  18.313  14.936  18.884 -0.0774  0.1052 -0.2647
 3759G2HHO Head44733  18.569  14.720  18.756  0.1174 -0.2784  0.1996
 3759G2HHO Head44734  19.028  15.256  18.960  0.2739 -0.1290  0.2703
 3759G2HHO Head44735  18.827  15.064  18.827  0.1408 -0.1062 -0.1742
 3759G2HHO Head44736  18.871  14.724  18.915 -0.1437 -0.3967  0.0922
 3759G2HHO link44737  19.070  14.574  18.854 -0.2650  0.0129  0.2475
 3759G2HHO link44738  19.268  14.658  18.675  0.2025  0.0989 -0.1192
 3759G2HHO Tail44739  19.184  14.765  18.384 -0.0563  0.1458  0.2202
 3759G2HHO Tail44740  19.265  14.484  18.196 -0.0512 -0.3249 -0.3804
 3759G2HHO Tail44741  19.492  14.395  18.016 -0.1862  0.4078 -0.0114
 3759G2HHO Tail44742  19.602  14.390  17.594 -0.4383 -0.0157  0.2465
 3759G2HHO Tail44743  18.838  14.712  18.363 -0.1858  0.0002  0.1212
 3759G2HHO Tail44744  18.629  14.790  18.137  0.4687  0.0414  0.0991
 3759G2HHO Tail44745  18.469  14.595  17.782  0.3039  0.0759 -0.4767
 3760G2HHO Head44746  18.261  16.214  17.861 -0.3862  0.0793 -0.4735
 3760G2HHO Head44747  18.548  16.064  17.850 -0.1033  0.2094  0.1232
 3760G2HHO Head44748  18.897  16.221  17.514 -0.3346 -0.3310  0.0669
 3760G2HHO Head44749  18.864  15.900  17.581 -0.2716  0.1433  0.1209
 3760G2HHO Head44750  18.564  15.750  17.696 -0.0562 -0.4595  0.5024
 3760G2HHO Head44751  18.707  15.930  18.563 -0.0819  0.0260  0.1382
 3760G2HHO Head44752  18.702  15.906  18.237 -0.4836 -0.0239  0.1389
 3760G2HHO Head44753  18.937  15.154  18.236  0.2479  0.2944  0.0928
 3760G2HHO Head44754  18.839  15.444  18.335  0.0371  0.0490  0.1821
 3760G2HHO Head44755  18.606  15.598  18.109  0.6104  0.4557  0.1503
 3760G2HHO link44756  18.612  15.548  17.850  0.0208 -0.0617  0.0335
 3760G2HHO link44757  18.651  15.289  17.762  0.0380 -0.2740  0.0890
 3760G2HHO Tail44758  18.464  15.140  17.566 -0.1557  0.0261  0.1835
 3760G2HHO Tail44759  18.688  14.918  17.455 -0.1369 -0.0944  0.1851
 3760G2HHO Tail44760  18.958  14.986  17.289 -0.0433 -0.2549  0.0521
 3760G2HHO Tail44761  19.340  14.824  17.151  0.2260  0.0301 -0.4169
 3760G2HHO Tail44762  18.235  14.984  17.773  0.1440  0.2435 -0.1352
 3760G2HHO Tail44763  18.154  14.879  18.079  0.1541 -0.2126  0.0856
 3760G2HHO Tail44764  18.165  14.618  18.423 -0.0255  0.3295  0.3870
 3761G2HHO Head44765  19.887  14.368  19.567  0.0439  0.2384 -0.1678
 3761G2HHO Head44766  19.743  14.596  19.351 -0.1497  0.2500 -0.0470
 3761G2HHO Head44767  19.523  14.155  19.265 -0.0544 -0.0133  0.3825
 3761G2HHO Head44768  19.541  14.345  19.021 -0.0783 -0.0533 -0.2107
 3761G2HHO Head44769  19.798  14.598  19.001 -0.0666  0.0812  0.2012
 3761G2HHO Head44770  19.691  15.001  19.566 -0.0410 -0.1403  0.0810
 3761G2HHO Head44771  19.535  15.066  19.298  0.2940  0.0227  0.1664
 3761G2HHO Head44772  19.101  14.843  19.276  0.2804  0.0606  0.0166
 3761G2HHO Head44773  19.308  14.708  19.186  0.1332  0.3217 -0.1725
 3761G2HHO Head44774  19.525  14.897  18.985  0.2106  0.1104  0.1815
 3761G2HHO link44775  19.744  14.808  18.865 -0.0611 -0.4920 -0.1420
 3761G2HHO link44776  19.814  14.842  18.592 -0.1124  0.1016  0.0524
 3761G2HHO Tail44777  19.635  14.683  18.371  0.0727 -0.0997 -0.1698
 3761G2HHO Tail44778  19.633  14.955  18.142 -0.2714  0.0770 -0.1279
 3761G2HHO Tail44779  19.738  15.035  17.851  0.1503  0.2063  0.1600
 3761G2HHO Tail44780  19.715  14.873  17.454  0.1234 -0.0786 -0.1809
 3761G2HHO Tail44781  19.875  14.489  18.202 -0.1203 -0.0728 -0.0561
 3761G2HHO Tail44782  19.887  14.190  18.100 -0.0498  0.1246  0.0555
 3761G2HHO Tail44783  20.152  13.851  18.058  0.2844 -0.2719 -0.6966
 3762G2HHO Head44784  17.888  17.605  18.482 -0.1882 -0.3488 -0.0337
 3762G2HHO Head44785  17.694  17.750  18.297 -0.0060 -0.0501 -0.0004
 3762G2HHO Head44786  17.246  17.608  18.436 -0.1122 -0.0117  0.1910
 3762G2HHO Head44787  17.270  17.940  18.410 -0.2885  0.3365  0.0651
 3762G2HHO Head44788  17.601  18.073  18.361  0.1431 -0.1149 -0.1082
 3762G2HHO Head44789  17.563  17.663  19.075 -0.1936 -0.0128  0.0955
 3762G2HHO Head44790  17.613  17.723  18.805  0.0765 -0.0228 -0.0540
 3762G2HHO Head44791  17.666  18.312  19.201 -0.0092  0.5429  0.1584
 3762G2HHO Head44792  17.765  18.065  19.076 -0.6483 -0.2927 -0.1974
 3762G2HHO Head44793  17.793  18.024  18.735 -0.2308 -0.1477 -0.0195
 3762G2HHO link44794  17.710  18.204  18.553  0.1217  0.0009 -0.0790
 3762G2HHO link44795  17.700  18.489  18.611  0.2426  0.2058  0.0683
 3762G2HHO Tail44796  17.765  18.600  18.905  0.4076  0.1131 -0.2477
 3762G2HHO Tail44797  17.615  18.919  18.868 -0.0911 -0.0854  0.2087
 3762G2HHO Tail44798  17.712  19.233  18.847  0.0150  0.4301  0.0493
 3762G2HHO Tail44799  17.722  19.562  19.116 -0.1499 -0.5537 -0.0294
 3762G2HHO Tail44800  18.112  18.669  18.881 -0.2645 -0.4495 -0.2218
 3762G2HHO Tail44801  18.273  18.827  18.667 -0.3746  0.3664 -0.2708
 3762G2HHO Tail44802  18.673  18.768  18.493  0.1576  0.1421  0.0095
 3763G2HHO Head44803  19.673  17.794  19.911 -0.0042 -0.1352 -0.2229
 3763G2HHO Head44804  19.359  17.797  19.928  0.0249 -0.1757 -0.1851
 3763G2HHO Head44805  18.959  17.842  20.217  0.3083  0.2106  0.3147
 3763G2HHO Head44806  18.956  18.053  19.951 -0.1022  0.4125  0.2041
 3763G2HHO Head44807  19.188  17.972  19.700 -0.0084  0.1488 -0.0352
 3763G2HHO Head44808  19.652  18.738  19.563 -0.3470 -0.0825  0.3284
 3763G2HHO Head44809  19.765  18.408  19.567  0.0777 -0.2445  0.3246
 3763G2HHO Head44810  19.399  18.183  20.135  0.0379 -0.0703  0.2592
 3763G2HHO Head44811  19.552  18.251  19.988 -0.1699  0.0287  0.2715
 3763G2HHO Head44812  19.557  18.144  19.667 -0.4187 -0.2533  0.4163
 3763G2HHO link44813  19.341  18.115  19.530  0.1023  0.0890  0.0622
 3763G2HHO link44814  19.252  18.260  19.293 -0.0854 -0.1613  0.4003
 3763G2HHO Tail44815  19.308  18.585  19.253  0.1815 -0.0721  0.0622
 3763G2HHO Tail44816  19.621  18.569  19.069  0.1033  0.1711 -0.4408
 3763G2HHO Tail44817  19.921  18.689  19.141  0.0906  0.0738  0.0373
 3763G2HHO Tail44818  20.280  18.843  18.969 -0.0781  0.1109 -0.3030
 3763G2HHO Tail44819  19.089  18.617  18.983 -0.0678 -0.0909  0.0332
 3763G2HHO Tail44820  18.918  18.862  18.867 -0.2584  0.1978 -0.1362
 3763G2HHO Tail44821  19.016  19.279  18.746 -0.0573  0.1908 -0.0394
 3764G2HHO Head44822  19.864  20.181  19.018  0.1938  0.0908 -0.0394
 3764G2HHO Head44823  19.998  20.430  18.861 -0.0145 -0.0605 -0.1376
 3764G2HHO Head44824  19.635  20.513  18.627 -0.3171  0.1052  0.0175
 3764G2HHO Head44825  19.885  20.315  18.470  0.2544 -0.4835 -0.0009
 3764G2HHO Head44826  20.207  20.361  18.588 -0.0477  0.7834 -0.0835
 3764G2HHO Head44827  20.846  20.022  18.994  0.2040 -0.1064 -0.1255
 3764G2HHO Head44828  20.889  20.092  18.705  0.7205 -0.2464  0.1886
 3764G2HHO Head44829  20.799  19.645  18.571 -0.0983 -0.2912 -0.0174
 3764G2HHO Head44830  20.777  19.877  18.395  0.3107 -0.1651  0.2779
 3764G2HHO Head44831  20.598  20.160  18.501 -0.4727  0.3035 -0.0570
 3764G2HHO link44832  20.340  20.116  18.605 -0.4351 -0.4310  0.3810
 3764G2HHO link44833  20.270  19.911  18.788 -0.0483  0.3118  0.0690
 3764G2HHO Tail44834  19.978  19.740  18.806 -0.4538  0.2678  0.3151
 3764G2HHO Tail44835  19.741  19.917  18.632  0.1308  0.0124 -0.1447
 3764G2HHO Tail44836  19.463  19.855  18.510 -0.0896 -0.1072 -0.2244
 3764G2HHO Tail44837  19.045  19.768  18.599  0.1387  0.2063 -0.1676
 3764G2HHO Tail44838  20.039  19.505  18.547  0.1727 -0.1928 -0.2696
 3764G2HHO Tail44839  19.990  19.187  18.490  0.3946  0.0119 -0.4661
 3764G2HHO Tail44840  19.859  18.798  18.642  0.0745 -0.3126  0.4352
 3765G2HHO Head44841  17.276  21.131  17.029 -0.0227  0.1201  0.1086
 3765G2HHO Head44842  17.164  20.880  16.894  0.3014 -0.1470  0.0070
 3765G2HHO Head44843  17.629  20.249  17.004 -0.0116  0.1077 -0.2131
 3765G2HHO Head44844  17.454  20.507  16.894  0.1919  0.1459 -0.0186
 3765G2HHO Head44845  17.156  20.578  17.066  0.1096  0.1660 -0.0667
 3765G2HHO Head44846  16.524  20.096  16.656 -0.2552 -0.2406  0.0448
 3765G2HHO Head44847  16.823  20.253  16.556 -0.3942 -0.1140 -0.1062
 3765G2HHO Head44848  17.154  20.344  16.248  0.0456  0.2376  0.1002
 3765G2HHO Head44849  17.199  20.457  16.539  0.3648  0.3100 -0.1249
 3765G2HHO Head44850  17.049  20.288  16.804 -0.1266 -0.5551 -0.1689
 3765G2HHO link44851  16.969  20.421  17.016  0.1502  0.4176 -0.1674
 3765G2HHO link44852  16.705  20.417  17.128 -0.3376 -0.1356 -0.2833
 3765G2HHO Tail44853  16.454  20.471  16.921 -0.5471  0.0723 -0.0277
 3765G2HHO Tail44854  16.258  20.197  17.039  0.2559 -0.3516  0.2624
 3765G2HHO Tail44855  16.213  20.024  17.301 -0.0974  0.1915  0.0512
 3765G2HHO Tail44856  15.927  19.911  17.608 -0.0539  0.1097  0.1439
 3765G2HHO Tail44857  16.287  20.745  17.066 -0.3117  0.1567  0.0501
 3765G2HHO Tail44858  16.259  20.965  17.309 -0.0165  0.2268  0.0853
 3765G2HHO Tail44859  16.114  20.968  17.708 -0.0182  0.1992 -0.2160
 3766G2HHO Head44860  18.309  13.287  19.689 -0.0305 -0.1330  0.0363
 3766G2HHO Head44861  18.454  13.027  19.573 -0.1114 -0.3022  0.3241
 3766G2HHO Head44862  18.826  13.561  19.772 -0.2251  0.4206 -0.1828
 3766G2HHO Head44863  18.715  13.424  19.503 -0.3923 -0.0475  0.1581
 3766G2HHO Head44864  18.765  13.068  19.435 -0.2546 -0.1644  0.5751
 3766G2HHO Head44865  19.322  12.614  19.575  0.0485  0.2586  0.2656
 3766G2HHO Head44866  19.249  12.891  19.443 -0.0215  0.3772 -0.1722
 3766G2HHO Head44867  19.545  12.978  19.024 -0.1347  0.2633  0.1505
 3766G2HHO Head44868  19.290  13.069  19.018 -0.1788 -0.2583 -0.0012
 3766G2HHO Head44869  19.021  12.901  19.168 -0.0505  0.4608 -0.3988
 3766G2HHO link44870  18.793  13.019  19.193 -0.4936  0.3785  0.2444
 3766G2HHO link44871  18.692  13.175  18.992  0.3752 -0.0795  0.2429
 3766G2HHO Tail44872  18.486  13.445  19.041 -0.0373  0.3292  0.1129
 3766G2HHO Tail44873  18.690  13.699  18.921 -0.0596 -0.1987 -0.2092
 3766G2HHO Tail44874  18.755  13.843  18.633  0.0641 -0.0687 -0.0153
 3766G2HHO Tail44875  18.732  13.796  18.195 -0.1508 -0.0612 -0.2668
 3766G2HHO Tail44876  18.251  13.441  18.776 -0.0100  0.1605  0.1062
 3766G2HHO Tail44877  18.043  13.649  18.654 -0.3973  0.1032 -0.1630
 3766G2HHO Tail44878  17.737  13.731  18.369 -0.1998 -0.1098 -0.0767
 3767G2HHO Head44879  16.600  13.004  19.269  0.2400 -0.0404 -0.3288
 3767G2HHO Head44880  16.433  13.018  18.986 -0.0530 -0.1291 -0.0697
 3767G2HHO Head44881  16.932  13.342  19.027  0.0438  0.0251  0.1066
 3767G2HHO Head44882  16.622  13.433  19.063  0.5600  0.3341  0.2201
 3767G2HHO Head44883  16.364  13.324  18.845  0.0563  0.2137  0.0533
 3767G2HHO Head44884  15.581  13.264  19.506  0.0119  0.1832  0.2293
 3767G2HHO Head44885  15.806  13.419  19.334 -0.0840 -0.0256  0.1325
 3767G2HHO Head44886  16.237  13.497  19.589 -0.0022  0.3435 -0.2168
 3767G2HHO Head44887  16.207  13.235  19.397 -0.0644  0.0977 -0.0398
 3767G2HHO Head44888  16.022  13.279  19.101 -0.3897  0.3006 -0.3556
 3767G2HHO link44889  16.116  13.411  18.880 -0.1394  0.4238  0.1827
 3767G2HHO link44890  16.000  13.618  18.727  0.0329  0.0667 -0.0974
 3767G2HHO Tail44891  16.097  13.919  18.701  0.3469 -0.0408  0.1695
 3767G2HHO Tail44892  15.807  14.095  18.754  0.1229  0.3250  0.0357
 3767G2HHO Tail44893  15.749  14.414  18.782 -0.1957  0.1201 -0.1772
 3767G2HHO Tail44894  15.420  14.698  18.854 -0.1987  0.0887 -0.0684
 3767G2HHO Tail44895  16.058  13.923  18.361  0.1489 -0.1533 -0.1989
 3767G2HHO Tail44896  16.123  14.086  18.106 -0.0844 -0.3935  0.2451
 3767G2HHO Tail44897  16.099  14.487  17.970 -0.0844 -0.1080  0.2566
 3768G2HHO Head44898  20.331  21.279  17.828 -0.0784  0.0709  0.0210
 3768G2HHO Head44899  20.350  21.250  18.094  0.3071  0.0382  0.2363
 3768G2HHO Head44900  20.858  20.902  18.473 -0.2144  0.1892  0.0077
 3768G2HHO Head44901  20.700  21.007  18.224  0.2589  0.0240  0.2605
 3768G2HHO Head44902  20.362  20.918  18.188  0.2770  0.0821 -0.2037
 3768G2HHO Head44903  20.894  20.848  17.517  0.2751  0.0501  0.3638
 3768G2HHO Head44904  20.707  20.905  17.757 -0.0844  0.1159  0.0556
 3768G2HHO Head44905  20.653  20.231  18.030  0.5002  0.2258 -0.2786
 3768G2HHO Head44906  20.701  20.450  17.857 -0.1759  0.0800 -0.0128
 3768G2HHO Head44907  20.448  20.682  17.835  0.3419  0.0512  0.0806
 3768G2HHO link44908  20.294  20.712  18.039 -0.0861  0.6412 -0.0933
 3768G2HHO link44909  20.089  20.513  18.101  0.1828  0.0815 -0.1356
 3768G2HHO Tail44910  20.082  20.213  17.978 -0.0371 -0.5053  0.2321
 3768G2HHO Tail44911  20.227  20.041  18.231  0.1980  0.0784 -0.0574
 3768G2HHO Tail44912  20.286  19.729  18.307 -0.1703  0.3688 -0.3861
 3768G2HHO Tail44913  20.322  19.344  18.109  0.3392  0.2485 -0.0525
 3768G2HHO Tail44914  19.749  20.157  18.043  0.2044  0.2935  0.0152
 3768G2HHO Tail44915  19.471  20.293  18.156  0.3594  0.1188 -0.0716
 3768G2HHO Tail44916  19.184  20.609  18.129  0.1974  0.3845 -0.0699
 3769G2HHO Head44917  16.748  15.094  19.385  0.0090 -0.0036  0.3774
 3769G2HHO Head44918  16.648  15.172  19.111 -0.2997  0.0292 -0.0405
 3769G2HHO Head44919  16.138  14.844  19.371  0.2753  0.1565  0.0231
 3769G2HHO Head44920  16.385  14.779  19.171 -0.1473 -0.1190 -0.3316
 3769G2HHO Head44921  16.418  14.988  18.901 -0.4567 -0.0037 -0.0302
 3769G2HHO Head44922  15.994  15.765  19.252 -0.2894  0.3492 -0.0302
 3769G2HHO Head44923  16.118  15.623  19.010  0.1149 -0.3350  0.2000
 3769G2HHO Head44924  16.486  15.534  19.352  0.5262 -0.3543  0.1637
 3769G2HHO Head44925  16.244  15.332  19.321  0.0901  0.3236 -0.0700
 3769G2HHO Head44926  16.109  15.260  19.013 -0.0788 -0.0128 -0.0666
 3769G2HHO link44927  16.220  15.110  18.808 -0.3098  0.7084 -0.1286
 3769G2HHO link44928  16.113  15.098  18.540  0.1369  0.4257  0.1729
 3769G2HHO Tail44929  16.150  14.860  18.328 -0.1279 -0.2495  0.1531
 3769G2HHO Tail44930  15.885  14.926  18.099  0.0490  0.1690  0.0779
 3769G2HHO Tail44931  15.760  14.762  17.864  0.2073  0.1315 -0.0077
 3769G2HHO Tail44932  15.867  14.650  17.461 -0.1415  0.2674  0.0884
 3769G2HHO Tail44933  16.410  14.997  18.121 -0.1793 -0.2257  0.1297
 3769G2HHO Tail44934  16.404  15.011  17.800 -0.0311  0.1485 -0.4913
 3769G2HHO Tail44935  16.105  15.082  17.495  0.1549 -0.1524 -0.0532
 3770G2HHO Head44936  13.010  18.088  19.159  0.0491  0.2880  0.0849
 3770G2HHO Head44937  13.241  18.097  18.941 -0.0880  0.0240  0.1207
 3770G2HHO Head44938  13.578  18.671  18.709 -0.1960 -0.2125  0.0181
 3770G2HHO Head44939  13.520  18.353  18.726  0.1348 -0.0934  0.2788
 3770G2HHO Head44940  13.556  18.210  19.034  0.0344 -0.2034  0.1394
 3770G2HHO Head44941  13.317  18.168  19.608 -0.1629  0.0675  0.0289
 3770G2HHO Head44942  13.441  17.914  19.457 -0.2936 -0.4660 -0.0653
 3770G2HHO Head44943  13.803  18.024  19.822 -0.3189 -0.2312  0.1112
 3770G2HHO Head44944  13.779  18.164  19.573 -0.1868 -0.2478  0.1561
 3770G2HHO Head44945  13.755  17.967  19.289 -0.3157 -0.1623 -0.3200
 3770G2HHO link44946  13.771  18.071  19.054  0.1887  0.0353 -0.3789
 3770G2HHO link44947  13.951  18.017  18.836 -0.0994  0.1795  0.3721
 3770G2HHO Tail44948  13.883  18.181  18.554  0.1375  0.0796 -0.2953
 3770G2HHO Tail44949  14.191  18.178  18.398 -0.0716  0.0257 -0.1647
 3770G2HHO Tail44950  14.496  18.255  18.512 -0.0839  0.0556  0.2260
 3770G2HHO Tail44951  14.832  18.480  18.360  0.4004 -0.1533  0.3866
 3770G2HHO Tail44952  13.711  17.917  18.399 -0.0723 -0.1283 -0.0636
 3770G2HHO Tail44953  13.707  17.760  18.122  0.3498 -0.2770 -0.2373
 3770G2HHO Tail44954  13.879  17.710  17.721 -0.1183  0.4334  0.0294
 3771G2HHO Head44955  14.130  17.811  15.619  0.4227 -0.2208 -0.4171
 3771G2HHO Head44956  13.967  17.815  15.904 -0.2914  0.2634  0.0328
 3771G2HHO Head44957  14.523  18.336  16.028 -0.0469 -0.3474 -0.1336
 3771G2HHO Head44958  14.272  18.109  15.926 -0.2556  0.0300  0.0281
 3771G2HHO Head44959  13.956  18.115  16.095  0.2872 -0.0677 -0.3151
 3771G2HHO Head44960  13.317  17.665  15.875  0.6863 -0.0569 -0.3413
 3771G2HHO Head44961  13.561  17.811  15.992 -0.3348 -0.0980 -0.1818
 3771G2HHO Head44962  13.244  17.840  16.291  0.2674  0.0259  0.1514
 3771G2HHO Head44963  13.272  18.096  16.121  0.0840  0.3134 -0.1266
 3771G2HHO Head44964  13.577  18.152  15.945 -0.2020 -0.1312  0.0484
 3771G2HHO link44965  13.772  18.282  16.050 -0.1162  0.5154  0.4933
 3771G2HHO link44966  13.754  18.549  16.141 -0.0339 -0.0519 -0.0129
 3771G2HHO Tail44967  13.864  18.811  15.969  0.3983  0.3989 -0.1422
 3771G2HHO Tail44968  13.620  19.046  16.065  0.1164 -0.0080 -0.0693
 3771G2HHO Tail44969  13.474  19.166  16.338  0.0563  0.0707  0.0794
 3771G2HHO Tail44970  13.180  19.029  16.641 -0.1572  0.0508 -0.0649
 3771G2HHO Tail44971  14.157  18.900  16.148  0.1075  0.2099 -0.2472
 3771G2HHO Tail44972  14.333  18.799  16.394 -0.2330 -0.0633  0.1774
 3771G2HHO Tail44973  14.318  18.704  16.810 -0.1499  0.2206 -0.2237
 3772G2HHO Head44974  21.256  17.011  15.953  0.1869 -0.0422  0.2718
 3772G2HHO Head44975  21.011  17.236  15.929 -0.1064  0.0432  0.1236
 3772G2HHO Head44976  20.712  17.664  15.620 -0.2050  0.3349  0.2814
 3772G2HHO Head44977  20.981  17.694  15.753  0.0800 -0.7700 -0.0148
 3772G2HHO Head44978  21.072  17.553  16.059 -0.3322  0.1498 -0.1861
 3772G2HHO Head44979  20.495  18.314  16.310  0.4024  0.1043  0.0971
 3772G2HHO Head44980  20.640  18.015  16.394 -0.0946 -0.4165  0.0613
 3772G2HHO Head44981  20.386  17.845  15.977 -0.1773  0.1260 -0.1240
 3772G2HHO Head44982  20.685  17.962  15.977 -0.3629 -0.0811  0.3887
 3772G2HHO Head44983  20.899  17.862  16.218  0.0626 -0.2512  0.4029
 3772G2HHO link44984  20.923  17.615  16.259  0.0618 -0.1885  0.1965
 3772G2HHO link44985  20.719  17.460  16.383 -0.5009  0.1351 -0.0844
 3772G2HHO Tail44986  20.750  17.447  16.711 -0.0486  0.2444 -0.1495
 3772G2HHO Tail44987  20.752  17.094  16.739  0.0272 -0.0011 -0.1029
 3772G2HHO Tail44988  20.749  16.869  16.964 -0.3541  0.2658  0.1363
 3772G2HHO Tail44989  21.008  16.543  17.078 -0.2227 -0.2167 -0.1551
 3772G2HHO Tail44990  20.433  17.543  16.810  0.3490 -0.0500 -0.0368
 3772G2HHO Tail44991  20.176  17.404  16.910  0.2078 -0.2680  0.3993
 3772G2HHO Tail44992  19.890  17.127  16.740  0.0556  0.1084  0.2103
 3773G2HHO Head44993  17.894  15.869  17.734 -0.1660  0.2356 -0.0359
 3773G2HHO Head44994  18.091  15.790  17.493 -0.2951  0.0987  0.0258
 3773G2HHO Head44995  18.464  16.016  17.349  0.1089  0.0480 -0.0754
 3773G2HHO Head44996  18.430  15.704  17.250  0.0947  0.2807 -0.0089
 3773G2HHO Head44997  18.274  15.477  17.467  0.0777 -0.1561  0.0556
 3773G2HHO Head44998  18.230  15.510  17.942 -0.0023 -0.0655 -0.0801
 3773G2HHO Head44999  17.983  15.389  17.838 -0.1610 -0.1144  0.3196
 3773G2HHO Head45000  17.514  15.518  17.711  0.0670 -0.0536  0.0936
 3773G2HHO Head45001  17.738  15.512  17.519 -0.3370 -0.2942  0.2993
 3773G2HHO Head45002  17.946  15.244  17.526 -0.1397  0.0097 -0.3282
 3773G2HHO link45003  18.145  15.255  17.378  0.4876  0.0829  0.0662
 3773G2HHO link45004  18.155  15.136  17.118 -0.0201 -0.1566  0.1297
 3773G2HHO Tail45005  18.142  14.811  17.063  0.0287 -0.0911 -0.0290
 3773G2HHO Tail45006  18.460  14.766  16.922 -0.5411  0.0385 -0.3206
 3773G2HHO Tail45007  18.562  14.543  16.733 -0.0385  0.0190 -0.1419
 3773G2HHO Tail45008  18.918  14.308  16.701  0.1500  0.5569 -0.1702
 3773G2HHO Tail45009  18.223  14.686  17.373 -0.1366  0.1476  0.1728
 3773G2HHO Tail45010  18.202  14.398  17.501  0.0492 -0.1284  0.2121
 3773G2HHO Tail45011  18.430  14.061  17.647  0.2180  0.1626 -0.0072
 3774G2HHO Head45012  13.565  20.473  19.035  0.1482 -0.0520 -0.1467
 3774G2HHO Head45013  13.559  20.282  18.792 -0.3874  0.1434 -0.0413
 3774G2HHO Head45014  13.596  20.881  18.701  0.5176  0.2032  0.4119
 3774G2HHO Head45015  13.383  20.690  18.594 -0.1152  0.1226 -0.2901
 3774G2HHO Head45016  13.505  20.385  18.460  0.2517  0.1855  0.0743
 3774G2HHO Head45017  14.367  20.767  18.495  0.1679 -0.2539  0.0151
 3774G2HHO Head45018  14.164  20.695  18.318 -0.0627 -0.2783  0.2530
 3774G2HHO Head45019  14.237  20.495  18.825  0.2341  0.1898  0.3580
 3774G2HHO Head45020  13.943  20.583  18.745  0.0807 -0.7337  0.0594
 3774G2HHO Head45021  13.845  20.620  18.426  0.3635 -0.2481  0.3724
 3774G2HHO link45022  13.726  20.404  18.321  0.0682  0.1210  0.6357
 3774G2HHO link45023  13.859  20.195  18.151  0.3733  0.1800  0.0181
 3774G2HHO Tail45024  14.180  20.158  18.118 -0.1740 -0.0583 -0.0370
 3774G2HHO Tail45025  14.187  19.918  17.866  0.2062  0.1313  0.2370
 3774G2HHO Tail45026  13.965  19.703  17.729 -0.4937 -0.0648  0.2255
 3774G2HHO Tail45027  13.697  19.405  17.858  0.2992  0.0481  0.0806
 3774G2HHO Tail45028  14.232  20.451  17.920 -0.1616 -0.2045 -0.4766
 3774G2HHO Tail45029  14.311  20.503  17.610 -0.3904 -0.3340 -0.0434
 3774G2HHO Tail45030  14.612  20.355  17.337  0.1043 -0.0126 -0.0685
 3775G2HHO Head45031  11.854  18.434  19.451 -0.1149  0.5240 -0.1915
 3775G2HHO Head45032  12.035  18.179  19.570  0.0978 -0.1804 -0.2466
 3775G2HHO Head45033  11.559  18.019  19.222 -0.0782 -0.3072 -0.1091
 3775G2HHO Head45034  11.809  17.859  19.406  0.1621  0.0236  0.1032
 3775G2HHO Head45035  12.148  17.935  19.337  0.2906  0.1751  0.3041
 3775G2HHO Head45036  11.743  17.755  19.871  0.2341  0.2447  0.1352
 3775G2HHO Head45037  11.901  17.536  19.701  0.0157  0.0247  0.3694
 3775G2HHO Head45038  11.919  17.145  19.479  0.0926 -0.0262 -0.2421
 3775G2HHO Head45039  12.176  17.244  19.566  0.2337  0.2322 -0.1279
 3775G2HHO Head45040  12.241  17.589  19.608  0.0135 -0.3539 -0.3017
 3775G2HHO link45041  12.322  17.766  19.399  0.0300 -0.4247 -0.0240
 3775G2HHO link45042  12.570  17.748  19.260  0.0894  0.0494 -0.0111
 3775G2HHO Tail45043  12.625  17.937  19.002 -0.0965 -0.0938  0.2203
 3775G2HHO Tail45044  12.327  17.852  18.816  0.0225  0.1315  0.0175
 3775G2HHO Tail45045  12.080  18.022  18.710 -0.0580 -0.0743 -0.4240
 3775G2HHO Tail45046  11.815  18.340  18.865  0.3500  0.1515 -0.2947
 3775G2HHO Tail45047  12.842  17.727  18.827  0.1601  0.0447 -0.0071
 3775G2HHO Tail45048  12.934  17.610  18.534 -0.1174 -0.3663 -0.0635
 3775G2HHO Tail45049  13.262  17.633  18.237  0.4432 -0.0372 -0.0629
 3776G2HHO Head45050  19.445  11.969  17.548 -0.0753  0.0551 -0.1279
 3776G2HHO Head45051  19.285  12.257  17.546 -0.4059 -0.1675  0.5071
 3776G2HHO Head45052  18.907  11.755  17.377  0.4861 -0.0150 -0.0656
 3776G2HHO Head45053  19.093  11.986  17.248 -0.1013  0.0151 -0.0328
 3776G2HHO Head45054  19.045  12.334  17.304 -0.5052 -0.0830 -0.1322
 3776G2HHO Head45055  18.596  11.919  17.896  0.1163  0.1583 -0.0254
 3776G2HHO Head45056  18.714  12.031  17.665  0.0924  0.6574  0.1464
 3776G2HHO Head45057  18.915  12.281  18.133  0.2306 -0.4025 -0.1173
 3776G2HHO Head45058  18.987  12.341  17.842  0.1481  0.1243  0.1917
 3776G2HHO Head45059  18.746  12.381  17.596 -0.0925 -0.1370 -0.2929
 3776G2HHO link45060  18.836  12.456  17.369  0.1927  0.3062  0.2593
 3776G2HHO link45061  18.691  12.622  17.201  0.0421 -0.2236 -0.2363
 3776G2HHO Tail45062  18.847  12.766  16.942  0.1232 -0.4659  0.1563
 3776G2HHO Tail45063  18.580  12.921  16.811  0.3432 -0.1573  0.0248
 3776G2HHO Tail45064  18.458  13.200  16.716 -0.2039 -0.1089 -0.2314
 3776G2HHO Tail45065  18.527  13.499  16.411 -0.0959  0.1740 -0.3594
 3776G2HHO Tail45066  18.983  13.047  17.114 -0.2542  0.3169 -0.1392
 3776G2HHO Tail45067  19.006  13.127  17.419  0.1102  0.1282 -0.3511
 3776G2HHO Tail45068  19.346  13.160  17.700 -0.4388  0.2715  0.1369
 3777G2HHO Head45069  13.324  14.978  18.344  0.2065 -0.1054  0.1119
 3777G2HHO Head45070  13.396  14.769  18.088 -0.5406 -0.3525  0.0047
 3777G2HHO Head45071  12.906  14.421  17.872  0.0962  0.2494  0.0288
 3777G2HHO Head45072  12.993  14.712  17.885 -0.0350 -0.0128  0.1975
 3777G2HHO Head45073  13.284  14.843  17.759 -0.2866 -0.4078 -0.3654
 3777G2HHO Head45074  13.139  14.016  17.380 -0.0874  0.0222  0.1731
 3777G2HHO Head45075  13.119  14.305  17.506 -0.3494 -0.0403 -0.0572
 3777G2HHO Head45076  13.360  14.034  17.894  0.1120  0.2188 -0.0709
 3777G2HHO Head45077  13.357  14.367  17.857 -0.2106  0.1715  0.0564
 3777G2HHO Head45078  13.406  14.501  17.545 -0.1911  0.1224  0.2750
 3777G2HHO link45079  13.401  14.753  17.526  0.3510 -0.0095 -0.0315
 3777G2HHO link45080  13.514  14.929  17.325 -0.3131  0.1533  0.4130
 3777G2HHO Tail45081  13.693  14.796  17.074 -0.1153  0.2449 -0.0584
 3777G2HHO Tail45082  13.898  15.056  16.942  0.1027 -0.1179 -0.2393
 3777G2HHO Tail45083  14.217  15.108  16.945 -0.2546 -0.2841  0.3503
 3777G2HHO Tail45084  14.554  15.377  16.960 -0.2519 -0.0630 -0.1405
 3777G2HHO Tail45085  13.926  14.624  17.287  0.4232  0.3937  0.2949
 3777G2HHO Tail45086  13.990  14.325  17.386  0.1071 -0.5140 -0.2890
 3777G2HHO Tail45087  14.295  14.027  17.334 -0.0971 -0.3167  0.3915
 3778G2HHO Head45088  13.250  14.927  16.132 -0.1325 -0.0851 -0.2001
 3778G2HHO Head45089  13.556  14.997  16.047  0.3675  0.3078  0.2269
 3778G2HHO Head45090  13.393  14.974  16.750 -0.1111 -0.1838 -0.1728
 3778G2HHO Head45091  13.470  15.108  16.473 -0.0262 -0.2352 -0.0114
 3778G2HHO Head45092  13.779  15.001  16.320 -0.0788  0.0262  0.3898
 3778G2HHO Head45093  13.816  15.075  15.604 -0.2066  0.2744  0.3801
 3778G2HHO Head45094  13.974  14.956  15.824  0.1803 -0.2585  0.1563
 3778G2HHO Head45095  14.314  14.644  15.823 -0.0079 -0.1547  0.1927
 3778G2HHO Head45096  14.381  14.888  16.005 -0.1906  0.0520 -0.1037
 3778G2HHO Head45097  14.138  15.112  16.075  0.1314  0.2882  0.2510
 3778G2HHO link45098  14.007  15.139  16.307 -0.1232  0.3627 -0.1888
 3778G2HHO link45099  14.082  15.332  16.506  0.5287 -0.0436 -0.2570
 3778G2HHO Tail45100  13.902  15.592  16.615  0.1224 -0.0658  0.0278
 3778G2HHO Tail45101  13.654  15.404  16.802  0.0054  0.0122  0.0994
 3778G2HHO Tail45102  13.652  15.336  17.116 -0.0776  0.0085 -0.0287
 3778G2HHO Tail45103  13.677  15.564  17.479 -0.2367 -0.0958  0.2896
 3778G2HHO Tail45104  14.099  15.704  16.874 -0.3400 -0.4024 -0.2676
 3778G2HHO Tail45105  14.042  15.800  17.178 -0.2974  0.1028  0.7679
 3778G2HHO Tail45106  13.833  16.111  17.404 -0.3617  0.0768 -0.4241
 3779G2HHO Head45107  20.667  13.298  18.334 -0.0563  0.0944  0.1888
 3779G2HHO Head45108  20.400  13.451  18.199  0.2275 -0.0683 -0.3384
 3779G2HHO Head45109  20.229  13.393  17.716 -0.1125 -0.1214 -0.0157
 3779G2HHO Head45110  20.162  13.212  17.939 -0.3943  0.3048  0.0921
 3779G2HHO Head45111  20.070  13.327  18.250 -0.0991 -0.1775  0.1944
 3779G2HHO Head45112  20.018  12.758  18.935 -0.0472  0.0375  0.1338
 3779G2HHO Head45113  20.231  12.950  18.892  0.2448 -0.0666  0.0995
 3779G2HHO Head45114  20.631  13.304  18.954  0.2587  0.0570  0.0624
 3779G2HHO Head45115  20.391  13.365  18.776  0.1875  0.1899  0.2759
 3779G2HHO Head45116  20.234  13.119  18.586 -0.1731  0.4543  0.1449
 3779G2HHO link45117  20.023  13.153  18.436  0.1840 -0.1905 -0.2834
 3779G2HHO link45118  19.756  13.047  18.475  0.2230  0.2177 -0.2697
 3779G2HHO Tail45119  19.557  13.238  18.664  0.3594  0.2074 -0.0250
 3779G2HHO Tail45120  19.257  13.188  18.495 -0.1561 -0.0795 -0.1786
 3779G2HHO Tail45121  18.997  13.006  18.521 -0.1009  0.1801 -0.3633
 3779G2HHO Tail45122  18.822  12.700  18.292  0.0852 -0.2915  0.3715
 3779G2HHO Tail45123  19.632  13.563  18.565  0.3840 -0.3245 -0.0469
 3779G2HHO Tail45124  19.703  13.737  18.316 -0.0156 -0.4124  0.1164
 3779G2HHO Tail45125  19.529  13.908  17.964  0.0783 -0.0476  0.3812
 3780G2HHO Head45126  17.150  22.235  17.151  0.1314 -0.0689  0.1959
 3780G2HHO Head45127  16.854  22.212  17.010 -0.3808 -0.0574 -0.3675
 3780G2HHO Head45128  16.790  22.167  16.416 -0.0882 -0.4705  0.1838
 3780G2HHO Head45129  16.917  21.943  16.608 -0.0947 -0.0825  0.0570
 3780G2HHO Head45130  16.761  21.888  16.903  0.0808 -0.1625  0.1785
 3780G2HHO Head45131  16.569  22.556  16.951 -0.0925  0.0347  0.0894
 3780G2HHO Head45132  16.526  22.287  16.758 -0.3844  0.2497  0.1615
 3780G2HHO Head45133  16.136  22.425  17.161 -0.0026  0.2183  0.0404
 3780G2HHO Head45134  16.336  22.229  17.168 -0.1550  0.1553 -0.1241
 3780G2HHO Head45135  16.370  22.009  16.888 -0.0776 -0.3149  0.6214
 3780G2HHO link45136  16.503  21.805  16.902  0.2980 -0.0813 -0.0769
 3780G2HHO link45137  16.411  21.548  16.799 -0.2734 -0.1051  0.2938
 3780G2HHO Tail45138  16.354  21.297  16.994 -0.4619  0.2560  0.0066
 3780G2HHO Tail45139  16.631  21.098  16.945  0.3206  0.1615  0.1988
 3780G2HHO Tail45140  16.768  20.881  17.105  0.0381 -0.2077  0.0144
 3780G2HHO Tail45141  17.053  20.774  17.422 -0.2409 -0.2009  0.2950
 3780G2HHO Tail45142  16.126  21.115  16.803 -0.1296  0.0005  0.4537
 3780G2HHO Tail45143  15.943  20.867  16.835 -0.2098  0.0250  0.0661
 3780G2HHO Tail45144  15.929  20.440  16.708  0.1550  0.1708  0.2452
 3781G2HHO Head45145  17.348  22.642  16.915  0.0522 -0.0438  0.3686
 3781G2HHO Head45146  17.035  22.618  16.960 -0.0865 -0.1796 -0.2464
 3781G2HHO Head45147  17.342  22.905  17.600  0.0054 -0.2484  0.0205
 3781G2HHO Head45148  17.227  22.838  17.301  0.3872 -0.0972  0.0723
 3781G2HHO Head45149  16.930  22.650  17.277 -0.0833 -0.0191 -0.1499
 3781G2HHO Head45150  17.625  22.563  17.442  0.2550 -0.1495 -0.0928
 3781G2HHO Head45151  17.409  22.358  17.508  0.0923 -0.0101 -0.0498
 3781G2HHO Head45152  17.401  21.937  17.661  0.0085  0.4412 -0.0398
 3781G2HHO Head45153  17.121  22.131  17.752  0.2718 -0.1948  0.1430
 3781G2HHO Head45154  17.090  22.444  17.606  0.0759  0.0110  0.0735
 3781G2HHO link45155  16.901  22.450  17.442  0.1278  0.1413 -0.0167
 3781G2HHO link45156  16.701  22.259  17.421  0.3482  0.1088  0.0378
 3781G2HHO Tail45157  16.726  21.940  17.356 -0.1283  0.1251  0.0878
 3781G2HHO Tail45158  16.793  21.783  17.658 -0.1108 -0.4340 -0.1263
 3781G2HHO Tail45159  16.640  21.603  17.864 -0.1744  0.5893  0.1262
 3781G2HHO Tail45160  16.729  21.357  18.209 -0.2046  0.2144 -0.0875
 3781G2HHO Tail45161  16.402  21.840  17.358  0.0144 -0.2828  0.1548
 3781G2HHO Tail45162  16.240  21.642  17.170  0.1987  0.0897 -0.3130
 3781G2HHO Tail45163  15.957  21.311  17.215  0.0270  0.1294 -0.1391
 3782G2HHO Head45164  15.276  14.457  15.912  0.0361 -0.2575  0.2914
 3782G2HHO Head45165  15.384  14.761  16.011  0.3510 -0.1859 -0.2264
 3782G2HHO Head45166  14.720  14.891  16.269 -0.0963  0.0962  0.1272
 3782G2HHO Head45167  14.947  14.801  16.149 -0.3990 -0.2562  0.4103
 3782G2HHO Head45168  15.172  15.034  15.979  0.1156  0.1027  0.0474
 3782G2HHO Head45169  15.754  15.209  15.618 -0.2437  0.3244  0.0394
 3782G2HHO Head45170  15.675  15.063  15.872 -0.0370  0.1424 -0.1806
 3782G2HHO Head45171  15.608  15.794  15.983  0.2876 -0.2866  0.1856
 3782G2HHO Head45172  15.700  15.486  16.040  0.0822 -0.4876 -0.2058
 3782G2HHO Head45173  15.487  15.223  16.139 -0.3618 -0.0560 -0.1920
 3782G2HHO link45174  15.232  15.258  16.094  0.6680  0.6656  0.1360
 3782G2HHO link45175  15.062  15.451  16.236  0.0633 -0.0349  0.1054
 3782G2HHO Tail45176  15.153  15.749  16.335 -0.8198  0.1516 -0.2636
 3782G2HHO Tail45177  14.869  15.949  16.313  0.1536  0.2280 -0.1207
 3782G2HHO Tail45178  14.762  16.238  16.259 -0.1959  0.0626 -0.0220
 3782G2HHO Tail45179  14.686  16.603  16.475 -0.0248 -0.0366  0.1388
 3782G2HHO Tail45180  15.143  15.713  16.675  0.5079 -0.0989  0.2354
 3782G2HHO Tail45181  15.327  15.674  16.926  0.2495  0.0211 -0.1043
 3782G2HHO Tail45182  15.682  15.437  17.052  0.1162 -0.3215  0.4074
 3783G2HHO Head45183  18.423  17.280  18.758 -0.3268  0.3062 -0.0860
 3783G2HHO Head45184  18.648  17.314  18.511  0.2248  0.1219  0.1661
 3783G2HHO Head45185  18.141  17.078  18.431  0.3823  0.2864  0.1321
 3783G2HHO Head45186  18.228  17.340  18.328 -0.5235  0.2952 -0.0759
 3783G2HHO Head45187  18.536  17.385  18.189 -0.1369 -0.3004  0.2369
 3783G2HHO Head45188  18.467  17.774  18.787 -0.2902  0.1980  0.0499
 3783G2HHO Head45189  18.361  17.743  18.506 -0.2286  0.2712  0.2286
 3783G2HHO Head45190  18.057  18.066  18.350 -0.0155  0.1437 -0.1766
 3783G2HHO Head45191  18.364  18.074  18.225 -0.3118 -0.0343  0.0880
 3783G2HHO Head45192  18.590  17.791  18.235 -0.0260 -0.1460  0.0181
 3783G2HHO link45193  18.608  17.582  18.054 -0.6316 -0.2583 -0.0986
 3783G2HHO link45194  18.565  17.615  17.782  0.2388 -0.0133 -0.2649
 3783G2HHO Tail45195  18.617  17.915  17.668  0.3236 -0.1998  0.3947
 3783G2HHO Tail45196  18.339  18.075  17.801 -0.0368 -0.1982  0.0171
 3783G2HHO Tail45197  18.189  18.366  17.785  0.0482  0.3633 -0.1520
 3783G2HHO Tail45198  17.885  18.578  17.567  0.5142 -0.0062  0.0652
 3783G2HHO Tail45199  18.869  18.009  17.888  0.0151 -0.1067  0.3472
 3783G2HHO Tail45200  19.042  18.275  17.940 -0.4170 -0.1395  0.1687
 3783G2HHO Tail45201  18.999  18.681  18.094 -0.1600  0.0174 -0.1447
 3784G2HHO Head45202  18.677  16.070  16.691 -0.0799 -0.0280 -0.1755
 3784G2HHO Head45203  18.470  16.092  16.486  0.0975  0.1929  0.4444
 3784G2HHO Head45204  17.887  16.088  16.059 -0.0276  0.0928 -0.1236
 3784G2HHO Head45205  18.159  15.999  16.212  0.1182  0.0618  0.0772
 3784G2HHO Head45206  18.162  15.934  16.554  0.0662 -0.0452  0.2548
 3784G2HHO Head45207  18.334  16.275  16.955  0.4424 -0.1676 -0.0488
 3784G2HHO Head45208  18.142  16.036  17.016 -0.4265  0.0382  0.2113
 3784G2HHO Head45209  17.729  15.826  17.165  0.0804 -0.0839  0.1665
 3784G2HHO Head45210  17.928  15.621  17.119 -0.0844 -0.4057  0.0910
 3784G2HHO Head45211  18.197  15.699  16.907  0.2283  0.1711  0.6213
 3784G2HHO link45212  18.158  15.676  16.646 -0.4582 -0.0790 -0.0752
 3784G2HHO link45213  18.217  15.451  16.501  0.0786  0.1041 -0.0049
 3784G2HHO Tail45214  18.298  15.180  16.673  0.0834 -0.1480  0.2117
 3784G2HHO Tail45215  18.076  14.934  16.575  0.0135 -0.1056  0.2296
 3784G2HHO Tail45216  18.054  14.630  16.650 -0.3231 -0.1200  0.0289
 3784G2HHO Tail45217  17.984  14.391  17.015 -0.1936  0.1056  0.3496
 3784G2HHO Tail45218  18.588  15.068  16.543 -0.1979 -0.2568 -0.2848
 3784G2HHO Tail45219  18.900  15.165  16.524  0.1105  0.0566 -0.2015
 3784G2HHO Tail45220  19.293  15.007  16.640  0.0622 -0.1046 -0.2759
 3785G2HHO Head45221  18.978  18.224  15.735 -0.1430 -0.2845  0.1071
 3785G2HHO Head45222  19.106  17.930  15.679 -0.2378  0.0797  0.0915
 3785G2HHO Head45223  19.645  17.889  15.405  0.0687 -0.3369 -0.1061
 3785G2HHO Head45224  19.449  17.707  15.570 -0.1394 -0.0627  0.2635
 3785G2HHO Head45225  19.340  17.790  15.876 -0.0353 -0.0594 -0.2057
 3785G2HHO Head45226  19.264  18.699  15.792 -0.0680  0.0011 -0.3919
 3785G2HHO Head45227  19.413  18.489  15.961 -0.3584 -0.3568  0.3145
 3785G2HHO Head45228  19.921  18.288  15.458  0.3571 -0.1963 -0.1310
 3785G2HHO Head45229  19.771  18.355  15.725  0.2896 -0.3721  0.2827
 3785G2HHO Head45230  19.487  18.178  15.829  0.1754 -0.3779 -0.1334
 3785G2HHO link45231  19.475  17.971  15.994 -0.1331 -0.0383 -0.2913
 3785G2HHO link45232  19.598  17.928  16.256  0.4414 -0.1533 -0.0074
 3785G2HHO Tail45233  19.498  17.671  16.421  0.3472  0.3191  0.3156
 3785G2HHO Tail45234  19.296  17.517  16.173  0.2277  0.0582 -0.4540
 3785G2HHO Tail45235  19.317  17.238  16.017  0.0247 -0.2570 -0.1323
 3785G2HHO Tail45236  19.572  16.888  16.013 -0.1823 -0.0853  0.2043
 3785G2HHO Tail45237  19.766  17.463  16.406  0.1754 -0.0896  0.0202
 3785G2HHO Tail45238  19.854  17.219  16.227 -0.1401  0.0130  0.2627
 3785G2HHO Tail45239  19.972  16.798  16.314 -0.0139 -0.0375 -0.3174
 3786G2HHO Head45240  15.610  19.443  18.374 -0.2178  0.0340  0.5676
 3786G2HHO Head45241  15.631  19.755  18.393  0.2299 -0.0439  0.3380
 3786G2HHO Head45242  15.558  19.567  18.853  0.0436  0.0142 -0.1125
 3786G2HHO Head45243  15.319  19.627  18.658 -0.0028 -0.1714  0.0805
 3786G2HHO Head45244  15.327  19.923  18.455  0.1208 -0.0873 -0.3437
 3786G2HHO Head45245  14.954  19.902  18.920 -0.0134 -0.1189 -0.0068
 3786G2HHO Head45246  14.923  20.133  18.657  0.0180 -0.2376  0.0333
 3786G2HHO Head45247  14.418  19.775  18.355  0.1939 -0.0751 -0.1577
 3786G2HHO Head45248  14.710  19.806  18.449  0.1071  0.1235  0.0465
 3786G2HHO Head45249  14.938  20.035  18.314  0.1926  0.3514 -0.0468
 3786G2HHO link45250  15.169  19.955  18.239  0.1212 -0.3239 -0.2945
 3786G2HHO link45251  15.234  19.871  17.983 -0.0053  0.1522  0.5332
 3786G2HHO Tail45252  15.161  20.027  17.691  0.0369 -0.1530  0.1671
 3786G2HHO Tail45253  14.917  20.247  17.807  0.1461 -0.5296  0.1649
 3786G2HHO Tail45254  14.665  20.207  18.024 -0.1815 -0.0063  0.1705
 3786G2HHO Tail45255  14.505  20.307  18.411 -0.1668  0.0768  0.2360
 3786G2HHO Tail45256  15.453  20.231  17.677 -0.2889 -0.2384 -0.2938
 3786G2HHO Tail45257  15.697  20.236  17.480 -0.2504  0.3692 -0.0328
 3786G2HHO Tail45258  15.933  20.514  17.272 -0.0768 -0.2721 -0.1235
 3787G2HHO Head45259  18.237  14.679  15.331  0.2610  0.0809 -0.5134
 3787G2HHO Head45260  18.458  14.852  15.432  0.0804  0.0867 -0.1012
 3787G2HHO Head45261  18.676  15.276  14.959  0.2629  0.1541 -0.0369
 3787G2HHO Head45262  18.663  15.155  15.256 -0.0999 -0.2476  0.1726
 3787G2HHO Head45263  18.790  14.841  15.295  0.4414 -0.3812  0.5710
 3787G2HHO Head45264  19.091  14.445  14.966  0.1407 -0.5386 -0.1143
 3787G2HHO Head45265  19.293  14.632  15.065  0.0363 -0.3534 -0.1746
 3787G2HHO Head45266  19.493  14.370  15.394 -0.1604 -0.3710  0.2426
 3787G2HHO Head45267  19.482  14.659  15.432 -0.2411 -0.5240 -0.0491
 3787G2HHO Head45268  19.192  14.852  15.336  0.1874  0.2936  0.2586
 3787G2HHO link45269  18.991  14.812  15.471 -0.0786 -0.1713  0.0367
 3787G2HHO link45270  18.993  14.635  15.681 -0.2043 -0.0351 -0.0339
 3787G2HHO Tail45271  18.765  14.392  15.698  0.0150 -0.3345 -0.3241
 3787G2HHO Tail45272  18.838  14.277  16.011  0.1213  0.0399 -0.0273
 3787G2HHO Tail45273  18.716  14.277  16.311 -0.7545 -0.5551  0.2843
 3787G2HHO Tail45274  18.429  14.100  16.573 -0.2836 -0.2086 -0.0719
 3787G2HHO Tail45275  18.453  14.546  15.746  0.2526 -0.1310 -0.1608
 3787G2HHO Tail45276  18.353  14.837  15.837  0.3808 -0.0846 -0.1265
 3787G2HHO Tail45277  18.208  15.204  15.653 -0.2512 -0.1697 -0.2608
 3788G2HHO Head45278  15.274  16.740  17.953  0.1513 -0.4233  0.1902
 3788G2HHO Head45279  15.059  16.755  18.214 -0.1407 -0.2682  0.3894
 3788G2HHO Head45280  15.487  17.145  18.158  0.0596 -0.3145 -0.0475
 3788G2HHO Head45281  15.214  17.243  18.302 -0.0681 -0.0113  0.2098
 3788G2HHO Head45282  14.912  17.060  18.317 -0.0746 -0.3468 -0.0842
 3788G2HHO Head45283  15.252  17.142  17.596  0.1303 -0.0036  0.1719
 3788G2HHO Head45284  15.118  17.224  17.868 -0.0156  0.1569  0.4217
 3788G2HHO Head45285  14.965  17.590  17.643  0.1653  0.3264 -0.1993
 3788G2HHO Head45286  14.738  17.390  17.707 -0.2104 -0.2881 -0.0718
 3788G2HHO Head45287  14.795  17.130  17.925 -0.3358 -0.2311  0.1985
 3788G2HHO link45288  14.708  17.142  18.169  0.1311  0.6251 -0.0266
 3788G2HHO link45289  14.459  17.254  18.274  0.2727  0.0097 -0.0736
 3788G2HHO Tail45290  14.177  17.069  18.265  0.2169 -0.0520  0.0167
 3788G2HHO Tail45291  13.981  17.243  18.033  0.1624  0.2743  0.0296
 3788G2HHO Tail45292  13.882  17.199  17.728 -0.4735 -0.1148  0.0651
 3788G2HHO Tail45293  14.048  17.019  17.361  0.1840  0.0340  0.3223
 3788G2HHO Tail45294  14.302  16.826  18.056 -0.1006  0.3664 -0.1034
 3788G2HHO Tail45295  14.272  16.745  17.743 -0.1063 -0.0535 -0.5370
 3788G2HHO Tail45296  14.497  16.624  17.387 -0.2496 -0.1179 -0.3474
 3789G2HHO Head45297  17.335  12.863  17.270 -0.0213  0.0856  0.2727
 3789G2HHO Head45298  17.448  13.110  17.472 -0.2341  0.0388 -0.2104
 3789G2HHO Head45299  16.887  13.097  17.261 -0.1986  0.1098  0.0420
 3789G2HHO Head45300  17.012  13.055  17.536  0.0954 -0.1497  0.0811
 3789G2HHO Head45301  17.231  13.292  17.677 -0.1535  0.2076  0.1790
 3789G2HHO Head45302  16.864  12.668  18.281  0.1685  0.3523  0.0682
 3789G2HHO Head45303  16.958  12.835  18.054  0.2189  0.0795  0.2926
 3789G2HHO Head45304  17.529  12.686  17.664 -0.0190  0.2072  0.0068
 3789G2HHO Head45305  17.259  12.757  17.750  0.3263  0.0290  0.3545
 3789G2HHO Head45306  17.249  13.006  17.995  0.1289 -0.5239  0.0247
 3789G2HHO link45307  17.282  13.279  17.940 -0.1501  0.1628 -0.1167
 3789G2HHO link45308  17.406  13.481  18.084 -0.1472  0.2198 -0.1797
 3789G2HHO Tail45309  17.508  13.756  17.951 -0.2463  0.0744  0.2003
 3789G2HHO Tail45310  17.844  13.675  17.907  0.0524 -0.1200 -0.0610
 3789G2HHO Tail45311  18.051  13.730  17.676 -0.0121 -0.3206 -0.1937
 3789G2HHO Tail45312  18.021  13.909  17.278 -0.1058 -0.0916 -0.1091
 3789G2HHO Tail45313  17.394  13.694  17.637 -0.0740 -0.4433  0.1910
 3789G2HHO Tail45314  17.518  13.790  17.383  0.1166 -0.0611  0.0980
 3789G2HHO Tail45315  17.557  14.158  17.152 -0.0961  0.0258  0.0197
 3790G2HHO Head45316  18.695  16.524  16.559  0.1449  0.3037 -0.0631
 3790G2HHO Head45317  18.985  16.398  16.612 -0.3953 -0.4170 -0.0089
 3790G2HHO Head45318  19.138  15.929  16.635 -0.2909  0.0008 -0.2243
 3790G2HHO Head45319  19.352  16.154  16.481 -0.1637  0.3342  0.2288
 3790G2HHO Head45320  19.259  16.476  16.390  0.0368 -0.0688  0.4121
 3790G2HHO Head45321  18.601  17.029  16.304 -0.0946  0.0354 -0.2890
 3790G2HHO Head45322  18.755  16.806  16.130  0.1178 -0.0531  0.0920
 3790G2HHO Head45323  19.105  16.826  15.550  0.4255 -0.2715 -0.0146
 3790G2HHO Head45324  19.122  16.922  15.835  0.0729 -0.6846 -0.2278
 3790G2HHO Head45325  19.108  16.754  16.140  0.1822 -0.0749  0.0952
 3790G2HHO link45326  19.196  16.506  16.144  0.1268  0.0689  0.4827
 3790G2HHO link45327  19.324  16.414  15.900  0.1399  0.0108  0.1084
 3790G2HHO Tail45328  19.591  16.243  15.903 -0.0896 -0.1619 -0.0879
 3790G2HHO Tail45329  19.467  15.950  16.065 -0.1971 -0.1756  0.0572
 3790G2HHO Tail45330  19.575  15.769  16.296 -0.2360 -0.5009  0.1767
 3790G2HHO Tail45331  19.961  15.622  16.444  0.1230 -0.0051  0.0368
 3790G2HHO Tail45332  19.763  16.412  16.174  0.0757  0.0743  0.0041
 3790G2HHO Tail45333  19.784  16.351  16.487 -0.0427  0.0263 -0.1068
 3790G2HHO Tail45334  19.733  16.012  16.764 -0.2838 -0.1258  0.0054
 3791G2HHO Head45335  17.445  21.062  19.055 -0.0976 -0.3681  0.0246
 3791G2HHO Head45336  17.355  21.284  18.914 -0.2298  0.1622  0.1573
 3791G2HHO Head45337  17.187  21.937  19.043 -0.0417  0.1597 -0.0672
 3791G2HHO Head45338  17.295  21.669  19.082 -0.4166 -0.0004 -0.0194
 3791G2HHO Head45339  17.560  21.562  18.901 -0.2570  0.2234  0.0594
 3791G2HHO Head45340  17.577  22.169  19.422  0.0987 -0.0365 -0.1775
 3791G2HHO Head45341  17.634  21.889  19.396  0.2626 -0.0093 -0.2762
 3791G2HHO Head45342  18.021  22.018  19.619  0.1550 -0.0606 -0.3791
 3791G2HHO Head45343  18.049  21.780  19.424  0.2181  0.1522 -0.0101
 3791G2HHO Head45344  17.838  21.779  19.136 -0.1963  0.3154  0.0689
 3791G2HHO link45345  17.792  21.555  19.020 -0.0019  0.3452 -0.1545
 3791G2HHO link45346  17.972  21.331  19.007  0.4536  0.0134  0.0078
 3791G2HHO Tail45347  18.032  21.205  18.701  0.1953 -0.3523 -0.1491
 3791G2HHO Tail45348  18.159  20.896  18.809  0.0130 -0.1605  0.1237
 3791G2HHO Tail45349  18.110  20.594  18.852 -0.0954  0.1527  0.0816
 3791G2HHO Tail45350  17.873  20.245  18.756  0.0094 -0.0157 -0.1337
 3791G2HHO Tail45351  17.726  21.066  18.605  0.2329 -0.2657  0.0570
 3791G2HHO Tail45352  17.448  21.134  18.491  0.2792 -0.2267 -0.3399
 3791G2HHO Tail45353  17.153  21.053  18.178 -0.3219  0.1900  0.1948
 3792G2HHO Head45354  14.304  13.491  16.473 -0.3104  0.1265  0.4137
 3792G2HHO Head45355  14.060  13.557  16.696 -0.4508 -0.3477  0.6932
 3792G2HHO Head45356  14.211  12.898  16.706 -0.0215 -0.0301  0.2078
 3792G2HHO Head45357  14.157  13.160  16.866  0.6065 -0.3263 -0.4193
 3792G2HHO Head45358  13.846  13.314  16.811  0.2381 -0.5106 -0.0558
 3792G2HHO Head45359  13.229  12.875  17.394  0.1407 -0.0565 -0.1115
 3792G2HHO Head45360  13.488  12.969  17.238  0.1909 -0.0115  0.4218
 3792G2HHO Head45361  12.960  13.296  17.036  0.1143 -0.0684  0.0468
 3792G2HHO Head45362  13.200  13.338  17.173 -0.0253 -0.3598  0.1350
 3792G2HHO Head45363  13.493  13.236  17.009  0.1889 -0.2906  0.6092
 3792G2HHO link45364  13.689  13.400  16.997 -0.1152  0.5108 -0.3187
 3792G2HHO link45365  13.684  13.660  17.105  0.4004 -0.3533  0.0726
 3792G2HHO Tail45366  13.950  13.810  17.234  0.2762 -0.2188 -0.0428
 3792G2HHO Tail45367  14.185  13.576  17.134  0.0404 -0.1489  0.1925
 3792G2HHO Tail45368  14.363  13.353  17.282 -0.1294 -0.0621 -0.3139
 3792G2HHO Tail45369  14.484  12.919  17.255  0.2074 -0.2941 -0.0473
 3792G2HHO Tail45370  13.964  14.054  16.992  0.1550  0.3511  0.0562
 3792G2HHO Tail45371  14.213  14.247  16.942 -0.0524  0.0144  0.2409
 3792G2HHO Tail45372  14.338  14.666  16.970 -0.1618 -0.0254 -0.1551
 3793G2HHO Head45373  14.734  13.116  19.179 -0.1308  0.1138 -0.0172
 3793G2HHO Head45374  14.729  13.198  18.819  0.1348 -0.1837 -0.2879
 3793G2HHO Head45375  14.260  13.263  18.750  0.0222  0.0934  0.0812
 3793G2HHO Head45376  14.422  13.063  18.505  0.4640 -0.0679 -0.0959
 3793G2HHO Head45377  14.743  12.953  18.587 -0.0774  0.4428  0.3026
 3793G2HHO Head45378  14.493  12.509  18.412 -0.3979 -0.0752 -0.1400
 3793G2HHO Head45379  14.808  12.437  18.449  0.1186 -0.1062 -0.0844
 3793G2HHO Head45380  15.292  12.244  18.660 -0.2696  0.2047 -0.0085
 3793G2HHO Head45381  15.153  12.525  18.690 -0.2386 -0.0211  0.0598
 3793G2HHO Head45382  15.028  12.699  18.412  0.4222 -0.1429  0.0786
 3793G2HHO link45383  14.941  12.946  18.403  0.4424  0.0988 -0.6656
 3793G2HHO link45384  15.022  13.151  18.245 -0.0739  0.0901 -0.0179
 3793G2HHO Tail45385  15.045  13.161  17.913 -0.2193 -0.2345 -0.1310
 3793G2HHO Tail45386  14.723  13.238  17.810  0.3666 -0.1387  0.0284
 3793G2HHO Tail45387  14.625  13.515  17.684 -0.3658  0.2374  0.1787
 3793G2HHO Tail45388  14.730  13.925  17.653 -0.0442 -0.1883  0.4415
 3793G2HHO Tail45389  15.174  13.475  17.873  0.0802  0.2097  0.2588
 3793G2HHO Tail45390  15.462  13.574  17.763 -0.3404 -0.4285  0.3617
 3793G2HHO Tail45391  15.813  13.762  17.925 -0.2558  0.0327 -0.0586
 3794G2HHO Head45392  16.387  14.065  19.941 -0.4268  0.2460 -0.1957
 3794G2HHO Head45393  16.671  14.122  19.939 -0.4676 -0.3190  0.1524
 3794G2HHO Head45394  16.681  14.430  20.585  0.1483 -0.0155  0.0715
 3794G2HHO Head45395  16.577  14.484  20.231  0.0989 -0.0902  0.0937
 3794G2HHO Head45396  16.797  14.473  19.957 -0.0864 -0.1633 -0.0629
 3794G2HHO Head45397  17.204  15.011  20.121  0.1714 -0.2849  0.4405
 3794G2HHO Head45398  16.979  15.103  19.937 -0.2659  0.1661 -0.2154
 3794G2HHO Head45399  16.496  15.128  20.297 -0.0396  0.0299  0.1782
 3794G2HHO Head45400  16.674  14.907  20.202  0.1164 -0.3964 -0.0130
 3794G2HHO Head45401  16.718  14.875  19.852 -0.1648  0.6314  0.1785
 3794G2HHO link45402  16.770  14.627  19.745  0.0380  0.1094  0.2333
 3794G2HHO link45403  16.706  14.598  19.478  0.0961  0.0955  0.1667
 3794G2HHO Tail45404  16.959  14.572  19.258 -0.4147  0.3749 -0.4025
 3794G2HHO Tail45405  16.929  14.248  19.159  0.0610 -0.1369 -0.0644
 3794G2HHO Tail45406  16.680  14.085  19.064  0.3659 -0.1562  0.0405
 3794G2HHO Tail45407  16.574  13.789  18.786  0.2527 -0.0236 -0.0964
 3794G2HHO Tail45408  16.842  14.731  18.983  0.0957  0.0056  0.4325
 3794G2HHO Tail45409  16.943  14.733  18.697  0.2504 -0.0216  0.7355
 3794G2HHO Tail45410  17.265  14.573  18.442  0.1456 -0.0915  0.2588
 3795G2HHO Head45411  14.843  18.807  17.631 -0.0583  0.0790  0.4579
 3795G2HHO Head45412  14.732  19.104  17.703  0.3631 -0.1984  0.3389
 3795G2HHO Head45413  15.125  18.783  18.018 -0.2226 -0.1522 -0.2108
 3795G2HHO Head45414  14.911  18.974  18.091  0.2984  0.0832  0.1527
 3795G2HHO Head45415  14.882  19.282  17.938 -0.1199  0.0256 -0.0624
 3795G2HHO Head45416  14.533  18.838  18.324  0.3224 -0.2756  0.2700
 3795G2HHO Head45417  14.447  19.115  18.178 -0.0293  0.1794 -0.2103
 3795G2HHO Head45418  14.873  19.384  18.712 -0.3248  0.2877 -0.1279
 3795G2HHO Head45419  14.752  19.224  18.477 -0.1563 -0.3929  0.1805
 3795G2HHO Head45420  14.613  19.419  18.216 -0.2100  0.2042 -0.3415
 3795G2HHO link45421  14.750  19.502  18.022 -0.2565 -0.2585 -0.1580
 3795G2HHO link45422  14.688  19.743  17.889 -0.1642 -0.0760 -0.1146
 3795G2HHO Tail45423  14.785  19.815  17.578 -0.1062  0.1551  0.0272
 3795G2HHO Tail45424  14.850  19.491  17.481 -0.0990  0.2402  0.0482
 3795G2HHO Tail45425  14.689  19.315  17.291  0.0406  0.4174 -0.1292
 3795G2HHO Tail45426  14.673  18.892  17.155 -0.1997  0.3579  0.1824
 3795G2HHO Tail45427  14.469  19.846  17.451 -0.0161 -0.2905  0.2294
 3795G2HHO Tail45428  14.346  19.911  17.147 -0.3253  0.0741 -0.0169
 3795G2HHO Tail45429  14.318  20.225  16.850  0.3473  0.2397  0.1745
 3796G2HHO Head45430  19.121  22.033  19.371  0.2581 -0.1287 -0.3824
 3796G2HHO Head45431  19.056  21.858  19.112 -0.2213 -0.2776 -0.0024
 3796G2HHO Head45432  18.864  21.557  19.496 -0.0515 -0.0390  0.1664
 3796G2HHO Head45433  18.964  21.445  19.247 -0.1534 -0.1226 -0.2913
 3796G2HHO Head45434  19.242  21.562  19.064 -0.4324  0.2934 -0.1525
 3796G2HHO Head45435  19.566  21.848  19.303 -0.4136  0.2308 -0.2054
 3796G2HHO Head45436  19.531  21.918  18.961  0.1397 -0.1335 -0.0182
 3796G2HHO Head45437  19.987  21.322  18.719  0.1104 -0.0172 -0.0129
 3796G2HHO Head45438  19.809  21.629  18.768 -0.0758  0.0643 -0.1074
 3796G2HHO Head45439  19.471  21.653  18.734 -0.0954  0.1750 -0.3241
 3796G2HHO link45440  19.321  21.459  18.828  0.1728  0.2480  0.1802
 3796G2HHO link45441  19.363  21.177  18.790 -0.0755  0.1495  0.1068
 3796G2HHO Tail45442  19.240  21.031  18.527  0.4824  0.1966  0.2133
 3796G2HHO Tail45443  19.523  20.972  18.363 -0.1849  0.1774  0.0960
 3796G2HHO Tail45444  19.680  20.725  18.212  0.3018  0.1504  0.1606
 3796G2HHO Tail45445  19.708  20.563  17.815 -0.0837  0.6779 -0.3474
 3796G2HHO Tail45446  19.184  20.727  18.701  0.1564 -0.0919  0.3358
 3796G2HHO Tail45447  18.918  20.525  18.754 -0.4305 -0.1127 -0.0051
 3796G2HHO Tail45448  18.812  20.189  19.017  0.0810 -0.1896  0.0346
 3797G2HHO Head45449  15.761  18.404  18.432 -0.1874  0.0519  0.2057
 3797G2HHO Head45450  15.951  18.595  18.315  0.0167  0.0940 -0.2213
 3797G2HHO Head45451  15.573  18.213  17.898 -0.2935  0.0799  0.1024
 3797G2HHO Head45452  15.634  18.503  18.005 -0.2317 -0.3346 -0.0264
 3797G2HHO Head45453  15.958  18.628  17.964  0.4160 -0.3523 -0.1330
 3797G2HHO Head45454  16.364  18.457  18.269 -0.1993  0.1606 -0.0227
 3797G2HHO Head45455  16.380  18.795  18.262 -0.5544 -0.0209  0.0324
 3797G2HHO Head45456  16.074  18.911  18.636 -0.0624  0.0588 -0.4091
 3797G2HHO Head45457  16.007  19.077  18.369 -0.2219  0.1889  0.0734
 3797G2HHO Head45458  16.151  18.991  18.065 -0.0073  0.1573 -0.0684
 3797G2HHO link45459  16.028  18.855  17.864 -0.0356 -0.4413  0.1694
 3797G2HHO link45460  15.893  18.980  17.638  0.0302  0.1466 -0.2089
 3797G2HHO Tail45461  15.767  19.276  17.662  0.4595 -0.2636  0.0173
 3797G2HHO Tail45462  15.974  19.406  17.908  0.0243  0.0567  0.0510
 3797G2HHO Tail45463  15.940  19.667  18.080  0.5374  0.0663  0.1472
 3797G2HHO Tail45464  15.716  20.047  18.059  0.1744 -0.0458  0.3196
 3797G2HHO Tail45465  15.868  19.447  17.384 -0.2461  0.3357  0.1675
 3797G2HHO Tail45466  15.761  19.666  17.192  0.0589  0.1298 -0.3855
 3797G2HHO Tail45467  15.889  19.939  16.884  0.1579 -0.3968  0.1540
 3798G2HHO Head45468  22.023  16.510  16.826 -0.0101 -0.0515 -0.0551
 3798G2HHO Head45469  21.943  16.369  17.086 -0.0589  0.0983  0.1729
 3798G2HHO Head45470  21.944  15.720  16.659 -0.1717 -0.0969 -0.0533
 3798G2HHO Head45471  21.909  16.002  16.803  0.2382  0.0814  0.0891
 3798G2HHO Head45472  22.028  16.040  17.136  0.3568  0.2958 -0.0605
 3798G2HHO Head45473  22.218  15.267  17.500 -0.0148 -0.0193 -0.0176
 3798G2HHO Head45474  22.113  15.527  17.619 -0.1157  0.3370 -0.1167
 3798G2HHO Head45475  22.544  16.074  17.791  0.1769  0.1455 -0.2063
 3798G2HHO Head45476  22.262  15.956  17.756 -0.0148 -0.1118  0.3351
 3798G2HHO Head45477  22.136  15.833  17.448  0.1787  0.2382 -0.4403
 3798G2HHO link45478  21.920  15.926  17.340  0.2262  0.3713 -0.0659
 3798G2HHO link45479  21.658  15.945  17.451 -0.0917  0.2831  0.0397
 3798G2HHO Tail45480  21.545  15.746  17.693  0.0074 -0.0992  0.0436
 3798G2HHO Tail45481  21.231  15.897  17.797  0.2060  0.1739  0.0898
 3798G2HHO Tail45482  21.071  16.176  17.777 -0.0441 -0.0696 -0.0190
 3798G2HHO Tail45483  20.779  16.426  17.984 -0.4222  0.1492 -0.2663
 3798G2HHO Tail45484  21.396  15.505  17.484  0.3738 -0.1698  0.0059
 3798G2HHO Tail45485  21.109  15.353  17.506  0.7829 -0.1667 -0.3166
 3798G2HHO Tail45486  20.787  15.288  17.804  0.0145 -0.0542 -0.0845
 3799G2HHO Head45487  13.323  19.478  19.584  0.3038 -0.1326  0.2617
 3799G2HHO Head45488  13.237  19.408  19.318 -0.0900  0.0582 -0.2280
 3799G2HHO Head45489  13.497  19.026  19.316 -0.2568 -0.2031 -0.0480
 3799G2HHO Head45490  13.209  18.926  19.350 -0.0413 -0.2473  0.3870
 3799G2HHO Head45491  12.971  19.181  19.286 -0.6252  0.1784 -0.1326
 3799G2HHO Head45492  12.453  19.792  19.053  0.3013  0.1152 -0.2822
 3799G2HHO Head45493  12.450  19.528  18.934 -0.2560  0.2691  0.1500
 3799G2HHO Head45494  12.040  19.294  19.068  0.3126  0.0778 -0.2614
 3799G2HHO Head45495  12.288  19.132  19.009 -0.1536 -0.2713 -0.0719
 3799G2HHO Head45496  12.595  19.260  19.135 -0.1491 -0.4225  0.0398
 3799G2HHO link45497  12.842  19.172  19.050  0.2363  0.1521 -0.2363
 3799G2HHO link45498  12.857  18.975  18.829 -0.0486  0.0162 -0.1623
 3799G2HHO Tail45499  13.122  18.894  18.654 -0.0935 -0.1557 -0.0189
 3799G2HHO Tail45500  13.073  18.568  18.537 -0.4990  0.0320 -0.0220
 3799G2HHO Tail45501  13.086  18.423  18.264 -0.2959  0.5401 -0.1771
 3799G2HHO Tail45502  12.926  18.062  18.075  0.3068 -0.1343 -0.3639
 3799G2HHO Tail45503  13.062  19.091  18.368  0.0558  0.0420  0.1653
 3799G2HHO Tail45504  13.159  19.113  18.052 -0.3746 -0.2761 -0.2001
 3799G2HHO Tail45505  13.468  18.923  17.821  0.0378 -0.1763  0.2497
 3800G2HHO Head45506  15.866  18.219  17.459  0.1604  0.3158  0.0602
 3800G2HHO Head45507  15.903  18.545  17.502  0.3600 -0.4687  0.1829
 3800G2HHO Head45508  16.314  18.229  17.234 -0.2591 -0.1729 -0.3001
 3800G2HHO Head45509  16.129  18.458  17.112  0.1080 -0.4425 -0.3112
 3800G2HHO Head45510  16.107  18.753  17.302 -0.0964 -0.2982 -0.6041
 3800G2HHO Head45511  16.898  18.599  17.659 -0.0103 -0.0447 -0.3073
 3800G2HHO Head45512  16.627  18.762  17.780 -0.2410  0.0035 -0.5417
 3800G2HHO Head45513  16.167  18.270  17.858  0.0915  0.0511 -0.2628
 3800G2HHO Head45514  16.376  18.426  17.657 -0.2633  0.0548 -0.1502
 3800G2HHO Head45515  16.337  18.764  17.619  0.3402 -0.4045 -0.0351
 3800G2HHO link45516  16.288  18.891  17.404 -0.4744  0.1713  0.1527
 3800G2HHO link45517  16.337  19.168  17.339 -0.1915 -0.1756  0.4198
 3800G2HHO Tail45518  16.545  19.348  17.527 -0.0530  0.0210  0.2567
 3800G2HHO Tail45519  16.343  19.615  17.565 -0.2820  0.1281 -0.2299
 3800G2HHO Tail45520  16.419  19.910  17.680  0.1524 -0.3540 -0.0365
 3800G2HHO Tail45521  16.267  20.316  17.654  0.1153  0.1126  0.3463
 3800G2HHO Tail45522  16.475  19.186  17.836  0.2238 -0.3471  0.1738
 3800G2HHO Tail45523  16.670  19.180  18.082 -0.2205  0.0269 -0.0029
 3800G2HHO Tail45524  16.838  19.415  18.401 -0.0556  0.3038  0.3327
 3801G2HHO Head45525  18.909  17.373  17.442 -0.2258  0.0426  0.3358
 3801G2HHO Head45526  18.972  17.714  17.512 -0.1940  0.2696  0.0013
 3801G2HHO Head45527  18.430  17.643  17.067 -0.0087 -0.0775  0.2206
 3801G2HHO Head45528  18.560  17.731  17.303 -0.0636  0.0421  0.0102
 3801G2HHO Head45529  18.835  17.955  17.308 -0.0050  0.0243  0.0687
 3801G2HHO Head45530  17.958  18.112  17.432 -0.0988 -0.3979  0.1599
 3801G2HHO Head45531  18.290  18.076  17.363  0.0711 -0.2739  0.0087
 3801G2HHO Head45532  18.180  18.468  17.102 -0.3060  0.0307  0.1164
 3801G2HHO Head45533  18.399  18.526  17.325  0.3276 -0.3139  0.3219
 3801G2HHO Head45534  18.556  18.260  17.487 -0.3022  0.4500  0.1918
 3801G2HHO link45535  18.804  18.195  17.425  0.4133 -0.5062  0.9763
 3801G2HHO link45536  19.012  18.388  17.426  0.0957 -0.1656  0.4678
 3801G2HHO Tail45537  19.037  18.653  17.633 -0.1488  0.1467 -0.2645
 3801G2HHO Tail45538  19.378  18.651  17.690  0.2100 -0.2662 -0.0376
 3801G2HHO Tail45539  19.583  18.428  17.792  0.0859 -0.1170  0.2901
 3801G2HHO Tail45540  19.814  18.109  17.592  0.1408 -0.0101  0.4945
 3801G2HHO Tail45541  19.005  18.940  17.433  0.0265  0.1179  0.3114
 3801G2HHO Tail45542  18.870  19.214  17.491 -0.5782 -0.1110 -0.1690
 3801G2HHO Tail45543  18.957  19.565  17.727 -0.2326 -0.0669  0.1923
 3802G2HHO Head45544  13.213  15.589  17.331 -0.3385  0.2585  0.5604
 3802G2HHO Head45545  13.357  15.678  17.076 -0.1381 -0.0044  0.0566
 3802G2HHO Head45546  13.168  16.172  16.494 -0.1211 -0.1018 -0.0104
 3802G2HHO Head45547  13.310  15.919  16.707 -0.0534 -0.0239  0.2413
 3802G2HHO Head45548  13.389  16.019  17.026  0.1029 -0.2468 -0.3114
 3802G2HHO Head45549  12.735  15.575  17.415 -0.0368  0.0848 -0.3914
 3802G2HHO Head45550  12.785  15.894  17.354  0.2700 -0.0415 -0.1683
 3802G2HHO Head45551  13.071  16.253  17.884 -0.3540  0.0023  0.1055
 3802G2HHO Head45552  12.955  16.235  17.598 -0.0756 -0.0398 -0.2088
 3802G2HHO Head45553  13.101  16.048  17.340 -0.2083  0.0518 -0.2597
 3802G2HHO link45554  13.219  16.188  17.134  0.0953 -0.2233  0.2140
 3802G2HHO link45555  13.135  16.421  16.989 -0.1895 -0.0604  0.1122
 3802G2HHO Tail45556  13.072  16.702  17.154  0.1424  0.1400  0.1730
 3802G2HHO Tail45557  13.187  16.602  17.462 -0.0494 -0.2456  0.1078
 3802G2HHO Tail45558  13.372  16.334  17.538  0.0334 -0.2401 -0.0563
 3802G2HHO Tail45559  13.325  15.924  17.705  0.1414  0.2464  0.0437
 3802G2HHO Tail45560  13.342  16.906  17.052 -0.1599 -0.1637 -0.0025
 3802G2HHO Tail45561  13.664  16.972  17.097  0.1804  0.3517 -0.2136
 3802G2HHO Tail45562  14.029  17.029  16.872 -0.0509  0.2460 -0.2663
 3803G2HHO Head45563  14.173  18.148  19.314 -0.3403 -0.1994  0.1619
 3803G2HHO Head45564  14.051  18.404  19.272  0.4253 -0.4596 -0.0943
 3803G2HHO Head45565  13.552  18.541  19.387  0.1503  0.0698  0.2210
 3803G2HHO Head45566  13.682  18.653  19.170  0.4338  0.0940 -0.0034
 3803G2HHO Head45567  13.916  18.491  18.955 -0.0315 -0.3979 -0.2970
 3803G2HHO Head45568  14.127  19.116  19.376 -0.0672 -0.1045  0.2325
 3803G2HHO Head45569  14.089  18.852  19.287 -0.3397  0.1333 -0.4219
 3803G2HHO Head45570  14.529  19.251  19.140 -0.0377 -0.0435  0.2230
 3803G2HHO Head45571  14.288  19.109  18.936  0.2172 -0.1745  0.2140
 3803G2HHO Head45572  14.229  18.763  18.967 -0.3709 -0.2074  0.5144
 3803G2HHO link45573  14.065  18.641  18.807 -0.3869 -0.5813  0.4895
 3803G2HHO link45574  14.081  18.667  18.521  0.1837 -0.0811  0.2161
 3803G2HHO Tail45575  14.057  18.933  18.348 -0.0984  0.0125 -0.0439
 3803G2HHO Tail45576  13.706  18.987  18.357  0.1617 -0.2239  0.0177
 3803G2HHO Tail45577  13.480  19.186  18.505  0.0091  0.0857 -0.2046
 3803G2HHO Tail45578  13.298  19.215  18.902  0.0018  0.1125  0.2055
 3803G2HHO Tail45579  14.074  18.777  18.025  0.2911  0.2248 -0.0861
 3803G2HHO Tail45580  13.948  18.787  17.728 -0.1538 -0.4407  0.2599
 3803G2HHO Tail45581  13.779  19.079  17.467 -0.2447 -0.4318  0.0791
 3804G2HHO Head45582  22.747  16.847  16.655  0.2069  0.2168 -0.0776
 3804G2HHO Head45583  22.580  16.742  16.876  0.0861  0.1174  0.0144
 3804G2HHO Head45584  22.473  16.444  17.220 -0.1763  0.3088  0.4060
 3804G2HHO Head45585  22.271  16.697  17.207 -0.3394  0.0247  0.0562
 3804G2HHO Head45586  22.265  16.875  16.904  0.1322  0.0314  0.0867
 3804G2HHO Head45587  22.362  17.777  16.928 -0.0645 -0.3282  0.1775
 3804G2HHO Head45588  22.592  17.549  16.899  0.1664  0.0611 -0.3272
 3804G2HHO Head45589  22.467  17.567  16.387 -0.2139 -0.1688  0.0274
 3804G2HHO Head45590  22.571  17.305  16.498 -0.1423  0.5146  0.4260
 3804G2HHO Head45591  22.494  17.207  16.848  0.1304  0.1318  0.1852
 3804G2HHO link45592  22.242  17.142  16.904  0.0481  0.1747  0.0129
 3804G2HHO link45593  22.058  17.298  17.050 -0.0857 -0.1202 -0.0128
 3804G2HHO Tail45594  21.754  17.179  17.149  0.1256 -0.2388 -0.1110
 3804G2HHO Tail45595  21.682  17.359  17.440  0.0940 -0.7922  0.2417
 3804G2HHO Tail45596  21.475  17.598  17.526  0.0517 -0.6713  0.1759
 3804G2HHO Tail45597  21.048  17.687  17.513 -0.0455 -0.2281  0.1122
 3804G2HHO Tail45598  21.861  16.869  17.257  0.1856 -0.0058  0.1195
 3804G2HHO Tail45599  21.732  16.639  17.440 -0.0865  0.0576 -0.3541
 3804G2HHO Tail45600  21.372  16.423  17.468 -0.2155  0.0412  0.3415
 3805G2HHO Head45601  20.836  15.467  19.267  0.1551 -0.3148 -0.0477
 3805G2HHO Head45602  20.691  15.253  19.410  0.1027 -0.0551 -0.0389
 3805G2HHO Head45603  20.721  14.501  19.208  0.1106 -0.1706 -0.2557
 3805G2HHO Head45604  20.671  14.758  19.338  0.1366  0.0038  0.0301
 3805G2HHO Head45605  20.485  15.029  19.234  0.3563 -0.2195 -0.0720
 3805G2HHO Head45606  19.877  15.508  18.991  0.1549 -0.2969 -0.4215
 3805G2HHO Head45607  19.862  15.194  18.952 -0.0688  0.2466 -0.3392
 3805G2HHO Head45608  20.195  14.773  19.517  0.3580 -0.1548  0.0647
 3805G2HHO Head45609  20.015  14.865  19.270  0.2976  0.0592  0.4547
 3805G2HHO Head45610  20.154  15.005  18.977 -0.4101  0.0025 -0.2089
 3805G2HHO link45611  20.420  15.100  18.984 -0.0660 -0.3042  0.0576
 3805G2HHO link45612  20.516  15.329  18.835  0.0066  0.0881 -0.6613
 3805G2HHO Tail45613  20.352  15.448  18.575 -0.5393 -0.1521  0.0037
 3805G2HHO Tail45614  20.123  15.196  18.486  0.0768 -0.4162  0.1541
 3805G2HHO Tail45615  20.045  15.082  18.199  0.0440 -0.2931 -0.0124
 3805G2HHO Tail45616  20.167  14.779  17.908  0.0774 -0.1890 -0.2181
 3805G2HHO Tail45617  20.589  15.425  18.301  0.0727  0.3258 -0.3615
 3805G2HHO Tail45618  20.859  15.259  18.288  0.0908 -0.1252  0.4621
 3805G2HHO Tail45619  21.026  14.917  18.061  0.1710 -0.5011 -0.1196
 3806G2HHO Head45620  15.551  20.362  19.377  0.0823  0.1560 -0.4590
 3806G2HHO Head45621  15.661  20.356  19.118  0.0564  0.1262 -0.1415
 3806G2HHO Head45622  15.202  20.342  18.991  0.1023 -0.1261 -0.4360
 3806G2HHO Head45623  15.364  20.070  18.907 -0.3414  0.0083 -0.0280
 3806G2HHO Head45624  15.692  20.046  18.952 -0.1746 -0.0289 -0.2699
 3806G2HHO Head45625  16.146  19.696  19.594 -0.0155  0.0612  0.1414
 3806G2HHO Head45626  15.842  19.701  19.607  0.3185 -0.2721  0.3644
 3806G2HHO Head45627  15.427  19.531  19.725  0.1839  0.1716 -0.4191
 3806G2HHO Head45628  15.417  19.777  19.508  0.3574 -0.0084  0.0401
 3806G2HHO Head45629  15.704  19.917  19.359 -0.3113  0.1688 -0.0508
 3806G2HHO link45630  15.790  19.849  19.112 -0.0921 -0.3903  0.2326
 3806G2HHO link45631  16.040  19.727  19.046  0.2395  0.1982  0.1404
 3806G2HHO Tail45632  16.337  19.816  19.183  0.5127  0.1419 -0.4510
 3806G2HHO Tail45633  16.496  19.514  19.249 -0.2167 -0.3392  0.0079
 3806G2HHO Tail45634  16.687  19.399  19.481  0.2956  0.4671 -0.2140
 3806G2HHO Tail45635  17.034  19.489  19.702 -0.0188 -0.1555  0.1195
 3806G2HHO Tail45636  16.492  19.939  18.896 -0.0415 -0.1565  0.2136
 3806G2HHO Tail45637  16.789  20.070  18.829 -0.0077 -0.0215 -0.3120
 3806G2HHO Tail45638  16.981  20.384  18.613 -0.1986 -0.0952 -0.0635
 3807G2HHO Head45639  21.238  16.704  20.079  0.0891  0.2091  0.2576
 3807G2HHO Head45640  21.186  16.602  19.791  0.3805 -0.2111 -0.2226
 3807G2HHO Head45641  21.746  16.235  20.066 -0.1316 -0.0137  0.2040
 3807G2HHO Head45642  21.436  16.321  19.999 -0.4108  0.2649 -0.2001
 3807G2HHO Head45643  21.321  16.303  19.691 -0.0583  0.5853 -0.2960
 3807G2HHO Head45644  21.861  16.930  19.766 -0.3054 -0.2706 -0.2117
 3807G2HHO Head45645  21.711  16.665  19.848  0.0047 -0.1815  0.6425
 3807G2HHO Head45646  22.176  16.491  19.327  0.0362 -0.3306 -0.0617
 3807G2HHO Head45647  21.945  16.606  19.466  0.3500 -0.5531 -0.2192
 3807G2HHO Head45648  21.722  16.394  19.631  0.0757  0.0925  0.1627
 3807G2HHO link45649  21.497  16.316  19.502 -0.5564  0.2793  0.2155
 3807G2HHO link45650  21.436  16.345  19.229 -0.3587  0.0866  0.0076
 3807G2HHO Tail45651  21.497  16.139  18.977  0.3070 -0.2327 -0.1536
 3807G2HHO Tail45652  21.299  15.874  19.077  0.0142  0.0235 -0.2680
 3807G2HHO Tail45653  21.003  15.842  19.059  0.4591 -0.1224  0.2665
 3807G2HHO Tail45654  20.667  15.942  18.817 -0.0302 -0.0089  0.2911
 3807G2HHO Tail45655  21.289  16.254  18.737 -0.0259 -0.1444  0.4402
 3807G2HHO Tail45656  21.064  16.127  18.568 -0.2076  0.1703 -0.1386
 3807G2HHO Tail45657  20.667  16.221  18.419 -0.1234 -0.2612 -0.3277
 3808G2HHO Head45658  12.130  17.544  16.608  0.0402 -0.1474 -0.3273
 3808G2HHO Head45659  12.375  17.648  16.684 -0.2521  0.1582  0.0100
 3808G2HHO Head45660  11.952  18.131  16.803 -0.0989  0.0366  0.2415
 3808G2HHO Head45661  12.107  17.998  16.610 -0.1308  0.0733  0.4359
 3808G2HHO Head45662  12.451  17.972  16.596 -0.3163  0.0077  0.0699
 3808G2HHO Head45663  11.985  17.738  15.956 -0.0145  0.1601  0.0420
 3808G2HHO Head45664  12.151  17.786  16.212  0.1863 -0.0201 -0.0336
 3808G2HHO Head45665  12.419  17.718  15.710 -0.1424 -0.0609 -0.0509
 3808G2HHO Head45666  12.539  17.728  15.977 -0.1946 -0.2429  0.5499
 3808G2HHO Head45667  12.435  17.977  16.181 -0.5525  0.2165 -0.1204
 3808G2HHO link45668  12.593  18.041  16.381  0.0890  0.0102  0.3713
 3808G2HHO link45669  12.840  18.149  16.383 -0.0763 -0.5034 -0.1417
 3808G2HHO Tail45670  12.947  18.385  16.597 -0.2486  0.2911  0.2893
 3808G2HHO Tail45671  13.267  18.446  16.474 -0.1237  0.2568 -0.0796
 3808G2HHO Tail45672  13.461  18.692  16.435 -0.1423  0.1848 -0.0730
 3808G2HHO Tail45673  13.813  18.884  16.618 -0.0608  0.3242 -0.0864
 3808G2HHO Tail45674  13.003  18.176  16.875  0.1421 -0.1425  0.1251
 3808G2HHO Tail45675  13.178  17.937  16.944 -0.0037 -0.0915 -0.0578
 3808G2HHO Tail45676  13.164  17.658  17.266  0.1865  0.2717  0.1456
 3809G2HHO Head45677  19.987  12.723  17.222  0.1041 -0.2894 -0.1755
 3809G2HHO Head45678  20.104  12.838  16.966  0.0936 -0.3773 -0.1960
 3809G2HHO Head45679  20.358  13.041  16.361 -0.1918  0.1771  0.0122
 3809G2HHO Head45680  20.117  12.920  16.569 -0.1543  0.0180 -0.0188
 3809G2HHO Head45681  20.019  13.145  16.824  0.3157  0.4047 -0.0436
 3809G2HHO Head45682  19.424  12.890  17.271  0.1981  0.3338  0.0058
 3809G2HHO Head45683  19.392  12.838  16.966  0.3145 -0.4385 -0.1325
 3809G2HHO Head45684  19.116  12.847  16.548  0.0746 -0.0480  0.3032
 3809G2HHO Head45685  19.386  12.980  16.514 -0.3107  0.0731  0.2292
 3809G2HHO Head45686  19.646  12.982  16.759  0.0887 -0.0673 -0.1265
 3809G2HHO link45687  19.776  13.216  16.832  0.5159  0.1843 -0.1132
 3809G2HHO link45688  19.670  13.485  16.830  0.2727 -0.7044  0.3302
 3809G2HHO Tail45689  19.529  13.621  16.553 -0.3254  0.0400  0.3898
 3809G2HHO Tail45690  19.265  13.404  16.505 -0.2240  0.1043  0.0259
 3809G2HHO Tail45691  18.997  13.307  16.678  0.2102  0.0858  0.0168
 3809G2HHO Tail45692  18.720  13.460  16.970  0.1003 -0.3262 -0.2377
 3809G2HHO Tail45693  19.384  13.902  16.691 -0.1059  0.1777 -0.0800
 3809G2HHO Tail45694  19.200  13.986  16.929  0.5742 -0.2144 -0.1580
 3809G2HHO Tail45695  19.087  14.313  17.175  0.3601 -0.1139  0.2956
 3810G2HHO Head45696  19.968  12.470  18.071 -0.1299  0.1267  0.3036
 3810G2HHO Head45697  19.745  12.650  18.097 -0.2393 -0.1802 -0.0104
 3810G2HHO Head45698  19.307  12.736  18.195  0.2179 -0.0749 -0.1531
 3810G2HHO Head45699  19.477  12.996  18.111  0.1710  0.3065  0.0021
 3810G2HHO Head45700  19.773  12.954  17.944 -0.3073  0.1282 -0.2096
 3810G2HHO Head45701  20.051  12.311  17.550 -0.2810  0.5135  0.0776
 3810G2HHO Head45702  19.774  12.416  17.627 -0.3966  0.0149 -0.2774
 3810G2HHO Head45703  19.141  12.652  17.625 -0.0476 -0.1668  0.0995
 3810G2HHO Head45704  19.384  12.659  17.761  0.2744 -0.1872 -0.0997
 3810G2HHO Head45705  19.685  12.752  17.596  0.0072  0.1594 -0.1620
 3810G2HHO link45706  19.801  12.940  17.687 -0.3697  0.0073 -0.5125
 3810G2HHO link45707  19.813  13.179  17.523  0.0806  0.1215 -0.0542
 3810G2HHO Tail45708  19.825  13.469  17.691 -0.1048  0.4498 -0.1127
 3810G2HHO Tail45709  19.539  13.624  17.556 -0.0740  0.1709 -0.4638
 3810G2HHO Tail45710  19.345  13.891  17.514 -0.1246  0.5197  0.0118
 3810G2HHO Tail45711  19.168  14.214  17.737  0.1453  0.3599 -0.0160
 3810G2HHO Tail45712  19.711  13.389  18.011 -0.0225 -0.0774 -0.2876
 3810G2HHO Tail45713  19.427  13.432  18.146  0.0894  0.0079  0.6088
 3810G2HHO Tail45714  19.189  13.737  18.348 -0.0499  0.5834 -0.2336
 3811G2HHO Head45715  17.557  18.165  19.681  0.2262  0.0178  0.2655
 3811G2HHO Head45716  17.877  17.998  19.668 -0.0635 -0.0811 -0.0877
 3811G2HHO Head45717  18.182  17.604  19.851  0.0659  0.0693 -0.1071
 3811G2HHO Head45718  17.997  17.592  19.621  0.1496 -0.2711  0.0237
 3811G2HHO Head45719  17.973  17.846  19.379  0.6211 -0.0242 -0.1434
 3811G2HHO Head45720  18.830  17.753  19.565  0.3570  0.1011 -0.2890
 3811G2HHO Head45721  18.534  17.743  19.607  0.2176 -0.1650 -0.0299
 3811G2HHO Head45722  18.187  17.233  19.201  0.2111 -0.0928 -0.5274
 3811G2HHO Head45723  18.305  17.427  19.396  0.0218  0.2827  0.1473
 3811G2HHO Head45724  18.374  17.751  19.294 -0.1186  0.0864  0.0251
 3811G2HHO link45725  18.188  17.932  19.263  0.0867 -0.1515 -0.0842
 3811G2HHO link45726  18.209  18.157  19.072  0.0267  0.5024  0.0602
 3811G2HHO Tail45727  18.511  18.237  18.933  0.0061  0.4650  0.0669
 3811G2HHO Tail45728  18.406  18.344  18.624 -0.3160 -0.0696  0.2147
 3811G2HHO Tail45729  18.146  18.441  18.486  0.0657 -0.2924  0.0479
 3811G2HHO Tail45730  18.023  18.619  18.132  0.1809  0.1210  0.0667
 3811G2HHO Tail45731  18.570  18.539  19.085  0.1628  0.0279  0.1624
 3811G2HHO Tail45732  18.471  18.836  19.033 -0.2392  0.3342  0.1548
 3811G2HHO Tail45733  18.540  19.157  18.754 -0.0268 -0.0364  0.0909
 3812G2HHO Head45734  18.549  18.284  20.244  0.2574 -0.1865 -0.3573
 3812G2HHO Head45735  18.522  18.501  20.022 -0.3610 -0.2445 -0.5196
 3812G2HHO Head45736  18.319  18.685  20.441  0.3179  0.1066 -0.0804
 3812G2HHO Head45737  18.112  18.665  20.214  0.0364 -0.5340  0.1387
 3812G2HHO Head45738  18.209  18.590  19.892 -0.1933 -0.3443  0.1633
 3812G2HHO Head45739  17.316  18.840  19.750 -0.2119  0.0688  0.4590
 3812G2HHO Head45740  17.557  18.649  19.632  0.0776 -0.1436 -0.1884
 3812G2HHO Head45741  17.704  18.918  20.186  0.0405 -0.0253  0.6226
 3812G2HHO Head45742  17.785  18.830  19.936 -0.4958 -0.2471 -0.3293
 3812G2HHO Head45743  17.798  18.498  19.864  0.0625  0.0401  0.0693
 3812G2HHO link45744  18.050  18.415  19.772 -0.0210 -0.0571  0.0522
 3812G2HHO link45745  18.075  18.394  19.484 -0.0768  0.0203 -0.1539
 3812G2HHO Tail45746  18.148  18.647  19.296 -0.1576  0.0027 -0.2133
 3812G2HHO Tail45747  17.848  18.832  19.322  0.0581  0.0706 -0.1361
 3812G2HHO Tail45748  17.675  19.090  19.242 -0.4512 -0.2571  0.2345
 3812G2HHO Tail45749  17.269  19.252  19.237  0.0040  0.1394  0.2351
 3812G2HHO Tail45750  18.337  18.826  19.530  0.2521 -0.3226  0.0833
 3812G2HHO Tail45751  18.509  19.095  19.511  0.3099  0.0621 -0.3253
 3812G2HHO Tail45752  18.839  19.274  19.298 -0.0751  0.0972 -0.0431
 3813G2HHO Head45753  12.610  20.175  18.298  0.1537  0.0399  0.2277
 3813G2HHO Head45754  12.810  20.203  18.495 -0.1831  0.3416 -0.0085
 3813G2HHO Head45755  12.916  19.961  19.087 -0.2513  0.0058  0.2318
 3813G2HHO Head45756  12.816  19.940  18.803 -0.2688 -0.4441 -0.0408
 3813G2HHO Head45757  13.035  19.934  18.543  0.1182  0.1901  0.0927
 3813G2HHO Head45758  12.926  19.488  18.712  0.1014  0.3345  0.0040
 3813G2HHO Head45759  13.125  19.595  18.926 -0.2888 -0.1034 -0.0770
 3813G2HHO Head45760  13.681  19.510  18.740  0.0246 -0.0361  0.1029
 3813G2HHO Head45761  13.525  19.667  18.952  0.3911  0.2512 -0.3526
 3813G2HHO Head45762  13.270  19.880  18.858 -0.0161 -0.2090  0.3322
 3813G2HHO link45763  13.304  19.968  18.612  0.1072 -0.3963 -0.0894
 3813G2HHO link45764  13.564  19.907  18.479 -0.0236 -0.2188 -0.4918
 3813G2HHO Tail45765  13.580  19.661  18.256  0.1092 -0.1003 -0.2001
 3813G2HHO Tail45766  13.506  19.877  17.970  0.1028  0.1154  0.1806
 3813G2HHO Tail45767  13.459  19.827  17.648  0.1642  0.3067  0.5498
 3813G2HHO Tail45768  13.510  19.468  17.413 -0.0525  0.3433 -0.2460
 3813G2HHO Tail45769  13.937  19.682  18.230 -0.0190  0.1968 -0.4044
 3813G2HHO Tail45770  14.153  19.498  18.097  0.3346  0.0862  0.1633
 3813G2HHO Tail45771  14.250  19.239  17.757  0.3717  0.1747 -0.0351
 3814G2HHO Head45772  13.396  21.386  16.713 -0.3574  0.1320  0.2949
 3814G2HHO Head45773  13.405  21.125  16.922  0.0620  0.3714  0.5149
 3814G2HHO Head45774  12.702  21.365  17.010  0.1445  0.0006  0.0488
 3814G2HHO Head45775  12.991  21.290  16.909  0.3257 -0.2342 -0.1044
 3814G2HHO Head45776  13.100  20.974  16.970  0.0775 -0.0866 -0.1648
 3814G2HHO Head45777  13.277  21.421  17.221 -0.1508 -0.0839 -0.0280
 3814G2HHO Head45778  13.201  21.267  17.462 -0.0065 -0.4024  0.0936
 3814G2HHO Head45779  12.827  21.544  17.500  0.0164  0.0447  0.2016
 3814G2HHO Head45780  12.777  21.222  17.451  0.1526  0.2441  0.5367
 3814G2HHO Head45781  13.013  20.977  17.414 -0.1629  0.0235 -0.3432
 3814G2HHO link45782  13.030  20.830  17.182 -0.2810 -0.6411  0.4301
 3814G2HHO link45783  13.030  20.555  17.179 -0.1989  0.1264 -0.0570
 3814G2HHO Tail45784  13.255  20.401  17.363 -0.1880 -0.4386  0.0455
 3814G2HHO Tail45785  13.456  20.274  17.109 -0.1356  0.1249  0.1302
 3814G2HHO Tail45786  13.745  20.218  17.086  0.0642  0.1370  0.1506
 3814G2HHO Tail45787  14.114  20.258  17.318 -0.1703 -0.0800  0.3919
 3814G2HHO Tail45788  13.098  20.107  17.411 -0.1427 -0.2046 -0.2289
 3814G2HHO Tail45789  13.068  19.919  17.647 -0.2271  0.0936 -0.1102
 3814G2HHO Tail45790  13.192  19.539  17.823 -0.0754  0.0398  0.1230
 3815G2HHO Head45791  15.904  20.787  19.347  0.2056  0.1442 -0.1031
 3815G2HHO Head45792  15.648  20.876  19.263 -0.7630 -0.4244 -0.1269
 3815G2HHO Head45793  15.093  20.645  19.371  0.0628 -0.0609  0.4286
 3815G2HHO Head45794  15.248  20.865  19.185  0.0612 -0.1304  0.3716
 3815G2HHO Head45795  15.501  20.752  18.971 -0.0522 -0.0279 -0.2182
 3815G2HHO Head45796  16.090  21.234  19.174  0.1378 -0.0168 -0.0852
 3815G2HHO Head45797  16.011  21.034  18.939  0.3151 -0.2347 -0.2375
 3815G2HHO Head45798  15.454  21.495  19.037 -0.1089  0.0004  0.0423
 3815G2HHO Head45799  15.649  21.267  19.074  0.3955 -0.2564 -0.2335
 3815G2HHO Head45800  15.691  21.066  18.796 -0.4379 -0.2775  0.0505
 3815G2HHO link45801  15.539  20.864  18.753 -0.0952 -0.2160  0.0534
 3815G2HHO link45802  15.467  20.746  18.489  0.0509 -0.0297  0.1566
 3815G2HHO Tail45803  15.340  20.441  18.491 -0.4289  0.0887  0.1816
 3815G2HHO Tail45804  15.652  20.294  18.506 -0.0020 -0.4868  0.0355
 3815G2HHO Tail45805  15.952  20.339  18.353 -0.2825  0.1454 -0.0674
 3815G2HHO Tail45806  16.208  20.160  18.061  0.1020 -0.0794 -0.1232
 3815G2HHO Tail45807  15.279  20.385  18.162  0.0243 -0.0208  0.2982
 3815G2HHO Tail45808  15.256  20.570  17.909 -0.0473 -0.0180  0.3288
 3815G2HHO Tail45809  14.967  20.739  17.654 -0.0823 -0.1150  0.1668
 3816G2HHO Head45810  17.418  16.006  17.819 -0.1540  0.0364  0.1636
 3816G2HHO Head45811  17.435  15.928  17.518 -0.0855 -0.1377  0.1821
 3816G2HHO Head45812  17.013  15.735  17.873 -0.1631  0.1902 -0.3558
 3816G2HHO Head45813  17.080  15.654  17.579  0.0261 -0.0966 -0.2780
 3816G2HHO Head45814  17.145  15.910  17.343  0.3345 -0.0685  0.2844
 3816G2HHO Head45815  17.150  16.557  17.030  0.1713 -0.0709 -0.0642
 3816G2HHO Head45816  16.907  16.372  17.024 -0.1019 -0.1196  0.1759
 3816G2HHO Head45817  16.476  16.312  17.125  0.0037  0.2338  0.1486
 3816G2HHO Head45818  16.609  16.033  17.035 -0.1477  0.3740 -0.0766
 3816G2HHO Head45819  16.957  16.033  16.964  0.2167  0.0622  0.1080
 3816G2HHO link45820  17.132  15.880  17.081 -0.0888 -0.8260  0.1874
 3816G2HHO link45821  17.320  15.703  16.956 -0.1763 -0.4061 -0.4269
 3816G2HHO Tail45822  17.471  15.431  17.096  0.1330  0.0129  0.1544
 3816G2HHO Tail45823  17.188  15.305  17.264  0.1512 -0.2840  0.1689
 3816G2HHO Tail45824  16.924  15.170  17.134 -0.0148 -0.1139  0.2789
 3816G2HHO Tail45825  16.530  15.041  17.272  0.0481 -0.2545 -0.2286
 3816G2HHO Tail45826  17.446  15.216  16.822 -0.1722 -0.0661  0.1795
 3816G2HHO Tail45827  17.232  14.986  16.719 -0.3097 -0.5523  0.3277
 3816G2HHO Tail45828  16.795  14.889  16.740 -0.1970 -0.1060 -0.1257
 3817G2HHO Head45829  17.924  15.208  18.887 -0.1664 -0.0094 -0.0933
 3817G2HHO Head45830  17.925  14.956  18.661 -0.0004 -0.3069 -0.0651
 3817G2HHO Head45831  17.267  15.065  18.669  0.0796  0.2166 -0.1113
 3817G2HHO Head45832  17.567  15.144  18.607 -0.0320  0.2480  0.3346
 3817G2HHO Head45833  17.729  14.933  18.373  0.4197  0.0696 -0.2096
 3817G2HHO Head45834  18.443  15.117  18.340  0.2447 -0.0859  0.3761
 3817G2HHO Head45835  18.208  15.288  18.426 -0.0760  0.1897 -0.7018
 3817G2HHO Head45836  17.954  15.600  18.643  0.0601  0.0793 -0.0861
 3817G2HHO Head45837  17.793  15.459  18.479  0.2597  0.2351 -0.0566
 3817G2HHO Head45838  17.924  15.260  18.217  0.2946 -0.2640  0.1613
 3817G2HHO link45839  17.821  15.038  18.150 -0.1687 -0.1522  1.0425
 3817G2HHO link45840  17.756  14.972  17.868  0.2808  0.1260  0.0060
 3817G2HHO Tail45841  17.908  14.718  17.697 -0.0617 -0.0133  0.3480
 3817G2HHO Tail45842  17.650  14.550  17.513 -0.0940 -0.2089  0.0441
 3817G2HHO Tail45843  17.570  14.596  17.202  0.2348 -0.2770 -0.0216
 3817G2HHO Tail45844  17.723  14.825  16.865  0.1074 -0.3009 -0.0853
 3817G2HHO Tail45845  17.961  14.505  17.963 -0.2549 -0.3400  0.1615
 3817G2HHO Tail45846  18.189  14.291  18.025  0.0487 -0.0336 -0.0339
 3817G2HHO Tail45847  18.597  14.289  18.150 -0.1952  0.0863  0.1077
 3818G2HHO Head45848  15.527  12.745  18.440  0.0021 -0.2131  0.1098
 3818G2HHO Head45849  15.508  13.026  18.519  0.1073 -0.3032 -0.0761
 3818G2HHO Head45850  15.542  13.656  18.906 -0.3759 -0.0377 -0.0244
 3818G2HHO Head45851  15.502  13.431  18.720  0.1927 -0.0274  0.2638
 3818G2HHO Head45852  15.765  13.264  18.560 -0.1454  0.0421 -0.0029
 3818G2HHO Head45853  15.481  13.050  17.854 -0.4207 -0.0553  0.1635
 3818G2HHO Head45854  15.494  13.202  18.105 -0.3730  0.3744 -0.3631
 3818G2HHO Head45855  16.180  13.237  17.790  0.1226  0.1167  0.2226
 3818G2HHO Head45856  15.863  13.247  17.858 -0.1396 -0.3586 -0.2013
 3818G2HHO Head45857  15.759  13.412  18.159 -0.2040  0.2494 -0.0074
 3818G2HHO link45858  15.915  13.386  18.386 -0.3444  0.0757  0.3764
 3818G2HHO link45859  16.193  13.344  18.364 -0.1261 -0.0872  0.3131
 3818G2HHO Tail45860  16.385  13.603  18.384 -0.0232 -0.1934  0.3512
 3818G2HHO Tail45861  16.674  13.445  18.455 -0.4373 -0.0791 -0.4136
 3818G2HHO Tail45862  16.927  13.543  18.604 -0.1775 -0.2646 -0.2108
 3818G2HHO Tail45863  17.028  13.804  18.932  0.1280 -0.1936  0.1399
 3818G2HHO Tail45864  16.415  13.687  18.058  0.2433 -0.3027  0.4574
 3818G2HHO Tail45865  16.238  13.823  17.824 -0.1285  0.2955  0.3974
 3818G2HHO Tail45866  16.227  14.187  17.601 -0.2344 -0.1349  0.3262
 3819G2HHO Head45867  15.874  22.787  16.979  0.1242 -0.0888  0.2381
 3819G2HHO Head45868  15.803  22.868  17.302  0.3357  0.2090  0.0005
 3819G2HHO Head45869  15.621  22.969  17.958  0.1299  0.0638 -0.2467
 3819G2HHO Head45870  15.668  22.805  17.709  0.3441  0.3791 -0.2586
 3819G2HHO Head45871  15.974  22.738  17.574 -0.3680  0.4048 -0.1295
 3819G2HHO Head45872  16.724  22.375  18.008  0.0942  0.1315  0.2330
 3819G2HHO Head45873  16.424  22.497  17.944  0.2840  0.0772  0.0969
 3819G2HHO Head45874  16.687  22.892  17.586  0.2470 -0.0489 -0.1306
 3819G2HHO Head45875  16.413  22.843  17.688 -0.0821  0.1469 -0.0698
 3819G2HHO Head45876  16.302  22.522  17.619 -0.2272  0.1250 -0.0926
 3819G2HHO link45877  16.050  22.490  17.559 -0.2729 -0.9091 -0.1851
 3819G2HHO link45878  15.903  22.257  17.578 -0.4749 -0.1568  0.0707
 3819G2HHO Tail45879  15.985  21.963  17.448 -0.3586 -0.0014  0.1662
 3819G2HHO Tail45880  15.858  21.995  17.124  0.0028 -0.1234 -0.0785
 3819G2HHO Tail45881  15.605  21.837  17.003  0.2412  0.1617 -0.1597
 3819G2HHO Tail45882  15.358  21.482  17.087 -0.1818 -0.2846 -0.0878
 3819G2HHO Tail45883  15.730  21.778  17.589  0.2315  0.0422  0.1061
 3819G2HHO Tail45884  15.552  21.521  17.466  0.1086  0.0117 -0.2307
 3819G2HHO Tail45885  15.257  21.204  17.577  0.1780 -0.2892 -0.0591
 3820G2HHO Head45886  12.468  17.194  15.727  0.1244  0.3042 -0.0375
 3820G2HHO Head45887  12.658  17.081  15.949  0.1540  0.3502 -0.5450
 3820G2HHO Head45888  12.398  17.131  16.733 -0.0956  0.0916  0.4046
 3820G2HHO Head45889  12.418  17.064  16.410 -0.5032  0.2889  0.1824
 3820G2HHO Head45890  12.697  17.210  16.268 -0.4569  0.0411  0.0415
 3820G2HHO Head45891  12.753  16.947  17.134  0.0832 -0.1608  0.0500
 3820G2HHO Head45892  12.933  17.121  16.936  0.0983  0.0487  0.1697
 3820G2HHO Head45893  12.776  16.481  16.683  0.2387 -0.2756 -0.2387
 3820G2HHO Head45894  12.688  16.802  16.657  0.0670 -0.1586 -0.0874
 3820G2HHO Head45895  12.949  17.030  16.588  0.0010 -0.1526  0.3713
 3820G2HHO link45896  12.956  17.193  16.385  0.2659 -0.0650  0.0777
 3820G2HHO link45897  13.182  17.337  16.314 -0.2003 -0.3701  0.0373
 3820G2HHO Tail45898  13.474  17.225  16.390 -0.0890  0.4654 -0.1673
 3820G2HHO Tail45899  13.683  17.485  16.319 -0.1936 -0.1286  0.1056
 3820G2HHO Tail45900  14.002  17.526  16.323 -0.1496 -0.1709  0.0956
 3820G2HHO Tail45901  14.331  17.470  16.606  0.1531 -0.4237  0.0438
 3820G2HHO Tail45902  13.465  17.275  16.729 -0.1757 -0.2009 -0.0501
 3820G2HHO Tail45903  13.436  17.542  16.889  0.0106  0.0247 -0.1441
 3820G2HHO Tail45904  13.659  17.744  17.199  0.2307  0.0132  0.1788
 3821G2HHO Head45905  12.798  16.949  20.029 -0.1546 -0.0508  0.1214
 3821G2HHO Head45906  12.848  16.941  19.738 -0.1663 -0.0108  0.2507
 3821G2HHO Head45907  13.372  16.674  19.681  0.3346 -0.0677  0.3945
 3821G2HHO Head45908  13.280  16.962  19.812 -0.1207 -0.3822 -0.1352
 3821G2HHO Head45909  13.074  17.183  19.614 -0.2069  0.3294 -0.2222
 3821G2HHO Head45910  13.529  17.059  20.213  0.0134  0.0999 -0.1026
 3821G2HHO Head45911  13.469  17.254  19.993 -0.2343  0.1023 -0.0242
 3821G2HHO Head45912  13.313  17.923  20.048 -0.1845 -0.0042  0.1741
 3821G2HHO Head45913  13.370  17.633  20.080 -0.3572 -0.1622 -0.0779
 3821G2HHO Head45914  13.166  17.385  19.952  0.4014  0.0903 -0.0564
 3821G2HHO link45915  13.062  17.421  19.705 -0.6461  0.0028 -0.1735
 3821G2HHO link45916  13.127  17.655  19.561 -0.0016 -0.0511  0.0964
 3821G2HHO Tail45917  13.024  17.677  19.254 -0.0631 -0.3635 -0.1556
 3821G2HHO Tail45918  13.338  17.667  19.098  0.2180  0.5066  0.0685
 3821G2HHO Tail45919  13.427  17.674  18.787 -0.1036  0.1224  0.3184
 3821G2HHO Tail45920  13.628  17.443  18.466  0.1793 -0.0064  0.0872
 3821G2HHO Tail45921  12.895  17.370  19.166 -0.2042 -0.2061 -0.0888
 3821G2HHO Tail45922  12.923  17.205  18.901 -0.1539  0.4353  0.5391
 3821G2HHO Tail45923  13.218  17.175  18.598 -0.0524  0.0359 -0.0787
 3822G2HHO Head45924  17.351  15.674  15.819 -0.1063 -0.3346 -0.2164
 3822G2HHO Head45925  17.252  15.409  15.740 -0.1032  0.1525 -0.0698
 3822G2HHO Head45926  17.395  15.441  16.376  0.4631  0.1023  0.1146
 3822G2HHO Head45927  17.485  15.386  16.100  0.1542 -0.0096 -0.0413
 3822G2HHO Head45928  17.352  15.121  15.925  0.2925  0.0173  0.0496
 3822G2HHO Head45929  16.973  15.134  15.210  0.0614 -0.1874  0.1371
 3822G2HHO Head45930  17.063  15.057  15.484  0.0310 -0.0629  0.0600
 3822G2HHO Head45931  17.409  14.602  15.110 -0.0721  0.0089 -0.0726
 3822G2HHO Head45932  17.303  14.691  15.361 -0.0122 -0.2768 -0.1124
 3822G2HHO Head45933  17.386  14.962  15.554  0.3996  0.0106 -0.4188
 3822G2HHO link45934  17.457  14.942  15.801  0.8415  0.2084 -0.1817
 3822G2HHO link45935  17.608  14.721  15.901  0.0515 -0.0665 -0.1984
 3822G2HHO Tail45936  17.590  14.630  16.216 -0.0416 -0.2122 -0.0699
 3822G2HHO Tail45937  17.600  14.939  16.384 -0.2698  0.2733  0.1197
 3822G2HHO Tail45938  17.776  15.202  16.359 -0.0609 -0.1906  0.3538
 3822G2HHO Tail45939  17.805  15.616  16.214 -0.2092  0.3454 -0.2824
 3822G2HHO Tail45940  17.933  14.535  16.250  0.2029 -0.2016 -0.4773
 3822G2HHO Tail45941  18.058  14.291  16.410  0.0357 -0.2837  0.0554
 3822G2HHO Tail45942  17.954  14.011  16.733  0.0433  0.0575  0.1237
 3823G2HHO Head45943  21.789  17.350  19.590  0.3102  0.1527  0.2024
 3823G2HHO Head45944  21.533  17.282  19.382 -0.3269 -0.0520 -0.2393
 3823G2HHO Head45945  22.096  16.988  19.214 -0.2373  0.1684  0.2496
 3823G2HHO Head45946  21.942  17.252  19.146  0.2109  0.1592  0.0472
 3823G2HHO Head45947  21.597  17.271  19.031 -0.0659  0.0814  0.1758
 3823G2HHO Head45948  21.478  17.725  19.425 -0.0801 -0.0711  0.2150
 3823G2HHO Head45949  21.702  17.774  19.228  0.1595 -0.1640  0.0841
 3823G2HHO Head45950  21.665  18.249  19.003  0.0011 -0.1406  0.2829
 3823G2HHO Head45951  21.533  17.998  18.888  0.4744 -0.5113 -0.2218
 3823G2HHO Head45952  21.656  17.672  18.904 -0.1906 -0.4403  0.1460
 3823G2HHO link45953  21.511  17.477  18.857 -0.1252  0.1487  0.2103
 3823G2HHO link45954  21.244  17.485  18.795 -0.2721 -0.2730  0.2748
 3823G2HHO Tail45955  21.069  17.707  18.608 -0.0841  0.2280 -0.2370
 3823G2HHO Tail45956  21.332  17.888  18.450 -0.0121  0.1320 -0.3296
 3823G2HHO Tail45957  21.343  18.094  18.214 -0.1081  0.1360  0.1252
 3823G2HHO Tail45958  21.160  18.455  18.036  0.1181  0.3062 -0.1837
 3823G2HHO Tail45959  20.950  17.469  18.383  0.2576  0.1705  0.6027
 3823G2HHO Tail45960  20.869  17.459  18.068 -0.1900 -0.2281 -0.1165
 3823G2HHO Tail45961  20.896  17.193  17.731  0.0701  0.1120  0.0730
 3824G2HHO Head45962  15.556  20.813  15.990 -0.0491 -0.0163  0.3379
 3824G2HHO Head45963  15.661  20.511  16.030 -0.2787  0.3767 -0.1350
 3824G2HHO Head45964  16.005  20.561  15.651 -0.2702 -0.3927  0.0648
 3824G2HHO Head45965  16.059  20.382  15.921  0.1337 -0.0754  0.1838
 3824G2HHO Head45966  15.920  20.450  16.233 -0.0441  0.2080 -0.2679
 3824G2HHO Head45967  16.757  20.670  16.128 -0.0780 -0.3792  0.1440
 3824G2HHO Head45968  16.516  20.479  16.239 -0.3844 -0.1362 -0.2259
 3824G2HHO Head45969  16.400  21.201  16.417 -0.2689  0.0313  0.1934
 3824G2HHO Head45970  16.469  20.907  16.544 -0.1844  0.2083 -0.3438
 3824G2HHO Head45971  16.270  20.622  16.451 -0.1129  0.1614  0.2083
 3824G2HHO link45972  16.016  20.652  16.375 -0.3904 -0.5549 -0.0461
 3824G2HHO link45973  15.917  20.910  16.374  0.1100 -0.1386  0.2879
 3824G2HHO Tail45974  15.594  20.954  16.404 -0.1973  0.0383  0.4809
 3824G2HHO Tail45975  15.499  20.648  16.522  0.1036 -0.0708 -0.1908
 3824G2HHO Tail45976  15.246  20.495  16.669 -0.2843  0.4624 -0.0788
 3824G2HHO Tail45977  15.155  20.073  16.768 -0.1221  0.2445  0.2290
 3824G2HHO Tail45978  15.622  21.128  16.700 -0.3782 -0.0498  0.3380
 3824G2HHO Tail45979  15.736  21.385  16.826 -0.2145  0.0168  0.3734
 3824G2HHO Tail45980  15.942  21.762  16.740 -0.0628  0.1798  0.5072
 3825G2HHO Head45981  14.065  14.234  18.691 -0.3371 -0.3622  0.3917
 3825G2HHO Head45982  14.187  14.493  18.580  0.0167 -0.0495 -0.0029
 3825G2HHO Head45983  14.548  15.054  18.291  0.1446  0.1046 -0.0043
 3825G2HHO Head45984  14.562  14.714  18.397  0.0264 -0.0312 -0.3829
 3825G2HHO Head45985  14.352  14.480  18.264 -0.3002  0.0364  0.1062
 3825G2HHO Head45986  14.719  13.716  18.058 -0.0553  0.2618 -0.0033
 3825G2HHO Head45987  14.458  13.748  18.200  0.3232 -0.5047  0.1446
 3825G2HHO Head45988  14.591  14.105  18.817  0.2044  0.4932  0.0711
 3825G2HHO Head45989  14.533  13.959  18.544  0.1381 -0.2527  0.2024
 3825G2HHO Head45990  14.334  14.070  18.287  0.1221 -0.0446 -0.0840
 3825G2HHO link45991  14.394  14.263  18.141 -0.3661  0.1135  0.6373
 3825G2HHO link45992  14.376  14.254  17.846 -0.1901  0.0830 -0.0193
 3825G2HHO Tail45993  14.241  14.483  17.642 -0.0939 -0.0838  0.3313
 3825G2HHO Tail45994  14.321  14.793  17.813  0.0293  0.3601 -0.2149
 3825G2HHO Tail45995  14.257  15.115  17.822 -0.2741 -0.0376  0.1548
 3825G2HHO Tail45996  14.392  15.471  18.052  0.2518  0.3359 -0.2011
 3825G2HHO Tail45997  14.477  14.464  17.381 -0.2634  0.3973 -0.1315
 3825G2HHO Tail45998  14.773  14.348  17.348  0.1529 -0.0003  0.1580
 3825G2HHO Tail45999  15.167  14.316  17.526  0.0721  0.2813  0.1998
 3826G2HHO Head46000  15.816  15.914  18.730 -0.2659 -0.2075 -0.1209
 3826G2HHO Head46001  15.762  15.620  18.799  0.0398 -0.0498  0.2157
 3826G2HHO Head46002  15.647  15.179  19.032 -0.3006 -0.3702 -0.3187
 3826G2HHO Head46003  15.726  15.205  18.757 -0.1405  0.1203  0.2842
 3826G2HHO Head46004  15.569  15.454  18.561  0.1798 -0.1090 -0.0283
 3826G2HHO Head46005  15.986  16.093  18.052 -0.0674 -0.2215  0.0873
 3826G2HHO Head46006  15.836  15.963  18.269 -0.3788 -0.0652 -0.2724
 3826G2HHO Head46007  16.152  15.377  17.893 -0.3686  0.3684  0.0902
 3826G2HHO Head46008  15.989  15.628  17.983  0.1094  0.2892  0.3506
 3826G2HHO Head46009  15.834  15.615  18.298 -0.0676  0.3421  0.3330
 3826G2HHO link46010  15.605  15.492  18.303 -0.3971  0.3165 -0.5005
 3826G2HHO link46011  15.492  15.329  18.101 -0.1147 -0.3081  0.2323
 3826G2HHO Tail46012  15.414  15.401  17.786  0.1422 -0.0037  0.0336
 3826G2HHO Tail46013  15.689  15.282  17.595 -0.0489  0.1918 -0.1690
 3826G2HHO Tail46014  15.914  15.463  17.428 -0.0546 -0.1095  0.0711
 3826G2HHO Tail46015  16.173  15.416  17.072  0.1463  0.1448 -0.1804
 3826G2HHO Tail46016  15.182  15.151  17.714  0.0686 -0.0057  0.0466
 3826G2HHO Tail46017  15.009  15.106  17.447 -0.5237 -0.5071  0.3593
 3826G2HHO Tail46018  15.044  15.240  17.025  0.1473 -0.1569  0.2607
 3827G2HHO Head46019  15.147  16.636  16.289  0.1780  0.2037  0.2839
 3827G2HHO Head46020  14.967  16.818  16.151 -0.3244 -0.1780 -0.1340
 3827G2HHO Head46021  14.617  16.620  15.987 -0.1189  0.2535 -0.4314
 3827G2HHO Head46022  14.522  16.854  16.139 -0.2133 -0.6346  0.2614
 3827G2HHO Head46023  14.755  17.027  16.335 -0.0651 -0.1453 -0.1844
 3827G2HHO Head46024  14.929  16.971  15.721 -0.0127 -0.2247  0.1034
 3827G2HHO Head46025  14.677  17.149  15.833  0.0295 -0.2057 -0.1913
 3827G2HHO Head46026  14.175  17.337  15.862  0.0483  0.1690  0.1656
 3827G2HHO Head46027  14.419  17.519  16.006  0.0837  0.0854 -0.0353
 3827G2HHO Head46028  14.711  17.364  16.098  0.0759  0.4217 -0.2302
 3827G2HHO link46029  14.770  17.298  16.334  0.2787  0.0568  0.3058
 3827G2HHO link46030  14.891  17.478  16.515  0.2365 -0.2200  0.2465
 3827G2HHO Tail46031  14.841  17.806  16.516 -0.3222 -0.0246  0.1863
 3827G2HHO Tail46032  14.577  17.831  16.310 -0.1571 -0.0928  0.1521
 3827G2HHO Tail46033  14.286  17.905  16.361 -0.5480 -0.0374 -0.1812
 3827G2HHO Tail46034  13.975  17.824  16.644  0.1593 -0.3280 -0.2748
 3827G2HHO Tail46035  14.679  17.894  16.806 -0.0748  0.1206  0.2208
 3827G2HHO Tail46036  14.391  17.774  16.906 -0.4488  0.1378  0.3630
 3827G2HHO Tail46037  14.173  17.703  17.268 -0.0542 -0.5602 -0.1751
 3828G2HHO Head46038  21.107  14.165  16.806  0.0605  0.5194 -0.0685
 3828G2HHO Head46039  20.818  14.036  16.883 -0.0834  0.3228  0.1639
 3828G2HHO Head46040  20.603  13.644  16.952 -0.1636 -0.2969  0.3490
 3828G2HHO Head46041  20.460  13.898  17.098  0.3793  0.4295 -0.3281
 3828G2HHO Head46042  20.539  14.225  17.005 -0.0174 -0.0267  0.1895
 3828G2HHO Head46043  20.657  14.873  16.275  0.0079  0.0849 -0.2761
 3828G2HHO Head46044  20.466  14.773  16.498 -0.0013  0.0149 -0.1792
 3828G2HHO Head46045  21.063  14.569  16.524 -0.1677 -0.2933  0.0601
 3828G2HHO Head46046  20.815  14.651  16.691  0.0186  0.0259  0.1252
 3828G2HHO Head46047  20.509  14.460  16.633  0.1201 -0.3308  0.2030
 3828G2HHO link46048  20.384  14.358  16.837  0.3086 -0.0326  0.2326
 3828G2HHO link46049  20.112  14.411  16.875 -0.1658  0.1188 -0.1449
 3828G2HHO Tail46050  19.903  14.523  16.648 -0.4951 -0.2775  0.5105
 3828G2HHO Tail46051  19.979  14.862  16.652  0.2356 -0.2941  0.3567
 3828G2HHO Tail46052  19.887  15.107  16.491 -0.2414 -0.1250 -0.3836
 3828G2HHO Tail46053  19.539  15.281  16.322  0.0253  0.1021 -0.1159
 3828G2HHO Tail46054  19.597  14.539  16.824  0.1430 -0.0462 -0.1730
 3828G2HHO Tail46055  19.280  14.556  16.767 -0.0710 -0.0270  0.1631
 3828G2HHO Tail46056  18.926  14.760  16.891  0.0159 -0.5091  0.0060
 3829G2HHO Head46057  17.739  12.858  16.354  0.0149 -0.0007  0.2294
 3829G2HHO Head46058  17.526  12.843  16.548  0.1909  0.0220  0.2236
 3829G2HHO Head46059  17.554  12.469  16.994 -0.0076  0.1026 -0.0403
 3829G2HHO Head46060  17.683  12.765  17.032 -0.3735 -0.1680  0.1286
 3829G2HHO Head46061  17.564  13.042  16.830 -0.5235 -0.1711 -0.0245
 3829G2HHO Head46062  16.956  13.199  16.360 -0.1417  0.0521  0.1101
 3829G2HHO Head46063  17.063  12.962  16.522  0.1991  0.1376  0.3068
 3829G2HHO Head46064  16.565  12.989  16.809  0.1778 -0.3014  0.0554
 3829G2HHO Head46065  16.854  13.182  16.807 -0.3121  0.0476 -0.0019
 3829G2HHO Head46066  17.149  13.030  16.848 -0.2897  0.2781 -0.1925
 3829G2HHO link46067  17.355  13.180  16.886  0.0229 -0.3480 -0.0833
 3829G2HHO link46068  17.391  13.399  17.061  0.0803 -0.1025 -0.0971
 3829G2HHO Tail46069  17.626  13.616  16.984  0.5092 -0.1309  0.1473
 3829G2HHO Tail46070  17.798  13.423  16.773 -0.0890 -0.0983  0.0778
 3829G2HHO Tail46071  18.028  13.211  16.736  0.0901 -0.5961 -0.1461
 3829G2HHO Tail46072  18.057  12.787  16.680  0.1947 -0.1833 -0.0811
 3829G2HHO Tail46073  17.475  13.828  16.757 -0.3167  0.1309  0.2071
 3829G2HHO Tail46074  17.268  14.068  16.828 -0.3266  0.0265 -0.3768
 3829G2HHO Tail46075  17.230  14.502  16.781 -0.2015  0.3419 -0.1731
 3830G2HHO Head46076  18.917  20.254  20.397 -0.2171  0.0819 -0.0214
 3830G2HHO Head46077  19.168  20.159  20.220  0.0671 -0.0161 -0.0971
 3830G2HHO Head46078  19.644  20.117  19.729 -0.1627 -0.2738  0.0428
 3830G2HHO Head46079  19.456  20.182  19.940  0.1542 -0.2305  0.3668
 3830G2HHO Head46080  19.122  20.075  19.884  0.4369 -0.2356 -0.0809
 3830G2HHO Head46081  19.575  19.663  20.496  0.3545  0.1256  0.1333
 3830G2HHO Head46082  19.462  19.800  20.232 -0.2306  0.1616  0.6428
 3830G2HHO Head46083  18.886  19.618  20.590 -0.3150  0.2151  0.1286
 3830G2HHO Head46084  19.041  19.811  20.428  0.3115  0.0985  0.2187
 3830G2HHO Head46085  19.123  19.731  20.101  0.1109 -0.1234 -0.1468
 3830G2HHO link46086  19.028  19.835  19.873 -0.3317 -0.0620 -0.1427
 3830G2HHO link46087  18.950  19.713  19.628 -0.0500 -0.1843 -0.0119
 3830G2HHO Tail46088  18.914  19.912  19.370 -0.1749 -0.1680 -0.0823
 3830G2HHO Tail46089  18.669  19.747  19.179  0.0158 -0.0513  0.3821
 3830G2HHO Tail46090  18.690  19.615  18.883  0.2047  0.0814 -0.2142
 3830G2HHO Tail46091  18.493  19.611  18.494 -0.2960  0.0392  0.1016
 3830G2HHO Tail46092  18.753  20.192  19.512  0.0430 -0.2908 -0.2923
 3830G2HHO Tail46093  18.679  20.472  19.390 -0.0696 -0.1509 -0.1488
 3830G2HHO Tail46094  18.604  20.687  19.004  0.0730  0.0866 -0.1341
 3831G2HHO Head46095  17.629  11.802  17.774  0.1396  0.3268  0.4498
 3831G2HHO Head46096  17.697  11.825  17.469  0.3422 -0.1598 -0.3639
 3831G2HHO Head46097  17.214  12.322  17.271 -0.2540 -0.0916 -0.2064
 3831G2HHO Head46098  17.403  12.142  17.403 -0.0694  0.0474 -0.0322
 3831G2HHO Head46099  17.742  12.149  17.327  0.0397 -0.1480  0.0734
 3831G2HHO Head46100  18.387  12.498  17.827  0.1566 -0.1029 -0.1639
 3831G2HHO Head46101  18.280  12.258  17.781  0.1576 -0.0298  0.2234
 3831G2HHO Head46102  18.149  11.730  17.928  0.1352  0.2714  0.0530
 3831G2HHO Head46103  18.098  11.903  17.684  0.1521  0.2086 -0.1623
 3831G2HHO Head46104  17.948  12.228  17.690 -0.3712 -0.1229 -0.0801
 3831G2HHO link46105  17.885  12.331  17.454  0.2468 -0.3118 -0.0565
 3831G2HHO link46106  17.990  12.565  17.341 -0.2828  0.2238 -0.0130
 3831G2HHO Tail46107  17.897  12.876  17.377 -0.3837  0.3276  0.1813
 3831G2HHO Tail46108  18.087  12.960  17.650  0.6418  0.0097 -0.1064
 3831G2HHO Tail46109  18.162  13.245  17.812 -0.0229  0.1484  0.1183
 3831G2HHO Tail46110  18.474  13.546  17.845  0.0304  0.2073  0.3160
 3831G2HHO Tail46111  18.096  13.001  17.131 -0.0309 -0.1324  0.2390
 3831G2HHO Tail46112  18.219  13.296  17.100 -0.2261  0.2210 -0.0746
 3831G2HHO Tail46113  18.271  13.611  16.809 -0.4483  0.0461 -0.0773
 3832G2HHO Head46114  20.998  16.402  15.643 -0.1685 -0.3243  0.0731
 3832G2HHO Head46115  20.903  16.471  15.925 -0.1064 -0.2634  0.0843
 3832G2HHO Head46116  21.688  16.673  15.982  0.0709  0.2511  0.2190
 3832G2HHO Head46117  21.385  16.613  15.926  0.3360  0.1874  0.0265
 3832G2HHO Head46118  21.145  16.534  16.172 -0.2214 -0.1909 -0.1317
 3832G2HHO Head46119  21.635  16.871  16.767  0.1586 -0.0298  0.0059
 3832G2HHO Head46120  21.353  16.978  16.699 -0.1512 -0.3268  0.0151
 3832G2HHO Head46121  21.282  17.450  16.478  0.4456 -0.0513 -0.1007
 3832G2HHO Head46122  21.129  17.238  16.339 -0.1511 -0.1029  0.2467
 3832G2HHO Head46123  21.234  16.889  16.381 -0.4862 -0.2378  0.0070
 3832G2HHO link46124  21.074  16.692  16.357  0.1395  0.4923 -0.1483
 3832G2HHO link46125  20.917  16.603  16.571  0.1886  0.3728 -0.4331
 3832G2HHO Tail46126  20.594  16.662  16.605 -0.2047 -0.3868 -0.1949
 3832G2HHO Tail46127  20.515  16.458  16.861  0.1323 -0.0217  0.1674
 3832G2HHO Tail46128  20.493  16.151  16.927  0.1661 -0.1432  0.2279
 3832G2HHO Tail46129  20.610  15.758  16.772  0.0448  0.2147 -0.0663
 3832G2HHO Tail46130  20.468  16.534  16.310 -0.0399 -0.2078 -0.0009
 3832G2HHO Tail46131  20.189  16.397  16.221 -0.2083  0.1427  0.0189
 3832G2HHO Tail46132  20.047  16.019  16.070  0.2673 -0.0406 -0.0289
 3833G2HHO Head46133  15.291  13.562  18.351 -0.0581  0.1163 -0.1767
 3833G2HHO Head46134  15.092  13.780  18.333 -0.1789  0.3515 -0.3558
 3833G2HHO Head46135  15.042  13.531  18.772 -0.3061 -0.2843 -0.1673
 3833G2HHO Head46136  14.939  13.816  18.748  0.2024  0.3476 -0.0324
 3833G2HHO Head46137  15.113  14.057  18.557 -0.0404  0.7208  0.1247
 3833G2HHO Head46138  14.533  14.640  18.831  0.2532 -0.2555 -0.0999
 3833G2HHO Head46139  14.864  14.651  18.888  0.2455 -0.3179  0.0320
 3833G2HHO Head46140  15.442  14.235  19.038  0.0058  0.2119  0.0669
 3833G2HHO Head46141  15.150  14.380  18.983 -0.0672 -0.0210 -0.0459
 3833G2HHO Head46142  15.061  14.474  18.662  0.1877  0.2111  0.3967
 3833G2HHO link46143  14.982  14.311  18.491  0.0378  0.4428  0.1495
 3833G2HHO link46144  14.747  14.332  18.337  0.0504 -0.1586  0.1906
 3833G2HHO Tail46145  14.760  14.249  18.028  0.1431  0.2756  0.0641
 3833G2HHO Tail46146  14.827  14.564  17.884 -0.2430 -0.1118  0.1650
 3833G2HHO Tail46147  14.834  14.675  17.562 -0.3685  0.2432 -0.2294
 3833G2HHO Tail46148  15.102  14.689  17.224  0.0580  0.1977  0.3088
 3833G2HHO Tail46149  15.081  14.138  18.025 -0.4235  0.4118  0.1393
 3833G2HHO Tail46150  15.240  13.949  17.833 -0.2453 -0.4952 -0.1804
 3833G2HHO Tail46151  15.552  13.973  17.523  0.1106 -0.3941 -0.0803
 3834G2HHO Head46152  15.255  12.200  17.727  0.0555  0.2101 -0.1998
 3834G2HHO Head46153  15.292  12.443  17.477 -0.2446  0.3438 -0.1813
 3834G2HHO Head46154  14.827  12.578  17.504  0.0396 -0.1191 -0.3205
 3834G2HHO Head46155  14.962  12.819  17.540  0.5331 -0.1409 -0.0252
 3834G2HHO Head46156  15.313  12.785  17.549 -0.1600 -0.0503  0.3136
 3834G2HHO Head46157  15.558  12.569  17.919  0.4956 -0.2478  0.1235
 3834G2HHO Head46158  15.818  12.690  17.742  0.4078  0.2615  0.4926
 3834G2HHO Head46159  15.783  12.535  16.973  0.0122 -0.1832  0.0512
 3834G2HHO Head46160  15.813  12.575  17.298 -0.3011  0.3990 -0.2998
 3834G2HHO Head46161  15.709  12.866  17.454 -0.1439 -0.1541  0.2914
 3834G2HHO link46162  15.450  12.948  17.408 -0.1111 -0.1942 -0.0905
 3834G2HHO link46163  15.346  13.162  17.248 -0.3279 -0.0260  0.0152
 3834G2HHO Tail46164  15.478  13.448  17.220  0.3990 -0.2972  0.1614
 3834G2HHO Tail46165  15.228  13.646  17.382 -0.1539  0.4049 -0.1695
 3834G2HHO Tail46166  15.084  13.932  17.266 -0.4158  0.3014  0.0923
 3834G2HHO Tail46167  15.075  14.150  16.892 -0.2656 -0.1756 -0.2420
 3834G2HHO Tail46168  15.721  13.467  17.474  0.1066  0.2383 -0.1817
 3834G2HHO Tail46169  15.975  13.653  17.541  0.1885 -0.3600  0.0912
 3834G2HHO Tail46170  16.383  13.703  17.400 -0.3043  0.0462  0.0683
 3835G2HHO Head46171  15.528  17.471  17.790 -0.1367  0.1754 -0.1699
 3835G2HHO Head46172  15.482  17.750  17.870  0.4686  0.1892 -0.0005
 3835G2HHO Head46173  14.840  17.533  18.184 -0.0478 -0.0155 -0.2240
 3835G2HHO Head46174  15.120  17.664  18.119 -0.3361  0.1394 -0.3019
 3835G2HHO Head46175  15.156  17.879  17.844  0.2433 -0.3755 -0.1905
 3835G2HHO Head46176  15.299  18.480  18.614  0.0291  0.1304  0.3776
 3835G2HHO Head46177  15.327  18.408  18.331  0.2199  0.0017 -0.3247
 3835G2HHO Head46178  15.482  17.996  18.584 -0.0002  0.0552 -0.0630
 3835G2HHO Head46179  15.377  17.961  18.300  0.0618 -0.3460 -0.0189
 3835G2HHO Head46180  15.133  18.172  18.165 -0.0843  0.0362 -0.0403
 3835G2HHO link46181  15.117  18.146  17.889 -0.0295 -0.1615  0.3444
 3835G2HHO link46182  14.980  18.337  17.730  0.0386 -0.1465  0.3625
 3835G2HHO Tail46183  14.942  18.302  17.421  0.3369  0.3091 -0.0397
 3835G2HHO Tail46184  14.615  18.451  17.379  0.0154  0.0004 -0.2106
 3835G2HHO Tail46185  14.334  18.382  17.505 -0.3694 -0.1361 -0.1978
 3835G2HHO Tail46186  13.918  18.482  17.423  0.2519 -0.0143 -0.3759
 3835G2HHO Tail46187  15.117  18.579  17.289  0.1241 -0.0467  0.2125
 3835G2HHO Tail46188  15.139  18.882  17.287 -0.4708 -0.1918  0.2539
 3835G2HHO Tail46189  15.362  19.181  17.499 -0.5327  0.2138 -0.1975
 3836G2HHO Head46190  22.062  14.616  16.477 -0.0882  0.2171 -0.0882
 3836G2HHO Head46191  21.974  14.817  16.696  0.4591  0.0841  0.2336
 3836G2HHO Head46192  22.148  14.632  17.335 -0.1790 -0.2926 -0.0673
 3836G2HHO Head46193  21.932  14.840  17.153  0.2644 -0.2246 -0.3483
 3836G2HHO Head46194  21.736  14.684  16.911 -0.3258 -0.0670  0.0393
 3836G2HHO Head46195  21.677  14.427  17.537 -0.1002  0.0295  0.0913
 3836G2HHO Head46196  21.479  14.606  17.412  0.3763 -0.1423 -0.2278
 3836G2HHO Head46197  21.605  14.043  16.897  0.2943 -0.1913  0.0335
 3836G2HHO Head46198  21.527  14.223  17.145  0.0628 -0.3938 -0.4878
 3836G2HHO Head46199  21.372  14.540  17.090 -0.1474  0.0169 -0.1244
 3836G2HHO link46200  21.459  14.720  16.910  0.0822  0.0226  0.1810
 3836G2HHO link46201  21.314  14.959  16.874  0.0776 -0.2099 -0.3413
 3836G2HHO Tail46202  21.284  15.151  17.134 -0.2693  0.1068  0.0002
 3836G2HHO Tail46203  20.967  15.283  17.064  0.1602  0.1060  0.2683
 3836G2HHO Tail46204  20.702  15.256  16.898 -0.1023  0.2081 -0.3854
 3836G2HHO Tail46205  20.262  15.317  16.937  0.2276 -0.0600  0.2973
 3836G2HHO Tail46206  21.182  14.926  17.375  0.0389  0.0297 -0.0299
 3836G2HHO Tail46207  20.942  14.916  17.583 -0.3892  0.2709  0.3806
 3836G2HHO Tail46208  20.537  14.782  17.581 -0.1412 -0.0388 -0.0095
 3837G2HHO Head46209  17.866  12.552  18.053 -0.4062  0.0940 -0.0173
 3837G2HHO Head46210  18.096  12.427  18.194 -0.3212 -0.3192 -0.1963
 3837G2HHO Head46211  18.367  12.351  18.808 -0.0862 -0.0513 -0.2017
 3837G2HHO Head46212  18.187  12.495  18.604 -0.1548  0.2276  0.3566
 3837G2HHO Head46213  18.358  12.623  18.312  0.4338  0.2275 -0.3325
 3837G2HHO Head46214  18.620  12.687  19.002 -0.1533  0.0318  0.1164
 3837G2HHO Head46215  18.690  12.780  18.702 -0.3862 -0.1025  0.3232
 3837G2HHO Head46216  17.933  12.833  18.854  0.1463 -0.0784 -0.0123
 3837G2HHO Head46217  18.259  12.941  18.845  0.3329 -0.3235  0.3171
 3837G2HHO Head46218  18.444  12.965  18.523  0.1154  0.1780 -0.1980
 3837G2HHO link46219  18.370  12.867  18.290  0.6868  0.0769 -0.3399
 3837G2HHO link46220  18.448  12.995  18.061  0.1769  0.1418  0.1324
 3837G2HHO Tail46221  18.647  12.835  17.845  0.4548 -0.1596 -0.1118
 3837G2HHO Tail46222  18.541  12.941  17.531 -0.1557  0.0178 -0.1219
 3837G2HHO Tail46223  18.546  13.213  17.354  0.5977  0.0660 -0.0366
 3837G2HHO Tail46224  18.416  13.633  17.367 -0.2467  0.0852 -0.0563
 3837G2HHO Tail46225  18.936  13.025  17.882 -0.0892 -0.0797 -0.2821
 3837G2HHO Tail46226  18.999  13.331  17.979  0.4281 -0.3508  0.1917
 3837G2HHO Tail46227  19.005  13.729  17.807  0.2204  0.1162  0.0496
 3838G2HHO Head46228  13.781  15.925  19.432  0.0378  0.1207 -0.2383
 3838G2HHO Head46229  13.823  15.952  19.112  0.2329  0.2964 -0.1739
 3838G2HHO Head46230  14.234  16.153  19.468 -0.3015 -0.3192  0.1558
 3838G2HHO Head46231  14.261  16.156  19.170 -0.1318 -0.3408  0.3634
 3838G2HHO Head46232  13.988  16.226  18.983  0.1873 -0.1950  0.2680
 3838G2HHO Head46233  14.449  15.907  18.323  0.2642 -0.1958 -0.1093
 3838G2HHO Head46234  14.437  16.191  18.422 -0.2975  0.0213  0.1284
 3838G2HHO Head46235  14.653  16.619  18.401 -0.0135 -0.4536  0.0789
 3838G2HHO Head46236  14.376  16.598  18.526 -0.1345  0.1801  0.1476
 3838G2HHO Head46237  14.242  16.310  18.695 -0.1250 -0.1025  0.0312
 3838G2HHO link46238  14.001  16.281  18.706  0.0639  0.0547  0.1906
 3838G2HHO link46239  13.812  16.276  18.501 -0.4801  0.1205  0.0208
 3838G2HHO Tail46240  13.886  16.172  18.201 -0.0498  0.1977 -0.0294
 3838G2HHO Tail46241  14.144  16.369  18.097  0.2218 -0.1840  0.4628
 3838G2HHO Tail46242  14.418  16.357  17.922 -0.4119  0.2398  0.1776
 3838G2HHO Tail46243  14.748  16.617  17.858 -0.3666 -0.0747 -0.0135
 3838G2HHO Tail46244  13.604  16.301  18.040  0.4124  0.0011 -0.1050
 3838G2HHO Tail46245  13.471  16.544  17.891  0.1440 -0.2376  0.2925
 3838G2HHO Tail46246  13.600  16.848  17.623 -0.2009 -0.1738  0.2048
 3839G2HHO Head46247  16.869  20.492  19.546  0.3208 -0.0699  0.0880
 3839G2HHO Head46248  16.979  20.796  19.501  0.2993 -0.1707 -0.0951
 3839G2HHO Head46249  16.935  21.464  19.222  0.2380 -0.0933 -0.1313
 3839G2HHO Head46250  16.964  21.212  19.334 -0.3263 -0.1012 -0.0760
 3839G2HHO Head46251  16.716  21.033  19.506 -0.0167 -0.0225 -0.0368
 3839G2HHO Head46252  16.645  21.089  19.943  0.2170 -0.0077  0.3354
 3839G2HHO Head46253  16.389  21.171  19.866  0.3387  0.0003 -0.0973
 3839G2HHO Head46254  16.030  20.864  20.076 -0.1219  0.0662  0.5422
 3839G2HHO Head46255  16.164  20.789  19.775  0.2422  0.3899  0.0533
 3839G2HHO Head46256  16.284  21.044  19.552  0.6045 -0.1158  0.5074
 3839G2HHO link46257  16.469  20.986  19.397  0.1596  0.5833 -0.0658
 3839G2HHO link46258  16.434  20.753  19.212 -0.1206 -0.1563  0.0937
 3839G2HHO Tail46259  16.641  20.529  19.103  0.4196 -0.4271  0.3065
 3839G2HHO Tail46260  16.514  20.520  18.780 -0.3346 -0.1093 -0.3490
 3839G2HHO Tail46261  16.412  20.312  18.563  0.3751  0.2781  0.4257
 3839G2HHO Tail46262  16.135  19.989  18.494  0.1368 -0.0568 -0.4583
 3839G2HHO Tail46263  16.957  20.691  19.080  0.1853 -0.0054  0.0087
 3839G2HHO Tail46264  17.242  20.688  18.954 -0.1874  0.0716 -0.4370
 3839G2HHO Tail46265  17.418  20.590  18.575 -0.0731 -0.1067  0.2522
 3840G2HHO Head46266  18.026  20.853  16.265 -0.3959  0.2677  0.1304
 3840G2HHO Head46267  18.013  20.874  16.605 -0.4791 -0.1079  0.1561
 3840G2HHO Head46268  18.388  20.445  17.027  0.0577 -0.2607  0.2381
 3840G2HHO Head46269  18.246  20.516  16.759 -0.0665 -0.2849  0.0438
 3840G2HHO Head46270  17.919  20.596  16.794  0.2454 -0.0761  0.4106
 3840G2HHO Head46271  17.940  21.195  17.405 -0.1213  0.1797 -0.1349
 3840G2HHO Head46272  17.651  21.069  17.274 -0.2257  0.3411 -0.0581
 3840G2HHO Head46273  17.800  21.384  16.953  0.2698  0.3251  0.0241
 3840G2HHO Head46274  17.751  21.119  16.813 -0.3668 -0.2003 -0.2505
 3840G2HHO Head46275  17.672  20.835  17.013  0.1370 -0.0565 -0.0100
 3840G2HHO link46276  17.837  20.635  17.027  0.0102 -0.0605 -0.1305
 3840G2HHO link46277  17.976  20.566  17.277  0.0161 -0.1406  0.1382
 3840G2HHO Tail46278  18.010  20.246  17.352 -0.2068 -0.0566  0.1050
 3840G2HHO Tail46279  18.344  20.287  17.476  0.0137  0.0254  0.4307
 3840G2HHO Tail46280  18.524  20.151  17.677 -0.0748 -0.0638 -0.7479
 3840G2HHO Tail46281  18.525  19.858  17.997 -0.0158 -0.2334  0.0718
 3840G2HHO Tail46282  17.809  20.256  17.637  0.1361  0.0514 -0.1152
 3840G2HHO Tail46283  17.598  20.458  17.786 -0.0982  0.0370 -0.1058
 3840G2HHO Tail46284  17.607  20.780  18.084  0.1286 -0.0452 -0.1474
 3841G2HHO Head46285  21.144  20.336  19.671 -0.2493 -0.0647 -0.1973
 3841G2HHO Head46286  21.195  20.080  19.446  0.2433 -0.0472 -0.1598
 3841G2HHO Head46287  21.172  19.651  19.927 -0.0377  0.4431 -0.1030
 3841G2HHO Head46288  20.930  19.780  19.752  0.2405  0.4640  0.2061
 3841G2HHO Head46289  20.982  19.808  19.402 -0.0417  0.2324  0.2494
 3841G2HHO Head46290  21.664  19.131  19.493 -0.0925 -0.0344  0.2811
 3841G2HHO Head46291  21.398  19.296  19.506 -0.3885 -0.0266 -0.3182
 3841G2HHO Head46292  21.739  19.872  19.416  0.1919  0.0303 -0.1534
 3841G2HHO Head46293  21.489  19.729  19.486 -0.2749 -0.1862  0.1615
 3841G2HHO Head46294  21.294  19.532  19.286  0.1532  0.0653 -0.0607
 3841G2HHO link46295  21.039  19.610  19.247  0.1183 -0.1935  0.5818
 3841G2HHO link46296  20.851  19.511  19.041  0.0782 -0.2159  0.1603
 3841G2HHO Tail46297  20.570  19.407  19.121 -0.1922  0.2278 -0.4714
 3841G2HHO Tail46298  20.452  19.318  18.806 -0.1547 -0.2300  0.0838
 3841G2HHO Tail46299  20.529  19.076  18.601 -0.4434  0.0293  0.2565
 3841G2HHO Tail46300  20.423  18.847  18.228 -0.4372 -0.0426  0.1623
 3841G2HHO Tail46301  20.428  19.710  19.173  0.0623  0.5115 -0.1427
 3841G2HHO Tail46302  20.125  19.847  19.229 -0.3623 -0.0439  0.2151
 3841G2HHO Tail46303  19.703  19.771  19.180 -0.1548  0.1334 -0.2971
 3842G2HHO Head46304  18.609  13.759  15.983  0.0463  0.0680 -0.1127
 3842G2HHO Head46305  18.385  13.538  15.957 -0.2754 -0.0365  0.0640
 3842G2HHO Head46306  18.226  14.067  15.505 -0.0503 -0.2068  0.1885
 3842G2HHO Head46307  18.273  13.874  15.686 -0.1097 -0.0437  0.3333
 3842G2HHO Head46308  18.172  13.540  15.677 -0.0357  0.1762  0.1325
 3842G2HHO Head46309  17.988  13.399  15.035  0.1964 -0.2209  0.1876
 3842G2HHO Head46310  17.759  13.397  15.206  0.0550  0.1426  0.0068
 3842G2HHO Head46311  17.240  13.360  15.330 -0.1129  0.1227  0.3366
 3842G2HHO Head46312  17.445  13.546  15.508 -0.3078  0.2329  0.1202
 3842G2HHO Head46313  17.804  13.526  15.517  0.2385 -0.0701 -0.2102
 3842G2HHO link46314  17.948  13.414  15.709  0.6641 -0.0016  0.4891
 3842G2HHO link46315  17.841  13.333  15.964  0.0556  0.1541  0.0406
 3842G2HHO Tail46316  17.714  13.564  16.153  0.4622  0.1809 -0.0306
 3842G2HHO Tail46317  17.548  13.354  16.373  0.1152  0.0662  0.1287
 3842G2HHO Tail46318  17.321  13.417  16.597 -0.1463  0.5478  0.5881
 3842G2HHO Tail46319  16.986  13.696  16.631  0.1964  0.2508  0.0519
 3842G2HHO Tail46320  17.987  13.656  16.356 -0.1071 -0.0505  0.0823
 3842G2HHO Tail46321  18.249  13.817  16.277 -0.4043 -0.0563  0.1503
 3842G2HHO Tail46322  18.356  14.182  16.052  0.0534 -0.2462  0.0196
 3843G2HHO Head46323  15.597  17.252  18.755  0.0613 -0.1253 -0.1318
 3843G2HHO Head46324  15.815  17.168  18.479  0.3765 -0.0890 -0.3730
 3843G2HHO Head46325  16.342  17.225  18.487  0.1510 -0.3961  0.0549
 3843G2HHO Head46326  16.173  17.013  18.281  0.4994  0.1133 -0.1921
 3843G2HHO Head46327  15.861  16.849  18.343  0.3091  0.3265  0.2976
 3843G2HHO Head46328  16.028  17.227  19.026  0.1950  0.0794 -0.0180
 3843G2HHO Head46329  16.072  17.036  18.779  0.0827 -0.7296  0.2964
 3843G2HHO Head46330  15.679  16.675  19.247 -0.2574 -0.0065  0.1824
 3843G2HHO Head46331  15.658  16.789  18.932  0.2304  0.1693 -0.0711
 3843G2HHO Head46332  15.927  16.713  18.730 -0.3235  0.0505 -0.0135
 3843G2HHO link46333  15.872  16.613  18.485  0.4039  0.2224 -0.3035
 3843G2HHO link46334  15.723  16.360  18.438 -0.1455  0.1911  0.1894
 3843G2HHO Tail46335  15.429  16.311  18.325 -0.1528 -0.2571  0.0996
 3843G2HHO Tail46336  15.373  15.987  18.462  0.0700 -0.1785  0.0245
 3843G2HHO Tail46337  15.312  15.693  18.346 -0.1994 -0.0860 -0.1343
 3843G2HHO Tail46338  15.115  15.334  18.469 -0.3114 -0.1941 -0.4714
 3843G2HHO Tail46339  15.521  16.232  17.990 -0.1144 -0.1220 -0.1529
 3843G2HHO Tail46340  15.472  16.337  17.704  0.3834  0.2833  0.2868
 3843G2HHO Tail46341  15.191  16.617  17.490 -0.1717  0.0315 -0.0284
 3844LEFLG Drug46342  20.154  18.759  17.627  0.1683 -0.3200 -0.3185
 3844LEFLG Drug46343  19.906  18.602  17.649  0.0398 -0.0717  0.0405
 3844LEFLG Drug46344  20.007  18.444  17.701 -0.0749 -0.0802  0.2418
 3844LEFLG Drug46345  20.232  18.395  17.664 -0.1270 -0.0382 -0.1171
 3844LEFLG Drug46346  20.327  18.449  17.417 -0.3605  0.4937 -0.1254
 3844LEFLG Drug46347  20.112  18.254  17.363 -0.1304  0.2156 -0.0522
 3844LEFLG Drug46348  20.319  18.395  17.206  0.2773 -0.2836  0.0276
 3844LEFLG Drug46349  20.190  18.303  17.030 -0.2538 -0.7684 -0.3150
 3845LEFLG Drug46350  16.957  20.166  18.139 -0.1713  0.0110 -0.0889
 3845LEFLG Drug46351  16.669  20.195  18.192 -0.2056  0.0814 -0.3102
 3845LEFLG Drug46352  16.627  20.133  18.012 -0.1039 -0.5088 -0.1404
 3845LEFLG Drug46353  16.760  20.176  17.809 -0.0796  0.2020 -0.0713
 3845LEFLG Drug46354  16.920  20.385  17.797 -0.0467 -0.0283 -0.2852
 3845LEFLG Drug46355  16.659  20.512  17.853  0.2395  0.5423 -0.2176
 3845LEFLG Drug46356  16.942  20.596  17.849  0.4372 -0.1020 -0.1759
 3845LEFLG Drug46357  16.861  20.806  17.846  0.2775  0.0509  0.4349
 3846LEFLG Drug46358  19.617  17.652  17.750  0.0116  0.3571  0.3157
 3846LEFLG Drug46359  19.545  17.671  18.035 -0.5322  0.0402  0.2052
 3846LEFLG Drug46360  19.411  17.807  17.995 -0.0442  0.5242  0.1646
 3846LEFLG Drug46361  19.310  17.880  17.788 -0.3315  0.1976  0.2271
 3846LEFLG Drug46362  19.370  18.116  17.699 -0.0475 -0.8419 -0.0097
 3846LEFLG Drug46363  19.188  18.042  17.478 -0.2688  0.2109 -0.2058
 3846LEFLG Drug46364  19.410  18.234  17.519 -0.1120 -0.0952  0.4447
 3846LEFLG Drug46365  19.381  18.288  17.285  0.1314 -0.5809  0.3066
 3847LEFLG Drug46366  17.166  20.434  17.566  0.2309  0.3976 -0.9353
 3847LEFLG Drug46367  17.370  20.258  17.448  0.0305 -0.2260 -0.3750
 3847LEFLG Drug46368  17.240  20.114  17.432 -0.1846 -0.0696 -0.0811
 3847LEFLG Drug46369  17.012  20.110  17.457  0.0134  0.1449 -0.1814
 3847LEFLG Drug46370  16.897  19.899  17.355 -0.1166  0.2371  0.2666
 3847LEFLG Drug46371  17.123  19.770  17.496  0.1549  0.3188 -0.0849
 3847LEFLG Drug46372  16.860  19.686  17.389  0.2169  0.1175 -0.0807
 3847LEFLG Drug46373  16.928  19.469  17.453  0.1695 -0.5704  0.2255
 3848LEFLG Drug46374  17.138  19.295  17.688 -0.1152 -0.0826 -0.1004
 3848LEFLG Drug46375  17.250  19.113  17.485 -0.0937 -0.2908  0.0952
 3848LEFLG Drug46376  17.423  19.116  17.573 -0.0999 -0.1907  0.1041
 3848LEFLG Drug46377  17.507  19.303  17.709 -0.2145 -0.1549  0.4251
 3848LEFLG Drug46378  17.481  19.268  17.971 -0.0927 -0.2173 -0.0962
 3848LEFLG Drug46379  17.738  19.414  17.964 -0.3827  0.3198  0.1437
 3848LEFLG Drug46380  17.568  19.287  18.170 -0.1680 -0.3068 -0.0545
 3848LEFLG Drug46381  17.719  19.390  18.320 -0.2457 -0.1511 -0.0261
 3849LEFLG Drug46382  17.893  19.799  18.817 -0.0759 -0.0819 -0.1942
 3849LEFLG Drug46383  17.849  19.574  18.632  0.2023 -0.2774 -0.0265
 3849LEFLG Drug46384  18.040  19.541  18.622  0.2329 -0.1534  0.1301
 3849LEFLG Drug46385  18.212  19.631  18.763 -0.0828 -0.0206  0.0120
 3849LEFLG Drug46386  18.348  19.483  18.932 -0.0758  0.2326  0.1156
 3849LEFLG Drug46387  18.133  19.577  19.112 -0.1449  0.0461  0.1312
 3849LEFLG Drug46388  18.395  19.443  19.142  0.1127  0.5404  0.1349
 3849LEFLG Drug46389  18.358  19.468  19.367 -0.0236 -0.0499  0.2226
 3850LEFLG Drug46390  17.506  14.650  18.055  0.6064  0.2454 -0.0532
 3850LEFLG Drug46391  17.368  14.881  17.935  0.1357 -0.0645 -0.1217
 3850LEFLG Drug46392  17.260  14.763  17.825  0.0396 -0.3358  0.2538
 3850LEFLG Drug46393  17.260  14.539  17.788  0.0173  0.3734 -0.1273
 3850LEFLG Drug46394  17.191  14.356  17.974  0.0685  0.2783 -0.2051
 3850LEFLG Drug46395  17.011  14.580  18.046  0.5535  0.5762  0.1068
 3850LEFLG Drug46396  17.081  14.315  18.158  0.1995  0.3924 -0.1001
 3850LEFLG Drug46397  16.889  14.339  18.278  0.1707  0.3947 -0.1185
 3851LEFLG Drug46398  15.981  14.670  16.422 -0.6623 -0.3522 -0.2460
 3851LEFLG Drug46399  16.052  14.384  16.428 -0.0732 -0.2156 -0.3849
 3851LEFLG Drug46400  16.241  14.427  16.408 -0.0787  0.2208  0.3495
 3851LEFLG Drug46401  16.355  14.626  16.342 -0.2994 -0.2499 -0.0368
 3851LEFLG Drug46402  16.391  14.814  16.544  0.8671  0.0023  0.1524
 3851LEFLG Drug46403  16.285  14.583  16.695 -0.1767  0.3708  0.0262
 3851LEFLG Drug46404  16.344  14.868  16.751 -0.0662  0.3799 -0.1340
 3851LEFLG Drug46405  16.336  14.798  16.977  0.2768 -0.4803 -0.4045
 3852LEFLG Drug46406  13.446  17.329  19.280  0.1514  0.1652 -0.1885
 3852LEFLG Drug46407  13.464  17.149  19.512  0.6750  0.3043 -0.1150
 3852LEFLG Drug46408  13.373  17.008  19.414 -0.1108  0.4484  0.3632
 3852LEFLG Drug46409  13.231  17.013  19.223  0.0564  0.1171 -0.1789
 3852LEFLG Drug46410  13.358  17.129  19.008  0.0754  0.1864 -0.1737
 3852LEFLG Drug46411  13.382  16.845  18.929 -0.0656  0.2033 -0.2801
 3852LEFLG Drug46412  13.526  17.098  18.872  0.6074  0.0149  0.4965
 3852LEFLG Drug46413  13.616  16.983  18.693  0.6768 -0.2518  0.3122
 3853LEFLG Drug46414  21.274  15.675  18.453  0.2177  0.0204  0.3000
 3853LEFLG Drug46415  21.402  15.858  18.645  0.2898  0.1390  0.1388
 3853LEFLG Drug46416  21.546  15.894  18.519  0.3416 -0.0835  0.1339
 3853LEFLG Drug46417  21.525  15.907  18.281 -0.2911  0.1216  0.0174
 3853LEFLG Drug46418  21.285  15.972  18.189 -0.3867 -0.0087  0.1452
 3853LEFLG Drug46419  21.379  16.228  18.304  0.2928 -0.1908  0.0132
 3853LEFLG Drug46420  21.124  16.120  18.200 -0.0248  0.3915  0.1678
 3853LEFLG Drug46421  21.069  16.340  18.208  0.0827 -0.1190  0.0613
 3854LEFLG Drug46422  15.801  15.987  16.816  0.0852 -0.2936 -0.0878
 3854LEFLG Drug46423  15.534  15.938  16.701 -0.0084 -0.6225  0.2590
 3854LEFLG Drug46424  15.456  16.072  16.819  0.1370 -0.0734 -0.2435
 3854LEFLG Drug46425  15.545  16.223  16.984  0.0748 -0.2393  0.0573
 3854LEFLG Drug46426  15.410  16.257  17.222 -0.1596 -0.3394  0.4104
 3854LEFLG Drug46427  15.229  16.070  17.080 -0.3312  0.0078  0.1623
 3854LEFLG Drug46428  15.244  16.193  17.349 -0.4361 -0.0624  0.2003
 3854LEFLG Drug46429  15.097  16.042  17.411 -0.2232 -0.3661  0.1368
 3855LEFLG Drug46430  21.115  18.782  18.895 -0.3400  0.0252 -0.5180
 3855LEFLG Drug46431  20.926  18.978  19.009 -0.0692 -0.1610  0.2799
 3855LEFLG Drug46432  20.778  18.855  18.981 -0.2770  0.2282 -0.4381
 3855LEFLG Drug46433  20.792  18.607  18.982 -0.2105 -0.1541 -0.1441
 3855LEFLG Drug46434  20.889  18.502  18.750  0.3541 -0.0984 -0.2602
 3855LEFLG Drug46435  20.644  18.640  18.660  0.5095  0.4435  0.1235
 3855LEFLG Drug46436  20.864  18.489  18.534 -0.0133 -0.0444 -0.2241
 3855LEFLG Drug46437  20.765  18.570  18.334  0.8081  0.3642 -0.0614
 3856LEFLG Drug46438  16.933  15.589  17.138 -0.1738  0.4578 -0.0497
 3856LEFLG Drug46439  16.694  15.673  17.287 -0.4159 -0.6137  0.2068
 3856LEFLG Drug46440  16.578  15.609  17.145 -0.1979  0.1728 -0.3534
 3856LEFLG Drug46441  16.628  15.560  16.930  0.0959  0.3663 -0.0013
 3856LEFLG Drug46442  16.423  15.507  16.779 -0.3056  0.1508  0.6470
 3856LEFLG Drug46443  16.531  15.235  16.823 -0.1373  0.0305 -0.3901
 3856LEFLG Drug46444  16.319  15.358  16.657 -0.1325  0.5551 -0.0206
 3856LEFLG Drug46445  16.326  15.164  16.529  0.1882  0.7280  0.0434
 3857LEFLG Drug46446  19.929  21.282  19.370  0.0246  0.3807  0.1073
 3857LEFLG Drug46447  19.876  21.125  19.613 -0.0144  0.1886 -0.0240
 3857LEFLG Drug46448  19.732  21.029  19.524  0.3357 -0.1091 -0.2845
 3857LEFLG Drug46449  19.678  21.006  19.294 -0.0579  0.3250  0.3970
 3857LEFLG Drug46450  19.449  21.092  19.200 -0.3298 -0.0360 -0.6642
 3857LEFLG Drug46451  19.377  20.829  19.314  0.3214 -0.0392 -0.2345
 3857LEFLG Drug46452  19.249  21.029  19.137 -0.7626  0.0074  0.5565
 3857LEFLG Drug46453  19.102  20.851  19.097  0.6313 -0.3676 -0.2340
 3858LEFLG Drug46454  20.880  17.604  18.974 -0.4324 -0.3598  0.0651
 3858LEFLG Drug46455  20.716  17.555  18.734 -0.0619 -0.4762 -0.1685
 3858LEFLG Drug46456  20.668  17.744  18.726  0.2012 -0.4202 -0.5241
 3858LEFLG Drug46457  20.626  17.878  18.919  0.1699  0.0971  0.5388
 3858LEFLG Drug46458  20.604  18.143  18.879  0.3919  0.0147  0.2664
 3858LEFLG Drug46459  20.452  18.039  18.648 -0.0869  0.0832  0.5449
 3858LEFLG Drug46460  20.576  18.296  18.725  0.3639 -0.0334  0.2242
 3858LEFLG Drug46461  20.536  18.353  18.510 -0.1662 -0.6137 -0.0266
 3859LEFLG Drug46462  17.301  21.318  17.367  0.3210 -0.0209 -0.1041
 3859LEFLG Drug46463  17.181  21.503  17.562  0.0858 -0.4513  0.1645
 3859LEFLG Drug46464  17.323  21.465  17.690  0.4540 -0.0363 -0.1056
 3859LEFLG Drug46465  17.527  21.370  17.668  0.3229  0.4437 -0.1601
 3859LEFLG Drug46466  17.551  21.099  17.717  0.0468  0.3586 -0.0121
 3859LEFLG Drug46467  17.290  21.097  17.578  0.1104  0.3102 -0.1313
 3859LEFLG Drug46468  17.438  20.917  17.760  0.0517  0.3470 -0.0476
 3859LEFLG Drug46469  17.236  20.828  17.818  0.0578 -0.0299  0.9650
 3860LEFLG Drug46470  20.065  18.079  16.221  0.2190  0.2185  0.0158
 3860LEFLG Drug46471  20.045  18.270  16.444 -0.1331  0.0596  0.1238
 3860LEFLG Drug46472  20.164  18.161  16.553  0.2403  0.3175 -0.0147
 3860LEFLG Drug46473  20.255  17.933  16.524 -0.1142 -0.2731 -0.3715
 3860LEFLG Drug46474  20.125  17.735  16.635 -0.2318  0.2269  0.0216
 3860LEFLG Drug46475  19.896  17.902  16.552 -0.3838  0.1249  0.2323
 3860LEFLG Drug46476  19.944  17.685  16.746 -0.1557  0.0100  0.0501
 3860LEFLG Drug46477  19.717  17.676  16.759 -0.5871  0.4314 -0.0375
 3861LEFLG Drug46478  19.060  20.177  17.604  0.2082  0.0286 -0.3252
 3861LEFLG Drug46479  19.218  20.292  17.384  0.4066  0.0942 -0.1499
 3861LEFLG Drug46480  19.382  20.224  17.464  0.3065 -0.1851 -0.1743
 3861LEFLG Drug46481  19.436  20.176  17.682  0.0455  0.0421  0.1497
 3861LEFLG Drug46482  19.451  19.936  17.813 -0.5320  0.1106  0.2117
 3861LEFLG Drug46483  19.268  19.862  17.593 -0.2274 -0.0937  0.0223
 3861LEFLG Drug46484  19.422  19.720  17.802  0.2091  0.0153 -0.2200
 3861LEFLG Drug46485  19.348  19.528  17.703 -0.1235 -0.2240  0.2040
 3862LEFLG Drug46486  15.888  18.880  16.638 -0.1538 -0.1470 -0.0258
 3862LEFLG Drug46487  15.914  18.642  16.808  0.5251 -0.0428  0.0282
 3862LEFLG Drug46488  15.899  18.752  16.969 -0.2082 -0.0811  0.0020
 3862LEFLG Drug46489  15.909  18.988  16.999  0.3504  0.1342  0.2512
 3862LEFLG Drug46490  15.693  19.087  17.111  0.1505  0.0182 -0.2532
 3862LEFLG Drug46491  15.750  19.303  16.917  0.1704  0.4468  0.2211
 3862LEFLG Drug46492  15.525  19.226  17.093  0.2460  0.2027  0.2125
 3862LEFLG Drug46493  15.440  19.418  17.021  0.3379 -0.5895 -0.1578
 3863LEFLG Drug46494  18.790  18.244  19.264  0.1524 -0.2845  0.1239
 3863LEFLG Drug46495  18.510  18.185  19.333  0.1126  0.0502  0.2549
 3863LEFLG Drug46496  18.560  18.151  19.518  0.1379  0.1198  0.2610
 3863LEFLG Drug46497  18.753  18.214  19.644 -0.0847  0.0781  0.0439
 3863LEFLG Drug46498  18.893  18.423  19.526 -0.1212 -0.1776  0.0196
 3863LEFLG Drug46499  18.634  18.550  19.593 -0.0107 -0.0782  0.2646
 3863LEFLG Drug46500  18.882  18.628  19.450  0.0989  0.0223  0.5059
 3863LEFLG Drug46501  18.761  18.815  19.397 -0.0930 -0.7078 -0.7844
 3864LEFLG Drug46502  13.694  18.692  18.112 -0.0521  0.0014 -0.2105
 3864LEFLG Drug46503  13.415  18.678  18.202  0.0110  0.3333  0.0454
 3864LEFLG Drug46504  13.443  18.499  18.272 -0.1098  0.3415  0.1164
 3864LEFLG Drug46505  13.628  18.358  18.280  0.0394  0.0593  0.3970
 3864LEFLG Drug46506  13.671  18.181  18.086  0.1091 -0.0004 -0.0782
 3864LEFLG Drug46507  13.385  18.128  18.137  0.1500 -0.4132 -0.2628
 3864LEFLG Drug46508  13.582  18.061  17.927  0.3942 -0.1692 -0.1143
 3864LEFLG Drug46509  13.391  17.996  17.810 -0.4797 -0.4099  0.1677
 3865LEFLG Drug46510  18.922  14.519  17.465  0.1650  0.1956 -0.2174
 3865LEFLG Drug46511  18.828  14.255  17.555  0.1595  0.2345 -0.1092
 3865LEFLG Drug46512  18.676  14.265  17.435  0.1822  0.1699 -0.1430
 3865LEFLG Drug46513  18.605  14.429  17.279 -0.2243 -0.3753  0.1956
 3865LEFLG Drug46514  18.472  14.341  17.070  0.1818 -0.0130 -0.1040
 3865LEFLG Drug46515  18.376  14.156  17.280  0.3261  0.0313  0.0023
 3865LEFLG Drug46516  18.356  14.176  16.985  0.3209 -0.1608 -0.0110
 3865LEFLG Drug46517  18.284  13.968  16.997  0.4392  0.2848  0.2961
 3866LEFLG Drug46518  13.877  20.059  17.606  0.0766  0.4611 -0.3044
 3866LEFLG Drug46519  13.598  20.133  17.548 -0.1677  0.1221  0.3942
 3866LEFLG Drug46520  13.644  20.322  17.550 -0.3843  0.1784  0.2430
 3866LEFLG Drug46521  13.813  20.429  17.662 -0.2800  0.0280  0.1921
 3866LEFLG Drug46522  13.937  20.620  17.523  0.4569  0.0261 -0.2639
 3866LEFLG Drug46523  13.754  20.510  17.319  0.0883 -0.4069  0.2844
 3866LEFLG Drug46524  13.940  20.739  17.340 -0.3424  0.0121 -0.3033
 3866LEFLG Drug46525  13.871  20.806  17.134  0.7060  0.2175  0.0300
 3867LEFLG Drug46526  20.345  17.711  18.589 -0.1031  0.0756 -0.3384
 3867LEFLG Drug46527  20.290  17.542  18.824  0.4179  0.3825  0.0152
 3867LEFLG Drug46528  20.373  17.389  18.737  0.4275  0.3260  0.1242
 3867LEFLG Drug46529  20.466  17.361  18.515  0.0377 -0.0383  0.1512
 3867LEFLG Drug46530  20.606  17.141  18.489  0.1104  0.2308  0.3708
 3867LEFLG Drug46531  20.598  17.236  18.209  0.0853 -0.2556  0.2020
 3867LEFLG Drug46532  20.740  17.025  18.361 -0.1718 -0.2300  0.4815
 3867LEFLG Drug46533  20.836  16.989  18.147 -0.4258 -0.8219 -0.0045
 3868LEFLG Drug46534  16.061  13.346  17.170  0.2933 -0.1016  0.3074
 3868LEFLG Drug46535  15.814  13.262  17.034  0.3084 -0.1914  0.3349
 3868LEFLG Drug46536  15.769  13.447  16.995  0.3695 -0.2225  0.1086
 3868LEFLG Drug46537  15.902  13.654  17.009 -0.0410 -0.0643 -0.1656
 3868LEFLG Drug46538  15.766  13.869  17.093  0.1062  0.5673 -0.2271
 3868LEFLG Drug46539  15.996  13.880  17.279  0.0212  0.3380 -0.1072
 3868LEFLG Drug46540  15.775  14.060  17.200  0.0282  0.4178  0.0514
 3868LEFLG Drug46541  15.880  14.202  17.347 -0.6141 -0.1293  0.0826
 3869LEFLG Drug46542  15.134  14.455  16.593 -0.0487  0.1966 -0.1717
 3869LEFLG Drug46543  15.284  14.481  16.341  0.0200 -0.1677 -0.1716
 3869LEFLG Drug46544  15.296  14.674  16.365 -0.0229 -0.1254 -0.4672
 3869LEFLG Drug46545  15.189  14.816  16.534 -0.2590 -0.1865  0.0781
 3869LEFLG Drug46546  14.944  14.742  16.590 -0.1029  0.1505 -0.3186
 3869LEFLG Drug46547  15.014  14.871  16.846 -0.1018 -0.1304 -0.1756
 3869LEFLG Drug46548  14.766  14.796  16.704 -0.1050  0.1744 -0.3335
 3869LEFLG Drug46549  14.658  14.919  16.870 -0.5852 -0.3758 -0.1133
 3870LEFLG Drug46550  15.959  22.206  18.256 -0.2533 -0.2894 -0.3519
 3870LEFLG Drug46551  16.185  22.218  18.067 -0.0321  0.1034 -0.0697
 3870LEFLG Drug46552  16.078  22.324  17.943  0.2064  0.6080  0.1423
 3870LEFLG Drug46553  15.914  22.478  17.994 -0.1243  0.2362 -0.3422
 3870LEFLG Drug46554  15.682  22.444  17.851  0.1617 -0.2111  0.3966
 3870LEFLG Drug46555  15.737  22.162  17.920 -0.1815 -0.4251 -0.1812
 3870LEFLG Drug46556  15.545  22.309  17.749  0.2760  0.1303 -0.2337
 3870LEFLG Drug46557  15.476  22.082  17.675 -0.5996 -0.2888  0.1698
 3871LEFLG Drug46558  18.416  20.206  19.234  0.9129 -0.0939 -0.1084
 3871LEFLG Drug46559  18.306  19.934  19.258 -0.1275  0.3095 -0.0499
 3871LEFLG Drug46560  18.284  19.923  19.065  0.2826  0.1839 -0.0945
 3871LEFLG Drug46561  18.407  20.024  18.886 -0.2571 -0.1652 -0.1080
 3871LEFLG Drug46562  18.283  20.170  18.703  0.0970 -0.1404  0.2783
 3871LEFLG Drug46563  18.500  20.360  18.771  0.0311  0.0744 -0.0995
 3871LEFLG Drug46564  18.287  20.341  18.567 -0.2715 -0.1653  0.2333
 3871LEFLG Drug46565  18.388  20.530  18.481  0.1383 -0.1202  0.2735
 3872LEFLG Drug46566  13.721  15.949  16.756 -0.2179 -0.0618 -0.4323
 3872LEFLG Drug46567  13.883  16.059  16.536  0.2732  0.1798  0.0398
 3872LEFLG Drug46568  13.816  16.238  16.572  0.0272  0.1064 -0.0494
 3872LEFLG Drug46569  13.623  16.319  16.694 -0.0623  0.5622  0.3280
 3872LEFLG Drug46570  13.653  16.291  16.963  0.2594 -0.0781 -0.1408
 3872LEFLG Drug46571  13.615  16.583  16.936  0.4823 -0.0165  0.1836
 3872LEFLG Drug46572  13.643  16.390  17.158  0.3265 -0.2881 -0.0296
 3872LEFLG Drug46573  13.600  16.573  17.288 -0.1270 -0.4079  0.2020
 3873LEFLG Drug46574  19.533  13.253  17.194 -0.0389  0.5531  0.0102
 3873LEFLG Drug46575  19.346  13.217  16.970  0.4430  0.2412 -0.3523
 3873LEFLG Drug46576  19.292  13.404  16.981 -0.0658  0.0975 -0.2886
 3873LEFLG Drug46577  19.297  13.537  17.180  0.4560  0.0943  0.2211
 3873LEFLG Drug46578  19.050  13.634  17.230  0.0380  0.1562  0.1435
 3873LEFLG Drug46579  19.104  13.480  17.476 -0.0503 -0.0580  0.0301
 3873LEFLG Drug46580  18.866  13.595  17.343  0.0098  0.1382  0.0919
 3873LEFLG Drug46581  18.757  13.456  17.489  0.6241 -0.4536  0.1619
 3874LEFLG Drug46582  19.118  17.651  16.667 -0.2418 -0.0215  0.1026
 3874LEFLG Drug46583  18.970  17.480  16.855  0.1619 -0.2021  0.2617
 3874LEFLG Drug46584  18.850  17.627  16.899  0.0506 -0.3369  0.4127
 3874LEFLG Drug46585  18.800  17.819  16.764 -0.4073 -0.1680  0.0819
 3874LEFLG Drug46586  18.893  18.046  16.894 -0.0240  0.1598  0.0279
 3874LEFLG Drug46587  19.130  17.978  16.732 -0.0328 -0.1988  0.1628
 3874LEFLG Drug46588  19.073  18.145  16.969  0.0530  0.0189  0.0303
 3874LEFLG Drug46589  19.284  18.219  16.934 -0.2327  0.1754 -0.4679
 3875LEFLG Drug46590  18.647  15.451  16.368 -1.1010 -0.3790  0.3712
 3875LEFLG Drug46591  18.527  15.705  16.454 -0.0454  0.4137 -0.3822
 3875LEFLG Drug46592  18.586  15.674  16.637 -0.6442  0.4306 -0.1775
 3875LEFLG Drug46593  18.754  15.530  16.727  0.0166  0.0288  0.0827
 3875LEFLG Drug46594  19.001  15.529  16.612 -0.1786 -0.1872 -0.0201
 3875LEFLG Drug46595  18.865  15.710  16.421  0.1680  0.2850  0.1716
 3875LEFLG Drug46596  19.136  15.598  16.455  0.0718  0.0924  0.3116
 3875LEFLG Drug46597  19.174  15.708  16.250  0.4291 -0.3319 -0.0650
 3876LEFLG Drug46598  13.756  19.575  16.965  0.1522  0.1146  0.4021
 3876LEFLG Drug46599  13.753  19.443  16.702  0.2753  0.3585  0.2772
 3876LEFLG Drug46600  13.826  19.280  16.779 -0.3861  0.0541  0.2899
 3876LEFLG Drug46601  13.817  19.200  17.017 -0.1721 -0.2440  0.1208
 3876LEFLG Drug46602  13.967  18.984  17.063 -0.1826 -0.1011 -0.0156
 3876LEFLG Drug46603  13.701  18.864  17.110 -0.1638 -0.1122  0.0634
 3876LEFLG Drug46604  13.973  18.766  17.046 -0.1839 -0.0992 -0.0436
 3876LEFLG Drug46605  13.872  18.566  17.010 -0.2440 -0.1161 -0.4363
 3877LEFLG Drug46606  20.341  17.657  17.749 -0.0800  0.4285  0.0889
 3877LEFLG Drug46607  20.610  17.647  17.868 -0.0529 -0.1191 -0.0032
 3877LEFLG Drug46608  20.685  17.578  17.702 -0.2978 -0.5678  0.0683
 3877LEFLG Drug46609  20.595  17.555  17.481  0.0243  0.3325  0.1444
 3877LEFLG Drug46610  20.464  17.310  17.436 -0.1822  0.3914  0.1136
 3877LEFLG Drug46611  20.314  17.477  17.245 -0.4552 -0.2105 -0.2128
 3877LEFLG Drug46612  20.282  17.211  17.368 -0.0079 -0.0492  0.2695
 3877LEFLG Drug46613  20.078  17.227  17.255  0.3091  0.4995  0.2495
 3878LEFLG Drug46614  14.267  16.592  16.524 -0.4455  0.0348  0.2504
 3878LEFLG Drug46615  14.171  16.633  16.249 -0.0232  0.1782  0.1204
 3878LEFLG Drug46616  14.279  16.485  16.185  0.0954  0.2287  0.2040
 3878LEFLG Drug46617  14.369  16.316  16.305  0.4158 -0.1651  0.4953
 3878LEFLG Drug46618  14.194  16.255  16.515  0.0501  0.1291 -0.2622
 3878LEFLG Drug46619  14.459  16.222  16.641  0.0438 -0.3409 -0.3645
 3878LEFLG Drug46620  14.176  16.193  16.724  0.0316 -0.2387 -0.3703
 3878LEFLG Drug46621  14.272  16.120  16.910  0.0819  0.1891  0.3466
 3879LEFLG Drug46622  19.857  13.644  17.339 -0.4354  0.2697  0.3160
 3879LEFLG Drug46623  20.110  13.735  17.220 -0.2431 -0.2132  0.3478
 3879LEFLG Drug46624  20.174  13.793  17.394 -0.4225  0.2633  0.2596
 3879LEFLG Drug46625  20.055  13.846  17.589 -0.2845  0.0636  0.2217
 3879LEFLG Drug46626  20.138  14.076  17.705  0.1246 -0.0294  0.3627
 3879LEFLG Drug46627  19.844  14.102  17.718  0.1601  0.3290  0.5221
 3879LEFLG Drug46628  20.077  14.279  17.759  0.4002  0.0408  0.4199
 3879LEFLG Drug46629  19.922  14.442  17.800  0.0968  0.3316 -0.1988
 3880LEFLG Drug46630  19.148  14.874  17.598  0.0587  0.3738 -0.0417
 3880LEFLG Drug46631  19.412  14.881  17.729 -0.0327 -0.1527  0.1801
 3880LEFLG Drug46632  19.366  15.048  17.818  0.3060  0.0600 -0.0359
 3880LEFLG Drug46633  19.158  15.159  17.836 -0.2908 -0.5295  0.3689
 3880LEFLG Drug46634  18.935  15.007  17.801  0.0247  0.1700 -0.3286
 3880LEFLG Drug46635  19.107  14.835  17.970 -0.7652  0.2644  0.6110
 3880LEFLG Drug46636  18.862  14.801  17.807 -0.2582  0.2723 -0.1760
 3880LEFLG Drug46637  18.866  14.588  17.900  0.3807 -0.1183  0.3248
 3881LEFLG Drug46638  17.711  15.118  17.169  0.0699  0.3898  0.0638
 3881LEFLG Drug46639  17.833  14.900  17.325 -0.0669  0.2022 -0.0895
 3881LEFLG Drug46640  17.734  14.954  17.483  0.2590  0.3943  0.0527
 3881LEFLG Drug46641  17.533  15.061  17.488 -0.1851 -0.0412 -0.2946
 3881LEFLG Drug46642  17.310  14.915  17.514  0.1513 -0.1752  0.0671
 3881LEFLG Drug46643  17.335  14.899  17.220  0.0733 -0.2118  0.0625
 3881LEFLG Drug46644  17.130  14.832  17.422  0.1245 -0.1813  0.1246
 3881LEFLG Drug46645  16.990  14.809  17.239 -0.1677  0.0181 -0.3179
 3882LEFLG Drug46646  15.373  15.775  17.857  0.2479  0.0357  0.7078
 3882LEFLG Drug46647  15.628  15.797  18.001  0.7003 -0.1237 -0.0411
 3882LEFLG Drug46648  15.723  15.826  17.835  0.1483  0.3862 -0.2843
 3882LEFLG Drug46649  15.664  15.955  17.639  0.0797 -0.0090  0.5478
 3882LEFLG Drug46650  15.418  15.900  17.541  0.1665 -0.0833  0.2740
 3882LEFLG Drug46651  15.554  15.640  17.507  0.2012 -0.0655  0.2765
 3882LEFLG Drug46652  15.283  15.749  17.461  0.2028 -0.0859  0.2169
 3882LEFLG Drug46653  15.250  15.543  17.361 -0.3335 -0.3577 -0.1036
 3883LEFLG Drug46654  15.899  20.565  17.909 -0.3386 -0.4239  0.0070
 3883LEFLG Drug46655  15.741  20.578  18.157 -0.1125  0.2301  0.1231
 3883LEFLG Drug46656  15.610  20.693  18.070 -0.2221 -0.0445 -0.0805
 3883LEFLG Drug46657  15.627  20.834  17.873 -0.1339  0.2139  0.0034
 3883LEFLG Drug46658  15.446  20.779  17.684 -0.1526 -0.2112 -0.1432
 3883LEFLG Drug46659  15.692  20.649  17.584 -0.1885 -0.5200  0.1621
 3883LEFLG Drug46660  15.420  20.701  17.482  0.1848  0.3814 -0.4279
 3883LEFLG Drug46661  15.507  20.602  17.294  0.0980 -0.5573  0.1201
 3884LEFLG Drug46662  13.456  18.145  16.717 -0.3414 -0.0525  0.2536
 3884LEFLG Drug46663  13.495  17.867  16.631 -0.1027  0.0754 -0.0612
 3884LEFLG Drug46664  13.601  17.925  16.479  0.2177  0.3144  0.2480
 3884LEFLG Drug46665  13.588  18.131  16.364 -0.2687  0.1865  0.1376
 3884LEFLG Drug46666  13.695  18.337  16.506 -0.1599 -0.3094 -0.0065
 3884LEFLG Drug46667  13.939  18.173  16.472  0.2036  0.2100  0.0441
 3884LEFLG Drug46668  13.859  18.409  16.632 -0.1632  0.3734 -0.3735
 3884LEFLG Drug46669  14.053  18.375  16.735 -0.4278 -0.3065 -0.3909
 3885LEFLG Drug46670  18.379  19.228  18.309 -0.2687 -0.0401 -0.0790
 3885LEFLG Drug46671  18.257  18.960  18.295  0.0867 -0.2269  0.2793
 3885LEFLG Drug46672  18.372  18.912  18.145 -0.2523 -0.0590 -0.0437
 3885LEFLG Drug46673  18.585  18.987  18.101 -0.0314  0.2504  0.1554
 3885LEFLG Drug46674  18.698  19.114  18.313  0.8019 -0.1493  0.0695
 3885LEFLG Drug46675  18.659  19.338  18.124  0.3056 -0.0902  0.2340
 3885LEFLG Drug46676  18.772  19.302  18.394  0.2173 -0.0006  0.2832
 3885LEFLG Drug46677  18.881  19.497  18.355 -1.2931 -0.2047  0.3459
 3886LEFLG Drug46678  19.214  18.835  18.431 -0.2140 -0.3236 -0.0955
 3886LEFLG Drug46679  18.984  19.019  18.428  0.0123 -0.0359 -0.0214
 3886LEFLG Drug46680  19.069  19.128  18.291  0.1238 -0.1155 -0.0161
 3886LEFLG Drug46681  19.300  19.154  18.262 -0.2938 -0.0705  0.2934
 3886LEFLG Drug46682  19.427  18.958  18.105 -0.6062 -0.1869  0.1329
 3886LEFLG Drug46683  19.588  18.933  18.352 -0.2710  0.1020 -0.0505
 3886LEFLG Drug46684  19.536  18.769  18.111  0.0800  0.1790 -0.1816
 3886LEFLG Drug46685  19.652  18.600  18.229  0.1007 -0.1179  0.7542
 3887LEFLG Drug46686  14.128  17.412  17.002 -0.0453  0.0217  0.7949
 3887LEFLG Drug46687  13.871  17.458  16.866  0.3492 -0.3469 -0.1107
 3887LEFLG Drug46688  13.774  17.388  17.019 -0.1022 -0.1208 -0.2854
 3887LEFLG Drug46689  13.846  17.370  17.245 -0.0461  0.0636 -0.2292
 3887LEFLG Drug46690  13.662  17.287  17.429 -0.0791  0.2357  0.0983
 3887LEFLG Drug46691  13.501  17.306  17.181 -0.0777  0.1219  0.0883
 3887LEFLG Drug46692  13.453  17.233  17.464  0.0422 -0.3271 -0.0027
 3887LEFLG Drug46693  13.266  17.154  17.370  0.0597  0.4618 -0.7171
 3888LEFLG Drug46694  15.078  20.734  18.242  0.2255 -0.2675  0.1823
 3888LEFLG Drug46695  14.877  20.528  18.300 -0.2542  0.2056  0.2395
 3888LEFLG Drug46696  14.777  20.576  18.140  0.1483  0.0361 -0.0712
 3888LEFLG Drug46697  14.766  20.771  18.023 -0.0891  0.0324 -0.0735
 3888LEFLG Drug46698  14.590  20.774  17.827  0.3651 -0.1940  0.4857
 3888LEFLG Drug46699  14.425  20.887  18.045 -0.0206  0.0186  0.0924
 3888LEFLG Drug46700  14.394  20.838  17.755  0.5973  0.0143  0.0203
 3888LEFLG Drug46701  14.167  20.892  17.797  0.4982 -0.2649 -0.0394
 3889LEFLG Drug46702  15.752  19.147  18.152 -0.2424 -0.4363  0.3012
 3889LEFLG Drug46703  15.702  18.895  18.009 -0.4723 -0.1996 -0.0421
 3889LEFLG Drug46704  15.551  18.975  17.916 -0.4224  0.0549  0.0903
 3889LEFLG Drug46705  15.404  19.140  18.001 -0.1240 -0.0524  0.1225
 3889LEFLG Drug46706  15.523  19.381  17.985 -0.0036  0.2315 -0.0431
 3889LEFLG Drug46707  15.289  19.412  17.806 -0.1004 -0.0841  0.0250
 3889LEFLG Drug46708  15.544  19.555  17.854 -0.1012  0.0392 -0.3201
 3889LEFLG Drug46709  15.503  19.652  17.652  0.3445 -0.1946  0.4143
 3890LEFLG Drug46710  21.503  16.135  17.156 -0.1801 -0.2328  0.0172
 3890LEFLG Drug46711  21.446  15.960  16.926  0.6514 -0.0232 -0.3633
 3890LEFLG Drug46712  21.443  16.113  16.806  0.0269  0.2219 -0.0502
 3890LEFLG Drug46713  21.560  16.321  16.822  0.5265 -0.1693  0.1974
 3890LEFLG Drug46714  21.400  16.525  16.911  0.0151  0.0584 -0.4638
 3890LEFLG Drug46715  21.596  16.508  17.132 -0.2855  0.0977 -0.1909
 3890LEFLG Drug46716  21.375  16.689  17.055 -0.4436 -0.1439 -0.3055
 3890LEFLG Drug46717  21.433  16.798  17.241 -0.2888  0.1452 -0.2734
 3891LEFLG Drug46718  15.491  13.914  18.618 -0.1013 -0.4216  0.3149
 3891LEFLG Drug46719  15.664  13.700  18.514  0.3267  0.0240  0.0913
 3891LEFLG Drug46720  15.628  13.756  18.331  0.1422  0.0859  0.1456
 3891LEFLG Drug46721  15.550  13.960  18.244 -0.0367  0.0153  0.0117
 3891LEFLG Drug46722  15.736  14.115  18.115 -0.1034 -0.0273  0.1578
 3891LEFLG Drug46723  15.496  14.189  17.959  0.1784  0.0657 -0.2400
 3891LEFLG Drug46724  15.789  14.216  17.929  0.2365  0.1998  0.3718
 3891LEFLG Drug46725  15.725  14.327  17.731 -0.1776 -0.3304  0.1928
 3892LEFLG Drug46726  15.202  19.303  16.638 -0.3507 -0.1293  0.5384
 3892LEFLG Drug46727  15.299  19.546  16.503 -0.6157 -0.2291  0.1590
 3892LEFLG Drug46728  15.304  19.642  16.673  0.1523 -0.2364  0.1565
 3892LEFLG Drug46729  15.144  19.626  16.832 -0.1128 -0.3537  0.0163
 3892LEFLG Drug46730  14.888  19.650  16.750 -0.3136  0.1277 -0.4930
 3892LEFLG Drug46731  14.860  19.558  17.030 -0.3315  0.2863 -0.4425
 3892LEFLG Drug46732  14.682  19.593  16.796 -0.3599  0.3573 -0.4101
 3892LEFLG Drug46733  14.521  19.547  16.957  0.4320 -0.8982 -0.7463
 3893LEFLG Drug46734  15.989  15.325  15.938 -0.2346 -0.3356  0.0675
 3893LEFLG Drug46735  16.269  15.344  16.027 -0.3542  0.1686  0.3534
 3893LEFLG Drug46736  16.229  15.236  16.183 -0.3200  0.1001  0.3146
 3893LEFLG Drug46737  16.055  15.090  16.224 -0.0530 -0.1647 -0.2088
 3893LEFLG Drug46738  15.959  15.101  16.475 -0.1549  0.1579 -0.3918
 3893LEFLG Drug46739  15.967  15.388  16.403  0.0790  0.3935  0.5141
 3893LEFLG Drug46740  15.899  15.229  16.643  0.3753 -0.2881  0.1587
 3893LEFLG Drug46741  15.923  15.426  16.757  0.4628  0.2041 -0.0211
 3894LEFLG Drug46742  17.928  14.492  15.490 -0.3916  0.0925  0.3087
 3894LEFLG Drug46743  17.994  14.684  15.703  0.3422 -0.0095  0.1832
 3894LEFLG Drug46744  18.034  14.539  15.826  0.2672 -0.0762  0.1294
 3894LEFLG Drug46745  17.946  14.323  15.819 -0.2276  0.2509  0.2875
 3894LEFLG Drug46746  17.735  14.267  15.979  0.2456 -0.1023  0.3286
 3894LEFLG Drug46747  17.941  14.081  16.080  0.1124 -0.2537  0.3228
 3894LEFLG Drug46748  17.675  14.176  16.168  0.2089 -0.0144  0.3595
 3894LEFLG Drug46749  17.721  14.042  16.350 -0.7348 -0.0218 -0.8478
 3895LEFLG Drug46750  21.435  14.641  18.226 -0.1420  0.1976  0.1365
 3895LEFLG Drug46751  21.375  14.368  18.320 -0.1385  0.1151 -0.0959
 3895LEFLG Drug46752  21.290  14.325  18.151  0.0829  0.1780 -0.2249
 3895LEFLG Drug46753  21.270  14.450  17.960 -0.0017 -0.0476 -0.2519
 3895LEFLG Drug46754  21.033  14.508  17.878 -0.1117  0.5351 -0.0532
 3895LEFLG Drug46755  21.180  14.495  17.621  0.0622  0.1266  0.0631
 3895LEFLG Drug46756  20.904  14.558  17.708 -0.0605  0.0317 -0.2493
 3895LEFLG Drug46757  20.871  14.560  17.484 -0.1947  0.2083  0.0267
 3896LEFLG Drug46758  19.951  15.396  17.303  0.1276 -0.3135  0.6215
 3896LEFLG Drug46759  19.881  15.638  17.455 -0.1491  0.0268 -0.0293
 3896LEFLG Drug46760  20.058  15.712  17.424 -0.1810  0.0773 -0.0935
 3896LEFLG Drug46761  20.206  15.659  17.256  0.1004 -0.1800 -0.0396
 3896LEFLG Drug46762  20.443  15.798  17.231  0.1564 -0.0174 -0.2255
 3896LEFLG Drug46763  20.536  15.519  17.206 -0.2167 -0.1780  0.1450
 3896LEFLG Drug46764  20.657  15.788  17.189  0.1527 -0.3609 -0.1679
 3896LEFLG Drug46765  20.843  15.674  17.137 -0.3799  0.2610  0.2713
 3897LEFLG Drug46766  22.080  16.905  17.884 -0.3282 -0.0173 -0.1365
 3897LEFLG Drug46767  22.128  17.067  17.643  0.3674  0.1445  0.0991
 3897LEFLG Drug46768  21.937  17.098  17.622  0.4111  0.0886 -0.4755
 3897LEFLG Drug46769  21.758  16.984  17.728  0.0534  0.0327  0.1553
 3897LEFLG Drug46770  21.532  17.126  17.778  0.1691  0.1417  0.2865
 3897LEFLG Drug46771  21.467  17.008  17.514 -0.0872  0.1748  0.3336
 3897LEFLG Drug46772  21.374  17.238  17.676 -0.1124  0.0028  0.5649
 3897LEFLG Drug46773  21.236  17.267  17.489 -0.0475  0.0066 -0.6893
 3898LEFLG Drug46774  14.243  15.709  16.282  0.0040 -0.1428 -0.0832
 3898LEFLG Drug46775  14.273  15.887  16.514 -0.1934 -0.3309  0.0891
 3898LEFLG Drug46776  14.444  15.807  16.558  0.0446  0.0204 -0.1702
 3898LEFLG Drug46777  14.493  15.585  16.536  0.0587 -0.1280  0.0842
 3898LEFLG Drug46778  14.756  15.520  16.565  0.0656  0.3494 -0.0261
 3898LEFLG Drug46779  14.643  15.256  16.492  0.0070  0.4104 -0.1573
 3898LEFLG Drug46780  14.893  15.357  16.615 -0.1749  0.2562  0.3527
 3898LEFLG Drug46781  14.950  15.130  16.605 -0.0956  0.2709  0.6274
 3899LEFLG Drug46782  14.281  21.301  16.770 -0.3403 -0.0730  0.3240
 3899LEFLG Drug46783  14.249  21.159  17.026 -0.1087 -0.3962  0.1769
 3899LEFLG Drug46784  14.125  21.034  16.945 -0.2063 -0.2749  0.1374
 3899LEFLG Drug46785  14.156  20.936  16.732 -0.2149 -0.0326 -0.0479
 3899LEFLG Drug46786  14.423  20.940  16.664  0.0717  0.0959 -0.1775
 3899LEFLG Drug46787  14.349  20.666  16.578 -0.3003  0.0333  0.3193
 3899LEFLG Drug46788  14.598  20.824  16.605 -0.0929 -0.2254 -0.0470
 3899LEFLG Drug46789  14.696  20.655  16.485  0.0568  0.0767 -0.2862
 3900LEFLG Drug46790  21.865  17.628  17.750  0.1368 -0.1100  0.0853
 3900LEFLG Drug46791  22.080  17.785  17.875 -0.1597 -0.0741  0.5599
 3900LEFLG Drug46792  22.156  17.624  17.954 -0.1703 -0.0939  0.5306
 3900LEFLG Drug46793  22.129  17.402  17.861  0.0977 -0.3208  0.0497
 3900LEFLG Drug46794  22.039  17.231  18.052 -0.2331 -0.2901  0.0822
 3900LEFLG Drug46795  21.782  17.352  17.969  0.0173 -0.0343 -0.3386
 3900LEFLG Drug46796  21.868  17.108  18.113 -0.4531 -0.1782 -0.2909
 3900LEFLG Drug46797  21.637  17.072  18.139 -0.2419  0.2783  0.2475
 3901LEFLG Drug46798  14.408  17.127  17.677  0.0612 -0.0882 -0.0107
 3901LEFLG Drug46799  14.227  17.322  17.550 -0.1486 -0.1845  0.1377
 3901LEFLG Drug46800  14.250  17.445  17.699  0.6695  0.2417 -0.3065
 3901LEFLG Drug46801  14.394  17.448  17.880 -0.3013  0.1000  0.1422
 3901LEFLG Drug46802  14.557  17.676  17.886 -0.2623  0.2648  0.1021
 3901LEFLG Drug46803  14.505  17.655  17.596 -0.2690 -0.1146  0.1286
 3901LEFLG Drug46804  14.695  17.799  17.770  0.0318 -0.2352 -0.0955
 3901LEFLG Drug46805  14.730  17.923  17.587  0.0298 -0.4503 -0.2153
 3902LEFLG Drug46806  16.959  19.838  16.868  0.2318  0.0400 -0.0054
 3902LEFLG Drug46807  16.994  19.590  17.021  0.0426 -0.1683 -0.2956
 3902LEFLG Drug46808  16.811  19.535  16.979 -0.0678  0.1139 -0.1949
 3902LEFLG Drug46809  16.627  19.655  16.880 -0.3960  0.3206  0.0042
 3902LEFLG Drug46810  16.576  19.900  16.995  0.2887  0.0204 -0.1425
 3902LEFLG Drug46811  16.547  19.727  17.233 -0.0607  0.2059 -0.0464
 3902LEFLG Drug46812  16.585  20.015  17.180 -0.3020  0.2073 -0.2200
 3902LEFLG Drug46813  16.593  20.033  17.414 -0.0773 -0.3504 -0.1295
 3903LEFLG Drug46814  20.340  15.229  17.994  0.2761  0.4324  0.0842
 3903LEFLG Drug46815  20.361  15.509  17.907 -0.0190  0.3095 -0.3983
 3903LEFLG Drug46816  20.240  15.475  17.758 -0.4220  0.0557 -0.0228
 3903LEFLG Drug46817  20.109  15.286  17.710  0.0560 -0.4359 -0.0008
 3903LEFLG Drug46818  20.187  15.190  17.477  0.1213  0.1737 -0.1005
 3903LEFLG Drug46819  20.444  15.198  17.622  0.2040 -0.0452 -0.2309
 3903LEFLG Drug46820  20.356  15.152  17.344  0.0184 -0.0265 -0.1760
 3903LEFLG Drug46821  20.584  15.110  17.312  0.6225  0.1807  0.2008
 3904LEFLG Drug46822  17.891  15.053  16.038  0.0222  0.0505  0.0053
 3904LEFLG Drug46823  18.108  14.894  16.157 -0.1105 -0.0460  0.1184
 3904LEFLG Drug46824  18.191  15.054  16.228 -0.0374 -0.0759  0.1006
 3904LEFLG Drug46825  18.190  15.270  16.133  0.0603  0.3539  0.0089
 3904LEFLG Drug46826  18.436  15.330  16.041  0.1714 -0.2046  0.1395
 3904LEFLG Drug46827  18.342  15.593  16.138 -0.2959 -0.2081 -0.2878
 3904LEFLG Drug46828  18.565  15.493  15.973 -0.0684 -0.0925 -0.0541
 3904LEFLG Drug46829  18.615  15.717  15.972 -0.1132 -0.1435  0.2135
 3905LEFLG Drug46830  19.705  16.598  18.259  0.4266  0.2788 -0.4523
 3905LEFLG Drug46831  19.566  16.376  18.124  0.4515 -0.0463  0.0444
 3905LEFLG Drug46832  19.618  16.445  17.950 -0.4241  0.1484 -0.1611
 3905LEFLG Drug46833  19.761  16.618  17.893 -0.1100  0.4317  0.0483
 3905LEFLG Drug46834  19.773  16.661  17.622  0.1320  0.4750 -0.0013
 3905LEFLG Drug46835  19.888  16.389  17.638  0.3559  0.5872  0.3512
 3905LEFLG Drug46836  19.867  16.601  17.433 -0.3747  0.0686 -0.1347
 3905LEFLG Drug46837  20.003  16.454  17.312 -0.0815 -0.5450 -0.4145
 3906LEFLG Drug46838  19.695  13.987  17.422  0.0814 -0.4895 -0.1369
 3906LEFLG Drug46839  19.529  14.143  17.236 -0.2322 -0.2984  0.2947
 3906LEFLG Drug46840  19.669  14.138  17.102 -0.1449  0.5074  0.3329
 3906LEFLG Drug46841  19.885  14.040  17.099 -0.0367  0.0498  0.2372
 3906LEFLG Drug46842  20.033  14.150  17.307 -0.3297  0.2297  0.4900
 3906LEFLG Drug46843  19.910  14.389  17.184 -0.1746  0.0319 -0.0605
 3906LEFLG Drug46844  20.078  14.331  17.421 -0.4089  0.4293  0.2072
 3906LEFLG Drug46845  20.046  14.560  17.471 -0.3424 -0.1607  0.2913
 3907LEFLG Drug46846  15.414  14.208  17.184 -0.0879 -0.0059  0.1181
 3907LEFLG Drug46847  15.567  14.416  17.325 -0.0162  0.0996 -0.1141
 3907LEFLG Drug46848  15.544  14.538  17.174 -0.0968 -0.0103 -0.1918
 3907LEFLG Drug46849  15.506  14.493  16.945  0.4038  0.0394  0.0764
 3907LEFLG Drug46850  15.492  14.716  16.802  0.2161 -0.0432 -0.1721
 3907LEFLG Drug46851  15.666  14.550  16.630 -0.1424 -0.2560 -0.3340
 3907LEFLG Drug46852  15.571  14.830  16.633 -0.1283 -0.2491 -0.4783
 3907LEFLG Drug46853  15.660  14.848  16.417 -0.0923 -0.0943  0.4700
 3908LEFLG Drug46854  12.421  16.706  18.386  0.2946  0.2986 -0.3286
 3908LEFLG Drug46855  12.507  16.751  18.108  0.1017  0.0682 -0.4267
 3908LEFLG Drug46856  12.490  16.943  18.131  0.2371  0.0937 -0.5365
 3908LEFLG Drug46857  12.477  17.064  18.328 -0.0079  0.3401 -0.2284
 3908LEFLG Drug46858  12.705  17.181  18.416 -0.5967 -0.0649 -0.2618
 3908LEFLG Drug46859  12.735  17.205  18.123  0.1247 -0.2724 -0.2134
 3908LEFLG Drug46860  12.904  17.251  18.360 -0.4883 -0.0069  0.1842
 3908LEFLG Drug46861  13.082  17.242  18.197 -0.4048 -0.5201 -1.2181
 3909LEFLG Drug46862  21.604  15.116  17.564  0.0334  0.3599 -0.1127
 3909LEFLG Drug46863  21.764  15.360  17.533  0.2885  0.2010 -0.0627
 3909LEFLG Drug46864  21.730  15.410  17.718 -0.0122  0.4099 -0.1712
 3909LEFLG Drug46865  21.567  15.334  17.876  0.3972 -0.1746  0.4178
 3909LEFLG Drug46866  21.409  15.540  17.965  0.0413  0.1050  0.0321
 3909LEFLG Drug46867  21.200  15.333  17.929 -0.0077  0.2275 -0.4142
 3909LEFLG Drug46868  21.230  15.585  18.082  0.0416 -0.0880  0.1096
 3909LEFLG Drug46869  21.020  15.538  18.141  0.4546 -0.3938 -0.4355
 3910LEFLG Drug46870  19.759  15.800  17.130  0.1523 -0.0585  0.1437
 3910LEFLG Drug46871  19.828  15.592  16.933 -0.2297  0.1180 -0.1815
 3910LEFLG Drug46872  19.646  15.592  16.865 -0.2616  0.4775 -0.1079
 3910LEFLG Drug46873  19.451  15.710  16.941 -0.0521 -0.1932  0.3151
 3910LEFLG Drug46874  19.269  15.583  17.062  0.1139 -0.1235  0.0446
 3910LEFLG Drug46875  19.360  15.364  16.885 -0.5518  0.0074 -0.4810
 3910LEFLG Drug46876  19.125  15.419  17.057 -0.0738  0.0339  0.1845
 3910LEFLG Drug46877  19.062  15.207  16.992  0.1053 -0.1959  0.1125
 3911LEFLG Drug46878  15.048  17.727  17.105 -0.0880 -0.3102  0.2668
 3911LEFLG Drug46879  15.164  17.677  16.840  0.0086 -0.1759  0.2836
 3911LEFLG Drug46880  15.174  17.868  16.805  0.2809 -0.1493  0.4943
 3911LEFLG Drug46881  15.190  18.061  16.957 -0.1823 -0.2032  0.5132
 3911LEFLG Drug46882  14.958  18.108  17.074  0.0506 -0.1448 -0.1988
 3911LEFLG Drug46883  14.903  18.230  16.810 -0.2837 -0.3624 -0.2335
 3911LEFLG Drug46884  14.797  18.256  17.085  0.4942  0.3357  0.0227
 3911LEFLG Drug46885  14.617  18.360  16.974 -0.2654 -0.6808 -0.4639
 3912LEFLG Drug46886  19.927  17.571  16.040 -0.1141 -0.5634 -0.1620
 3912LEFLG Drug46887  20.162  17.459  15.902  0.2379 -0.2467  0.1704
 3912LEFLG Drug46888  20.260  17.451  16.070 -0.1770 -0.6093  0.4067
 3912LEFLG Drug46889  20.231  17.563  16.281 -0.1115  0.0510  0.2888
 3912LEFLG Drug46890  20.230  17.396  16.499  0.1012 -0.2160  0.1189
 3912LEFLG Drug46891  20.353  17.217  16.298 -0.7210 -0.2590 -0.3648
 3912LEFLG Drug46892  20.245  17.190  16.572 -0.2405 -0.3534 -0.1811
 3912LEFLG Drug46893  20.344  16.982  16.580 -0.5720  0.6041  0.2978
 3913LEFLG Drug46894  18.728  17.875  19.144 -0.0044  0.1886  0.1273
 3913LEFLG Drug46895  19.013  17.842  19.211  0.0158  0.2994  0.0972
 3913LEFLG Drug46896  19.065  17.946  19.055 -0.0096 -0.4373 -0.4268
 3913LEFLG Drug46897  18.940  18.106  18.939 -0.2612  0.5646  0.2721
 3913LEFLG Drug46898  18.789  18.011  18.734  0.0820 -0.0504 -0.0413
 3913LEFLG Drug46899  19.047  18.024  18.590  0.1463 -0.0460  0.0732
 3913LEFLG Drug46900  18.761  18.018  18.517  0.1810 -0.1344 -0.0580
 3913LEFLG Drug46901  18.830  18.090  18.303 -0.1403  0.6447  0.3282
 3914LEFLG Drug46902  17.823  20.703  18.460 -0.1057 -0.1587  0.3575
 3914LEFLG Drug46903  18.017  20.484  18.425  0.1950  0.2044 -0.3589
 3914LEFLG Drug46904  17.923  20.422  18.267  0.0484  0.3587 -0.3340
 3914LEFLG Drug46905  17.683  20.395  18.255  0.3630 -0.4516 -0.0331
 3914LEFLG Drug46906  17.619  20.160  18.135  0.2807 -0.1918  0.0263
 3914LEFLG Drug46907  17.673  20.063  18.410  0.5669  0.1726  0.1031
 3914LEFLG Drug46908  17.648  19.943  18.140  0.2492 -0.1917  0.2892
 3914LEFLG Drug46909  17.705  19.754  18.249  0.0268 -0.8048  0.1746
 3915LEFLG Drug46910  20.790  15.873  16.180 -0.3898 -0.0204  0.1147
 3915LEFLG Drug46911  20.781  16.119  16.019  0.1851 -0.1486 -0.1222
 3915LEFLG Drug46912  20.737  16.224  16.176  0.1741  0.0669 -0.2676
 3915LEFLG Drug46913  20.791  16.169  16.406  0.1197 -0.1654  0.1940
 3915LEFLG Drug46914  20.569  16.179  16.560 -0.0366 -0.3638 -0.0893
 3915LEFLG Drug46915  20.470  16.018  16.332 -0.0579 -0.1583 -0.2263
 3915LEFLG Drug46916  20.350  16.166  16.559 -0.0312 -0.4748 -0.0025
 3915LEFLG Drug46917  20.151  16.072  16.490 -0.0687 -0.3765  0.3936
 3916LEFLG Drug46918  14.701  14.877  17.210  0.3090  0.2456  0.0158
 3916LEFLG Drug46919  14.475  14.902  17.396  0.1785  0.0103 -0.1094
 3916LEFLG Drug46920  14.471  15.095  17.371  0.3927  0.0816  0.3621
 3916LEFLG Drug46921  14.646  15.234  17.354 -0.2247  0.0828 -0.1076
 3916LEFLG Drug46922  14.728  15.363  17.582 -0.1044 -0.0948 -0.0390
 3916LEFLG Drug46923  14.904  15.489  17.381 -0.3821  0.2612 -0.0640
 3916LEFLG Drug46924  14.889  15.476  17.676 -0.2762  0.1732 -0.0619
 3916LEFLG Drug46925  15.102  15.558  17.670  0.6831 -0.3070  0.2433
 3917LEFLG Drug46926  14.542  13.829  16.645 -0.1396 -0.0128 -0.0406
 3917LEFLG Drug46927  14.256  13.889  16.672 -0.1844 -0.1591 -0.1840
 3917LEFLG Drug46928  14.273  14.042  16.552 -0.1480  0.0077  0.0302
 3917LEFLG Drug46929  14.462  14.180  16.516 -0.2668 -0.1567 -0.2887
 3917LEFLG Drug46930  14.645  14.218  16.714 -0.0790 -0.0542  0.2148
 3917LEFLG Drug46931  14.522  14.486  16.693  0.6034  0.2337 -0.3154
 3917LEFLG Drug46932  14.696  14.344  16.885 -0.1796 -0.0270  0.2253
 3917LEFLG Drug46933  14.738  14.552  16.961 -0.3925  0.5085 -0.6951
 3918W        W46934   8.168   6.739  20.067  0.1382 -0.2161  0.0710
 3919W        W46935   9.150  13.223  17.501 -0.1672 -0.4467  0.1395
 3920W        W46936   0.682  22.338  28.932 -0.1615 -0.0769 -0.1193
 3921W        W46937  22.751  34.511   6.272  0.3913  0.1592  0.2219
 3922W        W46938   6.896   6.706  21.936  0.2373 -0.1685  0.2139
 3923W        W46939  24.010  28.364  16.406  0.0392  0.1614  0.1054
 3924W        W46940  27.698  26.951  25.053 -0.3228  0.1931 -0.0486
 3925W        W46941   0.884   4.804  22.037  0.2904 -0.0598 -0.2018
 3926W        W46942   6.358  30.877   0.407 -0.1418  0.1255  0.0823
 3927W        W46943   4.941   3.242   1.183 -0.0483  0.1365 -0.0946
 3928W        W46944   7.796   8.964  21.788 -0.2327 -0.2479 -0.0538
 3929W        W46945   0.693   2.105  27.040  0.0684 -0.2245 -0.2308
 3930W        W46946  10.718  30.172   4.192  0.1256  0.4330  0.3264
 3931W        W46947  34.229  33.643  19.774 -0.0787  0.2071  0.1377
 3932W        W46948  29.850  32.186   0.668 -0.0389 -0.0057 -0.0966
 3933W        W46949  27.003  33.708   2.668  0.4230  0.1878  0.2373
 3934W        W46950  14.263  11.742  18.989 -0.0314 -0.2719  0.0809
 3935W        W46951   7.527   6.465  27.819 -0.1235  0.1122  0.6382
 3936W        W46952   5.661   0.930  22.425 -0.2629 -0.0044  0.0978
 3937W        W46953  15.503  13.482  11.809  0.1436 -0.2729 -0.0398
 3938W        W46954  13.335  13.020  21.032  0.0224 -0.0156  0.0726
 3939W        W46955   6.252   0.809  18.503 -0.0131  0.3030 -0.1264
 3940W        W46956   3.076   0.527  18.167  0.0577  0.0436 -0.1617
 3941W        W46957  13.844   9.749  16.448 -0.0777  0.0357  0.2216
 3942W        W46958  29.735  10.731  18.005 -0.3024 -0.1859  0.1499
 3943W        W46959  29.328  28.595  16.035  0.1306  0.1694 -0.3601
 3944W        W46960  30.254   4.544   0.179  0.0613  0.0079  0.0286
 3945W        W46961   9.479   1.580  21.927 -0.0075  0.3601 -0.0140
 3946W        W46962  24.662  31.887  17.369  0.0932 -0.2920  0.3055
 3947W        W46963  16.634  32.281  16.355 -0.1066  0.1857 -0.0486
 3948W        W46964   7.621  10.181  18.278  0.0494 -0.3577 -0.2039
 3949W        W46965   3.391  25.541  16.249  0.1317 -0.1151  0.0284
 3950W        W46966   0.795  12.821  25.365 -0.0709 -0.2396  0.1244
 3951W        W46967  13.466  29.322  27.357 -0.0527 -0.2090 -0.3592
 3952W        W46968   9.068  29.674  20.432  0.1326  0.0397 -0.2409
 3953W        W46969   9.148  17.808  29.241  0.0433  0.4483  0.0695
 3954W        W46970  11.319   5.320  14.664  0.1040  0.2201  0.0925
 3955W        W46971  10.622   9.215  24.535 -0.0398  0.0979 -0.2110
 3956W        W46972   1.908  30.244  25.781  0.0961  0.1180 -0.2824
 3957W        W46973  11.273  11.622  16.424  0.2054 -0.0925 -0.0166
 3958W        W46974  17.454   9.483  13.769  0.1598  0.4083  0.2505
 3959W        W46975   2.153  33.600  18.918  0.2695  0.1666  0.0180
 3960W        W46976  11.705  32.149  14.795  0.0014  0.0725 -0.4818
 3961W        W46977   2.320   5.293  20.195 -0.1143  0.1541 -0.2205
 3962W        W46978  25.364   0.994  20.591 -0.0487  0.1267 -0.0399
 3963W        W46979  30.919   7.209  29.027  0.0773 -0.0081  0.4274
 3964W        W46980   5.271  25.250  21.678  0.0658 -0.1283  0.1468
 3965W        W46981  10.665   0.198  22.899  0.1301  0.0599  0.0425
 3966W        W46982  32.948  11.614  14.633  0.0568  0.0594 -0.0100
 3967W        W46983  20.688  31.533  10.484 -0.2022 -0.2401  0.2176
 3968W        W46984   0.377   2.539  15.102 -0.0546 -0.1585 -0.0360
 3969W        W46985  16.620  30.783  21.168  0.0887 -0.0967 -0.0830
 3970W        W46986   9.427  10.543  22.780 -0.1988 -0.3994  0.2784
 3971W        W46987  21.788  31.430  16.383 -0.0345  0.0738  0.1732
 3972W        W46988   6.498   9.178  19.538 -0.2478  0.1165 -0.1257
 3973W        W46989  24.547   3.793  16.990 -0.0330 -0.1015  0.0794
 3974W        W46990  31.236  19.417   9.792  0.1346  0.0030  0.2996
 3975W        W46991  12.629   1.847   2.641 -0.2979 -0.2124  0.2366
 3976W        W46992  22.860   3.184  26.039 -0.1212 -0.0264 -0.2000
 3977W        W46993  31.320  30.621  18.222  0.0299 -0.2308  0.3709
 3978W        W46994   7.197  11.906  16.918 -0.0209  0.1027  0.3903
 3979W        W46995   7.261  12.868  27.055  0.2426  0.0068  0.2337
 3980W        W46996  21.728   5.966  28.502 -0.5009 -0.0727  0.0890
 3981W        W46997   5.598  11.643  28.577 -0.0715 -0.1385  0.0626
 3982W        W46998  30.855   0.698  17.359  0.0741  0.2663  0.4146
 3983W        W46999  22.927   0.352  16.373  0.0351 -0.1403  0.0137
 3984W        W47000  30.218  26.814  28.941 -0.2437 -0.2217 -0.1651
 3985W        W47001  18.789   7.593  19.537  0.2353  0.1787  0.0263
 3986W        W47002   1.099   5.126  25.683 -0.0802  0.0104  0.3911
 3987W        W47003  10.887  19.655  12.673 -0.1370 -0.2862 -0.1601
 3988W        W47004  15.371   0.736  14.291  0.0139  0.1000  0.1554
 3989W        W47005  32.431   4.574  18.300  0.4952  0.0468 -0.5002
 3990W        W47006  27.530  12.805  20.117 -0.1786  0.0852  0.0718
 3991W        W47007   8.464  27.943  27.215 -0.1922 -0.0789  0.0560
 3992W        W47008  11.490  11.655  13.113 -0.2392 -0.0275 -0.2045
 3993W        W47009   9.985  27.146  13.678  0.0490  0.0391  0.0421
 3994W        W47010  16.596  32.721  22.919 -0.0123 -0.2134  0.2520
 3995W        W47011  23.771   9.531  28.575 -0.0193  0.2755  0.4078
 3996W        W47012   7.572   1.384  16.461  0.0830  0.3826 -0.3942
 3997W        W47013  33.096  19.422  25.008 -0.0632  0.1430 -0.1165
 3998W        W47014  13.956   6.100  20.130 -0.2166  0.1746 -0.1499
 3999W        W47015  28.993  21.846  23.256  0.0828 -0.2491 -0.3624
 4000W        W47016   2.056   4.597  18.830  0.0952  0.0295 -0.2039
 4001W        W47017  26.677   5.452   0.467  0.2157 -0.0945 -0.1431
 4002W        W47018  11.892  30.320  23.327  0.0676 -0.2917 -0.1706
 4003W        W47019   4.697  23.158  15.613 -0.1344  0.1455  0.0068
 4004W        W47020  11.336  33.885  15.143  0.4630  0.3100 -0.0442
 4005W        W47021  34.562  24.537  20.650  0.0243  0.0007 -0.0938
 4006W        W47022  20.863  10.250  23.920  0.0040  0.0545 -0.0254
 4007W        W47023  17.560  13.154  27.198 -0.0547 -0.0648 -0.2318
 4008W        W47024   2.203  11.679  14.826  0.0465  0.0445 -0.1001
 4009W        W47025   1.582   4.368  18.720 -0.1414  0.0802  0.1903
 4010W        W47026   4.537  28.892  25.596 -0.0676  0.0921  0.0672
 4011W        W47027  26.862  24.203  24.906  0.2206  0.0109 -0.0686
 4012W        W47028  29.731  30.681  21.012 -0.1502  0.0177 -0.0446
 4013W        W47029  32.477   6.729  21.571  0.1864  0.1902  0.1312
 4014W        W47030   0.853   6.991  20.126  0.1948  0.1303 -0.0699
 4015W        W47031   1.058   1.765  19.782 -0.1308 -0.1645  0.3830
 4016W        W47032  25.812  15.211  17.037 -0.1396 -0.0792 -0.2679
 4017W        W47033  28.811  23.964  22.094  0.0712 -0.0676 -0.1624
 4018W        W47034  26.595   6.814   2.252  0.0819 -0.1245  0.2648
 4019W        W47035   8.838   7.606  17.313  0.2487 -0.4691  0.1023
 4020W        W47036  28.197  33.432  25.569 -0.1389  0.0942  0.0423
 4021W        W47037  30.772   5.225  20.002 -0.1169 -0.3149 -0.2548
 4022W        W47038  10.811  31.311  28.179 -0.3857 -0.0310  0.2396
 4023W        W47039  26.988   2.052  19.836 -0.2124  0.0410  0.1578
 4024W        W47040   8.771   7.308  18.698 -0.2143  0.1339  0.1706
 4025W        W47041  31.071  34.250  23.839 -0.0866 -0.2091  0.0369
 4026W        W47042   0.157   6.422  15.092 -0.1198  0.2347 -0.2192
 4027W        W47043  31.252   4.475  17.814 -0.0258 -0.3625  0.1314
 4028W        W47044  14.724  24.140  13.061 -0.1947 -0.2241 -0.0177
 4029W        W47045  31.502  14.102  23.396 -0.3036 -0.2988 -0.2246
 4030W        W47046  32.603  13.894  16.197 -0.4505  0.1941 -0.1018
 4031W        W47047   2.448   1.412  16.555 -0.2021 -0.0153  0.5207
 4032W        W47048   6.201   4.794  16.045  0.2352 -0.3719  0.4004
 4033W        W47049  31.676  17.226  19.304  0.3016  0.1968 -0.1640
 4034W        W47050  18.831   8.943  18.171 -0.1453 -0.2986  0.1338
 4035W        W47051  30.921   3.275  15.854  0.2113 -0.1329  0.0795
 4036W        W47052  29.040   3.774  20.244 -0.0011  0.0206  0.1767
 4037W        W47053   6.416  16.124  16.967  0.1671 -0.0156  0.0220
 4038W        W47054  33.932   2.501  18.488  0.1438 -0.0447  0.0548
 4039W        W47055   4.976  26.322  17.130 -0.0717 -0.2771 -0.1174
 4040W        W47056  30.374  32.021  18.377 -0.1147 -0.2437 -0.0652
 4041W        W47057   9.051  30.133  18.554 -0.0423 -0.2785 -0.3807
 4042W        W47058   3.081   5.682  23.046 -0.2473  0.2032 -0.1073
 4043W        W47059  25.791   9.066  24.782 -0.1721 -0.0043  0.0769
 4044W        W47060  32.833   4.558  15.497 -0.1555  0.3335  0.2734
 4045W        W47061   2.276  33.710  19.382 -0.3006  0.3409  0.0794
 4046W        W47062   0.541   9.983  28.153 -0.1234  0.0508  0.1284
 4047W        W47063  15.571   2.899  20.060  0.1944  0.0242 -0.1205
 4048W        W47064   7.167   3.701  17.565 -0.2096 -0.2360 -0.0767
 4049W        W47065  32.784  18.771  21.478 -0.1420  0.2812 -0.2759
 4050W        W47066   5.524  32.707  21.322 -0.0511 -0.0998  0.0184
 4051W        W47067  34.173  28.136  20.826  0.0502 -0.0212  0.0520
 4052W        W47068  24.215   8.891  25.396 -0.2759  0.1232 -0.0833
 4053W        W47069   7.346   4.076  15.662 -0.0161  0.2708 -0.3118
 4054W        W47070  22.163   5.967  19.360  0.1733  0.0594  0.2342
 4055W        W47071   2.798  28.337  16.782  0.0065 -0.0646  0.0271
 4056W        W47072   9.485  34.261  22.623  0.0475  0.2403 -0.2970
 4057W        W47073   5.562  12.382  18.185 -0.1467  0.2621  0.0612
 4058W        W47074  12.250   4.937   1.480 -0.2152  0.2310 -0.0412
 4059W        W47075  10.047  22.090  16.543  0.0209 -0.0828  0.0425
 4060W        W47076   1.013   8.789  23.333 -0.0197  0.3976  0.3437
 4061W        W47077  20.783   6.134  26.209 -0.1788  0.2172 -0.2381
 4062W        W47078   7.566  21.115  27.028  0.0004  0.2422  0.1180
 4063W        W47079   5.495  25.980  19.258 -0.1491 -0.0932 -0.1435
 4064W        W47080   5.396   0.442  18.603  0.1461 -0.2131  0.2093
 4065W        W47081  10.228  17.993   5.683  0.0225  0.1222 -0.0515
 4066W        W47082  27.338  31.260  24.128 -0.0672 -0.3049 -0.0813
 4067W        W47083  26.227   6.010  25.568  0.1088  0.2574  0.1347
 4068W        W47084   9.678   1.116  15.989  0.1260  0.1226  0.5070
 4069W        W47085   4.202  25.452  20.604  0.3334 -0.0769 -0.2623
 4070W        W47086   0.935  23.779  22.341 -0.2527 -0.0402 -0.0327
 4071W        W47087  33.301   9.948  27.262 -0.0327 -0.1157 -0.0255
 4072W        W47088   2.110  24.806  25.482  0.2884  0.0832  0.2536
 4073W        W47089  34.375   2.138  15.194 -0.1323 -0.3654 -0.1538
 4074W        W47090   9.082  11.182  18.877  0.0297  0.0195  0.2116
 4075W        W47091  33.856  25.981  23.526 -0.0675 -0.1525  0.2604
 4076W        W47092   1.583   8.644  14.546 -0.2100  0.0482 -0.0552
 4077W        W47093  34.715   1.410  23.106  0.0321 -0.2237 -0.0992
 4078W        W47094  24.771   4.751  17.222 -0.2786  0.0607  0.2588
 4079W        W47095  34.263  33.043  20.563 -0.0419  0.0117  0.1602
 4080W        W47096  12.703  20.522  15.291  0.1163  0.2203 -0.0978
 4081W        W47097  23.148   5.170  23.492  0.1248  0.0244 -0.0103
 4082W        W47098   0.529   7.620  17.814  0.1291 -0.0179  0.1375
 4083W        W47099  34.648   7.541  19.951 -0.0320  0.0798 -0.1544
 4084W        W47100   6.784  31.340  25.845 -0.2933 -0.0607  0.2058
 4085W        W47101   3.284  29.323  24.946 -0.1433 -0.2480 -0.0530
 4086W        W47102   9.551  11.367  25.599  0.1435 -0.1950  0.2088
 4087W        W47103   6.666   0.458  29.311 -0.0538  0.1637  0.0466
 4088W        W47104   5.793   2.944  19.864 -0.2864 -0.0215  0.1429
 4089W        W47105  24.152   5.405  19.896  0.1420 -0.2224  0.1811
 4090W        W47106  16.309  32.297   2.369 -0.0696 -0.2105 -0.3403
 4091W        W47107   2.696   4.131  23.669 -0.0670  0.2308 -0.1691
 4092W        W47108   7.480  24.124  14.635 -0.2910  0.0052 -0.0879
 4093W        W47109   2.896  10.264  19.318 -0.0707  0.0188 -0.1164
 4094W        W47110  20.916  32.203   3.718 -0.0832  0.0888  0.1711
 4095W        W47111  34.474   4.815  16.558 -0.0991 -0.2490 -0.0255
 4096W        W47112  30.147   3.693   6.573  0.0374 -0.0445  0.1548
 4097W        W47113  28.854  18.199  17.558 -0.1576 -0.2400 -0.3525
 4098W        W47114  32.268   2.442   1.087  0.1296 -0.2076  0.1047
 4099W        W47115  11.759  23.465  27.326  0.1838  0.2395 -0.3185
 4100W        W47116  19.839   4.639  16.356 -0.4650 -0.1012 -0.2747
 4101W        W47117  18.542  20.876  16.733  0.1362  0.1200  0.1754
 4102W        W47118   4.338   2.600  16.152 -0.0129 -0.0601 -0.1874
 4103W        W47119   6.318  12.188  18.846  0.2044 -0.3861 -0.1314
 4104W        W47120  23.781  21.166  18.114 -0.2435 -0.0503  0.3625
 4105W        W47121  32.297   0.527  26.041 -0.0406 -0.0239  0.0437
 4106W        W47122   4.893  33.530  13.819  0.0410 -0.0790 -0.0557
 4107W        W47123  25.939   1.735  21.927  0.1091 -0.1558  0.0618
 4108W        W47124  16.289   2.069  23.787 -0.0508 -0.2109  0.2239
 4109W        W47125  30.313  33.969  10.614  0.1243  0.2953 -0.0623
 4110W        W47126  19.321  29.057  21.123 -0.2196  0.1803 -0.0468
 4111W        W47127   4.989  21.016  15.158 -0.0245 -0.3869 -0.1565
 4112W        W47128  26.216   5.205  15.897  0.1108 -0.2725  0.1632
 4113W        W47129  25.935   5.539  27.401  0.2061 -0.4048 -0.0304
 4114W        W47130  31.030   2.307  16.296 -0.2061  0.1585  0.0107
 4115W        W47131   5.894   2.257  14.208 -0.1991  0.2417  0.1773
 4116W        W47132   4.802  14.684  13.368  0.3331  0.2048  0.3544
 4117W        W47133   2.454  19.892  20.446 -0.2188 -0.1797  0.0706
 4118W        W47134   4.311  27.191  14.561  0.2327  0.2728  0.3558
 4119W        W47135   1.886  12.643  17.470 -0.0912 -0.2627 -0.4658
 4120W        W47136   1.042  26.299  15.727 -0.2715  0.0066  0.0704
 4121W        W47137  34.624   0.038  14.949 -0.0067 -0.1792  0.2225
 4122W        W47138   2.166  28.180   2.489  0.1400  0.0797 -0.3277
 4123W        W47139  33.709  19.453  23.940  0.0838 -0.1629 -0.0362
 4124W        W47140  20.998   8.915  21.122 -0.0370 -0.1397  0.0857
 4125W        W47141   6.146   7.001  27.860  0.2012 -0.1527  0.2085
 4126W        W47142   5.129  24.309  19.747  0.0146  0.0502 -0.2936
 4127W        W47143  18.069   1.318  14.266 -0.0142 -0.1489  0.1711
 4128W        W47144  31.140  16.678  19.972 -0.0279 -0.0240  0.0900
 4129W        W47145  25.647  28.352  20.641 -0.1654  0.1888 -0.0357
 4130W        W47146  14.275  29.948  27.471  0.1689 -0.1865  0.1357
 4131W        W47147  10.095   3.297  16.125 -0.0989 -0.1424 -0.0186
 4132W        W47148  30.997  33.075  28.793  0.3193 -0.0246  0.2722
 4133W        W47149  30.044  22.744  26.524  0.0836  0.2112 -0.1196
 4134W        W47150  10.836  16.240  27.657  0.1112 -0.0427  0.0331
 4135W        W47151  13.691  34.725  19.176 -0.0902  0.0757 -0.3813
 4136W        W47152  32.062  10.049  20.770 -0.1626 -0.0482  0.2444
 4137W        W47153  29.446  11.934  17.332  0.3946 -0.1040 -0.0321
 4138W        W47154  27.925   5.077  15.339  0.0981  0.1779  0.0904
 4139W        W47155   3.554  29.264   0.268  0.2351  0.3487 -0.2007
 4140W        W47156   5.047  27.218   7.495  0.2070 -0.1672 -0.3472
 4141W        W47157   7.790   0.570  17.133 -0.1874  0.0093 -0.2555
 4142W        W47158  33.306   7.614  16.805  0.0890  0.2299 -0.2628
 4143W        W47159   1.640  33.238   2.355 -0.2202  0.1618  0.0169
 4144W        W47160  13.202   2.050  19.544 -0.1535  0.0411 -0.1707
 4145W        W47161   2.872  32.225  25.719 -0.1587 -0.3238  0.1078
 4146W        W47162  16.050  33.093  21.868  0.0619 -0.0571  0.3041
 4147W        W47163   8.484  32.685  20.410  0.1969 -0.2761  0.2671
 4148W        W47164  34.516  24.112  17.722 -0.2284 -0.0941 -0.2460
 4149W        W47165   0.215  32.390  24.060 -0.1606  0.1888  0.0559
 4150W        W47166  13.343  11.717  13.315 -0.2545 -0.2318  0.1185
 4151W        W47167  33.746  25.141  17.325  0.0008 -0.1281  0.1489
 4152W        W47168  21.938  27.718  17.006  0.1820 -0.0106  0.2145
 4153W        W47169  14.783   9.731  17.186  0.2914 -0.2582  0.3216
 4154W        W47170   1.659  10.974  22.405  0.1501  0.1870  0.0189
 4155W        W47171  11.227  17.361  27.978  0.0269 -0.0697  0.0509
 4156W        W47172   5.383  24.139  17.846 -0.1189 -0.2876 -0.0699
 4157W        W47173  25.585  20.626  14.315  0.1061 -0.3720  0.1370
 4158W        W47174  31.144   7.220  24.618 -0.0326  0.3886  0.2154
 4159W        W47175   4.749   8.467  17.985 -0.0650 -0.1407  0.0545
 4160W        W47176   1.783   4.046  25.305 -0.1343  0.1017  0.1805
 4161W        W47177  28.474   8.800   5.015  0.0337 -0.5263 -0.4158
 4162W        W47178  27.257   5.508  26.606 -0.3161 -0.1760  0.3641
 4163W        W47179   1.658   2.496  24.225  0.0732  0.5378 -0.1822
 4164W        W47180  32.678   6.240  21.007  0.1408 -0.0772 -0.0425
 4165W        W47181   4.386  31.747  15.679  0.3071  0.1174 -0.2862
 4166W        W47182   4.533  13.538  20.645  0.2676 -0.0263 -0.1307
 4167W        W47183  11.455  29.236   5.554  0.1385 -0.0821  0.0353
 4168W        W47184  27.175  15.487   3.084 -0.0924  0.1143 -0.1281
 4169W        W47185  31.440   6.798  26.996 -0.1223 -0.2487 -0.1542
 4170W        W47186  32.254  33.238  16.977  0.1163  0.0878 -0.0909
 4171W        W47187   6.779  32.694  18.561  0.0713  0.0152  0.1200
 4172W        W47188   8.713  10.778   0.200 -0.1302 -0.2861 -0.0643
 4173W        W47189  31.416   8.349  20.499 -0.1397  0.1273  0.1235
 4174W        W47190  26.935  11.933  19.174 -0.1623  0.0968 -0.3261
 4175W        W47191  13.683  13.296  14.540 -0.1569 -0.0554  0.4571
 4176W        W47192   5.044  15.156  21.145  0.1056 -0.0962  0.0330
 4177W        W47193   3.819  11.422  21.456  0.1456  0.0217  0.1141
 4178W        W47194  23.490  30.381  27.099  0.2049  0.1641  0.1776
 4179W        W47195  30.572   3.511  22.569 -0.0145  0.1631 -0.0845
 4180W        W47196  26.944  15.832  22.638 -0.0941 -0.2099 -0.1428
 4181W        W47197  11.438  13.988  26.394 -0.2805  0.1236  0.2159
 4182W        W47198   8.823   1.585  15.874 -0.1323  0.1385 -0.0610
 4183W        W47199   0.096   4.977  16.112  0.0674  0.1156  0.1033
 4184W        W47200  12.919   6.322  13.562  0.2354  0.1474  0.1262
 4185W        W47201  11.537  29.507  20.233  0.0432 -0.0552 -0.2073
 4186W        W47202   1.747  23.312  23.927 -0.0752 -0.0078 -0.5943
 4187W        W47203  25.427  32.791  17.067  0.0510  0.0956 -0.0804
 4188W        W47204  28.539   6.205  20.533  0.1732  0.2006  0.3653
 4189W        W47205  33.157  27.037  20.304 -0.2030 -0.0369  0.0130
 4190W        W47206  24.650   3.743  15.785  0.4269  0.0412 -0.0664
 4191W        W47207   9.320  15.820  15.159 -0.3668  0.1998  0.0376
 4192W        W47208   1.389  10.292  18.758  0.2693 -0.0712  0.0035
 4193W        W47209  29.429   7.786  28.293  0.1273  0.0517  0.0802
 4194W        W47210   9.627  21.656  19.814 -0.0513  0.0583  0.3829
 4195W        W47211  24.724  31.805  15.329  0.1327  0.2392 -0.0241
 4196W        W47212  21.671  27.531  17.955  0.0845  0.0137 -0.1559
 4197W        W47213   2.155  12.503  15.721 -0.1943  0.1412 -0.1985
 4198W        W47214   1.637  10.532  19.866  0.1853 -0.0025  0.0966
 4199W        W47215  33.607  11.368   1.245 -0.0368  0.1990  0.0732
 4200W        W47216  28.170   6.655  16.394 -0.0780  0.1357 -0.1442
 4201W        W47217  12.553   6.961  24.461 -0.0730  0.1122  0.0584
 4202W        W47218  29.726  27.388  18.899  0.0154 -0.0574  0.3523
 4203W        W47219   1.376   1.592  15.995 -0.2118 -0.1812 -0.1047
 4204W        W47220  10.714  31.999  21.926  0.1814 -0.0478 -0.1360
 4205W        W47221  31.363   3.268  29.111  0.0641 -0.1515  0.1031
 4206W        W47222  31.465   8.008  16.217 -0.0556  0.0284  0.0406
 4207W        W47223  31.793  11.875  27.543  0.0357 -0.0119  0.2454
 4208W        W47224  13.795   4.166  20.050 -0.0968  0.2089 -0.1053
 4209W        W47225  25.052   0.581  21.049  0.1050  0.0372  0.0176
 4210W        W47226   8.085  28.323  20.969 -0.2838 -0.0318  0.0994
 4211W        W47227   4.325   7.722   0.845  0.0128 -0.4333  0.3434
 4212W        W47228  18.660  28.198  14.534  0.1328  0.1251 -0.0681
 4213W        W47229  31.896  33.083  21.146 -0.1381  0.0222  0.1118
 4214W        W47230   9.441   2.739  23.308  0.0096 -0.0240 -0.0369
 4215W        W47231  16.633  26.187  27.783  0.1374  0.1174  0.0508
 4216W        W47232   9.494  30.393   2.797  0.0432  0.1084  0.0069
 4217W        W47233  19.281  13.735  27.826  0.5471 -0.0110  0.0101
 4218W        W47234   4.416  30.990  23.398 -0.2404  0.2534 -0.2220
 4219W        W47235  14.537   0.647  17.461  0.1224  0.3828  0.1873
 4220W        W47236   4.323  28.392  19.968 -0.0471  0.2172 -0.1517
 4221W        W47237  28.441   2.796  26.280  0.0882 -0.4170 -0.1085
 4222W        W47238  34.709   2.661  16.338  0.1903  0.3016  0.0417
 4223W        W47239  16.555  28.055  19.960  0.0017 -0.1096  0.1486
 4224W        W47240   3.942  17.616  12.983  0.0745  0.0033  0.3792
 4225W        W47241  28.593  15.728  18.727 -0.1561  0.3387 -0.0323
 4226W        W47242   4.076   5.151  19.448 -0.3371  0.1423 -0.3577
 4227W        W47243  20.504   0.708  16.096  0.1697 -0.1956  0.1388
 4228W        W47244  27.190  12.926  14.102 -0.2094  0.1619 -0.3169
 4229W        W47245   5.087   2.541  20.052  0.0089 -0.0834 -0.2450
 4230W        W47246  22.151   7.216  14.417  0.1724 -0.0679 -0.1264
 4231W        W47247  25.061  28.259  27.523 -0.1167  0.1539  0.0854
 4232W        W47248   5.070  30.945  15.895  0.0542 -0.1057 -0.0530
 4233W        W47249  26.912   8.305   1.285 -0.0542  0.1740  0.0638
 4234W        W47250  20.423  33.289  22.133 -0.3446 -0.0557 -0.0587
 4235W        W47251   4.203  33.506   0.171  0.2185  0.3206  0.1697
 4236W        W47252  12.490  33.154  23.987  0.0427  0.4161  0.0260
 4237W        W47253  30.189   5.611  14.471  0.0166 -0.3504  0.0669
 4238W        W47254  15.399  17.996  24.184  0.0715  0.0147  0.0241
 4239W        W47255   9.298   3.403  24.470 -0.1231  0.1585  0.0587
 4240W        W47256   8.847  28.313   1.782  0.0934  0.1805  0.0760
 4241W        W47257  29.613  34.374  26.573  0.3209 -0.1784  0.4774
 4242W        W47258  33.350  10.601  17.461 -0.0967  0.0474  0.0515
 4243W        W47259  21.890   6.241  17.657  0.2117 -0.2825  0.3092
 4244W        W47260  30.067   5.486  18.648 -0.0722 -0.2467 -0.3047
 4245W        W47261   0.796  22.728  21.472 -0.1877  0.2338 -0.0618
 4246W        W47262  34.288   8.332  21.003  0.0522 -0.0480 -0.1296
 4247W        W47263   6.861  29.797  24.580 -0.2010 -0.1893  0.3318
 4248W        W47264   2.022  18.212  20.089  0.2493  0.0685 -0.0197
 4249W        W47265  31.741   7.073  26.124  0.3826  0.3112 -0.2321
 4250W        W47266   7.652   7.724  20.098 -0.5667 -0.2045 -0.4609
 4251W        W47267  27.226  29.104   0.159 -0.2886 -0.1461  0.1097
 4252W        W47268  30.576  12.621   0.803  0.0171  0.1304 -0.1143
 4253W        W47269  16.703  29.607  22.979 -0.2082  0.1551  0.4789
 4254W        W47270  32.528  11.669  15.627 -0.4373 -0.2690  0.3825
 4255W        W47271  25.213   4.981  21.883  0.0135  0.1127  0.0905
 4256W        W47272   2.292   5.951  18.653  0.2133 -0.0018  0.2264
 4257W        W47273   4.090  12.388  28.128 -0.0499  0.1984 -0.2390
 4258W        W47274   9.679   4.664  15.831  0.0652 -0.1248  0.1099
 4259W        W47275  20.278   8.882  15.154 -0.1005  0.0171  0.1663
 4260W        W47276   4.215   4.389  24.021  0.2198  0.2128 -0.1017
 4261W        W47277  10.526   2.151  22.017  0.2606  0.1948  0.1046
 4262W        W47278  22.306  34.118   9.336 -0.0208 -0.0003  0.3994
 4263W        W47279  30.784   7.496  17.884 -0.0767 -0.0749 -0.0238
 4264W        W47280   0.367   4.887  28.104  0.0720  0.0133 -0.0400
 4265W        W47281  34.602  15.176  18.155  0.2682 -0.1245 -0.0240
 4266W        W47282   8.370   7.969  25.414  0.0882  0.2005 -0.2453
 4267W        W47283   7.124  20.809  18.782  0.3146 -0.1383  0.2483
 4268W        W47284  11.511  13.951  13.301 -0.0707 -0.0400  0.0489
 4269W        W47285  30.726   6.009  20.643 -0.0808  0.0406  0.0646
 4270W        W47286  31.252   0.328   3.082  0.0391 -0.2141 -0.2554
 4271W        W47287   6.972   3.542  21.597 -0.0092 -0.1484 -0.2993
 4272W        W47288  32.667  12.664  28.567  0.0470 -0.1156 -0.3664
 4273W        W47289  34.454   5.834  23.402 -0.0499 -0.0250 -0.1513
 4274W        W47290   4.977  16.838  15.050 -0.0574 -0.0789 -0.1454
 4275W        W47291   1.451   7.281   5.654 -0.1159 -0.0163  0.1410
 4276W        W47292  26.185   2.637  17.362  0.4180  0.0910  0.1236
 4277W        W47293  12.835  15.076  26.226 -0.2044 -0.1382  0.0411
 4278W        W47294   5.453  25.458  18.209 -0.1600 -0.0708  0.0309
 4279W        W47295   9.881   1.917  17.645  0.6734 -0.1020 -0.0121
 4280W        W47296   2.942  25.561  16.388  0.0102 -0.2253  0.0604
 4281W        W47297  34.561  32.828  28.075  0.3002  0.2878 -0.0253
 4282W        W47298   0.770   6.233  18.617 -0.0044  0.1524 -0.1572
 4283W        W47299  27.465  10.380  17.029  0.1271 -0.0442 -0.0572
 4284W        W47300   2.000  24.140  25.579 -0.1228 -0.0223 -0.0746
 4285W        W47301  24.974   3.521  22.352  0.3982 -0.1219 -0.3324
 4286W        W47302  22.047  27.914  25.216 -0.2708  0.1676  0.1694
 4287W        W47303  26.224  10.425  20.260 -0.1525 -0.1261  0.1377
 4288W        W47304   5.595  27.418  13.863 -0.0266 -0.1362  0.1332
 4289W        W47305  31.417  30.011   8.909 -0.2094 -0.0568  0.2570
 4290W        W47306  27.452  11.423  23.720 -0.3992  0.2031 -0.2855
 4291W        W47307   2.851  28.488  20.783  0.1078  0.4093  0.1788
 4292W        W47308   3.233  28.565  21.963 -0.0484  0.3573  0.1501
 4293W        W47309   0.007  19.446  20.081 -0.0349  0.1432  0.1386
 4294W        W47310  14.142   0.344  20.053  0.2183  0.1233 -0.2671
 4295W        W47311   5.443  13.282  17.220  0.1864  0.3208  0.2406
 4296W        W47312   1.854   4.219  23.094 -0.1932 -0.3111  0.0127
 4297W        W47313   4.377  24.012  17.104  0.0767  0.0192  0.0050
 4298W        W47314  14.890   0.069  18.321 -0.2806  0.0103 -0.0489
 4299W        W47315   4.534   2.729  14.204  0.1430  0.2157 -0.0681
 4300W        W47316   0.601  32.315  19.088 -0.1281  0.0688 -0.3145
 4301W        W47317   2.903  33.648  18.466  0.3402  0.2607 -0.0714
 4302W        W47318  26.053  29.716  26.587 -0.0769  0.0313 -0.0782
 4303W        W47319  32.945  32.149   1.691 -0.0723  0.1354  0.1290
 4304W        W47320   4.897   0.432  19.368 -0.0495 -0.0724 -0.2089
 4305W        W47321   9.710  17.592  16.333  0.2637  0.0925 -0.0719
 4306W        W47322  30.451  12.156  22.365 -0.0003 -0.0213  0.2886
 4307W        W47323   0.554  22.451  15.633 -0.4800 -0.2293  0.0256
 4308W        W47324  23.397   7.836  19.007  0.0281 -0.2730 -0.2239
 4309W        W47325  14.747  12.273  21.505  0.1866 -0.3938  0.0731
 4310W        W47326  19.892   8.794  29.152 -0.0517  0.0977  0.1206
 4311W        W47327   8.753  20.377  17.921 -0.1226  0.0832  0.0348
 4312W        W47328   4.596  11.761  19.018  0.0628  0.0620  0.3345
 4313W        W47329   3.961  26.200  15.629 -0.1300 -0.4007 -0.1705
 4314W        W47330   6.244  28.157   2.637  0.0280  0.2107  0.6390
 4315W        W47331   1.302  32.839  15.516  0.1062 -0.1270  0.1242
 4316W        W47332   9.387  33.400   0.870  0.2068  0.1146  0.2784
 4317W        W47333   2.914  12.681  21.941  0.1714 -0.3603  0.1526
 4318W        W47334  32.235  32.596  26.747  0.1218  0.0784  0.1018
 4319W        W47335  20.911   1.596  17.332 -0.2120  0.1191 -0.1504
 4320W        W47336  22.837   5.659  21.280 -0.2346 -0.2312 -0.0062
 4321W        W47337  12.161  31.074  16.581  0.2732  0.0934 -0.0672
 4322W        W47338  21.129   0.069  26.037  0.1950  0.1282  0.1117
 4323W        W47339  10.577  25.047  15.697 -0.0922 -0.1457  0.0121
 4324W        W47340   7.255   7.471  16.561  0.1018  0.1771 -0.0151
 4325W        W47341  28.023  31.881   0.829  0.0095 -0.4035  0.0741
 4326W        W47342   7.998  10.594   4.856  0.0304 -0.0503 -0.2745
 4327W        W47343  27.624   5.503  15.849  0.2850  0.1812  0.2846
 4328W        W47344  27.681  13.447  25.022  0.2957  0.2795 -0.2089
 4329W        W47345  28.231   8.845  27.988  0.0663  0.3927 -0.0469
 4330W        W47346  18.110  31.533  19.017  0.2410 -0.0771  0.0765
 4331W        W47347   2.628  11.455  14.903  0.0938 -0.0316 -0.2621
 4332W        W47348  10.251  22.047  22.050 -0.2705 -0.0446  0.0747
 4333W        W47349   6.820  32.640  25.635 -0.1141 -0.1906  0.0986
 4334W        W47350  28.079  25.523  24.957  0.0530  0.0107 -0.0755
 4335W        W47351   1.233   4.180  15.496  0.1139 -0.1474 -0.1222
 4336W        W47352  34.243  30.926  24.000  0.0368  0.1376 -0.2144
 4337W        W47353  14.980  10.884  22.231  0.4774 -0.0528  0.1971
 4338W        W47354  31.896   4.218  20.596  0.3583 -0.1116  0.0318
 4339W        W47355  14.437   4.974  24.166  0.2122 -0.1446  0.0748
 4340W        W47356  17.704   4.487  25.295  0.2474  0.1568 -0.0848
 4341W        W47357   5.682  33.184  14.711 -0.2542  0.0579  0.0190
 4342W        W47358  30.415  26.127  15.341 -0.1352 -0.2658  0.1794
 4343W        W47359   8.489   7.270  21.444 -0.3021 -0.1916 -0.1560
 4344W        W47360  25.132   9.349  15.565  0.1561  0.0112 -0.2429
 4345W        W47361   5.614   7.012   2.046 -0.0440  0.3273 -0.0798
 4346W        W47362  33.853   3.803  15.342  0.2932 -0.1557  0.0456
 4347W        W47363  17.787  12.652  26.882  0.3458  0.0906 -0.0461
 4348W        W47364   1.408  19.893  14.761 -0.0059  0.0672 -0.0039
 4349W        W47365   8.418  32.472  27.395  0.0745 -0.1858 -0.1740
 4350W        W47366   0.877   2.425  25.451 -0.1861  0.0390 -0.0524
 4351W        W47367  28.247  34.251  18.328 -0.0241 -0.2942  0.0289
 4352W        W47368   3.943  33.522  16.342 -0.2977  0.3170  0.3404
 4353W        W47369   2.988  26.434  13.741 -0.0955 -0.0423  0.0898
 4354W        W47370   2.495  13.555   4.710  0.1529  0.0512  0.1584
 4355W        W47371  33.448  26.890   7.571  0.3708 -0.0489 -0.4304
 4356W        W47372  30.627  17.433  24.461  0.0021 -0.2544  0.1342
 4357W        W47373  28.223   1.709  28.706 -0.2304 -0.1900 -0.0091
 4358W        W47374   0.879   6.177  16.197 -0.0832 -0.0970 -0.1055
 4359W        W47375   0.130   4.174  24.316  0.1726 -0.0805 -0.2321
 4360W        W47376  33.782  27.432  18.487 -0.2858  0.1114  0.1211
 4361W        W47377  11.804  31.256  24.407  0.2486 -0.0930 -0.0585
 4362W        W47378   4.210  33.981  22.354  0.0609  0.1297 -0.0718
 4363W        W47379  32.311  26.032   9.820 -0.1972  0.0176  0.0368
 4364W        W47380  29.336  14.047  24.016 -0.4932  0.0612 -0.0337
 4365W        W47381   7.205  32.961  28.082 -0.3699  0.2251 -0.0682
 4366W        W47382  20.197  31.673   3.236 -0.0098  0.0269 -0.1521
 4367W        W47383  10.658   2.593  16.387  0.3189 -0.2832 -0.3126
 4368W        W47384  25.969  18.843  22.926  0.0663 -0.3878 -0.0995
 4369W        W47385   0.922   6.095  14.560 -0.0093 -0.1267  0.1150
 4370W        W47386  26.266   9.956  24.684  0.1554  0.1055  0.0295
 4371W        W47387  28.483  32.217   4.591 -0.1060 -0.2227  0.0419
 4372W        W47388  29.875   4.582  27.438 -0.1592 -0.1341 -0.0219
 4373W        W47389  14.444  31.988  21.381  0.0446 -0.1377 -0.3290
 4374W        W47390   1.370  31.385  23.336  0.1449  0.2975  0.3356
 4375W        W47391  28.134  22.538  21.644 -0.0216 -0.0366 -0.0088
 4376W        W47392  15.261  33.691  17.527  0.3287 -0.0047  0.2310
 4377W        W47393  12.070  34.542  14.975  0.4940  0.0600  0.2951
 4378W        W47394   4.468   6.473  15.054 -0.1116  0.1373  0.0898
 4379W        W47395   0.092  33.389  14.594 -0.1552  0.2635 -0.2691
 4380W        W47396  13.306   8.375  17.300  0.0221 -0.2827 -0.0121
 4381W        W47397   5.922   2.299  18.622  0.0708 -0.3053  0.1387
 4382W        W47398  27.661   5.527  25.116 -0.0794  0.0038 -0.0443
 4383W        W47399   1.505   9.168  21.809  0.0591  0.3017  0.0637
 4384W        W47400  19.334  24.100   6.567 -0.2287 -0.1722 -0.1686
 4385W        W47401  21.277  12.219  19.276  0.1449  0.0262 -0.3910
 4386W        W47402  17.192  22.709   6.722 -0.1345 -0.1574 -0.2027
 4387W        W47403  34.585   5.818  20.453 -0.3527 -0.0175 -0.0722
 4388W        W47404  29.763   3.190  15.294  0.1447 -0.0479  0.4312
 4389W        W47405  29.778   2.986   8.334  0.2110 -0.0179  0.1351
 4390W        W47406   9.730   2.375  20.844 -0.0589  0.0546 -0.0133
 4391W        W47407  18.557  31.980  23.547  0.1116  0.0022  0.1181
 4392W        W47408  20.848   7.654  17.063 -0.1816 -0.1523  0.0557
 4393W        W47409   6.357  16.074  22.995 -0.2409  0.1789  0.0465
 4394W        W47410   5.006  18.497  18.082  0.3030 -0.1404  0.0001
 4395W        W47411   7.911  34.157  15.533 -0.2042 -0.0392  0.2475
 4396W        W47412   1.864  14.364  16.814 -0.2281 -0.0422 -0.0550
 4397W        W47413  13.535   1.358  16.140 -0.1545  0.0971 -0.0141
 4398W        W47414   2.024   6.860  18.397 -0.0518  0.3971 -0.2368
 4399W        W47415   2.178   6.658  21.184  0.4777 -0.0197  0.2991
 4400W        W47416  31.970  10.283   0.549  0.2216 -0.1433  0.0259
 4401W        W47417  34.552  17.819  21.033  0.3379  0.0629  0.0588
 4402W        W47418  15.200  25.324  20.682 -0.1113 -0.1732  0.4214
 4403W        W47419   5.098  13.638  14.129 -0.1250 -0.0077  0.4186
 4404W        W47420  29.984   0.184   8.936  0.0831 -0.0569 -0.0764
 4405W        W47421  11.089  21.695  12.222  0.3237 -0.2020  0.1027
 4406W        W47422  12.262  29.477  22.285 -0.0319 -0.0507 -0.0814
 4407W        W47423  25.643  12.942  25.408  0.0710  0.0897 -0.0665
 4408W        W47424  18.375  20.283   4.188  0.0922  0.2000 -0.0271
 4409W        W47425  30.578  13.566  16.955  0.2069  0.4155  0.0465
 4410W        W47426   9.709  27.816   0.938  0.0454 -0.0776 -0.1537
 4411W        W47427  33.344  15.306  26.493  0.3878 -0.2368 -0.1424
 4412W        W47428  23.398   9.701  26.111  0.1907 -0.0275 -0.1356
 4413W        W47429  19.561  33.559  16.589 -0.3156 -0.0530 -0.2652
 4414W        W47430  31.783  32.504  17.969 -0.1485  0.0416  0.0573
 4415W        W47431   4.624   9.334  22.438 -0.0556 -0.1416  0.1246
 4416W        W47432  23.061  30.498  15.635  0.0637 -0.3113  0.0521
 4417W        W47433  27.442   0.996   4.001 -0.1042  0.2054  0.2890
 4418W        W47434   7.715  23.616  13.429  0.0809  0.1859 -0.0473
 4419W        W47435  18.299   0.499  14.786  0.0650  0.0302 -0.0425
 4420W        W47436  12.461   7.388  29.116  0.1386 -0.3039 -0.2456
 4421W        W47437   5.786  31.250  17.358  0.0165  0.2284  0.1171
 4422W        W47438   1.465   0.167  24.356  0.1096  0.0633  0.1863
 4423W        W47439  25.254   9.834  24.022  0.3579 -0.0637 -0.1616
 4424W        W47440   5.990   9.545  24.616 -0.0270 -0.0849 -0.0256
 4425W        W47441   7.787   4.235  17.658  0.3726 -0.1683  0.2785
 4426W        W47442  32.730   1.254  26.939 -0.1347 -0.1490 -0.0314
 4427W        W47443  31.152  25.106  19.229  0.3867 -0.0149 -0.0538
 4428W        W47444   2.348  12.166  23.930 -0.4945  0.1141  0.2326
 4429W        W47445   1.557  15.296  25.820 -0.2220  0.1161  0.0510
 4430W        W47446  11.015   8.632  17.547 -0.1537  0.2086 -0.2541
 4431W        W47447  28.513   5.700  23.259  0.0898  0.0861  0.0288
 4432W        W47448  29.322   6.750  15.555  0.0446 -0.0498  0.0972
 4433W        W47449  10.953  22.511  16.290  0.0031  0.3528 -0.5208
 4434W        W47450  32.844   3.310  16.482  0.2779  0.0418  0.1069
 4435W        W47451  21.222  30.128  28.314  0.0749  0.2309 -0.2707
 4436W        W47452  34.733   1.878  17.164 -0.2063  0.1715 -0.1783
 4437W        W47453   2.587   9.082  24.701 -0.0682  0.0236  0.1649
 4438W        W47454   3.796   1.459   2.249 -0.0654 -0.1079  0.0341
 4439W        W47455  17.189   9.180  22.192 -0.0015 -0.0360 -0.3280
 4440W        W47456  22.257  28.914  27.989 -0.0909 -0.2987  0.0000
 4441W        W47457   9.814   3.149  15.512 -0.0933  0.2630 -0.2360
 4442W        W47458   2.178   6.452  16.871  0.1343  0.0373  0.2192
 4443W        W47459  25.938   5.489  22.952  0.0486 -0.2487  0.0167
 4444W        W47460  31.444  31.663   8.094  0.0856  0.0962 -0.3398
 4445W        W47461   3.912  29.312  26.771 -0.1905 -0.3307  0.4123
 4446W        W47462   9.742  28.941  27.678  0.0428 -0.3853 -0.2439
 4447W        W47463   8.313  24.607  24.083 -0.0616  0.3209  0.0134
 4448W        W47464   1.146  30.087  22.831 -0.0904  0.2286  0.2069
 4449W        W47465   4.020  34.524  17.232  0.2657  0.0423  0.0387
 4450W        W47466  23.284  34.232  28.804 -0.2504  0.2958  0.1908
 4451W        W47467   5.562  15.299  14.510  0.2149 -0.1493  0.0161
 4452W        W47468  29.892  27.162  22.832 -0.0066  0.0930 -0.1146
 4453W        W47469  27.071   7.210  25.343  0.0853  0.2443  0.0431
 4454W        W47470  12.507  24.273  20.867  0.0416  0.0102  0.3152
 4455W        W47471   3.619  29.612  25.232  0.0303 -0.2008  0.1507
 4456W        W47472  19.326  31.111  25.153 -0.0816 -0.1045  0.0182
 4457W        W47473   2.452   8.746  15.371 -0.2053  0.1666 -0.0911
 4458W        W47474  33.033  31.182  15.700 -0.2306  0.1251 -0.2051
 4459W        W47475   7.481   7.037  17.045  0.0922  0.0539  0.2061
 4460W        W47476   5.890  30.675  25.169  0.0476 -0.2065  0.2171
 4461W        W47477  23.109  32.092  20.900  0.1155 -0.1421  0.1716
 4462W        W47478   5.934  30.585  25.865 -0.2257  0.1444  0.1667
 4463W        W47479  16.408  26.653  14.765 -0.3114  0.1516  0.0074
 4464W        W47480  11.339   6.108   8.252  0.0394 -0.0385  0.2884
 4465W        W47481  10.104   1.900  28.754  0.0211 -0.0666  0.1170
 4466W        W47482  16.109   1.892  14.262 -0.1026 -0.4346  0.0799
 4467W        W47483   4.302  29.059  25.186  0.6579  0.3542 -0.1260
 4468W        W47484  29.573   8.959  15.570 -0.1440 -0.0957 -0.1323
 4469W        W47485  10.498  27.598  14.912  0.1826  0.0523  0.2229
 4470W        W47486  32.144   5.982   1.450  0.1411 -0.0793 -0.1717
 4471W        W47487  33.856  13.593  19.156  0.1282  0.1697 -0.1601
 4472W        W47488   9.432  26.398  23.913  0.0853 -0.1534 -0.2575
 4473W        W47489   2.617  33.145   0.529 -0.3276 -0.1620 -0.2355
 4474W        W47490  13.058   5.029  22.784  0.0838  0.0855  0.2100
 4475W        W47491   8.230   6.886  17.567  0.3846  0.0141  0.0225
 4476W        W47492  11.755   2.517  21.865  0.1860 -0.1223 -0.2988
 4477W        W47493  34.041   7.657  22.602 -0.1911  0.0826  0.0554
 4478W        W47494   2.216  13.483  18.284 -0.1939  0.0489  0.1898
 4479W        W47495  21.053   3.126   6.551 -0.1804  0.5240  0.1965
 4480W        W47496  22.317   0.239  22.288  0.1091 -0.1509 -0.2364
 4481W        W47497  11.727   0.231  19.258  0.0762 -0.2211  0.0964
 4482W        W47498  10.082   4.359  20.823  0.0032 -0.2492  0.1666
 4483W        W47499   0.240   4.009  18.384  0.0996  0.3119 -0.0584
 4484W        W47500  30.816  10.624  24.007  0.1014  0.0804 -0.2803
 4485W        W47501  30.812  34.283  19.303  0.0447  0.0721 -0.0121
 4486W        W47502   0.601  10.717  25.653 -0.0871  0.0824  0.0734
 4487W        W47503   4.400   0.781  27.104 -0.2353  0.1865 -0.0014
 4488W        W47504   3.616  34.433  19.718  0.0670  0.3051 -0.1488
 4489W        W47505  16.847  33.924  29.273 -0.0861  0.2542 -0.0235
 4490W        W47506  26.802   7.869  17.543  0.1415  0.2392 -0.0077
 4491W        W47507   1.980   9.071  21.830 -0.0191 -0.1140 -0.0300
 4492W        W47508   0.177  34.687  18.463  0.2699 -0.2721 -0.2413
 4493W        W47509  17.477  24.495  16.845  0.4679 -0.0838  0.0011
 4494W        W47510  28.715  28.473  25.593 -0.2366 -0.0237 -0.0147
 4495W        W47511  26.494  11.432  22.176 -0.1084 -0.0846  0.1126
 4496W        W47512  13.968   1.969  22.170  0.2304 -0.1083  0.4208
 4497W        W47513  14.108  25.689  27.136 -0.2349 -0.2786  0.1960
 4498W        W47514  23.607  27.481   3.322 -0.0281 -0.1407  0.0262
 4499W        W47515   0.885   3.599  14.995  0.1029  0.2229  0.0381
 4500W        W47516  16.954  19.271  22.345 -0.2758 -0.1531  0.4028
 4501W        W47517  31.420  30.903  24.196 -0.1026 -0.2503  0.0068
 4502W        W47518   7.153  31.869  15.108  0.4688 -0.0299  0.0804
 4503W        W47519   1.736  21.641  21.643 -0.2410 -0.4098 -0.1113
 4504W        W47520  32.679  15.379  14.996  0.1848 -0.2026 -0.0876
 4505W        W47521  26.202   7.107  25.421 -0.0047  0.0506 -0.1192
 4506W        W47522  14.634   5.305  19.756  0.0793 -0.2612 -0.1233
 4507W        W47523  34.138   7.494  15.639 -0.0896 -0.0527 -0.2624
 4508W        W47524  31.353   9.045   0.270  0.1381  0.2013  0.0695
 4509W        W47525   8.834  28.385   6.717  0.1857 -0.1639 -0.5227
 4510W        W47526   6.761  30.796  21.671  0.2102  0.1699 -0.0370
 4511W        W47527   3.672  29.149  22.569  0.1391  0.0987 -0.0959
 4512W        W47528   7.851  32.156  26.151 -0.0337 -0.0183 -0.1174
 4513W        W47529  19.460  33.974  22.151 -0.0362  0.0467  0.0817
 4514W        W47530  32.518  33.822  25.904 -0.0809  0.2898 -0.2530
 4515W        W47531   0.222  19.008  23.161 -0.0594 -0.0788 -0.0448
 4516W        W47532   4.951   1.009  20.555  0.1376  0.1185  0.0971
 4517W        W47533   2.393  32.418  26.042  0.2384  0.1458 -0.1214
 4518W        W47534  21.646  23.563  20.794 -0.2644  0.0380  0.0804
 4519W        W47535   8.076   2.980  16.188 -0.1084  0.2259 -0.0407
 4520W        W47536  17.985  30.061  19.250 -0.1698 -0.0327  0.0455
 4521W        W47537  15.980   3.387  21.948 -0.1480  0.0526 -0.3432
 4522W        W47538   5.568   3.379   0.278 -0.0774  0.1004  0.1261
 4523W        W47539  15.797  26.266  14.088  0.1422 -0.0446  0.3690
 4524W        W47540  26.380  10.927  29.075  0.0706 -0.2044  0.0373
 4525W        W47541  11.220  25.325   2.868 -0.1112 -0.0926  0.0937
 4526W        W47542  21.861   7.103  27.279 -0.2406 -0.0800  0.3083
 4527W        W47543  15.100  27.256  16.813  0.2889 -0.1221 -0.0507
 4528W        W47544  34.022  32.626  16.478  0.2260 -0.1688  0.2597
 4529W        W47545  28.787  12.783  19.600  0.0930 -0.0405  0.4131
 4530W        W47546  10.161  24.223  12.852 -0.2142 -0.2112 -0.0311
 4531W        W47547  31.194  17.852   8.291  0.4154  0.1771  0.1206
 4532W        W47548  14.491   6.053  18.353 -0.1587 -0.2575  0.0403
 4533W        W47549  15.825   8.534  13.684 -0.0273 -0.0229 -0.1927
 4534W        W47550   1.511   8.811  29.022  0.2326  0.2007 -0.0949
 4535W        W47551  13.848   7.366  23.700  0.0593 -0.0020 -0.0318
 4536W        W47552  26.124  13.082  21.414  0.2634  0.1765  0.0982
 4537W        W47553   0.813   0.338  27.933 -0.0319 -0.2399  0.1333
 4538W        W47554  19.527   7.804  14.089  0.1876 -0.1067  0.1777
 4539W        W47555   9.121  21.319  18.905 -0.0931 -0.0396  0.1176
 4540W        W47556   6.454  29.007  24.485 -0.1385 -0.0163  0.0706
 4541W        W47557   4.373  11.322  27.935  0.0155  0.1072 -0.0376
 4542W        W47558   4.648  31.134  18.769  0.4439  0.1199 -0.0184
 4543W        W47559  11.114  12.118  20.283  0.1532 -0.1393 -0.0686
 4544W        W47560   2.946  28.608   2.932 -0.2031 -0.0279 -0.3149
 4545W        W47561  21.362   2.742  18.093  0.2283  0.0860 -0.0255
 4546W        W47562   5.095   0.358  24.489  0.1201  0.3059 -0.0878
 4547W        W47563   7.305   9.056  10.310 -0.2033  0.1379  0.1283
 4548W        W47564   9.349  32.736  22.173  0.1480 -0.1818  0.0253
 4549W        W47565  22.408  19.782  23.411  0.0236  0.1169 -0.1814
 4550W        W47566  10.890  32.158  14.743  0.1120 -0.0597  0.0258
 4551W        W47567  20.816  26.528  18.103  0.0599 -0.1010  0.0101
 4552W        W47568   2.495   3.064  17.023 -0.0792 -0.0099  0.3418
 4553W        W47569  30.588  33.644   5.714  0.1858 -0.2949  0.2815
 4554W        W47570  29.061   4.242  15.700  0.2419 -0.0761 -0.1405
 4555W        W47571   9.831  12.289  14.468  0.0945 -0.0942 -0.0584
 4556W        W47572  10.802   5.906  22.971  0.0126 -0.0777  0.0071
 4557W        W47573  24.961  32.584   4.961  0.0737 -0.3431  0.1338
 4558W        W47574   7.410   0.232  22.815 -0.2423 -0.0916 -0.0472
 4559W        W47575  26.867  12.593  26.026  0.0186 -0.1676 -0.3394
 4560W        W47576   5.542  32.983   0.582  0.1864 -0.2100 -0.0581
 4561W        W47577   2.008  13.524  23.570 -0.0425  0.0785 -0.1734
 4562W        W47578  24.223   0.999  24.805  0.2091  0.0075 -0.0908
 4563W        W47579   3.077  34.105  15.595 -0.1995 -0.0059 -0.1275
 4564W        W47580  29.465   6.884  26.305 -0.0213  0.1678 -0.0607
 4565W        W47581  22.526  33.933  22.861 -0.0400 -0.4766  0.0061
 4566W        W47582  20.671  17.450  13.681 -0.1122  0.1380  0.0757
 4567W        W47583   1.225   4.260  16.824 -0.3136 -0.0504 -0.0592
 4568W        W47584  33.053  33.449  24.744 -0.1749 -0.0102 -0.0314
 4569W        W47585   1.793  34.343  22.023  0.0754 -0.0713 -0.0287
 4570W        W47586  22.889  25.287  15.704  0.2902 -0.2687  0.2068
 4571W        W47587  15.285   3.557  22.125 -0.2249  0.0571 -0.0499
 4572W        W47588  30.757   7.196  22.490 -0.0672  0.0111  0.0366
 4573W        W47589  20.140  33.031  23.030 -0.0384 -0.2744 -0.0705
 4574W        W47590   2.958  34.654  16.820 -0.2382  0.0807  0.1523
 4575W        W47591  14.683  34.442  23.891 -0.3442 -0.1051  0.1494
 4576W        W47592   6.177  19.746  14.241  0.2182  0.0768 -0.3427
 4577W        W47593  30.452  12.156  20.931  0.0516 -0.1713 -0.0628
 4578W        W47594  21.306   9.731  25.668  0.1293 -0.1495 -0.0186
 4579W        W47595   2.644  19.406  20.964 -0.2586  0.0456 -0.1580
 4580W        W47596   0.909  16.248  15.721 -0.0290 -0.0355 -0.0966
 4581W        W47597   8.186  26.074   1.140  0.2249 -0.1099  0.2643
 4582W        W47598   9.236  21.152  21.037  0.1366 -0.3697 -0.2107
 4583W        W47599   6.664  26.414  14.357 -0.0176  0.1308 -0.4044
 4584W        W47600  32.426  15.009  27.155 -0.0771 -0.1542 -0.0103
 4585W        W47601   6.230  28.955  20.272  0.1783 -0.0011  0.1064
 4586W        W47602  34.698   5.806  18.913 -0.0642  0.1698  0.0299
 4587W        W47603  23.419   8.902  18.211 -0.1254  0.0154  0.2512
 4588W        W47604   2.026  10.851  22.111 -0.2810 -0.0106 -0.2665
 4589W        W47605  32.331  30.754  18.262  0.3419  0.0413  0.0582
 4590W        W47606   3.741  16.963  20.495  0.3825  0.1427  0.2885
 4591W        W47607  13.592  27.864   2.779  0.2990 -0.0150 -0.0686
 4592W        W47608   1.783  29.862  18.715  0.1644  0.2257  0.4236
 4593W        W47609  18.735  32.431  23.793  0.0520 -0.3273  0.1650
 4594W        W47610  17.042  32.940  24.625  0.3490  0.0803 -0.2169
 4595W        W47611  32.822   5.972  17.430 -0.0187  0.1078 -0.0557
 4596W        W47612   4.780  29.458   3.030  0.0337 -0.0343 -0.1690
 4597W        W47613  15.372  13.764  23.777 -0.1476 -0.2040  0.0008
 4598W        W47614   9.394  32.870  20.300 -0.1434  0.1006 -0.0702
 4599W        W47615  17.461  16.743  13.508 -0.1046  0.2652 -0.0276
 4600W        W47616  33.353  14.496  17.809  0.0500 -0.0759  0.0124
 4601W        W47617  20.265  15.150  16.215 -0.2049 -0.0598  0.0387
 4602W        W47618   0.868  27.237   8.127 -0.2182  0.0584  0.0362
 4603W        W47619  12.716  32.987  15.425 -0.1521  0.1859  0.1238
 4604W        W47620  25.704  27.814   0.305  0.2257  0.0299  0.0330
 4605W        W47621  26.336   6.917  18.089  0.1132  0.0249 -0.4078
 4606W        W47622  33.112  13.211  21.642  0.4528  0.0574  0.0993
 4607W        W47623  32.261   6.008  20.697  0.3739 -0.2487 -0.2260
 4608W        W47624   8.946   8.383  26.103  0.1401 -0.1883 -0.1362
 4609W        W47625  34.286   9.396  24.767 -0.2431  0.0338 -0.2803
 4610W        W47626  22.863  30.727  24.693  0.1916  0.0902 -0.0814
 4611W        W47627  11.194  23.080  22.140 -0.3558 -0.1142 -0.0955
 4612W        W47628   2.189   5.294   7.262  0.0126  0.2272  0.0150
 4613W        W47629  32.476   5.448  18.485 -0.1264  0.2880 -0.1773
 4614W        W47630  34.253  33.071   1.667  0.0043 -0.3191  0.0123
 4615W        W47631   6.558  32.210  16.372  0.1062  0.0162 -0.2204
 4616W        W47632  11.764  27.489  16.489 -0.0413 -0.2071 -0.2322
 4617W        W47633  13.570   1.808  25.668  0.1526 -0.2571 -0.0093
 4618W        W47634   3.649  16.690  17.325  0.0060  0.4363  0.2936
 4619W        W47635  33.003   1.727  23.219  0.0435 -0.3991  0.2474
 4620W        W47636   5.810  20.683  19.962  0.3272  0.3007  0.0989
 4621W        W47637  27.243  32.776  20.402 -0.0096 -0.3031  0.2959
 4622W        W47638  31.086  34.022  25.263 -0.0182  0.0437  0.2521
 4623W        W47639  10.658   5.049  26.070  0.1653 -0.3065  0.0363
 4624W        W47640   6.201   8.457  25.371 -0.2236  0.1098  0.1198
 4625W        W47641  29.046  34.004  16.156 -0.0338  0.0752  0.0844
 4626W        W47642  31.828  27.465  18.013  0.0167  0.2119  0.1566
 4627W        W47643   3.139  20.905  25.790  0.0212 -0.1606 -0.0574
 4628W        W47644   4.945  19.904   1.755  0.4145 -0.0779  0.1114
 4629W        W47645  10.536  25.745  26.696 -0.2969 -0.3224 -0.0264
 4630W        W47646  12.457  30.663  26.619  0.2226  0.0911 -0.0375
 4631W        W47647   8.761   3.323  15.033  0.0804  0.2656 -0.1055
 4632W        W47648  33.108   9.965  24.203  0.2335  0.3823 -0.3559
 4633W        W47649  21.157  30.771  18.335 -0.1812 -0.1661  0.0561
 4634W        W47650   0.899   7.738  24.020  0.0472  0.1135 -0.3568
 4635W        W47651  29.293  32.147  21.192 -0.4154  0.2692 -0.3991
 4636W        W47652  15.733  29.809  25.844 -0.1470 -0.1868  0.3010
 4637W        W47653  31.419   5.965  22.348  0.2325 -0.0911 -0.1010
 4638W        W47654  21.247  34.667  18.847  0.0864  0.1124 -0.2680
 4639W        W47655  27.737  33.348  23.361 -0.0074 -0.2139 -0.2505
 4640W        W47656  17.675  34.570  22.343 -0.0189 -0.1816 -0.1980
 4641W        W47657   0.578   1.421  24.382 -0.2993 -0.0357 -0.3433
 4642W        W47658   3.808   7.412  23.528 -0.1897 -0.1259  0.0885
 4643W        W47659  29.602  31.597  28.590  0.1767  0.4587 -0.0520
 4644W        W47660  12.003   5.500  20.545 -0.1809  0.2725 -0.3281
 4645W        W47661   2.551   6.606  15.206 -0.2316  0.0685 -0.3150
 4646W        W47662  24.715   1.013  23.252  0.1317 -0.1253 -0.2069
 4647W        W47663  32.264  31.392  19.664  0.0099 -0.5055 -0.3015
 4648W        W47664  31.480  16.952   6.996 -0.0070  0.1148 -0.0970
 4649W        W47665   9.599   6.715  19.633 -0.0468  0.0609 -0.1007
 4650W        W47666   1.157  30.837  17.435 -0.3110 -0.0087 -0.0619
 4651W        W47667  20.208   7.928  17.507  0.0053 -0.0808 -0.0893
 4652W        W47668  33.276   6.865   4.437 -0.1020 -0.0597  0.3622
 4653W        W47669   4.670  11.849  15.278 -0.0023 -0.2184  0.1162
 4654W        W47670  26.461  20.878  22.124  0.0340  0.1405  0.0476
 4655W        W47671   4.262  34.728  20.070 -0.0122  0.3019  0.0548
 4656W        W47672  30.798  33.336  16.824 -0.3265 -0.1391  0.3580
 4657W        W47673   1.564  21.422   1.613  0.0770 -0.1669 -0.2506
 4658W        W47674   8.198  22.653  19.792  0.2536 -0.0777 -0.2789
 4659W        W47675  11.969   4.614  27.307  0.1269  0.1398 -0.2587
 4660W        W47676  30.981  26.975  15.382  0.0792  0.1698  0.1844
 4661W        W47677   2.541   2.365  15.152  0.2724  0.0881  0.0049
 4662W        W47678  23.754  27.168   2.764 -0.1956 -0.2293  0.0896
 4663W        W47679  28.035   2.677  26.060  0.0485  0.1281  0.4581
 4664W        W47680   3.764  28.196  25.198  0.0080 -0.0432  0.1639
 4665W        W47681  34.314  17.160   0.487 -0.1924 -0.0859  0.1201
 4666W        W47682   2.099   3.596  20.245 -0.0896  0.4028  0.1232
 4667W        W47683  34.697  16.113   2.543  0.3016  0.2152 -0.0583
 4668W        W47684  30.191  30.455  23.880  0.1171  0.0331  0.1426
 4669W        W47685  12.577   1.857   0.629  0.1717  0.0686 -0.1104
 4670W        W47686   0.048   8.499  18.458 -0.1588  0.1075  0.0558
 4671W        W47687  27.421   7.390  21.474  0.3191 -0.2258  0.2031
 4672W        W47688  26.973  27.536  21.456  0.2166  0.1276  0.1319
 4673W        W47689  28.733  32.857  24.168  0.3132  0.1792  0.0415
 4674W        W47690   1.154  12.166  28.147  0.1102 -0.2239  0.0529
 4675W        W47691   0.429  20.003  15.693  0.1452 -0.2392 -0.3683
 4676W        W47692   5.598  31.068  16.700 -0.3595  0.0695 -0.4700
 4677W        W47693  24.334  27.458  24.543  0.0052 -0.2400 -0.1779
 4678W        W47694  32.880  30.623  20.404 -0.0027  0.2710 -0.0003
 4679W        W47695   7.598  26.700  26.211 -0.1290  0.4630 -0.0276
 4680W        W47696  33.726   5.473  23.541 -0.3122 -0.0284  0.0931
 4681W        W47697   3.140   3.728  25.360  0.1379  0.0193 -0.0593
 4682W        W47698  13.688   8.066  28.872 -0.1763  0.0726 -0.0722
 4683W        W47699   8.830   0.103   0.132  0.0532  0.0141 -0.2100
 4684W        W47700   8.117   1.564  25.860  0.3910 -0.1727  0.0465
 4685W        W47701  11.893   6.017  16.373 -0.0231 -0.0350 -0.0379
 4686W        W47702  32.362  15.185   2.222  0.1962  0.0601  0.2841
 4687W        W47703  30.004   4.091  17.513 -0.0836  0.1491  0.0268
 4688W        W47704  27.675  33.042  17.805 -0.1593  0.0105  0.1982
 4689W        W47705   1.818   0.824  22.365 -0.1331 -0.1232 -0.3483
 4690W        W47706  28.162  21.884   0.323 -0.1800 -0.4834  0.0984
 4691W        W47707   0.499  26.593  18.246  0.1824 -0.0939  0.0540
 4692W        W47708  16.761   9.802  21.529  0.5198  0.1878 -0.5102
 4693W        W47709  10.685  33.586   3.276 -0.3261  0.0772 -0.2260
 4694W        W47710  34.060  33.969  26.280  0.3604 -0.2533  0.0887
 4695W        W47711   2.600   3.445  14.909 -0.2127  0.0400 -0.0434
 4696W        W47712   1.249   0.058  27.944 -0.1347  0.1001  0.1880
 4697W        W47713   1.916   0.840  17.058 -0.0069  0.0091 -0.1004
 4698W        W47714   2.735   7.754  23.644  0.1369  0.1080 -0.2682
 4699W        W47715   5.642  24.719  17.803 -0.2133  0.1277  0.0051
 4700W        W47716   9.266  26.868  16.542 -0.0687 -0.3510  0.0673
 4701W        W47717  30.375  18.407  25.067 -0.1420 -0.1216 -0.2389
 4702W        W47718   7.242  22.969  27.736  0.0117  0.0039 -0.0118
 4703W        W47719  12.847  13.217  23.854  0.0240  0.1363  0.0350
 4704W        W47720  34.448   1.367  25.703  0.0464  0.1680  0.3117
 4705W        W47721  33.856   2.018  16.465  0.1203 -0.0989  0.1666
 4706W        W47722  19.651  28.665  25.714  0.2081  0.0389 -0.0170
 4707W        W47723  24.206  29.596  22.409 -0.0238 -0.1200 -0.0449
 4708W        W47724   7.109   6.230  17.219 -0.0913  0.1982  0.2944
 4709W        W47725   1.731  28.749   1.125 -0.0461  0.2048  0.1024
 4710W        W47726  16.024   8.104  19.722  0.1748  0.2428  0.2813
 4711W        W47727  10.354  28.127  18.256 -0.1032  0.0754  0.0364
 4712W        W47728   8.300  21.723  28.947 -0.1066  0.0242  0.0201
 4713W        W47729  20.502   6.372   3.168  0.1265  0.0826  0.1435
 4714W        W47730  31.446  30.832  17.351  0.0254 -0.0020  0.2381
 4715W        W47731  20.102   2.536  20.399 -0.1083  0.1409 -0.1930
 4716W        W47732   1.821  11.553  21.393  0.4306 -0.2956  0.3485
 4717W        W47733   1.355   0.429  18.314 -0.0476 -0.0756 -0.1067
 4718W        W47734   5.548  27.445  15.655  0.0880  0.2164  0.2299
 4719W        W47735   5.553  22.008  25.309 -0.0085 -0.2479 -0.0157
 4720W        W47736   2.874  29.998  16.061  0.3455 -0.1063  0.2880
 4721W        W47737  13.841   9.650  22.623  0.3281  0.0180 -0.0418
 4722W        W47738   0.721  10.294   0.844 -0.1595 -0.1602  0.1382
 4723W        W47739  33.595  14.854   3.817  0.1130 -0.1987  0.0201
 4724W        W47740  28.098  11.916   1.367 -0.1225  0.4393  0.0651
 4725W        W47741   8.256  12.730  26.310  0.2729  0.0674  0.2555
 4726W        W47742  33.905  29.773  16.047 -0.0238  0.0442 -0.3069
 4727W        W47743   5.586   7.984  16.546  0.1075  0.2441  0.0338
 4728W        W47744   0.248  24.314  20.249 -0.0255 -0.0656  0.1360
 4729W        W47745   9.750  29.789  15.989 -0.2074 -0.0482  0.1983
 4730W        W47746   5.014  10.173  20.329 -0.1171  0.1602  0.2466
 4731W        W47747  13.696  16.767  20.604  0.1296  0.1076  0.4485
 4732W        W47748   2.268   7.514   6.719 -0.0019  0.0621  0.3665
 4733W        W47749  25.210  31.332   4.149  0.1065 -0.3586 -0.0665
 4734W        W47750   3.802  19.632  22.479  0.2556  0.0521 -0.0825
 4735W        W47751   2.588   5.131   1.803 -0.0067 -0.1162  0.0448
 4736W        W47752  21.761  10.862   2.252 -0.2220 -0.3815 -0.1342
 4737W        W47753  25.864  26.294  10.912 -0.3484  0.1319  0.1108
 4738W        W47754  18.903  23.264  23.143  0.0878 -0.4137  0.2644
 4739W        W47755  11.409   2.970  24.222 -0.0493 -0.1794  0.0877
 4740W        W47756  13.721   8.235  17.616 -0.1133  0.0498  0.1510
 4741W        W47757  27.863   4.398  16.477 -0.2594 -0.0957  0.1541
 4742W        W47758  20.940  28.769  20.324 -0.1673  0.0800  0.2094
 4743W        W47759  26.223  31.508  18.086  0.2197 -0.0827  0.0451
 4744W        W47760  28.892   5.879  27.285  0.1550  0.2871 -0.1836
 4745W        W47761  26.195  26.905   5.536  0.2642  0.0421 -0.1152
 4746W        W47762   7.137  20.333  14.966  0.0713 -0.0756 -0.1118
 4747W        W47763  29.016  31.686  19.267  0.1184  0.0246  0.1103
 4748W        W47764   4.623   7.513  16.790  0.1084 -0.3052  0.0860
 4749W        W47765  25.919  33.578  24.271 -0.0216  0.1079  0.1904
 4750W        W47766  19.746  12.610   7.208  0.3153 -0.1095  0.0983
 4751W        W47767  18.911   7.012  21.073 -0.0768 -0.0958  0.0090
 4752W        W47768   8.620   3.576   1.482 -0.0929  0.0446  0.1732
 4753W        W47769  25.807  17.843   4.694 -0.0164 -0.2654  0.2261
 4754W        W47770   1.277  14.499  18.912  0.5014  0.3559 -0.0980
 4755W        W47771   2.594  27.713   0.182 -0.3854 -0.1665 -0.1624
 4756W        W47772   4.806  31.380   1.517  0.0771  0.1369  0.1904
 4757W        W47773   4.162  33.820   4.875 -0.2634  0.0303  0.1516
 4758W        W47774  10.990  10.693  23.491 -0.2066  0.2674 -0.0639
 4759W        W47775   0.172   8.373  15.375 -0.1688 -0.1800 -0.1235
 4760W        W47776  33.556  23.273  24.663  0.1123  0.1180  0.0501
 4761W        W47777  24.422   2.296   8.919  0.2225 -0.0444 -0.0107
 4762W        W47778  23.863  27.518  16.823  0.1128  0.1167 -0.0946
 4763W        W47779  32.514  24.582   4.929  0.0905 -0.0491  0.3093
 4764W        W47780   6.615   0.821  23.630 -0.1957  0.2060  0.0423
 4765W        W47781   4.422   5.190  26.165  0.1299 -0.1665 -0.1046
 4766W        W47782   6.513  28.335  15.057 -0.3760  0.3949  0.1609
 4767W        W47783  15.778  22.864  15.226  0.4036 -0.2876 -0.0372
 4768W        W47784  15.038   6.849  15.041 -0.1571 -0.0412 -0.0699
 4769W        W47785  26.758  32.866  11.323  0.1587 -0.2944 -0.4621
 4770W        W47786  30.066  20.640  20.372 -0.2935  0.3134 -0.1291
 4771W        W47787  13.610  27.563  28.810 -0.2103  0.1149  0.1813
 4772W        W47788  32.903  32.509  21.881  0.3649 -0.3189  0.3201
 4773W        W47789   8.914   2.065  15.441  0.0476  0.2013 -0.1586
 4774W        W47790  23.948   5.394   4.777 -0.1794  0.4092 -0.0435
 4775W        W47791  31.540   3.825   6.816  0.1649  0.0119 -0.1752
 4776W        W47792   3.022   0.074  24.405 -0.0248  0.2363  0.1072
 4777W        W47793   3.758  34.026  27.110 -0.0356  0.0955 -0.1755
 4778W        W47794  30.428  13.679  23.671  0.0122 -0.3962 -0.1703
 4779W        W47795   3.386  13.052  26.715  0.1576  0.2386 -0.0160
 4780W        W47796  27.934   7.048  25.485 -0.0909  0.0608  0.1335
 4781W        W47797  23.519  31.143  15.241 -0.1925  0.0731 -0.3723
 4782W        W47798   1.083   8.392  17.606 -0.1528  0.0306  0.3406
 4783W        W47799  27.299  13.240  16.644  0.1838  0.1660 -0.1373
 4784W        W47800   5.930   0.101  17.298  0.0919 -0.0378  0.2416
 4785W        W47801  12.792   6.042  27.968 -0.1231  0.2011 -0.1188
 4786W        W47802   8.579  25.234  19.987 -0.1197 -0.1168 -0.0384
 4787W        W47803   7.002  31.383  22.962  0.1471  0.0940  0.0574
 4788W        W47804  26.039  13.839  18.915 -0.0115 -0.0471  0.1636
 4789W        W47805  12.911  26.744  24.206  0.0244 -0.0839  0.2239
 4790W        W47806   4.217   7.950  17.563 -0.1307  0.3601 -0.0952
 4791W        W47807  20.637  33.808   4.070  0.0416  0.1680 -0.3534
 4792W        W47808  26.329  10.361  19.335 -0.0074  0.0731 -0.4644
 4793W        W47809  25.652  33.809  10.724 -0.0332  0.0211 -0.0630
 4794W        W47810   1.669  13.620  22.801 -0.1197 -0.1621  0.1356
 4795W        W47811  25.809   8.667  10.810  0.0552  0.1030 -0.1297
 4796W        W47812  17.328  25.678  20.768  0.2484  0.0007 -0.0229
 4797W        W47813  32.478   0.038   3.414  0.2457  0.0923 -0.1374
 4798W        W47814   5.985   2.971  15.484 -0.2903 -0.1605 -0.3217
 4799W        W47815  34.517   6.114   5.817 -0.1852  0.0167  0.0673
 4800W        W47816   0.939   0.588  22.563 -0.1028  0.1281 -0.0077
 4801W        W47817  20.074   8.395   5.724  0.0412 -0.3778 -0.0301
 4802W        W47818   2.922   4.518  18.262  0.2871 -0.2159  0.2913
 4803W        W47819  32.523   0.724  17.973  0.5618 -0.0369 -0.1575
 4804W        W47820   0.534   3.040  27.991 -0.2524 -0.0452  0.2874
 4805W        W47821  28.277  29.624   2.994  0.3374  0.0921 -0.0954
 4806W        W47822   6.619  13.873   0.872 -0.1319 -0.0390  0.0918
 4807W        W47823  21.518   0.959  26.237  0.0335  0.1459 -0.1406
 4808W        W47824  33.593  31.966   7.874 -0.0564 -0.0112  0.1639
 4809W        W47825  18.467  23.702  27.276  0.0201  0.3169 -0.0991
 4810W        W47826   2.137  12.001  19.306  0.1105 -0.2326 -0.1189
 4811W        W47827  32.184  10.148  22.518 -0.1787 -0.2429  0.0961
 4812W        W47828   0.590  23.720  16.120  0.0113 -0.2141  0.2840
 4813W        W47829  10.522  32.938  14.458 -0.1786 -0.0970 -0.1217
 4814W        W47830   1.080  33.257  26.118 -0.3329  0.3183 -0.0667
 4815W        W47831   1.240  16.174   7.486 -0.0884  0.2244 -0.0986
 4816W        W47832  31.384  28.203  15.016  0.0454  0.1695 -0.1146
 4817W        W47833  13.345  10.814  14.347  0.2946  0.2065 -0.0347
 4818W        W47834   3.015   7.143  29.146  0.4700 -0.1235  0.1068
 4819W        W47835  28.936  29.883  18.111 -0.0618 -0.0384  0.2461
 4820W        W47836   9.109   9.214   5.775 -0.0382  0.0363  0.0885
 4821W        W47837  31.966  21.264   7.766  0.0977 -0.2121 -0.1701
 4822W        W47838  11.868   8.586  20.995  0.3851 -0.1443  0.3030
 4823W        W47839   4.428   3.035  22.104 -0.1905 -0.1407  0.4347
 4824W        W47840   0.093  25.538   2.520 -0.0795  0.2138 -0.1318
 4825W        W47841  26.679  25.061   2.886 -0.1990 -0.1033 -0.2022
 4826W        W47842   5.048  20.969   4.518 -0.2106  0.0874  0.1694
 4827W        W47843  30.413  13.919  22.822 -0.0436 -0.0252  0.1455
 4828W        W47844  11.886  28.098  27.734  0.2613 -0.0752  0.1321
 4829W        W47845   0.044  30.422  28.546 -0.1404 -0.0448  0.2164
 4830W        W47846   0.333  32.693   3.901  0.3069 -0.1855  0.3380
 4831W        W47847  10.012  28.066   2.957  0.1346  0.2262  0.1574
 4832W        W47848  27.642   8.182  15.644 -0.0807 -0.1023 -0.0438
 4833W        W47849   9.355  30.939  16.629  0.1862 -0.1038  0.1137
 4834W        W47850  18.964   1.284  24.920 -0.3214 -0.1371 -0.1247
 4835W        W47851   2.792   0.458  24.055 -0.0732 -0.2689 -0.3220
 4836W        W47852  21.280   5.211   7.974 -0.0989  0.1739  0.0291
 4837W        W47853  30.644   3.054  25.847  0.1421  0.0416 -0.0073
 4838W        W47854  17.682  30.906  27.832  0.1080  0.1922 -0.3094
 4839W        W47855  18.365  14.250   6.205  0.2558 -0.0469  0.1216
 4840W        W47856   8.185   8.508  14.841 -0.1705 -0.3448  0.0529
 4841W        W47857   4.296   1.092  26.687 -0.0157  0.0834  0.2216
 4842W        W47858  10.095   3.743  18.849  0.0540 -0.0809  0.1743
 4843W        W47859  30.563  30.981   7.759 -0.1240 -0.0076 -0.3005
 4844W        W47860  10.815  33.146   9.734  0.0764 -0.1426  0.0099
 4845W        W47861  31.644  15.418  15.073 -0.3394  0.0183  0.0096
 4846W        W47862  33.682  11.028  27.657 -0.0902 -0.0465  0.2735
 4847W        W47863  33.459  10.017   2.733 -0.0310 -0.1055  0.0162
 4848W        W47864  22.905  33.742  18.583  0.0598  0.1265 -0.1874
 4849W        W47865  12.000   3.986  17.039 -0.0891  0.0972  0.2815
 4850W        W47866  34.638  33.664   7.698 -0.3029  0.2239 -0.2367
 4851W        W47867  34.251  18.825  25.929  0.0548 -0.0417 -0.0163
 4852W        W47868   2.981  12.241   7.368  0.1359 -0.0520 -0.0490
 4853W        W47869  14.030   6.316  15.318  0.0918 -0.0968 -0.0365
 4854W        W47870  30.678   2.188  26.554  0.1316  0.2039  0.2031
 4855W        W47871  10.038   5.228  22.622 -0.1073  0.4207 -0.2233
 4856W        W47872  28.897  20.926  15.827  0.0410  0.0503  0.2662
 4857W        W47873  24.024   1.684   1.927  0.0012 -0.3284  0.1628
 4858W        W47874  34.305  33.763  18.331 -0.0404 -0.0792 -0.0172
 4859W        W47875  25.022  26.883  19.952  0.1185  0.0317 -0.3442
 4860W        W47876   7.196   2.833   5.453 -0.1885 -0.1692 -0.2121
 4861W        W47877  31.478   7.974  14.354 -0.0240 -0.1808  0.1109
 4862W        W47878  17.151   3.904  14.282  0.2117  0.3940  0.0460
 4863W        W47879  12.971   5.592  16.571  0.0422  0.1506  0.2815
 4864W        W47880  18.703   1.801   5.447  0.0186 -0.1759  0.0489
 4865W        W47881  22.216  10.829  15.044  0.0574 -0.3029  0.4708
 4866W        W47882  24.275   7.257  22.142 -0.0693 -0.1248  0.0363
 4867W        W47883   7.110   8.706  26.580 -0.1038 -0.0322  0.1657
 4868W        W47884  31.817   8.475  21.410 -0.1074 -0.2183  0.2430
 4869W        W47885   2.158  29.543   2.995  0.2795  0.2470  0.2587
 4870W        W47886  26.389  32.543   0.839 -0.0531 -0.1370  0.0634
 4871W        W47887  29.685  20.006  27.545  0.0612 -0.0299  0.2760
 4872W        W47888  14.624   8.615  13.044  0.1169  0.1895 -0.0397
 4873W        W47889  34.456  28.821  21.377  0.1023 -0.0466 -0.4641
 4874W        W47890   6.470  23.201  22.592  0.2112  0.0807 -0.1223
 4875W        W47891  19.996   6.063  26.166  0.1010 -0.1527 -0.0339
 4876W        W47892  10.292  27.187  25.982  0.0441 -0.2336  0.2458
 4877W        W47893  24.020  29.958   5.277 -0.2080 -0.0600 -0.1078
 4878W        W47894  26.467   4.728  17.577  0.1021 -0.0754  0.0972
 4879W        W47895   9.524   6.990  21.602 -0.0499  0.2505  0.0462
 4880W        W47896   5.815  31.334  20.643  0.2273 -0.1202  0.0479
 4881W        W47897   3.347  11.488   2.591  0.0775  0.4305 -0.1934
 4882W        W47898   3.312  30.317  26.177 -0.1492 -0.5100  0.4365
 4883W        W47899   3.973  23.368  16.579  0.0603  0.1380 -0.1931
 4884W        W47900  32.500  27.243   4.210  0.4305 -0.0557 -0.2259
 4885W        W47901   0.635  29.873   0.606  0.0343  0.0204  0.4075
 4886W        W47902  18.072  31.989   2.280 -0.0809 -0.0831  0.3453
 4887W        W47903  10.437   1.848  27.309  0.0450 -0.2242  0.2779
 4888W        W47904  28.062  32.623  15.351  0.3113 -0.0911  0.1480
 4889W        W47905  34.221  22.093   1.078 -0.2734 -0.0812  0.2239
 4890W        W47906   6.287  29.561   5.026  0.2147 -0.2901 -0.0156
 4891W        W47907  27.978   2.249   2.219 -0.1919 -0.0932 -0.1788
 4892W        W47908  12.119  21.504   0.867 -0.3371  0.1889  0.0686
 4893W        W47909  22.415   6.715  24.811 -0.0054 -0.3381 -0.0218
 4894W        W47910  32.870  16.844  17.355 -0.0773  0.0574  0.0036
 4895W        W47911   7.327   3.933   7.137 -0.0983 -0.2892  0.1332
 4896W        W47912  27.280  23.281   8.842 -0.2245  0.2989 -0.0949
 4897W        W47913  22.138  24.300  19.897 -0.1594 -0.0396  0.4166
 4898W        W47914  18.988  33.313   6.677 -0.0114  0.2333 -0.1014
 4899W        W47915   1.416  24.835  16.979 -0.3162 -0.1993  0.2777
 4900W        W47916  25.244  15.586  14.821 -0.2157  0.3739 -0.1090
 4901W        W47917  30.357  10.920  23.076  0.2834 -0.0159 -0.1634
 4902W        W47918  33.396  27.772  23.975 -0.1751 -0.0684 -0.3763
 4903W        W47919  15.284   7.610  23.423 -0.1089  0.0505 -0.0615
 4904W        W47920   0.044  34.687  21.109  0.0194 -0.0336 -0.0620
 4905W        W47921  10.577   4.190   4.834 -0.3981 -0.2287  0.3007
 4906W        W47922   5.704  21.233  26.445  0.1426 -0.2435 -0.3125
 4907W        W47923   6.157   2.681  23.603 -0.2754  0.0193 -0.0592
 4908W        W47924  32.034  26.944   9.740  0.0382 -0.0399 -0.1739
 4909W        W47925  23.662   9.806  25.603  0.2250 -0.0409  0.0244
 4910W        W47926   0.246   0.837  21.751 -0.0622 -0.1362  0.1917
 4911W        W47927  27.995  34.444   9.085  0.0209 -0.0679  0.0020
 4912W        W47928  14.977   0.195  16.388  0.0757 -0.1755 -0.2545
 4913W        W47929   8.320   5.687  27.300 -0.0798 -0.1273  0.3133
 4914W        W47930  10.236   3.057   1.229 -0.1217  0.0104 -0.0637
 4915W        W47931  27.171   2.969  22.566 -0.1343 -0.0548 -0.3279
 4916W        W47932   1.228  30.490  20.013  0.0138 -0.0147 -0.2870
 4917W        W47933   7.046   6.610  20.654  0.0427 -0.1117  0.0990
 4918W        W47934  18.188   6.297  19.874 -0.1442 -0.0214  0.0779
 4919W        W47935   8.815  33.213   2.135 -0.1468 -0.1758 -0.2889
 4920W        W47936  27.390   7.557   9.159 -0.4174  0.1897  0.1682
 4921W        W47937   1.115  29.293  19.640 -0.4538  0.1103  0.1157
 4922W        W47938  33.456  15.084  21.210  0.1565 -0.1020  0.0509
 4923W        W47939   9.072   8.269  24.545 -0.0540  0.0627 -0.0248
 4924W        W47940  31.314   2.640   8.620  0.1365  0.1094 -0.0866
 4925W        W47941  15.183  19.599  15.198  0.0862  0.2592  0.0007
 4926W        W47942   1.019   2.724  26.169  0.0723 -0.0820 -0.1286
 4927W        W47943  24.344  10.728   9.992 -0.1991 -0.0199 -0.0291
 4928W        W47944  32.538   4.371  27.733  0.1055  0.0410 -0.0816
 4929W        W47945  13.527  23.393  13.139  0.0417  0.0579 -0.0148
 4930W        W47946  15.727  19.892   7.708 -0.0703 -0.2663 -0.3000
 4931W        W47947  16.849   5.975  24.076 -0.0972  0.3225  0.3009
 4932W        W47948  31.279  30.213   1.296  0.2606 -0.1248  0.0320
 4933W        W47949  30.228  34.250  23.148 -0.0432  0.0078 -0.0255
 4934W        W47950   0.519  11.556  18.827  0.2492 -0.1561  0.3182
 4935W        W47951  32.846  25.379  16.781  0.1629 -0.2084  0.1682
 4936W        W47952   2.203  32.667  26.435  0.1087 -0.1665  0.1825
 4937W        W47953  18.724   8.229  24.077  0.1465 -0.0905  0.0328
 4938W        W47954  31.873  34.592  26.102 -0.1020 -0.0964  0.0254
 4939W        W47955   3.779  27.650  15.958 -0.3171  0.0257 -0.0448
 4940W        W47956  23.153   4.562  15.191  0.0177 -0.0989  0.2523
 4941W        W47957  22.500  28.368  28.403 -0.1027 -0.0337  0.0819
 4942W        W47958   8.864  10.826   0.718  0.0717 -0.0162 -0.0526
 4943W        W47959  13.687  11.820  16.411 -0.1442 -0.2529  0.2093
 4944W        W47960  26.261  28.005   1.850 -0.2252  0.0752  0.0762
 4945W        W47961  17.839   1.800  19.898 -0.2174 -0.0249 -0.0262
 4946W        W47962   9.633  12.677   7.240 -0.2016  0.0930 -0.4718
 4947W        W47963  17.854  33.735   2.710 -0.1013  0.1678 -0.0741
 4948W        W47964  33.090   9.454   8.302 -0.1111  0.1825 -0.2026
 4949W        W47965  17.922   5.095  15.003 -0.0231 -0.0635 -0.0483
 4950W        W47966  20.845  21.326  18.823 -0.0898 -0.0023  0.2395
 4951W        W47967   4.409  18.900  28.994 -0.0228 -0.2326 -0.1079
 4952W        W47968   2.860  23.872  27.322 -0.0985 -0.2758  0.0731
 4953W        W47969   1.798   8.701  22.662  0.0124 -0.0544 -0.2211
 4954W        W47970  32.423  34.602  10.079  0.2732 -0.2285 -0.0452
 4955W        W47971  24.792   4.381  26.972  0.0143 -0.2346  0.2410
 4956W        W47972  16.228  12.859  13.116  0.2229  0.1080  0.0467
 4957W        W47973   6.962  14.438  24.220  0.0152 -0.4523 -0.2599
 4958W        W47974  32.134  11.494  27.349 -0.0596  0.0338 -0.1554
 4959W        W47975  30.534  33.338  10.084  0.3447 -0.2158 -0.0638
 4960W        W47976  32.923  33.587   0.953  0.3515 -0.0786  0.0051
 4961W        W47977  17.481   5.119  15.201 -0.2458 -0.0979  0.1479
 4962W        W47978  27.118   7.884   4.225  0.0606 -0.1416  0.1976
 4963W        W47979  29.073   2.152  15.866  0.0723 -0.0536 -0.2333
 4964W        W47980   7.871   8.442  14.248 -0.3566 -0.0085 -0.0991
 4965W        W47981  19.130  16.100  21.738  0.0569  0.0581 -0.2932
 4966W        W47982  18.758  23.936   0.745  0.0174  0.1025 -0.2478
 4967W        W47983  16.150  13.301  16.777 -0.0304 -0.2326 -0.1287
 4968W        W47984   2.886   3.909  27.324 -0.1735  0.0861 -0.2048
 4969W        W47985   9.210  34.386  18.548  0.2195 -0.0085 -0.0572
 4970W        W47986   1.708  23.964  20.957 -0.4604  0.1636 -0.0904
 4971W        W47987  29.264  14.505  23.791  0.1142 -0.0170 -0.2179
 4972W        W47988  30.070   9.120  20.587 -0.0099  0.1197 -0.1605
 4973W        W47989   2.323  27.937  17.755  0.1248 -0.1137 -0.2253
 4974W        W47990  28.954  15.683  24.268 -0.0893 -0.1956 -0.1990
 4975W        W47991   0.246  20.958  21.978 -0.0799  0.0284  0.1392
 4976W        W47992  27.897   3.554  16.758  0.2747  0.1344  0.1500
 4977W        W47993  21.000  22.465  24.543 -0.1736  0.2193 -0.1084
 4978W        W47994  12.770  21.871  29.113  0.2659  0.1920  0.0266
 4979W        W47995   1.210  29.218  16.361  0.0619  0.0474 -0.0468
 4980W        W47996  23.992   5.779   1.163 -0.1010 -0.1090 -0.0884
 4981W        W47997  34.492  33.802  28.159  0.1300  0.0735 -0.1995
 4982W        W47998  13.340  22.624   0.215 -0.1427  0.0045  0.0135
 4983W        W47999  28.517  19.665  17.482  0.1888  0.2126 -0.1826
 4984W        W48000  11.475  25.330   1.169  0.1641 -0.1273 -0.1539
 4985W        W48001  18.490  15.058  27.287 -0.0525  0.2783 -0.1692
 4986W        W48002  21.853  29.984   0.024  0.1939 -0.2216 -0.2128
 4987W        W48003  28.370  15.809  20.664 -0.0634  0.0870  0.1460
 4988W        W48004  30.802  32.874  25.675 -0.0451  0.1404  0.0822
 4989W        W48005   4.410  29.053   3.810 -0.0537 -0.2686 -0.0109
 4990W        W48006  14.126  10.691  14.777 -0.1145 -0.1838 -0.0170
 4991W        W48007   5.412  22.764  16.201  0.2566  0.1215 -0.0029
 4992W        W48008  33.105  24.602  22.186 -0.0125 -0.0990 -0.4162
 4993W        W48009   8.516   3.943  20.884 -0.0065 -0.0843 -0.3424
 4994W        W48010  16.471  28.677   1.425  0.1790 -0.2071 -0.0034
 4995W        W48011  32.532   1.948  18.107 -0.1778 -0.1162  0.1440
 4996W        W48012   1.044  26.065  21.954  0.2610  0.0943  0.0906
 4997W        W48013  33.640   6.215   2.532 -0.1357 -0.0941 -0.1902
 4998W        W48014  31.097   2.532  20.360 -0.1567  0.2026 -0.3844
 4999W        W48015   2.905  16.183  18.943 -0.1315 -0.0723  0.1360
 5000W        W48016  28.547   0.915  27.374 -0.2429  0.3256 -0.1655
 5001W        W48017  19.836  32.675  21.657  0.0061  0.2336 -0.0432
 5002W        W48018   1.263  27.688  28.350 -0.0574 -0.2168  0.1152
 5003W        W48019  31.645  20.212  26.907  0.0452 -0.3521  0.2610
 5004W        W48020  10.897  27.678  18.204  0.2566 -0.0329  0.0025
 5005W        W48021  33.219  12.371  15.744  0.0337 -0.0841  0.3695
 5006W        W48022  12.594   6.793  20.484  0.1349  0.2347  0.0877
 5007W        W48023   2.738  30.397   1.567 -0.0760  0.3283  0.1421
 5008W        W48024  32.844   1.903  15.886  0.2573  0.3479  0.0993
 5009W        W48025  24.021  20.182  14.903 -0.0967 -0.1167  0.1749
 5010W        W48026  10.851  32.874  16.062  0.0643 -0.1273  0.3628
 5011W        W48027  27.351   1.714  22.825  0.0819 -0.0675  0.0430
 5012W        W48028   3.232   6.931  13.728 -0.0375 -0.0988 -0.1474
 5013W        W48029   3.639  34.086  24.745 -0.0558  0.3075 -0.0615
 5014W        W48030   4.929  31.161  20.076  0.0342  0.0483  0.3391
 5015W        W48031  31.709   4.196   4.727 -0.1773  0.0627 -0.2544
 5016W        W48032  29.714   2.472   1.545  0.2386  0.2329  0.1349
 5017W        W48033   2.195  29.429  25.164 -0.0398  0.3484  0.0418
 5018W        W48034   6.106  14.624  16.929  0.3365 -0.0276  0.1017
 5019W        W48035   6.709  26.617  14.877 -0.2245 -0.3414 -0.0218
 5020W        W48036  13.630   9.490  24.549 -0.2300  0.1824 -0.0379
 5021W        W48037  31.155   2.736  25.660  0.0669 -0.0723 -0.1739
 5022W        W48038  10.556  24.794  14.137 -0.1116 -0.1294  0.0585
 5023W        W48039  29.229  19.907  18.609 -0.2171 -0.2467 -0.0382
 5024W        W48040   9.536  31.764   8.044  0.1947  0.1448  0.0965
 5025W        W48041  25.008   2.244  15.242  0.1547  0.1321  0.1810
 5026W        W48042  23.224  31.784  21.851  0.1305 -0.0412  0.0462
 5027W        W48043  25.917   6.029   1.508 -0.0476 -0.1091  0.2667
 5028W        W48044  29.693   3.161  17.229  0.0310  0.0457  0.0896
 5029W        W48045  19.199  29.850  20.077  0.1607  0.0429 -0.2378
 5030W        W48046   0.270  23.114   9.308  0.0341 -0.0741 -0.1126
 5031W        W48047   6.939  25.152  18.498  0.0476 -0.3835 -0.1177
 5032W        W48048   1.661  33.331  29.248 -0.1017 -0.1461 -0.2006
 5033W        W48049   1.032   7.328   8.489  0.1117  0.1752  0.1310
 5034W        W48050   2.295  34.491  26.454 -0.1793  0.1620  0.0300
 5035W        W48051   2.273  17.731   0.280  0.0359 -0.0708 -0.0064
 5036W        W48052  14.115   4.901  16.487 -0.1153  0.3039  0.2274
 5037W        W48053  21.712  30.866  18.834 -0.0761 -0.0621  0.1052
 5038W        W48054  30.845   3.820   9.266  0.2916 -0.3511  0.1279
 5039W        W48055  13.236  25.568  15.201  0.2857 -0.1278 -0.0993
 5040W        W48056  13.298  32.752   0.700 -0.2080  0.1072 -0.3033
 5041W        W48057  28.924  31.554  26.715 -0.2176  0.1131  0.0022
 5042W        W48058  24.166   1.206  16.524  0.1772 -0.3931 -0.0033
 5043W        W48059  27.562  31.406   4.005  0.2830 -0.0245  0.2850
 5044W        W48060  25.460  21.248  19.698  0.3164  0.0656  0.1744
 5045W        W48061   1.305  26.771  26.722  0.0765 -0.1149  0.0267
 5046W        W48062   8.874   2.040  23.403  0.0817  0.2492  0.0685
 5047W        W48063  27.601  29.897  10.188 -0.1381  0.1928 -0.3184
 5048W        W48064   5.553   3.902  23.185 -0.1454 -0.0170  0.0927
 5049W        W48065   1.144   0.433  17.581 -0.0301  0.0419  0.2243
 5050W        W48066  26.577   6.832   1.114 -0.2883 -0.0040  0.1788
 5051W        W48067  10.905  23.456  15.273 -0.0197 -0.3070 -0.2100
 5052W        W48068  13.182   3.833   3.160  0.2284  0.0739 -0.1837
 5053W        W48069   5.825  32.293  22.349 -0.2862  0.1225 -0.1175
 5054W        W48070  33.020  16.115   1.352 -0.1483 -0.0413  0.0575
 5055W        W48071  23.852   5.286  10.306  0.2244  0.1480 -0.3635
 5056W        W48072  32.317  13.633  16.760  0.2062  0.4164  0.0613
 5057W        W48073  22.844   1.054   2.343 -0.1277  0.1614  0.3821
 5058W        W48074  22.636   6.111  14.928  0.1732 -0.1035  0.0401
 5059W        W48075   2.718  10.230  24.215  0.1542 -0.1930 -0.1511
 5060W        W48076   6.134  11.208   7.936  0.1013 -0.2352 -0.0512
 5061W        W48077  16.372   1.479  25.675  0.1705  0.1751 -0.0903
 5062W        W48078  10.380  32.777   1.178  0.1448  0.0088  0.2536
 5063W        W48079   3.321  32.991   0.524  0.1474  0.2286 -0.1121
 5064W        W48080  29.517  30.799  28.970 -0.0926  0.1623  0.2287
 5065W        W48081  29.132  29.366  25.724 -0.0943 -0.3078 -0.1505
 5066W        W48082   4.525  18.799  19.320  0.0948  0.2714 -0.2582
 5067W        W48083   5.051  14.898  24.000  0.0296  0.1068  0.0613
 5068W        W48084  29.845   5.602  25.765 -0.1265 -0.2946  0.0614
 5069W        W48085  13.248  26.576  21.566 -0.2409 -0.0002 -0.4009
 5070W        W48086  32.920  20.097  16.443 -0.1722  0.0160 -0.1237
 5071W        W48087  14.188   0.815  20.354 -0.0169  0.1715  0.4698
 5072W        W48088  30.604  21.758  16.935  0.1471  0.2178 -0.2835
 5073W        W48089   7.337  25.751  17.444  0.1640 -0.4518 -0.0184
 5074W        W48090   3.379  15.737  20.893  0.0213  0.2252  0.0315
 5075W        W48091   7.954   8.722   3.231 -0.0363 -0.0547 -0.0209
 5076W        W48092  22.032   6.476  22.084  0.2126  0.0801  0.1346
 5077W        W48093   3.379  26.540  22.825  0.2002  0.1363 -0.0369
 5078W        W48094   8.787  25.141  19.208  0.2079 -0.1427 -0.2257
 5079W        W48095   0.660   8.705   7.083  0.0857  0.0422  0.0774
 5080W        W48096  25.876  30.859   1.015 -0.0170  0.1173 -0.1480
 5081W        W48097  31.421  22.538  16.254 -0.0521 -0.1539 -0.1345
 5082W        W48098   2.469  31.848   7.339  0.0425  0.1273  0.2351
 5083W        W48099  34.527   4.990  28.860  0.1887  0.4796  0.0562
 5084W        W48100   2.417   2.272  20.367  0.1118  0.1633  0.0512
 5085W        W48101   8.164  11.009   4.718  0.0624 -0.2193 -0.1580
 5086W        W48102  30.230   1.908  23.910 -0.0235  0.1971  0.1752
 5087W        W48103  21.116  31.337   0.997  0.0363 -0.1049  0.0908
 5088W        W48104  23.838  31.046  26.901  0.3504 -0.0898 -0.1942
 5089W        W48105   5.837  21.599  15.654 -0.0884  0.3616 -0.2223
 5090W        W48106  11.260   3.731  17.182 -0.0616 -0.2729 -0.0298
 5091W        W48107  24.472   5.520  16.785 -0.1302  0.4023  0.2796
 5092W        W48108  31.162  30.222   5.032  0.0640  0.2139 -0.0282
 5093W        W48109  28.017  10.630   4.396 -0.0326 -0.2837  0.0993
 5094W        W48110  32.884  28.476  21.633  0.2502  0.0665 -0.2279
 5095W        W48111  31.724   4.009  25.893 -0.1151 -0.3066  0.0105
 5096W        W48112  26.913   2.567  20.798  0.2466  0.0579 -0.0651
 5097W        W48113  10.433  34.300  24.303 -0.2730  0.3587 -0.1012
 5098W        W48114  24.988   1.695  23.576  0.0200 -0.0033 -0.2708
 5099W        W48115  13.157  30.195  20.958  0.1582 -0.2139  0.2294
 5100W        W48116  33.032   6.968  28.288  0.0514  0.3925 -0.3470
 5101W        W48117  18.940   8.503   5.630  0.6381  0.3631  0.1836
 5102W        W48118   3.888  22.867  24.644  0.0764 -0.1055 -0.0764
 5103W        W48119  34.603  15.206   7.555 -0.4803  0.0830 -0.0215
 5104W        W48120  31.629   6.480  23.640 -0.0557  0.1002  0.0200
 5105W        W48121  20.767  33.551  19.448  0.0869 -0.1781 -0.1153
 5106W        W48122   8.455  19.107  17.628  0.0581 -0.0619  0.1672
 5107W        W48123  10.606  11.842   0.531 -0.1072 -0.2593  0.5370
 5108W        W48124   6.224   5.930  20.499  0.2318  0.0842  0.0851
 5109W        W48125   2.111   1.576  22.792  0.0922  0.2209 -0.0717
 5110W        W48126  34.770   7.591   2.769 -0.0271  0.2867 -0.4813
 5111W        W48127  27.086  31.201  25.205 -0.2586  0.2024  0.0444
 5112W        W48128   9.267  20.956  15.406 -0.0413  0.2036 -0.0075
 5113W        W48129  17.824   2.235  26.019  0.0474 -0.0802  0.2383
 5114W        W48130  13.033  20.708  23.875 -0.0574 -0.0553  0.0010
 5115W        W48131  12.566  23.376  24.853 -0.3552 -0.1474  0.0649
 5116W        W48132   6.328  17.542   4.307  0.1122  0.0257 -0.1077
 5117W        W48133  15.948  30.612  23.270  0.0775 -0.1007  0.0164
 5118W        W48134   4.455  30.084   1.020  0.1251  0.0565 -0.1032
 5119W        W48135  24.786  23.958  24.079  0.0085 -0.3182  0.1338
 5120W        W48136   5.996  28.000   8.224  0.0222  0.5121  0.0132
 5121W        W48137  27.867  13.214  24.521 -0.0085 -0.0793  0.3293
 5122W        W48138   0.490  14.348   4.857  0.0798  0.0517 -0.1187
 5123W        W48139   3.913  17.457   1.983 -0.3392  0.2860  0.3401
 5124W        W48140  28.697   1.071  10.913  0.0058 -0.0738 -0.2293
 5125W        W48141  18.694  24.689  20.661 -0.4255 -0.1390 -0.1363
 5126W        W48142  12.065  20.596   6.846 -0.5308 -0.0264  0.0055
 5127W        W48143  12.930  26.556  23.655 -0.0319  0.0426 -0.4012
 5128W        W48144   1.072   4.384  16.298 -0.1456 -0.0967  0.0065
 5129W        W48145  11.312  10.755  19.319  0.4755  0.0448  0.1460
 5130W        W48146  25.735   1.383  10.835  0.1760 -0.2334 -0.1047
 5131W        W48147  10.562   8.511  20.557  0.1306 -0.2528  0.2411
 5132W        W48148   2.337  31.972  28.328 -0.1262 -0.0165 -0.2544
 5133W        W48149  32.637  32.753  22.395  0.3013 -0.0352 -0.1206
 5134W        W48150   5.208   3.826   9.521  0.1939 -0.0924  0.3903
 5135W        W48151   5.789   9.366  23.624  0.1236 -0.0728 -0.1216
 5136W        W48152   3.130   3.757   1.246  0.1182 -0.0649 -0.1758
 5137W        W48153   4.105   7.346   2.292  0.1214  0.1198  0.1465
 5138W        W48154  11.449  22.584   3.500  0.1603  0.0087 -0.1580
 5139W        W48155   5.358   7.273   5.707 -0.3868  0.0188  0.3600
 5140W        W48156   0.190   4.837  17.086 -0.0557 -0.3359 -0.5136
 5141W        W48157  31.302  25.997   1.759  0.0963  0.2858 -0.1613
 5142W        W48158  10.044  20.942  21.761  0.0753 -0.3953 -0.0347
 5143W        W48159  29.845  32.596  17.360  0.0643 -0.3505 -0.0224
 5144W        W48160   5.452  29.880   0.199 -0.2512 -0.0172 -0.2508
 5145W        W48161   9.838   5.404   2.874 -0.0502 -0.1357 -0.2408
 5146W        W48162   0.982  30.864  21.057  0.0076 -0.1044  0.0330
 5147W        W48163  18.154  32.270   1.870 -0.2896 -0.1741 -0.3706
 5148W        W48164  28.770   2.709  10.963  0.0992  0.0518  0.1168
 5149W        W48165  28.257   4.851   0.311 -0.0249  0.0083 -0.1145
 5150W        W48166  10.876   4.072   2.169 -0.0355 -0.1180 -0.2503
 5151W        W48167  29.316  19.598  18.165  0.1830 -0.2058 -0.0332
 5152W        W48168  30.464  12.465   1.499 -0.0693  0.0226 -0.0667
 5153W        W48169   9.866   7.406  28.648 -0.3844  0.0174 -0.3100
 5154W        W48170  31.777   9.840  18.793 -0.1705  0.0825  0.1145
 5155W        W48171  27.213   4.186  10.771  0.0478  0.0599 -0.3125
 5156W        W48172  14.520   3.953   4.880 -0.0559 -0.2324  0.0095
 5157W        W48173  32.731   5.039  23.013 -0.2293  0.2587 -0.0063
 5158W        W48174   5.000  32.210   8.791  0.0742 -0.1326 -0.1692
 5159W        W48175  14.449  30.645  21.412 -0.0526 -0.4071 -0.2881
 5160W        W48176   9.556  15.578   0.481  0.1622 -0.1014  0.3304
 5161W        W48177  33.460  29.136   9.842 -0.1079 -0.0472  0.1675
 5162W        W48178   7.517  20.131  23.787 -0.1244  0.0653  0.3842
 5163W        W48179  16.367  12.122  18.878 -0.2662 -0.4029 -0.0685
 5164W        W48180   0.867  11.123  29.276 -0.0264  0.1357 -0.1635
 5165W        W48181  31.057  11.850  25.365  0.0928  0.2927 -0.1416
 5166W        W48182  17.038   3.009  14.463  0.1202 -0.1587  0.1833
 5167W        W48183  30.823   2.460   4.418 -0.1416  0.1614 -0.3124
 5168W        W48184   5.477   0.303   8.509  0.3305 -0.1071 -0.2647
 5169W        W48185   8.188  24.470  13.798  0.0838 -0.1902  0.0168
 5170W        W48186   0.699  30.999   4.719 -0.0362  0.0899  0.2291
 5171W        W48187  32.535   3.718  26.899 -0.1510  0.0141  0.0050
 5172W        W48188   1.356  32.670   1.753 -0.1319  0.1972 -0.0002
 5173W        W48189  29.197  30.256   8.362 -0.0158 -0.2278 -0.1390
 5174W        W48190  30.131  26.237  26.467 -0.1108 -0.2483 -0.0576
 5175W        W48191  22.616   8.809   7.532 -0.1072  0.1772  0.1176
 5176W        W48192  20.109  20.998  25.336 -0.0644 -0.0754  0.1846
 5177W        W48193  11.048  10.181  24.708 -0.0368  0.1716 -0.1142
 5178W        W48194  19.217  11.023  17.839 -0.2879  0.0082  0.0081
 5179W        W48195   0.816  31.910   4.555 -0.1051 -0.2460  0.0590
 5180W        W48196   1.385   0.638   2.125  0.1593 -0.0326 -0.2956
 5181W        W48197  31.552  32.555   0.063  0.0133  0.1189  0.2152
 5182W        W48198   4.544  31.114  28.922 -0.2706  0.0602  0.0382
 5183W        W48199   2.317   6.918  24.430 -0.2448 -0.0758  0.1089
 5184W        W48200   2.748   8.527   4.425  0.0789  0.3739  0.0529
 5185W        W48201  23.799  14.212  22.180  0.0473 -0.2567  0.3224
 5186W        W48202   5.868  34.644  28.992 -0.0383 -0.1855 -0.0694
 5187W        W48203   1.414   3.626   6.740  0.1533  0.1550  0.0249
 5188W        W48204  28.538  17.853  19.245  0.0098 -0.0728 -0.1342
 5189W        W48205  10.325  23.923  22.996 -0.2355  0.0224  0.2502
 5190W        W48206  28.926  11.499  22.891  0.0821 -0.0281  0.0625
 5191W        W48207   1.212   9.057  24.752  0.1690  0.2188  0.0829
 5192W        W48208  26.986   5.497  18.732 -0.0533 -0.4074 -0.4429
 5193W        W48209  12.168  32.699  14.115 -0.1395 -0.0533 -0.0612
 5194W        W48210  24.323   6.913  17.806 -0.0471 -0.0629  0.4583
 5195W        W48211  26.256  30.591  28.586  0.0580 -0.1780  0.1208
 5196W        W48212  10.812   3.109  15.450  0.3014 -0.1039 -0.0455
 5197W        W48213   2.409   2.177   0.046  0.0397 -0.0642  0.1346
 5198W        W48214  24.826  32.852   6.186  0.0158  0.1569  0.0043
 5199W        W48215   4.455  21.375   2.729  0.0512  0.2890  0.1697
 5200W        W48216  24.965  20.535  28.516  0.3858 -0.1813  0.0154
 5201W        W48217   9.663  16.954   0.143  0.1208  0.2003  0.1127
 5202W        W48218  34.625   8.054  20.781 -0.2034  0.1490 -0.0511
 5203W        W48219   1.336  14.495  25.193  0.1058  0.1811  0.0616
 5204W        W48220   2.759  29.479  29.222 -0.1082 -0.0890 -0.0559
 5205W        W48221  28.045   5.946   0.998 -0.2223 -0.1890 -0.0655
 5206W        W48222  27.644  31.425   2.594  0.1030 -0.4490 -0.3962
 5207W        W48223   7.636  14.527  17.983 -0.0383  0.1670  0.0162
 5208W        W48224   1.266  33.917   3.326 -0.0482  0.0918 -0.2813
 5209W        W48225   0.142   1.848  22.055  0.0749  0.0610 -0.0209
 5210W        W48226  34.298  26.668  18.844  0.2781  0.0956  0.2685
 5211W        W48227   9.007  10.803  17.528 -0.0549  0.1429  0.0635
 5212W        W48228  28.182  11.386  18.603 -0.0618  0.1153 -0.1296
 5213W        W48229  30.361  34.177   7.701  0.1639 -0.0156  0.0516
 5214W        W48230   6.788  22.216   9.676  0.1916 -0.0540 -0.0883
 5215W        W48231   0.867   3.136  15.210  0.2656  0.2144 -0.0292
 5216W        W48232  16.860   3.608  23.317 -0.1344 -0.2343  0.1632
 5217W        W48233  17.884  31.474  28.104 -0.0136 -0.1143  0.4358
 5218W        W48234  25.582   3.916  11.359 -0.1148 -0.0870 -0.3508
 5219W        W48235  23.674   7.083  20.492 -0.0218  0.2366  0.2559
 5220W        W48236  18.606  19.589  24.680 -0.2216 -0.1945  0.0314
 5221W        W48237   8.750  28.062  13.906  0.0081  0.0003  0.2535
 5222W        W48238   6.984   8.763   4.380  0.1268  0.1286  0.2757
 5223W        W48239   4.837  17.951  18.678 -0.1594 -0.2788 -0.0797
 5224W        W48240   9.576  31.206   3.008 -0.0382 -0.0844 -0.0555
 5225W        W48241  14.677   3.474  15.650  0.0341  0.2064 -0.1182
 5226W        W48242  11.749  30.909   6.004 -0.2722  0.1085 -0.1727
 5227W        W48243  10.821   5.994  20.606 -0.0909 -0.0567 -0.1157
 5228W        W48244   6.042   1.341  22.544 -0.0620  0.2394 -0.2239
 5229W        W48245  26.870   5.955  20.231 -0.4775 -0.1142 -0.0277
 5230W        W48246  30.177   7.186  14.935 -0.1980  0.3189 -0.1382
 5231W        W48247   5.350  14.052  28.381 -0.0075  0.0227  0.2618
 5232W        W48248  15.521  15.750  20.783 -0.2226 -0.2546  0.3072
 5233W        W48249  32.385  22.047  25.396 -0.2732  0.1852 -0.0602
 5234W        W48250   6.471   8.600   8.483 -0.3822 -0.1423 -0.1070
 5235W        W48251  22.665  27.083  23.851 -0.1682 -0.0115 -0.1340
 5236W        W48252  24.877   4.223  15.765 -0.1287 -0.1132 -0.1017
 5237W        W48253  29.068  34.472  27.258 -0.2755  0.1207  0.1952
 5238W        W48254  30.907  33.151   6.662 -0.1256  0.1780  0.1417
 5239W        W48255  33.323  27.308   5.440  0.1797  0.2270  0.0860
 5240W        W48256   9.047   5.626   5.936 -0.0821  0.1202  0.0523
 5241W        W48257  30.052  33.359  10.595 -0.2144 -0.0507  0.0386
 5242W        W48258   3.776   3.275  19.588  0.3181  0.2455  0.3167
 5243W        W48259   6.834   6.672  26.592  0.1309 -0.1959  0.2360
 5244W        W48260  11.638  29.299   9.301  0.0468  0.1845 -0.0585
 5245W        W48261   3.845  12.032  24.291  0.0381  0.0454  0.1380
 5246W        W48262   5.927  13.573  26.805  0.0865  0.1522  0.1872
 5247W        W48263  11.674   4.266  20.202 -0.4542  0.0689 -0.0188
 5248W        W48264   9.919  33.325  26.245 -0.2960  0.2900 -0.0315
 5249W        W48265  29.141  13.090   0.977 -0.1240  0.1602 -0.1171
 5250W        W48266   3.332   5.236  29.302 -0.2127 -0.0546 -0.1594
 5251W        W48267   6.768   2.319  29.250 -0.1420 -0.1272 -0.1925
 5252W        W48268   6.408  34.441   8.282  0.1748 -0.0553 -0.0493
 5253W        W48269   1.493  24.894   2.717 -0.0455 -0.1423 -0.0636
 5254W        W48270  30.933   4.823  21.486 -0.0778  0.3250  0.1856
 5255W        W48271   6.779  32.127  26.242  0.2352  0.4081 -0.0794
 5256W        W48272  10.554  23.312  24.859  0.1803  0.1387  0.2576
 5257W        W48273  17.734  12.530  15.463 -0.0170  0.1647 -0.0208
 5258W        W48274   3.963   1.457  24.739 -0.0149  0.2520 -0.0855
 5259W        W48275  28.423  30.534  24.510  0.0901  0.0582 -0.0335
 5260W        W48276  29.559   0.176   1.665  0.3601  0.2027 -0.1888
 5261W        W48277  22.745   4.793  18.970 -0.1030 -0.1593  0.1911
 5262W        W48278  31.405   5.789   8.863 -0.1228 -0.1518  0.0216
 5263W        W48279  16.754   4.232   1.501 -0.0427  0.0446  0.1202
 5264W        W48280  17.806  10.440  26.019  0.0466 -0.0819  0.1068
 5265W        W48281   2.899  18.197   3.870  0.1227 -0.0622  0.3346
 5266W        W48282  29.510  32.516  20.352 -0.1791  0.2288  0.3961
 5267W        W48283  34.590  33.896   5.202  0.1314 -0.1081  0.1619
 5268W        W48284  16.656   8.516  15.644  0.2695 -0.2397  0.3215
 5269W        W48285  15.727  25.456  25.962  0.1380  0.3722  0.1810
 5270W        W48286  14.505   4.700  19.710 -0.0255  0.0706 -0.1380
 5271W        W48287  15.830  12.523  16.180 -0.1988 -0.2688 -0.1591
 5272W        W48288  33.852   6.162  25.308 -0.0336  0.0605 -0.0713
 5273W        W48289  22.985  20.739   0.276 -0.1163  0.1545  0.0193
 5274W        W48290  26.066   1.684  19.895  0.1252 -0.0332  0.1558
 5275W        W48291   7.048  30.256  24.857  0.0759  0.0069 -0.1206
 5276W        W48292  31.519  23.725  26.043  0.3585  0.0719  0.2235
 5277W        W48293   0.949  27.583   7.120 -0.0942 -0.1192  0.2009
 5278W        W48294  31.892   4.151  23.819 -0.0613 -0.1782  0.0741
 5279W        W48295  28.885  31.496  11.193 -0.2932 -0.0827  0.2175
 5280W        W48296  34.540  19.084  22.416  0.0788  0.0921  0.2540
 5281W        W48297  32.162   9.212   3.186  0.1219  0.2420  0.1638
 5282W        W48298  21.296   6.091  21.215 -0.0055 -0.0935  0.0779
 5283W        W48299   7.242  33.752   5.436 -0.0489 -0.0900 -0.1745
 5284W        W48300  31.260  23.395   1.279 -0.1759 -0.1885 -0.2255
 5285W        W48301  33.412   5.701  18.421  0.2163  0.0743 -0.0978
 5286W        W48302  27.672   6.760  10.274 -0.0413 -0.3258  0.1134
 5287W        W48303   2.074  29.875  20.807 -0.1170 -0.2290  0.0823
 5288W        W48304  22.362   4.720  26.830 -0.0301 -0.0967 -0.3015
 5289W        W48305  24.827   5.005   5.804  0.3918  0.0537  0.2103
 5290W        W48306   3.775  29.155  25.133 -0.2969 -0.2305 -0.2482
 5291W        W48307  20.819  11.901  22.457  0.0028 -0.4572 -0.0174
 5292W        W48308  27.768  21.674   8.225  0.1660  0.0705  0.1023
 5293W        W48309  29.727  32.858   9.990  0.1736 -0.1736 -0.2682
 5294W        W48310  17.019   2.495  26.381  0.4585  0.0117 -0.1908
 5295W        W48311   1.507  10.567   6.483 -0.0576  0.0481 -0.0373
 5296W        W48312  25.955   1.430   6.112  0.2155 -0.1911  0.0473
 5297W        W48313  33.204  27.769  16.708  0.2006  0.2517  0.2207
 5298W        W48314  27.350  21.405  20.070  0.3159  0.0516 -0.1655
 5299W        W48315   2.006  26.652   2.960 -0.1708  0.4674 -0.1765
 5300W        W48316  22.000  18.283  22.220 -0.0870 -0.1270  0.0376
 5301W        W48317  24.029   4.421   2.985  0.1665  0.1883 -0.2562
 5302W        W48318   4.611   2.525   0.218 -0.1619 -0.0358  0.0098
 5303W        W48319   4.773  10.384   2.996  0.1130 -0.0609  0.0357
 5304W        W48320  34.302   2.013   7.132  0.2493  0.2740 -0.0915
 5305W        W48321  24.653   6.046   4.134 -0.1327  0.0575  0.0380
 5306W        W48322  13.270   9.429  16.188 -0.0236  0.0569  0.3135
 5307W        W48323   1.563   1.729  27.068 -0.2121 -0.3700  0.2744
 5308W        W48324   7.207   0.225  10.214 -0.3166 -0.0076  0.2072
 5309W        W48325  30.636   0.637   0.066 -0.0392 -0.4106  0.0365
 5310W        W48326  15.021  33.757  15.996  0.3513 -0.3375  0.2848
 5311W        W48327   4.383   7.426   1.439 -0.1637  0.0510 -0.1542
 5312W        W48328   9.273  16.803  26.724 -0.2577  0.0465  0.1731
 5313W        W48329  14.651   6.903  22.802 -0.1463 -0.0877 -0.3568
 5314W        W48330  10.554  11.436  28.593 -0.0688 -0.0099 -0.1688
 5315W        W48331  21.091   1.115  28.043  0.3078 -0.1336 -0.1012
 5316W        W48332  22.875  16.442   3.576  0.1152 -0.1482  0.0575
 5317W        W48333  30.527   3.111  21.432 -0.3767 -0.1592 -0.1999
 5318W        W48334  14.907   6.853  16.708  0.0986 -0.0045  0.1395
 5319W        W48335  34.349   4.569   0.835 -0.0655  0.0422  0.2280
 5320W        W48336  13.845   9.190  21.900  0.0025 -0.3556  0.1616
 5321W        W48337   3.752   4.887  25.445  0.1354 -0.3193  0.1775
 5322W        W48338  10.337  18.251  19.819  0.0390 -0.0667  0.2671
 5323W        W48339  23.216   6.709   2.598  0.0538  0.1303  0.0605
 5324W        W48340  29.920   6.443   4.607 -0.2865  0.2669  0.1867
 5325W        W48341   4.862   3.818  15.658 -0.3134 -0.3161  0.2247
 5326W        W48342  30.432  33.290  19.855  0.2492 -0.2754 -0.0249
 5327W        W48343  30.001  27.836  23.505 -0.0932  0.1293 -0.3081
 5328W        W48344   9.694   9.567  15.865 -0.0054 -0.2468  0.1072
 5329W        W48345  27.957  21.333  24.421 -0.0354  0.1394  0.3725
 5330W        W48346  28.689  11.509   2.992  0.1724  0.1430  0.1009
 5331W        W48347   0.542   3.091   2.421  0.1728 -0.0303 -0.0094
 5332W        W48348   2.558   0.027  20.850 -0.0260  0.1307  0.1959
 5333W        W48349   5.069   6.060  15.504  0.2665  0.3403 -0.2900
 5334W        W48350   7.643   3.187  26.211  0.0429  0.1232 -0.0694
 5335W        W48351   0.882   9.727  22.249  0.0989  0.1262 -0.0926
 5336W        W48352   8.211  32.703  28.355 -0.2096 -0.1170 -0.2536
 5337W        W48353  26.494  32.591  28.221  0.1486  0.2759 -0.2484
 5338W        W48354  10.967   5.760   9.106  0.2592  0.2472 -0.1807
 5339W        W48355  19.683   3.736  17.599  0.0351  0.3327 -0.0032
 5340W        W48356  30.514  28.452  25.507 -0.1144  0.0631 -0.0017
 5341W        W48357   2.678  10.348  25.782 -0.0621 -0.0006  0.1015
 5342W        W48358   3.284  26.962  25.634 -0.2382  0.1636  0.0303
 5343W        W48359  10.226   1.784  25.835 -0.0125 -0.0317 -0.1575
 5344W        W48360   0.280   2.636  27.645 -0.4817  0.3195  0.0704
 5345W        W48361   5.541  31.615  21.779 -0.2027 -0.1909  0.3349
 5346W        W48362   8.182  25.001  28.830  0.0799 -0.0247 -0.2721
 5347W        W48363   7.425  30.501  28.328  0.2702  0.1657  0.0865
 5348W        W48364  14.134  33.424   0.464 -0.2724 -0.3078 -0.2911
 5349W        W48365  32.392  11.233  29.050 -0.1273 -0.0025 -0.0572
 5350W        W48366   3.821  18.780  22.858 -0.0298  0.2586 -0.0999
 5351W        W48367   5.754  19.281  28.748 -0.3433  0.0694 -0.1245
 5352W        W48368  34.060   4.800  22.277  0.1042  0.1509  0.1154
 5353W        W48369  28.438   8.110  17.153  0.0727 -0.0053  0.2909
 5354W        W48370  23.638  32.172  27.978  0.1508  0.0019  0.1707
 5355W        W48371   1.800   4.600   6.072 -0.1187 -0.2236 -0.1116
 5356W        W48372  20.006  32.222  19.147  0.0235  0.1235 -0.0079
 5357W        W48373  23.916   0.316   2.696 -0.0156 -0.2472  0.0650
 5358W        W48374  26.542   8.263  25.692  0.3839 -0.0414 -0.0101
 5359W        W48375  12.971  28.295  13.470  0.3570 -0.2628  0.1596
 5360W        W48376   3.093   5.384  18.597  0.0520  0.2573  0.1019
 5361W        W48377   2.330  11.757  27.535 -0.0433  0.0778  0.0886
 5362W        W48378  25.752  26.442   0.571  0.0114  0.1979  0.2556
 5363W        W48379  21.975  14.137   2.731 -0.0521 -0.3105  0.0549
 5364W        W48380   1.412   5.951   5.301  0.1842  0.0142 -0.0029
 5365W        W48381  33.287  28.775  27.065  0.1460  0.3121  0.4708
 5366W        W48382  17.149  11.408  19.209 -0.1861  0.1437  0.1055
 5367W        W48383  25.375  27.711   0.687 -0.0867 -0.0896 -0.0593
 5368W        W48384  18.181   1.431   5.243 -0.0964  0.1719 -0.0735
 5369W        W48385   7.863   5.892  25.636 -0.0018 -0.1577 -0.0429
 5370W        W48386  22.016  23.095   1.107 -0.1354 -0.0751  0.0839
 5371W        W48387  29.976  26.346  24.450 -0.1233  0.2229  0.1113
 5372W        W48388  15.608  31.036   5.697  0.1562 -0.0789  0.0017
 5373W        W48389  28.148   6.871  29.028  0.2366 -0.0706  0.0602
 5374W        W48390   2.963  11.441  19.589  0.1613  0.0956 -0.0236
 5375W        W48391   3.541  10.653  14.474 -0.0054  0.2029  0.0146
 5376W        W48392  10.849  26.425   3.850 -0.1711 -0.1496  0.0340
 5377W        W48393   2.359   0.209  26.384  0.1963  0.2846  0.1220
 5378W        W48394   4.477   8.367  26.907  0.1452 -0.0776 -0.0087
 5379W        W48395   6.951   5.753  26.854  0.1563  0.0319  0.2861
 5380W        W48396  13.949  10.000  20.396 -0.1106  0.1205  0.0736
 5381W        W48397  10.009   9.513  13.447 -0.0095  0.2564  0.2995
 5382W        W48398   9.041  14.962  23.266 -0.1356  0.4289 -0.3544
 5383W        W48399  34.442   5.142   8.938  0.1630 -0.2614  0.0261
 5384W        W48400   7.331  28.062  26.074  0.1902 -0.0110  0.1658
 5385W        W48401   9.051  25.810  23.756 -0.0342  0.1344 -0.0097
 5386W        W48402   2.888   7.273   5.478 -0.0187  0.2356  0.0872
 5387W        W48403  30.310   2.850  15.858 -0.0107 -0.0116 -0.1112
 5388W        W48404  10.538  34.223   0.377  0.2831  0.0541 -0.2241
 5389W        W48405  22.363  29.349  22.917 -0.1451 -0.0622 -0.1847
 5390W        W48406  31.807   3.482  10.151 -0.0872 -0.1243 -0.0353
 5391W        W48407  15.292  27.517   1.352  0.0174 -0.0897 -0.1150
 5392W        W48408  10.128  18.321  17.109  0.0478  0.2611  0.4852
 5393W        W48409  13.275  11.881  22.075 -0.0365  0.1805 -0.0328
 5394W        W48410   7.280  12.666  24.966  0.0363 -0.4643  0.2118
 5395W        W48411  34.542  25.163  17.590 -0.2016  0.0042  0.1350
 5396W        W48412  30.176   1.699  16.359  0.0050  0.3001  0.2398
 5397W        W48413  29.596  24.257  17.688  0.0666  0.0698 -0.2635
 5398W        W48414  13.130   0.204  10.291  0.3651 -0.2984 -0.1289
 5399W        W48415  20.484  12.949  20.258  0.1872  0.5782 -0.5010
 5400W        W48416   1.317  16.212  27.415  0.0457  0.0486  0.1024
 5401W        W48417  19.781   9.329  16.691 -0.0833  0.0774  0.1107
 5402W        W48418  24.186   0.775  28.104  0.1397 -0.2007 -0.3674
 5403W        W48419  27.740   6.328   0.763  0.1409  0.2795 -0.3137
 5404W        W48420   2.629   4.070   1.952 -0.1933 -0.0950 -0.0151
 5405W        W48421   6.153  25.502  26.833  0.1935 -0.0220 -0.3751
 5406W        W48422  15.569   1.646  19.448 -0.4059  0.0303 -0.3059
 5407W        W48423   3.808  29.747   2.380  0.0385  0.0280 -0.0722
 5408W        W48424  15.679   1.913  16.098  0.1286 -0.0154 -0.0456
 5409W        W48425   0.783  10.509  27.784 -0.1936 -0.2162 -0.0495
 5410W        W48426  31.234   9.523  24.029 -0.1886 -0.1061 -0.0735
 5411W        W48427  24.768  27.426   1.158 -0.0416 -0.1584 -0.0643
 5412W        W48428  24.554  17.690   2.155 -0.0895 -0.3770  0.3634
 5413W        W48429   2.600   3.484   0.533 -0.1216 -0.0984 -0.0480
 5414W        W48430  11.943  19.655  17.285 -0.2241  0.1694  0.0226
 5415W        W48431  10.102   4.112  28.807 -0.1744  0.1592 -0.0717
 5416W        W48432   9.866  28.827  23.274 -0.0102  0.0010  0.0034
 5417W        W48433   1.042   3.132  20.964  0.2547  0.3447  0.5246
 5418W        W48434  28.119  14.318   0.945 -0.0157 -0.0690  0.0611
 5419W        W48435   1.769  16.337  19.125  0.2244 -0.0250  0.1735
 5420W        W48436  33.602   8.312  16.078 -0.0039  0.1120  0.0375
 5421W        W48437  29.077   0.185  23.074  0.0907  0.0293  0.0764
 5422W        W48438  17.756  26.166  25.126 -0.0217  0.1481 -0.1765
 5423W        W48439  29.264  32.318   7.521  0.0639  0.0105  0.0897
 5424W        W48440  18.828   6.978  20.158  0.0067 -0.0433 -0.1855
 5425W        W48441  31.461   2.766   9.575 -0.1106 -0.1229 -0.3034
 5426W        W48442  33.019  21.803  20.646  0.5420  0.3003  0.0453
 5427W        W48443   6.677   4.363  24.279 -0.2025  0.1776  0.2777
 5428W        W48444   3.726  33.634   6.107  0.1958  0.1555  0.0803
 5429W        W48445   8.897  23.601   2.977 -0.0768 -0.3304  0.0758
 5430W        W48446  23.570  28.841  22.613 -0.1596  0.0394  0.1348
 5431W        W48447  32.392   2.930  16.123  0.4403 -0.3023  0.0773
 5432W        W48448  33.570  21.784   3.414 -0.3465  0.2045  0.2132
 5433W        W48449   5.143  13.772  28.012  0.0278  0.4301  0.0459
 5434W        W48450  13.281  31.446   8.256 -0.1938  0.1039 -0.0054
 5435W        W48451   3.584  28.220  22.895  0.1763  0.1105  0.0789
 5436W        W48452   3.105  31.827  27.596 -0.2427  0.1680 -0.2056
 5437W        W48453  12.386   8.119  14.216  0.1681 -0.0980 -0.2699
 5438W        W48454  25.046  21.049   3.603 -0.0867  0.2412 -0.1439
 5439W        W48455   3.889  31.443  26.525 -0.1659 -0.0085  0.0606
 5440W        W48456  33.111  12.748   8.203  0.0657 -0.0610  0.0478
 5441W        W48457   2.616   3.084  29.147 -0.2186 -0.0136 -0.1854
 5442W        W48458   5.262  22.136  18.454  0.0683  0.1119  0.3591
 5443W        W48459   3.244  15.317  26.384 -0.2519  0.0966  0.1988
 5444W        W48460  30.100  25.068  18.813 -0.1559  0.0000  0.1068
 5445W        W48461  25.144   9.863   4.266 -0.0727  0.0292 -0.0571
 5446W        W48462  25.343  23.468  26.795  0.0916  0.2700  0.1420
 5447W        W48463  28.863  30.216  24.201  0.0758  0.0272  0.1514
 5448W        W48464   3.453   4.445  20.271  0.1160 -0.3487  0.2062
 5449W        W48465   4.551   4.283   3.925  0.1011 -0.1108  0.6177
 5450W        W48466  10.539  21.069   8.154 -0.0084 -0.1765  0.3242
 5451W        W48467  34.508  34.148   5.809  0.1857  0.1190  0.0104
 5452W        W48468  19.359  24.499  26.444  0.1230  0.0028  0.1402
 5453W        W48469  24.699  11.608  24.377 -0.1482 -0.2531  0.0813
 5454W        W48470  13.094  17.608  21.601  0.0795 -0.2696 -0.0291
 5455W        W48471   3.313  10.915  14.088 -0.2899 -0.2132 -0.0539
 5456W        W48472  26.204   2.605  23.795 -0.0658  0.2392  0.0197
 5457W        W48473   8.656   1.307  18.326 -0.1297 -0.0927 -0.1752
 5458W        W48474   3.600  32.098   1.690 -0.2423 -0.3621  0.0427
 5459W        W48475  28.526  15.391  27.530 -0.1993 -0.1304  0.5129
 5460W        W48476  31.782  23.990   7.875 -0.2939 -0.2649  0.0024
 5461W        W48477   5.612  27.476   6.315  0.2008 -0.3262 -0.5398
 5462W        W48478  13.755   5.469  18.294 -0.1427  0.4077 -0.0059
 5463W        W48479   9.420  18.273  27.741 -0.5346  0.0905 -0.0222
 5464W        W48480   1.405   4.404  23.979  0.3086  0.0512 -0.0273
 5465W        W48481  20.869  12.295  28.263 -0.2713  0.0337 -0.3139
 5466W        W48482  24.901   7.701  28.243  0.3059 -0.0252 -0.0829
 5467W        W48483   3.489   5.013   9.112  0.2624  0.2793  0.1695
 5468W        W48484  14.926  30.699  25.743  0.0665 -0.1521  0.0135
 5469W        W48485  32.972  23.527  27.944 -0.1184  0.1427  0.0157
 5470W        W48486  24.041   0.878   1.376  0.2259 -0.1151 -0.2411
 5471W        W48487  16.612   7.145   9.612  0.0336 -0.1324 -0.1288
 5472W        W48488  10.772   9.465  27.080 -0.1279  0.1204 -0.1538
 5473W        W48489   5.037  12.553  22.422 -0.1457  0.0273  0.0658
 5474W        W48490  11.820  20.087  24.052  0.0059  0.0175 -0.3524
 5475W        W48491   3.218   3.433  27.607 -0.2778  0.1645  0.1558
 5476W        W48492   4.102  27.474   5.111 -0.1718  0.0398 -0.0552
 5477W        W48493  29.849  33.926   5.900  0.1592 -0.1070  0.5778
 5478W        W48494   2.345  34.203   0.265  0.5078 -0.0968 -0.1898
 5479W        W48495  12.643  11.129   4.506  0.1780 -0.0672  0.1626
 5480W        W48496  25.752   4.781   3.784 -0.0419 -0.3193 -0.0264
 5481W        W48497  20.532   6.004  14.187 -0.1748 -0.1297  0.1043
 5482W        W48498   7.150   5.637   2.035 -0.0098  0.1458  0.0388
 5483W        W48499  31.108  33.392   1.899  0.0974 -0.0147 -0.1576
 5484W        W48500   3.922  32.275   0.832  0.0041 -0.1863  0.0177
 5485W        W48501  19.478  11.343  13.259 -0.0260 -0.0233  0.2730
 5486W        W48502   4.220  14.660  22.786 -0.1100 -0.0661  0.0030
 5487W        W48503  16.258  32.792   3.224  0.0837  0.0940  0.1989
 5488W        W48504  10.307   9.332  18.014 -0.2506 -0.1129 -0.2579
 5489W        W48505   5.714  13.754  28.205  0.0117  0.2055 -0.0959
 5490W        W48506  19.628  11.245  15.621 -0.2046 -0.0790 -0.1140
 5491W        W48507  28.481  20.218  15.609  0.1740 -0.1924  0.3014
 5492W        W48508  33.972  26.999   0.443 -0.0207 -0.0009  0.0169
 5493W        W48509  31.578  19.995  27.428 -0.2606 -0.0252  0.2688
 5494W        W48510  17.547  32.234   9.337 -0.2939 -0.1286 -0.2571
 5495W        W48511  33.042  31.438   5.556  0.3379 -0.0558  0.0969
 5496W        W48512  29.120  26.325   5.530  0.0544  0.2224 -0.0909
 5497W        W48513  29.758   6.886  27.183  0.1699 -0.4384  0.3169
 5498W        W48514  16.061   2.901  21.211  0.3702 -0.2944  0.1603
 5499W        W48515  33.370  33.221   3.739 -0.0162  0.0078 -0.1151
 5500W        W48516  25.528  10.816  26.180 -0.0619  0.1181  0.1458
 5501W        W48517   2.095  34.034   5.969  0.3010  0.1627 -0.2790
 5502W        W48518   4.383  25.120   4.529 -0.0873  0.1673 -0.2316
 5503W        W48519  10.225  10.132  20.107  0.1185 -0.1645  0.1766
 5504W        W48520  26.256  10.514   3.088  0.2293 -0.1107  0.3612
 5505W        W48521   4.721  27.920  27.922 -0.2656  0.2387  0.0191
 5506W        W48522  14.909   6.599   3.438 -0.3382 -0.1081 -0.2690
 5507W        W48523   6.109  23.772   4.738 -0.1166 -0.4807 -0.0446
 5508W        W48524   0.301  15.847  18.594  0.1678  0.0268 -0.0356
 5509W        W48525   1.661   7.990   3.824  0.2264  0.2394 -0.0894
 5510W        W48526  22.894   5.520  10.142  0.4376  0.0552  0.4191
 5511W        W48527   7.436  10.312   0.711  0.1181  0.1428  0.1933
 5512W        W48528  34.008   9.488   2.658 -0.0172  0.0263 -0.0244
 5513W        W48529   5.356  10.521  21.262  0.0767  0.3329 -0.0354
 5514W        W48530   5.375   7.735   6.111  0.2724  0.2381  0.1976
 5515W        W48531  31.634  15.523  20.821 -0.0931 -0.2909  0.1083
 5516W        W48532  30.242   2.823   8.423  0.1313 -0.1207  0.2953
 5517W        W48533  30.381  33.465   5.082 -0.0503  0.1700  0.2112
 5518W        W48534   2.201   8.094   8.604 -0.0048  0.1648 -0.0363
 5519W        W48535  18.389  18.111  28.350  0.1958  0.0610  0.3066
 5520W        W48536   9.967   8.885  22.396 -0.2494  0.0210  0.1415
 5521W        W48537  34.573  22.729  10.059 -0.0233 -0.1804  0.2054
 5522W        W48538  30.520  12.741   6.365  0.0425  0.5499  0.0636
 5523W        W48539   4.608  22.466   0.290  0.0153  0.0126  0.0064
 5524W        W48540   5.930   2.479   9.004  0.2620 -0.0800 -0.3291
 5525W        W48541  33.467  11.845   7.787 -0.2314 -0.1509  0.3315
 5526W        W48542  13.095  21.821  24.611 -0.3679 -0.3130  0.0759
 5527W        W48543   1.192   9.549   5.162  0.2621  0.0559  0.1185
 5528W        W48544  15.983  31.422  27.816  0.0841  0.1381 -0.1290
 5529W        W48545  11.791   3.918   7.903 -0.1401 -0.2400 -0.0459
 5530W        W48546  10.530   0.917  26.831 -0.0244 -0.0414 -0.0742
 5531W        W48547  24.351  31.526   0.400 -0.1268  0.0066 -0.3847
 5532W        W48548  20.612  27.777  15.218  0.2045 -0.1343 -0.1926
 5533W        W48549  22.126   0.310   7.026  0.1485 -0.2578 -0.2821
 5534W        W48550  30.305  14.391   7.351  0.1598 -0.0813  0.1035
 5535W        W48551   6.092  27.964   0.747 -0.1247 -0.1555 -0.1007
 5536W        W48552  33.448  28.252  27.761  0.1920 -0.1026 -0.2262
 5537W        W48553   3.544   5.740   8.447  0.1999  0.0316 -0.1494
 5538W        W48554  28.904   6.397   2.864  0.0467  0.0259 -0.1299
 5539W        W48555   3.044   5.395   7.277  0.2036  0.1756  0.0471
 5540W        W48556   8.073  25.176  29.298 -0.1087  0.0384 -0.3956
 5541W        W48557  29.827  14.495  25.631 -0.0690  0.2486 -0.2922
 5542W        W48558  32.124   1.649  22.808  0.1291 -0.2129  0.0119
 5543W        W48559   8.837   3.949   1.806 -0.0484  0.0287 -0.3552
 5544W        W48560  29.271  16.758  26.082 -0.0116  0.0013  0.0577
 5545W        W48561   0.455  34.425   6.023 -0.0958  0.3354 -0.3002
 5546W        W48562   2.457  21.223   5.121 -0.2046 -0.2479 -0.0729
 5547W        W48563  34.422  14.679  28.780 -0.1055 -0.1407 -0.0291
 5548W        W48564  32.774  18.727   4.120 -0.1695 -0.0051 -0.2584
 5549W        W48565   1.074  27.826  14.350  0.0360  0.0081 -0.0490
 5550W        W48566  29.331   4.350  19.078 -0.0725  0.0215  0.1671
 5551W        W48567  23.678  32.377  11.069 -0.1362 -0.1512  0.4721
 5552W        W48568  29.618   9.581   5.418  0.3157 -0.1551  0.0368
 5553W        W48569   5.440  10.904   2.808 -0.1375  0.1334 -0.5019
 5554W        W48570  17.908  15.592  14.301  0.1372  0.0834  0.1811
 5555W        W48571  32.727  16.031  26.816 -0.1011  0.0588  0.1886
 5556W        W48572  12.586   8.874  28.047 -0.2255 -0.4260 -0.1309
 5557W        W48573  24.959   2.775   2.291  0.0015  0.2500 -0.0884
 5558W        W48574   6.158  23.012   2.613  0.0960 -0.0479 -0.1590
 5559W        W48575   0.879  29.951  26.438 -0.3326  0.1392  0.0764
 5560W        W48576  23.989  14.837  24.549 -0.0587 -0.0918 -0.1457
 5561W        W48577   0.135  22.412  23.986 -0.1322  0.1964  0.4673
 5562W        W48578  25.520  30.753  10.146  0.4101  0.4026 -0.0191
 5563W        W48579  34.281  33.916  24.389 -0.0715  0.1807  0.0547
 5564W        W48580   0.613  33.232   3.463 -0.0869 -0.1060 -0.3090
 5565W        W48581  12.589  16.925  19.387 -0.2451 -0.0200  0.2961
 5566W        W48582   6.724  19.188  25.864 -0.1187  0.0930 -0.0240
 5567W        W48583  27.304  33.409   7.009 -0.2559  0.1008 -0.1009
 5568W        W48584   0.064  33.761  28.519 -0.1552 -0.0090  0.1054
 5569W        W48585   9.703  30.115  16.877 -0.1549  0.0877  0.2945
 5570W        W48586  30.109  20.161  19.578 -0.1518  0.3332 -0.4046
 5571W        W48587  14.509   3.845   5.431 -0.1103 -0.4291  0.2163
 5572W        W48588  18.509  16.028  19.774  0.0028  0.0509  0.0017
 5573W        W48589  32.198   7.973  20.192  0.0475 -0.1043  0.1485
 5574W        W48590   4.662   3.189  26.029 -0.0267 -0.1315 -0.0003
 5575W        W48591  34.450  24.810   8.187 -0.0828 -0.0857 -0.1345
 5576W        W48592  16.596  28.417   7.489 -0.1002  0.0126 -0.0881
 5577W        W48593   1.494  17.942   9.488 -0.1178 -0.1025 -0.0617
 5578W        W48594  27.761  32.849   2.761 -0.0032 -0.2578  0.2342
 5579W        W48595   0.935  23.260  27.066 -0.0711 -0.0987  0.4992
 5580W        W48596  26.571  17.586   9.673 -0.2294 -0.3587  0.0425
 5581W        W48597  32.496   3.965  21.873  0.0961  0.0434 -0.1660
 5582W        W48598  16.662   9.321  23.188  0.3912  0.2774  0.0520
 5583W        W48599  22.453  33.845  18.226 -0.2844 -0.3543  0.0130
 5584W        W48600  28.119   5.437   1.009 -0.0540 -0.2010  0.4529
 5585W        W48601  29.427   6.186  18.193  0.3750  0.0363 -0.0614
 5586W        W48602  30.994   4.626  14.998  0.2197 -0.2579 -0.0492
 5587W        W48603   9.157   3.278  15.337 -0.0184 -0.3492  0.3181
 5588W        W48604  33.391   8.160   1.511 -0.1207  0.0281 -0.2487
 5589W        W48605   1.008   7.256  23.905 -0.0326  0.2405  0.0509
 5590W        W48606   2.401  30.217  16.040  0.0691 -0.0190 -0.2248
 5591W        W48607   0.305   4.757  20.209  0.0195 -0.1255 -0.3556
 5592W        W48608   6.173   8.697  18.017  0.4165 -0.0604 -0.1205
 5593W        W48609   5.143   8.075  16.183  0.1770 -0.0703 -0.0356
 5594W        W48610  26.190   4.935  18.667 -0.2476 -0.1530 -0.1046
 5595W        W48611  32.375  25.314  19.794  0.2904  0.1275  0.0937
 5596W        W48612  29.220   0.397   2.059  0.2917 -0.1235  0.2786
 5597W        W48613  32.019  20.787  17.193 -0.0581 -0.2754 -0.0858
 5598W        W48614   8.421  30.825  16.212 -0.4571 -0.0026 -0.0738
 5599W        W48615  29.965   7.118  16.713 -0.0958 -0.1546 -0.4419
 5600W        W48616  21.990  31.464  22.462  0.0833  0.2384 -0.1146
 5601W        W48617  30.023  23.989  27.097  0.1015 -0.0195  0.4480
 5602W        W48618   5.937  15.899  18.921  0.2118 -0.1530  0.2453
 5603W        W48619  33.834   0.597  16.877 -0.3979 -0.1318  0.0311
 5604W        W48620   0.861  34.238  16.714 -0.1110 -0.0761 -0.0840
 5605W        W48621  26.629   0.778  25.730  0.2907  0.1249  0.4298
 5606W        W48622  25.633  14.135  13.784  0.1586 -0.0710 -0.1267
 5607W        W48623  27.895   9.793  18.188  0.3018 -0.1043  0.0849
 5608W        W48624  23.126   7.163   0.730 -0.0719 -0.1889 -0.1136
 5609W        W48625  20.710   4.678  23.787  0.3143 -0.1007  0.2259
 5610W        W48626  34.019   8.435  27.615  0.0295  0.0236 -0.1264
 5611W        W48627   9.311  30.070  14.757  0.0902 -0.4311  0.3178
 5612W        W48628  29.851  33.610  20.233 -0.1796  0.1782  0.2093
 5613W        W48629   1.894  27.822   1.906  0.0215  0.0943  0.2514
 5614W        W48630   8.569   1.260  20.779 -0.0726  0.0362 -0.2027
 5615W        W48631  11.633  14.398  15.962  0.0488  0.2626  0.0815
 5616W        W48632   8.496  33.616  20.048  0.1165  0.3482 -0.0983
 5617W        W48633   9.727  21.663  16.326 -0.1173 -0.2360 -0.2727
 5618W        W48634   9.181  33.652  23.729  0.0326 -0.0956 -0.3235
 5619W        W48635  15.566   0.397  22.493  0.4216  0.2285 -0.2286
 5620W        W48636   6.165   8.422  20.652 -0.3578 -0.0970  0.1325
 5621W        W48637   1.751  12.554  19.338 -0.0924  0.0297 -0.0724
 5622W        W48638  14.579   5.278  18.366 -0.0505  0.1896  0.0229
 5623W        W48639   1.236   7.440  22.673  0.1906  0.1874  0.1778
 5624W        W48640   7.112  31.032  27.035  0.2029 -0.1823 -0.3606
 5625W        W48641   8.979  14.523  23.667  0.0545  0.0552 -0.1215
 5626W        W48642   2.412  29.686  26.496 -0.1418  0.1474 -0.0704
 5627W        W48643  34.722  30.216   0.128 -0.1417 -0.0026  0.0664
 5628W        W48644  28.452  31.360   3.793 -0.0643 -0.0878  0.0408
 5629W        W48645  17.525   3.639  17.835  0.0574  0.0940  0.0247
 5630W        W48646  11.337  27.645  17.227  0.1831 -0.0782  0.1142
 5631W        W48647  32.377   9.382  21.895 -0.2429  0.0345 -0.1146
 5632W        W48648   3.541   6.763  23.384  0.0143 -0.0589  0.1353
 5633W        W48649  27.710   1.973  17.490  0.0052 -0.1387 -0.0907
 5634W        W48650  10.327  32.617  14.142 -0.2933 -0.2063 -0.1796
 5635W        W48651  13.095   2.145  22.178  0.3701  0.2103  0.0712
 5636W        W48652  11.608  21.146  16.261  0.2203 -0.1407 -0.2095
 5637W        W48653  22.604   2.993  15.288 -0.0153  0.1302  0.1784
 5638W        W48654   3.580  32.406  17.678 -0.0295 -0.1833  0.1528
 5639W        W48655  13.620  16.710  12.591 -0.2029  0.2994 -0.0351
 5640W        W48656  17.296   2.324  19.715  0.1224 -0.3230 -0.1928
 5641W        W48657  26.189   7.012  28.269 -0.1499  0.5734  0.1156
 5642W        W48658   8.427  12.914  15.638  0.2149 -0.0025 -0.0676
 5643W        W48659  22.554  15.514  12.986 -0.2394 -0.2616  0.1984
 5644W        W48660  34.136  13.171  19.348 -0.1297  0.1132 -0.1352
 5645W        W48661  23.795  28.474  22.204 -0.0904  0.1222 -0.0151
 5646W        W48662  14.898   2.207  22.624  0.0118 -0.1782  0.2347
 5647W        W48663  18.582  11.361  14.741 -0.4926 -0.0963  0.0002
 5648W        W48664   1.250  19.813  23.041 -0.1138 -0.1094  0.0650
 5649W        W48665  14.256  29.427  21.413  0.0143  0.0622  0.0336
 5650W        W48666   8.620   3.066   5.934 -0.0582  0.0287 -0.0556
 5651W        W48667  13.378   7.806  26.949 -0.1596  0.2647 -0.1474
 5652W        W48668   3.101  21.310  17.502 -0.2912  0.0581  0.1049
 5653W        W48669   7.853   0.903  18.013  0.0242  0.0738 -0.3247
 5654W        W48670   1.663  34.745  14.170 -0.3064  0.2200  0.3086
 5655W        W48671   8.990  11.783  17.397 -0.1882  0.2533 -0.0794
 5656W        W48672  34.287   6.965  25.024 -0.0999  0.0812  0.0506
 5657W        W48673   8.162   2.758  24.420  0.0856  0.0812 -0.0143
 5658W        W48674   1.989   7.514  23.257 -0.0734  0.0076  0.3587
 5659W        W48675   3.475   6.143  15.113 -0.0356  0.0743  0.0911
 5660W        W48676   2.184   9.964  23.546 -0.0216 -0.0298  0.0872
 5661W        W48677  15.931   9.774  24.564 -0.1551 -0.2824  0.4310
 5662W        W48678   9.795   7.951  16.387 -0.1792 -0.0504  0.0071
 5663W        W48679  11.413  15.517  26.729 -0.2492 -0.2562 -0.0441
 5664W        W48680   7.634   7.574  28.537 -0.0647  0.0081  0.0265
 5665W        W48681  28.271   9.326  27.888  0.0585 -0.0283  0.1722
 5666W        W48682   5.142  19.936  25.911 -0.1692  0.1730  0.2358
 5667W        W48683  31.851  16.778  20.446  0.0024  0.0424  0.1342
 5668W        W48684   4.078   2.009  20.290 -0.2853  0.3235 -0.0440
 5669W        W48685  11.763   2.871  13.652  0.1398 -0.0887 -0.0496
 5670W        W48686  29.180  23.246  28.142  0.1280 -0.1580  0.2240
 5671W        W48687   2.324   7.167  16.964  0.1405 -0.2460  0.0269
 5672W        W48688  12.829  31.892  18.233 -0.2645  0.3423 -0.1545
 5673W        W48689   4.064   0.977  13.918 -0.2906 -0.1130 -0.1068
 5674W        W48690  11.571   3.846  25.068 -0.0110 -0.0286  0.1684
 5675W        W48691  10.963   0.249  22.404 -0.2379 -0.2655 -0.1377
 5676W        W48692   3.864  11.557  17.956 -0.0035 -0.0433  0.2275
 5677W        W48693  29.113   2.869  19.746  0.0574  0.0433 -0.2009
 5678W        W48694   4.105   6.694  18.441  0.2716  0.0838  0.3073
 5679W        W48695   8.543  33.020  19.706  0.0514  0.1554 -0.4025
 5680W        W48696  16.245   8.931  24.231  0.1559  0.0349  0.0086
 5681W        W48697   7.163  34.417  19.845  0.2241  0.0898  0.0329
 5682W        W48698  31.119   0.890  27.629 -0.1739  0.2542  0.1451
 5683W        W48699  22.833   2.649  27.239  0.0148 -0.3331 -0.1617
 5684W        W48700  31.472   4.620  17.327 -0.2110  0.1291 -0.0613
 5685W        W48701   3.918  27.072   3.727 -0.0598 -0.0016 -0.0514
 5686W        W48702  32.905  32.319  18.208  0.3563 -0.1605  0.0935
 5687W        W48703  11.288  31.023   5.545 -0.4052 -0.0754 -0.0719
 5688W        W48704  22.029  30.839  24.329 -0.0501 -0.0596 -0.0007
 5689W        W48705   3.667  14.790  16.385  0.2626 -0.0536 -0.0266
 5690W        W48706   7.552  34.453  20.890 -0.3108 -0.2392  0.1217
 5691W        W48707  30.241   6.726  25.842 -0.1069 -0.1921 -0.0303
 5692W        W48708   1.980   5.350  26.825 -0.3085  0.3273  0.0687
 5693W        W48709   0.459   6.843  24.534  0.0172 -0.2888  0.0851
 5694W        W48710   7.462  32.938   1.568  0.1997 -0.2695 -0.1565
 5695W        W48711  31.040   2.932  28.256 -0.1022  0.0533 -0.0592
 5696W        W48712  28.911   7.576  21.211  0.0153  0.1213 -0.1163
 5697W        W48713  20.465  10.466  21.143 -0.1772  0.4883 -0.2111
 5698W        W48714  10.365  23.049  22.997 -0.0714 -0.3768  0.1748
 5699W        W48715   3.234   5.735  20.392  0.0924 -0.0922  0.0053
 5700W        W48716   1.751   7.377  25.692 -0.3356 -0.1281  0.0708
 5701W        W48717   4.594   3.510  18.064 -0.1253 -0.1511  0.1563
 5702W        W48718   9.396   5.248  17.771 -0.0557 -0.1975 -0.4011
 5703W        W48719   1.037   4.579  20.864  0.2091  0.0487  0.1735
 5704W        W48720   5.853   2.351   1.440  0.1486  0.2471 -0.0878
 5705W        W48721  28.327   7.093  19.786 -0.0369  0.1962 -0.0411
 5706W        W48722   8.995  34.490  20.827 -0.0323  0.1208  0.1073
 5707W        W48723  25.219   0.805   0.167  0.2139 -0.1568  0.2140
 5708W        W48724  34.742   4.010  14.357  0.2512  0.1818  0.0847
 5709W        W48725   4.854  19.486  18.132 -0.2331  0.1071 -0.0136
 5710W        W48726   1.027  32.315  28.526  0.1361  0.0721 -0.0491
 5711W        W48727  31.363   3.828  14.808 -0.1358 -0.1131  0.0825
 5712W        W48728   3.599   3.620  21.887  0.1307  0.1302 -0.3576
 5713W        W48729   6.699  34.062  24.241 -0.5732  0.1646 -0.1267
 5714W        W48730   1.427   7.754  21.820 -0.1795 -0.1376 -0.0516
 5715W        W48731   6.378  26.738  23.411 -0.1900  0.0635  0.0769
 5716W        W48732   3.701  30.659  14.036 -0.2445  0.0307  0.2686
 5717W        W48733  18.258  24.292  27.109 -0.2645  0.1450  0.0670
 5718W        W48734  16.789   6.053  14.696  0.1564  0.0794  0.1174
 5719W        W48735   9.289  29.894  21.441  0.0681 -0.0368  0.1593
 5720W        W48736  32.575  29.128  17.383 -0.1426  0.0670  0.0110
 5721W        W48737  16.553  32.614  16.792  0.2885  0.3184  0.1707
 5722W        W48738   0.795   1.356  17.165 -0.1460 -0.0422  0.1060
 5723W        W48739   7.194  12.578   0.228  0.0668  0.1301 -0.3192
 5724W        W48740   0.016   1.299   3.857  0.2391 -0.3516 -0.2118
 5725W        W48741   9.419  10.337  25.345 -0.0122  0.0702 -0.1326
 5726W        W48742   5.940   4.120  26.870 -0.2864  0.0951 -0.0529
 5727W        W48743   3.424   9.395  23.148 -0.3952  0.1674 -0.0896
 5728W        W48744  25.942   2.100   1.067  0.0167 -0.1268 -0.0923
 5729W        W48745  32.211   6.920  15.033  0.0265 -0.1358  0.1316
 5730W        W48746   4.337  14.456   4.337 -0.0565  0.2662  0.0522
 5731W        W48747   5.522  10.749  24.219 -0.3369 -0.4504  0.1283
 5732W        W48748  22.196  31.000  26.630 -0.0238  0.0637 -0.2314
 5733W        W48749   1.796  15.133  21.589 -0.1508  0.0629 -0.1275
 5734W        W48750   1.113  21.079   4.574  0.1330  0.3208  0.2369
 5735W        W48751   7.626  24.644  20.476 -0.0646  0.0988  0.3145
 5736W        W48752   2.264   5.557  23.246  0.0516  0.1070  0.2115
 5737W        W48753  25.068  30.191  20.704 -0.1837 -0.0619 -0.1825
 5738W        W48754  11.811  21.327   1.839  0.2681 -0.0824 -0.0594
 5739W        W48755   6.774   4.440  18.086 -0.1522 -0.1683 -0.0737
 5740W        W48756   5.980  15.842  19.866 -0.1257  0.0615 -0.1739
 5741W        W48757   5.053   4.498  24.908  0.0873 -0.0359 -0.3662
 5742W        W48758  12.086  10.374   0.009 -0.1240 -0.2678 -0.0210
 5743W        W48759  29.915  12.289  24.924  0.0597 -0.1830 -0.0157
 5744W        W48760  31.974   3.349  22.406 -0.0513  0.1077  0.0597
 5745W        W48761  28.736  34.069  23.497  0.0034 -0.1485 -0.0115
 5746W        W48762   4.527  26.537   3.974 -0.1104 -0.0496 -0.1425
 5747W        W48763  20.435   4.221  18.903  0.0065  0.1419  0.2630
 5748W        W48764  11.624   7.648  17.568  0.1830 -0.2423  0.1422
 5749W        W48765   9.439  18.057  17.684  0.1017  0.2629  0.0287
 5750W        W48766  13.325   0.717  18.478  0.0705 -0.0004  0.0115
 5751W        W48767  26.794  29.470   0.943 -0.0104  0.1568 -0.0174
 5752W        W48768  31.915   2.688   2.792 -0.0026  0.3629  0.0658
 5753W        W48769  25.466   9.990  26.167  0.1869 -0.1017  0.0578
 5754W        W48770  27.128   6.443  19.828 -0.1163  0.5036  0.1272
 5755W        W48771  34.149   1.017  17.803 -0.0335  0.0230 -0.0731
 5756W        W48772  21.213  26.722  14.112  0.2476  0.0496  0.2100
 5757W        W48773   2.249  11.329  20.725 -0.3046  0.2316 -0.0986
 5758W        W48774   8.655   8.180  17.299  0.1103  0.1640  0.0742
 5759W        W48775   5.067   9.299  18.307 -0.2821  0.0135  0.0420
 5760W        W48776  27.813  31.436   3.109  0.0477  0.2490  0.3615
 5761W        W48777   1.308  15.038   5.179  0.4963 -0.0798 -0.0145
 5762W        W48778  11.109   6.326  14.726 -0.3212  0.3057 -0.0996
 5763W        W48779  28.553  20.699  28.314  0.1401  0.1162  0.1524
 5764W        W48780  33.623   2.260  19.893 -0.2960 -0.0509 -0.0430
 5765W        W48781  34.079   8.794  21.004 -0.0500  0.0747 -0.1767
 5766W        W48782  31.028  11.671  14.151 -0.0804  0.0256 -0.3040
 5767W        W48783   9.174  13.617  23.916  0.1053  0.1538 -0.0307
 5768W        W48784  27.955  18.632  22.262 -0.2284 -0.1192  0.1011
 5769W        W48785  25.467  34.013   3.941 -0.0995 -0.1956  0.1204
 5770W        W48786  29.275   6.066  20.803  0.1344 -0.1013 -0.0425
 5771W        W48787  18.083   8.339  20.474  0.0954 -0.1213  0.0495
 5772W        W48788  25.600  17.982  16.353 -0.0564  0.2329  0.2332
 5773W        W48789  10.672  26.540  18.889 -0.1976 -0.0724 -0.2615
 5774W        W48790  20.108   8.536   4.608  0.1055 -0.1954 -0.2194
 5775W        W48791   7.241  25.552  18.450 -0.0558 -0.0410  0.1823
 5776W        W48792  26.182  11.221  19.835  0.1522 -0.1620  0.1860
 5777W        W48793   7.181  18.934   2.343  0.0171 -0.0068  0.0335
 5778W        W48794  20.776  29.847  18.195 -0.1521 -0.0516  0.0203
 5779W        W48795   6.455   5.051   0.852 -0.2114  0.1280 -0.1330
 5780W        W48796  10.597   8.194  16.444  0.0975 -0.0254 -0.2836
 5781W        W48797   5.607  30.862   4.961 -0.1197 -0.3085  0.2116
 5782W        W48798  27.827  12.119  28.629  0.2660  0.1831 -0.2405
 5783W        W48799   4.965   3.518   3.736  0.2466 -0.1400 -0.2547
 5784W        W48800  21.534  32.819  24.961  0.0849 -0.1277 -0.0926
 5785W        W48801   8.965   4.028  22.719 -0.1392 -0.1971 -0.3147
 5786W        W48802  30.919   1.454  24.092  0.0831  0.1397 -0.1049
 5787W        W48803   0.554  21.480  22.864  0.3044  0.0135 -0.0695
 5788W        W48804   8.579  10.750  19.577 -0.1510  0.2264 -0.1044
 5789W        W48805   9.705  24.560  15.969  0.0857 -0.0583  0.2028
 5790W        W48806   0.071   3.159  17.391 -0.3080  0.0158  0.1867
 5791W        W48807  30.280  25.907  21.340 -0.1331  0.1884 -0.0214
 5792W        W48808  27.183   7.855  19.473 -0.1013  0.3730  0.0672
 5793W        W48809  29.528  14.399  18.721 -0.2436  0.2240  0.1135
 5794W        W48810  14.078   5.007   7.236 -0.0145 -0.0390  0.1811
 5795W        W48811  19.505  33.448  16.093 -0.2607  0.3547 -0.1894
 5796W        W48812   8.836  33.418  14.768  0.1073  0.2148 -0.0203
 5797W        W48813   5.479  11.553  21.738 -0.0992 -0.0408 -0.0979
 5798W        W48814   4.199   3.075  15.981 -0.2329  0.1037 -0.2737
 5799W        W48815  31.673  11.292  14.445  0.1448 -0.1708  0.0369
 5800W        W48816  34.478   6.416  28.993  0.3475 -0.3066 -0.0375
 5801W        W48817   2.800  33.902  19.836  0.2133  0.0059  0.1195
 5802W        W48818   2.630  12.710  16.937 -0.0004 -0.3339  0.1491
 5803W        W48819   4.268  30.293  20.342 -0.1382 -0.1636  0.0670
 5804W        W48820  31.985  20.316  21.831  0.4088  0.3026 -0.2062
 5805W        W48821  28.042  11.655  24.655  0.0109  0.4212  0.1322
 5806W        W48822   6.784  10.413  23.707 -0.0975 -0.0152  0.1963
 5807W        W48823   0.685   9.781  14.174 -0.1024 -0.1624 -0.1436
 5808W        W48824   7.603  12.361  14.907 -0.2849  0.0857 -0.1526
 5809W        W48825  26.990  18.620  21.720 -0.0540  0.2220 -0.0987
 5810W        W48826   7.484   2.401  27.891 -0.0715 -0.0893  0.0318
 5811W        W48827   4.481  12.032  19.764  0.0393  0.1495 -0.0457
 5812W        W48828  33.671  17.957  15.588 -0.3109 -0.0988 -0.1371
 5813W        W48829   7.697  23.485  16.060  0.0579  0.1111 -0.0385
 5814W        W48830   1.101  10.284  19.189 -0.0237  0.1069 -0.1579
 5815W        W48831   0.832  15.160  21.721  0.1844  0.1808  0.0603
 5816W        W48832  19.415  13.202   5.949 -0.2605  0.3980 -0.2159
 5817W        W48833   4.210  17.947  13.448 -0.1849 -0.2659  0.0771
 5818W        W48834  29.007  32.942  15.858  0.2143 -0.2607  0.0268
 5819W        W48835  30.091   0.137  27.284  0.2376 -0.1472  0.1790
 5820W        W48836   8.717   8.296  25.666 -0.1105 -0.0996  0.2204
 5821W        W48837  31.838  27.248  18.512 -0.0043  0.1054  0.1146
 5822W        W48838  26.088  19.148  16.941  0.3053 -0.0766 -0.0207
 5823W        W48839  28.557   4.319  15.994 -0.1438 -0.0490 -0.0689
 5824W        W48840  11.179   9.240  25.046 -0.1059  0.0014 -0.2947
 5825W        W48841  28.283  30.848  23.211  0.2657  0.3241 -0.1860
 5826W        W48842  33.273  14.483  16.464 -0.0568 -0.0079 -0.0506
 5827W        W48843  29.688  34.490  17.948 -0.1768 -0.2098 -0.0907
 5828W        W48844  12.494   2.967  22.455 -0.2051 -0.0799 -0.1404
 5829W        W48845  18.212  14.237  14.021  0.0839 -0.0101 -0.0271
 5830W        W48846   3.729   4.888  18.606 -0.1229 -0.0395  0.0609
 5831W        W48847  29.254  30.004  23.632  0.2000  0.1626 -0.1449
 5832W        W48848  15.207  33.241  22.997  0.1228  0.2020 -0.2093
 5833W        W48849   5.441  13.136  28.744 -0.0610 -0.1038 -0.2375
 5834W        W48850   9.220  11.920  19.284  0.1204 -0.2510  0.0752
 5835W        W48851   3.752   1.352  26.584  0.3033  0.0479  0.0574
 5836W        W48852   2.349  32.565   7.076  0.0485  0.0237 -0.0064
 5837W        W48853  27.439  25.477  19.236 -0.3007 -0.1147 -0.1585
 5838W        W48854  34.283  31.818  20.173 -0.0424  0.0766 -0.0130
 5839W        W48855  12.323   7.894  15.209 -0.0823  0.0422  0.0211
 5840W        W48856  18.192   5.596  23.660  0.2942  0.1001  0.2861
 5841W        W48857   4.288  13.242  15.157 -0.3524  0.0667  0.1352
 5842W        W48858   7.957  12.363  13.778  0.2415 -0.1826 -0.1035
 5843W        W48859  24.701  10.760  17.893 -0.1537  0.0455  0.0638
 5844W        W48860  28.297  15.026  14.474  0.0019 -0.0249 -0.0812
 5845W        W48861  31.736  14.557  15.546  0.2833 -0.3228  0.0981
 5846W        W48862  29.868   7.013  23.665  0.2289  0.0744  0.0891
 5847W        W48863  25.159   1.168  20.099  0.1772 -0.1127 -0.0982
 5848W        W48864  31.964  31.934  17.272 -0.1022 -0.0342  0.1924
 5849W        W48865  33.376   4.482  18.404  0.4519 -0.0262  0.0492
 5850W        W48866  33.072   0.112  14.955 -0.0579  0.2546 -0.0897
 5851W        W48867   7.348  11.776  17.430 -0.4735 -0.0508 -0.0123
 5852W        W48868   7.764   4.775  22.006  0.1305 -0.1690  0.2077
 5853W        W48869   5.687   6.806  15.320 -0.0851 -0.1065  0.0626
 5854W        W48870  33.183   8.641  19.091  0.0059  0.3583 -0.0206
 5855W        W48871  27.910  16.096  17.021  0.4024  0.1434 -0.0781
 5856W        W48872   4.160   4.379  24.708 -0.0237  0.1173  0.0046
 5857W        W48873   2.843  14.627  26.149 -0.3341 -0.2715  0.4122
 5858W        W48874  30.571  25.279  19.100 -0.2821 -0.1419  0.0541
 5859W        W48875   4.336  11.796  24.073  0.5285 -0.0750 -0.2076
 5860W        W48876  33.326  34.418  25.861 -0.1332 -0.1270 -0.2387
 5861W        W48877  24.548  17.008  17.664  0.3181  0.2765 -0.1097
 5862W        W48878  14.888  11.721  13.069 -0.2861 -0.0214 -0.1931
 5863W        W48879  22.523  12.226  23.909  0.1445 -0.0509 -0.0426
 5864W        W48880   7.716  32.596  19.424  0.1038  0.0802 -0.1260
 5865W        W48881  11.485  20.702  24.687 -0.1997 -0.0322 -0.0591
 5866W        W48882  11.087  10.203  22.059 -0.3438 -0.0413 -0.3722
 5867W        W48883  18.176  10.644  23.084 -0.0268  0.4773 -0.1644
 5868W        W48884  32.152   8.881   8.309 -0.2151 -0.1688  0.1591
 5869W        W48885   6.390  32.120  24.144 -0.1044 -0.0916  0.1082
 5870W        W48886  30.693  26.661  28.890 -0.0673 -0.1586  0.0208
 5871W        W48887  32.517   6.132  21.527  0.1496  0.0563  0.0798
 5872W        W48888   7.286   5.383  25.527 -0.1199 -0.3039 -0.0478
 5873W        W48889   0.733  32.511   6.695  0.1269  0.4081 -0.0542
 5874W        W48890  31.113  11.573  19.827  0.0533  0.1227 -0.1526
 5875W        W48891  22.010  34.345  25.102  0.0845 -0.3200 -0.1052
 5876W        W48892  34.144   9.020  20.044 -0.0400 -0.0475 -0.0224
 5877W        W48893  26.088   2.869  16.880 -0.1039  0.1103 -0.0409
 5878W        W48894  18.470  30.149  19.444 -0.2104  0.2628  0.0101
 5879W        W48895  28.160   1.215  19.322  0.1804 -0.0766 -0.1098
 5880W        W48896  12.848   6.897  25.299  0.2449 -0.2320  0.1620
 5881W        W48897  31.561   8.266  22.742 -0.1056 -0.0535  0.3917
 5882W        W48898  25.221  27.849  18.592  0.2494 -0.1885 -0.1652
 5883W        W48899   7.889  22.113  25.293  0.0804  0.2262 -0.1641
 5884W        W48900  30.823  33.760  16.517  0.0060  0.2136 -0.4639
 5885W        W48901  32.817  17.637  17.907 -0.0489 -0.0655 -0.1834
 5886W        W48902   5.640  12.135  15.303  0.0986  0.0587 -0.0237
 5887W        W48903  34.185  24.675   4.635 -0.1491  0.3672 -0.1394
 5888W        W48904  13.257  11.043  18.194 -0.0060 -0.1558 -0.2464
 5889W        W48905   8.730   8.279  16.347 -0.2265 -0.0881  0.0442
 5890W        W48906  25.059   1.809   0.051  0.4388 -0.1652  0.1961
 5891W        W48907  27.357  16.091  21.551 -0.2260  0.1789 -0.2419
 5892W        W48908   3.065   8.411  25.023 -0.0955 -0.0545  0.0250
 5893W        W48909  33.905  12.063  27.652  0.1804 -0.0261 -0.0399
 5894W        W48910   1.982   5.621  27.187 -0.1397 -0.0482  0.2304
 5895W        W48911   3.524  16.407  17.697 -0.1800  0.2382  0.0443
 5896W        W48912  32.252   6.531  22.067 -0.1088 -0.1084 -0.4622
 5897W        W48913  25.982   9.763  17.835  0.1804 -0.1319 -0.0923
 5898W        W48914  14.234   7.302  18.737 -0.2360 -0.0426 -0.0629
 5899W        W48915  25.297   4.294  25.411  0.1241 -0.2909  0.2392
 5900W        W48916  22.296   3.211  17.523  0.1986 -0.2394 -0.1942
 5901W        W48917  33.671   6.040  24.799 -0.2158  0.2144  0.2072
 5902W        W48918  27.888  25.810  17.863 -0.0655 -0.1379  0.0043
 5903W        W48919   5.708   5.259  24.030 -0.2074  0.1855 -0.1399
 5904W        W48920  32.476   0.947  15.910  0.0621  0.0897 -0.2164
 5905W        W48921   0.172  12.465  20.123 -0.0917  0.1808 -0.2101
 5906W        W48922  29.253  34.118  27.638 -0.2730  0.0061  0.4171
 5907W        W48923  33.840   5.135  22.052 -0.1769  0.0237  0.0502
 5908W        W48924  29.020   8.154  26.523  0.3205 -0.2425  0.1601
 5909W        W48925   8.686  10.410  15.865 -0.1133 -0.0814  0.0487
 5910W        W48926  17.935   0.706  17.558 -0.0577  0.0858  0.1750
 5911W        W48927  33.391   8.302  25.141  0.0844 -0.0229  0.1374
 5912W        W48928  29.410  29.333  16.437  0.2545  0.0711 -0.0560
 5913W        W48929   1.591   8.486  20.984  0.1627 -0.0370 -0.1808
 5914W        W48930  29.778  25.579  20.058 -0.3600  0.1604 -0.3739
 5915W        W48931  18.886   4.306  14.559 -0.2496 -0.1383  0.1851
 5916W        W48932  25.348   7.202  18.559 -0.1324  0.2467  0.2495
 5917W        W48933   1.252   1.949  23.956  0.0121 -0.0502 -0.3992
 5918W        W48934   5.588   8.660  19.518 -0.1243 -0.1666  0.3132
 5919W        W48935  34.664   8.849  16.251 -0.1232 -0.1127 -0.1791
 5920W        W48936  26.308  24.750  21.299  0.0852 -0.0211  0.0272
 5921W        W48937   0.782  31.324  20.167  0.0739 -0.1889  0.1518
 5922W        W48938   6.167   4.325  18.971 -0.1773 -0.1168  0.2441
 5923W        W48939   5.763  27.070  14.933 -0.2356  0.0464 -0.3361
 5924W        W48940  20.642   9.347   4.502  0.1930  0.2593  0.1260
 5925W        W48941  10.931   1.652  23.069  0.0384  0.2126 -0.2931
 5926W        W48942  12.963  32.235  24.691  0.0929  0.1159 -0.2816
 5927W        W48943  22.187  31.282  20.526 -0.0533 -0.0102  0.0907
 5928W        W48944   0.713  24.569  16.367 -0.0996 -0.2095  0.1456
 5929W        W48945  28.106  30.923   9.997 -0.1688  0.1989 -0.0804
 5930W        W48946  12.159  24.761  20.932  0.1422  0.0682  0.4547
 5931W        W48947  34.663  27.154  14.356  0.0360 -0.0384  0.0989
 5932W        W48948  29.291   6.691  18.006  0.1147  0.2199  0.0990
 5933W        W48949   0.562  18.740   5.800  0.1987 -0.0115  0.2733
 5934W        W48950  14.224  28.637  24.525 -0.0213 -0.3817 -0.1065
 5935W        W48951  17.676  26.155  17.874  0.0160 -0.1163  0.1970
 5936W        W48952  16.835   4.269  14.238 -0.4721  0.0650 -0.0010
 5937W        W48953   6.342  23.080  18.811 -0.1170 -0.2698  0.0188
 5938W        W48954  26.828  27.248   9.125  0.2717  0.1347 -0.2763
 5939W        W48955  25.225  23.204  29.085  0.1406 -0.0586  0.0641
 5940W        W48956   2.996  33.697  17.544  0.0351 -0.0018  0.0310
 5941W        W48957   9.243  10.047  21.281 -0.1431 -0.1877 -0.3423
 5942W        W48958   8.666  15.228  13.984  0.1320  0.0808  0.0621
 5943W        W48959  26.978   8.165   5.640  0.3183 -0.0721 -0.0328
 5944W        W48960  22.832  24.733  21.042  0.1360  0.0482 -0.0773
 5945W        W48961  32.422  14.298  27.381 -0.1482  0.2994 -0.1141
 5946W        W48962  28.490  12.412  15.684  0.2989 -0.0143  0.0835
 5947W        W48963  34.456  27.648  26.680  0.0034  0.2628 -0.2090
 5948W        W48964   0.204   9.351  18.703  0.1460  0.1686 -0.2132
 5949W        W48965  29.060  28.050  15.318  0.1365  0.2639  0.1498
 5950W        W48966  30.804   6.797   7.089 -0.2037 -0.2113 -0.1052
 5951W        W48967   4.077   8.025  16.520  0.1303 -0.1654 -0.3084
 5952W        W48968   9.755   9.022  15.069  0.0347 -0.2359 -0.0182
 5953W        W48969  33.653  14.908  24.247  0.0516  0.0151  0.0887
 5954W        W48970  31.807   4.987  21.137  0.3329  0.0076  0.0028
 5955W        W48971   6.393  10.963  18.260 -0.0781  0.2567 -0.2616
 5956W        W48972  32.031  15.138  26.240  0.0415 -0.2418  0.3669
 5957W        W48973   7.686  14.034  24.787 -0.4358  0.1267 -0.1232
 5958W        W48974  32.501  15.858  21.505 -0.1154 -0.0960  0.2713
 5959W        W48975   5.591   6.927  15.879 -0.0165  0.0153  0.0048
 5960W        W48976   7.847   2.477  25.764 -0.2106  0.1606 -0.2177
 5961W        W48977  29.729  14.189   1.857 -0.1360  0.1862  0.1565
 5962W        W48978   0.914  19.158  20.129 -0.1205 -0.1899  0.2617
 5963W        W48979  28.533  31.853  11.014 -0.1398 -0.2503  0.0636
 5964W        W48980   3.603   9.735  16.071 -0.3403 -0.1342 -0.1576
 5965W        W48981   6.020  10.631  26.650 -0.2409  0.0601  0.0013
 5966W        W48982  26.526  24.614  15.994 -0.0571 -0.1829 -0.2744
 5967W        W48983  19.654  16.653  13.098 -0.0589  0.0378  0.1097
 5968W        W48984  23.394  12.300  22.648 -0.0567 -0.0438  0.1804
 5969W        W48985  33.493   0.292  26.845 -0.1061 -0.0419  0.1308
 5970W        W48986   9.829  34.767  18.408 -0.2919 -0.1833  0.2621
 5971W        W48987   5.623  34.749  18.915  0.1963  0.1770 -0.0410
 5972W        W48988   8.834  15.767  14.779  0.0566  0.0337 -0.1985
 5973W        W48989   1.223  15.053  21.479 -0.2522 -0.1995 -0.1913
 5974W        W48990  26.218  28.137   0.021 -0.1625  0.1645  0.3616
 5975W        W48991  27.656  10.236  29.018 -0.4517  0.2440 -0.0473
 5976W        W48992  27.330   7.195  15.530 -0.0290 -0.5510 -0.2485
 5977W        W48993  30.712  20.855   1.153  0.1163  0.1342 -0.1068
 5978W        W48994   6.676  13.568  18.185  0.1127  0.1174 -0.1107
 5979W        W48995   5.557  29.092  22.271  0.0761  0.4896 -0.1615
 5980W        W48996   4.256  33.557  23.989  0.0713 -0.4145  0.1883
 5981W        W48997  29.792  10.795  21.414 -0.3316 -0.0141 -0.3766
 5982W        W48998  32.830   9.916  14.018  0.0124 -0.0657 -0.2125
 5983W        W48999  27.086   5.342  19.673 -0.0663  0.2014 -0.1942
 5984W        W49000  30.109  33.240  23.399  0.1301 -0.0935  0.1389
 5985W        W49001  30.912   8.886  18.840 -0.0852  0.1123  0.1346
 5986W        W49002   0.306  22.895  25.539 -0.0312  0.0644  0.2174
 5987W        W49003  26.903   4.364  27.943  0.0042 -0.1969  0.0127
 5988W        W49004   4.729  30.171  19.022  0.2073 -0.3204 -0.0114
 5989W        W49005  34.359  31.147  17.232  0.0206 -0.1269 -0.0530
 5990W        W49006  28.106   0.392  19.451  0.0447  0.1810  0.0231
 5991W        W49007   7.499  15.483  19.593 -0.0658  0.2574  0.0056
 5992W        W49008  25.627  17.400  20.033 -0.2360  0.1250  0.0973
 5993W        W49009  30.239  14.764  28.212 -0.2444  0.1961 -0.0355
 5994W        W49010   4.372   7.114  26.770  0.1268  0.1336 -0.3658
 5995W        W49011   4.878  25.076  20.352  0.0208 -0.2849 -0.3296
 5996W        W49012   7.552   8.645  22.952  0.1172  0.3054 -0.2811
 5997W        W49013  26.025  33.012  17.307 -0.0603 -0.0299  0.0726
 5998W        W49014  34.269  25.303  16.200 -0.0102  0.1742  0.0664
 5999W        W49015   5.604  25.750  17.365  0.0539 -0.1592  0.0631
 6000W        W49016  24.169   7.747  27.563 -0.0900 -0.0949  0.1596
 6001W        W49017  21.301  22.191   3.607  0.3147  0.0502  0.1994
 6002W        W49018  12.047   1.565  13.737 -0.1609 -0.0575 -0.1962
 6003W        W49019   7.979  21.458  26.950  0.4579  0.2105 -0.0850
 6004W        W49020  33.186  17.852  23.762  0.3773 -0.1481  0.1252
 6005W        W49021  11.286   2.985  15.369 -0.2480  0.2756  0.0246
 6006W        W49022  12.448  11.841  18.585 -0.0089 -0.0893 -0.0742
 6007W        W49023  30.880  25.266  20.238 -0.2729 -0.1246 -0.1722
 6008W        W49024  33.307   1.165  17.593 -0.0830 -0.1480  0.1498
 6009W        W49025  30.706  23.611  21.367 -0.0331 -0.3814 -0.0516
 6010W        W49026  18.425  11.841  25.030 -0.3408 -0.0313 -0.0332
 6011W        W49027  31.120   0.460  24.800 -0.1360  0.0160  0.1551
 6012W        W49028  26.414   2.929  27.703 -0.0438 -0.0595  0.1949
 6013W        W49029  28.102   8.600   2.551 -0.0329  0.2143 -0.1208
 6014W        W49030   9.169  16.280  19.053 -0.1677 -0.5367 -0.1937
 6015W        W49031  29.283  24.058  22.544  0.1077  0.2121  0.0599
 6016W        W49032  28.291  23.434  26.917 -0.2890 -0.0308  0.1388
 6017W        W49033   3.829   6.859  16.120  0.0071 -0.1301  0.0125
 6018W        W49034   7.576   3.062  17.007  0.2270  0.0499 -0.1104
 6019W        W49035   3.648   1.428  21.324  0.1970  0.3053  0.0542
 6020W        W49036  13.558   9.316  18.238  0.0451  0.0375  0.2287
 6021W        W49037   5.724  11.022  25.895 -0.2422 -0.1275 -0.0606
 6022W        W49038  25.898   0.289  24.428  0.2322  0.2585  0.0852
 6023W        W49039  23.315  34.649  17.109 -0.2470 -0.3629  0.1022
 6024W        W49040   3.161  26.938  20.393  0.3335 -0.1460 -0.0955
 6025W        W49041   8.154  12.072  27.681 -0.1139  0.0270  0.2750
 6026W        W49042  32.404  23.308  26.758 -0.0884 -0.2411 -0.0632
 6027W        W49043  32.665  15.944  15.427  0.0519 -0.3028 -0.1872
 6028W        W49044   0.602   9.927  20.664 -0.1594 -0.0368  0.1877
 6029W        W49045   8.761  28.279  24.995  0.0383  0.1752 -0.0669
 6030W        W49046  31.424  12.925   1.467  0.2371 -0.1603  0.0400
 6031W        W49047   0.723   9.562   5.350  0.2037 -0.1286 -0.0193
 6032W        W49048  10.280   5.529  20.229  0.1256 -0.2255 -0.0720
 6033W        W49049  29.888  26.893  23.879  0.6383 -0.2304 -0.1094
 6034W        W49050  34.044  32.352   2.470  0.0308 -0.2239  0.1968
 6035W        W49051  24.187   1.669  15.301 -0.2312 -0.2288 -0.0019
 6036W        W49052  34.714   9.536  19.673 -0.1945  0.1648  0.0420
 6037W        W49053   5.477  33.134   4.907 -0.0294 -0.0783 -0.1475
 6038W        W49054  31.107   1.396  16.093 -0.0710 -0.1331 -0.0775
 6039W        W49055  26.110  13.244  26.937 -0.0653 -0.2081  0.1857
 6040W        W49056  29.312  29.549  26.216  0.0667 -0.2493  0.2779
 6041W        W49057   0.105  33.176   0.905  0.2033  0.0520  0.2204
 6042W        W49058   5.966  21.627  23.281  0.2848  0.0896  0.1105
 6043W        W49059   6.340   2.258   3.222 -0.3284  0.0401  0.0922
 6044W        W49060  30.051  24.793  20.679 -0.0176  0.1355 -0.2570
 6045W        W49061   4.497   9.222  16.887  0.1045  0.0061 -0.1894
 6046W        W49062   3.484  33.828  19.135  0.0964 -0.1197  0.3390
 6047W        W49063   6.885  14.004  17.002 -0.2777 -0.3342 -0.0860
 6048W        W49064  19.018  11.153  14.894  0.0581 -0.2591 -0.2204
 6049W        W49065  18.546  20.993  20.653 -0.3383  0.0331  0.0556
 6050W        W49066  30.472  31.485  22.040  0.1284 -0.1764 -0.1654
 6051W        W49067   0.186   4.731  20.752 -0.1988 -0.3653 -0.0513
 6052W        W49068   9.750  32.774   5.358  0.1155  0.1872  0.1015
 6053W        W49069   8.514  12.417  14.439  0.1554  0.2079 -0.3031
 6054W        W49070   0.905   9.801   3.869 -0.1248  0.0078  0.0560
 6055W        W49071  16.879  32.111  17.462  0.0644  0.0861  0.4736
 6056W        W49072  27.229   2.384  18.858 -0.0424 -0.2612 -0.0501
 6057W        W49073  25.273   1.981  26.542  0.3988  0.0678  0.3927
 6058W        W49074   1.819  10.147  13.884 -0.1551  0.2875 -0.0366
 6059W        W49075  11.104  32.029  16.001  0.0690 -0.1945 -0.1438
 6060W        W49076   2.837  10.133   7.427  0.3128 -0.1566  0.1941
 6061W        W49077  18.876   8.200   0.737 -0.0811  0.0342  0.0640
 6062W        W49078   0.384   4.288  20.019 -0.1150 -0.1352 -0.1566
 6063W        W49079  30.420  26.246  21.686  0.3473 -0.1246 -0.1230
 6064W        W49080   3.567   0.344   6.691  0.2652 -0.0652 -0.0134
 6065W        W49081  20.711  33.696  14.806 -0.0634  0.2069  0.1805
 6066W        W49082  26.288   9.958  15.941  0.1690 -0.1190  0.0085
 6067W        W49083  25.884   0.482  18.144 -0.1912 -0.0734 -0.1721
 6068W        W49084   4.482  34.609  16.897  0.0532 -0.1653  0.4486
 6069W        W49085  19.652  27.087   2.264  0.0337  0.0838 -0.1816
 6070W        W49086   8.915  10.918  21.957 -0.2005  0.2081  0.1168
 6071W        W49087   8.817   7.912   8.988 -0.0054 -0.2291 -0.0200
 6072W        W49088   5.302   0.674  20.705  0.1387 -0.3034 -0.1276
 6073W        W49089  29.579  34.071  17.106  0.1055  0.1869  0.0450
 6074W        W49090  33.630   8.732  24.408  0.1145 -0.1799 -0.1628
 6075W        W49091  24.125  32.861  19.556 -0.0787 -0.2296 -0.3808
 6076W        W49092  23.756  33.102  24.863  0.2348  0.2435 -0.1877
 6077W        W49093  26.541   9.539  19.886 -0.0416 -0.1919  0.0008
 6078W        W49094   1.733  30.480  21.732 -0.2284  0.0829 -0.0566
 6079W        W49095  27.648  23.597  22.152  0.3067 -0.2912  0.4172
 6080W        W49096  31.722  34.597  19.428 -0.2586 -0.0186  0.1277
 6081W        W49097  17.996  27.881  19.212 -0.2124  0.0733  0.0497
 6082W        W49098  33.280  13.155  22.116 -0.3140  0.0761 -0.0174
 6083W        W49099  10.209   2.216  19.441  0.1281 -0.0928  0.0860
 6084W        W49100   1.576  34.490   9.894  0.1876 -0.0641 -0.0566
 6085W        W49101  32.545  21.038  17.196 -0.1468 -0.5450  0.0959
 6086W        W49102  26.824   7.010  24.030  0.1377 -0.1378 -0.0356
 6087W        W49103   6.718  25.490  23.095  0.3058  0.0519 -0.1746
 6088W        W49104  25.607   1.883  23.953  0.1317  0.1776  0.1693
 6089W        W49105   6.505  32.694  14.864 -0.0505 -0.0330 -0.1602
 6090W        W49106   0.238   1.292  20.550  0.1288  0.0817  0.1216
 6091W        W49107   5.188   4.540   0.322  0.1598  0.1630  0.2049
 6092W        W49108  10.121  15.516  22.832 -0.1606 -0.1700 -0.1368
 6093W        W49109  12.565   5.916   1.618 -0.1364  0.2718 -0.0180
 6094W        W49110  32.707  29.931  21.386  0.3122 -0.0099  0.1478
 6095W        W49111   1.442  34.351  27.062  0.0569 -0.1556 -0.3140
 6096W        W49112  30.217  14.399  14.714  0.0383  0.0782 -0.0579
 6097W        W49113  15.610  29.581  10.531 -0.2447  0.1051  0.0400
 6098W        W49114  23.577  32.032  23.379  0.0008  0.0193 -0.0614
 6099W        W49115  34.359   4.987  23.298  0.2769  0.2890 -0.0298
 6100W        W49116   0.156   8.643  24.984  0.0245 -0.1317  0.0206
 6101W        W49117   1.275   3.955  24.048 -0.0685  0.1203 -0.1004
 6102W        W49118  25.279  34.178  17.175  0.3288 -0.2018 -0.2595
 6103W        W49119   9.965  15.025  14.314 -0.2188 -0.0478 -0.0369
 6104W        W49120  13.601   5.198  20.779 -0.0932  0.1684  0.1508
 6105W        W49121  28.082  27.183  23.740  0.0823  0.1514  0.4376
 6106W        W49122  15.766  12.436  26.047  0.1073  0.3727  0.0131
 6107W        W49123   3.537  33.369  27.534 -0.1752 -0.3470  0.1809
 6108W        W49124   4.436   0.426  15.124  0.2347  0.0408  0.0461
 6109W        W49125   6.201   7.222  15.774 -0.0080 -0.0471  0.0386
 6110W        W49126  20.046  32.075  18.606 -0.4492 -0.1463  0.0575
 6111W        W49127  33.885   7.337  16.794  0.0124  0.1350 -0.2886
 6112W        W49128  30.265  25.887  16.485 -0.2180 -0.1781  0.0350
 6113W        W49129   5.106   4.047  20.001  0.0380  0.1597 -0.0341
 6114W        W49130  29.961   6.218   0.442 -0.1565  0.1537 -0.1384
 6115W        W49131   3.523   5.826  17.205  0.0062  0.0884 -0.0931
 6116W        W49132  31.791  27.207  22.415 -0.3521 -0.4393 -0.0404
 6117W        W49133  10.551   1.923   4.897 -0.0933  0.1550  0.1350
 6118W        W49134  31.043  32.149   7.142  0.1697 -0.1952  0.1808
 6119W        W49135  31.780   6.233   8.728  0.1792  0.1849  0.2249
 6120W        W49136  28.421  29.183   7.327  0.0065  0.3214 -0.2406
 6121W        W49137  14.436   0.233  16.455  0.2307 -0.1697 -0.0046
 6122W        W49138   6.328  16.052  28.938 -0.1614 -0.1029  0.2817
 6123W        W49139  19.305   3.759  15.302  0.2431 -0.0560  0.1171
 6124W        W49140  26.079  31.670   4.970 -0.1614  0.2898  0.1461
 6125W        W49141  30.969  34.379  24.916 -0.0712 -0.1739  0.0013
 6126W        W49142   0.672  27.557   1.896 -0.2758 -0.0802  0.3272
 6127W        W49143   1.626  15.436  17.694  0.3381 -0.3028 -0.1668
 6128W        W49144   9.702  13.115  15.590 -0.1213  0.0626 -0.2603
 6129W        W49145  13.017   7.998  15.290 -0.0439 -0.2418  0.0847
 6130W        W49146   0.625  15.813  17.231 -0.3134  0.1382  0.3602
 6131W        W49147   1.101   6.365  17.063  0.1654  0.3958 -0.0450
 6132W        W49148  34.008  15.833   9.944  0.2547 -0.2855 -0.1102
 6133W        W49149  17.669  19.697  14.619 -0.0300 -0.0180  0.0926
 6134W        W49150  26.265  11.251  28.666 -0.0787  0.1192  0.1526
 6135W        W49151  32.298  23.548  16.317  0.2473  0.2411  0.0082
 6136W        W49152  30.522  17.524  22.285  0.0091  0.0315  0.1179
 6137W        W49153  23.840  12.978  14.582  0.0717  0.3005 -0.1366
 6138W        W49154  21.628  11.611  16.855 -0.1649 -0.0703  0.0884
 6139W        W49155  22.463   6.875  16.847  0.3964 -0.0784  0.4217
 6140W        W49156  29.991  28.740  16.417  0.0994 -0.0904 -0.4190
 6141W        W49157  13.762  31.981  21.482 -0.1236 -0.0627 -0.3328
 6142W        W49158   5.203  26.930  16.100  0.0913 -0.1035  0.3119
 6143W        W49159  31.891  23.077  27.513 -0.3246 -0.2210 -0.0442
 6144W        W49160  32.774  10.453  14.734 -0.3339 -0.0640 -0.2216
 6145W        W49161   9.268   2.767  24.309  0.1908  0.1928  0.2534
 6146W        W49162   9.240  11.792   4.839 -0.1003  0.0404 -0.0013
 6147W        W49163   0.752   0.144  19.084  0.3333  0.0395 -0.0137
 6148W        W49164  13.474   1.308  25.885 -0.1434  0.0785  0.3137
 6149W        W49165   6.176  20.782   4.373  0.2230 -0.2672 -0.1603
 6150W        W49166  22.228  15.076  19.025  0.1057 -0.1197  0.0124
 6151W        W49167  31.949  33.808  20.227 -0.0193  0.1077 -0.4069
 6152W        W49168  17.564  16.425  12.200 -0.0364 -0.0392 -0.1508
 6153W        W49169  32.189  18.494  18.747 -0.3976 -0.5098 -0.3528
 6154W        W49170   4.756   3.735  18.987 -0.1109 -0.2963  0.3337
 6155W        W49171   3.829  34.594  16.261  0.1936 -0.1441  0.1214
 6156W        W49172  32.472   1.381   5.918 -0.0870  0.1851 -0.0161
 6157W        W49173  32.486   9.853  23.507 -0.2371  0.3141 -0.0009
 6158W        W49174  26.671   2.136  15.905 -0.0934  0.1256 -0.0799
 6159W        W49175  13.849  34.689  15.388  0.1808  0.0395  0.2165
 6160W        W49176  23.149   5.111  18.183  0.1517  0.0043  0.2127
 6161W        W49177  31.304   8.512  25.533 -0.1804 -0.1213  0.0205
 6162W        W49178   2.150  15.166  24.849  0.1574  0.0212 -0.0027
 6163W        W49179  34.729  21.134   6.988  0.1900  0.0965  0.2052
 6164W        W49180  12.779   6.932  23.634 -0.0662  0.0938  0.1057
 6165W        W49181   5.446  21.606  18.963 -0.2138  0.0805  0.2593
 6166W        W49182  29.907   8.370   0.047  0.1247  0.2452  0.0123
 6167W        W49183  33.092   2.460  17.639  0.0393  0.2067 -0.0368
 6168W        W49184  33.704  10.560  24.268 -0.1780  0.2555 -0.1753
 6169W        W49185  20.487  30.105   4.267 -0.3032 -0.2658 -0.0429
 6170W        W49186   1.698   1.219  23.674 -0.0353  0.2190 -0.0286
 6171W        W49187  18.613  23.756  20.818 -0.0668  0.3381 -0.0145
 6172W        W49188  30.494   5.107   5.086 -0.0456 -0.0603 -0.0670
 6173W        W49189   3.545  33.481  20.105 -0.1225  0.0742 -0.0819
 6174W        W49190   1.172  31.157  22.807 -0.0570 -0.0650  0.1582
 6175W        W49191   9.467  14.070  21.078 -0.1095 -0.0563 -0.0663
 6176W        W49192  33.113   3.436  16.956 -0.2074 -0.3132 -0.3052
 6177W        W49193   0.389  10.426  28.107 -0.0383 -0.4758 -0.1149
 6178W        W49194  18.855  34.626  22.633  0.1307 -0.1849 -0.0272
 6179W        W49195   4.560   1.225  13.756  0.0235 -0.0444 -0.0947
 6180W        W49196  18.967  30.628  23.979 -0.2322 -0.0338  0.5245
 6181W        W49197   6.486  21.497  15.170 -0.0172 -0.2284  0.3370
 6182W        W49198  12.037  31.854  16.242  0.1502  0.2260  0.3123
 6183W        W49199  34.691  23.575  28.277 -0.1187  0.0251  0.3396
 6184W        W49200   4.767   7.413  28.185  0.1327  0.1057 -0.2343
 6185W        W49201  34.515   5.358  15.129 -0.1138  0.0177 -0.1686
 6186W        W49202  21.417   8.325  19.153 -0.0052 -0.0108 -0.1058
 6187W        W49203  30.339  22.104  15.477 -0.1466 -0.2445 -0.0301
 6188W        W49204   3.238  12.117  22.778 -0.1547 -0.1927  0.0994
 6189W        W49205  26.626  28.550  26.720  0.0898  0.0439 -0.2253
 6190W        W49206  31.789   6.472  14.932  0.2056 -0.0883 -0.4974
 6191W        W49207  32.111  30.989  21.954  0.0920  0.0009  0.2000
 6192W        W49208  28.520  11.437  17.932  0.0269 -0.1787 -0.3579
 6193W        W49209  34.026   0.375  20.908 -0.0723 -0.0867  0.0860
 6194W        W49210  27.286   4.904  25.784  0.1922  0.0638  0.2597
 6195W        W49211   6.477  24.758  27.321  0.0552 -0.2637  0.0347
 6196W        W49212   3.159  10.653  19.120 -0.1961  0.0054  0.0965
 6197W        W49213   3.601   5.832  28.404  0.2751 -0.1556 -0.0250
 6198W        W49214  33.307  11.757  23.478  0.0787 -0.0111 -0.0017
 6199W        W49215   3.161   8.226  19.961  0.2146 -0.1520  0.1170
 6200W        W49216  27.890   7.228  23.622 -0.0707 -0.0115  0.3087
 6201W        W49217   7.412   0.409  17.565  0.4965 -0.0624 -0.2077
 6202W        W49218   3.929   3.145  25.382 -0.0515 -0.1049 -0.1815
 6203W        W49219   2.789  13.701  19.039 -0.1130  0.0047  0.2263
 6204W        W49220  20.017  32.738  18.800  0.2968 -0.2624 -0.1281
 6205W        W49221  11.937  32.243  26.250  0.1216  0.2298 -0.1062
 6206W        W49222  30.765  32.606  19.153 -0.1131  0.0517 -0.1482
 6207W        W49223  15.335   7.627  17.425 -0.3321  0.1291 -0.0263
 6208W        W49224  30.493  21.638  25.069  0.0265 -0.0924  0.1288
 6209W        W49225   7.984   0.235  24.890  0.0113  0.0628  0.2574
 6210W        W49226  28.135   0.410  25.149  0.1924 -0.5729  0.1609
 6211W        W49227   3.660  13.196  25.712  0.3498  0.2043 -0.0012
 6212W        W49228  25.485   2.585  23.336  0.0183  0.0090  0.1958
 6213W        W49229  34.316   6.643  19.117 -0.0992 -0.0218 -0.1691
 6214W        W49230  25.492   7.242  21.655 -0.1266  0.0745  0.2953
 6215W        W49231   3.148   5.008  15.879  0.2312 -0.0134  0.3020
 6216W        W49232  26.205   5.306  27.922 -0.5442  0.0414 -0.1510
 6217W        W49233   2.431   8.134  19.073 -0.0930 -0.1009  0.0601
 6218W        W49234   3.104   6.937  22.405  0.1025  0.0609 -0.1039
 6219W        W49235  22.464  34.543  18.877 -0.0059  0.0749 -0.0987
 6220W        W49236   3.332   5.903  18.629 -0.0422 -0.0763  0.1668
 6221W        W49237  30.587  15.076  21.570  0.0024  0.0264 -0.0103
 6222W        W49238  12.406   0.253  13.811 -0.4658 -0.1667 -0.0977
 6223W        W49239  24.346  33.953  22.391 -0.3595 -0.0297  0.0344
 6224W        W49240  17.337   2.542  23.160  0.0743 -0.0581  0.1358
 6225W        W49241  20.970   7.455  15.860 -0.0631  0.2899  0.1112
 6226W        W49242   1.269  34.204   8.652 -0.3075  0.2247 -0.0210
 6227W        W49243   1.156   3.080  16.129 -0.0700 -0.0767  0.0289
 6228W        W49244  26.922   9.613  22.144  0.0053 -0.0123 -0.1310
 6229W        W49245  10.561  33.689  19.663  0.0243  0.0011  0.0073
 6230W        W49246   2.050   6.377  23.630  0.0389 -0.4924 -0.1020
 6231W        W49247   1.159  11.108  18.033 -0.2811 -0.0808  0.2836
 6232W        W49248  12.179  27.373  26.635 -0.1185 -0.0586  0.0790
 6233W        W49249   4.604   9.222  21.851  0.0568  0.0197 -0.1070
 6234W        W49250  30.567   5.134  21.707 -0.0023  0.1684 -0.0795
 6235W        W49251  30.869  11.664  15.015  0.0079  0.0733  0.2581
 6236W        W49252   6.643  28.329  19.818  0.0289 -0.1653 -0.1437
 6237W        W49253  32.509   2.983  22.779  0.1505  0.0435  0.0522
 6238W        W49254  27.142   5.939  23.609  0.0690  0.0744 -0.1020
 6239W        W49255  32.963   6.694  20.707  0.5130 -0.1741  0.4383
 6240W        W49256  13.682   4.511  24.440  0.2444  0.4981  0.1762
 6241W        W49257  27.242   0.339  16.524  0.0782  0.3068  0.0238
 6242W        W49258  28.075  21.644   0.870  0.1400  0.1255 -0.0839
 6243W        W49259  19.354   3.741  23.257 -0.2044  0.0230 -0.0961
 6244W        W49260  33.904   7.428   3.829 -0.2025 -0.3269  0.2557
 6245W        W49261   4.265  10.689  15.411 -0.0334 -0.1993  0.2952
 6246W        W49262  29.540  33.374  22.212  0.0294 -0.0790  0.1476
 6247W        W49263   9.285  34.364  25.719 -0.0220 -0.1572 -0.0982
 6248W        W49264   1.886  29.861  26.540 -0.0430  0.1865  0.0072
 6249W        W49265  17.432   6.416  18.752 -0.4441  0.0505  0.0704
 6250W        W49266  30.339  27.328  25.995  0.4194 -0.4998  0.0967
 6251W        W49267   3.549  30.882   2.969 -0.0121  0.1884 -0.2232
 6252W        W49268   2.891   0.702  25.619 -0.2529  0.0036 -0.0431
 6253W        W49269  29.315  16.399  19.744  0.1195 -0.3223  0.1717
 6254W        W49270  28.114   4.762  17.019 -0.0330  0.0814 -0.4006
 6255W        W49271  29.655  16.152  14.693  0.1408 -0.3789  0.1820
 6256W        W49272   0.469  14.743  25.507  0.1304 -0.2912  0.1424
 6257W        W49273  18.334  32.373  17.567  0.0929 -0.3576 -0.1918
 6258W        W49274  28.686  34.659  20.907 -0.0542  0.0591  0.1535
 6259W        W49275  32.511   6.744  16.167  0.2302 -0.1237  0.1699
 6260W        W49276  34.627   8.613   2.763  0.2728 -0.5629  0.1716
 6261W        W49277   5.483   4.925  17.345  0.0802 -0.0184  0.1061
 6262W        W49278   7.296   3.764  24.958  0.3317  0.1301 -0.0038
 6263W        W49279  32.591  29.656  20.170  0.0620  0.0465 -0.0414
 6264W        W49280  32.476   2.956  24.718 -0.0208 -0.1118  0.0424
 6265W        W49281  30.682   4.604  20.582 -0.0603 -0.3377 -0.1223
 6266W        W49282   3.925  31.500  13.687 -0.2483  0.4593  0.4122
 6267W        W49283   7.910  22.607  23.781  0.2767  0.1293 -0.1069
 6268W        W49284   2.751  25.069   2.240 -0.0309  0.2156 -0.3975
 6269W        W49285  27.927   5.540  18.288  0.3065 -0.3574  0.2192
 6270W        W49286   2.406   9.559   4.932  0.0972 -0.0353  0.2823
 6271W        W49287  34.071  31.606  17.041 -0.2388  0.0372  0.0409
 6272W        W49288   6.453  10.439  24.101 -0.0035  0.1157  0.1580
 6273W        W49289   2.901   4.297   2.331  0.2169 -0.2561 -0.0305
 6274W        W49290  30.735   3.382  15.020  0.1212 -0.2184 -0.0626
 6275W        W49291   1.809   7.070  25.228 -0.1562 -0.1529  0.4247
 6276W        W49292  26.323   7.720  19.263  0.1424  0.0015 -0.3109
 6277W        W49293  21.802   9.461  15.355  0.2007  0.1548 -0.1588
 6278W        W49294  30.518   8.418  26.716  0.4002 -0.1192  0.0046
 6279W        W49295   4.164  20.895  28.725 -0.4632  0.2191  0.1696
 6280W        W49296   7.728  22.413  15.710 -0.1114 -0.1926  0.1020
 6281W        W49297  16.259  21.069  22.516  0.0607  0.1881  0.1117
 6282W        W49298  12.479  25.483   0.380  0.1101  0.2221 -0.2436
 6283W        W49299  24.936  22.470  21.667 -0.3091 -0.1976  0.2065
 6284W        W49300  29.732  15.009  17.665  0.1966  0.1147 -0.2903
 6285W        W49301   7.121  10.359  18.723 -0.1645  0.1292 -0.0349
 6286W        W49302   4.831  25.854  14.867 -0.2510 -0.0864  0.1462
 6287W        W49303  24.924  27.204  28.841 -0.0463 -0.1296  0.0889
 6288W        W49304   1.450   7.576  28.039  0.0623  0.4289 -0.0927
 6289W        W49305   5.966   6.935  14.395  0.1711 -0.3750 -0.3570
 6290W        W49306   1.732   6.753  19.351  0.1553  0.2435 -0.1298
 6291W        W49307  24.916  13.577  16.820  0.1066 -0.0708 -0.4144
 6292W        W49308  16.896   4.521  15.566  0.0194 -0.0780 -0.0135
 6293W        W49309  32.275   6.582  17.259 -0.2671 -0.0720  0.1272
 6294W        W49310   3.306  13.545  24.768  0.1507  0.0836  0.1924
 6295W        W49311   1.868  24.420   7.815  0.2097  0.0449 -0.0952
 6296W        W49312   1.948  24.121  14.438 -0.0867 -0.2441  0.0447
 6297W        W49313   7.979   3.181  16.696 -0.0903  0.2001 -0.3396
 6298W        W49314   0.717  16.204  25.944 -0.1460 -0.0736 -0.0632
 6299W        W49315  29.559   5.577  17.531 -0.2069 -0.1655  0.2545
 6300W        W49316  30.141  33.389  28.478  0.0071 -0.0973  0.0245
 6301W        W49317  26.784  32.851  24.226  0.3623 -0.1679  0.0447
 6302W        W49318  12.476   6.019  17.748 -0.0402 -0.1504  0.2995
 6303W        W49319  16.524   7.235  22.484  0.1112  0.0255 -0.0543
 6304W        W49320  32.370  24.389   2.396 -0.0853 -0.1388  0.2053
 6305W        W49321  29.777  29.252   5.332 -0.0564 -0.0102  0.3862
 6306W        W49322   7.939   1.045   3.817  0.0626  0.1899 -0.5602
 6307W        W49323  31.414   6.986  21.153 -0.1763 -0.1585 -0.0443
 6308W        W49324   1.957  31.107   9.075 -0.1492  0.0777 -0.0255
 6309W        W49325  31.581   9.229  21.613 -0.0300 -0.0701  0.2350
 6310W        W49326  26.643   3.292  17.256  0.0116 -0.1865 -0.0466
 6311W        W49327   0.710  26.013  20.956  0.1702  0.0749 -0.2547
 6312W        W49328   0.538  14.028  18.686 -0.4066  0.1954  0.3521
 6313W        W49329   9.959  29.861  26.688  0.2414  0.0490  0.2387
 6314W        W49330  11.399  14.707  16.827 -0.1310  0.0493  0.1764
 6315W        W49331   5.144  32.164  24.572  0.3187  0.2448  0.3340
 6316W        W49332   3.825   5.669  14.846 -0.1345  0.0814 -0.0671
 6317W        W49333  32.317  13.525  20.510  0.0514 -0.2137 -0.0309
 6318W        W49334   7.189   1.921  17.145  0.1440  0.4505  0.0293
 6319W        W49335  16.575   2.761  26.594 -0.1089 -0.0298  0.1778
 6320W        W49336  16.570   6.472  16.564  0.2741  0.0402 -0.1090
 6321W        W49337  32.976   8.521   0.743  0.2543 -0.4426  0.0392
 6322W        W49338  31.156  13.913   2.438  0.0060  0.0732 -0.1271
 6323W        W49339  19.726  28.931  18.372 -0.0235 -0.1529  0.0117
 6324W        W49340   5.524   7.006  14.539 -0.0973  0.2109 -0.1130
 6325W        W49341  14.895  34.362  20.231  0.0893  0.0706 -0.0385
 6326W        W49342   7.257  11.678   5.166  0.0654  0.0693 -0.0442
 6327W        W49343  25.593  12.116  25.812 -0.4317  0.2030 -0.0469
 6328W        W49344  30.438   2.013  16.604 -0.0816  0.0187  0.1110
 6329W        W49345  13.395   4.901  24.399  0.3703  0.0482  0.0627
 6330W        W49346  33.957   2.745  23.917  0.0618 -0.1123  0.2846
 6331W        W49347   7.764   4.560  20.335  0.0435 -0.3032  0.3309
 6332W        W49348  34.497  11.366   4.699 -0.3070 -0.2241 -0.3107
 6333W        W49349  29.311  10.722  19.124  0.2826  0.0994  0.0021
 6334W        W49350   9.531  26.420  27.770 -0.1807 -0.2209  0.0888
 6335W        W49351  13.397   9.982  23.849  0.2534  0.2325  0.3533
 6336W        W49352  17.752  27.646  26.676 -0.2565  0.1970 -0.1300
 6337W        W49353   0.155  29.413  18.571 -0.2813 -0.2024  0.1899
 6338W        W49354  25.793   4.192  27.410 -0.0348  0.1466 -0.0768
 6339W        W49355   7.686  19.940   1.227  0.0204  0.0564  0.1838
 6340W        W49356  27.220  27.391  22.358 -0.0719  0.0460 -0.1346
 6341W        W49357  33.732  33.278  15.224 -0.0903  0.1318 -0.1139
 6342W        W49358  29.461   1.338   0.934 -0.0224 -0.0590  0.1542
 6343W        W49359   6.759  16.373  22.883 -0.4571  0.1501 -0.1509
 6344W        W49360  17.893   5.978  14.876 -0.0260 -0.2801 -0.0886
 6345W        W49361  31.413  18.575  24.202  0.1045 -0.0738 -0.2615
 6346W        W49362  33.334   0.712  15.565  0.1909  0.1944 -0.0055
 6347W        W49363  11.596  10.546  15.598 -0.2670 -0.0818 -0.2721
 6348W        W49364   2.443   9.994  20.827 -0.0038 -0.1648  0.0589
 6349W        W49365   6.932  10.950  18.012  0.2050  0.0342 -0.1289
 6350W        W49366   8.833  10.347   0.532 -0.0079 -0.0576 -0.1424
 6351W        W49367  13.563   0.405  28.649  0.2565 -0.2977 -0.3197
 6352W        W49368  12.410  18.828  20.304  0.1828 -0.3266 -0.1331
 6353W        W49369  29.320   9.668  28.756 -0.1737  0.0029  0.4322
 6354W        W49370  33.843   9.083   4.319  0.0004  0.3683  0.1876
 6355W        W49371  26.802  14.964  28.830  0.0521 -0.5653  0.0903
 6356W        W49372  20.028   5.257  18.400  0.0331  0.0326 -0.0401
 6357W        W49373   9.730  13.918  13.433 -0.1436  0.3449 -0.1000
 6358W        W49374  14.865   5.442  21.665 -0.3234  0.2959 -0.0000
 6359W        W49375   0.336   7.106  21.273  0.1708  0.1891  0.1019
 6360W        W49376  33.251   3.947  17.598  0.2653 -0.0816 -0.1645
 6361W        W49377  15.164   1.301  17.391 -0.2089 -0.4709  0.0209
 6362W        W49378   9.192  25.095  28.307  0.2306 -0.0782  0.2115
 6363W        W49379  28.633  33.745  27.147  0.0895 -0.0282 -0.0642
 6364W        W49380  31.036  33.132  22.150 -0.2283  0.1075  0.3566
 6365W        W49381   6.049  28.674  24.387  0.1987  0.2631 -0.0336
 6366W        W49382   2.583  10.511  16.700  0.3306  0.2797  0.2546
 6367W        W49383   0.510   7.696  18.308 -0.3388 -0.0211 -0.0048
 6368W        W49384  23.990   5.862   4.557 -0.0369  0.4013 -0.0009
 6369W        W49385  12.393   4.112  14.683 -0.1375  0.0893 -0.1882
 6370W        W49386  31.383  18.504  22.554 -0.2842 -0.0294  0.2620
 6371W        W49387   3.234   3.753  16.934  0.0807  0.0848 -0.0785
 6372W        W49388   7.798  32.852  19.955 -0.1427 -0.0815  0.0221
 6373W        W49389  18.644  10.180  25.502  0.2655  0.1400  0.2949
 6374W        W49390  32.795  12.156   5.229  0.1183 -0.3592 -0.0150
 6375W        W49391  21.830   6.939  25.906  0.0062 -0.1362 -0.0252
 6376W        W49392  19.774   2.057  18.765  0.0519 -0.0277  0.3552
 6377W        W49393   9.172  15.725  19.819 -0.1538  0.1928  0.0684
 6378W        W49394   2.264  21.048  18.277 -0.2716 -0.1058 -0.1696
 6379W        W49395  18.407   2.355   0.317 -0.3341  0.2398  0.2260
 6380W        W49396  15.457  33.502  23.418 -0.2247 -0.3178 -0.0674
 6381W        W49397  24.639   6.433  26.365 -0.1757  0.2887 -0.2485
 6382W        W49398   3.614  20.162   0.998  0.0234  0.3482 -0.1103
 6383W        W49399  29.770  14.029  17.031  0.1478  0.0929 -0.1437
 6384W        W49400  24.718   9.940   5.492  0.0145  0.0474 -0.1796
 6385W        W49401  29.987   6.287  25.726 -0.0860  0.4278 -0.0390
 6386W        W49402  32.970   6.936  15.555 -0.0427 -0.1161  0.1833
 6387W        W49403  26.667   3.241  10.852  0.2482 -0.1715 -0.0432
 6388W        W49404   8.967  33.316   4.369 -0.1031 -0.2608 -0.0074
 6389W        W49405  26.663  11.481  16.543 -0.2710  0.1000 -0.2052
 6390W        W49406  30.333  11.504  24.242  0.2387 -0.1392 -0.0482
 6391W        W49407  29.997   8.212   4.555  0.0984 -0.3494  0.1608
 6392W        W49408   6.948   9.357  15.583  0.2867 -0.4241  0.2588
 6393W        W49409   3.881  17.544  24.363  0.0669  0.1428  0.0013
 6394W        W49410  24.386  29.640  20.869  0.0728 -0.1195  0.2718
 6395W        W49411  22.708   4.982  25.489  0.1473  0.0571  0.1671
 6396W        W49412   3.384   8.240   1.310  0.1040 -0.0903 -0.0911
 6397W        W49413  17.264  30.063  21.417  0.0286 -0.1948  0.0350
 6398W        W49414  19.161   3.508  21.566  0.0263  0.0285 -0.0283
 6399W        W49415  32.744  33.892  16.239 -0.1930  0.1043  0.0237
 6400W        W49416  25.026  31.451  22.408  0.0132  0.1111  0.2195
 6401W        W49417  14.702  22.259  12.280  0.3460 -0.0735 -0.2156
 6402W        W49418  22.456  22.163  14.830 -0.0014  0.0964  0.0323
 6403W        W49419   1.706  11.878   1.295 -0.1477 -0.2959 -0.2723
 6404W        W49420  33.593   4.555   7.245  0.2797  0.1823  0.1287
 6405W        W49421   2.336  26.858   3.376 -0.0587 -0.0093 -0.3345
 6406W        W49422   2.141  34.244  17.743  0.3313  0.0007  0.2682
 6407W        W49423  21.330  33.711   0.295 -0.0592  0.2286  0.0876
 6408W        W49424  30.898   5.245  17.049  0.0843  0.2319  0.0349
 6409W        W49425   9.603  10.276   8.457 -0.1061  0.0045 -0.0639
 6410W        W49426   0.715   3.073   6.452 -0.0392 -0.3290 -0.0494
 6411W        W49427  14.232   1.199   8.709 -0.0001 -0.0681 -0.0231
 6412W        W49428  29.328   8.793   5.589 -0.0132  0.0617  0.0758
 6413W        W49429  21.124  20.624  28.075  0.0952  0.2965 -0.2458
 6414W        W49430   1.110   9.668  23.879  0.4241 -0.2357  0.2392
 6415W        W49431   9.287   6.130  28.484  0.0549  0.4709  0.0173
 6416W        W49432  20.444  13.215  25.478  0.0770  0.0766 -0.2715
 6417W        W49433   7.241  21.751   8.775  0.0829 -0.0674 -0.0436
 6418W        W49434  17.320   7.875  18.452  0.1338  0.3077 -0.1429
 6419W        W49435   5.133  31.789  19.164 -0.0445 -0.1218  0.0873
 6420W        W49436  33.192  11.430   5.241  0.0300 -0.1050  0.2128
 6421W        W49437   1.645  30.243  26.181 -0.0093 -0.0275  0.0087
 6422W        W49438   6.016  20.216  14.153 -0.0770 -0.2059 -0.0442
 6423W        W49439   4.219  33.270  26.164  0.3005 -0.3047  0.2506
 6424W        W49440  32.960   0.084  22.139 -0.1418  0.3542 -0.2004
 6425W        W49441  30.670  18.645  14.977  0.2921 -0.0030  0.2180
 6426W        W49442  23.161   7.810  15.859 -0.1097  0.0469  0.0212
 6427W        W49443  22.323  30.243  20.399  0.3796  0.0069 -0.1914
 6428W        W49444   7.223   3.558   2.480  0.0772 -0.0304 -0.0185
 6429W        W49445  31.342  30.376  21.039  0.1569 -0.1969 -0.1970
 6430W        W49446   9.300   1.085  20.010 -0.0541 -0.0905 -0.2076
 6431W        W49447   3.868  31.763   0.266  0.0925  0.0724  0.2499
 6432W        W49448   5.956   6.843  28.345  0.0007  0.1682 -0.1282
 6433W        W49449  31.297   6.447  28.064  0.1908  0.1859 -0.0710
 6434W        W49450  30.107  31.588   5.562 -0.0651 -0.1863 -0.0018
 6435W        W49451  28.036   1.007  26.184 -0.0508  0.2174  0.2317
 6436W        W49452  11.172  22.147   2.781 -0.0818  0.0699  0.3762
 6437W        W49453  27.219  11.878  27.522  0.1532  0.2837  0.1063
 6438W        W49454   1.558  17.566  20.048 -0.0296 -0.1071  0.1887
 6439W        W49455  27.028  32.814  21.546 -0.1848  0.1364  0.1564
 6440W        W49456  32.363  11.872  26.385  0.0118 -0.0017 -0.0443
 6441W        W49457  31.576   7.498  16.608 -0.0475 -0.1312  0.0110
 6442W        W49458  11.362   6.263  16.528  0.1548 -0.0012  0.0709
 6443W        W49459  10.337  26.470  20.344  0.0666  0.0340  0.1748
 6444W        W49460  34.163  26.157  25.848 -0.2961  0.1152  0.2530
 6445W        W49461  14.726  11.012  15.284 -0.1165 -0.1239 -0.2782
 6446W        W49462  13.551  34.655  26.614  0.0770  0.1328  0.0731
 6447W        W49463  27.775   7.549  17.092  0.1671  0.2374 -0.1340
 6448W        W49464   3.076   5.624  15.658 -0.2555 -0.1290  0.3318
 6449W        W49465   2.018  13.097  22.169 -0.2011  0.1852 -0.0045
 6450W        W49466   3.532  11.132   9.951  0.0531  0.1684  0.4034
 6451W        W49467  24.949   9.106  27.525 -0.2211  0.0495 -0.1056
 6452W        W49468   4.914  30.327   0.043 -0.1060  0.2504 -0.2955
 6453W        W49469  28.462  32.425  21.501  0.1114 -0.2038 -0.3630
 6454W        W49470  11.687  18.754  17.277 -0.0194  0.3346  0.3057
 6455W        W49471   6.772  24.758  19.419  0.3866  0.0702 -0.2585
 6456W        W49472  16.982   9.576   6.784  0.0144  0.1730  0.0189
 6457W        W49473  23.668  22.070  18.957 -0.2865 -0.1738  0.1580
 6458W        W49474  25.577  26.314  28.154 -0.1896  0.1698  0.0456
 6459W        W49475  28.493  31.800  28.105  0.2038  0.0463  0.1343
 6460W        W49476   4.686   5.484  25.596 -0.2097  0.0945 -0.0125
 6461W        W49477  26.958  11.945  14.813 -0.1587 -0.1273  0.1331
 6462W        W49478  22.948  30.529  22.698 -0.1398  0.2593 -0.1254
 6463W        W49479  33.276   8.576  22.604 -0.2172 -0.0429  0.0815
 6464W        W49480   5.941  32.701   6.157  0.1613  0.0561  0.0610
 6465W        W49481   1.278  18.309  22.709 -0.1426  0.2149 -0.0212
 6466W        W49482   2.942  14.193  25.307  0.3276 -0.0872 -0.1253
 6467W        W49483  30.770  12.693  25.028  0.4029  0.1596 -0.2021
 6468W        W49484  11.714  31.033   3.283 -0.3004  0.2193 -0.0116
 6469W        W49485  14.722  28.251  15.180  0.0323  0.1565 -0.3014
 6470W        W49486   2.183  14.512  16.057  0.1877  0.1016  0.1469
 6471W        W49487  16.054  31.540  23.432 -0.0898 -0.0765  0.0561
 6472W        W49488   6.373   1.723  20.286 -0.1132 -0.0335 -0.1690
 6473W        W49489   2.393   6.997  15.588  0.0723  0.1747  0.0171
 6474W        W49490  24.975   3.684  16.672  0.2642  0.1110  0.1211
 6475W        W49491  31.991   4.350  18.160 -0.2437 -0.3723 -0.1592
 6476W        W49492  22.625   2.560  28.948 -0.2200  0.0530 -0.1961
 6477W        W49493  30.510  14.229  18.567  0.2091 -0.0579 -0.0608
 6478W        W49494  28.083  31.393   0.627  0.5014  0.0784 -0.2333
 6479W        W49495   1.968  28.302  27.470  0.1687 -0.0497 -0.2619
 6480W        W49496   2.116   7.904  19.860 -0.1517  0.1498  0.3401
 6481W        W49497  29.915  20.160  23.679 -0.0524  0.0627 -0.1631
 6482W        W49498   5.848   6.810  24.141 -0.0900  0.0405 -0.1430
 6483W        W49499  19.603  16.777   3.500 -0.0163  0.1713  0.0592
 6484W        W49500   0.492  12.975   2.675  0.1768 -0.0974 -0.0605
 6485W        W49501  32.678  33.089   6.191 -0.4304  0.2216  0.1590
 6486W        W49502  31.108   0.806  19.591  0.1080 -0.4228 -0.0772
 6487W        W49503   3.452   0.706  27.480  0.0661  0.0643  0.2621
 6488W        W49504   5.008  10.982   9.791 -0.2440 -0.1135 -0.2865
 6489W        W49505  19.565  25.033   0.332  0.0862 -0.2076  0.0843
 6490W        W49506  33.213  34.150   5.361 -0.4150 -0.1037  0.4269
 6491W        W49507  32.234  26.182  16.591 -0.3564 -0.0874 -0.2303
 6492W        W49508  30.248   4.747  19.003 -0.1521 -0.3955  0.0713
 6493W        W49509   1.195   3.302  22.386 -0.2977  0.1584  0.0292
 6494W        W49510  31.966  26.512  14.898  0.2667 -0.1777  0.0112
 6495W        W49511   0.853  33.566  19.127 -0.0626  0.3457 -0.2619
 6496W        W49512   2.576  11.272  17.966  0.1229 -0.0154 -0.0246
 6497W        W49513  21.896  12.664  27.650 -0.1504  0.0142 -0.0365
 6498W        W49514  12.578  31.327  16.306  0.0678 -0.0636 -0.0786
 6499W        W49515   7.569  11.188  19.749 -0.2132  0.2223  0.1006
 6500W        W49516  14.848  29.498  23.745  0.0164 -0.0302  0.3164
 6501W        W49517  28.953   8.332  22.820  0.1308 -0.2140 -0.1217
 6502W        W49518   0.428  34.035  24.355 -0.0195  0.1591  0.0524
 6503W        W49519   0.592  31.905   5.340 -0.0237 -0.1382  0.3996
 6504W        W49520   6.348   3.890  21.878 -0.1512 -0.0992  0.1454
 6505W        W49521   8.599  12.205  25.389 -0.1051 -0.0481 -0.2409
 6506W        W49522   4.668   8.286  22.107  0.0824  0.1638 -0.4334
 6507W        W49523  29.811  12.624  28.921 -0.4311 -0.1937 -0.0296
 6508W        W49524  30.468   5.129  19.465  0.0841  0.1857  0.1918
 6509W        W49525   6.035  16.247  16.530 -0.0074 -0.0071 -0.1116
 6510W        W49526   0.715   3.799  28.462 -0.2007  0.0284 -0.0649
 6511W        W49527  30.488  11.747   3.843  0.1803 -0.1381 -0.0726
 6512W        W49528   9.836  33.583   3.167  0.0047 -0.3649  0.1358
 6513W        W49529  31.545   7.482  26.827 -0.0188  0.0241  0.1149
 6514W        W49530  11.161   2.714   9.031 -0.1366  0.2275 -0.0554
 6515W        W49531   5.062   1.084   2.434  0.0014 -0.1813 -0.1145
 6516W        W49532   6.522   6.116  25.460 -0.0580  0.1099  0.1051
 6517W        W49533  24.536  13.208   0.822  0.3046 -0.0033 -0.2660
 6518W        W49534   5.418   5.132  19.168 -0.1963 -0.1394 -0.4098
 6519W        W49535  23.002  31.395   8.907 -0.3167  0.1132  0.1022
 6520W        W49536   3.846   6.015  22.640  0.0820  0.2225 -0.2167
 6521W        W49537  18.842  23.164  15.215  0.0093 -0.2606  0.3273
 6522W        W49538  11.906   5.699  26.882  0.0335  0.0157  0.2785
 6523W        W49539   7.369  13.450  23.952  0.0854 -0.0853 -0.1189
 6524W        W49540  14.623  17.981  21.771 -0.1709  0.0343 -0.3864
 6525W        W49541   0.623   3.297  24.732  0.1889  0.1945 -0.4725
 6526W        W49542   7.462  30.194  15.413 -0.3822  0.2852  0.0719
 6527W        W49543  12.182   6.702  26.734  0.0962  0.2260 -0.0396
 6528W        W49544   8.651  10.295  14.402  0.0202 -0.1170 -0.0869
 6529W        W49545  33.818   3.600   2.216  0.1192  0.1032  0.3367
 6530W        W49546  31.056   8.613   4.482  0.2801 -0.1385 -0.0492
 6531W        W49547  32.777  33.564  22.163 -0.1482 -0.1141 -0.0072
 6532W        W49548   3.626   7.980  21.711  0.4472  0.1279 -0.0234
 6533W        W49549   1.489   5.231  18.647  0.1188  0.2728 -0.0043
 6534W        W49550   7.679  14.815  19.755 -0.1502  0.2747  0.0981
 6535W        W49551  25.749   3.164  18.283  0.1847 -0.1424 -0.2270
 6536W        W49552  28.940   0.930  17.120 -0.0176  0.1136 -0.2517
 6537W        W49553  32.680   5.149   7.184 -0.0415  0.0213 -0.1105
 6538W        W49554  30.788   8.446  23.041  0.1663  0.1818 -0.1497
 6539W        W49555  18.856  22.711  23.342  0.0621 -0.0161 -0.3147
 6540W        W49556  33.517  12.455  17.228  0.4754  0.0042  0.0071
 6541W        W49557  14.886  19.164  24.133  0.0964  0.0913 -0.0462
 6542W        W49558  15.380   2.535  15.370  0.0285  0.1412 -0.0377
 6543W        W49559  31.003   3.442   2.794  0.0866  0.3720 -0.2669
 6544W        W49560  34.655   6.583  20.832  0.4691  0.1955  0.3105
 6545W        W49561   2.885   9.701  20.849 -0.1217 -0.1215  0.0176
 6546W        W49562   4.231   3.088   5.135 -0.0223  0.0801 -0.1018
 6547W        W49563   1.035  13.998  26.995 -0.1382  0.3022 -0.1904
 6548W        W49564   5.415  34.145   3.643  0.0572  0.1103  0.1440
 6549W        W49565  24.813   8.168   2.917 -0.1465 -0.0002 -0.2946
 6550W        W49566   1.242   5.390   2.224 -0.0882 -0.0136 -0.2584
 6551W        W49567   8.753  16.816  26.903 -0.2111  0.2071  0.2340
 6552W        W49568   2.476  20.814  17.819  0.0346  0.0563  0.2403
 6553W        W49569   6.849   2.814  23.216 -0.3390  0.0619 -0.1725
 6554W        W49570   5.829  31.911   9.451  0.1391  0.0963 -0.0599
 6555W        W49571   1.665   4.241  19.897  0.0575 -0.2426  0.1233
 6556W        W49572   3.147   9.951  17.342  0.1468 -0.1416 -0.0566
 6557W        W49573   2.679  30.778   2.936  0.1768 -0.1871 -0.1175
 6558W        W49574   0.992  33.217  22.947 -0.2540 -0.1969 -0.1750
 6559W        W49575  12.856   7.313  14.541  0.4688  0.0610 -0.3206
 6560W        W49576   8.428  31.118  22.188 -0.1572  0.0321 -0.1583
 6561W        W49577  14.571   7.695  17.543  0.0775  0.0442 -0.1431
 6562W        W49578  30.308   8.982   0.610 -0.1643 -0.2540  0.0281
 6563W        W49579  17.628  33.703  23.725 -0.2036 -0.2042 -0.0171
 6564W        W49580   4.222  11.665  15.453  0.0466  0.1397 -0.0973
 6565W        W49581  15.398  26.139  20.493 -0.2392 -0.0536 -0.0202
 6566W        W49582  26.068  29.793   0.104 -0.1434  0.1835  0.1543
 6567W        W49583  10.118  25.897  15.929  0.2534  0.3737 -0.3850
 6568W        W49584  34.407   5.852  21.574  0.0314  0.2579 -0.1312
 6569W        W49585   9.335   4.632   1.505 -0.1649 -0.4321 -0.2995
 6570W        W49586  12.251  27.076  20.490 -0.1395 -0.2482  0.4320
 6571W        W49587   7.027  30.740  10.054 -0.1404  0.4282  0.1494
 6572W        W49588  33.303  15.545  14.319  0.1278  0.0896 -0.2373
 6573W        W49589  10.491   5.495  25.003 -0.1001  0.0597 -0.2687
 6574W        W49590   7.429  28.019  16.463 -0.1347 -0.0935 -0.0490
 6575W        W49591   7.799  31.456   5.826 -0.1338  0.1795  0.3453
 6576W        W49592  18.557  12.597  15.819 -0.0575 -0.1071 -0.1756
 6577W        W49593   6.212   4.279  24.107 -0.0678  0.1350 -0.0304
 6578W        W49594   9.152  26.709  15.065  0.2745 -0.1021  0.2395
 6579W        W49595  25.909   4.771  29.027 -0.4783 -0.2000 -0.1614
 6580W        W49596  33.027   6.353  24.562 -0.3000  0.0021  0.0226
 6581W        W49597  10.218   4.361   1.329 -0.1242  0.0905 -0.0578
 6582W        W49598  31.235  15.362  18.582 -0.3165 -0.0559 -0.3805
 6583W        W49599   3.824  33.162  14.831  0.1676  0.1212  0.2444
 6584W        W49600  21.754  34.582  23.775 -0.4625  0.0103  0.0759
 6585W        W49601   6.769  24.191  21.279 -0.3189 -0.3621  0.0844
 6586W        W49602  18.437  27.507   6.088  0.0433 -0.1415  0.3106
 6587W        W49603  28.081  15.110  16.550  0.1194 -0.1960  0.0107
 6588W        W49604  27.081  31.586   7.801 -0.0914 -0.1003 -0.1184
 6589W        W49605  30.686  22.304  16.450 -0.1566 -0.0816 -0.1333
 6590W        W49606   1.626   5.579  20.133  0.0629  0.1294 -0.0600
 6591W        W49607   9.848  25.096  15.978  0.1763 -0.3114  0.1285
 6592W        W49608  19.506  29.099  17.265  0.0252 -0.1209  0.0537
 6593W        W49609  27.670   9.390  24.940 -0.1898  0.0022 -0.1200
 6594W        W49610   6.797  12.831   9.303 -0.1071 -0.4445 -0.1940
 6595W        W49611   2.226   3.408  24.636 -0.1069 -0.2827 -0.1518
 6596W        W49612   4.998  30.473   6.753  0.3685 -0.0020  0.0281
 6597W        W49613   7.386   5.356   9.853 -0.0109 -0.0076 -0.2032
 6598W        W49614  28.990   5.531  15.714 -0.0332 -0.0153  0.0195
 6599W        W49615   3.373   1.408  27.660  0.1442  0.1006 -0.2764
 6600W        W49616  30.009  30.793  21.484 -0.0789 -0.2586 -0.0296
 6601W        W49617   9.120  25.188  20.257  0.0618  0.1466 -0.1292
 6602W        W49618   7.154  16.936  25.351 -0.1653 -0.3609  0.2668
 6603W        W49619  16.000  22.089  26.197 -0.2860  0.5267 -0.0827
 6604W        W49620  19.737   4.835  10.169  0.0910 -0.1316  0.1156
 6605W        W49621  26.767   5.834  27.251 -0.0344  0.1563 -0.1267
 6606W        W49622   1.007  13.004   0.391  0.0275 -0.0931 -0.0357
 6607W        W49623   9.136  17.025  16.245  0.1414  0.0037 -0.2170
 6608W        W49624  32.951   2.029  23.716 -0.0805 -0.1632  0.2073
 6609W        W49625   5.327   3.373   6.069 -0.0485 -0.4043 -0.1437
 6610W        W49626  23.967  10.871  20.734  0.0599  0.1606  0.1802
 6611W        W49627  29.563   0.371  21.823  0.0650  0.2194  0.0177
 6612W        W49628  27.378  21.890  15.370 -0.0526  0.1381 -0.0388
 6613W        W49629  29.298   4.169   3.105  0.0593  0.2150  0.1266
 6614W        W49630   8.348  18.097  17.678 -0.0089 -0.1492  0.0269
 6615W        W49631  28.060  10.188  18.497  0.3502 -0.3631  0.0501
 6616W        W49632  14.541  16.886   2.721 -0.2524  0.1212 -0.0813
 6617W        W49633  10.306  33.132  16.868  0.1909 -0.3030 -0.0904
 6618W        W49634   9.728  28.271  22.348 -0.2317 -0.0589 -0.0132
 6619W        W49635  34.371  28.489  26.207  0.2279 -0.1192  0.1696
 6620W        W49636   2.707   4.153  20.739 -0.2589 -0.2559  0.2568
 6621W        W49637   8.044  29.512   1.397  0.0168 -0.2201 -0.2963
 6622W        W49638  14.442  16.074  23.476  0.2707  0.1716  0.1201
 6623W        W49639   3.660  12.317  14.151  0.2787 -0.2813  0.0755
 6624W        W49640  13.015  17.880  26.204 -0.1173  0.0579  0.1421
 6625W        W49641  17.888   1.934  28.089 -0.4038 -0.0843  0.1641
 6626W        W49642  14.536   1.810  24.763 -0.3061 -0.0641 -0.0848
 6627W        W49643   0.625  16.770  24.686  0.3139  0.2082  0.0210
 6628W        W49644  26.820  24.376  27.897 -0.2724 -0.2258 -0.2568
 6629W        W49645  25.480  10.566   5.914  0.1860 -0.1672  0.0066
 6630W        W49646   0.864   8.067  23.647 -0.0742 -0.1042  0.1330
 6631W        W49647   0.771  19.808  15.338 -0.0154  0.0322  0.1113
 6632W        W49648  28.807   2.945  18.406 -0.0642  0.1679 -0.0181
 6633W        W49649   1.172  32.911  10.555  0.2288 -0.1490 -0.1915
 6634W        W49650   0.141   7.979  18.537 -0.1791 -0.0877 -0.0807
 6635W        W49651   3.656   7.915  19.927  0.0675 -0.0428 -0.1551
 6636W        W49652  33.510   9.580  18.017 -0.0427  0.1387  0.2271
 6637W        W49653  30.633   5.426  27.383  0.1019 -0.1081 -0.0987
 6638W        W49654   4.918  26.663  15.601 -0.0287  0.3373 -0.0451
 6639W        W49655   8.160  24.007  26.713  0.1318  0.1257  0.2697
 6640W        W49656   5.664  34.156  24.969  0.6466  0.0795 -0.1323
 6641W        W49657   4.742   9.660   5.523 -0.0581  0.3626  0.0812
 6642W        W49658  31.552   3.435  16.702 -0.3380 -0.1944  0.1353
 6643W        W49659   0.183   5.611  25.494 -0.3575 -0.1285  0.0102
 6644W        W49660  13.679  12.174  12.384 -0.2930 -0.1496 -0.2357
 6645W        W49661  26.903  28.553  28.668 -0.0355 -0.1257  0.3106
 6646W        W49662  22.674  21.107   0.098  0.0915 -0.0319  0.2624
 6647W        W49663  33.652  25.305  18.735 -0.0987 -0.0385  0.1992
 6648W        W49664   1.906  19.868  22.251 -0.0762 -0.0182  0.0343
 6649W        W49665  33.895  26.582  14.209 -0.0224 -0.3095 -0.1862
 6650W        W49666  30.297  14.761   0.554  0.1328 -0.0041 -0.2602
 6651W        W49667   5.747  23.045  25.485  0.0662 -0.3776 -0.0297
 6652W        W49668  14.980  30.010  26.495 -0.0421 -0.1865  0.1353
 6653W        W49669  32.557  16.583  25.662 -0.1949 -0.2796 -0.1776
 6654W        W49670  27.605  17.389  26.459 -0.0931 -0.0211 -0.1394
 6655W        W49671  28.614  30.469  28.698 -0.2681  0.0519  0.2310
 6656W        W49672   0.063  11.560  23.604  0.0094 -0.0224  0.3951
 6657W        W49673  33.209  13.749  25.469 -0.1741 -0.2666 -0.0294
 6658W        W49674  30.866  13.778  13.932  0.1419  0.4702  0.2200
 6659W        W49675  22.953  24.866  19.640  0.0161 -0.0390  0.1682
 6660W        W49676   3.390  13.609  22.038 -0.4166 -0.3371 -0.0287
 6661W        W49677   1.922  29.785  24.986  0.3129  0.1029  0.1488
 6662W        W49678   5.901   8.334  23.120  0.0631 -0.1332 -0.0381
 6663W        W49679   8.273  28.327  18.731 -0.1559  0.1217  0.2247
 6664W        W49680  17.108  19.754   4.138 -0.0413 -0.4455 -0.2402
 6665W        W49681  17.650   1.916  20.673  0.2504 -0.0806  0.3578
 6666W        W49682  15.740  27.360  22.658  0.0094  0.2308  0.0909
 6667W        W49683   7.410  13.032  18.656  0.1803 -0.0182 -0.0777
 6668W        W49684   2.163  12.269  17.770  0.0097  0.0301  0.0278
 6669W        W49685  17.565  30.093  14.676  0.0277 -0.2674  0.0384
 6670W        W49686  22.641  17.320   4.171 -0.0391 -0.2532 -0.0292
 6671W        W49687   3.282  10.221  21.551 -0.0499 -0.2267  0.1234
 6672W        W49688   7.710   5.503  25.293  0.0992  0.0171 -0.1723
 6673W        W49689  27.971  29.356   3.349 -0.2000 -0.0424  0.1240
 6674W        W49690   9.700  11.200  22.120 -0.2487 -0.3070 -0.3551
 6675W        W49691   8.766   6.320  22.932 -0.2954 -0.0418  0.4190
 6676W        W49692   8.978  32.224  25.516  0.2941  0.1232  0.4608
 6677W        W49693   4.579  17.675  21.097  0.2676 -0.0019  0.1098
 6678W        W49694  30.818   2.549   5.837  0.2902 -0.0694 -0.0951
 6679W        W49695  32.875  20.247  15.967  0.0047  0.2284  0.0846
 6680W        W49696  31.397  14.446  16.850 -0.1609 -0.1404  0.1683
 6681W        W49697   5.683  16.210  18.548  0.1186  0.0934  0.1288
 6682W        W49698  10.954  32.011  24.154  0.2611 -0.0188 -0.0361
 6683W        W49699  27.542   4.191  18.485  0.0459 -0.4479 -0.3157
 6684W        W49700   0.477   4.112  16.606 -0.1121 -0.2717 -0.0401
 6685W        W49701  13.902   9.871  13.105  0.2177 -0.2310  0.0741
 6686W        W49702   1.577   7.830  19.181  0.0097 -0.3104  0.2374
 6687W        W49703  32.863  22.273  17.049  0.0832  0.1859  0.3951
 6688W        W49704   4.935   3.488   5.567 -0.0536  0.1823 -0.0988
 6689W        W49705  29.076  13.599  22.170 -0.5213 -0.2001  0.0162
 6690W        W49706   5.173  26.976  20.326  0.1108  0.1504 -0.1139
 6691W        W49707  10.036   3.932  10.143  0.1048 -0.0141 -0.2251
 6692W        W49708  12.379   1.826  14.370 -0.3218 -0.2929 -0.0803
 6693W        W49709  21.516  28.271  23.439  0.3033 -0.2979 -0.1864
 6694W        W49710  29.241  27.642  24.842 -0.1189 -0.1872 -0.0729
 6695W        W49711  31.741  14.620  27.745  0.0964  0.4822  0.1404
 6696W        W49712   3.414  25.280  17.644 -0.2162 -0.0454  0.0390
 6697W        W49713   3.497  10.289  17.397 -0.0300  0.2552 -0.0276
 6698W        W49714   7.746  25.966  17.125 -0.1212  0.0863 -0.0394
 6699W        W49715  17.030  16.196  14.801  0.1488  0.0795  0.0925
 6700W        W49716  31.595  25.593   2.551 -0.1480 -0.1430 -0.0888
 6701W        W49717  32.715  11.621   0.756 -0.0763 -0.3223  0.0112
 6702W        W49718  30.271  15.959  16.381  0.0239 -0.0247  0.0704
 6703W        W49719  14.768   9.497  22.643 -0.2065  0.0161 -0.0059
 6704W        W49720  28.298   7.719   1.547 -0.0885  0.4289 -0.0100
 6705W        W49721   1.422   5.877  24.144 -0.2173  0.1241 -0.1939
 6706W        W49722   3.013   6.679   0.075  0.1896 -0.1765 -0.1106
 6707W        W49723  24.632  10.136  25.893 -0.2145  0.1095  0.1818
 6708W        W49724   2.000   5.094  25.639 -0.0740  0.0790 -0.1957
 6709W        W49725   5.661   1.875  14.909  0.2412  0.1440 -0.0317
 6710W        W49726  28.060   4.750  27.097 -0.0301  0.0366  0.2997
 6711W        W49727   1.548  21.659  19.779 -0.1098 -0.1210 -0.2377
 6712W        W49728  10.094   1.201  25.060 -0.1603 -0.0611  0.1096
 6713W        W49729   5.720  32.950  15.246  0.2574  0.0391  0.2294
 6714W        W49730   0.988  26.776  26.125  0.0140  0.5627 -0.0803
 6715W        W49731  21.545  19.671  13.586  0.0577 -0.1613  0.1214
 6716W        W49732   9.650  10.641  25.754 -0.3231 -0.0418 -0.0653
 6717W        W49733   7.387  20.344   3.714  0.1217  0.3459 -0.2328
 6718W        W49734  12.058  10.561  26.133 -0.0282  0.0558  0.0113
 6719W        W49735  24.195  14.489   4.619  0.0444 -0.0581 -0.0519
 6720W        W49736   3.147  14.147  18.653  0.1907 -0.0275  0.2648
 6721W        W49737  34.617  30.031  27.162  0.1936  0.2056 -0.1566
 6722W        W49738  28.120   3.504  21.108  0.0026  0.2282 -0.3049
 6723W        W49739  31.289   4.996  22.369 -0.0946  0.0085  0.0246
 6724W        W49740  22.462  16.636  14.981 -0.0875  0.1014 -0.0638
 6725W        W49741  14.924  18.648  15.995 -0.1305  0.1063  0.1683
 6726W        W49742   4.826   0.156   6.407  0.0611  0.1790 -0.0118
 6727W        W49743  19.924   9.082   8.650 -0.0326  0.2923 -0.2346
 6728W        W49744  30.216   6.232  26.522 -0.1115  0.2797  0.1168
 6729W        W49745   2.220  21.607  24.257  0.0678 -0.0042 -0.0317
 6730W        W49746   0.427  15.667  28.795 -0.1605  0.0235  0.2150
 6731W        W49747   0.718  14.210  26.469 -0.0868 -0.1896  0.2307
 6732W        W49748   5.487   7.903   9.521  0.4110 -0.1309 -0.1893
 6733W        W49749  13.284  21.938   8.244 -0.1223 -0.2717  0.0610
 6734W        W49750  12.429  27.470  14.474  0.1619 -0.3180 -0.2765
 6735W        W49751  29.626  28.938  17.282  0.0916  0.0274 -0.2551
 6736W        W49752   1.597  21.663  17.539 -0.0443  0.0149 -0.1113
 6737W        W49753  29.638  23.585  25.799  0.1007  0.0782  0.0665
 6738W        W49754   3.059  12.089   1.022 -0.0873  0.2010 -0.0863
 6739W        W49755  33.693  11.314  23.574 -0.1578 -0.0090 -0.3373
 6740W        W49756  31.332  32.946   5.110 -0.0175 -0.0601  0.1295
 6741W        W49757   9.616   6.265  22.429  0.1748 -0.0587 -0.0361
 6742W        W49758   1.602  13.472   7.808  0.1305  0.5651 -0.0490
 6743W        W49759  26.964  17.440  27.643 -0.0107 -0.1310 -0.1391
 6744W        W49760   2.236  22.111   1.829  0.1019  0.0691  0.0420
 6745W        W49761  11.824  25.879  17.285  0.1242  0.3451 -0.0360
 6746W        W49762  15.847  14.623   5.142 -0.1574 -0.2798 -0.0490
 6747W        W49763  26.638  16.573   1.294  0.0011  0.1526 -0.1566
 6748W        W49764  12.375   4.522  15.009  0.0520 -0.3414  0.1288
 6749W        W49765   2.622  15.954  17.378  0.2472 -0.1186  0.0700
 6750W        W49766   9.522  11.721  17.619  0.1597  0.1135  0.0359
 6751W        W49767  12.647   1.468  21.405  0.1534  0.0030 -0.0441
 6752W        W49768   1.782  14.981  17.517  0.1477  0.2236 -0.1332
 6753W        W49769   7.581  10.690  15.088 -0.0025 -0.2432  0.4208
 6754W        W49770  26.645  11.822  21.359 -0.1491 -0.1499 -0.2036
 6755W        W49771  31.546  34.461  15.818 -0.1119 -0.0108 -0.2290
 6756W        W49772  13.616   8.906  13.192 -0.2966  0.1865 -0.1594
 6757W        W49773  26.379  12.965  20.032 -0.1101 -0.0795 -0.1538
 6758W        W49774   5.512  29.805  27.355  0.1540  0.0359 -0.0184
 6759W        W49775  15.944   8.485  25.844 -0.3983  0.1546 -0.0782
 6760W        W49776   9.957  26.621  24.626  0.1959  0.0863  0.0109
 6761W        W49777  30.340  28.215   7.133 -0.0490  0.1017 -0.0778
 6762W        W49778  30.518  33.668   7.692  0.0614  0.0745 -0.1312
 6763W        W49779   1.503   1.931  22.146 -0.1433 -0.0433  0.3916
 6764W        W49780  16.371   1.530  14.958  0.0521  0.2472 -0.2435
 6765W        W49781   9.704  28.027  17.496 -0.2599  0.2104 -0.2124
 6766W        W49782  18.711  31.136  28.269 -0.2351  0.2042  0.2073
 6767W        W49783  19.066   7.929  14.930 -0.0381 -0.0394 -0.1565
 6768W        W49784  29.807   1.351  25.802 -0.0957  0.1272 -0.1453
 6769W        W49785  21.025  14.141  21.481  0.0093  0.0322 -0.1496
 6770W        W49786  34.246  16.564   1.457  0.1802 -0.1776 -0.0021
 6771W        W49787   9.172   0.295  24.485  0.2979 -0.0919  0.1347
 6772W        W49788  30.865  30.435  18.419 -0.2834  0.0777 -0.1350
 6773W        W49789   8.311   9.077  23.028 -0.4618 -0.2912  0.0164
 6774W        W49790   4.286   4.430   2.022  0.1256 -0.0409 -0.0179
 6775W        W49791  16.173   9.754  14.042 -0.1240 -0.1473  0.1658
 6776W        W49792  26.367   9.462  27.806  0.1550 -0.1068 -0.1910
 6777W        W49793  31.700   4.472  20.987 -0.1373  0.0271 -0.1170
 6778W        W49794  16.318  15.810  15.230  0.0284 -0.2093  0.1955
 6779W        W49795   2.622  11.419  25.182  0.1229  0.0883 -0.0843
 6780W        W49796  31.009  32.139  15.806  0.4600  0.0387 -0.0509
 6781W        W49797  10.503  33.567  17.838  0.1114  0.2798 -0.2495
 6782W        W49798  29.402  13.157  23.497  0.1592 -0.0813  0.5021
 6783W        W49799  30.883  19.623  23.356 -0.2433 -0.0552 -0.1811
 6784W        W49800  34.412  18.619  14.265  0.3169 -0.3743  0.0891
 6785W        W49801   6.727   3.157  26.997 -0.2232 -0.0612  0.0895
 6786W        W49802   7.494  28.304  21.214 -0.1670  0.0538  0.4458
 6787W        W49803   6.439  11.899  22.222 -0.0280  0.0038  0.1243
 6788W        W49804  33.110   2.278   6.600  0.1109 -0.0357 -0.2078
 6789W        W49805  17.424  18.782  20.690 -0.2356 -0.2149  0.1263
 6790W        W49806  16.985   6.410  23.835  0.4101 -0.0585  0.2092
 6791W        W49807   5.834   7.854  25.905 -0.0904 -0.0102 -0.0762
 6792W        W49808   9.532  18.624  21.031 -0.2571  0.1126 -0.3344
 6793W        W49809   2.897  17.229  20.601 -0.4836  0.3454  0.2103
 6794W        W49810   1.421   1.633  14.927 -0.0606  0.2688  0.1015
 6795W        W49811  25.703   3.401  29.021 -0.0530  0.1095  0.1472
 6796W        W49812  32.707  31.913   0.107 -0.1392  0.1935 -0.0616
 6797W        W49813   2.645   4.686  27.893  0.1533 -0.0839  0.1449
 6798W        W49814  27.888   2.693   1.467 -0.0565 -0.0353 -0.1445
 6799W        W49815  18.065  31.578   8.624 -0.0138 -0.1204  0.1072
 6800W        W49816  22.372   2.887   0.705 -0.0500  0.2071  0.2535
 6801W        W49817  31.231   1.712  28.616  0.0485 -0.1282 -0.2724
 6802W        W49818  34.163   7.254  26.402 -0.0449  0.3184  0.0371
 6803W        W49819  29.852   1.409  22.492 -0.0595  0.1550 -0.3040
 6804W        W49820   5.938  20.344  21.192  0.1089  0.0741 -0.0402
 6805W        W49821  28.219  20.591   3.658 -0.3074  0.1572  0.0419
 6806W        W49822  27.327  15.221  21.124 -0.1741  0.0613 -0.0974
 6807W        W49823  34.590  11.671  27.983  0.1170  0.2616  0.0515
 6808W        W49824   8.413  21.138  13.956 -0.0102 -0.1679 -0.0724
 6809W        W49825   6.927  33.753   3.702  0.2061 -0.1152 -0.0654
 6810W        W49826   8.428  32.114  26.998 -0.3472 -0.0835 -0.3086
 6811W        W49827  13.071  26.197  20.034  0.1491  0.1216  0.1747
 6812W        W49828  30.219  27.862   5.363 -0.1648  0.2839  0.1986
 6813W        W49829   6.874   7.713  10.111 -0.2553 -0.3350 -0.3075
 6814W        W49830   2.737   3.595  23.929 -0.2709  0.1369 -0.0571
 6815W        W49831  26.466  22.826   8.316 -0.0687  0.2545  0.3988
 6816W        W49832  12.278  14.264   5.125 -0.0563  0.0620  0.1900
 6817W        W49833  33.253  15.806   6.437  0.1206  0.2599 -0.2512
 6818W        W49834   4.242  20.989  19.624 -0.2307 -0.0617 -0.0689
 6819W        W49835  25.177  34.767  15.615 -0.0489  0.1124  0.0087
 6820W        W49836   8.541   8.759  22.146  0.0584  0.1353  0.0569
 6821W        W49837  25.848  22.397  18.585  0.1631 -0.0939  0.2175
 6822W        W49838  24.167  33.581  28.137 -0.0693  0.0391 -0.2044
 6823W        W49839   9.837  28.630  28.055 -0.0926 -0.0705 -0.2440
 6824W        W49840  16.490  11.830   0.440  0.2929 -0.0618 -0.0275
 6825W        W49841   8.246  21.351  18.591  0.3145  0.0679 -0.0479
 6826W        W49842   8.524   8.138  26.329  0.1590 -0.1531 -0.3113
 6827W        W49843   1.812  11.268  20.978 -0.1219  0.0690  0.2802
 6828W        W49844  34.597  28.553   7.956  0.2798 -0.0053  0.0141
 6829W        W49845  31.337  14.538  23.873  0.1114  0.2439  0.0214
 6830W        W49846   7.766  16.116  23.677 -0.3235  0.0029  0.0904
 6831W        W49847  32.674  33.174   4.794 -0.2762  0.1193 -0.0149
 6832W        W49848  30.450  28.917  23.971  0.0980 -0.0416 -0.0136
 6833W        W49849  27.057   1.423  26.956  0.2113  0.1969  0.0049
 6834W        W49850  32.830   2.374  25.320 -0.1098  0.0544  0.1958
 6835W        W49851  31.340   2.940   5.157 -0.0025 -0.2768  0.0209
 6836W        W49852   6.550   9.505  27.992  0.0385 -0.1650 -0.1247
 6837W        W49853   7.277  24.512  14.444  0.0155  0.4782  0.4581
 6838W        W49854  10.999  28.525  26.356  0.2212  0.1362  0.1430
 6839W        W49855  30.341   7.669  18.017  0.0607 -0.1493 -0.1887
 6840W        W49856   7.309   8.437  16.506  0.1943 -0.1933  0.0056
 6841W        W49857   2.028  13.262  11.006  0.0511  0.1643  0.3011
 6842W        W49858   5.568  22.495   4.147 -0.3628  0.0545  0.1739
 6843W        W49859   0.984   2.846   7.963 -0.0209 -0.0960 -0.0886
 6844W        W49860   6.550  33.908  28.266 -0.0284  0.2646 -0.0815
 6845W        W49861   2.707  18.449   6.925  0.0948  0.2203  0.3105
 6846W        W49862  31.092  34.557  21.565 -0.1927  0.1266 -0.1718
 6847W        W49863   9.684  18.915  25.218  0.1897  0.2647 -0.1186
 6848W        W49864   4.334   1.162   8.564 -0.0535  0.1837 -0.1989
 6849W        W49865  10.414  31.661  26.920  0.0730 -0.1088 -0.0122
 6850W        W49866  15.965  14.843  20.246  0.0195 -0.2475 -0.2796
 6851W        W49867  26.584  34.660   2.205  0.3477 -0.0238  0.0080
 6852W        W49868  28.895  25.574  25.593 -0.0880 -0.0051 -0.2184
 6853W        W49869   0.371  12.863   3.386 -0.2754 -0.2228 -0.0544
 6854W        W49870  12.652   0.382   6.168  0.1759 -0.1989 -0.2378
 6855W        W49871  16.626  11.032  26.550 -0.1921  0.2625 -0.1603
 6856W        W49872  12.368   8.326  22.028  0.2244 -0.1906  0.3947
 6857W        W49873  28.556  29.999  17.205 -0.0694  0.0947 -0.2030
 6858W        W49874  27.770  13.200  14.388 -0.3772  0.0073 -0.1008
 6859W        W49875  14.087  21.916   7.517 -0.2188 -0.0917  0.3669
 6860W        W49876   8.779  28.067  20.620 -0.2018 -0.0850  0.1483
 6861W        W49877  18.782  14.235  24.619  0.0371 -0.1787  0.0391
 6862W        W49878  27.129   5.135   1.382  0.2227  0.1689  0.2865
 6863W        W49879  27.836   5.295  18.727  0.0660 -0.1775 -0.1084
 6864W        W49880   9.681   8.644  26.294  0.0492 -0.1210 -0.0842
 6865W        W49881  15.874   4.206  21.531 -0.5045 -0.3112 -0.1660
 6866W        W49882  25.365  14.963  27.565  0.1836 -0.0314 -0.0867
 6867W        W49883  11.071   8.497  24.116 -0.1926 -0.0146 -0.0170
 6868W        W49884  28.746  26.693  19.861 -0.2372 -0.1800  0.1283
 6869W        W49885  23.846   6.522   5.877 -0.4329  0.0519  0.3331
 6870W        W49886  11.281   7.063  15.305 -0.5145 -0.0104  0.1462
 6871W        W49887   9.115   6.297  18.470  0.2817 -0.0182  0.1386
 6872W        W49888  22.448  30.335  28.194 -0.1678  0.0117  0.1416
 6873W        W49889  27.759  34.223   6.367  0.1868  0.0540 -0.0216
 6874W        W49890  25.201  17.777  15.652  0.1123  0.0692  0.2372
 6875W        W49891  18.387  27.513  17.861  0.1132 -0.1360  0.2505
 6876W        W49892   5.629   1.629  19.624 -0.0745  0.0527 -0.1265
 6877W        W49893  23.741   9.560  20.851  0.1677  0.0459 -0.2604
 6878W        W49894  25.862  15.592  21.502 -0.0103  0.0624 -0.2192
 6879W        W49895  29.420  10.270  15.139  0.0837 -0.0574  0.4263
 6880W        W49896  29.375  12.949  26.003 -0.0638  0.2183 -0.0591
 6881W        W49897   4.076   0.868   0.236  0.2249 -0.3302 -0.0188
 6882W        W49898  26.244  32.893  20.938 -0.2340  0.0415 -0.2305
 6883W        W49899  12.438  11.948  14.346 -0.0400 -0.0174  0.1243
 6884W        W49900  17.646  32.259   3.920  0.2704 -0.1965 -0.0975
 6885W        W49901  24.397   5.261  17.931 -0.0547 -0.0399  0.3826
 6886W        W49902  34.112  19.006  21.445  0.2843 -0.1620  0.0513
 6887W        W49903  26.126  17.299  28.388  0.0367 -0.0111  0.1757
 6888W        W49904   5.984  22.470  23.750  0.1689  0.1030 -0.0105
 6889W        W49905  30.267   6.376   5.829 -0.1138 -0.2448 -0.1847
 6890W        W49906   6.794   4.231  14.491  0.0723  0.2005  0.1317
 6891W        W49907  21.403   6.399  17.452  0.1234  0.0168 -0.1120
 6892W        W49908   5.978   9.774   8.282  0.2637  0.1879  0.0312
 6893W        W49909  34.686   4.870  15.149 -0.0815 -0.4352  0.0739
 6894W        W49910   5.201  15.297   6.162 -0.0479 -0.2119  0.0336
 6895W        W49911  10.498  15.826   2.495  0.2328 -0.0745 -0.0738
 6896W        W49912   0.570  14.083   5.245 -0.3859 -0.1430  0.3714
 6897W        W49913   1.694   6.977  20.927 -0.1372 -0.3872  0.1103
 6898W        W49914   5.335  31.832  15.857  0.0380  0.2190  0.2537
 6899W        W49915  33.182   2.593   6.117  0.2353  0.1063 -0.1895
 6900W        W49916  31.491  27.546  27.995 -0.1275 -0.2983 -0.1859
 6901W        W49917  27.790  26.165   4.504  0.1506  0.2527  0.1517
 6902W        W49918  34.623   1.432  20.179 -0.1300 -0.1006  0.1304
 6903W        W49919  14.559   9.245  24.143  0.6090 -0.0857 -0.1358
 6904W        W49920  14.286  26.249  18.674  0.2679  0.0808  0.0788
 6905W        W49921   5.883  32.859  16.609 -0.2494 -0.2109  0.1559
 6906W        W49922  29.986  10.393   1.053  0.0408  0.1776  0.1452
 6907W        W49923  30.062  16.353   6.099 -0.2308 -0.1272  0.3486
 6908W        W49924   5.747   5.947  19.570 -0.0618  0.1309  0.2538
 6909W        W49925  34.708  13.179  17.747 -0.2705 -0.0580  0.3667
 6910W        W49926   7.056  18.917   0.414 -0.1094  0.2115 -0.0483
 6911W        W49927  28.256  30.467   9.767  0.0465 -0.1403  0.1021
 6912W        W49928   1.268  29.035  25.209  0.1565 -0.3787 -0.2418
 6913W        W49929  30.956  33.608  27.202 -0.0207 -0.1351 -0.2113
 6914W        W49930  21.986  29.727  16.545  0.0647 -0.1120 -0.2129
 6915W        W49931  16.933  23.689   5.211  0.0177  0.1435  0.0152
 6916W        W49932   1.054  19.668  20.155  0.0662  0.0914 -0.0207
 6917W        W49933  18.789  10.569  16.017 -0.1162 -0.1659 -0.1181
 6918W        W49934   4.509   4.028  17.315  0.1770  0.0020 -0.0051
 6919W        W49935   3.853   7.509  20.279 -0.0200  0.0764 -0.0556
 6920W        W49936  13.702  11.034  15.189 -0.0117  0.1195 -0.3931
 6921W        W49937  29.086   4.846   8.280 -0.2307 -0.1889  0.1805
 6922W        W49938  31.739  30.273  20.810 -0.3094 -0.0333 -0.1270
 6923W        W49939   9.816  26.464   2.297 -0.0745 -0.4586  0.0650
 6924W        W49940  18.062   5.789  22.741 -0.1744 -0.1546  0.1679
 6925W        W49941   9.892  32.908  28.880  0.1010 -0.1508  0.1496
 6926W        W49942  32.889  17.196  16.366  0.1114 -0.2017 -0.3536
 6927W        W49943   7.296  18.156  21.325  0.3883  0.3569  0.0851
 6928W        W49944  32.091  17.557  25.609 -0.0207  0.0958 -0.1721
 6929W        W49945  29.736   2.505   9.366  0.1231 -0.2694 -0.0427
 6930W        W49946  29.871  27.576  27.848  0.0199  0.1259 -0.0754
 6931W        W49947   5.832  11.737  10.212 -0.2656  0.1755  0.0819
 6932W        W49948   6.656   4.017  16.132  0.1130 -0.1114 -0.1278
 6933W        W49949  24.892  23.679  17.503 -0.1572 -0.0615 -0.0101
 6934W        W49950  21.964  11.907  25.682 -0.0474  0.1872  0.1422
 6935W        W49951  29.655   4.983   3.555 -0.1549 -0.1115  0.0415
 6936W        W49952   7.601  23.504  28.319 -0.0301 -0.0732  0.2535
 6937W        W49953  30.197   0.125   6.566 -0.0661 -0.0670 -0.1780
 6938W        W49954   7.042  16.823  17.017 -0.0344 -0.0897 -0.2388
 6939W        W49955  32.908   8.812   3.142 -0.5936 -0.0856 -0.1919
 6940W        W49956  11.617  11.581   0.484  0.0142  0.2365  0.0924
 6941W        W49957  34.174   9.546  29.171 -0.0368 -0.2629 -0.4173
 6942W        W49958  31.914  31.312  22.786 -0.1585 -0.0031 -0.0915
 6943W        W49959  21.893  15.666  26.579 -0.0036  0.2694  0.0437
 6944W        W49960   3.431   4.519  18.538  0.1828 -0.1896  0.3077
 6945W        W49961   7.891  29.896   6.672  0.1279 -0.4742  0.3503
 6946W        W49962  16.378  10.356  21.352  0.2400 -0.0013  0.0968
 6947W        W49963  10.577   1.987  22.621  0.0055 -0.0851  0.0494
 6948W        W49964  12.861   9.152   2.959  0.1238 -0.2207  0.1527
 6949W        W49965  24.601   6.324  19.554  0.1120  0.1319 -0.0726
 6950W        W49966   5.619   4.525  23.939 -0.0548  0.1048 -0.3415
 6951W        W49967  28.254  32.690  23.418  0.1643  0.3648 -0.0529
 6952W        W49968   6.310  26.162  16.611 -0.0729 -0.0071 -0.1294
 6953W        W49969  19.810  33.144   6.097  0.1358 -0.3535  0.2246
 6954W        W49970   0.367  22.331  23.303  0.0300 -0.3098  0.2722
 6955W        W49971   6.396  26.246  22.236 -0.2811  0.0390  0.0170
 6956W        W49972   1.493  32.082   6.927  0.0499  0.0469  0.2874
 6957W        W49973  13.318  34.283  24.330  0.0857 -0.1751  0.2393
 6958W        W49974  33.221  14.175  25.172  0.0673  0.2276  0.1103
 6959W        W49975  27.972  33.539  18.628 -0.0633  0.1069  0.0686
 6960W        W49976   5.914  26.432   7.860  0.1763 -0.0022 -0.2146
 6961W        W49977  20.148  10.987  26.335  0.3222 -0.0111  0.1871
 6962W        W49978   6.194   6.075  19.471 -0.2058 -0.0847  0.2165
 6963W        W49979  32.810  23.503   3.347 -0.2525 -0.0809 -0.1263
 6964W        W49980   7.537   5.966  22.692  0.3648 -0.6224  0.2099
 6965W        W49981   4.281  21.461   5.734  0.0493  0.2638  0.2153
 6966W        W49982  11.890  11.635  22.473 -0.2915  0.1303  0.0153
 6967W        W49983  29.938  17.493   2.221 -0.1814 -0.3344 -0.1636
 6968W        W49984   2.615   9.219  22.895  0.1697 -0.4003 -0.0686
 6969W        W49985  30.531   5.925  22.241 -0.1331  0.0143 -0.1147
 6970W        W49986  29.568  20.444  26.797  0.1099  0.3976 -0.0342
 6971W        W49987  25.781   1.869  20.317  0.3549  0.0922  0.4452
 6972W        W49988  28.366  34.293   5.221 -0.0598 -0.2640 -0.1610
 6973W        W49989  28.827  28.855   7.239 -0.0224 -0.1655 -0.1529
 6974W        W49990   4.074   7.733   2.677  0.1045 -0.1728 -0.1023
 6975W        W49991   0.261  25.283  17.885  0.0086 -0.0349 -0.0047
 6976W        W49992  25.850   4.628  19.989  0.1648  0.3916  0.1326
 6977W        W49993   6.938   9.717   7.815  0.1961  0.0315 -0.0109
 6978W        W49994  10.098  22.383   4.213  0.0497  0.0427  0.1007
 6979W        W49995  21.948  30.370   1.373 -0.2006  0.2916  0.0021
 6980W        W49996   3.534  13.228   9.317  0.2287  0.0890  0.0322
 6981W        W49997   5.021  34.090  21.900  0.1496 -0.0895  0.1413
 6982W        W49998  18.598   7.436   6.416  0.0401  0.1962  0.1582
 6983W        W49999  22.315   1.602  19.654  0.1335 -0.1155  0.5039
 6984W        W50000   2.455   8.849  16.734 -0.0318 -0.0758 -0.0086
 6985W        W50001   9.641  19.003  16.398 -0.1246  0.0177 -0.0309
 6986W        W50002   8.212  13.697  22.918  0.0530 -0.0259  0.3112
 6987W        W50003  33.373  23.860  14.987  0.1395  0.0942  0.1571
 6988W        W50004  23.144  33.355   4.366 -0.0526  0.0669  0.0100
 6989W        W50005   0.050  30.350  19.037  0.1334 -0.2254  0.0940
 6990W        W50006  14.077   5.819  18.633  0.1163 -0.1255  0.0302
 6991W        W50007   1.483  31.074  29.168 -0.1488  0.1720 -0.0815
 6992W        W50008  18.059  32.449  10.853  0.2044  0.0608  0.1582
 6993W        W50009  19.814  10.178  26.055  0.0839 -0.0009  0.0089
 6994W        W50010  10.811  17.210   7.834 -0.0189  0.2135  0.0877
 6995W        W50011  12.130  17.183   0.061 -0.3013  0.0883  0.1933
 6996W        W50012  15.178   5.725  21.999  0.1370  0.1238 -0.3818
 6997W        W50013   7.288   9.376   0.434  0.2548  0.0782 -0.0389
 6998W        W50014   0.754  13.812  22.551 -0.0750  0.1489  0.0067
 6999W        W50015   8.779  14.694  15.403 -0.0613 -0.1048  0.0149
 7000W        W50016   5.080   4.397   6.637  0.0251  0.1167  0.3403
 7001W        W50017  14.318   7.854  16.448  0.1127 -0.2126  0.0732
 7002W        W50018   0.382  20.282  28.151  0.0739 -0.0999  0.0363
 7003W        W50019  12.659  14.142  29.068  0.0501 -0.0751  0.0797
 7004W        W50020  31.564  31.993  18.155  0.0208  0.2454 -0.0097
 7005W        W50021  21.647   7.958   2.396  0.0182 -0.0644  0.4195
 7006W        W50022  34.683  32.530  23.728  0.0587  0.2140 -0.1696
 7007W        W50023  27.148  32.677  22.786  0.0373 -0.1825  0.1185
 7008W        W50024  25.123   8.894  16.348  0.0791 -0.4685  0.3705
 7009W        W50025  32.520  23.558  22.831 -0.1316 -0.2517 -0.0362
 7010W        W50026  13.684   1.708  17.078  0.0752  0.3971 -0.0673
 7011W        W50027  27.397  26.372   2.982 -0.0109 -0.1885 -0.0584
 7012W        W50028  22.988   0.855  15.708 -0.2604 -0.0115  0.1497
 7013W        W50029   1.295   4.957   1.420  0.2481 -0.1147 -0.3357
 7014W        W50030   7.964  32.069   0.458 -0.2134  0.1016 -0.2511
 7015W        W50031  26.263   0.336   3.463  0.0402  0.0016 -0.2903
 7016W        W50032   9.983   9.898   8.597 -0.0656 -0.1665 -0.1077
 7017W        W50033  30.498   9.967   8.786 -0.0705  0.1746 -0.0585
 7018W        W50034   7.642  16.600   5.506 -0.3019  0.0298 -0.2781
 7019W        W50035  28.546  13.623  20.821 -0.0278 -0.3947 -0.0068
 7020W        W50036  14.895  28.316  27.199  0.0908 -0.0941  0.0725
 7021W        W50037  30.120   1.977   3.165 -0.0703  0.0749  0.1753
 7022W        W50038  31.921   3.554  23.803 -0.2168  0.2000 -0.0609
 7023W        W50039   7.913  14.233  27.144  0.0959  0.2963  0.0077
 7024W        W50040   1.428  18.817  28.951  0.3417 -0.0622 -0.2133
 7025W        W50041   6.336   8.867  16.939 -0.4275 -0.1167 -0.1743
 7026W        W50042  32.737  12.509  23.702 -0.3647 -0.2133 -0.0175
 7027W        W50043   7.351   9.212  20.088 -0.1272 -0.0935  0.4637
 7028W        W50044   3.484  13.380  18.384 -0.0222  0.1182  0.1356
 7029W        W50045   6.016   4.267  20.501  0.0174 -0.2273 -0.3189
 7030W        W50046   6.762  34.462   2.071 -0.0544  0.1539  0.0471
 7031W        W50047  34.036   3.426   1.613 -0.0508 -0.2031  0.1615
 7032W        W50048  14.656   4.723   4.566 -0.1499 -0.1598  0.1547
 7033W        W50049  12.868   4.080  18.959  0.1693  0.4147  0.0032
 7034W        W50050  13.353  18.034  24.289 -0.3246 -0.2153 -0.2393
 7035W        W50051   3.264  14.663  16.859 -0.1353  0.3374  0.0280
 7036W        W50052  34.282   9.863  17.470  0.4695  0.0957 -0.4081
 7037W        W50053  33.133  15.223  24.107 -0.0858  0.3231 -0.1603
 7038W        W50054   7.900   0.073  21.948  0.1144 -0.2888 -0.0625
 7039W        W50055   3.252  31.029   1.026 -0.0232 -0.1626  0.0328
 7040W        W50056  21.049  31.996   4.692 -0.2684 -0.3988 -0.0754
 7041W        W50057  15.126  16.335  20.508 -0.0353 -0.1375  0.1988
 7042W        W50058   9.789  28.267   7.661  0.0683 -0.1865  0.2483
 7043W        W50059  29.837   1.799  11.351  0.0552  0.2178  0.1113
 7044W        W50060  33.661  24.596   3.793  0.1243  0.3080  0.2232
 7045W        W50061  33.469  17.081   8.117 -0.1105 -0.2839 -0.1304
 7046W        W50062  23.330  12.913   1.419 -0.0397 -0.0985  0.1091
 7047W        W50063   9.135  13.437  25.012 -0.0678 -0.0438  0.2305
 7048W        W50064   3.780  12.722  25.597 -0.0824 -0.0534  0.0835
 7049W        W50065  11.977  24.831  23.663  0.0202 -0.1053  0.1555
 7050W        W50066  26.458  17.680   7.631  0.0206  0.2045 -0.1609
 7051W        W50067   1.490  15.762  26.102  0.1455 -0.2422 -0.1640
 7052W        W50068  13.554  14.251  16.041  0.1723 -0.2203  0.2565
 7053W        W50069   8.594   6.310  23.969  0.0906 -0.2973 -0.1268
 7054W        W50070   2.930  15.093   0.609 -0.1568  0.0554  0.0703
 7055W        W50071  23.615   6.599   6.808 -0.0393 -0.3813  0.1892
 7056W        W50072  25.555   7.256  10.635  0.0270  0.0157  0.1800
 7057W        W50073   2.367   8.173  22.141  0.1503  0.2371 -0.3561
 7058W        W50074  24.089  14.887  21.977  0.2538 -0.2067  0.1985
 7059W        W50075   0.820  27.710   9.429  0.1025  0.0403 -0.1560
 7060W        W50076   9.693  34.179  28.494 -0.2896 -0.3004 -0.1111
 7061W        W50077   6.053  23.731  28.172  0.3574  0.1838  0.2535
 7062W        W50078  16.473  28.928   5.241 -0.0411 -0.0780 -0.0446
 7063W        W50079   9.192   7.538   2.461  0.1663  0.2010 -0.0368
 7064W        W50080  16.368   4.348  23.334 -0.0008  0.2163 -0.0288
 7065W        W50081   0.143   5.285  15.389  0.3553  0.0252 -0.2917
 7066W        W50082  29.661   7.439   0.604  0.1806  0.0850 -0.1594
 7067W        W50083  31.234  16.423   5.553  0.1688 -0.5135 -0.0694
 7068W        W50084   4.792  23.529  13.625 -0.0560  0.0051  0.0130
 7069W        W50085  32.984  26.857  24.251 -0.0827 -0.1471  0.2288
 7070W        W50086   1.601  26.777   8.715  0.0993  0.4701 -0.0009
 7071W        W50087  33.287   9.418   3.898 -0.0584 -0.2671 -0.2192
 7072W        W50088  32.988   1.427  14.886 -0.1308 -0.1099  0.2983
 7073W        W50089  12.359  17.402  23.023 -0.1732 -0.0183  0.0186
 7074W        W50090   8.550  32.031  26.461  0.2305  0.0665 -0.2016
 7075W        W50091  14.116  20.899  15.821  0.0179 -0.1554  0.0561
 7076W        W50092  30.613  23.218  14.669  0.1087  0.1437 -0.2131
 7077W        W50093   6.325   9.732  19.746  0.2514  0.0986 -0.1925
 7078W        W50094   3.474  10.888   3.093 -0.2282  0.2265  0.0696
 7079W        W50095  23.042  31.632  25.803 -0.1620  0.0020  0.0860
 7080W        W50096  25.183   9.775  22.596  0.1017 -0.0939  0.2900
 7081W        W50097  19.228   2.437   5.387  0.2267  0.1031 -0.1615
 7082W        W50098   8.834  19.440  13.753 -0.1023  0.0269  0.1156
 7083W        W50099  31.413   3.552  19.384  0.0608 -0.1949  0.0322
 7084W        W50100  32.826   7.978  27.461  0.0673 -0.0586  0.1152
 7085W        W50101   0.866   4.212   9.649  0.0149 -0.1243 -0.3193
 7086W        W50102  10.508   1.676   8.643 -0.1600 -0.0030  0.4266
 7087W        W50103  32.821  15.022   4.532 -0.1039  0.2986  0.4631
 7088W        W50104   6.158  25.258  29.133 -0.1061 -0.2973 -0.1913
 7089W        W50105  20.868  16.141  25.107  0.1931 -0.3451  0.2432
 7090W        W50106   0.011   7.174  14.707 -0.1395  0.2196 -0.1960
 7091W        W50107  34.694   7.145   4.198 -0.1782  0.0079  0.0900
 7092W        W50108   5.599   6.306   3.718 -0.0480  0.0368  0.0790
 7093W        W50109   0.208  20.687  17.566 -0.1956  0.1336  0.0195
 7094W        W50110  14.394   2.202  15.088 -0.2430 -0.0667  0.0850
 7095W        W50111  25.728  19.629   3.724 -0.3105 -0.0175  0.3398
 7096W        W50112  32.914  27.716  28.210  0.1378  0.1435 -0.0189
 7097W        W50113   4.427  14.094   0.729 -0.2015 -0.0338  0.1328
 7098W        W50114  15.265  14.672   3.182 -0.0381  0.3408 -0.0939
 7099W        W50115  32.784   4.192   2.794 -0.0394  0.4688  0.0808
 7100W        W50116   1.462   6.452   8.495  0.1005  0.0491 -0.0327
 7101W        W50117   9.559  34.103  14.147 -0.1301  0.0679 -0.1570
 7102W        W50118  28.403  13.019  18.252  0.0486  0.1667  0.0085
 7103W        W50119  15.283  12.896  28.260 -0.0190  0.2303 -0.0315
 7104W        W50120   0.258   8.978   6.390 -0.2836 -0.0512  0.0763
 7105W        W50121  27.524  34.436  17.125  0.2920  0.1474  0.0074
 7106W        W50122   7.303  33.159  15.570 -0.0442  0.0704  0.1148
 7107W        W50123  21.130  32.445   7.901 -0.0005 -0.0637 -0.2986
 7108W        W50124   7.527   2.880  27.676 -0.0020 -0.1013  0.1972
 7109W        W50125  33.534   5.316   0.110  0.2882 -0.0739  0.2009
 7110W        W50126   3.310  12.166   3.218  0.1332 -0.0586  0.0938
 7111W        W50127  15.524  34.337  28.000  0.0112  0.2424  0.1011
 7112W        W50128   5.977   7.992   0.685  0.1578  0.2510  0.2728
 7113W        W50129  28.322  16.960  20.302 -0.2568  0.2812  0.1795
 7114W        W50130  15.064  11.021  15.689  0.0288  0.0975  0.1815
 7115W        W50131  10.193  17.103  14.161  0.1860  0.2049 -0.0960
 7116W        W50132  29.562   5.687   5.867  0.2050  0.0647  0.3338
 7117W        W50133  27.448  17.101   6.973 -0.3728  0.1366  0.0675
 7118W        W50134   4.996   0.433   8.455 -0.3045  0.0502 -0.0310
 7119W        W50135  23.004   8.205  16.627 -0.0906  0.3254 -0.2389
 7120W        W50136  23.293   9.080  19.566  0.1638 -0.0127  0.1853
 7121W        W50137   9.251  33.685  21.283  0.0605  0.3176  0.2936
 7122W        W50138  11.606  21.615  16.393  0.0860 -0.0375  0.1261
 7123W        W50139  24.058   3.734  19.131  0.0908  0.1330 -0.1579
 7124W        W50140   1.643  14.221  20.008 -0.1736  0.1076  0.1266
 7125W        W50141   4.290  12.239  22.790 -0.0842 -0.1660 -0.5737
 7126W        W50142  10.667  11.278  20.178  0.1343 -0.0416  0.1117
 7127W        W50143  30.134  15.943   4.758 -0.0563  0.0181 -0.1642
 7128W        W50144  16.361   5.625  16.191 -0.2251  0.1019 -0.2040
 7129W        W50145  30.040   9.509  24.387  0.1983  0.0207 -0.3912
 7130W        W50146  12.407   1.476   9.986  0.2538 -0.2508  0.1470
 7131W        W50147   2.769   6.021  22.138  0.5505  0.1244 -0.0109
 7132W        W50148   8.108  30.776  21.983 -0.1775 -0.1694  0.0208
 7133W        W50149  12.859   6.696   1.099  0.0277  0.1872  0.0140
 7134W        W50150  33.625   0.452   8.865  0.1132  0.1468  0.0083
 7135W        W50151  26.578   2.305  18.098 -0.0964  0.0249  0.2940
 7136W        W50152   8.400  28.859  25.685  0.2101 -0.2436 -0.0255
 7137W        W50153  27.024   6.775  24.879  0.2768 -0.0913  0.0606
 7138W        W50154   7.595  16.012  14.059 -0.2701 -0.1610  0.1732
 7139W        W50155  20.399  22.536  27.309  0.1689 -0.1851  0.1274
 7140W        W50156  25.780   7.245  25.053 -0.0866  0.0721  0.0909
 7141W        W50157  19.498   6.970   3.442  0.1901  0.0404 -0.2843
 7142W        W50158   4.197   9.162  18.411  0.2184  0.1674  0.1473
 7143W        W50159  23.903  27.120   4.366  0.0695 -0.3139  0.0610
 7144W        W50160  11.631   9.369  20.181  0.0464 -0.0784 -0.0678
 7145W        W50161  23.583  13.318  25.854  0.1029 -0.0435  0.2663
 7146W        W50162   1.348  21.929  27.287 -0.2742 -0.1936 -0.1842
 7147W        W50163  11.666  10.770   2.143  0.0208  0.1382 -0.0647
 7148W        W50164   9.384   7.235  20.001  0.4544 -0.0391  0.2022
 7149W        W50165  28.779  14.123  16.869  0.1434 -0.2824 -0.2866
 7150W        W50166   3.709  18.379  16.582 -0.0779 -0.1857  0.0791
 7151W        W50167   0.975   0.213  18.651 -0.0423 -0.2557 -0.0009
 7152W        W50168  10.374   3.930  19.273 -0.0149  0.1305 -0.0695
 7153W        W50169  13.417   8.352   1.268 -0.1185  0.0538  0.0554
 7154W        W50170  15.331   6.241  21.898  0.0214  0.0593  0.0209
 7155W        W50171  21.833   5.502  28.280 -0.0166  0.0342 -0.2982
 7156W        W50172   7.778  15.999  26.918 -0.1060  0.0029  0.1735
 7157W        W50173  28.511   5.876  10.773  0.1036 -0.1967 -0.0296
 7158W        W50174   7.801   4.924  15.885 -0.2010  0.1519  0.3264
 7159W        W50175   8.505   5.811  26.703  0.3384 -0.0235 -0.2427
 7160W        W50176  32.214  26.228   3.365  0.2020 -0.1243  0.2521
 7161W        W50177   9.860   5.304   9.884 -0.2264  0.3384  0.1501
 7162W        W50178  10.994  32.993  22.673  0.1727  0.0719  0.0268
 7163W        W50179  29.251   0.299  11.460  0.0111  0.0993  0.1643
 7164W        W50180  25.819   0.751  22.330 -0.1712 -0.2138  0.0278
 7165W        W50181   4.735  16.823  16.688 -0.0262  0.0167  0.2221
 7166W        W50182  29.129  12.642  27.263 -0.0044  0.0585  0.0619
 7167W        W50183  11.183  10.775  16.901 -0.1803 -0.1285  0.1660
 7168W        W50184  12.054   5.295  27.682 -0.1302 -0.1649  0.2148
 7169W        W50185  21.257   6.844  24.559  0.0412 -0.2821  0.2132
 7170W        W50186   0.075  10.493  15.008 -0.0968  0.2893 -0.1179
 7171W        W50187  21.310  14.443  14.036  0.1943  0.2176  0.1291
 7172W        W50188   7.202   3.181   1.713  0.1377 -0.1318  0.1062
 7173W        W50189  33.217  20.109  25.395  0.1500  0.1729 -0.1086
 7174W        W50190   6.019  10.905   1.923 -0.1528  0.0770  0.0386
 7175W        W50191  28.237  12.089  19.926  0.3614  0.0742 -0.2187
 7176W        W50192  23.003  32.242   2.367 -0.0685 -0.1468 -0.1476
 7177W        W50193   5.757   2.027   9.802 -0.1800 -0.0021  0.2276
 7178W        W50194   5.772  14.961   4.350  0.1227  0.2721  0.2046
 7179W        W50195   4.102   2.229  26.412 -0.1609  0.1458 -0.0541
 7180W        W50196   0.362   7.135  18.168 -0.0252  0.0655  0.0201
 7181W        W50197  24.177   4.823  20.709 -0.4522 -0.1798  0.0549
 7182W        W50198   3.408  31.432  18.504 -0.0895 -0.0423 -0.0638
 7183W        W50199   3.265  10.042   0.870 -0.1980  0.0883 -0.0014
 7184W        W50200   7.652  11.532   3.432 -0.1170 -0.0263 -0.1044
 7185W        W50201   0.335   1.003   3.139 -0.1757 -0.3254  0.1292
 7186W        W50202  28.049   3.946   2.504 -0.2603 -0.0785 -0.0900
 7187W        W50203   9.888  27.077  24.996  0.1504  0.0215  0.1191
 7188W        W50204  33.160  25.971  24.251  0.1897 -0.3413  0.0018
 7189W        W50205  33.452  34.109   3.545 -0.0865  0.1819 -0.1348
 7190W        W50206  20.298   9.491   6.292  0.2229 -0.3258  0.0322
 7191W        W50207  29.979  24.461  28.597  0.1759  0.3730 -0.0467
 7192W        W50208  32.474  13.835  27.639  0.3311  0.2295 -0.1671
 7193W        W50209  13.562  23.218  28.852  0.0902 -0.1137  0.0254
 7194W        W50210  10.002   9.288  29.007 -0.2393  0.0424  0.0011
 7195W        W50211   3.463   8.855   6.688  0.0190 -0.2188  0.0501
 7196W        W50212   0.559  31.435   7.582 -0.2428 -0.1525  0.0421
 7197W        W50213   3.368   7.671  29.193  0.3861 -0.1386  0.0322
 7198W        W50214  12.364  29.872   3.611  0.0603 -0.1877 -0.1237
 7199W        W50215   5.435  14.425  20.991 -0.1174 -0.2292  0.1610
 7200W        W50216  33.202  25.328   6.275  0.3282  0.1620 -0.2207
 7201W        W50217  15.770  13.686  26.832  0.2218 -0.2443 -0.2813
 7202W        W50218  34.071   1.420   4.397 -0.3276  0.1105  0.0173
 7203W        W50219   5.955  26.330   1.067 -0.0582 -0.2153 -0.0769
 7204W        W50220  28.495  11.598   3.944  0.0471  0.1495 -0.2254
 7205W        W50221   0.016  19.269  16.334  0.2484 -0.1681  0.0930
 7206W        W50222  22.188   6.618  24.364 -0.2239  0.0816  0.0158
 7207W        W50223  21.423  13.786   4.026  0.2542  0.3109  0.2584
 7208W        W50224  31.803  14.119   5.862 -0.0789 -0.0317  0.2637
 7209W        W50225  15.803  24.764   6.526  0.1642  0.0363  0.0055
 7210W        W50226  22.540   0.722   0.195 -0.0635  0.3934  0.0443
 7211W        W50227   0.832  21.541   9.096  0.2209 -0.1406 -0.4221
 7212W        W50228   0.881   7.991  17.768  0.1662  0.0284 -0.1627
 7213W        W50229  22.257   2.409   3.591 -0.0614 -0.0530  0.4808
 7214W        W50230  32.033  34.623   8.141  0.0696 -0.0665  0.2889
 7215W        W50231  25.425   3.022  28.086  0.2458  0.1418 -0.1909
 7216W        W50232  23.362   1.588  17.637  0.0043 -0.1216  0.0790
 7217W        W50233  23.915  16.259  14.879  0.3083  0.2806  0.0537
 7218W        W50234   2.200  33.522   4.136  0.0040  0.4718 -0.2595
 7219W        W50235   2.359  24.543  25.779 -0.0506  0.1763  0.2985
 7220W        W50236   9.591   5.095  23.570  0.0931  0.1641 -0.1208
 7221W        W50237   2.711   9.491  15.770  0.0691  0.2104  0.0149
 7222W        W50238  15.489  30.970   2.624 -0.1974  0.1539 -0.5212
 7223W        W50239  15.850  13.135  22.291  0.0529  0.0050  0.0735
 7224W        W50240  33.006  10.215  19.198  0.1853 -0.0634  0.0301
 7225W        W50241  34.672  22.543  26.316  0.1593  0.2509 -0.0447
 7226W        W50242  15.819   3.997   9.535 -0.0916  0.0166 -0.0051
 7227W        W50243  10.822  30.650   4.044 -0.0383  0.1676 -0.3643
 7228W        W50244  33.138   1.721   4.452 -0.0758  0.4303  0.0452
 7229W        W50245  20.075  33.863   4.877  0.2189 -0.1181 -0.0019
 7230W        W50246   6.930  11.375  26.421 -0.0910  0.0422  0.2300
 7231W        W50247  27.316  30.455   1.796  0.0239  0.2022  0.3663
 7232W        W50248  16.226  20.268   4.974  0.2161 -0.2339 -0.3564
 7233W        W50249   3.667   3.537  26.686 -0.0430 -0.0817 -0.1998
 7234W        W50250  12.016   7.126  28.985 -0.0159 -0.0446 -0.0253
 7235W        W50251  30.461  20.921  21.763  0.0614 -0.1979 -0.2864
 7236W        W50252   0.548  28.647  20.314  0.0505  0.2391 -0.0518
 7237W        W50253  14.138   1.507  28.668  0.1095 -0.0165 -0.0502
 7238W        W50254   0.876   4.679  23.818 -0.1090  0.3395  0.0311
 7239W        W50255   5.900   7.471  21.728 -0.0362  0.1705 -0.3593
 7240W        W50256  10.941   2.676  15.759  0.2489 -0.1104  0.0128
 7241W        W50257   6.757   5.344   2.271 -0.1061 -0.0623  0.1200
 7242W        W50258  12.009   3.616  20.609 -0.2069  0.1240  0.0173
 7243W        W50259   9.969  34.586  20.410 -0.0011 -0.2617  0.0689
 7244W        W50260  30.669   1.485   5.399 -0.0359  0.0707 -0.0460
 7245W        W50261   1.175  34.220  15.452 -0.1435  0.0156  0.0303
 7246W        W50262  27.112  19.933  22.934  0.2398 -0.2146  0.1892
 7247W        W50263   9.130   8.072   1.051 -0.1514  0.2617  0.0821
 7248W        W50264  26.482   4.552  22.883  0.2733 -0.3551 -0.2074
 7249W        W50265   5.278   9.700   2.061 -0.3305 -0.0989 -0.2294
 7250W        W50266  32.487  10.290  22.875 -0.0208 -0.0331  0.1204
 7251W        W50267   0.615  30.189   6.408  0.1390  0.0422 -0.0835
 7252W        W50268   9.731  29.522  23.165 -0.0869  0.1665  0.1342
 7253W        W50269  12.635  33.312  25.798 -0.2590 -0.2279 -0.0225
 7254W        W50270  10.871  28.468  14.550 -0.0485 -0.3318 -0.0245
 7255W        W50271  16.830   2.862  18.921  0.0749  0.0982 -0.0365
 7256W        W50272   8.890   9.899  16.377 -0.1266 -0.1585  0.2772
 7257W        W50273  31.381  14.233  15.712 -0.3134  0.0719  0.3991
 7258W        W50274  27.214   5.291  28.029 -0.0279  0.3463  0.1754
 7259W        W50275   3.145  25.571  20.676  0.1917 -0.1192 -0.1934
 7260W        W50276  29.446  17.908  20.870  0.0115 -0.3325  0.1206
 7261W        W50277  25.543  17.888  19.207 -0.0162  0.0729 -0.2345
 7262W        W50278  12.002  14.646  13.249  0.2026  0.1984  0.2090
 7263W        W50279   5.695   6.494  16.639 -0.1980  0.0369 -0.0136
 7264W        W50280   3.877  10.198  21.057 -0.1223 -0.0927  0.0939
 7265W        W50281   5.533   8.706  27.859 -0.4948  0.1179 -0.1004
 7266W        W50282   5.582   9.061  25.435 -0.0978 -0.0161  0.0036
 7267W        W50283   1.517  12.915  18.068 -0.1652 -0.1700 -0.2132
 7268W        W50284  11.149   1.977  20.882  0.1783 -0.1115  0.2318
 7269W        W50285  31.283   6.523   3.597 -0.2371 -0.0717 -0.2284
 7270W        W50286   2.468   3.901  15.087 -0.0693  0.0857 -0.1040
 7271W        W50287  10.289  24.973  27.011 -0.0256  0.3545 -0.1200
 7272W        W50288   2.615  11.280  17.436 -0.1491  0.1490 -0.0558
 7273W        W50289  28.251  17.805  15.239  0.0625 -0.3549 -0.2606
 7274W        W50290   4.340  21.917  18.737  0.0131  0.0508  0.2205
 7275W        W50291   7.843   9.089  19.803  0.3328 -0.0752 -0.2133
 7276W        W50292  18.576  32.860   3.820 -0.1758 -0.1749 -0.1256
 7277W        W50293  22.913   1.599   7.331  0.0497  0.1235 -0.0792
 7278W        W50294  23.964  12.380  22.546  0.2443 -0.0683 -0.1545
 7279W        W50295  31.433  27.196  21.672 -0.0927 -0.0389  0.2155
 7280W        W50296  33.005  14.484  25.484  0.0739 -0.0369 -0.0154
 7281W        W50297   8.096   2.737  18.026 -0.1233 -0.2065  0.1210
 7282W        W50298  14.463  14.818  12.932 -0.3126  0.4183 -0.3853
 7283W        W50299   7.363  30.911  18.834  0.3029  0.2710 -0.0031
 7284W        W50300   6.044  11.705  15.000 -0.1316  0.2343 -0.3165
 7285W        W50301  31.534  26.158  23.966  0.0340  0.0501 -0.1639
 7286W        W50302   1.824   6.092  17.656  0.2054 -0.0622 -0.1128
 7287W        W50303   5.153   9.493  17.505  0.2374 -0.1253 -0.2067
 7288W        W50304  25.000   6.505  21.784 -0.0553 -0.1531 -0.3397
 7289W        W50305  27.654  15.664  19.630 -0.1249 -0.1958 -0.2850
 7290W        W50306  28.110  10.626  21.638 -0.2171  0.1027  0.1198
 7291W        W50307  16.286   3.013  19.068  0.0410  0.0052  0.0959
 7292W        W50308   5.052  11.461  15.011 -0.0352  0.2063 -0.2266
 7293W        W50309  33.986  18.922  17.169 -0.1166 -0.0870  0.3129
 7294W        W50310  18.738  20.116  22.349  0.1313 -0.2703  0.2264
 7295W        W50311   0.845  32.581  14.819  0.1134 -0.1332  0.1771
 7296W        W50312  31.406   7.676  18.997 -0.1846 -0.0700 -0.1458
 7297W        W50313  27.639  22.942  23.000 -0.2144 -0.0042 -0.1256
 7298W        W50314  14.670   5.037   3.433  0.1634 -0.1963 -0.1537
 7299W        W50315  32.524  19.990  17.604  0.2038  0.1640  0.1391
 7300W        W50316  29.867   4.737   3.178 -0.0475 -0.2315  0.1039
 7301W        W50317  33.811  15.826  18.259 -0.0725 -0.1377  0.3199
 7302W        W50318  29.494   2.349  21.534 -0.0492  0.1956 -0.1474
 7303W        W50319  17.537   4.646  16.905 -0.1021  0.2203 -0.2527
 7304W        W50320  29.620  31.931  21.671 -0.3533  0.2066  0.1415
 7305W        W50321  27.460   0.973  21.570  0.3137  0.1287 -0.2091
 7306W        W50322  18.382   4.579  18.247  0.3041  0.0032  0.1025
 7307W        W50323  25.010  12.784  15.865  0.0256  0.0112 -0.0116
 7308W        W50324   0.601  13.770   6.057 -0.1588  0.2296  0.0516
 7309W        W50325  30.758   3.080   1.998 -0.1586  0.2743  0.1500
 7310W        W50326  28.936  14.017  27.955 -0.3044 -0.1155 -0.3311
 7311W        W50327   3.877  26.495  20.663  0.2188  0.2993 -0.0554
 7312W        W50328  34.464  16.115  16.545 -0.1050 -0.2367 -0.2765
 7313W        W50329  26.130  16.466  29.117 -0.1916  0.0780 -0.0695
 7314W        W50330   0.192  34.001  15.374  0.3900 -0.2918  0.0322
 7315W        W50331   2.971  11.620  22.053  0.2087  0.0582 -0.4490
 7316W        W50332   2.820   6.803  14.540  0.0802  0.0542 -0.0930
 7317W        W50333   6.796  34.274  18.870 -0.2149  0.0235 -0.2753
 7318W        W50334   9.665  22.388  17.447  0.0433 -0.1829 -0.0234
 7319W        W50335   6.298  18.696  20.253  0.1316 -0.0902 -0.0731
 7320W        W50336   0.634  31.992  16.408 -0.4141 -0.0903 -0.0836
 7321W        W50337  34.113  15.022  18.410 -0.2550  0.2842 -0.2696
 7322W        W50338  16.069  28.836  16.048  0.2199 -0.2043 -0.1519
 7323W        W50339   0.030  29.266  28.888  0.0147 -0.2623  0.2728
 7324W        W50340   8.450  11.609  22.300 -0.1230  0.2209  0.3773
 7325W        W50341  28.495  18.230  28.085  0.3343  0.1088 -0.0242
 7326W        W50342  10.005  28.647  17.031  0.0980 -0.1974  0.0358
 7327W        W50343  24.839   3.307  21.176  0.0975  0.0101  0.1723
 7328W        W50344  33.636   1.496  21.189 -0.1693 -0.2737  0.0284
 7329W        W50345  11.451  15.855  15.347 -0.3825 -0.2449 -0.1732
 7330W        W50346   2.405   4.186  13.918  0.0160 -0.0943 -0.0565
 7331W        W50347   5.183   7.302  14.803  0.1841  0.2398 -0.0934
 7332W        W50348  31.371  20.434  16.457 -0.0097 -0.0305  0.0403
 7333W        W50349   7.147  33.906  15.858 -0.2021 -0.1917  0.0676
 7334W        W50350  13.072  13.686  16.435 -0.2442 -0.1861  0.0854
 7335W        W50351  10.832  19.883  17.594 -0.0236 -0.0708 -0.1649
 7336W        W50352   7.013  23.323  13.749 -0.1692 -0.1670 -0.2113
 7337W        W50353  11.137  14.574   2.778 -0.1437 -0.0143 -0.1097
 7338W        W50354   2.919  17.692  13.873  0.0773  0.1061  0.0020
 7339W        W50355  18.932   6.923  14.408  0.0803  0.0858 -0.0216
 7340W        W50356   9.188  14.430  16.411 -0.0690  0.1163  0.4450
 7341W        W50357   7.211   9.203  14.102 -0.1135  0.0962  0.0040
 7342W        W50358  29.654   7.957  15.369 -0.2050  0.1113  0.2074
 7343W        W50359  17.440  28.480  17.250  0.1378  0.2264 -0.1537
 7344W        W50360  31.020  25.826   6.185 -0.0462 -0.2493 -0.6298
 7345W        W50361  19.309  27.494   3.471 -0.0525 -0.1169 -0.0490
 7346W        W50362  29.277  11.279  21.947 -0.0787 -0.0842  0.1683
 7347W        W50363   3.721   5.021  22.017 -0.0480  0.0453  0.1195
 7348W        W50364   4.589   9.537  17.565  0.0803 -0.1032 -0.0340
 7349W        W50365  28.440   1.756   4.532 -0.1025 -0.2399 -0.2184
 7350W        W50366  28.930  23.766  22.516  0.2618 -0.0868 -0.0671
 7351W        W50367  16.630   3.976  17.071  0.0904 -0.0056  0.1210
 7352W        W50368  10.644  13.415  21.212  0.1556 -0.2204  0.1579
 7353W        W50369  31.256  25.565  22.679  0.1709 -0.0363  0.2681
 7354W        W50370  18.747  31.208  17.443 -0.1834  0.1354  0.1401
 7355W        W50371  28.265   2.389  18.693  0.2450  0.1261 -0.0114
 7356W        W50372   1.419  17.232  24.609 -0.2249 -0.1213 -0.2630
 7357W        W50373  33.471  18.627  25.414 -0.1469 -0.0253 -0.0058
 7358W        W50374  23.096  34.117   6.127 -0.2122 -0.0484  0.0018
 7359W        W50375  33.182  18.735  20.622 -0.0592 -0.2130  0.1126
 7360W        W50376   3.386   8.474  26.970  0.0662  0.0312  0.0548
 7361W        W50377   6.160  21.525  22.218 -0.1758  0.1509 -0.2363
 7362W        W50378  20.527  22.859  14.314  0.0631 -0.1583 -0.3020
 7363W        W50379   4.227  31.709  16.157  0.1392  0.0941  0.2555
 7364W        W50380   2.793   9.416  21.409  0.0172 -0.2826  0.4428
 7365W        W50381   0.524  19.432  16.311  0.0723  0.1912  0.2363
 7366W        W50382  11.167  27.908  28.935  0.0512 -0.1711 -0.0411
 7367W        W50383  20.486   4.671  23.209  0.0740 -0.0546 -0.3383
 7368W        W50384  33.235   8.229  27.589 -0.1154 -0.0229  0.1805
 7369W        W50385  28.437  11.801  14.747 -0.2288 -0.1974  0.0284
 7370W        W50386  29.862  13.447  16.474 -0.4460 -0.3236 -0.1488
 7371W        W50387  22.451  11.496  24.220  0.1029  0.2074  0.0648
 7372W        W50388  34.643  14.899  17.123  0.0260  0.0200  0.1276
 7373W        W50389  34.188   9.042   1.391  0.3443 -0.0098  0.2118
 7374W        W50390  30.839   4.028  24.845 -0.1892 -0.0873 -0.2552
 7375W        W50391  24.309  33.015   2.264  0.5153 -0.0021 -0.1017
 7376W        W50392  17.107  15.761  23.443  0.0396  0.0747 -0.0742
 7377W        W50393   1.333   7.428  25.341 -0.1170  0.0676 -0.4844
 7378W        W50394   9.705   0.488  16.976 -0.2505  0.1096  0.1766
 7379W        W50395  18.332   8.538  16.074 -0.1968 -0.4938 -0.3182
 7380W        W50396  21.217  34.119  18.997 -0.3393  0.2024  0.1086
 7381W        W50397   5.182  10.800  22.677  0.2842 -0.1266 -0.0844
 7382W        W50398   8.702  19.259  19.899  0.1274 -0.3601  0.0405
 7383W        W50399  27.286  11.038   0.062  0.0270 -0.2408 -0.1813
 7384W        W50400  34.015  21.918  20.177  0.1390  0.0104  0.0245
 7385W        W50401   4.987   3.245  18.976 -0.0664 -0.1459  0.2179
 7386W        W50402  17.696  24.248   5.925  0.2144  0.1701  0.0393
 7387W        W50403   2.728   4.408  16.464  0.1068 -0.3628 -0.1315
 7388W        W50404   2.927  30.838  21.002  0.3316 -0.2261  0.1754
 7389W        W50405  33.309  19.656  21.514 -0.1717  0.1355  0.2268
 7390W        W50406  28.402  22.149  26.234 -0.0791 -0.0567 -0.0292
 7391W        W50407  12.698  26.161  21.563  0.0523  0.3652 -0.4205
 7392W        W50408  30.468   7.074   0.455  0.3511 -0.2022 -0.2635
 7393W        W50409   4.417   1.181  22.897 -0.1648 -0.0145  0.1280
 7394W        W50410  32.037  19.833   1.018  0.3245  0.2093  0.0790
 7395W        W50411  24.182   8.220  21.492 -0.0922 -0.2447  0.5295
 7396W        W50412  23.980   3.875  20.825 -0.3632 -0.1216  0.2126
 7397W        W50413   5.903  10.761  18.903  0.0663 -0.3021 -0.1030
 7398W        W50414   3.268  12.850  25.817 -0.1734 -0.4012  0.0267
 7399W        W50415  27.814   8.913  24.718  0.0130 -0.1589  0.3337
 7400W        W50416   9.812  14.607  24.918  0.0183  0.2370  0.2566
 7401W        W50417   0.565  14.941  24.857 -0.1592  0.1899 -0.1857
 7402W        W50418   9.552   9.349  27.735  0.1006  0.0696 -0.0874
 7403W        W50419  10.802  20.271  21.419  0.0972  0.2777  0.1249
 7404W        W50420   6.699   4.125  17.596 -0.0028 -0.3554  0.0797
 7405W        W50421   8.310  10.970  26.407 -0.2165 -0.1274 -0.1619
 7406W        W50422  12.362  16.967  25.718 -0.1527  0.2459  0.0608
 7407W        W50423   2.292   4.304  15.403  0.0531  0.0542  0.3115
 7408W        W50424   8.382  24.225  20.722 -0.2314  0.0515  0.0914
 7409W        W50425   6.808   4.703  22.910 -0.0414  0.2939  0.1386
 7410W        W50426  22.976  20.070  21.744 -0.0203 -0.2007 -0.1862
 7411W        W50427   7.039  14.770  20.815 -0.1449 -0.2819  0.1184
 7412W        W50428  20.848  27.863  17.511 -0.1848 -0.0162  0.2344
 7413W        W50429  28.420   5.263  18.531 -0.1691  0.0080  0.3186
 7414W        W50430  10.831  17.131  13.558  0.0749 -0.1401  0.2748
 7415W        W50431  31.786   5.699  26.778  0.0560  0.2253  0.0667
 7416W        W50432  32.378   7.391  17.754 -0.0928  0.0492  0.4426
 7417W        W50433  32.172  10.945   1.919  0.0625  0.0032 -0.0271
 7418W        W50434  14.308  14.003  15.407 -0.2198  0.1985  0.1468
 7419W        W50435  33.514  11.973  22.171  0.0024  0.0358  0.4435
 7420W        W50436  33.078  19.205  21.577  0.2025 -0.3048 -0.0336
 7421W        W50437  29.514  13.737  21.905  0.0155  0.3098  0.0338
 7422W        W50438  29.237   7.555  24.232  0.0397 -0.2397 -0.0428
 7423W        W50439  32.424  24.776   9.134 -0.1688  0.2374 -0.0498
 7424W        W50440  28.007  17.756  19.731  0.0805  0.1225 -0.1255
 7425W        W50441  21.721   6.078  16.653  0.0148  0.0834 -0.1975
 7426W        W50442  12.873   7.437  25.413  0.0633  0.3046  0.1018
 7427W        W50443  26.024  30.104   6.509 -0.0113  0.0322  0.3649
 7428W        W50444   3.851  12.531   7.832  0.0798 -0.1538 -0.0040
 7429W        W50445  10.836  16.747  14.796 -0.2019 -0.0530 -0.3208
 7430W        W50446   4.179  27.587  16.703  0.3066 -0.2409  0.2777
 7431W        W50447  29.391   2.994  14.973 -0.1285 -0.1044 -0.0045
 7432W        W50448  29.964   9.223  15.474 -0.0065  0.4454 -0.1916
 7433W        W50449   5.355  14.743  22.428 -0.3420 -0.1127 -0.2030
 7434W        W50450   9.116  11.718   1.291  0.3798  0.0751  0.0425
 7435W        W50451  17.653   1.792  18.339 -0.0908 -0.1107  0.0534
 7436W        W50452   4.749  29.926   2.685 -0.1356  0.2712  0.0567
 7437W        W50453  34.513   6.556  25.953 -0.0354  0.0595  0.1792
 7438W        W50454  31.963  20.449  23.593 -0.1741  0.2814 -0.1177
 7439W        W50455  14.727   1.789   8.488  0.0915 -0.1234 -0.0892
 7440W        W50456  14.339  30.816  19.105  0.1579  0.4180  0.1477
 7441W        W50457   0.587  13.872  22.073  0.2129 -0.0769 -0.0559
 7442W        W50458  26.221  18.882  14.844 -0.0097 -0.1054 -0.1769
 7443W        W50459   9.084  15.384   0.340  0.1189 -0.0929 -0.1738
 7444W        W50460  29.872  15.076  19.421  0.0877  0.4246 -0.1186
 7445W        W50461  31.822   2.551  27.282  0.1566  0.1108 -0.1498
 7446W        W50462  29.532  10.208  25.310 -0.0051  0.3974  0.2894
 7447W        W50463   7.730  20.011  15.943  0.0376 -0.0288 -0.0295
 7448W        W50464   4.158   8.874  17.048 -0.1260 -0.1773 -0.0494
 7449W        W50465  12.703  14.032  23.094  0.1152 -0.0629  0.0752
 7450W        W50466   4.748  27.273  22.172  0.0247  0.0245 -0.1983
 7451W        W50467   2.104  27.761  20.955  0.1839  0.0560 -0.0726
 7452W        W50468  32.471   3.657  14.990  0.0403 -0.2945 -0.0950
 7453W        W50469   4.339   0.683   3.926  0.3611  0.0567 -0.2556
 7454W        W50470  12.243   3.890  27.919  0.0484  0.2324  0.1416
 7455W        W50471  12.508  15.651  25.970  0.4069  0.2054  0.2688
 7456W        W50472   3.349  12.946  16.622  0.0486  0.0016  0.4117
 7457W        W50473  29.223  22.114  21.251  0.2609  0.0242 -0.1445
 7458W        W50474  25.749  24.693  25.177 -0.1320 -0.1219  0.0128
 7459W        W50475   6.949  10.449   5.505  0.3993 -0.0498 -0.0129
 7460W        W50476   4.768  29.557  21.851 -0.1911 -0.3977 -0.3799
 7461W        W50477  15.430   7.509   4.774  0.2762 -0.2028 -0.0786
 7462W        W50478  32.240   3.506  20.195  0.0978 -0.0480 -0.0557
 7463W        W50479  31.736  12.271  24.216 -0.3816 -0.0676 -0.1851
 7464W        W50480   5.186  14.196  18.520 -0.0161 -0.0053 -0.2560
 7465W        W50481   5.572   1.922  25.488  0.1957 -0.0415  0.0474
 7466W        W50482   4.236  13.923  17.404 -0.1138  0.1127  0.1074
 7467W        W50483  17.456  28.088  20.383  0.2160  0.2700  0.2505
 7468W        W50484   5.756  32.220  15.702 -0.0494 -0.1491 -0.1496
 7469W        W50485   2.401   8.666  24.500  0.1231 -0.3024  0.0700
 7470W        W50486   6.388  17.958  15.162  0.2550 -0.1731  0.0117
 7471W        W50487  33.243  10.966  17.041 -0.2652  0.2435  0.2589
 7472W        W50488   8.667   7.849  18.718  0.1421  0.0070  0.0686
 7473W        W50489   5.677   9.910  24.452 -0.1922  0.3415  0.2816
 7474W        W50490   3.116  16.198  16.479 -0.0676 -0.1974  0.1926
 7475W        W50491  23.365  33.770  16.755  0.2219  0.0243 -0.0430
 7476W        W50492  22.741   7.845  19.717 -0.3076  0.2739 -0.2964
 7477W        W50493   1.069  18.981  17.753 -0.1201  0.4956 -0.3396
 7478W        W50494  23.101  29.882  25.696  0.1009 -0.2643 -0.0139
 7479W        W50495  17.016  25.006  18.577 -0.0019 -0.2788 -0.3480
 7480W        W50496  20.877  34.747  27.144  0.2045 -0.1221  0.1369
 7481W        W50497  24.575  12.017  23.257 -0.3194 -0.1222 -0.2162
 7482W        W50498   1.318  11.108  26.110  0.4790 -0.1318  0.3054
 7483W        W50499  24.361  11.035  16.103 -0.2585  0.1643  0.3333
 7484W        W50500  26.991   3.988  19.921 -0.1215 -0.2968 -0.2115
 7485W        W50501   1.906   4.042  20.305  0.1860  0.2202 -0.0016
 7486W        W50502  17.557  18.607  16.246 -0.1679  0.0336  0.0766
 7487W        W50503   4.622   8.592  15.010  0.0005 -0.2884  0.3244
 7488W        W50504  33.287   5.425  15.760 -0.2923  0.0451 -0.3084
 7489W        W50505   5.037  16.676  21.362  0.0057 -0.1612  0.0667
 7490W        W50506   9.518  31.174  16.141 -0.0622 -0.0899  0.0499
 7491W        W50507  24.489   3.530  17.434  0.1281  0.2942 -0.0823
 7492W        W50508   6.106  16.171  15.620  0.1216  0.1356  0.2188
 7493W        W50509   4.018  17.562  18.251 -0.1046 -0.1438  0.1617
 7494W        W50510  29.374   8.624  27.608  0.2955  0.0664  0.1670
 7495W        W50511  13.436   6.166  20.032  0.3200 -0.0883 -0.0372
 7496W        W50512  25.568   7.774  23.924 -0.1009  0.5866  0.0031
 7497W        W50513  33.734  11.034  21.704 -0.0699 -0.0223 -0.3811
 7498W        W50514   5.414  17.680  23.761  0.1375  0.0549 -0.0606
 7499W        W50515  33.915  23.604  17.455  0.0726 -0.1143 -0.1594
 7500W        W50516  21.618  32.018  15.524 -0.2043 -0.1621  0.0614
 7501W        W50517  16.348  10.838  21.550  0.0684 -0.0109 -0.1207
 7502W        W50518   1.312  17.173  20.840 -0.2974 -0.0219 -0.0032
 7503W        W50519  21.784  22.672  13.181  0.3969  0.0110  0.2738
 7504W        W50520  28.755  28.494  21.735  0.1851  0.2153 -0.1367
 7505W        W50521   3.551  22.919  19.043  0.2250 -0.4229  0.1196
 7506W        W50522   2.304  33.649  16.072  0.4653 -0.3632  0.2254
 7507W        W50523   5.632   1.675  16.997  0.0254  0.0828  0.0700
 7508W        W50524  30.682   1.452  17.959 -0.1213  0.1817  0.1743
 7509W        W50525   0.531  20.849  19.240 -0.2394  0.2605 -0.1278
 7510W        W50526   4.389   7.765  27.027  0.1602  0.1719  0.0361
 7511W        W50527   8.877  33.888  14.977  0.1178  0.0436 -0.1581
 7512W        W50528   6.093   6.589  22.327 -0.0554  0.4162  0.1439
 7513W        W50529  15.801  24.485  18.205 -0.3007 -0.0144 -0.3375
 7514W        W50530   5.658  11.427  17.672  0.0185 -0.0212 -0.0830
 7515W        W50531  28.322  15.048  15.792 -0.0607 -0.4766  0.2636
 7516W        W50532  25.714   9.128  21.208  0.0081 -0.0728 -0.0113
 7517W        W50533   2.714  25.301  15.825  0.2582 -0.0115  0.1178
 7518W        W50534   9.831  33.094  16.631  0.3893  0.2373  0.0627
 7519W        W50535  27.629  12.237  15.892  0.0766 -0.2168  0.5211
 7520W        W50536   8.986  32.361  20.956 -0.0533 -0.2395  0.3304
 7521W        W50537  31.118  25.028  17.381  0.2589  0.3864  0.4041
 7522W        W50538  34.522  12.674  16.307  0.0775 -0.1691 -0.0989
 7523W        W50539  13.271   3.493  16.061 -0.2909 -0.2835  0.0493
 7524W        W50540  29.962   1.904  19.780 -0.0377 -0.3034 -0.0246
 7525W        W50541  25.123  12.689  14.957  0.2311  0.0147 -0.5466
 7526W        W50542   8.835  10.758  25.468  0.1908 -0.2639 -0.0945
 7527W        W50543  11.581  24.451  14.633  0.0640 -0.0477 -0.0871
 7528W        W50544  32.214   8.822  18.717  0.1419 -0.1978  0.3250
 7529W        W50545  30.838   3.181  17.238  0.0712  0.3182  0.2881
 7530W        W50546  12.601   5.114  14.750  0.2142  0.2433  0.0792
 7531W        W50547  30.973  28.911  16.051 -0.2496  0.0681 -0.1152
 7532W        W50548   6.785  11.221  18.397  0.0368 -0.0662  0.0086
 7533W        W50549  15.320   1.526  14.966  0.0216  0.0969 -0.2587
 7534W        W50550   0.548   8.946  17.985  0.0898  0.1736 -0.1034
 7535W        W50551  10.908  25.194  16.678  0.1097  0.2975  0.0098
 7536W        W50552   0.084   1.881  20.307  0.0968  0.0814 -0.0534
 7537W        W50553   2.094   9.179  22.851 -0.0749 -0.2687 -0.0038
 7538W        W50554  28.461  31.750  17.696  0.1754  0.0905  0.2760
 7539W        W50555  31.044   7.388  18.655 -0.1614  0.3789 -0.0678
 7540W        W50556  30.411   0.185  18.078  0.1740 -0.1946 -0.2634
 7541W        W50557   4.563   7.677  19.183  0.1964 -0.1678  0.2135
 7542W        W50558   0.420  22.628  26.529 -0.1328  0.0554  0.0112
 7543W        W50559   5.117  13.244  18.996  0.1379 -0.1639  0.1379
 7544W        W50560  33.503   9.437  17.522  0.2412 -0.0046  0.1469
 7545W        W50561  21.590  10.526  28.329 -0.1133 -0.3343 -0.0314
 7546W        W50562   5.065   2.127  26.820 -0.2765 -0.0972 -0.2149
 7547W        W50563   5.332  12.596   4.412 -0.2482  0.5434 -0.3819
 7548W        W50564   0.777   4.633  18.831  0.3279  0.1021  0.1722
 7549W        W50565  27.328  12.231  23.091  0.5298 -0.1208 -0.1832
 7550W        W50566   3.994  13.128   6.715 -0.0472  0.1292  0.1130
 7551W        W50567   2.365  15.742  20.712  0.0059 -0.0387 -0.1201
 7552W        W50568   8.518  12.882  20.913 -0.2114 -0.0789 -0.0690
 7553W        W50569   2.645  12.118  21.598 -0.1749 -0.0556  0.0298
 7554W        W50570   2.232   3.774  20.693  0.0936 -0.3156  0.1285
 7555W        W50571   2.612  12.855  18.763  0.0536  0.2693  0.1776
 7556W        W50572  15.891  23.663  14.117  0.2367 -0.2478  0.0845
 7557W        W50573   2.595   1.799  23.025  0.2756 -0.1960 -0.1702
 7558W        W50574  29.360   4.645  15.827 -0.1416  0.1407 -0.1922
 7559W        W50575  34.238   0.948   0.332 -0.1288 -0.0030 -0.1432
 7560W        W50576   2.264   7.713  18.536  0.0127  0.1053  0.3366
 7561W        W50577  10.818   3.546  17.310 -0.0389  0.1537  0.0387
 7562W        W50578   2.477   0.469  21.920 -0.1365 -0.0192 -0.0563
 7563W        W50579  14.001  22.618  22.095 -0.0526 -0.1258  0.0389
 7564W        W50580  17.446  20.328  15.503 -0.0065 -0.5408 -0.0536
 7565W        W50581   0.335  18.525   7.234 -0.1079  0.0353 -0.0807
 7566W        W50582   0.259  11.087  22.838  0.1086 -0.0547 -0.1983
 7567W        W50583   7.835   4.008   5.017  0.1138  0.3818 -0.1381
 7568W        W50584  10.102  14.404  28.262 -0.1740  0.1395 -0.1160
 7569W        W50585  32.975  18.888  23.999  0.3518 -0.2022 -0.2897
 7570W        W50586   6.903  15.632  15.106  0.4652  0.1884  0.2885
 7571W        W50587  33.356   4.037  22.105  0.0033  0.3209  0.1587
 7572W        W50588  30.320  10.233  24.593 -0.2249 -0.0455 -0.3221
 7573W        W50589   0.865  17.397  16.725 -0.1645 -0.0575  0.0863
 7574W        W50590   4.445   9.113  15.007 -0.0797  0.1526 -0.1765
 7575W        W50591   5.776  15.735  20.844  0.1240  0.0620 -0.1824
 7576W        W50592   0.504   7.608   0.436  0.4877  0.0399  0.3794
 7577W        W50593  25.616   7.669  21.327 -0.4350  0.0058  0.1222
 7578W        W50594  27.693  11.408  15.736  0.0468  0.1479 -0.1620
 7579W        W50595  21.778   2.706  21.436 -0.2531 -0.1724 -0.0258
 7580W        W50596  24.943   6.011  20.922  0.1937 -0.0663  0.2510
 7581W        W50597   7.305  10.585  27.559  0.0002  0.1139  0.0272
 7582W        W50598   4.647  14.708  27.619 -0.0086 -0.3242  0.0197
 7583W        W50599  32.468  14.953  22.675  0.1955  0.0727 -0.1841
 7584W        W50600   9.057  23.034  23.126  0.2607  0.1072 -0.1147
 7585W        W50601  13.379   8.211  18.943  0.0669  0.0151 -0.1911
 7586W        W50602  29.079  27.819  26.076  0.1971 -0.1906  0.2205
 7587W        W50603   1.496  26.120  17.288 -0.1333 -0.1816 -0.0507
 7588W        W50604  32.981   8.729  21.489  0.4432  0.1945 -0.0891
 7589W        W50605  27.177  23.140  15.413 -0.0213 -0.0298  0.0567
 7590W        W50606  23.687  15.192  14.322 -0.1783  0.0949 -0.1460
 7591W        W50607  12.527  18.484   1.744 -0.2209  0.3417  0.1210
 7592W        W50608   4.176   2.244  17.841  0.0423 -0.0763 -0.0621
 7593W        W50609   2.467   8.033  14.381  0.1566 -0.3661 -0.2892
 7594W        W50610   2.171  24.072  18.648  0.0229  0.1760  0.0944
 7595W        W50611  10.404  33.453  24.342  0.0718  0.0953  0.5026
 7596W        W50612  27.470  18.680  23.063 -0.3810 -0.1328 -0.0420
 7597W        W50613  34.493  11.894  18.000 -0.1592 -0.3069 -0.2489
 7598W        W50614   0.833  11.302  19.973  0.1274 -0.0002 -0.0410
 7599W        W50615   1.601   6.388  15.154 -0.2092  0.2558  0.6112
 7600W        W50616  34.219   0.692  19.318 -0.0332 -0.3093  0.0333
 7601W        W50617  34.037   7.343  15.179  0.1612  0.2134  0.0604
 7602W        W50618   6.143   7.719  22.418 -0.1404 -0.0849  0.2108
 7603W        W50619   1.452  10.628   1.000 -0.0650  0.0035  0.4748
 7604W        W50620   0.465   3.998  21.653 -0.4033  0.0705  0.0914
 7605W        W50621  24.746  21.884   1.632 -0.1346 -0.2370 -0.3239
 7606W        W50622  29.038  22.858  20.913 -0.0882 -0.1319 -0.0687
 7607W        W50623   1.614  15.041  25.326  0.1164  0.0463 -0.1106
 7608W        W50624  15.570   6.729  16.462  0.2630  0.0700  0.1720
 7609W        W50625   1.425  31.482  16.845 -0.3208 -0.0897 -0.0523
 7610W        W50626  30.954  30.800  15.511 -0.1238  0.0995  0.0122
 7611W        W50627  28.075  10.810  19.726  0.0738  0.1125 -0.3344
 7612W        W50628  15.131  19.498  11.841  0.0267  0.1611  0.2120
 7613W        W50629  30.726   1.160  15.777 -0.1519 -0.0878  0.0671
 7614W        W50630   0.991   8.687  23.820  0.5867  0.0393 -0.0737
 7615W        W50631  10.785   0.989  17.469  0.0290  0.0859  0.2762
 7616W        W50632   4.387   6.666  29.024  0.1994  0.2888  0.0985
 7617W        W50633  27.670   9.473  17.901  0.0597 -0.0572 -0.0326
 7618W        W50634   0.711  11.351  18.409  0.1217 -0.0773  0.0179
 7619W        W50635  20.941  25.188  14.435 -0.0614 -0.0202 -0.0965
 7620W        W50636   4.615  31.240  21.346 -0.3077 -0.1487  0.0410
 7621W        W50637  20.050   7.194  17.125  0.2799  0.1311 -0.1786
 7622W        W50638   2.190  29.766  16.641  0.0027  0.2266 -0.0925
 7623W        W50639  23.583  27.022  17.728 -0.1678  0.3594 -0.1386
 7624W        W50640   3.224   4.734  17.860 -0.1984 -0.2384 -0.0162
 7625W        W50641   7.093   8.233  17.451  0.0056 -0.1809  0.2077
 7626W        W50642   8.299  17.813  25.904  0.0651 -0.2247  0.2166
 7627W        W50643   1.100  32.050   0.944  0.1560 -0.2254  0.2635
 7628W        W50644   5.735  23.850  19.024 -0.1072 -0.2996 -0.0271
 7629W        W50645   4.250  14.028  18.406 -0.1454 -0.1282 -0.3672
 7630W        W50646  18.738   8.589  29.170  0.1204 -0.2701 -0.1330
 7631W        W50647   2.670   6.908   5.109  0.0190  0.1543 -0.0599
 7632W        W50648  26.521  31.494  25.842  0.0787 -0.0399  0.0060
 7633W        W50649  33.182  11.559  17.383 -0.1480  0.0736 -0.0284
 7634W        W50650  26.894  34.310   7.357 -0.3185  0.1617  0.3666
 7635W        W50651  34.097  15.143  15.804  0.2037  0.4067 -0.1960
 7636W        W50652   4.408   1.823  16.366 -0.0698 -0.1120  0.2419
 7637W        W50653   6.292  12.306  29.184  0.1250  0.2321 -0.1267
 7638W        W50654  33.787   1.870  15.373 -0.1257  0.4146 -0.3180
 7639W        W50655   5.217  34.720  15.757  0.1579 -0.0923  0.0797
 7640W        W50656   7.787  22.428  17.977  0.0977  0.0136  0.0262
 7641W        W50657  15.188   3.142  18.409 -0.0979  0.4685 -0.1618
 7642W        W50658   8.064  21.317  21.855 -0.2299 -0.2922 -0.4971
 7643W        W50659   8.987  19.569  20.283 -0.1011  0.1585 -0.0816
 7644W        W50660   1.182  33.244  24.632 -0.0834  0.2937  0.1454
 7645W        W50661   9.285   4.785  17.814 -0.0656  0.1743  0.0253
 7646W        W50662   6.382  31.534   8.859  0.0306 -0.0584  0.0773
 7647W        W50663   6.327  18.357  17.824  0.0802 -0.2790  0.1860
 7648W        W50664   1.893   7.984  21.194  0.0193  0.1304 -0.0716
 7649W        W50665   9.744   6.269  25.197  0.0421 -0.1594  0.2008
 7650W        W50666   4.612  26.235  23.281 -0.0052 -0.2256  0.2030
 7651W        W50667   4.074   4.504   6.207 -0.2903 -0.3021 -0.2141
 7652W        W50668   8.384  22.630  15.103 -0.2485 -0.1317 -0.0593
 7653W        W50669   4.398  29.067  29.258  0.0837  0.3182  0.2336
 7654W        W50670  32.201  34.267   1.283  0.0768 -0.4378 -0.1271
 7655W        W50671   2.906  25.999  19.075  0.2932 -0.2437  0.1698
 7656W        W50672  32.464  10.769  17.745  0.0806  0.0966  0.0061
 7657W        W50673   1.199  20.375  21.710 -0.0969  0.1550 -0.2204
 7658W        W50674  34.684   7.630  16.417  0.3831  0.2745  0.1130
 7659W        W50675   1.865  20.659  18.841 -0.0720 -0.1452 -0.3802
 7660W        W50676  34.703  28.257   0.440  0.0289 -0.0746 -0.1506
 7661W        W50677  15.857  11.182  23.889 -0.1456 -0.0315  0.1852
 7662W        W50678   5.458   2.938  18.881  0.0465 -0.3202 -0.0730
 7663W        W50679   3.873  15.642   2.608 -0.0730 -0.1295 -0.0647
 7664W        W50680   3.589   8.900  24.812  0.1278 -0.1722  0.0485
 7665W        W50681   2.013   0.844  23.954 -0.0814  0.2811  0.0054
 7666W        W50682   1.650  13.316  23.195 -0.0737  0.1076  0.1998
 7667W        W50683  24.384   2.346  18.312  0.0436 -0.0887 -0.1714
 7668W        W50684   3.289  18.996  16.288  0.1323 -0.0956  0.3044
 7669W        W50685  26.665  13.826  15.307 -0.1130  0.1591  0.0672
 7670W        W50686  16.511   4.468  22.465 -0.1431  0.1962  0.1072
 7671W        W50687   2.671  23.082  21.009 -0.1077 -0.1883  0.0837
 7672W        W50688   1.384  12.798  14.905 -0.1656  0.0254  0.0151
 7673W        W50689  19.235  11.833   1.663  0.1128  0.2095 -0.1996
 7674W        W50690  25.469   8.500  16.183 -0.0772  0.4878  0.5355
 7675W        W50691  22.714  26.417  26.137  0.1303  0.0751 -0.0264
 7676W        W50692   5.643   8.638  20.419 -0.0416 -0.3675 -0.3043
 7677W        W50693  14.575  32.592  24.592  0.1388 -0.4353 -0.0358
 7678W        W50694   4.362  34.256  19.423 -0.0703 -0.2626 -0.2805
 7679W        W50695   9.332  22.206   1.474 -0.2936  0.0918 -0.1697
 7680W        W50696  11.785   2.725  24.516  0.1838 -0.3504 -0.1010
 7681W        W50697   8.127   5.482   4.423 -0.0390 -0.0172 -0.0079
 7682W        W50698  27.615   1.210  19.687  0.1696 -0.1015  0.1124
 7683W        W50699  26.683   0.884  15.970  0.1266 -0.0185  0.2095
 7684W        W50700  27.193  16.345  14.603  0.0381 -0.1855 -0.2516
 7685W        W50701  22.461   4.485   2.968 -0.0181 -0.2563 -0.0666
 7686W        W50702  16.699  13.209  15.202 -0.1610  0.2546  0.3593
 7687W        W50703   4.590   8.782  18.413  0.0846  0.4750 -0.2349
 7688W        W50704  29.819  10.187  19.550  0.1920 -0.0453  0.1968
 7689W        W50705   2.123  11.557  18.700  0.1205  0.1876  0.0157
 7690W        W50706   2.808  30.370  19.946 -0.1250  0.2234 -0.0581
 7691W        W50707  30.145  13.335  18.538 -0.0361  0.0519  0.2541
 7692W        W50708   4.042  15.349  19.065  0.1953 -0.0463  0.1275
 7693W        W50709  33.357  28.688  20.856  0.2487 -0.5141  0.1348
 7694W        W50710   6.968  19.356  21.748 -0.0324 -0.0081 -0.0463
 7695W        W50711  27.967   3.323  22.286  0.3150 -0.0415  0.0198
 7696W        W50712  23.541   5.206  23.858 -0.2432 -0.1545 -0.3404
 7697W        W50713   5.694   6.071  27.686 -0.2897  0.1330  0.0542
 7698W        W50714  19.540  15.315  26.833  0.0244  0.3668 -0.0735
 7699W        W50715   7.143  34.693  18.240  0.1195  0.1674 -0.0427
 7700W        W50716  19.956  12.946  26.567  0.1694 -0.4306  0.0843
 7701W        W50717   2.145  17.104  14.040 -0.4277 -0.3756 -0.2141
 7702W        W50718  32.787  13.964  21.552  0.0329  0.1762 -0.0602
 7703W        W50719   3.534   3.992  16.014  0.1186  0.1716 -0.0333
 7704W        W50720  34.535  14.514  23.756  0.2320  0.1091 -0.3718
 7705W        W50721  18.150   1.236  20.064 -0.2021 -0.0849  0.4576
 7706W        W50722   6.559  20.577  23.545 -0.0541 -0.1656  0.2357
 7707W        W50723  12.832   4.973  20.662  0.2345 -0.0843 -0.1311
 7708W        W50724  19.608  22.393  19.166  0.1965 -0.0411  0.0663
 7709W        W50725   7.739   4.362  13.760  0.2260 -0.5340  0.1044
 7710W        W50726   6.780  28.411  13.456  0.0852 -0.1711  0.0878
 7711W        W50727  29.370   1.170  17.462  0.2641  0.0016  0.3069
 7712W        W50728  29.890  20.563  18.105 -0.2043 -0.0916  0.2956
 7713W        W50729   0.141  26.663  28.611 -0.1159 -0.0325 -0.0242
 7714W        W50730   0.684  12.681   0.450  0.1439  0.0746  0.0521
 7715W        W50731  18.094   6.464  20.306 -0.2106  0.2409 -0.1172
 7716W        W50732   5.336   5.250  26.401  0.0507 -0.1700 -0.0538
 7717W        W50733  20.218  29.130  26.109 -0.1123 -0.1619  0.2356
 7718W        W50734  11.564  12.374  14.272  0.2051  0.0161  0.1671
 7719W        W50735   7.515  19.990   3.050  0.1993 -0.0834 -0.2846
 7720W        W50736  29.408  21.345  16.712 -0.3888 -0.0205  0.2466
 7721W        W50737   9.790  11.353  14.494  0.0575 -0.0245  0.0139
 7722W        W50738  31.894   8.158  18.932  0.0054  0.0213  0.0524
 7723W        W50739  31.887  25.791  18.346  0.1083 -0.1090 -0.1112
 7724W        W50740   5.324  15.321   6.723 -0.2248  0.0645 -0.1124
 7725W        W50741  29.446  11.898  18.735  0.2135  0.3818 -0.0744
 7726W        W50742   0.002  21.884  14.323  0.0700 -0.0168  0.0821
 7727W        W50743   1.867   7.411   1.339 -0.1146  0.0362  0.0762
 7728W        W50744   7.406   4.961   6.086  0.3478 -0.0569  0.0007
 7729W        W50745  30.145   4.751  18.477 -0.2105  0.4531  0.1301
 7730W        W50746   0.731  15.987  24.010 -0.0193  0.2860 -0.1112
 7731W        W50747  12.096   0.903  23.664  0.3493 -0.0105 -0.0410
 7732W        W50748  24.387  18.820  20.384 -0.0179 -0.0470  0.0004
 7733W        W50749   6.554  24.527  28.295 -0.2390  0.2232  0.1448
 7734W        W50750  11.846   2.347  22.555 -0.2024  0.1146 -0.1465
 7735W        W50751   8.907  31.162   7.035 -0.1688  0.1457  0.1800
 7736W        W50752  30.640  21.159  19.140  0.1549  0.4503  0.0305
 7737W        W50753   6.551  10.878  22.800 -0.0867  0.3595  0.0815
 7738W        W50754  31.283   5.305   5.435 -0.0657  0.0392 -0.0227
 7739W        W50755  28.267  11.224  26.934  0.0199 -0.0921  0.1954
 7740W        W50756  33.868  10.975  21.253 -0.0578 -0.1138  0.0123
 7741W        W50757   7.421  13.652  17.340 -0.0419 -0.2338 -0.1164
 7742W        W50758   3.537   6.201  18.233  0.0349 -0.0490 -0.0820
 7743W        W50759   4.744  14.547  21.886  0.1796  0.1460 -0.2347
 7744W        W50760  24.178   8.442  16.926 -0.0374  0.0537  0.1057
 7745W        W50761   5.753   3.340  20.242 -0.1434  0.0309  0.2055
 7746W        W50762  18.017   8.463  14.028  0.1495 -0.2459 -0.0910
 7747W        W50763  25.829   9.639  16.767  0.1997  0.2682 -0.3770
 7748W        W50764   3.713  25.401   8.779 -0.0799 -0.1271 -0.0977
 7749W        W50765  33.674  10.293  25.601 -0.1045 -0.2406  0.2794
 7750W        W50766  33.782   7.048  24.074  0.0118  0.1036  0.1541
 7751W        W50767   1.679  33.252   6.278  0.1635  0.1083  0.2263
 7752W        W50768  17.493   2.871  14.229 -0.0850  0.0497 -0.2937
 7753W        W50769   8.971   0.228  28.919  0.0963  0.0617  0.2916
 7754W        W50770  27.362   1.530   1.551 -0.1898 -0.2098  0.1119
 7755W        W50771  31.986  21.659  22.663 -0.1825  0.0812  0.1380
 7756W        W50772   4.254   8.719  24.435 -0.1790  0.0470  0.1210
 7757W        W50773  12.750  25.835  24.042  0.1938 -0.0795 -0.2738
 7758W        W50774   1.853  19.398  18.636  0.2382  0.1979 -0.1055
 7759W        W50775   8.155  21.178  19.425 -0.0736 -0.0082 -0.4219
 7760W        W50776   0.179   9.445  10.298 -0.4066 -0.3058  0.2230
 7761W        W50777   2.229  28.121  19.474 -0.1903 -0.1060  0.0926
 7762W        W50778  34.306  14.775  25.951  0.3669  0.2315  0.0193
 7763W        W50779  32.844  30.480  16.395 -0.0008  0.2267 -0.2407
 7764W        W50780  10.532  11.821  26.743 -0.0762  0.1008  0.1826
 7765W        W50781   2.549  31.846  14.824  0.2298 -0.0501  0.1565
 7766W        W50782  29.526   4.105  18.594 -0.1391 -0.1628 -0.3014
 7767W        W50783   4.840   9.146  17.800  0.0008 -0.2752 -0.0959
 7768W        W50784  28.769  23.662  15.940 -0.0420  0.1705  0.3384
 7769W        W50785  23.463  30.947  15.720 -0.0991 -0.1742 -0.3412
 7770W        W50786  28.747   3.840  15.787 -0.0828  0.0789 -0.2166
 7771W        W50787  33.655   6.545  17.527  0.0128 -0.2512 -0.2044
 7772W        W50788   7.020  13.694  14.577 -0.2926 -0.2623 -0.0970
 7773W        W50789   7.878  33.764  16.346  0.0682 -0.0035 -0.2134
 7774W        W50790  20.282   9.266  13.879  0.0292 -0.0225  0.0580
 7775W        W50791  31.378  13.229  15.251  0.2192 -0.1628  0.2834
 7776W        W50792  30.096  32.864  29.268  0.0483 -0.0102  0.0476
 7777W        W50793   5.964  22.580  20.476  0.2244  0.0575 -0.1420
 7778W        W50794  16.011  29.021  15.246  0.0989  0.1347  0.2702
 7779W        W50795  26.805   8.054  20.457 -0.5259  0.0807 -0.1550
 7780W        W50796  33.424   9.682  24.556  0.2463 -0.0957 -0.0504
 7781W        W50797  25.178  14.478  23.218 -0.2239 -0.3607  0.1325
 7782W        W50798   0.564   1.446  21.785 -0.0642 -0.3671  0.0050
 7783W        W50799  25.978   4.811  10.563  0.2857  0.1998  0.2752
 7784W        W50800  30.450   8.086   7.759  0.0808 -0.3102  0.1018
 7785W        W50801  24.143   2.307  21.912 -0.2608  0.0072 -0.2379
 7786W        W50802  16.216  16.390  29.013  0.0774  0.4351  0.0634
 7787W        W50803   3.019  26.044  13.445 -0.2717 -0.1159 -0.1627
 7788W        W50804   5.565  32.882  22.287 -0.1794 -0.0937  0.1514
 7789W        W50805  26.718  29.809  19.320  0.0066  0.2288 -0.1112
 7790W        W50806  15.379   4.037  27.539 -0.3959  0.4964 -0.2930
 7791W        W50807  15.250  32.860  17.179  0.2091 -0.1335 -0.4158
 7792W        W50808  11.797  19.742  12.148  0.1303 -0.2471  0.1273
 7793W        W50809  34.035  12.906  21.058 -0.0441  0.1764 -0.2929
 7794W        W50810   0.648  30.403  24.896  0.1472  0.2865  0.0170
 7795W        W50811   8.261  28.396  16.486  0.2436 -0.0516 -0.3327
 7796W        W50812  24.827  22.066  24.887  0.1342  0.0822 -0.0552
 7797W        W50813  29.069   5.515   1.030  0.1110 -0.0833 -0.1647
 7798W        W50814  34.138  14.317   6.382  0.0194 -0.2256  0.1614
 7799W        W50815  18.894   5.494  27.603 -0.2840  0.0880 -0.1735
 7800W        W50816  31.025   3.298  25.534 -0.1134  0.3321  0.0542
 7801W        W50817  16.527   8.295   6.914  0.0837  0.3383  0.0096
 7802W        W50818  24.316  10.205   5.186  0.0150 -0.1526  0.0839
 7803W        W50819   0.585  13.371  22.793 -0.1589  0.0451 -0.0360
 7804W        W50820   4.317  23.766  18.356 -0.1404 -0.1536 -0.0804
 7805W        W50821  13.678  16.965  26.673 -0.0690 -0.0973  0.0269
 7806W        W50822  34.691  11.726  20.814  0.2882 -0.0030 -0.1554
 7807W        W50823  28.873  16.401  18.440 -0.1066  0.1409  0.1538
 7808W        W50824  29.857   8.493  21.732  0.0220  0.0620  0.0893
 7809W        W50825  25.279  16.102  13.647  0.0095  0.2499 -0.2317
 7810W        W50826  29.873  25.556  19.517  0.0420 -0.1957 -0.0683
 7811W        W50827  26.295  12.043   7.567 -0.2218  0.0053 -0.1826
 7812W        W50828  16.846  30.997  24.752 -0.0663 -0.1591  0.0134
 7813W        W50829   9.177   3.001  15.728  0.1834  0.2571 -0.3382
 7814W        W50830  19.256   8.287  14.513 -0.0614  0.2130 -0.0597
 7815W        W50831  17.840  11.483   3.723  0.0152 -0.0460  0.2148
 7816W        W50832   2.387  22.251  28.472  0.0830  0.2893 -0.0857
 7817W        W50833  33.239  26.878  15.201  0.1356 -0.0321 -0.2283
 7818W        W50834   0.828   8.081  16.338 -0.1514 -0.1923 -0.2955
 7819W        W50835   5.661  19.993  17.187  0.0231 -0.1297 -0.2389
 7820W        W50836  34.691   8.018  17.217  0.0378  0.0863  0.2001
 7821W        W50837   7.130  34.218  14.196 -0.5589 -0.0854 -0.0593
 7822W        W50838  23.564  17.439  25.384  0.1643 -0.1323  0.2907
 7823W        W50839  13.052  11.003  24.025  0.2693  0.1500  0.0995
 7824W        W50840   3.934   5.685  15.348  0.0843  0.2135  0.0489
 7825W        W50841  32.731   0.224   5.777 -0.2054 -0.1495 -0.0811
 7826W        W50842  34.696  17.436  16.016  0.0529  0.3988  0.2247
 7827W        W50843  28.875  19.017  28.721  0.2417  0.2665  0.1482
 7828W        W50844   0.652  13.387  22.298  0.1126 -0.0078 -0.1579
 7829W        W50845  33.060  17.503  18.592 -0.0758 -0.0669 -0.0318
 7830W        W50846   3.385   8.176   9.919  0.3118  0.1380  0.1486
 7831W        W50847   8.037   7.272  20.150  0.0781  0.3976  0.0610
 7832W        W50848  27.563  19.950  18.204 -0.1400 -0.1569 -0.0541
 7833W        W50849  18.214  33.985  16.722  0.0642 -0.1375  0.0435
 7834W        W50850  33.888  27.107  17.163 -0.0119 -0.1283  0.3211
 7835W        W50851   3.840  30.044  21.205 -0.1529  0.0338  0.4125
 7836W        W50852  10.973  10.681  21.934  0.1302  0.2315  0.1021
 7837W        W50853   4.507  15.960  26.296 -0.2221 -0.2114 -0.0123
 7838W        W50854  23.387  11.869  14.012 -0.1554  0.0225 -0.3701
 7839W        W50855  20.420  14.036  25.347  0.1477 -0.1013  0.2956
 7840W        W50856  17.012  13.569  14.914 -0.3400 -0.1916 -0.0680
 7841W        W50857  21.938  13.633  13.349 -0.2053 -0.0468 -0.0288
 7842W        W50858   0.386   5.115  18.807  0.0332  0.2385  0.0386
 7843W        W50859  33.879  25.032  16.358  0.1805  0.0934  0.0245
 7844W        W50860   1.576  10.623  26.280 -0.2008 -0.0748  0.2484
 7845W        W50861  31.444  31.462  17.964  0.0078  0.2073  0.1784
 7846W        W50862  31.364  17.542  14.855 -0.2736 -0.1835  0.1667
 7847W        W50863  11.428   2.870  23.702 -0.0361 -0.2189  0.1369
 7848W        W50864   4.648  21.616  15.197 -0.2511 -0.2821 -0.1662
 7849W        W50865   0.137  34.313  21.854  0.0473  0.4036  0.1041
 7850W        W50866  32.771  14.960  18.191  0.0356  0.1116  0.1139
 7851W        W50867  11.096  18.817  24.615 -0.1633 -0.2681  0.0045
 7852W        W50868   6.023  32.596  23.574 -0.0439 -0.4329 -0.1392
 7853W        W50869   6.574  26.499   1.868 -0.0289 -0.0539 -0.0266
 7854W        W50870  31.916  13.272  25.640  0.0017 -0.0460 -0.0744
 7855W        W50871   7.815  11.023  16.320 -0.0804 -0.2507 -0.3350
 7856W        W50872  26.853   8.655  26.479  0.2636 -0.2918  0.1429
 7857W        W50873  25.281   8.013  23.319  0.1292  0.0212  0.1308
 7858W        W50874   7.162   2.941  16.163 -0.1991  0.1588  0.0356
 7859W        W50875   0.335   8.299  26.726 -0.1519  0.2466  0.3658
 7860W        W50876  25.171  22.656  16.779  0.2262 -0.0469  0.0356
 7861W        W50877  33.104   1.285  19.818  0.0036  0.0119 -0.0264
 7862W        W50878   9.593  27.702  25.410 -0.3528  0.2241  0.0780
 7863W        W50879   2.472   3.199  25.045  0.0702 -0.3206  0.1288
 7864W        W50880  27.656   7.905  19.682  0.4438 -0.0456 -0.1039
 7865W        W50881   6.098  30.137  28.428  0.1281 -0.1620 -0.0393
 7866W        W50882  18.310  30.835  16.500 -0.1899 -0.0981  0.0254
 7867W        W50883  25.160  13.934  22.934 -0.0552  0.0392 -0.0183
 7868W        W50884  23.748  30.397  27.935 -0.2615 -0.0378 -0.1397
 7869W        W50885  12.843  17.392  12.874 -0.2532 -0.0499  0.1582
 7870W        W50886   8.510  24.750   2.800  0.1683  0.0747  0.5159
 7871W        W50887  14.481  17.852  21.214 -0.0991  0.0831  0.1050
 7872W        W50888   5.077  10.666  20.437  0.0930 -0.3764  0.0245
 7873W        W50889   1.770   5.703  15.810  0.1524 -0.0639  0.2785
 7874W        W50890  25.767   3.359  23.904  0.0964 -0.0041 -0.1725
 7875W        W50891  19.781   9.763  20.016  0.0188 -0.0008 -0.1624
 7876W        W50892  12.050   8.443  14.509  0.2327  0.1974  0.2713
 7877W        W50893  24.533   0.108  26.500 -0.0526 -0.1466 -0.3764
 7878W        W50894  20.589  15.068  15.128  0.3353  0.1123 -0.0299
 7879W        W50895  20.280  32.597  23.255 -0.2040  0.1504 -0.1633
 7880W        W50896   8.750  16.798  22.265 -0.3140  0.1365  0.2498
 7881W        W50897  33.758  17.392  19.289  0.0706 -0.0929 -0.2180
 7882W        W50898  11.074  28.554   0.616  0.0773  0.1947  0.0392
 7883W        W50899  31.987  33.633  28.077 -0.0984 -0.1734  0.3219
 7884W        W50900   4.512   5.836  27.996  0.0188 -0.3011  0.0550
 7885W        W50901   8.323  15.063  21.045 -0.0129  0.3258 -0.1716
 7886W        W50902  11.923  31.790  17.974  0.1898 -0.0934 -0.2992
 7887W        W50903   5.617  13.317   8.951 -0.2177 -0.2700 -0.5604
 7888W        W50904  20.304  22.411  19.724 -0.2005 -0.1805  0.1120
 7889W        W50905   2.018   5.051  28.249 -0.1061  0.6091 -0.0178
 7890W        W50906  32.607  26.588  16.693 -0.2740 -0.2400  0.0702
 7891W        W50907   1.228  11.203  19.631  0.1496  0.2416  0.0003
 7892W        W50908  23.029   9.365  21.626 -0.1701 -0.1818 -0.1423
 7893W        W50909  30.264   1.339   1.354  0.1688  0.1491 -0.2676
 7894W        W50910   7.995  18.828  27.867  0.3956 -0.2394 -0.0470
 7895W        W50911  11.666   9.657  23.294 -0.2933 -0.1883  0.0864
 7896W        W50912  13.491  14.235  19.878  0.0586 -0.2754  0.1554
 7897W        W50913   4.042   9.528   2.469 -0.1212 -0.0050  0.0411
 7898W        W50914   3.388   1.755  16.970 -0.5628 -0.0534  0.0173
 7899W        W50915  33.391  18.169  18.044  0.1204  0.0739 -0.1601
 7900W        W50916  17.249   1.587  16.859  0.0591  0.5209  0.1553
 7901W        W50917  34.314  14.047  26.837  0.0536 -0.2256 -0.1561
 7902W        W50918  34.580  33.284  18.461  0.1623 -0.1393 -0.0984
 7903W        W50919  31.809  12.287  27.042 -0.1298  0.0186 -0.1048
 7904W        W50920   7.287  14.094  27.935 -0.2384 -0.1596 -0.1342
 7905W        W50921  34.094  15.744  15.143  0.1084  0.0501  0.1171
 7906W        W50922  23.967   8.086   3.276  0.4050  0.3310  0.0325
 7907W        W50923  29.452  12.886  20.190 -0.3269  0.0706  0.2232
 7908W        W50924  10.450  21.965   3.590 -0.0830  0.0739  0.1564
 7909W        W50925   1.436   9.975   3.422  0.1432 -0.3298  0.2262
 7910W        W50926   8.070  13.532  26.760 -0.1607 -0.1055 -0.0308
 7911W        W50927  26.358   7.096   5.871  0.2086  0.3345 -0.1840
 7912W        W50928  32.587  17.642  16.061  0.2406 -0.2394 -0.1381
 7913W        W50929  34.558  13.051   1.536 -0.1587 -0.1965  0.1636
 7914W        W50930  21.261   2.356  22.137 -0.0322  0.1897 -0.0033
 7915W        W50931   6.553  31.887  24.572  0.3850  0.0271  0.0776
 7916W        W50932  20.619  23.305  14.566 -0.2193 -0.0605 -0.0605
 7917W        W50933  26.146  15.907  17.665 -0.0986  0.0454  0.2103
 7918W        W50934  30.889  30.662   4.254 -0.1200  0.0098 -0.0098
 7919W        W50935   7.590  34.375  18.323 -0.0045  0.0376  0.0309
 7920W        W50936  15.548   4.941  17.379  0.3685  0.3039 -0.1586
 7921W        W50937  32.256  13.573  27.246  0.1626  0.0334 -0.3396
 7922W        W50938  33.391  29.589  20.762  0.1851 -0.1074  0.0986
 7923W        W50939  15.250   8.761  25.041  0.3570 -0.1728  0.1319
 7924W        W50940  24.733  23.768  10.272 -0.3094 -0.0285  0.0473
 7925W        W50941   0.376  14.863  17.322 -0.1667  0.2885  0.2913
 7926W        W50942  29.438  12.077  26.647  0.1953 -0.1517  0.0653
 7927W        W50943   9.342  27.420  15.379  0.1194 -0.2884 -0.2035
 7928W        W50944   7.736   5.792  16.121 -0.0681  0.2284 -0.3785
 7929W        W50945  28.910  17.944  25.153 -0.0165 -0.0812 -0.1283
 7930W        W50946   4.327   1.939  21.459 -0.3843 -0.1685  0.2336
 7931W        W50947  10.167   6.589  21.261 -0.0076 -0.1309  0.3005
 7932W        W50948  17.737   3.796  24.746  0.5519  0.2056 -0.1175
 7933W        W50949  33.274  34.309   4.832  0.5421 -0.0009 -0.0495
 7934W        W50950   2.688  14.809  25.219  0.1772 -0.0763  0.0747
 7935W        W50951  29.581   4.459  21.886 -0.0751  0.0715 -0.3782
 7936W        W50952   5.596  10.642  23.500  0.4454  0.2318 -0.0344
 7937W        W50953  25.541  11.880  22.941  0.3389  0.3817  0.1144
 7938W        W50954  15.741  10.288  16.003  0.0537  0.0878 -0.1653
 7939W        W50955  32.067  12.063  17.457  0.0829  0.1251 -0.1203
 7940W        W50956   6.510  17.588  18.844 -0.3856 -0.2394 -0.2447
 7941W        W50957   3.233   6.940  15.322 -0.1723 -0.1619  0.3056
 7942W        W50958   6.738  33.573  26.346 -0.0914  0.3273 -0.2122
 7943W        W50959  20.480   5.962  14.692  0.0830 -0.1764  0.0575
 7944W        W50960  15.310   5.767  14.348 -0.1334  0.2526 -0.1036
 7945W        W50961   9.451   0.370  16.568 -0.3286  0.3466 -0.3042
 7946W        W50962  30.764   8.127  20.132  0.1605  0.0029  0.1042
 7947W        W50963   7.429   6.020  20.014  0.1192 -0.0635  0.0877
 7948W        W50964   7.354   2.511  23.865 -0.0448 -0.1023 -0.3207
 7949W        W50965   5.879  26.383  19.535 -0.0793  0.2455  0.2424
 7950W        W50966  13.365  33.372  25.189 -0.1422  0.3785  0.4122
 7951W        W50967  27.055  11.627   7.190 -0.1083 -0.4211  0.1572
 7952W        W50968  17.684  34.684  23.299  0.2056  0.2259  0.0085
 7953W        W50969  13.691   2.003  24.251 -0.1096 -0.2308  0.1783
 7954W        W50970  27.135   4.874  22.454 -0.1969 -0.2285  0.1292
 7955W        W50971  30.869  32.758  19.943  0.1445 -0.1756 -0.2064
 7956W        W50972  30.237  14.005  28.557 -0.3011  0.1292  0.2762
 7957W        W50973  25.616  10.584  29.113 -0.0307  0.1447 -0.2241
 7958W        W50974   1.106   0.440  20.000 -0.2175 -0.0014 -0.1877
 7959W        W50975  29.002  11.893  26.416  0.3511 -0.2342 -0.1362
 7960W        W50976  31.741  14.688   8.015  0.0752  0.0623  0.1228
 7961W        W50977   8.091   4.442  15.121 -0.1618  0.0448  0.2300
 7962W        W50978  34.570  23.313  18.281 -0.0075 -0.0357 -0.1859
 7963W        W50979  13.934   8.768  22.786  0.4381  0.0664  0.1001
 7964W        W50980  19.548   3.784  13.458 -0.2427  0.0206  0.1169
 7965W        W50981  10.696   2.758   2.948  0.4096 -0.2175  0.2285
 7966W        W50982  33.030  16.527  18.959 -0.1331  0.1639 -0.2484
 7967W        W50983   6.860   6.742  19.504  0.0411 -0.1897  0.0735
 7968W        W50984  29.496   6.069  16.242 -0.0675 -0.1645 -0.0380
 7969W        W50985  16.499  13.114  21.340 -0.1905 -0.4876  0.2899
 7970W        W50986   5.676   6.588   2.426  0.0428 -0.4837  0.3915
 7971W        W50987  13.413  23.953  13.277 -0.0816  0.0987 -0.3041
 7972W        W50988  29.477  10.609  16.952 -0.2522  0.2944 -0.2223
 7973W        W50989  31.417   1.740  22.065  0.0317 -0.0837  0.0101
 7974W        W50990   9.808  26.136  28.208 -0.0912  0.0494  0.0513
 7975W        W50991  21.708  15.119  13.001 -0.1978  0.4103  0.1056
 7976W        W50992   3.397   5.529  24.099 -0.2577  0.1010  0.0103
 7977W        W50993  24.052   7.851  16.754  0.1819  0.2446 -0.0749
 7978W        W50994  12.878   6.795  19.313 -0.1048 -0.3681 -0.3537
 7979W        W50995  33.742  16.358  21.187 -0.0006 -0.0011  0.3362
 7980W        W50996  23.950  15.156  13.456  0.1657 -0.0171  0.1438
 7981W        W50997   6.626   8.588   3.995  0.0236 -0.3771 -0.3411
 7982W        W50998   0.564  10.120  24.687  0.0558 -0.0623  0.0979
 7983W        W50999  27.595   4.641  22.723  0.2634  0.2302  0.2101
 7984W        W51000  28.400   5.891  28.948  0.2312 -0.0981  0.0509
 7985W        W51001   5.663  28.836  27.718 -0.0797 -0.2168 -0.1538
 7986W        W51002  26.369  11.081  14.886  0.3442 -0.3254 -0.3272
 7987W        W51003   9.447   1.898  17.221 -0.1295  0.1749  0.0282
 7988W        W51004   8.433  15.735  15.123  0.0285  0.2658 -0.1811
 7989W        W51005  15.827  10.237  17.750  0.4652  0.0239  0.2575
 7990W        W51006  31.004   2.436  15.259 -0.0860 -0.0893 -0.0221
 7991W        W51007  29.722   3.344   3.404  0.0465 -0.1503 -0.2603
 7992W        W51008   0.519  17.235  28.467 -0.1319 -0.1421  0.1086
 7993W        W51009   1.141  32.489  15.804  0.0052  0.1041 -0.0388
 7994W        W51010  25.992   3.159  16.470 -0.1290 -0.0609 -0.0215
 7995W        W51011  23.391  33.540  22.195  0.0871  0.3607 -0.1186
 7996W        W51012   8.067   9.087   2.821 -0.1097  0.1309 -0.1582
 7997W        W51013  29.875  14.604  14.372  0.0012  0.1315 -0.2873
 7998W        W51014  22.400   7.148  25.190 -0.2013  0.0740 -0.0648
 7999W        W51015  23.001  16.630  27.573 -0.0471  0.4008  0.4673
 8000W        W51016  32.814  26.673  20.574 -0.0488 -0.1600 -0.1299
 8001W        W51017  27.279  17.023  14.784 -0.0284 -0.1028 -0.0103
 8002W        W51018  24.211  17.473  26.994  0.0174 -0.2221  0.3723
 8003W        W51019   1.870  10.443  19.418 -0.3356 -0.0705  0.3341
 8004W        W51020  31.569  14.081  20.452 -0.3693  0.4803 -0.2562
 8005W        W51021   1.459   7.013  17.555  0.2476  0.0832 -0.0212
 8006W        W51022   4.759  21.281  24.383  0.0513 -0.2457 -0.3370
 8007W        W51023   0.991   9.222  23.594  0.1598 -0.0884  0.2930
 8008W        W51024   6.121  16.141  17.848  0.1739  0.1092  0.0113
 8009W        W51025  12.878   3.933  26.848 -0.1559 -0.0216 -0.0702
 8010W        W51026   2.483   4.545  23.863  0.1434 -0.1425  0.0608
 8011W        W51027  33.222  21.259  21.941 -0.1403  0.0446  0.3882
 8012W        W51028   0.389   7.685  16.434  0.1260  0.0221  0.0102
 8013W        W51029  34.238  10.473  18.280  0.0179  0.0457 -0.0735
 8014W        W51030   1.186  16.033  22.469 -0.1386  0.0563  0.3524
 8015W        W51031  22.243   2.717  16.119  0.2071  0.0751  0.3052
 8016W        W51032  25.154  32.825  24.680 -0.0302  0.2396 -0.0831
 8017W        W51033   9.444  22.920  19.268  0.1517  0.2126  0.1418
 8018W        W51034   6.122  16.142  17.341 -0.2716 -0.0916 -0.2676
 8019W        W51035  16.684  19.026  12.451  0.0707 -0.3337  0.2760
 8020W        W51036   5.852  16.700  14.761  0.0349  0.0026 -0.2911
 8021W        W51037  25.166   7.124   0.085 -0.0227  0.0036 -0.0420
 8022W        W51038  18.993  33.982  20.843 -0.1236 -0.1884  0.0229
 8023W        W51039  27.568   0.363   5.357 -0.2315 -0.1385  0.0629
 8024W        W51040  33.415  13.754  15.504 -0.0260 -0.0731  0.1407
 8025W        W51041   0.200  23.586   2.468  0.1723 -0.2699  0.4234
 8026W        W51042   1.480   7.004  15.339  0.3526  0.2865  0.1274
 8027W        W51043  13.107  17.175  21.380 -0.0299 -0.0783  0.2702
 8028W        W51044  10.398   1.777  21.663  0.0425 -0.1126  0.3317
 8029W        W51045   4.114  30.369  19.491  0.0153  0.0645 -0.1756
 8030W        W51046   1.165  10.855  22.966 -0.0264 -0.1277  0.2600
 8031W        W51047  34.527   7.571  14.783 -0.2029  0.0842 -0.1641
 8032W        W51048   1.241  10.746  22.272  0.0948 -0.0041  0.2340
 8033W        W51049  18.859  33.454  25.734 -0.0495  0.2709  0.1231
 8034W        W51050  13.613  14.494   5.556 -0.0626 -0.3788 -0.0968
 8035W        W51051  14.400  12.627   6.095  0.1499 -0.3547  0.2273
 8036W        W51052   2.261  28.978  18.808 -0.2555 -0.1106 -0.1333
 8037W        W51053  11.729  12.301  25.931  0.0422  0.0912 -0.0101
 8038W        W51054  14.459  28.391  21.765 -0.1747  0.1091 -0.2740
 8039W        W51055  31.420  30.016  22.799  0.1130 -0.5004  0.1101
 8040W        W51056  31.121   3.587  22.177  0.1249 -0.1413  0.0962
 8041W        W51057   0.708  16.367   5.704 -0.3946  0.1877  0.0789
 8042W        W51058   7.960   7.535  24.141  0.1023 -0.1711  0.1177
 8043W        W51059  11.542   8.445  19.823  0.0099 -0.3733 -0.1619
 8044W        W51060  10.557  22.079   2.169  0.3159  0.1892 -0.0172
 8045W        W51061   4.611  10.514  17.739  0.0759 -0.1409 -0.0991
 8046W        W51062   9.875  24.368  15.065  0.2190 -0.3010 -0.4022
 8047W        W51063  23.578   2.896  27.651 -0.0594  0.4492  0.0560
 8048W        W51064   4.108   6.015  28.520 -0.2538 -0.2799 -0.0035
 8049W        W51065   5.381  15.236  19.983 -0.0039  0.2378 -0.1487
 8050W        W51066   4.190   8.831  19.260 -0.0707 -0.1897  0.1304
 8051W        W51067   4.648  17.882  28.790 -0.1611 -0.1369 -0.0049
 8052W        W51068  34.366  16.420   0.061  0.1368 -0.0072 -0.1252
 8053W        W51069  31.379  24.778  19.709  0.0368 -0.1953 -0.4394
 8054W        W51070   9.483  10.282  21.724  0.0511 -0.0784 -0.0604
 8055W        W51071   2.681  14.271  24.597 -0.1774 -0.1220 -0.0909
 8056W        W51072   4.070  23.589   0.248 -0.1784  0.0990 -0.0350
 8057W        W51073  30.953   4.747   9.308 -0.0294 -0.2281 -0.3532
 8058W        W51074  21.104  17.490   5.031 -0.0905 -0.0247 -0.3292
 8059W        W51075  18.128   3.992   0.023 -0.0101  0.4202  0.0943
 8060W        W51076  11.796   1.355  19.123  0.0273 -0.0772 -0.1211
 8061W        W51077   1.616   9.971  19.236  0.0814  0.1736  0.0167
 8062W        W51078   4.004   8.887  18.809 -0.1441  0.0516  0.0379
 8063W        W51079   3.964  15.922  19.731 -0.0434 -0.2273 -0.2194
 8064W        W51080  29.011  13.948  21.780  0.2342 -0.0285 -0.0620
 8065W        W51081  15.386   1.359  21.838  0.1253 -0.0624 -0.1293
 8066W        W51082  19.663  15.547   2.358  0.1551  0.1462 -0.0080
 8067W        W51083  17.798   9.891  21.148  0.0717 -0.0790 -0.0402
 8068W        W51084  14.308  24.492   8.882 -0.1308 -0.0202 -0.4284
 8069W        W51085  26.625  10.245   3.389  0.0847  0.1789  0.0455
 8070W        W51086  29.306   2.573  29.240  0.2269 -0.2357 -0.1745
 8071W        W51087  15.739   4.576  18.230  0.4349  0.1250  0.3343
 8072W        W51088  14.221   4.434   4.786  0.0545 -0.3168 -0.0398
 8073W        W51089  29.794  13.270  15.985  0.0183 -0.1848 -0.1021
 8074W        W51090  26.340  34.596   6.707 -0.0051  0.1958  0.2500
 8075W        W51091   5.897   5.151  22.667 -0.1451  0.0913  0.0189
 8076W        W51092   8.177  25.703  20.935  0.0828  0.2277 -0.0726
 8077W        W51093  32.544  18.676  19.140  0.4356  0.1670 -0.3890
 8078W        W51094  10.691  11.295  26.799  0.0857 -0.0874 -0.1109
 8079W        W51095  34.419  16.772  25.663  0.1679 -0.1744  0.4116
 8080W        W51096  28.501  25.174   3.106  0.1649 -0.3910 -0.0230
 8081W        W51097  13.009  14.873  13.739  0.0043 -0.0291 -0.0474
 8082W        W51098   1.449  25.320  23.486  0.0040  0.0126 -0.0812
 8083W        W51099  32.720  23.289  16.439  0.0320 -0.3191 -0.0833
 8084W        W51100   1.463  25.845  26.505  0.1186  0.1183  0.0479
 8085W        W51101   8.000  19.004  14.552 -0.2854  0.0660 -0.1253
 8086W        W51102   6.216   3.497  15.816  0.1538 -0.2077  0.3486
 8087W        W51103   6.631  12.279  14.332  0.3847  0.3405 -0.3093
 8088W        W51104  12.962   0.571  25.966 -0.2937  0.0033  0.2764
 8089W        W51105  30.923  16.539  22.190 -0.2348  0.4294 -0.0625
 8090W        W51106  11.253  32.123  23.707 -0.1639 -0.0430  0.2690
 8091W        W51107   4.942  27.020  24.806 -0.1733 -0.1079 -0.0704
 8092W        W51108  15.708   7.011  24.865  0.2176 -0.0514  0.1284
 8093W        W51109   2.967  11.070  27.035 -0.0435  0.4358 -0.2124
 8094W        W51110  25.950   8.291   3.884  0.1979  0.2979  0.3601
 8095W        W51111   4.155   9.895  21.384 -0.0677 -0.2723  0.0112
 8096W        W51112   3.860  14.540  27.974  0.1661  0.2657 -0.0188
 8097W        W51113  22.361  22.424   9.201  0.1476 -0.3163 -0.0247
 8098W        W51114  28.478   8.025  25.460 -0.2716  0.0589  0.1589
 8099W        W51115  12.393  12.580  26.055 -0.2644  0.1326 -0.1043
 8100W        W51116   3.634  13.644   1.902  0.2691  0.0069  0.2683
 8101W        W51117   6.899  32.205  14.408  0.2653  0.0456 -0.2722
 8102W        W51118   4.396   2.197  22.794 -0.0573  0.1087 -0.2460
 8103W        W51119  17.087   5.474  19.187  0.0246 -0.0033 -0.1384
 8104W        W51120  34.196  22.580   8.448 -0.2307  0.2694  0.0592
 8105W        W51121  26.447  11.747  14.887 -0.2749 -0.0473 -0.1500
 8106W        W51122  21.183  13.528  23.567  0.2705 -0.2429 -0.1050
 8107W        W51123   4.814  25.391   2.599  0.3551 -0.2642 -0.1075
 8108W        W51124  25.204  14.393  18.597  0.2701  0.2575 -0.2494
 8109W        W51125   5.893   5.255  17.301  0.2557  0.2802 -0.0048
 8110W        W51126  14.177   1.281  19.318 -0.2323  0.2941 -0.0977
 8111W        W51127   9.763  24.629  13.705  0.2226 -0.0551  0.0802
 8112W        W51128  32.445  33.207  27.232  0.0752  0.2739  0.0222
 8113W        W51129   1.571   6.303  27.602  0.0898 -0.0236  0.0936
 8114W        W51130   3.300   7.121  19.760  0.0468 -0.0429  0.1879
 8115W        W51131  27.107  16.462  28.062  0.4667 -0.0001  0.0445
 8116W        W51132  34.403  19.662   3.349 -0.2972 -0.0034 -0.1114
 8117W        W51133   6.036  10.233  27.775  0.1568 -0.1811 -0.0210
 8118W        W51134  30.392  22.434   7.496 -0.0177 -0.0812 -0.0780
 8119W        W51135   0.448  11.832  17.235  0.4565  0.2732 -0.2519
 8120W        W51136  31.446   7.649   5.696 -0.1431  0.1805  0.1622
 8121W        W51137  13.771   9.567  28.015  0.1897 -0.1475  0.1614
 8122W        W51138   6.503  14.360  19.465  0.1945  0.2272  0.3025
 8123W        W51139  11.111  25.885  26.472  0.0453  0.0195  0.3315
 8124W        W51140  11.098  24.421  24.614  0.0187  0.0515 -0.1187
 8125W        W51141  12.917  16.911  23.791  0.1384  0.3511  0.2528
 8126W        W51142  29.556   3.743  18.261 -0.0178 -0.1040 -0.0027
 8127W        W51143  34.032  29.264  15.884  0.0953 -0.0038 -0.1282
 8128W        W51144  15.341   5.407  14.708 -0.1602  0.2095 -0.0488
 8129W        W51145   9.699  20.942  14.468 -0.1138 -0.0237  0.1689
 8130W        W51146   7.899   0.425  20.117 -0.1477 -0.1260 -0.1136
 8131W        W51147  14.370   7.125  14.223 -0.3553  0.0279 -0.0519
 8132W        W51148  21.800   7.032  21.924 -0.0085 -0.1613  0.4570
 8133W        W51149  27.262   5.532   4.146 -0.0244 -0.0317 -0.2086
 8134W        W51150  15.510   3.862  25.038 -0.0147  0.2006 -0.2387
 8135W        W51151  15.969   7.916   3.798  0.0417  0.0538  0.0733
 8136W        W51152   6.214  17.128  21.040 -0.1211  0.0660  0.4573
 8137W        W51153  19.295  34.483   5.442  0.4165  0.1165  0.0969
 8138W        W51154  33.548  34.117   3.026  0.0176 -0.1527 -0.1115
 8139W        W51155  23.811   1.427  17.511  0.0222  0.1522 -0.2019
 8140W        W51156  21.326  24.117  20.523 -0.0766  0.6145  0.0974
 8141W        W51157   8.877   9.305  16.569 -0.0556 -0.1209 -0.0422
 8142W        W51158   5.352  34.652  19.466 -0.0750  0.1377  0.0734
 8143W        W51159   1.336  27.170  18.151  0.2775 -0.3336 -0.1576
 8144W        W51160  32.604  15.437  15.508 -0.5073 -0.2796  0.0016
 8145W        W51161  12.775  12.237  24.148 -0.1139 -0.0692  0.1451
 8146W        W51162  25.594  29.605  20.974 -0.2261  0.1196 -0.2419
 8147W        W51163  26.743  31.342  22.539 -0.1360  0.1233  0.0868
 8148W        W51164  17.773  32.787  15.727  0.2722 -0.0340 -0.1261
 8149W        W51165  10.276   0.964  10.739 -0.0955  0.2212 -0.0668
 8150W        W51166  11.594  32.484  24.858 -0.0431 -0.2654  0.3146
 8151W        W51167   7.668  31.464   4.182  0.0050  0.0370 -0.0672
 8152W        W51168   0.817  10.130   6.905  0.0848 -0.0553 -0.2801
 8153W        W51169  25.499   0.415  15.792  0.3037 -0.2477  0.1730
 8154W        W51170  30.725  11.883  19.878  0.2090 -0.1052 -0.4354
 8155W        W51171  32.682  17.806  14.624  0.0933  0.0278  0.1087
 8156W        W51172  11.378  15.997  19.293  0.0635 -0.2443 -0.0217
 8157W        W51173  31.374  13.664  15.003 -0.0454  0.0976  0.2548
 8158W        W51174   6.498   1.862  27.007 -0.0944 -0.1580 -0.1189
 8159W        W51175   7.942   6.367  23.304  0.3383 -0.0357 -0.1965
 8160W        W51176   2.971  29.655  26.657  0.1032 -0.1440  0.0430
 8161W        W51177   1.142   7.440   6.012 -0.1641  0.1486  0.1278
 8162W        W51178  28.341   7.166  18.413  0.0460 -0.0859 -0.1166
 8163W        W51179  20.440  31.247  19.270 -0.1308 -0.1396 -0.0552
 8164W        W51180   3.599  15.528   3.093 -0.0943 -0.0813  0.2282
 8165W        W51181  12.320  13.767  13.913 -0.1976  0.1470 -0.0341
 8166W        W51182   0.496   8.939  14.513 -0.2711  0.2419  0.2188
 8167W        W51183   1.142   3.798  27.528 -0.1803 -0.1507  0.1740
 8168W        W51184  29.110  17.747  19.242  0.0758  0.1562  0.0569
 8169W        W51185  31.296  23.623  19.092 -0.0813  0.0309  0.1181
 8170W        W51186   4.055  23.201  24.191 -0.1816 -0.3958 -0.0197
 8171W        W51187  32.923   3.415  26.543  0.0577  0.0074 -0.0038
 8172W        W51188  11.815  14.985  20.441 -0.5829  0.2302 -0.3090
 8173W        W51189   1.952   1.802   5.923 -0.1791 -0.0881  0.0421
 8174W        W51190  24.969   7.353  26.584 -0.3048 -0.3675 -0.2814
 8175W        W51191   2.541  16.683  20.306  0.1274  0.1900  0.0131
 8176W        W51192  11.235   3.498  24.966  0.4264 -0.2168 -0.0665
 8177W        W51193   2.504   3.392  10.619 -0.0163 -0.1737  0.0253
 8178W        W51194  23.680  26.467  19.669  0.3401  0.4459 -0.1924
 8179W        W51195  27.781   8.574  16.241  0.2271 -0.2522  0.0845
 8180W        W51196   8.176  34.366  15.026  0.3010 -0.3158 -0.0587
 8181W        W51197   6.504  11.651   6.125  0.1845  0.2447 -0.0653
 8182W        W51198   4.955  15.885  23.467 -0.0341 -0.1730 -0.0589
 8183W        W51199   0.696  11.438  16.270  0.1947  0.2062  0.4481
 8184W        W51200  26.709  11.758  19.549  0.0523 -0.0082  0.0603
 8185W        W51201  17.022   2.228   1.410  0.0255  0.0004  0.1096
 8186W        W51202   6.315  10.208  28.573 -0.3288  0.0690  0.1472
 8187W        W51203  28.229   9.205  16.858  0.1340 -0.5043  0.0409
 8188W        W51204  27.535   5.510  17.366  0.0001 -0.0198  0.1563
 8189W        W51205   8.887  15.241   0.865  0.2411  0.0648  0.3536
 8190W        W51206   3.442  28.654  10.286  0.0283  0.0995 -0.1885
 8191W        W51207  29.107  16.767  18.719  0.0077  0.0004  0.0147
 8192W        W51208   5.521  20.196  14.421  0.3001 -0.1963 -0.0481
 8193W        W51209  24.877  33.847  20.368 -0.0937  0.1327 -0.1458
 8194W        W51210   8.501  23.720  27.628 -0.4742  0.0323 -0.1601
 8195W        W51211  12.338  33.462   2.302 -0.0604  0.0139  0.3260
 8196W        W51212  16.582   4.940  18.342  0.2301  0.0102  0.2436
 8197W        W51213   1.340  24.363  25.440 -0.1428  0.0721 -0.0971
 8198W        W51214   5.069   7.724  22.604 -0.0492  0.1691  0.2769
 8199W        W51215  33.960  19.804  21.634  0.3097 -0.0416 -0.1354
 8200W        W51216   1.991  13.377  24.484  0.2377 -0.0626  0.1836
 8201W        W51217  18.217  31.726  25.313 -0.0463  0.2535 -0.1520
 8202W        W51218  32.743  32.893   5.283  0.3335  0.0046  0.1064
 8203W        W51219  32.076  30.425  19.255  0.0375 -0.1306 -0.1074
 8204W        W51220  33.260  22.766  19.634 -0.1254 -0.0413  0.0851
 8205W        W51221  13.330  17.049   7.447 -0.0642 -0.0150  0.0995
 8206W        W51222  32.144  17.423  15.223  0.0140  0.2777 -0.0009
 8207W        W51223   5.800   1.677   5.371  0.0934  0.1401  0.2392
 8208W        W51224  22.224   1.480  24.243  0.0045 -0.1829 -0.1663
 8209W        W51225  26.882  28.596  19.110  0.1237  0.1893 -0.1131
 8210W        W51226   0.972  20.720  15.983  0.1053 -0.0731  0.1105
 8211W        W51227  31.212   6.938  28.217  0.0486  0.2804 -0.2305
 8212W        W51228   8.479  31.225  24.254  0.3293  0.0661  0.0613
 8213W        W51229  23.400  19.820  27.644  0.0951  0.1643 -0.2520
 8214W        W51230  31.273  26.804  19.083  0.1911  0.0222 -0.0796
 8215W        W51231  16.723   3.370  28.123 -0.3464 -0.1012 -0.1685
 8216W        W51232  22.397  14.627  28.467  0.1645 -0.4322 -0.3874
 8217W        W51233   2.480  20.067   3.877 -0.2538  0.0505 -0.1510
 8218W        W51234  25.438   6.565  28.053  0.0853  0.0319 -0.0220
 8219W        W51235  34.093  13.787  15.596  0.1185 -0.4511  0.3684
 8220W        W51236   8.995  10.510   2.904  0.0243 -0.0734  0.1209
 8221W        W51237   9.277   6.219   3.042 -0.3566  0.1456 -0.2734
 8222W        W51238   8.252   5.045   0.084 -0.1030  0.0584 -0.2953
 8223W        W51239  27.978   6.356  17.912  0.1027  0.0773  0.1206
 8224W        W51240  25.982  30.666  25.901  0.0374 -0.2899 -0.0122
 8225W        W51241  34.268  12.228  17.623  0.1179  0.2344 -0.0556
 8226W        W51242  26.498  30.583  16.829 -0.0866  0.4627  0.2185
 8227W        W51243  33.566   7.881  25.827  0.1422  0.1318  0.1232
 8228W        W51244  23.173  14.495  26.610  0.1058 -0.0382 -0.1319
 8229W        W51245  14.360  18.530  28.115  0.0363 -0.2895  0.2380
 8230W        W51246   3.669  32.786   8.670 -0.0126 -0.1382  0.1609
 8231W        W51247  22.922  19.969  27.579  0.0192 -0.3936 -0.2258
 8232W        W51248  34.154  14.771  24.057 -0.0466  0.3190  0.0842
 8233W        W51249   9.660   3.380  27.028 -0.4134 -0.1441  0.0554
 8234W        W51250  11.125  30.858   1.621 -0.1144 -0.3547 -0.4457
 8235W        W51251  30.201  20.985  16.252  0.0013 -0.2103 -0.1875
 8236W        W51252  18.726  11.698  14.374 -0.3231  0.0932  0.0116
 8237W        W51253  34.356  24.120  19.512  0.0071 -0.0840  0.1111
 8238W        W51254  26.990  10.463   4.952 -0.0274  0.0280  0.1186
 8239W        W51255   8.881   3.589  16.970  0.0259 -0.0428 -0.0746
 8240W        W51256  29.885  22.012  19.113 -0.1522  0.0116  0.1751
 8241W        W51257  31.393  25.471  19.514  0.0453 -0.0499  0.2731
 8242W        W51258   1.001  12.656  26.809  0.1501 -0.0667 -0.0432
 8243W        W51259   3.469  28.931   4.339  0.1150 -0.0268 -0.1768
 8244W        W51260  10.263   7.203  14.619 -0.0979  0.0286  0.0003
 8245W        W51261  22.862   9.707  22.969  0.3126 -0.0620 -0.1121
 8246W        W51262  26.501  18.107  22.778  0.1586 -0.2329  0.2301
 8247W        W51263  26.689   4.235  21.594  0.2375  0.0786 -0.1166
 8248W        W51264  27.884  13.167   7.854  0.5881 -0.0542 -0.0887
 8249W        W51265  29.449  18.833  18.533  0.2504 -0.1505  0.0580
 8250W        W51266   9.073   8.106  19.047  0.0088  0.0399 -0.0365
 8251W        W51267  25.428   3.081  19.063 -0.3718 -0.0679 -0.0570
 8252W        W51268   5.016   5.911  20.453 -0.0031 -0.0032 -0.0280
 8253W        W51269  31.307  18.517  25.547  0.2403 -0.1399  0.4004
 8254W        W51270  26.305  18.580  17.346  0.1509 -0.0237  0.0886
 8255W        W51271   7.630   4.448  18.484 -0.3245 -0.0338 -0.0177
 8256W        W51272  31.997   0.972   4.508 -0.0788 -0.2572 -0.3423
 8257W        W51273  29.702   3.323   5.704  0.2091  0.2327 -0.0494
 8258W        W51274  26.990  16.579  23.555 -0.1033  0.0529  0.1284
 8259W        W51275   6.822   3.222  14.950 -0.1544  0.2394  0.3189
 8260W        W51276   4.756  31.411  22.802  0.0356  0.2091  0.0414
 8261W        W51277   3.030   3.931   0.770 -0.0454 -0.1137  0.0144
 8262W        W51278  19.816  16.260  24.456  0.0653 -0.1544 -0.2011
 8263W        W51279  32.183  11.773  16.140  0.1510 -0.2365 -0.1218
 8264W        W51280  34.296   0.164  26.613  0.1930  0.0903 -0.1604
 8265W        W51281  20.685  22.991  22.369 -0.2521  0.1151  0.1302
 8266W        W51282  11.750  11.116  26.633 -0.1406  0.1605  0.4903
 8267W        W51283  11.469  15.117  14.181 -0.1695 -0.1008 -0.0255
 8268W        W51284  32.801   3.165  18.315  0.2091  0.3787 -0.2116
 8269W        W51285  29.626   2.181   9.733 -0.0569 -0.0694  0.2393
 8270W        W51286   6.003  13.743  15.126  0.2441 -0.0951  0.0515
 8271W        W51287  27.444   1.779  24.589  0.0616 -0.0250 -0.0943
 8272W        W51288  31.033   9.352   8.178  0.2749 -0.1159  0.0087
 8273W        W51289  26.433   9.794  10.308 -0.0708  0.0338 -0.0356
 8274W        W51290  10.714  17.438  18.170 -0.1187  0.4405 -0.0084
 8275W        W51291   1.385  29.609  29.316 -0.1084 -0.1252 -0.4246
 8276W        W51292  16.014   6.499   8.283  0.0540 -0.2990  0.2040
 8277W        W51293  10.867  30.846   0.794  0.0105  0.2159  0.0087
 8278W        W51294  30.255  12.108  26.341 -0.1615  0.0611 -0.0857
 8279W        W51295  16.035   5.382  26.281 -0.0887 -0.0456  0.2743
 8280W        W51296   3.729   8.472  16.197  0.1454  0.2054  0.1749
 8281W        W51297   9.327  32.896  26.308  0.0179 -0.1918 -0.4452
 8282W        W51298   1.618  13.627  17.758  0.3910  0.2335  0.2047
 8283W        W51299   2.084  16.800  20.448 -0.0447  0.0193 -0.0807
 8284W        W51300  30.226  33.127   2.681  0.0207 -0.2515 -0.2171
 8285W        W51301  12.623   0.299   4.090  0.0261  0.1890  0.1974
 8286W        W51302   0.236   5.355  15.851 -0.0993 -0.0284 -0.3071
 8287W        W51303   7.136   4.418  23.173 -0.0108  0.3195  0.2488
 8288W        W51304   4.097  33.949   9.060 -0.1748  0.1746 -0.1311
 8289W        W51305  15.887   8.198  18.782  0.0081 -0.0432 -0.1125
 8290W        W51306  18.027   0.177  22.309  0.0249  0.1550  0.1412
 8291W        W51307   0.704   8.991  25.598  0.0179  0.1046  0.0494
 8292W        W51308  33.662   8.815  19.989 -0.0371 -0.0258  0.2403
 8293W        W51309  34.078  12.565  28.722  0.1099  0.5022 -0.0837
 8294W        W51310  27.717  16.227  16.114  0.2226  0.1177  0.1976
 8295W        W51311  31.276   3.930  28.316  0.2959  0.1273  0.1369
 8296W        W51312  24.582   4.054  10.905  0.2866  0.2874  0.1023
 8297W        W51313  34.120  12.511  22.988  0.0746 -0.1634 -0.0560
 8298W        W51314  12.149   4.440  21.041  0.3389 -0.2564  0.2434
 8299W        W51315  26.679   0.649  29.179 -0.2885  0.0771  0.3135
 8300W        W51316   3.002  19.637   1.477 -0.4277 -0.2888 -0.1639
 8301W        W51317  28.159  13.278  25.099  0.1893 -0.0940 -0.0837
 8302W        W51318  14.523  11.074   7.558 -0.1676  0.0096  0.2072
 8303W        W51319   1.750   0.798  23.430 -0.0414  0.1434  0.3614
 8304W        W51320  28.684   8.362  17.659 -0.2017  0.1930 -0.3839
 8305W        W51321  22.511  22.387  18.703 -0.5994  0.1205 -0.2391
 8306W        W51322  34.364  14.796  22.362 -0.0527  0.0881  0.0904
 8307W        W51323  26.639  27.573  19.135 -0.2980 -0.0117  0.0756
 8308W        W51324   6.048  29.196  22.329  0.0286 -0.1519  0.2416
 8309W        W51325   6.410  16.141  25.543 -0.4465 -0.0893 -0.0620
 8310W        W51326  14.501  13.788  21.794 -0.3606 -0.2384  0.2537
 8311W        W51327   1.972  13.096   0.325 -0.0281 -0.1131  0.1067
 8312W        W51328  31.013  14.005   7.924 -0.0545 -0.0910 -0.0549
 8313W        W51329   1.338   6.680   1.970 -0.0644  0.0557  0.2062
 8314W        W51330   4.491  17.437  18.520 -0.2191  0.2533 -0.0044
 8315W        W51331   4.641  12.244  20.642  0.1408 -0.0255 -0.1153
 8316W        W51332  13.158  15.535  12.980  0.1144 -0.0391  0.2038
 8317W        W51333   9.962  32.807  18.100 -0.1406 -0.0445 -0.3452
 8318W        W51334  13.368  13.200  22.471  0.3330  0.0308 -0.0106
 8319W        W51335   6.167  16.950   6.066  0.0663  0.2330  0.0319
 8320W        W51336  31.029  32.470  16.820 -0.1582  0.0571  0.1639
 8321W        W51337   2.183  14.777  21.610 -0.1866 -0.1718  0.0511
 8322W        W51338  23.560   5.384  17.037 -0.1521  0.1838  0.0467
 8323W        W51339  21.231  11.489  26.923 -0.0161  0.0667 -0.0195
 8324W        W51340   2.688   7.096  17.439  0.0314  0.1072 -0.1190
 8325W        W51341   4.290  16.676  20.231 -0.1746  0.2701  0.4215
 8326W        W51342   0.999   5.737  15.438 -0.0632  0.1102 -0.2696
 8327W        W51343   7.817  11.138  18.106  0.0696  0.0420  0.0863
 8328W        W51344  30.339  34.165  29.008 -0.0898 -0.1110 -0.0644
 8329W        W51345  18.504  15.614  27.363 -0.1116 -0.4099  0.4214
 8330W        W51346  28.391  14.196   6.438  0.3247  0.0093 -0.0117
 8331W        W51347  30.897  21.685  23.781  0.1174  0.1817 -0.2074
 8332W        W51348   1.749  11.403  27.284  0.0671  0.0080 -0.0961
 8333W        W51349   0.487  33.632   3.975  0.0771 -0.1456 -0.0524
 8334W        W51350   1.547  34.575  14.622  0.1899  0.2372  0.1410
 8335W        W51351  24.695   1.980  20.633  0.2733  0.0197 -0.0336
 8336W        W51352  31.280  24.494  24.076 -0.3509 -0.0069 -0.6010
 8337W        W51353   7.497  12.893   7.555  0.0680  0.3165  0.1678
 8338W        W51354  19.109   7.448  14.582 -0.0480  0.1542  0.1515
 8339W        W51355   6.485  16.556  26.357 -0.2246  0.2051 -0.2361
 8340W        W51356   5.615  10.191  21.534 -0.1485 -0.0546  0.2493
 8341W        W51357   8.090  17.965  26.676 -0.1982 -0.1315  0.0021
 8342W        W51358   8.486   6.267  23.378 -0.2864  0.0686 -0.0423
 8343W        W51359  25.288   3.375  25.751 -0.0261 -0.0415  0.0698
 8344W        W51360  25.762   4.893  22.231  0.0353 -0.3285  0.0793
 8345W        W51361  30.768  12.598  22.253  0.2210 -0.0150 -0.0452
 8346W        W51362   1.632  12.880   0.602 -0.0293 -0.3769  0.2684
 8347W        W51363  10.282   9.646  19.967 -0.0489  0.0458  0.2643
 8348W        W51364   7.516   8.060  26.601 -0.1911  0.1917  0.0768
 8349W        W51365  12.565  28.191   7.775  0.0621  0.2527 -0.2793
 8350W        W51366  15.785   4.658   5.785 -0.1609  0.1155 -0.0452
 8351W        W51367  29.217  19.247  19.116  0.4375  0.0575  0.0518
 8352W        W51368  25.205   0.765  18.690  0.1505  0.0127 -0.4389
 8353W        W51369  17.051  12.013  16.945  0.1579 -0.0931  0.0376
 8354W        W51370  31.340  10.697  19.929  0.1157 -0.1015 -0.2287
 8355W        W51371   8.614  27.847   1.783  0.0644 -0.4039  0.0689
 8356W        W51372   0.600   8.101   0.066  0.0069  0.1772  0.0311
 8357W        W51373  26.162   3.236  17.207  0.0280 -0.0697 -0.2638
 8358W        W51374   1.698  18.918  24.488 -0.2246  0.0451  0.0962
 8359W        W51375   7.552  12.447  19.434  0.1121 -0.0831 -0.0777
 8360W        W51376  29.420  11.365   5.910  0.1591 -0.2684 -0.0613
 8361W        W51377  34.690   5.169  17.873  0.2421 -0.2233 -0.1097
 8362W        W51378   8.941   2.120  18.886 -0.0583  0.4216  0.1355
 8363W        W51379  17.974  18.857  25.542  0.0431 -0.0727 -0.0652
 8364W        W51380  27.907  14.557  27.261  0.1187  0.3248 -0.4474
 8365W        W51381  29.743   8.274  18.240  0.1099 -0.0339  0.4714
 8366W        W51382   6.457  30.156  23.007 -0.1632  0.0685 -0.0318
 8367W        W51383   3.639  19.718  18.778 -0.0433 -0.1387  0.0363
 8368W        W51384  28.120  30.371  17.731 -0.2368 -0.0690 -0.1214
 8369W        W51385  32.973  10.434  28.001 -0.0592 -0.1536 -0.0418
 8370W        W51386  34.389   2.273  21.347 -0.1195 -0.1304  0.3346
 8371W        W51387  34.499  20.638   6.143 -0.0240 -0.0916  0.2933
 8372W        W51388  16.796  33.815  20.963 -0.2053  0.0523  0.2687
 8373W        W51389  18.567   4.554  21.930 -0.0071  0.1822  0.1430
 8374W        W51390   7.381   9.611  14.762 -0.0383  0.2420  0.2188
 8375W        W51391  13.449  19.746  28.202  0.0907 -0.0926 -0.2670
 8376W        W51392   4.669  16.552  19.695 -0.1813 -0.0038 -0.1238
 8377W        W51393   2.097  19.630  24.074  0.0973 -0.2250 -0.1076
 8378W        W51394  24.878  20.212  14.881  0.1768  0.0889 -0.1730
 8379W        W51395   5.483  27.875  12.989  0.2556  0.0268 -0.0618
 8380W        W51396   1.166   4.996  24.054 -0.2373  0.0504  0.1692
 8381W        W51397   8.454  11.755  24.506  0.1860  0.1774 -0.0473
 8382W        W51398  34.758   6.476  18.343 -0.0450  0.2631  0.1054
 8383W        W51399  28.079   8.766  18.808 -0.1414  0.0663  0.0092
 8384W        W51400  11.094   7.121  16.374  0.3187 -0.0163 -0.3153
 8385W        W51401  16.458   1.771   4.982  0.1401  0.1038 -0.0274
 8386W        W51402  29.567  16.639  16.333  0.1550 -0.1855  0.1222
 8387W        W51403  28.131   5.346  27.563 -0.2214 -0.0516  0.1371
 8388W        W51404  19.153  25.850   0.300 -0.1418 -0.0103  0.0330
 8389W        W51405  10.449   6.206   1.858  0.0138 -0.0074 -0.0799
 8390W        W51406   4.151  32.041   4.566  0.1791 -0.0753 -0.0915
 8391W        W51407  33.739  10.677  24.866  0.5608  0.2251  0.0386
 8392W        W51408  29.533  13.177  16.808  0.0471  0.1094 -0.2795
 8393W        W51409   7.542  15.550   0.668 -0.0263  0.3646 -0.0060
 8394W        W51410  21.938  28.720  26.411  0.3065 -0.0373  0.2318
 8395W        W51411  16.390  11.870  27.404 -0.0661  0.0289  0.0375
 8396W        W51412   0.424  34.095  16.489 -0.0735  0.0261 -0.0666
 8397W        W51413  24.117  14.924  26.260  0.2927  0.0095  0.0401
 8398W        W51414   5.929  10.513  21.870  0.1612 -0.1467 -0.1098
 8399W        W51415  34.591  25.895   2.691  0.1155  0.0431  0.2326
 8400W        W51416  32.986   3.443  23.506  0.4672 -0.2135  0.1093
 8401W        W51417   2.152  17.702  27.797 -0.3099 -0.1809 -0.0892
 8402W        W51418  29.987  34.518  19.320 -0.0081 -0.2876 -0.0273
 8403W        W51419  10.878  23.608  21.898  0.1219  0.1142  0.1369
 8404W        W51420   0.208   8.549  22.222  0.1816 -0.1496  0.3365
 8405W        W51421   7.437  28.812  18.841 -0.4122  0.2886  0.0432
 8406W        W51422   9.558  15.324   4.041 -0.1566 -0.0924 -0.2919
 8407W        W51423  33.687   6.772  16.845 -0.1052 -0.1778 -0.0427
 8408W        W51424   2.990  21.837  21.852  0.2705  0.2883  0.1759
 8409W        W51425  15.359  13.597   0.496  0.0191  0.0658  0.0407
 8410W        W51426  27.722   2.070   0.798 -0.2586 -0.0810  0.0787
 8411W        W51427  30.438   6.451  15.524  0.1006  0.1635  0.1980
 8412W        W51428   3.293   3.995  18.824  0.0073 -0.0111  0.1432
 8413W        W51429   9.483  25.094  29.090  0.2045 -0.0412  0.1407
 8414W        W51430  28.238  13.853  25.933 -0.3050  0.0198  0.2142
 8415W        W51431   1.560  11.388  19.965  0.1442  0.3864  0.1164
 8416W        W51432   0.862  34.284   6.281  0.1767  0.2807  0.3467
 8417W        W51433  10.129  21.538  22.205  0.0754 -0.1833 -0.0075
 8418W        W51434   2.796  20.638  27.423  0.0426 -0.0542 -0.1767
 8419W        W51435  12.010   1.800  20.451 -0.0823 -0.0898 -0.1269
 8420W        W51436  27.759  33.997  17.001  0.0233 -0.0636 -0.0767
 8421W        W51437  15.671  32.325  10.317 -0.1377 -0.0598 -0.2963
 8422W        W51438  14.596  11.885  18.622 -0.0065  0.2307  0.0740
 8423W        W51439  29.578   9.521  18.683  0.1484 -0.2176  0.1470
 8424W        W51440  33.280   6.985  26.334 -0.0400  0.1097 -0.2799
 8425W        W51441   6.182  29.097  19.446 -0.0268  0.0809  0.2078
 8426W        W51442   2.259  34.236  14.971 -0.4772  0.0702 -0.0435
 8427W        W51443  31.788   5.092  17.251 -0.2225 -0.3036  0.0833
 8428W        W51444  21.818   5.673  23.647  0.2791  0.0581 -0.1368
 8429W        W51445  12.536  29.554  22.855 -0.0765  0.1142 -0.1726
 8430W        W51446   9.431   1.157  29.052 -0.0796  0.0075  0.0205
 8431W        W51447  30.614   4.038  21.093  0.3856 -0.4603  0.0737
 8432W        W51448  26.920  23.422  22.007  0.1627  0.0376 -0.0785
 8433W        W51449  26.605  15.118  25.270 -0.0138 -0.0527 -0.0599
 8434W        W51450   1.386   7.662   4.708 -0.1724  0.1315  0.0953
 8435W        W51451   7.406  31.003  15.522 -0.2321 -0.0126 -0.1637
 8436W        W51452  28.076   8.487  11.398 -0.1357 -0.2810  0.0925
 8437W        W51453  14.137  11.655  18.477  0.0169 -0.1418 -0.1756
 8438W        W51454   2.677  14.821  10.158  0.0262  0.0119  0.0266
 8439W        W51455  32.711   7.676  22.787  0.0517  0.1112  0.0189
 8440W        W51456   2.963  32.681  28.357 -0.1627 -0.0493 -0.2701
 8441W        W51457  20.839  26.788  26.061  0.1186 -0.0850  0.1901
 8442W        W51458   7.813  23.299  26.453  0.2995 -0.1129 -0.0333
 8443W        W51459  16.645   9.984  27.734  0.1049  0.0974 -0.1965
 8444W        W51460  32.393   8.159  19.154 -0.0652  0.1362 -0.1776
 8445W        W51461  13.757   6.253  21.798  0.1261  0.0856 -0.2155
 8446W        W51462  18.479   3.227  23.565  0.0040  0.2855 -0.3808
 8447W        W51463   2.234  27.779  27.104  0.1191  0.1743 -0.0939
 8448W        W51464  17.555  25.768  22.490  0.0268 -0.0610 -0.4178
 8449W        W51465  11.182  10.100  27.747 -0.0507  0.0647 -0.0776
 8450W        W51466  30.009  10.615  19.756  0.5362 -0.1738  0.1629
 8451W        W51467  14.323   5.998  25.132  0.2968  0.0860  0.1079
 8452W        W51468  14.184   8.393  25.315 -0.3462 -0.0447 -0.1280
 8453W        W51469  22.173   7.066   0.421 -0.0562  0.1239  0.3740
 8454W        W51470   2.457  14.113   6.863  0.3195  0.0007  0.0371
 8455W        W51471  20.087   1.609  20.637 -0.0315 -0.0735 -0.1873
 8456W        W51472  12.356  34.730   2.154  0.1225  0.0793 -0.0463
 8457W        W51473  29.987  13.440   6.046  0.1487  0.1552 -0.3049
 8458W        W51474   1.290   7.887  16.533 -0.1180  0.4262  0.1070
 8459W        W51475   4.578  33.787  25.369  0.3447  0.0282 -0.3591
 8460W        W51476   5.522   8.782  24.104 -0.0675 -0.3415  0.1968
 8461W        W51477  19.132  14.636   1.437 -0.2809  0.5326 -0.5250
 8462W        W51478  18.464  28.837  19.097  0.0642  0.5740 -0.0703
 8463W        W51479  23.835  19.592  23.344 -0.1220  0.2945  0.0243
 8464W        W51480   4.497   6.577  21.426 -0.5623 -0.3451  0.0107
 8465W        W51481  26.234   0.071  18.930 -0.1945  0.0427  0.1346
 8466W        W51482   0.193  32.769  10.766  0.0046 -0.0528 -0.1474
 8467W        W51483  15.559  24.684  22.846  0.1392 -0.4187 -0.0816
 8468W        W51484   4.613  15.394   4.647 -0.2574 -0.0972 -0.0086
 8469W        W51485   2.193  13.408  17.055 -0.1622  0.1112  0.0683
 8470W        W51486  26.170   1.795   1.705  0.2061 -0.0108  0.3518
 8471W        W51487  29.236  18.727  28.856  0.1958 -0.0394 -0.1041
 8472W        W51488  33.240  18.767  25.861 -0.2394 -0.1616 -0.1291
 8473W        W51489  26.258  12.589   9.889 -0.2047 -0.0715  0.0240
 8474W        W51490  33.822   1.576   7.983 -0.2300 -0.2413  0.1082
 8475W        W51491  18.338   9.530  29.301 -0.0965  0.1275 -0.0375
 8476W        W51492  34.246   1.536   0.596  0.0615 -0.2196 -0.0720
 8477W        W51493  15.881   9.780   1.889 -0.0663 -0.1113 -0.1278
 8478W        W51494   1.833  19.707   1.124 -0.1027 -0.0028 -0.1869
 8479W        W51495  34.005   7.430  25.121  0.4163  0.1843 -0.1915
 8480W        W51496   0.488  34.370  17.830  0.0458 -0.0930 -0.0733
 8481W        W51497  26.018  31.829  21.449  0.1433  0.3955  0.0139
 8482W        W51498  28.528  14.593  17.314 -0.1919 -0.1244 -0.0919
 8483W        W51499  34.094  10.791   0.420  0.1706  0.2897  0.0725
 8484W        W51500  27.626  18.434  22.648  0.0177  0.2590  0.0247
 8485W        W51501  31.129  34.172  17.525 -0.1320 -0.0261  0.0281
 8486W        W51502   1.914  24.022  26.951 -0.0737 -0.3106 -0.1260
 8487W        W51503   4.102  12.027  16.703  0.1373 -0.0236 -0.2075
 8488W        W51504   8.508   5.556  16.030 -0.1949  0.3437 -0.2392
 8489W        W51505  33.606   6.895  19.925  0.2623  0.0381  0.0973
 8490W        W51506  22.494  25.368  18.000  0.1268  0.2462  0.0176
 8491W        W51507  10.491  15.061  19.448 -0.2127 -0.1548  0.2014
 8492W        W51508  31.604  28.728  21.423  0.1287  0.4386 -0.0045
 8493W        W51509  34.158  14.500  19.672 -0.0407 -0.1761 -0.1124
 8494W        W51510  28.245  15.549  22.980  0.0633  0.1760  0.2461
 8495W        W51511  22.219  20.856  24.114 -0.0919 -0.0712 -0.1542
 8496W        W51512   2.669  10.857  20.788  0.3930  0.1800 -0.1220
 8497W        W51513   3.074  34.115  25.031 -0.1268 -0.1295 -0.0647
 8498W        W51514   4.628   6.879  19.932 -0.2051 -0.4855  0.0736
 8499W        W51515   1.527  11.793  22.984 -0.2766  0.0563 -0.2422
 8500W        W51516   4.009  16.655   5.607  0.0739  0.6700  0.2594
 8501W        W51517   8.759  24.136  21.030 -0.0243 -0.0496  0.3090
 8502W        W51518  27.416   5.945   6.705 -0.0980 -0.1074  0.1211
 8503W        W51519  33.755  30.285  17.251  0.0254 -0.0653 -0.3388
 8504W        W51520  19.121  33.049  27.090 -0.2776  0.4037 -0.1916
 8505W        W51521   3.463   6.234  23.413  0.0769 -0.1576 -0.0887
 8506W        W51522   1.723   8.932   6.529  0.5708 -0.4769 -0.1062
 8507W        W51523  33.388   3.213   0.228 -0.1580 -0.3753 -0.2500
 8508W        W51524   5.333   8.255  18.764  0.1479 -0.1007  0.1039
 8509W        W51525  28.657   0.962  16.128 -0.1605  0.1760 -0.2811
 8510W        W51526  26.679  10.764  14.585 -0.2276  0.0394  0.3849
 8511W        W51527  24.613   0.996  17.271 -0.2462 -0.1230  0.0182
 8512W        W51528   4.904  27.296  27.088 -0.2834  0.1916 -0.1577
 8513W        W51529  30.782  18.510  25.680  0.2366 -0.1339 -0.0203
 8514W        W51530  15.488  13.208  24.291  0.0637 -0.0576 -0.2398
 8515W        W51531  17.417   8.053   0.353  0.1031 -0.0087 -0.0339
 8516W        W51532  13.478   3.685  16.517  0.3081  0.5118  0.1238
 8517W        W51533  24.758  21.296  21.513  0.2587  0.0199 -0.1284
 8518W        W51534   8.466   1.935  27.048  0.0596 -0.1200  0.1629
 8519W        W51535   4.437  27.201  26.319  0.1486  0.2920  0.2077
 8520W        W51536  26.222   5.777  17.508 -0.0148 -0.1338 -0.1090
 8521W        W51537  23.913  13.093  13.367  0.0348 -0.0154  0.1230
 8522W        W51538  27.596  21.627  17.544  0.1481 -0.0578 -0.2138
 8523W        W51539   4.151  17.881  14.517 -0.1611 -0.1442  0.0274
 8524W        W51540  11.911   1.358   0.403  0.3586 -0.1688 -0.1055
 8525W        W51541  33.094  15.921  26.398 -0.2121 -0.2555 -0.1657
 8526W        W51542  20.667  15.534  14.952 -0.1611 -0.1080  0.3785
 8527W        W51543   6.388  24.635   2.292 -0.2467  0.2586 -0.1374
 8528W        W51544  31.155   9.577  23.030 -0.1890  0.0767  0.0594
 8529W        W51545  14.376   9.853  14.604  0.1564 -0.1057 -0.2859
 8530W        W51546  15.122   0.338   0.534  0.1724  0.1845 -0.2348
 8531W        W51547  14.392  15.707  28.918  0.0911  0.0347  0.0626
 8532W        W51548  26.179  33.811   5.658 -0.0537 -0.2620 -0.0300
 8533W        W51549   7.798  14.266  14.454  0.2434 -0.2894 -0.2223
 8534W        W51550   9.867   5.503  15.700 -0.0289  0.0305 -0.2106
 8535W        W51551  26.886   8.764  17.225 -0.0248  0.1433 -0.0213
 8536W        W51552   6.066  32.973  19.994 -0.0734  0.5656  0.2320
 8537W        W51553   4.156  20.628  21.798  0.2410  0.1059  0.0532
 8538W        W51554  24.385   2.115  10.192  0.0814  0.2505 -0.0987
 8539W        W51555   3.195   3.841   5.355  0.3426  0.2755  0.0305
 8540W        W51556  33.269  34.591  16.922  0.0182  0.0827 -0.0833
 8541W        W51557   0.169  25.867  25.717 -0.0564  0.0339  0.0706
 8542W        W51558  21.084  24.612  20.722  0.1708 -0.0948 -0.0430
 8543W        W51559   8.749   9.438  13.881  0.2773 -0.1858  0.1680
 8544W        W51560   8.367  14.473  27.236  0.0539  0.0525 -0.0428
 8545W        W51561  10.900   2.458  18.455  0.1880  0.1530 -0.0523
 8546W        W51562  17.893  20.734  25.854 -0.0832  0.1395 -0.0176
 8547W        W51563   4.188  28.052  25.097 -0.0720 -0.3102  0.0276
 8548W        W51564  31.974  33.396  24.490 -0.0966  0.1464  0.2943
 8549W        W51565  11.530   4.156   4.447  0.5046 -0.0133  0.1881
 8550W        W51566  18.756   9.732  27.859 -0.4275 -0.2715 -0.0772
 8551W        W51567   5.507  10.776   2.107 -0.4047 -0.0195  0.1808
 8552W        W51568  20.491   7.796  15.260 -0.0695  0.1576  0.3399
 8553W        W51569  11.511   7.252   5.467  0.3165 -0.2543  0.4042
 8554W        W51570  21.429  28.476   0.275 -0.2007  0.0278 -0.2409
 8555W        W51571  27.717  18.914   2.873 -0.3354 -0.1661 -0.1818
 8556W        W51572  10.679  10.582   3.758 -0.3410 -0.0423  0.0780
 8557W        W51573  32.233   4.257  26.886  0.0991  0.3043  0.0449
 8558W        W51574  25.606  31.962  28.233  0.1070  0.3250 -0.2075
 8559W        W51575   4.626   8.083   9.805  0.0769 -0.1583 -0.0061
 8560W        W51576   3.492  11.731   1.118  0.3410  0.3783 -0.3088
 8561W        W51577  33.998  20.125  26.011 -0.1904 -0.1622 -0.2760
 8562W        W51578   4.075   5.685  19.677 -0.0832 -0.0018 -0.0695
 8563W        W51579  13.456   3.708  18.355 -0.1365  0.1694  0.3447
 8564W        W51580   3.280  31.515   1.085  0.0964  0.1504 -0.0270
 8565W        W51581   0.188  11.585   5.167 -0.0567  0.1697  0.2081
 8566W        W51582   4.062  25.796   4.249  0.0594  0.1935 -0.2810
 8567W        W51583  10.000   2.422   3.324  0.1063 -0.2442 -0.0867
 8568W        W51584  24.713   4.946   2.372 -0.0447  0.0454  0.2225
 8569W        W51585  12.517   3.080  25.624 -0.1623 -0.3060  0.0408
 8570W        W51586   8.745  34.641  26.034  0.1661 -0.1712 -0.3114
 8571W        W51587  24.842  26.259  21.258 -0.1302 -0.0255 -0.0561
 8572W        W51588  19.554  17.867  14.702 -0.2010  0.0908 -0.0133
 8573W        W51589   8.427  10.963   5.334 -0.1902  0.1452  0.2888
 8574W        W51590  14.182  29.506  14.857  0.2166 -0.0846 -0.0225
 8575W        W51591  33.070  11.302  24.268 -0.3003  0.1920 -0.0786
 8576W        W51592  22.797  31.747  24.705  0.2653 -0.1210 -0.2772
 8577W        W51593  18.665   5.232  25.147  0.1007  0.0132 -0.0203
 8578W        W51594  29.040  30.626  22.913  0.0390  0.1707  0.0193
 8579W        W51595  23.446  16.525  21.584 -0.1081 -0.1259 -0.3093
 8580W        W51596  30.714  17.295  16.325  0.1777 -0.0312  0.1841
 8581W        W51597   8.384   6.434  17.150  0.1950  0.1259  0.0914
 8582W        W51598  10.714  19.326   0.217 -0.0705 -0.0021  0.1351
 8583W        W51599  19.936  15.598  19.862 -0.1064 -0.0463  0.0303
 8584W        W51600   8.053   8.187  22.505 -0.0131  0.0902 -0.0721
 8585W        W51601  10.732  21.393  22.971  0.0196  0.2004  0.0509
 8586W        W51602   9.093   6.667  17.866 -0.1905  0.3632 -0.1210
 8587W        W51603   5.017   2.990  22.141 -0.0064  0.2825 -0.0143
 8588W        W51604   7.850  17.278  17.516  0.2155  0.0006 -0.1242
 8589W        W51605  30.993  20.372  14.781 -0.1847 -0.2064 -0.1319
 8590W        W51606  20.016  33.031  27.227 -0.0229 -0.0437 -0.1321
 8591W        W51607  29.172   6.079   1.685  0.1677 -0.1551  0.1210
 8592W        W51608  23.801  11.036  24.263 -0.0409 -0.0584 -0.0626
 8593W        W51609   1.655   7.454  13.644 -0.0774 -0.0406  0.0184
 8594W        W51610  21.880   1.735  10.382  0.0557  0.2097  0.3727
 8595W        W51611   2.246   5.896   7.250  0.0970 -0.1302 -0.0771
 8596W        W51612   2.764   9.504  26.200  0.3097 -0.1297 -0.0556
 8597W        W51613   8.706  34.027  22.255 -0.1827  0.3743 -0.0835
 8598W        W51614   4.771   5.860  16.272  0.2870 -0.1686  0.0158
 8599W        W51615  30.227   4.166  10.920  0.2269  0.2149  0.0046
 8600W        W51616  13.551  10.490  20.783  0.2247  0.3197  0.0146
 8601W        W51617   3.910  31.988  28.157 -0.0613  0.1319  0.2433
 8602W        W51618  15.795  15.783   6.327 -0.2795 -0.2794 -0.0287
 8603W        W51619   1.094   9.663  16.289 -0.1116  0.1547  0.2700
 8604W        W51620   1.300   5.457   0.619 -0.0938  0.3825 -0.2731
 8605W        W51621  25.709   8.239  27.081 -0.1134 -0.1491  0.1551
 8606W        W51622  12.830   8.243  24.895 -0.0958 -0.2262 -0.0568
 8607W        W51623   7.548  24.057   5.794 -0.0653  0.1660  0.1351
 8608W        W51624  28.750  20.695  20.068 -0.0305 -0.0326  0.2578
 8609W        W51625  16.730  12.486  12.530  0.1735 -0.2054 -0.0104
 8610W        W51626  23.580  18.221  14.206  0.0298 -0.2012  0.0649
 8611W        W51627  33.123  10.613  14.436 -0.1781  0.3558 -0.2168
 8612W        W51628   6.703  10.234  26.045 -0.2453 -0.0657 -0.2136
 8613W        W51629  27.086  30.758  24.958 -0.0423 -0.0509  0.0743
 8614W        W51630   6.345  14.508  28.456 -0.0335 -0.0344 -0.0833
 8615W        W51631   1.106   7.479   2.047 -0.5072  0.1119  0.2742
 8616W        W51632  30.253  20.371  17.753  0.1953 -0.0224  0.0449
 8617W        W51633  25.372  31.710   2.425  0.0384  0.0386  0.0360
 8618W        W51634  31.101  27.754  24.414 -0.7052 -0.1587  0.0087
 8619W        W51635  30.821   8.255  18.530 -0.0155 -0.1580 -0.0516
 8620W        W51636  17.358  21.207   2.991 -0.2264  0.2074  0.2240
 8621W        W51637   6.554  16.256  22.406  0.1146  0.3702  0.0975
 8622W        W51638  19.986   9.453   0.450 -0.2531  0.0928 -0.1365
 8623W        W51639   1.562   8.832  20.058  0.3089 -0.0671 -0.0470
 8624W        W51640  13.791  15.482  24.090  0.2406  0.0567  0.1457
 8625W        W51641  28.991  32.393  27.838 -0.1747  0.0345 -0.1217
 8626W        W51642   9.366  26.344  24.766 -0.3047 -0.2115  0.1576
 8627W        W51643  19.901   6.906   4.246 -0.1358 -0.1479  0.1716
 8628W        W51644  10.671   8.657  28.624  0.1492  0.0500  0.3405
 8629W        W51645   7.014  10.211  23.124 -0.2790 -0.0634  0.0604
 8630W        W51646  34.419   1.387   2.751 -0.2546 -0.0420 -0.1438
 8631W        W51647   8.522   4.016   1.007  0.2630  0.1107  0.0566
 8632W        W51648  26.358  26.740  19.181  0.2217 -0.4522  0.0287
 8633W        W51649  34.124  20.236  20.338 -0.0752  0.0774  0.0982
 8634W        W51650  17.323   8.544  20.989 -0.0565 -0.1430 -0.0673
 8635W        W51651  17.042  10.471  25.051 -0.1810 -0.0427  0.1829
 8636W        W51652  21.265  29.893  27.510  0.2400 -0.3154 -0.2405
 8637W        W51653  14.009  13.047  14.331 -0.0077 -0.2383  0.0896
 8638W        W51654  23.577  18.024   3.531 -0.1230 -0.0020  0.4435
 8639W        W51655  17.821   9.984  24.845 -0.3829 -0.3371  0.3858
 8640W        W51656   5.065  23.776  26.025 -0.0882 -0.3010 -0.1343
 8641W        W51657  26.661   4.944   7.220  0.0173 -0.3606  0.2355
 8642W        W51658   7.087   2.485   1.585 -0.4567  0.0763  0.0257
 8643W        W51659  31.908  22.839   0.600 -0.0043  0.0810 -0.1098
 8644W        W51660  33.687  20.229   5.796 -0.2691  0.1735 -0.2700
 8645W        W51661   8.536   5.134  22.255 -0.0403 -0.0118 -0.0765
 8646W        W51662  19.156  10.974   1.757 -0.1455 -0.4360 -0.0323
 8647W        W51663   5.006  11.754   0.947  0.1597 -0.0999  0.0032
 8648W        W51664  30.689  33.057   2.049 -0.4888 -0.0064 -0.2068
 8649W        W51665  29.739  21.536   7.869 -0.3459  0.4008  0.0774
 8650W        W51666  30.873  11.455   0.173 -0.0185 -0.1729 -0.1457
 8651W        W51667  16.254  10.337  27.630 -0.0973  0.0197  0.2647
 8652W        W51668  31.513  16.220  26.890 -0.2371 -0.0590 -0.3782
 8653W        W51669   6.555   2.883  28.573  0.1324 -0.1155  0.0151
 8654W        W51670   5.718   8.181  19.722 -0.2068 -0.1177  0.0865
 8655W        W51671  34.117   7.853  20.896 -0.1972 -0.0224  0.1992
 8656W        W51672   4.998   5.316  24.017 -0.1933  0.0099 -0.0207
 8657W        W51673   1.436   1.091   7.952 -0.1151  0.0769 -0.0056
 8658W        W51674  13.149   8.561  23.044  0.0953 -0.1053  0.1580
 8659W        W51675  33.827  27.393  22.049  0.1957  0.0190  0.1585
 8660W        W51676  14.276   8.116  27.675  0.1600  0.0438 -0.1049
 8661W        W51677  22.977   0.156  17.754 -0.3400  0.0022 -0.1969
 8662W        W51678  32.408   3.863   1.694 -0.0725 -0.1402 -0.1240
 8663W        W51679  33.394  18.231  15.872  0.0370 -0.0360 -0.0716
 8664W        W51680  21.218   3.702   0.396  0.3113  0.1104  0.0666
 8665W        W51681  33.212  33.598   8.772 -0.1449  0.0672  0.0734
 8666W        W51682  28.144   5.394   6.475  0.0864  0.0919  0.0605
 8667W        W51683  11.147  10.134  13.232 -0.0233  0.4273  0.3802
 8668W        W51684  18.812   4.953  18.380  0.0466  0.2843  0.1300
 8669W        W51685   8.035   8.018  19.989 -0.0170  0.1977 -0.0947
 8670W        W51686  30.370  31.104   2.053  0.1823 -0.0383  0.0849
 8671W        W51687   6.090  27.891   1.812  0.0315  0.0850 -0.0197
 8672W        W51688  33.293   0.559   7.213 -0.0622  0.0936 -0.0326
 8673W        W51689   2.489  34.504  28.639  0.0816  0.1375 -0.0679
 8674W        W51690  18.425   3.122  27.804 -0.2417 -0.3446 -0.2688
 8675W        W51691   4.851   7.133  15.484  0.0428 -0.1514  0.1015
 8676W        W51692  27.960  16.112   2.060  0.1749 -0.1726  0.2965
 8677W        W51693  22.381  32.870  16.335  0.2710  0.0591  0.1357
 8678W        W51694   1.598  32.536   6.657 -0.1844  0.0189 -0.0046
 8679W        W51695  31.588  34.406  29.239  0.1038 -0.1302  0.2626
 8680W        W51696  24.748  10.925  24.134  0.0902 -0.1308 -0.0168
 8681W        W51697   7.930   4.793  24.694  0.1065 -0.1926 -0.1783
 8682W        W51698  10.790  26.205  13.405  0.1499  0.4476  0.1542
 8683W        W51699   7.284  26.199   8.926  0.4584 -0.0601  0.1650
 8684W        W51700  10.784   4.983  15.348  0.0501  0.0356  0.1413
 8685W        W51701   7.359   6.973  16.550 -0.1260  0.0272 -0.2429
 8686W        W51702  14.560   7.445  26.907 -0.1212 -0.1659 -0.2484
 8687W        W51703  33.489   7.547  25.077 -0.0049  0.3348 -0.0180
 8688W        W51704  33.825   4.707   0.681  0.2400  0.3193 -0.1031
 8689W        W51705  27.809  22.247  15.250  0.0515 -0.1539 -0.0492
 8690W        W51706  32.363  26.579  19.913 -0.1868  0.0248  0.0774
 8691W        W51707   9.594  11.494   6.538  0.0678  0.0056 -0.3764
 8692W        W51708  31.354  22.485  18.864  0.2347  0.1612  0.1480
 8693W        W51709   1.822   8.750  18.688 -0.1310 -0.3101 -0.1084
 8694W        W51710   8.803   4.558  10.072 -0.0151  0.0804  0.1963
 8695W        W51711   1.536  17.391  21.236  0.1249 -0.1554 -0.0437
 8696W        W51712  11.098  14.497  20.062  0.4245 -0.1943  0.0290
 8697W        W51713  30.574   4.258  19.690  0.2473 -0.3248  0.0547
 8698W        W51714  27.295  24.885   0.891 -0.2107  0.0445 -0.0615
 8699W        W51715  18.822  13.826   4.094 -0.0738  0.0982 -0.2738
 8700W        W51716  33.418  13.086  18.439 -0.2584  0.1423 -0.0536
 8701W        W51717  27.294  32.911   2.940 -0.1884 -0.0129 -0.1302
 8702W        W51718   4.777  31.221   7.106  0.0695  0.0819 -0.2129
 8703W        W51719   3.523  29.260  28.159 -0.0410  0.2898  0.0067
 8704W        W51720  23.965  13.115  21.216 -0.4093  0.2849 -0.0010
 8705W        W51721  25.014  13.395  24.032 -0.1954 -0.1962 -0.2858
 8706W        W51722   4.910   1.510   5.822 -0.0576 -0.5156 -0.1673
 8707W        W51723   6.148  14.323   6.528 -0.3430 -0.0326 -0.1736
 8708W        W51724  21.796  16.148  25.198 -0.0564 -0.3502 -0.0027
 8709W        W51725  14.926  22.336   5.344  0.0124 -0.0111  0.3173
 8710W        W51726  26.904  11.829   3.057 -0.0228  0.3204  0.3111
 8711W        W51727   5.424   5.061  22.936  0.0467  0.0662 -0.1417
 8712W        W51728   3.269  27.923   4.414 -0.0020 -0.1518  0.0190
 8713W        W51729  21.005   6.036   5.964  0.1312  0.2799  0.2519
 8714W        W51730  16.850  29.558   7.205  0.0013  0.1232  0.1467
 8715W        W51731  19.714   6.334  24.084  0.1606 -0.0676  0.2912
 8716W        W51732  33.296   1.124   3.143  0.1741 -0.1004 -0.0755
 8717W        W51733   6.833  30.221  28.934  0.0184 -0.2157  0.0433
 8718W        W51734  25.590  31.948   5.852 -0.2255 -0.2149  0.0185
 8719W        W51735   1.168  11.880  25.636  0.1560 -0.4850 -0.1739
 8720W        W51736  33.564  21.644   2.890  0.1552 -0.1897  0.1433
 8721W        W51737   3.989  14.586   0.724  0.0779 -0.0990  0.1638
 8722W        W51738   4.733   7.358  22.059 -0.0042 -0.0674  0.0279
 8723W        W51739   9.912   8.909  16.036  0.1073 -0.0552  0.2921
 8724W        W51740  28.915  17.455  27.434 -0.0685 -0.5892 -0.0172
 8725W        W51741   4.790   8.428  15.879 -0.1248  0.0309  0.0117
 8726W        W51742  20.845  19.401   0.483 -0.0377  0.0935 -0.2779
 8727W        W51743   3.054   3.198  28.032 -0.0816  0.1059 -0.0481
 8728W        W51744  28.174   8.337   4.043  0.2950  0.0564 -0.2574
 8729W        W51745  19.172  11.068  20.897 -0.3626  0.0841 -0.1972
 8730W        W51746   6.825  23.638  20.370 -0.2420 -0.1131  0.0800
 8731W        W51747   6.746   3.885  28.655 -0.0765 -0.0432 -0.0011
 8732W        W51748  29.987   8.292   1.481 -0.3097 -0.0369 -0.0862
 8733W        W51749   3.626  15.700  21.943  0.2092 -0.0686 -0.2196
 8734W        W51750  11.822   0.751  25.055  0.1377  0.1643 -0.2464
 8735W        W51751   2.549  11.439   7.402  0.0434 -0.0085 -0.1485
 8736W        W51752  26.571   5.244  18.675  0.2146  0.0618  0.2053
 8737W        W51753  12.385   7.839   2.036  0.0457 -0.2076 -0.2797
 8738W        W51754   3.675   3.883  19.994 -0.0996  0.0334 -0.1966
 8739W        W51755   7.921  18.608  27.432  0.2566  0.0952  0.0239
 8740W        W51756  15.381   5.816   9.460 -0.1929 -0.0547 -0.0794
 8741W        W51757  24.724   5.146  27.180  0.0432  0.0530  0.2583
 8742W        W51758  27.812   9.517  27.998 -0.1671 -0.1226  0.1467
 8743W        W51759  12.896  28.158   5.337  0.1882 -0.0888 -0.2293
 8744W        W51760  12.704   8.211  28.475 -0.1866  0.0681  0.4385
 8745W        W51761   0.453   0.598   9.260 -0.0861 -0.0081  0.0988
 8746W        W51762  16.756  19.878  24.038 -0.0816 -0.1031 -0.0940
 8747W        W51763   4.503  29.453   3.462  0.0941 -0.0599 -0.0448
 8748W        W51764  24.823   3.386  17.068  0.2022  0.1354 -0.0598
 8749W        W51765  14.085  20.223  21.135 -0.0927 -0.1450  0.1594
 8750W        W51766   3.743  19.425  17.324 -0.0624  0.2357  0.1447
 8751W        W51767  18.639  16.801  19.243 -0.1637 -0.3470 -0.1203
 8752W        W51768  11.075   2.121  15.684 -0.0807  0.0611  0.0409
 8753W        W51769  25.479   6.177  17.740 -0.1769  0.0868 -0.2064
 8754W        W51770  25.670   4.715  27.274  0.0398  0.1468  0.0232
 8755W        W51771   6.884  30.927  26.586 -0.1301  0.0616 -0.2173
 8756W        W51772  13.360  20.718  23.454 -0.2510  0.2875 -0.0607
 8757W        W51773  30.792   9.669  19.419  0.3648 -0.0023 -0.2267
 8758W        W51774   7.405  11.869  25.870 -0.0474  0.0790 -0.4312
 8759W        W51775   0.883  13.603  24.761  0.0916 -0.2726 -0.1473
 8760W        W51776  34.468  13.596  21.545  0.2632 -0.2514  0.1199
 8761W        W51777   4.165  12.821  26.537  0.0134 -0.0645  0.2517
 8762W        W51778  28.916   2.849  26.537 -0.2792  0.2604 -0.0185
 8763W        W51779  11.361  34.771  15.628 -0.0327  0.1460  0.1062
 8764W        W51780  34.249   4.706   5.612  0.1314  0.2834  0.3355
 8765W        W51781  22.380  16.453  14.416  0.0421  0.0769  0.0664
 8766W        W51782  34.238   3.940  25.634  0.1193 -0.0516  0.0281
 8767W        W51783  12.371   8.121  26.570 -0.0317 -0.1051  0.2041
 8768W        W51784   9.435  25.105  26.751 -0.0383  0.3526 -0.0670
 8769W        W51785   5.701  12.038   6.033  0.2706  0.3060  0.0353
 8770W        W51786   6.439  21.444  26.540 -0.1568 -0.1552 -0.1220
 8771W        W51787   5.371  29.018   0.090 -0.2497  0.1177 -0.0271
 8772W        W51788  32.985  15.280   1.156  0.2969 -0.0781 -0.3217
 8773W        W51789   8.445  10.268   9.662  0.0996 -0.3187  0.0386
 8774W        W51790   4.803  16.529  26.737 -0.0910  0.1145 -0.2321
 8775W        W51791  15.191  25.204  23.499 -0.1068  0.1742  0.1010
 8776W        W51792  25.000  14.627  24.518 -0.0507 -0.1941 -0.3504
 8777W        W51793   4.723  15.505   5.325 -0.2982  0.0285 -0.4377
 8778W        W51794  28.559  11.171  22.818  0.1623 -0.3436 -0.1700
 8779W        W51795  15.990  27.249  16.754  0.0874 -0.2069  0.0183
 8780W        W51796   3.392  12.084   2.128  0.4192  0.0380 -0.0027
 8781W        W51797  19.844  10.719   0.012 -0.2200  0.1069  0.2880
 8782W        W51798  33.762   9.262   2.215 -0.2157 -0.4374 -0.0796
 8783W        W51799  13.139  21.757   6.488  0.0382  0.2118 -0.3134
 8784W        W51800   4.732  14.680   7.546  0.1763 -0.1328  0.0233
 8785W        W51801   0.176  33.065  14.226  0.1581 -0.2089 -0.0210
 8786W        W51802  12.645  26.024  22.945  0.0594 -0.0574 -0.1706
 8787W        W51803   5.159  12.342  15.305  0.4872  0.1556 -0.0672
 8788W        W51804   7.609   7.531  14.981  0.2067  0.0192 -0.0449
 8789W        W51805   0.947  21.396  21.514  0.0617  0.0672 -0.2615
 8790W        W51806  32.789   6.235  14.837  0.0999 -0.0841 -0.0015
 8791W        W51807  11.473  11.304  15.106 -0.0720  0.0270  0.1460
 8792W        W51808   7.452   0.982  23.623  0.1464  0.0728 -0.0813
 8793W        W51809   2.394  19.132  25.965 -0.3797 -0.1207  0.1316
 8794W        W51810  27.877   4.203  10.427  0.1796  0.0102 -0.0027
 8795W        W51811   7.521  30.282  24.876  0.1154 -0.0124 -0.1104
 8796W        W51812  29.389  13.649  24.779 -0.1985 -0.1286  0.0787
 8797W        W51813  26.906  17.017   7.119 -0.0291 -0.0332 -0.1526
 8798W        W51814  15.276  16.105  26.517 -0.2144 -0.1201  0.0668
 8799W        W51815   4.738  34.075  23.302 -0.0090 -0.2114  0.2048
 8800W        W51816  33.407  28.449  15.957  0.0682 -0.0412 -0.0397
 8801W        W51817  13.143  13.923  29.226 -0.3675 -0.1106  0.3324
 8802W        W51818  30.730  22.826   7.546  0.0376  0.4092 -0.0851
 8803W        W51819   3.993   1.021   8.855 -0.2494 -0.1239  0.1064
 8804W        W51820  26.211   9.526   6.981 -0.0261 -0.0561 -0.0473
 8805W        W51821  20.001   5.404  28.039 -0.2377 -0.1719  0.0695
 8806W        W51822  12.963  22.528  25.987  0.2442  0.0552  0.0395
 8807W        W51823  15.811   4.443  21.946  0.1149  0.4743  0.1340
 8808W        W51824   4.370  15.869  14.086 -0.4031 -0.3626  0.1284
 8809W        W51825  28.129   9.351  19.444 -0.0457 -0.0671 -0.0283
 8810W        W51826   8.779   4.944   2.730 -0.2044  0.0947 -0.2220
 8811W        W51827  18.380  28.879   2.937 -0.3743 -0.6012 -0.1489
 8812W        W51828  17.697   4.527   0.575 -0.0851  0.0324  0.1529
 8813W        W51829  21.731  26.276  21.206  0.0054 -0.0812 -0.0256
 8814W        W51830  10.660   0.362   1.873  0.0719 -0.1455  0.1247
 8815W        W51831   0.673   6.746  23.329 -0.1139 -0.0967 -0.2563
 8816W        W51832  19.073  12.738  24.188 -0.2035 -0.0556  0.2412
 8817W        W51833   0.772   9.352  14.690 -0.3642 -0.4740 -0.2292
 8818W        W51834   3.300  18.248  14.570  0.1893  0.1382  0.1154
 8819W        W51835  22.210  23.013   8.578  0.2962 -0.0994  0.1467
 8820W        W51836   9.658  20.168   0.928  0.2012  0.1480  0.3872
 8821W        W51837   5.695  12.594  23.826  0.2666  0.0159  0.1990
 8822W        W51838  34.363   5.437  28.401  0.0772  0.1651 -0.1815
 8823W        W51839   2.584  13.163  19.148  0.1397 -0.1005  0.0983
 8824W        W51840  27.953   8.869  22.436 -0.1511  0.5197 -0.2644
 8825W        W51841   8.081  14.502  15.841  0.1105  0.3312  0.0277
 8826W        W51842   4.579  33.693  22.041  0.3295  0.2839  0.1492
 8827W        W51843  33.228   5.576  10.449 -0.1769 -0.0093  0.3859
 8828W        W51844  28.243  10.610  26.178  0.1074 -0.1221  0.1385
 8829W        W51845  18.865  13.872  26.786  0.0510 -0.2536 -0.0750
 8830W        W51846   5.416   1.994  16.535  0.3118  0.3278  0.0566
 8831W        W51847   8.437  13.813   0.891 -0.1474 -0.0827 -0.1796
 8832W        W51848  31.644  25.277   7.770  0.1890  0.4188  0.0658
 8833W        W51849   7.896  12.858  22.287 -0.1421 -0.3513 -0.0592
 8834W        W51850  20.310   7.118   9.606  0.3013 -0.1622  0.2717
 8835W        W51851   3.429  10.283  16.501 -0.2309  0.1819  0.1750
 8836W        W51852   4.427   3.350  26.921  0.2774  0.1415  0.0733
 8837W        W51853  29.733  15.516  27.214 -0.2171 -0.2099 -0.3664
 8838W        W51854  32.130   7.722   2.594 -0.3807  0.1172  0.1876
 8839W        W51855  17.434  23.102   3.010  0.0749 -0.1545  0.0500
 8840W        W51856  20.374   0.201   0.588 -0.3248 -0.4367 -0.0957
 8841W        W51857  27.341  21.720   1.473  0.0877  0.1585  0.3438
 8842W        W51858   0.641  24.127  18.361  0.1619 -0.1750 -0.0511
 8843W        W51859   1.696  16.061   9.689 -0.2309  0.1051  0.0965
 8844W        W51860   4.837   6.601  25.307 -0.3103  0.2540 -0.2366
 8845W        W51861  29.650  17.457   3.991  0.3317 -0.2234  0.0055
 8846W        W51862  33.418   4.671  22.368  0.1500 -0.0287  0.4587
 8847W        W51863   6.466  11.045   1.180  0.1548 -0.0025 -0.0034
 8848W        W51864  24.044   9.913  14.406  0.0767 -0.1907  0.1008
 8849W        W51865  30.641  13.658  15.628  0.0674  0.0352 -0.0279
 8850W        W51866  31.447  13.410   5.715 -0.0445 -0.2849  0.0438
 8851W        W51867  32.562  11.505   2.289  0.4707  0.1087  0.1046
 8852W        W51868  31.131  32.425  25.900  0.2982 -0.1090 -0.1840
 8853W        W51869   4.410  27.946   3.559  0.1742  0.0259  0.1877
 8854W        W51870  11.302   6.485  21.933 -0.2142 -0.0721 -0.0461
 8855W        W51871  34.294  11.436  20.603 -0.0137 -0.1411  0.0137
 8856W        W51872  23.387  11.397   2.312 -0.0050  0.1091 -0.2343
 8857W        W51873  29.908  23.241  23.315  0.0309 -0.1528  0.3138
 8858W        W51874   1.494  10.514   3.432  0.2234 -0.2511  0.2001
 8859W        W51875  29.089  11.433   0.831 -0.2646 -0.2001  0.0069
 8860W        W51876  33.714   0.486  17.384  0.2272 -0.0744  0.1988
 8861W        W51877   4.879  28.361  27.241  0.0246  0.0990  0.0359
 8862W        W51878   8.801  14.541  28.354 -0.0047 -0.1599 -0.0220
 8863W        W51879  18.195  12.308  24.368 -0.0136  0.1416 -0.4382
 8864W        W51880   6.809  14.368  20.962 -0.0853 -0.2861  0.1964
 8865W        W51881  33.401  12.253  21.365  0.1780  0.0212  0.0176
 8866W        W51882   8.007  18.192  24.910  0.0916 -0.4462 -0.0840
 8867W        W51883   9.687  29.232  20.136  0.1922  0.2156  0.0393
 8868W        W51884  22.987   9.579  26.634  0.2003 -0.1881  0.0248
 8869W        W51885  24.831   8.535   1.304 -0.0687  0.2460  0.0399
 8870W        W51886  22.076  19.562  19.494 -0.4192 -0.5640  0.0143
 8871W        W51887  21.361  25.237  16.299  0.1212  0.2514 -0.2923
 8872W        W51888   6.304   2.853   6.521 -0.1223  0.0279 -0.1131
 8873W        W51889   7.507   5.080  28.955 -0.0364 -0.2207 -0.2711
 8874W        W51890   1.744  15.743   1.352 -0.4121 -0.1834 -0.1636
 8875W        W51891  16.201  17.438   4.143 -0.1803  0.1954 -0.3502
 8876W        W51892  31.082  32.941   3.005 -0.2210  0.0751  0.0647
 8877W        W51893   4.223  10.356  24.669 -0.0019  0.2106 -0.0736
 8878W        W51894  15.064  12.570   4.053 -0.2920 -0.1073 -0.2842
 8879W        W51895   8.880   1.429   0.806 -0.2424 -0.4136 -0.1773
 8880W        W51896   1.601   8.757  24.680 -0.1228 -0.2371  0.1716
 8881W        W51897   0.709  27.798  24.764  0.2084  0.0744 -0.0395
 8882W        W51898   9.962   9.721  20.352  0.0741 -0.4286  0.0598
 8883W        W51899   8.289   4.923  28.532  0.0424 -0.1517  0.0034
 8884W        W51900  34.424  14.306   9.878 -0.1356 -0.1734  0.0274
 8885W        W51901   9.037  24.707   2.859  0.0982  0.3869  0.0605
 8886W        W51902  33.497  15.215   2.893  0.1501 -0.0113 -0.1025
 8887W        W51903  27.482  27.364   3.269  0.2571  0.0274  0.1295
 8888W        W51904  17.881   4.911   5.857  0.3274  0.0610 -0.1071
 8889W        W51905   0.717   4.709  24.791  0.2495 -0.1694 -0.3149
 8890W        W51906  34.089  13.106  16.936  0.2017  0.0729  0.0641
 8891W        W51907   9.605   8.718   3.924  0.2384  0.2498 -0.0817
 8892W        W51908   7.281  10.197   2.611 -0.0788  0.0816  0.1707
 8893W        W51909  13.500   8.515  29.053  0.0547 -0.0306  0.1013
 8894W        W51910   6.284   1.035   2.570 -0.2162  0.0425 -0.1646
 8895W        W51911  24.977   9.065   3.027  0.1463 -0.2106 -0.2891
 8896W        W51912  24.830  32.273   7.415 -0.0470 -0.2596  0.4927
 8897W        W51913   0.589  13.361  15.993  0.1809 -0.0274 -0.1159
 8898W        W51914  15.330   6.395  23.958 -0.2256  0.2300 -0.0336
 8899W        W51915   5.720  22.058   7.121  0.1363 -0.0504  0.1254
 8900W        W51916   7.916   8.672  26.916  0.0269 -0.3081 -0.2477
 8901W        W51917   0.872  25.491   1.820  0.3201  0.1697 -0.1792
 8902W        W51918   9.175   8.482  25.507 -0.2426 -0.0238  0.2107
 8903W        W51919  27.161  15.036  23.181  0.1808 -0.0737  0.1356
 8904W        W51920   1.898  33.375   1.870  0.1499 -0.1721  0.1103
 8905W        W51921   4.938  17.562   5.160  0.0417 -0.0517  0.0915
 8906W        W51922  15.575   1.021  26.636  0.1032 -0.2754  0.1305
 8907W        W51923  29.031   9.166   2.386  0.2611 -0.0023 -0.0318
 8908W        W51924  23.158  12.294  27.939  0.1527  0.1279 -0.3358
 8909W        W51925  12.160   1.547   1.340  0.1031  0.0058 -0.1884
 8910W        W51926   0.962  11.908   6.812  0.2107 -0.1459  0.2871
 8911W        W51927  25.484  11.056   1.434 -0.0062 -0.1295  0.0166
 8912W        W51928  28.853  34.097   3.690  0.0419 -0.1206 -0.0783
 8913W        W51929  26.229   0.958   3.579  0.3277  0.2014 -0.0589
 8914W        W51930   3.392   5.214  25.572  0.2575  0.1034  0.0211
 8915W        W51931  29.367   3.869  19.271 -0.2463  0.0448 -0.2418
 8916W        W51932  31.463  12.253  21.524 -0.1342  0.0496  0.2294
 8917W        W51933   0.297   6.199   6.072 -0.2875  0.0933  0.0443
 8918W        W51934  24.220  20.409  27.735 -0.0116  0.2002  0.2445
 8919W        W51935  19.139   2.605  24.273 -0.0703  0.0600 -0.0313
 8920W        W51936   4.490   3.940  26.943 -0.1008 -0.1654  0.0756
 8921W        W51937   5.115  31.943  25.010 -0.1231  0.0862 -0.2466
 8922W        W51938   9.643  16.659  18.492 -0.0214 -0.2710  0.1576
 8923W        W51939   4.328   9.913  18.990 -0.0727  0.3295  0.0818
 8924W        W51940  24.263   4.023  24.484  0.1896  0.3369  0.1594
 8925W        W51941  20.696  15.549  12.629 -0.0297 -0.1453 -0.1832
 8926W        W51942  22.216  34.774  25.725 -0.0755 -0.0136  0.0666
 8927W        W51943  26.700   9.011  24.778  0.1471  0.2356 -0.3630
 8928W        W51944  15.321  15.652  12.189  0.0447  0.0867  0.0776
 8929W        W51945   2.459  26.838  23.830 -0.0710  0.1285 -0.1207
 8930W        W51946   2.300   5.061  18.749  0.3972  0.1401  0.0021
 8931W        W51947   4.593  18.618  16.730  0.0686  0.1358 -0.2481
 8932W        W51948  19.648  24.651  28.553 -0.1412  0.0866  0.1601
 8933W        W51949  31.163  23.276  18.170  0.0622  0.1024  0.0149
 8934W        W51950   4.529  20.445  24.016 -0.0194  0.1502  0.2006
 8935W        W51951  10.100   5.244  16.582  0.1674 -0.4422  0.2212
 8936W        W51952  13.697  11.035  23.009 -0.0783 -0.0758  0.0114
 8937W        W51953   1.013  22.287  22.185 -0.0310 -0.0855 -0.2010
 8938W        W51954  16.906  33.435  17.025 -0.3211  0.0504 -0.1714
 8939W        W51955   4.612  33.760  15.580 -0.2087 -0.2612 -0.0223
 8940W        W51956  26.226   5.271  19.126 -0.0570  0.1045 -0.1933
 8941W        W51957   7.661  10.835  23.124 -0.0861  0.3327  0.4015
 8942W        W51958  12.389  26.914   5.140 -0.2743  0.2367  0.0781
 8943W        W51959  25.624  15.479  17.496  0.1000  0.0593 -0.2911
 8944W        W51960   2.155   3.568  19.536 -0.2643  0.0168  0.1865
 8945W        W51961   6.666   8.411  13.902  0.1840 -0.1246 -0.3330
 8946W        W51962  22.946   4.858   0.963 -0.1608 -0.0655 -0.0553
 8947W        W51963  33.970  15.911  20.400 -0.0519  0.0435  0.2216
 8948W        W51964   9.385  31.709  15.407  0.2039  0.1540 -0.1854
 8949W        W51965   1.790  32.763  23.395 -0.0213  0.4351 -0.3981
 8950W        W51966  16.537  19.865  22.972 -0.0245 -0.0523  0.0015
 8951W        W51967  27.369  29.396  18.883  0.3287 -0.0271  0.1293
 8952W        W51968   8.513  10.725  16.849  0.0470 -0.2398 -0.2473
 8953W        W51969  10.436  21.938  20.317 -0.1434 -0.1659  0.4824
 8954W        W51970   3.596  12.149  16.045 -0.0761  0.0957 -0.5016
 8955W        W51971  30.499  12.330  23.636 -0.0912  0.1327 -0.2317
 8956W        W51972   7.977  24.553  17.902 -0.0617 -0.1009  0.0754
 8957W        W51973  10.508  17.609  27.772 -0.0953  0.0413  0.0025
 8958W        W51974   5.441   7.372  20.562 -0.2386 -0.0771  0.3163
 8959W        W51975   0.987  25.531  16.224  0.1186  0.2737  0.2266
 8960W        W51976  28.970  21.158  25.596 -0.0898 -0.2550 -0.2882
 8961W        W51977  30.524  16.478   3.960 -0.0179  0.1062  0.1210
 8962W        W51978   2.270  21.099  14.501 -0.1231 -0.0355  0.3881
 8963W        W51979   5.872  10.156  17.160  0.1493 -0.1593 -0.1323
 8964W        W51980  17.971  16.346  26.485  0.1247  0.0630 -0.1873
 8965W        W51981  31.546   1.277  19.007 -0.2033 -0.0291  0.2871
 8966W        W51982  30.836  16.129  18.944  0.1126 -0.2287  0.2840
 8967W        W51983   3.223   4.388  21.467  0.0355  0.2776 -0.2885
 8968W        W51984  30.085   6.232  17.652 -0.0571  0.4453 -0.0925
 8969W        W51985   0.791  32.914  24.575  0.0263  0.0310  0.2787
 8970W        W51986  30.223  13.791   8.328  0.0228 -0.2017  0.1997
 8971W        W51987  30.468  34.222  18.955 -0.0393  0.1394  0.2376
 8972W        W51988   2.309  18.696  25.552  0.1383  0.2614 -0.0071
 8973W        W51989  18.440   1.127  23.704  0.0548 -0.0631 -0.0718
 8974W        W51990   9.827   5.896  10.407  0.0675  0.1773  0.0331
 8975W        W51991   9.033  11.089   8.635 -0.1066 -0.3127  0.1151
 8976W        W51992  22.641  23.324  23.716  0.0880  0.0456 -0.4678
 8977W        W51993  34.523   4.429  17.093  0.0652  0.0735 -0.0131
 8978W        W51994  20.136   9.833  19.690 -0.1566  0.0434 -0.0387
 8979W        W51995   4.141  12.374  13.893  0.3458 -0.0550 -0.0895
 8980W        W51996  13.292  21.779  17.545  0.2086  0.1888  0.1698
 8981W        W51997   4.863   3.437  20.148 -0.2930  0.0087 -0.0312
 8982W        W51998   0.859  14.647  23.249  0.1117 -0.0102 -0.0213
 8983W        W51999   1.599  12.032  14.640  0.1030 -0.1731  0.2198
 8984W        W52000  34.485  16.499  16.323  0.1392 -0.1302 -0.1421
 8985W        W52001   5.501  17.556  14.489 -0.0482  0.0267  0.0375
 8986W        W52002  11.393  10.447  14.202  0.2707 -0.0284 -0.0391
 8987W        W52003   0.975   0.254  18.072  0.0237 -0.0158  0.1620
 8988W        W52004   6.861  11.700  23.151  0.0200  0.1419 -0.1990
 8989W        W52005  22.911  22.092  18.675 -0.5411  0.0619 -0.0011
 8990W        W52006  24.659  27.946  23.784 -0.0532 -0.2013  0.1982
 8991W        W52007  11.661   2.569  27.709 -0.0524 -0.0283 -0.1536
 8992W        W52008   4.042   6.540  16.504 -0.1540 -0.1837 -0.0126
 8993W        W52009   9.923  18.970  13.901 -0.0203 -0.3782  0.2856
 8994W        W52010   2.756   9.259  20.614 -0.0797 -0.1601  0.2966
 8995W        W52011  13.454  25.304  24.850  0.1499  0.3033 -0.0139
 8996W        W52012  28.731  32.447  15.971 -0.1730 -0.1037  0.1935
 8997W        W52013   1.786  28.294   0.235 -0.0722 -0.0512  0.1873
 8998W        W52014  32.842  13.937   1.825  0.2379  0.1744  0.0193
 8999W        W52015  33.097   8.765   8.322  0.2759 -0.0469  0.1002
 9000W        W52016  29.252   4.374   2.555 -0.1480  0.0224 -0.0510
 9001W        W52017   9.296  20.403  22.270  0.0733 -0.0378  0.1491
 9002W        W52018  18.847   0.163  24.907 -0.3113 -0.1352  0.2903
 9003W        W52019  13.685   1.897  18.765  0.3264  0.5931  0.0196
 9004W        W52020   5.528  21.963  15.036 -0.0876  0.0882 -0.0109
 9005W        W52021  31.782  19.123  18.128  0.0678 -0.0125  0.0957
 9006W        W52022  33.087  27.594  25.315  0.1272 -0.0956  0.2908
 9007W        W52023   0.431   4.893  15.306  0.3930  0.1238 -0.1111
 9008W        W52024  16.013  14.919  21.921 -0.1927 -0.0450  0.1451
 9009W        W52025   9.608  18.426  24.999 -0.0095 -0.1245  0.1588
 9010W        W52026   6.033   9.326  14.901  0.2055  0.0498 -0.0594
 9011W        W52027   5.884  23.016  21.211 -0.0418  0.0044 -0.1749
 9012W        W52028   1.075   1.382  16.720 -0.2389  0.0137 -0.0507
 9013W        W52029  29.245  33.926  21.827 -0.0269 -0.2253  0.1274
 9014W        W52030  12.174   4.744  28.275 -0.1648 -0.2312 -0.1728
 9015W        W52031   3.473  25.776  23.090 -0.0306 -0.1284  0.0334
 9016W        W52032   3.787   1.056  24.015  0.3869 -0.2932 -0.1320
 9017W        W52033  10.199  12.794  17.167  0.2165 -0.1274  0.0139
 9018W        W52034   6.062  20.328  26.659 -0.0827 -0.1383  0.4716
 9019W        W52035  11.130   3.473  21.257  0.2301 -0.2848 -0.2362
 9020W        W52036  24.804   6.875  24.482  0.2854 -0.1661 -0.4017
 9021W        W52037   8.473  25.061  23.850 -0.3225 -0.3096 -0.6811
 9022W        W52038  16.614  16.675  16.810 -0.1807 -0.1809  0.0456
 9023W        W52039  11.794  20.589  22.681 -0.1789  0.0207 -0.3329
 9024W        W52040  20.758  20.100  16.780  0.0407  0.0617  0.1813
 9025W        W52041  31.228  16.376  19.110  0.0906  0.0114 -0.1118
 9026W        W52042   0.694  18.258  17.990  0.3301  0.2551  0.0475
 9027W        W52043  31.915  32.317   0.904 -0.1170 -0.2229 -0.0379
 9028W        W52044  22.713   1.116  17.337 -0.2028  0.0388  0.2956
 9029W        W52045  12.858   0.316  14.850 -0.1025  0.4148  0.1836
 9030W        W52046  11.512  19.737  22.284  0.0227  0.2064  0.1435
 9031W        W52047   4.692  14.915  26.709  0.1229 -0.1175  0.0490
 9032W        W52048   1.824  16.353  15.683 -0.1582 -0.0212 -0.1096
 9033W        W52049  32.245  11.153  27.849  0.1666 -0.0850  0.2266
 9034W        W52050   0.010   6.946  19.170  0.1114  0.0098 -0.0603
 9035W        W52051  10.204  19.840  15.070 -0.0970 -0.0350  0.0374
 9036W        W52052  28.807   1.527  19.522  0.1902 -0.2607  0.1559
 9037W        W52053   8.082  16.582  16.219 -0.0822  0.0520 -0.0138
 9038W        W52054  25.212   6.759  25.631 -0.1684 -0.0840  0.0857
 9039W        W52055  17.902   5.800  28.656 -0.0609 -0.0764 -0.0476
 9040W        W52056  31.834  12.519  21.736 -0.0388 -0.0114 -0.0637
 9041W        W52057  25.309  16.176  18.198  0.1098 -0.2058 -0.0340
 9042W        W52058   6.455   9.660  18.409  0.0033 -0.3407 -0.2002
 9043W        W52059  10.372   3.130  18.663  0.0491  0.1498 -0.2613
 9044W        W52060   1.873  16.547  16.686 -0.1579 -0.0277  0.0549
 9045W        W52061  16.374  13.302  11.615 -0.2988  0.0334  0.2401
 9046W        W52062   8.519  16.090  21.601  0.0111 -0.5505  0.3057
 9047W        W52063   6.069  14.631  22.887  0.1151  0.1535 -0.1193
 9048W        W52064   7.385  28.275  21.739 -0.1353 -0.3443 -0.0949
 9049W        W52065  16.619  19.994  27.576  0.1670 -0.1252 -0.0599
 9050W        W52066   0.026  14.147   3.325 -0.2196  0.0574  0.0729
 9051W        W52067   6.984  31.934  17.255 -0.1478 -0.1488 -0.0785
 9052W        W52068  26.396  19.950  14.977 -0.0585 -0.1509 -0.2127
 9053W        W52069  27.051   8.188  15.693 -0.1104 -0.1166 -0.1508
 9054W        W52070   2.864  10.143  21.062 -0.2563  0.1120  0.3340
 9055W        W52071  29.472   0.470  24.876  0.0917 -0.2275 -0.1586
 9056W        W52072  27.827  17.407   0.498 -0.1775 -0.1753  0.1842
 9057W        W52073  26.916   4.889  19.637  0.0026 -0.2584 -0.1234
 9058W        W52074   2.367  17.589  16.592 -0.2474  0.1630  0.3053
 9059W        W52075  26.353   0.560  20.309 -0.2333 -0.0839  0.1557
 9060W        W52076   1.543   8.159  27.957 -0.3933 -0.3289 -0.2393
 9061W        W52077  22.976  15.003   4.295  0.2760  0.1669  0.2354
 9062W        W52078  12.846   3.113  27.999 -0.2677  0.1924  0.0036
 9063W        W52079  13.621   6.226   0.057  0.0737  0.2349  0.3624
 9064W        W52080  20.227  10.706  29.030  0.1750 -0.3907  0.0601
 9065W        W52081   2.456  24.889  19.834  0.2219 -0.0009 -0.1292
 9066W        W52082  18.481  29.504   8.640 -0.1682  0.1398  0.3257
 9067W        W52083  10.190   4.204  23.375 -0.1818  0.1484  0.1670
 9068W        W52084   9.373  18.761  22.042  0.2539  0.1880  0.0361
 9069W        W52085   1.554  20.021  22.630  0.1214 -0.2691  0.1175
 9070W        W52086  34.529  15.480  21.999 -0.2491  0.1235 -0.1304
 9071W        W52087   4.965  15.891  25.765  0.0529  0.0527  0.2690
 9072W        W52088  19.948  16.086  22.349  0.0714 -0.1678  0.2862
 9073W        W52089  30.410  14.040  15.911  0.0821 -0.2747 -0.3467
 9074W        W52090   2.811   6.728  16.082 -0.0566  0.0250  0.0158
 9075W        W52091  29.535   6.650  23.879 -0.0558 -0.3945  0.2680
 9076W        W52092  32.332   3.101  17.040  0.3763  0.1676 -0.1868
 9077W        W52093  19.864  32.182  28.237 -0.4346  0.0256 -0.0507
 9078W        W52094  34.521   6.901   3.659 -0.2514 -0.0831 -0.3776
 9079W        W52095   1.930  11.673  19.928  0.3184  0.0014 -0.1229
 9080W        W52096  21.167   2.526  15.492 -0.1204 -0.2337  0.2405
 9081W        W52097  30.378  14.619  25.508  0.3718 -0.0585 -0.0580
 9082W        W52098   2.701  16.127  21.638  0.0048 -0.0831 -0.2552
 9083W        W52099   1.192   4.666  19.242  0.0208 -0.1111 -0.2721
 9084W        W52100   3.660  12.380  16.545 -0.0455 -0.2039 -0.1576
 9085W        W52101  28.941  11.693  25.611  0.0883 -0.0138 -0.0113
 9086W        W52102   6.010  11.091  26.500  0.0545 -0.2664  0.0460
 9087W        W52103  29.536   9.424  21.928 -0.0659  0.3384 -0.2543
 9088W        W52104  20.039  33.392  20.922 -0.0879 -0.1564 -0.0552
 9089W        W52105   5.132  17.673  16.211 -0.1256  0.1224  0.3649
 9090W        W52106   4.857  15.068   7.827 -0.1198 -0.1757  0.0019
 9091W        W52107   3.727   9.508  20.331  0.1050 -0.1797 -0.1316
 9092W        W52108   7.936  20.269  17.044 -0.2785  0.1394 -0.3356
 9093W        W52109   6.609   8.409  14.530  0.0442 -0.1000  0.0003
 9094W        W52110   6.589   9.601  19.273 -0.0678 -0.0758  0.0421
 9095W        W52111   6.509  22.658  22.307  0.1180  0.1093  0.1477
 9096W        W52112   3.103   7.244  18.108  0.1652 -0.1702 -0.1166
 9097W        W52113   5.690  11.006  20.874  0.0188  0.0359 -0.2322
 9098W        W52114  27.306  23.375  16.691 -0.1270  0.0892  0.0843
 9099W        W52115   8.788  27.930  22.112  0.0102  0.0622  0.3723
 9100W        W52116   8.024  23.656  20.182  0.0651 -0.1664 -0.1458
 9101W        W52117   4.815   6.557  16.368  0.1220 -0.2028  0.1362
 9102W        W52118   6.182  30.406  24.439  0.1324 -0.2115  0.0138
 9103W        W52119   0.113  11.470  19.097  0.1489 -0.1980 -0.2239
 9104W        W52120  18.417  11.856  24.220 -0.0481  0.0717 -0.2093
 9105W        W52121  26.257   3.154  25.829  0.4491 -0.2812 -0.0599
 9106W        W52122  10.620  10.814  24.345  0.0130  0.0124 -0.0059
 9107W        W52123  32.609  19.218  21.402 -0.1207  0.0877  0.0395
 9108W        W52124   6.750  11.589  16.992  0.0614  0.3298  0.1531
 9109W        W52125   6.775  15.464  17.256  0.0771 -0.1822  0.0146
 9110W        W52126   0.885  15.764  15.474 -0.0692 -0.0644 -0.1566
 9111W        W52127  28.840   8.182  18.917  0.0948  0.1127 -0.1109
 9112W        W52128  31.806   1.889  15.705 -0.1263  0.1018 -0.2033
 9113W        W52129  28.429   5.199  23.070  0.0456  0.1781 -0.1284
 9114W        W52130   9.571  16.935  15.467  0.0493  0.1081  0.0392
 9115W        W52131  25.696   8.940  15.489  0.2052  0.0040 -0.4638
 9116W        W52132  15.251   3.108  16.132  0.0837 -0.0410 -0.1014
 9117W        W52133   2.030  21.191  20.653  0.1801  0.0257  0.1362
 9118W        W52134   4.193   2.331  25.868  0.1068 -0.3978 -0.2400
 9119W        W52135   4.539  13.455  22.878  0.2070 -0.1826 -0.1308
 9120W        W52136   6.361  13.841  26.656 -0.2446  0.0314 -0.0196
 9121W        W52137  18.452  13.808   2.154 -0.1048 -0.3399 -0.2060
 9122W        W52138   1.437  14.777  21.003  0.1063  0.1762  0.0166
 9123W        W52139   3.025   9.869  19.102 -0.0425  0.1353  0.0249
 9124W        W52140  33.034  21.497  24.094  0.2427 -0.1869  0.1419
 9125W        W52141  18.070  14.633  13.747  0.0591  0.0681 -0.1497
 9126W        W52142   6.655   7.224  17.323  0.3375 -0.0168 -0.0947
 9127W        W52143  10.043  26.505  25.698 -0.3861 -0.1145 -0.0710
 9128W        W52144   3.381   7.649  15.489  0.2598  0.0691  0.3159
 9129W        W52145  14.169   0.531   1.128 -0.0172  0.2890 -0.0232
 9130W        W52146  27.938   6.702  21.448 -0.0488 -0.0052 -0.1764
 9131W        W52147   5.134  20.044  15.826  0.1008  0.1207  0.2039
 9132W        W52148  22.768   3.334  18.000  0.2484  0.3278  0.0661
 9133W        W52149   0.626   9.631  15.087  0.2553 -0.0948  0.0793
 9134W        W52150  32.432  32.348  18.000  0.0948  0.4031  0.1043
 9135W        W52151   0.660  16.666  15.700  0.1298  0.1884  0.0197
 9136W        W52152  11.294  10.675  18.827  0.2943  0.1122  0.0814
 9137W        W52153   0.728  19.444  19.664 -0.2713  0.1271  0.1891
 9138W        W52154  22.221  20.264  28.736 -0.0015 -0.2558  0.1561
 9139W        W52155   5.049  21.892  19.442 -0.2022 -0.1602  0.3458
 9140W        W52156   4.270  15.603  18.113  0.1534  0.2444 -0.0478
 9141W        W52157  18.932   1.171  21.223  0.1064  0.2451  0.0010
 9142W        W52158  12.323  23.284  16.311 -0.0892  0.2499 -0.0037
 9143W        W52159   3.316  31.245  14.879 -0.0903 -0.2209  0.2452
 9144W        W52160  25.212  10.166  23.523  0.0781 -0.0120  0.0524
 9145W        W52161   0.615  29.158  24.472 -0.1925 -0.0343 -0.1991
 9146W        W52162   0.069  20.113  14.270 -0.1379 -0.0602 -0.4349
 9147W        W52163   4.299   6.409   1.198 -0.0960  0.0919  0.0406
 9148W        W52164   4.481   3.377  16.436  0.0120  0.0923  0.0382
 9149W        W52165  11.420   8.262  24.425  0.2259 -0.1586 -0.0186
 9150W        W52166  30.545  17.952   0.512  0.3171  0.3152  0.1781
 9151W        W52167  33.032  14.538  14.317 -0.1222 -0.0857 -0.0609
 9152W        W52168  23.643  30.993  26.304  0.0078 -0.0045 -0.0156
 9153W        W52169   2.575  20.099  24.841 -0.1146 -0.0091 -0.0441
 9154W        W52170   6.067  12.415  17.898  0.2073 -0.0041  0.2570
 9155W        W52171  20.802   9.566  18.494  0.1320  0.1120 -0.1514
 9156W        W52172   6.774  14.589  18.731  0.0525 -0.0060 -0.1758
 9157W        W52173   7.007  33.022  16.620 -0.2352  0.1677  0.0298
 9158W        W52174   3.287  12.666  16.211 -0.2874 -0.0279 -0.1450
 9159W        W52175  10.859  16.373  15.445  0.2172 -0.1359  0.1203
 9160W        W52176  10.036  10.886  18.698 -0.1094  0.3003  0.1841
 9161W        W52177   6.096  19.469  13.447  0.3486 -0.0655 -0.2296
 9162W        W52178  33.120  27.604  16.208 -0.2410 -0.1964  0.0187
 9163W        W52179  29.418  25.162  19.719 -0.0121  0.1304  0.2117
 9164W        W52180   0.570   1.103  14.958  0.2125 -0.1218  0.3110
 9165W        W52181   3.150  15.713  25.388  0.0376  0.1851  0.1255
 9166W        W52182   9.864  19.076  24.310 -0.3720  0.0160  0.1632
 9167W        W52183  30.421   0.250  16.383  0.3224 -0.0789 -0.0361
 9168W        W52184  25.881   8.907  19.480  0.1715 -0.3190  0.0604
 9169W        W52185  15.233  19.140   0.433 -0.1544 -0.1001 -0.1883
 9170W        W52186   8.599  22.577   2.436 -0.1836  0.2229 -0.0298
 9171W        W52187   0.349   7.946   2.577  0.0527  0.2048  0.1602
 9172W        W52188   5.663  10.242  14.906 -0.0211 -0.6048  0.1624
 9173W        W52189  19.862  28.938  14.818  0.1865  0.0943  0.0783
 9174W        W52190   2.111  14.409  15.559  0.0822 -0.2971 -0.0255
 9175W        W52191  30.532   4.917  17.418  0.1144  0.4149 -0.1599
 9176W        W52192  19.185   0.974  23.424 -0.1081  0.1071  0.0043
 9177W        W52193  24.027  10.591  29.315 -0.1619 -0.2912  0.0829
 9178W        W52194   6.107  19.993  21.999 -0.2760  0.0956  0.3277
 9179W        W52195  32.269  33.918  21.425  0.1990  0.4125  0.1743
 9180W        W52196   0.345   1.773  18.353  0.1070 -0.1418  0.1412
 9181W        W52197   7.152  19.460  24.431 -0.2692 -0.3586 -0.0892
 9182W        W52198   4.840  16.036  17.914 -0.3614  0.3702 -0.3100
 9183W        W52199  28.717  10.524  25.667  0.1273  0.1148  0.0459
 9184W        W52200   0.952  23.029  25.507 -0.2547 -0.0585  0.1774
 9185W        W52201   4.366   1.286  14.800  0.1164  0.1220 -0.1932
 9186W        W52202  30.235  19.540   5.023  0.0143 -0.0926  0.1810
 9187W        W52203  24.365  13.796  16.626  0.1264  0.1372 -0.3115
 9188W        W52204  17.768  31.630  25.506 -0.1107 -0.0935 -0.0808
 9189W        W52205   0.846  17.978  15.839 -0.2400  0.0144  0.0285
 9190W        W52206   4.522  15.616  25.029 -0.1680  0.1443 -0.2616
 9191W        W52207  33.027  31.154  15.235 -0.0530 -0.1803 -0.1471
 9192W        W52208   4.006  13.258  27.306  0.0276 -0.1738  0.0767
 9193W        W52209  23.796   6.184  15.686 -0.0115  0.1615 -0.0528
 9194W        W52210  31.723  19.620   4.397 -0.1369  0.1661  0.3339
 9195W        W52211  31.908   6.339  20.717  0.2247  0.1332 -0.0253
 9196W        W52212  12.976  28.534  24.736  0.3494  0.3229  0.0185
 9197W        W52213  33.385  24.879  16.344 -0.0798  0.2130 -0.1739
 9198W        W52214  30.380  11.660  18.865 -0.0832 -0.2235  0.2587
 9199W        W52215  24.372  12.491  16.147  0.0214 -0.0770 -0.1857
 9200W        W52216   0.053   7.806   0.340  0.3384  0.0837 -0.0104
 9201W        W52217  12.744   9.109  24.823 -0.2401 -0.2475  0.0247
 9202W        W52218  14.249   4.744  20.433 -0.1378 -0.2686  0.0847
 9203W        W52219  32.683  34.330  22.778 -0.2887  0.1647  0.0921
 9204W        W52220   0.519  12.041  20.290  0.1264 -0.1491 -0.1860
 9205W        W52221  14.547  31.059  16.053 -0.0081 -0.0282  0.1364
 9206W        W52222  10.349  14.004  24.439 -0.0630  0.3224  0.0344
 9207W        W52223  25.295   2.007  19.887  0.1028 -0.1660  0.1175
 9208W        W52224  21.805   7.705  19.831 -0.1881 -0.0277  0.1610
 9209W        W52225   2.071   4.990  14.640  0.1619 -0.2345 -0.0002
 9210W        W52226   3.809  13.348  26.694  0.3697 -0.1748  0.1286
 9211W        W52227  29.916  23.055  24.543  0.0457 -0.1685 -0.2618
 9212W        W52228   3.379  33.107  19.827 -0.1218  0.1376  0.1135
 9213W        W52229  34.233  32.561  15.866  0.1753 -0.2574  0.1058
 9214W        W52230  27.829  15.117   2.589  0.0272 -0.2720  0.0895
 9215W        W52231   1.245  27.317  19.117  0.0788 -0.2547 -0.1056
 9216W        W52232   1.004  14.733  17.949 -0.1749  0.2897 -0.2176
 9217W        W52233   8.158  33.646  18.870 -0.0317 -0.0613 -0.1847
 9218W        W52234  31.288   6.897  18.739 -0.1268  0.0218 -0.1048
 9219W        W52235  26.914  12.038  16.567 -0.1607  0.0298 -0.0467
 9220W        W52236   3.618   1.881  20.508  0.1217 -0.1763 -0.0388
 9221W        W52237  18.768  31.215  15.934  0.0754  0.2024 -0.0660
 9222W        W52238  33.922  25.762  14.818 -0.1093  0.1052  0.2297
 9223W        W52239  18.329  13.732  13.922 -0.0226  0.0688 -0.2228
 9224W        W52240  29.317  16.378  22.322 -0.3692 -0.0091 -0.0694
 9225W        W52241   7.325  22.762  14.988  0.0997  0.1362  0.1740
 9226W        W52242  32.672  29.975  26.113 -0.0739 -0.0108  0.1590
 9227W        W52243  28.991   6.526  18.498  0.0709 -0.3672  0.2510
 9228W        W52244  33.841  17.944  22.649 -0.1299 -0.2076 -0.3574
 9229W        W52245   3.154   2.013  20.693  0.1423 -0.3741 -0.1733
 9230W        W52246  17.424  13.547  26.734  0.2572  0.3427 -0.1592
 9231W        W52247  25.867   8.454  19.325  0.0067  0.1836  0.0229
 9232W        W52248   7.597   2.955  15.351  0.0418  0.0883  0.0458
 9233W        W52249   3.377  17.530  16.616 -0.1207  0.0017  0.0873
 9234W        W52250   2.918  22.753  27.818 -0.0242 -0.0542  0.0972
 9235W        W52251  25.822  32.655  20.714 -0.0219 -0.1906 -0.1604
 9236W        W52252  11.394   8.603  23.775  0.0469  0.0384 -0.2593
 9237W        W52253   4.644  11.180  14.197  0.1015 -0.0537 -0.3844
 9238W        W52254  14.738   7.930  25.610 -0.0788  0.1737 -0.1678
 9239W        W52255  27.915   3.667  14.773 -0.0419 -0.1599  0.4507
 9240W        W52256   5.213  23.576  18.523 -0.0786  0.3585 -0.1568
 9241W        W52257   0.221  34.704  14.445  0.3219  0.0868 -0.0039
 9242W        W52258  34.317  30.179  16.257  0.1750  0.2278  0.1834
 9243W        W52259   4.932  19.000  18.112  0.3531 -0.1130  0.0842
 9244W        W52260   1.290   9.838  28.364  0.1848 -0.2096  0.1505
 9245W        W52261   6.501  16.991  17.559 -0.2289 -0.1438  0.0896
 9246W        W52262   9.540  10.057  28.337 -0.3083  0.3437  0.1716
 9247W        W52263  29.826  18.176   1.123 -0.2444  0.0609  0.0313
 9248W        W52264  21.111   9.124  22.946 -0.0730 -0.0403  0.1961
 9249W        W52265  22.258  10.634  15.943 -0.3029  0.0987 -0.0411
 9250W        W52266   2.746  13.182  21.658  0.1754  0.1821 -0.0294
 9251W        W52267  12.418   5.943  24.292  0.0703 -0.0553 -0.2758
 9252W        W52268  13.351  23.716  14.370 -0.0711 -0.0335 -0.1095
 9253W        W52269   7.481  33.776  15.425  0.2614 -0.2333  0.0311
 9254W        W52270  33.901  21.836  21.214 -0.0421 -0.1901 -0.1944
 9255W        W52271  26.542  26.668  21.670  0.0438  0.0507 -0.0369
 9256W        W52272  32.850  17.227  24.705 -0.0383  0.0260  0.2141
 9257W        W52273  34.354   4.022  17.293  0.2157  0.0096  0.2565
 9258W        W52274  13.015   6.312  14.953  0.4241 -0.0017 -0.0803
 9259W        W52275   1.527  11.886  16.066 -0.0127 -0.1432  0.1989
 9260W        W52276  33.612   3.990  20.438  0.0659  0.1102  0.1638
 9261W        W52277  26.234  16.376  18.135  0.2095 -0.1277 -0.1957
 9262W        W52278   3.054   6.801  16.536  0.1237 -0.1107 -0.2223
 9263W        W52279   7.305   8.215  18.424  0.1312 -0.0504  0.3055
 9264W        W52280  10.578  11.364  21.529  0.3224 -0.0885  0.0057
 9265W        W52281  32.227  19.536  23.995  0.1121 -0.0494 -0.2369
 9266W        W52282  33.060  31.139  26.168 -0.1417 -0.0371  0.1497
 9267W        W52283   0.599  26.006  24.029  0.0302 -0.3658  0.0144
 9268W        W52284   8.508   3.721  18.311 -0.2057  0.1357 -0.2837
 9269W        W52285  32.452  14.849  19.924 -0.0910 -0.3482  0.1120
 9270W        W52286  10.014  24.652   3.108  0.0241  0.5258  0.1413
 9271W        W52287   0.687  16.672  19.927  0.0321  0.1432  0.1914
 9272W        W52288  20.938  25.555  20.947  0.1184  0.0368  0.1360
 9273W        W52289  31.154  11.706   3.746  0.0097  0.0347  0.1801
 9274W        W52290  17.179  17.554  11.463  0.0197 -0.2945  0.1641
 9275W        W52291  24.714   5.293  15.739  0.0359  0.0604  0.3276
 9276W        W52292  32.503   5.865  15.043  0.1179 -0.0009 -0.3092
 9277W        W52293  29.729  31.248  19.673  0.1129  0.0936 -0.2370
 9278W        W52294   6.749  19.220  23.945 -0.0911  0.1397  0.0728
 9279W        W52295   3.521  22.463   8.573  0.0116 -0.2239 -0.1576
 9280W        W52296  33.877  12.605  17.707 -0.1744  0.2667 -0.0953
 9281W        W52297  28.061   1.814  26.268 -0.0810  0.2074 -0.0892
 9282W        W52298   1.250  31.741   6.645  0.2629  0.0262 -0.1056
 9283W        W52299  24.916  29.582  18.918  0.4137 -0.1307  0.1763
 9284W        W52300   9.140  17.386  15.713  0.1282 -0.1112  0.1496
 9285W        W52301  17.401  24.683  24.418 -0.0627  0.3546 -0.2173
 9286W        W52302   7.894  17.064  14.382 -0.0237  0.0891  0.1247
 9287W        W52303  30.468  21.979  17.387  0.2056 -0.1066 -0.0808
 9288W        W52304   9.719   2.176  18.098 -0.0092  0.3488 -0.2815
 9289W        W52305  27.396  10.969  17.412  0.0920 -0.1802 -0.3423
 9290W        W52306  19.717  12.767  22.782 -0.3591 -0.0111  0.4688
 9291W        W52307  34.152  15.845  23.446 -0.0182 -0.1628 -0.1044
 9292W        W52308  29.399   6.460  28.493  0.1275  0.2006  0.2154
 9293W        W52309   4.230  20.673  15.001 -0.0100  0.0290  0.0124
 9294W        W52310   3.199   3.604   0.513  0.1203  0.3099  0.4362
 9295W        W52311  30.294  18.806  27.870 -0.1055 -0.0350  0.1188
 9296W        W52312  21.971   6.056  18.479 -0.1754 -0.1242 -0.1031
 9297W        W52313  33.784  16.913  24.133 -0.0492 -0.2580 -0.0299
 9298W        W52314   3.869  18.787  18.480 -0.0792  0.2852 -0.0782
 9299W        W52315   0.423  11.368  22.034  0.2438 -0.1771 -0.0646
 9300W        W52316  16.228  30.806  28.145 -0.1210 -0.0562  0.0013
 9301W        W52317   0.968  27.156  26.482  0.0029 -0.1051  0.4166
 9302W        W52318  11.538  22.625  15.511  0.0809  0.1958  0.3353
 9303W        W52319  21.320  16.799   0.874 -0.2460  0.0623  0.3194
 9304W        W52320  10.122  25.456  17.526 -0.1725 -0.1658  0.2624
 9305W        W52321  25.992  34.625  24.191  0.0017  0.0373  0.0089
 9306W        W52322  28.020   4.477   0.623  0.1453 -0.1076  0.1907
 9307W        W52323   4.371  14.033  15.636 -0.0231  0.1913  0.2617
 9308W        W52324   3.868  32.465   1.322  0.1673 -0.3067 -0.0641
 9309W        W52325  34.021   4.159  26.520  0.1175 -0.0871  0.2413
 9310W        W52326  31.957  19.434  17.773  0.1525 -0.2324  0.0914
 9311W        W52327   5.578  27.732  20.621  0.1479  0.0256 -0.0622
 9312W        W52328  15.314   6.056  24.271 -0.0589  0.4706  0.0514
 9313W        W52329   4.655  10.198  21.632 -0.0384 -0.0998  0.3413
 9314W        W52330   5.622   4.043  17.286 -0.0237 -0.1747 -0.0645
 9315W        W52331  28.613   0.063  17.067  0.2464 -0.4669  0.1850
 9316W        W52332  27.536   0.676  27.496 -0.2520  0.1640  0.4631
 9317W        W52333  30.702  28.278  17.379  0.1480 -0.0161 -0.0795
 9318W        W52334   2.930  21.972  28.510 -0.0445  0.2673  0.1062
 9319W        W52335  21.997  29.986  15.853 -0.1607 -0.2497 -0.0455
 9320W        W52336  10.320  17.642   3.773 -0.0755  0.1922  0.0043
 9321W        W52337  18.249   7.950  20.766  0.3997  0.1552 -0.0834
 9322W        W52338  10.512  15.615  23.642 -0.0739 -0.1556 -0.1633
 9323W        W52339   2.831   4.697   2.006 -0.0333  0.2244  0.0745
 9324W        W52340   8.125  11.129  19.603 -0.2487 -0.0768  0.0179
 9325W        W52341  24.724  11.996   8.870  0.0456  0.0094  0.2660
 9326W        W52342  14.575  27.026   2.531 -0.1075 -0.1307  0.2501
 9327W        W52343  15.039   7.807  24.114  0.2122 -0.3371  0.1993
 9328W        W52344   8.649  11.154  16.593 -0.0192  0.0944  0.1641
 9329W        W52345  12.747   4.567  23.614 -0.2000 -0.0986 -0.0751
 9330W        W52346   6.941   6.271  28.444 -0.1085  0.0204  0.1960
 9331W        W52347  34.692  14.190  16.206  0.0760  0.1855  0.0818
 9332W        W52348  33.453   0.523  18.230 -0.0460  0.1388  0.1044
 9333W        W52349   6.783   7.351  24.602  0.3237 -0.1203  0.0655
 9334W        W52350  13.651   6.955  23.067 -0.0994 -0.0063  0.4262
 9335W        W52351   9.008  10.017  27.513  0.1484 -0.3481  0.3432
 9336W        W52352  33.859  15.565  15.705 -0.1639 -0.2469 -0.1407
 9337W        W52353  31.155   5.620  18.457  0.0855 -0.0845  0.2174
 9338W        W52354  32.364  31.641  20.201 -0.1306 -0.0398 -0.1269
 9339W        W52355  11.374  33.853  23.641  0.4036  0.1842 -0.1393
 9340W        W52356  27.174   5.599  16.662  0.2369 -0.0242 -0.3027
 9341W        W52357   2.942  18.910  21.020 -0.4082  0.1897  0.0586
 9342W        W52358  11.239  17.410  23.680 -0.0752 -0.3473  0.0220
 9343W        W52359  18.940  12.243  16.057 -0.0226 -0.0328 -0.1106
 9344W        W52360  30.925  18.108  15.833 -0.0242 -0.0059 -0.2069
 9345W        W52361  14.238  32.306  17.029  0.0142 -0.0195  0.0662
 9346W        W52362   3.730  28.759   5.032 -0.0631  0.2013 -0.2085
 9347W        W52363  17.619  17.195   1.912  0.0440 -0.1323  0.1928
 9348W        W52364  16.875   2.042  24.972 -0.2058  0.2707  0.1211
 9349W        W52365  13.494   2.715  21.123 -0.1069 -0.4148  0.1783
 9350W        W52366  32.496  33.472  18.727 -0.0083  0.1118 -0.1376
 9351W        W52367  16.391  13.211  13.985 -0.1309 -0.0960 -0.1309
 9352W        W52368  33.361  34.142  17.817 -0.0908  0.0726 -0.4834
 9353W        W52369  12.094  10.094  15.354  0.0010  0.0515  0.1699
 9354W        W52370  26.289   3.402  23.057  0.1554 -0.0790  0.1141
 9355W        W52371   6.462  19.094  21.032 -0.0561 -0.1386 -0.3422
 9356W        W52372  34.074  31.786  17.546  0.0362  0.0321 -0.0567
 9357W        W52373  31.603   9.070  24.705  0.1369  0.0175  0.0674
 9358W        W52374   5.055  13.398  26.407  0.1755 -0.0556 -0.0012
 9359W        W52375   2.088  13.405  15.352  0.1824  0.0293 -0.2137
 9360W        W52376   5.300  12.942   4.063 -0.3464  0.0418  0.1257
 9361W        W52377  15.607  27.260   1.730  0.1313 -0.1643 -0.0017
 9362W        W52378  13.258  34.482  16.779 -0.1870  0.1825  0.1525
 9363W        W52379  26.864  20.806  15.399 -0.3385 -0.0900 -0.2399
 9364W        W52380   7.829  10.320  13.866  0.2794  0.1228 -0.0279
 9365W        W52381  20.576  21.021  20.428  0.3328  0.1777  0.0091
 9366W        W52382  19.698  30.375   4.022 -0.0156  0.0120  0.1402
 9367W        W52383  20.063   8.970   0.349 -0.0384  0.0216  0.1003
 9368W        W52384  28.568  11.913  17.737 -0.1905 -0.1525 -0.1606
 9369W        W52385  28.461  30.614  23.900 -0.1098  0.1431  0.0623
 9370W        W52386  27.339  16.890  18.895 -0.4406  0.1927 -0.0881
 9371W        W52387  10.655   3.297  27.141 -0.0099 -0.3032  0.2755
 9372W        W52388  23.197  32.615   0.430 -0.3158  0.0966  0.3855
 9373W        W52389  14.733  13.017   8.065  0.0110  0.1018  0.0980
 9374W        W52390   0.434   8.330  18.706 -0.1562 -0.4054 -0.2835
 9375W        W52391   7.787  31.732  14.725 -0.2878  0.1176 -0.1350
 9376W        W52392  15.778   7.168  19.354  0.2649 -0.0979 -0.5028
 9377W        W52393  30.003  10.683  27.567 -0.4302  0.1235  0.0031
 9378W        W52394  20.353   4.120  20.431  0.1345 -0.2418  0.1860
 9379W        W52395  13.524  13.951  12.786 -0.4071  0.1141 -0.2192
 9380W        W52396   2.799  10.395  29.088 -0.2236  0.2046 -0.1712
 9381W        W52397  15.722  19.436  19.261 -0.1394 -0.1283  0.0365
 9382W        W52398   8.884   8.107  21.539  0.1889 -0.1991  0.0762
 9383W        W52399  30.735  15.330  14.884 -0.2037  0.2238  0.2433
 9384W        W52400  32.294   8.302   3.963 -0.0500  0.0537 -0.0291
 9385W        W52401   2.335   2.037  24.098 -0.1069 -0.0861 -0.2009
 9386W        W52402  10.078  16.778  14.607  0.2829  0.1149  0.0131
 9387W        W52403  29.521  24.509  21.377 -0.0991  0.0790 -0.1246
 9388W        W52404   6.529  16.446  19.451 -0.0503  0.3399  0.0410
 9389W        W52405  32.205  13.539  16.205  0.1120  0.0421  0.2610
 9390W        W52406  30.909  26.391  16.643  0.0087 -0.0347  0.0677
 9391W        W52407   5.969  16.333  28.619  0.2045 -0.5029 -0.1711
 9392W        W52408   1.330  26.318  20.847  0.0177 -0.1879  0.1438
 9393W        W52409   5.571  18.230  20.353 -0.0206 -0.0092  0.2502
 9394W        W52410  13.488  15.629  20.273 -0.2386  0.0270  0.1457
 9395W        W52411   5.292   3.826   3.435 -0.1425 -0.0584  0.2974
 9396W        W52412  23.854  24.319  23.898 -0.2436 -0.2125 -0.1355
 9397W        W52413   1.190   2.038  19.124 -0.3372  0.2764  0.3188
 9398W        W52414   5.713  19.464  16.587 -0.0360 -0.1631 -0.1916
 9399W        W52415   7.047  25.842  20.017 -0.2505  0.1312  0.0313
 9400W        W52416   2.460  13.609  14.637 -0.2698 -0.0986  0.0956
 9401W        W52417   5.673   8.900  26.218  0.2460  0.1187  0.0161
 9402W        W52418  30.363   2.355  25.106 -0.3083  0.3997 -0.1113
 9403W        W52419  33.311   3.942  16.868 -0.4229  0.3828 -0.2615
 9404W        W52420   6.848  11.792  19.455  0.2231  0.2488 -0.1423
 9405W        W52421  14.057   8.914  20.420  0.0688 -0.2970 -0.0715
 9406W        W52422   0.344   5.095  25.662  0.2783  0.1488  0.0625
 9407W        W52423  14.180  23.657  15.935 -0.0411 -0.4016 -0.2597
 9408W        W52424  19.231  24.562  24.506 -0.0043 -0.0451  0.3359
 9409W        W52425  18.292   9.845  21.319  0.0198 -0.1516  0.3007
 9410W        W52426  13.406  33.222  16.129  0.3002  0.2319 -0.1496
 9411W        W52427  29.262  18.702  15.308 -0.0576 -0.2109 -0.3166
 9412W        W52428  26.865  14.882  15.358  0.0227 -0.0054 -0.0714
 9413W        W52429  31.419   3.276  19.806  0.0861 -0.1593 -0.2975
 9414W        W52430  29.574  12.156   7.681  0.1237  0.2879  0.0958
 9415W        W52431  32.021   1.527  14.350 -0.2167  0.1461  0.0786
 9416W        W52432  31.255  18.013  18.826 -0.4376 -0.0878 -0.0185
 9417W        W52433   3.522  20.510  24.094 -0.0351 -0.1525 -0.2604
 9418W        W52434   8.746  24.101  24.960  0.4840 -0.0776  0.2730
 9419W        W52435   6.782  15.320  25.232  0.0495  0.1252  0.2594
 9420W        W52436  30.395  11.493  16.996 -0.0845 -0.3470 -0.0030
 9421W        W52437  14.368  26.111  24.086 -0.0459 -0.1286  0.0492
 9422W        W52438   8.036   6.935  23.560 -0.0847  0.3310 -0.1470
 9423W        W52439  13.397  20.340  17.866 -0.0557 -0.1385  0.0019
 9424W        W52440  29.125  24.021  17.819 -0.2101  0.1130 -0.0042
 9425W        W52441   2.606  23.455  20.636  0.0395  0.1473 -0.0288
 9426W        W52442  31.281   3.150  18.029  0.0220  0.3712 -0.0098
 9427W        W52443  26.498  29.543   1.330  0.3005  0.2876 -0.1065
 9428W        W52444  11.699  15.446  20.637 -0.1979 -0.1453  0.0168
 9429W        W52445  32.232   2.111  21.135  0.1705  0.0673  0.0301
 9430W        W52446   9.871  11.905  26.044 -0.0815  0.2390 -0.0700
 9431W        W52447   0.653   8.494  17.815  0.1038 -0.0659  0.1633
 9432W        W52448  33.104  19.542   3.995 -0.0118  0.0793 -0.1513
 9433W        W52449   4.320  19.485  24.770 -0.4091 -0.1035  0.0641
 9434W        W52450  30.248  14.014  17.828  0.0307  0.0250  0.1147
 9435W        W52451  17.526   9.882  17.789 -0.4494 -0.3953  0.1314
 9436W        W52452  16.337  17.911  20.685 -0.0713  0.0580 -0.1866
 9437W        W52453   0.937   3.672   2.123 -0.1776  0.2379 -0.1407
 9438W        W52454   0.645  19.036  27.714  0.1564  0.0796  0.0960
 9439W        W52455  27.641  18.255  14.318 -0.1474 -0.3096  0.0982
 9440W        W52456   1.886   3.500  24.239  0.1051  0.1894  0.2967
 9441W        W52457   2.716  15.803  19.759 -0.2828  0.1498 -0.1895
 9442W        W52458  26.667  10.837  24.105  0.3016  0.0053 -0.0453
 9443W        W52459   4.398  14.692  14.921 -0.0489  0.2942 -0.0789
 9444W        W52460  19.533  12.338  14.271  0.1108  0.1408  0.3071
 9445W        W52461   0.681  17.190  20.519  0.3654 -0.1280 -0.2509
 9446W        W52462  25.551   4.622  17.843 -0.1724  0.1202 -0.0926
 9447W        W52463   6.897   4.659  26.464  0.0362  0.1895 -0.2262
 9448W        W52464   8.455  34.044  18.164  0.0997 -0.1660  0.2011
 9449W        W52465  30.862  24.341  21.385  0.0867  0.1169 -0.1493
 9450W        W52466   0.232  15.952  25.949 -0.0096  0.0930  0.4142
 9451W        W52467   5.432   7.616   0.795  0.0539  0.1684 -0.1135
 9452W        W52468   7.202  21.175  16.978 -0.1780  0.3500  0.1451
 9453W        W52469   0.232  17.675  22.343  0.2805  0.4249  0.0035
 9454W        W52470   6.775  15.889  14.195  0.0004 -0.0384  0.1087
 9455W        W52471   2.289  15.110  16.877 -0.1020 -0.4036  0.1574
 9456W        W52472   2.055  25.739  20.469  0.0013  0.1744  0.0192
 9457W        W52473  28.126  29.291  29.201 -0.2080  0.0325 -0.4139
 9458W        W52474   6.231  26.886   1.764  0.0380  0.0138 -0.1566
 9459W        W52475  34.444  20.026  18.090 -0.0491 -0.1056 -0.1305
 9460W        W52476   6.984  20.490   8.777 -0.1619 -0.1583 -0.0718
 9461W        W52477   9.215  13.845  13.230  0.2770  0.0470  0.0551
 9462W        W52478  24.469   5.573   4.765 -0.1942  0.2702 -0.1614
 9463W        W52479  28.564  12.859  15.875  0.1058  0.0299  0.4448
 9464W        W52480   8.237   9.212  16.461 -0.0823 -0.1626 -0.2279
 9465W        W52481   5.775  11.609  16.161 -0.1569  0.0350 -0.2165
 9466W        W52482  10.817   9.382  18.635 -0.0073 -0.0648  0.1768
 9467W        W52483   1.333   2.593  28.519  0.2257 -0.1290  0.0618
 9468W        W52484  23.957  16.489  19.304 -0.0761  0.3409  0.0540
 9469W        W52485  28.072   8.795  19.689 -0.2333 -0.0321  0.0250
 9470W        W52486   3.029  33.823   0.538 -0.0817 -0.2761 -0.1951
 9471W        W52487   5.240   1.696  20.341  0.0832  0.0587  0.3496
 9472W        W52488  10.948  14.236  17.604  0.4994  0.0890 -0.0107
 9473W        W52489   5.558  13.402  18.838  0.3953  0.1299  0.1224
 9474W        W52490  29.518  12.359  22.545  0.1232  0.0301  0.0576
 9475W        W52491  29.689  12.815  17.913  0.0993  0.0374 -0.1030
 9476W        W52492  23.876   4.053   3.346 -0.0239 -0.0088  0.0805
 9477W        W52493   6.989  14.484  17.200 -0.1520 -0.1785 -0.6082
 9478W        W52494  34.704  15.838   6.537 -0.2750  0.1221  0.0099
 9479W        W52495   0.445   3.850  14.999 -0.2657  0.2286  0.1652
 9480W        W52496   0.623   6.728  15.020  0.1458  0.0087  0.0695
 9481W        W52497   8.546  23.715  21.098  0.5140 -0.1414  0.1109
 9482W        W52498  16.052  30.250  28.375  0.1051 -0.0152  0.0697
 9483W        W52499  33.421  15.193  18.836  0.4983  0.1050  0.1908
 9484W        W52500  13.347   6.161  24.623 -0.1584  0.4268  0.1401
 9485W        W52501   3.339  19.798   0.252  0.1290 -0.1712  0.0450
 9486W        W52502   8.107  18.441  14.393 -0.0799  0.0799  0.1408
 9487W        W52503  33.744  11.569  15.214  0.1910 -0.2207 -0.0073
 9488W        W52504  30.324  31.025  16.603  0.1471 -0.2125 -0.0093
 9489W        W52505  32.192   8.953  17.479  0.0231 -0.2405 -0.5933
 9490W        W52506  33.541  15.044  25.538  0.1109  0.2137 -0.2913
 9491W        W52507  15.753   4.364  12.923  0.0578 -0.0725  0.0812
 9492W        W52508  26.241  17.452  20.859  0.0301 -0.1184 -0.0437
 9493W        W52509  13.795  18.503  14.185 -0.0029  0.1224 -0.0215
 9494W        W52510   5.940  22.150  16.498 -0.1271  0.0552  0.3121
 9495W        W52511  27.073  13.268  14.889  0.0085  0.2461  0.2213
 9496W        W52512   8.920   7.145  17.863  0.1445 -0.2892 -0.1350
 9497W        W52513   2.234  33.819  14.676 -0.2683  0.0324 -0.1667
 9498W        W52514   6.305  19.402  18.259 -0.0242  0.1777 -0.0268
 9499W        W52515  31.693  28.021  25.198 -0.0055  0.2224 -0.1749
 9500W        W52516  29.963   2.030  25.907  0.0405 -0.0852  0.1164
 9501W        W52517  11.180   8.284  16.458  0.0709  0.1005 -0.0520
 9502W        W52518  29.990   6.242  27.499  0.0352 -0.1029  0.0709
 9503W        W52519   2.975  32.412   1.106  0.2165  0.0995  0.0962
 9504W        W52520   2.742   5.118  21.221  0.2510  0.1716 -0.2230
 9505W        W52521  32.617   4.764  22.423  0.1589  0.1268 -0.1882
 9506W        W52522  11.855  27.960  26.813  0.1944  0.1853 -0.1523
 9507W        W52523   3.308  24.061  19.282 -0.1633  0.0304 -0.3510
 9508W        W52524   4.974  23.777  17.766 -0.3374 -0.2718  0.0977
 9509W        W52525   6.281  17.659  24.571 -0.1388  0.0726  0.1737
 9510W        W52526   5.485   2.437  27.660 -0.0643  0.0961  0.0945
 9511W        W52527   4.875  12.120  21.079 -0.1355  0.2119  0.1228
 9512W        W52528   0.302  14.968  14.779 -0.3780 -0.0846 -0.0660
 9513W        W52529  29.026  21.224  17.194  0.0476  0.2645  0.2253
 9514W        W52530  25.984   5.396  24.586  0.0273 -0.0624  0.3785
 9515W        W52531  24.216   3.278  16.430  0.0758  0.0683  0.3847
 9516W        W52532  28.288  19.564  23.851 -0.1903 -0.2618 -0.0414
 9517W        W52533  28.166  28.555   3.114 -0.2858  0.1325 -0.2599
 9518W        W52534  32.406  30.765   2.076  0.0393 -0.2408  0.0703
 9519W        W52535  19.624  33.961  17.432 -0.1046  0.1356  0.1825
 9520W        W52536  29.271   7.789  26.727 -0.1418  0.0230  0.3379
 9521W        W52537  32.659  18.458  22.085  0.2412  0.2249  0.3858
 9522W        W52538   4.755  22.755  16.857  0.1773 -0.1919 -0.2505
 9523W        W52539  12.055  15.138   1.326  0.0506 -0.0340  0.1833
 9524W        W52540  26.759  31.016  23.712 -0.1511  0.0584  0.0037
 9525W        W52541   9.854  23.476  20.897 -0.1090 -0.2466 -0.0998
 9526W        W52542  28.953   5.764  26.377  0.3861 -0.0818 -0.2481
 9527W        W52543   7.997  13.883  19.621 -0.2231 -0.3959  0.0955
 9528W        W52544  31.766  25.502  22.683 -0.0719 -0.0225 -0.0847
 9529W        W52545   7.813  25.514  23.768  0.0157 -0.0568  0.1732
 9530W        W52546   3.113   4.627  19.310  0.0693 -0.2737  0.0840
 9531W        W52547  34.504   9.364  17.640  0.6129 -0.0487  0.0669
 9532W        W52548  31.398  22.917  24.854 -0.0873 -0.2248  0.1997
 9533W        W52549  31.727  30.992  20.172  0.2645  0.0032  0.0418
 9534W        W52550  18.662  34.324  16.042 -0.1055 -0.0621 -0.0139
 9535W        W52551   7.373   7.702  27.586  0.2847  0.0002 -0.0852
 9536W        W52552   8.383  11.556  14.949  0.0606 -0.1821  0.2687
 9537W        W52553   3.999  13.552  18.259 -0.1745 -0.1229  0.1308
 9538W        W52554   0.178  28.872  14.533  0.2072  0.0698  0.1685
 9539W        W52555   1.160  19.801  19.665 -0.3394 -0.1994  0.0287
 9540W        W52556   1.896  23.902  27.559  0.2203  0.2958 -0.1145
 9541W        W52557  10.404  28.567  19.387 -0.1848  0.1883 -0.0632
 9542W        W52558   2.531  23.957  27.796  0.1045  0.1763 -0.1240
 9543W        W52559  34.001   5.496  22.711  0.0115  0.1956 -0.1344
 9544W        W52560  29.334   6.971  20.276 -0.2993  0.2503 -0.1294
 9545W        W52561  33.423  14.730  15.557 -0.1130 -0.1307  0.1547
 9546W        W52562   7.406   5.939  27.015  0.2569  0.3039 -0.0969
 9547W        W52563   6.230   8.790  23.081 -0.0174 -0.1015  0.2462
 9548W        W52564  21.563   6.698  15.590  0.0529  0.0312  0.4696
 9549W        W52565  11.728  10.935  13.638  0.0179 -0.2817  0.2616
 9550W        W52566   5.785  16.766  19.666 -0.0838  0.0347  0.0655
 9551W        W52567   0.522  15.366  16.649  0.2351 -0.3392  0.4533
 9552W        W52568  21.919   9.427  19.298 -0.1207 -0.0972  0.1484
 9553W        W52569  19.032  21.019  26.219 -0.0877 -0.2928 -0.1268
 9554W        W52570  31.291  13.004  19.225 -0.2068 -0.1369 -0.0583
 9555W        W52571  22.980  32.673  22.423  0.3128 -0.3275  0.1748
 9556W        W52572  14.930   3.279  14.229  0.0315 -0.0792  0.0836
 9557W        W52573   3.323   6.203  19.886  0.1051  0.1233  0.1234
 9558W        W52574  30.280  31.982  10.808  0.1192 -0.2976  0.0935
 9559W        W52575  10.943  19.609  14.837 -0.2427  0.1916 -0.2438
 9560W        W52576   5.024  12.403  26.983 -0.0071  0.6139  0.0640
 9561W        W52577   7.724   4.314  16.063  0.1976 -0.0517  0.2418
 9562W        W52578  28.436   7.363  22.320  0.4115 -0.2242 -0.0507
 9563W        W52579  27.566  15.881  26.283 -0.0204  0.0633 -0.4111
 9564W        W52580   4.899  13.205  15.713 -0.0089 -0.3333  0.1949
 9565W        W52581  32.763  32.173  26.938 -0.2348  0.0961 -0.2908
 9566W        W52582  32.098   7.547  28.418  0.1981  0.0182  0.2910
 9567W        W52583   6.720  23.657  20.983  0.0622 -0.0270  0.0413
 9568W        W52584   0.640  27.776  15.198 -0.0605  0.0251 -0.2702
 9569W        W52585   4.519  12.556  18.430  0.0622  0.1818 -0.0841
 9570W        W52586  28.016  10.021  16.744  0.1236 -0.0428 -0.0985
 9571W        W52587  28.719  17.836  14.739  0.0979 -0.3447 -0.2619
 9572W        W52588  33.718   3.134  24.143 -0.0797  0.0059 -0.0783
 9573W        W52589   3.665  17.919  14.348  0.0911 -0.1662  0.1435
 9574W        W52590  23.287  31.502   4.793  0.0139  0.0439  0.0691
 9575W        W52591   8.993  22.896  16.131  0.2794 -0.2659 -0.2300
 9576W        W52592   9.934  32.386  22.161 -0.0503  0.1430 -0.0080
 9577W        W52593  32.652   7.502  20.803 -0.0468 -0.0461  0.0595
 9578W        W52594  15.951   2.224  17.828 -0.3477 -0.1819 -0.0907
 9579W        W52595   1.487  16.343  20.987 -0.0290 -0.0206  0.5291
 9580W        W52596  20.021  32.542   3.615  0.0677  0.5080  0.0224
 9581W        W52597  32.104  16.965  23.485 -0.0985 -0.2980  0.0085
 9582W        W52598  27.350  17.884  16.272 -0.0212  0.0032 -0.0855
 9583W        W52599  11.233  16.316  12.796  0.1232 -0.0006  0.1493
 9584W        W52600  10.226   3.968  13.965 -0.3345  0.0600  0.0905
 9585W        W52601  26.342   7.605  20.024  0.2331  0.1305  0.1047
 9586W        W52602   2.071  28.919  20.831 -0.0920  0.0045  0.5336
 9587W        W52603  23.169   8.582  28.736 -0.3384  0.0993 -0.2251
 9588W        W52604  27.797  12.027  22.247 -0.1358  0.1457  0.2287
 9589W        W52605  32.886   7.512  27.664 -0.0636 -0.1832 -0.0222
 9590W        W52606  17.652   2.415  24.317 -0.0113 -0.0992 -0.2017
 9591W        W52607  21.982   4.302  18.726 -0.1351  0.1662 -0.1498
 9592W        W52608  25.038  10.450  17.926 -0.1092 -0.1039 -0.0239
 9593W        W52609  16.571  14.752   2.890  0.1575  0.0681  0.1620
 9594W        W52610  14.284  33.421  22.071 -0.0309  0.0056 -0.0508
 9595W        W52611  11.742  31.094  18.650  0.1126 -0.0876  0.1569
 9596W        W52612   2.833  14.149  25.957 -0.3168 -0.2788  0.1000
 9597W        W52613  13.465   9.895  14.114 -0.0379 -0.1058 -0.1673
 9598W        W52614  13.536  14.925  14.935  0.0425  0.0923 -0.1641
 9599W        W52615   0.448  26.464  14.584  0.0588  0.0207 -0.0300
 9600W        W52616   2.636  33.010  27.053 -0.1435 -0.4061  0.4186
 9601W        W52617  21.188  26.796  23.371 -0.1694 -0.1803 -0.0904
 9602W        W52618  31.444  18.765   5.640 -0.2745 -0.1610 -0.1347
 9603W        W52619   2.648  17.319   0.035  0.0062  0.1111 -0.1399
 9604W        W52620   6.672  15.735  28.275  0.1223 -0.1313 -0.1195
 9605W        W52621   5.253  22.790  14.629 -0.3637  0.3938 -0.1175
 9606W        W52622   6.133   8.870  20.333  0.4118  0.3013  0.1375
 9607W        W52623   3.023   1.357  21.373 -0.1775  0.1355  0.3109
 9608W        W52624   9.889  12.203  13.218 -0.2828  0.1940  0.3101
 9609W        W52625   2.532  16.855  27.417 -0.0867 -0.2765 -0.2963
 9610W        W52626  26.170  19.213  26.353 -0.4396  0.1275 -0.2357
 9611W        W52627   3.517  16.464   3.501  0.1090 -0.0598  0.0108
 9612W        W52628  10.155  31.763  18.020 -0.0473  0.0117  0.2383
 9613W        W52629   5.555  14.329  20.500 -0.2114  0.0062  0.0916
 9614W        W52630   5.686   1.049  20.986  0.0177  0.6715  0.1268
 9615W        W52631  31.297  14.599  17.584 -0.3201 -0.1775 -0.3069
 9616W        W52632  19.691  30.715  17.584 -0.2335  0.1053 -0.2000
 9617W        W52633  20.858   8.899  25.878  0.1320  0.8155 -0.5555
 9618W        W52634   7.946  17.234  17.042  0.1387 -0.0509 -0.0330
 9619W        W52635  29.811   7.296  28.257  0.0270 -0.0282  0.2838
 9620W        W52636  16.813   1.214  23.577 -0.0956 -0.1053 -0.1978
 9621W        W52637  15.607  26.528  16.169 -0.0912 -0.0389 -0.2010
 9622W        W52638  32.586  18.731  18.047  0.0146  0.2164 -0.1873
 9623W        W52639  31.776  29.927  15.313 -0.3125  0.0037 -0.0196
 9624W        W52640  29.402  24.026  21.235  0.4175 -0.0070  0.1843
 9625W        W52641   3.540  11.738  22.734  0.1196 -0.1903 -0.1566
 9626W        W52642  32.034  12.918  25.970 -0.1417  0.1336 -0.2788
 9627W        W52643  32.896  34.684  26.403  0.2584  0.1231 -0.2124
 9628W        W52644   3.783  32.986  28.336 -0.0745  0.0641 -0.2909
 9629W        W52645  10.192   8.937  25.632 -0.0243  0.1184  0.1462
 9630W        W52646   1.977  29.443  23.218 -0.0101 -0.0354 -0.1378
 9631W        W52647  26.781  30.287  27.488  0.0902 -0.1189 -0.0584
 9632W        W52648  30.117  33.055  17.421  0.2367 -0.0437 -0.1843
 9633W        W52649  29.727  17.699   1.001  0.0433 -0.0655  0.3170
 9634W        W52650   3.007  14.712   6.554 -0.2153  0.3709  0.0456
 9635W        W52651  29.267   8.390   3.137  0.0716 -0.0709 -0.1006
 9636W        W52652   4.460  32.700  28.931 -0.0700 -0.0270 -0.2128
 9637W        W52653  28.280   2.333  23.171 -0.0627 -0.1554  0.0806
 9638W        W52654  12.254   9.749  25.474 -0.1194 -0.1934  0.0876
 9639W        W52655   3.632  11.273   4.320  0.1494  0.0563  0.1322
 9640W        W52656   4.778  23.599  18.223 -0.1727  0.3128 -0.0472
 9641W        W52657  10.115   5.636  28.187  0.2967  0.0648  0.0514
 9642W        W52658   4.894  26.335   3.056  0.2126 -0.2381 -0.0865
 9643W        W52659  27.884  16.348  18.404  0.0802  0.1278  0.1766
 9644W        W52660   7.926  11.269  26.614 -0.0023 -0.3518  0.0355
 9645W        W52661  19.332   8.938  20.541 -0.0030  0.0836 -0.2505
 9646W        W52662  14.298  15.468   0.908  0.1367 -0.0269  0.0149
 9647W        W52663  12.146   6.843  20.376 -0.3893  0.1883  0.5398
 9648W        W52664  28.542  29.726  16.811  0.1370  0.1675  0.1018
 9649W        W52665  34.383  21.902  15.975 -0.1092  0.0402  0.0139
 9650W        W52666  16.232  26.358  18.926  0.1348 -0.4718 -0.0489
 9651W        W52667   4.936  23.172  20.703 -0.0217  0.0374  0.0967
 9652W        W52668  12.036  17.265  28.553  0.0202  0.2511  0.2017
 9653W        W52669  33.840  18.510  21.325 -0.3373 -0.1716 -0.2727
 9654W        W52670   2.107  34.534  23.622 -0.3277 -0.1721 -0.1549
 9655W        W52671   4.788  11.220  15.927 -0.3711 -0.0382  0.0779
 9656W        W52672  30.879  14.779  15.517 -0.1288 -0.0018 -0.0216
 9657W        W52673  15.787  31.227  16.500 -0.1415  0.2331 -0.2677
 9658W        W52674  11.142  23.892  15.970 -0.1858  0.1908 -0.1227
 9659W        W52675  11.547   3.356  18.722 -0.4890 -0.0294  0.1263
 9660W        W52676   2.308  12.400  25.084  0.3020 -0.2588 -0.1478
 9661W        W52677   9.976   6.461  19.448 -0.0962 -0.1475  0.0091
 9662W        W52678   1.826  26.745  15.485  0.0270 -0.2261 -0.1049
 9663W        W52679   4.611  28.018  18.190  0.1585 -0.0018 -0.0194
 9664W        W52680  12.845  18.161  13.652  0.3355  0.1582  0.0705
 9665W        W52681   7.766  16.136  16.255 -0.0309 -0.0950 -0.1305
 9666W        W52682  28.476  20.438   0.111 -0.1210  0.0607  0.2228
 9667W        W52683  18.072   9.780  27.162  0.0817 -0.1772 -0.2730
 9668W        W52684  32.950   1.139  20.537 -0.2319 -0.2253  0.1552
 9669W        W52685  25.846  13.647  16.712 -0.0348 -0.1593  0.2392
 9670W        W52686  19.664  12.438   0.677  0.0068  0.1378 -0.0819
 9671W        W52687  14.452   4.331  17.470  0.1827 -0.1433  0.0572
 9672W        W52688   7.434  14.511  13.623  0.1599  0.1638  0.1753
 9673W        W52689   3.014  10.926  22.680 -0.2802  0.0398 -0.0036
 9674W        W52690  25.922   6.559  18.113 -0.2521  0.1504 -0.2160
 9675W        W52691   2.002  13.381  21.082 -0.0127  0.3199 -0.0279
 9676W        W52692  21.526  25.931  20.361 -0.2056 -0.1801  0.3130
 9677W        W52693  19.845   1.805  21.180 -0.0994  0.0659  0.0366
 9678W        W52694   9.338   4.394  24.333 -0.2113  0.2637  0.4089
 9679W        W52695  26.854  31.552  24.931 -0.2342 -0.2409 -0.0301
 9680W        W52696   4.278  20.612  19.312 -0.0121 -0.0807  0.0370
 9681W        W52697  33.189   2.241  24.362 -0.1761 -0.1790 -0.0104
 9682W        W52698   5.292   7.774  17.515 -0.1278  0.1743  0.1066
 9683W        W52699   0.587   6.885  27.057  0.0024 -0.3083 -0.1010
 9684W        W52700  31.371   6.283  15.931 -0.1268  0.4124  0.3059
 9685W        W52701  26.576  14.664  15.879 -0.2936  0.2474 -0.0488
 9686W        W52702  11.662  32.775   3.389  0.0117  0.0390  0.1360
 9687W        W52703  24.993  21.955  25.730  0.1024 -0.0158  0.0361
 9688W        W52704  21.678  17.570   3.485  0.1445  0.1569 -0.0039
 9689W        W52705  27.867   9.316  21.165 -0.0144 -0.0258  0.0030
 9690W        W52706   5.796  15.189  15.910  0.0827  0.2621 -0.1579
 9691W        W52707   2.602  32.976  14.040  0.1120  0.0057  0.2034
 9692W        W52708   4.558  17.493  19.040 -0.0726  0.0732 -0.3331
 9693W        W52709  32.990  20.780  21.685 -0.1593  0.1020  0.0353
 9694W        W52710  26.200  16.175  15.083 -0.0047 -0.1752  0.2662
 9695W        W52711   9.985   5.818  26.076 -0.0956 -0.1901  0.2131
 9696W        W52712  34.088   5.398  25.782  0.0264  0.0436 -0.3057
 9697W        W52713  34.100   3.302  15.992 -0.0710 -0.2129 -0.0073
 9698W        W52714   6.956  13.588  15.708 -0.1099 -0.2369  0.0152
 9699W        W52715  14.051  34.534  25.642 -0.0540 -0.3391  0.2023
 9700W        W52716  13.010   9.738   0.662 -0.1534 -0.0010  0.1567
 9701W        W52717   7.333   9.581  24.322 -0.0687 -0.0998  0.0782
 9702W        W52718   5.908  17.642  22.698 -0.1486  0.1289 -0.1769
 9703W        W52719  25.632  32.852  23.233 -0.0965  0.2330  0.1144
 9704W        W52720   3.804  23.752   1.343 -0.0759  0.0345  0.1597
 9705W        W52721  10.051   3.808  23.764  0.2277  0.1710 -0.0709
 9706W        W52722  27.568   3.863  25.146  0.2569  0.2222  0.0473
 9707W        W52723   9.104  12.895  23.578  0.0523 -0.0448 -0.0672
 9708W        W52724   7.994   7.871  14.282 -0.2043  0.0327  0.0155
 9709W        W52725   4.377   6.551   1.693  0.4215 -0.1050  0.0500
 9710W        W52726  24.084  23.896  17.574  0.1930 -0.1123 -0.2193
 9711W        W52727  29.269   2.613   2.892 -0.1643 -0.1613  0.0891
 9712W        W52728  28.306  17.876  18.232  0.0278 -0.1090  0.1081
 9713W        W52729   4.726  14.949   9.044 -0.4105 -0.0641  0.0028
 9714W        W52730   3.743  15.270  24.088 -0.1771  0.5672  0.0354
 9715W        W52731   5.600   4.518  20.914 -0.0874  0.2511  0.0236
 9716W        W52732   1.978  11.242   7.499  0.1065  0.2112 -0.2059
 9717W        W52733  33.927  16.185  16.539  0.0250  0.2055 -0.0349
 9718W        W52734  12.176  19.725  22.771  0.1728 -0.4122  0.0270
 9719W        W52735   4.126  17.319  19.702  0.0443 -0.1289 -0.2259
 9720W        W52736  28.282   9.662  20.328  0.2658 -0.1718 -0.2185
 9721W        W52737  12.567  29.264  23.380  0.0100 -0.0977 -0.0490
 9722W        W52738  31.048  12.834  15.905 -0.1739  0.3008 -0.1315
 9723W        W52739  25.430  10.453   1.150 -0.1573  0.0754 -0.1560
 9724W        W52740  30.036   4.907  25.676 -0.1514 -0.1191  0.1523
 9725W        W52741  28.204  17.449  20.546 -0.3081 -0.0098  0.0168
 9726W        W52742  24.896   4.144  14.876  0.0722  0.1255  0.3195
 9727W        W52743   4.939  10.220  22.088  0.2348  0.2051 -0.2176
 9728W        W52744   4.399  21.022  20.345 -0.2041 -0.0860  0.0726
 9729W        W52745  34.219   7.008   1.440 -0.2585  0.1542 -0.1914
 9730W        W52746  18.273   7.863  19.311 -0.0497 -0.1609 -0.2751
 9731W        W52747   9.781   7.793  19.407  0.1429 -0.2378  0.0973
 9732W        W52748   6.006   2.173   1.922  0.5698 -0.0650  0.1315
 9733W        W52749  25.115  27.803  25.512  0.1353 -0.0916 -0.0547
 9734W        W52750  12.751  16.280  13.890 -0.3113  0.1105 -0.0442
 9735W        W52751   8.249  14.861   4.036 -0.0392 -0.4459 -0.2051
 9736W        W52752  10.323   4.651  23.166 -0.0858  0.0181  0.1301
 9737W        W52753  28.445  12.315  25.701  0.1975 -0.2170 -0.0196
 9738W        W52754  21.239   2.225  16.893  0.1101 -0.2394 -0.3760
 9739W        W52755  27.625  15.372  15.606 -0.1796 -0.1622  0.0733
 9740W        W52756   3.520  22.773  14.555 -0.3436  0.1445 -0.0758
 9741W        W52757   0.666  21.069   6.215  0.0775  0.0405 -0.0892
 9742W        W52758  10.157  30.446  14.424 -0.1683  0.0579  0.0156
 9743W        W52759   3.789  10.017   0.737 -0.1266  0.0728 -0.1640
 9744W        W52760   4.394  30.145  19.878 -0.1071  0.4962 -0.0213
 9745W        W52761  12.774  12.960  16.684 -0.2386  0.0686 -0.1567
 9746W        W52762  11.241   7.805  28.221 -0.0815 -0.2661  0.1249
 9747W        W52763  20.989  13.603  17.865 -0.2916  0.0203 -0.0344
 9748W        W52764   8.682   7.368  16.146  0.0934  0.0428 -0.0891
 9749W        W52765  28.882   0.506  15.397 -0.0151  0.1661 -0.0549
 9750W        W52766  33.436  23.162   5.035 -0.0649  0.0697  0.1028
 9751W        W52767  12.422   0.311  25.165 -0.1194  0.2292 -0.0240
 9752W        W52768  27.564  23.891   3.774 -0.2506 -0.1512  0.1020
 9753W        W52769  34.074  13.228   3.883 -0.3305  0.0054 -0.1091
 9754W        W52770  28.009  12.396  21.518  0.2983 -0.0451  0.1525
 9755W        W52771  11.240  17.648  19.003 -0.1201  0.1275 -0.0203
 9756W        W52772   5.673  30.714  14.605  0.3281 -0.4101  0.1714
 9757W        W52773  33.020  31.673  26.888  0.0815  0.1194 -0.0641
 9758W        W52774   1.862   7.199  21.937  0.0262  0.0831  0.2660
 9759W        W52775  20.193  20.412  22.726  0.0546 -0.3214 -0.1475
 9760W        W52776   6.832  15.563  18.435  0.3463 -0.1721  0.0965
 9761W        W52777  27.121  15.455  22.912  0.0493 -0.2195  0.0291
 9762W        W52778   3.929  11.091  16.200  0.1181  0.2180  0.0024
 9763W        W52779   3.926  16.220  13.525 -0.2408 -0.0192 -0.0640
 9764W        W52780  33.596  32.055  21.924 -0.3011  0.0560  0.1994
 9765W        W52781   1.664  13.883  19.626 -0.0013 -0.0025  0.1502
 9766W        W52782  32.862   7.526  19.879 -0.0836 -0.1156 -0.0073
 9767W        W52783   6.002  20.796  23.429 -0.1574 -0.2169  0.1224
 9768W        W52784  14.600  11.016  19.202  0.0603 -0.0892  0.0780
 9769W        W52785   5.066  30.636   7.413  0.1620  0.0569 -0.2033
 9770W        W52786   4.900  23.463  29.217  0.1992  0.2145  0.1655
 9771W        W52787  16.879  10.678  22.094  0.2284  0.0861  0.1248
 9772W        W52788   8.586  15.269   3.960 -0.1637 -0.0036 -0.4042
 9773W        W52789   0.414  25.902   1.888  0.4340  0.1999 -0.1675
 9774W        W52790   2.667   7.495  24.985  0.0538  0.2093 -0.0744
 9775W        W52791   3.634  18.378   8.978  0.0396 -0.2238 -0.0409
 9776W        W52792   6.733  21.695  22.143 -0.1971  0.2585 -0.2649
 9777W        W52793   0.513  11.061  16.546  0.2842  0.0414 -0.0544
 9778W        W52794  14.896  26.239  20.275 -0.2469  0.1807  0.0747
 9779W        W52795  34.756   0.147   3.579  0.2185 -0.1112  0.5959
 9780W        W52796   0.098  31.340  25.184  0.2296  0.3108  0.2562
 9781W        W52797  26.151  18.272  21.883 -0.0838 -0.1741  0.1236
 9782W        W52798   3.167   9.448  18.216  0.0811  0.1400 -0.0895
 9783W        W52799  17.075   2.914  17.820 -0.0950 -0.2845  0.3809
 9784W        W52800  26.556  30.721  16.138 -0.2397 -0.0261 -0.0914
 9785W        W52801  29.050  19.340   0.969 -0.1221 -0.0751 -0.1960
 9786W        W52802   5.361  34.329  16.335  0.0123  0.2416  0.2570
 9787W        W52803  33.027   1.091  16.588 -0.0311 -0.1343 -0.3320
 9788W        W52804   2.904  33.033  25.348  0.0548 -0.3455  0.1258
 9789W        W52805  14.887  12.413   3.046  0.4910 -0.2055  0.0947
 9790W        W52806   1.551   1.288  16.810 -0.1320  0.4682 -0.0482
 9791W        W52807   5.814  10.140  23.486 -0.2221 -0.1715  0.0347
 9792W        W52808   1.920  21.660   0.649 -0.3680 -0.1297  0.1152
 9793W        W52809  13.136  11.106  15.240  0.1956  0.0031  0.0124
 9794W        W52810   3.382   0.894   3.011 -0.0528 -0.0050  0.0512
 9795W        W52811  20.154   3.511  17.388  0.1229  0.3824  0.1425
 9796W        W52812   4.974  30.779  23.572  0.0337  0.2167 -0.2665
 9797W        W52813  17.310  23.546  28.543  0.0907  0.2363  0.6680
 9798W        W52814  16.745   6.901  24.001  0.2375 -0.2333  0.5339
 9799W        W52815   5.092  12.728   1.911  0.2308 -0.1065 -0.1101
 9800W        W52816  24.679   5.259  19.683 -0.0581  0.2150  0.4514
 9801W        W52817  21.188   7.861  27.621 -0.2734 -0.1549 -0.0403
 9802W        W52818  29.155  11.166  14.808  0.2618  0.2411 -0.0180
 9803W        W52819   5.270   8.935  25.055  0.2206  0.0657 -0.1334
 9804W        W52820   2.049  14.527  20.234  0.0344  0.2962 -0.0257
 9805W        W52821  30.519   0.539  22.268  0.2825 -0.1421  0.0839
 9806W        W52822  26.925   5.785   4.420  0.0242 -0.0632  0.2562
 9807W        W52823  10.679   5.892  10.568 -0.2028 -0.1252  0.0743
 9808W        W52824  13.206  12.876   0.258  0.1347 -0.2108 -0.0124
 9809W        W52825  32.566  14.053   2.831 -0.0938  0.1008 -0.0331
 9810W        W52826   2.079   7.580  20.256  0.0685 -0.1274 -0.0588
 9811W        W52827  31.796   7.409   5.331 -0.0247 -0.0979  0.2339
 9812W        W52828   2.310  30.123  13.946  0.0047  0.2555  0.0920
 9813W        W52829  28.777   3.486  15.291  0.0536  0.2586 -0.4083
 9814W        W52830   3.472  11.619  23.639 -0.0438 -0.1287 -0.2394
 9815W        W52831  27.283  11.467  14.179  0.1291  0.2001 -0.1239
 9816W        W52832  33.833   4.327  14.274 -0.1075  0.2826  0.1768
 9817W        W52833  10.931  21.346  18.142  0.4853  0.1064  0.1415
 9818W        W52834  34.267  13.306  18.083 -0.0810  0.0261 -0.0562
 9819W        W52835   3.448  30.704  18.563 -0.1251  0.1340  0.2500
 9820W        W52836  11.416  26.779  21.812  0.0747  0.0988 -0.4010
 9821W        W52837  34.011  13.275  28.273  0.1150  0.0118  0.1553
 9822W        W52838   2.793  32.260   3.350 -0.1903  0.0404 -0.4499
 9823W        W52839   0.161   7.511  26.669  0.4093 -0.1516  0.1795
 9824W        W52840  15.355  23.171  14.907  0.2683 -0.0640  0.3478
 9825W        W52841  12.925  18.849  13.191 -0.0216  0.1320  0.1612
 9826W        W52842   2.863  24.198  22.809  0.1556  0.1624 -0.0053
 9827W        W52843  30.463  24.470  24.320 -0.0121  0.2337  0.2540
 9828W        W52844  32.574   3.894  22.797  0.1719 -0.0581 -0.3427
 9829W        W52845   1.997   6.378  22.563  0.1511 -0.1120  0.0205
 9830W        W52846  10.609  31.603   4.290  0.1253  0.0073  0.1833
 9831W        W52847  24.955   6.074  10.280  0.3939 -0.1458 -0.0053
 9832W        W52848   6.026  33.441  25.310  0.1230  0.1844 -0.3223
 9833W        W52849  14.078  32.903   1.454 -0.0048 -0.0569  0.0709
 9834W        W52850   2.896  19.587  22.248  0.0765  0.0600  0.1395
 9835W        W52851   9.387  22.520  15.960 -0.1277 -0.0509 -0.4187
 9836W        W52852  18.427  33.038  23.688  0.0773 -0.3198 -0.1661
 9837W        W52853   0.698  29.055  25.462 -0.1877 -0.3251  0.3931
 9838W        W52854  22.949  10.666  17.446  0.2729  0.0802 -0.0473
 9839W        W52855  25.904   5.165   1.033 -0.0559 -0.0306 -0.2258
 9840W        W52856  20.949  23.484  25.496  0.0694 -0.0702  0.1018
 9841W        W52857  24.918  15.884  21.133 -0.1849  0.0733 -0.1745
 9842W        W52858   9.640   6.477  21.549  0.1191  0.0498 -0.0076
 9843W        W52859   3.360  23.509  18.286  0.0666  0.2262 -0.1688
 9844W        W52860  10.684  18.654   1.526 -0.3217  0.3102 -0.1653
 9845W        W52861   3.826  31.765  23.720 -0.1235  0.0956  0.1099
 9846W        W52862  12.758  21.099  15.478 -0.1218 -0.1809 -0.0341
 9847W        W52863  16.109  27.022  15.872 -0.1177 -0.0035  0.1634
 9848W        W52864  11.799  15.141  23.094  0.1162  0.1162  0.0631
 9849W        W52865  32.840  22.068  18.333 -0.0997 -0.0311 -0.0276
 9850W        W52866  34.378   6.848  19.635 -0.0996 -0.0165  0.1757
 9851W        W52867  27.250  12.711  15.189  0.0152  0.3005  0.1203
 9852W        W52868  21.660   0.301  28.197 -0.0230 -0.3826  0.0507
 9853W        W52869  26.777  12.059  17.845 -0.2012  0.0215 -0.1839
 9854W        W52870  34.178   3.480  15.148 -0.0779 -0.0289  0.1165
 9855W        W52871  12.808  25.991  16.843 -0.1322 -0.0466  0.2273
 9856W        W52872  19.950  18.090  22.836  0.0440 -0.1801 -0.1100
 9857W        W52873   4.842   9.674  20.438 -0.2033  0.0557 -0.0196
 9858W        W52874   1.503   2.773  16.028  0.2359  0.0316 -0.1118
 9859W        W52875   6.877  10.908  18.936 -0.1802 -0.1595  0.1513
 9860W        W52876   4.908  18.897  24.317 -0.0397  0.2593  0.0432
 9861W        W52877   0.950   1.987   3.254  0.1307  0.0644  0.1329
 9862W        W52878  20.306  15.528  20.157  0.0875 -0.0211 -0.0321
 9863W        W52879   3.812  21.731  27.057 -0.1725  0.0067  0.3842
 9864W        W52880   8.774  10.004   3.215  0.1332 -0.0813  0.0678
 9865W        W52881  26.148  11.506   1.776  0.1249  0.1616 -0.0188
 9866W        W52882   1.129  28.273  16.798  0.1629  0.3313 -0.1658
 9867W        W52883  21.724  28.712  28.668 -0.2118 -0.2757 -0.1170
 9868W        W52884   6.621  13.109  22.196  0.0009  0.0090  0.1892
 9869W        W52885   3.092   5.182   6.789  0.0110  0.1176  0.1936
 9870W        W52886  29.173  18.285  25.988 -0.0823 -0.3073 -0.1043
 9871W        W52887  24.460  18.824   4.753  0.1769 -0.2411 -0.0488
 9872W        W52888  32.452  25.180  17.986 -0.2155 -0.2839  0.0393
 9873W        W52889   7.959  16.922   0.805 -0.1645  0.0774 -0.2012
 9874W        W52890  31.558   9.368  20.568 -0.0587 -0.1214 -0.0407
 9875W        W52891  31.747   4.027  28.443  0.1334 -0.2370  0.1422
 9876W        W52892  20.027  12.428  14.387  0.0420  0.1029 -0.1281
 9877W        W52893  22.044  14.798  15.027  0.1481  0.0518  0.1396
 9878W        W52894   2.601  28.310   1.886  0.0605 -0.1483 -0.1819
 9879W        W52895  34.625  14.205  22.961 -0.1841  0.1000  0.0769
 9880W        W52896  25.281  17.621   7.233 -0.2014 -0.0821  0.0085
 9881W        W52897   1.445  29.504  19.941 -0.0309 -0.0652 -0.1812
 9882W        W52898  26.034  25.021  25.807  0.0508  0.3087 -0.2093
 9883W        W52899  34.187  25.722  24.987 -0.0366  0.0401  0.2242
 9884W        W52900   3.145  12.370  25.581 -0.3086 -0.0706 -0.6175
 9885W        W52901  25.323   6.924  17.610 -0.1522  0.1121  0.0658
 9886W        W52902  26.954   1.196  22.271 -0.0845 -0.1125 -0.0725
 9887W        W52903  24.709   7.546   4.292 -0.2679  0.2586  0.1875
 9888W        W52904  33.983   2.402  18.957  0.0559  0.2279 -0.2151
 9889W        W52905  28.739  33.959  18.915  0.0522  0.1144 -0.0528
 9890W        W52906  19.395  20.734  16.777 -0.0285  0.1353 -0.0041
 9891W        W52907   7.027   0.299   3.387 -0.1364  0.1508 -0.0337
 9892W        W52908  15.637  16.130  22.050 -0.3650 -0.3140 -0.0900
 9893W        W52909   6.833   0.876  11.146 -0.2325 -0.2137  0.4925
 9894W        W52910   6.329  11.535  13.880 -0.0004 -0.1923  0.1062
 9895W        W52911   7.165  21.484  21.959  0.1865  0.2478  0.1112
 9896W        W52912   1.793  22.389   2.529  0.0784 -0.1224 -0.0010
 9897W        W52913  34.553   5.333  16.122 -0.0180 -0.2976 -0.0817
 9898W        W52914   8.238   2.588  17.603  0.0596 -0.1537  0.4040
 9899W        W52915  32.449   4.905  25.064  0.2711  0.0437  0.0594
 9900W        W52916  30.423  17.490  20.058 -0.3714 -0.0225  0.0435
 9901W        W52917  12.987  15.024  17.536  0.0741 -0.0067  0.1547
 9902W        W52918  29.661  32.294  18.702  0.0183  0.2312  0.2477
 9903W        W52919   6.228   0.625  21.729 -0.0167 -0.2331  0.2204
 9904W        W52920  10.989   1.889  25.373 -0.1733  0.1650 -0.0648
 9905W        W52921  10.355  18.770  21.311  0.3867 -0.0833  0.4268
 9906W        W52922   6.925   6.917  22.363 -0.2356  0.1685  0.2436
 9907W        W52923   0.696  16.145   3.940 -0.2536  0.1386 -0.2131
 9908W        W52924  32.833  15.734  24.465  0.3196  0.2022 -0.4003
 9909W        W52925  32.542   8.287   5.584  0.0090  0.2967  0.1622
 9910W        W52926  28.590   2.447  17.065 -0.1981  0.0895  0.0310
 9911W        W52927  26.047   5.083   2.581  0.0301  0.2244  0.1064
 9912W        W52928   5.722  26.233  20.197 -0.3086  0.1087 -0.1097
 9913W        W52929   3.206  18.117  26.022  0.1414 -0.2879 -0.1820
 9914W        W52930  14.073   8.861  21.571  0.1056  0.2469  0.0811
 9915W        W52931  24.005  33.671  20.286  0.4193  0.0752 -0.2615
 9916W        W52932  11.157   2.830   7.596 -0.2867 -0.1982  0.0482
 9917W        W52933   2.759  11.789   6.287 -0.0938  0.2088  0.0841
 9918W        W52934  10.233  12.912  16.246 -0.3999  0.1092  0.1959
 9919W        W52935  20.325  16.512   9.136  0.0098 -0.2844  0.0878
 9920W        W52936  31.450  25.645   0.084  0.1509  0.0402  0.1046
 9921W        W52937   4.643   2.455  19.157  0.0183  0.2373 -0.1247
 9922W        W52938  23.449  26.658  20.854  0.0721  0.1499 -0.3180
 9923W        W52939  23.221  30.858   6.642 -0.1990  0.0507  0.1627
 9924W        W52940  31.975  11.756  10.242 -0.0228  0.2384 -0.3175
 9925W        W52941  10.719  13.010  22.536 -0.1077 -0.1022 -0.2138
 9926W        W52942   0.672  16.653  27.512 -0.0810 -0.0634  0.1976
 9927W        W52943   6.811  32.552   0.619 -0.1437  0.3655 -0.1042
 9928W        W52944   2.600  17.848  16.175  0.1039  0.1596 -0.1260
 9929W        W52945  11.776  20.443  21.738  0.2222 -0.0225  0.0561
 9930W        W52946  31.704   5.807   3.844 -0.1042  0.2144 -0.0494
 9931W        W52947   2.274   4.314   8.904 -0.3089  0.1717 -0.2270
 9932W        W52948  27.369  33.305   1.880 -0.0275  0.5027  0.0544
 9933W        W52949  18.763  22.874  24.624 -0.0784 -0.0487 -0.4790
 9934W        W52950  27.150  32.505   1.103 -0.1344 -0.1023  0.0387
 9935W        W52951  34.032   9.938  15.907  0.0923  0.2282  0.0087
 9936W        W52952  13.517  22.718  15.447 -0.1186  0.1329  0.1930
 9937W        W52953   2.356  18.466  19.566 -0.1717  0.0127  0.5175
 9938W        W52954  15.596   1.213  16.657 -0.1292 -0.0445  0.0200
 9939W        W52955   2.749  11.425  15.654 -0.1432  0.1367  0.3311
 9940W        W52956  30.907   4.211   4.633 -0.0206 -0.2806 -0.0114
 9941W        W52957  16.770  29.056  26.837  0.2932  0.1498  0.0668
 9942W        W52958  28.290  16.047  28.575  0.0306  0.0063  0.3997
 9943W        W52959  21.265   3.491   1.121  0.0693  0.2821  0.0328
 9944W        W52960  19.014  12.579  15.562  0.1259 -0.2150  0.0592
 9945W        W52961   1.275  30.468  26.956  0.1309 -0.0788 -0.1308
 9946W        W52962   7.716  33.561  24.968 -0.2133 -0.1572 -0.1697
 9947W        W52963   3.963  25.368  20.192  0.2788  0.1124 -0.0973
 9948W        W52964  27.611   3.770   9.571 -0.1249  0.3048  0.1950
 9949W        W52965   5.849  24.815  15.794  0.2044 -0.1810 -0.1466
 9950W        W52966  28.711  10.531  26.745  0.1619  0.2591 -0.1903
 9951W        W52967  29.193   2.287   0.765  0.1083 -0.1916  0.0250
 9952W        W52968  21.356  10.693   2.505 -0.1753 -0.0756  0.3542
 9953W        W52969  12.130   4.553  19.226 -0.3206  0.1118 -0.2183
 9954W        W52970  10.172  22.513  16.119  0.2037  0.1243 -0.2126
 9955W        W52971  21.392  12.895  16.645  0.3693 -0.1915 -0.0718
 9956W        W52972   5.845  15.153  20.896 -0.0933  0.2055  0.6130
 9957W        W52973  28.691  14.593  22.231  0.2650  0.0194 -0.0275
 9958W        W52974  22.258  12.398  14.143 -0.3618  0.2038 -0.0864
 9959W        W52975  10.260   9.513  13.979 -0.1029 -0.0750 -0.2153
 9960W        W52976  31.517  19.935  19.548  0.0729 -0.1010  0.0202
 9961W        W52977  31.979  17.182  21.875 -0.2219  0.0821 -0.1207
 9962W        W52978   3.003  12.738  14.343 -0.0451  0.1142 -0.2314
 9963W        W52979  34.629  22.030  19.304 -0.0598 -0.0092 -0.1189
 9964W        W52980   5.602  31.987  19.245 -0.1607  0.5292  0.2038
 9965W        W52981  12.749  10.137  21.148 -0.0543  0.1233 -0.1176
 9966W        W52982   3.433   4.348  18.104  0.2027 -0.3331 -0.0356
 9967W        W52983  11.719  21.760   3.403 -0.1230  0.2697 -0.4540
 9968W        W52984   3.563  10.867  19.818  0.0374 -0.2484  0.1323
 9969W        W52985  27.895  31.791   6.282  0.0251 -0.2400 -0.0407
 9970W        W52986  23.224   5.183  22.840  0.0808 -0.0914  0.0985
 9971W        W52987   5.827  19.368   2.814 -0.3034 -0.0374 -0.2015
 9972W        W52988   1.343  20.488  18.054  0.1310 -0.4875  0.0741
 9973W        W52989  27.809  33.283   0.216 -0.0647  0.0751  0.1133
 9974W        W52990  10.365   6.686  20.332 -0.0356 -0.1325 -0.0917
 9975W        W52991  10.977  11.095  19.062  0.0702  0.1519 -0.0348
 9976W        W52992  10.605  27.395  16.419  0.0161 -0.1119 -0.3250
 9977W        W52993  15.396   7.769  16.812  0.0510 -0.2546 -0.2631
 9978W        W52994   2.496  30.787  27.426 -0.0835  0.2612 -0.0542
 9979W        W52995   0.829  28.704  17.563  0.4533  0.0047  0.0297
 9980W        W52996  26.379  12.397  22.198 -0.3222  0.1393 -0.0921
 9981W        W52997  17.682   9.991  26.999 -0.0915  0.1389 -0.0360
 9982W        W52998  34.520  11.218  15.491 -0.3672  0.3293  0.0240
 9983W        W52999   5.989  12.388   3.824 -0.0450 -0.2716 -0.0277
 9984W        W53000  28.963   7.124  16.281  0.0394 -0.0075 -0.0635
 9985W        W53001   3.998   9.198  26.133 -0.2586 -0.0747  0.0378
 9986W        W53002  16.237  20.454  12.645  0.0343 -0.1829 -0.4080
 9987W        W53003  33.385   4.719  16.398  0.0852  0.1246 -0.1943
 9988W        W53004   6.214  26.077  19.860 -0.3867  0.1235  0.0453
 9989W        W53005  27.623  26.452  17.034  0.0991 -0.1655 -0.1056
 9990W        W53006   2.666   7.692   7.808 -0.0445  0.1837  0.0519
 9991W        W53007  26.162   8.382  17.834  0.0458 -0.1487  0.0946
 9992W        W53008  32.701  34.596  26.952  0.2048 -0.0866  0.2657
 9993W        W53009   8.696   5.650   6.426 -0.4862  0.4317  0.0747
 9994W        W53010  22.687  26.840  22.818  0.1386 -0.0084  0.0522
 9995W        W53011   8.257   5.344  20.510 -0.0746 -0.1291  0.2134
 9996W        W53012   3.755   9.266  15.745  0.1856 -0.0387  0.0643
 9997W        W53013  27.280  21.536  15.856 -0.4658 -0.0872  0.1183
 9998W        W53014  26.676  20.868  25.779  0.1954  0.0498  0.2845
 9999W        W53015  29.426  12.944  28.195  0.0847  0.1755  0.0884
10000W        W53016  11.085   9.432   7.918  0.3470  0.1361  0.1151
10001W        W53017  25.956  12.263  26.587 -0.1242  0.2921 -0.0248
10002W        W53018  21.227  22.407  16.084 -0.2232 -0.2849 -0.0570
10003W        W53019  12.351   9.567  16.927 -0.0512  0.2227 -0.4106
10004W        W53020  21.388   6.362  24.783 -0.3151 -0.1600 -0.1310
10005W        W53021   1.929   8.584  23.601  0.0739  0.0357 -0.1020
10006W        W53022   1.901   0.494  16.744 -0.2595  0.1765 -0.1060
10007W        W53023   0.123   0.759  15.013  0.0082 -0.2616  0.3812
10008W        W53024   1.198   6.121   2.854  0.0939 -0.0832  0.1456
10009W        W53025  23.437   6.297  18.817 -0.1561 -0.1526  0.2077
10010W        W53026  12.838  16.711  26.698  0.0175  0.2435  0.2265
10011W        W53027  28.140  19.288   3.502 -0.0172  0.1040 -0.4285
10012W        W53028  31.199   8.859  16.994 -0.3574  0.1518  0.2989
10013W        W53029   1.982   7.038  20.287  0.1571  0.0515  0.1444
10014W        W53030   9.360   0.298   0.061 -0.1700 -0.3672 -0.0965
10015W        W53031   4.697  16.109   1.464 -0.1305  0.3363  0.0649
10016W        W53032   8.177  27.415  14.947 -0.2362 -0.0069  0.2696
10017W        W53033  29.115  16.906  22.266  0.0817 -0.0496 -0.2145
10018W        W53034  14.501  15.459  22.785 -0.2148  0.0871 -0.2212
10019W        W53035  34.392  12.009  27.624 -0.1993  0.0546  0.0873
10020W        W53036  26.545  20.932  24.021 -0.1693 -0.0632  0.0849
10021W        W53037  21.168  33.041  20.989  0.0661 -0.0182  0.1744
10022W        W53038   9.610  30.471  23.200 -0.0226 -0.0159  0.0215
10023W        W53039  10.272  10.975  23.636  0.1894  0.1618  0.3457
10024W        W53040   2.087   8.102  15.829  0.1133 -0.0313 -0.1033
10025W        W53041  34.676   0.300   1.349 -0.0316 -0.1623 -0.0656
10026W        W53042  29.379  25.939  15.100  0.1473 -0.1468  0.1008
10027W        W53043   4.717  33.467  20.816  0.1678 -0.0612 -0.2672
10028W        W53044  10.384  22.796   4.127 -0.0070 -0.1151 -0.0125
10029W        W53045   8.669  17.354  14.539 -0.0721 -0.0260 -0.1346
10030W        W53046   3.803   9.474   2.000 -0.0768 -0.0776  0.1327
10031W        W53047   3.242  22.682   4.108  0.1406  0.0919  0.2699
10032W        W53048   3.007  19.414  25.291 -0.1573 -0.1445 -0.0634
10033W        W53049  13.789  33.394  16.958 -0.1127 -0.1284 -0.3454
10034W        W53050   3.438  11.629  27.628 -0.1077 -0.3196 -0.2812
10035W        W53051  16.191  29.766   4.193  0.1393 -0.0851  0.0990
10036W        W53052  14.535  20.089   2.341 -0.1504  0.0130 -0.0055
10037W        W53053  14.688   3.072  21.004  0.0821 -0.3445 -0.1396
10038W        W53054  13.875  19.620  24.377 -0.0289  0.0590 -0.0595
10039W        W53055   6.100  19.816  18.932  0.0576  0.1530 -0.0387
10040W        W53056  29.278  13.334  18.938 -0.0373  0.1596 -0.1380
10041W        W53057   8.742  16.417   3.187 -0.0647  0.0197 -0.1024
10042W        W53058  29.515  22.846  21.870 -0.1022 -0.1704  0.1848
10043W        W53059   0.188  33.968  19.779 -0.1767  0.1557  0.0096
10044W        W53060  32.777   5.914  20.280 -0.1090  0.2639 -0.3791
10045W        W53061  15.562   7.908  21.938  0.1453  0.2161  0.0283
10046W        W53062  15.454   4.083  14.632  0.0894 -0.0367  0.1157
10047W        W53063  20.590  31.272  22.658  0.0734 -0.0896  0.2349
10048W        W53064   8.058   7.915  26.417 -0.2045 -0.1873  0.0056
10049W        W53065  32.822  12.354  22.741  0.2142  0.0366  0.1029
10050W        W53066   8.789  11.315  15.859  0.2602 -0.0051 -0.0382
10051W        W53067  24.609  26.698  17.526 -0.0820 -0.2790 -0.0330
10052W        W53068   5.760  16.130  25.333 -0.0490  0.1000  0.1384
10053W        W53069   3.310  12.450   8.207  0.1732 -0.1189  0.0844
10054W        W53070  31.452  21.312  15.991  0.0769  0.2223 -0.4344
10055W        W53071   3.092   8.593   6.003 -0.2046 -0.1228 -0.0286
10056W        W53072   7.051  33.934  17.931 -0.0293 -0.0861  0.2221
10057W        W53073   9.841  19.433  17.799 -0.4436 -0.1745 -0.4442
10058W        W53074  24.542  16.306  13.096  0.0556  0.0671 -0.1296
10059W        W53075  24.342  13.418  16.174 -0.5609  0.0872 -0.2425
10060W        W53076  23.936  24.132  25.821 -0.3328 -0.2059  0.1176
10061W        W53077   6.020  21.011   3.656 -0.2593  0.2737 -0.1369
10062W        W53078  17.086  25.530  15.981 -0.2939 -0.0295  0.1705
10063W        W53079   3.920  23.543   5.467 -0.3593 -0.0504  0.0537
10064W        W53080  27.668  30.442  16.182 -0.0516 -0.2148  0.2018
10065W        W53081   3.560   0.120  19.374  0.1119  0.0760  0.2402
10066W        W53082  15.865   4.476  17.234  0.2057 -0.1487 -0.2504
10067W        W53083  28.514   8.140  18.519 -0.1576 -0.0841  0.0812
10068W        W53084   2.310  23.571   2.378  0.0237 -0.1496  0.3223
10069W        W53085  29.599  26.424  16.236 -0.2212 -0.0689 -0.3320
10070W        W53086   0.684  18.455  25.841 -0.3245 -0.3320 -0.0263
10071W        W53087  32.600   7.621  14.991  0.3248  0.2450 -0.3286
10072W        W53088  32.545  19.105   0.308  0.1019  0.2023 -0.0680
10073W        W53089  28.184   4.229  23.396  0.1594 -0.0822  0.0365
10074W        W53090  28.026  23.519  21.775  0.3241 -0.6443 -0.0222
10075W        W53091   4.947  19.265  28.815  0.2938 -0.1859 -0.0029
10076W        W53092  30.642  17.148  17.261 -0.0548 -0.2789 -0.0291
10077W        W53093   0.466  17.252  20.919  0.1790  0.0518 -0.0888
10078W        W53094  25.627  23.342   9.278 -0.1258  0.4271 -0.2245
10079W        W53095  15.274  26.367  18.571  0.2233  0.0188  0.0245
10080W        W53096  31.243  14.388  28.471  0.0783  0.0635 -0.2087
10081W        W53097   4.826   7.161  17.236 -0.0873 -0.0743  0.0464
10082W        W53098  28.604  14.096  17.354  0.1882  0.0539  0.2823
10083W        W53099  31.832  23.416  24.944  0.0348  0.1446  0.1503
10084W        W53100   4.990  10.174  21.241  0.0924 -0.1122 -0.2992
10085W        W53101  30.923  23.326  20.513  0.1757 -0.0447  0.0668
10086W        W53102   6.234  23.981   7.576  0.1936 -0.2215 -0.1600
10087W        W53103  33.231  24.668  22.867  0.2185 -0.1483  0.1815
10088W        W53104  27.772  34.214  19.935 -0.0786 -0.1094  0.0372
10089W        W53105  15.608   6.501   8.011  0.0459  0.0572 -0.2706
10090W        W53106  24.098   6.717   4.307  0.0593 -0.0185 -0.3133
10091W        W53107   5.475  21.891  19.858  0.0210 -0.1621  0.0661
10092W        W53108  33.485  15.532   6.998  0.0064 -0.2121 -0.1792
10093W        W53109  31.461   0.455  18.709  0.3460  0.1871  0.0854
10094W        W53110  26.134  24.624  19.807  0.0771  0.2112 -0.0345
10095W        W53111  30.627  18.631  18.954  0.0804 -0.2703 -0.2028
10096W        W53112   2.090  10.628  25.497 -0.0961 -0.0174  0.1853
10097W        W53113  17.431   8.417   9.843 -0.1072 -0.2777  0.0299
10098W        W53114  32.070  32.241   8.826 -0.1000  0.3423  0.4693
10099W        W53115  13.905  23.896  18.584  0.1307 -0.3030  0.1816
10100W        W53116  26.695  31.748  16.273  0.1260 -0.0104  0.0890
10101W        W53117  24.373  16.413  25.674  0.1139  0.2019  0.3057
10102W        W53118   2.660  10.719  17.452 -0.1326 -0.0474  0.0925
10103W        W53119   6.117  16.815  26.642  0.4387  0.1121 -0.0966
10104W        W53120  26.555   4.847  20.879  0.1652 -0.1649  0.0652
10105W        W53121  26.623  20.735  24.484  0.0701  0.2533 -0.0139
10106W        W53122  27.572   2.265  23.595  0.1352  0.0714  0.2558
10107W        W53123  30.238  18.101  10.026  0.1403 -0.1749 -0.1985
10108W        W53124  12.731  26.622  21.800  0.0809  0.0748  0.1003
10109W        W53125  34.379  17.829   9.977  0.0506 -0.0760  0.0799
10110W        W53126   4.638   1.962  18.966  0.0139 -0.2082 -0.4511
10111W        W53127  31.645  17.358  20.603  0.1981 -0.0683 -0.0987
10112W        W53128   0.355  12.832  10.292  0.0677 -0.0287  0.1611
10113W        W53129   4.478   7.932  17.026  0.1056  0.3168  0.1642
10114W        W53130  19.259   6.673  15.194 -0.0126 -0.0106  0.0201
10115W        W53131  29.481  10.490  27.270  0.4698  0.0884  0.1268
10116W        W53132  16.568  28.935  24.204 -0.1898  0.0837  0.1752
10117W        W53133  33.590  20.993  20.350  0.1608  0.0765  0.0852
10118W        W53134  24.154   6.582  24.035 -0.0439  0.0321  0.1028
10119W        W53135   1.565   2.010   3.394 -0.0756  0.1290  0.0279
10120W        W53136   9.099   4.769  18.857  0.1546  0.0370  0.3217
10121W        W53137   7.985  19.606  25.683  0.3402 -0.2164  0.2476
10122W        W53138  17.927  30.444  20.716  0.1566  0.4208 -0.0733
10123W        W53139   3.197  18.683  26.046  0.3400  0.4579  0.1496
10124W        W53140  32.608   3.478  16.927  0.0599 -0.2995 -0.1527
10125W        W53141  30.239  23.198  17.991 -0.1112  0.0288  0.1587
10126W        W53142  11.903   9.334   4.274  0.1067  0.0503  0.3058
10127W        W53143  26.614  18.013   5.288 -0.0312 -0.0520  0.3651
10128W        W53144  15.671   4.531  19.544 -0.1079 -0.0295  0.2632
10129W        W53145   5.634  21.629  17.243 -0.2277  0.2785 -0.3268
10130W        W53146  30.275   6.784  17.621  0.4815 -0.0623 -0.2381
10131W        W53147   7.329  13.733  25.782  0.0276  0.0914  0.4717
10132W        W53148  32.242   4.624   0.678 -0.2238 -0.0479  0.0223
10133W        W53149  26.365  11.307  26.866  0.2999  0.0644  0.0641
10134W        W53150   4.071  24.993  24.068  0.0317 -0.0067  0.0165
10135W        W53151  15.668  24.166  15.894 -0.0922  0.1314 -0.1081
10136W        W53152  30.273  10.429  21.646  0.1635  0.0671  0.1560
10137W        W53153  29.548  19.299   2.063 -0.0708 -0.1214  0.3958
10138W        W53154  22.025   9.715  22.548 -0.2485 -0.1517  0.0294
10139W        W53155   2.352  12.642   9.787 -0.4041  0.2509 -0.1274
10140W        W53156  24.278   9.913   9.588 -0.1886 -0.1095 -0.3954
10141W        W53157  12.699  13.501  13.593  0.0475 -0.0260  0.2836
10142W        W53158  26.300  11.463   1.222 -0.2143  0.0861  0.0942
10143W        W53159   3.907  29.289  28.998 -0.0240  0.0624  0.2333
10144W        W53160  12.713   2.544  16.456 -0.1157 -0.1101  0.0839
10145W        W53161  31.690  33.855   8.435 -0.0305  0.3897  0.1573
10146W        W53162  34.047  26.087   3.547  0.1485 -0.2311 -0.0011
10147W        W53163  33.018   6.709  15.973  0.1314 -0.2171  0.0929
10148W        W53164  33.194  32.110   8.716 -0.2039  0.2473  0.0321
10149W        W53165   8.688   4.464   8.897  0.0222 -0.1452  0.1834
10150W        W53166  14.289  21.799  23.919 -0.2966 -0.0695  0.0108
10151W        W53167  25.275   6.715  15.761 -0.3762 -0.0954 -0.0322
10152W        W53168   4.118   3.261  25.923  0.0645 -0.0503 -0.0314
10153W        W53169  15.020  21.105   5.603  0.2566  0.1127 -0.1141
10154W        W53170  34.608  13.132  21.844 -0.1596  0.0997 -0.1376
10155W        W53171   6.152  22.568  28.635 -0.0518 -0.0527  0.0001
10156W        W53172  17.608  27.122  24.074 -0.2005 -0.0530  0.3177
10157W        W53173  10.250  19.786  21.969 -0.2934 -0.0868 -0.2276
10158W        W53174  25.421  18.695  22.949  0.0260 -0.0546  0.0291
10159W        W53175  23.793   7.797  14.611  0.2870  0.0696 -0.0813
10160W        W53176  31.647  12.826   0.155 -0.2076  0.0394 -0.1127
10161W        W53177  33.946   6.617  23.842 -0.0571 -0.0757 -0.1550
10162W        W53178   3.288  33.056  28.348  0.2606 -0.2598 -0.1820
10163W        W53179  34.159  12.924  19.870 -0.0000 -0.0735 -0.1113
10164W        W53180   0.224   8.334  25.808 -0.0157  0.2073 -0.0085
10165W        W53181  16.595  12.109  15.881  0.2261  0.4291  0.1949
10166W        W53182   8.885   9.391   4.031  0.1575 -0.0194 -0.0930
10167W        W53183  34.279  27.615  16.139  0.1291  0.1257  0.0384
10168W        W53184  10.886  31.552  26.934  0.0333 -0.0819  0.0549
10169W        W53185  30.109   5.994   4.787 -0.1800  0.3426  0.0234
10170W        W53186   4.359  11.110   5.548 -0.0154 -0.1886  0.1142
10171W        W53187   1.612  17.622  20.592  0.2568  0.3665  0.2544
10172W        W53188   6.228  20.762  17.089  0.2965 -0.1661 -0.0050
10173W        W53189  26.462   9.113  17.340 -0.1456 -0.1903 -0.2387
10174W        W53190  12.526  21.883  22.936  0.0943 -0.2854  0.2209
10175W        W53191   5.964  22.912  29.303  0.0051  0.0397 -0.1959
10176W        W53192   1.404  14.409  23.848 -0.2293 -0.3845 -0.0430
10177W        W53193  14.209  21.980  12.834  0.1353 -0.2160  0.0892
10178W        W53194  10.975  33.695  25.655 -0.0133  0.0305  0.0848
10179W        W53195  30.931  17.777  26.388  0.0116  0.1013  0.1681
10180W        W53196  29.980  24.678  19.544 -0.0103 -0.1674 -0.1416
10181W        W53197  26.193  11.273  27.778  0.0657 -0.3235  0.2911
10182W        W53198  22.743  23.730   5.779  0.0885  0.2393 -0.0998
10183W        W53199   7.729  16.328   4.366  0.2135 -0.1279  0.3325
10184W        W53200  31.549  30.352  20.203  0.0734 -0.0931 -0.1570
10185W        W53201  34.607  14.602  19.472  0.1189  0.2587 -0.1910
10186W        W53202  24.381  16.084  17.695  0.0221  0.0022  0.0336
10187W        W53203  17.621   1.339   2.963 -0.0924  0.1315  0.1845
10188W        W53204  28.889   8.156   4.562 -0.0506 -0.2223 -0.1167
10189W        W53205  34.301  16.559  23.396  0.2806 -0.2805 -0.2295
10190W        W53206  27.611  16.256  17.996 -0.0216  0.0428  0.0079
10191W        W53207   1.313  12.268  14.960 -0.5351  0.2303  0.1629
10192W        W53208   4.180  20.441  22.327 -0.2535  0.4603  0.2564
10193W        W53209  25.830  32.856  16.826 -0.0995  0.3386 -0.0215
10194W        W53210  30.340   4.328   5.279  0.0406 -0.0755  0.3186
10195W        W53211  33.571  26.290  27.354 -0.1612 -0.2754  0.1356
10196W        W53212   3.447  24.628   8.356 -0.1542 -0.0250 -0.0574
10197W        W53213  18.304   8.427  18.971  0.1010 -0.0577 -0.1020
10198W        W53214   5.871  24.929  14.775  0.1337 -0.2761  0.1304
10199W        W53215  32.525  20.404  20.583  0.0765  0.0397  0.3490
10200W        W53216   0.868  13.314   7.600  0.0538 -0.2259  0.1141
10201W        W53217   6.301   0.716   7.192 -0.1317  0.0271 -0.0307
10202W        W53218  31.411  28.396  28.960 -0.0297 -0.0115  0.2644
10203W        W53219  20.689  16.033  23.429  0.0055 -0.1168 -0.0386
10204W        W53220  10.234   9.890  15.095  0.0299 -0.3546  0.1912
10205W        W53221  17.170  19.893   1.766  0.0552 -0.0754  0.1606
10206W        W53222   5.606  22.294   6.229 -0.0690 -0.0815  0.0218
10207W        W53223  15.523   7.667  28.008 -0.1696 -0.1044 -0.0800
10208W        W53224   9.207   8.758  29.112  0.1529 -0.1458 -0.1826
10209W        W53225  17.339  17.349  25.435 -0.0700  0.0881 -0.1254
10210W        W53226   3.011   4.912  13.781  0.1389  0.1450  0.1172
10211W        W53227  26.237   1.060  10.127  0.0696 -0.0746 -0.2292
10212W        W53228  26.393  15.809  22.747  0.4472  0.1644 -0.2812
10213W        W53229  27.455  21.209   5.704 -0.0241 -0.1024 -0.1806
10214W        W53230  12.268   4.062  19.252 -0.1948 -0.2498  0.0310
10215W        W53231   8.950   7.778   9.731  0.0525 -0.0343  0.0086
10216W        W53232   2.769  17.351  22.455 -0.2403 -0.1638  0.0507
10217W        W53233   6.487  33.721   7.075 -0.0889  0.0690 -0.1627
10218W        W53234  27.915   7.698   1.887  0.2226  0.1896 -0.0977
10219W        W53235   5.167  10.103   0.563  0.0488  0.0119 -0.0827
10220W        W53236  33.210   3.110  22.855 -0.0598  0.0087  0.2745
10221W        W53237  27.996  11.196   0.825  0.2611 -0.2767 -0.1087
10222W        W53238   0.676  29.720   3.742 -0.1939  0.0486  0.2502
10223W        W53239   4.372  15.813  25.794  0.0894 -0.0454 -0.0850
10224W        W53240  29.175   1.543  19.899 -0.0103 -0.0978 -0.0998
10225W        W53241   8.863   8.117  23.592  0.4311  0.0316 -0.2180
10226W        W53242  30.799  28.446   1.189  0.1025 -0.0212 -0.4369
10227W        W53243  30.791  28.051  16.896 -0.0884 -0.1490 -0.1632
10228W        W53244  10.179  13.625  24.004  0.0254  0.0074 -0.1102
10229W        W53245   1.889  21.031  14.113 -0.0855 -0.1590  0.1093
10230W        W53246   2.158   1.659  18.761  0.2151 -0.0680  0.3629
10231W        W53247  33.720  18.476  17.133 -0.0106  0.2294  0.2976
10232W        W53248  12.457  21.631  26.982 -0.1654 -0.0743 -0.1623
10233W        W53249  24.650  10.845   3.189 -0.0624 -0.2502 -0.0879
10234W        W53250  12.604   5.676  23.890  0.2241 -0.0970  0.0154
10235W        W53251  32.028  19.559  28.822 -0.1633 -0.1561 -0.1121
10236W        W53252   3.971  24.597  24.416  0.0177 -0.0965 -0.2354
10237W        W53253   5.589   5.759  23.539  0.2016  0.0498  0.0779
10238W        W53254   4.798  15.584  21.111  0.1666  0.0328 -0.1954
10239W        W53255  25.296  11.137   6.756 -0.2431  0.0615 -0.2039
10240W        W53256  11.594  14.527  12.537  0.0575 -0.1213  0.3162
10241W        W53257  14.458  18.901  11.519 -0.0410  0.1033 -0.1546
10242W        W53258  19.587  18.924  28.524  0.0323 -0.0482 -0.0817
10243W        W53259   6.298   6.750  24.029  0.1395 -0.0137 -0.0101
10244W        W53260  33.975  28.323  27.040  0.2620  0.0759 -0.1169
10245W        W53261   9.462   3.430   8.511  0.2457 -0.1433 -0.3245
10246W        W53262   0.172   8.731   0.417  0.1031  0.1551  0.0384
10247W        W53263  27.631  21.337  26.677 -0.0957  0.4002 -0.0297
10248W        W53264   5.705  25.177  23.382 -0.1079  0.1394  0.3436
10249W        W53265   4.627  15.181  23.897  0.2477 -0.2342 -0.0535
10250W        W53266   0.213  33.362  21.579 -0.1467  0.0354 -0.0570
10251W        W53267  33.398  25.304  17.627  0.3464 -0.0583 -0.0716
10252W        W53268  26.069   8.062  22.626  0.1002 -0.1757  0.1149
10253W        W53269  18.975   4.194  15.412 -0.1525  0.1491 -0.3311
10254W        W53270  21.068  33.085  26.160  0.2558 -0.0226 -0.0213
10255W        W53271   3.569  13.864  18.430 -0.1238 -0.0157  0.2704
10256W        W53272  11.256  13.799  23.334 -0.0386 -0.0658 -0.0599
10257W        W53273   2.901  17.987   2.616  0.2090 -0.1489 -0.0582
10258W        W53274  15.848  13.982  20.162 -0.0744  0.0856  0.3188
10259W        W53275  15.993  25.521   5.532 -0.0003  0.2568  0.3082
10260W        W53276  14.130   9.264  17.868 -0.0056  0.0314 -0.0958
10261W        W53277  26.175   9.614   3.989 -0.2292 -0.0775 -0.0146
10262W        W53278  27.259  13.529  28.418 -0.0055 -0.1844 -0.2787
10263W        W53279   6.331  12.367  28.661  0.2541 -0.1007 -0.1057
10264W        W53280   9.605   7.198  19.119  0.1314 -0.0966  0.1009
10265W        W53281  11.950   6.465  19.103  0.0814  0.1371 -0.0269
10266W        W53282  30.130  13.020   8.680 -0.0476  0.0795 -0.0351
10267W        W53283   4.825  26.976   9.260  0.0374  0.1203 -0.1174
10268W        W53284   6.750  17.189   7.933  0.0224  0.3723 -0.1281
10269W        W53285  27.785  10.441  22.940 -0.0279 -0.0749 -0.0270
10270W        W53286  13.969  33.697  18.251  0.0038 -0.1125 -0.2021
10271W        W53287   0.331  10.164  23.845 -0.2344  0.1066 -0.2371
10272W        W53288   9.754  19.612   7.495 -0.1723  0.0173 -0.1547
10273W        W53289  32.928  21.360  28.747  0.1944 -0.1490 -0.0322
10274W        W53290  23.671  12.703  24.966 -0.3329 -0.3606 -0.5508
10275W        W53291  23.221  12.914  23.981 -0.1008  0.1410  0.0390
10276W        W53292  12.517  13.360  20.723 -0.0280 -0.1121 -0.2096
10277W        W53293  13.390  19.107  25.064  0.1036 -0.1819  0.1343
10278W        W53294  19.155   8.674   0.653 -0.0980  0.0796  0.1235
10279W        W53295   6.890   1.401   1.063 -0.0915 -0.0141  0.2546
10280W        W53296  23.667   5.851  16.591 -0.2016  0.1091 -0.2011
10281W        W53297  24.176  10.085  23.235  0.1319  0.0959 -0.0417
10282W        W53298  12.742   8.829   8.778  0.0266 -0.1719  0.0417
10283W        W53299  10.658  16.956  28.631  0.5090 -0.2364  0.2898
10284W        W53300  21.679  29.749  24.614 -0.2420  0.3469 -0.3588
10285W        W53301  27.572  18.600   1.134 -0.1157  0.0172 -0.1335
10286W        W53302  34.230   8.472   2.454  0.1039 -0.1308  0.0573
10287W        W53303   5.818  15.320   3.077  0.0555 -0.0286  0.1250
10288W        W53304  33.313  19.749  18.505  0.3333 -0.0625  0.2646
10289W        W53305  25.777  15.216  13.593  0.1962 -0.1617  0.0415
10290W        W53306   7.869  20.480  15.735 -0.0850 -0.0142  0.2877
10291W        W53307  14.201   2.773  24.312  0.1735 -0.0574  0.0248
10292W        W53308  32.508  15.368  19.954 -0.3623 -0.1122 -0.1730
10293W        W53309   8.913  25.699   0.070  0.0453  0.0233  0.0944
10294W        W53310  25.199  26.185  26.513  0.1514  0.0158  0.1080
10295W        W53311  20.144  20.855  15.328 -0.0038 -0.1622 -0.1141
10296W        W53312   7.353  14.480  19.775  0.2517 -0.1005 -0.1324
10297W        W53313  11.843  20.223  27.185 -0.2023  0.1649  0.1129
10298W        W53314  11.557  32.518  27.420 -0.3710  0.0624  0.0804
10299W        W53315   4.445  24.401  26.454 -0.1096 -0.1950 -0.0508
10300W        W53316  27.725  26.745  29.086 -0.1224 -0.2070 -0.0789
10301W        W53317   7.836   6.157   7.322 -0.3523  0.4029 -0.1452
10302W        W53318   1.472  14.125   2.180  0.0980 -0.1327 -0.0475
10303W        W53319   8.053   3.369  23.569 -0.1184  0.0318  0.0849
10304W        W53320  32.061  12.904  21.489  0.3318 -0.3208  0.1239
10305W        W53321   8.962   0.265  24.969 -0.0262  0.0758 -0.0642
10306W        W53322  26.940   4.143  28.448  0.0320  0.0537 -0.0614
10307W        W53323  33.169  22.273  18.006 -0.1249 -0.0553 -0.0873
10308W        W53324   4.146   7.184   8.230 -0.4930  0.1192 -0.0490
10309W        W53325  10.204  15.967  24.440  0.2354 -0.2997 -0.1137
10310W        W53326  34.586   5.987  28.261  0.0491  0.1783 -0.0457
10311W        W53327   1.765  17.508   0.248  0.2148 -0.1534  0.3450
10312W        W53328   0.667  17.172  22.572 -0.0994  0.2464  0.2336
10313W        W53329  30.405  10.625  22.186  0.1260  0.1249 -0.2410
10314W        W53330   4.079   9.666  18.211 -0.0645 -0.1022  0.2768
10315W        W53331  28.549  13.389   0.496  0.3616 -0.0095 -0.2875
10316W        W53332   7.275   9.602   9.250 -0.1727  0.1767 -0.2958
10317W        W53333  25.255   0.708   0.894 -0.2732  0.1962 -0.2643
10318W        W53334  10.604   8.667  19.599 -0.1251 -0.0612 -0.0665
10319W        W53335  30.453   4.763   9.360  0.0026  0.1790 -0.0672
10320W        W53336   8.740  28.167  15.328 -0.2760  0.3483  0.0797
10321W        W53337  12.430  23.284  21.161 -0.0193 -0.0999 -0.0904
10322W        W53338  28.908  28.851  22.306  0.2815  0.2958 -0.0756
10323W        W53339   6.758  26.349   7.457  0.2031  0.0848  0.0544
10324W        W53340   7.558  16.867   6.395 -0.1044 -0.1005 -0.0291
10325W        W53341   5.148   9.230   0.361  0.2124  0.0478  0.0873
10326W        W53342   7.066   4.780   2.235 -0.0493  0.0346  0.2545
10327W        W53343   5.847   8.111   6.290 -0.0156 -0.4211 -0.0844
10328W        W53344  27.085   4.975  23.510 -0.3029 -0.0405 -0.0653
10329W        W53345   7.691  13.141  17.414  0.2062 -0.1161  0.0237
10330W        W53346  34.159   9.116  26.045  0.0265  0.3390 -0.1766
10331W        W53347  17.242  23.168  16.214 -0.0361 -0.1385 -0.0108
10332W        W53348  33.022  15.500  20.722  0.3606  0.3006 -0.1627
10333W        W53349  21.079  21.903   7.264 -0.0097 -0.1468  0.0317
10334W        W53350  25.299   9.917  14.961  0.2031 -0.2179  0.1702
10335W        W53351   6.438   4.724  26.106 -0.0986 -0.0626 -0.0528
10336W        W53352  13.743  13.419  28.580  0.1048  0.1344  0.1486
10337W        W53353  32.900   9.007  15.980 -0.0694  0.2643  0.1992
10338W        W53354  11.611  30.730  24.314  0.0597  0.0274  0.1814
10339W        W53355  32.120  14.259   0.681  0.0136 -0.0314  0.2519
10340W        W53356  11.480  31.961   3.314 -0.0287 -0.2178 -0.3721
10341W        W53357  11.670   1.342  22.593 -0.1866  0.2559 -0.4856
10342W        W53358  30.155  19.309  15.336  0.0153  0.4283 -0.3197
10343W        W53359   1.749  31.095  27.517 -0.2365 -0.2171  0.0263
10344W        W53360  25.979  32.534  25.354  0.0759 -0.2615 -0.2779
10345W        W53361  26.392   5.811  19.371 -0.1006  0.1981  0.1777
10346W        W53362  28.106   3.657  19.821 -0.2737  0.1841 -0.0418
10347W        W53363   7.538   9.002  23.322  0.0109  0.1523  0.0640
10348W        W53364   0.734  13.052   4.853 -0.0873 -0.1219  0.1194
10349W        W53365   5.335   6.086   1.971 -0.1822  0.1065  0.0304
10350W        W53366   0.723   6.055  25.461  0.0273 -0.1559  0.3680
10351W        W53367  13.109  22.470  16.821 -0.2059  0.1227  0.0931
10352W        W53368   4.961  10.536   0.345 -0.0871 -0.1933 -0.2865
10353W        W53369  27.681   6.419   0.150 -0.1170  0.1142  0.1148
10354W        W53370  31.908  17.550  26.065  0.0893 -0.0200 -0.2501
10355W        W53371   2.108   8.309  18.640 -0.3572  0.1086  0.0873
10356W        W53372  26.869  10.503  18.402  0.4472  0.1087 -0.2664
10357W        W53373  34.306  16.141  23.827 -0.1313 -0.0451 -0.5284
10358W        W53374  10.988   0.168  25.190 -0.1296 -0.0254 -0.2063
10359W        W53375   3.528  24.843  28.295  0.1100  0.2391 -0.2402
10360W        W53376   7.997   9.736  25.463 -0.0326 -0.0687  0.1632
10361W        W53377  10.558   6.293   8.367  0.0008 -0.0461 -0.2660
10362W        W53378   6.242   5.994  15.171 -0.2102  0.3684 -0.1900
10363W        W53379   4.652  15.671  27.355 -0.0212 -0.1099 -0.0404
10364W        W53380   8.849   9.187  25.389 -0.2459 -0.1664  0.1753
10365W        W53381  19.381  17.994  27.294 -0.1041  0.0028  0.3526
10366W        W53382   5.730   9.757  27.843 -0.1149  0.0954 -0.0725
10367W        W53383  31.865   4.647  17.764  0.0629  0.1258 -0.4641
10368W        W53384  10.033   0.814  16.690  0.1197 -0.1034 -0.3452
10369W        W53385   7.650   5.171  17.255 -0.0923 -0.2661 -0.0403
10370W        W53386   6.357  34.036   0.362 -0.0867  0.1425  0.2551
10371W        W53387  13.350   9.023  24.881 -0.1150  0.0365 -0.0944
10372W        W53388   4.993  15.141  17.692  0.0501 -0.2249  0.1513
10373W        W53389   5.022   7.346   2.144 -0.0923  0.3371 -0.0678
10374W        W53390  29.248  17.878  18.142 -0.1284  0.2544  0.1670
10375W        W53391   2.073  21.623   8.532 -0.1859 -0.4036 -0.1133
10376W        W53392  27.919   4.271  22.893  0.1978  0.1845 -0.0193
10377W        W53393  17.248  32.785  28.997 -0.1811  0.1281  0.2094
10378W        W53394  33.842  19.165   6.885 -0.0604  0.0462 -0.0186
10379W        W53395   3.382  28.918   3.125 -0.1604  0.1285 -0.3359
10380W        W53396  34.467   8.861  23.678 -0.0732 -0.0281  0.1117
10381W        W53397  18.272  31.285  22.655 -0.3861 -0.0086 -0.2037
10382W        W53398  24.634  18.664  21.081  0.0252  0.1844 -0.2061
10383W        W53399   8.541   6.644  20.577  0.0148 -0.2748  0.1597
10384W        W53400  22.569   6.497  21.113 -0.1952 -0.0267 -0.2668
10385W        W53401  18.350  14.361  11.836  0.0843  0.1576 -0.1411
10386W        W53402  15.508  21.128  19.976  0.1369 -0.3116  0.3770
10387W        W53403  11.583  19.659  13.867  0.2057  0.0552  0.1724
10388W        W53404   3.765   3.924  17.001  0.2360  0.0170  0.2427
10389W        W53405   4.444   4.946  27.690  0.0968  0.1153 -0.0661
10390W        W53406  11.599  31.634  18.435 -0.1915 -0.3030 -0.3177
10391W        W53407   0.575  19.733   2.520 -0.1253 -0.3658  0.6086
10392W        W53408  28.016   2.811  27.789  0.1939 -0.0622  0.0310
10393W        W53409  20.885  30.377  26.111  0.0045  0.3375 -0.2406
10394W        W53410  28.753  11.071  28.037  0.0297 -0.1947 -0.0632
10395W        W53411  30.896  21.723  22.649 -0.2443  0.0390 -0.0895
10396W        W53412  31.173  26.829  22.529 -0.0715  0.0638 -0.2096
10397W        W53413  30.324   5.375   5.481 -0.4304 -0.0755 -0.1041
10398W        W53414  28.643  23.483   7.908 -0.2236  0.1008  0.0067
10399W        W53415  32.569  21.399   0.776  0.2906 -0.3093  0.0147
10400W        W53416   9.169   2.981   8.652 -0.0287 -0.1501 -0.3071
10401W        W53417  21.670  20.846  20.425 -0.3125  0.0096  0.1276
10402W        W53418  19.602  33.344  27.130  0.1472 -0.3307  0.0847
10403W        W53419  29.987  10.747   4.744 -0.2888  0.1510  0.0852
10404W        W53420   3.760  21.689   5.540 -0.0270 -0.0432 -0.1464
10405W        W53421  24.652  12.468  15.073  0.3468  0.1774 -0.0987
10406W        W53422  23.770  29.957   2.708 -0.0652  0.0215  0.0652
10407W        W53423  24.186  31.044  24.818  0.2428  0.1718 -0.2286
10408W        W53424   4.990  16.400  29.216  0.3224 -0.4023 -0.1514
10409W        W53425  17.748  10.292  24.211 -0.2162  0.2480 -0.0985
10410W        W53426  31.005  17.225  28.346  0.1266 -0.1118 -0.2091
10411W        W53427  30.271  15.670  25.862 -0.0667 -0.0199  0.0168
10412W        W53428   1.943  24.870   0.210 -0.0828  0.0993  0.3744
10413W        W53429   4.633  23.757  22.731 -0.3616  0.2627 -0.0331
10414W        W53430  30.586  27.486   1.168 -0.3649 -0.4424  0.1984
10415W        W53431   9.349  17.635  18.405 -0.0844  0.2169  0.0890
10416W        W53432   4.393  17.955  24.361 -0.1103  0.2002  0.0210
10417W        W53433  12.277  11.852   2.303 -0.0960  0.2171  0.0371
10418W        W53434  33.502  28.776  27.622  0.3614  0.0075  0.1227
10419W        W53435   7.935   3.690  23.166 -0.0971  0.0418 -0.0416
10420W        W53436  17.903  12.364  27.339 -0.1179 -0.0606  0.0975
10421W        W53437  27.991  26.599  11.425  0.1148  0.1873  0.0640
10422W        W53438  28.243  13.371  21.966 -0.0786 -0.0424  0.1339
10423W        W53439  26.925  14.980   9.518  0.1479  0.2884 -0.3160
10424W        W53440  26.935  14.583  16.196  0.1220 -0.2120  0.2193
10425W        W53441   1.910   9.610   2.854  0.0816  0.2523 -0.3200
10426W        W53442  31.873  24.977  17.216  0.2352  0.2407 -0.1855
10427W        W53443  25.687   8.068  17.023 -0.1475  0.2977 -0.0394
10428W        W53444   3.455   2.609   5.250 -0.0010 -0.0479  0.0260
10429W        W53445   1.499  14.883   2.337 -0.2167 -0.0002 -0.0320
10430W        W53446   4.507   8.702   4.192 -0.0069  0.2969 -0.0379
10431W        W53447   4.294   9.579  22.147 -0.1009  0.0650 -0.0204
10432W        W53448   6.474  28.238  16.953  0.0973  0.0094 -0.2402
10433W        W53449   0.513  32.488   5.386  0.0684 -0.1615 -0.1555
10434W        W53450   3.493  24.912   1.627 -0.0346 -0.0854 -0.3257
10435W        W53451  26.136  33.983  28.843  0.3127  0.1575  0.2236
10436W        W53452  23.085  17.330  20.556  0.0032 -0.2561 -0.0156
10437W        W53453   9.963  29.851  13.891  0.0296 -0.0971  0.3003
10438W        W53454   4.748  19.469  14.102 -0.0618 -0.2206  0.0402
10439W        W53455  19.771  32.401  24.358 -0.1700 -0.0781 -0.1947
10440W        W53456   5.676  25.317  17.746  0.3469 -0.1596  0.2429
10441W        W53457  33.372  13.091  19.824  0.2629 -0.0327 -0.0674
10442W        W53458  34.376   7.293  28.480 -0.0786  0.2697 -0.0778
10443W        W53459  28.672  20.292  16.908 -0.2086 -0.1791 -0.3477
10444W        W53460   9.668  18.247   2.873 -0.0915  0.0775  0.1025
10445W        W53461   1.535  12.973   1.738 -0.4312  0.1942 -0.1401
10446W        W53462   0.378  27.798  16.763 -0.2219  0.0349 -0.2138
10447W        W53463   7.703  29.151  26.603 -0.6261 -0.0090 -0.4003
10448W        W53464  11.291  10.056  26.725  0.1200 -0.2836 -0.0299
10449W        W53465  18.678  14.608  29.228 -0.0227  0.0971  0.0244
10450W        W53466   0.003   2.847  10.098  0.0342 -0.0095 -0.1947
10451W        W53467  11.123  15.170   5.200  0.0987  0.0391  0.0956
10452W        W53468  34.774  27.789   8.506  0.0228 -0.1490 -0.0633
10453W        W53469  20.862  15.350  28.360 -0.1098  0.2846  0.2199
10454W        W53470  26.177  30.519  11.268 -0.0991 -0.1561 -0.0375
10455W        W53471   7.487  17.612  14.201  0.0116  0.3131  0.1075
10456W        W53472   6.399   7.780  27.683 -0.0967 -0.1330 -0.2527
10457W        W53473  22.390  17.964  20.135 -0.0095  0.0274 -0.1327
10458W        W53474  30.486   5.927   1.094  0.0718 -0.0320 -0.2136
10459W        W53475  27.883  22.918  16.767  0.1418 -0.1740  0.2920
10460W        W53476  13.224  10.485  13.985  0.1507  0.0629 -0.0988
10461W        W53477   6.352  21.285  24.577 -0.2040  0.2132 -0.0224
10462W        W53478  26.862  26.150  16.135 -0.0693  0.0779  0.0488
10463W        W53479  27.017   8.552  25.823  0.2102  0.0242 -0.0602
10464W        W53480  25.407  23.694  28.534 -0.1732  0.3758 -0.0393
10465W        W53481  27.663  23.639   0.232 -0.0310  0.0825 -0.4041
10466W        W53482  11.768  19.220  13.657 -0.0679 -0.0930  0.2324
10467W        W53483   1.040  21.599  16.574  0.1927 -0.5347 -0.0209
10468W        W53484  13.080  22.691  16.346  0.0046  0.2069  0.2042
10469W        W53485   5.045   3.272  20.905  0.1628 -0.0968 -0.1492
10470W        W53486  33.480   3.122  14.788 -0.0529 -0.0503  0.0392
10471W        W53487   7.429  12.181   2.389  0.1050 -0.3530 -0.2313
10472W        W53488   3.083  11.247  15.046 -0.1400  0.0397  0.3103
10473W        W53489  30.715  16.515   2.166  0.1257 -0.3116 -0.2655
10474W        W53490  18.286  20.029   7.664  0.1037 -0.2228  0.1394
10475W        W53491   3.077  17.710   3.020 -0.4855  0.1003  0.0483
10476W        W53492  30.190  17.385  26.324  0.3099 -0.2263  0.2411
10477W        W53493  31.021   6.616   1.211  0.1835  0.0465  0.3181
10478W        W53494  20.057   9.588   4.183 -0.3593  0.4131 -0.0169
10479W        W53495   5.985  22.835   8.547 -0.1418 -0.0395 -0.3312
10480W        W53496   9.132  26.241  27.469 -0.1557 -0.0370 -0.0027
10481W        W53497  27.519  11.383   4.123 -0.3566 -0.0130 -0.2830
10482W        W53498   4.713   4.399  13.204  0.2085 -0.1368  0.0409
10483W        W53499  13.260   6.914  24.965  0.3076 -0.0529 -0.0164
10484W        W53500   2.134  19.796  17.465 -0.0045  0.2910  0.1195
10485W        W53501  16.079  10.745   0.982  0.0842  0.2840 -0.1157
10486W        W53502  27.552  17.328   1.839  0.0040 -0.0639 -0.3355
10487W        W53503  29.181  29.320   2.185 -0.1971  0.2073  0.2315
10488W        W53504   0.441   9.139   0.956 -0.1178 -0.1306  0.2246
10489W        W53505  20.192  13.918  13.063  0.5519  0.0571 -0.1090
10490W        W53506  26.341   5.678   0.779 -0.0953 -0.2249  0.0017
10491W        W53507  27.596  22.488  25.217  0.0420  0.1497  0.2240
10492W        W53508  18.459   5.406   4.930 -0.0531  0.1218  0.2182
10493W        W53509  19.483  34.529  18.975 -0.2528 -0.2063  0.0850
10494W        W53510  13.166   6.423  17.026 -0.1073 -0.2690 -0.1919
10495W        W53511   3.060   5.291  28.858  0.0822  0.0162 -0.1228
10496W        W53512  34.059   0.202   5.116 -0.0513 -0.1206  0.0544
10497W        W53513   2.546  19.642  25.286 -0.0578  0.1597 -0.4696
10498W        W53514   4.351  18.883  18.374  0.0366 -0.4706 -0.1768
10499W        W53515  23.875   4.589   5.581 -0.0427  0.1167 -0.2465
10500W        W53516  22.659  11.035   2.405  0.0933  0.1168  0.1260
10501W        W53517  12.126  20.680  13.918 -0.2414  0.1659 -0.2369
10502W        W53518  24.168  29.498   4.001  0.2489 -0.0493 -0.0851
10503W        W53519   5.947   3.129   5.658 -0.0116 -0.1170  0.2167
10504W        W53520   5.342  18.676  14.748  0.0443  0.2806 -0.1637
10505W        W53521   2.228  10.036  26.845  0.0579  0.1942 -0.1547
10506W        W53522  29.764  21.778  25.843 -0.3289  0.2530  0.1580
10507W        W53523   0.887   9.977   1.239 -0.0294  0.2337 -0.0423
10508W        W53524   6.303  14.649   2.183 -0.0915 -0.0586 -0.2190
10509W        W53525  32.602  15.814  23.664 -0.3627  0.0118  0.1871
10510W        W53526  26.984  23.822   3.656 -0.3082 -0.2665 -0.2271
10511W        W53527  32.443   4.339  28.954  0.1172  0.1227 -0.1978
10512W        W53528  27.135   6.430   5.384  0.2610 -0.0356 -0.0464
10513W        W53529  16.867   1.155   9.140  0.0266  0.1034  0.1149
10514W        W53530  13.054   5.066   6.975 -0.1185 -0.2446  0.1538
10515W        W53531  29.481   3.448  16.740  0.1068  0.3364  0.1393
10516W        W53532   0.606  16.683  22.460 -0.1135 -0.0671  0.2499
10517W        W53533  33.525  12.959  25.659 -0.2289 -0.0315  0.0584
10518W        W53534  26.593  16.117  22.200 -0.0294  0.0099  0.3940
10519W        W53535  20.361  29.385   1.220  0.2648 -0.2468 -0.1731
10520W        W53536   1.384  27.582  27.373 -0.0669 -0.1519  0.1073
10521W        W53537  16.571   2.633   4.669  0.0528 -0.0960 -0.3927
10522W        W53538   7.803   5.145  17.721 -0.1752 -0.1066 -0.0377
10523W        W53539  31.529   5.146  28.360 -0.2409 -0.0467  0.1864
10524W        W53540   3.423  32.410   6.598  0.0593 -0.0398  0.0664
10525W        W53541  34.239  26.066   2.105  0.0011 -0.2620  0.1240
10526W        W53542  12.781  18.907  27.361 -0.1996 -0.0721  0.1206
10527W        W53543  32.638  22.228   5.219 -0.0246 -0.0050  0.1081
10528W        W53544   8.601   5.868   7.919  0.0767  0.0323 -0.2579
10529W        W53545  33.994  10.289  24.744 -0.1361 -0.0949  0.1983
10530W        W53546  21.661   7.407   7.869 -0.1321 -0.0918  0.0295
10531W        W53547   4.585   4.316  25.125  0.5139 -0.4204  0.2011
10532W        W53548  27.601  18.383   9.786  0.1079  0.1941 -0.0213
10533W        W53549  19.424   6.644  27.216  0.0927 -0.1925  0.0279
10534W        W53550   9.439   1.346   0.835  0.3571 -0.1114  0.0740
10535W        W53551   7.738  30.746   6.327 -0.0593  0.1466  0.0069
10536W        W53552  19.967  21.625   0.530 -0.0073  0.2281 -0.2531
10537W        W53553   9.941   1.140   6.498  0.0502 -0.1961 -0.2259
10538W        W53554   4.835   7.163  26.532 -0.1883 -0.2405  0.1246
10539W        W53555   0.735  28.161   2.944 -0.1929  0.2987 -0.1287
10540W        W53556   0.219  33.808  26.449 -0.1524 -0.1010  0.2224
10541W        W53557   9.966  28.409  26.496  0.0577  0.1950 -0.1676
10542W        W53558   3.382   2.002  26.964 -0.2172  0.1749 -0.1595
10543W        W53559   9.072  31.514  22.687 -0.1422  0.7329 -0.0741
10544W        W53560  30.834  31.143  27.460 -0.1639 -0.0083  0.1555
10545W        W53561   0.940  33.752  20.579 -0.0281 -0.2830  0.0636
10546W        W53562  21.422  24.219  21.551 -0.0492 -0.1941  0.0352
10547W        W53563  24.658  34.448  21.330  0.0980 -0.2866 -0.0541
10548W        W53564   2.482  26.071   9.665  0.0736  0.0233  0.0661
10549W        W53565  15.846  19.114  26.943 -0.0679  0.1640 -0.3857
10550W        W53566  32.698   2.098   5.306  0.2051 -0.1528  0.1874
10551W        W53567   2.623  19.847   9.093 -0.1334 -0.2100 -0.0143
10552W        W53568  21.273  18.337  27.196  0.0901  0.0567  0.1136
10553W        W53569  30.448   9.176   1.750  0.2437  0.2036  0.0092
10554W        W53570  32.883  15.858  21.027  0.2949  0.0759  0.1000
10555W        W53571  26.308  25.037  23.167  0.1739 -0.4091 -0.0597
10556W        W53572  10.952  11.704  26.425 -0.1515  0.0905  0.0231
10557W        W53573   6.032  30.736  22.716  0.0955  0.2309  0.0887
10558W        W53574  29.224   3.568   5.092 -0.1187  0.1680 -0.0607
10559W        W53575   7.851   2.329  29.140  0.0115  0.1088 -0.0343
10560W        W53576   4.064  19.691   6.591  0.0292 -0.1276 -0.0300
10561W        W53577  33.808  10.784   1.213 -0.0535  0.1391  0.0390
10562W        W53578  25.637  16.725  29.088  0.1236 -0.1442  0.1389
10563W        W53579  11.895   2.227   1.534  0.0178 -0.1201  0.1498
10564W        W53580  34.693  30.661   1.346  0.1199  0.0313 -0.0263
10565W        W53581  28.251  14.878  18.888 -0.1926 -0.0387  0.2031
10566W        W53582   8.176  18.796  19.130 -0.1070  0.2277 -0.2286
10567W        W53583  17.332  28.302   4.385 -0.0397  0.3198  0.0304
10568W        W53584   7.952  28.037  16.552 -0.3130 -0.1238  0.1333
10569W        W53585   1.808  16.101   2.981  0.0654  0.0792 -0.0655
10570W        W53586  12.257  21.973   2.588 -0.2327 -0.4410  0.0543
10571W        W53587  31.554  33.762   2.140  0.3685 -0.3280  0.1224
10572W        W53588   0.871  12.142   8.982  0.0937  0.2818  0.3161
10573W        W53589   8.943  12.622  22.724 -0.2456 -0.0092 -0.1666
10574W        W53590   6.529  10.395   7.239 -0.2112 -0.1490  0.1573
10575W        W53591  14.979  13.025  29.210  0.1758 -0.0305 -0.2380
10576W        W53592  15.774   0.462   2.706 -0.0984  0.0317  0.1206
10577W        W53593   9.412  13.103  14.212 -0.1841 -0.0145 -0.0611
10578W        W53594   1.423  19.394   0.904 -0.0706  0.1877 -0.2320
10579W        W53595  34.127   0.818  20.517 -0.0233 -0.0865  0.1607
10580W        W53596   7.206  34.280  16.720  0.2166 -0.2617 -0.0590
10581W        W53597   9.312  13.166   8.949  0.4261  0.1410  0.0889
10582W        W53598  28.816   6.915   4.582 -0.1176  0.0706 -0.1247
10583W        W53599  31.392  21.661  18.915 -0.0822 -0.2915 -0.0832
10584W        W53600  22.753   0.988   7.208  0.0099 -0.0861 -0.2008
10585W        W53601  34.346   5.548   6.356 -0.0409 -0.1280 -0.0496
10586W        W53602  33.862  23.851  28.162  0.0199 -0.3223 -0.1442
10587W        W53603  30.966  19.105  19.668  0.1546  0.2037  0.3112
10588W        W53604  33.529  11.344  18.479  0.2916  0.1265  0.2737
10589W        W53605  10.544  23.228  15.035 -0.0169  0.0175 -0.2527
10590W        W53606   7.855   5.638  26.998  0.1022 -0.1514 -0.0851
10591W        W53607   8.125  31.001  18.202  0.0109 -0.0135  0.2299
10592W        W53608   0.325  31.009   7.703 -0.3615  0.0371  0.1768
10593W        W53609  12.504  22.454  12.237  0.0436 -0.0577 -0.2936
10594W        W53610  26.370  23.787  18.661  0.4731 -0.1206 -0.0251
10595W        W53611   1.840  16.954  28.206  0.4545 -0.3438 -0.0120
10596W        W53612  30.792  27.452  29.146  0.0287  0.1359  0.0274
10597W        W53613   8.297  23.519  26.701  0.0444  0.2597 -0.1344
10598W        W53614   2.749  16.026  25.244  0.2416 -0.1042 -0.0900
10599W        W53615  29.474   5.452  18.639 -0.0807 -0.0824  0.2123
10600W        W53616  30.185  24.868  29.111  0.0601 -0.0907  0.0836
10601W        W53617  33.260  30.930  24.133  0.2117 -0.2023  0.2618
10602W        W53618   6.710   9.942  14.302 -0.2036 -0.0947 -0.1651
10603W        W53619  32.486  11.738  14.691 -0.2589  0.4424  0.0426
10604W        W53620  33.978   3.863  18.123  0.0638 -0.2454 -0.1282
10605W        W53621   5.231  18.544  21.991 -0.3394 -0.1739 -0.0153
10606W        W53622   3.125  12.082  14.900  0.2849 -0.4240  0.2567
10607W        W53623  27.268  11.934  25.308  0.3510 -0.1818 -0.0145
10608W        W53624  28.440  13.310  17.755  0.0694  0.1354  0.1568
10609W        W53625  31.483   2.708  15.621  0.1815 -0.0845  0.2364
10610W        W53626  34.404  18.563  23.789 -0.0149 -0.2339 -0.2144
10611W        W53627   5.081  12.098   7.635  0.1369 -0.0551 -0.2475
10612W        W53628  33.784  16.530  18.999  0.0887  0.0383 -0.1958
10613W        W53629  21.176  13.373  12.408  0.0009 -0.1824 -0.1197
10614W        W53630  31.579  24.508  20.692  0.1528 -0.0691 -0.2320
10615W        W53631   1.825  18.264  26.576  0.0254  0.1483 -0.1697
10616W        W53632  21.832  20.851  24.505  0.0321  0.1327 -0.0022
10617W        W53633   9.741   3.221  25.181  0.1764 -0.0609  0.0991
10618W        W53634   2.736  16.357   7.728 -0.1562  0.1790 -0.1068
10619W        W53635   8.394   0.023  18.665  0.2410  0.0819  0.2823
10620W        W53636  13.689  11.017  16.172  0.0640  0.1078 -0.1026
10621W        W53637  33.457   8.983   4.698 -0.1247 -0.1282 -0.0305
10622W        W53638   2.382  19.065  20.155  0.0138 -0.1834 -0.2471
10623W        W53639   2.079  26.564  26.170  0.1623  0.2426 -0.3998
10624W        W53640   7.021  19.190  27.475  0.0295  0.1124 -0.0447
10625W        W53641   5.814  11.712  19.230  0.2286 -0.0379 -0.0956
10626W        W53642  28.349  21.142  18.507  0.0677 -0.0989 -0.1605
10627W        W53643  11.501  25.459  15.636 -0.1125 -0.2358 -0.2593
10628W        W53644   6.333  23.630  27.315  0.2072 -0.2571 -0.1053
10629W        W53645   5.074  19.820  22.078  0.0332 -0.1756 -0.0456
10630W        W53646  22.254   7.346  15.597  0.2888 -0.0820 -0.2643
10631W        W53647  29.301   5.459  20.687  0.1580 -0.0754  0.2169
10632W        W53648   0.095  25.741  16.661 -0.1706  0.0322  0.1489
10633W        W53649  33.811   6.986  18.968  0.0231 -0.2629 -0.2624
10634W        W53650  19.727  22.773  26.406  0.1378  0.1956 -0.2585
10635W        W53651  33.397  18.977  23.192 -0.0834 -0.3432 -0.2799
10636W        W53652   0.900  18.653  19.649  0.2144  0.2016 -0.0053
10637W        W53653   1.772  14.554   2.579  0.1303  0.1487  0.4177
10638W        W53654   6.505  27.083   0.464  0.3749 -0.2115  0.1441
10639W        W53655   6.608  31.923  26.720  0.0510  0.2356 -0.4930
10640W        W53656   1.713  14.106  21.523 -0.1725  0.0970 -0.0201
10641W        W53657  12.813  28.172  22.480 -0.1463 -0.1009  0.3908
10642W        W53658   9.584  19.598  12.795  0.0558 -0.0817 -0.2187
10643W        W53659  32.781  31.234  16.789 -0.3620  0.2592  0.1828
10644W        W53660   0.434   5.346  21.500  0.0999 -0.4065 -0.2151
10645W        W53661  23.916  20.116   0.118  0.3396  0.2106  0.1869
10646W        W53662   0.949  22.604  17.164  0.0368  0.1601  0.2387
10647W        W53663   2.131  10.885  24.543 -0.4611  0.1406 -0.1794
10648W        W53664   9.693  23.546  22.501 -0.0102  0.0649  0.1193
10649W        W53665  10.638  21.533   0.819  0.1911 -0.2747  0.2180
10650W        W53666   7.190   2.282  28.317 -0.1620 -0.3620  0.1015
10651W        W53667  34.295   0.368   9.588 -0.0256  0.1812 -0.1036
10652W        W53668   0.852  24.645  15.856 -0.0395  0.1239  0.1366
10653W        W53669  10.821   5.510  16.073 -0.1179  0.1388  0.0358
10654W        W53670  33.761  32.112  21.452 -0.0415  0.1890 -0.1379
10655W        W53671  10.535  13.454  22.387 -0.1036  0.0896  0.2941
10656W        W53672   2.317  15.724  16.578  0.0552  0.1098 -0.0751
10657W        W53673  31.356  19.514  16.250 -0.3458 -0.0993 -0.2597
10658W        W53674   0.056  15.381  24.701  0.1494  0.0904 -0.1957
10659W        W53675  33.895  11.533  18.225  0.2181 -0.2109 -0.1036
10660W        W53676   5.093  21.772  25.279  0.2176  0.2826  0.2205
10661W        W53677  32.605  27.639  27.142 -0.0715  0.1062 -0.1474
10662W        W53678   6.015  24.286   4.132 -0.0409 -0.1784  0.2147
10663W        W53679  25.837  33.256  22.964  0.2474 -0.0575 -0.0434
10664W        W53680   1.288  16.536  16.498  0.3155  0.0557 -0.1122
10665W        W53681  15.005  25.178  25.677  0.2272  0.1135  0.0899
10666W        W53682  34.511  19.718  14.459 -0.1811  0.2309  0.2706
10667W        W53683   7.266  16.931  23.857 -0.0242  0.0727 -0.2746
10668W        W53684  30.783  17.099  21.716 -0.1999 -0.2486  0.0225
10669W        W53685  29.198  23.358  19.861 -0.2754  0.0324  0.2024
10670W        W53686  32.743  27.254  16.175  0.0175 -0.0291  0.1376
10671W        W53687  33.115  10.384  17.056 -0.0060  0.2591 -0.2271
10672W        W53688   3.033   7.670  22.348 -0.0911 -0.3907  0.0262
10673W        W53689   5.891   1.697  15.786 -0.0884 -0.0060  0.2980
10674W        W53690  25.132   5.538  23.528 -0.0391 -0.0627 -0.3076
10675W        W53691  33.737  20.723  19.320 -0.1807 -0.2030  0.0872
10676W        W53692  11.071   9.174  26.266 -0.1162 -0.0938  0.0894
10677W        W53693   8.214  12.868  23.151  0.0702 -0.3477  0.2621
10678W        W53694   6.102  17.960  16.917 -0.1911  0.1136 -0.1007
10679W        W53695   3.608  29.161   1.540 -0.1688 -0.2820 -0.1505
10680W        W53696  21.510   8.197  28.151 -0.2209 -0.0197  0.0406
10681W        W53697  29.185  20.243   0.467 -0.1740  0.0611 -0.2603
10682W        W53698  31.812  15.695  19.496  0.1451  0.1696  0.2246
10683W        W53699   7.462  16.359  26.633 -0.2173  0.0929 -0.1919
10684W        W53700  25.653  12.485  13.489 -0.1811  0.1364  0.1911
10685W        W53701   1.506  18.938  26.789  0.1224 -0.2724 -0.1018
10686W        W53702   0.871   3.614  20.646  0.0208  0.1234 -0.1396
10687W        W53703  25.444  18.977  17.576  0.1034  0.1446  0.1676
10688W        W53704  11.092  32.604  15.592 -0.0486 -0.1327  0.2047
10689W        W53705  22.665  14.745  19.504 -0.0140  0.0747  0.0820
10690W        W53706  30.585  12.988   7.390 -0.1703  0.0185  0.0574
10691W        W53707   1.739  13.614  24.140  0.0076 -0.2343 -0.1056
10692W        W53708  30.948   3.595  29.114 -0.1510 -0.2688 -0.0977
10693W        W53709   0.310  19.202  14.264  0.1411  0.1451  0.1338
10694W        W53710   3.904  28.782  26.783  0.1036 -0.0086 -0.2753
10695W        W53711  14.559  11.344  16.540 -0.0958  0.0093  0.3390
10696W        W53712  26.739  20.776  26.404 -0.0660  0.1235  0.1877
10697W        W53713  29.562   9.737  24.377  0.1359  0.1784 -0.1543
10698W        W53714   4.646   8.188  17.597 -0.3676 -0.1512  0.0957
10699W        W53715   3.547  13.395   2.913 -0.1308  0.0858 -0.1748
10700W        W53716  20.180  19.071  22.883 -0.0815  0.2639  0.1962
10701W        W53717  17.099  27.414  23.435  0.1661  0.0570 -0.1467
10702W        W53718   0.724   7.045  27.947 -0.1556  0.1583  0.0774
10703W        W53719  18.893  32.122  24.177 -0.2592  0.2084  0.4754
10704W        W53720   8.649  20.759  25.613  0.2968  0.0123 -0.1738
10705W        W53721  28.570  11.019  17.319 -0.1630 -0.1096  0.2480
10706W        W53722  10.903   6.364  22.949 -0.0956  0.0540 -0.1546
10707W        W53723  28.259  23.290  21.280 -0.2537  0.0580  0.2856
10708W        W53724  29.388   9.717  26.144  0.1720  0.0724  0.2356
10709W        W53725  29.283   3.877  17.176  0.1304 -0.0789  0.2918
10710W        W53726  31.884   9.490  23.769 -0.2218  0.0574 -0.0439
10711W        W53727  31.370  12.170  17.470  0.0201  0.1082 -0.0599
10712W        W53728  15.539   2.237  22.595  0.1884 -0.2374  0.1268
10713W        W53729   4.320  13.098  23.854 -0.0052  0.0983  0.3547
10714W        W53730  33.388  28.794  24.552  0.3222  0.0769 -0.0532
10715W        W53731  34.750  18.088   6.263 -0.0929  0.0663 -0.0501
10716W        W53732   0.071  19.397  25.872  0.1193 -0.1054 -0.3871
10717W        W53733   6.778  20.822  20.682 -0.1475  0.0441 -0.0959
10718W        W53734  22.022   3.202  19.155  0.0221  0.0837 -0.0567
10719W        W53735   1.435  20.878  14.995  0.0344 -0.1769  0.1945
10720W        W53736   2.143  11.856  16.859  0.2227 -0.0294  0.0771
10721W        W53737   2.704  13.054   6.808 -0.0272 -0.0736  0.0685
10722W        W53738   7.194  20.351  13.336  0.3813 -0.4431 -0.2689
10723W        W53739  18.260  34.511  22.399  0.0797  0.0156 -0.1304
10724W        W53740  31.121  24.145  18.907 -0.1048  0.1042 -0.0607
10725W        W53741  13.058  12.244   4.993  0.2059 -0.3093 -0.3620
10726W        W53742   0.535  25.850  16.230 -0.3423 -0.2410 -0.4080
10727W        W53743   4.233  19.233  21.615 -0.0089  0.0028 -0.0470
10728W        W53744  28.982  17.825  17.067  0.1185  0.2628 -0.3598
10729W        W53745   2.093  12.606  15.236  0.1516  0.2531  0.3727
10730W        W53746  30.592  25.067  23.312  0.3951 -0.0843 -0.1002
10731W        W53747  26.748   8.991  27.579  0.0860  0.3054  0.1432
10732W        W53748   4.814   8.446  16.570  0.1698  0.3690 -0.1277
10733W        W53749   9.351  14.867  20.211  0.1209 -0.0812 -0.1363
10734W        W53750  12.359   5.886  21.702  0.0037  0.2549 -0.1208
10735W        W53751  16.839   2.259  25.952  0.0134  0.0177  0.3297
10736W        W53752  13.012  16.718  23.361  0.1992 -0.1741 -0.2065
10737W        W53753   7.001  24.037  15.430  0.4044 -0.1020 -0.3749
10738W        W53754   1.723  22.250  16.946  0.0224 -0.2741  0.0643
10739W        W53755   7.149  20.378  19.809 -0.1478  0.1509 -0.0031
10740W        W53756  23.942   6.684  15.450  0.0372 -0.1470 -0.3300
10741W        W53757  32.288  17.452  25.175  0.3244 -0.0586 -0.3110
10742W        W53758  30.587  20.444  22.906 -0.0124  0.0268 -0.3056
10743W        W53759  31.817  19.570  23.321  0.0483  0.0766  0.1481
10744W        W53760  30.740  33.161  20.308  0.3005  0.0036 -0.0305
10745W        W53761   3.891   6.642  13.924  0.0970  0.1861  0.0324
10746W        W53762  31.321  18.423   0.630  0.0279 -0.2219 -0.1393
10747W        W53763  10.343  13.762  15.561 -0.1509 -0.2527  0.1953
10748W        W53764  20.098  27.003  23.968 -0.0996  0.1528  0.4139
10749W        W53765  21.710   8.904  20.005  0.2582 -0.2466 -0.1065
10750W        W53766   2.114  23.192  26.175 -0.0108  0.1131  0.2199
10751W        W53767  31.306  21.201  17.475  0.1985 -0.1913 -0.2647
10752W        W53768  32.262   8.807  19.992 -0.1462 -0.0517  0.3354
10753W        W53769   3.715  14.312  20.104  0.0157  0.0385  0.3572
10754W        W53770  10.641  25.575  23.652  0.0477  0.0006 -0.1731
10755W        W53771  31.289  16.650  22.507  0.0927 -0.0052 -0.0612
10756W        W53772   8.710  11.430  14.168  0.2832 -0.2357 -0.0856
10757W        W53773  33.484   3.581  22.127  0.1620 -0.0676  0.1490
10758W        W53774   1.661   4.695  20.567  0.0424  0.0264 -0.1363
10759W        W53775   3.204  23.817  16.073  0.2233  0.0495  0.0287
10760W        W53776   2.395   8.466  17.656  0.2711 -0.0992 -0.2214
10761W        W53777  31.922  15.230   3.085 -0.0482 -0.1933 -0.2316
10762W        W53778   7.942  15.665  18.766  0.0909 -0.0131  0.2443
10763W        W53779  27.737  31.644  16.086 -0.2548 -0.1251  0.0871
10764W        W53780  29.763  31.672  18.846  0.1622  0.0631 -0.0668
10765W        W53781   5.207  29.307  18.404  0.1453 -0.2301 -0.4060
10766W        W53782  33.212  17.069  19.595  0.1121  0.1885 -0.1322
10767W        W53783   8.461  15.284  15.346 -0.0507 -0.0127  0.0916
10768W        W53784   2.795  33.609  26.234 -0.1070  0.2578  0.0530
10769W        W53785  11.393  33.737  19.690  0.2497 -0.0020  0.1340
10770W        W53786  30.060  28.035   1.499  0.0067 -0.0089  0.1455
10771W        W53787   3.800  28.635   4.560  0.1767  0.2305  0.1293
10772W        W53788   0.678  29.093  17.257 -0.0533 -0.0567  0.2820
10773W        W53789  34.742  24.972  21.749  0.1415 -0.2015  0.1476
10774W        W53790   7.726  21.480  27.993 -0.1175  0.0126  0.1149
10775W        W53791   6.096   8.103  21.161  0.0140  0.1031 -0.2495
10776W        W53792  29.722  12.028  19.487 -0.0951  0.0326 -0.0108
10777W        W53793  11.181   3.284  20.079  0.0034  0.1276  0.1170
10778W        W53794   3.048  30.457  17.577  0.1045  0.0567 -0.1323
10779W        W53795  12.241   2.635   1.344 -0.0737  0.1463 -0.1025
10780W        W53796  21.603  26.542  14.464 -0.1725 -0.2650 -0.2142
10781W        W53797  17.982  27.772  24.832  0.4015  0.0221  0.0794
10782W        W53798   2.465  15.772  19.284  0.1244 -0.0342 -0.1634
10783W        W53799   7.256  10.162  21.423  0.1920 -0.1938 -0.0927
10784W        W53800   7.823   0.747   1.183  0.2496  0.2270 -0.0199
10785W        W53801   3.551   4.206  21.880  0.0381  0.2915 -0.0449
10786W        W53802   7.062   2.721  24.918  0.3684 -0.0784 -0.0200
10787W        W53803   8.589  22.943  22.610  0.2490 -0.0033  0.0616
10788W        W53804  30.533  11.849  24.501  0.0255 -0.1151 -0.1044
10789W        W53805   2.135  14.925  23.610  0.0020  0.1079  0.0434
10790W        W53806   4.838  25.201   1.594 -0.4225 -0.0722  0.1550
10791W        W53807  34.067  22.780  22.659  0.0079 -0.1572 -0.1007
10792W        W53808  21.778  11.032  14.570  0.0190 -0.0887 -0.1761
10793W        W53809  15.126   5.386  18.139  0.1801 -0.2633 -0.2044
10794W        W53810  33.071   7.648   0.087  0.2250 -0.0852 -0.0979
10795W        W53811   5.718   7.199  14.969 -0.1091  0.2846 -0.1902
10796W        W53812   9.891  27.722  14.160 -0.0825  0.1137  0.0432
10797W        W53813   4.557  33.635  17.920  0.1201  0.0231  0.1080
10798W        W53814   1.380  16.784   6.630  0.0575 -0.0187  0.2003
10799W        W53815   8.406   7.578  22.397 -0.0814  0.0725 -0.0979
10800W        W53816   1.644  28.617  21.935 -0.1993  0.1318  0.2935
10801W        W53817  23.187  13.378  18.473  0.1261  0.2032  0.1528
10802W        W53818  31.006  21.004   4.784 -0.0269 -0.0371  0.2753
10803W        W53819  11.215  24.773  27.514 -0.1304  0.0329 -0.1898
10804W        W53820   4.217   4.916  21.856  0.1360  0.1100  0.0143
10805W        W53821  12.915   7.036  22.485 -0.2899 -0.1470  0.0419
10806W        W53822   5.502  17.415  14.000 -0.0694  0.2427 -0.0344
10807W        W53823   1.232  11.817   0.881  0.2087 -0.0731  0.1551
10808W        W53824  25.440   7.842  21.892  0.0293 -0.0456 -0.0039
10809W        W53825  28.852  26.736   6.092  0.0686 -0.0984 -0.0142
10810W        W53826   7.326  30.185   4.198 -0.0040 -0.0813  0.0148
10811W        W53827   2.579  19.428  16.882 -0.4607  0.1659 -0.1237
10812W        W53828  10.340  14.189  20.616  0.0075  0.1086 -0.1889
10813W        W53829   4.797   9.408  20.880  0.1496 -0.0576  0.0146
10814W        W53830   3.153  34.048  26.044  0.0446  0.2115  0.1051
10815W        W53831  26.817  24.089   0.477  0.1148 -0.0755 -0.2055
10816W        W53832   2.749  22.600  21.039  0.1336 -0.1275 -0.1551
10817W        W53833  33.584  14.355  18.399 -0.1550 -0.0720  0.0882
10818W        W53834   5.815   6.990  24.694  0.1354 -0.0271 -0.1155
10819W        W53835  24.251  10.473  24.970 -0.0104 -0.2143  0.0876
10820W        W53836   8.240  14.023  15.598  0.0975  0.0287  0.2034
10821W        W53837   5.124  12.156  20.477 -0.2270 -0.1455 -0.1182
10822W        W53838  23.969  34.140  20.146  0.2300  0.0174 -0.2074
10823W        W53839   8.994  29.925  17.880  0.4085 -0.2915 -0.2553
10824W        W53840   1.238  22.558  17.654 -0.1379 -0.2261  0.0852
10825W        W53841   1.286   7.645   0.942 -0.4844  0.0919 -0.0142
10826W        W53842  30.825  18.030  17.881  0.0957  0.1309 -0.0342
10827W        W53843   7.491  25.503  22.766 -0.0076  0.0036 -0.1145
10828W        W53844  20.355   4.286  19.877 -0.0326  0.2330  0.0253
10829W        W53845   7.143  15.369  15.590 -0.0929  0.1759 -0.0286
10830W        W53846  27.320  22.191  20.950  0.0333 -0.3633 -0.0749
10831W        W53847  14.371  21.218  24.248  0.0707 -0.1327  0.3478
10832W        W53848  25.810  18.109  28.782  0.0469  0.3422 -0.3782
10833W        W53849   0.297   8.316  14.456 -0.0056 -0.2555 -0.1046
10834W        W53850   2.790  26.274  16.766  0.0677  0.1970 -0.0639
10835W        W53851   2.684  26.384  16.171  0.0563  0.2499 -0.0283
10836W        W53852   7.545  18.068  22.757 -0.0184  0.3218  0.1040
10837W        W53853  32.105  15.374  16.124 -0.2624 -0.0348  0.0018
10838W        W53854   2.598  16.825  23.660 -0.1151 -0.1699 -0.0332
10839W        W53855   3.816  17.989  26.604 -0.0358  0.1075 -0.1568
10840W        W53856  28.726  16.747  19.108 -0.0269  0.1477  0.2562
10841W        W53857  34.444  13.099  24.531  0.1973  0.1320 -0.2139
10842W        W53858  29.283  19.411  22.927 -0.0653 -0.1013 -0.1550
10843W        W53859  13.231  19.982  16.047 -0.2008 -0.3175 -0.2561
10844W        W53860  25.757  13.240  14.746 -0.0102 -0.0061 -0.2450
10845W        W53861   7.746   5.085  24.253  0.4526  0.1538  0.3900
10846W        W53862   2.929  24.234  20.290  0.1642 -0.1853 -0.0516
10847W        W53863   1.804  12.252  23.814 -0.4050 -0.1363  0.1227
10848W        W53864   1.051  15.277  19.450  0.2732  0.2237 -0.0440
10849W        W53865   5.561  11.192  22.968  0.2829 -0.0469  0.3120
10850W        W53866  22.786  24.703  17.600  0.3694 -0.2275 -0.0394
10851W        W53867   6.754  23.572  19.852 -0.1117 -0.1843 -0.0708
10852W        W53868   9.877  23.190  17.493  0.2248  0.0311  0.1479
10853W        W53869   3.453  21.460  23.636  0.1470  0.0009 -0.2370
10854W        W53870  26.527  33.274  17.267  0.1061  0.0550 -0.0067
10855W        W53871   3.432   5.171  13.989 -0.3216  0.2222 -0.0823
10856W        W53872  30.673  34.387  27.300 -0.1017  0.3470 -0.1950
10857W        W53873   5.889  13.401  17.341  0.2417 -0.0163 -0.2053
10858W        W53874   1.440  27.117  27.116  0.0411 -0.3036 -0.0175
10859W        W53875   0.619   4.406   1.156  0.3348 -0.0644  0.1617
10860W        W53876  32.042  33.112  17.887 -0.0093  0.0110  0.0825
10861W        W53877   3.638  18.408  23.771  0.0955 -0.0029 -0.0129
10862W        W53878  28.739  14.271  29.088  0.0718 -0.3445  0.0658
10863W        W53879  31.640  23.893  24.863 -0.0571  0.2742 -0.0419
10864W        W53880  23.233  32.532  20.745 -0.1237 -0.0752  0.4073
10865W        W53881   8.257  23.974  28.814 -0.0085 -0.2533  0.3858
10866W        W53882   2.697  20.354  14.846  0.1284  0.0305 -0.0060
10867W        W53883   6.757  18.807  19.008 -0.0768 -0.4092 -0.1177
10868W        W53884   2.453  25.876   0.011  0.3150  0.1983  0.4494
10869W        W53885  19.473  31.675  17.097 -0.0143  0.1826 -0.2483
10870W        W53886  11.207  19.886  16.512  0.2428  0.1018  0.0427
10871W        W53887  31.558  33.866  24.933 -0.0343 -0.0580 -0.1128
10872W        W53888  20.737  16.174  22.145 -0.0374  0.2680  0.1806
10873W        W53889  19.122  11.528  14.598 -0.3248  0.0681  0.0176
10874W        W53890   5.846  23.012  23.034 -0.2198 -0.0354 -0.0336
10875W        W53891  26.559   1.976  27.569 -0.0236  0.2854  0.0053
10876W        W53892  29.005   5.847  23.062  0.2206 -0.2146  0.0577
10877W        W53893  22.448  13.269  14.729  0.3138 -0.0609  0.0570
10878W        W53894  34.516   9.748   6.276 -0.1696 -0.0740 -0.1595
10879W        W53895  32.089   9.746  21.206  0.0737  0.1701 -0.2244
10880W        W53896   1.744   1.778  24.968 -0.1194 -0.2783  0.0267
10881W        W53897   6.138  11.286  17.762  0.2545 -0.0924  0.3211
10882W        W53898  14.064  27.614  26.127  0.0995  0.1420 -0.0246
10883W        W53899   5.941  21.255  23.620 -0.4395 -0.1997  0.4524
10884W        W53900  28.737  31.521  19.949  0.0163 -0.0298 -0.1529
10885W        W53901   1.783  22.031  16.152  0.0057 -0.1817  0.1164
10886W        W53902   0.275  11.444   2.366  0.1699 -0.1762  0.6617
10887W        W53903  17.376   2.670  18.148  0.0221  0.5102  0.4548
10888W        W53904   4.162   6.891  25.080  0.2784 -0.1817  0.0634
10889W        W53905  12.437  26.121  15.097 -0.1355 -0.1727 -0.0370
10890W        W53906  29.293  26.538  27.307 -0.0738  0.3374 -0.1563
10891W        W53907  24.317   3.394  21.304  0.0977  0.0803  0.0798
10892W        W53908   8.371  25.528  21.354  0.2859 -0.1604 -0.1973
10893W        W53909  27.508  22.764  20.157 -0.2846 -0.0140 -0.2562
10894W        W53910  32.472   3.723  16.528 -0.0224  0.0107  0.0848
10895W        W53911   4.839  11.437  27.984  0.3227 -0.1681 -0.0765
10896W        W53912  31.678  16.937  15.522 -0.4022  0.2626  0.1521
10897W        W53913   5.844  14.243  14.183  0.0512  0.0713 -0.2347
10898W        W53914   4.605  21.369  20.778 -0.1278  0.1643  0.1466
10899W        W53915  31.597  14.931  17.183  0.0229 -0.0185 -0.2146
10900W        W53916  32.219  17.855  19.997  0.0932 -0.0383 -0.1927
10901W        W53917  21.664   6.801  23.009 -0.0467 -0.2104  0.1204
10902W        W53918  25.930  27.194  22.175 -0.0553 -0.2543 -0.0487
10903W        W53919   0.985  31.559  20.695 -0.0003 -0.2301  0.0373
10904W        W53920  25.864  24.970  19.048 -0.0643 -0.1807 -0.0718
10905W        W53921  10.276  21.189  25.350  0.2506 -0.0209  0.0333
10906W        W53922  27.141  20.647  25.631 -0.3331 -0.2525  0.3638
10907W        W53923   7.664  19.558  15.743  0.0827  0.0034  0.0136
10908W        W53924  15.657   9.252  20.033  0.2245 -0.0306  0.0109
10909W        W53925   6.531   6.919  16.916  0.1140 -0.3037  0.0107
10910W        W53926  26.693  23.597  25.338 -0.2243  0.2844  0.1187
10911W        W53927  32.558  15.464  18.303 -0.3085  0.0292  0.0429
10912W        W53928  23.596  26.263  16.672  0.2239 -0.0244  0.0385
10913W        W53929  26.381  16.067  19.625  0.2298  0.0752  0.1668
10914W        W53930  21.907   1.175  27.802  0.0128  0.0390 -0.2809
10915W        W53931  11.792  31.192  21.154 -0.0224 -0.4147  0.1405
10916W        W53932   7.659  34.277  20.040  0.2054 -0.3541 -0.2041
10917W        W53933   4.694  10.338  19.996  0.0916 -0.0141 -0.0228
10918W        W53934   5.448  21.028  14.797 -0.0689 -0.4188 -0.1848
10919W        W53935  17.011  28.381  18.093  0.2313  0.1366  0.3691
10920W        W53936  19.757  27.881   2.757  0.0281 -0.1072 -0.3535
10921W        W53937  11.412  15.688  16.807  0.2706 -0.1320 -0.0885
10922W        W53938   8.470  22.519   1.508 -0.0381  0.0297  0.0191
10923W        W53939  31.614  13.362  14.089 -0.1028 -0.1821 -0.1529
10924W        W53940   7.107  25.874  26.867  0.0479 -0.1109 -0.1106
10925W        W53941  29.566   2.289  18.270  0.2508  0.1725  0.1128
10926W        W53942   2.264  17.307  20.241 -0.0193  0.1460 -0.3226
10927W        W53943  13.392  10.307  27.626  0.0057  0.1845 -0.0939
10928W        W53944  15.269  16.940  11.650  0.2232 -0.1813 -0.2651
10929W        W53945   4.378  17.527  24.737 -0.1559  0.2352 -0.3551
10930W        W53946  26.455  13.318  15.445  0.3590 -0.2301 -0.2789
10931W        W53947   0.247  25.958  19.286  0.4156 -0.0215  0.2818
10932W        W53948   8.538  15.160  16.455 -0.0538  0.0732  0.0975
10933W        W53949  31.505   7.497  19.484 -0.3010  0.0800  0.0951
10934W        W53950  24.180   1.811  16.925 -0.1461 -0.2377  0.1325
10935W        W53951   1.667  26.226  25.716 -0.0456 -0.0292  0.0416
10936W        W53952  23.546  10.675  24.078  0.0429  0.1639  0.0717
10937W        W53953  17.448  10.416   1.338 -0.3265 -0.0275 -0.0901
10938W        W53954   5.605  11.743  27.622 -0.3304 -0.1313 -0.2818
10939W        W53955   9.971   0.428  13.911  0.2142  0.1609 -0.3467
10940W        W53956  17.293   8.990   0.083 -0.0136  0.0303 -0.2377
10941W        W53957  27.788  24.418  16.813  0.0773  0.2117 -0.2229
10942W        W53958  18.893  24.185  18.629  0.2571  0.0224 -0.0215
10943W        W53959  31.927   3.315  16.287 -0.1658 -0.2038  0.0360
10944W        W53960   8.408  15.648  13.839 -0.1299  0.3028 -0.1934
10945W        W53961  18.187   9.605  20.821  0.0036 -0.0073  0.0091
10946W        W53962   5.631  17.186  28.669 -0.2350 -0.1572 -0.0955
10947W        W53963   3.417  25.966  20.965  0.2263  0.4854 -0.0474
10948W        W53964  31.841  14.489  17.527 -0.0807  0.0734 -0.0831
10949W        W53965  14.632  24.089  18.046 -0.0011  0.1800  0.1907
10950W        W53966  22.685  25.705  20.890 -0.1104 -0.2962  0.1721
10951W        W53967  31.047  16.223   7.275  0.1021 -0.0920 -0.0188
10952W        W53968   7.282  18.669  20.616 -0.1772  0.2988 -0.0242
10953W        W53969  10.569   8.587  25.498  0.0659  0.1109  0.0027
10954W        W53970  33.424  32.628  19.143  0.0702  0.2255 -0.0048
10955W        W53971  22.146  31.090  18.656  0.1263  0.0283 -0.2573
10956W        W53972   2.375   3.495  17.287  0.0083 -0.3851 -0.0226
10957W        W53973   5.185  22.375  24.243  0.1488 -0.2641  0.2293
10958W        W53974   2.847   2.888  21.472  0.2469  0.1243 -0.1113
10959W        W53975  23.008  34.112  28.324 -0.0991 -0.2091  0.1177
10960W        W53976  29.044   5.300  27.935  0.2877 -0.1167 -0.1141
10961W        W53977  12.024  15.715  18.119 -0.1078 -0.1421  0.0292
10962W        W53978  27.176  21.847  21.786 -0.0493  0.1002 -0.1133
10963W        W53979   4.335  34.193  17.673  0.0240  0.2516  0.0243
10964W        W53980  32.341  25.176  24.107  0.1731  0.2594 -0.0268
10965W        W53981  31.030   5.908  21.088 -0.0413  0.1597  0.2329
10966W        W53982  12.723  11.872  12.282  0.0544  0.0372  0.2264
10967W        W53983   1.945  24.612  14.637  0.2716  0.1977 -0.3557
10968W        W53984  33.089  14.493  20.322  0.0836  0.5708 -0.2794
10969W        W53985  10.420  22.195  12.706 -0.0649 -0.1032 -0.0190
10970W        W53986   3.718  28.514  23.401 -0.2709  0.0637 -0.1146
10971W        W53987  26.306  30.382  20.998  0.0524  0.0260  0.1434
10972W        W53988  26.334  20.907  17.832 -0.0566  0.1323 -0.2298
10973W        W53989   5.822  17.104   2.371 -0.0629  0.0674 -0.1673
10974W        W53990  30.965   0.305  23.380 -0.1378 -0.0832  0.0895
10975W        W53991   6.355   3.507  15.285  0.1866 -0.0256 -0.2805
10976W        W53992  10.842  24.045  28.505 -0.0396 -0.0567 -0.1190
10977W        W53993  10.158  19.481  19.406  0.0172  0.1110  0.0025
10978W        W53994   2.831   2.469  17.172  0.0113  0.1588 -0.0024
10979W        W53995  28.021  19.323   3.022  0.1650 -0.1199 -0.3594
10980W        W53996   0.517  12.147  14.984 -0.1237 -0.2911  0.0121
10981W        W53997  22.493  23.285   4.971  0.2167  0.3575 -0.0157
10982W        W53998   4.159  23.629  20.577 -0.1155  0.1570 -0.0344
10983W        W53999   7.826  22.900  18.198 -0.0071 -0.0846 -0.1059
10984W        W54000  22.422  11.997   0.602 -0.1610  0.0656 -0.1038
10985W        W54001  12.513  27.508  14.959  0.1313  0.4080  0.0362
10986W        W54002   2.873  21.604  18.044 -0.2208 -0.0311 -0.2995
10987W        W54003   2.007  15.087  15.831  0.2738 -0.0249  0.3335
10988W        W54004   2.067  21.681  16.046 -0.0938  0.0040  0.2001
10989W        W54005   2.458  12.331  19.442 -0.0127  0.1455  0.1185
10990W        W54006  11.865  14.872  18.843  0.3027  0.0191  0.1087
10991W        W54007  31.857  25.360  24.060 -0.1177 -0.0198  0.0953
10992W        W54008  31.308   2.325  25.421 -0.0434  0.1464  0.3874
10993W        W54009   1.351  20.870  14.101  0.0444  0.2521  0.3126
10994W        W54010  22.227  34.267  18.462 -0.1253 -0.2797 -0.0725
10995W        W54011   9.062  21.317  14.076  0.1362  0.2507 -0.2960
10996W        W54012  15.222  23.560   6.034 -0.1550  0.0703 -0.2884
10997W        W54013  11.249  22.823  15.896  0.0254  0.1126 -0.0701
10998W        W54014  13.381   5.718  24.398  0.0481 -0.1692 -0.0198
10999W        W54015   7.937  25.428   4.198  0.0010 -0.0121  0.0858
11000W        W54016  13.610   6.950  25.496  0.2579 -0.1911 -0.0525
11001W        W54017   1.166  33.893  23.695 -0.1278  0.1599  0.0710
11002W        W54018   7.723  34.384   3.696  0.0549 -0.2090  0.0538
11003W        W54019  33.623   8.539  20.413  0.3252 -0.3283  0.0861
11004W        W54020  29.872   9.517  22.813  0.0694 -0.0819 -0.2381
11005W        W54021   2.185  32.426  22.531  0.1277  0.1109 -0.1508
11006W        W54022   6.994   7.793  19.309 -0.0307  0.1814 -0.1345
11007W        W54023  10.299  11.966  13.842  0.1861 -0.0035 -0.2147
11008W        W54024   5.522  20.989  21.565 -0.1340  0.1167 -0.0786
11009W        W54025  26.613  18.391  20.033  0.0079 -0.0322 -0.0686
11010W        W54026   6.650  19.230  19.977  0.1731 -0.2031 -0.2152
11011W        W54027  13.450  24.417  23.463 -0.0389  0.0777  0.0887
11012W        W54028   1.988   7.717  22.369 -0.0380 -0.0106  0.0358
11013W        W54029  21.791  10.327  25.074  0.0223  0.0885 -0.4529
11014W        W54030   7.396  10.227  17.369 -0.1453 -0.1893  0.0641
11015W        W54031  27.254  16.088  24.439 -0.1323  0.2047 -0.0862
11016W        W54032  34.500   1.968  19.176  0.0809  0.1114  0.0187
11017W        W54033  28.162  15.779  17.315 -0.1000 -0.1066 -0.0479
11018W        W54034  19.778   9.254  17.209  0.1255  0.0328  0.1771
11019W        W54035  33.887  15.174   6.765  0.1663 -0.1024  0.0289
11020W        W54036  25.469  14.212  15.510 -0.0456  0.0228 -0.0196
11021W        W54037  16.981  28.586  22.905  0.0745 -0.0517  0.1282
11022W        W54038   0.417  21.761  14.644  0.1982  0.0116 -0.4050
11023W        W54039  29.133  12.874  23.095  0.0929 -0.0384 -0.1877
11024W        W54040  10.652  12.225  15.494  0.2764  0.1190  0.0467
11025W        W54041  31.235  23.228   5.881 -0.3981  0.0326 -0.0556
11026W        W54042   1.522  17.445   4.897  0.3906  0.0536  0.1731
11027W        W54043  33.788  13.362  18.239  0.1376 -0.0655 -0.0316
11028W        W54044   2.888  14.671  22.068  0.2770  0.0387  0.1284
11029W        W54045   8.918   7.000   3.872 -0.0064 -0.2382 -0.1085
11030W        W54046   1.595  24.688  19.897 -0.3326 -0.0789 -0.3348
11031W        W54047  30.556  19.717  18.740  0.1167  0.0381  0.0873
11032W        W54048  10.562   8.622   3.590 -0.1247 -0.1423  0.2721
11033W        W54049   7.165   6.091   0.176 -0.0699  0.1520 -0.1462
11034W        W54050   1.658  19.287  16.688  0.1063  0.1599 -0.3175
11035W        W54051  33.105  19.361  25.599 -0.3215 -0.0370 -0.0607
11036W        W54052  34.726   6.222  27.775 -0.1244 -0.1056  0.0786
11037W        W54053   0.174  31.240  18.079  0.0124  0.3883 -0.2524
11038W        W54054   9.886   3.786  21.337  0.0015 -0.0788 -0.0749
11039W        W54055   0.236  16.196  24.100  0.0417  0.1390 -0.3536
11040W        W54056  16.157  16.838  14.553 -0.2643 -0.0518  0.0250
11041W        W54057  16.884  15.820  12.535 -0.0119  0.2983 -0.2969
11042W        W54058   1.535  17.223  23.186  0.0012 -0.2003  0.0003
11043W        W54059   4.520  22.515  25.036 -0.0671  0.3622  0.2281
11044W        W54060  10.348  21.681  21.650 -0.0167  0.0044  0.1992
11045W        W54061  19.710   9.745  21.164  0.0754 -0.1337  0.0398
11046W        W54062   0.908   5.703  23.490 -0.0012  0.1913 -0.2183
11047W        W54063   3.025  17.227   9.544 -0.1024 -0.1537  0.1968
11048W        W54064   1.589  12.379  22.111  0.2529  0.1111 -0.0818
11049W        W54065  12.938  28.495  18.130 -0.3206 -0.0664  0.0355
11050W        W54066   3.226   4.069  16.516  0.2554 -0.0280  0.1159
11051W        W54067   1.527   1.331  18.128 -0.0375 -0.3204  0.0260
11052W        W54068   6.639  18.311  18.250  0.2908  0.0055 -0.1906
11053W        W54069   4.369  18.031  27.548 -0.1176 -0.3243 -0.1298
11054W        W54070  25.740  19.593  20.928  0.0332 -0.1947  0.1597
11055W        W54071  17.420  21.834  16.724  0.0755  0.0105 -0.2541
11056W        W54072  28.577  31.191  19.432  0.4426 -0.1759 -0.0186
11057W        W54073  17.599  34.063   1.855  0.0022  0.1856 -0.0612
11058W        W54074  28.438  14.903  24.858  0.1266  0.1763  0.0449
11059W        W54075  10.783   4.331  24.900  0.3782 -0.3667 -0.1933
11060W        W54076  23.727  26.317  26.438 -0.0086  0.2005 -0.0465
11061W        W54077   9.594  15.839  14.757  0.0986 -0.2356 -0.2407
11062W        W54078  27.898  26.555  21.610  0.0724 -0.1866 -0.2797
11063W        W54079  25.673   8.154  17.566  0.0558 -0.3145  0.0787
11064W        W54080  22.300   9.417  16.487 -0.2328 -0.0939 -0.1926
11065W        W54081   7.264  29.970  16.192  0.1027  0.1530  0.1411
11066W        W54082  22.723  11.302  14.360 -0.0347 -0.0247 -0.1471
11067W        W54083  31.072  26.021  20.312 -0.2290 -0.2859  0.3540
11068W        W54084  27.957   1.410  20.433  0.3641  0.2227  0.0663
11069W        W54085  12.918  21.935  13.727 -0.2615  0.2178 -0.2164
11070W        W54086   1.050  34.569   6.708 -0.1415 -0.2470  0.3675
11071W        W54087  34.662   6.200  21.777 -0.0431 -0.0891 -0.0990
11072W        W54088   2.052  23.737  24.004 -0.0602 -0.3624  0.0745
11073W        W54089  27.874   9.402   0.790 -0.0149 -0.2013  0.1058
11074W        W54090   3.832  26.290  22.438  0.0239 -0.3408 -0.2442
11075W        W54091  20.824  32.538  16.479 -0.0973  0.1370  0.2492
11076W        W54092   1.487   9.416   2.413  0.1399  0.1793  0.1167
11077W        W54093   0.735  10.735  16.776 -0.0050  0.2034 -0.2073
11078W        W54094  20.974  33.932  18.288 -0.2384 -0.0998  0.1400
11079W        W54095  30.106  30.596  20.532 -0.4488 -0.0634 -0.1264
11080W        W54096  21.573   4.932  23.728 -0.0535 -0.2206 -0.1406
11081W        W54097   6.803  15.681   8.800 -0.0687 -0.1817 -0.0984
11082W        W54098  32.958  17.868  18.896 -0.1641  0.2714  0.1432
11083W        W54099   4.535  25.639  13.829  0.0821 -0.2666 -0.1606
11084W        W54100  30.099  12.075  16.362 -0.3397 -0.0655  0.1487
11085W        W54101  13.111  21.257  24.581  0.0909 -0.1056  0.2594
11086W        W54102  34.267  18.209  15.259  0.0988 -0.2348 -0.1125
11087W        W54103  19.903  12.008  17.912 -0.0088  0.2505  0.0925
11088W        W54104   7.160   3.721  20.106  0.0123 -0.3961  0.0540
11089W        W54105  25.615   4.638  26.370  0.2316  0.1814  0.0864
11090W        W54106   4.267  24.484   2.963  0.0817  0.1106 -0.0971
11091W        W54107   8.662  14.077  13.368  0.3466 -0.1825  0.2254
11092W        W54108   0.428  13.163  21.914 -0.3556 -0.0688 -0.0789
11093W        W54109  26.847  17.093  13.644  0.1515  0.0126 -0.0709
11094W        W54110  23.061  10.614  23.808  0.1555  0.1643 -0.2268
11095W        W54111   1.410  20.437  15.136 -0.4101  0.0363  0.1096
11096W        W54112   4.505   9.381  19.107 -0.0045 -0.1623 -0.2289
11097W        W54113   2.358  21.527  23.765  0.2428 -0.1193  0.3396
11098W        W54114  28.327  18.637  19.715  0.2673 -0.2837 -0.0513
11099W        W54115  13.341  24.446  24.014 -0.1204 -0.1211  0.4222
11100W        W54116  30.212  16.374  23.931 -0.2768 -0.1422 -0.4451
11101W        W54117   0.623  13.746  23.111  0.0653  0.0617 -0.2768
11102W        W54118  21.470  13.228  22.379 -0.0527  0.4009  0.0829
11103W        W54119  27.751  23.334  20.183 -0.0972 -0.0232  0.1267
11104W        W54120  17.757  26.871  25.236  0.1676 -0.0379  0.0186
11105W        W54121   5.737  23.765  20.843  0.1208 -0.0599  0.5008
11106W        W54122   6.592  12.639  16.489  0.1625 -0.1985  0.2262
11107W        W54123  25.299   2.044  20.685 -0.4158  0.1022 -0.1561
11108W        W54124   6.611  25.520  19.647  0.0180 -0.1076  0.0225
11109W        W54125   6.935  14.069   1.286 -0.0265 -0.2285 -0.1946
11110W        W54126  26.491   6.117  16.408 -0.1196  0.2135 -0.0298
11111W        W54127  26.927  16.493  17.431 -0.0948  0.1840 -0.0655
11112W        W54128  12.284  31.508  16.688  0.0158 -0.1589 -0.2341
11113W        W54129   6.569   7.340   0.023 -0.2760 -0.3001 -0.1388
11114W        W54130  13.520   7.498  19.696 -0.4612  0.1500 -0.2575
11115W        W54131   2.201  20.406  17.528 -0.2291  0.1902 -0.0252
11116W        W54132   0.054  20.994  27.607 -0.2081 -0.1065  0.0025
11117W        W54133  17.203  30.856  27.141 -0.0794  0.2832 -0.1796
11118W        W54134   6.220  22.242  16.992  0.2926  0.2993 -0.1826
11119W        W54135   0.470   9.633   1.253 -0.1422  0.0268  0.2168
11120W        W54136  10.686  25.957  15.270 -0.1176 -0.0236 -0.3265
11121W        W54137   0.080  25.573   8.637 -0.0130 -0.5860 -0.0228
11122W        W54138  27.429   1.971  22.085 -0.4820  0.0350  0.0629
11123W        W54139  29.897  30.763  10.280  0.0917 -0.1143  0.0033
11124W        W54140   9.617  20.688   1.915  0.0404 -0.0657 -0.2237
11125W        W54141  33.153  15.069  28.311  0.0748  0.2498  0.3483
11126W        W54142  28.809   2.440  27.620 -0.3387 -0.6366  0.3829
11127W        W54143  23.936  11.133  15.668  0.0234  0.0969  0.0189
11128W        W54144   3.658   6.165  16.307 -0.1335  0.2318 -0.1377
11129W        W54145  12.993   0.671  27.174  0.2146 -0.4460 -0.2730
11130W        W54146  31.367  32.333   1.629  0.0470  0.0972  0.1463
11131W        W54147   8.026  15.058  15.804 -0.0960 -0.1330  0.0610
11132W        W54148   2.981  24.563  18.956  0.1787  0.3125 -0.1350
11133W        W54149  27.840  17.507  22.322  0.1437  0.2551 -0.0823
11134W        W54150  11.169  17.805  24.428  0.2559  0.3506  0.1237
11135W        W54151   1.948  12.035  15.622  0.0061 -0.1169 -0.1223
11136W        W54152   7.133   7.730  24.009  0.0830  0.1438 -0.1725
11137W        W54153  21.312  23.428  15.528  0.1050  0.0577 -0.1792
11138W        W54154  11.496   7.309  19.071 -0.0673 -0.0474  0.0229
11139W        W54155  32.859  25.056  15.222  0.1604 -0.1983 -0.0148
11140W        W54156  12.607  23.325  14.784  0.1812 -0.5944 -0.0869
11141W        W54157  23.045  21.246  21.804  0.2588  0.2133  0.3392
11142W        W54158  34.222  11.861  18.404  0.2363  0.0258 -0.2949
11143W        W54159  10.782  25.717  24.079  0.0600 -0.1421 -0.1264
11144W        W54160  34.466  18.207  17.833 -0.0279 -0.0440  0.1553
11145W        W54161  14.088   2.726  17.646 -0.1907 -0.3816 -0.1519
11146W        W54162  16.942  27.730  16.917 -0.0271 -0.1122 -0.0037
11147W        W54163  15.809  23.071  23.854 -0.0401 -0.1752 -0.1504
11148W        W54164  12.762   0.554  16.895  0.4266  0.1867  0.2093
11149W        W54165   7.374   6.763  21.789 -0.0622  0.0850 -0.1129
11150W        W54166  34.737   7.185   2.149  0.1667 -0.1147  0.1248
11151W        W54167   4.886  17.451  23.812 -0.3004 -0.0627  0.0498
11152W        W54168  20.637  13.195  19.778  0.1769 -0.1042  0.1116
11153W        W54169  34.422   4.993  17.103 -0.0089 -0.1413 -0.0061
11154W        W54170  30.494  18.516  24.589  0.2307  0.0263 -0.1447
11155W        W54171   0.572  12.337  20.700 -0.1237  0.0849 -0.0056
11156W        W54172  20.578  15.814  25.363 -0.0145 -0.4418 -0.0827
11157W        W54173   7.170  23.614  13.349 -0.0396 -0.3610 -0.1011
11158W        W54174   9.442   9.994  22.698 -0.4017  0.2125  0.1687
11159W        W54175  29.565  20.194  22.052 -0.0831  0.2873 -0.1676
11160W        W54176   9.878   7.370  21.805 -0.0281  0.0915 -0.0551
11161W        W54177   8.438  17.746  17.332  0.1396  0.0319  0.3202
11162W        W54178   4.460  29.456  21.424  0.3253 -0.0556 -0.1906
11163W        W54179   0.155   9.873  20.961 -0.4501  0.2064 -0.4597
11164W        W54180   3.287  13.198  21.779  0.0827  0.0278  0.1358
11165W        W54181  29.630  31.794  17.140 -0.1016 -0.1931  0.2433
11166W        W54182  15.844  26.304  16.585 -0.2666 -0.2479 -0.0811
11167W        W54183   8.771  16.319  18.767 -0.2019 -0.3911  0.1602
11168W        W54184  30.541  33.441  21.917  0.0553 -0.2662 -0.2022
11169W        W54185   4.253  22.148  13.479  0.0327  0.2582 -0.1485
11170W        W54186  33.333  15.830  19.555  0.2855 -0.1547  0.2819
11171W        W54187   4.587  11.991  14.681  0.4720  0.0518  0.2609
11172W        W54188   4.960  13.429  18.497 -0.0444 -0.0260 -0.0911
11173W        W54189  33.605  15.003  20.714  0.1150 -0.0542 -0.2185
11174W        W54190  33.999  21.367  18.545 -0.0986 -0.1669 -0.0913
11175W        W54191  11.021  24.762  19.368 -0.0971 -0.1553  0.1042
11176W        W54192   6.484  21.839   3.414 -0.1480  0.1576  0.1780
11177W        W54193   4.206  33.271  17.994  0.0225 -0.1341 -0.0948
11178W        W54194   6.726  20.633  26.212  0.0972 -0.0653  0.3603
11179W        W54195  18.942   5.519  22.787  0.3883  0.0110  0.3044
11180W        W54196   7.458  26.407  25.266  0.0489 -0.1725  0.0412
11181W        W54197   6.176  16.559  14.376 -0.2681 -0.0708 -0.2518
11182W        W54198  30.603  20.795  15.984 -0.0092  0.1096 -0.0084
11183W        W54199  23.621  14.232  16.182  0.0004  0.1922  0.2569
11184W        W54200   0.702   5.532  14.186  0.1189  0.1143 -0.0016
11185W        W54201  14.078   6.528  20.947 -0.1090 -0.0447 -0.3274
11186W        W54202  33.643  30.622  16.822  0.0209  0.0083 -0.0734
11187W        W54203  30.627   7.006  26.302 -0.1004 -0.1816  0.0654
11188W        W54204  31.978  10.678  18.412  0.1398 -0.2740 -0.1185
11189W        W54205  22.669   6.428  28.834  0.2205  0.0903 -0.1258
11190W        W54206  22.380   3.950  18.713  0.1964  0.2581  0.0245
11191W        W54207  32.501  13.025  18.193 -0.5161 -0.1831  0.3047
11192W        W54208  24.406  20.528   1.243 -0.1120 -0.1403 -0.0233
11193W        W54209   9.294  19.839   1.027  0.0039 -0.0818  0.0043
11194W        W54210  25.362  18.416  27.256  0.0154  0.0582 -0.0668
11195W        W54211   8.142   6.105  18.878  0.2096  0.3034  0.0436
11196W        W54212   8.580  26.289  19.622 -0.0529 -0.0018 -0.2554
11197W        W54213  26.635  18.612   0.808 -0.0004  0.1626 -0.0330
11198W        W54214  32.937  20.394  17.708 -0.1155 -0.1019 -0.0893
11199W        W54215  23.829  14.635  22.985  0.2391  0.0796 -0.1742
11200W        W54216   2.275   8.955  26.126 -0.1901  0.0534 -0.0051
11201W        W54217   4.188  13.359  14.281 -0.2485  0.2910 -0.1704
11202W        W54218  32.276  10.222  16.280  0.1667  0.1799  0.0459
11203W        W54219   7.858  24.487  12.684  0.0787 -0.0106  0.1831
11204W        W54220  13.384  22.928  16.651 -0.1205 -0.0545  0.0615
11205W        W54221   0.830  20.034  19.375  0.0645 -0.0564 -0.0867
11206W        W54222   3.806  33.495   2.769 -0.3048 -0.2707 -0.2881
11207W        W54223   0.718   2.712  17.902  0.0304 -0.5423 -0.1426
11208W        W54224  22.795  23.079  22.746 -0.1238 -0.0582 -0.1860
11209W        W54225   1.771  12.058  15.161  0.1742  0.0807 -0.0774
11210W        W54226   5.605   7.240  10.198 -0.3439  0.0298 -0.1217
11211W        W54227  10.095  23.692  25.081 -0.1328  0.0098 -0.0711
11212W        W54228  14.467   3.741  21.545 -0.0340  0.2196  0.1275
11213W        W54229  23.295   3.205  27.320  0.0539 -0.0149 -0.1031
11214W        W54230   3.565   5.395  15.595 -0.2491 -0.0430  0.1466
11215W        W54231  31.447  23.456  15.834 -0.1317 -0.2033  0.1876
11216W        W54232  10.262  10.896  16.669  0.0909 -0.1823  0.0080
11217W        W54233   5.267  25.173  25.901  0.0479  0.0023 -0.0955
11218W        W54234  11.199  15.438  15.444 -0.2126 -0.0717 -0.1418
11219W        W54235   3.899  16.477  19.689 -0.1335  0.0933  0.2186
11220W        W54236  14.942  20.829  14.248 -0.1439 -0.1863  0.0994
11221W        W54237   0.417  13.163  19.728  0.0323 -0.1175  0.2464
11222W        W54238  20.213   5.747  22.139  0.0484  0.1558 -0.2168
11223W        W54239   0.589  22.974   2.567 -0.0081  0.3232  0.1140
11224W        W54240  34.583  22.874  18.978  0.0004 -0.2881 -0.3142
11225W        W54241  25.268  30.701  15.352 -0.2007 -0.2176  0.3313
11226W        W54242  20.157  17.368  15.126 -0.1601  0.3534 -0.1493
11227W        W54243  11.320  29.905  19.896  0.3765  0.1046  0.0356
11228W        W54244   6.229  12.834  19.408  0.3189  0.1834 -0.0004
11229W        W54245  31.918   6.250  18.009  0.0158 -0.1727  0.0273
11230W        W54246  17.481  12.122  19.065  0.2633 -0.0692  0.2670
11231W        W54247  30.305   0.725  24.261 -0.0311  0.2376 -0.2083
11232W        W54248   5.207   6.788  17.317 -0.1259 -0.0011  0.0315
11233W        W54249  13.142   8.445  14.939 -0.0024 -0.0231 -0.1422
11234W        W54250   0.998  13.195  16.356  0.0184 -0.2854  0.0604
11235W        W54251   5.699  30.070  28.001 -0.3930 -0.0831 -0.1195
11236W        W54252  31.865   8.973   4.208  0.0324 -0.0784 -0.1568
11237W        W54253  22.825  13.831  18.848 -0.0761  0.1983  0.2535
11238W        W54254  17.531  32.047  27.398  0.0120  0.2297  0.1202
11239W        W54255  25.852   7.188  16.820 -0.4844 -0.0942  0.1701
11240W        W54256  15.136  14.724  28.105  0.1498 -0.3264 -0.0712
11241W        W54257   3.150   2.385  19.952 -0.0263 -0.1598 -0.0176
11242W        W54258  32.408   6.477  23.638  0.2435 -0.1401 -0.1272
11243W        W54259   5.560  21.041  28.802 -0.0203 -0.2359 -0.3787
11244W        W54260   1.938  12.377  21.012 -0.2156  0.0490 -0.0106
11245W        W54261  26.324  19.567  15.424  0.2054 -0.0658  0.1492
11246W        W54262  15.763  21.435  15.094 -0.0654  0.0212 -0.1958
11247W        W54263  10.016  31.491  17.583 -0.2296 -0.0562  0.1118
11248W        W54264  12.486  26.299  23.575  0.0665  0.0675 -0.1831
11249W        W54265  23.487  19.313  13.012 -0.0091  0.2283 -0.4386
11250W        W54266   2.787   8.948  26.097 -0.0191  0.0702  0.1224
11251W        W54267  28.267  12.237  16.102  0.4789  0.0419 -0.0595
11252W        W54268  20.809  33.402  20.767  0.1235 -0.0680 -0.1583
11253W        W54269  23.301  25.226   3.685  0.0438  0.0371 -0.4272
11254W        W54270  24.263   9.688   5.529  0.0388  0.0497 -0.0794
11255W        W54271   9.173  22.474  29.247  0.3414 -0.2256  0.0693
11256W        W54272  10.530  29.817  15.652  0.3386 -0.1192  0.0683
11257W        W54273   0.581   4.124  22.868 -0.2130  0.0975 -0.0637
11258W        W54274   5.003  11.188  19.060 -0.0648  0.1033 -0.0353
11259W        W54275   8.673   9.382  17.494  0.3874 -0.1063  0.1022
11260W        W54276   6.891  31.362  17.291 -0.0191  0.1761 -0.0417
11261W        W54277   0.758  17.663  25.684  0.2344  0.1319  0.1529
11262W        W54278  29.093  15.361   2.664  0.0080 -0.1806  0.1233
11263W        W54279  32.412  24.875  23.666  0.3473  0.1422 -0.0666
11264W        W54280  32.906  19.609  18.939 -0.2466  0.1403 -0.3862
11265W        W54281   7.138  30.664  15.130 -0.2134 -0.1431  0.2586
11266W        W54282  33.935  33.573  16.840  0.1372 -0.0927  0.1562
11267W        W54283  34.712  29.594  15.492  0.2697  0.3224  0.0719
11268W        W54284   1.003   6.403   0.570  0.2842  0.1029 -0.0314
11269W        W54285  10.014  18.435  21.424  0.1492 -0.2573  0.4530
11270W        W54286   4.631   1.560  21.564 -0.2888  0.2911 -0.0957
11271W        W54287   1.124  21.173  16.848  0.1657 -0.3320 -0.1026
11272W        W54288  34.730  21.206   5.567  0.3158 -0.3205 -0.5149
11273W        W54289  21.773  30.873  22.847 -0.2157 -0.0634  0.1268
11274W        W54290   7.332  31.814  16.554 -0.1217  0.1580  0.2002
11275W        W54291   8.701  10.954  24.260  0.0327 -0.1745  0.1902
11276W        W54292  32.527   4.454  20.156 -0.0356 -0.0071  0.0870
11277W        W54293   6.328  15.663  17.056  0.1458  0.1177 -0.3241
11278W        W54294  20.112  23.451  20.021 -0.3190  0.1038  0.0819
11279W        W54295  14.614  23.456  21.084  0.1886  0.0513 -0.0734
11280W        W54296   9.621  24.962  22.361 -0.0210 -0.0959  0.4691
11281W        W54297   0.649  19.698  22.423 -0.4758 -0.1416 -0.1556
11282W        W54298  28.520  14.364  23.883  0.1234  0.1422 -0.1698
11283W        W54299  24.992  21.695  23.036  0.0602 -0.0040 -0.0023
11284W        W54300  31.385  17.568  24.084 -0.2421  0.0482  0.4317
11285W        W54301  10.162  15.669  15.375  0.1433 -0.3331 -0.0877
11286W        W54302   9.216   4.627  21.843  0.0278 -0.1959 -0.0769
11287W        W54303  17.548  24.669  17.311  0.0641 -0.0488 -0.3827
11288W        W54304   2.684   9.890  14.073  0.0224  0.1808 -0.1770
11289W        W54305   2.730  17.157  27.084  0.1888  0.2320 -0.1069
11290W        W54306  19.526   5.425   0.955  0.0491 -0.3315 -0.0885
11291W        W54307  12.012  33.790  18.927  0.2119  0.2434  0.0877
11292W        W54308   4.374   6.827  14.066 -0.3503 -0.0117 -0.0571
11293W        W54309   8.668  18.573   1.934 -0.0415 -0.1126 -0.0711
11294W        W54310  11.419  22.925  29.308 -0.0567 -0.2987 -0.1488
11295W        W54311   6.481   7.823  24.551 -0.1272 -0.5000  0.0446
11296W        W54312  16.776   8.196  14.746  0.0170 -0.0033  0.0382
11297W        W54313  10.188  16.224  20.372 -0.0774 -0.0117 -0.0976
11298W        W54314  32.790   6.174  16.102  0.1059  0.0168 -0.2596
11299W        W54315  31.455   9.609  23.434  0.2441 -0.2445  0.2729
11300W        W54316  16.477  23.275  17.376 -0.5513  0.2360 -0.0008
11301W        W54317  26.756  11.136  15.613  0.1315  0.0418  0.0630
11302W        W54318   3.464  21.399  28.323 -0.1698 -0.1207 -0.1673
11303W        W54319  29.118  17.765  15.026  0.1172  0.1907 -0.1833
11304W        W54320   8.073  26.852  26.104 -0.0080 -0.1127 -0.1551
11305W        W54321   5.298  23.525  18.032 -0.0187 -0.1378  0.1032
11306W        W54322   8.998  11.680  22.360 -0.0545  0.3924  0.1302
11307W        W54323   1.078  10.196  22.540 -0.0860  0.0599  0.1623
11308W        W54324   2.164   9.143  16.387  0.4682  0.0647  0.0364
11309W        W54325   3.350  17.927  13.885  0.0195  0.0619  0.1156
11310W        W54326   9.460   1.589   8.363 -0.0316 -0.0362 -0.0947
11311W        W54327  21.688   7.870  26.309  0.1106 -0.2079 -0.0692
11312W        W54328   5.580  32.611  19.176 -0.0186  0.1128  0.0781
11313W        W54329   3.762  27.724  18.635  0.0374 -0.3542  0.1108
11314W        W54330  21.358  21.643  26.671  0.2442  0.0675 -0.0011
11315W        W54331   8.471  29.607   8.468 -0.1391  0.2175 -0.0790
11316W        W54332  33.012  12.221  18.229  0.0005 -0.1793  0.3547
11317W        W54333   0.768  19.769  21.615 -0.3419  0.0269 -0.0718
11318W        W54334  32.785  18.315  27.307  0.2037 -0.0905 -0.0704
11319W        W54335   7.402  33.211  16.872 -0.0262  0.1428 -0.0141
11320W        W54336   1.476   6.773  14.349 -0.3390  0.0192  0.3093
11321W        W54337   2.700   7.619  20.389 -0.0022  0.1546 -0.0270
11322W        W54338   7.046   5.197  20.032  0.0739 -0.0388 -0.2180
11323W        W54339  33.303  21.435  14.631  0.0739 -0.4648  0.3518
11324W        W54340  30.582  31.488  27.083 -0.1055 -0.0123  0.0285
11325W        W54341   8.993  28.306  18.666  0.0024 -0.0591 -0.0767
11326W        W54342  21.977   1.132  17.205  0.2387  0.0016  0.2241
11327W        W54343  32.404  10.573  18.200  0.0806  0.1275 -0.0636
11328W        W54344  13.978  11.158   0.901  0.1161  0.0736  0.1076
11329W        W54345   7.764  14.994  22.684 -0.1349 -0.0060  0.0792
11330W        W54346   4.804  11.270  17.866 -0.1905 -0.3614  0.0673
11331W        W54347  12.796  24.419  13.470 -0.0378 -0.3090  0.1364
11332W        W54348  23.762  17.892  24.075 -0.0931 -0.0277 -0.0702
11333W        W54349  12.361  18.914  12.596 -0.3355 -0.0658  0.1133
11334W        W54350  29.299  33.123  16.220  0.1362 -0.0171 -0.0819
11335W        W54351  28.722  16.035  20.300 -0.0877 -0.1740  0.1831
11336W        W54352   3.315   9.666  26.139 -0.4403 -0.2199  0.1753
11337W        W54353  33.749   9.216  19.719  0.0571 -0.3155  0.0018
11338W        W54354  28.821  10.328  23.323  0.1201 -0.2792 -0.0834
11339W        W54355  23.105  26.269   0.444  0.1014 -0.0593  0.1872
11340W        W54356  33.093  17.343  19.102 -0.0466  0.0689 -0.0339
11341W        W54357  30.132   8.115  14.649 -0.1504 -0.2039  0.1408
11342W        W54358   0.502  19.827  27.834  0.0402 -0.1406 -0.0038
11343W        W54359   3.471  11.743  21.818 -0.0563  0.0747 -0.0984
11344W        W54360  28.690  33.281  21.100  0.3517 -0.2080 -0.1434
11345W        W54361   6.455   2.947   4.848  0.2364  0.3154  0.1427
11346W        W54362   7.445  12.997  22.330 -0.0678 -0.2210  0.2000
11347W        W54363  30.694   3.880   6.387 -0.3093 -0.1165  0.0669
11348W        W54364  26.012  17.465  25.482 -0.1688  0.0815  0.1027
11349W        W54365   4.614  20.354  21.895 -0.0550  0.3033 -0.3151
11350W        W54366  25.219  19.848  18.169 -0.3725 -0.0913 -0.3687
11351W        W54367   5.957  14.988   7.521  0.1431  0.2403  0.3005
11352W        W54368  12.113   0.984  19.246 -0.2956  0.0061  0.0908
11353W        W54369  12.576  28.899  21.609 -0.0339  0.1034 -0.0105
11354W        W54370  34.103  11.473   1.409 -0.3290 -0.1528  0.0220
11355W        W54371  24.869  23.919  25.488 -0.3942 -0.1611 -0.1220
11356W        W54372   1.530  17.533  19.009 -0.2225 -0.2267 -0.1964
11357W        W54373  30.305  15.820  22.894 -0.1390 -0.0898 -0.4071
11358W        W54374  29.504  12.980  19.263  0.1160  0.1200 -0.0796
11359W        W54375  25.149  31.536  20.537 -0.0310 -0.0407  0.0188
11360W        W54376   0.224  16.975  19.132 -0.0749 -0.0930 -0.1040
11361W        W54377   7.839   1.093  28.520  0.2390 -0.0243 -0.3318
11362W        W54378  22.782  20.497  14.577 -0.0059  0.2860  0.2409
11363W        W54379  11.789  27.601  15.656 -0.1416  0.0487  0.2058
11364W        W54380   3.809  10.993  14.281 -0.0151 -0.0741 -0.0727
11365W        W54381  29.282  21.764  20.875  0.1088 -0.1596  0.0125
11366W        W54382   2.264   6.304  17.432 -0.0415  0.0799 -0.1777
11367W        W54383  20.917   4.715  26.476  0.2004 -0.3531 -0.0471
11368W        W54384  13.770   1.284  21.327  0.0394 -0.0617  0.0003
11369W        W54385  34.489  22.212  17.615  0.2744 -0.1215 -0.1243
11370W        W54386   5.995   4.710  16.584 -0.2585 -0.0559 -0.0679
11371W        W54387  25.898  28.179   0.568 -0.1919  0.1461  0.1180
11372W        W54388   8.202  22.108  13.024  0.1031  0.1543 -0.2007
11373W        W54389   1.697  20.912  24.911 -0.2517 -0.1291  0.1323
11374W        W54390   9.041  17.173  22.789 -0.0688  0.1469  0.2039
11375W        W54391   5.869  17.893  25.913 -0.0288  0.0602  0.0078
11376W        W54392   3.629  17.074  21.258  0.0272 -0.0467  0.0442
11377W        W54393  12.124   5.141  28.900  0.3115 -0.2715  0.0819
11378W        W54394  31.865   9.331   1.951 -0.0174 -0.0856  0.0074
11379W        W54395  11.410  10.801  23.709  0.3959  0.2227  0.0997
11380W        W54396   7.075  19.880  14.095  0.0136  0.0840 -0.0159
11381W        W54397  23.165  14.094  28.498 -0.4062  0.2889  0.0005
11382W        W54398   5.006  29.872  19.339  0.2625 -0.1905  0.2958
11383W        W54399  33.743  29.671   7.657 -0.1258  0.0796  0.2208
11384W        W54400  11.122  19.903   1.173  0.2531  0.0465  0.0753
11385W        W54401  20.953  18.614  13.059  0.1810 -0.2513 -0.0155
11386W        W54402   9.545   8.018  14.810 -0.2143  0.0114 -0.1931
11387W        W54403   2.319  18.284  25.846 -0.0560 -0.0529  0.0551
11388W        W54404   1.511   8.282   0.115 -0.0665  0.0687 -0.1930
11389W        W54405  26.353   6.310  23.942 -0.2150  0.0933  0.2369
11390W        W54406  12.423  34.594  28.908 -0.2325 -0.1173 -0.0814
11391W        W54407  20.628  21.494  15.152  0.3557 -0.0433 -0.0613
11392W        W54408  14.782  12.454   0.109  0.1284  0.3985  0.1899
11393W        W54409  31.968  14.752  18.403  0.0399 -0.0308 -0.2265
11394W        W54410  24.148  32.103  23.639 -0.0753  0.1869  0.0291
11395W        W54411   1.335  32.078   0.020  0.3034  0.5560  0.1422
11396W        W54412  34.433  31.687  28.394 -0.0288 -0.0401  0.1102
11397W        W54413  21.112  24.731   1.097 -0.1084  0.0304  0.0921
11398W        W54414  14.389  26.803  29.047 -0.2854  0.0025  0.3466
11399W        W54415  12.043  13.638  21.403 -0.2329  0.0054  0.0645
11400W        W54416  23.072   7.785  22.070 -0.2049  0.1076  0.0533
11401W        W54417  10.781   6.413  26.740 -0.1086  0.0996  0.1143
11402W        W54418  26.391  17.521  14.922  0.1061  0.4222  0.0026
11403W        W54419  28.079  22.838   3.827 -0.0188  0.4776 -0.0994
11404W        W54420   9.880  21.667  20.341 -0.3567 -0.2524 -0.1133
11405W        W54421  30.137  22.879  18.348  0.0332  0.1279 -0.1091
11406W        W54422   5.547  13.881  14.309 -0.0075  0.1525 -0.1248
11407W        W54423  21.166   8.333  15.537  0.0171  0.1421  0.1787
11408W        W54424   1.288  16.858  24.305  0.0225 -0.0543  0.0160
11409W        W54425  11.140  20.937  17.921  0.0898  0.0054 -0.0041
11410W        W54426  33.634   2.187  14.533  0.0513  0.0519 -0.1628
11411W        W54427   4.199  32.860   1.592 -0.7215 -0.4124  0.2526
11412W        W54428   6.514  11.505   4.723  0.1728  0.2249  0.0921
11413W        W54429   6.559  14.143  18.973 -0.1657  0.1446 -0.2286
11414W        W54430  18.752  34.124  22.967 -0.1605  0.0831  0.0677
11415W        W54431   5.134  11.626   6.116  0.2724  0.1690  0.2326
11416W        W54432  32.445  11.867   1.864 -0.2439  0.1829 -0.0750
11417W        W54433  27.885  23.737  20.900 -0.0700  0.2470  0.1681
11418W        W54434  27.369  22.694   4.985  0.2302 -0.0200 -0.5343
11419W        W54435  23.269   6.206  19.263  0.2262  0.0784 -0.1919
11420W        W54436  34.102  17.708  16.804 -0.1244 -0.1307  0.2349
11421W        W54437  10.245  15.879  19.576 -0.3061  0.1559 -0.0089
11422W        W54438  24.455  25.150  19.662  0.2604 -0.0288  0.0345
11423W        W54439  18.676  16.737   7.876  0.0411 -0.0819  0.0500
11424W        W54440  31.558  20.235   8.875  0.0794  0.0055  0.1527
11425W        W54441   3.018   5.731   5.073  0.1398  0.4064 -0.2121
11426W        W54442  11.492  17.216  17.394  0.1723  0.1986 -0.1283
11427W        W54443  29.150  12.130  17.795  0.1938 -0.2712 -0.0649
11428W        W54444  29.078  19.542  20.628 -0.1535 -0.0653  0.3440
11429W        W54445  32.791  23.698  21.822  0.2123 -0.1461 -0.1850
11430W        W54446   1.456  20.161  24.467 -0.3039 -0.2347  0.0441
11431W        W54447  26.538  33.946   2.742  0.0689 -0.4203 -0.2105
11432W        W54448  13.146  23.508  12.186  0.1192  0.2093  0.1365
11433W        W54449   0.565  22.769   2.027  0.1631  0.1203  0.0263
11434W        W54450   6.688  11.291  25.922  0.3194 -0.1136 -0.3238
11435W        W54451  30.579   4.540  15.982  0.0745 -0.1271 -0.3174
11436W        W54452  10.621  22.806  25.866 -0.2836  0.1865  0.1083
11437W        W54453  23.017  17.330  16.671  0.0240 -0.3016 -0.0704
11438W        W54454  14.550  12.425  22.395  0.0628  0.1769 -0.1588
11439W        W54455   3.712  12.350  18.796  0.0275 -0.1904 -0.0321
11440W        W54456  22.569  17.699  14.942 -0.1699  0.1938 -0.0799
11441W        W54457  21.881  12.649  17.449 -0.1641 -0.1163  0.1344
11442W        W54458  12.871  11.681   1.705  0.0468  0.2323  0.1523
11443W        W54459   4.857   6.511   6.547 -0.2217  0.5010  0.0433
11444W        W54460  28.054  25.594  18.314 -0.2076 -0.1015 -0.2719
11445W        W54461   8.762  13.508  23.527  0.4348 -0.4889 -0.0383
11446W        W54462  18.752  21.384  12.772  0.0137 -0.1236 -0.0248
11447W        W54463  27.315  10.959  25.462 -0.2252 -0.1278  0.1135
11448W        W54464  23.280  28.371   1.621 -0.1591  0.0593 -0.0009
11449W        W54465  25.914  31.868   6.622 -0.2634 -0.1925 -0.1254
11450W        W54466  31.054  33.998   7.471 -0.0286 -0.0854 -0.3642
11451W        W54467   1.432  18.624  17.476  0.4934 -0.0199  0.0062
11452W        W54468  28.532  26.230   3.312  0.2384  0.3996 -0.1820
11453W        W54469  31.038   6.367  20.730 -0.0338  0.0641 -0.1063
11454W        W54470  27.985  16.030  24.379  0.0738 -0.0374  0.0917
11455W        W54471   5.026  14.122   0.537 -0.2117  0.1856  0.1257
11456W        W54472   3.361   5.808  23.526  0.0246  0.0933  0.1776
11457W        W54473  32.475   5.483   2.679  0.2767  0.0019 -0.2212
11458W        W54474  23.514   9.661   0.221  0.1113  0.4413 -0.0018
11459W        W54475  33.242  30.282  25.647  0.0137  0.1144 -0.2366
11460W        W54476   2.461  11.372   6.022 -0.2092 -0.3313  0.0639
11461W        W54477   2.063  22.409   5.742  0.0466  0.0838  0.4677
11462W        W54478   1.247  18.732  15.976 -0.0182  0.0597  0.2492
11463W        W54479   2.639  29.681  21.446 -0.3217  0.0965 -0.2510
11464W        W54480  22.164  31.093   8.008 -0.1235  0.1394 -0.2507
11465W        W54481  22.771  19.912   1.982 -0.0085  0.0602 -0.1846
11466W        W54482  25.256  21.587   4.897  0.2510 -0.0415 -0.0136
11467W        W54483  20.655  26.941   7.452 -0.0272 -0.3265 -0.3595
11468W        W54484  23.920  11.887  22.602  0.0858  0.0403  0.0092
11469W        W54485  20.600  31.050  29.112 -0.1470 -0.0438  0.4000
11470W        W54486  34.103  18.668  27.870  0.3037  0.1757 -0.1919
11471W        W54487   4.120  10.748  18.320 -0.0462 -0.4350 -0.1093
11472W        W54488  21.469  20.755  17.707 -0.1786  0.1284  0.0204
11473W        W54489   9.863  26.132  23.723 -0.2054  0.3515 -0.4070
11474W        W54490  32.147  14.655  20.419  0.6626 -0.1666 -0.0128
11475W        W54491  22.018  19.603  16.587 -0.2173  0.1122  0.2894
11476W        W54492   7.171  22.360  24.970 -0.1075  0.1390  0.0294
11477W        W54493  34.001  18.288  25.500  0.0277  0.1248 -0.2674
11478W        W54494  34.049  14.630  18.717 -0.4459  0.0171 -0.0458
11479W        W54495  31.040  20.826  20.830 -0.1409  0.0703 -0.2537
11480W        W54496  33.894  21.932  26.468 -0.1802 -0.2257 -0.1249
11481W        W54497   6.272  18.356  15.709  0.1612 -0.1557 -0.2899
11482W        W54498  26.479  26.774   2.342  0.1435 -0.1027 -0.2655
11483W        W54499  19.568  28.279  20.150 -0.2669 -0.1164 -0.2857
11484W        W54500  13.675   0.604  26.506  0.0654  0.1940  0.0026
11485W        W54501   6.829  18.403   6.556  0.1507 -0.4068 -0.0801
11486W        W54502  24.173  12.200  21.176 -0.0131  0.0258 -0.3339
11487W        W54503  23.054  13.175  21.043 -0.1634  0.2804  0.0606
11488W        W54504  12.978  17.383  28.898  0.4155  0.2407 -0.1927
11489W        W54505  23.864   4.855   3.240  0.1185  0.1151  0.1044
11490W        W54506  16.142  14.460   7.739 -0.3085  0.2044  0.0194
11491W        W54507  31.869  15.090  24.586 -0.1456  0.0465 -0.2376
11492W        W54508   2.979  27.902  27.789 -0.0952 -0.3558  0.2344
11493W        W54509  14.926  10.769  24.431  0.1194  0.0316  0.0265
11494W        W54510   4.851  12.307  26.110  0.2071 -0.3186  0.4027
11495W        W54511  10.091  27.507  15.153 -0.0056 -0.0321  0.1325
11496W        W54512  33.995  16.049  19.175 -0.0060 -0.0019 -0.1866
11497W        W54513   7.003  14.078  17.503  0.1704  0.2457  0.0570
11498W        W54514  21.595   8.854  17.673 -0.2505  0.0722  0.0206
11499W        W54515  13.194  20.773  19.054  0.3751  0.0572 -0.0042
11500W        W54516  14.815  11.883  19.945 -0.0717 -0.0780  0.1323
11501W        W54517   8.266  15.732  27.676  0.0116  0.1317 -0.2244
11502W        W54518  14.925  26.168  24.055 -0.1411  0.0579  0.0776
11503W        W54519  32.513  12.873  21.060  0.3310 -0.3428  0.4167
11504W        W54520   1.126  10.115  16.150 -0.0567  0.0902  0.0573
11505W        W54521   4.497  19.835  20.767  0.3433 -0.1091  0.0179
11506W        W54522  11.554  13.309  20.677  0.0549 -0.1976  0.2445
11507W        W54523  11.879   7.074  15.415 -0.1760 -0.0730  0.0455
11508W        W54524   3.124  16.639   3.687 -0.0303 -0.0503  0.3530
11509W        W54525  31.467  20.411  23.188  0.3177 -0.0763  0.0717
11510W        W54526   6.356  22.570   9.433 -0.4113 -0.2568  0.0840
11511W        W54527  30.383  21.614  24.542  0.0375 -0.1074  0.2181
11512W        W54528  25.598  10.653  16.042 -0.1038  0.1944  0.0878
11513W        W54529   5.476  18.142  19.559  0.0291  0.0997  0.1648
11514W        W54530  15.757  18.286  11.805 -0.1341 -0.0852  0.2462
11515W        W54531  22.145  18.969  13.463 -0.0576 -0.1116  0.0301
11516W        W54532  23.952   9.924  27.847  0.1576 -0.0207 -0.1508
11517W        W54533  34.125   9.136  15.447 -0.2779  0.5971  0.0170
11518W        W54534  11.845   1.612  15.740  0.0426  0.0181 -0.0912
11519W        W54535   1.761  32.295  15.137  0.3716  0.1907  0.0072
11520W        W54536   2.088  31.147  24.410 -0.0515 -0.1366 -0.1345
11521W        W54537   2.056  20.049  21.266  0.0743  0.1509  0.1911
11522W        W54538   9.175  31.280  29.312  0.0617  0.0946  0.3087
11523W        W54539  16.915   9.263  14.364  0.0841  0.2136  0.1170
11524W        W54540  32.483  12.357  17.614  0.1610  0.1389 -0.0795
11525W        W54541  30.384  27.581   2.322  0.0325 -0.0746  0.0950
11526W        W54542  11.884  12.149  16.761 -0.1032 -0.2355  0.2531
11527W        W54543  10.356  16.902  13.627  0.1219 -0.2014 -0.2988
11528W        W54544  10.659  14.736  17.500  0.4996  0.0705  0.0766
11529W        W54545   6.794  15.260  15.965  0.2546  0.0893 -0.1505
11530W        W54546  10.336  17.484  20.768 -0.1175  0.1072 -0.1720
11531W        W54547  27.197  28.008  21.133  0.1437  0.1441  0.0504
11532W        W54548  25.576  11.251  28.037 -0.0199 -0.1084 -0.1676
11533W        W54549  31.437  24.228  22.703  0.1063  0.1151  0.3521
11534W        W54550   3.944  22.804   7.255  0.0242  0.4256 -0.1346
11535W        W54551  20.557  19.564  15.353 -0.1950 -0.0449  0.0878
11536W        W54552  34.617  24.738  14.802 -0.0070 -0.1314 -0.4572
11537W        W54553   6.986  22.598  24.415 -0.0794 -0.3816  0.2341
11538W        W54554  32.165  21.913  15.865 -0.2055  0.1957 -0.2832
11539W        W54555  25.309  16.480  21.714 -0.0328 -0.1724 -0.0586
11540W        W54556  30.771  19.376  18.419  0.0800 -0.0071  0.0156
11541W        W54557  28.973  28.630  11.171 -0.3327 -0.2147 -0.0811
11542W        W54558  12.916  15.785  25.705  0.0089 -0.0492  0.3315
11543W        W54559   4.643  21.888  22.349  0.2365  0.0243 -0.0337
11544W        W54560  12.786  11.349  22.502 -0.1846  0.1133 -0.1030
11545W        W54561  32.665  21.754  22.657 -0.0526  0.1240 -0.0680
11546W        W54562  11.308   9.413  17.026 -0.0004  0.1572  0.0903
11547W        W54563   0.365   8.287  21.842 -0.3339 -0.2476 -0.1617
11548W        W54564  25.837  15.580  18.416  0.1146  0.0047 -0.2862
11549W        W54565  23.266  16.868  17.005  0.0615 -0.0833  0.6617
11550W        W54566  29.444  29.015  26.056 -0.0241 -0.1244 -0.1631
11551W        W54567   4.718  29.855  16.750 -0.0794 -0.2858  0.0183
11552W        W54568  14.610  16.574  26.289 -0.0045 -0.2465  0.4474
11553W        W54569  25.145  15.935  23.623  0.0494  0.1393  0.0230
11554W        W54570  25.764  11.232  28.497  0.0170 -0.1690  0.1243
11555W        W54571  32.642  23.335  20.255 -0.2544 -0.3142  0.0756
11556W        W54572   5.129  24.078  18.289  0.0557  0.2512 -0.2170
11557W        W54573  25.187  32.854  25.517  0.0877  0.2044  0.2399
11558W        W54574   2.791  12.576  19.124  0.0286  0.1180  0.0034
11559W        W54575   6.695  33.184  24.041 -0.1578 -0.1845 -0.3232
11560W        W54576  29.431  14.616  22.563  0.0080  0.1807  0.2243
11561W        W54577  10.354   8.314  20.998  0.2843 -0.0408  0.0337
11562W        W54578  32.868  25.053  22.166  0.0436 -0.1940  0.0721
11563W        W54579  32.582  14.406  24.622 -0.1569  0.0824  0.0286
11564W        W54580  31.091   8.203  23.614  0.0314  0.1048 -0.2080
11565W        W54581  33.856  20.888   5.514  0.2812  0.2346  0.0635
11566W        W54582  29.511  16.293  25.940  0.3273  0.1684  0.1134
11567W        W54583   9.769  31.665  23.136  0.1331  0.0375  0.1944
11568W        W54584  18.730  10.562  21.129 -0.1283 -0.1020 -0.0242
11569W        W54585  25.094   8.202  26.043 -0.3104  0.1644  0.1548
11570W        W54586  10.567  18.636   6.426  0.1058  0.0585  0.1761
11571W        W54587  10.770   1.530   3.988 -0.0057 -0.2925  0.1427
11572W        W54588  10.048  25.499  25.800 -0.0483 -0.0779  0.1020
11573W        W54589   3.134  20.367  23.846 -0.0879  0.4437 -0.0387
11574W        W54590  22.258   2.144  19.967  0.1305 -0.2448 -0.2308
11575W        W54591  18.491  26.561  21.761  0.1534 -0.0759 -0.0810
11576W        W54592   3.814  12.170  21.129 -0.2510 -0.2021  0.0431
11577W        W54593  27.691  21.364   6.494 -0.0415  0.0767 -0.0307
11578W        W54594   9.704  31.923  18.889 -0.3591 -0.1171 -0.1606
11579W        W54595  12.300  15.133  16.881  0.2625 -0.1780 -0.1754
11580W        W54596  26.412   8.644   7.402 -0.2943  0.3381 -0.1105
11581W        W54597  13.553  10.380  16.986  0.2613 -0.0275 -0.0620
11582W        W54598   5.422  19.861  16.763 -0.0089 -0.2672 -0.3752
11583W        W54599  29.801  21.044  19.486  0.0934  0.0877 -0.0104
11584W        W54600  32.309  26.982  17.061 -0.1311  0.0242 -0.0638
11585W        W54601   1.225   2.327   9.916  0.1701  0.1300  0.0709
11586W        W54602  30.487  14.647  21.880  0.0179 -0.2669  0.1046
11587W        W54603  31.516  32.257  20.347  0.2517 -0.1478  0.0910
11588W        W54604   1.809   4.912   7.143 -0.1284 -0.1195 -0.0238
11589W        W54605  11.537  24.329  21.540  0.3691  0.3702 -0.0701
11590W        W54606  26.451  22.162   4.778 -0.2119 -0.0706 -0.1025
11591W        W54607   6.463   2.211  20.331 -0.1940  0.3294 -0.1159
11592W        W54608   5.223  11.374  27.627 -0.1592  0.1112 -0.3127
11593W        W54609   0.365  20.761   1.308 -0.0559  0.1339 -0.4494
11594W        W54610   0.540  10.664   0.372  0.4453  0.0165  0.4768
11595W        W54611  28.176   2.309  11.652 -0.0248  0.0566  0.1141
11596W        W54612   5.922  26.279  16.867 -0.0508 -0.0695 -0.2240
11597W        W54613  34.581  19.053  15.867  0.0912  0.0897 -0.0944
11598W        W54614   9.840  20.541  28.875  0.2299  0.1604  0.2670
11599W        W54615  15.403   6.614  10.162 -0.0241 -0.1260  0.1640
11600W        W54616  17.928  12.971  22.687  0.0245 -0.4323 -0.3772
11601W        W54617   3.072   7.876  24.885 -0.0625 -0.3620  0.1877
11602W        W54618  11.181  26.693  21.297 -0.1465  0.0123 -0.1290
11603W        W54619  28.695  22.440  22.580 -0.1836 -0.1856 -0.1582
11604W        W54620  28.248   3.077  20.730  0.0738 -0.0681 -0.1709
11605W        W54621   2.181   6.425  25.851  0.0457  0.1930 -0.1532
11606W        W54622  34.444  13.334  19.018 -0.0432 -0.0363  0.0553
11607W        W54623   8.840  15.744  25.525  0.2446  0.2762 -0.0070
11608W        W54624  14.108  19.152   7.815  0.2025  0.0580 -0.2750
11609W        W54625  24.860  32.834  15.969  0.0764 -0.1884  0.0569
11610W        W54626   4.243  15.146  22.909 -0.2036 -0.1739  0.3502
11611W        W54627  26.957  13.748  29.255  0.3165 -0.0662 -0.1900
11612W        W54628  12.234  26.762  23.021 -0.4621 -0.0658 -0.0634
11613W        W54629  30.085  12.981  21.146  0.0973  0.3451  0.3237
11614W        W54630  18.089  18.843   1.419  0.0823 -0.2057 -0.3203
11615W        W54631  24.721  26.629   8.786  0.0213 -0.0586 -0.0836
11616W        W54632  11.917  24.323   1.965 -0.1869  0.1878  0.0405
11617W        W54633   3.797  31.211  19.854 -0.1216  0.1023  0.5441
11618W        W54634  16.192  23.321  22.185 -0.0403  0.2420  0.1784
11619W        W54635  27.516   4.528   6.004  0.1462 -0.1272  0.3330
11620W        W54636   7.759  17.212  15.456 -0.0698  0.0984  0.0901
11621W        W54637   7.561  19.299  20.072  0.2154 -0.1921  0.0698
11622W        W54638  30.064  27.381  21.805  0.1326 -0.0881  0.3545
11623W        W54639  34.510  19.827  18.621  0.1020  0.1858  0.0516
11624W        W54640   3.242  32.186  25.327  0.1639  0.1767  0.3609
11625W        W54641   7.564  23.501   4.996  0.1271 -0.0315  0.2141
11626W        W54642   6.991  21.215  20.475  0.0184 -0.3229  0.2846
11627W        W54643  22.996  17.156  15.614 -0.0400 -0.2671  0.0953
11628W        W54644  30.059  17.211   5.305 -0.1114 -0.0745  0.2166
11629W        W54645  33.418  15.302  19.762 -0.2546  0.0555  0.2347
11630W        W54646  21.537  23.210  18.969 -0.2049  0.1487  0.1372
11631W        W54647  20.604   0.674   8.070  0.2573  0.0534 -0.2071
11632W        W54648  29.070  17.315  20.080  0.0809  0.1826  0.0419
11633W        W54649  18.783  30.604  18.249 -0.1478 -0.1843 -0.2831
11634W        W54650  29.613  15.994  15.649  0.2435 -0.3222 -0.0430
11635W        W54651  34.472  21.492  17.026  0.1858  0.2955 -0.1190
11636W        W54652   5.377  16.113   5.406 -0.3693  0.0163 -0.0429
11637W        W54653  34.232   6.239  22.058 -0.2725 -0.1339  0.2339
11638W        W54654  29.490  22.510  25.111  0.3611  0.0895 -0.2097
11639W        W54655  27.454  19.919  16.092  0.0572 -0.1060 -0.3599
11640W        W54656  29.363  16.292  16.635 -0.0464 -0.1584  0.1151
11641W        W54657  33.070  23.926   2.267 -0.0125  0.1616 -0.1198
11642W        W54658   2.720   4.764   7.028  0.0904 -0.0989  0.0734
11643W        W54659  17.229  33.725  18.854  0.1163 -0.2912  0.0219
11644W        W54660  30.373  17.270  15.898  0.0786  0.1981 -0.1041
11645W        W54661  11.738  33.448   2.994  0.0282 -0.1616 -0.2191
11646W        W54662  26.239  19.660  14.573 -0.0573  0.1692 -0.1186
11647W        W54663   3.851   6.845  14.412 -0.2388  0.1520 -0.0168
11648W        W54664  21.536   6.868  14.545 -0.2825  0.0007 -0.0690
11649W        W54665   3.454  10.726  17.156 -0.1102  0.1242 -0.1045
11650W        W54666   7.413  17.165  17.231 -0.2448  0.0146 -0.0220
11651W        W54667  20.998  33.695   6.591  0.1694 -0.2679  0.1535
11652W        W54668   8.154  24.156   1.464 -0.0900  0.1031  0.1500
11653W        W54669   2.311  20.419  20.952 -0.0837  0.2989  0.2669
11654W        W54670  32.787  28.033   7.908  0.5038  0.0939 -0.1281
11655W        W54671   0.654  24.580  28.258  0.0550 -0.0767 -0.1986
11656W        W54672  31.586  14.219   5.166 -0.1167 -0.0379  0.0389
11657W        W54673  29.055   3.321  20.482 -0.1459 -0.3015 -0.3753
11658W        W54674  14.495  28.560  21.299  0.0316 -0.0064 -0.2740
11659W        W54675  31.997  16.775   5.863 -0.3288 -0.1745 -0.0824
11660W        W54676  15.005  10.813   7.823 -0.2023 -0.1509  0.3075
11661W        W54677  30.455  14.110  22.015  0.2148  0.1600  0.0092
11662W        W54678  18.483  15.420  18.711  0.1418  0.1388 -0.0151
11663W        W54679   6.648  11.349  17.870  0.1098 -0.1733  0.1214
11664W        W54680  23.339  24.742   3.416  0.1193 -0.1779 -0.3381
11665W        W54681  28.125  28.688  16.901  0.2596  0.2662 -0.0978
11666W        W54682  21.575  25.583  19.388 -0.3073  0.0208 -0.0501
11667W        W54683  29.747  10.701   8.849 -0.1698 -0.0665  0.1956
11668W        W54684  33.541  11.345  17.082 -0.0606  0.0769  0.2276
11669W        W54685  16.891   7.042  29.199  0.0315 -0.2409 -0.1540
11670W        W54686  17.715   8.408   3.885  0.1302 -0.2179  0.0620
11671W        W54687  24.752  16.537  25.992 -0.0164 -0.0214  0.3343
11672W        W54688  26.974  22.147  26.039  0.3154  0.1945  0.0537
11673W        W54689  17.772   2.226   7.655  0.2063 -0.0122  0.2540
11674W        W54690  32.535  15.155   1.368  0.1626 -0.0711  0.1276
11675W        W54691  20.897  22.137  21.984 -0.0800 -0.2470 -0.4230
11676W        W54692   3.394  16.275  15.270 -0.0008 -0.0650  0.2418
11677W        W54693  34.190  16.037   5.393 -0.3192  0.0564  0.1509
11678W        W54694  32.466   0.315   3.905  0.1478 -0.4340 -0.3348
11679W        W54695  11.835  19.549   0.507 -0.0107 -0.1118  0.1336
11680W        W54696   8.923  18.919  23.891  0.3564 -0.0968  0.1287
11681W        W54697   1.119  29.877  20.588  0.1200  0.0981  0.2850
11682W        W54698  31.804  27.324   5.664  0.0099 -0.0985 -0.2171
11683W        W54699   7.898  12.150  19.815 -0.0904  0.0357  0.1449
11684W        W54700  32.078   6.161   9.609 -0.2331 -0.0671  0.0483
11685W        W54701  11.379  21.148  18.930  0.0811 -0.0575 -0.0043
11686W        W54702  26.232  11.554  21.340  0.3204 -0.3017 -0.2138
11687W        W54703   1.888  13.237  16.677  0.0906  0.1011 -0.0008
11688W        W54704   6.238  12.896  22.824 -0.1710  0.0190 -0.1106
11689W        W54705  33.227  10.845  15.530 -0.4088  0.1297  0.1080
11690W        W54706  25.105   3.945  26.700 -0.2163 -0.1067 -0.0947
11691W        W54707  16.934  33.455  24.589 -0.1689 -0.0236  0.3439
11692W        W54708   1.205  23.117   3.784  0.1148  0.2467 -0.2150
11693W        W54709  34.637  12.495   8.102  0.2555  0.2030  0.0670
11694W        W54710   8.649  27.993  18.866 -0.0484 -0.4555  0.2286
11695W        W54711  29.907   6.752  24.166  0.2316  0.2192  0.3484
11696W        W54712  27.232  23.168  23.285  0.1152  0.0546  0.0129
11697W        W54713   2.824  25.063  20.380  0.0597 -0.0284 -0.2719
11698W        W54714   6.954   4.459   2.780 -0.1586  0.1552 -0.0681
11699W        W54715  26.628  16.154  23.881 -0.1318  0.2606 -0.3098
11700W        W54716  12.451  12.914  19.002 -0.0181 -0.0471  0.0243
11701W        W54717  27.931  16.680  19.533  0.3619 -0.0208  0.2218
11702W        W54718  28.844  27.798   5.687  0.0878 -0.0066  0.4282
11703W        W54719  31.345  33.920   0.252  0.0731 -0.4508 -0.1763
11704W        W54720   0.536   6.332  14.763  0.1550  0.2333 -0.1702
11705W        W54721  10.882  11.977  25.601 -0.3865  0.2573 -0.3654
11706W        W54722  15.086   5.047  19.957 -0.4689  0.0380 -0.1931
11707W        W54723  34.154  26.658  24.073  0.1067  0.0178 -0.4533
11708W        W54724   0.699   8.801  24.608  0.1176  0.0104 -0.0070
11709W        W54725  32.230  17.034  20.593  0.0602  0.0071  0.0671
11710W        W54726   7.402   9.619  24.923  0.0211 -0.0559  0.3669
11711W        W54727  30.422  12.380   2.559 -0.1588  0.0767 -0.0547
11712W        W54728   2.865   6.045  20.668  0.2720 -0.1326  0.0215
11713W        W54729  30.037  14.142   3.871  0.1116  0.1536 -0.0390
11714W        W54730  32.928  18.594  15.192  0.0181  0.3122  0.1796
11715W        W54731   3.772  28.225  27.943 -0.2190  0.3212  0.1242
11716W        W54732  10.836  13.272  24.648 -0.1905  0.2571 -0.3400
11717W        W54733   5.060  15.558  27.011 -0.0352 -0.0733  0.0144
11718W        W54734   9.505  21.631   3.826 -0.0072  0.0543 -0.1023
11719W        W54735   7.671  13.638   8.592 -0.2281 -0.0747 -0.0281
11720W        W54736   9.855  21.610   5.986  0.0204 -0.2648 -0.2933
11721W        W54737   0.976  22.868   8.707 -0.0245 -0.2739 -0.0119
11722W        W54738   7.473  28.476   2.009 -0.2441  0.0269  0.3127
11723W        W54739   0.421  19.918  14.941 -0.0834 -0.2650  0.1316
11724W        W54740  31.406  31.453   0.492  0.0208 -0.2283 -0.1242
11725W        W54741  28.790  19.368  23.072 -0.0221 -0.1533  0.3719
11726W        W54742   7.783  30.160  16.866  0.1847  0.1631 -0.0451
11727W        W54743  22.038  15.506  20.666  0.1836  0.2535  0.1527
11728W        W54744   4.870  14.238  22.832  0.2361  0.0924  0.2018
11729W        W54745  17.740  26.467  23.727  0.1233 -0.2933  0.1654
11730W        W54746   2.966  10.810   3.215  0.0204  0.0749 -0.3186
11731W        W54747  34.379  34.094  14.209  0.0065 -0.0166 -0.0553
11732W        W54748  12.738  12.100  22.661 -0.0814  0.0941 -0.0066
11733W        W54749  24.801  17.413  24.110 -0.1716 -0.3977 -0.2346
11734W        W54750   2.419   3.929   1.268 -0.3954  0.0952  0.2446
11735W        W54751   2.903  19.320  27.954 -0.1063 -0.0420 -0.1794
11736W        W54752   5.449   2.093  19.523  0.2186  0.0931  0.3311
11737W        W54753  23.913  33.079  16.719  0.1216 -0.2680 -0.0967
11738W        W54754   1.014  12.415  17.283 -0.0722 -0.0224 -0.0630
11739W        W54755   5.151   6.761  22.718 -0.2690 -0.0376  0.1170
11740W        W54756   4.669  21.680  23.307 -0.4561  0.0971 -0.0616
11741W        W54757  21.154  10.178  15.373 -0.0401 -0.0879 -0.2772
11742W        W54758   5.570  18.503  16.369  0.0054 -0.1412  0.2217
11743W        W54759  31.145  18.439  20.996 -0.1109  0.1506 -0.2137
11744W        W54760  23.753   3.442  17.664  0.2296  0.2860  0.0737
11745W        W54761  12.183  28.812  17.993 -0.0075  0.1592  0.0411
11746W        W54762   9.713  28.306  23.880 -0.4609  0.0873  0.1134
11747W        W54763   3.125  18.769   7.311  0.0813 -0.2994  0.1159
11748W        W54764  19.161  29.224  27.897  0.0690 -0.0802  0.0567
11749W        W54765  18.117  22.435  17.934 -0.0028 -0.2334  0.1923
11750W        W54766  24.773  12.074  27.091 -0.1393  0.1524  0.0567
11751W        W54767  24.436  14.982  19.758 -0.1628 -0.1513  0.0960
11752W        W54768   1.077   8.050  20.466  0.3625  0.3762  0.2593
11753W        W54769  12.541  12.270   4.312 -0.4551 -0.1297  0.0469
11754W        W54770  32.776  25.487   8.282  0.1147  0.3224 -0.1535
11755W        W54771   7.698  29.820  17.333  0.1874  0.1791  0.0839
11756W        W54772  32.671  22.185  16.163 -0.0224 -0.1734  0.0546
11757W        W54773   8.099  11.121  20.491 -0.0003  0.1431  0.0187
11758W        W54774  24.030  26.043   6.551  0.0896  0.3853  0.0447
11759W        W54775   9.930  10.529  25.371 -0.1660 -0.1070  0.1933
11760W        W54776  23.402  31.583  25.001 -0.5113  0.2799 -0.0379
11761W        W54777  13.151   5.449  22.542  0.1998  0.3247  0.1076
11762W        W54778  34.576  24.662   8.704 -0.2035  0.4529 -0.1937
11763W        W54779  29.120  24.882  22.729  0.1526  0.1509  0.0007
11764W        W54780   6.728  21.652   2.084  0.0722 -0.0824  0.0151
11765W        W54781  30.927  19.842  18.276 -0.0367  0.1360 -0.1113
11766W        W54782   5.367   3.699  20.223 -0.0561 -0.0607  0.1907
11767W        W54783  18.136  12.281  20.278  0.2362  0.0672  0.1941
11768W        W54784   2.746   9.970  25.394 -0.0534 -0.1195  0.2053
11769W        W54785  23.678  33.276  15.598 -0.1238  0.0971  0.1468
11770W        W54786   6.499  26.069  22.754  0.0766  0.1300 -0.0635
11771W        W54787  31.124  25.452  14.865  0.1752 -0.3314 -0.2306
11772W        W54788  11.413   5.172  28.197 -0.1704 -0.0993  0.0480
11773W        W54789   9.091  17.146  22.304  0.1758 -0.1443 -0.1377
11774W        W54790   1.390   3.367  19.519  0.0055 -0.3572 -0.0302
11775W        W54791  24.770  24.640  19.819  0.2458 -0.2080  0.0021
11776W        W54792  20.896  15.463   0.694 -0.1425  0.2475 -0.0132
11777W        W54793  23.246  19.956   2.847  0.0146  0.1671 -0.0516
11778W        W54794  27.266  24.839  18.676 -0.1137 -0.2341  0.0047
11779W        W54795  28.546  15.932  21.100 -0.2053  0.0435 -0.0247
11780W        W54796   9.401   7.716  19.094 -0.1332 -0.1030 -0.0491
11781W        W54797   2.880   5.573  19.424 -0.0888  0.0972 -0.1394
11782W        W54798   1.023  11.003  25.618  0.0859  0.0017 -0.0056
11783W        W54799  29.656  28.582  23.023  0.0766  0.1942  0.0531
11784W        W54800  33.385   1.950  16.358 -0.4562  0.0465  0.0068
11785W        W54801   0.180  30.583  14.045  0.2676  0.0655 -0.0852
11786W        W54802  25.449   1.581  25.878  0.0580 -0.1123  0.2050
11787W        W54803  23.435  12.067  16.395 -0.3388  0.0400  0.2589
11788W        W54804   8.492  19.512  26.479 -0.1084  0.1915  0.1087
11789W        W54805  14.244   5.202  23.790 -0.3389  0.2102  0.0655
11790W        W54806  29.775  16.985  14.703 -0.1894  0.0549 -0.1563
11791W        W54807   6.750  14.165   2.234  0.2331  0.0096 -0.1622
11792W        W54808  34.677  26.217   7.180 -0.2380 -0.0978 -0.0159
11793W        W54809  22.003  31.949   6.716  0.0482  0.1784  0.1565
11794W        W54810   3.895   7.585  25.376  0.0957 -0.4025 -0.0522
11795W        W54811   6.929  23.574  22.707 -0.2239 -0.0795  0.1603
11796W        W54812  31.765  29.102   0.910  0.2586 -0.0074  0.0392
11797W        W54813  32.602  15.281  16.274  0.0887  0.2831  0.0756
11798W        W54814  26.417  16.648   3.124  0.1610  0.0607  0.2178
11799W        W54815  11.889  33.860   5.455  0.0843  0.1519  0.2202
11800W        W54816  30.742  24.137   6.871  0.1426  0.1779 -0.1080
11801W        W54817   7.596  11.946  20.824 -0.0483 -0.1635 -0.1489
11802W        W54818   9.297   4.594  25.596 -0.2708 -0.1868  0.0180
11803W        W54819   9.871   0.085  28.552 -0.3480  0.1157 -0.3408
11804W        W54820  14.357  17.458  28.608  0.0222 -0.0003 -0.1775
11805W        W54821   0.246   5.734   2.563 -0.1654 -0.1825  0.2026
11806W        W54822   0.030  20.547  27.125 -0.1872 -0.0149  0.5116
11807W        W54823   2.842  31.456  28.090 -0.0216  0.0468  0.3089
11808W        W54824  32.718  16.522   8.148  0.0319 -0.0168 -0.0184
11809W        W54825  33.659   6.337  22.033 -0.2667  0.0703 -0.0456
11810W        W54826  21.005  12.499  27.484  0.2597 -0.0453  0.2592
11811W        W54827   8.934  18.984   5.955  0.1470 -0.0987 -0.1700
11812W        W54828  22.193  14.691  15.560 -0.1172 -0.0708  0.1490
11813W        W54829  23.320  17.909  13.833 -0.2449  0.1632 -0.2629
11814W        W54830  10.504  26.082  19.417 -0.0897  0.1556 -0.3197
11815W        W54831   5.624  16.218  18.051 -0.0911 -0.0791 -0.1982
11816W        W54832   8.710  28.344  28.357 -0.1371  0.0785  0.3580
11817W        W54833   7.178  12.295  28.119  0.0583 -0.3200 -0.1748
11818W        W54834   3.313  20.254   7.547  0.1394 -0.2329  0.1511
11819W        W54835   7.051  20.319  25.057  0.2357  0.1125 -0.4441
11820W        W54836  19.618   5.292  18.977  0.0841 -0.2722  0.0115
11821W        W54837  12.989  22.052   3.905 -0.0825 -0.1133 -0.0813
11822W        W54838   5.168  20.087  24.715 -0.0125 -0.0541 -0.0922
11823W        W54839   3.612  30.118   3.676  0.0224  0.0347  0.0364
11824W        W54840   3.047  24.002  28.730 -0.3451 -0.3533  0.1049
11825W        W54841   1.314  10.373  28.538  0.3362  0.2112  0.0036
11826W        W54842  22.379  11.289  27.745 -0.1401 -0.7021  0.2584
11827W        W54843  31.022  24.273   3.138  0.2025  0.1269 -0.3743
11828W        W54844   3.331  16.046  24.097 -0.0319 -0.3382 -0.0553
11829W        W54845   0.162  16.042  10.402  0.3604  0.0168  0.1427
11830W        W54846   2.818   3.854  26.162 -0.0851 -0.1294 -0.2372
11831W        W54847   5.802  15.672  25.179  0.0041 -0.0547 -0.1244
11832W        W54848  23.695   9.908  18.332  0.1872 -0.0719  0.3021
11833W        W54849  24.350   0.980  19.895  0.0588  0.0154 -0.0114
11834W        W54850   1.247  14.815  23.517  0.4175  0.0283  0.0531
11835W        W54851   7.515  19.895   7.534  0.1902 -0.1514  0.1371
11836W        W54852   2.296  26.035   0.982 -0.0464 -0.1427 -0.0902
11837W        W54853  32.669  11.622  28.746  0.1173  0.0078 -0.0762
11838W        W54854   7.558   9.359  23.943  0.1067  0.0321  0.3965
11839W        W54855  26.948  15.327  25.597  0.1261  0.2164  0.2507
11840W        W54856  30.756  27.265   2.440  0.0335 -0.1713 -0.1138
11841W        W54857   0.208   5.730  23.048  0.0308 -0.0087  0.0942
11842W        W54858  12.891   5.874  22.699 -0.1840  0.2308 -0.3050
11843W        W54859  11.877  15.938  24.195  0.1333  0.1733 -0.1243
11844W        W54860   1.004  19.391   0.608  0.0910 -0.1399  0.2667
11845W        W54861   4.420   4.878   3.030  0.3279  0.1580 -0.0423
11846W        W54862   5.339  30.121  25.409 -0.0572 -0.0685  0.2048
11847W        W54863   8.463  16.531   8.064 -0.1234 -0.0924 -0.3023
11848W        W54864   4.429  21.435  18.755  0.1152 -0.4341 -0.2273
11849W        W54865  32.858  31.749  16.758 -0.0227  0.2458  0.1145
11850W        W54866  14.761   7.573   4.751 -0.1796  0.2463  0.0834
11851W        W54867  31.042   0.962   7.084  0.1433  0.2286  0.0321
11852W        W54868  30.261   7.943  25.250  0.1365  0.1125  0.1761
11853W        W54869  32.328  19.013   8.561 -0.0969  0.0061  0.1442
11854W        W54870   7.127  18.251  29.130  0.2235  0.4668 -0.1826
11855W        W54871  28.291  19.107  26.584 -0.0514 -0.0919  0.0464
11856W        W54872  10.279  17.809  20.383 -0.1592  0.1096  0.4327
11857W        W54873  21.248  29.107  25.124  0.1164  0.1444 -0.0948
11858W        W54874   4.444   8.899   7.638 -0.0299 -0.0338 -0.0415
11859W        W54875   7.734  17.929  13.923 -0.1142  0.0948 -0.3322
11860W        W54876  10.579   6.188  14.568  0.1198  0.1929  0.0304
11861W        W54877  13.569  17.067  24.516  0.4223 -0.2201 -0.0318
11862W        W54878   2.732  13.366  25.512  0.2762  0.2328  0.2303
11863W        W54879  28.202  10.363  28.005  0.1240  0.1375  0.1436
11864W        W54880  13.995  15.335  20.875 -0.2447  0.2504  0.0204
11865W        W54881  26.384   6.253  22.038 -0.0726 -0.0266 -0.0062
11866W        W54882   4.667  16.871   1.077  0.1244 -0.2373  0.1062
11867W        W54883  20.199  31.354  21.024 -0.0348 -0.0501  0.0911
11868W        W54884  25.889  20.341  28.179  0.1786  0.1251  0.2091
11869W        W54885   0.141  15.114  25.141  0.4704 -0.1108 -0.1288
11870W        W54886  22.583  20.304  14.096 -0.0406  0.1240  0.0536
11871W        W54887  18.898  20.603   5.633  0.1478 -0.0621 -0.1922
11872W        W54888   5.672  14.670   3.173  0.0655 -0.0814  0.0711
11873W        W54889  31.287  23.740  28.608  0.2027 -0.2810 -0.0910
11874W        W54890   3.471  13.215  17.028  0.0331  0.0784 -0.2320
11875W        W54891  30.626  20.173  21.700  0.2558  0.0563 -0.1157
11876W        W54892   6.675  31.478   4.071 -0.0304 -0.1963 -0.0651
11877W        W54893  24.360  26.358  17.874  0.0549 -0.3600  0.0072
11878W        W54894  30.491   6.841   7.552 -0.0233 -0.1450  0.3903
11879W        W54895   9.597  16.808   3.614  0.0130 -0.2616 -0.0152
11880W        W54896  31.851   7.458  28.900  0.3482  0.1046 -0.0704
11881W        W54897  25.142  11.015   9.706  0.1064 -0.0836  0.2353
11882W        W54898  12.185  29.713   8.280  0.1076 -0.0759  0.1510
11883W        W54899  14.663  26.135  19.671 -0.0467 -0.0844 -0.0070
11884W        W54900  20.884  13.305   6.679  0.0974 -0.0433  0.2871
11885W        W54901   6.038   5.697  21.397  0.1781 -0.2458  0.0052
11886W        W54902   1.369  14.996  27.508  0.0674 -0.3385 -0.0800
11887W        W54903   5.644  27.996   1.027 -0.1595 -0.2203  0.1070
11888W        W54904   2.174  19.757   3.263 -0.0860 -0.1761 -0.2494
11889W        W54905  11.424  14.658   4.985 -0.2099  0.1223  0.3292
11890W        W54906   1.867  22.058  19.741  0.0008 -0.0421  0.0227
11891W        W54907  18.504  31.878  14.430 -0.1990 -0.1155  0.2224
11892W        W54908  15.554   4.000   3.254  0.2542 -0.4376 -0.1594
11893W        W54909   4.526  14.211  15.124 -0.0727 -0.7268  0.2721
11894W        W54910   1.302  18.384  26.677 -0.1772 -0.0499  0.2675
11895W        W54911  27.110  23.926   5.307  0.0967  0.2937 -0.1294
11896W        W54912  30.225  16.120  15.087 -0.2158  0.2253  0.1134
11897W        W54913  15.833  11.016  15.423 -0.2005 -0.1441  0.1176
11898W        W54914  34.259  12.382  20.810 -0.1339 -0.1234 -0.0242
11899W        W54915  32.333  16.943  27.162 -0.1005 -0.0678  0.0206
11900W        W54916   3.397  18.970   3.259  0.3155 -0.1216 -0.0379
11901W        W54917   4.675  31.841  15.118  0.1303 -0.0179  0.2473
11902W        W54918  19.907  32.346  23.030 -0.4868 -0.0068 -0.2792
11903W        W54919  32.126  30.615  28.226 -0.3034  0.0986 -0.2146
11904W        W54920  26.194  19.527   0.589 -0.2749 -0.1483  0.0624
11905W        W54921   2.469  10.545  19.276 -0.0963  0.2425 -0.1973
11906W        W54922   2.151  26.748  23.253 -0.0561  0.1409  0.1561
11907W        W54923   6.512  16.172   3.956 -0.1800  0.2351 -0.1013
11908W        W54924  31.988   7.999   8.376 -0.1659  0.0125  0.3017
11909W        W54925   6.808   1.068  19.937 -0.0260 -0.0210 -0.4144
11910W        W54926  21.803  27.961  28.423 -0.0381 -0.2245  0.1516
11911W        W54927   2.702  16.776  22.536 -0.1121  0.3021 -0.3203
11912W        W54928  28.321  24.562  28.589  0.3725  0.1173  0.0099
11913W        W54929  12.454   9.293  20.749 -0.2670 -0.1427  0.1000
11914W        W54930   3.837  33.945  29.056  0.2177  0.1191  0.1490
11915W        W54931   9.480  13.857   6.186  0.0879 -0.2369  0.0714
11916W        W54932  31.734   7.067  14.128 -0.2691  0.1656  0.1646
11917W        W54933  24.177  11.231   1.853 -0.0051 -0.0287  0.0635
11918W        W54934   7.652  29.579   8.734  0.0914 -0.2626  0.0293
11919W        W54935  16.540   6.959  21.613  0.0333 -0.0391 -0.2253
11920W        W54936   5.793  19.340   4.449 -0.0360  0.2514  0.1522
11921W        W54937  14.773  26.083  22.134  0.0797 -0.1729  0.1137
11922W        W54938  31.235   9.732   2.190 -0.1706 -0.2020  0.0179
11923W        W54939   5.387  22.660  29.083 -0.0342 -0.1141  0.0193
11924W        W54940  20.423   8.406  26.008 -0.2044 -0.4033  0.0006
11925W        W54941   0.625   8.444  23.445  0.2414 -0.0415  0.1065
11926W        W54942   5.683  28.736  18.743  0.3866 -0.0593 -0.2486
11927W        W54943  26.951  14.102  14.576  0.0969  0.4230 -0.2204
11928W        W54944  13.695   4.548  16.937  0.0165  0.2828  0.1433
11929W        W54945  29.121  20.742  18.849 -0.3433 -0.0514 -0.0462
11930W        W54946  20.461  12.473  26.500 -0.0862  0.2347  0.0772
11931W        W54947   2.528  24.158   6.319  0.0610 -0.1216 -0.0102
11932W        W54948  33.800   7.848   5.014 -0.0715  0.1129  0.0354
11933W        W54949   6.011  16.135   3.728 -0.1510  0.1179 -0.0131
11934W        W54950  29.943  14.537   3.422 -0.3356  0.0890 -0.0780
11935W        W54951  31.039  14.333   9.349 -0.0857 -0.0882 -0.1368
11936W        W54952  12.217   2.265  15.795 -0.0328 -0.1137 -0.0671
11937W        W54953  23.583  15.039   2.388 -0.2184 -0.1249  0.4355
11938W        W54954   7.751  16.086  25.412 -0.0796  0.3885  0.3802
11939W        W54955   0.415  15.166   4.008 -0.1639 -0.0995 -0.1853
11940W        W54956   8.190   5.217   2.883 -0.0349 -0.0074 -0.1379
11941W        W54957  30.641  16.606  17.602  0.0150 -0.0784  0.1029
11942W        W54958   0.795  17.618  20.646  0.2704 -0.1364 -0.1206
11943W        W54959   6.472  11.620  20.250 -0.3724  0.1326  0.0032
11944W        W54960  15.444  15.949   2.998  0.0672  0.2216 -0.1483
11945W        W54961  20.824  26.371  23.295 -0.1209  0.2747 -0.0439
11946W        W54962  32.162  14.026   4.384 -0.3459 -0.0175 -0.0293
11947W        W54963   1.170  20.084  28.530 -0.1941  0.6112 -0.1641
11948W        W54964   6.871  15.543  25.964  0.1095  0.1981  0.2203
11949W        W54965   1.054  31.057   5.361  0.1253 -0.0094 -0.0604
11950W        W54966  26.656  28.384   1.704  0.0476 -0.1695 -0.0634
11951W        W54967  12.707   9.499  25.577  0.2188  0.0157 -0.1834
11952W        W54968   0.180  28.926  10.507 -0.3295  0.2488 -0.0230
11953W        W54969  12.401  11.308  18.595 -0.3299  0.0123  0.1132
11954W        W54970  11.573  17.370  14.685  0.3118 -0.0079 -0.1633
11955W        W54971   0.712  22.038  23.500 -0.2181 -0.1118  0.0290
11956W        W54972   0.225  25.060  25.171  0.1308  0.3991  0.0351
11957W        W54973   1.928  16.253   2.523  0.0235  0.1173  0.0564
11958W        W54974  13.798  28.203  23.318  0.0182  0.0568  0.2419
11959W        W54975   3.861  21.678  20.156 -0.0845 -0.3453  0.1414
11960W        W54976   3.051  16.775  27.386 -0.0544 -0.2155 -0.0771
11961W        W54977   5.412  20.641  28.262 -0.0921 -0.0381  0.0711
11962W        W54978  13.824   4.630  21.355 -0.1331  0.0404 -0.1451
11963W        W54979  23.045  11.162   4.614 -0.0448 -0.0731  0.0925
11964W        W54980  25.195  20.573  15.737 -0.1939 -0.0974  0.0573
11965W        W54981  13.277  25.300   8.916 -0.1186 -0.0060 -0.2361
11966W        W54982  33.490  16.682  26.797  0.0646  0.0892  0.0051
11967W        W54983  24.948  13.805  15.726 -0.1222 -0.1342 -0.1392
11968W        W54984  19.611  20.542   7.265  0.1668  0.2516 -0.4030
11969W        W54985   4.394   1.638   5.839  0.1440 -0.0180 -0.0731
11970W        W54986   5.731  25.006  25.081 -0.2445 -0.4438  0.2879
11971W        W54987  27.225   4.639   1.378  0.1210  0.4196 -0.1540
11972W        W54988  10.147  24.202  26.464 -0.1116  0.2035 -0.1111
11973W        W54989  12.907  20.893  25.937 -0.1718  0.0254  0.0189
11974W        W54990  33.368   8.006  27.118 -0.0498 -0.0223  0.0093
11975W        W54991  15.808   7.013  16.013 -0.0492  0.2914 -0.1578
11976W        W54992  30.732  10.394  24.945 -0.3456  0.0484 -0.1031
11977W        W54993   4.101   4.849  22.405 -0.1136  0.0535  0.1976
11978W        W54994   5.316   4.909  23.944 -0.1097 -0.0132 -0.0673
11979W        W54995  11.682  10.785  18.283  0.2684  0.0625 -0.0477
11980W        W54996   2.861  29.536  17.646  0.1165  0.0619 -0.1740
11981W        W54997   2.037  33.584  18.394 -0.2939 -0.1053 -0.2435
11982W        W54998   6.267  20.577  15.618  0.4716 -0.2663  0.0684
11983W        W54999  32.157  22.349   8.148 -0.4533 -0.2294 -0.1871
11984W        W55000  34.569  18.702   6.365  0.1372 -0.0688  0.1955
11985W        W55001   2.712  21.669  22.234 -0.0698  0.2131  0.1358
11986W        W55002  32.370   7.604  25.433 -0.0479  0.0803  0.1777
11987W        W55003   9.441   0.108  17.284  0.2680 -0.1721  0.1918
11988W        W55004  31.216  32.246  27.215  0.0787  0.2504 -0.0630
11989W        W55005  15.974  15.384  11.996  0.1822  0.1492  0.3476
11990W        W55006   9.758  14.077  28.661 -0.0877 -0.1229 -0.0914
11991W        W55007  20.492   8.490  22.798  0.0580 -0.0737 -0.2831
11992W        W55008  33.777  31.091  18.786  0.0743 -0.0672  0.2091
11993W        W55009  11.877  16.009   6.021 -0.0529  0.2740  0.1239
11994W        W55010   6.028  14.520   7.735 -0.2294  0.0986 -0.2167
11995W        W55011   1.417  32.959  22.741  0.5501  0.2583  0.0462
11996W        W55012  14.303   7.957   6.476  0.2769  0.1391  0.0493
11997W        W55013  16.474  26.465   6.742 -0.2447 -0.0997 -0.2616
11998W        W55014  24.469   6.478  22.308  0.4203 -0.0008  0.0335
11999W        W55015  27.798  25.382  27.409 -0.0277 -0.1346 -0.0426
12000W        W55016   7.370   6.967  17.917  0.0574  0.0853  0.0579
12001W        W55017  30.402  13.006  28.135  0.2943 -0.2100 -0.1279
12002W        W55018   8.665  23.761  14.083  0.0096 -0.1036 -0.2446
12003W        W55019   2.087  14.582   1.428  0.0245 -0.0704 -0.1145
12004W        W55020  26.235   9.112   7.428  0.0368 -0.3181  0.0358
12005W        W55021  22.962  20.810   3.752  0.2268 -0.0708 -0.1186
12006W        W55022  15.447  23.256   0.982 -0.1132 -0.1941 -0.0710
12007W        W55023  15.786   9.093  13.689  0.0661 -0.1982 -0.2534
12008W        W55024  32.295  21.672   9.090 -0.1824 -0.0120  0.2575
12009W        W55025  22.103  13.658   2.016  0.2113  0.0355  0.0753
12010W        W55026  17.827  11.202  26.652 -0.3075 -0.0067 -0.0844
12011W        W55027   8.826  18.160  16.951  0.1977 -0.0315 -0.1121
12012W        W55028  20.902  13.805  12.481 -0.3802 -0.1285 -0.0264
12013W        W55029  15.400  13.814  24.289  0.1111 -0.0574 -0.1677
12014W        W55030  25.064  21.357  26.704 -0.2075 -0.3047  0.1073
12015W        W55031   5.030   6.296  22.617 -0.1586 -0.1338 -0.1179
12016W        W55032  10.415  17.183   2.608 -0.1953  0.3581  0.0027
12017W        W55033   3.526  16.968  18.847  0.2381  0.0357  0.0856
12018W        W55034  19.165  32.925  19.471 -0.0533  0.3041  0.1668
12019W        W55035  24.727  29.659  18.056 -0.0528  0.3880  0.2215
12020W        W55036  24.070  17.403  24.663  0.0760 -0.3021  0.0953
12021W        W55037  29.083  15.615  15.495  0.0355 -0.2228 -0.3001
12022W        W55038  21.435   9.996  21.895 -0.0943 -0.0471  0.0239
12023W        W55039  33.104  23.225  16.802  0.1142  0.0433 -0.0071
12024W        W55040   0.673  20.988  22.466  0.1558  0.1184  0.3789
12025W        W55041   7.574   9.491   0.817  0.0948 -0.0280 -0.1964
12026W        W55042  30.963  18.156  26.107 -0.0451  0.3014  0.1124
12027W        W55043   4.927  25.713   2.172  0.3093  0.0811  0.1803
12028W        W55044  27.744  13.960  21.277 -0.1659 -0.0452  0.2303
12029W        W55045  29.592  29.909   9.556  0.0284  0.0612  0.0244
12030W        W55046  32.838  26.166   0.030 -0.3333  0.0744  0.0235
12031W        W55047  20.031   7.447  20.680  0.0467 -0.0065  0.0288
12032W        W55048  31.495  10.448  18.205  0.1024  0.1421  0.2382
12033W        W55049   4.862   8.252  17.117 -0.2343  0.1630  0.1305
12034W        W55050  12.979  19.678  26.195 -0.3753 -0.1021  0.3394
12035W        W55051   8.274   9.677  23.302 -0.2683 -0.0831  0.2665
12036W        W55052  19.966  26.652   1.175 -0.0746 -0.3156 -0.0146
12037W        W55053   2.475  21.454  18.457  0.2475  0.0330 -0.1373
12038W        W55054   9.611   8.403   5.996  0.1147 -0.2568  0.1058
12039W        W55055  27.890  10.229   9.622 -0.2279 -0.1127  0.3560
12040W        W55056  17.977   1.895  27.569  0.1913 -0.0223  0.0611
12041W        W55057  31.753  21.215  27.100 -0.0514 -0.1694 -0.0109
12042W        W55058   0.082  31.518  18.624  0.0521 -0.1799  0.2561
12043W        W55059   1.763  23.225  19.126 -0.0050  0.0059 -0.2098
12044W        W55060  11.204  24.411   1.220 -0.3431 -0.0787  0.2464
12045W        W55061  29.632  16.638   4.522 -0.1636 -0.1275 -0.2017
12046W        W55062  27.351   3.775  24.360  0.2786 -0.0704 -0.1309
12047W        W55063   6.702  13.542  18.748  0.1028 -0.1844 -0.1122
12048W        W55064  34.560  19.748   6.605  0.1697 -0.0083  0.0118
12049W        W55065  11.895  15.203   2.002  0.0182  0.1102 -0.2643
12050W        W55066   3.335   4.207  28.182  0.2650  0.1774 -0.0306
12051W        W55067  20.964  15.894  25.746 -0.0693 -0.1113 -0.3759
12052W        W55068   6.710  26.898  18.328 -0.0191  0.0119  0.3393
12053W        W55069  30.069  10.948  15.840 -0.0802  0.3225 -0.2293
12054W        W55070   9.315  14.118  19.759 -0.1977 -0.0018 -0.0124
12055W        W55071   1.713  20.165  17.687 -0.1991  0.0657  0.4747
12056W        W55072  29.751  18.824  28.013 -0.0212 -0.0593 -0.0363
12057W        W55073  10.779  26.026  18.592  0.0131 -0.0634  0.0669
12058W        W55074  14.306  30.389   3.716  0.1333  0.1424 -0.0268
12059W        W55075   5.048  22.639   1.338 -0.1412 -0.3454 -0.0523
12060W        W55076  28.814  28.838  17.979  0.0862 -0.0145  0.0112
12061W        W55077  32.595  17.716  15.557  0.0047  0.2247  0.0136
12062W        W55078  25.039   1.658  22.015  0.0911 -0.3182  0.2189
12063W        W55079   8.839  15.268  26.911  0.0903  0.0536 -0.4094
12064W        W55080  31.959   9.617   4.009  0.0422  0.0027  0.0904
12065W        W55081  12.278   3.287  21.447  0.0569  0.0996 -0.4646
12066W        W55082   6.386  16.160   9.630 -0.0583  0.1195 -0.1654
12067W        W55083   8.761  27.936  27.729 -0.1076 -0.3683 -0.0308
12068W        W55084  16.778   8.321   2.642  0.2112  0.0292 -0.1538
12069W        W55085  29.555  30.270   4.077  0.2749  0.0175  0.1076
12070W        W55086  33.869  17.820  25.575 -0.2002  0.4308 -0.4124
12071W        W55087   6.755  31.366  22.540 -0.3110 -0.3323 -0.3462
12072W        W55088  23.229  12.778  22.753 -0.0698  0.0028  0.3625
12073W        W55089  17.607  26.551   3.745  0.0594 -0.2236 -0.1296
12074W        W55090  29.743  22.433  19.578  0.1114  0.0765 -0.2385
12075W        W55091  10.351   9.935  18.904  0.0006  0.0849  0.0251
12076W        W55092   7.422   3.107   2.230 -0.0166 -0.0150  0.0468
12077W        W55093  29.736  27.606  18.343  0.0936 -0.0834  0.1187
12078W        W55094   4.439  18.513   7.541 -0.0359 -0.0452 -0.0215
12079W        W55095  33.342  25.547   1.357 -0.0581 -0.1264  0.0582
12080W        W55096   1.199  15.490  24.595 -0.1271  0.0415 -0.1527
12081W        W55097  12.032  30.378   6.411  0.2059 -0.0343 -0.3619
12082W        W55098   0.642  23.067  27.441 -0.0811  0.3084  0.0169
12083W        W55099  31.214   7.405  20.550 -0.1888 -0.0635  0.2089
12084W        W55100  29.275  23.569  15.904 -0.0435 -0.0074  0.2334
12085W        W55101   6.885  16.744  17.815 -0.2108  0.0923 -0.1476
12086W        W55102   3.063  30.720  16.618 -0.0508  0.3090  0.0579
12087W        W55103  34.259   3.533   6.078 -0.2461  0.0577  0.1688
12088W        W55104  33.108  10.967  10.264 -0.2465 -0.2858 -0.0377
12089W        W55105  22.490  14.521  21.590 -0.0361 -0.0025 -0.2049
12090W        W55106  16.917  26.633  28.897  0.0099 -0.1854 -0.1263
12091W        W55107  15.575  21.978  13.558 -0.0329  0.1122  0.1418
12092W        W55108   7.802   0.930   2.843 -0.0134 -0.1646  0.0054
12093W        W55109  22.811   0.792  27.708  0.0755  0.1176  0.0758
12094W        W55110  11.474  22.129  23.034  0.0604  0.1775 -0.0483
12095W        W55111  22.474   6.432   3.228  0.1132  0.0660  0.0276
12096W        W55112   0.661  20.013   2.061 -0.2151 -0.0661  0.2561
12097W        W55113  24.082  31.849  28.128 -0.0821  0.1370 -0.1394
12098W        W55114   2.881   4.225   8.452 -0.2580 -0.0122  0.0730
12099W        W55115   3.118  10.723  24.971  0.1343 -0.6353 -0.1645
12100W        W55116  23.228   2.522  25.143  0.2312  0.0081  0.1210
12101W        W55117  34.013  24.757  24.570  0.1553  0.2968  0.1508
12102W        W55118  32.443  13.977   3.314 -0.0760  0.0067  0.0182
12103W        W55119  34.262  22.842   2.533  0.1473  0.0983 -0.0260
12104W        W55120   1.030   8.778  21.096 -0.0176 -0.0796  0.1929
12105W        W55121  10.872  19.159  21.334 -0.2935 -0.4431  0.1341
12106W        W55122  25.462  27.185   8.499  0.2681  0.2965  0.2418
12107W        W55123  14.875  31.518  26.824 -0.1752  0.1485  0.0994
12108W        W55124   7.842  19.772  17.232 -0.1384  0.1708 -0.1781
12109W        W55125   5.919   1.197  15.620 -0.4025 -0.3744 -0.0727
12110W        W55126  26.792  10.415  16.235 -0.1704  0.1032  0.1178
12111W        W55127   0.129   5.028  19.785 -0.1336 -0.0771 -0.0750
12112W        W55128   3.332  15.509  18.377  0.0844 -0.1930  0.0368
12113W        W55129   2.128  23.597   1.802  0.2031  0.1078  0.4888
12114W        W55130  26.008  16.493  15.601 -0.0344  0.3313  0.2671
12115W        W55131  20.782  13.963  20.491 -0.0996 -0.0644  0.1040
12116W        W55132  16.082  30.755   1.654 -0.0462 -0.1308 -0.0741
12117W        W55133  18.482  14.270  10.960  0.1994  0.2334 -0.1965
12118W        W55134  16.734   8.094   8.401  0.1921  0.0851 -0.2514
12119W        W55135   4.420  20.109   3.651 -0.3166 -0.1259  0.2917
12120W        W55136   5.820  17.198   0.456 -0.0593  0.1770 -0.2438
12121W        W55137  31.059   6.118  17.277  0.2013 -0.2749 -0.0846
12122W        W55138   2.321  25.403  24.292 -0.1724 -0.3178  0.2284
12123W        W55139   4.949   8.184  18.473  0.1036 -0.2385 -0.1338
12124W        W55140  24.809  11.648  16.464  0.2095  0.1322 -0.0054
12125W        W55141  11.468  14.597  23.764 -0.3279 -0.2221  0.3193
12126W        W55142  28.482  20.657  26.235  0.1005  0.0865 -0.2673
12127W        W55143   9.479  28.606   5.163 -0.0067  0.0419  0.1659
12128W        W55144   2.159  26.194   2.837 -0.0542 -0.1762  0.5117
12129W        W55145  25.400  23.870  25.497  0.1781 -0.1419 -0.2117
12130W        W55146  31.743   0.461  20.666  0.0720  0.0484 -0.1197
12131W        W55147  22.123  22.936   0.471 -0.1750 -0.3679 -0.2356
12132W        W55148  13.318   2.239  21.153  0.1456  0.1926  0.2349
12133W        W55149  14.139  22.775  26.518 -0.4785  0.0019  0.1853
12134W        W55150   1.678  17.376   1.837 -0.2284  0.2795 -0.0804
12135W        W55151   4.639  11.970  18.522 -0.2259  0.0633 -0.1110
12136W        W55152  34.031  10.123   2.776 -0.2872  0.2481  0.1608
12137W        W55153  31.254  11.490  15.914 -0.1101 -0.1732 -0.2770
12138W        W55154   5.548  15.762  14.222 -0.0232 -0.1413 -0.1575
12139W        W55155   7.563  22.186  26.279  0.1478  0.0226 -0.3075
12140W        W55156  15.610  21.288   7.638  0.0052 -0.2097  0.1258
12141W        W55157   0.872  27.001   9.930  0.2395 -0.1423  0.0203
12142W        W55158  34.378  20.892  15.842  0.0751 -0.4360  0.0398
12143W        W55159   3.570   6.467  23.837  0.1478 -0.0724  0.0330
12144W        W55160   4.494  12.270  23.271 -0.1602 -0.3961 -0.0810
12145W        W55161  25.669  15.456   0.800  0.0583 -0.0613 -0.2666
12146W        W55162   1.973  11.021   1.764  0.0599 -0.1022  0.0847
12147W        W55163  34.302  29.545  21.087  0.1949 -0.2344  0.1076
12148W        W55164  12.866  25.350  21.860 -0.0384 -0.3157 -0.0602
12149W        W55165   5.334  19.766  24.339 -0.1797  0.1835 -0.0637
12150W        W55166   8.888  22.323   1.194 -0.0794 -0.0371 -0.1835
12151W        W55167   3.324  28.387  22.437  0.0621 -0.4015  0.2307
12152W        W55168  15.267  30.832  19.950 -0.2585  0.1494  0.0486
12153W        W55169  31.966   9.126   5.271  0.0169 -0.1523 -0.1737
12154W        W55170  11.418  14.457  29.128  0.0975  0.0406 -0.0261
12155W        W55171   9.407  20.352  16.318 -0.4782  0.0779  0.0374
12156W        W55172  22.124  28.469  20.567  0.0468  0.0721 -0.2133
12157W        W55173  11.976  22.570   6.876  0.0859 -0.0667  0.3954
12158W        W55174  34.296  29.451  18.621 -0.0660 -0.1334 -0.1649
12159W        W55175   3.168  11.379   9.672  0.0715 -0.0707 -0.2405
12160W        W55176   8.019   9.332  23.850  0.0772  0.1252  0.2994
12161W        W55177  28.213  19.915  25.122  0.1401 -0.3355 -0.4119
12162W        W55178   6.258  10.616  20.191  0.3835 -0.0559  0.1622
12163W        W55179   0.894  27.629   2.337 -0.1090 -0.3150  0.0079
12164W        W55180   5.096  17.521  28.617  0.0993  0.2382 -0.0606
12165W        W55181  31.092  32.439  10.842 -0.1236 -0.1304 -0.1183
12166W        W55182  16.336  11.393   4.375 -0.1012  0.3492  0.0756
12167W        W55183  31.015  12.404  16.207 -0.0973 -0.0660  0.0962
12168W        W55184  31.784  27.337  19.514  0.1158  0.0318 -0.2140
12169W        W55185  23.650  27.146  26.088 -0.0248 -0.0342  0.2361
12170W        W55186  13.683   4.893  18.729  0.1966  0.0206  0.4378
12171W        W55187  29.689  20.524  19.586 -0.0037 -0.0151 -0.0636
12172W        W55188   6.156   8.038  26.458  0.1481 -0.1895  0.0099
12173W        W55189   3.569  24.374  27.729 -0.1562 -0.4374  0.3395
12174W        W55190   6.399  20.841   0.077  0.0285  0.1403  0.1808
12175W        W55191  29.228  18.733  27.931  0.0950  0.0390 -0.2350
12176W        W55192  33.811  26.989  27.999  0.0629  0.1991  0.4059
12177W        W55193   0.282  14.114  27.235 -0.0904  0.0964  0.2752
12178W        W55194  10.537  33.583  25.867  0.1715  0.2019  0.4179
12179W        W55195  34.336  20.440  27.895  0.0051 -0.0833  0.2981
12180W        W55196  22.325   8.935   0.616  0.2278  0.0995  0.1361
12181W        W55197  19.816  23.781  19.511 -0.2881  0.1009 -0.3145
12182W        W55198   9.988   9.751  26.699  0.3136  0.0216  0.3150
12183W        W55199   7.875  25.061   1.103  0.4650  0.2579  0.0767
12184W        W55200  21.873  23.634  26.814 -0.0971 -0.0955 -0.1381
12185W        W55201  25.950   4.156  24.063 -0.2575 -0.1717  0.0612
12186W        W55202  25.186   3.565  18.632  0.2242  0.3298 -0.0813
12187W        W55203  33.070  28.564  28.512  0.1232 -0.0937 -0.3144
12188W        W55204  26.902   3.970   7.054  0.1072  0.0998 -0.2970
12189W        W55205   2.499  16.324   3.514  0.2176 -0.1353  0.1918
12190W        W55206  33.276  20.436  24.921  0.0794  0.3069 -0.4135
12191W        W55207  32.589   9.821   8.919 -0.1343 -0.1541 -0.0078
12192W        W55208  33.303  12.301  26.807  0.4180 -0.0715 -0.2303
12193W        W55209  34.689  19.785  11.447  0.3045 -0.0336  0.1754
12194W        W55210   2.020   0.876  14.681 -0.3372 -0.1851 -0.3865
12195W        W55211   7.331  17.617  18.122  0.1732  0.0290 -0.1450
12196W        W55212  24.139  20.699  15.969  0.0773  0.0241 -0.1029
12197W        W55213  29.545  14.583  27.437  0.1965 -0.3428 -0.2621
12198W        W55214  15.737  16.463  24.994 -0.1934 -0.3717  0.4540
12199W        W55215   1.366   9.363  20.147 -0.0762 -0.0060  0.0993
12200W        W55216   0.759  25.098  21.568 -0.0018 -0.3098 -0.0272
12201W        W55217  34.357  10.967   6.694  0.0689  0.1719  0.0534
12202W        W55218   6.823  10.137   5.885 -0.1583 -0.2780  0.0410
12203W        W55219  11.402  19.413  16.900 -0.0256  0.1428 -0.1336
12204W        W55220   4.063   3.479   8.051  0.1460 -0.0410 -0.0170
12205W        W55221   3.321  19.486  22.664  0.0515 -0.0901 -0.0972
12206W        W55222   0.906  17.064  21.690  0.3177 -0.0941  0.0091
12207W        W55223  32.187  28.784   0.672 -0.0542  0.2170  0.0486
12208W        W55224   0.822  31.490   3.947 -0.1257 -0.0441  0.0641
12209W        W55225  26.778  15.977  28.930 -0.0006  0.2625 -0.0534
12210W        W55226   6.019   0.910  23.904  0.0342  0.0479 -0.1346
12211W        W55227   0.253   2.018  19.390 -0.2052  0.2463  0.2703
12212W        W55228   7.477  20.795   5.779 -0.0107  0.1577  0.1256
12213W        W55229  12.912   7.505   4.925  0.1103  0.0837 -0.1307
12214W        W55230  32.607  17.702  18.508  0.0720  0.0084  0.0290
12215W        W55231   8.163  23.773   6.927  0.0314  0.1203 -0.3952
12216W        W55232   7.266  18.417   4.137 -0.0068  0.0819  0.0531
12217W        W55233  33.278  10.271   7.553  0.0568 -0.1761 -0.1482
12218W        W55234   5.162   9.364   6.429  0.3221  0.1666  0.1323
12219W        W55235   6.518  27.223   2.586 -0.1555  0.0040  0.1884
12220W        W55236   8.155  16.130  27.292 -0.2407  0.0258 -0.0830
12221W        W55237   8.493  17.825  18.675  0.0476  0.1131 -0.2390
12222W        W55238  15.255  17.941  23.632  0.2632  0.1654  0.1824
12223W        W55239   1.905  13.658  16.225  0.0335 -0.2533  0.1671
12224W        W55240  29.459  26.796   6.945 -0.0726  0.0077  0.0800
12225W        W55241  15.455  23.711  22.212  0.0730  0.1972 -0.1469
12226W        W55242  15.703  17.334  28.072  0.0784  0.0013 -0.1342
12227W        W55243   8.306  12.088  18.060 -0.1628  0.0374 -0.1723
12228W        W55244  28.605   5.821   6.200  0.2891  0.1380 -0.2711
12229W        W55245  31.652  20.219  25.851 -0.0446  0.2411  0.1017
12230W        W55246  11.680  11.009  22.306  0.0028 -0.4357  0.0509
12231W        W55247   2.007  12.720   3.217 -0.1339 -0.1289  0.0622
12232W        W55248  13.593  15.983   7.936  0.1157  0.0739  0.1039
12233W        W55249   6.297  33.123  26.069  0.0733 -0.0073 -0.2811
12234W        W55250   9.850  10.044  27.087  0.0381  0.2238  0.0101
12235W        W55251  30.480  30.751  18.563 -0.2229  0.0478  0.1095
12236W        W55252  24.542  24.957  24.342 -0.2151  0.0548 -0.1056
12237W        W55253   7.884   7.703   4.027  0.0718  0.1768  0.0807
12238W        W55254   4.496  11.624  28.455 -0.3502  0.0058 -0.1513
12239W        W55255   0.697  14.988   9.309  0.1663 -0.1572  0.3380
12240W        W55256  10.250  17.697   7.984 -0.0677  0.0783 -0.0505
12241W        W55257   0.897  16.656   8.515  0.0189 -0.5259 -0.2786
12242W        W55258  13.474  16.665   4.569  0.1334  0.0577 -0.1324
12243W        W55259  28.209  24.505  11.345  0.0913 -0.1804 -0.0043
12244W        W55260  33.265   5.338  28.048 -0.1853 -0.0238 -0.2164
12245W        W55261  11.598  17.259   6.323 -0.0941 -0.2370  0.0249
12246W        W55262  21.713  22.379   8.395 -0.1885  0.2623 -0.4347
12247W        W55263  24.545  10.359   1.931 -0.1644 -0.1641  0.3902
12248W        W55264  33.120   5.490  23.531  0.4501 -0.4119  0.0378
12249W        W55265  32.979  14.783  24.411  0.0905  0.1649  0.3116
12250W        W55266   4.944  27.822  27.321  0.2318 -0.0823 -0.0902
12251W        W55267   2.807  29.249  27.977  0.1283 -0.0574 -0.1669
12252W        W55268   8.573  20.792  19.043  0.1560  0.0244  0.2440
12253W        W55269  14.252  11.519  18.000 -0.0477 -0.0221 -0.0352
12254W        W55270   6.216  26.851  14.860  0.0976 -0.0548  0.1831
12255W        W55271  28.044  12.822  21.786  0.1974  0.0123  0.1907
12256W        W55272   5.359  12.397   7.323 -0.0848 -0.2072 -0.0213
12257W        W55273  23.314  25.555  16.509  0.1182  0.0989 -0.1988
12258W        W55274   4.199  18.016  17.097  0.0312 -0.0813  0.1398
12259W        W55275   0.760  23.922  15.118  0.1872  0.0820  0.1000
12260W        W55276   2.971  22.515  23.008  0.2905 -0.0919  0.1046
12261W        W55277   3.818  11.771   0.774  0.2682  0.1057  0.4533
12262W        W55278  21.902  13.979  28.241 -0.0987 -0.1698 -0.0333
12263W        W55279   5.060  24.676  28.536 -0.3259 -0.2306 -0.3262
12264W        W55280   6.926  23.791  28.953  0.1049  0.2595  0.0326
12265W        W55281  28.430  15.231  27.079 -0.2593 -0.2326  0.0724
12266W        W55282   8.799  18.472  15.471  0.2905 -0.1911 -0.0615
12267W        W55283   2.199  18.805  24.578  0.1593  0.0753 -0.0031
12268W        W55284  27.006  22.983  21.770 -0.0930  0.1567  0.0002
12269W        W55285  34.225   8.842  22.750 -0.1215  0.2437  0.0419
12270W        W55286  27.931  26.428   3.762 -0.1121 -0.1254  0.0330
12271W        W55287  19.076  22.422   1.037  0.0494 -0.0119 -0.0827
12272W        W55288  31.597  17.894  20.568  0.1554  0.1065  0.0989
12273W        W55289   2.976  29.812  21.807  0.0084  0.0908 -0.1208
12274W        W55290  34.343  20.105   6.293 -0.1055 -0.0243 -0.0226
12275W        W55291  24.885  11.472  27.774  0.0954 -0.0286  0.0427
12276W        W55292  20.188  22.595  24.935  0.1561  0.0930 -0.1726
12277W        W55293   9.794  17.915  18.613  0.1443  0.2452  0.0245
12278W        W55294  31.445  24.905  27.868  0.0920 -0.1532  0.0688
12279W        W55295  24.190  33.327  17.121 -0.1133  0.2017  0.0957
12280W        W55296  24.230   1.481  25.735 -0.0372 -0.2907  0.1478
12281W        W55297   8.830  20.790  15.573 -0.0223  0.0400  0.0792
12282W        W55298  30.833  22.959  28.745  0.0933  0.3032  0.0901
12283W        W55299   0.496  26.200  18.891  0.1216 -0.1126  0.1179
12284W        W55300   3.417  22.939  23.115 -0.3754  0.2712  0.2402
12285W        W55301   2.917   2.310  20.398 -0.0095 -0.0313  0.4712
12286W        W55302  14.789  30.265   8.392 -0.1169 -0.1580  0.0857
12287W        W55303  17.198  31.480  14.650 -0.0324  0.0538  0.1713
12288W        W55304  28.038  26.725  19.233 -0.0742 -0.0044 -0.3292
12289W        W55305  32.432  20.026  15.102 -0.2402 -0.0186  0.0588
12290W        W55306   3.745  10.792  27.830 -0.1024 -0.0481  0.0891
12291W        W55307  33.543  20.027  17.173  0.0040  0.0345  0.1640
12292W        W55308  34.225   8.615  24.096  0.2952 -0.2457  0.0822
12293W        W55309   6.743  23.192   2.793 -0.6023  0.1650 -0.2196
12294W        W55310   7.645   3.752  19.719 -0.0765  0.1064  0.1702
12295W        W55311   2.757  25.122  19.128  0.0841  0.2150  0.1104
12296W        W55312  31.581   6.203  25.044 -0.0605 -0.1882 -0.0264
12297W        W55313  30.271  12.613  20.131  0.1893  0.1159  0.1189
12298W        W55314   2.075  17.548  14.252 -0.2075  0.1670 -0.0292
12299W        W55315  23.415  30.762   5.671 -0.0118 -0.6143 -0.1883
12300W        W55316   9.724  30.442  22.028 -0.2034 -0.1078  0.2264
12301W        W55317   0.014  22.983  22.131 -0.1199 -0.0293 -0.0165
12302W        W55318  32.188  13.088  16.415 -0.1657  0.0105  0.0878
12303W        W55319   4.239  18.936   8.489 -0.0250  0.2417 -0.1653
12304W        W55320   2.212  29.164  28.729 -0.2439  0.0082  0.5660
12305W        W55321   0.220  12.578  16.424  0.0419 -0.0031  0.0666
12306W        W55322   7.555  22.414  13.701 -0.1673 -0.1092 -0.2652
12307W        W55323   4.249  17.549  23.129 -0.1020  0.1241  0.4034
12308W        W55324  23.592  10.916  15.389 -0.1674  0.0556  0.0884
12309W        W55325  13.160  23.238  20.065 -0.1463  0.2800  0.3117
12310W        W55326  10.205  10.932  26.039  0.0530 -0.2283  0.3080
12311W        W55327  23.501  25.900  20.324 -0.0267  0.1510 -0.0815
12312W        W55328   5.354   8.077  17.150 -0.0141 -0.1014 -0.2810
12313W        W55329  26.714  23.027  26.084 -0.1677 -0.0703  0.2631
12314W        W55330  14.555  22.262   0.980 -0.1666  0.2973  0.1334
12315W        W55331  10.294  31.329  23.995  0.0470 -0.3790  0.2319
12316W        W55332   3.953  23.719  14.719 -0.0420  0.0900 -0.0902
12317W        W55333   8.984  19.858  20.667  0.3225 -0.0345  0.2407
12318W        W55334   7.280  16.522  14.997  0.0818  0.0891 -0.0769
12319W        W55335   4.579  18.265  13.775  0.0345  0.1268  0.1984
12320W        W55336  11.196  24.455  14.296  0.0000  0.0826  0.1974
12321W        W55337   5.836  23.698  25.282 -0.0109  0.0742  0.1864
12322W        W55338   5.102   9.978  27.567  0.1490  0.0851  0.0291
12323W        W55339  27.053  16.533  20.705 -0.0748  0.0766 -0.2984
12324W        W55340  33.017  19.491  14.729  0.2500  0.0320 -0.0601
12325W        W55341   3.568  30.512  16.576  0.0336 -0.0759  0.0346
12326W        W55342  30.091  30.424  21.782 -0.1009 -0.1063  0.1782
12327W        W55343  13.405  25.061  15.232  0.0902 -0.1571 -0.0969
12328W        W55344  12.938   1.043  21.732  0.0036  0.1273  0.2031
12329W        W55345  25.505  21.813  24.150  0.1614 -0.0690 -0.0444
12330W        W55346  31.585  20.796  14.631  0.1794  0.0411 -0.1276
12331W        W55347  24.816  26.102   1.060 -0.1479 -0.1314 -0.0517
12332W        W55348   6.091  22.259  13.256  0.0073 -0.0268  0.0820
12333W        W55349   1.055  22.127  14.326 -0.2256  0.0831  0.0928
12334W        W55350  33.659  15.084  21.980 -0.1592 -0.0813 -0.2416
12335W        W55351   8.473  32.415  21.125 -0.0744  0.0344  0.3822
12336W        W55352  25.772  18.589  27.016  0.0746 -0.0632 -0.1755
12337W        W55353   0.070  17.496  15.043  0.1361  0.1486  0.2058
12338W        W55354  28.572  20.989  17.981  0.1498 -0.1540  0.2387
12339W        W55355   6.287  21.098  21.133 -0.0530  0.4187  0.0875
12340W        W55356   5.006  12.840  28.773  0.1588  0.2647  0.1985
12341W        W55357  30.276  11.402  15.891 -0.0421  0.0628  0.3474
12342W        W55358   5.102  26.987  21.931 -0.0617  0.5013  0.0679
12343W        W55359  32.534  19.580   4.074  0.1559  0.1264  0.1275
12344W        W55360  30.738  27.767  25.820  0.1515 -0.0785  0.1418
12345W        W55361  29.354  17.374  23.525 -0.1094 -0.2044  0.0940
12346W        W55362  34.754  20.036  21.919 -0.0580 -0.0673 -0.2777
12347W        W55363  13.460  31.990   1.729 -0.0158 -0.0006  0.1969
12348W        W55364  34.745   9.722  15.598  0.0651 -0.0372 -0.3362
12349W        W55365  30.250  21.416   5.880 -0.1687 -0.2085  0.0137
12350W        W55366  12.347  30.497  21.181 -0.0015  0.3185 -0.0248
12351W        W55367  17.411  26.765  17.878 -0.1255  0.1475 -0.2755
12352W        W55368   2.592  17.661  14.293  0.1461  0.2395 -0.0626
12353W        W55369  30.807  22.452   0.947 -0.0473  0.2233 -0.0936
12354W        W55370   3.267   9.163  22.291 -0.0677  0.2781  0.0173
12355W        W55371  16.083   1.079  24.491 -0.2005  0.2243  0.3408
12356W        W55372  31.748   8.734  25.403 -0.0638  0.2035 -0.2348
12357W        W55373  25.542  24.305  23.942 -0.0635  0.2407 -0.1387
12358W        W55374   0.718   0.640  16.209 -0.3415  0.3987  0.1568
12359W        W55375   4.669  33.187  17.125  0.2037 -0.0203 -0.2872
12360W        W55376   1.804  24.251   3.389 -0.0901 -0.0412  0.1016
12361W        W55377   5.793  22.135  20.158 -0.2242 -0.1220 -0.1029
12362W        W55378   5.876   2.091  19.127  0.0591  0.1751 -0.1015
12363W        W55379  22.184  10.313  24.738  0.3619 -0.2352  0.0639
12364W        W55380   0.497  27.899  18.758  0.1277 -0.1586 -0.1757
12365W        W55381  16.959  23.289  12.071  0.0061  0.2895 -0.0017
12366W        W55382   9.420   8.049  21.296 -0.0643  0.0171 -0.2232
12367W        W55383   0.404  22.862  15.248  0.3950 -0.0112  0.0979
12368W        W55384  26.508  17.135  22.371 -0.0696  0.1044  0.1036
12369W        W55385   8.225  13.235  13.185  0.4331 -0.1425  0.2235
12370W        W55386   2.646  23.293  16.135 -0.3372 -0.1200 -0.2881
12371W        W55387  28.031  14.372  16.467 -0.0963  0.0518  0.0725
12372W        W55388  30.170   2.340  17.266 -0.4193  0.0494  0.0318
12373W        W55389   3.302  24.737  22.118  0.1489  0.2968 -0.0725
12374W        W55390   4.276  12.276  27.515  0.0796  0.1488 -0.0683
12375W        W55391  22.055  12.081  15.479  0.0266  0.2966 -0.0959
12376W        W55392  34.435  21.280  23.150 -0.1178  0.0789  0.2853
12377W        W55393  31.669  13.118  16.580 -0.2783 -0.1865  0.2558
12378W        W55394  24.580   5.844  19.082  0.0068  0.4899  0.1397
12379W        W55395  30.545  20.382  25.185 -0.0709  0.1776 -0.2864
12380W        W55396  15.533  25.186  15.162 -0.3362  0.1465 -0.2074
12381W        W55397  25.174  18.700  20.168  0.0189 -0.0408 -0.3589
12382W        W55398   6.077  27.943  21.530  0.3415 -0.0145 -0.0391
12383W        W55399  27.211  22.935  18.764  0.0824  0.0691  0.1777
12384W        W55400   7.708  23.732  19.825 -0.0239  0.1782  0.1274
12385W        W55401  30.135  14.723  22.247  0.4575  0.0691  0.1597
12386W        W55402  10.257  17.393  23.727 -0.1210 -0.1242 -0.2322
12387W        W55403   5.146  28.773  14.760 -0.2957 -0.0797 -0.3570
12388W        W55404   1.772   1.581  20.301  0.1212  0.2542 -0.0572
12389W        W55405  11.506  26.223  19.182  0.0804  0.1541  0.0336
12390W        W55406  26.011  21.690  16.326 -0.1509  0.2303 -0.2189
12391W        W55407   5.762  26.613  17.795  0.1630  0.0685  0.1715
12392W        W55408  17.121  30.089  18.705  0.3024 -0.3470  0.0611
12393W        W55409  31.818  25.337  20.502  0.1828 -0.0956 -0.1377
12394W        W55410   1.389   2.698  23.868 -0.1995 -0.0203  0.1295
12395W        W55411   2.342  27.908  15.031 -0.0734 -0.1479  0.1542
12396W        W55412  34.452  24.223  18.914 -0.2188  0.2224  0.3165
12397W        W55413  13.449   8.175  21.106 -0.0896  0.2145  0.2565
12398W        W55414  26.414  23.025  17.756  0.0700  0.0713 -0.0992
12399W        W55415   8.019  26.113  15.198 -0.2275  0.1665 -0.1156
12400W        W55416  30.578   5.346  15.376 -0.0115 -0.0935 -0.0954
12401W        W55417  12.556  34.471  24.020  0.0481  0.0373  0.1970
12402W        W55418  11.370  19.407  20.401  0.2757 -0.1398  0.0944
12403W        W55419  30.719  13.871   0.914  0.3837 -0.2773 -0.0074
12404W        W55420  24.547  12.665  25.695  0.0037  0.1147  0.2468
12405W        W55421  29.833  13.267  20.218  0.2773 -0.1300  0.0831
12406W        W55422  27.495  19.072  14.917  0.0095 -0.1763 -0.1082
12407W        W55423   4.879  25.179  19.406  0.1696  0.0265 -0.0296
12408W        W55424   4.888   9.920  14.504  0.3211  0.2928 -0.0199
12409W        W55425  31.732  26.391  22.002 -0.1291 -0.2927  0.4229
12410W        W55426   2.929   9.315   8.456 -0.1011  0.2992 -0.0196
12411W        W55427  34.138  11.638  25.913  0.1415  0.1310 -0.2773
12412W        W55428   7.628  32.132  28.102  0.1706 -0.0365 -0.1828
12413W        W55429   3.686  24.060  23.208  0.0590  0.1040 -0.1542
12414W        W55430   0.901  23.879  24.173 -0.1336 -0.0687  0.0640
12415W        W55431   9.732  25.819  26.154  0.0163 -0.0990  0.3180
12416W        W55432   6.867  25.126  23.469 -0.0930  0.3515  0.0324
12417W        W55433  13.855  21.528  20.081 -0.1739  0.0699  0.3551
12418W        W55434   8.328  19.738  19.481 -0.1879 -0.3644  0.1595
12419W        W55435  13.110  26.753   3.477  0.0978 -0.0951 -0.0031
12420W        W55436  20.834  19.745  16.269  0.2957 -0.0761  0.3182
12421W        W55437   8.148  23.998  22.577 -0.0023 -0.1326  0.0220
12422W        W55438   0.788  16.468  16.638  0.1176  0.1081  0.0609
12423W        W55439  31.669  27.030  17.794 -0.0903 -0.0416  0.2812
12424W        W55440  32.538  12.034  15.325 -0.1640 -0.1706  0.0010
12425W        W55441  24.257  20.176   6.076 -0.2616  0.0494  0.2445
12426W        W55442  33.570  30.117  19.848  0.0072  0.0211  0.0804
12427W        W55443   1.105   9.166  18.966  0.1189 -0.2063 -0.3677
12428W        W55444   1.571   4.657  26.992 -0.2572 -0.1995  0.0161
12429W        W55445   4.072  11.620   8.694  0.2444  0.2387 -0.3438
12430W        W55446  14.741   3.428  23.752 -0.0432  0.0475  0.3371
12431W        W55447  19.692  18.409  16.293 -0.1380 -0.1782 -0.1559
12432W        W55448  26.407  17.924  23.538  0.0206  0.1266 -0.3379
12433W        W55449  27.553  10.750  20.929 -0.1073 -0.0195 -0.1225
12434W        W55450   3.431  23.774  15.637 -0.0619  0.1935  0.2261
12435W        W55451  33.540  31.716  18.280 -0.0278 -0.2976  0.1975
12436W        W55452  28.426  23.323  16.017  0.1489  0.0895  0.1344
12437W        W55453   1.381  17.229  28.146  0.0487  0.0313 -0.2555
12438W        W55454   4.151  20.218  15.836 -0.1062  0.2988 -0.1300
12439W        W55455  28.499  14.362  15.804 -0.2732 -0.0586 -0.2883
12440W        W55456   1.536   7.870  25.727 -0.1465 -0.2448  0.0623
12441W        W55457  20.584  25.299  24.220 -0.1928 -0.2437  0.0697
12442W        W55458  32.592   8.919  21.187  0.1478  0.2341  0.0263
12443W        W55459   9.987  23.516  22.050 -0.0440 -0.0837  0.2019
12444W        W55460   2.559  24.778   0.803  0.1554  0.0474 -0.1698
12445W        W55461  33.919  27.765  26.452 -0.0016 -0.2482  0.0388
12446W        W55462   2.832  28.931   1.581 -0.0235  0.1982 -0.2602
12447W        W55463  34.536  10.327  28.809 -0.0084 -0.4869  0.0238
12448W        W55464   1.227  23.981  15.379  0.1198  0.0149 -0.0805
12449W        W55465   3.618  17.938  27.946  0.2779 -0.0451 -0.0172
12450W        W55466   3.165  11.315  20.711  0.0135  0.0951 -0.2410
12451W        W55467   9.151  24.727  20.034 -0.1249  0.2011 -0.1422
12452W        W55468  25.779  16.998  25.441  0.1964 -0.0900 -0.2632
12453W        W55469  27.931  19.694   2.676 -0.3287 -0.0660  0.1430
12454W        W55470   4.454   1.631  26.344 -0.3141 -0.1066 -0.2653
12455W        W55471  18.422  34.526  25.752  0.0098 -0.0868 -0.2936
12456W        W55472  25.541  15.292  25.524 -0.2543  0.1919 -0.2683
12457W        W55473   1.295  34.556   1.672  0.0694 -0.0393 -0.3848
12458W        W55474   1.826  18.651  23.142  0.2588  0.0384  0.1337
12459W        W55475  29.021  26.972  17.815 -0.0890  0.0698 -0.1112
12460W        W55476   5.840  20.399  16.378  0.1551  0.3437 -0.1010
12461W        W55477   2.991  21.292   5.011  0.2995 -0.0751  0.1542
12462W        W55478  33.504  29.873  21.606 -0.3186  0.1406 -0.1418
12463W        W55479   4.188  30.210  15.745 -0.4014 -0.2683 -0.1200
12464W        W55480   1.863  16.737  19.968  0.0956 -0.2310 -0.1657
12465W        W55481   6.441  32.591  23.274 -0.0227  0.2471 -0.0532
12466W        W55482  20.451  28.921  23.203  0.2357  0.0286 -0.2919
12467W        W55483   4.051  19.243  18.638  0.0600  0.0601 -0.0623
12468W        W55484  15.718  19.211  15.589  0.0197  0.1548  0.0845
12469W        W55485  33.497  17.309  24.064 -0.1486  0.1395  0.1974
12470W        W55486  33.017  18.100  21.340 -0.3247 -0.1091 -0.1855
12471W        W55487  24.516  14.859  19.242 -0.0610  0.1547  0.2702
12472W        W55488   9.985  11.509  27.435 -0.2165 -0.0659  0.3729
12473W        W55489   3.471   1.218  25.666 -0.1437  0.0627  0.0846
12474W        W55490  33.747  14.135  26.994  0.0025 -0.1032  0.0518
12475W        W55491  17.761   8.873  18.932 -0.3927 -0.0406  0.0925
12476W        W55492   6.507   8.643  24.656 -0.0063  0.2260 -0.0590
12477W        W55493   7.267  31.206  16.913 -0.2837 -0.1298 -0.0149
12478W        W55494  13.448   1.453  18.474  0.1214 -0.0516  0.4095
12479W        W55495   2.432  25.677  14.924 -0.0942 -0.0948  0.1672
12480W        W55496  11.167  26.669  19.133 -0.0360 -0.0372 -0.0413
12481W        W55497   6.028  23.760  15.559  0.4504  0.0651  0.1289
12482W        W55498  14.304   6.011  17.872 -0.7032 -0.0022 -0.1558
12483W        W55499   0.536   3.137  16.670  0.0536  0.0931  0.3197
12484W        W55500  14.954  29.240  16.537 -0.0076  0.0139  0.2074
12485W        W55501  30.582  19.257  23.913 -0.1301  0.1966 -0.3700
12486W        W55502  14.528  25.839  15.835  0.1512  0.2262  0.0862
12487W        W55503   6.795  23.221  16.676  0.1867 -0.2102  0.1000
12488W        W55504   5.664  33.729  18.592  0.1189 -0.1773 -0.2055
12489W        W55505  30.675  19.526  17.961 -0.1007 -0.0089 -0.1502
12490W        W55506  28.526  13.660  23.522  0.3061 -0.3322  0.1548
12491W        W55507  32.318   5.212  19.424 -0.1833  0.0344  0.0636
12492W        W55508  31.161  27.435  15.603 -0.0591  0.0992 -0.1471
12493W        W55509   4.176  20.799  18.252 -0.3432  0.0350  0.1339
12494W        W55510   4.583  21.490  16.157  0.3912  0.0901  0.1140
12495W        W55511  24.041   5.225  25.179 -0.4340 -0.1243  0.0189
12496W        W55512  28.814  19.678  20.998  0.0645 -0.0688  0.0609
12497W        W55513   4.849  24.503  22.849 -0.1172  0.1698 -0.1414
12498W        W55514  20.199  20.805  24.413 -0.0651 -0.2555 -0.5229
12499W        W55515  13.853  25.996  18.685 -0.0536  0.1558 -0.0705
12500W        W55516  17.964  28.523  24.318  0.2112  0.1072  0.0500
12501W        W55517   7.074  10.977  27.332 -0.0510 -0.2482 -0.0021
12502W        W55518  34.000   1.353   0.057 -0.3182  0.0071 -0.1854
12503W        W55519   3.115  26.529  19.496  0.0479  0.4752 -0.0720
12504W        W55520   0.968   7.301  17.933  0.2461 -0.2526 -0.0568
12505W        W55521  29.735   9.418  16.835 -0.1041  0.2198 -0.1885
12506W        W55522   1.821  26.714  16.053  0.1771 -0.1176  0.3701
12507W        W55523   0.055  16.282  26.446  0.0881  0.1291  0.2691
12508W        W55524  33.092   5.109  19.663  0.1276 -0.2794  0.0044
12509W        W55525   0.778   8.637  18.371  0.3478  0.0396 -0.2196
12510W        W55526  12.243  15.800  15.694  0.1454 -0.0843 -0.1960
12511W        W55527  29.481  12.557  22.015 -0.1403 -0.0915  0.0347
12512W        W55528   0.318  32.377  16.280 -0.0551  0.3103  0.0087
12513W        W55529  10.848  18.685  20.513 -0.0965 -0.2684 -0.0954
12514W        W55530  10.864  28.097  21.587 -0.2031 -0.3486  0.0507
12515W        W55531   1.632  21.310  16.699 -0.2532 -0.1123  0.0354
12516W        W55532   2.852   3.112  22.725 -0.2724  0.3536  0.1414
12517W        W55533  13.738  21.678  22.576  0.0695  0.0364  0.2859
12518W        W55534  30.444  19.136  14.999 -0.0151 -0.1590 -0.1298
12519W        W55535   1.304   9.187  21.171 -0.0355 -0.0076 -0.1482
12520W        W55536   7.509  10.422  14.237 -0.0449  0.0819  0.2881
12521W        W55537   2.872  31.351   3.711  0.1128 -0.0314 -0.1834
12522W        W55538  16.086  22.397  16.711  0.0869  0.1521 -0.1248
12523W        W55539   6.158  31.309  14.885 -0.3010  0.1796 -0.1684
12524W        W55540   2.823  10.290  17.543 -0.0907 -0.0016 -0.1776
12525W        W55541  29.046  33.121  16.646 -0.1112 -0.0379  0.2441
12526W        W55542  29.855  11.797  18.453 -0.0736 -0.1470  0.2330
12527W        W55543   1.822  30.896   2.346  0.1614 -0.4567 -0.1234
12528W        W55544   1.196  29.190  24.759  0.0705 -0.4018 -0.1632
12529W        W55545  30.772  16.185  15.202  0.0961  0.3260  0.1056
12530W        W55546   1.599  24.626  22.479 -0.0297  0.2315  0.1297
12531W        W55547  27.996  29.130  15.666 -0.1114 -0.1081  0.3314
12532W        W55548   2.530  25.953  24.149  0.1619 -0.2099 -0.0465
12533W        W55549  12.927  18.688  12.683  0.1941  0.2025  0.2383
12534W        W55550  11.996  33.879   2.086 -0.1521  0.2014  0.1409
12535W        W55551   6.232  14.511  15.632  0.2246  0.2639 -0.2507
12536W        W55552  11.285  18.655  18.448  0.3715 -0.4284 -0.1110
12537W        W55553  20.997   9.164  13.140 -0.1648 -0.2029 -0.0117
12538W        W55554   2.926  17.163  19.695  0.1600 -0.0252 -0.0036
12539W        W55555  19.810  12.425  13.927 -0.0725  0.2776 -0.0378
12540W        W55556  27.175  12.350  20.886 -0.2579  0.0685 -0.0982
12541W        W55557  33.984  23.512  18.347 -0.0113 -0.0604  0.2067
12542W        W55558  18.483  21.825  15.883  0.0627  0.0930  0.1418
12543W        W55559  10.237   1.687  22.708 -0.0563  0.0511 -0.0462
12544W        W55560  18.072  25.160  21.861  0.2641 -0.1265 -0.0586
12545W        W55561  10.855   7.306  18.504  0.0597  0.2333  0.2098
12546W        W55562  34.518  29.371   2.252 -0.0610  0.0553 -0.0774
12547W        W55563  10.465  11.303  26.286  0.0441 -0.1200 -0.2949
12548W        W55564  10.845   3.190  19.562 -0.1759  0.0209  0.0220
12549W        W55565  17.217   9.153  15.312  0.2360  0.0551 -0.4846
12550W        W55566   8.851  19.650  23.410  0.0049 -0.2749 -0.0288
12551W        W55567  29.540   4.609  25.459  0.0528  0.1107 -0.0960
12552W        W55568  32.551  27.841  25.212  0.1417 -0.0072 -0.2225
12553W        W55569   7.958  19.411  18.334 -0.0726  0.0905 -0.1324
12554W        W55570  12.184  14.259  19.180  0.0587  0.2939 -0.1604
12555W        W55571  11.039  16.030  16.414 -0.0916 -0.1376 -0.3545
12556W        W55572   1.224  11.519  20.269  0.0883  0.1455 -0.0553
12557W        W55573  24.198  26.507  15.940  0.2750 -0.1562 -0.2006
12558W        W55574   8.541  19.464  18.502  0.3316 -0.4325  0.1189
12559W        W55575   7.158  25.364  28.609  0.3248 -0.2210  0.1200
12560W        W55576  21.477  19.514  14.935 -0.2799 -0.1703  0.2680
12561W        W55577  27.911   9.694   6.279  0.0371 -0.4545  0.0131
12562W        W55578   2.780  17.651  23.772  0.0617 -0.4067 -0.3568
12563W        W55579  23.561  19.587  22.114  0.2008  0.0941 -0.0649
12564W        W55580  16.257  27.239   0.529  0.3124  0.3173  0.0568
12565W        W55581   9.753  20.359  16.977 -0.0457  0.0989 -0.0549
12566W        W55582  32.921  25.493   0.369  0.1488  0.1420 -0.0102
12567W        W55583  12.670  13.158  13.952 -0.1327  0.2981  0.2081
12568W        W55584  18.866   6.955  15.851 -0.2205 -0.1185 -0.4245
12569W        W55585  16.444  22.482  16.244  0.2044  0.0062 -0.0831
12570W        W55586   0.459   4.489  21.430 -0.0737  0.0374  0.3191
12571W        W55587   1.345   5.710  18.795 -0.2138 -0.0361 -0.2189
12572W        W55588   6.864  25.947  23.431  0.4103 -0.1635  0.1686
12573W        W55589  13.878  28.261  24.490  0.0574  0.0546 -0.2997
12574W        W55590   3.582  20.965  23.879 -0.0590  0.3018 -0.0641
12575W        W55591   4.990  20.307  16.882 -0.0808 -0.1761  0.1334
12576W        W55592  24.805  15.254   0.759 -0.0745  0.2478  0.3167
12577W        W55593  23.142  14.108  24.762  0.1778 -0.1407  0.0330
12578W        W55594  23.946   4.893  23.695 -0.3286  0.1856  0.1229
12579W        W55595   0.547  19.397   7.689 -0.0709  0.0183  0.0086
12580W        W55596  11.116  14.778  24.090  0.3034 -0.4046  0.1464
12581W        W55597  17.922  21.466  14.949 -0.2087 -0.2990 -0.2165
12582W        W55598   9.990  26.480  16.630  0.1081 -0.0069 -0.0038
12583W        W55599   8.256   9.885  18.686  0.2126 -0.3184 -0.2520
12584W        W55600  29.354  27.280  18.180  0.0549  0.0642  0.0621
12585W        W55601   8.974  10.989  14.557 -0.1103 -0.0638 -0.0403
12586W        W55602   5.094  28.314   6.317  0.1601 -0.2234  0.0408
12587W        W55603  17.045  10.564  16.917  0.0797 -0.0774 -0.2286
12588W        W55604  27.189  11.728  22.679 -0.1239  0.1289  0.3448
12589W        W55605   0.329  27.319  23.307  0.0495 -0.3738 -0.0623
12590W        W55606  21.241   0.652  25.435  0.1207 -0.0930 -0.1798
12591W        W55607  14.953  17.229  15.270 -0.2060 -0.3180 -0.1098
12592W        W55608  34.466  23.830  18.229 -0.6113  0.2492 -0.1170
12593W        W55609   0.224   7.909  19.871  0.0170 -0.0378 -0.1088
12594W        W55610   3.397  23.788  14.706 -0.2472  0.1290  0.0146
12595W        W55611   3.650  20.537  16.386  0.1036 -0.4307  0.1319
12596W        W55612  25.395  16.194   2.626  0.0645  0.0410 -0.2489
12597W        W55613  19.030  23.801  20.074  0.3003  0.0704  0.0352
12598W        W55614   6.816  15.356  18.917  0.1012 -0.1379  0.0069
12599W        W55615   8.849  20.039  14.360 -0.0849 -0.1391 -0.1386
12600W        W55616  31.074  30.262   0.647  0.1286  0.1093 -0.1524
12601W        W55617  29.909  19.392   9.572  0.3125  0.0128  0.0416
12602W        W55618  11.548   5.945  24.170 -0.0709 -0.0376  0.1424
12603W        W55619  16.213  10.276  14.007  0.1081  0.3172 -0.0369
12604W        W55620  13.083  14.521  28.853 -0.0092  0.0828 -0.3178
12605W        W55621  34.021  19.176  20.621 -0.0041  0.1229  0.1617
12606W        W55622   2.282  13.722  27.452  0.0380 -0.0569 -0.2140
12607W        W55623   7.566  34.129  17.073 -0.1948  0.2296 -0.1386
12608W        W55624  22.241   8.466  14.784 -0.1951  0.3143  0.0309
12609W        W55625  22.251  14.875  25.531 -0.4662  0.0166  0.0621
12610W        W55626   0.566  27.106   1.699  0.0428  0.1294 -0.2752
12611W        W55627  31.419   6.477  17.404 -0.1214 -0.0547  0.3862
12612W        W55628  11.168  14.809  27.870  0.2670  0.0188  0.0810
12613W        W55629  25.551   0.371  24.936  0.2382  0.0254  0.1718
12614W        W55630  30.487  10.733  19.639 -0.1906  0.0571 -0.0805
12615W        W55631   1.972  21.291  21.253 -0.0007 -0.2556  0.3316
12616W        W55632   4.098  15.000  21.005  0.1382 -0.0706 -0.1053
12617W        W55633   9.561  16.416  13.923 -0.1790  0.1960 -0.0935
12618W        W55634   1.465  23.736  23.902  0.1602 -0.0685  0.0245
12619W        W55635  11.797  22.308  14.664  0.0051 -0.0668  0.1346
12620W        W55636  33.294  21.619  19.093 -0.0900 -0.2808  0.1257
12621W        W55637   4.208  10.628   1.744 -0.2573  0.3562  0.1131
12622W        W55638  22.371  14.706  26.581 -0.2285  0.0457 -0.2599
12623W        W55639  24.364  28.817  16.008  0.0812 -0.0820  0.1278
12624W        W55640  23.546  22.066  23.878  0.0227  0.0770  0.0635
12625W        W55641  34.616  23.939  22.715 -0.1284  0.1404  0.0405
12626W        W55642  28.207  11.012  25.224 -0.0752 -0.0048  0.0912
12627W        W55643   8.331  18.391  13.811  0.0298  0.2612 -0.1986
12628W        W55644  31.090  17.521  16.057  0.4035 -0.0728  0.1186
12629W        W55645   8.510  27.048  19.860  0.4044  0.1614  0.0561
12630W        W55646  19.965  28.335  25.472  0.1982 -0.1666  0.0586
12631W        W55647  26.196  17.422  26.969 -0.1777  0.0003  0.1556
12632W        W55648  10.378  23.083   6.734 -0.0692 -0.2515  0.3075
12633W        W55649   3.309  10.128  24.223  0.1306 -0.3987 -0.1554
12634W        W55650   6.931   0.327  17.303 -0.0207 -0.1231 -0.2705
12635W        W55651  24.857  10.218   3.751  0.2180  0.2026  0.0026
12636W        W55652  29.215  33.855  19.596  0.0227 -0.0700  0.0455
12637W        W55653  24.381  26.282   0.337  0.2534 -0.0822 -0.3051
12638W        W55654  20.665  28.909  22.347  0.1666 -0.3558 -0.1536
12639W        W55655   0.277  25.937  20.062  0.0682 -0.1607  0.1686
12640W        W55656  18.910  23.087  21.249 -0.0135  0.3440  0.0396
12641W        W55657   9.963  19.195  16.992 -0.0640 -0.3644 -0.1375
12642W        W55658   6.971  24.648  22.774 -0.2820  0.0828 -0.0226
12643W        W55659  30.501  19.922  19.162 -0.2298 -0.1728 -0.1113
12644W        W55660  15.655   1.781  24.536 -0.2998  0.2182  0.4104
12645W        W55661  27.571  20.617  15.426 -0.1303 -0.0036 -0.1937
12646W        W55662  34.171  10.427   3.752 -0.0199  0.0899  0.2781
12647W        W55663  29.191   9.802  18.763  0.1184 -0.2354  0.0487
12648W        W55664  32.465  23.160  16.073 -0.0219 -0.0428  0.4875
12649W        W55665  31.038  26.551   1.065 -0.3900  0.2266  0.0834
12650W        W55666  15.600   1.288   0.465  0.1294 -0.2684  0.0233
12651W        W55667   1.453  34.332  18.081  0.0777 -0.1621 -0.2720
12652W        W55668   2.692  11.931   5.074 -0.0709 -0.0993 -0.2830
12653W        W55669  20.245  15.986  19.985  0.0958 -0.1569  0.1605
12654W        W55670  33.921  11.155  19.316  0.1483  0.0529  0.0780
12655W        W55671  33.256  26.126  21.917  0.1116 -0.1606 -0.1414
12656W        W55672   4.091  19.253  23.746 -0.1776  0.0414  0.0850
12657W        W55673  30.785   0.307  28.995 -0.1203  0.0828  0.1523
12658W        W55674  11.550  23.735  13.066  0.1882  0.1617  0.0890
12659W        W55675  33.410   1.355   6.126 -0.1779  0.1140 -0.3548
12660W        W55676  32.605  20.677  21.291 -0.1432  0.3823 -0.1660
12661W        W55677   1.060  18.235  18.810  0.1534  0.1262  0.1991
12662W        W55678  34.301  27.538  22.595 -0.0107  0.0131 -0.0263
12663W        W55679  27.131  29.401  29.107  0.0038  0.0844  0.2582
12664W        W55680   1.783   6.476  16.509  0.2204 -0.1536  0.5578
12665W        W55681  11.912  26.219  15.106 -0.0593  0.2921  0.1936
12666W        W55682  33.041  13.010  17.251 -0.1139  0.2662 -0.1180
12667W        W55683  31.316  29.401  19.242  0.0981 -0.0587  0.1910
12668W        W55684   6.266  15.661  15.784  0.1261 -0.1803  0.1100
12669W        W55685  29.307   0.534   0.436  0.1379  0.1395  0.2240
12670W        W55686   7.331  13.060  15.032  0.1141 -0.0028 -0.1112
12671W        W55687   2.992  22.995  14.541 -0.1790  0.1390 -0.0043
12672W        W55688   5.497  11.082  16.990  0.1156  0.1152 -0.2611
12673W        W55689   1.451  19.468  15.011  0.1941  0.0234 -0.0031
12674W        W55690   3.112  20.093  18.710 -0.0743 -0.1018  0.3242
12675W        W55691  33.686   0.282  23.322  0.2266 -0.5120  0.3284
12676W        W55692  30.363  17.614  10.659  0.0701  0.1857 -0.0578
12677W        W55693   0.277  13.675  22.429 -0.0792  0.2623 -0.0674
12678W        W55694  34.124   3.582  16.402  0.0398  0.0961  0.1957
12679W        W55695   4.164  17.392  17.802 -0.2709  0.2615  0.2318
12680W        W55696   5.697  21.021  14.372 -0.1331  0.0824  0.2197
12681W        W55697   4.224  20.983  26.505  0.0173 -0.0574  0.3400
12682W        W55698  10.601   3.726  27.499  0.0323 -0.1689  0.0063
12683W        W55699   9.011  16.307  17.360  0.1944  0.3841  0.1163
12684W        W55700  25.236  30.720  27.973  0.2038  0.1777  0.1109
12685W        W55701  23.962  26.661  17.841 -0.2020  0.1697  0.1597
12686W        W55702  34.163  13.444  16.579  0.3375 -0.3411  0.1231
12687W        W55703  20.980   1.784  16.098 -0.2804  0.1528 -0.0187
12688W        W55704  18.507  16.117  12.688 -0.1510  0.1366 -0.2732
12689W        W55705  18.736   3.465  19.349  0.2417 -0.1317 -0.0946
12690W        W55706   6.786  16.515  15.081  0.0908 -0.1699 -0.0263
12691W        W55707  19.643  17.345   5.592  0.0294  0.1671 -0.1257
12692W        W55708  21.297  26.986  26.298 -0.0681 -0.1376 -0.2429
12693W        W55709  17.500  30.091  20.648  0.3250 -0.1303  0.0478
12694W        W55710  19.581  18.712  15.430  0.2673 -0.0353 -0.1279
12695W        W55711   3.636  25.446   6.929 -0.2547  0.4027 -0.1716
12696W        W55712  16.698  29.843  19.511 -0.0366 -0.0362  0.0178
12697W        W55713   0.639  26.516  15.434  0.0841 -0.0205  0.0120
12698W        W55714  17.075   6.870  22.547 -0.1667  0.0153  0.0969
12699W        W55715   2.298  30.235  23.790 -0.1433  0.2012  0.2417
12700W        W55716  29.054  22.387  27.633 -0.0590 -0.0667 -0.3186
12701W        W55717  18.606  33.406  23.139 -0.0954  0.0235  0.1620
12702W        W55718  23.576   6.066  17.530 -0.0245 -0.3793  0.4155
12703W        W55719  28.577  23.905  10.134 -0.3672 -0.2739  0.0319
12704W        W55720  14.165   3.397  16.228 -0.0107 -0.0184 -0.1054
12705W        W55721  32.205  21.263  27.376  0.0742  0.0774 -0.1384
12706W        W55722   4.330  34.626   1.086  0.2043 -0.2363 -0.1170
12707W        W55723   4.006  16.484  18.899  0.2713 -0.3072 -0.2659
12708W        W55724   1.169   5.414   3.590  0.3810 -0.1743  0.2801
12709W        W55725  16.739  34.586  23.405 -0.1408 -0.1397  0.1531
12710W        W55726   3.579  20.269  24.558 -0.0883 -0.2668 -0.0238
12711W        W55727   0.258  30.999  16.375  0.0031 -0.0607 -0.2797
12712W        W55728  28.771  16.848  27.843  0.0782  0.0681  0.2725
12713W        W55729   8.107  10.148  15.218  0.2058  0.1498  0.0534
12714W        W55730   4.571  17.246  18.037  0.4028  0.1102  0.6031
12715W        W55731  19.751  25.823  24.515  0.3410 -0.4854  0.0337
12716W        W55732  12.531  22.037  15.585  0.0603  0.0861  0.2930
12717W        W55733   1.989   8.089  14.505  0.1589  0.2213  0.0875
12718W        W55734  32.520  19.226  19.846  0.1712  0.0005  0.0611
12719W        W55735   8.028  22.917  17.247 -0.2443 -0.0093  0.3367
12720W        W55736   3.909  22.587  15.505 -0.1739  0.0824  0.1441
12721W        W55737  30.377   3.963  19.256  0.0703 -0.1249 -0.3393
12722W        W55738  32.625  17.805  24.122  0.1079  0.0039  0.0248
12723W        W55739  26.378  16.163  20.904  0.3543  0.0244  0.0437
12724W        W55740   5.456   5.538  15.266 -0.2771  0.0755 -0.1309
12725W        W55741   5.314  32.704  17.492  0.0374 -0.0248 -0.2497
12726W        W55742  29.056  22.362  24.598 -0.2111 -0.4726  0.1822
12727W        W55743   6.321   9.793  18.913 -0.0734 -0.0124 -0.0244
12728W        W55744  27.407   1.037  24.216 -0.2208  0.0330 -0.2688
12729W        W55745   2.738  32.253  14.964  0.2017  0.0895 -0.1737
12730W        W55746  29.054   3.050   4.310  0.1487 -0.0508 -0.0964
12731W        W55747   4.195  20.179  13.791  0.2817  0.0959  0.0423
12732W        W55748   4.539  28.257   0.742 -0.0512  0.0186  0.0083
12733W        W55749  29.186  23.657  20.220  0.0709 -0.0003 -0.0612
12734W        W55750  29.712  31.782  22.603 -0.1226  0.0720  0.2353
12735W        W55751   5.840  21.351  18.997 -0.0065 -0.0587 -0.0325
12736W        W55752  17.125   4.662  24.229 -0.0879 -0.0357 -0.4421
12737W        W55753  31.407   1.543  15.552  0.1813  0.0195  0.3507
12738W        W55754  33.750  23.355  15.158 -0.0170  0.0106  0.1322
12739W        W55755  27.298  14.561  26.447 -0.1724  0.2978  0.0871
12740W        W55756  13.680  32.899  25.464  0.1950 -0.0785 -0.0480
12741W        W55757   0.587  18.942  14.667 -0.3090 -0.2842 -0.1059
12742W        W55758   6.119  27.998   5.115  0.2946  0.0413  0.0410
12743W        W55759  25.329   8.517  27.124 -0.1017 -0.1167 -0.0443
12744W        W55760   0.494  12.233  22.714  0.0907  0.2793 -0.0950
12745W        W55761  29.318  19.481  17.562 -0.0062  0.0847  0.2673
12746W        W55762  23.439   8.672  15.089  0.2010  0.0104 -0.0555
12747W        W55763   0.214  13.554  15.678 -0.1540  0.0017  0.1531
12748W        W55764  14.221  11.970  23.346  0.3367 -0.4025 -0.1715
12749W        W55765   5.202  14.956   0.281  0.0995  0.2897 -0.2185
12750W        W55766  29.653  25.095  19.195 -0.0878 -0.3542  0.2891
12751W        W55767  13.516   7.064  18.369 -0.0585  0.2802  0.0653
12752W        W55768   6.154  28.661  18.906 -0.3238  0.1769  0.0434
12753W        W55769  29.032  13.155  27.849 -0.1151 -0.1935  0.2997
12754W        W55770  33.321  12.781  17.611  0.3845  0.0185 -0.0109
12755W        W55771   1.914   7.702  17.183 -0.0635  0.4353  0.1492
12756W        W55772   3.391  18.166  19.810 -0.1504  0.0864 -0.1381
12757W        W55773  24.684  12.152  19.638 -0.0289 -0.2518 -0.1331
12758W        W55774  30.144  17.590  24.436 -0.0053 -0.1078 -0.4474
12759W        W55775   2.103  24.362  26.576 -0.0429  0.2704  0.2238
12760W        W55776  27.280   1.245  24.643  0.1236 -0.2352  0.0475
12761W        W55777   1.549  32.987  14.770  0.0561  0.0703 -0.4130
12762W        W55778   8.013  12.496  19.416  0.0064 -0.1412 -0.1210
12763W        W55779   3.460  26.052  16.169  0.1918  0.0444 -0.2995
12764W        W55780   4.956  18.763  26.492  0.2084 -0.2593  0.1807
12765W        W55781   9.234  20.769   3.906 -0.3359  0.3018 -0.0601
12766W        W55782   3.658  30.220   1.319 -0.0878  0.1343 -0.0368
12767W        W55783  33.690  15.640  20.034 -0.2940  0.0743  0.2797
12768W        W55784  33.724  32.455  23.751  0.2628 -0.3103  0.0826
12769W        W55785  16.058  26.766  17.555  0.2584 -0.0454 -0.2137
12770W        W55786  24.857  19.316  16.857  0.0449 -0.1443 -0.1687
12771W        W55787   4.902  19.795  14.462  0.2006  0.0643 -0.2685
12772W        W55788  14.563   8.512  16.868 -0.1636 -0.0780 -0.1801
12773W        W55789  23.582  30.878  20.995  0.3061 -0.3381  0.1462
12774W        W55790  24.509  10.349   9.435  0.0628 -0.1202  0.1448
12775W        W55791  33.286  28.031  23.163  0.0419 -0.0093 -0.0078
12776W        W55792   5.476  10.650  21.755  0.0130  0.1074  0.1389
12777W        W55793   5.158  18.771  18.991  0.0159  0.3351  0.2157
12778W        W55794  18.948  20.898  24.251 -0.0307 -0.2152  0.3120
12779W        W55795   0.222  21.440  17.097  0.0026 -0.0762  0.1200
12780W        W55796  10.160  15.780  18.527 -0.0448 -0.2267 -0.1119
12781W        W55797   4.878  30.397  28.389 -0.0307  0.0752  0.2013
12782W        W55798  15.807  19.705  24.047 -0.0417 -0.2304 -0.0021
12783W        W55799  30.047  34.443  28.688 -0.1509  0.1892  0.1061
12784W        W55800  16.924  17.182  11.542  0.1582 -0.3045  0.2380
12785W        W55801  30.295  34.701  15.872 -0.1998 -0.1546  0.3129
12786W        W55802  34.043  26.517   2.083  0.2823 -0.0246 -0.3163
12787W        W55803  31.212   4.772  16.962 -0.0545 -0.1563 -0.1104
12788W        W55804   4.573  25.566  18.904 -0.2609  0.1654  0.1269
12789W        W55805   9.260   1.586   2.192  0.1204 -0.0618  0.1757
12790W        W55806  28.715  18.449   0.322  0.2984 -0.0746  0.0811
12791W        W55807  10.002  28.145  26.034 -0.0551  0.0176 -0.1299
12792W        W55808   7.730  22.147  15.094 -0.0607  0.0846 -0.0204
12793W        W55809   9.797  10.975   1.095 -0.1456 -0.1468 -0.2751
12794W        W55810  33.955  21.583  19.124 -0.2579  0.1016  0.2407
12795W        W55811  17.347  24.342  16.034  0.1820 -0.0099  0.1074
12796W        W55812  20.987  23.764  21.542  0.0548 -0.0093  0.0064
12797W        W55813   9.415  16.832   7.445 -0.0411  0.2637  0.1772
12798W        W55814  11.277  11.025  27.512  0.1637 -0.1538  0.4584
12799W        W55815   4.148  13.663  25.306  0.0231 -0.0148 -0.1125
12800W        W55816  33.364   8.790  26.432 -0.0963  0.3174 -0.2434
12801W        W55817   6.889  20.783  15.120 -0.0721  0.0203 -0.0311
12802W        W55818  25.122  17.455  15.139 -0.2829 -0.0753  0.0194
12803W        W55819   7.028  24.111  23.181 -0.0130 -0.2051 -0.1335
12804W        W55820   4.525  25.537   3.046  0.1567 -0.1121 -0.1759
12805W        W55821   4.182  32.646  24.210  0.0010  0.1006 -0.1907
12806W        W55822  31.852  11.080  17.356  0.2246 -0.3709  0.0532
12807W        W55823  26.432  24.532  24.095  0.1382  0.0955 -0.0153
12808W        W55824  34.629  12.130   1.700 -0.4209  0.0456  0.0315
12809W        W55825   2.134  33.693  17.871  0.0511 -0.2769  0.1260
12810W        W55826   5.175  28.844   7.813  0.0901 -0.0305  0.1999
12811W        W55827  16.151  17.615  11.857  0.1542  0.2160 -0.1964
12812W        W55828  16.938  26.294  20.259 -0.0991  0.1270 -0.1261
12813W        W55829   9.266   1.453  19.056  0.1232 -0.3043  0.0653
12814W        W55830  30.965  25.277  17.767  0.1782 -0.0664 -0.0156
12815W        W55831  16.362  31.881  25.913 -0.1234  0.0137 -0.1698
12816W        W55832  18.784   8.112  24.837 -0.4325  0.0550 -0.0381
12817W        W55833  33.579  18.004  14.628  0.0220  0.0891  0.4816
12818W        W55834  17.041  31.740   0.866  0.2970  0.0477 -0.4965
12819W        W55835   1.638  27.025  16.905 -0.4338 -0.0300 -0.0317
12820W        W55836   0.849  13.316   2.789  0.1376  0.0406  0.2880
12821W        W55837   9.406  34.674  27.306 -0.0940 -0.2878  0.1127
12822W        W55838   6.860  15.153  13.789 -0.0654 -0.0484 -0.0171
12823W        W55839  11.508  34.458   0.540  0.0800 -0.1403  0.0206
12824W        W55840  22.864  12.298  26.611  0.0311  0.0560 -0.0349
12825W        W55841   7.466  22.348  22.160  0.0905 -0.2990 -0.2075
12826W        W55842  20.766  20.711  24.392  0.0616 -0.1438 -0.0404
12827W        W55843   0.500  22.309  20.016 -0.2811  0.2171  0.1383
12828W        W55844  29.520  19.314  21.934  0.0906  0.0283  0.1952
12829W        W55845  33.269  25.783  26.571 -0.0857  0.1752 -0.2330
12830W        W55846  17.435  14.821  11.713 -0.0292  0.0724 -0.1974
12831W        W55847  32.383  27.995  16.485  0.3015 -0.3583  0.0751
12832W        W55848  32.794  11.486  23.771 -0.1600 -0.3339  0.0243
12833W        W55849  28.218   9.722  21.158 -0.0560 -0.1876 -0.0811
12834W        W55850  32.097  31.753  22.245 -0.0382  0.2975 -0.2009
12835W        W55851  30.538  25.534  16.168 -0.3207  0.0401  0.3353
12836W        W55852  19.804   4.715  24.758 -0.0270  0.2927  0.1675
12837W        W55853  18.224  24.727   5.123 -0.2215 -0.0770 -0.2079
12838W        W55854  27.768  15.714   8.283 -0.1741 -0.2518 -0.2359
12839W        W55855  25.202  14.503  15.782  0.0596  0.0860 -0.1743
12840W        W55856   7.468  18.061  16.964  0.1081  0.5344 -0.0429
12841W        W55857   8.098  11.037  29.075  0.1680  0.0055 -0.0327
12842W        W55858   3.450  33.481   0.688 -0.2190  0.0560 -0.0351
12843W        W55859   6.524  13.349  17.193  0.1784  0.1616 -0.1071
12844W        W55860   1.476  32.535  24.057  0.1488 -0.0167  0.0778
12845W        W55861  23.828  23.886  20.769 -0.0018  0.1202 -0.0820
12846W        W55862   2.913  15.965  27.990  0.1295  0.1011 -0.1843
12847W        W55863  30.161  32.089  20.828 -0.1829 -0.2670 -0.3636
12848W        W55864  29.884  30.374   4.486 -0.4048 -0.3999 -0.0126
12849W        W55865   7.302  26.010  21.866 -0.0348  0.1305  0.3539
12850W        W55866   0.017  15.413  21.454  0.0511  0.0116 -0.0936
12851W        W55867   4.942  21.621  22.083  0.2030 -0.0948  0.1458
12852W        W55868   2.542   6.090  15.260  0.1902  0.0900 -0.1074
12853W        W55869  25.222  22.910  22.210  0.2012 -0.0452 -0.1566
12854W        W55870  11.540  24.124   3.942 -0.0885  0.0350  0.1164
12855W        W55871   3.755   4.002  23.508 -0.0455 -0.0886 -0.0474
12856W        W55872  12.742  34.111  18.189 -0.0714  0.0230 -0.3861
12857W        W55873   7.532  28.042  22.336  0.1234  0.1405 -0.0765
12858W        W55874   6.551  10.156  14.674  0.3792 -0.1255  0.0640
12859W        W55875   9.636  10.344  14.091  0.3526  0.2631  0.1045
12860W        W55876   2.324  11.192   2.864 -0.0818 -0.0696 -0.2980
12861W        W55877  31.249  21.002  15.619  0.0801 -0.1572 -0.1568
12862W        W55878  18.846  16.886   5.415 -0.4252 -0.2629  0.0886
12863W        W55879  29.882  23.936  26.656  0.2583  0.1330  0.0048
12864W        W55880  32.188  22.953  15.233 -0.0722 -0.0477  0.3004
12865W        W55881   0.732   2.313  19.149 -0.1616  0.0775  0.3110
12866W        W55882  26.371  20.459  26.382  0.0654 -0.1242  0.0076
12867W        W55883  32.404   7.472  19.063  0.0569  0.0944 -0.1161
12868W        W55884  29.278  16.519  17.625  0.1084 -0.0111  0.0360
12869W        W55885  16.707  15.292  13.360 -0.3996  0.2329 -0.0000
12870W        W55886  23.231  20.983  19.460  0.0335  0.0409 -0.2038
12871W        W55887  29.267  25.860   0.068  0.1805  0.2244  0.3422
12872W        W55888   8.489  34.244  26.375 -0.0732  0.1696 -0.0052
12873W        W55889   3.360  16.702  22.927 -0.1520  0.1858  0.0375
12874W        W55890   9.492  15.358  18.954  0.2928  0.0508  0.0013
12875W        W55891  31.568  18.305  14.304  0.2128  0.0524  0.1625
12876W        W55892  28.528  31.462  21.119  0.0844  0.4363 -0.1774
12877W        W55893   4.704  11.061  16.980  0.1153  0.2460 -0.2274
12878W        W55894  13.649  34.128  16.110  0.1160 -0.0132  0.1160
12879W        W55895  21.759  21.844  24.169 -0.1784  0.1928  0.0264
12880W        W55896   2.692  25.045  15.357 -0.5549 -0.3679  0.0663
12881W        W55897   3.717  15.067  18.737  0.2026 -0.1282 -0.0826
12882W        W55898  12.882  23.880  15.826 -0.4009 -0.0734  0.0103
12883W        W55899   4.740  28.660  28.666 -0.1888  0.0922 -0.2223
12884W        W55900  12.834  28.625  20.184 -0.1182  0.0754 -0.0090
12885W        W55901   6.196  13.261  27.481  0.1971  0.1124  0.0966
12886W        W55902  12.647   1.494  25.259  0.0969 -0.2142 -0.0235
12887W        W55903  27.872  15.580  25.184  0.0344 -0.2435 -0.0252
12888W        W55904  12.005  11.118  18.844  0.2868 -0.2202 -0.3031
12889W        W55905  28.341  20.928  16.639  0.0026 -0.1123  0.0724
12890W        W55906  32.505   1.135  15.438 -0.1295  0.0235  0.1381
12891W        W55907  10.326   7.364  22.125 -0.3157 -0.1036 -0.1260
12892W        W55908  26.624  18.551  18.982 -0.2872  0.0805 -0.4052
12893W        W55909   1.366   7.900  22.394  0.2340 -0.4194  0.0106
12894W        W55910   5.967  24.277  14.447  0.1669  0.1994 -0.0523
12895W        W55911  33.763  24.527  18.303  0.0313 -0.0177 -0.0368
12896W        W55912  19.682  26.979  16.944 -0.0602  0.1000  0.4409
12897W        W55913  30.889  27.212  21.789  0.0312  0.2191 -0.2114
12898W        W55914  33.977  24.176  22.252  0.5234 -0.0896  0.1881
12899W        W55915  22.220  24.861  19.218 -0.2025 -0.0224  0.0797
12900W        W55916   6.069  10.775  24.325  0.1512 -0.2403  0.2053
12901W        W55917   2.414  13.767  16.315  0.0944  0.1299 -0.0161
12902W        W55918   9.133  22.840  27.477  0.1144 -0.1380 -0.0272
12903W        W55919   0.838  32.791  22.624 -0.1359  0.1437 -0.0854
12904W        W55920  22.960   4.558  25.380  0.1433 -0.2069 -0.1715
12905W        W55921   1.220  16.898   7.967 -0.0538  0.0506  0.2433
12906W        W55922  32.258  24.522  28.718 -0.1891 -0.0640 -0.0497
12907W        W55923  13.958  26.254   5.153  0.0283  0.3900 -0.4157
12908W        W55924  17.992  30.039  23.529 -0.1102 -0.1411  0.0913
12909W        W55925  29.551   9.917   2.099 -0.0361 -0.2029  0.1459
12910W        W55926   6.735  19.170   0.136  0.2087 -0.0320  0.0751
12911W        W55927  14.625   8.692  15.200 -0.0680 -0.0494 -0.0146
12912W        W55928   6.226  18.834  24.604 -0.0934  0.2314 -0.2493
12913W        W55929   1.081  26.157  24.548 -0.2522  0.0874  0.2616
12914W        W55930  26.100  12.600  16.485 -0.2220 -0.1017  0.0503
12915W        W55931  12.687  27.524  24.701 -0.0900  0.0077  0.2503
12916W        W55932  32.308  26.766  21.631 -0.0264 -0.0878 -0.1706
12917W        W55933   4.408  30.502  22.537 -0.0284 -0.3232  0.0121
12918W        W55934  33.846  30.964   4.275  0.1596  0.1427 -0.0284
12919W        W55935   1.506  15.647  23.520 -0.0303  0.0571 -0.0033
12920W        W55936   8.390  25.104  19.548  0.1538 -0.0090 -0.0666
12921W        W55937  26.625  17.519  18.076  0.3183  0.0299 -0.0964
12922W        W55938   4.717   7.827  10.238 -0.1167  0.0682  0.0648
12923W        W55939   1.603   8.228  14.289 -0.1514 -0.0515 -0.2783
12924W        W55940   1.383   7.445  24.151 -0.3578 -0.3500 -0.1571
12925W        W55941  13.130  16.818  27.516 -0.0366  0.3110 -0.3922
12926W        W55942   9.073   7.981  17.128 -0.2828 -0.0288 -0.1111
12927W        W55943   6.950  18.946  24.332 -0.1485  0.1969 -0.2730
12928W        W55944  30.722   5.657  18.875 -0.1058 -0.2008  0.0494
12929W        W55945  12.957  25.031  17.268  0.2203 -0.0430 -0.1417
12930W        W55946   4.752  20.746   9.679 -0.1929  0.1133 -0.0417
12931W        W55947   5.279  22.823  19.382 -0.1893 -0.0467  0.2197
12932W        W55948   7.192  33.052  25.691 -0.0531  0.0669  0.1291
12933W        W55949  31.039  26.257  23.358  0.0900 -0.1582  0.0063
12934W        W55950  28.391  26.237  19.103  0.1754  0.0740 -0.0822
12935W        W55951  29.707   7.328  28.787  0.2715 -0.1557  0.2264
12936W        W55952   8.203  26.763  21.775  0.1661 -0.1029  0.0122
12937W        W55953   5.700  22.861  22.004  0.1768 -0.0963  0.0244
12938W        W55954  27.629  13.501  28.769  0.0436  0.1625 -0.0625
12939W        W55955  22.840  17.765   5.160 -0.0892  0.3547  0.1199
12940W        W55956   5.690  25.093  26.121 -0.2206 -0.3240  0.2722
12941W        W55957  34.642  19.647  20.933 -0.0609 -0.0317 -0.0422
12942W        W55958  29.918  15.614  15.697 -0.2782 -0.3492  0.3132
12943W        W55959   5.721  11.521   2.472  0.1376  0.1328 -0.2008
12944W        W55960   0.178  22.733  23.573 -0.0612 -0.1676 -0.0350
12945W        W55961   0.529  27.751  21.982 -0.0527 -0.0357 -0.2975
12946W        W55962   6.496   3.918  24.303 -0.1286  0.0950  0.0961
12947W        W55963  33.270  17.962  28.586 -0.0638 -0.2768 -0.0007
12948W        W55964  33.041  24.260  15.058 -0.1991  0.0089  0.2524
12949W        W55965  22.766  17.793  22.730 -0.2698 -0.1896 -0.1733
12950W        W55966   6.713  29.673  28.929 -0.1515 -0.0689  0.2628
12951W        W55967  13.245  34.454  17.866 -0.1155  0.0190  0.1955
12952W        W55968  11.250  28.213  25.627 -0.1949  0.0644 -0.0203
12953W        W55969   4.579  18.728  24.703  0.1146 -0.0756  0.0247
12954W        W55970  30.727  10.056  29.157  0.1011 -0.0606 -0.1702
12955W        W55971   3.829   8.998  23.372 -0.1960 -0.1071 -0.1928
12956W        W55972  22.872  17.532  21.687 -0.4570 -0.0231  0.1536
12957W        W55973  25.164   8.526  24.554  0.1332  0.0628  0.0780
12958W        W55974   5.440  10.491  26.396  0.0752  0.0403 -0.0880
12959W        W55975  17.641   9.836  18.688  0.1864  0.0053 -0.1054
12960W        W55976   3.206  15.280  14.181 -0.1201 -0.1979  0.1814
12961W        W55977   3.773   9.976  20.633  0.0735 -0.1075 -0.0995
12962W        W55978   7.415  13.547  25.277 -0.0426  0.6139 -0.1007
12963W        W55979  24.710  23.438  21.272 -0.0880  0.0230 -0.1023
12964W        W55980  10.088   1.520   5.131  0.1032 -0.1695  0.0944
12965W        W55981   7.373   9.835  19.630  0.3740 -0.1730  0.2056
12966W        W55982  10.778  21.465  25.263  0.2349  0.3498  0.1417
12967W        W55983  23.577  32.879   4.801  0.0900  0.0696  0.1264
12968W        W55984  13.088  19.580  16.569 -0.0155 -0.0290 -0.2069
12969W        W55985   0.132  20.490  24.962  0.5985  0.1828  0.1249
12970W        W55986   8.037  33.959  17.292  0.1585  0.1722  0.0529
12971W        W55987   3.832  21.013  17.817  0.1213  0.0091 -0.0401
12972W        W55988   1.376  28.480  21.522  0.1666  0.3295 -0.2849
12973W        W55989  13.678  19.794  21.751 -0.0010  0.2084 -0.2709
12974W        W55990   2.569   2.877  24.594  0.1798  0.1378 -0.2668
12975W        W55991   5.763  14.346   1.798 -0.3207  0.1267  0.0523
12976W        W55992   2.911   6.553  27.548  0.0696  0.1063 -0.0725
12977W        W55993   3.333  25.106  20.496 -0.0873  0.1092 -0.0965
12978W        W55994  17.869  26.027  23.461 -0.0660 -0.2821 -0.0099
12979W        W55995  34.639  34.470  23.004  0.1502 -0.1706 -0.1515
12980W        W55996   6.974  24.068  16.121  0.1723  0.1499 -0.0251
12981W        W55997  25.957  15.377   8.343  0.1118  0.2268  0.2978
12982W        W55998  33.662  17.579  21.068  0.0179 -0.2476  0.0363
12983W        W55999   0.972  20.093  14.951  0.1431  0.7347  0.2197
12984W        W56000  12.349   2.309  18.755  0.3122 -0.1434  0.2182
12985W        W56001   8.837  29.560  18.802  0.1181 -0.2877 -0.0254
12986W        W56002  30.111  15.148  26.421 -0.1995  0.1361 -0.2040
12987W        W56003   1.568  32.539  19.110 -0.0213 -0.0688 -0.1035
12988W        W56004   6.023  16.823  24.428  0.2507  0.0905  0.1341
12989W        W56005  30.556  31.422  16.751 -0.0396 -0.0324 -0.0536
12990W        W56006   3.255  29.960  15.714 -0.1053  0.0451  0.0894
12991W        W56007  33.650  25.052  24.410  0.1129  0.1619 -0.0842
12992W        W56008   7.710  26.708  17.955 -0.3271  0.0521 -0.0679
12993W        W56009   6.095   7.306   1.956  0.0624  0.0685 -0.2357
12994W        W56010  32.409  26.890  22.817  0.0777 -0.2603 -0.0415
12995W        W56011  27.960  27.833   0.017  0.0523  0.1295 -0.1051
12996W        W56012  28.309  34.361  18.870 -0.0997 -0.0715  0.3487
12997W        W56013  24.421  16.763  26.296  0.0236  0.1241 -0.0599
12998W        W56014  30.072  27.117  16.307  0.3566 -0.1151  0.2570
12999W        W56015  29.398  17.316  22.187  0.1243  0.4939  0.0909
13000W        W56016  17.923  31.942  15.163 -0.0192 -0.0618  0.0574
13001W        W56017  23.314  28.224  26.816  0.1197 -0.1618  0.2686
13002W        W56018   0.039  20.412  17.950  0.1891 -0.3156  0.0818
13003W        W56019  21.432  15.310  21.354 -0.3124 -0.0965 -0.1712
13004W        W56020  18.071  27.390  13.935  0.0351 -0.2439  0.1066
13005W        W56021  20.772   4.108  16.033  0.0402  0.2109  0.0887
13006W        W56022  32.830  23.064  25.118  0.0260 -0.1261  0.0281
13007W        W56023  31.470  13.238   6.222 -0.3002 -0.0816 -0.1679
13008W        W56024   4.877  19.533  26.950 -0.0020 -0.1882 -0.0762
13009W        W56025  33.954  12.932   8.548 -0.1289 -0.2736 -0.0829
13010W        W56026  30.880  16.299  28.231 -0.0979 -0.0994 -0.2708
13011W        W56027   5.595  24.008  15.329 -0.0554  0.4464  0.0333
13012W        W56028  19.235  22.975  20.826  0.1605 -0.0417 -0.3462
13013W        W56029  30.916   8.990  21.121  0.0569 -0.0001 -0.1780
13014W        W56030  19.548  26.040  23.259  0.1023  0.0088  0.0809
13015W        W56031   4.197  16.259  19.400 -0.0445  0.1283 -0.0456
13016W        W56032  30.126  19.001  24.072  0.0801 -0.1697 -0.1073
13017W        W56033   3.363  13.137  20.694 -0.2952 -0.0144  0.0170
13018W        W56034  29.219   8.561  16.447  0.1699 -0.0383  0.1011
13019W        W56035   1.217  24.401  16.134  0.0922  0.1216 -0.0001
13020W        W56036   6.894  23.372   7.170 -0.0399  0.0722  0.0163
13021W        W56037   3.735  32.831  24.277 -0.2825 -0.4890  0.0586
13022W        W56038  12.161  14.638  27.388  0.0565 -0.0431  0.2342
13023W        W56039  33.737  28.229  19.826 -0.0942  0.1177  0.3372
13024W        W56040  33.973  16.286  18.278 -0.0006  0.0131 -0.0030
13025W        W56041  33.465  11.185  20.104  0.0574  0.1911 -0.1409
13026W        W56042  24.403   7.690  17.065  0.1463  0.4851 -0.3217
13027W        W56043  11.869  32.154  21.989 -0.0191 -0.1455  0.4934
13028W        W56044  21.669  16.398  23.788  0.2286  0.2233 -0.0621
13029W        W56045  12.693  28.404  17.170 -0.3944  0.1272  0.0700
13030W        W56046  32.818  25.508  28.108  0.2919 -0.3396 -0.1378
13031W        W56047   6.090  13.800  18.144  0.3630 -0.1201  0.2719
13032W        W56048   3.255  28.465  16.123  0.1321  0.2002  0.0566
13033W        W56049   5.485  24.531  15.585  0.0043  0.0657 -0.2664
13034W        W56050  28.752  33.235   3.744  0.2393 -0.0487 -0.2901
13035W        W56051   5.084  25.937  13.904 -0.0155  0.1658  0.1714
13036W        W56052  12.788  14.309  14.481 -0.0037  0.1191 -0.0769
13037W        W56053  20.406  28.749  21.984 -0.0443 -0.1629 -0.1307
13038W        W56054  27.557   5.207  22.725 -0.2092  0.4107  0.0844
13039W        W56055   9.206   7.317  17.476 -0.2497  0.0055 -0.0192
13040W        W56056   9.932  25.212  15.079  0.0789 -0.0276 -0.1669
13041W        W56057   4.359  15.977   2.787  0.1730 -0.1716 -0.0488
13042W        W56058   5.676  17.311  27.335 -0.1584 -0.0659  0.2849
13043W        W56059   1.704  16.164   5.873 -0.0018  0.1041 -0.0130
13044W        W56060   5.540  17.496  16.416  0.2288 -0.3705  0.1086
13045W        W56061  25.467  25.166  28.633 -0.4121  0.0947 -0.0730
13046W        W56062  34.038  21.406  25.647 -0.0610  0.0090  0.0491
13047W        W56063  27.534   9.551  18.830  0.0889 -0.1415  0.0644
13048W        W56064   6.894  18.277  20.570 -0.0787  0.0730  0.0310
13049W        W56065   0.107  34.734  16.715  0.2806  0.0499 -0.0243
13050W        W56066  10.738  18.131  15.733  0.0663 -0.2262 -0.3325
13051W        W56067  11.932  29.540  18.339  0.0999  0.1580 -0.0770
13052W        W56068  29.843  28.372  21.881 -0.0246  0.0754 -0.3515
13053W        W56069  30.522  23.856  10.212  0.0617 -0.2639  0.2708
13054W        W56070  27.759  13.335  15.778 -0.0109  0.3678 -0.0448
13055W        W56071   3.521  16.463  24.270  0.1144  0.0548 -0.2766
13056W        W56072  33.882   6.912  20.799 -0.1287 -0.1100 -0.5869
13057W        W56073   3.423   9.283  27.985  0.1500 -0.3489  0.1938
13058W        W56074   0.202  11.472  25.405 -0.3351  0.1459  0.0325
13059W        W56075   8.025  34.030   3.993 -0.0631 -0.3056  0.0361
13060W        W56076  31.695  26.028   2.273 -0.0401  0.1592  0.0507
13061W        W56077  32.134  17.679  18.782  0.3334  0.0511  0.0032
13062W        W56078  30.488  24.845   4.218  0.2523 -0.4312 -0.0078
13063W        W56079  33.726   8.477   2.693 -0.3783 -0.0527 -0.0072
13064W        W56080   6.246   6.079  25.883 -0.2699  0.1305  0.0535
13065W        W56081  28.322  13.488  19.190  0.0291 -0.0226 -0.0356
13066W        W56082  28.679  24.636  24.759  0.1758 -0.1885  0.0561
13067W        W56083   4.492  25.028  19.997  0.2591  0.4751 -0.2967
13068W        W56084   2.579  19.842  18.109 -0.2575 -0.1412 -0.0474
13069W        W56085   7.695  16.703  18.148 -0.0924 -0.2122  0.0023
13070W        W56086  27.126   5.214  28.827  0.2951 -0.0466 -0.0503
13071W        W56087  10.447  19.548   6.412 -0.2997 -0.0821  0.0275
13072W        W56088   0.290  15.042   1.651 -0.1417 -0.2478 -0.1456
13073W        W56089  30.225  14.599  24.135  0.0270  0.1000 -0.0093
13074W        W56090  10.475   6.228  16.465 -0.1593 -0.1173 -0.1219
13075W        W56091  26.040  13.906  24.099  0.0360  0.0218 -0.1808
13076W        W56092  10.750  26.147  23.623  0.2262  0.1755  0.1166
13077W        W56093   1.748  34.190  20.071  0.1308 -0.2822  0.1362
13078W        W56094  14.755  11.168  12.423 -0.1577  0.1839  0.1636
13079W        W56095   8.280  31.289  21.097 -0.2096  0.4332  0.0479
13080W        W56096  12.678   5.906  15.223  0.2399 -0.1688 -0.2383
13081W        W56097   0.827  34.484  21.228  0.2856 -0.2569  0.1394
13082W        W56098   0.673  32.407   1.351  0.1198 -0.1362 -0.1654
13083W        W56099  28.800  30.294  25.808  0.0041 -0.1083  0.4094
13084W        W56100   0.231  15.227   7.799 -0.1259 -0.0259  0.1812
13085W        W56101   8.745   0.318   6.089  0.1003  0.0596  0.1415
13086W        W56102  32.504  15.487  24.806  0.2987  0.0175  0.1429
13087W        W56103   8.953  19.126  22.331 -0.1668  0.3143 -0.2246
13088W        W56104   5.297  15.208  28.898  0.0194 -0.1886  0.0849
13089W        W56105  31.751  30.096  23.660 -0.3267  0.1758 -0.0908
13090W        W56106  24.960   6.055  27.053  0.1688 -0.0004  0.0068
13091W        W56107   6.755  18.841  17.172  0.4109  0.3139  0.0727
13092W        W56108  29.878  19.025  28.467 -0.1735 -0.0001  0.0373
13093W        W56109   0.654  13.470   7.123  0.0919 -0.2914  0.2177
13094W        W56110  20.735  29.968  21.633  0.0665  0.1974 -0.3149
13095W        W56111   2.788   1.566   9.368 -0.1502 -0.2469  0.1103
13096W        W56112  10.599  19.731  27.085  0.2590 -0.3299  0.0110
13097W        W56113  12.288  34.065   4.893  0.1117  0.0152  0.2292
13098W        W56114  28.191  30.430  17.086 -0.0680  0.1471  0.1880
13099W        W56115   6.616   0.617  17.003  0.0238  0.1195  0.1327
13100W        W56116  15.609  26.823  18.558  0.3916 -0.1877  0.1574
13101W        W56117   6.011  17.443  22.192  0.0392 -0.1085  0.0278
13102W        W56118  28.782  23.234  15.133  0.0767  0.0777 -0.2715
13103W        W56119   7.528   9.573  22.446 -0.0159 -0.2742  0.0889
13104W        W56120   2.821  24.447  22.368  0.2616 -0.0448  0.1987
13105W        W56121   4.565   7.674   3.563 -0.0148  0.2179 -0.2383
13106W        W56122  10.946  14.549  28.914 -0.2202  0.3042 -0.1430
13107W        W56123   3.739  12.266   3.662  0.1057  0.3437  0.0737
13108W        W56124   7.811  26.259  18.730 -0.2845  0.0335 -0.2223
13109W        W56125  32.669  19.405  15.780  0.2271  0.0415 -0.1215
13110W        W56126  33.790  25.548  23.773 -0.2435 -0.0980  0.1490
13111W        W56127  33.959  23.616  16.464  0.2017 -0.0203 -0.0186
13112W        W56128   7.683  21.586  13.695  0.0341  0.1893  0.0867
13113W        W56129   8.749  23.929  17.749 -0.2513 -0.1538 -0.0738
13114W        W56130  28.431  20.380  27.963 -0.0455 -0.1899  0.1662
13115W        W56131   4.029  21.810  28.150 -0.1159  0.0122 -0.2484
13116W        W56132   0.183  34.119   3.629  0.1469  0.2175 -0.1077
13117W        W56133   0.914  29.273   1.492 -0.1276 -0.0445 -0.1050
13118W        W56134  20.215   8.497  23.236  0.1429  0.0116 -0.0461
13119W        W56135   0.758  15.419  24.789  0.0548  0.1778  0.0464
13120W        W56136  13.878   2.907  15.814  0.1117 -0.0407  0.1790
13121W        W56137  25.407  29.082  18.083 -0.1047 -0.1373  0.0707
13122W        W56138   9.667   6.811  26.775  0.0953  0.1216 -0.0985
13123W        W56139   2.525   1.183  24.858  0.2642 -0.2416  0.2054
13124W        W56140  34.270  26.605  15.071 -0.0620  0.0681  0.0511
13125W        W56141  32.789   8.547  29.046 -0.1905 -0.0556  0.0316
13126W        W56142   3.779   4.840   0.841 -0.1432 -0.2273  0.0559
13127W        W56143   5.611   0.612  13.684  0.0188  0.2563 -0.1334
13128W        W56144   0.954  24.826   8.824  0.2666 -0.0789 -0.2173
13129W        W56145   4.807  33.600  19.742  0.0712 -0.0287  0.0662
13130W        W56146  33.967  32.584  16.989  0.0526 -0.3606 -0.0808
13131W        W56147  10.448   7.695  20.951  0.2682 -0.0878  0.2378
13132W        W56148   5.491   1.861   7.225  0.2116 -0.3193 -0.2016
13133W        W56149  10.531  15.937   3.733  0.0999  0.2700 -0.0943
13134W        W56150   7.471   9.307  18.730  0.0190 -0.1804  0.1302
13135W        W56151  24.203  15.726  16.223  0.0151  0.0249 -0.3561
13136W        W56152   2.365  21.744   3.068 -0.1478 -0.0803  0.0403
13137W        W56153  16.821   7.725   2.282  0.0099 -0.1234 -0.2400
13138W        W56154  31.539  15.833  22.723  0.0396  0.2451 -0.2644
13139W        W56155  29.031  11.645  18.872  0.0320  0.2159  0.3401
13140W        W56156  24.630  15.388  22.728 -0.3342  0.0600 -0.2583
13141W        W56157  16.529  32.165  17.086  0.0691  0.1765 -0.1384
13142W        W56158   9.280   6.484  19.284 -0.1964 -0.2952 -0.0636
13143W        W56159   0.946  23.446  15.066 -0.1483  0.1493 -0.3769
13144W        W56160  33.819  29.019   1.387  0.0339 -0.0975 -0.1963
13145W        W56161  11.601  31.834  17.189 -0.3091 -0.1569 -0.1830
13146W        W56162   9.778  18.757  23.795 -0.1265 -0.1346  0.0425
13147W        W56163   0.221  24.779  25.611 -0.0467 -0.0347 -0.0001
13148W        W56164   6.500  30.394  21.611 -0.2338 -0.1833 -0.2386
13149W        W56165   9.776  19.194  12.129 -0.3865 -0.3210 -0.1347
13150W        W56166  16.325  32.055  19.607 -0.1304  0.0760  0.2372
13151W        W56167  30.335  17.129  18.835  0.1244 -0.0697  0.2159
13152W        W56168  33.628  25.718  22.118 -0.0881 -0.1271  0.4985
13153W        W56169  28.371  17.646  23.379 -0.2152  0.4336  0.2010
13154W        W56170  31.142  19.477  16.680 -0.1120  0.2771 -0.0450
13155W        W56171  19.178  10.146  23.027  0.0058 -0.0780  0.1701
13156W        W56172  22.263   2.855   9.202  0.0016  0.2021 -0.1935
13157W        W56173   9.569  12.861  16.094  0.0496 -0.0364 -0.1873
13158W        W56174  33.220   8.019   4.400  0.0056 -0.2832  0.0877
13159W        W56175  31.439  30.834   3.904 -0.1758 -0.0785 -0.0568
13160W        W56176  30.346  14.942  15.126  0.1387 -0.3231  0.2634
13161W        W56177  19.238   8.400  15.037 -0.0312  0.2530  0.0915
13162W        W56178   4.302  24.575  28.059 -0.0566 -0.1516  0.1702
13163W        W56179  33.645  22.257  24.275 -0.0388 -0.0238 -0.1763
13164W        W56180  29.793  26.332  20.857  0.2516 -0.0683 -0.2820
13165W        W56181  19.715   8.501  13.758 -0.0258  0.1505  0.2457
13166W        W56182  13.724  22.647  28.985 -0.2112 -0.3081  0.2259
13167W        W56183  16.418  31.946  24.668  0.0875  0.1355  0.0031
13168W        W56184  26.649  21.294   6.467  0.1964 -0.2571  0.2344
13169W        W56185  32.369  31.068  28.389 -0.1187  0.0236  0.2509
13170W        W56186  30.938  33.225  21.120 -0.0439  0.0388 -0.0385
13171W        W56187   2.472  22.777   9.481  0.2792 -0.0308 -0.3155
13172W        W56188  10.891  20.996  18.654 -0.1922  0.1981 -0.1078
13173W        W56189   9.195  32.620  16.578 -0.0480  0.0625 -0.1205
13174W        W56190   9.229   8.814  14.928 -0.1967  0.0083  0.3089
13175W        W56191  33.130  12.318  19.115  0.2651 -0.5270  0.2692
13176W        W56192  27.192   1.291  29.317 -0.2524 -0.3157  0.1510
13177W        W56193  15.915  26.194  25.490  0.1212 -0.0698  0.1991
13178W        W56194  24.074  15.975  18.612  0.2434  0.2828 -0.1365
13179W        W56195   1.645  19.099  19.593 -0.2296 -0.1444  0.0698
13180W        W56196  15.556  14.368  13.579  0.0586 -0.0693  0.1332
13181W        W56197   2.351  20.716  27.228  0.0631  0.2894 -0.0267
13182W        W56198  11.939  24.700  17.630 -0.0218 -0.2557  0.2086
13183W        W56199  12.513   8.087  18.181 -0.1003 -0.2002  0.2454
13184W        W56200   0.510  26.071  16.753 -0.0750  0.2579 -0.2037
13185W        W56201   6.622  14.787  16.034  0.3830 -0.5876 -0.1697
13186W        W56202  21.357  27.109   4.472 -0.1593  0.0555  0.1506
13187W        W56203  25.499  26.673  19.192 -0.2851 -0.2976 -0.2297
13188W        W56204   6.730  29.208  20.176 -0.2610 -0.4499  0.1902
13189W        W56205   2.390  20.626  18.826  0.2185 -0.0357 -0.5218
13190W        W56206  11.663  15.830  14.889  0.3951  0.1401  0.0359
13191W        W56207  19.182   4.980  26.702 -0.0728 -0.2794  0.0141
13192W        W56208   2.603  11.823  16.626  0.4420  0.0633  0.1532
13193W        W56209   0.521  22.055  27.818 -0.4696  0.0577 -0.0187
13194W        W56210  19.200  24.777  13.217  0.0340  0.1931  0.0186
13195W        W56211  32.902  19.038   7.549 -0.0750  0.1184  0.1494
13196W        W56212   6.948  27.526  21.520  0.1183  0.2429  0.0610
13197W        W56213  11.220  16.179  20.905 -0.2044  0.3384  0.1359
13198W        W56214   0.229  15.286  16.131 -0.0303 -0.0121  0.1935
13199W        W56215  27.951  30.237  25.996 -0.1395  0.1265  0.1281
13200W        W56216   8.738  20.235  24.157  0.0467  0.0797  0.0360
13201W        W56217  31.561  29.266  21.607 -0.0684 -0.1333 -0.1190
13202W        W56218  21.008  21.737   8.199  0.0516  0.4645 -0.2152
13203W        W56219  30.026  22.588  20.078 -0.1147 -0.0897 -0.2867
13204W        W56220  24.635   9.512   4.564 -0.3114 -0.2829 -0.0860
13205W        W56221  25.460  20.046  24.163  0.1757 -0.0706 -0.1783
13206W        W56222   3.474  28.379  24.732 -0.0626  0.1626 -0.0643
13207W        W56223   1.940  22.711  19.106  0.0317  0.0089 -0.2714
13208W        W56224  15.968  11.584  24.149 -0.0024  0.1240  0.0564
13209W        W56225  13.093  31.955  19.990 -0.0812  0.2282  0.0730
13210W        W56226  13.985   7.237  20.836  0.4854  0.1666  0.4394
13211W        W56227  32.756  26.080  16.617  0.1340 -0.1509 -0.0214
13212W        W56228  21.096  19.712  15.149 -0.0798 -0.2400  0.1567
13213W        W56229  25.319   1.861  25.224  0.0720  0.1079 -0.1985
13214W        W56230  34.651  23.370  17.063 -0.3682  0.2287 -0.2037
13215W        W56231   1.886  13.422  27.614  0.1754 -0.2136  0.0081
13216W        W56232  34.403   6.003   0.652 -0.0634 -0.0522  0.0981
13217W        W56233   7.504  24.160  19.611  0.0192 -0.3762  0.1688
13218W        W56234  17.411  23.177  12.771  0.0044 -0.0091  0.1292
13219W        W56235  24.586  29.850  19.921 -0.0728 -0.0700  0.0743
13220W        W56236  25.441  17.719  21.240  0.0490  0.0661  0.0751
13221W        W56237  26.305   2.964   1.701  0.1255 -0.0475  0.1994
13222W        W56238  16.184  20.738  26.532  0.0678 -0.1551  0.3100
13223W        W56239  23.150  10.215  24.196 -0.2152 -0.0702  0.4400
13224W        W56240  10.342  31.004   6.728 -0.2929 -0.0407  0.0661
13225W        W56241   4.583  26.535  18.320  0.1020  0.3198 -0.0295
13226W        W56242  33.167  24.360  27.754 -0.0128 -0.0227  0.0994
13227W        W56243  31.451  12.074  19.303  0.4251 -0.4466 -0.0065
13228W        W56244  22.348   1.491  17.520  0.2083  0.3772 -0.0092
13229W        W56245   9.804  25.696   8.270 -0.1724 -0.0865  0.2288
13230W        W56246  14.608  30.846  24.258 -0.0307 -0.0747  0.0716
13231W        W56247  21.329  11.696   7.864 -0.0513 -0.1538 -0.0421
13232W        W56248  24.733  10.162  24.984  0.2545  0.2449 -0.0053
13233W        W56249  32.283  20.730  19.896 -0.1802  0.0993  0.0613
13234W        W56250  16.499  18.074  12.465 -0.0095 -0.3450 -0.0627
13235W        W56251   0.257  22.305   8.616 -0.4875 -0.0857 -0.2561
13236W        W56252  12.763   6.575  13.944 -0.0580 -0.4993  0.2666
13237W        W56253   8.145  30.600  23.382  0.1338 -0.0816 -0.2257
13238W        W56254  10.347  15.731   5.186  0.0912  0.2702 -0.1435
13239W        W56255  30.238  22.726  28.828 -0.4615 -0.1244  0.0566
13240W        W56256  34.407  22.623  23.800 -0.2799  0.0156  0.5473
13241W        W56257   6.938  12.422   3.622 -0.0953 -0.1915 -0.3026
13242W        W56258  34.598   6.789  27.616 -0.0060  0.3498 -0.0413
13243W        W56259   7.427  26.797   8.088  0.1135  0.0541  0.2141
13244W        W56260   0.867  21.494   8.288 -0.1712  0.3146 -0.1604
13245W        W56261   0.990  11.655   4.263 -0.1670  0.0755 -0.0451
13246W        W56262  24.688   8.077  25.786 -0.2164 -0.1938 -0.0102
13247W        W56263  29.432  32.547  28.805 -0.1652  0.0010 -0.0257
13248W        W56264   8.589  21.865  24.893  0.0773 -0.0450 -0.2471
13249W        W56265   9.181  16.544   3.863 -0.1048 -0.0687 -0.0744
13250W        W56266  30.569  22.086   0.792 -0.0821 -0.1068 -0.0810
13251W        W56267  28.424  13.629  24.849  0.0874  0.1452  0.2108
13252W        W56268   7.729  30.812  23.959 -0.0429  0.1257 -0.3947
13253W        W56269   2.043  21.428  25.085  0.2417  0.3304 -0.2390
13254W        W56270  20.968   9.805  16.342 -0.0474  0.1562 -0.2153
13255W        W56271   6.560  20.562  14.770  0.0618  0.2282 -0.1328
13256W        W56272  12.439  25.607   2.888  0.2645  0.0240  0.1839
13257W        W56273  24.368  29.994  21.243 -0.0032  0.0703  0.1007
13258W        W56274   7.159  34.548  14.906 -0.0125 -0.1296 -0.0044
13259W        W56275   7.761  25.625  21.420  0.5309  0.5384  0.4388
13260W        W56276  10.006  19.213   2.189 -0.1422  0.1507 -0.0034
13261W        W56277  28.564  13.643  22.266  0.1826 -0.0624 -0.2092
13262W        W56278  30.685  32.000  25.091 -0.2759 -0.1251  0.0440
13263W        W56279  18.679  29.900  18.762 -0.0914  0.1890  0.1449
13264W        W56280  13.509  25.392  14.829  0.3185  0.1597  0.1558
13265W        W56281   6.826  19.797  20.554 -0.0389  0.0591  0.1848
13266W        W56282  23.779   4.665  15.969  0.1962  0.2031 -0.1687
13267W        W56283   1.063  16.474  14.964 -0.0806 -0.4887 -0.1377
13268W        W56284  25.372  28.906   0.763  0.2273 -0.1279  0.3109
13269W        W56285  33.524  26.886  16.227  0.0525  0.2721 -0.0093
13270W        W56286   6.744  11.813  16.050 -0.4153  0.0539 -0.0364
13271W        W56287   5.271  14.805   7.452  0.1683 -0.0810 -0.2199
13272W        W56288  33.607  18.208  19.915 -0.1368  0.1242 -0.1812
13273W        W56289  31.399   8.171  23.200 -0.1326 -0.1182  0.1445
13274W        W56290   1.222  20.896  21.470 -0.1832  0.0624 -0.0946
13275W        W56291   8.094  26.750   0.306 -0.1160 -0.1255 -0.0812
13276W        W56292  30.850  23.600  19.406 -0.0830  0.0344 -0.1122
13277W        W56293  26.096  23.391   0.365  0.3466 -0.2697 -0.1912
13278W        W56294   4.991   1.140   5.231 -0.2223 -0.2281  0.1113
13279W        W56295  29.989  13.703  14.828  0.2367  0.2899  0.2098
13280W        W56296   6.399  30.825   5.584 -0.0679  0.0912  0.0599
13281W        W56297  32.582  11.525  28.006  0.0783  0.1137 -0.0537
13282W        W56298   4.478   5.662  28.778  0.0004  0.2065  0.0816
13283W        W56299  32.607   9.652  19.530 -0.0920  0.2611  0.2301
13284W        W56300  19.118   8.756  20.993 -0.1239 -0.0723 -0.2851
13285W        W56301  11.944  13.054  20.120 -0.2163 -0.1627  0.0124
13286W        W56302  19.815   6.474  20.949  0.0292  0.1720  0.3819
13287W        W56303  24.574  24.192   9.133 -0.0835 -0.0389 -0.2616
13288W        W56304   4.337   7.538   7.869  0.1850 -0.2220 -0.3490
13289W        W56305  30.910  11.584  27.175  0.0706 -0.1027  0.2439
13290W        W56306   7.234  20.989   7.544  0.4719 -0.2368 -0.1092
13291W        W56307  26.972  23.094   2.749 -0.0229 -0.0879  0.1013
13292W        W56308  16.441  23.440  16.678  0.1138  0.2396  0.1466
13293W        W56309   2.794  29.214  23.161 -0.0310 -0.0323  0.1134
13294W        W56310  23.744   5.430  18.471 -0.4032 -0.0370 -0.1407
13295W        W56311  23.435  27.480  19.274 -0.0995  0.0290 -0.1019
13296W        W56312  33.285  21.211  28.301  0.2890  0.0751  0.0479
13297W        W56313  28.283  19.842   4.887 -0.2604  0.0711 -0.0453
13298W        W56314  10.841  22.133  15.090  0.2072  0.3064 -0.1380
13299W        W56315  25.953  17.081   3.201 -0.4046  0.0759 -0.1789
13300W        W56316   4.289  27.435  22.273 -0.0911 -0.5096  0.1956
13301W        W56317   6.760  26.034   1.670 -0.2542  0.0623  0.1214
13302W        W56318  21.762  21.196  24.913  0.1378  0.4343  0.0600
13303W        W56319   9.690  22.234  24.085 -0.3677 -0.0716 -0.0351
13304W        W56320  22.268  25.560  29.028 -0.0839 -0.1312  0.3148
13305W        W56321  10.467  34.465  27.382  0.1949  0.1590  0.1989
13306W        W56322   3.524  34.508  25.724 -0.2643 -0.2547  0.1785
13307W        W56323   9.171  22.039  21.745  0.0948 -0.1056  0.1152
13308W        W56324  28.010  15.443  15.160 -0.1625  0.0515 -0.0982
13309W        W56325  31.320  30.221   2.998  0.1814 -0.1386  0.1109
13310W        W56326  28.233  21.094  21.527 -0.3090 -0.0361  0.0847
13311W        W56327  29.849  27.906   3.545  0.1499  0.0819  0.2422
13312W        W56328  11.488   8.992  17.804 -0.2316 -0.0437 -0.0059
13313W        W56329   7.916  19.575  12.434  0.0469  0.0100  0.0415
13314W        W56330  28.339  30.722  27.096 -0.2962  0.0437 -0.1226
13315W        W56331  32.206  15.993  25.938  0.1874  0.0427  0.0755
13316W        W56332   6.356  20.493  17.728  0.0812 -0.1748  0.3294
13317W        W56333   1.983  24.854  21.197 -0.0700 -0.1869  0.0208
13318W        W56334   6.279  19.275   4.326  0.0615 -0.3125  0.3128
13319W        W56335   3.468  16.374   3.009  0.1861 -0.1329 -0.0296
13320W        W56336   0.953  28.263   5.886 -0.2681 -0.0478 -0.1973
13321W        W56337  24.243   7.156  29.248  0.1240  0.1551 -0.3526
13322W        W56338  11.687  23.885  18.818 -0.2291  0.0455 -0.1121
13323W        W56339  19.225  25.955  18.619  0.0274  0.1747 -0.3597
13324W        W56340  10.293  26.145  23.302  0.1042 -0.0025  0.0426
13325W        W56341  29.951  21.826  24.710 -0.3308  0.3781 -0.0519
13326W        W56342   6.450  27.586  21.319  0.1081 -0.3589  0.1862
13327W        W56343  20.546  18.931  13.944 -0.0660  0.2262 -0.0195
13328W        W56344   5.307  27.102  15.471  0.2476 -0.1174 -0.3426
13329W        W56345   2.587   0.736  18.661 -0.0513  0.3347  0.1754
13330W        W56346  18.689  31.199  18.896 -0.4853 -0.1983  0.3083
13331W        W56347   4.099  16.745   1.206 -0.1017 -0.0390 -0.3169
13332W        W56348  32.439  17.065  17.132 -0.0491  0.0606 -0.0624
13333W        W56349  18.729  16.480  14.771  0.2888 -0.3678  0.2868
13334W        W56350  33.622  21.829  14.926 -0.1454  0.2457 -0.2413
13335W        W56351   8.897  20.648  13.211  0.0305  0.0437  0.1157
13336W        W56352  18.576   3.519   2.104  0.2219 -0.0127  0.0920
13337W        W56353  23.126  26.372  19.503 -0.0249  0.2099  0.0900
13338W        W56354  25.609   6.401  22.458  0.0534  0.0638 -0.1767
13339W        W56355  25.657  30.358  16.315 -0.0874 -0.3895  0.2352
13340W        W56356  12.689  23.267  19.804 -0.2847  0.2856 -0.0312
13341W        W56357  34.703  22.164   0.063 -0.1412 -0.3786 -0.0628
13342W        W56358   2.030   0.043   7.121  0.1145  0.1821 -0.1248
13343W        W56359  12.775  13.168  26.489  0.0421  0.1885  0.0664
13344W        W56360  20.866  14.072  29.020  0.1599  0.2759  0.0699
13345W        W56361   2.259  26.773   0.254  0.1238 -0.2212  0.0767
13346W        W56362   1.577  27.491  18.364 -0.1342  0.1207  0.1297
13347W        W56363  29.299  27.649   1.967 -0.3662  0.0343  0.0777
13348W        W56364  34.704  28.173  17.581 -0.1138  0.1443 -0.0784
13349W        W56365   6.871  21.234  25.318 -0.4512  0.0033  0.0189
13350W        W56366  32.673   5.534  27.123  0.1474  0.0586 -0.2327
13351W        W56367  30.022  18.820  23.076 -0.2606  0.1217  0.2559
13352W        W56368   3.144  25.908  20.340 -0.2049  0.1552 -0.2089
13353W        W56369   7.143  12.728  19.556 -0.0076  0.1091 -0.0386
13354W        W56370  28.132  18.561  22.722 -0.0447  0.0042  0.0810
13355W        W56371   0.605  27.315  15.057  0.0940 -0.3757 -0.1424
13356W        W56372  19.354  16.843  26.306 -0.0870  0.0254  0.1462
13357W        W56373   7.717  10.144  16.060  0.1291 -0.1573 -0.0905
13358W        W56374   5.285  32.153  22.627 -0.2874  0.1907  0.0552
13359W        W56375  15.733  20.252  15.275 -0.4876 -0.1550  0.2363
13360W        W56376  29.586  25.868  15.773 -0.4490 -0.3178 -0.1916
13361W        W56377  29.423  14.126  28.387 -0.2438  0.1255  0.1142
13362W        W56378  28.004   4.936   5.344  0.1350 -0.2299 -0.0832
13363W        W56379  29.997  12.334   7.943 -0.0331 -0.0446  0.1571
13364W        W56380  29.777  25.782   5.775 -0.0189  0.0586 -0.0480
13365W        W56381  14.386  34.275  20.518 -0.2392  0.1722  0.2219
13366W        W56382   7.188  11.410  19.455  0.4565 -0.5046 -0.0998
13367W        W56383  30.490  31.464  21.556  0.1118  0.1069  0.1265
13368W        W56384  21.899  23.737   3.899 -0.2105  0.0298 -0.2554
13369W        W56385   2.819  18.802  15.590 -0.2985 -0.1243  0.1106
13370W        W56386  30.144   8.444  16.822 -0.4459 -0.0238 -0.2389
13371W        W56387   3.691   0.092  17.040  0.2282  0.0090  0.2016
13372W        W56388  22.161  21.369   8.890 -0.3718 -0.2421  0.2937
13373W        W56389  14.576  21.364  21.541  0.2021 -0.0392 -0.3746
13374W        W56390  20.135  23.333  24.183 -0.4115  0.2169  0.2314
13375W        W56391  18.255   3.000  15.929  0.1928  0.2392 -0.2932
13376W        W56392   9.257  15.466  28.023 -0.0050 -0.2759 -0.0183
13377W        W56393   6.316   0.463  14.572  0.4565  0.0389  0.1443
13378W        W56394   5.636   9.844   0.546  0.2127  0.0016  0.0103
13379W        W56395   9.523  23.139  25.151 -0.0371 -0.0492 -0.1219
13380W        W56396  25.809  17.947  13.780  0.1987 -0.1828 -0.0154
13381W        W56397  30.920  21.308  19.635  0.0990 -0.0632 -0.1968
13382W        W56398  17.655  11.237  24.272  0.4123 -0.1774 -0.1108
13383W        W56399  33.049  20.651   1.641  0.2197  0.3032 -0.2964
13384W        W56400  17.653   6.192  21.221  0.1365 -0.1143  0.2379
13385W        W56401  17.225  25.298  27.744  0.1553 -0.0004  0.4873
13386W        W56402  32.900  25.696  19.746 -0.0759  0.1244  0.0434
13387W        W56403  32.093  27.093  23.962 -0.0505  0.0869 -0.0524
13388W        W56404   2.049  18.960  15.624  0.3202  0.0496  0.1127
13389W        W56405  18.891  21.733  21.210  0.1258 -0.2362 -0.0099
13390W        W56406   2.017  14.642  15.114 -0.0206  0.0190 -0.0504
13391W        W56407  28.020  27.308  25.175 -0.1781 -0.1121  0.0631
13392W        W56408   4.773  14.604  16.803  0.2111 -0.0275 -0.1006
13393W        W56409  17.579  10.608  18.466 -0.0510  0.1261  0.2130
13394W        W56410  17.764   4.240  20.352  0.0316 -0.0308 -0.3091
13395W        W56411  24.431  30.889  26.008  0.1208  0.3917  0.1352
13396W        W56412  31.080  25.683  28.300  0.1294 -0.1545 -0.1619
13397W        W56413   1.444   8.985  18.040  0.0320 -0.2366  0.1984
13398W        W56414  14.325   2.653  23.733  0.1085 -0.1256 -0.3474
13399W        W56415  28.456  19.627  18.064 -0.1855  0.1160 -0.0813
13400W        W56416  11.507  34.374   1.132  0.2868 -0.2190 -0.1869
13401W        W56417  27.647  12.769   2.027 -0.4865  0.2249  0.0599
13402W        W56418  33.045  19.929   3.725  0.1240  0.0869  0.1344
13403W        W56419  31.361  26.979  23.851 -0.1447 -0.3459  0.2595
13404W        W56420  34.314   8.483   7.315 -0.0854  0.1506 -0.0308
13405W        W56421  22.928  22.631  16.506  0.1476  0.0621  0.0845
13406W        W56422  33.239  12.736   2.288  0.0240 -0.3442 -0.1421
13407W        W56423  32.777   6.194   2.964 -0.2928 -0.4526 -0.1613
13408W        W56424  26.556  29.424  21.480 -0.0524 -0.1013  0.1961
13409W        W56425  26.263  28.580  24.959 -0.0576 -0.2006 -0.1203
13410W        W56426  29.661  18.199  23.525  0.1598 -0.1543 -0.1670
13411W        W56427  29.595   6.046  27.747 -0.3594  0.0225  0.2455
13412W        W56428   0.089  23.183  15.563  0.2443 -0.1050 -0.1063
13413W        W56429  27.083  14.156  26.667  0.0271  0.2423 -0.0052
13414W        W56430   2.756  22.804   7.148  0.1583  0.0440  0.1248
13415W        W56431   2.257  30.346  19.754 -0.2300 -0.3092  0.0889
13416W        W56432  26.037  23.565  19.290  0.3110 -0.0842  0.0195
13417W        W56433   2.624  11.968  22.197 -0.0662  0.4502 -0.0555
13418W        W56434  17.870  32.860  21.695  0.1610  0.0066 -0.0409
13419W        W56435  11.352  11.872  20.650 -0.0900 -0.0069  0.1725
13420W        W56436  10.507  23.860  23.659  0.0379  0.0759 -0.5095
13421W        W56437  13.457  23.838  18.914  0.0386  0.1765  0.0118
13422W        W56438  25.021  18.545  19.087  0.0390  0.0995  0.2235
13423W        W56439   4.021  18.809  16.610 -0.4251 -0.1880  0.1386
13424W        W56440  11.508  17.554  15.768 -0.0701  0.0096 -0.1465
13425W        W56441  27.353  31.641  21.796  0.0789  0.1877  0.0537
13426W        W56442  32.427  16.677  17.676  0.0128  0.0073  0.2495
13427W        W56443  20.526   0.661   1.666 -0.1479 -0.4050  0.0156
13428W        W56444  29.389   8.333  21.795 -0.3723  0.0057 -0.2208
13429W        W56445   0.625   3.432  14.502 -0.0631  0.1090 -0.1347
13430W        W56446  15.345  22.535  17.987  0.3169  0.1188 -0.0487
13431W        W56447  10.926  13.900  13.233 -0.3428 -0.2435 -0.2693
13432W        W56448   4.655  23.497  26.341 -0.1887  0.0985 -0.2078
13433W        W56449   4.205  20.297  26.728 -0.0030 -0.0958 -0.2945
13434W        W56450   3.766  30.271  21.817 -0.0328 -0.0419 -0.2795
13435W        W56451  16.465  16.731  28.574  0.2202 -0.1858  0.2441
13436W        W56452  32.825  28.844  20.152 -0.0917  0.3189  0.2098
13437W        W56453  33.994  29.186  27.622 -0.2622 -0.0892  0.1572
13438W        W56454   6.295  22.378  15.931 -0.1783 -0.0554  0.1205
13439W        W56455  26.489  19.205   5.629 -0.1534 -0.1545 -0.2706
13440W        W56456  27.732  14.550  13.930  0.0136 -0.1411  0.0924
13441W        W56457   7.150  19.052   4.916  0.0774 -0.0369  0.0575
13442W        W56458   3.387  13.799  14.777  0.0803 -0.2688 -0.3327
13443W        W56459  28.586  25.318  23.049  0.0766 -0.0176  0.1049
13444W        W56460  11.403  21.486  23.299  0.1032  0.2608 -0.2204
13445W        W56461  12.791  33.430  15.577  0.4627  0.0413 -0.0762
13446W        W56462  10.347  21.635  18.592 -0.1214  0.2474 -0.0185
13447W        W56463  17.144  21.289  29.057 -0.2088 -0.0861  0.0039
13448W        W56464  22.118  13.310  20.233  0.1740  0.0693 -0.3162
13449W        W56465   8.674  26.556  22.589  0.0738 -0.1424 -0.0454
13450W        W56466   8.680   7.785  19.617 -0.2631 -0.0372  0.0264
13451W        W56467  19.832  32.060  19.944 -0.3071 -0.4493 -0.0163
13452W        W56468  10.635  25.693  14.447 -0.2096 -0.0201  0.0240
13453W        W56469  30.794  13.646  26.901 -0.1236  0.0174 -0.0152
13454W        W56470  25.972   0.637  11.334  0.4220  0.3120  0.2295
13455W        W56471  24.968  25.981  20.160  0.0736 -0.3710  0.1715
13456W        W56472  33.715  33.820  17.607 -0.1324  0.2526  0.0806
13457W        W56473  10.292  19.036  20.606  0.1557  0.0957 -0.0472
13458W        W56474  11.497  15.196  16.658 -0.0788  0.0355  0.0019
13459W        W56475  25.301  22.866   5.405  0.1078 -0.0890 -0.2816
13460W        W56476   0.804   4.134  17.011  0.2510  0.1810 -0.0002
13461W        W56477  25.741  21.060  21.461  0.0662  0.1929 -0.1621
13462W        W56478   8.177   9.671   7.250  0.2596  0.0648  0.0717
13463W        W56479   0.790  28.868  26.466  0.0303  0.0993  0.1030
13464W        W56480  32.519  17.510  16.585 -0.0069 -0.1394  0.1048
13465W        W56481   8.179   3.700  19.505  0.1443 -0.1861  0.0029
13466W        W56482   7.481  23.714  20.277  0.0422 -0.1650 -0.2234
13467W        W56483  27.154  19.242  27.978 -0.1077  0.2837 -0.0607
13468W        W56484   5.092  29.254   2.604  0.1569 -0.0278  0.2033
13469W        W56485  22.877  27.465  24.053 -0.0324  0.0266 -0.0817
13470W        W56486   4.943  14.666  20.952 -0.0691  0.0530 -0.0301
13471W        W56487   1.469  30.681  20.430  0.0666 -0.2368  0.0251
13472W        W56488   5.981  23.500  28.751  0.1954 -0.0101 -0.3578
13473W        W56489  30.159  18.950  25.971 -0.4134  0.0198  0.0378
13474W        W56490  27.269  23.694  24.429 -0.0163  0.0937 -0.1559
13475W        W56491   9.399  21.037  27.961 -0.0826 -0.3349  0.2835
13476W        W56492   0.642  23.080  17.782  0.2094  0.0270  0.1103
13477W        W56493  30.185  16.827  25.594  0.3974  0.0290  0.1666
13478W        W56494  27.789  30.468  23.681  0.0786  0.0141  0.0961
13479W        W56495  26.722  21.754  26.734  0.0444  0.0853  0.2810
13480W        W56496  18.721  13.863   1.282  0.1649 -0.0350 -0.1074
13481W        W56497   4.114  30.184  23.974 -0.2753 -0.0840 -0.0864
13482W        W56498  12.719  32.556  26.684  0.2314 -0.2484  0.2693
13483W        W56499   5.528  23.269   1.451  0.1086  0.1493  0.1708
13484W        W56500  31.452  18.163  10.328  0.2623  0.0401  0.1934
13485W        W56501  29.266  17.514   4.870  0.2828 -0.2963  0.2891
13486W        W56502  10.617  11.097  25.366 -0.2401 -0.0583  0.0320
13487W        W56503  20.272  12.657  24.743  0.0346 -0.0425  0.1934
13488W        W56504  28.619  27.703  21.893  0.1669  0.1798  0.0743
13489W        W56505  18.317  16.647   0.395 -0.1366  0.1494 -0.1943
13490W        W56506  12.759  19.569  26.610  0.2373  0.0115 -0.2008
13491W        W56507  27.510  11.990  29.154 -0.1808  0.1803  0.0614
13492W        W56508   1.646  26.121  21.127 -0.1180 -0.0456  0.0330
13493W        W56509  20.367   7.176   0.363  0.0168  0.2103 -0.2720
13494W        W56510  15.550  10.656   3.017  0.1681  0.1363 -0.3126
13495W        W56511  33.839  18.795  23.014 -0.1693  0.3273  0.2749
13496W        W56512   6.255  18.481   0.257  0.2779  0.2957  0.2679
13497W        W56513  24.095  18.767   7.115 -0.1166 -0.0198 -0.1649
13498W        W56514   9.861  25.208  27.083 -0.1395 -0.1516  0.0045
13499W        W56515  10.880   8.168  17.330  0.2503  0.1807 -0.0440
13500W        W56516  19.413  13.863  14.687  0.2460  0.1839  0.2051
13501W        W56517   5.296  31.706   4.740  0.2390 -0.0223 -0.0049
13502W        W56518  33.546  23.263  26.668  0.2467 -0.0829 -0.0892
13503W        W56519   0.330   5.194  27.369 -0.3544 -0.0973  0.0777
13504W        W56520  32.330  27.206  10.474 -0.3322  0.0754  0.4585
13505W        W56521   6.854  25.875   4.876  0.2476 -0.0889 -0.3828
13506W        W56522  18.568  23.521   3.284  0.2508  0.2484  0.0249
13507W        W56523   3.763  11.253  24.678 -0.0665  0.4921  0.3131
13508W        W56524  10.895  23.555   7.488 -0.3288  0.0242  0.1013
13509W        W56525  30.384  27.887   8.194 -0.2959 -0.0803 -0.3208
13510W        W56526   3.595   3.809   2.079  0.0120 -0.1044 -0.0502
13511W        W56527  11.889  24.723   1.232  0.1705 -0.0851  0.3665
13512W        W56528  19.073  18.217  26.913 -0.1394 -0.1909  0.1037
13513W        W56529  29.107  19.357  21.565 -0.0168 -0.2951 -0.1460
13514W        W56530  31.521  13.370  14.643  0.2235 -0.0566  0.3472
13515W        W56531  34.449   6.712   8.738 -0.1284  0.0747  0.0386
13516W        W56532  32.016  31.796   2.241 -0.0112  0.2488 -0.0907
13517W        W56533  30.337  20.425  23.322 -0.3409  0.1691  0.1467
13518W        W56534   6.272  24.848   0.786 -0.0218  0.0980  0.1181
13519W        W56535   6.447  25.517   5.548  0.0095 -0.3562 -0.1809
13520W        W56536  10.306  16.920  25.415  0.0598 -0.0145  0.2256
13521W        W56537  32.423  31.888  27.683  0.0779  0.0178 -0.1566
13522W        W56538  30.759  14.754   9.066  0.2293  0.2815  0.2081
13523W        W56539  34.597  21.244   1.728  0.0103  0.0017 -0.0467
13524W        W56540  32.885  12.618  18.761 -0.0977  0.0870 -0.3490
13525W        W56541  15.485  22.780   3.498  0.2175 -0.3022  0.1436
13526W        W56542   0.756  20.815  16.732 -0.1427 -0.2068  0.0676
13527W        W56543   6.475   3.913  26.071  0.5380 -0.0578 -0.1084
13528W        W56544  32.990  27.594   6.950  0.0160 -0.0107  0.0143
13529W        W56545   8.092  17.657   3.160  0.1001  0.0063  0.1193
13530W        W56546   4.479  21.823  21.889  0.3168 -0.4369 -0.0010
13531W        W56547  10.543  17.365  12.757 -0.0057 -0.1367 -0.2539
13532W        W56548  25.250  31.000  27.082 -0.1133 -0.0957  0.2229
13533W        W56549  33.770  18.334   4.313  0.1471 -0.1702 -0.0548
13534W        W56550   2.189  12.680   0.636 -0.0739 -0.2426  0.0852
13535W        W56551  34.251   0.880  18.861 -0.1065 -0.1028 -0.0530
13536W        W56552  12.350  18.994   5.081 -0.1721 -0.1404  0.1544
13537W        W56553  10.400  23.769  22.116 -0.0924 -0.1941 -0.0276
13538W        W56554  24.365  28.777  16.559  0.2033  0.1879  0.1269
13539W        W56555  30.189   2.595   9.101 -0.5567 -0.0506 -0.1081
13540W        W56556  12.225  21.749  24.319 -0.0813 -0.2444 -0.0624
13541W        W56557   1.440  23.354  29.188 -0.2552 -0.3377  0.0931
13542W        W56558   3.932  34.467  27.820  0.1241 -0.1254  0.2236
13543W        W56559  25.441  11.788   5.800  0.0509 -0.1158 -0.1634
13544W        W56560  32.999  16.858   1.186 -0.0450  0.1581  0.0734
13545W        W56561  11.017  18.955  27.768  0.2075  0.2039 -0.1087
13546W        W56562  21.885  29.444  25.723 -0.1771 -0.2422 -0.1652
13547W        W56563  29.957  24.983   2.497 -0.1006 -0.0790 -0.0907
13548W        W56564  21.035  10.704   3.448 -0.0288 -0.0620  0.3794
13549W        W56565  27.904  18.373   8.449  0.0165  0.0563 -0.2287
13550W        W56566   2.803  23.789  25.718 -0.1354 -0.0286 -0.0215
13551W        W56567  13.764  13.851  18.819  0.2087 -0.0708 -0.2152
13552W        W56568  11.220  20.550   0.561 -0.3324 -0.3635 -0.0752
13553W        W56569   2.407  32.575  24.067 -0.2600  0.0166 -0.2376
13554W        W56570   2.705  28.316  21.915  0.2754  0.0541 -0.0082
13555W        W56571  14.997   2.855  17.038 -0.1876 -0.3226  0.1461
13556W        W56572  15.275  25.986  22.329 -0.1083 -0.3871 -0.1316
13557W        W56573   1.499  26.959  24.412  0.2620  0.2044 -0.0116
13558W        W56574   8.853  24.178  16.334  0.2241 -0.1274 -0.0000
13559W        W56575  30.589  15.739  20.736  0.0960  0.0867  0.1000
13560W        W56576   8.419  24.222  22.964  0.1792 -0.0010 -0.3238
13561W        W56577  14.656  26.268   6.736 -0.0236  0.0101  0.1353
13562W        W56578   2.424  19.550  28.732 -0.0035 -0.1202 -0.0071
13563W        W56579   4.117  16.258  25.497  0.1349 -0.0204  0.2125
13564W        W56580  15.860  18.402  15.006 -0.0257 -0.0155 -0.0540
13565W        W56581  24.880  22.628   2.847 -0.2390  0.0574 -0.0273
13566W        W56582   7.817  28.345  18.336  0.1310 -0.3587 -0.1674
13567W        W56583  34.121   5.494  14.820  0.3688  0.0497 -0.0052
13568W        W56584   6.313  20.974   0.995  0.0248 -0.1297 -0.0804
13569W        W56585  29.462  12.114  27.624  0.0665  0.3617  0.0949
13570W        W56586   0.679  21.497  19.138 -0.1248 -0.0670 -0.0854
13571W        W56587  14.843  16.295  14.639  0.1241 -0.0962 -0.0892
13572W        W56588  10.786  21.931  27.509 -0.2011  0.0869 -0.1362
13573W        W56589   9.687  15.772  23.164  0.0113  0.1347 -0.1489
13574W        W56590  29.202  25.661   2.840 -0.0735  0.2709  0.0028
13575W        W56591   3.397  24.717   9.138  0.1710 -0.2792 -0.1811
13576W        W56592  11.960  21.986  28.498 -0.1253  0.0393 -0.1294
13577W        W56593  34.042  24.717  17.140  0.2530  0.0769  0.1342
13578W        W56594  24.915  20.536   1.668  0.0903 -0.2596  0.2174
13579W        W56595   4.564  11.456  24.829 -0.0356  0.1381  0.3066
13580W        W56596  23.286  11.037  20.102  0.0862 -0.0021  0.0725
13581W        W56597  22.903   5.544   5.177 -0.3130  0.1287 -0.0051
13582W        W56598  17.445  24.643   3.054  0.3191 -0.1461  0.7531
13583W        W56599  12.261  28.324   5.956 -0.0608  0.0476  0.1153
13584W        W56600  26.352  29.558   3.226  0.2768  0.0361 -0.0205
13585W        W56601   7.830  20.873  25.090 -0.0942 -0.0529  0.3867
13586W        W56602   7.500   9.601  28.715  0.1085 -0.2327  0.0417
13587W        W56603  25.715  11.470  27.585 -0.2976  0.1271  0.0097
13588W        W56604  29.127  10.074   1.401 -0.1199  0.2118  0.0934
13589W        W56605  16.753  17.160  17.668  0.2646  0.1456  0.1648
13590W        W56606  30.628  10.013   1.285 -0.0560  0.1235  0.1031
13591W        W56607   5.945   7.323  24.049 -0.1641 -0.2784  0.1293
13592W        W56608  20.803  17.005  26.506 -0.1690 -0.3897  0.1837
13593W        W56609  23.425  25.291  10.321 -0.0586 -0.2429 -0.1863
13594W        W56610  18.326  15.103  14.577  0.1204  0.2295 -0.0397
13595W        W56611  19.958  19.629  14.181  0.1884 -0.1762  0.2238
13596W        W56612  30.830  23.858  28.227 -0.1978 -0.3318 -0.0092
13597W        W56613  29.237   7.643  23.296 -0.0681  0.1170  0.1353
13598W        W56614   7.224  27.591  18.118 -0.2312  0.2614 -0.0798
13599W        W56615   3.743  17.877  26.059 -0.2776 -0.0175  0.0443
13600W        W56616  29.075  12.298  16.423  0.0070  0.0837  0.0093
13601W        W56617  12.963  22.083  25.811 -0.2266  0.2332  0.1248
13602W        W56618   3.261   9.486  17.081 -0.1169  0.1125 -0.1190
13603W        W56619   4.453   9.818  16.144 -0.1091  0.1485 -0.1075
13604W        W56620  10.806  19.209  19.752 -0.0934 -0.0344 -0.1032
13605W        W56621   8.118  27.833   1.498  0.1357  0.1738 -0.0848
13606W        W56622  18.356  20.737   7.242 -0.0464  0.1070  0.0039
13607W        W56623   9.042  12.895   2.063 -0.0420  0.1098  0.4391
13608W        W56624  27.390  30.271  23.298  0.1414  0.0411  0.2942
13609W        W56625  19.341   3.537   9.392 -0.0375 -0.1668 -0.3998
13610W        W56626   5.586  21.122  28.294  0.1442 -0.0596  0.1717
13611W        W56627  24.406  29.170  19.403 -0.4880  0.1410 -0.0463
13612W        W56628  24.597  25.634  24.993  0.0867  0.0769  0.2194
13613W        W56629  24.589  10.101  21.237  0.1990 -0.1054 -0.1945
13614W        W56630  23.130   6.574  15.034  0.0171  0.1485 -0.3586
13615W        W56631  25.593  20.150  23.062 -0.3506  0.0608  0.3027
13616W        W56632   0.897  29.574  25.081  0.4162  0.0949  0.2879
13617W        W56633  24.365  23.305   2.265 -0.0439  0.0387  0.1545
13618W        W56634   7.294   5.320  23.297  0.0134 -0.0499 -0.0589
13619W        W56635  27.478  26.317   4.085  0.0639  0.0005 -0.3350
13620W        W56636   1.607  26.559  20.480  0.2912  0.2652 -0.0405
13621W        W56637  33.296  11.957   5.076  0.0271  0.0633 -0.1748
13622W        W56638  24.490   3.334  18.805 -0.0252  0.1458 -0.0430
13623W        W56639   6.649   7.486  18.657  0.1291 -0.1174  0.0237
13624W        W56640  31.265   2.181   8.263  0.0283  0.0842  0.0833
13625W        W56641  13.023  10.275   9.657 -0.0025  0.2861  0.3811
13626W        W56642  28.914  13.271  24.794  0.2497 -0.3954  0.0972
13627W        W56643  15.613  20.784   1.983  0.4042  0.4378 -0.0510
13628W        W56644   8.348   4.624  16.405  0.2001  0.0462  0.0017
13629W        W56645  17.370  22.234  26.069 -0.1328  0.2168  0.2593
13630W        W56646   3.215  15.873  19.570  0.2040 -0.1772  0.2480
13631W        W56647  33.154  30.141   0.692  0.0469 -0.1776  0.2306
13632W        W56648  24.359  24.954  18.609 -0.3363  0.1449  0.3463
13633W        W56649   3.983  28.316  15.244  0.0129  0.1893 -0.0479
13634W        W56650  14.801  19.922  28.600 -0.0480 -0.0600 -0.0979
13635W        W56651  12.136  13.866   6.917 -0.1330  0.0940  0.1729
13636W        W56652  30.462  18.557  17.979 -0.0652  0.1207  0.2873
13637W        W56653  28.283  16.149   9.822 -0.3073  0.0672  0.0272
13638W        W56654  32.219  15.539  23.473  0.2266  0.0754  0.2151
13639W        W56655  32.519  10.779   3.272 -0.1321  0.2395  0.3862
13640W        W56656  21.985  20.308  28.267  0.3645 -0.1252 -0.0211
13641W        W56657   7.987  19.535  14.281  0.2196  0.2844  0.2212
13642W        W56658  11.794  14.099   7.868  0.1375  0.0066 -0.0723
13643W        W56659  13.467  21.585  27.568 -0.0544  0.3669 -0.1695
13644W        W56660  13.814  22.368  20.406  0.1696  0.1798 -0.0351
13645W        W56661  25.342  26.276  12.113  0.0909  0.0280  0.0397
13646W        W56662  33.849  15.308  16.737  0.1012  0.3642 -0.1148
13647W        W56663   4.934  22.286   4.511 -0.0986 -0.0593 -0.0661
13648W        W56664  29.584   5.161   9.677  0.2726 -0.1150  0.1493
13649W        W56665  10.231   7.708  17.133  0.0865 -0.1408 -0.0584
13650W        W56666  33.711  34.128  20.315 -0.0087  0.3577 -0.1476
13651W        W56667  33.717  18.276  26.349 -0.4010 -0.0691 -0.0862
13652W        W56668   0.608  33.759  21.072  0.0357  0.1225 -0.0005
13653W        W56669  28.570  18.706  25.515  0.0610  0.0609 -0.2303
13654W        W56670   6.466  27.948   6.701 -0.1334 -0.1470 -0.1023
13655W        W56671  32.171  31.836  28.272 -0.0863 -0.1188  0.4506
13656W        W56672   5.901  19.899  14.580 -0.4032 -0.1711  0.2361
13657W        W56673  11.444  26.710   2.811 -0.0464 -0.0254  0.1853
13658W        W56674  15.701   5.878   5.904 -0.2356  0.0461  0.1962
13659W        W56675   8.599  13.762   5.610 -0.0086 -0.2484  0.0998
13660W        W56676  32.169  25.956   1.393  0.1240  0.0704 -0.0684
13661W        W56677  29.295   8.290  15.569 -0.1713  0.2162  0.0397
13662W        W56678   8.484  33.737   3.650 -0.1557 -0.1601 -0.1066
13663W        W56679   4.390  14.275   7.823 -0.0978 -0.2915 -0.0826
13664W        W56680  13.550   6.589  28.274 -0.1552 -0.0723  0.1963
13665W        W56681  10.492  19.320   5.056 -0.1963 -0.0374 -0.0770
13666W        W56682  12.292  28.415   3.480  0.1601 -0.0587 -0.1411
13667W        W56683   1.406  19.300  20.363  0.1114  0.0173  0.0813
13668W        W56684  32.004  12.247   4.853 -0.1361  0.3451  0.2393
13669W        W56685  10.902  21.520   6.601  0.1374 -0.0809  0.1569
13670W        W56686   0.191  17.260   5.524  0.0721  0.0331  0.2410
13671W        W56687  31.895  29.577   5.086  0.0716  0.2352  0.0934
13672W        W56688  30.925  20.666  23.334 -0.0999 -0.0489 -0.2547
13673W        W56689  11.582  12.868  22.879 -0.0544 -0.1643 -0.2232
13674W        W56690  30.531  24.832  19.282  0.1495 -0.0847 -0.1344
13675W        W56691   0.916  17.877  16.720  0.2922  0.3881  0.0670
13676W        W56692   7.523  30.389  20.323  0.0074 -0.3010  0.1518
13677W        W56693  28.940  23.418  18.516 -0.0332  0.1839 -0.0276
13678W        W56694   1.695  23.964  18.478 -0.0237 -0.1059  0.1599
13679W        W56695  30.681   4.378  26.115 -0.1397  0.1030  0.1823
13680W        W56696   3.443  22.970  23.662 -0.0897  0.2972  0.0717
13681W        W56697   6.763   5.576  29.281 -0.3283 -0.0103  0.2321
13682W        W56698   2.923   6.715   6.138 -0.2141  0.4655  0.0164
13683W        W56699   3.067  26.287  27.026  0.1232  0.1565  0.0283
13684W        W56700  20.403  28.736  28.350 -0.3946 -0.0842  0.0613
13685W        W56701  16.747  27.119  25.111  0.3064  0.2986  0.1334
13686W        W56702  17.553  26.342  20.796 -0.1182 -0.0998  0.1377
13687W        W56703   4.761  25.780  25.296  0.0719  0.4079 -0.1469
13688W        W56704   2.597  30.706  27.952  0.0223 -0.2636  0.1299
13689W        W56705  32.277  26.015  21.887  0.0057  0.2370 -0.0182
13690W        W56706   2.810   4.368   7.991  0.1686  0.1363  0.1355
13691W        W56707  10.936  22.717  21.388  0.0152 -0.1710 -0.0416
13692W        W56708  34.384  13.755   1.957  0.3169 -0.0766 -0.0398
13693W        W56709   7.934  15.801  13.678  0.1521 -0.0099 -0.1377
13694W        W56710  14.954  32.642  16.373  0.4434  0.1590 -0.1605
13695W        W56711  24.807  34.322  10.610 -0.1266  0.0024  0.3874
13696W        W56712   1.871  19.544   2.018  0.1449 -0.0509 -0.0210
13697W        W56713  17.797  30.874   6.984  0.3131  0.1186  0.1297
13698W        W56714  13.656  19.604  25.355  0.0324 -0.0960  0.1797
13699W        W56715   6.673  17.205  14.455  0.1004  0.1226  0.0239
13700W        W56716   6.977   3.013   2.565  0.2803 -0.3149 -0.1025
13701W        W56717  11.503  24.626  17.372  0.0736 -0.0955 -0.0659
13702W        W56718  17.319  26.330  19.855 -0.1811  0.1015  0.0949
13703W        W56719  17.834  29.282  15.033  0.0407 -0.0828  0.2967
13704W        W56720  32.881  32.451   7.838  0.0066 -0.0183  0.0095
13705W        W56721  10.191  11.893  27.699  0.0503  0.0197 -0.1293
13706W        W56722   9.119  29.622  18.306  0.0280 -0.1102 -0.0591
13707W        W56723   5.063  21.946  15.263  0.5494 -0.2969 -0.0521
13708W        W56724  30.850  22.706  20.884  0.0854  0.3651  0.2717
13709W        W56725   3.174  20.498  15.059  0.0926 -0.0932  0.0305
13710W        W56726  24.061  18.442  19.800  0.1615  0.0604  0.0503
13711W        W56727  14.389   8.825  19.615  0.0217  0.1875  0.1144
13712W        W56728  20.569  28.464   1.857 -0.1725  0.1428 -0.0492
13713W        W56729   0.411  26.442   5.103 -0.0778 -0.2049 -0.1019
13714W        W56730   9.708   9.127  20.242  0.3204  0.1625  0.4364
13715W        W56731   6.797  13.250   4.615  0.0111  0.0458 -0.2374
13716W        W56732  19.207  11.570   1.174  0.0743  0.0136  0.3546
13717W        W56733   1.639  20.564   0.124 -0.1913 -0.1145 -0.0081
13718W        W56734   3.386  17.804  26.420 -0.1659  0.2698 -0.1425
13719W        W56735   5.662  18.708   7.037  0.0006  0.0870  0.0608
13720W        W56736  27.425  14.480  18.062  0.0075  0.2527 -0.0809
13721W        W56737  30.395  16.851   0.237 -0.4773 -0.2444 -0.1995
13722W        W56738  26.115  26.586   1.152 -0.1159  0.1859  0.1697
13723W        W56739   9.352   5.576   8.601  0.0342 -0.2411  0.0808
13724W        W56740  13.982  24.506  27.931  0.1089  0.0562 -0.3671
13725W        W56741  34.146  30.810  28.951  0.0298  0.0354 -0.0686
13726W        W56742  26.998  14.229  17.807 -0.1112  0.0088 -0.0613
13727W        W56743  15.845  19.231   6.547 -0.0387 -0.0185 -0.0300
13728W        W56744  19.993  22.128  18.978  0.0094  0.1855  0.1322
13729W        W56745  13.471  26.073   9.757 -0.1264  0.2360 -0.3580
13730W        W56746  27.741  21.757   4.871 -0.0835 -0.2161  0.2137
13731W        W56747  24.801  33.691  27.887  0.2290 -0.0795  0.3168
13732W        W56748  17.154   5.877  16.316 -0.2229  0.0061  0.4578
13733W        W56749   2.007  17.272   3.887 -0.2093  0.1204 -0.2857
13734W        W56750   4.973  26.701  19.841  0.0769 -0.2493 -0.1487
13735W        W56751   6.811   8.965  20.432  0.4242 -0.3283 -0.0535
13736W        W56752   1.892  31.630  23.754  0.1550  0.1892  0.3220
13737W        W56753   7.345  34.201   4.581  0.1995 -0.0825 -0.2528
13738W        W56754  15.701  21.606  23.536  0.1029 -0.1682  0.3604
13739W        W56755  26.499  15.316   8.060 -0.3597  0.1005 -0.1718
13740W        W56756  22.713  19.980  15.382  0.0105  0.0515 -0.0148
13741W        W56757  31.902  32.797   1.093  0.0386  0.1059  0.4162
13742W        W56758   4.329  30.325   2.812 -0.1645 -0.2223 -0.1598
13743W        W56759  26.280   0.434  18.580 -0.0303 -0.1612  0.0729
13744W        W56760   9.142   5.511  23.488  0.3103 -0.2329 -0.1456
13745W        W56761  23.368  28.118   3.926 -0.1468 -0.1080 -0.2367
13746W        W56762  17.776   3.980   0.944  0.1911  0.1589  0.0671
13747W        W56763   0.771  12.222  23.101 -0.1814 -0.1928 -0.3354
13748W        W56764  27.962  19.969  15.679  0.2086 -0.2569  0.2555
13749W        W56765   5.112  14.244   2.321 -0.3396 -0.3868 -0.2133
13750W        W56766  26.135  20.455  21.340  0.0022 -0.4273  0.0493
13751W        W56767   6.022  16.931   3.129 -0.1288 -0.0604 -0.2542
13752W        W56768  26.447   1.112   5.086  0.4869  0.2982  0.0012
13753W        W56769  34.410  31.233  15.714  0.0590  0.0795 -0.1556
13754W        W56770  30.083  10.479  28.036  0.1271 -0.0774 -0.0835
13755W        W56771   4.956  24.993  14.211 -0.0148  0.1370  0.0370
13756W        W56772   6.171  14.318   4.406  0.0878 -0.0552  0.0483
13757W        W56773  32.250  19.789  16.981 -0.1431  0.1108  0.0768
13758W        W56774   8.595  29.585  20.897 -0.0842  0.1169  0.2055
13759W        W56775  28.903  21.809  14.740 -0.1924 -0.0714  0.1854
13760W        W56776   6.975   9.499  22.709 -0.0244 -0.3228  0.1251
13761W        W56777   2.282  11.962  19.775  0.2359 -0.0016  0.4249
13762W        W56778   1.188   1.478  27.168 -0.2335 -0.0565  0.0265
13763W        W56779   1.532  29.655   4.144 -0.0855  0.1524  0.3134
13764W        W56780   3.117  22.004  20.292 -0.0014 -0.0645 -0.0138
13765W        W56781   3.135  14.252   0.608  0.1963 -0.0586  0.0623
13766W        W56782  10.052   8.703  15.348  0.1139 -0.0571 -0.0753
13767W        W56783   4.760  33.266  15.892  0.0990 -0.1573  0.3351
13768W        W56784  33.247   9.676  26.890  0.1299  0.0116 -0.1302
13769W        W56785  14.170  28.650  20.216  0.0360  0.1133  0.1508
13770W        W56786   5.246  19.658  28.293 -0.0976 -0.2151  0.0534
13771W        W56787   1.267  29.503   1.782  0.1679  0.1562  0.0361
13772W        W56788  25.647  16.588  18.358 -0.1401 -0.1916 -0.2108
13773W        W56789  29.138  16.472   3.905 -0.0155  0.1301 -0.0734
13774W        W56790  29.297  28.620  18.117  0.1694  0.3219 -0.0646
13775W        W56791   0.698   5.302  27.068 -0.1215 -0.0034 -0.3796
13776W        W56792  29.241   9.298   1.800  0.1004 -0.2306  0.2854
13777W        W56793   1.084  26.980  21.667  0.0756  0.1881 -0.0249
13778W        W56794  24.798  19.147   2.745  0.0867 -0.0891 -0.0050
13779W        W56795   9.015  23.753  14.535 -0.0783 -0.0182 -0.3116
13780W        W56796  33.875  15.680  23.133 -0.0706  0.2095 -0.0073
13781W        W56797  33.740   3.842   6.237 -0.0815 -0.0133 -0.2110
13782W        W56798   2.455  16.262  23.699 -0.2015 -0.2394 -0.0857
13783W        W56799  11.354   2.973   0.999  0.3885  0.0487  0.1087
13784W        W56800  20.947  19.655   1.230  0.1443  0.0696  0.1919
13785W        W56801  26.319  23.777   3.665  0.2197  0.0195  0.0877
13786W        W56802   9.835  26.059  20.033 -0.2449 -0.2060  0.0260
13787W        W56803   2.345  23.682   6.387 -0.1335 -0.0877 -0.0199
13788W        W56804  14.284  29.361  10.039 -0.1092 -0.0724 -0.0242
13789W        W56805  19.852  10.687  17.273 -0.3293 -0.1843  0.1183
13790W        W56806   5.520  19.173  15.630 -0.1843 -0.2479 -0.1956
13791W        W56807  34.602   7.203  21.384 -0.0181 -0.0354 -0.2611
13792W        W56808  29.615  13.056   1.103  0.1295  0.1834 -0.1623
13793W        W56809   5.037  13.169  23.589 -0.0559 -0.1985  0.3183
13794W        W56810   2.668  22.503   6.617  0.3014 -0.0087  0.0603
13795W        W56811   5.188   6.854  26.686  0.1667 -0.2338  0.0703
13796W        W56812  16.627  15.737  23.961 -0.2849 -0.0584 -0.0859
13797W        W56813  18.322  25.306   0.465  0.0590  0.0918  0.1975
13798W        W56814   3.396  18.894  28.873  0.0632  0.0724 -0.0091
13799W        W56815  25.500  31.489  22.342  0.0302 -0.0068 -0.1468
13800W        W56816  11.103  21.712  15.976 -0.1457 -0.3192 -0.3259
13801W        W56817   9.593  24.187   0.041  0.1306  0.0758  0.0350
13802W        W56818   9.768  25.030  16.537 -0.1088  0.3554 -0.2717
13803W        W56819  12.681   7.873  24.600 -0.0106  0.2617  0.1107
13804W        W56820  15.211  28.406  21.278 -0.0625  0.1165  0.0686
13805W        W56821   2.676  22.296  25.731  0.3351  0.2554  0.3682
13806W        W56822   5.185  14.429   1.094 -0.1701 -0.1246  0.5747
13807W        W56823  30.375  23.250   0.293  0.1321  0.0117  0.0591
13808W        W56824   5.135  21.814  14.594 -0.0472 -0.2927  0.2934
13809W        W56825   4.470  20.938  27.825  0.1668  0.0449 -0.1983
13810W        W56826   6.719  23.171  15.051  0.3501 -0.0572  0.0375
13811W        W56827   8.558  23.722  16.269  0.0924 -0.2401 -0.1845
13812W        W56828   8.086  11.662  13.512  0.1653  0.1034  0.1073
13813W        W56829  20.398  18.983   0.866  0.1715  0.1028 -0.1077
13814W        W56830   1.279  12.398   9.585  0.2139 -0.2045  0.0270
13815W        W56831  22.784   4.407   7.259 -0.2084  0.2811 -0.2863
13816W        W56832  27.122   3.577  23.441  0.1310 -0.5119  0.0677
13817W        W56833  33.656   0.278   2.181 -0.1506 -0.1788 -0.3750
13818W        W56834   9.463  26.333  25.338 -0.1519  0.2354  0.1276
13819W        W56835   9.462  18.217  13.897  0.2575  0.1032  0.1125
13820W        W56836   0.178   2.275  21.474  0.1161 -0.0066  0.1721
13821W        W56837  31.885  12.341   2.488  0.1805  0.0147  0.2187
13822W        W56838   2.427   4.514   4.297 -0.1346  0.1876  0.0515
13823W        W56839  32.268  21.173  20.552 -0.1254 -0.0786 -0.2384
13824W        W56840   8.265  21.910  19.780 -0.0111 -0.1680 -0.1959
13825W        W56841  15.834   7.111  18.379  0.0282 -0.0521  0.3421
13826W        W56842   2.201  28.050  24.219  0.1537 -0.1902 -0.2014
13827W        W56843   8.829  16.038   2.284 -0.2511  0.0750  0.1319
13828W        W56844  10.033   2.766  20.693 -0.3035  0.1123  0.1061
13829W        W56845  21.517  21.506  15.060  0.1484 -0.4323  0.0749
13830W        W56846   0.348  15.550  10.570 -0.0613 -0.0499  0.1921
13831W        W56847   0.507  19.736   1.494 -0.0216  0.0579  0.0455
13832W        W56848  29.484  20.125  24.511 -0.1524 -0.2241  0.5837
13833W        W56849  10.094  26.253   4.054  0.1403  0.3687 -0.1314
13834W        W56850  33.438  27.336  14.857 -0.1808  0.2009  0.2200
13835W        W56851   0.954  12.227  26.572 -0.4108  0.0701  0.2643
13836W        W56852   5.174   5.477  25.070 -0.0290 -0.0557 -0.4223
13837W        W56853  27.728  20.873  24.266 -0.4803 -0.1023 -0.1794
13838W        W56854  32.378   7.263   7.106 -0.1219 -0.0453  0.0513
13839W        W56855  13.073  33.887  26.968  0.1118  0.2144  0.2293
13840W        W56856  25.130  28.615   2.365 -0.1980 -0.0824 -0.3470
13841W        W56857  13.945   1.015  28.752  0.1317  0.0349 -0.2029
13842W        W56858   8.797   0.504  25.848  0.1478 -0.1017 -0.0914
13843W        W56859  25.701   6.308   2.426 -0.1760 -0.0386  0.3857
13844W        W56860  26.661  21.340  25.605  0.0660  0.1389  0.1527
13845W        W56861  10.385   7.750  16.445 -0.0533  0.0169 -0.0624
13846W        W56862  29.369  21.666  26.413  0.2448  0.1997  0.0029
13847W        W56863  24.473   1.126  27.906  0.1506 -0.0638 -0.0575
13848W        W56864  29.369  26.333  15.701  0.1219 -0.0229 -0.0032
13849W        W56865   4.844  32.505  16.241  0.2083 -0.0499  0.3554
13850W        W56866   3.607  15.142  17.454  0.3082  0.2565  0.2004
13851W        W56867  12.564   7.661  22.353 -0.1113 -0.1095 -0.1263
13852W        W56868  33.261  23.510   6.226 -0.2257 -0.3525 -0.0813
13853W        W56869  25.762  13.845   5.053 -0.2623  0.1480  0.0000
13854W        W56870   7.500   4.149   8.083 -0.1251  0.4375  0.5398
13855W        W56871  12.853  34.683  22.647 -0.1421 -0.1820  0.3061
13856W        W56872   4.943   9.795  28.878 -0.1702 -0.2612  0.0473
13857W        W56873  20.748  22.599   2.225 -0.2399  0.1935  0.1779
13858W        W56874  16.604  24.360  19.978  0.0017  0.3258 -0.3573
13859W        W56875  16.179  10.214  21.875  0.0889  0.0425 -0.0721
13860W        W56876  14.921   9.380  25.073 -0.0361 -0.2351  0.3338
13861W        W56877  10.150  21.135  18.005 -0.0610  0.1250  0.0211
13862W        W56878   2.846  23.016  26.301  0.0195  0.0457  0.4259
13863W        W56879   2.602   8.462  27.215 -0.2026  0.0642 -0.0311
13864W        W56880   6.461  14.440   8.448 -0.1524 -0.2314  0.2130
13865W        W56881   5.702  33.400   6.760  0.1805 -0.1284  0.0652
13866W        W56882  12.472  12.455   1.728  0.0393  0.0894 -0.0765
13867W        W56883   3.569  19.878   7.357 -0.5333 -0.1278 -0.1185
13868W        W56884   4.089  30.869   9.148  0.1922  0.1252  0.0493
13869W        W56885  22.169   0.336  20.920  0.3599 -0.1631 -0.3891
13870W        W56886  16.517  15.902  22.717  0.4944 -0.0313  0.1962
13871W        W56887   0.643  28.918   4.848 -0.0763  0.0152  0.0782
13872W        W56888   1.313  11.800  19.747 -0.0876  0.0661  0.5495
13873W        W56889  33.683  13.499  10.232 -0.1254 -0.1912  0.0051
13874W        W56890  24.055  26.235  22.440 -0.0482 -0.2379 -0.1802
13875W        W56891   7.664   3.119   5.187 -0.0410 -0.3665 -0.1770
13876W        W56892   4.813   6.025   5.681  0.0382  0.1949 -0.0875
13877W        W56893  21.877  17.303  12.520 -0.1442  0.1011 -0.1975
13878W        W56894  12.879  17.387  25.189 -0.1932  0.6327 -0.1476
13879W        W56895   0.677  22.736  10.676 -0.2553 -0.1196  0.3347
13880W        W56896  29.739  22.780  25.823 -0.2559 -0.2698  0.0028
13881W        W56897   6.563  32.938  20.052 -0.0844 -0.1409  0.2754
13882W        W56898   9.540  13.071  21.587  0.1397 -0.0518  0.0810
13883W        W56899  30.740  21.702  19.323 -0.0096  0.0592 -0.2669
13884W        W56900  33.248  34.346  10.645  0.3629 -0.0773 -0.1381
13885W        W56901   0.557  25.112   0.583  0.3401  0.4863 -0.1017
13886W        W56902  25.191   5.915  15.595 -0.2888 -0.0700 -0.1046
13887W        W56903   4.483  29.051  21.816  0.1613  0.0896 -0.1785
13888W        W56904  26.160  13.799   7.362  0.0379  0.2968 -0.2854
13889W        W56905  33.973   7.777  17.855 -0.0183 -0.1025 -0.1849
13890W        W56906  28.556  19.531   3.739  0.1177 -0.3084 -0.1546
13891W        W56907  27.835  20.230  24.571  0.0651  0.0657  0.0539
13892W        W56908  32.079  29.383  19.855  0.0296 -0.0863  0.0549
13893W        W56909  15.215  13.264   3.434  0.5217 -0.2855  0.3165
13894W        W56910   0.713  10.701   1.862  0.0353  0.0831 -0.0220
13895W        W56911  31.021  28.970  23.374  0.0374 -0.3071 -0.1250
13896W        W56912  20.903  16.940   3.020  0.2135  0.0100  0.2711
13897W        W56913   3.550   8.990  26.247 -0.0174 -0.1691 -0.0045
13898W        W56914  11.715  19.588  21.416  0.0463 -0.1421  0.1231
13899W        W56915   5.067  29.776  10.472 -0.0787  0.2602  0.2321
13900W        W56916  25.820  25.324   2.697 -0.3383  0.1943  0.2156
13901W        W56917  33.757  25.672   7.519  0.0490 -0.1075 -0.1684
13902W        W56918  28.763  27.044  22.589 -0.0279 -0.2014 -0.0358
13903W        W56919  26.927  16.569  16.948  0.2735 -0.0894 -0.0086
13904W        W56920  28.452   8.848  18.186 -0.0147  0.5701 -0.0748
13905W        W56921   3.723  22.770   8.286 -0.0304 -0.2853  0.0417
13906W        W56922  16.513  24.004  21.298  0.0343  0.1891 -0.4272
13907W        W56923  21.108  29.821   1.855  0.0546  0.4095  0.3177
13908W        W56924   0.152  32.095  15.226 -0.0748 -0.3914  0.1560
13909W        W56925   0.415   3.468   1.195 -0.1868  0.1568  0.2620
13910W        W56926   0.398  28.190  20.173 -0.1617 -0.0085 -0.0105
13911W        W56927  12.662  25.775  14.483 -0.2289  0.0733 -0.2731
13912W        W56928  33.764  26.685  25.408  0.3763 -0.0205  0.0530
13913W        W56929  24.450   9.300  23.566  0.1527  0.0924 -0.1523
13914W        W56930   7.913  14.212  20.871  0.1084  0.0438  0.2401
13915W        W56931  24.353  19.617  26.763  0.1726  0.1971  0.2446
13916W        W56932  27.611   1.222  27.091  0.0026 -0.0883 -0.0353
13917W        W56933  12.831  13.152  21.273  0.2177  0.1872 -0.0031
13918W        W56934  14.852  27.855  22.329  0.0071  0.0538  0.0574
13919W        W56935   1.236  34.538  24.122  0.1536  0.2465 -0.0525
13920W        W56936   5.855   2.584  22.761  0.2001  0.2544 -0.0713
13921W        W56937   1.729  34.330  15.792  0.0984 -0.4123 -0.2395
13922W        W56938   6.403  34.372  21.803 -0.1419 -0.0310  0.1333
13923W        W56939  15.718  21.877  20.416 -0.1921 -0.0709  0.2039
13924W        W56940   6.139  13.311  16.369 -0.1749 -0.0844 -0.4752
13925W        W56941  12.402  28.300  23.261  0.0610 -0.2249  0.2901
13926W        W56942  22.640   8.833  18.925 -0.1388 -0.1655  0.3780
13927W        W56943  19.433  28.777  16.498 -0.1190 -0.3205  0.1822
13928W        W56944   8.479  33.873  10.261  0.2457 -0.1011  0.2784
13929W        W56945  34.686  23.027  23.933 -0.1140 -0.1103 -0.0504
13930W        W56946  28.796  11.379  21.923 -0.1126 -0.0444  0.0400
13931W        W56947  28.929  19.942  17.198  0.4475 -0.2757  0.1176
13932W        W56948  28.844  24.515  18.619  0.0184 -0.1588  0.2253
13933W        W56949  34.000   8.524  16.284 -0.3045 -0.1048  0.1007
13934W        W56950  20.579  34.115  22.336  0.1314  0.1306  0.0802
13935W        W56951  19.575  20.233  20.381 -0.1424  0.0626  0.3325
13936W        W56952  11.573  18.524  14.480  0.1792 -0.3628  0.0018
13937W        W56953  28.274  33.666  21.884 -0.2393 -0.1956 -0.0054
13938W        W56954  30.149  25.673  15.661 -0.2112  0.0353  0.0562
13939W        W56955  30.669   6.277  21.267 -0.0203  0.0249  0.1242
13940W        W56956   7.797  22.369  14.669  0.3674 -0.3920  0.0273
13941W        W56957   4.251  23.305   1.604  0.1988  0.0086 -0.3054
13942W        W56958   5.148  16.795  25.577 -0.2652  0.2997  0.1726
13943W        W56959  31.386   0.807  26.824 -0.5847 -0.1326  0.2029
13944W        W56960   6.840  26.973  17.012  0.1008  0.1103  0.4055
13945W        W56961   9.874  34.677  16.951 -0.0539 -0.4812 -0.2020
13946W        W56962   7.346  28.843  21.856 -0.1550 -0.3184 -0.2114
13947W        W56963  28.095  28.985  26.488 -0.2238  0.0252 -0.1291
13948W        W56964  28.670  15.738  22.079 -0.2220  0.2152 -0.5184
13949W        W56965   3.765  17.091  14.167 -0.0448 -0.2216 -0.1171
13950W        W56966  27.762  24.168  20.659 -0.0366  0.1225  0.1877
13951W        W56967  10.394  33.151  26.077  0.1352  0.2657 -0.2085
13952W        W56968   0.417  24.236  16.068  0.0142  0.0460 -0.1153
13953W        W56969  34.299  31.128  18.842 -0.3121  0.0320 -0.2989
13954W        W56970  25.561  16.004  19.257  0.0576 -0.4136  0.1980
13955W        W56971   5.652  10.593  24.677  0.1660 -0.1732  0.3160
13956W        W56972  30.987  27.681  17.273 -0.0826  0.5594  0.1074
13957W        W56973  29.649   3.246  21.181 -0.0619 -0.1463 -0.2744
13958W        W56974   8.783   2.439  26.513  0.0179  0.1843  0.1504
13959W        W56975  23.236  14.517  25.072 -0.0151 -0.3311  0.0878
13960W        W56976  24.447  24.331  20.087 -0.1408 -0.0378  0.3298
13961W        W56977  16.954  20.626  20.849  0.0347  0.3938 -0.2227
13962W        W56978  27.314  27.885  24.670  0.0444  0.1742 -0.2156
13963W        W56979  12.692  27.991  17.989  0.0937  0.4670  0.2512
13964W        W56980   4.962  15.844  18.709  0.1716  0.0782  0.0787
13965W        W56981   0.799  18.038  14.495  0.1308  0.2081  0.0144
13966W        W56982  23.475  32.370  23.730 -0.1099 -0.0774 -0.0488
13967W        W56983  28.900  18.270  19.349  0.3032 -0.2908 -0.1678
13968W        W56984   0.649  20.464   5.176  0.4389  0.0283 -0.1994
13969W        W56985  33.104  34.486  19.678 -0.0028 -0.2497 -0.0314
13970W        W56986  12.170  25.920  24.285 -0.0459  0.1402  0.0427
13971W        W56987   8.355  25.631   4.050  0.0003 -0.3449  0.0343
13972W        W56988  22.597  24.243  17.914 -0.1659 -0.2569  0.1359
13973W        W56989  32.910  31.437  20.309  0.3501 -0.2927  0.4833
13974W        W56990   5.669  30.123   1.523  0.0586 -0.0675  0.3062
13975W        W56991  23.797  34.316   2.040  0.1760 -0.1394 -0.3659
13976W        W56992  15.577  24.150  18.818 -0.0667 -0.0923 -0.0867
13977W        W56993   2.964  32.719  15.901  0.2961 -0.0620 -0.1817
13978W        W56994  15.879  29.131  15.691 -0.0698 -0.2397  0.3564
13979W        W56995   6.551  17.668  23.527  0.0553  0.4705 -0.0579
13980W        W56996   9.076  25.110  25.025  0.1722  0.0216  0.0257
13981W        W56997   5.432  12.845  18.982  0.0413 -0.3164  0.0353
13982W        W56998  24.738  30.785  21.374 -0.2903  0.1672  0.0450
13983W        W56999  30.088  15.465  28.450  0.3670 -0.1492  0.0529
13984W        W57000  12.834  20.499  12.174 -0.1046  0.0140  0.0629
13985W        W57001  25.545  21.338  20.569  0.0686 -0.0521  0.1055
13986W        W57002   9.904  16.418  13.421  0.1465  0.2539 -0.0280
13987W        W57003  11.327  22.561  23.278 -0.0670  0.0675  0.1296
13988W        W57004  24.278  28.868  20.242 -0.2623 -0.3693 -0.1188
13989W        W57005   8.630   0.998  15.608 -0.0469 -0.4158  0.2540
13990W        W57006  21.903  31.980  20.628  0.2508  0.0053  0.0377
13991W        W57007   8.157   8.314  17.306  0.0912  0.1292  0.1599
13992W        W57008  24.353   3.700  21.936  0.2387  0.1800 -0.3722
13993W        W57009  15.131  27.121  27.060  0.0160  0.6841  0.1391
13994W        W57010  32.971   5.492  20.436  0.2737  0.0343  0.1373
13995W        W57011   3.018  31.908  20.750  0.0091  0.1058 -0.1238
13996W        W57012   0.469  24.299  25.538  0.0931  0.1711  0.0704
13997W        W57013  18.132   0.020  15.684 -0.1640 -0.3033  0.2640
13998W        W57014  27.869  32.692   9.983  0.2927 -0.1637  0.0479
13999W        W57015   8.169  15.746  17.067  0.3272  0.0986 -0.1783
14000W        W57016   1.433  30.986  18.973  0.1663  0.0551  0.2711
14001W        W57017  13.637  14.157  25.560  0.0114  0.3059  0.1547
14002W        W57018   5.893  30.325   0.857 -0.2196 -0.0629  0.3799
14003W        W57019   8.687  29.645  24.036  0.4408 -0.1703  0.0758
14004W        W57020   5.439   5.564  28.304  0.1335 -0.0540  0.3413
14005W        W57021  20.608  23.572  18.686 -0.0461 -0.1465  0.3329
14006W        W57022  21.112  20.858  19.603 -0.2737 -0.2466 -0.0588
14007W        W57023   0.574  17.457  21.485  0.0266 -0.2887 -0.0905
14008W        W57024  26.526  25.824  23.315 -0.0265  0.1848  0.1579
14009W        W57025   1.198  29.811  25.889 -0.0850  0.1435  0.0306
14010W        W57026  10.885   0.968  27.721  0.1507  0.1569  0.1760
14011W        W57027   8.207   7.832  19.507 -0.3191 -0.1084 -0.1652
14012W        W57028  29.094  25.118  21.132 -0.0151  0.0171 -0.0056
14013W        W57029   7.326  21.704  26.075  0.1219  0.0760 -0.1354
14014W        W57030  34.196  17.851  17.549  0.0463 -0.0027  0.2750
14015W        W57031  30.684  20.563  15.535  0.1876 -0.1164  0.1321
14016W        W57032   4.371  21.070  16.976 -0.1345 -0.3735 -0.1497
14017W        W57033  24.396  21.820  24.905  0.2338 -0.0907 -0.0361
14018W        W57034   2.411  25.403  18.918  0.1890 -0.3112  0.1869
14019W        W57035   7.929  13.607  22.041 -0.0600  0.0795  0.0064
14020W        W57036  15.373  27.711  23.820  0.0139  0.1565 -0.2053
14021W        W57037  27.587  17.172  18.556  0.1751 -0.0292  0.2778
14022W        W57038  24.512  31.581  16.356 -0.1070  0.4438  0.0993
14023W        W57039   1.772  11.066  26.359  0.3032 -0.0307  0.0528
14024W        W57040   4.986  25.738   6.513 -0.0879  0.3092 -0.0098
14025W        W57041   4.118  15.017  17.992 -0.0100 -0.1857 -0.0945
14026W        W57042   8.535  32.808  17.846 -0.2155 -0.5833 -0.2967
14027W        W57043  33.724  27.070  21.264  0.3582 -0.1983 -0.1857
14028W        W57044   7.206  22.966  17.602  0.1248  0.1416 -0.0427
14029W        W57045  16.584  27.123  28.696  0.1946  0.1667 -0.3938
14030W        W57046  20.614  32.996  23.225 -0.0725  0.0008 -0.1169
14031W        W57047  30.020   2.381  18.159  0.0772  0.1383 -0.0037
14032W        W57048  10.121  19.829  18.711 -0.1882  0.0822 -0.2175
14033W        W57049  32.020   1.632   7.247 -0.0732 -0.0969 -0.0251
14034W        W57050  14.861  24.016  25.964  0.1951 -0.2385 -0.0617
14035W        W57051  23.703  12.581  24.460 -0.2733  0.1139  0.0536
14036W        W57052   1.958  22.725  21.095 -0.0711 -0.1384  0.3729
14037W        W57053   8.915  23.478  17.471 -0.1423 -0.0211  0.1421
14038W        W57054   5.884  33.249  18.817  0.1016 -0.0546  0.2503
14039W        W57055  26.679  15.885  17.997  0.4042  0.0312 -0.1748
14040W        W57056  24.359  32.339  20.236 -0.0302 -0.0709 -0.0761
14041W        W57057  29.279  19.828   1.248 -0.1282  0.1197 -0.0265
14042W        W57058  27.576  21.191  17.861  0.0117  0.1700  0.3001
14043W        W57059  14.341  22.819  15.621 -0.0626 -0.1158  0.1338
14044W        W57060  26.967  19.332  14.343 -0.1315 -0.0941 -0.0091
14045W        W57061  34.088  14.035  21.236  0.1508  0.1433  0.0487
14046W        W57062  33.419  22.081   7.451 -0.2856  0.1999  0.0843
14047W        W57063  31.301  34.354  19.140 -0.0035 -0.1002 -0.0246
14048W        W57064   5.942  11.074  18.495  0.4959  0.2734  0.1325
14049W        W57065  18.830  27.842  20.383  0.1925  0.0852  0.0878
14050W        W57066   8.533  16.337  22.012  0.1256 -0.1506 -0.2391
14051W        W57067   0.791  29.119  16.103 -0.1728  0.3170  0.1853
14052W        W57068  22.887  28.800  19.395  0.0311 -0.0166 -0.0064
14053W        W57069  11.336  25.494  26.091 -0.0460  0.0012  0.2213
14054W        W57070   8.975  28.858  20.838 -0.1456  0.2789  0.0831
14055W        W57071   5.349  14.009  23.106  0.1717  0.0623  0.0849
14056W        W57072   0.592  26.591  17.154  0.0782  0.0163  0.0675
14057W        W57073  11.880   4.767  21.654 -0.0313  0.0541 -0.1613
14058W        W57074  34.605  24.526  10.266  0.1796  0.2100 -0.0034
14059W        W57075  24.717  29.551  22.552  0.4074 -0.3297 -0.1373
14060W        W57076   4.158  32.930  27.993 -0.0180  0.0826 -0.0759
14061W        W57077   1.255   0.051  19.056 -0.0562 -0.1975 -0.0905
14062W        W57078  29.403  24.717  21.872 -0.0690  0.3345  0.0638
14063W        W57079  16.670  21.894  15.440 -0.0302  0.0339 -0.4033
14064W        W57080  10.002  17.416  20.265  0.0622  0.0086  0.1344
14065W        W57081  12.772  24.752  23.517 -0.2857  0.3575 -0.0188
14066W        W57082  28.596  26.459  17.037  0.2994 -0.0048  0.2089
14067W        W57083  26.287  31.060  19.771  0.1316 -0.1886 -0.0266
14068W        W57084   5.003  29.287  14.159  0.1600 -0.1471  0.3558
14069W        W57085   0.172  25.185  14.848  0.1679  0.0207  0.1279
14070W        W57086   4.141  33.610  14.617  0.0247  0.1730  0.2020
14071W        W57087  29.173  30.790  26.048 -0.0047  0.0833 -0.1153
14072W        W57088   7.335  14.087  22.962  0.0487 -0.2399  0.1002
14073W        W57089   1.508  30.675  25.988 -0.4219  0.2266  0.1119
14074W        W57090   1.038  11.435  25.416  0.0093 -0.3107  0.0446
14075W        W57091  30.890  21.780  23.290 -0.0650 -0.2538  0.1465
14076W        W57092   0.453  25.211  14.147  0.4157 -0.0194  0.2165
14077W        W57093  31.335  28.406  20.456 -0.0054 -0.0684 -0.2367
14078W        W57094  23.648  28.284  17.603 -0.2114 -0.1555 -0.0968
14079W        W57095  26.751  14.704  26.537 -0.4157 -0.1738 -0.3783
14080W        W57096   3.878  20.102  17.982  0.0320 -0.0958 -0.1778
14081W        W57097  32.274  14.133  15.886 -0.1333  0.0447 -0.0154
14082W        W57098  13.949  27.461  22.814  0.5100  0.1200 -0.1604
14083W        W57099   3.564  23.628  20.825 -0.2892 -0.2537  0.1070
14084W        W57100  21.186   2.658   9.364 -0.4064  0.0786 -0.1118
14085W        W57101   2.653  23.722  18.141 -0.1872 -0.3370 -0.0000
14086W        W57102   8.582   9.502  17.999 -0.0306  0.0902  0.2821
14087W        W57103  24.088  19.564  25.320 -0.0606 -0.2604  0.2122
14088W        W57104  20.348  29.678  28.576  0.2594 -0.1059 -0.1054
14089W        W57105   1.089  33.548  21.113 -0.2271 -0.2740  0.0428
14090W        W57106   1.192  31.455  14.773 -0.3551 -0.1935 -0.1309
14091W        W57107   8.276  16.013  20.653  0.0928 -0.1187  0.0972
14092W        W57108  17.826  31.486  22.550 -0.0002  0.0911 -0.0274
14093W        W57109   2.613  19.113   6.466  0.1711  0.2643 -0.1071
14094W        W57110   2.806  27.552   2.967 -0.2981  0.1472  0.2783
14095W        W57111   1.428  26.550  15.769  0.0346  0.3250 -0.2585
14096W        W57112  24.828   2.017   8.969  0.3049  0.1074 -0.1742
14097W        W57113  26.224  26.644  22.606 -0.0226  0.0115  0.0078
14098W        W57114   7.770  24.005  18.932 -0.1588  0.2846 -0.2210
14099W        W57115  12.957  27.355  19.044 -0.0347  0.4102  0.3112
14100W        W57116   7.017  28.199  24.495  0.3504 -0.2714  0.0917
14101W        W57117   2.624  18.044   0.539  0.1010  0.0594  0.2688
14102W        W57118  28.457  25.283  17.165  0.0295  0.2251 -0.0790
14103W        W57119  34.251  32.706   1.383  0.0813 -0.0462 -0.1140
14104W        W57120  26.543  26.266  22.757  0.0916  0.1332  0.2369
14105W        W57121  34.097  30.600  16.192  0.2442  0.0236  0.1952
14106W        W57122  30.925  22.624  15.215  0.1477  0.2808 -0.0101
14107W        W57123  25.653  21.759  20.284  0.4176 -0.1733  0.0579
14108W        W57124  21.132  23.988  26.517 -0.1414 -0.1439 -0.2682
14109W        W57125  13.273  26.887  23.478 -0.2953 -0.0709 -0.2157
14110W        W57126   6.241  25.402  13.965  0.4977 -0.0194 -0.0306
14111W        W57127  16.583  19.172  13.727 -0.1173 -0.3462  0.0911
14112W        W57128  26.832   2.348  15.087  0.0367 -0.1693 -0.3840
14113W        W57129   0.336  19.412  21.579  0.4615  0.0766 -0.0050
14114W        W57130  12.596   0.483  19.878 -0.0651 -0.4766 -0.1176
14115W        W57131   8.302  22.122  14.571 -0.0235  0.2624  0.1557
14116W        W57132  10.105  32.056  16.905  0.1184 -0.1387 -0.0319
14117W        W57133  19.835  30.583  15.143 -0.0028  0.3912 -0.0951
14118W        W57134   3.657  28.871  25.525  0.0248 -0.0935 -0.1620
14119W        W57135   1.179  27.838  16.190 -0.2510  0.4042 -0.4473
14120W        W57136  31.009  34.076   4.719 -0.0257 -0.0732  0.2088
14121W        W57137  18.216  17.330  28.086 -0.1761  0.0980  0.1053
14122W        W57138  28.915   6.216  18.076  0.0735 -0.0274  0.0274
14123W        W57139  19.551  29.896  23.573 -0.2967 -0.0235 -0.0045
14124W        W57140  29.513  26.963  17.814 -0.1324  0.1604 -0.1299
14125W        W57141  16.923  19.992  13.870  0.0212  0.2797 -0.0788
14126W        W57142  29.165  17.472   1.258  0.0719  0.3672 -0.1048
14127W        W57143   8.452   2.687  21.768  0.2371  0.1680  0.5561
14128W        W57144  30.244   2.302  22.044 -0.0432  0.1383  0.0080
14129W        W57145  12.550  22.170  18.009  0.0105  0.0237  0.0327
14130W        W57146   0.191   3.686  14.616  0.2118 -0.0662  0.0874
14131W        W57147  31.361  29.884  28.504 -0.1357  0.0094 -0.1527
14132W        W57148   8.170  30.701   5.578  0.3770  0.1694 -0.2265
14133W        W57149  14.251   6.891  20.311 -0.0071 -0.0609 -0.0293
14134W        W57150  14.387  33.227  24.478  0.1181  0.1062 -0.0756
14135W        W57151  30.848   0.125  19.816 -0.1264 -0.1262  0.1903
14136W        W57152   1.545  14.060  22.500  0.2324  0.0868  0.1100
14137W        W57153   3.059  12.105  16.389 -0.2015  0.0829 -0.0307
14138W        W57154  27.133  31.886  19.126  0.2067  0.1962 -0.2518
14139W        W57155  30.308  24.141  28.814 -0.3113 -0.0777  0.1849
14140W        W57156  29.437  10.032  27.050 -0.0140  0.2595  0.0225
14141W        W57157  18.949  21.064  15.839 -0.3855  0.1691  0.1308
14142W        W57158   6.107  28.405  17.407  0.3083  0.3005 -0.1310
14143W        W57159  32.346  11.875  20.014  0.0978 -0.0394 -0.0789
14144W        W57160  32.797   0.645  25.654  0.0048 -0.1019 -0.1092
14145W        W57161  26.249  30.749   5.395  0.3459 -0.0190 -0.0231
14146W        W57162   3.289  32.816  17.656 -0.1577  0.2689  0.4771
14147W        W57163  29.947   7.596  22.395 -0.3106 -0.0974 -0.0165
14148W        W57164  32.358  23.642  18.925 -0.1414 -0.3367 -0.0259
14149W        W57165  32.607  30.469  17.357 -0.0807  0.0598 -0.4003
14150W        W57166  29.721  27.256   0.775  0.2923 -0.1284  0.0521
14151W        W57167   4.467  26.829  20.703  0.2975  0.0091 -0.1577
14152W        W57168  30.416  17.249  19.610 -0.0477 -0.1066  0.3032
14153W        W57169  22.723  28.164  18.261  0.1758  0.1715 -0.1555
14154W        W57170  29.195  33.418  27.248  0.0771  0.2294 -0.2176
14155W        W57171   2.097  18.823  22.753  0.0980  0.0409  0.0898
14156W        W57172   7.869  28.243  21.963  0.4067  0.2801 -0.3238
14157W        W57173  33.366   9.126  15.897  0.0449  0.2158 -0.1171
14158W        W57174  27.749  34.075  25.868  0.0345 -0.1645  0.1897
14159W        W57175  26.610  22.641  20.194  0.0900  0.0461 -0.2301
14160W        W57176   2.086  33.525  16.518  0.4343 -0.0827  0.2792
14161W        W57177  32.249  31.591   7.846 -0.1241  0.0724 -0.0352
14162W        W57178  14.651   1.241  16.419 -0.2866  0.0981  0.1400
14163W        W57179  30.255  19.521  17.210 -0.2885  0.2629  0.1750
14164W        W57180  21.397  30.665  21.235  0.0181  0.0746 -0.0522
14165W        W57181  11.218  27.365  25.599 -0.0670 -0.1379 -0.1902
14166W        W57182   3.086  27.470  19.447  0.6501 -0.3765  0.0314
14167W        W57183  12.837  22.878  22.530 -0.1423 -0.1321  0.1010
14168W        W57184  14.286   9.272   3.803 -0.1303  0.0225  0.3608
14169W        W57185   2.734  17.599  18.334  0.1587  0.2130 -0.1059
14170W        W57186   8.056  29.807  17.663 -0.1989 -0.2560  0.0722
14171W        W57187  34.346  34.594  19.672  0.3173 -0.0089  0.0084
14172W        W57188   5.326  23.105  21.111 -0.1103  0.3417  0.0260
14173W        W57189  25.016  28.721  18.269 -0.0106 -0.1859 -0.2893
14174W        W57190   8.982  15.167  14.452  0.0005  0.2245  0.1102
14175W        W57191  30.287   2.093  17.796  0.0845  0.1404 -0.0945
14176W        W57192   7.243  21.582  25.093 -0.1863  0.2916  0.1284
14177W        W57193   2.092  16.695  18.436 -0.1502  0.1963 -0.0453
14178W        W57194   0.593   2.675  20.119  0.3391  0.1720  0.2208
14179W        W57195   4.814   1.395  19.189  0.1391 -0.1480  0.0045
14180W        W57196  33.952  28.644  21.485  0.1640  0.0162  0.0347
14181W        W57197   5.553  11.281  19.304  0.1218 -0.1825 -0.0716
14182W        W57198  10.668  11.983  23.931  0.1523  0.1942 -0.0584
14183W        W57199   6.077   8.098  17.219  0.1767 -0.0292 -0.1274
14184W        W57200   7.021  23.067  24.297 -0.0977  0.1784  0.1190
14185W        W57201   3.416  16.245  13.754 -0.0821 -0.0021 -0.0611
14186W        W57202   2.724  29.527   7.761  0.0885  0.0473  0.3647
14187W        W57203   7.878  19.390  19.661 -0.1040  0.3572  0.3876
14188W        W57204  13.612  14.072  11.924  0.0236 -0.0286 -0.0407
14189W        W57205  10.525  16.350   8.879  0.0526 -0.0331 -0.1433
14190W        W57206   2.156  19.800  19.993  0.3496  0.0922 -0.1406
14191W        W57207  24.728  20.678  14.268 -0.4134 -0.0798 -0.1879
14192W        W57208   9.841  27.175   5.318  0.0891 -0.0216 -0.3799
14193W        W57209   9.281  30.812  14.335  0.0827 -0.1534  0.1547
14194W        W57210   5.670   9.367  15.759  0.1992  0.2353 -0.0719
14195W        W57211   8.317  23.949  21.538  0.0926  0.0036  0.0184
14196W        W57212  14.315  24.063  25.765  0.0121 -0.1291 -0.2330
14197W        W57213   2.902  13.638  25.153  0.0084 -0.0626 -0.2158
14198W        W57214   4.135  22.978  15.654 -0.4319 -0.0372 -0.1836
14199W        W57215  32.184  30.158   0.262 -0.1051  0.1330  0.0320
14200W        W57216   6.432   7.227  25.131 -0.1693  0.0377 -0.1753
14201W        W57217   6.468  14.250  21.958  0.1065  0.4856 -0.1536
14202W        W57218  30.284  12.983  18.810  0.0054 -0.0798 -0.0368
14203W        W57219  10.510  30.718  20.917  0.0226 -0.4667  0.2332
14204W        W57220   1.723  24.649  17.361  0.0649 -0.1022 -0.1076
14205W        W57221   8.455  18.726  18.684 -0.2919 -0.2444 -0.0614
14206W        W57222   2.160  24.311  22.906 -0.0530 -0.1421  0.0873
14207W        W57223  10.803  20.482  15.891 -0.0079 -0.0094 -0.1578
14208W        W57224  14.614  26.204  24.929  0.0012 -0.1354  0.1463
14209W        W57225  14.142  23.959  12.317  0.1141 -0.1437  0.0975
14210W        W57226  21.920  18.941  27.075 -0.0765  0.1182 -0.3449
14211W        W57227  30.796  17.042  24.110  0.5174  0.0923  0.0019
14212W        W57228   8.545  28.806  24.215  0.1663 -0.1243  0.1229
14213W        W57229  27.815   4.148  24.546  0.0746 -0.0413 -0.0727
14214W        W57230   8.558  22.858  23.161  0.2396  0.2645  0.3178
14215W        W57231   9.307  33.230  19.093  0.4220 -0.0081 -0.0774
14216W        W57232  22.952  11.032  17.932 -0.0793 -0.0897 -0.0219
14217W        W57233  23.918  16.724  29.075 -0.1665 -0.1202  0.0947
14218W        W57234  15.275  32.231  16.183 -0.0304 -0.1652 -0.0078
14219W        W57235  14.390  17.062  23.276 -0.0626  0.1393  0.1226
14220W        W57236   5.617  24.982   5.274 -0.0169 -0.2077 -0.1446
14221W        W57237   9.241  27.218  28.839 -0.2878 -0.0592 -0.0551
14222W        W57238  13.288  33.719  21.102 -0.0585  0.0561  0.1874
14223W        W57239   1.523  18.044  18.766 -0.0518 -0.0363  0.1408
14224W        W57240   7.032  21.235  20.948 -0.1433 -0.0060  0.0382
14225W        W57241  26.683   0.097  15.878 -0.0803 -0.2163 -0.3549
14226W        W57242  32.053  25.017  19.055  0.2260  0.2179  0.4098
14227W        W57243   7.883  18.199  13.538 -0.0325 -0.0979  0.1455
14228W        W57244   7.276   2.458  19.556 -0.0124 -0.0313 -0.1368
14229W        W57245   5.377  23.672  21.710  0.2082 -0.0150 -0.0155
14230W        W57246  32.757   5.724   0.817 -0.0726  0.1883 -0.1268
14231W        W57247   6.869  21.767  19.726 -0.2105  0.0487  0.0623
14232W        W57248  29.142  17.207  16.749  0.2528 -0.2777 -0.0844
14233W        W57249  25.970  15.053   0.890 -0.2647 -0.2169  0.0852
14234W        W57250   4.693  30.020  21.492  0.2270 -0.0832  0.0968
14235W        W57251  34.632  16.072  22.028 -0.3380  0.0673  0.0000
14236W        W57252  21.410  34.597  19.492  0.0199  0.2736 -0.1364
14237W        W57253   7.034  26.642  24.214  0.0075 -0.0656  0.4921
14238W        W57254   4.787  28.544  13.635 -0.0728  0.0344  0.0144
14239W        W57255  13.234  19.638  22.662  0.0941  0.2039 -0.1464
14240W        W57256   6.237  15.676  24.403 -0.1781 -0.2379  0.1840
14241W        W57257  15.228  25.501  22.647 -0.1604 -0.0252  0.3047
14242W        W57258  30.073  34.299   2.301 -0.3247  0.0404 -0.0067
14243W        W57259  20.216  30.107  27.070 -0.0952  0.0803 -0.1320
14244W        W57260  30.165  30.985  19.798 -0.2606  0.1696 -0.2406
14245W        W57261   1.620  24.805  13.841  0.0650 -0.1490 -0.0207
14246W        W57262   9.401  30.177   2.341  0.1736 -0.3361 -0.2410
14247W        W57263   9.936  16.277  24.729 -0.1759  0.1575 -0.2474
14248W        W57264   4.477  24.777  29.267  0.2815 -0.2124  0.1896
14249W        W57265   4.743   2.507  17.865  0.0110  0.2341 -0.1634
14250W        W57266  31.623  31.995  15.985 -0.0734 -0.1336  0.3192
14251W        W57267   4.856  33.685  26.663  0.0072 -0.0893  0.1744
14252W        W57268  16.157  25.635  20.515 -0.0424  0.1197  0.0580
14253W        W57269  33.607  26.306  18.289  0.0101 -0.1422  0.0765
14254W        W57270   1.938  30.699  19.588  0.0536  0.2245  0.0118
14255W        W57271  30.132  25.318  10.018  0.1443  0.0915 -0.2302
14256W        W57272   3.160  21.984   2.134 -0.1159 -0.0407  0.1707
14257W        W57273  14.118  23.530  22.080 -0.1876 -0.0060  0.0318
14258W        W57274   9.379  25.167  18.452  0.0637  0.1635 -0.1615
14259W        W57275   0.360  14.032  22.734 -0.0390  0.0228  0.0298
14260W        W57276  26.464  24.809  17.690 -0.0877  0.1362  0.0552
14261W        W57277  14.491   0.792  19.971 -0.1887 -0.2112 -0.4613
14262W        W57278   3.422  14.296  27.953 -0.4706 -0.2418  0.0555
14263W        W57279  27.022   5.336  17.506 -0.0663 -0.0724 -0.1517
14264W        W57280  28.671  20.871  16.279  0.0388 -0.2933  0.1462
14265W        W57281  34.172  30.849  22.947 -0.0981  0.1918  0.1541
14266W        W57282   6.325  15.010  25.502 -0.3611 -0.2549  0.0384
14267W        W57283  22.025  10.257  13.747  0.3644 -0.3667  0.1979
14268W        W57284  32.853  21.002  28.459  0.0809  0.1371  0.0749
14269W        W57285  31.890  19.228   4.843  0.2294 -0.1009 -0.1892
14270W        W57286  13.780  24.268  13.423 -0.0471 -0.2156 -0.0546
14271W        W57287  32.114  26.241  18.159 -0.0503  0.0527  0.0185
14272W        W57288   5.115  17.236  13.474  0.0075 -0.0817  0.5308
14273W        W57289  13.436  28.870   4.946  0.0135  0.0095 -0.1659
14274W        W57290   5.024   4.412  21.461 -0.0668 -0.0408  0.1633
14275W        W57291  29.341  34.080  24.368  0.0730  0.0472 -0.0295
14276W        W57292  13.816  25.591  24.604 -0.2604 -0.0272 -0.3179
14277W        W57293  21.629  34.627  26.132  0.2135 -0.4159  0.1659
14278W        W57294  12.990  25.368  16.198  0.1866 -0.1639  0.1616
14279W        W57295  29.238  24.481  18.052  0.1818  0.0596  0.2520
14280W        W57296   3.418  21.892  17.736 -0.3143 -0.0077 -0.0610
14281W        W57297   7.432   7.421  19.356 -0.0745  0.1120  0.1229
14282W        W57298  28.236  23.503   9.232 -0.2658 -0.1123 -0.1431
14283W        W57299   2.644  15.662  20.230 -0.0787  0.1348  0.0167
14284W        W57300  13.431  18.156  12.826  0.0444  0.0605  0.1288
14285W        W57301   1.889  19.320  23.656  0.0565 -0.1761  0.0027
14286W        W57302   9.539   0.526  19.254  0.0693  0.4602  0.2377
14287W        W57303   3.440   2.106  19.661 -0.1707  0.0139 -0.3494
14288W        W57304   1.814  25.818  24.889  0.0483  0.2619  0.2468
14289W        W57305   7.495   4.831  14.529 -0.0895  0.0964 -0.0207
14290W        W57306  29.164  15.657  19.543 -0.0733  0.0473 -0.2245
14291W        W57307  10.908  19.979  24.961 -0.0627  0.2341 -0.1028
14292W        W57308  15.449  16.447   3.353  0.0817 -0.2473 -0.1770
14293W        W57309  20.586   0.520  19.467 -0.1060  0.2274 -0.0297
14294W        W57310  17.779   1.255  23.096 -0.1949  0.0276 -0.4089
14295W        W57311   0.277   8.835  18.782 -0.3221 -0.0677  0.5274
14296W        W57312   3.517  18.251  22.404  0.2591 -0.4031 -0.2844
14297W        W57313   1.209  25.844  19.193  0.0608 -0.2216 -0.1196
14298W        W57314  34.113  29.317  19.754 -0.0706 -0.0633  0.1339
14299W        W57315   5.145  28.157  15.353 -0.2474 -0.3797 -0.1464
14300W        W57316   2.541  31.321  24.307  0.0636  0.0067  0.1607
14301W        W57317   1.381   2.972  16.826  0.2601 -0.0550 -0.0566
14302W        W57318  23.073   5.006  24.041 -0.3017 -0.1352  0.0275
14303W        W57319   1.186  12.268  16.107  0.2273 -0.2251 -0.1220
14304W        W57320  20.684  32.873  20.563 -0.0584  0.0252  0.1216
14305W        W57321   0.424  18.416  19.448  0.2108 -0.4185 -0.0634
14306W        W57322  33.232  16.912  16.764  0.1834 -0.0619  0.0811
14307W        W57323  12.153   7.905  13.721 -0.5367 -0.1804  0.1551
14308W        W57324  27.683  18.923  15.811  0.0005 -0.2640 -0.2426
14309W        W57325  25.969  17.415  14.528 -0.1958  0.2995  0.0772
14310W        W57326  32.506   1.563  25.404 -0.3158 -0.0619 -0.0110
14311W        W57327  10.095  20.057   0.574  0.0422 -0.2271  0.0787
14312W        W57328   8.672  21.425  13.568 -0.1373  0.0966 -0.1592
14313W        W57329  15.062   8.327  16.966 -0.0466  0.2604  0.0154
14314W        W57330   0.616  17.141  14.565 -0.0409 -0.1520  0.1534
14315W        W57331  11.807  34.001  19.696 -0.1034 -0.1732 -0.2961
14316W        W57332   5.040  27.710  29.040 -0.2335  0.4161  0.1791
14317W        W57333   1.117  28.342  17.837 -0.5476 -0.1374 -0.1114
14318W        W57334   9.612  27.248  16.232 -0.2620  0.1794  0.2360
14319W        W57335  20.732  10.874  21.258  0.1324  0.1038  0.1712
14320W        W57336  14.030  34.263  17.441 -0.0649 -0.0572 -0.1741
14321W        W57337  30.839  23.423  22.522 -0.1463 -0.0546 -0.0256
14322W        W57338  11.524  31.352  20.097  0.2036  0.0829 -0.0025
14323W        W57339   1.982   0.372  22.147 -0.0972  0.0142 -0.2118
14324W        W57340   5.247  24.709  22.583  0.0043  0.3062 -0.2497
14325W        W57341   7.069  34.027  23.154 -0.1645 -0.1122 -0.0895
14326W        W57342   1.226  22.539  21.168 -0.2196  0.2447  0.1292
14327W        W57343  33.826  20.188  16.184  0.3267  0.2820  0.1097
14328W        W57344   2.427  22.872  14.988  0.2622  0.0707 -0.2033
14329W        W57345   2.086  27.588  29.284  0.1248  0.1120  0.0861
14330W        W57346   9.733  32.077  15.811 -0.2837 -0.5964 -0.1437
14331W        W57347   9.415  27.664  24.970 -0.0342 -0.1201  0.0537
14332W        W57348   0.885  25.374  19.857  0.2649  0.1592  0.1026
14333W        W57349  32.504  26.929  20.264  0.0715  0.0343  0.1518
14334W        W57350  10.695  23.086  22.027  0.1615  0.2219 -0.1146
14335W        W57351  16.319  10.130  23.741  0.0604  0.2470  0.0449
14336W        W57352  31.728  34.475  16.894 -0.1478 -0.0163  0.1176
14337W        W57353  27.408  26.220  25.947  0.0325 -0.1068  0.1174
14338W        W57354  33.873  12.006  17.960  0.0936 -0.4023  0.0271
14339W        W57355  19.567  26.880   9.923  0.1481 -0.0489 -0.0223
14340W        W57356   4.359  32.277  25.342 -0.3110  0.0752 -0.2464
14341W        W57357  30.095  15.055  21.862 -0.2896  0.1866 -0.2791
14342W        W57358  28.883  20.963  22.947  0.1852 -0.0884 -0.1017
14343W        W57359  29.881  32.990  19.422  0.3029 -0.0539  0.0232
14344W        W57360  20.842  26.449  24.057  0.3863  0.0618  0.2994
14345W        W57361  31.283   5.114  16.440  0.4119 -0.2153 -0.3886
14346W        W57362  33.047   0.640  14.884  0.4105  0.1854 -0.3459
14347W        W57363  29.208   2.196   2.338  0.0884 -0.0504 -0.0658
14348W        W57364   3.690   3.247  15.512 -0.1305 -0.0132  0.1163
14349W        W57365  31.015  20.218  15.551  0.1677 -0.0882 -0.2970
14350W        W57366   2.960   9.318   2.932  0.1403  0.1880 -0.1798
14351W        W57367  33.866  18.874  25.595  0.0267 -0.3519  0.1364
14352W        W57368  27.933  24.420  19.303 -0.2214  0.1326 -0.0244
14353W        W57369  29.970  22.920  19.610  0.3076  0.0152 -0.1086
14354W        W57370   5.135  13.120  24.128  0.2501  0.0612  0.3241
14355W        W57371   4.225   0.376  18.009 -0.3618  0.0697 -0.0530
14356W        W57372  32.100  21.825  21.809 -0.0646  0.0718  0.0544
14357W        W57373   1.793   0.322  23.194 -0.0654  0.2461  0.0070
14358W        W57374   5.407  19.548  13.729  0.2473 -0.1047  0.1105
14359W        W57375   5.307  31.572   2.545  0.1053  0.0404 -0.0658
14360W        W57376  26.300  17.976  17.842  0.0069  0.2280  0.3803
14361W        W57377  30.073   2.872  17.266 -0.4084  0.4566 -0.3036
14362W        W57378  34.309  21.381  22.139 -0.2200 -0.1263 -0.2323
14363W        W57379  32.297  11.549  15.147  0.0874 -0.4220 -0.1242
14364W        W57380   6.671  31.707  28.157 -0.0287  0.4155  0.3780
14365W        W57381  34.589  32.819  22.210 -0.1247 -0.1475  0.0780
14366W        W57382   8.375  24.558  24.813 -0.1720  0.1193 -0.0437
14367W        W57383  26.344  26.279  22.267 -0.0418  0.1044 -0.1044
14368W        W57384  31.165  24.320  28.939  0.0444 -0.1243  0.1231
14369W        W57385   3.107  28.084   6.115  0.2557 -0.1267 -0.0516
14370W        W57386   5.487  21.120  20.570 -0.0032 -0.1395 -0.1157
14371W        W57387  34.023  19.501  27.706 -0.0592  0.1453  0.0048
14372W        W57388  25.825  13.021  17.387  0.1496  0.2156  0.3315
14373W        W57389   1.034  21.645  25.974  0.2747 -0.1783 -0.0451
14374W        W57390   1.311  33.871  14.483  0.0386  0.1430  0.0290
14375W        W57391   1.927  26.003  28.564 -0.1843 -0.2125  0.0978
14376W        W57392   7.331  23.930  29.308  0.0788  0.1097  0.0400
14377W        W57393  32.571  28.214  24.867 -0.0408  0.1541 -0.3376
14378W        W57394  27.678  23.866   5.493 -0.0768  0.0759 -0.2613
14379W        W57395  19.560  22.074  27.977 -0.1334  0.2346 -0.0235
14380W        W57396   1.106  23.525   0.931  0.0287 -0.3536 -0.2256
14381W        W57397  19.157  23.909  14.811  0.1140  0.0745 -0.0956
14382W        W57398  21.079  26.521  27.471  0.0472 -0.0461 -0.0841
14383W        W57399   6.346   2.100  17.311  0.1528 -0.1223  0.1623
14384W        W57400  32.374  15.572   6.742  0.2527  0.0071 -0.0510
14385W        W57401   7.572  20.019   5.302  0.2700  0.0187  0.2267
14386W        W57402  29.309   1.359  16.318 -0.0503  0.2425 -0.0414
14387W        W57403   0.847  20.214  18.772 -0.1047  0.0785  0.1991
14388W        W57404  34.298   1.423  19.292  0.1728 -0.1510  0.0665
14389W        W57405  13.094  31.071  14.979 -0.2366 -0.1035 -0.1710
14390W        W57406  28.437  26.799  21.390  0.3895  0.2178 -0.0533
14391W        W57407  14.179  11.786  16.583  0.4202 -0.2891  0.1536
14392W        W57408   6.773  32.262  28.134 -0.0815 -0.1463  0.2126
14393W        W57409   1.963   8.892  25.225  0.2033 -0.2143  0.0934
14394W        W57410  31.689   5.260  19.475 -0.3000  0.1531 -0.2325
14395W        W57411  15.564  15.228  12.210  0.0425 -0.0122  0.0221
14396W        W57412   0.028   4.800  25.458 -0.1901 -0.1127  0.2692
14397W        W57413   9.989  30.180  25.355 -0.0891  0.1210 -0.2205
14398W        W57414  10.453  33.024  21.232 -0.1449  0.0614 -0.0051
14399W        W57415   5.523  26.792  13.594 -0.1459  0.0216 -0.0485
14400W        W57416  15.429  17.449  19.752  0.0476  0.2818 -0.2177
14401W        W57417  33.287   4.823  23.799 -0.0540  0.0902  0.0909
14402W        W57418  28.463  26.483  29.131 -0.3418  0.3019 -0.0711
14403W        W57419  26.270  15.787  16.790 -0.1259 -0.0127  0.0763
14404W        W57420   1.578  27.147  19.829 -0.0966 -0.0104  0.0282
14405W        W57421   9.735  17.548  14.985  0.1525 -0.3767  0.3458
14406W        W57422  30.298  32.473  22.433  0.1980  0.0768 -0.0115
14407W        W57423   0.522  19.482  20.147 -0.3628 -0.1171  0.0415
14408W        W57424  22.602  30.432  18.372 -0.2089  0.3308 -0.3879
14409W        W57425  11.269   1.145  28.318 -0.0334  0.3277  0.1535
14410W        W57426  19.282  21.261  23.419  0.0658  0.1369  0.1571
14411W        W57427   5.145  28.363  26.100  0.1676  0.2057 -0.1036
14412W        W57428   4.545  31.329  19.292 -0.3301 -0.1784  0.2345
14413W        W57429   3.596   9.091  17.053 -0.1026 -0.0046 -0.0721
14414W        W57430   7.632   8.497   0.840 -0.0016 -0.3255 -0.0894
14415W        W57431  23.344   3.583  19.677 -0.1462  0.0654  0.0166
14416W        W57432  34.409  31.640  15.278 -0.1303  0.1375  0.1023
14417W        W57433  12.627  26.979  29.163  0.2079  0.0036  0.0642
14418W        W57434  22.636  29.018  15.291  0.1211  0.1444 -0.0377
14419W        W57435  34.703  17.108   0.818  0.2980 -0.0721  0.1564
14420W        W57436   3.370  31.459  14.391 -0.1530 -0.2215  0.1196
14421W        W57437  23.414  17.886  26.672 -0.1242  0.0839  0.0370
14422W        W57438  33.802  17.042  21.024 -0.1089  0.0663 -0.0281
14423W        W57439  25.785  27.968   8.749 -0.0459  0.3359 -0.1914
14424W        W57440  23.778  24.479   6.160  0.2282  0.2588  0.1860
14425W        W57441   0.575  18.616  18.929 -0.0354  0.2500 -0.2250
14426W        W57442  26.819  23.866  15.816 -0.0478 -0.0128  0.1235
14427W        W57443  10.798  27.067  24.756  0.0409  0.0117 -0.2018
14428W        W57444  33.876  26.166  17.428  0.1332  0.0668  0.1731
14429W        W57445   8.430   7.588  21.820 -0.0921 -0.1351  0.1625
14430W        W57446   3.920   3.413  18.690 -0.1588  0.1023 -0.1017
14431W        W57447  12.520  21.212  25.852  0.1623 -0.0715 -0.2202
14432W        W57448   1.553   1.149  21.079 -0.2631 -0.0376 -0.3847
14433W        W57449  11.542  13.916  15.961  0.1790 -0.0033 -0.0220
14434W        W57450  11.637  17.571  13.430  0.0519 -0.0162 -0.4150
14435W        W57451  14.253  28.920  22.625 -0.1558  0.3487 -0.0061
14436W        W57452   6.003  24.120  16.278  0.2399 -0.0745 -0.1074
14437W        W57453   9.673   1.427  18.109  0.1569  0.1547  0.1079
14438W        W57454  16.800  32.442  18.178  0.1395 -0.1636 -0.2475
14439W        W57455   0.749  30.507  19.816  0.0567 -0.1594  0.1125
14440W        W57456   4.220  21.636  25.444 -0.0990  0.0351 -0.0767
14441W        W57457  11.119   5.003  14.326 -0.0021 -0.2993  0.0473
14442W        W57458   0.068  29.252  26.863  0.2228  0.0397  0.1782
14443W        W57459   1.693  26.436  21.575 -0.2195  0.0912 -0.0444
14444W        W57460   9.140  31.461  26.308 -0.0324 -0.1032  0.0422
14445W        W57461  33.070   1.056   4.615  0.0611 -0.1315 -0.0831
14446W        W57462  10.979  22.179   3.638 -0.0649 -0.0777 -0.1421
14447W        W57463  18.798  16.389  19.665 -0.1390 -0.0781  0.0942
14448W        W57464   1.584  19.153  25.899 -0.0204  0.6157  0.2988
14449W        W57465   0.290  22.388  14.134  0.4359  0.0793  0.2363
14450W        W57466   9.452  21.670  17.994 -0.1998 -0.2523  0.1200
14451W        W57467   2.728   7.333  14.662 -0.1644 -0.0771 -0.0875
14452W        W57468  24.603  20.264  16.560 -0.1500  0.1347 -0.1742
14453W        W57469  14.841  29.244   7.429 -0.1056 -0.2678  0.2105
14454W        W57470  14.158   9.583  14.980 -0.0567 -0.0670 -0.0530
14455W        W57471  29.851  20.594  21.780  0.0942 -0.2518  0.2688
14456W        W57472   5.782  12.994  15.575 -0.1212  0.1900 -0.1794
14457W        W57473  34.272  21.829  27.037  0.4483  0.1638 -0.0438
14458W        W57474   9.404  34.067   2.048 -0.2403 -0.1605 -0.0403
14459W        W57475  26.899   2.485  28.904 -0.0866  0.1681 -0.0226
14460W        W57476  24.324  28.579  20.982 -0.0826 -0.1061  0.2050
14461W        W57477   5.591  25.975  26.454  0.3434  0.2361  0.1039
14462W        W57478  26.059  30.501  15.546 -0.2478 -0.0693  0.0965
14463W        W57479   7.563  21.051  24.314  0.2023 -0.0843 -0.2456
14464W        W57480  30.040  31.402  16.419  0.1966 -0.0472  0.0325
14465W        W57481  34.393  23.436  16.173 -0.0621  0.0552  0.2123
14466W        W57482  12.011  16.529  28.863  0.0268  0.2390 -0.1292
14467W        W57483  12.061  22.053   5.174 -0.2453  0.0458 -0.0257
14468W        W57484  12.135  16.357  22.128 -0.1618  0.1450  0.3329
14469W        W57485   2.388  23.108   2.208  0.2042 -0.1644  0.0921
14470W        W57486  29.393  28.744  22.234  0.0315  0.1894 -0.0989
14471W        W57487  28.251  20.380  19.387 -0.0750  0.2031  0.1695
14472W        W57488   6.815  31.505  24.297  0.2558  0.0078  0.0590
14473W        W57489  34.283  17.370  27.806 -0.0013  0.1840 -0.3906
14474W        W57490  23.141  33.929  26.529 -0.1578  0.2000  0.0771
14475W        W57491  30.340  27.137  24.045  0.3045 -0.3382 -0.1418
14476W        W57492  27.981   0.472  21.265  0.0884 -0.2888 -0.1173
14477W        W57493  18.076  15.920  24.015  0.1461 -0.1445  0.1813
14478W        W57494  34.608  19.953  16.330  0.0708  0.0763 -0.1028
14479W        W57495  22.726  10.705  15.053 -0.0538  0.3792 -0.5106
14480W        W57496  14.076  19.132  13.464 -0.2752  0.2579 -0.2674
14481W        W57497   7.699  30.351  26.653  0.1915 -0.4179 -0.2156
14482W        W57498   6.694   3.284  22.995  0.1279  0.1814 -0.1165
14483W        W57499   6.497   0.579  13.998  0.0954  0.0943 -0.0209
14484W        W57500   9.681  30.380  18.124 -0.0134 -0.4867 -0.4512
14485W        W57501  25.718  24.068  19.314  0.3216  0.1570  0.1629
14486W        W57502  24.867  21.767  21.076  0.0320 -0.0461 -0.0832
14487W        W57503   0.031  28.328  16.886  0.5101  0.0537 -0.0621
14488W        W57504   8.356   8.237  23.365 -0.1168  0.0448 -0.1240
14489W        W57505  31.771  18.444  25.460  0.0362  0.3066  0.0066
14490W        W57506   2.769   1.944   1.042 -0.0487 -0.4118  0.1623
14491W        W57507  28.062  24.672  18.828 -0.3722  0.1431  0.0351
14492W        W57508  13.063   0.992  10.703  0.0188 -0.1894 -0.0229
14493W        W57509  30.175  22.150  23.965 -0.1112 -0.1099  0.5603
14494W        W57510  26.732  25.894  20.495 -0.0265  0.0629 -0.1165
14495W        W57511   7.132  31.499   4.533  0.0056  0.1370 -0.2025
14496W        W57512   6.699  14.207  25.744  0.0208 -0.1432 -0.4175
14497W        W57513  23.936  22.757  16.895 -0.1022  0.1291 -0.0250
14498W        W57514  33.888  19.698  20.380 -0.2415 -0.0933  0.0499
14499W        W57515   8.828  26.281  15.099  0.2109  0.1861  0.0178
14500W        W57516  32.211  28.638  24.638  0.1053  0.0408  0.0285
14501W        W57517  33.471  10.058  16.872 -0.0620  0.1877 -0.0372
14502W        W57518  31.901  21.989  17.934 -0.0194  0.0150  0.0898
14503W        W57519  34.350   2.757   9.288  0.2689 -0.0232 -0.2341
14504W        W57520   7.747  29.784  16.219 -0.2142  0.3061  0.3193
14505W        W57521  32.473  23.486  17.335  0.1122  0.1867  0.3595
14506W        W57522  31.668  30.413   4.821  0.0926 -0.0098 -0.3196
14507W        W57523  28.921  12.469  26.599  0.1895 -0.0374  0.3630
14508W        W57524  19.285   9.989  16.951  0.2302  0.0440  0.3822
14509W        W57525   2.409  27.980  15.665  0.2586  0.0200  0.0152
14510W        W57526  10.019  15.628  17.647 -0.2084 -0.0490  0.0121
14511W        W57527  13.851  16.831  28.302  0.1443 -0.0278  0.1216
14512W        W57528  25.750   8.016  26.154  0.0237 -0.0264  0.6175
14513W        W57529   1.001  20.489  16.502 -0.0952 -0.1045 -0.2583
14514W        W57530   5.678  24.847  20.481  0.2646 -0.2097 -0.1020
14515W        W57531  29.987  23.811  19.800  0.0837 -0.1135 -0.1981
14516W        W57532   8.313  25.136  25.780 -0.0660 -0.1413 -0.0515
14517W        W57533  30.404  22.699  17.873 -0.1584  0.1172  0.0745
14518W        W57534  32.457  14.192  28.293  0.0185 -0.0990 -0.1109
14519W        W57535  13.773  30.759  28.953  0.0995  0.1617  0.4446
14520W        W57536  25.948  15.885  20.975 -0.0571  0.1788 -0.1761
14521W        W57537  13.746  22.433  16.061 -0.2250  0.1466  0.1657
14522W        W57538   8.764  18.156   1.016 -0.1559 -0.1154 -0.0224
14523W        W57539  11.775   1.137  16.145  0.2294  0.0625  0.2392
14524W        W57540  29.836  32.600  24.492  0.5418 -0.1808  0.1784
14525W        W57541   3.183   5.876  16.155  0.0731 -0.2093  0.1567
14526W        W57542  19.096  17.231   3.791 -0.2120  0.0107 -0.2003
14527W        W57543   6.688  31.718  20.613  0.0037 -0.1603 -0.1988
14528W        W57544  33.220  10.765  27.683  0.2370 -0.4418 -0.0629
14529W        W57545  33.971  23.069  24.908  0.2470 -0.1730  0.1056
14530W        W57546   0.869   1.038  14.495 -0.0764 -0.0079  0.1114
14531W        W57547  20.499  27.379  22.188  0.0486 -0.2477 -0.4738
14532W        W57548  27.920  10.163  17.828  0.2326  0.0131 -0.2797
14533W        W57549  28.074  22.962  29.090 -0.0099  0.1222  0.0811
14534W        W57550  27.085  28.572   0.969  0.1679 -0.2614  0.0361
14535W        W57551   4.182  20.668  24.639  0.3705 -0.0229 -0.1857
14536W        W57552  33.340  26.517  20.429  0.1268 -0.2255  0.0169
14537W        W57553  29.966  16.612  22.612 -0.1442  0.0771 -0.1299
14538W        W57554  33.723  10.832  22.181  0.2437  0.2475  0.1400
14539W        W57555   6.405  21.043  23.617  0.2533 -0.0464  0.1014
14540W        W57556  27.987  32.063  21.975  0.0927 -0.0124  0.1904
14541W        W57557   9.157  25.758  14.448 -0.0533 -0.0074 -0.1503
14542W        W57558  30.857  26.685  20.519 -0.2494  0.1309  0.5183
14543W        W57559  24.355  19.117  24.600 -0.0665  0.1453  0.1510
14544W        W57560   8.073  18.874  14.031 -0.0419 -0.1873 -0.1657
14545W        W57561   6.820   1.798  24.710 -0.2275 -0.1865 -0.0486
14546W        W57562  11.552  34.503  14.851 -0.1625 -0.0631 -0.1409
14547W        W57563   4.094  17.099  23.162  0.0924 -0.5545  0.0859
14548W        W57564   6.677  20.629  13.272  0.2186 -0.0072  0.1537
14549W        W57565  32.600  32.836  17.752 -0.1463  0.1967 -0.1139
14550W        W57566  11.074  12.850  16.069  0.0329 -0.1856  0.2540
14551W        W57567  31.660   8.062   1.734 -0.1996  0.0091 -0.0714
14552W        W57568   5.416  26.566   8.615 -0.0917 -0.0727 -0.0647
14553W        W57569  10.207  31.098  17.063 -0.4101  0.0957  0.2376
14554W        W57570  16.996  28.432  24.222 -0.0736  0.0345 -0.3042
14555W        W57571   9.048  25.531  25.316  0.1362 -0.2703  0.3058
14556W        W57572   6.459  22.768  18.159 -0.0331  0.1859  0.1179
14557W        W57573  18.949  14.639  26.482  0.0613 -0.4230  0.0532
14558W        W57574  28.663  27.275   6.823  0.1789 -0.1018  0.0969
14559W        W57575  21.131  28.057  15.651 -0.0117 -0.1634 -0.1613
14560W        W57576  15.077  21.340  12.128  0.0652 -0.0866 -0.1326
14561W        W57577  28.908  24.138  24.749 -0.2266  0.1470 -0.1895
14562W        W57578  26.884  24.289  19.897 -0.0266  0.0999 -0.2409
14563W        W57579  26.346  22.565  19.465  0.1429 -0.1453  0.0132
14564W        W57580  16.334  33.809  23.290 -0.0635 -0.0521 -0.1873
14565W        W57581   3.509  14.470  23.479 -0.0605  0.0530 -0.3344
14566W        W57582   4.767  14.260  24.538 -0.1037 -0.4610 -0.0471
14567W        W57583   1.137  32.646   0.647 -0.1153  0.4176 -0.1818
14568W        W57584   8.542  34.390  19.691  0.0501 -0.3184  0.1352
14569W        W57585  16.849  31.969   2.711  0.0678  0.1478 -0.0130
14570W        W57586  33.270  12.622   9.073 -0.1267  0.0835  0.4525
14571W        W57587  15.905  26.344  23.790 -0.1747  0.0772 -0.1481
14572W        W57588  28.481  21.506  22.750 -0.2834 -0.0118  0.1222
14573W        W57589  23.609  15.483  15.465 -0.0333 -0.0403 -0.2682
14574W        W57590  27.726   0.124  24.910  0.0735 -0.0682 -0.0105
14575W        W57591   2.664  27.277  15.966 -0.2840 -0.3571 -0.0373
14576W        W57592  13.246  11.939  15.184  0.1648 -0.1169  0.4274
14577W        W57593  32.543  16.053   3.634 -0.1695  0.0884 -0.1341
14578W        W57594   9.300  14.946  13.137 -0.1971  0.0524 -0.1837
14579W        W57595   0.457  25.849  21.924  0.0488  0.0898 -0.2504
14580W        W57596   1.563  18.061  22.998 -0.1805 -0.0738  0.2648
14581W        W57597  33.296  15.064  22.287  0.1707 -0.0887 -0.1676
14582W        W57598   7.790   1.876  20.627  0.2741 -0.1184  0.0229
14583W        W57599   5.780  23.967   0.347 -0.0575  0.0126 -0.0821
14584W        W57600  31.830   5.075  21.654  0.0011  0.0279  0.1349
14585W        W57601  34.486  21.682  14.732 -0.0826  0.3473 -0.3140
14586W        W57602  24.760   7.631   0.456 -0.0260 -0.0755 -0.1539
14587W        W57603  26.681  32.353  20.437  0.1244 -0.0834  0.1199
14588W        W57604   0.523   9.777   0.204  0.0135 -0.2004  0.1275
14589W        W57605   1.093  31.000  17.943  0.1093  0.0656  0.0519
14590W        W57606  29.555  25.951  23.997  0.0292 -0.0251 -0.0589
14591W        W57607   8.417  15.757   0.342 -0.2378  0.1377 -0.1598
14592W        W57608  10.469  26.576  21.736  0.1110  0.0189  0.0481
14593W        W57609   8.991  30.666   3.449  0.0661 -0.4927 -0.3221
14594W        W57610  30.903  11.408  20.674  0.3338 -0.2670  0.0967
14595W        W57611  20.458  31.443   7.059  0.1420  0.0700 -0.1327
14596W        W57612  10.306  25.793  18.550  0.0887  0.1580  0.0926
14597W        W57613   7.671   1.500  22.681  0.1638  0.5151 -0.0539
14598W        W57614   0.283   3.662  23.096  0.2962  0.0849 -0.0115
14599W        W57615  30.961  26.500  18.791 -0.2211 -0.1592  0.0052
14600W        W57616  34.037   5.182   2.012  0.0367 -0.2084 -0.0090
14601W        W57617  16.956  23.973  17.574 -0.0187 -0.0208 -0.2321
14602W        W57618  29.206  25.896  27.741 -0.0132 -0.0267  0.1454
14603W        W57619   5.518  21.373  13.547  0.1652 -0.4090 -0.0505
14604W        W57620  29.250  27.941  20.003  0.0642  0.2224  0.0553
14605W        W57621  12.523   1.584  28.280 -0.0284  0.1105  0.1398
14606W        W57622  32.742  31.756   5.721  0.3969 -0.5152  0.0922
14607W        W57623   9.885  10.089  23.152  0.0721 -0.0422 -0.1942
14608W        W57624  16.196  33.317  24.078  0.1347 -0.2887  0.1963
14609W        W57625  30.910   1.918  28.264  0.2330  0.0953  0.0755
14610W        W57626  16.397  32.797  25.253  0.1754 -0.0013 -0.0751
14611W        W57627   4.719  29.315  15.021 -0.0081 -0.1245  0.4002
14612W        W57628   0.535   6.367  23.620  0.4233 -0.1744 -0.2102
14613W        W57629   0.467  23.531  13.862  0.1589  0.0841  0.0605
14614W        W57630   0.024  13.412  26.089  0.0538  0.1013  0.4808
14615W        W57631  30.458   2.028  23.450  0.0422 -0.1581  0.2501
14616W        W57632   7.742  20.412  17.707  0.0380 -0.3563 -0.2559
14617W        W57633   5.502  30.226  17.174 -0.0854  0.0377 -0.1607
14618W        W57634   8.783  22.703  18.698  0.1357  0.0600  0.0445
14619W        W57635  12.633   2.566  27.329 -0.0504  0.4807 -0.0291
14620W        W57636   9.541  17.547  28.315  0.1762 -0.0992  0.0010
14621W        W57637  19.030   1.508  23.232 -0.0551  0.3497  0.0936
14622W        W57638   5.360  17.053  16.319  0.1104  0.0067  0.1071
14623W        W57639  29.332  11.481  24.878 -0.3171  0.3781  0.3793
14624W        W57640   3.955  26.981  14.819  0.0314  0.0584  0.3047
14625W        W57641   6.917  33.473  23.054  0.0820  0.4461  0.0497
14626W        W57642  31.267  20.840  16.727  0.1162 -0.1352 -0.4057
14627W        W57643  29.212  18.901   2.166 -0.1894 -0.3164 -0.2280
14628W        W57644   0.894  29.820   2.612 -0.2365  0.0633  0.1408
14629W        W57645   8.219  26.955  19.120  0.0365 -0.0812  0.1069
14630W        W57646   0.070  17.290  17.999 -0.0067  0.2204 -0.2332
14631W        W57647   9.417  17.106  18.545 -0.0938 -0.1256 -0.1249
14632W        W57648  11.195   8.122  19.054  0.0062  0.0686 -0.1563
14633W        W57649   3.459  32.510  21.513 -0.0359  0.1224 -0.0685
14634W        W57650   5.506   4.461  15.168 -0.1364  0.0614  0.1589
14635W        W57651  29.389  10.321  15.984 -0.1455  0.3094 -0.1982
14636W        W57652   3.794  23.467  26.045 -0.2480  0.0991  0.0493
14637W        W57653   5.356  30.436  14.401 -0.0817  0.1893  0.0972
14638W        W57654   9.349  26.711   8.134 -0.0455  0.1817  0.0676
14639W        W57655   8.488  16.524   1.107 -0.0181 -0.1975  0.0300
14640W        W57656   1.204   0.650   4.822  0.0649  0.2220 -0.2756
14641W        W57657  27.091  28.827  26.764  0.3825  0.2480  0.4238
14642W        W57658   1.634  18.690  26.358 -0.0505  0.1023 -0.1344
14643W        W57659  28.440  14.793  20.344  0.0831  0.0718 -0.0111
14644W        W57660  20.745  33.764   3.582 -0.1000  0.0783  0.1417
14645W        W57661  33.750   0.411   4.606  0.0046  0.1665 -0.1649
14646W        W57662   2.921  22.878  25.722 -0.0390 -0.3073  0.0437
14647W        W57663  11.421  21.826  14.029 -0.1746  0.1412  0.3711
14648W        W57664  10.415  27.569  25.566 -0.0535  0.2652 -0.0562
14649W        W57665   9.783  25.233  25.484 -0.0417  0.0142 -0.0616
14650W        W57666   0.751  24.232  18.812  0.2300  0.0444 -0.0089
14651W        W57667   3.131  15.885  14.013  0.0345  0.1844  0.1325
14652W        W57668  11.323  23.124  28.810 -0.1257 -0.1105  0.5429
14653W        W57669  28.779  31.368  10.205  0.1478  0.1467 -0.1496
14654W        W57670  31.898  20.388  16.296 -0.0848 -0.4966  0.0306
14655W        W57671  34.338  11.471  21.179 -0.1799 -0.2582 -0.1374
14656W        W57672  33.006   6.253  19.952  0.2322  0.0367  0.0600
14657W        W57673   2.788   3.831  14.510  0.1411  0.1071  0.0467
14658W        W57674   2.778  11.122  23.160 -0.1209  0.0648 -0.0330
14659W        W57675   0.904  23.596  14.092  0.2030  0.0288  0.2106
14660W        W57676  33.902  27.907  17.152 -0.1800 -0.2037  0.0462
14661W        W57677   1.501  25.783  27.515 -0.0290 -0.2841  0.0762
14662W        W57678  21.604  17.176  22.790 -0.0746 -0.2475  0.0621
14663W        W57679  15.975  31.265  22.551  0.0115  0.1292  0.4211
14664W        W57680  23.782  17.603  21.962  0.2939  0.3474  0.0485
14665W        W57681  29.301  26.339  20.636 -0.2844 -0.0741 -0.0286
14666W        W57682  13.176  33.179  16.948  0.1341  0.4721 -0.0630
14667W        W57683   6.016  26.865  20.874  0.0219  0.1356  0.0930
14668W        W57684  18.058  11.904  25.834  0.1360  0.0511 -0.2879
14669W        W57685  29.455  10.532   8.496  0.0064 -0.1788 -0.1181
14670W        W57686  11.866  23.984  27.521 -0.1994  0.0034 -0.1211
14671W        W57687  28.108  25.392  11.774  0.2085 -0.2514 -0.0435
14672W        W57688  11.164  24.955  14.370  0.0067 -0.0402  0.1644
14673W        W57689   8.929  14.362  14.086 -0.1311 -0.2036 -0.1922
14674W        W57690  31.494  21.904  19.810  0.0006  0.0266 -0.4372
14675W        W57691   4.542  14.412  26.678  0.1270  0.0347 -0.1019
14676W        W57692   3.892  25.811  17.666 -0.0204  0.1045  0.0321
14677W        W57693  25.636  17.428  24.463 -0.3083  0.0095 -0.3128
14678W        W57694  10.908  15.407  14.619  0.1939  0.0330  0.1870
14679W        W57695   3.490  20.087  18.404 -0.0121 -0.2665  0.4469
14680W        W57696  11.780  19.623  20.109 -0.1034  0.0003  0.0402
14681W        W57697  30.904  11.956  15.938 -0.1021 -0.1046  0.2858
14682W        W57698   5.325  25.723  15.923  0.1854 -0.0283  0.0833
14683W        W57699   5.639  23.630  24.226 -0.2601  0.2685 -0.0364
14684W        W57700   0.534   3.333  20.042  0.1385 -0.1541  0.0150
14685W        W57701   1.573  14.431  14.932 -0.1303  0.1744  0.0291
14686W        W57702   7.556  23.764  26.253  0.4092 -0.0215  0.2993
14687W        W57703   6.333   1.610  17.377 -0.0930  0.0693 -0.2307
14688W        W57704  25.113  26.400  16.296 -0.0101  0.1787  0.0282
14689W        W57705   4.154  11.953  17.586  0.2840 -0.2489  0.5788
14690W        W57706  17.631  17.512  14.444  0.1432 -0.1676  0.0304
14691W        W57707  21.789  25.401   5.859  0.0738  0.1819 -0.0074
14692W        W57708   9.818  24.429  14.593  0.1264 -0.0712 -0.2073
14693W        W57709   2.873  26.043  14.037  0.1847  0.0962 -0.0893
14694W        W57710  31.237  28.041  21.001  0.1185 -0.0158 -0.0579
14695W        W57711  29.807  26.380  18.567  0.2882  0.2828 -0.1511
14696W        W57712   5.034   1.043  23.739 -0.3391  0.0561 -0.1490
14697W        W57713  20.497  27.720  21.801 -0.1563  0.0799 -0.2080
14698W        W57714  11.043  20.191  22.126 -0.1972 -0.1753 -0.1213
14699W        W57715  14.762  33.021  20.877  0.2022  0.1151  0.0503
14700W        W57716  28.516  13.161  22.935 -0.0349 -0.3860  0.1770
14701W        W57717  31.054  15.249  29.319  0.1517 -0.4201 -0.0445
14702W        W57718   9.354  27.316  20.046  0.3417  0.0510 -0.0837
14703W        W57719   4.887   0.834  26.616  0.3211  0.0105  0.2303
14704W        W57720  29.148  16.328  19.143  0.0015 -0.1357 -0.2691
14705W        W57721   9.163   0.426  16.956  0.3496 -0.1120 -0.1410
14706W        W57722  33.654  18.941  29.133  0.1220  0.2567 -0.3631
14707W        W57723  33.966  27.750  25.676  0.1677 -0.0352 -0.2213
14708W        W57724  11.777  20.353  18.946 -0.2522 -0.0417 -0.0020
14709W        W57725  29.413  29.352   8.064  0.2138  0.1449 -0.1281
14710W        W57726  33.432  34.132  19.476 -0.0897  0.1413 -0.1585
14711W        W57727  29.526  20.312  16.545  0.3215 -0.1516  0.0682
14712W        W57728  15.386  20.677  27.097 -0.1435  0.1985 -0.2652
14713W        W57729   3.939  34.330   0.546 -0.0164  0.0162 -0.4381
14714W        W57730   0.621   6.291  19.098  0.1637 -0.1232 -0.0018
14715W        W57731  10.089  21.213  19.183 -0.2418  0.1243  0.0727
14716W        W57732   9.387  27.802  14.165 -0.3325  0.1269  0.2581
14717W        W57733  16.219  21.897  26.561 -0.4898  0.0791  0.0272
14718W        W57734  28.252   1.071  24.201 -0.2768  0.0710  0.0288
14719W        W57735   2.564  24.275  15.951  0.2056  0.0947 -0.0881
14720W        W57736   5.710   1.666  28.382 -0.0989 -0.1622 -0.0294
14721W        W57737   1.838  22.069  27.087 -0.0003 -0.0978 -0.1650
14722W        W57738   0.034  10.589   5.992  0.1627 -0.3232 -0.1929
14723W        W57739  23.736  33.484   3.877 -0.0708  0.0247  0.2636
14724W        W57740   5.663  16.388  12.851  0.0175  0.2599 -0.0085
14725W        W57741  26.326  30.558  26.266 -0.2491  0.2478  0.0164
14726W        W57742  13.280  32.189  26.204 -0.3536 -0.2917  0.1913
14727W        W57743  16.775  22.129  24.640 -0.1781  0.0094  0.3881
14728W        W57744  24.860  29.129  19.149  0.0590 -0.2225  0.0853
14729W        W57745  34.254  21.874  16.749 -0.1020 -0.0644  0.0039
14730W        W57746  32.818  29.750  19.558  0.1955  0.0210 -0.5872
14731W        W57747  34.566   2.274  20.619  0.0547  0.2271  0.2175
14732W        W57748   5.277  28.565   7.392  0.0256  0.1497  0.1136
14733W        W57749   7.839  23.458  19.078 -0.0745 -0.1281 -0.3018
14734W        W57750   1.156  21.940  19.738 -0.0813 -0.1308  0.1460
14735W        W57751  19.036   4.466   1.863 -0.0543 -0.0629 -0.2451
14736W        W57752  10.692  16.102  28.125 -0.1038 -0.0162 -0.1658
14737W        W57753  17.964  25.946  25.821 -0.0715  0.3226  0.2237
14738W        W57754  19.987  30.301   8.344  0.2076 -0.0072  0.0344
14739W        W57755  18.906  28.901  24.077  0.0402  0.2199 -0.0212
14740W        W57756  26.640  27.076   0.764  0.1003 -0.1542  0.0943
14741W        W57757  25.118  19.362   0.138 -0.2352 -0.2060 -0.1871
14742W        W57758  25.146   9.325   2.169  0.2404 -0.3185 -0.0096
14743W        W57759  29.882  28.847  22.042 -0.1439 -0.1853 -0.2046
14744W        W57760  33.428  23.337  19.661  0.1711 -0.4502 -0.0747
14745W        W57761   6.565   4.687   9.597  0.0280 -0.1029  0.0652
14746W        W57762  34.691  26.254  20.437 -0.1005  0.1849  0.0431
14747W        W57763  19.603  14.414   4.073  0.1144  0.1618  0.1189
14748W        W57764   2.964  17.332  14.374 -0.2477  0.0076 -0.0336
14749W        W57765  30.233  23.593  26.691 -0.2467 -0.0666 -0.3912
14750W        W57766  14.789  15.826   7.219  0.0773 -0.0636 -0.0503
14751W        W57767  18.743  27.635   0.005  0.0367 -0.0250 -0.0848
14752W        W57768   6.010  11.922  20.296  0.1617 -0.1379  0.3984
14753W        W57769  16.587  12.327  24.445  0.0736 -0.1188 -0.1578
14754W        W57770   7.670  15.548  13.266  0.1567  0.2478 -0.1746
14755W        W57771  23.147  28.019  20.454 -0.1851 -0.0801  0.0309
14756W        W57772  14.295  27.853  15.264 -0.0089 -0.2204  0.0076
14757W        W57773   0.884  14.704  25.168 -0.0869 -0.0309 -0.0383
14758W        W57774  10.939  22.758  28.121  0.3282 -0.1051 -0.1505
14759W        W57775  32.845   5.227   3.499  0.0225 -0.3114 -0.0060
14760W        W57776   3.860  20.907  26.964  0.1456  0.0220 -0.1636
14761W        W57777  32.556  31.868  18.211 -0.1003  0.0481 -0.2891
14762W        W57778   9.266  33.164   2.496 -0.0646 -0.3562  0.3131
14763W        W57779   5.482  19.190  16.200  0.0309  0.1116  0.0711
14764W        W57780  27.851   5.921   9.397  0.0645  0.3881 -0.1586
14765W        W57781  13.114  19.081  22.881  0.0651  0.2143  0.2393
14766W        W57782  19.706  24.621  20.950 -0.0712  0.2137 -0.1546
14767W        W57783  20.707  12.927   1.406  0.3086 -0.1893  0.2345
14768W        W57784  10.372  14.259  24.034  0.1696 -0.1179 -0.0856
14769W        W57785  10.557  18.801  22.183 -0.3021 -0.0520  0.2656
14770W        W57786  32.835  34.360  15.286 -0.0842  0.1231  0.0572
14771W        W57787  10.828  32.447  19.453  0.1084  0.3042 -0.0319
14772W        W57788  31.823   5.648  25.014 -0.1519 -0.1148 -0.1541
14773W        W57789   9.782  26.939  17.918 -0.1372 -0.0449 -0.1020
14774W        W57790   8.551  25.516  19.058  0.2061 -0.5005 -0.1238
14775W        W57791   4.365  16.942  16.216  0.0996  0.0496 -0.3046
14776W        W57792   1.823  32.088  16.536 -0.0857  0.3249 -0.1137
14777W        W57793  31.766  29.824  23.217 -0.0690  0.2063 -0.1062
14778W        W57794   2.379  29.297  23.503  0.0079  0.0837  0.2998
14779W        W57795  17.262  20.665  26.740  0.0147 -0.1078 -0.2766
14780W        W57796  23.069   2.572  17.705 -0.0760  0.1623 -0.1825
14781W        W57797   8.199  23.719  15.945  0.1381 -0.1191  0.0584
14782W        W57798  25.722   7.035  27.983 -0.1077  0.0833  0.0526
14783W        W57799  22.105  13.132   0.491  0.3954  0.1909 -0.3040
14784W        W57800   0.542  23.501  22.295 -0.1403 -0.1295  0.4758
14785W        W57801  31.035  24.587  22.589  0.0321 -0.1452  0.0364
14786W        W57802  21.555   0.887  27.138  0.0569  0.0738 -0.3719
14787W        W57803  16.550  23.139   4.647 -0.0318  0.0332 -0.1030
14788W        W57804  32.375  33.586  19.972  0.1816 -0.1846  0.1826
14789W        W57805   0.564  21.050  27.408  0.2011 -0.5674  0.0689
14790W        W57806  25.396  29.657   1.396  0.2705  0.2024 -0.2908
14791W        W57807   4.402  16.832   1.602  0.1423 -0.0159  0.0637
14792W        W57808   1.670  17.276  17.223  0.0044 -0.0375  0.3403
14793W        W57809  12.339  31.193  15.539 -0.0063  0.0031 -0.0532
14794W        W57810  31.429   1.606  24.863  0.1712 -0.0869 -0.0095
14795W        W57811   4.076   2.694  26.164  0.0920 -0.3345  0.0643
14796W        W57812  32.999  32.924   4.313  0.0064 -0.1832  0.0509
14797W        W57813   1.953  15.227   6.886 -0.0715  0.0192  0.0220
14798W        W57814  27.231  29.605   0.601 -0.0910 -0.1170 -0.0682
14799W        W57815  12.108   1.384  14.402  0.3367  0.0901 -0.1288
14800W        W57816   6.249   4.338  14.732 -0.0550 -0.0627  0.1141
14801W        W57817   9.256  22.555  23.954 -0.0162 -0.0748  0.1789
14802W        W57818  28.314  30.324   0.341  0.0858  0.0196 -0.2369
14803W        W57819  33.583  23.168  23.881  0.1515  0.0623 -0.0934
14804W        W57820  33.200  13.459   1.045  0.0578  0.2688  0.0528
14805W        W57821   8.222  23.143  19.196 -0.2661 -0.2067 -0.1807
14806W        W57822   3.435  25.539  16.771  0.1105 -0.0953 -0.3382
14807W        W57823   7.834  26.306  24.289 -0.0588 -0.3948  0.0214
14808W        W57824   2.411  30.654  13.943  0.0148 -0.1703  0.1255
14809W        W57825  28.948  25.386  20.448  0.0491  0.1173  0.0483
14810W        W57826   1.282   7.910   2.626 -0.1142 -0.1128 -0.1209
14811W        W57827  28.168  16.918  25.251 -0.3076  0.1728 -0.0478
14812W        W57828   3.274   9.682   0.480 -0.0216  0.2821 -0.1098
14813W        W57829  11.766  22.954  15.210 -0.0657 -0.0722  0.0146
14814W        W57830   1.637  22.782   5.527 -0.1871  0.0788 -0.1482
14815W        W57831   2.419  11.406  17.005  0.3967 -0.2020  0.0518
14816W        W57832   0.655  29.606  17.557  0.0169  0.3585 -0.3815
14817W        W57833   4.393  24.345   1.215 -0.1540  0.1453  0.1475
14818W        W57834  19.989  11.604  15.280 -0.1003  0.2400  0.2929
14819W        W57835  15.433  25.300  15.701  0.4317 -0.1577 -0.1632
14820W        W57836  33.382  29.422   0.778  0.0584  0.0218  0.1515
14821W        W57837   4.265  11.462  17.664  0.0442  0.5201  0.0830
14822W        W57838  19.566  26.499  18.489  0.0036  0.0770 -0.3108
14823W        W57839   0.811   0.021   6.184  0.0405  0.0344 -0.0704
14824W        W57840  26.305  34.454  10.355  0.1317  0.0287 -0.2127
14825W        W57841  25.889  30.181  25.247  0.0777  0.0743 -0.1461
14826W        W57842   1.126  31.951  14.883 -0.1004 -0.3869 -0.1712
14827W        W57843  12.221  15.018  20.124  0.1960 -0.0544 -0.0630
14828W        W57844  13.895  13.299  29.017 -0.4960  0.2206  0.3983
14829W        W57845  18.404  12.008   1.190 -0.1064  0.0662 -0.2035
14830W        W57846   6.262  33.761  27.761  0.1386 -0.0358 -0.1542
14831W        W57847  13.285  14.916  15.585 -0.2460 -0.0327  0.1308
14832W        W57848  29.659  21.022  18.103  0.3207 -0.1602 -0.1950
14833W        W57849   0.054  23.909  16.384  0.2193 -0.0340 -0.2430
14834W        W57850  13.612  17.242  12.510  0.0489  0.1681 -0.1770
14835W        W57851  33.129  33.349  22.691  0.1491  0.1017  0.0477
14836W        W57852   5.380  28.448  21.105  0.0100  0.2265  0.0408
14837W        W57853   8.382  27.079  17.465 -0.1568  0.1425 -0.1799
14838W        W57854  12.865  25.200  28.766  0.1305  0.3454 -0.0203
14839W        W57855  24.057   5.449  23.168  0.0597  0.1971  0.0890
14840W        W57856  23.747  30.635   1.799 -0.1532  0.1446  0.2179
14841W        W57857   7.609  32.406  19.947  0.1321  0.2165  0.0472
14842W        W57858  22.235   4.627  28.406  0.1378  0.0076 -0.0465
14843W        W57859   5.431   0.579  25.246  0.4829 -0.2322  0.1105
14844W        W57860  33.148  17.169  18.016  0.0465  0.0701  0.1083
14845W        W57861  13.803  25.447  17.202  0.3166 -0.4717 -0.1047
14846W        W57862  14.717   5.911   2.034 -0.1003 -0.0295  0.1668
14847W        W57863  10.940  17.802  27.887 -0.1728  0.0708 -0.2483
14848W        W57864  21.978  21.226  28.393 -0.3528  0.0218 -0.0568
14849W        W57865  26.904  25.141  26.139 -0.2911 -0.0149  0.3250
14850W        W57866  34.212  30.704  20.381  0.0197 -0.0012  0.2095
14851W        W57867  10.711  19.376  17.574 -0.0195 -0.0593  0.1040
14852W        W57868   5.430  17.529  24.237  0.0203  0.2436  0.0807
14853W        W57869  30.941   9.769  16.002  0.2506  0.0454  0.0891
14854W        W57870  34.604  21.089   6.384 -0.2749  0.1338  0.0533
14855W        W57871  23.848  28.010  15.132  0.1633 -0.1820  0.1338
14856W        W57872   4.425  20.907  16.480  0.0802  0.2290 -0.1642
14857W        W57873  18.989  29.399  24.791 -0.5088 -0.6020 -0.1260
14858W        W57874  34.463  26.053  25.419  0.2609  0.0629 -0.1488
14859W        W57875  34.682  14.773  22.952  0.1149 -0.0641  0.0060
14860W        W57876  34.297  18.083  22.919  0.0513 -0.2179 -0.0202
14861W        W57877  14.292  33.054  17.055  0.3816  0.1024  0.0672
14862W        W57878   0.632  22.896  20.319  0.0666  0.2898 -0.1922
14863W        W57879  15.286  30.251  18.656  0.0333 -0.0400  0.2688
14864W        W57880   5.248  31.118   2.673 -0.2861 -0.0476  0.1946
14865W        W57881   7.444  28.901   1.751  0.3266 -0.2064 -0.2094
14866W        W57882  11.011  22.420  27.289  0.0946 -0.0331  0.2487
14867W        W57883   6.052  24.453  28.320  0.0168  0.0729  0.1320
14868W        W57884  19.660  34.280  26.748  0.3500 -0.0875 -0.0082
14869W        W57885  21.459  20.343  12.572  0.1923 -0.1182 -0.1596
14870W        W57886  26.746  13.229   1.555  0.1300  0.2590 -0.0164
14871W        W57887   3.806  22.552   0.893  0.2073  0.0027 -0.0596
14872W        W57888  29.675  27.642   4.605  0.0348  0.2103  0.0363
14873W        W57889   2.419  19.353  18.535 -0.2111 -0.4335 -0.1606
14874W        W57890  16.628  24.046  16.702  0.1177 -0.0386  0.1028
14875W        W57891  20.340  11.055  13.570  0.2697  0.2320  0.0087
14876W        W57892   3.144   3.689  24.472 -0.3995 -0.0353  0.0853
14877W        W57893   4.603  33.011  14.608  0.2255  0.0356  0.1400
14878W        W57894   6.595  21.060   3.167  0.1882 -0.3042  0.1424
14879W        W57895  16.753  21.026  20.774 -0.1749  0.3067  0.2207
14880W        W57896  34.325   0.943   8.043  0.3353 -0.1112  0.0717
14881W        W57897  29.600  27.613  22.607 -0.1347 -0.0203 -0.1653
14882W        W57898   0.262  31.217  23.911 -0.3667  0.0305  0.0386
14883W        W57899   2.118  13.660   6.982  0.0743  0.2590  0.1028
14884W        W57900  16.881  20.066  15.120  0.3474 -0.0882  0.3154
14885W        W57901   4.631  21.150  14.272  0.1897  0.0238  0.1262
14886W        W57902  27.796  29.061  23.116 -0.3475 -0.5063  0.1316
14887W        W57903  31.386  27.151  14.656 -0.2372  0.4656  0.1228
14888W        W57904   4.618  18.847   3.936  0.1247 -0.0075  0.1124
14889W        W57905   8.985   1.795  14.985 -0.0606  0.0210 -0.4475
14890W        W57906  19.956  21.869  23.584  0.0154 -0.2023  0.0191
14891W        W57907   7.459  17.662  19.232 -0.2112  0.1620 -0.2121
14892W        W57908  20.035  24.303  24.881  0.4169  0.2164  0.0599
14893W        W57909  15.971   4.806  27.360 -0.0995  0.0486  0.0564
14894W        W57910  33.206  28.656   8.966 -0.2048 -0.2043  0.0908
14895W        W57911  25.869  22.952  15.582 -0.0026 -0.0411 -0.5415
14896W        W57912  25.473  17.625   7.811  0.1290  0.2939 -0.1760
14897W        W57913  28.447  20.149  26.376 -0.1553 -0.4426  0.3494
14898W        W57914   0.932  33.346  20.175  0.3618  0.1784  0.2360
14899W        W57915   2.793  25.120  14.639  0.1407 -0.2963  0.2426
14900W        W57916   8.240  22.167  22.471 -0.0638 -0.1740  0.0392
14901W        W57917  24.338  17.137  21.012 -0.1817  0.0506 -0.0162
14902W        W57918  30.582  14.950   1.647 -0.0401 -0.0058  0.1069
14903W        W57919   7.917  13.931  28.542  0.2644 -0.3043  0.1112
14904W        W57920  16.715  29.867  24.190  0.1901  0.0373  0.0127
14905W        W57921  18.816   9.463   0.912 -0.0437 -0.0809  0.2857
14906W        W57922   2.019  17.371  20.865 -0.0379  0.3327  0.0515
14907W        W57923  11.830   1.664  25.721 -0.1590 -0.2439  0.1314
14908W        W57924  30.599  19.891  28.429  0.1969  0.0425 -0.1392
14909W        W57925   8.245  17.181   0.064 -0.0400  0.1253 -0.1679
14910W        W57926  29.973  28.644   0.773  0.3695 -0.1923  0.0034
14911W        W57927  13.913  28.084   5.295  0.0282 -0.0130  0.1186
14912W        W57928  16.084  24.075  14.003 -0.0087  0.0662 -0.1246
14913W        W57929  22.171  20.689  23.654  0.1685  0.2227 -0.2643
14914W        W57930  15.492  30.505   7.001  0.1631 -0.3326  0.3403
14915W        W57931  25.690  23.959   2.494  0.2166 -0.1768  0.2241
14916W        W57932   1.431  13.334  29.237 -0.1369  0.0415  0.0101
14917W        W57933  10.225  21.645   3.232 -0.1032  0.0146  0.0439
14918W        W57934  25.374   5.824   1.531 -0.1089  0.0217  0.0952
14919W        W57935  32.048   7.411   1.774 -0.3745  0.0203 -0.0493
14920W        W57936  18.173  26.420   2.163 -0.0624  0.1597 -0.0848
14921W        W57937  27.748  22.959  17.229 -0.3429  0.0075  0.0858
14922W        W57938  16.866  22.469  16.008 -0.1547  0.4601 -0.0002
14923W        W57939   6.477  19.534  28.158  0.0806  0.1734 -0.0620
14924W        W57940   2.907  29.853  20.750  0.1089 -0.0705 -0.1757
14925W        W57941  29.385  24.678  27.009 -0.2819  0.0119  0.1812
14926W        W57942  33.505  28.897   9.364 -0.3637  0.2163  0.0343
14927W        W57943   6.538  32.280   8.959 -0.3962 -0.2993  0.0363
14928W        W57944  28.198  29.544  25.979  0.0471 -0.1539  0.0762
14929W        W57945   1.310  32.177  19.403  0.1217  0.4006  0.1816
14930W        W57946  20.879  21.561   0.156  0.1079  0.0635 -0.1662
14931W        W57947   7.493  27.106  27.165 -0.1089 -0.1422  0.0587
14932W        W57948   6.133   6.480  15.229  0.1154  0.0112  0.1810
14933W        W57949  16.089  33.044  23.253  0.1576 -0.3627  0.0835
14934W        W57950   9.127  21.719  25.644  0.1745 -0.1080  0.0963
14935W        W57951  29.291  30.721  21.174  0.0565  0.1796 -0.2001
14936W        W57952  27.610  21.234   3.274  0.0101 -0.3193 -0.0033
14937W        W57953   6.405  32.316  25.009  0.1013 -0.0506 -0.4171
14938W        W57954  29.113  28.296  28.627  0.0725 -0.1047  0.2406
14939W        W57955   1.670  25.882  28.081 -0.1721 -0.3089 -0.2575
14940W        W57956   3.677  32.472  21.015  0.1950  0.3546  0.0495
14941W        W57957   5.042  32.956  25.637 -0.2175  0.1929 -0.2798
14942W        W57958  28.310  22.480  22.258  0.0719 -0.1107  0.1189
14943W        W57959   4.697  15.572  18.365 -0.4329  0.0927 -0.0961
14944W        W57960  15.582  10.310  21.071 -0.2101  0.0409 -0.0734
14945W        W57961  22.659  29.898  29.148  0.2877  0.0039  0.0673
14946W        W57962  10.541  24.273   0.397  0.2849 -0.0042 -0.0837
14947W        W57963   6.002  28.868   2.186 -0.1757  0.2080 -0.0527
14948W        W57964   9.013  19.636  12.859  0.0898  0.1773  0.0597
14949W        W57965  30.556  21.945  15.967 -0.0461  0.1865 -0.0401
14950W        W57966   4.652  21.189  19.815 -0.1928 -0.0194 -0.1655
14951W        W57967   9.949   6.919   6.377 -0.1458 -0.2640 -0.0178
14952W        W57968  28.978  32.684  18.702 -0.3920 -0.0620 -0.1813
14953W        W57969   2.402  29.866   0.680 -0.3087 -0.1619  0.2926
14954W        W57970  25.483  24.662   1.372 -0.2767 -0.2029  0.1697
14955W        W57971   1.116  18.643  23.628  0.2830 -0.0195 -0.1841
14956W        W57972   2.114  20.046  17.954 -0.3732  0.2007  0.0221
14957W        W57973  24.361  18.402  25.352  0.0072 -0.4239  0.1485
14958W        W57974  16.700  10.512  14.078 -0.3228  0.0009  0.0345
14959W        W57975   5.615  16.072  14.679  0.0146 -0.1147  0.0427
14960W        W57976   0.052   1.962  21.076 -0.3854 -0.0358 -0.0877
14961W        W57977   1.256  20.924  26.550 -0.3129  0.1129  0.1741
14962W        W57978   4.382  23.955  14.815 -0.0963  0.1632 -0.3061
14963W        W57979  28.849   2.064  19.794 -0.1133  0.0911 -0.0622
14964W        W57980  34.607  27.543   1.455 -0.0411  0.2161  0.1105
14965W        W57981  31.120  34.221  29.125  0.2334 -0.0677 -0.2691
14966W        W57982   8.305  28.796  21.263  0.0429 -0.1124 -0.1344
14967W        W57983  29.449  10.241   0.514  0.0829 -0.1129  0.0813
14968W        W57984  24.323  18.455   0.858  0.0636 -0.0147 -0.0493
14969W        W57985   1.373   8.108  17.955  0.0749  0.0483  0.1796
14970W        W57986  13.111  16.616   5.323  0.0160 -0.3718 -0.1002
14971W        W57987   7.439  23.315  24.851  0.1819 -0.0110  0.1497
14972W        W57988  15.026  11.107  25.731  0.0084 -0.4153 -0.1308
14973W        W57989  10.295  18.327  23.960  0.2080  0.2226  0.1056
14974W        W57990   2.688  24.333  27.203  0.2423 -0.0375  0.1816
14975W        W57991  19.327  31.656  14.424 -0.0685  0.0276  0.1967
14976W        W57992   8.843  19.807  24.352 -0.2238  0.0462  0.1698
14977W        W57993  21.254  23.957  14.591 -0.0240  0.1198 -0.0534
14978W        W57994  16.844  30.698  25.575  0.1744  0.1652  0.2239
14979W        W57995  23.825  34.599  19.357  0.1628 -0.0346 -0.0530
14980W        W57996  14.647  12.171  12.961 -0.1357  0.0118  0.1865
14981W        W57997   9.905  10.502  16.523 -0.1279 -0.1432  0.0192
14982W        W57998  16.337  22.097   7.338  0.0217 -0.0215 -0.0546
14983W        W57999   0.668  30.903  24.514 -0.2928 -0.0542 -0.0390
14984W        W58000   0.957   6.586   5.693  0.0566 -0.0588  0.0588
14985W        W58001  28.585  28.129   0.668  0.0464 -0.3742  0.0763
14986W        W58002  31.733   7.874  24.218 -0.0837 -0.0949 -0.1387
14987W        W58003   2.003  26.105  13.651  0.1380 -0.1201  0.0938
14988W        W58004  11.407  16.972  24.965 -0.1225  0.0126  0.0352
14989W        W58005  28.959   1.590  18.561  0.1539  0.4203  0.1941
14990W        W58006  28.504  16.873  26.116  0.3427  0.1465  0.1872
14991W        W58007  11.431  25.571  13.333 -0.2601 -0.1595 -0.0225
14992W        W58008  25.912  25.214  16.976 -0.2528  0.0711  0.4450
14993W        W58009  34.110  20.966  20.177 -0.0130 -0.0359  0.4074
14994W        W58010   7.958  29.803  14.712 -0.2988  0.1075  0.0904
14995W        W58011   9.171  19.102  21.206 -0.2461  0.4788  0.0125
14996W        W58012   2.505  26.682   8.937  0.0446  0.0681 -0.2374
14997W        W58013  10.409  15.245  14.327 -0.1518 -0.1549  0.2296
14998W        W58014  18.216  12.165   1.614 -0.0139  0.0269 -0.3359
14999W        W58015  29.134  18.051   1.660  0.0944 -0.2909 -0.0866
15000W        W58016   6.135  20.772  16.107  0.0873  0.2428  0.0756
15001W        W58017  25.674  23.022  20.027 -0.1152  0.0951 -0.0514
15002W        W58018  33.805   1.821  21.963  0.2175 -0.0514 -0.1974
15003W        W58019   6.016  26.555  19.023  0.2091  0.1997 -0.0135
15004W        W58020   7.223  22.592  20.701 -0.1185 -0.2838  0.4241
15005W        W58021  33.547  26.513  19.141 -0.0978 -0.0883  0.0355
15006W        W58022  23.401  19.640   1.708  0.2930  0.1517  0.0454
15007W        W58023  26.617   8.194  17.147  0.0529  0.1038 -0.2616
15008W        W58024   7.503  21.608  27.044  0.0050  0.0787  0.2324
15009W        W58025   9.265  22.289   0.433 -0.1555 -0.0367  0.0072
15010W        W58026  26.079   8.996  16.917 -0.2698  0.1047  0.1922
15011W        W58027  29.847  16.184  18.775 -0.1806 -0.1704  0.1256
15012W        W58028  33.332  30.948  22.730 -0.2448  0.2780 -0.0360
15013W        W58029  27.844  14.753   0.152 -0.1402 -0.1059  0.2425
15014W        W58030   3.823  24.867  27.257 -0.1056  0.0589 -0.2496
15015W        W58031  33.756  26.520  25.884  0.1676 -0.1535 -0.0486
15016W        W58032   7.437  23.324  26.065  0.1567 -0.0006  0.0082
15017W        W58033   8.871  30.643  21.443  0.1129 -0.0804  0.0633
15018W        W58034  27.951   0.317   5.640 -0.1455 -0.0520 -0.2812
15019W        W58035   0.220  30.048  20.805 -0.0555 -0.1229 -0.0385
15020W        W58036  34.430  21.690  15.203  0.1616  0.2012 -0.1687
15021W        W58037  22.982  16.991  17.840  0.1636  0.2249 -0.0068
15022W        W58038   1.393  23.855  19.300 -0.1323  0.0628  0.1635
15023W        W58039  11.642   1.200  23.036 -0.1053  0.0087 -0.2071
15024W        W58040   8.115  23.948  17.908  0.1376  0.1745  0.0669
15025W        W58041  23.853  24.674  18.795 -0.1394  0.1690 -0.2094
15026W        W58042  28.174  20.195  26.824 -0.2231  0.0152 -0.0865
15027W        W58043   5.199  25.685  22.448 -0.1027 -0.1070  0.0083
15028W        W58044  30.308   5.553  19.099  0.0410  0.5114 -0.2068
15029W        W58045  24.244  13.537  19.976  0.0500 -0.0272 -0.2020
15030W        W58046  25.475  20.572  24.935  0.0432 -0.1590  0.0417
15031W        W58047  32.706  24.291   5.428 -0.1874 -0.3419  0.2420
15032W        W58048   0.915  26.596  20.935 -0.3177  0.1742 -0.1280
15033W        W58049  33.041  18.253  17.238 -0.1088  0.1089  0.2728
15034W        W58050  18.550  16.002  14.691 -0.0153  0.2112 -0.2363
15035W        W58051   1.001  18.266  28.029  0.0047 -0.0580 -0.1765
15036W        W58052  29.833   2.941  15.730 -0.0521 -0.3199 -0.2516
15037W        W58053  26.346  29.177  18.940 -0.3757  0.1497  0.0126
15038W        W58054  16.895  14.948  14.173  0.1236 -0.1012 -0.0066
15039W        W58055  15.359  14.250   2.073  0.2512  0.0328  0.0664
15040W        W58056  15.028  33.355  21.196 -0.0301 -0.2956 -0.2348
15041W        W58057   6.901  14.205  27.147  0.0963  0.2779  0.1898
15042W        W58058   3.364  22.268   5.336 -0.0696 -0.1132  0.1645
15043W        W58059   4.430  30.426  14.954  0.0400 -0.0617  0.0501
15044W        W58060  29.522   8.750   0.109  0.1996 -0.0993 -0.2330
15045W        W58061   9.773  22.107   8.052  0.0641 -0.0173 -0.3125
15046W        W58062   4.696  14.714  25.359 -0.1584 -0.4090 -0.0844
15047W        W58063  10.437  32.304  19.749  0.0316  0.0667  0.2138
15048W        W58064  30.501   0.830  22.920  0.0426  0.4112  0.0093
15049W        W58065  33.224  19.559  15.726 -0.4602  0.0526 -0.1609
15050W        W58066   3.173  30.565  25.180  0.0355 -0.1378  0.3093
15051W        W58067  27.411  25.128  29.253 -0.2336  0.1085  0.1704
15052W        W58068  24.087  21.940   6.305  0.2310 -0.0891  0.2868
15053W        W58069  14.601  31.498  25.800  0.1003  0.0980  0.2269
15054W        W58070  28.315  25.204  23.919 -0.0773 -0.2125 -0.1741
15055W        W58071  22.792  11.067  17.132  0.0248  0.0397 -0.1617
15056W        W58072  30.215  24.413  23.803  0.3307  0.0863 -0.0017
15057W        W58073  18.467   6.943  23.812  0.2239  0.2071  0.3047
15058W        W58074   7.646  33.362  18.254  0.0502  0.2729  0.2796
15059W        W58075  25.530  12.046  20.748 -0.1038 -0.1889  0.2796
15060W        W58076   1.007  12.074   3.920  0.0176 -0.0210  0.0609
15061W        W58077   2.770  14.814  24.351 -0.0042 -0.2171  0.2287
15062W        W58078  19.954  23.726   2.326 -0.1875  0.2697  0.0369
15063W        W58079   5.656   2.863  26.619 -0.0451 -0.2583 -0.3294
15064W        W58080   0.268  15.203  21.868  0.2808  0.1237 -0.0139
15065W        W58081   1.574  14.673  21.540 -0.1348 -0.0281 -0.1809
15066W        W58082  14.577  22.369  15.704 -0.2539 -0.2381  0.1080
15067W        W58083  11.964  21.434  12.720 -0.1442  0.1945 -0.0917
15068W        W58084  29.947  16.336  16.389 -0.1442  0.3042  0.3107
15069W        W58085   0.520   8.499  25.425 -0.0679  0.2956  0.1436
15070W        W58086  30.302  29.887   5.322  0.0614  0.0610  0.0319
15071W        W58087   7.402  25.265  24.116  0.2144  0.0432 -0.0217
15072W        W58088   5.626   8.842  15.740 -0.0173 -0.0250  0.3357
15073W        W58089  13.065  25.804  13.105 -0.1156  0.1576 -0.2296
15074W        W58090  22.016  30.805  20.661  0.2528  0.2522 -0.2383
15075W        W58091  23.231  20.259  25.977  0.1310  0.0357  0.0803
15076W        W58092  12.755  24.396  17.036  0.0466  0.1468  0.2336
15077W        W58093  23.553  24.444  28.570  0.3267  0.0575  0.0048
15078W        W58094  18.618  24.073  23.463 -0.2054 -0.1318 -0.2314
15079W        W58095  18.573  25.353  15.945  0.1980 -0.2969  0.0623
15080W        W58096  27.573  12.176   0.673  0.0720 -0.0020 -0.1717
15081W        W58097  23.379   9.160   1.937  0.1023 -0.3814  0.0212
15082W        W58098  26.280  16.064  20.133 -0.0518 -0.0557  0.0945
15083W        W58099   7.126  34.284  21.759  0.2702 -0.3037  0.1321
15084W        W58100   0.390  27.668  22.864  0.1741  0.0913  0.0102
15085W        W58101  30.247  17.299  27.470 -0.0045  0.0711 -0.0442
15086W        W58102  25.783  20.208  17.681  0.0105  0.2019 -0.0994
15087W        W58103   5.368  12.714  14.460 -0.2472 -0.0298 -0.1328
15088W        W58104   3.643  21.264  20.345  0.1480  0.2983 -0.2600
15089W        W58105  28.525   0.969  26.297  0.1677  0.0065 -0.0572
15090W        W58106   7.918  17.745  21.923  0.0748 -0.2443 -0.0465
15091W        W58107   5.558  24.126  20.027 -0.1838  0.0079 -0.4224
15092W        W58108   1.192  23.010  23.203 -0.1948 -0.1207 -0.3858
15093W        W58109   6.702  22.421  18.334  0.2972  0.0254 -0.3450
15094W        W58110  26.453   3.933  28.559 -0.1274  0.1232 -0.0512
15095W        W58111  17.365  24.720  15.181  0.0001  0.2311 -0.2890
15096W        W58112  26.422  29.450   0.051  0.5382 -0.1984 -0.3720
15097W        W58113  32.589  31.660  23.195  0.0086 -0.0628 -0.1101
15098W        W58114  30.596  24.306  28.417  0.1606  0.1280  0.0172
15099W        W58115  15.776  29.346   4.343 -0.1422 -0.1348 -0.3035
15100W        W58116  16.802  24.557  16.086  0.0679  0.3555  0.0216
15101W        W58117  27.008  26.622  19.150 -0.0804 -0.2041  0.3302
15102W        W58118  28.514  25.631   0.616 -0.0219 -0.1353 -0.1097
15103W        W58119  11.564  18.227  13.431 -0.0930 -0.0364  0.1804
15104W        W58120  20.633  16.963  13.884  0.0315  0.1665 -0.4859
15105W        W58121  27.172  30.757  20.778  0.0888 -0.0184  0.2288
15106W        W58122   6.103  22.801  25.884  0.1609  0.3987  0.0044
15107W        W58123  29.782  25.701  24.965  0.2269  0.2874 -0.2046
15108W        W58124  23.517  18.332  22.272 -0.0437 -0.0345  0.1351
15109W        W58125   1.722  20.924  18.281  0.5354 -0.0919  0.2481
15110W        W58126  33.715  14.491  14.771 -0.1543  0.0893 -0.0335
15111W        W58127  19.890  27.637  18.486 -0.3895 -0.2020 -0.0563
15112W        W58128  19.891  29.364  15.121  0.1227 -0.3248 -0.2700
15113W        W58129  24.755  11.364  23.922 -0.1222  0.0337 -0.1197
15114W        W58130   6.888  25.650  15.244  0.0110 -0.2461  0.0092
15115W        W58131   6.774  30.011  19.392  0.1830  0.2502  0.1318
15116W        W58132   5.799  27.724  25.888 -0.2190  0.2181  0.0961
15117W        W58133  10.315  23.058  28.774  0.3339 -0.0599  0.1672
15118W        W58134  10.074  14.670  22.417  0.0551 -0.2275  0.2264
15119W        W58135  23.893  15.234  27.179  0.2504  0.0696  0.1286
15120W        W58136   8.727   3.889  28.992  0.0345  0.1910 -0.0600
15121W        W58137  32.830   9.398   6.954 -0.1992 -0.1730 -0.0529
15122W        W58138   1.964  23.559  26.736  0.1804  0.1815 -0.0433
15123W        W58139   0.507  25.555  26.177  0.1955 -0.0522 -0.0152
15124W        W58140   3.620  12.376  25.308 -0.1287  0.1168 -0.1232
15125W        W58141  22.101  30.496  23.911 -0.1338  0.0929  0.1270
15126W        W58142  33.542  21.657  21.599 -0.3116  0.2535 -0.0559
15127W        W58143  33.956  23.470  16.936 -0.0618  0.0443  0.2413
15128W        W58144  27.310  30.272  17.184  0.4461  0.1046 -0.1539
15129W        W58145  12.189  21.346  21.536  0.0010 -0.1773  0.2427
15130W        W58146  13.255  30.464  15.510  0.3816 -0.3942  0.2597
15131W        W58147  10.983  31.846  18.221  0.0038 -0.1246 -0.0408
15132W        W58148   3.244  25.117  23.566  0.0955 -0.0687  0.0342
15133W        W58149   8.665  26.568  17.785  0.0137 -0.1555 -0.3518
15134W        W58150   4.107  26.235   3.870  0.2152 -0.2065 -0.2335
15135W        W58151   8.257  32.854   9.596 -0.0714 -0.0858 -0.2217
15136W        W58152  28.764  17.661  16.608  0.0719  0.0540 -0.1217
15137W        W58153  12.506  16.335  24.700 -0.0262 -0.2891  0.1543
15138W        W58154  18.187  34.226  18.213 -0.1377  0.1542 -0.2093
15139W        W58155  16.081  22.448   3.588 -0.2974  0.0410 -0.1433
15140W        W58156   8.841  15.172  28.494 -0.3518  0.0441 -0.0807
15141W        W58157  30.701  11.056  20.969  0.4194 -0.0045 -0.0170
15142W        W58158   9.982  34.079  25.379  0.2768  0.3902 -0.0275
15143W        W58159  32.330   0.705  28.771 -0.0909  0.1686  0.1754
15144W        W58160   6.121  29.056  22.940 -0.0713 -0.2004 -0.0150
15145W        W58161  26.603   4.211  17.742 -0.1691  0.1528 -0.0658
15146W        W58162  26.947   7.177   1.733  0.1126  0.0698 -0.0746
15147W        W58163   2.674  13.021   5.455  0.0894 -0.2989  0.0099
15148W        W58164  22.039  13.307  21.671  0.0786  0.3868  0.0984
15149W        W58165  23.754  19.624  21.278 -0.0666 -0.2242  0.1199
15150W        W58166  27.393  21.235   3.720  0.3328 -0.1294 -0.0701
15151W        W58167   2.008  13.026   5.435  0.0516  0.1154 -0.0840
15152W        W58168   2.096  18.364  23.489 -0.0447  0.0968 -0.1092
15153W        W58169   9.683   2.584  25.272 -0.4540 -0.3546  0.2276
15154W        W58170  33.422  24.153   8.865  0.1992  0.0172  0.1746
15155W        W58171  33.261   0.460   9.961 -0.0463  0.0238  0.0846
15156W        W58172  31.735  30.062  10.123  0.1813 -0.2645  0.2217
15157W        W58173  29.019   2.236   0.189 -0.1790  0.1372 -0.0923
15158W        W58174  21.068  19.098   0.033 -0.0338  0.2133  0.1264
15159W        W58175  20.824   8.890  24.634 -0.0486 -0.0355  0.1015
15160W        W58176  31.674  29.818   1.743 -0.0094  0.2345  0.0760
15161W        W58177  21.470  20.685  14.888 -0.3594 -0.1334  0.0366
15162W        W58178   7.491  22.427  23.400  0.1609 -0.0624  0.0009
15163W        W58179  33.854  27.296   8.495  0.1439  0.1246  0.0912
15164W        W58180  24.887   2.935  19.888 -0.1054  0.0495  0.0652
15165W        W58181   1.306  24.417  24.949 -0.3915 -0.0925 -0.0041
15166W        W58182  13.880   0.923  20.816  0.0455  0.1111  0.4907
15167W        W58183  13.870  13.306  22.907 -0.0532  0.0394 -0.1170
15168W        W58184  32.589  23.984  23.477  0.3707 -0.2223 -0.0025
15169W        W58185  14.103  31.093  15.909  0.0238 -0.0118  0.0215
15170W        W58186  27.374  19.547  21.372  0.0381  0.1554 -0.2868
15171W        W58187   4.008  27.223   1.237  0.3243 -0.1031  0.0913
15172W        W58188  24.085  12.388   8.394  0.2596 -0.0150  0.0101
15173W        W58189   2.624   8.385   2.026  0.0709  0.2655 -0.2010
15174W        W58190  33.614  27.682   6.425 -0.1839  0.1119  0.1291
15175W        W58191   9.286  27.222  14.146 -0.2023  0.1924  0.1114
15176W        W58192   2.325  25.836   5.533 -0.0506  0.1175 -0.0143
15177W        W58193   3.497   1.492  20.770  0.1044 -0.2000  0.1575
15178W        W58194  29.332  12.389  20.969  0.2928  0.0158  0.0892
15179W        W58195   6.859  22.881   3.243  0.1458  0.1208 -0.0429
15180W        W58196  14.237  19.654  24.760  0.0068 -0.2668  0.0746
15181W        W58197  24.601  28.246   1.824 -0.1932  0.0707 -0.0492
15182W        W58198  19.134  22.927   9.511  0.1200 -0.1128  0.1652
15183W        W58199  24.541  27.657  10.284 -0.4092 -0.1533  0.1803
15184W        W58200  23.557  14.698  17.372  0.1549  0.0621  0.2900
15185W        W58201  34.415   1.937  16.725 -0.0367  0.1172  0.4273
15186W        W58202  33.782  26.828   0.936  0.0290  0.2244  0.1737
15187W        W58203   9.585  23.999  21.868  0.1882 -0.3281  0.1773
15188W        W58204  27.545  14.326  24.109 -0.0273 -0.2226 -0.1596
15189W        W58205  26.679  21.538  21.903  0.3023  0.0250 -0.2152
15190W        W58206  28.523  32.558  23.833  0.2606  0.0427  0.0643
15191W        W58207   6.971  34.471   0.397  0.0166  0.1106  0.1573
15192W        W58208  29.845  13.644   2.089 -0.2537 -0.1452 -0.0884
15193W        W58209  12.249   5.635  22.125  0.1943  0.1054  0.0485
15194W        W58210   9.268  27.114   3.670 -0.0518  0.0516 -0.1057
15195W        W58211  18.188  29.151  21.556  0.2123  0.1019 -0.0335
15196W        W58212  22.402  27.007  19.329 -0.5409 -0.3160 -0.0991
15197W        W58213  28.319  30.605  28.348  0.0036  0.2142  0.1539
15198W        W58214  11.786  23.748  18.311 -0.1494 -0.0295 -0.1745
15199W        W58215  29.238  12.142  15.851 -0.0932 -0.0230  0.3019
15200W        W58216  20.194  19.004  13.117 -0.0187  0.2650  0.1885
15201W        W58217   4.311  31.219   2.456  0.0271  0.1520  0.0203
15202W        W58218   8.798  29.366  28.119  0.0958 -0.1566 -0.0735
15203W        W58219   3.365  28.604   0.856  0.3534  0.1735 -0.2728
15204W        W58220  13.225  24.326   0.614  0.0827 -0.0187  0.1133
15205W        W58221   2.912  24.928   9.206  0.1305  0.1075  0.1420
15206W        W58222  12.916  30.705  28.961 -0.0780  0.1437  0.5608
15207W        W58223   9.279  29.791  24.092 -0.0891 -0.1994  0.1882
15208W        W58224  28.209  12.720  24.945  0.0865 -0.1576 -0.3864
15209W        W58225  34.289  31.648   3.629 -0.0362  0.3793 -0.2171
15210W        W58226  15.596   0.933   5.690 -0.3464  0.1758 -0.3604
15211W        W58227  33.371  27.540   5.971  0.1757  0.0741 -0.5507
15212W        W58228   3.936  15.873  14.498 -0.1610 -0.2327 -0.1203
15213W        W58229  30.847  21.004  22.054 -0.0788 -0.4597  0.2453
15214W        W58230   1.730  31.941  27.143 -0.0221 -0.1207 -0.1846
15215W        W58231   4.387  17.565  28.428 -0.3391  0.0720  0.2270
15216W        W58232  31.525   7.476  26.263  0.0060  0.1689  0.1658
15217W        W58233  18.695  34.617  26.501 -0.0626  0.1688 -0.4095
15218W        W58234  24.641   0.471  26.105  0.1175 -0.0093  0.4006
15219W        W58235  21.110  17.023  26.876  0.1313 -0.4618 -0.2125
15220W        W58236  20.964  27.573  28.200  0.2606 -0.0184  0.0269
15221W        W58237  26.162   3.982   9.667  0.2277  0.0157  0.0768
15222W        W58238  16.697  26.126  19.836  0.0093  0.0479 -0.0298
15223W        W58239  14.472  20.072  24.439 -0.0707 -0.1989  0.2199
15224W        W58240  21.447  25.895  16.788  0.3210  0.4227 -0.0745
15225W        W58241   6.097  26.349  24.542 -0.0163  0.0187 -0.1869
15226W        W58242   9.086  25.243   7.468  0.1229 -0.2285  0.1871
15227W        W58243  10.468  34.544   9.625 -0.1629  0.1297 -0.0150
15228W        W58244   3.368  32.299  25.826 -0.0529 -0.1526 -0.4895
15229W        W58245   6.171   6.121  18.850 -0.0276 -0.0771 -0.1246
15230W        W58246  11.594  31.663   8.897 -0.0715  0.2109  0.2784
15231W        W58247  20.724  33.005  16.629 -0.1498 -0.0547 -0.0080
15232W        W58248   9.925  31.569   5.032 -0.0735 -0.0319  0.0506
15233W        W58249   7.624   8.532   0.320 -0.0071  0.1213 -0.0200
15234W        W58250  11.113  16.011  19.785 -0.2260  0.0137 -0.0456
15235W        W58251  13.100  16.542  20.080 -0.2019  0.2044 -0.2893
15236W        W58252   6.715   0.959  19.415  0.1647  0.1244  0.3802
15237W        W58253   2.301  20.642  14.695  0.0446  0.1716  0.0153
15238W        W58254   7.078  19.983   7.301 -0.2515  0.0175  0.5488
15239W        W58255   3.446  10.986   8.271  0.4237  0.0473  0.0803
15240W        W58256   1.914  17.522  27.371  0.0843 -0.1674 -0.0385
15241W        W58257  28.732  17.704  26.547 -0.0753 -0.0462 -0.1301
15242W        W58258  30.207  25.277   7.067  0.1391 -0.0445  0.0710
15243W        W58259   5.120  26.346  23.193  0.1310  0.3437  0.0340
15244W        W58260  12.680  14.533   6.627  0.0840 -0.0928  0.2801
15245W        W58261  10.851  18.181  18.866 -0.2314  0.1233 -0.2351
15246W        W58262  20.926  12.172  24.717  0.1019 -0.1553 -0.1057
15247W        W58263  23.582  18.783  14.458 -0.2985  0.2358 -0.1910
15248W        W58264  31.367  25.620  24.167  0.1808  0.1648  0.3206
15249W        W58265  11.331  25.855  17.859  0.0131  0.0534 -0.1396
15250W        W58266  29.634  18.470  18.829  0.2466  0.2587  0.2525
15251W        W58267  30.563   4.966   1.237  0.2123 -0.0665 -0.2724
15252W        W58268   1.284   0.346  21.014 -0.0966  0.1796  0.2148
15253W        W58269  31.723  23.343   0.419  0.1192 -0.0359  0.1976
15254W        W58270  23.583  18.547   3.475 -0.0427 -0.2251  0.1697
15255W        W58271  10.566   2.380   5.649 -0.0874 -0.2557 -0.1509
15256W        W58272   7.082  30.710   0.638  0.0422  0.1013  0.1490
15257W        W58273   2.838  22.251   7.020  0.1087 -0.0058 -0.0457
15258W        W58274  27.148   6.479   1.519 -0.0417 -0.1609 -0.1146
15259W        W58275   4.529  19.912  27.007  0.1864  0.2022  0.3737
15260W        W58276  25.411  22.765  18.643 -0.0378  0.3711 -0.3182
15261W        W58277  27.227  30.194  20.632 -0.3314  0.0875  0.0651
15262W        W58278  21.859  15.620  24.850 -0.0416  0.3284  0.0465
15263W        W58279  28.499  34.493   7.273  0.1109 -0.1224  0.2436
15264W        W58280  32.111  33.903  23.044  0.0803 -0.2263 -0.2549
15265W        W58281  24.122  31.010  20.549 -0.0597  0.0248 -0.0848
15266W        W58282  10.092   8.119  22.794 -0.1646 -0.2176  0.2079
15267W        W58283  30.727  32.750   7.484  0.0182  0.0360  0.0414
15268W        W58284   4.286  21.699  26.427  0.1349 -0.0804 -0.1396
15269W        W58285  13.127  15.625  21.653 -0.0843 -0.2119  0.1261
15270W        W58286  20.621  15.144   0.441 -0.1892  0.0261  0.0065
15271W        W58287  22.207  32.529   9.546  0.0399  0.0197  0.1106
15272W        W58288  26.109  23.255   3.816  0.2982 -0.2608  0.0921
15273W        W58289  29.288  12.828  19.698 -0.0918  0.1330  0.1832
15274W        W58290  11.477  11.698  29.001  0.0372  0.0160  0.1800
15275W        W58291  16.491   7.978   0.616  0.3355 -0.0906  0.5761
15276W        W58292  34.040   5.336  24.167 -0.0364 -0.0419 -0.1791
15277W        W58293  11.411  18.541  19.324 -0.0217 -0.1079 -0.1366
15278W        W58294  27.568  34.273   1.922  0.2335  0.0175 -0.1203
15279W        W58295  17.663  15.911  25.432  0.0395 -0.2505 -0.1189
15280W        W58296  29.181  25.186   5.471  0.0664  0.3460  0.0381
15281W        W58297  29.150  15.471   5.894  0.0100 -0.1872  0.2263
15282W        W58298  22.550  24.261   1.037 -0.0073 -0.0978 -0.0614
15283W        W58299  24.071  17.204  18.784  0.0212 -0.0018 -0.1069
15284W        W58300   9.075   7.141  21.569  0.1372 -0.0136 -0.1990
15285W        W58301  34.354  31.631  21.906  0.2786 -0.1348  0.1409
15286W        W58302  12.944  27.505  25.225  0.0014  0.2510  0.1583
15287W        W58303  16.455  16.336  25.907 -0.2116  0.0335  0.3827
15288W        W58304   3.604  13.217  27.598 -0.0396  0.0825  0.1567
15289W        W58305  16.689  10.613  14.523 -0.2867 -0.1467 -0.2484
15290W        W58306   0.427  20.489   2.122  0.3714 -0.3259  0.4274
15291W        W58307   9.061  20.269   8.799  0.1536  0.1988 -0.0231
15292W        W58308  15.348  26.401  16.677  0.2564  0.2114 -0.2394
15293W        W58309   8.907  15.176   5.479  0.0317 -0.2816 -0.1359
15294W        W58310   8.346  19.580   8.111  0.2279 -0.6616  0.0034
15295W        W58311  18.741   1.814   8.391 -0.1551 -0.0853 -0.0597
15296W        W58312  23.079  28.489  27.624 -0.1540  0.1049 -0.1827
15297W        W58313  29.503   2.696  15.468  0.1105 -0.2334 -0.2493
15298W        W58314  24.373  31.166  23.440  0.0302  0.0279 -0.2153
15299W        W58315   2.053  23.023  27.439  0.0255 -0.1836  0.0331
15300W        W58316   1.851  30.967  14.861 -0.2259  0.2145  0.0284
15301W        W58317  10.326  26.137   4.636  0.4179 -0.2051  0.1799
15302W        W58318  22.179  13.752   6.907 -0.1956  0.2836 -0.0036
15303W        W58319   1.543  11.096   4.164  0.0262 -0.2172  0.1426
15304W        W58320  30.100  34.255  21.625 -0.2128 -0.0187  0.2827
15305W        W58321   4.675  22.093  25.233  0.1978  0.0112 -0.0212
15306W        W58322   5.245  27.221   3.537 -0.4090  0.2512  0.0592
15307W        W58323   2.180   0.019   3.884  0.0657 -0.0499 -0.2641
15308W        W58324  32.040  23.062   6.300  0.1269  0.2127  0.0238
15309W        W58325   5.365  28.947  27.078 -0.1412  0.0391 -0.3678
15310W        W58326   5.179  21.547   1.142  0.1082 -0.0168 -0.0668
15311W        W58327   5.604  24.968   6.354  0.2316 -0.0481  0.2180
15312W        W58328   0.737  31.234  14.497 -0.1988  0.1095 -0.2613
15313W        W58329  26.725  12.703   2.514  0.0345 -0.0651  0.1047
15314W        W58330   8.197  34.265  10.152 -0.1959  0.2014 -0.1005
15315W        W58331  11.592  15.566   1.830  0.0286 -0.0886 -0.0486
15316W        W58332  32.378  18.370  23.317 -0.1490  0.0352 -0.0324
15317W        W58333  11.952   9.671  24.520 -0.1283  0.0636 -0.1422
15318W        W58334  13.591  20.883  23.972 -0.0699 -0.2052  0.0298
15319W        W58335  11.581  28.009   4.560 -0.1978  0.0226 -0.1988
15320W        W58336   3.246  10.354   9.377  0.0571 -0.1741 -0.3044
15321W        W58337  21.291  16.393   0.009  0.3450 -0.1285  0.1758
15322W        W58338   6.346  16.200   7.206  0.0141 -0.0793 -0.1992
15323W        W58339  18.741  20.496  22.700  0.0351 -0.0418 -0.3148
15324W        W58340  30.800  22.174  17.045  0.1473  0.1421 -0.2544
15325W        W58341  13.905  24.309   7.149 -0.1039 -0.0291 -0.1808
15326W        W58342  25.385   1.295   3.663  0.1150  0.0674 -0.4586
15327W        W58343   2.101  34.487  28.961 -0.1724  0.0842 -0.1425
15328W        W58344  19.704  31.404  25.189  0.2098  0.0674  0.0787
15329W        W58345  14.758  30.795  17.625 -0.0262  0.4147 -0.0281
15330W        W58346  30.086  11.133   7.161  0.1514 -0.0662  0.1867
15331W        W58347  16.808  31.237  27.328  0.0076  0.0780  0.2465
15332W        W58348  29.575  22.156  11.248 -0.2190 -0.0841  0.2477
15333W        W58349  15.324  26.579  14.057  0.0540  0.1168  0.0840
15334W        W58350  28.864  17.632  23.500  0.1004 -0.1943  0.0467
15335W        W58351  34.428  12.208   3.035  0.2824  0.0512 -0.1296
15336W        W58352   1.652  26.628  27.017  0.1663  0.1134  0.0210
15337W        W58353  19.694  18.847   4.466 -0.1138  0.1525  0.2688
15338W        W58354  11.394  24.703  13.486 -0.3199 -0.2390  0.1794
15339W        W58355   9.321  32.283  28.701  0.0225 -0.1266 -0.0946
15340W        W58356   0.566  33.856   6.391  0.0237 -0.1782  0.0265
15341W        W58357   8.685  14.351   7.828  0.2038  0.0460 -0.0325
15342W        W58358  20.589  24.683   1.238  0.1238  0.1232  0.2392
15343W        W58359   8.119  10.899   3.239 -0.0489 -0.0239  0.0325
15344W        W58360   4.910  28.299  25.240 -0.3964 -0.0108  0.1935
15345W        W58361   6.039  27.112   0.115 -0.0234  0.2299 -0.0177
15346W        W58362  33.764   5.597   2.012  0.1786 -0.1827 -0.2852
15347W        W58363  28.973  11.506  19.406 -0.2176 -0.2579 -0.2125
15348W        W58364  24.321  31.586  21.869  0.2007  0.2053 -0.2014
15349W        W58365  33.176  23.918  18.437  0.1940  0.1550  0.3394
15350W        W58366   4.802  26.700  25.611 -0.1081  0.0184 -0.3755
15351W        W58367   4.623  22.182  15.258 -0.3570  0.0373 -0.1346
15352W        W58368  24.304  20.352  15.589  0.2334  0.0918  0.1096
15353W        W58369   5.483  22.263  26.634  0.0740  0.0705 -0.2728
15354W        W58370  26.239  15.482  21.096 -0.0553 -0.2122  0.1564
15355W        W58371  17.517  20.826  16.511  0.5371  0.2674 -0.2066
15356W        W58372   3.510  31.938   3.973 -0.0310  0.0124  0.0329
15357W        W58373   8.411  31.985   3.253  0.0067 -0.1885 -0.0152
15358W        W58374  26.444   7.161  21.665  0.0079  0.2485 -0.2959
15359W        W58375  22.251  21.585  20.544 -0.0483 -0.3815  0.1224
15360W        W58376  28.417   8.857  26.470 -0.1159  0.1554  0.0051
15361W        W58377   9.123  31.256  13.536  0.2972 -0.1250  0.0395
15362W        W58378   9.373  26.771   4.308  0.0873  0.1769  0.0549
15363W        W58379  19.221  14.062   2.896  0.2387 -0.3438  0.1745
15364W        W58380   1.460  28.353   1.205 -0.0399  0.0770 -0.1124
15365W        W58381  32.627  27.663  15.066 -0.0469 -0.0502  0.3866
15366W        W58382  14.203   0.871  26.611  0.0022  0.3899  0.1731
15367W        W58383   7.558  24.658   0.351  0.1169  0.1920  0.2224
15368W        W58384  15.481  26.073   2.560  0.0087  0.2993  0.2673
15369W        W58385  26.406  16.881   5.824  0.0455  0.0747  0.2778
15370W        W58386   3.856  15.108  14.912  0.3348 -0.0016 -0.1573
15371W        W58387   1.304  22.597   6.961  0.0435  0.1080 -0.0835
15372W        W58388  29.030  21.711  29.092  0.2796 -0.1255  0.1675
15373W        W58389  19.312  23.750  20.596  0.0852  0.1831  0.0311
15374W        W58390  24.753  18.853   8.661  0.2714  0.0083 -0.0890
15375W        W58391   5.503   3.688  22.691  0.0101  0.4848 -0.1684
15376W        W58392   9.790  19.519  23.102 -0.0452 -0.1632 -0.3287
15377W        W58393  33.671  22.382  18.016  0.0285  0.0667  0.1295
15378W        W58394  30.168  21.579   1.445 -0.0254 -0.1514 -0.0583
15379W        W58395  13.077  20.277  13.839 -0.1299  0.0026 -0.3254
15380W        W58396  10.091  26.406  27.817 -0.0508  0.1260 -0.2799
15381W        W58397   6.795  23.668  22.167 -0.3276  0.0822  0.1084
15382W        W58398  10.023  23.394  28.245  0.0587 -0.0712 -0.1484
15383W        W58399  15.625  32.882  28.049 -0.0910  0.3576 -0.1828
15384W        W58400  31.653  13.273   1.014  0.0731  0.2007  0.1097
15385W        W58401   0.255  17.485  10.562 -0.0028  0.2523 -0.0459
15386W        W58402  31.613  31.950  26.542  0.1946  0.2061 -0.0240
15387W        W58403  33.607  19.948  24.135  0.4523  0.4178  0.2087
15388W        W58404   3.403  13.312  22.450  0.2647  0.1495  0.1638
15389W        W58405  23.517  27.321  14.621 -0.1633  0.0791  0.0394
15390W        W58406  29.782  26.853   8.890 -0.3922  0.0717 -0.1440
15391W        W58407  18.310  17.025  26.113 -0.4491  0.1602  0.0995
15392W        W58408  19.125  28.576   3.378  0.0883 -0.4893  0.4159
15393W        W58409  14.695  29.173  27.558 -0.0530 -0.2171 -0.0222
15394W        W58410   3.677  14.893   3.792 -0.1510 -0.4369 -0.1132
15395W        W58411  13.002  21.514   2.527  0.3352  0.0313 -0.2599
15396W        W58412   7.310  14.075  28.450 -0.3528  0.1459  0.0081
15397W        W58413   5.952  10.895  25.024 -0.1681  0.1642 -0.1475
15398W        W58414  24.173  23.534   5.846 -0.0203 -0.1874  0.1911
15399W        W58415  27.435  11.441  20.368 -0.0191 -0.0792  0.0081
15400W        W58416   5.696  24.056  16.850 -0.0445 -0.1384 -0.0039
15401W        W58417  28.718  18.317  16.706  0.2567  0.2087 -0.1430
15402W        W58418  27.401   8.787  29.002 -0.0209  0.2339 -0.0219
15403W        W58419   6.738  23.189  23.479 -0.0564 -0.0976  0.1108
15404W        W58420   4.709  21.269  22.909  0.1679  0.2582 -0.0495
15405W        W58421  30.228   6.064  20.910  0.2726 -0.0662 -0.0328
15406W        W58422   4.823   0.083  17.609  0.4096  0.1018 -0.1096
15407W        W58423  26.069  31.547  18.549  0.0515 -0.1721  0.0804
15408W        W58424  18.925  25.544   7.849  0.0577  0.0614  0.0291
15409W        W58425  15.871  29.278  25.172  0.2296  0.1323  0.0966
15410W        W58426  32.254  25.884  23.624 -0.6036  0.1953 -0.3498
15411W        W58427  11.299  10.958  15.580  0.2569 -0.0333  0.0885
15412W        W58428  29.135  26.568   4.037  0.0469  0.1550  0.2349
15413W        W58429  17.950   0.677   8.959  0.1953  0.1488 -0.2694
15414W        W58430  28.720  29.286  25.416  0.0720  0.2235 -0.2261
15415W        W58431   7.673   5.476  20.454  0.0984  0.3281  0.0409
15416W        W58432  12.666  11.254  17.152 -0.1037  0.1046 -0.1013
15417W        W58433  31.401  15.061   9.282 -0.2040  0.0858 -0.0924
15418W        W58434  33.686  26.453  28.572 -0.5375 -0.0402 -0.0654
15419W        W58435  14.120  11.298   2.431 -0.0913  0.0900  0.0359
15420W        W58436  24.942  22.225  22.985 -0.2629  0.2269  0.0645
15421W        W58437  10.876  34.766   1.567  0.1132 -0.0586 -0.1937
15422W        W58438   4.977  19.030  15.494 -0.0108 -0.4477  0.0227
15423W        W58439  10.119  15.131  16.153 -0.0585  0.0473 -0.6050
15424W        W58440   2.964   7.073   1.074  0.4638 -0.0045 -0.1176
15425W        W58441  12.289  25.209  20.631 -0.1949  0.1977 -0.3530
15426W        W58442  29.713  22.355   4.832 -0.3016 -0.2445 -0.0078
15427W        W58443  29.802  17.195  21.917 -0.0253 -0.1817  0.3465
15428W        W58444   8.779  17.411  17.233  0.1547 -0.1334 -0.2073
15429W        W58445  17.919   0.302   7.996 -0.3027 -0.0235 -0.3904
15430W        W58446  32.588  28.415   4.213  0.1919  0.1284  0.0173
15431W        W58447  13.773  29.629  27.662  0.2982  0.2318  0.2063
15432W        W58448  31.149  31.546   3.092 -0.1493  0.3561  0.2344
15433W        W58449  30.539  24.707  21.689 -0.1877  0.1377  0.5948
15434W        W58450  22.142   3.888  21.105  0.1012  0.0562 -0.1187
15435W        W58451  20.843  10.362  21.433 -0.1962  0.0877  0.1792
15436W        W58452  30.703  23.044  15.849  0.1340 -0.0697 -0.1610
15437W        W58453  12.165   3.000  21.006  0.2566 -0.1610  0.0105
15438W        W58454  26.675  23.187   7.505 -0.0500 -0.1506  0.0244
15439W        W58455   0.598  12.713  21.691 -0.1097  0.0018  0.0064
15440W        W58456  24.859  19.774   1.194  0.0771  0.2287 -0.0833
15441W        W58457  24.100  12.471  26.525 -0.1068 -0.3578  0.1550
15442W        W58458  14.284  29.348  22.159 -0.2935 -0.1403  0.0471
15443W        W58459  19.533  20.858  27.336  0.0391  0.1339 -0.1265
15444W        W58460  19.616  31.636   8.791 -0.1710 -0.0275 -0.1439
15445W        W58461  34.385  19.998  26.295 -0.1540  0.1664 -0.1729
15446W        W58462  34.192   3.657  26.822  0.4481 -0.2303 -0.2560
15447W        W58463  18.861  29.450  10.614 -0.3048 -0.2724  0.1934
15448W        W58464   4.054  33.145  19.188  0.4081  0.0788  0.0430
15449W        W58465   2.607  24.124   7.111 -0.1327  0.1956 -0.0536
15450W        W58466   4.746  27.574  23.705  0.3709  0.2687  0.2218
15451W        W58467  17.074  17.651  27.918 -0.3989 -0.1304 -0.1321
15452W        W58468  13.843  20.203  28.777  0.1718  0.1521  0.0278
15453W        W58469   0.115  23.743  26.681  0.1341  0.1542  0.1327
15454W        W58470  16.386  20.976   2.112 -0.0061 -0.0737 -0.0262
15455W        W58471  33.943  20.554  25.309 -0.1150  0.3048  0.2280
15456W        W58472  26.100  18.592  16.874 -0.1648  0.0065  0.0516
15457W        W58473  15.977  33.810   6.628  0.3336  0.1680  0.5135
15458W        W58474  21.047  24.281   0.647 -0.0822 -0.2695 -0.0839
15459W        W58475   9.486   4.661  23.882  0.0470 -0.1757  0.1537
15460W        W58476   0.966   1.210   4.949  0.0792 -0.0925  0.0059
15461W        W58477   6.548   1.393   5.001  0.0754  0.0011 -0.1983
15462W        W58478   7.232  23.394   1.188  0.3885 -0.0128 -0.1601
15463W        W58479   5.902   7.426  19.228  0.1581 -0.0031 -0.2153
15464W        W58480  19.623   3.937   2.340  0.2810  0.2715 -0.0227
15465W        W58481  30.435   3.370   6.222 -0.0988 -0.0192 -0.1337
15466W        W58482  30.133  12.029  17.657 -0.1657 -0.0416  0.0194
15467W        W58483   3.657   0.524  23.593  0.1800  0.2256  0.3431
15468W        W58484  32.583  19.200   2.630  0.3091  0.2591  0.1476
15469W        W58485  26.677  22.708   9.462 -0.3469  0.2519  0.0554
15470W        W58486  25.480  17.791  19.798 -0.3801  0.1491  0.0524
15471W        W58487  31.288  17.065   0.622 -0.1157 -0.6642  0.1672
15472W        W58488  29.650  33.828  11.186  0.1786  0.1609  0.1708
15473W        W58489   0.263  28.871   3.944 -0.1502  0.0756  0.0564
15474W        W58490  10.636  13.873  20.371  0.1571 -0.0259  0.1449
15475W        W58491  10.736  32.503   6.882 -0.2508 -0.0843  0.0090
15476W        W58492   2.017   7.251  23.871  0.2676 -0.1112  0.5565
15477W        W58493  30.309  23.343   8.307 -0.0232 -0.4317  0.0074
15478W        W58494   4.498   6.005  17.121  0.0680 -0.1188 -0.3499
15479W        W58495  21.484  24.911  15.176  0.0113  0.0094 -0.0399
15480W        W58496   6.319  34.209  25.876  0.0696 -0.2907  0.2188
15481W        W58497  33.393  16.628  19.325 -0.3737 -0.0623  0.3360
15482W        W58498  11.757  19.468  21.890  0.2148  0.1033  0.1034
15483W        W58499  11.699  22.952  27.438  0.0596 -0.2032 -0.0124
15484W        W58500   9.140  24.777   0.376  0.0640 -0.1037  0.2627
15485W        W58501  26.828  34.536   6.533 -0.1487 -0.2189 -0.0122
15486W        W58502  12.317  16.082  17.213  0.2204  0.0397  0.0288
15487W        W58503   0.480   3.860  25.842 -0.0843  0.0077  0.0359
15488W        W58504  33.441  21.799  24.127  0.2882 -0.0950 -0.0930
15489W        W58505  34.721  18.554  24.153  0.0241  0.0512  0.5389
15490W        W58506  32.354  31.238  10.892 -0.4223  0.1575  0.0362
15491W        W58507  18.589   5.479  13.795  0.1138  0.3575 -0.1357
15492W        W58508  18.420  23.146   1.908 -0.0359 -0.1072  0.0137
15493W        W58509  18.167  31.755  18.506  0.0697  0.2521 -0.0198
15494W        W58510  28.662  15.648  24.771  0.2357 -0.2901 -0.0527
15495W        W58511  24.884  26.157  25.340  0.0227  0.0679 -0.1198
15496W        W58512  16.932   4.094   4.392 -0.2225 -0.0510 -0.0399
15497W        W58513   2.075  25.939  21.309 -0.0541  0.2448 -0.3651
15498W        W58514   9.742  16.112  21.602 -0.1560  0.3668  0.2407
15499W        W58515  30.797  33.939   1.494  0.1313 -0.0373  0.2400
15500W        W58516  32.953   6.899   3.609  0.1612 -0.0756  0.3295
15501W        W58517  25.588  21.654  14.979 -0.2066 -0.2261  0.0707
15502W        W58518   6.967  29.253   9.604  0.2346 -0.1819 -0.0608
15503W        W58519  33.961  30.773  28.331 -0.1204 -0.0674 -0.2073
15504W        W58520   6.258  32.177  26.279 -0.0504 -0.1618  0.0017
15505W        W58521  32.591   6.728  17.782  0.0295  0.0006 -0.0251
15506W        W58522  10.857  27.002  27.962  0.1940 -0.0024 -0.1432
15507W        W58523  11.056   0.593   4.083 -0.0138  0.1667 -0.0281
15508W        W58524  27.249   8.948  16.707 -0.1357  0.3687  0.1117
15509W        W58525  11.983  30.485  26.689  0.1652 -0.0486 -0.0894
15510W        W58526   8.680   6.747  27.438  0.3681  0.3196 -0.2077
15511W        W58527   0.502   7.629   7.132  0.0926  0.0150  0.1212
15512W        W58528   2.413   9.776   7.621  0.3428 -0.0080  0.0688
15513W        W58529   0.392  15.893  24.779 -0.0781  0.0473 -0.2470
15514W        W58530  26.746   1.713   7.418  0.0522  0.1951 -0.1071
15515W        W58531  26.192  28.721   0.911 -0.0604 -0.1369 -0.2766
15516W        W58532  26.320  29.053  19.986 -0.0887  0.3898  0.1809
15517W        W58533  29.263  29.255   7.622 -0.1117 -0.1767  0.1559
15518W        W58534  20.968  28.027  20.966 -0.1588 -0.1103  0.1287
15519W        W58535  28.512  32.643  22.415  0.1873  0.0958 -0.0097
15520W        W58536   5.611  30.254  27.569 -0.2093  0.2074  0.0337
15521W        W58537  27.727  23.195   9.497  0.3783  0.0940  0.0309
15522W        W58538   0.738  23.136  21.748  0.0151  0.1608  0.1151
15523W        W58539   3.483  29.391  19.397  0.2365  0.1345 -0.0071
15524W        W58540  33.563  21.255  18.720 -0.0731  0.5427 -0.0002
15525W        W58541  30.959  26.304   1.486  0.0980  0.1364 -0.0192
15526W        W58542   2.267  33.437  15.540  0.1331  0.0714 -0.3246
15527W        W58543  27.946  15.049  28.947  0.0877 -0.1062 -0.0718
15528W        W58544  29.446   9.612   4.972  0.2635  0.0239 -0.0568
15529W        W58545   4.977  15.826   1.909  0.1923  0.2142  0.0724
15530W        W58546   3.791   4.349   7.830 -0.0640  0.0680 -0.1041
15531W        W58547   9.590  22.190   4.109  0.0325 -0.2625 -0.0539
15532W        W58548   5.181  27.240   2.801  0.1139 -0.4712 -0.1116
15533W        W58549  34.484  19.456  17.289 -0.1988 -0.0730  0.0966
15534W        W58550  29.895  31.055  25.536  0.0857 -0.1568  0.3748
15535W        W58551   1.990  24.104   8.447  0.3628  0.3283 -0.1112
15536W        W58552  27.952  34.739  25.441  0.0527  0.0255 -0.0208
15537W        W58553  29.883  29.999  16.373 -0.5670 -0.1359 -0.3039
15538W        W58554  29.532   5.351  25.095 -0.0419  0.3265  0.2003
15539W        W58555  13.811  31.449  18.538  0.0286 -0.1506  0.0511
15540W        W58556  12.284  23.394   9.167  0.2657  0.0326 -0.2096
15541W        W58557   9.707  28.103   9.732 -0.1843  0.0704  0.0194
15542W        W58558  16.422  15.923  20.716 -0.1168 -0.0325  0.3481
15543W        W58559  32.871   0.182   4.216 -0.2492 -0.2768 -0.0575
15544W        W58560   2.823  25.984   0.925 -0.0011 -0.1102  0.2556
15545W        W58561  26.818   2.851  11.258  0.3606 -0.1751 -0.1109
15546W        W58562   8.294  23.048   3.101 -0.2184 -0.1366  0.1406
15547W        W58563  32.227  27.598  28.362 -0.3012 -0.0399  0.0502
15548W        W58564   1.164  22.166   2.260  0.2252 -0.1382 -0.1392
15549W        W58565   1.977  28.403   8.659  0.0295 -0.2159 -0.2075
15550W        W58566  25.954  16.624  28.669  0.1483 -0.0549  0.2660
15551W        W58567  16.517  13.780  28.754  0.1647 -0.6266 -0.1298
15552W        W58568  23.978  22.320   2.806 -0.0582 -0.0062 -0.2460
15553W        W58569   7.970  33.588  19.466  0.0819  0.1815 -0.1314
15554W        W58570  25.962  17.805  22.781  0.3144 -0.4349 -0.2029
15555W        W58571   9.785   0.768  27.444 -0.3051 -0.2047 -0.0037
15556W        W58572   9.804  28.439  18.865 -0.1061 -0.0394  0.1058
15557W        W58573  10.565  24.358  20.219  0.1526 -0.1009  0.3084
15558W        W58574   5.357  23.535   5.111  0.1404  0.2240  0.0578
15559W        W58575  30.696  17.262  18.353  0.3657 -0.0798 -0.2286
15560W        W58576  29.078  26.130   0.919 -0.1695  0.2938  0.0002
15561W        W58577   2.957  17.315   5.879 -0.2107  0.2310  0.1891
15562W        W58578   7.218  15.523  18.135 -0.0318 -0.0889 -0.1139
15563W        W58579  29.680   5.049  23.241 -0.3058  0.0997 -0.1676
15564W        W58580  34.404  29.268  22.168 -0.1090 -0.1726  0.1121
15565W        W58581  34.740  33.156   7.724 -0.0544  0.1570 -0.2447
15566W        W58582  29.710   6.321  24.289  0.1876 -0.2414 -0.3153
15567W        W58583  17.501   9.342  18.572 -0.1025 -0.1214  0.2382
15568W        W58584   7.352  10.468  16.918  0.2623 -0.2736 -0.0903
15569W        W58585  32.665  28.094  26.850  0.0919  0.3210  0.0399
15570W        W58586  29.667  26.539  19.138  0.0550 -0.5048  0.0347
15571W        W58587   0.473  28.981   0.541  0.1877 -0.2050  0.1567
15572W        W58588   2.516  14.568   7.816 -0.0662  0.3120  0.2090
15573W        W58589  31.973  26.345  20.938  0.1940  0.0732 -0.1879
15574W        W58590  14.424  18.661   6.820 -0.0720  0.0910 -0.4020
15575W        W58591  13.200  29.783   6.638  0.0656 -0.3646  0.0939
15576W        W58592  10.138  21.466  29.314  0.0390  0.0539  0.3631
15577W        W58593   0.603  23.377   1.199 -0.0272 -0.5004 -0.0946
15578W        W58594  14.051   1.002   2.442 -0.2028  0.0155 -0.0143
15579W        W58595  20.959  20.449   8.820 -0.1106  0.1713 -0.2719
15580W        W58596   9.187  23.234  22.204  0.2025  0.0884  0.0621
15581W        W58597   4.268  31.875  23.514  0.0233  0.0338  0.0032
15582W        W58598  29.917  28.845   2.694 -0.0701 -0.1007 -0.1961
15583W        W58599  13.219  21.141  23.691  0.2286 -0.1888  0.0066
15584W        W58600   4.532  20.924  25.516 -0.0180 -0.1363 -0.3339
15585W        W58601   2.468  22.173  14.415 -0.1977  0.2067  0.0963
15586W        W58602  32.720   0.031   9.264 -0.0831 -0.1480  0.4704
15587W        W58603  30.564  20.361  19.503  0.1214 -0.1298 -0.0044
15588W        W58604  23.641   5.252  23.353 -0.1096 -0.0604  0.0398
15589W        W58605  13.245  22.403  28.932  0.0320 -0.0976 -0.1260
15590W        W58606  19.982   0.033  23.377 -0.1733  0.0764 -0.0474
15591W        W58607  13.501  19.107  13.784  0.2333  0.3523 -0.0348
15592W        W58608  17.564  24.562  22.615  0.1817  0.2439 -0.1758
15593W        W58609  28.293  27.675  16.752 -0.3883 -0.3211  0.4645
15594W        W58610   7.266   6.995  26.981  0.1225 -0.1699  0.1448
15595W        W58611   4.951   9.808  19.974  0.2846 -0.3649  0.1216
15596W        W58612  12.474   1.063  24.107  0.0662  0.0599  0.1023
15597W        W58613   3.484   5.707  20.900  0.1370  0.0334 -0.0088
15598W        W58614  27.736   1.743  17.091  0.0484  0.2043 -0.0206
15599W        W58615  15.683  24.514  27.563 -0.1603 -0.2252  0.0996
15600W        W58616   4.050  20.761   0.839  0.0951 -0.0293 -0.1077
15601W        W58617   8.754  20.518  14.525  0.2047  0.1139  0.1346
15602W        W58618   7.522   6.547  22.242  0.1390 -0.1472 -0.1045
15603W        W58619  27.610  26.708  20.256  0.1335  0.0439 -0.3759
15604W        W58620  11.987  23.911  13.329  0.1730  0.1271 -0.0118
15605W        W58621   1.054  21.739  17.586 -0.0015  0.1710  0.0262
15606W        W58622  29.990  28.620  24.232  0.0364  0.5445 -0.2389
15607W        W58623  30.399  21.881  14.922  0.1119  0.1053  0.1798
15608W        W58624  33.510   4.458  24.318  0.2187  0.0718 -0.1876
15609W        W58625  22.466  23.116   6.418 -0.1483  0.1138 -0.2362
15610W        W58626  29.249  33.906  18.499  0.0878 -0.0774  0.1384
15611W        W58627   8.237   2.772  18.548 -0.2511 -0.1893 -0.0907
15612W        W58628   3.901  10.921  13.766  0.1487 -0.0395 -0.0084
15613W        W58629   9.815  31.295  22.817  0.0355 -0.0219 -0.1537
15614W        W58630  10.943  22.267  17.722  0.3308  0.1355 -0.2596
15615W        W58631  32.232  30.551   4.908  0.0669 -0.0589  0.1429
15616W        W58632   8.860  19.192   0.538  0.0066 -0.3855 -0.0679
15617W        W58633  32.227  23.895  20.400  0.0297  0.0651 -0.0044
15618W        W58634   3.589   0.519  20.631  0.3489 -0.1312 -0.0651
15619W        W58635  11.252   1.294  17.296  0.2323 -0.3937 -0.0643
15620W        W58636  27.406   5.511  17.871 -0.3470 -0.0395  0.1909
15621W        W58637   7.405  32.049  14.704 -0.1354 -0.1643 -0.0768
15622W        W58638   5.168  29.188  13.309  0.1207  0.2303  0.3335
15623W        W58639  25.240  29.959  17.013 -0.0861  0.4453  0.1267
15624W        W58640   0.318  30.416  23.123  0.2038 -0.1528 -0.0694
15625W        W58641   6.964  22.656  19.364  0.3009 -0.2348 -0.0202
15626W        W58642  10.805  12.619   1.980 -0.0783  0.1093 -0.3207
15627W        W58643   0.794  24.376  23.516  0.0188 -0.0339  0.0027
15628W        W58644  33.817  24.244  15.749 -0.1668  0.4263 -0.1850
15629W        W58645  12.512   4.701  20.170 -0.3187  0.0066  0.1754
15630W        W58646   8.385  30.341  24.180  0.0881 -0.0625  0.0451
15631W        W58647  23.792  17.856  23.575 -0.1052  0.4408 -0.2692
15632W        W58648  18.952  24.806  13.667  0.1203  0.4901  0.1297
15633W        W58649   3.655  18.229  29.237 -0.3291  0.0242 -0.1772
15634W        W58650  13.016   0.033  22.117  0.0438  0.0209 -0.0538
15635W        W58651  34.026  30.316  16.703  0.2145  0.0587 -0.2372
15636W        W58652  26.912  15.952  24.815 -0.2007 -0.1477  0.0353
15637W        W58653  21.412   9.273   2.940 -0.5046 -0.0170 -0.2316
15638W        W58654   2.233  17.591  18.191  0.2113  0.2570  0.1430
15639W        W58655   6.553  26.225  24.946 -0.3137 -0.0232  0.0344
15640W        W58656   4.106  32.964  17.033  0.0360 -0.1833  0.0038
15641W        W58657  34.448  24.378   4.138  0.3994 -0.0395  0.0245
15642W        W58658  28.811  15.078  14.402  0.1664 -0.1375 -0.1093
15643W        W58659   2.715  30.145  22.092  0.2133  0.1094  0.1666
15644W        W58660  31.075  22.949  18.749 -0.0841 -0.2494  0.2053
15645W        W58661  33.337  16.401   9.904  0.1171  0.2393  0.0233
15646W        W58662   8.578  25.043  15.854 -0.0377 -0.4590  0.3978
15647W        W58663  26.227  19.626  22.998  0.0042 -0.1644 -0.2454
15648W        W58664  10.252  24.985  16.304  0.2526 -0.0423 -0.0106
15649W        W58665   4.371  33.461   4.608 -0.0533  0.0146 -0.1931
15650W        W58666  28.936  20.639   0.295  0.1060  0.1109 -0.1762
15651W        W58667   0.919   5.277  22.559 -0.1055  0.0844 -0.1652
15652W        W58668  32.524  10.496  27.133  0.1367  0.1138  0.1188
15653W        W58669   4.901  25.507  22.996 -0.2764  0.2993  0.0526
15654W        W58670  12.153  31.342  23.439 -0.0206 -0.2094 -0.2220
15655W        W58671  17.456  29.938  16.826 -0.1491 -0.2052  0.5454
15656W        W58672  20.688   9.826  20.576 -0.0790  0.1132  0.2858
15657W        W58673  31.759  30.293  16.818 -0.1597 -0.2873 -0.1066
15658W        W58674   8.208  28.358  19.868  0.1266 -0.2043 -0.0857
15659W        W58675  31.724  11.681  20.824 -0.2078  0.4826 -0.1466
15660W        W58676   9.871   6.063  18.949 -0.2014 -0.3982 -0.0440
15661W        W58677  13.098  25.234  18.427 -0.4332  0.1197  0.0240
15662W        W58678  34.570  29.070  15.769 -0.4027 -0.1881  0.0275
15663W        W58679   9.769  10.868  24.272  0.0791  0.2177 -0.0483
15664W        W58680   2.698   5.069  19.469 -0.0835  0.1395  0.0100
15665W        W58681  34.528   5.363  16.685 -0.2219 -0.0039 -0.0109
15666W        W58682  33.137  22.669  16.982 -0.0132 -0.1728 -0.1756
15667W        W58683   1.033  26.489  28.253 -0.1465  0.0947 -0.3586
15668W        W58684   3.378  27.431  20.410 -0.1733  0.1858 -0.0096
15669W        W58685  23.944  23.782  15.599 -0.1087  0.3159 -0.1986
15670W        W58686  30.907  33.489  19.630  0.1445  0.3529  0.0754
15671W        W58687  33.741  18.804  20.474  0.0132 -0.0895 -0.3069
15672W        W58688  28.930   0.335  22.495  0.2766 -0.3246  0.0744
15673W        W58689   9.654   2.125  24.047 -0.1171  0.0394  0.0056
15674W        W58690  29.655  22.659  18.699  0.0204  0.0927  0.0343
15675W        W58691  27.753   2.971  19.447  0.2266  0.1718  0.1919
15676W        W58692   2.759  30.965  16.343  0.0498  0.2496  0.3780
15677W        W58693  34.611  24.417  21.220 -0.0851 -0.2039  0.0570
15678W        W58694  15.243  21.098  15.733 -0.0004 -0.4813  0.2718
15679W        W58695  33.421  28.015   6.130 -0.3858 -0.1901 -0.1755
15680W        W58696  34.179  17.856  19.387 -0.1774 -0.4800 -0.3131
15681W        W58697  27.665  27.823  20.150 -0.3153 -0.0740  0.1187
15682W        W58698  32.555  27.811  16.063  0.0113  0.0709  0.2253
15683W        W58699   2.861  21.335  21.853 -0.0116 -0.0611  0.1611
15684W        W58700  23.459   2.139  29.291 -0.3619 -0.1103 -0.0968
15685W        W58701   2.945  10.862  28.683  0.1857  0.2721 -0.0921
15686W        W58702  22.634  25.565   0.134  0.0542 -0.1744 -0.0322
15687W        W58703  18.376  23.849  21.349 -0.1319 -0.0076  0.0253
15688W        W58704  16.600  23.532  15.632 -0.1162 -0.3320 -0.0018
15689W        W58705  20.602  34.699  18.978  0.0344 -0.0611  0.3136
15690W        W58706   4.949   7.225  22.467 -0.0819 -0.3048 -0.0871
15691W        W58707   8.158   2.173  14.364  0.1090 -0.0616 -0.1468
15692W        W58708  23.610  18.751  21.143  0.1022  0.0298  0.1786
15693W        W58709  12.025  26.761  19.625  0.0452  0.0694  0.1226
15694W        W58710  27.792  30.168  17.398  0.1943  0.1412 -0.1133
15695W        W58711   4.249   9.580  20.350 -0.0263  0.1111 -0.3950
15696W        W58712  33.296  24.564  19.090  0.2025 -0.0676 -0.1939
15697W        W58713  10.024  28.231  13.982  0.1935  0.3241  0.0617
15698W        W58714  25.903  30.062   0.557 -0.0874  0.0385 -0.0554
15699W        W58715  33.325  24.302  19.544  0.0522 -0.1328  0.1479
15700W        W58716   6.067   2.453  18.185 -0.2597 -0.1714  0.0221
15701W        W58717   5.348  20.969  27.828  0.0431  0.0654 -0.2048
15702W        W58718  22.638   0.170  19.332  0.4783 -0.0694  0.2792
15703W        W58719   2.624  10.130  13.633  0.0755  0.0580 -0.1198
15704W        W58720   2.007  28.262  25.007  0.1455 -0.0468  0.0873
15705W        W58721  14.323  16.332  20.248  0.1195  0.0658 -0.1243
15706W        W58722  13.938  27.018  18.067 -0.0039  0.0966 -0.3970
15707W        W58723   1.328  29.987  17.863  0.0585  0.1097  0.0839
15708W        W58724   4.713   7.656  15.510  0.0478 -0.1380 -0.4459
15709W        W58725  31.854  20.102  22.328  0.2005  0.0686 -0.1141
15710W        W58726  18.984   2.195  28.981  0.0486  0.1011 -0.2493
15711W        W58727  32.718  28.963  18.945 -0.4188  0.0291 -0.0483
15712W        W58728   3.091  19.346  18.837  0.1821 -0.4432 -0.2363
15713W        W58729  21.144  17.485  19.881 -0.0188 -0.2256 -0.2112
15714W        W58730  32.903   8.465  15.715 -0.1987 -0.2544  0.3616
15715W        W58731  14.860  12.156  21.010  0.2676  0.3617  0.2582
15716W        W58732   7.920  25.278  20.816 -0.2891  0.2863 -0.2243
15717W        W58733   9.275  15.651  13.380  0.0851 -0.0745  0.0672
15718W        W58734  27.903  20.722  16.593 -0.0279  0.2468  0.2744
15719W        W58735  33.907  33.274  22.922  0.1386 -0.2580 -0.3324
15720W        W58736  18.533   4.212  21.441  0.0186  0.1524  0.2393
15721W        W58737  33.129  18.491  19.720 -0.0735 -0.0850 -0.0440
15722W        W58738   6.694  19.297  20.505  0.1087 -0.3722 -0.0464
15723W        W58739   4.904  11.853   3.443 -0.2200  0.0657  0.2459
15724W        W58740   2.770  22.648  17.511  0.0647  0.3166 -0.1140
15725W        W58741  29.370  22.949  18.223 -0.1009 -0.1936 -0.0218
15726W        W58742  21.270  18.705  23.763 -0.2365 -0.2014  0.1051
15727W        W58743  29.678  23.461  20.056  0.3360 -0.0586  0.1069
15728W        W58744   0.569  25.529  21.472 -0.2817  0.1174 -0.0307
15729W        W58745  30.388  14.871  23.710  0.2926 -0.4568  0.3088
15730W        W58746  20.356  26.402  19.447  0.2518  0.0209 -0.0333
15731W        W58747  27.001  10.918  21.473  0.0617  0.2660 -0.1516
15732W        W58748   4.403  26.577  13.882  0.0485 -0.2352  0.0622
15733W        W58749   3.072   2.854   7.276  0.0755 -0.2290 -0.1105
15734W        W58750   9.338  32.729  20.955 -0.1451 -0.1995 -0.4230
15735W        W58751   0.449  31.154  24.881 -0.1019  0.0153 -0.2520
15736W        W58752  17.622  21.063  14.908  0.2266  0.4276 -0.2309
15737W        W58753   3.728  13.216  23.090 -0.3040 -0.2103  0.5119
15738W        W58754   6.744  21.417  19.342  0.1079  0.1506 -0.0545
15739W        W58755  28.630  19.070  19.863  0.1753  0.2118  0.2797
15740W        W58756  15.606  17.472  13.086 -0.0523 -0.2560 -0.0733
15741W        W58757  20.298   1.054  20.000  0.0125  0.1510  0.2626
15742W        W58758   2.446  29.603  20.615 -0.5180 -0.4636  0.1799
15743W        W58759  15.586   9.250  23.131  0.0147 -0.0673  0.1404
15744W        W58760  14.639  28.726  20.007 -0.1049 -0.0712  0.0036
15745W        W58761  21.247   8.948  24.996  0.0531  0.3975 -0.2857
15746W        W58762  18.050  30.997  26.175  0.1751 -0.0806 -0.2041
15747W        W58763  30.187  19.443  19.554 -0.2260  0.3550 -0.0594
15748W        W58764  32.279   2.364  18.205  0.0446 -0.1762 -0.1741
15749W        W58765   1.253  25.230  28.800  0.1344  0.2199  0.1825
15750W        W58766   1.909  24.776  22.860  0.1493 -0.1218 -0.1718
15751W        W58767   2.152  24.085  23.522 -0.0719 -0.0903 -0.1208
15752W        W58768  33.835  20.690  29.286 -0.1725 -0.0978  0.0269
15753W        W58769   1.310  29.491  21.428  0.1298 -0.0027  0.2194
15754W        W58770   1.534  17.678  23.438 -0.2235  0.2491 -0.2579
15755W        W58771  18.393  29.182  22.632  0.1024  0.0602  0.1927
15756W        W58772  29.299  23.704  24.699  0.0006 -0.1892  0.0556
15757W        W58773   5.664  12.907  22.598  0.2175  0.0683 -0.2077
15758W        W58774  32.283   4.720  19.826  0.2536 -0.0397 -0.2358
15759W        W58775  34.423  20.785  17.747 -0.0125 -0.1114 -0.2009
15760W        W58776  34.483   2.952  21.093  0.1220 -0.1519 -0.1271
15761W        W58777   5.046  26.182  23.667 -0.2558 -0.0550 -0.0477
15762W        W58778   7.306  29.079  13.940  0.0500  0.0722  0.3160
15763W        W58779   8.510  33.933  18.642 -0.4736 -0.0471  0.1148
15764W        W58780   8.857  14.627  16.067 -0.0182  0.1693 -0.1561
15765W        W58781   1.057  13.526  16.840  0.1286  0.0377  0.1192
15766W        W58782   7.177  26.083  17.797  0.3470  0.2453 -0.3646
15767W        W58783   2.863  14.979   6.945 -0.3305  0.0138 -0.0096
15768W        W58784   8.179   7.447  14.647 -0.1604  0.0665  0.1323
15769W        W58785   6.587  29.549   0.206  0.0470 -0.3391  0.1983
15770W        W58786   8.050  27.712  15.435  0.2276 -0.2367  0.2729
15771W        W58787   6.062  20.450   3.623 -0.1507  0.0448  0.0022
15772W        W58788  15.367  10.309  20.568 -0.0259  0.2493  0.2370
15773W        W58789  26.472  25.647  20.143 -0.0210  0.3859  0.1271
15774W        W58790  12.272  14.361  20.532  0.3307 -0.4260 -0.2524
15775W        W58791  30.870   9.164  25.180 -0.2280 -0.0720 -0.0860
15776W        W58792  30.918   1.388  24.613  0.1556 -0.1103 -0.1096
15777W        W58793   0.552  24.975  26.991 -0.1381  0.1720 -0.1464
15778W        W58794   1.734  25.755   6.282 -0.2955 -0.1806 -0.1170
15779W        W58795  23.208  25.941  17.524 -0.1902  0.0810 -0.3576
15780W        W58796  25.223   4.610  15.570 -0.0481 -0.0930  0.2690
15781W        W58797  16.060  31.897  27.267  0.1776 -0.0228 -0.1939
15782W        W58798   3.643  19.969  17.476 -0.1290  0.0216  0.0968
15783W        W58799  16.914  34.343  21.608  0.0658  0.1407  0.1179
15784W        W58800   5.246  11.376  19.877  0.1329  0.1725  0.0263
15785W        W58801  15.549  24.221  24.830 -0.0344  0.1502  0.0170
15786W        W58802  10.677  25.108  14.542 -0.0320 -0.0384  0.2882
15787W        W58803  29.815   2.713   2.921 -0.2921 -0.0254  0.1164
15788W        W58804   3.002  25.783  17.567  0.0127 -0.1081  0.3427
15789W        W58805  19.008  28.717  21.654  0.0806  0.0838 -0.2304
15790W        W58806   2.374  34.242  20.098  0.2162 -0.1952  0.1054
15791W        W58807  10.888  22.329  27.755 -0.2860  0.3256 -0.0692
15792W        W58808  11.073   5.707  20.300  0.0408  0.0250 -0.0138
15793W        W58809   6.338  26.388  15.270  0.1764 -0.1155  0.0885
15794W        W58810  22.022  25.254  26.623  0.1178 -0.0647 -0.0883
15795W        W58811  32.155  29.367  18.815  0.2253 -0.0499 -0.0388
15796W        W58812  32.285   3.200   6.766 -0.1300  0.4281 -0.1517
15797W        W58813   3.668  15.611  19.297  0.1042  0.2428 -0.2527
15798W        W58814   2.024   9.010  16.874  0.2272  0.0013  0.1211
15799W        W58815  22.609  18.530  17.651 -0.2142 -0.0486  0.1397
15800W        W58816  27.102  10.765  28.994  0.3025  0.0357  0.0427
15801W        W58817  33.142  30.794  16.661  0.1033 -0.1207 -0.0629
15802W        W58818   0.786  24.341  24.125  0.1169  0.0692 -0.2995
15803W        W58819   6.248  16.603  15.223  0.0248 -0.0954 -0.0624
15804W        W58820  21.847  23.931   3.234  0.0030 -0.0253  0.0555
15805W        W58821   4.312  30.556  16.168 -0.0288  0.0222  0.1689
15806W        W58822  11.159   0.306  27.256 -0.0056  0.2625 -0.0567
15807W        W58823  28.427  25.163   0.040  0.1838  0.0244 -0.0603
15808W        W58824  33.890   0.821  19.705  0.0593  0.1493  0.1367
15809W        W58825  24.797  26.414   9.227  0.0400  0.1346  0.0951
15810W        W58826  29.104  29.736  21.796  0.2048 -0.1404 -0.4989
15811W        W58827   6.168   2.897  28.276  0.2483 -0.1393 -0.1645
15812W        W58828  11.798  20.127  29.094  0.2089 -0.1527 -0.3098
15813W        W58829  16.234   1.058  18.185  0.0760 -0.0737  0.1082
15814W        W58830   7.723  14.135  20.038 -0.1273  0.3635 -0.0888
15815W        W58831  10.705  14.360  20.961  0.1410  0.0011  0.0176
15816W        W58832  33.242   3.858  20.735  0.0647 -0.0849  0.0353
15817W        W58833  22.709  27.100  15.964 -0.0998  0.0478 -0.3595
15818W        W58834   0.930  13.646  19.383 -0.2869  0.0513 -0.0071
15819W        W58835   8.771  13.049  22.635 -0.2927  0.0529  0.2794
15820W        W58836  12.714  24.073  21.788 -0.1641  0.1486  0.1085
15821W        W58837   3.459   3.350  17.971 -0.0927 -0.0742 -0.0862
15822W        W58838  17.460  16.787  16.722 -0.0083 -0.0594  0.0329
15823W        W58839  10.904  27.855  17.093  0.3577  0.2632 -0.2143
15824W        W58840  29.753  17.180  22.616  0.5162 -0.0568 -0.0660
15825W        W58841  34.706  29.575   4.776 -0.3030  0.1206  0.0298
15826W        W58842  10.162   3.948  18.280  0.3610  0.1806  0.1558
15827W        W58843   6.777  26.546  21.084  0.1199 -0.5198  0.0314
15828W        W58844   6.311  27.511  15.451  0.1299 -0.2140 -0.1662
15829W        W58845   4.984  20.313  19.561 -0.0264  0.2626 -0.1853
15830W        W58846  10.492  31.930  15.061  0.0739  0.0195 -0.0552
15831W        W58847   2.147   3.451  23.827  0.0706  0.1146 -0.1624
15832W        W58848   4.164  31.187   4.210 -0.0192 -0.0983 -0.1024
15833W        W58849  29.447  30.793  24.269  0.0025 -0.0048 -0.0594
15834W        W58850   7.046  27.348   3.610  0.2020 -0.0716 -0.1520
15835W        W58851   5.245  20.002  13.592  0.1062 -0.0078  0.0395
15836W        W58852  29.678   2.421  24.037 -0.2855 -0.1071  0.4010
15837W        W58853   2.566   0.504  18.171  0.0977  0.0334 -0.0788
15838W        W58854  23.098  25.457  24.527 -0.1046  0.0039 -0.0463
15839W        W58855  11.918   1.621  19.974 -0.1560  0.0401 -0.3386
15840W        W58856  31.553  25.284  16.285  0.0491 -0.0552 -0.1509
15841W        W58857   1.145  28.898  14.518  0.0833  0.1193 -0.0567
15842W        W58858   0.733  33.601  23.175  0.4418 -0.1255 -0.2072
15843W        W58859   6.128  23.525  18.703  0.2681 -0.2167  0.0654
15844W        W58860   6.501  29.020  18.290  0.1087 -0.0875  0.3780
15845W        W58861   6.014  14.961  23.221 -0.0321 -0.0047  0.1159
15846W        W58862  17.358   1.173  18.917  0.2154  0.1990  0.0728
15847W        W58863   1.106  27.780  17.644  0.2432  0.0519 -0.0181
15848W        W58864   1.327  27.114  15.535  0.1275 -0.1811 -0.2284
15849W        W58865   1.218  25.670  17.840 -0.0441 -0.0421  0.1009
15850W        W58866   4.238  34.032  21.131 -0.0058 -0.2167  0.3233
15851W        W58867  28.139   3.719  23.583 -0.2062 -0.2439 -0.0137
15852W        W58868   3.571   0.775  14.610  0.0154  0.1251 -0.0431
15853W        W58869  34.171  25.598  28.417 -0.1751 -0.0751 -0.0193
15854W        W58870   1.054  31.794  22.339  0.1914 -0.1120  0.1288
15855W        W58871   3.715  15.289  16.566  0.0750  0.1251  0.0637
15856W        W58872   0.894  22.136  27.326  0.0811  0.1141  0.4545
15857W        W58873  27.114  31.178  26.438  0.2832  0.1606 -0.0391
15858W        W58874  16.846  19.820  14.341  0.2730  0.0438 -0.1503
15859W        W58875  30.583  19.082   0.339  0.2532 -0.1772  0.2010
15860W        W58876  16.103  30.627  19.056 -0.1453 -0.2673 -0.3838
15861W        W58877  13.642   5.466  13.880 -0.0458 -0.1246 -0.1557
15862W        W58878   7.353  20.898  20.769  0.0836 -0.1451  0.0914
15863W        W58879   3.224  26.924  22.569  0.1493  0.2291  0.1085
15864W        W58880  24.792   8.828  21.116 -0.4427  0.1265  0.1200
15865W        W58881  34.458   2.571   4.490  0.2499 -0.0054 -0.1006
15866W        W58882  12.718  32.533  21.892  0.1290  0.1437  0.1299
15867W        W58883   4.528  26.308  17.896  0.1038 -0.2201  0.0456
15868W        W58884  28.921  19.392  24.896 -0.1956  0.1330 -0.1860
15869W        W58885   9.414  20.734  14.124  0.1279 -0.1648 -0.3372
15870W        W58886  13.606  24.563   1.661  0.2047  0.2622 -0.0703
15871W        W58887  17.290  33.059  16.572 -0.0179 -0.0387  0.2072
15872W        W58888  20.095   9.313  28.068 -0.2714  0.2595 -0.0949
15873W        W58889  29.044  12.112  20.253  0.1314 -0.0617 -0.2668
15874W        W58890  27.562   3.015  21.426  0.1261  0.0698  0.0784
15875W        W58891   9.755  21.846  14.355  0.1513 -0.2090  0.4660
15876W        W58892  34.299  24.329  29.004  0.1639 -0.1498  0.0505
15877W        W58893  34.423  22.047  22.071  0.2965  0.1308 -0.0230
15878W        W58894  17.274   0.940  22.465  0.1118 -0.0882  0.3742
15879W        W58895   1.191  21.826  22.359 -0.3118 -0.0333 -0.3850
15880W        W58896  10.523  14.466  25.741  0.0613 -0.3202  0.1653
15881W        W58897   7.513   0.672  21.066 -0.1600  0.0616  0.1508
15882W        W58898   6.458   9.461  14.573  0.1408 -0.0492 -0.1557
15883W        W58899   0.756  29.036  20.620 -0.1229  0.2350 -0.0813
15884W        W58900  34.285  16.995  21.256  0.1740 -0.4244 -0.2410
15885W        W58901  30.825   6.493  18.045 -0.1218  0.0304  0.1302
15886W        W58902  31.444  25.505   6.307  0.3632  0.1301  0.4021
15887W        W58903   8.252  22.420  20.211  0.1494 -0.1877  0.0306
15888W        W58904   3.649  23.282  15.390  0.0731 -0.0747  0.0951
15889W        W58905  33.655   8.310  22.142  0.3538 -0.0025 -0.1608
15890W        W58906   0.864  22.087  15.369  0.0120 -0.2379  0.1547
15891W        W58907  34.435   9.277  18.713 -0.1993  0.0295  0.1062
15892W        W58908  16.434  33.717  20.644  0.1334 -0.3687  0.0043
15893W        W58909  32.893  18.222  15.799 -0.1042 -0.1374  0.0525
15894W        W58910   2.768  29.084  18.183 -0.1063 -0.0117 -0.0679
15895W        W58911  11.884  20.782  25.178  0.3250 -0.1810 -0.0030
15896W        W58912   7.041  34.725  16.978  0.2249  0.0067  0.2967
15897W        W58913   2.105  26.177  25.866 -0.1622  0.0282  0.2984
15898W        W58914  34.520  31.369  19.214  0.1252  0.2786 -0.0104
15899W        W58915  11.701  18.171  23.391  0.1044 -0.1330 -0.1680
15900W        W58916   5.642  11.214  21.394 -0.0548  0.0752 -0.0505
15901W        W58917   0.581  25.995  15.347 -0.1175  0.0760  0.0581
15902W        W58918  33.055  29.827  17.721 -0.4206  0.2441 -0.0388
15903W        W58919  29.956  24.908  18.322  0.0941 -0.0654  0.0423
15904W        W58920  27.794  18.923   4.289  0.0908  0.1334 -0.0052
15905W        W58921  32.172   0.377  24.121 -0.2864  0.3198 -0.0432
15906W        W58922  26.914  14.726   6.546 -0.0453  0.3361 -0.0873
15907W        W58923  24.077   0.114   4.537  0.1802 -0.0572  0.0872
15908W        W58924   1.286  14.734  17.484 -0.1899  0.4327 -0.1131
15909W        W58925  12.050  27.150   0.278 -0.0376 -0.0735  0.2149
15910W        W58926   3.278  30.938  17.658 -0.1509 -0.3343 -0.0924
15911W        W58927   2.652   3.917  21.805  0.0810 -0.3515 -0.1710
15912W        W58928  29.142   0.745  17.945 -0.0949  0.0612 -0.2673
15913W        W58929   0.432  23.847  20.036 -0.0362 -0.1447 -0.0342
15914W        W58930  18.204  26.244  22.588  0.2958 -0.2599  0.1051
15915W        W58931   4.281   6.583  23.223 -0.3057  0.4618 -0.2534
15916W        W58932  31.611   4.153   9.649  0.1786 -0.4570 -0.0006
15917W        W58933   5.388  21.906  15.704 -0.0387 -0.2116  0.2634
15918W        W58934  33.771  25.684  17.517 -0.1161  0.2933 -0.0252
15919W        W58935  13.224   8.542  19.789  0.4473  0.0653  0.2832
15920W        W58936   6.760  23.952  18.001  0.0709  0.0054 -0.0552
15921W        W58937  32.780   8.748  28.138  0.0358 -0.1544  0.0722
15922W        W58938   2.606  17.118  14.081 -0.3815 -0.2320  0.1180
15923W        W58939  29.253  13.145  22.725  0.0481 -0.1824 -0.1328
15924W        W58940  30.206   1.098  18.101  0.4354 -0.2516  0.2840
15925W        W58941  26.690  24.322  20.959 -0.2243 -0.0493 -0.2858
15926W        W58942  13.511   2.908  18.941 -0.0116 -0.0493  0.0187
15927W        W58943   7.415  28.929  25.738 -0.0875  0.0402  0.1583
15928W        W58944   7.283  34.177  20.466  0.2601  0.0994  0.2249
15929W        W58945   3.758  21.387  15.323 -0.4348 -0.1610  0.2281
15930W        W58946  28.285  14.732  16.251 -0.1142 -0.2261 -0.0530
15931W        W58947   8.178  12.716  17.387 -0.0283  0.2516  0.0889
15932W        W58948   7.436  10.329  28.941 -0.1992  0.1243  0.0476
15933W        W58949  16.384   1.168  23.339 -0.0778 -0.1724  0.3675
15934W        W58950  27.714  25.778   6.710  0.2382 -0.5081 -0.2020
15935W        W58951   4.921  31.383  25.841  0.3228 -0.2177 -0.0636
15936W        W58952  12.435  23.725  17.599  0.1501 -0.0186  0.1966
15937W        W58953   2.090  32.589  19.151  0.2251 -0.0711 -0.0642
15938W        W58954   6.266   0.123  18.965 -0.0167 -0.1199 -0.2242
15939W        W58955   5.067   5.048   1.213  0.0932 -0.2349  0.1856
15940W        W58956  27.457  24.815   7.265 -0.0928  0.0029  0.0320
15941W        W58957  25.550  23.317  22.408  0.1373 -0.4671  0.0015
15942W        W58958   4.615  26.773  21.628 -0.0806  0.1464  0.0471
15943W        W58959  26.436   0.174  22.092  0.2039 -0.1522  0.2449
15944W        W58960  15.681   0.419  20.591 -0.0520  0.1848 -0.0321
15945W        W58961   2.662  26.852   5.619  0.1035 -0.2145  0.0496
15946W        W58962  17.282  33.070   0.904  0.1133 -0.1508  0.1631
15947W        W58963  30.279  34.389  19.758  0.2331 -0.1813  0.1164
15948W        W58964   5.928   7.649  16.300 -0.5242 -0.2290 -0.2050
15949W        W58965  28.663   7.133  18.981  0.0589 -0.0105 -0.0608
15950W        W58966  10.080  25.984  17.591  0.1439 -0.1711  0.1539
15951W        W58967  19.339  32.697  26.840  0.2690  0.0494 -0.1469
15952W        W58968  29.465  32.679  25.370  0.0014 -0.1382  0.1088
15953W        W58969  33.171   4.114  15.181 -0.0050 -0.0075  0.0245
15954W        W58970   1.682   3.921  27.616  0.3232 -0.0973 -0.1333
15955W        W58971   4.154   5.330  18.757 -0.1377 -0.3306  0.2332
15956W        W58972   9.146   7.925  18.113 -0.0758  0.2610  0.0452
15957W        W58973  22.680  20.063  23.009 -0.2137  0.0442 -0.1077
15958W        W58974  23.964  32.793  20.026  0.1239  0.0316 -0.3141
15959W        W58975   2.440   4.636  22.499  0.2715 -0.2517 -0.0668
15960W        W58976  23.398   6.199  21.679 -0.2566 -0.0975  0.0471
15961W        W58977  15.304   9.145   1.021  0.0404 -0.1072 -0.1689
15962W        W58978  27.537   9.040  15.029  0.0331  0.1173  0.0049
15963W        W58979   4.421   0.355   5.558  0.1981 -0.1387  0.1453
15964W        W58980  26.898  29.395  28.360 -0.0106 -0.1458 -0.3308
15965W        W58981  11.473  29.621  28.028  0.1397 -0.0700 -0.1144
15966W        W58982  13.593  25.622  14.299 -0.2045 -0.0300 -0.0750
15967W        W58983  16.155  29.953  16.933  0.0200 -0.1567 -0.2512
15968W        W58984   7.435   5.933  25.941 -0.1665  0.1670 -0.1719
15969W        W58985   0.922  25.054  16.456  0.0798  0.4242 -0.0450
15970W        W58986  25.459  33.295  21.933 -0.1633 -0.1352  0.1838
15971W        W58987   0.968  22.732  22.425  0.5052  0.3911  0.4002
15972W        W58988   3.905  14.716  27.212 -0.4428  0.0131  0.2506
15973W        W58989   6.915  27.326  19.135  0.2141  0.0760  0.0388
15974W        W58990  20.018  13.604  22.731  0.3210  0.1988 -0.0635
15975W        W58991  31.318  25.015  21.123  0.0917  0.0087  0.1845
15976W        W58992  14.761  15.352  13.626 -0.1088 -0.2516 -0.1131
15977W        W58993  17.448  31.942  19.393 -0.0656 -0.3919 -0.3748
15978W        W58994  15.416  26.154  13.752 -0.2268  0.1305 -0.1870
15979W        W58995  33.187  32.124   3.122  0.0709 -0.2057 -0.0064
15980W        W58996  12.149  30.737  22.567  0.3709  0.0778  0.1135
15981W        W58997  10.881  29.870  17.534  0.1485  0.0500  0.1577
15982W        W58998   5.266  32.282  15.574 -0.1150 -0.1870  0.1582
15983W        W58999   4.689  28.398  19.452 -0.3058  0.0742 -0.1325
15984W        W59000  15.843  21.203  14.171 -0.1450  0.0319  0.0004
15985W        W59001  15.230  34.046  20.296 -0.1799  0.0456  0.1112
15986W        W59002  31.272  28.974   0.261  0.1207 -0.2694  0.2544
15987W        W59003   1.447   3.807   7.292  0.0309 -0.1198 -0.0669
15988W        W59004  33.504   7.700  18.008 -0.1764 -0.0406 -0.1312
15989W        W59005  33.852  19.238  27.194  0.3593 -0.3082 -0.0882
15990W        W59006   4.471   0.064  22.874  0.1974 -0.1311  0.0914
15991W        W59007  24.316  25.261  22.578  0.2852 -0.1276 -0.0391
15992W        W59008  10.772  17.348  12.312  0.0166 -0.4077  0.0090
15993W        W59009  21.557  19.110  14.083  0.2052 -0.0393 -0.1537
15994W        W59010   6.622  32.871   0.071 -0.2101  0.0141 -0.0339
15995W        W59011   6.889  23.838  14.063  0.3978  0.0589  0.1381
15996W        W59012   3.021   1.410  18.868  0.2716  0.0297  0.0657
15997W        W59013  32.921  24.889  16.631  0.4227  0.0421 -0.0247
15998W        W59014  11.693  25.144  22.801  0.0554 -0.0221 -0.0171
15999W        W59015  21.733  16.868  21.444 -0.0995  0.2488  0.1467
16000W        W59016  28.372  28.751  17.469 -0.3136  0.2299 -0.0484
16001W        W59017   2.351   4.903  25.112 -0.0303  0.0557  0.0004
16002W        W59018   7.524   0.274  19.354  0.1703  0.0255  0.0267
16003W        W59019  14.966  33.438  15.174  0.2346  0.1029 -0.0570
16004W        W59020  10.995  10.686  24.705  0.3009 -0.2753  0.2138
16005W        W59021   6.433  34.420  24.502 -0.1221  0.1112 -0.3589
16006W        W59022  10.222  13.055  20.697  0.3105 -0.0610 -0.0220
16007W        W59023   5.474  30.426  24.185  0.1334 -0.2318 -0.0857
16008W        W59024   1.069   6.653  17.485  0.0853  0.0921 -0.0329
16009W        W59025  23.548  21.539  28.302  0.1632 -0.1098 -0.1008
16010W        W59026   0.080   4.146  21.266 -0.1919 -0.1805 -0.2476
16011W        W59027  26.773   7.553  20.258 -0.3159 -0.1420 -0.0004
16012W        W59028  32.019  18.601  19.328  0.0486  0.0269  0.1291
16013W        W59029   1.699  26.074  29.059  0.1010 -0.2700 -0.2492
16014W        W59030  33.245  31.557   4.895 -0.1117 -0.1373  0.2103
16015W        W59031   5.411  29.741  22.240  0.2243  0.2757 -0.0471
16016W        W59032   6.409  18.962   1.634 -0.1478  0.2367 -0.1480
16017W        W59033  24.373  19.429  19.137 -0.5208 -0.2476  0.1495
16018W        W59034  31.160  22.596  23.717 -0.1164 -0.1681 -0.2097
16019W        W59035   3.768   2.140  25.117 -0.0791  0.0914  0.0203
16020W        W59036  14.028  30.887  16.365 -0.1092 -0.0519  0.0504
16021W        W59037  32.242  26.911  15.130 -0.4965  0.2233  0.1337
16022W        W59038   6.079  28.638  21.724 -0.2602 -0.3309 -0.2223
16023W        W59039  26.647   6.716   1.625 -0.1591 -0.0900  0.1285
16024W        W59040  16.258  20.017  25.685 -0.2922  0.0929 -0.2083
16025W        W59041  11.555  33.668  21.673 -0.0434  0.1168 -0.0947
16026W        W59042  22.992  16.375  14.486 -0.1034 -0.3713  0.0468
16027W        W59043  29.613   4.195  15.554 -0.0080  0.1660 -0.3059
16028W        W59044   1.507   1.476  21.746  0.2282  0.0365  0.0090
16029W        W59045  21.213  17.991  21.808  0.0758 -0.0284  0.0128
16030W        W59046  11.841  20.759  23.739  0.0916  0.0323  0.2047
16031W        W59047  28.876   2.959  26.076  0.0852  0.1254  0.1559
16032W        W59048  10.322  21.303  15.434  0.0886  0.1930 -0.0928
16033W        W59049  28.306   1.101  16.505 -0.3388 -0.0707  0.1874
16034W        W59050  31.485  21.053  22.160  0.0351 -0.2154 -0.0689
16035W        W59051   0.350  24.896  16.589 -0.3244  0.1235  0.1949
16036W        W59052   3.684  28.738  17.323 -0.3182 -0.0684  0.0122
16037W        W59053   0.423  30.035  15.598 -0.1088  0.1322 -0.1793
16038W        W59054  23.774  29.927  21.398  0.0481  0.1820 -0.0249
16039W        W59055   1.879  24.291  21.391 -0.2441 -0.2392 -0.0921
16040W        W59056  16.819   6.622  27.483  0.1292 -0.1574  0.1230
16041W        W59057  19.624  20.939  20.367 -0.3691  0.1519  0.1420
16042W        W59058  12.822  17.852  20.942 -0.0119  0.1841 -0.2755
16043W        W59059  25.211  28.810  10.198 -0.1205 -0.1401  0.1438
16044W        W59060  23.435  25.168  19.801  0.2353 -0.0634 -0.1519
16045W        W59061   5.985  18.361  18.908 -0.2997 -0.0774 -0.3168
16046W        W59062  15.527  28.359  16.831  0.2365  0.0580  0.1331
16047W        W59063  16.852  30.867  21.634  0.1567  0.1884  0.0249
16048W        W59064  15.838   4.273  17.682  0.0099  0.0717 -0.2568
16049W        W59065  31.933  14.474   4.351 -0.2955  0.2469 -0.1002
16050W        W59066   6.258   0.777  19.322  0.1674  0.2525 -0.0465
16051W        W59067  14.932  14.953  19.964 -0.1322  0.1559  0.2824
16052W        W59068   5.317   4.737  27.473  0.2766  0.0732 -0.1481
16053W        W59069   5.913  22.128  13.736 -0.1069 -0.1345 -0.2182
16054W        W59070  27.021   9.055  21.586  0.2232 -0.0770  0.1676
16055W        W59071  20.223  19.544  13.182 -0.2214 -0.2726 -0.0954
16056W        W59072   7.894  20.009  15.417  0.3748  0.1821 -0.1000
16057W        W59073   1.457   0.432  22.552 -0.0108  0.1118  0.0170
16058W        W59074   0.229   1.959  17.840  0.2990  0.0239 -0.1190
16059W        W59075   4.624   0.265  14.717 -0.1764 -0.2247 -0.3957
16060W        W59076  24.723  24.577  20.416  0.1749  0.1264 -0.1610
16061W        W59077   7.690  22.880  13.934 -0.1409 -0.0882  0.0859
16062W        W59078  34.563  19.982  20.002  0.1872  0.0839  0.2529
16063W        W59079   2.035   6.731  21.809 -0.2872 -0.3154 -0.3551
16064W        W59080   7.714  30.632  15.641  0.0013  0.2560 -0.1288
16065W        W59081  26.891  31.608  26.190  0.1123 -0.1299  0.1808
16066W        W59082  28.335  31.663   1.072 -0.0134 -0.0098 -0.0723
16067W        W59083  11.625  23.808  16.418  0.0427  0.1544  0.0201
16068W        W59084  30.188   0.348   1.137 -0.1883 -0.3268 -0.0257
16069W        W59085  28.522  24.777   2.612 -0.2249 -0.2209  0.1661
16070W        W59086   3.524  34.768   0.485  0.0489  0.1609 -0.1452
16071W        W59087   0.084  16.709  16.735 -0.0626 -0.0297  0.1069
16072W        W59088   5.786  23.304   9.219 -0.3717  0.1371 -0.1305
16073W        W59089  12.292   2.757  24.999  0.1363 -0.0985 -0.1295
16074W        W59090   1.386  24.073  20.256  0.0869  0.3721  0.1804
16075W        W59091  34.147  26.483  18.443 -0.0592  0.1070 -0.0797
16076W        W59092   2.858  18.515  23.186  0.1653  0.0458 -0.2424
16077W        W59093  28.118   3.698  22.043 -0.2963 -0.0876 -0.3076
16078W        W59094  13.794  30.836  19.408  0.2630 -0.1779  0.1963
16079W        W59095  29.832  24.227  23.168 -0.1078  0.1997  0.0216
16080W        W59096  16.623  32.113  21.205 -0.1216 -0.4358  0.0808
16081W        W59097   0.715  17.292   7.245 -0.2743  0.1930 -0.0026
16082W        W59098  27.662  10.512  21.930  0.1678  0.1707  0.0175
16083W        W59099  15.990  23.713   4.393 -0.0737  0.1352 -0.1329
16084W        W59100  24.505  31.354  22.590  0.2317  0.1506  0.0838
16085W        W59101   7.628   0.911  16.465 -0.0225  0.2340  0.2007
16086W        W59102  30.691  29.794  23.813  0.0518 -0.0183 -0.5265
16087W        W59103   8.979  18.755   2.846  0.0250 -0.1512 -0.2968
16088W        W59104   4.169  23.833  20.996  0.1407 -0.2278 -0.2491
16089W        W59105  31.600  29.542  25.446 -0.0494  0.0201 -0.0388
16090W        W59106  14.932  20.703  18.721 -0.2013  0.2681 -0.0625
16091W        W59107   5.555   6.302   4.244  0.1270  0.1213  0.0975
16092W        W59108  16.070  23.648  25.016 -0.2311 -0.1567  0.1101
16093W        W59109   6.667  28.885  15.132 -0.0132  0.2634  0.0860
16094W        W59110  18.321  21.287  15.998  0.0783 -0.0172  0.0142
16095W        W59111  17.468  16.713   4.036 -0.1380  0.1536 -0.2284
16096W        W59112  23.458  14.771  14.839 -0.3159 -0.0397 -0.1667
16097W        W59113  30.217  33.983  18.538 -0.0844 -0.2806  0.0343
16098W        W59114   4.226  26.627  15.865  0.0994  0.0233 -0.1051
16099W        W59115   5.614  19.418  21.290  0.2821  0.0328  0.3225
16100W        W59116  29.999   6.341  23.812  0.1935 -0.2175  0.1035
16101W        W59117  29.092  33.900  27.172 -0.2455  0.0117  0.0966
16102W        W59118   5.549   6.638   5.125 -0.0819  0.1297  0.4021
16103W        W59119  30.421  18.762  25.440 -0.1732  0.2910 -0.1537
16104W        W59120   0.514  28.534  21.544  0.3432  0.1039  0.0117
16105W        W59121   6.593  22.567  24.900  0.3492  0.0319 -0.1767
16106W        W59122  31.720  10.831  25.756  0.1475 -0.2757  0.1648
16107W        W59123  15.452  19.854  11.647  0.2204  0.2997  0.3784
16108W        W59124  18.762  31.657  16.967  0.1425 -0.3746 -0.3184
16109W        W59125  10.133   7.427  19.228  0.4379  0.0449  0.1157
16110W        W59126   2.036   1.614  21.864 -0.1275  0.0580 -0.1268
16111W        W59127  27.996  26.252   8.119 -0.2616 -0.0547 -0.0252
16112W        W59128   7.351  34.719  22.068 -0.2107 -0.4047  0.3783
16113W        W59129  32.110  34.294  19.433  0.2866 -0.2060  0.0480
16114W        W59130   0.870  30.309  18.547  0.4590 -0.0207 -0.1615
16115W        W59131  19.392   6.933   1.972 -0.3781  0.0865 -0.0800
16116W        W59132   4.582   0.180  20.810  0.0784  0.0406  0.0967
16117W        W59133  21.496  31.729  18.277 -0.2481  0.0066 -0.1154
16118W        W59134  30.495  26.546  19.235  0.0444  0.2080  0.2170
16119W        W59135   0.615  29.245  21.830  0.0372  0.1865  0.2566
16120W        W59136   5.325  21.049  15.922  0.1189 -0.1744  0.0958
16121W        W59137   5.232  25.296  15.136 -0.0105  0.2524 -0.1770
16122W        W59138   8.481  32.205  24.084  0.1858 -0.0952  0.1844
16123W        W59139   0.858   1.328  20.029 -0.0703 -0.2161 -0.0072
16124W        W59140   5.738  28.866  21.358  0.0125  0.1182 -0.3982
16125W        W59141   3.641   4.873  18.112  0.0295 -0.2812 -0.2818
16126W        W59142  11.436  24.801  21.351  0.0146  0.0258  0.0324
16127W        W59143   1.913   4.627   2.504 -0.0233  0.3253 -0.1189
16128W        W59144  34.334  32.233  16.736  0.1613  0.2436  0.2970
16129W        W59145  23.751  22.047  26.836 -0.0949 -0.0451  0.1343
16130W        W59146  26.872   3.247  17.725 -0.0302  0.0134  0.2147
16131W        W59147  32.956   0.081   3.281  0.1379  0.0743  0.2758
16132W        W59148  32.261  15.539  18.887 -0.1330 -0.1778  0.4473
16133W        W59149   4.875  29.477  15.481  0.1550 -0.0264  0.1833
16134W        W59150   0.869  23.768   4.161 -0.0401 -0.1082  0.0742
16135W        W59151   0.510  25.295  26.670  0.0048 -0.1207  0.0641
16136W        W59152  19.603  16.826  14.350 -0.0636  0.1243 -0.3172
16137W        W59153  10.558  26.570   4.791 -0.1888 -0.1744  0.1524
16138W        W59154  17.750  20.925  28.208  0.1452 -0.0773  0.2201
16139W        W59155  29.814  32.724   6.267  0.2330 -0.1563 -0.1070
16140W        W59156  18.002  10.780  14.515 -0.0228 -0.0796  0.1526
16141W        W59157  19.450  23.150   3.084 -0.0731  0.0353  0.0807
16142W        W59158  29.193  21.951  27.072 -0.4298 -0.0936  0.0122
16143W        W59159  10.129  29.250  26.158  0.2623  0.0150 -0.0450
16144W        W59160  33.715   7.396   5.742 -0.0491 -0.0296 -0.1152
16145W        W59161   6.421   1.524  25.473 -0.2202 -0.0177  0.0412
16146W        W59162   4.585  25.119  22.373  0.1911  0.0635 -0.3166
16147W        W59163  32.312  25.671  18.536  0.0078  0.1960  0.2788
16148W        W59164   7.512  32.079  27.079 -0.0089  0.0397 -0.2662
16149W        W59165  15.163  25.408  20.178  0.1688  0.1715 -0.2168
16150W        W59166   2.330   9.185  24.219  0.1887 -0.2281 -0.1861
16151W        W59167   4.098  24.286  28.824 -0.0934  0.1928 -0.5301
16152W        W59168   6.857  32.805  17.099  0.0027 -0.0139  0.0233
16153W        W59169   5.435  28.685  16.745  0.0819 -0.0787  0.1120
16154W        W59170   4.746  28.691  20.044 -0.2195 -0.2723 -0.5238
16155W        W59171   5.092  27.065  19.496 -0.1214  0.4316 -0.0578
16156W        W59172   3.016  29.490  19.013  0.1809 -0.0726  0.1442
16157W        W59173  11.269  31.355   1.573 -0.0028 -0.1429 -0.0971
16158W        W59174   9.489   2.641   4.007 -0.1844 -0.0008 -0.1495
16159W        W59175   8.284  30.720  21.083 -0.0025  0.0466 -0.0296
16160W        W59176   8.614  30.106  25.052 -0.1808 -0.4445  0.1066
16161W        W59177  21.597  23.754  22.931  0.1205 -0.1263 -0.1209
16162W        W59178  27.513  17.385  23.223 -0.4922  0.0656 -0.1539
16163W        W59179   2.042  21.369  17.336  0.0006  0.2680  0.0354
16164W        W59180  12.428   9.155  22.977 -0.0743 -0.0831  0.3017
16165W        W59181  33.238  29.828  22.602 -0.0015 -0.0699  0.0280
16166W        W59182  29.340  11.249  19.981 -0.0920  0.1405 -0.2456
16167W        W59183  34.481  18.718   0.072  0.0329  0.0224 -0.1904
16168W        W59184  27.267  16.688  17.959 -0.3468 -0.0841  0.0339
16169W        W59185  11.304  33.071   1.024  0.1796 -0.1781 -0.4407
16170W        W59186  31.756  28.351   1.531 -0.2472 -0.0510 -0.1492
16171W        W59187   2.952  14.221  22.144 -0.1547  0.1036 -0.1695
16172W        W59188  10.743  19.143  28.755 -0.2135 -0.0158  0.1437
16173W        W59189   3.811  33.102  23.265 -0.2743 -0.1706 -0.2645
16174W        W59190  10.885  32.004  16.478  0.1484  0.0763 -0.2799
16175W        W59191  15.783  22.152  20.008  0.2495  0.2993 -0.1410
16176W        W59192   1.454  17.317  24.129  0.0224 -0.0090 -0.1432
16177W        W59193   2.949   3.758  19.651  0.0298  0.0202 -0.0909
16178W        W59194  25.342  30.809  28.895  0.1574  0.0032 -0.1378
16179W        W59195  30.975  32.230  23.823  0.0165  0.1138  0.0456
16180W        W59196   2.819  24.224  16.626  0.0421  0.1157 -0.3688
16181W        W59197  23.133  26.355   8.136  0.1332 -0.1146 -0.0882
16182W        W59198  16.537  34.710  27.548 -0.3354 -0.1147  0.1940
16183W        W59199   3.390   2.136  17.406 -0.2989  0.0455 -0.1025
16184W        W59200   8.656  33.951  21.657  0.2239  0.2731  0.1083
16185W        W59201  28.385  27.114  18.026  0.0650 -0.6088 -0.0471
16186W        W59202   5.847   5.458  24.486 -0.1919  0.1042 -0.0170
16187W        W59203  10.829  28.795  20.461  0.2179 -0.0953 -0.0330
16188W        W59204   8.177  24.725  19.834 -0.0136 -0.4160 -0.0983
16189W        W59205   9.739   1.140  21.052  0.2586 -0.0956  0.1115
16190W        W59206   2.015  25.130  13.714  0.0503 -0.1710  0.0166
16191W        W59207  32.717  23.344  21.447 -0.1324 -0.1018  0.0211
16192W        W59208   9.745   2.912  13.992 -0.1016  0.0000  0.1249
16193W        W59209   9.078  26.748  23.755 -0.1263  0.1729 -0.0942
16194W        W59210   3.775  13.110  16.147 -0.3217  0.1069  0.2789
16195W        W59211  21.752  17.871   2.172  0.0037 -0.0509  0.1410
16196W        W59212   0.509  23.787  18.734 -0.0595 -0.0452 -0.0183
16197W        W59213  26.797  22.876  29.240 -0.1294  0.1480 -0.1667
16198W        W59214  25.522  23.997  20.167  0.1335  0.2930  0.1151
16199W        W59215  26.345  21.813  27.367  0.4172  0.0272  0.0672
16200W        W59216   1.654  13.748   5.075  0.0646 -0.2215 -0.0565
16201W        W59217  10.173   5.194  21.351 -0.1247 -0.4805 -0.1887
16202W        W59218   8.003   7.590  25.197  0.0103  0.0922 -0.1389
16203W        W59219  25.982  29.582  22.894  0.2511 -0.2360 -0.0666
16204W        W59220   7.240  27.194  15.777  0.2908 -0.1085  0.0593
16205W        W59221  32.353   3.174  26.846  0.1515 -0.0291  0.2200
16206W        W59222   5.709   9.221  20.496  0.1683 -0.2408  0.2112
16207W        W59223   1.189   6.911  28.644  0.4973 -0.2642 -0.0804
16208W        W59224   0.781   9.362  16.723  0.0756  0.1728 -0.0152
16209W        W59225   6.261  14.599  17.841  0.1701  0.5697 -0.5127
16210W        W59226   5.557  29.239   0.955 -0.1649 -0.0357 -0.1100
16211W        W59227  11.846  30.195  14.522  0.2179 -0.1772 -0.0553
16212W        W59228   0.324  10.957  22.341 -0.0983  0.1479  0.1771
16213W        W59229   7.141  20.014  22.329  0.1972  0.0187 -0.1267
16214W        W59230  16.926  26.101  26.399 -0.0231  0.2133  0.0730
16215W        W59231   2.533  31.491  15.394  0.2299 -0.0923 -0.5721
16216W        W59232  19.431  22.469  27.596 -0.2065 -0.1472 -0.2856
16217W        W59233   5.075   0.120  19.948 -0.0361  0.1823  0.2236
16218W        W59234  19.146  32.114  17.069 -0.1146  0.3931 -0.1071
16219W        W59235  28.939  18.033  23.039 -0.2413  0.0660 -0.2483
16220W        W59236   8.193  25.657   4.515 -0.2204  0.0699 -0.1539
16221W        W59237  10.164   3.154  25.918  0.3201  0.1439  0.0378
16222W        W59238   4.264  23.671  18.876  0.0196  0.0434  0.3308
16223W        W59239  26.114  20.693  19.158 -0.1839  0.0861 -0.0309
16224W        W59240   7.532   2.368  22.788  0.0802  0.0631 -0.0950
16225W        W59241  34.295  22.603  23.136 -0.0663  0.0641  0.2504
16226W        W59242  13.672  19.559  11.865  0.0982 -0.0335  0.1290
16227W        W59243  24.889   9.740  16.845  0.0723  0.0906 -0.1298
16228W        W59244  22.520  34.383  24.872  0.0708  0.0689  0.1486
16229W        W59245  10.648  28.434  24.297 -0.0413  0.0248  0.0676
16230W        W59246  29.258  11.805  22.152 -0.4603 -0.0061 -0.0110
16231W        W59247  19.698  33.929  15.439  0.1436  0.3882  0.1164
16232W        W59248  29.696   6.073  22.236 -0.3312 -0.0475  0.2299
16233W        W59249   9.857  32.636  17.461  0.0086 -0.1046 -0.2087
16234W        W59250  11.521  20.871   6.610  0.3549 -0.1491  0.3833
16235W        W59251  22.608  24.022  20.110  0.0419 -0.0868 -0.1512
16236W        W59252   7.339  23.694  13.808 -0.0114 -0.0372 -0.2890
16237W        W59253  28.472  30.055  28.472 -0.2543 -0.2120 -0.2566
16238W        W59254   2.029   2.790  26.355 -0.0791 -0.0763 -0.1060
16239W        W59255   3.746  27.759  27.724 -0.4921 -0.1946 -0.1508
16240W        W59256  28.786  29.941  21.450  0.2218  0.1894 -0.2396
16241W        W59257  33.102  24.505  10.279  0.1473  0.0964  0.2192
16242W        W59258  29.363   8.255  24.012 -0.0257  0.4549 -0.0871
16243W        W59259   1.895  28.648  18.639 -0.0456 -0.0656 -0.0484
16244W        W59260  25.780  18.122  29.291 -0.0549 -0.0413 -0.2519
16245W        W59261   7.033  26.819  21.668 -0.0291  0.2731 -0.2794
16246W        W59262  31.596  15.301  20.248  0.2221 -0.0467  0.1870
16247W        W59263   4.011  24.112  20.229  0.0851  0.0956 -0.0551
16248W        W59264  32.318  34.562  20.343  0.1898  0.1270  0.0839
16249W        W59265  23.390  32.133  28.417 -0.4271  0.2753 -0.0755
16250W        W59266   4.062  26.014  17.236  0.1535 -0.0018  0.3470
16251W        W59267   2.015  34.438  15.344 -0.0383 -0.0341 -0.3012
16252W        W59268   1.678  32.342  16.050  0.1229 -0.4439  0.0187
16253W        W59269  11.772   2.185  20.616  0.2623 -0.0643  0.1648
16254W        W59270   0.306  32.701  19.083  0.0479 -0.2733 -0.1222
16255W        W59271  29.934  17.619  16.111  0.1210 -0.3374  0.4311
16256W        W59272   0.617   9.088  20.332  0.0837 -0.1920  0.0581
16257W        W59273  30.366  31.367  28.035 -0.2071 -0.3155  0.0422
16258W        W59274  28.401  33.581  19.476 -0.1740 -0.1403  0.0990
16259W        W59275   7.437   5.231  15.013  0.1307 -0.0226  0.1256
16260W        W59276   6.512  33.913  16.571 -0.0279  0.5272  0.0993
16261W        W59277  13.680  28.200  14.272 -0.1166  0.0434  0.1708
16262W        W59278   6.078  21.372  14.296  0.1748 -0.0782  0.3503
16263W        W59279  33.779  28.412  17.367 -0.0199 -0.3073 -0.0803
16264W        W59280  32.034  21.130  20.082  0.0264  0.1931  0.1000
16265W        W59281   7.214  25.733  20.572  0.1247 -0.1822 -0.1060
16266W        W59282  10.521  21.465  17.824  0.1012  0.0443  0.0055
16267W        W59283  28.536   0.172  21.410 -0.1713 -0.0772 -0.5645
16268W        W59284   5.821   4.504  17.143 -0.0145 -0.1183  0.4018
16269W        W59285  26.851  24.630  24.583 -0.0108  0.0464  0.1070
16270W        W59286  14.332   7.051  27.576 -0.0138 -0.4918  0.1424
16271W        W59287  17.306  27.474  16.392  0.1944  0.3123  0.0130
16272W        W59288   6.489   3.535  23.403  0.3810 -0.0686  0.0613
16273W        W59289  25.688  19.826  17.335  0.3349  0.0125  0.1713
16274W        W59290  12.870  17.786  15.432  0.0936 -0.0505  0.0028
16275W        W59291  25.737  11.134   0.656 -0.1789 -0.2005  0.1700
16276W        W59292   3.184   1.971  21.633  0.2136  0.1747  0.0680
16277W        W59293  26.558  25.686  17.857  0.0365 -0.1782  0.3111
16278W        W59294  27.304  24.704  26.828 -0.1343  0.2509  0.0995
16279W        W59295  11.831  10.699  19.482 -0.1315  0.0737 -0.2878
16280W        W59296   4.691  25.340  20.868  0.2682 -0.0447  0.1408
16281W        W59297  11.706  27.035  19.891  0.0052 -0.0628  0.1684
16282W        W59298  31.473  17.327  16.471 -0.0659 -0.0380 -0.0373
16283W        W59299   7.640  33.880  24.508 -0.1926  0.5323  0.1699
16284W        W59300  10.033  21.609   3.736  0.1558 -0.2014  0.3679
16285W        W59301  29.705  29.602  16.135 -0.0624  0.2176  0.1383
16286W        W59302   2.813   6.983  15.039 -0.3118 -0.5048  0.2843
16287W        W59303   8.851  32.906  17.452  0.0212 -0.2441  0.0606
16288W        W59304   5.040  34.539  22.177 -0.1060  0.2162 -0.1221
16289W        W59305   2.275   0.398  14.666 -0.1810  0.0346  0.1283
16290W        W59306  27.769  18.144  24.044  0.1736 -0.2704  0.4225
16291W        W59307  25.861  31.019  23.613 -0.0600 -0.0639  0.1158
16292W        W59308  20.579   0.923  18.940 -0.2863 -0.1920  0.1270
16293W        W59309   2.432   8.601  25.806 -0.2282  0.0294 -0.1787
16294W        W59310  28.044  20.725  25.112 -0.2727 -0.3609 -0.0190
16295W        W59311  28.968  22.154  28.929  0.0160  0.1358  0.2314
16296W        W59312   8.309  31.700  26.700 -0.3968 -0.3054 -0.0932
16297W        W59313   4.860   6.410  19.588  0.2671  0.2744  0.1027
16298W        W59314  30.108  24.606  19.048  0.2954 -0.0216  0.2275
16299W        W59315   7.482  27.565  22.529  0.3748 -0.1297  0.0756
16300W        W59316   6.522  17.171  23.108  0.1080  0.4360 -0.0430
16301W        W59317  25.388   2.927  17.990 -0.3680  0.2720  0.1215
16302W        W59318  30.867  15.771   2.300  0.0446 -0.5352 -0.0511
16303W        W59319  16.343  27.429  27.250 -0.0214 -0.1636 -0.0171
16304W        W59320  33.948  32.193  21.031  0.1455  0.0810  0.0642
16305W        W59321   3.579  29.672  22.340  0.0797  0.1454  0.1318
16306W        W59322  12.920  27.779  20.594  0.1120  0.3114 -0.0381
16307W        W59323  34.771  12.346  25.072  0.0512  0.1265  0.1579
16308W        W59324   0.921  16.426  20.292  0.1913 -0.0334 -0.2590
16309W        W59325   8.169  24.498  13.139  0.2071  0.2286  0.1409
16310W        W59326  14.213  23.881  20.268 -0.0103 -0.2232  0.2328
16311W        W59327  31.440  25.301  15.714  0.0717 -0.0446  0.0831
16312W        W59328  32.365  11.444   9.535 -0.3511  0.0601  0.1112
16313W        W59329   9.919  12.934  25.278 -0.1027 -0.2094 -0.1288
16314W        W59330   6.690  10.490  21.459 -0.0220 -0.1286  0.2895
16315W        W59331  28.425   7.387   4.283 -0.0969 -0.2487  0.0950
16316W        W59332  28.486  25.311   7.815 -0.2799  0.1317 -0.1835
16317W        W59333  24.362  23.811  23.457  0.0773 -0.1410 -0.2657
16318W        W59334   3.572  23.843  19.652  0.1782 -0.2906 -0.4128
16319W        W59335  14.028  26.519  24.080  0.1852  0.1045  0.1387
16320W        W59336  31.300  22.115  26.827  0.1767  0.1748  0.2810
16321W        W59337  13.578  26.057  22.952  0.0170  0.1301  0.1006
16322W        W59338   1.096  24.009   4.561  0.0549 -0.1313 -0.1413
16323W        W59339  18.499  22.944  16.520 -0.0590  0.0940  0.3492
16324W        W59340  28.307  21.219  26.342  0.2032 -0.0608 -0.1051
16325W        W59341  10.074   0.914   9.351  0.1701 -0.1014 -0.2463
16326W        W59342  22.963  20.601  16.791  0.1190  0.1802  0.3050
16327W        W59343  12.474  22.053  18.877  0.2542 -0.0843 -0.1553
16328W        W59344  27.779  17.961  20.714 -0.0352 -0.3923 -0.1821
16329W        W59345  29.541   9.255  18.145  0.0629 -0.1444  0.1314
16330W        W59346   1.840  16.128  25.794  0.0112  0.0140  0.3424
16331W        W59347  20.603  19.970  21.517 -0.0772  0.1830 -0.0349
16332W        W59348  32.706  32.954   0.821  0.0005  0.1014  0.1063
16333W        W59349  15.202  20.261  19.726 -0.2003 -0.3092  0.2446
16334W        W59350  22.669   5.901  16.645 -0.2890  0.1288  0.1428
16335W        W59351   9.590   0.049  21.223  0.0746 -0.1575 -0.1440
16336W        W59352  31.422  14.737  24.990  0.0760  0.0558 -0.4259
16337W        W59353   0.099  24.775  20.378 -0.3448 -0.0046  0.1793
16338W        W59354   0.805   2.979  15.766 -0.1085  0.2564 -0.1735
16339W        W59355  11.152  32.970   8.564 -0.1617 -0.0768  0.1078
16340W        W59356  10.440  23.033  12.894 -0.0236  0.0185 -0.1283
16341W        W59357  29.559   3.684  20.265 -0.1652 -0.1183  0.4654
16342W        W59358  29.243  21.150  27.093  0.3074 -0.1192 -0.0652
16343W        W59359   0.335  33.528  18.463 -0.1301 -0.2135 -0.2448
16344W        W59360  30.655  14.346  16.340 -0.0117  0.1317  0.0968
16345W        W59361  14.510  10.942   1.741  0.3010  0.0679  0.2543
16346W        W59362   6.321  22.982  21.592  0.0857  0.2732  0.0817
16347W        W59363  31.180  28.997   3.072 -0.0976  0.1532 -0.0091
16348W        W59364  14.325  26.568  26.920 -0.2860  0.0304  0.0904
16349W        W59365   2.262  14.125  22.233  0.0506 -0.1366 -0.0468
16350W        W59366  33.782  22.805  19.778 -0.1101  0.1201  0.1596
16351W        W59367  12.638  12.312  18.510  0.0660  0.1950 -0.2336
16352W        W59368   4.178  23.207  16.118  0.1534 -0.0517 -0.2384
16353W        W59369  33.853  30.299  18.751  0.0769  0.0017  0.0597
16354W        W59370   4.256   4.620  25.425 -0.0158  0.3379  0.0136
16355W        W59371  28.780  17.369  28.024  0.0499  0.0541 -0.0214
16356W        W59372  31.491   1.682  20.757 -0.0217 -0.3825 -0.1308
16357W        W59373  23.348  20.888  18.501  0.0783  0.0438  0.1597
16358W        W59374  33.802  33.110  21.296 -0.2572 -0.1271  0.0648
16359W        W59375  30.226   4.308  16.249 -0.0095 -0.2333  0.0510
16360W        W59376  32.429  26.288  20.385 -0.1040 -0.0616 -0.1837
16361W        W59377  25.217  18.860  15.638  0.4946  0.2306 -0.1937
16362W        W59378  28.565  27.707  20.501 -0.4542 -0.4635 -0.0898
16363W        W59379  16.744  10.836  25.752 -0.0785  0.3270  0.0427
16364W        W59380  30.866  32.306   1.779 -0.0426  0.1546  0.0439
16365W        W59381  11.371  18.609  12.958 -0.1333  0.1682 -0.0369
16366W        W59382  21.727  12.157  27.874 -0.0770  0.2364  0.5018
16367W        W59383  12.584  13.617  19.711 -0.0130 -0.1469 -0.0841
16368W        W59384   9.315  34.770  15.192  0.0283 -0.3208 -0.1787
16369W        W59385  32.540  29.239  20.661 -0.0112  0.1345 -0.1387
16370W        W59386  19.958  26.134  22.957  0.2091 -0.0224  0.1674
16371W        W59387   4.630  32.152  17.915  0.1242 -0.0841  0.0893
16372W        W59388  28.154  27.123   5.520 -0.2324  0.1532 -0.0437
16373W        W59389   6.752  18.415  15.520 -0.1639 -0.4356 -0.1771
16374W        W59390   2.015  22.042  20.574  0.1592 -0.1517 -0.0489
16375W        W59391  24.364  23.752   4.267  0.0600  0.1712 -0.1253
16376W        W59392  27.470  30.033  21.820  0.0896 -0.0257 -0.0793
16377W        W59393   2.339   5.627  15.785 -0.0572 -0.1841 -0.1339
16378W        W59394  15.432  21.817  13.078  0.0648  0.0692 -0.1329
16379W        W59395  33.774   9.947  28.948  0.0107  0.2183 -0.2046
16380W        W59396  32.905   8.622  17.050  0.2930 -0.1759 -0.1654
16381W        W59397   5.002  25.421  25.546 -0.1441 -0.0172 -0.1779
16382W        W59398  34.040  21.509  22.861 -0.2228  0.2608 -0.0055
16383W        W59399   9.449  26.500  21.500 -0.2048 -0.1602  0.1315
16384W        W59400   8.452  23.325  19.884 -0.1484  0.1786  0.1336
16385W        W59401  19.994  26.876   3.018 -0.1161  0.0484 -0.1148
16386W        W59402   7.288  14.568  22.912  0.0162 -0.1160 -0.3500
16387W        W59403  10.045  20.128   4.874 -0.0153 -0.0761  0.0759
16388W        W59404  14.666   7.881  19.237 -0.3186  0.0012 -0.1586
16389W        W59405  18.643  31.962  26.260 -0.1856 -0.3744  0.0828
16390W        W59406   2.923   8.335  14.922 -0.0555  0.2226 -0.1681
16391W        W59407   2.739  32.051   9.201  0.3678 -0.2045 -0.1055
16392W        W59408  31.561   2.302  19.761 -0.2374  0.3424 -0.3323
16393W        W59409  26.856  26.477  24.494 -0.0214  0.0947  0.0898
16394W        W59410  12.033  26.523  17.092 -0.1718  0.0653  0.0098
16395W        W59411  32.775  16.481  14.656  0.0343  0.1240 -0.1764
16396W        W59412   4.298  17.002  22.697 -0.3111  0.2216  0.2136
16397W        W59413   7.141  28.215  14.369 -0.2147 -0.1560  0.1925
16398W        W59414   1.313  23.175   3.173 -0.1635  0.2245  0.1342
16399W        W59415  23.773   0.624  18.611  0.1431 -0.1194 -0.3784
16400W        W59416  17.989   9.738   0.222 -0.2072 -0.2667  0.0244
16401W        W59417  29.894  14.097   9.549 -0.2400 -0.0591  0.0519
16402W        W59418  27.783  28.045  15.907  0.1879  0.1688  0.1071
16403W        W59419   4.757  18.987  15.986  0.0556  0.0984 -0.3085
16404W        W59420  30.122  33.864  27.524  0.1518 -0.0880  0.1277
16405W        W59421   2.872  18.500  20.332  0.1484 -0.1254  0.3005
16406W        W59422  28.387  32.351  22.826  0.2371 -0.1846 -0.0874
16407W        W59423  14.784  29.212  18.790  0.1672  0.1796 -0.2589
16408W        W59424   5.851  20.862  15.369 -0.1051 -0.0567 -0.1013
16409W        W59425  24.568   7.367  26.292 -0.3177  0.0480  0.2547
16410W        W59426  31.930  33.848  17.796 -0.1049 -0.0060 -0.2531
16411W        W59427  18.289  15.796   0.874  0.0035 -0.0999 -0.1997
16412W        W59428  33.341  30.826  20.776 -0.1151 -0.2123  0.0998
16413W        W59429  33.444  16.694   8.936 -0.1512  0.1082  0.1952
16414W        W59430   6.881  21.257  29.003  0.1934  0.2942  0.1280
16415W        W59431   6.382  23.411  19.536  0.0188  0.0652  0.2399
16416W        W59432   1.527   5.249  25.483  0.0255 -0.0594  0.0748
16417W        W59433  16.223  17.164  20.851 -0.0275  0.2437 -0.0034
16418W        W59434   3.250  34.664   8.075  0.1234 -0.1857  0.2533
16419W        W59435   3.801  23.205  19.863 -0.1516  0.0544 -0.1300
16420W        W59436   4.875  25.453  19.911 -0.0717 -0.4183  0.0314
16421W        W59437  28.522  21.542  23.945  0.0055  0.1929 -0.0323
16422W        W59438   0.721  24.834   7.246 -0.0123 -0.1554 -0.3051
16423W        W59439   0.307  29.595  18.042 -0.0090 -0.0269 -0.0709
16424W        W59440   0.393   4.470   4.629 -0.2924 -0.1745 -0.0401
16425W        W59441  28.219  31.256   8.328  0.2929 -0.1002 -0.0517
16426W        W59442   5.549  24.264  27.726  0.2893 -0.1110  0.0342
16427W        W59443  33.937  27.173  23.428 -0.1552  0.1512 -0.0381
16428W        W59444   5.685   3.154  18.229 -0.4555  0.0440  0.1803
16429W        W59445  25.896   5.322  10.590 -0.1576  0.2372 -0.0888
16430W        W59446   2.706  32.533   8.986  0.0839 -0.0609  0.1906
16431W        W59447   6.877  10.969  21.271 -0.1563 -0.0369 -0.0166
16432W        W59448  31.320  21.829  24.062 -0.0050  0.2082  0.0993
16433W        W59449  12.136  21.714  14.645 -0.0958 -0.0499 -0.0777
16434W        W59450  25.735  33.942  22.646 -0.0412  0.0315 -0.5416
16435W        W59451  32.690  33.701  15.501 -0.1776  0.0768 -0.1424
16436W        W59452   4.322   3.586   1.276  0.0019  0.2050  0.2634
16437W        W59453  28.002  34.215  20.437  0.1439 -0.2212 -0.2340
16438W        W59454   2.233  32.204  28.889  0.1293 -0.0645 -0.2421
16439W        W59455  20.080  21.368  15.655 -0.1365  0.0349 -0.1059
16440W        W59456   5.354  20.505  19.884  0.0218  0.3104  0.0080
16441W        W59457   6.262  28.869   5.580  0.2237 -0.0793  0.1978
16442W        W59458   0.929   9.981  15.293 -0.1351  0.3159  0.0447
16443W        W59459   3.743  32.176  27.159 -0.0363 -0.3001 -0.1521
16444W        W59460  31.560  23.273  26.771  0.3524  0.3512  0.1607
16445W        W59461   7.536  10.864  17.268 -0.1773  0.0039 -0.0112
16446W        W59462  31.719  25.528  14.289 -0.1273  0.0665  0.1403
16447W        W59463  31.358  26.619   5.143  0.5163 -0.1867 -0.0835
16448W        W59464  14.832  21.734  27.649 -0.2104  0.0282 -0.1339
16449W        W59465  28.574  33.164  21.688 -0.1080  0.0290 -0.1184
16450W        W59466  11.787   3.230  16.638  0.0006  0.1085 -0.0978
16451W        W59467  29.875  31.596  26.752  0.2235  0.0141 -0.3935
16452W        W59468   0.661  27.323  23.746 -0.1204  0.0280 -0.0741
16453W        W59469  34.262  23.461  24.739 -0.0542  0.2499  0.5079
16454W        W59470   0.614   1.189   4.008  0.1092 -0.2083 -0.1429
16455W        W59471  18.726  22.759  21.761  0.2207  0.4383  0.0355
16456W        W59472  24.128  20.033  22.478  0.1916 -0.2469  0.0051
16457W        W59473  19.817   0.590  24.047 -0.1126  0.0272 -0.0535
16458W        W59474  19.931  31.073  18.324 -0.0967  0.2664 -0.2283
16459W        W59475   2.193  32.046  27.407  0.2371 -0.0525 -0.1478
16460W        W59476  32.343   8.886  22.071  0.0964 -0.0321 -0.0191
16461W        W59477  24.976  11.971   4.491 -0.3334 -0.3238 -0.0437
16462W        W59478  11.833  20.458   1.123 -0.1309 -0.1952 -0.0744
16463W        W59479  31.813  23.776  14.638  0.1273  0.1297 -0.0395
16464W        W59480  33.783  24.275  15.212 -0.0020  0.1834 -0.0039
16465W        W59481  33.818   8.501  28.466  0.1338  0.2639  0.2754
16466W        W59482  11.587  31.864  27.998  0.0755 -0.0665 -0.1455
16467W        W59483   1.547   5.726  23.300 -0.3252 -0.0761 -0.3400
16468W        W59484  21.964  27.459  25.062 -0.0611 -0.2958 -0.0098
16469W        W59485  25.453  21.365  25.871 -0.1188 -0.0670 -0.3101
16470W        W59486  16.531   0.775  15.562  0.0635 -0.1478  0.2986
16471W        W59487   5.186  26.714  16.910 -0.0417  0.3551  0.1756
16472W        W59488  34.184  34.487  17.138  0.2999  0.2007 -0.1166
16473W        W59489  21.263  34.118  19.496 -0.0277  0.0490  0.3412
16474W        W59490  25.361  23.317  17.961 -0.0657 -0.1378 -0.3563
16475W        W59491   3.636   1.963  28.901  0.3184  0.0113 -0.1426
16476W        W59492  33.877  23.485  25.796 -0.0493  0.1125 -0.2578
16477W        W59493   1.310   0.404   3.959  0.0989 -0.1624 -0.1066
16478W        W59494   5.004  15.807  13.789 -0.1582 -0.1828 -0.2503
16479W        W59495  31.726  32.555   2.800 -0.2950  0.1649 -0.1183
16480W        W59496   0.333  19.986  21.581 -0.0301 -0.1267  0.1331
16481W        W59497  15.035  30.860   5.721  0.1392 -0.3504  0.3472
16482W        W59498  20.146  19.779  15.265 -0.0826 -0.0162 -0.1941
16483W        W59499  20.751   7.876  15.676  0.0794  0.0090  0.2256
16484W        W59500  22.775   7.366  22.117  0.0134  0.0625  0.1691
16485W        W59501  14.260  23.159  13.997  0.2634  0.1376  0.0149
16486W        W59502  20.138   0.802  18.038  0.0572  0.1028 -0.0730
16487W        W59503   7.408  19.921  15.450  0.2619 -0.1111  0.0334
16488W        W59504  19.335  26.985  21.428 -0.1819  0.1528 -0.0642
16489W        W59505  30.427  23.651  24.048  0.0441 -0.1112 -0.2595
16490W        W59506   4.303   6.500  20.542 -0.1830 -0.0772 -0.0355
16491W        W59507   3.438  12.786  23.276  0.6211 -0.0944  0.1190
16492W        W59508   9.515   1.413  22.954 -0.0463 -0.1971  0.1648
16493W        W59509   5.757  17.797  25.463  0.2315  0.1334  0.0265
16494W        W59510   6.363  27.361  18.227  0.1700 -0.2204  0.1979
16495W        W59511   8.284  16.549  22.929  0.0502 -0.1508  0.0811
16496W        W59512  17.236  11.001  13.614  0.1398  0.0013 -0.2311
16497W        W59513  28.985  14.533  20.448  0.2311  0.3280 -0.0415
16498W        W59514   4.596   4.983  18.080 -0.1416 -0.0946 -0.3003
16499W        W59515   7.802  19.060   8.088  0.0825  0.3498  0.0550
16500W        W59516  34.314  21.467  18.162 -0.0990 -0.2643  0.1935
16501W        W59517  29.414  30.906  23.053  0.1511 -0.1702  0.0081
16502W        W59518   1.503  10.983  20.486 -0.1069  0.4007  0.3115
16503W        W59519  22.959  14.371  22.676  0.3067 -0.2325 -0.2661
16504W        W59520  10.632  33.934   0.887  0.0119  0.1692  0.0632
16505W        W59521  29.379  32.881  17.051  0.3510  0.0672 -0.1336
16506W        W59522   4.910  16.413  21.916  0.1098 -0.0623 -0.0146
16507W        W59523   1.605  29.814  28.427  0.0333  0.1058  0.5450
16508W        W59524   1.060  22.880  19.834 -0.1183  0.1882  0.0853
16509W        W59525  11.064  24.053  25.862 -0.0238  0.1813 -0.1091
16510W        W59526   0.254  17.907   4.352 -0.1016 -0.0640  0.0626
16511W        W59527  30.608  20.431  19.009 -0.1661  0.0041 -0.0409
16512W        W59528   2.209  23.928  21.187  0.2339  0.0423 -0.0491
16513W        W59529  12.428  23.060  25.189  0.0767 -0.3379  0.2509
16514W        W59530   3.144   5.142  19.296  0.0728  0.2023  0.1175
16515W        W59531   5.852  29.589  16.673 -0.1344 -0.0695  0.0051
16516W        W59532  25.282   1.938  27.255  0.1883  0.2253  0.1424
16517W        W59533  17.038  19.070  15.047  0.1507  0.1554 -0.0027
16518W        W59534  24.683  18.633  19.525  0.2007  0.1260 -0.1224
16519W        W59535  24.238  13.389  28.756  0.0617  0.4147 -0.2627
16520W        W59536  31.984  34.039  15.650  0.0127  0.0976 -0.1150
16521W        W59537  15.053  13.352  11.992 -0.3314 -0.0368  0.0391
16522W        W59538   3.620  30.727   1.241  0.2167  0.2853 -0.0833
16523W        W59539   3.939   3.131  20.172 -0.0070 -0.0028 -0.1711
16524W        W59540   3.010  25.034   1.489 -0.1160  0.1434 -0.2800
16525W        W59541  32.935  27.835  24.126  0.0591  0.2700 -0.2945
16526W        W59542  22.096   2.980  16.925  0.1714 -0.4099 -0.3524
16527W        W59543   7.833   8.965  20.696  0.2087 -0.4851  0.5666
16528W        W59544   8.835  23.719  16.676  0.1175 -0.0474  0.0127
16529W        W59545  26.689  27.951  15.950 -0.0447  0.1445  0.4034
16530W        W59546  28.980  26.987  28.746  0.1262  0.1164  0.0953
16531W        W59547  25.845  34.346   0.203  0.0664  0.1995 -0.1406
16532W        W59548   8.597   9.554  20.831  0.6211  0.2590 -0.4217
16533W        W59549  29.482  29.542  28.636  0.2439 -0.0220 -0.0190
16534W        W59550  29.537  26.857  26.973  0.2521  0.0903  0.3302
16535W        W59551  31.577  32.736  23.964 -0.0751 -0.0040 -0.2071
16536W        W59552  11.027  20.055  13.159  0.2472  0.0498 -0.0390
16537W        W59553   0.180  21.650   0.977 -0.2661 -0.0499 -0.3033
16538W        W59554  11.105  28.340   8.424 -0.0048  0.0927  0.0515
16539W        W59555   8.680   0.568  18.993 -0.0448  0.0041  0.0667
16540W        W59556  23.200  33.859  10.969  0.1780 -0.1245 -0.3648
16541W        W59557   3.205  15.113  22.489  0.0830  0.2218 -0.0926
16542W        W59558  24.692   7.286  22.940 -0.1573  0.0588 -0.4695
16543W        W59559   9.034  31.978  26.196 -0.0538 -0.1437 -0.0526
16544W        W59560  30.360  12.495  26.668  0.1034 -0.1329 -0.1490
16545W        W59561  27.750  19.707  17.696 -0.0248 -0.0026 -0.0303
16546W        W59562  12.977  33.310  20.960  0.1517 -0.0176 -0.1559
16547W        W59563   4.050   9.721  15.668 -0.0098  0.1650 -0.0106
16548W        W59564   5.094   7.130  16.184 -0.1776 -0.0602 -0.5278
16549W        W59565  14.606   1.142  17.390 -0.0227 -0.0852 -0.3741
16550W        W59566  19.277  28.381  15.736  0.0719 -0.0755 -0.0049
16551W        W59567   0.081  13.322  17.259 -0.1457 -0.3978  0.0267
16552W        W59568  24.421  25.490   5.612 -0.2391  0.0895 -0.1169
16553W        W59569   1.281  34.200  21.346 -0.3036 -0.0981  0.1084
16554W        W59570   3.675  12.205  28.263 -0.0869 -0.0490  0.2143
16555W        W59571  28.611  29.741  22.243  0.4092 -0.0818  0.1873
16556W        W59572   3.023  27.037   0.432  0.1560  0.0393  0.1125
16557W        W59573   0.440  30.416  20.574  0.0766  0.0743 -0.0132
16558W        W59574  27.807  29.599  11.512 -0.0636 -0.0840 -0.0332
16559W        W59575  34.211  27.437  24.253  0.0485 -0.1317  0.1563
16560W        W59576   4.607  30.450  19.492 -0.0170 -0.0826 -0.1498
16561W        W59577  22.988   4.405   4.852  0.0360  0.2949 -0.1336
16562W        W59578  26.779   5.335  19.249 -0.1342 -0.1176 -0.1759
16563W        W59579  31.393  29.343   5.557  0.2637 -0.3961  0.1371
16564W        W59580   5.104   2.009   5.735 -0.0459  0.0049  0.1403
16565W        W59581  25.470   5.278  23.795 -0.0476  0.1011  0.1706
16566W        W59582   3.218   6.563  23.022 -0.0925  0.1248 -0.2138
16567W        W59583  14.648  27.017  20.969  0.1247  0.2742  0.1231
16568W        W59584   3.773  32.126  14.332 -0.2389 -0.0735 -0.1447
16569W        W59585   3.746   0.114  23.867 -0.1960  0.0014 -0.1899
16570W        W59586  17.004  11.706  18.325 -0.1429 -0.0498  0.0404
16571W        W59587  34.572  24.738  19.004  0.0667 -0.2636  0.1681
16572W        W59588  30.345  32.577  28.055  0.2599 -0.4294  0.0948
16573W        W59589  30.510  31.877  27.449  0.2887  0.3019 -0.1926
16574W        W59590   9.021  25.877  18.443 -0.2049  0.3639  0.5015
16575W        W59591   2.924  30.376  27.104  0.3125 -0.2514  0.1622
16576W        W59592   8.586  28.004  24.553  0.0231  0.0823 -0.2055
16577W        W59593  11.990  28.357  26.381 -0.2866  0.1449 -0.2747
16578W        W59594   9.756  27.363  18.941 -0.0514  0.1004 -0.0426
16579W        W59595  32.834   7.956  24.434 -0.1859  0.1855 -0.0272
16580W        W59596  30.455  31.646   0.747 -0.0736  0.2126 -0.3758
16581W        W59597  28.104  32.961  16.504 -0.1947  0.0809  0.3881
16582W        W59598  33.838  28.259  26.335 -0.0137 -0.0692 -0.0417
16583W        W59599  33.427  21.454  17.697 -0.1574 -0.2220 -0.0456
16584W        W59600  30.260  21.139  15.758  0.2253 -0.1429  0.2038
16585W        W59601  31.364  29.757  15.612  0.0203  0.0834 -0.1275
16586W        W59602   3.134  19.962  13.741 -0.4719  0.1517  0.2564
16587W        W59603   5.025  16.515  17.174  0.0767  0.0665  0.0701
16588W        W59604  20.281  28.611  23.912 -0.1981 -0.3042  0.0282
16589W        W59605   9.629  32.418  13.968 -0.1222  0.2915  0.0550
16590W        W59606  31.947  14.128   3.551 -0.6056  0.0032 -0.0725
16591W        W59607  33.586  22.314  20.269  0.5074  0.1246 -0.1372
16592W        W59608   9.570  15.188  21.451 -0.1019 -0.0237 -0.0465
16593W        W59609  26.164  29.084   1.727  0.0021 -0.0396  0.1746
16594W        W59610  25.889  32.850  17.914  0.1806 -0.0353  0.0593
16595W        W59611  22.261  15.186  17.032  0.0915 -0.0787  0.2297
16596W        W59612   2.927  18.063  18.894  0.0234  0.2454  0.0920
16597W        W59613   0.189  33.231   3.861 -0.1735 -0.1222 -0.4547
16598W        W59614   3.242  24.474  19.529  0.0139 -0.0596 -0.0431
16599W        W59615  26.306   4.709  21.294 -0.2130 -0.1605 -0.1892
16600W        W59616  29.908  24.642  21.751  0.2405  0.0988 -0.0645
16601W        W59617   1.767   7.675  23.883 -0.0899  0.1488 -0.0316
16602W        W59618  29.237   0.293   1.258 -0.1169  0.0211  0.1198
16603W        W59619  32.387  33.617  21.012 -0.0477  0.2458 -0.2135
16604W        W59620   0.655  15.458   3.348 -0.0492 -0.2136  0.1386
16605W        W59621   1.972  25.047  23.416  0.1489 -0.1844 -0.0612
16606W        W59622  28.247  20.023   2.871 -0.1590 -0.1776  0.0022
16607W        W59623  22.017  11.240  23.883  0.1169 -0.1229  0.1638
16608W        W59624  33.587  32.750  10.413 -0.1497  0.0978 -0.4170
16609W        W59625   8.862  30.771  15.030 -0.0367  0.0945 -0.0200
16610W        W59626  12.329  22.297  17.531  0.0601 -0.3004 -0.0086
16611W        W59627   3.027   6.193  19.023 -0.1184 -0.1755  0.1351
16612W        W59628   0.540  28.919   1.459  0.0317 -0.1573  0.1024
16613W        W59629   5.309  19.003   7.207 -0.0358  0.0121 -0.0508
16614W        W59630   2.431   7.140   0.880  0.2976  0.1134  0.0389
16615W        W59631   3.304  29.665  17.399 -0.0290 -0.1087  0.4594
16616W        W59632  25.815  31.525  19.061  0.0423 -0.1591  0.0809
16617W        W59633   3.665  34.041  20.031 -0.0295 -0.0948 -0.0940
16618W        W59634  34.306  32.186   0.095  0.0145 -0.2636 -0.0720
16619W        W59635   5.873   2.461  22.053  0.2925  0.3253  0.0497
16620W        W59636   7.705  33.594  27.293  0.0561 -0.3409  0.0204
16621W        W59637  23.805  11.947  24.844  0.0837 -0.0856 -0.2238
16622W        W59638   7.212  23.369   5.319  0.0032  0.2536 -0.3419
16623W        W59639   1.244  30.693   0.266  0.1834  0.0254  0.0237
16624W        W59640  21.010  28.977  26.304 -0.0948 -0.4224  0.3216
16625W        W59641  15.879  20.173  24.171  0.2597 -0.0892  0.0889
16626W        W59642   8.556  23.853  26.307 -0.1200  0.1983  0.0633
16627W        W59643  32.104  16.723   2.404 -0.2462  0.1402 -0.0554
16628W        W59644   0.226  30.522  27.677 -0.4606  0.0719  0.0867
16629W        W59645   4.196  25.623   1.197 -0.4751  0.0110 -0.1705
16630W        W59646   8.397  27.240  25.945  0.0734  0.0262 -0.1379
16631W        W59647  28.388   7.095   6.427 -0.0957  0.0234 -0.1261
16632W        W59648  30.321   0.197  10.066  0.3958 -0.2526  0.0975
16633W        W59649   6.514  33.926  23.375  0.0960 -0.1137 -0.3076
16634W        W59650  32.053  31.966  15.621 -0.0482 -0.3118 -0.0699
16635W        W59651   4.756   7.415   9.960 -0.2373  0.0233 -0.0325
16636W        W59652  20.445  28.211  21.836 -0.0130  0.4667  0.0091
16637W        W59653   5.210  27.584   1.685 -0.0680  0.4794 -0.2596
16638W        W59654  31.822  24.263  29.262 -0.0761  0.4084 -0.0243
16639W        W59655  11.192   1.414  20.589 -0.2168  0.1124 -0.2078
16640W        W59656   2.892  28.344  23.536  0.0646 -0.1157 -0.0217
16641W        W59657  31.523  28.701  23.390  0.1981  0.1084 -0.1278
16642W        W59658  29.023  20.618  23.838 -0.1493 -0.0485  0.1166
16643W        W59659  25.982  14.061   3.609 -0.0726  0.2285  0.3462
16644W        W59660   7.824  22.024  13.954 -0.0105  0.2112 -0.0029
16645W        W59661   7.860  19.045   0.095 -0.0214 -0.1445 -0.2506
16646W        W59662  12.315  18.194  27.123  0.0480  0.0523 -0.2256
16647W        W59663  27.288  28.674   8.794  0.1287 -0.1392 -0.2916
16648W        W59664  15.747   9.714  18.326 -0.0636 -0.1890  0.3155
16649W        W59665   0.449   5.019   1.857 -0.4680  0.0942  0.2231
16650W        W59666  32.454  20.521   9.743  0.1188 -0.1668  0.1196
16651W        W59667  11.957  19.989  22.003  0.4547 -0.0648 -0.0669
16652W        W59668  30.584   1.887   6.274 -0.2570 -0.0499  0.0541
16653W        W59669   5.504  22.350  16.460 -0.0317  0.0693  0.1428
16654W        W59670   7.192  28.037  24.051  0.1426  0.3059  0.0010
16655W        W59671  22.846  25.970  19.509 -0.3813 -0.2498  0.1329
16656W        W59672   2.226  27.659  21.433  0.1895  0.2929 -0.4093
16657W        W59673   3.030   8.858  21.960  0.3024 -0.0543 -0.1452
16658W        W59674   1.221   3.509  17.831  0.0009  0.2373 -0.0088
16659W        W59675  31.158  31.023  17.807  0.0276 -0.2157  0.0010
16660W        W59676  27.243  21.268  17.434 -0.2955 -0.4497  0.0023
16661W        W59677  13.812  12.491   1.504 -0.1949  0.1112 -0.1391
16662W        W59678  32.893   1.213   5.229  0.1916  0.1160 -0.1029
16663W        W59679   4.464  13.724  18.060 -0.1334  0.0085 -0.1944
16664W        W59680  32.333  18.678  19.683 -0.1368 -0.0633  0.0879
16665W        W59681  28.201  30.013   2.675  0.0156  0.2133 -0.1168
16666W        W59682   4.697  15.538  17.858  0.0436 -0.0304 -0.2334
16667W        W59683   2.885  25.573  24.095 -0.0061 -0.1455 -0.2833
16668W        W59684  14.337  28.414  25.759  0.0212 -0.0739  0.4571
16669W        W59685  11.786  23.299  18.158  0.1671 -0.0657  0.2872
16670W        W59686  13.002   3.898  14.391 -0.1511  0.0314 -0.1130
16671W        W59687  33.881  20.570  25.916 -0.1513 -0.1478  0.3323
16672W        W59688  27.981  33.757  24.185  0.1271  0.1450  0.4470
16673W        W59689   3.007  29.174  15.989 -0.1590 -0.1356 -0.1316
16674W        W59690   8.225  33.473  24.308  0.1690 -0.0187  0.2272
16675W        W59691   9.496  32.584   3.336 -0.0824 -0.2821  0.0467
16676W        W59692   2.349  17.287   4.761  0.1682 -0.1229 -0.1419
16677W        W59693  29.171  23.680  25.611 -0.0121 -0.0456  0.1755
16678W        W59694   1.878   1.451  25.452 -0.1371 -0.1908 -0.3625
16679W        W59695  34.579  20.695  14.907 -0.1301 -0.0194  0.0425
16680W        W59696  28.631  25.790  18.259  0.3083 -0.0138 -0.0733
16681W        W59697  27.147  19.085   0.167  0.1896  0.0644  0.2358
16682W        W59698   4.357  19.481  16.640 -0.2173 -0.0357 -0.1957
16683W        W59699  20.029  17.097  22.223 -0.0861  0.2116 -0.1473
16684W        W59700  31.502   5.317  24.856  0.1449 -0.1810 -0.4137
16685W        W59701  16.438  23.531   0.767  0.2229 -0.0007 -0.1979
16686W        W59702   2.692  19.301   0.051  0.2376  0.0477 -0.0807
16687W        W59703   0.876   1.202  28.671  0.0908  0.2856 -0.1274
16688W        W59704  24.921  21.059  23.132 -0.0858  0.2189  0.1309
16689W        W59705  11.380  25.356  17.858 -0.2334 -0.1547 -0.0577
16690W        W59706  33.081  13.595   5.683  0.0536  0.3080  0.1424
16691W        W59707   5.258  28.022  24.990 -0.0323 -0.1461  0.0604
16692W        W59708  21.742  22.864  26.552 -0.0731 -0.2738 -0.3252
16693W        W59709  16.190  27.989   8.213  0.0317 -0.3215 -0.0003
16694W        W59710  17.607  33.429  19.037  0.1535  0.0941  0.2646
16695W        W59711  30.295   6.587   0.452  0.1699  0.0084 -0.1719
16696W        W59712   2.090  20.408  21.562  0.3933 -0.1528 -0.0156
16697W        W59713  33.499  25.778  25.662  0.2051 -0.1078 -0.3382
16698W        W59714   9.927   8.344   5.654  0.3494 -0.2488  0.1267
16699W        W59715  30.691  17.335  26.269  0.0398 -0.0797  0.0635
16700W        W59716  26.313  23.103  18.333  0.0522  0.0925  0.0755
16701W        W59717  28.695  19.432  23.597 -0.0942  0.0898 -0.1285
16702W        W59718   9.012  29.890  21.038  0.3220  0.2226  0.0695
16703W        W59719   9.011  14.305  21.077 -0.0597  0.2854  0.1401
16704W        W59720  25.099  17.168  16.270 -0.0603 -0.0335 -0.0378
16705W        W59721  32.706   8.150  23.028 -0.1088 -0.2412  0.0319
16706W        W59722  33.540   3.710  14.344  0.0516 -0.2240 -0.1744
16707W        W59723  21.999  10.439  23.363  0.1054 -0.0119 -0.0204
16708W        W59724   2.405  19.400  17.362  0.1880  0.4424  0.1349
16709W        W59725   8.544  31.608  23.941  0.2238  0.0947  0.1177
16710W        W59726  24.928  33.389  16.656 -0.2495  0.0312  0.1884
16711W        W59727  30.173  30.519   5.936 -0.0026  0.0514 -0.1244
16712W        W59728  19.143  26.198  19.887 -0.1207  0.1349 -0.2661
16713W        W59729  21.607   2.620  17.689  0.1893 -0.1288  0.0060
16714W        W59730  20.687   0.322  26.781 -0.0988 -0.0586  0.0920
16715W        W59731  24.360  26.539   9.741 -0.1345 -0.0262 -0.0468
16716W        W59732   5.745  25.804   3.885  0.1527  0.2376  0.2758
16717W        W59733  33.817  23.329   1.276  0.0753  0.1088 -0.2921
16718W        W59734   0.134   5.093   9.465 -0.1222  0.1864 -0.1183
16719W        W59735   6.669  10.179  19.827 -0.0823  0.2932 -0.0146
16720W        W59736   3.928  25.840  27.509 -0.0785  0.1358  0.3846
16721W        W59737   3.910   0.465  15.090 -0.1212 -0.2374  0.0276
16722W        W59738   6.509   0.415  26.503  0.3495  0.3329 -0.0233
16723W        W59739  21.154   3.099  23.816  0.0749 -0.0016  0.3165
16724W        W59740   7.328   0.053  16.043 -0.0656  0.0129 -0.0631
16725W        W59741   6.608  20.220  25.319 -0.2502 -0.2157  0.0926
16726W        W59742   3.455   6.708  28.375 -0.0789 -0.0510  0.0576
16727W        W59743  24.312  15.931   0.420 -0.0106 -0.4072  0.0780
16728W        W59744  26.817   3.985  22.096  0.0912  0.0851 -0.0556
16729W        W59745  16.199  24.682   1.528 -0.0517  0.0932 -0.3433
16730W        W59746   2.280  31.582   8.037 -0.3585  0.1891  0.1719
16731W        W59747  14.313  16.396  21.179 -0.1625  0.0516 -0.0675
16732W        W59748  33.690  21.438  15.765  0.3572  0.3599  0.0682
16733W        W59749  12.787  22.142  21.710 -0.1082 -0.0654  0.0149
16734W        W59750  30.491  13.183  24.892 -0.0952 -0.0314 -0.1766
16735W        W59751  30.201  23.204  27.061  0.1457  0.2083  0.0128
16736W        W59752   2.086  15.831  27.238  0.4726  0.0180  0.0748
16737W        W59753  31.644   6.078  27.989  0.2176 -0.4666 -0.2667
16738W        W59754   7.944   1.183  16.194  0.1513  0.4213  0.1575
16739W        W59755   4.271  20.762   1.270 -0.0959  0.0980 -0.1389
16740W        W59756  31.105  32.408  22.457 -0.2950  0.3512 -0.0830
16741W        W59757   3.022  33.993  16.822 -0.2148 -0.1040 -0.2824
16742W        W59758  15.413   8.363   0.932  0.2013 -0.1292  0.3338
16743W        W59759  10.637  31.386  16.764 -0.0135  0.1016  0.1217
16744W        W59760   0.165   1.024  19.980 -0.2575 -0.0956  0.5309
16745W        W59761   5.875  20.243  21.677 -0.2084 -0.1689 -0.0260
16746W        W59762  33.829  31.351  16.364  0.0493 -0.1679 -0.0907
16747W        W59763  23.466  26.326  18.613  0.0789  0.0997 -0.0519
16748W        W59764   7.283  31.920   2.362 -0.1475  0.2049 -0.2407
16749W        W59765   5.105  32.896  19.913 -0.1597 -0.1729 -0.4071
16750W        W59766   8.194  12.006  22.816 -0.0135  0.0254 -0.2488
16751W        W59767   1.427  21.975  20.870 -0.2105  0.4922 -0.2676
16752W        W59768  24.974  22.426   7.213 -0.4164  0.2645 -0.0334
16753W        W59769  32.623   3.260  14.722  0.2508  0.1562  0.3270
16754W        W59770   6.583   7.572  15.926 -0.0894 -0.0029  0.0776
16755W        W59771  15.897  31.363   2.965 -0.0127  0.1341 -0.0717
16756W        W59772  18.004  27.286   8.353 -0.3443  0.1711  0.3490
16757W        W59773  27.399   7.121   7.182 -0.1565  0.1128  0.2158
16758W        W59774  25.578  33.933  28.836 -0.0977  0.0267  0.3945
16759W        W59775  26.849  24.042  21.715 -0.0168  0.1475  0.2794
16760W        W59776   4.830   0.228  18.342 -0.1547 -0.2105  0.0281
16761W        W59777   3.258  23.210  26.614 -0.0065 -0.0523 -0.0617
16762W        W59778   3.692  24.578  20.875 -0.2147 -0.2524 -0.2591
16763W        W59779  10.474  27.909  25.932  0.1168  0.1293  0.0941
16764W        W59780  11.091  18.325  13.694  0.0405  0.1928 -0.1545
16765W        W59781  12.903  29.559  17.083 -0.0906  0.0314  0.2408
16766W        W59782   4.093  22.883  17.834  0.0372 -0.2903  0.1207
16767W        W59783   0.284  10.561   4.240  0.3006  0.3227 -0.2079
16768W        W59784  18.527  23.525  18.039 -0.3516 -0.2299 -0.0171
16769W        W59785   1.668  25.400  17.970  0.3895  0.0357 -0.2597
16770W        W59786  29.631   2.549  17.196 -0.2421 -0.1490 -0.0064
16771W        W59787   6.631   0.447  20.471  0.0141 -0.1999  0.1647
16772W        W59788  17.526   0.845   0.713 -0.2807 -0.1524  0.0033
16773W        W59789  31.480  32.914  22.091  0.4317  0.1196  0.0288
16774W        W59790  28.554  11.395  16.947  0.0476 -0.0992  0.0724
16775W        W59791  30.138   5.752  22.025  0.0627  0.2175 -0.0313
16776W        W59792  33.371  27.314   2.921 -0.2279  0.0175 -0.1606
16777W        W59793   3.031   1.202   3.792 -0.1406  0.0176 -0.0436
16778W        W59794  27.262  13.391  17.754  0.2137 -0.1430 -0.3587
16779W        W59795   8.000  25.065  23.981 -0.2201  0.3417 -0.0872
16780W        W59796   7.763  22.132   1.929 -0.0091  0.0939 -0.2564
16781W        W59797   4.097  30.707  21.702 -0.2526 -0.1123 -0.2141
16782W        W59798  33.152  25.353  10.091 -0.0663 -0.0845  0.0556
16783W        W59799   1.852  13.021  19.558  0.1583  0.1010 -0.0025
16784W        W59800  31.922   7.566  18.998 -0.0290 -0.0578 -0.1555
16785W        W59801  25.324  20.269  17.938 -0.0687 -0.2387 -0.0920
16786W        W59802  33.655  21.961  23.626 -0.0156 -0.1981 -0.0738
16787W        W59803  23.632  20.526   5.383 -0.1501  0.0890  0.1290
16788W        W59804  21.259  26.779   1.304 -0.3060 -0.2164 -0.1838
16789W        W59805  20.235  32.707  25.372 -0.1184 -0.0650  0.2588
16790W        W59806   0.431  27.460   6.329  0.3269 -0.2063  0.2083
16791W        W59807  30.772  30.066  19.116  0.1108 -0.0743  0.0450
16792W        W59808   7.771  11.375  17.286 -0.0488  0.2145 -0.0457
16793W        W59809   1.001  14.193   4.765 -0.1351  0.2675  0.0292
16794W        W59810   2.903   5.171  21.974 -0.0819  0.1788 -0.0341
16795W        W59811   6.346  29.393  22.667  0.3670 -0.1170 -0.1172
16796W        W59812   3.037   1.519  23.668  0.0940 -0.1823 -0.1435
16797W        W59813   2.292  28.008  28.192  0.0602 -0.2428  0.1145
16798W        W59814   1.777   4.917  26.117 -0.2395  0.0021  0.2023
16799W        W59815  30.026  26.749   3.786 -0.2267 -0.3760 -0.1212
16800W        W59816   0.364  20.507  18.341  0.0544  0.1501  0.3143
16801W        W59817   4.059  30.466  18.440  0.3026  0.1664 -0.0630
16802W        W59818   6.269  18.194  21.084 -0.2196  0.0795  0.0698
16803W        W59819   3.995  12.530   0.797  0.0466 -0.4332 -0.2117
16804W        W59820  32.832  29.057  25.963 -0.0397  0.2677  0.0814
16805W        W59821  29.864  32.608  23.198  0.0323  0.0987 -0.0662
16806W        W59822  13.434  26.171  16.087  0.3429  0.0831  0.0272
16807W        W59823  12.567  12.793  25.611 -0.2309  0.1729 -0.0168
16808W        W59824  10.036  25.003   6.156  0.2703 -0.2514 -0.0169
16809W        W59825  23.888  21.710  28.743 -0.5024 -0.1193 -0.0243
16810W        W59826  27.117  29.999   9.455 -0.1358  0.2218 -0.2614
16811W        W59827  16.911   9.610  22.451  0.2214 -0.0140  0.1349
16812W        W59828   0.395  22.697   5.345  0.1017  0.3281  0.1876
16813W        W59829   4.848   2.374   4.668  0.1096  0.1953  0.2169
16814W        W59830  32.598  26.983  17.679  0.1285  0.0326 -0.0799
16815W        W59831  30.478  18.403   3.362  0.0404 -0.2514  0.0259
16816W        W59832   8.679   2.924  14.714 -0.2317  0.0082  0.2084
16817W        W59833  11.917  29.260  15.445 -0.2607 -0.0184  0.3014
16818W        W59834  33.617  23.200   2.227 -0.0187 -0.0198 -0.2935
16819W        W59835   5.331  31.507  17.478 -0.3692  0.0001  0.4190
16820W        W59836  30.487   5.539   9.731  0.0277  0.0296 -0.1779
16821W        W59837   2.610  20.514  28.007 -0.1161  0.3384 -0.0822
16822W        W59838  24.566  30.638   0.238  0.1400  0.0334 -0.3814
16823W        W59839  30.894   3.659  28.054  0.4362 -0.0110 -0.1181
16824W        W59840   4.317  30.138  26.451  0.1182 -0.0801  0.1318
16825W        W59841  24.170  32.593   1.830  0.0304  0.1549 -0.1704
16826W        W59842  33.533  22.469   6.703  0.1178  0.0632  0.0679
16827W        W59843   5.253   0.742  15.385 -0.1682 -0.0586  0.0219
16828W        W59844  34.213   9.985  25.510  0.0653 -0.0366 -0.0888
16829W        W59845   0.872  24.097  19.497 -0.0155  0.1592  0.0495
16830W        W59846  19.896  30.310   4.469  0.1021 -0.3333 -0.1977
16831W        W59847   6.352  28.197  15.626 -0.0481  0.0932 -0.4411
16832W        W59848  18.769  21.737   0.532  0.1811 -0.1887  0.1678
16833W        W59849  31.405   8.943   2.156  0.2328 -0.0175  0.1737
16834W        W59850  11.596   1.980  17.749 -0.0218  0.2648  0.0935
16835W        W59851   1.716  32.724  17.378  0.0194 -0.1831  0.0028
16836W        W59852  33.051  27.299  19.482  0.1964  0.1265  0.0571
16837W        W59853   8.497  13.734  28.065 -0.1495 -0.3635 -0.0685
16838W        W59854   6.169  26.448   4.335 -0.0779  0.0239 -0.2864
16839W        W59855  14.835  10.754  20.421 -0.0364  0.0116 -0.0195
16840W        W59856  12.924  25.074  27.223  0.1814  0.2488  0.3141
16841W        W59857   4.341   2.026   3.360  0.0002 -0.0090  0.2039
16842W        W59858  31.338  24.693  26.719  0.3742  0.1294  0.0998
16843W        W59859  32.816  24.291   0.862 -0.2028 -0.0844  0.1360
16844W        W59860  33.326   4.730  26.349 -0.0452 -0.1332 -0.2616
16845W        W59861  34.566  27.085  15.003 -0.0207 -0.1219 -0.1665
16846W        W59862   4.845  18.748  13.800 -0.1575 -0.0136  0.0791
16847W        W59863  31.644  21.319   2.303 -0.0776  0.1257 -0.1347
16848W        W59864  10.271  29.575   4.112  0.0100 -0.1674  0.2760
16849W        W59865  26.485   5.840  28.626  0.0056 -0.2120  0.3469
16850W        W59866   4.632  17.615  22.759  0.1253 -0.2457 -0.1012
16851W        W59867   7.073   8.075  22.098 -0.1950 -0.0451  0.0259
16852W        W59868  31.515  20.911  24.529  0.2565  0.2158 -0.2322
16853W        W59869  24.214   7.118   1.533 -0.3263  0.2202  0.2040
16854W        W59870  25.421  22.956  11.129 -0.2360 -0.0729 -0.1132
16855W        W59871   6.827  27.488   6.653  0.0185  0.2534  0.1258
16856W        W59872   8.171  22.201   2.632 -0.0050 -0.0198 -0.1612
16857W        W59873  14.467  23.539  20.009  0.1573  0.1640  0.3353
16858W        W59874  21.696   8.489  24.238  0.0234 -0.1252 -0.1718
16859W        W59875  19.411  12.455  16.387  0.5441 -0.0201 -0.2206
16860W        W59876  10.289   3.706   9.032 -0.1198 -0.0385 -0.1225
16861W        W59877  31.253  17.648  20.803  0.1004 -0.1072 -0.0835
16862W        W59878  16.157  18.315  18.712 -0.1948  0.0031  0.3321
16863W        W59879  31.875  15.582  23.088 -0.0463  0.3880  0.0411
16864W        W59880  23.994   0.894  28.942 -0.2134 -0.0771  0.1699
16865W        W59881   6.060   4.053   8.967  0.1124 -0.1567  0.0633
16866W        W59882  10.544  21.070   3.156 -0.1961  0.1473 -0.2081
16867W        W59883  16.493  29.919   7.006  0.2600 -0.1958 -0.0091
16868W        W59884  10.729  20.947  24.603 -0.0979 -0.1873  0.2678
16869W        W59885   4.372  23.259   3.378  0.0016 -0.1114 -0.3376
16870W        W59886  22.163  22.256  21.628 -0.2777 -0.1366  0.3335
16871W        W59887  25.081   0.360   9.646 -0.0692  0.0576  0.0449
16872W        W59888   1.111  27.159  15.068 -0.2742 -0.1583 -0.2569
16873W        W59889  22.771   7.925   7.028  0.0479 -0.1357 -0.4957
16874W        W59890  25.590  10.419   5.441 -0.0203  0.2116  0.2211
16875W        W59891  10.059  17.191  15.817  0.1784  0.0936 -0.1469
16876W        W59892  11.749   6.751   1.973 -0.3283 -0.2712 -0.2448
16877W        W59893  17.265  13.478  21.630  0.0014 -0.0348  0.2083
16878W        W59894  16.526   2.393  26.286  0.0777  0.1514  0.1315
16879W        W59895   4.811  16.372  25.710 -0.1239  0.1395  0.2474
16880W        W59896   8.372   2.055  15.292 -0.2566 -0.0385 -0.4859
16881W        W59897  13.808  33.168  26.024 -0.0928 -0.4541  0.2600
16882W        W59898   9.742  18.380  12.519  0.0398 -0.3142 -0.3748
16883W        W59899  32.530  31.377  20.615  0.1342 -0.0217  0.0866
16884W        W59900  28.766  26.544  24.845  0.2812  0.2624  0.0132
16885W        W59901   2.805  14.204   9.451  0.2171  0.1197 -0.1208
16886W        W59902  31.014  22.537   3.591 -0.0282 -0.3132  0.2554
16887W        W59903   5.085  18.022  28.495 -0.1489 -0.1361  0.2889
16888W        W59904   3.007  17.725  24.242 -0.1283 -0.0733 -0.3261
16889W        W59905   3.326   1.763  13.682 -0.0347 -0.0782  0.0584
16890W        W59906   7.350  25.954   3.272 -0.0991  0.2738 -0.0057
16891W        W59907  32.557  30.267  19.501  0.1691  0.0945  0.0050
16892W        W59908   9.883  26.341  27.329  0.2211 -0.0895  0.0627
16893W        W59909  29.899  19.973   4.384 -0.0822  0.1400 -0.0523
16894W        W59910  20.578  17.294  26.144 -0.1920 -0.0483  0.0537
16895W        W59911   1.684  32.508   0.349 -0.1724  0.0257  0.0178
16896W        W59912  23.203  17.812  25.320 -0.2031  0.1541  0.0407
16897W        W59913  32.410  25.033   5.021  0.0236  0.3848  0.0734
16898W        W59914   3.531  13.673   1.020 -0.3080  0.1168  0.2060
16899W        W59915   5.768  28.119  25.083 -0.0892 -0.0777 -0.1390
16900W        W59916  34.491  18.311   0.587 -0.2892 -0.0486 -0.0191
16901W        W59917  10.735  15.522  28.633 -0.0030  0.1185 -0.0315
16902W        W59918   3.153  21.531  20.627  0.1259 -0.2158 -0.0737
16903W        W59919  32.382  29.117  27.468  0.0731 -0.2614 -0.0671
16904W        W59920   5.859  29.107   2.635  0.2810  0.4902  0.1007
16905W        W59921   1.500   4.058  25.693  0.0119  0.2856  0.1006
16906W        W59922  25.899  18.088  23.733 -0.2296 -0.0981  0.0073
16907W        W59923  24.779   3.074  27.134  0.0179 -0.0150 -0.2152
16908W        W59924  23.367  24.864   8.881  0.1632 -0.2050  0.2491
16909W        W59925  13.059  16.613   7.427  0.2736  0.0335 -0.0129
16910W        W59926  29.111  23.521   6.949 -0.1748  0.0492 -0.0434
16911W        W59927  33.663  13.660  27.271  0.2521  0.1587  0.0334
16912W        W59928  10.280  34.371   7.642  0.3068  0.0352 -0.0352
16913W        W59929   4.257  13.913   4.913  0.2062 -0.4295  0.1554
16914W        W59930  34.108   2.487  27.827 -0.1465  0.2286 -0.0581
16915W        W59931   5.068  15.902  24.324  0.2315  0.1632 -0.1915
16916W        W59932   4.176  28.049   1.641 -0.1261  0.0640 -0.2334
16917W        W59933  27.881  27.635  19.723  0.1291  0.0982 -0.1328
16918W        W59934   7.822  24.316  23.466  0.2360 -0.1963  0.0538
16919W        W59935  29.068   3.632  17.876 -0.0926 -0.0300 -0.1052
16920W        W59936  30.880  28.748   1.608  0.1995  0.4247 -0.3190
16921W        W59937  24.038  16.232  18.102 -0.0137  0.1697 -0.1158
16922W        W59938   5.432  28.992   2.315  0.3069  0.1219 -0.2485
16923W        W59939   7.154  26.183  17.312 -0.3853 -0.1042 -0.4064
16924W        W59940  10.687  10.672  16.329  0.2272  0.2612 -0.3661
16925W        W59941   1.840   6.499   5.680  0.0404  0.1978 -0.1016
16926W        W59942   7.465  11.707   2.471 -0.0591  0.3515 -0.1416
16927W        W59943   8.490   0.700  17.783 -0.0094 -0.0176  0.0428
16928W        W59944  25.788  23.812  27.471 -0.0336 -0.2249  0.2124
16929W        W59945  33.807   3.769  24.707 -0.0067 -0.2820 -0.0113
16930W        W59946  31.047  10.381  17.957  0.1352  0.0123  0.1949
16931W        W59947  10.123  24.033  14.107  0.2291  0.2776  0.1116
16932W        W59948   1.957  25.268   6.827 -0.1030 -0.1399  0.0292
16933W        W59949  33.360  24.073  27.303  0.2790  0.1846 -0.0562
16934W        W59950   3.327  31.520   2.120 -0.2076 -0.0243 -0.2061
16935W        W59951  32.007  28.146   3.405  0.0797 -0.2218 -0.1308
16936W        W59952   4.909  25.076  24.049  0.2072 -0.0113 -0.1003
16937W        W59953  22.717  27.936   2.741  0.0200 -0.0415  0.2142
16938W        W59954  15.973   1.361  23.011 -0.0720 -0.1217 -0.0414
16939W        W59955  20.981   1.080  21.580  0.0148 -0.0927 -0.3201
16940W        W59956   0.269   1.657   7.598  0.3426 -0.2204 -0.1571
16941W        W59957   4.979  32.034  25.563 -0.0291 -0.0541 -0.0775
16942W        W59958  16.650  18.692  15.066  0.0097  0.0394  0.3383
16943W        W59959  27.267  27.842  10.118 -0.1094  0.0805 -0.0269
16944W        W59960  29.421   0.062   4.251 -0.0174 -0.1700  0.0400
16945W        W59961  32.247  33.773  24.858 -0.0153  0.2829 -0.2239
16946W        W59962  33.080  33.007   9.686  0.0749 -0.3554  0.0879
16947W        W59963  28.562  25.273  28.794  0.1263  0.0066  0.1758
16948W        W59964  28.382  18.417   4.909  0.1041  0.0314 -0.1418
16949W        W59965   5.219  32.288   3.119 -0.1183  0.0509  0.1469
16950W        W59966  31.936  33.055   6.733 -0.1941  0.1309  0.0668
16951W        W59967  10.842  14.140  23.143  0.5769  0.0350  0.1982
16952W        W59968  32.147   1.601   7.747 -0.0533  0.0155  0.2752
16953W        W59969   5.230  10.395   3.329 -0.0952  0.4032 -0.0883
16954W        W59970   6.860  13.193  14.247 -0.1874  0.0493 -0.1661
16955W        W59971  18.952  14.939  27.431 -0.0808 -0.1535 -0.0073
16956W        W59972  28.409   7.982   6.688  0.1554  0.1228 -0.0042
16957W        W59973  26.291  23.877  22.800  0.0573  0.1860 -0.1633
16958W        W59974  31.808   0.768   7.880  0.1061  0.1155 -0.1435
16959W        W59975  31.865  25.108  22.348  0.0519 -0.2291  0.1961
16960W        W59976  30.040  11.207  10.097 -0.1167 -0.0018 -0.1033
16961W        W59977  29.714  30.428  22.201 -0.1196 -0.0508 -0.0550
16962W        W59978  18.184  25.113  14.983 -0.1792 -0.2487  0.0782
16963W        W59979  30.230  22.429  26.143  0.1637 -0.0885  0.2157
16964W        W59980  17.833  17.884  24.757 -0.0710  0.3094 -0.0214
16965W        W59981   1.346  25.413   5.278 -0.2357  0.1262  0.2482
16966W        W59982  33.810  24.209  24.628 -0.0306  0.0008  0.1157
16967W        W59983  11.140  29.324  28.375 -0.0333  0.3652 -0.0230
16968W        W59984   2.084   0.134  25.191 -0.4325  0.0283  0.2436
16969W        W59985  31.931  30.566  10.191  0.0653  0.1396 -0.0399
16970W        W59986  27.216  23.514  27.277 -0.2927  0.1032 -0.0391
16971W        W59987  10.545  20.706   0.174 -0.3419  0.0100 -0.2562
16972W        W59988  19.325  24.050  24.613  0.2169 -0.0097 -0.0052
16973W        W59989   5.736   8.495  21.130 -0.1718 -0.1628  0.0027
16974W        W59990  33.066  32.639  19.506 -0.2985  0.1088  0.2304
16975W        W59991   2.646  27.267   8.101  0.1660  0.1541  0.0071
16976W        W59992  14.528  16.090   3.099  0.2619 -0.2053 -0.0187
16977W        W59993   3.622  27.731   7.525 -0.2698 -0.2025  0.2005
16978W        W59994   4.773   7.899  23.760  0.0571 -0.4432 -0.1674
16979W        W59995  31.903  30.470   0.595 -0.3769 -0.4474 -0.1018
16980W        W59996   0.397  19.416  29.203  0.1260  0.0842 -0.1650
16981W        W59997  33.446  22.002  17.573 -0.1317 -0.1325  0.0375
16982W        W59998   3.136   2.018  15.385 -0.1519  0.0934  0.2827
16983W        W59999  19.043  29.902   4.817  0.0493 -0.2313  0.0987
16984W        W60000  30.211   1.792   5.769 -0.0871  0.0746 -0.2204
16985W        W60001   7.034  19.962   3.831  0.0454  0.0833 -0.0015
16986W        W60002  28.208  21.394  16.672 -0.2249 -0.1148 -0.3781
16987W        W60003  15.210   3.551  28.606  0.1252  0.1510 -0.2456
16988W        W60004  12.741  29.799  23.302 -0.1172  0.0400  0.1852
16989W        W60005   6.862  17.831  29.056 -0.0226  0.0290 -0.3582
16990W        W60006   2.132  26.239  28.002  0.3013 -0.1389  0.2598
16991W        W60007   4.272  32.580  16.565 -0.0863 -0.1060 -0.3665
16992W        W60008  10.677  23.552  17.306 -0.0719  0.0966  0.1042
16993W        W60009  14.482  18.419  21.214 -0.2344 -0.1260 -0.0641
16994W        W60010  31.615  28.477  17.544 -0.1873  0.3678  0.1163
16995W        W60011  31.036  26.310  15.881 -0.0542  0.0838  0.1955
16996W        W60012   4.191  16.856  20.751  0.0026  0.0813 -0.2121
16997W        W60013  15.889   0.100   3.150  0.2006  0.0557 -0.4246
16998W        W60014  18.712  21.514  24.919 -0.1211  0.0402 -0.0476
16999W        W60015   4.436  21.370  26.018 -0.0898 -0.0438  0.1439
17000W        W60016   9.653  18.714   4.759 -0.1963  0.0121  0.1713
17001W        W60017   7.527  32.080  25.704  0.0142  0.2275 -0.4555
17002W        W60018   9.750   1.535  14.590  0.0648  0.1043 -0.2615
17003W        W60019   3.655  22.378  24.435 -0.0204  0.0481  0.0300
17004W        W60020   2.097  14.539   9.513 -0.1342 -0.2147  0.0937
17005W        W60021   5.501   2.705   2.344  0.2237 -0.0374  0.1099
17006W        W60022  31.520   1.021  22.536  0.1450 -0.5114 -0.2547
17007W        W60023  19.978  10.428   5.171 -0.0351  0.1535 -0.1440
17008W        W60024   4.999  31.543  21.052 -0.2197 -0.0823  0.0452
17009W        W60025   1.653  19.918  15.827 -0.0433 -0.1638  0.4016
17010W        W60026  10.224   5.252   0.901 -0.3339 -0.1285 -0.0208
17011W        W60027  22.322  22.044   5.905 -0.0178  0.0643  0.1287
17012W        W60028  27.730  23.618  24.599 -0.3168  0.1166  0.0175
17013W        W60029   0.333  28.620   7.947 -0.3614 -0.0624  0.2578
17014W        W60030  33.715  12.266  15.806  0.0016  0.2598  0.0724
17015W        W60031  29.048   1.743   7.039 -0.0783  0.1885  0.1781
17016W        W60032  31.064  25.120   4.814 -0.1522  0.0027 -0.1086
17017W        W60033   1.809   3.901  19.455  0.0474  0.1504  0.1002
17018W        W60034  10.965  28.584   8.862  0.0330  0.3309  0.1114
17019W        W60035  11.392  22.323   1.161 -0.0121  0.0105  0.0761
17020W        W60036   7.495  26.666  22.471  0.0598 -0.0652  0.1675
17021W        W60037  34.706  11.804  15.378 -0.0696  0.0555 -0.0594
17022W        W60038  14.896  22.621  16.603 -0.2538  0.0887  0.1187
17023W        W60039  33.042  21.184   0.046  0.2515  0.0206 -0.0113
17024W        W60040   6.281  27.945   3.958 -0.2930  0.0193 -0.2035
17025W        W60041   3.829  16.683  16.332  0.1992 -0.0039 -0.1461
17026W        W60042   1.356  27.875  18.112 -0.1966  0.0702 -0.1986
17027W        W60043   4.359  23.425  25.449  0.2874  0.0616  0.1346
17028W        W60044   5.471   9.453  24.570  0.2393 -0.1700 -0.0157
17029W        W60045   4.004  14.009  21.301 -0.2843  0.2933  0.0148
17030W        W60046   8.023  33.066  28.642 -0.0478  0.0436  0.1873
17031W        W60047   6.443   1.742  15.063  0.2354  0.2390  0.0045
17032W        W60048  10.411  33.543  21.327 -0.0972 -0.2315 -0.1456
17033W        W60049  19.933  32.066   0.312 -0.0646  0.1384  0.1206
17034W        W60050   3.347   4.675   2.121 -0.1980  0.0595  0.2269
17035W        W60051   7.935  19.041  22.114  0.0018  0.0412 -0.1099
17036W        W60052  22.796  20.377   2.099  0.1909  0.0916 -0.1182
17037W        W60053  23.651  14.209  20.746 -0.3898  0.0092  0.2510
17038W        W60054  15.034  30.247  17.019 -0.1119  0.2622 -0.1371
17039W        W60055  12.236   8.825   4.266  0.1891 -0.0306  0.0933
17040W        W60056  24.645  33.953   1.511 -0.2077  0.0415 -0.2296
17041W        W60057   7.013  10.590  24.803  0.2289 -0.2071 -0.1917
17042W        W60058  12.128  28.262  14.984 -0.1269  0.2488 -0.1923
17043W        W60059   7.735  27.428   2.564 -0.2367 -0.1088 -0.0647
17044W        W60060   9.302  28.392  13.403  0.2667 -0.1463  0.2125
17045W        W60061  31.516  34.735   2.450  0.1464 -0.1588  0.0213
17046W        W60062   7.429  15.403  28.634  0.0065 -0.0118  0.1766
17047W        W60063   5.349  14.870  25.416 -0.0071  0.0537  0.1479
17048W        W60064  24.155  17.528  23.605 -0.2441 -0.1170  0.2423
17049W        W60065  30.452  10.204  15.051  0.1353 -0.0232  0.0937
17050W        W60066  27.690  27.447  23.494 -0.2887  0.0235 -0.0653
17051W        W60067   9.162  22.324  14.426  0.1919 -0.1980 -0.0887
17052W        W60068  31.430  27.650  21.378  0.0928 -0.1051  0.1175
17053W        W60069  22.699  23.986   4.804 -0.0980  0.0408 -0.0850
17054W        W60070  24.711   2.973   3.575  0.0329 -0.0710 -0.2314
17055W        W60071  33.364  22.222  18.428  0.0101 -0.1091  0.1840
17056W        W60072  31.689  31.413  25.109 -0.2411 -0.1065 -0.0861
17057W        W60073  22.584  17.678  26.541 -0.1087  0.2466  0.1451
17058W        W60074  31.250  25.232  27.023 -0.3269 -0.0242 -0.1530
17059W        W60075  24.311   0.498  17.674  0.1593  0.2914 -0.0566
17060W        W60076   1.115  30.357   4.454 -0.1503 -0.1184  0.2070
17061W        W60077  24.671  28.109   5.047 -0.0587 -0.0775  0.0331
17062W        W60078  31.250  18.064  22.476  0.1930 -0.2783 -0.0618
17063W        W60079   4.361  26.405   5.224 -0.1418  0.0314  0.2897
17064W        W60080   6.562  17.510  15.645 -0.2835  0.3047 -0.2733
17065W        W60081   3.384  31.480  19.937 -0.2370 -0.0154 -0.2956
17066W        W60082  34.086  14.877   0.633  0.0565  0.1468 -0.0075
17067W        W60083  33.802  30.594   2.621  0.0103  0.1733 -0.0144
17068W        W60084   0.445  25.445   8.906 -0.3105 -0.1051  0.1961
17069W        W60085  27.174  11.344  21.666 -0.2973 -0.1266 -0.0109
17070W        W60086  33.755  20.454  18.312 -0.2406  0.0058 -0.0852
17071W        W60087   1.734   5.963  28.558 -0.2898  0.1563  0.2686
17072W        W60088   1.889  29.848   2.316 -0.3812 -0.0378 -0.3177
17073W        W60089  22.638  22.842  20.992  0.1655  0.2783 -0.1787
17074W        W60090  20.736  30.278  17.573 -0.2313  0.1592 -0.3458
17075W        W60091  30.548  25.186   9.206 -0.1285  0.0652 -0.0739
17076W        W60092  13.635  33.901  24.442 -0.3716  0.2168  0.0640
17077W        W60093  24.028   5.976  18.974  0.0802 -0.3902  0.0017
17078W        W60094  21.446  19.217   8.862  0.1567  0.2638 -0.0702
17079W        W60095  30.674   3.505  23.046 -0.0709 -0.0036 -0.1293
17080W        W60096  26.026  27.039  24.458  0.1131  0.2870 -0.0130
17081W        W60097  14.827  25.425  24.425 -0.1489  0.2738 -0.2389
17082W        W60098  28.505  30.698  17.881 -0.0146  0.0876  0.2873
17083W        W60099  30.817  17.792   3.821  0.0909 -0.0650 -0.1354
17084W        W60100   4.242   2.165  14.953 -0.1476  0.3207 -0.0626
17085W        W60101  10.212  25.023  27.578 -0.2469  0.2512 -0.2580
17086W        W60102  28.896  27.445  28.944  0.1883  0.2221 -0.1897
17087W        W60103   9.580  28.928  25.341 -0.0694 -0.1880 -0.2874
17088W        W60104  16.018  24.185  25.029  0.0518 -0.2771  0.0707
17089W        W60105  28.383  33.119   6.124 -0.2917  0.4844 -0.0699
17090W        W60106  23.577  11.694   3.353 -0.3239  0.2573 -0.1137
17091W        W60107  32.448  28.100  25.727  0.1571  0.0912 -0.1141
17092W        W60108   9.653  25.804  15.724 -0.0440 -0.1016 -0.0148
17093W        W60109  13.882  12.373  23.107  0.0599 -0.1876  0.2025
17094W        W60110  15.607  20.285  26.323  0.1543 -0.3800 -0.3465
17095W        W60111  22.528  16.695  28.305  0.0574  0.3995  0.0917
17096W        W60112  33.971   9.748  24.433 -0.0189  0.3815 -0.2340
17097W        W60113   5.887   0.661   2.825 -0.3638  0.2026  0.1861
17098W        W60114   6.649   6.091  15.402 -0.3074 -0.0531  0.0221
17099W        W60115  33.003  22.126  28.205  0.1106 -0.2307 -0.0180
17100W        W60116  31.546  24.057  19.135 -0.2508 -0.3323  0.2877
17101W        W60117   6.179   3.469  25.963  0.0495  0.1135 -0.1489
17102W        W60118  24.816  16.932  24.221  0.1148  0.2408  0.1733
17103W        W60119  11.388   8.982  15.787 -0.2086 -0.1546 -0.2878
17104W        W60120   5.429   9.485   8.879  0.0116 -0.2486 -0.1076
17105W        W60121  11.320  19.135  13.411 -0.0941  0.0655 -0.1502
17106W        W60122   1.383  29.857  26.323 -0.5784 -0.1979  0.1513
17107W        W60123   9.596   0.209  21.806  0.1469  0.0669  0.1788
17108W        W60124   0.934  33.892  17.639 -0.0019 -0.0440 -0.1855
17109W        W60125   3.057  21.120   9.629  0.1398 -0.0381 -0.3933
17110W        W60126  31.559  23.787  26.560 -0.1868 -0.1930  0.1206
17111W        W60127  31.681   4.800  28.056 -0.0088  0.3052  0.0671
17112W        W60128   3.868  17.592   8.561 -0.0219 -0.3411 -0.1152
17113W        W60129  32.952  28.049  25.989  0.0292  0.0810  0.2011
17114W        W60130  16.486  25.883  20.748 -0.2784 -0.1145  0.1444
17115W        W60131  34.323  25.452  20.566 -0.1462 -0.2864  0.0044
17116W        W60132   5.538  25.059   0.793 -0.0954 -0.0842 -0.1973
17117W        W60133  11.853  13.848  27.990  0.1355 -0.1540  0.1028
17118W        W60134  13.733  10.223   0.865  0.1283 -0.0147  0.0017
17119W        W60135  18.614   5.396  26.524 -0.2205 -0.1316  0.2911
17120W        W60136   1.073   6.738  22.109 -0.1883 -0.1956  0.0519
17121W        W60137  24.663   7.712  26.688 -0.0857  0.1617  0.1327
17122W        W60138   0.491  27.107  26.809  0.0706 -0.1252 -0.0685
17123W        W60139  28.711  10.368  21.041 -0.3846  0.1019  0.0792
17124W        W60140  29.270  23.265  17.885  0.2853 -0.1705  0.0284
17125W        W60141   4.498  26.481  19.941 -0.2018 -0.1962  0.0197
17126W        W60142  27.156  33.090   0.318  0.1870 -0.1107 -0.1689
17127W        W60143   3.878  12.929  20.506 -0.0588  0.0761 -0.1666
17128W        W60144  12.018  13.435  22.889 -0.4255  0.1958 -0.1325
17129W        W60145  31.668  23.038   1.059 -0.0988 -0.0254  0.1044
17130W        W60146   3.974  29.760  23.585  0.1051 -0.2971 -0.1077
17131W        W60147  17.828  28.710  21.608 -0.1035  0.0596 -0.2125
17132W        W60148  29.538  31.489  17.601  0.2735 -0.1091  0.2630
17133W        W60149   1.705  32.693  26.572 -0.1099 -0.0788 -0.0952
17134W        W60150   3.774  22.209  27.723 -0.2452  0.0629 -0.2250
17135W        W60151  21.370  32.139  26.223 -0.0045  0.2051  0.0200
17136W        W60152  27.754  26.923  26.815 -0.0956 -0.1252 -0.3629
17137W        W60153   4.755  27.424   0.048  0.0376  0.1776  0.1264
17138W        W60154   8.731  11.267  26.250 -0.0128  0.2242  0.0254
17139W        W60155   9.367  31.374  19.170  0.0468 -0.1926 -0.0597
17140W        W60156   9.389  27.143  14.984  0.2162 -0.0949  0.2250
17141W        W60157  22.831  25.931   3.965 -0.1261 -0.1379  0.0599
17142W        W60158  32.714  28.621   4.642 -0.0155  0.1811 -0.1852
17143W        W60159   7.821  11.644  20.499 -0.1659 -0.0349  0.2572
17144W        W60160  28.276   9.409  28.940 -0.0493  0.2455 -0.0315
17145W        W60161  10.004  33.505   5.683  0.0012  0.1419  0.4013
17146W        W60162  16.131  19.137   0.247 -0.0351  0.2329 -0.0218
17147W        W60163  10.900  20.110  20.112 -0.3991  0.0239  0.1528
17148W        W60164  27.410  33.028  10.564  0.2122  0.2570  0.0300
17149W        W60165   3.888  29.719   9.874  0.0572  0.0562  0.1001
17150W        W60166  17.087  12.633  21.441  0.1462  0.3214  0.1665
17151W        W60167  28.345  17.669  21.619  0.0330  0.0240 -0.1330
17152W        W60168   4.703  20.531  15.079  0.0779 -0.0023  0.1876
17153W        W60169   0.745  33.968  18.906 -0.1813 -0.0967  0.1774
17154W        W60170   5.433  30.221   6.727  0.1889 -0.1509  0.3130
17155W        W60171  24.205  34.606  20.154  0.1347  0.0607 -0.1489
17156W        W60172   1.376  17.172   0.396  0.0880 -0.1364 -0.3700
17157W        W60173  11.588  34.742   4.513 -0.1122  0.1027  0.2427
17158W        W60174  19.847   0.152  19.846  0.1726  0.0949 -0.1443
17159W        W60175   6.699  27.672  15.042 -0.1920  0.2210 -0.0585
17160W        W60176   1.377  24.192   3.110  0.2481 -0.1746 -0.2263
17161W        W60177  26.119  33.011   0.628  0.1182  0.0016  0.0316
17162W        W60178  28.617  26.879  25.539  0.2293  0.0183 -0.2327
17163W        W60179  14.717  27.356   8.971  0.3017 -0.1767  0.2483
17164W        W60180  26.960  27.942   6.033 -0.1397  0.2840  0.2558
17165W        W60181  10.052  34.407   8.421  0.1388  0.2532 -0.0825
17166W        W60182   1.938  22.032  14.548  0.1577  0.1633  0.1515
17167W        W60183   7.452  21.907  27.519 -0.2499  0.2860  0.1803
17168W        W60184   0.134   2.785  22.878  0.0800  0.1965  0.0100
17169W        W60185  32.344  34.515  15.665  0.2199  0.2336  0.1768
17170W        W60186   3.299   1.393   4.570 -0.2513 -0.0152 -0.4022
17171W        W60187  10.449  15.891  21.189 -0.1144  0.1437 -0.1336
17172W        W60188  31.250   0.501  17.843 -0.3402  0.1367  0.0235
17173W        W60189  10.205  25.984  21.460 -0.0989 -0.0582 -0.2057
17174W        W60190   1.586   9.823  17.053  0.0599  0.4191 -0.1449
17175W        W60191  32.966  19.985   0.643 -0.0355 -0.2850  0.1934
17176W        W60192   7.439  32.312   5.640 -0.0353  0.0653 -0.0802
17177W        W60193   7.946  28.825  16.491 -0.1039  0.2955  0.0282
17178W        W60194  31.389  23.488   3.984 -0.0616  0.0722  0.1360
17179W        W60195   1.791  28.868  24.014 -0.0114  0.2186  0.2455
17180W        W60196   8.287   1.057  26.011 -0.2048 -0.2694  0.1044
17181W        W60197  25.684  20.398  20.368  0.2163 -0.1723  0.0829
17182W        W60198   4.271  22.261  26.420  0.1259 -0.0368  0.1756
17183W        W60199   7.859  27.269  28.906 -0.2972 -0.1509 -0.1383
17184W        W60200  31.603   5.568  26.344 -0.1923 -0.0777 -0.0524
17185W        W60201   5.129  28.217  19.220 -0.1664  0.1215 -0.3463
17186W        W60202   1.066  20.011  10.566 -0.1569  0.0854  0.0131
17187W        W60203   8.817  20.618  23.037  0.3420  0.3902  0.0106
17188W        W60204   0.649  19.792   3.670  0.3469 -0.1812  0.0029
17189W        W60205  10.108  31.506  16.723 -0.1615 -0.0210  0.0550
17190W        W60206  34.325   6.676   8.187  0.2373  0.0380  0.3034
17191W        W60207   7.237  21.310  18.922 -0.0535 -0.0980  0.2890
17192W        W60208  21.165  21.282   7.404 -0.1128 -0.1476 -0.1606
17193W        W60209   4.523  18.660  21.940 -0.0866  0.1005 -0.1078
17194W        W60210   6.795  24.276  23.797 -0.3703 -0.0622  0.1130
17195W        W60211  25.247  26.819  27.039 -0.3027 -0.0484  0.0615
17196W        W60212  32.347  19.823  28.165 -0.0432  0.2924 -0.0925
17197W        W60213  14.760   0.649   5.182  0.0103  0.1536 -0.0810
17198W        W60214  18.464  30.880  21.448  0.0071  0.1556 -0.0902
17199W        W60215  31.611  22.099   4.698  0.1180  0.0892  0.1641
17200W        W60216  18.395  32.688   2.810 -0.1444  0.0103  0.0650
17201W        W60217  30.846  31.552  22.633  0.2980  0.1248  0.0285
17202W        W60218  26.591  32.650   1.872 -0.2680  0.0289  0.2788
17203W        W60219  29.893  22.474   7.562  0.1543 -0.0954  0.0569
17204W        W60220   3.072  29.726  19.509 -0.0532  0.0012 -0.0028
17205W        W60221  15.144  14.544   1.359  0.2607  0.2142 -0.2311
17206W        W60222   0.513  22.243   9.114  0.1268 -0.1931 -0.0862
17207W        W60223  30.678  22.682  22.554  0.1368 -0.0488  0.1152
17208W        W60224  13.583  22.059   0.944  0.1231  0.1053  0.2009
17209W        W60225  25.246  17.871   6.825  0.1402  0.0980 -0.3078
17210W        W60226   2.498   7.339   1.403  0.1062  0.1094  0.3870
17211W        W60227   7.407   8.734  19.756 -0.1484  0.2590 -0.1818
17212W        W60228   4.382  16.704  25.704  0.4060 -0.0477 -0.1997
17213W        W60229   3.448  26.496   2.832 -0.3956 -0.1882 -0.1283
17214W        W60230  21.487  31.097  10.178 -0.2840  0.1133  0.0543
17215W        W60231  19.322  21.288  25.016 -0.0497  0.1873  0.5132
17216W        W60232  32.094  27.513  22.613 -0.0369  0.0221  0.0356
17217W        W60233   6.959  25.865   6.012 -0.1314  0.0840 -0.1761
17218W        W60234   6.431  19.153  23.088  0.1483 -0.4175 -0.1824
17219W        W60235   4.139  21.061   9.068 -0.4923 -0.0623 -0.0400
17220W        W60236   3.463  33.718  17.287 -0.1415  0.2822 -0.4453
17221W        W60237   8.894  24.356  18.537 -0.2031  0.1855 -0.2889
17222W        W60238  27.592   0.529   4.884  0.1363 -0.3725 -0.0408
17223W        W60239  14.688  31.797  18.267  0.1522  0.3102 -0.2014
17224W        W60240  24.222   3.860  15.614 -0.1636 -0.1715  0.0092
17225W        W60241  30.288  23.080   2.533  0.2916 -0.1514 -0.0884
17226W        W60242  22.150  18.618  13.103 -0.0659 -0.0044 -0.2799
17227W        W60243   0.653  23.943  23.213  0.4778  0.0254  0.0545
17228W        W60244   4.969  25.494   0.300  0.1136 -0.0337  0.0271
17229W        W60245  17.219  30.533   4.788 -0.2330  0.2278 -0.4958
17230W        W60246   6.215  26.228  21.751 -0.2412  0.0582  0.1886
17231W        W60247  14.411  19.911  21.340 -0.0972 -0.1296  0.3751
17232W        W60248  17.681   7.342  18.229 -0.0060  0.1814  0.2711
17233W        W60249  15.666  10.278   1.985 -0.1377  0.1024  0.0321
17234W        W60250  18.421  26.855   0.284 -0.1560  0.0653 -0.0737
17235W        W60251   6.655   8.839   9.046  0.0461 -0.2530  0.1952
17236W        W60252  20.913  24.578  21.229 -0.1469 -0.0183 -0.1680
17237W        W60253   6.892  28.714  24.707 -0.1732  0.1128 -0.3114
17238W        W60254  33.156  12.701  10.197 -0.0688 -0.0845 -0.1346
17239W        W60255  32.397  34.438   6.462  0.0933 -0.1951  0.1064
17240W        W60256  24.044  21.143   6.569  0.0113 -0.0333  0.2591
17241W        W60257   6.529  20.878  28.782  0.1254 -0.0487  0.1992
17242W        W60258   2.283  24.716   4.155 -0.1944 -0.0981  0.0610
17243W        W60259  12.531  27.422   4.767 -0.2092  0.0298  0.2291
17244W        W60260  24.925  26.938  16.349  0.0095 -0.1231  0.0749
17245W        W60261  28.608  21.203  19.458 -0.2186 -0.1844 -0.2657
17246W        W60262  25.982   1.636   6.653 -0.0513 -0.0622  0.0504
17247W        W60263  12.023  31.606  24.013  0.2121 -0.0412  0.2003
17248W        W60264  11.241  18.965  17.146 -0.0846 -0.1798  0.0733
17249W        W60265  34.001  14.960  14.937  0.1039  0.0816 -0.2991
17250W        W60266  32.937   3.443   7.449 -0.1039 -0.0212 -0.0120
17251W        W60267  14.645  14.944  26.384 -0.0980  0.0274 -0.1381
17252W        W60268   1.232  34.440  20.771 -0.2930  0.1409  0.2902
17253W        W60269   5.362  30.083   2.675  0.1599 -0.2374 -0.1029
17254W        W60270  34.193   2.554  20.378 -0.4242  0.2625  0.2083
17255W        W60271  11.208   3.975  27.560 -0.0645  0.0547 -0.0760
17256W        W60272  17.823  10.306  19.310 -0.0947  0.0368 -0.1829
17257W        W60273  29.287  18.199  15.117  0.3364 -0.0433  0.0058
17258W        W60274  28.047  29.121  24.600 -0.0983 -0.3170  0.1318
17259W        W60275  33.799  26.078  22.897  0.0754 -0.3504  0.0302
17260W        W60276  17.082  34.183  18.596 -0.2540  0.0515  0.2532
17261W        W60277  25.872  29.530   0.507  0.0683  0.0678  0.0566
17262W        W60278   2.751  17.123  20.149 -0.0765  0.1659  0.2036
17263W        W60279  24.069  13.257   5.827 -0.1462 -0.0230 -0.0505
17264W        W60280  33.098  27.418   2.024  0.2776  0.0888 -0.0134
17265W        W60281   7.357  25.239  17.459  0.2635 -0.0255  0.0703
17266W        W60282  32.107  31.891   1.251  0.0134 -0.0740  0.1655
17267W        W60283  23.054  29.511  23.285 -0.1168 -0.3162  0.2171
17268W        W60284   0.611  28.481  19.841 -0.1114 -0.0902 -0.2009
17269W        W60285   3.771   0.389  21.260 -0.3358 -0.0340 -0.3191
17270W        W60286   3.304  31.415  27.479  0.2374  0.0721 -0.1257
17271W        W60287   4.695  26.027  14.179 -0.0888  0.0221  0.1037
17272W        W60288  13.166   1.669  17.129  0.1693  0.1000 -0.0531
17273W        W60289   6.624  31.362  18.695  0.3397 -0.2032 -0.3047
17274W        W60290  24.496   5.731  17.701  0.1333  0.1407  0.1536
17275W        W60291   9.947  29.111  16.663 -0.0778  0.3950  0.1962
17276W        W60292   0.520  30.955  15.890  0.3863 -0.2864 -0.1538
17277W        W60293   2.532   0.049  15.695  0.4647  0.3662  0.1105
17278W        W60294   1.053  30.967  28.821 -0.3978  0.1197 -0.2988
17279W        W60295  34.769  21.138  20.827 -0.0980  0.0711 -0.1630
17280W        W60296  28.565  22.021  22.294  0.1497  0.1502 -0.1961
17281W        W60297  34.631  15.391  20.911  0.1795  0.1379 -0.0949
17282W        W60298  24.950  32.758  16.937  0.0689  0.2980  0.0341
17283W        W60299   2.867   5.921  14.351 -0.0287  0.1297  0.1043
17284W        W60300   3.792  29.648  21.800 -0.1561  0.1318  0.0606
17285W        W60301  27.698  19.757  24.791 -0.1929 -0.1242 -0.1804
17286W        W60302  16.364  34.280  19.233 -0.0045 -0.2570 -0.0029
17287W        W60303  20.149   1.570  18.171  0.0576 -0.2054  0.1807
17288W        W60304   7.389  20.428  18.559 -0.0153  0.3546 -0.0515
17289W        W60305   1.927   1.131  20.518  0.0263  0.0505 -0.1605
17290W        W60306  19.376  23.238  27.959 -0.0489  0.0056 -0.4122
17291W        W60307   6.753  23.281  28.878  0.1360 -0.1892  0.3310
17292W        W60308   2.182  26.981  27.806  0.1296  0.0702 -0.2163
17293W        W60309   3.407  32.773  26.690  0.3673 -0.1028 -0.3721
17294W        W60310  15.144  31.262   0.678 -0.2536 -0.1224  0.0028
17295W        W60311  20.173   0.972  25.610  0.2576  0.1807 -0.0045
17296W        W60312   2.496  29.541  28.265 -0.0742 -0.0800  0.0278
17297W        W60313   1.126  25.393  15.689  0.4071  0.2478 -0.2438
17298W        W60314  31.581  32.924  10.712 -0.0623 -0.2469 -0.2096
17299W        W60315  13.482  22.434  20.063  0.3245 -0.1986 -0.2020
17300W        W60316   5.719  21.827  21.087 -0.0066  0.1702  0.0124
17301W        W60317   1.782   2.645  25.762  0.1654 -0.5074  0.0769
17302W        W60318  33.160  24.565   8.576 -0.1536  0.1064 -0.1145
17303W        W60319  29.167   4.881  10.362  0.1933 -0.0641  0.1522
17304W        W60320  30.186  13.117  24.043  0.4711 -0.0456  0.2888
17305W        W60321  22.742  23.605  19.754  0.3746 -0.0806  0.0229
17306W        W60322  13.935   1.032  18.427  0.1471  0.0585 -0.0835
17307W        W60323   9.341  33.680  14.873 -0.0442  0.1659 -0.2488
17308W        W60324  11.614  26.235  23.611  0.0272  0.4666 -0.0156
17309W        W60325  10.944  29.045  17.663  0.0127 -0.5674  0.3199
17310W        W60326   3.349  25.608  19.756 -0.1962 -0.1457 -0.2709
17311W        W60327   0.677  26.734   2.533  0.2653 -0.0125  0.1561
17312W        W60328   3.227  24.946  19.264  0.0309 -0.0787 -0.1053
17313W        W60329  27.408   2.789   2.752  0.2023 -0.1033 -0.0377
17314W        W60330   2.647   0.285  17.688 -0.1148  0.1268 -0.2590
17315W        W60331  32.944   4.182  14.690  0.0394 -0.4499 -0.1915
17316W        W60332  26.197  33.785   6.260 -0.1272 -0.2350  0.2137
17317W        W60333  34.243   7.074  23.877  0.0149  0.5285  0.1079
17318W        W60334  26.408  26.190  29.313 -0.1275  0.3017 -0.0202
17319W        W60335  33.344   0.611  21.295 -0.1118 -0.1185 -0.2647
17320W        W60336  34.066   4.734  24.936  0.1085  0.1984 -0.0064
17321W        W60337  26.374   0.198  18.163 -0.3586 -0.2901 -0.4137
17322W        W60338  32.288   0.463  21.441  0.2603 -0.0952  0.0639
17323W        W60339  11.169  25.186  28.282  0.0411  0.2720  0.2396
17324W        W60340  11.919  14.972  15.435 -0.2673 -0.3211 -0.1021
17325W        W60341  15.076  29.077  27.861  0.1330 -0.2332 -0.0052
17326W        W60342  18.518   5.724  18.010 -0.1044 -0.0133  0.0861
17327W        W60343  11.016  27.439  23.192  0.3220  0.1201  0.3818
17328W        W60344  32.234  29.976  23.521 -0.2378 -0.2541  0.0524
17329W        W60345  29.182  20.622  15.455  0.1818 -0.1042 -0.2244
17330W        W60346   7.266  25.720  15.579  0.1198 -0.0818 -0.1213
17331W        W60347   2.604   1.994   5.573 -0.2994 -0.2433  0.4003
17332W        W60348  19.200  32.256  21.794 -0.1882 -0.0759  0.0863
17333W        W60349   0.781  10.246  21.606 -0.3239 -0.0197  0.2603
17334W        W60350   5.199  19.343  14.240 -0.0174 -0.0501  0.2110
17335W        W60351  15.129   4.114  27.026 -0.3224  0.3533 -0.1590
17336W        W60352   7.094   6.699  17.070 -0.2072  0.1988  0.0823
17337W        W60353   1.577  16.401  24.314 -0.2013 -0.1887  0.1091
17338W        W60354   1.391  27.189   3.396  0.1121  0.0983  0.1386
17339W        W60355  14.341  32.160  24.648 -0.1333  0.0776  0.2445
17340W        W60356  23.080  29.746  15.727 -0.1739  0.1033  0.1718
17341W        W60357   8.978  25.505  18.847  0.0996  0.0296 -0.0874
17342W        W60358  23.285  21.036  23.987  0.1720 -0.1347  0.6508
17343W        W60359   9.469  26.888  27.755  0.0092 -0.1047 -0.2853
17344W        W60360  27.532  34.494  25.268  0.0996 -0.2608 -0.1656
17345W        W60361  30.431   8.238   1.264  0.0469 -0.2939  0.0142
17346W        W60362  26.578   9.005   6.568  0.0291 -0.4677  0.0424
17347W        W60363  16.843   2.680  24.849  0.2443  0.2782  0.3298
17348W        W60364   0.585   0.806  14.172  0.1759  0.1350  0.1999
17349W        W60365   0.810   4.080  13.757 -0.2406 -0.2768 -0.1234
17350W        W60366  14.317  26.042  15.418  0.0805  0.0253 -0.0041
17351W        W60367   5.322  23.114  23.135 -0.3135 -0.1409 -0.0001
17352W        W60368   4.725  33.166  23.911  0.1397  0.4121 -0.0276
17353W        W60369   9.633   2.203   1.478  0.3773 -0.0177  0.0656
17354W        W60370  32.158  29.356  16.622 -0.0587  0.2915 -0.0235
17355W        W60371  31.530   4.410  24.984 -0.0538  0.0672  0.0906
17356W        W60372   0.491  27.052  10.245 -0.3473 -0.2383 -0.3031
17357W        W60373   5.889  31.052  15.766  0.0035 -0.0136 -0.2155
17358W        W60374  32.340   3.210  16.561 -0.2059  0.2639 -0.0168
17359W        W60375  25.488  32.792  25.117 -0.1671 -0.1022 -0.0516
17360W        W60376  34.444  34.518  16.106 -0.0205 -0.2387  0.3417
17361W        W60377   8.446  29.067  14.954 -0.0995 -0.0807  0.0454
17362W        W60378  33.610  28.951  21.173 -0.1669  0.1353  0.3995
17363W        W60379   2.255  31.991  21.076 -0.2276 -0.1362 -0.1114
17364W        W60380  14.133  29.325  24.449 -0.1813  0.2037  0.1319
17365W        W60381   4.507  12.591  22.299  0.0392 -0.0947  0.1984
17366W        W60382  21.765  25.888  17.919  0.0891 -0.1445  0.1380
17367W        W60383   5.277   1.759  22.237 -0.2524 -0.0656 -0.1263
17368W        W60384   8.895  26.994  22.777 -0.1273  0.0190 -0.2639
17369W        W60385   6.842   2.368  17.352 -0.2388  0.0554 -0.2950
17370W        W60386   4.868   0.459  25.101  0.2635  0.0142  0.0919
17371W        W60387   9.831   4.857  18.701 -0.3487  0.2288 -0.0658
17372W        W60388   2.538  29.443  16.788 -0.0015 -0.1986 -0.1131
17373W        W60389  31.945  21.654  20.477 -0.1533 -0.2336  0.1737
17374W        W60390  28.807  33.456  16.244  0.0968 -0.0345 -0.2671
17375W        W60391  29.550  28.993  24.277 -0.2025  0.0589 -0.0899
17376W        W60392  12.575   7.548  19.973  0.0588  0.0370  0.1894
17377W        W60393  33.432  27.238  15.860 -0.1615 -0.2102 -0.1463
17378W        W60394   7.809  26.928  27.965  0.3193  0.0140  0.0218
17379W        W60395  33.210   3.189  20.070 -0.0362  0.0572  0.0880
17380W        W60396  29.298  24.512  15.666 -0.0145  0.0165  0.2456
17381W        W60397   0.791   5.139  20.148  0.1336 -0.1459 -0.2324
17382W        W60398   0.037  22.569  24.442  0.1302 -0.2538  0.1325
17383W        W60399  24.765  34.231  18.997 -0.0228  0.0167  0.0792
17384W        W60400  11.235  30.994  19.115 -0.1415 -0.2534 -0.2655
17385W        W60401   2.206  26.056  28.958 -0.1484 -0.0811  0.1441
17386W        W60402   6.940  18.217  22.480  0.1082  0.1564 -0.0594
17387W        W60403   5.785  29.667   5.600 -0.2909 -0.0776  0.1773
17388W        W60404  19.589  14.352  14.893 -0.0931 -0.0109 -0.1093
17389W        W60405   0.256  24.714  17.703 -0.1752 -0.0078  0.2765
17390W        W60406   2.839  32.459  25.318  0.0354 -0.1876 -0.0401
17391W        W60407   4.261   4.110  26.170  0.1093  0.0140 -0.1390
17392W        W60408  29.364  29.775  21.143  0.3878 -0.0960  0.1093
17393W        W60409  32.825   1.707  19.793 -0.2298 -0.0547 -0.3047
17394W        W60410  30.928  15.219   1.052 -0.1184 -0.3516 -0.0329
17395W        W60411  13.731  31.408  25.273 -0.1766 -0.1955 -0.0636
17396W        W60412  28.259  14.209  20.047 -0.1163  0.0212  0.0680
17397W        W60413  31.812   2.825  22.415  0.1514  0.2059 -0.1979
17398W        W60414   9.880  16.034  13.732 -0.0326 -0.4709 -0.0075
17399W        W60415   4.217  30.030  18.677 -0.1073  0.2318 -0.0089
17400W        W60416   3.740   3.806  19.501  0.1069 -0.0712 -0.5245
17401W        W60417  18.529  28.170  21.822 -0.3431 -0.1540 -0.0408
17402W        W60418  26.432  31.343  26.315 -0.0493 -0.1879  0.1108
17403W        W60419  11.600   8.093  23.879  0.1776 -0.2961 -0.0906
17404W        W60420   8.266  22.779  26.481 -0.1682 -0.1378  0.1838
17405W        W60421   7.095  27.621  17.642 -0.0120 -0.0594 -0.1115
17406W        W60422  22.364   3.452  20.326 -0.0034 -0.0418 -0.0559
17407W        W60423   8.524  30.088  18.707 -0.5057 -0.0636 -0.3018
17408W        W60424  30.478  20.768  17.451 -0.0165 -0.2545 -0.1559
17409W        W60425   8.729  20.729  13.940 -0.4024  0.2126 -0.5896
17410W        W60426  12.614  31.776  23.726  0.0564  0.2357 -0.2387
17411W        W60427  15.357  29.276  26.989  0.0440 -0.1368  0.0333
17412W        W60428  22.787   0.711  18.915 -0.0540 -0.1038  0.0946
17413W        W60429  22.337   4.287   5.008  0.1006 -0.2079 -0.0273
17414W        W60430  24.803   5.117  16.859 -0.1802  0.2820 -0.1281
17415W        W60431  32.209   5.414  26.958 -0.0130 -0.0528 -0.0496
17416W        W60432   8.799  26.103  26.359 -0.1638  0.2315  0.0916
17417W        W60433   1.914  21.084  15.102  0.0056 -0.3752 -0.3424
17418W        W60434   5.710  33.200  15.681 -0.1253 -0.1400 -0.1472
17419W        W60435   5.658  23.667  13.844 -0.2802 -0.0322 -0.0085
17420W        W60436  30.109   0.626  18.238  0.0671  0.1140  0.1091
17421W        W60437  32.419  26.480  22.449 -0.1112 -0.0987  0.1572
17422W        W60438  23.813  18.908  27.529 -0.0822  0.1839 -0.4374
17423W        W60439  12.891  13.644  15.971 -0.1964  0.2241 -0.1967
17424W        W60440  33.035  23.387  15.886  0.1052 -0.2403  0.0416
17425W        W60441  30.906   5.027  22.722 -0.1201 -0.0916  0.0926
17426W        W60442   1.127  32.467   7.036 -0.0807 -0.1150  0.2241
17427W        W60443   5.404  18.553   7.483  0.1761 -0.1566  0.1438
17428W        W60444  19.709  33.812  25.419 -0.1703  0.1436 -0.3527
17429W        W60445  19.404  25.847  23.717  0.0819  0.2243  0.1757
17430W        W60446  15.760  10.391  22.211 -0.1280  0.1896  0.0862
17431W        W60447   7.931  12.539  23.446 -0.0451  0.2036  0.0069
17432W        W60448  26.220   9.123  15.725  0.2974  0.0810  0.1830
17433W        W60449   5.826   9.712  19.990  0.0156 -0.0912 -0.0223
17434W        W60450   5.383   8.271  21.425 -0.4597  0.1146 -0.2290
17435W        W60451  32.244  33.101  19.743  0.0108  0.1100  0.2528
17436W        W60452  28.431   0.157  16.216  0.0451  0.0100 -0.0221
17437W        W60453   3.764  22.785  16.932  0.0966  0.1985  0.0313
17438W        W60454  30.250  30.784   0.296 -0.1250 -0.0517 -0.0475
17439W        W60455  31.176  30.495  25.379 -0.4166  0.3398 -0.1807
17440W        W60456  11.681  25.096  16.764 -0.3440 -0.0313  0.0481
17441W        W60457   2.643  26.060  25.716  0.4178  0.2018  0.3430
17442W        W60458   5.606  32.077  26.705 -0.2524 -0.1693  0.1102
17443W        W60459  26.066  26.078  16.635 -0.1110  0.2524  0.4111
17444W        W60460   2.053  11.512  19.169 -0.1173 -0.1533 -0.1664
17445W        W60461   1.502  28.615  17.543  0.1493  0.2024 -0.2727
17446W        W60462   3.354  18.632  29.287  0.1250  0.1076  0.3193
17447W        W60463  11.745  29.727   9.489  0.0497  0.2537 -0.1852
17448W        W60464  12.155  19.379  12.816 -0.3467  0.1056  0.0419
17449W        W60465   3.659  15.512  28.140  0.0757 -0.2327  0.2259
17450W        W60466  24.049  29.222  25.801 -0.0135 -0.0311  0.0668
17451W        W60467  27.418  22.383  15.608 -0.0836 -0.0604  0.1073
17452W        W60468  10.684  27.020  21.485 -0.0512 -0.0220  0.1015
17453W        W60469   4.092  33.926  14.192  0.2269 -0.0226 -0.0500
17454W        W60470  24.412   2.750  22.516 -0.0173 -0.0191  0.1108
17455W        W60471  34.168  24.572  19.291 -0.2320  0.0312 -0.2022
17456W        W60472  24.927  27.819  28.033  0.2009 -0.0231 -0.2125
17457W        W60473  12.580   3.838  16.887  0.0440  0.3042 -0.0099
17458W        W60474  13.055   0.537  15.715  0.2621  0.1392 -0.0479
17459W        W60475  25.523  30.935  25.735  0.1738 -0.1758  0.0109
17460W        W60476  33.183  29.736  20.133  0.1041 -0.0957  0.1249
17461W        W60477  16.705  12.191  28.881  0.3704 -0.3287  0.5204
17462W        W60478   3.656   5.152  15.065  0.0637  0.0222  0.0312
17463W        W60479  20.668   3.374  18.314 -0.3030 -0.2906 -0.1117
17464W        W60480  12.395  34.168  16.298  0.0414  0.2054  0.0310
17465W        W60481  22.236  28.895  24.559  0.1224  0.0657 -0.0695
17466W        W60482  13.962  22.726  28.554 -0.1218  0.0297 -0.0767
17467W        W60483  14.522  29.442  24.197  0.0189 -0.0113  0.0634
17468W        W60484  31.489  20.981  15.132  0.0869 -0.0010 -0.1267
17469W        W60485   5.859  20.874  21.242  0.1367 -0.1258 -0.2464
17470W        W60486   2.767  22.142   0.074  0.0980  0.1666 -0.0841
17471W        W60487   9.120   0.017  24.022 -0.3024  0.4097  0.0086
17472W        W60488   0.648   4.865  17.255  0.0339 -0.4416  0.1741
17473W        W60489  10.469  19.613  17.162 -0.2235 -0.0827  0.3382
17474W        W60490  14.097  24.436   1.906  0.0684  0.1440  0.0255
17475W        W60491   4.954  23.041  18.754 -0.0962 -0.0568 -0.1568
17476W        W60492   1.684  21.351  15.878  0.2007  0.3051 -0.0130
17477W        W60493  31.943   9.088  28.864  0.1707 -0.3672  0.0472
17478W        W60494  16.799  33.328  15.682 -0.1167 -0.1326 -0.1158
17479W        W60495   5.878  32.432  16.996  0.1097 -0.1195  0.0587
17480W        W60496  26.504  28.528  23.639 -0.2030 -0.0347 -0.2358
17481W        W60497   6.540  27.381  13.944 -0.0361  0.1959  0.0521
17482W        W60498   5.616   4.757  29.135 -0.0990  0.1869 -0.1751
17483W        W60499  15.690  24.580  25.143 -0.2122  0.0315 -0.2106
17484W        W60500  31.045   0.891  25.589  0.2498  0.3557  0.0064
17485W        W60501  30.804  30.899  18.230  0.3020 -0.2591 -0.0491
17486W        W60502  23.613  22.938   2.667  0.3285  0.0993  0.2387
17487W        W60503  14.333  23.355   4.291 -0.4118 -0.1642  0.0906
17488W        W60504  15.219  29.782   3.577 -0.1291  0.0759  0.0786
17489W        W60505  32.797  31.229   4.302  0.0288  0.1179 -0.0230
17490W        W60506   4.412  28.045  23.976 -0.0782  0.2528  0.1001
17491W        W60507  31.813   3.358  15.738  0.2480  0.0536  0.0299
17492W        W60508   0.626  29.885  21.914  0.1335  0.2170 -0.4748
17493W        W60509  10.344  27.592  26.308  0.3064  0.1462  0.0608
17494W        W60510   8.902  34.205  16.752  0.1892 -0.2395  0.0367
17495W        W60511  11.461  18.879  12.500  0.1829  0.0467  0.2476
17496W        W60512   2.413  22.443  19.806 -0.0166  0.3956 -0.0130
17497W        W60513   1.533  30.968  16.924 -0.2909 -0.0966 -0.2101
17498W        W60514  32.617   2.898  27.190  0.0747  0.1316  0.0638
17499W        W60515  22.077  30.057  28.365  0.1272  0.3710 -0.1662
17500W        W60516  23.908   0.389  27.439  0.3038 -0.1811 -0.1034
17501W        W60517  34.741  10.576  25.937  0.0752 -0.1646  0.1026
17502W        W60518   4.881   5.463  14.778  0.4241  0.0264 -0.1300
17503W        W60519  34.690   9.894  25.115 -0.0690 -0.1990 -0.1209
17504W        W60520   6.123  32.420  14.449 -0.0715 -0.0732  0.0462
17505W        W60521   4.953  25.548  26.018  0.0453 -0.2428  0.2346
17506W        W60522   4.422  32.638  27.629 -0.3444  0.1440  0.1319
17507W        W60523  16.324  28.115  21.004 -0.2035  0.1332  0.0488
17508W        W60524   2.832  28.462  21.460 -0.2219 -0.1201 -0.4269
17509W        W60525   3.260   1.940  20.112  0.2221 -0.0368 -0.1089
17510W        W60526   5.863  18.778  18.544 -0.1686  0.1244 -0.0141
17511W        W60527   2.165   1.778  16.730  0.1265  0.2384  0.0103
17512W        W60528  16.690   5.921  14.059 -0.5560  0.1516 -0.1211
17513W        W60529  26.613  34.298  27.220 -0.0675  0.1941 -0.0178
17514W        W60530   1.308   5.183  19.174 -0.2561  0.2536 -0.2223
17515W        W60531   4.308  34.055  17.100 -0.1878 -0.1906  0.0559
17516W        W60532  13.763  26.678  23.167 -0.1490  0.1116  0.3709
17517W        W60533  32.361  30.006  28.264 -0.0578 -0.0848  0.1535
17518W        W60534  24.770   2.645  24.052 -0.1751  0.0705 -0.0870
17519W        W60535  17.328  24.833   2.535 -0.0558  0.0890 -0.2414
17520W        W60536   4.480  30.750  14.415  0.0557  0.0111 -0.5119
17521W        W60537   6.882  25.921  18.163 -0.0720 -0.1490  0.2420
17522W        W60538   4.993  33.355  25.287 -0.3410 -0.1252 -0.1204
17523W        W60539  30.384  11.572  18.379  0.1203 -0.1476 -0.2030
17524W        W60540  22.857  11.495  27.581  0.2718 -0.0805  0.0970
17525W        W60541  26.829  27.991   2.822  0.4435  0.1808 -0.2455
17526W        W60542   5.740  27.030  21.262  0.1258 -0.2346 -0.0878
17527W        W60543   3.387   7.627  17.452 -0.0333 -0.0635  0.0873
17528W        W60544   2.168  16.224  15.215 -0.0609  0.0785  0.1454
17529W        W60545  18.666   3.993  20.053  0.0764 -0.0175 -0.1696
17530W        W60546  30.187   1.852  14.654  0.1438  0.4666 -0.2660
17531W        W60547   3.494  11.288  16.402  0.0427  0.2259 -0.1318
17532W        W60548  31.627   3.032  23.609 -0.2566 -0.2083  0.3190
17533W        W60549   0.936   5.799  17.012  0.0460  0.0105  0.0890
17534W        W60550   0.636  27.041  16.941  0.1018 -0.2993  0.2722
17535W        W60551  31.849   4.566   0.328 -0.0332 -0.2979 -0.3761
17536W        W60552   5.044  32.302  19.195  0.3967 -0.0344 -0.0656
17537W        W60553   7.813  25.715  26.436 -0.0046 -0.1561  0.0692
17538W        W60554   6.227   0.116  24.337  0.0151 -0.0110 -0.3830
17539W        W60555  22.288  18.583  16.184  0.2066  0.1759 -0.1008
17540W        W60556   6.809  10.867  21.741  0.0778  0.0140  0.2249
17541W        W60557  19.299  18.448   0.089  0.0394 -0.0228  0.1809
17542W        W60558  10.375  23.317  22.369  0.0762  0.1483  0.0297
17543W        W60559  32.853   0.531  23.707 -0.1740 -0.1311  0.0291
17544W        W60560   7.332   2.597  24.346  0.1458  0.2032  0.4624
17545W        W60561   9.606   0.876  15.528 -0.1294 -0.0112 -0.0515
17546W        W60562   0.465  29.030  22.558  0.0457  0.4531 -0.0531
17547W        W60563  15.509  30.046  14.884 -0.1326 -0.3011  0.5226
17548W        W60564   5.498  33.251   6.191 -0.0370  0.0914 -0.1776
17549W        W60565  32.591  18.217  15.309 -0.1538  0.2744  0.1816
17550W        W60566   5.629  32.982  16.189 -0.0053  0.1677 -0.3259
17551W        W60567  29.002  23.927  18.290 -0.1462  0.2164 -0.1760
17552W        W60568  24.631  33.522  21.549  0.1349  0.0775  0.0933
17553W        W60569   0.624   9.152  15.619 -0.2871  0.0490 -0.1409
17554W        W60570  34.596  34.253  19.955  0.1718 -0.1201 -0.2382
17555W        W60571   1.228  26.761   2.387 -0.1985  0.0053 -0.1728
17556W        W60572   5.985  32.268  18.625  0.4478  0.1743  0.3216
17557W        W60573  19.054  31.670   0.603  0.1029 -0.0013 -0.0929
17558W        W60574  33.124   5.465  28.531  0.4023  0.1203  0.1107
17559W        W60575  31.893  20.959  21.207 -0.2376  0.0174  0.1770
17560W        W60576   1.059  31.626   5.290 -0.1468 -0.0738 -0.1345
17561W        W60577  31.046  30.722  16.352  0.1457 -0.3946 -0.0625
17562W        W60578   4.619  14.441  15.880  0.0055  0.0721  0.3076
17563W        W60579   0.022  30.892  15.657 -0.3860 -0.0648 -0.1027
17564W        W60580  26.631   6.464  18.991 -0.0824 -0.0224  0.2677
17565W        W60581   6.191  31.049   1.383 -0.1293 -0.0424 -0.4235
17566W        W60582  32.231  33.694  10.728 -0.0996 -0.1918 -0.2789
17567W        W60583  30.039   2.966  21.573  0.2400 -0.0877  0.3062
17568W        W60584  32.094  15.491  17.650 -0.2316 -0.3137 -0.0086
17569W        W60585  22.614  29.148  28.622  0.1428 -0.2586 -0.0507
17570W        W60586  14.220  32.117  25.074  0.3595 -0.2106 -0.4950
17571W        W60587  27.064   4.967  16.036 -0.2722 -0.0508  0.0781
17572W        W60588  29.739   5.879  17.873 -0.0480 -0.1425 -0.0319
17573W        W60589   2.549  33.485   9.873  0.1799  0.1779  0.0390
17574W        W60590   9.461  27.308  17.984  0.0361 -0.5886  0.1354
17575W        W60591  10.575  31.175  19.357  0.1686 -0.0466 -0.0742
17576W        W60592  28.999  12.510  23.944  0.2499 -0.1960 -0.2497
17577W        W60593  26.077   0.661  21.163 -0.2762  0.3521  0.0863
17578W        W60594   7.763  28.923  13.761 -0.1038  0.1461  0.0594
17579W        W60595  21.326   0.914  16.359  0.0997  0.3061 -0.0078
17580W        W60596   3.872  19.261  21.186 -0.4438 -0.1221  0.2533
17581W        W60597  32.392   0.105  16.248  0.2039 -0.0529  0.0821
17582W        W60598  22.345   2.096   0.326 -0.1126 -0.0176 -0.1458
17583W        W60599  10.056  32.253  28.890 -0.2605 -0.0443 -0.3518
17584W        W60600  21.720  28.249  25.000 -0.1122  0.0323  0.0788
17585W        W60601  10.447  28.721  16.833 -0.2439  0.1816  0.0089
17586W        W60602  32.048  31.677   1.729 -0.3434  0.0348  0.2324
17587W        W60603  30.113  33.747  19.005 -0.1156  0.2028 -0.0390
17588W        W60604  17.786  29.229  23.132 -0.1291  0.0842  0.3260
17589W        W60605  33.946  31.885  16.646  0.1989 -0.2010  0.1823
17590W        W60606   7.529  27.488  19.917 -0.0574 -0.2630 -0.1687
17591W        W60607  30.964   7.200  21.050  0.3090 -0.1925 -0.1856
17592W        W60608   4.446  33.351  23.536 -0.3025  0.0347 -0.1546
17593W        W60609   5.297  29.837  25.799  0.2600  0.3073 -0.0245
17594W        W60610  26.414   3.032  17.614 -0.1276  0.0026  0.1303
17595W        W60611   9.961   0.634  21.151  0.0473  0.1699 -0.1080
17596W        W60612   6.899  21.101  16.578  0.1458 -0.1206  0.0584
17597W        W60613  10.547  28.593  18.825 -0.1164 -0.0157  0.2105
17598W        W60614  31.757  19.151  16.172  0.0707 -0.0604 -0.3758
17599W        W60615  18.197   2.326  17.130  0.1331 -0.0789  0.1953
17600W        W60616  16.618  17.990  19.977  0.2357  0.0888  0.2067
17601W        W60617  10.120   8.345  22.247 -0.0853  0.1076 -0.3775
17602W        W60618  30.590  21.573  28.160  0.0970  0.3508  0.1431
17603W        W60619   5.504  34.700  15.359  0.1663 -0.1245 -0.1870
17604W        W60620  26.492   9.731  22.379  0.0689 -0.3424  0.0782
17605W        W60621  21.386  24.787  19.464 -0.2062 -0.1531 -0.0881
17606W        W60622   2.653  29.228  22.638  0.2452  0.0349 -0.2442
17607W        W60623  16.321  32.157  23.491  0.0452 -0.2525  0.0889
17608W        W60624  32.866   3.189  22.407 -0.2113  0.0712 -0.1160
17609W        W60625  25.079  10.974  22.478  0.1434 -0.0167 -0.1335
17610W        W60626  29.661   4.677  14.700 -0.1282 -0.1573 -0.4595
17611W        W60627   4.187   4.600  17.447  0.0413  0.1369  0.0782
17612W        W60628  34.059  26.501  28.237 -0.0559 -0.2081 -0.2939
17613W        W60629   1.506  29.818  24.153 -0.0965  0.2247 -0.2600
17614W        W60630   7.214  29.683  21.794  0.2946 -0.1079  0.2365
17615W        W60631   9.631  23.190   2.497  0.0260  0.3769  0.2808
17616W        W60632  20.029   4.604  14.400  0.3244  0.2882  0.0228
17617W        W60633  10.905   7.770  16.487  0.0843  0.1230  0.0652
17618W        W60634   3.927  12.017   4.714 -0.1501 -0.0377  0.0004
17619W        W60635  21.997   8.885   6.115 -0.0959  0.1538  0.1824
17620W        W60636   1.277  22.943  14.714  0.2016  0.1885 -0.1424
17621W        W60637  33.988  23.791  26.946  0.2355 -0.2316 -0.2891
17622W        W60638  28.288  29.494   0.298 -0.0895 -0.0912 -0.0143
17623W        W60639   2.569   7.009  16.553 -0.2572  0.0947 -0.0181
17624W        W60640  28.333   3.678  18.154 -0.1051 -0.1092  0.1401
17625W        W60641  25.738  12.802  15.151  0.0625 -0.1667 -0.2508
17626W        W60642   6.205  21.301  15.518  0.2703  0.0639 -0.0909
17627W        W60643  24.143  19.434  25.867  0.0528 -0.0152  0.1165
17628W        W60644   0.129  26.488  19.434  0.1740 -0.4614  0.3876
17629W        W60645   7.465   9.354  22.944  0.2639  0.1885 -0.1879
17630W        W60646   2.886  17.049  21.063  0.2558  0.0810  0.0076
17631W        W60647  11.300   1.273  18.861 -0.1263  0.0476  0.2236
17632W        W60648  10.819   0.727  19.843 -0.1311 -0.0288  0.0761
17633W        W60649  12.117  25.477  28.404  0.0661 -0.2593 -0.2298
17634W        W60650  11.775   6.909  25.208 -0.1551 -0.0621 -0.0377
17635W        W60651   8.354  10.496  17.737  0.0346  0.0212  0.1371
17636W        W60652  25.625  32.914  21.186  0.1366 -0.3517  0.0184
17637W        W60653  13.677  34.183  21.756  0.0552  0.0880 -0.2223
17638W        W60654   2.156  33.991  21.692  0.1819  0.0438 -0.0157
17639W        W60655   1.397  26.701  16.539 -0.2985 -0.2573 -0.3416
17640W        W60656  34.204  31.766   2.588  0.0899 -0.0448 -0.3414
17641W        W60657  10.125  10.680  20.106  0.1864 -0.2275  0.2523
17642W        W60658   0.430  18.243  16.000 -0.2337 -0.0577  0.3542
17643W        W60659  30.861  10.277  18.724 -0.1074  0.2643  0.1105
17644W        W60660  14.841  26.425  25.608  0.2664 -0.0503  0.1343
17645W        W60661   7.756  23.639   2.392  0.0216 -0.3732 -0.0052
17646W        W60662  26.469   5.238  17.442  0.1005 -0.4077  0.2940
17647W        W60663   1.637  30.723  17.545  0.1304  0.0649  0.1613
17648W        W60664  26.974  11.605  23.186  0.2107  0.0058 -0.0597
17649W        W60665   4.072  21.601  15.017  0.2394 -0.0285  0.0357
17650W        W60666   4.438  29.918  15.129 -0.2105 -0.3857  0.0720
17651W        W60667   4.520  18.344  23.281 -0.1154 -0.1290 -0.2010
17652W        W60668  34.764  32.427  15.559  0.1139 -0.3789  0.0605
17653W        W60669   6.455  28.642  13.837  0.1421 -0.0730 -0.0784
17654W        W60670  31.011  20.692   5.189 -0.3046  0.2290 -0.0150
17655W        W60671   5.676  17.247  21.750 -0.0746 -0.1670 -0.3319
17656W        W60672   6.555  27.785  15.864 -0.1734 -0.2743  0.1610
17657W        W60673  13.964  34.253  24.376  0.1465 -0.0849  0.1649
17658W        W60674  10.291  30.487  17.621 -0.0504 -0.0076  0.3593
17659W        W60675  14.332  31.361  23.631  0.0594  0.2205  0.2643
17660W        W60676   0.442  15.226  24.427 -0.0078 -0.1290 -0.2122
17661W        W60677  12.365  25.346  28.899  0.2682  0.1303 -0.3594
17662W        W60678   3.313  19.832  23.091  0.1953  0.3593  0.0682
17663W        W60679   9.125   8.804  25.156 -0.1853 -0.3972  0.0748
17664W        W60680   6.582  29.161  15.588 -0.2381  0.1676 -0.3272
17665W        W60681   8.203  22.271  28.958  0.0674  0.0150  0.2984
17666W        W60682  26.616  32.270  27.127  0.1966  0.1758  0.0463
17667W        W60683  11.430  21.050  20.103  0.2379  0.1201 -0.0400
17668W        W60684   4.486  22.777  14.406  0.2269  0.1466 -0.3417
17669W        W60685  34.187  27.046   5.554 -0.4278 -0.2241 -0.1234
17670W        W60686   1.292  15.634  19.865 -0.1589  0.0649 -0.1128
17671W        W60687  32.588   4.803  14.900  0.0273  0.1645  0.3064
17672W        W60688   3.920   0.555  22.092  0.1202 -0.0116 -0.3479
17673W        W60689   0.103  29.626  27.290  0.2092  0.1178 -0.2666
17674W        W60690   5.462  23.128  14.336 -0.0721  0.0156  0.0097
17675W        W60691  10.121  34.743  21.979 -0.0595  0.0034  0.0416
17676W        W60692  24.775   3.312  18.423 -0.2282 -0.1058 -0.2022
17677W        W60693   8.080  26.788  16.562  0.0083 -0.0822  0.0212
17678W        W60694  34.365   1.032  29.168 -0.0795 -0.1018 -0.1664
17679W        W60695  28.145  16.473  14.747 -0.0865 -0.1764 -0.1802
17680W        W60696   6.523   0.849  27.230 -0.3512 -0.4867  0.0030
17681W        W60697  33.110  30.833   1.512 -0.0054 -0.0935 -0.0472
17682W        W60698  13.758   3.506   3.126  0.1199 -0.1204  0.2291
17683W        W60699   9.015  29.657  28.505  0.1535  0.0191  0.0393
17684W        W60700  15.332  23.158  20.469 -0.2402  0.1776  0.2140
17685W        W60701   0.031   9.694  22.103 -0.1050  0.3292 -0.0700
17686W        W60702   8.117  22.115  20.722 -0.2948  0.1021 -0.0302
17687W        W60703  21.971  32.786   0.962 -0.1582 -0.1127  0.1900
17688W        W60704   3.475   2.489  16.421  0.0767  0.0905 -0.2546
17689W        W60705   7.319  23.746   2.577  0.3235 -0.0641  0.0626
17690W        W60706  29.286   7.153  21.911 -0.0498  0.0742 -0.0827
17691W        W60707  25.170   0.900  16.535  0.2984  0.2620  0.2443
17692W        W60708  17.629   0.935  27.818 -0.0284  0.1086  0.0546
17693W        W60709  31.027  17.111  17.554  0.2379 -0.2834 -0.1567
17694W        W60710  34.261  34.280  22.316  0.0218 -0.0431  0.1057
17695W        W60711   9.993   2.396  18.443  0.2226 -0.3564 -0.3703
17696W        W60712   8.948  31.104  23.093  0.0805  0.1112 -0.0238
17697W        W60713   7.548  21.906  15.619  0.3388  0.1803 -0.0271
17698W        W60714   9.944  34.169  21.995 -0.2515  0.0681  0.1409
17699W        W60715   4.108   8.152  15.713  0.0165  0.2483 -0.3715
17700W        W60716  19.263   8.289  14.037  0.1124 -0.1932  0.3058
17701W        W60717  11.644   9.311  28.513 -0.3441 -0.1061  0.0026
17702W        W60718  31.339  33.307  25.938 -0.0800 -0.1068  0.0520
17703W        W60719   7.896  33.620  21.842 -0.1674  0.2083  0.1767
17704W        W60720  27.188  12.850  24.782 -0.1624 -0.0628  0.0105
17705W        W60721   1.507   5.152   9.188 -0.2114 -0.3190 -0.0649
17706W        W60722  21.155  18.935  16.592 -0.1535 -0.1008 -0.0341
17707W        W60723   1.095  27.260   4.836  0.1269  0.1650  0.2041
17708W        W60724   1.375  32.063  21.518  0.0436  0.1650 -0.1292
17709W        W60725  32.366  29.097  21.106 -0.1171 -0.0774  0.1705
17710W        W60726   0.179   4.615  23.930  0.1818 -0.0301  0.2568
17711W        W60727   5.170  34.352  28.827  0.1007  0.1827  0.0222
17712W        W60728   3.506  32.733  20.311  0.1121  0.2023  0.2113
17713W        W60729  14.024  22.636  20.034 -0.1118 -0.0212 -0.2052
17714W        W60730   0.538   3.478  18.975 -0.0064 -0.0801 -0.0844
17715W        W60731  30.424  31.688   0.203 -0.1336 -0.1652 -0.1076
17716W        W60732  27.648  11.422  21.582 -0.0533 -0.0253  0.1060
17717W        W60733  26.150   4.725   9.236  0.3984 -0.3470  0.3786
17718W        W60734  12.635  15.915  28.725  0.3423 -0.2376 -0.1108
17719W        W60735   7.747  23.939  24.917  0.2239  0.2186  0.0948
17720W        W60736  31.116  15.538  27.502 -0.1466 -0.1023 -0.1165
17721W        W60737  13.316   7.458  25.277  0.0258 -0.1516  0.0604
17722W        W60738  23.982   2.429  17.992  0.0314 -0.3634 -0.2069
17723W        W60739  11.109  16.739  27.672 -0.0961  0.2632  0.2282
17724W        W60740   9.492   5.128  21.940 -0.0192 -0.1211  0.0445
17725W        W60741   0.823  23.006  18.908 -0.0148 -0.1926 -0.1778
17726W        W60742  32.582  32.689  21.347  0.3505  0.0759  0.3689
17727W        W60743  30.512   5.092  25.455  0.0364  0.2272  0.0985
17728W        W60744  28.186   6.043  17.470  0.1043  0.2238  0.2403
17729W        W60745  24.403  31.015  26.923 -0.2911 -0.0207 -0.3889
17730W        W60746   7.544   8.538  15.583  0.0378 -0.3118  0.0557
17731W        W60747  11.568  14.735   0.430  0.2399 -0.2239  0.0098
17732W        W60748   7.785  27.937  18.754  0.0287 -0.1596 -0.1060
17733W        W60749  30.538   7.803  21.653 -0.2113  0.1700  0.0930
17734W        W60750   3.143  10.660  17.597  0.1353  0.2803  0.2158
17735W        W60751   3.465  33.453  23.367 -0.1352  0.4432 -0.0220
17736W        W60752  25.821  10.373  19.105 -0.2633 -0.0535  0.0040
17737W        W60753   1.021  30.576  23.714 -0.1485  0.2497  0.1389
17738W        W60754   0.833  17.775   6.231 -0.2066  0.1512  0.1629
17739W        W60755   3.669  21.820  15.604  0.0639  0.1538  0.0004
17740W        W60756  10.222  31.602  14.283  0.1483 -0.0004 -0.3963
17741W        W60757  31.327  18.363  27.024 -0.0365  0.1680  0.1962
17742W        W60758  20.351  30.875   7.224  0.1804  0.1163 -0.2413
17743W        W60759   4.670  31.763  21.459 -0.1799 -0.4766  0.1651
17744W        W60760   2.064  25.349  21.291  0.0922  0.1068  0.0234
17745W        W60761  21.547   2.990  29.074  0.0266  0.1927  0.2847
17746W        W60762   1.893  20.610  27.011  0.0858  0.0690  0.1425
17747W        W60763   0.253  26.829   8.519  0.0981  0.0425  0.0455
17748W        W60764  28.262  29.638  19.455  0.0252  0.0605  0.0497
17749W        W60765  24.281  11.634   1.581  0.0825  0.1294 -0.0525
17750W        W60766   7.461  33.426  14.526 -0.3869 -0.1643  0.1790
17751W        W60767   5.599  15.452  16.837 -0.0103  0.1492 -0.0174
17752W        W60768   1.796   0.928  16.490  0.0415 -0.1047 -0.1252
17753W        W60769   2.050   0.325   3.384  0.0315 -0.1392  0.1364
17754W        W60770  21.856  26.477  22.847 -0.0709  0.2703 -0.0549
17755W        W60771   9.905   6.658  23.062 -0.0138 -0.1302  0.0664
17756W        W60772  22.540  28.112  23.627  0.0253  0.1047  0.0309
17757W        W60773  16.946  21.554   2.654  0.0803  0.0403 -0.0031
17758W        W60774   5.352  18.224  25.259  0.1676 -0.0793 -0.1095
17759W        W60775  28.947  25.684  21.931 -0.4432 -0.2498  0.2801
17760W        W60776  32.172   4.706  25.990 -0.0647 -0.0776 -0.1072
17761W        W60777  26.085  34.695  16.826  0.2977  0.1345  0.2415
17762W        W60778  30.122  34.518   8.671 -0.0165  0.4532 -0.1627
17763W        W60779  34.444  25.760  25.829  0.0285  0.0870  0.0662
17764W        W60780   4.615  12.744  20.789  0.1702  0.1362  0.1205
17765W        W60781  33.668  33.563   0.311 -0.1200 -0.2017 -0.2052
17766W        W60782  29.647  25.900  16.377  0.2383 -0.2446 -0.3437
17767W        W60783  27.761   2.909  19.953  0.2348 -0.2488  0.0368
17768W        W60784  24.470   1.228   0.145 -0.3267  0.2656 -0.1089
17769W        W60785  14.515   1.099   3.273 -0.0518  0.0160  0.2742
17770W        W60786  33.955  31.596  22.764 -0.3168 -0.3538 -0.1973
17771W        W60787  33.842  32.352  22.310  0.0293 -0.0229  0.0057
17772W        W60788  26.302  25.812  26.936  0.3991 -0.2978 -0.2933
17773W        W60789   4.162  12.131  18.504 -0.0893  0.0378 -0.1481
17774W        W60790  30.167   4.691  28.391 -0.0709 -0.1705  0.3252
17775W        W60791   5.624  28.334  15.781 -0.1754 -0.0684 -0.0417
17776W        W60792   5.414   9.046  23.701 -0.1516  0.0212  0.0289
17777W        W60793  30.572   9.784  28.477 -0.2815 -0.0327  0.2224
17778W        W60794  12.901  25.679  19.877 -0.2245 -0.1900 -0.2024
17779W        W60795  17.554  33.033  27.471  0.1884  0.0436  0.2010
17780W        W60796   4.978  29.551   4.993 -0.1624 -0.1369 -0.0894
17781W        W60797   9.041  10.028  17.240  0.2142 -0.1084 -0.0391
17782W        W60798  33.004  31.654  15.395 -0.2776  0.2050 -0.0071
17783W        W60799  31.535  22.327  23.981  0.0419  0.1459 -0.1385
17784W        W60800  34.436  24.733  25.866  0.2400 -0.1806  0.4646
17785W        W60801  10.067   0.710  22.941  0.1054 -0.1226  0.2808
17786W        W60802   1.341  23.764  18.792  0.0656  0.0628  0.0826
17787W        W60803  32.848  16.390  17.581 -0.0272 -0.1072 -0.1552
17788W        W60804  25.407  14.881  22.857  0.2300 -0.0971 -0.0761
17789W        W60805   1.789  24.165  15.647 -0.2759 -0.2334  0.2552
17790W        W60806  32.759   0.964  19.731  0.2694  0.5127 -0.3271
17791W        W60807   6.446   9.370  25.265 -0.0257 -0.0413  0.0835
17792W        W60808  24.268  17.168  28.722 -0.2622  0.3112 -0.1003
17793W        W60809   5.240  33.838  28.981  0.0779  0.0970 -0.2208
17794W        W60810  32.150  29.641  25.507  0.0127  0.3817 -0.1446
17795W        W60811  30.728  28.731  27.034  0.2954 -0.0238  0.2256
17796W        W60812   2.723  23.368  21.962 -0.2006 -0.0970 -0.3958
17797W        W60813  12.782  24.957  20.307  0.0674  0.1341  0.0124
17798W        W60814  13.828  26.085  23.882 -0.0088  0.0038  0.1387
17799W        W60815  12.356  31.089  17.002 -0.1013 -0.1851 -0.0836
17800W        W60816  17.963  13.357  20.059 -0.0994 -0.2012  0.0641
17801W        W60817  13.744   6.712  25.057  0.2015 -0.0311  0.2402
17802W        W60818   0.821   0.945  26.053  0.0478 -0.1837  0.2192
17803W        W60819   0.046  18.965  20.344  0.1686 -0.2516  0.0076
17804W        W60820  32.438  25.329  15.419 -0.1326 -0.0760  0.0179
17805W        W60821  11.617   5.824  16.789 -0.0882  0.3020  0.1420
17806W        W60822  15.705   8.245  19.267 -0.2065  0.1506 -0.2099
17807W        W60823   0.809  12.434  19.149 -0.1827 -0.0128 -0.0720
17808W        W60824   1.103   0.471  27.527 -0.2688  0.0733 -0.1682
17809W        W60825  21.132  29.814  17.687 -0.2057  0.4520 -0.1091
17810W        W60826  27.714   7.694  15.718 -0.1135  0.1157 -0.1002
17811W        W60827  10.861   5.855  23.471  0.4656  0.1007  0.0158
17812W        W60828   0.565  28.918  16.593  0.0482 -0.0341  0.0700
17813W        W60829   3.499  27.742  20.875 -0.2964 -0.1000  0.0286
17814W        W60830  11.339  19.868  12.438 -0.1336  0.0704 -0.0239
17815W        W60831  15.577  14.245   5.909 -0.1605  0.1317  0.0414
17816W        W60832   1.108   5.668  19.246  0.1715 -0.1371  0.1097
17817W        W60833  31.349   2.640  24.305 -0.0125  0.0957 -0.2962
17818W        W60834  16.218  33.849  15.681 -0.3861 -0.0799 -0.0830
17819W        W60835   1.561   3.284  15.905 -0.1988 -0.2480  0.0543
17820W        W60836  34.547  27.982  15.262 -0.3365 -0.0160  0.1326
17821W        W60837  11.497   9.841  29.312 -0.0366  0.1633 -0.0896
17822W        W60838   1.723   3.147  15.293  0.0155  0.2065  0.0076
17823W        W60839   2.346  23.464  27.588  0.1034  0.1684 -0.0400
17824W        W60840  11.586  16.369  13.134 -0.2032 -0.1268 -0.3431
17825W        W60841   6.398  22.560  21.350  0.1028 -0.1335  0.0915
17826W        W60842  10.635  30.889  14.394  0.1366  0.0198  0.1431
17827W        W60843  32.036  34.466  15.303 -0.0278 -0.0362  0.1029
17828W        W60844   3.270   1.766   2.473 -0.2334 -0.1163 -0.0240
17829W        W60845   9.042  26.192  26.760 -0.2460 -0.0534  0.0590
17830W        W60846  23.140  32.022  16.633  0.2791  0.1670  0.1410
17831W        W60847   4.800  25.384  23.622 -0.1494  0.0623  0.2705
17832W        W60848   2.215   7.072  17.961  0.4389  0.1396 -0.1959
17833W        W60849  26.181   5.678  21.613  0.3407  0.2674 -0.0560
17834W        W60850  34.763  25.238   5.069 -0.1607  0.1607 -0.0916
17835W        W60851   2.235  24.689  17.702 -0.3682  0.0985 -0.1646
17836W        W60852  16.607  22.457   1.951  0.0036  0.0701 -0.0145
17837W        W60853  27.416  17.664  19.961 -0.0601 -0.0450  0.2090
17838W        W60854  32.066  27.120  15.545 -0.0945  0.0700  0.2049
17839W        W60855   9.049  24.260  19.023 -0.4143  0.1014 -0.0023
17840W        W60856   0.439  27.515  28.635 -0.0788 -0.0531 -0.0593
17841W        W60857  29.514  31.309   6.899 -0.2123 -0.0485  0.4052
17842W        W60858  24.107  30.321  20.447  0.1032  0.0046 -0.2031
17843W        W60859  26.923   1.642  25.904 -0.2229 -0.2876 -0.1720
17844W        W60860  27.161  25.975  25.047 -0.0465 -0.2899 -0.1117
17845W        W60861   7.611   2.269  18.741  0.0951  0.1716 -0.2368
17846W        W60862  28.797   2.336  22.814 -0.0831 -0.0314 -0.2725
17847W        W60863  18.175  28.346  18.338  0.0462  0.1935 -0.2070
17848W        W60864  13.642  21.203  24.394 -0.1362 -0.3089  0.2099
17849W        W60865   8.333  33.639  21.988  0.2070  0.1119  0.0773
17850W        W60866  31.518   4.354  20.137  0.1441 -0.3898  0.0268
17851W        W60867  28.496  32.338   5.628  0.1592 -0.0587 -0.1408
17852W        W60868   2.619   0.673  24.645  0.0837  0.0334  0.0107
17853W        W60869   9.105  26.759  14.466 -0.3575  0.1077  0.0356
17854W        W60870  28.309  11.181   3.785 -0.0653  0.3477 -0.1157
17855W        W60871  33.654   3.971  21.706  0.2116  0.0334 -0.2672
17856W        W60872  31.065  16.877  27.767  0.0413 -0.4318  0.1389
17857W        W60873   3.956  17.454  15.286  0.1086 -0.3100  0.0216
17858W        W60874   7.711  33.713  20.474 -0.1392 -0.0783  0.0532
17859W        W60875   3.746   5.600  25.520 -0.0051 -0.1837  0.5406
17860W        W60876   1.511  34.694  18.410  0.1320 -0.3709 -0.2728
17861W        W60877  26.311  13.844   3.211  0.3645 -0.0133  0.5532
17862W        W60878  34.103   0.245  18.264 -0.2406  0.0393 -0.1283
17863W        W60879  32.257  31.041   8.294 -0.0316 -0.0906  0.0768
17864W        W60880   3.679   6.555  19.667 -0.1715  0.4230  0.1774
17865W        W60881  26.383  27.617  21.580 -0.2151  0.0036 -0.1528
17866W        W60882   5.502   8.757   0.545 -0.2061 -0.1155  0.0044
17867W        W60883  19.245  27.571  25.762  0.2417 -0.3786  0.3107
17868W        W60884  28.382   6.229  21.038 -0.1716 -0.1618 -0.1117
17869W        W60885  14.732   3.572  14.537  0.2160  0.2666 -0.2555
17870W        W60886  25.525  34.394  21.556 -0.0283 -0.0941 -0.1105
17871W        W60887   0.548  13.415  29.141  0.0695  0.1195  0.1775
17872W        W60888   4.279  13.042   9.909  0.0337 -0.1539 -0.0593
17873W        W60889  23.806  30.619  23.245 -0.3814 -0.0807  0.1248
17874W        W60890  29.759   0.585  15.846 -0.1485  0.3525 -0.1492
17875W        W60891   7.489  21.245  26.149  0.0169 -0.0651 -0.0131
17876W        W60892  30.935  21.147  27.712  0.0502 -0.0780  0.2087
17877W        W60893  22.123   0.378  17.729 -0.1749  0.0623  0.0022
17878W        W60894   3.126  33.575  14.383  0.2422  0.1192  0.1849
17879W        W60895  28.374  30.902   6.390  0.0833 -0.0068 -0.1330
17880W        W60896  20.892  30.740  17.676 -0.1468 -0.1159  0.0103
17881W        W60897  30.729  31.617  27.769 -0.2235  0.1594 -0.0909
17882W        W60898   0.904   2.087  17.174  0.2037  0.0691  0.2991
17883W        W60899   9.594   7.855  26.377  0.0809  0.3062 -0.0094
17884W        W60900   0.555  18.058  21.732  0.2107 -0.0656  0.1042
17885W        W60901  26.491   9.410  15.123  0.1275  0.0449  0.0856
17886W        W60902  28.523  28.730  20.299  0.3091 -0.1101  0.0276
17887W        W60903  29.585  22.594  26.478  0.1457  0.0443 -0.2703
17888W        W60904   1.903   2.612  23.708  0.2157  0.0984 -0.0060
17889W        W60905  33.386  17.913  18.524 -0.0351  0.0443  0.1526
17890W        W60906   5.654  16.431  15.215 -0.1982 -0.0387  0.0613
17891W        W60907   8.125  15.722  26.290 -0.0280 -0.1004 -0.0709
17892W        W60908   7.890   8.559   3.753 -0.2980  0.3210  0.2765
17893W        W60909   2.474   1.382   1.658 -0.1404  0.2123  0.0150
17894W        W60910   1.214   8.768   0.163 -0.3652  0.1168  0.0427
17895W        W60911   2.633  13.181   3.180  0.0600  0.2058 -0.0162
17896W        W60912  16.544  34.204  18.787 -0.0550 -0.0539  0.0237
17897W        W60913  16.491   2.752  23.479 -0.1777 -0.1128 -0.0773
17898W        W60914  31.412   4.825  21.806 -0.0460  0.1164 -0.3497
17899W        W60915   0.064   4.025   1.769  0.0133 -0.2735  0.2548
17900W        W60916   2.320  29.450  19.640  0.1986  0.1713  0.0311
17901W        W60917  25.003  11.503  17.674 -0.0339 -0.2267 -0.2799
17902W        W60918  18.806  30.934  19.745  0.2095 -0.2332 -0.1125
17903W        W60919   0.000   8.946  17.668  0.3299  0.1507 -0.2088
17904W        W60920   4.919  32.044  21.125 -0.1933  0.2412 -0.2528
17905W        W60921  32.889  22.620  18.328  0.3027 -0.3545  0.2194
17906W        W60922  28.524   2.528  19.119 -0.1453 -0.0954 -0.1112
17907W        W60923   4.586  21.576  26.891  0.0540 -0.0685  0.2348
17908W        W60924  30.060   3.448  20.621  0.0241  0.0181  0.0631
17909W        W60925  24.603  25.121  16.547 -0.2132  0.1571 -0.0679
17910W        W60926   5.929   1.319  14.748 -0.0201  0.2040 -0.2480
17911W        W60927   5.963  34.084  15.089 -0.3031 -0.0695  0.1214
17912W        W60928  17.093  23.024  18.446  0.1456 -0.1597 -0.0670
17913W        W60929  27.802  26.271  24.748  0.0271  0.0228  0.0128
17914W        W60930  23.969  29.362  20.683  0.0818  0.0710 -0.2316
17915W        W60931   1.778  21.871   1.696  0.2124 -0.0997 -0.4053
17916W        W60932  23.917  22.046  17.205  0.2004  0.2323 -0.1445
17917W        W60933   4.951  32.851  18.376 -0.1314 -0.1607  0.3974
17918W        W60934   0.507  32.348  21.210 -0.1398  0.1608 -0.3764
17919W        W60935  20.935  10.966  26.049  0.0973  0.1851  0.2969
17920W        W60936  16.606  34.642  27.045 -0.2247 -0.3375 -0.1232
17921W        W60937   5.599  25.846  22.717  0.3590 -0.1924 -0.1197
17922W        W60938   2.267  27.389  27.456  0.0738  0.0683  0.0634
17923W        W60939  33.988  34.653  24.625  0.2326 -0.0144 -0.1556
17924W        W60940  24.403   5.391  16.096 -0.1494  0.2133 -0.1088
17925W        W60941  22.032  21.117  26.912  0.1780  0.2044  0.1683
17926W        W60942   5.122  18.225  19.174  0.3024 -0.2230  0.0519
17927W        W60943   7.975  28.870  14.906 -0.1246  0.0345  0.2009
17928W        W60944   9.103   3.436   4.698  0.0197  0.0565  0.0820
17929W        W60945  28.780  27.298  25.827  0.0181  0.2245 -0.0738
17930W        W60946  31.535  25.787  16.144 -0.0322  0.1506 -0.1332
17931W        W60947   3.933  21.941  23.119  0.0519 -0.1344  0.2230
17932W        W60948  12.788  27.067  28.668 -0.0741 -0.0562 -0.0926
17933W        W60949  34.387  25.516  19.078  0.4698  0.1203  0.1524
17934W        W60950  29.840  23.337   0.324  0.2012  0.0643 -0.0625
17935W        W60951  32.976   1.390  19.046 -0.0130  0.2993 -0.3255
17936W        W60952   0.532  32.988  25.424 -0.0304  0.1032 -0.3224
17937W        W60953  11.847  28.560  21.093 -0.0170 -0.1505  0.2473
17938W        W60954   2.620  34.356  23.745 -0.0919  0.2521  0.0769
17939W        W60955  13.607   6.289  17.212 -0.3128 -0.1625  0.1031
17940W        W60956  34.020  27.632  29.170 -0.0039  0.3977 -0.0807
17941W        W60957  20.754   1.064  22.559  0.1317 -0.0771  0.0378
17942W        W60958  34.300   1.614  15.124 -0.0621  0.0628  0.2673
17943W        W60959   1.968  22.379   6.328 -0.0137 -0.0706 -0.1297
17944W        W60960  19.245  28.439  18.878 -0.0493  0.3002 -0.0943
17945W        W60961   4.220  26.891  25.896 -0.1281  0.0199 -0.0440
17946W        W60962   4.454   3.312  19.111 -0.0602 -0.0816  0.2754
17947W        W60963  32.455  31.776  25.561 -0.1886  0.1784 -0.3045
17948W        W60964  29.737  22.591  17.483  0.2209  0.0097 -0.1348
17949W        W60965   8.284  32.910  21.266  0.3165 -0.2698 -0.1593
17950W        W60966  20.391  33.470  22.991  0.1400 -0.1536 -0.2500
17951W        W60967  32.260  19.601  19.614  0.0617  0.0024 -0.1366
17952W        W60968  27.384  23.606  23.512  0.0491 -0.2445 -0.0205
17953W        W60969  33.577  31.536  28.076  0.0622 -0.3361  0.1376
17954W        W60970   4.980  32.412  19.912  0.0310  0.1110 -0.1146
17955W        W60971   9.945  27.535  19.359  0.0485  0.1015  0.1930
17956W        W60972   0.124  23.847  25.412  0.3253  0.3235  0.0928
17957W        W60973   9.899  19.823  20.315  0.1684 -0.1121  0.0059
17958W        W60974   5.348  29.685  24.669 -0.0951 -0.1634 -0.3038
17959W        W60975   0.069  23.824  19.500 -0.0987 -0.0311  0.3900
17960W        W60976  30.348  13.507  28.408 -0.0263  0.1128  0.0566
17961W        W60977   0.346  17.382   1.180 -0.0213  0.0408 -0.2470
17962W        W60978  28.916  31.382  23.742  0.0372  0.3538  0.4676
17963W        W60979   6.690  26.768   1.456 -0.2365  0.0382 -0.2129
17964W        W60980  34.244   6.611  25.471  0.1762  0.2691 -0.2232
17965W        W60981  33.829  15.697  19.552 -0.0097 -0.1552  0.0888
17966W        W60982  28.946   7.717  16.378 -0.0006 -0.0858 -0.0608
17967W        W60983  28.067   8.877  17.228  0.0393  0.0933  0.1395
17968W        W60984  22.011  25.124   4.917 -0.1083  0.2532  0.1354
17969W        W60985  32.841  34.658  15.731  0.0864 -0.1797 -0.1448
17970W        W60986   6.739  24.430  16.813  0.1035 -0.1655 -0.4201
17971W        W60987  25.199  29.483  11.108  0.0337  0.2529 -0.4369
17972W        W60988  15.379  21.171  27.362 -0.0911  0.0877 -0.0191
17973W        W60989   6.737  20.503  15.955 -0.1879 -0.2422  0.1811
17974W        W60990  11.035  18.606  26.309 -0.1548 -0.1995  0.0422
17975W        W60991  25.143   1.114  28.477  0.2171 -0.0393  0.1163
17976W        W60992   5.610   7.376  16.676 -0.0239  0.2717 -0.0429
17977W        W60993  31.537  24.678   1.183 -0.3604 -0.2148  0.0378
17978W        W60994  31.897  18.142  19.652  0.0173  0.1313 -0.1403
17979W        W60995  21.774  23.437  19.384 -0.0980  0.4570  0.0858
17980W        W60996  22.721   2.409  16.863  0.0970  0.1426  0.2118
17981W        W60997   6.442  32.071   8.123  0.0697  0.0309 -0.3065
17982W        W60998  18.479  16.715  13.502 -0.0382  0.3155  0.1737
17983W        W60999   5.627  19.937  23.959  0.1081  0.1160  0.1057
17984W        W61000   6.491  24.412  14.548 -0.0837  0.3391  0.1763
17985W        W61001   5.188  26.214  16.041  0.3091  0.1763  0.0465
17986W        W61002  10.536  32.565   6.091 -0.0520 -0.0061 -0.1192
17987W        W61003   1.942  31.407  15.985 -0.0805  0.1463  0.1454
17988W        W61004   0.067  31.730  19.110  0.0246  0.0761  0.0615
17989W        W61005  34.452   1.485  21.376  0.2116  0.2972  0.1280
17990W        W61006  29.250  31.023   1.079  0.0101 -0.0116 -0.5220
17991W        W61007  12.635  31.323  19.414  0.4224  0.0263  0.0545
17992W        W61008   9.070   5.002  25.782  0.1634  0.1052 -0.0283
17993W        W61009   0.982  20.755  17.175 -0.0957  0.0024  0.1774
17994W        W61010   4.949   8.884  27.617  0.3901  0.1506  0.1587
17995W        W61011   6.692  14.486  16.727 -0.1006  0.1502  0.1087
17996W        W61012   3.983  24.631  29.250 -0.0174 -0.2464  0.2351
17997W        W61013   0.067  23.782  18.990 -0.1098  0.0317  0.2752
17998W        W61014  25.508  19.361  14.977  0.1011 -0.1939 -0.0352
17999W        W61015  23.993  18.793  14.792 -0.3345 -0.0184 -0.1232
18000W        W61016  27.688  18.849  23.524  0.1359  0.0161 -0.0858
18001W        W61017   0.419  21.701  24.243 -0.1240  0.0409 -0.2344
18002W        W61018   0.204   3.963  28.150  0.1981 -0.1131  0.1617
18003W        W61019  34.337  31.270  28.741 -0.2298  0.0370  0.0625
18004W        W61020   2.366  34.273  22.096 -0.0187  0.3786 -0.1713
18005W        W61021   9.160   9.111  23.981 -0.0409  0.0135 -0.1750
18006W        W61022  12.895  22.990  19.106 -0.1193  0.0416  0.3663
18007W        W61023  30.252  19.924  22.216  0.1111 -0.0808 -0.2395
18008W        W61024  12.213  32.344  22.668  0.3566  0.2833 -0.2946
18009W        W61025   2.392   5.608   2.957 -0.2065 -0.0013 -0.0850
18010W        W61026   7.229  33.987  24.967 -0.0468  0.1822  0.0438
18011W        W61027  11.327  29.865  17.775  0.1459  0.0929 -0.1553
18012W        W61028   3.100  11.559  20.205  0.1971 -0.2133 -0.0380
18013W        W61029  19.663  29.319   6.949  0.2204 -0.1342  0.5760
18014W        W61030  28.735   5.953  19.239  0.0541  0.0746 -0.0468
18015W        W61031   9.473  22.658  13.876 -0.3816 -0.3027 -0.4281
18016W        W61032  20.568   2.473  26.635 -0.5296 -0.0691 -0.0688
18017W        W61033  32.284  12.216  14.528 -0.1543 -0.0990  0.2644
18018W        W61034   3.302  31.327  28.007  0.0421 -0.0179  0.0387
18019W        W61035   5.812  21.042  24.199 -0.3465  0.1806  0.1917
18020W        W61036  31.433  21.319  16.955  0.0194  0.3534  0.1901
18021W        W61037  32.108   8.958  15.672  0.1496 -0.1529 -0.1732
18022W        W61038  25.360  30.536  26.991 -0.4027  0.0367  0.1226
18023W        W61039   8.305  26.933  21.314  0.0621  0.0100  0.0384
18024W        W61040   7.447  32.700  22.049 -0.0087  0.2550  0.0507
18025W        W61041   1.365  23.692  14.349  0.1425 -0.2184 -0.2748
18026W        W61042  12.447   9.326  17.335 -0.0901 -0.1056  0.0209
18027W        W61043   0.565  32.286  15.490 -0.2357 -0.0827 -0.3266
18028W        W61044   5.354   9.287  14.923 -0.2148  0.0242  0.4149
18029W        W61045   2.518  31.215   2.610 -0.1426  0.1986 -0.2864
18030W        W61046  30.649   1.591  16.713 -0.1737 -0.0664 -0.3536
18031W        W61047  21.856  10.843  26.480 -0.0652 -0.1343 -0.1790
18032W        W61048   9.596  20.703   0.128  0.0441 -0.2321 -0.2041
18033W        W61049   5.297  33.657  24.187  0.0547  0.0964 -0.0355
18034W        W61050   2.431   7.525  19.906 -0.0114 -0.2471  0.2714
18035W        W61051  29.198  20.282  28.876  0.5990 -0.1481  0.2084
18036W        W61052   9.491   6.018  14.821 -0.1795 -0.2420  0.0601
18037W        W61053  10.783   0.664  15.667  0.0137 -0.1845 -0.0240
18038W        W61054  31.720   7.497  17.938  0.1514  0.2044 -0.2665
18039W        W61055  23.843  11.938  19.851  0.0490  0.0731  0.1106
18040W        W61056   7.591  21.542  21.538 -0.2390  0.1665 -0.0141
18041W        W61057  31.593   4.180  17.643  0.1360  0.1693 -0.2268
18042W        W61058   4.001  24.279  16.425  0.2350  0.1301 -0.1960
18043W        W61059  27.308   4.562  20.057  0.2769 -0.1398 -0.0236
18044W        W61060   4.276  10.184  24.209 -0.3939  0.1919 -0.2353
18045W        W61061   6.870  31.292   6.977 -0.2317 -0.0077 -0.3490
18046W        W61062  32.432   9.570  18.268 -0.0030 -0.0847 -0.1966
18047W        W61063   5.015  28.443  24.737  0.2382  0.1670 -0.0627
18048W        W61064   4.781  27.910  19.420 -0.2769 -0.2003 -0.0634
18049W        W61065   4.900  33.151  26.200 -0.1918  0.0570  0.0547
18050W        W61066   2.433  22.159  22.984 -0.1534  0.2163 -0.0890
18051W        W61067   2.852   6.852  14.046  0.1087  0.1567 -0.0353
18052W        W61068  11.400  30.968  14.613 -0.0039 -0.4357  0.1530
18053W        W61069  21.482  12.623   5.855 -0.1427 -0.1461 -0.0798
18054W        W61070   4.259  19.224  17.453 -0.0528  0.1320  0.5179
18055W        W61071   1.008  31.921   2.454  0.0302  0.0663 -0.2263
18056W        W61072  14.781  34.416  18.120 -0.0005 -0.0223 -0.1759
18057W        W61073   0.870  29.749  23.067  0.0733 -0.0761  0.4205
18058W        W61074  30.359  24.178  21.522  0.0936  0.1559 -0.0690
18059W        W61075   0.124  32.460  28.106 -0.1161  0.1562  0.1035
18060W        W61076  30.633  26.630  17.082 -0.0023  0.3231 -0.2983
18061W        W61077  21.414  22.512   8.041 -0.2117  0.5356  0.1710
18062W        W61078   3.015  29.548   5.343  0.0643  0.3787  0.0952
18063W        W61079  24.050  28.515  27.858  0.0468  0.3509 -0.2204
18064W        W61080  32.416   7.328  27.745  0.1685 -0.0582  0.4690
18065W        W61081  30.700  29.159  25.688  0.1007  0.0519 -0.1533
18066W        W61082   9.086  34.541  22.724 -0.4252 -0.0868  0.1159
18067W        W61083  21.931  21.650   2.780  0.1769  0.1836 -0.0787
18068W        W61084   4.896   1.903  27.304 -0.0424 -0.0181 -0.0045
18069W        W61085  33.597  21.818  17.995  0.1425 -0.2110 -0.3074
18070W        W61086  34.409   3.716   6.997 -0.0339  0.1160 -0.3073
18071W        W61087  33.618   5.619  25.041 -0.2162 -0.1915 -0.1483
18072W        W61088  34.766   1.444  10.329  0.0131 -0.2553 -0.2429
18073W        W61089   6.170  10.127  23.813  0.0885 -0.2079 -0.2052
18074W        W61090  11.375  26.290  16.481  0.1273 -0.0182 -0.0124
18075W        W61091  22.394   1.694  26.762 -0.0235 -0.1647 -0.0021
18076W        W61092  28.410   1.840  23.064 -0.1113 -0.2262 -0.1022
18077W        W61093   6.632   4.637   6.961  0.1062 -0.1861 -0.2282
18078W        W61094  21.827  26.023  27.834  0.1039 -0.3705  0.2514
18079W        W61095   9.329   0.423  14.701 -0.4010  0.4445 -0.2387
18080W        W61096  13.875  29.099  23.420  0.1098 -0.0071 -0.0691
18081W        W61097   4.174  27.990  15.646 -0.1736 -0.1335  0.0545
18082W        W61098  11.898  10.332  14.348  0.0757 -0.0383  0.0342
18083W        W61099   4.336  32.283  18.678  0.1814  0.0958  0.1804
18084W        W61100  33.512  32.633  16.777  0.1810 -0.0179 -0.0692
18085W        W61101   7.203  28.654   0.030  0.0868 -0.0359  0.0096
18086W        W61102  19.970  20.652  23.674 -0.2915 -0.2420  0.1248
18087W        W61103  18.516   6.661  18.070  0.0465 -0.0984  0.0545
18088W        W61104  21.821   1.396  21.991  0.0825 -0.1431 -0.1861
18089W        W61105  25.402  33.637  10.304  0.0037 -0.1793  0.1077
18090W        W61106   0.943  33.423   0.995 -0.0170 -0.0164 -0.3440
18091W        W61107  32.514   6.424  27.639  0.2004  0.0850 -0.1187
18092W        W61108  21.379  18.221  26.685  0.3300 -0.1369 -0.1290
18093W        W61109   8.489  24.039  13.164 -0.0101 -0.3485 -0.0189
18094W        W61110  23.500  32.048  25.206  0.1167  0.1977  0.2226
18095W        W61111   0.221  20.654  24.066 -0.0485 -0.0412  0.0325
18096W        W61112   0.608  29.566  24.111 -0.3749 -0.0062 -0.0116
18097W        W61113   4.205  27.024   1.686  0.1330 -0.3156  0.0562
18098W        W61114  14.061  23.792  19.789  0.1073  0.0970 -0.0962
18099W        W61115   1.253  14.172  25.692  0.2401 -0.0659 -0.2334
18100W        W61116  31.517   3.021  10.318 -0.4978 -0.0244 -0.3653
18101W        W61117  11.769   8.702  26.357 -0.1380 -0.1491  0.0778
18102W        W61118  28.043  27.135  18.885  0.2808  0.0728  0.0496
18103W        W61119   8.137  27.957  18.366  0.2381  0.2084 -0.1673
18104W        W61120   7.056  24.208   2.222  0.3947  0.1159 -0.0199
18105W        W61121  33.783  18.858  20.947  0.1253 -0.2429  0.0063
18106W        W61122  29.505  32.050  28.401  0.1240 -0.0657 -0.0640
18107W        W61123  12.255  28.348  16.651 -0.0746  0.1140  0.0353
18108W        W61124  30.683  10.096   4.609 -0.3722 -0.0684  0.3846
18109W        W61125  31.680  30.126   5.889 -0.1142  0.1528 -0.1024
18110W        W61126  25.726  30.133  18.659  0.2758 -0.2280  0.1282
18111W        W61127  10.582  25.481   3.008 -0.1091  0.0872 -0.1285
18112W        W61128   8.453  18.444  24.323  0.0390 -0.1014 -0.0095
18113W        W61129   8.044   5.354  28.666  0.1960 -0.0964  0.0486
18114W        W61130  28.381   3.760  10.246  0.1339  0.0449 -0.1543
18115W        W61131  12.364  30.894   1.513  0.3445  0.2989 -0.3323
18116W        W61132  28.769   4.110   8.652 -0.1173  0.1802 -0.2144
18117W        W61133  34.265  28.764  27.261  0.1675 -0.0914 -0.1021
18118W        W61134   4.959  34.656   3.224 -0.4485 -0.0495  0.1838
18119W        W61135  11.486   6.146   5.916  0.1863 -0.1070  0.1274
18120W        W61136  23.843  20.464  29.074 -0.0084 -0.0876  0.0133
18121W        W61137  13.879  29.991  18.216 -0.0110 -0.1693 -0.0485
18122W        W61138   9.494  15.898  27.557 -0.0378  0.1968 -0.1146
18123W        W61139  34.282  31.238  24.541 -0.0570  0.1787 -0.3546
18124W        W61140  11.627  13.908  15.382  0.1512  0.0564 -0.0084
18125W        W61141   5.751  23.324  15.522  0.1236 -0.1129  0.0505
18126W        W61142   3.045  20.522  20.222 -0.1715  0.3903  0.2509
18127W        W61143  28.303   0.733   5.733  0.2562  0.2375  0.1974
18128W        W61144  27.384   9.658  18.336  0.1996 -0.1188  0.0154
18129W        W61145   8.817  32.351  16.760  0.0444 -0.0211  0.1182
18130W        W61146  26.710  26.628  22.387  0.1116  0.1730  0.1000
18131W        W61147  26.843  27.195  23.834 -0.2044  0.3583 -0.2483
18132W        W61148  28.559   1.566  16.750  0.0604 -0.3802  0.0862
18133W        W61149   1.464  33.236  23.216 -0.1790 -0.0809 -0.2131
18134W        W61150   9.203  10.071  24.077  0.0679  0.4647  0.0368
18135W        W61151  25.854   1.191   0.262 -0.0585  0.0854  0.1347
18136W        W61152  17.258  23.586   6.631  0.0591 -0.0282 -0.2392
18137W        W61153  11.436  24.743   5.525 -0.0402  0.1065  0.0242
18138W        W61154   5.135  20.960  25.605 -0.2357  0.0088  0.1278
18139W        W61155  27.005  14.202  20.076  0.4743  0.1486 -0.0673
18140W        W61156  30.462  13.910  16.491  0.0823  0.1582 -0.1764
18141W        W61157  33.731   2.453  15.494  0.1081 -0.0240 -0.1424
18142W        W61158  29.112  28.140  15.949  0.0061  0.0596  0.1582
18143W        W61159  11.670  26.780  13.325  0.2946 -0.0724 -0.1280
18144W        W61160  25.334  23.783  22.534 -0.1304  0.0444  0.1303
18145W        W61161  20.350   2.875  20.096 -0.0854 -0.0225 -0.0364
18146W        W61162   6.296  20.289  24.445 -0.0031 -0.0112 -0.0218
18147W        W61163   4.422   1.135  19.656  0.1441  0.1276  0.0023
18148W        W61164  24.936   4.218   6.941 -0.1944 -0.0753 -0.1014
18149W        W61165  30.914  19.701  22.814 -0.2023  0.2483 -0.1619
18150W        W61166  16.260  31.494  20.450 -0.1883  0.0197 -0.0906
18151W        W61167  18.371  20.055  16.528  0.1206  0.0137  0.2114
18152W        W61168  28.190   2.812  18.498  0.0807  0.0203 -0.0114
18153W        W61169   7.740  29.856  24.699  0.0438 -0.1669  0.0088
18154W        W61170  34.703  30.779  18.845  0.0486  0.1448 -0.0222
18155W        W61171   1.099   6.510  20.329  0.2008  0.1129 -0.0563
18156W        W61172   2.508  22.992  17.850  0.0126 -0.1151 -0.2255
18157W        W61173  18.479   0.930  14.723 -0.2733  0.0358 -0.0980
18158W        W61174  28.193  18.665  23.534 -0.3794  0.0976 -0.0742
18159W        W61175  29.816  12.922  16.376 -0.2735 -0.0375 -0.0363
18160W        W61176  27.122  31.419   9.733  0.0554 -0.0797 -0.2078
18161W        W61177  29.443  34.330   5.588 -0.1328  0.1741  0.0334
18162W        W61178  11.300  20.400   3.649  0.1092  0.0053 -0.1471
18163W        W61179  11.082  25.307  23.376  0.2364 -0.0829 -0.1783
18164W        W61180  12.613  26.059  17.377  0.0920 -0.1108 -0.1235
18165W        W61181  26.970  30.219  18.931  0.0307  0.1494  0.2810
18166W        W61182  19.365   0.738   2.565 -0.1453  0.0373 -0.0633
18167W        W61183  31.243  21.152  22.637  0.2325 -0.1237 -0.0409
18168W        W61184   5.692   7.012  19.039  0.1053  0.2345  0.0207
18169W        W61185   4.216  27.260  20.631 -0.3266 -0.0796  0.1294
18170W        W61186   1.076  25.192  14.445 -0.3522  0.2371 -0.0038
18171W        W61187   8.704  13.913  16.543 -0.2143  0.2692  0.2689
18172W        W61188   0.232  14.011  28.592 -0.3355 -0.5883 -0.1001
18173W        W61189   1.977  20.189  18.685  0.0496 -0.0074  0.2088
18174W        W61190   2.777  31.303  27.636  0.1693 -0.2116 -0.1328
18175W        W61191   2.085  26.225   4.366  0.2418  0.2404 -0.0172
18176W        W61192   3.755  20.586  23.125 -0.0187 -0.0643  0.1227
18177W        W61193  19.148  26.670   3.852 -0.3634 -0.1826  0.2004
18178W        W61194  32.049  26.186  20.023 -0.0048  0.1972  0.0154
18179W        W61195  14.584   6.588  20.547  0.6161  0.1228 -0.1611
18180W        W61196   7.947  32.038  20.047 -0.1119 -0.0730 -0.0853
18181W        W61197  28.346  15.491  29.069  0.0277 -0.1731 -0.0260
18182W        W61198   7.087  31.736  25.973 -0.5170  0.5243  0.0831
18183W        W61199  14.519  10.843  14.475 -0.0769  0.3199 -0.2047
18184W        W61200  25.637  25.287  27.611  0.1273  0.1542  0.1401
18185W        W61201  18.430  26.728  20.483 -0.0629 -0.2566 -0.0502
18186W        W61202  31.409   7.250   0.907 -0.2565  0.0289 -0.1351
18187W        W61203   7.645  26.143   5.125  0.0230  0.0220 -0.3134
18188W        W61204  28.397  18.953  16.279  0.0032  0.0738  0.0931
18189W        W61205  27.756  29.726  16.631 -0.0959  0.1889  0.4378
18190W        W61206  23.939  31.965  21.770  0.3849  0.2010 -0.2650
18191W        W61207  24.717  32.536  21.123  0.0190  0.0688  0.0790
18192W        W61208   5.776   7.132   3.371 -0.2355 -0.1143 -0.0708
18193W        W61209  10.803  25.234  14.084  0.1076  0.0341 -0.1169
18194W        W61210  24.061   8.014   0.901 -0.2757  0.0561 -0.1280
18195W        W61211  33.777  19.790  18.726 -0.0346 -0.1125 -0.0445
18196W        W61212  11.831  19.929  20.500  0.0588  0.2198 -0.1488
18197W        W61213  30.895  31.075   6.347  0.2328  0.1577 -0.1623
18198W        W61214  17.032  12.807  19.360  0.1729  0.1347 -0.3328
18199W        W61215   0.439  29.414   1.476  0.3119  0.2677  0.0737
18200W        W61216  22.842  22.822  27.648  0.0669 -0.2321  0.1594
18201W        W61217  18.221  31.251  18.570  0.0497 -0.0601  0.0270
18202W        W61218  25.200   7.154  19.056  0.1090 -0.2266 -0.1515
18203W        W61219   0.968  24.568   4.387  0.0125  0.1507 -0.0699
18204W        W61220  16.437  10.453   3.896  0.0610 -0.3759  0.0558
18205W        W61221  25.612  15.249  20.012  0.0186 -0.3803  0.0721
18206W        W61222   6.213  26.777  19.487  0.3193 -0.0456 -0.2110
18207W        W61223  17.239  24.223  20.681 -0.4397  0.0144  0.1530
18208W        W61224   8.599  26.045   4.865 -0.2299 -0.0799  0.4527
18209W        W61225  10.198  28.017  23.164  0.1815 -0.1610  0.1622
18210W        W61226  33.474  24.685  17.296  0.0879 -0.0947 -0.1454
18211W        W61227   7.139  30.758  29.066  0.0420 -0.2305  0.2995
18212W        W61228   2.678  23.210   2.573 -0.1398  0.1784  0.0648
18213W        W61229  31.936   7.936  15.951 -0.1641  0.1052  0.0217
18214W        W61230   3.457  21.755   6.640  0.1652 -0.0815  0.2129
18215W        W61231  26.833  33.924  29.230  0.2256 -0.0828  0.1245
18216W        W61232   5.835  31.711  15.832 -0.1097  0.2298  0.2417
18217W        W61233   1.514  21.119  27.893  0.0924 -0.1069  0.0431
18218W        W61234  34.013  10.643  18.847 -0.1671 -0.1055 -0.0416
18219W        W61235   5.830  18.304  15.436 -0.0168 -0.1092 -0.0993
18220W        W61236   0.799  28.134  19.524 -0.0657 -0.2523 -0.0633
18221W        W61237   0.163  26.494  16.061  0.0802  0.0015  0.2739
18222W        W61238  12.209  29.744  17.828 -0.2315  0.0042 -0.0623
18223W        W61239  16.432  26.440  27.210  0.2346  0.2374  0.1200
18224W        W61240   5.059  19.174  13.755  0.0071  0.0823  0.5382
18225W        W61241   6.007  22.298  21.422 -0.1052 -0.1333  0.0735
18226W        W61242   3.578  26.467  28.791  0.2858 -0.0362  0.0897
18227W        W61243   9.651  19.382  24.807 -0.2317  0.2198 -0.2760
18228W        W61244   6.255  27.617  26.463  0.0029 -0.1942  0.1657
18229W        W61245  28.241   9.333  24.585 -0.0682  0.1730  0.2000
18230W        W61246  31.622  26.220   5.182 -0.0042 -0.4081 -0.1233
18231W        W61247  30.795   7.718   0.078  0.1475 -0.0620  0.0844
18232W        W61248  12.726   8.184  20.569  0.0286 -0.3880 -0.1019
18233W        W61249   5.762   1.285  17.727  0.2211 -0.1256  0.4498
18234W        W61250  10.333  26.297  16.167  0.2956 -0.0750 -0.1128
18235W        W61251  27.391   1.951  24.073  0.0984 -0.0613  0.0540
18236W        W61252   0.939  33.677  16.668  0.1076 -0.1722  0.2778
18237W        W61253  21.253  32.782  24.571 -0.2346 -0.1572  0.1415
18238W        W61254  10.475  22.225  15.405  0.1595 -0.0102  0.1302
18239W        W61255  25.904  31.111   5.386 -0.2310  0.0986 -0.3729
18240W        W61256  24.783  33.705   9.854  0.0881  0.0589 -0.0112
18241W        W61257   1.095   9.164  24.198  0.0352 -0.4021  0.4339
18242W        W61258   0.846  33.175  24.007  0.0289  0.0635 -0.0793
18243W        W61259  29.622   6.734   7.999 -0.0860  0.1747  0.0043
18244W        W61260   4.640  32.912  24.496 -0.0400 -0.0496 -0.0461
18245W        W61261  28.459  21.176  23.155  0.0644 -0.2158  0.4227
18246W        W61262  34.566  16.496  21.764 -0.1198 -0.3031 -0.1783
18247W        W61263  19.360  28.254  27.524 -0.1976  0.2501 -0.2326
18248W        W61264  16.917  31.999   4.640 -0.2388  0.2440 -0.2890
18249W        W61265  33.293   1.267   6.639 -0.2839 -0.2111 -0.0103
18250W        W61266  34.237  29.141  26.936  0.1514  0.3240 -0.4078
18251W        W61267  34.148  24.014  17.423  0.0853  0.0626 -0.1560
18252W        W61268  24.600   7.485  25.743 -0.1085 -0.0675 -0.2544
18253W        W61269  32.279  27.564  27.519  0.4242  0.0120  0.1137
18254W        W61270  16.146  33.479   3.004  0.2688 -0.1898 -0.2335
18255W        W61271  11.411  20.884  22.483  0.2194 -0.3377  0.1126
18256W        W61272  18.140   3.749  26.644  0.2566 -0.0310 -0.3069
18257W        W61273   9.044  11.625   6.497 -0.1317 -0.1250 -0.0039
18258W        W61274  27.981  19.127  27.560  0.1087  0.0305  0.0036
18259W        W61275   9.870  11.914  14.776  0.2625 -0.1098 -0.1044
18260W        W61276  34.768   2.446   9.334 -0.0062  0.0039 -0.3153
18261W        W61277  28.452  10.198  23.779 -0.2474  0.0271  0.2986
18262W        W61278  18.279  32.812  16.535  0.0284  0.0981 -0.3297
18263W        W61279   3.624   3.465  25.803 -0.0641  0.0219  0.3603
18264W        W61280   2.131  24.937  24.001 -0.1393 -0.1073 -0.2499
18265W        W61281  10.511  21.988  27.951  0.4108  0.1759 -0.1169
18266W        W61282   8.403  14.220  25.985  0.0728 -0.1225  0.0832
18267W        W61283  31.218  27.842   3.925  0.5000 -0.1248 -0.4485
18268W        W61284  31.486  26.918  20.312 -0.0614  0.0373  0.1315
18269W        W61285  25.225  26.652  16.800 -0.1965  0.1405  0.1886
18270W        W61286  10.534  30.041  17.989 -0.1385  0.0124  0.0319
18271W        W61287  32.580  22.932  21.805  0.1391 -0.0413  0.0682
18272W        W61288   8.462  31.831   4.586 -0.2558  0.1236  0.3728
18273W        W61289  21.004   3.081   7.863 -0.2191  0.0616 -0.0424
18274W        W61290   1.526   2.760  24.702  0.2296  0.1219  0.1385
18275W        W61291   5.966  22.543  14.020 -0.3169  0.4003  0.1211
18276W        W61292   5.931  20.773  21.845 -0.5143 -0.0742 -0.2945
18277W        W61293   6.711   7.049  15.998 -0.1457  0.1421  0.1298
18278W        W61294  29.473  13.742   7.566  0.2673 -0.2908  0.1385
18279W        W61295   9.539  23.221  29.221  0.3637  0.1243  0.2620
18280W        W61296  22.632   3.955  22.926 -0.2528 -0.3652 -0.1090
18281W        W61297   2.587  24.612  20.292 -0.2844 -0.2380  0.2906
18282W        W61298  23.940  27.884  28.537 -0.0498  0.1043  0.4323
18283W        W61299  34.671  29.323  10.450  0.2387 -0.0152  0.0013
18284W        W61300  17.682  30.563   3.262 -0.0221 -0.3529  0.0406
18285W        W61301   3.754  27.639  22.186 -0.1689  0.0127  0.3774
18286W        W61302  13.202   2.530  19.244 -0.3173  0.5884 -0.1749
18287W        W61303  29.074  33.554   9.012  0.2084 -0.0716 -0.1074
18288W        W61304  34.308  13.707  24.033  0.0440  0.3978 -0.0693
18289W        W61305   5.135  27.479   0.448  0.2547 -0.0366  0.2695
18290W        W61306   3.448  34.554   2.094 -0.1011  0.2298  0.0643
18291W        W61307  24.256  31.921  16.972  0.1081  0.0535 -0.1831
18292W        W61308   0.363   0.668   0.350 -0.0047 -0.1492 -0.3749
18293W        W61309  10.269   2.022   4.096  0.1459 -0.1429  0.5173
18294W        W61310  27.226   2.379  26.317 -0.1150  0.1138  0.0448
18295W        W61311  12.539   7.526  13.902 -0.2170  0.0672 -0.1713
18296W        W61312   5.975  30.561   1.314  0.2294 -0.2812  0.2916
18297W        W61313  26.534  25.670  21.899 -0.0284 -0.4040  0.1003
18298W        W61314  13.491   0.486  25.063 -0.0754  0.0143 -0.1152
18299W        W61315  34.674   0.984  18.651 -0.1614 -0.1031 -0.3571
18300W        W61316   1.363  19.898  15.356 -0.0139 -0.1762 -0.1530
18301W        W61317  26.195  25.161   0.209 -0.3687  0.0109  0.0441
18302W        W61318   7.197   0.065  26.686  0.0246 -0.1035  0.0497
18303W        W61319  22.591  22.605  28.294  0.1743  0.0891  0.3677
18304W        W61320  32.598   5.283  17.713  0.1896  0.0799 -0.1510
18305W        W61321  30.082  30.489  18.488  0.1594  0.0510  0.0706
18306W        W61322  27.991   3.149  20.348  0.4195 -0.1838 -0.2251
18307W        W61323  23.092  28.152  18.620 -0.1072  0.3377  0.0993
18308W        W61324  29.457  26.326   1.397 -0.0241  0.0636 -0.1745
18309W        W61325   2.605  13.619  26.009 -0.1521  0.0270  0.0749
18310W        W61326  26.914  15.094  24.543  0.2625 -0.1865  0.2541
18311W        W61327   6.787  21.201  13.633  0.1356  0.1820  0.3756
18312W        W61328  27.895  28.742   4.975  0.1515 -0.0368  0.1803
18313W        W61329  34.429   3.328  20.805  0.4756  0.2155  0.1210
18314W        W61330   6.125   1.418  28.138  0.1247  0.0549  0.1942
18315W        W61331   0.796   4.209   0.678  0.2788 -0.0087 -0.1811
18316W        W61332   0.821  17.119  27.822 -0.0815 -0.2325  0.1822
18317W        W61333  32.333  33.035  10.070 -0.0916  0.0293  0.0721
18318W        W61334  30.600   3.184  19.719  0.2656 -0.1207  0.0727
18319W        W61335  28.842  24.934  26.813  0.2407  0.1829  0.1256
18320W        W61336  26.782  16.545  27.284 -0.1699  0.1701  0.3124
18321W        W61337   8.440   5.963  17.888 -0.4237  0.2856  0.1752
18322W        W61338  11.113  25.007  17.509  0.0943  0.0049  0.0490
18323W        W61339  10.780  27.799  16.599 -0.1412 -0.1051  0.0774
18324W        W61340  26.981  21.466  20.734 -0.3903  0.1677  0.1312
18325W        W61341  30.568  26.520  26.493  0.0986 -0.1675  0.1816
18326W        W61342   4.928  26.073  20.414 -0.2753 -0.0301 -0.0168
18327W        W61343  11.095  25.236  21.175  0.0127 -0.1632 -0.0703
18328W        W61344  16.307   7.631  22.346  0.2508  0.1404 -0.2208
18329W        W61345  28.780  24.349  28.549 -0.3220  0.0328 -0.2019
18330W        W61346  23.335   6.560  23.026 -0.0038  0.0361 -0.0100
18331W        W61347   1.118  20.256  19.879  0.2338  0.3489  0.0352
18332W        W61348  31.214  20.189  18.040 -0.0723 -0.2320 -0.1552
18333W        W61349   1.300   2.581  19.795 -0.2619  0.0693  0.0593
18334W        W61350  29.341  19.345  18.606 -0.2745 -0.1072  0.1616
18335W        W61351   0.517   3.090   4.557 -0.1146 -0.2923 -0.2452
18336W        W61352  18.027  18.043  26.766  0.0627 -0.0195 -0.1650
18337W        W61353  27.463  30.821   0.104  0.0129  0.3504  0.2103
18338W        W61354  22.629  33.237  19.301 -0.0735 -0.2331 -0.0645
18339W        W61355  12.063  34.524   1.475 -0.1220  0.0409 -0.0106
18340W        W61356  27.182  33.293   4.657 -0.1195  0.2221 -0.1207
18341W        W61357   7.151   2.201  18.534  0.0057 -0.3688 -0.2773
18342W        W61358  27.072   8.550   4.987 -0.2631 -0.0087 -0.2669
18343W        W61359  33.554  14.859  10.862  0.1746  0.0595 -0.1373
18344W        W61360   3.859   5.334  20.919  0.0917  0.0191  0.0128
18345W        W61361  34.057   9.361  16.738  0.2376 -0.0868  0.3054
18346W        W61362  25.379  27.292  23.017  0.2520  0.2903  0.0207
18347W        W61363  14.873  32.256  29.175  0.0495 -0.1962  0.4035
18348W        W61364  14.883  25.551   0.192  0.0478 -0.0174 -0.3075
18349W        W61365  31.748  26.703  21.602  0.0421 -0.0357 -0.2323
18350W        W61366   1.037  16.170   2.747  0.1045 -0.0635  0.1309
18351W        W61367  29.258  32.739   9.720 -0.2323 -0.0966  0.0436
18352W        W61368  21.925  14.102  16.464 -0.0791  0.0103 -0.0866
18353W        W61369  26.121   1.620   4.863  0.0185 -0.2148 -0.0452
18354W        W61370  32.011  27.866  20.110 -0.2037 -0.0173 -0.1470
18355W        W61371  29.919  29.361   2.637 -0.0980 -0.3705  0.1109
18356W        W61372  25.248  26.640  25.259 -0.1678  0.1583 -0.1369
18357W        W61373  26.626  26.571  21.148  0.2269 -0.5385  0.3756
18358W        W61374  22.801  17.061  25.821  0.1265 -0.0338 -0.2273
18359W        W61375  12.937  24.347  19.802  0.0324  0.4079 -0.0658
18360W        W61376   0.179   7.540  15.017 -0.0327  0.1367  0.3181
18361W        W61377   7.373  27.060  20.702 -0.0970  0.0890 -0.2087
18362W        W61378  11.276  29.803   4.611  0.0075 -0.2154 -0.1661
18363W        W61379  32.199  30.379  15.568 -0.2482  0.0980  0.2601
18364W        W61380  32.784  20.023   5.625  0.2575 -0.1998  0.0189
18365W        W61381  20.286   4.283  25.403 -0.1803  0.4744 -0.0516
18366W        W61382  33.709  13.245  22.630  0.3456 -0.1566  0.2733
18367W        W61383   9.874  29.128  14.852 -0.0127 -0.0326 -0.1238
18368W        W61384   7.041   8.384  16.900 -0.3264 -0.1777 -0.0535
18369W        W61385  30.972   4.391  28.507 -0.1273  0.0953  0.0813
18370W        W61386  21.303  21.101   2.561 -0.0334 -0.3269  0.0113
18371W        W61387  25.537   2.399  20.240 -0.2830  0.3417  0.1777
18372W        W61388   3.074  11.046  19.952 -0.1664  0.0165 -0.0112
18373W        W61389  27.435   4.812   1.821 -0.1025  0.0381  0.0810
18374W        W61390   1.134  17.337  22.765  0.2823  0.2425  0.0524
18375W        W61391   3.833  21.963  14.053 -0.0092 -0.0315 -0.2443
18376W        W61392  27.840  24.597  24.120 -0.0398  0.3438 -0.1252
18377W        W61393  33.887  25.895  15.641  0.3757 -0.0657 -0.3748
18378W        W61394   9.432  22.148  17.043  0.0800 -0.1391 -0.1845
18379W        W61395   1.443   1.128   2.431  0.3233 -0.0942  0.0592
18380W        W61396   0.142  20.853   3.563 -0.0604 -0.0552 -0.2428
18381W        W61397  27.693  21.799  15.767 -0.0780 -0.3133 -0.0442
18382W        W61398  21.943  30.510  20.111  0.1396  0.2602 -0.3465
18383W        W61399   6.143   6.265   6.334 -0.0985  0.1931 -0.2153
18384W        W61400  10.826   8.642  21.749 -0.1531 -0.3767 -0.3360
18385W        W61401  11.539   4.488  17.697 -0.2717  0.0030  0.4306
18386W        W61402  26.950  33.600  16.838  0.0964  0.3073 -0.0275
18387W        W61403  28.357  24.222  20.463  0.2856 -0.1400 -0.0492
18388W        W61404  26.219  26.650   9.492  0.1383 -0.0492  0.1277
18389W        W61405  12.924  28.099  25.455 -0.2168 -0.2477  0.1571
18390W        W61406  27.857   7.200  21.595  0.0885 -0.1698  0.1556
18391W        W61407  32.478  20.070  24.289  0.3642 -0.2364 -0.0768
18392W        W61408  28.672  27.257  16.350  0.3866  0.1500 -0.2105
18393W        W61409   2.013   8.488  26.211  0.0191  0.1596  0.0266
18394W        W61410  29.623  32.641   2.243  0.2305 -0.1838 -0.0767
18395W        W61411  18.283  18.983  13.729 -0.0061  0.0141  0.0675
18396W        W61412  19.301   4.881  21.082  0.3770  0.0866 -0.2199
18397W        W61413  32.603  29.563  23.915  0.0692 -0.2711  0.0090
18398W        W61414   3.012  17.817  15.227 -0.1614  0.1382  0.2233
18399W        W61415  13.951  18.969  21.231 -0.2815 -0.1916 -0.2769
18400W        W61416  21.741   5.395   8.083 -0.0912 -0.1084 -0.0209
18401W        W61417  23.759  14.679  14.382 -0.2116  0.0625 -0.3336
18402W        W61418   9.371   8.372   7.305  0.0174  0.1128 -0.0570
18403W        W61419   8.316  15.912  26.877 -0.1177  0.0284 -0.0905
18404W        W61420   6.892  26.336  20.048  0.0548 -0.6465  0.0304
18405W        W61421  10.644  29.950  15.148 -0.0998  0.1945 -0.0912
18406W        W61422  23.715  31.192  25.436 -0.0777  0.0982  0.0431
18407W        W61423  33.959  31.405  23.678  0.1678 -0.1103 -0.3166
18408W        W61424  33.527  18.891  28.166 -0.0597  0.1455  0.0218
18409W        W61425  25.665  14.973  14.350 -0.1751 -0.0719  0.0756
18410W        W61426   7.785   2.652   6.634 -0.1168  0.2285 -0.3217
18411W        W61427   7.333   6.785  22.698  0.0913  0.1297 -0.1319
18412W        W61428  31.945  20.588   2.941 -0.3280  0.1435  0.0834
18413W        W61429   0.397   8.805  17.508 -0.1322 -0.2563 -0.2500
18414W        W61430   4.268  28.992  15.687 -0.0132 -0.1884  0.2002
18415W        W61431   9.117  28.586  16.346 -0.1871  0.0086 -0.1547
18416W        W61432   9.465  12.987  13.074 -0.1645  0.2657 -0.2670
18417W        W61433  10.407  23.284  16.951  0.0177 -0.1575 -0.1543
18418W        W61434   0.525  25.279  18.818  0.1877  0.2511 -0.1812
18419W        W61435   3.569  15.601  19.785  0.0399 -0.2590 -0.2387
18420W        W61436   5.388   3.075   4.209  0.1629  0.0407  0.1363
18421W        W61437   7.102  28.338  20.891 -0.1429  0.0196 -0.0146
18422W        W61438  31.169   6.010  24.753 -0.1554  0.0508  0.0383
18423W        W61439  14.467   4.855   4.975  0.0579 -0.1154  0.1619
18424W        W61440   2.113  28.505  23.248 -0.3850  0.0757 -0.0825
18425W        W61441   3.683   0.369  27.108  0.2560 -0.2418 -0.0545
18426W        W61442   5.447   0.962  17.395 -0.1590 -0.0706 -0.0237
18427W        W61443  33.507   3.537   5.972  0.0563  0.1844 -0.1648
18428W        W61444   3.741   7.230  16.886 -0.0136  0.0505 -0.0041
18429W        W61445   0.514  23.740  20.984 -0.0263 -0.0387 -0.0257
18430W        W61446  29.867  25.474  23.828  0.0237  0.2345  0.0131
18431W        W61447  32.405  17.575  21.906 -0.2411  0.2627  0.1143
18432W        W61448   1.278  31.910  23.528  0.0117  0.0074  0.2911
18433W        W61449  14.472  23.152  20.371  0.0959  0.0023  0.2919
18434W        W61450  21.343  29.083  19.135 -0.0286  0.1321  0.0252
18435W        W61451   1.934  32.564  21.194  0.0956  0.1464 -0.0463
18436W        W61452  34.583  13.942  19.787  0.1292  0.4486 -0.0107
18437W        W61453   0.365  27.800  28.161  0.0987 -0.3978 -0.3981
18438W        W61454  30.735  30.867  20.526  0.0136  0.1974  0.0662
18439W        W61455  29.002   5.336  18.555  0.3295  0.0099 -0.0480
18440W        W61456   0.453   0.313  16.396 -0.2009  0.2120  0.1012
18441W        W61457  10.378  31.297   7.676  0.3701 -0.3002  0.2955
18442W        W61458   6.250  22.064   2.704  0.3537 -0.1017 -0.1871
18443W        W61459  20.695   9.629   0.060  0.1747  0.3677  0.0991
18444W        W61460  10.046  33.674  21.875  0.3634  0.3158  0.0514
18445W        W61461   3.344  33.703  15.729  0.0211  0.0057  0.0469
18446W        W61462   5.875  20.523  25.671  0.0265 -0.1029 -0.1469
18447W        W61463   2.744  22.505  26.797  0.1443 -0.2412 -0.3573
18448W        W61464   1.672  22.442  15.381  0.1414  0.2007  0.0429
18449W        W61465  30.847  29.754  26.704 -0.1643 -0.2205 -0.0431
18450W        W61466  32.464  12.965  28.092 -0.0319 -0.2118 -0.0014
18451W        W61467  11.835  30.242   2.878 -0.3423 -0.1617  0.3673
18452W        W61468  16.319  14.922   3.403  0.0759 -0.2756 -0.2366
18453W        W61469   5.048   8.116  28.315  0.2503  0.2057  0.1545
18454W        W61470   7.141   0.799  29.013  0.1697  0.3202 -0.0567
18455W        W61471   4.105   3.518   3.313  0.1965  0.2673  0.0956
18456W        W61472  32.143  11.828  18.066 -0.0516 -0.1609 -0.2072
18457W        W61473   2.432  25.512  27.271 -0.0286 -0.0981  0.2344
18458W        W61474   2.028  32.657   5.454 -0.0226 -0.1008 -0.2281
18459W        W61475  21.649   0.416  26.143 -0.3285 -0.1964 -0.1994
18460W        W61476  25.912  18.688   6.217 -0.1194  0.2759  0.1551
18461W        W61477  28.844  15.342  23.890 -0.1634 -0.1299 -0.0288
18462W        W61478   0.481  15.696   3.778  0.0264  0.3375  0.1422
18463W        W61479   4.717  28.874  18.507 -0.2084  0.0882  0.0865
18464W        W61480  15.070  31.069  15.932 -0.0375  0.3066 -0.0441
18465W        W61481   5.424  29.744  14.742  0.2493 -0.2034 -0.2038
18466W        W61482  29.348  15.261  17.856 -0.0302  0.2261  0.2303
18467W        W61483  32.962  34.621   8.549 -0.1511  0.1842 -0.2992
18468W        W61484  21.199   4.982   2.625  0.0876  0.0791 -0.3394
18469W        W61485  27.024   4.829  24.239 -0.2448  0.1841  0.1129
18470W        W61486   0.224  20.074  23.199 -0.0727  0.2846 -0.0179
18471W        W61487   5.343  12.922  20.862 -0.1188 -0.0899 -0.2506
18472W        W61488  30.025  31.579  20.716  0.0887 -0.2142  0.2967
18473W        W61489  33.296  12.063   6.244  0.0637  0.0319 -0.0384
18474W        W61490  30.775  31.696  26.163  0.0237 -0.3592  0.2745
18475W        W61491   2.086  29.865   1.852  0.3290 -0.1595 -0.1686
18476W        W61492   7.481  18.564   2.351  0.1269  0.0389  0.1226
18477W        W61493   3.992  29.866  20.141  0.5148  0.2750  0.1616
18478W        W61494  30.933  30.982  23.174 -0.2425  0.0998  0.1327
18479W        W61495  33.702  25.464  27.592 -0.0670  0.1132  0.3464
18480W        W61496  29.712   6.818  28.611 -0.1268  0.2669 -0.0400
18481W        W61497  30.520  27.813  27.861 -0.0408  0.2178 -0.0064
18482W        W61498  29.983  34.258  18.837  0.0729  0.0120  0.1584
18483W        W61499  18.490  31.157   7.757 -0.1504  0.2454 -0.1254
18484W        W61500  34.067  24.884   9.559  0.0049 -0.2828  0.0504
18485W        W61501   3.718  27.987  26.150 -0.0922  0.0325 -0.3481
18486W        W61502   5.376  18.727  27.677 -0.0539  0.2165 -0.0428
18487W        W61503   1.764   9.607  27.491 -0.0031 -0.0081  0.1841
18488W        W61504  20.735  17.972  28.057 -0.1373 -0.2127 -0.5732
18489W        W61505  30.660   2.114  20.482 -0.1827  0.2757 -0.0393
18490W        W61506  29.446  29.506   5.708  0.0402 -0.0202 -0.0273
18491W        W61507  26.834  23.339   2.207 -0.0962  0.0738  0.0132
18492W        W61508  29.235  31.221   8.312 -0.3376  0.5067  0.0008
18493W        W61509   1.497   1.948  27.466 -0.0731 -0.0688 -0.1701
18494W        W61510   7.145  31.743  14.299  0.1032  0.3381  0.0566
18495W        W61511   0.840   7.094  24.771  0.3894  0.1315 -0.0600
18496W        W61512  10.381  19.334  15.129 -0.1301 -0.1626 -0.1495
18497W        W61513   5.981  15.160  21.960  0.2289  0.0035  0.0503
18498W        W61514  20.686  26.325  25.185 -0.2097  0.3416 -0.2022
18499W        W61515  10.290  20.034  19.926  0.0405  0.0078  0.0670
18500W        W61516  31.712  22.744   8.162 -0.0696 -0.0557 -0.1990
18501W        W61517  33.299   2.016   0.331 -0.1161  0.0042 -0.3326
18502W        W61518  26.109  18.346   7.147 -0.1964  0.3164 -0.2438
18503W        W61519   5.616  22.960  22.458 -0.1102  0.2476 -0.2016
18504W        W61520  20.681  16.512  28.565 -0.4396  0.2373 -0.0684
18505W        W61521  14.447  29.658   8.078  0.0057  0.2009  0.1614
18506W        W61522  29.978   6.814  22.553 -0.0618 -0.1259  0.2236
18507W        W61523   1.323   6.520  19.402 -0.2746  0.0911  0.0723
18508W        W61524  10.096  32.358  27.770  0.1438 -0.1042 -0.2990
18509W        W61525  11.027  24.350  23.580 -0.0029  0.0005  0.0098
18510W        W61526   1.586  26.822  22.132 -0.2384  0.0064  0.4041
18511W        W61527  10.836  33.458   8.608  0.2427  0.0484  0.2527
18512W        W61528   5.114  27.124  20.930  0.1141 -0.0077 -0.1208
18513W        W61529   6.402  21.542  25.971  0.1228 -0.1878  0.0242
18514W        W61530  31.791   2.031  19.319  0.0194 -0.0444 -0.1103
18515W        W61531   4.808  22.136  28.205 -0.0565 -0.0165  0.5005
18516W        W61532  31.834   1.278   6.645 -0.2863  0.3786  0.4131
18517W        W61533   2.885  24.471   1.864 -0.1507 -0.0199 -0.0482
18518W        W61534  32.293  20.798  16.213 -0.1013 -0.0671 -0.0568
18519W        W61535  23.338  17.905  23.282 -0.1911  0.1094 -0.0279
18520W        W61536  31.873  11.927  26.124 -0.1605 -0.1099 -0.0500
18521W        W61537  31.110   4.578  22.116 -0.1247  0.0285  0.3885
18522W        W61538   4.666  29.863   9.393 -0.1003 -0.0663 -0.1918
18523W        W61539   1.736  18.848  19.165 -0.3491 -0.1137 -0.3212
18524W        W61540   0.885  34.523  10.408 -0.1397  0.2075 -0.1350
18525W        W61541   2.876  28.196  15.748  0.0890  0.3010  0.0656
18526W        W61542  21.828  18.151  25.038  0.3119  0.1166 -0.0132
18527W        W61543   7.812  26.407  21.866  0.0987  0.0523 -0.0554
18528W        W61544   4.412   5.864   3.589  0.1863 -0.2479  0.2459
18529W        W61545  33.562   3.665  19.458  0.1373  0.3405  0.0803
18530W        W61546  28.882  14.819  24.116  0.1706 -0.2291  0.0357
18531W        W61547   4.314  22.477   0.782 -0.0620  0.0819 -0.2205
18532W        W61548  34.013   1.618   2.312 -0.1335  0.1525  0.1209
18533W        W61549   8.691   6.048  27.182  0.1399 -0.0159  0.0793
18534W        W61550   9.863  14.986  19.025  0.0453 -0.3366 -0.1164
18535W        W61551  25.631   9.450  16.299 -0.0854  0.3130 -0.2379
18536W        W61552  16.844   2.000   4.648 -0.0617 -0.0019 -0.2026
18537W        W61553  21.178   4.696   5.295  0.2338 -0.1144  0.0915
18538W        W61554  27.920   2.556   7.668 -0.4199  0.3186  0.0287
18539W        W61555  33.588   6.202  18.987 -0.0877  0.0239  0.0268
18540W        W61556   4.511  32.963   3.654  0.1713  0.0028  0.2787
18541W        W61557   8.783  20.517  21.626  0.3647 -0.3231 -0.1797
18542W        W61558  28.405  24.809   7.494 -0.1356  0.1455 -0.0044
18543W        W61559  31.650  32.638   1.920 -0.1040  0.1756  0.3009
18544W        W61560  10.521  22.723  16.441 -0.1135 -0.0956 -0.2151
18545W        W61561   0.308  28.121  24.801  0.0008  0.0734 -0.1682
18546W        W61562  32.656  31.452  16.323 -0.0616 -0.1294 -0.4363
18547W        W61563  27.133  14.350  27.783  0.0322 -0.0879  0.0909
18548W        W61564   7.393  17.147  24.486  0.0306 -0.0561 -0.0050
18549W        W61565  28.057  24.246  21.072  0.0355 -0.1208 -0.2385
18550W        W61566  28.594  27.829   6.793  0.1245  0.1623 -0.0757
18551W        W61567  33.652  15.603  22.185  0.0417 -0.4839  0.1878
18552W        W61568   0.354  26.503   6.356  0.1073  0.1148 -0.0357
18553W        W61569  28.048   0.017  28.628 -0.0461 -0.0855 -0.1882
18554W        W61570  34.189  29.836   9.700  0.0441 -0.3769  0.0673
18555W        W61571   5.445  29.238  21.529 -0.0031  0.2817  0.0319
18556W        W61572  28.839   0.934   9.828  0.1822  0.1774 -0.0606
18557W        W61573   1.023   3.753   7.044  0.0305 -0.1391  0.0930
18558W        W61574   9.411  14.647   6.789 -0.1838  0.0654  0.0389
18559W        W61575  14.583  26.543   0.427 -0.1960 -0.1683  0.0494
18560W        W61576  25.283   2.585   3.682  0.2780  0.0352  0.2787
18561W        W61577  17.575  33.970  26.001 -0.1443 -0.1328  0.1556
18562W        W61578   7.028   2.628  27.873  0.1567 -0.1030 -0.1020
18563W        W61579  15.588   3.056   6.022 -0.0105  0.2218 -0.0841
18564W        W61580  12.649  26.275   2.366  0.1997 -0.0683  0.0162
18565W        W61581  28.676  34.586  24.555  0.1780 -0.0580  0.0211
18566W        W61582   2.929   1.337   9.857  0.4168 -0.0577  0.0369
18567W        W61583   4.762  32.887   1.606  0.1805 -0.1209 -0.2355
18568W        W61584   6.235  23.771  18.072 -0.1005  0.0594 -0.1613
18569W        W61585   9.336  29.744  18.892  0.0663 -0.1967  0.0561
18570W        W61586  28.788  29.105   7.676  0.1146 -0.1641  0.3011
18571W        W61587   5.488   7.067   0.672 -0.0678 -0.1247 -0.0551
18572W        W61588   9.830   8.192  27.226  0.2341  0.0164 -0.1367
18573W        W61589   3.491  34.032   8.362  0.0653  0.2735 -0.1668
18574W        W61590   4.853  30.096  17.208 -0.0417 -0.1147  0.1743
18575W        W61591   0.454  33.963   1.109 -0.0333  0.0310  0.1339
18576W        W61592  14.784  32.537   7.133  0.0866 -0.1811  0.1338
18577W        W61593   5.990  12.314  19.416 -0.1965 -0.1305  0.2973
18578W        W61594  33.699  13.188  25.257  0.1576 -0.1429 -0.0091
18579W        W61595  33.976  33.820  19.358  0.2462 -0.0767  0.1333
18580W        W61596  12.570  10.185  16.969  0.0888 -0.1260  0.0708
18581W        W61597   8.671  30.399   6.401  0.2955  0.2031  0.2861
18582W        W61598   0.689  28.759  22.998 -0.0170  0.1594  0.1153
18583W        W61599  11.654   3.054  19.131  0.0628 -0.0025  0.2104
18584W        W61600   8.108  22.791  15.567  0.2238  0.0935  0.0258
18585W        W61601  13.711  24.751  17.916 -0.2635 -0.0235  0.0885
18586W        W61602   9.779  23.111   0.820 -0.0122  0.2921  0.1993
18587W        W61603  21.517  25.162  17.501 -0.1638 -0.2013  0.0592
18588W        W61604   1.012  31.313  17.463  0.2230 -0.0804  0.0996
18589W        W61605  14.609  22.491  26.384  0.1209  0.1475 -0.2348
18590W        W61606   6.099   1.342   9.977 -0.1584  0.1695 -0.1332
18591W        W61607  33.108  33.157  19.490  0.0602 -0.0677  0.3909
18592W        W61608   2.227  25.522   7.195  0.1727  0.0076  0.2083
18593W        W61609  29.659   4.559  21.400  0.1751 -0.2073 -0.1439
18594W        W61610  20.455   9.138  19.843  0.1582 -0.0554  0.0615
18595W        W61611   8.385   0.345   3.339 -0.2900  0.0975 -0.3722
18596W        W61612  29.807  26.516   2.957  0.0881  0.2323  0.1183
18597W        W61613  33.741   0.076  28.814 -0.1176  0.1928  0.0420
18598W        W61614   2.832  19.064  14.146 -0.1600  0.2413  0.1129
18599W        W61615  28.598  21.876  15.999  0.0284 -0.0846 -0.1689
18600W        W61616   5.340  24.501   2.245 -0.1611 -0.3167  0.2360
18601W        W61617  29.102   4.009  18.223 -0.1212 -0.0249 -0.3191
18602W        W61618   4.745  25.556   1.180  0.0769  0.1123  0.1914
18603W        W61619   7.597  30.890  18.366 -0.0951 -0.1156  0.1831
18604W        W61620   2.572  32.820  21.964 -0.2132  0.1078 -0.1119
18605W        W61621  30.287  29.005  27.534 -0.3964  0.2951 -0.1899
18606W        W61622  34.770   0.480  24.609 -0.2109  0.1051 -0.2199
18607W        W61623  16.680  27.128  15.638  0.0392 -0.0035 -0.0617
18608W        W61624   2.298   1.407   8.428 -0.0200 -0.0228  0.0789
18609W        W61625  12.618  17.560  23.436 -0.2832 -0.0086 -0.0448
18610W        W61626   1.392   8.243  28.471  0.1540  0.3189  0.0376
18611W        W61627   9.478  26.074  26.530  0.4583  0.0823 -0.0186
18612W        W61628  10.355   2.536  20.032 -0.2884 -0.0904  0.0042
18613W        W61629  19.234  21.866   1.207  0.0772 -0.2153 -0.2355
18614W        W61630  23.095  34.453   9.744 -0.4048 -0.0784 -0.2324
18615W        W61631  34.305  30.838  24.902  0.0309  0.1879 -0.0426
18616W        W61632   9.456  31.990   3.556 -0.2037  0.0909  0.1316
18617W        W61633  32.019  32.923   8.234  0.2757  0.1946  0.2040
18618W        W61634  13.985  31.297   1.162  0.2822  0.0204 -0.0650
18619W        W61635  33.384  29.566   2.652 -0.0527 -0.3000 -0.1486
18620W        W61636  34.602  32.814  18.812 -0.0260  0.2024 -0.1275
18621W        W61637  20.554  21.190  15.596 -0.6702  0.2097  0.1293
18622W        W61638  26.112  24.238  15.289 -0.0235 -0.2343 -0.3011
18623W        W61639   0.338   0.586  19.779  0.0648  0.0270 -0.2745
18624W        W61640   2.554   2.956   0.563 -0.0712 -0.0780  0.1345
18625W        W61641  29.308   3.555  24.635  0.0959 -0.2310  0.2534
18626W        W61642  21.171  27.438  20.070  0.0227  0.0847  0.0822
18627W        W61643  25.522   4.865   1.083  0.1295 -0.0150 -0.2794
18628W        W61644  18.803  20.610  15.452  0.1992 -0.1462 -0.1530
18629W        W61645  32.463  33.112   6.669 -0.1710  0.1622 -0.0557
18630W        W61646  28.447  16.352  17.565 -0.2018  0.0287 -0.0337
18631W        W61647   2.669  22.125   8.226 -0.1016  0.0446  0.0763
18632W        W61648  34.125  13.637  22.480 -0.0110  0.3333  0.0425
18633W        W61649  11.331  33.781  26.335 -0.1804  0.1605 -0.3963
18634W        W61650  15.021  26.805  16.733  0.2946  0.2478  0.3400
18635W        W61651   0.880   1.059  16.429 -0.0584 -0.1533  0.3008
18636W        W61652  27.407   8.662  25.008 -0.0663  0.2201 -0.1240
18637W        W61653  30.730   1.637  21.032  0.2759 -0.1750 -0.0109
18638W        W61654   3.708  24.409  17.833  0.0917 -0.1174  0.0551
18639W        W61655  29.340  32.519  11.918  0.2365 -0.1104  0.1693
18640W        W61656  24.037   5.104   8.448 -0.1930  0.2220  0.1919
18641W        W61657   6.290  30.803  14.843  0.1343  0.0124 -0.0437
18642W        W61658  25.933  25.701  20.254  0.1520 -0.1406  0.0379
18643W        W61659   1.095   8.609  24.878  0.2506  0.1669  0.1482
18644W        W61660   4.358  21.215  25.147  0.2081  0.2245  0.1293
18645W        W61661  30.493  34.759  28.564  0.1397 -0.0533 -0.0862
18646W        W61662  18.893  17.716  11.695 -0.2633  0.1196 -0.2919
18647W        W61663  29.590  31.173   1.428  0.2090 -0.1297 -0.1003
18648W        W61664  25.147  15.945   5.713  0.3303  0.1246  0.0965
18649W        W61665  11.967  22.846  23.488  0.0293  0.0080  0.1563
18650W        W61666  25.672   7.946  27.512  0.0374  0.0420  0.2175
18651W        W61667  31.964   4.608  25.130 -0.0629 -0.1432 -0.1507
18652W        W61668   2.313   9.036   5.422 -0.1503 -0.2414  0.1088
18653W        W61669   4.599   9.911  27.388  0.0789 -0.0450 -0.0869
18654W        W61670  28.329   0.910   8.582 -0.1382  0.1882 -0.0874
18655W        W61671  25.788   2.859  22.499 -0.3541 -0.2438 -0.2213
18656W        W61672   4.408  13.396   9.477  0.3020  0.0082 -0.1426
18657W        W61673   5.481   2.785  22.187 -0.1646 -0.3365  0.1908
18658W        W61674   6.923  32.295  14.960  0.0907  0.0804 -0.1445
18659W        W61675   7.680  33.731   7.222 -0.1478  0.2332  0.0096
18660W        W61676  32.700  16.960  14.481  0.1402 -0.0244  0.0047
18661W        W61677  24.415  29.132   6.119 -0.0298  0.2388  0.1846
18662W        W61678  19.782  18.734   3.935 -0.0776  0.2658  0.0777
18663W        W61679  32.978   1.208   0.080 -0.1321  0.1951 -0.3557
18664W        W61680   4.998  32.231  20.377 -0.3782 -0.0904 -0.1813
18665W        W61681  28.388  32.254   1.839  0.2737 -0.0991  0.3067
18666W        W61682  28.093  34.229   0.671  0.2030 -0.4683  0.0541
18667W        W61683   3.159   6.319  28.379 -0.2322  0.0333  0.0071
18668W        W61684   7.228  23.938  27.566 -0.2245  0.1743  0.2912
18669W        W61685  11.800  23.861  17.297  0.0449  0.0406  0.1887
18670W        W61686   9.721   2.721  27.662  0.2821  0.0178  0.0605
18671W        W61687   0.068  32.428   9.580  0.3799  0.0779  0.1542
18672W        W61688   1.763   9.685  10.190 -0.1420  0.1926  0.1475
18673W        W61689  33.270  25.940   6.424 -0.0734  0.0028  0.1255
18674W        W61690   0.791  25.076   1.472  0.4194  0.0188  0.3399
18675W        W61691   1.980  15.208  22.827  0.2225  0.1060  0.2450
18676W        W61692  34.235  15.215  27.487 -0.2575  0.2711  0.1996
18677W        W61693  19.707  30.173   6.781 -0.1699 -0.0943 -0.3520
18678W        W61694  18.965  27.763  27.800  0.0444  0.0513  0.1363
18679W        W61695  16.811  18.460   6.955 -0.1895  0.0730 -0.0197
18680W        W61696  29.598   8.682  23.841  0.4596 -0.2824  0.0804
18681W        W61697  23.033  12.666  27.520  0.1381  0.0522 -0.3027
18682W        W61698   1.885  33.431  14.591 -0.0987 -0.0180  0.1577
18683W        W61699  34.122   7.306  18.603  0.0217 -0.0818  0.0264
18684W        W61700  23.756  25.494  28.344 -0.0071  0.0284  0.2996
18685W        W61701   5.375  25.812   6.814  0.0382 -0.1065 -0.1723
18686W        W61702   4.874  27.374  18.721 -0.1783  0.1493 -0.0561
18687W        W61703   3.861  29.628  16.378  0.0570 -0.1178  0.0181
18688W        W61704   4.288  33.973   9.927 -0.1413 -0.2832  0.0552
18689W        W61705   8.777  32.557  15.061  0.0375  0.1399  0.1783
18690W        W61706   9.173   8.590  20.159  0.2118 -0.4084 -0.4649
18691W        W61707  28.094  17.675   6.411 -0.0891  0.1084 -0.0751
18692W        W61708  16.117  28.705   3.747  0.1347  0.1114 -0.1263
18693W        W61709  33.758  23.611  29.067 -0.0586  0.0848  0.3211
18694W        W61710   1.437   2.913   1.336  0.0257 -0.2206  0.0759
18695W        W61711   6.588  25.396  18.876 -0.0143 -0.2481 -0.2663
18696W        W61712   7.575  22.575   6.934  0.1445  0.0372 -0.0497
18697W        W61713  28.536   6.402   8.482  0.0186 -0.1170  0.0234
18698W        W61714  12.927  21.384  20.835  0.0609  0.1683  0.3047
18699W        W61715  27.912  27.599   5.656 -0.2419 -0.1693  0.4034
18700W        W61716  32.171  34.419   3.020  0.2334  0.0222  0.2116
18701W        W61717   0.359   6.178  18.170 -0.1146 -0.3157 -0.2803
18702W        W61718  34.767  27.991  16.412 -0.2094 -0.0451  0.4014
18703W        W61719   3.706  18.125  28.406  0.1884 -0.0633  0.1667
18704W        W61720  22.431  24.974  24.809  0.2207 -0.0499 -0.2698
18705W        W61721  25.016  25.272   4.271  0.2109 -0.0346 -0.2409
18706W        W61722   8.305   7.470   4.181  0.2411 -0.0068 -0.4094
18707W        W61723  24.697   4.292   5.021  0.0656 -0.0566 -0.1228
18708W        W61724   4.062  31.355  28.808 -0.3779 -0.0685  0.1904
18709W        W61725  29.577  12.005  28.119 -0.2676  0.1399 -0.0313
18710W        W61726   0.679  32.446   0.768 -0.1020  0.5278  0.1077
18711W        W61727  25.360   7.881  20.620  0.1546  0.2748 -0.1610
18712W        W61728   5.415  26.320  19.825  0.1151 -0.1187 -0.1231
18713W        W61729   0.548  16.918  21.992 -0.0773 -0.1209  0.0476
18714W        W61730  28.982  25.673   2.396  0.3008 -0.0440 -0.3754
18715W        W61731   7.166  10.502  26.026  0.1524 -0.1181  0.1043
18716W        W61732   8.825  10.949  21.303  0.2543 -0.0420  0.0043
18717W        W61733  18.492  27.062  25.827  0.0632 -0.2178 -0.0318
18718W        W61734  26.543  27.764   1.437  0.1827  0.2674 -0.3683
18719W        W61735  15.282  31.616   5.018  0.0105 -0.0577  0.0364
18720W        W61736   0.229   6.957   7.428 -0.0005  0.0209 -0.0400
18721W        W61737   9.109  29.196  25.959 -0.1715 -0.2522  0.2805
18722W        W61738  25.103  21.007   1.655 -0.1726  0.1689 -0.1553
18723W        W61739   3.123  10.260   7.880 -0.0848 -0.0134  0.1294
18724W        W61740  33.720  29.141   3.461  0.0586  0.5974 -0.0764
18725W        W61741  32.610  33.400  16.052 -0.1115 -0.0810  0.0789
18726W        W61742   1.347   1.121  16.352 -0.0555  0.2099  0.1703
18727W        W61743  11.827  21.450  20.071 -0.1520  0.0201  0.0671
18728W        W61744  23.565   0.608  10.662  0.1314  0.2188  0.0165
18729W        W61745   1.135  25.539  17.340 -0.1119  0.0901  0.1414
18730W        W61746  20.211   2.695   7.781 -0.3223  0.1999 -0.2722
18731W        W61747  27.048   7.792   3.547 -0.1019 -0.1421  0.1309
18732W        W61748  11.799   1.854   1.227  0.0126 -0.0219 -0.4095
18733W        W61749   5.092  27.612  15.577  0.2649  0.1853  0.1938
18734W        W61750   8.895  17.189  25.263 -0.1454  0.0212  0.0654
18735W        W61751  14.968  10.743  12.635 -0.0605 -0.0100  0.3592
18736W        W61752  22.076  22.949  18.768  0.1013 -0.2982 -0.3091
18737W        W61753  25.324   0.112  23.524 -0.0932 -0.1347 -0.1339
18738W        W61754   1.671   4.632  19.156  0.1426  0.0264 -0.2379
18739W        W61755  29.009  28.477  20.852 -0.2429 -0.1238  0.1896
18740W        W61756  33.514  31.369   1.172  0.0021  0.0556 -0.1672
18741W        W61757   1.110  20.773  27.805  0.0700 -0.0559 -0.0468
18742W        W61758   7.136  31.635   3.301  0.3341 -0.2643 -0.0387
18743W        W61759  13.858  31.280   9.130  0.0360 -0.2599  0.0201
18744W        W61760   7.116   1.802  10.176  0.0607 -0.1489  0.1186
18745W        W61761   1.104  10.874  15.657  0.1671  0.2591 -0.2929
18746W        W61762  33.854  34.386   0.055  0.0448 -0.0952  0.3945
18747W        W61763  33.338   2.611  14.824 -0.0908 -0.2273  0.2286
18748W        W61764  19.816  31.669  22.640 -0.0798 -0.2110 -0.0433
18749W        W61765  25.878  29.897   1.989 -0.2894  0.0347 -0.1996
18750W        W61766  30.691  22.738   1.785 -0.2381  0.2421 -0.0285
18751W        W61767  33.011  28.432   7.168  0.0604  0.2635  0.2087
18752W        W61768   0.020  14.916  25.630  0.1235  0.1187 -0.1400
18753W        W61769  30.490  33.539  23.654 -0.0094 -0.0585 -0.1458
18754W        W61770  31.623  30.179  15.766  0.1410  0.1107  0.3209
18755W        W61771  29.041  10.868   5.073  0.2359  0.3309  0.4220
18756W        W61772  23.827  32.622  10.657  0.2399 -0.1997 -0.0371
18757W        W61773  11.057  20.990  28.257  0.3087 -0.0277  0.0377
18758W        W61774  17.613  32.964  10.341 -0.0803 -0.1109  0.0078
18759W        W61775   5.193  19.383   0.997 -0.2697  0.0823  0.0815
18760W        W61776   8.495   7.662  27.169 -0.0914 -0.1816  0.1424
18761W        W61777   7.069   3.609  24.445 -0.1722 -0.0170 -0.4266
18762W        W61778   5.392  16.227   0.571 -0.2705  0.0016 -0.1045
18763W        W61779   3.134  19.959   1.060  0.2079 -0.1439  0.0320
18764W        W61780  23.078  20.957  20.533 -0.0115 -0.0168 -0.2263
18765W        W61781   7.232  17.296   1.413  0.1023 -0.1194 -0.1250
18766W        W61782  31.184  26.191   0.719 -0.3095 -0.3594  0.0836
18767W        W61783   9.989   5.593   0.113  0.1135 -0.1379  0.1507
18768W        W61784  24.901  33.644  16.089  0.1672 -0.2802  0.1703
18769W        W61785   8.099   3.469  22.746  0.0743  0.2237 -0.2892
18770W        W61786  31.590   0.318   1.243 -0.0866 -0.1648 -0.1361
18771W        W61787   6.245   0.769  24.806  0.0955 -0.1951  0.1153
18772W        W61788   4.025  22.477  26.859  0.0003 -0.1607  0.1503
18773W        W61789  19.547  19.210  28.951 -0.0742 -0.1945  0.0546
18774W        W61790  34.302  15.268  21.439 -0.1019  0.1295 -0.1642
18775W        W61791  25.401  27.743   5.155 -0.0609 -0.0438  0.3301
18776W        W61792   6.375  20.063  22.672 -0.1966  0.2689 -0.2055
18777W        W61793   0.252   5.983   5.582 -0.0018 -0.0020  0.1383
18778W        W61794  19.579   0.831  13.938  0.1226 -0.4013 -0.1438
18779W        W61795  29.287   6.530  17.312  0.3966  0.3007 -0.4067
18780W        W61796  27.332  21.976   8.263  0.1634  0.2950  0.0179
18781W        W61797  27.786   9.407   4.909 -0.3000 -0.1350 -0.1831
18782W        W61798  31.750  30.177   2.173 -0.3762 -0.0386  0.1237
18783W        W61799  14.689  16.554   4.519 -0.1920 -0.2711  0.0101
18784W        W61800  28.747   0.251  28.541  0.1940  0.0297  0.0322
18785W        W61801  29.485  16.835  23.712 -0.0837  0.2488  0.0525
18786W        W61802   2.204  27.172   6.237 -0.0712 -0.0180  0.1973
18787W        W61803  33.345   0.956   3.737 -0.0411  0.0023  0.1575
18788W        W61804   9.002  25.312   3.463 -0.3688 -0.0503 -0.0417
18789W        W61805   6.145  20.357  19.747  0.0018 -0.2142  0.1497
18790W        W61806  24.299   6.002   3.633 -0.1720  0.0386  0.2643
18791W        W61807   8.246  25.451  26.765  0.0306 -0.1818  0.1213
18792W        W61808  28.604  33.307   4.817  0.2054 -0.0018  0.0385
18793W        W61809   3.739  26.628   3.877  0.2903 -0.0640  0.0119
18794W        W61810   2.429  31.909  17.569  0.0654 -0.1850  0.2411
18795W        W61811   7.640  23.215  27.905  0.2317 -0.1312 -0.4304
18796W        W61812   8.516  14.937  15.743  0.1773 -0.1336  0.1866
18797W        W61813   0.709  13.464  14.935  0.0075  0.2964  0.2213
18798W        W61814   2.024  31.839  10.477 -0.1635  0.0289  0.2944
18799W        W61815  34.038   2.735  24.960  0.0711 -0.0261  0.3282
18800W        W61816   7.274   6.182   7.697  0.2657  0.4458 -0.2157
18801W        W61817  21.899  26.641   2.516 -0.1192  0.0955 -0.1864
18802W        W61818   1.635  21.367  20.159 -0.1375 -0.1085  0.1657
18803W        W61819   6.328  21.176   6.096  0.1381 -0.0109  0.2628
18804W        W61820  12.829   3.838   2.813 -0.0157 -0.2817  0.1254
18805W        W61821  14.924  10.948  19.942  0.0180 -0.4204 -0.1273
18806W        W61822   0.098  14.949  23.775  0.2345  0.2702  0.3451
18807W        W61823  34.708  23.240  16.565 -0.1674 -0.1635 -0.3489
18808W        W61824  13.946   1.685  26.588  0.0559  0.0211 -0.0167
18809W        W61825  23.471  29.484   1.604  0.0476  0.0510  0.2926
18810W        W61826  34.778  12.676  22.703 -0.2984 -0.2937 -0.2287
18811W        W61827  27.866  10.700  15.366 -0.0436  0.1318  0.1862
18812W        W61828  33.159  34.263  24.845  0.1555  0.1254 -0.1232
18813W        W61829   1.113  28.833   7.456  0.1231 -0.1158  0.0366
18814W        W61830  32.833  31.402  26.499  0.0255 -0.0940  0.0039
18815W        W61831  30.526  17.704   9.836  0.1349  0.1824 -0.4834
18816W        W61832  32.012  23.908   4.932 -0.0064 -0.0306  0.2156
18817W        W61833   8.472  19.776   3.086  0.0593 -0.1095 -0.0415
18818W        W61834   4.910  29.210  17.147 -0.0840 -0.2018  0.2490
18819W        W61835   9.791   0.916  23.689 -0.1752  0.2563 -0.0824
18820W        W61836  26.088   4.917  22.637 -0.0537  0.0434 -0.2263
18821W        W61837  29.922   7.244   2.989 -0.2993  0.0857 -0.3427
18822W        W61838  30.611   5.413  22.171  0.0960  0.1350  0.1591
18823W        W61839  25.566  30.950  26.687 -0.3360  0.0107  0.0607
18824W        W61840   4.047   0.460  17.285 -0.3723  0.3062  0.0702
18825W        W61841   4.160  34.032   7.285 -0.0189 -0.2778 -0.3745
18826W        W61842   8.295  19.959  20.253 -0.1859  0.0796 -0.0805
18827W        W61843  34.297  29.256  15.318 -0.0286  0.0556  0.1896
18828W        W61844   2.810   2.439   6.501 -0.1930 -0.1185  0.0148
18829W        W61845  26.282   3.084   4.800  0.1810 -0.1764  0.1968
18830W        W61846  30.557  32.578   1.083  0.3644  0.2720 -0.1907
18831W        W61847   2.384   8.284  19.681 -0.3115 -0.0499 -0.0581
18832W        W61848  17.275  11.388  13.280  0.3802  0.0061  0.1757
18833W        W61849   1.197  34.752  17.383 -0.1930  0.0763  0.0038
18834W        W61850   6.796  33.439  18.003  0.0612  0.0643 -0.1772
18835W        W61851  10.548  29.745  23.144 -0.0240  0.0241  0.2587
18836W        W61852   8.919  30.730  26.025  0.0937  0.0878  0.1955
18837W        W61853  30.899   2.191  25.616 -0.2137  0.0113  0.1791
18838W        W61854  24.821   3.226   5.184  0.0690  0.0653  0.0899
18839W        W61855   4.993   2.799  14.413 -0.2031  0.0786 -0.0145
18840W        W61856  28.834  15.340   2.107  0.1368 -0.0337 -0.0167
18841W        W61857  12.753  17.986  25.137  0.0342  0.1731 -0.1892
18842W        W61858  27.626  12.748  25.710  0.0507  0.0142  0.1068
18843W        W61859  26.945  29.256   3.298 -0.1608  0.2788  0.1535
18844W        W61860  21.726   1.916  17.879 -0.0884 -0.0874  0.1113
18845W        W61861  26.526  29.052  21.882  0.0957  0.0770  0.0986
18846W        W61862   6.836  24.203   5.350 -0.1585 -0.0636  0.4087
18847W        W61863  24.553  27.566  17.795 -0.0325 -0.1082 -0.1781
18848W        W61864  28.076   8.020  27.455  0.0067  0.0909 -0.0605
18849W        W61865  15.433  17.600  12.354 -0.3864  0.1655 -0.4461
18850W        W61866  13.545  17.063   1.968  0.1359  0.0344  0.0692
18851W        W61867  21.329  27.329  24.062  0.2021 -0.0854 -0.0992
18852W        W61868  29.054  19.539   2.448  0.0894  0.0348  0.3747
18853W        W61869  10.005   4.864  27.402  0.3445  0.3591  0.3682
18854W        W61870  15.577  34.398   8.162  0.1435 -0.0444 -0.1852
18855W        W61871   3.967   6.493  27.685  0.0044 -0.0422  0.0131
18856W        W61872  19.247  26.581   1.381 -0.2916  0.1905  0.0619
18857W        W61873  26.758  32.079   5.155 -0.1152 -0.2150 -0.0687
18858W        W61874  32.398  22.601   0.434 -0.0390 -0.1753 -0.0075
18859W        W61875  32.973  23.197   4.298  0.0649 -0.3077 -0.0580
18860W        W61876  28.605  12.017   8.097 -0.1618  0.2880  0.0263
18861W        W61877   3.545   5.081   3.424  0.2497 -0.1044 -0.2148
18862W        W61878  34.148   1.994   0.739  0.2443 -0.3018 -0.0597
18863W        W61879  15.020  29.162  25.438 -0.0204 -0.0934 -0.0925
18864W        W61880   9.079   4.958   1.859 -0.1177 -0.0176  0.0740
18865W        W61881  32.392  22.442  26.110 -0.1273  0.3785 -0.5042
18866W        W61882  10.103  22.615  27.580  0.1312 -0.2032 -0.2923
18867W        W61883  19.080  26.016  10.255  0.1449  0.1134  0.0441
18868W        W61884   1.087  24.505   2.196 -0.1041 -0.0745 -0.0687
18869W        W61885  33.410  14.526  23.488 -0.2797 -0.0025  0.3319
18870W        W61886   2.397  22.065  20.933  0.2909 -0.0959  0.0130
18871W        W61887  33.197   9.167   9.866  0.0432 -0.2132 -0.0510
18872W        W61888  20.755  28.459   7.605  0.0322 -0.1244  0.1138
18873W        W61889  14.998  31.577   4.065 -0.2558  0.2081  0.1588
18874W        W61890   2.617  26.596  23.452  0.4781  0.1953 -0.1876
18875W        W61891  25.003   3.474  17.578 -0.0051  0.1512 -0.1827
18876W        W61892  25.643  23.292  24.778 -0.1289  0.0833 -0.2781
18877W        W61893  24.403  29.349   5.142 -0.1090  0.1372  0.2006
18878W        W61894   6.316   9.062  27.776 -0.0525  0.3263  0.4266
18879W        W61895  31.909   4.198  18.659  0.0053  0.0425 -0.1469
18880W        W61896   9.777  25.257  23.515  0.0469 -0.2832 -0.1444
18881W        W61897   6.008  10.405  10.086  0.0156  0.1993 -0.1046
18882W        W61898  11.639   7.859   7.565 -0.2806  0.0670  0.1238
18883W        W61899  25.384  34.264   8.309  0.1320  0.1296 -0.0257
18884W        W61900  32.531  23.888  19.912 -0.0341  0.0032  0.5104
18885W        W61901  33.953  21.370  17.022 -0.1536 -0.1853 -0.0469
18886W        W61902   4.385   7.355   2.774 -0.2386 -0.2360  0.0273
18887W        W61903   9.443  14.569  21.529 -0.1949  0.0013 -0.0659
18888W        W61904  26.116  24.953   2.910  0.1644  0.0506  0.2232
18889W        W61905  11.769  15.223  13.687 -0.1038 -0.0910  0.2895
18890W        W61906   5.585  13.322   8.438  0.0773  0.0430 -0.4019
18891W        W61907  17.165  34.331   1.991 -0.0993  0.2924  0.3136
18892W        W61908  34.299  20.684  19.058  0.1853  0.0993 -0.1171
18893W        W61909  26.693  23.219  25.032 -0.1255 -0.0689 -0.2194
18894W        W61910   1.807   3.650  19.870  0.1949 -0.0156  0.1906
18895W        W61911   2.422  17.253  14.534  0.0348 -0.0122 -0.0204
18896W        W61912   6.634   2.764   1.421 -0.0296  0.0296 -0.1975
18897W        W61913  19.273  29.730  10.298  0.0672 -0.0280 -0.0117
18898W        W61914  18.681  32.701  26.020 -0.2916  0.0459  0.2109
18899W        W61915   1.674   5.411  22.384 -0.1547 -0.2194 -0.0659
18900W        W61916  34.152  29.901   0.910  0.0304 -0.2162  0.0085
18901W        W61917  16.150   0.621   9.580 -0.0186 -0.1806 -0.1543
18902W        W61918  21.419  26.127  26.554 -0.0855  0.0024  0.1380
18903W        W61919  20.142  28.997  20.616 -0.0486  0.0371  0.3444
18904W        W61920   3.162   4.598   9.116  0.2674 -0.0899 -0.0097
18905W        W61921   4.882   3.486  18.563 -0.2390  0.3053  0.2268
18906W        W61922   3.846  30.534   2.848 -0.1791  0.3815 -0.2001
18907W        W61923  25.580  19.064   8.060  0.2920 -0.1106 -0.1918
18908W        W61924   1.211  25.589  18.309  0.1660  0.1510 -0.1132
18909W        W61925   6.414  29.489  24.293 -0.1392  0.1343  0.5239
18910W        W61926  20.021   4.158   5.059  0.0838  0.3555  0.3664
18911W        W61927   1.225  13.028  23.245  0.0719  0.1034  0.1888
18912W        W61928  25.348  31.925   5.399  0.0268  0.1335  0.1845
18913W        W61929  16.221  26.653  13.841  0.1891  0.0377  0.3883
18914W        W61930  30.201   4.664   2.738  0.0456 -0.1241  0.1210
18915W        W61931   5.483  27.267   5.361 -0.2619 -0.2752  0.1567
18916W        W61932   7.697   2.715  26.231  0.2344 -0.1023  0.4159
18917W        W61933   8.266  12.839  20.467 -0.0697 -0.0993 -0.1217
18918W        W61934  16.325  25.054  23.286 -0.2067  0.4248 -0.0461
18919W        W61935   9.983  21.060   7.240  0.1308 -0.3092  0.0794
18920W        W61936   2.730  13.449  27.292  0.2837 -0.1539 -0.3973
18921W        W61937  26.199  11.885  24.326 -0.2336  0.3376  0.0154
18922W        W61938  10.296  30.678  23.969 -0.1123 -0.0677  0.0624
18923W        W61939   0.067  28.663  20.312  0.1332  0.1166 -0.1734
18924W        W61940  18.680   0.635  22.763 -0.0974  0.2757 -0.2306
18925W        W61941   2.325  19.381  23.472 -0.1790  0.0794 -0.2570
18926W        W61942  26.835   3.880   1.029 -0.1298  0.0486 -0.0942
18927W        W61943  32.785   8.447  27.721 -0.2881  0.3560 -0.2333
18928W        W61944  32.648  31.666  27.259  0.0577 -0.1672  0.0433
18929W        W61945  30.823   5.498  14.958 -0.2354  0.1958  0.2315
18930W        W61946   7.826  21.848   8.095 -0.1958 -0.2320 -0.2224
18931W        W61947  11.714  33.284  20.893  0.0537 -0.0130 -0.2147
18932W        W61948  32.656  34.186  25.107  0.0150 -0.0338  0.2069
18933W        W61949   3.529   8.396  28.372 -0.2198  0.1967  0.3435
18934W        W61950   4.129  31.397   0.543 -0.1957  0.2432 -0.0375
18935W        W61951   7.541   3.440   0.051  0.0850  0.2331 -0.0304
18936W        W61952  33.843  27.929  16.411 -0.6923  0.2478 -0.0131
18937W        W61953  22.226  34.010  24.718  0.1117  0.0072 -0.0755
18938W        W61954   6.564  23.673  16.403  0.0710 -0.0073  0.1715
18939W        W61955   6.249   3.272   1.813 -0.0027 -0.3221  0.2893
18940W        W61956  21.404  25.962  20.837  0.1987  0.0035 -0.0393
18941W        W61957   8.821   1.759  17.226 -0.2315 -0.1131 -0.0333
18942W        W61958  30.460  24.419  16.444  0.3535 -0.0365 -0.2238
18943W        W61959  30.441   5.505   4.746 -0.2983 -0.3809  0.0474
18944W        W61960   9.675   4.951  25.567 -0.2489  0.1847 -0.0188
18945W        W61961  29.404   0.896  19.837  0.2841 -0.0331 -0.3189
18946W        W61962   0.480   7.195  19.217 -0.1978 -0.4481  0.2418
18947W        W61963  12.150   0.878  14.568  0.1204 -0.3507 -0.0289
18948W        W61964  33.755  12.145  26.603  0.0221 -0.1775  0.1986
18949W        W61965  34.453   7.047  27.220 -0.0710 -0.0712 -0.0285
18950W        W61966  30.433  32.048  17.477  0.0792 -0.2580 -0.0969
18951W        W61967  21.869  10.203  20.358 -0.2348 -0.1948 -0.3702
18952W        W61968  32.294   3.201   3.381 -0.3209  0.3361 -0.3203
18953W        W61969  12.274   3.694  27.438 -0.3650 -0.0100 -0.2620
18954W        W61970  32.322  30.099   1.417 -0.0182  0.0360 -0.0693
18955W        W61971   1.057   2.801  20.245 -0.1707  0.1855  0.0096
18956W        W61972   7.870  31.062  21.169 -0.0639 -0.3672 -0.1794
18957W        W61973   8.903  21.069  20.691  0.0980  0.0577  0.3482
18958W        W61974  20.870  31.114  18.103 -0.1853  0.0310 -0.1985
18959W        W61975  10.360  31.729  13.807  0.0261 -0.2384  0.3204
18960W        W61976  12.389  33.679  20.513  0.2216  0.0662  0.1112
18961W        W61977   8.004  31.890  17.740  0.3484 -0.5755 -0.1127
18962W        W61978  14.507   2.393  21.753  0.0852 -0.0043  0.1030
18963W        W61979  20.865   6.255  16.056 -0.2289 -0.0318 -0.0831
18964W        W61980  21.550  27.555  26.038  0.2456  0.5478  0.0402
18965W        W61981  32.696  33.638   8.422  0.0351 -0.2332  0.1749
18966W        W61982  11.820  10.415  12.713 -0.1552  0.2023  0.2373
18967W        W61983   6.611  26.325  23.151 -0.0990 -0.0275  0.1216
18968W        W61984   3.318  10.161   1.676 -0.2383 -0.1141  0.1628
18969W        W61985  10.720  25.529  21.532  0.2315 -0.1163  0.0868
18970W        W61986  25.034  30.477  19.438  0.1434 -0.2777  0.2433
18971W        W61987  27.703  21.997   0.636 -0.3364  0.3149 -0.1305
18972W        W61988   8.173  28.047  13.639 -0.1111  0.2481  0.3246
18973W        W61989  17.038   1.766   8.755  0.2667  0.2812  0.3798
18974W        W61990  10.935  31.115  15.340  0.1076  0.2192 -0.1609
18975W        W61991  32.976   7.115  20.236  0.1315  0.2115 -0.1144
18976W        W61992  19.347  10.143  20.533  0.1355  0.2532 -0.2818
18977W        W61993  11.280  17.509  22.227  0.1157 -0.1820 -0.0167
18978W        W61994   9.551  32.833  16.260 -0.0352  0.0952  0.0104
18979W        W61995   3.191  22.187  19.787  0.6491 -0.0059 -0.1487
18980W        W61996  34.261  32.042  17.185  0.0684  0.0587  0.0146
18981W        W61997  24.456  30.287  25.230 -0.0685  0.0249  0.0412
18982W        W61998   0.514   0.147  15.237 -0.0026  0.0999  0.1166
18983W        W61999  13.910  17.991   3.283  0.0279 -0.0104  0.5265
18984W        W62000  22.363   8.818   1.557  0.0932  0.1936 -0.2209
18985W        W62001   2.018   9.064  19.438  0.0113 -0.1077 -0.1436
18986W        W62002   2.092  30.301  22.038 -0.3270 -0.1328 -0.1242
18987W        W62003  24.529  16.806   5.212  0.2103 -0.1273 -0.2054
18988W        W62004  33.413   1.878  18.196 -0.2402  0.0683 -0.0960
18989W        W62005  10.022  24.950  13.366 -0.1204 -0.2835  0.0110
18990W        W62006  14.697   0.930  21.934  0.1654  0.0785 -0.0648
18991W        W62007  31.986  31.157  15.753  0.0015  0.0751 -0.0231
18992W        W62008  23.553   2.947  18.336  0.0738 -0.2715 -0.1304
18993W        W62009   5.353  30.300  18.026  0.0290 -0.1936 -0.0570
18994W        W62010  33.330  29.592  18.668  0.0411  0.2605  0.3329
18995W        W62011  15.658  29.873  16.923 -0.1027  0.1369  0.1400
18996W        W62012  16.166   0.100  21.948  0.1721 -0.1387 -0.1817
18997W        W62013   3.465   7.335  23.135  0.0569  0.2096  0.2475
18998W        W62014   3.584  14.371  15.538  0.1923 -0.1320 -0.2775
18999W        W62015   5.864   9.972  27.273  0.2365  0.0603  0.1284
19000W        W62016   5.083   4.335  16.351  0.1307  0.0838 -0.0120
19001W        W62017  25.631  29.568  22.507 -0.3166  0.0431  0.1993
19002W        W62018  34.451  16.241  15.761  0.0827  0.1168  0.0354
19003W        W62019  13.001  31.649  28.075 -0.0087  0.2730 -0.2294
19004W        W62020  32.364   0.741  22.508  0.2407  0.1384  0.2661
19005W        W62021  25.955   0.494  18.942 -0.2882  0.2493  0.1522
19006W        W62022  12.969  33.540  21.498  0.0617  0.1084  0.2955
19007W        W62023   7.446   0.596  21.959  0.0591  0.2646 -0.3673
19008W        W62024  10.681   1.508  18.734  0.2311 -0.2788 -0.0405
19009W        W62025  32.584  16.943  16.654 -0.3401  0.0013 -0.2626
19010W        W62026  28.892  22.426  27.146 -0.5602  0.1386  0.2297
19011W        W62027  22.499  29.491  20.557  0.0671  0.4401  0.0854
19012W        W62028   5.188  21.465  16.888 -0.2409 -0.0150 -0.0035
19013W        W62029  10.258  27.063  21.788 -0.0838 -0.1391  0.1033
19014W        W62030   1.620   6.697  22.796 -0.0858 -0.0493  0.2668
19015W        W62031   6.681  19.556  21.270  0.0650  0.2345  0.1970
19016W        W62032  26.613  30.777  22.573 -0.3221  0.1035 -0.0163
19017W        W62033  28.777  28.391  16.690  0.0210  0.2823 -0.0518
19018W        W62034   5.086  11.851  21.589 -0.1057  0.0058 -0.1456
19019W        W62035   3.427  11.418  18.019  0.1654  0.0382 -0.1176
19020W        W62036  32.251  24.993   6.910  0.0711 -0.1044  0.1806
19021W        W62037  34.155   9.297  19.370  0.0532 -0.4177 -0.1745
19022W        W62038  19.844   5.298  27.170  0.1191  0.0748  0.0401
19023W        W62039   3.052   4.680  22.455  0.0692 -0.0121 -0.2265
19024W        W62040   3.467   3.215  20.061  0.2645 -0.0114 -0.2744
19025W        W62041  33.186   9.244  16.343 -0.0272  0.1008 -0.0203
19026W        W62042   4.783  34.462   1.388  0.1860 -0.0167  0.1136
19027W        W62043  32.632   2.411  17.830 -0.2445 -0.0496  0.0132
19028W        W62044  33.816  20.963  25.658  0.1369  0.1594  0.3816
19029W        W62045  20.997  33.289   8.267 -0.0243 -0.1575 -0.0007
19030W        W62046   6.329  24.534  23.368 -0.0061 -0.1448 -0.2296
19031W        W62047  34.269  28.124  16.229  0.2398 -0.1030 -0.1989
19032W        W62048   0.300   8.939  24.386 -0.1012  0.0083  0.1015
19033W        W62049  33.120   4.942  18.371  0.0137 -0.0464 -0.1917
19034W        W62050  32.688   5.062  18.186  0.2181 -0.2565  0.2508
19035W        W62051  25.166  20.302  21.066 -0.1046 -0.0428 -0.2100
19036W        W62052   2.733   4.729   0.477 -0.3000  0.1447 -0.1401
19037W        W62053   5.594  25.476  19.519  0.1276  0.1414 -0.1146
19038W        W62054  29.861  20.491  27.654  0.3088 -0.0395 -0.0251
19039W        W62055  32.269   2.085  16.374 -0.1937  0.0398  0.1188
19040W        W62056  17.175   0.603  23.412  0.0711 -0.1232 -0.0816
19041W        W62057   8.829   5.568  20.071  0.2266  0.2122 -0.0713
19042W        W62058  30.093   0.138  25.329  0.2423  0.0828  0.2566
19043W        W62059  27.356  21.650   0.825 -0.0293  0.0134  0.3375
19044W        W62060   1.959  31.247  21.744  0.2859  0.0719 -0.0014
19045W        W62061  29.303   1.957  21.063  0.3159  0.4714 -0.1658
19046W        W62062  32.334  31.845  16.824 -0.3325  0.0627 -0.0585
19047W        W62063   8.525   2.658  16.213 -0.0466  0.2295 -0.0080
19048W        W62064   0.143   3.636  19.834 -0.0658  0.0289 -0.2464
19049W        W62065   2.805   7.049  27.096 -0.0935  0.0829 -0.1263
19050W        W62066   6.970  22.119  14.918  0.2792  0.0098  0.1199
19051W        W62067   0.327  23.303  23.138 -0.2537  0.2096  0.0008
19052W        W62068  32.656  34.365  19.391 -0.0574 -0.1483 -0.4782
19053W        W62069  31.069   1.634  23.597  0.0906  0.1051  0.1385
19054W        W62070   0.121   0.671  16.370  0.0206 -0.1301  0.0024
19055W        W62071   3.736  25.124  16.103  0.0832  0.2271 -0.1947
19056W        W62072  18.190  11.122   4.200 -0.0134 -0.2550  0.2415
19057W        W62073  25.899   7.235  18.425 -0.0386 -0.0751 -0.0341
19058W        W62074   9.759  31.830  16.531  0.1199 -0.0922 -0.0006
19059W        W62075  33.189   6.486  23.986 -0.1622 -0.0261  0.1237
19060W        W62076   3.288  33.384  19.354 -0.0342 -0.2397 -0.0515
19061W        W62077   5.278  31.560  14.586 -0.0294 -0.0773  0.1579
19062W        W62078  33.248  33.482  15.493  0.0884 -0.1852  0.2621
19063W        W62079   2.853  20.486  25.064  0.1532  0.1645 -0.1887
19064W        W62080  16.941  32.474  18.690 -0.1697 -0.3100 -0.0504
19065W        W62081   9.242  21.354   8.493  0.0039 -0.0829  0.1253
19066W        W62082  20.567   3.449  20.834 -0.2070  0.0035 -0.1689
19067W        W62083   4.133   8.323  19.841 -0.1440  0.2031 -0.0418
19068W        W62084  31.581  13.363  26.516 -0.1971 -0.1334  0.1712
19069W        W62085   5.065   2.473  15.196 -0.2132  0.3008  0.2045
19070W        W62086   4.353  20.504  13.455  0.0712  0.0020 -0.0766
19071W        W62087   9.418  30.907  15.706  0.0673 -0.2785  0.0619
19072W        W62088   2.722  20.864  14.953  0.0053  0.2065  0.0919
19073W        W62089   8.921  27.235  16.688 -0.0533 -0.1969  0.1418
19074W        W62090  16.622  31.839  22.260  0.1210 -0.3374  0.0376
19075W        W62091  25.562  31.560  20.897  0.2844  0.0477  0.1681
19076W        W62092  20.857   5.385  20.862  0.3519  0.1049 -0.0009
19077W        W62093  33.717   2.030  28.653  0.3773  0.0103  0.1686
19078W        W62094   5.042   9.456  25.058  0.1087  0.1801  0.0747
19079W        W62095   4.370  29.944  19.348 -0.1754 -0.1636  0.1587
19080W        W62096  20.640   9.623  15.531 -0.1323 -0.0011 -0.2654
19081W        W62097  29.980   5.899  15.431 -0.1149 -0.0639 -0.0726
19082W        W62098  29.472  26.055  19.979  0.2038 -0.2631 -0.2602
19083W        W62099  21.050   8.177  21.944 -0.0202  0.0745  0.0048
19084W        W62100   3.967  19.731  23.537 -0.2201  0.0157  0.0146
19085W        W62101  34.247  27.779  21.146 -0.2641  0.0110  0.1076
19086W        W62102  28.914   1.111  18.754 -0.1194  0.0308  0.1507
19087W        W62103   6.590  27.406  22.920  0.0940  0.0795  0.0308
19088W        W62104  31.172   3.206  18.546 -0.2133 -0.1831  0.4987
19089W        W62105  28.875   4.824  26.420 -0.0013  0.2106  0.2417
19090W        W62106  28.357   1.387  15.628  0.2354 -0.1915 -0.1735
19091W        W62107   1.294  19.566  16.536 -0.2821  0.4403  0.1243
19092W        W62108   9.924  33.095   4.458  0.2568  0.0763  0.2062
19093W        W62109  31.141  16.309  27.822  0.1008 -0.1646 -0.2258
19094W        W62110   0.171  14.066  19.397  0.2471 -0.1827  0.0909
19095W        W62111   4.231   5.630  26.345 -0.1208 -0.0514 -0.2736
19096W        W62112   9.743   8.545  21.290  0.4626 -0.1843 -0.0317
19097W        W62113   8.180   5.179  17.200 -0.0051  0.1834  0.0306
19098W        W62114  28.498   3.800  21.761  0.0306  0.1395  0.2894
19099W        W62115  33.588  11.056  15.208  0.0906  0.1069 -0.1191
19100W        W62116  28.394   9.077  14.978 -0.4036  0.1170  0.0468
19101W        W62117  34.101  12.805  22.018  0.1517 -0.1704  0.0034
19102W        W62118  30.803  34.428  19.779  0.2197 -0.1679 -0.2037
19103W        W62119  33.544  23.268  20.157  0.0030 -0.0666 -0.1115
19104W        W62120  32.700   7.618  18.449  0.1032 -0.1177  0.0147
19105W        W62121  27.107  34.284  21.363 -0.0932 -0.3620  0.0135
19106W        W62122  22.640  11.345  13.871  0.0271  0.0094  0.0512
19107W        W62123  13.574  30.943  25.233 -0.0942 -0.0481 -0.0190
19108W        W62124  13.203   0.974  16.259 -0.2097 -0.4002  0.1965
19109W        W62125  29.032  31.003  23.375  0.0934 -0.3016  0.3224
19110W        W62126  14.473  29.794  23.310  0.0543 -0.1380  0.1364
19111W        W62127  32.177   3.570  25.101 -0.3094 -0.1563  0.0010
19112W        W62128   8.696  26.284  24.126 -0.0090 -0.1988  0.4656
19113W        W62129  22.800   0.044   1.374  0.1187  0.0289  0.0411
19114W        W62130   5.492   7.839  14.241 -0.1363  0.1087 -0.1118
19115W        W62131  32.555  29.757  27.635  0.2601 -0.1263 -0.1740
19116W        W62132   6.212  31.939  19.638  0.0527  0.2105  0.0117
19117W        W62133  18.615  27.968  26.002  0.0122 -0.1532 -0.0841
19118W        W62134  27.052   4.437  17.753  0.0176  0.2241  0.3226
19119W        W62135  26.068   1.219  22.110  0.0248  0.3526  0.0874
19120W        W62136   1.038  18.726  16.705  0.0521 -0.1071 -0.0672
19121W        W62137  21.439   2.216  15.252 -0.1072  0.0482  0.0870
19122W        W62138  28.740  30.232  20.577  0.0367 -0.0932 -0.0914
19123W        W62139  32.059   0.796   1.992  0.0562  0.1084  0.0889
19124W        W62140   2.961  31.234  20.045  0.1266  0.0818 -0.0943
19125W        W62141  33.927   0.277  14.335 -0.1702 -0.0450  0.0218
19126W        W62142   6.516  29.545  24.788 -0.0376 -0.0720  0.1853
19127W        W62143   4.614  27.172  16.462  0.0610  0.0778  0.0083
19128W        W62144  33.278  10.772   1.140 -0.1186  0.2990  0.1848
19129W        W62145   8.479   2.470  27.964 -0.0265  0.0330 -0.2522
19130W        W62146  32.058   7.471  16.841  0.2380 -0.0523 -0.1244
19131W        W62147  34.184   5.656  20.139  0.3756  0.1169 -0.0855
19132W        W62148  26.173  28.405  25.999 -0.5575  0.4010  0.1233
19133W        W62149   1.131  12.621  25.747  0.1217 -0.0743 -0.1817
19134W        W62150  21.691   7.808  16.223 -0.2143  0.0932 -0.1369
19135W        W62151  14.688  24.088  23.314 -0.1100  0.0640  0.0559
19136W        W62152  11.429  17.802  24.030  0.1343 -0.0155  0.2443
19137W        W62153   8.521  30.545  14.671 -0.0370 -0.0456  0.2842
19138W        W62154  27.198  31.191  24.631  0.1568  0.1635  0.2085
19139W        W62155  11.111  19.022  12.197 -0.0949  0.1649  0.0800
19140W        W62156   3.682   8.448  23.075  0.4170  0.1432  0.0642
19141W        W62157   8.797  30.082  14.818  0.1365 -0.1456  0.2047
19142W        W62158  29.332   2.156  24.993 -0.2027 -0.1708 -0.1304
19143W        W62159  33.209  23.372  24.316 -0.1272 -0.0141 -0.0864
19144W        W62160   8.679  29.679  15.838 -0.1141  0.1188 -0.1469
19145W        W62161   5.980  31.158  21.159  0.3298 -0.2523 -0.1466
19146W        W62162  31.278  34.258  25.697 -0.1162 -0.0108 -0.0647
19147W        W62163  29.250  34.498  17.804 -0.2167 -0.1433 -0.1988
19148W        W62164  15.577  10.749  15.896 -0.2262  0.0822  0.3241
19149W        W62165  28.791  29.770  20.942 -0.0209 -0.1275  0.1922
19150W        W62166  11.699   1.636  21.643 -0.2793  0.0668 -0.3576
19151W        W62167   6.906  23.812   1.832  0.0218  0.3624  0.2253
19152W        W62168  13.865  24.088  29.303 -0.0958 -0.0651  0.1207
19153W        W62169  31.400  27.155  18.184 -0.1382 -0.4429 -0.2005
19154W        W62170  28.401  28.379  17.878  0.0675 -0.2005 -0.1855
19155W        W62171  32.809  29.366   0.131  0.1392  0.2713  0.1194
19156W        W62172   4.836  23.315  23.649 -0.2122  0.1222  0.2854
19157W        W62173   7.932  19.537  24.810 -0.1323  0.1568 -0.4151
19158W        W62174  34.043  22.255  26.843  0.1259  0.1234  0.1048
19159W        W62175  16.680  32.200  15.738  0.0429 -0.2498  0.0790
19160W        W62176  26.542  14.310  16.357  0.0897  0.1885 -0.4221
19161W        W62177  17.558   1.120  15.111  0.4360  0.1965 -0.3424
19162W        W62178  10.756   6.842  13.716 -0.1094 -0.1176  0.3262
19163W        W62179  10.656  31.510  18.646 -0.1240  0.0304 -0.0233
19164W        W62180  30.721  21.761  22.172 -0.1200 -0.3934  0.0001
19165W        W62181  17.239  34.509  23.464  0.1176  0.1421  0.0775
19166W        W62182  29.271  22.482  25.973 -0.0963  0.1549  0.0024
19167W        W62183   0.812   5.715  16.476  0.1186 -0.1943  0.2211
19168W        W62184  27.226  12.463  17.152 -0.2258 -0.1352  0.2462
19169W        W62185   5.582  21.345  29.203 -0.2384 -0.0117 -0.2811
19170W        W62186   0.114   8.796  14.246  0.4165 -0.2462  0.2286
19171W        W62187  18.417  24.668  22.325  0.1222 -0.0904 -0.2590
19172W        W62188   7.647   5.991  22.151  0.2862 -0.2466 -0.0358
19173W        W62189   3.328  29.073  23.975  0.1245 -0.1116  0.2461
19174W        W62190  29.916   3.110  18.603  0.1246  0.0006  0.3154
19175W        W62191   8.616  31.185  17.306  0.3752 -0.0604 -0.1054
19176W        W62192   3.288  28.770  27.328  0.0191 -0.1867  0.0995
19177W        W62193   8.960  32.360  15.575  0.3044 -0.1822 -0.1356
19178W        W62194  33.319   1.993   3.973 -0.1375 -0.2470 -0.0101
19179W        W62195  33.473   9.177  27.466  0.0593 -0.0800 -0.0263
19180W        W62196   5.275  10.678  15.149  0.0796  0.0981  0.0426
19181W        W62197  28.577  12.304  18.587  0.0519 -0.0079  0.2172
19182W        W62198  24.174  18.526   3.098 -0.3824 -0.0617  0.1046
19183W        W62199   6.256  24.919   0.193 -0.0196 -0.2438  0.1092
19184W        W62200  20.885   9.228  18.138  0.1390  0.0576 -0.2203
19185W        W62201  18.731   2.664  21.200  0.0192  0.0529  0.2009
19186W        W62202  33.841  10.581  23.286  0.4958 -0.1585  0.3184
19187W        W62203  21.486  30.330  17.894 -0.0576  0.1185 -0.1376
19188W        W62204  33.985  11.652  20.185 -0.1561  0.0900  0.1595
19189W        W62205  11.081  16.232  14.336  0.1244 -0.0955  0.0287
19190W        W62206  20.893   7.418   1.743 -0.0095  0.0096  0.0652
19191W        W62207  18.814  29.764  19.260 -0.0645 -0.3402 -0.0657
19192W        W62208   8.005   5.967  26.101 -0.5792  0.0399  0.0980
19193W        W62209  27.003  10.490  23.275 -0.0606  0.0438 -0.3559
19194W        W62210  20.797   3.592  15.957 -0.0378  0.2386 -0.1553
19195W        W62211  30.651  25.629  15.467  0.0391  0.1095  0.0303
19196W        W62212   0.763  34.669  14.382  0.1748 -0.0492  0.2098
19197W        W62213   5.947   5.698  28.723  0.1150 -0.0550 -0.1351
19198W        W62214   5.844   3.484  20.705  0.1766  0.1288 -0.1802
19199W        W62215   6.481   9.538  17.782 -0.2241  0.0882  0.1868
19200W        W62216   2.594  30.668  19.596 -0.1595 -0.2383 -0.2749
19201W        W62217  23.741  29.036  18.891 -0.1492 -0.0415  0.0022
19202W        W62218  10.807  29.309   2.714 -0.1125 -0.1580  0.0626
19203W        W62219  17.213  29.811   7.125  0.1406 -0.2345  0.1955
19204W        W62220   0.439  16.998  15.984  0.0423  0.0994  0.1805
19205W        W62221  30.430   3.735  16.433  0.0308  0.0316 -0.0148
19206W        W62222  30.731  25.593  23.686 -0.1219 -0.2166 -0.0597
19207W        W62223  20.513  24.481   1.920  0.0909  0.0965 -0.1287
19208W        W62224  20.798   1.232   1.669  0.1620  0.0731 -0.2546
19209W        W62225  34.152  28.423  18.880 -0.0103  0.0836 -0.2997
19210W        W62226   5.042  10.043   4.379 -0.0307 -0.0235  0.0233
19211W        W62227  26.381   8.105  24.266  0.0423  0.1550 -0.0095
19212W        W62228  20.001  30.581  23.202  0.1996  0.3842 -0.3810
19213W        W62229   6.484   6.738   0.537  0.1523 -0.2300  0.0801
19214W        W62230  27.459  18.539  23.961  0.1788  0.1741 -0.0078
19215W        W62231  27.470  28.266   9.754  0.0924 -0.1815 -0.1456
19216W        W62232  10.844  24.606  18.128  0.4433  0.3479 -0.3113
19217W        W62233  15.231  33.738  18.021  0.0463  0.1026 -0.0321
19218W        W62234  28.109  33.828  24.991  0.0835 -0.0615 -0.3350
19219W        W62235   1.547  31.761   5.610  0.0052 -0.2832  0.2505
19220W        W62236   4.830  13.143  26.054 -0.2255  0.0425 -0.0529
19221W        W62237   1.461   4.664  20.108 -0.1600  0.3880  0.0658
19222W        W62238  34.107   7.181  21.670 -0.2047  0.1588 -0.1856
19223W        W62239   2.116  34.702  20.092 -0.0888 -0.0410 -0.2390
19224W        W62240   2.374   6.731  18.849  0.2694 -0.1881 -0.1642
19225W        W62241  32.321  28.412  20.068  0.0547  0.3261  0.1488
19226W        W62242  32.052   9.965  19.911 -0.1699  0.0257 -0.1125
19227W        W62243  20.821   5.886  28.219  0.3388 -0.0245  0.2888
19228W        W62244   7.029  30.430  20.157 -0.0515  0.2532 -0.0536
19229W        W62245  15.007  24.526  13.872 -0.5156  0.3573  0.2501
19230W        W62246  11.732  25.543   3.032  0.1975 -0.2004 -0.0226
19231W        W62247  17.337  28.222  17.664 -0.2954 -0.0615  0.0054
19232W        W62248  11.631  25.109   2.333  0.0163 -0.2332 -0.1098
19233W        W62249  33.184   7.592  20.887 -0.0070  0.0809 -0.1870
19234W        W62250  22.030  30.518  14.628 -0.1314  0.2668 -0.0774
19235W        W62251   6.083  26.240  14.221  0.0989  0.2114  0.0913
19236W        W62252  28.240   0.660  28.201  0.0661  0.0576  0.1709
19237W        W62253   1.295  20.806  23.223  0.0645 -0.0833  0.0937
19238W        W62254  27.871  27.483  27.622  0.0836  0.0235 -0.2380
19239W        W62255  30.750   6.691  27.094  0.1822 -0.0569  0.0949
19240W        W62256  32.907  30.275   2.902 -0.2835 -0.0938  0.0930
19241W        W62257   1.923   9.276  20.931  0.1640 -0.0317 -0.2350
19242W        W62258   2.756  21.723  25.682 -0.0856 -0.0141  0.1456
19243W        W62259   9.133  13.070  20.738 -0.0473  0.1033 -0.1335
19244W        W62260   0.302   2.159   4.280  0.1791  0.0306  0.0881
19245W        W62261  10.548   8.187  23.484  0.1073 -0.2116  0.0652
19246W        W62262  23.544   3.678  21.196 -0.0863  0.0960 -0.1769
19247W        W62263   8.371  20.008  17.189 -0.2297  0.0996  0.2371
19248W        W62264  27.393   7.472   6.734  0.0427 -0.0539 -0.3144
19249W        W62265  27.470   4.699  18.922  0.0563 -0.2637 -0.2334
19250W        W62266   7.335   8.719  17.687 -0.0028  0.0533 -0.3474
19251W        W62267   1.295  19.618  27.277  0.1625  0.1637  0.2918
19252W        W62268   3.160  28.593   2.301  0.1721 -0.1740 -0.2631
19253W        W62269  20.614  25.236  23.719  0.0897 -0.1535  0.1438
19254W        W62270   3.608  25.205  17.156  0.2751  0.0005  0.0316
19255W        W62271   4.534  27.199  17.532  0.0616 -0.1091  0.1938
19256W        W62272   2.844  20.510  18.753 -0.0380  0.0376 -0.0238
19257W        W62273  28.949  25.653  26.462  0.0664 -0.0913 -0.3689
19258W        W62274   2.363  16.730  26.910 -0.2261  0.0892  0.1533
19259W        W62275  11.324  22.215  24.200 -0.1406  0.0694  0.0155
19260W        W62276  28.732  24.849   3.960  0.0081 -0.0982 -0.0117
19261W        W62277   5.245  24.374  17.062  0.1425  0.1780  0.0446
19262W        W62278  17.134  11.362  27.102  0.2907 -0.0996 -0.2203
19263W        W62279  10.852  34.699   8.762  0.2236  0.1026  0.2380
19264W        W62280  26.486  30.033  21.891  0.1576  0.3199  0.0452
19265W        W62281   1.453  34.334  19.163 -0.0075 -0.0750 -0.0332
19266W        W62282  16.564   2.988  17.371 -0.0573 -0.0426 -0.4008
19267W        W62283  30.266   1.104  19.790  0.2162 -0.2755  0.0246
19268W        W62284  25.653  30.572  25.477  0.2495 -0.0020 -0.1222
19269W        W62285   8.524  34.558  18.026 -0.2057  0.1775  0.1567
19270W        W62286  31.205  32.186  17.188  0.2909  0.0963  0.1994
19271W        W62287  18.966  16.384  20.759  0.0946 -0.1363 -0.0540
19272W        W62288  32.860  10.681  16.764  0.2304  0.0694 -0.3069
19273W        W62289  12.718  18.590  11.786 -0.2890 -0.1528 -0.0192
19274W        W62290  11.308  25.281  26.539 -0.4942  0.0221  0.2353
19275W        W62291   3.583  12.048  19.317 -0.1448  0.0088 -0.1223
19276W        W62292  24.910  20.443  16.161 -0.1114 -0.0619  0.0143
19277W        W62293  13.217   6.489  20.393  0.3878  0.1187  0.4730
19278W        W62294  10.984  19.941  21.695  0.3557  0.2424  0.0850
19279W        W62295   5.210  22.693  24.731 -0.2765  0.2019  0.1217
19280W        W62296   9.849   9.856  16.287 -0.0892 -0.3614  0.0444
19281W        W62297  29.247   0.450  25.957 -0.1645 -0.0674  0.4364
19282W        W62298  24.214  33.229   3.753 -0.2706  0.2828 -0.0977
19283W        W62299  30.072   5.656   1.784  0.0401  0.0952  0.2294
19284W        W62300   1.094  33.048  19.766  0.2796 -0.3139 -0.0863
19285W        W62301   3.596   6.045  18.995 -0.0245 -0.2827 -0.1258
19286W        W62302  15.631  31.613  15.155  0.0448  0.2011 -0.0296
19287W        W62303   2.725  30.416  15.650 -0.1086 -0.0330 -0.0271
19288W        W62304  27.085  26.724  26.139 -0.1527 -0.2291 -0.1703
19289W        W62305   1.913   2.897  15.699  0.4088  0.0485 -0.1861
19290W        W62306  28.856   2.878  16.095  0.0406  0.3894 -0.2517
19291W        W62307   4.553  30.808   2.709  0.1003  0.0924 -0.1322
19292W        W62308  20.526   6.256  17.251 -0.2891 -0.0580 -0.0297
19293W        W62309   3.091  31.173   4.998 -0.0242  0.0282 -0.0474
19294W        W62310  19.393  24.831  15.023  0.0635 -0.0046 -0.0102
19295W        W62311   3.507  23.363   1.412 -0.3212 -0.0398 -0.2289
19296W        W62312  34.451   6.488   1.522 -0.2461  0.1977 -0.0135
19297W        W62313   0.057  28.569  18.946  0.0950 -0.1913 -0.1637
19298W        W62314   2.764   3.911  18.790 -0.1374  0.0076  0.0242
19299W        W62315  27.294  29.093  19.293 -0.1815  0.0145 -0.3160
19300W        W62316   5.349   2.786  14.843  0.4734 -0.0449 -0.1287
19301W        W62317   7.999  24.123  22.101 -0.2461 -0.0685 -0.1760
19302W        W62318  32.059  32.786   8.857  0.2320  0.0343  0.0442
19303W        W62319  33.578  31.432  19.715 -0.2579 -0.2539 -0.2713
19304W        W62320   2.118  24.694  16.469  0.1575  0.0796  0.2553
19305W        W62321  26.827  16.752  18.878 -0.1899  0.0934 -0.0319
19306W        W62322   8.954  23.113  21.744 -0.2151  0.3070  0.0273
19307W        W62323  23.220  27.122  20.831  0.1613  0.0220  0.1390
19308W        W62324   6.105   6.921  16.555 -0.1000  0.3959 -0.1704
19309W        W62325  26.120  15.223  14.814 -0.1462  0.1880  0.0648
19310W        W62326  18.367  26.860  25.159  0.1319  0.0627 -0.2047
19311W        W62327  26.764   2.038  17.731 -0.5652 -0.3035 -0.0942
19312W        W62328  26.847  17.763  14.852  0.0882 -0.3297  0.1950
19313W        W62329  28.376   0.145   2.409  0.0365 -0.0197  0.0209
19314W        W62330  31.069  28.073   8.792 -0.1902 -0.0626  0.0846
19315W        W62331   1.031   6.646  22.628  0.0589  0.0145  0.2090
19316W        W62332  30.428  32.383  23.032  0.1969  0.0354  0.5343
19317W        W62333  30.246  24.532  18.541  0.1758 -0.3041  0.1307
19318W        W62334  11.028  24.488   2.008 -0.0739  0.1478 -0.3271
19319W        W62335  27.507   2.329  20.836 -0.0116 -0.0279 -0.2260
19320W        W62336   7.501  28.430  23.150 -0.2418  0.0116 -0.0864
19321W        W62337   0.533  34.720  26.199 -0.2550 -0.2258 -0.2402
19322W        W62338  10.356  29.351  24.310  0.2976  0.0674  0.0733
19323W        W62339  22.705  29.832  18.368  0.0262 -0.4450  0.0837
19324W        W62340  33.843   2.277  21.697 -0.2070  0.1579 -0.2232
19325W        W62341  22.928   1.364  17.709 -0.3021 -0.3503  0.1376
19326W        W62342  29.280   1.529  21.903 -0.0398  0.0899 -0.2378
19327W        W62343  30.214   4.100   7.046  0.4112  0.0914  0.0573
19328W        W62344  29.457  34.285  18.792 -0.2610 -0.0367 -0.0762
19329W        W62345  31.631   4.719   2.551 -0.1419 -0.0459 -0.3976
19330W        W62346  10.206  32.042  18.986  0.1640 -0.0137  0.1030
19331W        W62347   1.934  33.530  26.707 -0.2831 -0.2856  0.1015
19332W        W62348   1.994  29.347  22.114 -0.0147 -0.1071  0.0383
19333W        W62349  34.167   6.011  24.944 -0.1046  0.1459  0.0584
19334W        W62350   2.586   8.717  23.048 -0.0636  0.0596 -0.1456
19335W        W62351   3.595  17.248  19.798 -0.2456  0.2379  0.1515
19336W        W62352   6.790  28.613  18.106 -0.0077  0.2325  0.2531
19337W        W62353  19.076   1.040  16.770  0.0238  0.0968 -0.0627
19338W        W62354  33.887  20.595  17.752 -0.1348 -0.0390 -0.1720
19339W        W62355  12.835  33.824  20.672  0.0956 -0.1582 -0.2348
19340W        W62356  33.621  25.633  19.232 -0.3753  0.1237  0.0620
19341W        W62357  29.101  17.485   3.779  0.0717 -0.2379 -0.0875
19342W        W62358  15.719   0.156   1.265 -0.0948 -0.1141 -0.0358
19343W        W62359  33.934   6.370   8.073 -0.0958  0.0136  0.0308
19344W        W62360   1.416  34.656  15.199  0.2818  0.1542  0.2132
19345W        W62361  30.364  11.919  19.547  0.1718  0.2917 -0.2845
19346W        W62362  22.861   3.045  25.110  0.0929 -0.1125  0.1272
19347W        W62363   9.467   2.974  28.919  0.1834 -0.4325 -0.0453
19348W        W62364  25.451   2.642  15.152  0.2655 -0.2315 -0.0324
19349W        W62365   6.600  11.337  15.916 -0.1450 -0.0464  0.1112
19350W        W62366  33.049  23.941  23.735  0.2168  0.0981  0.2775
19351W        W62367  11.271  31.932  15.033 -0.1133  0.0822 -0.1599
19352W        W62368  13.494  29.541  25.391  0.2929  0.0017  0.0149
19353W        W62369  17.893  23.329  24.705 -0.1768  0.0952 -0.2815
19354W        W62370   4.975  24.358  15.418 -0.0510 -0.0567  0.2590
19355W        W62371  32.834   0.344  28.894 -0.0916  0.1883 -0.1346
19356W        W62372  22.367   1.709  15.733  0.0820 -0.3007 -0.1593
19357W        W62373  12.848   6.236  28.497 -0.0031 -0.0897 -0.1072
19358W        W62374  15.837  24.936  22.042  0.1410  0.1368 -0.0977
19359W        W62375   4.342   7.086   1.867 -0.1852 -0.0037  0.2375
19360W        W62376  29.573  33.116  17.438 -0.0332  0.3091  0.2083
19361W        W62377  17.299  14.059  14.085  0.0872 -0.0429 -0.1061
19362W        W62378  26.390  29.085   7.491 -0.0996  0.0353 -0.1638
19363W        W62379   7.770  21.681  20.932  0.1006  0.0964  0.0262
19364W        W62380  32.362  30.751  25.818 -0.0871 -0.0447  0.0343
19365W        W62381   8.677  26.390  19.044 -0.2174 -0.3491  0.1346
19366W        W62382  33.513  30.608   5.156  0.0814 -0.1252 -0.0180
19367W        W62383   1.379  22.236  20.468  0.4113  0.2082  0.1136
19368W        W62384   6.063  30.259  27.257 -0.3599  0.2636  0.1939
19369W        W62385  11.677   5.760   0.961 -0.1921 -0.1667 -0.0938
19370W        W62386   6.733   8.794  28.698 -0.3060  0.2902  0.2786
19371W        W62387  13.833  30.500   0.565  0.1827 -0.0676 -0.2036
19372W        W62388   2.352  29.938  24.267  0.0962 -0.0526 -0.4924
19373W        W62389   3.134   5.850  18.150  0.1011 -0.2377 -0.0891
19374W        W62390   2.600  29.891  15.053 -0.2648 -0.2211 -0.1822
19375W        W62391   5.828  29.809  17.242  0.1187 -0.3219 -0.0285
19376W        W62392  24.899  16.052  14.864  0.2796  0.2146  0.1077
19377W        W62393   5.092   7.455  19.759  0.3204 -0.0918 -0.1583
19378W        W62394  34.140  21.084  25.257 -0.3870  0.0081 -0.2353
19379W        W62395   8.025  30.527  24.848  0.1471  0.1700  0.0340
19380W        W62396   9.338  23.584  24.523  0.1731  0.2521 -0.2635
19381W        W62397  33.091   7.490  15.486  0.1268  0.1889 -0.0199
19382W        W62398   8.866  33.717  27.050 -0.3838 -0.0085 -0.0005
19383W        W62399  10.680   4.419   8.895 -0.0307 -0.1606 -0.2037
19384W        W62400  20.226  33.736  14.795 -0.0021  0.2940  0.3247
19385W        W62401   6.382   5.810  28.467  0.0040 -0.1850  0.0429
19386W        W62402  29.333   6.834  26.822 -0.0685 -0.1477 -0.2604
19387W        W62403  29.739   3.308  18.074  0.0004  0.1097  0.0509
19388W        W62404  33.809  27.973   3.781  0.0648 -0.0161  0.3392
19389W        W62405   1.160  30.760   1.580  0.0677  0.1924  0.2063
19390W        W62406   4.528   3.727  21.693 -0.0814  0.0846  0.1037
19391W        W62407  31.264  27.224  16.946 -0.0098  0.0655  0.3199
19392W        W62408   0.523   4.130   3.640  0.4518 -0.0494 -0.1978
19393W        W62409  16.953   7.500   0.157  0.1447  0.0687 -0.1302
19394W        W62410  13.618  29.050  19.290 -0.1684  0.1560 -0.3388
19395W        W62411   7.023  24.972  20.968  0.1274 -0.3727  0.0758
19396W        W62412   3.962   0.136  18.328  0.3936 -0.0156 -0.0612
19397W        W62413  31.889  32.290   1.455  0.1437 -0.2212 -0.0520
19398W        W62414   0.569  30.692  23.517 -0.2959  0.2051  0.2284
19399W        W62415   5.367  31.692  27.073  0.1375  0.1801  0.1463
19400W        W62416   0.512  29.044  19.515  0.1398 -0.0070 -0.1323
19401W        W62417  31.642  23.960  24.075  0.0804 -0.1879 -0.2290
19402W        W62418  24.227   0.512  20.391 -0.3268  0.0989 -0.2803
19403W        W62419  31.210   6.894   4.622 -0.3408 -0.0087 -0.2954
19404W        W62420  29.175  29.551  28.099 -0.2347 -0.1530  0.3153
19405W        W62421  32.749  25.455   7.675 -0.0148  0.3929  0.0361
19406W        W62422  33.480  17.694  25.160  0.0687  0.1537 -0.1551
19407W        W62423  16.166  25.351  18.486 -0.2420 -0.3412  0.2967
19408W        W62424  12.667   9.162  14.109  0.1189  0.0470 -0.1105
19409W        W62425  33.386  15.009   2.417  0.1637 -0.0439 -0.1499
19410W        W62426   0.296   0.205  27.057 -0.1343  0.1457  0.0511
19411W        W62427   4.991  17.190  20.144 -0.2448 -0.1619 -0.3294
19412W        W62428   3.741   9.284  17.534 -0.3272  0.2050  0.2613
19413W        W62429  30.690   4.163  17.007  0.1689 -0.2367 -0.3266
19414W        W62430  10.448  31.593  20.673 -0.2444  0.0280  0.3898
19415W        W62431   8.334   0.192  16.368  0.4005  0.2133 -0.0923
19416W        W62432   3.054   4.028  18.353 -0.1355 -0.2615 -0.0692
19417W        W62433  34.686  31.780   6.135 -0.2527  0.3865 -0.1736
19418W        W62434  32.302   5.975   2.257  0.3304 -0.0410  0.1385
19419W        W62435  29.565   6.071   7.618  0.1014 -0.1723 -0.3256
19420W        W62436  27.463  25.053  16.300  0.0430  0.3340  0.1443
19421W        W62437  31.710   4.727  26.457 -0.1402  0.1286  0.3296
19422W        W62438  10.415  24.324  28.380  0.1478  0.1044  0.0576
19423W        W62439  31.397  32.903  19.721 -0.0168 -0.0826 -0.1458
19424W        W62440   9.857  29.288  18.758  0.1086  0.0491  0.0690
19425W        W62441  30.380  29.863  26.345 -0.0255 -0.2204 -0.1617
19426W        W62442  26.895   1.446   8.979 -0.1902  0.1224 -0.1805
19427W        W62443   1.229   5.907   6.199  0.0903  0.4268 -0.0249
19428W        W62444  11.542   8.813   1.614  0.1134 -0.0883 -0.0279
19429W        W62445  21.857   6.518   5.860 -0.0233 -0.0494 -0.0455
19430W        W62446  29.664   8.289   8.449  0.0175  0.2918  0.2785
19431W        W62447  31.396  26.527  25.241  0.1880 -0.0329 -0.0574
19432W        W62448  33.101  15.915   9.613  0.1252 -0.1402  0.1816
19433W        W62449   5.519  33.081  21.651 -0.0180 -0.1453 -0.1843
19434W        W62450  32.858  18.941  19.538  0.0510 -0.3915  0.1893
19435W        W62451  22.769  31.462   5.560 -0.2891 -0.0421  0.3371
19436W        W62452  27.548  26.583  19.089 -0.0286  0.2192  0.3142
19437W        W62453  32.758  21.807   9.398 -0.3081  0.2051 -0.0704
19438W        W62454   3.328  20.815  17.911 -0.1774  0.1335 -0.0679
19439W        W62455  33.203   1.993   2.636 -0.2612 -0.0064  0.0321
19440W        W62456   2.697  26.097  26.624  0.2555 -0.3990 -0.0369
19441W        W62457   0.326  29.109  18.233  0.1505 -0.1162 -0.0391
19442W        W62458   1.689  23.729   0.104  0.0248  0.2846 -0.1952
19443W        W62459   1.585  27.554  14.329 -0.2107  0.0589  0.1041
19444W        W62460  22.427  23.904  19.201 -0.2707 -0.1654 -0.2148
19445W        W62461   0.827  32.764  15.483  0.0143 -0.1514  0.3322
19446W        W62462   9.859  33.291   0.908 -0.4652  0.3462  0.0709
19447W        W62463  12.998  11.519  15.562 -0.1329  0.0099  0.1695
19448W        W62464  17.519  33.365  20.363 -0.3675 -0.1570 -0.1566
19449W        W62465   7.857  23.756   0.657  0.2617 -0.0926  0.0331
19450W        W62466   1.245  34.198  20.346 -0.3330 -0.0416  0.1464
19451W        W62467   1.090  32.483  19.000 -0.0706 -0.0528  0.0785
19452W        W62468   3.044   8.402  28.494 -0.3166  0.0981  0.1901
19453W        W62469   0.883  27.538  27.432 -0.1427  0.2367 -0.0750
19454W        W62470  32.310   0.456   2.230 -0.0408 -0.3354 -0.0172
19455W        W62471   0.198   4.127  23.183  0.0130 -0.0847 -0.0141
19456W        W62472  16.521   0.801  29.147  0.1507 -0.2023  0.1836
19457W        W62473  10.227   3.225  28.504 -0.0647  0.1260 -0.1935
19458W        W62474  10.174  22.003  27.617 -0.3318  0.0343  0.0477
19459W        W62475   4.954   9.022   5.959  0.3568  0.0940 -0.0262
19460W        W62476  25.122  28.966  15.208 -0.1237 -0.1896  0.0365
19461W        W62477   6.435   8.817   0.561 -0.0954 -0.1586  0.0261
19462W        W62478  24.398   0.677  25.263 -0.0826  0.0221  0.1377
19463W        W62479   5.659   3.754  14.695  0.0416 -0.0917 -0.2857
19464W        W62480   6.345   7.188  21.643  0.1764 -0.1971  0.1557
19465W        W62481   6.518   1.824   0.256  0.1536 -0.0175 -0.0691
19466W        W62482   5.971   8.626  24.271  0.1106  0.3753  0.2599
19467W        W62483  29.897  18.126   6.921 -0.2528 -0.2595 -0.2277
19468W        W62484  21.336  27.084   0.752  0.1586 -0.0887  0.2478
19469W        W62485  34.360  28.448   9.260  0.1653 -0.1569 -0.1901
19470W        W62486   5.765   5.436  26.169  0.1447 -0.2846  0.0381
19471W        W62487   9.941  33.790  25.929  0.1806  0.1032  0.0358
19472W        W62488  18.146  28.660  26.606 -0.1334  0.1896 -0.0119
19473W        W62489  28.897   1.156  17.614  0.0987  0.1528  0.0303
19474W        W62490   1.253   1.690  17.165 -0.0523 -0.0251 -0.0474
19475W        W62491   7.640  31.975  15.141 -0.1686  0.0056 -0.2606
19476W        W62492  13.419  26.976  17.254  0.0021  0.2487  0.2401
19477W        W62493  26.011   3.952  24.757 -0.3369  0.0528 -0.1334
19478W        W62494   5.802  27.319   4.927  0.2706 -0.3171  0.0146
19479W        W62495  16.038  33.569   0.813  0.0526 -0.0833 -0.0544
19480W        W62496   3.355  25.698   2.116 -0.2182 -0.1180  0.1089
19481W        W62497  15.797  26.545  21.336  0.0500 -0.0790 -0.0908
19482W        W62498   3.335  31.781  15.566  0.4845 -0.0825  0.2682
19483W        W62499  22.359   3.760   7.650 -0.0255 -0.0532 -0.2365
19484W        W62500   7.025   5.783  23.113 -0.0481 -0.1777  0.1632
19485W        W62501  27.833  30.305  18.603 -0.1805 -0.1023  0.0743
19486W        W62502  26.900   7.824  15.256  0.1302  0.0007  0.3100
19487W        W62503  27.188  25.329  21.942  0.0321  0.0765 -0.0851
19488W        W62504  33.822  18.868  28.563 -0.1175 -0.2048 -0.0229
19489W        W62505  21.997  33.752   9.148 -0.2119 -0.2627 -0.0217
19490W        W62506   6.934  14.613   3.816  0.1661  0.1438  0.2999
19491W        W62507  16.152   9.409  24.278  0.2701  0.0453 -0.1052
19492W        W62508   9.002   6.819  24.069 -0.0380 -0.0532 -0.0538
19493W        W62509   2.680  31.462  28.642  0.0089 -0.1169  0.1962
19494W        W62510  12.503  26.446  22.663  0.1633 -0.1077 -0.1610
19495W        W62511  12.874  23.857   4.394  0.2528  0.1309  0.0162
19496W        W62512  21.968  29.550   2.954  0.1537 -0.4257  0.2580
19497W        W62513   1.842  27.280  14.735  0.1138  0.0292 -0.2356
19498W        W62514  25.075  34.465   7.922 -0.4310  0.0015 -0.3801
19499W        W62515   8.159   7.178  24.926 -0.2367 -0.1270  0.1915
19500W        W62516  33.018   6.947  17.893 -0.0530  0.0553 -0.0360
19501W        W62517   9.090  10.359  10.003 -0.1312 -0.0102  0.0409
19502W        W62518  22.751   5.036  17.280 -0.0074 -0.1250 -0.5636
19503W        W62519   5.417  22.641  15.090 -0.1114  0.0773  0.2132
19504W        W62520  25.140  27.471  24.365  0.0374  0.1154  0.2337
19505W        W62521  32.572   2.034  26.081 -0.1960 -0.0554  0.0033
19506W        W62522   4.130  11.812  25.136  0.0062 -0.0849 -0.0196
19507W        W62523  15.940  12.419  18.779 -0.1003  0.1678  0.0601
19508W        W62524  30.770  21.513  20.236  0.0034 -0.0190 -0.0264
19509W        W62525  21.975   3.131  24.626  0.0869  0.3065  0.1208
19510W        W62526  20.796   3.468   3.414  0.1102 -0.0563 -0.0111
19511W        W62527  32.431   5.195  23.370 -0.0985 -0.1063  0.1015
19512W        W62528  31.617  28.828   3.948  0.4416  0.2186 -0.0964
19513W        W62529  31.652  34.153  27.040  0.2493  0.1667 -0.2493
19514W        W62530  33.519   2.128  17.741 -0.2445 -0.0574 -0.2589
19515W        W62531  34.430   4.628  27.769 -0.2059 -0.0314  0.0718
19516W        W62532  16.257  11.565   1.456 -0.3961 -0.0312  0.0850
19517W        W62533  11.356  17.123  14.281  0.0364 -0.0713  0.0057
19518W        W62534  33.257   4.417  28.561 -0.1033  0.1798 -0.0689
19519W        W62535  10.609  10.151  13.774  0.2226 -0.1310  0.3478
19520W        W62536  12.042  12.802  24.694  0.1461  0.0238  0.0934
19521W        W62537  24.562   3.606  10.657 -0.3217 -0.4606 -0.2666
19522W        W62538   8.184  21.392  13.604 -0.2153  0.0686 -0.1726
19523W        W62539  34.567  22.395  10.556 -0.1792 -0.0805 -0.2128
19524W        W62540  29.640  31.349   8.603  0.2433  0.0353 -0.1555
19525W        W62541  20.951  26.060   4.319  0.0471  0.2853  0.0068
19526W        W62542  34.364   6.795  18.573 -0.1103  0.1334 -0.1981
19527W        W62543   5.518  11.683  22.747  0.3993 -0.1786  0.4378
19528W        W62544  13.486  26.666  15.831  0.1514 -0.1203  0.5812
19529W        W62545   4.688  27.463  24.771  0.1031  0.2047 -0.2008
19530W        W62546   2.993  30.522   7.910  0.1489  0.1900  0.3577
19531W        W62547  19.421   2.163  25.984  0.2448 -0.2167  0.2862
19532W        W62548   6.071   3.620  21.128 -0.1876 -0.2820 -0.2534
19533W        W62549  31.979  14.782   5.772  0.0558 -0.0065 -0.2397
19534W        W62550  26.193   4.603  25.391 -0.1632  0.3247 -0.0429
19535W        W62551   2.579   4.059  17.885 -0.1422  0.1566 -0.0712
19536W        W62552  20.218  12.061   3.439 -0.4212 -0.0309  0.0440
19537W        W62553   1.449  22.632  21.754 -0.1556  0.0978 -0.1767
19538W        W62554  30.879  32.023   7.980 -0.1229  0.1996  0.0530
19539W        W62555  20.448  33.462   8.448  0.0771 -0.2049 -0.1497
19540W        W62556   5.096   2.966   1.584 -0.0312  0.2396  0.0362
19541W        W62557  25.773  13.079  20.639  0.0982  0.2510 -0.0389
19542W        W62558   5.675   4.437  17.644  0.0325  0.3146 -0.0255
19543W        W62559  17.593  23.875  24.195 -0.0401 -0.2006 -0.0848
19544W        W62560  32.314   5.495   4.487  0.0518  0.4870 -0.1976
19545W        W62561   2.308  30.290  18.179  0.4003 -0.0114 -0.3701
19546W        W62562  30.281   3.453  18.092  0.3802 -0.1065 -0.1136
19547W        W62563  21.898   7.078  15.504  0.1693 -0.0359 -0.0285
19548W        W62564   6.863   7.675  15.437  0.1922  0.0395 -0.0523
19549W        W62565   0.725  26.563  24.013 -0.3448  0.0815 -0.1468
19550W        W62566  31.247  32.294  19.162  0.4147  0.3631 -0.0743
19551W        W62567  19.379  21.470  20.551 -0.2129  0.0664  0.3046
19552W        W62568  29.129   9.141  22.223 -0.1636  0.1709 -0.1660
19553W        W62569  18.797   9.127  19.811  0.0839  0.0201 -0.2137
19554W        W62570   2.187  25.654   2.250  0.2231  0.0480  0.0304
19555W        W62571  34.619   7.245  20.514 -0.3659  0.3069  0.1245
19556W        W62572  13.665  31.429   4.211 -0.1287  0.2610  0.2474
19557W        W62573  14.552  31.791  24.897 -0.3975  0.2095  0.0936
19558W        W62574  33.404  32.030   4.046 -0.0515  0.1171 -0.0957
19559W        W62575  27.602   7.621  16.605 -0.1313  0.1987 -0.0412
19560W        W62576   5.866  25.490  25.060  0.0505 -0.0580 -0.3400
19561W        W62577  26.251  32.972  19.968  0.1312  0.0949  0.2800
19562W        W62578   1.857  24.478  25.234 -0.4928  0.1450  0.2467
19563W        W62579  34.665  34.015  17.241  0.1068 -0.4413 -0.4144
19564W        W62580  33.396  14.901  17.429 -0.1253  0.1677  0.1948
19565W        W62581   1.477  34.254   1.385 -0.1771  0.5196  0.2240
19566W        W62582   4.611  16.316  16.875  0.0394  0.3046 -0.0643
19567W        W62583  23.365   1.867   3.297 -0.2432  0.1691  0.1390
19568W        W62584  30.219   2.625  17.738 -0.1008  0.0193 -0.2132
19569W        W62585   3.668  26.493  16.429  0.0794 -0.2097 -0.0127
19570W        W62586  34.280  26.400   6.889 -0.0478 -0.0191 -0.0442
19571W        W62587   4.433  13.456  18.517  0.2413 -0.2619 -0.0519
19572W        W62588  12.029  28.583  18.617  0.0921 -0.0732 -0.2026
19573W        W62589  33.820  26.684  23.692 -0.2410 -0.1008 -0.0014
19574W        W62590  16.730  26.632  23.950 -0.2129  0.1658 -0.2684
19575W        W62591  34.393  31.823   5.156 -0.3295 -0.1858 -0.1368
19576W        W62592   7.606   8.742  28.237  0.4562  0.1479 -0.1381
19577W        W62593  21.054  22.487   0.365  0.1825 -0.4702 -0.2882
19578W        W62594  24.078   4.333  27.507  0.0780 -0.0204  0.0304
19579W        W62595  14.133  30.517  14.504  0.3758  0.2743  0.2847
19580W        W62596  17.620   2.781   9.945 -0.2024 -0.0667  0.1789
19581W        W62597   7.050  13.308  13.716 -0.3138  0.1049 -0.3035
19582W        W62598   3.004  29.200  18.605  0.0395  0.1259  0.3039
19583W        W62599  30.231   3.915  10.039 -0.0412  0.0138  0.0937
19584W        W62600  11.227  29.449  17.547 -0.2483  0.0068  0.2494
19585W        W62601  29.981  32.381  16.728  0.0430 -0.0150 -0.0555
19586W        W62602   3.757  11.746  15.066 -0.3632 -0.2586 -0.2070
19587W        W62603   2.453  31.367  15.915 -0.0602 -0.0277 -0.0156
19588W        W62604   2.045  33.801   0.493 -0.0208 -0.1520  0.0863
19589W        W62605   2.014  33.887   3.862 -0.0488  0.0306  0.0495
19590W        W62606   5.062  27.942   0.164  0.3535  0.1889  0.0153
19591W        W62607   9.973   2.494   4.121  0.3886  0.2129  0.1403
19592W        W62608  19.796  21.027  24.923  0.1764  0.3283  0.0282
19593W        W62609   6.807   9.020  26.972 -0.0574  0.0129 -0.2019
19594W        W62610  25.067  28.917  25.962 -0.0547  0.0043 -0.0417
19595W        W62611   7.336  16.207  15.660  0.0719 -0.2568 -0.0519
19596W        W62612   4.719   9.176   5.414  0.2052  0.1372 -0.0116
19597W        W62613  29.099   3.399  19.934 -0.0828  0.0337 -0.0898
19598W        W62614   4.466  29.903   5.338 -0.0969 -0.1258  0.3257
19599W        W62615  26.073  30.399  11.833 -0.0646 -0.1871  0.1120
19600W        W62616   4.429  21.119  27.332 -0.2349  0.1554 -0.0048
19601W        W62617  27.323  29.595   8.349  0.0892  0.3117 -0.0320
19602W        W62618   9.949   0.255  24.927  0.3738  0.1777 -0.1248
19603W        W62619  33.031   7.576   5.407  0.2000  0.1251 -0.1699
19604W        W62620  27.788  28.247   3.090 -0.1856  0.4261  0.1238
19605W        W62621   8.881  30.112  25.916  0.2549  0.1411  0.3710
19606W        W62622  20.624  19.665   6.163 -0.0629 -0.3119  0.1336
19607W        W62623  33.966  29.994   3.243  0.2409  0.1381 -0.0745
19608W        W62624  33.693  32.255  28.306 -0.1334  0.1282  0.5473
19609W        W62625   7.799  28.019  23.351  0.4472  0.2014  0.1218
19610W        W62626  34.052  24.295  28.218  0.1165 -0.2404 -0.1442
19611W        W62627   9.029  21.941  18.156 -0.1365 -0.2556 -0.2441
19612W        W62628   4.149   1.892  19.779  0.1355  0.1693  0.1104
19613W        W62629  33.026  28.888  24.956 -0.4101 -0.2475  0.3357
19614W        W62630  13.232   7.512  17.193  0.1298  0.0280 -0.2502
19615W        W62631   4.588   1.138   4.263  0.1050  0.0819 -0.1345
19616W        W62632  23.749   9.707  16.164  0.0738 -0.2266  0.0238
19617W        W62633  13.379   7.682  27.458  0.0206  0.1169  0.1891
19618W        W62634   7.414   1.112  20.056 -0.0430  0.1813  0.2980
19619W        W62635  21.708  30.723   5.139 -0.0749  0.1290  0.1219
19620W        W62636  31.869   5.186   4.640  0.1296  0.1339  0.0123
19621W        W62637  24.132   7.502  25.477  0.2375 -0.0102  0.3411
19622W        W62638  11.166   8.469  27.887  0.3184  0.1716  0.0299
19623W        W62639  30.382  31.802  28.745  0.0218  0.1083 -0.2367
19624W        W62640  32.538  28.728   5.197  0.3070  0.0048 -0.1340
19625W        W62641   4.089  28.284   2.555  0.4548  0.1386  0.3224
19626W        W62642   9.143   5.063  23.210  0.0801 -0.0171  0.0297
19627W        W62643  17.117  13.766   4.119  0.4741  0.0709  0.1151
19628W        W62644  31.753   6.652   0.070  0.2830  0.2253  0.0817
19629W        W62645  26.400  28.697   2.537  0.0268 -0.4328  0.0825
19630W        W62646  13.681   8.221  26.124  0.0892  0.0389 -0.3770
19631W        W62647  24.336  22.097  20.090 -0.2671  0.0271 -0.0881
19632W        W62648  10.195   4.536   2.885  0.1427  0.0747 -0.1082
19633W        W62649   9.852  32.314  24.006 -0.1823 -0.0646  0.0289
19634W        W62650   1.786   2.709  28.335  0.0029 -0.0389  0.0293
19635W        W62651  26.536  17.499  24.860  0.0614 -0.0603  0.1318
19636W        W62652   0.336  21.713  22.538 -0.0194  0.1062 -0.3365
19637W        W62653  25.156  28.805  19.608 -0.0713 -0.0419  0.2549
19638W        W62654   7.049   6.211   3.437 -0.2272  0.2059 -0.1465
19639W        W62655  14.106   6.728  24.610  0.0921  0.1582 -0.0101
19640W        W62656  12.806  13.832  22.093 -0.0923  0.1777  0.1701
19641W        W62657  33.079   5.652   1.158 -0.0076  0.1055 -0.0968
19642W        W62658  16.801  34.025   5.745 -0.2310  0.0111  0.0920
19643W        W62659  12.078  30.218   9.566  0.1624  0.4913  0.1851
19644W        W62660   2.001  27.171  16.313 -0.1524  0.1350 -0.0452
19645W        W62661  15.200   0.653   8.768 -0.4085 -0.1087  0.1236
19646W        W62662  32.697  26.946  27.472  0.1963 -0.3022 -0.0243
19647W        W62663  32.599  25.740   0.073 -0.2657  0.0753 -0.0877
19648W        W62664  17.300  10.075   1.754 -0.2741  0.0873 -0.1183
19649W        W62665  31.839  31.178  16.517 -0.2022  0.5674  0.0535
19650W        W62666  12.622  26.189   7.334 -0.0972  0.0551  0.3949
19651W        W62667  20.561   3.770  19.173  0.2144  0.0535  0.0990
19652W        W62668  32.946  29.046   9.037  0.0101  0.1719 -0.3624
19653W        W62669   9.643  13.783  18.740 -0.2306 -0.3812 -0.3687
19654W        W62670  16.938  32.885  25.118 -0.1482 -0.1325 -0.0420
19655W        W62671  18.848  29.169  17.099 -0.0123  0.2611  0.1823
19656W        W62672  30.145  32.838  10.273 -0.2066  0.2086  0.0801
19657W        W62673   8.770  11.832   3.283 -0.1156 -0.0018 -0.0405
19658W        W62674  22.570   5.555  22.604 -0.3584 -0.0448 -0.0551
19659W        W62675   2.507   1.396  28.055  0.0511  0.3830  0.1909
19660W        W62676   2.934  12.457   6.582  0.4364  0.1847 -0.1162
19661W        W62677   4.071   5.944  14.505 -0.0054  0.3231 -0.0541
19662W        W62678  34.301  21.251   4.713  0.0535  0.0683  0.2515
19663W        W62679   8.089  22.606   8.826 -0.0374  0.1451  0.1168
19664W        W62680  34.351  23.296  20.981  0.2444 -0.0897 -0.1901
19665W        W62681  11.530  11.581  20.267  0.0451  0.0961 -0.1870
19666W        W62682  16.540  26.451   4.732 -0.0874  0.1967 -0.1361
19667W        W62683   9.691   6.281  27.690 -0.1565 -0.0679 -0.0785
19668W        W62684  27.545  15.101   3.072  0.0332  0.1043  0.0392
19669W        W62685  16.046  32.210  28.377 -0.2124  0.1316 -0.1154
19670W        W62686   0.909  12.037  28.606  0.2282  0.0002 -0.0634
19671W        W62687   6.126  34.450  18.821  0.3100 -0.0420 -0.0749
19672W        W62688   1.012  33.496  14.192 -0.1617  0.0609 -0.0558
19673W        W62689  15.445   9.016   3.001  0.0013  0.0942  0.1630
19674W        W62690  29.133  27.618   6.645  0.4521 -0.2490 -0.0961
19675W        W62691  25.240  33.775   9.291  0.1664 -0.0551 -0.0461
19676W        W62692   9.432  10.767  21.239  0.1251  0.0092  0.2751
19677W        W62693  11.864  11.752   2.846 -0.1767  0.3283  0.1880
19678W        W62694  31.175  18.128  16.625  0.3952 -0.2348 -0.3395
19679W        W62695  23.576  27.658   2.055 -0.2085  0.1073  0.1602
19680W        W62696   1.733   2.379   3.045 -0.0593 -0.0211 -0.1305
19681W        W62697  22.855  27.325   9.779  0.0059  0.0490  0.0318
19682W        W62698  26.326  30.727  23.914 -0.0751 -0.3101 -0.2411
19683W        W62699   3.602  13.527  17.908  0.0182  0.2215  0.1198
19684W        W62700  23.135  18.960  25.313  0.4133  0.0027 -0.3607
19685W        W62701  12.650  20.062  24.732  0.1271  0.0868  0.1621
19686W        W62702   3.962  15.690   3.440 -0.2521 -0.0184  0.0143
19687W        W62703   0.157   2.332  21.955 -0.0508 -0.0279  0.0620
19688W        W62704  14.147   9.412  22.222 -0.1101  0.0576  0.0606
19689W        W62705  32.345   2.714  21.797  0.1433  0.1345  0.3032
19690W        W62706   9.049  22.592  26.099 -0.0613  0.1123  0.2261
19691W        W62707  29.865  33.744   2.359  0.0011  0.0323  0.0271
19692W        W62708  12.335  16.235  20.524 -0.0625 -0.2097 -0.2062
19693W        W62709  34.295   4.219  24.727 -0.1752 -0.0880  0.2900
19694W        W62710   5.880  27.842   7.723 -0.1349  0.0968 -0.0462
19695W        W62711   8.956  29.250  23.321 -0.0058 -0.2590 -0.2215
19696W        W62712  34.101  31.199  19.520  0.2906  0.0914 -0.0397
19697W        W62713  16.221  30.354  25.206  0.1232 -0.3578 -0.2203
19698W        W62714  15.203  33.106   1.261  0.0143  0.0355  0.3447
19699W        W62715   0.347  34.008  17.462 -0.0454 -0.1470  0.3470
19700W        W62716  24.563  24.722   4.839 -0.4023 -0.2411 -0.1859
19701W        W62717   9.573  13.554  16.459  0.1869 -0.3850  0.1262
19702W        W62718  13.376  31.874   4.205 -0.1216  0.0795  0.1207
19703W        W62719  31.618  33.259   2.314 -0.1367 -0.0340  0.1819
19704W        W62720   2.037   3.228   5.516  0.1064  0.1652 -0.1114
19705W        W62721  24.072  13.845  19.534  0.1980 -0.0625 -0.2332
19706W        W62722  30.390   8.886  26.538 -0.1087  0.4073 -0.2868
19707W        W62723  20.991  13.322   0.787 -0.1001 -0.1078 -0.2959
19708W        W62724   2.311  15.294  25.577 -0.0800 -0.0425  0.0816
19709W        W62725   7.304  10.142  20.396  0.1532  0.1800  0.3315
19710W        W62726   8.844  28.196  19.996 -0.3147  0.2110 -0.0354
19711W        W62727   6.893  23.435  19.391  0.0552 -0.1513  0.3854
19712W        W62728  19.247  29.608  28.578 -0.1051  0.2176  0.1517
19713W        W62729   2.543  33.981   3.758  0.0998  0.0420 -0.2162
19714W        W62730   8.709  22.740  18.219 -0.0530  0.2017  0.4392
19715W        W62731  32.048  28.400  24.113 -0.0197 -0.1414  0.0618
19716W        W62732  31.905   4.319   2.787 -0.1315  0.2475  0.2319
19717W        W62733   8.707  12.977  17.439  0.0167  0.1533 -0.2775
19718W        W62734  28.911  25.908  26.074 -0.0793 -0.4070 -0.0317
19719W        W62735  10.270  29.149  23.847 -0.2630 -0.0691 -0.3271
19720W        W62736  26.430  32.110   7.371  0.1635 -0.3235  0.1654
19721W        W62737  26.406   6.782  23.660 -0.1857  0.2081 -0.1224
19722W        W62738   3.368  30.819  25.824 -0.0973  0.1206 -0.0732
19723W        W62739  11.480  16.420  20.175 -0.1068 -0.2399  0.1151
19724W        W62740  21.466   0.303  19.311  0.2280 -0.1254  0.0775
19725W        W62741  17.503  11.685   4.087  0.0029 -0.2459  0.0512
19726W        W62742  20.093  31.133   9.710 -0.0788  0.1004 -0.0236
19727W        W62743  20.066   6.387  26.543 -0.2507  0.1077  0.0128
19728W        W62744   1.415   2.490  18.258  0.1767 -0.3112 -0.2079
19729W        W62745   7.986  30.347  25.730  0.1288 -0.2600  0.0461
19730W        W62746  10.204   1.742  26.798 -0.2261 -0.1835  0.0863
19731W        W62747   1.651  24.505  16.439 -0.3964 -0.4933  0.3320
19732W        W62748  30.388  26.834  25.211 -0.2070  0.2216 -0.0925
19733W        W62749  10.983  27.003  28.480 -0.2240 -0.3297  0.3377
19734W        W62750  25.602  33.549   4.988 -0.1012  0.4996 -0.0817
19735W        W62751   4.321  23.607  15.751 -0.2273 -0.1463 -0.2076
19736W        W62752   5.259  17.187  16.900  0.0515  0.0444 -0.4355
19737W        W62753  33.837   9.577  19.131  0.0313  0.1567  0.0932
19738W        W62754  19.684   1.951   3.301  0.1362 -0.2091 -0.4389
19739W        W62755   3.206   8.484   7.508 -0.1769 -0.3038 -0.1693
19740W        W62756  14.881  25.090   8.337  0.0901 -0.0801  0.2086
19741W        W62757  11.716  25.857  12.567 -0.0530 -0.0197 -0.3378
19742W        W62758   4.779   2.243   3.430 -0.0661 -0.0759 -0.1807
19743W        W62759  30.452   6.805  26.714 -0.1670 -0.0368 -0.0663
19744W        W62760  13.126   2.561   6.392 -0.1821  0.0488  0.2860
19745W        W62761   1.559   1.894   5.154 -0.1228  0.1660  0.3633
19746W        W62762  32.892  29.905  25.639 -0.2642 -0.0136 -0.0900
19747W        W62763  17.857  28.946   3.644  0.1539  0.1999  0.0237
19748W        W62764  20.700  34.703  22.303 -0.1105  0.2965  0.1839
19749W        W62765  15.391  28.770  19.238  0.2479  0.2127 -0.1400
19750W        W62766  19.447  23.568  24.809  0.1709 -0.1305  0.1143
19751W        W62767   6.181   3.633  19.833 -0.3251  0.3333 -0.4423
19752W        W62768  11.501  25.379   3.456 -0.0041 -0.2186 -0.0842
19753W        W62769  34.190  24.518  16.274 -0.0184 -0.3197 -0.2152
19754W        W62770  21.031  26.583  24.536 -0.0355  0.0308 -0.1491
19755W        W62771   4.662  30.490   0.842  0.0395  0.0518  0.0686
19756W        W62772  14.993  29.504  23.283  0.2527  0.0641 -0.1006
19757W        W62773   5.541  10.195  27.739  0.0907 -0.5272 -0.1459
19758W        W62774  28.498   2.135   2.729  0.3876 -0.3369  0.1481
19759W        W62775  30.327  32.570  28.543  0.3733  0.2366  0.0737
19760W        W62776  26.858  28.127   6.739  0.0389 -0.3073 -0.0620
19761W        W62777  12.765   0.030  25.486 -0.0384  0.1116  0.0176
19762W        W62778  26.360  23.400  25.770 -0.1278 -0.0419  0.2115
19763W        W62779   5.844  19.911   2.539 -0.1840 -0.3213  0.1305
19764W        W62780  31.736  26.619  19.926  0.0408  0.1323  0.3561
19765W        W62781   0.293   2.313  18.942  0.0030  0.0948  0.0540
19766W        W62782  30.127   7.837   3.130 -0.0616  0.0700 -0.1972
19767W        W62783   3.040  30.907  10.707  0.2338  0.2166  0.2592
19768W        W62784   3.105  15.617   7.280  0.0281  0.1979  0.2202
19769W        W62785  11.613   8.187   9.054 -0.0199  0.0138 -0.0825
19770W        W62786  15.659  33.320   1.296  0.0865  0.0355 -0.1967
19771W        W62787   7.527   0.673  19.816 -0.0145  0.2767 -0.1031
19772W        W62788   0.442   0.527   6.569  0.3062  0.1427  0.3356
19773W        W62789  33.374  10.727  10.602  0.1191 -0.0347 -0.0514
19774W        W62790  21.996  12.188   0.344 -0.0507 -0.0862 -0.1198
19775W        W62791   2.914  25.693  26.428  0.3385 -0.2615 -0.3739
19776W        W62792  33.416   9.163  24.510 -0.1458 -0.2581  0.1661
19777W        W62793  25.454  27.329  16.047  0.1222 -0.0019  0.1533
19778W        W62794  26.035  26.029  26.164  0.3350  0.3912 -0.0600
19779W        W62795   8.349  27.144  10.009 -0.2053  0.0498  0.2356
19780W        W62796  18.148  28.230  25.877  0.0046 -0.0595 -0.0490
19781W        W62797  29.493   8.320   4.517 -0.1442  0.3410 -0.3221
19782W        W62798  15.354  32.587   2.724 -0.1404  0.1014 -0.0882
19783W        W62799  24.503  16.692  27.268  0.1649  0.1452  0.0813
19784W        W62800   1.609  17.248   6.780 -0.0734  0.0619  0.1488
19785W        W62801  15.892  25.822   1.823  0.0101  0.0219 -0.0514
19786W        W62802  16.595   0.862  20.575  0.0205  0.2004 -0.1500
19787W        W62803  21.870  27.785  28.919 -0.2324  0.2085 -0.1821
19788W        W62804   9.036   2.900   5.230 -0.0403  0.1072  0.1385
19789W        W62805  34.299  28.283  28.249 -0.3178  0.2895  0.2311
19790W        W62806  23.107   8.032   6.656  0.0748 -0.1418 -0.2995
19791W        W62807  22.905  18.993  24.500 -0.1315  0.2294 -0.1948
19792W        W62808  31.880  17.534   6.653 -0.0772 -0.3452 -0.1203
19793W        W62809  26.899  21.922   8.450  0.0858 -0.3231 -0.0350
19794W        W62810  33.079  19.667   1.886  0.0818  0.2073  0.3903
19795W        W62811   3.515  33.245  17.092 -0.2887 -0.1566 -0.1961
19796W        W62812  17.784   3.829   4.445  0.1367  0.0598  0.1083
19797W        W62813  20.763   0.864  29.173  0.2608  0.1078 -0.0138
19798W        W62814  31.390   1.606  20.279 -0.4017  0.3355  0.2043
19799W        W62815   4.109  19.202  19.349  0.0227  0.0825  0.3024
19800W        W62816   6.680   4.797   9.086 -0.0014 -0.2169  0.2502
19801W        W62817   6.968  31.999   4.578 -0.0339 -0.0312 -0.1034
19802W        W62818  27.141  31.959  22.090  0.0147  0.1062  0.1577
19803W        W62819  14.656  29.052  23.878  0.0071  0.1005 -0.1699
19804W        W62820   5.542  10.129   3.690 -0.1928 -0.1049  0.0612
19805W        W62821  32.226  30.940  20.540  0.4179  0.0257 -0.0914
19806W        W62822   5.043  29.223   3.369  0.0031  0.1523 -0.2588
19807W        W62823   7.768   5.012  28.520  0.1496  0.1388 -0.2065
19808W        W62824  32.201  19.259  29.235 -0.0597 -0.0664 -0.2364
19809W        W62825  16.480  25.579  19.445  0.1997  0.0321  0.2351
19810W        W62826  27.557  28.974   5.336  0.3216  0.1003  0.0075
19811W        W62827  21.688  25.433   3.564  0.0690  0.2590  0.1192
19812W        W62828  16.413   9.740  23.341  0.0564 -0.0013  0.2828
19813W        W62829   5.900  21.629  25.524  0.3121  0.0762 -0.0563
19814W        W62830  23.986  14.894  17.518 -0.2119  0.0177 -0.3528
19815W        W62831   2.803  33.232  23.402 -0.1918  0.0286  0.1844
19816W        W62832  11.540   1.770  20.716  0.1625  0.0644 -0.0897
19817W        W62833  25.524  29.664  24.082 -0.0687 -0.1617 -0.2909
19818W        W62834  30.804   1.380  29.318 -0.0795  0.2097 -0.1017
19819W        W62835  27.645  34.342  21.562 -0.0201 -0.1938 -0.1335
19820W        W62836   4.001  29.684  29.301  0.0051  0.3184  0.1709
19821W        W62837  31.157  27.346   5.771  0.2227 -0.4309  0.2772
19822W        W62838  32.506  27.689  26.190  0.1777  0.0017  0.1882
19823W        W62839  12.268   8.161  13.278 -0.0538  0.2390  0.0766
19824W        W62840  30.083  25.351  22.919 -0.0848  0.2422  0.1080
19825W        W62841   5.316   4.087  19.469 -0.0301  0.2319  0.2289
19826W        W62842   2.243  10.872   8.215 -0.0384  0.0482 -0.0597
19827W        W62843   4.360   7.552  21.427 -0.0919 -0.0152 -0.0916
19828W        W62844  22.000  26.830  15.711  0.2823 -0.0456  0.2100
19829W        W62845   3.032  33.631  16.483 -0.1068 -0.2158  0.1465
19830W        W62846  25.401  29.129   0.140  0.0171 -0.1863 -0.1114
19831W        W62847   9.204   8.844  17.759 -0.0308 -0.1241  0.0450
19832W        W62848  25.071  34.450  27.252 -0.0762  0.2628  0.1222
19833W        W62849  10.030  34.329  17.576  0.1065  0.1550 -0.0008
19834W        W62850   5.923  22.504   0.976  0.0999 -0.2419 -0.2220
19835W        W62851  32.795   8.073  21.298  0.1468  0.0695  0.4460
19836W        W62852  31.925   9.166  21.971 -0.1595  0.1848  0.4311
19837W        W62853  17.579  30.566  19.935  0.4879  0.2655  0.2029
19838W        W62854   9.479  33.351   4.451  0.1189 -0.1413  0.0626
19839W        W62855  16.896  27.986  26.249 -0.0312  0.1129  0.0679
19840W        W62856  27.892   0.306  18.037  0.4292  0.0750 -0.0530
19841W        W62857   8.983  12.245  24.025  0.0752  0.4342 -0.2540
19842W        W62858   7.214   4.927   0.963 -0.0796 -0.2208 -0.2301
19843W        W62859  11.724   4.547  15.636 -0.0169  0.0548 -0.1680
19844W        W62860  19.260  32.307  22.312  0.1726  0.0113  0.0315
19845W        W62861   4.028   7.287  16.017 -0.2606  0.1500 -0.0916
19846W        W62862  14.891  31.952  16.293 -0.0307  0.2586 -0.2994
19847W        W62863   0.349   9.970  15.407  0.1535 -0.0967 -0.1121
19848W        W62864  18.875  29.687  19.753 -0.1429  0.3210 -0.0071
19849W        W62865  10.427  30.648  21.425 -0.2223 -0.3544 -0.0625
19850W        W62866   9.653  29.350  18.278  0.1364 -0.0459  0.0479
19851W        W62867  10.845  12.686  15.498  0.0854 -0.2401  0.2839
19852W        W62868   9.463   0.550   8.189 -0.1080 -0.1470  0.1396
19853W        W62869   4.437  12.267  19.335 -0.0249 -0.0093  0.2046
19854W        W62870  27.118   1.495  15.605  0.1264  0.2326 -0.3240
19855W        W62871   8.658  25.966  21.479  0.2183 -0.1756 -0.1270
19856W        W62872   1.965   8.082  16.790 -0.0114 -0.1401 -0.4407
19857W        W62873  14.327  25.682  20.943  0.2755 -0.1383 -0.1102
19858W        W62874  30.071   7.912  19.490  0.1871 -0.1651 -0.1977
19859W        W62875  19.728  33.069  15.931 -0.0844  0.2470  0.0599
19860W        W62876   6.797  14.403  17.832  0.1028  0.0650 -0.6016
19861W        W62877   5.821  26.772  18.262 -0.2544  0.0559 -0.3105
19862W        W62878  10.063   7.351  22.960  0.2139 -0.0360  0.1139
19863W        W62879  25.319   1.179  25.427 -0.1514 -0.0457  0.1132
19864W        W62880  33.477   5.409  15.265  0.3004  0.1645 -0.0743
19865W        W62881  29.583  32.565  24.024 -0.0278 -0.2279  0.0992
19866W        W62882  12.230  18.596  15.592  0.1275 -0.1754  0.1878
19867W        W62883  27.160   9.979  16.967 -0.0695  0.0171  0.0013
19868W        W62884   5.992  24.043  18.540 -0.5733 -0.1187 -0.1355
19869W        W62885  12.432   3.502  20.925 -0.1669 -0.1317  0.0808
19870W        W62886  18.541  22.688  26.797  0.5060  0.1421  0.0924
19871W        W62887   0.861   9.536  29.181  0.1768 -0.2361  0.1072
19872W        W62888   8.107  31.493  18.075 -0.2508  0.0927  0.1063
19873W        W62889   5.798   2.293  26.489  0.2947  0.0620  0.2483
19874W        W62890   7.778  32.731  18.880 -0.2745 -0.1412 -0.1369
19875W        W62891  15.538  28.083  18.911 -0.0323 -0.0892  0.2392
19876W        W62892  34.070   4.587  24.412  0.0920 -0.0649  0.3261
19877W        W62893   0.402  33.635  18.977 -0.0200 -0.1529 -0.1134
19878W        W62894   1.500   1.624  16.490 -0.0288 -0.2078  0.0371
19879W        W62895   6.974  21.564  16.777  0.1009 -0.3568 -0.0339
19880W        W62896  34.176   2.275  23.245  0.1141  0.1090 -0.1959
19881W        W62897   8.257  26.397  26.369  0.2381  0.2707 -0.0308
19882W        W62898   7.912  34.048  21.242  0.2020  0.0132  0.0340
19883W        W62899  30.559  24.715  25.179 -0.3270  0.0894 -0.0886
19884W        W62900  10.758  28.113  24.697 -0.3682 -0.1761  0.0238
19885W        W62901  25.966  34.374  16.290 -0.1031  0.0796  0.1823
19886W        W62902   8.267   3.171  18.940  0.1145  0.4025  0.0529
19887W        W62903  28.944   3.549  16.670  0.3046  0.0524 -0.1792
19888W        W62904  14.331  32.345  15.691 -0.1463  0.0653  0.0464
19889W        W62905   7.073   0.237  14.723  0.0163  0.1856  0.1867
19890W        W62906  10.781   9.093  22.020  0.0306 -0.2750 -0.0585
19891W        W62907   4.289  10.861   0.676  0.0741 -0.1298 -0.5340
19892W        W62908  11.458   9.708  28.238 -0.2635  0.0138  0.1486
19893W        W62909   8.519  30.634  19.977 -0.1690  0.1058 -0.1772
19894W        W62910   8.523  10.858  21.639 -0.3139 -0.0793 -0.2461
19895W        W62911  28.387  32.767   5.446  0.1631 -0.0783 -0.2510
19896W        W62912  18.643  31.707  24.357 -0.1048  0.0913  0.0986
19897W        W62913   0.035   7.419  19.086 -0.2973  0.2663 -0.1290
19898W        W62914  14.451   3.749  28.407 -0.0736  0.0674 -0.0699
19899W        W62915  25.000  15.883  20.582 -0.1028  0.0319  0.3311
19900W        W62916   3.541  31.838  16.535  0.0635 -0.0921  0.1791
19901W        W62917   5.836   3.246  21.304  0.0835 -0.1357  0.1518
19902W        W62918   2.678   2.359  19.484  0.1427  0.0583 -0.0368
19903W        W62919   4.533   6.414  20.124  0.1636 -0.0806 -0.0610
19904W        W62920  11.629  28.867   0.687  0.2517 -0.1472 -0.2191
19905W        W62921   9.543   9.399  19.163  0.1953  0.0475 -0.1082
19906W        W62922   7.170   7.352  22.605  0.1229 -0.1633  0.0310
19907W        W62923   4.513   5.487  21.794 -0.2100 -0.4050 -0.0455
19908W        W62924  10.574   9.109  15.570  0.3324  0.0587 -0.2477
19909W        W62925   4.589  31.753  25.687  0.0041  0.0331  0.2436
19910W        W62926   1.174  33.105  19.264 -0.2004  0.2905  0.2836
19911W        W62927  28.440  28.920  18.340  0.1365  0.0945 -0.2997
19912W        W62928  31.617  32.348  17.339 -0.0638  0.1050 -0.0695
19913W        W62929  25.580   7.236  15.082  0.2226 -0.0170  0.2482
19914W        W62930  23.754  34.521  25.386  0.0880  0.1494  0.2737
19915W        W62931  28.919   6.219  22.676 -0.0523  0.0764 -0.2538
19916W        W62932  30.482   0.757  17.885 -0.2224 -0.3261 -0.2777
19917W        W62933   2.678  34.159  26.342  0.1176 -0.0350 -0.0021
19918W        W62934   7.354   5.634  20.938 -0.4661  0.1516 -0.0930
19919W        W62935   1.654   8.760  19.274 -0.1133 -0.1428 -0.0205
19920W        W62936  30.369  30.264  27.163 -0.0325  0.0060  0.0319
19921W        W62937   2.378  21.163  15.015 -0.1574 -0.0312 -0.0383
19922W        W62938  29.904   7.521  16.439  0.1468 -0.0532  0.1652
19923W        W62939  25.348   5.354  16.283 -0.2459  0.4330  0.0029
19924W        W62940  33.670   4.717  17.507  0.1962 -0.0779 -0.0603
19925W        W62941   5.390   4.661  21.978  0.2784  0.0188  0.2910
19926W        W62942  10.007  24.088  26.017  0.3280  0.1189 -0.0544
19927W        W62943   5.108  11.082  17.436  0.1191  0.4043  0.1188
19928W        W62944  27.205  18.876  26.408  0.0918  0.0531  0.0013
19929W        W62945  18.688   1.453  27.693  0.0224  0.3108 -0.2166
19930W        W62946   4.389   2.732  23.249  0.2739 -0.0582 -0.2227
19931W        W62947  12.841   8.656  28.418 -0.1388  0.2805 -0.4980
19932W        W62948  31.763   8.277  17.987  0.0571  0.1899  0.0839
19933W        W62949   8.585  33.205  20.274  0.4287 -0.1877 -0.0827
19934W        W62950  17.793  34.638  17.553  0.0293  0.0439 -0.0379
19935W        W62951  27.951  13.233   2.244  0.0377 -0.1565  0.2205
19936W        W62952   8.951  33.475  26.470 -0.0574 -0.0546 -0.0346
19937W        W62953  10.723  28.995  15.924 -0.0114 -0.0989  0.1343
19938W        W62954  19.157   4.625  18.612 -0.1377 -0.4905 -0.2646
19939W        W62955  14.179  33.825  20.800 -0.0276 -0.0153 -0.2344
19940W        W62956  33.833  30.920  15.730 -0.1795 -0.2327 -0.1617
19941W        W62957   0.969  26.750  23.577  0.0405 -0.0045  0.4350
19942W        W62958  28.642  25.259  15.972 -0.2904  0.1069 -0.2034
19943W        W62959   8.177   4.129  15.696  0.2130  0.0153 -0.1101
19944W        W62960  11.802  11.996  20.556 -0.1768 -0.0073  0.1719
19945W        W62961  25.848  11.946  14.848  0.3641 -0.0091  0.0305
19946W        W62962   8.291  17.972  27.729 -0.2017  0.2229  0.3537
19947W        W62963   4.429  32.587   0.114 -0.0402  0.3087  0.0190
19948W        W62964   6.396  10.597  14.440 -0.0339  0.2666  0.2369
19949W        W62965  20.365  12.842  12.441 -0.2206 -0.2328 -0.0568
19950W        W62966   1.761  31.288  16.437  0.2501  0.3050 -0.0401
19951W        W62967   1.517  18.276  17.789 -0.1466  0.1368 -0.1339
19952W        W62968  27.787   9.762  16.343 -0.2163 -0.2326  0.0523
19953W        W62969   5.620   8.432  16.297  0.1874  0.0136  0.2072
19954W        W62970   8.557  23.270  18.774  0.2414 -0.1524  0.2350
19955W        W62971   1.165  24.978  18.864  0.0369  0.1407  0.1540
19956W        W62972   9.482   7.758  20.049  0.0384  0.0269 -0.0434
19957W        W62973  10.367   2.967  19.544 -0.1088 -0.0317  0.3651
19958W        W62974  10.182   1.324  19.332  0.3169  0.0403 -0.1143
19959W        W62975   5.343   2.913   3.168  0.1481  0.4059  0.0521
19960W        W62976  11.835  32.967  14.544  0.0162 -0.2213  0.0705
19961W        W62977  20.832  23.817  13.846 -0.1566 -0.1546  0.0365
19962W        W62978   8.057  23.848  14.621  0.0572  0.0865  0.0775
19963W        W62979   6.377  15.123  14.979  0.1457 -0.1316 -0.3138
19964W        W62980  29.354   8.498  20.393 -0.0370  0.3333 -0.0872
19965W        W62981  11.767   1.244  17.090  0.2496  0.0073 -0.0606
19966W        W62982  28.433   0.989  17.526  0.0174 -0.0461  0.1932
19967W        W62983  30.434  30.182  25.529 -0.1256 -0.0632 -0.0447
19968W        W62984  19.437  27.311  20.192  0.3006 -0.0931 -0.2886
19969W        W62985  10.537  17.646   4.209  0.1786  0.1452 -0.1399
19970W        W62986  21.318  22.459  17.332  0.0657 -0.5459  0.0943
19971W        W62987   4.058  15.323  17.253 -0.1691 -0.1758 -0.1373
19972W        W62988   6.219   2.805  19.636 -0.0403  0.0195 -0.1404
19973W        W62989  32.636  27.978  23.000 -0.0392 -0.1890 -0.1170
19974W        W62990  34.076  26.800  16.663 -0.0734  0.0768  0.1983
19975W        W62991  33.996   6.624  19.858  0.3458 -0.4071  0.3295
19976W        W62992   1.864   9.397  24.185 -0.3468 -0.2629 -0.1215
19977W        W62993   3.866  27.057  22.075 -0.0734 -0.2447  0.3414
19978W        W62994  16.993   7.993  26.832 -0.3272 -0.0005  0.0705
19979W        W62995   7.582   7.973  22.239  0.0940  0.3309  0.2215
19980W        W62996  32.825   5.710  16.882  0.1158  0.0335  0.0976
19981W        W62997  20.545   1.437  27.698 -0.0446 -0.0078 -0.2008
19982W        W62998  27.687  28.405  21.850  0.2117 -0.1423  0.0511
19983W        W62999  29.816  32.162  22.277 -0.0280  0.1447 -0.2048
19984W        W63000   9.519  30.302  22.701  0.0426 -0.2331 -0.1953
19985W        W63001  10.884   3.426  16.770  0.1270  0.1267  0.2450
19986W        W63002   0.867  26.393  20.066  0.0080 -0.0894  0.3633
19987W        W63003  28.094   2.308  17.797  0.2817  0.2022 -0.0556
19988W        W63004  18.305   0.007  24.911 -0.2164 -0.0395 -0.1648
19989W        W63005  30.261  31.207  24.181 -0.0539  0.0329 -0.0350
19990W        W63006   6.753   6.989  19.037  0.0961  0.2879  0.0141
19991W        W63007  23.094  26.624  28.181  0.0732  0.0268 -0.0593
19992W        W63008  31.120  24.663  24.999 -0.0277  0.1979 -0.0014
19993W        W63009   8.407  21.142  26.026  0.2221 -0.2179  0.0131
19994W        W63010  13.054  33.060  15.836 -0.2381 -0.1250 -0.1140
19995W        W63011   6.710  27.633  16.526 -0.1831 -0.0309  0.0979
19996W        W63012  26.048  23.173  22.308  0.2433  0.0347  0.2222
19997W        W63013   8.359  27.728  14.627 -0.0582  0.0314  0.1900
19998W        W63014  15.000   1.486  21.322  0.0918 -0.0546 -0.1320
19999W        W63015   9.583  33.787  22.081  0.0530  0.0030  0.1112
20000W        W63016   5.569  27.641  23.330 -0.0568  0.0757 -0.2369
20001W        W63017   7.308   2.561  23.371  0.1756 -0.1518  0.1227
20002W        W63018  28.994  13.269  20.957 -0.1151  0.0415 -0.0505
20003W        W63019  31.337  11.407  21.574 -0.0908  0.0308 -0.1125
20004W        W63020   4.653   7.713  21.034  0.0092 -0.0825  0.3340
20005W        W63021  15.502   2.358  13.731 -0.0446 -0.0764 -0.0437
20006W        W63022  34.435  29.260  22.700 -0.0798  0.1197  0.2104
20007W        W63023  15.163  12.499  14.681  0.2393 -0.0962 -0.3936
20008W        W63024   0.395   4.954   0.369 -0.1305 -0.0108 -0.0213
20009W        W63025  17.248   1.907  24.073 -0.2142 -0.0085 -0.2255
20010W        W63026  22.316  32.722  17.985 -0.1495  0.0868  0.1650
20011W        W63027  20.038  29.765  18.150 -0.0463  0.2175 -0.0631
20012W        W63028  13.761   5.576  20.492 -0.4174  0.0005  0.1829
20013W        W63029  13.814  33.021  28.762  0.0136  0.0170 -0.1052
20014W        W63030  11.390  31.590  24.822 -0.2159 -0.0795  0.1593
20015W        W63031  25.279  29.516  17.892  0.2415 -0.2644  0.1926
20016W        W63032   0.263  23.472   1.917  0.0478  0.1222 -0.1541
20017W        W63033   1.692  11.778  16.583 -0.2606 -0.0630  0.2514
20018W        W63034  16.636   4.421  17.366 -0.0657 -0.2607  0.1581
20019W        W63035   2.750   6.798  22.025 -0.3253 -0.0940 -0.2957
20020W        W63036  32.887  25.114  17.378 -0.0144 -0.0199  0.1033
20021W        W63037   8.294  12.967  18.300  0.2930 -0.2166 -0.1365
20022W        W63038   7.399   5.713  15.215  0.1455 -0.1445  0.0649
20023W        W63039   8.505  27.289  19.379  0.1076 -0.1734 -0.1327
20024W        W63040  10.982   6.064   9.882 -0.0334 -0.0119 -0.4319
20025W        W63041   3.047   2.191  18.145  0.2693 -0.0159 -0.0024
20026W        W63042  17.653   3.853  23.190  0.0001  0.1890 -0.0067
20027W        W63043  10.711   5.858  20.067  0.0258 -0.0140 -0.2307
20028W        W63044  30.818  32.586   6.945 -0.2347 -0.0023  0.0324
20029W        W63045  16.863  25.252  14.642  0.0638  0.0134  0.1833
20030W        W63046  33.073  29.964  16.627 -0.1838 -0.1460 -0.0378
20031W        W63047  20.034  23.115  22.341  0.0024 -0.1465  0.1390
20032W        W63048   0.057  34.096  18.238  0.1726  0.2124 -0.1523
20033W        W63049  10.536  18.028  17.378 -0.3724 -0.0333  0.0172
20034W        W63050   5.655  21.659  20.625 -0.0341  0.1492  0.1089
20035W        W63051  14.957  24.180  26.889 -0.0487  0.0124  0.1080
20036W        W63052   9.702  10.027  23.593 -0.1281  0.0699 -0.0272
20037W        W63053   5.530  34.530  17.427 -0.2139 -0.1164  0.0198
20038W        W63054  22.086   6.498  21.068 -0.1876 -0.2571  0.1308
20039W        W63055  13.809   5.216  15.169 -0.1170  0.1502  0.0054
20040W        W63056  34.297   3.255  19.232  0.1060 -0.0609  0.0391
20041W        W63057  11.994   7.458  16.838 -0.1094  0.1375 -0.4794
20042W        W63058   3.091   8.305  18.321  0.1118  0.3076 -0.1552
20043W        W63059   7.110   6.802   2.265 -0.1186  0.0305 -0.3571
20044W        W63060  33.226  26.646  18.245  0.0070  0.2154 -0.0575
20045W        W63061  11.440  33.598  17.262 -0.0897 -0.3459  0.1074
20046W        W63062  11.677  20.971  13.989 -0.0121 -0.0493  0.2577
20047W        W63063  25.740   8.632  23.514  0.2027  0.1976  0.1371
20048W        W63064   4.606  11.301  18.797 -0.1461  0.2521  0.0448
20049W        W63065   9.930  32.386  16.489  0.1570  0.0896  0.1255
20050W        W63066  25.505   3.058  20.479 -0.3742  0.1234  0.3858
20051W        W63067   9.283  18.653  14.222 -0.4997 -0.1727 -0.0624
20052W        W63068  33.429   8.555  21.267  0.4870  0.1498 -0.0697
20053W        W63069   9.790  15.795  16.221  0.1203  0.1110  0.3435
20054W        W63070  22.441   2.918  19.796 -0.0690 -0.0074 -0.1866
20055W        W63071  31.340  14.542  15.234  0.0641 -0.1831 -0.0741
20056W        W63072   9.511  28.656  26.544 -0.1633  0.0715 -0.0468
20057W        W63073   3.040  28.360  18.928  0.0888  0.0638 -0.1987
20058W        W63074  25.529  30.046   7.684  0.0470 -0.2116  0.1243
20059W        W63075  11.221  32.719  23.224 -0.1130  0.3139  0.3204
20060W        W63076   5.648  32.805  14.380 -0.0329 -0.2405  0.0312
20061W        W63077   1.385   8.956  27.171 -0.2597  0.0167 -0.0907
20062W        W63078  33.947  26.661  21.409 -0.0236 -0.1459  0.0300
20063W        W63079   8.971   2.868  29.086  0.1570 -0.3028  0.0069
20064W        W63080  20.994   4.876  23.390 -0.1147 -0.1656  0.1526
20065W        W63081  24.092   6.369  19.627 -0.0028 -0.0067 -0.1299
20066W        W63082   1.857  27.234  13.465 -0.0506  0.0731 -0.2123
20067W        W63083  34.252   5.170  25.086  0.1106 -0.0168 -0.1134
20068W        W63084  11.324   4.892  27.136  0.5462  0.1355  0.1018
20069W        W63085  28.855  12.790  23.487 -0.0080 -0.3617  0.0410
20070W        W63086   8.196  30.212  14.839 -0.1870  0.0363  0.0094
20071W        W63087  16.466   1.814  18.831 -0.1334 -0.1144 -0.1137
20072W        W63088   6.104  27.320  19.434  0.1001  0.0046  0.1553
20073W        W63089  15.603  33.912  17.158 -0.1838  0.1894 -0.2991
20074W        W63090   3.509  30.027  27.071  0.3460 -0.1377 -0.0046
20075W        W63091  28.297  30.408  25.637  0.2035  0.1964  0.0463
20076W        W63092  12.578  20.298  17.247 -0.1542 -0.1155  0.1186
20077W        W63093   5.190  27.806  16.887  0.1017  0.2503  0.0791
20078W        W63094   7.317   5.505   5.654 -0.2627  0.3945 -0.3107
20079W        W63095  23.019  12.874  23.267 -0.0300  0.0916 -0.3380
20080W        W63096  25.192  32.482  15.746  0.2757  0.0921 -0.0954
20081W        W63097   7.940  31.425  17.543  0.0124 -0.2694  0.2787
20082W        W63098  11.929   1.782  26.199 -0.0962  0.2949  0.1085
20083W        W63099   4.956   5.307  19.316  0.0114  0.0561  0.1020
20084W        W63100  33.460  29.961  28.681  0.3386  0.0268  0.1954
20085W        W63101   4.708  31.441  17.899  0.1487 -0.0027  0.0562
20086W        W63102   7.040   0.312  21.867 -0.2805 -0.2969  0.2355
20087W        W63103  12.620   7.101  16.077 -0.0769 -0.3651 -0.0160
20088W        W63104  21.717  29.450   1.326  0.2461  0.1055  0.0227
20089W        W63105  31.151  31.507   3.585  0.1230 -0.0674 -0.3553
20090W        W63106   9.090  34.455  16.356  0.3834 -0.2726 -0.1242
20091W        W63107   1.933  28.328  28.515 -0.1847 -0.0071  0.0194
20092W        W63108  16.444  19.806  15.132 -0.0420  0.0483  0.1479
20093W        W63109   7.528   1.903  23.005  0.0769 -0.0245  0.0022
20094W        W63110  15.370   8.742  22.791 -0.3308  0.0833  0.2330
20095W        W63111  23.136   5.499  14.329  0.2045 -0.0066 -0.0284
20096W        W63112   8.344   8.558  25.971 -0.0835 -0.1018  0.0593
20097W        W63113   7.581   0.423  16.580 -0.0125 -0.4431  0.0902
20098W        W63114   4.058  20.140  14.824 -0.1367 -0.0231  0.1549
20099W        W63115  16.475   4.125  26.969 -0.2211 -0.2561 -0.1786
20100W        W63116  16.259   3.511  23.873 -0.1309 -0.0786  0.1847
20101W        W63117  33.257  13.255  15.834  0.3349 -0.1941  0.0155
20102W        W63118   3.124  11.609  16.526 -0.0500  0.1545 -0.0538
20103W        W63119   6.725  13.574  16.838 -0.1085  0.1316  0.0786
20104W        W63120   9.019   6.468  28.753  0.2091  0.1559 -0.1001
20105W        W63121   3.688   3.777  14.319  0.1637 -0.0809  0.0581
20106W        W63122   4.451  26.486  15.428  0.1497  0.3037  0.0662
20107W        W63123   3.818   2.754  15.624  0.1185 -0.1303  0.0932
20108W        W63124   5.386   5.820  14.504  0.1083  0.0569  0.3683
20109W        W63125   4.496   5.117  22.247  0.3043 -0.3570  0.3888
20110W        W63126   8.098  10.608  19.543 -0.1550  0.2630  0.1785
20111W        W63127   9.970   4.847  19.301  0.0457  0.1200 -0.0681
20112W        W63128  15.174   5.629  18.907 -0.1558 -0.2452  0.2863
20113W        W63129  12.974  27.245  14.982  0.1198  0.0059  0.1133
20114W        W63130  13.959   0.234  16.814  0.3608  0.1364  0.0353
20115W        W63131  31.357  32.908   4.528  0.0180  0.0988  0.2192
20116W        W63132  34.416   0.859  16.855 -0.0965 -0.2507 -0.1668
20117W        W63133   2.109  32.842  24.748  0.1928  0.0807 -0.0476
20118W        W63134   2.783   6.598  22.624  0.0655 -0.0661  0.1312
20119W        W63135  27.692  28.226  19.152 -0.1919 -0.0572  0.3601
20120W        W63136  26.373  32.788  22.498  0.1940 -0.0532  0.1315
20121W        W63137   3.332  28.347  15.551  0.1208 -0.0265 -0.1694
20122W        W63138   2.738  15.253  15.485 -0.2268  0.0159  0.0682
20123W        W63139   9.376  31.028  26.957  0.2579  0.0194 -0.3191
20124W        W63140   1.062   8.749  16.937  0.0160 -0.0083  0.2379
20125W        W63141  31.500  10.808  16.200  0.1384 -0.0717 -0.4073
20126W        W63142  33.459  27.106  22.247 -0.2195  0.0132  0.0565
20127W        W63143   2.471   3.291  20.384 -0.0048  0.0031 -0.1411
20128W        W63144  18.663  21.068  22.795 -0.2527  0.1485 -0.1323
20129W        W63145   5.590  33.691  15.662  0.3673  0.0583  0.2115
20130W        W63146   1.267   6.764  14.950 -0.1021  0.0978 -0.1430
20131W        W63147  26.310   9.352  20.289 -0.2818  0.0157 -0.1310
20132W        W63148  30.410  23.785  17.096  0.2848 -0.4316 -0.0861
20133W        W63149  10.083  33.839  14.042  0.3906 -0.2858 -0.2432
20134W        W63150  18.073  30.131  21.793 -0.2380  0.1235  0.2667
20135W        W63151  14.959   2.605  26.316 -0.0563  0.0207  0.2871
20136W        W63152   9.113  29.362  23.944  0.2797  0.2828  0.2593
20137W        W63153   4.711  22.542  15.923 -0.4341 -0.2617  0.2745
20138W        W63154  16.755  32.600  24.287 -0.1753 -0.1067 -0.2804
20139W        W63155   8.957  26.879  17.454 -0.1830  0.1326  0.0765
20140W        W63156  23.651  14.596  26.536  0.2448 -0.0861 -0.0144
20141W        W63157  15.406   2.216  14.923  0.5004  0.2031 -0.3256
20142W        W63158  32.719   8.946  14.488  0.0343 -0.3807  0.2530
20143W        W63159   9.889  29.486   0.142 -0.0607 -0.3317 -0.2827
20144W        W63160  10.880  29.125   9.105  0.1601  0.2176 -0.0633
20145W        W63161   7.689   7.263  22.587  0.2127  0.2807  0.0037
20146W        W63162   8.946  34.569  20.108  0.1497  0.0194  0.1962
20147W        W63163  33.068  27.700  22.875 -0.0014  0.0659 -0.0183
20148W        W63164   3.719  11.631  23.180 -0.0458 -0.1136 -0.3784
20149W        W63165  15.457   7.489  18.366  0.4133 -0.1240 -0.2478
20150W        W63166  24.478   3.369   8.121 -0.4908  0.0406 -0.4348
20151W        W63167  17.386  22.799  22.687  0.2928 -0.0709 -0.0258
20152W        W63168  19.289   8.242   3.003  0.1922 -0.1944  0.1023
20153W        W63169   4.897   9.181  17.221 -0.0443  0.0953 -0.2036
20154W        W63170  23.536  11.359  19.253 -0.4783  0.1323 -0.0938
20155W        W63171  27.906   4.946  19.229  0.2710 -0.0471 -0.0868
20156W        W63172   8.225   0.018  22.378 -0.2208  0.0280  0.0372
20157W        W63173  20.126  33.153  17.373  0.2447  0.0995  0.4394
20158W        W63174  11.624  29.632  26.824 -0.0226  0.1715  0.1712
20159W        W63175   3.300   0.850  16.799  0.1059  0.1091  0.0676
20160W        W63176  21.257  27.182  28.318  0.0724  0.0982  0.4911
20161W        W63177   1.659  29.899  14.873  0.0881 -0.0828 -0.0801
20162W        W63178  23.017  33.115  21.921 -0.2318 -0.1404 -0.4362
20163W        W63179  34.276  24.173  25.298  0.0172 -0.2740  0.1865
20164W        W63180   6.587  25.877  24.042 -0.1653  0.0149  0.1281
20165W        W63181   0.213  29.216  17.683 -0.1042  0.2572  0.1367
20166W        W63182  16.190  32.803  18.120 -0.1610 -0.0856 -0.0906
20167W        W63183   4.506   2.995  14.647  0.3900  0.0092 -0.2250
20168W        W63184  11.448   2.850  21.807 -0.2847  0.1482  0.1900
20169W        W63185  17.569   1.670  18.868 -0.1981 -0.2252 -0.2318
20170W        W63186  14.771  30.849  27.226 -0.3241 -0.0404 -0.1993
20171W        W63187   2.653  10.238  14.436 -0.1066  0.2187  0.0230
20172W        W63188  15.323  11.819  14.089 -0.3103 -0.0382 -0.1918
20173W        W63189  10.017  13.308  18.057 -0.2181 -0.0120  0.3545
20174W        W63190  15.033  24.262  23.597  0.0111 -0.0755 -0.1192
20175W        W63191  16.826   0.169  27.936 -0.1343  0.2495 -0.3280
20176W        W63192   1.076  27.914  27.134 -0.2883 -0.0686 -0.2266
20177W        W63193  21.733  32.376  22.997 -0.0322  0.0859 -0.0330
20178W        W63194   6.904  32.112  19.219 -0.0075 -0.0642  0.2510
20179W        W63195   7.011  32.190  17.838  0.1726 -0.1508  0.1381
20180W        W63196   0.422  10.052   5.037  0.0594 -0.1052 -0.1355
20181W        W63197  15.088  18.887   5.967  0.3931  0.3088 -0.0948
20182W        W63198   1.290   0.536  26.123  0.2837 -0.0106 -0.1454
20183W        W63199  33.173  22.397   0.255 -0.0619  0.1114 -0.0264
20184W        W63200  33.536  15.465  20.881  0.1942  0.0129 -0.2126
20185W        W63201  17.586  11.854  18.600  0.1198  0.0318  0.0066
20186W        W63202  23.810   4.021  10.067 -0.1359 -0.1406 -0.6839
20187W        W63203  27.170  13.617  25.943  0.0260  0.2028  0.1993
20188W        W63204   6.274  32.153  17.219 -0.2005  0.0587  0.0815
20189W        W63205   8.776  19.124  18.832 -0.0093 -0.2323  0.0668
20190W        W63206  24.828  32.048  20.238 -0.2420  0.0366  0.3893
20191W        W63207  32.586  23.372  14.250 -0.3279  0.0504  0.2328
20192W        W63208   0.694   2.234   2.346  0.2914  0.0692  0.1340
20193W        W63209   6.788   8.726  16.520  0.1121  0.1057  0.2190
20194W        W63210  12.112   0.706  15.948 -0.2615  0.0998  0.2227
20195W        W63211   3.879  28.661   7.282 -0.0710  0.2505 -0.1657
20196W        W63212  19.894   2.510  16.630  0.2788  0.0016  0.2441
20197W        W63213   4.112  32.114  16.498 -0.3013  0.3059 -0.2431
20198W        W63214  19.420  27.520   1.309 -0.0015  0.2354 -0.3649
20199W        W63215   9.982  13.010  21.240 -0.0411 -0.2797  0.1136
20200W        W63216  14.083   4.798  28.624  0.1567 -0.1614  0.1015
20201W        W63217   5.756   4.984  22.174 -0.5409  0.1308 -0.1131
20202W        W63218  14.952   5.154  24.891  0.0404 -0.0656 -0.2406
20203W        W63219   8.523  27.025  20.820  0.1176 -0.3971  0.0825
20204W        W63220  32.157   3.370  18.400  0.0659 -0.2924  0.0893
20205W        W63221   1.599  12.499  15.299  0.0295 -0.2515  0.0011
20206W        W63222   8.323  12.129  14.103  0.1524  0.2466  0.0163
20207W        W63223  33.663  33.264  15.830 -0.1590 -0.1213 -0.0642
20208W        W63224   8.671   2.674  17.355  0.0339  0.3101  0.0032
20209W        W63225  29.632  34.472   5.148 -0.0986  0.2984 -0.1642
20210W        W63226   2.757  31.284  18.083  0.0726  0.0914  0.1811
20211W        W63227   2.176  24.919  15.535 -0.2599  0.5629  0.1621
20212W        W63228  28.986   0.928  25.484  0.0623  0.5254 -0.0058
20213W        W63229  16.782  24.193  13.677  0.1734 -0.1029 -0.0293
20214W        W63230  21.120   4.466  15.987 -0.1094 -0.2648  0.2949
20215W        W63231  29.028   2.558  18.157 -0.2109  0.1147 -0.1882
20216W        W63232  10.677  12.565  19.347  0.1360  0.0345 -0.0048
20217W        W63233   6.468   1.189  17.202  0.1719 -0.2655 -0.1040
20218W        W63234   2.504   4.027  16.079  0.0803  0.0341  0.0950
20219W        W63235  28.971   7.995  27.071 -0.1212  0.0136 -0.0132
20220W        W63236   0.899  34.136  18.116 -0.3885  0.1031 -0.1952
20221W        W63237  21.410  15.363  16.368 -0.0391  0.0444  0.0934
20222W        W63238  33.623   2.472  24.070 -0.1042 -0.0521 -0.0366
20223W        W63239   9.947   9.690  19.158  0.1679 -0.0167  0.4620
20224W        W63240  10.787  27.527   5.299  0.1281  0.0045  0.2085
20225W        W63241   7.803   8.296  20.488  0.2073  0.0877 -0.1921
20226W        W63242  16.115  31.829  22.388  0.0389  0.0357 -0.0389
20227W        W63243  22.175  29.968  22.240  0.2739  0.1099  0.3368
20228W        W63244  24.850   7.411  18.091  0.1092 -0.3097 -0.0509
20229W        W63245  15.890  29.978  17.800  0.0256 -0.1426 -0.0042
20230W        W63246  31.236  33.668   8.545  0.1309  0.0621 -0.1445
20231W        W63247  11.775   4.624   0.521  0.0224  0.1413 -0.2140
20232W        W63248   3.008  11.337  27.481  0.3400  0.1361  0.0128
20233W        W63249  33.344   5.606  14.374  0.1732 -0.0018 -0.2425
20234W        W63250   5.588  25.219  22.461  0.1436  0.0295 -0.0200
20235W        W63251   1.933  34.087  18.259  0.0654  0.1282  0.0297
20236W        W63252  33.742  25.743   9.425 -0.3768  0.1764 -0.1017
20237W        W63253   9.302   4.052  25.342  0.3962  0.1242 -0.1902
20238W        W63254  15.552  24.002  16.430  0.2069  0.1571 -0.0907
20239W        W63255  29.867  11.928  27.292  0.1141  0.0426  0.1526
20240W        W63256  19.917  29.191  10.295  0.3911  0.1706 -0.4992
20241W        W63257  32.853   1.862  22.204 -0.0405  0.2496  0.1425
20242W        W63258   1.517  31.153  17.739  0.2025 -0.1896 -0.0711
20243W        W63259  31.386  33.971  16.641  0.2618  0.1378  0.2793
20244W        W63260  24.068   4.807  23.008 -0.1282  0.1018 -0.2640
20245W        W63261   5.797   6.233  25.103  0.1608  0.0999 -0.2806
20246W        W63262  16.755  31.533   1.411  0.0697  0.0291  0.1175
20247W        W63263  12.630  25.962  24.508 -0.1632 -0.0075  0.0473
20248W        W63264  28.098   7.576  19.624 -0.1386 -0.0486 -0.0985
20249W        W63265   3.671  28.742  18.226 -0.2527  0.1709 -0.3940
20250W        W63266  15.839  29.583   3.918  0.0941 -0.0539 -0.0823
20251W        W63267   3.103   5.697  19.001  0.1290 -0.0996 -0.1930
20252W        W63268  19.450   1.550  28.352  0.0798  0.0962 -0.1465
20253W        W63269  12.710  25.137  19.751 -0.4152  0.2728  0.1891
20254W        W63270   2.744   4.548  15.862 -0.0106  0.0821 -0.0520
20255W        W63271   6.459  12.868  28.511  0.1762 -0.1791  0.2817
20256W        W63272  13.043  32.172  15.398 -0.0963  0.3130 -0.0502
20257W        W63273  30.831  28.550  22.090  0.2617  0.4090 -0.2946
20258W        W63274  13.410   7.774  23.190  0.1210  0.2385 -0.0819
20259W        W63275  32.100   6.197  16.830  0.2362  0.3185  0.1645
20260W        W63276   0.324  17.185  15.379  0.0096 -0.1730 -0.0353
20261W        W63277  18.954  33.702   1.017 -0.0961  0.0563 -0.2147
20262W        W63278   1.490  29.013   2.398 -0.3618  0.1006 -0.0600
20263W        W63279  22.293  33.381  25.233  0.0249 -0.0706 -0.2035
20264W        W63280  14.599  12.644  18.937 -0.1937  0.1213  0.0518
20265W        W63281  25.863  22.484  15.793 -0.1080  0.0577  0.2444
20266W        W63282  31.620   8.827  27.248 -0.1179  0.1975  0.0122
20267W        W63283   8.957   6.436   7.589  0.0698  0.2151 -0.3020
20268W        W63284  34.083   0.854   3.589  0.4304 -0.0045 -0.3068
20269W        W63285  34.542   2.398  22.869 -0.0463  0.0406 -0.0240
20270W        W63286  21.333  27.231  20.947 -0.0975 -0.0404  0.1149
20271W        W63287  15.044  13.895  11.798  0.0452  0.0362  0.0971
20272W        W63288   9.723  34.463  15.030 -0.2935  0.0809 -0.0391
20273W        W63289   4.085  31.281  15.433 -0.0259  0.0440 -0.1390
20274W        W63290   4.106  15.565  16.830 -0.3595  0.2409  0.1322
20275W        W63291  17.877  19.359   6.614 -0.2605 -0.0458  0.1002
20276W        W63292   5.362  21.832  21.931 -0.0707 -0.1768 -0.1817
20277W        W63293  33.455   0.169  21.007  0.1388  0.1177 -0.0959
20278W        W63294  26.252  32.247  22.377 -0.3166  0.1357 -0.0905
20279W        W63295  10.477   3.124   6.936 -0.5188  0.2184 -0.1095
20280W        W63296  12.621  28.441  24.338  0.2581 -0.0639 -0.2320
20281W        W63297  29.484   4.042  21.504  0.0841 -0.0296 -0.0049
20282W        W63298  10.560  10.720  15.828 -0.0860 -0.1996  0.0300
20283W        W63299  29.722  17.698  26.707 -0.3337  0.2425  0.0337
20284W        W63300  11.434  21.009  25.302 -0.3928 -0.2230  0.1449
20285W        W63301  29.962  29.322  16.434 -0.3547 -0.1232 -0.1404
20286W        W63302  28.865   8.790  17.909  0.1997  0.4446  0.0679
20287W        W63303   8.207  30.644  18.666  0.0886 -0.0959  0.2715
20288W        W63304   5.941  18.608  19.625 -0.0262  0.0746  0.0506
20289W        W63305  12.302   7.892  20.706  0.2283  0.0144  0.0112
20290W        W63306   1.493  25.058  22.626  0.0563 -0.2232  0.1523
20291W        W63307   6.000   3.417  14.784  0.0009  0.0191 -0.0071
20292W        W63308  12.989   1.824  16.558 -0.1876  0.1462 -0.0925
20293W        W63309   4.980  29.425  20.049  0.1252  0.0586  0.0010
20294W        W63310   5.356  33.180  17.371 -0.1731 -0.3916  0.2648
20295W        W63311   6.057  23.736   7.142  0.1699 -0.0996  0.0976
20296W        W63312  18.363  21.141   3.664  0.3026  0.1221 -0.0117
20297W        W63313  10.899  29.878   1.713 -0.0012  0.0056 -0.0859
20298W        W63314  12.266  31.793  28.250 -0.1722  0.3386  0.1561
20299W        W63315   7.781   7.452  22.105  0.1718 -0.0962  0.0429
20300W        W63316   0.626  17.366  17.796  0.2560  0.1198 -0.5630
20301W        W63317  19.930  22.113   5.711 -0.2694 -0.1266 -0.0062
20302W        W63318  33.916  26.106  10.015 -0.1299  0.1238 -0.2456
20303W        W63319  30.529   1.313  15.372 -0.2565 -0.3637 -0.0056
20304W        W63320  18.141   1.264  14.788  0.0223  0.0597  0.0580
20305W        W63321   1.295   6.921  15.834 -0.3418 -0.1126  0.0008
20306W        W63322   7.871  24.447  24.012  0.1151  0.1586 -0.0019
20307W        W63323   6.464   5.566   0.810 -0.2980  0.0831  0.3461
20308W        W63324  11.660   1.000  22.211  0.1492  0.0306 -0.1869
20309W        W63325  30.632   0.520  18.428 -0.2444 -0.0188 -0.0466
20310W        W63326   6.896  34.656  15.776 -0.1912 -0.0591 -0.1224
20311W        W63327  30.482  18.972  18.619  0.0317 -0.0177 -0.2045
20312W        W63328  31.461  22.494  16.878 -0.4137 -0.2616 -0.1342
20313W        W63329  11.423  31.379  19.432  0.1761 -0.2956  0.0951
20314W        W63330   9.014   2.184  14.653 -0.3548  0.0069  0.0402
20315W        W63331  29.180  32.483  17.338 -0.0738 -0.0945 -0.0392
20316W        W63332   0.684  28.749  18.105 -0.2101 -0.1511  0.0646
20317W        W63333   8.032  24.466  27.277 -0.0437  0.3022  0.1480
20318W        W63334  19.012  28.877  19.050  0.0713  0.1588  0.0610
20319W        W63335   4.397  33.326  21.686 -0.0478 -0.3068 -0.1087
20320W        W63336   8.802  33.793  15.756 -0.1767  0.1572  0.1118
20321W        W63337   2.134  19.872  15.519 -0.2088 -0.0242  0.0254
20322W        W63338   0.028  31.650  27.519 -0.1101 -0.0927  0.1207
20323W        W63339   6.935  27.756  23.152 -0.0533 -0.2096  0.0739
20324W        W63340   9.137  20.831  18.699 -0.1130  0.0188  0.6758
20325W        W63341  31.429   0.359  23.222 -0.0417  0.0375  0.2007
20326W        W63342   8.128  27.745  16.881  0.1131  0.1836  0.2466
20327W        W63343   7.664  13.565  18.738  0.0960 -0.2206  0.1497
20328W        W63344  24.259   4.626  16.249 -0.3452 -0.1151  0.0012
20329W        W63345  14.209   7.403  13.743  0.0584 -0.2974  0.1077
20330W        W63346  12.453  17.020  15.081  0.0313  0.0058 -0.1946
20331W        W63347  21.195   7.956  15.984 -0.1330  0.2166  0.0016
20332W        W63348   4.646  21.342   1.847  0.2243  0.1422 -0.0428
20333W        W63349  20.204   0.103  16.860  0.1597  0.1416 -0.0634
20334W        W63350   8.151   3.921  14.802 -0.0470  0.1401  0.0040
20335W        W63351  34.053   0.100  17.415 -0.0289  0.5778  0.1655
20336W        W63352  30.360   5.427  10.673  0.1076 -0.0912 -0.2187
20337W        W63353   7.559  23.913  21.354  0.0400 -0.2393  0.0329
20338W        W63354  18.093   2.035  18.003  0.1721 -0.1121  0.0459
20339W        W63355  10.955  34.087  16.538 -0.1379 -0.1366  0.0175
20340W        W63356  11.000  31.388  20.994 -0.0372 -0.3744 -0.1687
20341W        W63357  11.394  15.190  14.724  0.0496  0.0224 -0.1067
20342W        W63358   3.977   3.762  22.582 -0.0325 -0.1801 -0.0633
20343W        W63359   9.049   2.461  19.189  0.3586  0.0565 -0.3049
20344W        W63360   7.476  28.017  15.919 -0.2166  0.0938 -0.4150
20345W        W63361   7.933   1.797  28.207 -0.0157  0.1290  0.2518
20346W        W63362   1.596  25.062  14.266  0.0861 -0.2806  0.2121
20347W        W63363  16.847  32.602  15.414  0.2014  0.0318  0.0222
20348W        W63364  13.136  34.600  21.619 -0.1662 -0.4476  0.0776
20349W        W63365  21.839  27.251  23.227  0.2151 -0.5200  0.1455
20350W        W63366  30.138  12.591   7.476 -0.0848  0.0088  0.4040
20351W        W63367   0.937  14.283  22.023 -0.3200  0.2458 -0.1405
20352W        W63368  10.309   9.132  23.708 -0.3214  0.1776 -0.1062
20353W        W63369   1.087  28.733   5.144 -0.1470  0.0490  0.0106
20354W        W63370  24.536  22.809  19.007  0.3195  0.1920  0.2599
20355W        W63371  15.748   8.145  14.024 -0.0993  0.1362  0.0351
20356W        W63372  14.216  33.475  26.104 -0.0018  0.3528 -0.1088
20357W        W63373   6.662  33.246  29.035  0.0405  0.0259  0.3146
20358W        W63374  27.080   2.821  15.106  0.0110 -0.2089 -0.0275
20359W        W63375  23.331  17.667  13.400  0.0160 -0.0710 -0.2468
20360W        W63376   2.500   6.223  27.766  0.0835  0.1408 -0.1939
20361W        W63377   9.202  11.031  25.530 -0.0816  0.0934  0.0684
20362W        W63378  10.168   7.368   6.739  0.0931 -0.2703 -0.1256
20363W        W63379  27.160   9.118  22.518 -0.0186 -0.0826  0.0154
20364W        W63380  27.002  23.937   2.249  0.0619  0.2305  0.0882
20365W        W63381  24.155  12.400  16.627  0.2602 -0.2428 -0.0450
20366W        W63382  10.750   2.400  23.646  0.1135  0.1924  0.1084
20367W        W63383   1.294  27.515  26.891 -0.1246 -0.1904  0.0962
20368W        W63384  11.717   9.607  18.421 -0.1154  0.0736 -0.0043
20369W        W63385   2.785  15.917  16.831 -0.0169  0.1749 -0.2116
20370W        W63386  19.899  23.730  29.191  0.1033  0.1226 -0.1295
20371W        W63387   2.844  12.491  14.730 -0.0619 -0.0579  0.2124
20372W        W63388  28.036  15.663   0.830 -0.2701  0.2725  0.1235
20373W        W63389   9.610  28.913   1.832  0.0234  0.1355  0.1174
20374W        W63390  12.985  34.401   2.775  0.0204 -0.1956  0.4748
20375W        W63391   8.748  16.594  27.816 -0.2834 -0.2502  0.2531
20376W        W63392  29.500  32.118   7.081  0.0719 -0.0071  0.0514
20377W        W63393  12.481  30.860  28.404  0.2971  0.1842 -0.2229
20378W        W63394   2.038  26.646  13.726  0.0042 -0.1746 -0.0108
20379W        W63395   7.459  13.554  22.281 -0.0879 -0.0457 -0.0081
20380W        W63396  12.727  28.861  17.832  0.1026 -0.1740  0.1710
20381W        W63397  15.898   4.427  16.713 -0.0073 -0.0348 -0.2721
20382W        W63398  21.357  30.408  26.772 -0.2944 -0.0644 -0.3112
20383W        W63399  29.643  31.719  26.336  0.3006 -0.0691  0.0103
20384W        W63400  31.427  34.333   0.773 -0.1723  0.0345 -0.2890
20385W        W63401  34.400  13.074  15.100  0.0473  0.3539  0.1930
20386W        W63402  10.322  23.392   5.762  0.3998  0.0843 -0.0558
20387W        W63403  33.736  16.675  23.230 -0.2713 -0.1642  0.1009
20388W        W63404   0.756   2.483  27.322  0.0760 -0.0260 -0.0442
20389W        W63405   6.827  33.732  27.880  0.0392  0.2506 -0.1438
20390W        W63406  21.384  29.041  20.268 -0.1370  0.0438 -0.1232
20391W        W63407  14.343   4.513  20.908  0.1413 -0.1452  0.2726
20392W        W63408   9.064  15.487  21.499 -0.1270 -0.1784 -0.3565
20393W        W63409   8.910   3.796  25.811 -0.0780 -0.1815 -0.0889
20394W        W63410   1.275   5.186  22.130  0.0970 -0.0774  0.3888
20395W        W63411  29.552  33.397  16.962  0.0639  0.0848  0.2391
20396W        W63412  30.878  13.421  14.893  0.0681 -0.0991  0.0671
20397W        W63413   2.685  14.314   2.430 -0.0892 -0.0777 -0.2535
20398W        W63414   7.311  32.666  29.010 -0.0161  0.0427 -0.1313
20399W        W63415  30.232  32.683  23.563  0.1500 -0.1696  0.1965
20400W        W63416  33.543  24.247  23.864  0.0127  0.0617  0.3203
20401W        W63417  32.222   0.972  21.253 -0.2093 -0.3138  0.0763
20402W        W63418  23.474  21.362   3.372 -0.2054 -0.0953 -0.0934
20403W        W63419  32.223  32.246  18.932 -0.1054 -0.1907 -0.1289
20404W        W63420  14.152  28.034  20.897  0.1423 -0.0580 -0.0087
20405W        W63421  16.500  13.129  22.742 -0.1416 -0.1501  0.1506
20406W        W63422  33.442  19.067  24.172  0.0035 -0.0526 -0.0793
20407W        W63423  14.907  30.219  21.527 -0.1161  0.1613  0.2339
20408W        W63424   4.221  21.605  14.152  0.0257  0.1195  0.2151
20409W        W63425   4.044  30.636  16.655  0.0182  0.1229  0.0744
20410W        W63426   5.086  30.987  17.551 -0.2336  0.2439  0.2998
20411W        W63427   7.817   2.732  23.978  0.0005 -0.1910  0.1264
20412W        W63428  11.017  30.690  14.744 -0.0365 -0.0014 -0.0612
20413W        W63429   4.709  25.441  21.515 -0.1155  0.1447  0.0575
20414W        W63430   2.914   8.280  24.598 -0.1034  0.0322  0.0640
20415W        W63431  24.842  28.602  20.841  0.0743 -0.1713  0.0438
20416W        W63432   0.885  21.831  21.282 -0.0721 -0.1791 -0.1959
20417W        W63433  20.406  32.894  24.835  0.0770  0.2059 -0.0189
20418W        W63434  31.485  12.424  16.048  0.1478 -0.0039 -0.2043
20419W        W63435   4.519  31.205   8.989 -0.1881  0.1444 -0.4017
20420W        W63436   9.779   5.584  22.286 -0.2005  0.1828  0.5210
20421W        W63437   1.009  10.782  19.168 -0.0098 -0.0083 -0.5384
20422W        W63438  33.392  27.471  20.304 -0.2792 -0.0326  0.1027
20423W        W63439  26.312  30.091  16.787  0.1189 -0.3264 -0.0388
20424W        W63440   4.541  14.133  20.632 -0.1556 -0.0151 -0.0838
20425W        W63441  32.079  10.489  27.522 -0.3639 -0.0105  0.0434
20426W        W63442   2.421  24.785  14.590 -0.1297  0.1162  0.0684
20427W        W63443   7.877  34.110  17.994  0.2100 -0.1540 -0.1384
20428W        W63444   3.258  32.214  14.799  0.0890  0.3001 -0.0931
20429W        W63445   1.936  28.222  15.900 -0.1332  0.1055  0.0274
20430W        W63446   1.292  33.386   7.230 -0.0260 -0.1961 -0.0441
20431W        W63447  32.990  26.366  17.011 -0.1508  0.2499 -0.2513
20432W        W63448  16.187  32.733  17.159  0.1977 -0.0508 -0.2364
20433W        W63449   9.550   5.744  15.304  0.2871  0.0542 -0.0544
20434W        W63450  27.869   3.295   8.365  0.1019 -0.2989  0.1955
20435W        W63451   1.928   9.527  16.827 -0.0353 -0.1380  0.0234
20436W        W63452  12.148  16.018  24.606  0.1384 -0.1012 -0.1591
20437W        W63453   5.734  22.196  21.994  0.1752 -0.1721 -0.2108
20438W        W63454   8.615  31.177  18.272 -0.0027 -0.1688 -0.0998
20439W        W63455   6.120  14.962  24.681  0.0003  0.2079 -0.0415
20440W        W63456   8.670  22.543  16.396  0.2423  0.3316  0.1143
20441W        W63457  28.661  28.198  19.126 -0.0556 -0.0037 -0.1550
20442W        W63458   6.447   1.107  24.094  0.0578  0.0473 -0.1382
20443W        W63459  19.758  18.774  27.547 -0.1087 -0.0800 -0.2773
20444W        W63460   0.931   0.558  21.312 -0.1879 -0.1509 -0.0770
20445W        W63461   4.860  24.761  24.857  0.0302 -0.0663 -0.1351
20446W        W63462   8.763   9.017  21.762  0.0268  0.0742 -0.0027
20447W        W63463   9.878  14.396  27.495 -0.2259 -0.2786  0.2420
20448W        W63464   7.695  27.727  15.076 -0.1141  0.1604 -0.3427
20449W        W63465  22.465   5.398  17.441  0.0805  0.4303 -0.2303
20450W        W63466   4.841  31.075  24.976  0.0306  0.1642 -0.0073
20451W        W63467  13.304  10.996  20.769  0.0080 -0.0764  0.3306
20452W        W63468  15.429  26.141  21.884 -0.1864 -0.0099  0.2085
20453W        W63469   4.666  20.076  23.083  0.1806  0.2275  0.2139
20454W        W63470   5.355  13.381  21.401 -0.0010 -0.0615  0.0766
20455W        W63471   7.688  25.912  13.681  0.1844 -0.3611 -0.1680
20456W        W63472   4.385  14.430  17.309 -0.0591  0.1802 -0.1313
20457W        W63473   8.107   6.363   0.361 -0.0265  0.0221  0.0804
20458W        W63474  17.991  30.024  22.574 -0.1419  0.1692  0.1500
20459W        W63475   6.800  34.778  26.370  0.1280 -0.0418  0.0468
20460W        W63476  11.221  26.694  15.308  0.0984  0.0445 -0.3372
20461W        W63477   4.315   0.478  21.831 -0.0037  0.0394  0.0936
20462W        W63478  11.624  16.761  19.802  0.0269  0.3677 -0.1461
20463W        W63479   8.435  16.147  17.021 -0.2609  0.1157 -0.1452
20464W        W63480   6.467   8.364  16.174  0.1642  0.1143  0.0787
20465W        W63481  19.897  29.777  16.405  0.2038 -0.4651 -0.0352
20466W        W63482  21.828   2.736  22.015  0.2220  0.3372 -0.1257
20467W        W63483  30.895  11.619  21.654 -0.0913  0.0926  0.0858
20468W        W63484  13.600  11.457  24.722  0.1589  0.0273 -0.3000
20469W        W63485  14.050  18.482  24.496 -0.3278 -0.0755  0.2267
20470W        W63486   2.324  25.214  19.405 -0.1041 -0.1392 -0.0323
20471W        W63487   6.217  33.854  15.409  0.0389  0.2168  0.4102
20472W        W63488   2.427  10.215  26.441 -0.1531  0.0423  0.1108
20473W        W63489  18.004  30.295  25.821 -0.2428  0.2218  0.0994
20474W        W63490   3.937   8.714  26.063  0.2263 -0.2870 -0.2007
20475W        W63491   4.633   6.393  27.243 -0.0059  0.0358 -0.0923
20476W        W63492  19.642  23.013  14.966 -0.2126  0.0140 -0.2146
20477W        W63493  13.315  26.122  18.631  0.1864  0.4362  0.3590
20478W        W63494  28.966   9.543  25.820  0.0020  0.1507  0.0289
20479W        W63495   7.058   0.020   1.679  0.1756  0.0797  0.0127
20480W        W63496  25.051   6.799  18.622  0.1668 -0.1621 -0.2308
20481W        W63497  11.651  12.419  18.627  0.1104 -0.1216  0.1020
20482W        W63498  10.265  28.029  15.095  0.0395  0.0160  0.1437
20483W        W63499   3.186  15.640  16.628  0.0942  0.0291 -0.2135
20484W        W63500  21.941   9.669  28.537  0.0787 -0.0720 -0.0001
20485W        W63501   7.549  24.084  24.402  0.2674  0.2258 -0.0318
20486W        W63502   1.151  24.573  20.568 -0.0471  0.1988 -0.0552
20487W        W63503  13.788  33.597  24.757 -0.0255 -0.3357 -0.1760
20488W        W63504   8.147  11.589  23.067  0.3727  0.0274 -0.0137
20489W        W63505   4.981   8.985  15.125  0.0392  0.0852 -0.1869
20490W        W63506   4.635  34.690  26.298 -0.0513  0.0955  0.0479
20491W        W63507  28.913   3.534  19.296 -0.1804  0.2422  0.1465
20492W        W63508  32.241  24.798  19.916 -0.3095 -0.2143  0.1547
20493W        W63509   1.411  29.069  22.098 -0.0705 -0.2942 -0.0636
20494W        W63510  17.823   9.726  12.500 -0.0786 -0.2409 -0.0392
20495W        W63511   4.907  29.496  14.583 -0.1786  0.1630  0.1791
20496W        W63512  22.008  32.093  22.333  0.1450 -0.3199 -0.1286
20497W        W63513   0.329   4.255  10.007 -0.1470  0.0789 -0.0809
20498W        W63514   4.292   7.925  23.685  0.0681  0.0233  0.1963
20499W        W63515  23.224  30.534  17.481 -0.1661  0.0942  0.2910
20500W        W63516  28.832  21.753  18.248  0.0967 -0.0695 -0.0812
20501W        W63517  30.269  25.951  17.745  0.1983  0.1733 -0.1995
20502W        W63518  17.275  34.590  20.689  0.0368  0.0193  0.4087
20503W        W63519   2.081   0.493  21.617  0.3025 -0.1896  0.2705
20504W        W63520   0.895  31.520   0.669  0.1094 -0.0116 -0.1887
20505W        W63521  10.224  11.537  14.706  0.1649 -0.1460 -0.1966
20506W        W63522  10.337   8.401  24.811 -0.0522 -0.1624  0.0777
20507W        W63523  10.687  32.706  18.073 -0.1623  0.1381 -0.1057
20508W        W63524  28.199  22.817  22.651  0.1987  0.0091 -0.1359
20509W        W63525   7.183   5.539  22.721  0.0539  0.0650 -0.0107
20510W        W63526  19.134  28.108  17.461 -0.0966  0.3926  0.1507
20511W        W63527  30.580   3.429  27.131  0.2367  0.1305  0.0008
20512W        W63528  31.979   1.067  28.898 -0.0056  0.2659  0.3385
20513W        W63529  12.678  32.918  17.965  0.2699 -0.0546  0.1795
20514W        W63530  33.081  13.398  14.759  0.0619  0.0704 -0.2195
20515W        W63531   9.999  16.021  17.224 -0.3391 -0.1166 -0.0666
20516W        W63532   1.080   7.300  15.155 -0.0189 -0.1540  0.1272
20517W        W63533  12.386  12.036  24.398  0.0146  0.1392 -0.1857
20518W        W63534   2.462  33.734  22.066 -0.1469  0.2370 -0.2594
20519W        W63535  21.805   2.401  25.842  0.1926  0.0258  0.1428
20520W        W63536  29.419   5.588  16.047  0.2076  0.3163  0.1951
20521W        W63537  32.897   5.961  23.148  0.0939  0.1738  0.1914
20522W        W63538  22.618   8.514  25.865 -0.2229 -0.0659 -0.0089
20523W        W63539   7.292  23.212  14.156 -0.1522 -0.2055  0.1926
20524W        W63540  11.932   6.536  17.399  0.0832  0.2273  0.0321
20525W        W63541  34.274   2.872   0.854  0.0814  0.1427 -0.1147
20526W        W63542   6.141   0.275   8.553 -0.0139 -0.3097 -0.1358
20527W        W63543   3.458  29.537  20.412  0.1368 -0.2322 -0.2484
20528W        W63544   2.999  26.604  21.770 -0.0045  0.2430 -0.0614
20529W        W63545   3.914  31.815   4.930 -0.0041 -0.0447 -0.0593
20530W        W63546   4.021  20.485  27.152 -0.0352 -0.1242  0.0288
20531W        W63547   6.853   3.708  26.831 -0.0392 -0.0359 -0.4056
20532W        W63548  10.010  25.988   0.798  0.0838  0.0200  0.1435
20533W        W63549  10.312   9.472  17.522 -0.3527  0.3323 -0.1921
20534W        W63550  13.991  27.625  18.608 -0.3380  0.0192 -0.1564
20535W        W63551   4.227   0.837  15.386 -0.0541 -0.0010 -0.3049
20536W        W63552  15.708  27.986  17.890  0.1355  0.0479 -0.1586
20537W        W63553   5.224  14.595  23.660 -0.2291  0.0989 -0.0220
20538W        W63554  16.411  21.103   0.944  0.2906  0.0279 -0.1046
20539W        W63555  20.363   4.921   1.017  0.2328 -0.1372 -0.0321
20540W        W63556  28.944  26.141  29.074 -0.2699 -0.1367  0.1098
20541W        W63557  33.715  32.081  17.036  0.0112  0.0760  0.1170
20542W        W63558  24.300  30.551  16.282 -0.1714 -0.1982  0.0146
20543W        W63559  13.975  29.698  24.058 -0.0125  0.2227  0.1158
20544W        W63560  26.374  33.793  24.942  0.0916  0.2113 -0.2555
20545W        W63561   0.406  16.709  16.390 -0.0860  0.0629 -0.3478
20546W        W63562   9.276  29.148   0.933 -0.2249  0.0496 -0.2023
20547W        W63563   4.942  31.120  27.167  0.0791  0.0695 -0.0673
20548W        W63564  16.324  33.981  16.540  0.0330  0.0582  0.2534
20549W        W63565   5.031   5.409  21.389 -0.1404  0.0064  0.1827
20550W        W63566  30.872  10.597  25.418 -0.2328 -0.0865 -0.0712
20551W        W63567  15.775  25.730  24.110  0.0153  0.0820 -0.2461
20552W        W63568  19.780   7.979  27.314  0.4481  0.3867 -0.2455
20553W        W63569  10.850  24.176  22.002  0.0923  0.2439  0.0480
20554W        W63570   0.833  26.585  18.649  0.3216 -0.1580 -0.4260
20555W        W63571  27.503  34.052  15.639 -0.2886 -0.1155  0.2349
20556W        W63572  15.321   3.426  18.048  0.0234  0.3112 -0.0496
20557W        W63573  26.222  18.614  15.805 -0.1340 -0.2886 -0.3844
20558W        W63574   5.046   0.766  24.148 -0.4079  0.0181 -0.2244
20559W        W63575   3.466   2.989  25.052  0.1275  0.0739  0.0011
20560W        W63576  33.811  33.694   2.848 -0.3090 -0.0171  0.0837
20561W        W63577  32.115  12.310  17.954 -0.0726  0.2233  0.0492
20562W        W63578   0.222   2.654   4.129  0.2174 -0.3979  0.5285
20563W        W63579  19.978  23.743  17.835 -0.0651  0.1012  0.2153
20564W        W63580   4.141  17.139  20.384  0.1897  0.3964  0.0501
20565W        W63581  16.924   9.579  18.274  0.2795  0.0757 -0.2576
20566W        W63582   5.260  33.203  15.445  0.1294  0.1169  0.2355
20567W        W63583  22.962   3.656   1.426 -0.0729 -0.4151  0.1596
20568W        W63584  31.982   3.000  21.977 -0.2175  0.2171 -0.1906
20569W        W63585   3.387   4.912   4.053 -0.1491 -0.0078  0.1960
20570W        W63586  12.501  24.180  22.803 -0.0254  0.0118 -0.0536
20571W        W63587   3.261  17.535  21.666  0.0659  0.0159  0.1252
20572W        W63588  33.573  24.462  22.554 -0.1696  0.3726  0.0647
20573W        W63589   4.033  27.853  20.116 -0.0665  0.0765  0.0353
20574W        W63590  31.703   3.036  24.098 -0.3320 -0.0706 -0.5041
20575W        W63591  31.577   4.071  25.364  0.2680  0.2811 -0.0796
20576W        W63592  31.225  33.226  20.616 -0.0827 -0.1319 -0.0229
20577W        W63593  32.615  32.326  24.768  0.0334  0.2832 -0.0467
20578W        W63594   6.304  10.784   8.205 -0.3781  0.1552  0.0486
20579W        W63595  25.250   5.536  19.426 -0.0494 -0.1606 -0.1691
20580W        W63596  24.528  18.709  25.719 -0.1427 -0.2393 -0.1076
20581W        W63597  19.052   5.930  26.199 -0.1212  0.0911  0.0117
20582W        W63598  14.345  13.262  25.664  0.2501  0.1359 -0.2858
20583W        W63599  27.283  34.505  19.900 -0.1168  0.2029  0.1620
20584W        W63600  31.186  25.658  25.646 -0.4718  0.0371 -0.0963
20585W        W63601   9.097  20.937  13.650 -0.0434  0.1792 -0.0209
20586W        W63602  16.896  30.635  26.616  0.1697 -0.1898  0.3308
20587W        W63603  23.062   8.393  19.648  0.0080 -0.0293 -0.0177
20588W        W63604  13.917  28.712  18.208 -0.1182 -0.0040  0.0751
20589W        W63605  34.341  26.873  18.151  0.3300  0.0371 -0.1894
20590W        W63606  33.349  26.053  19.145  0.0235 -0.0525 -0.2634
20591W        W63607  11.891  22.442  19.339 -0.1012 -0.1793 -0.1600
20592W        W63608  26.890   9.328  19.628  0.0995 -0.1950 -0.0982
20593W        W63609  16.543   5.363   2.579  0.0360 -0.0964  0.0883
20594W        W63610  32.883  29.168  18.482 -0.0634  0.2553  0.0542
20595W        W63611   5.986  33.520  21.161 -0.2043 -0.1070  0.0105
20596W        W63612  22.385  32.149  23.587  0.1448  0.2474  0.0245
20597W        W63613   0.226   2.896   7.235 -0.1585 -0.1418  0.0441
20598W        W63614  20.777   5.176  15.301 -0.0064 -0.0573  0.1166
20599W        W63615  30.390   1.546   8.939 -0.1097  0.4696 -0.1888
20600W        W63616  11.449   8.184  26.036 -0.0153  0.0865  0.0424
20601W        W63617   7.305   8.777  27.482 -0.0350  0.0441  0.0132
20602W        W63618   2.602   5.699  25.231 -0.1170 -0.3110 -0.2257
20603W        W63619   8.261  32.510  14.885  0.2723  0.0159 -0.1337
20604W        W63620  28.919   4.570  20.803 -0.2246  0.1439  0.0185
20605W        W63621   7.460  15.202  16.005  0.4221  0.0168  0.0014
20606W        W63622  10.982  33.935  17.107  0.3936  0.1623  0.2128
20607W        W63623   8.666  27.571  25.492 -0.1489 -0.1121  0.1462
20608W        W63624   2.285   2.863   1.036 -0.1796 -0.0456  0.1432
20609W        W63625  11.440  29.156   3.062  0.2183 -0.0324 -0.2733
20610W        W63626  30.884  27.165  18.073 -0.0653  0.0783 -0.6117
20611W        W63627   5.193  26.563  29.135  0.0609  0.0889  0.0879
20612W        W63628  19.470  32.352  18.540 -0.0209 -0.0400  0.2435
20613W        W63629  22.477  14.020  22.891 -0.0555 -0.0998 -0.1378
20614W        W63630  20.160   0.224   8.748  0.0515  0.1399 -0.0319
20615W        W63631  28.784  31.174  16.999 -0.0069 -0.2320  0.2036
20616W        W63632  28.903  34.409  17.409 -0.1501  0.2767 -0.0869
20617W        W63633  25.019  13.095  28.632  0.0826  0.0580 -0.0430
20618W        W63634  34.401  11.689   8.279 -0.0430  0.0704  0.5111
20619W        W63635   5.217  28.832  21.410 -0.2036 -0.3063 -0.1933
20620W        W63636   5.096  23.264  16.513  0.0439  0.0739 -0.2849
20621W        W63637  28.416   1.705  24.844  0.1488  0.0227  0.1432
20622W        W63638  14.839  31.602  19.656 -0.0412  0.0941  0.2886
20623W        W63639   2.629   1.400  23.442 -0.0603 -0.1474 -0.4044
20624W        W63640  27.637   3.342   9.903 -0.0282  0.0340  0.2641
20625W        W63641  11.983   6.202  18.205 -0.5074 -0.1079  0.0971
20626W        W63642  16.193  33.575  25.742 -0.3646 -0.0298  0.0866
20627W        W63643  20.581   4.851   5.500  0.1803  0.0144  0.0270
20628W        W63644   9.680  28.518  24.363 -0.3249 -0.2407  0.2829
20629W        W63645   4.457  23.534  22.266 -0.0879 -0.3203 -0.3979
20630W        W63646   6.178   6.589  26.554  0.5265 -0.0947  0.0476
20631W        W63647  20.493   9.930  28.610  0.0389  0.2267 -0.0322
20632W        W63648  33.558  25.954  20.912 -0.3472 -0.0331  0.0973
20633W        W63649   3.057  31.502  22.488  0.2978 -0.0717 -0.1183
20634W        W63650  29.367  32.185   0.436 -0.2566  0.1194 -0.0951
20635W        W63651  34.452  25.274  26.014 -0.3537 -0.0427 -0.1291
20636W        W63652   1.673  34.110  15.293  0.0568 -0.2216 -0.1731
20637W        W63653   7.313  27.537  25.991 -0.2346  0.0121 -0.0526
20638W        W63654  31.803   3.137  17.165 -0.0133  0.1988  0.3191
20639W        W63655  14.866  12.153  18.950 -0.2181  0.1914  0.0735
20640W        W63656  11.440  29.379  15.611 -0.0429  0.0427  0.0313
20641W        W63657   1.596   1.911  14.556 -0.1467 -0.1297 -0.3519
20642W        W63658   6.530  11.737   9.175  0.2051 -0.1136 -0.1846
20643W        W63659  15.161  23.891  23.079 -0.0135 -0.4553 -0.1954
20644W        W63660   6.132   3.929   1.836 -0.0455 -0.2366 -0.3746
20645W        W63661  21.695  32.847  26.997  0.1189  0.1201  0.0505
20646W        W63662   7.605  15.101  19.317  0.0394 -0.2448  0.0652
20647W        W63663   0.830  30.639   8.414  0.0888  0.3274 -0.1644
20648W        W63664  31.001  19.005   4.418  0.1984  0.0246 -0.2062
20649W        W63665  10.088  27.716  27.083  0.1057 -0.2736  0.2632
20650W        W63666   6.240  13.818  22.560  0.0806 -0.1213 -0.0133
20651W        W63667   3.845  28.667  25.107  0.0584 -0.1354  0.0840
20652W        W63668   1.835   6.929  18.883  0.0799  0.0995 -0.1346
20653W        W63669  10.301  19.736  28.059 -0.0757  0.5164  0.0719
20654W        W63670  32.209  25.132  20.297 -0.0127 -0.0143 -0.0866
20655W        W63671  32.533  20.858   3.982  0.2287  0.1501  0.2152
20656W        W63672   0.305   9.272  16.516  0.0838 -0.0216 -0.2653
20657W        W63673   8.718   9.266  22.291  0.2396  0.0010 -0.0380
20658W        W63674  28.496  11.590  22.589  0.2250  0.3215 -0.0326
20659W        W63675  19.365  30.786  15.169  0.1438 -0.2362  0.1745
20660W        W63676   0.517   4.370   8.207 -0.1657  0.3302 -0.3017
20661W        W63677   8.832   2.494   9.397 -0.0789 -0.0764 -0.2391
20662W        W63678  34.485   0.097  25.339  0.1007  0.0312 -0.0752
20663W        W63679   2.748  14.642  16.084 -0.0731  0.1471  0.1507
20664W        W63680  30.834  10.036  22.897 -0.1903  0.0145 -0.0767
20665W        W63681   5.496  22.549  25.375 -0.0236 -0.2713 -0.0236
20666W        W63682  24.449  23.438  24.547  0.1186 -0.1467  0.0069
20667W        W63683  16.509  30.336  22.533 -0.0971 -0.0515  0.1914
20668W        W63684   3.698   2.330  26.665  0.1801 -0.0025  0.3485
20669W        W63685  29.855   2.651  16.238 -0.2329  0.0590  0.1461
20670W        W63686   3.770  21.371  18.117  0.2474  0.1174 -0.2210
20671W        W63687  14.842  10.151  14.489  0.3665 -0.5705  0.1057
20672W        W63688   5.285   7.263  17.476 -0.0413 -0.5237 -0.1954
20673W        W63689  30.290  11.658  27.775  0.0294 -0.2012  0.1505
20674W        W63690   1.199  15.217  20.986  0.1786 -0.3126 -0.1760
20675W        W63691  29.387  31.919   9.583 -0.1328 -0.0057 -0.2293
20676W        W63692  11.495  26.295   4.324 -0.2284  0.0329  0.1452
20677W        W63693  28.926   4.518  29.118 -0.2881 -0.4133  0.1543
20678W        W63694  28.006  28.389  10.914 -0.0167 -0.0345 -0.5202
20679W        W63695   6.932   6.752   0.753  0.2213  0.2574  0.6101
20680W        W63696  20.126   6.921  17.549 -0.1811 -0.0038 -0.1479
20681W        W63697   2.241  20.116   0.183  0.5794  0.1148 -0.2082
20682W        W63698  20.801  30.711  19.322  0.1097  0.0779 -0.2148
20683W        W63699  13.312  27.384  21.985  0.2191 -0.0699  0.0591
20684W        W63700  29.066  15.377  24.765  0.0194 -0.0272  0.0182
20685W        W63701   3.921   5.474   4.154  0.2145 -0.2886 -0.4487
20686W        W63702  33.073   8.941  15.433 -0.0393 -0.2874 -0.1346
20687W        W63703  11.791   5.403  18.250 -0.3442 -0.0944 -0.2144
20688W        W63704  21.111  23.636  20.726 -0.0381  0.1958  0.1507
20689W        W63705   7.404  24.202   3.476 -0.0355 -0.2665  0.2463
20690W        W63706  30.022  32.453   5.334 -0.2066  0.3338  0.0150
20691W        W63707   5.643   1.363  23.339 -0.1667  0.2520  0.1311
20692W        W63708  15.731   3.077  28.757 -0.0200 -0.0423 -0.2091
20693W        W63709   6.105  30.176  15.890 -0.0447  0.0082  0.1119
20694W        W63710  32.839  30.715   2.500 -0.2226 -0.1382  0.3610
20695W        W63711  27.034   8.876   7.313 -0.2501  0.2356  0.0475
20696W        W63712   8.670  34.515   4.566  0.1102  0.0280  0.0835
20697W        W63713  29.869  10.548  20.451  0.2044  0.3410 -0.3102
20698W        W63714   0.837  29.726   3.285  0.1352  0.2797 -0.0865
20699W        W63715  26.677   0.318  17.292 -0.0585  0.3663  0.0876
20700W        W63716  34.641  14.056  15.699 -0.0874  0.1673  0.1139
20701W        W63717   8.256  11.862  24.075 -0.2271  0.0435 -0.1477
20702W        W63718  25.460  28.622  17.940 -0.2451  0.1535  0.0614
20703W        W63719   3.226   2.411  23.555  0.1088  0.0608  0.0521
20704W        W63720  11.884  28.514   2.615  0.0005 -0.3113  0.0106
20705W        W63721  26.046  23.433  24.265  0.0026  0.3111 -0.1961
20706W        W63722   8.892  12.309  23.527 -0.1675  0.0678 -0.0424
20707W        W63723  12.733  22.959   0.833 -0.4684  0.2262  0.2091
20708W        W63724   6.119  29.070  24.908  0.3161 -0.3298 -0.2237
20709W        W63725  14.443  32.589  20.780 -0.0611 -0.1925  0.0340
20710W        W63726  11.052  30.916  24.220 -0.1112  0.0784  0.1805
20711W        W63727   0.741  32.771  18.820  0.0698 -0.1710 -0.0696
20712W        W63728   7.489  28.552  15.892 -0.2372  0.0558  0.2115
20713W        W63729  29.876   0.208  24.716  0.2354 -0.1442 -0.1448
20714W        W63730  20.370   8.235  19.011  0.0077 -0.0041 -0.2227
20715W        W63731   7.831  27.486  14.572 -0.1737  0.1672  0.1471
20716W        W63732   5.247   1.590  28.212 -0.2289 -0.0004 -0.0437
20717W        W63733  20.422   5.853  25.994 -0.1873 -0.1182 -0.2421
20718W        W63734  33.137   4.448   9.124  0.0458 -0.0510  0.1928
20719W        W63735  23.101  31.780  15.988 -0.1397  0.1384  0.0384
20720W        W63736  34.308   1.122   0.840  0.1838  0.2507  0.0999
20721W        W63737  13.289   3.444  15.535 -0.0960  0.0248 -0.2466
20722W        W63738   2.013  30.075  28.210  0.1629  0.0014 -0.0561
20723W        W63739   0.437   7.677  28.721 -0.0220 -0.2297 -0.0144
20724W        W63740  15.957  27.013  18.137 -0.2510 -0.0136  0.2325
20725W        W63741   4.541  28.784  24.485  0.0721  0.2197 -0.1655
20726W        W63742   3.144   6.671  24.659 -0.0962 -0.0948  0.1694
20727W        W63743  12.517  15.671  24.290 -0.5304 -0.1061 -0.1337
20728W        W63744  24.913  17.357  22.989  0.4043  0.1028  0.2331
20729W        W63745  12.203   6.519  16.924  0.0708  0.1427 -0.1159
20730W        W63746  32.392   9.593  19.984  0.0749 -0.3152  0.3258
20731W        W63747   2.359  33.264   1.581  0.0117  0.1940  0.3999
20732W        W63748  14.753   7.726   6.619 -0.0821  0.3085  0.2992
20733W        W63749  25.692  22.706   1.302 -0.0381 -0.1812 -0.2517
20734W        W63750  29.119  18.934  23.231  0.0495 -0.1693 -0.1313
20735W        W63751   2.797   0.045  23.648 -0.3548  0.2555 -0.1461
20736W        W63752   8.935   5.936  23.231 -0.0542  0.0372  0.0072
20737W        W63753   7.195   4.770  14.943 -0.0319  0.1263 -0.0311
20738W        W63754  29.414  24.509  22.436 -0.1747 -0.2145  0.1758
20739W        W63755   8.861  29.696  19.944  0.0306  0.1840 -0.0844
20740W        W63756  24.820   9.640  23.663 -0.1847 -0.0337  0.1606
20741W        W63757  12.277  31.022  24.801 -0.1275 -0.0490  0.1750
20742W        W63758  31.535   0.276  10.571  0.3328 -0.2390 -0.0038
20743W        W63759  10.484  23.171  18.650  0.2137  0.3512  0.2378
20744W        W63760   7.904   0.471  26.920  0.1866 -0.0532 -0.0845
20745W        W63761  33.054  15.351   9.434 -0.1694  0.1685 -0.3614
20746W        W63762   7.775  26.243  27.997 -0.2987 -0.0226 -0.2087
20747W        W63763   3.387   8.401  17.537  0.1372  0.1347 -0.1318
20748W        W63764  10.713  10.346  27.795  0.3319  0.0846  0.3931
20749W        W63765  25.989  20.689  23.731 -0.0843 -0.0418  0.1989
20750W        W63766  29.951  28.720  26.658  0.1249 -0.1726 -0.0817
20751W        W63767  31.773  30.430   7.334  0.0141  0.1306  0.1153
20752W        W63768  29.973   4.019  21.469 -0.0938  0.2727 -0.0450
20753W        W63769   9.444  15.387   8.856  0.1328  0.1391 -0.3563
20754W        W63770   2.165  34.139  24.491 -0.0591  0.2417 -0.0619
20755W        W63771  23.361   9.409  16.442 -0.2814  0.1561  0.2662
20756W        W63772  19.035  17.694  26.071 -0.1205  0.0861 -0.0321
20757W        W63773   1.825  12.550  28.922 -0.2846 -0.0739  0.0639
20758W        W63774   8.383  25.820   7.867 -0.0349 -0.4238  0.0415
20759W        W63775  27.855   9.598  24.398 -0.1740 -0.2940 -0.0782
20760W        W63776  26.069   2.071  24.236  0.0286  0.1991  0.1005
20761W        W63777  30.258  27.365  17.884 -0.0096  0.0656  0.1712
20762W        W63778   8.987  33.390   5.329 -0.0209  0.0371  0.3174
20763W        W63779  32.938   9.236  25.494 -0.0828 -0.1165  0.0375
20764W        W63780  22.924   1.662  19.827 -0.1903 -0.3146  0.3978
20765W        W63781  24.459  13.335  21.120 -0.0772 -0.0614  0.0908
20766W        W63782  15.580   1.218  18.360 -0.2505 -0.2114  0.0018
20767W        W63783  16.686  24.519  23.325 -0.2524  0.0653  0.1363
20768W        W63784  11.578  30.552  16.743 -0.0897  0.0124  0.1313
20769W        W63785   2.943  34.205  23.289 -0.0500 -0.0404 -0.1196
20770W        W63786  10.461  30.834  23.407  0.0344  0.0089  0.2989
20771W        W63787  17.020  22.558  27.450  0.1659  0.2681 -0.2834
20772W        W63788   8.684  24.022  19.280 -0.1027  0.1677 -0.1803
20773W        W63789  32.069  26.718  15.869  0.3238  0.0970 -0.2157
20774W        W63790   8.925  20.184   5.011 -0.2757 -0.0708 -0.2072
20775W        W63791   6.889   9.933   8.255 -0.1602  0.0589  0.0864
20776W        W63792  24.534  34.240  16.647  0.0713 -0.0601 -0.5580
20777W        W63793  10.115  32.232  22.679 -0.0217 -0.3529 -0.1953
20778W        W63794   8.910   6.259   0.774 -0.1108  0.3999 -0.3252
20779W        W63795   5.623   1.317  28.003 -0.1408  0.2621  0.2632
20780W        W63796   6.785   5.734  21.865 -0.1548 -0.0974 -0.0720
20781W        W63797  23.496  11.247  14.851 -0.0397 -0.1650 -0.0542
20782W        W63798  32.607  28.288   0.798  0.4069  0.3000 -0.1483
20783W        W63799  21.023  11.657  23.216 -0.2358 -0.1423 -0.1222
20784W        W63800   2.649   5.707  24.666 -0.1340  0.0310 -0.0168
20785W        W63801  18.647   6.135  26.979 -0.0089 -0.3923 -0.0020
20786W        W63802  25.454  32.075  27.422 -0.0285  0.3973 -0.0363
20787W        W63803   4.285  15.988  14.937  0.4317  0.0607 -0.0637
20788W        W63804  11.639   3.934  17.397  0.0828  0.0949  0.0713
20789W        W63805   1.307  33.363  20.695  0.2406  0.1340 -0.0679
20790W        W63806  15.654   6.403   0.952  0.0925  0.0277  0.0970
20791W        W63807   0.742   8.497  19.687 -0.2074  0.3318 -0.5730
20792W        W63808   9.099  21.602  24.874 -0.0266  0.1555  0.2594
20793W        W63809   4.189  34.141   0.100 -0.3474 -0.0703  0.0205
20794W        W63810   8.297  27.241  15.507 -0.3496  0.0530  0.1752
20795W        W63811  12.773  31.096  27.956  0.4799  0.0507  0.0656
20796W        W63812  14.706   8.808  23.298 -0.0332 -0.3717  0.1599
20797W        W63813  17.723  27.750   1.095  0.2552 -0.1095  0.3664
20798W        W63814   2.141  31.678  21.498  0.2169 -0.2135 -0.0853
20799W        W63815   3.739  32.986  18.516  0.2635 -0.4204  0.1268
20800W        W63816  34.015  19.946   1.557 -0.0945 -0.1248 -0.0719
20801W        W63817   6.272  28.174   6.178  0.1675  0.2316 -0.1331
20802W        W63818  33.386   2.025   9.045  0.0746 -0.0802  0.2292
20803W        W63819  23.596  19.661  17.573 -0.0079  0.0644 -0.0177
20804W        W63820  19.717  11.268  21.208  0.0146 -0.1376 -0.1972
20805W        W63821   6.120  12.535  14.243  0.0894 -0.1908 -0.0795
20806W        W63822  32.534  34.418   9.492  0.0126  0.3217 -0.0090
20807W        W63823   9.140  17.475  14.762  0.1795  0.0865 -0.0959
20808W        W63824  32.352   5.968  18.198 -0.0580  0.0592 -0.2438
20809W        W63825  12.229   1.243  17.521  0.2197  0.2686  0.0947
20810W        W63826   2.626   6.574  26.056  0.2561 -0.2528  0.4328
20811W        W63827  26.315   6.552  28.053 -0.0572 -0.2185 -0.1176
20812W        W63828   1.189  33.409  13.718  0.0552 -0.1108 -0.2684
20813W        W63829  10.102  22.283   6.404  0.0155  0.0154 -0.0159
20814W        W63830   5.247  29.826  18.199 -0.0210 -0.1642  0.1808
20815W        W63831   2.583   8.571  26.340 -0.1198  0.0324  0.0990
20816W        W63832   5.051  30.381  25.655 -0.1301  0.0360 -0.2517
20817W        W63833  30.333  25.467  17.720 -0.1997  0.1255  0.0799
20818W        W63834   5.430  27.581  10.368  0.0415  0.0932 -0.1191
20819W        W63835   6.052   1.008  18.088  0.3012  0.2617 -0.0600
20820W        W63836  30.978  31.966  15.300 -0.0943  0.1311 -0.2669
20821W        W63837  15.541  26.330  19.600 -0.2167  0.2340  0.1450
20822W        W63838   7.271  16.037  22.704  0.0663  0.1559  0.2621
20823W        W63839  22.721   8.101   9.269  0.2608  0.1279  0.0963
20824W        W63840  32.055  23.242  18.743  0.2370  0.1297  0.0879
20825W        W63841  31.936  29.399   0.122  0.1325 -0.1078  0.1567
20826W        W63842  23.869   3.895  22.184  0.0403 -0.0710 -0.3837
20827W        W63843  13.131   1.319  25.449  0.1827  0.1162 -0.1299
20828W        W63844  26.151  15.568   4.672  0.1853  0.2179  0.2378
20829W        W63845  11.516  17.793  24.923  0.0862  0.0432 -0.1881
20830W        W63846   3.758  12.214  22.074  0.1537 -0.0608 -0.0143
20831W        W63847  20.594   5.231  23.350 -0.0121  0.2315 -0.0834
20832W        W63848  27.843  30.360  10.184  0.1579  0.1452 -0.0603
20833W        W63849   9.190  23.737  28.697 -0.2795 -0.2645 -0.0392
20834W        W63850  10.229  23.461  23.804  0.0908 -0.0513  0.1723
20835W        W63851  34.378  31.192   7.312  0.0340  0.2243  0.5299
20836W        W63852   8.461   5.742   1.706  0.2108  0.0689  0.1108
20837W        W63853   8.626  21.050  23.763  0.0268 -0.2045  0.3775
20838W        W63854  29.543  26.961  18.592 -0.1853 -0.2129 -0.0282
20839W        W63855  11.140   4.308  15.863  0.3862 -0.0245  0.0948
20840W        W63856  26.376   1.339  18.443  0.1188  0.2370  0.0098
20841W        W63857  18.107  10.805   8.653 -0.3265  0.1010 -0.0185
20842W        W63858  27.191  20.303  19.441  0.0740  0.1007  0.0241
20843W        W63859   5.393   0.465   0.692 -0.1799  0.0946 -0.1371
20844W        W63860   8.248   9.051  17.889  0.1032  0.1043  0.2076
20845W        W63861   8.739  26.746  18.286 -0.4451 -0.2666  0.0347
20846W        W63862   1.097  17.387  17.538 -0.0976 -0.3645 -0.0428
20847W        W63863  14.453  31.835  25.419 -0.0488  0.4316 -0.2697
20848W        W63864   0.624  11.633   5.387  0.3473 -0.2593 -0.1181
20849W        W63865   0.605  10.641   2.442  0.1805  0.1186 -0.2015
20850W        W63866  23.800   2.357  15.141  0.1806 -0.1958  0.0257
20851W        W63867  34.498  23.616   3.240 -0.1966  0.1127  0.1031
20852W        W63868   3.983  23.315  21.972  0.0256  0.0562 -0.0732
20853W        W63869  33.179   5.804  15.016  0.0448  0.2944 -0.1798
20854W        W63870  19.027   2.010   0.759  0.0029 -0.1776  0.0886
20855W        W63871   4.825  10.223  17.001 -0.0463  0.0702 -0.2718
20856W        W63872  16.651  17.894  21.948  0.0176 -0.0253  0.2946
20857W        W63873  27.301   0.160  19.662  0.1615  0.1694 -0.1770
20858W        W63874  10.466   2.531  19.260  0.3930  0.0947 -0.0394
20859W        W63875   3.588  15.358   5.573  0.0555  0.0670 -0.1012
20860W        W63876  20.373  27.947  22.388  0.0962 -0.2207 -0.3373
20861W        W63877   6.314  25.796   2.847 -0.1074  0.3030 -0.2687
20862W        W63878  11.740   4.379  17.136  0.1729 -0.1431  0.0956
20863W        W63879   1.619   6.068  18.121  0.0540 -0.1194  0.2327
20864W        W63880  26.330  32.660  20.416  0.0297 -0.0192  0.4823
20865W        W63881  11.975  20.494  25.888 -0.2971  0.1712 -0.2663
20866W        W63882  22.807   3.444  10.771  0.2273  0.0714 -0.2343
20867W        W63883  15.973  11.274  20.762  0.2909 -0.2553  0.1879
20868W        W63884  30.623   1.183  23.314  0.0641  0.3534 -0.0810
20869W        W63885  31.184   4.658  26.017  0.3780  0.2894  0.2772
20870W        W63886  16.177  23.048  28.045  0.2859 -0.1532 -0.0793
20871W        W63887   2.126  21.655   9.098 -0.0213  0.1349  0.1813
20872W        W63888   9.379   7.790  25.219 -0.1711  0.0625  0.3026
20873W        W63889   9.235   0.477   0.497 -0.2195  0.2069 -0.1307
20874W        W63890   0.251  30.284  18.546 -0.0352  0.0455  0.1468
20875W        W63891  15.541  29.686  15.667 -0.0412 -0.2796  0.0431
20876W        W63892  18.735  11.087   8.029 -0.0736 -0.3004 -0.0304
20877W        W63893   0.714  21.134  23.487  0.2814 -0.2284  0.2132
20878W        W63894   4.106  12.499  17.584 -0.4490 -0.1297  0.1672
20879W        W63895  31.169  11.713  28.360  0.2821 -0.0303  0.1811
20880W        W63896   7.520  19.510  14.550  0.0688 -0.3095  0.1077
20881W        W63897   4.169   6.897   1.336  0.1763  0.2599  0.2523
20882W        W63898  12.454   2.200  23.874  0.2125  0.2866 -0.2505
20883W        W63899  10.448  19.418  18.572 -0.0237 -0.3001 -0.0685
20884W        W63900   0.055  32.260  18.156  0.0946 -0.1176  0.0334
20885W        W63901  12.500   2.921   3.049  0.0906 -0.1182 -0.0101
20886W        W63902  25.766   2.887  24.525 -0.0514 -0.1380 -0.0786
20887W        W63903  11.022  33.006  14.366  0.2279 -0.2497  0.0271
20888W        W63904  30.745   0.693   1.437  0.1896  0.0270 -0.3849
20889W        W63905   0.281  27.889  17.228 -0.0790 -0.0368  0.0525
20890W        W63906  29.922   3.438   1.381  0.2193 -0.0711 -0.1582
20891W        W63907  10.811  22.847  18.925  0.1903 -0.0347 -0.2626
20892W        W63908  23.044   5.107  19.398  0.2505  0.0319  0.1435
20893W        W63909  28.246  13.064  24.124 -0.2163  0.2224 -0.1533
20894W        W63910  17.165   9.194  13.444 -0.2699  0.0056  0.0537
20895W        W63911   0.059  30.472  27.086  0.0525  0.1709 -0.0809
20896W        W63912  11.375  33.978  21.258  0.1408  0.0670 -0.1277
20897W        W63913   3.302   9.685   3.834 -0.0970 -0.0703 -0.2206
20898W        W63914   2.065   6.631  20.691  0.1849 -0.0306 -0.0633
20899W        W63915  26.422  27.664  18.633  0.3072  0.3114  0.0733
20900W        W63916  30.974   3.282  27.424 -0.0258 -0.0915 -0.0661
20901W        W63917   7.028  33.427  28.222 -0.0234 -0.1057 -0.0136
20902W        W63918  22.756  18.224   8.462 -0.1614  0.1040 -0.1345
20903W        W63919  15.499  15.420  22.429  0.0219  0.1655 -0.3093
20904W        W63920  14.648   1.495  23.140 -0.0058  0.1173 -0.0268
20905W        W63921   5.128  32.964  14.483 -0.0555  0.0761 -0.3450
20906W        W63922   7.070  20.213  25.644 -0.1005  0.5033  0.0008
20907W        W63923   5.870  15.443  24.720  0.0085  0.0644 -0.1735
20908W        W63924  29.906  10.884  18.873  0.1960 -0.0393  0.0310
20909W        W63925  10.153  14.897  21.424 -0.2302  0.2916 -0.0368
20910W        W63926  10.067  32.527   1.571 -0.2894 -0.0206  0.0832
20911W        W63927   1.660   1.749  22.650 -0.2663  0.0340  0.0874
20912W        W63928   2.487  29.740  16.262 -0.3996  0.2069  0.1752
20913W        W63929  16.094   9.346   1.841  0.0410  0.1578 -0.0728
20914W        W63930   3.852   0.679  16.273 -0.0374  0.1329 -0.0518
20915W        W63931   8.028  28.998   3.827  0.0716  0.1018  0.0539
20916W        W63932   3.324  20.212   2.577  0.0838 -0.2738  0.0445
20917W        W63933   2.592  25.540  22.806 -0.2173 -0.0853  0.1267
20918W        W63934   5.517   2.161  17.004  0.6241  0.1892  0.0948
20919W        W63935  19.761  32.103   6.743 -0.3061 -0.0875 -0.2044
20920W        W63936   0.987  15.458  15.146  0.0067  0.0304  0.2731
20921W        W63937   4.042  30.473  22.184  0.0195 -0.2946 -0.1995
20922W        W63938   1.675   1.762  23.716 -0.2652 -0.2154 -0.0829
20923W        W63939  30.531   7.684  23.466 -0.0623 -0.0471  0.1318
20924W        W63940   1.145   3.651  28.701  0.0018 -0.1759  0.0331
20925W        W63941  15.767  15.288   6.378  0.0689 -0.0682 -0.2646
20926W        W63942  24.130   2.138   0.679 -0.0059 -0.0437 -0.2440
20927W        W63943   9.173  12.806  13.905 -0.2136 -0.0856 -0.1064
20928W        W63944   1.697  30.553  15.746  0.0209 -0.3588 -0.0446
20929W        W63945  13.219   6.015  28.180 -0.3416 -0.0313  0.1664
20930W        W63946  12.636  23.544  28.473 -0.3033 -0.1915  0.0490
20931W        W63947  12.853   7.207  20.255 -0.1080 -0.2602  0.1766
20932W        W63948   3.904  25.883  22.773 -0.1968 -0.4515 -0.2274
20933W        W63949  32.957  34.443  18.015 -0.1465  0.2183  0.0160
20934W        W63950  19.839   9.635  29.245 -0.1138 -0.1231  0.2199
20935W        W63951   9.541   4.811  22.884 -0.0180 -0.1322 -0.1787
20936W        W63952   9.715  19.914  24.056 -0.0880 -0.1611 -0.0961
20937W        W63953   3.618   4.508  16.703 -0.1205 -0.0107 -0.1735
20938W        W63954   9.637   8.892  26.697 -0.2801  0.0702  0.3231
20939W        W63955  18.788  32.280   0.659  0.1720  0.1013  0.0783
20940W        W63956  11.876  29.329  22.123  0.1773 -0.0775  0.2903
20941W        W63957  27.589  11.803  16.088  0.4066  0.1304 -0.0685
20942W        W63958   4.525  28.058   0.300 -0.2030 -0.0949 -0.0749
20943W        W63959  24.066   2.454   3.095 -0.1346  0.0469  0.0277
20944W        W63960   3.995  14.157  22.817 -0.0617 -0.1678 -0.1464
20945W        W63961   0.399   6.729  15.502  0.0327 -0.2087 -0.3196
20946W        W63962  11.265  26.348  24.017  0.2202  0.0346 -0.0384
20947W        W63963   9.268  20.156  17.427  0.1186  0.0619  0.0810
20948W        W63964   1.759   5.007  21.016 -0.2452 -0.2846  0.0303
20949W        W63965   5.917  25.701  24.434  0.1864 -0.2654 -0.0779
20950W        W63966  33.905  25.116  22.458 -0.2895 -0.0264 -0.1532
20951W        W63967  30.798  28.239  27.747 -0.0236  0.1900  0.1505
20952W        W63968   2.676  34.721  19.476 -0.0391  0.0897 -0.0270
20953W        W63969  13.128  30.858  16.920  0.0103  0.0777 -0.0747
20954W        W63970   6.931  17.447  15.331 -0.2080 -0.1737 -0.1815
20955W        W63971   2.129   7.824  25.640  0.0617 -0.1292 -0.0849
20956W        W63972   1.211   2.243  20.955  0.1526 -0.2237  0.0460
20957W        W63973  16.070  20.928   5.842  0.0930 -0.0448 -0.4640
20958W        W63974   6.302  30.503  22.125  0.0018  0.3307 -0.3237
20959W        W63975   6.851  29.105   0.352  0.0695 -0.2969 -0.0777
20960W        W63976   3.370   1.523  21.745 -0.2535 -0.0396 -0.0930
20961W        W63977  29.947  15.219  28.058 -0.3070 -0.1036 -0.0814
20962W        W63978  32.644  12.672  14.683  0.0833  0.0545  0.1668
20963W        W63979  14.667  21.511  25.646  0.0671  0.1086  0.1134
20964W        W63980  20.200   4.893   1.547 -0.2193  0.1862 -0.0673
20965W        W63981  17.052  23.794  27.710  0.0991  0.0578 -0.2246
20966W        W63982   9.797  29.458  26.408  0.1335 -0.0831 -0.3852
20967W        W63983   3.704   4.302   1.977 -0.0442  0.0900 -0.1777
20968W        W63984  22.967  32.928  25.520  0.1700  0.3765 -0.0433
20969W        W63985  24.961   6.349   9.863  0.1809 -0.3729  0.1970
20970W        W63986  19.618  26.940  23.648  0.3072 -0.3156  0.0111
20971W        W63987   1.302   0.609  16.364  0.3264 -0.0938  0.0622
20972W        W63988   7.701  31.367  28.535 -0.0957  0.2559 -0.3356
20973W        W63989  34.602   0.227  27.299  0.2297  0.0728  0.0736
20974W        W63990   1.355  20.617  26.163  0.1236  0.0548 -0.1103
20975W        W63991   8.243  14.597   4.437 -0.2391  0.0672 -0.1794
20976W        W63992  11.951   0.635  15.001 -0.3531  0.2101 -0.0260
20977W        W63993  15.968   2.136   2.652  0.2093  0.2245 -0.1403
20978W        W63994  23.291  29.112  22.931  0.3606  0.2714 -0.4463
20979W        W63995   8.869   3.220  24.857  0.1266 -0.4636  0.1069
20980W        W63996  32.979   7.079  25.862 -0.2145 -0.0096  0.0609
20981W        W63997  30.002   5.427  28.076 -0.4624  0.1313 -0.1793
20982W        W63998  11.073  30.626  21.613 -0.0442  0.2428  0.1927
20983W        W63999  20.679   1.131  15.826 -0.1477  0.0606 -0.0303
20984W        W64000  33.859  21.389   3.666  0.0631  0.1559 -0.1528
20985W        W64001   3.487  34.730  22.586 -0.1816 -0.0474  0.0363
20986W        W64002  12.938   4.310  25.410 -0.0377  0.1688 -0.0372
20987W        W64003   6.871   9.312  14.957 -0.0699  0.1557  0.2307
20988W        W64004  28.057  10.242   3.262  0.0951 -0.1708 -0.1653
20989W        W64005   3.794   8.262   9.283 -0.3328  0.0340 -0.1046
20990W        W64006  31.240   1.340  25.740  0.1998 -0.0890  0.0161
20991W        W64007   5.724   2.336  24.802  0.0749 -0.1197  0.0970
20992W        W64008   2.200  22.017  22.119  0.0980 -0.0996 -0.0758
20993W        W64009  26.077  27.056  16.739  0.1324 -0.0900 -0.2206
20994W        W64010  29.219  18.737  16.628 -0.3482 -0.2302  0.0069
20995W        W64011  14.421  15.500   3.677 -0.2428 -0.0806  0.0271
20996W        W64012  10.370   2.001  15.850 -0.0401  0.1993  0.0332
20997W        W64013   7.670   3.388  18.809  0.0416 -0.0840  0.2976
20998W        W64014  25.984   5.318  17.399  0.0115  0.1967  0.0908
20999W        W64015   9.452  24.259  21.509  0.0024 -0.2535  0.3446
21000W        W64016  14.945   2.642   4.954 -0.0780  0.3587  0.1776
21001W        W64017  25.908  27.900  24.133  0.0444 -0.2095  0.0271
21002W        W64018   1.834   6.227  22.051  0.3358  0.3240  0.1960
21003W        W64019  21.840  24.840   5.954  0.0902 -0.1117 -0.1759
21004W        W64020   5.690  20.599  14.093  0.0221 -0.2368  0.0833
21005W        W64021  14.985  33.411  22.546  0.0207  0.0864 -0.0477
21006W        W64022   2.562  11.978  15.645 -0.0283 -0.0887  0.0026
21007W        W64023   8.910  32.811  21.883  0.0209 -0.0388 -0.0063
21008W        W64024  16.105  10.585  13.099  0.0384  0.1508  0.3823
21009W        W64025  10.154  23.222  19.938  0.1366 -0.1430  0.0483
21010W        W64026   3.823  17.943  13.740 -0.0443 -0.5495  0.0583
21011W        W64027  21.383  31.330  27.837  0.0662 -0.2059 -0.0781
21012W        W64028   9.293  31.125  19.693 -0.1338 -0.2227  0.0213
21013W        W64029  11.934  32.099  23.034 -0.0108 -0.0156 -0.0304
21014W        W64030  16.247  33.817   3.356 -0.1091  0.2345  0.0808
21015W        W64031  34.691  16.782  17.549  0.1191 -0.0070  0.2543
21016W        W64032   6.832  18.067  23.569 -0.1619  0.2081  0.1019
21017W        W64033  31.934  29.315   5.612 -0.0416 -0.3604 -0.0060
21018W        W64034   3.637   5.092  28.650 -0.3281  0.1937 -0.0624
21019W        W64035  15.512  28.111  21.544 -0.2146  0.0822 -0.1150
21020W        W64036   9.465  31.427  16.664  0.0435  0.0004  0.0705
21021W        W64037   3.159   0.363  20.154  0.2576  0.1293  0.0304
21022W        W64038  23.285  27.152  28.026 -0.2910  0.2406  0.0110
21023W        W64039  27.249  12.663  23.941  0.1246  0.1053 -0.0488
21024W        W64040   0.012   3.980   9.313  0.0514  0.0574 -0.1664
21025W        W64041   1.725  33.106  26.947 -0.2814 -0.1309  0.0092
21026W        W64042   6.691  33.282  18.524  0.0075 -0.1055  0.2614
21027W        W64043   0.781   2.930  22.338  0.1015 -0.1181 -0.1876
21028W        W64044   7.897  34.723  19.400 -0.0984  0.1335  0.1090
21029W        W64045   0.542   3.110  27.476 -0.0469  0.1066  0.4224
21030W        W64046  11.788  18.295  21.786 -0.0472  0.1441  0.2866
21031W        W64047  19.079   1.534   1.520  0.3211  0.0838 -0.0607
21032W        W64048   7.922  31.160  28.997 -0.0428  0.0393  0.1100
21033W        W64049  20.976   7.517  18.942 -0.2512 -0.1489 -0.0625
21034W        W64050   6.704   1.966   3.004  0.0588 -0.1190 -0.1946
21035W        W64051  28.824  28.735   0.500  0.1135  0.0995  0.0780
21036W        W64052  29.572   0.896  26.043  0.0263  0.1200 -0.0693
21037W        W64053  10.489  23.328  25.923 -0.4387  0.2634  0.1154
21038W        W64054  33.149  27.398   3.409  0.0415 -0.0526 -0.2113
21039W        W64055  14.447   3.240   8.393  0.2115 -0.0321 -0.0875
21040W        W64056  29.789  32.393  23.611 -0.0445 -0.0951 -0.1741
21041W        W64057  20.912  11.217  17.665 -0.1178  0.0726  0.1530
21042W        W64058  18.389   0.693  26.207  0.1857 -0.2439 -0.2537
21043W        W64059   0.282  30.353  25.804 -0.0348 -0.0412  0.1408
21044W        W64060  12.321   1.166   2.436  0.2873  0.1752  0.0147
21045W        W64061  14.424  28.985  25.924 -0.1454 -0.0720  0.0337
21046W        W64062  25.147  16.798  28.946 -0.1682  0.1171 -0.0770
21047W        W64063  25.362  20.127  14.866 -0.0165  0.1121  0.0338
21048W        W64064  31.882   3.643   7.902 -0.4164 -0.0824 -0.3217
21049W        W64065   6.981   0.736  13.783  0.1024 -0.1991 -0.0664
21050W        W64066  27.623   3.687   3.087  0.1255  0.1715  0.0139
21051W        W64067   3.346  32.645   4.653 -0.1460 -0.1955  0.2331
21052W        W64068  11.053   1.664  22.332  0.1829 -0.3785 -0.1003
21053W        W64069  32.259  34.105  17.489 -0.0049 -0.0451 -0.4373
21054W        W64070  20.759  18.526  24.966 -0.1257 -0.1213 -0.1630
21055W        W64071  30.470   0.267   8.000 -0.1730  0.1200 -0.6059
21056W        W64072   8.323  32.598  24.468 -0.1279 -0.1298  0.0456
21057W        W64073  12.817  11.963   2.311 -0.0968 -0.0564 -0.0909
21058W        W64074  28.019   3.702   9.241 -0.0798 -0.3837  0.6353
21059W        W64075  34.264   4.011  18.517  0.1012 -0.0264  0.2626
21060W        W64076   2.332  33.685   5.610  0.0504 -0.0400  0.0301
21061W        W64077  34.774  11.232   9.224  0.0980  0.0222  0.0384
21062W        W64078  28.535   9.911   1.940 -0.1820 -0.1056  0.3552
21063W        W64079  12.418  20.319  13.017 -0.1537 -0.0917 -0.0158
21064W        W64080  12.976  10.122  27.497  0.1087  0.3979 -0.0815
21065W        W64081  32.785   9.804  19.045  0.1241 -0.1114 -0.0075
21066W        W64082  14.176  11.329  16.146 -0.2435 -0.2311 -0.3590
21067W        W64083  11.226  25.314  24.523  0.0660  0.0185  0.1646
21068W        W64084  33.863   0.316  19.638 -0.4035 -0.1122  0.0251
21069W        W64085  13.483  23.624  19.349  0.3418  0.0878 -0.1261
21070W        W64086  27.878  27.739  26.333  0.0421  0.0554  0.0792
21071W        W64087  15.065  26.886  24.698 -0.3275  0.0579 -0.2893
21072W        W64088  22.987  24.711   8.509  0.0114 -0.2914  0.2376
21073W        W64089   4.216  31.478  25.395 -0.3068  0.0306  0.0111
21074W        W64090  31.501  29.311  24.454  0.1618 -0.2814 -0.4869
21075W        W64091   0.893   9.671  23.404  0.1572  0.0304  0.0361
21076W        W64092  28.252  18.017  20.573 -0.3041  0.2227 -0.0216
21077W        W64093  16.623   7.717  16.232  0.0453 -0.0077  0.1685
21078W        W64094  11.529  32.928   6.095 -0.0353 -0.0853  0.1445
21079W        W64095  30.115  19.568  23.245 -0.0554 -0.0142 -0.0758
21080W        W64096   8.933  29.243  15.779 -0.4635 -0.2573 -0.2060
21081W        W64097  20.284  10.311  12.706  0.4576 -0.0886 -0.0490
21082W        W64098   0.287   1.246  21.449 -0.1387 -0.2721  0.0059
21083W        W64099  11.492   1.142  10.358 -0.0567  0.3287 -0.2277
21084W        W64100  32.348  15.735  15.123  0.0136 -0.0204 -0.0395
21085W        W64101   1.087   6.543  26.773  0.2841 -0.0210 -0.4012
21086W        W64102   3.100   6.234  17.347 -0.0175 -0.1742  0.0714
21087W        W64103  33.313  31.288   4.471 -0.3414  0.1488 -0.0024
21088W        W64104  28.363  12.571  24.110 -0.3536 -0.2113  0.0736
21089W        W64105   0.367   6.939   5.808  0.1879 -0.2907  0.0856
21090W        W64106  34.078   9.865   3.992  0.1604  0.2151  0.3670
21091W        W64107  12.099  11.101   1.275  0.1318  0.0075 -0.0797
21092W        W64108  32.582  32.856   2.098  0.3061 -0.0334 -0.1588
21093W        W64109   5.583  29.937  15.785 -0.2342  0.1393 -0.3790
21094W        W64110   1.052  23.561  28.955  0.1251 -0.3003  0.1731
21095W        W64111  34.757  33.852  21.863  0.1926  0.0377  0.0096
21096W        W64112   0.048   8.434  26.347 -0.0148 -0.0613  0.0534
21097W        W64113   4.082  34.340  24.604  0.1410 -0.2230 -0.1447
21098W        W64114   8.978  29.492  16.952 -0.0733  0.0708  0.0726
21099W        W64115  16.663  31.662  19.410 -0.0919 -0.0795  0.0519
21100W        W64116  33.755   7.918  26.758 -0.1250 -0.0316 -0.3003
21101W        W64117  19.256  32.806   6.743 -0.1724 -0.2647  0.0573
21102W        W64118  33.102  29.173   9.463 -0.1831 -0.0036 -0.1810
21103W        W64119  16.766  31.937  28.824  0.1211  0.2171 -0.0617
21104W        W64120  33.231  18.346  22.225  0.0019  0.1865 -0.0311
21105W        W64121   7.631  24.893   6.332 -0.0523 -0.2770 -0.1867
21106W        W64122  32.738   9.222  15.027  0.0268 -0.2244  0.2216
21107W        W64123  17.587  10.007   4.027  0.2372  0.0190  0.1421
21108W        W64124  25.850   0.721  25.627 -0.3350  0.1938  0.1741
21109W        W64125   3.683   4.050  18.454  0.0579 -0.0115  0.2373
21110W        W64126  16.688   8.320  18.212 -0.2097  0.1684  0.2504
21111W        W64127  23.964   2.880   8.543 -0.2624  0.2595 -0.5387
21112W        W64128  27.478  17.810   7.952  0.2590 -0.3034  0.1219
21113W        W64129  31.681   0.067   8.679  0.0742  0.0772 -0.0647
21114W        W64130  11.235  11.494   0.945 -0.0353  0.2623 -0.1194
21115W        W64131   8.605  18.239   0.532  0.0913  0.1285  0.1649
21116W        W64132  15.026  18.013   1.662 -0.3100 -0.2034 -0.2450
21117W        W64133   2.123  32.823  28.172  0.0460  0.0957 -0.0277
21118W        W64134  31.270  15.010  16.718 -0.0543  0.0295 -0.2653
21119W        W64135  11.570  21.336  25.688 -0.1175 -0.1760 -0.0210
21120W        W64136  16.293   4.315   2.278 -0.0539 -0.3603  0.3886
21121W        W64137   1.344  12.652  19.056  0.2482  0.1450  0.2693
21122W        W64138  25.546   5.045  15.343  0.0688  0.1753 -0.3055
21123W        W64139   8.766  25.926  17.266 -0.1303 -0.1209  0.2000
21124W        W64140  31.065  32.522   0.255 -0.1375  0.0437 -0.1161
21125W        W64141  27.378  11.618   4.973 -0.0023 -0.0358  0.2367
21126W        W64142  19.124  31.136  19.377 -0.2229 -0.0253 -0.3957
21127W        W64143   9.519  33.934  25.656  0.2837  0.0283 -0.0251
21128W        W64144   3.475  34.696  21.942  0.3257 -0.0590  0.2502
21129W        W64145  18.476  18.313   3.189 -0.0716 -0.0502 -0.1182
21130W        W64146  34.304   7.171  25.454  0.1211 -0.1809 -0.3468
21131W        W64147  13.884   7.838  23.071  0.3288  0.0548 -0.1742
21132W        W64148   8.112   8.888  19.238 -0.0066  0.0575  0.3273
21133W        W64149  26.509  27.533  26.105  0.3195  0.2933 -0.1222
21134W        W64150   7.678   9.485   7.008  0.4492  0.2853 -0.2980
21135W        W64151  25.556  15.754  22.526  0.1126 -0.0008 -0.1870
21136W        W64152   7.384  28.330  18.684  0.1768 -0.1788 -0.0026
21137W        W64153  30.272  30.882  28.288 -0.1325  0.0036  0.1243
21138W        W64154  29.108   3.781  18.868 -0.2494  0.1420  0.0781
21139W        W64155  25.855  22.037  28.857 -0.1247 -0.0068 -0.4886
21140W        W64156  33.857   5.827   4.610 -0.0270 -0.3378  0.0875
21141W        W64157  21.899  34.207   0.356  0.1210  0.0245  0.2706
21142W        W64158   0.552  29.511   2.799 -0.2358  0.0834 -0.0619
21143W        W64159   5.047  12.273  25.181 -0.3029 -0.0055  0.1478
21144W        W64160   6.752  25.557  24.359 -0.0611  0.1582 -0.0655
21145W        W64161   2.360  26.155  27.023 -0.0525  0.1817 -0.0199
21146W        W64162   2.308   2.195   6.520 -0.0262 -0.0821  0.1469
21147W        W64163   7.166   7.770  24.502  0.0736 -0.1981 -0.0443
21148W        W64164  27.599  23.288   5.619 -0.1640 -0.3976 -0.0722
21149W        W64165  33.736  31.255  24.079 -0.1523 -0.1246 -0.0495
21150W        W64166   6.365  15.928  16.539  0.0772  0.1628  0.2118
21151W        W64167   6.984  27.966   5.416 -0.0636 -0.0196  0.1677
21152W        W64168   1.162  13.888   1.561 -0.1208  0.3667  0.1535
21153W        W64169   1.896   9.688  25.356 -0.0785  0.0951  0.2590
21154W        W64170  29.794   0.359   0.553  0.1543 -0.0071  0.1174
21155W        W64171  18.320   5.888   5.013 -0.1258 -0.0732  0.0350
21156W        W64172  28.381  33.859   1.629 -0.1468 -0.0112 -0.3499
21157W        W64173   4.027   5.138   1.189  0.0743 -0.3494  0.1516
21158W        W64174  13.325  26.909  24.470 -0.1080  0.2275  0.3084
21159W        W64175   8.669   7.009   6.752  0.0979 -0.2646  0.0918
21160W        W64176   1.027  31.444  26.303  0.2689  0.0043  0.1709
21161W        W64177  10.295  23.724  26.178 -0.0280  0.1616  0.2984
21162W        W64178  14.832   5.205  15.921  0.0388 -0.1253 -0.0046
21163W        W64179   2.224  18.354   7.212  0.0523 -0.0884  0.2947
21164W        W64180  27.994   8.368   7.523  0.2894  0.1432 -0.0442
21165W        W64181   4.209   8.805  23.844  0.1140 -0.3163  0.0365
21166W        W64182  31.082  27.049  29.083  0.0736  0.1851 -0.0347
21167W        W64183  18.232   2.525  26.085  0.0210  0.2789 -0.1124
21168W        W64184  19.017   5.344   8.657  0.0598  0.1603  0.2756
21169W        W64185  30.152   5.827  28.500  0.4125 -0.1294  0.0909
21170W        W64186  14.593   7.610  24.000  0.0570 -0.1403 -0.1669
21171W        W64187   1.183  14.317  20.159 -0.0665 -0.2322 -0.1283
21172W        W64188  28.959  18.659  14.911 -0.0799  0.2248 -0.2704
21173W        W64189   7.364   2.222   7.565  0.1398 -0.0793  0.0486
21174W        W64190   8.005   5.749  15.277 -0.2010  0.1218 -0.1134
21175W        W64191   4.633   4.765   4.253 -0.2173 -0.0453 -0.3578
21176W        W64192   4.566  24.806   4.203 -0.2980 -0.0811  0.0098
21177W        W64193   6.500   3.949  10.045 -0.3244  0.1524  0.0213
21178W        W64194   4.905   1.469  25.012  0.0218  0.1529 -0.1007
21179W        W64195  25.142  20.457  29.229 -0.0171 -0.2346  0.1793
21180W        W64196  26.569   0.885  23.504 -0.1649  0.0653  0.1096
21181W        W64197  16.961   3.369  24.904  0.1106 -0.2108 -0.0487
21182W        W64198  32.098  33.243  25.420 -0.1396 -0.0081  0.0193
21183W        W64199  13.891   0.516   2.250  0.1067  0.0439 -0.1667
21184W        W64200   9.126   8.699   2.272 -0.3067  0.0983  0.1969
21185W        W64201  29.482   5.323   2.812 -0.0664  0.0685 -0.0170
21186W        W64202   0.587   6.628   6.046 -0.1182 -0.1746 -0.0137
21187W        W64203  13.618   0.837   5.404  0.0880 -0.3306  0.1474
21188W        W64204  26.845  32.290  28.764 -0.1436 -0.0038 -0.0675
21189W        W64205   7.220  21.233   1.882  0.1167 -0.3282 -0.0049
21190W        W64206  11.062  27.124   3.080 -0.0115  0.1608  0.0267
21191W        W64207  26.593  31.875  26.545 -0.0268  0.0247 -0.2462
21192W        W64208   3.814   6.462   9.099 -0.0277  0.2569  0.2007
21193W        W64209   3.316  31.132  19.532  0.1664 -0.1313  0.0919
21194W        W64210  24.652  29.017  19.860  0.0525  0.0013 -0.1888
21195W        W64211  15.510   1.659  23.951 -0.0396 -0.1524 -0.1618
21196W        W64212  30.735  28.228  24.139  0.4308 -0.2291  0.1261
21197W        W64213   6.196   1.999   7.730 -0.2423  0.0318 -0.3968
21198W        W64214   2.650  26.155  15.089  0.0252  0.3404 -0.0302
21199W        W64215  14.776  17.655   3.170 -0.2006  0.0667 -0.1453
21200W        W64216   0.083   4.346  20.457  0.0672  0.1613  0.1340
21201W        W64217  29.483  31.069   2.902  0.1822 -0.0330 -0.0324
21202W        W64218  27.861   0.513  10.519  0.0640 -0.1593  0.0830
21203W        W64219   6.445   7.044  26.712 -0.4448 -0.1081  0.2465
21204W        W64220   9.731  17.568   8.975  0.4200  0.0810 -0.1933
21205W        W64221  27.042  10.861  20.978  0.0278  0.2420 -0.1467
21206W        W64222  34.728   1.036  27.234  0.4670  0.0507 -0.2425
21207W        W64223  30.234  34.266  25.897 -0.1501 -0.2252  0.2554
21208W        W64224   7.546  34.264  15.169 -0.0285  0.1039  0.0057
21209W        W64225   4.891   0.659  21.031  0.3024 -0.0029  0.3381
21210W        W64226   3.235  34.046   7.362  0.0383 -0.0285  0.0261
21211W        W64227   4.900   3.773  16.657 -0.0430 -0.1164  0.2207
21212W        W64228   4.618   0.791   0.861 -0.0790  0.1169  0.1096
21213W        W64229  20.691  31.016  15.041  0.2351 -0.1276 -0.0170
21214W        W64230   3.887  34.759   2.151  0.1265  0.1634  0.1200
21215W        W64231   8.273  24.904  22.575  0.2742 -0.0375  0.2797
21216W        W64232   4.015  32.178  15.684 -0.2996 -0.1148 -0.0620
21217W        W64233  10.497   3.710   2.600  0.3664 -0.0089  0.1284
21218W        W64234  16.128  31.917  21.067 -0.0770 -0.2626  0.1736
21219W        W64235  26.323  33.960  20.152  0.0496 -0.1465 -0.1043
21220W        W64236  28.979  13.685   3.984 -0.3081  0.0283 -0.1955
21221W        W64237  21.779  11.401  17.774 -0.0984  0.1447 -0.1165
21222W        W64238   2.216  19.365  19.726  0.0480 -0.1289  0.0278
21223W        W64239  33.192   1.757  29.246 -0.0105 -0.0062  0.0142
21224W        W64240  29.116   6.082  10.683 -0.1634 -0.0501  0.0291
21225W        W64241   7.960   6.521  19.136 -0.0125  0.0607 -0.0029
21226W        W64242   2.971   4.004   0.232  0.3548 -0.0425 -0.0119
21227W        W64243  22.701  26.217   2.551  0.0720  0.0613 -0.0163
21228W        W64244  27.402   1.573  16.248  0.2174 -0.0921  0.2162
21229W        W64245   2.584   3.078   2.199 -0.2058  0.2421 -0.0807
21230W        W64246  30.715   3.449  28.496  0.2588 -0.2143  0.0025
21231W        W64247   6.538   3.340   0.307  0.0341  0.2063  0.0274
21232W        W64248   2.569  19.582   5.511 -0.0055  0.0223 -0.0827
21233W        W64249  10.108  33.588  16.511 -0.0113  0.2388  0.3210
21234W        W64250  21.485  32.200  22.540 -0.0418 -0.0724  0.1108
21235W        W64251   1.137  17.983  23.541  0.2299  0.0894  0.0684
21236W        W64252   8.392  27.529   2.602 -0.1406 -0.2018 -0.2094
21237W        W64253  16.576  19.578  22.474 -0.2253 -0.0985 -0.2388
21238W        W64254  34.722  29.634  20.574  0.3966 -0.0581 -0.0423
21239W        W64255   4.621   3.969  23.290  0.2588 -0.1761 -0.0631
21240W        W64256  16.432  29.082  25.527  0.0995  0.1434  0.0433
21241W        W64257  28.648  30.046  27.254 -0.1362 -0.0095  0.1071
21242W        W64258  15.157   3.526  26.068 -0.0249 -0.1001 -0.0576
21243W        W64259  28.390   3.673   6.624  0.0105  0.1804 -0.0758
21244W        W64260   1.543   9.124   1.822  0.1242 -0.0288  0.1474
21245W        W64261  14.736   2.572  28.298 -0.2085 -0.1025 -0.1126
21246W        W64262   3.731   0.461  22.631 -0.0588  0.2329  0.1124
21247W        W64263   2.600  15.176  22.923 -0.0134 -0.1165  0.0802
21248W        W64264   9.989   5.616  10.858  0.0673  0.1280 -0.0435
21249W        W64265  32.285   5.442  16.178 -0.2327  0.0476  0.4270
21250W        W64266   7.653   6.039   0.352  0.3392  0.0414  0.0970
21251W        W64267  11.918  15.513  17.613  0.0351  0.0336  0.0985
21252W        W64268   9.099  31.936   1.988  0.2346  0.0137 -0.2253
21253W        W64269   0.744  27.054  27.427 -0.2558 -0.1797  0.1966
21254W        W64270  22.228   6.097  22.487  0.0673 -0.0345  0.0015
21255W        W64271  32.181   0.227   6.476  0.0021 -0.0402 -0.3332
21256W        W64272  30.810   4.127  17.514  0.2309  0.1689  0.1171
21257W        W64273  13.218   7.096  14.270  0.2354  0.1244 -0.0866
21258W        W64274   0.682  29.125   2.533 -0.0963  0.2202 -0.2614
21259W        W64275   2.240   4.430  15.960 -0.2476  0.3109 -0.3116
21260W        W64276  16.388   7.084  21.111  0.4676  0.1401 -0.4468
21261W        W64277  28.974  28.393  26.072  0.2322  0.1554 -0.2397
21262W        W64278   3.130  15.982  16.005  0.0729  0.1965 -0.1907
21263W        W64279  31.697   0.016   0.524 -0.2100 -0.0024 -0.1037
21264W        W64280   3.936   1.678  22.375  0.0184  0.3289 -0.0146
21265W        W64281  33.159  34.742  20.624  0.1350 -0.0951  0.0398
21266W        W64282  13.883   5.045  23.445  0.2247 -0.0154  0.2486
21267W        W64283  32.168  33.101   4.924 -0.2214 -0.2812  0.2205
21268W        W64284   7.430   1.329   5.537  0.0582  0.1637 -0.2694
21269W        W64285  18.006  30.084  18.166 -0.0349  0.1411  0.3418
21270W        W64286  34.560  16.599  15.410 -0.0242 -0.3081 -0.2119
21271W        W64287  16.832  25.590  18.921 -0.1522  0.3088  0.0804
21272W        W64288   2.091   5.949  18.145 -0.1196  0.2141 -0.0758
21273W        W64289  19.120  25.517  28.413 -0.0219 -0.3419 -0.0809
21274W        W64290   9.350   3.296   8.964  0.2088 -0.1853 -0.1387
21275W        W64291  14.942   4.561  22.535 -0.0105  0.1228 -0.0408
21276W        W64292  26.118  30.967  26.527 -0.2550  0.1067  0.0150
21277W        W64293   2.010  10.497   0.518  0.2772 -0.3546 -0.0195
21278W        W64294  21.113  24.857  28.661 -0.1796  0.0008 -0.1368
21279W        W64295   1.212  32.590  24.424  0.4021 -0.1711  0.1276
21280W        W64296  12.012   8.314  13.978 -0.2614  0.2172 -0.2311
21281W        W64297  10.218  22.366   2.525 -0.2480  0.0367  0.0289
21282W        W64298   4.577  10.882   0.274  0.1286 -0.3417 -0.1260
21283W        W64299  13.960  33.962  26.078  0.2984 -0.4752 -0.0216
21284W        W64300  33.891   1.974   1.675 -0.3918  0.0060  0.0328
21285W        W64301  21.318   1.851   2.150 -0.0187 -0.2728  0.0475
21286W        W64302   5.263  24.419  27.193 -0.2191 -0.1546 -0.2871
21287W        W64303   2.248   6.786  23.815  0.2315 -0.0138 -0.1265
21288W        W64304   9.837  13.802  29.178 -0.0257  0.0151 -0.0241
21289W        W64305   8.731  26.615  26.479  0.5054  0.0979 -0.2101
21290W        W64306  18.669  30.128   1.172  0.1427  0.1059  0.0375
21291W        W64307  13.921  24.262   1.474 -0.0187 -0.1474  0.0474
21292W        W64308   8.837   2.825   7.644 -0.0164  0.1310  0.1975
21293W        W64309  33.667  13.720  24.457 -0.0904 -0.1764  0.2035
21294W        W64310  21.570   3.197   1.625 -0.0084  0.0068  0.0797
21295W        W64311  31.000   8.942   1.854  0.0632  0.1728 -0.0559
21296W        W64312   5.783   4.468  24.405 -0.0113 -0.1739 -0.0588
21297W        W64313  32.886  30.535   0.132  0.1275 -0.0436  0.2388
21298W        W64314  22.686   5.980   5.340 -0.1531 -0.0452 -0.1633
21299W        W64315   7.455   3.873  26.122 -0.0067 -0.2182 -0.1695
21300W        W64316   6.670  13.353  28.418 -0.1257 -0.1969 -0.0038
21301W        W64317  33.807   7.421   6.917 -0.0185  0.2149 -0.2387
21302W        W64318  17.957   4.638   8.975  0.1653 -0.0260 -0.0333
21303W        W64319   3.667  15.945  25.397 -0.2936 -0.0384  0.0421
21304W        W64320  11.688   7.907  19.692 -0.1253  0.3299  0.0124
21305W        W64321   5.029   6.505  24.434 -0.0572 -0.3050  0.3034
21306W        W64322  34.501  15.034   5.378 -0.1272 -0.0413  0.1726
21307W        W64323  33.283  18.273   7.752  0.0745  0.2762 -0.0284
21308W        W64324  17.342  19.322   4.279  0.1103 -0.1827  0.0693
21309W        W64325  24.786   8.331  21.140  0.1437 -0.3413 -0.1808
21310W        W64326  10.088   0.257   0.047  0.2768 -0.1943 -0.0559
21311W        W64327  17.756  12.888   5.099 -0.3320 -0.1115 -0.0547
21312W        W64328  29.143   4.476   5.480 -0.1131  0.1565  0.4355
21313W        W64329   0.719  16.170  27.588 -0.0604  0.0750 -0.2172
21314W        W64330  30.205   3.269  15.499  0.0664 -0.0379  0.2376
21315W        W64331  29.923  23.096   5.744 -0.1143 -0.0160 -0.1254
21316W        W64332   1.632  29.259   4.483  0.0243  0.3581 -0.1720
21317W        W64333   3.866  23.913   5.121  0.1268 -0.2227  0.1029
21318W        W64334  10.128   5.062   0.214  0.0816  0.2529 -0.0008
21319W        W64335  32.720  24.070  20.799 -0.0159 -0.0417 -0.2545
21320W        W64336  19.157   2.538  25.808  0.0038 -0.1242 -0.3109
21321W        W64337  34.264  27.286  27.865  0.2827 -0.1192 -0.0798
21322W        W64338  10.067   8.805  20.571  0.0519 -0.1133 -0.1321
21323W        W64339  10.157  17.491  21.796  0.2022  0.1138  0.0464
21324W        W64340   7.424   3.920  16.931 -0.1635 -0.3137  0.0070
21325W        W64341  20.063  18.149   2.005 -0.4026 -0.1523 -0.3445
21326W        W64342  24.631  32.775  10.118 -0.1642  0.1239  0.0561
21327W        W64343  26.777  27.049  19.178  0.0655 -0.0571  0.0071
21328W        W64344  22.201  12.197  29.173 -0.2054  0.0427 -0.3285
21329W        W64345  27.609   4.026   7.583 -0.1146 -0.1598  0.2250
21330W        W64346   1.867   7.194   6.400  0.0464 -0.0359  0.2478
21331W        W64347  14.329   0.501  21.048  0.2693 -0.0011  0.0343
21332W        W64348  31.824   8.246   6.282  0.1506  0.1434 -0.0983
21333W        W64349   9.321  24.717  24.715  0.1515 -0.0124  0.0222
21334W        W64350   5.406   7.562  16.248 -0.0716  0.0220 -0.3061
21335W        W64351  33.655   8.260  22.725 -0.2934 -0.0530 -0.1333
21336W        W64352  34.452   1.465  18.855  0.0657 -0.1027  0.5039
21337W        W64353  23.054   8.341   2.402  0.0151 -0.1457 -0.1556
21338W        W64354  27.930   9.417   1.937  0.1372 -0.2506 -0.2942
21339W        W64355  14.533   5.304   5.415  0.3758 -0.0055  0.1008
21340W        W64356  11.940  31.703  14.667 -0.0859 -0.1239  0.0870
21341W        W64357   1.002  17.583   0.708 -0.0170  0.2423  0.0852
21342W        W64358  27.797  18.118   7.304  0.1083  0.3052  0.2843
21343W        W64359  30.886  29.326   1.458  0.2976  0.2401  0.0625
21344W        W64360  15.026  16.192  27.472 -0.1569 -0.0731  0.0827
21345W        W64361   1.391   3.294  28.335  0.2499  0.1742  0.0375
21346W        W64362   4.250  31.740  18.088  0.1019 -0.2179 -0.0616
21347W        W64363  29.785  24.344  25.154  0.0655  0.0790 -0.1297
21348W        W64364   6.957  22.350   4.128  0.2636  0.0907 -0.0328
21349W        W64365  31.041  32.563  18.689 -0.2036 -0.0922  0.2399
21350W        W64366   1.274   1.935   0.973  0.1177  0.2716  0.3009
21351W        W64367   4.815   8.914  20.873  0.1614  0.0860 -0.0328
21352W        W64368   7.198  32.063   6.606  0.1016  0.2279  0.2774
21353W        W64369  16.158  34.059  22.747  0.1234 -0.0752 -0.1717
21354W        W64370   4.755   4.064   7.521  0.1039 -0.0020 -0.1619
21355W        W64371  24.733  16.909   4.273 -0.0597 -0.0640 -0.1255
21356W        W64372  23.635   4.430  14.986  0.0456 -0.1054 -0.0074
21357W        W64373  29.596  11.989   1.912 -0.1982  0.1180 -0.1916
21358W        W64374  10.647   2.483  22.851 -0.1055  0.2281 -0.3338
21359W        W64375  27.798   3.990  27.889  0.0848 -0.2059 -0.2389
21360W        W64376   2.390   2.656  21.267 -0.0498  0.1894 -0.0736
21361W        W64377  33.507  20.417   8.139 -0.0677  0.0412  0.0816
21362W        W64378  31.046  25.476  16.305  0.2821 -0.0857  0.2410
21363W        W64379   1.159  28.114  20.979 -0.0613 -0.0283 -0.3143
21364W        W64380   5.731   7.290  28.023 -0.0354 -0.0298 -0.0360
21365W        W64381  22.159   1.293   5.931  0.0548 -0.0101  0.3291
21366W        W64382  30.346   7.311   0.943 -0.1968  0.0404  0.0073
21367W        W64383  14.122   7.728  18.230  0.1217 -0.0787 -0.0774
21368W        W64384   6.570   4.363   3.726 -0.2563 -0.0331 -0.1929
21369W        W64385  28.653   0.530   3.830 -0.0297 -0.4337 -0.4309
21370W        W64386  34.474  16.236  17.527  0.4157  0.0895  0.0253
21371W        W64387   8.285  29.961  17.032 -0.0563  0.1340  0.0910
21372W        W64388   0.522  28.402  20.818 -0.0435  0.0826 -0.3629
21373W        W64389   5.419  32.776  25.133  0.1350  0.1210 -0.0156
21374W        W64390  33.219  22.252  22.387 -0.0777 -0.1165  0.1307
21375W        W64391  11.969   5.394   1.541  0.1816  0.0049  0.1287
21376W        W64392  10.524  24.172  25.882 -0.0823 -0.1593 -0.3491
21377W        W64393  12.312  13.977  25.953 -0.5239  0.1407 -0.0500
21378W        W64394   4.549   9.486  18.539 -0.1654  0.1697 -0.2374
21379W        W64395   9.395   7.560  16.442  0.0256 -0.2293 -0.3429
21380W        W64396  23.381  26.754  22.079 -0.2101  0.1458  0.0074
21381W        W64397   8.553   0.307  18.267  0.1001 -0.1406  0.1398
21382W        W64398   0.886   1.763   5.793  0.1313 -0.0643  0.3299
21383W        W64399   6.072   1.112  23.380  0.1485  0.1037 -0.3432
21384W        W64400  15.807  34.417   1.391  0.1178  0.2688 -0.1523
21385W        W64401  29.546  19.406   5.660  0.0979 -0.0332  0.2022
21386W        W64402   3.084   8.751  20.903 -0.1152  0.2342  0.1081
21387W        W64403  25.595  29.642   8.465 -0.1118 -0.1473 -0.1852
21388W        W64404   3.822  23.310   4.648 -0.1572 -0.0750 -0.0489
21389W        W64405  29.046  30.526  18.610  0.2382  0.2443  0.0673
21390W        W64406  33.749  31.671   5.813 -0.1896  0.3066 -0.3748
21391W        W64407  30.535   2.935   6.046  0.0977 -0.2101  0.1803
21392W        W64408  33.990  34.042   8.876 -0.0081 -0.1226  0.1737
21393W        W64409   8.178  16.992   2.509  0.3646  0.2594  0.0436
21394W        W64410  31.545  32.376   8.111  0.1376  0.1700  0.0233
21395W        W64411  14.584  10.385   1.568  0.2047  0.3530  0.1228
21396W        W64412   2.822  25.832  27.046 -0.1534 -0.1696  0.0212
21397W        W64413  10.063  29.454   1.042  0.2798 -0.2237  0.0469
21398W        W64414   7.381  15.629  22.338 -0.3483 -0.1363  0.0221
21399W        W64415  13.042  33.441  22.829  0.0113 -0.0755 -0.0520
21400W        W64416  12.482   7.811  17.736 -0.2853  0.2974 -0.0532
21401W        W64417  29.573  21.990  23.232 -0.3465 -0.1939  0.2752
21402W        W64418   6.680  31.818  25.074  0.4765  0.4707  0.2012
21403W        W64419  30.826  31.948  21.294 -0.0807 -0.3554 -0.1618
21404W        W64420   2.100  30.269   5.530 -0.1079  0.3573  0.0779
21405W        W64421   3.226   1.424  26.136 -0.2002 -0.1257  0.0285
21406W        W64422  27.769   6.802  21.926  0.0605 -0.2345 -0.0846
21407W        W64423  27.239  15.989  27.525 -0.2230  0.1463  0.0531
21408W        W64424  26.454   6.236   7.418  0.1430 -0.0675  0.0022
21409W        W64425   1.065   7.685  25.721  0.1166 -0.1628  0.0757
21410W        W64426  29.479   1.518  24.054 -0.0238 -0.2887 -0.2820
21411W        W64427   5.886  29.368   3.041  0.0867  0.1550 -0.1353
21412W        W64428   4.708  34.480  28.927 -0.1677 -0.2577 -0.1425
21413W        W64429  16.237   0.045   6.936 -0.3981 -0.1544 -0.0212
21414W        W64430  32.089  12.846  27.767  0.1106 -0.2477 -0.2549
21415W        W64431  16.161  21.462  20.742  0.3248  0.0049 -0.0666
21416W        W64432  11.897  12.043  26.343 -0.1686 -0.3089 -0.1835
21417W        W64433   4.349  26.825  25.164 -0.0046  0.0525  0.0578
21418W        W64434  23.268   0.215  16.046  0.0869 -0.1553  0.0958
21419W        W64435  25.122  19.619   2.176  0.1633  0.4367  0.1199
21420W        W64436   6.305   3.802  17.664 -0.1176  0.2333 -0.0622
21421W        W64437  23.844  12.236  13.940 -0.0712 -0.0157 -0.2070
21422W        W64438   7.955  15.037   1.285 -0.1707 -0.2378 -0.3710
21423W        W64439  14.919  33.080  28.401  0.0654  0.0151  0.1226
21424W        W64440   0.621   9.586  18.912 -0.0923 -0.0513 -0.0205
21425W        W64441  10.772   6.500   7.438  0.0213  0.1042 -0.1460
21426W        W64442  14.173  29.762   5.485  0.1331  0.1229 -0.2054
21427W        W64443  33.651   4.529   3.172  0.0850  0.2097 -0.0940
21428W        W64444   6.207  27.673   2.649  0.3087 -0.0626 -0.1148
21429W        W64445   5.977  18.719  17.817  0.0675 -0.2308  0.0595
21430W        W64446   5.700  33.388  16.622  0.1003  0.1801  0.0834
21431W        W64447  18.372  26.395  28.844 -0.0626 -0.2508 -0.1791
21432W        W64448  17.944  10.717  15.995  0.0071  0.0792  0.2811
21433W        W64449  10.507  12.866  21.914 -0.1858  0.1631  0.4376
21434W        W64450  13.072  26.366  26.203  0.2141 -0.2865  0.1209
21435W        W64451  17.367  31.558   6.315 -0.0838 -0.0720 -0.2980
21436W        W64452   9.868  27.853  24.249 -0.1566 -0.3393 -0.2499
21437W        W64453  33.082  33.063   1.136 -0.1999 -0.0570 -0.0530
21438W        W64454   9.504   4.096  23.948  0.1153  0.0187 -0.1644
21439W        W64455  11.199   3.122   2.357  0.0691 -0.2555  0.4342
21440W        W64456   7.528  12.959   4.258 -0.4708  0.3021 -0.0878
21441W        W64457  11.132  14.367  26.074 -0.0909 -0.2584  0.0220
21442W        W64458  34.447   0.782  22.769 -0.0469 -0.0141 -0.1919
21443W        W64459   2.611  17.216  28.418 -0.2678 -0.2695  0.1685
21444W        W64460   4.999  27.430   4.337  0.1916  0.1232 -0.0854
21445W        W64461  20.761   0.565   9.497  0.1767 -0.0053 -0.1129
21446W        W64462  15.761  27.824   3.922  0.0169  0.1016  0.0508
21447W        W64463   4.009   6.421  15.998  0.0726 -0.0162 -0.0176
21448W        W64464  16.593   9.359  18.919 -0.0618 -0.0961  0.0210
21449W        W64465  17.269  17.953  23.002 -0.1497  0.0305 -0.3226
21450W        W64466   8.617  20.025  26.263  0.1242 -0.1297  0.2754
21451W        W64467  12.465  27.240  24.052  0.0580 -0.3058 -0.1632
21452W        W64468  10.908   0.060  28.166  0.0425  0.0231 -0.1747
21453W        W64469   6.200  17.656  17.327 -0.4608 -0.0128  0.0569
21454W        W64470   5.531   0.521  14.928  0.0030  0.0101 -0.1556
21455W        W64471  18.039   4.812  13.436  0.0346  0.1627 -0.1135
21456W        W64472  12.082  10.142   2.670  0.1009 -0.1829  0.0881
21457W        W64473  32.329   6.072   0.986  0.2181  0.2545  0.0927
21458W        W64474   5.715   6.045  25.909  0.0094  0.1330  0.0135
21459W        W64475   0.067  22.569   4.931 -0.2718 -0.1941 -0.0615
21460W        W64476   6.914  10.511  22.094  0.1218  0.3114 -0.0446
21461W        W64477  13.309  19.557  21.059  0.0300  0.1279 -0.3610
21462W        W64478  15.518  13.224  23.830  0.1916 -0.0983 -0.0716
21463W        W64479   3.623  12.662  28.517  0.0056  0.1560  0.2116
21464W        W64480  24.750  14.360  27.067  0.0622 -0.1108 -0.0866
21465W        W64481   5.740   5.220   4.415 -0.2893 -0.0810  0.1574
21466W        W64482   6.774   4.677  25.240 -0.1601  0.1189 -0.1656
21467W        W64483   9.285   2.176  28.217  0.4652 -0.1061 -0.3186
21468W        W64484  25.019   1.748   8.077 -0.2729 -0.1657 -0.1355
21469W        W64485  10.232  24.664  15.897  0.1303  0.1262 -0.2805
21470W        W64486   2.677  24.697   4.479 -0.1936 -0.0235  0.4961
21471W        W64487   5.816  29.381   1.462 -0.0327 -0.1246  0.1096
21472W        W64488  25.845   9.407  28.217  0.1954 -0.0363 -0.0072
21473W        W64489   3.091  11.557  27.013  0.0084 -0.1242  0.0502
21474W        W64490   9.515  31.785  26.477  0.1420  0.2076 -0.0106
21475W        W64491  27.740   2.547  21.385  0.2651  0.2073 -0.2258
21476W        W64492  11.551  18.922  16.372 -0.0522  0.0707 -0.0348
21477W        W64493  25.941  31.925  24.127 -0.1709  0.5514  0.0289
21478W        W64494  33.716   0.942  21.673  0.1204  0.2310  0.0425
21479W        W64495   5.832   6.010  24.593 -0.4830  0.0457 -0.0185
21480W        W64496  30.882  25.661  18.961 -0.0393 -0.3236 -0.0179
21481W        W64497   6.993  10.891   1.879 -0.0085 -0.2538  0.0871
21482W        W64498  34.024   6.067   3.730  0.0326  0.2940  0.2365
21483W        W64499   4.960  34.581  22.677  0.0072  0.1285 -0.0581
21484W        W64500   1.796   1.018   0.494 -0.0338 -0.1035  0.5900
21485W        W64501  13.751   9.101  20.787 -0.0024 -0.1009 -0.3444
21486W        W64502   5.764  33.353  17.715 -0.0235 -0.1591  0.4404
21487W        W64503   6.141   8.958   4.038 -0.0100  0.1584  0.2242
21488W        W64504  11.374  14.492  21.617  0.1327  0.1313 -0.2184
21489W        W64505  16.096  23.297   8.335  0.2203  0.0962 -0.0443
21490W        W64506   0.548  20.316  16.690 -0.2373  0.2823 -0.2368
21491W        W64507  32.779  21.276   3.789  0.1492 -0.1602  0.1054
21492W        W64508  13.607  34.723  14.207 -0.2460  0.4366 -0.1839
21493W        W64509   3.826  19.048  15.709  0.2670  0.3811 -0.2324
21494W        W64510   4.369   8.083  21.384  0.0298  0.1909 -0.0590
21495W        W64511  32.392  14.386  15.460  0.0003  0.1182  0.0546
21496W        W64512  21.586  17.481  12.903 -0.0207 -0.0062 -0.1339
21497W        W64513   2.380  17.334  23.721  0.1294 -0.0411  0.1141
21498W        W64514   5.642   9.672  23.275  0.3169  0.0006  0.1842
21499W        W64515  26.756  29.919  19.793  0.1546  0.1372  0.0359
21500W        W64516   4.408  19.918  26.482  0.1781 -0.0410 -0.2613
21501W        W64517  27.131  11.481  19.562  0.2000  0.0813  0.0932
21502W        W64518  32.833  31.744   3.069 -0.0415 -0.2027  0.1867
21503W        W64519   9.460   2.476  21.600 -0.0988 -0.0444  0.3114
21504W        W64520  11.820   3.768  27.252  0.0489  0.0379  0.3922
21505W        W64521  23.021   1.891  18.950  0.0598  0.1781  0.1176
21506W        W64522   8.028   3.140   4.015 -0.3209  0.0228 -0.2746
21507W        W64523  13.238   5.151  15.118 -0.1312  0.1948 -0.2689
21508W        W64524  25.929   3.907  16.949  0.0743  0.0740 -0.1578
21509W        W64525   8.327  14.727  22.006 -0.0724 -0.0697 -0.0074
21510W        W64526  29.505  32.909  18.723 -0.1910 -0.0075  0.2379
21511W        W64527   7.700  12.755   9.076  0.2322 -0.0617 -0.0281
21512W        W64528   0.092   8.196  25.267 -0.2338 -0.0417 -0.2897
21513W        W64529   5.130   7.197  27.198 -0.0630 -0.0471 -0.0952
21514W        W64530  26.751  12.239  15.624  0.3118  0.0540 -0.2358
21515W        W64531   3.175   8.901  21.431 -0.1602 -0.0684 -0.0250
21516W        W64532   5.849  33.213  28.577  0.2028  0.1970 -0.1564
21517W        W64533   1.116   8.286  21.045  0.2139  0.1411  0.0196
21518W        W64534   2.859  19.823  16.991 -0.1016  0.4215  0.0228
21519W        W64535   2.417  14.799  17.997 -0.0356  0.1175 -0.2554
21520W        W64536  34.525   3.639  18.203  0.0414 -0.0426  0.0643
21521W        W64537  24.801  13.259  25.967  0.0507  0.4005  0.0942
21522W        W64538   6.116  11.364  22.143  0.2156 -0.3282 -0.1115
21523W        W64539   4.907   7.855  22.106  0.0969  0.0128 -0.0226
21524W        W64540  31.329  30.014  22.311  0.1257 -0.1734 -0.1742
21525W        W64541  31.355  12.622  23.965 -0.0624 -0.2824  0.2263
21526W        W64542   5.971   4.857   1.869 -0.1160 -0.1786  0.2224
21527W        W64543  27.131  16.373  27.023 -0.2015 -0.2017 -0.0286
21528W        W64544   1.477  22.799  23.720 -0.0740  0.1925  0.3062
21529W        W64545  33.909  28.658  23.505 -0.3986 -0.1186 -0.4076
21530W        W64546  20.142   6.569  22.733  0.1918  0.1261  0.0416
21531W        W64547  26.557  16.095  25.877 -0.1538 -0.2002  0.0647
21532W        W64548  22.910  30.363  29.017  0.1973 -0.0063  0.0852
21533W        W64549   1.072  17.812  20.090 -0.3471  0.0681  0.2484
21534W        W64550   7.266   7.617  22.155  0.1114  0.4869 -0.1749
21535W        W64551  27.524  28.333   8.583  0.0626  0.1163 -0.0837
21536W        W64552   7.162   1.681  16.715 -0.0185 -0.0700  0.0012
21537W        W64553  29.765  19.031   0.468  0.0063  0.3383  0.1992
21538W        W64554  13.754   1.198  19.517 -0.1561 -0.1513 -0.1436
21539W        W64555  24.333  14.211  14.711 -0.1270  0.0579 -0.0377
21540W        W64556   9.447   1.374  24.350  0.1701  0.0148  0.0357
21541W        W64557  33.679  19.472  18.259 -0.0600  0.1378 -0.2614
21542W        W64558  33.282  12.760  16.881  0.2265  0.1613 -0.1010
21543W        W64559  14.355   8.199  13.076 -0.0601  0.0007 -0.1387
21544W        W64560   9.387  24.365  16.328 -0.1891 -0.2616  0.3339
21545W        W64561  10.390  30.156  19.059 -0.1336  0.1527  0.1393
21546W        W64562  33.852  25.459  24.260  0.1113  0.1859  0.2627
21547W        W64563  12.839  10.717  28.636  0.1589  0.0343 -0.0694
21548W        W64564   9.816   2.274  15.093 -0.1515  0.2267 -0.1609
21549W        W64565   0.033  29.250  27.932 -0.1583 -0.3154  0.0350
21550W        W64566  15.882  10.004  16.500 -0.1356  0.0721  0.1071
21551W        W64567  17.491   2.067  20.161  0.2110  0.2055 -0.2061
21552W        W64568  17.147  20.185  12.374  0.3113  0.4285  0.3885
21553W        W64569  16.222   0.571  23.298  0.3567  0.1222 -0.0176
21554W        W64570   2.040  32.321  26.793  0.0901  0.1934 -0.1477
21555W        W64571  21.670  31.622  15.929 -0.1574  0.0573 -0.0990
21556W        W64572  16.988  20.502  27.306  0.1278 -0.1235  0.2849
21557W        W64573  24.166  29.204  16.801  0.0469 -0.0557 -0.2290
21558W        W64574  24.513  24.197  16.283 -0.2596 -0.0080 -0.3587
21559W        W64575  16.175  29.158  26.985  0.0586  0.0093  0.1478
21560W        W64576  10.487   3.830  15.725 -0.0844  0.1330  0.3379
21561W        W64577  17.652  14.269  12.887 -0.0432  0.1799  0.0033
21562W        W64578   9.296  16.262  22.539  0.2121  0.1715 -0.1698
21563W        W64579  28.044   1.741  18.373 -0.0888  0.2097 -0.0136
21564W        W64580  10.181  28.169  17.756  0.0983  0.1249  0.2037
21565W        W64581  27.671  22.009  17.128 -0.0439  0.1359  0.1222
21566W        W64582  30.380   7.584  24.292  0.0842  0.0221  0.2559
21567W        W64583   5.143  14.111  25.816 -0.0325  0.2254  0.1565
21568W        W64584  19.396  14.619  13.135 -0.2572  0.1898 -0.3253
21569W        W64585  12.105  25.484  24.552 -0.1064  0.0796  0.4155
21570W        W64586  10.825   8.692   5.034 -0.2591  0.2875  0.0576
21571W        W64587   1.262  19.710  20.670 -0.3387 -0.3082 -0.0157
21572W        W64588   7.649  26.133   2.767  0.1992  0.0179 -0.0779
21573W        W64589   3.975  30.902   0.346  0.1650  0.1019  0.0901
21574W        W64590  17.740   1.561  14.851 -0.1099  0.0508 -0.3175
21575W        W64591  14.780   7.834  13.738  0.0342  0.1567  0.0141
21576W        W64592   9.652  16.576  28.959  0.1314 -0.1024  0.2597
21577W        W64593   6.181   6.906  19.953  0.1484  0.1482  0.2202
21578W        W64594   9.110   7.630  15.262 -0.0257 -0.0917 -0.1903
21579W        W64595   5.805   7.156   4.824 -0.1601 -0.3025  0.1564
21580W        W64596   0.113  11.980  18.306 -0.0438 -0.2068 -0.0514
21581W        W64597  23.915   6.842  19.515 -0.1620 -0.0740 -0.4202
21582W        W64598  15.292  17.346   3.299  0.1520  0.1795 -0.2586
21583W        W64599   9.009  18.531  13.768  0.0023  0.1131 -0.0739
21584W        W64600  31.995   1.745  20.781 -0.2587 -0.0869  0.0673
21585W        W64601   3.617  27.479  14.430 -0.2791 -0.0762  0.2313
21586W        W64602  12.791  29.302  16.593 -0.0403 -0.0460 -0.1491
21587W        W64603   0.953   3.061  19.740 -0.2401 -0.2072 -0.4349
21588W        W64604   5.408   9.085  17.057 -0.0181 -0.2046 -0.0107
21589W        W64605   1.606   3.217  18.178 -0.0161 -0.1986 -0.0950
21590W        W64606  24.047  25.310   4.409  0.0281  0.1267  0.1087
21591W        W64607   4.833   8.112  21.633  0.1182 -0.3965 -0.1858
21592W        W64608   7.783  17.133  13.558 -0.1755  0.0163 -0.2449
21593W        W64609  33.527   5.837  17.962 -0.0562  0.0138  0.0647
21594W        W64610  10.488   8.304  26.072 -0.2183 -0.3089  0.0326
21595W        W64611  18.958  10.063  18.335 -0.1892 -0.1854 -0.0674
21596W        W64612  31.558   9.517  25.758  0.2153  0.1990 -0.2533
21597W        W64613  26.794  24.893  23.176 -0.3600 -0.1420 -0.0063
21598W        W64614  27.197   3.073  26.023  0.0392  0.2188 -0.0685
21599W        W64615  33.381  29.534  16.736 -0.0503  0.0346  0.1390
21600W        W64616   7.383  10.538  24.417 -0.0562  0.1767 -0.1763
21601W        W64617  28.634  11.421  21.375 -0.0938  0.1215 -0.0454
21602W        W64618  29.313  15.436  26.799  0.0963  0.0339  0.2039
21603W        W64619  12.220   7.031  25.510 -0.0566  0.1133 -0.1148
21604W        W64620   0.708  20.727  24.470 -0.0987  0.0981  0.1105
21605W        W64621  18.419  24.438  18.445 -0.1689 -0.0128 -0.3112
21606W        W64622  27.916  19.418  20.615  0.1917  0.0627 -0.1389
21607W        W64623  11.722  14.069  12.818  0.4734  0.0539 -0.1403
21608W        W64624  16.054   9.032  29.233 -0.1030 -0.0260 -0.3600
21609W        W64625   1.970   4.284  25.793 -0.1429  0.2890  0.3550
21610W        W64626  20.006   8.441  20.484  0.3978 -0.0168 -0.0084
21611W        W64627   4.445  22.681  15.473 -0.0499 -0.0518 -0.2655
21612W        W64628  11.225   3.818  19.154  0.1847  0.0680  0.3348
21613W        W64629   4.644  32.611  16.895  0.0252 -0.2057 -0.0281
21614W        W64630   1.277  10.185  16.802 -0.1371  0.0470  0.0030
21615W        W64631   5.427  27.040  17.918 -0.1529 -0.0704  0.2679
21616W        W64632  10.906  15.776  21.049 -0.1524  0.1111  0.1305
21617W        W64633   0.944  12.560  18.683 -0.4502 -0.1737  0.0776
21618W        W64634  26.044   6.226  16.083  0.1491  0.3230  0.0811
21619W        W64635   7.779   1.530  22.150  0.0142 -0.0683  0.1897
21620W        W64636   5.608   0.680  17.899 -0.1789  0.0671 -0.1106
21621W        W64637   1.377  23.057  18.298 -0.3980  0.1426  0.1929
21622W        W64638   9.084  23.749  27.709 -0.2025  0.0530 -0.3647
21623W        W64639   1.509  33.641  16.568  0.0963 -0.1124 -0.0864
21624W        W64640  21.381  34.216   0.099 -0.2352  0.0849 -0.0196
21625W        W64641  27.888  34.175  19.405  0.2294  0.0676 -0.1543
21626W        W64642  14.577  13.566  19.060  0.2335  0.1503  0.2342
21627W        W64643   5.365   4.167  20.579 -0.2816 -0.0048 -0.1965
21628W        W64644  21.726  18.467  23.840  0.1344  0.1981 -0.0711
21629W        W64645  10.737   9.635  14.052 -0.1294  0.0067 -0.2191
21630W        W64646   4.341  10.186  15.251  0.5723 -0.1079  0.2382
21631W        W64647   1.937  30.913  22.107  0.1315 -0.0209  0.1465
21632W        W64648   6.780   0.883  24.755 -0.1516 -0.1239  0.1917
21633W        W64649  10.014   6.941  19.404 -0.0892 -0.1678  0.2262
21634W        W64650   4.398   4.859  23.942 -0.2735 -0.2484 -0.1913
21635W        W64651  10.810  16.974  20.147 -0.2203 -0.1411  0.0823
21636W        W64652  20.254   2.018  15.908  0.1398  0.1587 -0.1320
21637W        W64653  33.666  12.301  22.965 -0.1048 -0.1298 -0.1667
21638W        W64654  24.017  10.398  18.399 -0.0290 -0.0236  0.0758
21639W        W64655   6.078  19.200  15.931  0.0180 -0.1683  0.1166
21640W        W64656   3.709  29.788  15.928  0.1614 -0.1726 -0.2712
21641W        W64657   6.921   0.209  20.107 -0.3340  0.2372 -0.2749
21642W        W64658  19.487  10.192  16.530 -0.3602 -0.0423  0.1687
21643W        W64659  26.607   9.261  24.043  0.3337 -0.0847 -0.0077
21644W        W64660   9.533  14.169  22.457  0.0006  0.3111  0.2224
21645W        W64661   4.573  29.512  23.416  0.2282  0.0906  0.0630
21646W        W64662   5.875   1.555  19.023 -0.0618 -0.2572  0.1784
21647W        W64663  14.685  10.048  16.741 -0.1099 -0.1702  0.0863
21648W        W64664  33.799  10.326  17.335 -0.0511  0.2402 -0.0455
21649W        W64665   0.500  14.674  23.712  0.4792  0.1511 -0.2714
21650W        W64666  11.503   9.110  16.597  0.2765 -0.0926 -0.2146
21651W        W64667  24.997   2.186   5.079 -0.3698  0.0923  0.0035
21652W        W64668  11.818   6.389  23.295  0.1505  0.0951  0.1303
21653W        W64669  34.317  14.558  20.999  0.2279 -0.0927 -0.2124
21654W        W64670  12.880  31.195  14.563  0.0171  0.2293  0.0674
21655W        W64671  15.878  29.523  18.071 -0.3997 -0.0664  0.5934
21656W        W64672   9.921   6.066  16.693  0.2119  0.2041  0.1369
21657W        W64673  18.806  23.288  13.388  0.1881  0.0554  0.1757
21658W        W64674   1.312   6.780  23.815  0.0767  0.0647  0.0144
21659W        W64675  21.726   6.789  16.314 -0.2839  0.1277  0.0112
21660W        W64676   5.522   6.715  19.613 -0.0001  0.0051  0.1291
21661W        W64677  12.838  24.404  24.143  0.0771 -0.5970 -0.0743
21662W        W64678   6.486   0.469  15.938  0.1517  0.1940 -0.0023
21663W        W64679   9.318  18.362  23.592  0.1155 -0.0023 -0.0157
21664W        W64680  14.668   3.343  23.262  0.1220  0.2719  0.4643
21665W        W64681  32.587   2.497  20.777 -0.0130 -0.2064 -0.1499
21666W        W64682  14.021  11.154  20.919  0.0693 -0.1334 -0.0407
21667W        W64683  25.974  33.058  25.245  0.1159 -0.5917  0.1407
21668W        W64684   9.933   9.353  18.778  0.0634 -0.0769 -0.4201
21669W        W64685   2.128  34.756  19.592  0.0818  0.1973  0.0543
21670W        W64686  34.766  30.244  26.622  0.0320 -0.2611 -0.1164
21671W        W64687  24.001  10.906  21.308 -0.0052  0.2861  0.2392
21672W        W64688  33.947  12.844  21.531 -0.1014 -0.0615 -0.2524
21673W        W64689   7.686  16.940  15.880  0.1229 -0.4975 -0.3734
21674W        W64690   3.615  26.548  15.922 -0.3984  0.2644 -0.4938
21675W        W64691  33.120   4.421   4.666  0.2208 -0.0391  0.0379
21676W        W64692   1.938   4.027  15.085 -0.0198 -0.1316  0.3083
21677W        W64693   8.592  11.565  15.492 -0.0539 -0.0052 -0.0115
21678W        W64694  11.362  28.067  21.724  0.0822  0.1334  0.2361
21679W        W64695   5.208  13.077  16.080  0.1038 -0.0115 -0.3083
21680W        W64696  33.184   2.254  20.175  0.1989  0.0653 -0.0404
21681W        W64697  15.538   7.184  27.823  0.0912  0.1904 -0.0931
21682W        W64698  33.545  16.018  23.481 -0.0064  0.1674 -0.1212
21683W        W64699  12.677  14.597  13.979 -0.2383 -0.0386  0.0660
21684W        W64700  11.678   7.356  16.451  0.1071  0.2153 -0.0014
21685W        W64701   0.473  33.190  22.174 -0.0203 -0.2580  0.1119
21686W        W64702  11.466  10.386  16.712  0.0547 -0.0266 -0.3545
21687W        W64703   1.071  18.775  18.672  0.0452 -0.0026  0.2593
21688W        W64704  15.081  13.376   6.255 -0.0861 -0.2078 -0.2626
21689W        W64705  15.892   3.861  22.867  0.0501  0.1293 -0.0613
21690W        W64706   7.350  14.174  17.074  0.1562  0.0561  0.0529
21691W        W64707  31.215  28.075  17.391 -0.0513 -0.1223 -0.0182
21692W        W64708  17.625  10.429  15.312  0.1852 -0.0133 -0.1174
21693W        W64709   4.914   1.424  26.021  0.1986 -0.0472  0.0330
21694W        W64710  31.205   4.513  20.678  0.2261 -0.3388 -0.2135
21695W        W64711  11.823   9.331  16.966  0.0362 -0.0944 -0.1474
21696W        W64712  11.095   9.531  14.907  0.0315 -0.0087  0.0008
21697W        W64713  32.912   4.986  23.479 -0.0507  0.0076  0.1918
21698W        W64714  23.601   1.062  16.458  0.0413  0.0478  0.1535
21699W        W64715   3.874  30.606  27.219 -0.1678 -0.2016  0.1671
21700W        W64716  18.947  21.048  22.388 -0.0847 -0.2273  0.0393
21701W        W64717   0.047   3.396  21.100  0.2332  0.1907  0.3094
21702W        W64718   4.201  19.687  14.578  0.1703  0.0704  0.0364
21703W        W64719  12.944  23.940  20.511 -0.2855  0.1701 -0.3539
21704W        W64720  31.330   0.024   1.818 -0.1787  0.1381 -0.0923
21705W        W64721  28.080  32.881   0.313 -0.0726  0.2564  0.1432
21706W        W64722  20.554  18.607  14.328  0.0528 -0.0594 -0.0296
21707W        W64723   3.524   0.124   0.013 -0.4097 -0.0173  0.1027
21708W        W64724   9.141   3.159  24.000  0.1079 -0.0457 -0.4872
21709W        W64725   5.615  29.526   0.473 -0.0761  0.1866 -0.1173
21710W        W64726   6.619  11.843   2.910 -0.2141  0.1003 -0.0074
21711W        W64727   2.392  15.612  25.083  0.1069 -0.0655 -0.0101
21712W        W64728  24.166  10.082   1.958 -0.3643  0.1959  0.0716
21713W        W64729  32.991   9.921  14.450 -0.1716 -0.2139 -0.0976
21714W        W64730   3.733  15.722  27.254 -0.2819 -0.0059  0.3605
21715W        W64731   6.689   9.425  23.576 -0.0445  0.1802 -0.0424
21716W        W64732  10.328   8.709  16.319  0.1073  0.0522 -0.1244
21717W        W64733   8.967  31.049  22.585  0.1269  0.1061  0.1532
21718W        W64734  27.199   5.444  16.179 -0.1749 -0.0275 -0.2854
21719W        W64735   7.157  18.450  24.610 -0.0470  0.1540  0.2410
21720W        W64736  30.414   7.395  15.654  0.1161 -0.0698 -0.1372
21721W        W64737  32.357   9.833  20.421  0.1214 -0.0439 -0.0218
21722W        W64738   8.272  32.533  26.345  0.0463 -0.0031 -0.2216
21723W        W64739   6.553  25.243  27.041 -0.1225  0.3362 -0.0894
21724W        W64740   8.644  13.855  23.137  0.4867 -0.1064 -0.1883
21725W        W64741   5.318   6.274  20.360 -0.0191  0.1157 -0.4108
21726W        W64742   0.010  16.962  21.714  0.0159  0.2173  0.1472
21727W        W64743  19.074  11.895  17.892  0.1495 -0.1853 -0.0214
21728W        W64744  27.643  30.792  21.587  0.1262 -0.3151  0.1521
21729W        W64745  22.138  32.212  27.148  0.1144  0.2942 -0.0036
21730W        W64746  17.612   2.374   4.864 -0.2530  0.2487  0.0321
21731W        W64747   3.739   4.825  19.988  0.0556 -0.1058  0.1947
21732W        W64748  17.883   3.501  26.212  0.1802  0.0321  0.2133
21733W        W64749  24.388  31.140  22.147 -0.2031  0.0806 -0.0180
21734W        W64750  21.499   2.429  20.622  0.2698 -0.1370 -0.1753
21735W        W64751   2.926  17.818  22.271 -0.1501  0.0068 -0.3315
21736W        W64752   0.861   3.892  16.384  0.3310  0.3752  0.0705
21737W        W64753  13.663  22.978  19.308 -0.1103 -0.0749 -0.2648
21738W        W64754  18.707  29.022  18.650  0.1613 -0.2568  0.1675
21739W        W64755   3.163  16.195  21.480  0.0198 -0.1156 -0.0292
21740W        W64756  12.292  28.150  27.378 -0.0534 -0.2382  0.0081
21741W        W64757   7.922  13.653  20.153 -0.2877 -0.1031 -0.0970
21742W        W64758  33.705   4.503  19.713 -0.0573 -0.1776  0.0665
21743W        W64759  10.118   8.433  18.805 -0.2108  0.1460 -0.3914
21744W        W64760  31.552   6.076  16.416 -0.1099 -0.1984  0.1836
21745W        W64761  16.891   8.838   5.791 -0.1026 -0.0127  0.0767
21746W        W64762  29.080  32.894  27.943 -0.2627  0.3646 -0.0904
21747W        W64763  10.854   5.439  25.340  0.3472  0.1259  0.1123
21748W        W64764  11.152  12.057  23.087 -0.4156  0.0353  0.0693
21749W        W64765  31.673  25.899  19.288 -0.3295  0.1711  0.0396
21750W        W64766  18.788   4.434  17.724 -0.1316 -0.0406 -0.2507
21751W        W64767  29.085   0.988  15.297 -0.2405  0.1303  0.0145
21752W        W64768  34.570  12.665  15.821  0.2852  0.1502 -0.0016
21753W        W64769   1.807   1.232  15.120  0.0074 -0.1390 -0.0975
21754W        W64770  11.738  20.580  12.197 -0.0291  0.1077 -0.2840
21755W        W64771   3.661  29.924  19.566  0.0990 -0.2980 -0.0063
21756W        W64772   6.322  11.036  19.735 -0.1314  0.2515 -0.0582
21757W        W64773   2.369  30.783  23.490 -0.3615 -0.1599  0.1976
21758W        W64774   4.575  10.010  17.414 -0.0979  0.1044 -0.4095
21759W        W64775  19.156   3.275  14.409 -0.1980  0.2271 -0.0300
21760W        W64776  15.160   3.969  16.469 -0.2781 -0.1644  0.2623
21761W        W64777  32.357  12.504  21.411 -0.4153  0.0339 -0.2569
21762W        W64778   3.046  32.610  14.977  0.0216 -0.4912  0.2138
21763W        W64779  17.528   1.908  16.537 -0.0428 -0.1416 -0.2568
21764W        W64780  28.074  11.870  18.676 -0.0194  0.1030  0.2561
21765W        W64781   8.207   1.129  21.321  0.3563 -0.0337 -0.0515
21766W        W64782  15.866  15.202  23.973  0.2063  0.1036  0.0373
21767W        W64783  34.471  13.027  27.186  0.1734 -0.0980 -0.1472
21768W        W64784  21.594   9.659  13.440  0.0580 -0.1318  0.0624
21769W        W64785  10.329   6.788  29.187 -0.0191  0.1318  0.0540
21770W        W64786  33.435  11.880  18.225  0.0938  0.1567  0.3967
21771W        W64787   2.177   1.138  17.625  0.1531 -0.1916  0.1390
21772W        W64788  18.855  20.034  16.688 -0.2774  0.2204  0.3548
21773W        W64789  31.806  19.571  16.709 -0.1030  0.1845  0.1147
21774W        W64790   4.148   0.824   6.178  0.1921 -0.1843 -0.1418
21775W        W64791   2.790   1.811  25.617  0.0250 -0.0248 -0.1729
21776W        W64792  18.605  34.452  28.402  0.1254  0.1990 -0.3139
21777W        W64793   5.609  16.449  22.356 -0.0931 -0.0054  0.4331
21778W        W64794  25.565  29.929  17.679  0.3697  0.1894  0.0562
21779W        W64795  15.181   5.186  13.767  0.1241 -0.0080  0.5315
21780W        W64796  29.470  23.071   8.444  0.1178  0.2482 -0.1637
21781W        W64797  11.759   9.191  18.917  0.1503 -0.0664  0.4228
21782W        W64798   3.610  10.867  24.921  0.2382 -0.1392 -0.1041
21783W        W64799  28.544   0.866  25.674 -0.1126 -0.1495  0.1385
21784W        W64800   5.225   4.751  15.528 -0.0830 -0.0775  0.2647
21785W        W64801   1.794  33.783  19.263  0.0281 -0.1185  0.1814
21786W        W64802   3.876  17.469  27.207 -0.1134 -0.0625 -0.0164
21787W        W64803  12.676   5.566  17.785 -0.0677  0.0134 -0.0779
21788W        W64804  29.814   7.718  17.466 -0.1261 -0.3941 -0.0704
21789W        W64805  17.306  10.209  18.691  0.0072  0.0552  0.1389
21790W        W64806  30.733   4.193  16.390  0.0197  0.0287  0.0438
21791W        W64807   7.433   1.911  20.995 -0.0723  0.3310 -0.1868
21792W        W64808  18.989   9.435  13.182  0.2727  0.2193  0.4958
21793W        W64809   5.742  19.349  22.222 -0.1666 -0.0210  0.0152
21794W        W64810  23.281  14.576  15.993 -0.0080 -0.0138  0.3458
21795W        W64811   6.920  33.357  22.091  0.1550 -0.2728  0.2649
21796W        W64812   6.575   8.162  25.694  0.1185 -0.2002 -0.0928
21797W        W64813  15.008   0.193   5.418  0.1859  0.0202  0.0050
21798W        W64814  23.727  32.525  17.945 -0.4067  0.0426 -0.1455
21799W        W64815  11.450  11.533  27.388  0.0300  0.0445 -0.2050
21800W        W64816  15.514  32.144  28.148  0.1695 -0.1070 -0.0755
21801W        W64817  24.478   5.240  21.046 -0.2120 -0.3546 -0.3115
21802W        W64818   0.501   7.965  25.135 -0.0899 -0.2339  0.0540
21803W        W64819  21.951  32.482  21.304 -0.0352  0.0638 -0.0016
21804W        W64820   5.084  16.081   8.488  0.1227  0.0481  0.1699
21805W        W64821   8.361   1.553  20.402 -0.3496 -0.2988  0.0135
21806W        W64822  10.737  24.124  14.240  0.2021 -0.3980  0.1430
21807W        W64823  33.674   4.510  23.512  0.2075  0.0024  0.0444
21808W        W64824  27.055  28.237  24.383  0.0801  0.2459 -0.0919
21809W        W64825   8.557   2.491   0.701 -0.0761 -0.2011 -0.0855
21810W        W64826  18.594  26.010  15.087 -0.3751  0.2805  0.1341
21811W        W64827  18.029   7.614  15.993  0.0010 -0.1594  0.3983
21812W        W64828  32.725   9.855  15.414 -0.0590  0.0031 -0.2423
21813W        W64829   8.356  33.428  14.997  0.0112 -0.0727 -0.2586
21814W        W64830   8.256   8.848  23.921 -0.0696 -0.2661  0.3110
21815W        W64831   5.080  30.574  17.103  0.0024 -0.0412 -0.0928
21816W        W64832   1.746   5.679  17.335  0.3100  0.0590 -0.0513
21817W        W64833  32.270   6.816  22.633  0.0209  0.1742  0.1271
21818W        W64834   4.377  13.715   3.486  0.0703 -0.1581  0.0568
21819W        W64835  10.924  23.954  17.020 -0.1760 -0.0662  0.1255
21820W        W64836  16.795  21.746  13.877  0.0868 -0.2499  0.2671
21821W        W64837  28.783   3.440  27.941  0.2115 -0.2652 -0.4100
21822W        W64838  10.460   7.447  16.779  0.1740  0.4533  0.2516
21823W        W64839   0.113   7.103  21.752  0.1387  0.0346 -0.1287
21824W        W64840   5.479  18.719  25.281 -0.1402 -0.1323 -0.0627
21825W        W64841  13.824   4.302  20.954 -0.0746  0.4340  0.0546
21826W        W64842  34.101   8.454  20.086 -0.1804 -0.0891 -0.1318
21827W        W64843  34.646   3.596  28.283 -0.0381 -0.0955 -0.1428
21828W        W64844  10.570   7.331  17.324 -0.1161 -0.2002  0.2964
21829W        W64845   1.720  33.771   0.119  0.2683 -0.1512 -0.0272
21830W        W64846   5.391  27.874  14.589 -0.1646  0.1809 -0.0262
21831W        W64847  33.527   1.510  15.492 -0.3634  0.0018  0.4225
21832W        W64848  26.604   4.251  18.684  0.0912 -0.0004  0.0444
21833W        W64849  24.116   0.338  23.759  0.3356  0.3351  0.0055
21834W        W64850   5.935   5.223  21.689  0.0601  0.1139 -0.3237
21835W        W64851  28.117   6.429  25.450 -0.2217  0.1275  0.2433
21836W        W64852  27.608  17.001  15.179 -0.1409 -0.0343 -0.0928
21837W        W64853  10.176  14.006  13.724  0.2450  0.1881  0.3510
21838W        W64854   9.536  15.430  24.513  0.0983 -0.0817 -0.1784
21839W        W64855   1.367  18.683  19.496  0.2841 -0.4344  0.0211
21840W        W64856  32.185  30.904  16.688  0.1194  0.1313 -0.0972
21841W        W64857  17.733  33.898  18.880 -0.0298 -0.0517  0.2937
21842W        W64858  25.593   4.549  22.697 -0.0358  0.0211 -0.1148
21843W        W64859   7.513   9.460  16.796 -0.0389  0.3080 -0.2398
21844W        W64860  14.252  29.205  16.017  0.3733 -0.0402 -0.2560
21845W        W64861  31.768   9.979  21.594 -0.1071  0.0036  0.1776
21846W        W64862  14.837  26.539  27.563  0.1798  0.1830 -0.1454
21847W        W64863  10.612   5.166  15.751 -0.3707  0.0169 -0.3413
21848W        W64864   9.904   6.309   3.181  0.3180 -0.1624  0.0085
21849W        W64865   6.319  15.943  19.399 -0.1287  0.1699  0.0263
21850W        W64866   2.022   5.933  19.056 -0.0230  0.1165  0.1434
21851W        W64867   3.206  33.584  28.394 -0.0015 -0.2187  0.1136
21852W        W64868  27.093   0.915  15.623 -0.1301 -0.2486 -0.1231
21853W        W64869   0.230   8.125  23.556  0.1136  0.0001  0.0418
21854W        W64870  14.245  29.901  20.692 -0.2440  0.1574 -0.4545
21855W        W64871   6.077  19.260  14.013  0.0223  0.1184  0.0261
21856W        W64872  13.382  33.797  22.047 -0.1368 -0.0890  0.2034
21857W        W64873  12.410   5.117   3.954  0.4826  0.0727  0.0160
21858W        W64874   6.970  10.441  15.036 -0.0479  0.3150  0.1167
21859W        W64875   3.020   1.040  24.714  0.1485  0.3499 -0.1501
21860W        W64876   6.919   9.148  13.699 -0.3762 -0.1121  0.3679
21861W        W64877  13.868  25.337  15.198  0.4097  0.3027 -0.2844
21862W        W64878   7.301   0.510  24.298 -0.2248  0.1857 -0.2035
21863W        W64879  21.032   4.984  17.009 -0.2658  0.1821 -0.1322
21864W        W64880   6.274   7.728  21.483 -0.1312 -0.1630  0.3243
21865W        W64881   1.455   0.094  28.519  0.3971  0.1566  0.1362
21866W        W64882  12.648   3.210   8.860  0.0048  0.1377  0.3490
21867W        W64883  31.794  26.312  24.333 -0.4124 -0.2482  0.1062
21868W        W64884  26.118  21.386  19.681 -0.1809 -0.3205 -0.3220
21869W        W64885   4.745  29.676  21.064 -0.1467 -0.2545  0.0249
21870W        W64886  10.543  13.387  26.110 -0.1581 -0.1624 -0.0314
21871W        W64887   3.220  25.961  29.238  0.1955  0.1149  0.0050
21872W        W64888   9.660   8.325  26.759  0.0747 -0.0864  0.1471
21873W        W64889  13.633  30.562  18.126 -0.2839  0.0762 -0.2531
21874W        W64890   8.154  32.032  27.641  0.0571 -0.3662 -0.0660
21875W        W64891   9.030   1.965   5.692  0.2292  0.1661  0.1325
21876W        W64892  33.639  30.823   0.374 -0.1901  0.0276  0.2420
21877W        W64893  30.432  14.765  16.425  0.1073 -0.2009 -0.0987
21878W        W64894  32.804  10.753  15.829 -0.1796 -0.1479 -0.1726
21879W        W64895   5.658  10.387  17.536  0.0751  0.1305  0.1024
21880W        W64896   4.633   6.693  17.209 -0.1588 -0.0171 -0.1975
21881W        W64897   8.619   0.171  20.162 -0.2846  0.1550 -0.0123
21882W        W64898  13.561   0.264  27.684  0.1977 -0.3874 -0.0833
21883W        W64899  14.886  33.575  25.071  0.1356 -0.0746  0.2454
21884W        W64900   0.934   8.439  21.540  0.5099  0.0701 -0.1237
21885W        W64901   8.648   2.611   5.074 -0.0941  0.2996  0.0342
21886W        W64902  30.024  10.587  24.451  0.2697  0.1023 -0.2067
21887W        W64903   5.412  15.935  24.940 -0.3447  0.0706 -0.2452
21888W        W64904   1.561  24.687  18.938 -0.0702 -0.3016  0.2855
21889W        W64905   1.018   1.845  15.098  0.2901 -0.0356 -0.0488
21890W        W64906  34.173   2.678  21.544 -0.2720  0.0414  0.2903
21891W        W64907  21.759  12.162  14.891  0.1269 -0.1050 -0.2147
21892W        W64908  18.946   6.382  14.246 -0.1637 -0.0842  0.0184
21893W        W64909  10.671  31.466  17.274  0.1052 -0.4683  0.1560
21894W        W64910   6.115  29.825  22.779  0.1658 -0.1170 -0.0455
21895W        W64911  11.642  13.076  29.083  0.0008 -0.1474 -0.3205
21896W        W64912   0.387  13.611  18.342  0.0440  0.0408 -0.3252
21897W        W64913   3.005   4.410  27.706 -0.1297  0.0041  0.1295
21898W        W64914   6.814   9.807  17.955  0.3729 -0.0981 -0.2029
21899W        W64915   4.681   3.583  20.687  0.0266  0.1195  0.1059
21900W        W64916   2.310  13.487   2.229 -0.2112 -0.2283 -0.0879
21901W        W64917  15.929   9.196   2.760  0.0659  0.3767  0.0404
21902W        W64918  11.299  28.981  17.313  0.0426 -0.3398 -0.1252
21903W        W64919  31.369  21.478  24.482  0.1711  0.0945  0.0468
21904W        W64920   5.306  18.462  28.697  0.0126 -0.2753  0.0666
21905W        W64921  27.874   2.119  16.752 -0.1724  0.1856 -0.0277
21906W        W64922  24.607   0.853  17.945 -0.2034  0.2305  0.1568
21907W        W64923  12.588  32.804  17.215  0.2145  0.0973  0.0178
21908W        W64924  17.553  14.826  13.034  0.1285  0.0171  0.0620
21909W        W64925   3.312  33.903  23.134 -0.1021  0.0340 -0.1261
21910W        W64926  34.728   2.366  14.894 -0.1009 -0.1902  0.3709
21911W        W64927  10.145   4.018  17.784 -0.0818 -0.0320  0.0314
21912W        W64928  32.768   0.109  19.666 -0.2004  0.2937  0.0473
21913W        W64929  25.494   3.743  16.751  0.0968  0.0925  0.1267
21914W        W64930  16.334  17.596  27.359 -0.3430  0.1392  0.0834
21915W        W64931  30.174  30.704  26.878  0.1572  0.4050 -0.1976
21916W        W64932  23.363   4.507   1.085  0.2633  0.1365 -0.0051
21917W        W64933   5.484  24.407   0.575 -0.1670  0.0526  0.1255
21918W        W64934  31.778   8.728  15.355 -0.0481  0.3321  0.2211
21919W        W64935  31.227  30.541  22.363  0.1244 -0.0113 -0.0848
21920W        W64936   8.151  13.359  16.355  0.2367  0.1017  0.2569
21921W        W64937  33.449  11.842  17.113 -0.3498  0.0975 -0.2139
21922W        W64938   8.158   2.256  15.660 -0.2276  0.2207  0.1553
21923W        W64939  22.343  31.681  21.470  0.0227  0.0918 -0.1702
21924W        W64940  33.199   0.776   9.006  0.0249 -0.0612 -0.2291
21925W        W64941   8.529   9.843  19.079 -0.1845  0.2031 -0.2098
21926W        W64942  31.453   7.091  26.570 -0.3260 -0.3321  0.1748
21927W        W64943   3.886  31.671   5.536 -0.1535 -0.2716 -0.0464
21928W        W64944  14.029  11.412  23.279  0.0824 -0.4970 -0.2210
21929W        W64945   8.688  30.818  23.499 -0.1629  0.1331 -0.0202
21930W        W64946  13.619   7.457  15.186 -0.0498 -0.0228 -0.0364
21931W        W64947  11.316  19.366  12.488  0.1668 -0.1701 -0.0851
21932W        W64948  30.028  11.141  16.319  0.2619  0.0633 -0.2252
21933W        W64949   4.740  32.718  20.194  0.1632  0.0052 -0.0485
21934W        W64950  15.127   2.723  20.771 -0.4965  0.0283  0.2010
21935W        W64951  34.655  12.194  27.107 -0.1599 -0.1055  0.0294
21936W        W64952  22.383  25.583  20.188 -0.1232 -0.1164  0.2947
21937W        W64953  23.630   7.641  15.685  0.0642 -0.3364 -0.1370
21938W        W64954  25.694   4.077  17.992 -0.1355  0.3813  0.2236
21939W        W64955   7.202   1.177  16.723 -0.1350 -0.1435  0.4001
21940W        W64956  27.658  10.049  18.802  0.1207 -0.3888  0.1397
21941W        W64957  11.359   4.663  21.654 -0.0812  0.3811  0.1159
21942W        W64958  15.735  28.641  23.743  0.0504 -0.0479  0.2150
21943W        W64959  28.658   4.989   3.974 -0.2210  0.3016 -0.0096
21944W        W64960   5.983  32.056  14.779  0.0948  0.1122 -0.1302
21945W        W64961  11.466   9.895   8.489 -0.1508 -0.2146 -0.1043
21946W        W64962  25.747   7.735  16.647  0.2949 -0.3061 -0.0044
21947W        W64963   0.241   7.956  24.669 -0.1662 -0.1867 -0.0512
21948W        W64964  33.953   6.173  24.112 -0.0958  0.2472 -0.3042
21949W        W64965  31.650   1.341   4.947 -0.0995 -0.1049  0.0064
21950W        W64966   5.574  12.872  26.315 -0.4860  0.1116 -0.0237
21951W        W64967   9.506   4.093   5.808 -0.0666 -0.0169 -0.1017
21952W        W64968  17.397   5.792   3.335  0.2294  0.2878  0.0148
21953W        W64969   9.483  16.811  22.930 -0.5503 -0.1542 -0.0737
21954W        W64970  15.857  11.965  12.873 -0.1704  0.2574  0.0855
21955W        W64971   3.209  11.644  25.134 -0.1958  0.0815  0.0604
21956W        W64972   0.810  33.161  20.663  0.1206  0.2151  0.4783
21957W        W64973  30.533  22.619  25.290 -0.3307  0.0608  0.1829
21958W        W64974  12.449  14.243  13.059 -0.1600  0.0934  0.2253
21959W        W64975   9.083  24.505  28.181  0.0928 -0.1611  0.2733
21960W        W64976  28.114   7.145  21.150  0.0890 -0.0174 -0.3222
21961W        W64977  21.399   7.001  16.070 -0.0843  0.0577  0.0767
21962W        W64978   0.078  12.100  23.711  0.0318  0.2270 -0.2222
21963W        W64979  27.325   1.937  28.170 -0.1108 -0.1666 -0.0590
21964W        W64980  31.350  30.290  21.913 -0.0563 -0.1056 -0.0951
21965W        W64981   8.585  34.620  17.507 -0.0951  0.0117  0.0370
21966W        W64982  24.389   9.240  25.837  0.2173  0.1348 -0.0416
21967W        W64983  34.284   7.240  16.156 -0.3650 -0.0016  0.1837
21968W        W64984   3.263   9.730  23.541 -0.3051  0.0359 -0.1736
21969W        W64985  34.685  15.891  21.105 -0.0010 -0.0752 -0.1173
21970W        W64986   1.810   7.014  15.718  0.2451 -0.0345  0.0714
21971W        W64987   2.430   7.612  17.199  0.0179 -0.0503 -0.0837
21972W        W64988  10.122   1.421  23.577 -0.0831  0.0608 -0.2318
21973W        W64989  24.149   1.184  26.705 -0.1174  0.2266 -0.0288
21974W        W64990  19.287  10.131  13.674  0.2029  0.0966  0.1026
21975W        W64991  16.293   8.077  22.680 -0.0445 -0.3084 -0.0767
21976W        W64992   1.829  11.884  17.807  0.0384  0.1344 -0.0864
21977W        W64993   6.128  30.785  18.944 -0.0421 -0.0135  0.1745
21978W        W64994  32.408  34.251  19.014  0.1059 -0.3211 -0.1379
21979W        W64995  11.448  26.814   4.132  0.1835 -0.1985  0.1625
21980W        W64996  30.312  32.386  19.232 -0.0144  0.0745  0.0996
21981W        W64997  29.794  32.370  10.135  0.1397  0.0628  0.0039
21982W        W64998  27.746   8.500  17.401 -0.0604 -0.5009 -0.3342
21983W        W64999  33.972  26.959  17.637 -0.0644  0.0835 -0.2812
21984W        W65000  22.948  31.881  20.299 -0.2964  0.1203  0.0735
21985W        W65001  28.379   1.531   3.669  0.2991 -0.0742 -0.2825
21986W        W65002  17.053  11.519  23.313  0.2086 -0.2323  0.2174
21987W        W65003   7.192  10.909  18.549  0.1097  0.1555  0.0693
21988W        W65004   9.781  18.531  26.575  0.1127 -0.2201 -0.1972
21989W        W65005   8.574   8.797  19.173 -0.1718 -0.1499 -0.3792
21990W        W65006  16.666   2.334  15.283  0.3117 -0.1423 -0.0248
21991W        W65007   1.664  16.254  16.954  0.1738 -0.2107  0.0427
21992W        W65008   9.211   6.992  20.406  0.0293 -0.0611 -0.0546
21993W        W65009  13.634  30.078  23.417 -0.0714  0.1123  0.0359
21994W        W65010   7.831  31.809   2.214  0.1135  0.3223  0.2495
21995W        W65011   8.515   3.444  23.743  0.1172  0.1719  0.0110
21996W        W65012   0.312  32.477  18.614 -0.1393 -0.0197 -0.1418
21997W        W65013   5.107  34.103  24.117 -0.0794  0.2821  0.0268
21998W        W65014  26.726  32.446  20.955 -0.0979 -0.2558  0.1073
21999W        W65015  26.598   7.001  23.102 -0.1747  0.1768  0.0416
22000W        W65016  13.213  30.469  17.650  0.1781 -0.0353  0.0973
22001W        W65017   1.247   3.065  25.054  0.1147  0.0077  0.2127
22002W        W65018  24.433   3.478   1.309 -0.1972 -0.1982 -0.2150
22003W        W65019  34.111  12.669  18.652 -0.2921 -0.1392  0.1129
22004W        W65020  23.363  34.312  14.759  0.1057 -0.4121 -0.0927
22005W        W65021  11.022  30.614   3.184  0.1600 -0.1182 -0.0979
22006W        W65022   3.575   2.504  19.452 -0.0144  0.0701  0.1441
22007W        W65023  11.832  10.639  18.755  0.0160 -0.0752 -0.0138
22008W        W65024  25.244  10.037  17.634  0.0712  0.0995 -0.0585
22009W        W65025   0.590  34.641  16.521 -0.1235 -0.0175  0.2533
22010W        W65026  18.589  26.013   4.076  0.0109 -0.2272  0.0466
22011W        W65027   4.131  16.048  16.622 -0.2799 -0.2596  0.0536
22012W        W65028  17.092   4.185  15.959  0.2330 -0.1314  0.0031
22013W        W65029   1.768  26.528  14.905  0.2234  0.2980 -0.0006
22014W        W65030  17.067   7.573  16.992  0.1441 -0.4365  0.1359
22015W        W65031  26.308  11.739  13.999 -0.2246  0.0498  0.2545
22016W        W65032  29.683  25.596   1.055  0.3023  0.0529  0.0674
22017W        W65033  14.317  30.084  16.298 -0.0663  0.0339 -0.0256
22018W        W65034  21.113  12.602   5.170 -0.0947 -0.0466  0.0735
22019W        W65035   2.559  34.592  16.259 -0.2786  0.1266 -0.1175
22020W        W65036  13.301  12.356  14.432  0.1573 -0.0677 -0.1781
22021W        W65037  19.399   5.679  20.583 -0.1875 -0.1856 -0.4248
22022W        W65038   1.673  34.609  23.210 -0.2646  0.0050 -0.1929
22023W        W65039  31.102   1.016   5.674  0.1259 -0.0693  0.3046
22024W        W65040  13.011   3.497  28.441 -0.1791 -0.2786 -0.1039
22025W        W65041   9.777   0.209  18.876  0.0461 -0.0174  0.5147
22026W        W65042  12.046   4.685  23.726  0.0493 -0.1526 -0.2195
22027W        W65043   4.039   9.232  14.298 -0.0542 -0.0795  0.5202
22028W        W65044   6.852  21.802  22.854  0.2585 -0.0437  0.1414
22029W        W65045   4.055   0.145   0.673 -0.1977 -0.1410 -0.0839
22030W        W65046   9.199  29.229  25.510 -0.2788 -0.2172  0.2121
22031W        W65047   6.803   2.765   3.783  0.0846 -0.2036  0.0610
22032W        W65048  13.461   6.496  15.244 -0.1937  0.0846 -0.0378
22033W        W65049   4.796  30.762  13.500 -0.2583  0.1014 -0.2623
22034W        W65050  32.333   9.359  18.686 -0.2322  0.1028 -0.1191
22035W        W65051  24.797  12.238  18.047 -0.2314 -0.1847  0.1442
22036W        W65052   0.333  27.126  17.484 -0.0850 -0.3256  0.2150
22037W        W65053  13.102  20.364  19.364 -0.1614  0.2711 -0.3019
22038W        W65054  31.009  21.804   4.137 -0.0505 -0.1601 -0.0060
22039W        W65055  19.251   3.025  26.336 -0.1742  0.1096 -0.0612
22040W        W65056   9.027   4.750   0.492 -0.0487  0.1223  0.0255
22041W        W65057  18.282  30.179  23.996 -0.0760  0.4158  0.0353
22042W        W65058   4.619  13.545   5.370 -0.0476  0.0933 -0.0602
22043W        W65059   4.660   7.154  14.421  0.1476 -0.1326  0.1855
22044W        W65060  23.113  10.217  20.747 -0.1987 -0.0497  0.3021
22045W        W65061   8.092  28.061  17.842 -0.0341 -0.1066 -0.1672
22046W        W65062  33.291  12.760  21.020 -0.1674 -0.0132  0.0388
22047W        W65063   1.313  33.901  20.871 -0.2595 -0.4187  0.0127
22048W        W65064   4.963  10.092  29.311  0.2082  0.1179  0.2037
22049W        W65065   3.207  15.313  21.114 -0.0892 -0.0233 -0.0734
22050W        W65066  25.541   0.131   7.915  0.0172 -0.0676 -0.1413
22051W        W65067  13.124  24.806  19.850 -0.1258 -0.0911  0.3600
22052W        W65068  23.990   8.463  15.809 -0.0894  0.2482 -0.0626
22053W        W65069   9.839   9.568  17.764 -0.0800  0.1982  0.3150
22054W        W65070  12.602   6.224  18.255  0.3621 -0.3119 -0.2849
22055W        W65071  33.750   4.201  27.058  0.1864 -0.0310  0.1184
22056W        W65072   3.504  29.655  15.218 -0.0561  0.0661  0.0801
22057W        W65073   7.574   0.758   3.596 -0.0535  0.0707 -0.2150
22058W        W65074  15.218   3.514  23.992  0.0456  0.0980 -0.1216
22059W        W65075  32.365   1.800  15.337  0.0370  0.3624 -0.1016
22060W        W65076  18.648  16.215  22.073  0.1536  0.0794 -0.0742
22061W        W65077  15.516   5.741  15.699 -0.1949  0.0880 -0.2183
22062W        W65078   3.399   1.642  16.455 -0.1347  0.0984  0.0139
22063W        W65079  31.831   6.095  17.310  0.0248 -0.0722  0.1599
22064W        W65080  13.190   3.136   8.244  0.0469 -0.2860  0.3266
22065W        W65081  19.665  34.526  16.247 -0.1407  0.0033  0.2900
22066W        W65082   2.105  20.898  21.509  0.0941 -0.1376 -0.0761
22067W        W65083  26.605   2.529  27.875 -0.1369 -0.4046 -0.0855
22068W        W65084  33.490   2.439  18.847  0.2108  0.0866  0.2771
22069W        W65085   0.769   1.661  24.870  0.2484  0.1264  0.3920
22070W        W65086  19.338  33.960   2.274  0.0661  0.1403 -0.0300
22071W        W65087   7.173   3.215  16.661  0.0042 -0.0106  0.0701
22072W        W65088   2.401  14.909  20.088 -0.1718 -0.0629 -0.3173
22073W        W65089   5.068   7.659  20.258  0.1907  0.1955 -0.0669
22074W        W65090  20.304  10.197  20.670  0.1157  0.0960  0.1135
22075W        W65091   6.960   8.668   7.543  0.2448  0.0784 -0.0142
22076W        W65092  33.291  27.506  21.266 -0.0172  0.0328 -0.1125
22077W        W65093  17.017  17.734  19.728  0.0468 -0.1274  0.1444
22078W        W65094   6.025   7.798   1.965  0.2649  0.2224 -0.5030
22079W        W65095  16.273  33.526   0.370 -0.0385  0.2425 -0.0553
22080W        W65096  14.970  12.005   8.464  0.1816 -0.0348 -0.1786
22081W        W65097  10.364  34.207  15.975  0.0843 -0.0576 -0.0385
22082W        W65098  28.132  10.514  24.462  0.1479  0.3761 -0.2049
22083W        W65099   6.440  18.166   7.424  0.0155 -0.0639  0.0867
22084W        W65100   6.343  20.874  15.132  0.1203  0.2209 -0.4279
22085W        W65101  12.230  33.647  17.738  0.0500 -0.1440  0.0260
22086W        W65102  11.521  34.356  25.546  0.2477 -0.2457  0.2069
22087W        W65103   0.712  22.537  22.759 -0.2170  0.4056 -0.1430
22088W        W65104   7.157  27.376  21.088 -0.0506  0.4026 -0.0935
22089W        W65105   9.503  32.359  21.867  0.2195 -0.0242  0.2882
22090W        W65106  10.457   1.425  23.124 -0.3214  0.3783  0.0470
22091W        W65107   7.194   2.491  19.065  0.2315 -0.3918 -0.0290
22092W        W65108   6.822   9.496  17.369  0.0027  0.0183  0.1508
22093W        W65109  18.263   1.614  23.434 -0.1081  0.1353  0.0609
22094W        W65110  27.403  14.178  14.106 -0.0150  0.0863 -0.2144
22095W        W65111  20.513  27.836  20.911  0.0718  0.1052 -0.2533
22096W        W65112   7.992   4.551  28.322 -0.1783  0.3130  0.1081
22097W        W65113  12.934  31.572  15.040  0.2384  0.3861  0.0824
22098W        W65114  30.168  13.781   3.459  0.1786  0.0026 -0.0996
22099W        W65115   0.757  27.061  19.418 -0.3835 -0.0973  0.3167
22100W        W65116  28.205   6.519  22.973 -0.2176  0.2160 -0.0470
22101W        W65117   8.377  11.718  28.500  0.0595 -0.0240  0.2220
22102W        W65118   9.076   5.454  17.401  0.1243  0.1755  0.2501
22103W        W65119  13.303   4.933  23.675 -0.1338 -0.2113 -0.2129
22104W        W65120  11.505  26.955  22.590 -0.1698 -0.1989 -0.0278
22105W        W65121   3.349  16.094  12.847  0.0204 -0.1839 -0.3005
22106W        W65122  11.027  16.275  29.218  0.0617  0.0620 -0.2502
22107W        W65123  21.795  22.483   5.778  0.1363 -0.1109 -0.1918
22108W        W65124   2.361   2.355  24.545 -0.1109 -0.2644  0.1723
22109W        W65125   2.923  33.922  18.893 -0.0115  0.2374  0.1924
22110W        W65126   1.298  23.952  24.607 -0.1581 -0.0545 -0.0885
22111W        W65127   7.077   0.975  25.133 -0.0234 -0.0225  0.1709
22112W        W65128   1.340   2.537  16.542 -0.5035  0.2844  0.5003
22113W        W65129   2.299   8.258  26.551 -0.2164  0.2391  0.5638
22114W        W65130  21.573   4.161  14.380  0.1436 -0.0632  0.0565
22115W        W65131  11.297   7.567  25.370 -0.0992  0.3522 -0.0603
22116W        W65132  15.719  25.759   0.795 -0.1758 -0.0456 -0.0831
22117W        W65133   1.609  25.453   9.366  0.0976 -0.0599  0.0036
22118W        W65134  28.553  10.268  24.358  0.2817 -0.1170  0.0857
22119W        W65135  33.159  19.636  17.173  0.3157 -0.0414  0.1821
22120W        W65136   2.831  30.743  22.677 -0.0541 -0.2576  0.1270
22121W        W65137  24.991  16.415  24.995  0.4881 -0.4597  0.2145
22122W        W65138  19.721  23.594   3.017 -0.1994 -0.0962  0.1734
22123W        W65139  33.348   8.396  19.524  0.3908  0.1759 -0.0611
22124W        W65140   6.490  21.694  25.407  0.0946 -0.1581  0.0049
22125W        W65141   4.341  22.959   4.200 -0.0842  0.3449  0.0124
22126W        W65142  22.818   4.288  21.018 -0.0788 -0.1136  0.1519
22127W        W65143  23.034   8.889  20.554  0.0886 -0.0594 -0.1300
22128W        W65144  25.105   5.948  20.478 -0.0931  0.0490  0.0653
22129W        W65145   8.519   3.232  18.223 -0.0820 -0.1399 -0.0821
22130W        W65146  26.177   4.669  23.858 -0.4984  0.2282 -0.2344
22131W        W65147   7.958   1.535  19.360 -0.0057  0.0368  0.1249
22132W        W65148  26.509  11.296  14.476 -0.1647 -0.1324  0.1064
22133W        W65149  11.644  25.096  23.328  0.0223 -0.0393  0.1280
22134W        W65150  27.307   8.169  25.083  0.0683 -0.3209  0.0268
22135W        W65151   4.367  27.147  15.996 -0.3057 -0.3262 -0.1660
22136W        W65152   1.876  15.016  18.876  0.1691 -0.1642  0.2367
22137W        W65153  24.464  18.592  21.638 -0.1696 -0.1120  0.1342
22138W        W65154  13.357  12.259   1.585  0.2899  0.3688 -0.0547
22139W        W65155  18.743  26.655   1.215  0.1471 -0.2049 -0.2384
22140W        W65156  30.909  11.903  19.407  0.2448  0.1388 -0.0277
22141W        W65157   8.421  29.151  18.176 -0.2433 -0.1088  0.1738
22142W        W65158   2.898   0.825   1.248  0.0442  0.0935  0.2015
22143W        W65159  11.207   2.748  20.064 -0.2070 -0.1298 -0.2261
22144W        W65160  27.823   7.832  26.151  0.0457 -0.4010 -0.3342
22145W        W65161  20.941   6.444  15.444  0.0405 -0.0320  0.1999
22146W        W65162   5.381   1.595   1.261  0.0208  0.2543  0.1603
22147W        W65163   7.753   6.329  16.079  0.0949  0.0281  0.2363
22148W        W65164  11.180   2.245  17.066 -0.2912  0.2361  0.0483
22149W        W65165   9.751   3.978  23.105 -0.0743 -0.1446  0.1807
22150W        W65166   9.903   1.857  21.681 -0.1107 -0.0093  0.3654
22151W        W65167  14.793   0.806  22.849 -0.0945  0.2344  0.1551
22152W        W65168  34.050  14.669   1.857 -0.2487 -0.2262  0.0550
22153W        W65169   3.057  25.470  20.157  0.0067 -0.2745  0.0613
22154W        W65170   3.146  14.473  15.359  0.0847 -0.2742  0.1556
22155W        W65171  16.502   6.792   9.127  0.1072  0.3438 -0.2365
22156W        W65172   0.197  29.368  16.664  0.2506 -0.1242  0.0308
22157W        W65173  16.094  12.665  12.215  0.3201  0.1337  0.2553
22158W        W65174   4.562   4.699  14.199 -0.1657  0.3749  0.1187
22159W        W65175   8.200  10.684  21.291  0.3622 -0.3287 -0.1186
22160W        W65176   1.549  29.578  22.047 -0.0480 -0.0301  0.4582
22161W        W65177  17.300  32.145   2.834  0.0823 -0.2332  0.1695
22162W        W65178  27.333  20.563   6.548 -0.0208 -0.0563 -0.1844
22163W        W65179  19.235  20.074  13.634  0.1420  0.0994 -0.0856
22164W        W65180  18.256  11.625  27.815 -0.1495  0.3016 -0.2798
22165W        W65181   0.518  16.876   5.841  0.4112  0.1629 -0.0655
22166W        W65182   2.609  22.477  23.364 -0.4496 -0.0968  0.0850
22167W        W65183   8.060   7.308  17.981 -0.0958 -0.0830 -0.2189
22168W        W65184  29.477   5.027   8.678  0.4664 -0.0509 -0.2434
22169W        W65185  33.083  20.918  20.532  0.2622 -0.1902  0.0532
22170W        W65186  33.078   8.480  15.095 -0.0019 -0.1031 -0.1149
22171W        W65187  15.479  31.948   6.539 -0.0202  0.0762 -0.2025
22172W        W65188   8.329   6.777  18.261  0.1372 -0.1124  0.0592
22173W        W65189   7.468   6.098  17.494 -0.0870  0.0031  0.0298
22174W        W65190   0.291  12.298  19.134 -0.3607  0.0171  0.1703
22175W        W65191  32.283   0.307  19.105  0.3316 -0.2225 -0.3033
22176W        W65192   1.261   5.883  16.034 -0.1860  0.1018 -0.1029
22177W        W65193  15.651   5.412  20.831 -0.2910  0.0390 -0.0350
22178W        W65194  26.870   2.642  23.001 -0.3900  0.1732  0.1550
22179W        W65195   5.466   4.423  26.128  0.3616 -0.0037  0.1723
22180W        W65196   9.330   0.940  16.257 -0.2051  0.3635  0.3416
22181W        W65197   8.643   4.163  19.983 -0.2345  0.1373 -0.2256
22182W        W65198   6.242  16.430  23.902  0.0844  0.0787 -0.2399
22183W        W65199  15.437  24.479   2.082  0.0247 -0.1758  0.2182
22184W        W65200   6.476   6.357  15.835 -0.1354  0.0080  0.6384
22185W        W65201  17.671   2.849  15.707 -0.1110 -0.0480  0.3234
22186W        W65202   9.193   3.525  22.626  0.5005 -0.1017 -0.1265
22187W        W65203   4.697   1.646  15.150  0.1632  0.2571 -0.0890
22188W        W65204  27.475  14.711  14.955 -0.3188 -0.0105  0.1255
22189W        W65205  18.819   3.993   0.663  0.1355  0.1090  0.2105
22190W        W65206   3.623   3.882  28.498 -0.0355  0.2690 -0.1490
22191W        W65207  25.174  13.110  17.702 -0.1473 -0.0308  0.2115
22192W        W65208  11.585  15.256   3.345  0.0117 -0.0614 -0.0091
22193W        W65209  32.816   8.207  18.870 -0.1038 -0.2350 -0.1071
22194W        W65210  21.537  10.511  13.774 -0.1769 -0.2603 -0.1833
22195W        W65211   8.687  11.803  22.776  0.2328  0.0949  0.2318
22196W        W65212   6.128  34.099  19.220 -0.0248 -0.0968  0.0790
22197W        W65213   5.512  25.024  16.878  0.1477 -0.0850 -0.2511
22198W        W65214   8.797  23.361  13.401 -0.0177 -0.1000  0.3362
22199W        W65215  13.307  11.475  28.641 -0.1034  0.1812  0.2179
22200W        W65216  24.524  29.122  20.647 -0.0951 -0.0422  0.1155
22201W        W65217  11.030   3.543   3.313  0.2588  0.2757  0.0469
22202W        W65218  10.309   8.798  25.126 -0.0451  0.1175 -0.1946
22203W        W65219  17.739  22.450  13.500  0.1153  0.1087  0.1358
22204W        W65220  30.273  21.585  15.459  0.0563 -0.0612 -0.1492
22205W        W65221   7.148   7.070   3.448 -0.0514 -0.4312 -0.0469
22206W        W65222  16.879   3.309   2.575 -0.1518 -0.3909  0.1005
22207W        W65223  24.285  20.481   4.160 -0.0974  0.0577 -0.0913
22208W        W65224   6.036   7.634   3.179  0.2149  0.0020  0.1686
22209W        W65225  10.906   5.905  25.041  0.0071 -0.2079 -0.0006
22210W        W65226  30.186  33.801  26.614  0.0430  0.1941  0.0316
22211W        W65227  33.863   7.866  15.904 -0.0697 -0.0272  0.0553
22212W        W65228  32.115  30.891  25.158  0.1946  0.0262 -0.1114
22213W        W65229  16.400  25.388  18.943 -0.1117  0.2916 -0.1354
22214W        W65230  15.165  17.654   7.913 -0.0869 -0.1555  0.4176
22215W        W65231   2.344  29.883  18.543  0.1155 -0.1440  0.1517
22216W        W65232  34.613   6.720  16.431  0.1557  0.2876  0.2546
22217W        W65233   6.237   2.608  23.151  0.2176 -0.0186  0.1784
22218W        W65234  18.092   2.968  25.357  0.3700 -0.5504  0.2175
22219W        W65235   2.017  28.934  23.501 -0.0026 -0.2108 -0.2359
22220W        W65236  12.174  34.397   0.879  0.0522  0.0882 -0.0711
22221W        W65237   0.800   7.981   0.875 -0.2039 -0.2388  0.0514
22222W        W65238   8.665   0.075  21.698 -0.0535  0.2445  0.1127
22223W        W65239  14.185  11.435  13.468 -0.1291 -0.1178  0.0178
22224W        W65240  34.213  15.808  17.465 -0.0880 -0.0324 -0.1192
22225W        W65241  30.937   4.077  26.510  0.1292 -0.2155 -0.0151
22226W        W65242   5.225  12.285  22.005  0.0896 -0.1417 -0.1899
22227W        W65243  12.842  24.659  19.400 -0.1092  0.2966 -0.0570
22228W        W65244  11.667   1.666  28.498  0.1771 -0.0060  0.0978
22229W        W65245  25.988   9.865  27.872 -0.0623  0.0246 -0.1228
22230W        W65246  10.771  33.410  15.871  0.0500 -0.2202  0.1894
22231W        W65247   1.467   2.248  16.984 -0.0910  0.3795 -0.1689
22232W        W65248  33.486  14.231  19.980  0.5485  0.1638  0.1069
22233W        W65249   1.100  12.117  21.101  0.1092  0.0868 -0.0654
22234W        W65250  14.594  27.061  20.094  0.1653 -0.0870 -0.2145
22235W        W65251  14.815   8.093  20.212 -0.0595 -0.0153 -0.2727
22236W        W65252   7.020  33.424   7.086  0.4222  0.1950  0.2014
22237W        W65253  14.061  30.752  18.032  0.4675 -0.0789 -0.3512
22238W        W65254   2.494  22.829  13.539  0.2648  0.2025  0.3368
22239W        W65255  30.037   3.613  28.050  0.3307  0.0239 -0.1976
22240W        W65256  10.539  23.574  27.839  0.0116  0.1685 -0.0700
22241W        W65257  33.716   7.628  14.058 -0.0509 -0.0099 -0.3712
22242W        W65258  11.607  29.370  23.180 -0.1534  0.1882  0.0739
22243W        W65259   2.610  23.735  21.558 -0.0652 -0.2129  0.0946
22244W        W65260   7.758   8.808   1.894  0.2234  0.1777 -0.3442
22245W        W65261  33.676   9.138  18.162  0.3116 -0.0204 -0.0895
22246W        W65262  34.510  26.896  19.356  0.0638  0.2550  0.0509
22247W        W65263  32.979  14.612  20.931  0.1110  0.0515 -0.1605
22248W        W65264   9.959   6.077  15.464 -0.4692  0.0921 -0.0836
22249W        W65265  13.477  17.111  22.215  0.2750  0.0137 -0.2502
22250W        W65266  34.658   8.893  24.729 -0.0280  0.0322  0.0755
22251W        W65267  18.812  23.403  24.720 -0.1429  0.0303 -0.1756
22252W        W65268  18.969  27.977  15.854  0.3583  0.0435 -0.0710
22253W        W65269  30.931   3.139   1.226 -0.0569  0.0907 -0.0047
22254W        W65270   1.404   3.912  16.469  0.0531  0.1940 -0.0387
22255W        W65271  28.764  21.107  18.791  0.2214  0.1107  0.3839
22256W        W65272  14.977   1.623  25.686  0.0794  0.0886 -0.2655
22257W        W65273  26.857  15.704  22.141 -0.1172 -0.1478  0.1233
22258W        W65274  34.718  27.828   5.370 -0.0728  0.2182  0.1816
22259W        W65275  28.837  14.433  15.399 -0.3377  0.2331 -0.0708
22260W        W65276   2.389   9.005  18.046  0.2155 -0.0664  0.1155
22261W        W65277   3.888  33.651  27.400 -0.1669  0.0203  0.1498
22262W        W65278   7.310  30.787  16.476  0.1351  0.1942 -0.0800
22263W        W65279  17.490  10.102  14.330 -0.1945 -0.0769 -0.1207
22264W        W65280  32.694   2.770  16.422 -0.2555  0.2096 -0.1910
22265W        W65281  33.923  25.433   5.727 -0.2176 -0.2053 -0.2848
22266W        W65282  14.284  33.703  27.727  0.1126  0.1761 -0.1639
22267W        W65283  16.318  34.509  17.930  0.2220 -0.1119 -0.0660
22268W        W65284  32.740  20.873  17.674  0.0010 -0.0852  0.3434
22269W        W65285   1.612   0.635   6.339 -0.1443 -0.1857 -0.1454
22270W        W65286   2.916   1.969  17.134 -0.0167 -0.0445  0.0905
22271W        W65287   4.472   5.326  17.113  0.1205  0.2221 -0.3377
22272W        W65288   2.269  19.796  18.785  0.0515 -0.0034 -0.2248
22273W        W65289  28.047  28.664  27.977 -0.0420 -0.0204 -0.0972
22274W        W65290   1.035  16.027  23.171  0.2277  0.0414  0.1065
22275W        W65291  11.036  31.404   0.153 -0.2362  0.0257  0.0832
22276W        W65292   6.790   9.659  23.152 -0.0238  0.3122  0.0679
22277W        W65293   9.774  27.776  15.465  0.1123 -0.1505 -0.0782
22278W        W65294   0.576   6.068   1.694 -0.1221  0.0490  0.1164
22279W        W65295  17.132  32.068  16.487  0.1119  0.4160  0.0309
22280W        W65296  32.860   3.820  23.241  0.2137  0.0362 -0.0510
22281W        W65297  26.817  12.249  28.553 -0.3004  0.1207 -0.0655
22282W        W65298   5.324  13.929  19.320  0.0715  0.2018  0.0736
22283W        W65299   1.131  15.846  27.707 -0.1430 -0.1491  0.2317
22284W        W65300  23.306   6.028  26.785  0.3355  0.2702  0.1068
22285W        W65301  22.540  19.717   6.244 -0.2294  0.1262 -0.0923
22286W        W65302   7.346  16.862  20.697 -0.0300  0.1829  0.1191
22287W        W65303  14.400  17.289  12.455  0.0600 -0.1535  0.0037
22288W        W65304  20.477  19.776  16.584  0.2120 -0.2887  0.1467
22289W        W65305  11.228   4.360  29.062 -0.0445 -0.0744 -0.3411
22290W        W65306  28.133  30.278  27.035  0.0322  0.0319 -0.0138
22291W        W65307  17.170   4.765  27.827  0.1733  0.0427  0.2721
22292W        W65308  18.845  29.791   0.160 -0.0518 -0.2964  0.0810
22293W        W65309  27.756   0.752   3.503 -0.1423  0.2443  0.2422
22294W        W65310   5.041   2.437  10.991 -0.0968  0.0931 -0.0851
22295W        W65311  30.778   9.037  21.965 -0.1337 -0.0179  0.1007
22296W        W65312  10.764  25.182  23.936 -0.1554  0.2620 -0.1190
22297W        W65313   3.722  13.243  14.176  0.4030  0.3237 -0.2084
22298W        W65314  33.850   1.078  18.533  0.1174 -0.1631 -0.2093
22299W        W65315   7.556  11.763   6.704 -0.4030  0.1217 -0.0899
22300W        W65316  10.230   8.957   0.627  0.1404  0.3472 -0.0613
22301W        W65317  34.156  24.568  23.157 -0.0091 -0.1967 -0.2375
22302W        W65318  14.138  14.232  25.857  0.2509  0.2700  0.1902
22303W        W65319   5.483  15.417   4.544 -0.1001 -0.0004 -0.2410
22304W        W65320  24.287   8.309  26.131  0.0186 -0.1482 -0.0051
22305W        W65321   4.095  21.549   4.718  0.2337 -0.0052 -0.2969
22306W        W65322  32.106  32.554   0.222 -0.0253  0.1106  0.2818
22307W        W65323   7.636   2.892  20.401 -0.1370 -0.3399 -0.2458
22308W        W65324  12.650   8.818  29.088 -0.1559 -0.2426 -0.2406
22309W        W65325  13.731  30.481   1.052 -0.0341  0.0545  0.2999
22310W        W65326   7.901  15.878  25.851  0.2400  0.1554  0.1737
22311W        W65327  33.662  13.254  16.673  0.0149 -0.0351 -0.0179
22312W        W65328   7.546  15.226  12.922 -0.1046 -0.0608 -0.2680
22313W        W65329  19.192   1.923   8.261 -0.0195  0.0766  0.2803
22314W        W65330  13.729   8.345  14.536  0.0099 -0.1593  0.2173
22315W        W65331  14.426  32.705   7.405 -0.1700 -0.3249  0.2839
22316W        W65332   6.384   6.722  17.474 -0.0497  0.0000  0.0303
22317W        W65333   7.759   9.356   1.705 -0.2559 -0.3560  0.0690
22318W        W65334   9.702   7.309  19.570  0.0239  0.0141 -0.1486
22319W        W65335  14.182   7.969  25.557  0.0328  0.0696  0.0897
22320W        W65336  33.855   6.894  15.054 -0.0539  0.0100  0.1582
22321W        W65337   2.954  15.723  23.811  0.0936 -0.0842 -0.2968
22322W        W65338   2.431  10.826  25.882  0.0884  0.2819 -0.0606
22323W        W65339  21.660  34.113  15.158 -0.1535 -0.1793  0.0315
22324W        W65340   4.729   0.875  19.250 -0.1900  0.3585  0.1252
22325W        W65341   4.268  11.918  27.080  0.2608 -0.1245 -0.1104
22326W        W65342   0.864  26.810   6.533 -0.1757  0.1352 -0.1055
22327W        W65343  13.241   5.261  24.104  0.2690  0.1536 -0.1218
22328W        W65344  26.957   8.422   0.342 -0.0483  0.0185  0.0695
22329W        W65345  28.835   0.206  24.152 -0.5287  0.0982  0.1280
22330W        W65346   4.865  23.607   1.311 -0.1336 -0.2139  0.1502
22331W        W65347   3.602  21.439  20.862 -0.0268 -0.0187 -0.1623
22332W        W65348  10.933  19.225  26.857  0.1734  0.1495  0.0848
22333W        W65349  16.294   7.059   3.800  0.2939  0.0195 -0.1071
22334W        W65350   0.235   4.787  24.997  0.2208  0.1297  0.0529
22335W        W65351  13.238  11.410  24.336 -0.2500 -0.2990  0.1180
22336W        W65352   1.724   7.788  22.797 -0.1028  0.3463 -0.0121
22337W        W65353   8.641   4.752   2.247 -0.0325  0.0391 -0.0920
22338W        W65354   9.931   1.246   0.718  0.0636 -0.4209 -0.2589
22339W        W65355  11.182   7.025  18.765  0.1060 -0.0510  0.1453
22340W        W65356   7.786  33.880   7.848  0.0516  0.1974 -0.2446
22341W        W65357   0.147  12.300  14.649 -0.1485  0.0674 -0.2082
22342W        W65358   1.973   4.543  19.658 -0.0080  0.2733 -0.0486
22343W        W65359  15.923   9.565  22.685  0.0325 -0.0794 -0.1506
22344W        W65360  10.615  29.796  14.502 -0.0451  0.1508  0.1586
22345W        W65361   3.688  32.302  26.352 -0.0368 -0.1267 -0.1693
22346W        W65362   8.262   6.089  22.034  0.1553 -0.0356 -0.1292
22347W        W65363  32.979  17.359  25.470  0.0547 -0.0008  0.0162
22348W        W65364  34.755  18.183  19.241 -0.1284  0.2285 -0.1546
22349W        W65365   8.291  15.246  22.767  0.2164  0.4404  0.1920
22350W        W65366  16.230  19.960   1.097  0.1734 -0.1838 -0.0738
22351W        W65367   3.504  27.310   1.164  0.1330 -0.3172  0.0294
22352W        W65368   1.425  11.792  18.516  0.2864  0.2394  0.0730
22353W        W65369  23.259  14.098  18.787  0.1106  0.1256  0.0969
22354W        W65370   8.569  32.845   2.386 -0.2934 -0.0216  0.4880
22355W        W65371  17.698  25.292   5.705 -0.0718  0.4555 -0.0683
22356W        W65372   8.569   4.725   0.309 -0.0271 -0.2517  0.0512
22357W        W65373   6.408  20.469  20.867  0.0801  0.1932  0.0648
22358W        W65374   8.991  33.559  21.663  0.0054  0.0386  0.0780
22359W        W65375  19.145  28.680  22.122 -0.0056  0.0669 -0.2618
22360W        W65376  18.286  12.456  24.917  0.0242 -0.0387  0.0735
22361W        W65377  23.119  12.209   0.715 -0.1341  0.1669  0.1138
22362W        W65378  19.539  24.181  28.376  0.2668  0.0840 -0.0816
22363W        W65379  18.086  14.030  13.046  0.1983 -0.1285  0.1362
22364W        W65380   2.126  18.305  28.717 -0.2462 -0.4869 -0.1612
22365W        W65381   1.535  29.063  21.523  0.1310 -0.0702 -0.1503
22366W        W65382  15.253   0.189  25.153  0.0216  0.0796  0.1966
22367W        W65383  19.981   4.438  18.106  0.2410 -0.1063 -0.1679
22368W        W65384  12.227   1.372  25.538 -0.0406  0.3201  0.1188
22369W        W65385  10.519  15.297  26.489 -0.2188  0.2474 -0.0739
22370W        W65386   9.868  10.503  17.785  0.0929 -0.1289 -0.0291
22371W        W65387   4.699  16.013  20.896 -0.0349  0.1820  0.4365
22372W        W65388   6.708   4.706  27.725 -0.4549  0.0869 -0.1366
22373W        W65389  14.814  29.396  14.144 -0.1936  0.0258 -0.0908
22374W        W65390   0.216   0.300  14.797  0.1006  0.1736 -0.0375
22375W        W65391  30.837   7.905  23.102 -0.1498  0.2051  0.0644
22376W        W65392   5.738   6.451  15.622 -0.2088 -0.1631  0.0033
22377W        W65393  32.481  12.316   0.144  0.0603  0.1906  0.1321
22378W        W65394  26.720   9.114   3.350 -0.1498 -0.2673  0.0650
22379W        W65395  26.851   2.516   0.297  0.0276 -0.0982 -0.3828
22380W        W65396   4.496   6.712   3.251  0.0135 -0.0556  0.1602
22381W        W65397   4.773  34.064  15.213  0.2418 -0.1063 -0.1228
22382W        W65398   9.419   6.425   2.186  0.1449 -0.1231  0.0189
22383W        W65399  16.609   3.612  24.638  0.1233  0.1284 -0.1936
22384W        W65400   9.632  16.737   8.135  0.2678  0.1442 -0.1293
22385W        W65401  33.654   9.047  19.205  0.1113 -0.0919 -0.1971
22386W        W65402  15.324   5.083  19.046  0.2119 -0.4137 -0.2498
22387W        W65403   5.911  32.329  25.658 -0.1567  0.3340 -0.4678
22388W        W65404  28.123   8.535  21.598 -0.2135  0.2804  0.1421
22389W        W65405  26.960  33.617  19.542  0.1641 -0.1780  0.1955
22390W        W65406   3.337  19.409  26.861  0.0400 -0.1287 -0.1335
22391W        W65407  17.692  17.469   6.896  0.1122  0.0488 -0.0337
22392W        W65408   9.410  30.598  16.111  0.3499  0.0322 -0.0946
22393W        W65409   7.363   9.645  26.141  0.0163 -0.4108 -0.3376
22394W        W65410   6.591  34.021  19.292 -0.0389 -0.0170  0.0819
22395W        W65411  23.379  20.468  21.595  0.0486  0.0973  0.0389
22396W        W65412  15.733  34.393  22.017 -0.2232  0.4063  0.0371
22397W        W65413   1.292  32.622  19.569 -0.2793 -0.1200 -0.0323
22398W        W65414   3.709  12.518  22.953  0.0053  0.0717  0.0158
22399W        W65415  29.756  28.515  22.439  0.0367 -0.1629 -0.1903
22400W        W65416   8.078   2.321   3.215 -0.0751 -0.4077 -0.1085
22401W        W65417  34.501  31.298  23.732 -0.3159  0.1333 -0.0062
22402W        W65418   3.993  14.491   0.001 -0.2102 -0.0406  0.3224
22403W        W65419  25.306   8.954  21.026 -0.0104  0.1440 -0.0890
22404W        W65420  13.855   1.134  23.822  0.0316 -0.0171  0.3234
22405W        W65421  32.876   8.080  17.071 -0.3036  0.3010 -0.0288
22406W        W65422  29.175  33.278  23.324 -0.1120  0.1625 -0.0306
22407W        W65423  15.590  18.016  22.943 -0.0653  0.2050 -0.3751
22408W        W65424   7.247   2.986  18.265 -0.1965  0.1137 -0.3742
22409W        W65425  16.729  25.400  18.422  0.0486 -0.1792 -0.1348
22410W        W65426  34.642  34.222  28.822  0.3199  0.0046  0.1579
22411W        W65427  15.069  27.009  26.510  0.0033 -0.3643  0.0446
22412W        W65428   0.236   6.240  20.060 -0.3881  0.0804 -0.0301
22413W        W65429  12.042  30.803  23.468 -0.2258 -0.3715 -0.0390
22414W        W65430   2.436  25.295   7.655  0.0681  0.2946 -0.2129
22415W        W65431   8.708   0.700   5.757  0.0640  0.1928 -0.0142
22416W        W65432  11.860   6.644  28.982 -0.1238  0.3427  0.0039
22417W        W65433   1.768  27.175  27.580 -0.2377 -0.1946 -0.1359
22418W        W65434  20.445  30.414  10.164 -0.1711 -0.2163  0.0693
22419W        W65435   5.520   2.669  15.313  0.1479  0.2739 -0.2153
22420W        W65436   3.609  13.742  15.350  0.1621 -0.1357  0.1358
22421W        W65437   1.317   3.657  15.639 -0.1505  0.3428  0.0763
22422W        W65438   9.915  27.285  20.959 -0.1405  0.0324  0.0104
22423W        W65439   9.465  32.671  27.740 -0.1036  0.0038  0.1222
22424W        W65440   3.070  13.776  23.020  0.0814  0.0317  0.0838
22425W        W65441  16.807  26.841   1.038 -0.1800 -0.0864  0.0298
22426W        W65442   7.388   6.869  19.435 -0.1382 -0.2468 -0.0701
22427W        W65443   1.613  14.088  10.863  0.1114 -0.1285 -0.3532
22428W        W65444  20.952  18.537   1.851 -0.0683  0.1771 -0.0542
22429W        W65445   6.030  34.303  27.258  0.3058  0.0652 -0.0978
22430W        W65446  10.875   5.441  14.063 -0.2890 -0.0024  0.0805
22431W        W65447  10.708  13.098  13.633 -0.0553  0.1661 -0.2128
22432W        W65448  11.939  27.021  27.527  0.1450 -0.2536  0.0332
22433W        W65449  30.700   8.203  25.542  0.1893  0.0901 -0.0223
22434W        W65450  33.699   8.887  25.913  0.1440  0.1888 -0.1770
22435W        W65451   1.869  28.992  17.257  0.3283 -0.0896  0.1072
22436W        W65452  15.279  10.401  15.687  0.1724  0.2685 -0.2931
22437W        W65453   0.541  18.945   8.088 -0.2643 -0.1408  0.0515
22438W        W65454   5.239  25.254   2.365 -0.0594 -0.0090 -0.0227
22439W        W65455   1.881   6.650  26.147  0.1218 -0.0378 -0.0149
22440W        W65456  33.833  14.507  21.239 -0.1768 -0.1550  0.2227
22441W        W65457  13.735  10.846  26.842  0.0339 -0.4465 -0.0797
22442W        W65458  21.830  29.043  20.069  0.1605 -0.1211  0.3214
22443W        W65459   1.401   7.662  17.814  0.1691  0.2147 -0.1684
22444W        W65460  34.187  22.236  21.059 -0.1045 -0.4434 -0.2713
22445W        W65461  27.155  12.640  23.402  0.2809 -0.1294 -0.0053
22446W        W65462   4.841   5.184   9.438 -0.2769 -0.0960 -0.1390
22447W        W65463  11.887   7.271  14.503  0.0060 -0.1374 -0.1086
22448W        W65464   5.769   2.844  27.426 -0.0970  0.3171 -0.0500
22449W        W65465  10.146   8.920  18.669  0.1702  0.2584 -0.4242
22450W        W65466   4.500  32.961  25.882 -0.0958 -0.1885 -0.1211
22451W        W65467  34.555  18.491   5.911  0.1688 -0.0381  0.4907
22452W        W65468  28.379   5.043  26.607 -0.0911 -0.0412 -0.2870
22453W        W65469   6.114   1.549  22.115  0.0009  0.0994 -0.1803
22454W        W65470   8.000  34.720  18.394 -0.1231 -0.1943  0.1955
22455W        W65471  13.632  24.088  24.862  0.0747 -0.0582  0.0105
22456W        W65472  34.380  17.090  17.861 -0.3403 -0.2633  0.2579
22457W        W65473   2.789   8.188  22.379  0.3022  0.3102  0.1439
22458W        W65474  11.860  17.679  22.993 -0.0075 -0.1193  0.3019
22459W        W65475   9.824  10.293  22.633 -0.0575 -0.0842  0.2466
22460W        W65476   1.051  13.349  10.388 -0.1591 -0.1531  0.3040
22461W        W65477   8.264  16.040  16.124 -0.0665 -0.3796 -0.1043
22462W        W65478   3.538  14.275  21.295 -0.2156 -0.3054  0.0427
22463W        W65479  10.083   5.913  16.110  0.1258  0.3329  0.0711
22464W        W65480  14.691   8.006   2.300  0.1094 -0.3300  0.3943
22465W        W65481   9.091   5.800  15.446  0.2581 -0.1767  0.2493
22466W        W65482  17.409   2.605  22.162  0.0723  0.3267 -0.5149
22467W        W65483  11.520  17.791  16.952  0.3506 -0.0162  0.2311
22468W        W65484  32.953  18.021  18.262 -0.2174  0.0996  0.2928
22469W        W65485   3.155  28.865  20.641 -0.0590 -0.0370 -0.1579
22470W        W65486   7.242  34.359  16.099  0.2114 -0.0435 -0.0297
22471W        W65487  34.547   1.413   0.194  0.0729 -0.0350 -0.1732
22472W        W65488  14.152  29.894   9.837 -0.1775 -0.4077  0.0042
22473W        W65489  30.810   2.735  22.590 -0.0396  0.0684 -0.1675
22474W        W65490  14.706  13.951  15.099 -0.1493 -0.1766 -0.2000
22475W        W65491  14.081  34.744  16.338  0.2031  0.2916  0.1278
22476W        W65492   4.108  12.746  21.184  0.0867  0.0776 -0.0423
22477W        W65493  29.151   0.059  18.612  0.0133  0.1555  0.2278
22478W        W65494   5.328  18.160  27.433 -0.0241 -0.2741 -0.0628
22479W        W65495  29.051   4.862  19.565 -0.1517  0.1630 -0.2790
22480W        W65496  29.522   7.780   1.461 -0.3651  0.2484  0.0609
22481W        W65497  21.660  26.364  15.689  0.0220 -0.1656  0.2580
22482W        W65498   1.263  13.964  22.943  0.0121 -0.0554  0.0609
22483W        W65499  27.199  30.459  22.003  0.2797 -0.0205  0.2376
22484W        W65500  15.892   1.913  19.167  0.2042 -0.0644  0.1235
22485W        W65501  14.995  15.874  22.033  0.2377  0.2727  0.1442
22486W        W65502   0.714   2.634  23.019 -0.2467  0.1523 -0.5001
22487W        W65503   4.190   4.478  27.042  0.0181 -0.1176 -0.3266
22488W        W65504   8.340   1.985   9.441  0.1932  0.1273  0.1087
22489W        W65505  10.740   3.981  17.013  0.0811  0.2401  0.1743
22490W        W65506   0.978  13.599  20.333  0.1107  0.0324  0.2216
22491W        W65507  34.707   6.958  20.071  0.0778  0.0421 -0.0180
22492W        W65508   3.149  10.327   0.236  0.4363  0.1461 -0.0705
22493W        W65509   5.933   9.710  18.450  0.0834  0.1524 -0.1175
22494W        W65510  26.435   7.382  25.978  0.2484 -0.0107 -0.0040
22495W        W65511  28.843  26.532  22.600 -0.2732 -0.0824 -0.1492
22496W        W65512   3.497  12.166  21.555 -0.1050  0.1845 -0.0816
22497W        W65513   9.240  11.036  22.825 -0.0152 -0.2733 -0.0386
22498W        W65514  20.679  15.255   6.127 -0.1278  0.1071 -0.3024
22499W        W65515  28.697  32.275  29.135 -0.1304 -0.1369  0.0278
22500W        W65516   0.227   5.660  21.186  0.0720 -0.2261  0.0614
22501W        W65517  13.974   6.503   8.024 -0.2837  0.2739 -0.1970
22502W        W65518   2.197  19.892   5.742 -0.1086 -0.1757 -0.0422
22503W        W65519   2.145  14.241  20.685 -0.2367  0.1782  0.1187
22504W        W65520   5.714   3.169   2.910 -0.1414 -0.1208 -0.2194
22505W        W65521  26.737   6.640   0.400  0.4479 -0.0695  0.0220
22506W        W65522  27.931   4.013  21.000  0.0009 -0.0860 -0.1051
22507W        W65523  19.776   0.855  21.025  0.0176  0.1291 -0.5522
22508W        W65524  11.593   7.332  17.162 -0.0666 -0.0369  0.1087
22509W        W65525   8.201  14.076  23.331  0.0464 -0.0059 -0.0632
22510W        W65526  29.762  24.196  23.719 -0.0784  0.1998  0.0911
22511W        W65527  31.727   7.726  17.125 -0.2228 -0.0397  0.1483
22512W        W65528  34.051  27.237  18.050 -0.0935  0.1203  0.0516
22513W        W65529   1.202   7.785  24.462 -0.2060 -0.0458 -0.2039
22514W        W65530  33.986  32.177   2.934 -0.1472  0.0751 -0.0504
22515W        W65531  30.769  24.211  22.681 -0.3322  0.2922  0.3335
22516W        W65532   1.607  12.250  18.747 -0.0916  0.4134  0.3873
22517W        W65533  33.843   9.945  25.984  0.0980  0.2809 -0.2724
22518W        W65534  18.413   3.316  25.484 -0.2298  0.2686 -0.0782
22519W        W65535   3.207  23.994  29.221  0.1434  0.2379  0.2784
22520W        W65536   7.272   9.322   6.808 -0.0288 -0.0450  0.0671
22521W        W65537   1.073  23.052  21.081 -0.0418  0.1805  0.0456
22522W        W65538  11.003   6.661  27.953  0.0851  0.0534 -0.3205
22523W        W65539  17.801   7.592  24.245  0.0956  0.1218  0.0576
22524W        W65540  13.455  34.563  20.542 -0.3303  0.3372 -0.1145
22525W        W65541  20.474  34.693  24.640 -0.1666  0.3943  0.0677
22526W        W65542  34.111  32.034   0.894  0.2700 -0.1347 -0.0802
22527W        W65543   2.578  17.557   2.871  0.0894 -0.1367  0.1212
22528W        W65544  11.862   5.092  26.159 -0.2120  0.0278  0.1374
22529W        W65545   7.794  26.705  18.953 -0.3270  0.1219 -0.1635
22530W        W65546   4.185   5.399   7.237  0.2076 -0.1034 -0.0286
22531W        W65547  18.555   0.104  18.917  0.3441  0.0275 -0.3823
22532W        W65548   6.108   9.286  20.060  0.1264 -0.1935  0.1566
22533W        W65549  31.147  30.483  28.635 -0.1799  0.2591 -0.1372
22534W        W65550   7.699  32.440  27.722 -0.0726 -0.1461  0.0073
22535W        W65551   7.806  16.818  28.233 -0.1305 -0.0452 -0.2216
22536W        W65552  26.392  23.524  22.405  0.1803  0.0783 -0.0313
22537W        W65553  12.553  31.276  21.440 -0.2401 -0.2935  0.1534
22538W        W65554  23.554   8.986   8.998  0.1469 -0.2047  0.0359
22539W        W65555  32.328  29.622  24.762  0.0108 -0.0548  0.0627
22540W        W65556   2.668   0.960  22.045  0.1688 -0.0569 -0.0861
22541W        W65557   2.042  23.691  18.909  0.0135  0.1459  0.0102
22542W        W65558  10.344  27.348  20.567  0.0033 -0.1137  0.0703
22543W        W65559  15.100   9.118   8.814  0.2336 -0.4441  0.2688
22544W        W65560   5.575   5.475   2.397  0.0724 -0.0675 -0.0653
22545W        W65561  16.664   9.596  25.604 -0.1568  0.1535 -0.1193
22546W        W65562  31.674   3.163   2.031 -0.1929  0.1850 -0.0531
22547W        W65563  32.888   6.015  19.586 -0.0345  0.2204  0.2551
22548W        W65564   1.980  16.388  14.494  0.1742 -0.1079  0.1564
22549W        W65565   3.799   7.273   1.240 -0.1233 -0.1285  0.4530
22550W        W65566   9.277   4.589  14.536 -0.2454  0.1101  0.2161
22551W        W65567   4.570  31.949  19.162  0.2533 -0.1674 -0.1781
22552W        W65568   1.631  21.631   4.920 -0.1940  0.3288 -0.0667
22553W        W65569  20.861  24.638  22.059  0.0959 -0.0359  0.0767
22554W        W65570  11.759  10.534   9.108 -0.2403  0.1036  0.1832
22555W        W65571  31.638  34.148   1.222  0.1407  0.1911 -0.3365
22556W        W65572  28.991  31.127   3.934 -0.1561  0.0861  0.1443
22557W        W65573  32.778  32.169  24.344  0.1269 -0.0478 -0.2800
22558W        W65574   7.019  32.183  25.748 -0.3645  0.0112 -0.0886
22559W        W65575   1.877   2.341  27.693  0.1291  0.2539  0.0938
22560W        W65576   7.012   7.526   3.593 -0.2548  0.1367 -0.0270
22561W        W65577  25.577  15.358   8.896  0.0345 -0.1502 -0.2168
22562W        W65578  29.476   4.857  22.348 -0.1501 -0.0510 -0.0451
22563W        W65579  13.610   6.019  25.732 -0.1444 -0.0396 -0.1057
22564W        W65580   2.957  28.000  28.634 -0.2174 -0.2879 -0.1021
22565W        W65581  11.604   3.417  17.648 -0.2412  0.1152 -0.0578
22566W        W65582  31.987   2.042  15.146  0.0807  0.1767 -0.0520
22567W        W65583  25.945   6.100  27.596 -0.0425  0.2395  0.2191
22568W        W65584   3.747  26.364  21.119 -0.0989 -0.1401  0.2100
22569W        W65585   4.998  18.341   2.758 -0.2127  0.0074 -0.1411
22570W        W65586  11.667   4.411  22.000  0.1033 -0.0326 -0.0812
22571W        W65587  27.890   5.149  16.156  0.0562 -0.2589 -0.0952
22572W        W65588   2.519  15.434   0.966 -0.0316  0.1367 -0.2908
22573W        W65589  13.610  33.462  27.575 -0.3366  0.1953  0.1596
22574W        W65590   8.542  19.776  13.028 -0.0656 -0.1576  0.1523
22575W        W65591  11.274  20.833  23.931 -0.0002  0.0800 -0.0640
22576W        W65592  15.414  13.064  14.790 -0.1538  0.0111 -0.1349
22577W        W65593  22.101  18.971   5.129 -0.1821  0.0378 -0.0633
22578W        W65594   5.149  18.543   7.907  0.0756 -0.0437  0.0182
22579W        W65595  20.993  34.344  27.427  0.0238  0.1104  0.0683
22580W        W65596   2.846  13.702  15.959  0.1588  0.1745  0.3332
22581W        W65597   8.772  10.049  23.030 -0.2139  0.0903  0.0633
22582W        W65598  14.362   5.637   8.465  0.4580 -0.2176 -0.1408
22583W        W65599  17.970   3.332  22.129  0.1531  0.0723  0.0996
22584W        W65600   1.452  34.776  25.970 -0.0426 -0.2090  0.0483
22585W        W65601  30.366  22.285  27.102 -0.0577 -0.2372  0.0084
22586W        W65602   1.812  30.415  20.028  0.1090 -0.1671  0.1165
22587W        W65603   4.621   3.183   0.251  0.0530 -0.2341  0.3995
22588W        W65604   1.547   8.906   7.530  0.0473  0.1075 -0.2246
22589W        W65605   5.543  17.992  22.663 -0.1925  0.2177  0.0319
22590W        W65606   1.383   5.417   1.098 -0.0527 -0.2223  0.1266
22591W        W65607   1.836  11.493   2.728 -0.2278 -0.1913  0.2769
22592W        W65608   4.412  30.101  26.941  0.1346 -0.0803 -0.1003
22593W        W65609   1.760   7.303  29.264 -0.1718 -0.1197  0.2764
22594W        W65610   6.170  29.887   4.607 -0.2566  0.1156 -0.1771
22595W        W65611   2.258  19.104  16.878  0.1132 -0.1673  0.2956
22596W        W65612  33.224  14.704   8.094  0.2917 -0.1067  0.0551
22597W        W65613  26.015  32.994  21.529  0.1090 -0.1127  0.4257
22598W        W65614  22.577   2.288   3.967  0.0783 -0.0576  0.1122
22599W        W65615  15.168   2.337  21.616 -0.2091  0.2893 -0.3809
22600W        W65616   5.573   9.992  26.807 -0.3554 -0.1200 -0.1484
22601W        W65617  31.133  13.504  16.059 -0.0060 -0.0582  0.0493
22602W        W65618  12.494  18.794   3.100  0.0355  0.3699  0.3443
22603W        W65619  22.010  32.399   3.820 -0.2128 -0.0666 -0.1543
22604W        W65620  13.318  10.725   2.516 -0.0584 -0.0876  0.0667
22605W        W65621   1.351  34.553  28.882  0.2428 -0.0580 -0.0581
22606W        W65622  34.075  22.493   6.345  0.1921  0.1733  0.0948
22607W        W65623   0.574   3.873  19.256  0.2779  0.0485 -0.1079
22608W        W65624   0.005  32.025  27.813 -0.1087  0.0513 -0.2269
22609W        W65625  28.298   8.633  19.263 -0.3047 -0.4606  0.0469
22610W        W65626  14.919   3.739  21.328  0.2585 -0.1264 -0.2805
22611W        W65627  28.354  28.312  23.679 -0.0868 -0.2467 -0.1991
22612W        W65628  34.024  19.343  21.829  0.2352  0.2403  0.7032
22613W        W65629   1.427   7.641  23.143 -0.0560  0.1013 -0.0005
22614W        W65630   5.890   5.963  20.127  0.0624  0.1661 -0.0661
22615W        W65631   7.340  16.471  24.424 -0.0411  0.1071  0.1112
22616W        W65632  10.875  10.220  20.547  0.1367  0.2403 -0.1078
22617W        W65633  25.188   8.762  10.054  0.1356 -0.1365  0.2263
22618W        W65634   1.707  18.109  24.841 -0.3539 -0.0115 -0.2071
22619W        W65635  24.206  11.254  28.284 -0.2949  0.3147  0.0160
22620W        W65636   3.133   8.116   4.379 -0.1878 -0.4640  0.1871
22621W        W65637  31.929  22.121  26.846 -0.0643  0.1167  0.2504
22622W        W65638  26.750  18.943  14.928  0.1161  0.2978 -0.1696
22623W        W65639  21.550  24.719  27.624  0.0701 -0.0608  0.0917
22624W        W65640  33.957   6.656  14.544  0.0561 -0.0343 -0.1020
22625W        W65641   2.980   0.357  18.632 -0.1501  0.1345  0.2597
22626W        W65642  23.151  22.047   2.662  0.2309  0.1202  0.0368
22627W        W65643  15.414  10.180  15.203  0.0036 -0.0090  0.0754
22628W        W65644  14.554  11.013  24.034 -0.1849  0.0608  0.3035
22629W        W65645   8.075   3.403  21.959  0.0692  0.1538  0.1132
22630W        W65646  22.560   5.849   1.887 -0.1439 -0.3037  0.0025
22631W        W65647  30.190   7.104  21.142 -0.2284  0.0453 -0.5148
22632W        W65648  32.419  11.749  23.612  0.1126 -0.2288  0.1884
22633W        W65649   4.226  12.505  20.407 -0.1278 -0.2778 -0.1148
22634W        W65650   9.104  33.539  18.233  0.2651  0.2160 -0.1097
22635W        W65651   1.274   4.410  25.272 -0.4854  0.3630 -0.2429
22636W        W65652  18.398  34.569  20.120 -0.2750 -0.0485  0.0575
22637W        W65653  10.934  14.915  14.414 -0.2377  0.2875  0.0051
22638W        W65654  14.871  10.474   7.392  0.1521  0.1303  0.0735
22639W        W65655   5.961   1.121  24.356 -0.1533 -0.1527 -0.2539
22640W        W65656  13.264  30.044  29.178  0.1992 -0.1116  0.2681
22641W        W65657  17.536   3.379  22.794 -0.1916 -0.0079  0.0870
22642W        W65658  22.784  12.223  19.599  0.1395  0.2560  0.2977
22643W        W65659  32.546  32.440   7.342  0.1334  0.1532  0.2676
22644W        W65660   8.598  31.954  14.363 -0.2801 -0.2149  0.0718
22645W        W65661  14.964  31.513  23.538  0.0640 -0.2498  0.2614
22646W        W65662  10.439  27.459  19.534 -0.3280  0.1983 -0.0594
22647W        W65663  30.874  26.963  19.332  0.1507  0.0743 -0.0546
22648W        W65664  26.294  26.381  27.322 -0.2500 -0.1428  0.0946
22649W        W65665  26.221   2.396  16.056  0.1075 -0.2600 -0.3608
22650W        W65666   5.052   1.407   9.764  0.2506  0.1281  0.0999
22651W        W65667  20.540  30.476  27.379  0.4238 -0.2794 -0.1305
22652W        W65668  13.180  29.957  23.576  0.0458 -0.1452  0.0284
22653W        W65669  32.635  18.295   8.253 -0.0550 -0.1636 -0.2810
22654W        W65670   8.178   7.029   9.922 -0.0390 -0.1135 -0.0196
22655W        W65671   1.745  12.257   0.697  0.1833  0.2476 -0.0969
22656W        W65672   4.006  24.055  15.112  0.0457 -0.0013 -0.1124
22657W        W65673  26.405  34.600   0.189 -0.2226  0.5674  0.3243
22658W        W65674  27.534   6.024   2.990  0.2293  0.0285  0.1861
22659W        W65675  27.298  10.223  21.067 -0.3258 -0.0736  0.0904
22660W        W65676   3.103  20.306  19.250  0.2102  0.2661 -0.3626
22661W        W65677  33.937  33.485   0.790 -0.2291  0.0112  0.1798
22662W        W65678   0.730  32.440  20.363 -0.2661  0.0868 -0.1246
22663W        W65679   1.893  31.923   7.914  0.0588  0.1718 -0.1278
22664W        W65680  28.589  15.096  16.660  0.0989  0.4269  0.0968
22665W        W65681   8.726  24.316  13.834  0.0050 -0.2370  0.2290
22666W        W65682   7.190  27.576  15.146 -0.0366  0.0589  0.1627
22667W        W65683  14.675   7.252  13.630 -0.0482 -0.1192  0.1681
22668W        W65684   3.026   2.706   0.562 -0.0225 -0.1533 -0.1559
22669W        W65685  24.210  12.217  29.279  0.2658  0.1186  0.0115
22670W        W65686  30.324   7.813  15.908 -0.0570  0.0707 -0.2308
22671W        W65687  18.949   4.220  29.079  0.1286  0.0972 -0.2007
22672W        W65688   6.763   3.110  23.753  0.2567  0.3459 -0.3207
22673W        W65689  27.591   3.175  22.661  0.1580  0.3696  0.2213
22674W        W65690  31.175   3.445  23.823 -0.0139 -0.1587  0.1816
22675W        W65691  28.774   6.783  22.330 -0.3009  0.0281 -0.0355
22676W        W65692   2.323   4.849  21.069  0.1764 -0.0422 -0.1303
22677W        W65693   5.487  14.726  27.048 -0.1038 -0.3600 -0.1958
22678W        W65694  22.472   2.070   1.775  0.0829 -0.1653  0.1138
22679W        W65695  15.165  11.810  19.412  0.4475 -0.1114 -0.1276
22680W        W65696  21.478  19.353  29.180  0.3674  0.0981 -0.1465
22681W        W65697   1.067  12.166  24.490  0.0540  0.0691  0.2099
22682W        W65698  32.894  13.489  25.024  0.3018  0.1786 -0.2317
22683W        W65699  15.251  28.775   3.991 -0.0884 -0.0579  0.0876
22684W        W65700   8.517  34.232  22.677  0.1572 -0.2562  0.1788
22685W        W65701  20.696   8.242   9.367  0.1547  0.0854 -0.2350
22686W        W65702  28.976  29.701  27.144  0.2021 -0.2115 -0.0543
22687W        W65703   9.941  32.663  25.461 -0.0737  0.1360  0.3234
22688W        W65704  13.987  32.448  22.153  0.2771  0.0525  0.1051
22689W        W65705   0.713   2.653  23.586  0.1786  0.1099  0.2600
22690W        W65706   7.196   2.761  21.295 -0.3192  0.0119  0.3900
22691W        W65707   3.916  22.334  17.158 -0.0465 -0.2488  0.0866
22692W        W65708  18.849  12.658  19.640 -0.1886 -0.2441 -0.1524
22693W        W65709   7.374  22.045  20.806  0.3337 -0.2279  0.1146
22694W        W65710   0.406   4.277   9.465  0.2554  0.1721 -0.0584
22695W        W65711  21.364  28.711  26.085 -0.2879  0.0645  0.0591
22696W        W65712  13.778   8.660   3.831  0.3927 -0.0680  0.0696
22697W        W65713  33.299  24.656  18.209 -0.0794  0.2113 -0.1966
22698W        W65714  19.257  10.344  26.302  0.1385 -0.3184  0.2336
22699W        W65715   1.941  30.193  27.352  0.2774  0.2962 -0.0148
22700W        W65716  31.852   5.708  22.515  0.1556 -0.1503 -0.1870
22701W        W65717  28.513  10.231   0.126 -0.0839  0.1989  0.0468
22702W        W65718  32.883  11.246   4.837  0.1120  0.2353  0.3504
22703W        W65719  33.284   5.311  27.202 -0.2841  0.1462  0.4837
22704W        W65720  34.499   5.451  29.034  0.4725  0.2383  0.2018
22705W        W65721  26.785  10.699  25.721  0.3913 -0.0686  0.1793
22706W        W65722  34.330   7.038   2.997 -0.0991  0.2844 -0.0454
22707W        W65723   7.285  29.471  16.176 -0.0943 -0.3020  0.0201
22708W        W65724   7.509  24.354   5.382 -0.2146  0.2371 -0.0408
22709W        W65725   1.089   8.347  14.447 -0.1018 -0.1168  0.1025
22710W        W65726  13.344   4.958   7.764 -0.3961 -0.0567  0.2453
22711W        W65727   3.355   1.844  25.094  0.2865  0.1471  0.1311
22712W        W65728  33.997  11.287   6.562 -0.0681 -0.1278 -0.0406
22713W        W65729  34.413  24.881  22.675  0.0657  0.1763 -0.3453
22714W        W65730  25.335  29.568   5.069 -0.0518 -0.4355 -0.0333
22715W        W65731   5.693   3.069  23.694  0.0494 -0.2090 -0.1683
22716W        W65732  10.530   7.954  29.014 -0.2621  0.0819 -0.0754
22717W        W65733  10.267  34.724   5.745 -0.2658 -0.0576  0.2890
22718W        W65734  31.191   3.519  18.948  0.0628 -0.1846  0.1542
22719W        W65735   9.675  34.641   0.089 -0.1523 -0.0149  0.3770
22720W        W65736   4.769   6.127  16.735  0.3143  0.3173  0.1035
22721W        W65737  27.597  10.803  20.434 -0.1434 -0.1465  0.2233
22722W        W65738  33.401  32.501  21.745 -0.1064 -0.2325  0.3371
22723W        W65739   9.550  18.666  26.096 -0.2116  0.1358  0.3129
22724W        W65740   2.119  31.563  17.280  0.1754  0.1077 -0.1478
22725W        W65741   9.474   4.778   3.556 -0.1556  0.0121 -0.2276
22726W        W65742  28.365  30.548   0.769  0.3133  0.0063  0.0113
22727W        W65743   5.495  23.333  20.705  0.2807 -0.1346 -0.1775
22728W        W65744  13.094  31.509   3.425 -0.0784  0.1120 -0.2221
22729W        W65745   7.941  16.332   7.401 -0.4999  0.0257  0.0760
22730W        W65746   9.464  25.876  23.997 -0.1012 -0.0326 -0.0573
22731W        W65747  17.856  24.889   1.379 -0.0082 -0.1994 -0.0137
22732W        W65748   6.817   8.350  27.613 -0.0280  0.0226  0.0453
22733W        W65749  11.617  12.904  24.400  0.2852 -0.4209  0.0270
22734W        W65750   2.278   4.698   1.115  0.0507  0.0997 -0.0986
22735W        W65751  21.396  11.970  18.019 -0.1771 -0.0623  0.0156
22736W        W65752   9.569   6.907  25.351  0.1437  0.0908 -0.4525
22737W        W65753   3.727   5.739  27.110  0.2095 -0.0821 -0.1696
22738W        W65754  12.509  30.735  22.208  0.0847 -0.0823 -0.0559
22739W        W65755   4.821  29.795  14.140 -0.1390 -0.3274  0.1931
22740W        W65756  14.874  29.811   5.746  0.2158 -0.0101 -0.2060
22741W        W65757   5.709  17.727   0.534  0.1484  0.2014  0.3876
22742W        W65758  10.548   7.821  27.523 -0.6064 -0.1499  0.0898
22743W        W65759  11.140  33.665  24.915  0.0711  0.2352  0.0122
22744W        W65760  12.103  13.908  23.769 -0.0470  0.0419  0.1130
22745W        W65761   1.855   6.985  24.642 -0.1822 -0.2931 -0.3645
22746W        W65762   2.653   4.961  26.252 -0.0740 -0.1276 -0.0245
22747W        W65763   9.407  28.662  21.263  0.4089  0.2012 -0.1742
22748W        W65764   3.606   6.162  21.365 -0.1641  0.1821  0.0443
22749W        W65765  32.237   1.058  18.377  0.0854 -0.1476  0.0337
22750W        W65766  11.488  30.900  17.731  0.0264  0.2357 -0.0215
22751W        W65767  28.529  33.194   3.202 -0.0428  0.1710  0.1471
22752W        W65768  20.319  25.531  28.706 -0.1524 -0.2407  0.1160
22753W        W65769  12.404   8.800  23.953 -0.0640 -0.0222 -0.0644
22754W        W65770  13.450   6.651  24.601  0.0662 -0.1061  0.0306
22755W        W65771  22.726   6.061  22.405 -0.0308  0.0750  0.0872
22756W        W65772  31.656   4.127  26.798  0.1791 -0.2571  0.3696
22757W        W65773  18.128  30.831   0.513  0.1247 -0.1816  0.3046
22758W        W65774  22.942  10.625  16.903  0.0552 -0.0898  0.0310
22759W        W65775   6.411   7.780  16.309  0.2290 -0.1334 -0.2063
22760W        W65776  17.397   3.678   3.880  0.1232 -0.2363 -0.3020
22761W        W65777  12.389   9.416  15.974 -0.0146 -0.2134 -0.0738
22762W        W65778  19.953  11.696   2.349  0.0038 -0.5030  0.1809
22763W        W65779  19.591   3.888  18.350  0.0022 -0.0643  0.1489
22764W        W65780  19.590   3.449  13.911  0.1880 -0.1163  0.2793
22765W        W65781   4.552  12.402  27.126  0.0473  0.1233 -0.1424
22766W        W65782  16.865  34.449  20.040  0.2721  0.0244 -0.2417
22767W        W65783   1.101  34.545  26.492 -0.0692  0.0397 -0.0287
22768W        W65784  10.827  17.758   3.734  0.0989  0.0064 -0.2320
22769W        W65785  29.350   1.876   4.659 -0.0278  0.2725  0.0026
22770W        W65786  17.238  12.364  14.129 -0.0996  0.0606  0.3611
22771W        W65787  32.335  16.232  17.916 -0.2673  0.0867  0.0295
22772W        W65788  20.115   6.265  28.777 -0.0994  0.0313  0.3214
22773W        W65789   6.208  29.483  25.795  0.1372  0.1844  0.1176
22774W        W65790  17.931   9.094  23.988 -0.0857  0.0858  0.1548
22775W        W65791   2.174   2.355  26.578  0.0703  0.0156  0.1566
22776W        W65792  30.532   5.960  17.093  0.0407 -0.2356 -0.2242
22777W        W65793   2.119   5.321  17.534 -0.0847 -0.0192  0.3195
22778W        W65794   7.860  10.011  23.102  0.0927 -0.0661 -0.1294
22779W        W65795   6.840  34.758   0.833 -0.1038  0.0946  0.0440
22780W        W65796  10.704  28.388   1.457  0.2309 -0.0170 -0.1396
22781W        W65797  17.590  12.435  16.112  0.0379 -0.4562 -0.2495
22782W        W65798  27.977  33.011  18.883  0.2341  0.1824  0.1627
22783W        W65799   0.360  13.690  17.401  0.3470 -0.1093  0.3796
22784W        W65800  33.445  18.744   6.792 -0.1870  0.0003 -0.2516
22785W        W65801  26.766  30.731  18.464  0.2279 -0.4364 -0.0487
22786W        W65802   8.263   7.265   9.102 -0.3900 -0.1872 -0.0908
22787W        W65803  20.526   1.962  16.307  0.2634  0.1015 -0.1466
22788W        W65804  30.339  11.716   5.465 -0.1653 -0.2283  0.0836
22789W        W65805   4.474  31.203   3.020 -0.1680 -0.1247  0.1092
22790W        W65806  26.513  26.410   3.984 -0.0051 -0.1211 -0.2612
22791W        W65807  15.371   6.978   1.697  0.0484  0.0939  0.0211
22792W        W65808  16.875  26.639  23.375  0.1245 -0.1935  0.0096
22793W        W65809   7.253  28.066  27.914 -0.1109 -0.3536 -0.3015
22794W        W65810  10.510   5.794  24.211  0.3852  0.1675  0.0023
22795W        W65811   0.901  22.389  13.938 -0.0526  0.0206  0.2271
22796W        W65812   4.512   3.417  27.482  0.1865 -0.2769 -0.0624
22797W        W65813   0.221   4.774  23.469  0.1923 -0.3769  0.0610
22798W        W65814   9.425  27.417   0.878  0.1251  0.0848  0.0279
22799W        W65815   1.059  13.167   4.036 -0.0993  0.0646 -0.2178
22800W        W65816  21.559   7.426   1.447 -0.1296 -0.3709  0.0928
22801W        W65817  13.058   6.367   4.014  0.2595 -0.1262  0.0595
22802W        W65818  20.172  31.940  27.963  0.1138 -0.3441  0.0618
22803W        W65819   0.521  22.143  17.798  0.0589 -0.1758 -0.2194
22804W        W65820   2.641   6.290  16.094  0.3121  0.0488 -0.3178
22805W        W65821  12.422  26.613   0.082  0.0468  0.0310 -0.0397
22806W        W65822   4.012   4.617  19.384 -0.2935  0.1039  0.1089
22807W        W65823  14.457  34.222  21.039  0.0002 -0.1251  0.2789
22808W        W65824  18.315   8.539  19.945  0.1399  0.3142  0.1387
22809W        W65825  14.265  13.158   2.771 -0.0532  0.3027  0.2453
22810W        W65826   2.926  25.037   1.021 -0.0626  0.1659  0.0824
22811W        W65827   6.884  31.932   0.869  0.3747  0.1771 -0.1143
22812W        W65828   4.008   7.102  17.446 -0.0308  0.1877 -0.0505
22813W        W65829  16.723  31.050  15.668  0.2714  0.2169 -0.3325
22814W        W65830  27.876  27.546  16.116  0.0711 -0.1679  0.1006
22815W        W65831  31.432   4.855  18.716  0.0498  0.0313 -0.2820
22816W        W65832  17.829   9.009   7.168 -0.0502 -0.0998 -0.1557
22817W        W65833   4.418  23.299   3.854  0.1587  0.1441 -0.1450
22818W        W65834   6.261  28.362   3.153 -0.0677  0.0000  0.0435
22819W        W65835  15.103   8.648   3.213 -0.2985 -0.1747 -0.2238
22820W        W65836  24.034  34.003  22.840  0.0105  0.1815  0.1720
22821W        W65837   0.030  32.058  20.018  0.1933 -0.1070 -0.0870
22822W        W65838   2.207   1.945   7.835  0.0585  0.2313 -0.1654
22823W        W65839  23.929   7.623  22.226  0.0248 -0.0080  0.0015
22824W        W65840  31.368  10.770  29.191 -0.0006 -0.0475  0.3262
22825W        W65841   4.669  26.326  21.394 -0.2266 -0.1597 -0.2283
22826W        W65842  10.628  10.099   3.481 -0.2201 -0.1423  0.2237
22827W        W65843   9.776   7.765  23.047  0.2017  0.0590 -0.1933
22828W        W65844  30.248  19.925  10.134  0.1139  0.0758  0.1051
22829W        W65845   4.523   9.292  24.459  0.0234  0.2135 -0.1288
22830W        W65846   6.096  33.975  28.742 -0.1662 -0.1701  0.0950
22831W        W65847  17.515   4.529   2.272  0.0470  0.1446 -0.1212
22832W        W65848   8.408  34.179  24.979 -0.1069  0.1040 -0.2924
22833W        W65849  12.132  10.053  14.005  0.1261  0.0596  0.2494
22834W        W65850   4.609  15.479  25.521 -0.2654 -0.1605 -0.0861
22835W        W65851   9.028  29.646  14.685 -0.1224 -0.3017 -0.1438
22836W        W65852  32.489   6.746   6.948 -0.1442  0.1036 -0.0022
22837W        W65853  21.651   6.117   5.687  0.0624  0.2366  0.1531
22838W        W65854  18.952  27.705   2.126  0.2186 -0.0434 -0.2465
22839W        W65855  23.629  17.393  18.992 -0.0916 -0.0057  0.0736
22840W        W65856  16.040   6.572  24.349  0.0896  0.0130  0.0671
22841W        W65857  25.785  34.678  19.815  0.0530  0.0235  0.0427
22842W        W65858  26.741   0.288  19.441  0.3020 -0.3394 -0.0826
22843W        W65859   6.124   8.794   9.806 -0.1596 -0.2147 -0.2221
22844W        W65860   6.061  21.513  24.254 -0.0212 -0.1583  0.2630
22845W        W65861  26.641   9.017  14.781 -0.0873  0.0061  0.2530
22846W        W65862   6.097  11.243  15.797 -0.4056  0.1393  0.1569
22847W        W65863  11.719   7.441   0.402  0.0085 -0.1438 -0.1046
22848W        W65864  17.072  33.481  18.342  0.0303 -0.4427 -0.3087
22849W        W65865  12.508  11.233  28.155  0.0342 -0.4741  0.2740
22850W        W65866  30.935  10.666  27.244 -0.2489 -0.2455  0.1181
22851W        W65867  28.493  15.288  21.870 -0.1701 -0.0657  0.1458
22852W        W65868  26.468   2.696   2.059 -0.0046  0.0258  0.1041
22853W        W65869   7.223  11.895   2.961 -0.0811 -0.0801 -0.0427
22854W        W65870  24.956   6.728   0.920  0.1452 -0.2953  0.0785
22855W        W65871  10.014  21.362  12.754 -0.1835 -0.2792  0.0667
22856W        W65872  24.507   7.852  21.841  0.0745 -0.2842  0.2458
22857W        W65873  11.402  19.467  27.683  0.1540 -0.0987 -0.1128
22858W        W65874   4.113   4.817  24.386 -0.0141  0.3643 -0.4382
22859W        W65875  34.678   1.920  27.327  0.1585 -0.1602 -0.2087
22860W        W65876  24.449  28.869  23.579  0.0421 -0.3207  0.3746
22861W        W65877  28.675  30.820  28.017  0.2283 -0.1390 -0.2449
22862W        W65878  20.311   0.507  18.882  0.0094  0.0623  0.0450
22863W        W65879  20.059  11.815  19.786 -0.2125 -0.0650  0.0738
22864W        W65880   9.609  27.260   2.724 -0.2121 -0.2909 -0.0855
22865W        W65881  27.869  18.988  25.946 -0.0807 -0.1739 -0.3458
22866W        W65882  23.444   5.853  15.348  0.0214 -0.1829  0.2856
22867W        W65883  11.415  11.473  26.295  0.0448 -0.0742 -0.0346
22868W        W65884   3.999   1.584  16.358  0.1135  0.0874  0.0386
22869W        W65885  33.304   4.009  24.495  0.0862  0.1786 -0.0366
22870W        W65886  27.618   5.360  20.471  0.2833  0.2566  0.2082
22871W        W65887   7.857  27.669  16.040 -0.1312  0.1537 -0.0226
22872W        W65888  11.357  33.164   1.879  0.2041  0.1448 -0.1793
22873W        W65889   8.179  34.351  25.402 -0.0038  0.3927  0.1252
22874W        W65890   1.897   8.979  27.125 -0.3228  0.0965 -0.0518
22875W        W65891  30.724  32.870   8.019  0.0270 -0.2562 -0.2321
22876W        W65892  10.111   1.906  15.419 -0.0978 -0.1018  0.1525
22877W        W65893   5.868  29.470   2.170 -0.0789  0.5775  0.2354
22878W        W65894   3.419  11.735  21.242 -0.2355 -0.1724  0.0525
22879W        W65895   9.616   6.513  25.659  0.3227 -0.2027 -0.0337
22880W        W65896   1.409  20.400  27.652  0.1467  0.0795  0.4536
22881W        W65897  31.997   5.476  10.640 -0.1082  0.1365 -0.2374
22882W        W65898   6.977  10.612  25.407  0.0571  0.0181 -0.1523
22883W        W65899  24.434   2.156  28.757  0.1691 -0.1971 -0.0966
22884W        W65900   4.533   5.968  20.520  0.0392  0.2177 -0.2768
22885W        W65901   5.747  12.466  15.955 -0.2616  0.4814  0.0469
22886W        W65902  31.762   3.895  20.235  0.0130  0.0842  0.0774
22887W        W65903   9.437  10.073  24.528 -0.1542 -0.1522  0.2454
22888W        W65904  15.683   9.460   3.098 -0.0950  0.2830  0.2244
22889W        W65905   1.919   3.090   6.839 -0.1113 -0.0605 -0.1559
22890W        W65906  28.095  16.636   3.764  0.3152  0.4440  0.2784
22891W        W65907  12.792  28.504  25.260  0.0478 -0.0101 -0.1866
22892W        W65908   0.554  12.860  18.470  0.2580  0.0807  0.2228
22893W        W65909   2.927   8.274   3.475  0.0925 -0.2667 -0.0392
22894W        W65910  19.086   9.173   2.026 -0.1287  0.3225  0.2302
22895W        W65911   1.609   2.735  17.451 -0.0341 -0.1030 -0.1152
22896W        W65912  16.663   6.622  21.207 -0.1562  0.0787  0.0747
22897W        W65913  33.629  24.432  28.003 -0.2385 -0.0135 -0.2029
22898W        W65914   1.676  30.962   0.299  0.0893 -0.0104 -0.4156
22899W        W65915  33.782   7.815  16.966 -0.0715  0.4223  0.1226
22900W        W65916   4.855   8.790   4.540  0.0874  0.1466 -0.1228
22901W        W65917   1.904  23.236  21.774  0.2082 -0.0925 -0.1179
22902W        W65918  11.891  34.506   9.984 -0.0909  0.0704  0.1814
22903W        W65919   2.629  16.061   6.497 -0.1762 -0.2259 -0.0191
22904W        W65920   8.824   4.153  21.226 -0.1217  0.0702 -0.0324
22905W        W65921   5.317  22.304  13.800 -0.1936  0.1552  0.2367
22906W        W65922  20.778  28.938  21.540 -0.3808 -0.3158 -0.2540
22907W        W65923   1.387  21.200  19.497  0.1453  0.2402 -0.1366
22908W        W65924  25.718  23.822  15.967  0.2117 -0.1605 -0.1075
22909W        W65925  11.114   6.343   9.139  0.0125 -0.3851 -0.0032
22910W        W65926  28.900  29.222   9.520  0.2774 -0.4028  0.0876
22911W        W65927   6.273  29.879  23.772  0.0821  0.0128 -0.2989
22912W        W65928   4.363   9.966  18.458 -0.0402 -0.0712  0.1367
22913W        W65929  33.152   3.920   7.749 -0.4382 -0.2978  0.0290
22914W        W65930  17.879   0.409  20.614 -0.2622 -0.1167 -0.1579
22915W        W65931  30.998   5.205   3.638 -0.1411  0.0899  0.0290
22916W        W65932   4.347   0.710  23.242 -0.0165 -0.2479 -0.1848
22917W        W65933   7.640  15.244   2.946  0.1263  0.0527  0.0253
22918W        W65934  30.496  14.053  19.931 -0.2187 -0.2892 -0.0041
22919W        W65935  17.019   3.552  29.142  0.1912  0.0939 -0.0100
22920W        W65936  29.256   7.496   8.668  0.1866  0.3765 -0.0277
22921W        W65937  17.302  20.262   2.836  0.0750 -0.0112 -0.1511
22922W        W65938   4.646  15.049  28.430  0.0130  0.2571 -0.3241
22923W        W65939   3.191  20.645  20.770  0.2642 -0.0331 -0.0936
22924W        W65940  12.772  18.787   7.944 -0.4612  0.2897 -0.3083
22925W        W65941  10.006  25.537  20.380  0.2977  0.0865  0.2961
22926W        W65942  23.410  23.407  27.406  0.1965 -0.1713 -0.0795
22927W        W65943  13.363  11.752  23.468  0.1795  0.1366 -0.1916
22928W        W65944  22.355   9.049  27.748  0.1212 -0.6849 -0.0049
22929W        W65945  11.133   6.242  22.498 -0.0917 -0.2691  0.0062
22930W        W65946  31.770   6.494   4.386 -0.0453 -0.3045  0.1286
22931W        W65947  34.431  31.612   2.184  0.2272 -0.0520 -0.1076
22932W        W65948  32.555  27.180  21.837  0.0013 -0.0532  0.2569
22933W        W65949   6.192   6.011   4.519 -0.0054 -0.3674  0.0385
22934W        W65950  14.522  12.333   1.037  0.2398  0.2182  0.2701
22935W        W65951  18.972  17.115   4.995 -0.0535 -0.0038 -0.1474
22936W        W65952  31.692  10.150   1.518  0.0727  0.0462  0.0527
22937W        W65953   9.533   4.413   4.395  0.1255 -0.0909  0.2452
22938W        W65954  24.295  34.400   8.205 -0.1392 -0.0350  0.3784
22939W        W65955  28.325  24.624   8.669 -0.6157 -0.3192  0.0589
22940W        W65956   2.462   0.031   1.422  0.1317 -0.0352  0.0577
22941W        W65957  16.889   1.091  19.229 -0.2077 -0.1186 -0.1258
22942W        W65958   8.002   5.896  10.397 -0.0300  0.0866  0.2273
22943W        W65959   4.180  32.339  18.123  0.1501  0.4288 -0.1044
22944W        W65960   0.068  27.486  21.955  0.0351  0.1796  0.1751
22945W        W65961  28.970   2.999   3.153  0.2935 -0.1079 -0.0257
22946W        W65962  14.703   4.562   3.491  0.0310 -0.0793  0.2071
22947W        W65963  32.792  29.387  27.272 -0.1706  0.0197 -0.1503
22948W        W65964  25.152  23.232  17.559 -0.1252 -0.2413 -0.2110
22949W        W65965  10.166  14.282  26.365  0.0391 -0.0650  0.1169
22950W        W65966  13.245  11.142   7.056  0.3254 -0.0269 -0.3448
22951W        W65967   6.616  31.448   7.393 -0.5459 -0.0726  0.0399
22952W        W65968  15.443   5.601  24.036 -0.0579 -0.2772  0.0242
22953W        W65969   3.159  26.974  25.148  0.1866 -0.1087  0.1239
22954W        W65970   0.529   4.454   4.085  0.2752  0.0286 -0.1373
22955W        W65971   7.985  27.973   9.361  0.4424  0.0499  0.0201
22956W        W65972  25.149   7.448  22.529  0.2373 -0.0702 -0.0664
22957W        W65973   2.849   2.255  14.209  0.0486  0.0265  0.1191
22958W        W65974  20.450  14.455   6.796  0.2633  0.1357 -0.0625
22959W        W65975  14.916  18.745  14.874  0.3808  0.2557  0.1580
22960W        W65976  13.719  14.661  20.450  0.1678 -0.2841  0.0139
22961W        W65977  34.330   8.370  28.484 -0.0932  0.0942  0.0099
22962W        W65978  13.866  13.083   1.499 -0.0009  0.2492  0.0724
22963W        W65979  10.772  34.591  22.590  0.0089  0.2056  0.2092
22964W        W65980   4.077   6.219   5.141 -0.2558 -0.2066 -0.0805
22965W        W65981   7.521  31.440  24.228  0.3364  0.0237  0.1224
22966W        W65982  22.925   6.831  29.114  0.1808  0.2316 -0.2458
22967W        W65983  28.229  30.394  23.560  0.2956  0.0303 -0.2273
22968W        W65984   3.893  31.082  24.032  0.1396 -0.1985  0.2461
22969W        W65985   2.217  20.667  27.767 -0.1678 -0.5713 -0.0382
22970W        W65986  15.924   5.188  19.678 -0.1722 -0.0446  0.2092
22971W        W65987   5.184   8.337   9.894  0.0586 -0.0057 -0.2837
22972W        W65988  20.529  22.228  18.849  0.0780  0.1453 -0.0122
22973W        W65989   2.155  14.503  27.817  0.1118 -0.2932  0.1937
22974W        W65990  15.726  25.589   1.283 -0.2882 -0.1046 -0.1918
22975W        W65991  27.419   9.947   0.043 -0.2133  0.3224  0.1690
22976W        W65992   9.741   1.821   5.405 -0.5078  0.1019 -0.2170
22977W        W65993  13.863  32.834  16.934 -0.0999  0.3715 -0.0074
22978W        W65994  30.500  33.460   9.563  0.0808  0.4107  0.0396
22979W        W65995  22.305   3.864  22.560 -0.1222 -0.0069  0.4249
22980W        W65996  16.650  16.395  11.527 -0.2178 -0.4867  0.1424
22981W        W65997  23.765  30.918  10.451  0.3212 -0.1164 -0.1239
22982W        W65998   6.659  25.535  16.831 -0.2444 -0.0212 -0.0252
22983W        W65999  29.094  22.296  15.613  0.0035  0.2092  0.2561
22984W        W66000  29.862   3.359  14.797  0.2052 -0.0752 -0.2339
22985W        W66001   8.229  27.987  25.917  0.1782 -0.4412 -0.1120
22986W        W66002   3.298   9.210   6.009  0.0015  0.1429 -0.0134
22987W        W66003   2.351  16.080  27.594  0.1111 -0.1669  0.0260
22988W        W66004   0.483  23.604  18.153 -0.0893 -0.0361 -0.3530
22989W        W66005  30.069  13.178   1.973 -0.0238  0.0083 -0.0089
22990W        W66006  31.783   2.267   8.131  0.0076 -0.0112  0.2398
22991W        W66007  10.620   8.150  22.339  0.0686 -0.0276  0.1636
22992W        W66008  14.322  21.462   7.409 -0.0097 -0.2496  0.1297
22993W        W66009   4.633  29.991  24.219  0.0144  0.0318  0.1176
22994W        W66010  15.175  32.531   2.234 -0.0170  0.1529  0.0511
22995W        W66011  32.482  23.271   1.660 -0.3275 -0.4684 -0.1922
22996W        W66012   2.974  27.811  25.152 -0.4415  0.1359 -0.1499
22997W        W66013   3.485   2.456  28.011 -0.2806 -0.0700  0.1378
22998W        W66014  10.302  24.233  18.842  0.0500  0.1042 -0.1627
22999W        W66015  19.389   8.397   7.543  0.1741 -0.1598 -0.2754
23000W        W66016   3.810   8.247  15.153  0.1139  0.4722  0.1622
23001W        W66017  14.948  31.184  28.625 -0.1321 -0.3990 -0.0421
23002W        W66018  17.543   0.339   3.410  0.2419  0.0179 -0.1075
23003W        W66019  33.798  34.202  25.756  0.1744 -0.0177 -0.2110
23004W        W66020   5.330   3.016  16.511  0.1952 -0.0897 -0.4016
23005W        W66021   4.657   6.779  22.980 -0.0725  0.1728 -0.0112
23006W        W66022   9.311   5.168   4.783  0.0237  0.2613  0.0657
23007W        W66023   1.826  12.944  27.399  0.3425  0.1037 -0.2452
23008W        W66024  15.182   8.069  16.434 -0.0077 -0.1330  0.0675
23009W        W66025  19.618  16.859   8.371  0.2094 -0.2506  0.0964
23010W        W66026  14.378  24.803  17.210 -0.1689 -0.0362  0.0295
23011W        W66027  16.984  30.698   8.555 -0.0603  0.4216 -0.4245
23012W        W66028  17.820   8.078   3.092  0.0842  0.0394  0.2099
23013W        W66029  15.735  14.200  28.757 -0.2339  0.2134  0.1748
23014W        W66030   1.161   8.385  27.767 -0.1420 -0.2373 -0.1770
23015W        W66031  15.511  12.748  22.156 -0.0767 -0.1462 -0.2112
23016W        W66032  34.094  25.037  26.633 -0.1016 -0.0233  0.0301
23017W        W66033   9.792  20.004  25.451 -0.3279 -0.0985 -0.3290
23018W        W66034   8.857  18.767  21.463 -0.1944  0.1486 -0.0725
23019W        W66035   2.893   6.183  24.872  0.2056 -0.1880  0.0314
23020W        W66036   2.410   7.983  20.563 -0.1043 -0.1373 -0.2426
23021W        W66037   0.162  32.358   1.543  0.0242 -0.0514  0.2068
23022W        W66038   1.275   2.829  15.031 -0.2685  0.0372  0.0675
23023W        W66039   7.290  18.946   0.826 -0.0269  0.0751 -0.2979
23024W        W66040  15.305   3.779   8.675 -0.0450 -0.2108  0.0343
23025W        W66041  15.732  28.504  22.102  0.0195 -0.0698  0.2581
23026W        W66042  10.125   4.151  22.857  0.3040  0.3319 -0.2792
23027W        W66043   5.578  12.395  20.710 -0.0264  0.0861  0.3870
23028W        W66044  21.405   2.273   0.423  0.2301 -0.1581  0.2548
23029W        W66045  32.229  24.216  20.876 -0.0481  0.0453  0.0537
23030W        W66046  12.977   2.847  16.751 -0.0876 -0.0172 -0.2381
23031W        W66047  22.218  12.107  23.477  0.2885  0.3705  0.0777
23032W        W66048   2.362   7.857   4.891 -0.0137 -0.1942 -0.1473
23033W        W66049   8.311  10.984  25.404 -0.1526  0.0870  0.3255
23034W        W66050  31.843   6.661   7.281 -0.2048  0.2416 -0.1576
23035W        W66051   9.769  19.336  26.366 -0.0375 -0.1915 -0.0932
23036W        W66052   7.129  31.426  28.600 -0.0598 -0.0026  0.0008
23037W        W66053  20.452  22.188  15.928 -0.0664  0.0145  0.1763
23038W        W66054  24.127   9.420  29.086  0.1059 -0.0371 -0.0122
23039W        W66055  16.788  26.943  17.596 -0.1682 -0.0385  0.0812
23040W        W66056  24.705  29.864   2.454 -0.0849  0.2261  0.1153
23041W        W66057  24.395  13.536   0.377 -0.1057 -0.1013 -0.0915
23042W        W66058   0.760   7.853  15.940  0.2166 -0.1035  0.0968
23043W        W66059  14.039   2.485   5.284  0.3937  0.1927 -0.1334
23044W        W66060   9.684  25.344  26.404  0.1058  0.0119  0.0854
23045W        W66061   6.349   1.810  16.356 -0.1895 -0.1790 -0.1013
23046W        W66062   6.730  26.531  16.697 -0.0000 -0.0214  0.1719
23047W        W66063   3.603  24.518   6.931 -0.2288 -0.1119 -0.0327
23048W        W66064   7.409  18.346  16.144  0.0157 -0.3587  0.0110
23049W        W66065  12.613  12.668  22.952 -0.2011  0.1011 -0.1335
23050W        W66066  34.382   5.787  19.543  0.0380 -0.1773 -0.2879
23051W        W66067  15.621   2.145   3.301  0.1499  0.0375  0.2838
23052W        W66068  29.409  33.231  10.675 -0.1094  0.1989  0.2884
23053W        W66069   9.745   5.865   5.484  0.1184  0.0442 -0.1715
23054W        W66070   8.521  13.203  28.678  0.1634 -0.1174 -0.1022
23055W        W66071   2.926   4.836   4.446 -0.0848 -0.3361  0.1829
23056W        W66072  13.606  19.236  28.613 -0.1174  0.5649 -0.2216
23057W        W66073   4.206  29.373   2.276  0.4019 -0.0440  0.1211
23058W        W66074  19.152  32.756   5.355 -0.0118  0.0197  0.0112
23059W        W66075  28.946  32.525   4.772 -0.0270 -0.0849 -0.1575
23060W        W66076  26.974   1.186   5.334 -0.2213 -0.1148 -0.1530
23061W        W66077  15.844   0.740  25.494 -0.1459 -0.3523  0.0335
23062W        W66078   6.835   8.538   7.092 -0.2957 -0.0548  0.1038
23063W        W66079  24.615  10.679   8.521  0.2568 -0.2561 -0.0331
23064W        W66080  33.452  25.978   4.970  0.0767  0.0569  0.1786
23065W        W66081  33.675  13.245  24.336 -0.0304 -0.1642  0.0010
23066W        W66082  31.393  12.719   5.236  0.1916  0.3240  0.0271
23067W        W66083   5.077  12.199  13.434 -0.1409  0.1845 -0.2440
23068W        W66084  33.872  26.771  20.376  0.0933 -0.1828  0.0384
23069W        W66085  12.560  13.863  27.625 -0.0829 -0.1700  0.0251
23070W        W66086   9.534  23.288  26.601  0.0424 -0.1446 -0.1465
23071W        W66087   0.864   7.290   0.521  0.0155  0.1390 -0.2116
23072W        W66088  27.354   4.324  16.585 -0.4231  0.0180 -0.0123
23073W        W66089  24.961  15.238   5.540 -0.0690  0.1258  0.0231
23074W        W66090  27.554   9.293   3.570 -0.1017  0.2116  0.1823
23075W        W66091  10.271  33.905  26.770 -0.2222  0.0900  0.2625
23076W        W66092  28.979   4.904   8.903 -0.3602  0.0470 -0.2194
23077W        W66093  24.248   4.417  21.394 -0.0294  0.0634  0.1344
23078W        W66094  24.719   7.234  24.012 -0.0217  0.2526  0.0812
23079W        W66095   4.828   6.989  19.154 -0.0729  0.0251  0.0177
23080W        W66096  12.519  10.080  20.163  0.0787 -0.2895 -0.2047
23081W        W66097   2.674  20.122   8.283  0.0902 -0.2832 -0.2982
23082W        W66098   8.729   3.046  19.059 -0.3774 -0.0872 -0.1761
23083W        W66099   3.888   8.431  19.410  0.0916  0.1278 -0.2980
23084W        W66100  13.520  32.014  17.579 -0.2614 -0.0805  0.1662
23085W        W66101  18.259  19.222  16.225 -0.1692  0.0862  0.3080
23086W        W66102  29.385  14.435   0.973 -0.5248  0.3210  0.1073
23087W        W66103   6.114  26.309   2.859 -0.1272  0.0079  0.2089
23088W        W66104  11.514  15.144  27.142  0.3718  0.2443 -0.2996
23089W        W66105  12.928  31.763  26.217 -0.4339 -0.0944  0.2307
23090W        W66106   4.998  29.729  24.054 -0.0024 -0.0373 -0.2488
23091W        W66107   1.638   5.896   3.563 -0.2091  0.3900  0.0373
23092W        W66108  33.666   7.935   0.471  0.1070 -0.1120  0.0683
23093W        W66109  26.027  14.994   6.083  0.0945  0.3379 -0.0101
23094W        W66110  27.740  18.955   9.921  0.1140  0.0682  0.0263
23095W        W66111   5.108  14.405  24.870 -0.1322 -0.0586 -0.2110
23096W        W66112  19.592  23.945   6.158  0.4275 -0.2370  0.0189
23097W        W66113   7.237   7.025  23.642 -0.1947 -0.0150 -0.1404
23098W        W66114   6.519  20.405  26.671 -0.2447 -0.0603 -0.2254
23099W        W66115  33.318   9.612  18.487 -0.0971  0.2321 -0.0757
23100W        W66116  10.417  13.112  27.071  0.1189 -0.0481 -0.0438
23101W        W66117   1.654  24.597  15.905 -0.0834 -0.1270 -0.2752
23102W        W66118   2.558  12.295   5.459 -0.1229 -0.3055 -0.1582
23103W        W66119   9.412  20.018  19.488 -0.0923 -0.1699  0.1626
23104W        W66120  20.502   0.510  20.844  0.0178  0.2677 -0.0850
23105W        W66121   3.068   0.839   0.195 -0.0268  0.1398 -0.1412
23106W        W66122   6.117   9.643  22.086 -0.1067 -0.0777  0.3260
23107W        W66123   0.234   0.651   7.583 -0.2547 -0.3938 -0.0585
23108W        W66124  11.173  23.661   2.172  0.0442 -0.0393  0.0159
23109W        W66125   0.718   0.651   8.814  0.0358  0.1156 -0.2209
23110W        W66126   4.320  21.833  28.625  0.0481  0.0965 -0.2277
23111W        W66127   2.990  18.187   1.873 -0.1359  0.1368  0.1699
23112W        W66128  14.868  31.353  16.368  0.1921 -0.1748 -0.0618
23113W        W66129   0.997  34.488  23.628  0.2204 -0.1153 -0.0510
23114W        W66130   3.767  32.591   5.348  0.1385  0.3196  0.1096
23115W        W66131  25.877   5.822  24.878 -0.2968  0.0737 -0.2096
23116W        W66132   9.557   8.209  22.198 -0.1978  0.1568  0.3376
23117W        W66133   0.008   0.045   8.405 -0.5726  0.1212  0.3136
23118W        W66134  31.781   3.079   7.436  0.2567 -0.1254  0.2892
23119W        W66135  25.800  13.700  27.149 -0.1312 -0.3817  0.1718
23120W        W66136  13.409   3.181  21.776  0.0664 -0.0659 -0.0430
23121W        W66137  18.357  12.499  27.637  0.0470  0.1237  0.0165
23122W        W66138  31.997  14.238  25.678  0.1461 -0.0964  0.0990
23123W        W66139   6.261   1.950  24.620  0.6140  0.0772 -0.4464
23124W        W66140  33.657  29.230   4.970  0.0430 -0.0559 -0.3973
23125W        W66141   6.152  28.929  17.500  0.1984 -0.2127  0.2753
23126W        W66142   3.460   7.087   4.539 -0.0331  0.1826  0.1031
23127W        W66143  11.757   5.269  24.682 -0.1114 -0.1255  0.2359
23128W        W66144   1.654   9.455  28.445  0.0586 -0.0437  0.1624
23129W        W66145   5.608   4.473  21.462 -0.0184 -0.1270  0.0878
23130W        W66146  28.411   7.875  22.246  0.0493 -0.1219 -0.1264
23131W        W66147  28.427   3.182  24.885  0.2964 -0.1006  0.2931
23132W        W66148   7.353   3.758  28.797  0.1539  0.0637 -0.0812
23133W        W66149  24.378   6.047  26.934 -0.0200  0.3373  0.1985
23134W        W66150   5.056  14.916   3.958 -0.0443  0.2560 -0.0629
23135W        W66151  32.608   5.931   1.789 -0.1854  0.0337 -0.2998
23136W        W66152   7.892  31.334  27.478  0.1854 -0.3233  0.2830
23137W        W66153  10.541  23.344   3.351 -0.1223 -0.1464  0.3928
23138W        W66154  14.566  21.273   1.997 -0.0201 -0.1629  0.1344
23139W        W66155   6.034  26.906   2.876  0.0606 -0.2059 -0.1224
23140W        W66156  19.132  16.724  27.287  0.0671 -0.1700  0.0890
23141W        W66157   5.186  18.303  26.528 -0.0035  0.0136  0.1965
23142W        W66158  14.624  15.983  24.431 -0.1403 -0.2187  0.0693
23143W        W66159  30.630  34.458  15.603 -0.2359 -0.2392 -0.1361
23144W        W66160  22.515   7.443   2.554 -0.2868 -0.3815  0.0545
23145W        W66161  32.095   4.561  27.478 -0.1162 -0.0291  0.2759
23146W        W66162  24.265   9.600  19.096  0.0840  0.4609  0.0882
23147W        W66163   8.836   2.610  28.696 -0.1092  0.1520 -0.0549
23148W        W66164   9.967  15.058   2.603 -0.2059 -0.2057 -0.0512
23149W        W66165  33.045  27.766   3.916 -0.1446 -0.1309  0.1839
23150W        W66166   6.600  31.526   6.326  0.1618 -0.0800 -0.0091
23151W        W66167   2.408  12.808  19.507 -0.1869 -0.1867  0.1406
23152W        W66168  13.793  30.480  15.507  0.0322 -0.0826  0.1315
23153W        W66169  11.268   8.274  23.027 -0.1500 -0.2026  0.0019
23154W        W66170  10.668   7.942  15.181  0.2896  0.3733  0.0456
23155W        W66171   7.586  33.130   8.926 -0.0478 -0.2367 -0.2996
23156W        W66172  10.985   6.796  28.660 -0.0842 -0.0530  0.1038
23157W        W66173   4.222  21.401  27.795 -0.0511 -0.1105  0.1598
23158W        W66174  34.269   6.238  26.195 -0.1977 -0.1666 -0.0222
23159W        W66175  19.698   6.363  21.863  0.1038 -0.1583 -0.0362
23160W        W66176  29.738  19.180  22.802 -0.0991 -0.2858  0.0261
23161W        W66177   6.179  33.151  22.597 -0.2426  0.0071 -0.1573
23162W        W66178   7.932  17.641  18.831 -0.2481  0.1391 -0.0669
23163W        W66179   2.905  14.558  25.628  0.1598  0.1072 -0.2623
23164W        W66180  13.524  33.405  17.364 -0.0520  0.3426  0.1100
23165W        W66181   2.499  14.195  21.067  0.1323 -0.1945  0.0254
23166W        W66182   6.491  18.694  27.385 -0.0326 -0.1118 -0.3129
23167W        W66183  34.698  31.193   6.919 -0.1942 -0.0220 -0.2979
23168W        W66184  11.467  29.832  18.398  0.0740 -0.1279 -0.0374
23169W        W66185  32.806  17.995  24.732 -0.0550  0.0890 -0.0904
23170W        W66186  15.487  32.613  21.569  0.2940 -0.1701  0.0044
23171W        W66187   5.120   7.718  27.174  0.1645  0.0323 -0.1409
23172W        W66188   3.727   1.211  22.018 -0.1617  0.0742  0.0802
23173W        W66189   4.574  15.163  18.107  0.2184 -0.0213 -0.0600
23174W        W66190  32.966  27.827  21.021  0.1996  0.0908  0.1790
23175W        W66191  27.606   7.919   2.855 -0.1756 -0.0834  0.0684
23176W        W66192  12.746  11.874  15.807 -0.1072 -0.1337  0.2806
23177W        W66193   5.901   9.406  16.561 -0.0348  0.1131 -0.0921
23178W        W66194   4.550  30.863  16.575 -0.1226  0.0316 -0.1436
23179W        W66195  28.017  14.337  13.013  0.3113 -0.1617  0.0161
23180W        W66196  19.699   9.365  26.715  0.1470  0.2434  0.0217
23181W        W66197  17.445  13.677  28.029  0.2739  0.0693  0.1573
23182W        W66198   6.079   5.131  19.221  0.3149  0.2746 -0.0074
23183W        W66199  11.584  23.956  24.060 -0.1585 -0.1024  0.4388
23184W        W66200  31.333  30.859   2.421 -0.0958 -0.0232 -0.2245
23185W        W66201   8.340  10.398  23.674  0.0830  0.1472  0.0487
23186W        W66202  12.654   6.379  21.571  0.1684 -0.0398 -0.2329
23187W        W66203   5.946   4.684  20.014  0.1519  0.2986  0.2674
23188W        W66204   3.426  29.435  29.112  0.1170  0.1515 -0.2448
23189W        W66205   7.891  29.627  26.074  0.1950 -0.6072  0.2755
23190W        W66206   9.472  12.702  25.450 -0.0197  0.1621 -0.0235
23191W        W66207  10.547   3.879   0.765 -0.0172 -0.1029  0.1423
23192W        W66208   4.295  15.693  15.961  0.0300  0.0187 -0.0403
23193W        W66209  34.240  20.769  16.285 -0.2667  0.0907  0.0736
23194W        W66210   7.713   7.290  20.891  0.4194 -0.1593 -0.0257
23195W        W66211  28.241  34.554  27.841 -0.0147 -0.3303 -0.0809
23196W        W66212  10.252   5.155  15.354 -0.3382  0.0316 -0.1829
23197W        W66213   7.234   5.670  14.160 -0.1819  0.0800 -0.0608
23198W        W66214   5.863  20.414  16.905  0.1639  0.0958  0.3055
23199W        W66215  32.828  14.443  18.600  0.1565  0.1575 -0.3410
23200W        W66216   9.813  33.134  14.720 -0.0911 -0.2283 -0.1209
23201W        W66217   3.543  13.810   5.828  0.0429  0.0003  0.0251
23202W        W66218   5.262  33.783   1.914 -0.2241  0.0874  0.0867
23203W        W66219  10.501  10.632  18.403  0.2844  0.1005  0.2628
23204W        W66220   0.374   7.646  15.526 -0.0780  0.1051  0.3101
23205W        W66221   1.479  24.588  19.408  0.1779 -0.0932 -0.2185
23206W        W66222  11.920  16.009  22.882 -0.0592 -0.1039  0.0853
23207W        W66223  11.094   6.153  28.015 -0.0644  0.2356  0.0223
23208W        W66224   4.877   0.334  14.271  0.0692 -0.0664  0.0889
23209W        W66225  16.288  21.962  20.531 -0.1288 -0.1629 -0.3052
23210W        W66226   8.902  17.949  13.167  0.0753  0.0383  0.2804
23211W        W66227  28.558   5.039  14.500  0.2086 -0.1927 -0.0114
23212W        W66228   8.153  34.264   0.101 -0.1024  0.3662  0.1508
23213W        W66229   2.253  20.093  16.653 -0.5763  0.0003  0.1307
23214W        W66230   1.108  20.763  19.567 -0.2692  0.0169  0.1299
23215W        W66231   7.768  12.669  20.430 -0.6306 -0.3259 -0.0681
23216W        W66232   2.628  24.453   6.689 -0.0029  0.0220 -0.4049
23217W        W66233  30.633  14.136   7.649 -0.1049  0.2551 -0.1520
23218W        W66234   0.750  11.855  28.032 -0.1559  0.2959  0.0581
23219W        W66235   5.564  10.615  15.968 -0.0979 -0.3515 -0.1691
23220W        W66236  18.854  22.512   2.432  0.1595 -0.0108 -0.2751
23221W        W66237  20.227   9.974  17.705 -0.1611 -0.1388 -0.0875
23222W        W66238   3.247  26.461  16.993  0.1202  0.2644 -0.3271
23223W        W66239   6.248  10.092  20.157  0.2798  0.0546 -0.0915
23224W        W66240  29.711   7.199  26.667 -0.3812 -0.0366 -0.2278
23225W        W66241  32.387  33.082  21.004  0.1542  0.1034 -0.3348
23226W        W66242   0.014  25.944  26.746  0.2065  0.0065  0.3084
23227W        W66243  22.367   0.123  29.209 -0.2030  0.2001  0.0834
23228W        W66244  28.317   9.978  20.752 -0.2862  0.0719 -0.0563
23229W        W66245  27.964  32.209  21.211 -0.2454  0.1476  0.2635
23230W        W66246   6.791  11.061  16.306  0.0014  0.0480 -0.2676
23231W        W66247   4.145  18.242  14.078  0.0547  0.1231  0.1890
23232W        W66248   2.369  24.863  24.540  0.1316  0.0430  0.3344
23233W        W66249  27.133   1.711   0.251 -0.1262 -0.0410  0.1080
23234W        W66250  33.654  17.676  21.662  0.2057  0.0335  0.0267
23235W        W66251   5.409  24.530  21.254 -0.1628  0.0322 -0.2018
23236W        W66252   3.054   0.297   7.872 -0.1428 -0.0677 -0.0599
23237W        W66253  26.649  31.136  19.362 -0.0202  0.3387  0.0529
23238W        W66254   1.862  11.787  20.677  0.3913  0.1897 -0.0031
23239W        W66255   0.337  13.758  20.357 -0.3705 -0.0072 -0.2970
23240W        W66256  23.395   9.626   0.982 -0.4913 -0.0646 -0.1413
23241W        W66257   4.840   0.579   3.618  0.0750 -0.0270 -0.0697
23242W        W66258  22.066  13.930  15.995 -0.0684 -0.4461 -0.1245
23243W        W66259  12.260   2.954  18.615 -0.1007 -0.0782  0.0364
23244W        W66260   5.134  16.028  26.735  0.1882 -0.0030  0.1662
23245W        W66261  11.115  19.131  19.331  0.0463  0.0813 -0.1308
23246W        W66262  33.439  15.482  17.948  0.0660  0.0570 -0.2663
23247W        W66263   7.468   4.978  15.502  0.3031 -0.0604  0.2413
23248W        W66264  33.416   2.882  23.713 -0.0654 -0.0194 -0.0012
23249W        W66265   7.788  17.644  22.456 -0.2102 -0.1070 -0.0660
23250W        W66266  10.747  12.654  26.862  0.0353 -0.2599  0.0188
23251W        W66267  33.871   3.595  14.774 -0.0334 -0.2583 -0.2597
23252W        W66268  31.856  28.411  21.763  0.2484 -0.2389  0.0426
23253W        W66269  23.861   1.549  16.704 -0.1094  0.2177 -0.0007
23254W        W66270  19.491   3.719  16.185  0.1591  0.0901 -0.1188
23255W        W66271   8.910   1.015  26.822  0.0127  0.0650 -0.0509
23256W        W66272  10.034  28.967  17.680  0.0783  0.1771 -0.1594
23257W        W66273   8.395  14.300  17.558  0.0354  0.2344 -0.2154
23258W        W66274   5.810  31.684  28.266 -0.1503 -0.3561 -0.3419
23259W        W66275  33.313  20.797  28.001 -0.0303  0.0543 -0.1332
23260W        W66276  13.128  32.657  17.885 -0.2390  0.1186  0.0701
23261W        W66277   7.435  13.855  15.267 -0.4135  0.3324 -0.2040
23262W        W66278  30.830   4.566   7.797 -0.3943 -0.0136 -0.2276
23263W        W66279   8.250  33.121  21.885 -0.2234 -0.1412  0.1239
23264W        W66280  32.281  16.674  28.571  0.0733  0.1591 -0.1564
23265W        W66281  13.896   1.789  26.043  0.0067 -0.0671  0.1060
23266W        W66282   1.048  23.872  27.396 -0.1193  0.0762  0.0852
23267W        W66283   4.678  25.394  15.906  0.1495  0.2295 -0.2182
23268W        W66284  10.430  27.469  18.378  0.1868 -0.5656 -0.0036
23269W        W66285  25.674   9.365  26.796 -0.0115  0.0218 -0.4246
23270W        W66286  29.130   5.689  15.208 -0.2115  0.3618  0.2101
23271W        W66287   1.600   6.365  13.996  0.2198 -0.3007 -0.0730
23272W        W66288   9.984   5.101  20.092  0.2445  0.1733 -0.0277
23273W        W66289  15.359  31.746  16.449 -0.0040  0.2222 -0.0806
23274W        W66290  13.167  18.145  15.064 -0.1891  0.2199  0.0068
23275W        W66291  11.308  15.689  14.516  0.0478  0.0203  0.0087
23276W        W66292   4.185  12.278   3.379 -0.0834 -0.0998  0.1508
23277W        W66293   5.850  18.000  19.855 -0.1758  0.0054  0.0961
23278W        W66294  31.692   1.168  17.450 -0.1196  0.4365  0.0171
23279W        W66295   8.204   2.345  19.488  0.3107 -0.0686  0.0158
23280W        W66296  30.516  28.853  18.958  0.0599  0.2273 -0.2242
23281W        W66297  28.572  17.389  18.401 -0.1997  0.4310 -0.2340
23282W        W66298  19.620   1.208  18.244  0.2327 -0.0066  0.0428
23283W        W66299  16.918  13.568  20.431 -0.2950 -0.0172  0.1086
23284W        W66300  29.573   8.394  16.007 -0.3231  0.3275  0.0317
23285W        W66301  18.455  32.966  18.050  0.2593 -0.0948 -0.4046
23286W        W66302  29.875  18.337  19.231 -0.5165  0.0471  0.0934
23287W        W66303   4.197   9.999  23.061 -0.0185 -0.1381 -0.1835
23288W        W66304   9.877  12.704  20.266 -0.1931 -0.2912 -0.0151
23289W        W66305  28.753  17.315  17.060 -0.2527  0.1328  0.1985
23290W        W66306  16.187  11.183  21.250  0.2145 -0.0540 -0.2800
23291W        W66307  10.676  15.115   1.606  0.1626  0.2494 -0.1112
23292W        W66308  29.494  10.370  16.477  0.0252  0.0444 -0.0794
23293W        W66309   2.743   2.647  19.892  0.0977  0.0136  0.2321
23294W        W66310  11.144  24.240  12.818  0.0521 -0.1725  0.0646
23295W        W66311  29.273  20.130  16.918 -0.1743  0.2993 -0.2507
23296W        W66312   9.267  18.271  15.218  0.1870  0.0425  0.1061
23297W        W66313  25.403   3.383  15.910  0.0303  0.0916 -0.2448
23298W        W66314   7.031  24.798  18.104 -0.0176  0.1150 -0.1178
23299W        W66315  26.590  34.040  23.299 -0.1875 -0.2759  0.0241
23300W        W66316  14.445  10.896  16.339 -0.2463 -0.3503  0.1682
23301W        W66317  13.131  14.702  17.205  0.0117 -0.0495 -0.2140
23302W        W66318   5.074  17.196  21.224  0.0713  0.4566  0.3605
23303W        W66319  31.828  30.671  21.149  0.1341 -0.2051 -0.3518
23304W        W66320   8.315   2.206  22.595  0.2934  0.1070 -0.2742
23305W        W66321  21.130  32.236  27.675 -0.1715  0.1165  0.1720
23306W        W66322   8.083   6.425  19.628  0.0787  0.0903 -0.3824
23307W        W66323  30.036  21.331  18.006  0.0841 -0.0756 -0.0690
23308W        W66324  12.518  34.350  25.356  0.0466  0.0018  0.1643
23309W        W66325   6.768  12.080  27.285  0.3672 -0.1224 -0.1128
23310W        W66326  12.681   0.745   7.923 -0.0562  0.1516 -0.0503
23311W        W66327   4.159   9.353  17.309  0.2971 -0.1493 -0.0641
23312W        W66328  23.355   3.556  18.513  0.0552  0.1837 -0.1737
23313W        W66329   6.643   3.008  24.879 -0.2560 -0.1202  0.2417
23314W        W66330   1.431  25.191  14.780 -0.2612 -0.1185  0.0070
23315W        W66331  15.828   8.928  17.304 -0.2241 -0.2701  0.1856
23316W        W66332  13.009  26.585  22.319  0.1425  0.1876 -0.1888
23317W        W66333   9.182  26.710   1.490  0.2837  0.3485  0.5110
23318W        W66334  30.313  10.232  19.619  0.1209  0.2530 -0.1977
23319W        W66335   3.568  30.020  20.386 -0.1679  0.1949  0.0219
23320W        W66336  25.147  19.804  21.174 -0.3494 -0.1391 -0.4120
23321W        W66337  23.448   4.601  19.446 -0.0293  0.1889 -0.0759
23322W        W66338  14.613  12.639  14.459 -0.0029 -0.2177 -0.4130
23323W        W66339  18.166  25.267  14.268 -0.1959 -0.1549  0.0613
23324W        W66340  34.614  14.616  26.274 -0.0769  0.0046 -0.0790
23325W        W66341  34.523   4.380  20.815  0.0724 -0.0132 -0.2039
23326W        W66342   1.747  34.448  20.469  0.1044  0.1223 -0.1386
23327W        W66343   6.244  15.034  20.588  0.3730 -0.0534  0.0175
23328W        W66344  30.359   7.461  25.019 -0.1752 -0.1182  0.0676
23329W        W66345  32.078   7.706  23.465  0.2062 -0.3809 -0.3192
23330W        W66346  16.461  11.672  24.159 -0.0300  0.1513 -0.1588
23331W        W66347  27.976  11.590  14.624 -0.0469  0.1377 -0.0295
23332W        W66348  13.966  13.924  13.048 -0.0299  0.0805  0.2733
23333W        W66349  28.355   7.252   0.703 -0.0627  0.0711 -0.0226
23334W        W66350   3.821  14.163  23.854 -0.2290  0.3466  0.0553
23335W        W66351  23.517  33.722  19.376 -0.0651  0.0243  0.3129
23336W        W66352   3.344   2.039  16.174  0.0132 -0.1094 -0.0577
23337W        W66353  34.407  15.932  22.469 -0.2808  0.1283 -0.0752
23338W        W66354   3.345  11.102  14.630  0.0257  0.1837 -0.0203
23339W        W66355  13.051   6.054   1.741 -0.0838 -0.4591 -0.0310
23340W        W66356  24.963  10.493  17.020  0.0948  0.2589 -0.0182
23341W        W66357  16.889  12.761  13.390 -0.0284 -0.1054 -0.2577
23342W        W66358  26.877  17.413  17.050 -0.0497 -0.1700 -0.0227
23343W        W66359  19.536  32.716  16.264  0.0260 -0.0440 -0.3555
23344W        W66360   6.683  33.302  19.015  0.2657  0.0682 -0.0715
23345W        W66361   8.243   8.093  15.132  0.2059 -0.1137 -0.1486
23346W        W66362  14.435  26.569  28.369  0.2243 -0.1027  0.3573
23347W        W66363   8.556   4.456  15.581 -0.0688  0.2240 -0.0683
23348W        W66364  22.578   5.133  26.029  0.2226 -0.2687 -0.1665
23349W        W66365   2.033  34.389  13.982 -0.0718 -0.1170 -0.3607
23350W        W66366   4.291  10.591   1.212  0.0054 -0.3995  0.1347
23351W        W66367  17.796  13.410   1.313  0.0088  0.1225  0.0298
23352W        W66368  12.438   7.391  18.064  0.1515  0.0394  0.1360
23353W        W66369  31.678   7.901  17.588  0.1008 -0.3936  0.2310
23354W        W66370  11.316   7.597  19.536  0.1701  0.1105 -0.0856
23355W        W66371   5.261  24.286  19.128 -0.1189 -0.1692  0.2093
23356W        W66372  34.483   8.536  20.474  0.1942  0.0138 -0.2347
23357W        W66373  27.917   8.779  18.236 -0.1244 -0.0493 -0.3278
23358W        W66374  28.071   7.411  18.822  0.2731 -0.0418  0.0908
23359W        W66375   6.435   4.807  14.774  0.0072  0.2397  0.1271
23360W        W66376  29.790   1.649   4.399  0.2271 -0.0331  0.2043
23361W        W66377  30.963   4.980  20.921 -0.2045  0.1399  0.1964
23362W        W66378  11.433  15.934  12.579 -0.3538  0.0700 -0.3964
23363W        W66379   7.017  13.266  19.301  0.0529  0.2220 -0.1174
23364W        W66380  14.145   7.260  18.112  0.0531 -0.3361 -0.1093
23365W        W66381   2.780  11.234  21.649  0.0488  0.1452 -0.0630
23366W        W66382   2.383  14.627  22.083  0.0998 -0.0569  0.3138
23367W        W66383   6.122  33.888  17.703  0.1176  0.3379 -0.0249
23368W        W66384  14.381  14.710  25.540  0.4833  0.1078  0.0888
23369W        W66385   0.132   4.327   1.040  0.2570 -0.0188  0.2794
23370W        W66386  33.392  17.874  22.442 -0.0070 -0.3014  0.0248
23371W        W66387  13.331  31.347   2.154  0.0152 -0.1546  0.0389
23372W        W66388  24.136  19.733  19.667 -0.2894 -0.1365  0.5139
23373W        W66389  30.603  32.378  25.602  0.0868  0.0430  0.2572
23374W        W66390  11.066   7.073  17.195  0.0620  0.1923  0.0411
23375W        W66391  28.348   9.694   0.110  0.2198 -0.3528  0.0876
23376W        W66392  28.789  12.780  22.741 -0.0776 -0.0496 -0.0039
23377W        W66393  31.617  32.665  18.899  0.1182  0.1793  0.1607
23378W        W66394  13.219  13.285  14.729 -0.0224  0.0955  0.0718
23379W        W66395  17.801   6.059  23.513  0.4375 -0.2639 -0.1552
23380W        W66396  10.326  31.714  22.185  0.0795  0.1361  0.0550
23381W        W66397   8.214   5.084  26.411 -0.0500  0.1135  0.5018
23382W        W66398  11.795  12.126  21.454 -0.0720  0.4829  0.1545
23383W        W66399  10.009  28.625   5.211 -0.2767  0.0256  0.0861
23384W        W66400  16.513   6.896  16.844 -0.0583 -0.2123 -0.1108
23385W        W66401  18.711  17.586  15.126  0.0210 -0.0917 -0.0729
23386W        W66402   2.895  11.565  23.455  0.3935  0.1836 -0.1869
23387W        W66403  34.135  13.469  24.480 -0.1954 -0.3635 -0.1268
23388W        W66404   1.463   5.941  19.790 -0.0937  0.1179  0.1351
23389W        W66405   2.962  14.384  20.130 -0.0518 -0.1119  0.1501
23390W        W66406   9.982   7.236  26.942  0.0275 -0.0815 -0.2342
23391W        W66407  16.560  11.226  15.618 -0.2525 -0.0727  0.1069
23392W        W66408  31.768  12.566  15.680  0.1350 -0.1285 -0.3403
23393W        W66409  34.194  17.580  24.725  0.1729 -0.3717  0.0639
23394W        W66410   4.249  11.776  17.086  0.0979  0.0108 -0.1585
23395W        W66411   5.093  22.009  14.155 -0.0684  0.0319  0.3615
23396W        W66412  14.632   8.239  21.601  0.1021 -0.2669  0.0200
23397W        W66413  12.187  27.602  28.796 -0.2194 -0.0951  0.0005
23398W        W66414   2.404  18.881  18.340 -0.3242 -0.0347 -0.0704
23399W        W66415  29.213   2.358   1.300  0.4350 -0.2162 -0.0338
23400W        W66416  27.009  14.011  17.115  0.2528  0.1280  0.1415
23401W        W66417   5.154  11.537  20.316 -0.0507  0.0264  0.0994
23402W        W66418  29.092  18.412  17.036  0.1482  0.0788 -0.2393
23403W        W66419   2.878  32.949  20.876 -0.1321  0.1613 -0.0840
23404W        W66420  30.314  10.164   1.757 -0.1306  0.1880  0.1101
23405W        W66421   6.497  31.487  21.069 -0.1761 -0.0979  0.0495
23406W        W66422   7.647   2.717  17.799 -0.1256 -0.2100 -0.2687
23407W        W66423  23.602   1.155  27.606 -0.0059 -0.0174 -0.0921
23408W        W66424   7.800  21.794  17.316 -0.1882 -0.1909  0.0858
23409W        W66425  29.244   0.104  22.190 -0.4214  0.1524  0.1999
23410W        W66426  30.126   3.657  21.810  0.2842  0.2445  0.2513
23411W        W66427   8.028   3.285  24.713 -0.1231  0.0829  0.0793
23412W        W66428  28.794   6.714  20.374  0.3299 -0.0670 -0.0582
23413W        W66429  17.946   1.979  18.684 -0.0909  0.0623 -0.3281
23414W        W66430  10.622  12.015  15.950 -0.2731  0.1999 -0.1208
23415W        W66431   9.649  11.676  24.127 -0.3472 -0.1425 -0.3868
23416W        W66432   1.427  15.998  15.750 -0.0761  0.0199  0.0648
23417W        W66433   6.232  15.676  26.145  0.1474 -0.0025 -0.1156
23418W        W66434  10.171   5.042  17.630  0.3590  0.1691 -0.1955
23419W        W66435   8.179  14.874  21.534  0.0397  0.1261  0.0019
23420W        W66436   3.994  12.979  13.861  0.0855  0.0584 -0.2471
23421W        W66437   5.731   0.831  28.800 -0.1407 -0.0856  0.0941
23422W        W66438   1.335  32.784  17.058  0.1640 -0.0565  0.2230
23423W        W66439  24.553  24.709  17.122 -0.2713  0.2785  0.0209
23424W        W66440  13.663   2.032  13.905  0.3304  0.2799 -0.0268
23425W        W66441   5.690  14.533  18.738  0.0785  0.1034 -0.3400
23426W        W66442  34.529  16.486  22.502 -0.0850  0.0954  0.4900
23427W        W66443   5.653   7.962  15.982 -0.1949  0.1869  0.0489
23428W        W66444   9.696  18.633  19.281 -0.1188  0.2394 -0.2825
23429W        W66445  28.845  11.220  19.873  0.1704 -0.4004 -0.3843
23430W        W66446   9.192  16.142  20.125  0.0657  0.1031  0.1522
23431W        W66447   5.363  12.368  18.686 -0.1185  0.1859  0.1763
23432W        W66448   5.785   5.457  19.371 -0.0331  0.0741 -0.0973
23433W        W66449  16.370  15.493  14.699  0.0485 -0.2769  0.0675
23434W        W66450  10.968   5.318  16.675  0.0375 -0.1658  0.1668
23435W        W66451  29.436  13.961   1.352  0.2873  0.1158  0.1878
23436W        W66452   3.230   4.124  19.804 -0.0439 -0.2540  0.0057
23437W        W66453   8.064  19.991  12.678 -0.1513 -0.1127 -0.2561
23438W        W66454  26.629   5.776  20.700  0.3006  0.3130  0.1690
23439W        W66455  26.123  13.772  27.640 -0.0235 -0.2444  0.1030
23440W        W66456   1.040  21.402  23.725 -0.0764 -0.2287 -0.2126
23441W        W66457   6.711  12.316  22.051  0.1468  0.0227 -0.0611
23442W        W66458   8.150  15.402  29.228  0.3078  0.0973  0.0304
23443W        W66459  10.703  17.240  15.007  0.0977 -0.2983 -0.0996
23444W        W66460   6.014   1.494  19.966 -0.0617  0.6208  0.0728
23445W        W66461  14.061   9.275  16.670  0.1016  0.1420  0.2061
23446W        W66462  15.720   9.410   0.012 -0.0483  0.1451  0.0290
23447W        W66463  29.607   7.927  17.891 -0.0217  0.0006  0.0300
23448W        W66464   8.552   3.075  25.268  0.0994 -0.1380 -0.0692
23449W        W66465   9.905  10.348  22.005  0.2255 -0.0505 -0.0136
23450W        W66466  16.366   3.430  19.595  0.2836  0.1591  0.2188
23451W        W66467   6.713  11.376   2.999 -0.0493 -0.1138 -0.0025
23452W        W66468  32.632  10.293   2.527  0.1520  0.4163 -0.0082
23453W        W66469   9.328  13.445  13.774 -0.1983 -0.1562 -0.1570
23454W        W66470   9.231  11.676  19.750  0.3627  0.0296  0.2676
23455W        W66471  24.264  20.584  22.572  0.3819  0.1330  0.0972
23456W        W66472  29.368   5.436  16.951  0.0814 -0.0634  0.3017
23457W        W66473   9.949   0.385  17.998 -0.2994 -0.0986  0.1901
23458W        W66474  21.910   9.007  18.006 -0.3811 -0.1404 -0.0881
23459W        W66475   9.758  14.517   0.236  0.1098 -0.1541 -0.0362
23460W        W66476  34.226  34.070  14.936 -0.1499 -0.0045 -0.2709
23461W        W66477  32.121  22.100  15.056 -0.3631 -0.4026  0.2680
23462W        W66478  29.213   9.853  17.020  0.0835 -0.1475  0.2677
23463W        W66479  21.500  10.418  23.596 -0.2626 -0.2282 -0.3429
23464W        W66480   0.745  10.034  20.153  0.3268 -0.2531 -0.0791
23465W        W66481  16.765  31.062   0.689  0.1580 -0.2367 -0.1255
23466W        W66482  30.320  11.439  21.939 -0.1608 -0.2648  0.0774
23467W        W66483  22.620   7.375  14.704  0.1893 -0.3746  0.0326
23468W        W66484  27.546  11.204  19.168 -0.0605 -0.1220  0.0429
23469W        W66485  33.700   6.315  17.079  0.0162 -0.1470  0.0748
23470W        W66486  19.118   7.418  25.968 -0.0364  0.1616 -0.2398
23471W        W66487  32.290  25.042  25.575  0.1088 -0.1856  0.1689
23472W        W66488  32.668  26.135   1.508 -0.0534  0.1433  0.1408
23473W        W66489  31.288   2.152  23.065  0.2467 -0.0141  0.1915
23474W        W66490   2.081  16.232  18.671  0.0632  0.1727 -0.0224
23475W        W66491   8.700  15.996  22.474 -0.1923  0.0252 -0.0298
23476W        W66492  26.725  25.977  18.903  0.3778  0.1027  0.1851
23477W        W66493  26.756   1.425  21.248 -0.2482  0.0617 -0.0742
23478W        W66494   1.607   3.581  22.340  0.0888  0.2610 -0.3751
23479W        W66495   0.304  22.970  19.031 -0.2850 -0.1998 -0.0265
23480W        W66496  30.351   4.288   3.798  0.2774 -0.2731  0.1098
23481W        W66497  24.163  17.572  17.627 -0.0006  0.2867 -0.2261
23482W        W66498   4.408  12.290   7.065  0.2491  0.0628  0.1395
23483W        W66499  10.884  14.275  17.130 -0.1010 -0.4453  0.1751
23484W        W66500   1.703  28.203  26.357  0.0533 -0.1047 -0.2490
23485W        W66501  33.872  14.029  28.898 -0.2308 -0.1169  0.0412
23486W        W66502  34.032  27.379  14.302 -0.0907 -0.2615 -0.2184
23487W        W66503  19.658   5.043  17.340  0.1267  0.2368  0.1169
23488W        W66504   0.117   2.212  15.425  0.0710 -0.1560  0.1035
23489W        W66505   1.218   5.500   2.760 -0.0581  0.1219 -0.1172
23490W        W66506   2.974  12.441  17.218  0.0342  0.1318 -0.1597
23491W        W66507   5.596   7.249   2.948 -0.2989 -0.0188 -0.0592
23492W        W66508  15.012  15.730  13.526  0.0808 -0.0598 -0.0343
23493W        W66509   1.166  18.833  26.186 -0.0263  0.1960  0.2519
23494W        W66510  10.621   9.067  18.311 -0.1015  0.0624 -0.0990
23495W        W66511  30.121   6.134  24.546 -0.2004 -0.2169 -0.0130
23496W        W66512  31.639  26.638  14.588 -0.2349 -0.0586 -0.2375
23497W        W66513  30.173   3.279   3.201  0.0060  0.1619  0.0817
23498W        W66514   3.719  10.156  27.015 -0.1435 -0.3586  0.2031
23499W        W66515  10.148  26.051   5.543 -0.0971 -0.1478  0.0430
23500W        W66516  33.729  30.530  22.256  0.2884 -0.2805 -0.0723
23501W        W66517   9.963  28.655  28.812 -0.0458 -0.3012 -0.1558
23502W        W66518  30.295  29.307  23.657  0.0469  0.4245 -0.0046
23503W        W66519  26.965   2.525  18.399  0.2075  0.0133 -0.0188
23504W        W66520  27.305  17.651  18.533  0.1830  0.1148 -0.1816
23505W        W66521  11.233  34.660  23.776  0.1253  0.0837 -0.0734
23506W        W66522  31.603  19.355  25.002 -0.0623  0.3476  0.3040
23507W        W66523  25.781   5.603  16.326  0.2644  0.1002 -0.3479
23508W        W66524  14.759  32.163  17.079  0.0735  0.2030  0.1127
23509W        W66525   8.488  24.585  18.058 -0.2168 -0.1761 -0.0971
23510W        W66526  13.441   9.096  18.799  0.0055  0.0687  0.0926
23511W        W66527  28.010  14.113  15.554 -0.0151  0.3083 -0.1456
23512W        W66528   0.640  13.934  15.693 -0.1689 -0.1763 -0.0804
23513W        W66529  19.723  14.367  20.356 -0.0139  0.2720 -0.0487
23514W        W66530  13.813   7.330  20.407 -0.2086  0.2464 -0.0982
23515W        W66531   3.226  27.964  25.885 -0.1005  0.1688  0.2933
23516W        W66532   7.252  18.955  18.476  0.2240  0.4390 -0.1572
23517W        W66533   5.159  33.938  14.767  0.1523 -0.1151 -0.0864
23518W        W66534   1.466  17.137  23.692  0.2930  0.1153  0.2300
23519W        W66535   9.339  34.296  17.737  0.0453 -0.1708 -0.0165
23520W        W66536  11.355  17.285  21.219 -0.3332 -0.0464 -0.0375
23521W        W66537  29.956  18.407  15.633 -0.0525  0.1604 -0.0571
23522W        W66538  20.508  12.079   1.613  0.3242  0.0711  0.2585
23523W        W66539  26.915  14.521  26.107 -0.0030 -0.2289 -0.1123
23524W        W66540  26.934  18.117  27.010 -0.2147 -0.0773 -0.1549
23525W        W66541  10.627   6.739  21.133  0.1215 -0.0978  0.4005
23526W        W66542   6.746  16.364  18.170 -0.0567 -0.0109  0.0796
23527W        W66543  32.047   8.466  17.455  0.1797  0.1659 -0.2073
23528W        W66544   3.482  10.532  26.099  0.0752 -0.0348  0.2840
23529W        W66545   8.406  26.279  23.349 -0.0190  0.0305 -0.2733
23530W        W66546   7.703  30.173  26.118  0.2358 -0.1684 -0.2101
23531W        W66547  33.841  15.051  23.758  0.2234  0.2586 -0.1334
23532W        W66548  15.041   3.904  14.860  0.0836  0.4863  0.1536
23533W        W66549   2.681  17.329  25.751 -0.0473 -0.0618  0.0491
23534W        W66550  30.049  26.157  16.111  0.3418  0.1033 -0.0880
23535W        W66551  33.388   4.365  18.884 -0.0892 -0.0974 -0.2468
23536W        W66552  30.949   4.597  14.427  0.2081  0.1385 -0.0374
23537W        W66553   0.579   4.407  15.265  0.1364  0.2445 -0.0755
23538W        W66554   6.047   3.961  14.422  0.2702  0.1705  0.1633
23539W        W66555  18.069   4.330  24.184 -0.1246  0.2908  0.0479
23540W        W66556  17.719   0.505  21.094  0.1886  0.2177  0.1628
23541W        W66557  34.042  11.606  16.198  0.2842  0.1286 -0.0426
23542W        W66558   4.383  16.226  14.433 -0.2270  0.0558  0.0754
23543W        W66559  12.167   7.670  26.357 -0.2349  0.3572 -0.2925
23544W        W66560   6.815  15.482  17.824 -0.0833  0.1709 -0.0748
23545W        W66561   6.682  18.629   1.969  0.0591  0.0615  0.2299
23546W        W66562  18.274   5.744   4.486  0.1563 -0.3426  0.0356
23547W        W66563   4.671   8.199  14.559  0.0681  0.0126  0.1603
23548W        W66564   7.497  12.378  25.258 -0.2114  0.0083  0.1309
23549W        W66565  25.178   4.225  16.576  0.1054  0.3030  0.4870
23550W        W66566  29.173   8.506  26.116 -0.1896  0.0979 -0.0745
23551W        W66567   8.489   7.162  28.569  0.1734  0.1304  0.3182
23552W        W66568   3.049  16.046  14.485  0.1958 -0.0578  0.0203
23553W        W66569  10.098   7.852  21.946 -0.2052 -0.5242  0.1547
23554W        W66570   5.227  13.520  12.988 -0.0028 -0.1500 -0.1367
23555W        W66571  24.040  31.384  15.743  0.3187  0.0331 -0.0354
23556W        W66572  26.165  20.489  22.249  0.3199 -0.0552  0.3889
23557W        W66573   9.796  11.045  16.453  0.2848 -0.0348 -0.0303
23558W        W66574  17.198   8.565  24.778  0.1350 -0.2746  0.1470
23559W        W66575  10.298  13.180  24.990  0.0264 -0.0547  0.2151
23560W        W66576  12.526  11.997   0.044 -0.2909  0.2633  0.0562
23561W        W66577   8.231  13.963  22.279 -0.4725  0.2115 -0.1121
23562W        W66578  20.437  23.851  17.700  0.0067  0.2513 -0.0502
23563W        W66579  10.079  30.599  15.875  0.2313 -0.1787  0.1247
23564W        W66580   2.189  13.349  19.716 -0.0604  0.0375  0.0670
23565W        W66581  18.684   7.797   0.984  0.0292  0.0006 -0.1686
23566W        W66582   3.436  17.402  24.097  0.0590 -0.1201 -0.0788
23567W        W66583  11.585  11.946  17.598 -0.0624 -0.1072 -0.0651
23568W        W66584  11.325  33.817  16.260  0.3754 -0.2251  0.0755
23569W        W66585  13.298   2.848  26.901 -0.0365 -0.1769  0.2476
23570W        W66586  31.658  19.369  20.385  0.1586  0.0747  0.2309
23571W        W66587   5.101  23.838  21.322 -0.0165 -0.2814 -0.1028
23572W        W66588  15.906   4.756  18.794 -0.1241 -0.0392 -0.2207
23573W        W66589  18.028   1.732  26.040  0.2358 -0.2251  0.0696
23574W        W66590  32.703  16.523  22.121 -0.0485  0.0446  0.3589
23575W        W66591  14.908   6.589  18.799  0.0809 -0.1871 -0.3017
23576W        W66592  13.138  11.514  14.982  0.1094 -0.3377  0.1224
23577W        W66593   5.461   4.211  26.628  0.0717  0.0407  0.1760
23578W        W66594   6.702   4.297  19.434 -0.0431 -0.1382 -0.2167
23579W        W66595  22.214   5.213  22.379  0.0356  0.0236  0.2769
23580W        W66596   0.580  11.858  29.010 -0.3049 -0.0904 -0.1715
23581W        W66597   4.528   7.454   7.008 -0.0383 -0.0274 -0.0331
23582W        W66598  16.568  30.502  15.809  0.0273  0.3331 -0.2286
23583W        W66599  31.223   7.427  28.338 -0.2081  0.1185 -0.1600
23584W        W66600   7.918  23.456  17.102  0.0382  0.1817 -0.0923
23585W        W66601  21.379  10.533  20.296  0.1849 -0.0004  0.1822
23586W        W66602   6.325  11.239   6.453  0.1450 -0.0879  0.2409
23587W        W66603  10.841  19.513  20.245 -0.1246 -0.0562 -0.0806
23588W        W66604  22.445   5.418  16.785 -0.0679  0.1533 -0.2860
23589W        W66605  24.265  18.381  14.901 -0.2847 -0.2789 -0.1684
23590W        W66606  12.695   7.954  23.483 -0.0081 -0.2807  0.0193
23591W        W66607   3.007  13.161  24.909 -0.6311 -0.2530 -0.1184
23592W        W66608   1.548  11.512  26.125 -0.0184 -0.3693 -0.0987
23593W        W66609   9.006   2.758  20.549 -0.1702 -0.1291 -0.3330
23594W        W66610  30.373   6.008  23.977 -0.2593  0.0729  0.0724
23595W        W66611   4.617   8.973  24.054 -0.2053  0.1091  0.5972
23596W        W66612   0.552   6.640  18.098 -0.2015 -0.2226  0.0226
23597W        W66613  22.436  22.132  19.852 -0.0562  0.1281  0.0551
23598W        W66614   9.212   5.857  28.879 -0.1270 -0.2016 -0.0629
23599W        W66615   3.201  27.453  19.957  0.3314  0.2110 -0.1193
23600W        W66616  26.486  29.583  27.536 -0.1675 -0.0637 -0.1204
23601W        W66617   4.268  19.740  15.648  0.0805  0.0067 -0.2076
23602W        W66618  17.861  13.856  12.161 -0.0850 -0.0855 -0.2013
23603W        W66619   4.130  33.700  19.182  0.1259  0.1667 -0.2105
23604W        W66620  21.561   0.159  22.881  0.1607  0.0270  0.4038
23605W        W66621   7.264  10.977  14.384  0.2742  0.2494  0.1039
23606W        W66622  25.486  32.943  18.531  0.2199  0.0257 -0.3080
23607W        W66623  14.970   3.369  22.524  0.0290  0.2907 -0.0206
23608W        W66624   3.581   7.815  20.799  0.0230 -0.1037  0.1558
23609W        W66625  12.052  31.628  20.207  0.1594  0.5999 -0.2818
23610W        W66626  14.714  18.276  26.291  0.1640 -0.3143 -0.0519
23611W        W66627   9.968  30.085  19.258 -0.1086  0.3200 -0.0565
23612W        W66628  31.395  20.342  27.707 -0.0627 -0.2743 -0.2729
23613W        W66629   1.641  19.433  19.166  0.0199  0.5595  0.0767
23614W        W66630  19.154  10.905  27.140 -0.3805 -0.2075  0.2262
23615W        W66631  34.562  30.343  18.503  0.0496  0.1499 -0.0019
23616W        W66632  10.456  32.109  21.436 -0.0247  0.1864  0.1092
23617W        W66633  13.116   3.436  17.653  0.1714  0.2611 -0.1834
23618W        W66634  23.731  13.587  19.845  0.2360 -0.1029  0.0877
23619W        W66635  13.719  23.392  27.043 -0.0088  0.1218 -0.1060
23620W        W66636   0.103   2.880  25.022 -0.2256  0.0876 -0.0056
23621W        W66637   9.872   5.165  14.922  0.0062  0.0048 -0.2753
23622W        W66638  33.511   1.311  20.127  0.0226 -0.0992 -0.1439
23623W        W66639  11.145  17.903   2.229  0.0677 -0.2536  0.2926
23624W        W66640  29.201  32.287  18.443 -0.1852 -0.3044 -0.0349
23625W        W66641  28.124  20.046   4.418  0.1422 -0.0612 -0.0237
23626W        W66642  11.153   9.412   2.374 -0.1729 -0.1027  0.0353
23627W        W66643   8.030  10.772  15.684 -0.2505 -0.1284 -0.0332
23628W        W66644   9.012   3.812  17.466 -0.2406  0.3008  0.1893
23629W        W66645  31.672  33.425   9.366  0.1929  0.1499  0.2772
23630W        W66646   2.137  10.582  16.607  0.0243 -0.0010 -0.2438
23631W        W66647   5.248   2.448  17.751  0.3465 -0.1419  0.1169
23632W        W66648   5.072  10.929  21.462 -0.0025  0.1430 -0.2098
23633W        W66649  15.717  22.405  26.556  0.2245 -0.1413  0.4084
23634W        W66650   0.348  29.904  26.363 -0.1464  0.1849  0.0898
23635W        W66651   1.576   1.852  17.994  0.0648  0.1868  0.1837
23636W        W66652  25.690  24.674  19.392 -0.1282 -0.2191 -0.1947
23637W        W66653  23.239  24.831  28.331  0.2252 -0.1729 -0.2408
23638W        W66654   6.061   8.400  17.620  0.1806  0.0409 -0.4976
23639W        W66655   4.662   0.263  16.011  0.4074 -0.1344  0.2637
23640W        W66656   9.655   6.050  21.823 -0.1630 -0.3206 -0.0437
23641W        W66657  31.225  33.285  19.315  0.1762  0.0481  0.2416
23642W        W66658  15.118   4.834   0.410 -0.0128 -0.1121  0.0368
23643W        W66659   2.337   9.518  21.681  0.1721  0.1162  0.1423
23644W        W66660  20.195  29.499  25.043 -0.0149 -0.2376 -0.0034
23645W        W66661   5.308   4.093  17.839 -0.1245  0.0266  0.2542
23646W        W66662   7.958  29.027  17.428  0.3836 -0.2508  0.0281
23647W        W66663   1.760  13.995  28.908 -0.1141 -0.4207  0.1963
23648W        W66664   3.982  31.634  14.268 -0.3589 -0.0795  0.0625
23649W        W66665   3.865   2.287  22.723  0.2189  0.1661  0.0540
23650W        W66666   5.367  12.747  21.625 -0.1074 -0.3115 -0.2931
23651W        W66667   9.950   4.708  23.473 -0.3957 -0.2914 -0.0221
23652W        W66668  14.099  25.212  21.137  0.0453  0.3114 -0.1040
23653W        W66669   6.514   8.631  19.408  0.3986  0.1033 -0.0853
23654W        W66670   0.277  31.094  14.089  0.2112 -0.0801 -0.1006
23655W        W66671   8.904  22.470  23.058 -0.0719 -0.2461  0.2780
23656W        W66672  34.474  19.961  22.303  0.2818 -0.1924  0.3021
23657W        W66673   3.486  26.935  15.510 -0.3900  0.2827 -0.4308
23658W        W66674   8.688  19.439  21.945  0.0446  0.2787  0.1469
23659W        W66675   6.165   4.310   1.538  0.2571 -0.3807 -0.0651
23660W        W66676  23.200   6.733  19.165  0.2692 -0.3563 -0.0500
23661W        W66677  34.184  10.552  22.079 -0.2257 -0.1305  0.1220
23662W        W66678  30.368  18.504  14.531 -0.2048  0.0251  0.1284
23663W        W66679  10.983  15.302  24.350 -0.1632  0.3733 -0.1424
23664W        W66680   3.393  22.955  24.668  0.3175 -0.0047 -0.1856
23665W        W66681  22.279  30.657   3.563  0.1001  0.4024  0.3514
23666W        W66682  22.538  11.742  14.639 -0.0418  0.2725 -0.2478
23667W        W66683   3.385   4.547  14.727 -0.3648  0.2790 -0.1422
23668W        W66684  32.188   8.140  18.277  0.1588  0.1015  0.0677
23669W        W66685  21.125  32.204  21.623  0.1263  0.0043  0.4421
23670W        W66686  28.073  28.892  11.202  0.0647 -0.3004 -0.2230
23671W        W66687  19.987  27.441  22.194 -0.0145  0.0716 -0.3120
23672W        W66688  12.156   2.416  16.847 -0.1278 -0.0975 -0.1190
23673W        W66689   4.169  15.230  20.069  0.2115 -0.1628 -0.2175
23674W        W66690  14.292   7.412  20.275  0.2716 -0.0287  0.0276
23675W        W66691  26.345   0.467  23.507 -0.1641  0.3694 -0.1992
23676W        W66692   0.109  10.747  21.368 -0.0156 -0.1110 -0.0183
23677W        W66693   0.497   5.127  26.677 -0.0619  0.5373 -0.1844
23678W        W66694   6.106   3.002   0.966 -0.1093 -0.3431  0.0346
23679W        W66695  34.063  13.980  14.959 -0.0690  0.3755 -0.0121
23680W        W66696  32.396  31.636  15.884  0.0078 -0.1130  0.0956
23681W        W66697   5.963   5.222  17.812  0.1904 -0.0434  0.3791
23682W        W66698  17.064   8.224  23.310 -0.3601 -0.0798 -0.0949
23683W        W66699  14.441   2.777  26.226  0.0248  0.0228 -0.2717
23684W        W66700  29.110  32.973  22.880 -0.0994  0.1279 -0.1885
23685W        W66701  10.816   2.367  20.199 -0.4073 -0.1157 -0.0484
23686W        W66702   4.865  16.492  23.744  0.0912 -0.2218  0.1499
23687W        W66703  33.239  31.406  17.074 -0.4136  0.0026 -0.1811
23688W        W66704   2.748  17.482  14.862  0.2993 -0.1458  0.0306
23689W        W66705  33.457  25.860  22.538 -0.0472 -0.1019 -0.1011
23690W        W66706   8.986   1.620  18.719 -0.0109 -0.2192  0.1688
23691W        W66707   1.205  25.815  20.680  0.0561  0.2218 -0.0382
23692W        W66708  32.954  10.886  15.059  0.0905  0.0577  0.1934
23693W        W66709  34.744  22.038  15.436  0.2154  0.2496  0.2277
23694W        W66710  13.662  10.928   0.605 -0.2072 -0.2117  0.1047
23695W        W66711   4.910  18.024  17.478 -0.1708 -0.0310  0.1454
23696W        W66712  32.947  19.992  24.051 -0.3511 -0.0875  0.3317
23697W        W66713  31.981  34.596  16.024 -0.1681 -0.0563  0.0087
23698W        W66714  28.500  28.296  20.860 -0.2590  0.1644 -0.1595
23699W        W66715  26.028  13.964  21.657  0.0124 -0.2899 -0.1732
23700W        W66716  31.906   4.942  15.278  0.4277  0.0660 -0.1272
23701W        W66717   2.972   5.793  17.652 -0.0397 -0.2438  0.0030
23702W        W66718  17.579   7.030  23.344 -0.2206  0.0088 -0.0104
23703W        W66719   2.331  18.299   8.996  0.1487 -0.3508 -0.0946
23704W        W66720  15.192  14.348  22.036  0.1554  0.0669  0.1663
23705W        W66721  12.484  34.376  18.522 -0.0822 -0.2224  0.0788
23706W        W66722  10.434  28.167   7.002 -0.3288 -0.0510  0.0391
23707W        W66723  11.913   3.128  19.505  0.3075  0.2061 -0.1460
23708W        W66724  26.937  19.534  19.197 -0.0285 -0.0861 -0.0544
23709W        W66725  20.096  33.894   1.065  0.2454 -0.3729 -0.0805
23710W        W66726   8.786   8.429   3.733 -0.0677 -0.3031 -0.0671
23711W        W66727   9.150  26.150  24.348 -0.1104 -0.1004 -0.1063
23712W        W66728  31.761   1.790  16.883  0.4634 -0.0635  0.2540
23713W        W66729   5.491   5.006  20.009  0.0499 -0.1503  0.0390
23714W        W66730   7.569  12.370  23.111  0.2215  0.0072 -0.1731
23715W        W66731   0.488   7.447  16.006 -0.0433 -0.0187 -0.0034
23716W        W66732   7.347  16.419  23.949  0.0233 -0.4316  0.1161
23717W        W66733  16.243   0.030  23.370  0.1336 -0.3134 -0.2788
23718W        W66734   5.768   2.910  19.388  0.1454 -0.0215  0.0641
23719W        W66735  11.459  10.464  24.778 -0.0340  0.2123 -0.2194
23720W        W66736  19.175   8.220  16.433  0.0196  0.3533  0.3927
23721W        W66737  24.671  19.380  22.227  0.1749 -0.2668 -0.0234
23722W        W66738  28.812  11.904  28.355 -0.1988  0.2430  0.0979
23723W        W66739   3.517  12.019  15.562  0.2223  0.1319 -0.0070
23724W        W66740  10.231  26.316   6.728 -0.3555 -0.4116 -0.0485
23725W        W66741  34.746  27.216  25.048 -0.0308  0.2400  0.1413
23726W        W66742  31.456  21.742   3.764 -0.0740 -0.1450 -0.1574
23727W        W66743   1.469   8.498  22.354 -0.3392  0.3342 -0.0528
23728W        W66744  18.042  18.031  28.012 -0.2118 -0.2415  0.1562
23729W        W66745  11.495   0.349  23.298 -0.1266  0.1500  0.1236
23730W        W66746   4.489  12.346   1.484  0.1688  0.2096  0.1762
23731W        W66747   1.643  11.039  21.390  0.0108  0.0315 -0.4263
23732W        W66748  15.437  34.717  14.797  0.1526 -0.0724  0.0714
23733W        W66749   3.928   5.766  24.142  0.0292  0.2304  0.0289
23734W        W66750   6.338  17.716  13.619  0.1126 -0.2362  0.1289
23735W        W66751  16.972   8.202  13.417 -0.0774  0.2331 -0.4525
23736W        W66752  18.431   3.621  20.222  0.3135  0.1112  0.3240
23737W        W66753   8.333   2.678   1.116  0.0116 -0.1222 -0.0758
23738W        W66754  25.403   0.251   3.900  0.2077 -0.0487  0.0841
23739W        W66755  27.664  10.390   6.845  0.0811  0.3952 -0.0996
23740W        W66756  27.526  19.541  17.137 -0.4683  0.0155 -0.0636
23741W        W66757  10.348   5.683  15.587  0.0587 -0.1249 -0.2482
23742W        W66758  12.322  13.057  28.517 -0.3369 -0.0731  0.0269
23743W        W66759  21.676   6.397  25.204 -0.0488  0.1045  0.1442
23744W        W66760   1.695   7.904   5.738 -0.2613 -0.0233 -0.2491
23745W        W66761  17.184   4.499  19.573 -0.0946  0.0419  0.0782
23746W        W66762   5.595  15.685  20.315 -0.2403 -0.0760  0.2629
23747W        W66763   4.018  16.191  18.503 -0.4196 -0.0045 -0.4100
23748W        W66764  27.771  13.913  25.995 -0.4164 -0.1213  0.0617
23749W        W66765   4.965  28.224  13.291  0.2247  0.0893 -0.1725
23750W        W66766  16.400   6.024  18.506  0.4179  0.0733 -0.2393
23751W        W66767  23.815   6.298  15.096 -0.3467  0.3470  0.0239
23752W        W66768  25.980   8.602  19.874  0.3430  0.0977  0.1936
23753W        W66769   7.389  18.034  15.020 -0.0345  0.5080  0.0990
23754W        W66770   6.102  12.130  14.666  0.6014  0.1287  0.1129
23755W        W66771  14.946  33.707   2.886 -0.3781 -0.1039 -0.2023
23756W        W66772   9.973  27.091   8.478 -0.2003  0.2529 -0.2233
23757W        W66773   8.546   9.604  27.537  0.0176 -0.0755 -0.0034
23758W        W66774   7.539  17.436  15.912 -0.3448 -0.3184  0.3816
23759W        W66775  12.685  21.411  21.255  0.1132 -0.0318 -0.3701
23760W        W66776   5.192  13.779  25.413 -0.1226  0.0411  0.0958
23761W        W66777  22.644   6.285  17.372  0.1095  0.0838  0.0747
23762W        W66778  30.712  13.755  18.473 -0.0448 -0.3708  0.1585
23763W        W66779   1.315   5.546  21.098  0.0448  0.0768 -0.0449
23764W        W66780   7.784   6.049  18.567  0.0151 -0.1051 -0.0631
23765W        W66781  13.243  33.953  22.984  0.0033 -0.1128  0.4575
23766W        W66782  23.507   9.155   8.530 -0.1573 -0.0491  0.1222
23767W        W66783   0.321  17.865  22.952  0.0772  0.0621  0.0130
23768W        W66784  29.643  12.780  22.781  0.1439 -0.0723  0.3292
23769W        W66785   8.424  15.854  18.637 -0.0543  0.1401 -0.5263
23770W        W66786  18.171  16.805  16.136 -0.0912  0.0245 -0.0245
23771W        W66787   3.277   6.363  14.592  0.1503 -0.0628  0.0750
23772W        W66788   3.522   2.720  26.376 -0.0617  0.0678  0.3203
23773W        W66789  31.651  10.686  18.887 -0.2375  0.0049  0.0346
23774W        W66790  19.629  24.263  21.335  0.3141  0.2061  0.1156
23775W        W66791   4.802   9.406  15.943 -0.0235  0.0641  0.3255
23776W        W66792   2.437   3.950  27.016 -0.0174 -0.0730 -0.1573
23777W        W66793  20.939  10.739  28.890  0.2863  0.3075 -0.0324
23778W        W66794  12.346  16.631  23.302  0.1760 -0.1890  0.0156
23779W        W66795   1.848   8.034  18.209  0.2593 -0.0991  0.0552
23780W        W66796   8.579  14.725  13.922 -0.1867  0.0697  0.1294
23781W        W66797   7.702   2.694  23.126  0.0474 -0.0258 -0.0966
23782W        W66798  32.089  12.173  18.460  0.0098 -0.0052 -0.2461
23783W        W66799  26.859  11.682  20.127 -0.0349  0.1739 -0.2780
23784W        W66800  28.171  12.905   9.642 -0.1719  0.0011  0.0870
23785W        W66801  11.849  11.981   5.416  0.3069  0.2809  0.1728
23786W        W66802   7.556  24.849  17.772  0.3061 -0.1366 -0.0806
23787W        W66803   5.367   4.715  22.572  0.0218  0.0307 -0.2048
23788W        W66804   5.709  17.756  15.569  0.3001 -0.2541 -0.0980
23789W        W66805   5.188  13.251   4.413  0.0565  0.0383  0.0817
23790W        W66806  19.003   1.815   6.917 -0.1397 -0.3338  0.0550
23791W        W66807   7.701  31.217  26.144 -0.1068 -0.3315 -0.1121
23792W        W66808   6.522  14.627  19.905 -0.2293 -0.0746  0.3088
23793W        W66809   8.053  28.313   5.075  0.2566 -0.1031 -0.1635
23794W        W66810  28.178  14.614   8.047 -0.1925  0.2742  0.2699
23795W        W66811  10.610  28.217  23.486  0.3143  0.0710  0.0932
23796W        W66812   5.553   6.169   0.647 -0.1270 -0.1153  0.0943
23797W        W66813   2.701   6.903   1.593  0.2715 -0.0612  0.5376
23798W        W66814  12.519   0.000  14.265  0.0032  0.0120  0.0593
23799W        W66815   5.221  11.951  16.966  0.1009  0.0872 -0.1172
23800W        W66816  10.598   8.254  18.903  0.4261 -0.0196 -0.2456
23801W        W66817  11.292   8.822  26.006 -0.3241 -0.0534  0.0883
23802W        W66818  34.390   6.377  21.279  0.2919 -0.1860 -0.0276
23803W        W66819   3.418  14.680   4.350  0.1127  0.2829  0.0930
23804W        W66820  11.356  32.849  28.623  0.1312 -0.1032 -0.3423
23805W        W66821  18.677   0.882  21.758  0.1058 -0.1120 -0.0352
23806W        W66822  23.548  14.061  18.021 -0.1822 -0.0116  0.3278
23807W        W66823  21.809  11.459  20.123 -0.1084 -0.1801 -0.1071
23808W        W66824  26.121  24.695   0.343  0.2629  0.3086 -0.2253
23809W        W66825  10.257  13.692  19.926 -0.1153 -0.3335 -0.0789
23810W        W66826   1.820   9.947  28.438 -0.2624 -0.0794  0.4340
23811W        W66827   8.338   7.149  24.449 -0.0893  0.0106  0.1200
23812W        W66828   2.533  19.413   0.898  0.1161 -0.4541 -0.0241
23813W        W66829   4.834  14.903  15.823  0.1398 -0.2776  0.1432
23814W        W66830  20.251  31.170  17.112  0.0274  0.3898  0.1064
23815W        W66831  30.978  20.460   2.684  0.2365 -0.0413  0.2662
23816W        W66832  14.821  30.846  28.278 -0.1509  0.0796 -0.0108
23817W        W66833   2.870  10.616  20.067 -0.2636 -0.0548 -0.0755
23818W        W66834  17.713  11.536  18.198  0.0553  0.4177  0.1639
23819W        W66835   2.862   1.808  24.910  0.0576  0.1507 -0.0107
23820W        W66836   9.953   7.996  15.871  0.0775 -0.1306  0.1121
23821W        W66837  28.671   1.943  28.561  0.0633  0.3338 -0.2544
23822W        W66838  30.239  14.117  19.397  0.1384 -0.0122  0.3095
23823W        W66839  26.865   8.207  20.020  0.0228 -0.1559  0.2194
23824W        W66840  13.620  34.514  25.326  0.2913  0.1088 -0.1264
23825W        W66841  23.202   6.420  15.897 -0.0891 -0.2884 -0.2367
23826W        W66842  15.649   8.692  15.615 -0.4998  0.0467 -0.1671
23827W        W66843   8.916  21.808  14.781 -0.0545 -0.2991  0.1695
23828W        W66844   9.552  30.649  23.842  0.0310  0.1483 -0.0350
23829W        W66845   6.407  15.191  17.838 -0.0969  0.1843  0.0899
23830W        W66846  24.277   3.410  18.146  0.0969 -0.0652 -0.0236
23831W        W66847   3.536   1.458  23.315 -0.0483  0.0221  0.0256
23832W        W66848   9.828  10.980   2.817 -0.2171  0.0243  0.3306
23833W        W66849   4.699  16.921  20.477 -0.1672 -0.0065  0.2315
23834W        W66850   3.767  11.154  17.098 -0.1842 -0.2672 -0.1703
23835W        W66851   1.768  15.147  21.041 -0.2355 -0.0581  0.2568
23836W        W66852  23.170   8.844  28.243 -0.1472 -0.1077  0.0578
23837W        W66853  34.067   8.387  25.907 -0.0474 -0.0373 -0.0364
23838W        W66854   1.199   2.939  27.464  0.0668  0.1034  0.0221
23839W        W66855   6.544   4.478  21.414  0.0395 -0.3573 -0.0420
23840W        W66856  13.200  33.901  24.797  0.0914 -0.0336 -0.0084
23841W        W66857  22.505   4.860  16.744  0.0807  0.0352  0.0142
23842W        W66858  16.467  14.131  12.486 -0.0801  0.1544 -0.0729
23843W        W66859   3.200  27.834  18.972 -0.2547 -0.1729  0.2603
23844W        W66860   1.459  18.572  16.387  0.3077  0.1475  0.0124
23845W        W66861  29.868   9.277   0.497 -0.2272 -0.0286 -0.0181
23846W        W66862   4.518  14.723  22.388  0.0235  0.1547 -0.0314
23847W        W66863  26.545  27.223  18.307  0.0994  0.2362 -0.0157
23848W        W66864   6.291  10.074  24.593 -0.0290 -0.1017  0.0886
23849W        W66865  18.422   5.980  17.414 -0.0479  0.0604 -0.0219
23850W        W66866  33.337  16.539  22.363 -0.1646 -0.1929  0.2630
23851W        W66867  30.834  32.149  16.516 -0.1840 -0.1898 -0.1226
23852W        W66868  33.161   9.359  17.085 -0.2113  0.0142 -0.1285
23853W        W66869  34.336  14.289  25.954 -0.1855  0.4879 -0.1423
23854W        W66870   9.949  23.431   0.407  0.1723 -0.0054 -0.3430
23855W        W66871   0.926  15.775   6.386 -0.3810 -0.1064  0.1294
23856W        W66872  13.882   5.601  17.771 -0.0775  0.1735 -0.4305
23857W        W66873   0.482  33.307  26.496  0.1186  0.1385  0.0079
23858W        W66874  16.894  26.544  18.053  0.0791 -0.1697  0.1484
23859W        W66875  34.631   0.981  18.063 -0.0167  0.2254 -0.2527
23860W        W66876  14.668   8.517   1.441 -0.1454  0.1825  0.2248
23861W        W66877  30.124  12.087  23.266  0.0146  0.0753 -0.0461
23862W        W66878  32.842  17.738  15.103 -0.0779 -0.3425 -0.2362
23863W        W66879   3.307  14.990  27.294  0.0062 -0.0020 -0.1391
23864W        W66880  14.216  30.422  20.964 -0.2427  0.1536  0.0991
23865W        W66881   3.512  22.778  20.623 -0.3128  0.2012 -0.0206
23866W        W66882  16.293  12.975  14.453 -0.0470 -0.3216 -0.0429
23867W        W66883  27.696   4.479  20.395 -0.1062 -0.2691 -0.0470
23868W        W66884   0.013  16.454  15.027  0.2003  0.0471 -0.0302
23869W        W66885   2.072  13.786  14.940 -0.0863  0.2933 -0.0273
23870W        W66886  22.629  25.852  18.233  0.0278  0.1536  0.1186
23871W        W66887   1.547  16.637  27.273  0.1402  0.0463 -0.1060
23872W        W66888   1.518   4.822  14.927  0.2121  0.0210  0.4050
23873W        W66889  20.181   5.092  24.796 -0.0496 -0.1568  0.0282
23874W        W66890  25.061   7.938  15.506 -0.1806  0.0915  0.2639
23875W        W66891  10.455  11.467  23.639  0.0975  0.2459 -0.2250
23876W        W66892   9.272  25.091  13.906 -0.2605 -0.1095 -0.0233
23877W        W66893  16.630  18.292  23.749  0.1140 -0.3210 -0.2611
23878W        W66894   8.814   2.759  23.097  0.2100  0.0355  0.3850
23879W        W66895   3.632  20.663  28.730 -0.0511  0.1088 -0.2238
23880W        W66896  17.167  27.673  25.984 -0.0667 -0.3445  0.0370
23881W        W66897   9.568   1.323  16.955 -0.1284 -0.0018 -0.0387
23882W        W66898  15.663   0.940   2.135 -0.0996  0.1840 -0.2774
23883W        W66899  31.884   3.388  19.326 -0.0778  0.0795  0.2056
23884W        W66900  19.313  11.577   0.682 -0.1175 -0.2091 -0.4046
23885W        W66901  19.817  11.464  27.063 -0.0271 -0.3433  0.2634
23886W        W66902  11.035   9.334  25.640  0.0680 -0.0724  0.1691
23887W        W66903   6.472   7.468   3.385  0.0025 -0.2306  0.1806
23888W        W66904   1.390  12.550  21.681 -0.0425 -0.0191 -0.1295
23889W        W66905   0.153   8.592  17.959  0.1952 -0.1697 -0.1127
23890W        W66906  33.404  14.487  20.751 -0.0292  0.3425  0.0194
23891W        W66907   7.541  19.041   6.332 -0.2137  0.2153  0.0297
23892W        W66908  17.047   9.504  25.322 -0.0048 -0.0962  0.0125
23893W        W66909   2.646   2.200  16.216 -0.0645 -0.2843  0.0452
23894W        W66910   1.816   3.548  14.916  0.0600 -0.3363 -0.0375
23895W        W66911   8.211  14.613  23.462  0.0031  0.1019  0.0987
23896W        W66912  29.348  34.451  18.312  0.0215 -0.4240 -0.2191
23897W        W66913  33.005   1.230  27.822  0.0875 -0.1720 -0.1341
23898W        W66914  19.773  26.450  26.059  0.2047  0.1061  0.0000
23899W        W66915   1.280  13.831  28.233  0.0590  0.1852 -0.1844
23900W        W66916   7.205   8.197  24.137 -0.2135 -0.1354  0.1673
23901W        W66917   3.104   8.872  19.332 -0.0437  0.0250 -0.0573
23902W        W66918  10.817   5.462  26.300  0.1801  0.2621 -0.2306
23903W        W66919  26.171  19.998  23.928 -0.2440  0.2831  0.1024
23904W        W66920   9.321   5.490  26.595  0.2756  0.0482  0.0356
23905W        W66921  11.328   7.840  24.609 -0.3362 -0.1618  0.0074
23906W        W66922   2.010   7.439  19.581 -0.3374 -0.2327  0.1074
23907W        W66923  11.684  14.560  28.580  0.0237  0.1215 -0.1063
23908W        W66924   8.870   2.265  21.746 -0.0122  0.1464  0.0770
23909W        W66925  20.827   0.552  28.053  0.4195 -0.2572 -0.4240
23910W        W66926   9.536  11.478   1.003  0.1279  0.0691  0.1535
23911W        W66927   0.370   3.481  28.311  0.0074  0.4195 -0.1057
23912W        W66928  28.175   9.044  26.964 -0.0479  0.1617  0.0710
23913W        W66929  27.855  34.758  17.572 -0.2943  0.1040  0.1876
23914W        W66930  28.649   8.031  20.127 -0.1735 -0.2457  0.0027
23915W        W66931  23.161   1.208  20.122  0.1427 -0.1553 -0.1508
23916W        W66932   8.322   9.179  21.994  0.0858 -0.2896 -0.0489
23917W        W66933  13.371  30.191   0.369  0.0948  0.2251 -0.3123
23918W        W66934   6.871  32.560  16.465  0.2245 -0.2945 -0.0363
23919W        W66935   7.887  20.974  20.128 -0.1125  0.3003  0.2268
23920W        W66936  12.832   8.108  14.787  0.5271 -0.2882 -0.0809
23921W        W66937   9.073  13.662  16.090  0.1579  0.1813  0.1779
23922W        W66938  23.966   3.519  24.377  0.1709  0.0159 -0.4513
23923W        W66939   3.260   7.001   9.257  0.2088 -0.2366 -0.1103
23924W        W66940   7.164   0.354  25.356  0.1247 -0.2617  0.0282
23925W        W66941   6.305   4.118  18.559  0.1614  0.0104 -0.0448
23926W        W66942   4.850  15.905  15.274 -0.1565 -0.1419 -0.2939
23927W        W66943   0.297  18.367  20.233  0.0654  0.0450 -0.0917
23928W        W66944  25.199   6.887  18.156  0.2111 -0.0394  0.2717
23929W        W66945  16.653   3.957  15.248  0.0550  0.1570  0.0437
23930W        W66946   7.445   2.926   0.030 -0.0404 -0.0878  0.0398
23931W        W66947   2.446   1.162  21.137  0.0903  0.2444 -0.0829
23932W        W66948   6.444  13.767  25.434 -0.0548  0.2292  0.2736
23933W        W66949   6.777  18.947  24.792  0.1189 -0.0745  0.0621
23934W        W66950  16.978  32.579  27.722 -0.0332  0.4021 -0.2613
23935W        W66951  19.420   8.784  28.487 -0.0675 -0.0559  0.2080
23936W        W66952   1.824   8.147  16.310 -0.0685 -0.2351 -0.3413
23937W        W66953  26.905  28.424  16.174  0.2241 -0.0132 -0.2945
23938W        W66954  13.131   4.095  21.727  0.0498  0.1252  0.1787
23939W        W66955  15.816  27.451   0.648 -0.2047 -0.2253 -0.1493
23940W        W66956  10.618   8.048  25.689 -0.2555 -0.0293  0.2482
23941W        W66957  21.093   5.962  28.652  0.1171 -0.2732  0.0238
23942W        W66958   6.281  30.270  23.481  0.2167  0.2925 -0.4336
23943W        W66959  19.445  16.340  12.713  0.0812 -0.2061 -0.4044
23944W        W66960  15.555   0.124  23.901  0.3110  0.0869  0.0833
23945W        W66961  31.845   8.250  15.554  0.1152 -0.2124  0.0087
23946W        W66962   1.289   1.522  20.781  0.2328 -0.0029  0.0193
23947W        W66963  18.844  31.268   1.553  0.0012  0.0576 -0.0931
23948W        W66964  24.778   9.153  15.231  0.2455 -0.1918 -0.0284
23949W        W66965  11.211  33.384  23.964  0.2614  0.2625  0.0919
23950W        W66966  26.051  23.322  14.920  0.3354 -0.1323 -0.2252
23951W        W66967   0.898  15.158  28.238 -0.0825 -0.1310  0.1598
23952W        W66968   9.708  13.156  23.029  0.2016  0.0347  0.1596
23953W        W66969  34.052   0.938   5.002  0.1122  0.1958 -0.2676
23954W        W66970  17.046  32.800  16.940  0.0357  0.0062  0.4877
23955W        W66971  12.106   8.966  20.335 -0.1047 -0.1996 -0.1368
23956W        W66972  11.301  20.190  19.782  0.1672 -0.2541  0.3174
23957W        W66973  18.880   7.960  14.457 -0.0050 -0.0239 -0.0761
23958W        W66974   2.326   5.179  15.993  0.0869 -0.0464 -0.0782
23959W        W66975   7.850  13.538  21.062  0.2168  0.4621 -0.1040
23960W        W66976  26.771  18.816  17.438  0.0051  0.3381  0.1599
23961W        W66977   2.961  33.069   2.397 -0.1888 -0.2548 -0.0245
23962W        W66978  30.268  34.234  16.811  0.0820  0.0410  0.1941
23963W        W66979  11.068  17.856   7.847 -0.2775  0.0554 -0.0285
23964W        W66980  11.806  20.906   5.992  0.0655  0.0776 -0.2018
23965W        W66981  14.113  28.697  19.527 -0.0603  0.0881  0.1071
23966W        W66982  11.119   7.940  20.053 -0.0816 -0.3380 -0.0412
23967W        W66983  22.480  10.308  19.594  0.2573  0.0203  0.3747
23968W        W66984   1.339   7.374   5.078 -0.1566 -0.1738 -0.0764
23969W        W66985   0.278   3.862  26.412  0.0429  0.0634 -0.1691
23970W        W66986  34.379  33.530  26.474  0.0435  0.2507 -0.2254
23971W        W66987  16.792  12.743  16.167 -0.1966  0.0073 -0.2658
23972W        W66988   0.788   6.819  23.783  0.2146 -0.0512  0.1271
23973W        W66989  11.985  12.258  24.523 -0.1790  0.2414  0.0513
23974W        W66990   1.958  13.289   3.398 -0.0063  0.1779  0.4392
23975W        W66991   1.565  10.354  23.603  0.1597 -0.0593 -0.0128
23976W        W66992   1.898   6.589  27.297 -0.0486 -0.1713 -0.0817
23977W        W66993  16.314  13.596  12.495 -0.0999 -0.1892  0.1971
23978W        W66994   7.859   7.391  27.617 -0.1453 -0.2298 -0.5023
23979W        W66995   4.274   5.594  20.740 -0.2985  0.2635  0.0693
23980W        W66996  18.728  33.638   8.345 -0.2335 -0.1626  0.0635
23981W        W66997   0.504   5.309  19.336 -0.1865 -0.3725 -0.1638
23982W        W66998  12.349  11.935   3.769 -0.0003  0.3573 -0.1230
23983W        W66999  29.756   0.451  28.927  0.2354 -0.0576  0.2009
23984W        W67000   6.378   5.907  24.111 -0.2460  0.0723 -0.0903
23985W        W67001  11.956  32.941  23.847 -0.2171  0.0875 -0.1367
23986W        W67002  12.951  15.506   2.597  0.4164 -0.1623  0.1269
23987W        W67003  33.623  28.817  21.830  0.0902 -0.2418  0.4558
23988W        W67004  30.490  19.575  20.887  0.1895  0.2412  0.1665
23989W        W67005  29.463  20.745   1.163 -0.2386 -0.1031 -0.1929
23990W        W67006  13.294  34.259  22.079 -0.0076 -0.2322  0.0188
23991W        W67007   3.947  12.635  16.152 -0.0221 -0.0037 -0.1437
23992W        W67008   6.745  12.513   7.037 -0.1366  0.0020 -0.2512
23993W        W67009   5.773  29.247  26.018 -0.0857 -0.1856 -0.1434
23994W        W67010  13.079   3.927  15.287 -0.1404  0.2099 -0.1032
23995W        W67011   6.241  10.134  14.178  0.0677  0.1833  0.0344
23996W        W67012  27.260  24.430  10.901  0.2747 -0.0182  0.0234
23997W        W67013  34.204  11.682  15.381 -0.0070 -0.0684 -0.2175
23998W        W67014  25.014   6.264  16.513  0.0785 -0.1248  0.0574
23999W        W67015   4.980   5.776  28.150 -0.2593 -0.0591  0.4519
24000W        W67016  16.193  34.340  22.330  0.0075 -0.1872 -0.0408
24001W        W67017   2.908   1.744  26.975 -0.2305 -0.0128 -0.2768
24002W        W67018  12.385  12.773  13.644 -0.1078 -0.1959  0.0811
24003W        W67019  27.517   3.847  16.657 -0.1235  0.1225  0.0090
24004W        W67020  31.496   2.421   2.903  0.1352  0.0657  0.1438
24005W        W67021   9.968  12.062  23.825 -0.1362 -0.2928  0.4116
24006W        W67022  33.417  17.289  26.255 -0.1606 -0.0489 -0.0128
24007W        W67023  14.603   9.277  23.075  0.0967 -0.4308  0.1944
24008W        W67024   4.828   4.840   7.766  0.1950  0.0806  0.1090
24009W        W67025  11.172  30.102  21.536  0.0403 -0.2719 -0.0392
24010W        W67026  15.787  10.638  20.730  0.0466  0.0201 -0.0191
24011W        W67027   2.690  20.269  24.309  0.1895  0.2538 -0.0971
24012W        W67028  30.719  11.092  27.159 -0.2309 -0.0404 -0.0643
24013W        W67029  23.646   4.137   6.856 -0.0203 -0.1034 -0.0773
24014W        W67030   4.404   4.061  28.238  0.1872  0.3588  0.0896
24015W        W67031  10.334   7.049  10.399 -0.1230  0.0315  0.0633
24016W        W67032  31.546  23.961   8.376  0.1675 -0.0786 -0.3326
24017W        W67033   2.874  19.292   4.403  0.4576 -0.1615 -0.1070
24018W        W67034   0.670   5.532   2.736  0.0427  0.3075 -0.1246
24019W        W67035  30.890  14.799  19.133  0.1318  0.0430 -0.1366
24020W        W67036  10.488  12.891   7.662  0.1038  0.0479 -0.0324
24021W        W67037  17.273  13.672  12.316  0.0973  0.0811  0.0672
24022W        W67038  29.279  17.771  20.292 -0.2452  0.3523 -0.0021
24023W        W67039  26.509  18.743   5.616  0.1500  0.1621 -0.0107
24024W        W67040  15.628  26.845  22.754 -0.2800 -0.2783  0.0408
24025W        W67041  12.730   6.873  21.428 -0.1451  0.0409  0.3261
24026W        W67042  31.258   7.808  23.989 -0.4204 -0.5275  0.5138
24027W        W67043   6.173  17.526   0.578 -0.2691 -0.3230  0.2462
24028W        W67044  31.970  22.612   7.726  0.1048  0.2148  0.0466
24029W        W67045   9.454  26.750  15.477  0.2081 -0.0651 -0.0130
24030W        W67046  14.122  11.153  18.836  0.0966 -0.2686 -0.2574
24031W        W67047  34.572  12.153   7.497  0.0410 -0.0469 -0.1491
24032W        W67048  13.343   4.186  17.009  0.1990 -0.0791 -0.1248
24033W        W67049  17.361   4.412  14.217  0.1929  0.2108  0.4330
24034W        W67050  12.648   1.339  27.804 -0.0705 -0.2273  0.1088
24035W        W67051  26.483   2.204  23.987 -0.0527  0.1037 -0.1167
24036W        W67052  28.699  33.155  26.980  0.1024  0.1695  0.0204
24037W        W67053   9.967  13.480  14.705 -0.2377 -0.2345  0.0670
24038W        W67054   6.870   1.354  24.345  0.3262 -0.0018 -0.2624
24039W        W67055  28.821  24.316  19.093  0.1846  0.0194  0.2980
24040W        W67056  10.636   8.390  27.694 -0.3263  0.0800  0.0256
24041W        W67057   7.349  33.694  22.877  0.3337 -0.2381  0.0840
24042W        W67058  27.948  31.685  17.516  0.1202 -0.0663 -0.1226
24043W        W67059  29.872   6.306  19.914 -0.1012 -0.1307 -0.1552
24044W        W67060  17.669   8.638   2.297 -0.1497  0.0738 -0.1185
24045W        W67061   0.959  13.567   5.591 -0.2177  0.0306  0.0354
24046W        W67062  16.922   2.956   8.761 -0.1861 -0.3796  0.0063
24047W        W67063  16.085   9.229  16.688 -0.1223 -0.0814 -0.2127
24048W        W67064  24.794   5.135  28.136 -0.0674 -0.3136  0.1161
24049W        W67065   7.877   6.522  26.269 -0.2249  0.0115 -0.1631
24050W        W67066  30.601   8.122  22.334  0.0804  0.0084 -0.2280
24051W        W67067  14.574   3.782  17.358 -0.4130  0.0886  0.2171
24052W        W67068  24.188   1.890  22.335  0.0905 -0.1092 -0.0294
24053W        W67069  31.753  10.556   2.585  0.1968  0.0849  0.1786
24054W        W67070  25.584   9.155  25.889  0.1152 -0.2104  0.2629
24055W        W67071   4.961  17.137   0.281  0.0473  0.0624  0.2536
24056W        W67072   3.086   3.011  23.169 -0.1908  0.0343  0.0570
24057W        W67073  19.149   6.329  24.254  0.0950 -0.2522 -0.1725
24058W        W67074   1.089  23.706  22.882 -0.0895  0.0687 -0.2902
24059W        W67075  32.730  34.397  21.838 -0.1319  0.0147 -0.0777
24060W        W67076  20.466  34.141   8.926 -0.0470  0.3966 -0.0005
24061W        W67077  13.192  16.493   5.891  0.0618  0.0788 -0.1256
24062W        W67078   6.004   6.796  20.496 -0.3659  0.0502 -0.1261
24063W        W67079   0.487  27.853  24.266 -0.2375 -0.2775  0.0627
24064W        W67080  27.497  15.672   0.786 -0.0352 -0.0413 -0.0847
24065W        W67081  15.205   5.421  26.629 -0.1180  0.2512  0.3601
24066W        W67082   1.598   5.048  17.534 -0.0335  0.1683 -0.1474
24067W        W67083   5.943   7.397  29.084  0.2505  0.3152 -0.0219
24068W        W67084   8.215   5.373  25.434 -0.1157 -0.1409 -0.3329
24069W        W67085  34.017   4.180   4.961  0.1100 -0.2421 -0.1145
24070W        W67086   8.351  12.990   1.201  0.1776 -0.0289 -0.2387
24071W        W67087  14.101   8.983   1.085 -0.1886  0.1033 -0.3797
24072W        W67088  11.731  15.931  26.746  0.2383  0.1488 -0.1398
24073W        W67089   6.576  32.968  10.537  0.2204 -0.0619  0.1075
24074W        W67090   2.738  16.516  25.925  0.0588  0.1020 -0.1944
24075W        W67091  33.255  31.620  16.357  0.0024  0.0308  0.2037
24076W        W67092  20.022   7.300  24.412 -0.0205 -0.0033 -0.0464
24077W        W67093  26.525  14.148  20.030 -0.1545 -0.1832 -0.1545
24078W        W67094  28.599   0.709  17.901  0.0342  0.0045 -0.0956
24079W        W67095   1.114  33.754   6.409 -0.0536  0.0748  0.1865
24080W        W67096   2.728  22.181   1.462  0.0669 -0.2179 -0.0114
24081W        W67097   3.917  24.440  22.810  0.2266 -0.0267  0.2922
24082W        W67098   4.619   4.628   0.105  0.0232 -0.1268  0.2062
24083W        W67099  30.368   3.941  20.208 -0.1495  0.1442  0.0359
24084W        W67100  32.999  13.794  17.967  0.0663  0.0003  0.0294
24085W        W67101  18.520  32.440  28.869  0.1275  0.0627  0.2029
24086W        W67102   6.383  25.102  27.687  0.0771  0.2396  0.1051
24087W        W67103   4.880  19.091   4.309 -0.2591  0.0738  0.2358
24088W        W67104   0.774  11.404   7.005  0.1246 -0.2998  0.1177
24089W        W67105  32.973   8.978  20.801  0.0600  0.1711 -0.1334
24090W        W67106  12.933   7.202   1.081  0.0774  0.0637 -0.0863
24091W        W67107  16.164  20.038  12.960  0.3235 -0.1277 -0.1755
24092W        W67108  31.463  10.446  23.087 -0.3277  0.3359 -0.0950
24093W        W67109  30.137  14.108  24.077  0.1146  0.1833 -0.1893
24094W        W67110   1.506   9.480  17.845 -0.3860 -0.2847 -0.2466
24095W        W67111   7.974  30.094   1.221  0.0458  0.1172  0.0757
24096W        W67112  28.314  15.055  26.598  0.4110 -0.2159 -0.1494
24097W        W67113   4.760  29.576   2.358  0.0904 -0.0931 -0.1984
24098W        W67114   1.318  34.672  21.218  0.1457 -0.1301 -0.0987
24099W        W67115   0.301  13.425  26.608 -0.1205 -0.0934  0.1335
24100W        W67116  33.516  17.063  23.585  0.2322 -0.1878  0.0386
24101W        W67117  10.658   9.935  22.775  0.1425  0.1514 -0.4588
24102W        W67118   5.724  25.263  16.004  0.2070  0.0463  0.1506
24103W        W67119   5.572   6.219  23.880  0.2274  0.0321 -0.2948
24104W        W67120  22.121   5.120  16.462  0.0648 -0.2598 -0.1798
24105W        W67121  13.234  30.963  18.277 -0.2152 -0.2495  0.1809
24106W        W67122   1.914  22.560  14.374  0.2992 -0.0086 -0.3471
24107W        W67123   5.722   5.601   7.293 -0.2043  0.2092  0.0159
24108W        W67124  31.933   4.347  17.254 -0.1354 -0.2701  0.0453
24109W        W67125  27.865  13.916  24.180 -0.0670 -0.1207 -0.1017
24110W        W67126  12.726   7.088  18.298 -0.2053 -0.1351  0.2723
24111W        W67127   6.961   0.780   0.316  0.2220 -0.1810  0.2037
24112W        W67128  11.455  16.756  17.302  0.0514 -0.1117  0.0865
24113W        W67129  34.157   1.305   7.236 -0.0168 -0.2768  0.0254
24114W        W67130  12.263  11.960  22.598 -0.0606 -0.0517  0.2570
24115W        W67131   0.785  28.741  15.267 -0.0880  0.1108 -0.0860
24116W        W67132   6.211  30.262   6.138 -0.0680 -0.0693 -0.0818
24117W        W67133  34.406   0.222  21.258  0.1844  0.1197  0.0829
24118W        W67134   8.666   8.542  20.938 -0.0328  0.0681  0.2178
24119W        W67135  18.531  14.188  28.899  0.1527 -0.1219 -0.2384
24120W        W67136  26.047  17.784  16.840 -0.4328 -0.2079 -0.2391
24121W        W67137   6.402  16.387  21.173 -0.0075  0.0312  0.0388
24122W        W67138   4.785  12.322  24.723  0.1317 -0.1993  0.0224
24123W        W67139  31.597  33.311   4.326  0.1753 -0.2528  0.0535
24124W        W67140   9.739  25.173  13.895  0.1724 -0.0803 -0.0901
24125W        W67141   5.197  19.398  16.757  0.2068 -0.1184 -0.1592
24126W        W67142  13.957  11.986  26.793 -0.1720 -0.0389  0.2138
24127W        W67143  26.212  12.773  26.409  0.0616  0.1097  0.2167
24128W        W67144   9.318   9.086  21.494 -0.2195 -0.1245 -0.1927
24129W        W67145   0.336   1.723  25.085  0.1849  0.0990 -0.0519
24130W        W67146  28.836  15.054  13.482 -0.2973 -0.0714 -0.2292
24131W        W67147   9.751  21.308  17.248  0.1428  0.0521  0.2834
24132W        W67148   9.299   2.325  15.086  0.2809  0.0228 -0.3195
24133W        W67149   5.033   2.079  20.937 -0.0733  0.1034 -0.2235
24134W        W67150  19.571  19.549  22.290 -0.0526  0.0746  0.3082
24135W        W67151   5.056  24.062   2.357  0.2558  0.4849 -0.1311
24136W        W67152   9.113  16.445  13.162  0.2326  0.0180  0.0643
24137W        W67153  17.005  29.255  16.942 -0.0415  0.0176 -0.2377
24138W        W67154   3.353  33.508  26.139  0.1592 -0.0174  0.0303
24139W        W67155  16.320   3.331   2.172 -0.0330  0.0087 -0.0053
24140W        W67156  27.733   1.441  24.377 -0.0721  0.2766  0.3050
24141W        W67157  12.395   3.967  16.336  0.4146  0.0605 -0.0229
24142W        W67158  32.886   7.264  22.330 -0.1843 -0.0190 -0.2491
24143W        W67159  29.776  21.348  18.427 -0.2984 -0.0218  0.1284
24144W        W67160  22.902   3.524  27.269  0.0258 -0.1111  0.3772
24145W        W67161  20.588  29.155   5.175 -0.1986 -0.0041 -0.0482
24146W        W67162  17.020  25.931  25.906 -0.0665 -0.0373  0.1874
24147W        W67163  25.148   7.307  20.800 -0.0636 -0.0093 -0.0249
24148W        W67164  31.249   7.749  15.280  0.0173 -0.3543  0.0880
24149W        W67165   5.079  27.027  21.457 -0.0514  0.1447 -0.1661
24150W        W67166   1.608   7.667  14.679  0.0879  0.2402 -0.0379
24151W        W67167   1.703   6.491   1.077 -0.1701 -0.0389  0.0512
24152W        W67168   4.789  20.491   1.416 -0.6777  0.0556  0.2412
24153W        W67169  12.863   4.943   1.625  0.0961  0.0631 -0.0490
24154W        W67170   2.687  26.218  15.721 -0.1037 -0.0721 -0.1127
24155W        W67171  16.857  20.335  23.919  0.1731 -0.1525  0.2671
24156W        W67172  11.591   2.682   3.185 -0.2942  0.2658 -0.2744
24157W        W67173   9.433   4.040   9.549 -0.0459 -0.2466 -0.1745
24158W        W67174   9.647  14.257  16.472 -0.1441  0.1394  0.0958
24159W        W67175  15.813   4.722  21.468  0.4114 -0.4770 -0.1922
24160W        W67176  22.334  34.580  28.650  0.0156 -0.0072  0.2566
24161W        W67177   3.443   1.910  27.408 -0.0724 -0.1409  0.0510
24162W        W67178   8.008  12.660  24.430 -0.1204 -0.2471  0.1304
24163W        W67179   1.819  16.357   7.518 -0.0063  0.3583  0.0952
24164W        W67180  20.833   7.464  15.333 -0.0262  0.1805 -0.0248
24165W        W67181  26.439   8.595   4.254  0.0398  0.0176 -0.2059
24166W        W67182   4.754   0.880   7.492 -0.3480  0.0853 -0.0226
24167W        W67183   7.946  14.043  17.473  0.0191  0.3259  0.2042
24168W        W67184   9.236   0.123   3.252 -0.0756 -0.2000 -0.0283
24169W        W67185  34.388   9.450  22.178 -0.4799  0.0799  0.2182
24170W        W67186   0.183   1.186  24.721  0.0548  0.2772 -0.0375
24171W        W67187  29.235   5.537  25.537  0.1813  0.0461 -0.0814
24172W        W67188  34.609  21.909  20.142  0.2375 -0.1770  0.3019
24173W        W67189   4.920   7.924  17.971 -0.0992 -0.0024 -0.0213
24174W        W67190  32.801  14.607  27.049 -0.0727 -0.2717 -0.1107
24175W        W67191  11.249  11.955   1.223  0.2862 -0.0837  0.0080
24176W        W67192  26.486   8.567  19.768  0.0127  0.0932  0.1597
24177W        W67193  15.849  11.292  17.415  0.1165 -0.3309  0.0048
24178W        W67194   5.292   5.407  17.315  0.0632 -0.1854 -0.1366
24179W        W67195  29.040   8.065  20.466  0.0370 -0.0065 -0.1328
24180W        W67196   1.129  22.503  14.640  0.0449  0.1098  0.1918
24181W        W67197  30.809  33.869   0.089 -0.0281  0.2290  0.3837
24182W        W67198  32.936   1.535  27.290 -0.0133  0.1641  0.0678
24183W        W67199  12.807  30.300  22.113 -0.1937  0.1404  0.0610
24184W        W67200   7.743   7.920  28.107 -0.3041 -0.0729  0.0750
24185W        W67201   5.884  11.184  28.930 -0.2524  0.1713  0.0504
24186W        W67202  32.412  33.699  25.403  0.1505  0.2132  0.2363
24187W        W67203  10.268  10.892  26.569 -0.2146  0.1866 -0.0497
24188W        W67204  10.824   6.551  29.152  0.1216 -0.2458 -0.0704
24189W        W67205  34.428   9.116  24.295  0.1168 -0.1510 -0.1428
24190W        W67206  33.704   1.405  26.124 -0.2645 -0.0463 -0.0044
24191W        W67207  18.769  34.230  27.423 -0.1220  0.0984 -0.2337
24192W        W67208  22.387   9.767  19.530  0.2631 -0.0026  0.0118
24193W        W67209  15.211  25.668  24.910 -0.2501  0.1284 -0.1165
24194W        W67210   4.881  22.258  22.702  0.2306  0.3040  0.1856
24195W        W67211  31.750   7.693  15.411  0.3291  0.1297 -0.1042
24196W        W67212   7.385  10.891  22.213  0.0054 -0.1638 -0.1956
24197W        W67213  34.303  22.658  19.813  0.0254 -0.1733 -0.0013
24198W        W67214   8.098  29.390  29.252  0.0202 -0.0822  0.2763
24199W        W67215  23.280   4.249  21.421 -0.1109  0.1860  0.1905
24200W        W67216   7.940   5.162  22.256 -0.0705 -0.1331 -0.0421
24201W        W67217  28.585   6.679  26.200  0.2083  0.0526 -0.1763
24202W        W67218  15.282   0.520  16.029  0.3832 -0.1520 -0.2083
24203W        W67219  21.605   4.466  19.612  0.1920  0.0398  0.0566
24204W        W67220  15.088   8.091   0.010  0.0931 -0.2217 -0.1200
24205W        W67221   7.089  30.406   1.514  0.4691 -0.2372 -0.2953
24206W        W67222  26.072  29.406  21.276  0.1254  0.0657 -0.2528
24207W        W67223  10.014   4.424  27.056  0.0559  0.2236 -0.0524
24208W        W67224  15.400  19.142  24.029 -0.0232 -0.1063  0.1126
24209W        W67225   9.052   2.011  22.139  0.2179 -0.0725  0.0243
24210W        W67226  29.354  24.266  20.222  0.1764 -0.1448 -0.3712
24211W        W67227   1.759  27.578   3.163 -0.0741  0.2537  0.4626
24212W        W67228   6.895  19.445   1.545 -0.3886 -0.2006 -0.2699
24213W        W67229  19.434  29.633   2.492  0.2692 -0.0765  0.2999
24214W        W67230  20.122   4.998  20.602 -0.3927  0.3213 -0.1210
24215W        W67231  14.504  29.295  19.230  0.1741 -0.3070  0.0137
24216W        W67232   4.337   9.125  20.945  0.1834 -0.0431  0.0345
24217W        W67233  16.956  24.315  19.302 -0.0872  0.1534 -0.0375
24218W        W67234  30.086   5.435  15.188  0.2089 -0.3884 -0.0626
24219W        W67235  33.912  19.091  18.009  0.2656 -0.2956  0.1268
24220W        W67236  14.612  16.338  19.829  0.2107  0.0411 -0.2424
24221W        W67237  10.203  30.633  14.959  0.3652  0.3739  0.0619
24222W        W67238   0.966  15.614   2.011  0.2910 -0.1105  0.1208
24223W        W67239  12.849  34.075   3.646  0.1039 -0.0138 -0.0542
24224W        W67240  32.336  26.626  27.331 -0.1897 -0.1154  0.3222
24225W        W67241   0.091  29.428  22.558 -0.2071 -0.3275  0.0244
24226W        W67242   3.755  30.245  23.577  0.1506 -0.1378  0.2870
24227W        W67243  28.131  22.038  19.982  0.1286 -0.1158  0.2075
24228W        W67244   4.033  25.249   7.976 -0.0723  0.1007  0.2764
24229W        W67245  28.762  28.397  29.104 -0.1508  0.0917 -0.1561
24230W        W67246  19.829  28.884  16.768  0.1450 -0.4161 -0.2453
24231W        W67247  32.681  10.387  19.581 -0.0180 -0.2622 -0.1732
24232W        W67248  12.028  27.013  16.889 -0.1568  0.0637 -0.5625
24233W        W67249   9.978  18.860  15.441  0.4637  0.1261 -0.1292
24234W        W67250   8.326   7.265  29.086 -0.0801 -0.0360  0.1868
24235W        W67251   5.535  24.676  21.734  0.0954 -0.4524  0.0326
24236W        W67252  25.721  13.136  24.523 -0.0870  0.1696 -0.1232
24237W        W67253  31.706  14.176  22.309  0.1341 -0.3041  0.0828
24238W        W67254   6.427  15.915  27.009 -0.2377 -0.0442 -0.2127
24239W        W67255   8.383  15.808  14.618 -0.1537 -0.1514  0.1775
24240W        W67256   9.188   8.016  27.599  0.4474 -0.0803  0.2528
24241W        W67257  25.179  14.420  24.102 -0.2449  0.2382  0.0126
24242W        W67258  33.873  22.925   0.086  0.0080 -0.2623  0.0851
24243W        W67259  34.573  29.482   0.960  0.2493  0.1540 -0.0341
24244W        W67260  26.202   1.028  23.793  0.3977 -0.0543 -0.0010
24245W        W67261   3.144   3.446   8.164  0.0793  0.0258  0.3133
24246W        W67262  12.559   8.706   3.795 -0.1537  0.1636 -0.0436
24247W        W67263   4.134  23.983   5.649  0.0485  0.1058 -0.1115
24248W        W67264  32.740  14.627  23.622 -0.0924  0.1380 -0.0810
24249W        W67265   1.063  17.413   5.252 -0.2176 -0.3700 -0.0986
24250W        W67266   0.490  11.265  19.434  0.1896  0.0013 -0.0908
24251W        W67267  10.421  23.496  23.304  0.3135  0.1523 -0.1478
24252W        W67268  14.360  13.154  20.323  0.3895  0.3916  0.2014
24253W        W67269   9.358   4.337  14.136 -0.0224  0.3642  0.1230
24254W        W67270  34.737   5.428  23.358  0.1238  0.2709  0.2088
24255W        W67271   9.802  19.082  27.231 -0.0800  0.0175 -0.0898
24256W        W67272  12.675   3.142  28.648 -0.2363  0.0582 -0.0289
24257W        W67273  14.297  10.332   4.062 -0.0886 -0.1049  0.0310
24258W        W67274  29.418   1.106   2.015  0.2414 -0.0111 -0.2488
24259W        W67275  34.660  10.604  23.062 -0.2728  0.2516 -0.1484
24260W        W67276   7.165  11.961   9.148  0.1923 -0.3835  0.1164
24261W        W67277   4.718   0.465  17.947 -0.1351  0.1733 -0.1444
24262W        W67278  34.516   8.238  25.739  0.1774  0.2055  0.0095
24263W        W67279  14.171  25.359  20.014  0.0719 -0.0350  0.1056
24264W        W67280  27.868   5.819  20.259  0.0932  0.3383 -0.0571
24265W        W67281  25.073   0.165  27.954  0.1499  0.0704 -0.0063
24266W        W67282  32.654   7.511   7.560 -0.2493  0.1039 -0.1497
24267W        W67283   3.325  18.766  18.292 -0.0947 -0.0658 -0.2757
24268W        W67284   2.595  21.280  17.522 -0.2114  0.1384  0.2169
24269W        W67285  17.140   2.290  21.831 -0.1208 -0.0533  0.0003
24270W        W67286  28.518   8.666  18.744  0.0152  0.0008  0.0144
24271W        W67287   4.468  17.338  15.544 -0.0415 -0.0153  0.1316
24272W        W67288  13.867  12.660   0.442 -0.2054 -0.3357 -0.1110
24273W        W67289   1.352  15.559   5.387  0.0733  0.0332  0.1206
24274W        W67290  20.010  10.801  24.651 -0.2270 -0.0038  0.0028
24275W        W67291   3.688   5.775   6.005  0.0980 -0.0963  0.3239
24276W        W67292   8.341  16.534  16.643  0.3283  0.0642  0.1192
24277W        W67293  12.173  23.157   2.979 -0.1291 -0.2472 -0.1928
24278W        W67294   8.129   6.076  21.162  0.0818  0.0141 -0.2718
24279W        W67295  12.298  17.620  23.835  0.0639 -0.0676 -0.2962
24280W        W67296  20.403  11.979  15.114 -0.0813  0.1855 -0.0731
24281W        W67297  22.622  10.211   0.746 -0.1051  0.3493  0.1549
24282W        W67298   4.005   2.702  26.672 -0.1401 -0.0989 -0.1973
24283W        W67299   8.449   3.634  17.329  0.3127  0.0312 -0.0072
24284W        W67300  33.237  19.489   4.517  0.0130  0.0854 -0.0410
24285W        W67301  15.511  31.102  17.892  0.2648  0.1751  0.0056
24286W        W67302   2.182  29.171  20.327  0.0179  0.0944  0.0537
24287W        W67303   2.476   1.081  18.140  0.0060  0.1348 -0.0640
24288W        W67304  11.454  10.188  21.534 -0.1084  0.1611 -0.1284
24289W        W67305  14.195   6.751  26.236 -0.0323  0.0217 -0.0666
24290W        W67306  26.689   3.890   6.060  0.1152 -0.0604 -0.0196
24291W        W67307  23.842   6.918   5.152  0.0802  0.1872  0.0411
24292W        W67308  33.544  34.728  19.542 -0.1056 -0.1202  0.2427
24293W        W67309  27.983   2.981  17.528  0.0929 -0.1442  0.4008
24294W        W67310  21.115  11.981  16.014 -0.0465  0.0151  0.0098
24295W        W67311  23.841  15.518  19.596  0.0664  0.4160 -0.0618
24296W        W67312   2.829  11.760   5.829 -0.1854 -0.1054 -0.4106
24297W        W67313  25.935   8.007   6.906 -0.0064 -0.0297 -0.2097
24298W        W67314  29.372   2.041   8.185 -0.0541  0.0337  0.0849
24299W        W67315   1.121   3.825  22.075  0.4092 -0.2289 -0.2310
24300W        W67316   7.961  14.722  17.268  0.2470 -0.3137 -0.0597
24301W        W67317   1.940  16.580   8.764 -0.1783 -0.1174 -0.0440
24302W        W67318  12.075   5.901   2.554 -0.1335  0.1070 -0.0737
24303W        W67319   9.715  21.216  19.574  0.0716 -0.0565 -0.1328
24304W        W67320  11.885   7.692  23.127  0.1174 -0.1560 -0.1158
24305W        W67321   9.554  32.392  19.579 -0.0988  0.0392 -0.0332
24306W        W67322  28.609  31.516   2.435 -0.1005  0.1507 -0.0600
24307W        W67323  16.606  32.930   5.584 -0.1878 -0.0179  0.3197
24308W        W67324  21.158   4.432  24.932 -0.1966 -0.1351  0.0668
24309W        W67325   7.577  17.597  24.709 -0.1422 -0.1060 -0.0551
24310W        W67326  21.182   6.077  16.464 -0.0439  0.2821 -0.3596
24311W        W67327  14.393   4.172  19.940  0.2258 -0.1659 -0.2505
24312W        W67328   5.943  32.936  21.487 -0.1174  0.3588  0.1998
24313W        W67329   5.658   6.021  15.385  0.4406  0.2398  0.1006
24314W        W67330   6.882  15.711  27.275  0.2219  0.1896 -0.0364
24315W        W67331   3.600  31.380   2.798  0.1168 -0.0307  0.0155
24316W        W67332  14.740  15.688  24.828  0.1335 -0.2944 -0.2843
24317W        W67333   1.114  17.134  14.963  0.1430  0.1806 -0.1263
24318W        W67334  20.480   5.461  16.078  0.1398 -0.0227  0.5129
24319W        W67335   3.934  16.085  17.582 -0.0886 -0.0194  0.1037
24320W        W67336   0.083  17.117  14.444 -0.0160 -0.0046 -0.3040
24321W        W67337  31.902   9.510  26.736 -0.0772 -0.2646 -0.1216
24322W        W67338  29.449  25.340  25.609 -0.1321 -0.0997  0.0515
24323W        W67339  32.303  27.074  22.346 -0.0340 -0.0746  0.3123
24324W        W67340  24.771   3.078  17.947 -0.0643 -0.1464 -0.1447
24325W        W67341   0.998  22.351   0.865  0.3168 -0.2171  0.0702
24326W        W67342   3.059  17.143  18.649  0.0065  0.4305 -0.1719
24327W        W67343  12.328   9.717   2.159  0.1247 -0.1573 -0.1927
24328W        W67344  33.751  27.238   9.221 -0.0715  0.0831 -0.5603
24329W        W67345  12.598   9.073  22.514  0.2771  0.0081 -0.0320
24330W        W67346  29.974  14.397  27.858  0.1185 -0.2323  0.2091
24331W        W67347  14.649  33.226  15.569 -0.1336 -0.0950  0.1375
24332W        W67348  29.422  20.589  18.451  0.2164  0.3943 -0.1046
24333W        W67349  17.566  32.859  16.963 -0.0732 -0.0295  0.5043
24334W        W67350   4.493  12.903  13.901 -0.0446  0.0618  0.5129
24335W        W67351  31.218  14.762  23.474 -0.0998  0.4737  0.0744
24336W        W67352  23.131  16.962  26.180 -0.0833  0.1518 -0.1673
24337W        W67353  31.020   3.437   7.387  0.0531 -0.2844  0.2105
24338W        W67354   9.926  13.065  17.540 -0.0028  0.1951 -0.2729
24339W        W67355   7.501  27.004  26.710  0.1602  0.1601  0.1084
24340W        W67356   0.383  15.520  21.080 -0.2120 -0.0632  0.3919
24341W        W67357  18.145   7.478   2.455  0.2423 -0.1931  0.0245
24342W        W67358   9.353  16.548  19.900  0.0147 -0.0910 -0.2801
24343W        W67359  24.800   0.586  17.466  0.1331 -0.1574  0.1105
24344W        W67360  30.808  28.085  20.745 -0.1916 -0.0400 -0.1382
24345W        W67361  24.860  18.763  22.371 -0.0290 -0.0167  0.1428
24346W        W67362  25.034  18.048  27.219 -0.0756 -0.0280 -0.3326
24347W        W67363  19.595   6.616  25.492  0.0303  0.0404  0.0930
24348W        W67364  10.908   4.267   0.599 -0.1155 -0.0398 -0.3520
24349W        W67365   7.284  27.359  28.174 -0.0786  0.2917 -0.1864
24350W        W67366  19.018  25.870  15.351 -0.3030 -0.0289  0.1523
24351W        W67367  12.165   0.812  19.797 -0.2669  0.1567  0.0904
24352W        W67368  13.243   8.103  14.468  0.2808 -0.0321  0.2703
24353W        W67369  15.343   1.965  21.168 -0.0153 -0.1088  0.0564
24354W        W67370   8.894  12.908   6.551  0.2571  0.0817 -0.1456
24355W        W67371   9.831  14.667  15.624 -0.1419 -0.0863  0.1843
24356W        W67372  23.910   8.385  22.226  0.0723  0.1644 -0.1647
24357W        W67373  34.474  11.582   9.534  0.0239  0.1951 -0.1669
24358W        W67374  10.466  29.058   0.683  0.1733  0.2304  0.0728
24359W        W67375  21.409  13.456  16.524  0.1239  0.0673  0.2331
24360W        W67376   5.700  25.278  15.106 -0.3435  0.0194 -0.2510
24361W        W67377   6.786  14.409  15.654  0.1180  0.0815  0.1223
24362W        W67378  17.577   8.154  24.776  0.0892  0.4089  0.1866
24363W        W67379  13.563  29.525   1.022 -0.3047 -0.1326  0.0651
24364W        W67380  34.562  18.977  24.014  0.0224  0.1099 -0.1440
24365W        W67381  32.224  23.531  20.050  0.0452 -0.0330 -0.0904
24366W        W67382  28.016   9.771   3.946  0.3133  0.3261  0.2087
24367W        W67383  29.822  22.949  20.407  0.3359  0.0087  0.1983
24368W        W67384   5.037  29.969  25.061 -0.0723 -0.1897  0.0878
24369W        W67385  12.094  21.249  14.059  0.0307  0.4099 -0.1122
24370W        W67386   3.508  32.753   3.594 -0.0477  0.0373  0.0828
24371W        W67387  21.427  18.895  27.122  0.4318 -0.1563  0.0333
24372W        W67388  21.910   2.243  26.362 -0.1928 -0.0859 -0.0436
24373W        W67389  22.076  31.372  26.938 -0.1258 -0.3478  0.2412
24374W        W67390   2.135  33.530  23.905  0.2772  0.0451 -0.2968
24375W        W67391  15.770   6.470   4.700 -0.0588  0.2462  0.1475
24376W        W67392  33.537   7.518  27.161  0.2467  0.5113  0.0254
24377W        W67393  26.175   3.675   0.480 -0.1852 -0.0923 -0.0537
24378W        W67394   4.831   2.572  15.938  0.0227  0.0464 -0.1375
24379W        W67395  10.013  32.734  19.757  0.0805  0.3008 -0.0920
24380W        W67396   8.561  33.654   7.541 -0.2576 -0.1571 -0.1998
24381W        W67397  32.085  11.653  27.837 -0.2141 -0.1939  0.0078
24382W        W67398  10.047  11.809  14.317 -0.1481 -0.2580  0.1523
24383W        W67399  20.931  33.035  28.181 -0.1546  0.1461 -0.1797
24384W        W67400   8.103   6.961   3.405 -0.1147 -0.1556  0.4776
24385W        W67401  11.657  16.372  24.045 -0.0589  0.2328 -0.2984
24386W        W67402   6.652  31.830  18.122  0.0405  0.1250 -0.1704
24387W        W67403  32.046  16.163  16.807  0.2102 -0.1651  0.1337
24388W        W67404  25.124  14.974  15.610  0.1417  0.0707 -0.0166
24389W        W67405  26.761  24.727  14.801 -0.2060 -0.1191  0.0209
24390W        W67406   1.114  33.271   2.420  0.3595 -0.2567 -0.0330
24391W        W67407  11.104  25.394   8.514 -0.0768 -0.1442  0.2795
24392W        W67408  19.940  31.411  22.173 -0.1461 -0.0436  0.0173
24393W        W67409   9.735  17.510  27.001 -0.2672  0.2139 -0.3303
24394W        W67410   5.605  19.119  17.644  0.0697  0.1703  0.3259
24395W        W67411  33.249  15.185   9.909 -0.2580  0.1512  0.0221
24396W        W67412   5.942  13.733  27.341  0.0433  0.1556 -0.0705
24397W        W67413   3.777  12.238  10.314 -0.1686  0.1467  0.0906
24398W        W67414   6.076   3.264   6.157 -0.1607  0.1683  0.1544
24399W        W67415   8.014   1.989  16.560 -0.1488 -0.2943 -0.2190
24400W        W67416  30.468   0.438   5.979  0.1246 -0.1841  0.2010
24401W        W67417  11.657   2.470  24.013 -0.1709  0.0087  0.0730
24402W        W67418  10.802  30.044  20.621  0.1941 -0.0529 -0.0219
24403W        W67419   7.178  16.074  20.170 -0.0575 -0.1937  0.1877
24404W        W67420  13.496  13.516  21.026  0.1087 -0.1183  0.0879
24405W        W67421   6.924  16.573   1.145 -0.0681 -0.2009 -0.1501
24406W        W67422  14.203  29.920  26.010 -0.0687 -0.0384  0.0539
24407W        W67423   8.901  15.525   7.901 -0.2137 -0.0392 -0.2229
24408W        W67424  18.011  16.912   7.284  0.0054  0.2314 -0.2733
24409W        W67425   1.713  17.227   1.325  0.1019  0.1308  0.2019
24410W        W67426   1.680  20.792   7.648 -0.0193  0.0321  0.0459
24411W        W67427  14.396  30.281  22.387 -0.4483  0.2197  0.0685
24412W        W67428  29.151  23.471  22.926 -0.1345 -0.4292  0.1333
24413W        W67429   6.382  10.069   2.642  0.1552  0.1416 -0.2424
24414W        W67430   6.676   5.879  10.088  0.0246  0.1648  0.2827
24415W        W67431  34.099  26.071  24.112 -0.1044  0.3766  0.0402
24416W        W67432  16.138  31.120   2.037 -0.0046  0.0374  0.0576
24417W        W67433   4.433   5.636  14.646  0.1309 -0.2182 -0.0967
24418W        W67434  19.606   9.622  19.524 -0.0477  0.0155  0.2036
24419W        W67435  32.444  25.008  26.955 -0.1881  0.3423 -0.2095
24420W        W67436  10.494   0.080  21.564  0.1466 -0.0262 -0.0984
24421W        W67437   5.304  10.411  16.362  0.0027  0.2480 -0.0041
24422W        W67438   0.321   3.151   3.314 -0.0678  0.2675 -0.1740
24423W        W67439  31.080  15.907  22.062  0.2368  0.1358 -0.0846
24424W        W67440   9.030  32.422   3.448 -0.4223 -0.0761 -0.0062
24425W        W67441  33.996  12.102  22.604 -0.1691  0.0163 -0.0836
24426W        W67442  17.820   7.149  18.797  0.1080  0.2258 -0.1329
24427W        W67443  10.171   2.665   5.520  0.3178  0.0493 -0.2338
24428W        W67444  32.272  19.023  27.734 -0.1495  0.0481  0.1783
24429W        W67445   0.651  27.572  19.456 -0.0776  0.0134 -0.2050
24430W        W67446  12.935  14.424  19.998 -0.0049 -0.0716 -0.1397
24431W        W67447  10.020  18.084   3.181  0.0514  0.1687  0.1320
24432W        W67448   0.064   7.214  16.977 -0.1613  0.0470  0.1883
24433W        W67449  10.268  13.610  27.107  0.0517  0.0189 -0.1232
24434W        W67450  21.537  11.675  25.937  0.1196 -0.0411 -0.0148
24435W        W67451   0.708  21.334  18.687  0.0432 -0.1058 -0.0555
24436W        W67452  22.189   0.184  15.448  0.0542 -0.2522  0.1541
24437W        W67453  17.157   0.624   2.501 -0.1944  0.1363  0.1000
24438W        W67454  31.871  26.160  16.220  0.0494  0.0062  0.3111
24439W        W67455   6.886  14.910  15.566 -0.2323  0.1184 -0.0201
24440W        W67456   0.745  29.109   5.387  0.3530  0.1134  0.2655
24441W        W67457  27.105  13.434  25.378  0.1993 -0.0681  0.0238
24442W        W67458  17.133   8.219  22.674  0.0052 -0.0129 -0.2838
24443W        W67459  25.846   0.828  24.179 -0.0887  0.0148 -0.1102
24444W        W67460   2.064  20.109   6.577  0.0048 -0.2506 -0.2950
24445W        W67461  30.346  12.412   6.901  0.0926 -0.0063  0.1820
24446W        W67462   7.260  10.975  16.238 -0.3686  0.1130  0.2699
24447W        W67463  13.389  10.359   3.931  0.0058 -0.1195 -0.1541
24448W        W67464  11.869  13.900  13.709  0.1347  0.1150  0.1079
24449W        W67465  11.177  10.953   4.376 -0.2145  0.1000 -0.2245
24450W        W67466  28.148   7.985  19.864 -0.1169 -0.1069  0.0348
24451W        W67467  29.327   2.161   9.330 -0.1495  0.3262 -0.0972
24452W        W67468  29.464   9.353   0.146 -0.1009 -0.4659 -0.3186
24453W        W67469   0.382  16.879   1.078 -0.3542 -0.2066  0.2844
24454W        W67470  26.536  34.165  26.024  0.2278 -0.2591 -0.0185
24455W        W67471  25.895   2.616  19.920 -0.0639 -0.1318  0.3446
24456W        W67472  13.486  14.373  26.528 -0.0859 -0.3441 -0.3207
24457W        W67473  32.187  12.930  16.889 -0.0326 -0.3128  0.2545
24458W        W67474   6.365  11.144  24.951 -0.0850 -0.0061 -0.0353
24459W        W67475  19.925   9.127  18.774 -0.1959  0.1547  0.0065
24460W        W67476  13.338  11.801  20.282  0.0528 -0.2726  0.0238
24461W        W67477  10.552  19.820   2.403  0.3897  0.3050 -0.1974
24462W        W67478   9.098  11.956   7.511  0.4423 -0.0771  0.3240
24463W        W67479   4.898   6.310   1.898 -0.2251 -0.2358  0.0702
24464W        W67480   2.663   9.144   2.581  0.0282  0.0805 -0.1722
24465W        W67481   1.211   3.170   8.911  0.0073 -0.4151 -0.0871
24466W        W67482  34.185   4.879  25.645  0.0861 -0.0369 -0.1258
24467W        W67483   7.844  14.266   7.523 -0.0683 -0.3123  0.0164
24468W        W67484  11.026   4.964  24.702  0.4056  0.0159 -0.2059
24469W        W67485  19.670  15.126  13.276  0.0919  0.0869  0.2423
24470W        W67486  34.744  23.098   1.814 -0.0677 -0.0718 -0.1267
24471W        W67487  16.705   8.959   7.978 -0.1015 -0.0723 -0.1690
24472W        W67488   1.015   4.003   3.418  0.2186 -0.0989 -0.0727
24473W        W67489  34.767   4.467   3.287 -0.0241  0.0234  0.0319
24474W        W67490   6.612   7.611   1.034 -0.1463  0.2543 -0.0682
24475W        W67491  30.264  19.110  16.857 -0.0269  0.0245 -0.0195
24476W        W67492  15.760   2.167  23.870 -0.0095  0.2754 -0.2173
24477W        W67493   9.663   8.286   0.256  0.1101 -0.2432 -0.2695
24478W        W67494  34.239  12.480  21.416 -0.2261  0.0297 -0.2290
24479W        W67495  13.969  29.367  28.981  0.0880  0.2234  0.1834
24480W        W67496  34.214  29.844  19.673  0.0137 -0.1235 -0.2853
24481W        W67497   4.513   6.635  19.273 -0.0038  0.1620 -0.0914
24482W        W67498   7.304   2.123   8.646 -0.1976 -0.2159  0.1031
24483W        W67499   7.642  14.550  21.830  0.0415  0.0710 -0.0070
24484W        W67500  16.837  33.200  21.615  0.0924 -0.0304 -0.0468
24485W        W67501  11.314   1.381   0.507  0.3540  0.2810  0.0232
24486W        W67502   0.145   7.105  22.294 -0.0203  0.0832  0.0962
24487W        W67503  21.641  15.808  23.960  0.2136 -0.2239 -0.1252
24488W        W67504  20.223  15.014   8.262  0.2450 -0.1081  0.0510
24489W        W67505  19.021   3.997  17.095  0.3557 -0.0482  0.2930
24490W        W67506   7.406  15.122  26.355 -0.3556 -0.1323  0.1929
24491W        W67507  33.913  28.786  22.906  0.4464 -0.0325 -0.0049
24492W        W67508  29.801   5.743  28.987 -0.0406  0.0526 -0.1650
24493W        W67509   9.635   7.644  14.423 -0.3136  0.1428  0.2554
24494W        W67510  17.584  20.065   5.959  0.0715 -0.0434  0.0503
24495W        W67511   8.494   8.329  15.877 -0.0401 -0.1050  0.0710
24496W        W67512  29.080   8.948  23.606 -0.0791 -0.1401  0.1854
24497W        W67513  13.269  31.524  21.813  0.0071  0.0550 -0.4633
24498W        W67514  31.189  32.500  21.068 -0.0806  0.2373  0.1357
24499W        W67515  19.479   2.938  14.203  0.0865  0.0407  0.1405
24500W        W67516  16.561   9.419  15.986 -0.0102  0.0415 -0.1326
24501W        W67517  15.964  10.282   1.382 -0.1489 -0.1064  0.0675
24502W        W67518  13.041   3.825  25.882  0.2617 -0.4471  0.3814
24503W        W67519  20.274  10.525  16.484  0.2700 -0.0614  0.0410
24504W        W67520  31.889   5.995   4.303 -0.1158  0.1855 -0.0101
24505W        W67521  25.494   0.654  10.061 -0.0529 -0.3063 -0.0930
24506W        W67522  27.820  15.145   8.100 -0.0396  0.2182  0.0564
24507W        W67523   4.264  28.437  10.355  0.2593 -0.0735  0.0143
24508W        W67524   5.355   9.201  23.231  0.2656  0.0616  0.0585
24509W        W67525  29.205  11.693   3.910  0.1991 -0.1807 -0.2376
24510W        W67526  25.607   0.079  28.129  0.0484  0.2376 -0.0027
24511W        W67527   3.988  19.991  28.269 -0.1577 -0.0181  0.1941
24512W        W67528   8.273   5.002   3.737 -0.3590  0.2282  0.0008
24513W        W67529  32.983   8.721  18.611 -0.0221 -0.2024  0.0219
24514W        W67530   6.963  33.180   4.767 -0.0560 -0.4682  0.0432
24515W        W67531  34.205  15.643  20.855 -0.1777  0.2378  0.2118
24516W        W67532   8.232   1.220  27.630 -0.0971 -0.2691  0.1027
24517W        W67533   6.738  10.209   4.114  0.0561  0.0843 -0.0036
24518W        W67534   5.550   6.787  28.080  0.2065  0.2072  0.1072
24519W        W67535  14.278   8.712   3.958  0.2697 -0.2484  0.1795
24520W        W67536   8.702  29.449   5.004  0.4064 -0.0795  0.1238
24521W        W67537   9.027   1.373   9.023 -0.0043  0.3722  0.0573
24522W        W67538  13.228  22.016  28.595 -0.1200  0.2185  0.2327
24523W        W67539   6.331   6.107  21.401  0.0950  0.1155  0.1368
24524W        W67540  21.468  20.652  22.476 -0.1133  0.1373  0.2325
24525W        W67541   7.986  14.383  22.286  0.2004 -0.0133 -0.1221
24526W        W67542  14.076   4.720  19.484 -0.1570  0.2518  0.0843
24527W        W67543  10.788  11.310   5.972  0.1287  0.1222 -0.2793
24528W        W67544  13.445   5.982   7.994  0.0857  0.2621 -0.1619
24529W        W67545  31.619  18.533  21.224  0.0845  0.2401 -0.1013
24530W        W67546  14.906  13.586  15.329  0.0879 -0.0315  0.0729
24531W        W67547  12.137  17.588  13.509 -0.0108  0.1708 -0.2430
24532W        W67548  30.947  27.744   2.506 -0.1386 -0.2703  0.0260
24533W        W67549   2.732   0.313  14.915 -0.0951 -0.0864 -0.1413
24534W        W67550  34.532  30.403  20.108  0.1478  0.0314  0.1588
24535W        W67551   4.570  13.728   2.716 -0.0791  0.2025 -0.1074
24536W        W67552   5.584  19.551  17.442 -0.1859 -0.2950 -0.1044
24537W        W67553  10.068   0.903  15.774 -0.2386  0.1427  0.0902
24538W        W67554   3.399  12.967  19.481  0.1028 -0.1169  0.0839
24539W        W67555   4.773   1.522   2.527 -0.0087 -0.3219  0.0940
24540W        W67556   7.219   6.194  21.931  0.0277  0.0052 -0.0948
24541W        W67557   0.994  19.273   5.947  0.0862  0.0018  0.1631
24542W        W67558  27.259  21.806   5.683  0.2744 -0.1333 -0.1771
24543W        W67559  10.921  26.156  27.944 -0.1981  0.0750  0.4426
24544W        W67560  12.374   8.253  17.415 -0.0235  0.2072  0.2531
24545W        W67561   2.253  16.061  16.990  0.1836 -0.1207  0.3097
24546W        W67562   1.723  20.083  29.306 -0.0123  0.1053  0.0468
24547W        W67563  17.280   9.978   8.073 -0.2580 -0.1799 -0.0724
24548W        W67564  13.230   9.635   5.083  0.0867  0.0985  0.1726
24549W        W67565  32.593   1.691   7.193  0.1680  0.0685  0.0990
24550W        W67566   8.423   6.621   9.666 -0.1561  0.3501 -0.0416
24551W        W67567  13.559  33.555  22.869 -0.2672  0.0554  0.2100
24552W        W67568   6.892  28.025   0.865  0.1135  0.3984 -0.0051
24553W        W67569   7.532  19.024  19.628  0.3416  0.2775 -0.0051
24554W        W67570   6.347   7.624   5.630  0.0259 -0.0314 -0.1392
24555W        W67571  25.375  30.237  10.153 -0.1146  0.2235 -0.1770
24556W        W67572   2.037  27.025   8.883 -0.2600 -0.0750 -0.0441
24557W        W67573  13.322   0.783  24.658 -0.3258  0.2087 -0.0286
24558W        W67574  18.924  19.028  26.314 -0.2376  0.2897 -0.1926
24559W        W67575   2.491  26.371   4.678 -0.2271 -0.0303  0.2797
24560W        W67576  24.626  27.840  18.734 -0.1971  0.2850  0.1719
24561W        W67577   7.622  20.250   2.264  0.1855  0.1314  0.0148
24562W        W67578   2.245  14.696  24.489 -0.0692 -0.0779  0.0599
24563W        W67579  11.509  25.330   5.500  0.2253 -0.0821  0.0583
24564W        W67580  19.038  30.830  29.105  0.0652  0.0357 -0.2787
24565W        W67581  32.220   5.836   7.829  0.2223 -0.0379 -0.1748
24566W        W67582   4.432  27.914  19.716  0.2430 -0.0658 -0.2103
24567W        W67583  12.135  21.030   3.977 -0.3450  0.2376  0.2542
24568W        W67584   7.160  26.137  13.465 -0.2722  0.0124  0.0655
24569W        W67585   9.555  11.175  21.617 -0.3517  0.2973 -0.0750
24570W        W67586   3.849  28.876   9.297 -0.4576  0.2400 -0.2093
24571W        W67587   9.270  13.208   0.013  0.0621 -0.2786 -0.0732
24572W        W67588  15.252  15.513  13.955 -0.0878  0.2754 -0.2674
24573W        W67589   8.098  11.172  17.618 -0.2499  0.1926  0.0244
24574W        W67590   0.570   1.572   8.871 -0.0191 -0.0856 -0.3537
24575W        W67591   8.864  13.658  28.907  0.0218 -0.1967  0.0097
24576W        W67592  28.355  10.756  22.630  0.1194 -0.0014 -0.0327
24577W        W67593   4.554   7.982  24.174  0.2657 -0.0903 -0.0757
24578W        W67594  23.556  22.563  29.320 -0.1425 -0.0702 -0.6294
24579W        W67595   0.019   3.959  16.737 -0.0441  0.0766  0.0229
24580W        W67596   8.518   7.902   5.341  0.3593  0.0613  0.2959
24581W        W67597   1.069  19.309  14.148 -0.1687  0.2189 -0.1008
24582W        W67598   5.186  11.433  16.128 -0.2603  0.2590  0.0992
24583W        W67599  12.726  13.597   1.069 -0.1045  0.2659 -0.1425
24584W        W67600   0.823  11.432  23.418  0.4730  0.4075 -0.0037
24585W        W67601  19.428   4.900  16.458  0.0529 -0.1647  0.1159
24586W        W67602  21.295  34.571   2.545  0.0601 -0.3127  0.0952
24587W        W67603   9.147  11.727  25.436 -0.0588  0.1396 -0.0080
24588W        W67604  11.348   7.454  18.572  0.0150 -0.0511 -0.0243
24589W        W67605  22.789  21.670  24.688  0.2551  0.0376 -0.0071
24590W        W67606  10.999  19.071  22.664 -0.2499 -0.2485 -0.1139
24591W        W67607   0.038  23.033  27.942  0.2813  0.1568 -0.2212
24592W        W67608  34.735  13.573  19.458  0.3033 -0.1092  0.0765
24593W        W67609   4.411  19.169   7.622 -0.0714 -0.0325 -0.1983
24594W        W67610   8.443   8.453  19.552 -0.0983  0.2729 -0.3288
24595W        W67611  30.083   2.287  23.713  0.2256  0.0773 -0.0807
24596W        W67612  26.927  16.234  13.363  0.0042 -0.3716 -0.0775
24597W        W67613   3.492  30.946   7.086  0.0983 -0.1616 -0.0227
24598W        W67614  31.426   0.933  28.094  0.1699  0.0242 -0.1018
24599W        W67615   8.593  14.733  16.990 -0.4181 -0.0420 -0.0284
24600W        W67616   6.020  31.370   1.030  0.3052  0.0919 -0.4409
24601W        W67617   3.585  11.239   7.828  0.0168  0.2724  0.0386
24602W        W67618  21.053   5.842  21.611 -0.0186  0.2351  0.1953
24603W        W67619  16.021  31.129   9.083 -0.3395  0.4245  0.1966
24604W        W67620  26.013   1.852   9.001 -0.0779  0.1831  0.2972
24605W        W67621  20.815  28.745  28.729  0.2115 -0.0066  0.2870
24606W        W67622   0.220  18.999  19.306  0.3136 -0.1352  0.0563
24607W        W67623   9.589   9.076   5.937  0.2252 -0.1695 -0.3101
24608W        W67624  19.772  14.711  19.975  0.0625  0.0152  0.1779
24609W        W67625  30.086  31.148  29.085 -0.3369 -0.0090 -0.0477
24610W        W67626  21.882   0.665  17.304  0.0636  0.1055  0.0770
24611W        W67627  11.599   6.201  17.268 -0.0396  0.0125  0.3588
24612W        W67628  24.105   6.505  28.557  0.3966  0.3491  0.2913
24613W        W67629   4.972  11.460  25.293  0.1084 -0.1180  0.4202
24614W        W67630  33.740   7.441  27.753  0.0549  0.0358  0.2486
24615W        W67631  19.560  25.296  16.194 -0.1201  0.4100  0.3147
24616W        W67632  13.289   6.954   8.441 -0.2344 -0.0576  0.0453
24617W        W67633  10.067   4.210  22.340 -0.4776 -0.2088  0.0032
24618W        W67634  13.475  20.695  25.398 -0.0051  0.3610  0.1297
24619W        W67635   4.678  12.021  16.655 -0.0769  0.0711  0.0838
24620W        W67636  14.916   1.226  25.385  0.1518 -0.0479 -0.0799
24621W        W67637  31.540   3.098  16.025 -0.0155 -0.0761 -0.0685
24622W        W67638   7.310   1.302  27.374  0.0764  0.0999 -0.2133
24623W        W67639   4.911   6.381   0.497  0.0406  0.2710  0.2873
24624W        W67640  10.917   6.489  14.151  0.0848 -0.0515 -0.2055
24625W        W67641  11.449  31.046   6.437  0.1690  0.1161 -0.0626
24626W        W67642   4.994  29.859  27.064 -0.0260  0.0877  0.1458
24627W        W67643  34.217   7.697  19.110  0.3928 -0.1099  0.0256
24628W        W67644  13.466  12.834   2.450 -0.3231 -0.1421  0.0259
24629W        W67645   1.181  13.567   7.239 -0.0965 -0.3383 -0.1636
24630W        W67646  12.584   6.121   7.711  0.1399 -0.3182 -0.2608
24631W        W67647  17.061   2.031   4.193 -0.2032  0.1801  0.0845
24632W        W67648  12.895  13.636   7.051 -0.4935 -0.1497 -0.1518
24633W        W67649  27.754  31.437   1.913 -0.2588 -0.0486  0.2882
24634W        W67650   2.237  22.635   8.519  0.2434  0.2433 -0.3229
24635W        W67651   7.728  10.030  21.645 -0.0880 -0.1014  0.2006
24636W        W67652  13.160   9.293  20.291  0.0594  0.1530 -0.0308
24637W        W67653  11.838  33.239   9.715  0.0914  0.1946  0.3410
24638W        W67654  26.433  23.979  18.204 -0.1422  0.2225 -0.2377
24639W        W67655  25.871  23.055  17.843  0.0249  0.1067 -0.0611
24640W        W67656   3.103  14.549  17.342  0.1527  0.3484 -0.2550
24641W        W67657  11.794   8.812  23.891  0.2713 -0.0988 -0.0554
24642W        W67658  21.159  26.655  22.371  0.2632 -0.2644 -0.1136
24643W        W67659  34.565   0.220  18.668  0.0646  0.0980  0.0529
24644W        W67660   6.458  18.124  25.112  0.3095 -0.1425 -0.1487
24645W        W67661   7.968  33.912  18.457 -0.2425  0.2866  0.1368
24646W        W67662   7.090  33.785  21.326  0.0189  0.0869  0.0695
24647W        W67663  31.466   4.872   5.465 -0.0214  0.0839  0.0456
24648W        W67664   3.895  19.449   8.056  0.1210  0.2474  0.3137
24649W        W67665  23.136   7.642   0.901  0.0241 -0.1093  0.0453
24650W        W67666   6.287   3.355  28.491  0.0380  0.2408 -0.0207
24651W        W67667   0.499   3.182   3.808  0.2053 -0.2220  0.1775
24652W        W67668  10.099  11.577  28.465  0.5691  0.0560  0.0959
24653W        W67669   8.330   8.437  26.768  0.1433 -0.0294 -0.2282
24654W        W67670   6.299  12.581   4.879  0.1293 -0.4136  0.3603
24655W        W67671   9.045   5.035  22.699 -0.0948  0.0059 -0.2849
24656W        W67672  15.641  15.174   2.981 -0.1520  0.1903 -0.0910
24657W        W67673   7.730  13.793   7.267 -0.0341  0.2518 -0.1624
24658W        W67674   8.961  23.421   5.172  0.4815  0.0033 -0.2394
24659W        W67675  11.897  24.306   0.095 -0.0659  0.2070 -0.0521
24660W        W67676   3.483   9.660  21.827 -0.0424 -0.2542  0.0835
24661W        W67677  17.098   9.081  25.594 -0.1378 -0.3496 -0.0255
24662W        W67678   6.355  17.424   8.780 -0.2483  0.0170 -0.2152
24663W        W67679  20.392  11.855  29.029 -0.0525 -0.2432  0.0558
24664W        W67680  13.043  23.316   6.558  0.0505  0.0934  0.3946
24665W        W67681  28.021  15.702  16.636  0.1320  0.0321  0.1188
24666W        W67682   2.689  12.015  26.228 -0.0397 -0.1322  0.0384
24667W        W67683   2.050   8.832  29.007  0.0249 -0.0464  0.1919
24668W        W67684  28.081   2.588  25.578 -0.3533 -0.1300  0.1237
24669W        W67685  19.811  34.255   2.141  0.4452  0.3102  0.4742
24670W        W67686   6.689  30.439  25.160 -0.0745 -0.0278  0.0249
24671W        W67687   8.155  17.648  17.714 -0.1213 -0.1688 -0.1761
24672W        W67688  34.435   7.815   0.048  0.2130  0.2807  0.0240
24673W        W67689   8.704  17.492   6.665  0.0887 -0.0268  0.2494
24674W        W67690   0.592  21.749  17.470  0.0008  0.1136 -0.0226
24675W        W67691   4.388   7.041   0.545 -0.0912  0.1827  0.2876
24676W        W67692  16.517   9.586   4.847 -0.0792 -0.0786 -0.0825
24677W        W67693  30.044   8.804  24.051 -0.5116 -0.1115 -0.1236
24678W        W67694   1.353   0.873  27.601 -0.1615 -0.2371 -0.0131
24679W        W67695  14.012  20.639  19.270  0.0482 -0.0625 -0.0266
24680W        W67696  24.927  10.993  23.203  0.0291  0.2453 -0.2154
24681W        W67697  24.588  21.410   0.839  0.1399 -0.0656 -0.1772
24682W        W67698   9.140   8.281   3.319  0.0511 -0.0922  0.0839
24683W        W67699  33.808  14.926  27.174 -0.1822 -0.0354  0.1633
24684W        W67700  19.521   5.173  23.435  0.1768  0.3406 -0.0593
24685W        W67701  19.523   6.833   2.946 -0.1704  0.2031 -0.0202
24686W        W67702  33.354  21.826  21.063 -0.0045 -0.0218 -0.1003
24687W        W67703  12.222  11.033   3.234  0.3393  0.0692  0.2209
24688W        W67704  27.767  28.578   4.505 -0.1378 -0.1791  0.2620
24689W        W67705  30.636  32.983   8.576 -0.0050  0.1768  0.2357
24690W        W67706  11.913   6.222   6.897  0.1060 -0.0666  0.1430
24691W        W67707   7.522   2.882   9.224 -0.1540  0.1396  0.2052
24692W        W67708   0.698  20.735  23.864  0.1896  0.0439 -0.0589
24693W        W67709   6.867  13.574  22.158 -0.2588  0.1321  0.2250
24694W        W67710   4.701  28.634  14.905  0.0733 -0.1833 -0.0453
24695W        W67711  11.371  24.153  17.275 -0.1410 -0.3269  0.0972
24696W        W67712  22.496  16.033  23.727 -0.1496  0.0900 -0.2141
24697W        W67713   8.946   5.356   8.367  0.0109 -0.0510  0.3521
24698W        W67714  20.666  16.967   4.231 -0.0524 -0.0113  0.1103
24699W        W67715  16.436  12.377  27.515 -0.1927  0.0283 -0.0147
24700W        W67716   3.011   0.225  22.830  0.0688 -0.0649  0.1158
24701W        W67717  27.736  26.392  20.850  0.0513 -0.2333 -0.0029
24702W        W67718   3.194  24.110  19.822 -0.1205  0.1500  0.4340
24703W        W67719   5.012  34.605   8.367 -0.2478 -0.0163  0.2110
24704W        W67720   5.504  21.286   6.975 -0.1807  0.1250 -0.0699
24705W        W67721  30.767  10.928   7.609 -0.0744 -0.1432  0.0869
24706W        W67722  19.487  34.430  18.309  0.0597  0.0527 -0.0815
24707W        W67723   2.683   1.200  17.568  0.0026  0.0123 -0.1921
24708W        W67724  20.768   5.936  15.235 -0.0251 -0.1081 -0.0433
24709W        W67725  23.554   9.770  17.249  0.1108 -0.2509  0.0386
24710W        W67726  10.764  20.010   7.127 -0.0572 -0.3186 -0.4528
24711W        W67727  23.581   1.416  20.264 -0.1225 -0.0015  0.2382
24712W        W67728  20.224  18.320  22.358 -0.1393 -0.2363 -0.0061
24713W        W67729  34.325   3.543  25.382 -0.0333 -0.1887  0.2471
24714W        W67730  34.390  12.893   1.070 -0.0320  0.1500 -0.2265
24715W        W67731  33.245   6.294   5.391 -0.0485  0.1387 -0.1705
24716W        W67732  20.801   9.448   2.091  0.2409  0.1914  0.1527
24717W        W67733  19.665   0.701  28.730 -0.1954  0.0322  0.1142
24718W        W67734  22.881  30.017   8.525 -0.1787 -0.0151 -0.0589
24719W        W67735  26.853  15.590   8.800 -0.0040 -0.0241 -0.3521
24720W        W67736  14.415  11.881  24.362 -0.2512  0.0605  0.2289
24721W        W67737  10.339   9.482  18.491  0.1886 -0.0682 -0.3488
24722W        W67738   3.185  18.467  16.776  0.1753  0.2301  0.1421
24723W        W67739   0.510  26.512   7.854  0.0899  0.0472 -0.1404
24724W        W67740   7.831  32.822  25.673  0.0498  0.1527  0.1815
24725W        W67741  13.770  10.449   4.832  0.2018 -0.3085 -0.0765
24726W        W67742   4.454   8.042  18.728 -0.3092 -0.1621  0.0959
24727W        W67743  33.354   4.771  20.625  0.0982  0.0251 -0.0541
24728W        W67744  20.326   9.108   1.368 -0.2370 -0.2296  0.1572
24729W        W67745   7.980   8.579   6.474  0.0865 -0.2193 -0.1167
24730W        W67746  33.542  21.523  22.786  0.3344 -0.0532 -0.2627
24731W        W67747   2.861   7.700  29.105 -0.0535  0.1758 -0.0896
24732W        W67748  11.362   1.386  15.341  0.2064 -0.1024  0.1996
24733W        W67749  31.736  16.587  26.501  0.1777 -0.1876 -0.0702
24734W        W67750  33.284   6.329   8.984 -0.2083 -0.1706  0.1401
24735W        W67751  14.142   6.081   2.773 -0.2082 -0.0032  0.1084
24736W        W67752   4.115   9.681   5.037 -0.1003 -0.0487 -0.2351
24737W        W67753  23.140  23.060  16.166 -0.0601  0.0196 -0.2971
24738W        W67754  22.752   5.466  23.840  0.1254  0.0016  0.0836
24739W        W67755  14.002   1.274   9.316 -0.2751 -0.1015  0.3773
24740W        W67756  27.200  28.939  10.564 -0.0234  0.2010 -0.3050
24741W        W67757   7.327  29.195   6.968 -0.1954  0.1333  0.1830
24742W        W67758  34.288  28.558   0.544  0.1142  0.2270  0.4511
24743W        W67759   0.134  23.602  27.228  0.1613  0.2011  0.1846
24744W        W67760  14.709  17.674  28.310 -0.4287 -0.0427 -0.2921
24745W        W67761   5.163   1.972  17.965 -0.0068  0.2943 -0.1848
24746W        W67762  33.405  30.199   1.249  0.0547 -0.1553 -0.2148
24747W        W67763  19.014   0.122  10.372 -0.1171  0.0947  0.0335
24748W        W67764  18.661   3.018   1.946  0.0782  0.0712  0.0191
24749W        W67765  12.145  29.923  16.149 -0.0332  0.0044 -0.1511
24750W        W67766  20.244  24.266   0.413  0.2330  0.0461  0.1998
24751W        W67767   6.204   8.789  28.920 -0.2765 -0.1146 -0.0325
24752W        W67768  22.011   5.201   4.129 -0.0951 -0.0143  0.0262
24753W        W67769   1.095   1.509  28.248  0.3037 -0.0343 -0.1333
24754W        W67770   4.081  25.951  27.056  0.1649  0.2590  0.4185
24755W        W67771  12.434  11.284   4.071 -0.3747 -0.3794 -0.0604
24756W        W67772  11.045  15.337   0.861  0.1328 -0.3660  0.0776
24757W        W67773  24.419  14.456  18.952 -0.0241  0.1046 -0.1285
24758W        W67774  20.169  30.841  21.770 -0.0486 -0.0159 -0.1395
24759W        W67775  25.010  12.379  26.237  0.0055 -0.0781 -0.1859
24760W        W67776  24.790  27.870   6.886  0.3010  0.0187 -0.1187
24761W        W67777  10.764  10.881  27.555  0.0897  0.0016 -0.3764
24762W        W67778  31.523   2.584   7.234 -0.0444  0.0976  0.1870
24763W        W67779   7.735  16.819   0.367 -0.1401  0.1433  0.0159
24764W        W67780  12.270  14.740   3.386 -0.0617  0.1169 -0.1653
24765W        W67781   7.656  23.820   7.220  0.2186  0.2874  0.1716
24766W        W67782  30.147  11.395   3.736 -0.2459  0.1357 -0.1273
24767W        W67783  17.159   8.745  26.609 -0.2652  0.2103 -0.1917
24768W        W67784  34.164   4.490  18.839 -0.2496  0.1720 -0.2411
24769W        W67785  12.362  22.570   5.550  0.1104  0.0387  0.2146
24770W        W67786   5.810  18.720  20.509  0.1296 -0.1425 -0.0456
24771W        W67787  34.094  15.797  25.858  0.1303  0.0764  0.1485
24772W        W67788   3.042  14.315  19.663 -0.1507 -0.0984 -0.1444
24773W        W67789   1.379  25.068   6.714  0.1527  0.3277  0.4945
24774W        W67790   1.592  15.667  10.126 -0.2075 -0.4992  0.1146
24775W        W67791  16.456  14.150  29.147  0.0253  0.0655  0.1835
24776W        W67792   2.578  11.946   7.425 -0.1906  0.2683 -0.0174
24777W        W67793   1.119  10.491  17.468  0.0008  0.0824  0.0869
24778W        W67794   8.114  28.594   7.281 -0.0089  0.1080 -0.2541
24779W        W67795  16.619   9.832   9.235  0.2293 -0.0490  0.0214
24780W        W67796  30.118   2.484  26.635  0.0345  0.0698 -0.2334
24781W        W67797   0.713   9.503  17.242  0.1625  0.2260  0.0947
24782W        W67798   4.395   3.631   2.927 -0.0951 -0.2560 -0.2023
24783W        W67799  11.578   6.562  20.426  0.0125 -0.3604 -0.3189
24784W        W67800  10.255  17.081  27.762  0.0361 -0.0295 -0.1819
24785W        W67801   0.547  19.540  27.400 -0.3408 -0.0714  0.2231
24786W        W67802  17.045  12.591  20.830  0.0386  0.0916  0.1396
24787W        W67803  11.284  11.537  19.852 -0.0061  0.0418  0.0437
24788W        W67804  33.987  13.751   2.362 -0.0421  0.0945  0.0784
24789W        W67805  21.729   8.168   1.601 -0.1272 -0.0664 -0.0430
24790W        W67806   8.870  13.843   3.415  0.5769  0.1923 -0.0840
24791W        W67807  31.089  20.416  21.407 -0.0004 -0.1481  0.1039
24792W        W67808   5.626  10.025  25.439  0.0276  0.3047 -0.2818
24793W        W67809  30.121   1.752   9.327 -0.1626  0.0633  0.1335
24794W        W67810  19.201  13.162  25.024 -0.2396 -0.1040  0.1151
24795W        W67811  11.532   3.324  26.965  0.1994  0.4163  0.0554
24796W        W67812  12.047   0.374  16.405 -0.1154 -0.3332  0.0688
24797W        W67813  34.228   5.817  22.402 -0.3334 -0.1865 -0.1023
24798W        W67814  12.703  29.781   9.940 -0.2301  0.0837  0.2736
24799W        W67815   2.224  18.808  16.275 -0.0491 -0.3753 -0.1687
24800W        W67816  21.299  30.363   1.260 -0.1452  0.2114  0.2494
24801W        W67817  12.512   7.145   5.007 -0.1219  0.4561 -0.1456
24802W        W67818   2.964  22.467   3.526 -0.2377  0.0236  0.1203
24803W        W67819  29.919  29.357   1.399  0.1902 -0.1397  0.2409
24804W        W67820  13.847  10.030   5.199 -0.3087 -0.0270  0.1827
24805W        W67821  14.754  10.033   2.038  0.0423 -0.0976 -0.0797
24806W        W67822  32.177  29.004  19.293 -0.0643 -0.1648 -0.0509
24807W        W67823   2.084  17.805   5.845  0.0474 -0.1415  0.2322
24808W        W67824  12.341  34.156  21.257  0.1099 -0.0940  0.0160
24809W        W67825  30.125   7.154  26.954  0.0762  0.0144 -0.1782
24810W        W67826  20.496  10.147  25.189 -0.0630  0.0139 -0.0213
24811W        W67827  33.318  26.203  25.727 -0.1313 -0.1112  0.4311
24812W        W67828   3.808   9.589  24.352 -0.3591 -0.0980 -0.2082
24813W        W67829  32.399   7.424  19.580 -0.3952 -0.3035 -0.0257
24814W        W67830   7.188  16.376   8.037 -0.0581 -0.0628 -0.0883
24815W        W67831  19.214  16.573  15.062  0.0146  0.2318  0.2897
24816W        W67832   5.239  18.889  25.795 -0.0735  0.0446 -0.1522
24817W        W67833   1.794  19.070   7.072 -0.0237  0.1847 -0.1040
24818W        W67834  12.610  28.762   3.365  0.1052  0.0739  0.2223
24819W        W67835   3.139  32.250  15.319 -0.1139  0.4869 -0.0830
24820W        W67836   4.192  10.916  23.662  0.3343  0.0565 -0.3063
24821W        W67837   5.314   8.305  26.634 -0.2039 -0.0020 -0.0560
24822W        W67838  13.979  12.478  14.846 -0.1418  0.1247 -0.0390
24823W        W67839  24.783  29.906   6.865  0.2937 -0.1499 -0.1354
24824W        W67840   8.968  26.251  14.586 -0.4927  0.3032  0.1118
24825W        W67841  20.037   8.965  24.838 -0.0857  0.2040 -0.1202
24826W        W67842   5.336   6.829  17.842  0.2059  0.0915  0.1416
24827W        W67843   3.781   6.567  17.945  0.0642  0.1885 -0.0740
24828W        W67844   8.244  14.915  23.929 -0.2666 -0.6626  0.0785
24829W        W67845  29.089  25.498  15.832 -0.1397  0.0356  0.0025
24830W        W67846   6.623  32.008  27.715 -0.2605 -0.2086 -0.1677
24831W        W67847   1.957   7.658  15.068  0.0543 -0.2009  0.0650
24832W        W67848   2.342  31.078  15.499 -0.2139 -0.1617 -0.1443
24833W        W67849   7.696  11.324  16.722  0.3747 -0.0197 -0.1443
24834W        W67850   1.443   3.767  17.488  0.0494 -0.0136 -0.0335
24835W        W67851  26.981  10.656  15.854 -0.0074  0.1043 -0.2968
24836W        W67852  19.458   3.535  15.767 -0.2478  0.1285  0.2529
24837W        W67853  18.266  13.140  25.585 -0.0753 -0.1946 -0.1299
24838W        W67854   8.056   2.424  18.865  0.2341 -0.1281 -0.2839
24839W        W67855  32.921  29.474  18.908 -0.0036  0.1315  0.1721
24840W        W67856   4.335   2.834  25.767  0.0957  0.1737 -0.2036
24841W        W67857   7.320  25.070  26.715  0.4111 -0.0758  0.3933
24842W        W67858  13.182  10.040  26.513  0.1864 -0.4504 -0.1558
24843W        W67859   9.412  22.737  18.809 -0.1232  0.1071 -0.2488
24844W        W67860  18.078   7.226  19.715 -0.2651  0.0240  0.3617
24845W        W67861  12.158  21.521  21.041  0.0292 -0.2397 -0.3500
24846W        W67862  33.629   8.170  21.581  0.1500  0.0668 -0.4675
24847W        W67863  13.536  25.322  19.296 -0.0523 -0.1648 -0.1278
24848W        W67864  29.826  19.137  22.287  0.0782  0.0761 -0.1390
24849W        W67865  23.226  12.835   9.126  0.1065  0.1000  0.1953
24850W        W67866  28.354  24.640  19.185  0.1121 -0.1190  0.2352
24851W        W67867  11.245   9.094  23.910 -0.0547  0.1160 -0.0535
24852W        W67868  26.567  33.569  22.487 -0.3161  0.0063 -0.4337
24853W        W67869   6.210   7.157   3.032  0.0603 -0.1957  0.1327
24854W        W67870  33.080  32.489   7.311 -0.2886  0.0478 -0.0689
24855W        W67871  28.373  25.721  16.901 -0.1258 -0.1676 -0.1922
24856W        W67872  18.121  26.813  16.999  0.1667  0.0467 -0.1467
24857W        W67873   4.342   7.553  16.362 -0.2868 -0.0335 -0.1395
24858W        W67874  18.116   5.276  27.996 -0.4111  0.1927  0.1055
24859W        W67875  30.922  28.775  20.148  0.0542 -0.0726  0.1216
24860W        W67876   7.556  11.176  15.810  0.0248 -0.0059  0.1255
24861W        W67877   2.219  12.471  19.013 -0.0199  0.2849 -0.0707
24862W        W67878   9.842  18.234  27.485 -0.0872 -0.0574  0.0038
24863W        W67879  23.468   9.739  13.869  0.2501 -0.1409 -0.1238
24864W        W67880   7.091  12.391  22.947  0.3496  0.1346  0.3742
24865W        W67881   6.264  24.554  17.021 -0.1745  0.4914 -0.2937
24866W        W67882  16.863  21.306  27.608 -0.1691 -0.0016 -0.1708
24867W        W67883   4.585   9.837  15.596 -0.2668 -0.2309 -0.1603
24868W        W67884  25.792  11.162   4.449  0.1120  0.0890 -0.0617
24869W        W67885  17.258  20.988  22.441  0.3744  0.0879  0.0139
24870W        W67886  23.324  13.310  15.027  0.1131 -0.1563  0.2906
24871W        W67887   9.073   5.635  21.488  0.0329 -0.1178  0.0837
24872W        W67888   0.927   8.852  16.027  0.1200 -0.1681 -0.1622
24873W        W67889   4.939  24.644  19.057  0.1296  0.4710 -0.0303
24874W        W67890   8.975  31.392  25.156 -0.0421 -0.3177  0.1152
24875W        W67891   7.982   1.173   9.853  0.3917 -0.4592  0.0786
24876W        W67892  22.631   2.031  19.625  0.1004 -0.1067 -0.0910
24877W        W67893  13.024  10.265  16.010 -0.0464  0.3124 -0.0144
24878W        W67894   1.114   3.355  18.329  0.1797  0.1408 -0.3719
24879W        W67895  24.589   3.009  23.672 -0.0943  0.3276  0.1028
24880W        W67896   2.583  13.800  21.436  0.0467  0.0469  0.0489
24881W        W67897  15.360   0.420  29.002  0.3190  0.4276 -0.2083
24882W        W67898  33.988  12.582  17.213 -0.2665  0.0445  0.1146
24883W        W67899  29.461   8.596  22.199  0.1012 -0.2934  0.1548
24884W        W67900   0.858  13.669  18.796  0.2211  0.1372 -0.0879
24885W        W67901  24.237  27.836   2.167 -0.2128  0.0332  0.0601
24886W        W67902   3.938   7.490  22.947  0.1873 -0.1981 -0.1491
24887W        W67903  30.976  19.308  22.096  0.1857 -0.2867 -0.3810
24888W        W67904  23.819   1.951   1.277  0.0025  0.1777 -0.0155
24889W        W67905   3.651  10.646  19.210 -0.4276 -0.1508 -0.0392
24890W        W67906   8.420  10.393  25.236 -0.0777  0.0744 -0.1061
24891W        W67907   2.363  11.210  28.701 -0.0193  0.3190  0.0286
24892W        W67908   3.646  17.443  15.941 -0.3647 -0.1410 -0.2308
24893W        W67909   4.403   8.670   2.047 -0.3086 -0.1141 -0.1643
24894W        W67910   2.471  33.792  21.322  0.1922  0.1372  0.0548
24895W        W67911  27.071   4.980  19.136  0.1939 -0.0765  0.1668
24896W        W67912  10.864   7.455  26.445 -0.3431  0.2177 -0.4095
24897W        W67913   8.196  23.321  14.697 -0.0323 -0.2202 -0.1341
24898W        W67914  18.687  11.331  18.518  0.4213  0.0557 -0.1802
24899W        W67915   7.743  22.349  22.960 -0.3750 -0.1804 -0.2871
24900W        W67916  14.853  32.317  22.816 -0.2649 -0.0104 -0.2619
24901W        W67917  19.568   5.900  17.172 -0.2903 -0.1133 -0.0916
24902W        W67918   4.415  24.053  20.542 -0.3928  0.0765 -0.1151
24903W        W67919   0.982  27.205  28.701 -0.0220 -0.1501 -0.0745
24904W        W67920   9.065  17.316  18.191 -0.5165 -0.0585  0.1732
24905W        W67921  30.547  15.515  21.248 -0.0198 -0.0090  0.1745
24906W        W67922  11.822  13.130  23.813 -0.0377  0.2036  0.1278
24907W        W67923   1.414  19.451   1.746 -0.0403  0.1554 -0.1224
24908W        W67924  23.469  21.148  22.623 -0.0168 -0.0465  0.1314
24909W        W67925   0.558   2.570  29.142 -0.1663  0.2284  0.3458
24910W        W67926   6.497  17.341  15.024  0.0532  0.1863 -0.1659
24911W        W67927   7.025   6.450  24.609  0.3143 -0.2514 -0.0793
24912W        W67928   2.294  21.063  19.692  0.2928  0.0028 -0.3364
24913W        W67929   4.779  25.528  17.468 -0.2876  0.0287  0.0921
24914W        W67930   6.167  15.731  12.514  0.2594 -0.0373 -0.1271
24915W        W67931  20.643  20.695  27.731 -0.1586 -0.3125 -0.2043
24916W        W67932   7.897  32.754  21.623  0.2334  0.5804  0.1446
24917W        W67933  18.950  25.770  25.092 -0.1422 -0.0215  0.2358
24918W        W67934  31.180  34.700  16.118 -0.1515  0.0249 -0.3623
24919W        W67935   8.697   6.413   6.940  0.0724 -0.3186  0.1502
24920W        W67936  12.752   7.919  26.828 -0.1165 -0.1910 -0.0377
24921W        W67937  20.572  22.317  26.173 -0.1350  0.0765 -0.0769
24922W        W67938  32.667  13.094  16.105  0.1970 -0.2027 -0.1222
24923W        W67939  26.730  11.347  15.126  0.2851  0.1025  0.1871
24924W        W67940  23.326  19.144   1.841 -0.2533  0.0955  0.0554
24925W        W67941   4.332  27.600  25.605 -0.0968  0.2611 -0.1469
24926W        W67942  33.991  21.171  24.464  0.0093 -0.2112 -0.0980
24927W        W67943  28.263   5.789  20.708 -0.2654 -0.1012 -0.3045
24928W        W67944   7.905   5.263  15.366  0.0712 -0.1047  0.0428
24929W        W67945  31.138   9.063  26.830 -0.1844  0.1225 -0.0098
24930W        W67946  28.263   2.716   4.662  0.0764  0.0883  0.4163
24931W        W67947  28.415   3.904  21.288  0.0843  0.0063 -0.0795
24932W        W67948   6.856  23.184  17.959 -0.1528  0.1241  0.2260
24933W        W67949  21.354   7.294  22.300  0.2833 -0.0453 -0.0502
24934W        W67950   1.501   7.986  16.967 -0.0733 -0.3669  0.0200
24935W        W67951  28.450   7.128  16.363 -0.2458  0.2503 -0.1106
24936W        W67952  10.446   6.795  26.292 -0.2754 -0.1502 -0.0677
24937W        W67953  10.819  19.512  16.689 -0.1594 -0.2621  0.0204
24938W        W67954   9.667  11.485  28.214  0.1013  0.0066 -0.1168
24939W        W67955  17.966  23.320  14.180 -0.0688 -0.1232 -0.2424
24940W        W67956  19.395  16.189  13.202 -0.1505 -0.3028 -0.2037
24941W        W67957  24.001  11.995  15.026 -0.0711 -0.4723 -0.0667
24942W        W67958  34.591  18.555  15.826 -0.0985  0.0049 -0.1466
24943W        W67959   5.026  26.019  22.077  0.2924  0.1561  0.0131
24944W        W67960  28.441  31.969  18.557  0.0923 -0.1346  0.1228
24945W        W67961   7.699   8.535  19.374  0.2285  0.2557 -0.0980
24946W        W67962  20.303  34.479  14.300 -0.1084  0.3672 -0.2111
24947W        W67963  22.959  13.632  16.137 -0.2101  0.0397  0.1848
24948W        W67964  27.166  10.040  18.943 -0.1608  0.0523 -0.1357
24949W        W67965   4.707  16.500  18.087 -0.3025  0.0478  0.3898
24950W        W67966   6.395   2.503  28.935  0.0335 -0.0304 -0.2169
24951W        W67967   0.377  16.560  21.669  0.0676  0.2102  0.5635
24952W        W67968  16.010  15.232   0.610 -0.0350 -0.2371 -0.1987
24953W        W67969  28.654   8.504  15.736  0.2943 -0.0501  0.0910
24954W        W67970  14.991  34.279  24.754 -0.0166 -0.4489  0.0700
24955W        W67971   5.277   4.057  14.578  0.1367  0.0081  0.0654
24956W        W67972  19.041  14.790  23.407  0.1916  0.0593 -0.0754
24957W        W67973  34.631  30.806  21.574 -0.0762  0.1084 -0.2947
24958W        W67974  12.177   1.342  22.709  0.1659 -0.1631 -0.2389
24959W        W67975   4.714   6.005  25.723  0.1752  0.1151  0.4140
24960W        W67976  32.804   3.478  21.975 -0.3543  0.0418  0.2992
24961W        W67977   3.983   8.137  13.927 -0.1450  0.3983  0.0733
24962W        W67978   1.317   5.501  15.689  0.3628 -0.0633  0.1891
24963W        W67979   6.235  14.014  15.655  0.0848 -0.0233  0.2714
24964W        W67980  21.912  31.055  27.629  0.1111 -0.1247  0.0218
24965W        W67981   5.177  19.526  15.468  0.0308  0.1313 -0.0118
24966W        W67982   5.621   5.757  17.186 -0.0130 -0.1020 -0.1469
24967W        W67983  30.609  11.622  15.564 -0.4114 -0.2668 -0.0838
24968W        W67984   2.300  13.654  20.822  0.2518  0.0201 -0.5105
24969W        W67985  14.603   4.863  24.685  0.2589 -0.0675  0.1430
24970W        W67986  23.644   1.105  18.714  0.2921  0.0706  0.0311
24971W        W67987   5.165   3.231  18.143  0.1013  0.1187 -0.3952
24972W        W67988   8.607  25.064  17.799 -0.0879 -0.0484 -0.1858
24973W        W67989   9.559  11.997   1.133 -0.0136 -0.0306  0.1977
24974W        W67990   2.641  16.957  17.741  0.0788  0.1538 -0.0628
24975W        W67991   4.184  12.640   1.861  0.0547  0.0232 -0.2769
24976W        W67992  28.501  19.065  18.789  0.0597 -0.2204 -0.0477
24977W        W67993   7.393   1.240  17.794 -0.2760 -0.1154 -0.1436
24978W        W67994   1.460  17.995  18.198 -0.2094  0.0601  0.0120
24979W        W67995   1.208  14.344  18.315 -0.5353  0.1474  0.3493
24980W        W67996   8.347  31.031  23.128 -0.1699  0.1968 -0.3440
24981W        W67997  25.556  10.398  17.001  0.1011 -0.2728  0.2329
24982W        W67998   7.910  32.998  16.118 -0.1688 -0.4485 -0.2335
24983W        W67999  23.019  27.581  18.361  0.1295  0.1724  0.0143
24984W        W68000  28.421   4.351   0.313 -0.0404  0.2104 -0.0490
24985W        W68001  16.927  10.380  27.596  0.0138 -0.0603  0.2243
24986W        W68002   6.708  19.309  22.691 -0.0695 -0.0228 -0.0252
24987W        W68003  30.117   5.356  21.671 -0.1120 -0.1218  0.3155
24988W        W68004   6.664  13.935  15.918  0.0668  0.2176 -0.0580
24989W        W68005   0.966   6.612  14.607 -0.1259 -0.1370 -0.1373
24990W        W68006  23.236  14.925  15.608 -0.0702 -0.1190  0.0322
24991W        W68007  30.901   5.192  17.723 -0.2595  0.4517 -0.1049
24992W        W68008  11.668  23.101  15.758  0.2796 -0.0536  0.2436
24993W        W68009  33.571  17.022  22.380 -0.2419 -0.0492  0.1239
24994W        W68010  33.827  19.099  26.666 -0.3001 -0.0637  0.1547
24995W        W68011  15.320  10.395  16.212  0.2423  0.1906  0.1640
24996W        W68012   4.313  15.354   3.086 -0.1654 -0.0047  0.0208
24997W        W68013   2.152  32.220  16.117  0.1020 -0.0816 -0.0433
24998W        W68014   3.328  13.334  15.079  0.0122  0.4639  0.2955
24999W        W68015  11.428   4.763  24.890  0.1667 -0.2465 -0.0150
25000W        W68016  13.974   1.829   4.373  0.0568 -0.1345 -0.1195
25001W        W68017   9.026  13.241  21.915  0.1523  0.1377 -0.0700
25002W        W68018   4.122  19.465  14.009 -0.2057  0.2722 -0.0536
25003W        W68019   7.028  24.769  23.814  0.0191 -0.2045  0.0621
25004W        W68020  16.854  10.226  13.610  0.1205 -0.0652 -0.0883
25005W        W68021  31.587  20.819  18.869  0.1003 -0.0597 -0.1184
25006W        W68022   7.693  21.464  14.638 -0.0245  0.1983 -0.1704
25007W        W68023  34.300   6.425  15.763  0.1285 -0.1400  0.0203
25008W        W68024  33.743  25.380  25.725 -0.0777 -0.0938 -0.3976
25009W        W68025   9.403   6.779  18.376  0.1303  0.4925 -0.2516
25010W        W68026  22.047  10.456  21.591 -0.1677 -0.3806 -0.1959
25011W        W68027  24.854   8.065  20.694 -0.2957  0.3869 -0.0258
25012W        W68028  24.995   6.489  25.980  0.3462  0.0443  0.0948
25013W        W68029   3.375  19.641  15.135 -0.0890 -0.0645  0.1671
25014W        W68030  11.393  16.895  18.423 -0.1543  0.2008 -0.3606
25015W        W68031  29.309  15.542  20.476 -0.5080  0.0881 -0.0005
25016W        W68032  10.840  23.834  23.232  0.0308 -0.0238 -0.0170
25017W        W68033   0.287  25.563  17.469  0.2412 -0.3422 -0.2845
25018W        W68034   5.538  18.173  23.505 -0.0539 -0.0485  0.1349
25019W        W68035  34.228  22.629  14.709 -0.0052  0.1142 -0.0238
25020W        W68036  24.853   8.948  20.149  0.4766  0.0887 -0.3764
25021W        W68037  11.705  10.468  17.676  0.0359 -0.1091  0.2046
25022W        W68038  28.953   0.857   2.949  0.0279  0.0292  0.1158
25023W        W68039  14.480  11.952  26.612  0.1892 -0.1101 -0.0681
25024W        W68040   9.362  19.513  13.980  0.2458  0.0389 -0.0927
25025W        W68041  28.141  15.792  22.048  0.1471 -0.1911 -0.3017
25026W        W68042  29.166  20.280   9.514 -0.0737 -0.0596 -0.0618
25027W        W68043  34.683  32.900  26.085 -0.0068 -0.0166  0.1769
25028W        W68044   6.401  30.856  24.292  0.0395 -0.1097  0.0961
25029W        W68045  27.659  31.064  23.527 -0.1485 -0.0043 -0.2262
25030W        W68046  33.883  30.921  14.703 -0.1383  0.1026  0.1217
25031W        W68047   0.986  18.936  20.560  0.0597 -0.3359 -0.1140
25032W        W68048  20.393  26.546  20.353 -0.0210  0.1210 -0.1725
25033W        W68049   2.184   5.653  17.132  0.3202  0.2636  0.0692
25034W        W68050  16.087  13.031  12.556  0.1026  0.2415  0.2409
25035W        W68051   2.627  19.376  21.861 -0.2200 -0.2507 -0.0056
25036W        W68052   9.757  27.187  15.334 -0.1765 -0.2486  0.1748
25037W        W68053  29.224   5.761  20.155 -0.0891  0.2077 -0.0374
25038W        W68054   1.771   0.477  16.249  0.2081  0.2700 -0.3764
25039W        W68055  22.516  10.150  15.120  0.1298 -0.1171 -0.0166
25040W        W68056  20.456  33.334   4.241  0.0560 -0.0498  0.0610
25041W        W68057   7.971  24.820  24.538  0.2703 -0.3651 -0.3646
25042W        W68058  34.291  27.862  19.199 -0.2416  0.2471 -0.1413
25043W        W68059   7.575   1.127  29.112 -0.3128 -0.1057  0.1521
25044W        W68060   7.088   8.728  19.368  0.1724  0.1258  0.1332
25045W        W68061  14.236  14.423  19.248  0.1345  0.2336  0.0844
25046W        W68062   6.631  17.776  17.079  0.0453 -0.0016 -0.2252
25047W        W68063  18.389   9.650  17.055  0.1848  0.3425  0.0571
25048W        W68064   0.612  11.067  18.853  0.2499 -0.0283 -0.2596
25049W        W68065   3.098  20.988  18.577  0.2219  0.2718  0.0509
25050W        W68066   6.662  28.573  15.473 -0.0279  0.0951  0.1261
25051W        W68067  10.894  20.225  14.063 -0.1152  0.1665 -0.2601
25052W        W68068   1.309  32.128  24.322 -0.0938  0.4345 -0.4909
25053W        W68069  14.958   9.076  18.206  0.0694  0.0699  0.0302
25054W        W68070  12.327   8.498  28.324  0.1757 -0.1639 -0.0800
25055W        W68071   2.454  26.211  20.496 -0.0328  0.0968 -0.5286
25056W        W68072   4.068  33.040  14.408 -0.1251  0.1440  0.0255
25057W        W68073  32.811  12.221  27.429  0.1410 -0.1939 -0.0550
25058W        W68074  13.257  23.550  15.919  0.1047  0.0261 -0.0010
25059W        W68075  11.174  15.818  26.367 -0.2969  0.2429  0.1088
25060W        W68076   8.739  13.206  19.312 -0.1846  0.3715  0.1387
25061W        W68077   5.350   3.910  16.902  0.0971 -0.1191 -0.0971
25062W        W68078   4.899  26.668  15.019 -0.1712  0.0424  0.1003
25063W        W68079   9.316  28.090  15.815  0.2861  0.0564 -0.2361
25064W        W68080  31.920  11.885  19.406  0.0714 -0.0329  0.1623
25065W        W68081   7.484  11.105  21.675  0.1251 -0.5222  0.0608
25066W        W68082  11.783  17.632  13.956  0.0363 -0.0631  0.2749
25067W        W68083   5.493   2.474  19.202  0.0896  0.0680  0.1291
25068W        W68084  17.291  22.622  22.256 -0.0790 -0.0336  0.3022
25069W        W68085  29.938  31.393  24.627 -0.2521 -0.0958 -0.1541
25070W        W68086   4.023  21.177  25.599 -0.0364 -0.0440 -0.0231
25071W        W68087   5.796  28.790  17.144 -0.0254 -0.0788  0.0488
25072W        W68088  34.224  21.297  17.421 -0.3048  0.0778  0.4474
25073W        W68089   8.820  11.714  20.075 -0.1129 -0.0035 -0.1928
25074W        W68090  13.515  33.305  18.293 -0.2304  0.2845  0.0587
25075W        W68091  33.562  11.503  16.226 -0.4151 -0.1345  0.4100
25076W        W68092  21.011  15.524  25.019  0.0704  0.0883  0.0461
25077W        W68093  14.353  11.753  12.994  0.1698  0.3913 -0.3527
25078W        W68094  18.983  17.529  12.629  0.0928 -0.1729  0.0984
25079W        W68095   7.541   2.762  21.707  0.1553  0.1905 -0.2179
25080W        W68096   7.720  13.643  14.259 -0.0649 -0.1489 -0.1436
25081W        W68097  33.060   2.501  16.619  0.2145  0.1350 -0.3096
25082W        W68098  34.324  33.333  27.968 -0.1010 -0.4648  0.2294
25083W        W68099  24.334   6.660   0.151 -0.2805  0.2524 -0.1666
25084W        W68100  15.118   3.314  13.753  0.2516 -0.2316  0.2809
25085W        W68101  32.451  29.620  21.092 -0.1161 -0.4193  0.3524
25086W        W68102  14.722  19.815  21.697  0.0032  0.0945 -0.1024
25087W        W68103   9.659  26.955  19.148  0.1444 -0.0884  0.1384
25088W        W68104   0.834  20.085  23.821 -0.1245  0.0152  0.3007
25089W        W68105  30.619  34.250  28.578 -0.2893 -0.0817  0.3358
25090W        W68106  30.167  28.018  15.952 -0.0197  0.2749  0.2039
25091W        W68107  16.269  28.851  24.582  0.1391  0.1941  0.0464
25092W        W68108  28.615   0.710  24.279  0.0287  0.1675  0.2161
25093W        W68109   4.514  27.710  14.763  0.1591  0.1153 -0.2163
25094W        W68110  10.993  28.144   9.144 -0.2300  0.0712  0.0110
25095W        W68111  29.843  11.829  20.515 -0.3421 -0.0382 -0.2756
25096W        W68112  10.960   4.840  21.271 -0.1126 -0.0638  0.2727
25097W        W68113  13.198  32.982  24.940 -0.2031 -0.1363  0.0086
25098W        W68114   8.141  18.906  16.404 -0.0072 -0.0607  0.1852
25099W        W68115  11.969  16.253  15.539  0.2282 -0.0648  0.2851
25100W        W68116  15.604  29.028  22.829  0.0648  0.2785 -0.2723
25101W        W68117  16.979  19.080   0.303 -0.1509  0.1093 -0.3079
25102W        W68118  33.495  20.859  24.596  0.1415 -0.0960  0.1669
25103W        W68119  28.429   4.166  19.100  0.2289  0.3761  0.3852
25104W        W68120   0.677  21.085  15.759  0.2366 -0.0534 -0.1174
25105W        W68121  10.524   3.632   6.536  0.1473 -0.0271  0.3436
25106W        W68122   6.457  21.491  23.330  0.1161 -0.1362 -0.1671
25107W        W68123  11.355  11.382  16.961  0.2870 -0.1103  0.2389
25108W        W68124  34.324  29.963  21.621  0.5822  0.0729  0.1773
25109W        W68125  10.093  21.496  19.782 -0.0362 -0.1044  0.3322
25110W        W68126  14.308  28.524  13.630 -0.2348  0.0649 -0.1260
25111W        W68127  16.286  29.273  27.959  0.0927  0.1495 -0.1670
25112W        W68128   2.718   8.782  28.226 -0.0029 -0.1810 -0.0307
25113W        W68129   7.709   6.555  17.084 -0.2573 -0.0555 -0.0725
25114W        W68130  30.432  17.161  21.254  0.0012  0.0979 -0.1234
25115W        W68131  25.367  23.727  17.701  0.0431  0.2171 -0.0075
25116W        W68132  26.783  27.386  19.596 -0.0209 -0.3517 -0.0303
25117W        W68133   6.648  20.080  28.309 -0.3301 -0.3773  0.1341
25118W        W68134   2.208  12.138   0.809  0.0107 -0.1000 -0.1266
25119W        W68135   1.066  22.789  27.898  0.1431  0.1507  0.0847
25120W        W68136  32.460   6.807  27.305  0.0633 -0.0002  0.2181
25121W        W68137  34.329  33.852   6.964  0.1134  0.2639 -0.1144
25122W        W68138  30.781  27.159  20.649  0.2966  0.1583 -0.1462
25123W        W68139  11.608  10.856  15.993 -0.1698 -0.0351 -0.1201
25124W        W68140  21.348  20.230  13.569 -0.1450  0.0343 -0.2737
25125W        W68141   5.489   1.858  23.487 -0.2570  0.2667  0.0978
25126W        W68142  18.992   5.599  28.071  0.3137  0.0773 -0.2774
25127W        W68143  16.978   2.250  22.798 -0.0402 -0.2058  0.4378
25128W        W68144   8.731  31.968  23.630  0.0456  0.0288 -0.2672
25129W        W68145  23.870  19.521  15.335  0.0540  0.1459 -0.4095
25130W        W68146   2.666  32.219  23.863  0.3495 -0.1046  0.2065
25131W        W68147   0.784   7.601  24.727 -0.1617 -0.0640 -0.1203
25132W        W68148  13.313  27.729  20.284 -0.1353 -0.0522  0.1810
25133W        W68149   8.933  18.741  14.990 -0.2901  0.1029  0.3280
25134W        W68150  13.384  16.804   3.081 -0.1064  0.1300 -0.1714
25135W        W68151  18.685  19.935  13.670  0.1111  0.0161 -0.0968
25136W        W68152   0.573  27.506   0.662 -0.0424 -0.1122 -0.1613
25137W        W68153  31.911  13.830  23.098  0.3706  0.0669 -0.1486
25138W        W68154  12.605  15.634  15.405 -0.0739  0.1300  0.0157
25139W        W68155   8.194   7.921  15.583  0.2323 -0.2966  0.0186
25140W        W68156   6.678  11.460  19.021 -0.2593 -0.0822 -0.3593
25141W        W68157  10.746   7.034  18.092  0.0750 -0.3375  0.0304
25142W        W68158  17.237  10.355  18.116 -0.1454 -0.1569  0.0978
25143W        W68159  26.975   1.861   2.541  0.1865 -0.0581  0.0572
25144W        W68160  12.300  30.382   2.206  0.2503 -0.2039 -0.0529
25145W        W68161  13.850  21.636  13.964  0.3994  0.0973  0.2067
25146W        W68162   9.057   4.253  16.322 -0.0740 -0.2752  0.0587
25147W        W68163  14.792  32.607  26.769 -0.0134 -0.0753  0.1177
25148W        W68164  12.399   0.328   6.675 -0.2281 -0.0098 -0.0426
25149W        W68165  29.592  19.845  20.745  0.0143  0.2568 -0.1781
25150W        W68166   9.107  12.861  19.548 -0.1584  0.0530  0.0837
25151W        W68167   2.058  17.051  16.952  0.3523  0.0837 -0.0241
25152W        W68168  13.534  29.111  13.836 -0.1136 -0.0548  0.3634
25153W        W68169  17.274   9.050  19.219  0.1064  0.2280 -0.2852
25154W        W68170  12.888  12.675  17.703 -0.2208 -0.1992  0.1157
25155W        W68171   7.004   8.178  21.599  0.0315  0.0186 -0.0930
25156W        W68172  24.914   0.540   0.547 -0.2583 -0.1252  0.1165
25157W        W68173  30.206   5.984  18.142  0.3129 -0.1215 -0.1920
25158W        W68174  13.025  22.028  24.009  0.0315  0.1238 -0.1213
25159W        W68175  33.517   8.551  16.543 -0.1835 -0.0871  0.2072
25160W        W68176   5.551  26.942  22.188 -0.6030 -0.0627 -0.1859
25161W        W68177  31.990  21.161   1.471  0.2075 -0.3554 -0.1840
25162W        W68178   5.455   5.242  17.897  0.3086  0.0127 -0.0893
25163W        W68179   7.086  23.554  18.899  0.0779 -0.0448  0.1072
25164W        W68180  16.070  17.413  13.820 -0.1289 -0.0435 -0.1611
25165W        W68181  29.309  19.846  23.102 -0.1267 -0.0495 -0.2538
25166W        W68182   0.615   5.267   9.855 -0.1454 -0.0028 -0.1971
25167W        W68183   4.656  14.189   7.442 -0.0686 -0.2173  0.1658
25168W        W68184  34.686  30.664  16.265  0.1717 -0.0416  0.1180
25169W        W68185  34.405  19.478  16.033  0.1477 -0.4148  0.1223
25170W        W68186  10.217   9.797  15.990 -0.1141 -0.1037  0.0070
25171W        W68187   8.001   8.996  28.495  0.1758  0.1871  0.2734
25172W        W68188   8.746   9.536  15.180  0.0746  0.4090 -0.1947
25173W        W68189  13.250   3.219  21.332  0.0958  0.3098  0.0082
25174W        W68190  12.139  18.424  12.515 -0.0231  0.1436 -0.1766
25175W        W68191  29.935  16.782  20.625 -0.1150 -0.3114  0.1000
25176W        W68192  11.579  13.811  20.589  0.0173  0.1136 -0.1145
25177W        W68193  12.819  20.934  23.487 -0.1151 -0.0896  0.1031
25178W        W68194   2.140  14.268  19.836  0.0301 -0.4112 -0.1788
25179W        W68195  24.922  25.186  18.736 -0.2140 -0.3063 -0.3317
25180W        W68196  13.409   9.816  16.759  0.1418 -0.0290 -0.0567
25181W        W68197   8.979   6.571  20.823  0.1777  0.0475  0.0480
25182W        W68198  16.382   0.328  20.192  0.0976  0.1601 -0.1486
25183W        W68199   4.394  10.689  25.599 -0.3019  0.1124  0.3615
25184W        W68200  29.934   1.724  27.308  0.0715 -0.0412 -0.2981
25185W        W68201  11.718   2.917  18.563  0.1960 -0.1552 -0.0795
25186W        W68202  21.460  23.616  15.982  0.2817  0.0174  0.0507
25187W        W68203   7.900  16.026  15.653 -0.4432 -0.2570  0.0287
25188W        W68204   1.280   9.914  20.196  0.1638 -0.0886  0.1845
25189W        W68205  21.092  32.616  21.334 -0.0660 -0.1827  0.1459
25190W        W68206  19.341  18.269  22.905  0.1174  0.0597  0.2312
25191W        W68207  21.623   4.168  22.913 -0.2091 -0.1096 -0.0964
25192W        W68208   1.155   5.552   5.310  0.1437  0.0638  0.1213
25193W        W68209  17.682   5.138  14.493  0.1606 -0.1142 -0.1041
25194W        W68210   7.806  17.019  16.336 -0.0039  0.1665 -0.2488
25195W        W68211   1.975   8.267  17.758 -0.0343 -0.4008 -0.1986
25196W        W68212  32.191  18.708  26.586 -0.1961  0.3008 -0.3172
25197W        W68213  33.938   4.775  20.636  0.2420 -0.0651  0.1405
25198W        W68214  12.900   8.960   1.415  0.0234 -0.2237  0.2219
25199W        W68215  11.842  20.665  17.466 -0.1449  0.0138 -0.1805
25200W        W68216  16.554  32.859  24.751  0.0666  0.0185 -0.4260
25201W        W68217  15.847   7.963  16.487 -0.2252  0.3908 -0.1347
25202W        W68218   5.923  16.597  23.574  0.3236 -0.1051  0.2586
25203W        W68219  34.522  19.323   3.660 -0.2091  0.2995  0.3792
25204W        W68220   9.550  15.164  15.948 -0.0747 -0.2035  0.1774
25205W        W68221   7.941  18.103  18.596  0.1680  0.3925 -0.1096
25206W        W68222   9.960  17.881  25.112  0.0251 -0.1076 -0.0792
25207W        W68223  25.259   9.834  24.648  0.2968  0.3846 -0.0661
25208W        W68224  15.012   5.020  20.446 -0.3168  0.0209 -0.2144
25209W        W68225  20.892  25.921  16.154 -0.2127 -0.2129 -0.0310
25210W        W68226   8.698  32.071  17.530 -0.4844 -0.0186  0.2627
25211W        W68227  11.764  25.176  19.992  0.0530 -0.0580  0.0416
25212W        W68228  32.498  21.299  22.836 -0.2770  0.1255 -0.3956
25213W        W68229   6.595  11.815  18.607  0.1909 -0.3076  0.2214
25214W        W68230  24.719  19.856  18.544 -0.0716 -0.3202  0.6072
25215W        W68231   4.472  14.183   8.896  0.1189  0.1530 -0.3563
25216W        W68232  14.949  15.298   3.572 -0.0953  0.0447  0.0643
25217W        W68233  12.927   9.620  14.237  0.1389  0.2681  0.0814
25218W        W68234   0.597   4.578  22.402  0.1163 -0.1890  0.0673
25219W        W68235  12.788  15.869  13.522  0.0616  0.1043  0.2966
25220W        W68236   9.528  16.362  12.917 -0.1074 -0.0361 -0.0756
25221W        W68237   2.185   9.436  20.220 -0.0465 -0.2984 -0.2149
25222W        W68238   5.551  11.877  20.661 -0.0569  0.1857 -0.2668
25223W        W68239  14.381  24.677  15.649 -0.1301 -0.1815 -0.1153
25224W        W68240  25.929   0.822   3.227 -0.2820  0.0546 -0.0026
25225W        W68241  30.320  24.827  24.046  0.2123 -0.0429 -0.3657
25226W        W68242   5.342  20.987  27.328 -0.1069  0.1743 -0.2226
25227W        W68243  11.720   7.123  21.062  0.1590  0.1358  0.2415
25228W        W68244   9.211   3.453  17.838  0.2932 -0.0130  0.1947
25229W        W68245  32.171  17.407   1.096 -0.2944 -0.0020  0.2351
25230W        W68246  34.680  11.174  17.926  0.0971  0.0073 -0.0890
25231W        W68247  12.773  15.083  12.933 -0.0749 -0.1042 -0.0640
25232W        W68248   1.369  30.786  14.881 -0.1468  0.1553  0.3056
25233W        W68249  22.449   2.928  24.758 -0.0035  0.1123  0.0199
25234W        W68250  20.042  11.141  23.290 -0.2160 -0.1537 -0.1095
25235W        W68251   8.617  26.553   6.141 -0.0674 -0.1758 -0.1595
25236W        W68252  10.718  23.555  12.611  0.3292  0.3148  0.1738
25237W        W68253   9.257   4.971  17.341 -0.1858  0.1337 -0.0351
25238W        W68254   5.162  23.276  21.533  0.0362  0.0274 -0.1142
25239W        W68255  32.550  16.457   4.989  0.0560 -0.0028 -0.1341
25240W        W68256  14.491  30.067  17.574 -0.2375  0.0523 -0.3340
25241W        W68257   2.044  10.833  14.578 -0.0366 -0.1303 -0.0129
25242W        W68258  21.230   2.165  15.930  0.2336 -0.0406 -0.0102
25243W        W68259  14.972  13.795   0.704  0.1774 -0.0569  0.2190
25244W        W68260   6.955  21.672   3.128  0.0220 -0.2346  0.0365
25245W        W68261  12.178  16.848  15.989  0.1975  0.2647  0.1164
25246W        W68262   0.868  10.685  22.612 -0.1751 -0.1060  0.1050
25247W        W68263   6.305  31.212   6.633  0.1614 -0.0671  0.0990
25248W        W68264   3.302   1.429  14.289 -0.0717  0.0672  0.1096
25249W        W68265  34.143  18.582  16.083  0.0583 -0.0822  0.2185
25250W        W68266  12.102  12.214  13.124 -0.1415  0.1587 -0.1535
25251W        W68267  15.973  31.812   2.619  0.1589 -0.0269  0.0977
25252W        W68268   2.527  25.002   1.815  0.0115 -0.0652 -0.0284
25253W        W68269   2.159  20.620  23.716 -0.1346  0.0540 -0.0067
25254W        W68270  29.920  26.489  17.414 -0.1088 -0.0701 -0.0091
25255W        W68271   3.159  19.894  17.395  0.0167 -0.1546 -0.0463
25256W        W68272  11.518  11.152  18.623  0.1563 -0.0645 -0.0103
25257W        W68273  27.915   1.612   3.550  0.5067 -0.3506  0.1837
25258W        W68274  29.955  28.056  28.443  0.0928  0.2153  0.3037
25259W        W68275   5.997   7.441   7.279 -0.0016  0.2295 -0.0432
25260W        W68276  24.561  11.674  13.868  0.2206 -0.1704  0.1215
25261W        W68277  15.535   8.238  26.518  0.1980 -0.0974 -0.2560
25262W        W68278   0.544  13.614  19.793  0.3404 -0.0506  0.1923
25263W        W68279  33.030  12.121   4.730 -0.2194 -0.3757  0.1327
25264W        W68280  15.445  10.912   1.773  0.0874 -0.1917  0.3219
25265W        W68281  13.453   3.686  15.093  0.0199  0.4336  0.0963
25266W        W68282  21.770  17.070  14.797  0.0959  0.2580 -0.1530
25267W        W68283   1.626   3.930  20.836 -0.2280 -0.0959 -0.2666
25268W        W68284  22.036  33.236  16.419  0.2330 -0.1931 -0.2738
25269W        W68285  33.247   7.206  27.417  0.4339 -0.0274 -0.1372
25270W        W68286   4.563  17.252  15.053  0.2313  0.1254  0.1097
25271W        W68287  32.079  17.553   3.532  0.0246  0.5408  0.0324
25272W        W68288  12.970   7.295   0.096 -0.1505  0.3812 -0.0960
25273W        W68289  31.645  19.888  21.771 -0.0214  0.1048  0.0299
25274W        W68290  27.267   2.593  24.804 -0.0396  0.0726  0.0986
25275W        W68291   8.482  19.559  20.454 -0.0849 -0.0132 -0.1761
25276W        W68292  19.086   4.427  21.111  0.0102  0.1430 -0.3372
25277W        W68293  11.709  10.108  18.722 -0.0330  0.1682  0.3452
25278W        W68294  12.815  30.644  18.847  0.3171 -0.2336  0.2967
25279W        W68295  33.135  20.538  26.317  0.0259  0.2251  0.3908
25280W        W68296   8.255  12.614  28.215  0.0854 -0.0257  0.1050
25281W        W68297  11.216  17.106  15.032 -0.0471 -0.2487  0.0189
25282W        W68298  14.305   0.633  23.157 -0.2508  0.0118 -0.0607
25283W        W68299  34.603   6.202  17.953 -0.0006  0.0926 -0.2632
25284W        W68300  32.047  10.675  19.246 -0.1649  0.2669 -0.0683
25285W        W68301  10.930  27.502  21.364 -0.2726 -0.2721  0.0587
25286W        W68302  32.024  18.157  22.932  0.0055  0.0966  0.2087
25287W        W68303  21.436  15.315  14.052  0.0202 -0.1011  0.1033
25288W        W68304   3.449  22.316   3.199 -0.2860 -0.3819 -0.0113
25289W        W68305   3.865  30.373  10.033 -0.0495  0.0838  0.1701
25290W        W68306  32.505  12.607  10.106  0.3030 -0.1710 -0.3588
25291W        W68307  20.701  24.775  20.070 -0.0844  0.4087  0.0041
25292W        W68308   6.923  17.604  23.240  0.3336 -0.2772 -0.0143
25293W        W68309  11.172  13.558  13.447  0.1318  0.1824  0.1092
25294W        W68310   6.981  16.577  15.528 -0.0085 -0.1566 -0.0089
25295W        W68311  14.350  28.133  17.401 -0.1159 -0.1659 -0.0785
25296W        W68312   9.650   8.644  27.118  0.1337 -0.2755 -0.0254
25297W        W68313  27.201  25.222  20.116 -0.1240 -0.0112 -0.1505
25298W        W68314  18.500  14.729  14.195 -0.3001  0.1458 -0.0230
25299W        W68315  22.141   1.077  24.463  0.2784 -0.1195 -0.1566
25300W        W68316  23.824   8.970  15.719 -0.2935 -0.0143 -0.0644
25301W        W68317  12.306  25.924  23.813  0.1763  0.1785 -0.1738
25302W        W68318  12.094  26.274  15.580 -0.0693 -0.2449 -0.1917
25303W        W68319   7.700   9.652  29.234 -0.1789  0.0104 -0.1420
25304W        W68320   3.514  33.998  14.662 -0.0764 -0.1381  0.0529
25305W        W68321  32.212  23.533  28.750 -0.0830 -0.1149  0.1454
25306W        W68322   4.310  17.688  19.414  0.1718 -0.2549  0.0619
25307W        W68323  29.629  10.275   3.755  0.0003 -0.2015  0.0546
25308W        W68324  29.488  20.650  19.158  0.1065 -0.1651  0.4581
25309W        W68325   3.846  29.731  18.139 -0.0231  0.2711 -0.1353
25310W        W68326   9.513  10.881  18.824  0.1061 -0.1216 -0.3695
25311W        W68327   0.980  21.427  28.640 -0.0589  0.2074 -0.1507
25312W        W68328   4.283  16.321  15.413 -0.0363  0.0488  0.1085
25313W        W68329  16.191  17.461  14.740  0.0809 -0.0192  0.1288
25314W        W68330  28.715  24.395  25.984  0.0411 -0.1944 -0.2972
25315W        W68331  10.144  22.690  25.769  0.3395 -0.1763  0.1521
25316W        W68332   5.916  17.309  24.263 -0.0473  0.0277 -0.3542
25317W        W68333  29.988   1.307  18.782  0.1917  0.1951  0.3587
25318W        W68334  13.098  11.511  14.307 -0.1726 -0.1728 -0.1262
25319W        W68335   2.075  21.527  14.820  0.3116  0.1850  0.4042
25320W        W68336   9.605  26.686   6.081 -0.1040  0.0134  0.0532
25321W        W68337  23.379  23.899  23.771  0.1061  0.0178  0.0201
25322W        W68338   4.748  15.967  22.084  0.1275  0.0362  0.0896
25323W        W68339  17.257  30.223  15.129  0.2883 -0.1366 -0.0657
25324W        W68340   1.097  10.550  16.519 -0.1643 -0.2209 -0.2182
25325W        W68341   1.026   5.027  18.305  0.1223 -0.0762 -0.1612
25326W        W68342   9.311  15.961  13.935  0.0146 -0.1146  0.1391
25327W        W68343  27.592   7.341  17.609  0.0593 -0.0225  0.0400
25328W        W68344  14.952   2.319  20.007  0.1015 -0.1686 -0.3305
25329W        W68345  34.403  14.495  25.502  0.3688  0.2182  0.1629
25330W        W68346  27.813  11.052  24.593 -0.3518 -0.2473 -0.0835
25331W        W68347  25.134  33.558  21.547 -0.3189 -0.1117  0.0485
25332W        W68348  29.024  14.844   0.587 -0.1183  0.0062 -0.2683
25333W        W68349  32.539  10.571  19.115 -0.0776  0.2873 -0.1375
25334W        W68350  19.076  12.835   3.521 -0.1977  0.2961  0.0563
25335W        W68351   9.606  10.333  14.636  0.0378  0.1427 -0.1856
25336W        W68352   4.466  27.247  23.413  0.1578  0.0074 -0.0034
25337W        W68353  34.731  28.953  18.520 -0.0753  0.0808 -0.0055
25338W        W68354   4.725  14.515  19.202 -0.3429 -0.1727  0.1641
25339W        W68355   2.430   8.374  14.879  0.0157 -0.1197  0.1804
25340W        W68356  31.178   4.604  26.641  0.0438 -0.0399  0.4740
25341W        W68357   8.536  14.267  13.799  0.3367 -0.1195 -0.0181
25342W        W68358   5.652  30.230  13.690  0.2899 -0.0601  0.1680
25343W        W68359  14.855  26.270   0.868  0.2316  0.0683 -0.0747
25344W        W68360  33.647  24.991  19.822  0.3594 -0.2237 -0.6347
25345W        W68361  18.361  22.336  15.859 -0.0750  0.3505 -0.4012
25346W        W68362   1.316  13.688  18.994  0.3062 -0.5789 -0.0079
25347W        W68363   1.346   3.821  19.808 -0.1279 -0.1131  0.1540
25348W        W68364  27.377  12.656  27.989 -0.3644  0.0096 -0.1214
25349W        W68365   5.788   9.148  24.971 -0.3482  0.0931  0.2724
25350W        W68366   3.987   7.717  22.019  0.3514  0.0037 -0.0745
25351W        W68367  34.069  33.624  28.266  0.0716  0.0786  0.0093
25352W        W68368  32.546  25.548  15.802 -0.4888 -0.1686 -0.0527
25353W        W68369  21.472  16.902   5.550  0.2099 -0.1501  0.2127
25354W        W68370   4.319  12.585  18.895  0.1458 -0.0228 -0.1573
25355W        W68371   7.711  24.733  14.478  0.4609 -0.1631 -0.2349
25356W        W68372  14.022   1.724  21.183  0.1886  0.2156  0.0411
25357W        W68373  33.721  29.076  20.608  0.0474  0.1296  0.2727
25358W        W68374  31.874   2.510  21.985 -0.0382 -0.1793 -0.0163
25359W        W68375  27.259   5.938  26.827 -0.0562 -0.2820  0.0860
25360W        W68376   8.071  15.493  15.461  0.1025  0.0226  0.0987
25361W        W68377  16.775  13.425  28.514 -0.1353 -0.4009  0.0477
25362W        W68378  15.271   8.004  14.027  0.0722 -0.3487  0.0010
25363W        W68379  12.444  11.857  13.855 -0.0074 -0.2620 -0.0982
25364W        W68380  12.220  15.473  21.415  0.0760 -0.2302  0.0672
25365W        W68381   1.881  15.793  14.858 -0.1027 -0.2149  0.0584
25366W        W68382   5.935   4.323  28.187 -0.0009 -0.1792 -0.2620
25367W        W68383   5.912  18.783  21.629  0.2728 -0.0917  0.2021
25368W        W68384   7.313   9.366   8.743  0.1496  0.2473  0.2882
25369W        W68385   6.724   5.958  26.123  0.4007 -0.0652 -0.1559
25370W        W68386  15.186   3.201  20.985 -0.0535 -0.1688 -0.2762
25371W        W68387  32.359  13.821  21.342  0.2484  0.1237  0.0493
25372W        W68388  12.588  21.494  12.862 -0.3027 -0.0042  0.2809
25373W        W68389   8.290  16.331  15.704 -0.2090  0.1671  0.1438
25374W        W68390  29.851  27.539  28.484 -0.2493 -0.2196  0.2839
25375W        W68391  29.678   1.031  24.791  0.0023 -0.1024  0.0553
25376W        W68392  27.299  34.437  24.186  0.1968  0.0202 -0.2099
25377W        W68393  27.063   2.492  15.535 -0.3134 -0.1370 -0.1265
25378W        W68394  14.093  12.225  12.772 -0.1523 -0.0174 -0.0717
25379W        W68395   7.127  17.097  15.668  0.2830 -0.0355 -0.0917
25380W        W68396  10.233  14.934  24.875  0.0529  0.3884  0.0830
25381W        W68397   5.543   5.393  28.810 -0.0588 -0.0717 -0.0406
25382W        W68398  31.110  25.011  16.447 -0.1925 -0.1858  0.1270
25383W        W68399  12.357   4.338  19.632  0.0438  0.3891 -0.0344
25384W        W68400   6.379  10.671   4.075  0.2003  0.0273 -0.3467
25385W        W68401  10.256  23.532  16.010  0.0396 -0.4373  0.0507
25386W        W68402  26.671  11.689  27.006 -0.1590  0.0039 -0.2819
25387W        W68403  32.749  30.395  22.056 -0.1464  0.0862 -0.0622
25388W        W68404  29.704  12.702  20.734  0.0071 -0.1378  0.2316
25389W        W68405  32.858  26.977   1.042 -0.2148 -0.2122 -0.3113
25390W        W68406   8.782  14.904   1.240  0.0131  0.0271  0.0076
25391W        W68407   2.849   6.616  17.520  0.2831 -0.0751 -0.3357
25392W        W68408   6.176  20.869  26.626 -0.0343  0.1283  0.0724
25393W        W68409   4.010   2.283  19.461 -0.0593  0.2497 -0.1052
25394W        W68410  13.996   6.129  13.624  0.0743  0.1353  0.0018
25395W        W68411  17.485  33.379   3.462 -0.0584 -0.1752  0.0302
25396W        W68412   0.467   9.400  22.812 -0.0967 -0.1470 -0.1636
25397W        W68413  25.151  24.832  24.897 -0.0897 -0.1320 -0.0684
25398W        W68414  32.893  19.318  23.203  0.1828  0.0935 -0.0051
25399W        W68415   7.774   3.529  15.013 -0.3760  0.0613  0.0068
25400W        W68416   8.021   4.111  25.284 -0.1244  0.1022 -0.3813
25401W        W68417  12.124  19.349  18.125 -0.2724  0.0022 -0.3204
25402W        W68418  30.023  10.556  26.924 -0.0148 -0.0173  0.0852
25403W        W68419  17.442  15.701  22.097  0.2101  0.1259  0.1818
25404W        W68420   2.107  27.802  25.172  0.0705 -0.0475  0.2451
25405W        W68421  30.635  15.986  27.385  0.0974 -0.0527  0.1096
25406W        W68422  29.507  19.776  16.421  0.0440 -0.0869 -0.1614
25407W        W68423  11.065  24.797  13.867 -0.0164  0.0407  0.1636
25408W        W68424   2.325  28.994  23.109  0.4044 -0.1445 -0.0087
25409W        W68425  11.528   5.107  25.772 -0.0531 -0.1813  0.1083
25410W        W68426  26.429   7.987  29.107 -0.2616 -0.0052 -0.2278
25411W        W68427  23.964  25.058  17.821  0.2750  0.1833 -0.1225
25412W        W68428  32.296  14.144   0.103  0.2579  0.3856  0.0426
25413W        W68429  12.921  14.510  23.418  0.0919  0.3048 -0.1118
25414W        W68430  23.834  19.244  18.443 -0.1558 -0.4015  0.1143
25415W        W68431   6.680  17.130  20.246 -0.1054  0.0589 -0.0278
25416W        W68432   6.418   3.031  18.709  0.1290  0.0323 -0.1666
25417W        W68433   5.820  32.741  17.330  0.1396  0.0616  0.1886
25418W        W68434  21.969  31.617   7.082  0.2915 -0.1312 -0.0918
25419W        W68435  17.072  20.862   1.233  0.3075 -0.0671 -0.1642
25420W        W68436  33.656   0.066  20.038 -0.1272  0.0257 -0.0196
25421W        W68437  30.748   6.330   0.000 -0.0431 -0.3395  0.0333
25422W        W68438  10.059   6.539  22.542  0.2293 -0.0963  0.2060
25423W        W68439  33.701   2.397  25.099  0.1193  0.0313  0.1576
25424W        W68440   0.582  15.900  17.801  0.1326  0.1236  0.4313
25425W        W68441   9.724  14.859  13.500 -0.0259  0.0500 -0.1240
25426W        W68442  34.201  12.019   1.408  0.0320 -0.0461 -0.0016
25427W        W68443   8.409  12.836   8.522 -0.1209 -0.1212 -0.1249
25428W        W68444  34.581  20.479  22.150 -0.1417  0.0480  0.2014
25429W        W68445  12.934  27.260  24.238  0.1451 -0.0229 -0.1540
25430W        W68446  13.603  20.464  24.927 -0.0859  0.2180 -0.0226
25431W        W68447   5.404  11.757  14.109  0.1855  0.1173 -0.0714
25432W        W68448   5.410  15.682   5.082  0.2413  0.0351 -0.1365
25433W        W68449  24.356  27.188  28.241  0.0086  0.0592 -0.0242
25434W        W68450  17.546  12.719  26.276  0.1083  0.0964  0.0369
25435W        W68451  24.593  17.771  13.877 -0.4029 -0.2201 -0.0886
25436W        W68452  34.309   3.618  24.855 -0.2907 -0.0828 -0.2428
25437W        W68453  19.015  10.552  18.525 -0.1117 -0.1497  0.0145
25438W        W68454  34.684  18.612  19.452 -0.1459 -0.0639  0.2223
25439W        W68455  14.967   3.797  14.013  0.0208 -0.0945  0.0852
25440W        W68456   2.239   4.989  15.138  0.1031  0.0527 -0.3088
25441W        W68457  29.264   4.456  18.102  0.3497  0.2032  0.0735
25442W        W68458   5.854  17.560  18.583  0.1626 -0.1287  0.2041
25443W        W68459  22.451   7.195  28.429 -0.1593 -0.0462  0.0298
25444W        W68460   5.940   2.266  20.493  0.1219 -0.2827  0.0064
25445W        W68461  18.381  32.723  19.992 -0.1056  0.0256 -0.1706
25446W        W68462   3.676  18.222   9.533  0.2887  0.1736 -0.2323
25447W        W68463   6.917  18.260  24.995 -0.1553 -0.2374 -0.0163
25448W        W68464  25.682  13.266  16.960  0.0785  0.0456 -0.0358
25449W        W68465  12.193   3.576  22.742  0.2026  0.1217  0.3613
25450W        W68466  30.914  15.818  15.579  0.0754  0.1168 -0.0786
25451W        W68467   5.065  24.946  17.143 -0.1172 -0.3859 -0.1179
25452W        W68468  10.252  18.155  13.267 -0.0510 -0.2526 -0.0171
25453W        W68469   2.793  18.721  18.083 -0.3810  0.1087 -0.2104
25454W        W68470   2.428  23.168  19.925  0.0829 -0.0101 -0.1106
25455W        W68471  10.033  19.625  19.876  0.1076 -0.0915 -0.0841
25456W        W68472   1.912  26.045  23.627 -0.1783 -0.1457  0.2777
25457W        W68473  10.491  15.240  15.749  0.0381  0.0984 -0.1491
25458W        W68474  15.740  12.214  22.808 -0.1472 -0.0127  0.1205
25459W        W68475   0.634  32.155  15.020  0.0086  0.0860 -0.1151
25460W        W68476   1.343  10.621  17.001  0.2710  0.1260 -0.3803
25461W        W68477  33.876  18.763   7.803  0.0503 -0.1954  0.1532
25462W        W68478   6.703  18.878  12.428 -0.0779 -0.2025 -0.1525
25463W        W68479   0.111  18.654  25.370  0.2108  0.2923 -0.1395
25464W        W68480  13.688   2.007  19.411 -0.1756 -0.1228  0.2443
25465W        W68481  28.846  15.723  27.669 -0.0417  0.1106  0.0789
25466W        W68482  24.869   6.413  18.315  0.0891  0.2272  0.2665
25467W        W68483   5.888   4.446   8.723 -0.4325  0.2201 -0.0940
25468W        W68484  31.433   0.127  24.584  0.2053  0.3263  0.2446
25469W        W68485  34.741   4.889  26.332  0.0383  0.0046 -0.0214
25470W        W68486   9.913  10.408  24.470 -0.3327 -0.0466  0.0770
25471W        W68487  25.270  20.707  15.231 -0.0087 -0.0828 -0.0955
25472W        W68488  15.095   8.602  15.303  0.2466  0.0519 -0.2480
25473W        W68489   1.111  16.013  26.305 -0.0885  0.1615  0.0578
25474W        W68490   3.906  17.976   1.103 -0.1106  0.0104  0.3533
25475W        W68491  10.275   5.711   2.037  0.0219  0.0417 -0.0408
25476W        W68492   2.332  33.442  23.390 -0.0565  0.1440  0.1298
25477W        W68493  12.405  11.763  19.454 -0.1007  0.3119 -0.0214
25478W        W68494   5.555  11.477  20.966 -0.2888  0.2103 -0.1404
25479W        W68495  30.933  15.261  27.919  0.2182  0.1105 -0.0412
25480W        W68496  18.602   9.139  13.443  0.0428 -0.0832  0.1668
25481W        W68497  12.529  18.325  20.156  0.1974 -0.1837 -0.1018
25482W        W68498   9.531  15.278   1.612  0.1230 -0.0574 -0.0765
25483W        W68499   6.888  18.099  26.541 -0.6583 -0.1477 -0.1940
25484W        W68500  32.086  11.032   4.524 -0.3994 -0.0681 -0.0534
25485W        W68501  34.086  12.981   7.897  0.1159  0.1472  0.0426
25486W        W68502  22.854  20.518  21.346  0.1539 -0.0023  0.1618
25487W        W68503  16.379  10.061  17.119 -0.2724  0.4078  0.1682
25488W        W68504  29.799  16.442  15.881  0.1085  0.1029  0.0023
25489W        W68505  15.651  29.446  21.083  0.1638 -0.0999 -0.0421
25490W        W68506  30.073   0.662  28.541  0.2963 -0.0845  0.0180
25491W        W68507  34.207  19.500  26.832 -0.0842  0.0809 -0.1955
25492W        W68508   6.634   6.792  17.878  0.1134 -0.0065  0.1084
25493W        W68509  26.781   9.658  17.112 -0.0545 -0.1350 -0.1073
25494W        W68510  13.495   7.827   0.585 -0.3236 -0.0095  0.0402
25495W        W68511  32.947  15.406  20.188  0.1732  0.0500 -0.1135
25496W        W68512  11.336  24.689  18.238  0.1039 -0.1574  0.0913
25497W        W68513   9.500   9.149  15.965 -0.1381  0.0700  0.0920
25498W        W68514   4.416  14.074  16.142  0.0109  0.0528 -0.1469
25499W        W68515  33.209  29.354  22.620 -0.1426  0.1716  0.3327
25500W        W68516  12.377   3.550  25.353  0.1763 -0.2315  0.1839
25501W        W68517   4.593  26.187  19.519  0.1142  0.1755 -0.2177
25502W        W68518  30.520  21.158  20.077 -0.0129  0.4118  0.0471
25503W        W68519   3.958  27.783  24.168  0.1662 -0.0328 -0.0714
25504W        W68520   5.014   1.838  19.409 -0.1181 -0.2030 -0.0039
25505W        W68521  11.872  10.359  18.178  0.0168 -0.0577  0.2858
25506W        W68522   6.108  20.015  23.974  0.5012  0.0746  0.1313
25507W        W68523  11.345  23.376  16.225 -0.0920 -0.1903 -0.1626
25508W        W68524   9.280   6.790  29.037 -0.0971  0.0615  0.2203
25509W        W68525   5.797  14.613  24.562 -0.0501 -0.1446  0.2386
25510W        W68526   7.028   4.657  15.407 -0.0710  0.1492  0.0597
25511W        W68527   9.731   5.679  19.707  0.1013  0.0361  0.1320
25512W        W68528  31.471   6.500  18.388  0.0584  0.1720 -0.3810
25513W        W68529   4.014   9.443  21.488 -0.3141  0.1601  0.1093
25514W        W68530   2.837  20.071  14.180 -0.1906 -0.3073  0.0387
25515W        W68531  12.047   4.758  14.588 -0.1877 -0.1035  0.1581
25516W        W68532  23.322   5.736  20.209 -0.0269 -0.2598  0.0158
25517W        W68533  31.743   5.677  19.956 -0.1980 -0.2503 -0.1268
25518W        W68534  26.567  12.808  28.457 -0.1519 -0.1454  0.1491
25519W        W68535   3.561  12.342  17.480 -0.1621  0.1697  0.1761
25520W        W68536   1.026  13.547   3.740  0.0451 -0.0053 -0.0882
25521W        W68537  29.340  13.241  21.942 -0.0796 -0.3294 -0.1096
25522W        W68538  33.095  13.717  17.209  0.3733 -0.0682  0.1216
25523W        W68539   3.123  29.854  23.579 -0.1209 -0.2455 -0.1376
25524W        W68540  27.561  10.607  16.621 -0.0766  0.0423 -0.0575
25525W        W68541  17.609   5.697  21.298 -0.0626 -0.0670  0.0154
25526W        W68542  32.618  31.757  26.071  0.1326 -0.0218  0.1217
25527W        W68543   5.256  20.990   2.055 -0.3059 -0.3225  0.2098
25528W        W68544   2.048  24.876  27.630  0.0386 -0.1238 -0.1308
25529W        W68545   2.882  16.338  27.188  0.0620 -0.2922 -0.0335
25530W        W68546  28.116  18.541  14.768 -0.3345 -0.0046  0.0633
25531W        W68547   8.102  29.046  23.475  0.1765 -0.3324  0.2895
25532W        W68548  18.565  27.626  21.839  0.2331 -0.1962  0.2911
25533W        W68549  15.199   8.531  20.295 -0.0504 -0.0449 -0.0389
25534W        W68550   5.495   5.703  16.350  0.0371  0.1916  0.0433
25535W        W68551   4.100   0.991  19.992  0.0681  0.1447  0.0070
25536W        W68552  31.571   4.740  29.100  0.0527 -0.1090 -0.1733
25537W        W68553   1.174  17.348  20.410  0.1954  0.2732  0.0284
25538W        W68554  11.188  25.098  15.805  0.1456 -0.2613  0.0825
25539W        W68555  18.272  25.800  28.901  0.0589 -0.2923 -0.0669
25540W        W68556  16.101  22.459  15.872  0.0432 -0.0137  0.2941
25541W        W68557  25.645   1.737   5.586  0.2539 -0.1093 -0.1851
25542W        W68558  23.177  19.129  14.842  0.3288  0.0298  0.2019
25543W        W68559   0.743  29.426   4.962 -0.2413 -0.3774  0.1144
25544W        W68560  25.717   5.500  19.790  0.0305  0.1511  0.2916
25545W        W68561  16.535  11.989   1.225 -0.0678 -0.3496 -0.1681
25546W        W68562  11.343  17.349  22.977  0.2063 -0.1973 -0.4389
25547W        W68563  18.707  24.414  14.770  0.0895 -0.1078  0.1768
25548W        W68564  32.863   5.131  15.673 -0.1449  0.3654  0.1525
25549W        W68565   0.625   9.014  17.072  0.0688 -0.1308 -0.2932
25550W        W68566   8.947   5.066  14.936  0.2484 -0.0239  0.1642
25551W        W68567   2.112  12.045  28.269 -0.0042 -0.0010 -0.3217
25552W        W68568   0.389   5.465  14.663 -0.0411  0.3715  0.2101
25553W        W68569   6.419  13.654  21.963  0.1663 -0.3335  0.0861
25554W        W68570  14.984  14.148  23.484 -0.1952 -0.0820 -0.1159
25555W        W68571  23.733  15.133  17.077  0.3354  0.1109 -0.0505
25556W        W68572  33.493   9.709  28.510 -0.0737 -0.3719 -0.4300
25557W        W68573   6.790  14.250  23.340  0.1223  0.1678  0.1924
25558W        W68574  29.612   9.290  25.801 -0.0176  0.1164  0.0959
25559W        W68575  12.639  15.812  26.617  0.0243  0.0455  0.0297
25560W        W68576   0.704  32.782  17.333  0.0353  0.1167  0.0615
25561W        W68577   8.544  18.749  25.809 -0.0017 -0.0893  0.3015
25562W        W68578  30.929  23.716  17.386 -0.0225  0.1042  0.0172
25563W        W68579  13.163   4.235  21.121  0.0452  0.1887  0.5499
25564W        W68580   0.229   1.315  15.791 -0.2848  0.0927 -0.2166
25565W        W68581  21.451   2.766   2.634 -0.3515 -0.1841  0.1334
25566W        W68582  31.864  19.279  14.817  0.4672  0.2019  0.2201
25567W        W68583   9.728   0.682  21.880 -0.0687  0.0836 -0.0033
25568W        W68584  28.467  18.629  26.670  0.0685 -0.1978  0.1587
25569W        W68585  32.715   1.636  28.221  0.0505 -0.0653 -0.1318
25570W        W68586  29.215  17.188  20.588 -0.1346 -0.1121  0.0332
25571W        W68587   5.892  12.700  19.810  0.0357 -0.1383 -0.6312
25572W        W68588  11.253   5.905  17.849 -0.1996  0.2973 -0.1358
25573W        W68589  29.683  16.782  24.962  0.0342  0.0387 -0.0644
25574W        W68590  23.519  13.045  23.017 -0.0559  0.1847 -0.1130
25575W        W68591   5.373  27.578  18.410 -0.0333 -0.0715  0.2348
25576W        W68592   8.689  32.796  15.717  0.1636  0.1673 -0.1187
25577W        W68593   1.614  15.754   0.859  0.0705 -0.3039  0.3183
25578W        W68594  20.005  25.148  23.802 -0.0807  0.1994 -0.2206
25579W        W68595  18.833   4.535  15.085  0.2403 -0.0943  0.2256
25580W        W68596  16.884  12.026  19.747 -0.2959 -0.1315 -0.2893
25581W        W68597  13.740   9.801  23.127 -0.3717 -0.1411 -0.0149
25582W        W68598   4.271   2.897  22.745  0.1114 -0.0780  0.0363
25583W        W68599  30.546   9.113  20.472  0.1260 -0.1652  0.0607
25584W        W68600  27.251  14.244  22.403  0.3736  0.0469 -0.3993
25585W        W68601  16.946  17.572  13.514  0.1665  0.1686 -0.1673
25586W        W68602   2.395  14.794   6.853  0.1312 -0.0631  0.0283
25587W        W68603  10.892  11.125  17.116 -0.0291 -0.0717  0.1170
25588W        W68604  26.218  32.311  15.390 -0.3268  0.0541 -0.1866
25589W        W68605   0.969   9.414  25.714 -0.1109 -0.1519  0.0939
25590W        W68606  25.358  25.577  14.953  0.1126 -0.0690 -0.1699
25591W        W68607   9.465   2.327  14.628 -0.0599  0.0401  0.1285
25592W        W68608   0.982  24.594  19.411  0.1708  0.1650  0.4331
25593W        W68609   1.368  17.165  25.307  0.1890  0.0829 -0.1770
25594W        W68610  24.084  27.814  18.543 -0.0688 -0.0139 -0.3826
25595W        W68611  12.950  32.886  19.478  0.3164  0.1087  0.2961
25596W        W68612  27.630  15.460  29.105  0.2642  0.0111 -0.0602
25597W        W68613   3.806  32.576  22.351 -0.1993 -0.1517 -0.1323
25598W        W68614  26.126  10.455  28.242  0.0721 -0.0393  0.0701
25599W        W68615   8.104   9.598  26.416 -0.1852  0.2900  0.0141
25600W        W68616  11.936  25.771   3.637 -0.0812 -0.2258 -0.0746
25601W        W68617   7.661   4.619  24.112 -0.3454 -0.1291  0.2549
25602W        W68618  12.467  31.566  26.279 -0.0502  0.3487 -0.0759
25603W        W68619  12.497   0.399   2.003 -0.1725 -0.2573  0.0528
25604W        W68620  33.429   5.938  19.744  0.1080 -0.2731 -0.0165
25605W        W68621  33.087  15.310  16.063  0.3069  0.1249  0.0173
25606W        W68622  26.615   4.730  18.515 -0.0603 -0.0505 -0.3106
25607W        W68623  32.575  11.697  16.718 -0.0254 -0.1724 -0.2887
25608W        W68624  20.978   8.407  27.536  0.0274 -0.3025  0.0720
25609W        W68625   1.528  31.939   2.191  0.1523 -0.2218 -0.2885
25610W        W68626   6.657  13.490  17.641 -0.2185  0.1330 -0.2790
25611W        W68627   6.357  32.233  20.489 -0.0636 -0.4072  0.1116
25612W        W68628  30.902  14.595   0.271 -0.3058 -0.1541 -0.2442
25613W        W68629  15.668  19.799  13.077 -0.0932  0.2753  0.0147
25614W        W68630   9.966  17.264  14.669  0.1583 -0.0950  0.2036
25615W        W68631  10.744  19.562  22.718  0.1963  0.0260 -0.3821
25616W        W68632  11.086   6.594  23.533  0.1246  0.2297  0.0552
25617W        W68633  11.918   7.761  20.374  0.0071  0.0811 -0.1877
25618W        W68634   6.565  11.529  16.471  0.0480  0.2910  0.1735
25619W        W68635  33.871  14.818  17.540  0.3538  0.0921  0.2746
25620W        W68636  33.371   2.689  22.092 -0.0346  0.5217  0.0377
25621W        W68637   4.978  28.917  26.694  0.0060  0.1645 -0.2052
25622W        W68638  32.119  32.642  17.587 -0.1074 -0.0948 -0.1619
25623W        W68639  10.596  11.051  18.728 -0.0152  0.3681 -0.1573
25624W        W68640   3.489  19.073  20.215 -0.0994  0.1236 -0.2623
25625W        W68641   2.849  32.700   4.876 -0.5456  0.2364 -0.1848
25626W        W68642   0.139   6.314   1.827  0.4066 -0.2971 -0.1314
25627W        W68643  16.723   3.166  20.389  0.0050  0.2083 -0.1015
25628W        W68644  26.469   2.867   3.222  0.2214  0.0480 -0.3362
25629W        W68645  19.172  10.312  22.232 -0.1479 -0.1621  0.0210
25630W        W68646   2.955   8.314  17.751  0.0117  0.2316  0.0585
25631W        W68647   2.314   2.425   3.093  0.1287 -0.3084 -0.0993
25632W        W68648  24.774  19.964   6.062  0.1844  0.1017  0.0971
25633W        W68649   5.414  25.463  24.168  0.1409 -0.0489  0.1732
25634W        W68650   6.241  10.606   8.630 -0.0155 -0.0378 -0.0743
25635W        W68651   9.684  28.706   1.251  0.3598 -0.2038  0.0454
25636W        W68652  29.449  29.388  15.434 -0.0130  0.4403  0.0316
25637W        W68653   1.974  23.450   4.253  0.0493 -0.1034  0.3049
25638W        W68654  34.370  15.484   5.530  0.4593 -0.2428  0.0409
25639W        W68655  24.112   9.057  18.843 -0.0340  0.0192 -0.0944
25640W        W68656  33.968  25.285   2.115  0.1223  0.0942  0.1567
25641W        W68657  13.353  14.614  13.445  0.0455 -0.2135  0.0209
25642W        W68658  31.159   5.311   1.033 -0.0627 -0.0463 -0.2065
25643W        W68659  23.207  10.819   5.524  0.3156 -0.0554  0.1505
25644W        W68660  30.373  16.933  27.762 -0.0943 -0.2073 -0.1308
25645W        W68661  34.198  29.213  20.604  0.2245 -0.1096 -0.1857
25646W        W68662  20.681  22.962  24.578  0.1323  0.3728 -0.0706
25647W        W68663   7.807  21.020  23.429  0.0941 -0.1068 -0.0449
25648W        W68664  21.572  26.949  16.716 -0.0702 -0.2653  0.1093
25649W        W68665  25.163  29.503  21.262  0.2227  0.1745  0.0379
25650W        W68666   2.224  19.042   2.092  0.2071 -0.0438 -0.3522
25651W        W68667  32.415  10.172   0.950 -0.1445  0.0593 -0.2061
25652W        W68668  11.480  18.697  24.962 -0.1326  0.3147 -0.1494
25653W        W68669  13.126  31.237  28.293  0.1804 -0.0908  0.0950
25654W        W68670  29.747  14.434  21.227  0.1838  0.0371  0.0370
25655W        W68671   0.551  13.086   0.190 -0.1357 -0.0614 -0.0797
25656W        W68672   1.243  21.268  17.436  0.1445 -0.0120  0.0866
25657W        W68673  14.991  13.487   0.156  0.2905 -0.1160 -0.2014
25658W        W68674   8.491  10.541  19.142  0.3882  0.3010  0.1605
25659W        W68675   3.768  15.890   9.050  0.1339 -0.1955 -0.1518
25660W        W68676  32.665   5.382  29.188 -0.0684 -0.2486 -0.0909
25661W        W68677  21.249  17.475   7.353 -0.2463  0.1066 -0.1157
25662W        W68678  27.382  17.009  20.875  0.1199  0.0428 -0.1843
25663W        W68679   8.035  31.376  22.855 -0.0257  0.1066  0.2204
25664W        W68680  13.113  18.366   7.152 -0.1297 -0.0346 -0.1312
25665W        W68681  21.747  17.597  14.807 -0.0886 -0.0785  0.3453
25666W        W68682  24.120   6.161  20.478 -0.0413 -0.0275 -0.0462
25667W        W68683   2.975   7.733  19.297  0.1841 -0.3019 -0.0591
25668W        W68684  32.231   5.858   5.204 -0.3076 -0.0732  0.0736
25669W        W68685  25.355  11.336   0.303  0.1388  0.0111  0.0753
25670W        W68686   9.521  12.739   0.094 -0.1848 -0.0926 -0.1555
25671W        W68687  11.215  29.415  19.746 -0.2042  0.3395  0.1436
25672W        W68688  11.697  31.774  29.027  0.4447  0.3484 -0.1889
25673W        W68689   2.030   1.008  21.032 -0.2181 -0.4169 -0.0315
25674W        W68690  30.190  22.212  24.453 -0.0476  0.0897  0.1068
25675W        W68691  27.669  13.669   2.374  0.1199 -0.0405  0.0234
25676W        W68692  13.709   0.436   6.993  0.2504 -0.2621 -0.2270
25677W        W68693  13.366   8.451  20.705 -0.1927  0.2387 -0.0083
25678W        W68694  16.208  16.541   3.592 -0.0805  0.0228  0.1299
25679W        W68695   0.821  20.565   7.136 -0.0622  0.1636  0.0708
25680W        W68696  27.338  13.957   8.133 -0.0003 -0.1337  0.0428
25681W        W68697  32.999  33.464  16.479 -0.1749 -0.0264  0.4968
25682W        W68698   2.594  11.555  23.002  0.0520 -0.0920  0.1658
25683W        W68699  33.351   8.573  21.786 -0.4289  0.0583 -0.2693
25684W        W68700   4.210   3.101  23.540  0.1795 -0.0499  0.3564
25685W        W68701   6.165   4.301  21.715 -0.1373 -0.2197  0.2026
25686W        W68702   6.435  26.511  15.739 -0.1747 -0.1557 -0.2491
25687W        W68703   7.802  15.928   3.909  0.1138 -0.1226  0.0788
25688W        W68704  26.230  25.553   3.658  0.4020  0.2559  0.2513
25689W        W68705  23.112   8.535   0.309 -0.0339  0.1153  0.2448
25690W        W68706  26.297   9.312  17.848 -0.3557 -0.1767 -0.0635
25691W        W68707  11.476   5.437   1.832  0.0388 -0.1394 -0.1447
25692W        W68708   1.416  34.066   9.678  0.2722 -0.1123 -0.1482
25693W        W68709  31.102   3.823  15.835 -0.0627  0.1922 -0.0762
25694W        W68710  34.324  11.015  19.581  0.0804  0.0946 -0.2058
25695W        W68711  19.593   8.548  20.748  0.0948  0.0360 -0.0558
25696W        W68712   2.905  23.899   6.083  0.1942 -0.0565  0.2844
25697W        W68713   0.894   7.108  17.257  0.1511 -0.1417  0.1981
25698W        W68714  16.395  28.438   3.339 -0.0571  0.0231  0.1527
25699W        W68715   7.221  11.674  24.925 -0.0961  0.1007 -0.2812
25700W        W68716   2.426   0.235  18.629  0.3481  0.0080 -0.0552
25701W        W68717  25.348  13.643   3.209  0.0690  0.0094 -0.0283
25702W        W68718   3.764  16.631  21.021  0.1829  0.1265  0.1462
25703W        W68719  33.229  30.942   3.986 -0.2124 -0.1056 -0.1294
25704W        W68720  33.372  20.816  18.496  0.1998  0.2684  0.1919
25705W        W68721  25.606  19.789  14.577 -0.2782 -0.1258 -0.0592
25706W        W68722  30.721  18.066  18.814 -0.2622  0.0034  0.1283
25707W        W68723   5.761   0.602  17.263  0.1131 -0.1561  0.1124
25708W        W68724  22.682  27.072  29.146 -0.0425  0.0756 -0.1365
25709W        W68725  11.441  19.302  27.170  0.2429  0.3715 -0.0156
25710W        W68726  22.795  11.902  26.288 -0.1394 -0.2201  0.1360
25711W        W68727   7.858  12.813  16.965  0.0135  0.0096 -0.0345
25712W        W68728  34.670  16.246   1.464  0.2796  0.2307  0.0055
25713W        W68729   7.678  18.685  21.930 -0.3657 -0.0174 -0.0458
25714W        W68730  21.237  15.538  22.741 -0.0265 -0.3101 -0.3755
25715W        W68731   4.186  16.517  22.642  0.2569 -0.1117  0.0045
25716W        W68732  14.375  28.045  21.405 -0.1464  0.0859  0.1640
25717W        W68733   3.808   6.627   1.522  0.1262 -0.0540  0.1221
25718W        W68734  25.038  27.845   2.780  0.1360  0.0882  0.1099
25719W        W68735  34.609   0.691   8.389 -0.2281 -0.3227 -0.3758
25720W        W68736  14.641  19.310   3.486  0.0643  0.1501  0.1730
25721W        W68737  31.910  15.944  18.558 -0.0965  0.0254  0.0316
25722W        W68738   6.234   4.504   4.067  0.0565  0.1775 -0.3008
25723W        W68739  24.667  32.610   6.605  0.0439 -0.1175 -0.0414
25724W        W68740  22.259   1.967  23.058  0.1148 -0.3321 -0.0351
25725W        W68741  29.564  18.370  29.038 -0.2492  0.0763  0.0919
25726W        W68742  20.771  24.048  24.398  0.1439  0.5480 -0.2742
25727W        W68743  24.060  14.773  27.307 -0.1351 -0.2470 -0.0282
25728W        W68744  11.636  30.646  15.422 -0.0028 -0.0971 -0.0780
25729W        W68745  22.270  11.201  25.078  0.1916 -0.1283  0.0101
25730W        W68746  28.999  17.585  15.954  0.3809 -0.1111  0.4893
25731W        W68747  28.787   6.587  15.459 -0.0038 -0.0562  0.0599
25732W        W68748   3.911  16.578  24.582 -0.3323 -0.2782  0.2378
25733W        W68749  34.423   8.125  26.239  0.0768 -0.0983 -0.2239
25734W        W68750  22.444  27.562  16.997 -0.0112 -0.0474  0.0269
25735W        W68751   4.613  10.841  23.404 -0.5130 -0.0051  0.2420
25736W        W68752   2.990  14.268  19.128 -0.4588  0.0800  0.2123
25737W        W68753   9.961  11.768   1.344  0.0095 -0.1347 -0.0749
25738W        W68754  25.586  20.531  24.452 -0.3466  0.0135 -0.1789
25739W        W68755  14.451  17.083   0.475 -0.5460 -0.2237 -0.0273
25740W        W68756  16.852  26.233  27.321 -0.3553 -0.0060 -0.1267
25741W        W68757   2.517  21.989  22.521 -0.1898  0.0270 -0.2489
25742W        W68758  24.116  25.387   1.728 -0.1784  0.1515  0.0267
25743W        W68759   6.725  11.892  17.552  0.0394  0.1072  0.1937
25744W        W68760   2.737   5.988  15.724  0.0483  0.2310  0.0508
25745W        W68761  26.125  20.367  27.731  0.0896 -0.1599  0.0708
25746W        W68762  12.009   4.850   2.451  0.5308  0.0581 -0.0708
25747W        W68763  34.668  13.463  18.527  0.0811  0.0279  0.0147
25748W        W68764  14.041   7.042  12.972  0.1961 -0.2321  0.0090
25749W        W68765   9.730   0.915  24.209 -0.2445 -0.0154  0.2642
25750W        W68766   9.117  20.405  15.583 -0.2157 -0.2493  0.0804
25751W        W68767   1.135  20.900   0.915  0.0880  0.0836 -0.2068
25752W        W68768   5.710   3.955  24.246  0.0428 -0.3559 -0.1867
25753W        W68769   4.972  32.287  16.746  0.0131  0.0798  0.1527
25754W        W68770  34.281  12.177  17.098  0.0028  0.3970 -0.1153
25755W        W68771   6.203  22.343  26.978  0.1106  0.0470 -0.0026
25756W        W68772  17.662  34.657   4.681  0.2249  0.2730  0.1270
25757W        W68773  23.483   1.074  26.896  0.0960  0.0383  0.0213
25758W        W68774   8.791  13.918  12.897  0.1485  0.3374 -0.0486
25759W        W68775  33.255  14.315  27.266 -0.0817  0.3354  0.0692
25760W        W68776   4.092  22.152  15.118  0.0328 -0.3792 -0.0215
25761W        W68777   3.101  19.562  20.728  0.0725  0.2159  0.0182
25762W        W68778  26.274  24.693  23.548  0.0966  0.0966 -0.0551
25763W        W68779  29.153  13.212  15.901 -0.1827  0.0034  0.0222
25764W        W68780  12.690  20.539  19.172 -0.2866 -0.0651  0.1739
25765W        W68781  15.416  12.862  16.278  0.0223  0.1864 -0.0751
25766W        W68782  11.991   7.926  16.554 -0.0662 -0.1806 -0.0530
25767W        W68783  29.336  21.260  15.550 -0.1053  0.0604  0.4802
25768W        W68784  33.772  12.771  16.642 -0.2987  0.1075 -0.0893
25769W        W68785  11.616  13.199  25.781  0.1232 -0.0965 -0.1314
25770W        W68786  33.007  27.345  17.508  0.0217 -0.0185  0.3841
25771W        W68787   5.382  29.548  19.194  0.0046 -0.0488 -0.0395
25772W        W68788  34.400  16.402   8.332  0.0580  0.0094  0.0929
25773W        W68789   8.207  12.173  29.036 -0.0638  0.0265 -0.3441
25774W        W68790   9.729   7.916   5.391 -0.3332  0.0952  0.2359
25775W        W68791  31.989   9.572  20.757 -0.0661 -0.1450  0.1932
25776W        W68792  19.758   6.188   0.132 -0.0097 -0.2615 -0.1420
25777W        W68793   3.442  10.825  27.433  0.0030  0.0852  0.1750
25778W        W68794   4.261  25.718  14.363  0.2282  0.0662 -0.1799
25779W        W68795  13.379  25.314  21.587  0.0518 -0.1682 -0.1287
25780W        W68796  31.198  10.136  25.111  0.2073  0.2830 -0.1560
25781W        W68797   7.909  16.464  17.787 -0.0821 -0.0963  0.0807
25782W        W68798   3.862   0.126  27.531 -0.1109 -0.0425  0.1360
25783W        W68799  32.894  33.873  16.713 -0.1542 -0.1773  0.0461
25784W        W68800  13.520   4.648  20.970 -0.1025  0.0708  0.0276
25785W        W68801  33.591  12.018  20.425 -0.2864 -0.0798  0.0737
25786W        W68802  25.372  20.741  21.750  0.0594 -0.2891  0.0654
25787W        W68803   4.828  23.029  27.370  0.0363  0.1111  0.1091
25788W        W68804   3.482   4.092   3.489  0.2845 -0.4444 -0.0267
25789W        W68805   5.801  12.901  18.602  0.0065  0.2000  0.2746
25790W        W68806   1.750  14.126   6.657 -0.2131  0.3517 -0.2327
25791W        W68807   5.125  25.843   5.109 -0.2006 -0.2093 -0.0067
25792W        W68808   4.962  18.769   3.533  0.0490 -0.0400 -0.1443
25793W        W68809  18.584  28.073   7.320  0.1996  0.0853  0.2501
25794W        W68810  13.010  13.627  23.033 -0.2364  0.2442  0.3345
25795W        W68811   7.720   9.535  19.797 -0.3459  0.2396  0.2993
25796W        W68812  12.446  10.115  21.532 -0.1659  0.1614  0.0848
25797W        W68813  26.416  22.110  19.353 -0.0441 -0.0494 -0.1495
25798W        W68814  15.753   1.887  18.125  0.1843  0.1081  0.2136
25799W        W68815  11.580  14.233  28.216 -0.0903 -0.0854  0.1251
25800W        W68816  30.572   9.857   6.769  0.3902 -0.1800 -0.2816
25801W        W68817  34.166  31.944  15.826 -0.0722 -0.0260 -0.1223
25802W        W68818   4.238   1.912  16.916  0.3856  0.0441  0.2035
25803W        W68819  16.031  32.821   7.423  0.2183  0.0353  0.1090
25804W        W68820  20.566  13.523  25.098  0.2531  0.1410  0.3400
25805W        W68821  28.994   1.115  24.202 -0.0140  0.2211 -0.1723
25806W        W68822   5.327  30.245  23.746 -0.2337 -0.0166  0.1613
25807W        W68823  24.879   6.278   1.144  0.0437 -0.0490  0.0303
25808W        W68824   1.983  17.520  16.868 -0.0053 -0.0324  0.0244
25809W        W68825   0.607  23.117  14.823 -0.1163 -0.1014  0.0850
25810W        W68826   9.069  25.758   4.203  0.0064 -0.0883 -0.1790
25811W        W68827  31.335   0.759  25.937  0.2428  0.4442 -0.0115
25812W        W68828  20.094  23.658   6.355  0.2205 -0.0140  0.2484
25813W        W68829  31.622  33.383  25.454  0.2248 -0.2221  0.1927
25814W        W68830   5.050  30.095   3.077 -0.0652  0.0817  0.1085
25815W        W68831  19.295   2.885   7.185  0.1781 -0.1312  0.0047
25816W        W68832  33.108  22.149  20.299 -0.3123 -0.3625  0.0984
25817W        W68833  32.155  23.001  20.242 -0.1292  0.0878 -0.0010
25818W        W68834   2.089  22.852  20.107  0.3678 -0.0108 -0.1612
25819W        W68835  24.536  19.965   0.869  0.3134  0.0609 -0.0361
25820W        W68836   6.846  12.179  22.580  0.1272  0.2135  0.0807
25821W        W68837  25.116  17.106  16.812  0.0557 -0.0844  0.0554
25822W        W68838  14.218  13.160  21.974 -0.0575 -0.3424 -0.1634
25823W        W68839   3.010   3.108  24.549  0.2642 -0.1575  0.1063
25824W        W68840  29.000  28.804  23.402 -0.1667  0.1922 -0.1628
25825W        W68841  30.334   7.122  18.131  0.1467 -0.2554 -0.0873
25826W        W68842   8.625   5.463  18.747  0.0317  0.1211  0.0715
25827W        W68843  10.717   5.956  13.880  0.2059  0.1980 -0.2119
25828W        W68844  32.027  12.996  19.457  0.1064 -0.1487  0.1557
25829W        W68845   3.756  11.400   5.650  0.1970 -0.1623 -0.1791
25830W        W68846  12.199  34.160   5.818  0.0107  0.4309  0.2407
25831W        W68847   4.567  23.195  28.398 -0.4145 -0.1759  0.1191
25832W        W68848  12.099  16.421  23.734 -0.2866 -0.0079  0.1110
25833W        W68849   3.942  31.086   9.594  0.0728 -0.0481 -0.0579
25834W        W68850   9.665  16.942  18.920 -0.0763  0.2052  0.0886
25835W        W68851  31.617  21.103  16.422  0.2162  0.0581 -0.1841
25836W        W68852  19.991   3.628   1.938  0.0082 -0.0768 -0.2178
25837W        W68853  24.197   8.617   6.121  0.0597  0.2108 -0.0953
25838W        W68854  31.708  10.203  14.587  0.1602 -0.0061 -0.0766
25839W        W68855   2.855  16.867  22.084  0.1076 -0.2657  0.0498
25840W        W68856   2.093  12.098  18.679  0.1201 -0.1370 -0.1327
25841W        W68857  32.499  13.627  10.266 -0.1384 -0.0270  0.0473
25842W        W68858   9.581  20.913  24.086 -0.4836  0.0459 -0.0014
25843W        W68859   1.189  17.737  23.085  0.0332 -0.2396  0.1310
25844W        W68860  31.398  13.805   6.706 -0.1736 -0.0927 -0.3150
25845W        W68861   4.470   5.144  15.584 -0.0649 -0.1147 -0.2819
25846W        W68862   8.051   3.613  25.366  0.0252  0.1057 -0.0553
25847W        W68863  29.667  16.315   1.473  0.3423 -0.2793  0.1893
25848W        W68864  12.515   0.617  17.319 -0.1420  0.1484  0.0424
25849W        W68865   1.109  22.301  27.715 -0.0181  0.2159  0.0044
25850W        W68866  21.784  30.842  22.302  0.0042  0.0573 -0.1040
25851W        W68867   9.552   7.059   8.804  0.1742 -0.1276 -0.3552
25852W        W68868   1.611  14.473  28.318 -0.0160  0.0899 -0.3073
25853W        W68869   8.817  22.397  25.315  0.1471  0.0080  0.2216
25854W        W68870  21.407  13.864  25.318  0.2172  0.0707 -0.0174
25855W        W68871  33.853  14.790   1.035 -0.0527 -0.0105 -0.2660
25856W        W68872  12.229  11.496  14.945 -0.0618  0.1788  0.1777
25857W        W68873   0.569   2.824  16.234  0.0534 -0.1809  0.0956
25858W        W68874  25.383  10.939  21.360 -0.0626  0.4412  0.0806
25859W        W68875  30.221  21.499  25.762  0.1273 -0.0899 -0.1221
25860W        W68876  32.063   9.067  27.970 -0.1731  0.1569  0.0070
25861W        W68877  14.380  18.129   6.863  0.1388  0.2092 -0.2605
25862W        W68878   9.691  18.203  26.957  0.2987  0.3611 -0.1985
25863W        W68879  12.899  17.965  15.958  0.0957  0.2801  0.0761
25864W        W68880  12.164  21.196  16.157 -0.2481 -0.0399  0.1262
25865W        W68881  10.938   3.593   2.326  0.3773 -0.3925 -0.2129
25866W        W68882   9.919  12.065  28.178  0.1512  0.1965  0.0694
25867W        W68883   8.262  11.162  18.342  0.0592 -0.2424 -0.0045
25868W        W68884   2.450  27.944  16.646 -0.3173 -0.2140 -0.0006
25869W        W68885  27.916   4.175  29.217 -0.1951 -0.1436  0.0774
25870W        W68886   5.526  27.377  18.978  0.1398 -0.2136  0.0614
25871W        W68887  33.066  32.162   6.900 -0.0819 -0.0299  0.2424
25872W        W68888  33.215   7.200  24.147  0.2673 -0.0261 -0.3623
25873W        W68889   1.858  29.313  14.847  0.2389 -0.1262 -0.0175
25874W        W68890  23.045  25.563  26.534 -0.1840 -0.1148  0.2346
25875W        W68891  16.205  12.242  22.511 -0.0119 -0.4910  0.0897
25876W        W68892  34.336  33.056   3.074 -0.3022  0.3130 -0.1847
25877W        W68893  31.011  20.489  25.102  0.2879 -0.0907 -0.0110
25878W        W68894   8.384  11.339   8.097 -0.1904  0.2929  0.0742
25879W        W68895   1.916  18.707  17.674  0.1462 -0.2283  0.1450
25880W        W68896   3.148   2.973   5.136 -0.1468  0.0915 -0.3021
25881W        W68897  17.090  16.092  15.897  0.0822  0.0316 -0.0500
25882W        W68898  11.843  32.598  20.183  0.5439  0.1488 -0.1191
25883W        W68899  22.909  11.765  28.200 -0.0758 -0.0003  0.3028
25884W        W68900  30.078   7.212  27.818  0.0078 -0.0878 -0.0156
25885W        W68901  13.786   0.800   9.399 -0.1646 -0.2961  0.0489
25886W        W68902  27.879  27.536  20.992  0.1704  0.2828  0.2166
25887W        W68903  21.951  20.188   4.250 -0.1576 -0.0078  0.2360
25888W        W68904  28.235  14.920  27.412  0.0481  0.0332 -0.0721
25889W        W68905  23.602  32.561  28.456  0.1435 -0.0296 -0.0888
25890W        W68906  13.838   6.064   2.210  0.1109 -0.0120 -0.4579
25891W        W68907   1.199   7.896  15.673  0.1070  0.1411  0.0130
25892W        W68908  23.123  14.140  22.216  0.3048  0.0582 -0.0865
25893W        W68909  19.681  18.114  12.897 -0.0471  0.0201 -0.1491
25894W        W68910  12.359  19.497   1.729  0.0168  0.0794  0.0939
25895W        W68911  16.298  15.960  26.287  0.0086  0.1204 -0.0008
25896W        W68912  34.470   5.727  25.842  0.2767  0.0059 -0.0042
25897W        W68913   6.706   8.943  15.478  0.3283 -0.0410  0.1099
25898W        W68914  33.102   8.673   9.476 -0.0549 -0.0851 -0.1508
25899W        W68915  21.198  22.541   6.697 -0.1819  0.0602  0.1333
25900W        W68916  14.047   9.507  23.482 -0.3573  0.2575 -0.1340
25901W        W68917   2.771   7.823  21.976  0.1064 -0.0708  0.0475
25902W        W68918   8.860  20.742   6.786 -0.0293 -0.0720  0.0579
25903W        W68919   1.810  17.636  22.928 -0.0362 -0.0425 -0.2980
25904W        W68920  13.611  12.684  26.164 -0.0305  0.0322 -0.0241
25905W        W68921  22.386   8.262  26.852  0.0478  0.0391  0.0755
25906W        W68922  33.554  22.758  27.323  0.1442  0.2001 -0.1329
25907W        W68923  14.838   9.748  24.385  0.1407  0.0382  0.1908
25908W        W68924  19.707   8.642  14.500  0.0031 -0.0126  0.0196
25909W        W68925   6.309   6.187  23.174  0.0779 -0.1632  0.3836
25910W        W68926   8.618  20.220  27.783  0.0825  0.1533  0.0124
25911W        W68927   2.394  25.690  26.759 -0.0376  0.1816 -0.0527
25912W        W68928  30.940   4.450  23.644  0.3988  0.2508 -0.0599
25913W        W68929   9.818  17.425  18.327 -0.3714 -0.0377 -0.0843
25914W        W68930   4.999  12.663   0.351  0.0146  0.0170 -0.1596
25915W        W68931   9.311  15.028  27.771  0.1079  0.0283 -0.2584
25916W        W68932  34.208  30.014  29.246  0.2957 -0.1124 -0.0161
25917W        W68933   4.533  23.323  21.757  0.0875 -0.1250  0.4848
25918W        W68934   5.863   6.503  24.721  0.2680  0.2862 -0.0743
25919W        W68935  34.087   1.178  21.024 -0.0902  0.1350  0.2097
25920W        W68936   5.180  16.516  17.983  0.0417 -0.1931  0.0219
25921W        W68937  33.115  34.477   1.098 -0.0319 -0.1029  0.0924
25922W        W68938   6.594  25.554  23.629  0.4221 -0.0853  0.0491
25923W        W68939  15.583  11.010   4.924  0.0760  0.0688  0.2738
25924W        W68940  34.179   8.191  18.044 -0.0155  0.1312  0.1343
25925W        W68941   5.159  20.543   7.177  0.3783  0.1396 -0.0582
25926W        W68942  26.608  15.576  18.654 -0.2104 -0.0145  0.2130
25927W        W68943  17.063   7.348  22.794 -0.0968  0.0827  0.0577
25928W        W68944  32.274   8.040  21.543 -0.1060  0.2549  0.1625
25929W        W68945  19.416  24.684   9.233  0.1708 -0.1047  0.2475
25930W        W68946   8.488   9.299  28.461 -0.1543  0.0162 -0.2437
25931W        W68947  17.166  10.598  14.348 -0.0454 -0.3613 -0.0350
25932W        W68948  12.140  25.918  13.535  0.2235 -0.1446 -0.1324
25933W        W68949   9.734  15.836  25.946  0.1163  0.2641  0.0021
25934W        W68950  26.403  26.856  20.638  0.1327  0.1958 -0.0800
25935W        W68951  11.814  17.547  21.107  0.2110  0.1933  0.1627
25936W        W68952  33.484  17.569  23.490 -0.0516  0.0112 -0.0323
25937W        W68953  33.765   8.099  14.330  0.1961 -0.3209  0.3797
25938W        W68954   1.451   4.242  16.007 -0.1169 -0.0357  0.0681
25939W        W68955   8.944  14.782   0.712  0.0077  0.3185 -0.2205
25940W        W68956  11.250   4.931  13.752 -0.0822  0.1221 -0.2680
25941W        W68957  13.205  19.968  21.865 -0.1127  0.0529  0.3299
25942W        W68958   7.558  29.244  21.075  0.2069 -0.0433  0.0513
25943W        W68959   7.083  11.040  20.743 -0.2601 -0.2392  0.0407
25944W        W68960  29.178  15.403  25.537 -0.2226 -0.0501  0.0775
25945W        W68961   6.463   2.833  14.120 -0.4216 -0.3244 -0.1126
25946W        W68962  23.576  33.613  22.700 -0.0179 -0.0971  0.0032
25947W        W68963  14.616  11.086  23.047  0.0820  0.2791  0.2313
25948W        W68964   0.472  12.600  29.273 -0.3196  0.1117  0.0300
25949W        W68965  11.747  23.436  13.591  0.4102 -0.0995 -0.0010
25950W        W68966  34.326  19.447   7.658  0.1399  0.0879 -0.0078
25951W        W68967  32.877  16.857  28.188 -0.1829  0.2446 -0.1194
25952W        W68968   0.359  14.425   3.096  0.0607  0.1045  0.0331
25953W        W68969  12.543  34.580   8.448 -0.0922 -0.0242  0.1902
25954W        W68970  12.228   5.552  17.575  0.1635  0.0404 -0.0006
25955W        W68971  29.981   7.510  25.439 -0.2238  0.0053 -0.1365
25956W        W68972  30.843   7.176  25.081 -0.0655  0.2248 -0.0650
25957W        W68973  33.973   6.332  20.798  0.2650  0.2653 -0.0202
25958W        W68974  15.865  14.823  12.172  0.1682 -0.3629 -0.0319
25959W        W68975   5.560  19.754  23.470 -0.0899 -0.2491  0.1684
25960W        W68976  28.423  12.685  20.041 -0.2634  0.3193  0.0977
25961W        W68977  19.837  10.734  18.406 -0.0323 -0.0956 -0.0205
25962W        W68978   9.025  30.923   6.169 -0.0880 -0.1012 -0.0642
25963W        W68979  33.868  18.609  25.080  0.0758  0.0894  0.2480
25964W        W68980   1.527  14.202  26.951 -0.3226 -0.1575 -0.1628
25965W        W68981  31.130  17.644  16.692 -0.2041  0.0989 -0.0110
25966W        W68982   7.427  30.852   8.028  0.0985  0.0174  0.0806
25967W        W68983  34.762  13.449   5.423  0.1564  0.0428 -0.0833
25968W        W68984   5.110   2.211  19.009  0.0812  0.1391  0.2511
25969W        W68985   1.914   4.719  23.299  0.2814 -0.1961  0.1493
25970W        W68986   1.658  14.267  10.381  0.1042 -0.1081 -0.1436
25971W        W68987   1.510   5.964  19.184 -0.0061 -0.1398  0.1021
25972W        W68988  18.328  24.103  13.990  0.0465  0.1121 -0.2421
25973W        W68989  13.176  31.379   8.773 -0.0891  0.0662 -0.2734
25974W        W68990  28.705  29.017  21.193 -0.1640  0.0753 -0.1549
25975W        W68991  28.524  11.359  24.294  0.1163  0.0971  0.1441
25976W        W68992   2.313   5.406  22.776  0.1082  0.0058 -0.1514
25977W        W68993   8.101  13.435   5.735 -0.0579  0.0143 -0.0589
25978W        W68994  28.325  24.873  15.581 -0.0587 -0.0970  0.0658
25979W        W68995   5.037  29.539  23.097  0.1220 -0.0608  0.1225
25980W        W68996   6.727   8.233  26.858 -0.5411  0.1364  0.1732
25981W        W68997  13.172   8.191  23.899 -0.0948 -0.1350  0.0109
25982W        W68998  31.269  26.422  22.152 -0.1703 -0.0237 -0.2753
25983W        W68999  16.339  12.097  23.496  0.0804  0.1400  0.0126
25984W        W69000   0.197   1.430   6.560 -0.4029  0.1288  0.0034
25985W        W69001  10.348  24.122   1.221  0.2062  0.1639  0.1048
25986W        W69002  29.774  26.302   8.919  0.0559  0.1623 -0.0372
25987W        W69003  25.622   2.052  22.613  0.1409  0.1067 -0.4423
25988W        W69004  13.048  10.739   1.424 -0.2250 -0.2756 -0.1097
25989W        W69005   9.831  13.416  27.377 -0.1492  0.0409  0.0876
25990W        W69006  17.076   3.299  18.762 -0.0883 -0.5275  0.2195
25991W        W69007  29.294  28.910  20.824 -0.3481  0.3249  0.1179
25992W        W69008  22.932  13.104  19.591 -0.1502 -0.1749 -0.3066
25993W        W69009   9.678   6.956  27.265  0.1929 -0.0752  0.2249
25994W        W69010  32.766   3.408  24.994  0.2904  0.2278  0.2317
25995W        W69011  13.514  15.696   0.803 -0.1779 -0.0766  0.1708
25996W        W69012  14.539   1.256   0.364  0.1204 -0.0476 -0.3539
25997W        W69013  10.544   7.683  15.622  0.2353 -0.3261 -0.0196
25998W        W69014   0.273   9.354  15.370 -0.1141 -0.0531  0.2567
25999W        W69015  11.291   0.058  15.120 -0.1228 -0.3045  0.2238
26000W        W69016  31.386  12.030  25.049 -0.0470 -0.2106  0.0977
26001W        W69017   0.517  20.644  16.202  0.2357 -0.0428 -0.2192
26002W        W69018  27.037   1.869  25.369  0.0776 -0.1230 -0.0419
26003W        W69019   9.503  32.254  16.216  0.0815 -0.2441  0.1532
26004W        W69020  24.581  21.229  15.216 -0.0201 -0.2412 -0.0368
26005W        W69021   2.808  27.374   6.807  0.1186 -0.0631 -0.0545
26006W        W69022  20.039  15.698   5.540  0.3021 -0.0545 -0.1326
26007W        W69023  10.054   5.785  14.018 -0.0801 -0.0736  0.1092
26008W        W69024   1.156  10.754   1.575  0.1114 -0.1103 -0.0012
26009W        W69025  10.537  23.326  26.398 -0.0194  0.1835  0.0619
26010W        W69026  16.220  14.772  23.729  0.0575  0.2653  0.0039
26011W        W69027   8.271  16.007  25.497  0.1192 -0.3322 -0.2114
26012W        W69028  25.069  32.029  18.662  0.2670  0.5014  0.2043
26013W        W69029  10.331  10.516  21.357  0.3408 -0.1471  0.1017
26014W        W69030  30.666   2.518   1.820 -0.2673 -0.2552 -0.2348
26015W        W69031  11.473  16.881  24.061  0.0122  0.0213 -0.1781
26016W        W69032   5.598  15.449  21.234  0.1965  0.3332  0.1614
26017W        W69033   1.397  18.164  26.242  0.0086 -0.0278  0.2357
26018W        W69034  11.319   8.867  20.191 -0.0097 -0.0003  0.2239
26019W        W69035   4.465   8.181   1.266  0.2060 -0.2749  0.1687
26020W        W69036   4.643   8.791  15.455 -0.0197 -0.1718  0.1160
26021W        W69037   6.828  31.072  24.515  0.0571  0.0753 -0.0406
26022W        W69038  34.684  29.879  23.170  0.1189  0.1625  0.1616
26023W        W69039  11.251  22.572   0.349  0.1416 -0.1523  0.1555
26024W        W69040  32.792  10.853  23.441 -0.0538  0.1293  0.0468
26025W        W69041  29.655  32.520  10.836  0.2947  0.0506 -0.0955
26026W        W69042   6.241  20.895   7.622  0.3466  0.3562 -0.2376
26027W        W69043  18.408   7.922   6.760 -0.0869  0.0312  0.2204
26028W        W69044   7.779  15.787  24.153 -0.1321  0.1917 -0.0447
26029W        W69045  32.771  14.789  25.206  0.1996 -0.0488  0.3242
26030W        W69046   6.604  19.906   7.393  0.1187  0.0637  0.2706
26031W        W69047  13.822  13.100  19.594  0.0667 -0.1775  0.1591
26032W        W69048  12.873  28.186   0.742 -0.2764 -0.2480 -0.3964
26033W        W69049   3.372  11.427   5.318 -0.0503  0.2143  0.0729
26034W        W69050   3.938  17.554   6.059  0.2745 -0.0388 -0.0956
26035W        W69051   7.976  10.397  22.845 -0.1507 -0.0424 -0.1607
26036W        W69052   6.445  16.454   3.597  0.0119 -0.0681  0.0148
26037W        W69053   4.887   6.547  18.925  0.2353 -0.1312  0.3623
26038W        W69054   7.241   7.516   4.655 -0.0580  0.0446 -0.2554
26039W        W69055  33.187  27.029  27.323  0.1039 -0.1708  0.0401
26040W        W69056  34.173  16.343  26.343 -0.3870 -0.0345  0.0473
26041W        W69057   9.596   4.001  26.947  0.1201  0.0591  0.1767
26042W        W69058  26.157   2.083  27.289  0.2772  0.3538 -0.0513
26043W        W69059  18.096  13.654   3.992 -0.1238 -0.0082 -0.0597
26044W        W69060   1.324   8.746  18.699  0.0599 -0.0640 -0.0915
26045W        W69061   3.500  15.709  21.375  0.2859 -0.1627 -0.1408
26046W        W69062   5.350  15.619  22.200  0.2394  0.1159  0.1278
26047W        W69063  34.344   8.403  17.567  0.0107 -0.3922  0.0709
26048W        W69064  25.848  20.397  26.744  0.1225 -0.2371 -0.4069
26049W        W69065  18.241   0.929  24.443  0.1997  0.0586 -0.1913
26050W        W69066  11.493  15.423  21.633 -0.1381  0.0466 -0.0887
26051W        W69067  34.396   6.213  23.723 -0.3549 -0.1673  0.1764
26052W        W69068   7.157  23.412  27.880 -0.2087 -0.2343  0.2508
26053W        W69069  23.525  13.301  22.459  0.3242 -0.3027 -0.2518
26054W        W69070   1.819  15.284  15.196 -0.3233 -0.3532  0.2374
26055W        W69071  15.167  18.554  27.055  0.0149  0.0434  0.2091
26056W        W69072   3.850  12.489  23.944 -0.1625  0.0402  0.2544
26057W        W69073  23.937  34.581   9.965 -0.0489  0.2450 -0.1134
26058W        W69074   4.359  21.845  25.999 -0.4334  0.0080 -0.1934
26059W        W69075  12.433  16.202  15.307 -0.1268 -0.1070  0.3181
26060W        W69076  14.439  13.858  12.759 -0.0348 -0.1701 -0.3115
26061W        W69077   3.192  10.955   1.374  0.1786 -0.5060 -0.2475
26062W        W69078  27.111  25.413   8.875 -0.3738 -0.3742  0.0240
26063W        W69079   4.498   5.058  22.857  0.3174 -0.0075 -0.6353
26064W        W69080   6.485   5.466   1.449 -0.0643 -0.1622 -0.3703
26065W        W69081  23.480  12.531  27.369  0.1477  0.2640 -0.2955
26066W        W69082  14.188   6.889  13.795 -0.0635 -0.0743  0.2992
26067W        W69083  14.489  15.885  20.528  0.1010  0.2358  0.1095
26068W        W69084   1.223  17.577   0.094  0.3511 -0.3062  0.1282
26069W        W69085  24.363   6.738   6.606 -0.0259 -0.1690  0.2366
26070W        W69086   0.456  23.124   7.072  0.2556 -0.0512 -0.1282
26071W        W69087  24.609   3.153   5.999 -0.1809  0.1372 -0.1238
26072W        W69088  33.855   7.613  28.232  0.0485  0.3363  0.0228
26073W        W69089   9.840   5.452  16.977  0.0278  0.0626 -0.1095
26074W        W69090  34.550  20.936  26.606  0.1663  0.0999 -0.1611
26075W        W69091  34.694  19.363   5.913  0.3174  0.0056  0.2893
26076W        W69092  14.581  24.497  25.897  0.0463  0.3210  0.0768
26077W        W69093   0.464   5.381  22.673 -0.0558 -0.2845 -0.0684
26078W        W69094   0.177  11.443   1.100 -0.1181 -0.1516 -0.4218
26079W        W69095   6.762  12.124  24.128  0.1909 -0.0169  0.1246
26080W        W69096  24.212  13.583   8.845  0.0497 -0.2345 -0.0495
26081W        W69097   1.192   4.091  20.909 -0.2980  0.0864  0.0182
26082W        W69098   6.451  15.185  18.639 -0.1013 -0.1653 -0.0798
26083W        W69099  23.306  25.518  14.920  0.0864 -0.0601  0.1533
26084W        W69100  20.821  24.779  17.984  0.1340  0.1587  0.4481
26085W        W69101   0.238   4.512  14.369  0.0236 -0.4375  0.1252
26086W        W69102   9.940  31.096  26.897 -0.1640  0.0393  0.0424
26087W        W69103   9.447  32.884   8.782  0.1555  0.1600 -0.0705
26088W        W69104   9.773   3.982  18.593  0.1084 -0.0834  0.0398
26089W        W69105  11.029  14.767  22.969 -0.2309  0.1895 -0.2726
26090W        W69106   9.086   5.279  21.031  0.1543  0.0310  0.1841
26091W        W69107  12.836   5.994  26.782 -0.1765  0.0996 -0.0109
26092W        W69108   6.229  28.122  19.026 -0.1007 -0.0588  0.3147
26093W        W69109   1.677  21.144   7.233  0.2072 -0.0724 -0.0454
26094W        W69110  30.463   9.286   2.361  0.0681  0.2532 -0.0590
26095W        W69111  14.253  26.111   0.245 -0.0519  0.0273 -0.2998
26096W        W69112   8.699  11.774  26.127  0.4478 -0.0994  0.1190
26097W        W69113  33.429  20.577  20.017  0.0240  0.1790 -0.1125
26098W        W69114  23.251  21.833  10.034 -0.1494  0.1251 -0.1585
26099W        W69115   2.281   4.035  16.535  0.0014  0.0443 -0.0666
26100W        W69116  15.960  21.525   8.091 -0.0922  0.0347 -0.0205
26101W        W69117  31.916   3.332  23.262 -0.1372 -0.1877  0.1262
26102W        W69118  29.146  31.273  26.187 -0.2045  0.0212  0.2337
26103W        W69119  15.157  24.039   1.267  0.0175 -0.0620 -0.1758
26104W        W69120  32.786   6.513  27.118  0.0306 -0.0272 -0.0793
26105W        W69121  34.592  28.822  16.788 -0.0926 -0.0352 -0.2552
26106W        W69122   1.017  34.030  28.966  0.1611  0.0972 -0.0847
26107W        W69123  17.902  17.343  23.277 -0.4102  0.5953  0.0541
26108W        W69124  10.751  10.108  16.275  0.0241  0.1401 -0.0778
26109W        W69125  14.742  12.188   1.995 -0.1048 -0.0597 -0.0515
26110W        W69126   2.082   2.862   6.230 -0.0536  0.4133 -0.0525
26111W        W69127   7.151  11.291   5.518  0.1781 -0.0233 -0.2898
26112W        W69128   7.517  20.609  19.411  0.2511  0.4486 -0.3796
26113W        W69129  34.338   9.746  23.582 -0.0320  0.1496 -0.1129
26114W        W69130  23.209   4.684  21.556 -0.0038  0.1038 -0.1305
26115W        W69131  34.566  14.557   8.297  0.2345 -0.0695  0.1080
26116W        W69132   9.869  15.542  24.125  0.0381  0.0395  0.1872
26117W        W69133  18.278   2.977   3.575  0.0830  0.4160 -0.0171
26118W        W69134  23.277  19.960  16.777 -0.0499  0.1751  0.2117
26119W        W69135   4.282  13.660  15.988  0.0374 -0.0214 -0.1920
26120W        W69136   5.202  17.436  27.683  0.1700  0.2504 -0.0583
26121W        W69137   6.447  10.506  21.907 -0.3483 -0.2504  0.0295
26122W        W69138   1.615  18.572  14.487 -0.1478 -0.2206 -0.2333
26123W        W69139  16.418  24.731  20.902 -0.1663 -0.3603  0.1605
26124W        W69140  15.527   8.390  23.623  0.1452  0.1580 -0.1897
26125W        W69141  32.865  12.242  28.370  0.3568  0.0377  0.3086
26126W        W69142  14.430  19.476  27.023 -0.1086 -0.0770 -0.1111
26127W        W69143  34.252  16.909  26.156 -0.0305 -0.2241  0.1654
26128W        W69144  31.545  25.943   0.496  0.3110 -0.0482  0.1580
26129W        W69145   3.961   0.402  19.778 -0.2983  0.2990  0.1450
26130W        W69146   7.191  10.521   1.488  0.1758  0.0990 -0.3292
26131W        W69147  31.372   2.946  20.589 -0.0398 -0.0157  0.2201
26132W        W69148  26.715  33.123  22.309  0.0763 -0.5914  0.1383
26133W        W69149  19.985  11.441  13.944 -0.0193  0.2515 -0.0684
26134W        W69150   2.840   9.004  18.266  0.0260  0.0764  0.0551
26135W        W69151  15.038  25.863   8.910  0.0638  0.3165  0.2768
26136W        W69152  21.197  16.408  14.193 -0.2378  0.0577 -0.0043
26137W        W69153  34.051  11.240   8.493 -0.0979  0.0492  0.0666
26138W        W69154  10.999  15.912   1.672 -0.2095 -0.0980  0.1729
26139W        W69155   3.789   4.551   3.559 -0.2019  0.0846  0.1623
26140W        W69156   2.324   7.044  20.778  0.0707  0.2416  0.2147
26141W        W69157  20.654  13.962  12.934 -0.0952 -0.1301 -0.1509
26142W        W69158   3.730  24.614   9.726  0.1792  0.0669 -0.2175
26143W        W69159  29.598  15.434   2.646 -0.0752 -0.0955  0.1896
26144W        W69160   2.391  23.714  16.032  0.0165  0.2399 -0.1440
26145W        W69161  30.839  25.725   3.193  0.0961  0.0639 -0.1241
26146W        W69162   6.776  10.984   5.378  0.0200 -0.0688  0.1065
26147W        W69163   7.104  12.040   8.353  0.1883 -0.0043 -0.0977
26148W        W69164  27.406   1.327  22.021  0.3154  0.1972  0.0703
26149W        W69165  31.942  20.821  20.464 -0.0325  0.0369 -0.1422
26150W        W69166   7.688   2.495  19.279  0.0348 -0.1085 -0.1190
26151W        W69167  21.583  21.752  19.969 -0.2487 -0.2337 -0.2018
26152W        W69168  19.958   7.218  14.744 -0.1167 -0.1839  0.3142
26153W        W69169  26.927   7.380  26.208  0.1411 -0.3325  0.1613
26154W        W69170  33.861  10.189  23.025  0.0353 -0.0742  0.3276
26155W        W69171   4.015  13.500  16.946 -0.0867  0.1665 -0.1445
26156W        W69172   8.163  22.091  19.214 -0.0909  0.2190  0.1345
26157W        W69173  30.911  18.346  24.343  0.1475 -0.1174  0.0363
26158W        W69174   6.621   1.969   5.089  0.1344 -0.6464 -0.3140
26159W        W69175  26.901  20.142  22.075  0.4319 -0.2211  0.0038
26160W        W69176   2.079   9.372   9.934  0.0053  0.0323 -0.0345
26161W        W69177   8.648  30.808  21.855 -0.3094 -0.1314 -0.1121
26162W        W69178   0.541   7.443   9.967  0.1011  0.0347 -0.0999
26163W        W69179   1.896  17.440  28.331  0.1762 -0.1891 -0.2539
26164W        W69180  28.664  26.471  10.802 -0.2364 -0.2430  0.0627
26165W        W69181   1.753  12.130  20.103 -0.1208 -0.0998 -0.0325
26166W        W69182  33.813  15.974   0.743 -0.0373 -0.0393 -0.0208
26167W        W69183   1.139   8.613   7.971  0.0631  0.2586 -0.0304
26168W        W69184   1.812  13.085   1.315 -0.1726 -0.1639 -0.0281
26169W        W69185  34.775  20.435  23.572 -0.3833 -0.1778  0.1306
26170W        W69186   4.472  32.098   6.267  0.2129 -0.1210  0.1901
26171W        W69187   0.451  31.320  28.301 -0.0370 -0.1019  0.3440
26172W        W69188   2.012   8.218  20.275  0.0684  0.0087  0.0235
26173W        W69189   6.512  28.354   0.620  0.0177  0.2128  0.0357
26174W        W69190  19.001  16.066  19.329 -0.1280 -0.0148 -0.2178
26175W        W69191  33.369  13.016   4.242 -0.1352  0.3269 -0.0354
26176W        W69192  30.607   4.864  15.324 -0.0061 -0.1608 -0.0067
26177W        W69193   9.938   7.318  20.784 -0.0908 -0.1140 -0.3316
26178W        W69194  11.369  18.186   5.778 -0.0962  0.1008 -0.2375
26179W        W69195  13.368   9.901  22.791  0.2015 -0.2218  0.1799
26180W        W69196   5.134  16.168  25.365  0.3457 -0.2083 -0.1951
26181W        W69197  32.014   4.115  25.110  0.1229  0.2553  0.1435
26182W        W69198  31.719  15.881  24.313  0.1703 -0.0598  0.0995
26183W        W69199  17.114   6.571  15.577  0.4229  0.4811  0.1692
26184W        W69200   8.210   5.167  27.337  0.1544  0.1591  0.4254
26185W        W69201  20.876  18.383  22.864  0.3783 -0.1394 -0.0562
26186W        W69202   4.469  20.458  26.340  0.1278 -0.0769 -0.0742
26187W        W69203  10.261   7.629  27.182  0.0664  0.0928  0.2283
26188W        W69204   1.908  17.471  26.789 -0.1737  0.0818 -0.1365
26189W        W69205   0.351  19.104   7.242 -0.2017  0.3489  0.2653
26190W        W69206  33.410  21.892  15.827 -0.3305 -0.0809  0.0224
26191W        W69207  25.799  16.325   2.987 -0.2090 -0.0631  0.4427
26192W        W69208   4.499  24.551  15.646  0.0176  0.1860  0.1328
26193W        W69209  26.330   9.939  23.332 -0.3207  0.0842 -0.0468
26194W        W69210  20.912   8.151   8.522 -0.0180  0.1046  0.3841
26195W        W69211  23.155  17.369  26.908 -0.1871  0.0674 -0.2804
26196W        W69212  30.845  26.173  18.429 -0.0830  0.3597  0.0708
26197W        W69213  24.833  13.974  22.574 -0.1551 -0.0965 -0.1057
26198W        W69214  29.801   8.458  15.543 -0.1490  0.1919 -0.0424
26199W        W69215   6.227   4.999   2.791 -0.0259  0.1098 -0.1795
26200W        W69216  14.748  20.854   0.159  0.1078  0.1295 -0.0167
26201W        W69217   8.434  24.071   8.618 -0.0831 -0.1108 -0.1174
26202W        W69218   9.991  33.597  18.735  0.2335 -0.2608 -0.2074
26203W        W69219  11.127  14.449   1.955  0.0716  0.2628  0.0574
26204W        W69220   1.688  15.145   5.478 -0.0587 -0.0095  0.0094
26205W        W69221   9.573   3.535  18.579  0.0148  0.2182 -0.3614
26206W        W69222  34.214  24.013  15.497  0.1595 -0.0494  0.3011
26207W        W69223   8.404  17.496  14.105  0.0908  0.0210  0.0266
26208W        W69224  23.828  12.923  16.820 -0.2560 -0.0726  0.0891
26209W        W69225  12.502  11.066   3.631 -0.1807  0.1577  0.0272
26210W        W69226  29.213  15.752  14.616  0.3124 -0.1402 -0.1708
26211W        W69227   7.772  10.770  16.760 -0.4755 -0.0669 -0.0142
26212W        W69228  12.521   3.219  22.912 -0.1050  0.0824 -0.2143
26213W        W69229  32.209   1.617   2.871 -0.1345 -0.3462  0.2345
26214W        W69230  31.070  18.397   3.208  0.0388  0.0301  0.3051
26215W        W69231  32.321   4.157  16.250  0.2251  0.0888 -0.3821
26216W        W69232   0.280  13.464  23.346  0.0968  0.1705 -0.1983
26217W        W69233   2.871  10.346   2.909 -0.0295  0.2264  0.1552
26218W        W69234  16.151  21.051   7.866 -0.1055 -0.0600  0.0627
26219W        W69235  32.750  14.323   0.090  0.0171  0.0667  0.1312
26220W        W69236   1.280   5.606  17.513  0.2882 -0.0311 -0.0266
26221W        W69237   3.616  32.717  27.154  0.0866 -0.0186  0.1008
26222W        W69238  25.009   2.090   0.607  0.1413  0.1933  0.3231
26223W        W69239  24.019  15.613   0.780  0.1853 -0.0823  0.3379
26224W        W69240  32.236  11.250  13.845 -0.1280 -0.0046 -0.1061
26225W        W69241  30.208  24.920  16.552  0.0105  0.0770 -0.0304
26226W        W69242  21.206  12.009   4.386  0.1855  0.0352  0.0038
26227W        W69243   5.492  17.565   2.178  0.0788  0.1712  0.1117
26228W        W69244  34.191  18.015  26.433  0.0325 -0.1426  0.0896
26229W        W69245   2.597   8.931   8.613  0.0906 -0.0559  0.2554
26230W        W69246   8.587  16.568  28.689  0.2109  0.3003 -0.5259
26231W        W69247   0.464  15.818  27.280 -0.2330  0.3838  0.1453
26232W        W69248  30.996   3.683  21.403  0.0205  0.1448 -0.3214
26233W        W69249  32.778  27.527  15.725  0.1382 -0.1058  0.2594
26234W        W69250   7.687  14.567   1.991  0.1516  0.1056  0.5126
26235W        W69251  11.650   8.453  16.380 -0.0458  0.0455 -0.1054
26236W        W69252  12.714  13.638  17.236 -0.1338 -0.1592 -0.0015
26237W        W69253  34.688   4.508  20.022 -0.1767  0.3747  0.0042
26238W        W69254  10.615   8.963   2.642  0.3964 -0.2095  0.0955
26239W        W69255  31.618  22.640  20.876  0.0259  0.3323  0.1361
26240W        W69256  33.025   4.570   3.447  0.2186  0.1753  0.1387
26241W        W69257  13.458  16.760  21.375  0.3919  0.0121  0.2581
26242W        W69258  17.679  23.546  26.673  0.5139 -0.4388 -0.0969
26243W        W69259  16.737   9.291  21.553  0.1807  0.1430 -0.1585
26244W        W69260   9.857   1.079  28.250  0.2192 -0.2803  0.1177
26245W        W69261   0.172  11.444   7.858 -0.2022 -0.0153 -0.1746
26246W        W69262  11.047  27.538   2.781  0.2174 -0.1898 -0.1719
26247W        W69263  30.010  21.815   3.324  0.0701 -0.2463  0.1296
26248W        W69264  31.142   5.253  25.348  0.2755 -0.2481  0.2279
26249W        W69265  33.847  14.602  18.041  0.2934 -0.0002  0.1998
26250W        W69266   0.892   7.060   5.828  0.0246  0.2511  0.1452
26251W        W69267  24.953   7.046   5.181 -0.2182  0.2343 -0.3851
26252W        W69268  28.887  13.390  22.559  0.0635  0.1884 -0.2422
26253W        W69269  11.945   9.481   7.597  0.3298 -0.0548 -0.1861
26254W        W69270  30.361  10.511  20.055  0.0903  0.0117 -0.3579
26255W        W69271  19.253   2.664  15.992  0.3941 -0.0446  0.0028
26256W        W69272  12.700  13.004  21.806 -0.1084 -0.2873  0.1932
26257W        W69273   7.074  11.262  28.627 -0.1046  0.1373  0.1092
26258W        W69274  28.350   7.068   2.470  0.1022  0.2871 -0.1618
26259W        W69275   5.481  14.934  16.791  0.0163  0.4887  0.1046
26260W        W69276  19.938   9.642  14.788 -0.2896 -0.2506  0.3121
26261W        W69277  23.849  18.830   8.962 -0.3079  0.1981  0.0178
26262W        W69278   8.088  12.510  18.197  0.1182  0.0413  0.0962
26263W        W69279  13.207   7.194  17.592 -0.1363 -0.0870  0.0153
26264W        W69280   7.098  11.774   6.346  0.1739 -0.2871  0.0292
26265W        W69281   0.178  27.401   8.288 -0.0352  0.0849  0.0596
26266W        W69282  29.704  21.981  21.899 -0.0733  0.0572 -0.3194
26267W        W69283   4.209  10.465  29.011  0.3192 -0.1820 -0.1440
26268W        W69284   3.278  27.497  18.531  0.3009 -0.0694  0.0440
26269W        W69285  14.453  10.617   6.637  0.0953  0.0365  0.2765
26270W        W69286  25.992  10.866   9.571 -0.2066  0.0968 -0.2714
26271W        W69287   8.990   5.926  14.972  0.0729  0.1993 -0.1853
26272W        W69288  33.084   8.798  28.636  0.0239  0.0103 -0.0251
26273W        W69289   2.064  23.058   1.741 -0.0973  0.0215  0.0184
26274W        W69290   0.136   6.615  28.806  0.0531 -0.1798 -0.0196
26275W        W69291   0.150  20.950   2.261  0.1956  0.3021  0.0034
26276W        W69292   2.947  15.981  22.365 -0.3326 -0.3115 -0.0146
26277W        W69293  22.091  34.743   4.939  0.1882  0.2801  0.0662
26278W        W69294  26.570   1.037  10.667  0.1958 -0.0521  0.2076
26279W        W69295   7.610  12.969  27.440  0.1970  0.0517  0.0579
26280W        W69296  18.438   0.754   9.219  0.1478 -0.1993 -0.1361
26281W        W69297   3.160  30.238  19.015  0.2498  0.0138  0.1234
26282W        W69298  32.225   1.347   0.445 -0.3698  0.3264  0.0506
26283W        W69299  16.772  24.864  12.992 -0.1323 -0.0081 -0.0771
26284W        W69300   7.154   5.692  19.818  0.0199  0.2155  0.3550
26285W        W69301   9.258  19.284   0.141 -0.0638 -0.3403  0.2638
26286W        W69302   0.855  31.831  23.869 -0.1746 -0.1921 -0.1598
26287W        W69303   5.794  30.128  14.621  0.0181 -0.1630  0.0584
26288W        W69304   7.991  13.216   5.258 -0.2435 -0.0217 -0.2985
26289W        W69305  10.538   9.932   1.764  0.0129 -0.0646 -0.1742
26290W        W69306  32.076  15.677   3.193 -0.0016  0.0648 -0.1445
26291W        W69307  13.709  10.601  26.341  0.1424  0.1829  0.1202
26292W        W69308  26.568  25.131  16.212  0.2494 -0.0188  0.3971
26293W        W69309  10.337  21.662  16.569  0.0163  0.3135  0.1183
26294W        W69310  15.948   6.534  27.849 -0.4357  0.3176  0.0347
26295W        W69311   7.510  22.969   5.152 -0.2390 -0.0476  0.0613
26296W        W69312  26.922  18.795  18.133 -0.0884  0.2891 -0.3590
26297W        W69313   5.844  12.057   9.147 -0.1358 -0.0176 -0.0514
26298W        W69314   3.288  16.792  13.767 -0.1311  0.1117  0.1280
26299W        W69315  14.592  14.644  28.253 -0.0185  0.2354 -0.0461
26300W        W69316  10.307   4.557  26.186 -0.0963 -0.0669 -0.2966
26301W        W69317  20.227  10.513  22.541  0.2346 -0.1432  0.1907
26302W        W69318  30.214   5.224  18.227 -0.1104 -0.1500  0.0048
26303W        W69319   2.116  14.218   4.243 -0.4134  0.0661  0.0114
26304W        W69320  14.861  30.375  22.640  0.2730  0.1033 -0.1632
26305W        W69321  31.322   8.861  17.496 -0.1926  0.0599 -0.4432
26306W        W69322  13.202  12.136   3.197 -0.1880  0.3501 -0.1219
26307W        W69323   6.569   9.174  23.147 -0.0146  0.1379 -0.1247
26308W        W69324   5.595  17.847   0.031 -0.0785  0.0663 -0.3275
26309W        W69325   7.490  22.904  27.263 -0.1164 -0.0691 -0.1920
26310W        W69326  12.973   8.789  19.405  0.0934 -0.0183 -0.3029
26311W        W69327  33.534   9.895   7.349 -0.2793 -0.3033  0.2332
26312W        W69328  27.206  14.376  24.741 -0.2035 -0.0191 -0.0280
26313W        W69329   1.166   1.798  26.634  0.0475  0.4425  0.0645
26314W        W69330  14.346  15.067  27.398  0.2234 -0.0394 -0.0100
26315W        W69331   4.982  15.740   7.375  0.0908  0.3573  0.0204
26316W        W69332  11.851  20.886  22.114  0.0968 -0.0770  0.0745
26317W        W69333  31.527  26.135  27.549 -0.0182 -0.0027  0.1630
26318W        W69334   4.231  19.968  17.655  0.2248 -0.1103 -0.1717
26319W        W69335  11.185  20.278   8.162 -0.1595 -0.2200 -0.0405
26320W        W69336  30.774  33.811   8.416  0.2078 -0.0270 -0.1833
26321W        W69337   7.866   5.159   1.966 -0.1024  0.1114  0.2994
26322W        W69338  23.508   8.437  24.972  0.0485 -0.2674 -0.4665
26323W        W69339   8.716  14.553  23.104 -0.4287  0.2681  0.2483
26324W        W69340   5.726   4.978  15.368  0.0363 -0.1016 -0.0215
26325W        W69341   1.106  18.777  24.577  0.5750 -0.3348  0.4078
26326W        W69342  11.060  12.344  14.267  0.0054 -0.1643 -0.6977
26327W        W69343  34.043   9.689  27.871  0.1278 -0.1460  0.0912
26328W        W69344   9.028  14.484  19.982 -0.2511 -0.1543 -0.1852
26329W        W69345  32.868   8.665  26.722  0.3254 -0.0924 -0.0619
26330W        W69346   0.045  17.655   9.760  0.3466 -0.0168  0.3111
26331W        W69347   6.641   8.815  29.184  0.1292 -0.1916  0.2683
26332W        W69348  11.918  16.233   3.780  0.1368  0.0868  0.1459
26333W        W69349   3.879   6.744  28.131  0.1559  0.0177 -0.1210
26334W        W69350  34.131   6.645  17.348 -0.1236  0.0380 -0.0338
26335W        W69351  17.196  15.773   5.174  0.4038  0.2679 -0.4555
26336W        W69352   8.952  12.335   7.787 -0.1756 -0.3317  0.1513
26337W        W69353  17.595  10.623  17.866 -0.0791 -0.1142  0.1898
26338W        W69354  26.217  15.975  27.127  0.0004  0.1525  0.0450
26339W        W69355  28.024  15.247   0.035  0.0212 -0.0364 -0.2428
26340W        W69356  11.156  13.488  17.894  0.0548 -0.4084  0.1976
26341W        W69357   1.522  32.799  15.991 -0.2451 -0.1376 -0.0829
26342W        W69358   8.788  30.423  16.859  0.0501 -0.1188 -0.0648
26343W        W69359   6.802   6.278  23.218 -0.0852 -0.2387  0.1949
26344W        W69360  27.621  11.934  14.889 -0.0886  0.1579 -0.1163
26345W        W69361  21.614   8.878   8.056  0.1734 -0.0112  0.3023
26346W        W69362   5.629   7.661  25.023  0.1084  0.1871 -0.0831
26347W        W69363   5.941  17.078   1.876  0.0803  0.0909 -0.2102
26348W        W69364  34.136  28.373  22.227 -0.0449  0.4899 -0.0080
26349W        W69365   5.978   2.591  24.448  0.1779  0.3536 -0.1189
26350W        W69366  19.487   5.435  14.024  0.1759 -0.1496  0.1919
26351W        W69367  16.460  10.050  14.387  0.2100 -0.3457 -0.2994
26352W        W69368  32.645  23.621   2.059  0.0096 -0.1801  0.2795
26353W        W69369   4.940  14.210  28.099 -0.1165 -0.3256  0.3044
26354W        W69370  22.424  13.405   3.998 -0.0057 -0.0666 -0.0250
26355W        W69371  28.802   8.239  21.861  0.0380 -0.0163  0.3139
26356W        W69372  21.968  24.797  28.701  0.0776  0.2397  0.0113
26357W        W69373   5.927   5.107   7.312 -0.2488  0.3120 -0.2843
26358W        W69374   4.781  22.522  23.995 -0.2266  0.3213 -0.0372
26359W        W69375  34.306  11.786   7.255 -0.1149 -0.3101  0.2558
26360W        W69376   0.750  16.582  17.669 -0.0493  0.0373 -0.0222
26361W        W69377  31.516  16.755  16.403 -0.0359  0.1351  0.1787
26362W        W69378  33.968  13.959   4.463  0.2011 -0.0563  0.0506
26363W        W69379   7.140  13.413  22.605 -0.2797  0.0189  0.0056
26364W        W69380  13.253  22.168  13.329  0.0133  0.2208  0.2402
26365W        W69381  30.484  10.453   3.231  0.0078 -0.0821 -0.2243
26366W        W69382  16.467   1.189  16.183 -0.0820 -0.2679  0.4918
26367W        W69383   8.809  15.342   7.021 -0.1776 -0.0554 -0.1763
26368W        W69384  18.942  16.664   4.031  0.0616  0.0547  0.0930
26369W        W69385  31.495  15.512  16.808 -0.1226  0.0241 -0.2873
26370W        W69386  26.412   4.828   2.343  0.0138  0.1750 -0.2909
26371W        W69387   5.159   3.920   7.768  0.0301  0.1362 -0.1262
26372W        W69388   4.115  26.008  24.719 -0.0896 -0.1603  0.1063
26373W        W69389   1.570  20.373   3.919  0.2399  0.0292  0.1204
26374W        W69390  24.034  12.655  28.259 -0.0244 -0.3251  0.2502
26375W        W69391  25.999  11.480   2.704  0.0598  0.2558 -0.1269
26376W        W69392  31.508   3.441   2.505  0.0756  0.0386  0.2287
26377W        W69393  26.465  15.950  27.986 -0.1226  0.0506 -0.2410
26378W        W69394  11.253   2.434   0.810 -0.1093  0.3600  0.1449
26379W        W69395  13.177   4.296  20.226  0.0106 -0.1052 -0.0814
26380W        W69396   6.489  13.649  24.387 -0.3102 -0.2306  0.0490
26381W        W69397  13.189  15.286  20.428 -0.2642  0.3390  0.1727
26382W        W69398  13.310  10.626  27.114 -0.1138 -0.1132  0.2512
26383W        W69399   3.124  16.859   1.135  0.1978  0.1236 -0.1920
26384W        W69400   6.361  21.796  28.266 -0.0853  0.1847 -0.3668
26385W        W69401   6.333  27.101  16.924  0.1614 -0.0770 -0.2882
26386W        W69402  30.734   7.102  15.854 -0.0104  0.0046  0.1079
26387W        W69403   0.943   6.117  19.387 -0.0890 -0.0482 -0.0643
26388W        W69404  30.812   3.689  20.293 -0.1197  0.3104  0.0889
26389W        W69405  10.707   7.497  28.023  0.0164  0.0062 -0.1119
26390W        W69406  16.749   5.739  18.259 -0.0569 -0.0862 -0.1850
26391W        W69407   5.853  14.065   7.816  0.1201  0.1640  0.1944
26392W        W69408  22.031  23.068   9.741 -0.2343 -0.1525  0.0343
26393W        W69409  10.542  29.308   8.767 -0.2962  0.0800  0.1602
26394W        W69410   7.299   6.405  24.108  0.4042 -0.2209  0.1324
26395W        W69411  28.691  12.437  28.347  0.1119 -0.1624 -0.0732
26396W        W69412  19.222  17.654   3.586  0.1598 -0.1917 -0.2114
26397W        W69413  10.177  20.836  16.121 -0.0041 -0.0256  0.1301
26398W        W69414  14.162  11.087  13.028 -0.0102 -0.2555  0.1726
26399W        W69415  33.806  11.918  19.760 -0.1614  0.0881  0.1772
26400W        W69416  32.311  23.539  17.813  0.2861  0.0985  0.1123
26401W        W69417   2.530  21.479  19.926 -0.2384  0.0941 -0.1534
26402W        W69418  24.437  24.301   7.663  0.5665  0.2533 -0.1889
26403W        W69419   2.450  23.887  22.862  0.1879  0.0315  0.1070
26404W        W69420  32.907  18.182  19.256 -0.0380 -0.0883  0.2562
26405W        W69421   4.589  19.400  23.349  0.0113  0.0631  0.0979
26406W        W69422   2.587   8.889  23.927 -0.1248 -0.2395 -0.0191
26407W        W69423   3.747  16.502   5.024  0.2340 -0.4945 -0.2201
26408W        W69424  34.122  18.393   2.511  0.0848  0.2502  0.1163
26409W        W69425  14.542  20.464   1.595 -0.0399 -0.4153 -0.0770
26410W        W69426   8.423  11.251   3.384  0.0856 -0.0575 -0.1225
26411W        W69427   4.369   9.847  22.583  0.3823  0.1594 -0.2977
26412W        W69428  34.554   8.107  21.662  0.0958 -0.2637  0.0508
26413W        W69429   5.816   9.818   3.371 -0.2773 -0.2058 -0.0512
26414W        W69430   7.475  12.374   8.234  0.0173  0.2515 -0.0466
26415W        W69431   2.412   4.355  22.033  0.0331  0.1044 -0.3010
26416W        W69432  14.771  29.288  26.422 -0.0869  0.1128  0.3255
26417W        W69433   5.333  11.905   2.428  0.0852 -0.1975 -0.2809
26418W        W69434  11.901  16.240  13.963 -0.2008  0.2115 -0.0799
26419W        W69435  13.662  17.103  25.021  0.3769 -0.2073  0.0696
26420W        W69436  10.462   6.753  19.217  0.0201 -0.2656  0.3149
26421W        W69437   0.180  18.184  17.838 -0.1048  0.2277 -0.1935
26422W        W69438  11.743  25.843  24.660 -0.1171 -0.5125  0.2242
26423W        W69439   3.282  30.183  28.847 -0.1510 -0.0747  0.1009
26424W        W69440  12.175  12.608  27.656 -0.0595 -0.0660 -0.2209
26425W        W69441   3.539  16.874   7.836  0.2352 -0.2099  0.0481
26426W        W69442  33.011   6.064   9.889 -0.1192 -0.1464 -0.3519
26427W        W69443  33.270  11.464  22.503  0.1483 -0.1619  0.1697
26428W        W69444   3.032  18.235  20.678 -0.0086 -0.1744 -0.0875
26429W        W69445   8.264  22.574   4.634 -0.1714  0.0556  0.1205
26430W        W69446   9.313  19.064  28.236 -0.2951 -0.0843  0.0594
26431W        W69447   6.526  33.647  10.689  0.0770 -0.2220 -0.1798
26432W        W69448   6.407  20.116   0.924 -0.2542 -0.0922  0.2645
26433W        W69449  31.624   9.079  26.720  0.2677 -0.0359  0.0935
26434W        W69450  24.531  18.434  15.387  0.1685 -0.2558  0.1357
26435W        W69451   0.000  19.401   7.347 -0.0659  0.1189  0.0054
26436W        W69452  16.839  16.665  21.198  0.1036  0.1119  0.3471
26437W        W69453   5.965  20.320  24.785  0.2610 -0.2221  0.0128
26438W        W69454  31.071   4.474   0.649  0.0805 -0.0722 -0.0212
26439W        W69455  26.892   8.439   7.490  0.1078  0.0380  0.1705
26440W        W69456  27.282  15.647  14.836 -0.1471  0.2614 -0.0725
26441W        W69457  10.972  16.090   3.924 -0.2356 -0.4969 -0.2566
26442W        W69458   8.789  25.898  25.590 -0.1069 -0.0424  0.1151
26443W        W69459   7.764  14.877  22.164 -0.0603  0.1207 -0.1715
26444W        W69460  34.203  22.654  21.405  0.1232 -0.1525 -0.4915
26445W        W69461  21.197  15.689  24.215  0.1010 -0.0643  0.0695
26446W        W69462   7.627  12.539   1.580 -0.3585  0.0625  0.1136
26447W        W69463   5.936  34.046   2.740  0.5045  0.0930  0.1105
26448W        W69464  15.832  14.774  26.490  0.0034  0.0120  0.0333
26449W        W69465  18.078  13.187  19.177  0.1384 -0.1392 -0.2090
26450W        W69466   2.104  21.242   8.889 -0.1019 -0.4406  0.2918
26451W        W69467  15.824  13.500  24.050 -0.0617 -0.0262  0.0313
26452W        W69468  10.475  22.613  18.593 -0.0865 -0.3817  0.2034
26453W        W69469  11.698   6.825   6.402 -0.3013 -0.1101 -0.0644
26454W        W69470  10.567  22.187   1.626 -0.3938  0.1522 -0.0221
26455W        W69471   6.220  13.276  17.831  0.2981 -0.1456  0.1481
26456W        W69472   8.348  27.016  28.334 -0.0544 -0.2907 -0.0370
26457W        W69473  16.891   5.150   3.237  0.0185 -0.1795 -0.1397
26458W        W69474  32.862  16.408  27.481  0.0945 -0.2025 -0.0322
26459W        W69475  23.440  27.630   6.392  0.2727  0.0117  0.1590
26460W        W69476  21.346  23.474  16.823  0.3051  0.0591 -0.3774
26461W        W69477  11.046   7.763  21.691  0.1155  0.1475 -0.1274
26462W        W69478  23.145  16.910  18.402 -0.0856  0.3259 -0.1124
26463W        W69479   8.297  10.011  26.137  0.2952 -0.0615 -0.1949
26464W        W69480  11.494  18.780   7.406  0.2914  0.2689 -0.2068
26465W        W69481  12.511  22.176   3.803 -0.0522 -0.1625 -0.0180
26466W        W69482   4.061  12.534  16.811  0.2886  0.0145  0.0274
26467W        W69483  13.532  20.179  20.608 -0.3870  0.6199 -0.1218
26468W        W69484  15.715  12.374   7.475  0.2433 -0.2256 -0.1961
26469W        W69485  33.498   0.724  27.541  0.0998  0.1431  0.2382
26470W        W69486   2.050   5.769   3.882 -0.2410  0.1208 -0.3413
26471W        W69487   8.156  13.966   5.652 -0.1283  0.0891 -0.1203
26472W        W69488   5.667  11.328   9.558  0.0928 -0.4670 -0.0092
26473W        W69489  33.245  21.036   1.920  0.1271  0.1637  0.1402
26474W        W69490   5.857  15.674   8.541  0.1653 -0.0210 -0.2022
26475W        W69491   6.044   9.019   8.530 -0.1189 -0.1284  0.2618
26476W        W69492  13.349  23.359   2.740 -0.1817 -0.2146  0.2719
26477W        W69493  11.010  15.270  27.022 -0.0165 -0.1834  0.0420
26478W        W69494  24.506   7.965  28.577 -0.0974  0.0906  0.2398
26479W        W69495  16.382  25.780  26.580  0.1147  0.1586 -0.0037
26480W        W69496  25.915  19.534  24.768 -0.1019 -0.1218  0.0085
26481W        W69497   1.977  20.919   4.460 -0.2998 -0.0148 -0.1941
26482W        W69498  11.430  16.671  27.118  0.0981 -0.6028  0.0085
26483W        W69499   1.573  23.667  20.548 -0.2193 -0.1899 -0.1261
26484W        W69500  26.870  14.385  21.691 -0.1321 -0.0429 -0.2991
26485W        W69501   4.721   2.712  21.846 -0.3504 -0.1908 -0.3561
26486W        W69502  10.377  26.497  14.291 -0.1180  0.0627  0.0418
26487W        W69503  18.409   9.413  16.546 -0.1583  0.0075  0.1565
26488W        W69504  16.435   5.768  26.540 -0.2525 -0.1130  0.1857
26489W        W69505   0.893  15.033  24.491  0.2278 -0.1661 -0.0716
26490W        W69506  22.500  26.957   0.440 -0.2303 -0.0227 -0.1456
26491W        W69507   3.051  29.527  23.992  0.0942 -0.2143  0.0936
26492W        W69508  13.113   6.185   8.370  0.0126 -0.0095 -0.0926
26493W        W69509  12.518  10.344  15.744 -0.1812  0.2757 -0.1978
26494W        W69510   1.025  12.708   5.229 -0.2051  0.3890  0.1660
26495W        W69511   7.661  21.648  22.012 -0.0784  0.0998 -0.0502
26496W        W69512  23.772   0.853  18.161  0.1488 -0.2003  0.1683
26497W        W69513   5.938  14.159  20.191  0.0589  0.3205 -0.1374
26498W        W69514   3.242  25.768  14.298 -0.0121 -0.0053  0.2665
26499W        W69515  20.426  21.298  16.872  0.2105 -0.2694  0.2401
26500W        W69516  22.798  30.451   1.714  0.0592  0.1685  0.2253
26501W        W69517   5.095  15.968  28.938  0.1403 -0.0299  0.2258
26502W        W69518   9.265  24.486  15.891 -0.1817 -0.1208  0.1668
26503W        W69519  10.299   9.535   1.994 -0.0327 -0.2879  0.2857
26504W        W69520   3.002   2.519  15.430  0.0038  0.2779  0.1201
26505W        W69521   6.194  19.855  26.623  0.0596 -0.0007  0.1623
26506W        W69522  10.051  19.837  13.643  0.0949 -0.0715 -0.1058
26507W        W69523   3.772   1.978  15.165 -0.2389 -0.1484  0.2355
26508W        W69524  23.967   1.185  16.014 -0.0775  0.0997 -0.1149
26509W        W69525  10.194  12.602  19.360  0.0168 -0.4894  0.0778
26510W        W69526   1.605  24.714  21.443 -0.0807 -0.0513  0.2213
26511W        W69527  28.096   9.924  25.585  0.0042  0.1182  0.2018
26512W        W69528   5.026  17.725  14.402  0.2657  0.0987  0.0332
26513W        W69529  28.910  12.952  17.303  0.1713  0.1976  0.0211
26514W        W69530   9.546  30.452  17.123  0.0016 -0.1982 -0.0161
26515W        W69531   9.490  24.110  14.855  0.0762  0.0997 -0.0535
26516W        W69532   8.999  14.142  24.111  0.0067  0.0328  0.0779
26517W        W69533   3.471  10.724  16.275 -0.2580  0.1707 -0.0215
26518W        W69534   9.636  16.734  16.478  0.3006 -0.1918 -0.0139
26519W        W69535   2.925   7.879  21.458  0.0609  0.0511 -0.0235
26520W        W69536  33.802  19.937  28.213  0.0259 -0.2375 -0.2505
26521W        W69537  13.163   7.236  18.058 -0.2331 -0.1473 -0.1351
26522W        W69538  28.497   2.353  16.288 -0.1224 -0.1813 -0.0894
26523W        W69539  31.397  19.975  19.099 -0.2012  0.0362 -0.0693
26524W        W69540  13.131  14.087  14.773 -0.1240 -0.0016  0.0559
26525W        W69541   0.233  25.863  24.438 -0.0312 -0.0650 -0.0112
26526W        W69542   2.701  20.845  17.355 -0.0600 -0.1352 -0.2311
26527W        W69543   3.507   3.069  16.497  0.2175  0.2948  0.0411
26528W        W69544   5.514  28.438  15.026  0.0874  0.1708 -0.0479
26529W        W69545   4.683  15.619  21.607 -0.0463 -0.0599  0.3216
26530W        W69546  16.989  10.448  20.216 -0.1906 -0.0618 -0.0703
26531W        W69547   7.346  26.786  13.961 -0.1067 -0.1577  0.1122
26532W        W69548  22.224   7.388  24.216 -0.0115 -0.3092 -0.1608
26533W        W69549   2.162  31.387   7.155 -0.4767  0.1088  0.0103
26534W        W69550   3.209  18.300  13.629 -0.0349  0.0991 -0.0040
26535W        W69551   9.361   8.679  15.848 -0.1090 -0.0060 -0.2271
26536W        W69552  12.664  15.574  16.896 -0.4156  0.0437  0.0674
26537W        W69553  15.580  27.800  19.350 -0.2386 -0.0083  0.1407
26538W        W69554   8.132   6.802  16.317 -0.0518  0.0735  0.2517
26539W        W69555  31.702  27.561  24.465  0.0198  0.2093 -0.0781
26540W        W69556  10.577  10.870  22.579 -0.2165 -0.0428  0.2428
26541W        W69557  27.587   0.035  18.932 -0.1977 -0.1432  0.0632
26542W        W69558  14.750   6.536  17.827  0.0207 -0.1328  0.1609
26543W        W69559  19.181   0.484  20.096 -0.1219 -0.0151 -0.0044
26544W        W69560  29.824   2.626  25.014 -0.0950 -0.1507 -0.0674
26545W        W69561   7.314  13.270  14.490 -0.3007 -0.0875 -0.4192
26546W        W69562  13.141  30.418  23.900  0.2120 -0.0819  0.1214
26547W        W69563  23.365  18.361  17.188 -0.1150  0.0397  0.0493
26548W        W69564  10.858  12.432  23.880 -0.1086  0.1912 -0.4279
26549W        W69565  16.485  25.041  29.144  0.0132  0.0509 -0.0125
26550W        W69566   2.193   0.311  20.845  0.2720 -0.1406  0.2165
26551W        W69567  24.542  13.330  21.873  0.1974  0.2747 -0.3824
26552W        W69568  11.198  27.126  21.608  0.1530 -0.0291 -0.0807
26553W        W69569   1.765  28.612  15.116 -0.0002 -0.2295  0.0505
26554W        W69570   8.630   4.689   4.530  0.0574 -0.0917  0.1027
26555W        W69571  34.190  19.195  15.339  0.0158 -0.1353 -0.2806
26556W        W69572  34.497  11.331  20.038  0.4043  0.0562  0.0261
26557W        W69573  34.197  25.029  28.433 -0.0281  0.2242  0.0091
26558W        W69574   2.862   2.869  15.847 -0.0684  0.1167 -0.0834
26559W        W69575  12.912   8.653  18.079  0.2962 -0.2012  0.0096
26560W        W69576  18.656  19.752  15.777 -0.1924 -0.0422  0.0067
26561W        W69577   9.851  16.699  16.030 -0.1484  0.1001  0.0081
26562W        W69578   2.471  22.240  17.367 -0.0819 -0.0513 -0.2156
26563W        W69579   3.029  24.349  16.147 -0.3126  0.1070 -0.3128
26564W        W69580  19.559  13.284  14.589  0.5409  0.1751 -0.0570
26565W        W69581  18.314  23.306  12.595  0.0820  0.1177  0.0176
26566W        W69582  29.703  28.019  20.738  0.2319 -0.3399  0.0496
26567W        W69583  10.919   9.324  22.506  0.2863  0.0965  0.0215
26568W        W69584  19.587  10.976  13.637  0.0613 -0.0561 -0.0878
26569W        W69585  15.203  27.529  26.780  0.0286 -0.1132 -0.0155
26570W        W69586  12.597   9.839  20.703 -0.3438 -0.3366  0.2027
26571W        W69587  15.709  34.591  24.344  0.1264 -0.2577 -0.0805
26572W        W69588  31.330  14.090  15.237 -0.0155  0.0501  0.0253
26573W        W69589  33.966  25.451  26.952 -0.1967 -0.1523  0.0192
26574W        W69590   1.282  26.158  16.653  0.0630 -0.0542  0.2160
26575W        W69591   4.968  34.133  25.397  0.1104 -0.0345 -0.1484
26576W        W69592  20.059  14.100  15.422 -0.0393  0.1086 -0.1472
26577W        W69593  30.000  12.316  20.520 -0.2271  0.3119 -0.0962
26578W        W69594  14.265  18.713  15.307 -0.2726 -0.1174 -0.0663
26579W        W69595  14.327   9.489  17.304 -0.0529  0.1354  0.0390
26580W        W69596   9.267  19.910  22.016 -0.2556 -0.1929  0.4309
26581W        W69597  19.819  26.742  16.153 -0.2123  0.1830  0.1137
26582W        W69598   9.120  20.101  25.024  0.0962 -0.1561  0.2396
26583W        W69599  34.598  22.828  21.117 -0.1345 -0.2937  0.1623
26584W        W69600  20.002  18.851  24.225  0.1088 -0.1105 -0.1821
26585W        W69601  18.474  31.979  22.046  0.2177 -0.1727  0.0443
26586W        W69602   5.423  28.661  28.125 -0.3211 -0.2255 -0.2102
26587W        W69603  29.759  14.307  16.105  0.0301 -0.2076 -0.1382
26588W        W69604  33.770   6.500  13.846 -0.1731 -0.0146 -0.1644
26589W        W69605  32.000  19.423  18.808  0.0846  0.2059 -0.2264
26590W        W69606  10.188  27.333   2.035  0.0534 -0.0322  0.2530
26591W        W69607  22.693  28.264  21.231  0.1972  0.0675  0.2179
26592W        W69608  22.817  34.269  18.393 -0.1780 -0.0157 -0.0475
26593W        W69609  30.674  12.793   2.848 -0.2054 -0.2871  0.1621
26594W        W69610  32.245  12.747  15.660 -0.1111  0.1921  0.1130
26595W        W69611   1.549  13.891   1.213 -0.3615  0.0367  0.0201
26596W        W69612  31.758   6.744  18.023 -0.0935 -0.0551 -0.0242
26597W        W69613   3.875  13.027  17.366  0.1652  0.0920  0.1998
26598W        W69614  19.963  21.356  22.168  0.1488  0.3696  0.1650
26599W        W69615  12.213  11.050   9.888 -0.0084  0.1050 -0.2602
26600W        W69616  31.748   6.787  20.417  0.3313 -0.0666  0.3104
26601W        W69617  12.209  10.157  18.665 -0.0001 -0.1129  0.1710
26602W        W69618  31.629   9.533  21.183  0.1264 -0.2015  0.0210
26603W        W69619  15.649  31.433  25.782  0.0420  0.0167  0.0587
26604W        W69620   3.820  19.628  14.894  0.0791  0.5801  0.1515
26605W        W69621  21.073   8.833  19.119  0.0515  0.0075  0.0354
26606W        W69622   7.335  29.939  13.691  0.3837  0.0205 -0.0588
26607W        W69623   9.383   2.774  23.830 -0.0074 -0.3201  0.3528
26608W        W69624  17.427  22.075  14.419 -0.0765 -0.0217 -0.4425
26609W        W69625   4.501  22.889  27.796 -0.0694 -0.0445  0.1357
26610W        W69626  31.131  25.911  17.549  0.0520 -0.0549  0.0566
26611W        W69627   8.073   1.633  15.175  0.0476  0.2636  0.0441
26612W        W69628  23.109  21.970  17.237 -0.4193 -0.2109  0.0784
26613W        W69629  22.082   9.460   6.569  0.0094  0.0824 -0.0615
26614W        W69630   0.394  19.311   1.194 -0.1323 -0.0375  0.0020
26615W        W69631  29.177  11.887  23.136  0.1481 -0.1424 -0.4416
26616W        W69632  11.648  21.118  24.817  0.2058 -0.1274 -0.2506
26617W        W69633  10.758  16.622  13.766 -0.0503  0.0628  0.0991
26618W        W69634  21.063   4.464  19.483  0.2734 -0.0365  0.1403
26619W        W69635   7.446  23.331  21.151 -0.1463 -0.1675 -0.2707
26620W        W69636   3.200  25.118  14.171  0.5638 -0.1473 -0.1523
26621W        W69637  27.007  17.738  21.359  0.4746 -0.1709  0.0490
26622W        W69638   7.320  13.752  16.249  0.3822  0.0619 -0.1157
26623W        W69639  25.766  29.320  23.681 -0.1674 -0.2128 -0.2414
26624W        W69640   2.021  15.648  21.074 -0.1564 -0.1321 -0.1713
26625W        W69641  28.938  10.084  14.955  0.2643 -0.1705 -0.0200
26626W        W69642  13.866  16.319  20.461  0.0093  0.0519 -0.0759
26627W        W69643  32.628  28.216  18.322 -0.0413  0.1749 -0.3285
26628W        W69644  15.107  12.241  15.489 -0.0895 -0.0408  0.1056
26629W        W69645  31.758  24.896  20.317  0.2192 -0.0700  0.2428
26630W        W69646  14.367   4.946  16.003  0.2488  0.0217 -0.0662
26631W        W69647  15.261  28.749  15.043  0.0329  0.1188 -0.1556
26632W        W69648   5.475  16.183  13.320  0.2876  0.4888  0.1213
26633W        W69649   4.006   8.909  25.069  0.1051  0.2828  0.0706
26634W        W69650  31.125  23.938  27.823 -0.2054 -0.0773  0.1004
26635W        W69651   3.456  18.761  21.899 -0.0755 -0.1329 -0.1909
26636W        W69652  32.787  12.252  16.105 -0.0006 -0.0840 -0.2832
26637W        W69653   4.967  27.960  20.465 -0.1266  0.0578  0.0856
26638W        W69654   1.400  14.264  23.363  0.0396  0.2694 -0.1315
26639W        W69655  18.270  19.223  24.863 -0.1656  0.1232 -0.0929
26640W        W69656  14.220  15.338   0.374 -0.3561  0.3250 -0.0540
26641W        W69657   4.671  17.790  17.098 -0.2116 -0.1932 -0.2700
26642W        W69658  25.864  16.615   3.404  0.1868 -0.3087  0.0766
26643W        W69659   2.842  17.540  18.791  0.2324 -0.2171 -0.3313
26644W        W69660   1.906  23.598  19.440 -0.0569 -0.1768  0.2722
26645W        W69661  31.798  22.737  17.781 -0.0445  0.0051  0.0381
26646W        W69662  18.518  21.808  12.894 -0.2869  0.2420 -0.3522
26647W        W69663  31.572  22.083  19.183  0.2389  0.2473 -0.0907
26648W        W69664   8.676  20.928   2.103 -0.1466 -0.2361 -0.2205
26649W        W69665  20.639  19.796  25.474 -0.1163  0.0142 -0.0019
26650W        W69666  34.419  22.647   1.699  0.0832 -0.0376 -0.1711
26651W        W69667   5.015   9.552  28.239  0.0048 -0.3872 -0.1080
26652W        W69668  31.759  10.194  15.328  0.1380 -0.1477  0.2230
26653W        W69669  18.322  13.222  13.915 -0.1481 -0.0236 -0.2952
26654W        W69670   8.848  13.647  15.289  0.2318  0.0177 -0.3537
26655W        W69671   4.772  20.097  13.787 -0.0185  0.0800  0.3768
26656W        W69672   5.786  19.302  15.177  0.1541 -0.0463  0.0856
26657W        W69673  13.561   6.084  15.510  0.1264 -0.0628  0.0538
26658W        W69674  25.949   8.317  29.013 -0.1452  0.0751  0.0806
26659W        W69675  18.766  15.099  11.997 -0.1110  0.0536 -0.2169
26660W        W69676  10.271  18.327  26.769  0.3252  0.1287  0.0569
26661W        W69677  23.778  21.111  18.639 -0.1115  0.0999 -0.1087
26662W        W69678  11.720  31.621  23.150 -0.0787  0.1315 -0.0340
26663W        W69679   4.487  24.595   2.515 -0.0633 -0.0490  0.1475
26664W        W69680   6.015  19.502   6.673 -0.0341 -0.0671 -0.0903
26665W        W69681  22.855   1.123  16.486  0.3446 -0.0268  0.1027
26666W        W69682   0.333  30.516  19.448  0.3738 -0.3206  0.0582
26667W        W69683  32.885  25.455   4.438 -0.1275  0.3556  0.3392
26668W        W69684  19.875  21.045  12.969 -0.1545 -0.1489  0.0856
26669W        W69685   7.347  28.450  28.759  0.1557  0.2840 -0.1562
26670W        W69686   4.829  17.187  17.181  0.3419  0.1183 -0.3671
26671W        W69687  15.685  24.176  21.358 -0.1771 -0.1619 -0.0136
26672W        W69688   6.950   9.058  19.770 -0.0624  0.1695  0.1201
26673W        W69689  11.015   9.127  21.415 -0.0418  0.2294 -0.0181
26674W        W69690  23.876  10.978  19.200 -0.2324  0.3450  0.0073
26675W        W69691   2.419  31.531  22.717 -0.0731  0.2166 -0.1252
26676W        W69692  15.619   8.922  27.180 -0.0402  0.0022 -0.0625
26677W        W69693  17.261   8.079  22.188  0.1269  0.2884  0.2275
26678W        W69694  15.896   0.680  24.050 -0.1677 -0.1003  0.4177
26679W        W69695   0.010  28.189  15.621 -0.0144 -0.1249  0.0036
26680W        W69696  33.405  32.176  18.178  0.0425 -0.1874 -0.0797
26681W        W69697   5.490   4.313   7.819 -0.0425 -0.0079  0.0184
26682W        W69698   5.916  28.283  17.849  0.1065 -0.1675 -0.0785
26683W        W69699  26.348  31.748  22.613 -0.2264  0.0595 -0.0405
26684W        W69700   7.306  22.267  18.261 -0.0915  0.2750 -0.2500
26685W        W69701   3.231  22.998  18.338  0.2050 -0.2005 -0.0145
26686W        W69702  21.436   5.220  18.661  0.0316  0.0252  0.3089
26687W        W69703   1.209  14.858  24.834  0.1364 -0.0485 -0.1045
26688W        W69704   4.910  17.910  13.921  0.1425  0.0706  0.2733
26689W        W69705   6.076  12.952  24.990  0.1432 -0.2119 -0.0210
26690W        W69706  11.910  13.158  17.112  0.1946  0.2828 -0.0259
26691W        W69707   6.577  21.931  15.951 -0.0056  0.2800 -0.0647
26692W        W69708   5.795   9.906  22.330 -0.0232  0.0930  0.0961
26693W        W69709  13.279   0.970  25.156  0.2734 -0.1565 -0.0677
26694W        W69710   5.827  14.931  13.667  0.4585  0.0537  0.0085
26695W        W69711   8.566   2.540  23.574  0.1493  0.1312 -0.1173
26696W        W69712  14.852  11.624  21.231 -0.3675 -0.1459 -0.2233
26697W        W69713   4.977  26.893  18.078 -0.1144  0.1674  0.1089
26698W        W69714   6.256  16.320  13.924  0.3437 -0.3853  0.2738
26699W        W69715  31.020  19.650  19.239  0.0645 -0.1842  0.0595
26700W        W69716   2.705  15.414  16.602  0.3439  0.1703  0.1519
26701W        W69717  10.537  14.922  22.557  0.0239  0.2096  0.1183
26702W        W69718  28.085   1.837  20.818 -0.2243  0.0202 -0.1187
26703W        W69719   2.194  23.770  15.380  0.0446 -0.0816 -0.0840
26704W        W69720   2.400  12.115  14.404  0.0791  0.0632 -0.1764
26705W        W69721  21.557   8.011  20.840 -0.1769 -0.2237 -0.1880
26706W        W69722   8.248  15.092  23.260 -0.1044  0.1973 -0.2103
26707W        W69723   7.422  17.465  13.116  0.2313  0.1189 -0.0756
26708W        W69724  18.115   9.770  14.400 -0.2285  0.1773 -0.2782
26709W        W69725  19.181  30.684  20.413  0.0045 -0.0503 -0.1714
26710W        W69726   8.980  19.257  20.759 -0.0415 -0.1393 -0.1205
26711W        W69727  24.303  26.735  28.087  0.0964 -0.0544  0.1789
26712W        W69728   9.890   3.323  28.851  0.1552  0.2261 -0.1496
26713W        W69729   7.956   4.729  19.316  0.3800  0.1241  0.3783
26714W        W69730   6.639  17.572  25.754 -0.1596 -0.4286 -0.3496
26715W        W69731  24.016   1.840  14.695 -0.0143 -0.0608  0.3848
26716W        W69732  15.727   0.579  24.658  0.0391 -0.0683 -0.1799
26717W        W69733   6.283  28.056  13.999 -0.1054  0.0821  0.1078
26718W        W69734   2.021  10.453  23.288  0.1098 -0.0261 -0.1237
26719W        W69735  27.814  10.925  22.767  0.2218 -0.2662 -0.1244
26720W        W69736  14.571  19.582  22.117 -0.1103  0.0275 -0.3572
26721W        W69737  22.839   5.889  22.927  0.0540  0.1371  0.0329
26722W        W69738   2.228  32.737  17.216  0.0294  0.0629  0.0443
26723W        W69739   8.981  13.460   2.286 -0.3513 -0.0078  0.0713
26724W        W69740  18.024  11.146   3.067  0.0602  0.0128  0.0397
26725W        W69741  12.531  10.059  14.794  0.1474  0.0559 -0.0434
26726W        W69742   7.329  10.381   2.063  0.2402  0.3463 -0.0446
26727W        W69743  20.879  23.135  17.045  0.2975  0.1341 -0.1061
26728W        W69744  34.136  22.308  18.056 -0.3391 -0.1412 -0.0145
26729W        W69745  33.958  27.226  19.601  0.0860 -0.0424  0.0446
26730W        W69746  11.288   4.817  22.175  0.4348  0.0247  0.0399
26731W        W69747   9.732  31.988  23.587  0.2224  0.0048  0.1388
26732W        W69748   6.478   0.166  21.735 -0.3175 -0.2592  0.1436
26733W        W69749   6.849  18.065  21.057  0.3264 -0.0457 -0.0483
26734W        W69750  19.543   8.527   3.335  0.1423 -0.0810  0.3212
26735W        W69751   0.834  27.625  22.527 -0.0125 -0.2299  0.1712
26736W        W69752   4.955  24.403  14.189  0.2195  0.0973 -0.1582
26737W        W69753  34.724  17.010  25.311  0.0620 -0.0784 -0.1170
26738W        W69754  31.893  24.483  22.881 -0.1715  0.1032  0.0488
26739W        W69755   6.158  28.705  23.917 -0.1362  0.0175  0.1519
26740W        W69756   9.265  15.466  14.782  0.2250  0.1914  0.1924
26741W        W69757  32.538   7.908  19.772 -0.0339  0.1185 -0.0389
26742W        W69758   0.104   4.311  22.626 -0.1634  0.1704  0.2739
26743W        W69759  34.195  16.245  24.801 -0.0997 -0.1306  0.0339
26744W        W69760   3.584  25.748  19.335  0.1447 -0.1199  0.2371
26745W        W69761  33.940  34.030  21.661 -0.1857 -0.1342 -0.3471
26746W        W69762   8.213  25.394  20.397 -0.1020  0.1131 -0.2910
26747W        W69763   2.151   9.613  18.597  0.1751 -0.1462 -0.1889
26748W        W69764  11.348  13.961  27.943 -0.1333  0.1938 -0.2630
26749W        W69765  10.549  11.824  20.376  0.2829  0.2419  0.0112
26750W        W69766   3.507  13.862   0.496  0.1245 -0.3070  0.1796
26751W        W69767   2.475  29.352  18.506 -0.3269 -0.0593 -0.1954
26752W        W69768  10.043  24.423  23.119 -0.0435 -0.0631  0.0692
26753W        W69769  17.834  19.128  15.681  0.0209 -0.0689 -0.2346
26754W        W69770   6.646  12.737  14.133  0.0263 -0.1584 -0.3399
26755W        W69771   4.957  24.357  18.645 -0.0002 -0.2073  0.1395
26756W        W69772  11.821  10.730  23.116  0.0109  0.0686  0.1106
26757W        W69773   9.421  28.601  23.446  0.0730  0.1051  0.0051
26758W        W69774  12.046  28.224  17.694 -0.1613 -0.1098 -0.2940
26759W        W69775  16.171   5.853  21.309  0.2369  0.1477  0.1088
26760W        W69776  24.027  23.787  14.519 -0.1175 -0.1107 -0.2552
26761W        W69777   7.680  22.025  27.908 -0.0713 -0.2973 -0.1430
26762W        W69778  34.345   2.717  13.972  0.3181  0.0577 -0.1635
26763W        W69779  26.492   7.236  20.783  0.1076  0.3229 -0.3725
26764W        W69780   1.166  12.602  26.255  0.0252 -0.0338 -0.1663
26765W        W69781  13.201  34.432  26.333 -0.1063 -0.3980  0.0883
26766W        W69782   9.240  22.958  17.925  0.2637  0.1482  0.0744
26767W        W69783  29.804   6.475  18.068  0.2651 -0.0651 -0.3882
26768W        W69784  30.629  23.878  20.264  0.0937  0.1634  0.0103
26769W        W69785   6.379  29.972  16.399 -0.0790  0.0159  0.3311
26770W        W69786   4.984  11.855  19.882 -0.2991 -0.2366 -0.2190
26771W        W69787   9.706   8.425  16.183  0.1808 -0.0263  0.1460
26772W        W69788   2.021  24.053  24.528 -0.2735 -0.4649  0.0969
26773W        W69789   1.459  30.080  19.098  0.1258  0.1016 -0.0048
26774W        W69790  29.053  16.489  24.262 -0.2316  0.0097  0.0806
26775W        W69791  28.717  12.795  26.173  0.0782  0.0049  0.0784
26776W        W69792  22.828  23.833  16.520  0.0523  0.1723  0.2468
26777W        W69793   5.010  29.419  24.896 -0.0722 -0.0464  0.0467
26778W        W69794  30.678   3.135  15.431 -0.2731 -0.1680 -0.1515
26779W        W69795  31.635  22.989  20.236 -0.2500 -0.1170 -0.3099
26780W        W69796  31.977  22.526  15.299  0.0155  0.0811 -0.0186
26781W        W69797   3.536  22.040  27.338  0.1040  0.1120  0.2177
26782W        W69798   0.156  18.616  19.841  0.0638  0.0807 -0.0730
26783W        W69799  28.020  33.470   4.848  0.1775 -0.2286  0.1789
26784W        W69800   9.779  21.826  22.015 -0.2471  0.0949  0.2365
26785W        W69801  19.238  20.664  14.889  0.1992 -0.3741  0.0566
26786W        W69802   9.309  19.115  20.333  0.1208 -0.3874 -0.1503
26787W        W69803  27.088  14.621  15.723  0.0918 -0.2481  0.2667
26788W        W69804   3.306  24.178  17.622  0.1789 -0.0251 -0.2323
26789W        W69805  21.725  14.372  15.955 -0.0176  0.2178 -0.0204
26790W        W69806  15.801  26.082  17.801 -0.4351 -0.0694  0.0916
26791W        W69807  32.368  19.080  19.394  0.0621 -0.0748 -0.2280
26792W        W69808   0.569  24.017  26.736  0.1877 -0.0981  0.0242
26793W        W69809   2.784   6.315  19.505 -0.0382  0.2374  0.0463
26794W        W69810  16.068  14.654  22.800 -0.2492 -0.2989 -0.1225
26795W        W69811   0.472  16.995  25.163 -0.3441 -0.1375  0.2422
26796W        W69812   2.282   2.634  18.704  0.0656 -0.0140 -0.3856
26797W        W69813   8.712  10.271  13.864  0.0346  0.0737 -0.3019
26798W        W69814  12.170  34.717  25.527  0.1404  0.0744 -0.1367
26799W        W69815   1.782  13.614  18.770  0.0013 -0.0239  0.1514
26800W        W69816  18.232  11.395  21.193  0.0686  0.2166 -0.0887
26801W        W69817  25.842   2.782  25.059 -0.0121  0.2187 -0.0335
26802W        W69818   4.320  26.135   0.385 -0.1254  0.1870  0.0620
26803W        W69819  34.076  25.006  23.398 -0.2187  0.3238 -0.1597
26804W        W69820  29.389   8.279  19.962 -0.0928  0.0744 -0.2064
26805W        W69821  13.331  11.993   2.439  0.1223  0.2535  0.2446
26806W        W69822  10.947  30.723  19.401  0.0533  0.0864  0.1042
26807W        W69823   9.707  11.361  17.279 -0.1023 -0.0032  0.1689
26808W        W69824   1.058  23.337  16.080 -0.2208  0.3119  0.2061
26809W        W69825   1.538   1.767  21.183 -0.0054  0.2480  0.2789
26810W        W69826   7.716  33.855   5.473  0.1437 -0.3778 -0.0285
26811W        W69827   4.021   7.768   1.296 -0.0191  0.2129 -0.1076
26812W        W69828   2.026  17.632  15.074  0.1466  0.0413 -0.1019
26813W        W69829  34.330   7.675  16.835 -0.1105  0.0081 -0.1914
26814W        W69830  28.227  12.131  19.291 -0.1309  0.1415  0.1015
26815W        W69831   3.184  34.562  26.204 -0.0334 -0.2481 -0.0653
26816W        W69832  15.969  24.807  14.799  0.0948  0.1386 -0.1789
26817W        W69833  33.193  11.602  15.725  0.3527 -0.1628  0.3048
26818W        W69834   8.877   0.241  15.306  0.2471  0.1692  0.3079
26819W        W69835   3.803  13.029  18.106  0.1109  0.0988  0.2442
26820W        W69836  28.693  12.918  25.049 -0.0091 -0.1276  0.1347
26821W        W69837  13.156  25.992  20.719 -0.1300 -0.0614 -0.1309
26822W        W69838  29.435   7.174  23.872  0.2868  0.0087 -0.1810
26823W        W69839   9.721  28.039  23.473  0.1975 -0.2218 -0.0731
26824W        W69840  14.159   1.525  18.238 -0.1715 -0.0339  0.2458
26825W        W69841   9.173  23.958  19.397 -0.1643  0.3053 -0.0866
26826W        W69842  11.768   6.520  20.880  0.2208  0.0848 -0.0797
26827W        W69843  32.502   7.039  20.692 -0.1583 -0.0471 -0.1020
26828W        W69844   6.441  18.845  15.713  0.1945 -0.0303 -0.2045
26829W        W69845  28.576  18.985  22.403  0.0335  0.1080 -0.0503
26830W        W69846   4.307  34.379  16.348  0.0692 -0.0363 -0.0212
26831W        W69847  12.430   8.464  17.895 -0.0823  0.0172  0.5516
26832W        W69848   5.651  22.134  14.178  0.1007 -0.1147 -0.1824
26833W        W69849  10.226   0.973  23.370  0.1686 -0.2382 -0.0738
26834W        W69850   6.233   0.062  19.535  0.1289  0.1384 -0.0250
26835W        W69851  28.555  25.906  16.463  0.0287  0.2198  0.1857
26836W        W69852  20.847  22.506   5.634 -0.2064  0.2366 -0.0715
26837W        W69853  29.846   7.043  17.851  0.2109  0.2394  0.1304
26838W        W69854  13.855   8.356  27.583 -0.3577 -0.0397 -0.1590
26839W        W69855  32.761   2.150  15.447 -0.1641  0.4656 -0.0176
26840W        W69856  33.323  10.507  16.601  0.3731  0.1945 -0.1130
26841W        W69857  32.948   4.976  25.432 -0.0546 -0.4989 -0.1557
26842W        W69858  26.520  18.396  16.228  0.0519 -0.1824  0.1632
26843W        W69859   8.754  20.211  16.848  0.2828  0.0868  0.1382
26844W        W69860   0.964  26.996  25.136  0.1325  0.0266  0.0520
26845W        W69861   8.434  11.601  17.875 -0.1586 -0.0409  0.1277
26846W        W69862  28.783  28.687  24.708  0.0359 -0.1673 -0.0480
26847W        W69863  29.020  10.325  16.960  0.1041  0.0486 -0.0112
26848W        W69864  17.773  17.102  17.028  0.1648 -0.4392  0.0888
26849W        W69865  10.174   2.416  16.140 -0.2922  0.1809  0.1690
26850W        W69866   5.603   2.145  18.205 -0.0679  0.0611 -0.0220
26851W        W69867   5.178  22.371  15.965  0.2364  0.0280  0.1698
26852W        W69868   0.453  32.866   1.804 -0.3864  0.2582  0.1306
26853W        W69869  25.385  18.394  15.350 -0.0526 -0.0249  0.1499
26854W        W69870  13.514   0.679   8.685 -0.2802 -0.1151 -0.1780
26855W        W69871   5.006  16.969  22.127  0.2000 -0.3842  0.2263
26856W        W69872   4.446  25.312  24.047  0.2072 -0.1208  0.3552
26857W        W69873   2.603  28.393  19.226  0.1048 -0.2097  0.0608
26858W        W69874  28.329  10.370   0.542 -0.2542  0.0093 -0.0431
26859W        W69875   7.563  17.632  21.544  0.0503  0.0105 -0.3000
26860W        W69876  13.560   6.835  16.048 -0.0158 -0.1260 -0.0786
26861W        W69877   9.591  13.439  28.845  0.0443  0.1647 -0.0805
26862W        W69878  22.173  14.874   6.149  0.0973 -0.4167 -0.0547
26863W        W69879   6.027  21.768  16.957 -0.0553  0.0133  0.0454
26864W        W69880  30.976  22.448  25.549 -0.1860 -0.0670  0.0719
26865W        W69881   5.990  22.578  17.338  0.0677  0.2559 -0.0504
26866W        W69882  12.743  23.980  15.046  0.1486  0.0493 -0.1211
26867W        W69883   8.367  17.038  24.748 -0.1548 -0.0701  0.0430
26868W        W69884  31.205  22.332  20.644 -0.2605  0.2555 -0.3171
26869W        W69885  34.059  13.960  16.561  0.1640  0.1673 -0.1570
26870W        W69886   2.096  24.690  20.132 -0.0710  0.0807  0.1282
26871W        W69887  29.128  10.140  18.345  0.2217 -0.0273  0.0576
26872W        W69888  23.618   6.694  28.490 -0.0800 -0.0176  0.1578
26873W        W69889  27.189  13.047  27.308 -0.5105  0.1121  0.0883
26874W        W69890   3.336  31.701  22.086 -0.1365 -0.2313 -0.0721
26875W        W69891  32.288   6.193  19.484 -0.2278  0.0286  0.0330
26876W        W69892   3.765   7.667  14.413 -0.0904 -0.2276  0.0211
26877W        W69893  12.584  15.805  14.029 -0.2214  0.3176 -0.3174
26878W        W69894   3.295   9.434  15.876  0.0495  0.1624  0.2623
26879W        W69895   4.080  17.146  13.254 -0.0135 -0.0899 -0.0548
26880W        W69896   6.854  13.094  17.980  0.0069  0.0536  0.2804
26881W        W69897   7.367  30.426   6.374 -0.2445  0.0381 -0.1950
26882W        W69898   2.007  22.953  14.702 -0.4768  0.0763 -0.0233
26883W        W69899   6.967  17.385  21.186 -0.2928  0.0276  0.0691
26884W        W69900   2.510   7.430  23.961 -0.0158 -0.1457  0.3883
26885W        W69901  32.014   2.475  19.846 -0.1971  0.1674 -0.1022
26886W        W69902  28.675  25.214  20.848  0.1291  0.0717  0.1297
26887W        W69903  13.562  18.363  13.373  0.1136  0.1408  0.4078
26888W        W69904   0.827  32.208  18.659 -0.4194  0.1407  0.2927
26889W        W69905  19.918  23.873  15.162  0.0897  0.0029  0.3591
26890W        W69906  28.201  26.863  21.911 -0.0868 -0.1732  0.2439
26891W        W69907   2.028  16.424  19.585  0.1513  0.1133  0.1256
26892W        W69908   8.318  11.855  14.536 -0.0570  0.0014 -0.3854
26893W        W69909  18.270  11.063  18.304 -0.1092  0.0820 -0.0186
26894W        W69910  26.730  11.861  27.601  0.1176 -0.1868  0.0541
26895W        W69911  11.769  22.881  23.950  0.2727  0.1235 -0.2862
26896W        W69912  34.059   0.728   0.723  0.2644  0.1164  0.3367
26897W        W69913   2.806  17.864  17.500 -0.0995  0.0374 -0.1919
26898W        W69914  18.912  11.398  17.703 -0.3341  0.2130  0.0884
26899W        W69915  26.544  18.870   3.012  0.2672  0.0736  0.1887
26900W        W69916  21.629  18.473  27.946 -0.1871 -0.1640  0.0765
26901W        W69917   5.903  32.172  20.122  0.1755  0.1609 -0.0464
26902W        W69918   7.592  10.067  24.202 -0.2128  0.1718 -0.0100
26903W        W69919  18.784  18.781  15.816 -0.1729 -0.3225 -0.1332
26904W        W69920   4.088  25.071  24.566  0.0617 -0.1726 -0.1197
26905W        W69921   6.586  11.794  15.082 -0.0872  0.1537 -0.1262
26906W        W69922   0.809  10.956  26.047 -0.0856  0.1635  0.0329
26907W        W69923   2.812  10.419  21.538 -0.1267  0.0136  0.0904
26908W        W69924  18.900   6.750  24.162 -0.2979 -0.0738  0.2054
26909W        W69925  28.319  26.837  25.078  0.2268  0.0408  0.0599
26910W        W69926   7.411   3.665  20.586 -0.0091 -0.3098 -0.0054
26911W        W69927  14.241   2.147  27.633  0.0910  0.0686 -0.0880
26912W        W69928  32.837  28.272   3.062 -0.1576  0.0616  0.1846
26913W        W69929  25.121  13.790  17.269 -0.2095  0.0503 -0.0623
26914W        W69930  20.702  25.270  28.651 -0.1596  0.0401 -0.0948
26915W        W69931   2.527   1.774  26.557 -0.0646  0.4636 -0.2569
26916W        W69932  32.557  13.551   7.885 -0.3351 -0.0691  0.5083
26917W        W69933   5.698  14.117  18.385  0.2772 -0.2348 -0.1321
26918W        W69934  27.275  11.760  18.642 -0.1210  0.2055 -0.1494
26919W        W69935   6.292  17.365  20.084  0.2792  0.3468  0.1046
26920W        W69936   0.525   1.574  28.338  0.0678  0.1498 -0.0898
26921W        W69937  12.045  22.644  14.289  0.2046 -0.2719  0.0713
26922W        W69938   5.662  12.875   2.762 -0.0524 -0.1009 -0.3095
26923W        W69939  31.505  26.204  18.305 -0.1772 -0.1065 -0.3865
26924W        W69940  25.697   8.083   3.063 -0.1339 -0.0370 -0.1039
26925W        W69941  29.911  12.087   4.609  0.0799  0.1167  0.1248
26926W        W69942  21.648  11.202  20.520  0.0962 -0.1582 -0.1060
26927W        W69943  10.766  19.249  22.086  0.2265 -0.2094 -0.4344
26928W        W69944   2.606  23.617  22.388  0.2889 -0.0594  0.3551
26929W        W69945  34.431   6.536  20.060 -0.0732  0.2191  0.3269
26930W        W69946   9.999  16.776  28.695  0.0499  0.0360  0.2358
26931W        W69947  11.886  10.317  19.156  0.0636 -0.1353 -0.0642
26932W        W69948  27.938   7.280   1.616  0.1991 -0.0569  0.2136
26933W        W69949  34.260  20.501  18.112  0.1197 -0.1861  0.1701
26934W        W69950   7.132   4.738  18.814  0.0922 -0.0660 -0.0485
26935W        W69951  13.433  11.546  21.766 -0.0933 -0.1409  0.0055
26936W        W69952   5.978  19.187   1.537 -0.0081 -0.0978  0.2719
26937W        W69953   5.310  19.069  15.106 -0.0619  0.1425  0.1326
26938W        W69954   3.939  10.342  16.662 -0.0103 -0.3116  0.0965
26939W        W69955  27.654  21.789  20.961 -0.0861  0.2646 -0.1505
26940W        W69956  21.559  20.449  24.565  0.3358  0.1073  0.0812
26941W        W69957   2.949   5.407  23.871  0.0934 -0.0133  0.1288
26942W        W69958   3.683   6.170  26.845  0.0370 -0.1290  0.0193
26943W        W69959   2.556  10.788   2.917  0.2715 -0.0882 -0.0809
26944W        W69960  30.705   6.290  19.793  0.1272  0.0826  0.2245
26945W        W69961   5.039  11.011  23.162  0.1999  0.2600 -0.1738
26946W        W69962   3.441  21.483   1.004  0.1101  0.4803  0.3419
26947W        W69963  10.943  29.232  20.678 -0.3824  0.0203 -0.0036
26948W        W69964  14.460  14.469  28.788 -0.3639  0.2205  0.0004
26949W        W69965  10.581  17.187   2.004 -0.2036 -0.1092 -0.0420
26950W        W69966  13.281  21.182  26.204  0.2632  0.3293  0.3109
26951W        W69967   8.361  25.437  24.756 -0.1399 -0.0183  0.4690
26952W        W69968  28.225  13.973  22.203 -0.0032 -0.2439 -0.0172
26953W        W69969  19.357  22.882  22.956 -0.1250 -0.1189 -0.0480
26954W        W69970   8.396   6.193  25.815 -0.0786  0.3082 -0.0994
26955W        W69971  17.135  15.638  13.461  0.0441  0.1912  0.1573
26956W        W69972  20.408  14.531   4.494  0.1774  0.0717  0.0250
26957W        W69973  11.958  12.495  15.490 -0.3236  0.0605  0.0661
26958W        W69974   5.829  17.777  24.034 -0.2272 -0.2353  0.0702
26959W        W69975   3.124  30.127  26.709  0.2719 -0.2280 -0.1790
26960W        W69976   5.774  21.077  27.560 -0.0623 -0.0054  0.1204
26961W        W69977   3.082  18.502  28.460 -0.0121  0.0261 -0.2504
26962W        W69978   9.185  11.823  16.636 -0.0744 -0.5060  0.2732
26963W        W69979   2.643  31.250  19.628  0.0319  0.1774 -0.1134
26964W        W69980   4.377  12.964  25.909  0.0446  0.1668 -0.0278
26965W        W69981  16.044  23.270  28.873  0.0918  0.1439 -0.0308
26966W        W69982  30.056  26.408   8.488  0.0920  0.0921  0.1169
26967W        W69983   0.836  23.644   8.283 -0.0650  0.1107  0.2703
26968W        W69984  26.500  21.403  18.564  0.0309  0.4590 -0.1397
26969W        W69985   8.827  15.942  21.959  0.2467 -0.0002  0.0404
26970W        W69986  31.540   5.614  10.907 -0.1544  0.1208 -0.2725
26971W        W69987   0.302  10.877  16.999 -0.1868 -0.0972  0.0322
26972W        W69988  23.162  15.897  14.407 -0.0771 -0.4329 -0.0414
26973W        W69989   1.964  31.218  29.303  0.1672  0.2648  0.0758
26974W        W69990   0.267  26.814  25.089 -0.0578  0.3237 -0.0094
26975W        W69991  25.389  17.579  16.096 -0.0343  0.0284 -0.1121
26976W        W69992   6.369   4.437  16.901 -0.0863 -0.0946  0.2037
26977W        W69993  34.159   3.522  25.917  0.0332 -0.1845 -0.3659
26978W        W69994  12.639  20.059  25.200 -0.0260  0.1451  0.1278
26979W        W69995  29.818  10.017  27.908 -0.1530 -0.0222  0.3072
26980W        W69996   3.540   7.524   1.693  0.1878  0.1456  0.0158
26981W        W69997  15.271  23.975  16.939  0.0571 -0.0757  0.1340
26982W        W69998  19.666  21.410  19.117  0.0025 -0.1681 -0.0132
26983W        W69999  23.762   9.090  28.239  0.0444 -0.0284  0.0478
26984W        W70000  13.251  17.942  13.369 -0.0249 -0.1556 -0.0170
26985W        W70001   4.942   9.918  27.033 -0.0368 -0.2164  0.0119
26986W        W70002  27.067  32.000  17.175  0.0200 -0.1671  0.0983
26987W        W70003   2.921  15.584  19.033 -0.1627  0.4339  0.1540
26988W        W70004  14.122  18.030  24.915 -0.0876 -0.1427 -0.1779
26989W        W70005  30.256  17.699   8.338  0.0943  0.2767  0.1991
26990W        W70006   7.484  22.486  25.459 -0.3587  0.3280  0.2595
26991W        W70007   4.153  33.021   4.608  0.1632 -0.0186  0.3136
26992W        W70008  32.722  30.747  19.328 -0.1472 -0.1126 -0.2500
26993W        W70009  13.654  23.212  24.231 -0.0219 -0.4631 -0.5350
26994W        W70010   9.831  12.310   7.524  0.0267  0.2256 -0.2717
26995W        W70011   0.711  28.560   5.377  0.0393  0.1178  0.2812
26996W        W70012   3.755  13.941   1.392 -0.4426  0.3322  0.1863
26997W        W70013   1.964  32.531  14.528 -0.1789  0.0832  0.0683
26998W        W70014   8.977  28.645  14.526 -0.1154  0.2646  0.1360
26999W        W70015  12.902  25.162  15.265 -0.0088 -0.0184  0.0371
27000W        W70016  30.060  17.330  28.264  0.1068 -0.1002 -0.1751
27001W        W70017  10.620  15.389  25.566 -0.1585  0.2970  0.0323
27002W        W70018  29.697  14.372  24.734 -0.4677 -0.1834  0.1284
27003W        W70019   4.108  15.475  21.502  0.0210  0.0913  0.3549
27004W        W70020  12.061  31.071   0.570  0.2327  0.1391  0.0156
27005W        W70021   4.667  18.257  20.176  0.0950 -0.0488 -0.3309
27006W        W70022   1.682  21.123  21.716  0.1984  0.4628  0.0842
27007W        W70023  26.577  24.462  18.061 -0.0757  0.0679 -0.0536
27008W        W70024   4.512  10.407  18.252 -0.1381  0.1937 -0.3772
27009W        W70025  29.619  17.566  29.292  0.2239  0.0179 -0.0204
27010W        W70026   3.551  13.755  16.922 -0.4252  0.0555 -0.1698
27011W        W70027   9.287  11.994  27.504 -0.0880  0.0576 -0.2614
27012W        W70028  33.338  21.267  16.794  0.3142  0.0724 -0.0576
27013W        W70029  21.814  11.622  19.475 -0.0200  0.0172 -0.0618
27014W        W70030   9.466  23.940   6.060 -0.1402  0.0190  0.1115
27015W        W70031   4.424  17.672   1.224 -0.0843 -0.0203 -0.2605
27016W        W70032   5.780  17.168  15.601 -0.0707  0.2247 -0.0103
27017W        W70033  14.794  13.734  22.491 -0.0821  0.0811  0.2171
27018W        W70034  32.056  28.773  25.209 -0.0454 -0.3013 -0.0322
27019W        W70035  32.438  19.896  22.575  0.1503 -0.2084  0.2090
27020W        W70036   3.491  16.811  27.651  0.3671 -0.0420 -0.2393
27021W        W70037   2.837  19.461  14.991  0.3343 -0.1516  0.1507
27022W        W70038  17.908  12.819  15.076 -0.0489  0.0331  0.2463
27023W        W70039   2.912  12.078  18.992  0.3623 -0.1788  0.0302
27024W        W70040   7.108   6.253  19.542  0.0867 -0.3082 -0.2143
27025W        W70041   8.639   7.896  24.774 -0.1458 -0.0754 -0.1731
27026W        W70042   3.096  26.103  15.406 -0.0902 -0.1715 -0.2015
27027W        W70043  32.043  13.960  20.294 -0.0251 -0.2714 -0.0426
27028W        W70044  12.250  17.259  13.888  0.2427  0.1606 -0.1048
27029W        W70045   9.952  26.510  23.379  0.0773  0.0672 -0.2210
27030W        W70046   9.659  12.658  16.911 -0.2373  0.2243 -0.1826
27031W        W70047  28.954  20.755   1.147  0.4649 -0.0162 -0.0239
27032W        W70048  26.084  14.112  28.401 -0.2929  0.1123 -0.1159
27033W        W70049  14.788  19.971  15.324  0.1798 -0.1205 -0.0395
27034W        W70050  28.591  17.382  15.074  0.0464  0.0090 -0.3443
27035W        W70051  34.645   1.888  29.158  0.0203 -0.1527  0.0498
27036W        W70052   7.251  27.374  23.421 -0.0757  0.2360  0.0019
27037W        W70053  18.405  34.509   1.845  0.0304  0.0958 -0.0170
27038W        W70054   4.127  29.940   0.555  0.0842  0.2174 -0.0136
27039W        W70055   0.934  15.062  14.715  0.0574  0.2003  0.1010
27040W        W70056   2.679  13.551  26.521  0.0136  0.1149 -0.1069
27041W        W70057   3.995  12.647  25.056 -0.0711 -0.0829  0.1785
27042W        W70058  26.558  17.694  17.544 -0.0365  0.2956  0.0326
27043W        W70059   5.322  18.165   4.129 -0.1494  0.0478  0.0074
27044W        W70060   4.570  21.938  19.220 -0.2052  0.0174 -0.1542
27045W        W70061  12.234  11.902  20.684 -0.0426 -0.3936 -0.1847
27046W        W70062   9.894   9.902  14.757  0.1233  0.0202  0.0668
27047W        W70063  19.147  13.468  22.700 -0.1822  0.0815 -0.0383
27048W        W70064   3.484  18.415  21.457  0.0287  0.0479 -0.4429
27049W        W70065   3.990  15.498  22.450  0.1942  0.0333  0.2975
27050W        W70066   8.264  18.314  21.304 -0.3180  0.1742 -0.1974
27051W        W70067  32.702  21.964   4.726 -0.0676  0.3028  0.2911
27052W        W70068  20.259   6.902   3.805 -0.2354  0.0254 -0.0323
27053W        W70069  28.937  28.327  19.982  0.0225  0.0171  0.2324
27054W        W70070   0.208  21.936  19.745  0.3149 -0.1721 -0.2831
27055W        W70071   6.116  15.376  14.190 -0.1356 -0.1035 -0.2338
27056W        W70072  21.564  33.080  29.087  0.0108  0.0382  0.2248
27057W        W70073  27.677  26.102  16.603 -0.1092 -0.4293 -0.1415
27058W        W70074  19.161   8.441  24.974 -0.2114  0.0717  0.3273
27059W        W70075   4.177  13.586  20.989 -0.2152  0.1326  0.0497
27060W        W70076  17.446   9.192   7.476 -0.0283  0.0825  0.0254
27061W        W70077  32.908  16.227  25.348 -0.0599  0.4204  0.0922
27062W        W70078  27.357  30.017  18.672  0.2256  0.0702 -0.0566
27063W        W70079  12.510  16.655  12.841  0.5954 -0.0984  0.0958
27064W        W70080  34.600  19.263  18.725 -0.0831 -0.3533  0.0701
27065W        W70081   4.182  21.481  16.804  0.0501  0.1165  0.0169
27066W        W70082  11.956  19.215  22.956  0.2734  0.1439 -0.1803
27067W        W70083   7.855  27.144  22.490  0.0184  0.2505 -0.0786
27068W        W70084   8.355   7.732   0.405 -0.3452 -0.0575 -0.2532
27069W        W70085   5.673   8.337  25.689 -0.2266  0.2924 -0.0983
27070W        W70086  33.046   0.722  14.247 -0.0395  0.1258 -0.1182
27071W        W70087  28.453  13.649  26.284  0.0717 -0.0669 -0.1416
27072W        W70088   5.224  13.886  21.327 -0.2824  0.2173  0.2235
27073W        W70089   8.074   7.364   4.875  0.1771 -0.1706 -0.2262
27074W        W70090  33.871  18.785   3.004  0.2691  0.0724  0.0485
27075W        W70091  11.111  21.617  14.507 -0.1334 -0.1740 -0.1215
27076W        W70092   4.788   8.428  20.697  0.0900  0.3533 -0.2904
27077W        W70093  15.831  18.863  11.813  0.2591 -0.1111 -0.1387
27078W        W70094   8.153  14.605  26.816  0.1266 -0.1578 -0.2482
27079W        W70095   3.466  23.248  22.029  0.0062 -0.1651 -0.2731
27080W        W70096  22.253   1.725   0.054  0.2835 -0.1524 -0.0470
27081W        W70097   5.209  13.132  16.627  0.0062  0.1892  0.0969
27082W        W70098  31.061  17.919  21.184  0.1525 -0.1942 -0.1313
27083W        W70099   0.601  14.302  22.396 -0.0843 -0.4682 -0.0700
27084W        W70100   8.918  29.108  17.501  0.0945  0.1746  0.0808
27085W        W70101   1.068  21.097  22.801  0.0712 -0.0145 -0.0372
27086W        W70102  31.433  15.923  20.478 -0.0821  0.1214 -0.1159
27087W        W70103  32.692  30.488   4.785 -0.0468 -0.0077  0.0209
27088W        W70104   9.390  21.556  21.811 -0.0961 -0.3593 -0.1072
27089W        W70105  18.547  19.846   2.475 -0.0426 -0.1712  0.2590
27090W        W70106   6.364  12.952  28.032  0.2226 -0.0886  0.2267
27091W        W70107   1.650  17.714  14.585 -0.1111 -0.0404 -0.2296
27092W        W70108  25.457  17.885  23.559  0.2771  0.0689  0.2706
27093W        W70109   6.029  15.288  13.436 -0.0728 -0.1024 -0.3716
27094W        W70110  20.853  21.233  22.960  0.0798 -0.3451  0.0947
27095W        W70111   3.056  13.167  20.275  0.2998 -0.3153  0.1302
27096W        W70112   3.329  24.798  17.568  0.2362  0.1088  0.0464
27097W        W70113   0.876  10.909  17.247  0.0876 -0.1994 -0.2056
27098W        W70114   0.141  20.946  15.828  0.2498  0.0004  0.0120
27099W        W70115  26.522  15.985  13.136  0.1978  0.1017 -0.1018
27100W        W70116  34.000  21.318  15.144  0.0373  0.2067  0.2560
27101W        W70117   4.596   9.346  26.869  0.4129  0.0916  0.1779
27102W        W70118   9.511  21.123  23.318 -0.0247  0.1018  0.0393
27103W        W70119  28.032  15.123  20.196 -0.0931  0.2299 -0.0524
27104W        W70120  30.664   2.720   3.273 -0.1242 -0.2736  0.0771
27105W        W70121   7.487  31.795  15.629 -0.2175  0.1268 -0.0775
27106W        W70122  26.301  18.133  18.840  0.1027 -0.3485  0.3302
27107W        W70123  30.247  10.595   7.307 -0.3315 -0.1318  0.3668
27108W        W70124   7.978  29.009  22.074 -0.1980  0.0636  0.0777
27109W        W70125  23.597   7.727  27.213  0.0957  0.0837 -0.0996
27110W        W70126  10.636  16.408  17.760  0.2654  0.0129  0.0171
27111W        W70127   5.353  14.823   8.853  0.3274 -0.0442 -0.1738
27112W        W70128  14.334  11.209  27.250  0.3689 -0.1797  0.2131
27113W        W70129  30.510  23.508  29.190  0.0553  0.0460  0.4684
27114W        W70130  11.363  17.002  16.483  0.1701  0.0207  0.1992
27115W        W70131  29.925  15.663  25.465 -0.2687 -0.4084  0.0900
27116W        W70132  19.138  34.153  26.092  0.0886  0.3139  0.1937
27117W        W70133  12.516  14.463  15.907  0.0164  0.1593  0.3297
27118W        W70134  31.076   3.269  21.065  0.0612 -0.0375  0.2760
27119W        W70135   1.744  16.037  21.267 -0.0155  0.1640 -0.0324
27120W        W70136  16.754   8.919  23.555 -0.1547  0.2179 -0.4023
27121W        W70137   8.756  24.906   3.308 -0.0032  0.0781  0.0123
27122W        W70138   1.930  22.781  24.478 -0.1733  0.0391 -0.4062
27123W        W70139  11.955  28.797  22.186  0.1577  0.4131 -0.1082
27124W        W70140   2.384  18.539  28.302  0.1286 -0.0447  0.0885
27125W        W70141  18.178   0.967  23.302 -0.1751 -0.0569 -0.2638
27126W        W70142  13.974  15.955  15.968 -0.0918 -0.1222  0.3957
27127W        W70143  12.903   6.885  13.566 -0.0708  0.0512 -0.1248
27128W        W70144  33.176  15.503  22.099  0.2489  0.2677  0.3229
27129W        W70145  29.759  23.946  20.243 -0.2150  0.1814 -0.1618
27130W        W70146  26.203   5.682  29.000 -0.2613  0.4083 -0.3628
27131W        W70147  11.619  10.492  14.702  0.0938 -0.2340 -0.0717
27132W        W70148  24.772  18.427  26.977  0.2028 -0.4834  0.0220
27133W        W70149  13.140   7.680  14.951 -0.1888 -0.2335 -0.2193
27134W        W70150   4.376  17.424  16.092  0.2083 -0.0184 -0.0333
27135W        W70151  18.901  31.500  19.763  0.3913 -0.0119 -0.2231
27136W        W70152  31.325  15.243  23.499  0.1757 -0.2591  0.0092
27137W        W70153  12.888  15.039  16.457  0.0869 -0.3488 -0.4123
27138W        W70154   3.396  17.361  15.129 -0.0334 -0.2507  0.2093
27139W        W70155  24.731  16.723  22.353  0.1567 -0.1107 -0.0982
27140W        W70156  15.505  34.389  23.851 -0.1618  0.1254  0.0201
27141W        W70157   5.078  13.426  27.302 -0.1838  0.0936 -0.3594
27142W        W70158  33.219  26.558  17.436  0.0157 -0.3397 -0.3921
27143W        W70159  20.459   7.273  21.875 -0.0719  0.6132  0.1423
27144W        W70160  11.381   9.372   4.057  0.2875  0.0183  0.1963
27145W        W70161  31.693  18.502   0.218 -0.5028  0.1765 -0.1066
27146W        W70162  34.399   0.220  24.859 -0.1322  0.1183 -0.1330
27147W        W70163  14.863   7.210  23.400 -0.3318 -0.0132  0.2521
27148W        W70164   5.560  22.663  14.267 -0.0535 -0.0845  0.3163
27149W        W70165  21.622  25.398  16.694  0.2734  0.2253 -0.0387
27150W        W70166  30.729   6.741  23.962 -0.3971  0.2459  0.0187
27151W        W70167  15.987   3.290  25.929 -0.1871  0.0875 -0.0228
27152W        W70168  12.420  26.926   6.650 -0.0476 -0.1710 -0.3948
27153W        W70169  14.010   0.095  18.553  0.1350 -0.0233 -0.1007
27154W        W70170  23.678  15.096  25.901  0.2654  0.0841  0.0304
27155W        W70171  18.184   0.258  16.946 -0.2633 -0.1017 -0.0960
27156W        W70172   7.994   7.324  17.461 -0.5076  0.0839  0.0571
27157W        W70173   0.983  19.339  20.824 -0.2179  0.2129  0.0661
27158W        W70174  22.434  28.866  20.436  0.2861 -0.1922 -0.0712
27159W        W70175  26.622  16.205  20.459  0.1533  0.2096  0.4227
27160W        W70176  31.403  26.371  17.477  0.1815 -0.4511  0.3370
27161W        W70177   3.361  21.124  19.334  0.1972  0.2135  0.1195
27162W        W70178  18.614  23.514  28.597  0.2530  0.1560 -0.2187
27163W        W70179   4.980  11.067  18.384 -0.2251  0.0234  0.0350
27164W        W70180  11.993  29.258  26.014  0.1357  0.0667  0.0757
27165W        W70181  19.381   1.038  14.901  0.1077 -0.1207  0.1420
27166W        W70182   7.262  25.915  23.744 -0.2534  0.2378 -0.0226
27167W        W70183  28.785   6.394  24.425  0.0350  0.1081 -0.0188
27168W        W70184  28.257  25.383  17.723  0.0457  0.0216 -0.0167
27169W        W70185  10.370  18.653  11.762 -0.2604  0.0359 -0.0784
27170W        W70186   2.306   9.911  15.847  0.3185  0.1144 -0.2666
27171W        W70187  15.650  22.775  20.689  0.0156 -0.1185  0.0515
27172W        W70188  16.086  13.907  15.561  0.2118 -0.0812 -0.0560
27173W        W70189  24.829  28.700  23.263 -0.2050 -0.1252 -0.0532
27174W        W70190  32.165  19.952  17.922  0.0791  0.1403 -0.3935
27175W        W70191   6.593  28.103  16.467  0.2751 -0.0189 -0.0553
27176W        W70192  23.899  29.257  20.161 -0.1037 -0.3988  0.3330
27177W        W70193  14.933  28.161  25.022  0.0069  0.2070  0.1365
27178W        W70194   5.182  22.353  23.663 -0.0858 -0.3486  0.2302
27179W        W70195  25.214   2.088  28.658 -0.0241  0.0085 -0.2018
27180W        W70196   1.889  22.847  15.226  0.0204  0.1459  0.0280
27181W        W70197  26.465   5.295  23.603 -0.0131 -0.0826  0.0216
27182W        W70198  33.869   8.038   1.732 -0.0290  0.0876 -0.0703
27183W        W70199  11.982  12.046  25.504  0.1407 -0.1097  0.0285
27184W        W70200   6.055  20.349  25.264  0.1963  0.2543  0.1948
27185W        W70201   6.115  16.528  17.015  0.1211 -0.1572 -0.1651
27186W        W70202   8.049  17.587   3.975 -0.1826  0.0536 -0.1480
27187W        W70203  16.919  17.596  22.216 -0.1305  0.1843  0.1337
27188W        W70204  27.218  24.241  26.261  0.0788  0.2086 -0.3499
27189W        W70205  33.359  28.054  16.290 -0.3434  0.0216  0.0537
27190W        W70206  33.974  15.267  25.828 -0.1782 -0.0973 -0.0785
27191W        W70207  10.661  33.439  25.193 -0.2401 -0.1074  0.0783
27192W        W70208  28.434  16.902  14.881  0.0915  0.0901 -0.3435
27193W        W70209   3.928  12.408  27.042  0.1386  0.1968 -0.0124
27194W        W70210   4.869  34.699  21.153  0.0028  0.1659 -0.0106
27195W        W70211   3.844  20.400  21.450  0.0061 -0.1722  0.1635
27196W        W70212   3.353   8.611  22.218 -0.2885 -0.1127  0.1134
27197W        W70213   4.365  30.758  18.190 -0.0354 -0.0132 -0.0862
27198W        W70214   8.854   0.152  18.732 -0.0866  0.0034  0.2191
27199W        W70215   2.507  22.788  28.799 -0.1392 -0.2443  0.1339
27200W        W70216   8.402  20.933  22.784  0.1013  0.1809  0.0002
27201W        W70217   3.776  30.937  26.823 -0.0919  0.1889  0.1188
27202W        W70218   8.315  17.128  19.323  0.0003 -0.2769 -0.2636
27203W        W70219  31.148   6.860  14.952  0.0252  0.1400  0.1639
27204W        W70220  30.245  13.559  15.957  0.1723 -0.3006 -0.0354
27205W        W70221  34.334  34.041  29.108  0.1042  0.1440  0.1537
27206W        W70222   0.656  20.011  18.367 -0.1287 -0.0614  0.2018
27207W        W70223  18.334   5.441  27.504 -0.1088 -0.2378 -0.1171
27208W        W70224   6.696   2.198  16.365  0.5827  0.2490 -0.2206
27209W        W70225  31.662   2.211  20.831 -0.0128 -0.2513  0.0315
27210W        W70226  18.610  11.232  15.366 -0.1070 -0.2345  0.0242
27211W        W70227  10.796   9.083  19.840  0.0405 -0.0807  0.1249
27212W        W70228   4.694  19.630   5.474 -0.0585  0.2445 -0.0769
27213W        W70229  22.540  22.984  16.900  0.0063 -0.1582 -0.1431
27214W        W70230   1.776  34.009  16.743 -0.1448  0.1274  0.2719
27215W        W70231  11.418  15.079  17.167  0.0003  0.0538 -0.2836
27216W        W70232   1.226  24.139   5.227 -0.1562 -0.0412  0.0387
27217W        W70233   0.831  11.642  19.564 -0.3837 -0.1881  0.0573
27218W        W70234   0.838  15.501  16.302 -0.0876  0.1374  0.4316
27219W        W70235  12.881  21.660   0.286  0.2364 -0.0996 -0.0903
27220W        W70236  10.663   7.014  26.667 -0.1580 -0.1123  0.0837
27221W        W70237   9.240  25.100  22.696  0.2036  0.3369 -0.0991
27222W        W70238  34.562  12.703  23.157 -0.0312  0.1014  0.0687
27223W        W70239  30.633  34.675  10.419 -0.0061 -0.0606  0.1295
27224W        W70240   5.775  24.317  22.015  0.2179 -0.1168 -0.5140
27225W        W70241  11.239   7.892   5.830 -0.1148 -0.1831  0.2992
27226W        W70242   3.381  16.871  18.381  0.1276 -0.2807 -0.2172
27227W        W70243  31.052  22.830  27.530  0.0726 -0.1522  0.2715
27228W        W70244  17.097  33.360  15.280  0.1551 -0.3250  0.1476
27229W        W70245   1.744  23.255   9.485  0.2025  0.2566 -0.1361
27230W        W70246   6.623   7.468  16.907 -0.4419 -0.0127  0.2293
27231W        W70247   6.798  13.420  12.908 -0.0250  0.0754  0.0757
27232W        W70248  27.374  23.851  18.313  0.1892  0.1050  0.0721
27233W        W70249   2.723  13.693  24.674  0.1597  0.1090 -0.2155
27234W        W70250  31.539   9.396   8.243 -0.0512  0.2857 -0.0264
27235W        W70251   1.606  22.410  18.820 -0.0628  0.1908  0.0153
27236W        W70252  34.537  24.975   2.907 -0.1053  0.1139  0.0714
27237W        W70253  32.226  12.898  28.581 -0.1808  0.2297 -0.0349
27238W        W70254   5.407  32.624  26.672 -0.0399  0.1567  0.0356
27239W        W70255  33.331  20.751  25.909  0.0425  0.3196 -0.3744
27240W        W70256   8.179   2.435  22.153 -0.0321  0.1359  0.0444
27241W        W70257  13.299   8.261  15.842 -0.2160  0.3505  0.0716
27242W        W70258   8.241  15.003  20.017  0.2462  0.2723  0.2706
27243W        W70259   4.941  27.713  13.955 -0.1901  0.0076  0.2491
27244W        W70260  18.310  32.426  25.750 -0.1198  0.3482  0.0802
27245W        W70261   8.673  25.040  23.398 -0.0200 -0.0146  0.0538
27246W        W70262  33.047  21.258   8.881 -0.1634  0.3436 -0.0930
27247W        W70263  25.623   9.675  18.440 -0.1133  0.1939  0.2269
27248W        W70264  17.711  22.539  28.527 -0.2692 -0.0446 -0.2953
27249W        W70265   6.908   4.236  26.763  0.2324 -0.3883 -0.1468
27250W        W70266   5.550  14.662  15.172 -0.0745  0.0060 -0.0745
27251W        W70267   4.805  31.733   4.674  0.2662 -0.4654 -0.2221
27252W        W70268  32.353  12.694  27.164 -0.1620  0.0529  0.1702
27253W        W70269  33.183  18.279  27.994 -0.1609  0.0267  0.0370
27254W        W70270   2.205   2.198  19.652 -0.2457 -0.1448  0.1272
27255W        W70271  24.204  13.370  17.561 -0.0867 -0.3789 -0.0986
27256W        W70272  33.972   0.910  15.025  0.2996  0.3360 -0.1068
27257W        W70273  10.257  21.391  15.903  0.1113 -0.0933 -0.0078
27258W        W70274   0.653  19.040  16.989 -0.2186 -0.0777 -0.0511
27259W        W70275  21.798  31.795  25.569 -0.3094  0.3260 -0.1153
27260W        W70276  33.408  25.030  23.461 -0.2393  0.1131  0.0614
27261W        W70277  31.018   2.638  17.035  0.1136 -0.0705 -0.1116
27262W        W70278   9.646  19.878  16.080 -0.1291  0.1997 -0.2671
27263W        W70279   9.136   5.087  21.533  0.3874 -0.0817 -0.1268
27264W        W70280   9.980  28.742  23.788 -0.0697  0.1128 -0.2333
27265W        W70281  33.821  17.546  17.181  0.1468  0.1205  0.3601
27266W        W70282   4.444   8.303  23.400  0.0298 -0.3630 -0.2211
27267W        W70283   7.873   2.867  14.903 -0.0126 -0.0732 -0.1254
27268W        W70284   7.469   8.312  16.034  0.1954  0.2124 -0.0883
27269W        W70285  29.500  14.640  17.120  0.2976  0.1203  0.1066
27270W        W70286  12.618  19.755  17.939  0.2800  0.3812 -0.0679
27271W        W70287  25.948  29.187  22.248 -0.1568  0.1573 -0.1088
27272W        W70288   0.839  25.979  19.470  0.0368 -0.1064 -0.1764
27273W        W70289  32.316  10.242  15.368 -0.1158 -0.0858 -0.2224
27274W        W70290   3.531  28.294  17.073  0.1325 -0.1228 -0.0111
27275W        W70291  11.318  17.238  24.489  0.3378 -0.3895  0.2223
27276W        W70292   2.059   4.333   6.422 -0.0001 -0.3839 -0.1114
27277W        W70293   1.677  27.542  25.237 -0.2535 -0.1383 -0.2658
27278W        W70294   2.369  21.633  15.263  0.1459 -0.2133 -0.1256
27279W        W70295  11.035  11.011  19.815  0.0255  0.1488  0.1685
27280W        W70296  25.101   3.467  27.307 -0.0732  0.1871 -0.0461
27281W        W70297   3.161  22.355  21.829  0.0314  0.0993  0.2145
27282W        W70298  15.264  21.439  15.329  0.1170 -0.3109  0.0328
27283W        W70299  12.720  11.064   0.143 -0.0137  0.0498 -0.0911
27284W        W70300   9.870  31.073   4.869 -0.2706  0.0086 -0.1194
27285W        W70301  18.229   5.254  16.600 -0.1726  0.1233 -0.1319
27286W        W70302   9.466  17.000   5.274  0.2067  0.1043 -0.0156
27287W        W70303   6.217  19.841  23.433  0.0872  0.0619 -0.0562
27288W        W70304   1.648   7.133  19.702 -0.1375 -0.1440 -0.1202
27289W        W70305  29.953   7.852  24.231 -0.1066 -0.1040 -0.0688
27290W        W70306  23.882  32.996   0.912  0.0396  0.2453 -0.1006
27291W        W70307  10.860   9.610  19.880  0.0071  0.1581  0.5242
27292W        W70308   1.456  18.162   3.067 -0.0576  0.4533  0.0835
27293W        W70309  33.435   8.331  20.012 -0.0650 -0.5205 -0.1010
27294W        W70310  10.231  16.455  25.806 -0.0600  0.1330  0.1992
27295W        W70311  11.093  30.870   0.242 -0.1499  0.0114 -0.0125
27296W        W70312   1.406  29.676  16.262 -0.0531 -0.0123 -0.0796
27297W        W70313  34.162   5.131   9.326  0.0547  0.0717  0.2773
27298W        W70314  14.542  10.771  18.052  0.1768 -0.0903  0.0372
27299W        W70315   2.777  33.377  29.182 -0.0406  0.2275 -0.0895
27300W        W70316   8.707  15.898  24.106 -0.2329 -0.0184  0.1893
27301W        W70317  15.872  12.676  28.796  0.1277  0.0561  0.0682
27302W        W70318   9.880  21.669   2.037  0.1528  0.0405  0.0830
27303W        W70319  11.841  14.916   4.943  0.3735 -0.3066  0.0703
27304W        W70320  22.674  23.756   3.300 -0.3095 -0.1524 -0.1580
27305W        W70321   3.321   9.258   2.016  0.2028  0.1732  0.4812
27306W        W70322  21.383  24.842  24.383 -0.1068  0.1401 -0.6167
27307W        W70323  12.943  20.352   5.286  0.1939  0.0245  0.1757
27308W        W70324   1.214  15.763  24.008  0.2125  0.1594 -0.1952
27309W        W70325  13.195  10.093  19.937  0.3558 -0.2241  0.0434
27310W        W70326  25.975   0.907   5.443  0.2517 -0.1796 -0.0452
27311W        W70327  21.748  10.169  22.588 -0.3146  0.3125 -0.1053
27312W        W70328  34.453  26.703  15.992 -0.3392  0.0094 -0.4773
27313W        W70329   4.265  28.511   0.408  0.0294 -0.1118  0.0180
27314W        W70330  11.104  19.328  28.071 -0.3522  0.1432  0.0919
27315W        W70331   1.287  27.895   5.982 -0.3877  0.0128 -0.2469
27316W        W70332  29.820  32.599  27.711  0.3179 -0.0535  0.0095
27317W        W70333  11.706  14.047  14.814 -0.0628  0.0780 -0.4124
27318W        W70334  31.050  21.285  25.290  0.3474  0.0581 -0.1232
27319W        W70335  13.315  11.717  18.774  0.1310 -0.0807  0.1640
27320W        W70336  10.929   4.405  17.763 -0.0943 -0.2696  0.2873
27321W        W70337  16.849  11.062  15.964 -0.1038  0.3097  0.1142
27322W        W70338  19.166  20.543   7.022  0.0153  0.2171  0.3188
27323W        W70339  21.061  14.135  27.255 -0.1484 -0.2004  0.1617
27324W        W70340  29.282  20.033   9.924  0.0512  0.0046 -0.0137
27325W        W70341  14.233  12.303  24.457  0.0085  0.2796  0.0233
27326W        W70342   8.188  12.024  16.619  0.0455 -0.3780 -0.2221
27327W        W70343   8.675  25.384  13.043 -0.0221 -0.2023  0.0980
27328W        W70344   5.219  23.451  28.131 -0.3302  0.0580  0.0402
27329W        W70345   7.804  31.683  21.204  0.1046  0.0643  0.1042
27330W        W70346  12.029  12.158  23.966  0.0113 -0.4131 -0.1869
27331W        W70347   7.262  15.474   3.636  0.0315  0.0931 -0.3417
27332W        W70348   7.439  21.778  20.337 -0.3396  0.0715  0.2756
27333W        W70349   3.873  30.717   5.656 -0.0966 -0.0487  0.1604
27334W        W70350  34.521  20.589   5.329 -0.1035  0.1923  0.0818
27335W        W70351   7.834  24.214  26.134 -0.1235  0.2825  0.2589
27336W        W70352   5.344  14.049   6.187  0.0918 -0.2555  0.0187
27337W        W70353   2.297   0.353  17.190  0.2789  0.2396 -0.0385
27338W        W70354   6.120  21.651  17.495 -0.0484 -0.0422 -0.2664
27339W        W70355   7.451   1.428   1.768 -0.3603  0.0057  0.3438
27340W        W70356  26.171  21.285  27.328 -0.0644 -0.1747  0.0068
27341W        W70357  10.841  10.041  25.514  0.0278 -0.3021 -0.0112
27342W        W70358  21.821  23.428   0.155 -0.0035 -0.0285 -0.1804
27343W        W70359  23.518  28.845  15.471 -0.0705  0.2644  0.1235
27344W        W70360   3.662   9.303  18.548  0.3166  0.2124  0.0587
27345W        W70361   0.218  16.737  24.119  0.0521 -0.3645 -0.1873
27346W        W70362  11.989  18.321   2.057 -0.0927  0.7379  0.0462
27347W        W70363  18.950  28.662  23.037 -0.0121 -0.1559 -0.1202
27348W        W70364  16.064  20.115  11.902  0.1070  0.0199  0.1020
27349W        W70365  10.968  20.302  16.367  0.4113  0.0951 -0.0450
27350W        W70366   4.341  16.811  27.535 -0.0196  0.1230 -0.0720
27351W        W70367   7.585  24.003  16.874 -0.0623  0.0231  0.0860
27352W        W70368  20.425  15.612  20.978  0.4155 -0.0565  0.0836
27353W        W70369   0.300  14.244   7.880  0.1760 -0.0127 -0.2518
27354W        W70370  31.799  16.120   1.371  0.1168  0.0533  0.1669
27355W        W70371   9.144  26.824  24.915  0.4038  0.2563 -0.2305
27356W        W70372   5.752  23.286  21.678  0.0414  0.2343  0.2723
27357W        W70373  29.966  14.090  15.143 -0.1963 -0.1244  0.0005
27358W        W70374  23.018  18.474  15.164  0.0797  0.0127 -0.2888
27359W        W70375   4.361  28.717   0.974  0.0802  0.0054 -0.0574
27360W        W70376   3.613  10.602  22.652 -0.1471  0.1491  0.0391
27361W        W70377  24.145  26.650  18.338 -0.2820 -0.0236  0.5028
27362W        W70378   6.487  29.535   6.965  0.2533 -0.0427  0.1073
27363W        W70379  10.440  10.601   3.284 -0.1297 -0.0741  0.0997
27364W        W70380   3.733  23.544  22.892 -0.0563  0.0864  0.2675
27365W        W70381  17.002   7.764  20.958  0.0180 -0.2530 -0.0081
27366W        W70382   8.823  21.174  27.841  0.2861  0.1634  0.2909
27367W        W70383  21.803  21.532  13.614  0.1074  0.2125  0.0717
27368W        W70384  32.530  11.787  24.102  0.2838  0.0390 -0.3085
27369W        W70385  33.342  18.009  26.535  0.0840 -0.0261  0.1177
27370W        W70386   7.835  17.335   7.065  0.0901 -0.0496  0.1003
27371W        W70387   6.079  21.872  20.550  0.1428  0.1939 -0.2881
27372W        W70388   2.335  17.796  14.735 -0.1259  0.1560 -0.3004
27373W        W70389   5.450   9.038  21.933 -0.2846  0.1628  0.1123
27374W        W70390   5.298  18.816  20.342  0.0313 -0.2848 -0.2343
27375W        W70391  10.649  12.328  20.212 -0.2316  0.4075 -0.0211
27376W        W70392   9.160   7.009  27.244  0.1682  0.0413 -0.0656
27377W        W70393  32.076   8.758  28.514  0.2642 -0.3683  0.0235
27378W        W70394   1.065  19.064   7.863 -0.0595 -0.0722 -0.0623
27379W        W70395   7.591  21.036  17.820 -0.1359  0.0947 -0.0992
27380W        W70396  10.554  19.370  12.949  0.1395  0.1681  0.1317
27381W        W70397   7.297  12.571   7.123 -0.2393 -0.0036 -0.1695
27382W        W70398  32.694  27.607  19.514 -0.1327  0.1263 -0.1960
27383W        W70399   5.666  18.159   8.006 -0.0026 -0.0543  0.0061
27384W        W70400   7.096  23.441   3.012  0.3790  0.0154  0.0497
27385W        W70401  28.781   2.287  24.106 -0.0057  0.1886 -0.1284
27386W        W70402  30.225  12.604  18.425  0.0941 -0.1173 -0.1052
27387W        W70403   6.145  10.521  24.743 -0.0457 -0.0163 -0.1585
27388W        W70404   3.951  14.453  18.177  0.1445  0.2831  0.0677
27389W        W70405   5.126  18.580  27.207  0.3059  0.1245 -0.3257
27390W        W70406   8.697  22.826  20.960 -0.2005 -0.0746  0.1795
27391W        W70407  10.993  20.828   2.304  0.2976 -0.0609  0.3239
27392W        W70408   0.988  17.024  17.917 -0.3649 -0.1583 -0.0796
27393W        W70409  17.194  21.747  15.464  0.1332 -0.0993  0.0154
27394W        W70410   6.034  17.632  21.194  0.1777 -0.0211 -0.1540
27395W        W70411  34.052  25.306   7.769  0.2025 -0.1170  0.1810
27396W        W70412  34.504  33.381  14.917 -0.0578 -0.1123 -0.2242
27397W        W70413  32.939  18.377  17.772 -0.0927  0.2828 -0.0196
27398W        W70414  32.289   2.712  20.388  0.2936  0.1260  0.1406
27399W        W70415   2.329   9.306  19.755 -0.0957 -0.1916 -0.1960
27400W        W70416  29.495  11.073   0.891 -0.0727  0.3374 -0.0127
27401W        W70417   6.516  19.628  18.692 -0.1104 -0.2491  0.0849
27402W        W70418  12.136  34.087   7.656  0.5345 -0.0317 -0.2489
27403W        W70419  21.277   8.662  26.660 -0.0561  0.2601  0.0704
27404W        W70420   3.489  22.411  23.100 -0.0712 -0.0152 -0.1773
27405W        W70421   3.702  12.564  15.575 -0.0516  0.2029  0.2274
27406W        W70422  29.116   1.694  17.108  0.1045 -0.2145 -0.1063
27407W        W70423  33.561  19.814  14.184  0.3109 -0.1148 -0.0671
27408W        W70424  14.362  33.398  19.464 -0.0449  0.2627 -0.0288
27409W        W70425  24.191  14.283  24.888 -0.1774  0.3529  0.2438
27410W        W70426  21.145  16.775   6.137 -0.1271  0.0749 -0.1398
27411W        W70427  19.534  21.446   0.869  0.0788  0.1334  0.3451
27412W        W70428   0.722   8.386  17.163 -0.0305  0.0556  0.0098
27413W        W70429  33.410  27.098  18.422 -0.1495  0.0077  0.1065
27414W        W70430  31.650  21.701   2.718  0.3535  0.1146  0.1162
27415W        W70431  29.614  12.935   1.998 -0.0324  0.0774  0.0123
27416W        W70432  13.061  26.161  29.013  0.0902 -0.2588 -0.0781
27417W        W70433   8.825  17.550  20.372  0.1345 -0.2305  0.1455
27418W        W70434  28.152  10.503  25.704  0.1047  0.0393 -0.0548
27419W        W70435  28.584   9.256  17.861  0.2489  0.1101  0.0305
27420W        W70436  32.274  12.148  15.805  0.0185  0.2971  0.2490
27421W        W70437  11.902  15.967   1.954 -0.0076  0.0423 -0.1179
27422W        W70438   0.810  26.524  25.438 -0.2049  0.2433  0.0825
27423W        W70439   1.409  20.366  20.531  0.2511  0.0929  0.0079
27424W        W70440  30.731  22.216  19.539  0.2285  0.2476 -0.0573
27425W        W70441  12.174  19.522  21.626 -0.3038  0.0074  0.2954
27426W        W70442  10.930  21.975  19.852 -0.0023 -0.1595 -0.0097
27427W        W70443   1.203  28.636  18.262  0.0171 -0.1673  0.2953
27428W        W70444  30.895   9.989  15.004 -0.1365  0.2924 -0.1667
27429W        W70445   5.415  16.699  23.651  0.1153  0.0899  0.2208
27430W        W70446  29.229   7.430  18.556  0.3462 -0.2043 -0.1046
27431W        W70447  31.021  22.119  19.104  0.2543 -0.0479 -0.1382
27432W        W70448   0.391  21.928  15.619  0.0452 -0.2150  0.0734
27433W        W70449  10.663  31.399  14.478 -0.0047 -0.1060 -0.2771
27434W        W70450   3.509   8.579   2.375 -0.0283 -0.1799  0.0045
27435W        W70451   7.803   6.724  15.311  0.1549 -0.1029 -0.2842
27436W        W70452   3.232  22.461   4.540  0.1067  0.2766 -0.1296
27437W        W70453  31.309  24.208  19.871 -0.2911  0.2178 -0.2367
27438W        W70454  17.352   7.745  22.572 -0.0053 -0.1748 -0.0997
27439W        W70455   4.892  22.425  19.387 -0.3056 -0.0446 -0.3496
27440W        W70456   4.141  28.124  28.295 -0.1131 -0.0441  0.0193
27441W        W70457   8.152  10.062   1.585  0.1611 -0.0143 -0.0032
27442W        W70458  28.080   6.802  23.429 -0.1086  0.4652  0.2149
27443W        W70459   4.841  14.388  14.228  0.1842 -0.0373 -0.2395
27444W        W70460  17.199  20.038  14.636 -0.1004  0.0295  0.1095
27445W        W70461  28.331  18.121   4.179 -0.0899  0.2910 -0.1962
27446W        W70462  15.379   8.582  26.023 -0.0964 -0.0030 -0.1777
27447W        W70463   9.445  16.293   1.605  0.0392  0.0752 -0.1300
27448W        W70464  20.784  18.564  21.363 -0.0541 -0.1914 -0.1429
27449W        W70465  26.265  12.576  18.340 -0.5442 -0.1281 -0.0209
27450W        W70466  33.745  13.677  22.821  0.1831 -0.1462 -0.0740
27451W        W70467  28.084  19.058  16.691  0.1076  0.1191 -0.2846
27452W        W70468  12.184  34.320   1.955 -0.0282 -0.2691  0.1064
27453W        W70469   3.589  23.470   0.868 -0.0353  0.0374  0.0030
27454W        W70470  17.347  21.066  25.084 -0.0887 -0.1175 -0.1256
27455W        W70471   8.732  16.827  16.485  0.0205 -0.0996  0.0226
27456W        W70472  28.476  15.766  24.321  0.2680  0.1590  0.1105
27457W        W70473  10.385  34.262  27.845 -0.0036  0.0291  0.1362
27458W        W70474   8.668  21.652  14.106 -0.0097 -0.0027  0.0909
27459W        W70475  33.299  24.350  18.636  0.1483  0.0554  0.1190
27460W        W70476  33.050  18.530  18.243 -0.2137  0.0904  0.0957
27461W        W70477  11.223  10.738  17.756 -0.3586  0.1863 -0.0455
27462W        W70478   2.982  23.586  17.322  0.0116 -0.0026  0.2764
27463W        W70479  12.947   7.629  23.216  0.1956  0.1220  0.2702
27464W        W70480  23.665  25.951  28.542 -0.1542 -0.1611 -0.1121
27465W        W70481  15.478  15.350  26.005  0.2529  0.1513 -0.2520
27466W        W70482   6.407  11.932   1.047 -0.5767  0.1848  0.2140
27467W        W70483  20.866  14.932  26.279  0.4191 -0.0795 -0.0446
27468W        W70484   6.773  10.977   0.370  0.1324 -0.2607  0.1011
27469W        W70485  17.221  17.074  21.063 -0.0485 -0.2068 -0.0949
27470W        W70486   9.259   7.158  24.667  0.1015 -0.3094 -0.1205
27471W        W70487   4.819  16.857  18.348 -0.0413 -0.1000  0.4649
27472W        W70488  20.913   3.878  15.542 -0.0153  0.1288  0.2454
27473W        W70489  25.019   7.086  26.134  0.0325  0.2222  0.1033
27474W        W70490  31.065  12.510   9.982 -0.2657  0.0764  0.1298
27475W        W70491   7.365  21.089  12.922  0.0386 -0.0205  0.1258
27476W        W70492   7.146  27.925  25.645 -0.0246 -0.1254 -0.0652
27477W        W70493  32.452  24.937  19.455 -0.1151  0.0909 -0.0572
27478W        W70494  31.906  23.045  25.281  0.0862 -0.1410  0.2156
27479W        W70495   0.204   2.806  17.124  0.2437 -0.0390  0.0302
27480W        W70496  29.648  30.751   6.688  0.1089 -0.0899 -0.1426
27481W        W70497  13.106   4.292  15.773 -0.1121 -0.1729  0.0478
27482W        W70498  25.717  19.892  20.525 -0.0067 -0.0923  0.1922
27483W        W70499   2.614  18.015  21.830  0.0010 -0.0408 -0.0517
27484W        W70500  31.882  26.320  23.713  0.0543  0.0316 -0.0388
27485W        W70501   9.588  25.285  20.944  0.1441 -0.0601 -0.1264
27486W        W70502  24.672  26.972  22.457  0.0758 -0.1449  0.2118
27487W        W70503   1.556  24.941  23.177 -0.1898 -0.0573  0.0873
27488W        W70504  25.927   3.772  21.560  0.1948  0.2922 -0.2877
27489W        W70505   5.277   3.262  20.468 -0.0239 -0.0652 -0.0240
27490W        W70506  27.285  12.563  27.430 -0.3677 -0.1318  0.0018
27491W        W70507  26.721  12.230  25.728  0.0699  0.2468 -0.1084
27492W        W70508   6.864  21.647   1.095 -0.0342  0.2320  0.1076
27493W        W70509  22.017  26.464  15.299 -0.0377  0.2690  0.2688
27494W        W70510  24.831   5.375  17.770 -0.3202 -0.1095 -0.3004
27495W        W70511   4.404   0.455  21.161 -0.0138 -0.0562  0.2190
27496W        W70512   4.806  17.737  15.245 -0.1594  0.0003 -0.0541
27497W        W70513   5.294   1.196  17.837  0.4330 -0.1641 -0.0460
27498W        W70514  13.273  13.459   4.294 -0.1739 -0.1592  0.1404
27499W        W70515  10.155  24.209  16.096 -0.0643 -0.1772 -0.2472
27500W        W70516  15.433   2.682  19.199 -0.1615  0.1398  0.2737
27501W        W70517   3.232  21.694  14.721 -0.2423 -0.1798  0.0220
27502W        W70518   9.009  18.963  18.283 -0.0749  0.0978  0.2298
27503W        W70519  22.817  31.142  23.924 -0.2691 -0.1871  0.2279
27504W        W70520  32.754  24.793  24.037 -0.1123  0.2344 -0.0802
27505W        W70521   2.194  20.317  22.219 -0.2507 -0.1304  0.2417
27506W        W70522  32.965   9.433  24.526 -0.2248  0.0334  0.2120
27507W        W70523   7.931   9.166  25.432 -0.2668 -0.0850  0.2759
27508W        W70524   4.711  30.593  26.982  0.2078  0.1870 -0.2891
27509W        W70525  23.483  13.055  14.165  0.0675 -0.3629 -0.1475
27510W        W70526  34.123  17.893  25.125  0.1282  0.1771  0.0221
27511W        W70527  27.911  31.034  19.958  0.0080 -0.0862 -0.0413
27512W        W70528  34.549  22.663  17.952 -0.2912  0.1201  0.1801
27513W        W70529  31.643  14.818  26.421  0.1570  0.0614 -0.0927
27514W        W70530   2.985  12.955  23.377  0.0932  0.2170 -0.1993
27515W        W70531   5.651  28.285   7.811  0.0741  0.1138 -0.1498
27516W        W70532  12.760  21.508  25.517 -0.1488 -0.0735  0.0804
27517W        W70533  14.212  15.252  12.927  0.1765 -0.0671 -0.0380
27518W        W70534  15.779   8.085  22.630  0.0185 -0.1279 -0.0147
27519W        W70535  22.501  12.136  24.418  0.1190 -0.1944 -0.1411
27520W        W70536  19.876   8.939  13.392 -0.1843  0.2441 -0.0620
27521W        W70537  24.509  23.186  18.063  0.3266 -0.0007  0.2713
27522W        W70538  32.773  26.302  22.115 -0.0645  0.3257  0.3942
27523W        W70539   1.514  12.203  17.427  0.2392  0.1270  0.0067
27524W        W70540   1.305  16.661   0.056  0.1583 -0.4079 -0.0614
27525W        W70541  13.626   2.877   1.474 -0.1333 -0.0223 -0.0528
27526W        W70542   6.594  19.533  14.120 -0.1519 -0.3773 -0.0286
27527W        W70543  22.815  17.128  12.758 -0.2462  0.1008 -0.2355
27528W        W70544  31.600  19.843  18.212 -0.2355  0.1910 -0.1066
27529W        W70545  18.621  18.751  21.168  0.2598 -0.1843  0.0161
27530W        W70546   0.516  17.863  26.505  0.0884 -0.4069 -0.1130
27531W        W70547   5.085  21.221  28.485 -0.0003 -0.1119 -0.2515
27532W        W70548   1.428  20.780  15.798 -0.5323  0.1069  0.3082
27533W        W70549   2.193  19.665   2.408 -0.3499 -0.0124  0.2667
27534W        W70550   9.076  19.670  27.109 -0.0922 -0.0240  0.1770
27535W        W70551  12.306  18.818  13.066  0.2168 -0.0809  0.1595
27536W        W70552  26.969  23.553  20.552  0.0935  0.0514 -0.2182
27537W        W70553  10.741  25.345  24.447 -0.2715  0.0551 -0.0277
27538W        W70554  31.973  16.559  23.251 -0.2115  0.2111 -0.0804
27539W        W70555   7.612  20.459   3.159 -0.2067  0.3217 -0.1874
27540W        W70556   9.544   5.756  19.182  0.2211 -0.2248  0.0214
27541W        W70557   8.881   6.544  29.232  0.1147 -0.0866 -0.1928
27542W        W70558   8.449  11.449   9.127  0.2488  0.1255 -0.0782
27543W        W70559  13.736  17.634  24.114 -0.0203  0.0037  0.0226
27544W        W70560   0.454   9.250  28.030 -0.1329 -0.1424 -0.0369
27545W        W70561   0.435  23.903  17.648 -0.0996 -0.0343  0.2117
27546W        W70562  13.642   7.396   1.419 -0.1072  0.0406 -0.0681
27547W        W70563  19.999  13.549   4.775  0.2324 -0.1267 -0.0508
27548W        W70564  12.369  12.621  28.171 -0.2508  0.1136  0.0371
27549W        W70565  16.736  17.583  16.352  0.2609 -0.1168 -0.0290
27550W        W70566  10.993  19.397  17.191 -0.0305 -0.1390 -0.0954
27551W        W70567  29.934  16.908  27.459 -0.1938 -0.4951 -0.0743
27552W        W70568   9.574   5.311  19.949 -0.2475 -0.0107 -0.0900
27553W        W70569  11.311  15.054  16.126  0.2833 -0.1820 -0.0847
27554W        W70570   1.692   5.521  19.149 -0.0255 -0.2789 -0.2045
27555W        W70571   5.848  20.720   4.017  0.0070 -0.0006  0.2245
27556W        W70572   4.792  20.980   3.022  0.1549  0.0834 -0.2312
27557W        W70573  32.197   4.082  16.846  0.3742  0.2506  0.3714
27558W        W70574  31.259  11.789  20.757 -0.0606 -0.2874 -0.1328
27559W        W70575   6.257  10.021  16.171 -0.0136 -0.2354  0.0413
27560W        W70576  14.618  10.077  19.546 -0.2159 -0.0475  0.1827
27561W        W70577   0.793  29.309  19.182 -0.0540  0.1527 -0.0765
27562W        W70578  13.119   8.724  20.269  0.0289 -0.0330 -0.0074
27563W        W70579  33.624   7.951  23.769  0.4387  0.0765 -0.1672
27564W        W70580   7.669   7.400  15.862 -0.2846  0.2147  0.2078
27565W        W70581  31.754  11.205   6.436 -0.1002  0.3078  0.3138
27566W        W70582  22.433  14.472  26.138  0.5488 -0.0437 -0.1465
27567W        W70583  27.249  14.246  19.583  0.1545 -0.2974 -0.1010
27568W        W70584   9.988  14.040  19.649 -0.0590  0.0187 -0.1145
27569W        W70585   0.581   8.427  16.649  0.0436  0.2280 -0.0270
27570W        W70586   9.082  27.233  16.220  0.4058 -0.1429  0.1555
27571W        W70587  27.836  17.087  16.198 -0.2566 -0.2956 -0.1250
27572W        W70588  21.884  11.870   7.231  0.2174  0.1388  0.0901
27573W        W70589  18.929  14.119  11.972 -0.4529 -0.0898  0.1089
27574W        W70590  21.402  20.477  18.189 -0.0511  0.2464  0.1126
27575W        W70591   6.200  18.512  22.178 -0.1190  0.0128 -0.0098
27576W        W70592  25.535  28.804  24.394  0.3153  0.5077  0.2339
27577W        W70593   0.217  22.903   9.777  0.0337  0.2249 -0.0315
27578W        W70594   9.324   3.170  16.777  0.2006  0.3956 -0.0141
27579W        W70595   5.375   7.553  27.749  0.0598  0.0000  0.4212
27580W        W70596  23.164  25.607  15.413 -0.1425  0.2913  0.1898
27581W        W70597   1.354  20.613  25.192 -0.2691  0.2916  0.1965
27582W        W70598   3.052   7.842   0.249 -0.0554 -0.0427 -0.0457
27583W        W70599   6.323  17.159  16.242 -0.2934  0.4741  0.0132
27584W        W70600   8.200  20.662  13.829  0.1102 -0.2633  0.1295
27585W        W70601   1.811  12.734  23.081  0.0656 -0.2552 -0.0108
27586W        W70602  26.276   5.875  18.054  0.3409 -0.2235 -0.4941
27587W        W70603  11.163  20.862  16.767  0.1307  0.3545 -0.3503
27588W        W70604  13.796  15.632  21.555  0.1655  0.0690 -0.0554
27589W        W70605   6.253  17.098  15.706  0.1741 -0.0149 -0.0920
27590W        W70606   0.864   9.603   1.589  0.2571  0.1088  0.0373
27591W        W70607  16.877  32.551  19.519 -0.1649  0.0301  0.3605
27592W        W70608   4.109  10.707  22.882 -0.2701 -0.0696  0.2348
27593W        W70609   3.502   3.082  18.742 -0.2665  0.1829 -0.1889
27594W        W70610   8.805   6.335   2.983  0.1753 -0.0045  0.0845
27595W        W70611   1.360  22.984  16.417  0.2891 -0.1315  0.1502
27596W        W70612  33.338  19.397  16.252  0.0511 -0.0130  0.0444
27597W        W70613  16.807  13.086   0.157  0.1026 -0.0346  0.1154
27598W        W70614  19.661   7.043   8.372 -0.1422 -0.3551 -0.0604
27599W        W70615  22.415  13.483   9.352  0.0720  0.1658 -0.0823
27600W        W70616   1.903  23.217  18.210  0.2263 -0.0848  0.1284
27601W        W70617  17.916   9.637  24.272  0.1735  0.0032  0.0241
27602W        W70618  21.205  26.428  15.468  0.0569  0.0831 -0.0326
27603W        W70619  26.132  15.484  15.295  0.0158 -0.0932 -0.0118
27604W        W70620   9.951  20.072  19.561 -0.4179  0.3421  0.2242
27605W        W70621  20.937  17.315   6.582  0.0533  0.1684 -0.0120
27606W        W70622  13.722  19.575   1.066 -0.0647 -0.1161 -0.0651
27607W        W70623  14.273  23.125  15.991 -0.1678  0.1690  0.2317
27608W        W70624  11.005  15.675  19.416 -0.0214  0.1874  0.0337
27609W        W70625  14.955  10.101  14.001  0.1837 -0.2230  0.0688
27610W        W70626   8.611   8.520  21.679 -0.2617  0.1140  0.0894
27611W        W70627   0.571  24.931  18.017  0.0524  0.0912  0.0414
27612W        W70628   6.362  29.921  21.444  0.0107  0.2013 -0.0103
27613W        W70629   6.056  11.320  21.671  0.0888 -0.2385 -0.1520
27614W        W70630  11.568  34.304  23.363 -0.1479  0.1282 -0.1189
27615W        W70631   3.115  22.064   9.260 -0.0591 -0.1301 -0.1248
27616W        W70632   8.191  33.339  16.443  0.0811 -0.0083 -0.0692
27617W        W70633   2.916  34.444  15.937  0.0372 -0.2113  0.2695
27618W        W70634  29.346  18.946   0.730  0.0144  0.0133  0.0200
27619W        W70635  14.364  24.374  22.473 -0.0147 -0.0058 -0.0918
27620W        W70636   5.401  23.922  25.667 -0.0069  0.1116  0.1547
27621W        W70637   3.078  24.927   3.650 -0.1293  0.1113 -0.0028
27622W        W70638   6.703  12.729  18.399  0.1865  0.1951  0.2772
27623W        W70639   9.201   9.618  24.781  0.2847 -0.0236  0.0757
27624W        W70640  19.671  21.607  15.463  0.2150  0.1627  0.1350
27625W        W70641  17.574  18.515  21.503 -0.0851 -0.0578 -0.2460
27626W        W70642   6.127   0.891  22.262  0.1702  0.0778 -0.0067
27627W        W70643  34.705  20.030  19.059 -0.1553  0.3983  0.0376
27628W        W70644  26.545  16.706  21.675 -0.0253 -0.0992 -0.1273
27629W        W70645   7.754  11.559  25.723 -0.1415  0.1587  0.2352
27630W        W70646   5.663   3.147  27.016  0.0082 -0.0319  0.0032
27631W        W70647   4.679  13.701  17.565 -0.1427  0.0227  0.2653
27632W        W70648  11.848  13.990  22.979  0.0757  0.1912 -0.0952
27633W        W70649   0.727  29.519  16.353  0.2561  0.0118  0.1877
27634W        W70650   2.606  19.837  19.716  0.0502  0.3185  0.0705
27635W        W70651   2.110  14.069   8.668 -0.0487 -0.0219  0.1459
27636W        W70652  17.322  22.108  13.437 -0.1791  0.2861  0.1972
27637W        W70653  23.994  10.383   2.401 -0.0613  0.0247  0.2074
27638W        W70654   5.270  31.270  23.790 -0.0761  0.2902  0.1694
27639W        W70655   0.880  29.718   0.150 -0.1321 -0.1222 -0.0845
27640W        W70656   3.091  21.580  24.024  0.0181 -0.2671 -0.2285
27641W        W70657  32.324  29.060  18.032  0.1119 -0.0214  0.0430
27642W        W70658  33.176  24.248  25.991  0.2173  0.2054  0.1946
27643W        W70659  32.762  22.503  24.336  0.0863 -0.3314  0.2648
27644W        W70660  34.545   7.922   0.798  0.3062 -0.0757  0.1989
27645W        W70661   7.967  17.948  17.374 -0.2656 -0.0336  0.2647
27646W        W70662   8.281  14.212  14.726 -0.0758 -0.0099 -0.2454
27647W        W70663  10.530  30.532   1.100  0.0658  0.4350 -0.2941
27648W        W70664   2.333  24.571  28.565  0.0827  0.1361 -0.1342
27649W        W70665  10.744   1.429  23.511  0.2154 -0.1422 -0.1442
27650W        W70666  14.329  13.013  27.679 -0.0961 -0.1673  0.0627
27651W        W70667   7.020   5.422  16.947 -0.1456  0.1271  0.3432
27652W        W70668   7.249   5.358  24.172  0.0101  0.2422 -0.1086
27653W        W70669  21.790  10.802  23.713  0.0591  0.0596  0.2460
27654W        W70670   7.247  11.994  22.245  0.2810  0.0778 -0.0533
27655W        W70671  27.809  12.430  19.446  0.1483  0.0031  0.1600
27656W        W70672  22.743  21.789  22.536  0.1265  0.1098 -0.0710
27657W        W70673  27.946   6.751   0.375 -0.2477  0.0570  0.0082
27658W        W70674  22.868  21.628   2.316 -0.3321  0.2420 -0.1416
27659W        W70675  32.590  21.641  25.834 -0.6799 -0.0712 -0.1096
27660W        W70676   1.772   1.711   4.365  0.1105  0.0933  0.0234
27661W        W70677   3.972   6.862  15.176  0.2509  0.0482  0.0079
27662W        W70678  10.885  30.126  15.509  0.3447 -0.1247  0.1703
27663W        W70679  10.714  19.604  26.590 -0.1915 -0.0580  0.0372
27664W        W70680  15.287  14.557  12.846  0.0003  0.1105 -0.0313
27665W        W70681   0.500  14.525  17.983  0.0631 -0.0045 -0.0059
27666W        W70682  31.374   9.372   3.396 -0.1967 -0.3581 -0.0748
27667W        W70683  20.863  19.759  14.571 -0.1190  0.0414  0.1162
27668W        W70684   3.888  18.365  26.851  0.1170  0.0243  0.2644
27669W        W70685   8.003  30.107  14.111 -0.0222 -0.1155  0.0280
27670W        W70686   0.784  10.412  19.597  0.5467 -0.1046  0.1401
27671W        W70687  19.840  23.935  20.471  0.0927  0.1062  0.0515
27672W        W70688  14.018  17.472  14.861  0.2708 -0.3601  0.0832
27673W        W70689  32.622  11.683   1.372  0.0459  0.1157  0.1656
27674W        W70690  10.828  24.513  15.116  0.1433  0.2265 -0.3516
27675W        W70691  28.537  20.235  25.748  0.2786 -0.0686  0.1708
27676W        W70692  27.627  13.712  22.951 -0.2582 -0.1708 -0.0585
27677W        W70693   6.832  14.581  28.534  0.0672 -0.0562  0.0818
27678W        W70694   2.058  19.611  17.027 -0.1361  0.0979 -0.1192
27679W        W70695  33.308  22.644   0.649  0.0198 -0.0647 -0.0642
27680W        W70696  28.623  16.006  15.503  0.3034 -0.4941 -0.1531
27681W        W70697  31.285  21.368  28.041  0.2902 -0.1659  0.1137
27682W        W70698  10.420  12.755  18.830 -0.0305 -0.2765  0.3408
27683W        W70699   4.375   6.470   7.458 -0.1962  0.3345  0.1496
27684W        W70700   4.630  23.424  18.641  0.1456 -0.1953  0.1444
27685W        W70701  28.658  15.935  17.081 -0.4974  0.0876  0.0002
27686W        W70702   7.289  19.812   1.615  0.0356 -0.1758 -0.3283
27687W        W70703   6.760   6.992   7.799  0.0146 -0.0785  0.1384
27688W        W70704   6.692  11.565  28.671 -0.2206 -0.2678 -0.2303
27689W        W70705  11.091  13.682  16.766  0.0675 -0.0189  0.0617
27690W        W70706  29.971  16.246  20.348  0.0492 -0.0451  0.3687
27691W        W70707  11.913  29.867   5.167  0.2118 -0.1172  0.0172
27692W        W70708  29.640  33.923  29.217 -0.1613  0.0908  0.1615
27693W        W70709  25.152  15.768  19.443  0.0940  0.0919 -0.0234
27694W        W70710  26.936  12.682  29.288  0.2263  0.0606  0.0823
27695W        W70711   7.001  31.338   3.724  0.1766  0.3613 -0.0229
27696W        W70712   3.808  25.430  24.133 -0.1337  0.1152  0.0007
27697W        W70713   0.991  19.074   4.091  0.1614  0.0122  0.1929
27698W        W70714  15.145  30.389   7.443  0.1667  0.1558  0.0263
27699W        W70715  15.898  27.411   9.546  0.2774 -0.1166  0.1256
27700W        W70716  30.564  32.839  18.634 -0.0243  0.1136 -0.1840
27701W        W70717  11.004   1.237   3.618  0.0934 -0.0584  0.0245
27702W        W70718   1.386  18.345   4.438  0.0486 -0.1068  0.0799
27703W        W70719  10.368  17.592   0.314 -0.0099  0.0606 -0.2010
27704W        W70720  30.878   6.676  27.897 -0.4521  0.2404  0.1368
27705W        W70721  31.518   4.875   4.698 -0.1845  0.0819  0.0368
27706W        W70722  23.752   4.389  16.956  0.0118 -0.1626  0.3349
27707W        W70723  18.618  32.368   3.214  0.2142  0.0801 -0.0592
27708W        W70724   3.670  23.536   3.741 -0.0106  0.0747  0.0633
27709W        W70725  34.154  26.948   9.379  0.2008 -0.0493 -0.3648
27710W        W70726  29.203  12.161  24.229  0.0708  0.0976  0.1036
27711W        W70727  23.125  10.889  24.774 -0.3371  0.0939  0.1914
27712W        W70728   8.918  14.335   1.377 -0.0595 -0.1847 -0.3324
27713W        W70729  24.045  32.016  24.408 -0.0597  0.1051  0.2118
27714W        W70730   4.024  22.264   3.097 -0.0903  0.0722  0.0746
27715W        W70731  34.145   2.409  28.626  0.2693 -0.3574 -0.1789
27716W        W70732   0.034  24.120   2.556 -0.0113 -0.1659  0.1007
27717W        W70733   1.895  21.216   2.990  0.1819  0.1018 -0.0341
27718W        W70734   3.182  12.643   4.802 -0.1257 -0.2874 -0.3193
27719W        W70735  34.112   4.457  19.383 -0.1507 -0.0410  0.3186
27720W        W70736   0.544  17.394  20.149  0.3925 -0.1800 -0.0765
27721W        W70737  31.879   6.387  25.483  0.1913  0.0299  0.0152
27722W        W70738   3.260  30.342  25.654  0.2716  0.1136  0.2396
27723W        W70739  19.343  26.374  18.931  0.3347  0.0276  0.0721
27724W        W70740   1.933  14.735  18.023 -0.3054 -0.4999  0.1792
27725W        W70741   8.667  18.657   9.085  0.1893  0.2841  0.0532
27726W        W70742  27.933  19.805  28.457  0.1750  0.2099 -0.3850
27727W        W70743  28.728   2.066  19.248  0.1778  0.1511 -0.0664
27728W        W70744  13.994   3.820   7.998  0.1637 -0.1653  0.0095
27729W        W70745  11.232  14.089   1.012  0.0093 -0.0768 -0.0348
27730W        W70746   2.067  30.831   4.068  0.2100 -0.2016  0.2709
27731W        W70747  25.630  19.954  19.444 -0.0258 -0.0322  0.0519
27732W        W70748  31.563  11.478  17.183  0.0592 -0.0414  0.2393
27733W        W70749  31.659  29.896  25.021  0.1250 -0.2895  0.0344
27734W        W70750  33.769   9.025  23.916  0.2196  0.0072 -0.1586
27735W        W70751  30.577  19.938  27.469 -0.1578  0.1500  0.2839
27736W        W70752   1.409   7.358   6.530 -0.1270  0.1595 -0.0040
27737W        W70753  30.037  12.121  21.559 -0.0691  0.0818  0.4884
27738W        W70754  30.821  20.528  17.824  0.1169 -0.2040 -0.1529
27739W        W70755  11.238  20.443  25.042  0.4480 -0.0930  0.2710
27740W        W70756  14.719  20.977  25.949  0.1005  0.2307  0.0957
27741W        W70757  32.349  26.746   4.520  0.1656 -0.1469 -0.1460
27742W        W70758   0.164  14.318  21.092  0.0162  0.0944 -0.0401
27743W        W70759   3.056  22.532  18.421  0.1171 -0.1939 -0.0498
27744W        W70760  10.334   2.005   5.330  0.2399  0.3690  0.4011
27745W        W70761  27.076  26.937  24.621  0.2416 -0.0766 -0.2155
27746W        W70762  21.546  32.153   0.181  0.0158  0.3351 -0.0107
27747W        W70763   3.683  30.991  15.821 -0.2854  0.1450 -0.3474
27748W        W70764  10.014   5.617  24.783  0.1973  0.1283 -0.1199
27749W        W70765   3.821  28.020  24.683  0.3446 -0.0457  0.1373
27750W        W70766  31.424  28.340   5.738 -0.0015  0.1674 -0.2345
27751W        W70767  10.887  25.620   7.993 -0.1758 -0.0483 -0.2001
27752W        W70768  22.312  12.642  20.676  0.0450  0.4552 -0.3033
27753W        W70769  30.046  17.939  26.367  0.2235  0.1097 -0.2086
27754W        W70770  23.663  18.286   5.856 -0.1766  0.2085  0.1986
27755W        W70771   2.287  11.828   5.999  0.0931  0.3292  0.0467
27756W        W70772   3.670  28.898   9.935 -0.0585 -0.1643 -0.1563
27757W        W70773  28.855  32.029   7.680 -0.0899  0.3774 -0.3207
27758W        W70774   6.017   9.770   1.911  0.0175  0.2768 -0.1910
27759W        W70775  20.597   3.327  28.282 -0.1998 -0.5047  0.2643
27760W        W70776  23.507  10.740  28.142  0.2736 -0.1887  0.0366
27761W        W70777  11.412   9.542  21.711 -0.2084 -0.1855  0.0497
27762W        W70778   6.777   8.249   9.477 -0.2985  0.1431  0.0635
27763W        W70779  13.988  25.017  28.043  0.0934 -0.2604 -0.1489
27764W        W70780   3.432  24.109   4.211  0.2564 -0.0809 -0.1975
27765W        W70781  33.657   2.496  25.823  0.0946 -0.0549  0.0821
27766W        W70782  15.644  31.032   0.126 -0.1660  0.0703 -0.2737
27767W        W70783  31.240   8.429   4.048 -0.1424 -0.1356  0.0156
27768W        W70784   3.715  13.816   5.366  0.0634 -0.0404 -0.0100
27769W        W70785   4.717  14.518   3.941  0.1491 -0.2145  0.4958
27770W        W70786   8.345   7.618  19.987 -0.0885  0.2337 -0.1836
27771W        W70787   5.596  32.233  28.161  0.1612 -0.2445  0.1104
27772W        W70788  34.618  22.301  23.467  0.2212  0.0155  0.0522
27773W        W70789  30.384  17.325   0.437  0.2293 -0.0161 -0.0590
27774W        W70790  24.725  17.755  24.585  0.1594  0.2368 -0.2077
27775W        W70791  15.370  29.056   4.421  0.2479 -0.1061 -0.1689
27776W        W70792  31.044   4.736   1.475  0.0246 -0.0682  0.1601
27777W        W70793  13.770  33.694   5.905  0.0437 -0.1628 -0.1002
27778W        W70794  34.309  17.291  19.574  0.2926 -0.1436  0.0186
27779W        W70795   6.821  14.058   7.193 -0.0945 -0.0198 -0.1191
27780W        W70796   7.800  10.513   5.369 -0.1346 -0.0274 -0.1675
27781W        W70797   2.902  13.962  24.262 -0.3962  0.0746  0.0298
27782W        W70798  28.230  22.423  16.882  0.1281 -0.1624 -0.5945
27783W        W70799  32.878  13.141  19.686 -0.0725 -0.2769  0.2190
27784W        W70800   9.898  16.164   5.970 -0.0454  0.0449  0.0185
27785W        W70801   6.238  13.999  21.520 -0.0808 -0.1127 -0.1066
27786W        W70802  26.993  18.916   4.762 -0.1882  0.0859 -0.1432
27787W        W70803  14.962   9.047  20.438  0.1426 -0.2068  0.1616
27788W        W70804   2.487  34.606   7.104  0.5190 -0.0234  0.1844
27789W        W70805  10.603   5.547  23.242  0.1374 -0.1360 -0.0135
27790W        W70806  12.919  14.103  27.243 -0.0597 -0.1542 -0.1336
27791W        W70807  34.773  13.124   3.588 -0.1690 -0.1001  0.1655
27792W        W70808   5.320  13.579   4.059  0.2140 -0.1009  0.4517
27793W        W70809   3.648  18.613  25.918 -0.1306  0.3088  0.0184
27794W        W70810   2.111  21.125   6.535 -0.0690 -0.1820  0.2082
27795W        W70811  25.191  13.201  29.092 -0.1432 -0.0261 -0.2752
27796W        W70812   9.085  16.966  27.248 -0.1514 -0.0544 -0.0581
27797W        W70813  34.018  16.976  19.236  0.0209 -0.1315  0.0232
27798W        W70814   0.708   5.779   5.337  0.0165  0.1843  0.4123
27799W        W70815  13.987  32.962  24.331  0.0915  0.0754  0.0522
27800W        W70816  15.449  22.868  22.113 -0.2168  0.0687  0.0071
27801W        W70817  16.991   9.656  27.047 -0.0061  0.1589 -0.0030
27802W        W70818   7.731  22.841  17.703  0.1084  0.0678  0.1937
27803W        W70819   9.058  18.921   3.394  0.2757 -0.1184  0.1007
27804W        W70820  30.492  17.271   5.837 -0.1360 -0.2796 -0.0574
27805W        W70821  28.079  34.605  10.693  0.0724  0.0672 -0.1357
27806W        W70822  12.378  27.833   0.995  0.0267 -0.1241 -0.0790
27807W        W70823  22.204  21.613   4.668 -0.2557 -0.1223 -0.0481
27808W        W70824  34.368  23.289  25.872  0.3355 -0.0842  0.0374
27809W        W70825  15.651   6.648   2.102 -0.0135  0.2451  0.0588
27810W        W70826   6.929   8.165   0.571  0.0185  0.0566  0.0240
27811W        W70827   8.799  30.943   4.817  0.0708 -0.2774 -0.3114
27812W        W70828  13.283  19.379   0.470  0.1676  0.2294 -0.0307
27813W        W70829  34.354   8.792  15.909 -0.0687  0.2891  0.1401
27814W        W70830  10.381  28.064  25.013 -0.0435 -0.1367 -0.2266
27815W        W70831  28.957  11.708  17.997 -0.2267  0.0369 -0.0670
27816W        W70832  26.240  29.474  23.658 -0.1370  0.1752  0.1169
27817W        W70833   6.650   4.884   5.010  0.0631 -0.2515  0.2217
27818W        W70834  33.341  16.638  25.754 -0.3484  0.5128 -0.2378
27819W        W70835   8.849  11.350  22.884  0.1241  0.1159  0.1755
27820W        W70836   6.248  11.092  14.278 -0.0191 -0.0236 -0.2876
27821W        W70837   3.419  24.374  18.820 -0.0724  0.2726  0.2966
27822W        W70838  17.402  16.945   6.437  0.0377 -0.3541  0.0336
27823W        W70839  29.486  12.731  13.813  0.1461 -0.1820  0.1036
27824W        W70840   0.700   3.293   0.275  0.4681 -0.3239  0.1297
27825W        W70841   3.713  19.697   4.693  0.5548  0.2076 -0.0847
27826W        W70842  32.385   6.883  23.149 -0.3314 -0.2628 -0.0499
27827W        W70843  11.243  27.696  14.186 -0.1924 -0.0383 -0.1028
27828W        W70844   4.589  22.322  28.646 -0.1561  0.1028  0.0638
27829W        W70845  13.721  31.035  24.541 -0.0038 -0.1785 -0.1121
27830W        W70846   4.687   8.724  20.307  0.1690 -0.1013  0.1224
27831W        W70847  31.168   2.004  25.044 -0.0046  0.0693 -0.3581
27832W        W70848  33.117  21.745   3.205  0.1601  0.4391  0.1109
27833W        W70849   8.628  16.925   2.939  0.0408  0.1164  0.0710
27834W        W70850  11.551  27.252  16.905 -0.0737 -0.2876 -0.1007
27835W        W70851  14.800   7.545  20.398  0.0189 -0.0050  0.0909
27836W        W70852   4.512  23.240   9.467 -0.0734  0.0425 -0.1980
27837W        W70853   7.540  16.567  16.444  0.3132  0.1211  0.0828
27838W        W70854   6.876   3.715   0.408 -0.0047 -0.2658  0.3746
27839W        W70855  17.642  14.180  19.959  0.0851  0.1076 -0.2528
27840W        W70856  24.717  14.110  24.638  0.2076 -0.0933  0.1246
27841W        W70857   0.428   7.083  16.438 -0.2329  0.3709 -0.4636
27842W        W70858  28.428  15.371  13.725 -0.0161 -0.0396  0.0277
27843W        W70859   5.591  22.159  23.819 -0.0203  0.0698  0.1230
27844W        W70860   3.827  25.491   4.656  0.1888  0.2023  0.0585
27845W        W70861  13.714  30.445  27.940  0.0543  0.0657 -0.1184
27846W        W70862   9.266  20.345   1.179 -0.0212 -0.2758  0.0285
27847W        W70863   8.846  26.516  20.926  0.1381 -0.0418  0.0930
27848W        W70864   9.646  19.900   7.871 -0.1655 -0.2184  0.0409
27849W        W70865   4.402  20.717  26.868  0.0077  0.1556  0.0929
27850W        W70866  23.600  31.207  22.976  0.2823  0.0220 -0.1843
27851W        W70867   9.172  33.195   8.436 -0.0061  0.2133 -0.2187
27852W        W70868  31.536  19.726  17.194  0.1230 -0.1743 -0.2375
27853W        W70869  14.188  14.688   6.494  0.1484  0.1825  0.0516
27854W        W70870  18.143  17.703  17.509 -0.0433  0.0802  0.0622
27855W        W70871  21.081  10.212   9.375  0.5463 -0.0569 -0.1792
27856W        W70872  11.471  23.168   2.907  0.1005  0.3483  0.2124
27857W        W70873  12.464  16.739  15.527  0.0735 -0.1873  0.0457
27858W        W70874   5.385  18.875  24.769 -0.2580 -0.1731  0.1926
27859W        W70875  15.359   8.297  18.849 -0.0883 -0.0026 -0.3791
27860W        W70876   6.796  28.699  22.883 -0.2583 -0.0065  0.1551
27861W        W70877   9.928   4.061  28.286 -0.0948 -0.1408 -0.3093
27862W        W70878   6.439  11.934  28.387  0.0565 -0.1494  0.0323
27863W        W70879  28.637  19.300  21.346  0.2264  0.1220  0.3854
27864W        W70880   8.623  32.388  16.001  0.0357  0.1967  0.0762
27865W        W70881  11.648  18.806  23.569  0.0586  0.2736 -0.0507
27866W        W70882  11.911  20.365  17.958  0.0913  0.2421  0.1174
27867W        W70883   1.309   1.994   2.349  0.1814  0.1478 -0.0126
27868W        W70884   6.468  15.323  20.272  0.1837  0.0697 -0.1962
27869W        W70885  28.391   9.643  19.126  0.2029  0.0259  0.0039
27870W        W70886   4.285  14.834   3.216  0.2021 -0.2314 -0.2573
27871W        W70887  29.438  17.328   0.778 -0.0448 -0.0327 -0.3548
27872W        W70888  18.014  12.669  12.860 -0.0399 -0.2554  0.1664
27873W        W70889  31.714   0.479   3.448  0.1937 -0.1158 -0.0152
27874W        W70890   3.246  18.695  22.364 -0.1457  0.1504 -0.2665
27875W        W70891  24.039  21.194  27.955 -0.2801 -0.0077 -0.1490
27876W        W70892   4.939  18.322   7.524 -0.2016 -0.0304 -0.0481
27877W        W70893   3.121  23.093   1.869 -0.1961 -0.0473 -0.1028
27878W        W70894  24.565  10.520  16.646 -0.0925 -0.0671 -0.1236
27879W        W70895  31.768   3.695  26.428  0.0985 -0.0414 -0.3407
27880W        W70896   2.754  15.902  16.351  0.0351  0.1667  0.1600
27881W        W70897  25.238  30.023  24.498  0.0015  0.0206 -0.0001
27882W        W70898  18.354  26.816  21.387  0.1523 -0.0439  0.0339
27883W        W70899  12.831  27.666  28.360  0.0686 -0.0047 -0.0640
27884W        W70900   1.192   1.980  16.643 -0.4142  0.4873 -0.1116
27885W        W70901  14.671  21.098  23.513  0.1298  0.0166  0.0773
27886W        W70902   9.889  17.637   5.824  0.0105  0.2814 -0.1453
27887W        W70903  31.852  15.879   7.714  0.1115  0.0926 -0.1567
27888W        W70904  22.923  26.012  29.312  0.1943  0.0346  0.0344
27889W        W70905   9.021  15.660   3.705 -0.0673  0.1443 -0.1467
27890W        W70906  16.597   4.321   4.988 -0.1799  0.0654 -0.1730
27891W        W70907   4.926  20.284  14.229  0.2251 -0.1567  0.0426
27892W        W70908  23.358  21.285  14.632  0.1328  0.0389 -0.1427
27893W        W70909   7.275  26.506  18.855  0.1906  0.1254  0.1950
27894W        W70910  18.518  12.256  12.267  0.0037 -0.0973  0.1205
27895W        W70911   5.435  11.995  20.062  0.0207 -0.2234 -0.3709
27896W        W70912   1.209  16.826  18.674 -0.1280  0.1545  0.4148
27897W        W70913  11.764  17.394  29.082  0.2100  0.1038  0.1443
27898W        W70914   4.569  23.339  24.942  0.0293  0.1365 -0.3928
27899W        W70915  13.227  21.446  19.887 -0.0116 -0.0341 -0.0350
27900W        W70916   2.740  17.148  25.033  0.1320 -0.2979  0.2082
27901W        W70917  27.913  33.282  10.493  0.1481  0.0254 -0.2136
27902W        W70918  30.905  16.722  20.908 -0.3225  0.0569 -0.0643
27903W        W70919  14.007  15.026   6.117  0.2189 -0.1341  0.0093
27904W        W70920  29.789  19.432  25.353 -0.2422  0.5443 -0.3518
27905W        W70921  29.960  33.839  26.148 -0.0914  0.3053  0.0658
27906W        W70922   2.112  20.688  19.337  0.0573  0.0855 -0.1799
27907W        W70923   7.140  26.109   2.770 -0.1506 -0.0436  0.2101
27908W        W70924   9.696  15.138   6.036 -0.0710  0.0621  0.3126
27909W        W70925  22.890  26.863   8.090 -0.0182  0.0030  0.1058
27910W        W70926   6.705   3.577  29.222  0.0508 -0.1074  0.0419
27911W        W70927  32.505   8.246  26.570 -0.1520  0.2608 -0.3470
27912W        W70928   2.245   1.776  15.706 -0.0352  0.3966  0.2282
27913W        W70929  11.957  12.846  21.876 -0.0552 -0.0666  0.0464
27914W        W70930   6.246  17.262   3.378  0.4296  0.1133  0.2399
27915W        W70931   6.187   6.543  17.023 -0.2706  0.1330  0.1151
27916W        W70932  32.064  26.680  26.867 -0.0556 -0.2357  0.3433
27917W        W70933   5.503  13.713  26.119  0.1268  0.3574 -0.1585
27918W        W70934  11.479  14.930  20.748  0.1991  0.1959 -0.1873
27919W        W70935  13.402  21.670  28.118  0.0526 -0.1889 -0.2152
27920W        W70936  10.709  19.880   7.612 -0.0263  0.2572  0.1939
27921W        W70937   0.776  29.935  22.431  0.0316  0.1055  0.1839
27922W        W70938  11.001   2.113  22.188  0.1570  0.1203  0.1606
27923W        W70939   6.911  18.346  24.163 -0.0616  0.1027 -0.4073
27924W        W70940  14.193  19.417   8.285 -0.1025 -0.3654 -0.5736
27925W        W70941  17.648  18.109   2.516  0.1184 -0.0961 -0.0298
27926W        W70942  32.509  20.738  24.416 -0.1466 -0.1335 -0.0325
27927W        W70943   0.214  13.167  22.359 -0.1808 -0.0620  0.2071
27928W        W70944  26.208  23.424  23.018 -0.2693  0.0402  0.2411
27929W        W70945   4.414  12.409  25.876 -0.1547 -0.1651 -0.4402
27930W        W70946  28.208  29.961   8.948 -0.0103  0.3302 -0.0458
27931W        W70947  33.179  19.211  22.823  0.1638  0.1235  0.0249
27932W        W70948   0.919   0.395  25.761  0.0516 -0.0103 -0.1410
27933W        W70949  27.661  30.205  15.680  0.2789  0.0301 -0.0556
27934W        W70950  11.285   5.278  23.940  0.0350  0.3252 -0.0129
27935W        W70951   6.358  15.536  18.266  0.0793 -0.1285  0.3154
27936W        W70952   0.567  32.638  25.783  0.4316  0.3294  0.1548
27937W        W70953  32.600  22.892  15.511  0.0909 -0.2124  0.0503
27938W        W70954   7.728  26.977   4.755 -0.0382 -0.0397 -0.0473
27939W        W70955  18.305  24.809  18.807 -0.0299  0.1441 -0.0903
27940W        W70956  34.139  13.383  23.665 -0.3057 -0.1961  0.0648
27941W        W70957  23.008   7.991  19.303  0.1132 -0.0289  0.0248
27942W        W70958  12.648  20.662  26.589  0.0245  0.0628  0.0323
27943W        W70959   6.829  14.217  28.217 -0.3458  0.0733 -0.2446
27944W        W70960  22.029  19.533  25.268 -0.0166  0.0189  0.3544
27945W        W70961   8.698   9.484   7.998 -0.1285  0.1056  0.2182
27946W        W70962   2.981   0.224  15.872  0.0031  0.0065 -0.0365
27947W        W70963  32.691  15.499  16.924 -0.4189 -0.1960 -0.0799
27948W        W70964   3.178  27.108  15.070  0.0363 -0.0583  0.4202
27949W        W70965  12.187   2.553   8.266 -0.3285  0.1716  0.1948
27950W        W70966   6.307  13.670  24.842 -0.0393 -0.0449 -0.1394
27951W        W70967  18.522  14.444  13.101 -0.1485  0.3894 -0.2563
27952W        W70968  21.916  17.677   0.372  0.1550  0.3002  0.2296
27953W        W70969  13.807  20.313   8.751 -0.0434  0.2392 -0.0491
27954W        W70970   5.577  16.620   2.398 -0.1799 -0.2864 -0.2167
27955W        W70971  13.596  19.073   1.853 -0.0943  0.3636  0.4297
27956W        W70972  29.971  26.917   4.338  0.0327  0.1005 -0.1718
27957W        W70973  11.390  21.307  12.752 -0.2947  0.2341  0.2490
27958W        W70974  13.884  11.501   1.263 -0.2123  0.1483  0.0451
27959W        W70975  29.692  15.223  16.080 -0.1263 -0.1083  0.1995
27960W        W70976   7.084  16.135  24.679  0.2019 -0.1440  0.0061
27961W        W70977  14.238  31.462  22.044  0.0396 -0.0201  0.0542
27962W        W70978  29.985  18.661   4.306 -0.2628 -0.0833  0.0943
27963W        W70979  30.797  21.145   3.429 -0.3061  0.0312  0.0636
27964W        W70980  34.561  21.378  27.884 -0.0431  0.2218 -0.0100
27965W        W70981  26.530  24.577  28.336 -0.1720 -0.4105  0.0135
27966W        W70982  12.799  16.267  28.396 -0.4380  0.2771  0.0281
27967W        W70983   6.599   8.057   6.407 -0.1788  0.4981  0.2045
27968W        W70984  31.127  22.166  16.599 -0.0350  0.2001  0.0232
27969W        W70985  27.276  19.390  19.810  0.1303 -0.0867 -0.0330
27970W        W70986   1.633  20.079  19.824 -0.5242 -0.1733 -0.0736
27971W        W70987   3.709  29.149  27.173 -0.0317 -0.1061  0.0766
27972W        W70988  12.479  20.334   2.384  0.2130  0.0656 -0.2045
27973W        W70989  30.510   9.267  22.346  0.1197  0.0395  0.0595
27974W        W70990  10.530  28.408  21.895  0.1259  0.0082  0.0307
27975W        W70991  32.787  23.733  10.147 -0.1818 -0.0571 -0.0581
27976W        W70992   3.854  15.252  28.589 -0.1705  0.0002 -0.0720
27977W        W70993   5.006  11.955  25.756 -0.1371  0.0434 -0.0195
27978W        W70994  13.662   6.706   0.042  0.2521  0.1432 -0.0652
27979W        W70995  16.433  15.694  24.814 -0.1068  0.2317  0.1273
27980W        W70996   9.698  23.616  17.748 -0.3584  0.0539 -0.2146
27981W        W70997  22.231  13.599   7.377 -0.0341 -0.1663 -0.3795
27982W        W70998   7.004  19.393  20.912 -0.3055 -0.1195 -0.0609
27983W        W70999  17.145   7.260  16.015  0.2061 -0.5117  0.1397
27984W        W71000  34.444  16.381   5.887 -0.0776  0.2279  0.0405
27985W        W71001   5.449  11.195  23.483 -0.2960 -0.0767 -0.2635
27986W        W71002  10.886  31.799  20.767  0.1003 -0.0326 -0.0199
27987W        W71003  32.051  26.839  24.424 -0.0292 -0.2234 -0.1834
27988W        W71004  15.690  19.947   6.000 -0.1017 -0.0677  0.0377
27989W        W71005  18.939  16.031   0.048 -0.3303  0.0999 -0.2106
27990W        W71006  12.027  33.556  21.443  0.3682  0.1948 -0.1455
27991W        W71007  18.610  10.433  18.208  0.1764 -0.3106  0.1180
27992W        W71008  17.877  24.384  14.384  0.1343  0.2641  0.1887
27993W        W71009  33.982   2.144  23.692  0.0116 -0.1240  0.2863
27994W        W71010  10.535   3.973   1.315  0.1037  0.2210 -0.1733
27995W        W71011  26.790  20.101  20.237 -0.1909 -0.4418 -0.0062
27996W        W71012  15.101  25.180  17.368  0.1883  0.4020 -0.0222
27997W        W71013  16.661  13.291   3.405  0.0238  0.0842  0.2605
27998W        W71014  27.776  15.755   5.931 -0.1131  0.1122 -0.1900
27999W        W71015   4.167   4.489  26.481  0.1224 -0.2488 -0.1480
28000W        W71016  12.380   9.138   6.464  0.1184 -0.1412  0.2197
28001W        W71017  33.689  24.393   0.380  0.2295 -0.0801  0.0762
28002W        W71018   5.667   9.632   3.997  0.2505  0.3189  0.2897
28003W        W71019  26.622   3.984   0.545  0.0651  0.2267  0.0456
28004W        W71020  33.891  12.892  27.906 -0.1153  0.2089 -0.0937
28005W        W71021   2.330  22.501  21.306 -0.2373 -0.0483  0.1743
28006W        W71022   1.156  22.722   2.769  0.3131  0.3875 -0.0329
28007W        W71023   9.075   7.414  24.242  0.0298 -0.0287  0.3621
28008W        W71024   1.592  23.015  27.951 -0.1706 -0.1525  0.1271
28009W        W71025  13.654  34.342  17.096  0.1653  0.0810 -0.0223
28010W        W71026  33.649  10.242   5.472 -0.4392  0.1245 -0.1481
28011W        W71027   2.101  20.579  18.415 -0.0538  0.2535 -0.0524
28012W        W71028  14.259   2.958   6.855 -0.1138 -0.1129  0.1496
28013W        W71029   1.085  14.534  16.124 -0.0487  0.0676 -0.0599
28014W        W71030  10.243  22.696  15.477  0.2723  0.0411  0.0333
28015W        W71031   4.290  18.037   5.024 -0.0205 -0.2841 -0.0867
28016W        W71032   3.224  25.987   3.645  0.1208 -0.0493  0.0886
28017W        W71033   4.630  24.015  16.106 -0.2397 -0.4675 -0.1019
28018W        W71034  11.723   9.055  18.320  0.1685  0.2767  0.1951
28019W        W71035  23.951  26.327   9.520 -0.1157  0.0772  0.1363
28020W        W71036  18.404  20.708   5.391  0.0859 -0.0713 -0.0176
28021W        W71037   8.040   7.100   5.448  0.4631 -0.0575  0.2656
28022W        W71038   3.299  11.090   1.944 -0.1259  0.1364  0.0327
28023W        W71039  15.956  12.691   5.288 -0.1494 -0.1383  0.0730
28024W        W71040   3.522  10.581  24.103 -0.1467  0.2693 -0.3210
28025W        W71041   5.424  20.671  25.896  0.2510 -0.1544 -0.0907
28026W        W71042   7.800  21.561  18.636  0.0168  0.1189 -0.0730
28027W        W71043  27.854   7.559  21.253  0.0767 -0.0119 -0.0570
28028W        W71044   9.490  10.572  24.774  0.0306 -0.4305 -0.0048
28029W        W71045  13.845  17.872   1.634  0.2087 -0.0840  0.1278
28030W        W71046  20.657   7.396   1.219  0.1138  0.2528 -0.0763
28031W        W71047  31.471  22.741  26.908  0.1033 -0.1551  0.0855
28032W        W71048  22.307  27.916   1.380 -0.1838  0.1521  0.1795
28033W        W71049  19.700   6.624  26.058  0.2370 -0.0839  0.1809
28034W        W71050  10.369  32.449   3.160 -0.1599 -0.1236  0.1056
28035W        W71051   3.922  13.673   3.260 -0.1274 -0.0688  0.1907
28036W        W71052   1.609  22.266  21.394  0.0335  0.3399  0.1197
28037W        W71053   4.039  14.613  23.807 -0.0769 -0.1252  0.0798
28038W        W71054  25.556  16.020   2.125  0.2452  0.0092  0.1940
28039W        W71055  33.845  33.176  28.005 -0.2657 -0.0641 -0.1661
28040W        W71056  32.501   8.430   6.863 -0.3288  0.1721 -0.0307
28041W        W71057  22.721  21.081  13.720  0.3125  0.2590  0.0542
28042W        W71058  14.016  17.175   1.915 -0.0833  0.0655  0.4327
28043W        W71059  33.830   7.366   7.642  0.0065  0.1291  0.0416
28044W        W71060  29.510  18.806  29.283 -0.0056  0.1606  0.0188
28045W        W71061  17.917  15.048  26.612 -0.2198  0.1445  0.2438
28046W        W71062   4.166  13.071  22.853 -0.0259  0.2949 -0.1070
28047W        W71063  28.143  31.323   2.281  0.3702 -0.3248 -0.0975
28048W        W71064   8.739  22.401  20.010  0.3204  0.1113 -0.3792
28049W        W71065   2.385   9.200  28.404 -0.0561  0.3007  0.0234
28050W        W71066  17.430   2.023  13.439  0.0089  0.2585  0.1313
28051W        W71067  14.218  17.990  20.199 -0.0039 -0.1869  0.0857
28052W        W71068   6.847  18.143   5.320  0.2146  0.2545 -0.1857
28053W        W71069  28.632   6.455  23.924 -0.1379 -0.1523  0.1658
28054W        W71070  16.746  15.503   3.284  0.0900  0.0371 -0.1279
28055W        W71071  30.029  23.035  10.375  0.1781  0.2267  0.2037
28056W        W71072   4.213  27.521   1.695 -0.1805  0.2168 -0.2125
28057W        W71073   8.028  15.577  25.422 -0.0958 -0.1234  0.2912
28058W        W71074  31.469  19.175  15.219 -0.3088  0.2206 -0.1291
28059W        W71075  22.172  17.703   1.572  0.0546  0.0259 -0.0629
28060W        W71076   7.498  18.683   0.467  0.0784  0.0883  0.1979
28061W        W71077  31.021   3.027  19.896 -0.0812 -0.2761 -0.1922
28062W        W71078   1.726  24.101   7.147 -0.2010  0.1238  0.0787
28063W        W71079  13.169  13.678   6.445 -0.1987 -0.4088 -0.1265
28064W        W71080   4.602   7.809   0.197 -0.0766  0.2482 -0.2262
28065W        W71081  12.719  15.585   0.167  0.0678 -0.0602  0.1926
28066W        W71082  26.075  20.356  24.824 -0.2656 -0.0716 -0.1095
28067W        W71083   6.493  20.942  17.460 -0.4309 -0.1230  0.2492
28068W        W71084  10.490   3.442   6.078 -0.2016 -0.0842  0.2078
28069W        W71085  32.749  20.112  27.989  0.0114  0.2990 -0.1909
28070W        W71086  27.713  29.049  19.572  0.1984  0.3310  0.0956
28071W        W71087   8.926  25.080  24.572 -0.2312  0.0429 -0.0631
28072W        W71088  11.174   3.821   4.610 -0.0775  0.0911 -0.0381
28073W        W71089  17.879  34.464  22.807 -0.2496  0.3289  0.0345
28074W        W71090  30.836  10.132  19.623  0.1124 -0.1922  0.2002
28075W        W71091   8.344  30.824   4.236  0.2937 -0.0891  0.2039
28076W        W71092  12.075  14.164   2.770  0.0371  0.1025  0.0049
28077W        W71093  28.336   7.581  28.557 -0.0849 -0.5087  0.1259
28078W        W71094   3.785  33.111  23.835 -0.2919  0.0435  0.0774
28079W        W71095  10.708  23.096  19.818  0.0013 -0.0513 -0.0555
28080W        W71096   5.304  22.049   8.559 -0.2351  0.1399 -0.2608
28081W        W71097  22.357  15.697  24.683 -0.2301  0.2158  0.0965
28082W        W71098  20.527   9.341   3.053  0.1343  0.0622  0.0545
28083W        W71099   7.684   0.915   5.555  0.0931 -0.3261  0.3593
28084W        W71100  10.315  15.176   1.155  0.0916 -0.2159  0.0191
28085W        W71101  16.960   7.781   9.029  0.0289 -0.0868 -0.3615
28086W        W71102  31.559  10.797  22.258  0.1245 -0.4032 -0.0627
28087W        W71103  12.366  12.330  17.238  0.1323 -0.0502 -0.1168
28088W        W71104   6.633  15.913  18.018  0.4394 -0.1545  0.0827
28089W        W71105  34.437  34.678   0.617  0.0861  0.1071  0.0402
28090W        W71106  31.129  13.827  25.423 -0.0875  0.0051 -0.3021
28091W        W71107   2.076   9.571  23.280 -0.4098 -0.0586  0.2398
28092W        W71108  11.462  18.173  19.736  0.0015 -0.1744 -0.1764
28093W        W71109  11.544  30.274   3.269 -0.0437  0.1217  0.2208
28094W        W71110   4.135  24.596  21.577  0.3442 -0.1648  0.0431
28095W        W71111  14.549  21.951  20.636  0.0439 -0.0490  0.3494
28096W        W71112   7.165   9.112   5.428 -0.1451 -0.0797 -0.2444
28097W        W71113  12.118  23.286  26.267  0.2863 -0.1398  0.0051
28098W        W71114  15.172  21.816  13.924  0.2460  0.1193  0.2669
28099W        W71115  13.294  16.378  27.688 -0.5638 -0.4689 -0.1108
28100W        W71116  28.187  33.722   8.401 -0.0842 -0.2896  0.0059
28101W        W71117  14.914   9.951   7.675 -0.1386 -0.2464  0.1028
28102W        W71118   5.203  14.191  13.994 -0.1009 -0.1342 -0.2185
28103W        W71119  26.177   1.623   9.449 -0.6963  0.0230  0.0869
28104W        W71120   4.551  32.384  21.629 -0.0614 -0.4013  0.2637
28105W        W71121  21.238  34.058  20.626  0.1324  0.2072  0.1640
28106W        W71122  14.401  31.039  25.518  0.0305 -0.0278  0.0141
28107W        W71123   4.031  12.951  24.511  0.2721 -0.0586 -0.1074
28108W        W71124   5.799   4.825   4.026  0.0201  0.0666  0.0478
28109W        W71125   8.071   3.196   9.856  0.0891 -0.0775  0.2516
28110W        W71126   3.986   9.625  14.779  0.0742 -0.1268 -0.4412
28111W        W71127   0.352  23.597  24.817 -0.0038 -0.0291 -0.1364
28112W        W71128   2.453   7.188  20.253 -0.2736 -0.0225  0.0790
28113W        W71129   5.918  15.820  28.732  0.0797  0.0622 -0.2921
28114W        W71130   7.578  11.242   9.720  0.2460  0.0393  0.0056
28115W        W71131  13.901   2.424   6.725  0.0137 -0.1595  0.1263
28116W        W71132  13.651  26.662  27.724 -0.2048  0.0033 -0.3502
28117W        W71133  32.736  26.715   5.361 -0.0106  0.2139  0.0825
28118W        W71134  10.721  22.177   0.099 -0.0337  0.2080  0.0132
28119W        W71135  31.322  18.934  28.265 -0.2312  0.0904  0.4125
28120W        W71136   7.566  19.368   7.624 -0.1717  0.3049  0.0349
28121W        W71137  24.766  30.453   5.045  0.1449  0.0459 -0.0301
28122W        W71138   3.258  13.530  26.642  0.2673 -0.3302 -0.1068
28123W        W71139   3.941   2.004   5.084  0.1181  0.3439 -0.2146
28124W        W71140  18.334  18.318  16.552 -0.1941 -0.0906 -0.0587
28125W        W71141   3.477   3.390   1.691 -0.2553 -0.3028  0.0693
28126W        W71142  18.262  31.129  28.532  0.2095  0.3706  0.0837
28127W        W71143   4.694  30.127  25.895  0.2322  0.0884 -0.0222
28128W        W71144  30.243  15.144  24.257 -0.2069  0.2794  0.1436
28129W        W71145   3.150   9.462  27.548  0.1284 -0.1613  0.0849
28130W        W71146  12.259  20.251   6.606 -0.0791 -0.0515 -0.0208
28131W        W71147  23.703   4.241  28.986 -0.6830 -0.3554 -0.1046
28132W        W71148   6.809  12.848  25.679  0.0198 -0.3576 -0.1640
28133W        W71149  13.150  12.768  15.851  0.0680  0.0660 -0.2020
28134W        W71150   5.440  26.185   8.962  0.1653  0.1446 -0.3481
28135W        W71151  19.838  17.375   2.694 -0.2749 -0.5900 -0.0061
28136W        W71152   3.731  32.462   9.038  0.1575  0.0548  0.0605
28137W        W71153   6.286   9.084  27.240 -0.1939  0.1934 -0.1669
28138W        W71154  27.167  24.961   8.581  0.4008 -0.0166 -0.0447
28139W        W71155   0.004   6.836   8.315 -0.1108  0.3061 -0.0236
28140W        W71156  30.485  13.875  28.080  0.0767 -0.1750  0.0022
28141W        W71157  19.245  10.079   1.722  0.1134 -0.1645  0.3933
28142W        W71158  20.303  14.735  20.090  0.3441 -0.0898 -0.2322
28143W        W71159   7.912  17.549  21.042  0.2078  0.0822  0.0051
28144W        W71160  33.810  14.870  26.199  0.0959 -0.0049 -0.0465
28145W        W71161   0.565  14.067  24.589  0.1993 -0.0893  0.0440
28146W        W71162  26.077  19.385  23.618  0.2046 -0.3284 -0.0027
28147W        W71163   2.006  11.268   3.244 -0.2491  0.0891 -0.1903
28148W        W71164   5.623  19.466  27.055 -0.2305  0.0968  0.0088
28149W        W71165   6.280   7.626  10.034  0.1832  0.2810  0.3673
28150W        W71166  22.989  12.645  17.987  0.0866 -0.0824  0.0650
28151W        W71167  14.351   1.372   1.628  0.0763 -0.1033 -0.3954
28152W        W71168  15.227   2.895   1.387  0.3272  0.3898  0.1241
28153W        W71169   8.237  22.051   2.140  0.0760  0.1221  0.3002
28154W        W71170  10.466  18.407   0.571  0.0845 -0.0644  0.0459
28155W        W71171   4.547  18.777  15.286 -0.0451 -0.2233  0.0477
28156W        W71172   3.104   2.054   4.769  0.2292 -0.1871  0.0508
28157W        W71173  22.778  14.823   6.773  0.1401 -0.1504 -0.0101
28158W        W71174  13.473   7.199  20.868 -0.1249 -0.0483 -0.0606
28159W        W71175   9.370  14.432  24.327  0.1366 -0.0678  0.1676
28160W        W71176  33.659  18.894  17.542  0.0013 -0.0919 -0.1067
28161W        W71177  11.636  18.720  19.803  0.2116  0.1444  0.1734
28162W        W71178   1.681  27.343  29.154 -0.0211  0.3210 -0.0154
28163W        W71179  10.042  25.058  21.266  0.3740 -0.0827 -0.3051
28164W        W71180  14.356  20.003  14.387  0.2279 -0.1096 -0.0566
28165W        W71181  20.698  21.743   7.678 -0.1811  0.3799 -0.2368
28166W        W71182   7.996  26.392  17.350  0.2207 -0.0424  0.0014
28167W        W71183  22.766  18.291  18.117  0.1688 -0.0851 -0.0994
28168W        W71184   3.405  33.327  18.445  0.1629  0.0613  0.4906
28169W        W71185  31.945  31.529  16.925  0.1462 -0.1145  0.3212
28170W        W71186  28.674  16.213  24.492 -0.1954  0.0987 -0.1800
28171W        W71187   6.253  18.526   6.178  0.0969 -0.0373  0.0924
28172W        W71188   0.050  10.904  21.873  0.0232  0.1258 -0.1314
28173W        W71189   6.670  16.134  25.116  0.1410  0.1530 -0.2219
28174W        W71190   7.732   9.911  20.786  0.0135  0.1221  0.0400
28175W        W71191   0.683   5.363  17.013 -0.0360 -0.0891  0.0977
28176W        W71192   6.824  31.547   2.821 -0.2056  0.0363 -0.0997
28177W        W71193   9.480  25.343  21.615  0.2698 -0.1824  0.0395
28178W        W71194  13.690  28.268   0.195 -0.0048 -0.0376  0.0218
28179W        W71195  18.325   1.968  23.776 -0.1963 -0.1190  0.0054
28180W        W71196  22.512  20.843  14.829 -0.2308 -0.1219 -0.2152
28181W        W71197  34.564  12.738  21.121  0.2498 -0.3776 -0.0304
28182W        W71198   1.165  23.034  21.585 -0.1508 -0.1061  0.1607
28183W        W71199  28.705  28.480  18.300 -0.1576  0.2356  0.0840
28184W        W71200  13.099  22.461  25.482  0.3228 -0.0426  0.1378
28185W        W71201  24.672  16.960  16.576  0.0658  0.0860 -0.2018
28186W        W71202  14.691   8.416  18.881  0.2026 -0.0982  0.1456
28187W        W71203   7.332   5.370  25.023 -0.1315  0.1083 -0.0544
28188W        W71204   6.778  23.872  19.087  0.1416  0.2163  0.3044
28189W        W71205  10.992  18.620  13.306  0.1816 -0.1133  0.1153
28190W        W71206  15.574  17.877  11.345  0.2007  0.2006  0.0139
28191W        W71207  11.794  17.057  21.002  0.1749 -0.0255  0.0490
28192W        W71208  22.827  20.198  19.941 -0.0815  0.2089 -0.1277
28193W        W71209  13.124  27.893  16.576  0.5407 -0.1350 -0.0371
28194W        W71210  25.077  31.855  16.337 -0.2421 -0.1540 -0.2576
28195W        W71211  26.151  15.334  24.868 -0.2428 -0.2531  0.2869
28196W        W71212  14.035  27.690  19.280  0.0832 -0.4226  0.0411
28197W        W71213  28.760  22.874  22.255  0.0244  0.0079 -0.3323
28198W        W71214   1.164   2.060  28.558  0.2634 -0.1937 -0.2032
28199W        W71215   6.346  27.961  17.678 -0.2538 -0.1056  0.0734
28200W        W71216   8.361   7.655  16.465 -0.1008 -0.2308 -0.2472
28201W        W71217  10.212  19.451  13.933 -0.0970  0.1009  0.0092
28202W        W71218  30.804   1.696   8.104 -0.0698 -0.1761  0.1977
28203W        W71219  15.489  25.095  19.133 -0.1214  0.2514  0.3188
28204W        W71220  17.896  10.176  15.750  0.4690  0.0525  0.0930
28205W        W71221  12.892  21.846  12.649  0.2109 -0.0922  0.4000
28206W        W71222   9.393  13.565  17.164  0.1744  0.2836  0.3647
28207W        W71223  11.267  26.076  20.081 -0.0181 -0.1701 -0.2305
28208W        W71224  30.886  22.259  22.302 -0.1818  0.0951  0.1297
28209W        W71225  10.200  18.928  14.814  0.0122  0.0703 -0.0748
28210W        W71226   6.508   3.513  17.257  0.0765  0.3835  0.0329
28211W        W71227  15.430  25.885  25.295  0.0560 -0.1494  0.1250
28212W        W71228  16.830  18.844  22.914  0.2950  0.2704  0.1219
28213W        W71229   3.446  22.452  23.926 -0.3102  0.0279 -0.0443
28214W        W71230  12.523  29.993  15.078 -0.1731  0.0751 -0.0586
28215W        W71231  11.777   3.670  22.978  0.2042 -0.0893 -0.0369
28216W        W71232  33.176  15.863  28.037  0.0551  0.0369 -0.3021
28217W        W71233   0.452  29.608  29.085  0.1600 -0.1132  0.2315
28218W        W71234   5.046  28.010  21.855  0.0818 -0.1133  0.0354
28219W        W71235   8.711  18.420  24.780 -0.3388 -0.2401 -0.1864
28220W        W71236  22.530  29.303  27.277 -0.7004  0.0408 -0.1729
28221W        W71237   8.376  26.476  15.032 -0.0282 -0.2538  0.0416
28222W        W71238  32.991  18.627  14.677  0.1192  0.1330 -0.0788
28223W        W71239  21.116  15.338  15.155 -0.0415  0.0113 -0.2377
28224W        W71240   4.959  24.816  15.176 -0.3737  0.2055  0.1025
28225W        W71241   9.337  28.504  27.640  0.1067  0.3446  0.1564
28226W        W71242  30.473   2.973   0.245 -0.1469  0.2283 -0.2060
28227W        W71243   0.154  32.111   5.327  0.0554 -0.1314  0.1826
28228W        W71244   0.141  14.392   9.808 -0.0543  0.1083  0.1301
28229W        W71245  22.114   4.460  20.452 -0.2922 -0.1201  0.1598
28230W        W71246  13.011  17.191   6.894  0.2282  0.1512 -0.0090
28231W        W71247  24.800  23.300  15.614 -0.0706  0.1286 -0.0083
28232W        W71248  26.413   9.940  16.882 -0.2440 -0.2143 -0.1795
28233W        W71249  28.375  24.345  16.844  0.0666 -0.0274 -0.1097
28234W        W71250  19.703  25.391  20.523 -0.1241 -0.1361 -0.0700
28235W        W71251  10.048  32.476   6.774 -0.4470 -0.3516 -0.0325
28236W        W71252   2.545  13.557  17.430  0.3723 -0.1257  0.0599
28237W        W71253  10.341  31.889  20.053  0.2099  0.1449  0.0533
28238W        W71254   3.056  16.795   2.738  0.0508 -0.0803 -0.1395
28239W        W71255  30.575  29.652   7.079  0.0408 -0.0490 -0.1888
28240W        W71256  31.083  19.951  16.276  0.0424 -0.1432  0.0097
28241W        W71257  14.055  24.717  12.684 -0.1614  0.0834 -0.1955
28242W        W71258   7.177  18.638  19.493 -0.2390 -0.0093  0.0125
28243W        W71259  10.728   9.965  15.055 -0.0378 -0.1093  0.1598
28244W        W71260  13.215  13.264  16.661 -0.0366  0.2130  0.1097
28245W        W71261  18.769   5.797  15.086  0.0230 -0.0056  0.0684
28246W        W71262   9.558  14.630  19.181 -0.2613 -0.0259 -0.1403
28247W        W71263   8.403  25.954  19.338 -0.4259 -0.2271 -0.1261
28248W        W71264  10.964  15.513   1.369 -0.3125  0.0832  0.1029
28249W        W71265  30.853  22.573  17.802 -0.0606 -0.0005  0.4005
28250W        W71266  31.027   1.670  17.119 -0.0091  0.1359  0.1888
28251W        W71267  13.026   5.408   1.747 -0.0948  0.1239  0.1900
28252W        W71268  16.652  24.606  16.974 -0.0050  0.0572  0.1175
28253W        W71269   0.224  26.649  17.581  0.4607  0.1893 -0.0878
28254W        W71270  15.545   7.135  17.979  0.2538  0.2425 -0.0936
28255W        W71271  10.658  23.829  14.757 -0.2133 -0.0083  0.0616
28256W        W71272  11.641   8.869  22.150 -0.1352  0.0854  0.0118
28257W        W71273   8.819  13.533  25.517 -0.2143 -0.1013  0.0576
28258W        W71274  17.386  29.212  25.988 -0.0236 -0.0292 -0.1733
28259W        W71275  32.993  21.445  16.463  0.3141  0.0417 -0.2022
28260W        W71276  30.174  17.465  16.991  0.2459  0.2536 -0.2109
28261W        W71277  16.167  18.591  26.933 -0.1550 -0.3292 -0.1483
28262W        W71278   7.725   1.123  21.189 -0.0625  0.2065 -0.0798
28263W        W71279   3.940  25.190  27.695 -0.2756 -0.0544 -0.2629
28264W        W71280   0.352  19.612  15.387 -0.3923 -0.3066  0.0894
28265W        W71281   9.690  28.624  17.456  0.0937  0.1319  0.2087
28266W        W71282   6.954  29.910  27.609  0.0033 -0.0290  0.4300
28267W        W71283   4.848  20.505  13.579 -0.3659  0.2535  0.2795
28268W        W71284  28.732  26.079  22.366 -0.3164  0.0241  0.1003
28269W        W71285  30.567  25.052  17.899  0.0945 -0.1558  0.0583
28270W        W71286  34.189  18.235  16.574 -0.3042 -0.0274  0.0724
28271W        W71287  15.043   8.362  17.982 -0.0873 -0.1534  0.0848
28272W        W71288   7.303  30.504  20.742 -0.2392  0.1248 -0.1667
28273W        W71289   8.545  29.722  21.875  0.2588 -0.3321 -0.0175
28274W        W71290  12.916  22.247  16.425  0.2264  0.2402  0.1609
28275W        W71291   0.333  22.249  14.607 -0.4015 -0.1843 -0.1587
28276W        W71292  28.124  33.153  19.345  0.1988 -0.0479 -0.1393
28277W        W71293  31.943  33.319  22.071  0.2530 -0.1719  0.1359
28278W        W71294  22.846  12.623  19.893  0.2094 -0.0423 -0.1915
28279W        W71295  33.932  13.982  22.174 -0.1988  0.0302  0.2227
28280W        W71296   3.900  20.231  24.893 -0.2773  0.6102  0.1924
28281W        W71297  24.826  13.576  19.120  0.1613  0.1936 -0.2452
28282W        W71298   6.346  20.547  22.746 -0.1443 -0.0476  0.4315
28283W        W71299   6.340  19.859  13.623  0.1478 -0.0753  0.1336
28284W        W71300   0.247  12.676  22.058  0.1673 -0.1825  0.0004
28285W        W71301  18.867   3.447  17.075  0.1357 -0.1515  0.2498
28286W        W71302  29.267   8.366  18.653  0.0031 -0.1766  0.1790
28287W        W71303  30.308  22.902  26.108 -0.1423 -0.0148 -0.0684
28288W        W71304   5.535  15.403  19.388 -0.0839  0.5451 -0.1068
28289W        W71305  22.954  10.718  18.754 -0.0951 -0.3707 -0.0466
28290W        W71306  28.099  20.360  23.755 -0.0556 -0.1213  0.2249
28291W        W71307   7.615  20.687  18.948  0.0745  0.1063 -0.1014
28292W        W71308  32.963  15.867  16.143  0.2942  0.1178 -0.0552
28293W        W71309  33.708  21.054  22.911 -0.2380 -0.0341  0.0268
28294W        W71310  16.184  16.810  13.234  0.0995 -0.1939  0.3740
28295W        W71311  28.843  29.571  16.362 -0.3640  0.0669 -0.1001
28296W        W71312   0.970  15.634  22.755 -0.0996  0.1681  0.0728
28297W        W71313  10.663  18.014  26.470  0.1163  0.4336  0.0092
28298W        W71314  15.202  24.342   8.535  0.0700 -0.3406  0.2055
28299W        W71315  27.230  14.113  15.804  0.0222 -0.1378  0.1790
28300W        W71316  31.666  25.869  17.888 -0.0617  0.0582  0.1269
28301W        W71317  34.589  27.586  16.744 -0.0591  0.2902  0.0440
28302W        W71318  13.131  26.096  24.682 -0.0347 -0.1164  0.1817
28303W        W71319  10.122   7.010  27.471 -0.4177 -0.2011 -0.0609
28304W        W71320  34.486  18.403  25.688  0.2093 -0.0242  0.1607
28305W        W71321  11.307  23.456  18.496  0.0236  0.2185 -0.5105
28306W        W71322  12.824   1.809  14.627  0.2504  0.0637 -0.0875
28307W        W71323  10.241  33.686  23.837  0.1134 -0.0588 -0.2027
28308W        W71324   1.204   7.463  14.027  0.0358 -0.5651 -0.1638
28309W        W71325  16.177   0.281  23.812 -0.3637  0.3702  0.1389
28310W        W71326  12.211  22.892  16.766  0.0503  0.1667  0.0509
28311W        W71327  18.061   6.707  21.155 -0.0298 -0.0719  0.1524
28312W        W71328   2.109  21.400  25.653 -0.2025 -0.2156  0.0937
28313W        W71329   4.544  10.979  17.529  0.2512  0.0500  0.0754
28314W        W71330  33.971  26.620  19.685 -0.2059  0.0400  0.1302
28315W        W71331   9.840  22.927  24.563 -0.2010 -0.1931  0.0656
28316W        W71332  27.249  25.930   0.348  0.1342 -0.5259 -0.2058
28317W        W71333   7.855  22.545  22.477 -0.0039 -0.2173  0.0759
28318W        W71334   8.015  22.314  28.366 -0.0812  0.0200  0.1725
28319W        W71335  14.644  31.426   0.680  0.1412  0.3278  0.2462
28320W        W71336  12.534   2.144   1.750  0.2372 -0.2073 -0.1829
28321W        W71337   2.273   3.957   4.462 -0.0917  0.1981  0.0721
28322W        W71338  27.516  20.678  19.353  0.5220  0.1780 -0.0987
28323W        W71339  16.017  20.896  12.777  0.2716  0.0091  0.1903
28324W        W71340  14.760   0.346  25.021 -0.1130 -0.0242  0.0586
28325W        W71341  28.237  32.132  19.024  0.2726  0.0872  0.2537
28326W        W71342   7.491  14.485  20.858  0.2115  0.2624 -0.1194
28327W        W71343   5.279  18.084  14.593  0.1851  0.2329 -0.1811
28328W        W71344  16.364   4.915  21.339  0.0497  0.1837 -0.2637
28329W        W71345  24.875   6.762  28.011  0.0118 -0.0739  0.0861
28330W        W71346  24.300  19.060  18.286  0.1280  0.1972  0.1892
28331W        W71347  12.811  28.988  17.001  0.1939 -0.3701 -0.3377
28332W        W71348  12.522  28.103  24.724  0.1514  0.0786  0.0713
28333W        W71349  18.198   2.741   1.802 -0.1327  0.2541  0.1923
28334W        W71350   6.544  17.767  22.923 -0.1678 -0.0501  0.0748
28335W        W71351   3.709  15.071  20.411  0.0239  0.1401  0.1796
28336W        W71352  23.488   5.644   6.633 -0.2643 -0.2498  0.0898
28337W        W71353  34.399  14.821   1.051  0.1385 -0.0137  0.0186
28338W        W71354   1.348  16.549  20.041 -0.0234 -0.1141 -0.3114
28339W        W71355  34.393  26.144  14.935  0.0505  0.1515 -0.0542
28340W        W71356   9.094  32.762  18.105  0.3907 -0.1129 -0.0187
28341W        W71357   6.150   5.987  13.900 -0.2555  0.2244 -0.1023
28342W        W71358   6.457  17.204  13.424 -0.2797  0.0880  0.2660
28343W        W71359  29.468  28.509  17.068  0.0584 -0.0345  0.5693
28344W        W71360  16.891  24.199  27.456 -0.3856 -0.1310  0.1325
28345W        W71361   2.601  30.701  15.268 -0.1930 -0.1677  0.1115
28346W        W71362   8.601  24.916  13.003 -0.2394 -0.0869 -0.0745
28347W        W71363   7.285  26.471  18.091  0.1128  0.0935  0.1727
28348W        W71364  20.918  22.956  20.984 -0.0547 -0.0464  0.0034
28349W        W71365  12.860  31.194  15.408  0.2351  0.2932 -0.1609
28350W        W71366   9.800  13.459  20.396  0.3466  0.0780 -0.2859
28351W        W71367  24.891   9.719  17.928  0.1275 -0.1663 -0.1859
28352W        W71368  31.885  11.583   0.358  0.3510  0.1584 -0.1374
28353W        W71369  17.240  28.078  15.318 -0.0321 -0.1454 -0.1416
28354W        W71370   5.457  23.146  19.919 -0.2595  0.0063  0.1127
28355W        W71371   7.316  23.993  19.151 -0.1205  0.0161 -0.0209
28356W        W71372   4.955   2.722   7.229  0.0317 -0.1990 -0.0703
28357W        W71373  34.213  10.099  20.892  0.1962  0.0160 -0.0085
28358W        W71374   9.677  24.096  23.212  0.2173  0.2334  0.1215
28359W        W71375  34.233  28.570  25.685  0.0045  0.0687  0.0589
28360W        W71376   1.429   3.109  23.027 -0.0589  0.1842  0.0484
28361W        W71377  11.863  34.539  14.487  0.1800  0.1562 -0.0090
28362W        W71378   8.809  21.824  22.510  0.0927  0.0004  0.0343
28363W        W71379  13.928  25.554  19.122  0.3317  0.0431 -0.2455
28364W        W71380  14.042  18.657   1.080 -0.1997  0.3076  0.2526
28365W        W71381   9.524  25.011  13.489  0.4614  0.1760  0.1450
28366W        W71382  32.622  33.501  19.547 -0.1401  0.0657 -0.0249
28367W        W71383  34.414  34.384  15.259 -0.1481  0.0607 -0.1093
28368W        W71384   6.871   5.139  21.015 -0.1866 -0.2191  0.2266
28369W        W71385  17.642   9.247  17.192  0.2857  0.0588 -0.2520
28370W        W71386   9.223  10.189  14.398  0.3208  0.2241  0.0543
28371W        W71387  34.779  16.928  16.133  0.1168  0.0674  0.0230
28372W        W71388  14.486  19.100  14.106 -0.2478 -0.1955  0.1891
28373W        W71389  10.212  15.037  27.248  0.0716  0.1165 -0.1752
28374W        W71390  31.763  29.744  16.720  0.2161 -0.2029  0.2218
28375W        W71391  17.044  11.040  18.851 -0.0663 -0.1222 -0.0613
28376W        W71392  32.505  14.769  21.300  0.1581  0.1072 -0.2914
28377W        W71393  10.951  14.499  15.350 -0.1814  0.2583 -0.0759
28378W        W71394   6.776  12.502  18.809  0.2898  0.0605  0.1332
28379W        W71395  27.740  20.463  22.296  0.0831 -0.3912  0.1910
28380W        W71396  29.489  17.616  27.533  0.1320 -0.1067  0.2867
28381W        W71397  16.695  26.251  16.208  0.0812  0.4127 -0.0527
28382W        W71398   0.175  27.824  28.964 -0.1127  0.1069  0.0957
28383W        W71399  11.127  13.620  14.664  0.4276  0.0311 -0.3006
28384W        W71400   0.235  22.531  17.486  0.0786 -0.1872 -0.3044
28385W        W71401  30.808  28.435  16.222  0.0334 -0.0946 -0.0964
28386W        W71402   2.236  23.075  24.794  0.0005 -0.0228 -0.0805
28387W        W71403   6.374   8.596  27.538 -0.2529  0.1881  0.1510
28388W        W71404   7.612  12.150  17.189 -0.2057  0.0335  0.3537
28389W        W71405   4.180  19.844  18.595 -0.2580  0.1577  0.0928
28390W        W71406  15.101  23.236  15.886  0.0204  0.1203  0.0828
28391W        W71407  10.199  16.225  16.735  0.0391 -0.1634 -0.1143
28392W        W71408   1.034  27.722   0.586  0.0432 -0.3011 -0.0313
28393W        W71409   4.511   3.043  20.791 -0.0061 -0.1294  0.1034
28394W        W71410  32.538  15.420  20.468  0.1930  0.2472  0.0577
28395W        W71411   5.073  32.903  23.023  0.3069 -0.1594 -0.0050
28396W        W71412  14.415  30.828  20.532 -0.1452  0.1713  0.1573
28397W        W71413   9.306  15.068  12.605 -0.0305  0.0432 -0.0698
28398W        W71414  31.451  25.708  20.417  0.0759  0.0993 -0.0903
28399W        W71415   5.147  20.011  18.083  0.1239  0.0840  0.0172
28400W        W71416   3.780  12.701  27.458 -0.0636  0.1788 -0.1392
28401W        W71417   6.266   5.672  17.593 -0.1714 -0.0216  0.1855
28402W        W71418   8.126  19.952  21.894  0.0490 -0.0668  0.1309
28403W        W71419   1.957  24.956  19.694  0.1998 -0.0107  0.0133
28404W        W71420   8.277  32.727  16.240  0.0455  0.1272  0.0889
28405W        W71421  14.128  21.835  13.616 -0.0624 -0.0959  0.2238
28406W        W71422  11.340  32.456   8.566 -0.3696 -0.0433  0.2149
28407W        W71423   5.258   5.961  15.015 -0.0370 -0.1792  0.0621
28408W        W71424  11.643  15.327  15.161 -0.2344 -0.2106  0.2858
28409W        W71425   4.961  17.658  21.403 -0.1779  0.1321 -0.0807
28410W        W71426  14.114  19.141  14.608  0.0139 -0.2709 -0.0112
28411W        W71427   5.302  24.419  22.127 -0.1911 -0.0101 -0.1678
28412W        W71428   2.431  29.565  19.047 -0.1470  0.4078  0.1904
28413W        W71429   3.652  32.169  22.148 -0.0936  0.5741 -0.1629
28414W        W71430   0.316   9.541   0.647 -0.1438 -0.4459  0.1340
28415W        W71431  34.028  34.188  13.882  0.0630  0.2885 -0.2394
28416W        W71432  10.551  16.606  14.242  0.2201 -0.2214 -0.0179
28417W        W71433  12.219  26.409  24.486  0.1945 -0.0964  0.0624
28418W        W71434   1.667  25.957  19.421 -0.4283  0.2159 -0.2339
28419W        W71435   9.685  24.701  20.011  0.0229 -0.0901 -0.2020
28420W        W71436  29.558  22.442  20.105  0.0348 -0.0979  0.0977
28421W        W71437  14.270  18.674  14.286  0.0782 -0.0819  0.0775
28422W        W71438  13.189  18.965  15.930  0.1843 -0.3026  0.0552
28423W        W71439   0.438  25.807  14.220  0.2867 -0.1945 -0.4991
28424W        W71440   7.082   2.217  25.157 -0.1349  0.4015 -0.1448
28425W        W71441  32.641  23.920  17.129 -0.0823 -0.3742  0.0268
28426W        W71442   3.126  27.109  21.599 -0.2946 -0.1984 -0.1310
28427W        W71443   7.316  33.001  10.207 -0.0647  0.3682 -0.0966
28428W        W71444  33.384   7.394  22.208 -0.1800  0.0820 -0.0318
28429W        W71445   2.368  15.724  24.543 -0.0424  0.1674  0.0951
28430W        W71446  12.465  16.889  14.195  0.1278 -0.0347 -0.0928
28431W        W71447   4.773  21.886  20.771 -0.1263  0.3663  0.2370
28432W        W71448  11.032  10.619  20.816 -0.2370  0.2125  0.2640
28433W        W71449  25.768  23.821  16.945  0.3226  0.0685 -0.0099
28434W        W71450  14.999  26.294  23.169 -0.2830 -0.2106  0.1135
28435W        W71451   7.015  31.085  25.512 -0.0621  0.2145 -0.2216
28436W        W71452  12.806  31.978  19.008 -0.1397 -0.0237  0.2003
28437W        W71453   1.047  19.677  18.378  0.2750  0.1238 -0.0162
28438W        W71454   5.212  23.296  16.017  0.0373  0.1925  0.3227
28439W        W71455  14.871  34.095  20.676  0.2643 -0.0287  0.0143
28440W        W71456  24.839  15.641  15.121  0.2760 -0.1289 -0.0734
28441W        W71457  13.500  16.372  29.044 -0.1636 -0.0644  0.3567
28442W        W71458   5.836   3.203  16.010  0.2548  0.2300  0.1246
28443W        W71459  13.735  11.561  24.272  0.4615  0.1267 -0.0681
28444W        W71460  12.307  21.129  26.765 -0.2462  0.1920 -0.3410
28445W        W71461  32.537  27.340  17.340 -0.2415  0.2460  0.0785
28446W        W71462  10.461  14.419  13.914  0.0987 -0.1139 -0.0583
28447W        W71463  13.997  26.308  16.667  0.0704  0.1152 -0.1758
28448W        W71464  10.606  27.615  19.119  0.0743 -0.2081 -0.1808
28449W        W71465   7.820  16.769  21.747  0.0542  0.0003 -0.1146
28450W        W71466  32.220  10.638  15.761 -0.2558  0.0982 -0.1599
28451W        W71467   0.208  13.337  21.441 -0.0596  0.0548  0.1473
28452W        W71468  34.250  10.612  20.535  0.0466  0.1843 -0.1671
28453W        W71469   8.822  30.353  17.706 -0.1114 -0.0414 -0.2291
28454W        W71470  14.156  25.433  17.532 -0.1188 -0.0794 -0.0053
28455W        W71471   8.380  21.158   2.938 -0.0452 -0.1794 -0.2594
28456W        W71472   9.269   4.198  25.903 -0.1779  0.0400 -0.0001
28457W        W71473   8.336   1.771  17.056 -0.0288  0.3996  0.1825
28458W        W71474  32.431  15.879  26.408  0.2532 -0.2658 -0.1419
28459W        W71475   5.723  20.707  23.814  0.0217 -0.3506 -0.1566
28460W        W71476  13.665  10.285  12.778  0.0848  0.1654  0.0681
28461W        W71477  33.239  27.727  24.547  0.0649 -0.1550 -0.3153
28462W        W71478  14.232  19.636  21.784 -0.3197 -0.0656 -0.1391
28463W        W71479   8.588  18.053  15.627  0.0404  0.1507  0.2932
28464W        W71480  24.907   2.892  22.885  0.0338 -0.0650  0.0122
28465W        W71481   6.131  10.351   1.148 -0.0907 -0.0176 -0.1690
28466W        W71482  17.429  22.632  15.068 -0.1312 -0.0169  0.2788
28467W        W71483  17.616  28.254  23.745  0.0406  0.1849  0.1618
28468W        W71484  25.109  25.084  16.448  0.3593 -0.0372  0.2429
28469W        W71485   0.618  12.431  14.494 -0.2007 -0.0704  0.0679
28470W        W71486  34.204  22.046  21.570 -0.2301  0.1095 -0.2934
28471W        W71487  17.003   2.523  15.578  0.2660  0.0086  0.0524
28472W        W71488   6.552  19.110  18.619  0.4145 -0.1800  0.0997
28473W        W71489  11.077  25.224  20.138  0.2560 -0.0315  0.1223
28474W        W71490   6.528  23.911  19.522  0.0719  0.2296 -0.0109
28475W        W71491   1.566   4.482  16.470  0.3641  0.2137  0.3301
28476W        W71492   5.066  25.868  26.396 -0.0246  0.1734 -0.4490
28477W        W71493   5.921   8.900  21.726  0.0515  0.1069  0.1406
28478W        W71494   1.005   0.138  21.569  0.1797  0.0842 -0.1133
28479W        W71495   2.724  33.214  15.321 -0.0094 -0.3728  0.0308
28480W        W71496   8.891  27.141  20.194 -0.1395 -0.2100 -0.2491
28481W        W71497  32.951  14.964  19.909 -0.2815 -0.2960  0.2165
28482W        W71498  15.162  10.643  18.214  0.0443 -0.2089  0.1479
28483W        W71499  32.209  24.663   4.597 -0.2290 -0.1386 -0.0589
28484W        W71500   5.978  14.032  28.808 -0.0237  0.3203  0.0960
28485W        W71501   3.592  22.487  19.643 -0.0656 -0.0789 -0.2082
28486W        W71502  14.269  28.513  26.870 -0.0521  0.0262  0.1846
28487W        W71503   9.134  21.282  26.493 -0.0496 -0.1943 -0.2363
28488W        W71504  26.267  25.266  17.931 -0.0814  0.0322  0.1199
28489W        W71505   5.436  16.010  22.675 -0.1703  0.1415  0.0689
28490W        W71506   6.899  25.332  19.282  0.0418 -0.2449  0.3261
28491W        W71507  33.487   8.377  13.986 -0.3139  0.2432 -0.0554
28492W        W71508  30.924  18.373   2.163  0.3800  0.1046  0.0838
28493W        W71509  16.483  22.950  25.322  0.2205  0.2455 -0.2252
28494W        W71510   1.616  29.966  16.906 -0.2075 -0.2512  0.0910
28495W        W71511   2.085   8.183  15.070  0.2421 -0.2318 -0.2537
28496W        W71512  23.881  24.361  15.229 -0.2917 -0.4184 -0.1504
28497W        W71513  23.355  27.990  27.290  0.3410  0.3015 -0.1992
28498W        W71514  28.811  13.984  16.008 -0.1092  0.3220 -0.1933
28499W        W71515  16.897  17.757   4.685 -0.2309 -0.0207 -0.1781
28500W        W71516   6.345  21.692  13.798  0.1233  0.3764  0.0154
28501W        W71517   7.119  31.283  26.236 -0.0791  0.0014 -0.1131
28502W        W71518  21.754  27.665  24.196  0.3558 -0.0530  0.1959
28503W        W71519   8.657  12.189  20.132 -0.3246 -0.0248 -0.2489
28504W        W71520   1.223  25.043  21.263  0.0719  0.2362  0.5856
28505W        W71521   3.762  17.454  19.255 -0.0854  0.2835  0.0153
28506W        W71522  22.405   6.213  15.423 -0.1632  0.2202 -0.0927
28507W        W71523  15.709  23.209  14.114  0.1557  0.1365 -0.2261
28508W        W71524  14.866   5.739  17.115  0.2325 -0.0812  0.1413
28509W        W71525   3.887  10.704   8.245 -0.3724  0.0445 -0.1494
28510W        W71526  21.287  23.270  22.695 -0.3323  0.2158  0.2128
28511W        W71527   7.140  18.162  14.560  0.0774 -0.0374  0.0662
28512W        W71528   1.969  18.068  14.438  0.0140  0.2041 -0.2633
28513W        W71529  33.247  24.947  21.186  0.0404 -0.1799 -0.2075
28514W        W71530  15.772  19.380  20.023 -0.0818  0.0038  0.1201
28515W        W71531   0.635  18.762  23.681  0.4363  0.2443  0.1638
28516W        W71532   7.878  12.292  14.510  0.0612 -0.0118 -0.0416
28517W        W71533  11.529  21.720  27.706 -0.2495 -0.0665 -0.1828
28518W        W71534  10.317  21.732  12.897 -0.1184  0.0419 -0.2704
28519W        W71535   1.779   7.983  15.428 -0.0475 -0.0589 -0.0811
28520W        W71536  25.064  27.345   5.229 -0.1019  0.2171 -0.2490
28521W        W71537  28.450  16.574  18.105  0.0352 -0.3941  0.1233
28522W        W71538   8.899  21.831  13.691 -0.0309 -0.1436  0.1912
28523W        W71539   9.540  30.171   9.223  0.2916 -0.1038  0.0821
28524W        W71540  10.245  27.798   6.688  0.2082 -0.4776 -0.0081
28525W        W71541  18.807   2.727  26.171  0.0164 -0.3014 -0.3178
28526W        W71542  33.734  27.710  19.837 -0.0113  0.4811 -0.2878
28527W        W71543  18.843  28.489  22.467 -0.2206  0.1502  0.2088
28528W        W71544  16.627  23.300  21.863  0.2044 -0.0227  0.1118
28529W        W71545  10.613  20.824  15.098 -0.1774 -0.3999 -0.0343
28530W        W71546  10.196  27.444  14.525  0.2359 -0.1021 -0.0437
28531W        W71547  11.801  30.798  16.380  0.0930  0.1540  0.0073
28532W        W71548   8.108   5.670  17.051  0.3867  0.1260  0.3395
28533W        W71549   3.753  10.772  16.723  0.2792  0.1860  0.1152
28534W        W71550   4.692  28.809  15.910  0.1070 -0.0936  0.3100
28535W        W71551   5.939  13.847   5.522 -0.3256 -0.1185  0.1397
28536W        W71552  12.758   2.858  25.166  0.0720 -0.1853  0.0060
28537W        W71553   2.243  11.036  18.812 -0.3950 -0.2754 -0.2753
28538W        W71554   5.135  18.410  14.202 -0.4919  0.2274 -0.1007
28539W        W71555  13.892  24.813   2.463  0.0476 -0.1164  0.4813
28540W        W71556  31.794  16.373  15.325 -0.0942 -0.0291  0.1419
28541W        W71557   8.271  18.962  23.049  0.0718 -0.2838  0.2715
28542W        W71558  29.397  24.781   1.487  0.3598  0.3396 -0.3208
28543W        W71559   3.934  19.950  20.531 -0.1928  0.2349 -0.0708
28544W        W71560  19.375  24.684  14.209 -0.2652  0.1599 -0.1735
28545W        W71561  10.419  24.048  15.627 -0.1108  0.1790  0.0312
28546W        W71562   0.077  15.628   5.577  0.1321  0.2115 -0.1076
28547W        W71563  10.929  29.898  22.823  0.1566  0.1458 -0.3187
28548W        W71564   8.935  26.784  16.157  0.0442  0.0177 -0.1143
28549W        W71565   7.816  16.695  24.675  0.0759  0.4279 -0.1238
28550W        W71566  33.372  33.962  24.060 -0.1618 -0.1751 -0.0807
28551W        W71567   4.601  18.087  23.788 -0.5288 -0.0281 -0.1002
28552W        W71568   7.006  21.184  15.901  0.0076 -0.0758 -0.0891
28553W        W71569  10.265  26.190  15.173  0.0314  0.1765 -0.0746
28554W        W71570   3.809   9.287  21.984 -0.3662  0.0552 -0.1252
28555W        W71571  14.573   3.653  15.102  0.2290  0.1183 -0.0446
28556W        W71572   1.430  23.428  27.044 -0.0533  0.0002  0.0269
28557W        W71573  11.047  33.540  15.423 -0.2090 -0.1261  0.0735
28558W        W71574   7.760  23.392  13.953 -0.0825 -0.0565 -0.0744
28559W        W71575   7.031  33.440  15.856  0.2570  0.1991  0.0530
28560W        W71576   7.154  12.542  15.119 -0.1657  0.1743 -0.0810
28561W        W71577  15.426   7.450  27.415 -0.2489 -0.0104  0.2757
28562W        W71578   3.279  22.719  17.173  0.0944 -0.0913  0.1806
28563W        W71579  13.426  34.702   9.646 -0.0507  0.2915  0.0683
28564W        W71580  26.617  22.619  17.994  0.4074 -0.0520 -0.0458
28565W        W71581  11.147  16.784  21.033  0.1112  0.2419 -0.0769
28566W        W71582   1.084  13.992  16.590  0.0317  0.2259  0.1901
28567W        W71583   7.692  21.373  12.649 -0.5603 -0.0251 -0.0159
28568W        W71584  12.992  23.811  22.171  0.0768  0.2400 -0.0175
28569W        W71585  21.801   7.544   1.876 -0.0164  0.3736  0.3281
28570W        W71586   3.845  13.856  14.838 -0.0993 -0.0516 -0.2331
28571W        W71587  11.274   6.861  16.807  0.0797  0.0434 -0.2179
28572W        W71588  14.820   5.947  16.289  0.1324  0.0158  0.0773
28573W        W71589   4.695  22.846   3.429 -0.0006 -0.1229 -0.2181
28574W        W71590  29.875  13.337  20.722 -0.0023  0.1263  0.1799
28575W        W71591   1.860  27.652  17.634 -0.1193  0.0147  0.1964
28576W        W71592   0.383  30.484  16.382 -0.2410 -0.1189 -0.2112
28577W        W71593   2.148  19.073   0.035  0.1318 -0.0415 -0.2016
28578W        W71594   3.165   9.593  24.226 -0.0513 -0.0585 -0.0765
28579W        W71595  34.486  19.342  20.530 -0.0292 -0.0583 -0.0056
28580W        W71596  14.058  18.114  25.508  0.2481 -0.1157 -0.1057
28581W        W71597  24.638  19.577  15.051 -0.5214  0.2428 -0.1092
28582W        W71598  13.331  23.562  12.595 -0.0099 -0.2292 -0.3117
28583W        W71599   6.030  11.547   0.106  0.1688  0.0718  0.1264
28584W        W71600  29.817   0.056  16.629  0.1592  0.1512  0.3145
28585W        W71601  12.314  14.880   6.724 -0.1131  0.0167  0.0459
28586W        W71602  15.545  16.739  14.057 -0.1472 -0.0136  0.2033
28587W        W71603  11.467  28.773   5.255  0.0565 -0.0750  0.3045
28588W        W71604  16.257  19.494  25.657 -0.1193 -0.1067 -0.0055
28589W        W71605  11.491  20.374  23.269  0.0666  0.0550 -0.0582
28590W        W71606   5.428  32.241  19.979  0.0042 -0.2930 -0.4072
28591W        W71607  15.557   5.974  13.754 -0.0692 -0.1497  0.0362
28592W        W71608   5.462  26.982  27.321  0.4607 -0.1981 -0.1847
28593W        W71609  27.987  28.131  24.009  0.0007  0.5135 -0.0612
28594W        W71610  34.272  21.553  21.547 -0.2809  0.0025  0.0339
28595W        W71611  29.503  23.869  17.002 -0.2304  0.0520  0.3824
28596W        W71612   5.476  16.889  15.245 -0.0859 -0.0216  0.0039
28597W        W71613  25.856  25.586  17.923 -0.2713  0.0496 -0.2917
28598W        W71614   3.352  23.010  20.116  0.0974 -0.0173  0.1428
28599W        W71615   7.426  17.549  13.666 -0.1468 -0.0033 -0.0488
28600W        W71616   6.544  21.882  16.778  0.0710  0.1712  0.0083
28601W        W71617   0.044  29.594  13.941  0.2343  0.0609  0.0445
28602W        W71618   5.504  26.331  17.157  0.1767 -0.1393 -0.1593
28603W        W71619  25.718  18.553  20.935 -0.1324 -0.3848 -0.0056
28604W        W71620  23.919  28.237  26.719 -0.0800  0.0342 -0.3040
28605W        W71621  10.603  11.437  15.144  0.0315 -0.1713 -0.1113
28606W        W71622   5.936  18.091  19.339  0.2697 -0.0408  0.2261
28607W        W71623   6.072   5.260  14.062  0.3268  0.3132 -0.1717
28608W        W71624  16.072   5.381  25.779 -0.5114  0.3534  0.0271
28609W        W71625   3.536  21.145  25.533 -0.1281  0.0515  0.2974
28610W        W71626   6.079  30.797   8.476  0.4685  0.0442 -0.0774
28611W        W71627  13.699  16.526   0.207  0.1554  0.0269  0.0286
28612W        W71628  31.332  33.880  21.769 -0.0539  0.0608 -0.2701
28613W        W71629  33.910  26.061  22.405 -0.2264  0.0972  0.0044
28614W        W71630  12.923  12.650  12.758 -0.1252  0.2437 -0.0199
28615W        W71631  30.898   0.628  20.658 -0.1525 -0.0930 -0.0183
28616W        W71632  31.182  22.747  22.143  0.0868 -0.0426 -0.0330
28617W        W71633  24.271   8.824  26.057 -0.0240  0.1693  0.3742
28618W        W71634   8.409  24.861  16.901  0.1074 -0.3181 -0.0374
28619W        W71635  30.291  32.876  19.029  0.1255  0.3083 -0.0514
28620W        W71636   2.256  25.081   1.060  0.0135  0.2085  0.0839
28621W        W71637   1.901  18.428  19.315 -0.2322  0.1137  0.0923
28622W        W71638  21.792   3.644   7.599 -0.0153 -0.2064 -0.1137
28623W        W71639   6.265  16.182  18.344  0.0305 -0.0222 -0.3392
28624W        W71640  13.363  15.906  14.292 -0.2363 -0.2923  0.2925
28625W        W71641  31.784   0.097  18.741 -0.0335  0.0804  0.1199
28626W        W71642  31.598  29.802  19.381  0.0293  0.1955 -0.0374
28627W        W71643  28.857  20.557  26.555  0.0940 -0.3485  0.1128
28628W        W71644   4.671  25.457  16.445  0.2154 -0.0927  0.0286
28629W        W71645  33.906  22.004  15.870 -0.3897  0.1586 -0.3266
28630W        W71646   1.622  13.836  20.573  0.0930  0.2641 -0.1340
28631W        W71647   3.093   4.474   0.184 -0.1261 -0.2261  0.0092
28632W        W71648  29.999  21.249  17.488 -0.0464 -0.1913 -0.1089
28633W        W71649   0.722   1.947  24.214 -0.1134 -0.2146  0.0643
28634W        W71650  33.001  32.818  23.670 -0.1730 -0.2763 -0.0510
28635W        W71651  28.271  34.147   6.331 -0.1600  0.0531  0.5080
28636W        W71652  32.485  11.770  27.110 -0.0545 -0.1769 -0.0473
28637W        W71653  34.319  16.806  27.064  0.1242 -0.1122 -0.3222
28638W        W71654  23.944  26.747  28.546 -0.0717 -0.2408  0.0654
28639W        W71655   8.320  24.719  17.543 -0.1585  0.2359 -0.4088
28640W        W71656   5.632  21.102  22.245 -0.0189  0.1309 -0.2015
28641W        W71657  10.257  25.072   2.889 -0.0826 -0.1931 -0.2144
28642W        W71658   6.599  15.406  15.490 -0.1814  0.1311 -0.1309
28643W        W71659  29.704  13.810  26.283  0.1037 -0.0994 -0.0594
28644W        W71660  14.650  21.368   7.001 -0.1155 -0.1196  0.3272
28645W        W71661   3.695  18.852  26.834 -0.0379  0.0392 -0.0904
28646W        W71662   2.969  14.370   1.588 -0.0806 -0.3170 -0.3433
28647W        W71663  16.936  18.014  11.630  0.3558 -0.2205  0.0495
28648W        W71664   8.675  19.787  14.807 -0.0200  0.1942  0.2062
28649W        W71665  30.488  28.883  23.390 -0.1790  0.0118 -0.0986
28650W        W71666   0.596  22.653   3.348 -0.1402  0.2841 -0.3319
28651W        W71667   4.754  16.204   2.968  0.4052  0.1239 -0.1636
28652W        W71668   3.848  12.137  22.628  0.0065 -0.2102  0.2053
28653W        W71669   2.907  13.805  26.870  0.1175 -0.0816  0.0257
28654W        W71670  17.367  20.246  27.074  0.3440 -0.1765  0.0280
28655W        W71671  24.235   2.648  23.851 -0.2408 -0.2631  0.0189
28656W        W71672   1.592  27.543  17.249 -0.0674  0.1333 -0.0669
28657W        W71673  12.894  11.744  18.429  0.2393 -0.2137  0.1553
28658W        W71674  11.986  15.901  16.932  0.2009  0.1557  0.5575
28659W        W71675  17.096   9.231  17.273  0.1188  0.0244 -0.2342
28660W        W71676   7.687  22.728   1.845  0.2194 -0.0370 -0.1815
28661W        W71677   8.843  30.587  27.686 -0.3614  0.1868  0.5201
28662W        W71678  20.033  23.703  23.057 -0.0219  0.0922  0.1255
28663W        W71679  21.877  19.311  26.310 -0.0271 -0.1206  0.1209
28664W        W71680  31.034  18.886  18.969 -0.1126 -0.0719 -0.1475
28665W        W71681  20.392  18.374  23.228  0.1874  0.0912  0.2575
28666W        W71682  11.886  16.387  14.729 -0.0482 -0.3154 -0.1158
28667W        W71683  21.807  26.970  28.197 -0.1876  0.0304  0.2694
28668W        W71684  10.585  11.130  18.194  0.1076  0.1949  0.2087
28669W        W71685  30.439   5.792   2.341  0.0075 -0.1408  0.0644
28670W        W71686  34.001  22.555  27.227  0.3504  0.2545 -0.2279
28671W        W71687  15.975  24.911  18.653  0.1091  0.2137 -0.1353
28672W        W71688  14.662  10.483  19.909  0.4466 -0.2660  0.0165
28673W        W71689  18.912   7.581  17.743 -0.3526 -0.2755  0.0303
28674W        W71690  31.530  16.666  23.600  0.3303  0.1029 -0.1078
28675W        W71691   7.410  24.803  23.296 -0.0065 -0.0445 -0.1604
28676W        W71692  27.813   5.937  25.448 -0.1071  0.2917  0.0907
28677W        W71693  24.985  23.030  24.407  0.0824  0.1173  0.0620
28678W        W71694  10.227  21.194  17.472 -0.2550  0.0156  0.1540
28679W        W71695   2.434  28.723  20.077  0.1112 -0.2816 -0.1479
28680W        W71696   2.236  11.733  17.345 -0.3130 -0.0065  0.2392
28681W        W71697   8.850  19.060  17.227  0.1876  0.4538 -0.2391
28682W        W71698  10.837  22.230  21.086 -0.2743 -0.0654 -0.1736
28683W        W71699  29.229  23.475  24.023 -0.1414 -0.1376 -0.2303
28684W        W71700  18.546   2.887  18.808 -0.4692  0.1653  0.1154
28685W        W71701  34.351  25.014   1.923 -0.2094  0.3376  0.2275
28686W        W71702  18.847   9.695  16.646  0.2925  0.4267 -0.1262
28687W        W71703   5.899  17.409   0.011  0.1879  0.1205  0.0053
28688W        W71704   5.956  16.017  15.149 -0.0646 -0.0715 -0.1703
28689W        W71705   2.168  24.021  18.169  0.0502 -0.0762  0.4456
28690W        W71706   4.566  19.192  27.243 -0.1528  0.0839  0.0998
28691W        W71707  15.854  30.900  27.683 -0.0792  0.2416 -0.2594
28692W        W71708  31.698  16.995  19.770 -0.1403  0.0990 -0.0155
28693W        W71709   5.996  20.637  14.525 -0.0088 -0.1661 -0.1175
28694W        W71710  20.195  22.525  18.592  0.1282 -0.0579  0.2199
28695W        W71711   2.689   8.590  16.190 -0.0167  0.2823  0.3486
28696W        W71712  14.119  29.765  25.516 -0.0856  0.1417 -0.3168
28697W        W71713   1.799   6.813  23.519  0.0656 -0.1311  0.0082
28698W        W71714  34.006  27.820  26.962  0.1246 -0.1749  0.0066
28699W        W71715  31.321  22.984  15.638  0.0198  0.0893  0.0215
28700W        W71716   1.054  21.804  19.226 -0.1151  0.0666  0.2292
28701W        W71717  14.792  16.976  19.175  0.2003  0.0537  0.2859
28702W        W71718  24.055  13.977   6.293 -0.1093 -0.4208  0.1256
28703W        W71719  32.822  28.235  17.305 -0.0356  0.0062 -0.1414
28704W        W71720   3.338  27.980  15.911 -0.2850 -0.1380  0.0365
28705W        W71721   7.504   9.729  21.242  0.0385  0.2319 -0.0613
28706W        W71722   0.565  28.199  15.557  0.2250  0.3337  0.0686
28707W        W71723   9.544  25.412  24.234 -0.0721  0.1842  0.2235
28708W        W71724  24.521  22.222  21.824 -0.2750 -0.1395  0.3104
28709W        W71725   7.532  28.943  14.584  0.0428 -0.2186 -0.0561
28710W        W71726   4.250  17.846   7.799 -0.0242 -0.1506  0.0451
28711W        W71727   8.134  12.193  18.631 -0.0307 -0.0117 -0.0063
28712W        W71728   7.344  19.081  25.181  0.0063 -0.0729 -0.2691
28713W        W71729  24.433  24.683   3.860 -0.3914  0.1713  0.0555
28714W        W71730   2.521  23.973  14.173  0.1923  0.1931 -0.1787
28715W        W71731  14.459   4.660  16.959  0.0123  0.1241  0.1691
28716W        W71732  26.305  30.889  20.677 -0.1453  0.0074  0.2036
28717W        W71733  17.175   9.882  13.834  0.1407  0.0264 -0.0882
28718W        W71734  29.132  20.590  16.141 -0.5173 -0.0293 -0.0647
28719W        W71735   2.782   7.131  20.659 -0.2702 -0.0479 -0.2089
28720W        W71736   2.680   2.297  21.763  0.0152  0.4516  0.1699
28721W        W71737  14.738  23.514  27.751 -0.0301  0.0747  0.5050
28722W        W71738   4.247  25.341  21.650 -0.0766  0.1222  0.2017
28723W        W71739  22.063  24.997  18.092  0.3246 -0.0721  0.1556
28724W        W71740  30.783  12.647  15.447 -0.0881 -0.7593  0.3900
28725W        W71741  29.369  23.573  21.562  0.0665  0.2776 -0.0224
28726W        W71742  32.485  25.016  16.947  0.1118  0.1135 -0.2236
28727W        W71743  19.399  19.716   1.547  0.4184  0.4042  0.0056
28728W        W71744  15.847  34.529  14.680  0.4384 -0.0758  0.0262
28729W        W71745  31.584  17.226  27.986 -0.4835  0.0213  0.2088
28730W        W71746  13.813   4.324  25.514  0.0202 -0.1728 -0.0663
28731W        W71747   5.616  27.772   4.989  0.0715 -0.1105 -0.0533
28732W        W71748  14.444  30.973  20.971 -0.2214  0.1488 -0.0886
28733W        W71749  16.899  27.561  22.997  0.1931 -0.2375 -0.3689
28734W        W71750  17.994  20.569  25.364 -0.3801  0.0060  0.0155
28735W        W71751   1.894  26.653  24.206  0.1265  0.3171 -0.0767
28736W        W71752  10.262  31.498  14.870  0.1141 -0.0545 -0.0343
28737W        W71753   3.667  17.327  18.532  0.0362 -0.1802  0.2378
28738W        W71754  12.697  25.369  26.864  0.2160 -0.0558  0.0513
28739W        W71755   1.261  18.259  27.226  0.0234 -0.4586 -0.1382
28740W        W71756  28.797  21.482  27.397 -0.0360  0.0695  0.0015
28741W        W71757  11.188  18.361  27.076 -0.2135  0.0804  0.1541
28742W        W71758   9.083  31.334  21.532 -0.1158  0.2815 -0.0590
28743W        W71759  15.902  11.770  23.246 -0.0619  0.0784  0.3977
28744W        W71760   4.615  19.352  14.584 -0.3835  0.1538  0.0936
28745W        W71761  34.160  21.147  28.544 -0.4667 -0.2798  0.1178
28746W        W71762   9.422   9.765  14.550 -0.0601  0.2914  0.0583
28747W        W71763  33.970   4.494  22.612  0.0582 -0.3440 -0.2568
28748W        W71764   9.598  21.442   7.315  0.0901 -0.0365  0.3758
28749W        W71765  28.701  20.701  15.353  0.0216  0.2942  0.1224
28750W        W71766   4.296  22.262  15.725  0.0670 -0.2786  0.1460
28751W        W71767  11.999  21.916  17.308 -0.0695  0.0197  0.0773
28752W        W71768  16.624  29.291  29.166 -0.0123 -0.0746  0.0060
28753W        W71769  24.484  20.760  17.237  0.1136 -0.1198  0.0412
28754W        W71770  32.558   5.952   0.451 -0.5318  0.1420 -0.1391
28755W        W71771   0.091  17.046   9.059  0.2344  0.0085  0.0876
28756W        W71772   2.533  14.826  21.220 -0.1154 -0.3692 -0.2073
28757W        W71773  31.280  14.203  26.112 -0.3926 -0.0834 -0.0930
28758W        W71774   0.596  21.781   1.861  0.1922 -0.1752  0.0585
28759W        W71775  13.557  17.878  27.388 -0.2183  0.2065  0.2419
28760W        W71776  28.376  30.603  19.249  0.0879 -0.0495  0.0337
28761W        W71777   2.945  18.244  24.782 -0.0742  0.2015 -0.1717
28762W        W71778  28.911  26.184  27.371  0.0891  0.0417 -0.0089
28763W        W71779   1.757  26.640  19.602  0.1473 -0.1213  0.2572
28764W        W71780  11.808  26.370  16.639 -0.3103  0.0559  0.3052
28765W        W71781  11.403   7.768  23.172  0.1528  0.4416 -0.3516
28766W        W71782  21.482  16.745  14.423 -0.1180 -0.0945  0.4617
28767W        W71783   6.058  22.981  24.637  0.0693  0.1383 -0.1528
28768W        W71784  17.632  17.516  11.791 -0.1398  0.0375  0.1927
28769W        W71785   4.479   9.434  18.040 -0.0370  0.2543  0.1892
28770W        W71786  29.939  11.756  19.935 -0.0864 -0.0092 -0.1162
28771W        W71787   5.314  18.067  16.537 -0.0077  0.2765  0.2729
28772W        W71788   3.810  11.111   5.148  0.3666  0.1764 -0.1087
28773W        W71789  16.596  11.739  17.988  0.1109 -0.0986 -0.2820
28774W        W71790  12.243  11.313  21.791 -0.3101  0.0543 -0.0412
28775W        W71791   2.940  14.050  15.089  0.2191 -0.5414  0.1013
28776W        W71792  22.656  24.478  17.181  0.1076 -0.1443 -0.2995
28777W        W71793  14.049  19.984  14.906  0.5435 -0.1008  0.0575
28778W        W71794   8.611  25.865  26.774  0.1189 -0.1239  0.2917
28779W        W71795   3.156   8.963  13.550 -0.2925 -0.0064 -0.1401
28780W        W71796  32.411   8.721  20.495  0.2410  0.0487 -0.1846
28781W        W71797  12.089  24.003  19.462  0.2789 -0.0328 -0.1132
28782W        W71798  34.709  17.207  24.163  0.0747  0.2184  0.3646
28783W        W71799   0.139  16.777  27.212  0.0057  0.3661 -0.4332
28784W        W71800  20.620  10.118  24.353  0.0615  0.0218 -0.3777
28785W        W71801  16.433  34.108  28.796  0.1359  0.1766  0.1797
28786W        W71802  11.799  28.449  16.789 -0.0308  0.1921  0.1220
28787W        W71803  10.419  20.044  27.604  0.0292 -0.3391  0.3177
28788W        W71804   6.399   0.540  16.485 -0.1048 -0.1091  0.1774
28789W        W71805  15.580  25.041  14.615 -0.1545 -0.1594  0.2249
28790W        W71806  23.278  16.052  28.843 -0.0994  0.2041  0.2850
28791W        W71807   4.305  13.148   2.053 -0.4121 -0.0807  0.0120
28792W        W71808  17.191  14.604  14.099 -0.2641 -0.1595  0.1145
28793W        W71809  11.082  29.682   5.129 -0.0553  0.0960  0.3718
28794W        W71810   8.959  24.845  15.591 -0.1732 -0.2843  0.2255
28795W        W71811  14.377  26.292   3.872  0.2560 -0.1082  0.3974
28796W        W71812  32.900  10.200   9.354  0.1136 -0.2965 -0.0422
28797W        W71813  12.655  19.903  21.026 -0.0327  0.2097  0.0601
28798W        W71814  16.934  17.508  16.962 -0.2741 -0.0057  0.1016
28799W        W71815   7.980  13.064  15.140  0.1689  0.2565  0.5106
28800W        W71816  10.604  25.926  21.199  0.1520  0.1163  0.0689
28801W        W71817   6.477  17.884  21.518 -0.1125  0.4376 -0.2361
28802W        W71818  27.347  14.471  17.014 -0.0820  0.0858 -0.1292
28803W        W71819   6.310  14.128   3.026 -0.3095 -0.4275  0.1574
28804W        W71820  20.498   5.815  19.740 -0.3365  0.1440 -0.0885
28805W        W71821  25.451  18.492   8.810  0.2047 -0.0255 -0.3508
28806W        W71822   4.706  15.232  15.357 -0.1160 -0.0996 -0.0983
28807W        W71823  11.798   7.996   1.457  0.0901 -0.0166 -0.0085
28808W        W71824  14.604   7.311  22.045 -0.1770 -0.1630 -0.3016
28809W        W71825   6.159  23.021  13.356 -0.4400 -0.1186 -0.0898
28810W        W71826  21.739  29.581  25.148 -0.2495 -0.2207 -0.0067
28811W        W71827   0.592  11.802  18.405 -0.0050  0.2337  0.0658
28812W        W71828  30.227  33.824  19.858  0.2688  0.3292 -0.1138
28813W        W71829  14.165  28.264  14.461 -0.0341  0.1063 -0.2571
28814W        W71830  30.537  14.220  21.556  0.2076  0.0189 -0.1535
28815W        W71831   3.416  21.659  21.672 -0.0735 -0.0270 -0.3877
28816W        W71832  25.726  13.583   0.853  0.0831 -0.0523  0.0796
28817W        W71833  12.163  32.078   0.944  0.0546  0.2133  0.2317
28818W        W71834  20.433  33.347  15.007 -0.0746  0.0056 -0.2225
28819W        W71835  26.343   1.691  21.436  0.0489 -0.3502 -0.2358
28820W        W71836  14.831  16.079  26.740  0.3013 -0.2557  0.0561
28821W        W71837  32.353  13.343   5.327  0.2898 -0.1469  0.0615
28822W        W71838   7.947  26.210  20.992 -0.2610 -0.0389  0.0752
28823W        W71839  29.730  33.136  16.564 -0.0435 -0.2852 -0.3891
28824W        W71840   1.228  10.484  20.873 -0.1678 -0.0915 -0.1109
28825W        W71841  24.346  13.248  18.028 -0.3239 -0.0132 -0.1762
28826W        W71842  14.167   0.121  14.430  0.2898  0.3735 -0.1412
28827W        W71843   9.219  17.219  15.216  0.1155  0.3093 -0.0155
28828W        W71844  30.400  30.740  27.340 -0.0429 -0.2116 -0.3908
28829W        W71845   0.870  13.861  18.314 -0.1024  0.2669  0.1959
28830W        W71846   2.404  15.639  26.911 -0.0256 -0.0858  0.1421
28831W        W71847  15.122  10.699  21.802  0.1449  0.1031 -0.1327
28832W        W71848   5.048  16.909  18.893 -0.0631 -0.1823  0.0469
28833W        W71849   9.801  15.764   3.164  0.0362  0.2235 -0.1689
28834W        W71850  23.455  20.529  19.364  0.2140  0.2157 -0.0281
28835W        W71851  33.221  25.678  17.342  0.1559  0.1915  0.0404
28836W        W71852  16.529   2.653  20.331 -0.2984  0.0143  0.2896
28837W        W71853   9.577  25.912  18.193  0.1586 -0.1677 -0.0947
28838W        W71854   3.958  24.754  14.929  0.0889 -0.1949 -0.1863
28839W        W71855   9.122  13.824  27.107  0.1084 -0.0569  0.0186
28840W        W71856   1.414   8.984  16.037 -0.1000 -0.0511 -0.3518
28841W        W71857  33.059  20.035   8.732  0.2206 -0.2097 -0.0511
28842W        W71858   9.489  15.323   0.062  0.0026  0.1442 -0.1404
28843W        W71859  11.250  19.925  21.188 -0.0811  0.0029 -0.3565
28844W        W71860   6.064   3.146  22.986  0.0926  0.2248  0.2281
28845W        W71861   1.790  21.538  15.294 -0.2610 -0.2094 -0.0863
28846W        W71862  33.434  10.950  23.985  0.1740  0.1822 -0.2663
28847W        W71863  15.993  25.038  21.296 -0.1309 -0.1597  0.0490
28848W        W71864   1.701  34.147  24.734 -0.0537  0.2304 -0.1598
28849W        W71865  29.197  22.376  25.510  0.3069 -0.1087  0.0849
28850W        W71866  14.112  31.811  19.387 -0.0427  0.1753 -0.1088
28851W        W71867  33.735  10.052  16.339 -0.3599 -0.0819  0.2995
28852W        W71868   6.779  22.035  26.729  0.2130 -0.1968 -0.0710
28853W        W71869  10.588  16.417  13.386 -0.2543 -0.0232  0.2033
28854W        W71870  27.666  11.348  10.700  0.2179  0.5886  0.2436
28855W        W71871  17.093  24.440  17.170  0.0196  0.1972  0.1665
28856W        W71872  11.135  25.259  19.142  0.0062 -0.0527 -0.4151
28857W        W71873  31.965  19.761  19.182 -0.2180 -0.0557 -0.2082
28858W        W71874   1.728  28.933  19.039 -0.0026  0.5032 -0.2320
28859W        W71875  10.920   9.931  19.096  0.2292  0.0489 -0.1351
28860W        W71876   5.578  10.793  16.446  0.0398  0.0763  0.0476
28861W        W71877  15.301  15.766   6.479  0.0522  0.2901  0.0398
28862W        W71878   0.574  14.398  17.031  0.0899 -0.2233  0.2130
28863W        W71879  24.235  10.687  18.059  0.0300  0.0995 -0.1872
28864W        W71880   6.858  16.839  22.653 -0.1843  0.0242 -0.2278
28865W        W71881   8.215  24.580   3.346 -0.1398 -0.3371  0.0120
28866W        W71882  25.075  22.799   0.629 -0.0324  0.0301 -0.0299
28867W        W71883   0.313   8.042  14.931  0.2081  0.1295  0.2351
28868W        W71884  32.101   1.073  16.162 -0.0132  0.1210  0.0378
28869W        W71885   6.553  30.637   7.459 -0.0914  0.2233  0.3428
28870W        W71886   8.256  16.587  19.306 -0.1355 -0.1859  0.0170
28871W        W71887   1.623  33.142  25.598 -0.0446 -0.4795 -0.2157
28872W        W71888   6.746  25.785  22.324  0.0038  0.1548  0.0623
28873W        W71889  24.239  13.053  27.242 -0.0874  0.2766 -0.1264
28874W        W71890  28.709  34.293  26.984 -0.0831 -0.3164  0.0531
28875W        W71891  33.948  21.656  16.246 -0.1110 -0.1792  0.0630
28876W        W71892   7.263  12.388  14.497  0.0542 -0.2817  0.0089
28877W        W71893  32.509  17.531  20.644 -0.0712 -0.0202 -0.3296
28878W        W71894   0.836  15.736  18.237 -0.1532  0.0295  0.0261
28879W        W71895   1.245  20.960   1.425 -0.1399  0.1372 -0.1713
28880W        W71896   9.547   6.746  26.203  0.0185  0.2120  0.0671
28881W        W71897  26.395  14.200  19.545  0.1428  0.2353 -0.2175
28882W        W71898   1.415   1.458  24.056  0.0236  0.0830  0.0165
28883W        W71899  16.416  30.539  15.205  0.0788 -0.0113 -0.1842
28884W        W71900  34.578  12.235  22.834  0.0764 -0.0681 -0.2485
28885W        W71901   8.270  26.717  17.094 -0.3018 -0.1087 -0.3066
28886W        W71902  21.990  22.609  23.751 -0.1613  0.1081  0.3020
28887W        W71903  33.624  32.054  24.047 -0.1504 -0.1608  0.1498
28888W        W71904  17.713   2.436  14.565  0.0054  0.2487 -0.3029
28889W        W71905   3.964  27.454   4.093  0.1226  0.1493 -0.0085
28890W        W71906   6.365  12.673  24.676 -0.0033  0.1385  0.0982
28891W        W71907  15.860  13.553  12.625  0.2164 -0.0462  0.2014
28892W        W71908  11.619  21.063   4.469 -0.0278  0.0430  0.1121
28893W        W71909   1.374   3.986  19.055 -0.0053  0.0996  0.0553
28894W        W71910   1.363  26.115  20.215 -0.4250  0.5058 -0.4272
28895W        W71911   4.910  17.030  26.563 -0.1811 -0.1222  0.1315
28896W        W71912   6.655  23.623  16.993  0.2471 -0.0499  0.0793
28897W        W71913  26.792  24.377  17.503 -0.1359 -0.0795 -0.0501
28898W        W71914  11.484  20.870  13.051 -0.0101 -0.0234  0.0414
28899W        W71915  28.543  20.352  23.391 -0.1701 -0.0614  0.3199
28900W        W71916   7.168  15.541  14.066 -0.0225 -0.1627  0.0101
28901W        W71917  24.191   1.130  26.124  0.1846  0.0728 -0.0863
28902W        W71918  34.238   9.909  26.460 -0.1788 -0.1001 -0.0069
28903W        W71919   8.546  32.372  27.952  0.1024 -0.0686 -0.1205
28904W        W71920  33.672  24.017  26.021 -0.0137 -0.1330  0.1224
28905W        W71921   8.486  31.397  28.010 -0.0731  0.0566  0.1120
28906W        W71922  20.174   8.504  20.037  0.0120 -0.1368 -0.2971
28907W        W71923   5.088  20.281  25.172 -0.0010  0.1536 -0.1108
28908W        W71924   1.085  17.969  17.845  0.2151 -0.0704 -0.3076
28909W        W71925  15.764  28.478  17.381  0.0388 -0.1789 -0.0083
28910W        W71926   9.063  25.834  15.019  0.0889 -0.0551 -0.0793
28911W        W71927   2.793  20.705  16.877  0.0216  0.0847 -0.1078
28912W        W71928  27.624   3.888  26.068 -0.3594  0.0415  0.0561
28913W        W71929   0.541  31.308  15.400 -0.2473  0.1460 -0.0016
28914W        W71930   0.416  16.525  21.127 -0.0591 -0.0359 -0.1088
28915W        W71931  32.251  21.091  21.611 -0.0677  0.0465  0.1605
28916W        W71932  34.296  30.281  17.144 -0.0580 -0.0962 -0.1815
28917W        W71933   0.218  23.126  26.525 -0.1672  0.0924 -0.1335
28918W        W71934  28.730  21.674   7.845  0.3314 -0.0189  0.1324
28919W        W71935  32.285  15.913  27.174 -0.0854  0.0274  0.1484
28920W        W71936   9.340  22.967  26.230  0.4880 -0.1029 -0.2877
28921W        W71937   6.788   3.679   4.377 -0.0933 -0.4478  0.1924
28922W        W71938  17.418  28.895  22.698 -0.1941  0.1204 -0.1412
28923W        W71939   6.269  30.799  17.543 -0.0090 -0.0920 -0.0045
28924W        W71940  17.619   5.594  27.433 -0.1175 -0.2029  0.0511
28925W        W71941  30.049  33.931   1.132  0.1627 -0.2271 -0.1934
28926W        W71942  10.836  21.513  24.578 -0.0999 -0.0200 -0.0341
28927W        W71943   3.224  17.958  21.076  0.0146 -0.3532  0.1587
28928W        W71944  26.075  25.888  19.389  0.1243 -0.0816  0.0752
28929W        W71945  34.559  26.727  25.077  0.2356 -0.1800  0.2085
28930W        W71946  29.042   9.308  16.999 -0.0133 -0.2387 -0.0927
28931W        W71947  14.115  16.009  11.878 -0.0837 -0.0017 -0.0437
28932W        W71948  21.465  21.471  22.249 -0.1651  0.3361 -0.2677
28933W        W71949  12.176  34.699   2.825  0.1310 -0.1888  0.0486
28934W        W71950  33.577  19.940  15.580  0.0326  0.0620 -0.0213
28935W        W71951   7.421   7.502   0.558 -0.0832  0.1832 -0.1791
28936W        W71952   2.740  27.721  14.298 -0.3515  0.1097 -0.2603
28937W        W71953  17.316  28.182  26.092  0.1162  0.1100 -0.0063
28938W        W71954  28.289  30.064  21.921  0.3436 -0.2229 -0.2462
28939W        W71955   9.105  28.096   2.931 -0.0229 -0.0475 -0.1350
28940W        W71956  25.654  12.818  19.652  0.4567  0.1593  0.0999
28941W        W71957   4.617  15.955  26.916  0.0516 -0.2116 -0.3427
28942W        W71958  16.994  23.537  15.264 -0.1175  0.1449  0.0935
28943W        W71959   4.517  10.914  20.155  0.0735 -0.4051  0.0127
28944W        W71960  13.099   1.077  14.207  0.1599  0.0265 -0.0549
28945W        W71961  33.913   5.625  29.260  0.1866 -0.1311 -0.0669
28946W        W71962   5.175  26.288  22.582 -0.2211  0.0784  0.1711
28947W        W71963  34.688  29.912   9.770  0.0613  0.0754 -0.0485
28948W        W71964   6.587  31.730  19.341 -0.1858 -0.0337  0.0247
28949W        W71965  21.843   7.140   3.623 -0.2702  0.0132  0.0647
28950W        W71966  15.721  20.546  14.162 -0.1109  0.0126 -0.0551
28951W        W71967   1.443  19.889  19.306 -0.1588 -0.0729  0.0459
28952W        W71968   9.814   9.901  14.232  0.1201 -0.0096 -0.1817
28953W        W71969   5.526  24.890  28.480  0.0436 -0.1194 -0.5912
28954W        W71970  15.644  32.657  19.995 -0.2603  0.3484 -0.2176
28955W        W71971  29.588  15.868  21.835 -0.3013 -0.1287  0.0831
28956W        W71972  31.524  11.024  24.812  0.1928  0.2262 -0.1200
28957W        W71973  14.895   8.898  16.183 -0.0340 -0.0271 -0.1175
28958W        W71974   8.121  32.133  21.357  0.0433 -0.1008  0.0123
28959W        W71975  34.013  17.290  23.869 -0.2091  0.3198  0.0561
28960W        W71976   8.256   7.205  23.247 -0.3208 -0.0576 -0.1746
28961W        W71977  18.237  18.157  22.054 -0.0950 -0.1828  0.0651
28962W        W71978  31.789  25.017  25.437  0.0327 -0.2294 -0.0948
28963W        W71979  10.206  19.594  26.455  0.0833 -0.0129  0.0364
28964W        W71980  25.859  12.506  26.089 -0.0526 -0.1759 -0.2640
28965W        W71981   4.093   7.845  24.136 -0.0623 -0.1716  0.0746
28966W        W71982   2.174   0.632  23.213 -0.1184 -0.4647 -0.4373
28967W        W71983  32.987   6.249  27.476 -0.3544  0.2956 -0.2374
28968W        W71984   3.616  23.332   7.812  0.2714 -0.1617  0.1742
28969W        W71985  24.593  26.548  21.622  0.0094 -0.0578  0.4942
28970W        W71986  18.421  12.258  19.309  0.1521  0.0622 -0.0461
28971W        W71987   0.148  11.318   1.772 -0.0860  0.1257 -0.0527
28972W        W71988  10.484   2.689  15.574 -0.0291 -0.3160 -0.0303
28973W        W71989   8.632  24.018  15.827 -0.0580 -0.1344  0.0937
28974W        W71990  15.852   3.501   3.324  0.1055 -0.1012 -0.0181
28975W        W71991   9.148  10.796  24.012  0.2244 -0.1495  0.1389
28976W        W71992  14.403  22.033  16.597 -0.3147 -0.5858 -0.2439
28977W        W71993  24.326   8.212   2.863 -0.0261 -0.1057 -0.1617
28978W        W71994   8.293  30.677  25.554 -0.1961  0.1754 -0.0892
28979W        W71995   0.827  22.174  17.344  0.1772  0.0142  0.2104
28980W        W71996   2.266  24.099   5.467 -0.1208  0.5114  0.2736
28981W        W71997  12.126  26.228  23.020  0.3864  0.0280  0.0826
28982W        W71998  15.608  13.903  13.890  0.1732 -0.0448  0.0062
28983W        W71999  16.446  20.571  20.856 -0.4711  0.2128  0.3809
28984W        W72000  18.466  12.091  15.736 -0.2662 -0.0642 -0.4028
28985W        W72001  26.429  21.890   8.569 -0.0989 -0.3368 -0.1310
28986W        W72002   7.358  23.673  14.518  0.0609  0.3990  0.1522
28987W        W72003   6.101  31.194  27.953 -0.0503  0.0378  0.4079
28988W        W72004   8.878  34.238  18.912  0.0054 -0.0700 -0.1561
28989W        W72005  17.417   9.864  24.029 -0.1930  0.2488  0.1451
28990W        W72006  31.001  14.164  17.726  0.2125  0.1142  0.0332
28991W        W72007   8.760  12.217  16.092  0.0572 -0.0342  0.2214
28992W        W72008  27.950  25.752  22.237 -0.2678  0.2919 -0.2008
28993W        W72009  12.333   6.164  25.574 -0.1166  0.2399  0.1083
28994W        W72010   7.770  16.747  17.312 -0.2235  0.0839  0.1526
28995W        W72011  24.058  24.308   3.044 -0.1564  0.1184  0.2156
28996W        W72012   1.594  17.595  15.522 -0.2421 -0.0525  0.0830
28997W        W72013  33.490  21.413  16.272  0.0218 -0.1842 -0.0166
28998W        W72014   9.235  17.500  20.672 -0.0783 -0.2104  0.1702
28999W        W72015   6.953  22.970   7.970  0.0855 -0.1399 -0.1965
29000W        W72016   3.127  16.297   0.025 -0.3170  0.0017  0.0887
29001W        W72017  26.082  19.335  18.158 -0.0295 -0.0847  0.1815
29002W        W72018   7.158   5.338   9.423 -0.3223  0.0836 -0.0014
29003W        W72019   7.489  11.146  28.283 -0.0035 -0.3334 -0.2712
29004W        W72020   7.399  24.802  17.218 -0.0975 -0.0881  0.2253
29005W        W72021  33.263  28.473   3.141 -0.0338  0.1789 -0.4934
29006W        W72022  30.147   2.586  24.191  0.2689  0.1629 -0.0325
29007W        W72023   1.856  17.428  16.357  0.2266 -0.0877 -0.0441
29008W        W72024   4.184  16.613  14.096  0.1128  0.0419 -0.1230
29009W        W72025  22.692  19.362  14.014 -0.4228 -0.1566  0.0864
29010W        W72026  31.946  15.619  26.238  0.1450 -0.1423 -0.0047
29011W        W72027  32.438  26.301   2.501 -0.0103 -0.3281  0.0445
29012W        W72028   5.894  21.187  23.074  0.1392  0.2318  0.1718
29013W        W72029   8.627  11.710  25.455 -0.1049  0.0643  0.0747
29014W        W72030   1.814  25.151   4.530 -0.1207  0.0217 -0.2376
29015W        W72031   5.077  15.695  16.269 -0.0137  0.0833  0.0945
29016W        W72032   8.660   6.848   0.373  0.1624  0.0600 -0.0758
29017W        W72033   9.010   3.608  23.628  0.0838  0.0042 -0.0793
29018W        W72034   8.926  27.215  19.669  0.2683  0.3135 -0.1535
29019W        W72035   2.318  33.786  22.975 -0.0975 -0.2059 -0.2297
29020W        W72036   9.604  24.875   4.977  0.0521 -0.1997  0.2102
29021W        W72037  33.316  26.192  19.991 -0.2108 -0.3871 -0.0325
29022W        W72038   2.802   6.425  23.874 -0.1373 -0.3236  0.1905
29023W        W72039  22.002  18.841   5.610  0.1910  0.0334  0.0133
29024W        W72040   3.839   8.480  24.711 -0.0786  0.0312  0.0091
29025W        W72041  11.675  16.512  25.359  0.0961  0.1711  0.1287
29026W        W72042  31.376  23.142   8.287  0.2066 -0.0712 -0.1609
29027W        W72043   0.173  23.362   1.453  0.1668  0.0132 -0.1927
29028W        W72044  26.940  29.258  21.788 -0.5852  0.0517 -0.3160
29029W        W72045  31.511  20.065  15.310  0.4260 -0.0445  0.0528
29030W        W72046   8.292  27.358  21.603  0.1831 -0.0416  0.1401
29031W        W72047  30.891  21.604  24.271  0.3183  0.0636  0.1180
29032W        W72048  34.211   7.818  26.592 -0.1835  0.1029  0.0261
29033W        W72049  29.837  24.354  15.824  0.1241 -0.0332  0.0870
29034W        W72050  11.751  16.546  12.623  0.0611  0.2994 -0.1780
29035W        W72051   6.810  25.943  28.850  0.0329 -0.1184 -0.2830
29036W        W72052  32.953  15.265  27.221 -0.0039  0.1017 -0.2442
29037W        W72053  34.343  25.324  28.852  0.0714 -0.1925  0.2230
29038W        W72054  27.662  28.514  27.669  0.0571  0.0966 -0.1341
29039W        W72055   8.773  28.824   2.467  0.2577 -0.0971  0.4256
29040W        W72056   7.936  15.656  14.125  0.0482 -0.1566  0.0873
29041W        W72057  31.820   8.574  27.732 -0.1826 -0.0182 -0.0770
29042W        W72058  26.271  33.892   1.961  0.0845 -0.1746  0.0665
29043W        W72059   8.732  21.175  16.927  0.0638 -0.1392 -0.0778
29044W        W72060   2.341  20.615  16.536  0.0840 -0.1109  0.0893
29045W        W72061  11.164  16.719  15.883 -0.0719 -0.0634  0.2233
29046W        W72062  26.983   9.811  26.827 -0.1872  0.4906 -0.0723
29047W        W72063   1.053  16.992  24.890  0.1641  0.1804  0.2305
29048W        W72064  16.144  20.947   0.160  0.0368 -0.1832  0.0730
29049W        W72065  14.393   8.832   8.485  0.0871  0.0066 -0.2199
29050W        W72066  20.379  27.913  17.418 -0.0877  0.4048  0.0600
29051W        W72067   6.814   2.760  27.342 -0.2902  0.0302 -0.1754
29052W        W72068  14.089  16.419   5.255 -0.0737 -0.1050 -0.1756
29053W        W72069  29.404  11.594  14.773 -0.3029 -0.0123  0.0784
29054W        W72070  21.938  27.704  27.172 -0.1090  0.1653  0.0016
29055W        W72071  12.881  30.019  13.912 -0.1533 -0.0538 -0.0944
29056W        W72072  14.698  23.039   2.357  0.1423  0.2496 -0.2362
29057W        W72073  12.500  28.246  26.235  0.3838 -0.0958 -0.1775
29058W        W72074   2.125  21.540   1.768 -0.1673  0.1015 -0.0375
29059W        W72075   5.473  19.370  29.144 -0.0875  0.2668 -0.4999
29060W        W72076  17.221  24.917   1.907 -0.0753  0.1217 -0.1221
29061W        W72077  11.512  25.423  14.121 -0.1541  0.2816  0.1340
29062W        W72078   6.549  19.328  19.087 -0.0908 -0.3092 -0.0936
29063W        W72079  16.790  32.622   3.819  0.1374  0.2463  0.1102
29064W        W72080   3.952   9.592  20.995 -0.0441  0.0196 -0.0811
29065W        W72081   1.619  18.207  21.903 -0.0298  0.0549  0.1460
29066W        W72082  17.713  26.457  16.197 -0.0164  0.4665 -0.1089
29067W        W72083  25.637  10.366  25.185  0.0607  0.0872  0.3918
29068W        W72084   9.415  28.375   8.241 -0.3239 -0.2387 -0.1688
29069W        W72085  29.587   9.872  16.132  0.0522 -0.1947 -0.0940
29070W        W72086  29.112   5.009   2.539  0.2576  0.0169 -0.1671
29071W        W72087  17.977  29.372  19.886 -0.1848 -0.0046 -0.1956
29072W        W72088  19.383  22.499  12.591  0.0505 -0.3274  0.2783
29073W        W72089  26.030  24.917  22.487 -0.2420  0.3402 -0.3263
29074W        W72090  25.778  19.004  20.961  0.0808 -0.1241 -0.4623
29075W        W72091   9.645  20.626  15.616 -0.0268  0.0165  0.1224
29076W        W72092   8.481  21.938  22.025 -0.1701  0.0216 -0.0263
29077W        W72093   7.889  15.194  28.811  0.1360  0.0606 -0.3147
29078W        W72094  25.145  10.654   4.050  0.1970 -0.0227  0.2587
29079W        W72095   1.931   9.222   0.010 -0.0665  0.2692 -0.0906
29080W        W72096   5.777  16.756  22.725  0.0700 -0.2102  0.2530
29081W        W72097   5.940  16.661  18.183  0.0120  0.2387 -0.0518
29082W        W72098   5.092  23.112   1.167 -0.1244 -0.2424  0.0524
29083W        W72099   5.253  33.092  28.587 -0.0602  0.0065 -0.3064
29084W        W72100  14.739  27.410  15.709 -0.0746  0.3265 -0.2523
29085W        W72101  16.026  28.317  25.672  0.0077  0.0297  0.0104
29086W        W72102  12.069  14.041  18.319 -0.2656 -0.2121  0.2477
29087W        W72103   7.263  26.216  20.993 -0.0976  0.0722 -0.0617
29088W        W72104  12.191  17.515  20.051  0.0656 -0.1157  0.0926
29089W        W72105  27.638  14.865  23.180  0.0582  0.0419 -0.0722
29090W        W72106  20.011  10.114  15.794  0.1748  0.0856 -0.1002
29091W        W72107   0.499  33.833   9.819 -0.1454  0.1174  0.4998
29092W        W72108  14.555  31.261  21.380  0.0262  0.0760 -0.3391
29093W        W72109   4.140  16.149  24.448 -0.1639  0.1258  0.3883
29094W        W72110   5.825   6.691  14.826 -0.2077  0.1135  0.2333
29095W        W72111   8.548  31.671  24.389 -0.1669 -0.1808  0.2237
29096W        W72112  25.652  14.402   3.724 -0.0764 -0.0710 -0.4832
29097W        W72113   5.556  30.789  19.949  0.1457  0.4960 -0.1796
29098W        W72114   0.010  23.001  21.629 -0.2742 -0.3162 -0.0061
29099W        W72115  25.474  24.693  26.090  0.1755  0.2088 -0.3368
29100W        W72116   9.798  11.774  24.633 -0.1304  0.1896  0.2016
29101W        W72117  26.403  29.072  18.277  0.1938 -0.1655 -0.1384
29102W        W72118   5.729  13.374  15.133 -0.0096 -0.0647  0.1959
29103W        W72119   2.576  21.183   1.632  0.4496  0.0759  0.0383
29104W        W72120   6.919  10.094  21.769 -0.0414 -0.2445 -0.0458
29105W        W72121   3.474   7.068   7.614 -0.2114 -0.0276 -0.0640
29106W        W72122  34.339  18.273   4.570  0.0573  0.1194 -0.0417
29107W        W72123   4.288  19.761  18.112 -0.3960  0.0685 -0.1481
29108W        W72124   3.075   2.426  21.401  0.0373 -0.0681 -0.0713
29109W        W72125   3.069  17.619  16.227 -0.3369  0.1239  0.2750
29110W        W72126  12.082  19.028  25.423 -0.4203 -0.2899  0.1073
29111W        W72127  22.990  16.970   4.751 -0.1025 -0.3499 -0.0972
29112W        W72128  12.239  16.912  22.861 -0.2491  0.0726 -0.1196
29113W        W72129   2.285   6.954  26.145 -0.1280  0.0631 -0.1990
29114W        W72130  33.907  29.258  22.707  0.0587 -0.1054  0.0257
29115W        W72131  17.001  25.022  16.098  0.0076 -0.1057 -0.1793
29116W        W72132   0.940  31.897  22.786  0.2848 -0.1982 -0.1088
29117W        W72133  10.235  32.749  18.924  0.2442 -0.0296  0.1782
29118W        W72134   4.696   9.928  16.611 -0.1996 -0.2612  0.0131
29119W        W72135  31.311  20.821   3.337  0.0382  0.1818 -0.1944
29120W        W72136   8.681  10.994  24.970 -0.3412 -0.2804 -0.0946
29121W        W72137  32.164  16.740  16.835 -0.0595  0.1537 -0.1418
29122W        W72138  12.376   4.174  21.387  0.2922  0.2877  0.0300
29123W        W72139  30.814  26.212  20.718  0.1146 -0.0041  0.0710
29124W        W72140  33.491  31.222  15.968  0.0453 -0.0084 -0.1680
29125W        W72141  24.604  25.533  18.487 -0.1888  0.2185 -0.0566
29126W        W72142  27.665  30.610  17.172 -0.1698  0.2132  0.0428
29127W        W72143  10.284  27.746  17.409 -0.1817  0.1386 -0.2367
29128W        W72144  28.410  26.370   2.240 -0.0162 -0.0282  0.2966
29129W        W72145   9.721  16.425  25.721 -0.0926  0.0222  0.1164
29130W        W72146  24.750  13.290   2.382 -0.2143 -0.0586 -0.0474
29131W        W72147  28.423  24.863  19.627 -0.2572 -0.3062 -0.3090
29132W        W72148   4.602  11.382   0.186 -0.0733 -0.1106 -0.2718
29133W        W72149   3.585  20.916  18.396 -0.1097 -0.0822  0.1754
29134W        W72150  21.372  30.193  15.107 -0.1299  0.1208 -0.0877
29135W        W72151  11.551  19.180  12.944 -0.0712 -0.0555 -0.1936
29136W        W72152   8.996  22.433  15.106  0.2671 -0.0618  0.0253
29137W        W72153  11.536   8.040  20.247 -0.2342 -0.1247  0.0900
29138W        W72154  32.347  16.891  26.187  0.1445 -0.1181 -0.0052
29139W        W72155   6.533  27.480  24.384  0.0311 -0.0039  0.1429
29140W        W72156  11.540  27.083  15.377 -0.2236  0.0793 -0.0056
29141W        W72157   4.727   2.116  15.030 -0.0927  0.1015  0.2193
29142W        W72158   8.824  15.773  26.887  0.4311 -0.4443 -0.1054
29143W        W72159   0.072  11.394  24.154  0.1870  0.0163 -0.1325
29144W        W72160  13.974  26.438  22.747 -0.0609 -0.1194 -0.5516
29145W        W72161  33.810   8.382   3.364 -0.4537 -0.0691 -0.0606
29146W        W72162  14.366   9.821  20.605  0.4290  0.0703 -0.0789
29147W        W72163  23.925  26.030  23.550 -0.0178 -0.1507  0.2282
29148W        W72164  14.697  25.223  20.857  0.1018 -0.1208 -0.0005
29149W        W72165  11.801  23.029  21.505 -0.1925  0.1336  0.0863
29150W        W72166  27.763  18.909  20.310 -0.2027 -0.0683 -0.0753
29151W        W72167   6.632  24.595  26.336  0.1501  0.0426 -0.0542
29152W        W72168   7.469  24.226  18.600  0.0424 -0.2046  0.0495
29153W        W72169  11.031  24.409  27.164 -0.2350  0.2560 -0.0729
29154W        W72170  27.626  23.040  19.094 -0.1019  0.1750  0.1582
29155W        W72171   1.740   9.170  23.458 -0.3030 -0.0672  0.1385
29156W        W72172  33.936  33.050   8.727  0.1381 -0.0615  0.0150
29157W        W72173  31.664   3.095   9.845  0.2036  0.2746  0.0088
29158W        W72174   5.770   2.664  15.816 -0.0885 -0.3137 -0.1502
29159W        W72175  29.090  28.948   8.101 -0.1693  0.0885  0.1044
29160W        W72176  25.977   5.635  18.912  0.1788 -0.0782 -0.2027
29161W        W72177  28.429   8.032  28.376 -0.2887  0.0610  0.1154
29162W        W72178  32.343  15.036   0.211  0.1819 -0.1875  0.1192
29163W        W72179  32.137  11.856  21.120 -0.1887 -0.0004  0.0084
29164W        W72180  11.394  28.003   0.078 -0.0832  0.1577  0.1596
29165W        W72181  12.116  18.587  13.620 -0.3272 -0.1125 -0.0197
29166W        W72182   1.015   0.992   3.378 -0.2162 -0.3526 -0.2168
29167W        W72183  30.406  19.216  16.372  0.2921  0.1002 -0.1012
29168W        W72184  10.243  28.623  27.364  0.1198 -0.2442 -0.2455
29169W        W72185  10.318  33.212  15.770  0.0444 -0.2331  0.2254
29170W        W72186   1.433   4.633   4.299  0.0261 -0.2272 -0.2652
29171W        W72187   1.796  19.636  17.903  0.1511 -0.0948 -0.0181
29172W        W72188   7.733  27.758  24.941 -0.1285 -0.1830  0.1404
29173W        W72189   2.786  16.370  17.158 -0.3208 -0.2236 -0.1932
29174W        W72190  10.033  16.558  21.237  0.0411 -0.0485  0.0339
29175W        W72191   1.158  24.671  16.570 -0.3635 -0.1728 -0.0248
29176W        W72192  31.156  23.524  20.893 -0.0310  0.2113 -0.2398
29177W        W72193   0.158  20.735  15.348  0.0339 -0.0272  0.0476
29178W        W72194   9.208  11.330  17.448  0.1093 -0.2747  0.1255
29179W        W72195   4.457  24.571  24.583 -0.2056 -0.0609  0.3005
29180W        W72196   8.751  14.222  22.062 -0.1138  0.0238  0.2433
29181W        W72197   9.551  23.102   4.337  0.1350 -0.0554 -0.2324
29182W        W72198   6.127   3.264  16.758  0.0812 -0.2396  0.2859
29183W        W72199  28.519  22.048  18.665 -0.1750  0.3188  0.1814
29184W        W72200  34.564   1.892  14.208  0.1348 -0.0081  0.0370
29185W        W72201  16.803   9.175   3.167 -0.2478 -0.0634  0.3413
29186W        W72202  15.519   1.003  20.883  0.0645 -0.4104  0.2079
29187W        W72203  30.804  26.814  20.959 -0.0624  0.0654 -0.2963
29188W        W72204   6.653   6.257  18.563  0.0890  0.2103 -0.2322
29189W        W72205   2.534  31.134  16.801  0.2858  0.0796 -0.1725
29190W        W72206  32.276  21.059   3.176 -0.1732 -0.2325  0.2993
29191W        W72207  26.335  17.914  27.236 -0.0802 -0.0762  0.0898
29192W        W72208   5.070  17.983  23.684  0.2274  0.1433 -0.1638
29193W        W72209   9.534  11.355  24.564 -0.0119  0.1703 -0.3996
29194W        W72210  32.054  18.084  19.133 -0.1726 -0.1319 -0.2052
29195W        W72211   0.174   8.850  16.746  0.1027  0.0699  0.0691
29196W        W72212   0.742  30.839  21.506  0.0927 -0.2096 -0.1145
29197W        W72213  14.102  24.186  24.774  0.1909 -0.0372 -0.4752
29198W        W72214  13.565  11.237   7.492 -0.2033 -0.3522 -0.0920
29199W        W72215   8.202  32.982  26.613  0.1111  0.3581 -0.1473
29200W        W72216  30.869  15.091  23.598  0.0090  0.0007  0.0442
29201W        W72217  28.228  13.302   0.837 -0.0757 -0.4617  0.1003
29202W        W72218   3.601   0.720  25.635 -0.0247 -0.2129 -0.1029
29203W        W72219  14.905  16.780  15.043  0.2140 -0.1776 -0.2789
29204W        W72220  26.013  11.895  20.371 -0.1674  0.0115 -0.0822
29205W        W72221  21.691  29.375  18.812  0.0849  0.0927  0.0514
29206W        W72222   0.422  15.532  25.220 -0.1884  0.0285 -0.0902
29207W        W72223   8.864  18.434   2.373  0.1952 -0.1419 -0.0257
29208W        W72224  17.556  15.414  12.031 -0.2157 -0.1276  0.1767
29209W        W72225   1.230   1.193  17.201 -0.1671  0.1772  0.1467
29210W        W72226  28.033   8.753  15.379 -0.1416 -0.0148 -0.1335
29211W        W72227   4.837  13.204  15.083  0.0585  0.2342 -0.1016
29212W        W72228  31.624  27.522  26.332 -0.1724 -0.2631  0.2171
29213W        W72229   3.320  33.314   1.666 -0.0118 -0.0627  0.2819
29214W        W72230  22.906   7.556  20.759 -0.0518 -0.1277  0.1723
29215W        W72231  21.036  14.971  21.286 -0.0467 -0.0586 -0.2242
29216W        W72232  32.543  17.317  19.326  0.1783  0.1673 -0.0621
29217W        W72233  14.445  27.603  23.096 -0.0413  0.1571  0.2181
29218W        W72234  34.412  28.143  10.071  0.2766 -0.2341 -0.2026
29219W        W72235  17.721  23.957  12.788 -0.0785  0.1562 -0.3508
29220W        W72236  29.234  23.080   2.691 -0.0914  0.2824  0.1568
29221W        W72237  30.981   6.716  17.503  0.3903 -0.0460 -0.0093
29222W        W72238  33.440  17.853   2.591 -0.2380 -0.0576 -0.0129
29223W        W72239  34.142  32.165  16.236 -0.2428  0.2443 -0.1024
29224W        W72240  19.042  14.346  11.077  0.1642 -0.1024 -0.2739
29225W        W72241  14.841   5.913  20.269 -0.0098  0.0021 -0.1359
29226W        W72242  28.970  14.124  25.837  0.2828 -0.0533 -0.1922
29227W        W72243  25.003  19.634   3.971 -0.0738 -0.3618 -0.1315
29228W        W72244   5.222  28.874  26.067  0.3037  0.0096 -0.1669
29229W        W72245  32.111   0.331   3.197  0.1650  0.0263 -0.0476
29230W        W72246   4.885  21.708  22.831  0.2350 -0.2766  0.1645
29231W        W72247   8.912  31.536  19.146  0.1407 -0.0909 -0.1048
29232W        W72248   6.615  19.607  17.378  0.2571 -0.2172 -0.0651
29233W        W72249   5.640  26.154  24.577 -0.3932 -0.1025 -0.1269
29234W        W72250  13.308   9.360  13.339 -0.0241 -0.1434 -0.1472
29235W        W72251  14.260  25.425  16.999  0.1797  0.0062  0.0543
29236W        W72252   0.121  12.077   4.448  0.0328  0.1558  0.0092
29237W        W72253  30.795  25.144   2.080  0.1479 -0.1727 -0.2311
29238W        W72254   0.673  24.108  28.298  0.0084  0.0867 -0.0206
29239W        W72255  34.253  25.935  22.081 -0.0692  0.0154 -0.0432
29240W        W72256   1.999  16.084   6.983  0.0139 -0.4557  0.0271
29241W        W72257   1.710  22.024  15.065 -0.2482  0.0233 -0.1472
29242W        W72258  16.728  34.476   0.815 -0.0752 -0.1517  0.0157
29243W        W72259   9.657  29.337   9.748  0.0166  0.0765 -0.1892
29244W        W72260   9.783  17.428  15.462 -0.5609 -0.0023  0.0832
29245W        W72261   5.599  14.949   0.953 -0.1075 -0.2891 -0.1547
29246W        W72262  33.078  28.565   2.691  0.0750  0.0379 -0.1337
29247W        W72263  24.110   8.992   9.196  0.0561  0.3049  0.1053
29248W        W72264   5.012   7.116   7.000 -0.1124  0.1603 -0.2036
29249W        W72265  16.076  18.846  27.361 -0.1268 -0.0365 -0.2430
29250W        W72266  11.727  13.665  23.346 -0.4357 -0.1719  0.1428
29251W        W72267   7.731  24.127   2.666  0.0372  0.0431 -0.2229
29252W        W72268   7.682  11.678  15.760 -0.0655  0.1282 -0.0473
29253W        W72269  34.394  27.159  16.418 -0.0928 -0.1183  0.2768
29254W        W72270   6.743  20.994  17.002 -0.1523 -0.2317  0.1130
29255W        W72271  29.406  18.054  17.224 -0.3619  0.0865  0.3349
29256W        W72272  32.417  30.268  18.878  0.1021  0.0203 -0.0597
29257W        W72273  11.646  28.158  20.393  0.0056  0.2180  0.2181
29258W        W72274   4.187  28.624  28.394 -0.2143  0.0858 -0.0206
29259W        W72275   1.266  21.000  17.938 -0.0220 -0.2267 -0.0182
29260W        W72276  14.774  12.926  27.965  0.0952 -0.0432 -0.1427
29261W        W72277  18.294  22.317  12.791  0.0857 -0.1020  0.0886
29262W        W72278   8.327   1.659   2.612 -0.1324 -0.1537 -0.2738
29263W        W72279  11.057  22.582  16.766 -0.0028  0.0449 -0.0327
29264W        W72280   7.806  31.946  16.525 -0.0898 -0.0292 -0.1862
29265W        W72281  30.324  22.537  19.432 -0.4560 -0.3115  0.5344
29266W        W72282  15.849  28.786  23.162  0.1899  0.3453  0.2162
29267W        W72283  11.374   1.712  24.699 -0.0192  0.0760  0.0168
29268W        W72284   7.028  12.810  21.541  0.0868 -0.0288 -0.1443
29269W        W72285  30.401   8.739   8.447  0.1639  0.0554  0.3536
29270W        W72286  28.217  14.142  21.387 -0.1246  0.2302 -0.3667
29271W        W72287   9.723  18.113  16.833  0.0306  0.2949 -0.2270
29272W        W72288  13.813  12.710  16.347  0.2387 -0.0763  0.1419
29273W        W72289  15.449  30.890  15.285 -0.3175 -0.0015 -0.2272
29274W        W72290   7.955  29.812  19.605  0.1261  0.1921  0.1390
29275W        W72291   9.032  19.101  15.319 -0.1524  0.0784  0.0100
29276W        W72292  27.370  26.208  26.532 -0.1364  0.0192  0.0147
29277W        W72293   1.792  21.868  15.655  0.0150 -0.2929 -0.1156
29278W        W72294  25.189  14.571   1.422  0.0065  0.0696 -0.3837
29279W        W72295   7.392  18.709  18.858  0.3548 -0.0320  0.1994
29280W        W72296   7.394  24.918  13.597 -0.0655 -0.2049 -0.1241
29281W        W72297   3.119  15.031  14.573  0.1374  0.0978 -0.0607
29282W        W72298   0.592  16.261  24.508  0.3513  0.0931  0.1262
29283W        W72299  13.243  21.672  25.665 -0.2853 -0.1911  0.3549
29284W        W72300  13.180  13.763  16.902 -0.0585  0.3553 -0.0664
29285W        W72301  32.060  29.775  25.978 -0.1619  0.1548  0.0019
29286W        W72302  31.802  16.029  28.508 -0.0795 -0.3293 -0.1806
29287W        W72303  19.757  22.023  23.153  0.0831  0.2214  0.2079
29288W        W72304  10.281  16.905  15.466  0.2397 -0.2345  0.2405
29289W        W72305   8.442  21.114  18.195  0.1194  0.1791  0.1756
29290W        W72306  11.541  24.289  15.581  0.0680 -0.0636  0.1748
29291W        W72307  29.320  12.434  26.284 -0.2063  0.1441 -0.0550
29292W        W72308  33.372  11.790  26.809 -0.1709  0.3149  0.0816
29293W        W72309  17.587  31.416  27.716  0.1339 -0.2487 -0.2332
29294W        W72310  19.319  18.512   8.483  0.0159 -0.2179 -0.2016
29295W        W72311   9.086  20.869  23.378 -0.0194  0.0261  0.0670
29296W        W72312  20.577  10.319  17.980 -0.2254 -0.1388  0.2876
29297W        W72313   9.738  25.944  14.283  0.2926  0.2599  0.0706
29298W        W72314   7.798  27.112  20.334  0.0468 -0.1642  0.0734
29299W        W72315  11.903   3.815  16.124  0.0325 -0.2463 -0.1042
29300W        W72316  31.291  15.670  24.388  0.0324 -0.0682 -0.1772
29301W        W72317  14.477  22.219   0.319 -0.1726  0.1446  0.1499
29302W        W72318  27.318  19.814  27.400 -0.0247 -0.0937  0.1134
29303W        W72319  28.890  16.128  16.671 -0.1197  0.2572 -0.1177
29304W        W72320   4.171  24.356  21.105  0.1158 -0.2165  0.0163
29305W        W72321  26.089  31.473  25.428 -0.0251 -0.2035 -0.1946
29306W        W72322  28.067  24.598   1.491 -0.1740  0.1949  0.2066
29307W        W72323   2.057   9.130   7.459 -0.2089 -0.3198 -0.0227
29308W        W72324  32.769  18.609   3.426 -0.0413  0.2385  0.4045
29309W        W72325   6.184   8.724  21.305  0.1710 -0.0653  0.0109
29310W        W72326  29.527  10.112   5.556 -0.0359 -0.0862  0.1993
29311W        W72327   5.937  17.785   4.564  0.0104 -0.3157 -0.0206
29312W        W72328  33.005  22.143   7.914 -0.4500 -0.0216  0.0267
29313W        W72329   5.490  22.387  15.556 -0.1255  0.3517  0.0909
29314W        W72330  10.889   3.292  23.509 -0.2211  0.0476 -0.2646
29315W        W72331  30.160  32.105  24.247  0.3422 -0.0274  0.0199
29316W        W72332  32.543   2.361  16.769 -0.1183 -0.0990 -0.0680
29317W        W72333   3.118   1.086  16.345 -0.1669  0.3368 -0.2955
29318W        W72334  28.837  13.001  22.191  0.2776 -0.1703 -0.0138
29319W        W72335   0.731  30.096  24.365 -0.1853  0.1515 -0.3296
29320W        W72336  18.519   8.945  23.324  0.1102  0.1566  0.0895
29321W        W72337   9.837  17.585  20.972 -0.1022 -0.1071 -0.3547
29322W        W72338   1.983   4.641   0.028  0.1033  0.0531 -0.2947
29323W        W72339   1.584  12.926  22.071  0.2045  0.1570  0.0081
29324W        W72340  16.471  28.646   5.825 -0.3327  0.3123  0.1579
29325W        W72341  25.194   3.485  27.824 -0.0936  0.0131 -0.0779
29326W        W72342  31.686  28.581  22.527  0.3605  0.2251 -0.1983
29327W        W72343   2.002  19.497  29.045 -0.2520  0.2508 -0.0980
29328W        W72344   2.526  12.883  16.030 -0.1070 -0.1217  0.1452
29329W        W72345  19.001   9.256   4.049 -0.2646 -0.1810 -0.3309
29330W        W72346  29.960  17.435  28.972  0.3854  0.1396 -0.1513
29331W        W72347   8.177   9.945   2.446 -0.1236  0.1417  0.1332
29332W        W72348  14.523   4.262  21.817 -0.2284  0.1079 -0.3229
29333W        W72349   4.002  12.979  27.794  0.2705  0.0495 -0.3854
29334W        W72350  32.221  24.358  11.349 -0.0548  0.0546 -0.0490
29335W        W72351   6.842  20.223  16.422  0.0795 -0.1013  0.0404
29336W        W72352   3.080  16.235   3.330  0.2190 -0.1366  0.3226
29337W        W72353   9.959   9.458  14.375 -0.3407 -0.3852  0.3386
29338W        W72354   9.915  20.660  25.337 -0.0960  0.1940 -0.2271
29339W        W72355   8.734  29.299  20.374  0.0941 -0.2497 -0.0855
29340W        W72356   8.552  18.312  20.071  0.3124  0.1169  0.0866
29341W        W72357   6.076   8.818  19.335  0.1431  0.1661 -0.0547
29342W        W72358   3.889  22.848  21.901  0.3172  0.1809  0.0783
29343W        W72359   8.713  34.376  18.458  0.2572 -0.2314 -0.3689
29344W        W72360  10.621  30.904  25.140  0.3126  0.1749  0.1588
29345W        W72361  27.681  15.633  23.784 -0.1169 -0.1350 -0.3213
29346W        W72362  10.125  26.624   2.636 -0.0018  0.3097 -0.0009
29347W        W72363   4.027  30.948  20.175 -0.3734  0.0309 -0.2191
29348W        W72364   3.128  28.369  13.830 -0.0896  0.0691  0.1688
29349W        W72365  12.503  28.206  18.613  0.1452 -0.0347 -0.3035
29350W        W72366  22.716  18.865  14.537 -0.0293 -0.0620  0.0892
29351W        W72367  23.178  25.996  15.008 -0.1938  0.2578  0.2660
29352W        W72368   1.811   8.077   2.463 -0.1172 -0.3238  0.2422
29353W        W72369  18.782  12.077  19.666  0.0262  0.3031 -0.1355
29354W        W72370  13.150  21.656  13.057 -0.5695  0.0404 -0.0286
29355W        W72371   8.893  16.902  17.338 -0.1784  0.1262  0.1794
29356W        W72372  33.331  31.780   0.928 -0.1319  0.0129  0.1617
29357W        W72373   1.970  25.950  15.034  0.1529 -0.0918  0.1423
29358W        W72374  13.801  26.527  20.721  0.0680  0.1181  0.1568
29359W        W72375  13.252  15.947  14.774 -0.0554  0.0943  0.0717
29360W        W72376   1.937  28.199  15.432 -0.1835 -0.3084 -0.4311
29361W        W72377  17.477  26.904   1.995  0.0819  0.2925 -0.0119
29362W        W72378   3.288  22.694  22.708  0.1407 -0.0129 -0.1344
29363W        W72379  33.560  27.032  16.732 -0.2033 -0.1289 -0.1510
29364W        W72380  11.509  20.683  20.385 -0.0595  0.0890 -0.1317
29365W        W72381  32.271  25.754  17.400  0.0625 -0.2821 -0.0053
29366W        W72382  33.710  28.004  17.675 -0.2567  0.1316 -0.1458
29367W        W72383  13.575  10.372  22.934  0.0288 -0.0019 -0.1557
29368W        W72384  33.833  21.106   8.495 -0.0696 -0.0356  0.2225
29369W        W72385  13.782  29.051   0.980  0.2487  0.1308  0.1341
29370W        W72386  11.418  15.072  23.401  0.2182  0.3024  0.0206
29371W        W72387  32.326  23.384  25.044 -0.1876  0.1647  0.0147
29372W        W72388  22.811  25.700  17.206 -0.1131 -0.2548 -0.1474
29373W        W72389  32.280  20.883  22.553  0.0458  0.2155  0.1603
29374W        W72390  10.422  24.033  17.312 -0.2048  0.1412 -0.0169
29375W        W72391  10.558   5.094  24.730 -0.0063  0.3711 -0.0441
29376W        W72392  12.129  15.642   6.941 -0.2139  0.0024  0.2039
29377W        W72393  10.110  14.721  17.603 -0.2026 -0.0638 -0.1815
29378W        W72394   8.656  15.512   1.257  0.1030  0.1650 -0.1193
29379W        W72395   0.744  21.851  28.766  0.1607  0.0253 -0.3407
29380W        W72396  18.669   1.672  20.401 -0.0057 -0.0039 -0.1120
29381W        W72397  24.118  25.574  21.133  0.0812  0.0115 -0.2189
29382W        W72398  32.836  28.092  19.800  0.0544  0.1726  0.0495
29383W        W72399   4.319  14.395  14.262  0.0027 -0.0654 -0.2744
29384W        W72400   8.886  30.552  22.400  0.0914 -0.1496 -0.0298
29385W        W72401  13.126   1.098  19.851 -0.0298  0.0440  0.2709
29386W        W72402   9.606  32.741   8.194 -0.0656  0.1076  0.0151
29387W        W72403   1.879  11.533  16.211  0.1837 -0.2217 -0.2349
29388W        W72404   6.700   8.022   0.085  0.0644  0.1126 -0.0275
29389W        W72405   5.673  22.664  21.593 -0.2226  0.1297 -0.2509
29390W        W72406   7.462  32.643  17.706 -0.0059 -0.1080 -0.1767
29391W        W72407  25.758   3.493  26.244 -0.0384 -0.2522  0.0260
29392W        W72408  23.361  29.255  28.306  0.0900 -0.1136  0.1343
29393W        W72409  19.834   2.688   8.020  0.1966 -0.0967 -0.4042
29394W        W72410  14.512  30.519  19.730  0.0132 -0.2636 -0.1162
29395W        W72411  17.129  12.999   1.606  0.1445 -0.0833 -0.2762
29396W        W72412  23.342  29.837   5.837 -0.0076 -0.0950 -0.0739
29397W        W72413   7.987  15.016  24.790 -0.0583 -0.2013 -0.1506
29398W        W72414  30.131  19.772  27.215  0.0185 -0.1924 -0.0743
29399W        W72415  14.601  19.724  19.194 -0.0470  0.1430 -0.1129
29400W        W72416   9.397  16.864  25.300 -0.2925 -0.4210 -0.7452
29401W        W72417   2.809   5.874  27.513 -0.1998 -0.3805 -0.3694
29402W        W72418   1.336  10.820   9.736  0.3232  0.0719  0.0017
29403W        W72419  32.272  19.537   2.239  0.2540  0.0726 -0.0241
29404W        W72420  19.130  19.549  15.299  0.1521  0.1507 -0.2967
29405W        W72421  30.477  32.847  16.181 -0.6290 -0.0467 -0.0309
29406W        W72422   2.682  16.235  19.438  0.3189  0.0027  0.1220
29407W        W72423  23.292   7.716   1.946  0.0442 -0.1330  0.0266
29408W        W72424   5.181  22.560  17.955  0.2943  0.2033 -0.2571
29409W        W72425   5.322  23.035  26.875  0.2773  0.1659  0.4693
29410W        W72426  12.697  10.261  26.426 -0.3154  0.1128  0.3495
29411W        W72427  25.233  17.205  17.268 -0.0239 -0.1089  0.1408
29412W        W72428  34.346  22.146  14.974 -0.2252 -0.1702 -0.1168
29413W        W72429   5.111  24.196  22.551  0.3177  0.2261 -0.1944
29414W        W72430   1.592  25.730   8.879 -0.0161  0.1108  0.2045
29415W        W72431  12.315   6.088   7.294  0.2275  0.2982 -0.2180
29416W        W72432  17.240  19.909  25.248 -0.0020 -0.0557 -0.0199
29417W        W72433  20.190  15.451  14.313 -0.0041  0.1530  0.1449
29418W        W72434  21.177  19.827  13.283  0.1555  0.0757 -0.2304
29419W        W72435   0.772   6.073   2.396 -0.0582  0.0291  0.3639
29420W        W72436   6.855  16.295   5.762  0.0195 -0.0147  0.0491
29421W        W72437  20.607  16.524  26.558  0.0092  0.0377  0.4512
29422W        W72438  17.032  22.194  15.628 -0.1130 -0.0660 -0.0952
29423W        W72439  16.589  24.466   1.226 -0.0818 -0.1839 -0.1275
29424W        W72440  26.882  34.434  22.948  0.0423 -0.2006 -0.1801
29425W        W72441  14.862   5.412  15.102 -0.5040  0.0536 -0.3510
29426W        W72442  30.965  18.538  23.795  0.0163 -0.1282  0.0282
29427W        W72443  31.943  25.571  22.096 -0.0790  0.0922 -0.0706
29428W        W72444  17.576  14.961  27.081  0.1503 -0.2867  0.1011
29429W        W72445   8.443   3.038  17.646  0.2183  0.0750 -0.0370
29430W        W72446   3.005  23.083  19.251 -0.3332  0.3446  0.1195
29431W        W72447  11.598  18.661  27.118 -0.0514 -0.0085 -0.2300
29432W        W72448  15.136  10.604  17.328 -0.0415 -0.1004  0.0579
29433W        W72449  16.788  21.990   1.818  0.0529 -0.0080  0.1901
29434W        W72450   1.851   6.725   7.157 -0.2098  0.0198  0.1137
29435W        W72451  19.528  28.315  24.321 -0.2638 -0.1361  0.1667
29436W        W72452   5.722  34.561  28.123 -0.1551 -0.0068 -0.0069
29437W        W72453  26.096  24.845  24.900  0.1243 -0.0966  0.1822
29438W        W72454   4.419  16.953   8.214 -0.2458  0.3072 -0.2212
29439W        W72455  22.853  17.968  25.710  0.1762  0.0301 -0.1004
29440W        W72456   9.026  24.222  25.516 -0.0950  0.1013 -0.0915
29441W        W72457  27.527  27.135   6.452  0.1022 -0.3309  0.1960
29442W        W72458   8.155  22.889   0.809 -0.2395 -0.0793  0.1604
29443W        W72459  19.271   9.424  14.168  0.1391 -0.0161  0.1440
29444W        W72460  18.116  17.325  21.011  0.1451  0.2809 -0.0051
29445W        W72461  19.589  16.790   5.701  0.2850 -0.3247 -0.3194
29446W        W72462   8.671  28.517  21.030 -0.2392 -0.1008 -0.4083
29447W        W72463  29.176   5.462   3.191 -0.1919  0.1823 -0.1122
29448W        W72464   5.239   0.970  27.687 -0.0718 -0.0010 -0.4190
29449W        W72465  11.099  18.197  19.313  0.0577 -0.1389  0.2927
29450W        W72466   7.741  23.370   5.896 -0.1498 -0.0636 -0.2825
29451W        W72467  33.746  21.721  16.748 -0.1974 -0.1792 -0.1808
29452W        W72468  11.945  31.883   6.706  0.1159 -0.1859 -0.2152
29453W        W72469  28.690   8.460  23.740 -0.0324 -0.0587 -0.0660
29454W        W72470  18.967  22.669  12.778  0.0139  0.0313 -0.0208
29455W        W72471  31.729  26.765  25.881 -0.0719  0.0808  0.1275
29456W        W72472  10.793  17.081  14.052  0.2321 -0.0353  0.1323
29457W        W72473  17.491  19.431  13.218 -0.6174 -0.3834 -0.3751
29458W        W72474   4.023  31.582   2.862 -0.1818  0.1460  0.0737
29459W        W72475   7.447  20.205  21.332  0.0184  0.2804  0.1479
29460W        W72476   0.834  30.366   1.366 -0.2276 -0.1455  0.0628
29461W        W72477   2.010  32.715   4.250  0.1497  0.0613  0.3848
29462W        W72478  15.476  17.101  13.367 -0.1818  0.1027  0.3340
29463W        W72479   4.103  12.865  28.794  0.0307  0.3288  0.3755
29464W        W72480  27.530  28.627  19.827  0.1369  0.1540 -0.0168
29465W        W72481   2.511  18.772  21.237  0.0332  0.2174 -0.0550
29466W        W72482   8.679  16.145   7.397  0.2093  0.1371 -0.1767
29467W        W72483  28.928  27.118  23.126 -0.1420  0.0139 -0.4555
29468W        W72484  11.242   0.299  22.870 -0.1312  0.1560  0.1504
29469W        W72485   3.622   3.980   4.094  0.4070 -0.1400  0.1290
29470W        W72486  33.869  33.550   3.781 -0.3656  0.1459 -0.0981
29471W        W72487   6.136  29.240  28.341  0.0043 -0.0932 -0.4052
29472W        W72488  28.907  17.232  19.562 -0.0869 -0.0578  0.1252
29473W        W72489  33.344  17.558   5.502 -0.1842 -0.0643 -0.1636
29474W        W72490  12.100  20.790   0.768  0.0283 -0.1314 -0.4585
29475W        W72491   8.526  16.226  18.301 -0.2419  0.2714 -0.1537
29476W        W72492   5.949  19.721  27.461 -0.0594 -0.2412 -0.1446
29477W        W72493  12.101  25.304   8.542 -0.1264 -0.1034  0.0605
29478W        W72494  16.489  28.038  16.629 -0.0870  0.4729 -0.0870
29479W        W72495  15.808  20.253  24.765 -0.0339  0.0631  0.0196
29480W        W72496  20.587  14.725  23.983  0.1344  0.3642  0.1720
29481W        W72497  27.857  18.026  29.209 -0.0835  0.2242  0.0322
29482W        W72498  12.169   7.608   5.608 -0.1005  0.5602 -0.3066
29483W        W72499  17.210  22.612  14.638  0.0098 -0.1136  0.1617
29484W        W72500  19.613  19.434  13.838 -0.0041  0.1926 -0.0492
29485W        W72501  10.958  17.903  21.058 -0.0540  0.1896  0.3065
29486W        W72502  33.895  17.355   1.309 -0.1283 -0.0603  0.1481
29487W        W72503  11.742  18.843  24.027 -0.3264  0.1537  0.2478
29488W        W72504  31.664  16.324  28.133  0.3131  0.0885 -0.2435
29489W        W72505  27.962  18.204  16.912  0.2814  0.2296  0.2253
29490W        W72506  23.390  30.208  29.113 -0.0671  0.2349 -0.0897
29491W        W72507  24.070  22.344  21.859 -0.2036  0.1345 -0.0579
29492W        W72508  11.486  18.701  16.770  0.0223 -0.0037  0.1786
29493W        W72509  23.892  20.737  27.806 -0.0290 -0.0240  0.0784
29494W        W72510  11.828  28.022   4.000 -0.1536  0.3202 -0.0243
29495W        W72511   1.810  14.521   0.686 -0.2958 -0.3217  0.5019
29496W        W72512  12.841  30.610  19.443 -0.2687 -0.2718 -0.0117
29497W        W72513  14.518   0.726   0.741 -0.1364 -0.3218 -0.2963
29498W        W72514   5.225   9.185  21.184  0.1739 -0.1532  0.1623
29499W        W72515  21.995  11.907  21.167  0.1234  0.1892 -0.1023
29500W        W72516  12.046  22.480   1.636  0.1155 -0.2139 -0.4999
29501W        W72517   5.948  23.293  19.131 -0.1231  0.0141  0.0096
29502W        W72518  13.681  26.455  26.899 -0.0442  0.0105 -0.2186
29503W        W72519  31.741  23.940   5.403 -0.1031  0.1713  0.1685
29504W        W72520  11.142  30.425   2.355  0.0071  0.0157 -0.1491
29505W        W72521  13.312  23.720   5.167  0.6211 -0.2674 -0.5927
29506W        W72522   3.838  13.504  24.529 -0.1692  0.0458 -0.0614
29507W        W72523   6.570  23.394   1.602 -0.0138 -0.0736  0.2187
29508W        W72524  21.918  10.469  25.546  0.1736 -0.5600  0.0764
29509W        W72525  22.409   1.064  16.852 -0.0172  0.1290 -0.0725
29510W        W72526   1.930  18.080  29.147  0.2527 -0.0391 -0.1938
29511W        W72527   7.858   9.946  22.549 -0.0725 -0.0386 -0.0627
29512W        W72528  21.729  30.578  15.100  0.0670 -0.0669  0.0875
29513W        W72529  32.109  27.490  21.119  0.1156 -0.0203 -0.0927
29514W        W72530   2.396  26.838   6.680  0.0847  0.2210  0.4550
29515W        W72531  13.597  16.894  29.220  0.1219  0.1823  0.3689
29516W        W72532  23.156   7.948  25.854 -0.4049  0.1950  0.1789
29517W        W72533  14.839  32.116   3.966 -0.1753  0.3869 -0.2964
29518W        W72534   5.802  10.323   6.389 -0.3508  0.0666 -0.1206
29519W        W72535  32.880  12.874  20.709  0.0827  0.0633  0.2367
29520W        W72536  22.013   7.923  17.733  0.1034 -0.1057  0.1158
29521W        W72537   7.914   3.329  20.559 -0.0452 -0.1013 -0.1028
29522W        W72538  29.675  21.790  15.709 -0.0026  0.0942 -0.0034
29523W        W72539   5.596   4.905  21.246  0.0866 -0.1648 -0.0087
29524W        W72540  26.231   7.928  26.111 -0.0191 -0.1912 -0.0304
29525W        W72541   8.109  27.177  16.952  0.1555  0.2536  0.2004
29526W        W72542   0.983  10.000  18.763 -0.2996  0.0693  0.0671
29527W        W72543  15.970   3.113  20.570  0.0443  0.0078 -0.0963
29528W        W72544  16.504  27.833   1.782  0.1703  0.0364  0.1442
29529W        W72545   5.859  27.983  26.288 -0.4023  0.3046 -0.0574
29530W        W72546   5.176  29.346  26.826 -0.1461  0.0721  0.0116
29531W        W72547  21.223  32.237  23.628 -0.0083  0.2099  0.2784
29532W        W72548  33.212  16.487  29.037  0.0223  0.2629 -0.4539
29533W        W72549   1.515  28.114  19.360 -0.2242 -0.0521 -0.0833
29534W        W72550   7.706  26.601   4.482 -0.1173  0.1153 -0.1723
29535W        W72551   7.427  22.497   0.672  0.1278 -0.0365  0.0590
29536W        W72552  10.624  21.658  29.203  0.0259 -0.0600 -0.0375
29537W        W72553  34.161   6.746  26.391  0.0327 -0.1944  0.0970
29538W        W72554  30.781  16.518  16.162  0.3682  0.3404  0.0839
29539W        W72555  20.014  23.927  25.214 -0.1499 -0.2247 -0.2543
29540W        W72556   4.126  29.287  23.685 -0.0723  0.0283 -0.0940
29541W        W72557  21.578  33.194  18.427  0.0254  0.2481  0.0395
29542W        W72558  33.734  24.595  16.061  0.0993 -0.1986 -0.2359
29543W        W72559  14.616  13.569  25.982 -0.2465 -0.1049  0.0243
29544W        W72560   0.874  16.097  24.929  0.0148  0.1184 -0.2272
29545W        W72561  31.637  14.170  17.996  0.0755  0.2571  0.0086
29546W        W72562  11.488   0.776  29.036 -0.0340  0.2413  0.0576
29547W        W72563  11.318   4.319  15.435  0.0819 -0.0398  0.0746
29548W        W72564   0.519   0.474  18.835  0.2177 -0.1172  0.0863
29549W        W72565  15.190  11.671  18.199  0.3181  0.0667  0.3016
29550W        W72566  33.577  29.016  10.313  0.3157 -0.0366 -0.2346
29551W        W72567  28.269  23.261  20.335 -0.2164  0.2819  0.1800
29552W        W72568  10.788   7.371  21.861 -0.1725 -0.0792 -0.0605
29553W        W72569  12.653  13.772   0.194  0.3357 -0.0551  0.3293
29554W        W72570  19.610  27.558  23.840 -0.1931  0.0142  0.0619
29555W        W72571  32.270  14.864   3.638 -0.0522  0.3132  0.1409
29556W        W72572   4.547  24.902  19.171 -0.0264 -0.2394  0.0823
29557W        W72573   2.994  27.263  24.362  0.2092 -0.1280  0.1918
29558W        W72574   8.700  23.874  22.809  0.0720  0.3349 -0.0850
29559W        W72575   9.937  26.997   2.376  0.2907 -0.1133  0.0347
29560W        W72576   7.786  29.427  23.899  0.4370 -0.0162 -0.4434
29561W        W72577  14.967  21.318  14.130  0.1811 -0.0079 -0.2641
29562W        W72578  10.188  23.008  21.152 -0.0996  0.0135  0.1096
29563W        W72579  11.188  11.177   1.630 -0.2092 -0.1898 -0.0329
29564W        W72580  12.328  27.360   2.606 -0.1769  0.0163 -0.1303
29565W        W72581  14.373  15.391  20.568  0.0438 -0.0379 -0.0379
29566W        W72582  11.816  10.100  29.025 -0.2050  0.0092 -0.0419
29567W        W72583  14.318  12.476  17.664 -0.0431 -0.0676 -0.2050
29568W        W72584  27.760  27.725   1.287 -0.1408 -0.0757 -0.0961
29569W        W72585  32.561  20.748  24.969  0.0857  0.1775 -0.1844
29570W        W72586  22.885  18.979  22.873  0.1636 -0.1082  0.2346
29571W        W72587   7.655  18.108   2.304 -0.1028  0.1452  0.5187
29572W        W72588   1.272  10.494  20.316 -0.2607 -0.0414 -0.0957
29573W        W72589  14.226   2.857   3.727  0.0066 -0.5002 -0.0145
29574W        W72590   3.778  22.238  23.540 -0.5524 -0.2205 -0.0429
29575W        W72591   2.225  33.164   5.554  0.0009  0.2280 -0.0786
29576W        W72592  12.951  30.376  17.214 -0.0525 -0.2410  0.0334
29577W        W72593  28.100  24.120  17.184  0.1944  0.1455 -0.1009
29578W        W72594  18.038  19.694  27.718 -0.0564 -0.1479 -0.1519
29579W        W72595  14.872  20.061  26.372  0.0281 -0.0374 -0.2699
29580W        W72596  24.767  24.635  15.750  0.1481  0.1983  0.0441
29581W        W72597   9.885  15.884  21.030 -0.1294 -0.1708  0.3189
29582W        W72598  15.818   9.004   6.919  0.0904 -0.0819 -0.0730
29583W        W72599  21.476  23.526   6.005  0.1845 -0.1331  0.2107
29584W        W72600  27.111   0.600   8.301 -0.1253 -0.1041  0.0664
29585W        W72601   6.590  14.066  13.018  0.1135  0.4870 -0.3386
29586W        W72602   3.848   0.936  23.448 -0.1736  0.0221  0.4143
29587W        W72603  27.542  16.677  26.784 -0.0889  0.1097  0.0336
29588W        W72604   5.634  32.133   0.185  0.0320  0.1235 -0.2005
29589W        W72605  12.843  22.492  21.353  0.2900 -0.0454 -0.0794
29590W        W72606  26.251  13.301  14.579  0.0813 -0.0689  0.2368
29591W        W72607  26.887  22.141  22.682  0.2135  0.1449  0.0638
29592W        W72608  32.502  19.585   0.139 -0.0636  0.2250  0.3475
29593W        W72609  11.281  20.711  22.933  0.0352  0.1152 -0.4516
29594W        W72610  13.716  26.032  22.394 -0.2031 -0.1078  0.0951
29595W        W72611   2.702  16.682  24.151 -0.3312 -0.1705 -0.0143
29596W        W72612  23.626  19.434  24.498 -0.3680 -0.1149 -0.1471
29597W        W72613  32.928  18.652   8.919  0.0834  0.0353  0.1074
29598W        W72614   7.749  18.555  22.775  0.1160  0.1816  0.1855
29599W        W72615   0.732  20.836  17.605  0.0154  0.2637  0.0975
29600W        W72616   3.057   0.225  21.948 -0.1413  0.0700 -0.3135
29601W        W72617   7.113  28.542  20.457 -0.2144 -0.2453  0.0030
29602W        W72618   0.581  27.881  27.242 -0.0155  0.0542  0.2002
29603W        W72619   2.182  30.753  20.387 -0.1654 -0.0944 -0.1108
29604W        W72620  34.149   5.886  28.505 -0.2736 -0.0296  0.0175
29605W        W72621   3.979  23.972  29.202  0.2125  0.2458  0.0891
29606W        W72622  30.912  12.098  24.466 -0.0395  0.0827  0.0134
29607W        W72623   3.019  16.691  26.301 -0.0112 -0.0701  0.1078
29608W        W72624  25.135  11.135  27.015 -0.0288 -0.2477 -0.0609
29609W        W72625  24.814   5.290  21.859 -0.1179  0.1877 -0.4770
29610W        W72626   3.561  17.925   1.799  0.2839  0.3095 -0.3578
29611W        W72627  23.557  26.821  15.944  0.1181  0.3684  0.2010
29612W        W72628  12.119  11.724   0.411  0.0372 -0.0277 -0.1658
29613W        W72629  29.164  29.236   1.643  0.1002  0.2349 -0.2469
29614W        W72630   9.764  18.872  22.932 -0.0157 -0.1333 -0.4039
29615W        W72631   1.359  34.375   7.681 -0.0776  0.2765  0.0640
29616W        W72632  12.278  13.832   0.922 -0.0354 -0.1845 -0.1006
29617W        W72633  27.737  22.722  18.695 -0.3073 -0.1291  0.0894
29618W        W72634  15.243  16.092  21.158 -0.0187  0.1086 -0.1758
29619W        W72635   9.532  22.815  17.274 -0.1279  0.0956  0.1170
29620W        W72636   6.686  29.022  17.803 -0.2552  0.3197 -0.0410
29621W        W72637   8.428  12.086  23.208 -0.1123  0.1656  0.1653
29622W        W72638   5.037  17.016   9.558  0.1465 -0.3762  0.0908
29623W        W72639   5.916  19.055  26.925 -0.0693 -0.0466 -0.3310
29624W        W72640   1.352  31.250   1.696  0.0772  0.2345 -0.0230
29625W        W72641  28.171  13.703  15.039  0.1417 -0.1283 -0.2563
29626W        W72642   8.376   9.212  18.488 -0.0765  0.0686  0.1585
29627W        W72643   1.162  17.001  26.216 -0.2067 -0.0020 -0.0221
29628W        W72644   6.118  22.016   1.041  0.1164  0.2247 -0.0740
29629W        W72645  29.468  19.826   2.230 -0.0724 -0.0342 -0.1026
29630W        W72646  25.538  21.005  27.331  0.2740  0.1637  0.1432
29631W        W72647  12.871  27.438   7.374 -0.2717 -0.1451 -0.1274
29632W        W72648  29.439  15.557  24.471 -0.0304  0.0135  0.1006
29633W        W72649   5.472  31.527   9.225  0.0812 -0.3549  0.2673
29634W        W72650  29.206  23.048   7.625  0.1520  0.2229  0.0577
29635W        W72651  16.543  27.340   6.658  0.2544 -0.2244 -0.3283
29636W        W72652   6.449  17.285   5.760 -0.2204 -0.2019  0.1257
29637W        W72653   6.406  21.325  28.484  0.0072  0.1913 -0.1355
29638W        W72654   8.638  14.327   8.555 -0.1068 -0.0365 -0.0675
29639W        W72655   2.651   3.089   7.396 -0.0413 -0.0719 -0.1304
29640W        W72656   0.109  34.047   0.140  0.1968 -0.1954 -0.0612
29641W        W72657  24.372   6.768   7.517  0.1162 -0.2132 -0.0561
29642W        W72658   6.656  27.628   9.705 -0.0897 -0.2708 -0.2099
29643W        W72659  33.657  24.866  25.299  0.0315  0.0405  0.1358
29644W        W72660  11.374  29.863  27.300 -0.0185 -0.0627  0.2442
29645W        W72661  12.982   5.779   2.565 -0.0868  0.0655 -0.1526
29646W        W72662  12.662  10.430  23.934  0.0860 -0.2143 -0.0141
29647W        W72663  20.621   9.560   4.055  0.2143  0.0471 -0.1955
29648W        W72664  29.373  21.276   1.642 -0.0955  0.1797  0.2657
29649W        W72665   9.482  17.922  22.353  0.1636  0.2101  0.0175
29650W        W72666  26.304  30.095  22.520  0.0989 -0.0906  0.1108
29651W        W72667  27.846   8.955  28.888  0.1981  0.1386 -0.0478
29652W        W72668  14.604  12.641   7.039  0.1081  0.4261  0.0111
29653W        W72669  13.676  16.213  22.850  0.1091  0.1376  0.2519
29654W        W72670  18.587  34.133  26.697  0.0429 -0.0496 -0.1441
29655W        W72671   7.976  16.183   5.706 -0.0800 -0.1622 -0.2135
29656W        W72672  29.929  10.386  16.760 -0.2131  0.1202 -0.0438
29657W        W72673  29.551  22.589  11.613  0.1493  0.1265 -0.0506
29658W        W72674  25.280  22.433   0.267  0.0256 -0.0049 -0.0816
29659W        W72675   6.560  26.696  23.878  0.0051  0.0003  0.0893
29660W        W72676  13.249  11.622   4.714  0.2316  0.3299 -0.2763
29661W        W72677  23.224  23.005  27.029 -0.0876 -0.0686 -0.0819
29662W        W72678   1.939  34.213  26.802 -0.1131 -0.2618 -0.1116
29663W        W72679  33.449  14.064   8.742 -0.4077  0.2018 -0.1868
29664W        W72680  32.467  10.188  26.748  0.0696 -0.0731  0.0654
29665W        W72681  34.729  34.441  14.074  0.1684  0.0583 -0.0878
29666W        W72682  25.125   2.577   1.842 -0.0726 -0.0343 -0.0260
29667W        W72683  34.276   1.788  25.476  0.2466  0.4025  0.2625
29668W        W72684  29.805  22.382  24.737 -0.0764 -0.3189 -0.2674
29669W        W72685   3.259  20.549   5.223 -0.0427 -0.0323  0.0977
29670W        W72686  28.699  32.341  11.159  0.0086 -0.2476 -0.0486
29671W        W72687   0.945  30.695  15.135  0.0224 -0.0466  0.0033
29672W        W72688  21.675  21.625  22.707 -0.2547  0.0016 -0.0309
29673W        W72689  10.713  17.787  19.553 -0.1604  0.1225  0.2863
29674W        W72690  12.120  21.902  19.310  0.0839  0.2137  0.0511
29675W        W72691  12.547  26.576  14.818 -0.1267  0.1744  0.1939
29676W        W72692  22.693  20.851  20.065 -0.2112  0.0527 -0.0336
29677W        W72693  10.623  19.216  16.172  0.0403  0.2061  0.2341
29678W        W72694  13.135   2.364   2.450 -0.0946  0.0157 -0.3603
29679W        W72695  21.232  22.453  21.234  0.0155  0.0102  0.2695
29680W        W72696   8.866  32.333  23.265  0.1682  0.1002 -0.0328
29681W        W72697   4.513   4.857   2.043  0.0950  0.2070  0.2129
29682W        W72698  19.263  27.315   3.961  0.0477  0.1034  0.0665
29683W        W72699  10.249  13.145  25.629  0.1094 -0.0747 -0.0239
29684W        W72700  20.575  27.113  25.682  0.0599 -0.0451 -0.3423
29685W        W72701   3.468  31.882   7.513  0.2279 -0.1315  0.1070
29686W        W72702  29.544  21.514  21.822  0.1661  0.3845 -0.0046
29687W        W72703  34.631  13.405  24.242  0.5826 -0.1107  0.2881
29688W        W72704   8.877  33.252   7.570  0.2782  0.3419 -0.1285
29689W        W72705  32.334  10.087  27.285  0.2833 -0.4392 -0.1890
29690W        W72706   7.973   9.060   6.741  0.0750  0.0902 -0.0039
29691W        W72707  16.757  34.613  15.145 -0.2000  0.3035  0.1691
29692W        W72708   4.893  10.667  19.419  0.0274 -0.0140  0.1230
29693W        W72709  25.090  19.503  22.654 -0.0393 -0.2925  0.1218
29694W        W72710  19.710  26.445  20.721 -0.0660  0.1427 -0.1896
29695W        W72711   3.235  30.771  23.212 -0.0411  0.0574 -0.0321
29696W        W72712  28.921  27.496  11.848  0.0271  0.0800 -0.1214
29697W        W72713  19.856  25.175  28.726 -0.1905  0.0754  0.1314
29698W        W72714   2.017  15.892   7.476 -0.0582  0.0352  0.2508
29699W        W72715  32.233  17.534  10.249  0.2018 -0.3399  0.0524
29700W        W72716  22.157   4.884  25.786  0.0284  0.0697  0.0430
29701W        W72717   2.244  10.537   9.406  0.1723 -0.1474  0.1906
29702W        W72718  31.586  27.996  27.741  0.4171  0.1180  0.2940
29703W        W72719  28.809  27.271  17.486 -0.0103 -0.0219 -0.2056
29704W        W72720   4.280  14.663   8.971 -0.2017 -0.0512  0.0469
29705W        W72721  13.259  29.231  26.884  0.0744  0.1444  0.0867
29706W        W72722  16.852  32.180  26.773 -0.2284 -0.1429  0.1421
29707W        W72723  31.498  21.155  25.413 -0.0928 -0.3124 -0.0520
29708W        W72724   1.300  33.675  23.222 -0.0326  0.0482 -0.0557
29709W        W72725  33.042   9.740  15.894 -0.0843  0.1566  0.0524
29710W        W72726   1.219  26.321   3.356 -0.0194  0.0107  0.3895
29711W        W72727   2.929   9.439  23.181  0.1081  0.2582  0.3734
29712W        W72728  14.781   8.579   2.191  0.0790 -0.0905 -0.2154
29713W        W72729   3.016  16.590  20.175 -0.2951  0.1153 -0.0434
29714W        W72730   4.756  17.361   7.014  0.1489 -0.3651 -0.0184
29715W        W72731   2.985  30.333  16.954  0.1173  0.0110 -0.1422
29716W        W72732  30.340  22.902  23.199 -0.1531 -0.1612 -0.3363
29717W        W72733   2.232  12.269   3.169 -0.1551 -0.1246 -0.4547
29718W        W72734  30.614  26.261  20.237 -0.3512 -0.2231 -0.0604
29719W        W72735   3.408  19.420   6.566  0.0646  0.2443 -0.1656
29720W        W72736  28.082  15.934  26.350  0.0548 -0.0886 -0.0869
29721W        W72737  25.181   7.667  19.143 -0.1187 -0.0335  0.0736
29722W        W72738  31.711  26.498  28.920  0.4065  0.0517 -0.4860
29723W        W72739  22.341  25.922   1.872  0.0956  0.3000  0.1414
29724W        W72740  32.519  27.481  20.844  0.0607  0.0836 -0.0775
29725W        W72741  12.621  10.666   3.198  0.0528  0.1637  0.3590
29726W        W72742   3.199  20.433   9.040  0.1170  0.2304  0.1313
29727W        W72743  32.316  12.553  26.344  0.0279 -0.2677 -0.0579
29728W        W72744  21.909  24.405  27.847  0.2119 -0.3184 -0.1004
29729W        W72745   7.442  31.288   1.910  0.2915  0.1276 -0.1843
29730W        W72746   1.437   9.081  19.649  0.0987  0.1374  0.2364
29731W        W72747  22.313  27.308  26.281 -0.1546 -0.5064  0.0394
29732W        W72748  22.586   3.463   4.804  0.0406 -0.1450 -0.3347
29733W        W72749   9.303  20.432  19.996 -0.4654  0.0356  0.0331
29734W        W72750  11.205  18.951  23.972  0.2421 -0.0721  0.0493
29735W        W72751  10.436   4.988  22.393  0.0589 -0.0601 -0.0421
29736W        W72752  10.968  15.739  12.656 -0.3196 -0.1994 -0.0972
29737W        W72753   9.761  20.030  22.186 -0.0798  0.4070 -0.2654
29738W        W72754  16.698  21.981  23.321 -0.3377  0.0044  0.0427
29739W        W72755   1.011  23.399  19.569  0.2717  0.1732  0.0593
29740W        W72756  34.350  28.985  23.157 -0.2242  0.4942  0.0495
29741W        W72757  30.595   8.088  14.754  0.1399  0.1178  0.0581
29742W        W72758  26.929  23.711  23.271  0.0309  0.2233  0.3011
29743W        W72759   6.960  14.813  23.337  0.2548 -0.3484 -0.3220
29744W        W72760   5.114  14.968  15.364 -0.0596  0.1115  0.2038
29745W        W72761  32.971  18.528   6.440 -0.0501  0.1877  0.0855
29746W        W72762   6.570  14.920   8.454  0.1385  0.1339 -0.1411
29747W        W72763  25.607  15.398  28.223  0.4411 -0.1079 -0.0729
29748W        W72764  32.404   9.495  23.904  0.0994  0.2021 -0.0500
29749W        W72765  34.715  10.165  25.534  0.0917  0.1280  0.1820
29750W        W72766   7.778  28.776  21.077 -0.0467 -0.0499  0.1749
29751W        W72767  15.273  27.615  21.388 -0.0262  0.2123 -0.0082
29752W        W72768  14.914  32.714  21.967 -0.1531 -0.0147 -0.0210
29753W        W72769  20.836  12.220   7.153 -0.1356  0.1260 -0.0972
29754W        W72770  15.382  10.563  22.712 -0.1549 -0.1491  0.0252
29755W        W72771  31.726  23.757   0.047  0.0647  0.0407  0.1047
29756W        W72772  10.860  32.363   0.424 -0.4199  0.0133 -0.1645
29757W        W72773  17.192   2.971  28.432  0.1776  0.2956 -0.2976
29758W        W72774  28.601  23.435  26.452  0.1633 -0.1916 -0.0878
29759W        W72775  33.825   6.850   7.287  0.2518  0.0194 -0.2772
29760W        W72776   0.876   9.349   6.356 -0.1184  0.0176 -0.4596
29761W        W72777   2.232  16.629   6.963  0.3456  0.0640 -0.2943
29762W        W72778   2.248  16.639  23.940  0.2290 -0.0456 -0.3652
29763W        W72779  34.702  28.292   8.749 -0.4122  0.2423 -0.3167
29764W        W72780   3.017  26.116   7.207 -0.0843 -0.2011 -0.0702
29765W        W72781  11.045   2.484  27.018  0.0165 -0.1487  0.3000
29766W        W72782   7.542  23.593   3.769 -0.1434  0.0087  0.1816
29767W        W72783  12.723  11.429   2.545 -0.3299 -0.0628 -0.0866
29768W        W72784  15.847  29.566  17.530 -0.0683  0.4032  0.2695
29769W        W72785  31.487  28.837  28.012 -0.1696  0.0112  0.2298
29770W        W72786   0.337   3.646   3.936  0.0685  0.0533  0.1076
29771W        W72787   8.366  16.691  14.710 -0.1460  0.0154  0.0269
29772W        W72788  25.140  13.174  21.260 -0.2225 -0.1403  0.2324
29773W        W72789  30.565  19.520  10.137 -0.4765 -0.0728  0.2686
29774W        W72790   9.960  21.411  14.351 -0.1109 -0.0279 -0.2905
29775W        W72791  14.709  21.409   8.782 -0.3618 -0.1781  0.3078
29776W        W72792   4.030  21.330  28.260  0.0174 -0.0379 -0.1770
29777W        W72793  11.521  24.391  20.135 -0.5613 -0.0486 -0.4156
29778W        W72794   7.215  17.831   9.087 -0.2010 -0.1515  0.0459
29779W        W72795  30.436  30.691  20.171  0.2665 -0.2108 -0.1824
29780W        W72796  33.821  20.183  29.083  0.0109 -0.1212 -0.0483
29781W        W72797   0.328  23.112   3.619  0.1891  0.0470  0.1199
29782W        W72798  33.701  32.233  23.188 -0.0475  0.2703 -0.0549
29783W        W72799  34.168  20.386   8.277  0.0837  0.1199  0.1143
29784W        W72800   3.430  16.768  26.960 -0.0392  0.0213 -0.1299
29785W        W72801  29.270  25.189  25.088 -0.0123  0.2190 -0.2069
29786W        W72802  24.279  17.068  25.830 -0.2793 -0.0543 -0.1686
29787W        W72803  16.761   4.257   8.503 -0.0612 -0.1325  0.1401
29788W        W72804  29.748  27.767   9.354 -0.0001  0.2024  0.4111
29789W        W72805  15.788  25.922  14.458  0.0405 -0.0238  0.0118
29790W        W72806   9.310  23.828  17.606 -0.2212  0.2475  0.3614
29791W        W72807  17.757  20.661   1.766 -0.0593  0.2550  0.2015
29792W        W72808   1.877  23.316   5.348 -0.0791 -0.0904 -0.0759
29793W        W72809   9.273  17.850   5.423 -0.0989 -0.1376 -0.0066
29794W        W72810  30.749  31.797   6.955 -0.0491  0.0576 -0.0067
29795W        W72811   3.228  14.766   4.837 -0.0791 -0.2488  0.3012
29796W        W72812  32.746   6.366   5.449 -0.0089  0.2734  0.0195
29797W        W72813   7.233  11.822  28.001 -0.0373 -0.0692  0.3015
29798W        W72814  21.836  22.581  21.544  0.1647  0.1251 -0.0492
29799W        W72815  29.899  22.512   1.324  0.3964  0.3307 -0.0683
29800W        W72816   6.715  14.134  24.613  0.0184 -0.0067  0.0861
29801W        W72817   6.884  22.212   3.590 -0.1249 -0.0373 -0.0230
29802W        W72818   7.673  12.095  28.197 -0.2405 -0.0370  0.0288
29803W        W72819   5.988  26.165   0.552 -0.0494  0.2025 -0.3134
29804W        W72820  11.302  18.604   6.080  0.1201 -0.0432  0.2353
29805W        W72821  28.272  28.541  11.528 -0.2865 -0.2707  0.1913
29806W        W72822   1.932  16.672   6.114 -0.0208  0.1573  0.2972
29807W        W72823  29.034  20.253   4.624  0.2328 -0.0740  0.0729
29808W        W72824  33.372  14.030   3.371 -0.0544 -0.0154 -0.1566
29809W        W72825   1.830  30.930  26.335  0.1542  0.3939 -0.0190
29810W        W72826  13.775  12.731   8.141 -0.1389  0.0316 -0.1920
29811W        W72827  17.002  19.367  21.509 -0.1318  0.3254 -0.1099
29812W        W72828  10.196  16.443  17.527 -0.0043 -0.0145  0.0872
29813W        W72829   3.395   4.232  29.204  0.0375 -0.0987  0.1212
29814W        W72830   3.250  12.564   2.224  0.1242 -0.1165  0.0091
29815W        W72831  13.538  16.729  24.124 -0.1964 -0.1084 -0.5907
29816W        W72832  21.845  20.038  13.543  0.0648  0.1056  0.2982
29817W        W72833  26.339   8.801  10.846 -0.2671  0.2088 -0.2359
29818W        W72834  32.834  20.983   7.954 -0.1800  0.2040  0.0725
29819W        W72835  20.140  22.920  18.908 -0.3140  0.0405  0.0481
29820W        W72836   8.902  25.106  24.101 -0.0140 -0.1340 -0.2262
29821W        W72837  18.893  16.485   2.067  0.1357 -0.2042  0.2245
29822W        W72838   3.901  18.882  17.175 -0.2477 -0.1384  0.1902
29823W        W72839  34.325   4.217  26.968 -0.2088 -0.0510 -0.1307
29824W        W72840  30.660  18.727   8.019 -0.1817  0.1862 -0.0554
29825W        W72841  34.569  16.874  20.064  0.2034 -0.2618  0.4944
29826W        W72842   6.774  30.182  23.605 -0.0602  0.2895 -0.0684
29827W        W72843  12.455   8.431  19.151 -0.1362  0.0106  0.1135
29828W        W72844   2.881  25.563  18.868  0.0225 -0.1557  0.1942
29829W        W72845   9.443   2.901  15.256 -0.0462  0.1626 -0.4701
29830W        W72846  16.525  24.904  18.612 -0.1445 -0.1868 -0.1290
29831W        W72847  18.751  15.732  28.586 -0.1041 -0.2381 -0.3233
29832W        W72848   6.197  25.948  27.503 -0.2769  0.0167  0.0758
29833W        W72849  32.474  26.458  14.900  0.2387 -0.1997 -0.1025
29834W        W72850  20.217  21.990  16.734 -0.2387  0.1991  0.1120
29835W        W72851   5.261   3.034  19.393  0.1425 -0.1305 -0.1739
29836W        W72852  21.410  21.171   2.052  0.2564 -0.0907  0.2412
29837W        W72853  13.788  26.353  17.789 -0.2276  0.1444  0.1433
29838W        W72854   6.673   0.052  21.076 -0.0571 -0.0606  0.3245
29839W        W72855   7.986  25.240  21.610  0.0954 -0.1725  0.2748
29840W        W72856  12.668  32.235  19.730  0.0220 -0.3167 -0.0889
29841W        W72857   6.776  16.603  27.187  0.0965 -0.1327  0.1861
29842W        W72858  13.363  19.995  14.226  0.2575  0.0376  0.0704
29843W        W72859  30.735  19.811  16.628 -0.0945  0.0051  0.0312
29844W        W72860  19.561  16.413  15.424  0.2049 -0.1463  0.1129
29845W        W72861  21.804   8.058  17.219  0.1045  0.2197  0.1687
29846W        W72862   3.365  20.585  21.615 -0.3170  0.0850  0.1177
29847W        W72863  30.516   2.252  18.836  0.1451  0.0021 -0.0665
29848W        W72864   7.642  28.216  19.748 -0.1794 -0.0674  0.0344
29849W        W72865  33.690  14.352   1.714  0.1677  0.0264  0.0748
29850W        W72866  27.145  14.385  27.101 -0.0426  0.0649  0.1999
29851W        W72867   0.259  22.888  14.169  0.1364  0.0674  0.2269
29852W        W72868  25.783   9.830  25.295  0.0139  0.0917  0.0733
29853W        W72869  32.716   3.961  16.062 -0.1025  0.1099  0.0680
29854W        W72870  19.691   3.307  19.276 -0.3889 -0.0634  0.1415
29855W        W72871   7.770  29.308  16.420 -0.1824  0.0459 -0.1348
29856W        W72872   7.995  27.054  20.790 -0.0500  0.2980 -0.0328
29857W        W72873  14.480  24.406  13.919 -0.1400  0.2534 -0.0047
29858W        W72874  12.654   7.887  19.245  0.1223  0.1454  0.0932
29859W        W72875  17.877  29.119  20.805  0.0395  0.1413 -0.0447
29860W        W72876  28.841   8.769  27.425 -0.1628  0.3583  0.1856
29861W        W72877  21.807  21.243  14.562  0.2454  0.0258 -0.1006
29862W        W72878  15.884   1.956  18.582 -0.2027 -0.1477  0.0488
29863W        W72879   6.092  22.669  13.032  0.0336  0.2011 -0.0582
29864W        W72880   2.711  25.196  24.510 -0.3435 -0.2582  0.0563
29865W        W72881  17.639   1.134  18.292 -0.2626  0.0299  0.3606
29866W        W72882  34.758  33.328   2.870 -0.0394  0.1064 -0.0789
29867W        W72883  10.329  34.688  17.311  0.0804 -0.2258  0.2160
29868W        W72884   7.370  27.152  21.747 -0.0302  0.4408  0.0102
29869W        W72885  34.346  12.745  17.821 -0.0761 -0.1363  0.1530
29870W        W72886  30.527   2.377  23.918  0.0251  0.2457 -0.1127
29871W        W72887  34.328  28.617  24.395 -0.0210 -0.2995 -0.0375
29872W        W72888   1.626   9.662  21.159  0.0820 -0.0915 -0.4087
29873W        W72889   3.637  26.170  16.873 -0.0223  0.0224 -0.1763
29874W        W72890   9.136  22.088  18.772  0.0029  0.1331 -0.0856
29875W        W72891  21.970  14.995  20.600 -0.0740  0.0696 -0.1567
29876W        W72892  11.498  33.647  22.212  0.0613 -0.1785 -0.3731
29877W        W72893   5.470  13.538  25.046 -0.0082  0.0524  0.0228
29878W        W72894   3.003  31.691  14.711  0.2898 -0.1729 -0.1184
29879W        W72895  27.885  30.962  20.939 -0.2104 -0.0307 -0.0952
29880W        W72896   4.515  34.302  25.333 -0.0379  0.2064 -0.1021
29881W        W72897  33.355  17.179  17.156  0.0473 -0.1426 -0.0266
29882W        W72898   2.453   0.227  21.468  0.1341 -0.0735 -0.1505
29883W        W72899   3.925  21.324   3.051 -0.1675  0.3710  0.1187
29884W        W72900  12.189  25.788  15.415 -0.2977  0.1779  0.0424
29885W        W72901  15.870  12.964  18.202 -0.1641 -0.1552  0.3695
29886W        W72902   3.010  26.115  20.770 -0.0702  0.1688  0.1525
29887W        W72903   4.412  23.689  21.393 -0.0379 -0.1917  0.0400
29888W        W72904   7.652   0.387   0.914  0.2165  0.2398  0.0832
29889W        W72905  14.700  26.609  20.591 -0.0567  0.0488 -0.0500
29890W        W72906   7.187  26.760  17.678  0.5807  0.0741 -0.0196
29891W        W72907  19.288  18.417  11.596 -0.2447  0.1074  0.0875
29892W        W72908  25.439  20.529  26.964 -0.0380  0.2914 -0.2334
29893W        W72909   0.493  27.111  25.371  0.1810 -0.0097 -0.0439
29894W        W72910  14.377  21.229  13.564  0.1570  0.1739 -0.2200
29895W        W72911   0.969  29.179  26.876  0.2134  0.2646 -0.0964
29896W        W72912   2.593  23.255  25.669 -0.2685 -0.2186  0.0816
29897W        W72913   4.030  18.470  28.378 -0.0383 -0.2658 -0.4172
29898W        W72914   8.167   2.953  20.329 -0.2685  0.0482  0.2722
29899W        W72915  18.076  21.747  14.569 -0.0734 -0.4216 -0.0282
29900W        W72916   6.753  18.130  25.700  0.3114 -0.0914 -0.4309
29901W        W72917   3.988  21.267   0.296 -0.5518  0.2161  0.1102
29902W        W72918  15.469  19.541  11.278 -0.2574 -0.2204  0.2653
29903W        W72919   4.142   1.148   0.707  0.2674  0.3914 -0.1349
29904W        W72920  31.915  23.912  26.268 -0.0770 -0.6018  0.1498
29905W        W72921  16.955  22.260  14.367  0.2782  0.4574  0.1120
29906W        W72922   0.772   1.249  27.280  0.2833  0.0071 -0.1600
29907W        W72923  10.235   5.717  16.584  0.0970 -0.1122 -0.0387
29908W        W72924  14.733  28.247  20.976  0.1567 -0.0072 -0.0495
29909W        W72925  19.299   9.760  20.872 -0.1071 -0.2722  0.1085
29910W        W72926  33.133  17.639  24.765  0.0843  0.4132  0.0793
29911W        W72927  33.866  20.547  22.748  0.0020  0.1428  0.2649
29912W        W72928  12.940  16.359  13.038  0.2143 -0.0472  0.0685
29913W        W72929   1.445  22.981  15.304  0.1836 -0.1220  0.2403
29914W        W72930   2.155   3.506  16.287  0.1935  0.0243 -0.1082
29915W        W72931  28.030  28.694  23.703 -0.0434  0.1222  0.1288
29916W        W72932  25.394  13.979  15.943  0.0369 -0.3278  0.1706
29917W        W72933  16.246  33.031  20.976 -0.2767  0.0437 -0.1842
29918W        W72934  18.782   2.665  13.790  0.1715 -0.3500  0.1648
29919W        W72935   9.087  32.664   2.291  0.0029  0.0150 -0.0256
29920W        W72936  26.234   1.735  23.890 -0.2214  0.0248  0.3500
29921W        W72937   1.173  21.911  18.354  0.2445 -0.1207 -0.0736
29922W        W72938  18.112  22.941  14.411  0.1424 -0.3420 -0.2897
29923W        W72939  32.669  19.484  20.259 -0.1305  0.1198 -0.0761
29924W        W72940  18.241  12.741  19.282 -0.1397  0.1143 -0.1331
29925W        W72941  13.324  20.436   0.095  0.1044  0.0850 -0.0184
29926W        W72942   8.894  33.402  17.596  0.3483  0.0863 -0.2358
29927W        W72943  21.545   7.242  20.057  0.2436  0.0318 -0.2281
29928W        W72944   4.262   3.472  23.886 -0.1030  0.1863  0.1628
29929W        W72945  23.106  22.328  24.103  0.0281 -0.2738 -0.1768
29930W        W72946  30.100  16.026  23.573 -0.2368  0.1600  0.1651
29931W        W72947  16.700  27.501  24.811  0.0559  0.0931  0.0865
29932W        W72948  33.273  23.292  14.949 -0.0369  0.2701  0.1523
29933W        W72949  14.603  28.258  26.576  0.3668 -0.1911  0.0602
29934W        W72950   8.365  15.460  26.667  0.1910  0.0700  0.0235
29935W        W72951  28.270  33.918  18.720 -0.0818  0.1067 -0.0548
29936W        W72952   6.108  26.314  23.279  0.0257 -0.2524 -0.2146
29937W        W72953   3.989  30.889  14.593 -0.1290 -0.3308 -0.1620
29938W        W72954  31.418  32.115  15.543  0.3823  0.0834 -0.1394
29939W        W72955  12.872  33.581   6.732  0.1658 -0.0579 -0.1698
29940W        W72956   5.933  34.364  17.808 -0.0765  0.1004  0.0204
29941W        W72957  22.131  20.263  21.612 -0.0920 -0.0309 -0.0705
29942W        W72958   5.510  21.295   2.610 -0.3144 -0.1405 -0.1437
29943W        W72959  19.438   8.921  22.854 -0.2852 -0.1351  0.1969
29944W        W72960  29.412  28.039  26.417 -0.4046  0.0924 -0.1299
29945W        W72961  19.060  23.067  14.744  0.0350  0.0062 -0.0480
29946W        W72962   3.548  17.864   0.164  0.5869  0.0194  0.0108
29947W        W72963  17.066  33.243  26.011 -0.0923 -0.2473 -0.2545
29948W        W72964  33.120  16.756  15.245  0.3115  0.1356 -0.0111
29949W        W72965   5.159  26.344  21.410  0.1337 -0.1368  0.0028
29950W        W72966  17.532  32.299  23.995 -0.2989 -0.1447  0.0696
29951W        W72967  33.019  14.983  15.165  0.0085 -0.1524 -0.1776
29952W        W72968  12.864   3.478  20.593  0.3206 -0.0959 -0.0539
29953W        W72969   3.994  29.186  17.360 -0.0301  0.2883  0.1546
29954W        W72970  24.198  26.717  19.247 -0.0291 -0.0077 -0.1505
29955W        W72971  18.801  17.588  22.661  0.4582  0.3768  0.2750
29956W        W72972  33.001  19.126  26.076 -0.0068 -0.0832  0.1751
29957W        W72973   5.166  14.681  19.506 -0.3068  0.0239  0.2513
29958W        W72974  33.598  29.916  23.345  0.2171  0.0761  0.2961
29959W        W72975  26.931  22.047   1.127  0.2561  0.1264  0.2091
29960W        W72976   7.049  23.115  20.682  0.0496 -0.1171  0.0816
29961W        W72977   9.105  21.442  28.870 -0.2558  0.2782  0.1567
29962W        W72978   2.162   8.605  27.400  0.2059 -0.0092  0.0483
29963W        W72979   5.723  32.222  18.188  0.0517 -0.2162 -0.1985
29964W        W72980  29.417  32.131   4.299  0.0036  0.0131 -0.2160
29965W        W72981   9.614  12.655  18.526  0.1880  0.1400  0.0685
29966W        W72982   0.168  18.888  17.167  0.1504  0.2599  0.1609
29967W        W72983  27.719  10.503  21.313 -0.0816  0.1948  0.2852
29968W        W72984  23.901  29.759  17.662  0.2524 -0.0638  0.2070
29969W        W72985  16.906  25.330  13.340  0.0425  0.0061 -0.0259
29970W        W72986   0.647   7.586   8.959  0.1257  0.0977  0.0397
29971W        W72987  21.825  10.872  13.649  0.1400  0.2441  0.2161
29972W        W72988  32.001  23.984  19.244  0.0734 -0.1815  0.0083
29973W        W72989   8.210  26.409  24.007  0.0496  0.0240 -0.2066
29974W        W72990  10.005  25.155  25.061 -0.1178  0.2968 -0.1709
29975W        W72991  28.473   7.531  22.935 -0.1174 -0.1893 -0.1875
29976W        W72992  14.763  28.871  15.353  0.1089  0.0807  0.0846
29977W        W72993   4.209  16.696  25.150  0.0196  0.1167  0.1143
29978W        W72994   0.945  11.160  20.569 -0.2292  0.0355  0.0709
29979W        W72995   6.807  20.097  13.513 -0.4863  0.4498 -0.2404
29980W        W72996   8.917  17.172  18.646  0.3507  0.1322 -0.0139
29981W        W72997  10.835  24.143   1.618 -0.1365  0.1612  0.1327
29982W        W72998  30.600   0.017  23.998 -0.1933  0.0640 -0.3075
29983W        W72999  33.511  30.563  15.913 -0.2050  0.1666 -0.1421
29984W        W73000  13.676   2.922  14.352  0.0881  0.3788  0.0282
29985W        W73001   4.404  28.442  16.691  0.1844 -0.1658 -0.0004
29986W        W73002  26.620  22.068  14.857  0.0654  0.2222  0.1274
29987W        W73003   4.400   9.965   0.821 -0.0445  0.0950  0.1242
29988W        W73004  14.961  29.736  16.196  0.1390 -0.0021  0.0722
29989W        W73005   3.136  15.998  18.525 -0.0408  0.0210  0.0940
29990W        W73006   3.863  17.505   1.004  0.1114  0.0174 -0.1526
29991W        W73007   7.540  20.422  13.732 -0.1756 -0.4784  0.0324
29992W        W73008  31.813  28.995  27.574 -0.2104 -0.3498  0.4074
29993W        W73009   2.268  19.197  14.192 -0.1284  0.2150 -0.2695
29994W        W73010   5.723  12.659  12.919  0.1367 -0.0671  0.0922
29995W        W73011   9.813  29.393  14.437 -0.2305  0.4144 -0.2094
29996W        W73012   4.634  21.508  19.462 -0.1071 -0.0191  0.1245
29997W        W73013  14.815   1.475  15.239 -0.0311  0.3725  0.0507
29998W        W73014   8.532  19.463  17.231  0.1692  0.0576  0.2620
29999W        W73015   2.943  11.460  17.027 -0.0708 -0.3092  0.2198
30000W        W73016  15.812   6.054  16.961 -0.0218  0.1783  0.3111
30001W        W73017  22.184  13.036  21.220 -0.0131  0.0812  0.0644
30002W        W73018   9.516  15.097  18.230  0.0827  0.0839 -0.0403
30003W        W73019   2.524  14.124  27.902  0.0039  0.2710  0.1809
30004W        W73020   6.102  21.246  17.132  0.1383  0.1102 -0.2509
30005W        W73021  16.046  31.126  15.976 -0.2520 -0.2469  0.0725
30006W        W73022  28.759  27.200  20.479  0.2413 -0.4898  0.0655
30007W        W73023   7.530   8.731  24.825  0.1522  0.0255 -0.0233
30008W        W73024   5.320  31.250  26.732 -0.0273  0.4829 -0.0129
30009W        W73025   0.167  16.542  22.159 -0.0982  0.4946 -0.0801
30010W        W73026   3.246  22.089  19.319 -0.0417 -0.0064  0.2101
30011W        W73027  30.869  29.019  17.989  0.1496  0.0126 -0.0588
30012W        W73028  33.906  18.262  18.018 -0.2865 -0.2102 -0.0929
30013W        W73029   0.275  30.427  17.692 -0.3542 -0.2876  0.1985
30014W        W73030  20.466  30.259  21.285  0.0023 -0.0054  0.1053
30015W        W73031   0.613  26.501  19.279  0.2974  0.0664 -0.1242
30016W        W73032   1.222  20.606  29.167 -0.2593  0.0089  0.0576
30017W        W73033  11.112  32.895  26.084 -0.1354  0.0346 -0.0919
30018W        W73034  13.776   9.894  19.905  0.0107 -0.3856  0.2657
30019W        W73035  31.156  24.932  23.442  0.1512  0.0664  0.3660
30020W        W73036  33.141  23.005  15.513  0.2487 -0.1520  0.0874
30021W        W73037  15.248  23.325  23.270 -0.0973  0.2337  0.0527
30022W        W73038   4.881  22.562  18.503 -0.0766  0.0955  0.2085
30023W        W73039   0.067   3.526  25.503  0.3309  0.1386  0.3010
30024W        W73040   8.823  31.769  25.704 -0.2519 -0.1776  0.1556
30025W        W73041  31.876  25.500  19.028 -0.0416  0.2098 -0.2616
30026W        W73042  29.843  22.470  14.909 -0.0963  0.2698  0.0699
30027W        W73043  33.094  30.180  19.568  0.2372 -0.1459  0.1743
30028W        W73044  11.066   6.746  15.670  0.0422  0.1003  0.4137
30029W        W73045   6.140  16.719  16.367 -0.0565  0.1321 -0.1452
30030W        W73046  29.884  29.417  15.715 -0.0692  0.3716  0.2092
30031W        W73047  15.999  34.304  15.533  0.1034 -0.0808 -0.1126
30032W        W73048   3.915  19.225  20.616  0.2416 -0.0559  0.0591
30033W        W73049   4.798  23.710  20.503 -0.1767  0.1049 -0.0055
30034W        W73050   8.010   2.152  25.447 -0.5865  0.0455  0.4454
30035W        W73051  14.277  23.662  14.841  0.1194 -0.1811  0.2792
30036W        W73052   4.567  25.239  14.414  0.1986  0.1272 -0.0316
30037W        W73053   0.466  29.662   2.307  0.2982 -0.0454  0.0399
30038W        W73054  15.114   3.008  22.045  0.1318  0.0897 -0.3578
30039W        W73055   1.429  19.002  20.803 -0.0255  0.0873 -0.0759
30040W        W73056  19.944   8.551  15.421  0.2579  0.0860 -0.2730
30041W        W73057  11.942  13.502  22.391 -0.0331  0.1343 -0.0817
30042W        W73058  18.664   5.583  17.493  0.3198  0.2586 -0.0498
30043W        W73059   1.931  27.203  17.424 -0.0615  0.3104  0.0670
30044W        W73060   7.110  33.014  14.400  0.0124  0.3123 -0.1627
30045W        W73061   6.967  24.712  25.454 -0.0298 -0.1773 -0.0810
30046W        W73062  16.231  16.633  28.147  0.2220  0.2811 -0.1431
30047W        W73063  34.527   3.039  23.672  0.0654 -0.0329 -0.0562
30048W        W73064  24.912   1.287  22.319 -0.0987  0.0461 -0.2309
30049W        W73065   0.998  28.423  21.926 -0.1499 -0.0990  0.0832
30050W        W73066   7.640   4.670  22.469 -0.0532  0.0287 -0.2620
30051W        W73067  28.592  22.763  16.850 -0.1584  0.1614  0.3514
30052W        W73068  33.949  13.854  18.337  0.0099  0.1104 -0.4141
30053W        W73069  32.571  15.948  24.127 -0.0460  0.1130 -0.3699
30054W        W73070   2.815  24.202  25.087 -0.1781 -0.4254 -0.1804
30055W        W73071  33.625  25.459   6.543  0.1400  0.2525  0.1941
30056W        W73072  19.560  29.562  23.060 -0.1646 -0.2820 -0.1654
30057W        W73073  11.485  31.285  17.051  0.0061 -0.2361 -0.0241
30058W        W73074  21.253  26.982  14.591  0.0044 -0.2429 -0.2461
30059W        W73075   9.489  13.222  18.915 -0.0537 -0.0421  0.0851
30060W        W73076   3.803  28.306  15.771 -0.0236  0.1434  0.0680
30061W        W73077  20.479  13.503  16.448 -0.1288  0.0033  0.0967
30062W        W73078  14.075  22.444  16.502  0.1920 -0.1478  0.0834
30063W        W73079  18.862  29.207  26.568  0.1195 -0.1287  0.1661
30064W        W73080   6.633  27.202  26.439 -0.0917 -0.0128 -0.5088
30065W        W73081  14.112  25.828  17.817  0.0371  0.0401 -0.1503
30066W        W73082  33.674  25.144   3.905  0.0634  0.1027  0.0238
30067W        W73083  13.713  22.275  22.581 -0.0260  0.0210  0.2140
30068W        W73084  29.086  33.129  18.386 -0.2512  0.1154  0.0422
30069W        W73085  34.388  18.064  15.819 -0.0259 -0.0888 -0.0320
30070W        W73086   3.068  18.964  16.702 -0.1435 -0.0215  0.2017
30071W        W73087   7.191  21.786  23.781  0.0439 -0.0397 -0.0395
30072W        W73088   6.597  32.188  18.511  0.1560 -0.0787  0.3073
30073W        W73089  14.182  22.345  23.007 -0.0434 -0.0117 -0.3672
30074W        W73090   8.509  13.046  23.511 -0.2475 -0.1591  0.2450
30075W        W73091  23.369  25.804  17.017 -0.2481  0.2325 -0.0744
30076W        W73092  16.037  30.481   0.881  0.1574 -0.1392  0.0433
30077W        W73093   3.281  21.300  17.974  0.1243 -0.0708  0.0284
30078W        W73094  10.553  10.865  19.947  0.1789  0.0390 -0.2112
30079W        W73095  30.950   0.367  19.283 -0.0173 -0.3672 -0.0219
30080W        W73096   9.046   9.823  13.510  0.0455 -0.1280 -0.3287
30081W        W73097   6.679  16.730  20.548  0.2423  0.0465  0.1346
30082W        W73098   8.938  10.734  20.076 -0.1214 -0.1825 -0.2613
30083W        W73099   9.828  15.673  27.952 -0.0426  0.0005 -0.1788
30084W        W73100  25.128   1.993  25.668  0.0011  0.0736 -0.3312
30085W        W73101  10.464  31.516  24.504 -0.0092 -0.1188 -0.3022
30086W        W73102  16.491  26.597  19.890 -0.0818 -0.0099 -0.1553
30087W        W73103  19.665   3.974  21.752 -0.1244  0.2855 -0.0492
30088W        W73104   7.504   4.417  19.442  0.0155  0.1421 -0.1730
30089W        W73105  21.330  31.989  19.388  0.3369  0.2036  0.1556
30090W        W73106   1.790  12.947  21.102  0.4028  0.0124 -0.0383
30091W        W73107  10.284  14.644  19.142 -0.5479  0.0171 -0.1276
30092W        W73108  14.913  28.807  21.453  0.1597 -0.2036 -0.1190
30093W        W73109   5.316  17.750  19.121 -0.3315  0.1176 -0.1519
30094W        W73110  26.160  24.094  27.311  0.0944  0.0069  0.0153
30095W        W73111   6.991  11.373  28.169  0.0781 -0.0726  0.0404
30096W        W73112  30.339   7.554  16.628  0.3514  0.2297 -0.1599
30097W        W73113   5.269   4.737  26.438  0.1639  0.1331 -0.3695
30098W        W73114  16.434   2.086   0.580  0.1048  0.1677  0.1229
30099W        W73115   6.071  24.267   6.502 -0.1167  0.0230 -0.1068
30100W        W73116  20.548   4.030  23.684  0.0204 -0.2212  0.0119
30101W        W73117   6.707  33.915  11.034 -0.2879 -0.1203 -0.1173
30102W        W73118  24.510   1.261  18.413  0.0718 -0.2748  0.1378
30103W        W73119  15.226  31.913  28.939 -0.2099  0.2962 -0.3222
30104W        W73120   1.693  29.094  15.439 -0.0565 -0.3781 -0.4952
30105W        W73121  31.402  17.582   6.171 -0.1632  0.1254 -0.0822
30106W        W73122  11.581  17.375  19.203 -0.1973  0.2516  0.0768
30107W        W73123   4.678  11.485  18.281  0.1726  0.0501  0.1285
30108W        W73124  19.107  31.500  19.025 -0.0550  0.3717 -0.1159
30109W        W73125  19.225  27.984   2.442 -0.0535  0.4293 -0.1730
30110W        W73126   5.821  24.482  20.955 -0.1745 -0.0271  0.2632
30111W        W73127  29.073   4.784  15.423  0.1355  0.0978 -0.1799
30112W        W73128   0.652  34.454  17.261 -0.1373 -0.3708  0.4796
30113W        W73129  25.531  13.778  19.133 -0.2849 -0.2427  0.2710
30114W        W73130   9.362  25.449  19.379  0.1765 -0.0189  0.0844
30115W        W73131   7.260  34.479  23.048  0.2486  0.3184  0.1481
30116W        W73132   9.934  24.178  19.501 -0.1028 -0.1974  0.1661
30117W        W73133   9.464  32.553  23.842  0.2834  0.2023 -0.0786
30118W        W73134  30.018  24.557  27.970  0.0957  0.3820 -0.0288
30119W        W73135  18.542  20.953  12.647 -0.0325 -0.0796  0.0937
30120W        W73136   3.296  23.859  22.983  0.0757 -0.0268  0.1137
30121W        W73137   2.658  20.491  19.207  0.3523  0.1063  0.1693
30122W        W73138  13.341  34.405  19.418  0.1866  0.1901  0.2867
30123W        W73139   5.805  29.121  23.967 -0.2995 -0.0108  0.0116
30124W        W73140   3.003  32.813  16.412 -0.0084 -0.0690  0.2412
30125W        W73141   4.938  20.817  14.062 -0.0686 -0.1933  0.2522
30126W        W73142   0.929  24.077  15.813  0.0152 -0.2513 -0.1940
30127W        W73143  21.425  23.337  17.850  0.0125  0.1200 -0.1175
30128W        W73144  18.261   9.997  13.936  0.2435 -0.1172 -0.0728
30129W        W73145  29.278  21.806  19.368 -0.4446  0.1193 -0.3284
30130W        W73146  18.033  19.964   2.545 -0.1435 -0.0011  0.1161
30131W        W73147  12.703  22.168  12.985  0.1621  0.0534  0.1355
30132W        W73148  10.436  18.834   0.333 -0.1743 -0.1872 -0.1638
30133W        W73149  21.823  24.163  18.396 -0.1798 -0.0216  0.0552
30134W        W73150   3.704  22.302  17.676 -0.3393 -0.3885  0.1184
30135W        W73151  15.769   9.235  15.945  0.2253 -0.0864 -0.1687
30136W        W73152   4.409  24.844  26.076  0.0527 -0.2207  0.0900
30137W        W73153  12.641  29.810  17.394  0.1653  0.0770  0.1755
30138W        W73154  15.672  27.525  19.849  0.1065  0.0817 -0.2166
30139W        W73155  34.733  24.912  18.066  0.0163 -0.0892  0.0087
30140W        W73156   0.627  24.711  17.344 -0.0316  0.1169 -0.0979
30141W        W73157  29.658  17.574  19.308  0.5085  0.1823  0.1789
30142W        W73158   5.926  31.148  26.850 -0.2069  0.0784 -0.0164
30143W        W73159   1.697   6.042  16.235 -0.0490  0.1170 -0.0068
30144W        W73160   3.108  24.095  13.999 -0.1511 -0.0135  0.0189
30145W        W73161   7.714  17.348  15.010  0.2721 -0.0041  0.1452
30146W        W73162  14.435  23.386  12.879  0.0987  0.1752 -0.0876
30147W        W73163  19.134   8.127  17.403 -0.0073 -0.2772 -0.0846
30148W        W73164  33.314  28.254  23.844 -0.1355 -0.0468 -0.0768
30149W        W73165   4.205   6.627   4.816  0.0462 -0.0320 -0.0061
30150W        W73166   7.014  28.584  19.089 -0.4960 -0.1077  0.0782
30151W        W73167   0.083  27.212  23.794  0.1437  0.1738  0.0567
30152W        W73168   0.188   5.063  16.610 -0.1666  0.1970  0.1269
30153W        W73169  20.690  29.688  23.593  0.0607 -0.0901  0.2579
30154W        W73170  18.955  31.710  29.215 -0.0881 -0.0046  0.1444
30155W        W73171  20.984  28.288  20.161  0.0431 -0.1561  0.1846
30156W        W73172   5.279   0.039  23.461 -0.1832  0.0641 -0.1754
30157W        W73173  11.006  26.594  20.822  0.1634 -0.1940  0.1714
30158W        W73174   6.605   2.199  25.592 -0.1124 -0.2976  0.0021
30159W        W73175  19.397   6.780   3.911  0.1175 -0.3497 -0.1015
30160W        W73176   4.437   7.130  19.296  0.0007 -0.2638  0.1887
30161W        W73177  15.143  27.992  14.899  0.1856  0.1680 -0.2813
30162W        W73178   8.817  18.600  26.487  0.0682  0.1099 -0.1456
30163W        W73179   5.756  31.798  19.817 -0.0037 -0.0106 -0.2461
30164W        W73180  11.906   1.603  17.899  0.0704  0.0532  0.1358
30165W        W73181   2.265  24.203  15.572  0.3917  0.1446  0.0370
30166W        W73182   2.318  22.023  16.251  0.0172 -0.0696  0.0308
30167W        W73183  23.926  33.383  19.409 -0.1222 -0.1088 -0.1647
30168W        W73184   9.450  12.894  21.160 -0.0001 -0.1199  0.0697
30169W        W73185  18.555  22.550  21.243  0.3126  0.1528  0.1481
30170W        W73186   3.326  16.973  20.086 -0.4489 -0.4953  0.2317
30171W        W73187   0.380  34.253  20.106 -0.1168 -0.1177 -0.1958
30172W        W73188  15.665  25.834  16.876  0.2453 -0.0848 -0.0557
30173W        W73189   4.233  27.855  15.181 -0.0390 -0.0383 -0.0312
30174W        W73190   9.681   5.553  14.732 -0.0074  0.2530 -0.1719
30175W        W73191  34.523  17.550  17.764 -0.3053  0.0927 -0.2054
30176W        W73192   3.985   7.779  28.391 -0.1817 -0.0230 -0.0907
30177W        W73193   5.479  16.001  13.778 -0.2142 -0.0724 -0.0714
30178W        W73194   0.489  18.234   4.131 -0.1583 -0.1112  0.1853
30179W        W73195   6.846  22.632  17.827 -0.1435 -0.0613 -0.0091
30180W        W73196  11.967  22.184  17.859 -0.0109  0.0555  0.0260
30181W        W73197  17.419  33.883  20.328 -0.0647  0.0644 -0.0542
30182W        W73198   6.730  20.029  23.279  0.4022  0.0288 -0.2193
30183W        W73199  12.221   9.597  17.754 -0.1132 -0.0240 -0.0145
30184W        W73200  18.592  31.427  26.544 -0.1395 -0.1252 -0.0409
30185W        W73201   5.289   3.578  24.848  0.0847 -0.2064 -0.2697
30186W        W73202  11.443  31.100  23.943  0.0400 -0.3195 -0.1400
30187W        W73203  27.506  12.703  20.628  0.0851 -0.3042  0.1817
30188W        W73204   8.176  18.680  15.976  0.0817 -0.2649 -0.0271
30189W        W73205  20.151   1.280   2.428 -0.2048 -0.3461  0.0939
30190W        W73206  29.837  32.212  21.322  0.1146  0.1468 -0.3364
30191W        W73207   3.894  13.565  17.407  0.2858  0.1581  0.1624
30192W        W73208   9.130   7.636  18.662 -0.1816  0.0636 -0.2839
30193W        W73209  13.781  26.260  28.276 -0.0540 -0.0750 -0.3064
30194W        W73210  12.151  27.927  16.868  0.0367 -0.0504  0.2292
30195W        W73211  10.211  28.434   1.303 -0.1881 -0.0925 -0.2193
30196W        W73212  18.436  33.927  25.887  0.0057  0.1607  0.0168
30197W        W73213  24.538  28.337  27.414  0.0034 -0.1999  0.1838
30198W        W73214  12.265  23.987  15.995  0.4049  0.1024 -0.2782
30199W        W73215   2.752  26.051  24.931  0.2043  0.1536  0.2572
30200W        W73216  16.752  20.336  23.005  0.1664  0.0174 -0.1313
30201W        W73217  34.773  29.897  18.760 -0.2202 -0.2727  0.0921
30202W        W73218   9.862  29.802  20.728 -0.0210 -0.1519  0.0992
30203W        W73219   2.134   4.068  19.752  0.2412  0.2498 -0.1012
30204W        W73220   3.264  29.148  15.070  0.0359 -0.1388  0.2036
30205W        W73221  33.369  10.515  20.784  0.1729 -0.0137 -0.2502
30206W        W73222  11.806  18.833  13.296 -0.3310  0.2400 -0.0717
30207W        W73223  12.903   4.132  19.568  0.0716  0.0781 -0.0732
30208W        W73224   2.377  33.434  17.087  0.0459 -0.1398  0.1638
30209W        W73225  28.627  27.625   1.713  0.0672 -0.1197 -0.2537
30210W        W73226  14.678  29.492  18.322  0.0402  0.1080 -0.0753
30211W        W73227  25.950  20.313  17.179  0.2121 -0.1118 -0.0985
30212W        W73228   6.137  15.508  19.117 -0.0735 -0.0175 -0.1270
30213W        W73229   9.938  11.608  17.816  0.2070  0.1129  0.2862
30214W        W73230   9.895  22.794  13.043 -0.5433  0.0573 -0.1257
30215W        W73231   3.227   3.684  23.947  0.0324  0.1289 -0.0133
30216W        W73232  13.358  20.325  26.803  0.0572  0.0437 -0.0898
30217W        W73233  33.888  26.017   5.878  0.1246 -0.2377 -0.0826
30218W        W73234   9.716  22.988  14.876  0.5769 -0.1292 -0.0439
30219W        W73235   7.110   0.842  17.714  0.1765 -0.2023 -0.2978
30220W        W73236   5.793  17.908  15.004 -0.3962  0.2935  0.0643
30221W        W73237  32.806  18.787   0.677  0.0925  0.1426  0.4453
30222W        W73238   4.458  22.147  21.457  0.1263 -0.1433  0.0023
30223W        W73239  30.381  34.147  25.069 -0.0391 -0.0451 -0.0068
30224W        W73240  31.900  15.686  16.557  0.2367 -0.2131 -0.1996
30225W        W73241  27.179  27.091  19.410 -0.1780 -0.0548 -0.0593
30226W        W73242  10.139  25.637  18.964 -0.0939  0.0571  0.2170
30227W        W73243  19.920  28.133  18.156 -0.3834 -0.1445  0.1947
30228W        W73244   9.589  12.895  23.407  0.1326  0.1876  0.2423
30229W        W73245  11.020   2.129   4.920 -0.1080 -0.2083  0.1355
30230W        W73246   9.669  31.526  15.045 -0.2489  0.0518 -0.0031
30231W        W73247   0.588  30.591  21.024  0.1960  0.1161  0.0939
30232W        W73248  14.219  15.931  14.003 -0.1050  0.0158 -0.0599
30233W        W73249  16.076  27.316  19.543 -0.1320  0.0952  0.0831
30234W        W73250  32.977  26.517  14.502 -0.0629  0.1041 -0.1462
30235W        W73251   1.044  26.583  16.232  0.1514 -0.1923  0.4195
30236W        W73252   8.764  16.426  29.183 -0.1875 -0.0805  0.0338
30237W        W73253  30.804   9.985  23.812  0.0283 -0.2662  0.2766
30238W        W73254  12.547  30.318  23.970 -0.0069 -0.1490 -0.0640
30239W        W73255  13.042  27.140  22.488  0.0397 -0.0776 -0.1201
30240W        W73256  33.067  27.505  27.356  0.0212 -0.3066  0.1384
30241W        W73257  25.856  14.229  21.193  0.0355  0.0771 -0.0341
30242W        W73258  10.487  15.558  17.961  0.0105 -0.1475  0.0049
30243W        W73259   1.634  29.266  17.600  0.3310 -0.3897  0.2235
30244W        W73260   8.994  30.578  15.595  0.3344 -0.0114  0.1205
30245W        W73261  14.972  18.539  25.388  0.1105 -0.0221 -0.1771
30246W        W73262  21.583  20.860  14.361  0.2148  0.3664  0.1006
30247W        W73263   4.900   2.019  21.555  0.2436  0.0302  0.2774
30248W        W73264  27.092  22.121   1.699 -0.1691  0.0493 -0.0760
30249W        W73265   7.429  21.989  18.800 -0.4155  0.4069  0.0020
30250W        W73266   1.069  15.461  23.258 -0.0934  0.2447  0.0746
30251W        W73267  30.286  16.300   0.079  0.1703 -0.0984  0.0351
30252W        W73268  33.604  24.574   1.491 -0.0176 -0.1445  0.3630
30253W        W73269  17.918  29.494  27.303 -0.3445 -0.1064 -0.0364
30254W        W73270  28.967  22.923  27.358 -0.0208 -0.2039 -0.1298
30255W        W73271  10.236  23.328  13.232  0.2370  0.0924 -0.1444
30256W        W73272  31.070   0.096  24.189 -0.3563  0.1447 -0.1907
30257W        W73273  12.899  24.162  21.271 -0.0177 -0.2990 -0.3170
30258W        W73274   7.045  22.950  16.162  0.4184  0.1938 -0.0188
30259W        W73275   1.977  25.092   2.066 -0.5134 -0.0877 -0.1439
30260W        W73276   5.387   9.655  27.240 -0.1707  0.1881  0.1349
30261W        W73277  33.643  26.278  19.593  0.1814 -0.1862  0.1093
30262W        W73278   9.000   2.746  24.706 -0.0352  0.1959  0.2168
30263W        W73279   7.381  21.937  14.662  0.0641  0.0902  0.1750
30264W        W73280   2.937  12.259   1.984  0.0770 -0.2412 -0.2421
30265W        W73281   9.315  23.524  14.194 -0.0574  0.1032  0.1786
30266W        W73282   5.620  31.357  13.753  0.1420 -0.0810  0.2054
30267W        W73283  31.035  29.335  22.834 -0.2844 -0.0459  0.3055
30268W        W73284   5.050  26.223   0.817 -0.0738  0.3273  0.0356
30269W        W73285   6.740  19.259  15.475  0.1384  0.2008  0.0948
30270W        W73286  14.854  29.943  16.617  0.1039 -0.1089  0.3389
30271W        W73287  12.628   4.844  22.914 -0.0972  0.1208  0.1778
30272W        W73288   6.148  26.980  17.381  0.0163  0.1462  0.1227
30273W        W73289   9.997   8.577  27.489  0.0620 -0.0564 -0.2239
30274W        W73290  17.635  33.228  23.964 -0.2052 -0.4164 -0.3502
30275W        W73291  32.729   3.685  18.908  0.0916 -0.3762  0.1181
30276W        W73292   0.882   4.036  18.228 -0.3127  0.1948  0.0939
30277W        W73293  26.693  17.983  22.265  0.0872 -0.0381  0.1891
30278W        W73294  23.738  22.512  17.332  0.1460  0.4320  0.2984
30279W        W73295   2.486   1.720  17.563  0.0173  0.0608 -0.2938
30280W        W73296  22.781  15.832  18.418  0.0562  0.2272  0.0134
30281W        W73297   7.392  22.807  21.071 -0.0366 -0.1385  0.1592
30282W        W73298   9.364  21.476  15.110  0.2295 -0.1020 -0.1070
30283W        W73299   9.031  22.618  19.636 -0.1372  0.0124 -0.1373
30284W        W73300   8.741  26.515  25.610  0.1698 -0.2508 -0.0439
30285W        W73301   3.687  26.487  18.443  0.0427  0.1955 -0.3774
30286W        W73302   2.217   3.774  14.673  0.0479  0.2356  0.3096
30287W        W73303  33.530  34.443  28.985  0.0687 -0.0032  0.2218
30288W        W73304  12.613  25.576  28.562  0.2008  0.0367  0.2275
30289W        W73305   0.663  19.979  19.907  0.0652  0.0112  0.2169
30290W        W73306  28.826  19.273   2.856  0.0637 -0.1417 -0.0784
30291W        W73307  24.654  30.903  18.029  0.0121  0.0186 -0.0577
30292W        W73308   7.168   4.144  20.760  0.0187  0.0247 -0.0110
30293W        W73309  15.122  24.939  14.938  0.1022 -0.0884 -0.3544
30294W        W73310  29.642  23.507  28.360 -0.1096  0.1387  0.0414
30295W        W73311  11.513  23.342  21.780 -0.0144  0.1390  0.1421
30296W        W73312   5.817  18.379  23.919  0.0585  0.3146 -0.3632
30297W        W73313   8.583   2.531  15.516  0.0303 -0.1678  0.0680
30298W        W73314   4.396  23.505   1.099  0.1851  0.2425 -0.2257
30299W        W73315  13.932  15.172  13.980 -0.3410 -0.3647 -0.0333
30300W        W73316   6.558  33.761  16.062 -0.2728 -0.1265 -0.1856
30301W        W73317   2.610  22.468  16.270 -0.2503  0.4353 -0.1490
30302W        W73318   9.238  29.643  13.458 -0.1329  0.2275  0.2036
30303W        W73319   7.120  24.523   1.172 -0.3117  0.0673  0.0868
30304W        W73320   6.650  21.974  17.263 -0.2874 -0.2345 -0.1890
30305W        W73321   4.165  17.200  28.621  0.0304 -0.0132 -0.1750
30306W        W73322  23.439  21.991  23.277 -0.1197  0.3448 -0.3839
30307W        W73323  33.547  20.380  24.470  0.0127 -0.2051 -0.1303
30308W        W73324  29.900  21.834  20.164  0.0780  0.0197  0.1230
30309W        W73325   6.572  27.034   1.045  0.1738 -0.0444 -0.2388
30310W        W73326  27.968  27.971  28.534 -0.3197 -0.0171 -0.1648
30311W        W73327   9.014  17.687  25.146 -0.2266 -0.3886  0.3067
30312W        W73328   2.518  10.441   4.526 -0.2289  0.0359  0.0098
30313W        W73329  12.858  26.881  19.248  0.1611 -0.3451  0.3370
30314W        W73330  14.442  30.036  14.937  0.1382  0.1445 -0.0481
30315W        W73331   6.022  23.695  17.614 -0.0076 -0.1326  0.0527
30316W        W73332  10.531  25.402  16.416  0.0526 -0.2456  0.0123
30317W        W73333  31.469  22.845  19.784  0.0791  0.2099  0.1324
30318W        W73334  23.037  27.935  25.064  0.1612 -0.0115  0.1587
30319W        W73335   5.697  26.741  28.331 -0.4097  0.1173  0.1695
30320W        W73336   1.623  29.629  28.871  0.0130  0.1387  0.0645
30321W        W73337  10.258  21.758  15.576  0.0225 -0.0425  0.1017
30322W        W73338   7.809  27.185  25.756 -0.0264 -0.2167  0.3275
30323W        W73339   0.256  13.692  25.455  0.3069  0.1856  0.0073
30324W        W73340  26.745   4.404  19.642 -0.0113 -0.0971 -0.2213
30325W        W73341   3.576  28.888  21.308 -0.1222 -0.2200 -0.1732
30326W        W73342  18.633   1.789  23.072  0.1214  0.1052 -0.1179
30327W        W73343  21.987   9.432  14.917  0.2057  0.1970 -0.0899
30328W        W73344   6.559   2.902  15.836  0.1022 -0.2175  0.3053
30329W        W73345  11.576  31.109  18.168  0.2380  0.1778 -0.0026
30330W        W73346  33.259  31.795  20.338 -0.1961  0.2299 -0.1677
30331W        W73347  30.637  25.401  26.228  0.1959  0.1240 -0.0125
30332W        W73348   3.303  31.713  17.222 -0.5910  0.0265 -0.0508
30333W        W73349  10.787  25.032  21.589 -0.1815 -0.1617  0.0843
30334W        W73350  33.581  27.453  17.458 -0.0683 -0.2151 -0.0914
30335W        W73351   0.270  33.482  17.699  0.1751  0.0497  0.1228
30336W        W73352  21.661  25.584  14.865  0.2219 -0.0962  0.2625
30337W        W73353   2.192  31.717   4.357 -0.0261  0.1406  0.0010
30338W        W73354   1.147  18.251  19.800  0.3209  0.1174 -0.0454
30339W        W73355  18.324  25.632  15.163  0.1578 -0.0259 -0.2070
30340W        W73356   9.694  17.471  12.269 -0.3747  0.0287 -0.0904
30341W        W73357  10.087   9.049  14.713  0.3157 -0.4774  0.0448
30342W        W73358   3.501  11.987  26.343  0.1162  0.0821  0.0557
30343W        W73359  14.326  24.055  23.678  0.1381 -0.0768 -0.2108
30344W        W73360  18.968  16.322  11.991 -0.1334  0.3477 -0.1491
30345W        W73361  29.216  19.329  25.371  0.1428  0.0414  0.1274
30346W        W73362   4.982   4.404  15.875  0.0855 -0.2653 -0.1521
30347W        W73363   5.052  18.743   5.216 -0.3674 -0.2093  0.0800
30348W        W73364  33.428  23.658  23.842  0.2008  0.0740  0.0741
30349W        W73365  31.200   7.871  20.302 -0.1851 -0.4308  0.0463
30350W        W73366  25.574  21.393  21.111  0.0128  0.0977 -0.2220
30351W        W73367  29.843  34.605  15.128 -0.1362  0.1263 -0.1610
30352W        W73368  10.513  19.087  17.094  0.2798  0.2144  0.0778
30353W        W73369   8.871  12.934  27.582  0.0601  0.0327  0.0373
30354W        W73370  12.099  22.608  13.611 -0.0259  0.0076 -0.4016
30355W        W73371  32.955  23.359  23.820  0.0710 -0.0027  0.0332
30356W        W73372   4.826  19.397  16.322  0.1125  0.1559 -0.3536
30357W        W73373  20.813  23.858  18.222 -0.1009  0.1553  0.0345
30358W        W73374  23.348  32.924  24.535 -0.0309  0.0535 -0.2981
30359W        W73375   9.959  28.085  16.750  0.2641 -0.1079 -0.1422
30360W        W73376   6.705  27.858  29.292 -0.1470 -0.1907  0.2369
30361W        W73377  10.729  23.950  24.283 -0.2057 -0.0534 -0.2840
30362W        W73378  31.265  19.811  22.137  0.4138  0.0694  0.2000
30363W        W73379  32.515  24.502  25.402  0.3072  0.0037  0.3149
30364W        W73380  25.735  31.586  19.805  0.2217 -0.1685 -0.1480
30365W        W73381  11.794  10.259  22.930 -0.0791  0.1480 -0.2696
30366W        W73382  28.334  32.180  24.619 -0.0236  0.0493 -0.0895
30367W        W73383   0.569  23.543  22.809  0.0501 -0.1253 -0.0348
30368W        W73384   3.586  27.003  18.757 -0.3101  0.4235 -0.4139
30369W        W73385  29.920  13.456   3.748 -0.0364 -0.0550 -0.0024
30370W        W73386  11.183  28.443  21.231 -0.2808 -0.2674 -0.0481
30371W        W73387  22.694   1.242  19.924 -0.1242 -0.1776 -0.0470
30372W        W73388   4.867  32.262  28.832 -0.0738  0.0619  0.0320
30373W        W73389  31.239  22.799   1.018  0.2727  0.2254 -0.2380
30374W        W73390   1.747   8.696   0.184  0.2439 -0.3690 -0.1162
30375W        W73391  30.409  23.416  16.675 -0.4042  0.2529  0.1578
30376W        W73392  15.761  13.732  22.359  0.0753 -0.2952  0.2963
30377W        W73393  10.471  32.204  17.958  0.0080 -0.0176  0.0472
30378W        W73394  15.501  27.567  20.363  0.0571 -0.0212 -0.1266
30379W        W73395   5.715  19.973  26.571  0.0650  0.0159  0.2307
30380W        W73396  19.765  22.516  23.174 -0.1681  0.0531  0.0937
30381W        W73397   1.679  19.158  29.250 -0.0264  0.2759 -0.1798
30382W        W73398  10.389  19.383  17.976  0.1119  0.0267  0.0783
30383W        W73399   4.481  27.472  15.529  0.0321  0.1641 -0.1893
30384W        W73400  27.904  28.087  22.607  0.0210 -0.1910 -0.0745
30385W        W73401  13.176  27.375  24.742  0.1950 -0.0706 -0.1753
30386W        W73402  18.843  21.667  17.886 -0.1705 -0.4451  0.4388
30387W        W73403  11.386  18.657  25.451 -0.1578 -0.2619  0.1162
30388W        W73404   5.614  21.566   0.612 -0.0101  0.0617  0.1958
30389W        W73405   0.097  20.379  19.983 -0.0461  0.4128 -0.0196
30390W        W73406  11.760  22.248  14.176  0.1559 -0.1265  0.0371
30391W        W73407   8.991  31.110  20.641  0.1393 -0.0247  0.1071
30392W        W73408  13.817  24.743  25.715 -0.1129 -0.2123  0.0319
30393W        W73409  33.831  16.767  21.450  0.4887 -0.1502 -0.2144
30394W        W73410  12.946   8.462  15.559  0.1756 -0.1632 -0.1278
30395W        W73411   3.833  29.741  18.635 -0.1497 -0.0084  0.1983
30396W        W73412  33.020  27.971   3.400  0.0875  0.0413 -0.0904
30397W        W73413  31.313   5.454  20.072 -0.1407 -0.2172  0.0040
30398W        W73414   9.324  14.714   3.736  0.5029 -0.1463  0.0542
30399W        W73415   8.250  25.066  19.104  0.1402  0.0611  0.0815
30400W        W73416  31.877  14.536  18.858 -0.1030 -0.1560  0.0063
30401W        W73417   0.188  26.302  24.192 -0.0479 -0.3864  0.1399
30402W        W73418   3.823  31.743  19.658 -0.0760  0.0297 -0.0112
30403W        W73419  31.648  25.071   6.222  0.2666  0.0955 -0.1255
30404W        W73420  27.818  34.299   9.557 -0.2197  0.2202 -0.0453
30405W        W73421  14.397  19.370  22.651  0.1793 -0.2038 -0.2466
30406W        W73422   2.760  16.857  15.961  0.2514 -0.2480  0.4612
30407W        W73423   5.369   9.902  16.263  0.1204  0.0664  0.1361
30408W        W73424  21.406   4.622  21.044  0.0838 -0.3673  0.0433
30409W        W73425  27.994  29.813  18.470 -0.0078 -0.0596 -0.1393
30410W        W73426  32.840  34.628  10.860 -0.0216 -0.0198  0.0682
30411W        W73427   7.271  22.806  21.560 -0.3565  0.2479  0.2459
30412W        W73428  31.923  18.668  24.996  0.2414 -0.0584 -0.0998
30413W        W73429   0.766  34.165  20.868 -0.2407  0.0321  0.2093
30414W        W73430   0.470  15.214  23.951 -0.0968 -0.1747 -0.1362
30415W        W73431  29.637   8.922  19.542 -0.0071 -0.3790 -0.1133
30416W        W73432   6.308  27.102  24.801 -0.1830 -0.1883  0.1542
30417W        W73433   6.534  13.321  26.629  0.1248 -0.0493  0.2044
30418W        W73434  30.182  28.197  25.831 -0.0840 -0.0341  0.0577
30419W        W73435  30.482  32.659  21.293 -0.0418  0.2745 -0.1015
30420W        W73436  31.665  28.940  24.735  0.1036 -0.2373  0.0925
30421W        W73437  12.168  30.657  17.328  0.0347 -0.2700  0.1313
30422W        W73438  25.257  20.967  21.230  0.0736 -0.1221  0.3069
30423W        W73439  18.619  27.451  24.336  0.4627 -0.0294  0.0092
30424W        W73440  28.603  32.889  20.753  0.4249 -0.1370 -0.2206
30425W        W73441  16.747  18.203  17.439 -0.2492  0.2701  0.0734
30426W        W73442  19.859  29.879  15.408  0.0622  0.4205  0.3692
30427W        W73443  20.297   2.442  17.145 -0.1246  0.0007 -0.0888
30428W        W73444  25.362  23.146  26.028 -0.3539  0.0668 -0.1886
30429W        W73445  12.184  27.027  21.539 -0.0230 -0.1025  0.1060
30430W        W73446   1.600  11.090  16.062 -0.2748 -0.0811  0.1998
30431W        W73447  15.371  22.663  25.020  0.0547  0.3204 -0.0404
30432W        W73448  21.759  13.061  17.297  0.0351 -0.0882  0.0934
30433W        W73449  27.226  23.362  18.408 -0.0195  0.0646  0.2065
30434W        W73450  22.119   0.160  18.645  0.0770  0.1482 -0.1117
30435W        W73451  28.893  27.227  18.262 -0.1478 -0.1810  0.0899
30436W        W73452   1.979  31.298   4.242  0.0328  0.0736 -0.1389
30437W        W73453  25.004  27.815  19.465  0.1086 -0.2459 -0.2232
30438W        W73454   7.191  20.685  16.130 -0.3883 -0.0555  0.5557
30439W        W73455   9.160  17.613  16.336 -0.1651  0.0557  0.2078
30440W        W73456   5.215  34.229  26.900  0.1084 -0.0423 -0.2476
30441W        W73457  32.958  23.449  14.523 -0.3627  0.3268 -0.1672
30442W        W73458  34.380  12.945   8.275  0.1714 -0.2553 -0.0239
30443W        W73459   2.392   5.049  18.271  0.4394  0.0262 -0.1706
30444W        W73460  32.559  16.085  14.328  0.5751  0.2110 -0.1293
30445W        W73461  33.452  21.929  26.186  0.1942 -0.1164 -0.1686
30446W        W73462  30.345  25.897  18.278 -0.0651  0.1086  0.0236
30447W        W73463  32.065   7.720  21.970  0.2124 -0.0007 -0.1278
30448W        W73464  19.383  29.239  26.429  0.2870  0.1160  0.4229
30449W        W73465   7.749  16.877  15.020 -0.1562  0.0744  0.1385
30450W        W73466  32.848   0.143  17.700 -0.1675  0.0583  0.0526
30451W        W73467  32.750   4.480  16.076  0.0750 -0.0798 -0.0619
30452W        W73468  24.127  11.743   3.360 -0.1353  0.2443 -0.0263
30453W        W73469  31.389   2.144   6.976  0.2100  0.0919  0.3070
30454W        W73470  32.752  25.461  22.444  0.5797  0.1240 -0.1233
30455W        W73471   8.355  21.046  17.319 -0.0781 -0.0978  0.2493
30456W        W73472   9.612   3.796  23.539  0.2798  0.0773  0.1342
30457W        W73473  19.020   0.765  17.195 -0.1488  0.0817 -0.1259
30458W        W73474   4.819  18.526  14.626 -0.2311  0.0611  0.2103
30459W        W73475  22.209   7.431  18.847 -0.0363 -0.0545  0.0401
30460W        W73476   4.804   6.262  15.911  0.1612  0.0720  0.0197
30461W        W73477  34.054  19.583  15.667  0.0115  0.2171 -0.0443
30462W        W73478   1.635  18.495  19.902 -0.0588 -0.0462  0.1436
30463W        W73479  19.346  34.727  25.607 -0.0800  0.0952 -0.2395
30464W        W73480  28.866  19.128  16.405 -0.3146 -0.2403 -0.0060
30465W        W73481   9.134  17.992  15.611 -0.2810 -0.1128  0.1157
30466W        W73482  21.488  31.459   1.276  0.1245 -0.1190  0.1895
30467W        W73483  17.954  17.133  14.893  0.0437  0.1197  0.0291
30468W        W73484   7.000  17.981  15.399 -0.0267  0.0765 -0.1913
30469W        W73485  26.826  25.481   5.610  0.0329 -0.1423 -0.2761
30470W        W73486   6.244  18.043  12.931  0.1192  0.3539  0.1901
30471W        W73487  27.620   2.264  16.297 -0.0845  0.0358  0.1880
30472W        W73488  20.075   2.273  15.195  0.0381  0.0375  0.0917
30473W        W73489  13.985  12.621  13.022  0.2128  0.2736 -0.0906
30474W        W73490  12.610   0.951  15.636 -0.0235 -0.0072  0.0372
30475W        W73491   4.569  27.845   8.529  0.4323 -0.0589 -0.0112
30476W        W73492  11.041  32.244  21.592 -0.0657 -0.0790  0.3133
30477W        W73493   1.359  19.107   5.237  0.2012 -0.0077  0.1647
30478W        W73494  22.501  24.987   8.583 -0.2170 -0.2001  0.2270
30479W        W73495   7.348   7.821   3.896  0.2704 -0.1285  0.0421
30480W        W73496   8.562  32.766  23.318 -0.0637  0.1037 -0.0449
30481W        W73497   8.302  23.674  20.596 -0.0899  0.1160 -0.0349
30482W        W73498  18.587  32.034  28.318 -0.2980  0.1023  0.0060
30483W        W73499   6.999  21.950  12.914  0.0137 -0.0542  0.0792
30484W        W73500   4.831  29.179  27.923 -0.0468 -0.1103  0.0831
30485W        W73501   0.064  21.756   3.277  0.0923  0.1557  0.0168
30486W        W73502   8.173  28.653  27.035 -0.1376  0.1974  0.0529
30487W        W73503   8.719  11.244  25.491  0.1075  0.1264  0.0753
30488W        W73504  24.411  31.955   4.058  0.1486 -0.1159 -0.0621
30489W        W73505   7.519  12.724  21.317  0.0285 -0.0723 -0.0097
30490W        W73506  15.012  11.089  13.287  0.1149  0.1959  0.1586
30491W        W73507  23.568   3.800  15.759 -0.1545 -0.3233  0.1298
30492W        W73508  32.095   8.189  22.294  0.1077  0.0815 -0.0388
30493W        W73509  28.089  18.731  15.465 -0.0239 -0.0256 -0.1855
30494W        W73510   7.142  16.639   7.206 -0.1018  0.0915  0.1819
30495W        W73511  17.150  27.167  20.539  0.1246  0.0672  0.1460
30496W        W73512  19.731  19.605  25.200 -0.1411 -0.0813 -0.2855
30497W        W73513   4.867  18.189  15.424 -0.2624 -0.1396  0.1321
30498W        W73514   8.308  25.197  17.374  0.0139  0.1705  0.0372
30499W        W73515   7.075  27.826   0.373 -0.2193  0.2071  0.1861
30500W        W73516   0.397  24.871   5.952 -0.6261 -0.0338  0.2157
30501W        W73517  28.427  34.211  26.158  0.0718  0.0166 -0.0191
30502W        W73518  31.108  19.866  17.626  0.0470  0.0204 -0.0808
30503W        W73519  33.044   9.402  14.567 -0.3427  0.0500  0.1266
30504W        W73520  15.092  29.610  14.643  0.3563 -0.1973 -0.1868
30505W        W73521   7.461  16.237   2.734 -0.1896 -0.1068 -0.1570
30506W        W73522   9.091   4.833  29.276 -0.0587  0.0220  0.1826
30507W        W73523   1.503  17.055  25.774 -0.2396 -0.0194 -0.2493
30508W        W73524  31.082  24.174  17.866  0.0084 -0.1941 -0.2247
30509W        W73525   0.411  27.954  19.229 -0.1356  0.2803 -0.3419
30510W        W73526   8.461   5.638  13.674 -0.1181 -0.1493 -0.0413
30511W        W73527   8.048   8.923  14.359 -0.7054  0.0608  0.0367
30512W        W73528   9.898  22.332  26.854 -0.1317  0.1956  0.0413
30513W        W73529  16.791  33.036  27.495 -0.0063  0.1497 -0.1407
30514W        W73530  22.760  15.643  16.770 -0.0142 -0.1016 -0.1945
30515W        W73531  27.998  19.962   1.820 -0.1154  0.0916  0.1388
30516W        W73532   3.454  33.229  24.409 -0.0620  0.1539 -0.2372
30517W        W73533  34.076  26.006  20.772  0.0923 -0.3787 -0.0095
30518W        W73534  32.572  29.838  18.697  0.1254 -0.0153  0.1540
30519W        W73535   8.189   0.711   8.295 -0.0573 -0.1462  0.2188
30520W        W73536   0.108  15.467  19.200 -0.0550  0.0502  0.1582
30521W        W73537  18.073   3.388  27.587  0.0876  0.2382 -0.2860
30522W        W73538  13.707  26.648  15.363 -0.0552 -0.0865  0.2068
30523W        W73539   9.385  30.557  18.565  0.0809 -0.1837  0.0036
30524W        W73540  18.236  14.310  25.723 -0.2823 -0.1357  0.1807
30525W        W73541   2.264  26.466  15.804 -0.1095 -0.0724  0.0396
30526W        W73542  22.611  15.103  14.995  0.1499  0.0617 -0.1748
30527W        W73543   8.241   6.726  27.640  0.0992  0.1643  0.1378
30528W        W73544   5.087   0.617  23.363  0.0330 -0.5466 -0.1298
30529W        W73545   1.076  30.114  16.858 -0.0385  0.0361 -0.1067
30530W        W73546   7.478  31.709   0.655  0.0561 -0.2157  0.1250
30531W        W73547   4.551   2.615  19.692 -0.0694  0.3113  0.0504
30532W        W73548   6.961   9.560  14.505 -0.2192 -0.0182  0.3844
30533W        W73549   9.724  30.165  21.387  0.2043 -0.0897  0.4633
30534W        W73550   2.695  28.212  18.009  0.1642 -0.2567  0.3139
30535W        W73551  29.578   2.599   0.480  0.4114  0.1674  0.0477
30536W        W73552  16.920  17.088  13.331 -0.0825  0.0944 -0.0665
30537W        W73553  15.492  26.727  23.883  0.1086 -0.2373  0.0544
30538W        W73554  19.584  31.250  22.939 -0.0638  0.1582  0.2138
30539W        W73555   9.506  26.318  16.550  0.2230  0.0281  0.3045
30540W        W73556   8.996  24.633  14.687  0.1377 -0.2179  0.2435
30541W        W73557  16.599   3.579  17.694 -0.3631  0.0814 -0.0333
30542W        W73558  28.483  21.203  17.490  0.0828 -0.1299 -0.3138
30543W        W73559   7.633   8.827  26.514  0.5430 -0.1420 -0.1877
30544W        W73560  30.641  34.024  17.532  0.1907 -0.2845 -0.1073
30545W        W73561  28.398  19.922  17.093 -0.0748  0.2353  0.0126
30546W        W73562   7.884  29.109  18.883 -0.2614  0.1420 -0.0517
30547W        W73563   0.965  22.645   4.257 -0.1571  0.1621 -0.0326
30548W        W73564   2.179  25.188  25.773  0.2730 -0.2525  0.3408
30549W        W73565  20.450  13.477  12.981 -0.0252 -0.1703  0.1091
30550W        W73566  19.078   2.587  16.884 -0.1399  0.0530 -0.2147
30551W        W73567   9.122  32.348  17.214 -0.1657 -0.0169  0.0445
30552W        W73568   7.952  27.699  14.055 -0.1498 -0.0159  0.2213
30553W        W73569  26.105  16.451  19.732  0.0173  0.0992  0.0707
30554W        W73570   9.237  13.822  15.654 -0.2453  0.0260  0.4517
30555W        W73571  29.797  16.170  23.235 -0.0666  0.1511 -0.0500
30556W        W73572  29.921  17.125   1.181 -0.0944 -0.0571  0.2500
30557W        W73573  10.275   9.153   5.377 -0.2521 -0.3159  0.0579
30558W        W73574   2.955  24.966  27.016 -0.0616  0.0604 -0.2083
30559W        W73575  21.398  34.761   0.087 -0.1684  0.2626  0.1753
30560W        W73576   5.998  28.434   4.044 -0.4267 -0.0631 -0.0348
30561W        W73577  20.012  17.278  22.808 -0.0707  0.0350 -0.0673
30562W        W73578  29.440  33.050  28.542 -0.3668  0.0315  0.0328
30563W        W73579   9.944  18.437  27.951 -0.3504 -0.0466  0.1584
30564W        W73580  30.065  19.923  24.519  0.1233 -0.1602 -0.0588
30565W        W73581   2.495  30.875  18.255 -0.1574 -0.0921  0.1581
30566W        W73582   6.748  29.644  15.482 -0.0153 -0.0028 -0.1418
30567W        W73583  11.553  14.482  13.028  0.0089 -0.4561 -0.1771
30568W        W73584  27.771  30.175  25.416 -0.0876  0.0448 -0.0304
30569W        W73585  27.473   2.140  22.557 -0.2816 -0.0908  0.2150
30570W        W73586   2.093  25.315  20.051 -0.0175  0.1040  0.1823
30571W        W73587  16.276   4.325  17.007 -0.0911 -0.1418 -0.0446
30572W        W73588   2.647  27.011  14.958 -0.2858  0.1572 -0.2083
30573W        W73589   6.122  16.104  23.483 -0.1418 -0.1446  0.3939
30574W        W73590  16.754  21.536  19.710  0.0358 -0.0995 -0.2151
30575W        W73591  25.862  16.716  16.549  0.1495 -0.0221  0.1784
30576W        W73592  30.451  26.167  25.101 -0.1170  0.2975  0.2206
30577W        W73593   3.336  19.298   4.646  0.0049 -0.1993  0.1105
30578W        W73594   6.760  24.971  15.739  0.1278  0.0631 -0.0945
30579W        W73595  13.595  23.308  21.483  0.2198  0.4350  0.2347
30580W        W73596  10.505  22.375  13.855  0.1835  0.0729 -0.0075
30581W        W73597   0.431  33.878  17.953 -0.1075  0.0527  0.1443
30582W        W73598   5.776  22.481  16.843 -0.2571 -0.1258 -0.4243
30583W        W73599  14.869  12.729  21.809  0.0603  0.1749  0.1501
30584W        W73600  32.380  34.073  15.372 -0.4485  0.2214 -0.0893
30585W        W73601  30.487  26.244   9.387  0.4372  0.3031 -0.1263
30586W        W73602   8.109  18.636  29.138 -0.2172 -0.2847  0.5050
30587W        W73603   5.547   0.429  28.424 -0.1495  0.2906  0.0400
30588W        W73604   0.224   1.780  13.953  0.1571  0.2118 -0.2229
30589W        W73605   7.532  23.368   8.526  0.0966 -0.0680  0.0675
30590W        W73606   2.515  27.992  25.377 -0.3289  0.2007  0.0961
30591W        W73607   3.630  15.706  23.746  0.1113  0.2754  0.2506
30592W        W73608   4.692  22.185   5.365 -0.0743  0.6062 -0.0544
30593W        W73609  27.059  30.814  24.352  0.0559  0.0160 -0.0929
30594W        W73610   5.754  16.693   4.312 -0.1143  0.0046 -0.0794
30595W        W73611   1.857  27.019  26.675 -0.4298  0.1332  0.0164
30596W        W73612  13.227  30.266   6.290  0.0205 -0.0093 -0.5306
30597W        W73613   4.238  11.605  14.933 -0.2039 -0.0199  0.2537
30598W        W73614   5.603  12.452  17.601 -0.0464  0.1859 -0.0858
30599W        W73615   5.230  31.391   0.205 -0.0473  0.2033 -0.2344
30600W        W73616  25.562  11.697  28.268  0.0331  0.2077  0.0563
30601W        W73617  17.445  24.940  20.171  0.2313 -0.0649 -0.0943
30602W        W73618   8.543  18.065  14.234 -0.0749  0.0066 -0.1796
30603W        W73619   8.315   4.957  21.463 -0.1304 -0.2220  0.1290
30604W        W73620   3.053   8.552  23.094  0.1664 -0.3227  0.1639
30605W        W73621   9.474  27.079  13.472  0.2738 -0.0462  0.2630
30606W        W73622   8.546  28.974  19.348 -0.3156 -0.1413  0.3925
30607W        W73623   4.244  27.439  17.873 -0.1591 -0.0466 -0.1988
30608W        W73624  31.074  33.426   0.363 -0.0232  0.0678  0.0835
30609W        W73625   6.870  10.864  14.672  0.0402 -0.1612  0.0810
30610W        W73626  19.169  25.885  24.204  0.1201  0.0016  0.1455
30611W        W73627  13.813   5.940  16.842  0.0910 -0.0132  0.1943
30612W        W73628   6.173  17.088  21.775 -0.1664  0.0402  0.1621
30613W        W73629  11.583  26.834  16.634  0.4760 -0.3671  0.3725
30614W        W73630   3.387  26.477  27.968 -0.2636 -0.2082  0.1487
30615W        W73631   4.272   4.605  21.205 -0.4803 -0.0448  0.1970
30616W        W73632  12.840  17.883  12.800 -0.0431 -0.0588  0.2945
30617W        W73633   9.175  16.866  18.099  0.0245 -0.0990 -0.0064
30618W        W73634  31.502  32.676  28.223  0.1137 -0.1470  0.4438
30619W        W73635  16.499  25.137   1.605 -0.2675 -0.3460  0.0954
30620W        W73636  10.962  27.124   1.722 -0.4187 -0.0591 -0.0728
30621W        W73637   5.225  26.166  25.218 -0.2576  0.4008 -0.0103
30622W        W73638  11.949   3.391   1.942  0.2869 -0.1361  0.2927
30623W        W73639  30.820  25.818  15.051 -0.0606 -0.1506 -0.1326
30624W        W73640  24.135  27.509  20.516  0.2627 -0.0228 -0.0219
30625W        W73641  31.435  22.977   6.257 -0.0697  0.0365  0.1254
30626W        W73642  32.438  27.217  21.333  0.1490 -0.1497  0.1884
30627W        W73643   9.835  16.868  20.198  0.0623  0.0258 -0.0918
30628W        W73644   4.681  16.966  19.259 -0.1679  0.0636  0.0571
30629W        W73645   8.701  23.803  22.321  0.2028 -0.1092  0.1908
30630W        W73646   6.258   2.207  23.494  0.3914  0.3653 -0.1513
30631W        W73647   4.158  12.184  16.228  0.2678 -0.1982 -0.1067
30632W        W73648  33.590  19.839   3.764  0.1524  0.3628 -0.0077
30633W        W73649   5.552  18.472  13.233  0.0077  0.2487 -0.0522
30634W        W73650  14.863  14.474  15.037  0.2016 -0.0874  0.0777
30635W        W73651  31.181  20.805  27.966 -0.0792 -0.1076  0.1178
30636W        W73652  30.962   5.235  18.782  0.1500 -0.0378 -0.1604
30637W        W73653   7.902  10.100   9.001  0.4174  0.1542  0.0552
30638W        W73654   0.127  10.406  17.098 -0.2295 -0.2934 -0.1173
30639W        W73655   2.951  29.288  21.585  0.1673  0.3833  0.2602
30640W        W73656   7.892  21.421  24.138 -0.1742 -0.0584  0.0352
30641W        W73657   8.723  27.956  25.813 -0.1276 -0.1828 -0.4026
30642W        W73658   5.691  22.921   5.859  0.0009 -0.1264  0.1442
30643W        W73659  28.559  17.737  20.983  0.2471  0.1574  0.0588
30644W        W73660  20.209  21.893  26.720  0.1177  0.3242  0.0335
30645W        W73661  26.301  31.376   5.411  0.0275  0.2191  0.4201
30646W        W73662   5.125  21.572  20.630  0.0010  0.0716 -0.4630
30647W        W73663  12.358  20.957  15.124 -0.1922  0.1900 -0.0214
30648W        W73664   7.306  11.514  22.517 -0.2115 -0.1674 -0.1803
30649W        W73665  24.916  34.087  18.104 -0.0464  0.2057 -0.0418
30650W        W73666   5.975  26.172  26.107 -0.1039 -0.4697 -0.0726
30651W        W73667   7.188  12.912   8.968 -0.1315  0.0052 -0.0980
30652W        W73668   4.125  18.954  25.493  0.3868 -0.0912 -0.1038
30653W        W73669  19.829  11.927  14.292 -0.3683 -0.1554  0.0358
30654W        W73670  11.425  20.243   0.966  0.4443  0.0052  0.1951
30655W        W73671  31.541   8.192  26.970  0.1746 -0.0806  0.3779
30656W        W73672  28.445  26.719  18.869 -0.1324 -0.0205 -0.0353
30657W        W73673  22.130   7.053  20.711 -0.1059  0.2559 -0.0926
30658W        W73674   4.855  23.395  16.983  0.1538 -0.0946 -0.3021
30659W        W73675   5.760   6.004  16.830 -0.1825  0.0187 -0.0613
30660W        W73676  17.507  33.321  14.959 -0.4062  0.0047 -0.1782
30661W        W73677  12.969  10.211  21.655 -0.1970 -0.0065 -0.0685
30662W        W73678   5.937   9.514  15.328  0.0197  0.0634  0.0785
30663W        W73679  15.828   9.818   5.519  0.0197  0.0285  0.0577
30664W        W73680  25.234  12.231  23.906 -0.0379  0.1450 -0.3346
30665W        W73681  16.806   7.213  26.433  0.0036 -0.0217  0.1030
30666W        W73682  34.555  23.895   9.552 -0.1194 -0.0721 -0.2453
30667W        W73683   8.635  13.993   0.002 -0.0845  0.2488  0.1409
30668W        W73684   5.561  26.977   5.750 -0.0256 -0.3234 -0.0679
30669W        W73685  18.922  17.477  21.951  0.0500 -0.0714 -0.3314
30670W        W73686  12.351  33.394  14.670  0.0670  0.1335 -0.0621
30671W        W73687  20.594   8.828  14.013 -0.0751  0.0462 -0.0718
30672W        W73688  27.233  32.010  10.548 -0.0254 -0.0066 -0.2679
30673W        W73689  16.163  29.383  21.399  0.1591  0.1660  0.4646
30674W        W73690  15.597  10.190  18.551  0.0363  0.0609 -0.1725
30675W        W73691   9.138  12.760  17.157  0.0716  0.2423  0.0407
30676W        W73692   1.363   9.925  22.917 -0.1260 -0.2666  0.1621
30677W        W73693  17.335  22.469  13.074 -0.0823  0.0095 -0.2806
30678W        W73694  17.698  24.504  15.580  0.1313 -0.3368  0.1108
30679W        W73695   7.739   9.581  15.995  0.0152 -0.0167  0.2043
30680W        W73696  28.463  22.925  17.922  0.0642 -0.2528  0.0661
30681W        W73697  28.717  13.704  25.852  0.1843  0.0736 -0.2121
30682W        W73698  32.203   8.890   2.679  0.1345 -0.1113 -0.2588
30683W        W73699  15.263  22.171  16.882  0.0855  0.3061 -0.0013
30684W        W73700   1.726  26.212  22.639 -0.3345 -0.2465  0.1310
30685W        W73701  27.969  24.464   3.852 -0.3669 -0.2116 -0.1745
30686W        W73702  28.993  29.560  28.795 -0.0657 -0.0084  0.2919
30687W        W73703   4.298  26.148  27.647  0.1028  0.2779 -0.2687
30688W        W73704  25.909   8.958  25.547 -0.0033 -0.0767 -0.3000
30689W        W73705  15.893  20.220  22.482 -0.0054 -0.1729 -0.2088
30690W        W73706   6.979  15.338   4.425 -0.2749 -0.0798 -0.0591
30691W        W73707  18.591   5.890  27.480 -0.2582 -0.3450  0.1077
30692W        W73708  27.795   3.853   8.315  0.1334 -0.2610  0.0973
30693W        W73709  15.805  25.301   1.691  0.0568  0.1778  0.0010
30694W        W73710   4.787  29.539  28.360  0.2897 -0.1191 -0.3114
30695W        W73711  30.222  20.768  25.028  0.1170  0.2148 -0.0997
30696W        W73712  21.658  28.496  17.732  0.0101  0.1182 -0.2827
30697W        W73713  12.062  24.819   2.596  0.0078  0.2176 -0.2224
30698W        W73714  25.421  27.789  18.120  0.2228  0.2891  0.0105
30699W        W73715  12.869  26.976  21.398 -0.0906  0.2896 -0.2797
30700W        W73716  27.000   5.147  21.245  0.0900  0.0619 -0.0019
30701W        W73717  13.320  28.875  18.958 -0.0589 -0.0410 -0.1664
30702W        W73718  30.687  13.894   0.363 -0.1080 -0.0856  0.0750
30703W        W73719   6.694  24.759  27.841  0.0113 -0.0811  0.1982
30704W        W73720   2.579  32.269  22.184 -0.2872 -0.1774  0.1139
30705W        W73721  25.394  34.015  22.984 -0.2409  0.0937  0.2277
30706W        W73722  31.997  15.018  17.552  0.0745  0.0075 -0.1833
30707W        W73723  31.810  31.560   3.259  0.3525 -0.0655  0.2566
30708W        W73724  34.642  22.530  21.833 -0.1047  0.3125  0.0112
30709W        W73725  17.228   8.220  15.085 -0.0006  0.2294  0.0266
30710W        W73726   5.661  28.296  22.612  0.0342 -0.0695 -0.1128
30711W        W73727  29.021  23.217   8.114  0.1193 -0.2391  0.0030
30712W        W73728  32.810  22.139  19.867  0.3555 -0.0377 -0.2851
30713W        W73729  32.716  16.300  20.680  0.0839 -0.0670 -0.0565
30714W        W73730  17.411  29.733  20.145  0.1710 -0.3519 -0.3751
30715W        W73731   4.320  18.366  14.675  0.2094 -0.1475  0.0488
30716W        W73732  30.244   9.610  14.537  0.4852 -0.2451  0.1500
30717W        W73733  27.183  21.679   7.828 -0.3593  0.0320 -0.2025
30718W        W73734   8.016  13.730  14.632 -0.1227  0.2611 -0.0430
30719W        W73735  31.350   7.578  27.240  0.0047 -0.0100  0.1071
30720W        W73736  20.228  34.669  17.803 -0.1201 -0.3281  0.0747
30721W        W73737   4.858  26.285  28.135 -0.3166  0.2585  0.0626
30722W        W73738   0.239  17.685  17.853  0.1847 -0.0703 -0.0150
30723W        W73739  12.715  17.578   6.753  0.0783  0.0257  0.4140
30724W        W73740  23.182  30.267  26.685 -0.1839  0.1088 -0.1653
30725W        W73741  23.144   5.084  16.505  0.0713  0.2123  0.0005
30726W        W73742   7.080  13.372  26.709  0.0213  0.0161 -0.2437
30727W        W73743  19.462  14.875   3.066 -0.2201 -0.3582  0.0533
30728W        W73744   4.027  24.313  15.662  0.0791  0.1406 -0.3475
30729W        W73745  31.180  17.365  27.807 -0.0534  0.0079 -0.4683
30730W        W73746   4.828  27.133  22.963 -0.2270 -0.1696 -0.1506
30731W        W73747   8.308   3.830   1.827  0.2052  0.1675  0.0105
30732W        W73748  32.575  24.794  17.632  0.3975 -0.0162  0.2002
30733W        W73749   3.809  33.731   4.142 -0.0890 -0.0167  0.1610
30734W        W73750   4.331  23.998   6.804 -0.0881 -0.0918 -0.1833
30735W        W73751   2.789  18.909   5.995 -0.0526 -0.0683  0.1908
30736W        W73752  18.180  13.660  23.140 -0.0244 -0.1078 -0.0917
30737W        W73753  19.555  11.588  22.473 -0.0110  0.0880  0.0719
30738W        W73754   6.482  14.119  22.931 -0.0016 -0.2725 -0.0321
30739W        W73755   9.449  19.641  20.429  0.2865 -0.2667 -0.0475
30740W        W73756  31.523   3.465  24.732 -0.2619 -0.0513  0.0729
30741W        W73757  17.263   4.088  24.552  0.0855  0.0574  0.1690
30742W        W73758  11.924  15.932  20.533  0.2146  0.2586 -0.1151
30743W        W73759   3.600   2.859  14.661  0.2303  0.1794  0.0495
30744W        W73760  33.620  29.564  22.382 -0.0657  0.3919  0.0123
30745W        W73761  13.216  24.301  22.242  0.0424  0.0125  0.2381
30746W        W73762  13.249  12.180  22.504 -0.0756  0.3254 -0.1065
30747W        W73763  14.336  13.739  19.619  0.0851 -0.3191  0.0681
30748W        W73764   3.881  20.458  15.294  0.0358 -0.0698  0.3409
30749W        W73765   8.143  33.894  22.757  0.1846  0.1963  0.0992
30750W        W73766  25.754  25.778  20.782  0.4239 -0.1799  0.3069
30751W        W73767   6.241   5.091  19.741  0.0046 -0.0104 -0.2667
30752W        W73768  13.476  14.514  28.465  0.0763  0.2422 -0.1958
30753W        W73769   8.642   3.902  27.656 -0.0069 -0.2339 -0.1692
30754W        W73770  30.720  17.839  29.313  0.2201  0.0801  0.3001
30755W        W73771  16.072  21.626  27.100  0.0940 -0.1119  0.0277
30756W        W73772  22.038  22.863  16.052  0.3807  0.1803 -0.4145
30757W        W73773  21.986  27.232  19.546 -0.0969 -0.0092  0.0328
30758W        W73774  13.856  28.781  14.991 -0.0145  0.1517  0.1533
30759W        W73775  25.410  20.201  19.039  0.0534  0.3065 -0.3672
30760W        W73776  15.960  32.885   9.039 -0.0608  0.0221 -0.2365
30761W        W73777   5.572  26.039  13.967  0.2136  0.0549  0.1180
30762W        W73778  33.115  25.898  26.137 -0.0216 -0.0411  0.0336
30763W        W73779   9.443  22.289  21.077 -0.1912 -0.0332 -0.0214
30764W        W73780  32.969   7.333  23.595 -0.0469  0.1407  0.2430
30765W        W73781  17.728  21.403  26.498  0.3253 -0.1178 -0.3649
30766W        W73782  12.275  12.866  12.866  0.0502  0.0789 -0.1150
30767W        W73783   1.825  12.354  18.318 -0.0490 -0.0025 -0.1076
30768W        W73784   8.740   0.516  24.276 -0.0161 -0.0691 -0.2747
30769W        W73785   5.567   1.885  15.394 -0.2016  0.0694 -0.2672
30770W        W73786  26.608  14.708   9.280  0.1990  0.2161  0.1553
30771W        W73787  20.516  29.496  20.813  0.1097 -0.1058 -0.0125
30772W        W73788  29.023  22.674   8.495 -0.0059 -0.0158  0.1900
30773W        W73789  23.490   6.576   6.265  0.2552 -0.2477  0.0795
30774W        W73790  28.180  19.128  22.041  0.0421 -0.1269  0.1513
30775W        W73791  17.163   7.375   8.784  0.0656  0.0712 -0.0440
30776W        W73792   1.951  32.090  22.908  0.0367  0.0071 -0.2567
30777W        W73793  29.004  10.493   2.241 -0.0223  0.3791 -0.0226
30778W        W73794  13.364  23.648  25.028  0.0914 -0.1496  0.1062
30779W        W73795  33.774  33.808  23.518  0.0222 -0.1604 -0.0046
30780W        W73796  27.775  27.568  22.417  0.0503 -0.2380 -0.1841
30781W        W73797  31.825  14.560  24.610 -0.1104 -0.1677 -0.1979
30782W        W73798   4.267  23.102   2.871  0.3576  0.1198  0.2087
30783W        W73799   2.717  33.438  23.835 -0.0937 -0.0683 -0.0497
30784W        W73800  10.013  20.905  23.350 -0.0828 -0.0744 -0.1017
30785W        W73801  10.378  12.829   2.928 -0.2981 -0.2670 -0.1170
30786W        W73802   3.165  25.415  14.618  0.2055 -0.0187 -0.1363
30787W        W73803   6.599   9.932  23.880 -0.4273 -0.1249  0.2226
30788W        W73804  23.388   0.472   4.472  0.1269 -0.2319  0.1955
30789W        W73805  18.116  34.391  16.068 -0.0635  0.0022  0.1777
30790W        W73806  12.079  13.549  16.050  0.0687  0.0356  0.1018
30791W        W73807  14.439  26.203  21.786  0.0391  0.0566  0.0901
30792W        W73808  34.363  30.470  26.985 -0.1996  0.1769 -0.1469
30793W        W73809  24.514  24.484   1.307 -0.1109 -0.1787 -0.1269
30794W        W73810  22.440   9.119  20.613  0.3432 -0.2555  0.0700
30795W        W73811  13.693  21.145  25.292 -0.0459 -0.2593 -0.0924
30796W        W73812  28.274  17.747  20.116  0.1675  0.1310  0.2342
30797W        W73813   4.626  25.866  23.781 -0.1831 -0.0094 -0.0033
30798W        W73814  12.572  26.044  15.595  0.0946  0.0153  0.0199
30799W        W73815  10.417  13.598  19.104 -0.3522  0.1389  0.0891
30800W        W73816  10.813   2.494  26.551  0.1290  0.2254  0.1721
30801W        W73817   0.935  22.093  25.672  0.1041 -0.0844 -0.1080
30802W        W73818   5.732  20.299  22.141 -0.4459  0.2207 -0.2334
30803W        W73819   0.926   4.863  16.283  0.2145  0.0939  0.3741
30804W        W73820  20.953   4.717  19.126 -0.1033  0.0445 -0.0139
30805W        W73821   3.445  29.798  19.144  0.1461 -0.1134 -0.0310
30806W        W73822   5.883  16.391  16.063  0.0928 -0.1750 -0.0421
30807W        W73823  27.189  16.090   3.070 -0.3616  0.0783 -0.3184
30808W        W73824   9.230  28.622  17.841 -0.4212  0.0578 -0.1353
30809W        W73825  13.017  27.757  22.172  0.2981 -0.0950 -0.0340
30810W        W73826   8.437  22.848   2.020 -0.1847 -0.1765 -0.0185
30811W        W73827   5.463  21.526  22.909  0.3006 -0.0850 -0.1919
30812W        W73828   0.202  29.495  19.984  0.0817 -0.0486 -0.0533
30813W        W73829  34.333   7.895   4.482 -0.0394  0.2422  0.0734
30814W        W73830   2.792  15.954   0.903 -0.1053 -0.2541 -0.1346
30815W        W73831   3.487   2.429  15.851  0.1409  0.1305  0.2465
30816W        W73832  28.111  14.371  20.910 -0.1829  0.0716 -0.0007
30817W        W73833  11.914  24.764  24.691 -0.1302  0.0400 -0.0423
30818W        W73834  32.074  21.064  16.759  0.1673  0.1155 -0.0449
30819W        W73835  19.040  28.982  22.592 -0.1736  0.1159 -0.3045
30820W        W73836  12.561  25.395  28.090  0.1723  0.0872  0.2484
30821W        W73837   9.387  20.849   2.602 -0.1543  0.0999 -0.3979
30822W        W73838  16.982  20.288  21.234 -0.0487  0.0921 -0.0346
30823W        W73839  34.468   8.139  14.029  0.0730 -0.1888 -0.1095
30824W        W73840   6.007  27.435   2.277  0.3688 -0.1274  0.2269
30825W        W73841   3.775  25.980  24.324 -0.4945  0.0280 -0.0602
30826W        W73842  30.738  15.370  16.163  0.2139 -0.0263  0.0968
30827W        W73843  12.391  23.584   2.573 -0.0642  0.0778  0.2656
30828W        W73844  16.433  27.759  14.674  0.1456 -0.3639 -0.4415
30829W        W73845   7.530  32.464   6.700 -0.0956  0.0411  0.2396
30830W        W73846   9.139  18.207  25.214  0.3468  0.2302  0.1429
30831W        W73847  20.017  24.711  19.593  0.0169  0.3136 -0.0390
30832W        W73848  20.385  11.882  25.692 -0.3039  0.3540 -0.5433
30833W        W73849  28.077   0.452   4.952  0.0661 -0.2673  0.0136
30834W        W73850  32.615  19.032   1.630  0.1346  0.1066 -0.3352
30835W        W73851   0.511  32.602  21.688 -0.1629  0.0944  0.3243
30836W        W73852   1.863  27.771  15.142 -0.1909 -0.1336  0.2023
30837W        W73853  13.702  16.208  28.598  0.0116 -0.1880  0.2761
30838W        W73854  11.555  32.956  24.135  0.1956  0.0725  0.0873
30839W        W73855   1.624  19.834  18.457 -0.4084 -0.1192 -0.3766
30840W        W73856  32.654  12.185  14.901  0.2409  0.1409 -0.1361
30841W        W73857  33.031  16.285  21.228  0.0513 -0.0828 -0.0566
30842W        W73858  27.445  34.365  23.151  0.1011 -0.1535 -0.2741
30843W        W73859  12.227  10.179  21.024  0.2309 -0.1134  0.1617
30844W        W73860  12.459  18.703  27.662 -0.2271 -0.0988  0.0439
30845W        W73861   3.546   0.628   1.922  0.1132 -0.0074  0.1376
30846W        W73862  32.118   6.655  13.946  0.2506 -0.1383  0.2238
30847W        W73863  13.110   3.403  19.067 -0.0317  0.1793  0.3078
30848W        W73864  22.285  15.912  20.598 -0.0256  0.0457  0.0828
30849W        W73865   9.255  19.717  23.061 -0.1618  0.0611  0.1179
30850W        W73866   2.966  22.503  25.370 -0.0839  0.0888 -0.2877
30851W        W73867  33.580  19.152  15.916  0.0058  0.0185  0.0752
30852W        W73868  28.823  17.803  24.437 -0.0476 -0.2986 -0.0542
30853W        W73869   6.518  32.329  14.096  0.0579 -0.1073 -0.1787
30854W        W73870   2.198  32.250  13.858  0.3230  0.3545  0.0424
30855W        W73871   6.613  26.648  21.559 -0.2770 -0.1756  0.1408
30856W        W73872  12.363  10.236  16.297  0.2701 -0.0640 -0.1356
30857W        W73873  29.181  27.458  24.367  0.2131  0.0391  0.2151
30858W        W73874   9.120  11.035  16.649 -0.0157 -0.0267 -0.1474
30859W        W73875  10.721   1.671   6.243  0.0074 -0.0427 -0.0279
30860W        W73876   3.809  27.108   7.627  0.0199  0.0103  0.1159
30861W        W73877   8.278  20.178  15.780  0.1332 -0.4397 -0.1424
30862W        W73878  13.779  27.070  28.480 -0.1226  0.1235 -0.1860
30863W        W73879  17.258  10.880  18.151  0.3337 -0.0023  0.3219
30864W        W73880  23.376  30.168  22.143 -0.0063 -0.0461 -0.1548
30865W        W73881   9.913  28.648  15.081 -0.0866 -0.1746  0.1829
30866W        W73882  32.656  16.060  14.890 -0.0459  0.1191 -0.0821
30867W        W73883  14.333  23.128  24.773  0.0233 -0.3078 -0.1378
30868W        W73884  16.722  32.931  17.977  0.1484 -0.1875  0.0575
30869W        W73885  16.131  21.510  21.241 -0.1151 -0.1258  0.0065
30870W        W73886   4.440   7.124  26.180  0.0037  0.3155  0.0651
30871W        W73887   4.066  28.698  27.871 -0.1330  0.0970  0.0664
30872W        W73888  15.416  20.759  28.678 -0.4688 -0.1871  0.1103
30873W        W73889   4.713  25.483   3.546 -0.0656  0.0510 -0.0465
30874W        W73890   7.638  29.340   1.980  0.0213 -0.1011 -0.1769
30875W        W73891   2.060  33.221  29.025 -0.2057 -0.2393 -0.0601
30876W        W73892   4.509  26.241  16.379  0.0926  0.3323 -0.0523
30877W        W73893   8.713   4.082  17.157  0.1982  0.0393  0.2766
30878W        W73894  14.590  18.310  26.794 -0.0492  0.1191 -0.1197
30879W        W73895  24.578  20.891  24.800  0.1048 -0.1602 -0.2318
30880W        W73896  20.188  24.187  18.093  0.1102 -0.1174 -0.0105
30881W        W73897   8.695  29.176  19.916 -0.0599  0.0232 -0.3446
30882W        W73898  31.582  17.811  16.583 -0.0254  0.1379  0.1198
30883W        W73899  31.197  26.189  22.773  0.1361  0.0150  0.0191
30884W        W73900  11.228  14.502  21.124  0.0038 -0.0490  0.2596
30885W        W73901   6.169  17.301  28.705 -0.1379 -0.1642  0.1643
30886W        W73902   2.823  12.508  16.094 -0.2091  0.1094 -0.0166
30887W        W73903   9.778  23.657  24.194 -0.2752  0.0905  0.0915
30888W        W73904  14.494  21.961  11.722 -0.0575 -0.2682  0.3280
30889W        W73905   0.824  13.305   8.112 -0.1835 -0.2193  0.0054
30890W        W73906   0.148  23.609   9.361  0.1150  0.1346  0.0284
30891W        W73907  10.350  27.872   3.199 -0.2403  0.0106  0.0151
30892W        W73908  33.212  30.380  17.513  0.0355 -0.0150 -0.2496
30893W        W73909  32.803  22.958  19.440  0.2345  0.0406  0.0948
30894W        W73910  32.675  17.092  17.873 -0.1470 -0.1537 -0.1532
30895W        W73911  16.260   5.817  21.834 -0.0564  0.1132  0.4374
30896W        W73912   3.332  23.464   4.585  0.2661  0.5331 -0.0855
30897W        W73913  25.867  10.593  18.597 -0.0573 -0.1492 -0.3735
30898W        W73914  13.208  20.026  20.964  0.0872 -0.1976 -0.5146
30899W        W73915  18.138  15.896  12.554 -0.3185  0.0219  0.3078
30900W        W73916   4.683  22.808  26.333  0.1156 -0.1197 -0.1859
30901W        W73917   4.506  23.710  20.105 -0.1854 -0.4182 -0.3476
30902W        W73918   5.033  10.715  18.790  0.0492 -0.1232  0.1587
30903W        W73919  33.195  20.075  24.513  0.0235  0.0568  0.0036
30904W        W73920  26.661  25.175  19.970 -0.0175 -0.1665  0.0641
30905W        W73921  31.936  23.388  17.439  0.2139  0.3524 -0.0913
30906W        W73922   7.207   8.912  16.744 -0.3748  0.4101 -0.3252
30907W        W73923  18.418  11.192   3.360 -0.3332 -0.0448  0.1801
30908W        W73924   1.288   3.686  14.746 -0.0663 -0.2316 -0.0293
30909W        W73925   5.165   2.771  20.849 -0.1066  0.0695  0.3881
30910W        W73926   6.354  26.728  21.967 -0.1172  0.0269 -0.1225
30911W        W73927  34.363   1.599  17.393 -0.1275 -0.0921 -0.0146
30912W        W73928  15.778  17.784  12.745  0.0097  0.2693  0.0704
30913W        W73929   6.340  15.916   7.780  0.0980 -0.1113 -0.0619
30914W        W73930  11.572   4.049  28.991 -0.0343  0.0911  0.1737
30915W        W73931  31.371  26.266   7.403 -0.0479 -0.1681  0.0877
30916W        W73932   2.349  24.881  19.055  0.2242  0.4090 -0.0949
30917W        W73933  31.260  25.119  21.662  0.0477 -0.0823  0.0442
30918W        W73934  21.157  25.346  23.492  0.0764 -0.6692 -0.0928
30919W        W73935   9.421   8.086   2.975  0.0241 -0.0761  0.0206
30920W        W73936  33.175  12.063  20.175  0.1523  0.0015  0.5029
30921W        W73937   4.899  17.298  27.124  0.1306  0.3371 -0.1810
30922W        W73938   3.668  33.110   6.234  0.2979 -0.3084 -0.0042
30923W        W73939   5.571  21.004  22.757 -0.3569  0.2114 -0.3503
30924W        W73940  11.072   4.472  24.421 -0.0553  0.0218  0.2986
30925W        W73941   8.636   8.637  20.180 -0.1818  0.1390 -0.0260
30926W        W73942  16.391   7.679   5.262 -0.0615 -0.3111  0.3397
30927W        W73943  29.752   7.208  21.544 -0.0593 -0.1026  0.0470
30928W        W73944   8.461   3.937   2.758  0.1030 -0.2201  0.1173
30929W        W73945  15.326  26.293  25.591  0.0781 -0.3488  0.2523
30930W        W73946  26.762  19.648  14.661  0.1454 -0.0442  0.1700
30931W        W73947  19.266  27.036  26.737 -0.0094 -0.4254  0.0435
30932W        W73948   3.907  15.485   9.392  0.2113  0.2319  0.1341
30933W        W73949  33.247  31.903  23.007 -0.4306  0.0169 -0.1456
30934W        W73950   4.002   3.202  16.422  0.2506  0.1424 -0.0999
30935W        W73951  29.079  23.949  21.623  0.1062  0.3795  0.1965
30936W        W73952   1.015   4.609  21.517 -0.1820 -0.1529 -0.1577
30937W        W73953  33.286  21.474  20.288  0.2113 -0.1973  0.0486
30938W        W73954   6.852  11.838   4.847  0.2698  0.1034  0.3399
30939W        W73955   7.560  18.664  25.556  0.0034  0.2512 -0.2099
30940W        W73956   1.737  32.810   1.991 -0.1067  0.0537 -0.6581
30941W        W73957  20.758  22.014   4.898  0.1992  0.3870 -0.2128
30942W        W73958  23.114  24.201  26.606  0.3253  0.0575  0.0876
30943W        W73959   9.398  12.195  19.696  0.2868 -0.1540  0.1551
30944W        W73960  29.196  31.656   5.109 -0.0187 -0.0039  0.0030
30945W        W73961  26.041   9.436  15.359 -0.4478 -0.4353 -0.2690
30946W        W73962   5.857   5.474   5.282  0.1359  0.1897  0.1326
30947W        W73963  32.257  18.679   8.184 -0.3711  0.0327  0.0934
30948W        W73964  29.842  22.330  20.522 -0.1128  0.1812 -0.0982
30949W        W73965  11.003  18.947   6.616  0.3717 -0.0285 -0.1122
30950W        W73966  33.511  29.876   0.439  0.0202  0.2938  0.0055
30951W        W73967  18.150  24.411  27.921 -0.0764  0.2410  0.1627
30952W        W73968  32.883  11.386  26.824  0.3567 -0.2144  0.0564
30953W        W73969   2.341   5.374  14.768  0.0786  0.3590 -0.1289
30954W        W73970   5.860  26.513   9.315 -0.2102 -0.0378  0.3363
30955W        W73971   3.967  18.404  23.243  0.2036  0.1241  0.2968
30956W        W73972  11.837  32.259  18.040  0.1112 -0.3009  0.0887
30957W        W73973  32.684  16.184   0.986 -0.3774  0.1565 -0.1699
30958W        W73974  24.805  17.746  25.330  0.3904  0.3252 -0.3118
30959W        W73975  29.095  25.041  17.856  0.1320  0.0959  0.0658
30960W        W73976  20.529  18.631  13.336 -0.0503  0.1757 -0.3036
30961W        W73977   1.532  20.360   6.751 -0.0466  0.1454 -0.0942
30962W        W73978   4.723  17.114   3.310 -0.0385  0.3023 -0.0785
30963W        W73979   0.967   8.227  22.431 -0.0193 -0.0947 -0.0452
30964W        W73980   7.846  18.147  27.609 -0.0873 -0.1832 -0.1008
30965W        W73981  30.721  33.334  18.418 -0.3254 -0.0368 -0.1239
30966W        W73982   8.943  22.353  17.950 -0.0326 -0.0230  0.0818
30967W        W73983  33.499  17.627  23.016 -0.0906  0.4628 -0.0048
30968W        W73984  32.700  22.647  23.080 -0.2141 -0.0362  0.1404
30969W        W73985  16.758  16.274  18.613  0.3180  0.0188 -0.2664
30970W        W73986   3.405  13.401   1.511  0.1504 -0.1533  0.0234
30971W        W73987   0.545  23.967  23.803 -0.1393 -0.2425  0.0015
30972W        W73988  10.461   4.712  21.070 -0.1079 -0.1525 -0.0331
30973W        W73989  34.297  23.489  25.284  0.0284  0.3141 -0.0878
30974W        W73990  12.710  21.941  19.318  0.0295 -0.1533 -0.1096
30975W        W73991  20.692  33.123  15.680 -0.2640 -0.1295  0.1459
30976W        W73992  32.821  17.180  26.267  0.1031 -0.0950  0.1885
30977W        W73993  17.497   1.602  15.270  0.1098 -0.0725 -0.0756
30978W        W73994   1.655  31.358  20.470 -0.3335 -0.1125 -0.1983
30979W        W73995   9.980  13.717  15.917 -0.0963 -0.0097  0.1005
30980W        W73996   4.458  20.067  20.239  0.2273 -0.0985  0.0979
30981W        W73997  30.708  26.052   0.191 -0.2928  0.1293  0.0040
30982W        W73998  11.480  19.641   6.448  0.1202  0.1467 -0.3121
30983W        W73999   4.693  22.478   6.791 -0.3170  0.0608  0.0523
30984W        W74000  29.945  21.042   2.819  0.2617  0.1140 -0.1859
30985W        W74001   0.255   8.447  24.507 -0.4427  0.2347  0.0290
30986W        W74002  11.096  14.487   4.294  0.0411 -0.1826 -0.1521
30987W        W74003   8.031  23.901  16.523 -0.0343  0.0898 -0.1164
30988W        W74004  26.997  32.173  16.336  0.0052  0.0997  0.0196
30989W        W74005  27.317  20.751  17.173 -0.1604 -0.1019  0.0308
30990W        W74006   2.716  17.485  21.864  0.1261  0.1370 -0.2111
30991W        W74007  32.508  25.254  20.712 -0.0109 -0.3242 -0.2024
30992W        W74008   4.240  29.816  16.100 -0.0403  0.1621 -0.2990
30993W        W74009  13.445  16.077   6.265 -0.0917 -0.2196  0.1766
30994W        W74010  27.450   9.421   4.510  0.3791  0.2682 -0.0419
30995W        W74011  32.202  15.870  19.746 -0.0624 -0.0556  0.0476
30996W        W74012  12.156   1.676  21.899  0.0926 -0.2539  0.3324
30997W        W74013   4.219  25.889  25.197 -0.1020  0.1127 -0.2388
30998W        W74014   8.084  31.783   8.262 -0.2137  0.0755  0.0519
30999W        W74015   8.503  19.413  23.099 -0.1239 -0.3017  0.1884
31000W        W74016  11.337  20.908   3.335 -0.0673 -0.3427 -0.2276
31001W        W74017  21.864   9.027  27.683  0.0752  0.4644 -0.0894
31002W        W74018  14.803  19.093  22.492 -0.0595 -0.0492  0.1584
31003W        W74019   2.798  25.742   6.964 -0.2430  0.2180  0.4178
31004W        W74020   6.028  17.557  14.812  0.1517 -0.1513 -0.3882
31005W        W74021  11.212  20.215  17.299  0.0401  0.1977 -0.0777
31006W        W74022  20.701  15.280   7.612  0.3957  0.0280  0.0511
31007W        W74023   8.451  16.909  25.295  0.1721  0.1062 -0.2066
31008W        W74024   3.067  11.686  17.708  0.0392  0.0543 -0.0045
31009W        W74025  28.286  20.651  18.451  0.2279  0.2855  0.2169
31010W        W74026   6.373  21.203  22.601 -0.1747 -0.1221  0.0235
31011W        W74027  14.093   7.297   5.762 -0.0346  0.0531 -0.3894
31012W        W74028  11.075  31.657  14.666  0.1555 -0.1532 -0.3462
31013W        W74029  21.475  21.258  21.733  0.2005 -0.1189  0.2009
31014W        W74030  27.438  11.936   9.089  0.0245  0.3486  0.1065
31015W        W74031  30.540  33.809  22.263 -0.0735  0.0166  0.0127
31016W        W74032   4.764  32.613  18.767  0.0612 -0.3678  0.0488
31017W        W74033   1.779  21.404  23.998  0.0897  0.0304 -0.0773
31018W        W74034  21.549  26.897  22.958 -0.1153  0.0647 -0.0641
31019W        W74035  20.795   3.993  27.923  0.2936  0.0767 -0.1448
31020W        W74036  26.624  22.454  15.204  0.1960 -0.1289  0.0060
31021W        W74037   6.970  21.707  25.522 -0.2414 -0.0204  0.0955
31022W        W74038  23.523  26.241  15.462 -0.0803  0.1857 -0.1034
31023W        W74039   0.391  14.761  24.272 -0.0553 -0.1399 -0.0184
31024W        W74040  25.358  28.530  21.859  0.3588 -0.2111 -0.1747
31025W        W74041   7.766  25.827   0.523 -0.1798  0.1358  0.0920
31026W        W74042  13.204  23.052  25.670  0.1251 -0.0368  0.2711
31027W        W74043   4.269  21.998  26.840 -0.1022  0.0125  0.3708
31028W        W74044  28.944  23.199  16.582 -0.1381  0.2216  0.1262
31029W        W74045  10.618  28.811  14.282 -0.0996  0.0131 -0.1603
31030W        W74046  10.669  26.603   2.550  0.0670  0.0950  0.2492
31031W        W74047   9.332   3.178  21.814 -0.0636  0.2410 -0.1212
31032W        W74048  27.884  10.465   7.629  0.2176  0.0079  0.3309
31033W        W74049  13.910  28.183   2.040 -0.0139 -0.1984  0.0390
31034W        W74050   6.424  22.603   1.753  0.0532  0.2098 -0.0746
31035W        W74051  21.147  25.569  10.101 -0.1160  0.0932  0.1412
31036W        W74052   9.000   9.528   6.786  0.2806  0.2192  0.0534
31037W        W74053   0.300  11.404  24.609  0.0158 -0.0859 -0.1819
31038W        W74054  24.891  23.770   3.410  0.0881 -0.1675 -0.0694
31039W        W74055   5.805  26.858  17.033  0.1999  0.0360 -0.0852
31040W        W74056   3.092  32.873  18.165 -0.0721  0.0182  0.2152
31041W        W74057  31.568  25.565  26.892  0.1489 -0.2031 -0.0129
31042W        W74058  33.962  23.121  25.425 -0.1074  0.4145 -0.0019
31043W        W74059   8.559  22.111  15.078  0.3264  0.1784  0.1642
31044W        W74060   4.847  24.927   2.437 -0.1813  0.0624 -0.3748
31045W        W74061  28.971  18.361   6.978 -0.1048  0.1841  0.0883
31046W        W74062   2.190  13.760  25.768 -0.2381 -0.0835  0.4436
31047W        W74063   7.356  22.274   1.178 -0.1654 -0.2779 -0.1188
31048W        W74064   1.818   3.567  23.006 -0.1067 -0.0822 -0.2776
31049W        W74065  31.653  14.998  25.918 -0.1079  0.4609 -0.1902
31050W        W74066   1.703  20.604   1.247 -0.1103  0.1226  0.0644
31051W        W74067  20.419  18.463  25.347 -0.2159 -0.0075  0.0104
31052W        W74068  30.770  24.423   7.301  0.1520  0.0307 -0.1852
31053W        W74069   3.074  20.490  28.268  0.2094  0.0850  0.1787
31054W        W74070   4.912  15.670  22.480 -0.3010  0.2042 -0.0143
31055W        W74071  32.693  16.399  28.276 -0.1067  0.0819 -0.2630
31056W        W74072  15.389  30.551  23.817 -0.3477 -0.1121  0.0749
31057W        W74073   2.579  22.653  18.943  0.1357  0.2559 -0.0319
31058W        W74074   0.117   7.130  27.012  0.0143 -0.0759 -0.1838
31059W        W74075  12.766  21.444  24.991  0.2344 -0.1516 -0.1610
31060W        W74076   6.774  26.086   0.740 -0.3337 -0.1113  0.0311
31061W        W74077  12.548  29.669  13.722  0.1322  0.0701  0.4682
31062W        W74078  27.788   2.598   2.486 -0.0209  0.0078 -0.2374
31063W        W74079  15.093  18.793  19.829 -0.2049  0.2282  0.0697
31064W        W74080  16.590  17.866   2.424 -0.0049  0.1314 -0.0687
31065W        W74081   5.938   0.224   1.708 -0.1279  0.2413  0.0782
31066W        W74082   2.302  27.161   2.888 -0.1432 -0.0838 -0.1698
31067W        W74083  34.137   0.915  23.662 -0.1295  0.0769 -0.0976
31068W        W74084   5.948  32.849   3.917 -0.1866  0.2818  0.1341
31069W        W74085  20.211  20.935  19.427  0.0291  0.0737 -0.0674
31070W        W74086  31.485  22.605   6.556 -0.1240 -0.0973 -0.1777
31071W        W74087  27.397  33.557  16.503 -0.0558 -0.0396 -0.0143
31072W        W74088  23.492  10.185  27.307  0.2254 -0.1622  0.2031
31073W        W74089  10.015  18.591  20.947  0.0853  0.2688 -0.0338
31074W        W74090  30.407   0.821  25.374 -0.0584 -0.2933 -0.2335
31075W        W74091  26.952  21.966   3.676 -0.1503 -0.1156 -0.0240
31076W        W74092   6.300  12.087  27.462 -0.0037 -0.1531 -0.0266
31077W        W74093   4.210  13.048   1.523 -0.0072  0.1094 -0.2712
31078W        W74094  34.657  15.667   3.358  0.3842  0.0486 -0.2404
31079W        W74095   5.392  27.765  19.309  0.1511  0.2554 -0.0316
31080W        W74096   3.297  25.784   4.506  0.0259  0.1878 -0.3502
31081W        W74097   3.122  26.121   3.175  0.2106 -0.1032 -0.2172
31082W        W74098   0.762  22.258  18.373  0.0067  0.0202 -0.2044
31083W        W74099  23.668  20.848  20.705  0.0878 -0.3679  0.2763
31084W        W74100   5.517  23.337  19.405 -0.2941 -0.3345 -0.1385
31085W        W74101  24.307  25.696   9.368  0.1472 -0.1455 -0.2926
31086W        W74102   2.403   0.936  26.425 -0.2194 -0.0703  0.1092
31087W        W74103  29.219  16.004  20.435  0.0315 -0.2239 -0.0059
31088W        W74104  21.317  25.045  21.285 -0.1291  0.3508 -0.0610
31089W        W74105  30.936  27.911   1.309  0.1428 -0.0663 -0.1584
31090W        W74106  32.458  34.400  26.482 -0.0081  0.1644  0.1530
31091W        W74107  10.395  34.510   6.267 -0.1439 -0.0766  0.2237
31092W        W74108   7.134  25.216  15.939  0.2363 -0.0182 -0.2856
31093W        W74109  23.006   7.362  23.529  0.0149  0.0429 -0.0807
31094W        W74110   0.333  16.301  17.533  0.1068 -0.3169  0.1232
31095W        W74111   1.712  16.465   1.798 -0.2251  0.0458 -0.3666
31096W        W74112  32.319  21.164  15.831 -0.1805  0.0105 -0.1340
31097W        W74113   5.906  12.496  25.075  0.3473 -0.2327 -0.0507
31098W        W74114  10.372  26.588  22.975 -0.1252  0.1370  0.0813
31099W        W74115  25.179   9.051  21.469 -0.2017 -0.0465  0.1273
31100W        W74116  11.486  28.037  22.256 -0.1947 -0.1358 -0.4877
31101W        W74117  10.598   8.302  13.935  0.1262  0.1085 -0.2564
31102W        W74118   6.240  29.574   3.819 -0.1128 -0.2312 -0.0349
31103W        W74119  13.373  17.325  23.972  0.0177 -0.1710  0.3713
31104W        W74120  21.123  25.519  18.649  0.3814 -0.1446 -0.0977
31105W        W74121   7.866  18.875  20.111 -0.1153  0.0748 -0.1203
31106W        W74122   9.187   6.408   7.166  0.0261  0.1911 -0.0609
31107W        W74123  28.881  19.806  21.604 -0.1802 -0.1999 -0.2235
31108W        W74124  21.403   1.128  27.590  0.1216 -0.1082  0.0740
31109W        W74125  17.885  16.416  12.721 -0.1467 -0.1299 -0.1340
31110W        W74126  33.998   0.905  24.540 -0.0207  0.0282 -0.1474
31111W        W74127   3.927  32.826  26.441 -0.3071  0.2350  0.0487
31112W        W74128   8.649  12.238  25.897  0.2621  0.3287 -0.0189
31113W        W74129  32.651  24.098  16.325  0.1249  0.1248  0.0758
31114W        W74130   0.277  29.076  16.161 -0.0573 -0.0076  0.0798
31115W        W74131   6.840  31.236  29.010  0.5713  0.0787  0.0108
31116W        W74132  12.438  21.576  14.273  0.0924 -0.0788  0.0604
31117W        W74133  32.151   7.763   0.674  0.1349 -0.3991 -0.1149
31118W        W74134  28.872  23.218  20.196  0.2738 -0.0645  0.1169
31119W        W74135  34.214  27.820   8.486 -0.2793 -0.0832  0.0675
31120W        W74136  20.629  12.466  24.386 -0.2463  0.0172  0.4008
31121W        W74137  31.015  16.662  28.620 -0.1292  0.2379 -0.2509
31122W        W74138   5.170  12.641   7.774 -0.0640  0.1198  0.1123
31123W        W74139  26.011  22.380  27.818  0.0421  0.3277 -0.1484
31124W        W74140  19.820  13.535  12.976 -0.0620  0.0378 -0.0239
31125W        W74141  16.618  31.164  16.561  0.0290  0.0727  0.0399
31126W        W74142   7.400  22.518   4.331 -0.2184  0.3939 -0.3252
31127W        W74143   2.443  31.375  20.095 -0.1951 -0.2575  0.0331
31128W        W74144  32.741  31.494  23.662 -0.1863 -0.1774  0.0550
31129W        W74145  34.738   1.544  15.509 -0.3261 -0.3474 -0.0010
31130W        W74146  32.476  23.325   6.690  0.1600 -0.0209 -0.1305
31131W        W74147  16.046  16.256  19.048  0.2876 -0.2491 -0.1958
31132W        W74148  14.598  14.118  20.778  0.0319 -0.2707 -0.2583
31133W        W74149   9.946  31.075  14.972  0.1658  0.4501  0.0705
31134W        W74150   1.548  25.282  17.166 -0.0166  0.1016  0.0842
31135W        W74151  32.776   5.254  18.964  0.2901  0.0372  0.1882
31136W        W74152   8.251  23.280   1.153  0.0039  0.0157 -0.0632
31137W        W74153   5.208  27.218   0.034  0.2385 -0.2634 -0.1307
31138W        W74154  22.527  11.798  27.832 -0.2622  0.1890  0.1356
31139W        W74155   2.865  29.422   1.360  0.1024  0.0330 -0.0714
31140W        W74156   4.906  30.865   9.581 -0.5186  0.2382 -0.0034
31141W        W74157  12.130  15.852   5.519  0.1922 -0.0847  0.0654
31142W        W74158   6.038  11.636  17.303 -0.2722  0.1532 -0.2429
31143W        W74159  18.102   9.949  12.889 -0.0558  0.3440 -0.1526
31144W        W74160  12.494  17.564  24.342 -0.0458 -0.0964  0.0426
31145W        W74161  30.502  21.351  26.204 -0.0172  0.2209 -0.1783
31146W        W74162  12.597  28.478  25.764  0.3118  0.0737 -0.0493
31147W        W74163  33.999  21.905  10.006 -0.0070  0.0051  0.4212
31148W        W74164   1.233  30.973   9.983  0.0274  0.0784  0.0204
31149W        W74165  25.440  25.323   0.692 -0.2600  0.0038 -0.0885
31150W        W74166  28.905   2.351   6.975 -0.2011  0.0965 -0.2582
31151W        W74167   1.473  26.695   3.052  0.1349  0.2003 -0.1505
31152W        W74168   9.594  23.281  27.758 -0.0111  0.0025  0.0304
31153W        W74169   8.058  21.939  27.100 -0.2144 -0.0502 -0.0878
31154W        W74170  24.918  18.364  18.643  0.0461  0.3519 -0.1317
31155W        W74171  34.132  22.587  26.245 -0.6360  0.2220 -0.1223
31156W        W74172   9.726   9.848  24.159 -0.1279  0.1377 -0.3681
31157W        W74173   8.741   8.493  23.892  0.2114  0.2712  0.1657
31158W        W74174  19.337  22.539   6.280  0.1719  0.1967 -0.2660
31159W        W74175  34.548  28.027  23.594  0.1765  0.0638 -0.2256
31160W        W74176  24.288  31.488   5.949 -0.1808  0.1292 -0.1173
31161W        W74177   1.377  30.136   4.867 -0.0383  0.0411 -0.0311
31162W        W74178   0.820  14.332   2.824 -0.1942 -0.1529  0.1146
31163W        W74179  33.510   8.284  18.778  0.0184 -0.0879 -0.0178
31164W        W74180  29.851   5.103   9.087 -0.1089  0.0191  0.1694
31165W        W74181  26.315   9.923  15.405  0.2781 -0.1083 -0.1572
31166W        W74182  29.106  25.283   9.793 -0.0243 -0.3604  0.2064
31167W        W74183   6.333  31.220   0.008  0.2695  0.3857  0.0200
31168W        W74184   3.745  30.533  25.939  0.1096  0.1325 -0.0310
31169W        W74185  16.972  18.935   0.752  0.4197  0.1233  0.0240
31170W        W74186  11.718  34.299   5.679  0.1751 -0.1906  0.0728
31171W        W74187  12.055  13.880  16.448  0.4316  0.2635 -0.0300
31172W        W74188   7.582  27.802  21.890 -0.2216 -0.3602 -0.0815
31173W        W74189   8.313  16.969   1.165  0.4531 -0.1694  0.0202
31174W        W74190  20.173  23.474  17.398 -0.0918 -0.0283  0.1865
31175W        W74191  18.521  27.723   4.938  0.0707  0.1182 -0.0114
31176W        W74192   3.725  17.960  17.337 -0.2718 -0.1233  0.0326
31177W        W74193   0.933  30.618   7.058  0.1928 -0.1916 -0.0702
31178W        W74194   8.327  30.801   0.407 -0.1336  0.1212 -0.2986
31179W        W74195   2.379  10.136   4.923 -0.3621 -0.0297 -0.2268
31180W        W74196  18.499  27.539  22.353  0.0917 -0.1249 -0.1064
31181W        W74197  31.672   9.150   3.096 -0.0312 -0.2147 -0.1379
31182W        W74198  19.571  26.104  16.776  0.0818 -0.0781 -0.1163
31183W        W74199  33.986   1.879  16.975 -0.1334 -0.1427  0.2013
31184W        W74200   2.103  33.112  25.176  0.1741  0.0299 -0.2853
31185W        W74201  24.806   4.413  22.482 -0.1697  0.0102  0.0038
31186W        W74202  16.001  17.597  20.769 -0.0171 -0.1231 -0.2307
31187W        W74203  13.882  25.003  14.533  0.0207 -0.2341  0.4552
31188W        W74204   4.132  23.897  22.976 -0.0854 -0.0312 -0.1666
31189W        W74205   4.394  16.398   1.110 -0.0237  0.1421  0.0916
31190W        W74206   2.033  13.822   4.653  0.1532 -0.0279 -0.0787
31191W        W74207   1.761  27.594  23.064  0.1116  0.0876 -0.3156
31192W        W74208   6.708  13.862   6.741  0.0750 -0.2485 -0.1428
31193W        W74209  12.451  29.014  14.502 -0.0726 -0.2709  0.2217
31194W        W74210  13.380  27.069  28.814  0.0567  0.2196  0.2767
31195W        W74211  15.981  17.211  11.059  0.1044 -0.0745 -0.2464
31196W        W74212   3.312  25.554  22.630  0.0685  0.0651  0.1927
31197W        W74213  10.065  22.792   1.708  0.0773 -0.1241  0.1612
31198W        W74214  34.308  19.373  10.772  0.4468  0.2386 -0.2752
31199W        W74215  32.989  15.400  27.883  0.0142  0.3033 -0.3598
31200W        W74216   2.110  25.872   8.803  0.2316 -0.0021  0.2718
31201W        W74217  29.209  12.725  22.443 -0.0519 -0.0771 -0.0482
31202W        W74218   9.246  23.229   4.746  0.1209  0.2399  0.1030
31203W        W74219  29.033  25.486  22.857  0.0673 -0.1572  0.0511
31204W        W74220  21.525  32.833  25.532 -0.0815  0.0658 -0.0598
31205W        W74221   4.412  31.720  18.683  0.0087 -0.1156  0.3143
31206W        W74222  16.670  33.476  25.676 -0.0230  0.3398 -0.0448
31207W        W74223  15.421  30.409  15.208 -0.3985 -0.3873  0.3533
31208W        W74224  21.249  13.317  17.391 -0.2332 -0.0577 -0.0376
31209W        W74225  32.211   0.395   2.659 -0.2583  0.1642 -0.0000
31210W        W74226   7.220   0.118  10.749 -0.1263  0.0617  0.0173
31211W        W74227  30.985  21.093  17.011  0.4936 -0.1114  0.0730
31212W        W74228   8.498  14.240  21.184 -0.0530  0.0128  0.1244
31213W        W74229  31.126   6.247   1.664  0.1395  0.0934 -0.0742
31214W        W74230  13.491  18.243  23.602  0.0421 -0.1711  0.4826
31215W        W74231   8.470  33.922   8.525 -0.0442  0.2743  0.1866
31216W        W74232   6.114  31.182  18.270  0.0433  0.1139 -0.0793
31217W        W74233   9.457  27.678   5.616 -0.1833  0.0038  0.1222
31218W        W74234   4.988  27.593  20.856 -0.3496 -0.2281 -0.0552
31219W        W74235   9.369  25.807   7.148  0.2241  0.2017 -0.1167
31220W        W74236   6.520  15.475  24.029  0.1265 -0.1469 -0.2521
31221W        W74237  17.433   6.731   4.615  0.2810 -0.0419  0.2336
31222W        W74238   1.301   1.096   3.006 -0.1042  0.1163  0.4169
31223W        W74239  10.361  27.051   4.800  0.0114  0.2437  0.2850
31224W        W74240   5.473  12.978   1.733  0.3010 -0.1968  0.4066
31225W        W74241  22.644  30.841  15.714  0.2828  0.0783 -0.6922
31226W        W74242  31.192  17.965   3.013 -0.1466 -0.0622  0.0526
31227W        W74243  18.968   7.725   1.495  0.0271 -0.2803 -0.0240
31228W        W74244  12.279  13.127  14.650 -0.3313  0.0934 -0.1253
31229W        W74245  18.531  33.402   2.113 -0.0998  0.0197 -0.0697
31230W        W74246  29.630   5.459  19.261 -0.0815  0.1568 -0.0044
31231W        W74247  10.515  28.037  14.628  0.1352 -0.3606  0.2845
31232W        W74248   1.974  17.644  17.418 -0.0515  0.1599 -0.2984
31233W        W74249   5.482  16.828   3.196 -0.2771  0.0403 -0.2848
31234W        W74250   6.496  17.326   6.787  0.2930 -0.0512 -0.0678
31235W        W74251  14.144  10.791  15.296  0.0861  0.0927  0.1567
31236W        W74252   1.608  24.391  15.012  0.0050  0.0337 -0.2809
31237W        W74253   0.182  19.488   4.968 -0.0989 -0.1467 -0.4849
31238W        W74254   2.526  17.747  15.272 -0.3137  0.0842  0.0743
31239W        W74255   8.224   2.162  28.304 -0.2103 -0.3192 -0.0825
31240W        W74256  34.096  27.028  18.565 -0.1005 -0.0129  0.1559
31241W        W74257   6.959   1.844   0.028  0.0522  0.0453  0.2191
31242W        W74258  11.209  30.361   4.343 -0.0183 -0.0702  0.0338
31243W        W74259   4.931   1.179  19.625  0.1174  0.0129  0.0346
31244W        W74260  27.772  25.170   5.801 -0.0561 -0.0748 -0.1225
31245W        W74261   5.801  23.651  15.091 -0.0751  0.1113 -0.2215
31246W        W74262  12.768  30.085  25.803  0.1192 -0.1113 -0.0856
31247W        W74263  15.811  26.767  24.292  0.0395 -0.0910  0.2092
31248W        W74264  31.734  23.255  23.253 -0.0008  0.1183  0.0185
31249W        W74265   0.129  28.671  27.962 -0.0187  0.0941 -0.0326
31250W        W74266   5.608  33.743  14.303  0.0782 -0.1146 -0.1646
31251W        W74267   3.010  33.997  15.086  0.2407 -0.0325  0.0281
31252W        W74268  20.828  16.059  14.934  0.1216  0.1351 -0.0107
31253W        W74269  26.791  27.279  10.758 -0.0107 -0.3485 -0.3563
31254W        W74270  11.847  20.967  19.678  0.0467 -0.1104 -0.3977
31255W        W74271   9.205   0.230   6.926  0.1247 -0.2293 -0.2997
31256W        W74272   8.251  18.674   1.670 -0.0483  0.0201  0.4396
31257W        W74273   6.136  23.063  17.278 -0.2636 -0.1637 -0.2419
31258W        W74274  13.067  10.712  27.625 -0.0263 -0.0942 -0.0564
31259W        W74275   6.730  33.794   0.550 -0.1140 -0.2286 -0.0128
31260W        W74276   3.847  29.440  24.730 -0.1807  0.1979  0.3745
31261W        W74277   2.803  26.109   9.178  0.3781 -0.0998  0.1660
31262W        W74278   0.593  17.476  22.007  0.2416  0.0996 -0.2667
31263W        W74279  20.731  14.013  26.847  0.0616  0.0435  0.0372
31264W        W74280  11.089  21.434   8.841  0.1818  0.1783 -0.3089
31265W        W74281  11.374  16.797  12.875 -0.1020 -0.1454 -0.2051
31266W        W74282   1.984   0.060  16.465 -0.1126 -0.0617  0.5244
31267W        W74283  30.419  15.768  17.315  0.0393 -0.0437  0.2067
31268W        W74284  20.400  10.734  24.998 -0.0978 -0.1498  0.0096
31269W        W74285  21.398  27.835  10.418 -0.0655 -0.1451  0.0177
31270W        W74286   9.086  30.530   0.580  0.0968  0.1646  0.1475
31271W        W74287  18.351  11.926  16.757  0.1609 -0.1040  0.2539
31272W        W74288   1.944  19.550   6.667 -0.0499 -0.0570 -0.0965
31273W        W74289   0.787  25.904   2.701  0.3754 -0.1665  0.1615
31274W        W74290   5.228  13.448  14.967 -0.3939  0.0351  0.0695
31275W        W74291  13.009  18.259   2.752  0.1185 -0.0441  0.0079
31276W        W74292  33.442   2.937  20.802  0.2074 -0.0805 -0.1513
31277W        W74293  34.297   2.542  23.627  0.0698 -0.0552 -0.1821
31278W        W74294  33.627  20.171  20.257  0.1152 -0.0345 -0.0611
31279W        W74295   3.831  33.767  23.168 -0.0707  0.0201 -0.0363
31280W        W74296  34.677  23.013  15.038  0.2203  0.1397  0.0619
31281W        W74297   9.419  21.926  28.709 -0.1273  0.2712  0.0135
31282W        W74298   4.779  30.694  18.976  0.0582  0.1360  0.1570
31283W        W74299   4.546   1.388   5.106  0.2074  0.5273 -0.0817
31284W        W74300  11.783  20.372  15.699  0.5954  0.1183  0.0648
31285W        W74301  14.298  28.293   8.078 -0.1932  0.2758  0.0803
31286W        W74302   3.994  20.163  16.528  0.4536  0.0633 -0.5492
31287W        W74303  27.215  16.513  27.512 -0.0855  0.0167 -0.2295
31288W        W74304  11.255  18.771  26.800  0.1708  0.0919  0.1878
31289W        W74305  14.134  29.986  18.715 -0.1117 -0.2647 -0.0742
31290W        W74306  11.366  21.110  26.646  0.5611  0.0185 -0.1584
31291W        W74307  19.382  34.731  26.744  0.0900  0.1369 -0.1224
31292W        W74308  24.555  25.217  11.348  0.1733 -0.1706  0.2234
31293W        W74309  14.961  22.313   4.127 -0.0897 -0.1038  0.0837
31294W        W74310  20.278  11.815  28.417  0.0125 -0.0566 -0.0428
31295W        W74311  27.638  21.176  23.462  0.2251  0.1989  0.1354
31296W        W74312   3.299  28.643  23.822 -0.0630  0.1303  0.1087
31297W        W74313  11.901  22.072  29.315 -0.1032 -0.3053 -0.3776
31298W        W74314  32.684  27.207  25.973  0.1124 -0.0049  0.2007
31299W        W74315  17.816  14.870   1.496 -0.0847 -0.3327  0.0913
31300W        W74316  20.527  27.957  28.422 -0.1460 -0.1427 -0.1753
31301W        W74317  34.761  25.541  19.418  0.2021 -0.5212  0.2015
31302W        W74318  34.078  26.579  28.873  0.4416  0.0811  0.1664
31303W        W74319   4.083  28.307   1.095  0.1284  0.0229  0.0230
31304W        W74320  25.274  31.776  17.332  0.2225 -0.0900 -0.0554
31305W        W74321  17.180  17.699  29.000  0.0973  0.2345 -0.0713
31306W        W74322   6.328   9.668  21.268 -0.2124 -0.1782  0.2324
31307W        W74323   7.161  10.306  19.828  0.2826 -0.0379 -0.0122
31308W        W74324  11.525  26.497  18.767 -0.0262 -0.3241  0.1906
31309W        W74325  29.411  22.184   2.544  0.2515 -0.2612 -0.1473
31310W        W74326   9.136  20.896  20.242  0.0449 -0.1219 -0.1373
31311W        W74327  11.583  25.722  19.158  0.0468  0.2098 -0.1654
31312W        W74328  18.420  10.048  23.780  0.2397  0.1265  0.0785
31313W        W74329  12.856  30.066  19.552  0.1314 -0.0441  0.0646
31314W        W74330  10.061  15.189  15.178 -0.3008  0.0723 -0.4386
31315W        W74331   4.812   6.138   2.339 -0.1181  0.2230 -0.1425
31316W        W74332  22.366  29.364  28.210 -0.3202  0.0616 -0.1530
31317W        W74333  26.855  22.912   4.855  0.2356  0.1350 -0.2724
31318W        W74334  32.984  12.182  21.035 -0.0579 -0.2473  0.0738
31319W        W74335  10.049  27.967  25.576 -0.0152  0.2052 -0.2272
31320W        W74336  34.393  21.843  24.661  0.3257 -0.1348 -0.0925
31321W        W74337  31.709  26.549   3.067 -0.0055 -0.2995 -0.1617
31322W        W74338   9.003  32.487   5.363  0.1098 -0.1834 -0.0026
31323W        W74339   7.607  28.645  26.109 -0.1446  0.2136 -0.2661
31324W        W74340  20.338  15.760   3.574  0.1065  0.0693 -0.0159
31325W        W74341   8.684  18.292  20.962 -0.1237 -0.1723  0.3009
31326W        W74342   5.247   0.798  19.283 -0.0720  0.1178  0.1443
31327W        W74343  16.637  21.561   1.598 -0.1350 -0.2885  0.1946
31328W        W74344   0.886  11.617  20.895 -0.1271 -0.0425  0.0247
31329W        W74345  28.028  33.635   0.711  0.1879 -0.1028  0.1099
31330W        W74346  20.854  20.868  23.880 -0.1051 -0.1548 -0.1223
31331W        W74347   9.938  28.816  21.059  0.2355 -0.3143  0.3332
31332W        W74348   9.615   9.422  26.863 -0.0659 -0.0482  0.3142
31333W        W74349  13.543  22.693  20.661  0.2048 -0.4613 -0.0911
31334W        W74350   7.150  14.152  23.883  0.0060 -0.2256  0.1160
31335W        W74351   5.042  12.007  14.910 -0.6492 -0.0569 -0.0250
31336W        W74352  21.614  25.937  22.954  0.4041 -0.0159  0.0493
31337W        W74353   5.178  26.875  26.885  0.2921  0.1964  0.3680
31338W        W74354  11.304  20.013   0.462  0.1938 -0.1790 -0.2031
31339W        W74355  25.570   9.285   1.894 -0.2880 -0.0370  0.0641
31340W        W74356  20.775  27.648  18.973 -0.2726  0.2485 -0.2641
31341W        W74357  13.756  11.209  26.345 -0.2400  0.0627  0.4865
31342W        W74358   5.295  29.603  25.301 -0.0413  0.0354 -0.1368
31343W        W74359  11.256  20.536   1.444 -0.0122  0.0678 -0.3958
31344W        W74360  31.889  13.131  18.583  0.1334 -0.2550 -0.0891
31345W        W74361  33.460  24.002  27.809 -0.0133 -0.1751 -0.3791
31346W        W74362   9.800   1.481  25.995 -0.0178 -0.1262  0.1110
31347W        W74363  25.909  21.538  22.039  0.1570 -0.3973 -0.0487
31348W        W74364  30.850  26.234  22.398 -0.4692 -0.0179 -0.0528
31349W        W74365  12.735  22.873  18.663  0.1088  0.0170 -0.0550
31350W        W74366  14.191  22.659   8.166 -0.4711 -0.1525  0.1722
31351W        W74367   9.095   9.553   4.714  0.0727 -0.0506  0.1681
31352W        W74368  16.721   4.233  16.282  0.0053 -0.4579 -0.0235
31353W        W74369  14.458  27.793  17.747 -0.3136 -0.0266 -0.0315
31354W        W74370   8.859  20.416  28.811 -0.1447  0.2664 -0.1312
31355W        W74371   6.952  17.390  19.388  0.1007 -0.2427 -0.3621
31356W        W74372  24.130  29.339   9.663 -0.4271  0.1874  0.1416
31357W        W74373  10.502  18.824   0.875 -0.0706 -0.1929 -0.0257
31358W        W74374  34.627  31.115  27.640 -0.2899 -0.0496  0.2343
31359W        W74375   0.787  20.229  25.195 -0.1596 -0.0467  0.3039
31360W        W74376  17.348  27.047   9.826 -0.0448  0.2890  0.0681
31361W        W74377  25.893  20.972  19.528  0.0004  0.2418  0.1494
31362W        W74378   5.284  25.839  23.150  0.2628  0.3870 -0.4201
31363W        W74379  17.086  17.244  18.134 -0.2799  0.0070  0.0373
31364W        W74380   5.242  25.905  18.111 -0.2503 -0.0039 -0.3175
31365W        W74381  20.934  27.819  17.039 -0.1943 -0.1927 -0.1325
31366W        W74382  30.242  28.620   8.400  0.2404  0.0457  0.0755
31367W        W74383   3.992   9.058  16.123 -0.3791 -0.0717  0.3766
31368W        W74384   0.789  12.125   5.348  0.0771 -0.0881 -0.2093
31369W        W74385  19.108  27.719  19.375 -0.0561  0.2659 -0.2226
31370W        W74386   6.775   7.894  20.683  0.2653  0.1551  0.1248
31371W        W74387  25.939  10.416  24.690 -0.1390  0.1711 -0.3177
31372W        W74388  10.832  26.921  15.564  0.0813 -0.1014  0.1531
31373W        W74389  10.139  26.323  17.138 -0.1249 -0.3160  0.0751
31374W        W74390  19.627   2.383  18.336 -0.0356 -0.2474  0.1529
31375W        W74391   5.992  25.891  22.300  0.1691 -0.0271 -0.0124
31376W        W74392   9.035  32.122  16.253  0.3002 -0.0376 -0.1315
31377W        W74393   9.623  16.690  20.865 -0.0864  0.1359  0.0032
31378W        W74394  12.073  19.195  28.355 -0.3880 -0.1043  0.0092
31379W        W74395   7.923  23.980  20.564 -0.0217  0.0583 -0.0356
31380W        W74396  12.245  13.017  23.071 -0.0503  0.0790  0.1778
31381W        W74397  16.943  22.444   3.356 -0.0217  0.2023 -0.2262
31382W        W74398  25.123  30.340  15.079 -0.1895 -0.1648  0.2030
31383W        W74399  34.603  21.249  25.357 -0.0024 -0.2616 -0.1681
31384W        W74400   6.812   6.440   6.981 -0.2830  0.0607 -0.1925
31385W        W74401   5.514  30.956  15.498  0.0308  0.0510  0.0052
31386W        W74402  11.324  22.146  19.476  0.2428 -0.1833  0.0389
31387W        W74403   2.424  28.445  17.671  0.1167 -0.1605  0.0491
31388W        W74404  19.364  12.797  23.707  0.1455 -0.0010 -0.0874
31389W        W74405  15.634  30.509   2.557 -0.1893  0.2021  0.1719
31390W        W74406  19.247  18.507  19.707  0.0032  0.1522  0.1230
31391W        W74407  29.509  17.718  28.771  0.1901  0.1131 -0.0756
31392W        W74408   9.967  28.817   3.062  0.1015  0.1593 -0.1705
31393W        W74409  29.647  10.282  22.351 -0.0574 -0.2409  0.0810
31394W        W74410  34.234  10.869  20.078  0.1363  0.0113 -0.0591
31395W        W74411   8.167  34.561   1.538 -0.1018  0.1421  0.2117
31396W        W74412   5.973  27.064   5.332  0.1302 -0.0580  0.0891
31397W        W74413   9.722   1.038  23.212  0.2340  0.3063  0.0660
31398W        W74414  31.870  19.226  19.281  0.0314 -0.0399 -0.0903
31399W        W74415  11.229  28.795   0.063 -0.1891  0.1474 -0.2569
31400W        W74416   1.259  25.801  28.970 -0.1210  0.1726 -0.0198
31401W        W74417  13.100  23.645  19.724  0.1316  0.1638  0.3890
31402W        W74418   3.248  18.709  22.899  0.0403 -0.0144  0.3685
31403W        W74419  34.414  33.217  26.855  0.0192  0.0260  0.1025
31404W        W74420  30.640  18.093  15.468  0.0288  0.2009  0.2971
31405W        W74421   1.004  19.661  27.767  0.0909  0.1471  0.2088
31406W        W74422  29.048  25.861   0.477  0.0546 -0.0455  0.1903
31407W        W74423  25.264   0.833  15.826 -0.5558 -0.2450  0.1935
31408W        W74424   7.790   4.370  17.148  0.2578 -0.0523  0.1981
31409W        W74425  27.278  22.991  24.321 -0.0167 -0.0275 -0.0787
31410W        W74426   4.605  24.178  16.644  0.0094 -0.0553  0.2500
31411W        W74427  24.028   3.118  25.185  0.0931 -0.1350 -0.0029
31412W        W74428  32.814  20.943  23.279 -0.0151 -0.2174  0.1785
31413W        W74429   7.272  20.001  24.668  0.2724  0.1274  0.0635
31414W        W74430  13.882  25.771  10.007  0.3169 -0.2372 -0.3688
31415W        W74431  11.708  21.848  23.441  0.1760 -0.2558  0.1743
31416W        W74432   9.450  20.889   7.496  0.1720 -0.0924 -0.3627
31417W        W74433  19.155  25.073  24.407  0.0178 -0.2799 -0.1352
31418W        W74434   2.748  22.382  19.367 -0.2805 -0.1858  0.0568
31419W        W74435  21.001  24.539   8.010 -0.1434  0.3303  0.0831
31420W        W74436  13.948  22.621   3.901 -0.0965  0.3610 -0.0276
31421W        W74437  34.747  27.192  22.360 -0.0805 -0.1005  0.2422
31422W        W74438  15.753  17.001  12.986  0.2274 -0.0321  0.2188
31423W        W74439  17.593   6.707   5.438 -0.0102  0.1606 -0.2266
31424W        W74440  30.922  20.233  16.646 -0.1901 -0.2574 -0.1935
31425W        W74441   8.971  26.961   5.920 -0.1468  0.1571  0.1397
31426W        W74442  21.896  32.452  25.541  0.1361  0.1657 -0.1287
31427W        W74443  13.381  25.840   1.914 -0.3046 -0.1320 -0.2254
31428W        W74444   5.545  23.916  23.215  0.2655  0.1841  0.1465
31429W        W74445   4.486  26.034  20.133  0.1614 -0.0518 -0.0167
31430W        W74446  33.524  29.863   4.399  0.1666 -0.2171 -0.1374
31431W        W74447   1.605  17.137   5.406 -0.0879 -0.0446  0.0999
31432W        W74448  11.336  23.561  29.110 -0.1805 -0.1413 -0.0355
31433W        W74449   5.708  20.872  17.231  0.0566 -0.0913 -0.3530
31434W        W74450  28.418  33.438  18.938 -0.0206  0.0743 -0.1659
31435W        W74451   6.746  27.354  20.030 -0.2626 -0.1319  0.1729
31436W        W74452  32.597  17.338  18.867 -0.0776  0.3397  0.1315
31437W        W74453  28.841  16.506  22.014 -0.1951 -0.0417  0.0724
31438W        W74454  26.088  29.701   6.167  0.2307  0.1908 -0.0309
31439W        W74455  16.534  26.042   6.233  0.0704 -0.2009  0.1151
31440W        W74456  24.798  11.545  25.974 -0.1325 -0.3178  0.0699
31441W        W74457  27.035  14.599  14.045  0.2825 -0.1212  0.2316
31442W        W74458  30.507  33.710  16.055  0.3309 -0.0305 -0.1040
31443W        W74459  26.725  12.520  14.572  0.0432  0.5147 -0.1925
31444W        W74460   2.182  19.354  24.568  0.0538 -0.0034  0.1385
31445W        W74461  26.870  33.133  17.662  0.2125 -0.0578 -0.1317
31446W        W74462   7.598  21.525   5.404  0.0443  0.0258 -0.0361
31447W        W74463  14.920   0.129   6.884 -0.0856 -0.0343 -0.2231
31448W        W74464  31.596   0.570  15.480 -0.3412  0.3007 -0.2188
31449W        W74465  30.912  20.093   2.067  0.0216 -0.0129  0.0252
31450W        W74466  14.736  25.555  21.482  0.0794 -0.3869 -0.0330
31451W        W74467  12.071  16.695   2.617 -0.0255  0.1866  0.4127
31452W        W74468  16.393  17.546  19.127 -0.1281 -0.1594 -0.1543
31453W        W74469  27.060   4.865   7.700 -0.1672  0.3004  0.3173
31454W        W74470   5.192  25.086  18.089 -0.0865 -0.2278 -0.1609
31455W        W74471   3.831  28.302  20.114  0.1561  0.1429 -0.1038
31456W        W74472  15.838  30.381  10.091  0.3929 -0.0899  0.0408
31457W        W74473  30.231  18.247  15.255 -0.0597 -0.1893 -0.0139
31458W        W74474   8.433  30.823   3.370  0.0217 -0.0088  0.2260
31459W        W74475  23.413   7.969  26.320  0.1798 -0.1455 -0.0435
31460W        W74476   9.440  15.752   1.442 -0.1100  0.1086  0.1333
31461W        W74477  34.230  27.274  26.893 -0.2218  0.2795  0.2390
31462W        W74478  33.287  18.613   2.070 -0.1534  0.0305 -0.1126
31463W        W74479   1.960  25.463   3.376 -0.0589  0.0823 -0.2364
31464W        W74480   7.040  11.393  16.094 -0.0442  0.3800  0.1557
31465W        W74481   9.899  32.322  17.937 -0.0623  0.0689 -0.1311
31466W        W74482   7.818  29.181  18.413 -0.0294 -0.0442  0.0427
31467W        W74483  32.554   5.233  21.251  0.2618 -0.2762 -0.1699
31468W        W74484  12.084  24.700  16.677  0.2058 -0.1500  0.2354
31469W        W74485   1.859   2.234  14.931 -0.1663 -0.1965  0.0792
31470W        W74486   7.211  15.291   8.609  0.3015 -0.1197  0.1078
31471W        W74487   4.629  10.164   1.331  0.2227 -0.2532 -0.0064
31472W        W74488  32.612  27.351  28.695 -0.0671 -0.0723  0.0580
31473W        W74489  21.612  27.046   2.423  0.0220  0.2157 -0.2723
31474W        W74490  21.264  27.173   2.848  0.3221  0.2181 -0.1031
31475W        W74491   7.689  19.524   1.545  0.0139 -0.0163  0.1570
31476W        W74492  22.427  24.291   0.122 -0.2444  0.4572  0.0263
31477W        W74493  16.603  11.976   8.033  0.0264  0.0590  0.2185
31478W        W74494   2.282  29.259  10.612  0.1222  0.2081  0.4157
31479W        W74495  33.110   5.725   3.009 -0.3383  0.0189  0.2483
31480W        W74496  27.126  23.361   7.751  0.0551  0.0709 -0.2332
31481W        W74497   2.833  24.011  18.919  0.1036  0.1436  0.2331
31482W        W74498   1.109   9.431  26.680  0.0037 -0.0059 -0.0584
31483W        W74499  24.154  24.015  24.911 -0.2620  0.2196  0.1670
31484W        W74500   2.779   1.246   5.026  0.1488  0.0296  0.2658
31485W        W74501  20.744  15.281   4.126 -0.0007 -0.2474 -0.0940
31486W        W74502   0.440  26.955   8.041 -0.1110  0.3939 -0.1452
31487W        W74503  29.101  15.132  21.504 -0.0808  0.0886 -0.0470
31488W        W74504  33.625  25.006  27.744 -0.3831  0.1541  0.1406
31489W        W74505  18.889  26.672  28.487 -0.1571  0.0689 -0.1400
31490W        W74506  15.096  21.224   1.569  0.1277 -0.1070 -0.0050
31491W        W74507   5.315  27.516  14.245  0.0158  0.0925 -0.2357
31492W        W74508  20.556  30.042  19.484 -0.2560 -0.1341  0.0840
31493W        W74509  22.986  24.903  27.519 -0.0971 -0.0040  0.0960
31494W        W74510  34.771  28.926  22.814  0.0469 -0.1212 -0.1443
31495W        W74511   9.985  34.592  22.498 -0.1158 -0.1588 -0.1835
31496W        W74512  12.297  30.551  23.009 -0.0388  0.4376 -0.0715
31497W        W74513  14.984  30.054  20.404 -0.0242 -0.0955 -0.0582
31498W        W74514   9.633   0.082   1.356 -0.3902 -0.1714  0.0733
31499W        W74515  26.930   8.499  16.782 -0.3994  0.0725  0.0587
31500W        W74516  25.763   5.181  18.844 -0.1323  0.1530 -0.0462
31501W        W74517   8.944   1.499  22.058  0.0140 -0.1158 -0.1780
31502W        W74518  14.556  26.687  24.105 -0.1009  0.2496  0.0208
31503W        W74519   8.727  33.361  23.930  0.0279 -0.2289  0.2020
31504W        W74520   6.533   0.403  17.817 -0.1709 -0.0272 -0.1141
31505W        W74521  16.225  25.847  19.122  0.0866 -0.2259  0.2294
31506W        W74522  19.074  23.092  18.746 -0.2021 -0.0345 -0.1595
31507W        W74523  34.559  28.964  19.152 -0.2675 -0.0594 -0.3531
31508W        W74524  18.035   6.378  23.849  0.1916  0.3536 -0.0196
31509W        W74525  29.193   0.152  21.124 -0.1908 -0.0352  0.2114
31510W        W74526  24.959  25.138  28.809  0.1488  0.0894  0.1503
31511W        W74527  24.100  30.786  14.705  0.2314 -0.0209 -0.0114
31512W        W74528   7.737   2.256  28.265 -0.0718 -0.1831 -0.3977
31513W        W74529  10.947  24.805  15.494  0.3491 -0.1690  0.1512
31514W        W74530  23.464  28.476  26.117 -0.2090 -0.0794 -0.0996
31515W        W74531  16.254  27.721  19.284 -0.1287 -0.0535  0.2114
31516W        W74532  15.310  22.158  21.703  0.1402  0.3777 -0.3395
31517W        W74533   4.714  16.602  15.440 -0.0173  0.3507  0.1268
31518W        W74534  17.398  26.014  16.071  0.2390 -0.1393  0.0794
31519W        W74535  14.732  22.129  13.122 -0.1872 -0.0793  0.3686
31520W        W74536  13.748  26.481  14.263 -0.0562 -0.2551 -0.1337
31521W        W74537   1.373  30.277  25.696  0.4187  0.4531 -0.0653
31522W        W74538   9.632   2.064  21.327  0.1920 -0.0351  0.0439
31523W        W74539   1.313  27.779  18.894  0.1546  0.0162 -0.1083
31524W        W74540   5.606  24.029   3.905 -0.2760  0.0042 -0.0400
31525W        W74541   5.039  24.823  15.671 -0.0811 -0.2128 -0.2459
31526W        W74542  14.560  32.302  21.919 -0.2208  0.0369  0.1662
31527W        W74543   4.229  26.762  14.319  0.0136  0.0364  0.2980
31528W        W74544  12.386  24.724  14.355 -0.0917  0.1672  0.2440
31529W        W74545   8.585   2.242   2.413  0.1957 -0.3719  0.2265
31530W        W74546  14.918   3.430  16.583  0.2751  0.1603 -0.2904
31531W        W74547   4.521  14.867  14.078 -0.2198  0.1346  0.0045
31532W        W74548   8.304   4.773  25.665  0.0197 -0.1432  0.5358
31533W        W74549  12.112  28.774  27.253  0.5930 -0.0551  0.1525
31534W        W74550  25.120  22.474  17.817 -0.0314  0.1488  0.1021
31535W        W74551   7.681  32.145  22.162  0.2855  0.0664 -0.0495
31536W        W74552   8.022  24.036  13.370  0.0853  0.2270  0.1215
31537W        W74553   3.869  22.001  26.363  0.0206 -0.4239 -0.1066
31538W        W74554  21.244  20.499  15.921  0.0812 -0.1896  0.2946
31539W        W74555  22.861  30.288   2.188  0.1952 -0.3413 -0.0633
31540W        W74556   7.807  28.036  21.398 -0.2111 -0.4057  0.0404
31541W        W74557  21.293  19.473  21.961 -0.2741  0.0501 -0.0065
31542W        W74558  10.859  30.086  20.026  0.1998  0.2109 -0.0681
31543W        W74559  11.310  26.100  20.732  0.0772 -0.1510 -0.0805
31544W        W74560   9.532   7.696  15.530 -0.1276 -0.1768 -0.3854
31545W        W74561  31.591   8.696  23.386  0.3286  0.1949 -0.1007
31546W        W74562  11.837  21.467  17.152  0.0333  0.0376  0.1842
31547W        W74563  16.803  20.671  16.684  0.3262  0.2207  0.0200
31548W        W74564  28.756   7.317   8.533  0.0132 -0.3128  0.2939
31549W        W74565   5.172  25.769  15.235 -0.0680  0.1472  0.0040
31550W        W74566  17.213  32.379  16.083 -0.0516  0.3627  0.0203
31551W        W74567   6.908  19.007  15.903 -0.1016 -0.0705 -0.1072
31552W        W74568  33.446  25.133  24.884  0.1726 -0.0384 -0.1034
31553W        W74569   9.509  25.662  16.198 -0.1278 -0.0721 -0.4986
31554W        W74570  32.681   6.925   0.152  0.1766  0.0384  0.0334
31555W        W74571  18.728  11.816  27.585  0.1136 -0.1377 -0.2161
31556W        W74572   3.134   9.631  22.244  0.4080 -0.2737  0.3341
31557W        W74573   6.424   5.434  21.022 -0.2194  0.2570  0.0097
31558W        W74574  10.343  21.927  15.013 -0.3048  0.0329 -0.0692
31559W        W74575  11.606  16.837  15.122 -0.0853 -0.3148 -0.0884
31560W        W74576   6.488  13.920  18.501  0.2813  0.4126 -0.0218
31561W        W74577  11.482  20.026  12.884 -0.0049  0.1463 -0.2303
31562W        W74578  12.379  34.482  16.790 -0.0823  0.5228 -0.0717
31563W        W74579  10.812  12.757  14.534 -0.1188 -0.0797 -0.0411
31564W        W74580   0.129  27.277  14.742  0.0578  0.1513 -0.1864
31565W        W74581   9.644   4.087  19.972  0.0491 -0.1181  0.0512
31566W        W74582  14.561  11.639  16.098 -0.0803 -0.1460  0.0692
31567W        W74583  13.478  34.050  16.587  0.0581  0.3464 -0.6207
31568W        W74584   4.722   9.254  21.368  0.4968 -0.0595  0.0965
31569W        W74585  12.522  10.789  16.103 -0.0375 -0.0854  0.1753
31570W        W74586  21.960  24.838   1.673  0.0312  0.2336 -0.4388
31571W        W74587  11.328   4.486  19.449  0.0786 -0.3155 -0.1048
31572W        W74588   3.377  32.266  24.239 -0.1212 -0.0954 -0.0615
31573W        W74589   4.250  14.517  15.495  0.0369  0.1708  0.1708
31574W        W74590   0.564  18.032  17.036 -0.1434  0.0697  0.0615
31575W        W74591  10.500  23.964  19.859  0.0589  0.0183  0.0912
31576W        W74592  10.733  30.107  27.898  0.0541 -0.2679  0.1872
31577W        W74593  10.959  27.447  24.190 -0.2200 -0.1919  0.1219
31578W        W74594  15.542   2.665  14.874 -0.0090  0.0581  0.0424
31579W        W74595  29.103  14.987  23.711  0.0100 -0.2838  0.1459
31580W        W74596  20.467  24.314  28.913  0.3531  0.3242  0.0943
31581W        W74597   0.585   6.275  15.302  0.3017  0.0131  0.1757
31582W        W74598  30.113  27.526  24.940  0.0273 -0.0981  0.1751
31583W        W74599   8.652   1.486  26.828 -0.1730  0.1509  0.1251
31584W        W74600   6.689  30.569  24.642  0.2315 -0.1303  0.0398
31585W        W74601   8.446   1.785  16.368  0.0053 -0.1902  0.3785
31586W        W74602  10.830  18.543  23.819 -0.0977  0.3701 -0.1216
31587W        W74603  33.837  17.355  25.159 -0.1527  0.2450 -0.1797
31588W        W74604   6.927  20.384  18.065 -0.0871 -0.0424 -0.2889
31589W        W74605  13.442  25.000  20.164 -0.2377  0.0127  0.2467
31590W        W74606  26.385  16.035  16.258 -0.2417 -0.2834 -0.1143
31591W        W74607   6.140   7.733  25.074 -0.1005  0.1258  0.1804
31592W        W74608   4.373  34.024  24.362 -0.0909 -0.0131  0.0474
31593W        W74609  31.175   1.231  22.013 -0.3013 -0.0648  0.0836
31594W        W74610  10.138   3.409  24.080  0.0072 -0.1525 -0.0530
31595W        W74611   9.805  10.064  17.515 -0.3276 -0.1108  0.2037
31596W        W74612  14.873  30.787  24.664  0.2196  0.2948 -0.2174
31597W        W74613  23.339  24.622  22.264  0.1017  0.0700 -0.1977
31598W        W74614  34.213  34.654  18.921 -0.1611  0.1058  0.2020
31599W        W74615  13.414   6.253   2.085  0.0195 -0.2095  0.0330
31600W        W74616  30.826  11.909  18.872  0.0550 -0.2317 -0.1425
31601W        W74617   5.425  20.416  18.069 -0.0708 -0.1655  0.3017
31602W        W74618  20.392   7.084   0.874 -0.0998 -0.3427 -0.1066
31603W        W74619  31.408   1.370  15.029 -0.1851  0.0550 -0.0019
31604W        W74620   4.656  10.094  25.466  0.2240 -0.2860  0.0765
31605W        W74621   2.328  31.614  23.967  0.2585 -0.0057 -0.0800
31606W        W74622   0.746  14.897  15.147  0.0779 -0.4038 -0.1622
31607W        W74623  33.871  30.934   3.467  0.0028 -0.3946 -0.1870
31608W        W74624  19.528  27.542  25.278 -0.0522  0.0160  0.2685
31609W        W74625   8.802  32.834  27.116  0.0651 -0.0144 -0.0848
31610W        W74626   4.246   1.642  15.899 -0.2787 -0.1989 -0.1831
31611W        W74627  19.284  18.253  13.090  0.4484 -0.1288  0.0168
31612W        W74628  10.489  19.779  26.098  0.4620  0.0366  0.0078
31613W        W74629  22.972   9.686  16.855  0.1461  0.0855 -0.0632
31614W        W74630   2.711  23.038   0.949  0.1249 -0.1838  0.1587
31615W        W74631  19.726  22.774  15.538 -0.3262 -0.1441 -0.3234
31616W        W74632   3.443  28.646  18.727 -0.2399  0.0467 -0.0460
31617W        W74633   8.126  30.979  15.770 -0.1324  0.0924  0.0108
31618W        W74634  12.213  25.789  22.837  0.1674  0.0735 -0.2600
31619W        W74635  32.963  13.144   8.829  0.1528  0.1177 -0.2735
31620W        W74636  30.382   2.501  16.373 -0.1314 -0.3825  0.1619
31621W        W74637   8.671  31.492  16.818  0.4723 -0.0632  0.0597
31622W        W74638   8.989  27.123  19.137 -0.0796 -0.2558  0.0672
31623W        W74639   4.668  21.730  16.846 -0.1699 -0.0967  0.0514
31624W        W74640  33.592  28.995   3.937  0.0584 -0.1821  0.0085
31625W        W74641  23.218  26.596  19.939 -0.1324  0.1073 -0.0698
31626W        W74642  19.302  25.566  25.511 -0.0470  0.1070 -0.0195
31627W        W74643  26.032   3.369   3.394  0.0683  0.0545 -0.1101
31628W        W74644  13.008  19.857  15.164 -0.2425  0.3271 -0.0979
31629W        W74645  30.921  30.081  17.267 -0.0650 -0.2140  0.0268
31630W        W74646  32.699  17.079   2.810  0.2683  0.1764 -0.2530
31631W        W74647  18.691  20.536  24.534  0.0566  0.1413  0.1012
31632W        W74648   7.607  20.637  13.211 -0.2201 -0.1911  0.1311
31633W        W74649   0.370  34.194  28.265  0.0223 -0.2586  0.3575
31634W        W74650  18.750  25.764  19.980  0.1292 -0.0237  0.2827
31635W        W74651   1.324  22.780  22.776  0.1176 -0.1799 -0.1159
31636W        W74652  30.178   1.400  19.339 -0.3439 -0.1368 -0.1287
31637W        W74653   4.174   1.288  23.274  0.0358 -0.1385 -0.2498
31638W        W74654  10.745  27.437  25.896  0.0912 -0.0825 -0.2949
31639W        W74655  10.517   3.001  22.197  0.1462  0.2763  0.1715
31640W        W74656   0.409   7.191   0.210  0.2728 -0.2942 -0.1733
31641W        W74657  13.755   8.236  25.636 -0.0268  0.0331  0.2594
31642W        W74658   2.405   6.361  18.199  0.3309  0.1295 -0.0705
31643W        W74659  34.502  23.941  15.911  0.0742  0.3340 -0.1250
31644W        W74660  10.592  25.486  22.304  0.0858  0.0640 -0.5818
31645W        W74661   0.341  32.927  21.285 -0.1559 -0.0702 -0.1290
31646W        W74662  32.560  30.102  16.572 -0.2670 -0.0939  0.1929
31647W        W74663   7.736  23.285  26.945 -0.1808 -0.0295 -0.0043
31648W        W74664  11.488   2.239  22.946 -0.1670 -0.0766  0.1905
31649W        W74665   0.132   0.591  27.475  0.0516 -0.0120  0.1499
31650W        W74666  29.350  24.149  16.564 -0.3351 -0.1218  0.0647
31651W        W74667  32.283  27.376   9.895  0.0127  0.0972 -0.0093
31652W        W74668  15.557   3.161  21.832  0.0008  0.0899  0.1714
31653W        W74669  11.261  22.489  20.975 -0.0946  0.4670  0.0973
31654W        W74670  24.273  33.400  28.721  0.1237 -0.2451  0.1605
31655W        W74671  29.485  34.312   0.575  0.0276  0.1157  0.1168
31656W        W74672  33.986   9.487  22.410  0.1032 -0.0551 -0.0078
31657W        W74673   4.079  30.231  17.285 -0.4245 -0.3081  0.0027
31658W        W74674   5.057  32.821  17.059  0.2676 -0.2403 -0.2803
31659W        W74675  30.939  23.689  16.317 -0.0862  0.2015 -0.2121
31660W        W74676   6.091  19.385  14.546  0.0817  0.0216  0.1169
31661W        W74677  26.844  30.412  16.447  0.0340  0.1529 -0.0294
31662W        W74678   6.310  23.291  18.235 -0.0956  0.1500 -0.2111
31663W        W74679   6.270  29.536  16.265 -0.3409 -0.3105  0.1580
31664W        W74680  14.058  31.409  17.224 -0.1204 -0.0494 -0.0978
31665W        W74681  10.036  31.719  26.518  0.1226 -0.0589  0.0309
31666W        W74682   6.345  22.774  14.893  0.0132  0.0114 -0.0678
31667W        W74683   4.445  25.111  28.101  0.1368  0.2893  0.2220
31668W        W74684  29.049   8.488  21.452 -0.3562  0.0800 -0.1292
31669W        W74685  21.804  27.188  20.804 -0.0368 -0.0082 -0.4402
31670W        W74686   5.871  21.230  16.352  0.0464  0.0609 -0.3226
31671W        W74687  25.911  21.751  17.023  0.2762  0.2724 -0.0751
31672W        W74688   6.803  24.871  14.366 -0.0777 -0.1821 -0.3650
31673W        W74689   5.722   6.372   3.164 -0.3055 -0.2663 -0.1686
31674W        W74690  13.468  24.863  14.244 -0.1599 -0.1247  0.0835
31675W        W74691  28.519  25.242  18.153 -0.2075  0.0031  0.0325
31676W        W74692  32.047  30.582  21.589  0.2223 -0.1165 -0.3768
31677W        W74693   5.936  12.865  25.453 -0.0809 -0.0740  0.0556
31678W        W74694  12.466  20.289  21.309  0.0747  0.4544 -0.1018
31679W        W74695   6.963  21.681  24.580  0.0093  0.0105  0.3717
31680W        W74696  21.143  25.764   5.863  0.1154  0.2945 -0.0882
31681W        W74697  10.551   9.679  23.638  0.0978 -0.0274  0.1642
31682W        W74698  25.242  31.211  26.367 -0.0638 -0.0649  0.0143
31683W        W74699  13.794  22.088  16.717  0.1821  0.4656  0.4189
31684W        W74700   4.193  31.283  18.865 -0.0172  0.2923 -0.0313
31685W        W74701  11.150  24.216  23.087  0.3656  0.0206 -0.1352
31686W        W74702  12.637  23.581  18.093 -0.1634  0.2503  0.0858
31687W        W74703  10.700  12.340  28.830  0.0735 -0.1302 -0.0890
31688W        W74704   7.073   3.613  22.952  0.1669 -0.1298  0.1767
31689W        W74705   0.998  26.572  18.166  0.2413  0.0865  0.2191
31690W        W74706  28.298  24.768  21.673  0.0580 -0.2724 -0.0699
31691W        W74707   5.346  19.560  22.510  0.1901 -0.0331  0.1440
31692W        W74708  33.105  27.131  14.343 -0.0081  0.0726  0.0616
31693W        W74709   4.056   2.516   5.982 -0.2332 -0.0412 -0.1136
31694W        W74710   2.728  32.326   3.933 -0.1709 -0.0571  0.1935
31695W        W74711   9.942   2.050  17.103  0.3837 -0.0569  0.0222
31696W        W74712  29.289  15.700  27.350 -0.0992  0.0348  0.0563
31697W        W74713  34.681  13.983  20.324 -0.0008  0.1032  0.0782
31698W        W74714  26.527  28.983  24.859  0.1726  0.0610  0.0900
31699W        W74715   8.834   6.166  17.747  0.0207 -0.1084 -0.1948
31700W        W74716  11.709   1.170  19.874 -0.3891  0.2967  0.2445
31701W        W74717   9.692  33.908  15.713  0.0129  0.2474 -0.2212
31702W        W74718   8.643  25.845  24.585 -0.2705 -0.4405  0.2381
31703W        W74719  10.983   4.191  27.916 -0.2717 -0.2692  0.1550
31704W        W74720   4.357  29.641  18.941 -0.2635 -0.2207  0.4548
31705W        W74721  19.567  33.704  19.415 -0.2202 -0.2522 -0.0305
31706W        W74722  16.150  20.644  14.498  0.1493 -0.1889  0.1617
31707W        W74723  10.081  31.429  27.289  0.1622  0.1825 -0.1102
31708W        W74724   1.822  25.452  23.080 -0.0404  0.1144  0.0553
31709W        W74725   1.731  19.283  14.213  0.2424  0.0494  0.1169
31710W        W74726   9.259  17.574   0.858 -0.0456 -0.1244 -0.1309
31711W        W74727  12.896  14.376  13.560 -0.2144  0.1278 -0.2853
31712W        W74728   2.221  10.736  26.347 -0.2743  0.0182  0.1274
31713W        W74729  11.529   4.219  27.171  0.1847  0.1056  0.1871
31714W        W74730   6.868  28.402  23.961 -0.1560  0.2302 -0.3147
31715W        W74731  15.122  22.707  14.131 -0.1776  0.1426 -0.0135
31716W        W74732  33.556  33.125  16.997 -0.0805  0.1345 -0.3089
31717W        W74733   7.782  25.504  17.326 -0.1550  0.0532 -0.0352
31718W        W74734  29.350   2.047  16.849 -0.1168 -0.0212  0.1573
31719W        W74735  16.541  28.884   4.654 -0.1638  0.1685 -0.0774
31720W        W74736   0.510   6.971  18.754  0.0399 -0.1993  0.0671
31721W        W74737  15.212  27.622  19.625 -0.3495 -0.0404  0.0494
31722W        W74738   6.393  17.061   0.741  0.1209  0.0207  0.1211
31723W        W74739  25.579   0.043  23.973  0.0892  0.2260  0.0602
31724W        W74740   6.545  29.879  18.968  0.1684 -0.2909  0.0813
31725W        W74741   3.025  32.514  28.876 -0.0363  0.0323  0.1374
31726W        W74742   9.745  31.547  15.737  0.1956 -0.0661  0.1084
31727W        W74743  16.005   5.015  18.394 -0.1555 -0.1512  0.1791
31728W        W74744  10.323  28.543  27.895 -0.0605 -0.0171 -0.0834
31729W        W74745  21.169  23.193  19.916  0.0870 -0.0125 -0.2981
31730W        W74746  22.289  28.017  17.100  0.1520  0.1166  0.0985
31731W        W74747   3.808  34.058  17.582  0.1439 -0.1036 -0.4153
31732W        W74748   4.753  22.773  22.505  0.2349  0.0655 -0.3889
31733W        W74749   8.645  33.741  16.796  0.1767  0.0362 -0.2559
31734W        W74750   8.409  16.638  13.999  0.2638 -0.1219 -0.1838
31735W        W74751   7.733  15.061   0.036  0.0624 -0.2584 -0.0799
31736W        W74752  20.166  28.307  20.031  0.3527  0.1058 -0.1780
31737W        W74753   4.881   9.194  23.015 -0.0956  0.1784 -0.0237
31738W        W74754  34.376  25.463  16.665  0.0867 -0.0684 -0.1215
31739W        W74755  29.567  21.340   4.684 -0.1196 -0.1362  0.2743
31740W        W74756  10.244   8.033  20.630  0.1741  0.0711 -0.0716
31741W        W74757   4.201  31.894  17.198  0.1863  0.2301 -0.0946
31742W        W74758   8.898   0.911  18.001 -0.1831 -0.0104 -0.3008
31743W        W74759  12.205  30.066  25.358  0.1483 -0.1286 -0.0292
31744W        W74760  12.437  17.150  20.339  0.3501  0.0575  0.2121
31745W        W74761   7.102   9.962  25.740  0.0245 -0.3225  0.3140
31746W        W74762  15.057  26.894  22.044 -0.0831 -0.1122  0.0601
31747W        W74763   0.199  25.958  23.624 -0.0045  0.3549 -0.1929
31748W        W74764  31.593  23.957  16.989  0.0308 -0.0278  0.1417
31749W        W74765  10.003  27.808  15.921  0.0089 -0.4620 -0.0168
31750W        W74766   9.992  30.856  21.097 -0.0384  0.0972  0.3096
31751W        W74767   3.444  32.431  13.922  0.0928 -0.2137  0.2128
31752W        W74768   4.865  29.209  21.418 -0.2080 -0.1718  0.0275
31753W        W74769  32.746  17.297  19.804 -0.1627 -0.0573 -0.1730
31754W        W74770  25.354   2.500  22.368 -0.0328  0.0061 -0.0876
31755W        W74771   5.689  21.482  17.983 -0.3778  0.1011  0.3692
31756W        W74772   7.800   9.904  26.107  0.3640 -0.2862  0.0254
31757W        W74773  14.669  26.853  17.970  0.2617  0.0557 -0.0099
31758W        W74774  15.801   4.903  19.242 -0.2859  0.1212 -0.1935
31759W        W74775   4.488   9.806  26.871  0.2871  0.0020 -0.1525
31760W        W74776   6.770  32.667  24.922 -0.3217  0.1000 -0.1574
31761W        W74777   5.548  24.167  21.588  0.2731 -0.0464 -0.3472
31762W        W74778  15.816  32.348   9.022 -0.0086 -0.0101  0.1047
31763W        W74779   9.867  33.677  19.653  0.0304 -0.1750 -0.0020
31764W        W74780  15.464   2.743  18.551 -0.2760 -0.2794  0.2405
31765W        W74781   4.827  27.755  17.777  0.0316  0.1412 -0.1112
31766W        W74782  28.757  15.400  14.021 -0.6083 -0.2538 -0.0789
31767W        W74783   6.942  29.142  17.323  0.3366  0.1310  0.1595
31768W        W74784   2.137  31.596  27.154 -0.3138 -0.0308 -0.2239
31769W        W74785  20.650   3.117  24.897  0.4400  0.1014  0.2423
31770W        W74786  33.260  16.618  15.754  0.1692  0.0036 -0.1316
31771W        W74787   3.033   3.017  22.214 -0.1190  0.0821  0.0825
31772W        W74788  11.694  27.457  18.977  0.1701  0.0893 -0.1150
31773W        W74789   8.117  31.473  19.314 -0.1586  0.1058  0.1534
31774W        W74790  16.659  22.456  14.662  0.0415 -0.0629 -0.0196
31775W        W74791  16.204  15.631  25.304 -0.0194 -0.1508  0.0435
31776W        W74792  30.261  29.607  16.133 -0.1409  0.0132 -0.0927
31777W        W74793  12.475   3.655  14.514 -0.1219  0.0928 -0.0796
31778W        W74794   1.265   0.384  23.037 -0.1634 -0.0060 -0.4455
31779W        W74795  11.727  25.543  19.625  0.1467  0.2034  0.1020
31780W        W74796   5.321  16.179  16.858 -0.2649 -0.0827  0.1313
31781W        W74797  13.292  14.962  11.949  0.1321 -0.2221 -0.1967
31782W        W74798   2.934  30.780  25.594  0.0506  0.1178 -0.0451
31783W        W74799   0.846  24.409  14.480 -0.2384 -0.1572 -0.0618
31784W        W74800   3.565   0.939  21.607 -0.2458  0.1196  0.1167
31785W        W74801  25.558  12.749  19.124 -0.0979  0.0050 -0.3353
31786W        W74802  23.670  13.111  18.199  0.1895  0.0570 -0.2970
31787W        W74803  27.102  12.956  16.991 -0.1335 -0.2110 -0.2224
31788W        W74804   7.352   3.398  22.385  0.2627  0.0031  0.1279
31789W        W74805  10.471  19.920  13.991 -0.1197  0.1475  0.0664
31790W        W74806  32.163  30.998  19.998 -0.2871 -0.0236 -0.2341
31791W        W74807  32.588  15.650  23.151  0.1132 -0.0912 -0.0519
31792W        W74808  10.253   0.514  27.511  0.2283 -0.0272  0.1549
31793W        W74809   7.863  21.288  16.941 -0.0649  0.0413  0.2229
31794W        W74810  10.895  16.767   0.310 -0.1100  0.0524 -0.0897
31795W        W74811   3.706  30.692  17.091 -0.0999  0.2746 -0.2489
31796W        W74812   0.643  34.341  19.653 -0.0731  0.0183 -0.2247
31797W        W74813   9.323  21.299  20.529 -0.0414 -0.2100 -0.3493
31798W        W74814  25.864  27.598   2.022  0.0622  0.1245 -0.0524
31799W        W74815  31.659  23.950  20.701 -0.1871  0.0371 -0.0684
31800W        W74816  31.307  29.012  23.780  0.1195 -0.0891  0.2971
31801W        W74817  15.280  22.234  20.232 -0.1997 -0.0371  0.1409
31802W        W74818  21.532  33.739  15.524  0.0769  0.1194  0.0766
31803W        W74819   4.063  20.656  16.091 -0.3840 -0.1550 -0.1950
31804W        W74820  15.757  29.988  19.335  0.0889 -0.0115  0.3910
31805W        W74821   7.254  25.826  21.296 -0.0994  0.1139  0.0228
31806W        W74822   3.410  15.984  18.017 -0.1835  0.0501  0.1551
31807W        W74823  21.984  30.451  28.021  0.1424  0.0088 -0.1140
31808W        W74824  28.865   0.881  16.588  0.0257  0.0923 -0.0493
31809W        W74825   7.254  14.335  14.905 -0.0070  0.1393 -0.2754
31810W        W74826  15.266  28.264  29.158 -0.1175  0.2036  0.0499
31811W        W74827  28.157  14.027  16.023  0.0613  0.3062  0.2801
31812W        W74828   4.454  12.635  16.112  0.1693 -0.2045  0.0032
31813W        W74829   7.607   6.989  25.009 -0.1626 -0.1984 -0.0935
31814W        W74830  31.364  23.595  17.779  0.0957 -0.2926  0.1509
31815W        W74831  10.694  29.932  26.164 -0.2549  0.2856 -0.2920
31816W        W74832   4.499  34.027   3.747 -0.4186  0.0424 -0.2693
31817W        W74833  20.225  10.959  17.468 -0.0741  0.1121 -0.1373
31818W        W74834  19.147   3.977  20.931  0.0804  0.0344 -0.1528
31819W        W74835  13.602  27.266  28.016 -0.2525 -0.1139 -0.0769
31820W        W74836  19.594  23.694  28.780  0.3525 -0.1461  0.3742
31821W        W74837  18.657  30.890  22.832 -0.0123 -0.1145  0.1462
31822W        W74838  32.274  25.842  19.659  0.2970 -0.0677 -0.6120
31823W        W74839  21.343  25.376  24.446 -0.4204 -0.0439 -0.0698
31824W        W74840  34.034  31.244  15.310  0.0672  0.2708 -0.0299
31825W        W74841  20.384  33.428  27.971 -0.2860 -0.1365 -0.3750
31826W        W74842  15.995   4.707  14.153 -0.0891  0.2241 -0.2536
31827W        W74843  22.169   4.479  22.404  0.3806 -0.1719 -0.1489
31828W        W74844  11.360   3.744  22.695 -0.1281  0.1903  0.0087
31829W        W74845  10.086  30.171  17.221  0.2907 -0.0092 -0.5011
31830W        W74846  25.728  28.771  19.203 -0.1623  0.0282  0.1594
31831W        W74847  15.651  31.695  23.776 -0.0187  0.1289 -0.1387
31832W        W74848   0.919  23.832  19.040  0.0226  0.0219  0.0062
31833W        W74849  17.786  32.604  27.405  0.0073 -0.0146  0.1273
31834W        W74850   1.999   1.818  13.839 -0.0463 -0.0172 -0.1920
31835W        W74851  27.163  19.117  17.806  0.0415  0.2614  0.1117
31836W        W74852  11.967  20.624  23.187  0.2883 -0.0669 -0.5502
31837W        W74853  34.416  11.739   1.085  0.3670 -0.2353  0.2455
31838W        W74854  32.872  21.846  25.477  0.0562  0.2200 -0.2260
31839W        W74855  30.935  13.477  20.964  0.0969  0.0231  0.1365
31840W        W74856  16.669  12.614  17.282 -0.1181  0.0061  0.0729
31841W        W74857   1.685  13.027  27.876 -0.0613 -0.0141  0.0197
31842W        W74858  30.299  25.596  27.028  0.1313 -0.3769  0.3082
31843W        W74859   0.622  30.071  16.611 -0.0080  0.1227  0.1588
31844W        W74860  30.773  13.617   8.334  0.0151 -0.2179 -0.0558
31845W        W74861  24.924  18.741  22.903 -0.0616  0.1624 -0.0103
31846W        W74862  12.822  27.561  15.336 -0.1360  0.1289  0.0586
31847W        W74863  17.207  27.775  22.288  0.1031  0.0711 -0.2223
31848W        W74864  10.735  28.767  29.169  0.0011  0.0715  0.0771
31849W        W74865   8.189   9.682  20.537 -0.2534 -0.1533  0.3185
31850W        W74866   8.793  28.006   7.314  0.1135 -0.0136  0.1309
31851W        W74867   1.340  24.790  15.115 -0.0141  0.0972 -0.1570
31852W        W74868  30.526  21.743   3.248 -0.1208  0.3434 -0.1053
31853W        W74869  17.707  22.920  19.960 -0.2921  0.1288  0.2879
31854W        W74870   0.731  33.614  23.666 -0.0792  0.1118  0.2617
31855W        W74871   5.815  19.297  17.044  0.0323  0.4186 -0.4278
31856W        W74872  15.266  20.091  20.212 -0.1332  0.1230 -0.0995
31857W        W74873  30.407  10.379  22.987 -0.1230 -0.2540  0.1553
31858W        W74874  12.054  33.048  15.548  0.0399 -0.2971 -0.3887
31859W        W74875  17.697  29.597  19.508  0.0121  0.0257 -0.3094
31860W        W74876  11.294   1.738  14.978  0.1730  0.2982 -0.0104
31861W        W74877  12.248   0.167  15.959  0.1643 -0.0478  0.0591
31862W        W74878  22.613  31.132  26.314 -0.0447 -0.0436  0.1105
31863W        W74879  31.795   0.623  26.048  0.0102 -0.0467 -0.1576
31864W        W74880  12.236   3.093   3.966  0.0524 -0.2331 -0.0621
31865W        W74881  17.732  32.105  18.379 -0.3546  0.1004 -0.0176
31866W        W74882  24.980  21.251  16.232 -0.0217  0.0832  0.3736
31867W        W74883  21.892  21.436   6.885  0.0760  0.0209  0.2310
31868W        W74884   2.498   9.794  14.622 -0.0400 -0.2210 -0.2012
31869W        W74885   8.486  17.558   3.749 -0.1918  0.0434 -0.1034
31870W        W74886  10.650  13.318  20.045  0.0006  0.2468 -0.1440
31871W        W74887   8.733  28.261  16.533 -0.1676  0.0785 -0.1987
31872W        W74888  27.387  27.567  27.710  0.2372  0.1064  0.0013
31873W        W74889   9.537  11.563   1.556  0.2599  0.1220  0.1972
31874W        W74890  14.045  19.281  26.131 -0.1165  0.1545 -0.1070
31875W        W74891   4.652  32.481  18.256  0.4896  0.1178 -0.3233
31876W        W74892  27.222  27.929   0.419  0.0988 -0.2224  0.0438
31877W        W74893   2.338   4.374  17.463 -0.0911  0.2420  0.0160
31878W        W74894   9.661  26.684  17.016  0.0025 -0.1339 -0.2163
31879W        W74895  16.198  18.098  11.987  0.1326  0.2716 -0.1746
31880W        W74896   3.663   8.827  23.834  0.1091 -0.2336 -0.0061
31881W        W74897  19.135  21.050  13.633  0.0243 -0.2474 -0.0011
31882W        W74898   6.887  14.620  27.424  0.5474 -0.0109  0.0802
31883W        W74899   1.072   8.398   0.934 -0.0493 -0.1615  0.0395
31884W        W74900   6.110  27.268  14.468  0.0312 -0.4235 -0.0840
31885W        W74901   3.092   2.892  18.847  0.1054 -0.0436  0.0199
31886W        W74902   9.019   3.299  21.484  0.0207 -0.4666 -0.0320
31887W        W74903   9.440  13.366  22.600 -0.1658 -0.1234 -0.0416
31888W        W74904   4.329  34.645  19.087 -0.0967 -0.2821  0.1758
31889W        W74905  17.481  22.623  23.863 -0.3831 -0.1399  0.0323
31890W        W74906  32.575  29.315  16.321 -0.5621 -0.1209  0.0383
31891W        W74907   0.896  32.048  28.076  0.1453  0.0375 -0.3358
31892W        W74908   3.688  20.452  20.958  0.1480 -0.4248  0.0688
31893W        W74909  16.530   2.351  16.308  0.0388  0.0196  0.0262
31894W        W74910   5.148  21.899  26.837 -0.1035  0.2158 -0.1767
31895W        W74911   0.645   8.744  28.006  0.1788  0.0813  0.3527
31896W        W74912  33.992  28.401  17.851  0.1685  0.0568  0.0478
31897W        W74913  31.874   1.334   8.493  0.1433  0.0212  0.1313
31898W        W74914   1.058  32.731  23.940  0.0412  0.0434  0.0185
31899W        W74915  10.781  31.435  21.424 -0.3571 -0.1805 -0.0391
31900W        W74916   8.089   5.613   2.063 -0.2415  0.0307 -0.0325
31901W        W74917   0.593  27.283  19.858 -0.0617  0.1126  0.0766
31902W        W74918   3.312  27.714   5.722  0.1895  0.1935  0.3236
31903W        W74919  34.182  24.958  20.778  0.0677 -0.1318 -0.2088
31904W        W74920   2.377  25.677  19.613  0.2473  0.1323 -0.0441
31905W        W74921  33.499  14.747  16.091 -0.0650  0.0222  0.2071
31906W        W74922   1.292   6.855   4.829  0.1448 -0.0603  0.5276
31907W        W74923  30.499  25.095  18.408  0.0850  0.0577  0.1271
31908W        W74924  26.286  27.542  21.090  0.1036 -0.0840 -0.0616
31909W        W74925  11.441  18.788  28.792 -0.2567  0.1777  0.0224
31910W        W74926   5.808   8.140  28.265 -0.1236  0.1034  0.2616
31911W        W74927   4.015  18.284   6.921  0.2150 -0.2739 -0.2936
31912W        W74928  16.076  30.660  15.892 -0.0017 -0.3188  0.0736
31913W        W74929  14.587  24.192  16.678 -0.1126 -0.2758 -0.1373
31914W        W74930  33.521   3.361  18.828 -0.0254 -0.0149 -0.3655
31915W        W74931   0.331  10.061  14.883 -0.1727  0.0675 -0.0488
31916W        W74932  23.315  28.939  19.198  0.0913  0.2811 -0.4826
31917W        W74933  29.053  22.944   1.191  0.3594 -0.3316 -0.0546
31918W        W74934   6.227  27.236  15.840 -0.0189  0.1960  0.2890
31919W        W74935   4.579  34.122  26.374  0.0080 -0.1679 -0.2866
31920W        W74936  21.782  21.893  17.945  0.1700 -0.2128  0.2818
31921W        W74937   6.274  14.462  26.777  0.6124 -0.1649 -0.0504
31922W        W74938  10.189  29.243  21.677  0.0469 -0.2826 -0.0055
31923W        W74939   3.938  27.392  23.173 -0.0530 -0.0494 -0.2870
31924W        W74940   1.999  28.942  21.758  0.0021 -0.2157 -0.2800
31925W        W74941  29.333  20.131  15.377 -0.0230  0.1124  0.2744
31926W        W74942   7.284   1.287  14.946 -0.1814 -0.0007  0.0800
31927W        W74943   7.208   0.133  27.278  0.2119  0.1392  0.0298
31928W        W74944  28.474   0.395  22.905  0.3518  0.0267 -0.2859
31929W        W74945   1.689  22.359  22.840 -0.0616 -0.2985 -0.1706
31930W        W74946  27.030   3.894  19.344  0.1337  0.1230  0.1339
31931W        W74947   0.043  26.349  18.996 -0.1199 -0.1421  0.0824
31932W        W74948  10.837  32.702  14.764  0.0239 -0.0006  0.4094
31933W        W74949  15.102  34.142  22.921  0.3730  0.1211 -0.0999
31934W        W74950   6.814   7.417  16.352 -0.2546 -0.1208  0.1098
31935W        W74951  20.647  27.440  16.264  0.1786 -0.4231  0.2073
31936W        W74952   7.990  24.168  15.011  0.0812  0.0085 -0.1469
31937W        W74953  11.851  30.875  16.932 -0.0968 -0.0958  0.1423
31938W        W74954   2.755  22.131  21.455 -0.1460  0.1158 -0.0519
31939W        W74955  19.864  34.135   2.633 -0.1477  0.4393 -0.0365
31940W        W74956   6.060  33.601  23.675 -0.2396 -0.0182  0.0454
31941W        W74957   3.444  21.281  22.565 -0.0012  0.3106 -0.2452
31942W        W74958   9.136  29.999  24.959  0.1306  0.2224  0.0188
31943W        W74959  10.441  26.947   2.221  0.1405 -0.4648  0.2393
31944W        W74960  11.275  17.346  11.684 -0.0932  0.0170 -0.0300
31945W        W74961   7.281  24.371   1.809 -0.1494 -0.0761  0.2438
31946W        W74962  30.916   6.154   1.151  0.0484 -0.1534 -0.1493
31947W        W74963  12.392  33.985   3.868 -0.0662 -0.1103  0.0049
31948W        W74964  33.745  18.826  15.539  0.0054 -0.0103  0.1028
31949W        W74965  13.091  22.276   1.808 -0.2796  0.1002 -0.2081
31950W        W74966   7.655   2.576   0.318 -0.0143 -0.0384 -0.2052
31951W        W74967   3.787  30.533   5.181  0.1125 -0.1987 -0.0477
31952W        W74968  13.884   7.149  13.469  0.1630 -0.0325  0.5013
31953W        W74969   6.649  22.805  15.908  0.2452 -0.2424  0.1340
31954W        W74970  13.923  16.683  14.610 -0.2018  0.1983  0.1084
31955W        W74971  15.946  20.170  21.418  0.0383 -0.1647  0.3882
31956W        W74972   9.853  19.586  22.215 -0.0671 -0.1620 -0.0533
31957W        W74973  32.654  27.829   4.778 -0.2174  0.0735  0.0263
31958W        W74974  11.467  26.554   9.605 -0.3207 -0.3239 -0.0631
31959W        W74975   2.566  31.426  18.567 -0.2818  0.1928  0.1645
31960W        W74976   8.755  11.547   4.871  0.1100  0.1888  0.2729
31961W        W74977   3.355  32.272  26.876  0.0910  0.2975  0.4369
31962W        W74978   0.728  24.611  16.834  0.2041  0.0779 -0.0790
31963W        W74979   4.479  31.020  17.707  0.0784 -0.1232  0.1980
31964W        W74980  23.627  13.780  18.472 -0.0419 -0.0384  0.1342
31965W        W74981  14.180  31.314  14.143 -0.0138 -0.0033  0.1242
31966W        W74982  10.577  28.578   0.962  0.3097 -0.2604  0.2032
31967W        W74983   2.536  28.292  20.240  0.0527  0.2075 -0.2662
31968W        W74984  25.309   8.173  19.291  0.2363 -0.2831 -0.0930
31969W        W74985   8.343   2.894  25.819 -0.0248  0.3724  0.2186
31970W        W74986   8.889  21.578  15.271  0.0804 -0.1483  0.1942
31971W        W74987  16.043  25.237  20.207 -0.0732  0.0569  0.0671
31972W        W74988  31.079  30.888  11.400  0.0811  0.2313  0.0138
31973W        W74989   9.225  22.964  21.376  0.3234 -0.3036 -0.1831
31974W        W74990  22.143  27.693  18.032 -0.0852 -0.0188 -0.2430
31975W        W74991  28.788  31.406   0.414  0.1586 -0.0886  0.2605
31976W        W74992   2.385  26.906   2.086  0.1910  0.1630  0.0545
31977W        W74993  15.974  20.696  15.037  0.0680  0.1640  0.1883
31978W        W74994  17.905  28.166  22.427 -0.2725  0.1109  0.2824
31979W        W74995  13.538   8.512  16.636 -0.1830  0.4471 -0.0691
31980W        W74996  16.926   0.640  19.589 -0.0336  0.3219  0.0137
31981W        W74997   8.632  17.366  23.087  0.0015  0.0490 -0.0130
31982W        W74998   7.515  26.283  13.161 -0.3065 -0.0744  0.0016
31983W        W74999  34.727  23.481  22.335 -0.2296  0.0588  0.0252
31984W        W75000   1.819   0.928  13.824 -0.1755 -0.2962 -0.0438
31985W        W75001   5.757  25.322  14.397 -0.0037  0.1879 -0.0150
31986W        W75002   9.333  26.374  14.281  0.0740 -0.2564 -0.0172
31987W        W75003  14.514  27.488  22.211 -0.0286 -0.0800 -0.0902
31988W        W75004  22.143  32.959  19.280  0.3233 -0.0964  0.1905
31989W        W75005  34.574  34.312  16.782  0.1621  0.1802 -0.1716
31990W        W75006  15.308  10.697  20.168  0.0970 -0.0074 -0.4295
31991W        W75007  15.628  23.435  23.560 -0.3233 -0.1087  0.1393
31992W        W75008  10.507  20.223   0.990 -0.3835 -0.0020 -0.1191
31993W        W75009  12.664  24.837  26.647  0.1314 -0.2448 -0.4344
31994W        W75010  12.649   0.934  19.146  0.1866  0.1035 -0.1061
31995W        W75011   3.061   5.466  27.788  0.0559  0.0105 -0.0583
31996W        W75012  11.128  23.352   5.567  0.1149 -0.0745 -0.0142
31997W        W75013  32.161   3.830  15.879  0.0345 -0.1161  0.1287
31998W        W75014   9.619  26.445  19.384 -0.2368  0.1791  0.5104
31999W        W75015   5.451  13.711  18.418  0.1265  0.3893 -0.0557
32000W        W75016  30.162  31.515  19.819  0.1852  0.0243  0.0843
32001W        W75017   6.547   0.074  15.436 -0.0593  0.1690  0.0005
32002W        W75018   7.599  26.702  18.487  0.1785 -0.3309  0.3807
32003W        W75019  31.839   8.763   6.204 -0.0461 -0.1444  0.0711
32004W        W75020  28.737  33.035  25.544  0.0833  0.1364 -0.2262
32005W        W75021  11.015  20.284  25.958  0.4727 -0.0632  0.0847
32006W        W75022  31.219   4.266   5.881  0.0051  0.1671 -0.2360
32007W        W75023   3.935   8.723  21.914 -0.1813 -0.2185 -0.2633
32008W        W75024   1.810  23.723  14.647 -0.3998 -0.0811 -0.1024
32009W        W75025  14.281  29.887  24.940  0.1717  0.0311  0.2728
32010W        W75026   9.727  30.236  16.188  0.1472 -0.0839 -0.0357
32011W        W75027  27.219   1.883   7.787 -0.1310 -0.2377 -0.2091
32012W        W75028  15.044  16.943  14.165  0.2146 -0.1221 -0.2400
32013W        W75029   2.135  28.586   7.246  0.1860 -0.2232 -0.1968
32014W        W75030   2.176  29.357  25.690  0.0372  0.4290 -0.5834
32015W        W75031   8.520   6.773  23.665  0.0657  0.1905 -0.2201
32016W        W75032   7.247   5.573  16.122  0.0264  0.2765 -0.0127
32017W        W75033   5.480  12.438  24.475 -0.3426 -0.2418  0.2752
32018W        W75034  10.640  18.672  12.312 -0.1455  0.0882 -0.1517
32019W        W75035   4.325  12.331  21.904 -0.1069  0.1312 -0.1498
32020W        W75036  32.227  11.430  26.809  0.2338  0.0356 -0.0261
32021W        W75037   2.168   6.708  25.329 -0.0547 -0.0215  0.0317
32022W        W75038   6.663  15.179   5.815 -0.2022 -0.1223  0.0377
32023W        W75039   1.689  33.421  18.062  0.3174 -0.1813 -0.0152
32024W        W75040  18.720   1.551  27.182  0.3485 -0.2049 -0.1758
32025W        W75041  29.383  30.160  22.583 -0.1469  0.2583 -0.1475
32026W        W75042   6.227  21.438  20.367 -0.2733  0.1444  0.0206
32027W        W75043  30.976   0.432  21.596  0.0635 -0.0924  0.1967
32028W        W75044   8.602  27.665  15.360 -0.0133 -0.0550 -0.1574
32029W        W75045  33.126  33.894  24.479  0.1909  0.3413 -0.2449
32030W        W75046  24.308  20.208  17.397  0.0265 -0.0114 -0.1461
32031W        W75047  29.535  27.510  22.144  0.0366 -0.1839  0.1287
32032W        W75048  29.863  21.746  17.547  0.1741 -0.0363 -0.2338
32033W        W75049  33.637   3.889  28.092 -0.5443 -0.0815 -0.2360
32034W        W75050  26.900   9.117   6.188  0.0632  0.2074 -0.1852
32035W        W75051  33.717  29.652   1.444  0.0271  0.0831  0.0993
32036W        W75052   4.856  14.183  15.482 -0.2435  0.0391  0.0489
32037W        W75053   0.596  31.026  20.647 -0.2742 -0.0962 -0.1354
32038W        W75054  13.810   9.605  19.453  0.0610  0.2317  0.0546
32039W        W75055  30.094  22.010  18.632  0.3291 -0.1105 -0.1500
32040W        W75056  23.102  33.064  23.848 -0.1667  0.1158 -0.0053
32041W        W75057  31.146   4.380  29.114 -0.0038 -0.2953 -0.1134
32042W        W75058  33.700  33.058  22.536 -0.1648 -0.3922 -0.0438
32043W        W75059   7.109   2.174  21.493 -0.3531 -0.0115  0.2557
32044W        W75060  10.768  30.486  24.300  0.0147  0.0569  0.1312
32045W        W75061   6.723  32.343  17.316 -0.2269 -0.2638 -0.0401
32046W        W75062   4.617  25.041  10.035  0.2644 -0.0568  0.2565
32047W        W75063  25.462  14.916  16.551 -0.0535  0.0752 -0.1651
32048W        W75064   0.040  31.376  26.136 -0.1392 -0.3715 -0.1087
32049W        W75065   6.202  29.630   2.711 -0.0270 -0.0546 -0.6249
32050W        W75066   9.543  26.317  22.908 -0.1182  0.0982 -0.1888
32051W        W75067  12.902  32.585   6.178 -0.3435 -0.0196 -0.4740
32052W        W75068   1.642  32.955   1.397  0.1933 -0.1015  0.2750
32053W        W75069   4.312  34.096  18.926  0.0033  0.2368 -0.0577
32054W        W75070   9.816  23.262  21.663 -0.0646  0.2221  0.1269
32055W        W75071  29.269  24.171  19.383  0.1397 -0.0718 -0.0004
32056W        W75072   1.602  18.567   0.654 -0.2712  0.2052 -0.1445
32057W        W75073   0.420  30.743  18.172 -0.1652 -0.0017  0.0398
32058W        W75074  24.293  32.692  17.702 -0.1793  0.0190  0.1181
32059W        W75075   5.629   1.249  22.049  0.1638  0.0621  0.2322
32060W        W75076  30.632  20.991  16.602 -0.0724  0.0413  0.0660
32061W        W75077   2.019  27.501   2.249  0.3105  0.1321  0.0945
32062W        W75078  16.994  32.808  19.090 -0.2916 -0.2069 -0.2280
32063W        W75079   3.375   2.138  23.055  0.1742 -0.2859  0.2364
32064W        W75080  18.076   2.543  22.904  0.3123 -0.3135 -0.0015
32065W        W75081   5.717  27.428   0.985 -0.2288 -0.2061  0.5135
32066W        W75082  16.799  21.808   3.464 -0.0687  0.0719  0.1423
32067W        W75083  24.726   0.159  15.477 -0.3818 -0.1628 -0.0111
32068W        W75084   0.600  29.399  26.603 -0.1050  0.0147 -0.0214
32069W        W75085   6.969  29.294  15.170  0.1757 -0.0320 -0.1500
32070W        W75086  32.918  26.144  20.392 -0.0110 -0.0168 -0.2263
32071W        W75087   3.280  30.651  15.692  0.2362  0.2049 -0.1767
32072W        W75088   7.923  22.503  14.139 -0.1544 -0.0150 -0.3638
32073W        W75089   4.950   0.125   4.266  0.0507  0.2258 -0.0196
32074W        W75090  27.715   8.640  28.283  0.0078 -0.0118  0.0120
32075W        W75091   4.131  22.415  14.059  0.2998 -0.0636 -0.0310
32076W        W75092  12.297  20.818  26.127 -0.1872  0.1888 -0.1623
32077W        W75093   3.972   0.045  22.799 -0.0434  0.1766  0.1494
32078W        W75094   2.553  19.830  23.521  0.3202 -0.1606  0.0662
32079W        W75095  23.955  34.210  29.288 -0.1693 -0.0731 -0.0554
32080W        W75096  30.089  19.159  20.673  0.0101  0.3725  0.0942
32081W        W75097  25.391  13.754  16.665  0.1212 -0.1901 -0.2443
32082W        W75098  24.114  20.050   4.338 -0.0210  0.2181  0.3516
32083W        W75099   0.946  21.165  29.135  0.0488 -0.0863  0.2386
32084W        W75100  25.105  27.223  27.860  0.0802 -0.3518  0.0763
32085W        W75101  18.663  22.433  16.782 -0.0482  0.0591  0.1449
32086W        W75102  12.995  21.921  18.915 -0.0716 -0.1082  0.1081
32087W        W75103  10.451  20.677  23.399 -0.0712 -0.2099 -0.0880
32088W        W75104   4.842  23.195  26.694 -0.2490 -0.2488  0.2697
32089W        W75105  34.538  28.241  18.100 -0.2165 -0.0176  0.3345
32090W        W75106  32.569  12.057  18.022 -0.1377  0.1120 -0.4279
32091W        W75107  13.587  27.019  24.879 -0.2814  0.0201  0.0856
32092W        W75108  31.230  12.753  18.716 -0.1325  0.0059  0.1598
32093W        W75109  30.093  21.632  17.092 -0.4454 -0.1927  0.0637
32094W        W75110   9.781  16.343   5.098 -0.2481  0.0394 -0.1998
32095W        W75111   3.339  23.567   2.057 -0.1056 -0.1048 -0.1504
32096W        W75112   5.190  29.968  26.252 -0.2450  0.2034 -0.0697
32097W        W75113  32.093   8.318  20.600  0.2223  0.3880 -0.2980
32098W        W75114  11.439  24.066  23.596  0.2713 -0.0092  0.0505
32099W        W75115   7.666  28.613  29.121 -0.0203 -0.2263  0.1208
32100W        W75116   4.321  27.630  18.560 -0.1812  0.0364  0.1348
32101W        W75117  28.113  33.974   0.178 -0.1460 -0.0225  0.0349
32102W        W75118   2.135  27.127  16.819 -0.1152 -0.3413 -0.2464
32103W        W75119   0.386   1.297  28.738 -0.0883  0.0687  0.0537
32104W        W75120   3.562  23.117  21.505 -0.2613 -0.1747 -0.1878
32105W        W75121   0.399   0.078  24.516 -0.1868  0.6545  0.0709
32106W        W75122  14.280  26.094   4.379  0.1725 -0.1808  0.4662
32107W        W75123  33.526   1.466   2.547  0.1406  0.0900 -0.0837
32108W        W75124   9.007  26.963  15.524 -0.3265  0.1166 -0.2555
32109W        W75125  25.561  17.478  17.614 -0.1646  0.0960 -0.0900
32110W        W75126   3.728   7.006   7.013 -0.1213  0.0231 -0.2320
32111W        W75127   5.222  29.163  15.506 -0.1645 -0.1703 -0.0413
32112W        W75128   6.478  33.584  14.069  0.1308 -0.0892 -0.1896
32113W        W75129  20.946   0.552  21.831  0.2668  0.0350  0.1845
32114W        W75130   8.082  16.364  13.368 -0.0426 -0.0644 -0.2108
32115W        W75131  29.377  25.030  15.520  0.2246  0.0038  0.2238
32116W        W75132  33.018  30.775   3.058 -0.1443  0.0778  0.2786
32117W        W75133  32.963  21.686  19.973  0.0943 -0.1981 -0.0233
32118W        W75134  18.260   1.564  16.417 -0.3519 -0.0710  0.0387
32119W        W75135   5.738  23.414  14.665 -0.1426  0.0578  0.0734
32120W        W75136   2.869  27.276  18.439 -0.0308  0.1564  0.1073
32121W        W75137  29.347   6.380  15.904 -0.1657  0.0284  0.1762
32122W        W75138   9.416  27.155  15.766 -0.3030 -0.1468 -0.3463
32123W        W75139  32.226   4.539   9.206 -0.0053 -0.1210 -0.0417
32124W        W75140   9.787  22.187  27.420  0.2150  0.0962  0.2185
32125W        W75141  34.568  26.494  28.195  0.0639 -0.3182  0.0973
32126W        W75142  30.300  28.457  19.176  0.5088 -0.3121  0.2457
32127W        W75143   5.669  27.615  19.731  0.1438  0.2191 -0.0231
32128W        W75144   2.221  28.709   3.692 -0.0976 -0.2460 -0.1619
32129W        W75145   4.932  27.070   4.715 -0.1301  0.3282  0.1773
32130W        W75146   3.901  14.916   0.264  0.2413 -0.0558 -0.1545
32131W        W75147   7.732   1.899  21.374 -0.0136 -0.0204 -0.1182
32132W        W75148   1.039  28.768  16.382 -0.0075 -0.3030  0.0371
32133W        W75149  31.391   5.824  27.129  0.0380  0.0836  0.3962
32134W        W75150  14.206   9.610  21.771 -0.0997 -0.2242 -0.0613
32135W        W75151  12.205   1.921  16.946 -0.1317  0.1178 -0.0879
32136W        W75152   1.280  31.740  27.273  0.1721  0.1626  0.1659
32137W        W75153  13.774  12.737  23.599  0.2111  0.0100 -0.0895
32138W        W75154   4.587  31.767  14.647 -0.0237  0.0028 -0.0874
32139W        W75155  12.461  20.653  23.108 -0.0200 -0.0218 -0.0734
32140W        W75156  17.140  31.933  28.487 -0.1788 -0.0378  0.2675
32141W        W75157  12.295   7.694  23.597  0.1227 -0.1111  0.1739
32142W        W75158  17.119  32.729  25.648 -0.0335 -0.1689 -0.2652
32143W        W75159  28.987  26.625  20.896 -0.1883 -0.0120  0.1424
32144W        W75160  27.064  34.377  17.724 -0.0031 -0.1523 -0.1842
32145W        W75161   4.214  31.351   1.972  0.2001  0.0306 -0.0301
32146W        W75162   4.951  23.353   3.554  0.1145 -0.2300 -0.1931
32147W        W75163  30.486  28.501  23.705  0.2076  0.3069 -0.3885
32148W        W75164   5.283   9.502  15.996  0.0526  0.2297  0.1332
32149W        W75165   1.639  20.738  19.441  0.1575  0.3680  0.2164
32150W        W75166   4.289  22.446  16.753  0.2704  0.1649  0.2583
32151W        W75167  18.843  26.253  21.365  0.0200  0.0398  0.1655
32152W        W75168   8.673  25.596  20.675  0.6351 -0.2957 -0.0386
32153W        W75169   1.844   1.829  19.669  0.0048 -0.0172  0.0340
32154W        W75170  17.018  34.281  21.072 -0.0784  0.0696  0.3365
32155W        W75171   2.917   4.254  14.898 -0.2718  0.0423 -0.2365
32156W        W75172   3.454  27.854  22.582 -0.2513  0.3737  0.1161
32157W        W75173  12.891  30.231  28.058 -0.3185  0.2513  0.1262
32158W        W75174  13.990   7.146  16.124 -0.1883  0.1221  0.1849
32159W        W75175  31.115   7.747  26.828 -0.1305  0.2270 -0.1005
32160W        W75176   1.378  18.770  24.134  0.0791  0.1574  0.1634
32161W        W75177   2.206  23.508  17.890 -0.1773  0.2678  0.2772
32162W        W75178  31.691  19.040  17.377 -0.0617  0.1612  0.2456
32163W        W75179  10.680  23.543  24.035  0.2953  0.1610  0.0851
32164W        W75180  25.926  27.066   9.394  0.1228 -0.0985 -0.0129
32165W        W75181   2.092  34.686  17.408  0.1311 -0.1102 -0.0318
32166W        W75182  31.745  18.851   7.347  0.0128  0.1402  0.1458
32167W        W75183   4.498  31.672  21.009  0.6486 -0.2482  0.0889
32168W        W75184  23.252   0.056  16.640 -0.2483  0.1722  0.2682
32169W        W75185  33.024   5.595  19.867 -0.1172  0.4354  0.0034
32170W        W75186   0.353  13.507  23.917 -0.0176 -0.0522 -0.0072
32171W        W75187  13.212   4.983   0.048 -0.2251  0.1584  0.0339
32172W        W75188  28.939   0.432  16.884  0.1008 -0.1416 -0.2883
32173W        W75189  23.748  19.741  13.927 -0.0409 -0.0277 -0.0227
32174W        W75190  30.780  21.813  16.466  0.0735 -0.1712  0.0891
32175W        W75191   6.686   5.910  19.537 -0.0912 -0.1978 -0.1243
32176W        W75192   2.113  22.493  17.102  0.1380  0.1913  0.2084
32177W        W75193   5.677  19.649  19.992  0.2553 -0.2913 -0.0470
32178W        W75194   4.042   3.608  18.199  0.1084 -0.0167 -0.0846
32179W        W75195   5.609  26.354  23.135  0.0228  0.1213  0.5010
32180W        W75196   0.297   3.011  21.364 -0.0518  0.2015 -0.0973
32181W        W75197   2.286   3.710  19.007  0.0326 -0.5148 -0.0809
32182W        W75198  18.871  27.911  23.432  0.2824 -0.2084  0.3024
32183W        W75199  20.415  31.493  24.485 -0.1348  0.0598 -0.1290
32184W        W75200   0.441  18.086   1.723  0.0972 -0.0707 -0.0678
32185W        W75201   7.247   3.125  28.051  0.3058  0.1522  0.0587
32186W        W75202  11.715  19.866  20.945 -0.0629 -0.2044 -0.0161
32187W        W75203  28.659  29.885  19.427 -0.2302 -0.2396  0.0562
32188W        W75204  24.849  26.646   4.832  0.0276  0.1241  0.1729
32189W        W75205  14.341  30.193  21.658  0.1684 -0.0443 -0.0408
32190W        W75206   5.139   0.184  22.440 -0.1328  0.2136 -0.0706
32191W        W75207  24.008  28.419  23.019 -0.0160  0.1267  0.1566
32192W        W75208   0.688  20.440  19.642 -0.1384 -0.0818  0.3279
32193W        W75209  15.949  16.115  15.812  0.0315  0.1349 -0.3524
32194W        W75210  31.138  18.533  19.637 -0.1441 -0.0164  0.2281
32195W        W75211  13.356  27.607  15.441  0.2203 -0.4276 -0.0724
32196W        W75212  33.987  31.228   1.152 -0.0451  0.0610  0.0277
32197W        W75213  23.074  28.742   3.497  0.0207 -0.0079 -0.1293
32198W        W75214  14.386  12.957  13.240  0.3283  0.2583 -0.1028
32199W        W75215  12.024  30.372  24.299  0.3539 -0.0756 -0.2150
32200W        W75216  33.526  32.000  20.811  0.0682 -0.1341  0.3476
32201W        W75217  10.706  24.979  22.590  0.1259  0.2329 -0.2696
32202W        W75218   3.694   1.504  15.979 -0.0653 -0.3076 -0.2269
32203W        W75219   6.291  21.356  21.573  0.0131  0.1230 -0.1384
32204W        W75220   0.779  34.737   4.729 -0.3267 -0.0168 -0.1064
32205W        W75221   2.241  30.466  15.654  0.0254 -0.0931  0.2208
32206W        W75222  29.391  30.987  23.763  0.1399  0.0568 -0.1131
32207W        W75223   4.855  10.163  15.303  0.4829  0.1718 -0.0511
32208W        W75224   8.786  19.769   3.470  0.1617  0.3008  0.0935
32209W        W75225   6.197  10.452  23.343 -0.0340  0.0269 -0.3008
32210W        W75226  22.966  31.553  16.427 -0.1395  0.2872 -0.1138
32211W        W75227  10.031  24.770  22.718  0.2198 -0.2397  0.2994
32212W        W75228   1.665  21.185  26.252  0.3367  0.2301  0.0478
32213W        W75229  23.078   0.161  19.078 -0.1312 -0.1444  0.0033
32214W        W75230   2.064  32.560   1.129 -0.1019  0.5020 -0.1472
32215W        W75231  16.572  34.290  20.849  0.2867  0.1458 -0.0814
32216W        W75232  16.538  18.520  13.246  0.2441 -0.1468 -0.1072
32217W        W75233  15.714   6.994  23.263 -0.0382  0.0921 -0.3426
32218W        W75234   7.111  20.460  27.395  0.1745  0.2549  0.0918
32219W        W75235  31.187  23.130  20.086  0.1702  0.0961 -0.0510
32220W        W75236  17.068   0.188  23.740 -0.1186  0.1137  0.0547
32221W        W75237   4.652   3.103   6.880  0.0588 -0.1097  0.0903
32222W        W75238  25.592  27.404  24.973  0.1163 -0.4472 -0.2065
32223W        W75239   7.317  30.649   2.792 -0.2493  0.2989 -0.0384
32224W        W75240  14.002  32.944  21.954 -0.0447  0.0277 -0.0032
32225W        W75241   3.462  24.543  15.703 -0.1538 -0.0458 -0.1686
32226W        W75242  16.286  31.782  25.142 -0.0560  0.1448  0.0769
32227W        W75243  26.618  20.535  19.211 -0.0833  0.0638 -0.1522
32228W        W75244  19.884  21.175  21.129 -0.0717 -0.1723  0.0665
32229W        W75245  17.021   4.285  20.707  0.0254  0.2418 -0.1930
32230W        W75246   1.365  14.129  19.286  0.1348 -0.1363 -0.1892
32231W        W75247   4.901  22.530   2.824  0.2224  0.0114  0.0433
32232W        W75248  13.967  31.720  18.923  0.3014 -0.1435  0.0896
32233W        W75249   7.016   1.339  23.361  0.2392  0.0248  0.2662
32234W        W75250  30.263  24.439   4.234 -0.0080 -0.0521  0.0037
32235W        W75251  10.118  24.599  24.054 -0.0919  0.0109 -0.1249
32236W        W75252  11.565   8.026  13.888  0.1370 -0.2264  0.1570
32237W        W75253  11.409  28.780  24.089  0.0708 -0.3145  0.1729
32238W        W75254   3.562   3.482  19.051 -0.1830  0.0493  0.1122
32239W        W75255  30.293   4.496  15.572 -0.0287 -0.2671  0.0838
32240W        W75256  32.422   5.867  18.755  0.2143 -0.3243 -0.1196
32241W        W75257  18.380  31.368  16.872  0.0102 -0.0419 -0.3867
32242W        W75258  32.787  13.949  28.664  0.1742 -0.0476  0.0315
32243W        W75259   0.852  25.808  15.717  0.1493  0.1136  0.0425
32244W        W75260   8.103   1.481  28.545 -0.3011 -0.0547 -0.1250
32245W        W75261   0.598  19.836  21.085 -0.0661  0.0772 -0.4266
32246W        W75262  24.372  20.427  14.591  0.1434  0.0227 -0.1130
32247W        W75263   2.216  16.218  21.545  0.1975  0.0371  0.0197
32248W        W75264  29.331   7.070  11.389 -0.0746  0.1338  0.2394
32249W        W75265   2.650  20.739  28.517 -0.0668  0.3873  0.2993
32250W        W75266  34.662  34.131  23.970 -0.1933 -0.0052 -0.0267
32251W        W75267  15.367  32.617   4.879  0.0665  0.1712  0.1369
32252W        W75268  29.945   0.351  21.499  0.0996 -0.0730  0.1027
32253W        W75269   5.780   7.187  16.260 -0.2826 -0.0557 -0.0233
32254W        W75270  21.347  31.007  14.263 -0.0064 -0.4607  0.0629
32255W        W75271  11.485  18.185  11.820 -0.5558  0.2072  0.0144
32256W        W75272   9.581  26.895  22.222  0.1543  0.2049 -0.1426
32257W        W75273  13.903  32.061  19.807  0.3083 -0.4172  0.1356
32258W        W75274  10.854   9.196  23.633 -0.0260 -0.2204 -0.1725
32259W        W75275  34.360  16.456  21.245 -0.0107  0.0624  0.0714
32260W        W75276  27.639   4.188  21.414 -0.2391  0.3571  0.2343
32261W        W75277   4.900  19.811  20.473 -0.0129 -0.3741 -0.1733
32262W        W75278  20.100  34.317  16.107  0.1157  0.0126  0.1593
32263W        W75279  14.225  31.829  22.430  0.1264 -0.0095 -0.0008
32264W        W75280   4.976   2.112  27.732  0.3666 -0.1354 -0.2310
32265W        W75281   8.847   1.186   3.320 -0.0887  0.1752  0.2194
32266W        W75282   7.987   3.186  15.423 -0.1390 -0.3313 -0.0980
32267W        W75283   2.658  24.139  17.075 -0.1238 -0.0577  0.0645
32268W        W75284  15.800  10.606  20.217  0.1216 -0.0354 -0.2392
32269W        W75285   5.089  32.949  22.060  0.6217 -0.1701 -0.2006
32270W        W75286   8.116  33.305  25.159  0.0036 -0.1995  0.0270
32271W        W75287   2.628  16.709  19.295 -0.1597  0.4956  0.1873
32272W        W75288   2.571   2.104  18.059 -0.0807 -0.0524 -0.2686
32273W        W75289   5.249   9.361  20.666 -0.4927  0.1990 -0.0431
32274W        W75290   1.281  26.765  18.563 -0.1079  0.2056  0.1980
32275W        W75291  29.809  30.931  16.799  0.0679  0.2226 -0.2084
32276W        W75292   0.647  26.094  18.324  0.1618  0.1734 -0.1523
32277W        W75293  33.403  32.658  23.257  0.0027 -0.2199  0.0925
32278W        W75294  32.089  31.786  27.162  0.0618  0.0157  0.2500
32279W        W75295  25.352  25.763  15.546  0.3862  0.3282  0.3721
32280W        W75296  15.007  19.540  12.828 -0.1189  0.2994  0.2337
32281W        W75297  29.109  33.631   1.639 -0.4911 -0.2590 -0.0560
32282W        W75298  32.455  33.180  22.104 -0.1336  0.0795  0.1149
32283W        W75299   3.377   1.053  21.153  0.1041  0.0124 -0.0861
32284W        W75300  10.928  22.471  19.663  0.1007  0.2078 -0.1769
32285W        W75301  23.641  22.243   0.941 -0.0313 -0.1096  0.3551
32286W        W75302   2.107   4.100  18.048 -0.4599  0.1202  0.2357
32287W        W75303  29.614  13.428  19.294 -0.4001 -0.0371  0.3253
32288W        W75304   6.147  25.762  16.821  0.0172 -0.0096 -0.1686
32289W        W75305   5.139  29.971  28.313 -0.0756  0.1289 -0.1486
32290W        W75306  34.165  25.841  24.529  0.1177  0.2539  0.0213
32291W        W75307   3.190   4.542   0.740  0.0428  0.0367  0.0057
32292W        W75308   2.629   7.488  28.364 -0.2481 -0.0707 -0.1525
32293W        W75309  10.477  14.075  14.301  0.1456 -0.0427  0.0894
32294W        W75310  13.351  30.938  17.732 -0.1107  0.2380  0.2467
32295W        W75311   2.300  22.533  20.805  0.0655  0.1909  0.2104
32296W        W75312   6.999   5.248  27.041  0.1923 -0.0083 -0.0228
32297W        W75313   4.660  26.976   2.912 -0.0280  0.2707 -0.1889
32298W        W75314  12.710   3.458   6.206 -0.0474  0.0386 -0.0650
32299W        W75315  22.414   3.987  26.688 -0.4142  0.2936  0.2091
32300W        W75316  30.683  29.430   3.744  0.2452  0.1761 -0.0688
32301W        W75317   9.585  30.366   6.945  0.0574  0.0844  0.0539
32302W        W75318   4.114  25.655  19.100  0.1678 -0.1482 -0.1314
32303W        W75319   6.128  34.263  26.780 -0.0225 -0.0352 -0.2334
32304W        W75320   2.578  18.282   5.278  0.1113 -0.1374  0.1170
32305W        W75321  20.439  19.413   6.712 -0.1079 -0.0057  0.1297
32306W        W75322  11.414  26.877  20.714 -0.1559  0.4036  0.1717
32307W        W75323   1.463   8.986  20.717  0.2181  0.1403  0.0832
32308W        W75324   0.226   5.883  19.651 -0.0316  0.0172 -0.1972
32309W        W75325   7.675  28.942  22.982  0.2274 -0.0124  0.0394
32310W        W75326   6.682   4.011   9.048  0.1297  0.2216 -0.0967
32311W        W75327  34.269   4.230  22.927 -0.1799 -0.1425 -0.1968
32312W        W75328  11.314  23.536  22.341 -0.1683 -0.2011  0.1024
32313W        W75329  33.666  34.510   2.051  0.1826  0.1171  0.2025
32314W        W75330   2.259   5.046   9.551 -0.1436  0.0429  0.3702
32315W        W75331  25.530  13.585  15.008  0.1132  0.0715  0.0635
32316W        W75332  10.612  11.171  13.916  0.2469  0.0623 -0.2021
32317W        W75333  10.456  24.687  19.347  0.2112 -0.3390 -0.0926
32318W        W75334  11.272  26.624   3.579 -0.3939 -0.1102  0.1787
32319W        W75335  15.363  34.398  15.645  0.0546 -0.0498 -0.0428
32320W        W75336   1.755  33.068   4.575  0.1914  0.1525  0.0107
32321W        W75337   4.366   4.406  21.685 -0.0391 -0.0513 -0.0114
32322W        W75338  31.099  27.005  24.673 -0.3535 -0.3423  0.0470
32323W        W75339  15.200   0.572  18.017 -0.0379 -0.2001  0.0278
32324W        W75340   3.526  27.533  26.253  0.0802  0.4482  0.2387
32325W        W75341   7.091  23.976  20.028 -0.3267  0.0717  0.1666
32326W        W75342  28.916  30.513  26.403  0.0866  0.0002  0.0489
32327W        W75343  26.677  26.193  28.665  0.2496  0.2126 -0.3370
32328W        W75344  13.218  27.517  18.174  0.0971 -0.0424  0.1916
32329W        W75345  13.667  34.362   7.930 -0.0251 -0.3528 -0.1176
32330W        W75346   5.607  22.687   6.929 -0.0450  0.0819 -0.0254
32331W        W75347   3.071  22.921   2.369 -0.1528 -0.0209 -0.3036
32332W        W75348  14.348  27.345  16.065 -0.1333 -0.0790  0.2012
32333W        W75349  27.836  30.032  23.234  0.0019 -0.1055  0.0430
32334W        W75350   2.317  27.322  17.717  0.1788  0.2655 -0.0817
32335W        W75351   8.488  29.993  23.702 -0.2212  0.3680  0.3578
32336W        W75352  32.009   0.711  19.774 -0.2325  0.1279 -0.2130
32337W        W75353   6.599  28.503   0.168 -0.1260 -0.2711  0.2345
32338W        W75354  12.652   8.308  23.802  0.0920  0.1482  0.0520
32339W        W75355  10.646  16.424  16.724 -0.0073  0.0794 -0.0510
32340W        W75356   6.990   3.427  23.415  0.1324 -0.1137 -0.1604
32341W        W75357   5.236  27.367  22.198 -0.1715  0.0973 -0.1898
32342W        W75358   5.957   1.411  24.825  0.0264 -0.1160 -0.0117
32343W        W75359  32.471  28.503  19.603 -0.1462 -0.0083 -0.5040
32344W        W75360  14.538  13.156  19.712 -0.1980 -0.1195 -0.0807
32345W        W75361   4.529  20.619  14.476 -0.2086 -0.0087 -0.0727
32346W        W75362  32.226   5.904  20.214  0.1661 -0.1267 -0.0472
32347W        W75363   8.098   9.567  27.238  0.1940  0.0032 -0.0265
32348W        W75364  28.624  27.093   1.566 -0.2082  0.2528 -0.1162
32349W        W75365  31.455   5.076  24.345 -0.0043 -0.0395 -0.1172
32350W        W75366  10.982  34.026   4.780  0.2121 -0.2526 -0.1243
32351W        W75367  18.182  26.057  25.348  0.1719 -0.0950  0.0462
32352W        W75368  23.211   1.421  18.721  0.2782  0.2991 -0.0109
32353W        W75369  16.204  26.021  23.271  0.2244 -0.1604  0.2894
32354W        W75370   4.174   1.201  19.140 -0.1393  0.0596 -0.1072
32355W        W75371  16.101  18.501  11.488  0.0737  0.1029  0.0712
32356W        W75372  10.427  28.858  23.458 -0.0111  0.1764  0.0872
32357W        W75373   8.990  28.455  15.615 -0.0402  0.0823  0.1301
32358W        W75374   1.128   0.083  20.455  0.2072 -0.1074 -0.2025
32359W        W75375  10.139  22.911  16.778 -0.1251 -0.0688  0.1818
32360W        W75376   0.584  26.590  10.111 -0.2165 -0.2979  0.1077
32361W        W75377   9.681   8.937  20.938  0.2176  0.4232 -0.3161
32362W        W75378  18.285   7.630  13.269 -0.0118  0.2526 -0.1497
32363W        W75379  13.245  27.383  28.486  0.4104 -0.2292  0.1940
32364W        W75380  28.887  25.410  18.984  0.0835 -0.1953  0.0232
32365W        W75381  14.429  13.025  16.135  0.2788  0.3535 -0.1298
32366W        W75382  30.069  30.907  24.482  0.0739 -0.1255 -0.0260
32367W        W75383  28.083  11.810  22.792 -0.1519  0.3560 -0.0642
32368W        W75384   3.356  27.283  23.986  0.1995 -0.1017  0.0703
32369W        W75385  26.462  32.837  25.169  0.0455  0.1000  0.1548
32370W        W75386   0.164   9.574  17.453 -0.0274  0.2420  0.0390
32371W        W75387  33.100  26.293  22.517 -0.3605  0.0834  0.4331
32372W        W75388  31.318  31.901   5.863 -0.1945 -0.1698 -0.0866
32373W        W75389   4.048  22.612  21.315  0.0229  0.2579 -0.2358
32374W        W75390  13.325   4.438   7.886  0.0445  0.0679 -0.1491
32375W        W75391   3.964  12.189  26.126  0.1599 -0.2041  0.0532
32376W        W75392   7.834  18.684  13.334  0.0587  0.0545  0.0318
32377W        W75393   1.444  31.754  18.504  0.0222 -0.2034 -0.1131
32378W        W75394  31.673  33.460  20.827  0.2188 -0.2335  0.0019
32379W        W75395   5.498   4.333  25.246  0.2391  0.2130  0.0192
32380W        W75396   3.987  16.616  23.998 -0.1451  0.0745 -0.1304
32381W        W75397  23.041  31.166  15.569 -0.0260  0.0202 -0.0243
32382W        W75398   4.637  30.185   7.934 -0.1895 -0.2424 -0.2803
32383W        W75399  21.722  23.868  25.447  0.3354 -0.1837  0.2614
32384W        W75400   9.467   1.903  18.972 -0.4030  0.1446  0.0365
32385W        W75401  23.668  23.553  17.355 -0.0636 -0.0270  0.0402
32386W        W75402   4.539  23.294  14.183  0.0208  0.0047 -0.0869
32387W        W75403   4.875  10.375   8.977  0.4119 -0.0618 -0.1864
32388W        W75404   6.637   5.874  18.885  0.0773 -0.0817 -0.2694
32389W        W75405  14.846   4.621  21.254 -0.0528  0.0308 -0.3271
32390W        W75406   4.317  32.422  20.414 -0.1404 -0.0862  0.0049
32391W        W75407  28.527  20.578  26.962  0.4442  0.2413 -0.0511
32392W        W75408  31.968  13.445  14.433  0.1938 -0.3511 -0.0755
32393W        W75409   3.186  22.448  23.490  0.2571  0.2791 -0.0663
32394W        W75410  22.337  31.732  10.345  0.1768 -0.0379 -0.2299
32395W        W75411  33.207  15.328  14.778 -0.0275 -0.2146  0.1351
32396W        W75412  30.236  24.166   8.517 -0.1356 -0.1502  0.0716
32397W        W75413   1.408  12.837  20.595 -0.1316  0.1215  0.1285
32398W        W75414  31.573  34.376  15.359  0.0623 -0.1946  0.2897
32399W        W75415  11.231  28.635  17.722 -0.2848 -0.3719  0.3059
32400W        W75416  32.877  29.424   3.477  0.0405 -0.3598  0.1008
32401W        W75417  15.150  22.611  12.947 -0.2074  0.1068  0.2709
32402W        W75418   5.122  26.980   8.628  0.0524  0.1402 -0.1509
32403W        W75419   9.738  26.468  18.817 -0.0307  0.2526  0.0709
32404W        W75420  18.055  16.958  26.574  0.1356  0.0951 -0.0564
32405W        W75421   9.423  23.213   1.299  0.0204 -0.0630  0.3954
32406W        W75422  30.991   1.489  28.018 -0.0273  0.5997  0.3177
32407W        W75423   7.777   8.063  23.355 -0.2601  0.0610  0.0586
32408W        W75424   9.161  21.511  16.577 -0.2029  0.3647 -0.3007
32409W        W75425   0.252  17.446  26.339  0.0024  0.2218 -0.0555
32410W        W75426  30.428  28.446  16.586 -0.0393 -0.2083 -0.0049
32411W        W75427  28.624  25.838  15.788  0.2445 -0.3304  0.5698
32412W        W75428   6.261  22.090   3.786 -0.0926 -0.1957  0.0544
32413W        W75429   9.686  14.034  13.903  0.1366 -0.1379 -0.3221
32414W        W75430  28.662  33.174  19.313 -0.0411  0.1471 -0.0503
32415W        W75431   7.879  28.863  25.783  0.3232 -0.0539  0.1758
32416W        W75432  10.343  16.912  19.878  0.2261 -0.1480 -0.0974
32417W        W75433  25.076  29.362   4.387 -0.3031 -0.0458 -0.1011
32418W        W75434   2.460  26.586  14.848  0.0478 -0.1151 -0.0412
32419W        W75435   5.501  19.045   6.700 -0.0496  0.2319 -0.2143
32420W        W75436  16.766  32.567  20.329  0.2434 -0.0094 -0.0398
32421W        W75437   9.644  28.301  19.779 -0.0224  0.2140 -0.1565
32422W        W75438  26.708  29.889  24.783 -0.1174  0.2335 -0.2173
32423W        W75439  30.439  16.864  19.239 -0.1356 -0.0198  0.1496
32424W        W75440  29.750  27.310   3.056  0.0252  0.1399 -0.0402
32425W        W75441   9.890   7.374  25.396 -0.0823 -0.0404 -0.0695
32426W        W75442  24.158  20.882  28.891 -0.0134  0.1498  0.1863
32427W        W75443  18.116  14.305  20.078  0.1668  0.0032 -0.4895
32428W        W75444   8.834  33.366   0.093  0.1883 -0.0684 -0.1899
32429W        W75445  14.330  14.689  11.969 -0.0299  0.2165 -0.4547
32430W        W75446  32.740  13.384   4.567  0.2407  0.4563 -0.1112
32431W        W75447   5.676  32.633  20.004 -0.1975  0.0453  0.1011
32432W        W75448   2.233  33.940  16.822  0.1578  0.2718 -0.3026
32433W        W75449  29.803  26.475  27.254 -0.0625 -0.1795 -0.1185
32434W        W75450   8.997  22.065  16.673  0.4575  0.0101  0.0023
32435W        W75451   2.900  25.445  22.337 -0.1902 -0.0666 -0.0504
32436W        W75452  20.580  31.716  26.804  0.0627 -0.1374 -0.0786
32437W        W75453   9.612  14.046  14.440 -0.1900  0.0168 -0.1847
32438W        W75454  17.446  28.902  28.730  0.2043 -0.0935  0.1872
32439W        W75455   9.918  14.134   2.918 -0.0425 -0.1262  0.0306
32440W        W75456  23.607  25.403  18.372 -0.1177  0.2196 -0.0223
32441W        W75457  12.550   0.971  20.146  0.0916 -0.2885 -0.2674
32442W        W75458  18.673  13.129  12.351  0.3681  0.2022  0.0551
32443W        W75459   6.173  11.985   2.499 -0.0352  0.2382  0.0299
32444W        W75460   1.271  17.282  19.396 -0.1648  0.2163 -0.1004
32445W        W75461  33.519  26.930  19.480  0.4264 -0.0965 -0.3766
32446W        W75462  23.526   0.588  19.760  0.5431  0.1561 -0.0553
32447W        W75463   0.919   2.408  22.498  0.0864  0.1730 -0.0190
32448W        W75464  33.364   0.795  26.806 -0.1867 -0.0230 -0.2044
32449W        W75465  23.025  16.074  19.782  0.0915 -0.1654 -0.0524
32450W        W75466  29.175  28.679  20.339 -0.1167  0.2052 -0.2875
32451W        W75467   7.065  25.150   2.761  0.1133 -0.1573 -0.0689
32452W        W75468  16.957   8.846  20.085 -0.0823 -0.1342  0.2537
32453W        W75469   1.087   4.660  25.847 -0.0453 -0.1877 -0.0947
32454W        W75470  21.375  34.131  28.574  0.2470 -0.1162 -0.0947
32455W        W75471   2.375  21.227   4.527 -0.1627 -0.3357 -0.1705
32456W        W75472   8.682  17.844  16.533 -0.0108  0.0167 -0.2138
32457W        W75473  21.694  24.687  25.195 -0.0103 -0.1774  0.0891
32458W        W75474   3.858  23.231  13.723  0.3365  0.1126  0.0655
32459W        W75475   7.782   9.925  14.340 -0.0433 -0.3293  0.2802
32460W        W75476  12.137  17.240  12.369  0.2229 -0.1362 -0.1574
32461W        W75477  18.397   9.040  23.803 -0.0689 -0.1381 -0.2307
32462W        W75478  15.680  27.706  16.049  0.2739 -0.1173  0.3715
32463W        W75479   2.134  21.726   2.246  0.1946  0.1803  0.2091
32464W        W75480  12.804  32.493  28.046 -0.1093  0.1258  0.4373
32465W        W75481   7.196  19.083  17.259  0.0519  0.0501 -0.1529
32466W        W75482  10.781  18.410  26.730 -0.0082  0.0498 -0.1047
32467W        W75483   7.565  20.822  15.514 -0.2629 -0.4063 -0.0057
32468W        W75484   0.308  32.357   8.201  0.0280  0.2326  0.0029
32469W        W75485   3.316  12.002  14.409  0.1540  0.1612  0.0417
32470W        W75486   0.594  26.878  25.828 -0.1296  0.0326 -0.0961
32471W        W75487   1.009  27.716  21.936  0.0921  0.0492 -0.1440
32472W        W75488   2.761  31.969  21.166  0.1945 -0.0546 -0.0466
32473W        W75489  13.197  27.397  17.582  0.0779  0.1303  0.3645
32474W        W75490  10.518  18.167  19.276  0.0601  0.1280 -0.0825
32475W        W75491   0.173   0.475  21.308  0.3043  0.1504  0.3607
32476W        W75492  15.546  14.687  22.726 -0.1623 -0.0942  0.1437
32477W        W75493  10.400  26.372  15.665  0.4681 -0.2230  0.0758
32478W        W75494   7.365  31.398  21.212 -0.4479  0.2688 -0.2405
32479W        W75495  14.222  17.935  23.318  0.1656  0.2837  0.0409
32480W        W75496  29.403  30.079  20.082 -0.1084 -0.1290  0.1596
32481W        W75497  11.178  33.997  20.422  0.1662  0.0321  0.2614
32482W        W75498  25.960  23.824  16.438  0.1549 -0.2648 -0.2062
32483W        W75499   8.792  34.030  19.916 -0.0430 -0.3339  0.1190
32484W        W75500  18.012  12.076   0.730 -0.0920 -0.1570  0.3224
32485W        W75501  14.508  14.608  14.441  0.1337 -0.2978 -0.0266
32486W        W75502  16.909   9.467  13.009  0.2352 -0.1628 -0.0316
32487W        W75503   8.279  16.188  19.602 -0.1919 -0.0064 -0.2852
32488W        W75504  34.543  32.964  24.095  0.1278 -0.0636 -0.3896
32489W        W75505  29.611   2.969   2.579 -0.1119 -0.0675 -0.0637
32490W        W75506  12.414  20.802  24.219 -0.1976  0.1703  0.0905
32491W        W75507  30.943  15.223  26.250  0.1614  0.0057 -0.0088
32492W        W75508  15.066   2.200  27.735 -0.0029 -0.0463 -0.2479
32493W        W75509  34.639   3.867   0.331  0.2784 -0.0073 -0.0551
32494W        W75510   7.844  17.859  14.967  0.1439 -0.2270  0.3012
32495W        W75511  32.956  24.308  22.585  0.0873 -0.1824  0.4863
32496W        W75512   6.489  23.912  20.060  0.0277  0.0702 -0.1470
32497W        W75513  28.312  27.260  16.002  0.0111  0.0913  0.0774
32498W        W75514   1.185  34.559  16.408  0.3750 -0.0785 -0.2102
32499W        W75515  33.189   1.200  15.619 -0.2052 -0.1600  0.0617
32500W        W75516   2.790  20.062   4.637  0.0439 -0.0379  0.0003
32501W        W75517  13.079  23.054   0.186  0.0910  0.0313 -0.0946
32502W        W75518  15.173  14.489  20.779 -0.2486 -0.1020 -0.0072
32503W        W75519  25.585   1.129  21.991 -0.3033  0.0516 -0.0074
32504W        W75520  13.845  17.814   5.944 -0.2468 -0.0309  0.1557
32505W        W75521   1.816  29.826  17.702  0.3336 -0.0146  0.1167
32506W        W75522  18.247  12.583  16.262 -0.0733  0.1182 -0.0005
32507W        W75523  14.235   2.082  26.658  0.1792 -0.1209 -0.3556
32508W        W75524   8.072   1.123  21.880  0.0174  0.0125 -0.1085
32509W        W75525   4.034  17.692  25.312 -0.2174 -0.0645 -0.1185
32510W        W75526   9.006  24.270  16.776  0.2519 -0.1519 -0.1025
32511W        W75527  12.394  29.495  15.345 -0.2101  0.0959  0.0183
32512W        W75528  33.736  30.031  15.002 -0.0366 -0.2950  0.1667
32513W        W75529  32.221  23.406   8.744 -0.0170  0.1523  0.3093
32514W        W75530   0.648  20.963  19.701  0.1575 -0.1789  0.3879
32515W        W75531  34.708  31.563  20.981 -0.0727 -0.2279 -0.0112
32516W        W75532  14.035  32.246  21.202  0.1974 -0.1025  0.0897
32517W        W75533   0.997  16.334  19.730 -0.1127  0.2657 -0.0475
32518W        W75534  10.095  27.135  18.638  0.0003  0.1430  0.2076
32519W        W75535  26.537  25.083  26.516 -0.1700 -0.1062 -0.2120
32520W        W75536   0.123  32.503   9.032  0.3066 -0.0195 -0.2188
32521W        W75537  10.660   3.891   6.127 -0.0129  0.0541  0.3266
32522W        W75538  25.102  18.028  19.046  0.0296  0.1195 -0.0040
32523W        W75539   9.173  31.636   4.261  0.1236  0.2973 -0.0198
32524W        W75540  31.428  12.002  26.004  0.2282  0.0557 -0.2341
32525W        W75541  33.415  31.710  15.694 -0.1294  0.0554  0.2053
32526W        W75542   0.112   4.325   6.215  0.1286 -0.0873  0.0754
32527W        W75543  27.935  18.442  20.542 -0.2472  0.0680  0.2887
32528W        W75544  28.915  26.455  28.659 -0.1116  0.2894  0.2549
32529W        W75545   1.469  26.057   1.997  0.3506  0.0592 -0.1125
32530W        W75546  25.474   4.505  28.822 -0.2170 -0.0927  0.0134
32531W        W75547  29.951  31.416   9.041 -0.0574  0.1714  0.1904
32532W        W75548  34.402   4.086   2.357 -0.2130  0.1584 -0.1510
32533W        W75549  21.198   2.481   1.006  0.0048 -0.2998  0.2178
32534W        W75550  29.630   0.698  10.674 -0.0321 -0.1928  0.2750
32535W        W75551  12.275  32.443  22.159 -0.1121 -0.1602 -0.0281
32536W        W75552   1.925  33.029  17.843 -0.0168  0.1742 -0.2047
32537W        W75553  27.016  18.099  23.443 -0.0187  0.3056  0.0948
32538W        W75554  29.533  33.550  23.008  0.0001  0.0464 -0.2148
32539W        W75555   3.265  15.802  28.991 -0.0996 -0.0467  0.1967
32540W        W75556   2.401   1.451  25.591  0.0713 -0.0251  0.0446
32541W        W75557  10.716  23.293  21.409 -0.1084  0.2590 -0.1862
32542W        W75558  12.554  22.600  24.256 -0.0357  0.0258  0.3585
32543W        W75559  24.288  28.403  21.994  0.0245 -0.1375 -0.0993
32544W        W75560   5.679  20.226  15.904 -0.3910 -0.1842  0.1145
32545W        W75561   0.445  26.433  21.113 -0.0199 -0.0711  0.2613
32546W        W75562   9.218  33.253  24.047 -0.2476 -0.1078  0.2738
32547W        W75563  18.999  25.063  21.344 -0.3482  0.1334 -0.3239
32548W        W75564   6.511  25.172   6.498 -0.0959 -0.3530  0.2643
32549W        W75565  18.660  12.773  22.501 -0.0375  0.2001 -0.0477
32550W        W75566  18.722  26.197   7.025  0.1269  0.1462  0.0250
32551W        W75567  25.909  23.217  25.802  0.1044  0.2276 -0.1558
32552W        W75568  11.215  21.769   4.564  0.1974 -0.3399 -0.3702
32553W        W75569  34.729  12.151  20.518  0.1218 -0.2149  0.3202
32554W        W75570  24.866  23.873  18.594 -0.0152  0.2243  0.3406
32555W        W75571  28.962  25.013   1.686 -0.2680 -0.0169 -0.3634
32556W        W75572  15.657  31.063  23.879  0.2160 -0.1010 -0.0688
32557W        W75573  28.865  32.418   7.959 -0.2944 -0.2353  0.0437
32558W        W75574   1.881   6.152  19.520  0.3068 -0.1111  0.1081
32559W        W75575   2.548  17.433  28.895 -0.4077  0.1312 -0.3331
32560W        W75576  17.526  30.156   3.978  0.0195 -0.2406 -0.0532
32561W        W75577   6.280  24.422  20.294  0.0359  0.0656  0.0213
32562W        W75578  27.173  30.358   3.272 -0.0631  0.1387  0.1303
32563W        W75579  11.754  15.908  15.939 -0.0046  0.0618  0.0945
32564W        W75580  24.436  28.748  18.705 -0.0801  0.0700  0.0585
32565W        W75581  31.838  25.542  25.478 -0.3119 -0.0854 -0.0637
32566W        W75582  11.864  25.104   0.881  0.1260  0.1863  0.4411
32567W        W75583   3.340  13.404   8.697 -0.0979  0.0789 -0.0779
32568W        W75584   4.607  13.844  24.320 -0.0515  0.1099 -0.0570
32569W        W75585  34.072  16.634  20.909  0.0368  0.0557 -0.1254
32570W        W75586  14.351  18.736  12.756  0.0866 -0.1993  0.0965
32571W        W75587   6.943  28.277  24.991  0.3432  0.1110  0.3163
32572W        W75588   2.507  12.160  17.017 -0.2348 -0.1961  0.2079
32573W        W75589  29.494  16.536  20.540  0.0522  0.2197  0.2524
32574W        W75590  28.910   1.880  22.994  0.0204  0.0183  0.3384
32575W        W75591   4.110  20.472   2.811  0.1792 -0.4643 -0.0074
32576W        W75592   5.299  27.305  28.894 -0.1019  0.1129 -0.1955
32577W        W75593  34.744  12.582  18.167  0.0147 -0.1993 -0.1327
32578W        W75594   9.941   1.436  21.393  0.0848 -0.0904  0.0555
32579W        W75595   6.105  19.169  25.994 -0.1635  0.1652  0.3238
32580W        W75596  24.592   4.456   3.108  0.1312 -0.4046  0.1804
32581W        W75597  31.930  32.842  28.439 -0.1164  0.2421 -0.0032
32582W        W75598  13.070  22.317  20.932  0.2303 -0.5715  0.2029
32583W        W75599  16.003  23.094   0.785  0.0067  0.2409  0.0598
32584W        W75600   4.812  19.090  26.085 -0.1899 -0.0524  0.1480
32585W        W75601  25.469  33.229  23.939  0.0108 -0.1644 -0.2262
32586W        W75602  20.455   0.181  23.397 -0.2381 -0.1649 -0.1190
32587W        W75603   5.332  26.723  21.118  0.1095 -0.1664  0.0242
32588W        W75604  31.819  19.324  24.357  0.0256 -0.0378 -0.1637
32589W        W75605   0.347  26.239  14.992  0.0856  0.0855 -0.1245
32590W        W75606  10.524  33.773  24.685  0.0577 -0.1957 -0.0389
32591W        W75607   8.722  25.427  15.527  0.1555 -0.1642 -0.1608
32592W        W75608  18.612   7.446  22.422 -0.1036  0.2197 -0.2246
32593W        W75609  33.660  22.873  19.284  0.0496  0.0289 -0.0298
32594W        W75610  30.228  28.447  18.211  0.0032 -0.0938 -0.0846
32595W        W75611  33.035  18.669  28.220 -0.0884  0.2955 -0.0078
32596W        W75612   6.019  15.391   9.035  0.1283 -0.0229 -0.2410
32597W        W75613  13.691  24.243  12.889  0.2392 -0.0899 -0.1179
32598W        W75614   9.936  20.406  25.768 -0.3615  0.0498 -0.1546
32599W        W75615  18.852  25.478  20.404  0.1997  0.4057  0.0838
32600W        W75616  10.836  22.627  24.741 -0.1156 -0.1644 -0.0200
32601W        W75617   9.221  13.973  14.153 -0.1028 -0.0816 -0.3755
32602W        W75618  32.499  30.790   2.930 -0.1426 -0.4150 -0.1740
32603W        W75619  22.494  34.738   3.192  0.0221  0.1776  0.1557
32604W        W75620   4.009   0.697  27.411  0.0706 -0.1294 -0.0430
32605W        W75621  22.238  20.569  15.177  0.1217  0.3616  0.1581
32606W        W75622  11.599  13.601  14.999 -0.1237 -0.0336  0.0370
32607W        W75623  18.359  32.187  26.723 -0.0200 -0.1356  0.2902
32608W        W75624  12.755  18.086  28.005  0.1505 -0.2200  0.2003
32609W        W75625  25.905  27.537  19.515  0.1477  0.0163  0.1140
32610W        W75626  21.428  13.234   5.884  0.3142 -0.2511  0.3981
32611W        W75627  14.580  32.277   1.213 -0.0331  0.3143 -0.0652
32612W        W75628  10.410  26.335  24.849 -0.1079  0.0331  0.0179
32613W        W75629  32.548  28.449  18.770  0.3388  0.0071 -0.1599
32614W        W75630  19.236  33.692  21.156 -0.0121  0.0920 -0.2444
32615W        W75631   9.989  13.846  16.380  0.2473 -0.0656  0.2652
32616W        W75632  28.627  17.930  23.975  0.0382  0.0176  0.0524
32617W        W75633  34.395  28.079  22.562 -0.0422  0.3791  0.2405
32618W        W75634  10.047  27.482   1.597 -0.0467  0.2242  0.2938
32619W        W75635  28.521  12.776  21.762 -0.2430  0.0011 -0.0718
32620W        W75636  27.125  26.049  18.463 -0.1732  0.0846 -0.0245
32621W        W75637   4.281   6.601  26.145 -0.1821  0.0569 -0.1276
32622W        W75638   4.939  21.515  17.428 -0.1413 -0.3502  0.1980
32623W        W75639  32.175  15.144  20.305 -0.1796  0.0404  0.0797
32624W        W75640   5.580  17.674  26.246  0.0687 -0.0517  0.2898
32625W        W75641  24.085  12.523  14.301  0.0837  0.0225  0.0999
32626W        W75642   5.370  10.445   8.597  0.1632 -0.0188 -0.2776
32627W        W75643   5.364   6.691  18.722  0.1388  0.1188 -0.0068
32628W        W75644  26.093  25.833  25.132 -0.0273  0.0583  0.1985
32629W        W75645   6.664  32.018  15.798  0.1937  0.2210 -0.1490
32630W        W75646   7.091  19.290  12.105 -0.1547  0.0010  0.1441
32631W        W75647   5.812  21.263  17.562 -0.0379 -0.3554 -0.0458
32632W        W75648   6.260  31.250  17.177  0.0842  0.1704 -0.3191
32633W        W75649   9.120  26.016  16.635 -0.2074 -0.0325 -0.2368
32634W        W75650  33.484   3.792  18.036 -0.2045 -0.2969 -0.1398
32635W        W75651   8.974  17.703  18.747  0.1270 -0.2231  0.2842
32636W        W75652  19.934   0.690  22.705 -0.2668  0.1400 -0.5155
32637W        W75653   1.109   7.327   3.636  0.3726 -0.0095  0.1355
32638W        W75654  32.420   7.544   9.597  0.0837  0.0157  0.1512
32639W        W75655   5.352   1.060  29.216  0.0113  0.1656 -0.1281
32640W        W75656  31.990   8.142  14.799 -0.0689  0.1075 -0.0478
32641W        W75657  32.816  24.601  15.483 -0.2335  0.1851 -0.0377
32642W        W75658  24.229  25.059  28.175  0.3415  0.2895 -0.0642
32643W        W75659  11.133  30.173  26.151  0.0040  0.0979 -0.2635
32644W        W75660  13.258  30.436   7.205  0.0924 -0.2337 -0.3056
32645W        W75661   1.349   7.825  18.518  0.1824 -0.0086  0.0602
32646W        W75662   2.278  25.385  24.775  0.0388 -0.1719  0.3503
32647W        W75663   8.866   3.812   7.216 -0.2435  0.0354 -0.1946
32648W        W75664  31.372  16.824   9.916 -0.1302 -0.1171  0.0780
32649W        W75665  32.523  33.066  23.331 -0.2534  0.1673 -0.1511
32650W        W75666  29.623  28.113  23.253  0.0851 -0.2624 -0.2580
32651W        W75667  12.576  23.805  27.462 -0.2588 -0.0980 -0.3563
32652W        W75668   1.278  12.935  19.530 -0.2004  0.2092 -0.1910
32653W        W75669   6.963  18.433   8.301 -0.0825  0.0004 -0.2051
32654W        W75670   7.637  22.152  26.896 -0.1885  0.0593  0.2178
32655W        W75671   4.599  19.029  26.693 -0.2611 -0.2219  0.4824
32656W        W75672   8.272   5.419  20.007  0.1405  0.0525 -0.2053
32657W        W75673   3.529  19.631   7.793  0.0234  0.2108  0.3231
32658W        W75674   3.415  17.832  24.902 -0.4743  0.0546  0.1452
32659W        W75675  15.916  21.735   1.675  0.2087 -0.3578 -0.2645
32660W        W75676  19.092  21.360  24.542 -0.1396  0.0125  0.0440
32661W        W75677   1.111  16.655   9.347  0.0661  0.0142 -0.2650
32662W        W75678   5.934  16.392   5.430 -0.0230 -0.0212  0.2970
32663W        W75679   1.841  13.960  19.136 -0.0072  0.1328 -0.2168
32664W        W75680   9.556  30.985  18.188 -0.1290  0.1746 -0.2154
32665W        W75681  22.618   4.748  19.489 -0.2382 -0.0250 -0.0268
32666W        W75682  28.560  14.528   6.804  0.1265 -0.3345  0.0267
32667W        W75683   8.412  29.530  20.082 -0.0195 -0.3043 -0.0599
32668W        W75684  29.955   0.649  28.072  0.0058  0.0404  0.0366
32669W        W75685   4.017  26.340  19.901 -0.0975 -0.0141 -0.0262
32670W        W75686  29.208  29.901   5.301  0.0035  0.0641  0.1066
32671W        W75687   8.870  19.377  13.260  0.2410 -0.0543  0.2916
32672W        W75688  12.821  28.146  21.842 -0.0385 -0.2335 -0.0597
32673W        W75689   1.730  26.591  21.064  0.0569 -0.1288 -0.0217
32674W        W75690  10.506  16.602  20.317  0.2185  0.1396  0.0400
32675W        W75691   4.949   1.085  24.601  0.1664 -0.0370 -0.3840
32676W        W75692  33.946   6.457  29.233 -0.0751  0.0384 -0.0003
32677W        W75693  16.812  31.584   5.323  0.1569  0.0576  0.2355
32678W        W75694  21.361  25.904  18.233  0.0883 -0.1031  0.1345
32679W        W75695  11.278  15.311   3.847 -0.3696  0.1544  0.0731
32680W        W75696  27.958  31.019  28.051 -0.1081  0.2414  0.0203
32681W        W75697  11.126  13.338  26.540  0.1506  0.0118  0.3161
32682W        W75698  24.028  14.984  25.398  0.2190  0.2439 -0.0109
32683W        W75699  33.176   6.658  20.197 -0.2168 -0.0306 -0.3537
32684W        W75700  18.638  18.214  22.872  0.0812  0.2588 -0.2390
32685W        W75701  33.036  19.971  15.525 -0.1288 -0.2844 -0.1009
32686W        W75702  24.792  25.649  23.266  0.2615  0.0262  0.1047
32687W        W75703  10.489   5.586  18.391 -0.5492 -0.0907 -0.0157
32688W        W75704  18.044   5.716  17.179 -0.0394  0.2140 -0.4961
32689W        W75705  13.508  25.164  16.066 -0.1080  0.2433 -0.1385
32690W        W75706  33.888  24.105  16.227 -0.1382 -0.0434 -0.2577
32691W        W75707  26.522   0.134   0.723 -0.0253  0.0636  0.1345
32692W        W75708   0.089  33.852  20.234 -0.3610 -0.0731 -0.2210
32693W        W75709   9.871  30.632  21.544  0.0007  0.0553 -0.0057
32694W        W75710  30.807  23.511   9.824 -0.1037  0.4153  0.0496
32695W        W75711  17.534  25.996  19.565  0.2284 -0.3869  0.0761
32696W        W75712  31.861  27.604   9.741  0.0853 -0.2019  0.2155
32697W        W75713  11.035   7.839  28.738  0.1472  0.0400  0.1703
32698W        W75714  33.951  24.044   8.712 -0.0472  0.0566 -0.1241
32699W        W75715   1.278  25.700   4.095  0.0483  0.1062 -0.0663
32700W        W75716  18.411  28.096  15.778  0.1367  0.0432 -0.1561
32701W        W75717  10.302  23.435   6.353 -0.1353 -0.2150  0.4268
32702W        W75718  24.433   6.270  20.984  0.2977 -0.1497 -0.0395
32703W        W75719   2.985  27.035   7.116  0.1010  0.0788 -0.2956
32704W        W75720  28.673  28.278  23.241 -0.0980 -0.1463  0.3368
32705W        W75721   9.803  32.094  10.357 -0.0051 -0.1768  0.1183
32706W        W75722  34.578  25.883  20.907 -0.2328 -0.3185  0.1430
32707W        W75723   1.347  12.568   7.960 -0.1526  0.2042 -0.1634
32708W        W75724  12.214  30.114  28.786  0.5491  0.1168 -0.3528
32709W        W75725  15.655  22.284   6.510  0.3064  0.1739 -0.0201
32710W        W75726  21.912  31.319   7.457 -0.2326 -0.1624  0.0710
32711W        W75727   8.067  20.088  27.155  0.0748 -0.2486 -0.0695
32712W        W75728  30.233  13.931  27.643 -0.0287 -0.0450  0.0051
32713W        W75729  33.771  20.311  24.905 -0.0470 -0.1127 -0.1802
32714W        W75730  11.235  14.377  13.395 -0.1024  0.7287  0.1183
32715W        W75731   9.992  21.877  22.994  0.3092  0.0819 -0.1284
32716W        W75732   8.161  14.802  14.767  0.0326 -0.2322  0.0794
32717W        W75733  22.269   1.753   1.491  0.1583 -0.0801 -0.3946
32718W        W75734   1.396   0.406   1.511 -0.0605  0.0630 -0.2985
32719W        W75735  27.633  34.687  15.625  0.0026  0.1974 -0.0064
32720W        W75736  12.569  21.707   3.117  0.2647  0.3591 -0.1041
32721W        W75737  17.989   8.732  15.037  0.0207  0.2884 -0.0928
32722W        W75738  21.980   2.662  24.578 -0.0494  0.0637  0.3216
32723W        W75739  21.640  28.395   4.815 -0.2157  0.0587 -0.0282
32724W        W75740  11.166  24.653  14.829 -0.1571  0.1471  0.0333
32725W        W75741  13.787  19.670  25.898 -0.0058  0.0390  0.2540
32726W        W75742   7.823   4.248  26.263 -0.0155  0.3278  0.0799
32727W        W75743  12.294  23.803  21.546  0.0515 -0.0862 -0.1347
32728W        W75744  32.323  16.011   4.880 -0.1126  0.0607  0.2007
32729W        W75745   1.200  27.939   5.503 -0.0498 -0.2813 -0.2655
32730W        W75746  33.330  24.001  29.130 -0.0443 -0.2975 -0.0092
32731W        W75747  32.725  15.817  21.965  0.1360 -0.0319  0.1955
32732W        W75748   8.048  26.409  24.975 -0.2454 -0.0647 -0.1495
32733W        W75749  25.935  15.102  18.128 -0.0047  0.2703  0.4022
32734W        W75750  19.879   6.734  24.353  0.2078  0.0243 -0.0798
32735W        W75751   5.126   4.090  23.398  0.0446  0.2943  0.1952
32736W        W75752   2.980  33.020  24.480 -0.1643 -0.2627  0.0527
32737W        W75753  32.807  34.714  24.941  0.3092 -0.0331 -0.1303
32738W        W75754  19.895  21.378  20.578 -0.0619  0.0592  0.0496
32739W        W75755  28.085  20.242  23.261 -0.1525 -0.1578  0.1689
32740W        W75756  26.257  22.293  25.122 -0.1791  0.1620  0.1341
32741W        W75757  12.843  20.153   4.825 -0.2151 -0.1212  0.1006
32742W        W75758  11.826  18.029  27.230 -0.0466 -0.2645  0.1010
32743W        W75759  20.940  19.617  16.791 -0.0069  0.1704  0.1409
32744W        W75760   0.733  29.067  23.968 -0.3176  0.2328 -0.0946
32745W        W75761   3.169  19.147  25.702 -0.0245 -0.2081 -0.1400
32746W        W75762  12.713  27.541  17.583 -0.2228 -0.1941 -0.1061
32747W        W75763   3.316  23.807  23.488 -0.1156 -0.1143 -0.0575
32748W        W75764  20.831  21.992  15.165  0.0346  0.1169  0.3237
32749W        W75765   2.133  21.603  20.358 -0.0730 -0.3107  0.0031
32750W        W75766   2.916  19.859   0.588  0.2855 -0.0133  0.2679
32751W        W75767  31.172  27.865   5.981  0.0826  0.1430 -0.2961
32752W        W75768   0.417   6.550  18.571 -0.1370 -0.1562  0.0847
32753W        W75769   1.444  29.522  15.089  0.1559 -0.0030 -0.0440
32754W        W75770  14.920  25.622  28.118  0.0279  0.2591  0.2037
32755W        W75771  19.875  29.560  22.626  0.1977  0.2533 -0.4127
32756W        W75772  30.762  13.091  21.878 -0.0849  0.0105 -0.1368
32757W        W75773   3.192   1.147   5.860  0.0131  0.0004  0.1276
32758W        W75774   5.026   2.747  25.739  0.0898  0.2072 -0.1234
32759W        W75775  26.139  20.939   5.677 -0.0956  0.0529 -0.6064
32760W        W75776  13.416   7.521   6.378 -0.0006 -0.2702  0.1154
32761W        W75777   1.944  31.473  17.718  0.1024 -0.0308  0.1564
32762W        W75778   4.101  22.455   0.194  0.0443 -0.4568 -0.0916
32763W        W75779  33.733  28.537  15.563 -0.1078  0.1932 -0.0324
32764W        W75780   0.164  17.111  19.977  0.0331 -0.0520 -0.0701
32765W        W75781  19.621   8.812  25.079  0.1387 -0.0753  0.0933
32766W        W75782  10.833   0.945  21.428  0.3242 -0.0083 -0.3139
32767W        W75783  30.555  20.629   5.461  0.3533 -0.0106  0.2797
32768W        W75784   6.663  23.542  13.087 -0.1315  0.0607 -0.3684
32769W        W75785  26.739   8.584   5.345  0.0637  0.0534  0.2264
32770W        W75786   3.902  15.978   2.985  0.3083  0.1547 -0.2032
32771W        W75787  26.873  24.365  24.029  0.1858 -0.0244  0.1416
32772W        W75788  20.634   2.576   2.510 -0.2307  0.5111 -0.2768
32773W        W75789  33.866  31.725  10.207 -0.0803  0.4276 -0.2798
32774W        W75790   7.908   1.272  23.532 -0.3707  0.1083 -0.1342
32775W        W75791   0.509  28.451  22.165 -0.3012 -0.0338  0.1431
32776W        W75792  32.297  23.971  18.056  0.0554 -0.2170 -0.0564
32777W        W75793   3.552  27.953  18.158 -0.1180 -0.0703  0.2623
32778W        W75794  33.204   0.060  27.659 -0.1655 -0.0091 -0.0969
32779W        W75795  13.847   2.144  20.372  0.1246 -0.1864 -0.0125
32780W        W75796  27.976  18.646   8.065  0.1711  0.1037 -0.0709
32781W        W75797  23.587  21.242  16.572  0.0787  0.0208 -0.0380
32782W        W75798  23.983  17.751  16.487 -0.1038 -0.0888 -0.2559
32783W        W75799  28.125  27.819  25.842 -0.0923 -0.2164 -0.0147
32784W        W75800  14.113  12.665  18.134 -0.0182  0.1293  0.0632
32785W        W75801  14.503  18.756   2.076 -0.0035 -0.3525 -0.3286
32786W        W75802  29.544   4.796   2.731  0.0864 -0.0254  0.0604
32787W        W75803   6.184  16.744  25.372 -0.0901 -0.0952 -0.2114
32788W        W75804   1.513  24.065  25.838  0.0237  0.1253 -0.2194
32789W        W75805   2.468  32.486  14.613  0.1476  0.0783 -0.1306
32790W        W75806  22.285  19.178  24.408 -0.0518 -0.1816  0.0123
32791W        W75807  32.604  23.338  19.709  0.2728  0.1188 -0.1347
32792W        W75808   3.243  22.279  14.071 -0.1779  0.1691  0.0745
32793W        W75809   2.950  32.553  27.082  0.0789  0.5244 -0.1885
32794W        W75810  14.127  17.329   2.388 -0.1214  0.0922  0.0254
32795W        W75811  11.279  28.580   7.988  0.1271 -0.3075 -0.1822
32796W        W75812  24.278  16.255  26.926 -0.2290  0.1029 -0.0073
32797W        W75813  32.633   5.070   6.695  0.2540  0.2987 -0.0610
32798W        W75814   8.594  11.162   1.897  0.2820 -0.2315 -0.0675
32799W        W75815   5.170  20.895   2.652 -0.1573  0.2644 -0.0038
32800W        W75816  11.585  25.998   3.380  0.0616  0.1842  0.1258
32801W        W75817   9.035  34.216  14.574 -0.5120  0.2411 -0.1915
32802W        W75818   1.344  31.001  23.708  0.3681  0.4320  0.2464
32803W        W75819  16.681  28.501  22.152 -0.0242  0.2560 -0.0128
32804W        W75820   7.113   3.136  15.326  0.0954  0.3370 -0.0376
32805W        W75821  13.659  21.747  28.609 -0.0973  0.0656 -0.4231
32806W        W75822  26.804  28.748   4.158  0.0042 -0.4046  0.1853
32807W        W75823   8.568   0.598  29.013 -0.1421  0.3088 -0.1021
32808W        W75824   3.447  26.810   1.076  0.2861  0.1838  0.1111
32809W        W75825  32.513  25.444  21.181 -0.0246 -0.2811  0.1000
32810W        W75826   5.175  21.945  16.579 -0.0813 -0.1937 -0.0492
32811W        W75827  12.081   2.539   7.495  0.0419 -0.1603  0.1147
32812W        W75828  32.535  17.763  22.369 -0.1085 -0.1544  0.0985
32813W        W75829   0.230  14.049  14.353  0.5536 -0.1118 -0.1343
32814W        W75830  26.044  31.709  28.229  0.1107  0.2724 -0.2338
32815W        W75831   0.026   5.015   4.041 -0.0213  0.3419  0.2104
32816W        W75832  31.113  33.141   1.430 -0.0046 -0.1968 -0.0570
32817W        W75833  23.413  28.997   0.512 -0.1778  0.0039  0.1287
32818W        W75834  33.646  23.602  20.600  0.1848  0.1651  0.1787
32819W        W75835  30.971  32.572   1.317 -0.1499  0.2408 -0.0824
32820W        W75836  17.487  12.295  23.847 -0.0361 -0.0038  0.0026
32821W        W75837  34.192  25.464  17.524  0.0889  0.2510  0.3154
32822W        W75838  16.704   6.653  22.301 -0.0549 -0.0016 -0.0802
32823W        W75839  27.528   1.664  20.509 -0.0804 -0.0474  0.0840
32824W        W75840  34.013  10.560   4.179 -0.1112 -0.3404  0.0491
32825W        W75841  31.570  25.014  24.952 -0.1137  0.0896 -0.0234
32826W        W75842  13.800  20.831  14.815 -0.1029  0.3673 -0.1909
32827W        W75843  32.493  10.054  16.695  0.1649 -0.2187 -0.1740
32828W        W75844   3.573  23.672   8.864  0.1186 -0.0816 -0.0719
32829W        W75845   7.355  25.234  23.630  0.2541  0.1169 -0.0937
32830W        W75846  28.626  29.687  25.699 -0.1551  0.0804 -0.0034
32831W        W75847  32.583  27.326   1.748  0.1220  0.1369  0.0848
32832W        W75848   9.961   2.037  28.165  0.1423  0.0430 -0.0045
32833W        W75849   2.924   1.581  20.461  0.0342 -0.0844  0.3005
32834W        W75850  15.922  16.677  22.586 -0.0196  0.0463  0.0903
32835W        W75851  26.406  19.349  28.918 -0.1243  0.2279 -0.1173
32836W        W75852   6.801  26.552   0.920 -0.0589  0.2856 -0.0251
32837W        W75853  26.909   0.162  17.830 -0.3722  0.1775 -0.0711
32838W        W75854   7.048   6.650  25.739 -0.0887  0.1149  0.2666
32839W        W75855  21.065  31.211  17.618 -0.1641  0.3122 -0.0120
32840W        W75856  28.727  33.905   2.540 -0.0233 -0.0458  0.0371
32841W        W75857   6.546   3.276   6.320  0.5012  0.0246  0.4724
32842W        W75858  28.841  16.478  25.987 -0.1556  0.0231 -0.2850
32843W        W75859   1.130  16.004  28.825 -0.0431  0.2022  0.1761
32844W        W75860  12.347  31.393   0.706  0.2218  0.2110 -0.1249
32845W        W75861  19.785  13.652  20.844 -0.0262  0.0603  0.1378
32846W        W75862   6.346  22.657  18.570 -0.1280  0.1037  0.1392
32847W        W75863   3.904   3.696   1.678 -0.0022  0.1559 -0.1535
32848W        W75864  33.810  26.903  15.082 -0.3050 -0.0668 -0.1923
32849W        W75865   7.555   6.547  19.769  0.1027  0.1200 -0.2777
32850W        W75866  15.766  21.317  12.837 -0.2599  0.2037 -0.1123
32851W        W75867   6.648   3.520   8.296 -0.2088 -0.1127 -0.1141
32852W        W75868   3.073  21.321  19.029  0.0827  0.2059  0.1165
32853W        W75869  12.534   7.276  23.954 -0.1086 -0.0830 -0.0114
32854W        W75870  21.313   5.695  18.383 -0.0183 -0.1405  0.5195
32855W        W75871  25.933  19.985   0.695  0.0930 -0.2193  0.1491
32856W        W75872  20.609  15.255   1.255  0.3102  0.0551 -0.0529
32857W        W75873   5.833  17.977  14.418  0.0173 -0.0618 -0.0912
32858W        W75874  34.546  25.999   9.869 -0.3646  0.2127  0.0731
32859W        W75875  22.518  22.067  17.093  0.0726 -0.1485  0.0766
32860W        W75876  29.365  30.066  17.175 -0.3803 -0.2144 -0.2161
32861W        W75877   1.186  31.586   2.130 -0.2873  0.1323 -0.0612
32862W        W75878   0.780  23.555  17.558  0.0006  0.1710 -0.3286
32863W        W75879  18.192  22.612  23.201 -0.1557 -0.1007 -0.1006
32864W        W75880   4.950   0.532   5.542  0.2568  0.0067 -0.1607
32865W        W75881   4.071  29.157  21.558  0.0267  0.0361 -0.2046
32866W        W75882  21.082  26.681  21.816  0.1535 -0.0575  0.0923
32867W        W75883  15.191  33.390  22.018 -0.1218 -0.1428 -0.2089
32868W        W75884   0.131  18.516  25.879 -0.3456  0.0286 -0.0143
32869W        W75885   5.725  27.492  18.053 -0.0317 -0.1128 -0.0692
32870W        W75886  18.574   1.975  19.909  0.2089  0.3052 -0.3363
32871W        W75887  33.958  30.129   2.503 -0.2694  0.0662  0.1241
32872W        W75888  32.532  21.680  24.346  0.0169  0.0361 -0.1167
32873W        W75889   4.940  30.389  27.360  0.1058 -0.5022  0.3707
32874W        W75890   3.428  26.783   0.522 -0.2444  0.0292 -0.2836
32875W        W75891  16.947   4.086  22.595  0.2917  0.0594 -0.1771
32876W        W75892   0.144  29.780  24.233 -0.0047 -0.2833 -0.0924
32877W        W75893   6.419   3.123   9.122 -0.0012 -0.1789  0.1197
32878W        W75894   2.689  27.125   1.733 -0.3020 -0.1544 -0.0671
32879W        W75895   3.663  24.374  24.690  0.0845 -0.0114  0.0954
32880W        W75896   2.522  20.943   9.703 -0.1290 -0.0981 -0.1749
32881W        W75897  33.458  13.186  14.519  0.3263 -0.1102 -0.2367
32882W        W75898   0.639  28.432  23.460 -0.1583  0.3718  0.2041
32883W        W75899  12.312  10.643  27.317 -0.6689  0.2292  0.0170
32884W        W75900   2.238   9.850  13.730 -0.2892 -0.0714 -0.1628
32885W        W75901  30.937  16.312   6.024 -0.1746 -0.2852 -0.3826
32886W        W75902   5.824  18.278  12.724  0.1639 -0.0717 -0.0397
32887W        W75903  32.873  21.117   2.547  0.0714 -0.0244 -0.0306
32888W        W75904  14.664  28.511  23.611 -0.0323 -0.0055 -0.4153
32889W        W75905  28.843  32.416  19.857  0.2109  0.2227 -0.4644
32890W        W75906  14.750   8.990  26.588  0.0094  0.0974  0.1083
32891W        W75907   0.478  17.668  15.476 -0.3186 -0.0711 -0.1244
32892W        W75908   3.304  32.804   1.888 -0.1923 -0.0980  0.0714
32893W        W75909   2.814  34.271  22.433  0.2567  0.0101  0.1902
32894W        W75910  31.746  11.088   3.240 -0.0260  0.0052 -0.4300
32895W        W75911   4.294  27.698  27.733 -0.3402  0.4721  0.0524
32896W        W75912  28.458   3.196  17.523  0.1199  0.1140 -0.0342
32897W        W75913   2.727  26.096   5.727 -0.2005 -0.1688 -0.0837
32898W        W75914  10.509  30.726   1.628 -0.1982 -0.0245 -0.0290
32899W        W75915   7.551  29.997   5.433  0.0275 -0.0683 -0.2397
32900W        W75916   7.108  19.079  19.878  0.3807  0.0298  0.5097
32901W        W75917  17.712  28.900   3.168  0.0202  0.0419  0.2441
32902W        W75918  12.691  24.750  27.518  0.0770  0.0357 -0.3714
32903W        W75919  20.485  23.576  29.002  0.1904 -0.1293  0.1329
32904W        W75920   6.413   7.082  28.422  0.1400  0.0603  0.0919
32905W        W75921  28.131  18.982  24.854  0.3119  0.0080  0.2695
32906W        W75922   1.042  26.244   3.950 -0.1258 -0.1077  0.0938
32907W        W75923   0.021  16.041  15.471  0.1083  0.0505  0.0092
32908W        W75924  33.567   2.337   8.605 -0.5051 -0.2019  0.0158
32909W        W75925  32.910  33.305   7.307  0.1350  0.0507  0.0407
32910W        W75926   7.100   0.195  19.654 -0.2054  0.2461  0.2310
32911W        W75927  29.049  33.672   2.886 -0.0685  0.0685 -0.1523
32912W        W75928   8.538  21.034  16.457  0.0257  0.0733 -0.1275
32913W        W75929  12.788  22.131   3.248 -0.0124  0.1774  0.0399
32914W        W75930  20.711   1.257  18.455 -0.0716  0.1198  0.2394
32915W        W75931   9.828  33.596  25.352  0.0322  0.1190 -0.4430
32916W        W75932  32.903  15.903  20.477  0.3409 -0.1375  0.3202
32917W        W75933  13.340  18.863   0.428  0.1479 -0.1374  0.0362
32918W        W75934   5.762  32.905   8.970 -0.4451  0.0350 -0.1012
32919W        W75935   6.232  32.962  29.001  0.0624  0.3093  0.1039
32920W        W75936   7.687  15.025  21.643 -0.0004 -0.0080 -0.0117
32921W        W75937   0.635  26.321   1.667  0.2861 -0.0765 -0.3440
32922W        W75938   0.556  23.242  25.815  0.1614 -0.1582  0.2095
32923W        W75939   6.293  24.130  21.957  0.0639  0.0989 -0.1940
32924W        W75940  32.127  28.442  18.298 -0.0523  0.3920 -0.1441
32925W        W75941   6.612  27.949  24.725 -0.2553  0.1141  0.0303
32926W        W75942  27.446   0.154  28.197 -0.0983 -0.0295  0.2286
32927W        W75943  17.390   9.534  18.997  0.1877 -0.0789  0.1274
32928W        W75944  28.060  13.714  23.358 -0.0831 -0.2240  0.4691
32929W        W75945  24.495  20.855  13.841 -0.2593 -0.1118 -0.1120
32930W        W75946  24.269  31.355  16.795  0.1589  0.0267 -0.1561
32931W        W75947  26.210   0.352  23.974 -0.4556 -0.1384 -0.1926
32932W        W75948  20.693   6.951  19.516 -0.3143  0.0073  0.3137
32933W        W75949  18.772  13.120  19.922 -0.0089  0.0305  0.3819
32934W        W75950  11.983  15.140  16.459  0.3258  0.0096  0.3050
32935W        W75951  25.651   2.022  10.081  0.1717  0.0002 -0.1030
32936W        W75952  34.127  19.936   4.983 -0.0516  0.0517 -0.2050
32937W        W75953  28.491  28.129  24.676  0.1120 -0.0194  0.0748
32938W        W75954  34.442  25.011  20.356  0.1376  0.1382  0.1270
32939W        W75955  10.422   0.012  27.860 -0.1019  0.1386  0.2531
32940W        W75956  15.195  22.584   7.585  0.2031  0.0187 -0.3530
32941W        W75957   7.845  18.485  26.880 -0.3039  0.1270 -0.1062
32942W        W75958   1.517  24.462  10.111 -0.0440  0.0245  0.0999
32943W        W75959   1.279  25.882   3.650 -0.0356  0.0951  0.0092
32944W        W75960  30.990  24.127   8.346  0.0115 -0.2840  0.0885
32945W        W75961  33.927  18.479  18.884 -0.1298 -0.1066 -0.0284
32946W        W75962   2.685  15.069   9.205  0.1507  0.1889 -0.2564
32947W        W75963  34.687   1.131   7.449 -0.0275 -0.2234 -0.1502
32948W        W75964  30.489   9.538  17.443  0.1474 -0.2889 -0.1442
32949W        W75965  26.127  16.505   2.133  0.2875 -0.0438  0.1739
32950W        W75966   6.618  13.146  16.565  0.0420  0.1188 -0.2100
32951W        W75967  33.697  34.189  27.921  0.0688 -0.0320 -0.0087
32952W        W75968  14.233  26.549  25.276 -0.0989 -0.0657  0.1491
32953W        W75969   5.764  21.900  17.742 -0.1653 -0.0283 -0.3096
32954W        W75970  13.341  14.832  23.629  0.2348 -0.0416  0.2198
32955W        W75971   3.010  30.882  18.127 -0.0213 -0.1622  0.1673
32956W        W75972   3.532  20.711   9.900 -0.0213 -0.1164 -0.0113
32957W        W75973   8.723   6.113  20.625  0.2273  0.1346  0.0074
32958W        W75974  29.109  21.395  22.022 -0.0115 -0.0643  0.0966
32959W        W75975  16.771  14.300   5.430 -0.0790  0.1320  0.0895
32960W        W75976  14.917  30.971  10.000  0.1053 -0.0735  0.0159
32961W        W75977   1.769  21.744  28.547 -0.2736 -0.0717  0.1451
32962W        W75978  30.932  26.383   9.774  0.2281  0.3829  0.0671
32963W        W75979   0.680  16.156   7.612 -0.1724  0.2477  0.3343
32964W        W75980  15.377  14.384  26.398 -0.2371 -0.0321  0.2234
32965W        W75981   9.025  34.279   0.666  0.1788  0.0722  0.1981
32966W        W75982  34.317   3.135  26.714  0.1187 -0.0125  0.0355
32967W        W75983   1.274  24.759  14.518 -0.2387  0.1564  0.2927
32968W        W75984   2.526  23.925  20.656 -0.0818 -0.0443 -0.0242
32969W        W75985   6.984   6.335  16.646 -0.0904 -0.1319 -0.0172
32970W        W75986   2.886   8.302   9.991 -0.0475  0.2211 -0.1047
32971W        W75987  25.221  20.257  24.642 -0.0179  0.0088 -0.1363
32972W        W75988   7.138  26.386  21.485  0.0527 -0.2765  0.0338
32973W        W75989  27.716  10.616   9.044 -0.2425  0.2366  0.0558
32974W        W75990   1.285  21.379  14.327  0.0852  0.1473 -0.0301
32975W        W75991  26.321   1.140  27.480 -0.1912  0.0867 -0.2696
32976W        W75992   5.018  34.431  14.860  0.2769 -0.1226  0.0826
32977W        W75993   3.351  11.514  26.064 -0.1250  0.0979  0.2874
32978W        W75994   8.522  31.829  10.541  0.0238  0.0734 -0.0408
32979W        W75995  24.922   4.060  20.338 -0.2328  0.1825  0.2708
32980W        W75996  26.068  11.469  28.207 -0.0954 -0.0786  0.1822
32981W        W75997  14.954  30.335   4.148 -0.0607  0.0487 -0.0172
32982W        W75998  23.164  18.376  26.963  0.1664 -0.0822 -0.2503
32983W        W75999   2.396  28.288   6.874 -0.0834 -0.1418  0.1811
32984W        W76000  34.234  22.948  19.449  0.0550 -0.2249  0.0151
32985W        W76001   8.709  24.186  23.810 -0.0247  0.0600 -0.2622
32986W        W76002  20.970  24.888  24.676  0.1564  0.2388  0.2295
32987W        W76003  12.049   7.279   1.234 -0.0403 -0.1020 -0.3475
32988W        W76004   2.284  15.418  21.938 -0.1780  0.1613  0.0325
32989W        W76005   2.417   2.081   2.160  0.0221 -0.0999  0.2924
32990W        W76006   0.393   2.833   0.239 -0.2621  0.1481  0.1536
32991W        W76007  10.540  25.326  24.983  0.0295  0.0524 -0.1532
32992W        W76008  10.743  22.613   0.424  0.1651  0.1110 -0.0378
32993W        W76009  33.270  23.727   9.213  0.0822  0.0513 -0.2237
32994W        W76010   0.868  28.440  28.339  0.1916  0.1735 -0.0044
32995W        W76011   2.729  28.862  27.652 -0.0343  0.1067 -0.0535
32996W        W76012  29.761  22.569  27.551  0.2389 -0.1228  0.2610
32997W        W76013  12.090  25.085  24.209 -0.1513  0.1059 -0.2397
32998W        W76014  15.237  29.482  26.565 -0.0143  0.2761 -0.3531
32999W        W76015  11.688  26.141  24.199 -0.1951  0.5281  0.2069
33000W        W76016  11.637  22.199  26.449  0.2341 -0.0167  0.1452
33001W        W76017  15.749  17.021  22.280  0.1580  0.2220 -0.1707
33002W        W76018  32.670   7.941  26.204  0.1799  0.1849 -0.2603
33003W        W76019  14.275  34.723  19.055 -0.0322  0.0938 -0.0047
33004W        W76020  19.271   1.623  15.003  0.1936  0.1402  0.2353
33005W        W76021  31.526  29.891  18.530 -0.1368  0.0557  0.1520
33006W        W76022   2.451  17.161  22.772  0.0961 -0.2800  0.0782
33007W        W76023   5.167  19.915   0.745 -0.0446  0.2630 -0.3051
33008W        W76024  15.172  14.156  27.606  0.0971 -0.2813  0.0614
33009W        W76025  10.664  15.701  18.567  0.1463 -0.3506 -0.2319
33010W        W76026  25.119  13.543   8.716  0.0276 -0.0810 -0.3045
33011W        W76027  17.969  11.336  18.639  0.2114  0.3657 -0.1516
33012W        W76028  23.720   1.845  24.868  0.0894 -0.0822 -0.3015
33013W        W76029  13.892   3.404  18.160  0.1423  0.2353  0.1306
33014W        W76030  24.263  23.545   3.277 -0.0556 -0.2530  0.1997
33015W        W76031  21.116  23.117   1.721  0.0388  0.0444 -0.0016
33016W        W76032  12.396  12.353  25.344  0.0172  0.0786  0.1697
33017W        W76033  11.591  14.614  27.000 -0.1791  0.2502 -0.1166
33018W        W76034  25.756  22.559   9.385 -0.1421 -0.2443  0.0566
33019W        W76035   8.008  18.519  14.893 -0.2054 -0.2960  0.0904
33020W        W76036  16.294  21.633  23.504 -0.0546  0.0972 -0.0245
33021W        W76037  11.832  11.101  20.974 -0.0046  0.0095  0.1268
33022W        W76038  14.629  29.701   6.206 -0.0870  0.1906  0.1337
33023W        W76039  12.292  24.393   4.403 -0.3139 -0.0900  0.2107
33024W        W76040   8.492  21.162  26.653 -0.1224 -0.0686  0.1508
33025W        W76041  12.019  23.009   7.583 -0.2634 -0.0563 -0.1550
33026W        W76042  28.581  22.392   2.895  0.2637 -0.3228  0.1484
33027W        W76043   8.563  25.611  19.706 -0.1776 -0.0992 -0.0682
33028W        W76044  33.072  12.552   3.434 -0.0338 -0.0677  0.0156
33029W        W76045  16.748  20.038  16.125 -0.2056 -0.1627  0.1572
33030W        W76046  28.352   1.071  21.438  0.2791 -0.2338 -0.1514
33031W        W76047  33.705  20.580  27.654 -0.1272  0.1214  0.0882
33032W        W76048  24.407  25.555   7.800  0.1480  0.1675  0.0252
33033W        W76049  25.284  19.575  23.979 -0.0451 -0.0459 -0.1512
33034W        W76050  10.321   0.362  15.906  0.1484 -0.0388 -0.1973
33035W        W76051   5.302  20.722   7.838 -0.0587  0.2755  0.1556
33036W        W76052  11.520  28.567   4.384 -0.0034  0.0210 -0.1953
33037W        W76053  28.666  16.834   7.122  0.0117 -0.2629 -0.2119
33038W        W76054  32.867  23.408   2.521  0.1375 -0.1113  0.4104
33039W        W76055  33.377  24.148  25.508  0.2800  0.1815  0.2260
33040W        W76056   2.543  34.292  20.729 -0.2141 -0.0118 -0.0147
33041W        W76057   4.794  30.262  26.560 -0.1490  0.3167  0.1174
33042W        W76058  34.574  26.274   9.300 -0.0746  0.0573 -0.1438
33043W        W76059  31.262   1.093  18.664 -0.1037 -0.0100 -0.0212
33044W        W76060  32.780  18.696  15.683 -0.1448 -0.1318 -0.2105
33045W        W76061  32.273   6.250  22.458  0.1742 -0.3788 -0.0470
33046W        W76062  15.615  11.723  22.466  0.2709  0.0128 -0.1342
33047W        W76063  34.638  13.809  24.594  0.4336 -0.2421  0.3598
33048W        W76064   6.101  19.305  26.511 -0.2131 -0.0194  0.1624
33049W        W76065  19.527   5.943   6.144 -0.2447 -0.1217 -0.1150
33050W        W76066   4.326  31.532  23.117 -0.0006  0.0090 -0.2823
33051W        W76067   9.481  23.038  16.604  0.1996 -0.3214  0.2143
33052W        W76068  11.893  18.052  22.546 -0.0328 -0.1564 -0.0898
33053W        W76069  21.457  33.172   8.274 -0.0539 -0.2774 -0.0015
33054W        W76070  30.336  21.205  22.683  0.0309  0.1612  0.0523
33055W        W76071  31.789  30.254  29.184  0.0025  0.0786  0.2173
33056W        W76072  25.964  23.976  26.857 -0.0128 -0.1476  0.2503
33057W        W76073  26.737  11.839  15.284  0.0087  0.0262 -0.1091
33058W        W76074  25.465  17.135   4.285 -0.0887 -0.0563 -0.1301
33059W        W76075  30.064  30.142  20.809 -0.2640  0.1567 -0.1190
33060W        W76076   1.501  33.431  21.829 -0.1963 -0.2486  0.3814
33061W        W76077  14.024  23.633   8.229  0.2919  0.2168  0.2171
33062W        W76078  11.078   1.811  24.208  0.0629  0.0810 -0.1835
33063W        W76079  33.559  22.234   0.724 -0.2665  0.0345  0.0996
33064W        W76080   0.671  13.474  25.248  0.0463 -0.2362  0.0505
33065W        W76081   8.977  19.387  18.062 -0.3419  0.2015 -0.2428
33066W        W76082  10.287  23.838  13.144 -0.0108  0.3349  0.2488
33067W        W76083   8.515  31.576   9.144  0.0560 -0.1822 -0.1067
33068W        W76084   4.429  20.884  26.053  0.0974 -0.0011 -0.0641
33069W        W76085   4.311  26.375  20.436 -0.0014  0.2106 -0.2151
33070W        W76086   0.808  20.695  23.325  0.2176  0.0845 -0.2176
33071W        W76087   8.404  19.529   5.008  0.1387 -0.1613  0.2391
33072W        W76088  31.864  28.699  26.146  0.0450 -0.1860  0.2613
33073W        W76089  25.889  17.302   9.404 -0.2822 -0.0964 -0.2475
33074W        W76090  29.590  19.669  18.995 -0.0078  0.1006 -0.1244
33075W        W76091  27.720  26.355  18.385 -0.1258  0.1619  0.1068
33076W        W76092   6.147  29.809  18.304 -0.2872  0.0583 -0.0638
33077W        W76093   3.766  24.606  10.256 -0.0653 -0.0464 -0.2236
33078W        W76094  17.451  24.184  22.283  0.1513  0.1208  0.0327
33079W        W76095  33.036  18.224   2.544 -0.0107 -0.1291 -0.2345
33080W        W76096  32.152   0.318  22.664  0.3409  0.3880 -0.2034
33081W        W76097   1.521  28.611   9.687 -0.0422  0.3049 -0.2639
33082W        W76098   0.878  32.870   9.958  0.0029 -0.0188 -0.0105
33083W        W76099   9.416  25.940  19.534  0.1949  0.3224 -0.2195
33084W        W76100  31.294  24.521  15.231  0.2844 -0.2054  0.1576
33085W        W76101   9.707  22.293  20.138  0.0815 -0.1215 -0.0806
33086W        W76102   8.179  22.790  22.156 -0.0769  0.1781  0.0693
33087W        W76103  21.620   0.436   7.058 -0.0341  0.1328 -0.2377
33088W        W76104   0.145  20.678  28.001 -0.3562 -0.0092  0.1681
33089W        W76105   2.543  33.805  24.668 -0.2348 -0.1242  0.1112
33090W        W76106  20.805  26.457  22.698 -0.0471  0.0259 -0.4034
33091W        W76107  32.617  17.656  26.510 -0.0648  0.1591 -0.1150
33092W        W76108   6.202  20.044  20.399 -0.4109  0.0842 -0.0174
33093W        W76109   1.585   8.584  25.497  0.1027 -0.4320  0.0135
33094W        W76110  15.290  27.670   4.213  0.1826  0.0572  0.1677
33095W        W76111  32.185  16.814  21.295 -0.3737 -0.0128 -0.0833
33096W        W76112   3.193  25.456  19.246  0.1404  0.1965  0.5871
33097W        W76113   1.132  32.413  27.812 -0.2015  0.2342 -0.1472
33098W        W76114  30.550  30.614   8.142 -0.0067  0.0927 -0.0187
33099W        W76115   3.474   1.927  28.283 -0.1231 -0.0697  0.0152
33100W        W76116  11.954  20.173  26.646  0.2278  0.0094 -0.1670
33101W        W76117   5.094   6.148   4.351 -0.0563 -0.0901  0.0943
33102W        W76118  15.719  22.552  24.623  0.0869  0.3657  0.1425
33103W        W76119   0.789  31.443   2.467  0.1388 -0.0428  0.0656
33104W        W76120  20.353  13.953  16.100  0.2484  0.1638  0.2987
33105W        W76121   6.601  31.977   2.278  0.0241  0.0613 -0.2047
33106W        W76122  30.592   7.346   1.350  0.0193  0.0639  0.0959
33107W        W76123  33.216   9.645  28.095  0.2797 -0.0812 -0.1333
33108W        W76124  14.497  21.248  22.073 -0.2928 -0.4673 -0.2220
33109W        W76125  14.305   6.587   8.458  0.1193 -0.0810 -0.4715
33110W        W76126  16.552  29.804  20.620 -0.1732  0.0605 -0.0284
33111W        W76127  19.465  13.112   3.733 -0.1370  0.0363  0.0756
33112W        W76128  32.183  16.711  20.108 -0.2734 -0.2021 -0.2185
33113W        W76129  20.327  17.779  24.680  0.4268 -0.1330  0.0335
33114W        W76130  22.235  16.256  27.984 -0.0071 -0.0574  0.0965
33115W        W76131  22.473  20.819  25.834  0.4596 -0.1141  0.0722
33116W        W76132   5.396  11.272  10.011 -0.2378 -0.1310 -0.0837
33117W        W76133   5.567  33.810   3.029 -0.0668  0.2563  0.2391
33118W        W76134  23.389  16.317  15.315 -0.0601  0.1427  0.0612
33119W        W76135  21.766  20.503  28.759  0.0004 -0.2795  0.3993
33120W        W76136   6.230  17.456  17.789 -0.2171  0.1784  0.0005
33121W        W76137   1.158  24.283  28.694  0.2972 -0.1910  0.3322
33122W        W76138  34.744   2.735   3.208  0.0600  0.2841  0.0666
33123W        W76139  32.250   0.209  27.811  0.1153  0.1035  0.0611
33124W        W76140   4.753   0.751  22.923  0.1532  0.1864 -0.4455
33125W        W76141  24.898  20.134   7.346 -0.1925  0.1870 -0.2168
33126W        W76142  26.178  16.443  25.587  0.1445  0.2646 -0.1206
33127W        W76143  11.151   9.868  23.301  0.0002 -0.3340 -0.3006
33128W        W76144  30.918   6.800  25.771  0.1446 -0.3510  0.0151
33129W        W76145   8.505  23.870   1.983 -0.1620  0.2402 -0.2060
33130W        W76146   3.975  34.641  18.763  0.0252 -0.3434  0.2917
33131W        W76147  24.013  19.278  24.924 -0.1094 -0.0863  0.0523
33132W        W76148  29.530  20.303   4.884 -0.0865 -0.0641  0.3497
33133W        W76149  17.857  19.747  28.461  0.2640  0.0286  0.1095
33134W        W76150  31.597  22.149  18.616 -0.0554  0.0383 -0.1498
33135W        W76151  24.671  31.489  11.290  0.0042  0.2695 -0.0695
33136W        W76152   6.561   1.170   6.287 -0.2092  0.3274 -0.1065
33137W        W76153  15.727  14.267  22.262 -0.1741  0.3361  0.3023
33138W        W76154  10.253   0.721  29.223 -0.2719 -0.0370  0.0869
33139W        W76155   7.789  23.879  29.035  0.3181 -0.2488  0.1790
33140W        W76156  20.112  29.361  15.657 -0.0654 -0.2873 -0.1934
33141W        W76157   1.040  10.509   6.297  0.0149  0.0478 -0.0925
33142W        W76158  16.153  31.083  19.441  0.1468  0.0458 -0.0281
33143W        W76159  19.735  23.809   9.200  0.1543 -0.2075 -0.1070
33144W        W76160  12.706  23.026  16.194  0.0975 -0.3079  0.3280
33145W        W76161   3.793  27.490  23.688  0.3385 -0.3304 -0.3091
33146W        W76162  24.430   9.268   5.748 -0.2173  0.0570  0.1377
33147W        W76163   0.645  26.683  15.906 -0.3289 -0.1386 -0.3896
33148W        W76164   1.012  25.507   3.258  0.1786 -0.0789 -0.3197
33149W        W76165  25.233  24.613  17.139 -0.0334  0.3839 -0.1530
33150W        W76166  24.704  23.308   3.233 -0.0880 -0.1519  0.0568
33151W        W76167  10.606  15.285   4.324 -0.3719  0.1002 -0.1008
33152W        W76168   9.689  16.805  17.970 -0.0654 -0.0497  0.2936
33153W        W76169  24.149  15.231  21.286  0.0062 -0.2294  0.1898
33154W        W76170  16.699  10.708   2.561  0.0183  0.3672 -0.1824
33155W        W76171   3.725  19.418  28.326  0.1172  0.1461 -0.0335
33156W        W76172  24.566  16.908  15.451 -0.2196  0.1519  0.0140
33157W        W76173   6.100  26.359   2.369 -0.2951 -0.1988 -0.3048
33158W        W76174  22.204  15.043   7.061 -0.1277 -0.1034  0.1013
33159W        W76175  16.608  23.408   0.291 -0.0655  0.4143  0.1596
33160W        W76176  23.913  13.567   0.336 -0.4000  0.2914 -0.0609
33161W        W76177   2.001   9.198  18.360 -0.1356 -0.0692 -0.2311
33162W        W76178  18.742   0.890  15.795 -0.1155  0.0179 -0.1392
33163W        W76179  25.335   6.943  20.477  0.2467  0.2779  0.2676
33164W        W76180   9.834   2.809  21.403  0.1277 -0.2660  0.1099
33165W        W76181   5.928   8.952  23.869 -0.0029  0.1791  0.1672
33166W        W76182  15.265  24.413  16.077 -0.2359  0.3156 -0.0950
33167W        W76183   1.469   2.165  19.562 -0.1203  0.1741  0.2537
33168W        W76184  33.867  27.517  21.513  0.2744  0.2140 -0.2642
33169W        W76185  13.572   1.988  24.767 -0.0926 -0.1220 -0.0610
33170W        W76186  31.235  34.765  17.859 -0.0746 -0.0475  0.1090
33171W        W76187  15.631  28.688  14.715 -0.0201 -0.1844  0.1350
33172W        W76188   2.620  30.023  26.864  0.1578  0.2410  0.1908
33173W        W76189  24.597  24.064  17.590  0.0545  0.0872 -0.2015
33174W        W76190  22.464  22.661  15.092 -0.3411 -0.0959  0.0918
33175W        W76191   5.879   5.031  25.690 -0.0570  0.0421 -0.2570
33176W        W76192  26.373  18.874  20.029  0.2877  0.0812  0.2190
33177W        W76193  26.464  31.876  25.050 -0.2841  0.1064  0.2654
33178W        W76194  11.073  23.113  21.688 -0.1965 -0.1560  0.1707
33179W        W76195  14.846  27.941  19.738  0.0048  0.1492 -0.1550
33180W        W76196   4.642   2.730   1.150 -0.4056 -0.0230  0.5945
33181W        W76197  23.465  25.378   0.398  0.1640 -0.1690  0.1172
33182W        W76198  25.161  28.248  18.204  0.0094  0.0636  0.2420
33183W        W76199  32.559  22.782  22.251  0.3227 -0.6257  0.0441
33184W        W76200   0.499  23.375  16.453  0.1528 -0.0267 -0.2343
33185W        W76201  21.532   0.557  22.537  0.1547  0.0247 -0.1925
33186W        W76202  31.996  17.377  24.769  0.0883 -0.0918  0.0128
33187W        W76203   2.686  27.039  27.827 -0.0187 -0.0270  0.1484
33188W        W76204  13.311  21.077  27.710  0.0301  0.1200 -0.0193
33189W        W76205   4.200   0.853  17.034  0.1830 -0.1192  0.0594
33190W        W76206  33.162   3.344  19.318  0.1471 -0.1342 -0.1457
33191W        W76207   8.871  18.465  17.365 -0.2202 -0.0422  0.1100
33192W        W76208  22.393  27.163  21.905 -0.0378 -0.0378 -0.1681
33193W        W76209   5.909  23.317  14.095  0.1271  0.1150  0.2235
33194W        W76210   5.591  34.051  13.541  0.3862 -0.1088 -0.1291
33195W        W76211  21.830   7.481   0.382  0.1124  0.0846 -0.2117
33196W        W76212  32.720  14.488  22.878 -0.4914  0.2988  0.1860
33197W        W76213   6.121   0.064  17.907  0.0956 -0.1245 -0.2776
33198W        W76214  32.096  10.582  25.985 -0.1230 -0.0381 -0.0359
33199W        W76215   4.069  30.401  14.387  0.0134 -0.2088  0.0399
33200W        W76216  12.359  10.648  14.145  0.0937  0.1466  0.0761
33201W        W76217  11.579  32.654   9.031  0.0265  0.1269  0.2141
33202W        W76218  25.367  13.543  16.149 -0.0517  0.1519 -0.1114
33203W        W76219  16.598  25.229  27.363  0.0124  0.1928 -0.1416
33204W        W76220  11.161  34.523  22.135 -0.0826  0.0408 -0.1988
33205W        W76221   9.255   1.666  22.414 -0.2035  0.0430  0.1687
33206W        W76222  19.716  29.862  19.223 -0.1759 -0.0420  0.1536
33207W        W76223  32.212  18.382   1.500  0.1200  0.1696 -0.1931
33208W        W76224   4.961  10.696  26.636  0.2146 -0.2022  0.2259
33209W        W76225   3.636  20.227  13.849  0.2382 -0.2241 -0.1382
33210W        W76226   7.671  32.272  21.595 -0.2131  0.0038  0.0520
33211W        W76227   0.792   7.075  18.379 -0.2608 -0.1798  0.1856
33212W        W76228   5.175  23.106  22.685 -0.2064 -0.3223  0.0138
33213W        W76229  12.637  23.360  22.720 -0.1776 -0.1082 -0.0785
33214W        W76230  28.820  31.599  21.579 -0.1400  0.0886  0.1312
33215W        W76231   3.273  16.155  22.760  0.1217  0.0308  0.1074
33216W        W76232  18.963  24.413  12.971 -0.3409  0.3446 -0.1236
33217W        W76233  14.576  29.087  21.192  0.0896  0.1360  0.1645
33218W        W76234  18.184  21.661  13.319  0.0472 -0.1874  0.0869
33219W        W76235  17.768  31.214  23.858  0.1342 -0.1092  0.0719
33220W        W76236   2.604  31.107  22.956 -0.0401  0.0382  0.0898
33221W        W76237  11.631  23.327  28.447 -0.0126 -0.2390 -0.2227
33222W        W76238  24.148  30.827  17.889 -0.3393  0.0079  0.3449
33223W        W76239   3.523  25.269  25.062 -0.4467  0.1044  0.1227
33224W        W76240  31.877   9.592   3.378  0.1537 -0.0472 -0.1328
33225W        W76241   0.178  27.564  15.196 -0.1825 -0.1478 -0.2863
33226W        W76242   6.960   7.249  21.898 -0.0812 -0.4292 -0.0538
33227W        W76243  32.885   5.461  19.382 -0.1171  0.0691  0.1677
33228W        W76244  29.216   1.417  23.236  0.2046  0.0519  0.1874
33229W        W76245   6.627  23.352  27.010 -0.1709  0.0093 -0.0846
33230W        W76246  33.782   4.060  23.000  0.2108 -0.1928  0.2207
33231W        W76247  13.969   1.365  25.625 -0.1720 -0.1518 -0.4189
33232W        W76248   3.914  29.952  26.707 -0.1106 -0.1945 -0.1063
33233W        W76249  20.015   2.633  18.555 -0.2457  0.0260 -0.1430
33234W        W76250   8.244  31.283  25.987  0.1540  0.1654  0.0877
33235W        W76251  34.490  16.453  19.714 -0.0801 -0.2315 -0.3235
33236W        W76252   0.698  28.010  21.114  0.2011 -0.1540 -0.0529
33237W        W76253  34.273   2.782  18.717 -0.0392  0.3646  0.0053
33238W        W76254  16.031  29.436  24.713  0.1607  0.1389  0.1930
33239W        W76255   4.945  32.567  17.847  0.1346 -0.0418  0.0711
33240W        W76256  28.814  24.160  27.547  0.0365  0.0642  0.0044
33241W        W76257  31.220  32.831  19.151 -0.3122 -0.2177 -0.2213
33242W        W76258   4.750  30.332  14.263  0.0524  0.4655  0.1591
33243W        W76259  23.772  24.619  25.308 -0.0997 -0.2661  0.3355
33244W        W76260  16.803  27.229  16.126 -0.3411  0.1109 -0.0560
33245W        W76261  12.800  10.953  14.040  0.1435 -0.3381 -0.0428
33246W        W76262  13.197  28.036  18.078 -0.4569 -0.1023 -0.0337
33247W        W76263   5.017  21.715  18.583 -0.1195  0.2042  0.2457
33248W        W76264  23.263  32.481  25.410 -0.0079  0.1740 -0.0837
33249W        W76265  11.341  21.902  22.595  0.2388 -0.0162  0.2742
33250W        W76266   4.241   9.287  19.584  0.2841  0.2747  0.2598
33251W        W76267  31.585  19.999  20.776  0.0490 -0.0155 -0.2857
33252W        W76268  12.775   3.253  21.212 -0.2368 -0.1451  0.1331
33253W        W76269  15.251  24.723  23.468  0.1299 -0.0839 -0.0614
33254W        W76270  29.310  30.550  25.005  0.1518  0.0174  0.0458
33255W        W76271   3.236   8.576  17.013 -0.0204 -0.0672 -0.0343
33256W        W76272  24.738   1.861  16.220 -0.0607 -0.0597  0.3150
33257W        W76273  21.677  21.349   3.202  0.2828 -0.2110 -0.3840
33258W        W76274  31.130   2.192  18.038 -0.1200  0.2328  0.0444
33259W        W76275   5.565  27.789  22.873  0.1551  0.2262  0.1049
33260W        W76276   7.605  33.332  28.544  0.0593  0.1450 -0.1863
33261W        W76277   7.541  32.849  15.278 -0.4183  0.1589 -0.1350
33262W        W76278  21.198   5.593  27.633 -0.1078  0.0725 -0.0980
33263W        W76279  34.574  31.102  20.151  0.1787 -0.0307 -0.0411
33264W        W76280  11.916  26.571   1.174  0.0646 -0.1258  0.3140
33265W        W76281  20.142  27.423  16.549 -0.1079  0.1342 -0.2186
33266W        W76282  18.117   7.467  18.413 -0.1760 -0.0512  0.1574
33267W        W76283  15.403   3.127  19.563  0.1833 -0.0293  0.1585
33268W        W76284  12.255   0.884  21.412 -0.1124  0.1808 -0.1701
33269W        W76285   2.749   3.998  22.271  0.2506  0.0813 -0.3521
33270W        W76286   8.815   4.172   5.382  0.1127  0.0012 -0.1129
33271W        W76287   2.505  17.507  20.732  0.1289 -0.0472  0.1817
33272W        W76288   6.989  23.360  17.290  0.2424 -0.3340  0.0760
33273W        W76289  25.136  29.609  22.839  0.0506 -0.0609 -0.1102
33274W        W76290  34.739  31.786  18.071 -0.3880  0.0749 -0.2013
33275W        W76291  34.133  16.509  18.699  0.1527  0.0654  0.1165
33276W        W76292  23.575   1.069  19.854 -0.2504 -0.0292 -0.4166
33277W        W76293   5.373  12.505  19.880  0.0894  0.0823 -0.1066
33278W        W76294   0.973  28.621  20.704 -0.0800  0.2659 -0.2312
33279W        W76295  19.870  30.511  19.775 -0.2390  0.1608 -0.1479
33280W        W76296   7.625   8.381  27.911  0.0638 -0.0163 -0.1693
33281W        W76297  14.079  25.461  27.620 -0.1904  0.3058 -0.0405
33282W        W76298   7.324  29.948  17.037 -0.1683 -0.0557 -0.2642
33283W        W76299  34.388   7.596  23.099 -0.1713 -0.2467 -0.1983
33284W        W76300  31.158   0.285  17.438 -0.0638 -0.1932  0.1289
33285W        W76301  22.875  33.461  23.764 -0.2411  0.2250 -0.1170
33286W        W76302   4.995  22.440  15.496 -0.1426 -0.0004 -0.0077
33287W        W76303   7.563  30.951   3.063 -0.2696 -0.0265  0.0565
33288W        W76304   2.753   7.942  16.938  0.0931 -0.1463  0.2763
33289W        W76305  31.838  33.496   6.458  0.0522 -0.0952  0.1488
33290W        W76306   0.531  26.763  19.823 -0.0640 -0.1951  0.0629
33291W        W76307  15.061   2.499  27.172 -0.1011 -0.1061 -0.1433
33292W        W76308   3.959  24.121  14.443  0.1112  0.2150  0.0613
33293W        W76309   0.900  24.195  16.880  0.1416  0.2999  0.5037
33294W        W76310  11.445  34.682  23.100  0.0034 -0.3078  0.2261
33295W        W76311   6.932  25.321  17.241  0.0806 -0.0579  0.1132
33296W        W76312  13.841  24.437   4.527 -0.1750 -0.1435 -0.1146
33297W        W76313  15.150  17.565  20.543  0.0633 -0.2290 -0.1945
33298W        W76314  10.137   7.130  18.847  0.0129 -0.1647  0.2235
33299W        W76315   9.030  33.667  20.831  0.2812 -0.1944  0.3250
33300W        W76316   6.789  25.272  14.719  0.1126 -0.1033  0.1763
33301W        W76317  34.702  12.257  19.580 -0.0454  0.2150  0.0543
33302W        W76318   8.062  18.075  22.605 -0.1252  0.0687 -0.0628
33303W        W76319   6.467  29.059  21.977 -0.1601 -0.1447  0.3565
33304W        W76320  10.203  31.683  17.211  0.1986  0.1162 -0.3203
33305W        W76321  33.487  33.348  17.457  0.3529  0.4308  0.2050
33306W        W76322   1.101  27.031  28.236  0.2025  0.1743 -0.1266
33307W        W76323  20.421   9.459   5.580 -0.3675 -0.2172  0.2359
33308W        W76324  17.454  13.405  24.901 -0.0193  0.2420  0.1157
33309W        W76325   3.862  23.255  17.050  0.0137 -0.0583  0.1042
33310W        W76326   9.433  11.309   0.215  0.2831  0.1793  0.1922
33311W        W76327   7.122  28.457  26.358 -0.0595  0.0793 -0.1318
33312W        W76328  32.363   8.793  26.526 -0.3254  0.4439  0.2020
33313W        W76329  10.669  26.949  28.864 -0.2328 -0.1495 -0.1339
33314W        W76330  11.813  31.177  21.662 -0.0779  0.1206  0.1417
33315W        W76331  10.695  32.549  17.595  0.3539  0.1412  0.1055
33316W        W76332   5.957   6.045  17.931 -0.0145 -0.1888  0.2217
33317W        W76333  26.581  15.216  27.916 -0.0704  0.2759 -0.0552
33318W        W76334   0.853   1.686  14.630 -0.1596 -0.1380 -0.0202
33319W        W76335   1.100  32.244  23.863 -0.2350  0.1234 -0.1592
33320W        W76336  31.622  24.835  16.451  0.2485  0.2785  0.2012
33321W        W76337  14.577   8.160  28.612 -0.1823  0.0127  0.2806
33322W        W76338  23.510   2.741  20.316  0.2019 -0.3325  0.0765
33323W        W76339  31.097  21.992  27.418  0.0344 -0.2201  0.1904
33324W        W76340   8.949  30.515  18.922  0.1385  0.1156  0.0951
33325W        W76341   3.579  20.081  22.349  0.0875  0.1816  0.0439
33326W        W76342  17.242  21.352  23.911 -0.2044 -0.2756 -0.0029
33327W        W76343  28.934  27.085  21.713 -0.2001 -0.0454  0.1974
33328W        W76344  31.112   4.217  21.080 -0.2960 -0.2411 -0.0055
33329W        W76345   5.097   9.866  24.644  0.0698 -0.1269  0.0212
33330W        W76346  16.258   4.750  17.466 -0.0777  0.0801  0.1241
33331W        W76347  13.679  34.208  17.860  0.1441 -0.2485  0.3398
33332W        W76348  12.718  31.368  25.494  0.0861 -0.2663 -0.0030
33333W        W76349  34.507  11.117  29.291  0.2641 -0.3068 -0.0040
33334W        W76350   2.260  26.397  28.642 -0.1162 -0.4712  0.0880
33335W        W76351   9.014  33.858  24.895  0.1075 -0.1866  0.1055
33336W        W76352  33.602   2.382  26.843 -0.1174  0.1495 -0.3041
33337W        W76353  19.611  25.994   0.349  0.3529  0.2333 -0.0299
33338W        W76354  15.141  16.712  14.604 -0.1549  0.1973  0.1349
33339W        W76355  13.278   0.286  16.899  0.0512 -0.0149 -0.0751
33340W        W76356  29.079  34.323  20.813 -0.2238 -0.0734 -0.2626
33341W        W76357  13.745  33.048  20.973 -0.0075 -0.0164  0.3328
33342W        W76358  33.292   1.592  25.736  0.1509 -0.1285  0.1849
33343W        W76359   8.508   3.003  21.298 -0.0046  0.1913  0.3011
33344W        W76360  11.824  30.712  14.951 -0.0041  0.1053 -0.0210
33345W        W76361   3.666   3.462  20.474  0.1805  0.0077 -0.0726
33346W        W76362  21.318  22.549  18.257  0.0898 -0.1701  0.1075
33347W        W76363  34.756  31.178  22.514 -0.1425  0.0173  0.3851
33348W        W76364  11.260  10.104  24.070 -0.1541 -0.1211 -0.2441
33349W        W76365   6.774   1.419  20.323 -0.1862 -0.0541  0.0024
33350W        W76366   5.701  24.354  18.230 -0.0280 -0.0084  0.0331
33351W        W76367  20.806  19.629  20.735  0.0249 -0.1733 -0.0203
33352W        W76368  19.547  23.305  25.307  0.2693 -0.1634  0.1922
33353W        W76369  11.884  15.919  27.882 -0.1608 -0.0289  0.0251
33354W        W76370  13.790  29.969   0.574  0.1347 -0.0355  0.2656
33355W        W76371  34.665   8.101  15.642 -0.2336  0.6695  0.1773
33356W        W76372  34.397  26.254  27.728  0.1017 -0.0369  0.0285
33357W        W76373   0.939  28.162  25.477  0.0951 -0.0260  0.2603
33358W        W76374   3.631  24.813  14.078 -0.0002 -0.4236  0.2162
33359W        W76375   7.747  28.257  23.990  0.0300  0.3475 -0.1224
33360W        W76376  16.510   1.670   4.160 -0.1013 -0.0389  0.0117
33361W        W76377   0.171   7.152  15.593 -0.1244 -0.1521  0.1719
33362W        W76378  27.283  21.624  17.132 -0.1006 -0.0215 -0.2505
33363W        W76379  28.977  32.855  23.383  0.6628  0.1035  0.1520
33364W        W76380   0.032  34.028  19.239  0.0564  0.0971  0.0104
33365W        W76381  18.841  29.110  16.587 -0.1103 -0.2287 -0.0277
33366W        W76382  10.940   0.372  24.698 -0.0902 -0.1163 -0.4737
33367W        W76383  15.418  29.936  23.274  0.0710  0.6076  0.1529
33368W        W76384   8.067  33.027  23.250 -0.1801 -0.1055  0.2072
33369W        W76385   1.737   3.435  23.570 -0.0603 -0.2316  0.1210
33370W        W76386  28.918   3.100  22.989  0.2962 -0.6437  0.1511
33371W        W76387   2.262   3.086  19.394 -0.2098 -0.0427  0.3280
33372W        W76388  32.345  26.909  28.976  0.1149 -0.1729  0.0586
33373W        W76389  10.550  26.330  12.964 -0.0046  0.2440  0.1648
33374W        W76390  21.536  12.874  14.424 -0.0723 -0.1721 -0.1697
33375W        W76391  33.401  33.596  19.499 -0.4701  0.0297 -0.1919
33376W        W76392  10.517  25.995  17.236  0.0564  0.1499  0.4355
33377W        W76393  11.771  34.537  21.988 -0.1695  0.1275 -0.1561
33378W        W76394  29.002   6.907  17.157  0.0295  0.0285  0.0651
33379W        W76395  29.611   2.198  24.562  0.1818 -0.0833 -0.2270
33380W        W76396   2.052   0.935  15.526 -0.0611  0.1515 -0.2678
33381W        W76397  15.969  33.519  27.969  0.0868 -0.0780 -0.0446
33382W        W76398   7.156   5.834  19.161  0.0296  0.2094  0.2702
33383W        W76399   3.338  13.822  16.195  0.0196  0.1816  0.0411
33384W        W76400  12.609   3.980  18.366  0.2172 -0.0354  0.2015
33385W        W76401  33.717  22.170  21.543 -0.1329  0.1162 -0.0268
33386W        W76402  31.536  25.117  24.441  0.1042 -0.0530  0.5343
33387W        W76403  13.779  28.233  28.008 -0.0899 -0.0087  0.4135
33388W        W76404   1.079   6.296  19.822 -0.0856 -0.1966 -0.2113
33389W        W76405   9.630  27.416  13.842 -0.0812  0.0066 -0.0484
33390W        W76406  16.267  10.400  22.799  0.1829  0.2051 -0.2052
33391W        W76407  22.482  14.208  15.543  0.3059 -0.1982  0.1289
33392W        W76408  18.885  34.536  21.179 -0.0548  0.3670  0.0057
33393W        W76409  30.377  18.006   3.662  0.2430  0.1559  0.0688
33394W        W76410  30.664  31.449  23.201  0.0011 -0.0404 -0.2391
33395W        W76411  32.325  28.455  28.149  0.3618  0.0007 -0.2271
33396W        W76412   2.300  31.038  19.342  0.1375  0.3862 -0.1185
33397W        W76413   3.552  34.319  25.232  0.0952  0.1113 -0.3622
33398W        W76414  31.510  34.394  28.308  0.2432  0.0258  0.0334
33399W        W76415  13.185   8.893   9.050  0.0250  0.2500  0.2474
33400W        W76416   4.257  21.826  16.028 -0.0130 -0.0504  0.2132
33401W        W76417  25.403  24.068  21.604  0.4939  0.4155  0.2111
33402W        W76418  29.418  23.239  16.859  0.0116  0.0568 -0.2071
33403W        W76419  14.227   5.723  27.611 -0.2395  0.2258 -0.3784
33404W        W76420  27.918  27.004  25.954 -0.1185 -0.1364 -0.0542
33405W        W76421  28.289  22.512  20.673 -0.2245 -0.2868 -0.1492
33406W        W76422  13.134   9.162  18.433  0.1475 -0.1818  0.3434
33407W        W76423   6.812  27.847  21.007 -0.0044 -0.0988 -0.0608
33408W        W76424  12.754   2.324  21.349 -0.1948  0.2537  0.2689
33409W        W76425   4.410  15.343  28.764 -0.2126  0.0186  0.1038
33410W        W76426   6.212  31.260  23.851 -0.1739 -0.1117 -0.0187
33411W        W76427   7.584  19.603  13.308  0.0777 -0.1733 -0.0472
33412W        W76428  28.611   2.396  14.826 -0.0974  0.0692 -0.1659
33413W        W76429   0.630  32.451  16.692  0.2069 -0.0351  0.2503
33414W        W76430  34.573   0.480  21.750  0.0227 -0.0400  0.1248
33415W        W76431  17.573  32.017  25.298  0.3523  0.1381  0.0003
33416W        W76432   7.632  26.185  22.375 -0.1221  0.2365  0.0061
33417W        W76433   6.098  14.706  16.431 -0.4995  0.0335  0.1239
33418W        W76434  11.411   6.536  21.407  0.2448 -0.1290 -0.0095
33419W        W76435   8.531   5.230  22.743  0.0610  0.1664  0.0085
33420W        W76436  11.685   6.144  18.598  0.2319  0.0773 -0.0499
33421W        W76437  32.144   5.453  18.032 -0.0237 -0.1152  0.0638
33422W        W76438  11.596  29.434  15.074 -0.1328  0.1713 -0.1610
33423W        W76439  32.564  20.640   4.913  0.0007  0.2992 -0.0988
33424W        W76440   6.564  25.176  22.177 -0.1880  0.0238 -0.4199
33425W        W76441  29.407   9.660  20.624 -0.0877  0.0760 -0.0041
33426W        W76442  10.145  27.711  18.847 -0.0723  0.2335 -0.0062
33427W        W76443   1.934  25.498  18.566 -0.1024 -0.1042 -0.2127
33428W        W76444   9.831  30.746  29.239 -0.0882  0.2778 -0.2507
33429W        W76445  33.177   0.534  22.827 -0.4551  0.2299 -0.0382
33430W        W76446   1.133   2.149  14.384  0.2512  0.0538  0.3324
33431W        W76447  22.400  28.979  17.239 -0.1374  0.1407 -0.1325
33432W        W76448   3.534   5.758  21.734  0.1955 -0.3960  0.0946
33433W        W76449  16.757  33.882  18.313  0.2266  0.1857  0.0434
33434W        W76450  19.455   4.530   3.137 -0.1457 -0.3896  0.1242
33435W        W76451   5.004  12.445   3.400 -0.2374 -0.0021  0.1251
33436W        W76452  26.407  25.435  16.531 -0.1956  0.0187 -0.1021
33437W        W76453  29.955  29.351  19.163  0.0847  0.1979  0.0076
33438W        W76454   1.020   3.667  19.404  0.3396 -0.1418 -0.2024
33439W        W76455   0.235   1.429  18.781  0.0720 -0.0124  0.4547
33440W        W76456  33.153   3.628  19.777  0.0413  0.1709 -0.0837
33441W        W76457  22.817  18.302   3.365  0.3414  0.0389 -0.0708
33442W        W76458  28.389   7.288  25.511  0.3222 -0.3013 -0.2514
33443W        W76459  10.030  27.692  25.164 -0.2540  0.2336 -0.1696
33444W        W76460  17.685  33.781  14.612 -0.2320  0.1330 -0.0623
33445W        W76461   7.474  25.115  20.659  0.0701  0.0544 -0.2882
33446W        W76462  19.275  24.273  13.935  0.1204  0.0080  0.0169
33447W        W76463   6.220  26.708   0.752  0.0758 -0.1683 -0.2566
33448W        W76464   3.139  30.290  21.843 -0.0753  0.2171 -0.0020
33449W        W76465  15.104   1.890  14.693  0.1211 -0.2167 -0.0065
33450W        W76466   4.751   6.992  27.594  0.0388 -0.1968 -0.2146
33451W        W76467  32.876   7.501  17.793  0.1906  0.0092 -0.0440
33452W        W76468   7.292  25.485  24.530 -0.4468  0.1350  0.1115
33453W        W76469  30.578   3.706   3.284  0.0574  0.0005 -0.1896
33454W        W76470   2.908  21.158   1.947 -0.1360  0.3749 -0.0380
33455W        W76471   9.387  21.732  24.489  0.0435 -0.0841 -0.0018
33456W        W76472   3.312  15.366  23.649  0.0823  0.0022 -0.2816
33457W        W76473   9.178   9.640  16.764 -0.0812 -0.2238  0.2808
33458W        W76474   7.673  21.706  25.624  0.7435 -0.1616 -0.0571
33459W        W76475   5.685  20.626  14.880  0.1367 -0.1765 -0.2001
33460W        W76476  13.889  30.927  27.948  0.2697 -0.1844  0.1190
33461W        W76477   8.944  31.463  28.158  0.1489 -0.0296 -0.2793
33462W        W76478  34.540   1.956  17.726 -0.1305  0.2483  0.0620
33463W        W76479   7.971  29.076  17.905 -0.2927  0.0771  0.0301
33464W        W76480   9.054  18.793  16.226  0.2344 -0.0872  0.0991
33465W        W76481   8.047   9.607  14.704 -0.1347 -0.0948  0.1791
33466W        W76482   0.971  28.561   4.586  0.0016  0.1984  0.0634
33467W        W76483  28.497   5.911   1.120  0.1651  0.3062 -0.0056
33468W        W76484   6.504   2.114  14.757 -0.1095 -0.1482  0.2959
33469W        W76485  26.810  21.412  18.992  0.2490  0.1663  0.0720
33470W        W76486  33.017  29.747   1.169  0.0652  0.0381 -0.0914
33471W        W76487   2.726  29.408  15.022 -0.1167  0.1418  0.0425
33472W        W76488  29.800  21.478   3.068 -0.1127 -0.1275  0.1305
33473W        W76489   7.388   4.939  19.736  0.2856  0.0379  0.2127
33474W        W76490  10.005  28.764  20.159 -0.0352  0.0835 -0.0175
33475W        W76491  23.233  27.376   0.640 -0.3823  0.0840 -0.0106
33476W        W76492   3.359   1.242  13.722 -0.2562  0.1610 -0.0240
33477W        W76493  24.517   4.291  20.126 -0.2206 -0.0653  0.4982
33478W        W76494  18.313  30.422  15.606 -0.1188  0.3419  0.1416
33479W        W76495  21.598   0.148  16.426 -0.1421  0.1400  0.0156
33480W        W76496  34.546  34.191  15.736  0.0426  0.0409 -0.0424
33481W        W76497  34.569  30.383  24.788 -0.1889 -0.3238 -0.1972
33482W        W76498  16.558  30.244  25.560 -0.0777 -0.2814 -0.0804
33483W        W76499   2.201  16.707  18.988 -0.1580 -0.0928 -0.0119
33484W        W76500   5.233   9.924  28.050  0.1172  0.2006  0.1778
33485W        W76501  20.587  10.008  21.081  0.0666  0.3677 -0.1771
33486W        W76502   2.326  29.894  19.440 -0.2041  0.1088 -0.1562
33487W        W76503   9.177   3.668  15.011 -0.2710  0.1235  0.3207
33488W        W76504  30.366   5.786  27.088  0.1926 -0.2156  0.1886
33489W        W76505  18.485  25.810  22.738 -0.0409  0.0412 -0.0534
33490W        W76506  10.746  34.492  19.098  0.1404  0.0497 -0.3601
33491W        W76507  15.719  25.555  14.843 -0.1493 -0.0173  0.1108
33492W        W76508   3.803   5.532  23.736  0.0883  0.1325 -0.2059
33493W        W76509   7.157  34.112  22.665 -0.1049 -0.0253 -0.2240
33494W        W76510   5.873   2.875  25.462 -0.0175 -0.4648 -0.2981
33495W        W76511  34.065  32.667  20.357 -0.3153 -0.0722  0.0049
33496W        W76512  13.865  29.477  26.438  0.2714  0.1466 -0.1585
33497W        W76513  34.354  21.839   9.639  0.0515  0.1172 -0.2469
33498W        W76514  12.256   2.981  15.077  0.0113 -0.1402  0.0931
33499W        W76515  10.499  14.028  25.998  0.2235  0.2191  0.2268
33500W        W76516  14.020  26.950   1.450  0.1841  0.1335  0.2181
33501W        W76517   8.811  20.422  18.428  0.5367  0.0347 -0.2382
33502W        W76518  16.511   0.089  16.197 -0.4238  0.0439  0.1576
33503W        W76519  12.392  20.104  22.305  0.0468  0.1898  0.1905
33504W        W76520  23.525   1.798  23.894 -0.0225 -0.1305  0.1760
33505W        W76521   1.183  19.346  21.713  0.3310 -0.1170 -0.0216
33506W        W76522   5.208  12.855  27.474  0.0456 -0.5573  0.2193
33507W        W76523  33.483  11.430   1.846  0.1417 -0.1059  0.1772
33508W        W76524   8.556  21.813  28.118  0.1139 -0.0332  0.1154
33509W        W76525  25.059  12.050  19.986  0.0720 -0.2225  0.2600
33510W        W76526   5.378  16.359  25.857  0.0672  0.0607  0.1062
33511W        W76527  31.933   0.964  19.321  0.3075 -0.0167 -0.0137
33512W        W76528  20.394  27.576  26.661 -0.0174  0.0939 -0.0311
33513W        W76529  12.149  24.308  25.598 -0.3862 -0.0873  0.1230
33514W        W76530  28.450   4.829  25.445 -0.3636 -0.1403  0.0731
33515W        W76531   6.868  10.224   0.825 -0.3486 -0.1469 -0.0813
33516W        W76532  11.002  32.831  19.792 -0.1430 -0.0513  0.1063
33517W        W76533   7.713  31.134  17.891  0.0307 -0.0193 -0.0696
33518W        W76534   6.460   0.679   8.495 -0.0919 -0.0565  0.1322
33519W        W76535   9.585  23.563   0.942 -0.3243  0.0871 -0.0171
33520W        W76536   0.803  27.929  15.857  0.0058 -0.0248 -0.1593
33521W        W76537  30.647  33.982  19.660  0.0792 -0.3451  0.0825
33522W        W76538  25.964  26.802  17.227 -0.0988  0.0767 -0.2431
33523W        W76539   6.432  25.739  17.843 -0.1844 -0.2206 -0.1634
33524W        W76540  31.734  19.613  21.295 -0.0550 -0.0143 -0.0012
33525W        W76541  14.340  11.885  13.784  0.0487 -0.0100 -0.0050
33526W        W76542  28.082   2.972  21.485  0.0279  0.1373 -0.2700
33527W        W76543   6.432  27.884  25.511  0.2043 -0.0198  0.2946
33528W        W76544   8.319  10.518  13.932 -0.2337 -0.3963  0.0951
33529W        W76545   7.470  29.957  14.730 -0.0507 -0.0487  0.1048
33530W        W76546  18.883   6.755  23.559  0.1507  0.1714 -0.0148
33531W        W76547  20.029  13.893   2.925  0.3583  0.0109  0.1160
33532W        W76548   2.712   9.862  18.565  0.2397  0.3161  0.1472
33533W        W76549  31.032  30.986  22.682  0.0486 -0.1876  0.2368
33534W        W76550  10.943  24.233  15.626 -0.3052 -0.1523  0.2775
33535W        W76551  27.774   3.721  24.695 -0.0061  0.3168  0.0430
33536W        W76552  17.957  25.918  15.393 -0.5336 -0.1046 -0.0159
33537W        W76553   4.694   4.804  26.431 -0.1276 -0.0506 -0.2007
33538W        W76554   7.563  32.907  14.761 -0.0290 -0.0742 -0.1525
33539W        W76555   5.150  30.367  20.602  0.2266  0.3296  0.1330
33540W        W76556  24.508  34.438  17.221 -0.0492  0.1994 -0.2257
33541W        W76557   5.962  10.936  19.388  0.0552 -0.3844 -0.0399
33542W        W76558   1.777   5.614  17.833 -0.2051  0.0025 -0.1230
33543W        W76559   7.598   0.969  15.726 -0.1325 -0.0591  0.0500
33544W        W76560   4.889  20.291  18.794  0.1151  0.1591 -0.1053
33545W        W76561  14.057  14.767  13.651  0.2836 -0.2657  0.0041
33546W        W76562  13.997  26.995  19.328  0.3516 -0.0200 -0.1588
33547W        W76563  13.774  21.268  15.806 -0.1386  0.0386  0.1875
33548W        W76564  11.719  31.968  18.847 -0.0940  0.0338 -0.0834
33549W        W76565  12.654  30.821  15.647  0.0816 -0.1280  0.1586
33550W        W76566  17.837  10.252  13.263  0.2111  0.0177  0.0530
33551W        W76567  34.573   6.572  22.234 -0.0761 -0.3995 -0.2080
33552W        W76568   1.714  17.964  16.478 -0.0789  0.2726  0.0357
33553W        W76569  27.791  25.540  21.257 -0.1406 -0.2476  0.3005
33554W        W76570   0.433   0.550  17.801  0.2719 -0.2021  0.4130
33555W        W76571  30.488  34.690  26.953 -0.1043  0.0869 -0.0669
33556W        W76572  11.357  13.871  13.845 -0.1604  0.0095  0.0187
33557W        W76573  10.505  20.055  26.613 -0.1693  0.3541  0.1080
33558W        W76574   8.297  23.012  25.722 -0.0210 -0.2116  0.0543
33559W        W76575  13.218  15.321  22.306  0.3402 -0.0570 -0.3339
33560W        W76576  14.558  13.473  11.959 -0.2739  0.1382 -0.0446
33561W        W76577  34.393   0.385  20.479  0.0128 -0.1929  0.0845
33562W        W76578  34.183   0.231  23.685 -0.0959  0.2774  0.0204
33563W        W76579  16.520  28.606  23.285  0.0490  0.0081  0.3021
33564W        W76580  33.463  29.999  15.797  0.1572  0.1562 -0.0412
33565W        W76581  18.601  23.119  18.893  0.3731 -0.0159 -0.0505
33566W        W76582  18.814  14.019  14.720 -0.0498 -0.2461 -0.1025
33567W        W76583  33.157  34.189  23.677  0.1197  0.3346  0.1653
33568W        W76584   5.479   5.712  18.639 -0.1960  0.2898  0.2337
33569W        W76585  13.696  30.064  21.700 -0.0745  0.1736  0.0194
33570W        W76586   9.479   5.759  16.586  0.0365 -0.0872  0.1391
33571W        W76587   2.715  33.089  17.139  0.0189 -0.0546 -0.2798
33572W        W76588   8.737  18.837  21.908 -0.0542 -0.2115 -0.0709
33573W        W76589  31.542  23.481   1.643 -0.1307 -0.0502 -0.2234
33574W        W76590   9.980   4.620  15.388  0.2335  0.0530 -0.1863
33575W        W76591   8.600  24.543  28.073 -0.3926  0.0285  0.1303
33576W        W76592   7.509  34.406  19.477  0.0093 -0.3855 -0.0041
33577W        W76593   7.148  15.886  17.272  0.0387  0.1229  0.3546
33578W        W76594   4.264  16.809  15.002  0.1868 -0.0344  0.3044
33579W        W76595  11.228  26.049  18.365 -0.1232 -0.2794 -0.3979
33580W        W76596  15.858  17.091  14.823  0.0501  0.3026  0.3418
33581W        W76597  32.396   2.282  15.036 -0.3112  0.1897 -0.2846
33582W        W76598  28.376  28.410  19.969  0.0693 -0.0328  0.0496
33583W        W76599   8.281  28.715  16.069 -0.2131  0.2716  0.0442
33584W        W76600   3.833   3.142  18.239  0.2824  0.0585 -0.0433
33585W        W76601  17.265  30.041  27.509  0.1663  0.0602  0.1193
33586W        W76602  30.184  32.503  25.880  0.1189  0.1480  0.1770
33587W        W76603  13.355   3.023  15.853 -0.1105 -0.2672 -0.0169
33588W        W76604  12.304  28.235  25.349  0.1265 -0.0489  0.2148
33589W        W76605  13.265   7.781  13.610 -0.0082 -0.0784  0.1404
33590W        W76606  31.598   4.494  16.847  0.0018 -0.0295 -0.4045
33591W        W76607   8.290  33.973   7.916  0.0769 -0.0053 -0.0015
33592W        W76608  26.266  22.542  23.049 -0.0969 -0.3140  0.0612
33593W        W76609   4.610  31.539  20.304 -0.0484  0.1314 -0.1268
33594W        W76610   7.533  19.446  17.375 -0.1489  0.1140  0.1960
33595W        W76611   5.761   3.904  17.789 -0.2368  0.0107 -0.3114
33596W        W76612   8.346  20.381  28.178  0.0463  0.0267  0.1116
33597W        W76613   5.317  31.843  28.271 -0.2507  0.0818  0.1167
33598W        W76614   0.996   6.035  20.284 -0.2593 -0.0546 -0.1157
33599W        W76615  12.247   6.137  15.419  0.0309 -0.0064 -0.0791
33600W        W76616   5.378   2.129   8.943  0.1785 -0.6045 -0.1638
33601W        W76617   7.736  25.665  14.664  0.0601  0.0900 -0.3056
33602W        W76618   7.207  16.573  18.081 -0.1892  0.0062 -0.0838
33603W        W76619  30.800   2.386  23.077  0.1827  0.0838 -0.0495
33604W        W76620  34.597   9.161   0.022 -0.0711 -0.1139 -0.0847
33605W        W76621  33.130  21.723  18.133  0.1180 -0.1475 -0.2370
33606W        W76622  28.179  29.510   0.811 -0.4042 -0.2493 -0.2671
33607W        W76623  13.481  28.741  16.057  0.0098 -0.0223  0.1953
33608W        W76624   1.544  30.782  18.045 -0.0600  0.1627  0.1636
33609W        W76625  34.250   3.135  21.837  0.0239 -0.1672 -0.1233
33610W        W76626   5.046  19.084  26.960 -0.1229 -0.1860  0.0010
33611W        W76627  16.428  28.395  27.356  0.2257  0.5069 -0.3689
33612W        W76628  28.267   1.292  22.989  0.2340 -0.2945 -0.1525
33613W        W76629   9.387   0.575   1.367  0.1415  0.1253  0.0811
33614W        W76630  13.571   4.783  14.337  0.1313  0.0570  0.2294
33615W        W76631   0.030  10.813   3.003 -0.0853 -0.1974  0.1527
33616W        W76632  22.123  14.635  23.918  0.4067 -0.1612  0.0528
33617W        W76633  33.298  34.443  15.099 -0.0573 -0.1367 -0.3424
33618W        W76634  19.385   3.171  26.790 -0.1230  0.1207 -0.1370
33619W        W76635  14.474   9.826  18.530  0.0881 -0.1329  0.2252
33620W        W76636  15.872  29.505  22.396 -0.1397 -0.0303 -0.1213
33621W        W76637   2.897  28.164  14.252 -0.5800  0.2824 -0.1069
33622W        W76638  16.680  19.800   1.798 -0.0537 -0.0427  0.1728
33623W        W76639  32.624  19.311  20.888 -0.0176 -0.0539 -0.1645
33624W        W76640  30.128   0.062  20.625 -0.1221  0.1732 -0.0732
33625W        W76641   9.032  21.778   2.634 -0.0753  0.1216  0.1082
33626W        W76642   8.698  28.414  21.935  0.1413  0.0421  0.2035
33627W        W76643   2.467  18.484  18.659  0.0069  0.0509 -0.1186
33628W        W76644  11.824  31.460  25.860 -0.0272  0.2424  0.4652
33629W        W76645   0.357   6.432  23.052  0.2773  0.0528  0.0659
33630W        W76646  10.333   1.137  17.508  0.1979 -0.0808 -0.0267
33631W        W76647  10.198  25.953  20.916 -0.0070 -0.0146  0.0935
33632W        W76648   8.693  27.474  16.282  0.2710  0.0948 -0.1230
33633W        W76649   7.048  27.730  15.752 -0.2293  0.1581 -0.5084
33634W        W76650   8.603   6.197  22.395 -0.0935 -0.2478  0.2076
33635W        W76651  12.076  28.227  19.021 -0.0798  0.3224 -0.0097
33636W        W76652   3.412  21.004  27.406  0.1174 -0.1449 -0.0001
33637W        W76653   3.527   9.428  13.722  0.1441 -0.0238  0.0181
33638W        W76654   8.118   1.562   4.997  0.1251  0.1205  0.2336
33639W        W76655  28.854   1.547  24.922  0.2182 -0.0776  0.2806
33640W        W76656  19.704   7.553  27.610 -0.3182  0.1172  0.2273
33641W        W76657  12.177   7.429  16.386  0.2347  0.0737  0.1028
33642W        W76658   4.429  28.560  25.225  0.0673  0.0321 -0.2708
33643W        W76659  27.198  32.755  20.964 -0.1295  0.2375 -0.1641
33644W        W76660   8.668  21.765   2.973  0.2338  0.2517 -0.2988
33645W        W76661   2.579  32.854  14.962 -0.1789  0.2585 -0.0452
33646W        W76662  26.355  23.840  24.993 -0.4099  0.1180 -0.1360
33647W        W76663   2.977   6.156  22.833  0.2026  0.1856  0.0493
33648W        W76664   9.350  13.664  29.191 -0.2680 -0.1367 -0.1594
33649W        W76665   3.851  19.154  22.203 -0.0315  0.1865  0.0537
33650W        W76666   8.947  33.210  19.456  0.0082  0.1485 -0.3484
33651W        W76667  18.507  27.469  26.108 -0.3606  0.0917 -0.1032
33652W        W76668   0.133   0.836  20.664  0.2284  0.0985 -0.0993
33653W        W76669  15.061  30.751  16.765  0.2097 -0.0345 -0.2905
33654W        W76670   3.181   1.325  22.748  0.1699  0.2555  0.3395
33655W        W76671  29.634   0.280   0.087  0.2519 -0.0630 -0.1188
33656W        W76672   8.336  33.177  17.054 -0.1625 -0.0058  0.0100
33657W        W76673   1.946  30.932  18.951 -0.4600 -0.1654 -0.0943
33658W        W76674  13.038   3.883   1.311 -0.1027 -0.1985  0.0143
33659W        W76675  10.095  31.040  18.352 -0.1630 -0.2915 -0.0685
33660W        W76676  16.523  28.397  17.471  0.0932 -0.3844  0.1167
33661W        W76677  18.499  22.406  13.706 -0.0536  0.1700 -0.3274
33662W        W76678   3.641  24.914   7.656  0.0855 -0.0812  0.1618
33663W        W76679   3.596   0.612  29.148  0.0816  0.0749 -0.1280
33664W        W76680   9.673  23.701   0.014 -0.1598 -0.0008  0.2271
33665W        W76681  22.643   2.081  10.851  0.0177  0.2583 -0.1381
33666W        W76682   6.298   3.775   6.234  0.3779 -0.1198 -0.2380
33667W        W76683   2.065   6.449  19.126 -0.0364 -0.1029  0.4108
33668W        W76684   5.724  33.880  20.697  0.1401 -0.1202  0.2213
33669W        W76685   5.270  12.087  23.045  0.1892 -0.0721  0.0808
33670W        W76686   5.717  21.668  23.847 -0.2528 -0.1053  0.0711
33671W        W76687  33.117  10.934   5.396 -0.0112 -0.4254  0.1975
33672W        W76688   7.945  25.723   1.896  0.2986 -0.0059  0.2069
33673W        W76689   0.841  30.583   2.781  0.0033 -0.4953 -0.3002
33674W        W76690  27.636  21.306  19.652  0.0683  0.0763 -0.0926
33675W        W76691  31.105  29.474  21.597 -0.1676 -0.0513  0.0578
33676W        W76692  13.872  33.875  15.043  0.1243 -0.1003  0.1995
33677W        W76693  10.237  31.489  15.850 -0.0067  0.2291  0.2054
33678W        W76694   0.718   4.649   0.016  0.0234 -0.2796  0.1373
33679W        W76695  30.509  23.982  29.230  0.0158 -0.0607  0.0407
33680W        W76696   0.225  26.709  15.626  0.3326 -0.0708  0.0097
33681W        W76697  25.877  32.248   4.706 -0.0775 -0.1162 -0.2714
33682W        W76698   3.778  23.228  17.593 -0.0654  0.1155 -0.0702
33683W        W76699  23.505  34.646  26.702  0.1999  0.0235 -0.1897
33684W        W76700  25.289  22.377  17.342  0.0310 -0.1222  0.1137
33685W        W76701  14.431  24.388  27.621  0.0503  0.2322 -0.2213
33686W        W76702  15.420  22.317  13.947  0.0415  0.0133 -0.2168
33687W        W76703   7.266   9.412  16.390  0.2305  0.0931  0.2742
33688W        W76704  11.701  26.926  18.997  0.1029 -0.0307  0.1476
33689W        W76705  12.749   9.393   0.338 -0.2302  0.0144 -0.4290
33690W        W76706   0.207   2.980  20.219  0.1041  0.0530 -0.1394
33691W        W76707   6.477  24.536   4.270 -0.1229  0.1249  0.0507
33692W        W76708  24.075  26.833  10.831  0.0432  0.1066  0.2120
33693W        W76709  16.710  25.276  23.079  0.0287  0.0471 -0.2244
33694W        W76710  25.889  23.737  22.381 -0.1065  0.0430 -0.3732
33695W        W76711   5.837   2.553   5.147  0.1209  0.0032 -0.2274
33696W        W76712   4.778  20.324  20.623 -0.0653  0.0122 -0.1302
33697W        W76713  13.300  33.379   4.680 -0.1511 -0.0105 -0.1361
33698W        W76714  12.924  25.350  13.501 -0.0052 -0.4111 -0.1668
33699W        W76715   6.015   5.982  25.448  0.1211  0.2583  0.2717
33700W        W76716  17.746  26.401  25.603 -0.0287 -0.4088 -0.0449
33701W        W76717  11.701   6.940  25.707  0.0431  0.0963  0.1704
33702W        W76718  19.363  29.594  21.966 -0.0550 -0.0003 -0.1975
33703W        W76719  34.048  20.119  15.546  0.2018 -0.2995  0.0295
33704W        W76720   7.607  27.337  16.955  0.1962  0.2278  0.0433
33705W        W76721   0.937  17.196  25.767 -0.0235  0.0454  0.1982
33706W        W76722   1.826  26.886   9.694  0.0750  0.0325  0.3130
33707W        W76723  20.125  17.052  15.903  0.0822 -0.3103 -0.1650
33708W        W76724  13.318  28.566  22.548 -0.2017 -0.1653 -0.0478
33709W        W76725  12.928  14.641  13.146 -0.2873 -0.1332  0.0575
33710W        W76726  14.428  18.436  24.899  0.2111  0.3669  0.0019
33711W        W76727   9.401  20.404   5.156  0.2082 -0.2457 -0.3449
33712W        W76728  11.361  34.716  17.481  0.0378 -0.3678  0.0276
33713W        W76729   6.602  14.966  16.500 -0.2849  0.2098  0.2030
33714W        W76730  16.331  27.598   4.702  0.2506  0.4307 -0.0838
33715W        W76731   7.142  24.406  14.950  0.0742  0.1646 -0.2279
33716W        W76732  12.175  26.471  28.585  0.3010 -0.0042 -0.1270
33717W        W76733  30.321  30.347  15.886 -0.1468 -0.0713  0.0870
33718W        W76734  32.878   1.981  21.108 -0.4663 -0.3467 -0.0609
33719W        W76735   2.831  32.687  18.789  0.1356 -0.0694 -0.1863
33720W        W76736  32.388  32.472  26.128 -0.2929 -0.1325 -0.0939
33721W        W76737  11.204   1.109  25.388 -0.2265 -0.2658  0.1710
33722W        W76738  12.266  16.369  14.242  0.2427  0.0846  0.0259
33723W        W76739  34.373   2.876  23.030  0.2430 -0.2648  0.2217
33724W        W76740  15.091  26.795  18.277  0.1323 -0.3531  0.6050
33725W        W76741   3.576   3.658   7.348  0.2677 -0.1794  0.2534
33726W        W76742  22.813   0.781  16.933  0.0541 -0.2571  0.1580
33727W        W76743   7.960  32.993  20.406 -0.0176  0.0250 -0.1289
33728W        W76744  32.628  11.634  22.160  0.3600 -0.0995 -0.0585
33729W        W76745   0.649  25.088  17.013  0.0486 -0.2024  0.1037
33730W        W76746  17.215  30.352  28.816  0.3019  0.0496  0.3954
33731W        W76747  31.631   8.001  19.466 -0.4042  0.0375 -0.1533
33732W        W76748   9.992  31.597   1.685  0.2462 -0.2222 -0.0385
33733W        W76749  34.689   6.076  22.322 -0.0314  0.2397 -0.3310
33734W        W76750  13.224  15.353  14.600 -0.0262  0.0401 -0.1270
33735W        W76751  18.995  33.180   1.256  0.2500 -0.0008 -0.0710
33736W        W76752   0.710   8.245  27.901 -0.2332 -0.0475  0.1694
33737W        W76753  29.441  25.498  21.226  0.0263  0.1485 -0.1738
33738W        W76754   4.258  24.492  22.212 -0.0573  0.1844 -0.4660
33739W        W76755  16.273  26.985  22.953 -0.0956  0.2350  0.1279
33740W        W76756  33.002   3.725  17.977 -0.2750 -0.3736 -0.0890
33741W        W76757   4.285  26.692  21.157  0.1551  0.0790 -0.1088
33742W        W76758  14.648  28.702  27.256 -0.0997 -0.1269  0.1795
33743W        W76759   7.770  13.038  24.102 -0.1058  0.0534 -0.2878
33744W        W76760   1.774  18.789  18.202 -0.1999  0.0361 -0.0796
33745W        W76761   9.279  23.873   3.545 -0.0727 -0.0900 -0.1978
33746W        W76762  20.067  32.870  16.224 -0.0422 -0.1145  0.0844
33747W        W76763   9.777  31.389  17.157  0.2271 -0.2080  0.1745
33748W        W76764   1.119   5.262  14.334  0.0962  0.2586  0.3217
33749W        W76765  10.265  19.816  17.759 -0.1177  0.0734  0.2551
33750W        W76766   1.787  22.784  16.266  0.2128 -0.2135  0.0871
33751W        W76767  28.200   7.881  15.626 -0.3556  0.0269 -0.0734
33752W        W76768  31.650  23.911  18.068  0.4188 -0.2315 -0.1496
33753W        W76769  25.899  34.043  21.491 -0.1224  0.3546  0.0076
33754W        W76770  19.044  33.283  14.989  0.0253  0.0041 -0.3437
33755W        W76771  24.934  16.467  28.533  0.0889 -0.0125  0.1532
33756W        W76772  13.531  26.255  14.685 -0.2250 -0.0657 -0.1583
33757W        W76773   8.031   2.943  21.651  0.1506 -0.0264  0.1816
33758W        W76774  23.301  13.723  22.440  0.0925 -0.1301  0.0505
33759W        W76775  18.427  27.828  23.173 -0.4050 -0.1715 -0.1833
33760W        W76776  29.554  22.494  18.174 -0.1761 -0.0818  0.1312
33761W        W76777   4.326  24.865  17.761  0.0672  0.0068 -0.2226
33762W        W76778   2.685  24.453  24.129  0.0191 -0.2273 -0.0261
33763W        W76779  23.959  22.615  22.863  0.0898 -0.1982 -0.0893
33764W        W76780  31.633   0.767  17.057  0.0246  0.1394  0.0704
33765W        W76781  23.537  29.632   6.828 -0.5202 -0.0665  0.0800
33766W        W76782  32.632   8.696  16.449 -0.0153 -0.1049 -0.0824
33767W        W76783   0.541  25.792  20.432 -0.0405 -0.1667  0.0517
33768W        W76784   6.247   4.075  27.855  0.2237 -0.0495  0.2188
33769W        W76785   2.955  30.971  27.178  0.0781 -0.0707 -0.3038
33770W        W76786  10.599   2.145  26.263  0.0526  0.0082  0.0140
33771W        W76787   2.376   5.422  19.606 -0.0161  0.0689 -0.2344
33772W        W76788  24.442  12.702  19.847  0.1049  0.3389  0.3694
33773W        W76789  13.803  30.310  18.585  0.2954 -0.0584 -0.1463
33774W        W76790   3.089  27.806  18.018 -0.1251 -0.3571  0.3057
33775W        W76791  17.724  19.423  12.170 -0.2858 -0.4373 -0.0437
33776W        W76792   3.601  15.245  22.186  0.0591  0.0142  0.2178
33777W        W76793  11.135   2.537  14.717 -0.3845 -0.3758 -0.1822
33778W        W76794   3.731   8.345  20.263 -0.0259  0.2701 -0.1652
33779W        W76795   6.667  29.440  22.257  0.1655  0.1049  0.4549
33780W        W76796  11.463  25.602  23.399  0.3700 -0.1771  0.2607
33781W        W76797   3.154   4.169  14.386  0.2159 -0.2065 -0.0275
33782W        W76798  28.027  34.614   1.119 -0.0586  0.1631 -0.4353
33783W        W76799   5.708  24.658   4.870  0.1860 -0.3332  0.1354
33784W        W76800   2.881   5.393  16.028  0.0409  0.0731 -0.3943
33785W        W76801  29.179  22.517  21.615 -0.0551  0.0219  0.1758
33786W        W76802  23.012   2.365  18.158 -0.0791 -0.0815 -0.0238
33787W        W76803   6.579  24.960  17.883 -0.3284  0.2226 -0.0232
33788W        W76804  13.116  27.716  24.167  0.2364  0.1531  0.1892
33789W        W76805   8.490  22.026  28.565  0.1727  0.2826  0.1776
33790W        W76806  24.529   7.603  20.888  0.0302 -0.0191 -0.0032
33791W        W76807  30.668   1.882  25.322 -0.0802  0.0843  0.3097
33792W        W76808  23.936   1.081  22.898 -0.2059  0.1359  0.1953
33793W        W76809   1.206  33.598  25.108  0.2961  0.0541 -0.1049
33794W        W76810  12.730  19.430   0.379 -0.0327 -0.1473  0.0986
33795W        W76811  32.247   5.494  24.197 -0.1828 -0.1046  0.1162
33796W        W76812  33.587  31.024  19.485  0.4634  0.1158 -0.2638
33797W        W76813  18.636  32.677  26.860 -0.1569 -0.3411  0.1398
33798W        W76814   7.938   3.183  23.124 -0.2051  0.4395  0.0239
33799W        W76815  34.440  25.963  19.291  0.1318  0.0747  0.2108
33800W        W76816   3.355   5.660   3.395  0.0435 -0.1323 -0.1464
33801W        W76817  15.396  32.720  20.448 -0.2310 -0.0714 -0.0521
33802W        W76818   2.420   9.976   5.826  0.1236  0.3677 -0.0387
33803W        W76819  10.224  14.448  22.995  0.4999 -0.1343  0.0907
33804W        W76820   4.169  29.202  16.240 -0.1240  0.2000 -0.0018
33805W        W76821  12.134  32.172  16.599 -0.2546 -0.1864 -0.2697
33806W        W76822  15.309  30.788  28.107 -0.0710 -0.3337  0.0740
33807W        W76823  11.127   6.728  17.921  0.2656 -0.1813 -0.1502
33808W        W76824   6.346  31.508  26.957  0.0937 -0.1002  0.0463
33809W        W76825   5.802  25.876   1.964  0.1121  0.1304  0.2146
33810W        W76826  26.085  19.710  24.347 -0.1342 -0.3526  0.0208
33811W        W76827  17.466  17.659  13.587  0.0649 -0.0226  0.0208
33812W        W76828   0.794   1.275   9.252 -0.3435 -0.3512 -0.2339
33813W        W76829  34.506  20.399  15.485 -0.4209  0.0675 -0.0829
33814W        W76830   3.163  26.835   5.558 -0.2153 -0.0594 -0.2332
33815W        W76831  27.904   3.012  24.808 -0.2997  0.1496  0.3399
33816W        W76832  20.835   1.538  24.642 -0.1167  0.2526  0.1571
33817W        W76833   6.217   9.316  25.730  0.1647 -0.3421  0.0600
33818W        W76834  13.810  31.766   1.403  0.1742 -0.0387  0.4415
33819W        W76835  32.849  25.741  24.598 -0.0411 -0.2470 -0.2188
33820W        W76836  10.589  32.088  19.334 -0.2533  0.0095 -0.1421
33821W        W76837   0.007  32.978  23.662  0.0759  0.0121 -0.2206
33822W        W76838  34.577  29.567  28.319 -0.0155  0.2511 -0.0251
33823W        W76839  31.918   7.091  19.947  0.2420 -0.5109  0.1433
33824W        W76840  31.332  31.581   0.030 -0.2458  0.0835 -0.0183
33825W        W76841   7.258  28.807  20.853  0.2139  0.0976  0.0114
33826W        W76842   5.744  12.929  16.305  0.0499 -0.1641 -0.1624
33827W        W76843  13.015   1.598  17.717  0.2110 -0.2549 -0.1540
33828W        W76844  24.941   8.328  18.921 -0.0995 -0.2313 -0.2509
33829W        W76845  31.810   5.832  23.937 -0.1437  0.0917  0.0361
33830W        W76846  20.187  24.136  19.097 -0.2779  0.1937 -0.2091
33831W        W76847   3.782   6.811   5.158  0.2075 -0.0697 -0.1129
33832W        W76848   3.152  16.654  17.437 -0.0476 -0.0687 -0.0621
33833W        W76849   1.215  29.118   9.892  0.4263 -0.0240  0.0067
33834W        W76850  12.431   3.980   2.494 -0.0371  0.0945 -0.0209
33835W        W76851   8.432  22.637  17.380  0.3080  0.0711  0.0122
33836W        W76852  26.156   4.551   4.014 -0.2367  0.1074  0.1574
33837W        W76853  10.822  34.183  22.232  0.0726 -0.0715  0.0876
33838W        W76854  10.704  28.274  28.117 -0.0095  0.0470 -0.1366
33839W        W76855  31.306   5.321  15.973  0.1799  0.0268 -0.2770
33840W        W76856   2.769   1.412  14.374 -0.2240  0.1432 -0.0317
33841W        W76857  33.663  16.617   4.267 -0.0052 -0.1129  0.0770
33842W        W76858   5.623  27.922  27.415  0.5140  0.2952  0.2422
33843W        W76859  11.419  24.751  12.798  0.1776  0.1698 -0.1690
33844W        W76860   7.448  22.340  14.245  0.0426  0.2275  0.0348
33845W        W76861   8.530  13.458  25.949 -0.0683 -0.5300 -0.1088
33846W        W76862  12.992   1.713  20.491 -0.1786 -0.1047  0.0752
33847W        W76863  22.218   4.830  22.756  0.1975  0.1292 -0.0924
33848W        W76864  10.532  30.310  15.931 -0.1412  0.1446 -0.1523
33849W        W76865   4.677   1.561  28.060 -0.0863 -0.1897 -0.0734
33850W        W76866  15.141  23.927  16.066  0.1606  0.1395  0.1348
33851W        W76867   6.560  14.818  20.895 -0.0472 -0.2837  0.1552
33852W        W76868  17.146  33.310  27.754  0.1610 -0.0030  0.0449
33853W        W76869  33.910  33.272  20.782 -0.1109  0.3066  0.0293
33854W        W76870  21.041   8.030  18.959 -0.2043 -0.1138 -0.1083
33855W        W76871  17.796  25.131  16.557 -0.0839 -0.1056  0.1118
33856W        W76872   3.572   3.515   3.293 -0.0470  0.0294 -0.0057
33857W        W76873  28.727   4.422  21.264  0.3244  0.0393 -0.0195
33858W        W76874   6.342  32.664  17.340 -0.3404  0.0304 -0.1813
33859W        W76875  32.925  23.170  26.732 -0.2536  0.1536 -0.1063
33860W        W76876  24.593  25.502  16.204  0.3235  0.2045  0.2713
33861W        W76877  23.786   6.021  19.379  0.0700 -0.0262 -0.0702
33862W        W76878  11.054  11.647  20.266 -0.0704 -0.2392 -0.2166
33863W        W76879   3.890  20.010   2.648 -0.0539  0.2527  0.0958
33864W        W76880  12.588  26.821   4.192 -0.1603 -0.0786  0.0636
33865W        W76881  33.304  20.462   3.769 -0.1539  0.0695 -0.2682
33866W        W76882  24.249   8.424   3.645  0.0872 -0.0899  0.2165
33867W        W76883  19.687  32.170   3.637 -0.1116 -0.2315  0.3557
33868W        W76884  33.192   6.899  22.009  0.4836  0.0336  0.3482
33869W        W76885  16.331  21.106  14.310  0.0331 -0.1555  0.2862
33870W        W76886   1.331   6.020  23.657 -0.0487 -0.1557  0.1509
33871W        W76887   8.282   5.160  19.092  0.1463  0.1039 -0.2931
33872W        W76888   3.318   8.295  15.279 -0.0410 -0.1053 -0.0478
33873W        W76889  13.827  27.340  13.775  0.2160 -0.1689 -0.0843
33874W        W76890  22.770  18.835  23.335  0.0887  0.0413  0.0411
33875W        W76891  19.580  31.211  18.804 -0.0945 -0.0854 -0.1930
33876W        W76892  10.686   7.232  19.032 -0.0942 -0.4558 -0.3128
33877W        W76893  16.460   0.574  21.055  0.0647 -0.2513  0.1774
33878W        W76894  15.393  24.807  27.819  0.1818 -0.4965 -0.3860
33879W        W76895  22.315  32.251  20.865 -0.0366 -0.0317  0.0063
33880W        W76896  21.062   3.001  15.532 -0.0261 -0.3329 -0.0572
33881W        W76897  10.229  22.702  23.338 -0.1639  0.0553  0.0060
33882W        W76898  29.365  29.307  17.544  0.0458 -0.0232 -0.0583
33883W        W76899  21.876  31.417  24.129  0.0225 -0.1759 -0.0856
33884W        W76900  21.366  18.145  15.345 -0.0755 -0.0595  0.0982
33885W        W76901   7.704   3.189   0.464 -0.0595  0.2234 -0.0655
33886W        W76902   3.542  26.214  20.352  0.1090 -0.2865  0.0775
33887W        W76903  23.817  32.006  17.678 -0.1284  0.2821 -0.0611
33888W        W76904  27.401   1.176  22.511  0.0191  0.1783 -0.1383
33889W        W76905   4.160  15.514   2.136  0.4049 -0.1457 -0.2228
33890W        W76906  11.733   5.753  23.033 -0.0172  0.0602  0.1825
33891W        W76907  26.004   0.006  17.805 -0.0608 -0.0359 -0.1005
33892W        W76908   9.200  28.387  22.270 -0.1679 -0.1401 -0.2874
33893W        W76909  28.534  22.651  17.381 -0.5152 -0.0314  0.1059
33894W        W76910  30.533   8.134   0.661 -0.1665 -0.4926 -0.2157
33895W        W76911  34.395   0.025   0.086 -0.1372  0.1384  0.3128
33896W        W76912   8.458  16.562  17.448  0.1201 -0.1513  0.0104
33897W        W76913  31.780  21.056  15.615 -0.0508 -0.0097 -0.4163
33898W        W76914  15.097  18.905  18.507 -0.0773 -0.2031 -0.0156
33899W        W76915  18.010  28.451   2.954 -0.2858  0.0340 -0.3120
33900W        W76916  26.422   1.679   1.274  0.3881 -0.0768 -0.1845
33901W        W76917   3.914  10.872  28.607  0.1873  0.0709 -0.1329
33902W        W76918  10.251  21.834  14.527 -0.1050 -0.2829 -0.0318
33903W        W76919   9.335   0.068  18.502  0.2388  0.1788  0.1675
33904W        W76920  16.951  22.572   7.825 -0.0253 -0.1070  0.0912
33905W        W76921   8.831  28.516  14.041  0.1311  0.1572  0.0981
33906W        W76922  32.781   2.503  24.535 -0.0656  0.0111  0.1764
33907W        W76923   7.512  11.914  18.645 -0.1633  0.1991  0.1743
33908W        W76924   7.272  25.827  14.709 -0.2791 -0.0853  0.3256
33909W        W76925   3.120  30.128  23.152 -0.1865  0.2470 -0.2171
33910W        W76926   0.004  14.417   3.923 -0.3059 -0.1767  0.1196
33911W        W76927  24.083  12.759  24.697  0.0436 -0.0693  0.0245
33912W        W76928   9.901   8.128  18.487 -0.0128  0.2792 -0.1147
33913W        W76929   8.261  26.199  27.749 -0.1172  0.0233  0.1879
33914W        W76930  10.503  14.725  14.281  0.0720 -0.4485 -0.1659
33915W        W76931  31.286   8.467  19.469  0.2734 -0.0970  0.0736
33916W        W76932  12.494   1.552   2.206 -0.1855 -0.0378  0.2821
33917W        W76933   3.082  25.834  14.919  0.2127 -0.1353 -0.0447
33918W        W76934  20.812  19.651  21.796 -0.1400 -0.0829  0.1596
33919W        W76935  21.087  31.681  17.978  0.1041  0.1355 -0.0513
33920W        W76936  17.423  33.806  22.210 -0.3782  0.1233  0.0092
33921W        W76937  33.081   4.965   6.372  0.2137 -0.1865  0.3975
33922W        W76938  10.203  26.105  27.026  0.0161  0.4365 -0.2766
33923W        W76939   6.934  32.661  28.487  0.0114 -0.2658  0.3789
33924W        W76940  22.629  29.549  27.717  0.2005  0.1841  0.0711
33925W        W76941  30.833   9.152  23.039 -0.2418 -0.0528  0.0120
33926W        W76942   8.000  21.110  18.920  0.0596 -0.3216 -0.2211
33927W        W76943   0.331  33.884  23.835  0.3041 -0.0825  0.0987
33928W        W76944  15.245  24.768  23.987 -0.1238  0.2940 -0.2391
33929W        W76945  27.497   0.731  21.027  0.0880 -0.2165  0.1492
33930W        W76946  15.368  24.942  25.290  0.2514 -0.0232  0.1300
33931W        W76947   6.223  34.011  13.809 -0.3560 -0.2183 -0.0089
33932W        W76948  18.436  34.473  27.040 -0.1182  0.1163 -0.0556
33933W        W76949  30.960  32.207  20.010  0.1927  0.1339 -0.1797
33934W        W76950   8.587   9.902  15.982  0.0182  0.0788  0.1560
33935W        W76951  12.834  31.261  15.868 -0.3460  0.0259 -0.1747
33936W        W76952  16.161  27.488  24.614 -0.0886  0.0193 -0.2444
33937W        W76953   7.799  18.067  21.151  0.2927 -0.3775 -0.2804
33938W        W76954  10.643   4.117  17.516 -0.0950 -0.2069  0.0236
33939W        W76955  12.438  29.500  16.898 -0.0511  0.0396 -0.1035
33940W        W76956  18.037  26.710  15.549  0.3373 -0.0922  0.2063
33941W        W76957   6.045  30.854  19.856 -0.0283  0.0409 -0.2922
33942W        W76958  10.514  29.480  18.249  0.0223  0.0802 -0.0267
33943W        W76959   7.290  11.644   8.677 -0.0580  0.0525 -0.3440
33944W        W76960  13.580   8.582   8.955  0.3120 -0.1189  0.4252
33945W        W76961  32.687  30.193  20.944  0.0945 -0.1096 -0.0314
33946W        W76962  13.757  25.230  18.254 -0.2327  0.1597  0.0399
33947W        W76963  27.068   7.585  18.327 -0.0548  0.2769 -0.1225
33948W        W76964   3.885  28.432  16.693  0.1808  0.0444  0.3016
33949W        W76965   9.535  16.584  22.218 -0.1041 -0.2881  0.2999
33950W        W76966  27.363   9.500  25.397  0.2000 -0.0355  0.1652
33951W        W76967  20.049  14.359  13.987 -0.0517  0.0926 -0.1383
33952W        W76968   6.951  12.863  22.534  0.1811 -0.0286 -0.3248
33953W        W76969   0.457  31.477  15.960 -0.2564 -0.0818  0.1171
33954W        W76970  10.952  11.567  23.630 -0.1899 -0.0698  0.0733
33955W        W76971   3.988   5.155  14.662  0.1196  0.3919 -0.2623
33956W        W76972  18.502  27.214  16.136  0.0292 -0.1512  0.1311
33957W        W76973  18.582  23.515   1.100 -0.0514  0.3245 -0.1595
33958W        W76974  32.392  10.750  21.040 -0.0695  0.1742  0.1965
33959W        W76975  10.859  32.718   9.569 -0.1001  0.3424  0.0948
33960W        W76976  14.064  22.326  15.533 -0.1341 -0.2613 -0.0207
33961W        W76977   3.157  26.012  18.654 -0.0143  0.0478  0.0244
33962W        W76978  16.851   8.867  25.019  0.0962  0.2979 -0.0136
33963W        W76979  12.539  29.605  20.466  0.1481  0.0089  0.2552
33964W        W76980   8.631   2.584  24.387  0.0816  0.2172  0.1327
33965W        W76981  10.953  20.044  11.992  0.1945  0.1947  0.1881
33966W        W76982  24.708   5.660  26.812  0.0634 -0.2135  0.1276
33967W        W76983  13.410  18.780  29.196  0.0479 -0.4200 -0.0081
33968W        W76984  27.518  33.227   5.811 -0.1914 -0.2149 -0.0924
33969W        W76985  25.129  26.856  17.635 -0.3103 -0.2121 -0.0167
33970W        W76986  29.408  23.493  18.902  0.1079 -0.1697  0.2290
33971W        W76987  24.914  34.551  25.602  0.4962 -0.3218 -0.1848
33972W        W76988   4.963   9.978   2.879 -0.0786  0.2581 -0.2679
33973W        W76989  11.852   5.098  27.219  0.1207  0.0513  0.2403
33974W        W76990  23.326  27.229   7.578 -0.0384 -0.0789 -0.0419
33975W        W76991  28.951   7.772  17.621 -0.0166  0.0402  0.0039
33976W        W76992  34.485   1.838  22.916  0.0339 -0.0348  0.0153
33977W        W76993  13.899  24.857  24.258  0.3176  0.1643 -0.1153
33978W        W76994   3.964   0.682  17.743  0.1025 -0.0418 -0.0936
33979W        W76995  23.097  24.041  16.057 -0.0162 -0.1376  0.0631
33980W        W76996   2.672  33.982  25.264 -0.5399 -0.0083 -0.0428
33981W        W76997   7.702  23.371   7.693  0.1076 -0.0061  0.1750
33982W        W76998  28.436  24.663   5.704 -0.0071  0.0442  0.2998
33983W        W76999   3.137  18.111  27.309  0.2533 -0.3244 -0.1321
33984W        W77000   1.658  32.614   7.579 -0.1635 -0.0417 -0.0449
33985W        W77001   3.665   6.672  24.855  0.0280  0.1521  0.1726
33986W        W77002  33.805  20.298  18.803 -0.1845  0.2077  0.1012
33987W        W77003  15.919   5.956  15.356 -0.3074 -0.2301 -0.0989
33988W        W77004   5.960  29.261  27.857  0.2835  0.0249 -0.0197
33989W        W77005  13.558  23.407  15.284 -0.2625  0.0757  0.2313
33990W        W77006   7.297  34.439  27.035 -0.3555  0.0475 -0.3595
33991W        W77007  31.358  33.545   7.229 -0.0955  0.1202  0.2727
33992W        W77008   5.028   9.291   2.236  0.2614 -0.1729 -0.2345
33993W        W77009  23.928  29.493  21.772 -0.1355  0.1530  0.0155
33994W        W77010  11.515  22.091  18.250  0.0878  0.1452 -0.3680
33995W        W77011   3.770   2.054  17.087 -0.1332  0.1977  0.1302
33996W        W77012  10.154  20.495  23.002  0.0798 -0.0594  0.1942
33997W        W77013  30.924  27.029  14.782  0.0160  0.0689 -0.2849
33998W        W77014   3.239  13.327  27.133  0.0918 -0.0843  0.0436
33999W        W77015  33.601  33.530  28.999  0.1729 -0.1470 -0.1707
34000W        W77016  22.446  15.328  16.510 -0.0913 -0.0337  0.1130
34001W        W77017  30.412   6.463  16.668 -0.1813 -0.2719  0.0551
34002W        W77018  29.999   3.894  24.544 -0.1169  0.0334  0.3201
34003W        W77019   9.591  24.077  15.423 -0.2374 -0.0788 -0.2508
34004W        W77020   0.813  30.157  28.103  0.4318  0.2493  0.0276
34005W        W77021  27.462   5.915  15.457 -0.0072  0.2474  0.3168
34006W        W77022   9.143   6.246  14.474  0.1262  0.0744  0.2479
34007W        W77023  14.032  30.742   7.550  0.2237  0.2769  0.1025
34008W        W77024  28.455  20.174   1.969 -0.0503  0.0569 -0.1555
34009W        W77025   3.845  31.137   2.448 -0.0030  0.1183 -0.3541
34010W        W77026  32.223  22.231  18.905  0.2322  0.1733  0.1155
34011W        W77027  25.519   7.831   4.739  0.0505  0.1986 -0.0871
34012W        W77028  10.696   5.263   9.327 -0.0825 -0.1172 -0.1283
34013W        W77029   7.029  27.848  22.342 -0.0770  0.0261 -0.1101
34014W        W77030   8.899  29.356  21.977  0.1622  0.1980 -0.2193
34015W        W77031  29.211   4.193  28.110 -0.0291  0.0724  0.2041
34016W        W77032  31.978  32.058  17.856 -0.2080 -0.2500  0.2788
34017W        W77033  18.573   0.191   2.508 -0.0640 -0.1275 -0.2114
34018W        W77034  31.466  34.342   6.381 -0.1028 -0.1277 -0.0092
34019W        W77035  23.511  10.485   5.795 -0.1465  0.0490  0.3720
34020W        W77036  28.831  26.957  25.094  0.1080  0.1494 -0.0143
34021W        W77037  27.728   2.512   8.184  0.0283 -0.2037 -0.2184
34022W        W77038  11.086  28.131   0.874 -0.1031  0.1839 -0.0334
34023W        W77039   8.575  20.439  13.548 -0.4862  0.1728 -0.2133
34024W        W77040  24.839  31.741  22.822 -0.1405  0.1269  0.1144
34025W        W77041  27.012  18.253  24.346  0.2039 -0.0652  0.1616
34026W        W77042   6.964  14.196  26.614 -0.2641  0.0210 -0.1156
34027W        W77043  34.262  32.464  18.249 -0.0574 -0.0490  0.1699
34028W        W77044  19.286  26.864  18.738 -0.3412 -0.1326  0.1127
34029W        W77045  28.073  30.967  20.477 -0.1366  0.1529  0.0872
34030W        W77046   7.981   8.381  15.942  0.1598  0.2128 -0.1179
34031W        W77047  18.681  20.004  21.394  0.0883 -0.3898 -0.1822
34032W        W77048   7.645  20.910   3.576 -0.3737 -0.1440 -0.5062
34033W        W77049  15.269   8.116  23.180  0.2062 -0.2795 -0.0060
34034W        W77050  13.103  29.735   1.825  0.0658 -0.0953 -0.0385
34035W        W77051  16.248   7.372  17.387  0.2301 -0.1280 -0.3151
34036W        W77052  30.528  12.021   4.477  0.0596 -0.0517  0.0979
34037W        W77053  29.100  31.032  28.967  0.2179  0.1873 -0.0226
34038W        W77054   6.742  24.415  15.336  0.1834 -0.0267 -0.1320
34039W        W77055  32.688  23.051  17.086 -0.1058  0.0149 -0.3687
34040W        W77056   5.726  31.959  24.458 -0.3653 -0.2612  0.0896
34041W        W77057  17.602   9.008   1.969 -0.0173  0.0036  0.3910
34042W        W77058   4.730  19.763  15.449  0.1049  0.3126 -0.0816
34043W        W77059  18.981   2.000  16.967 -0.3706 -0.3182 -0.3834
34044W        W77060   5.809  28.816  15.951 -0.5875 -0.1529 -0.4938
34045W        W77061  10.885  34.223  24.508 -0.0607 -0.0386  0.1800
34046W        W77062  17.768  25.221   0.417 -0.0618  0.1217 -0.1009
34047W        W77063   2.380   4.865  17.658  0.0770 -0.1366  0.0406
34048W        W77064   6.141  20.491  20.265 -0.3214 -0.4185  0.0139
34049W        W77065  24.147  32.154  16.510 -0.2298  0.0459  0.2004
34050W        W77066  15.383   2.168  17.766 -0.3443 -0.1580 -0.1048
34051W        W77067  14.493  32.302  25.537  0.1852 -0.1669 -0.2399
34052W        W77068  29.595   0.860  29.205 -0.2611  0.2227 -0.1335
34053W        W77069  10.012  16.086  15.630  0.1617 -0.1732 -0.2271
34054W        W77070   5.965  30.880   3.962 -0.0392  0.0780  0.0514
34055W        W77071   4.385  26.362  25.361 -0.0749  0.0900 -0.5448
34056W        W77072   3.108  33.181  15.746  0.0873  0.2522  0.0291
34057W        W77073  20.221   4.935  27.028 -0.0670 -0.1945  0.2855
34058W        W77074   9.488  20.983  21.622 -0.1110  0.0714 -0.1211
34059W        W77075  12.547  12.447  20.450 -0.2324 -0.1981  0.4471
34060W        W77076   6.599  20.131  26.273 -0.2807 -0.0264 -0.1859
34061W        W77077   5.255  24.295  24.562 -0.0991  0.1015  0.1590
34062W        W77078  10.875  21.155  26.761 -0.3015  0.0354  0.0665
34063W        W77079  23.657  23.656   9.519 -0.2521 -0.2131 -0.2401
34064W        W77080   0.034   5.585  19.349  0.0773  0.2820  0.0848
34065W        W77081   8.005  26.106  19.626 -0.0046 -0.2186 -0.0562
34066W        W77082   7.463  10.105   1.202  0.1485  0.0436 -0.1328
34067W        W77083   0.465  33.239   6.480 -0.0790 -0.2866 -0.1436
34068W        W77084  12.914  31.635  28.618 -0.0592 -0.0899 -0.0406
34069W        W77085  14.620  12.332  14.071 -0.0107 -0.0344  0.4108
34070W        W77086  29.234   2.240   6.365  0.2160 -0.0941  0.0269
34071W        W77087  18.078  31.726  17.592 -0.0556  0.1188  0.2191
34072W        W77088  34.731  10.648  19.889  0.3281 -0.2685  0.0745
34073W        W77089  33.191   5.297   0.728 -0.1364 -0.1217 -0.2625
34074W        W77090  32.010  32.263   5.046 -0.0874  0.1495 -0.1876
34075W        W77091  28.033  18.729  23.958 -0.1654  0.0188  0.2672
34076W        W77092   1.856   2.498  16.249 -0.0009  0.1395  0.1365
34077W        W77093   0.315  33.218   9.787  0.1270 -0.0538 -0.0174
34078W        W77094  30.833  29.947   4.591 -0.4233 -0.1913 -0.0727
34079W        W77095  33.666  29.747  24.865 -0.1118 -0.0355  0.4962
34080W        W77096  32.744  19.997  20.337 -0.0349  0.3155 -0.0304
34081W        W77097   2.098  32.387  23.579  0.1655 -0.0727 -0.3419
34082W        W77098   6.655  32.899   2.414  0.0828  0.1353  0.0633
34083W        W77099   0.471  13.002  16.339  0.0729 -0.1363  0.1247
34084W        W77100  21.329   4.099  23.940 -0.0244  0.1345 -0.0486
34085W        W77101  28.403  11.332  23.259 -0.3030 -0.1874 -0.0466
34086W        W77102  10.832   1.181  20.318  0.0765 -0.3354 -0.1897
34087W        W77103  12.915  30.212  28.577 -0.1524 -0.1273  0.0670
34088W        W77104  26.123  10.451  29.019  0.1384 -0.0517 -0.0990
34089W        W77105   6.809  21.420  23.681 -0.3248  0.0016 -0.0987
34090W        W77106  17.046  29.225  17.825 -0.3671 -0.0575 -0.3061
34091W        W77107  11.347   3.924  23.729 -0.2340  0.0001 -0.2609
34092W        W77108  12.491  23.513   3.117 -0.2615  0.2003  0.1958
34093W        W77109  25.788  33.734   9.478  0.0885 -0.1418 -0.0867
34094W        W77110   8.118  29.604  16.718 -0.0192  0.3872  0.4284
34095W        W77111   6.206  29.619  19.285  0.2192 -0.1450  0.6120
34096W        W77112  31.847  11.019  15.873  0.0379 -0.0894 -0.1944
34097W        W77113  13.150  27.898   3.597 -0.0194 -0.2112 -0.4104
34098W        W77114  10.173  34.675  25.243 -0.2855 -0.1045 -0.3499
34099W        W77115   3.793  25.995   0.649  0.0865  0.2670 -0.1609
34100W        W77116  31.632  27.476  25.246  0.0761 -0.0869  0.3038
34101W        W77117   8.116  15.767  22.831  0.0606  0.0320  0.3427
34102W        W77118   9.826  23.963  13.189  0.2737 -0.2386 -0.0397
34103W        W77119  12.326  10.950  20.611 -0.1169 -0.0323 -0.2683
34104W        W77120  13.255  29.799  20.180  0.1029 -0.1334  0.1025
34105W        W77121   6.175   4.129   0.084 -0.0528 -0.1660 -0.0621
34106W        W77122  17.862   6.915   3.987 -0.2094  0.2850  0.0958
34107W        W77123   3.588  19.644  13.913  0.0805 -0.3130  0.0544
34108W        W77124  30.126  34.646   1.357  0.2069  0.1201 -0.0946
34109W        W77125  23.637  34.006  18.965 -0.2402  0.0439 -0.0117
34110W        W77126  17.896  31.943  24.268 -0.2394 -0.0693  0.0828
34111W        W77127  16.558   9.585  15.226  0.0247 -0.0844  0.2410
34112W        W77128  26.704   8.943   1.523 -0.0027 -0.1607  0.0181
34113W        W77129   6.979  18.982   1.630  0.1767 -0.0566 -0.1648
34114W        W77130  13.849  26.160  27.829 -0.3243 -0.0051  0.2098
34115W        W77131  28.010  18.825   7.277  0.2136  0.0131  0.2642
34116W        W77132   2.326  30.859  21.629 -0.4001 -0.2158 -0.0944
34117W        W77133  25.349  33.200   6.184 -0.0967  0.2812  0.0014
34118W        W77134  11.433  16.232  17.202 -0.2033 -0.0974  0.0915
34119W        W77135  17.952  23.895   1.450 -0.0032  0.1408 -0.0243
34120W        W77136  33.170  32.596   3.133 -0.0512  0.2616  0.0341
34121W        W77137  23.115  34.065   4.982 -0.3592  0.0793  0.2081
34122W        W77138   9.887  19.110  23.430 -0.1846 -0.0936  0.0014
34123W        W77139  25.504  34.087  20.506 -0.1407  0.0253 -0.1260
34124W        W77140   6.985  29.938   8.590 -0.0918  0.0586 -0.1662
34125W        W77141  13.284  28.663   9.321 -0.3642 -0.0409 -0.1245
34126W        W77142  10.796   8.697  16.535  0.1140  0.0370 -0.2224
34127W        W77143  23.540  28.530  16.369 -0.0142 -0.2645 -0.1323
34128W        W77144   3.960  18.614  13.029  0.3558  0.0579 -0.1850
34129W        W77145  30.073  17.390  26.828 -0.3270  0.1302 -0.1260
34130W        W77146   9.118  23.270  15.345  0.0948  0.1285  0.1174
34131W        W77147   5.585   3.194  17.315  0.0607  0.0758 -0.0193
34132W        W77148   4.347  24.435  15.123  0.2729  0.0542  0.1134
34133W        W77149  13.626  27.395  26.453  0.2612  0.0703  0.1064
34134W        W77150  14.416   7.981  21.152 -0.0525 -0.0406 -0.1307
34135W        W77151   9.856   0.678   3.877  0.4331 -0.0920 -0.0579
34136W        W77152  26.392  26.636  24.432  0.3243  0.0288 -0.0270
34137W        W77153   0.195  21.085   8.427  0.1390  0.2298  0.0745
34138W        W77154   4.028  24.150  19.684  0.2214 -0.3035 -0.1795
34139W        W77155   9.916  14.344  18.998 -0.2404  0.1769  0.0796
34140W        W77156  31.570  15.642  18.275  0.2861 -0.0274 -0.2177
34141W        W77157   3.702  25.773  22.338 -0.0203 -0.2721  0.2003
34142W        W77158  31.863   6.528  17.542  0.0024 -0.3058  0.0271
34143W        W77159  25.962   6.382  15.080  0.1870 -0.1567 -0.0078
34144W        W77160  26.491  10.135  27.662  0.1654 -0.1863  0.3613
34145W        W77161  10.746  13.365  19.541 -0.0122 -0.1004  0.3526
34146W        W77162  16.132  29.294  21.956  0.4259 -0.3371 -0.0482
34147W        W77163   6.709   0.476  25.013 -0.1776  0.1408  0.1871
34148W        W77164  15.168  27.283  18.295 -0.4615  0.1952 -0.0176
34149W        W77165   6.651  25.025   0.537 -0.1485 -0.0919 -0.0505
34150W        W77166  33.927  22.683  20.229 -0.0009 -0.2645  0.0207
34151W        W77167   0.320  29.031  19.042 -0.0739  0.6361 -0.1717
34152W        W77168  30.024  23.107  16.070 -0.1001  0.1792 -0.0503
34153W        W77169   8.542  19.255  27.526  0.0252  0.0236  0.1004
34154W        W77170  28.196  23.012  25.045 -0.1317  0.0937 -0.0201
34155W        W77171   1.878  27.046  26.202 -0.1701  0.1296  0.0381
34156W        W77172   2.500  15.851   5.636  0.4272 -0.1602  0.3827
34157W        W77173   6.887   1.097  14.695  0.0223 -0.3653  0.5084
34158W        W77174  27.954  34.107  25.402  0.1058  0.2137 -0.2820
34159W        W77175   2.207  26.490  21.416 -0.2614 -0.2803 -0.1503
34160W        W77176  13.786   9.940  21.674 -0.0405  0.1330 -0.0055
34161W        W77177  34.388   3.090   5.817 -0.2892 -0.2301  0.1523
34162W        W77178  19.299  22.622  14.461  0.1320 -0.0485  0.1458
34163W        W77179   5.711  22.373  28.449  0.0013  0.2656  0.0130
34164W        W77180  34.762  34.307  14.932 -0.1322 -0.0946  0.1035
34165W        W77181  17.952  27.185  24.438 -0.0221 -0.0929  0.4360
34166W        W77182  32.568  22.013   0.472  0.2492  0.1557 -0.3119
34167W        W77183   7.004  31.816   8.133 -0.1210  0.1079 -0.1404
34168W        W77184   7.317   9.539  15.261  0.2294 -0.1710  0.0290
34169W        W77185  24.117   9.496  14.775 -0.1453 -0.1300  0.0827
34170W        W77186  16.202  33.812  19.184  0.0247  0.0519 -0.1774
34171W        W77187   0.426  19.989  17.065 -0.1902  0.0148 -0.0036
34172W        W77188   2.716   3.890   5.318  0.0520  0.1756 -0.0108
34173W        W77189   2.116  20.682   1.594 -0.1407  0.1068  0.2397
34174W        W77190  16.619   5.481  24.380  0.0476  0.3704  0.0671
34175W        W77191  24.236  30.329  21.719 -0.2454  0.1378  0.1675
34176W        W77192   1.050   4.329  24.848  0.2547  0.0927  0.3368
34177W        W77193   5.003   6.339  17.157  0.0047  0.0464 -0.0281
34178W        W77194   2.476  32.099  10.224  0.1273 -0.1244  0.3318
34179W        W77195  32.432   4.264  25.615  0.3125 -0.0378  0.0179
34180W        W77196   7.222   7.825   7.803 -0.0418  0.0697 -0.1069
34181W        W77197   7.327  26.551  21.966 -0.2989 -0.0451  0.0253
34182W        W77198   8.791  19.748  29.115  0.0230  0.0898 -0.0522
34183W        W77199  33.492  26.430   6.087 -0.2242 -0.0731  0.0562
34184W        W77200  28.076  28.128  19.595 -0.1825 -0.1501 -0.0755
34185W        W77201  25.353  29.174   6.390  0.3051  0.1041  0.1364
34186W        W77202  16.331   5.847  18.934  0.0991 -0.1230 -0.2294
34187W        W77203  13.230  31.469  15.576 -0.0601  0.0650 -0.2708
34188W        W77204  19.041  26.556  14.579 -0.0170 -0.0396 -0.0451
34189W        W77205  13.769  18.450  29.056  0.3423 -0.2092  0.1554
34190W        W77206  32.152  28.010  14.532 -0.0649 -0.1961 -0.0340
34191W        W77207  28.657  13.567  14.779  0.1803  0.0607  0.2706
34192W        W77208  34.263  14.467  24.542  0.2710 -0.0440 -0.1922
34193W        W77209   4.668   9.687  17.052 -0.2252 -0.0657 -0.2777
34194W        W77210  14.144  34.415  22.968 -0.1813 -0.3281  0.1837
34195W        W77211  15.658  28.342  19.321  0.2087 -0.0146  0.2649
34196W        W77212   0.705  24.244   6.210  0.2139  0.3271 -0.1973
34197W        W77213  12.171  29.485  15.855 -0.3082  0.2498 -0.0515
34198W        W77214   2.465  27.635  28.590 -0.0030 -0.3163 -0.2109
34199W        W77215  16.622  30.270  19.325  0.0241 -0.1776 -0.0703
34200W        W77216   0.405  25.193   8.429  0.2193 -0.4347 -0.0603
34201W        W77217  33.168  29.407  15.465 -0.1300 -0.1944  0.2302
34202W        W77218  17.251  32.883  19.507 -0.2022 -0.0353 -0.2824
34203W        W77219   8.725  27.737  19.331  0.0243 -0.2414 -0.0467
34204W        W77220  12.346  18.359  22.606 -0.1352 -0.0661  0.0289
34205W        W77221  30.941   7.228   0.221 -0.0907  0.0743 -0.0080
34206W        W77222   8.180   1.182  24.233 -0.2025  0.0551  0.0442
34207W        W77223   9.035   4.382   2.062 -0.0413  0.1352 -0.1126
34208W        W77224  13.850  12.545  19.930 -0.1986  0.2530 -0.1299
34209W        W77225  30.835  30.045   0.224 -0.0259 -0.3692  0.0871
34210W        W77226   7.638   5.483  23.005 -0.0639 -0.0533 -0.1243
34211W        W77227  33.945  26.883  19.204  0.1275  0.3908  0.0074
34212W        W77228   9.674  33.010  20.719  0.1768  0.2981  0.1446
34213W        W77229  27.149  27.996  21.636  0.2630  0.7192  0.4338
34214W        W77230   2.110  18.238   0.743  0.0691 -0.0442 -0.2995
34215W        W77231  14.379   8.647  18.547 -0.1865 -0.1440 -0.1007
34216W        W77232   3.661  30.253  18.718  0.0611  0.3173  0.0822
34217W        W77233  24.419  25.259  23.271  0.1162 -0.0123 -0.0218
34218W        W77234  24.414  27.708   8.470 -0.1676  0.0452  0.0577
34219W        W77235  33.600  33.935  28.444 -0.2069 -0.0457  0.0546
34220W        W77236  31.579  31.283  20.640 -0.1212 -0.1769 -0.0659
34221W        W77237  33.468  33.536  16.562 -0.1031  0.1146 -0.1297
34222W        W77238   1.465  19.957  20.258 -0.3187 -0.1359  0.2208
34223W        W77239  10.731   0.676   9.967 -0.2726 -0.0847  0.1057
34224W        W77240  23.736  16.779  14.999  0.0068  0.0471  0.1266
34225W        W77241   5.863   0.506   0.985  0.2713 -0.0508 -0.0466
34226W        W77242  13.879  16.217  24.829 -0.0740 -0.2820 -0.0191
34227W        W77243  12.966  21.079  14.079 -0.2262 -0.2545  0.0265
34228W        W77244  33.476  29.177  27.893  0.2088  0.1598 -0.1425
34229W        W77245  28.129  13.028  13.569 -0.2402 -0.0763  0.0272
34230W        W77246   3.183  20.898  22.866  0.3508 -0.1290  0.2697
34231W        W77247  29.131  18.313   4.256 -0.0979 -0.0575 -0.2496
34232W        W77248   8.413   3.015  15.198 -0.2421  0.0898 -0.2437
34233W        W77249  11.529  29.054  17.737 -0.0253 -0.1798 -0.1190
34234W        W77250   6.559   2.191  18.310  0.1608  0.1227  0.0700
34235W        W77251  29.379   3.622  15.780  0.0101  0.0140 -0.0374
34236W        W77252  31.465   0.754   6.382 -0.2566 -0.0108 -0.0188
34237W        W77253  20.271  16.417  23.582  0.3628  0.2389 -0.1066
34238W        W77254  33.768  16.245  23.014 -0.0783 -0.2162  0.2368
34239W        W77255  30.874  10.525   6.970 -0.1975  0.0678  0.1873
34240W        W77256  19.988   2.048  28.597  0.0445  0.1531  0.1381
34241W        W77257  11.988  14.136  21.551 -0.3145 -0.1014 -0.0460
34242W        W77258  25.463  28.722  23.871  0.1782 -0.0997  0.3216
34243W        W77259   8.913  18.267  24.250 -0.3206 -0.1002 -0.1777
34244W        W77260   6.634   8.785  22.849  0.0421  0.2334 -0.1018
34245W        W77261  33.132  18.680  19.215 -0.0269 -0.1296  0.2329
34246W        W77262   2.120  26.896  15.060 -0.5125  0.0376  0.1384
34247W        W77263   7.608  20.435  25.764 -0.0942  0.2627 -0.2575
34248W        W77264  25.551  24.079   1.493 -0.1552  0.0271  0.2212
34249W        W77265  10.811   5.792  21.474 -0.3202  0.2690  0.0098
34250W        W77266   2.549  28.883  19.536 -0.1013 -0.2503  0.2093
34251W        W77267   1.404   0.810  18.638  0.1621  0.2334 -0.3860
34252W        W77268  26.922  33.181   1.626 -0.1673  0.1664  0.1191
34253W        W77269  34.650  33.161  27.646  0.0470  0.2656  0.1344
34254W        W77270   3.299   8.551  24.530  0.0956 -0.0601 -0.1255
34255W        W77271  23.795  32.442  19.395  0.0097  0.0650  0.0513
34256W        W77272   8.733  31.699  13.945  0.1097  0.1996  0.0674
34257W        W77273  30.389   9.001  17.518  0.4003 -0.0014 -0.0015
34258W        W77274  17.280  32.669  20.396  0.0118 -0.1043 -0.1077
34259W        W77275   0.532  30.380   3.256  0.0178  0.0965  0.0867
34260W        W77276   8.397   7.945  14.610 -0.4152  0.0807 -0.0235
34261W        W77277  28.952  30.571   3.748  0.2237  0.3128  0.0132
34262W        W77278   1.355   4.289  19.497 -0.0536  0.0661  0.0628
34263W        W77279  21.850  18.856   4.005  0.0437 -0.0854  0.0802
34264W        W77280  19.523   6.326   4.188  0.0883  0.0856  0.2931
34265W        W77281   9.004  25.027  14.969 -0.0440 -0.0380  0.0180
34266W        W77282   9.239  33.154  21.946  0.1548 -0.0244  0.1152
34267W        W77283  13.895   3.770   3.540 -0.1745  0.1464 -0.0905
34268W        W77284  10.164  24.199  27.879  0.3863  0.0038 -0.1751
34269W        W77285  31.920  22.801  27.956  0.0146 -0.1374  0.0125
34270W        W77286   2.418  34.386   6.229  0.1876  0.1652  0.2255
34271W        W77287   2.908  28.673  15.572 -0.1923  0.0687 -0.2023
34272W        W77288  29.951  29.795  24.983 -0.0439 -0.1191  0.0616
34273W        W77289  27.011   0.425   3.334  0.1186 -0.2463 -0.0610
34274W        W77290   1.947  26.460  22.270 -0.2020 -0.0072  0.0472
34275W        W77291  16.541  24.255  21.770 -0.0631  0.0069 -0.1459
34276W        W77292  10.664  11.273  14.636  0.1467  0.0978  0.0496
34277W        W77293   6.217  32.489  19.917 -0.0875 -0.2018  0.4523
34278W        W77294  16.675  12.711  12.968 -0.2240 -0.2013  0.0551
34279W        W77295  29.323  30.750  22.078 -0.1282  0.1030 -0.1776
34280W        W77296   6.836   1.452  19.264  0.0634 -0.0755 -0.1374
34281W        W77297  34.715  29.495   7.960  0.2137 -0.1641 -0.0826
34282W        W77298   4.740  33.999  28.845  0.1117 -0.3400 -0.0244
34283W        W77299  13.981  30.164  11.045  0.0360  0.0059  0.1270
34284W        W77300  33.773  20.528  15.324  0.0113  0.2011 -0.0229
34285W        W77301  20.068   0.360  27.473 -0.2738  0.1540  0.2060
34286W        W77302  11.444  23.630  13.948  0.0778 -0.2096  0.1158
34287W        W77303   2.934   5.616   3.090 -0.2695 -0.2542 -0.1688
34288W        W77304   8.289  20.280  17.795  0.0960  0.2137  0.4538
34289W        W77305  17.292  24.110  22.766 -0.0232  0.4649 -0.0261
34290W        W77306   8.242  32.592   8.647  0.0781 -0.1532 -0.0458
34291W        W77307  30.456   5.096  27.999  0.1310 -0.0161  0.1581
34292W        W77308  29.289  15.081  15.788  0.1092  0.2984  0.0089
34293W        W77309   5.147   3.298  22.607 -0.1713 -0.1579 -0.1686
34294W        W77310   8.994   0.997  17.025 -0.0533 -0.0961  0.2048
34295W        W77311   4.720  19.484  21.816  0.0696 -0.1122  0.0562
34296W        W77312  20.506   4.658  20.435  0.2810 -0.4042  0.0246
34297W        W77313  21.586  32.233  15.022  0.1582 -0.4377 -0.1970
34298W        W77314  17.964  20.704   4.732  0.2629  0.1531  0.1895
34299W        W77315  29.120  30.903  26.559  0.1465 -0.0721 -0.1654
34300W        W77316  12.573   7.623  14.841 -0.0850  0.2214  0.0934
34301W        W77317  16.610  28.917  18.815  0.3379 -0.0108  0.2973
34302W        W77318   4.322  17.954  19.900 -0.0309  0.1178 -0.1091
34303W        W77319  20.042   9.976  28.330  0.1383  0.0809 -0.0458
34304W        W77320   6.715  34.154  21.301 -0.2847  0.0950 -0.1860
34305W        W77321   4.038  34.587  16.710 -0.0707 -0.0920 -0.0312
34306W        W77322   5.191  25.266  20.805 -0.3518  0.2635  0.4361
34307W        W77323   4.620   7.920   5.629  0.2184  0.0786 -0.1202
34308W        W77324   7.255  34.397  18.924 -0.1285 -0.1321  0.0529
34309W        W77325   2.672  25.143   7.214 -0.2721 -0.2523 -0.0326
34310W        W77326  29.267  31.710  24.299  0.3124  0.2820  0.2671
34311W        W77327  12.927   7.050  24.106 -0.1437 -0.3684 -0.2847
34312W        W77328  20.978  18.468  24.096 -0.1870 -0.1048  0.0123
34313W        W77329   6.402  33.030  21.336 -0.2099  0.0249 -0.0497
34314W        W77330  31.985  32.663  29.095 -0.1046  0.0723  0.4156
34315W        W77331  21.538   1.411  22.679 -0.0670 -0.0260  0.3810
34316W        W77332   8.416  27.098  18.544  0.3457 -0.0193  0.0330
34317W        W77333  11.279  33.534  14.743  0.0474 -0.0204  0.0283
34318W        W77334  15.622  24.360   5.435  0.2146  0.0443  0.3244
34319W        W77335  24.075  20.537  26.264 -0.4087  0.0465  0.1754
34320W        W77336   0.111   4.818  15.635  0.4133 -0.0465 -0.0566
34321W        W77337   3.582  27.843  15.500 -0.0452 -0.0619  0.0056
34322W        W77338   2.918  25.519  14.057  0.1048 -0.0052  0.3603
34323W        W77339  17.894  31.884  20.073  0.0847 -0.1012  0.0110
34324W        W77340   1.883  18.004  15.464 -0.3346  0.2849  0.0576
34325W        W77341   8.163  28.457  14.655 -0.0560 -0.3224 -0.3394
34326W        W77342   9.725   8.537  23.526  0.0069 -0.1632  0.0584
34327W        W77343  23.515  27.621   5.102  0.0572 -0.3713  0.3190
34328W        W77344   4.827  23.005  13.474 -0.1338  0.1822 -0.2392
34329W        W77345  26.256  17.406   0.103 -0.2702 -0.2936  0.0078
34330W        W77346  23.951   1.783  27.454 -0.3320  0.0586 -0.0411
34331W        W77347  11.423  33.374   3.997 -0.1150 -0.0621 -0.1087
34332W        W77348  34.242  21.788  17.779 -0.0687 -0.0374  0.1930
34333W        W77349   2.497   3.494  22.285 -0.1700 -0.2584 -0.0117
34334W        W77350   4.607  17.159  23.127 -0.1275  0.1283 -0.2543
34335W        W77351  33.036  22.123   4.134  0.3078  0.0812 -0.0099
34336W        W77352  13.072  29.247   4.931  0.2233 -0.1701 -0.3729
34337W        W77353  10.021  32.343   1.079 -0.0995  0.1324  0.0520
34338W        W77354   2.614  24.965  22.316  0.0570  0.0894 -0.2308
34339W        W77355  29.713  25.936  21.314 -0.3728 -0.0206 -0.0419
34340W        W77356   1.583   2.920  20.528 -0.0269  0.1529  0.0284
34341W        W77357   2.638  21.691  17.100  0.0996  0.1442 -0.0550
34342W        W77358   1.299  24.150  16.623 -0.0239  0.0489  0.1285
34343W        W77359  24.734   5.089   9.133 -0.0023  0.4671  0.1645
34344W        W77360  12.633   9.422  15.442  0.0477  0.0301  0.2316
34345W        W77361   8.641  16.588  15.457 -0.1514  0.2209  0.0312
34346W        W77362  13.659  26.644  16.943 -0.0187 -0.0007  0.3334
34347W        W77363   1.510  24.858  25.349 -0.2883 -0.2901  0.1585
34348W        W77364   3.707  31.010  13.667  0.2633 -0.3601  0.1361
34349W        W77365   1.537  32.536  16.541  0.1412  0.1046  0.0023
34350W        W77366  14.835  11.817  21.762 -0.1975 -0.0140  0.2624
34351W        W77367  11.557   8.026  22.235  0.0770  0.0092  0.2285
34352W        W77368  14.327   7.578   8.820  0.1283 -0.1549 -0.3457
34353W        W77369   5.053   5.335   2.167 -0.1268  0.2221  0.0394
34354W        W77370   6.408  22.063  25.028 -0.0728  0.2042 -0.1067
34355W        W77371   8.224  30.192  27.873 -0.4590 -0.0551 -0.4188
34356W        W77372  33.746  22.849  14.725 -0.2336  0.1045 -0.0605
34357W        W77373  34.021  31.694  24.829 -0.1409  0.2447 -0.3892
34358W        W77374  19.875  28.702  26.850  0.0579 -0.2212 -0.1022
34359W        W77375  15.182  31.256   7.203 -0.0097  0.2141 -0.1086
34360W        W77376   3.252  21.323  14.403 -0.1194  0.0171 -0.0855
34361W        W77377   2.511  20.047  26.796  0.1700 -0.2037  0.0827
34362W        W77378  21.918  34.643   0.068  0.0856 -0.1849  0.1722
34363W        W77379   0.401   3.934   0.439 -0.0932  0.2061  0.0182
34364W        W77380   7.260  10.948   0.207 -0.0536 -0.4674  0.4553
34365W        W77381  29.321   6.759  21.611 -0.0781 -0.0245  0.1976
34366W        W77382   3.365  25.441  21.116  0.4503  0.1202  0.2196
34367W        W77383  28.736  24.362  15.698  0.0155  0.0999 -0.0018
34368W        W77384  20.873  27.081  15.726  0.1610 -0.1481 -0.1788
34369W        W77385   2.109  28.876  26.162  0.0902  0.1284 -0.3425
34370W        W77386  23.984  33.052  10.644 -0.2181 -0.0803  0.1976
34371W        W77387  28.361  28.330   9.456 -0.3536 -0.0860  0.4661
34372W        W77388  34.529   1.759  26.499  0.3512  0.2879 -0.1083
34373W        W77389  19.594  31.274  21.798  0.0934 -0.2064  0.3980
34374W        W77390   9.776   8.556  21.794 -0.1117 -0.0971 -0.1613
34375W        W77391  11.232  24.279  19.757  0.2674 -0.0604 -0.1674
34376W        W77392  13.943   6.892  28.948  0.1623 -0.1408 -0.1550
34377W        W77393   2.667  25.028  17.091 -0.2338 -0.4232  0.0952
34378W        W77394   1.274  31.773   9.670  0.1523  0.1932 -0.3117
34379W        W77395   1.525  22.211  22.429 -0.0804  0.1704  0.0484
34380W        W77396   2.559  15.029  15.881 -0.1196  0.0097  0.0729
34381W        W77397   7.197  12.001  25.418 -0.3195 -0.0604  0.2756
34382W        W77398  31.278  10.646   2.615  0.0475 -0.1356  0.0192
34383W        W77399  34.358  22.768  24.279  0.3694 -0.2084 -0.2913
34384W        W77400   5.825  28.471   8.501 -0.0932  0.0969 -0.0822
34385W        W77401  34.335   3.940   3.876  0.2168 -0.1163 -0.0111
34386W        W77402  32.312  31.331  26.974 -0.0174 -0.0357 -0.0356
34387W        W77403  12.400   3.601  26.290 -0.1549 -0.0497 -0.1204
34388W        W77404  25.550  31.786  18.421 -0.2010 -0.2188 -0.0294
34389W        W77405  34.676  27.783  21.565  0.1181 -0.1007 -0.0001
34390W        W77406  13.298   7.174  14.890  0.2508  0.0047 -0.3876
34391W        W77407   1.489  30.301   9.364 -0.0705  0.0400 -0.2298
34392W        W77408   8.501  30.408  25.916 -0.1185  0.0574  0.0986
34393W        W77409   0.947  23.633   9.054 -0.1153 -0.2248  0.0882
34394W        W77410   4.873  16.514  27.586 -0.0236  0.3355  0.1297
34395W        W77411   2.514  29.967  15.577  0.1109 -0.3265 -0.0950
34396W        W77412   4.341   9.756   3.568 -0.1414 -0.1329  0.2678
34397W        W77413  34.058  27.310  14.991 -0.1205  0.0632 -0.1285
34398W        W77414  25.733   1.901  27.507 -0.1949 -0.2209  0.1841
34399W        W77415  24.335  32.734  16.746 -0.0516  0.0085  0.0339
34400W        W77416  11.686  27.393  26.345  0.0074  0.0592  0.1015
34401W        W77417  16.459  29.761  29.083  0.0874  0.0839 -0.2235
34402W        W77418   3.811  14.262   6.753  0.1497  0.1087  0.0895
34403W        W77419  31.405   0.253  19.757  0.2174  0.0283  0.0763
34404W        W77420   6.920   9.153   9.849 -0.3366  0.2467  0.1038
34405W        W77421   7.536  24.466   7.101  0.0008  0.2997 -0.2180
34406W        W77422  22.537   2.729  15.752 -0.0074 -0.2719  0.2257
34407W        W77423  34.324  21.418   6.969 -0.0007  0.0483 -0.1266
34408W        W77424  32.246  33.724  16.916  0.1175  0.1089  0.2905
34409W        W77425   9.724  20.327   8.056  0.1947  0.0278 -0.0529
34410W        W77426  21.191  28.170   0.623  0.0324  0.0197  0.2653
34411W        W77427  33.537  25.187   3.430 -0.0606  0.1213  0.0812
34412W        W77428  26.891  22.937  22.289 -0.0215 -0.0701  0.2843
34413W        W77429  10.202  21.983   1.846  0.0241 -0.0198  0.3297
34414W        W77430   3.256  18.554  25.130  0.3215  0.2227  0.1426
34415W        W77431   6.860  21.945   4.383 -0.2326 -0.3571 -0.0312
34416W        W77432  13.116   2.047   6.605  0.0355  0.0375  0.2252
34417W        W77433  31.780  20.324  19.350  0.0370 -0.1690 -0.1809
34418W        W77434   0.246  24.750  29.169  0.0037 -0.0107  0.0946
34419W        W77435  18.849  28.370  27.686  0.1831 -0.2040 -0.1440
34420W        W77436  12.730  26.459  24.588 -0.2090 -0.1244 -0.1771
34421W        W77437   9.770   6.903   5.434  0.1389 -0.0515 -0.4938
34422W        W77438  30.287  29.791   8.898 -0.3019  0.2992 -0.0089
34423W        W77439  16.326  16.730   7.987  0.2182  0.1540  0.1989
34424W        W77440  11.072  17.246  19.249 -0.0881 -0.0424 -0.0768
34425W        W77441  32.365   4.987  20.227 -0.0616  0.0642  0.2443
34426W        W77442   0.036  16.461  23.694 -0.0607 -0.1008  0.0196
34427W        W77443  12.934   7.087   4.602 -0.2600 -0.4237 -0.2335
34428W        W77444  28.680  18.150  28.584  0.1767 -0.2108 -0.1483
34429W        W77445   8.060  30.552  26.954  0.2480  0.0161  0.1658
34430W        W77446  33.574   0.270   6.456  0.0174 -0.1208 -0.3212
34431W        W77447   7.524  14.159   1.702  0.1027  0.2362  0.1760
34432W        W77448  18.025  22.604  14.990 -0.0045  0.4262 -0.1814
34433W        W77449   5.744  33.951  19.936  0.0189  0.1400 -0.1417
34434W        W77450  28.336  21.335  25.629 -0.1316  0.1163 -0.2389
34435W        W77451  27.906  29.605   4.267  0.0838  0.3571 -0.0794
34436W        W77452  24.548   4.810  25.800 -0.2707 -0.1632  0.0335
34437W        W77453  19.855   4.596  25.297 -0.2566 -0.1292 -0.0959
34438W        W77454  30.745   3.734   4.229  0.2237 -0.0409  0.1683
34439W        W77455  10.748  31.753  27.368 -0.5087 -0.1805  0.0237
34440W        W77456  23.271  31.658  23.147 -0.0927  0.0132  0.0733
34441W        W77457  11.667   4.797   9.606 -0.0133  0.1119 -0.0587
34442W        W77458   7.302  34.657   3.627  0.2949  0.2866  0.0918
34443W        W77459  30.838  26.646   5.328 -0.0664  0.1882  0.0389
34444W        W77460  32.807  30.784  28.999 -0.0366 -0.0029 -0.0495
34445W        W77461  29.438   0.630  25.428 -0.2230 -0.0382 -0.0695
34446W        W77462  10.700  11.823  14.610  0.1354  0.3200  0.1691
34447W        W77463   2.521  19.030  19.562  0.0307  0.2872 -0.2883
34448W        W77464  30.136   0.039  26.098 -0.2224 -0.2042 -0.1626
34449W        W77465  15.772  23.237  20.251  0.0806  0.1944  0.2777
34450W        W77466  11.340   9.890  28.731  0.2689 -0.5529 -0.2402
34451W        W77467  12.666   6.114  16.311 -0.3860 -0.3784 -0.1765
34452W        W77468   4.890  25.917   2.659 -0.1662 -0.0814  0.1569
34453W        W77469  20.602   1.261  23.489  0.4162  0.3084  0.2434
34454W        W77470   6.744  20.455  28.628  0.0154 -0.1727 -0.0559
34455W        W77471   1.442  28.378  19.999 -0.0958  0.0565 -0.2267
34456W        W77472  11.930  33.780  25.204 -0.1041 -0.2474 -0.0060
34457W        W77473  30.089   6.613  28.847 -0.1640 -0.0743 -0.0069
34458W        W77474  16.324  31.838  28.610 -0.1008 -0.1790  0.1893
34459W        W77475  18.958  21.853  26.371 -0.0875 -0.1952 -0.3430
34460W        W77476   6.274  30.735  27.321  0.1734  0.2077  0.1383
34461W        W77477   5.027  20.014   5.693 -0.0502  0.0332 -0.0448
34462W        W77478  20.621  13.075  27.943  0.1802 -0.1772 -0.0029
34463W        W77479   6.071  12.338   1.728  0.1981 -0.0662 -0.1435
34464W        W77480  29.388  24.268  15.263 -0.4016  0.0073  0.0735
34465W        W77481   3.024  27.568  22.666  0.2917  0.0304 -0.3442
34466W        W77482  31.777   4.984  22.540 -0.1990 -0.0940 -0.0628
34467W        W77483  20.050  20.896  22.814  0.1581  0.0118  0.3413
34468W        W77484  28.679   6.093   7.994  0.0572  0.1697 -0.0878
34469W        W77485  32.730  16.113  22.379  0.0209  0.0035 -0.0995
34470W        W77486  28.995   3.839  19.658 -0.1713  0.0553 -0.1225
34471W        W77487   3.570  21.511   3.353  0.2480  0.2141  0.2692
34472W        W77488   6.770  30.433  14.346 -0.1680 -0.1077  0.0175
34473W        W77489  15.626   1.776   3.720  0.2643 -0.0691  0.1001
34474W        W77490  29.578  33.143  22.705 -0.2529  0.0344  0.1288
34475W        W77491  24.241   8.116  18.956  0.0650 -0.0282  0.0445
34476W        W77492  10.786   1.784  21.314 -0.1050  0.0225  0.0961
34477W        W77493  23.950  31.942  19.386  0.1584 -0.1492  0.1546
34478W        W77494   0.330  29.177  23.083 -0.0667 -0.0826  0.1033
34479W        W77495   0.940  30.528   9.995  0.1224  0.0578 -0.2638
34480W        W77496  29.855  29.081  18.686 -0.1863 -0.0430 -0.2585
34481W        W77497  34.276   0.904  22.336  0.0694  0.0134 -0.1966
34482W        W77498   6.509  19.543  21.798  0.0482 -0.2094  0.2465
34483W        W77499  10.665  24.296  23.274 -0.1559 -0.3585  0.0666
34484W        W77500   0.567  22.437  22.172 -0.1712 -0.1410 -0.2493
34485W        W77501  18.982  25.498  18.483 -0.1509 -0.0970  0.0028
34486W        W77502  33.357   3.944  28.873  0.0226  0.1427  0.1607
34487W        W77503  14.086  24.798  18.270  0.3669 -0.1220 -0.3694
34488W        W77504   6.239   5.151  23.782 -0.1009 -0.0121 -0.1817
34489W        W77505   0.889  28.885  28.729 -0.2175  0.2587  0.0126
34490W        W77506   4.376  31.450  21.710  0.1838  0.0829 -0.0525
34491W        W77507  12.043  17.464   8.151 -0.3293 -0.0870 -0.3383
34492W        W77508  25.393   9.397  22.942  0.2155 -0.0097  0.0957
34493W        W77509  11.887  18.713  12.818 -0.1491 -0.1333 -0.1143
34494W        W77510   1.698  16.912  20.815  0.2251  0.0352 -0.2153
34495W        W77511   9.769  29.903  14.830 -0.2604 -0.1278  0.0731
34496W        W77512   2.562  16.433  28.745  0.3637 -0.0705 -0.0800
34497W        W77513  27.177  12.860   1.076  0.2283 -0.1688 -0.1945
34498W        W77514  20.942   9.578  26.626  0.1084  0.1717 -0.4480
34499W        W77515  31.194  32.241  23.401  0.2903 -0.0040 -0.1374
34500W        W77516  26.280  31.359   1.412  0.2477 -0.0968 -0.2822
34501W        W77517  10.747   3.569  19.114 -0.2838 -0.3342  0.0574
34502W        W77518  15.313  14.620  24.260 -0.1954  0.1362 -0.3295
34503W        W77519   0.853  15.327  19.917 -0.0236  0.4036 -0.1182
34504W        W77520  33.383  25.097  21.938  0.1144  0.2000  0.0916
34505W        W77521   1.765  29.057   1.723 -0.0790  0.2698 -0.2152
34506W        W77522   7.420  34.613   3.158  0.3204 -0.1435  0.1445
34507W        W77523   0.598  28.126  29.168 -0.0544  0.0699 -0.2063
34508W        W77524  18.874  25.376  25.365  0.0944 -0.0233  0.4834
34509W        W77525   4.752   1.058  18.103 -0.0707  0.1297  0.3294
34510W        W77526  24.815  19.105  20.491  0.0614 -0.3497 -0.1762
34511W        W77527  30.312  27.857  28.728 -0.2392  0.0118 -0.2862
34512W        W77528   1.936   1.909  27.366  0.1221 -0.0016 -0.3779
34513W        W77529  10.865   2.955  22.552  0.0717 -0.2200  0.1379
34514W        W77530   1.588  11.493  18.102  0.0863 -0.1512  0.2253
34515W        W77531  24.126  27.511  27.646 -0.1092 -0.0179 -0.3056
34516W        W77532   9.717  21.483  13.657 -0.1674  0.0699  0.1989
34517W        W77533   4.143  24.497   6.958 -0.4097  0.2748 -0.1932
34518W        W77534  30.326  29.778  18.886 -0.1397  0.4099 -0.1047
34519W        W77535   1.736  34.364  21.552 -0.1152 -0.0440 -0.0081
34520W        W77536   4.974   2.698  29.129 -0.4231  0.1448 -0.0912
34521W        W77537  11.466   1.887  22.424 -0.0956 -0.2055  0.0545
34522W        W77538   3.754   3.333  28.403 -0.2308 -0.2992  0.0111
34523W        W77539   7.781   4.833  16.892 -0.1503  0.1525 -0.0884
34524W        W77540  14.175  33.787   6.613 -0.1904  0.0658  0.1964
34525W        W77541   0.319  14.688  29.163  0.1824  0.1074 -0.2613
34526W        W77542  10.837  23.503  16.180 -0.0979  0.0920 -0.0958
34527W        W77543  12.404  31.896   3.818 -0.2117  0.1996 -0.0346
34528W        W77544   4.123  10.561   7.815  0.0726  0.0255 -0.1222
34529W        W77545   3.099   9.775  25.047  0.0263  0.0084  0.4201
34530W        W77546   7.302   3.049   8.168 -0.0422  0.2935  0.0404
34531W        W77547  16.094  32.664  24.861 -0.1503  0.1622 -0.0546
34532W        W77548   1.100  24.763  26.201 -0.2935 -0.4613  0.0359
34533W        W77549   4.263  30.108  18.153  0.0683  0.0017 -0.1035
34534W        W77550  26.988  25.112  26.720  0.1414  0.0487 -0.0190
34535W        W77551  21.820  30.622  26.565  0.0963  0.0538  0.0440
34536W        W77552   5.386  16.221   0.056  0.0625 -0.0674 -0.2609
34537W        W77553  11.382   6.905  27.713 -0.1567 -0.0650  0.2006
34538W        W77554   9.176  34.257   0.153  0.0685 -0.0223  0.3831
34539W        W77555  17.577  29.840  23.777 -0.2049 -0.1063  0.1764
34540W        W77556  30.564  14.243  17.489  0.1816  0.1061  0.2401
34541W        W77557  30.807  23.546  17.845  0.1421 -0.1341 -0.0717
34542W        W77558   3.594  30.427   7.399  0.1619  0.1414  0.1297
34543W        W77559  34.717   3.653   1.269  0.2000 -0.1533 -0.6217
34544W        W77560  26.326  12.186  14.713 -0.0008  0.1262 -0.1488
34545W        W77561   6.226   0.194  21.277 -0.0302 -0.1998 -0.0735
34546W        W77562  30.884   6.719  16.666  0.0735  0.1256 -0.0474
34547W        W77563  10.056   8.415  24.200 -0.1519 -0.1428 -0.3032
34548W        W77564  14.388  32.329  15.153  0.0621  0.2964 -0.0867
34549W        W77565  10.677  30.995  23.913 -0.0051  0.1787 -0.0649
34550W        W77566  10.393  22.398  16.949  0.0686 -0.1351  0.0224
34551W        W77567   4.020   2.073  21.882 -0.0014  0.0552  0.2315
34552W        W77568   8.472  24.446   7.250 -0.0151  0.2709  0.0704
34553W        W77569  12.988  24.304  16.096 -0.2095  0.0226 -0.1300
34554W        W77570   5.145  14.896  27.634 -0.0017 -0.1273  0.2436
34555W        W77571   0.835   2.681   2.607  0.0630  0.0795  0.0294
34556W        W77572  21.617  27.704  22.733 -0.0898  0.3694  0.1182
34557W        W77573   6.719  27.550  25.752 -0.2444 -0.1141 -0.0599
34558W        W77574  34.338  31.088  16.233  0.2898 -0.3174  0.0430
34559W        W77575   6.414  25.902   6.070  0.0205  0.0135 -0.0789
34560W        W77576  30.011   0.970  23.852  0.3774  0.0018 -0.0418
34561W        W77577  18.202   7.982  21.983 -0.0561 -0.2114 -0.2883
34562W        W77578   8.308  21.451  24.636 -0.2999 -0.0447  0.1878
34563W        W77579   9.404  16.039   0.713 -0.0904  0.3695 -0.1154
34564W        W77580  33.666  24.591   2.997 -0.2105 -0.0759 -0.0359
34565W        W77581  12.184  32.884   9.855 -0.0577 -0.1262 -0.1083
34566W        W77582   0.162  19.478  20.562 -0.3623  0.1268 -0.1011
34567W        W77583  25.600  24.966  25.566 -0.3299 -0.0669  0.0488
34568W        W77584  32.311  19.893   1.447 -0.1999 -0.2023 -0.1883
34569W        W77585  27.084  22.319   0.727 -0.2824 -0.2612  0.1330
34570W        W77586  14.050  21.426  28.467 -0.2513 -0.2712 -0.1404
34571W        W77587  26.700   6.934  17.747  0.0856 -0.0572 -0.3865
34572W        W77588  33.302   1.702  22.034  0.0638 -0.2329 -0.1981
34573W        W77589  24.168  31.872  26.350  0.1683  0.0307  0.0464
34574W        W77590   6.566  29.480  14.978 -0.1435 -0.1535  0.0086
34575W        W77591   0.911  34.102  23.068 -0.0349  0.1239  0.3230
34576W        W77592  10.759   2.742   3.772 -0.4334  0.0150 -0.1552
34577W        W77593   3.610  15.410   6.084 -0.0100  0.0935  0.3670
34578W        W77594  22.193  30.993  18.091 -0.3037 -0.2227 -0.1801
34579W        W77595  34.768  33.362  22.112  0.1714 -0.1603 -0.0261
34580W        W77596   6.648  21.476  21.232 -0.0035 -0.1517  0.0728
34581W        W77597  30.707  33.308  16.327 -0.0699 -0.3713 -0.0999
34582W        W77598   1.649  32.832  29.083  0.1297  0.2482 -0.1325
34583W        W77599   5.070  11.713  20.824 -0.2144  0.2004  0.1741
34584W        W77600   3.130  24.851   1.991 -0.0117 -0.2367 -0.0530
34585W        W77601   8.507  31.765  19.171  0.1808  0.0964 -0.0435
34586W        W77602  13.009  24.272   2.927  0.3094  0.1894  0.1155
34587W        W77603  32.524   6.656  28.645  0.1943  0.0973 -0.0526
34588W        W77604  34.138  29.317  14.436 -0.0883 -0.3563 -0.1176
34589W        W77605   0.564  21.911  24.698 -0.3265 -0.0308 -0.1169
34590W        W77606  14.820  29.104  24.996  0.0074 -0.3239 -0.0860
34591W        W77607  27.566  31.289  18.460 -0.4677 -0.1004  0.0537
34592W        W77608  21.317  34.663  26.526 -0.4370  0.0499 -0.0368
34593W        W77609  19.580  26.366  29.215 -0.0968  0.2229 -0.3520
34594W        W77610  27.692   4.628   0.953 -0.3123  0.0845  0.0438
34595W        W77611  17.244  18.574  25.825 -0.0836 -0.1330  0.1551
34596W        W77612   3.484  29.626   1.267  0.0813  0.0894  0.0127
34597W        W77613  19.838  23.210   3.465  0.1168 -0.0401  0.1417
34598W        W77614  29.547  21.467  17.801 -0.0790 -0.1975 -0.1988
34599W        W77615  14.490  16.818  22.810 -0.0379  0.0017  0.0357
34600W        W77616   7.788  33.720   4.273 -0.0183  0.3733  0.0407
34601W        W77617   1.045  19.568  19.233 -0.2523  0.1447 -0.1362
34602W        W77618  20.687  12.651  19.940  0.2176  0.3992 -0.0813
34603W        W77619  33.176   1.804   1.813 -0.3835 -0.1974  0.0065
34604W        W77620  26.840  26.958  23.319  0.0302  0.1106 -0.1158
34605W        W77621  11.700   9.341  21.280  0.0285  0.0327  0.0692
34606W        W77622  13.542  17.901  28.290 -0.2348  0.4850 -0.3662
34607W        W77623   4.148  33.747  28.630  0.1354  0.3324  0.0430
34608W        W77624   4.211  33.453  14.130  0.0577 -0.0110 -0.0434
34609W        W77625  27.509  33.781   5.568 -0.2700  0.1030 -0.2753
34610W        W77626  27.403   8.962   9.027 -0.1044  0.0921 -0.0943
34611W        W77627   3.806   8.121   2.524  0.1158  0.1463 -0.0938
34612W        W77628  18.420  29.222   7.176  0.2761  0.1379  0.1564
34613W        W77629  33.334   7.717  27.591 -0.0870 -0.2327 -0.0842
34614W        W77630  33.631  18.159   1.662 -0.0619  0.1072  0.2837
34615W        W77631   8.609  25.128  18.678  0.0943  0.0733  0.0226
34616W        W77632  11.466  10.005   1.617  0.1917  0.0376  0.2379
34617W        W77633   2.547  25.667  21.461  0.0876 -0.0847  0.1538
34618W        W77634  31.276   2.140  17.116 -0.2836 -0.2185  0.0818
34619W        W77635   9.774  19.397  13.715  0.0223  0.1299 -0.2115
34620W        W77636  31.297   6.858  22.457 -0.2890  0.2044 -0.2150
34621W        W77637  23.930  30.061  22.344 -0.1817 -0.1123 -0.2451
34622W        W77638  31.620   1.345  25.258  0.4523 -0.0821  0.1701
34623W        W77639   3.057  31.782  28.652  0.1891  0.1808  0.1282
34624W        W77640   3.949   5.235  24.639  0.0994  0.0037 -0.0455
34625W        W77641  32.343   9.121  16.538 -0.2506 -0.0188 -0.3467
34626W        W77642  15.481  13.862  26.450  0.0770 -0.0426  0.1149
34627W        W77643   7.076  26.245   5.155  0.2849 -0.0359 -0.2218
34628W        W77644   9.215  11.619  27.972  0.1473 -0.2588 -0.0814
34629W        W77645  30.265   7.978  26.154 -0.0608  0.0116 -0.0029
34630W        W77646   5.105  23.770   3.233 -0.1711 -0.1199  0.1335
34631W        W77647  11.770   2.156  24.593 -0.0965  0.1330  0.2126
34632W        W77648  16.471   3.894  27.424  0.0977 -0.0403  0.0273
34633W        W77649   3.260  15.135   7.434 -0.0685  0.1605 -0.2418
34634W        W77650   9.080  31.845  28.555 -0.0908  0.0425 -0.0829
34635W        W77651  10.222  28.716  21.485  0.2201  0.2670  0.0391
34636W        W77652  18.275  31.840   4.414  0.0722 -0.0998  0.0442
34637W        W77653  21.212  24.709  21.641 -0.2103 -0.1239 -0.1776
34638W        W77654  11.796  16.699  24.868  0.1122  0.2324 -0.1054
34639W        W77655  25.240  32.947   8.805  0.4671  0.0196  0.0526
34640W        W77656   3.391  25.754  17.922  0.0352  0.1500 -0.0657
34641W        W77657   6.017   1.308   2.073 -0.0631  0.0905  0.2207
34642W        W77658  13.377  27.691  18.636  0.0243 -0.0698  0.0292
34643W        W77659  13.347   7.328  22.795  0.1984 -0.3086 -0.0436
34644W        W77660  33.401  12.501  24.752  0.2255 -0.0184  0.0599
34645W        W77661  13.610  15.325  27.746 -0.0233  0.2971  0.0525
34646W        W77662  30.723  25.595  16.696  0.2093 -0.1629 -0.0478
34647W        W77663  31.772  25.484   5.463  0.0878 -0.2211 -0.0294
34648W        W77664   1.843  25.967   9.244 -0.0536  0.1272  0.0685
34649W        W77665   5.125   1.664  24.509  0.1817  0.1378  0.1871
34650W        W77666   4.743  28.791  22.173  0.0058  0.1307 -0.0265
34651W        W77667  18.322   7.131   0.450 -0.1320  0.3397 -0.0760
34652W        W77668   4.891  29.643  27.818  0.1680  0.0324 -0.1929
34653W        W77669  18.559  28.538  24.523 -0.0245 -0.3336 -0.2648
34654W        W77670  22.461   4.004  20.182  0.3806  0.0557 -0.1014
34655W        W77671  32.520  34.088  20.186 -0.1127  0.1492  0.3668
34656W        W77672   8.557   1.957  14.770  0.1807 -0.2992  0.0426
34657W        W77673  33.310  28.004  10.820 -0.2302  0.0637  0.0021
34658W        W77674  21.014  10.731   4.044  0.1757 -0.1921 -0.0849
34659W        W77675  18.747  18.602  26.107  0.0516  0.1587 -0.3387
34660W        W77676  34.520  25.392  18.311  0.0243 -0.0869  0.2709
34661W        W77677  28.782   0.442  21.969  0.0493 -0.0724 -0.3440
34662W        W77678  17.257  31.186   0.506 -0.2319  0.4301 -0.3694
34663W        W77679   3.771  30.552   9.008  0.3146  0.0239  0.0248
34664W        W77680  26.937   6.143  16.640  0.1443 -0.3730 -0.2096
34665W        W77681  12.645  30.990  27.125  0.1372  0.3136 -0.1229
34666W        W77682  12.407   4.755  24.616 -0.1345 -0.0866 -0.2341
34667W        W77683  32.621  30.980  26.680  0.0047  0.1508  0.4467
34668W        W77684  32.418  24.680   3.694 -0.1247 -0.1162 -0.1338
34669W        W77685  34.716  25.864  24.879 -0.0208 -0.3267  0.0024
34670W        W77686  12.760   0.703   1.082 -0.0917 -0.3556 -0.2372
34671W        W77687   5.854  17.050   5.422  0.2108 -0.0918 -0.3080
34672W        W77688  29.684  28.010  17.094 -0.1129 -0.0083 -0.1855
34673W        W77689  10.247  16.587  16.384 -0.0785 -0.0662  0.0995
34674W        W77690  32.050  29.879  27.248 -0.3440  0.4270 -0.2944
34675W        W77691   9.581  30.689   3.547 -0.0463  0.1411  0.2788
34676W        W77692   2.589   4.974  26.884  0.2059 -0.0398 -0.0567
34677W        W77693  31.930   1.307  23.702 -0.0923  0.1978  0.3369
34678W        W77694   6.091  28.197  22.360 -0.1905  0.0571 -0.1280
34679W        W77695  10.384  24.557  17.409 -0.0134  0.0715 -0.0819
34680W        W77696  33.916  31.264  25.076  0.0145 -0.0803 -0.2424
34681W        W77697  32.229   4.324   6.889  0.2757 -0.2579  0.0619
34682W        W77698  11.147  28.216  15.059 -0.1213  0.0662  0.1646
34683W        W77699   2.169  29.916  10.036 -0.0874  0.0964 -0.2666
34684W        W77700   1.522  29.920   1.980 -0.4275  0.0569  0.2012
34685W        W77701   3.110   4.633  16.768  0.1213  0.0468  0.1672
34686W        W77702   2.600   1.871  18.531 -0.1592 -0.0271 -0.2722
34687W        W77703  23.521   6.365   2.817 -0.0703 -0.3465 -0.1540
34688W        W77704   1.153   6.828  21.582 -0.4536  0.3974  0.1527
34689W        W77705  24.104  23.622   0.324 -0.1372 -0.4424  0.2364
34690W        W77706   1.196   0.920  25.681  0.0904  0.2652  0.0894
34691W        W77707   4.804   1.609   6.361  0.2421  0.0231 -0.0112
34692W        W77708  14.017   8.588  24.320  0.1919 -0.1177  0.0863
34693W        W77709   2.364  17.057  24.303  0.1027  0.0280  0.1823
34694W        W77710  34.174  24.196  21.609  0.0354 -0.3383  0.1103
34695W        W77711   3.991   9.975   2.568 -0.4743  0.2135  0.2719
34696W        W77712  33.014  21.281  25.968  0.0061  0.1539  0.0912
34697W        W77713  14.934  32.467  20.690  0.0055  0.0461  0.0270
34698W        W77714   4.745  33.883   4.882  0.0613 -0.3247  0.0506
34699W        W77715   2.760   0.603  15.599 -0.1131 -0.1534  0.1616
34700W        W77716  19.038   1.114   0.936 -0.2824 -0.2109  0.1104
34701W        W77717  29.381  29.774   6.470 -0.1423  0.0641 -0.6521
34702W        W77718  11.631  30.985  26.003  0.0819  0.1865  0.1354
34703W        W77719  21.870  31.611   0.431 -0.1762 -0.3278  0.4628
34704W        W77720   8.763  33.729   4.123  0.2259  0.3432 -0.0343
34705W        W77721  33.555   0.247  27.366  0.1657 -0.1851 -0.0743
34706W        W77722  30.833  30.311   9.338 -0.1829 -0.1704 -0.0051
34707W        W77723  31.864   6.615  27.350  0.1192 -0.1272  0.0403
34708W        W77724   6.412  24.899   9.053  0.1817 -0.2951 -0.2430
34709W        W77725  15.954  29.202  19.844 -0.0519 -0.0225  0.1680
34710W        W77726  18.749  23.099  20.800  0.1419  0.1046  0.2076
34711W        W77727   6.057  23.748  23.733 -0.1292 -0.0515 -0.1837
34712W        W77728   7.601  19.756  24.417  0.1311 -0.0104  0.0417
34713W        W77729  19.860  25.602  24.084  0.3130 -0.2735  0.0958
34714W        W77730   1.949   1.745   5.381 -0.1643 -0.0371  0.0861
34715W        W77731   5.826  26.713   0.432 -0.0415 -0.1119  0.0749
34716W        W77732  24.429  32.817  26.504 -0.0908 -0.0761  0.2222
34717W        W77733  34.736  28.751   0.404  0.1339  0.4500 -0.1762
34718W        W77734   0.408   1.109  28.260 -0.3794 -0.0841  0.1526
34719W        W77735   1.815  25.157   1.445 -0.3161  0.1877  0.1292
34720W        W77736   8.233  33.388  17.544  0.0094 -0.1599 -0.0487
34721W        W77737   7.565   0.491  23.748 -0.0589  0.0203  0.1544
34722W        W77738  28.576  31.887  24.960 -0.4184 -0.0755 -0.2120
34723W        W77739  23.486  29.345   0.196  0.0565  0.1385  0.0293
34724W        W77740  23.751  34.290  10.352  0.1837 -0.3224  0.3259
34725W        W77741  20.113  16.500   5.858 -0.0649  0.2629 -0.1326
34726W        W77742  11.547  24.292  22.585 -0.1554  0.4509 -0.2302
34727W        W77743   6.869   1.627  23.793  0.1859 -0.1196 -0.0186
34728W        W77744   8.659   9.388  23.397 -0.1815  0.1703 -0.1252
34729W        W77745   2.829  14.734   7.426  0.2743 -0.1725  0.2992
34730W        W77746  25.978  15.993  22.385  0.1635 -0.3187  0.1784
34731W        W77747  28.859  29.515  18.559  0.0442 -0.1951  0.4674
34732W        W77748  14.094  23.130  22.412 -0.1344 -0.2015  0.1265
34733W        W77749   8.905   8.140  20.639  0.1017  0.0735 -0.0052
34734W        W77750   2.820  15.293  28.554  0.1744 -0.1944 -0.5512
34735W        W77751  12.309  30.879  21.647 -0.0125  0.0421  0.1516
34736W        W77752   6.074  29.845  17.802 -0.1479  0.1751 -0.0701
34737W        W77753  26.916   1.114  18.091 -0.0968 -0.0346 -0.1405
34738W        W77754  17.153  33.014   0.417 -0.0577 -0.0807  0.0201
34739W        W77755   3.046  18.010  20.216  0.0492 -0.1308 -0.0868
34740W        W77756  27.265  33.834   3.314  0.0490  0.1546 -0.4595
34741W        W77757   8.082  15.064  27.419 -0.2834  0.1936 -0.1988
34742W        W77758   2.005  11.154  27.644  0.3711 -0.4205 -0.0410
34743W        W77759  31.724   1.247  16.929 -0.0733  0.0463 -0.0546
34744W        W77760   8.321   6.988  21.018  0.1032 -0.3404  0.2753
34745W        W77761   8.161  28.595   4.108  0.2992 -0.1677  0.0525
34746W        W77762   7.591  24.016  23.839  0.1107 -0.1057 -0.1131
34747W        W77763   4.482  23.293  20.645 -0.2533 -0.0572  0.0174
34748W        W77764  10.122   8.266  23.750  0.1150 -0.1757 -0.0422
34749W        W77765  23.513  30.824  18.617 -0.2215  0.2417  0.3243
34750W        W77766   3.071   0.124   9.351 -0.1303 -0.0865 -0.1147
34751W        W77767   2.575  27.612  21.014  0.0630 -0.3467 -0.0563
34752W        W77768   5.797  24.973  20.968  0.1039 -0.4654 -0.2694
34753W        W77769  15.334   4.625   7.044 -0.0529  0.0500 -0.0943
34754W        W77770  10.268  27.515  24.101  0.0859 -0.1891 -0.2582
34755W        W77771   4.676   0.961  25.843 -0.3089  0.0241  0.3216
34756W        W77772  30.528   5.926  15.429 -0.3680 -0.0322  0.3881
34757W        W77773  10.719  21.199   6.911 -0.1601 -0.1012  0.1343
34758W        W77774  31.648  33.821   3.190  0.0450 -0.0888  0.0886
34759W        W77775   5.572  21.215   5.860 -0.1754 -0.2710 -0.1097
34760W        W77776   6.148  18.959   2.638 -0.1639 -0.0732 -0.1478
34761W        W77777   2.009  25.803   6.747 -0.0968  0.1096 -0.0453
34762W        W77778  14.484  22.009   5.762  0.3310 -0.0229  0.4581
34763W        W77779   5.260  27.011  14.944  0.5361  0.2641  0.1619
34764W        W77780   7.553  34.288  28.940  0.0959  0.0829  0.1355
34765W        W77781   9.077  18.196  26.291 -0.2915 -0.1228  0.1529
34766W        W77782  16.672  23.222  13.665 -0.0788 -0.1539  0.0368
34767W        W77783  28.632  16.140   0.692 -0.1183 -0.0021 -0.1167
34768W        W77784   6.179   5.145  26.022 -0.1482 -0.2621  0.2274
34769W        W77785   6.673  31.454   9.516  0.2412 -0.0081 -0.2947
34770W        W77786  32.006  17.753  22.472  0.1999 -0.2110  0.0370
34771W        W77787   2.300   7.876  24.208 -0.1147 -0.2034 -0.2024
34772W        W77788   3.380  16.622  28.419 -0.2437  0.0696  0.1987
34773W        W77789   8.633   6.739  28.765  0.2363  0.1622 -0.0085
34774W        W77790  17.905   3.651  20.419 -0.0664 -0.3059 -0.1866
34775W        W77791  10.478  29.054  17.930  0.3015  0.1358 -0.4556
34776W        W77792   4.078  26.826  28.138 -0.2043  0.1385 -0.0208
34777W        W77793  30.369  32.584   5.677  0.0144  0.0708  0.0848
34778W        W77794  12.101  23.451  22.785 -0.1390  0.1065 -0.1463
34779W        W77795   4.653  32.728  15.774 -0.0852  0.0115  0.1381
34780W        W77796   6.068  12.823  18.214  0.1043  0.0186 -0.2319
34781W        W77797  20.511  14.573  28.446 -0.0332  0.0233 -0.0364
34782W        W77798   6.181  24.872  19.697 -0.0493  0.0153  0.3025
34783W        W77799  30.336  14.661  19.645  0.0720  0.0654  0.0525
34784W        W77800   3.960  32.991  16.247 -0.1424  0.1476  0.3349
34785W        W77801   3.431  27.135  17.697  0.1145 -0.0729 -0.3060
34786W        W77802   4.147   5.288  23.146  0.1486 -0.3804  0.1094
34787W        W77803  24.356  18.356   6.829  0.0385  0.2721 -0.2105
34788W        W77804   1.998  32.330  28.453  0.0387 -0.2233 -0.1104
34789W        W77805   0.839  32.575  25.378  0.1010 -0.0504 -0.1164
34790W        W77806   1.128  29.683  24.441 -0.1127  0.1622  0.1780
34791W        W77807  24.444   2.678  27.849 -0.3996  0.0723  0.0297
34792W        W77808   0.669  21.270  24.025  0.0997  0.0191  0.0081
34793W        W77809  31.141  13.075   4.152  0.0347 -0.2801  0.0680
34794W        W77810   8.844  17.626  22.449 -0.2352 -0.1621  0.1150
34795W        W77811  15.228  30.379   8.346 -0.4088 -0.2357  0.1156
34796W        W77812   5.469  28.831   1.272  0.1658  0.0764 -0.0546
34797W        W77813  13.684  29.199   8.753  0.4249  0.3046 -0.1004
34798W        W77814  18.626  30.265  17.226 -0.1151 -0.2278 -0.4324
34799W        W77815   6.516   2.764   2.577 -0.1656  0.1508  0.3277
34800W        W77816  26.901  30.119  20.228 -0.2330  0.0155 -0.1486
34801W        W77817  25.559   1.258   8.247 -0.2149  0.2851 -0.0399
34802W        W77818   8.071   3.850  16.704 -0.0819 -0.0391  0.2641
34803W        W77819  24.912  11.230  25.497 -0.1465  0.3665 -0.0716
34804W        W77820  12.754  26.965   7.606 -0.1269 -0.0537  0.2006
34805W        W77821  19.826   1.055  28.467 -0.0636 -0.3934 -0.1317
34806W        W77822  22.016  31.068   0.411 -0.3148  0.1234 -0.1224
34807W        W77823   8.707  27.460  23.006  0.1252 -0.0539  0.2092
34808W        W77824   2.847  31.805   0.688  0.2910  0.0338 -0.0262
34809W        W77825  17.643  34.270  16.802  0.1080 -0.2372  0.0988
34810W        W77826   7.232  23.436  19.933  0.2150  0.0760  0.1939
34811W        W77827  27.657  30.837  10.238 -0.3241  0.1161  0.0281
34812W        W77828  12.577  15.371  15.849 -0.0962  0.1626 -0.4366
34813W        W77829   0.153   0.641   6.223 -0.1913 -0.1985  0.3221
34814W        W77830   9.210  29.895   2.701  0.4567 -0.0676 -0.0887
34815W        W77831  10.524   7.231   4.955  0.0929 -0.1878 -0.3572
34816W        W77832   6.972   1.882  26.629 -0.1181  0.0719 -0.1140
34817W        W77833  16.474  34.596  28.621 -0.0216 -0.2821  0.1769
34818W        W77834   8.905  17.491  21.594 -0.1174  0.2388  0.0247
34819W        W77835   5.566  27.942   6.614 -0.3851  0.2642 -0.4570
34820W        W77836   3.716   5.746  26.599  0.0729 -0.1722  0.2300
34821W        W77837   1.432  27.114   4.359 -0.0814 -0.0216 -0.1643
34822W        W77838  29.852  34.441  25.241 -0.3278 -0.0768 -0.3364
34823W        W77839  19.483  27.676   9.646  0.2223  0.3371  0.3487
34824W        W77840   4.904  27.830  14.441 -0.0611 -0.1341  0.1644
34825W        W77841  30.227  30.865  22.516  0.0610 -0.2331  0.1675
34826W        W77842  20.456  28.810  16.215 -0.0572 -0.0654 -0.0809
34827W        W77843   6.926  13.961  15.303  0.4068 -0.1394 -0.0256
34828W        W77844  27.858  33.248  26.501 -0.2193  0.1599  0.0503
34829W        W77845   7.225  21.477  19.493 -0.2579  0.0967  0.0224
34830W        W77846  11.704  25.762  20.445 -0.1724 -0.1964  0.1798
34831W        W77847  29.055  33.321  24.833  0.0421  0.2640 -0.1835
34832W        W77848   5.178  31.325   1.149  0.0665  0.1747  0.0708
34833W        W77849  30.609   2.703  28.076  0.1388 -0.0007  0.0435
34834W        W77850  25.166   1.533   8.487 -0.0022  0.5072  0.2293
34835W        W77851  17.709   1.051  20.190 -0.0300  0.3033  0.0936
34836W        W77852   8.585  19.731  19.956  0.1150 -0.0824 -0.0230
34837W        W77853  31.642   6.258  24.091  0.0962  0.2284  0.1782
34838W        W77854  13.851  28.342  17.481  0.0776 -0.0641 -0.0288
34839W        W77855   0.296  30.374  15.164 -0.0454  0.0384  0.1175
34840W        W77856   5.695   3.412  16.487  0.1077 -0.1259  0.1011
34841W        W77857  24.282  30.897  22.560 -0.2871 -0.2525  0.1967
34842W        W77858   8.672  22.218  18.954 -0.0780 -0.0227 -0.1467
34843W        W77859   7.010  25.237  13.792  0.1675 -0.0463 -0.0839
34844W        W77860  20.452   0.707  14.196  0.0007  0.1026 -0.0606
34845W        W77861   4.557  15.297  20.432  0.0844 -0.0918 -0.1599
34846W        W77862  20.883  17.837  13.342  0.0205  0.1279  0.3037
34847W        W77863  17.091  19.788  13.285 -0.0125 -0.0789 -0.0258
34848W        W77864   2.432  14.877  24.002  0.1413  0.1411 -0.2753
34849W        W77865   8.510  27.864  16.506 -0.3490 -0.1810  0.0391
34850W        W77866  16.379   3.509   1.717  0.1629  0.0219  0.2527
34851W        W77867   1.464  27.732  23.540  0.1144 -0.2691  0.0804
34852W        W77868   5.223  21.479  18.147  0.0461  0.1389  0.2225
34853W        W77869  23.572   6.813  20.904 -0.0596  0.1452  0.3648
34854W        W77870   1.672  32.445  21.655  0.0302 -0.3188 -0.1219
34855W        W77871  19.195  14.732  12.164 -0.3120 -0.1015  0.2189
34856W        W77872   5.252   6.089  24.601 -0.0319 -0.1812 -0.0049
34857W        W77873  30.153  20.815  24.522  0.1741 -0.2875  0.1230
34858W        W77874   1.791  11.876   0.367  0.2505  0.1356  0.3723
34859W        W77875  24.624  22.872  18.463 -0.2034  0.0312  0.1304
34860W        W77876  33.077   2.370  18.635 -0.1638 -0.0989 -0.3826
34861W        W77877  22.756  28.119  24.142 -0.1631 -0.2796  0.0967
34862W        W77878   3.149  28.374  14.705 -0.1834  0.0072  0.3354
34863W        W77879  26.779  29.625   5.814 -0.2184 -0.3628 -0.3004
34864W        W77880  11.084   7.654  15.581 -0.0873  0.3090  0.2325
34865W        W77881   0.313   2.774  27.145 -0.2114  0.1321  0.0107
34866W        W77882  16.378  26.951  26.519 -0.0425  0.2904 -0.0068
34867W        W77883  32.516   0.562  20.993  0.0523 -0.0439 -0.1297
34868W        W77884  11.724   3.959  28.247  0.0631  0.3775 -0.1765
34869W        W77885  27.920  27.128  21.603 -0.0354  0.0902  0.2854
34870W        W77886   5.784  33.464  19.414 -0.0798  0.2626  0.0547
34871W        W77887  23.495  25.574  22.933 -0.2849  0.1110  0.2212
34872W        W77888  13.436  34.362  18.732 -0.1111 -0.2021  0.0820
34873W        W77889  33.977  15.954  28.700  0.0266  0.3233  0.1269
34874W        W77890  15.140   5.859  27.257  0.2460  0.1134  0.0601
34875W        W77891   2.791  26.581  25.072  0.1586  0.0976  0.2337
34876W        W77892   8.342  17.159  13.765 -0.1433  0.3496 -0.0142
34877W        W77893  28.864  32.954  15.352  0.1946 -0.3470  0.0402
34878W        W77894   6.138  12.937  16.691 -0.1687  0.0436  0.3582
34879W        W77895  30.671  11.426  25.251  0.0211  0.0524  0.0470
34880W        W77896   3.930  20.551  26.486 -0.0294  0.1526  0.1698
34881W        W77897  11.460  14.786  20.129 -0.0546  0.2674  0.0778
34882W        W77898   3.845  16.032  22.299 -0.0015 -0.2446 -0.0464
34883W        W77899  16.861  12.139  21.437 -0.0782 -0.2046 -0.2218
34884W        W77900  34.657  29.421  23.111  0.3421 -0.0777 -0.2045
34885W        W77901   5.276  32.458  25.684  0.3019  0.1489  0.0874
34886W        W77902  34.125   5.390  16.957 -0.1781 -0.0245  0.1293
34887W        W77903  32.829   8.247  17.682 -0.2933  0.0072  0.1603
34888W        W77904  15.014  26.173  20.861  0.2189  0.1729  0.0792
34889W        W77905   5.573   9.871  22.793 -0.1601  0.1903  0.1259
34890W        W77906  11.047  13.853  14.253  0.0689  0.2152  0.1568
34891W        W77907   5.995  13.059  23.712  0.1801 -0.0756 -0.2262
34892W        W77908   3.111   2.557  19.461 -0.1185  0.0869 -0.2530
34893W        W77909   1.890   6.098  20.562  0.1962 -0.2933 -0.1517
34894W        W77910  14.851  25.226  23.967 -0.3345 -0.1243 -0.0372
34895W        W77911   0.753  15.780  26.775 -0.0022  0.0615 -0.0356
34896W        W77912   2.673  22.163  22.075 -0.0942 -0.1269 -0.2463
34897W        W77913   8.019   0.792  16.794 -0.1029 -0.0155 -0.0959
34898W        W77914   2.514   1.685  28.969  0.1709  0.2204  0.1634
34899W        W77915  12.407   1.945  13.827 -0.0512  0.0571 -0.0102
34900W        W77916  16.752  31.377  18.969 -0.2236 -0.0189 -0.0496
34901W        W77917  20.973  27.693  13.967  0.2343 -0.2483  0.0998
34902W        W77918  13.654   6.717  23.593  0.0203 -0.0967 -0.0057
34903W        W77919  33.212  28.668  24.057 -0.0463  0.2824  0.0009
34904W        W77920  18.750   9.859  14.947  0.0097 -0.1906  0.1776
34905W        W77921  33.893   4.679  15.656  0.3275  0.2466  0.2708
34906W        W77922   7.549   7.497  17.252  0.2072 -0.1038 -0.1884
34907W        W77923   6.246  24.918  14.462 -0.2611  0.1137 -0.1761
34908W        W77924  27.146  31.000  18.423 -0.1478 -0.0479 -0.1516
34909W        W77925  33.314  21.499  19.667 -0.1316 -0.0507  0.0063
34910W        W77926  19.412  25.619  15.103 -0.2108 -0.0300  0.0162
34911W        W77927   8.581  34.286  14.770 -0.1359  0.0987  0.1871
34912W        W77928  21.964  34.397  25.631 -0.2338  0.0406 -0.0110
34913W        W77929  21.373  32.633  26.027  0.0111  0.1800  0.4583
34914W        W77930  20.758  25.476  25.654  0.1736 -0.0602 -0.0057
34915W        W77931  29.043  31.014  21.678  0.3065  0.0684 -0.1822
34916W        W77932  26.528   6.151  17.589 -0.1881  0.1962  0.4620
34917W        W77933  14.361  11.406   1.066  0.3804 -0.0195 -0.4589
34918W        W77934  13.354   7.263  27.093  0.1039 -0.4346  0.0679
34919W        W77935  31.441  11.093  19.120 -0.1259 -0.2016 -0.1797
34920W        W77936  10.464  23.772  18.615 -0.0456  0.0811 -0.1428
34921W        W77937  25.608   4.538  19.489  0.1055  0.1238 -0.1061
34922W        W77938  30.126  30.997  27.763 -0.0024  0.1835 -0.0704
34923W        W77939   3.145   4.831  20.160 -0.1381 -0.0495  0.1166
34924W        W77940  23.303  17.696  23.803  0.1916  0.5550  0.1638
34925W        W77941   2.917   2.967  28.540 -0.0414  0.2715 -0.1623
34926W        W77942   3.867  22.915  22.878  0.1583 -0.0314  0.3539
34927W        W77943  12.677   5.163  20.193  0.3250 -0.1279 -0.0148
34928W        W77944   4.772  28.445  15.601  0.0453  0.0627 -0.0774
34929W        W77945  24.022  31.475  27.146 -0.4413 -0.1169  0.3386
34930W        W77946   2.306  17.055   2.844  0.3282  0.1379 -0.1301
34931W        W77947   7.594  25.748  20.907  0.2617  0.2572  0.1281
34932W        W77948  19.577  10.517  13.844  0.0838  0.1076 -0.1309
34933W        W77949  16.668  19.870  24.619 -0.0505  0.0303 -0.0497
34934W        W77950  28.098  11.222  29.309 -0.0670 -0.0292 -0.1361
34935W        W77951  32.166   3.327  25.618 -0.2759  0.2113  0.0119
34936W        W77952  13.063  30.302   0.740 -0.1133 -0.3695 -0.1322
34937W        W77953  32.054  31.545  23.229 -0.1551  0.0632  0.1618
34938W        W77954  11.058  33.452  22.702 -0.0019  0.2226  0.0079
34939W        W77955   6.177  19.541   3.227 -0.3642  0.1227 -0.0390
34940W        W77956   0.364   4.694  14.823  0.0964  0.2976 -0.1538
34941W        W77957   0.518  26.231  19.709 -0.0300 -0.3145 -0.2348
34942W        W77958   3.657  17.220  18.019 -0.1717  0.0255  0.2883
34943W        W77959   3.154  20.226  14.598 -0.1659  0.2008  0.0950
34944W        W77960  25.086   0.153  20.681 -0.0538 -0.1017  0.0193
34945W        W77961  13.952   7.349  24.525 -0.1673  0.0211 -0.2042
34946W        W77962   6.267   5.665  26.125  0.2695  0.0639 -0.0589
34947W        W77963  12.027   4.958  18.367 -0.2508 -0.1602  0.2716
34948W        W77964   0.804   0.845  27.680  0.1491 -0.1384 -0.4854
34949W        W77965   9.010  24.142  22.441 -0.2642  0.1919 -0.0985
34950W        W77966   8.717  33.541  15.331  0.1041  0.1613  0.3732
34951W        W77967  10.763  11.112  22.208  0.1460 -0.1520 -0.0345
34952W        W77968   9.222  31.541  23.142 -0.2598  0.3194 -0.1469
34953W        W77969  29.594   0.127  26.155 -0.1109  0.0895 -0.0797
34954W        W77970  12.656  29.622  19.426  0.4445 -0.0695  0.2190
34955W        W77971   3.406   9.028  15.396 -0.1610  0.4127  0.1605
34956W        W77972  26.098   6.882   3.116 -0.3131  0.0154 -0.4152
34957W        W77973  15.492   0.153  24.676 -0.0532 -0.1022 -0.0268
34958W        W77974   0.651   0.335  20.279 -0.0200  0.2080  0.0603
34959W        W77975   4.999   5.992  22.173 -0.2200 -0.2929 -0.0890
34960W        W77976  28.613   6.357  25.221 -0.4305  0.1068  0.0958
34961W        W77977  10.971  30.718  22.076 -0.0691  0.1561 -0.1223
34962W        W77978   6.640  26.194  21.418 -0.0777  0.2779 -0.1113
34963W        W77979  32.987   6.875  19.719  0.1414 -0.3629 -0.2087
34964W        W77980   6.338  34.324  19.643 -0.1435  0.0229  0.0060
34965W        W77981  34.717   7.312   3.312  0.2639 -0.0821 -0.0080
34966W        W77982  31.971  29.014  16.974 -0.1733  0.0093  0.1737
34967W        W77983  33.481  12.891  15.515  0.4224 -0.0556  0.2807
34968W        W77984  12.991   2.295  23.885  0.3265 -0.0934  0.0699
34969W        W77985   5.771   0.748  18.412  0.3490  0.1121 -0.0665
34970W        W77986   1.634  20.635  21.521  0.0890  0.3446 -0.2786
34971W        W77987  15.348   1.362  24.446 -0.0695 -0.0574  0.0486
34972W        W77988  28.867  21.958  26.289  0.0611  0.4266  0.2331
34973W        W77989  31.474  30.934  15.108 -0.0758 -0.3767 -0.1714
34974W        W77990   9.121  24.802  16.652  0.0086  0.3264  0.1873
34975W        W77991  11.110  31.377  18.378 -0.1416 -0.1459 -0.0130
34976W        W77992  15.714  11.592  14.258  0.2484  0.1464 -0.1488
34977W        W77993   3.372  18.440  23.285 -0.0414 -0.0150 -0.0220
34978W        W77994  12.629  23.112  15.366  0.0155  0.3032 -0.0435
34979W        W77995   1.456  31.031  15.813  0.0768  0.2123  0.0192
34980W        W77996  18.447  25.771  22.236  0.3093  0.0651  0.1666
34981W        W77997  12.106   8.241   8.008  0.5715  0.0477  0.0524
34982W        W77998  15.912   6.980  19.793 -0.0163  0.1205 -0.1232
34983W        W77999   6.350  28.025  26.104 -0.1271  0.1300 -0.2410
34984W        W78000  11.106  22.839  22.736  0.2569  0.1094 -0.2585
34985W        W78001   9.304   3.940  18.406  0.2182  0.0869  0.1044
34986W        W78002  12.732   7.381  21.366 -0.1230  0.1054 -0.1699
34987W        W78003  10.414  17.505  14.461  0.0760  0.0010 -0.0306
34988W        W78004   4.692  30.999  22.493 -0.2658  0.2583  0.1015
34989W        W78005  10.475  18.704  16.090 -0.1662 -0.0698  0.0958
34990W        W78006  14.397  29.818  15.411 -0.0942  0.1074 -0.3960
34991W        W78007  24.579  18.328  18.956  0.1570  0.1196 -0.1069
34992W        W78008   6.625  15.401  14.154 -0.1037 -0.0116  0.0339
34993W        W78009  26.862   0.616  26.380 -0.2170  0.0034 -0.0939
34994W        W78010   0.276  16.748  17.244  0.0120 -0.0254 -0.0806
34995W        W78011  10.355   1.543  27.992 -0.0509  0.1483 -0.0428
34996W        W78012  11.388   4.292  14.902 -0.3070 -0.0699  0.1719
34997W        W78013  27.383  34.188  20.710  0.3552  0.0072  0.2181
34998W        W78014   9.400  30.834  21.381  0.0989  0.0035  0.1642
34999W        W78015  33.386  24.199  16.061 -0.1239 -0.0034  0.0592
35000W        W78016  34.332   4.099  14.092  0.1219 -0.3374 -0.2167
35001W        W78017   2.220   3.888  22.079  0.1075  0.3231 -0.3379
35002W        W78018   5.689   6.981  17.527 -0.4775 -0.3032  0.2746
35003W        W78019  33.581  10.936  14.683 -0.1461 -0.1851 -0.0990
35004W        W78020  32.090   8.545  19.081  0.2285 -0.1824 -0.0807
35005W        W78021  30.626  25.752  27.417  0.0151 -0.1920  0.2451
35006W        W78022  17.041  29.634  19.007 -0.2035  0.0138  0.2173
35007W        W78023  30.456   4.304  18.956 -0.1628  0.0102 -0.1559
35008W        W78024   0.120  23.122   0.968 -0.3281  0.1477  0.0972
35009W        W78025   7.230   7.751  21.645  0.1467 -0.0672 -0.0333
35010W        W78026   3.769   2.255   5.520 -0.3236 -0.3423  0.0281
35011W        W78027  12.037  31.966  27.786  0.0327  0.0138  0.2992
35012W        W78028   4.237  23.829  23.954 -0.1092  0.1878  0.4009
35013W        W78029  22.295  27.476  16.259 -0.3333  0.1600 -0.1675
35014W        W78030  11.187   0.930  15.406  0.1638  0.1345 -0.0947
35015W        W78031  10.448  27.316  15.967  0.0655 -0.2147  0.1890
35016W        W78032   0.027  16.302  21.381 -0.1213 -0.1310 -0.2361
35017W        W78033  12.411  23.105  13.399  0.2620 -0.1181  0.0858
35018W        W78034  13.419  23.216  14.532 -0.1891 -0.1361 -0.1971
35019W        W78035  11.797  19.304  14.170  0.1023  0.0715 -0.0140
35020W        W78036   0.396   3.526  17.601  0.1405 -0.0406  0.3557
35021W        W78037  33.144  33.943  15.802 -0.1837  0.3974 -0.1424
35022W        W78038  12.064  26.380  23.989  0.0291 -0.1289 -0.1430
35023W        W78039  29.913  31.937  18.459 -0.0524  0.3620 -0.1414
35024W        W78040  24.162   7.544  14.917  0.1292 -0.0710  0.1462
35025W        W78041  11.653   3.606   0.631 -0.1798 -0.0754  0.2353
35026W        W78042   3.655   2.330  17.815  0.1749  0.2360 -0.0322
35027W        W78043   7.741  29.471   0.393  0.1807  0.1030 -0.0509
35028W        W78044  12.957  32.514  21.310  0.4895  0.0235 -0.0859
35029W        W78045   0.167  34.483  19.657 -0.2875  0.2562  0.1973
35030W        W78046  32.854   2.671  27.953  0.0482 -0.0302  0.0128
35031W        W78047  13.852  24.968  22.049 -0.1278 -0.2578  0.0229
35032W        W78048  15.856  29.411  27.741  0.3494 -0.1302  0.0114
35033W        W78049   8.822   7.525  18.212  0.1840 -0.1687 -0.0233
35034W        W78050   4.606  28.241  14.587 -0.0950 -0.0444 -0.2915
35035W        W78051  18.204  12.775  27.143 -0.0855 -0.0358  0.0145
35036W        W78052  14.283  32.040  20.859  0.0268  0.1759  0.0515
35037W        W78053  10.300  29.737   0.222 -0.0103 -0.0888  0.0052
35038W        W78054  12.611  20.515   0.235 -0.0971  0.1798 -0.1841
35039W        W78055  12.115  33.213  18.080  0.2674 -0.0234  0.4445
35040W        W78056   9.489   8.239  26.031 -0.1560  0.0095 -0.2586
35041W        W78057  17.090  14.277  24.758  0.0295  0.0736 -0.2683
35042W        W78058  32.917  12.002  17.374  0.0959  0.0363  0.2170
35043W        W78059  11.506  28.251  26.502 -0.2133 -0.1303 -0.0006
35044W        W78060   5.031   2.716  19.024  0.0737 -0.1316 -0.3664
35045W        W78061  14.471  19.477   6.412 -0.2572  0.0179  0.0615
35046W        W78062  32.546   5.470  20.246 -0.0177 -0.3642  0.1369
35047W        W78063  13.184  22.574  17.633  0.0307 -0.2131  0.0406
35048W        W78064  12.812   6.926  26.287  0.0275 -0.1452  0.0376
35049W        W78065  12.072  24.680  14.837  0.1703  0.1704  0.0603
35050W        W78066  17.996  30.586  28.626  0.1345  0.1731 -0.0568
35051W        W78067   8.542  21.176  21.673 -0.2973  0.1467  0.0923
35052W        W78068   2.767   4.610  24.881  0.0688  0.4378 -0.1704
35053W        W78069   9.915  17.974  22.014  0.2812  0.1644 -0.3403
35054W        W78070   9.887  24.682   1.995 -0.0156 -0.1523 -0.3711
35055W        W78071   8.360  33.938  28.114 -0.0104  0.2520 -0.2518
35056W        W78072   1.764  30.088  23.526 -0.1286 -0.5789 -0.1960
35057W        W78073   4.813  28.769   0.727  0.0245 -0.0343  0.0154
35058W        W78074  27.069  33.706  10.678  0.0035  0.2393  0.1986
35059W        W78075   7.340   9.289  26.661  0.0345  0.1335  0.1784
35060W        W78076  19.114   5.021  16.102  0.1261  0.1151  0.0804
35061W        W78077   8.869   4.273  21.788  0.2501 -0.0441 -0.1013
35062W        W78078  24.516   1.208   4.870 -0.2139  0.0903  0.1365
35063W        W78079  26.944  22.942  22.826  0.0458 -0.0660  0.0947
35064W        W78080   7.896  21.120  18.228 -0.1110 -0.4334  0.1327
35065W        W78081  11.701   1.633  16.804 -0.3031  0.0472  0.0381
35066W        W78082  20.922  12.445  19.523  0.2472  0.2980 -0.0020
35067W        W78083  29.621  34.159   3.313  0.0468 -0.0940  0.2587
35068W        W78084   9.016   2.125  19.829 -0.0967  0.0384  0.1151
35069W        W78085  18.911  26.839  16.933 -0.0203 -0.1001 -0.1179
35070W        W78086  15.651  30.294   0.473  0.0069 -0.1067 -0.0634
35071W        W78087  22.646   5.765  24.665  0.2516 -0.2865  0.0113
35072W        W78088  13.675   3.511  28.423 -0.0621  0.0733  0.1200
35073W        W78089  29.222   0.922  28.381 -0.0893 -0.1771  0.0532
35074W        W78090   1.259  11.365  23.188 -0.3825  0.1397 -0.1035
35075W        W78091   3.061   8.274  18.995  0.0530  0.1689 -0.2549
35076W        W78092   1.689  22.322  19.318  0.1300  0.0200  0.2239
35077W        W78093   0.348  22.696  28.657  0.0280  0.0088  0.0210
35078W        W78094  34.732  19.049   3.287  0.3170  0.1080  0.0493
35079W        W78095  23.605   4.447   3.220 -0.1764  0.1084 -0.0351
35080W        W78096  29.910   2.766  22.091 -0.0566  0.2068 -0.1244
35081W        W78097   2.863  31.126  15.643  0.0113  0.3913  0.2802
35082W        W78098  32.485  16.821  18.743  0.1402 -0.0267  0.0697
35083W        W78099   0.177   2.741  18.219  0.0769 -0.0234  0.0565
35084W        W78100  24.186   8.488  25.688 -0.0174  0.2448  0.1314
35085W        W78101   5.677  12.914   1.131 -0.1361 -0.1361 -0.0169
35086W        W78102  21.631   4.590   1.823 -0.0059  0.1213  0.1793
35087W        W78103  10.200  31.534  18.448 -0.0605 -0.0200 -0.0253
35088W        W78104  14.903  34.553  17.554 -0.2764  0.0920  0.1578
35089W        W78105  10.306  30.759  27.223 -0.1306  0.3315  0.1420
35090W        W78106  33.163   9.876   3.653 -0.1636  0.0920  0.1632
35091W        W78107  20.076  13.593   1.719  0.0506  0.1165 -0.4198
35092W        W78108   9.074  21.982  19.239 -0.1961 -0.1084  0.0109
35093W        W78109  33.421   7.960  23.337 -0.0459 -0.5063  0.0094
35094W        W78110  23.728   3.437  22.100  0.4124 -0.2293 -0.0532
35095W        W78111  12.932  22.216  14.772  0.1787  0.0218  0.0988
35096W        W78112   9.544  28.181  19.207  0.2492  0.1074 -0.1270
35097W        W78113  31.632  33.349  24.970 -0.1592  0.1397 -0.1152
35098W        W78114  28.656  33.269  15.761 -0.1091  0.1462  0.1477
35099W        W78115  26.522   1.193   3.124 -0.3562  0.0589 -0.4386
35100W        W78116   3.154   5.695  22.051 -0.0619  0.0697 -0.5296
35101W        W78117  16.084  23.990  21.667  0.0432 -0.1649 -0.2092
35102W        W78118  18.565   3.956  23.734  0.3339 -0.0425 -0.2002
35103W        W78119   7.163   7.460   9.109  0.2393  0.0553  0.3533
35104W        W78120   4.149   0.330  23.541  0.1540 -0.1044  0.0222
35105W        W78121   8.750  25.693  23.283 -0.0931  0.1129 -0.2905
35106W        W78122  27.833   3.623  10.998  0.0896 -0.0776 -0.0047
35107W        W78123   8.082  23.287  28.271 -0.3263  0.3800  0.1981
35108W        W78124  29.323   1.450   0.475  0.2302  0.0216 -0.1240
35109W        W78125   0.231  34.644  17.480  0.4731  0.0225 -0.0302
35110W        W78126  13.822   0.256  23.529 -0.1070 -0.1794  0.0690
35111W        W78127   0.413   5.468  23.551 -0.2842  0.1391  0.1101
35112W        W78128  16.945  13.243   2.963 -0.1202  0.1481  0.0910
35113W        W78129  18.821  28.932  21.231 -0.0862 -0.0436  0.2037
35114W        W78130  19.048   9.281  23.979  0.1315 -0.1205 -0.0451
35115W        W78131   9.187   9.753  19.241  0.1352  0.0946  0.0367
35116W        W78132   9.549  11.721   5.769  0.3299 -0.1112  0.1568
35117W        W78133  12.250  25.470  19.263 -0.2716 -0.3838 -0.0829
35118W        W78134   0.280  34.351  27.825 -0.3105  0.1316  0.0166
35119W        W78135  27.224  34.116  16.411 -0.0719  0.1719  0.0911
35120W        W78136  32.688  27.686  24.556  0.1505 -0.3201 -0.2704
35121W        W78137  23.240  27.262  29.158 -0.1426  0.0504  0.0411
35122W        W78138   4.679  12.117  22.204  0.4444 -0.1554  0.2153
35123W        W78139  25.862  30.055  22.272 -0.1790 -0.1417  0.3485
35124W        W78140  28.711  34.382  19.864 -0.0560 -0.0664 -0.0988
35125W        W78141   3.424  34.272  17.322 -0.3129 -0.2242  0.0649
35126W        W78142  31.470  29.167   8.449  0.1666  0.1254  0.1161
35127W        W78143   7.546  29.735  15.747 -0.2500 -0.1004  0.0559
35128W        W78144   0.583  11.613  16.726  0.2530 -0.0017 -0.0476
35129W        W78145   7.671   4.364  20.827 -0.2771  0.1297 -0.1793
35130W        W78146   1.661   1.929  21.648 -0.0042 -0.1443 -0.3165
35131W        W78147  11.569  21.556  24.535 -0.3364  0.1203  0.1432
35132W        W78148   4.495  12.254  18.038  0.0622  0.2449  0.0954
35133W        W78149   7.456  25.919  14.235 -0.1899  0.1016 -0.0780
35134W        W78150  26.775  10.072  26.402 -0.1398 -0.1822 -0.0021
35135W        W78151   6.660   3.802  15.647 -0.2896  0.0562  0.0882
35136W        W78152   1.611  30.766  27.193  0.0280  0.2474 -0.1226
35137W        W78153  12.664   1.374  15.881 -0.2641 -0.2181  0.1110
35138W        W78154  10.405  23.610   7.484  0.2209 -0.1603 -0.0413
35139W        W78155   0.956  31.336  24.691 -0.0992  0.0900 -0.3890
35140W        W78156   5.649  27.985  15.466  0.0064  0.0059  0.0234
35141W        W78157   3.662   9.208  28.414 -0.0258  0.0883 -0.0369
35142W        W78158   0.117   1.451  21.039 -0.1732 -0.0196  0.1539
35143W        W78159  17.060  25.547  21.597 -0.0354 -0.1553  0.2039
35144W        W78160  17.485  22.273  13.923  0.2984  0.3607  0.0879
35145W        W78161   2.947   8.914  25.537  0.1630 -0.1475 -0.0811
35146W        W78162   3.520  12.858  18.606 -0.2086  0.3364  0.2430
35147W        W78163  25.872   4.576  16.322 -0.1813  0.0877  0.0748
35148W        W78164  34.257  27.963  16.745 -0.0157  0.0223 -0.0407
35149W        W78165   9.469  27.425  14.564  0.2529  0.1231  0.2211
35150W        W78166  31.538   4.550  16.354  0.0969 -0.0699 -0.0406
35151W        W78167  18.071   6.245  21.422  0.1421 -0.2071 -0.1159
35152W        W78168   8.559  14.371  15.775  0.0342  0.2097  0.1392
35153W        W78169   0.854  30.531  26.645  0.0034 -0.0226 -0.1911
35154W        W78170   2.321  24.154  21.657  0.3043  0.2803 -0.2164
35155W        W78171  31.841   0.654  16.234 -0.4859  0.1933 -0.0099
35156W        W78172  15.859   0.389  18.621 -0.0853  0.2635  0.1830
35157W        W78173   7.344  21.995  29.277  0.0113  0.0409 -0.2044
35158W        W78174   7.868  31.786  23.214  0.3594  0.0636  0.1353
35159W        W78175  33.492   5.929  23.382 -0.2398 -0.1000 -0.0232
35160W        W78176  32.558  29.547  10.519 -0.1493 -0.0940 -0.1901
35161W        W78177  30.688  27.587  19.345  0.0406 -0.1529  0.2463
35162W        W78178   4.657  13.297  16.136  0.1550 -0.0389  0.0413
35163W        W78179   5.914   5.196  28.566  0.0434 -0.0530 -0.3493
35164W        W78180  22.386  25.385  27.226  0.4189 -0.3087 -0.0580
35165W        W78181   4.317  14.474  25.777 -0.3202 -0.3340  0.3434
35166W        W78182   7.134   5.026   0.317  0.0053 -0.1848  0.1502
35167W        W78183  31.012  24.338  27.484  0.1852  0.1813  0.2509
35168W        W78184  34.736  27.985   1.114  0.2092 -0.0584  0.1936
35169W        W78185  29.180   2.422  19.562 -0.2956 -0.0642  0.0073
35170W        W78186   6.127  27.306  21.122 -0.2806 -0.1798  0.0581
35171W        W78187  21.861  32.799  16.581 -0.1994 -0.1132 -0.0328
35172W        W78188  13.880  28.684  27.768  0.2014  0.1112  0.0998
35173W        W78189   8.284  28.606  21.721 -0.0213  0.0396 -0.1027
35174W        W78190   2.828  34.596  14.994  0.1059 -0.1160  0.1296
35175W        W78191  12.672  19.857  27.103 -0.0831  0.0026 -0.0916
35176W        W78192   4.802  32.755   0.426 -0.0038 -0.0161  0.4060
35177W        W78193   7.103  25.482  20.993  0.1480 -0.0269 -0.1443
35178W        W78194  28.190  17.742  28.029  0.3176  0.1246  0.1422
35179W        W78195   3.460  25.158  20.013 -0.3559 -0.2157  0.0363
35180W        W78196   7.274  21.124  25.615 -0.1516  0.0263  0.0349
35181W        W78197   7.866  28.181  15.075 -0.1555  0.1033 -0.2286
35182W        W78198  15.242  33.570  19.241 -0.3513 -0.0343  0.1564
35183W        W78199   5.084  20.162  14.718  0.0569  0.0271  0.1481
35184W        W78200  10.981  27.916  28.457  0.0037 -0.0769 -0.0795
35185W        W78201   4.430  32.281  16.107 -0.0830 -0.3395  0.0542
35186W        W78202   9.677  33.085  21.317  0.0232 -0.3229  0.0266
35187W        W78203  30.994   4.843   2.024  0.0480 -0.0966  0.0446
35188W        W78204  33.785   6.503  21.224 -0.0769  0.0763  0.1110
35189W        W78205   0.522  33.532  28.353  0.0436  0.0340  0.1366
35190W        W78206   2.612  30.391  14.897 -0.3089  0.0148  0.1688
35191W        W78207   3.880  20.130   4.400 -0.3865 -0.1911  0.1635
35192W        W78208  11.235   3.828  18.581 -0.1437  0.0709 -0.0401
35193W        W78209   5.211  25.499  16.712  0.0496 -0.2116 -0.0183
35194W        W78210  10.823  29.192  14.869  0.1266  0.1871 -0.0061
35195W        W78211  21.589  17.669   4.913  0.0353  0.4241  0.4077
35196W        W78212   5.084   0.687  18.277 -0.2938 -0.3931 -0.1941
35197W        W78213  14.180  28.465   2.315  0.4446  0.4498 -0.0235
35198W        W78214  28.064  31.904  23.631  0.0773  0.1878  0.0572
35199W        W78215   0.164   3.953  17.683  0.2038  0.0572  0.2385
35200W        W78216  32.486   2.736  14.922 -0.0846  0.1538 -0.0224
35201W        W78217  23.285   9.988  26.529  0.0144  0.0711  0.0917
35202W        W78218   1.736  33.969  17.856  0.2080 -0.0118 -0.0226
35203W        W78219   6.982  20.098  27.849 -0.0972 -0.1762  0.0169
35204W        W78220   1.120  25.505  21.491 -0.1555 -0.2423  0.0726
35205W        W78221   7.995  12.344  25.324  0.3136  0.1866 -0.0694
35206W        W78222  14.972  28.481  19.396  0.0100 -0.1588  0.2766
35207W        W78223  12.480   3.860  23.270  0.3643  0.4122  0.0887
35208W        W78224   7.139  27.609   1.629  0.0521 -0.0871  0.1847
35209W        W78225  18.725  18.009   9.189  0.0878 -0.0136  0.1523
35210W        W78226  30.519   9.061  16.122  0.1308  0.0148 -0.1107
35211W        W78227  21.421  32.054   1.141 -0.3541  0.0765 -0.0814
35212W        W78228  33.508   4.330  26.639 -0.2486 -0.0690 -0.0392
35213W        W78229  30.646  31.447  19.064  0.2421  0.1897  0.1145
35214W        W78230   1.056  28.374  15.573 -0.2670 -0.0061 -0.0247
35215W        W78231  27.782  28.062   4.406 -0.2386  0.0425  0.0529
35216W        W78232   4.487  31.279   1.019 -0.0845  0.1219 -0.1331
35217W        W78233  24.872   2.101  28.997 -0.0579  0.1824 -0.1389
35218W        W78234  15.856   1.160  28.463 -0.0013  0.0346  0.0094
35219W        W78235  11.342  32.537  22.759  0.1841  0.0268  0.1029
35220W        W78236  31.297   0.531  15.870 -0.1692  0.0219  0.0793
35221W        W78237  30.349   3.093   1.105  0.0312  0.1374 -0.0518
35222W        W78238  18.944  22.201  12.898  0.1412  0.1278  0.1150
35223W        W78239  18.238  31.544  24.110 -0.2102 -0.2939  0.0242
35224W        W78240   4.675  16.063  19.515 -0.4325  0.0068 -0.1211
35225W        W78241  33.622   3.610  20.040 -0.2155 -0.2619  0.1605
35226W        W78242  17.366   2.096  28.324  0.0525  0.1911  0.0583
35227W        W78243  30.827  32.570  25.184 -0.0301 -0.3298 -0.0827
35228W        W78244  14.172   7.857  20.540  0.3086 -0.2172 -0.0910
35229W        W78245  16.711  24.194  20.439  0.1375  0.1071  0.0617
35230W        W78246  33.421   3.019   1.121  0.0528  0.3696  0.0235
35231W        W78247  29.843  15.715  23.052 -0.0725 -0.0060  0.0874
35232W        W78248  17.426  23.898   8.563  0.0890 -0.1153 -0.4723
35233W        W78249  22.018  30.028  17.553 -0.0443  0.1510  0.0006
35234W        W78250  15.181  33.136  25.218 -0.2502 -0.1756 -0.1085
35235W        W78251   8.038   0.744  13.942 -0.1259  0.0988 -0.2329
35236W        W78252  27.845  10.790   4.833 -0.2928 -0.0225  0.2658
35237W        W78253  22.101  31.794  23.874 -0.3417 -0.2639  0.2262
35238W        W78254  32.089   4.968  24.338 -0.1979 -0.2112  0.1906
35239W        W78255   6.026  20.271  14.918  0.3046 -0.3166  0.0170
35240W        W78256  26.493  11.835  18.331 -0.2832  0.0267  0.2159
35241W        W78257   1.913  28.204  14.849  0.1752 -0.0315  0.1635
35242W        W78258  31.561  18.037  15.496  0.1752 -0.1843 -0.0069
35243W        W78259   3.949  13.489  20.064 -0.2104  0.0499  0.3525
35244W        W78260   3.833  11.765   1.911 -0.2337 -0.0407  0.0168
35245W        W78261  11.020  25.492   0.948  0.1128  0.1074 -0.0042
35246W        W78262   0.198  20.983  14.914 -0.3183 -0.0344  0.0571
35247W        W78263   0.117  34.456  16.296 -0.1936 -0.4134 -0.2364
35248W        W78264  15.235   4.711  13.638 -0.0820  0.1719  0.3094
35249W        W78265  33.093  32.572  16.391  0.0021 -0.1712  0.1205
35250W        W78266   5.049  13.929  16.655  0.2497  0.0613  0.6971
35251W        W78267   1.107   1.093  17.668 -0.2098  0.1525  0.2393
35252W        W78268   7.318  32.411  15.191 -0.0491 -0.0981  0.0046
35253W        W78269   2.284  31.253  27.505  0.2176 -0.0253  0.1975
35254W        W78270  30.691  33.637  20.107  0.0595 -0.1457 -0.4291
35255W        W78271  11.502   5.795  14.619  0.2174  0.1113 -0.2971
35256W        W78272   7.089  18.698  16.246  0.1784 -0.2826  0.4305
35257W        W78273  10.608   9.105  19.364 -0.0968 -0.0514 -0.0557
35258W        W78274   5.267   6.596  15.601  0.1859  0.1310  0.3578
35259W        W78275   3.963   0.462  23.063  0.0336  0.0127  0.2139
35260W        W78276   1.221  18.497  28.443  0.0746 -0.2157  0.1990
35261W        W78277  27.990  32.861  18.122 -0.0638  0.1826  0.0744
35262W        W78278  19.611   8.880  19.707 -0.1031 -0.1071  0.0477
35263W        W78279   9.979  10.491  20.888 -0.2278 -0.3716  0.1661
35264W        W78280  11.435  28.678   3.290 -0.1440 -0.0567  0.0009
35265W        W78281  14.161  22.036  28.334  0.0463 -0.1027  0.0425
35266W        W78282   3.781  34.121  17.022  0.2876  0.0552  0.0090
35267W        W78283   3.005  15.373  24.514 -0.1172 -0.1100 -0.0945
35268W        W78284  10.632  31.892  23.342  0.3160 -0.1865  0.2540
35269W        W78285  31.005   3.762  20.905  0.1260 -0.0381  0.2564
35270W        W78286   4.090  32.111  17.692  0.1428  0.2029 -0.1040
35271W        W78287   4.008   6.190   8.660 -0.2293 -0.1900 -0.0957
35272W        W78288  27.046  25.281  18.966 -0.0450 -0.1923 -0.1394
35273W        W78289  26.690  19.045   1.206  0.3192 -0.0521  0.1506
35274W        W78290   6.798  20.836  26.810  0.0824  0.3298 -0.1017
35275W        W78291  15.160  13.074  18.792  0.1585 -0.1061 -0.2094
35276W        W78292  22.960   6.553   0.728 -0.2051  0.1825  0.2313
35277W        W78293   8.507   7.388   5.051 -0.1117 -0.1906  0.2836
35278W        W78294  32.293   4.902  16.425 -0.0503 -0.0233  0.1837
35279W        W78295   1.942  31.023  28.458  0.2686  0.1162 -0.2258
35280W        W78296  26.835  11.628  26.193 -0.0031 -0.0235 -0.4714
35281W        W78297   4.256  13.138   0.098 -0.2422 -0.2658 -0.1524
35282W        W78298   1.226  32.776  23.196  0.1114  0.0660  0.1268
35283W        W78299  34.547  16.015  26.130 -0.0712  0.2363 -0.2835
35284W        W78300   2.748   4.974   9.374  0.1081 -0.1117 -0.1063
35285W        W78301  11.139  22.937  27.174 -0.2215  0.3750  0.1073
35286W        W78302  10.777  32.459  20.135  0.0385 -0.1028  0.0076
35287W        W78303  27.228  31.643  18.620  0.0822 -0.1492 -0.1088
35288W        W78304   0.275   8.266   8.990  0.1095 -0.5746 -0.3641
35289W        W78305  16.132  14.385  24.125  0.0301 -0.0978  0.2088
35290W        W78306  19.100  20.644  13.959  0.2154 -0.0407  0.0217
35291W        W78307  31.145   2.905   5.793  0.0441  0.0060 -0.1534
35292W        W78308  33.268  28.316  15.374  0.0027 -0.0612  0.1276
35293W        W78309  11.882  32.507  15.701 -0.0042  0.5082 -0.0644
35294W        W78310   4.856  23.937  29.117 -0.0164 -0.0225  0.0732
35295W        W78311   3.617  11.589  29.078  0.1922 -0.0040 -0.0467
35296W        W78312   5.325  33.672  22.639  0.2334  0.2688 -0.1908
35297W        W78313  17.825  22.193  27.122 -0.1089 -0.3445  0.1013
35298W        W78314  30.822  29.365   6.695  0.2002  0.0059 -0.0307
35299W        W78315  25.864   6.218  17.300  0.0732  0.2723  0.1263
35300W        W78316   0.629   0.456   4.139 -0.0517 -0.0895 -0.0412
35301W        W78317  12.578  23.581  12.239  0.0060  0.0584  0.0775
35302W        W78318   8.006   8.374  26.372 -0.0436 -0.3847  0.0691
35303W        W78319  13.646  24.191  28.362 -0.0798 -0.1776 -0.1035
35304W        W78320   7.490  11.441  28.947  0.2863 -0.0263 -0.0467
35305W        W78321  14.699  21.038  22.462  0.0434 -0.1449  0.0042
35306W        W78322  30.961  33.577  15.116  0.1467  0.2327 -0.1061
35307W        W78323  10.273  23.582   2.043 -0.0860  0.0421 -0.0042
35308W        W78324  10.460   0.863  25.161 -0.6117 -0.0034  0.1067
35309W        W78325   6.028  22.646   0.518 -0.1359 -0.3040  0.0344
35310W        W78326   8.208   9.955  17.702  0.2616 -0.0811 -0.4309
35311W        W78327   5.000  27.530  19.142 -0.1672  0.0760  0.2479
35312W        W78328   7.537   4.558   6.336  0.0733  0.0910 -0.2160
35313W        W78329   8.874   5.718   3.936  0.3199  0.0204 -0.1748
35314W        W78330  24.194   1.081  23.335  0.1296  0.2999  0.2330
35315W        W78331  13.879  17.268   4.122  0.1708  0.0797 -0.2363
35316W        W78332   5.910  26.550  13.876 -0.0063 -0.1391 -0.2546
35317W        W78333   6.376  32.889  27.917  0.2870 -0.3700  0.2223
35318W        W78334   8.102  28.089  26.841  0.1474  0.0594 -0.1433
35319W        W78335   4.028  18.804  21.833 -0.1464  0.3714  0.0877
35320W        W78336  28.892  31.461  24.579 -0.0818  0.1948 -0.0754
35321W        W78337   4.345  32.022  27.099 -0.0850  0.0882  0.1801
35322W        W78338   7.535  11.665  26.627  0.0432 -0.1898  0.2051
35323W        W78339  33.074   4.051   0.211 -0.2044  0.1416  0.0527
35324W        W78340  14.001   7.614  26.337  0.2972 -0.4536 -0.0646
35325W        W78341  15.847  27.637  15.546 -0.3546  0.0860  0.2650
35326W        W78342   2.051  26.420  20.384 -0.3464  0.2220 -0.0436
35327W        W78343  30.698  26.641   2.964  0.0326  0.1270 -0.0952
35328W        W78344   3.277   0.514  28.681 -0.0392 -0.5837 -0.1894
35329W        W78345  13.545  13.826  21.445  0.0392  0.0456  0.1826
35330W        W78346  17.357   5.626  14.476 -0.5113 -0.0419 -0.1261
35331W        W78347   0.965  23.024   7.759 -0.1411 -0.0471 -0.1324
35332W        W78348   4.219   1.348  15.312  0.3992  0.0542  0.0796
35333W        W78349  32.603  26.374  23.518  0.2995  0.1305 -0.0343
35334W        W78350   1.242  26.487  17.688 -0.0761  0.4282 -0.3105
35335W        W78351  31.173   0.428   0.052 -0.1148 -0.1276 -0.1786
35336W        W78352   6.944   9.597  24.815  0.3059  0.1210  0.3195
35337W        W78353  32.239  16.036  21.955 -0.3825 -0.0834 -0.0038
35338W        W78354   7.727   7.362  23.390  0.0986  0.1021 -0.3627
35339W        W78355  31.866  32.686  17.085 -0.3352  0.1066 -0.1874
35340W        W78356  16.490  21.627  13.007 -0.2909  0.0073 -0.0346
35341W        W78357  26.999   0.539   2.874 -0.4048 -0.0338  0.5978
35342W        W78358  11.760  14.843  17.859 -0.2908 -0.2200 -0.3374
35343W        W78359  31.610  31.824  25.387  0.0370  0.0215  0.1490
35344W        W78360  33.946   8.300  25.001  0.1015  0.1954 -0.2159
35345W        W78361  19.578  19.250  14.602 -0.0395 -0.1458  0.3529
35346W        W78362  12.169  30.280  22.291 -0.0212  0.0885  0.2610
35347W        W78363   4.638  31.261  26.307  0.0440  0.0301  0.0795
35348W        W78364  14.716  26.097  28.356  0.1547  0.3189  0.2288
35349W        W78365   6.935  10.091  17.075 -0.1531 -0.3030 -0.0902
35350W        W78366   8.369   9.134  15.301 -0.2226  0.1530 -0.0196
35351W        W78367  10.586  30.216  17.267  0.4760 -0.0273  0.1480
35352W        W78368   7.191  27.179  20.179  0.1048 -0.1242 -0.0307
35353W        W78369   7.573  28.545  15.284 -0.0278  0.1873  0.0114
35354W        W78370  10.470   8.256  21.802  0.0193 -0.0670 -0.0327
35355W        W78371  25.440  29.441  18.435 -0.0431 -0.2259  0.0104
35356W        W78372   0.572   3.788  21.201 -0.3217  0.1505 -0.4030
35357W        W78373   9.232  32.273  18.766  0.4400 -0.0144 -0.1014
35358W        W78374  19.509  34.655  23.284  0.2982  0.0070  0.0528
35359W        W78375  31.473  30.678   7.723  0.4020  0.0165  0.0334
35360W        W78376   9.374   5.549  10.277  0.2548  0.3243 -0.0123
35361W        W78377   5.764  28.999   0.422  0.2312 -0.1456 -0.0342
35362W        W78378   3.420  23.368  16.399 -0.2126 -0.2394  0.0975
35363W        W78379  10.747  24.029   2.229  0.1354  0.0660  0.0302
35364W        W78380   4.634   5.904  18.366  0.1984 -0.2460  0.3656
35365W        W78381  21.053  11.017  17.187  0.3046  0.1046  0.2470
35366W        W78382   1.269  12.135  22.370 -0.0193  0.2180 -0.3292
35367W        W78383  31.400  28.499   1.886  0.0677  0.1693  0.0807
35368W        W78384   7.054   4.582   4.003 -0.0217  0.1914 -0.2165
35369W        W78385  13.465   6.650  18.701  0.2085  0.2594 -0.0587
35370W        W78386   8.575  11.479  24.936  0.1228  0.1447  0.1295
35371W        W78387  30.398  30.084  16.335  0.0496 -0.2844  0.2185
35372W        W78388  30.753   5.945   4.915 -0.0727 -0.1000  0.0231
35373W        W78389   2.627   4.686   8.912 -0.2366 -0.0029 -0.0705
35374W        W78390  24.217  31.868   8.076  0.1842  0.0348  0.2475
35375W        W78391  22.223  22.928   5.314 -0.0016 -0.1082  0.0676
35376W        W78392  13.544   6.356  18.305  0.1602  0.2533 -0.0565
35377W        W78393  26.800  19.581  25.544  0.1404 -0.0799  0.4000
35378W        W78394  26.385  31.771  17.718 -0.0737 -0.2831 -0.0560
35379W        W78395   4.901  30.233  15.081  0.0426  0.2338 -0.1109
35380W        W78396  29.465   5.340  26.713  0.1475 -0.1466 -0.2703
35381W        W78397  11.763  33.044   3.808  0.4241  0.1594 -0.0182
35382W        W78398   6.664   9.216  18.234  0.0663 -0.0064 -0.2131
35383W        W78399  10.581   8.612  15.255  0.0538 -0.2096 -0.1616
35384W        W78400  12.694  27.665  26.631  0.2231 -0.0066 -0.0928
35385W        W78401  11.286   2.221   4.489 -0.1688 -0.1682  0.0546
35386W        W78402  13.132  14.143  22.870  0.2880  0.1473  0.0420
35387W        W78403  19.416  24.798  24.922  0.1411 -0.0170  0.2690
35388W        W78404  11.660   7.085  18.597 -0.0571 -0.1630  0.3195
35389W        W78405   7.339   3.669   3.941 -0.1029  0.2531  0.0203
35390W        W78406   5.173  14.713  18.571  0.3003 -0.1411  0.1648
35391W        W78407  10.435  32.794  20.044  0.0140 -0.0300 -0.2381
35392W        W78408  19.811  34.293  21.378  0.1934 -0.0232 -0.2935
35393W        W78409  19.832  28.544  27.765 -0.1508  0.3441 -0.1310
35394W        W78410  10.668  34.074  22.719 -0.0939 -0.3441  0.3207
35395W        W78411   0.509  31.893  28.493  0.0190 -0.0437 -0.1816
35396W        W78412   2.093   3.135  28.391  0.1242 -0.1580  0.1391
35397W        W78413  32.454  32.164   5.450 -0.0998  0.2899  0.2403
35398W        W78414  27.926  14.187  23.703  0.0804 -0.3610 -0.0840
35399W        W78415   8.269  30.258  22.098  0.1845 -0.2364  0.0914
35400W        W78416  31.218  30.994  20.891  0.0535 -0.1923 -0.0627
35401W        W78417  32.396  26.395  19.307  0.0471  0.0336  0.1720
35402W        W78418   8.582  25.992  16.406 -0.1374  0.0048  0.2767
35403W        W78419   7.114   2.902  26.244  0.2388 -0.0607 -0.1047
35404W        W78420  14.264   4.668   5.778 -0.5429 -0.0594 -0.1943
35405W        W78421  33.194   3.626   6.949  0.0661  0.1596 -0.1866
35406W        W78422   6.219  20.406  28.632  0.0532 -0.0454 -0.0221
35407W        W78423  15.117  30.263  20.960 -0.3176 -0.4026  0.2452
35408W        W78424   7.634   6.958  17.482  0.0922  0.0475  0.0170
35409W        W78425   0.607   6.365  25.840 -0.3984 -0.1251 -0.0372
35410W        W78426   8.858   6.831  18.285  0.1770  0.2457  0.0721
35411W        W78427   1.404  27.869  16.667  0.1048  0.0999 -0.0659
35412W        W78428  33.592   1.527  25.290 -0.1082  0.0374 -0.1946
35413W        W78429   6.880   3.809  20.619 -0.2670 -0.0874 -0.1371
35414W        W78430   9.634  11.841  15.881 -0.0889  0.2507 -0.2133
35415W        W78431  10.421   1.835  23.458  0.0389 -0.2623 -0.2732
35416W        W78432  34.412   1.381  23.540 -0.1538  0.1975 -0.2902
35417W        W78433  32.826  32.514  17.365  0.2009 -0.3122  0.1010
35418W        W78434   6.718   1.083  28.783 -0.0091  0.2963  0.3733
35419W        W78435   0.726  23.912  27.808  0.0302 -0.1335 -0.1126
35420W        W78436  33.943  16.066  15.472 -0.2008 -0.3724 -0.0634
35421W        W78437  16.522   5.316  14.019  0.0483  0.1898 -0.3176
35422W        W78438  31.411   9.718  20.195 -0.0636  0.1807  0.1047
35423W        W78439  29.823  30.166   3.250 -0.0628  0.0970 -0.1088
35424W        W78440   3.953   8.265   8.006  0.2234 -0.3354  0.2397
35425W        W78441  21.198  11.369  14.395 -0.4600 -0.1228 -0.1573
35426W        W78442  19.402  18.072  24.958  0.2203  0.0955 -0.0239
35427W        W78443  15.181  11.226  21.948  0.2259 -0.0560  0.3000
35428W        W78444   4.044  11.398  21.882  0.1488 -0.1348  0.3471
35429W        W78445  32.827   3.832   1.203  0.0669 -0.0888  0.1343
35430W        W78446  18.861  16.549  14.311 -0.1664 -0.2441 -0.0383
35431W        W78447  16.386  27.466  22.911  0.1888 -0.3726 -0.0944
35432W        W78448   1.715  29.579  16.672 -0.1630 -0.0854  0.1337
35433W        W78449  11.700  10.799  21.343  0.0386  0.3358 -0.0346
35434W        W78450   5.886   2.536  16.790  0.2382 -0.1935 -0.0789
35435W        W78451  29.620   9.839  22.146 -0.1498 -0.4062  0.5467
35436W        W78452  11.720  32.313  15.270  0.0988 -0.1659  0.2065
35437W        W78453   1.333  28.724  26.612  0.2469 -0.0017  0.0020
35438W        W78454   7.283   1.824  26.194  0.1681 -0.3476  0.0983
35439W        W78455  32.998  33.521  19.180  0.1666  0.0596  0.7342
35440W        W78456   2.299  13.000  15.519 -0.0188  0.0801 -0.0941
35441W        W78457   7.024  23.699   8.642 -0.0730 -0.3753 -0.2828
35442W        W78458  14.656  28.698  16.560 -0.2289 -0.2088  0.2380
35443W        W78459  29.657  34.743  20.424 -0.2855  0.1005 -0.3084
35444W        W78460  14.355  11.320  23.669 -0.1149  0.2383  0.1388
35445W        W78461   7.803  23.110   0.128 -0.1019  0.4355 -0.2145
35446W        W78462  23.214  27.757   5.477  0.2279  0.0190 -0.1709
35447W        W78463  29.961  19.922  29.311 -0.0747 -0.1231  0.2882
35448W        W78464   3.590  25.690  20.185 -0.1564 -0.0328 -0.0781
35449W        W78465  29.288   8.483  24.598 -0.3505 -0.0356 -0.1633
35450W        W78466  20.262  34.244   6.933  0.3572  0.0721  0.2159
35451W        W78467  25.580  30.617   1.378 -0.0643 -0.1916 -0.1569
35452W        W78468   7.103  25.752   3.649 -0.0338  0.1033 -0.1170
35453W        W78469   5.133  16.381  28.501  0.5065  0.1167  0.1895
35454W        W78470  15.080  33.801  24.628  0.3171 -0.0180  0.2715
35455W        W78471   6.778  30.991  21.167 -0.0786 -0.0509  0.1533
35456W        W78472  33.720   0.750   8.298 -0.1901  0.1562 -0.0435
35457W        W78473   3.394  28.462  28.474  0.0470  0.0651 -0.3168
35458W        W78474  25.522   5.783  28.282  0.0004 -0.0263 -0.2325
35459W        W78475  16.535  32.465  10.859  0.4654  0.2089 -0.1450
35460W        W78476  31.398   0.600   1.758  0.1153 -0.0210  0.3009
35461W        W78477   8.845  21.870  26.615  0.0638  0.0306  0.1982
35462W        W78478   9.897  21.090  15.698 -0.0379 -0.0103  0.2311
35463W        W78479   3.724   2.535   1.979 -0.0946 -0.1400 -0.0921
35464W        W78480   6.112  13.089  24.506  0.2916  0.1103  0.0753
35465W        W78481   0.736  33.001  18.155 -0.1968 -0.2289 -0.0109
35466W        W78482   7.098   1.595  22.882 -0.3432  0.0173  0.0508
35467W        W78483  32.456  34.733  28.173  0.1555  0.2802 -0.0235
35468W        W78484  20.914   2.217  16.384  0.1707 -0.2116  0.1639
35469W        W78485  31.953   3.208  26.576 -0.1808  0.0660  0.5053
35470W        W78486  13.224  31.781   0.785  0.2769 -0.1332 -0.1260
35471W        W78487   0.137   0.012  22.728 -0.0456 -0.2225 -0.5288
35472W        W78488  17.748  25.373  26.890  0.0503 -0.0236 -0.2072
35473W        W78489   4.620  28.458   3.536  0.2951 -0.0111  0.1234
35474W        W78490  20.536   6.414  26.824 -0.1417 -0.0173  0.0454
35475W        W78491  17.598  15.815  13.435 -0.0793 -0.0616  0.1550
35476W        W78492   3.430  30.292  17.238 -0.0009  0.1537 -0.3065
35477W        W78493  28.927  21.566  26.686 -0.0967  0.1265  0.0875
35478W        W78494  32.499  21.829   2.782  0.1436 -0.4148  0.0381
35479W        W78495   4.300  32.153   2.703  0.3065 -0.2069  0.1993
35480W        W78496  19.318  25.933   7.289  0.1082  0.0179 -0.0611
35481W        W78497  18.731   5.889  22.437 -0.2872  0.1347  0.0285
35482W        W78498   7.628  34.091  22.874  0.3334 -0.2269  0.0117
35483W        W78499   9.367   7.590  28.985  0.0181 -0.0469 -0.0632
35484W        W78500  33.829  33.280  24.885 -0.2310 -0.0337  0.4546
35485W        W78501  28.941  28.916   9.080 -0.3036 -0.1980  0.1650
35486W        W78502   6.052  27.450  23.634 -0.0751 -0.1772 -0.0003
35487W        W78503   5.945   1.935  26.897  0.0383  0.1677  0.1373
35488W        W78504  14.027  16.894   5.391  0.0045 -0.1831 -0.0170
35489W        W78505   2.920   4.478  28.257 -0.2046  0.1535 -0.0466
35490W        W78506  25.296  33.979  26.975 -0.2398  0.0001 -0.2594
35491W        W78507   6.079  30.326  18.215 -0.3503  0.1239  0.0964
35492W        W78508   2.228  20.928  17.380  0.0959 -0.0485  0.0598
35493W        W78509  22.434  28.562  17.584  0.0249  0.1544  0.1242
35494W        W78510  20.027  22.090  18.475 -0.1093  0.1851  0.1736
35495W        W78511  32.703   0.632   1.140 -0.2676  0.2008  0.0175
35496W        W78512  15.612   2.596  28.683  0.1850 -0.0453  0.4363
35497W        W78513   3.847  26.930  27.196 -0.0091 -0.1439  0.0928
35498W        W78514   6.344   5.111   3.256 -0.1513 -0.1873 -0.0778
35499W        W78515   5.712   3.714   4.825 -0.5073 -0.1158 -0.0858
35500W        W78516  11.128   3.853  25.286  0.3740  0.1013  0.0693
35501W        W78517  31.832  22.516   6.908  0.0289 -0.1121 -0.0780
35502W        W78518  25.108   4.542  19.439 -0.1437 -0.0294  0.2635
35503W        W78519   2.224  12.543   4.037 -0.0321 -0.0306 -0.1112
35504W        W78520  25.868   4.307   4.374  0.0219 -0.0135 -0.2849
35505W        W78521   9.981  11.998  26.773 -0.0661  0.1240  0.2563
35506W        W78522  14.991   6.947  17.733 -0.2057 -0.1167  0.1052
35507W        W78523  24.062   7.565   3.122  0.0671  0.0782  0.2444
35508W        W78524   1.522  32.256   3.213  0.1738  0.1593  0.1724
35509W        W78525  10.756  10.029  26.448  0.0834  0.2318  0.0408
35510W        W78526  11.869   1.737   9.325 -0.1592  0.0620  0.5490
35511W        W78527   7.877   4.503   8.089 -0.1021  0.0573 -0.1270
35512W        W78528   9.051  12.164  22.513 -0.3038  0.1279 -0.2692
35513W        W78529   4.217  34.495  23.077 -0.0437 -0.1869  0.1961
35514W        W78530  34.575  20.915  22.376  0.0875 -0.1630 -0.2612
35515W        W78531   6.243   6.926  24.520  0.0340  0.0742  0.2408
35516W        W78532  32.246  27.847  28.968 -0.3152  0.4358  0.4795
35517W        W78533  23.986  16.356  20.720 -0.2121 -0.0966 -0.1669
35518W        W78534  11.829  26.881   3.804 -0.1608 -0.1293 -0.4184
35519W        W78535  32.003   5.507   2.276 -0.0918  0.3386 -0.0572
35520W        W78536  17.234  22.293   5.694  0.1910 -0.1748 -0.0651
35521W        W78537  10.537   7.138  27.104 -0.1526  0.1250  0.3894
35522W        W78538   8.659  27.387  28.872  0.1776  0.3881  0.2145
35523W        W78539  26.923  20.347  15.552 -0.4417  0.1366 -0.2161
35524W        W78540   0.308  24.644  14.917 -0.0815  0.0414  0.1493
35525W        W78541  20.865  34.347  22.663  0.0295  0.1833  0.0037
35526W        W78542   2.370  31.025  25.356  0.3264 -0.2413 -0.2738
35527W        W78543  15.184  16.850  24.821 -0.1924 -0.2929 -0.2774
35528W        W78544   1.869  31.144   3.683 -0.1738 -0.1139 -0.4279
35529W        W78545  33.899   0.935  26.233 -0.2285  0.2685  0.2123
35530W        W78546   6.853   1.406  24.981  0.1250  0.1470  0.0507
35531W        W78547   0.163   3.405  28.776  0.2087 -0.2448  0.0258
35532W        W78548  25.016  10.500  28.722  0.0640  0.1298  0.2682
35533W        W78549  12.858  27.901   0.321  0.0694  0.1995  0.4616
35534W        W78550  33.756   6.987  26.225  0.3596 -0.0615 -0.1096
35535W        W78551  28.355   4.837  27.540  0.0914 -0.3619  0.4479
35536W        W78552  15.940  15.822  28.475  0.1180  0.5065  0.3017
35537W        W78553   2.284   4.986   4.597  0.1712  0.1446  0.0093
35538W        W78554  20.277   4.345  10.474  0.2462  0.1357 -0.2755
35539W        W78555   1.384  18.805  25.460 -0.1467  0.0518 -0.0314
35540W        W78556  15.268   1.007  20.346  0.0040 -0.1555  0.0535
35541W        W78557  24.930  24.551   8.972 -0.2226  0.1311  0.3079
35542W        W78558  20.213  18.988  26.078  0.1449  0.1695 -0.0466
35543W        W78559   5.748  19.128  25.543 -0.1783  0.2315 -0.1133
35544W        W78560  11.382  27.748  21.270  0.2588 -0.1311  0.2552
35545W        W78561   9.728  10.966  24.734  0.0799  0.3619  0.0496
35546W        W78562  16.854  33.880  19.083 -0.1305 -0.0299  0.0616
35547W        W78563   0.661  24.340   8.444 -0.3480 -0.1317  0.0218
35548W        W78564  29.089  28.531   6.956  0.0321  0.2020 -0.0568
35549W        W78565  34.549   3.347   0.863 -0.3974 -0.0725  0.1086
35550W        W78566   3.146  30.607   3.150 -0.1430  0.1447 -0.0072
35551W        W78567   0.376   1.107   9.026 -0.1264 -0.0381  0.1591
35552W        W78568   6.355  21.584   5.599 -0.0004 -0.2128 -0.0683
35553W        W78569   0.432  32.251  29.059 -0.2074  0.0861  0.0148
35554W        W78570  27.076   0.215   6.829 -0.3509  0.2179  0.2544
35555W        W78571   8.699  23.974  28.093  0.0247  0.0064  0.0605
35556W        W78572   4.416  15.652  20.768 -0.1844 -0.0011  0.0348
35557W        W78573   0.044  32.975  25.095  0.1925 -0.0149  0.4440
35558W        W78574  24.379  21.214  21.828 -0.1270  0.2017  0.0158
35559W        W78575  18.683  27.042   4.762 -0.0059  0.1030 -0.0180
35560W        W78576   2.308  30.753   2.388  0.0414  0.1188  0.1058
35561W        W78577  26.117  24.438  26.970  0.0929 -0.0376 -0.1349
35562W        W78578   5.896  30.638  28.763 -0.3195  0.0143 -0.0798
35563W        W78579  14.224  18.488  27.276  0.1314  0.1891 -0.3519
35564W        W78580   2.059  30.893  15.896 -0.4073 -0.0173 -0.0388
35565W        W78581  13.243  33.305  14.674 -0.1671  0.0763 -0.0109
35566W        W78582  31.487  25.004  18.804 -0.0085  0.1711 -0.1004
35567W        W78583  20.826  21.570  17.807 -0.3434  0.1157  0.1415
35568W        W78584  20.568  28.909   2.907 -0.0810 -0.0573  0.3259
35569W        W78585   7.618  17.372  22.056  0.3148  0.2235 -0.0868
35570W        W78586  18.544  11.002  16.224 -0.2097  0.2025  0.0507
35571W        W78587  29.215   6.362   5.213 -0.0671 -0.0773 -0.0501
35572W        W78588   6.027  21.678  26.437 -0.1297  0.2636  0.4029
35573W        W78589   3.771  33.397  19.512 -0.1205 -0.0130  0.2959
35574W        W78590   0.941   7.034  25.353 -0.0833  0.1561 -0.0499
35575W        W78591   0.604  25.756   5.655 -0.1135 -0.1626  0.3013
35576W        W78592   2.071  25.870  17.846  0.0062  0.0814  0.0311
35577W        W78593  14.662   1.416   6.866  0.1823  0.3414 -0.0013
35578W        W78594  31.391  31.161  26.785 -0.1635 -0.3955 -0.0085
35579W        W78595  23.201  34.229  24.791 -0.0945  0.2340 -0.0401
35580W        W78596  19.486  12.668  24.831  0.1456 -0.2659 -0.1801
35581W        W78597  33.643  28.247   5.762 -0.1244  0.0044  0.1542
35582W        W78598  24.194   0.628   6.309  0.1855  0.2142 -0.3504
35583W        W78599   0.679  12.802   1.356  0.0615  0.0513  0.0683
35584W        W78600  11.035   8.832  29.048  0.0293  0.0902 -0.0751
35585W        W78601  10.809  11.095  17.679  0.1031  0.1785  0.0977
35586W        W78602  16.233  27.216  23.406  0.3656 -0.2243 -0.0247
35587W        W78603  30.299  29.631   7.551  0.1928 -0.2547  0.1600
35588W        W78604  15.182   0.787  26.273 -0.0810  0.2156 -0.1084
35589W        W78605  10.020   6.671  25.417  0.0121  0.0656 -0.0602
35590W        W78606   0.521   6.375   0.776 -0.2690 -0.2207 -0.1049
35591W        W78607  29.771  23.049   7.527  0.0207  0.2038  0.0562
35592W        W78608  16.983   4.432  26.880  0.0321 -0.0507  0.1152
35593W        W78609  11.664   7.703  26.218  0.1877 -0.1603 -0.1941
35594W        W78610  14.219  31.652   2.532 -0.1426  0.2137 -0.2860
35595W        W78611  16.634  28.520   5.010  0.0015  0.1115  0.2103
35596W        W78612   3.747  30.690  15.404  0.0647  0.1694  0.3471
35597W        W78613   5.495   5.879  18.127 -0.1426 -0.3269  0.1596
35598W        W78614  13.065  23.590  13.054 -0.0560 -0.2394 -0.1834
35599W        W78615   2.078   9.501  28.660 -0.2680 -0.0580  0.0694
35600W        W78616   5.174  21.176  23.075 -0.0298  0.2190 -0.0184
35601W        W78617   1.092  16.432   4.043 -0.1886  0.0754  0.0540
35602W        W78618  19.137   4.085   8.698 -0.1931  0.0337 -0.2479
35603W        W78619  10.822  33.833   0.429 -0.0199 -0.0704 -0.0194
35604W        W78620  18.894  23.934  27.610  0.2664 -0.1656  0.1822
35605W        W78621   3.686   4.536  28.901  0.1280  0.2137 -0.0033
35606W        W78622   4.130   3.528  22.085 -0.1834  0.1003 -0.0312
35607W        W78623   7.502  34.639   2.433 -0.1917 -0.1454 -0.0109
35608W        W78624  13.572  15.334  28.964  0.1353  0.0676  0.1123
35609W        W78625  13.074  24.921  21.708  0.1352  0.0324 -0.0871
35610W        W78626   6.042  25.897  24.858  0.1593  0.2216  0.0650
35611W        W78627   6.265  26.719  25.423 -0.1156 -0.0023  0.3455
35612W        W78628  32.894  25.788   3.900  0.0757 -0.3437  0.0106
35613W        W78629   2.807  32.308  23.246  0.1404  0.2291  0.0060
35614W        W78630  19.288  24.269  22.780  0.0370  0.0393 -0.1106
35615W        W78631  31.931  32.554  22.910 -0.1263  0.0595  0.2564
35616W        W78632   7.368  24.600   6.608  0.0186  0.3600 -0.2598
35617W        W78633  34.674  33.710  15.849 -0.0399 -0.0267  0.1838
35618W        W78634  27.828  18.371   3.557 -0.1408  0.3574  0.1455
35619W        W78635  30.344  33.074   0.974 -0.0002 -0.2124  0.2641
35620W        W78636   6.038  16.016  21.172 -0.0330 -0.2936 -0.1910
35621W        W78637  23.025  34.558  28.528  0.0778  0.2819  0.2026
35622W        W78638  23.624  18.058   1.378  0.0939  0.0479  0.0394
35623W        W78639  29.285   4.696  10.822 -0.1475 -0.0796  0.0603
35624W        W78640   7.561  32.864   5.586 -0.0332 -0.1062 -0.0476
35625W        W78641   5.430  23.171  28.952 -0.1058 -0.0931 -0.1381
35626W        W78642  13.182   2.509  18.142 -0.1394  0.0411 -0.2532
35627W        W78643  26.948   8.760   4.083 -0.2018  0.1160 -0.1903
35628W        W78644   2.173   6.294   1.130  0.0304  0.2766 -0.0865
35629W        W78645  32.639   7.987   3.735 -0.0842  0.0912 -0.0373
35630W        W78646   7.880  21.606   4.312  0.1583  0.2007  0.0157
35631W        W78647   7.001   1.116  28.310  0.2943  0.1678  0.0071
35632W        W78648   9.787   2.814   7.355  0.2228 -0.2054 -0.0306
35633W        W78649  27.151  24.430  23.024 -0.3134  0.0400 -0.2893
35634W        W78650  34.496   4.436  23.974  0.0366 -0.1310 -0.0220
35635W        W78651   5.279   5.459  20.163  0.1565 -0.1089  0.0878
35636W        W78652   8.618  22.185  25.852  0.3979  0.1225  0.2699
35637W        W78653   2.638   1.921  14.455  0.1447  0.4001 -0.1468
35638W        W78654  27.592  13.073  14.937 -0.3135  0.3089  0.0429
35639W        W78655  30.108   3.790   3.435  0.4245  0.0713  0.0545
35640W        W78656  11.595  31.227  26.529  0.1538  0.2608  0.1536
35641W        W78657   9.169  34.652   4.333  0.2707  0.2507  0.1553
35642W        W78658   5.195   9.300  15.544  0.2487 -0.1660  0.1291
35643W        W78659  11.911   1.658   1.759  0.5096  0.1399 -0.2719
35644W        W78660  19.141   5.098  21.661  0.0257 -0.1985 -0.0207
35645W        W78661  27.777  22.379  20.782  0.1208 -0.1581  0.1379
35646W        W78662  11.255  30.328   7.668 -0.1596  0.2879 -0.0715
35647W        W78663  32.667  10.402  23.363 -0.0216  0.1500 -0.0299
35648W        W78664   6.858   5.284  24.605 -0.0121  0.1623 -0.0336
35649W        W78665  22.501  15.635  27.377  0.1443 -0.1138  0.2028
35650W        W78666   5.607  32.514   6.534 -0.1929  0.0761 -0.2044
35651W        W78667  10.302  22.950   0.302 -0.2592 -0.0942  0.4314
35652W        W78668  17.216  27.430  24.920 -0.1404  0.1045 -0.3573
35653W        W78669  22.504  19.976   7.559  0.2001  0.2221  0.2573
35654W        W78670  25.275  32.798  26.318 -0.0019 -0.0124 -0.1393
35655W        W78671   3.588  22.637  18.616  0.0785 -0.0088 -0.1732
35656W        W78672  29.509  23.220   7.980  0.1638  0.3344  0.0330
35657W        W78673   6.207  30.669  26.806  0.0581  0.1166  0.0954
35658W        W78674  28.758  27.856   1.122  0.3911 -0.2746  0.1904
35659W        W78675  31.516  22.761   0.128  0.3104 -0.0212  0.1039
35660W        W78676   6.865   4.816  16.124 -0.1207  0.0781 -0.2143
35661W        W78677  24.420  10.470  15.862 -0.3589 -0.2304  0.2372
35662W        W78678   5.402   1.277  27.289 -0.2371  0.1559 -0.6267
35663W        W78679   8.637  20.784  20.329 -0.1921 -0.0558 -0.0507
35664W        W78680   6.046   5.792   6.323  0.0722  0.0589 -0.1707
35665W        W78681   5.512   7.926  17.939  0.3982 -0.2559  0.0159
35666W        W78682  33.689  27.109  25.686  0.0457  0.1429 -0.2488
35667W        W78683  16.833  11.699   4.360 -0.2348  0.0722 -0.2149
35668W        W78684  19.901  16.911  27.684  0.3078 -0.1378  0.1752
35669W        W78685  32.621  29.707  25.193  0.0834  0.0529  0.2891
35670W        W78686   1.709  22.371   4.371  0.0667  0.5205  0.1783
35671W        W78687  18.371   2.031  19.089 -0.2732 -0.0017  0.0435
35672W        W78688   3.355   4.613  19.788 -0.3389 -0.1352 -0.3661
35673W        W78689  21.566  34.662   4.800  0.0881  0.2186  0.0664
35674W        W78690  17.366  34.179   3.927 -0.4021  0.2821 -0.0032
35675W        W78691   6.760  15.944  22.674 -0.3218  0.1220 -0.3110
35676W        W78692   4.798  11.890  24.978 -0.0716 -0.1875  0.2111
35677W        W78693  34.740  13.903   9.912  0.1026  0.1600 -0.0275
35678W        W78694  24.734  20.452  15.699 -0.0367  0.3395 -0.0339
35679W        W78695   7.114  26.360  22.510  0.2075 -0.1696 -0.0650
35680W        W78696  29.939  23.644   5.376  0.1605  0.1378  0.0822
35681W        W78697  24.019   4.073   4.286 -0.1548 -0.2335  0.0666
35682W        W78698  14.943  20.288   0.103 -0.1922  0.0738 -0.0055
35683W        W78699  28.720  30.859  25.790 -0.2696  0.2050 -0.0181
35684W        W78700   2.038   0.651  17.480  0.1816  0.0387 -0.1776
35685W        W78701   7.416  26.785   1.443 -0.3389  0.4091 -0.1708
35686W        W78702  18.587   6.726  19.209 -0.2593  0.0186  0.1194
35687W        W78703   7.960  30.278  17.316  0.0477  0.0560  0.1564
35688W        W78704   5.414  23.672  16.673 -0.0182 -0.3268  0.3980
35689W        W78705  33.066  31.344  22.109 -0.0026  0.2157 -0.0407
35690W        W78706  15.668  33.096  24.739 -0.0081 -0.0486  0.1861
35691W        W78707   4.288  17.117  14.024 -0.1654 -0.0932  0.0985
35692W        W78708  18.760  32.727   5.695  0.2493 -0.0800  0.1865
35693W        W78709  33.593   6.311   3.838  0.0565 -0.1475  0.0913
35694W        W78710   1.955   0.028  26.497  0.1233 -0.3179  0.2707
35695W        W78711  34.592   8.854   4.324  0.0283 -0.0569  0.1669
35696W        W78712  31.474   1.819  26.527 -0.1681  0.1041  0.0601
35697W        W78713  34.319   3.916  20.551  0.0779  0.0653  0.1675
35698W        W78714   2.754  16.375   4.710  0.0720  0.0381  0.0186
35699W        W78715   7.736  30.337  14.651 -0.0945  0.0340  0.0542
35700W        W78716  11.476   1.257   5.885  0.2978 -0.0475  0.0431
35701W        W78717   0.423   1.041   9.611  0.2874  0.1035  0.1151
35702W        W78718  34.460   2.401  10.310 -0.1774  0.1558  0.1041
35703W        W78719  22.705   4.119  26.152 -0.1835  0.2702 -0.2734
35704W        W78720   6.756  29.077  29.161 -0.2822 -0.0891  0.1086
35705W        W78721  10.591  14.563   8.027 -0.0257  0.1651  0.1045
35706W        W78722  11.924   2.206  25.614 -0.0085 -0.1617  0.1107
35707W        W78723  13.335  30.183   4.758 -0.0335  0.1343 -0.1452
35708W        W78724  32.806   0.289   8.410  0.1228  0.1199  0.0052
35709W        W78725  19.697  28.962   3.161  0.1955 -0.0436 -0.1682
35710W        W78726   6.063  14.226  17.418 -0.2320  0.1069 -0.0745
35711W        W78727   2.210  33.785  27.952  0.0346 -0.1236  0.0055
35712W        W78728  27.746   7.198   0.612 -0.0825  0.0992  0.0147
35713W        W78729  31.489   0.622  28.472 -0.3040  0.2099 -0.0671
35714W        W78730   1.912  24.768   2.483 -0.2915  0.1644 -0.1733
35715W        W78731  18.752  23.799   5.928 -0.0895  0.2518  0.0317
35716W        W78732  16.564  16.905  27.830  0.1860 -0.2226  0.0034
35717W        W78733  10.417  14.354  15.113  0.2594  0.0586 -0.0032
35718W        W78734  34.278   2.915   1.734 -0.0451  0.0808  0.0662
35719W        W78735  11.739  28.714  25.438 -0.0355  0.2220 -0.0727
35720W        W78736   8.283  11.479  25.746 -0.0674 -0.1331 -0.1770
35721W        W78737   6.085  23.132   8.904 -0.0024  0.1245 -0.2967
35722W        W78738  34.396  20.130   7.901  0.0870  0.1411 -0.1152
35723W        W78739  22.229  33.830   4.309  0.0237 -0.1192 -0.2161
35724W        W78740  34.523  33.068   2.521 -0.0354  0.0343 -0.2011
35725W        W78741  22.058  31.600   5.847 -0.1361 -0.1430 -0.2836
35726W        W78742   8.140  18.042   2.068 -0.0342  0.2648 -0.1790
35727W        W78743  18.702   9.832  19.130  0.4188 -0.1557 -0.3303
35728W        W78744   3.618  26.179  27.030 -0.3141 -0.1785  0.0665
35729W        W78745  15.684  22.260  15.571  0.5184 -0.1740  0.2047
35730W        W78746   8.006   7.974  24.893 -0.2293 -0.3492 -0.0786
35731W        W78747  24.719  12.714  22.685  0.0126 -0.0655 -0.2887
35732W        W78748  13.523  31.570  29.217 -0.1291  0.1453  0.1955
35733W        W78749   2.801  33.993  27.151 -0.0118 -0.1938  0.3736
35734W        W78750   9.881   2.912  26.287  0.2498  0.1960  0.0774
35735W        W78751  34.501   4.916  20.969  0.0492  0.1717  0.0100
35736W        W78752  17.042   5.312  18.561  0.2696 -0.0589 -0.1370
35737W        W78753  21.302  19.979  22.006 -0.1744 -0.0923 -0.1249
35738W        W78754   2.154  13.407  19.257  0.0610 -0.0440 -0.1659
35739W        W78755  13.258   0.893   0.003 -0.0219 -0.1700  0.0143
35740W        W78756  13.434   9.464   4.637 -0.2477 -0.2495  0.0460
35741W        W78757   7.535  26.701  21.569  0.0587 -0.0453 -0.0668
35742W        W78758  11.963   4.107   3.217  0.3269  0.1352 -0.3416
35743W        W78759   5.858   2.772   0.066 -0.2207  0.0793 -0.0162
35744W        W78760   1.158  29.419  14.627 -0.0728  0.0069 -0.0036
35745W        W78761   6.960   7.845  16.775 -0.1099 -0.1684  0.1569
35746W        W78762  28.965  11.790  21.664  0.0779  0.0866 -0.1629
35747W        W78763  32.956  10.511   3.647 -0.0777 -0.4523  0.0900
35748W        W78764   4.532  22.624   8.685  0.1337 -0.0354  0.1262
35749W        W78765  18.790  26.421   0.212  0.2532  0.0903 -0.1078
35750W        W78766   5.314  10.388  25.376  0.2299 -0.4307  0.1631
35751W        W78767  10.015  12.745  15.808  0.0986  0.1107 -0.2190
35752W        W78768   8.541  27.669   6.339 -0.1832  0.0799 -0.1797
35753W        W78769   4.541  12.492  16.654  0.0965  0.4029  0.1078
35754W        W78770  13.831   9.629  17.449  0.0710 -0.0352  0.0079
35755W        W78771  30.591  29.966  18.178 -0.1342  0.0972  0.1822
35756W        W78772  15.656   9.737  23.080  0.1280  0.0584 -0.2320
35757W        W78773   9.715   3.941  25.783 -0.0025  0.0336 -0.1660
35758W        W78774  10.255  32.649  15.390 -0.0084  0.1023 -0.1843
35759W        W78775   2.902   6.551  18.114 -0.2839 -0.1332 -0.1827
35760W        W78776  31.385   6.006  23.743 -0.0733 -0.2299 -0.1076
35761W        W78777  10.132   2.901  15.870 -0.2618  0.2370 -0.4709
35762W        W78778  31.937  18.573  17.250 -0.1220 -0.0503  0.0479
35763W        W78779   5.538   2.663  18.087  0.1122 -0.2083 -0.1836
35764W        W78780   4.428  25.527  20.171 -0.1639  0.0287 -0.2578
35765W        W78781  26.399  29.101   8.504 -0.0461  0.3058 -0.0934
35766W        W78782  32.911   0.949  15.294 -0.0189 -0.0755 -0.0010
35767W        W78783   4.317  23.700  14.367 -0.2734  0.2420  0.4658
35768W        W78784  33.910  16.327  23.605  0.3214 -0.4710  0.1347
35769W        W78785   7.064   7.855  21.141 -0.2927  0.0791  0.0215
35770W        W78786   9.354   1.078   2.296  0.0982  0.1240 -0.2349
35771W        W78787   9.768  29.474  21.701  0.1217 -0.2215  0.0941
35772W        W78788  32.493  30.958  17.106 -0.1310  0.3094  0.0408
35773W        W78789   1.943  25.602  19.071 -0.1244  0.0735 -0.1706
35774W        W78790  12.086  12.638  14.916 -0.1660  0.1565  0.3954
35775W        W78791  11.223   8.137  19.635  0.1792  0.0583 -0.0924
35776W        W78792  24.288  21.322  18.588  0.2497 -0.0793 -0.3437
35777W        W78793  21.437   2.941  16.376  0.4018 -0.1688 -0.0531
35778W        W78794  14.931   1.717  13.915 -0.1158  0.0047 -0.1658
35779W        W78795   9.531  12.465  28.242  0.0793  0.0750  0.0474
35780W        W78796   1.057  26.392  22.366 -0.3635 -0.0345  0.2962
35781W        W78797  11.388   1.347  19.379 -0.3956  0.0052  0.0355
35782W        W78798  28.161  28.337   4.323 -0.1317  0.1021 -0.1208
35783W        W78799  32.753  13.522  27.199  0.0722  0.2713  0.0643
35784W        W78800  15.038   1.367  20.549 -0.3651 -0.3756 -0.2101
35785W        W78801   7.110   3.953  14.170  0.3897  0.0261  0.1870
35786W        W78802   8.667  17.667  17.807 -0.1299  0.1166  0.0045
35787W        W78803  32.933   7.639  20.418  0.3045  0.1368  0.3744
35788W        W78804  12.764  26.801  27.824  0.0104  0.1693  0.1158
35789W        W78805   8.345  31.520   1.642 -0.0485  0.1277 -0.1900
35790W        W78806  24.753  28.466  29.011 -0.0829 -0.0440  0.0874
35791W        W78807   7.179  29.885  26.046  0.3985  0.0945  0.1089
35792W        W78808  17.950  10.077  14.788 -0.1540  0.1524 -0.0254
35793W        W78809   9.122   6.864  25.005 -0.0511 -0.0691 -0.1430
35794W        W78810  32.899   6.215  25.927 -0.1104  0.0578  0.1766
35795W        W78811  21.437   7.704  17.342 -0.2599  0.1648 -0.1800
35796W        W78812  33.780   2.534   9.428 -0.2433 -0.1900  0.0726
35797W        W78813   2.829  17.117  24.443 -0.1574  0.0477 -0.3877
35798W        W78814  15.502   5.072  21.254  0.2925  0.1507 -0.0882
35799W        W78815  33.166   1.591  21.328 -0.0301  0.2611  0.1948
35800W        W78816  22.182  22.280  15.294 -0.1064  0.3279 -0.2937
35801W        W78817   6.806   0.524  15.464 -0.1784  0.1583 -0.1101
35802W        W78818  11.106  27.915  18.605 -0.0359 -0.3185  0.0436
35803W        W78819  25.043  27.786  17.728  0.0133  0.0437 -0.2075
35804W        W78820  14.623   2.833  20.551 -0.1311 -0.0221 -0.1453
35805W        W78821   9.112   5.949  17.167 -0.1332  0.3261  0.3018
35806W        W78822  30.095   8.750  15.319  0.2525  0.1756  0.0771
35807W        W78823  22.560   8.601  20.241  0.0037  0.0983  0.0868
35808W        W78824   5.905  28.766  22.196  0.1536 -0.0275  0.2892
35809W        W78825   3.606  30.738  19.804  0.2033  0.1344 -0.0545
35810W        W78826   7.196  19.404  15.593 -0.0437  0.1482  0.2544
35811W        W78827  17.186  31.012  23.788 -0.2406  0.2993 -0.0224
35812W        W78828   9.491   8.761  23.971 -0.0017  0.0143  0.2118
35813W        W78829   8.590  32.122  22.106  0.0819  0.2135 -0.0861
35814W        W78830   3.164  30.256  19.612  0.0349  0.4680 -0.0204
35815W        W78831  15.103   3.508  29.153 -0.1558 -0.2834  0.1025
35816W        W78832   8.197   8.473  21.172 -0.2340 -0.1538  0.3093
35817W        W78833  19.394  32.827  15.125  0.0992  0.0895  0.2634
35818W        W78834  11.719  29.256  20.638 -0.1204 -0.1383 -0.0268
35819W        W78835   4.234   4.076  16.899  0.0656 -0.2082  0.0455
35820W        W78836   2.519   3.448  15.924  0.2780  0.3063  0.4760
35821W        W78837  24.715  26.253  24.867 -0.1429 -0.0035  0.1867
35822W        W78838  17.884  33.644  22.343  0.1620  0.3877 -0.1757
35823W        W78839   6.156  33.751  14.813 -0.1122 -0.3015 -0.1333
35824W        W78840  33.039  34.106  26.185  0.0583 -0.1267  0.1240
35825W        W78841  16.877  31.484  16.257 -0.0682  0.1356  0.3757
35826W        W78842  18.944  25.095  20.853  0.0288  0.2487 -0.2014
35827W        W78843  26.323  34.038  16.296 -0.0754 -0.1038 -0.0995
35828W        W78844  16.600   7.462  18.905  0.0472  0.1110  0.1655
35829W        W78845  25.658   2.369   2.329  0.1794  0.0014 -0.2553
35830W        W78846  12.498   8.739  21.755 -0.0856  0.1863  0.1298
35831W        W78847   2.445   9.992  17.664  0.1676  0.2221  0.0673
35832W        W78848  16.885  25.524  23.642 -0.0339  0.0011  0.0263
35833W        W78849   5.721   1.468  26.821 -0.3853 -0.3099  0.3297
35834W        W78850   3.229   6.328  25.734  0.2762 -0.0363 -0.0080
35835W        W78851   1.125   4.955  23.119 -0.0470 -0.4194  0.1553
35836W        W78852  12.642  15.173   3.653 -0.1932 -0.0632  0.2975
35837W        W78853  16.452   7.030  26.058 -0.0678  0.2395  0.0025
35838W        W78854  26.223   9.978  19.928 -0.0631  0.0205  0.0066
35839W        W78855  11.095   6.068  15.771  0.0518 -0.1760 -0.2746
35840W        W78856  34.497  31.067  22.003  0.2072  0.1148  0.1506
35841W        W78857  17.496   8.570  14.116  0.2758  0.1386 -0.1222
35842W        W78858   5.569   5.114  20.657 -0.0315 -0.1023 -0.0861
35843W        W78859  16.502   9.871  13.205 -0.2067  0.3181 -0.2940
35844W        W78860  24.781  33.268  14.764  0.1105  0.0025  0.1317
35845W        W78861  21.503   7.513  21.886  0.0672  0.1179 -0.0502
35846W        W78862  33.230  30.896  17.149 -0.1375 -0.0631  0.0386
35847W        W78863   2.644  17.975  20.747  0.0518  0.2497  0.1495
35848W        W78864  23.814   3.670  19.885 -0.4204  0.1505 -0.1972
35849W        W78865  33.263   0.670  21.788 -0.1010 -0.0128  0.0078
35850W        W78866   9.698   4.826   2.613  0.0218 -0.1966 -0.2127
35851W        W78867   2.839  27.095  23.624 -0.3450 -0.1712  0.2367
35852W        W78868  12.825   0.065  16.769 -0.0740  0.0677 -0.3907
35853W        W78869   6.617  25.398  18.149 -0.2128  0.0135 -0.0869
35854W        W78870  14.057   0.512  13.930  0.2472  0.0608  0.1760
35855W        W78871  31.540  12.309  25.552 -0.0351  0.1116  0.1763
35856W        W78872   2.592  30.049  25.601  0.1712  0.0450 -0.1939
35857W        W78873  20.411  12.920  23.165  0.0058 -0.2276  0.2014
35858W        W78874   0.995  10.551  25.093 -0.2277  0.3256 -0.0214
35859W        W78875   7.150  29.218  19.741  0.2485 -0.2061  0.1841
35860W        W78876  11.739   0.414  24.414 -0.2542 -0.1159  0.1206
35861W        W78877   8.362  14.513   0.041 -0.0755  0.3510  0.0415
35862W        W78878  14.699  33.834  18.113 -0.3845 -0.0564  0.2691
35863W        W78879   2.205  34.497  15.937 -0.1029  0.4196 -0.1167
35864W        W78880  17.629  11.747   1.576  0.1855 -0.3543 -0.0034
35865W        W78881  18.930  10.252  17.853 -0.4708 -0.0856 -0.0300
35866W        W78882   3.862  26.534  27.717  0.4120  0.3470 -0.1296
35867W        W78883  19.569  18.855  22.700  0.2330  0.4787 -0.0581
35868W        W78884  27.816  11.908  16.878  0.0195  0.1726  0.1514
35869W        W78885  28.201   2.664  19.835 -0.2267 -0.1792 -0.0633
35870W        W78886   6.830   7.373  14.634  0.2389 -0.0110  0.1136
35871W        W78887   7.831   6.399  14.605 -0.0934  0.2650 -0.1720
35872W        W78888   5.488   0.600  24.003 -0.1462 -0.0531 -0.0102
35873W        W78889  16.111  30.799  14.814  0.0293  0.0440 -0.0332
35874W        W78890  21.114  26.033  19.970  0.2463 -0.1918  0.2231
35875W        W78891  17.453  28.155  19.187 -0.0317  0.0626 -0.0859
35876W        W78892   6.093   3.886  18.192  0.2455 -0.1232  0.3342
35877W        W78893  22.399  27.840  15.432 -0.0246  0.2863 -0.1293
35878W        W78894  14.173  14.599  12.548 -0.2493 -0.2118 -0.0811
35879W        W78895  11.463  10.841  19.841 -0.2250  0.2193  0.0667
35880W        W78896   5.968   9.624   7.759  0.0783 -0.4598 -0.1053
35881W        W78897  26.153   2.674  26.891  0.1744 -0.1750 -0.3462
35882W        W78898   7.666  18.717  15.300  0.2706 -0.1331 -0.1104
35883W        W78899  32.168  25.507  21.633 -0.0463 -0.1786  0.1440
35884W        W78900  27.168   1.023  27.254  0.0081  0.0066  0.1458
35885W        W78901  12.035   9.598  20.929  0.1188  0.0236 -0.1478
35886W        W78902  14.062   7.802  28.569 -0.2372  0.0502  0.4025
35887W        W78903   7.373  15.391  29.138  0.0714  0.0830  0.0801
35888W        W78904   1.542  16.111   2.199  0.2637 -0.0447 -0.3280
35889W        W78905  32.779   3.422   2.969 -0.4162  0.0749 -0.2493
35890W        W78906   8.710   9.646  16.946  0.0582  0.0217  0.0290
35891W        W78907  13.468  25.597  18.502  0.0926  0.2574  0.1603
35892W        W78908  17.358  29.130   0.340 -0.3032  0.3898  0.2275
35893W        W78909   2.233  30.078  20.388  0.2443  0.1863  0.1154
35894W        W78910   7.143  33.064  17.814 -0.4647 -0.1676 -0.3983
35895W        W78911  34.313  18.565  21.615  0.1593 -0.0714  0.0438
35896W        W78912   1.172  27.360  16.861 -0.0664  0.1683 -0.2321
35897W        W78913  12.881   0.113  15.459  0.1203 -0.3284  0.0233
35898W        W78914  16.477  14.710  11.668 -0.1175  0.0426 -0.1505
35899W        W78915  12.286   2.126  22.631  0.3554 -0.0035 -0.0464
35900W        W78916  12.002  22.749  15.647  0.0470  0.3532 -0.1472
35901W        W78917  10.406  31.885  16.592 -0.1462 -0.0109  0.5495
35902W        W78918  18.106  34.288  23.258 -0.1869  0.0770 -0.0305
35903W        W78919  14.934  12.225  22.090  0.0910  0.0502  0.5781
35904W        W78920   0.929   8.776  22.416 -0.1352  0.0971 -0.0647
35905W        W78921  15.453  29.739  27.153  0.0847 -0.0141  0.2555
35906W        W78922  15.999   3.876  20.924 -0.0638  0.0590 -0.0851
35907W        W78923  27.676   4.504  27.155 -0.3346 -0.4899  0.0626
35908W        W78924  10.943  26.914  14.943  0.1867 -0.2515 -0.1108
35909W        W78925   1.908   8.491  19.753  0.0164 -0.1682  0.1525
35910W        W78926   8.524  30.840  16.698  0.0517 -0.5231  0.0573
35911W        W78927   4.120   9.682  17.687 -0.0523 -0.3530  0.0399
35912W        W78928  10.297   2.346   2.326 -0.0893  0.0139 -0.1155
35913W        W78929  20.735  29.132  15.210  0.2198  0.2218  0.0192
35914W        W78930  16.616  33.607  17.563  0.1844  0.0795 -0.2771
35915W        W78931  11.866   2.993  16.165  0.2126  0.0322  0.0893
35916W        W78932  19.337  29.003  17.856  0.0406 -0.0706  0.1005
35917W        W78933   8.831  15.544  23.739 -0.0624  0.1190  0.1398
35918W        W78934  11.947  32.056  25.802  0.0106 -0.0518 -0.0053
35919W        W78935   9.285   0.425   6.253  0.0684 -0.0288 -0.2033
35920W        W78936  33.755  10.839  15.852 -0.0176  0.0226 -0.1009
35921W        W78937  11.654  30.718  26.423 -0.1309 -0.1134 -0.3471
35922W        W78938  12.565  24.238  14.422 -0.0400 -0.0483  0.0652
35923W        W78939   1.855  28.072  19.901  0.0404  0.2511 -0.3097
35924W        W78940   7.181   7.265  21.268 -0.3385 -0.1265 -0.0336
35925W        W78941  13.343  23.175  17.619 -0.1571  0.1325  0.0444
35926W        W78942   2.231  30.157  14.704 -0.0969  0.1394  0.0061
35927W        W78943  29.834   7.440   7.907  0.1295 -0.1044 -0.2778
35928W        W78944   2.406  34.286  19.511  0.0345 -0.4316 -0.0362
35929W        W78945  19.731   0.430  17.823 -0.1262 -0.0055 -0.2299
35930W        W78946  13.049   6.087  15.979  0.0907 -0.0884  0.1266
35931W        W78947   2.018  33.053  21.255 -0.1432 -0.0209 -0.2251
35932W        W78948   2.568   5.456  16.933  0.1534 -0.0453  0.2158
35933W        W78949  21.167  13.022  14.861 -0.2755 -0.1332  0.3639
35934W        W78950  13.101   0.273  27.495 -0.1511 -0.0942  0.0300
35935W        W78951   6.599  16.133  15.663 -0.0691 -0.2095 -0.1971
35936W        W78952   8.909   6.023   1.598 -0.1143 -0.0157  0.3158
35937W        W78953  13.046  27.870  17.373 -0.1345 -0.1543 -0.1815
35938W        W78954  31.185  10.715   3.362  0.4038 -0.0533 -0.4267
35939W        W78955   5.634   0.069  26.361  0.0137  0.1364  0.1450
35940W        W78956  27.358  33.555  15.654  0.0244  0.0334 -0.3324
35941W        W78957   5.590  31.595  16.533 -0.0706 -0.0433  0.2135
35942W        W78958  20.396  12.013  14.594  0.1533 -0.1247  0.1199
35943W        W78959  10.025  34.095  23.521  0.1373  0.1500 -0.6902
35944W        W78960   1.010  27.644  14.856 -0.0038 -0.2446  0.0799
35945W        W78961   2.485  28.649  26.707 -0.2588 -0.1005  0.1062
35946W        W78962   5.179  10.965  20.836  0.0255  0.1550 -0.0718
35947W        W78963   4.241   0.928  20.926  0.3060  0.1190 -0.1285
35948W        W78964  23.107  29.080   4.843 -0.1116  0.1511  0.1637
35949W        W78965   5.157   5.617  17.786 -0.1136  0.0012  0.0421
35950W        W78966  19.870  31.208  19.318 -0.2605  0.0511  0.0140
35951W        W78967  28.406   2.195   0.102 -0.3846 -0.1627 -0.1378
35952W        W78968  18.505  24.260  16.957 -0.0858 -0.0486  0.1158
35953W        W78969  31.371  16.365  22.046 -0.0734  0.1192  0.2602
35954W        W78970   6.670  12.687  22.926  0.0901  0.0237  0.1964
35955W        W78971   8.106  28.893  25.261  0.0717 -0.1371 -0.1358
35956W        W78972  17.920  10.532  28.334  0.0228 -0.0444  0.4022
35957W        W78973   6.846  26.218  15.521 -0.0810  0.2914  0.4779
35958W        W78974  15.171   1.786  15.371  0.0672  0.2545  0.3759
35959W        W78975  16.514   4.198   3.165 -0.3232 -0.1213  0.1100
35960W        W78976  34.024   5.461  28.832  0.3738 -0.3596  0.0162
35961W        W78977  28.688   8.778   4.573 -0.0830 -0.0379  0.2095
35962W        W78978  22.010   2.679  26.583 -0.0370 -0.0245 -0.0052
35963W        W78979  14.434  31.736  15.098  0.2284  0.2147 -0.1835
35964W        W78980  31.718  19.203  21.553  0.0692 -0.2504  0.0263
35965W        W78981  15.916  31.528  18.703 -0.0497 -0.0243 -0.0205
35966W        W78982   0.816   4.967  19.174 -0.0075 -0.2248  0.2533
35967W        W78983  26.232   2.677  15.153  0.1906 -0.1327  0.3085
35968W        W78984   5.328  34.269  22.501 -0.2368  0.0692  0.0009
35969W        W78985  19.852   0.725   6.826 -0.1642 -0.0592 -0.1087
35970W        W78986   6.169  32.111  23.673 -0.1914 -0.1090 -0.1512
35971W        W78987  14.118  10.801  20.079 -0.2115 -0.1413 -0.4067
35972W        W78988  20.605   7.026  20.586 -0.2714 -0.0273 -0.0518
35973W        W78989  14.511   4.730  25.236  0.1881  0.1073  0.1241
35974W        W78990  11.124  26.825  18.679 -0.0665 -0.1488  0.3424
35975W        W78991  11.402  16.372  16.110  0.0493 -0.0795  0.1581
35976W        W78992  33.813   9.566  15.554  0.3081  0.0216 -0.1684
35977W        W78993  10.133  19.410   1.153  0.1887 -0.2034 -0.3114
35978W        W78994  14.678  34.220  25.918 -0.1924 -0.0199  0.1761
35979W        W78995  12.968  32.222  16.784  0.3173 -0.2641  0.0665
35980W        W78996   3.668  15.810  16.708 -0.1706  0.1817 -0.0145
35981W        W78997   8.925   0.786  26.253  0.0934 -0.0858  0.0580
35982W        W78998  22.948   3.611  22.436  0.3210 -0.0670  0.1753
35983W        W78999  16.674   7.860  23.408 -0.1602 -0.0148  0.0116
35984W        W79000   7.175  14.365   7.142 -0.0148  0.1344 -0.0589
35985W        W79001  31.826  17.092  23.055  0.0626  0.2025  0.2697
35986W        W79002  29.125   1.076  20.662 -0.2188  0.0766  0.0899
35987W        W79003  18.004  29.630  17.727 -0.0319  0.3001 -0.2962
35988W        W79004  11.916  30.026  26.512  0.1359  0.0422  0.4247
35989W        W79005  12.805   3.773  14.874  0.1838  0.0543  0.1430
35990W        W79006   4.925  13.808  28.541  0.2439  0.0893 -0.3272
35991W        W79007   6.003   5.090  18.370  0.3764 -0.2082 -0.2842
35992W        W79008   6.081  12.861  21.570  0.0725  0.2551 -0.1213
35993W        W79009   6.723   5.892  18.200 -0.1920 -0.1275  0.3571
35994W        W79010  17.742  33.276  24.929  0.1012  0.2574 -0.0520
35995W        W79011  11.851  32.409  14.395 -0.1493 -0.0876 -0.0330
35996W        W79012  11.243   4.443  13.953  0.3472  0.1396  0.2694
35997W        W79013  20.500   6.090  16.365  0.0174  0.1212  0.0476
35998W        W79014   3.263   9.785  16.495 -0.1496  0.3273  0.0635
35999W        W79015  10.333   4.194  18.809 -0.0064 -0.3622  0.1055
36000W        W79016   5.186  26.642  27.658 -0.0922  0.0273  0.2990
36001W        W79017   6.315   6.183  22.529 -0.1099 -0.2271  0.1679
36002W        W79018   7.512  28.340  16.882 -0.0688  0.2293 -0.0010
36003W        W79019  11.952  23.544  14.067  0.0110 -0.0003 -0.0143
36004W        W79020  16.846  12.165   0.506 -0.0028  0.1936 -0.2515
36005W        W79021  21.192   4.859  15.035  0.4097  0.2548 -0.1281
36006W        W79022  16.623   3.515  18.874 -0.1499 -0.1089  0.0389
36007W        W79023  10.569   2.070  19.825 -0.0069 -0.1790  0.2417
36008W        W79024  17.597   1.810  17.079 -0.1602  0.1678  0.2654
36009W        W79025  11.113   3.742  24.249 -0.6728  0.4867  0.3769
36010W        W79026  13.391  10.127  25.836 -0.3418 -0.4293  0.2137
36011W        W79027   5.244   0.183  17.996  0.0545 -0.0573  0.0359
36012W        W79028  16.493   3.300  23.444  0.0864 -0.0731  0.0191
36013W        W79029   7.706   5.457  18.613  0.0547 -0.2825  0.0085
36014W        W79030   7.837  33.368  23.500  0.0822  0.2475 -0.0634
36015W        W79031   5.309  15.708  14.624  0.0122  0.2502 -0.1874
36016W        W79032   5.583  33.870  23.853 -0.1343  0.1552 -0.1232
36017W        W79033  19.575  10.164  20.126  0.0341  0.1911  0.1889
36018W        W79034   8.070   4.804  23.887  0.1974 -0.2230  0.0982
36019W        W79035  15.270  33.980  23.666  0.0599 -0.0446  0.0737
36020W        W79036  18.459  30.149   3.448  0.0590  0.3901  0.2032
36021W        W79037  16.408  31.866  15.507  0.1098 -0.5533  0.2693
36022W        W79038  34.534  26.884  28.880 -0.0122 -0.0012  0.2196
36023W        W79039  21.316  29.461  27.908 -0.2493  0.0381 -0.1493
36024W        W79040   6.522  30.710  20.284 -0.0415 -0.1429 -0.0905
36025W        W79041   9.676   1.476  26.907 -0.0988 -0.4764 -0.2571
36026W        W79042  15.445  30.716  18.786 -0.0214 -0.3611 -0.1360
36027W        W79043  30.773  21.135  22.507  0.0192 -0.0989  0.0774
36028W        W79044   3.136  17.435  17.759  0.0456  0.0321  0.1235
36029W        W79045  13.412  16.538  13.074 -0.4158  0.2330  0.0158
36030W        W79046  14.093   2.910  16.243  0.1642  0.5047  0.2797
36031W        W79047  11.788  26.857  20.388 -0.0577  0.0136  0.2797
36032W        W79048   2.972  25.922  22.903 -0.3082 -0.0606 -0.1363
36033W        W79049  13.332   4.890  17.000  0.2475 -0.4574 -0.1087
36034W        W79050   9.436  11.949   9.685 -0.3975  0.0582  0.2657
36035W        W79051   0.484   8.392  16.155 -0.0707 -0.1166 -0.0231
36036W        W79052   4.828  26.915  17.205  0.0936  0.0960  0.2589
36037W        W79053  33.259  12.284  24.332  0.2337  0.0973  0.0176
36038W        W79054  18.080  33.111  19.712 -0.0872  0.1508 -0.2834
36039W        W79055  29.939  23.489  11.349  0.1585 -0.1193 -0.2455
36040W        W79056  17.870  13.836  15.206  0.1487  0.1794  0.1471
36041W        W79057  23.804  14.267  21.216  0.1737 -0.1100 -0.0694
36042W        W79058  29.045   4.157  17.641 -0.3484  0.0654  0.0203
36043W        W79059  31.906   0.224  19.601  0.0021  0.1417  0.1293
36044W        W79060  32.565  10.732  25.886 -0.1197  0.1349  0.1911
36045W        W79061   9.565  23.042  20.736  0.0369  0.2365 -0.2007
36046W        W79062  11.071  30.656  28.764 -0.3048 -0.0912 -0.1430
36047W        W79063  20.938  10.294  14.523 -0.0998 -0.0836  0.1455
36048W        W79064   8.369  34.470  23.610 -0.0447 -0.0516 -0.1615
36049W        W79065   7.173   9.745  20.131 -0.0137 -0.0638  0.1330
36050W        W79066  32.892   2.433  14.986 -0.1762 -0.1378  0.0414
36051W        W79067   6.939  11.180  17.393  0.1124 -0.0525  0.0233
36052W        W79068   9.196  11.073  18.409 -0.0078  0.0771 -0.1215
36053W        W79069  28.150  13.024   1.787  0.1637  0.2053  0.1396
36054W        W79070  10.243   1.069  18.788 -0.0085  0.1962 -0.0714
36055W        W79071  26.635   3.508   0.719 -0.3651 -0.1651  0.0552
36056W        W79072  22.892  28.097  25.579 -0.0296 -0.0166 -0.0329
36057W        W79073  24.287  15.214  29.251 -0.0429  0.0010  0.1646
36058W        W79074  19.244  31.303  20.996 -0.2572 -0.1843 -0.2101
36059W        W79075   0.976  31.493  23.144 -0.2195  0.1132 -0.4394
36060W        W79076  32.408  29.504  15.845 -0.1521  0.0757 -0.2080
36061W        W79077  19.006   3.074  27.540 -0.0837  0.2003  0.4370
36062W        W79078   9.857  27.522  17.592  0.0527 -0.2363  0.5142
36063W        W79079   9.443  13.741  22.165  0.0887 -0.0707 -0.0382
36064W        W79080  15.580  27.094  21.515 -0.1521 -0.3505 -0.0152
36065W        W79081  20.447   3.523  17.837  0.0458 -0.1163 -0.0842
36066W        W79082  12.123  30.298  15.040  0.1388  0.1398 -0.0156
36067W        W79083   3.268  32.262  27.370  0.0408 -0.0239  0.3011
36068W        W79084   2.661   1.128  16.218  0.1392  0.0270  0.0101
36069W        W79085   7.128   5.368  21.955 -0.0595 -0.3131 -0.3378
36070W        W79086   1.551  29.094  23.506  0.0579  0.0854 -0.0897
36071W        W79087   5.765   6.118  16.272 -0.1272  0.0036 -0.0014
36072W        W79088  18.216   1.796  15.955 -0.5558 -0.1795 -0.1223
36073W        W79089   1.464   2.175  15.275  0.0299 -0.2341  0.0641
36074W        W79090  11.828  16.774  14.084 -0.1431  0.1165  0.0869
36075W        W79091  10.773  13.962  24.151 -0.2093 -0.1686  0.0527
36076W        W79092  34.577   3.588  20.307  0.0322  0.2422 -0.1338
36077W        W79093   0.245  29.257   7.580 -0.2830 -0.0658 -0.1375
36078W        W79094   7.564  22.818  21.999 -0.0517  0.0187 -0.2153
36079W        W79095   5.539   0.359  15.601 -0.1804  0.1492 -0.1047
36080W        W79096  22.468   1.052  24.041 -0.2351 -0.1849  0.1652
36081W        W79097  10.038   9.237  24.547  0.0495 -0.0501 -0.2379
36082W        W79098  19.699  12.231  19.628  0.0217 -0.1208 -0.4206
36083W        W79099  18.993  21.515   0.878  0.0006  0.3238 -0.0640
36084W        W79100  20.575   7.484  20.819 -0.0518 -0.2287 -0.1757
36085W        W79101  17.400  29.156  16.475  0.2162 -0.3623  0.3251
36086W        W79102   1.717  29.556  25.609  0.3011 -0.1728 -0.0659
36087W        W79103  17.544   4.778  18.180  0.1428 -0.0614  0.0580
36088W        W79104  34.081  20.859   4.484 -0.1286  0.0263  0.0301
36089W        W79105  18.750  26.160  22.990  0.1796  0.0577 -0.0079
36090W        W79106   8.441  17.825  13.357  0.0178 -0.0011  0.2861
36091W        W79107  32.910  20.545  18.250  0.0766  0.4901  0.0477
36092W        W79108  32.625  14.898  25.789 -0.1058  0.1237 -0.5273
36093W        W79109  14.064   4.619  19.971  0.1897 -0.0747 -0.2859
36094W        W79110   6.562  32.884  19.220  0.3244 -0.0077 -0.5422
36095W        W79111   1.445   2.457  21.334  0.1017  0.4736 -0.0628
36096W        W79112   2.376   1.768  19.474 -0.0037 -0.0999 -0.0664
36097W        W79113  25.668   8.036  18.463  0.0630 -0.1377 -0.1598
36098W        W79114  10.364  15.329  22.350 -0.1279 -0.1000  0.1590
36099W        W79115  13.518  34.667  21.964  0.1054 -0.0384 -0.1383
36100W        W79116  14.108  26.902  14.235  0.0642 -0.0605  0.1906
36101W        W79117  10.030   9.169  27.619  0.1486  0.0166 -0.0483
36102W        W79118   0.291   4.628  24.476 -0.2668  0.2574  0.3775
36103W        W79119  29.939  34.134  26.925  0.2331 -0.2869  0.1419
36104W        W79120   8.564   4.374  24.005  0.2391  0.4655  0.0798
36105W        W79121   3.261   2.176  25.440 -0.1794 -0.1996  0.2614
36106W        W79122   3.228  26.092   5.858  0.2995 -0.1429  0.0281
36107W        W79123  27.029   0.998  21.249  0.2565 -0.2853  0.0692
36108W        W79124  18.091  33.166   1.612  0.2936  0.1154 -0.3605
36109W        W79125   0.586   6.998  17.722 -0.0798  0.1781 -0.4770
36110W        W79126   4.939   4.089   3.684 -0.2607 -0.2068  0.1412
36111W        W79127  22.248   3.527  28.025  0.1111  0.2205 -0.2262
36112W        W79128   1.861   0.556   5.211 -0.0401 -0.1052  0.0336
36113W        W79129  10.614  14.782   6.036  0.2423 -0.1859  0.3972
36114W        W79130   3.395   9.429   5.220  0.2390 -0.2942 -0.0236
36115W        W79131  15.068  33.068  15.446  0.0119  0.0310 -0.2115
36116W        W79132  10.256   7.079   1.823 -0.0781 -0.0618  0.1521
36117W        W79133   3.329  25.930  24.670  0.0263  0.2994 -0.0180
36118W        W79134  18.088   0.091   0.781 -0.2045 -0.0121  0.0635
36119W        W79135   0.728  31.091   3.610 -0.0142  0.0550 -0.3178
36120W        W79136  31.224   5.812  15.965 -0.0195  0.2040 -0.0322
36121W        W79137  24.216   4.064   9.202  0.0587  0.1462 -0.1711
36122W        W79138  20.714  25.754  14.504  0.2369 -0.1168  0.0042
36123W        W79139  33.590   2.427   1.141  0.0750 -0.1196  0.1763
36124W        W79140  29.706  30.710  25.266 -0.0203  0.0717  0.1755
36125W        W79141  13.156   8.868  25.318  0.1035 -0.0870  0.1879
36126W        W79142  10.939  30.245  28.430 -0.1036 -0.1060  0.1297
36127W        W79143  33.584  18.392  21.803 -0.0442 -0.0258 -0.0283
36128W        W79144  11.800  11.541  16.223 -0.2655  0.0496  0.1452
36129W        W79145   5.274  29.932  20.772 -0.2712 -0.1429 -0.0443
36130W        W79146  34.516   7.779   3.469 -0.0443  0.1477  0.1713
36131W        W79147  32.597  24.242   2.905 -0.0101 -0.1149  0.2513
36132W        W79148   5.738   9.336   9.428  0.1504  0.1487  0.1567
36133W        W79149   6.155  13.169  21.933  0.1404 -0.2261  0.2203
36134W        W79150   6.115  29.180   1.806  0.0814  0.0008 -0.0564
36135W        W79151  10.492  10.828  27.024 -0.1138  0.0974  0.3809
36136W        W79152  32.551  17.752  25.588  0.1569  0.0620 -0.3586
36137W        W79153  17.625  32.641  17.566  0.0374 -0.0153 -0.0425
36138W        W79154   2.051  32.865  14.852  0.1549 -0.0698 -0.0681
36139W        W79155  14.839   0.798  25.769  0.0750  0.0612  0.2659
36140W        W79156  11.757  13.327  21.863 -0.3392  0.0283  0.0774
36141W        W79157  32.496  25.523  19.314 -0.2204  0.1146  0.0538
36142W        W79158  26.488  11.255  17.388  0.2633 -0.0844  0.0336
36143W        W79159  30.740  11.009  14.213  0.0030  0.0438  0.2402
36144W        W79160  17.497  24.795  23.888 -0.1783  0.0022  0.4778
36145W        W79161  24.158  29.581  26.133 -0.2019 -0.4027 -0.1457
36146W        W79162  12.102   2.113  19.683  0.0437 -0.1860  0.3670
36147W        W79163  30.079   8.141  17.353 -0.0892  0.1626  0.2457
36148W        W79164   6.502  25.342   0.882 -0.1351  0.0138 -0.0817
36149W        W79165  31.014   7.662  24.904 -0.2640  0.1263  0.0562
36150W        W79166   9.350   5.675  20.900 -0.0598  0.1369 -0.2360
36151W        W79167   6.482   7.058  20.308  0.0870 -0.3781 -0.1363
36152W        W79168   7.600  13.783   2.724  0.3872  0.0125  0.0451
36153W        W79169  19.709  30.016  25.887  0.1489 -0.5671  0.0148
36154W        W79170  11.121   2.997  26.215 -0.2929  0.0961 -0.3766
36155W        W79171  33.852  15.693   3.688 -0.3977 -0.1366  0.0604
36156W        W79172  14.506   2.829  23.146  0.2760 -0.0787 -0.0590
36157W        W79173   2.054   2.001  17.778 -0.0825 -0.1753  0.1718
36158W        W79174  34.558  14.148  16.829 -0.2451  0.0504 -0.1260
36159W        W79175   5.789   3.958  18.602  0.1338 -0.0485  0.0278
36160W        W79176  19.081  10.564  23.365 -0.1808  0.2947 -0.1266
36161W        W79177   9.816  33.072  17.702  0.0802  0.0688 -0.1062
36162W        W79178  26.923   5.919  15.735 -0.2054  0.0267  0.1309
36163W        W79179  11.724   7.794  28.029 -0.1321  0.1285  0.2224
36164W        W79180  31.049  15.550  16.590  0.0335  0.0576  0.0601
36165W        W79181   4.897   1.843   0.326 -0.1191  0.1760 -0.1252
36166W        W79182  28.003   5.489   4.582 -0.1474  0.0386  0.2413
36167W        W79183   3.328  32.578  22.039  0.0236 -0.3851 -0.0852
36168W        W79184   6.240   5.886   1.079 -0.3155 -0.3025 -0.2707
36169W        W79185  24.427   4.170  25.114 -0.0699 -0.2018  0.0557
36170W        W79186  10.771   1.180  17.914 -0.1057  0.2310  0.1532
36171W        W79187  13.815  16.375  19.733 -0.0041 -0.0178 -0.2096
36172W        W79188   4.813   8.924  14.622 -0.2753 -0.0898  0.2270
36173W        W79189   4.046   5.321  26.732 -0.4072 -0.2525  0.0670
36174W        W79190  17.463  33.649  21.653 -0.0796  0.1811 -0.1848
36175W        W79191   7.774  10.283  14.817 -0.0108 -0.0618 -0.2382
36176W        W79192   1.460   9.645   3.791  0.1829  0.0411  0.1210
36177W        W79193  22.325  27.254   4.404 -0.3838  0.2596  0.0029
36178W        W79194   3.936  33.602  26.879 -0.1722  0.1291  0.1748
36179W        W79195   3.315   6.169   4.794  0.3975 -0.2043 -0.1266
36180W        W79196  11.465  29.028  16.094 -0.0215 -0.3669 -0.1523
36181W        W79197  25.595   7.631  18.216 -0.0037 -0.2150 -0.2702
36182W        W79198   5.701  18.607  23.085  0.1331 -0.0379 -0.0941
36183W        W79199  23.862  31.445  24.816  0.0079  0.0919  0.0731
36184W        W79200  22.057  10.717  22.105 -0.1150 -0.0822 -0.3792
36185W        W79201  30.304  11.105  18.643  0.0410  0.0784 -0.0364
36186W        W79202   5.703  15.571  26.014  0.0641  0.0700 -0.2795
36187W        W79203  31.148   1.169  27.220  0.3161 -0.2340  0.2676
36188W        W79204   8.539  10.199  19.551  0.1013  0.5142 -0.2273
36189W        W79205   8.031   5.028  25.960 -0.3426 -0.1372 -0.0216
36190W        W79206   0.804  13.541  17.302  0.2279  0.0593 -0.1247
36191W        W79207   6.665  29.031   8.828 -0.2756 -0.1205  0.3414
36192W        W79208  23.629  26.085  22.669  0.0478 -0.1722 -0.0834
36193W        W79209   9.908  25.081  20.244 -0.3389  0.0882  0.3804
36194W        W79210   0.702  22.506  16.700 -0.3479  0.3161 -0.0171
36195W        W79211   6.211   5.761  22.768 -0.0433  0.1774  0.0517
36196W        W79212   1.370  30.031   8.872 -0.1669  0.2103  0.1104
36197W        W79213   0.520   9.450  20.798 -0.2273 -0.0958 -0.0332
36198W        W79214   7.931  27.101  18.633 -0.3133  0.3568  0.1469
36199W        W79215   5.332  16.026  15.099  0.1437  0.2384  0.1412
36200W        W79216  27.033  10.968  25.028  0.1325 -0.0646 -0.2141
36201W        W79217  21.177   4.419  22.867 -0.3059  0.2404  0.3165
36202W        W79218  22.149   5.012  19.399 -0.0436  0.0202  0.1495
36203W        W79219  33.394  33.973  26.556  0.1514 -0.4266  0.3238
36204W        W79220  13.316   9.106  22.088  0.0828  0.2949 -0.0308
36205W        W79221  20.428   4.904  14.350 -0.0307  0.2378  0.1024
36206W        W79222   6.488  16.845  14.004  0.2158  0.0649  0.1256
36207W        W79223   2.318  33.256  27.842  0.0103  0.3946  0.0202
36208W        W79224   2.647  14.346   0.612 -0.1034 -0.0042 -0.0868
36209W        W79225   9.328  10.220  27.002  0.3308 -0.0657 -0.0826
36210W        W79226  25.032   1.189   1.588  0.0385 -0.0432  0.3405
36211W        W79227  14.405  33.483  29.157 -0.2937  0.0744 -0.0237
36212W        W79228   5.254   7.143  18.989  0.0509 -0.2703  0.2655
36213W        W79229   7.524  32.547  25.973  0.0834 -0.2536  0.3259
36214W        W79230   8.136  19.876  14.978  0.2236 -0.2077  0.0390
36215W        W79231  31.858  25.692  16.510 -0.1765 -0.0408 -0.0907
36216W        W79232  18.206  33.210  17.713  0.1153  0.2205  0.0866
36217W        W79233  18.927  26.523  20.994  0.4627 -0.1700  0.1125
36218W        W79234  18.871   5.973  17.746 -0.1643 -0.2250  0.5264
36219W        W79235  17.159   1.206   0.445  0.0985  0.1658 -0.1083
36220W        W79236   3.436  30.715   4.297  0.0629 -0.0055 -0.3074
36221W        W79237  21.868  34.530  21.550  0.0175  0.1525  0.1104
36222W        W79238  13.521  32.396  15.624  0.0546  0.0631 -0.2766
36223W        W79239  16.162  33.161  16.751 -0.2242  0.1393  0.0100
36224W        W79240  14.246   6.309  21.755  0.2373 -0.3730  0.0199
36225W        W79241  31.062  13.075  25.867  0.0366  0.2218 -0.2903
36226W        W79242  11.029   1.923  16.227 -0.1254  0.1319  0.0535
36227W        W79243   1.284  12.570  22.975  0.0712  0.1134  0.1038
36228W        W79244   8.671   4.677  16.012 -0.1096  0.1350 -0.0209
36229W        W79245  21.129  26.851  19.154 -0.2553  0.2231 -0.1405
36230W        W79246   6.230  29.350  19.897 -0.4099 -0.0000  0.0460
36231W        W79247  25.315   0.073  17.060  0.4223  0.1275 -0.1258
36232W        W79248  32.168  18.525  18.108  0.3261  0.1553  0.0593
36233W        W79249  29.516  34.538  21.925  0.1612  0.2947  0.1171
36234W        W79250  32.005   3.588  15.292 -0.0056  0.0373 -0.0788
36235W        W79251   1.493  10.783  14.639 -0.0877 -0.1149  0.1729
36236W        W79252   5.911  11.097  17.335 -0.0372 -0.0361  0.0861
36237W        W79253   2.808  25.590   0.453 -0.1815 -0.3708 -0.1435
36238W        W79254  28.791   2.726  23.909  0.0703 -0.0642 -0.0357
36239W        W79255   9.803  31.427  25.116  0.1392 -0.1060  0.1613
36240W        W79256  29.939  34.415  22.210 -0.2803  0.1429 -0.1983
36241W        W79257  12.722  31.290  24.957 -0.4629  0.0055 -0.0921
36242W        W79258  19.652  32.138  16.190 -0.3835  0.0086 -0.4566
36243W        W79259   6.096  27.153  27.791  0.1420  0.2066 -0.1535
36244W        W79260  17.376   7.192  14.293 -0.0393  0.0292  0.1804
36245W        W79261  13.260   2.028  14.344 -0.3750  0.0765 -0.1857
36246W        W79262  33.180   9.562  27.556 -0.0964 -0.0463  0.0363
36247W        W79263   0.732  32.156  14.484 -0.3630  0.2817  0.2982
36248W        W79264   9.248  22.454  19.200  0.0833 -0.2822  0.2274
36249W        W79265  17.262  25.148   0.614 -0.1624 -0.4429  0.2668
36250W        W79266   9.124  28.762  18.453  0.2148  0.1944  0.0125
36251W        W79267   4.260  18.377   3.881  0.0039 -0.1557 -0.2633
36252W        W79268  15.143   4.602  24.452  0.0697  0.0296  0.3951
36253W        W79269  25.197  23.138  19.848  0.1967  0.0139 -0.0424
36254W        W79270   7.144  29.269  20.471 -0.0142 -0.0345 -0.2008
36255W        W79271   4.780  17.387  19.645 -0.1340  0.1503 -0.3665
36256W        W79272   1.568  22.908  17.474  0.0339 -0.2813 -0.1475
36257W        W79273   0.582   7.967   3.048 -0.0648  0.2274  0.1247
36258W        W79274   5.273   7.990  19.939 -0.0141  0.0534  0.1623
36259W        W79275   6.805  28.893  20.704  0.2427  0.1197 -0.1980
36260W        W79276   6.927  33.326  17.080  0.0054  0.1956  0.1148
36261W        W79277  10.091  13.774  14.157 -0.0600  0.2163  0.0406
36262W        W79278   1.772   2.574  19.460 -0.1366 -0.0967 -0.1129
36263W        W79279  33.294   5.860  16.017  0.2681 -0.1788 -0.1778
36264W        W79280  11.071   3.750  19.681 -0.0919 -0.0971 -0.0387
36265W        W79281  20.669  15.664  14.378 -0.1448 -0.2676 -0.2528
36266W        W79282   6.263  13.930  23.363  0.0161 -0.2572 -0.0325
36267W        W79283  22.819   9.823  17.872  0.0483  0.0071  0.1210
36268W        W79284   4.334   3.589  22.973  0.1894 -0.0403  0.1628
36269W        W79285   0.230  34.509  22.278 -0.0916 -0.1863  0.1099
36270W        W79286  28.477  26.301  18.556  0.1292  0.0597  0.0356
36271W        W79287  30.880  30.945   2.059 -0.1020 -0.2621  0.0069
36272W        W79288  10.872  29.531  25.646  0.0823 -0.2257 -0.2700
36273W        W79289   1.815  33.265  24.175 -0.0168  0.0966  0.0775
36274W        W79290  14.430   6.160  20.858 -0.0340  0.0554  0.2708
36275W        W79291   2.643  18.247  15.521  0.1993  0.2328 -0.1337
36276W        W79292  18.427   6.698  14.393 -0.0580  0.0465 -0.1342
36277W        W79293   1.834  22.752  16.755  0.0767 -0.0203  0.0003
36278W        W79294  20.617   0.973  22.009  0.0743  0.0694  0.4905
36279W        W79295  24.012  30.244  23.619 -0.1723  0.3561 -0.4520
36280W        W79296   7.933  25.059  27.919 -0.2339 -0.3121 -0.4548
36281W        W79297   2.304   7.142   4.147 -0.2518  0.1275  0.0666
36282W        W79298   9.245   6.736  22.911  0.1213 -0.1435 -0.0260
36283W        W79299  34.214  10.587   8.180  0.0397 -0.0351  0.4433
36284W        W79300  34.405  18.713  21.099  0.0504  0.1794 -0.1247
36285W        W79301  29.062  14.423  27.470  0.1099  0.0062  0.0420
36286W        W79302  24.002  27.590  21.888 -0.0048  0.1408  0.1552
36287W        W79303  22.913   4.428  17.471 -0.0858  0.1003  0.2448
36288W        W79304  11.205  13.386  19.712  0.0421  0.1291 -0.0380
36289W        W79305  10.158  14.327  18.367 -0.0811  0.1022 -0.0425
36290W        W79306   9.254   9.776  14.026  0.0886 -0.0627 -0.2251
36291W        W79307   5.689   6.404  22.044  0.5467 -0.1721 -0.0438
36292W        W79308  12.382   2.730  26.951  0.0250  0.5030 -0.0062
36293W        W79309  14.152  23.380   0.545 -0.1259  0.2456 -0.0291
36294W        W79310  10.501  28.260  15.720 -0.1083 -0.3017  0.0437
36295W        W79311  13.604   3.388  19.184  0.0157  0.2626 -0.0446
36296W        W79312  29.914   1.439  24.942 -0.3931  0.0104 -0.2029
36297W        W79313   7.728  14.694  26.439  0.2892 -0.2520  0.0682
36298W        W79314  12.783  28.473  19.643  0.1979  0.2160  0.1760
36299W        W79315  28.236  27.301  24.214  0.0999 -0.2635 -0.2141
36300W        W79316  18.399  22.024  25.156 -0.0835  0.1158  0.1377
36301W        W79317  29.936  22.323  15.457 -0.1039 -0.2474  0.1600
36302W        W79318  29.077  32.712  18.061  0.1832  0.2586 -0.0091
36303W        W79319  22.638  12.021  28.724 -0.2309  0.0845  0.1359
36304W        W79320  10.680   2.439  17.761  0.0984 -0.0640  0.0372
36305W        W79321   4.789  34.333  24.481  0.0146 -0.0111 -0.2445
36306W        W79322  22.124  34.106  17.433 -0.1669 -0.1225 -0.3007
36307W        W79323  11.884  21.147  13.170  0.4916  0.0411  0.0269
36308W        W79324  11.767  30.279  25.033  0.0760  0.1328 -0.2078
36309W        W79325   5.641   4.618  25.649 -0.4681  0.2850  0.0593
36310W        W79326  12.709   3.774  13.937 -0.0456  0.1487 -0.0749
36311W        W79327   9.219  22.591  13.454  0.3746  0.4230 -0.0770
36312W        W79328  25.783  29.028   7.845 -0.0337  0.0983  0.1714
36313W        W79329   0.119   2.310  28.873 -0.1035  0.1871 -0.1337
36314W        W79330  33.519   4.057  19.931 -0.1498 -0.1874 -0.2364
36315W        W79331  26.490   1.289  21.868  0.1414 -0.3002  0.1455
36316W        W79332  10.452   6.554  18.243  0.2730  0.0815  0.1238
36317W        W79333  18.538   5.734  28.771 -0.0475  0.0495  0.0473
36318W        W79334   9.656  26.933   0.719  0.1670  0.0785  0.1150
36319W        W79335   7.309  29.685  20.761 -0.1332 -0.1039 -0.0397
36320W        W79336   2.693   2.866  19.434 -0.3217  0.1763 -0.0791
36321W        W79337   9.313  33.760   5.597  0.2129 -0.2383 -0.1941
36322W        W79338  31.003  14.219  18.442 -0.4799  0.1101  0.1549
36323W        W79339  30.661  32.654  23.919 -0.0347  0.0686 -0.0060
36324W        W79340   9.500   7.525  23.351 -0.1616  0.3407  0.2887
36325W        W79341  12.514   5.444   1.468  0.2271  0.1774  0.0325
36326W        W79342   9.197   0.800  21.690 -0.0371 -0.2435 -0.2853
36327W        W79343   9.007   7.457  22.832 -0.1338  0.0489 -0.1894
36328W        W79344  18.979   0.988  14.571  0.1154  0.0829 -0.1581
36329W        W79345  12.577   0.897  14.209  0.0230 -0.1718 -0.4025
36330W        W79346  26.806   1.528  17.654 -0.1001 -0.1509  0.0912
36331W        W79347  18.692  18.555  20.723  0.1693  0.0761 -0.0457
36332W        W79348   1.127   4.669   6.443 -0.0326  0.1416  0.0522
36333W        W79349   9.921   2.785  20.043 -0.1089 -0.0191 -0.2516
36334W        W79350  13.944  10.752  22.197  0.2014 -0.1288  0.3601
36335W        W79351  20.164  31.192   1.279 -0.0507  0.1366  0.0260
36336W        W79352   3.711  10.412   3.927 -0.1709 -0.2261 -0.2808
36337W        W79353  14.619   4.951  20.109  0.2093 -0.2701 -0.0186
36338W        W79354  12.870  13.355  27.922  0.0975  0.1604  0.0379
36339W        W79355  18.194  27.429  27.165  0.3045  0.0565  0.4412
36340W        W79356   0.206   7.659  17.051 -0.3055 -0.3667  0.5175
36341W        W79357   7.594  27.671  27.927  0.1187  0.1141  0.0951
36342W        W79358   6.581  34.627   9.610  0.3384 -0.0053 -0.0858
36343W        W79359  11.071   7.358   7.002 -0.2770  0.0551 -0.3060
36344W        W79360  29.111   4.513   8.623  0.0504  0.2379 -0.0960
36345W        W79361  10.420  27.711  21.520  0.1295  0.1590  0.0223
36346W        W79362  31.857  34.710  24.369  0.0790  0.1730 -0.0221
36347W        W79363  29.310  10.998  24.750 -0.0869  0.1618  0.0037
36348W        W79364  13.369  33.285  21.288 -0.1819  0.0090 -0.1987
36349W        W79365  17.468  16.769   2.066  0.0124 -0.1460  0.1565
36350W        W79366   9.767  33.419  22.824 -0.2138 -0.1442  0.1132
36351W        W79367  26.681  20.330  15.147  0.2319 -0.0701  0.2783
36352W        W79368   4.312  33.062  20.811  0.1590 -0.0304 -0.1230
36353W        W79369  15.176  12.517  20.293  0.0994 -0.1090  0.0380
36354W        W79370  19.279  29.777  19.488  0.0486  0.3852  0.1705
36355W        W79371   9.888   6.996  19.930 -0.1406 -0.0136  0.1989
36356W        W79372  16.132   2.898  13.867  0.0507 -0.2331 -0.0729
36357W        W79373  17.137  25.068  19.797  0.1711  0.1459  0.0389
36358W        W79374   2.213   0.990   5.035 -0.0027  0.1858  0.1855
36359W        W79375   1.290  10.596  21.476 -0.0364 -0.0317 -0.1596
36360W        W79376  13.772  32.717  28.340  0.1941  0.1284  0.1971
36361W        W79377  13.571  22.492  13.030 -0.1430 -0.0341 -0.3328
36362W        W79378   5.455  20.774  29.225 -0.2188  0.1407  0.0526
36363W        W79379  25.246  13.543  20.027 -0.0212  0.2462 -0.1199
36364W        W79380  15.879   6.534  19.575 -0.1066 -0.3580  0.0743
36365W        W79381   1.236  23.343  24.743  0.0901 -0.0199 -0.1151
36366W        W79382  27.852   4.168   9.321  0.0096 -0.1022 -0.2400
36367W        W79383   7.830  31.862  19.017 -0.2650  0.0946 -0.1554
36368W        W79384  29.592  15.541  25.829 -0.3763 -0.0386  0.3075
36369W        W79385  16.145  27.416  20.263 -0.2749  0.3362  0.1514
36370W        W79386  16.844  25.028  19.042 -0.2225  0.1352 -0.2177
36371W        W79387  12.750  23.888  16.893  0.3150  0.1133  0.0477
36372W        W79388   4.258   9.589  27.740 -0.0185  0.2450  0.2501
36373W        W79389  26.257  30.258   1.295 -0.1297  0.3042 -0.1632
36374W        W79390   4.163  22.475  20.294  0.0429 -0.1725  0.3009
36375W        W79391  12.505  23.463  25.611 -0.0232 -0.4979 -0.2642
36376W        W79392  15.857   3.329   2.818  0.1633  0.1464  0.0576
36377W        W79393  15.855   7.512   8.883  0.3000 -0.2631  0.1076
36378W        W79394  26.119   2.196   9.823 -0.0898  0.3183 -0.2419
36379W        W79395  17.276  20.796  14.616  0.1587 -0.1773  0.0039
36380W        W79396  18.591  33.909  20.047  0.0576 -0.0568 -0.1780
36381W        W79397  11.434   0.447  17.562 -0.1435 -0.5120  0.2927
36382W        W79398  11.621   4.195  26.083  0.1661 -0.1484 -0.0318
36383W        W79399  17.222  33.814  17.002  0.0469 -0.0471  0.4008
36384W        W79400   5.573  21.794  26.401 -0.1674 -0.1539 -0.2053
36385W        W79401   5.652  18.897  22.245  0.0612 -0.1109  0.0629
36386W        W79402   3.563   5.922   1.259  0.3185  0.0879 -0.3031
36387W        W79403  11.452   2.587  18.903  0.7119  0.0277  0.0645
36388W        W79404  14.196   0.877  24.705 -0.1249  0.0572 -0.1430
36389W        W79405  34.415   8.925  28.497 -0.0536  0.0127  0.3510
36390W        W79406  33.929  29.003  24.319 -0.1679 -0.0538 -0.3685
36391W        W79407  23.285   4.775  18.998  0.3486 -0.1248 -0.0335
36392W        W79408  13.761   8.085  20.423  0.1017 -0.0861  0.0764
36393W        W79409  22.999   8.764   2.663 -0.0734 -0.1887 -0.0712
36394W        W79410   3.823  31.821   6.985 -0.0328 -0.0538  0.4102
36395W        W79411  17.934  23.870  26.391 -0.0046 -0.1858  0.4333
36396W        W79412  31.043  34.199   1.085  0.3305 -0.2594 -0.1554
36397W        W79413  11.240   3.936  20.938 -0.0039 -0.0813 -0.1390
36398W        W79414  30.802  11.882  20.404 -0.0797 -0.0088  0.2945
36399W        W79415   4.024   2.610  28.808  0.4817 -0.3094  0.3836
36400W        W79416  30.764  14.058  25.234  0.0856 -0.0230  0.0507
36401W        W79417  27.437  17.247  20.263 -0.0663  0.0371 -0.2791
36402W        W79418   6.250   5.722  14.749  0.2276  0.0380 -0.0674
36403W        W79419  12.445  17.418  17.391  0.1946  0.3259  0.1710
36404W        W79420  11.690  30.328  21.165 -0.2405 -0.1575 -0.2007
36405W        W79421   4.739  25.281  17.855 -0.0314  0.1396  0.3173
36406W        W79422  10.270  32.219  15.715  0.0390 -0.1758  0.3350
36407W        W79423  17.763   4.725  28.437 -0.0675 -0.1201  0.2523
36408W        W79424  19.221   5.112  20.632  0.1950 -0.1935  0.2441
36409W        W79425   9.448  16.836  13.398 -0.1210  0.1217  0.2155
36410W        W79426  15.631  33.992  15.695 -0.3108 -0.0931 -0.1245
36411W        W79427  31.302   6.386  18.888 -0.0258  0.0592 -0.2333
36412W        W79428   3.084  33.994   3.406  0.0186 -0.1902 -0.1156
36413W        W79429  10.679  31.656  19.659  0.0899  0.0800  0.3263
36414W        W79430  31.185  32.131   5.128  0.0577 -0.2945 -0.1190
36415W        W79431   0.631   3.540   0.709  0.1383  0.5449 -0.0829
36416W        W79432  20.868   3.229  24.193  0.0606  0.0763  0.2321
36417W        W79433  17.625  34.036  15.121  0.2509 -0.1380 -0.2213
36418W        W79434  16.230  26.653  22.536 -0.0938  0.1855  0.1968
36419W        W79435  28.905   9.636  20.420 -0.1049  0.0259 -0.0507
36420W        W79436  27.638  28.672   2.969  0.1957 -0.1020  0.1844
36421W        W79437   2.220  23.650  14.421 -0.0287  0.3795  0.2239
36422W        W79438  30.441  30.635  17.478  0.1796 -0.1074  0.0757
36423W        W79439  11.895   7.429  15.957  0.1527  0.1484 -0.3203
36424W        W79440  32.480  12.966  24.209 -0.0928  0.0294  0.0790
36425W        W79441   6.908  10.010  19.314  0.1454  0.2831 -0.1537
36426W        W79442  18.944  25.366  13.718 -0.5814 -0.1759 -0.1997
36427W        W79443  10.321   2.221  17.504 -0.1459 -0.0142  0.2622
36428W        W79444   5.326   5.647  19.122 -0.1019 -0.0529 -0.2417
36429W        W79445   4.871  29.347  23.792  0.0946 -0.1142  0.0612
36430W        W79446  11.770   5.572  16.195 -0.0236  0.0533 -0.2116
36431W        W79447  15.751  17.797  15.550 -0.1475 -0.1975  0.0753
36432W        W79448  16.165  14.376  20.329  0.0070  0.0755  0.0209
36433W        W79449  10.460   4.979  19.445  0.2293  0.0900  0.0444
36434W        W79450   4.844  29.728   1.215 -0.1040 -0.0393 -0.1985
36435W        W79451  15.172   5.909   2.288 -0.1953  0.0617 -0.2595
36436W        W79452   5.217  34.749  18.536 -0.2844  0.0808 -0.0738
36437W        W79453  14.025   5.435  27.226  0.0516 -0.1021  0.0486
36438W        W79454  21.545  21.445  16.033 -0.1951  0.3930  0.1767
36439W        W79455  15.321   4.183  16.945 -0.0412  0.0293  0.0171
36440W        W79456   6.051  26.072  14.911 -0.0237 -0.2261 -0.2087
36441W        W79457   3.805   4.266  15.554  0.1454  0.0590  0.0206
36442W        W79458  28.858   1.243  26.786 -0.3233 -0.0584 -0.3606
36443W        W79459   7.302   8.046  23.129  0.4127 -0.0167 -0.1633
36444W        W79460   6.903  30.193  16.524  0.0890  0.0457 -0.2797
36445W        W79461  32.190  30.487  17.030  0.1679 -0.1439  0.1228
36446W        W79462  20.466  34.470  26.100  0.0315 -0.1702 -0.1055
36447W        W79463   8.145  17.484  22.839 -0.0145 -0.0405 -0.0605
36448W        W79464  29.098  27.523  17.775 -0.4298  0.0223 -0.5951
36449W        W79465   6.450  17.123   2.958 -0.2202  0.4423  0.1986
36450W        W79466  34.734  14.226  18.020 -0.1678 -0.1324  0.0235
36451W        W79467   3.618  24.270  26.217  0.0079 -0.1228 -0.0122
36452W        W79468  15.997  13.954  12.332  0.0102 -0.0468 -0.1312
36453W        W79469  28.634  16.075  26.557 -0.2726  0.1554 -0.4056
36454W        W79470  16.023   0.806  15.568  0.1791 -0.0439 -0.1546
36455W        W79471   5.369  23.169   6.850  0.2449  0.2181 -0.0991
36456W        W79472  11.613   4.568  16.631 -0.2830  0.0075 -0.0907
36457W        W79473  11.196   4.679   0.126 -0.1438 -0.3392  0.1443
36458W        W79474  11.933  30.713  24.711  0.0128 -0.1569  0.4135
36459W        W79475  21.753  22.879  18.115 -0.0595 -0.1810  0.0700
36460W        W79476  20.100  16.106   8.725  0.0751  0.1767 -0.3217
36461W        W79477   9.323  30.695   2.411 -0.0314  0.3811  0.1974
36462W        W79478  34.592  24.321   1.734  0.1408 -0.0141 -0.0695
36463W        W79479  34.554  10.749  16.743  0.1211 -0.1180  0.1763
36464W        W79480  33.895  16.255   1.181 -0.0553 -0.0262  0.1038
36465W        W79481   5.238  14.408  19.040  0.1776 -0.0085  0.0088
36466W        W79482   7.745  30.222  22.987  0.1161 -0.1304  0.1148
36467W        W79483  14.202  25.300  18.018 -0.0460 -0.3897  0.2561
36468W        W79484   9.473   3.981  16.486  0.0784  0.1236  0.0919
36469W        W79485  32.517   3.660   6.486  0.2194 -0.0551 -0.0516
36470W        W79486  32.372   4.120  27.343  0.0300 -0.0646  0.0632
36471W        W79487  16.541   2.563  25.700 -0.0559 -0.0440  0.2494
36472W        W79488   9.963  28.730  22.791  0.1775 -0.0079  0.0360
36473W        W79489  11.506  26.374   0.939  0.0238  0.0012 -0.1301
36474W        W79490  15.793   0.242  25.430 -0.4035  0.0093  0.0568
36475W        W79491   5.037   8.503  14.793  0.3537  0.3615 -0.1729
36476W        W79492  24.881  33.320  21.906  0.2241  0.1069 -0.1459
36477W        W79493   1.524  29.949  25.311  0.0185 -0.2085  0.1075
36478W        W79494  11.998  31.454  17.151 -0.0983  0.0128  0.3381
36479W        W79495   8.228  25.178  13.165  0.1512 -0.1040 -0.0232
36480W        W79496  15.625  11.065  13.190  0.0395  0.1404  0.2732
36481W        W79497   4.882   6.502  15.321 -0.2944  0.0125  0.1795
36482W        W79498  10.895  28.191  16.265  0.0399 -0.1398  0.0196
36483W        W79499   4.409  10.015  17.916  0.0338  0.1189 -0.0592
36484W        W79500   2.952   3.743  15.020  0.0444  0.0343  0.0660
36485W        W79501  13.041  11.015  16.779  0.1669  0.1110  0.0042
36486W        W79502  30.799  21.065  26.500 -0.0670 -0.3864  0.2266
36487W        W79503  23.752  27.883  21.533  0.1508 -0.0460 -0.1054
36488W        W79504  14.496  17.977   8.646 -0.0221  0.1007 -0.0290
36489W        W79505  11.638   3.456   1.113 -0.3593 -0.1734  0.0544
36490W        W79506  17.526  18.139  23.940 -0.0375  0.0784 -0.2539
36491W        W79507  16.273  10.507  22.272 -0.2972  0.0787  0.0354
36492W        W79508  10.414  10.636  19.113  0.0923 -0.0466 -0.2599
36493W        W79509  21.772   8.454  17.944 -0.1154  0.1216 -0.1555
36494W        W79510   1.878  24.913  16.872 -0.0595  0.0996  0.0491
36495W        W79511  26.535   4.853  16.189  0.0366  0.1007  0.2670
36496W        W79512  12.895  24.628  24.587 -0.1178 -0.2404  0.1095
36497W        W79513   1.994  33.474  21.921 -0.0075  0.0542  0.1915
36498W        W79514   2.535  15.979  14.905 -0.4379  0.1465  0.0385
36499W        W79515  29.454   2.659  19.232 -0.0657  0.0248  0.1357
36500W        W79516  24.164  22.838  10.877  0.3009 -0.0849 -0.0115
36501W        W79517  25.640   3.380  21.832 -0.0858  0.1827 -0.0306
36502W        W79518  27.631   3.115  25.731 -0.0193 -0.1041  0.0219
36503W        W79519  13.024  26.226  16.434  0.3168  0.3999 -0.0904
36504W        W79520  32.634  34.325  23.658  0.2610 -0.1278  0.0078
36505W        W79521  34.675  33.646   5.792  0.0892  0.0073  0.0186
36506W        W79522   0.387  16.577   3.856 -0.2175 -0.0391  0.0220
36507W        W79523   1.157  30.663  16.718  0.0158  0.1729 -0.2925
36508W        W79524  13.504   7.230  16.861  0.1414  0.0289 -0.1457
36509W        W79525   2.984   5.270  20.409 -0.0432  0.0273  0.1081
36510W        W79526  10.195   0.171   4.074  0.2205 -0.0010 -0.2052
36511W        W79527   3.885   1.235  17.577  0.0798 -0.1629  0.1089
36512W        W79528  23.686   2.888  23.184  0.1251 -0.3295  0.4123
36513W        W79529  14.902   4.643  17.313  0.1779  0.0411 -0.0786
36514W        W79530   4.423  32.628  17.796 -0.4569 -0.0797 -0.1937
36515W        W79531   0.808   1.749  19.355  0.1442 -0.1989 -0.0327
36516W        W79532   5.829  17.071  20.669  0.1079 -0.0907  0.3660
36517W        W79533   2.475   5.176  20.687  0.1142 -0.1198  0.3874
36518W        W79534  25.172  10.982  17.823 -0.1755  0.1466 -0.1867
36519W        W79535   8.136  26.682  24.541 -0.3857  0.0963 -0.1543
36520W        W79536   5.784  17.407  27.871 -0.1254  0.0489 -0.1443
36521W        W79537   9.691  32.427  18.964  0.5198  0.1692  0.0470
36522W        W79538  12.252  29.460   5.079 -0.1986 -0.1471 -0.1324
36523W        W79539  19.247   1.609  20.867 -0.1679 -0.1038 -0.1611
36524W        W79540   2.914  23.142  17.522 -0.0342 -0.1126 -0.1190
36525W        W79541  33.257  22.679  21.073  0.1392  0.1330 -0.0870
36526W        W79542  28.564   1.952   7.103 -0.2598  0.0936  0.0721
36527W        W79543   2.970  15.237  10.407 -0.0025  0.0197 -0.1383
36528W        W79544   5.566  26.370   9.656  0.0091 -0.0528 -0.0698
36529W        W79545  11.384  11.232  22.695  0.0489  0.1160 -0.3942
36530W        W79546   1.345  32.229  23.124 -0.2227 -0.0563 -0.2037
36531W        W79547  27.832  10.244  26.770 -0.2229 -0.1394 -0.0316
36532W        W79548   7.039  28.583  13.894  0.0090  0.0487  0.0200
36533W        W79549  28.747   4.465  18.172 -0.1165 -0.1503 -0.0224
36534W        W79550  29.749  20.664   6.341  0.1181 -0.3450  0.0607
36535W        W79551  10.763  30.465   2.761 -0.0352 -0.1340 -0.1962
36536W        W79552   3.875  16.198   1.162  0.0326 -0.3154  0.0160
36537W        W79553   4.556  22.691  16.403  0.2142 -0.0751  0.1906
36538W        W79554  26.313   3.623  25.721  0.0336 -0.0379 -0.2172
36539W        W79555  19.575   1.133   0.745 -0.2282 -0.2522  0.0626
36540W        W79556   4.840  31.751  26.318  0.1450 -0.0698 -0.1130
36541W        W79557  31.812  28.007  28.703  0.0747 -0.4871  0.2917
36542W        W79558   9.771  26.999  16.640  0.0070 -0.1143  0.0872
36543W        W79559   3.097   4.986  25.175  0.1245  0.4172  0.1937
36544W        W79560  10.586   1.195  24.739  0.2601 -0.1249  0.0751
36545W        W79561  11.981  18.502  15.207 -0.1769  0.0083  0.2020
36546W        W79562   4.751  33.578  16.695 -0.2729  0.1957  0.2660
36547W        W79563   0.013  25.175  19.006  0.0222 -0.0336 -0.1064
36548W        W79564  30.909   1.395  18.373 -0.0638  0.2450  0.3124
36549W        W79565  31.311  29.210   3.828 -0.2503 -0.0902  0.1494
36550W        W79566  25.978  30.876   4.046 -0.2316  0.3549 -0.1118
36551W        W79567  31.274  21.565  27.045 -0.1840 -0.1589  0.0085
36552W        W79568  33.146  11.296  10.659 -0.2005 -0.0163 -0.0572
36553W        W79569  34.311   1.812  25.970  0.0469  0.2985  0.1646
36554W        W79570  14.064  10.336  21.811  0.0733 -0.3048  0.1602
36555W        W79571   7.448   6.407  20.978  0.1829 -0.3452 -0.0628
36556W        W79572   7.734   2.769  28.975 -0.2214 -0.1468 -0.0384
36557W        W79573  30.268  28.304   0.043 -0.0719  0.0160  0.0929
36558W        W79574   6.345  15.071  15.734 -0.0803 -0.1950 -0.1397
36559W        W79575   6.779   6.828  16.464  0.1591  0.2585  0.0298
36560W        W79576   0.925   1.809  20.987 -0.1722  0.1106  0.2841
36561W        W79577  19.167   2.219  19.157  0.1154  0.4027  0.2525
36562W        W79578  16.224  26.427  15.178  0.0737  0.1460 -0.1590
36563W        W79579   3.679  10.363  27.518  0.2588  0.4584 -0.2194
36564W        W79580  12.841  28.897  22.568  0.0581  0.2406 -0.0049
36565W        W79581   3.941  18.038   5.890  0.3487  0.0621  0.1376
36566W        W79582  15.774  13.190   0.612 -0.0587  0.0471 -0.1044
36567W        W79583   9.829  14.235  17.528  0.0957  0.2563  0.1254
36568W        W79584  21.731   1.086   2.634  0.1107 -0.5233 -0.5582
36569W        W79585   8.890   2.853  15.204  0.0174  0.0439  0.0448
36570W        W79586   4.954   6.398  26.856  0.0109 -0.0449  0.2417
36571W        W79587   1.564  31.975   1.152  0.1324  0.0469  0.2712
36572W        W79588  15.893   5.984  19.231 -0.0134  0.4004 -0.0999
36573W        W79589  10.824   3.183   2.687 -0.0952  0.1633 -0.0774
36574W        W79590   7.175   5.791  14.674 -0.0298 -0.0757  0.1940
36575W        W79591   4.155   4.943  20.830  0.2477  0.0370 -0.1078
36576W        W79592   6.108  30.217   1.793 -0.0300  0.0769 -0.2338
36577W        W79593  19.795   2.285  17.403  0.1136  0.0347 -0.0843
36578W        W79594  11.476   2.871  19.607 -0.0135 -0.0156 -0.0910
36579W        W79595  32.096  31.233  24.803 -0.2528 -0.0264  0.1901
36580W        W79596  28.314  34.637  25.196  0.0120  0.3134  0.2818
36581W        W79597  26.960  11.295   9.821  0.1232 -0.1440  0.3350
36582W        W79598  31.480   2.255  16.138  0.2822  0.1595  0.1064
36583W        W79599  28.751   2.820   8.055 -0.2321 -0.0114  0.0733
36584W        W79600  20.998  10.006   5.218 -0.0804 -0.1518  0.3811
36585W        W79601   5.416   7.326   3.747 -0.0536  0.1612 -0.2716
36586W        W79602   2.737  11.488  24.394  0.3726  0.3192 -0.0273
36587W        W79603  10.544  28.545  16.206  0.1162  0.0877  0.1081
36588W        W79604  19.956   4.472   8.165  0.2975  0.0226 -0.4597
36589W        W79605  14.495  27.706  21.018 -0.1303  0.2841 -0.0782
36590W        W79606  27.757  30.598  19.868  0.0335  0.0263 -0.1000
36591W        W79607   1.163   9.183  25.260  0.2721 -0.0484 -0.0819
36592W        W79608  29.227   4.331   4.445 -0.0524 -0.1624 -0.1514
36593W        W79609  17.045  18.783  27.178  0.1849  0.0132 -0.0966
36594W        W79610   3.865  25.736  25.597 -0.2631  0.0406 -0.0685
36595W        W79611  23.037  32.122  24.910  0.1502  0.0738 -0.2228
36596W        W79612   0.943   8.259   1.646 -0.0718 -0.0074 -0.0623
36597W        W79613  34.230   6.686  16.769  0.0535  0.1189  0.2714
36598W        W79614   3.062  24.160  18.069  0.1196  0.0452  0.4394
36599W        W79615  30.404  23.144  24.639 -0.4792 -0.2048 -0.1164
36600W        W79616  13.556  29.937  22.133 -0.0116 -0.0332  0.3474
36601W        W79617  31.985   0.250  16.519  0.2325  0.2992  0.0813
36602W        W79618   0.862   3.614  14.085  0.0606  0.1065 -0.1436
36603W        W79619  12.942   0.644  17.656  0.2275 -0.4602  0.3285
36604W        W79620   9.453   7.497  14.878  0.4063  0.0362  0.0486
36605W        W79621  11.827   1.064  15.402  0.3176 -0.1740 -0.0227
36606W        W79622   7.076   3.315   5.250  0.0431  0.2682  0.1045
36607W        W79623  12.204  20.794  16.509  0.2189  0.1085  0.1570
36608W        W79624   5.320   4.489  19.214 -0.3192 -0.2353 -0.2640
36609W        W79625  32.881  25.899  23.522 -0.2152 -0.0624 -0.2015
36610W        W79626   0.189  26.430  20.023 -0.0503  0.0886  0.0267
36611W        W79627  31.503   0.796   3.865  0.0678  0.1008  0.1766
36612W        W79628  11.352  23.266  18.959  0.0461  0.2314  0.0465
36613W        W79629  25.874  12.812  21.058 -0.1518  0.3061 -0.0361
36614W        W79630  10.152  10.715  22.338  0.4424  0.1679 -0.1562
36615W        W79631   9.795   3.243  20.628 -0.1328 -0.0664  0.0678
36616W        W79632  23.276   0.442  24.683 -0.0479 -0.1641 -0.5608
36617W        W79633   5.136   1.565  19.885  0.4895 -0.0889  0.1018
36618W        W79634  12.803  12.652  23.484  0.2386  0.1216 -0.3357
36619W        W79635   4.798  22.540  24.469  0.1646  0.2593 -0.0279
36620W        W79636  34.025   2.508  26.118  0.3414  0.0654 -0.2236
36621W        W79637   0.521  19.221  23.483  0.1096  0.0232 -0.0232
36622W        W79638  14.593  33.158  14.997 -0.1970  0.4135 -0.0920
36623W        W79639  26.471   2.328   0.974  0.2566  0.0140 -0.0261
36624W        W79640   8.300   6.583  22.106 -0.1171 -0.0729  0.0940
36625W        W79641  14.143  32.906  25.259  0.2785  0.0707 -0.1809
36626W        W79642   0.078   4.419  15.255 -0.2933  0.0944 -0.2033
36627W        W79643   1.690  27.966  22.266 -0.1967  0.1996  0.1589
36628W        W79644   9.885  12.603  23.742 -0.1355  0.0227  0.0021
36629W        W79645  22.215  26.012   5.244  0.0901  0.2226 -0.1537
36630W        W79646  16.239   4.300  21.131 -0.0420  0.2696 -0.3125
36631W        W79647   2.039   2.065  19.200 -0.3151  0.0352  0.1128
36632W        W79648  33.798  10.814  20.672 -0.2895 -0.2657  0.0421
36633W        W79649   8.107  12.655  14.735  0.3105 -0.1144 -0.4069
36634W        W79650   9.829  34.473  24.999  0.1945  0.2144 -0.0392
36635W        W79651  30.386  13.006  26.888 -0.1956 -0.2377 -0.2911
36636W        W79652   4.831  31.493  17.447  0.0668  0.0737 -0.0683
36637W        W79653  10.166   2.892  24.313 -0.0520  0.0298  0.1163
36638W        W79654   1.888   6.097  27.294  0.0346  0.0245  0.1137
36639W        W79655   1.028   4.362  22.323  0.0532 -0.0486  0.2246
36640W        W79656   9.096  17.402  19.953 -0.3899 -0.0038 -0.1502
36641W        W79657  21.699   0.965  23.980  0.0781 -0.1890  0.3402
36642W        W79658   6.170   3.671   9.796 -0.2511  0.0224 -0.1168
36643W        W79659   5.420   3.334  14.633  0.0389  0.0785  0.3830
36644W        W79660   3.821  28.751  21.783  0.0348 -0.4290 -0.0432
36645W        W79661   2.174   0.931  24.614  0.3323 -0.0071  0.2179
36646W        W79662  27.262   6.898  18.492 -0.2977  0.0007 -0.3061
36647W        W79663  34.632   3.833  24.580  0.3708 -0.2204 -0.3080
36648W        W79664   1.420  20.170  14.314  0.3123 -0.2838  0.0085
36649W        W79665   9.469  32.051  24.271 -0.1723 -0.1570  0.3795
36650W        W79666   5.556  30.624  16.859 -0.1545 -0.2936 -0.0063
36651W        W79667  13.577  32.446  23.525 -0.1227 -0.1074  0.0715
36652W        W79668   5.449  24.373  23.498 -0.0113  0.0642  0.3029
36653W        W79669  10.877  17.555  25.343  0.1005 -0.0756  0.4179
36654W        W79670   3.586  17.136  16.931  0.1581 -0.0251 -0.3513
36655W        W79671  13.384  27.061  19.449 -0.0843  0.1785  0.0268
36656W        W79672  28.560  25.412  20.022  0.4194  0.1910 -0.1534
36657W        W79673  18.538  18.528  28.046 -0.1535 -0.2567  0.1631
36658W        W79674   9.010   2.578  18.365  0.0000  0.2659 -0.2038
36659W        W79675   2.232  28.210  18.254  0.0855 -0.0867 -0.0665
36660W        W79676  13.150   7.943  19.366 -0.0529 -0.0044  0.1042
36661W        W79677   8.771  11.674  23.243 -0.3474  0.1469  0.0565
36662W        W79678   1.969  32.303  18.797  0.0358  0.1178 -0.2749
36663W        W79679   8.316   6.094  24.404 -0.0869 -0.2061 -0.1647
36664W        W79680  23.304  25.606   3.134 -0.1944  0.0445 -0.2052
36665W        W79681  20.395  17.049  26.844 -0.3192 -0.2018 -0.1915
36666W        W79682  17.596  27.546  14.665 -0.1234 -0.1441 -0.2004
36667W        W79683  11.630  12.249   2.053  0.0277  0.2130  0.0538
36668W        W79684   7.001  17.414  14.823 -0.0021 -0.2002 -0.1937
36669W        W79685  10.340  20.703  17.577 -0.0425  0.1348 -0.0317
36670W        W79686   7.527   9.193  25.863 -0.0237 -0.3582  0.1180
36671W        W79687  10.669  18.171  23.509  0.0520 -0.0704  0.6445
36672W        W79688  29.533   8.704  21.302 -0.1111 -0.0175 -0.0986
36673W        W79689   9.194  29.268  19.122  0.1076  0.0372 -0.0619
36674W        W79690  26.459   4.101  19.150  0.4961  0.4209 -0.1178
36675W        W79691  29.538  11.467  20.332 -0.0812  0.0258 -0.1579
36676W        W79692   4.770  24.158  19.228  0.1385 -0.1590  0.3923
36677W        W79693   1.139  10.123  21.275 -0.0180 -0.0853 -0.2198
36678W        W79694  14.707   6.492  23.935  0.2876 -0.2473  0.1003
36679W        W79695  33.840  29.940  10.673  0.1188  0.0536 -0.0650
36680W        W79696  20.872  29.364  18.919  0.1869 -0.3059 -0.1535
36681W        W79697  16.797   2.137  14.495 -0.0082 -0.0800  0.1492
36682W        W79698   5.720  10.290  14.031  0.1444 -0.0654  0.2235
36683W        W79699  33.078  29.385  16.356 -0.3736 -0.2520  0.2113
36684W        W79700  21.789  34.061  28.923  0.2198 -0.1257 -0.1735
36685W        W79701  11.764  29.736  26.043  0.0599  0.0050 -0.2255
36686W        W79702   7.199  13.436  23.181 -0.4214  0.1594  0.3964
36687W        W79703   2.623  16.901  18.675  0.0205  0.0306 -0.0553
36688W        W79704  28.738   1.281   0.348  0.2951  0.0770 -0.0309
36689W        W79705  28.719  11.902  22.146  0.1065 -0.0569 -0.0782
36690W        W79706  18.852  23.385  20.401 -0.2822  0.0447  0.0268
36691W        W79707  26.027   0.622  24.779  0.4555 -0.1202  0.2506
36692W        W79708  12.754  30.964   5.442  0.0568 -0.1618 -0.0673
36693W        W79709  29.854  33.942  24.276 -0.0807  0.2405 -0.1347
36694W        W79710  27.507   8.949  21.269  0.3236 -0.1122 -0.2811
36695W        W79711   9.603  19.278  23.900  0.2247  0.0961  0.0592
36696W        W79712   6.373  22.137  21.074 -0.0924  0.2467 -0.0630
36697W        W79713   6.217  33.427   9.725 -0.0475 -0.0564 -0.1709
36698W        W79714  11.042  24.540  25.790  0.1671  0.0367  0.3577
36699W        W79715   6.186  14.690  27.608 -0.0046 -0.1051 -0.2617
36700W        W79716  34.109   0.227  16.952 -0.0226  0.3041 -0.1032
36701W        W79717  18.573  18.907  29.046  0.0588  0.2080 -0.0650
36702W        W79718   9.512   6.640  14.617 -0.1196  0.3992  0.0102
36703W        W79719  22.758  22.392   0.143  0.2518  0.3543  0.0930
36704W        W79720  15.370  32.462  24.287 -0.0742  0.2743  0.1248
36705W        W79721   6.340  28.650  23.127 -0.1102  0.1109 -0.3295
36706W        W79722   1.871   3.571  17.227  0.1654 -0.1875  0.0344
36707W        W79723  11.289  22.059  28.584 -0.1626 -0.1181  0.1517
36708W        W79724   3.857  24.567  25.881  0.5555  0.0294  0.3880
36709W        W79725  11.339  11.555  17.758 -0.1032 -0.2005 -0.5857
36710W        W79726  14.383   3.779  23.637 -0.0122  0.1526  0.1286
36711W        W79727   5.204   4.572  24.402 -0.2213  0.0585 -0.3658
36712W        W79728   8.498  15.154   2.029  0.1305  0.0878  0.4120
36713W        W79729  15.112  24.696  25.773 -0.0013 -0.1536  0.3736
36714W        W79730  12.420   3.155   0.935 -0.0630 -0.1795 -0.0513
36715W        W79731  33.740  14.269   3.095  0.0033  0.1311 -0.0326
36716W        W79732  14.992  21.465  28.097  0.0117  0.2393 -0.0556
36717W        W79733  12.714  11.144  15.515  0.0579 -0.0375  0.0805
36718W        W79734  19.341  10.022  19.344 -0.1345  0.0628 -0.2809
36719W        W79735  28.666  10.643  27.729 -0.0261  0.0898 -0.0243
36720W        W79736  27.207   5.212   6.048  0.0678 -0.2138 -0.3723
36721W        W79737  16.318  19.781  27.058  0.2269  0.2850  0.0800
36722W        W79738  11.665  10.135  27.985  0.2275 -0.5548 -0.1203
36723W        W79739   3.506  12.140   9.033  0.0994  0.2272 -0.1582
36724W        W79740  25.196  30.955   3.817 -0.2523  0.1771  0.0857
36725W        W79741   4.170  16.861   0.221 -0.4185  0.0384  0.2056
36726W        W79742  33.386  30.937  25.272  0.1942  0.0280 -0.3634
36727W        W79743  14.508  11.333  14.624  0.0920  0.1652  0.0140
36728W        W79744  11.278  28.027   5.852  0.2927 -0.2213  0.1468
36729W        W79745  14.611   6.391  19.193  0.0581 -0.0337 -0.1747
36730W        W79746  10.626  13.888  13.884  0.1857 -0.1410 -0.2176
36731W        W79747  30.939  27.283  26.977  0.3633  0.0600 -0.0719
36732W        W79748   5.283   8.649  27.041 -0.0120  0.3631  0.3329
36733W        W79749   6.452  22.862  29.175 -0.2130  0.1679  0.1835
36734W        W79750   3.469  31.903  19.124  0.1086 -0.0424  0.4042
36735W        W79751   7.470   7.241  29.007  0.0195  0.0959 -0.0429
36736W        W79752  11.295   0.743  27.968 -0.3281 -0.0780  0.1398
36737W        W79753   8.523   5.736  22.895  0.1009  0.1810  0.1907
36738W        W79754  19.740   4.637  15.254  0.1469  0.3341 -0.1219
36739W        W79755   9.015   5.928  23.719  0.0329  0.1184 -0.1620
36740W        W79756  31.735   4.916  16.606 -0.2846  0.0688 -0.0899
36741W        W79757  34.096  24.710  26.215  0.1102  0.0971  0.0307
36742W        W79758   8.587  31.570   9.706  0.0566 -0.0151 -0.5397
36743W        W79759  12.930  20.555  12.641  0.1263 -0.0827  0.0509
36744W        W79760  32.778  30.151   1.061 -0.0821 -0.0867 -0.1952
36745W        W79761   2.996  29.765  28.778  0.1645 -0.3377 -0.2694
36746W        W79762   1.390  32.502  14.886  0.3245  0.2483 -0.0369
36747W        W79763   9.305  13.172  17.998  0.0788 -0.0466 -0.2805
36748W        W79764  20.701   7.165  19.968 -0.0420  0.2427 -0.0897
36749W        W79765   6.370   0.001  23.687  0.0310  0.0055  0.2723
36750W        W79766  15.314  26.465   0.654  0.1931 -0.2565  0.0405
36751W        W79767  13.948  15.879  24.315 -0.1979 -0.0237 -0.1347
36752W        W79768   4.751  31.230  20.705  0.0059  0.2183 -0.1221
36753W        W79769  23.074  28.222   2.148  0.2768 -0.0405 -0.1603
36754W        W79770  12.682  10.332   4.839 -0.0391 -0.1128  0.1158
36755W        W79771  13.402  22.325  23.813 -0.2773 -0.1117  0.0370
36756W        W79772  31.739   7.729   1.341 -0.1411  0.0753  0.1236
36757W        W79773   9.471   7.599  21.521 -0.4502 -0.2492  0.2997
36758W        W79774  26.512  19.331  27.852 -0.0922  0.0933 -0.1535
36759W        W79775  32.775   9.179  22.195  0.1248  0.5471 -0.2540
36760W        W79776   4.654   6.594  14.436 -0.3378 -0.1006 -0.0794
36761W        W79777   2.798  11.539  26.115 -0.1820 -0.3908  0.1322
36762W        W79778  17.280  28.422   5.868  0.3091 -0.0851 -0.1961
36763W        W79779  21.864  31.464  21.638 -0.0925 -0.1494  0.3619
36764W        W79780  22.521  19.038  16.104  0.4155  0.3625 -0.0039
36765W        W79781  12.882   2.574  26.815 -0.0592  0.2514 -0.2156
36766W        W79782  33.358  33.966  22.331  0.0336  0.0912  0.1310
36767W        W79783  21.008  31.727  27.023 -0.0594  0.0664  0.0926
36768W        W79784   5.073   5.144  25.602  0.1918  0.1698 -0.0558
36769W        W79785   2.766  29.853   0.244  0.2159  0.0301  0.0978
36770W        W79786  12.983   1.890  21.366  0.1466  0.1500  0.0531
36771W        W79787   6.813  22.280   2.536 -0.1307  0.1466  0.3160
36772W        W79788  12.730   0.215  21.706  0.1668  0.0306  0.0401
36773W        W79789   8.974  15.277  12.967  0.0025  0.1769 -0.1817
36774W        W79790  22.896   9.732  23.869 -0.1972  0.0402  0.2095
36775W        W79791   5.313   4.765   7.916  0.0426  0.1136  0.2760
36776W        W79792  14.979   9.927  26.397  0.2520  0.1732 -0.1545
36777W        W79793  33.923   8.646  15.382  0.0717  0.1036  0.0784
36778W        W79794  10.507  28.996  17.365  0.1293  0.0621  0.0409
36779W        W79795   6.133   8.014  25.515  0.1173 -0.1736 -0.0265
36780W        W79796  23.344  28.578  17.379  0.2457  0.1217  0.0131
36781W        W79797  17.299  11.930  21.914 -0.0018  0.1638 -0.0647
36782W        W79798   8.758  29.667  27.407 -0.1945  0.2058 -0.0081
36783W        W79799  11.328  30.000  25.037 -0.2310  0.0085  0.3084
36784W        W79800  16.513   1.016  24.774  0.2562 -0.2493 -0.2014
36785W        W79801  21.065  33.190  16.925 -0.1018 -0.1276  0.3444
36786W        W79802   5.732  34.697  15.863  0.1832  0.0174 -0.1561
36787W        W79803   3.114   5.680   1.063 -0.0288 -0.2914 -0.0664
36788W        W79804   5.603  33.781  21.170  0.2090  0.0030 -0.3541
36789W        W79805   9.920  26.233  15.637  0.1785 -0.3767 -0.0099
36790W        W79806   8.312   5.475   0.980 -0.0708  0.3734 -0.0864
36791W        W79807   3.156  31.697  21.618  0.1544 -0.0814 -0.3394
36792W        W79808  11.579  28.201  20.898 -0.0969  0.3554  0.1221
36793W        W79809  24.284  27.185  26.832  0.2913  0.0114 -0.0014
36794W        W79810   4.667  17.743  16.435 -0.0639  0.1428  0.1183
36795W        W79811  13.575   9.141  29.222 -0.0895  0.0042  0.1257
36796W        W79812  11.265  15.940  24.780  0.0719 -0.0372  0.1037
36797W        W79813  33.162  26.579  16.395  0.0443 -0.0125 -0.2478
36798W        W79814   6.944   2.059  19.611  0.0098 -0.1963  0.1620
36799W        W79815   0.893  31.075  25.979 -0.0028  0.1302  0.2205
36800W        W79816  22.032  26.388   4.230 -0.1357  0.2788 -0.0854
36801W        W79817  10.505  29.206  18.705  0.1598  0.0950  0.2364
36802W        W79818   8.757  27.819  28.592  0.1924  0.1481  0.0389
36803W        W79819  16.371   8.972  21.781 -0.4400 -0.0145  0.1952
36804W        W79820  30.897   1.216  15.049 -0.1013  0.0427 -0.1655
36805W        W79821   4.264  30.790  27.753  0.0208  0.0113  0.1384
36806W        W79822  10.210  32.128  17.565 -0.3108 -0.0474  0.2088
36807W        W79823  16.248   6.886  18.202  0.0241 -0.3425 -0.0701
36808W        W79824  15.999   5.147  20.571  0.0612  0.2708  0.0434
36809W        W79825  18.481  17.640  12.621 -0.2629 -0.1203  0.1494
36810W        W79826  21.352  10.777  29.176 -0.1199 -0.1805  0.0063
36811W        W79827  10.044  29.339  27.557  0.1429  0.2358  0.2593
36812W        W79828  13.286   4.559  14.798  0.0088 -0.2153 -0.1174
36813W        W79829  27.897  10.989  21.901  0.0437  0.1036 -0.1934
36814W        W79830  19.598   7.342   1.665  0.3107 -0.0430  0.0731
36815W        W79831  18.908  12.005  12.466  0.5332  0.0441  0.2182
36816W        W79832  33.506  11.121  18.052 -0.3032 -0.2049  0.1942
36817W        W79833  17.295   1.515  26.611  0.0473  0.3222  0.2819
36818W        W79834  15.459  13.758  27.241  0.2503  0.0740  0.2455
36819W        W79835   6.644  34.115  28.745 -0.0100  0.1845  0.0244
36820W        W79836  33.869  15.652  17.088 -0.0185 -0.1865  0.0097
36821W        W79837  26.908   4.693  21.578 -0.4783  0.1887 -0.0535
36822W        W79838  10.832  32.992   0.973 -0.0655 -0.1215  0.0057
36823W        W79839   4.640  18.256  25.547 -0.0423  0.1082  0.1535
36824W        W79840  22.030   4.192  16.200 -0.1746 -0.0277  0.2240
36825W        W79841   2.969  26.625  25.540  0.0666  0.0310 -0.1707
36826W        W79842   0.394  32.094  14.154  0.2700  0.3325  0.1509
36827W        W79843  11.595  11.435  21.236 -0.1560  0.0587  0.4338
36828W        W79844  25.060  29.587  20.036  0.0819  0.0623 -0.1745
36829W        W79845  12.836  29.408  26.652  0.0007  0.0905 -0.0525
36830W        W79846  16.417   4.767  28.061 -0.0824 -0.1117  0.0222
36831W        W79847   1.369   4.153  27.294 -0.0360 -0.2735 -0.0595
36832W        W79848   9.214  34.372  24.700 -0.2781  0.0251 -0.2993
36833W        W79849   3.221  28.637   0.031  0.1963  0.1321 -0.0936
36834W        W79850  33.202   2.512  23.877  0.0918  0.1882  0.0942
36835W        W79851   4.610   0.963  20.096  0.0346  0.0866 -0.0397
36836W        W79852  32.520  32.221  19.356  0.0217  0.3035  0.0542
36837W        W79853  10.205  10.885   1.823 -0.1976 -0.1436 -0.4615
36838W        W79854  25.382   6.400  18.196 -0.3122 -0.0077 -0.2866
36839W        W79855  13.523  32.593  20.573  0.1857 -0.2528 -0.1278
36840W        W79856  32.197   3.166  15.000 -0.0463 -0.3427 -0.0318
36841W        W79857   7.228   2.650  16.566 -0.1528 -0.1188  0.1036
36842W        W79858   7.892  23.155  13.146 -0.0461  0.0046  0.0226
36843W        W79859  17.840   8.723  14.481  0.1289 -0.0340  0.0058
36844W        W79860   3.631   2.924  15.143 -0.4337  0.2834 -0.0080
36845W        W79861  17.397  31.287  25.091 -0.0365 -0.1558  0.0983
36846W        W79862  34.600   1.570  14.669 -0.0006 -0.0754 -0.0573
36847W        W79863  15.559  19.462  24.432 -0.3570  0.1723  0.0461
36848W        W79864  17.384   7.257  16.681 -0.0691  0.1953  0.0335
36849W        W79865   3.578  24.830   2.210  0.2814 -0.1503  0.0529
36850W        W79866  14.176   2.495  14.586  0.0521 -0.1667 -0.2412
36851W        W79867  33.654   1.835  17.363  0.0750  0.1068  0.0951
36852W        W79868  10.498   9.684   5.115  0.0101 -0.3538 -0.2542
36853W        W79869  13.916   6.952  28.436  0.0978  0.2001 -0.3109
36854W        W79870   3.517   5.971  22.985  0.0622 -0.1867 -0.2356
36855W        W79871  17.191  26.099   0.487  0.1652 -0.3316  0.0625
36856W        W79872  10.672  28.362   5.222 -0.2448 -0.1109 -0.1096
36857W        W79873  10.404  28.956  22.926  0.0900 -0.1368  0.0778
36858W        W79874   2.446  32.051  18.450  0.3119  0.0894  0.3587
36859W        W79875  14.142   6.791  23.855  0.3485 -0.3470 -0.1716
36860W        W79876  21.179   6.785  23.138 -0.0603 -0.1400  0.2325
36861W        W79877  10.393  29.902  28.931  0.1456  0.1455  0.5138
36862W        W79878   7.745  29.009  21.514  0.2979  0.1660 -0.1378
36863W        W79879   3.443  17.682  19.984 -0.2204  0.2163 -0.0089
36864W        W79880   1.445  15.367   8.627  0.0655 -0.2036  0.0630
36865W        W79881   9.069   6.433   1.770  0.1948  0.0621 -0.1574
36866W        W79882   3.445   4.190  19.298  0.0584  0.0737 -0.0604
36867W        W79883  16.078  13.685  22.714  0.0431 -0.3415 -0.0840
36868W        W79884   4.698   6.554   8.244 -0.2475 -0.0028  0.3336
36869W        W79885  32.692  10.746   8.556 -0.1580  0.3653  0.3880
36870W        W79886  34.112   1.509   1.440  0.2522  0.1432  0.1626
36871W        W79887   1.280  14.599  22.955  0.1529 -0.0131  0.0389
36872W        W79888  16.845  33.880  16.677  0.1827  0.1979 -0.1043
36873W        W79889   5.387  30.135  16.251 -0.1335 -0.2628 -0.1391
36874W        W79890  13.586   6.651  20.125  0.1778 -0.0846  0.0484
36875W        W79891  13.560  13.558  16.569  0.2509  0.1276 -0.0906
36876W        W79892  14.563  34.077  17.646  0.1578 -0.1475  0.0215
36877W        W79893   7.480  31.272  26.644  0.0649  0.0616 -0.0205
36878W        W79894   0.221  29.295   2.538  0.1538  0.0080 -0.1270
36879W        W79895  20.644  29.025   5.949 -0.0023  0.2980 -0.2703
36880W        W79896  33.545  14.765  24.793  0.2842  0.0786  0.0224
36881W        W79897  10.689  34.763  25.575  0.1848  0.5135 -0.0895
36882W        W79898   8.981   4.799  24.212  0.0545 -0.0952 -0.3232
36883W        W79899  19.511   8.191  21.531 -0.1658  0.0200  0.3764
36884W        W79900   4.545  32.333  23.352  0.2813  0.3056 -0.3137
36885W        W79901  20.116  34.135  27.667  0.2172  0.1276 -0.3146
36886W        W79902   2.193  32.365   1.598  0.0856  0.2555 -0.1635
36887W        W79903  33.801  11.606  22.596 -0.3058  0.3427  0.0684
36888W        W79904  31.350   0.797  19.064  0.0237  0.2644  0.2021
36889W        W79905  26.819  21.362  29.154  0.2297 -0.2257 -0.0703
36890W        W79906   3.343  17.435   0.925 -0.1031  0.1889 -0.1618
36891W        W79907   7.217  14.728  22.203  0.0371  0.0541  0.0954
36892W        W79908   8.401  25.221   1.265 -0.2647  0.1586 -0.0504
36893W        W79909   6.793  27.484   7.580 -0.1063 -0.2247 -0.0357
36894W        W79910  27.322  11.146  15.136 -0.0171  0.1523  0.2249
36895W        W79911  20.085   7.976  23.346 -0.4470 -0.3383  0.1345
36896W        W79912  32.551  15.449  21.158  0.2667  0.0480 -0.0987
36897W        W79913  27.476  10.602  22.430 -0.0896 -0.3388 -0.1586
36898W        W79914  31.191  18.084  18.308 -0.3176  0.0451 -0.0775
36899W        W79915   1.657   8.136   2.963 -0.0839  0.0093  0.0132
36900W        W79916   9.767  31.945  22.212  0.0736 -0.0527  0.0055
36901W        W79917  27.833   6.082  27.231  0.2146  0.1498  0.2076
36902W        W79918  10.698  26.148  18.042 -0.0872 -0.2420 -0.3310
36903W        W79919  11.195  24.813  22.357  0.1981 -0.1012 -0.1038
36904W        W79920  25.913   2.832  11.284  0.1499  0.1522  0.1231
36905W        W79921   7.344   8.242  27.512  0.0367 -0.2306  0.1940
36906W        W79922  12.598  26.187  25.051  0.1659  0.3753 -0.2377
36907W        W79923  11.260  21.342  14.037  0.1429 -0.1251 -0.1838
36908W        W79924  10.162  31.890  27.502  0.4876 -0.1264  0.1285
36909W        W79925  19.570  12.641  21.042  0.0688  0.3260  0.2563
36910W        W79926   7.834  15.389  27.912  0.2341  0.0811  0.0136
36911W        W79927   3.725  28.472  29.183 -0.1144  0.0431 -0.2024
36912W        W79928  11.905  29.690  24.303  0.1632  0.1544 -0.0147
36913W        W79929   1.288   9.782   9.769 -0.0250  0.0121  0.3518
36914W        W79930  28.073   3.976  24.948  0.1919 -0.1106 -0.1084
36915W        W79931  34.658  11.152   2.176  0.1513 -0.0610 -0.0221
36916W        W79932  26.317  22.419   2.343 -0.1718  0.2275 -0.0035
36917W        W79933  13.037   9.688   7.705  0.0390  0.2199  0.0043
36918W        W79934   9.798   0.615  28.623 -0.1669  0.2048 -0.0354
36919W        W79935  25.088  21.588  26.237 -0.0759 -0.1447 -0.1717
36920W        W79936   6.092  12.920   4.550 -0.0614  0.0485  0.0352
36921W        W79937   2.620  27.871   1.058 -0.0480  0.1656  0.2169
36922W        W79938  26.815  34.640  18.201  0.0888  0.0984 -0.0132
36923W        W79939  30.743  28.642   6.112 -0.3616  0.0332 -0.0543
36924W        W79940  30.636   4.622  21.871  0.0847  0.0512  0.0866
36925W        W79941  13.447  24.975  13.468  0.4332 -0.3309  0.4399
36926W        W79942  19.515   3.335  20.579  0.3291 -0.2241 -0.1971
36927W        W79943  18.066  29.104  29.219 -0.2665 -0.1972 -0.1644
36928W        W79944  11.686  25.765   7.196  0.0224 -0.0401  0.1651
36929W        W79945  14.200  28.291  24.972  0.1593 -0.0670 -0.0790
36930W        W79946  14.530  31.182  17.432 -0.0053 -0.0842 -0.4235
36931W        W79947   0.565  26.317   2.803 -0.1142  0.2124  0.0153
36932W        W79948  33.865   1.655  20.262  0.0683 -0.2384  0.2489
36933W        W79949   4.896   1.581  28.571 -0.0921 -0.0420  0.0763
36934W        W79950   8.826  25.425  21.664  0.2270 -0.0245 -0.2610
36935W        W79951  13.508   6.199  26.285  0.2765  0.0689 -0.3329
36936W        W79952  11.147   5.206  29.213 -0.1036 -0.2731 -0.3366
36937W        W79953   3.009  16.198   0.494 -0.0304  0.1174 -0.1917
36938W        W79954  18.215   2.425  16.649  0.0593 -0.1694 -0.0030
36939W        W79955  11.103   6.219  26.394  0.1086  0.1653 -0.2202
36940W        W79956  30.635  23.000   1.003  0.3681 -0.0040 -0.2314
36941W        W79957  30.612  16.880   6.773 -0.0753  0.1642 -0.1586
36942W        W79958   3.008   4.712   6.560 -0.0365 -0.2086  0.0563
36943W        W79959  34.523  34.541  14.527 -0.1491 -0.0032  0.1858
36944W        W79960   3.139   9.005  17.243 -0.3431 -0.1552  0.0354
36945W        W79961   4.526  13.028  28.555 -0.2374  0.3072 -0.2399
36946W        W79962  29.283   4.576  18.621  0.0064 -0.0118  0.0684
36947W        W79963  13.590   5.062   8.274  0.0379 -0.0388 -0.2703
36948W        W79964   0.040  33.601   1.170  0.0836  0.0680  0.1341
36949W        W79965  11.449   9.449  25.910 -0.1578  0.2011 -0.4583
36950W        W79966  33.345   8.881  19.477 -0.2079 -0.0689 -0.2187
36951W        W79967  21.749   5.238  26.426 -0.0272 -0.0566  0.3162
36952W        W79968  19.242  31.070  28.599 -0.1022 -0.0404 -0.1102
36953W        W79969  10.482   8.050  15.959 -0.1501  0.1529 -0.0281
36954W        W79970  14.264  23.270  28.433  0.0592  0.2062  0.1056
36955W        W79971  30.982   8.750   4.988 -0.2460 -0.2331 -0.3021
36956W        W79972  25.003  11.135  19.588  0.1268  0.0691 -0.2415
36957W        W79973   4.722  26.602  22.880  0.3455 -0.1293  0.0662
36958W        W79974  32.615  26.775  24.640 -0.2468  0.0932 -0.1247
36959W        W79975  12.288  29.490  16.371 -0.1381 -0.3049  0.1669
36960W        W79976  18.805  10.959  18.220 -0.0753 -0.3945 -0.0144
36961W        W79977   2.143   3.188  15.007  0.1869 -0.2786 -0.3671
36962W        W79978  34.129  29.220   3.789 -0.0313  0.1383 -0.0001
36963W        W79979  21.987   9.798  21.105 -0.2147 -0.0787  0.1470
36964W        W79980   5.522   0.469   9.551  0.0628  0.0873  0.1842
36965W        W79981  29.854  20.201  15.379  0.0119 -0.0752  0.1463
36966W        W79982  27.776   5.707   6.577 -0.1013 -0.0741  0.0127
36967W        W79983   5.466  29.938   3.383 -0.2970 -0.0044  0.0828
36968W        W79984  32.123   6.281  24.077  0.3087  0.2214  0.1116
36969W        W79985  28.435  14.923  15.303 -0.0663 -0.1800  0.0803
36970W        W79986  12.395  21.811  21.593  0.0508 -0.1158 -0.1481
36971W        W79987   4.421  13.726  21.396 -0.2915  0.1321 -0.0188
36972W        W79988   8.020  28.282   0.288  0.0633 -0.1878  0.1048
36973W        W79989  29.965  27.109  10.829 -0.1217 -0.1140 -0.1051
36974W        W79990  32.238  12.729   9.614 -0.0486  0.0491  0.1954
36975W        W79991  24.871   7.967   7.319 -0.0071 -0.0970 -0.0497
36976W        W79992  18.909   0.698  20.940  0.3252  0.0257 -0.0966
36977W        W79993  17.070  25.760   2.427  0.0360  0.1741  0.0816
36978W        W79994  11.556  31.808  22.221  0.0913 -0.2088 -0.2823
36979W        W79995   7.485  21.161  13.412 -0.1110 -0.0730  0.0355
36980W        W79996   6.509  19.405  26.751 -0.0800 -0.1738 -0.0070
36981W        W79997  16.435   3.973  25.271 -0.1297  0.0389  0.0488
36982W        W79998   0.154  18.828  24.680 -0.0868  0.1178 -0.1804
36983W        W79999   2.783   2.895  27.588 -0.1448 -0.0756 -0.2866
36984W        W80000   9.290  12.048  16.198  0.4672 -0.4360  0.1760
36985W        W80001  28.571  33.906  16.419 -0.1287  0.1386 -0.1936
36986W        W80002   7.883   8.673  17.134 -0.1992  0.0865  0.0427
36987W        W80003  13.151  16.444  16.039  0.0909 -0.0194  0.2210
36988W        W80004   4.970  30.537  14.667  0.0831 -0.3441  0.1511
36989W        W80005   7.475   5.554  26.278 -0.2345  0.0626  0.0401
36990W        W80006  13.940  11.610  21.937  0.2893 -0.0894  0.1916
36991W        W80007   9.955   9.629   5.326 -0.0386  0.2073 -0.3686
36992W        W80008   4.853  30.508  16.400 -0.0348  0.0179 -0.3297
36993W        W80009  31.999  30.428  20.443  0.0327  0.0179 -0.1230
36994W        W80010   6.013  21.276   4.069 -0.0700 -0.0637 -0.1680
36995W        W80011   7.851  31.869  18.253 -0.3859  0.1518 -0.4803
36996W        W80012  14.614  26.051   7.201 -0.0541  0.0743 -0.0005
36997W        W80013  28.288  30.646   8.388  0.2147  0.3240 -0.0217
36998W        W80014  20.635  26.444   8.622  0.1336 -0.1617 -0.2006
36999W        W80015  16.076  32.345  27.004  0.0615  0.0596  0.1019
37000W        W80016   1.096  19.726   6.279  0.0291 -0.1800  0.2673
37001W        W80017  34.087  10.687   3.120 -0.0367  0.0454 -0.0583
37002W        W80018  15.135  21.387  20.295 -0.4166  0.0151 -0.2553
37003W        W80019  27.990   0.517   3.879  0.2143 -0.1003 -0.3908
37004W        W80020   7.958  24.010   4.590  0.4795 -0.2689  0.3033
37005W        W80021   2.836   6.806  15.547  0.0517  0.0836  0.2371
37006W        W80022  34.399  13.768  18.135 -0.3719 -0.3654  0.0542
37007W        W80023  24.066  23.166   3.431  0.1431  0.1398 -0.2075
37008W        W80024  12.298   5.812  16.297 -0.0293 -0.3083 -0.4139
37009W        W80025  16.483  13.037  15.666  0.0584 -0.3702 -0.1961
37010W        W80026  32.781  15.547  26.451  0.3789 -0.4126 -0.0282
37011W        W80027   7.472  14.436   0.449  0.1982  0.0173 -0.0577
37012W        W80028  32.021  33.573   4.086  0.3568 -0.1078  0.1117
37013W        W80029   8.121  33.894  20.739 -0.1031  0.4057  0.2353
37014W        W80030  14.752  29.774  26.037  0.2562  0.0744  0.0673
37015W        W80031  30.714  22.900  23.517  0.1833 -0.0459  0.0941
37016W        W80032   2.629  27.597  17.454  0.1288  0.0274  0.1192
37017W        W80033   6.543  31.715  17.195 -0.0601 -0.3422  0.0809
37018W        W80034  16.939   1.441  24.054  0.2600  0.1631  0.2205
37019W        W80035  11.619  27.129   0.014 -0.1661 -0.1499  0.2151
37020W        W80036  19.968  12.822   0.543 -0.3365  0.3198 -0.0299
37021W        W80037  12.080  10.018  23.980  0.0153  0.0732  0.1978
37022W        W80038  13.901  34.046  23.447 -0.5736 -0.1380 -0.2751
37023W        W80039  33.719   1.901   8.681  0.0763  0.0498  0.0066
37024W        W80040  30.227   0.168  10.568  0.1921 -0.0693 -0.1836
37025W        W80041   6.838  17.554  28.143  0.3278  0.0902  0.1171
37026W        W80042  12.350   2.931  16.023 -0.2029  0.3279  0.3195
37027W        W80043   8.547   2.846  28.357  0.1080 -0.3388 -0.0106
37028W        W80044   4.385   4.379  23.138 -0.1479  0.0833 -0.0948
37029W        W80045  16.144   6.602  25.824 -0.2523 -0.1265 -0.0828
37030W        W80046  13.348  13.117  19.466  0.1945  0.0380 -0.0052
37031W        W80047   2.645  13.937   6.423  0.2054  0.0772  0.0876
37032W        W80048   9.917  22.892  26.655  0.1898  0.0621  0.0230
37033W        W80049   7.721  28.608  23.578 -0.2810 -0.0812 -0.2502
37034W        W80050  11.525  30.656   2.964  0.0960  0.1555  0.0674
37035W        W80051   5.657  29.451  26.974 -0.4031  0.1757  0.0505
37036W        W80052   6.797  22.970  26.679 -0.0148  0.1367  0.1521
37037W        W80053  27.810  15.822  14.818 -0.0108 -0.1151  0.0721
37038W        W80054  14.708  23.278  23.298 -0.0743  0.0739  0.1247
37039W        W80055  21.132  32.220   1.877  0.3474 -0.1624  0.2633
37040W        W80056   2.117  33.718  26.008 -0.1680 -0.1068 -0.3059
37041W        W80057   1.971   3.272   8.137  0.2035  0.2498 -0.2258
37042W        W80058  31.823   0.434   8.332  0.1000 -0.0324  0.0297
37043W        W80059   4.212  29.977  21.778  0.0149 -0.0967  0.0205
37044W        W80060  12.281  15.541  18.531  0.0309 -0.1493 -0.0880
37045W        W80061  34.297  34.740  23.320  0.2790 -0.0821  0.2703
37046W        W80062  12.663   5.198   7.227 -0.0301 -0.2052  0.0830
37047W        W80063   9.128   6.942  22.050  0.1964 -0.1999 -0.0775
37048W        W80064   9.199  23.848  20.334 -0.0864 -0.1064 -0.0502
37049W        W80065  31.745  29.018   1.554 -0.1282 -0.0078  0.0412
37050W        W80066   4.509   1.659  21.079  0.0892 -0.0768 -0.0772
37051W        W80067   9.904  27.561   7.685  0.3476  0.2160 -0.2317
37052W        W80068   9.917  22.460   7.757  0.0404  0.0497  0.3651
37053W        W80069  10.713   0.400  28.658 -0.0730 -0.1617  0.0301
37054W        W80070  10.058  27.909   1.272 -0.2088  0.0124  0.0788
37055W        W80071   5.788   6.108  18.562  0.0726 -0.0747  0.1521
37056W        W80072   7.896  19.578  18.868 -0.0187 -0.2914  0.3248
37057W        W80073   2.783  17.435   4.306 -0.1546  0.2178  0.1767
37058W        W80074   6.019  27.560   4.584 -0.0775  0.1744  0.0162
37059W        W80075   6.245  10.426  22.831  0.0385 -0.1129  0.0131
37060W        W80076  22.168  20.630   5.561  0.0430 -0.0075  0.2218
37061W        W80077   8.174   6.158   8.026  0.1758 -0.1512 -0.1405
37062W        W80078  18.458  16.213   4.989  0.1061 -0.0278  0.2118
37063W        W80079  27.489   1.109  23.494  0.0755 -0.0511  0.2412
37064W        W80080  17.441  27.595  23.141 -0.0792  0.1845 -0.0501
37065W        W80081   7.500   8.504  26.223  0.0682  0.0501  0.1594
37066W        W80082  12.447  16.398  28.069  0.2537 -0.1447 -0.0593
37067W        W80083   6.511  27.705  21.804 -0.2167  0.0683  0.5785
37068W        W80084   3.139  33.585   5.360  0.0810  0.5221 -0.3142
37069W        W80085  12.250  23.208  21.691  0.1531  0.2238 -0.0452
37070W        W80086  12.001   2.712  19.017  0.2160 -0.3869 -0.1654
37071W        W80087   0.990   1.481  25.264 -0.2333  0.2027 -0.2551
37072W        W80088   6.004   6.283   1.539 -0.0851 -0.0627 -0.2886
37073W        W80089  33.047  24.015  10.907  0.1407 -0.3529  0.2257
37074W        W80090  10.580  22.605  24.122  0.0096 -0.0944  0.1684
37075W        W80091   0.826   5.578  21.319 -0.4187 -0.2388 -0.2016
37076W        W80092  12.529  27.937  20.928 -0.0573  0.1626 -0.0015
37077W        W80093  10.801   3.145  28.891  0.0757  0.1368  0.1728
37078W        W80094  16.416  26.360  16.647  0.0644  0.0180 -0.0682
37079W        W80095   4.781  14.990   1.729 -0.1833 -0.1176  0.2705
37080W        W80096   8.664  18.612  14.105 -0.2035 -0.1058 -0.0200
37081W        W80097   8.635  12.534  15.214  0.0162  0.2024 -0.2466
37082W        W80098  34.070  18.124  19.858  0.3481  0.2636  0.2851
37083W        W80099  16.537   6.418  16.023 -0.2155  0.0851  0.2928
37084W        W80100   4.886  34.067   7.928 -0.0400 -0.2543 -0.0749
37085W        W80101  26.991   1.892  26.334 -0.0901 -0.0328 -0.2825
37086W        W80102   3.734   2.788  29.220 -0.1939  0.0700 -0.0065
37087W        W80103   8.795  34.286   8.723 -0.1483 -0.0009 -0.1269
37088W        W80104  25.119  31.968   0.758  0.0044 -0.2983  0.1972
37089W        W80105  14.923  27.740   8.497 -0.2985  0.0054  0.2798
37090W        W80106  18.687   6.009   6.189 -0.2107 -0.0868  0.0488
37091W        W80107  32.972   3.036   7.920  0.0874  0.0380 -0.2734
37092W        W80108   2.834   8.489  23.600 -0.1099  0.6675 -0.2000
37093W        W80109  10.451  29.417  29.134 -0.1140 -0.0579 -0.2922
37094W        W80110  10.001   9.052  17.717  0.1696  0.1671 -0.1515
37095W        W80111  28.425  29.009  28.619 -0.0353  0.2017  0.2681
37096W        W80112  18.298   4.851  15.580 -0.0098 -0.0091  0.0940
37097W        W80113  17.941   1.168  27.005 -0.0271  0.3168 -0.3118
37098W        W80114   5.295   1.784  25.963 -0.3348 -0.0953 -0.0473
37099W        W80115   5.066  28.097   1.067  0.0875  0.1072 -0.0068
37100W        W80116   9.611   1.038  10.198  0.2549  0.0043  0.1374
37101W        W80117  18.509  17.009  28.476  0.0162  0.0274 -0.3087
37102W        W80118   6.510  20.419  25.791  0.2410  0.0455 -0.0003
37103W        W80119  33.251   1.006  19.286 -0.1759  0.3959  0.1480
37104W        W80120  18.433  28.041  22.635 -0.1896  0.0941  0.0336
37105W        W80121  14.985  29.356  28.310 -0.0137 -0.0699 -0.0490
37106W        W80122  29.664  28.543   7.900 -0.0079  0.0960  0.1861
37107W        W80123  14.548  14.060  26.016  0.1744  0.0475  0.2379
37108W        W80124  10.017  25.206   4.968 -0.1509 -0.1076 -0.1646
37109W        W80125   8.960  29.118  25.065  0.1369  0.0256  0.1003
37110W        W80126  14.737  23.795  29.183 -0.0789 -0.3739  0.1867
37111W        W80127   6.699  21.614  27.007  0.2649  0.0523 -0.5838
37112W        W80128   0.422  11.111  17.978 -0.1757 -0.1493 -0.2690
37113W        W80129  19.711   4.227   7.030 -0.1165 -0.0673 -0.3048
37114W        W80130   4.026   4.407  18.709 -0.1429 -0.1840  0.1395
37115W        W80131  11.887   2.432  18.576  0.1177 -0.1221  0.2651
37116W        W80132   9.173  34.767  21.960 -0.1535 -0.0943  0.2225
37117W        W80133  15.344   3.468   0.642 -0.4371 -0.0530  0.2267
37118W        W80134  13.361   9.478  23.026 -0.2014 -0.0555 -0.0135
37119W        W80135   6.093  26.615  19.938 -0.0169 -0.3609 -0.0278
37120W        W80136  12.181  21.292   7.344 -0.2364 -0.0458 -0.1577
37121W        W80137   7.471  25.648  26.074  0.1540 -0.3511  0.1098
37122W        W80138   2.164   2.706  19.769  0.2228  0.2887  0.2440
37123W        W80139   3.083  19.265  15.385  0.0315 -0.0732 -0.0019
37124W        W80140  26.078   5.690  15.938  0.0317 -0.1217 -0.3994
37125W        W80141  26.720   3.465   7.427  0.0024  0.0642 -0.2739
37126W        W80142   6.452   9.501   7.633  0.0448  0.0377  0.0134
37127W        W80143  16.757  31.753   3.530 -0.1044 -0.0376 -0.0429
37128W        W80144   4.145  21.006   4.406 -0.0827 -0.0238  0.1008
37129W        W80145  31.136  12.121  26.419  0.0660  0.0999  0.1005
37130W        W80146   0.381  10.097  16.823 -0.0249 -0.0792  0.4174
37131W        W80147  11.777  30.546  27.272 -0.0366  0.0466  0.0621
37132W        W80148   7.896   6.069  28.754  0.0262  0.1762 -0.0576
37133W        W80149   9.524  26.119  22.379  0.1484  0.0510  0.2329
37134W        W80150  12.309  27.404  23.553  0.0190 -0.0510 -0.0062
37135W        W80151   2.839   2.507  22.433 -0.1537  0.2124  0.0021
37136W        W80152   2.417  30.284  27.330  0.0252 -0.0222 -0.3431
37137W        W80153  12.571   3.624  22.346 -0.0240 -0.4356  0.2348
37138W        W80154  10.127   7.094   9.559 -0.0704  0.1236  0.2979
37139W        W80155  27.538  31.043  28.521 -0.2069  0.1788 -0.3640
37140W        W80156  21.328  30.465  23.452  0.0005  0.1631 -0.1827
37141W        W80157  23.852   6.618  20.541 -0.1517  0.1078 -0.0937
37142W        W80158  27.837   2.902  23.698  0.1638 -0.1995 -0.1871
37143W        W80159   2.329  10.176  16.339  0.1412  0.0809  0.2489
37144W        W80160  12.120   4.157  24.707 -0.0263  0.0313 -0.0671
37145W        W80161  31.335   8.476   3.059  0.1188 -0.2226 -0.0119
37146W        W80162  10.035  33.335  21.014  0.0905 -0.1265  0.0658
37147W        W80163  27.878   3.782   6.652 -0.0257 -0.1322 -0.1390
37148W        W80164  32.012   9.549  26.145  0.1328  0.3153 -0.0611
37149W        W80165   6.027   6.181  17.409 -0.1269 -0.1032  0.0041
37150W        W80166  24.907  11.244  20.157 -0.0281  0.0814  0.0256
37151W        W80167   9.443   2.795  27.209 -0.2902  0.1296 -0.3246
37152W        W80168   9.703   8.193   9.013 -0.1118  0.4895 -0.0032
37153W        W80169   8.885  28.072  24.130 -0.3556  0.1577  0.0974
37154W        W80170  17.180   6.204  22.004 -0.3072  0.0075  0.1190
37155W        W80171  20.364   7.313   4.062  0.1347 -0.0117 -0.0443
37156W        W80172  12.350   5.330  18.247  0.0036 -0.2564  0.1181
37157W        W80173   8.584  28.863   7.981 -0.0210 -0.1374  0.0269
37158W        W80174   6.253  27.551  19.879  0.1085 -0.0043  0.1096
37159W        W80175   6.542   6.656   7.485  0.1222 -0.2241 -0.2002
37160W        W80176   7.016   3.645   1.654 -0.0354 -0.1793  0.0097
37161W        W80177  13.041  29.338   8.699 -0.1247 -0.0261 -0.3741
37162W        W80178  17.152  31.851  15.997 -0.2612 -0.0983  0.0178
37163W        W80179  31.082   9.976  18.419  0.2395 -0.2522  0.2238
37164W        W80180  34.372  11.496  16.708 -0.2019 -0.0665  0.0090
37165W        W80181  27.056   3.402  24.400  0.4370 -0.1548 -0.1654
37166W        W80182   7.536  33.067  21.331  0.2090  0.1958 -0.0672
37167W        W80183  15.108   6.166   2.901 -0.0388  0.1320 -0.0057
37168W        W80184   2.431  15.757  21.401 -0.2124 -0.0167 -0.0547
37169W        W80185   2.619  33.488   2.372 -0.2987  0.3112 -0.2082
37170W        W80186  15.557   7.632  19.236 -0.1961  0.0673 -0.1091
37171W        W80187  30.397  23.025   1.473  0.1290 -0.1755  0.0850
37172W        W80188  23.890   4.963   6.533 -0.2515  0.1585  0.3061
37173W        W80189   7.468  27.683  17.329 -0.1683  0.0734 -0.2095
37174W        W80190  25.289  33.246  28.749 -0.2182 -0.0081  0.0812
37175W        W80191  21.156  26.945  15.283 -0.1438 -0.0848 -0.1405
37176W        W80192  16.122  16.017  12.077  0.1357  0.0625  0.1182
37177W        W80193  34.385  34.170  18.031  0.3419 -0.0685  0.1935
37178W        W80194  15.183   9.132  26.874  0.0499  0.0603 -0.0318
37179W        W80195  13.230  23.194  19.507  0.1699  0.2072 -0.0782
37180W        W80196   8.178  33.195  25.729  0.2782  0.1156 -0.3664
37181W        W80197   0.766  13.804   2.719 -0.0239  0.0129 -0.1563
37182W        W80198   2.471  33.451   9.318 -0.0243  0.0699 -0.2223
37183W        W80199  15.537  34.241  23.236  0.0479 -0.3761 -0.2138
37184W        W80200  13.315  20.230   6.363  0.0872 -0.1088 -0.0635
37185W        W80201  24.487   2.809  18.498  0.0042  0.0683 -0.1158
37186W        W80202  34.195   3.447   4.175  0.2370 -0.1509 -0.1506
37187W        W80203   2.595  17.710   2.317 -0.2665  0.1903  0.0322
37188W        W80204  17.497  30.617   1.107 -0.1471 -0.0685  0.0763
37189W        W80205   3.823  13.407   0.278  0.1521 -0.3199  0.1056
37190W        W80206  17.766   1.956  23.866  0.1946  0.1038  0.1920
37191W        W80207  11.847  17.175   2.519 -0.2103  0.0967  0.1724
37192W        W80208  14.660   3.761   6.405  0.4332 -0.1165 -0.0674
37193W        W80209   2.696  32.371  22.742 -0.1098 -0.0325 -0.2573
37194W        W80210  12.340  32.692  29.142  0.2105  0.0907 -0.0726
37195W        W80211  23.517  21.055   4.495 -0.0221  0.2866  0.1133
37196W        W80212  27.186  29.307   6.387  0.0311  0.0115 -0.0071
37197W        W80213  30.712   5.503  15.818 -0.0781 -0.3752 -0.0280
37198W        W80214  29.732  34.425   6.022 -0.3047  0.2565 -0.1224
37199W        W80215   8.751  16.662   7.204 -0.0170  0.0850  0.1865
37200W        W80216  22.351  12.927  25.093  0.0476  0.1013  0.1519
37201W        W80217  20.228   9.094  22.441  0.0691 -0.0455  0.0309
37202W        W80218  10.920   7.426  15.162 -0.1201  0.0994  0.0026
37203W        W80219   6.279   2.898  27.323  0.2205  0.1487 -0.0854
37204W        W80220   3.269   5.859   2.566  0.0244  0.1686 -0.1162
37205W        W80221   2.750  28.645  25.344 -0.0252  0.3485 -0.0298
37206W        W80222  24.073  31.598  23.531 -0.1263  0.1525  0.0558
37207W        W80223   8.566  31.925  16.439 -0.1470 -0.1157 -0.1267
37208W        W80224  26.485   9.517  15.678 -0.3212 -0.0486 -0.3128
37209W        W80225  12.497  25.511  14.987  0.1831 -0.0158  0.2072
37210W        W80226   3.479   1.432   3.106 -0.2890  0.2312 -0.0420
37211W        W80227  11.376   2.933  22.371 -0.1432  0.0219 -0.1955
37212W        W80228  19.804  27.501  27.379 -0.1253  0.0717 -0.0082
37213W        W80229   3.136   0.611  28.176  0.2751  0.1201  0.0504
37214W        W80230  10.302  34.470   7.179 -0.0611 -0.1934  0.0362
37215W        W80231  22.522   7.206  15.160 -0.1162  0.1532 -0.0148
37216W        W80232  14.973  31.054  21.463 -0.0743  0.4040 -0.2619
37217W        W80233  25.336  30.373  22.050  0.4480  0.1586 -0.2138
37218W        W80234  12.101  13.419   5.165 -0.0649 -0.0373  0.2574
37219W        W80235  24.979  21.175  17.800  0.1160  0.2895 -0.0665
37220W        W80236   7.325  33.284  23.248 -0.0492  0.1083  0.2116
37221W        W80237   8.100   0.454  25.326  0.2907 -0.1618 -0.0734
37222W        W80238  14.173  16.044  23.912 -0.0036 -0.2622 -0.0057
37223W        W80239  32.941  19.955  24.956  0.4480  0.1002 -0.2232
37224W        W80240  18.931  29.598  28.156  0.1789  0.0454 -0.1652
37225W        W80241   1.453   0.222   8.485 -0.2037  0.0366  0.0613
37226W        W80242   5.561   3.897   2.037  0.1203 -0.0928 -0.0054
37227W        W80243  21.660  26.253   0.486 -0.0604 -0.0485  0.2427
37228W        W80244  10.961  21.046   1.334  0.2030  0.0628  0.0271
37229W        W80245   9.231   1.274   1.314 -0.2490  0.1422 -0.2054
37230W        W80246  19.621  12.666   3.537  0.0880  0.0158 -0.3118
37231W        W80247  19.844  34.586  20.247 -0.2161  0.1887 -0.1291
37232W        W80248  11.243  30.129  20.946 -0.6512  0.0382 -0.1723
37233W        W80249   9.250  11.117  19.768 -0.0274  0.2516  0.1330
37234W        W80250   8.373  17.470  24.352  0.1106 -0.2216 -0.1970
37235W        W80251   5.618  10.404  16.786 -0.0013 -0.4024  0.3038
37236W        W80252  21.235  30.761  20.695  0.1562 -0.3149 -0.1974
37237W        W80253  26.665  27.735   8.997 -0.1005  0.0446  0.0083
37238W        W80254   7.569  18.023  18.270  0.3452 -0.1308 -0.1523
37239W        W80255   0.475  18.663  22.209  0.2212  0.4226  0.2467
37240W        W80256   1.761  10.987  11.117  0.1288 -0.1970  0.1191
37241W        W80257  19.017  20.401  22.081 -0.0416  0.0183 -0.0534
37242W        W80258   4.841  27.383   0.848 -0.3204  0.1577  0.1909
37243W        W80259  24.250   5.613   9.000  0.2590  0.2469 -0.2270
37244W        W80260   7.367  13.689  20.219  0.1053  0.1232  0.0289
37245W        W80261   2.237  28.333   9.908  0.1373 -0.2683 -0.0718
37246W        W80262   6.612   3.045   2.114  0.2291 -0.2361 -0.2142
37247W        W80263  31.715  21.631  28.903  0.1436  0.0206  0.1176
37248W        W80264  34.210   1.673   9.566 -0.0380 -0.0753 -0.0722
37249W        W80265  16.500  20.161  22.570  0.0172 -0.1400  0.0063
37250W        W80266   9.192  30.024  17.013  0.1777 -0.0534 -0.2929
37251W        W80267   4.935  14.875  22.211  0.0841 -0.0855  0.0411
37252W        W80268  10.454  11.864  17.618  0.3954  0.3230  0.2257
37253W        W80269   1.064   2.382  28.122 -0.1066 -0.2572  0.1599
37254W        W80270  29.326  31.315  18.061 -0.0328  0.2410 -0.1376
37255W        W80271   8.020  11.630   6.789 -0.0712 -0.0368  0.1504
37256W        W80272  29.682   4.369   2.861 -0.2116 -0.3161 -0.0689
37257W        W80273  14.431  15.671   6.871 -0.0945 -0.0155  0.0787
37258W        W80274  31.219  16.266  17.269 -0.2359 -0.1949 -0.1358
37259W        W80275  31.253  10.302  24.185  0.3608  0.2883  0.2785
37260W        W80276   9.668  31.049  21.882 -0.1486  0.1022  0.2502
37261W        W80277   6.348  13.464   0.467  0.0437  0.0308 -0.0120
37262W        W80278  17.456  27.942   5.959 -0.2752 -0.0556  0.1581
37263W        W80279  34.420   8.346  22.728 -0.0549 -0.1157 -0.0585
37264W        W80280   6.854   0.736   8.827 -0.2766  0.1359 -0.2778
37265W        W80281  11.368   1.573  19.994  0.2888  0.1537 -0.1489
37266W        W80282  26.950  28.492  20.986  0.2563  0.0033 -0.0226
37267W        W80283  15.207  31.744  19.063 -0.1529  0.1172  0.2353
37268W        W80284  14.636  23.462  15.990  0.0566 -0.0903  0.2046
37269W        W80285   8.633   0.107  25.338 -0.0207 -0.0622 -0.1487
37270W        W80286   2.976  29.685   2.082 -0.2743 -0.0466  0.0217
37271W        W80287   4.262  29.192  18.866  0.2153  0.2453  0.1788
37272W        W80288   1.923   9.630   7.663  0.1465 -0.0618 -0.0015
37273W        W80289  22.981   5.764   2.481  0.0453  0.2006 -0.1924
37274W        W80290   6.480   4.519  19.883  0.1155 -0.3245 -0.1276
37275W        W80291   9.370   0.010   0.933 -0.0482 -0.1339 -0.0189
37276W        W80292   7.501  27.809  14.377  0.2506  0.0929 -0.1168
37277W        W80293   4.389  33.961   5.274 -0.3127 -0.1896  0.0424
37278W        W80294  28.586  28.004  18.210  0.0236  0.1320 -0.1992
37279W        W80295  19.273  11.569   4.902  0.1408 -0.0139 -0.2145
37280W        W80296  10.366   7.155  20.057 -0.2947  0.0185 -0.1350
37281W        W80297  15.433  18.491   0.986  0.1449 -0.1508 -0.3749
37282W        W80298  16.946  23.590   0.683 -0.1331 -0.2698 -0.2997
37283W        W80299   3.893  31.005  25.115 -0.0098 -0.0849 -0.0096
37284W        W80300   1.043  30.296  16.408  0.0603  0.2522  0.0446
37285W        W80301  31.930  26.726   0.113 -0.2322  0.0298 -0.0919
37286W        W80302  14.582   3.049  24.673  0.1529  0.5578  0.2639
37287W        W80303  10.635   2.246   6.479 -0.3786 -0.2316 -0.0626
37288W        W80304  33.870   1.431   4.905 -0.0745 -0.0150 -0.0734
37289W        W80305  23.720  32.399   5.111 -0.1766 -0.0533  0.1324
37290W        W80306  32.662   4.859  24.297 -0.1109 -0.0907  0.0019
37291W        W80307   9.245  22.071  16.191  0.4580  0.1066  0.0696
37292W        W80308  12.549  18.213  15.607  0.0623  0.0663  0.0714
37293W        W80309  27.311  15.943  14.250  0.0729  0.4425 -0.0368
37294W        W80310   1.610   6.365  23.435 -0.0826  0.3178  0.1795
37295W        W80311  26.577  10.598  15.079  0.4393 -0.1486  0.0312
37296W        W80312   4.269  27.026  23.021  0.0702  0.2540 -0.1410
37297W        W80313   7.618  30.650  22.491  0.0782 -0.0434 -0.0494
37298W        W80314  14.023   3.859  24.261  0.1886 -0.0194  0.3133
37299W        W80315   5.709  14.234  21.647  0.1093  0.1340 -0.0178
37300W        W80316  17.868  13.080  23.261 -0.0677 -0.0823  0.3268
37301W        W80317  17.014  28.174   7.296 -0.0779  0.1648 -0.0252
37302W        W80318  12.658   2.759   1.103  0.1379  0.4062 -0.0589
37303W        W80319  17.643  33.598   0.074  0.0659 -0.4416 -0.0757
37304W        W80320  29.536  33.666   3.333  0.0905  0.1356 -0.0918
37305W        W80321  14.212  12.862  19.933  0.0001 -0.1287 -0.0604
37306W        W80322  29.590  27.456   9.876 -0.3558 -0.0661  0.1997
37307W        W80323   0.224  33.100  19.985  0.0142  0.1500 -0.0890
37308W        W80324  29.020   4.332  24.781 -0.3707  0.2742 -0.1444
37309W        W80325   7.581  30.967  28.272  0.4166 -0.3744 -0.2378
37310W        W80326  28.938   0.445  24.603  0.0673  0.0768  0.0765
37311W        W80327  16.234   7.284  19.158  0.2863  0.0971  0.0838
37312W        W80328   4.874  25.573  20.455 -0.0206  0.0247  0.1193
37313W        W80329  27.189   0.498  28.434  0.0026 -0.2323 -0.0824
37314W        W80330  33.295  15.536  27.508  0.0707  0.4149  0.1216
37315W        W80331   0.678   0.733   3.671 -0.2362  0.0345 -0.0212
37316W        W80332   5.696  31.647  17.828  0.1665 -0.1906 -0.3337
37317W        W80333  23.330  10.844   1.977 -0.0492  0.1107  0.2340
37318W        W80334   2.566  16.857   2.075 -0.1474  0.0717 -0.1893
37319W        W80335   5.051   2.353   0.392  0.0901 -0.2300 -0.3029
37320W        W80336  22.367  22.652   0.021  0.4596 -0.1493  0.3096
37321W        W80337  11.566  11.936   0.153  0.2614 -0.1970  0.0280
37322W        W80338  34.676  33.713   2.112  0.0564 -0.0814 -0.1474
37323W        W80339  19.056   2.653   1.554 -0.0989  0.2199 -0.1028
37324W        W80340  23.011  34.231   7.946  0.1430  0.0406 -0.0792
37325W        W80341   2.195   7.732  17.633 -0.1861  0.1144 -0.1970
37326W        W80342   3.865  23.055  26.348 -0.0553  0.0926  0.0628
37327W        W80343  19.811   7.387   9.540 -0.1514 -0.0682 -0.0739
37328W        W80344  24.728   3.526   7.330  0.0517 -0.2027  0.1084
37329W        W80345   6.301  28.205  21.889  0.5949  0.2065  0.1914
37330W        W80346  10.878  13.762   8.058 -0.1409  0.0548 -0.1083
37331W        W80347   6.119  22.888  22.630 -0.2715 -0.0607 -0.0851
37332W        W80348  34.139  25.269   3.712  0.2745 -0.0568 -0.0656
37333W        W80349   8.986   5.529   0.936  0.1079 -0.1814 -0.0651
37334W        W80350  30.000   2.392   1.924 -0.2685  0.1722 -0.0537
37335W        W80351   0.339  10.358  20.714 -0.1356 -0.0291  0.0016
37336W        W80352  17.891   0.968   5.277 -0.0231  0.0261 -0.0711
37337W        W80353   8.635   0.543  16.273 -0.0942 -0.1543  0.0222
37338W        W80354  24.200  27.024   2.459  0.1839  0.2015 -0.0466
37339W        W80355  12.825  10.363  20.339 -0.3209 -0.1209  0.0426
37340W        W80356  14.735  21.263  14.998 -0.5281  0.1096  0.2831
37341W        W80357   3.645  25.046  29.128  0.1781  0.0137  0.2184
37342W        W80358   2.349  32.950  23.635  0.1176 -0.1948  0.3870
37343W        W80359  13.208   4.573  22.527 -0.1338 -0.0031 -0.0844
37344W        W80360  13.969  31.069  22.088 -0.2182 -0.2098 -0.1576
37345W        W80361   4.525  27.598  24.188  0.3115  0.0768  0.1589
37346W        W80362   4.438  32.059   9.802  0.0929  0.3116 -0.0380
37347W        W80363   1.784   0.446  21.102  0.0868  0.2301  0.3122
37348W        W80364  25.266   5.882   2.560  0.1266 -0.0571  0.0517
37349W        W80365  17.949  30.384  25.335  0.1129  0.2687  0.0739
37350W        W80366  28.554  22.926  27.610  0.5813  0.0048  0.3039
37351W        W80367   6.418   9.335  15.763  0.2673 -0.1855 -0.1163
37352W        W80368   4.101  23.338   9.792 -0.1312 -0.0617  0.1468
37353W        W80369  23.641  32.077   9.958 -0.2882  0.1646 -0.0153
37354W        W80370  15.647  12.017  29.232  0.0119 -0.0748 -0.2020
37355W        W80371  29.162   2.224  14.850  0.1003  0.2229 -0.1921
37356W        W80372  19.305   8.473  19.837  0.0844  0.0340 -0.0176
37357W        W80373   9.346   1.211   8.646  0.4834  0.0029  0.0366
37358W        W80374   4.358   3.274   2.622 -0.1845 -0.1203 -0.0694
37359W        W80375  32.785  21.019  16.686  0.1717  0.1997 -0.0457
37360W        W80376  31.265  31.175  18.330  0.1018  0.1631 -0.1330
37361W        W80377  19.117  28.950  29.107  0.1376  0.0886  0.0088
37362W        W80378  18.280  31.727   6.918  0.1362  0.1428 -0.0442
37363W        W80379  10.778  11.384   0.190 -0.1095 -0.3175 -0.1995
37364W        W80380   4.655  10.156   5.533 -0.0997  0.1652 -0.2194
37365W        W80381  28.713  26.471   5.172 -0.0670 -0.1643  0.1775
37366W        W80382  16.024   2.674   5.876 -0.2348 -0.0912  0.0810
37367W        W80383  12.920   5.233   4.211 -0.1377 -0.0662 -0.0805
37368W        W80384   3.513  31.343  22.385 -0.1255  0.2298 -0.1748
37369W        W80385  14.627   2.054  27.915 -0.0141 -0.1161 -0.2676
37370W        W80386   7.723  33.129  22.035 -0.0447  0.0829  0.0799
37371W        W80387   4.271   8.385   9.656  0.0271 -0.0949 -0.0513
37372W        W80388  12.430  31.991   8.177  0.0093  0.0941 -0.5082
37373W        W80389  24.341  11.582  26.155  0.0580  0.2284  0.4060
37374W        W80390  23.479   1.161   3.831 -0.0116  0.1684 -0.0641
37375W        W80391   8.414   5.396  16.761 -0.2198  0.0932 -0.0533
37376W        W80392  11.264   8.390   5.783 -0.0068 -0.2528 -0.1170
37377W        W80393  12.066   5.719  28.481 -0.1432  0.0393  0.0308
37378W        W80394   4.440   2.730   4.436 -0.0868  0.1865 -0.1598
37379W        W80395   7.679  12.568  27.060 -0.1543  0.2022  0.1867
37380W        W80396  34.279   0.237   6.979 -0.4654 -0.3057  0.2271
37381W        W80397  12.719   5.488   8.997 -0.0882 -0.2881  0.1548
37382W        W80398   0.774  29.945  28.617 -0.0076  0.1340 -0.0172
37383W        W80399  22.651  25.653   7.804  0.2809 -0.0293 -0.0232
37384W        W80400   9.043   1.729   3.814  0.0471 -0.3770  0.1462
37385W        W80401  16.759   3.202  26.541  0.1322 -0.1126  0.0172
37386W        W80402  10.194   8.889  20.092 -0.2774 -0.0576 -0.2007
37387W        W80403   7.674  24.134  28.094 -0.0430 -0.2150 -0.2348
37388W        W80404   0.557  28.128  23.013  0.1551 -0.0590 -0.0826
37389W        W80405   9.881  33.703  20.263 -0.1905 -0.1691  0.0666
37390W        W80406   9.761  14.200  12.850 -0.0605  0.1420  0.2752
37391W        W80407   9.672  11.770  27.807  0.0103  0.3248  0.1864
37392W        W80408  10.900  27.882  15.675  0.0718  0.1610  0.0023
37393W        W80409   5.820  31.806  25.579  0.1254  0.2797  0.1617
37394W        W80410  19.211  18.280  22.155 -0.0865 -0.0298 -0.0323
37395W        W80411  34.294   3.008  24.175 -0.0260  0.2004 -0.0611
37396W        W80412  11.542  31.877  24.127 -0.1221  0.1870 -0.0362
37397W        W80413  31.633   3.740  22.298  0.3214  0.1062 -0.0462
37398W        W80414  25.616  19.291  18.846  0.4057  0.2829  0.5008
37399W        W80415   0.567   6.149  20.467  0.3091  0.0167  0.0238
37400W        W80416  33.554  10.301  17.846 -0.0351 -0.0314 -0.1905
37401W        W80417  14.136   4.163  25.973 -0.0099  0.1952  0.2802
37402W        W80418   8.734   8.929  17.693 -0.1487 -0.1132 -0.3449
37403W        W80419  23.136   2.084  17.769  0.1610  0.0153  0.0508
37404W        W80420  20.944  27.098  27.500 -0.2346 -0.0973  0.0658
37405W        W80421  19.520  26.766   0.998  0.0334  0.0813 -0.2316
37406W        W80422   5.644  11.967  22.112 -0.0554 -0.2009  0.0899
37407W        W80423   8.250  29.427  20.533  0.0138 -0.3630  0.0401
37408W        W80424  12.292   1.351  26.782 -0.2873  0.1997  0.0111
37409W        W80425  26.914  15.607  19.064  0.0553  0.1648 -0.0668
37410W        W80426  34.238  17.679  25.968 -0.3642  0.3674 -0.4382
37411W        W80427  17.385   7.411  15.095 -0.0598  0.0607 -0.1946
37412W        W80428   5.008   0.953  21.464 -0.0680  0.0454 -0.1016
37413W        W80429  33.478   9.501  22.744 -0.0110  0.1067  0.0419
37414W        W80430  30.451   5.118  15.846  0.2120  0.0664 -0.1545
37415W        W80431  11.278  26.334  26.578 -0.4416 -0.0093 -0.1373
37416W        W80432   6.294   2.320  16.591 -0.0854 -0.0707 -0.1529
37417W        W80433   1.358   8.483  15.703 -0.0993  0.0968 -0.1841
37418W        W80434  18.461  21.120  22.273  0.0590  0.0537  0.0833
37419W        W80435  14.023   7.025  17.671 -0.1752  0.1854 -0.0237
37420W        W80436  29.370  27.219  17.390  0.0774 -0.0729  0.0818
37421W        W80437  14.603  33.009  19.899  0.2562 -0.1051 -0.0391
37422W        W80438  11.846  15.681  13.249  0.4201  0.1081 -0.1574
37423W        W80439  16.655  33.451  19.286 -0.0015 -0.0069 -0.0426
37424W        W80440  12.324   4.396  17.052  0.0133 -0.3832 -0.0140
37425W        W80441  27.406  23.332  10.576 -0.1150 -0.1367  0.0034
37426W        W80442   7.799  11.863  23.842 -0.0129  0.0573 -0.0560
37427W        W80443  10.755   9.451  24.029  0.1089  0.0920 -0.0678
37428W        W80444  30.602  13.067  15.111  0.2068  0.2440  0.1099
37429W        W80445   2.089  31.846  29.266  0.1359  0.1728  0.1793
37430W        W80446   4.283   6.526  19.734  0.1173 -0.2049 -0.1905
37431W        W80447  15.613   4.181  20.381 -0.0644  0.1411 -0.0619
37432W        W80448   5.240  15.756  21.031  0.1494 -0.2359  0.2082
37433W        W80449  15.986   6.500  20.037 -0.2116 -0.0015 -0.1654
37434W        W80450   8.614  33.661  25.053  0.2368  0.0241  0.1892
37435W        W80451   6.380   1.155  20.196  0.0932 -0.1957 -0.0556
37436W        W80452  32.564  29.808   7.092  0.3420 -0.1949 -0.0747
37437W        W80453   0.720  20.238  21.348 -0.2182  0.3663 -0.0557
37438W        W80454   3.177  31.623  20.391  0.1445  0.0423 -0.1863
37439W        W80455  30.132  10.901  15.382  0.0356  0.3256  0.0412
37440W        W80456  13.442  29.068  14.731 -0.1502 -0.2892 -0.1160
37441W        W80457  25.205  29.067  20.880 -0.1064  0.1430 -0.0731
37442W        W80458  23.854  13.440  20.315 -0.0882  0.0831 -0.0669
37443W        W80459   6.621   5.452  19.774  0.1669  0.0604  0.0263
37444W        W80460  11.590  16.546  13.613 -0.0705  0.0335  0.1233
37445W        W80461   4.021  24.099  21.488  0.1634 -0.1280  0.1270
37446W        W80462  15.964   4.068  13.227  0.0172 -0.2341  0.0910
37447W        W80463   4.087  19.173  23.202  0.3690 -0.0881 -0.0290
37448W        W80464  21.877  11.997  26.280 -0.0747 -0.0909 -0.0297
37449W        W80465   9.075  34.511  19.512  0.1368 -0.3300  0.0156
37450W        W80466   8.402  32.828  15.251  0.1286 -0.4883  0.0052
37451W        W80467   5.229  19.326  19.125 -0.1110  0.1378  0.0949
37452W        W80468  10.823  25.284  29.267 -0.1122  0.0078  0.2967
37453W        W80469   8.545   4.191  16.522 -0.0761  0.2537 -0.0811
37454W        W80470  12.714  17.840  14.342 -0.2696 -0.1384  0.1170
37455W        W80471   4.950  28.078   1.700 -0.0251 -0.1950  0.2409
37456W        W80472  10.771   2.536  22.358  0.1414 -0.1090  0.1037
37457W        W80473  19.368  12.039   0.854  0.2630 -0.0825 -0.0916
37458W        W80474  31.477  34.023   2.545 -0.2044 -0.0282  0.1319
37459W        W80475  22.943   3.220  16.579  0.5302  0.2928  0.2073
37460W        W80476  16.123  34.432  16.406 -0.0513  0.0315 -0.3076
37461W        W80477  16.165  10.117  16.103  0.0574  0.0038  0.0098
37462W        W80478   8.493  16.323  24.194  0.1982 -0.0671 -0.1674
37463W        W80479   8.424   4.778   1.698  0.2128  0.1121 -0.1861
37464W        W80480   9.606  22.176  23.549  0.1025 -0.3131  0.2305
37465W        W80481   2.587  24.998  18.139 -0.1459  0.6379 -0.0813
37466W        W80482  15.083   1.626   0.387 -0.2636  0.0601 -0.0239
37467W        W80483  18.966  10.939  21.393  0.2670  0.0393 -0.1464
37468W        W80484  19.775  11.360   4.197  0.3385  0.5303  0.1288
37469W        W80485  19.006  10.943  14.402 -0.1387 -0.2726  0.1727
37470W        W80486  10.944  17.141  17.288 -0.1462 -0.1818  0.1467
37471W        W80487   3.539  20.868  15.076  0.1664 -0.0998 -0.1299
37472W        W80488  31.909   9.161  25.770 -0.2602 -0.0884 -0.1641
37473W        W80489   0.220  12.504  18.646 -0.2891  0.0499  0.1714
37474W        W80490  28.735  31.788  28.966  0.1028  0.3456  0.2036
37475W        W80491  30.069  34.085  28.015 -0.1394 -0.0451 -0.0887
37476W        W80492  31.431   8.500  16.739  0.1106 -0.0692  0.1624
37477W        W80493  34.480  15.431  18.638 -0.1030 -0.1022  0.3697
37478W        W80494  32.879   9.523  21.841 -0.2520 -0.1290 -0.0185
37479W        W80495  17.001   7.259  13.891  0.1168  0.0092  0.1370
37480W        W80496  15.411   4.361  15.801  0.0998  0.4898  0.0392
37481W        W80497  32.620  10.588  21.491 -0.1883  0.2356 -0.1937
37482W        W80498   0.696   4.908  22.829  0.3942  0.2244  0.1589
37483W        W80499  21.932  12.824  18.867 -0.1176 -0.0620  0.0318
37484W        W80500   8.121  10.348  19.989  0.0540 -0.3030 -0.0458
37485W        W80501   3.994  12.205  15.321  0.3226 -0.1119 -0.0914
37486W        W80502   4.282   4.088  18.423  0.1440 -0.0308  0.0082
37487W        W80503   4.909  18.122  14.926  0.1314  0.0467 -0.0620
37488W        W80504   5.766  22.544  22.806 -0.2194  0.0880 -0.0519
37489W        W80505  28.345  26.375  21.749 -0.0453  0.0597 -0.1415
37490W        W80506  33.599  33.829   9.903 -0.0313  0.1251 -0.0460
37491W        W80507  12.343   3.466  16.500 -0.2960  0.0053 -0.2047
37492W        W80508   9.540   9.383  21.834  0.2491  0.0238 -0.0886
37493W        W80509  11.804   5.183  20.009 -0.0693  0.1907  0.0202
37494W        W80510  11.867  28.699  17.615 -0.0220  0.3907 -0.3535
37495W        W80511   0.371  30.081  28.399  0.1035 -0.0314  0.1634
37496W        W80512   2.460  11.625   2.152 -0.0546 -0.0162  0.2696
37497W        W80513  13.331   6.573  25.310 -0.0437 -0.2079  0.0754
37498W        W80514   1.276   0.702   2.644 -0.0924 -0.3000 -0.0626
37499W        W80515  13.088  25.319  20.232 -0.3650  0.1242  0.0132
37500W        W80516   8.272   7.562  15.155  0.2033  0.3032 -0.2760
37501W        W80517  32.147  28.490  16.761  0.2993  0.1220  0.2480
37502W        W80518  14.297  29.416  26.813 -0.1397  0.2023 -0.0231
37503W        W80519  15.817  10.493  18.178 -0.0087 -0.0527  0.2839
37504W        W80520  32.498  33.650  28.088  0.1450  0.0035  0.0078
37505W        W80521  14.224   0.743  18.735  0.0622  0.2137  0.1627
37506W        W80522   1.298   0.384  28.915 -0.0375  0.0389 -0.1456
37507W        W80523  13.507   3.896  15.646  0.0613  0.1149  0.0871
37508W        W80524  34.336   9.837  22.489  0.1469 -0.0109 -0.2255
37509W        W80525  13.171  32.764  25.431 -0.1412  0.0373 -0.1368
37510W        W80526   0.946  18.837   5.157 -0.1833  0.3705  0.0711
37511W        W80527   1.930  26.349   0.155  0.0566 -0.1685 -0.0010
37512W        W80528  12.323  15.811  13.417 -0.3468 -0.0317  0.1905
37513W        W80529   3.382  33.707  19.669 -0.3364 -0.0999  0.0555
37514W        W80530  34.243  12.484  27.298 -0.1512  0.3222 -0.2535
37515W        W80531  11.556   0.685  18.094 -0.1193 -0.1210  0.2330
37516W        W80532  16.590  11.364  12.770 -0.0670  0.1063 -0.1464
37517W        W80533  29.702  25.959  19.190 -0.2465  0.1433 -0.0286
37518W        W80534  10.025   1.717  22.196  0.1944  0.3376  0.3447
37519W        W80535  12.237  33.762  16.885  0.2157 -0.1081 -0.0923
37520W        W80536   1.452  18.026  15.268  0.0982 -0.3411  0.0285
37521W        W80537  14.197  30.909  23.365 -0.2001 -0.0711  0.1298
37522W        W80538  30.464   9.812  22.302 -0.1624 -0.0213 -0.1998
37523W        W80539  19.131  32.416   5.754 -0.0032 -0.3389 -0.1824
37524W        W80540  17.236   0.041  15.082 -0.0509 -0.1726 -0.3489
37525W        W80541  24.606   5.454  23.753  0.1564 -0.0811  0.1886
37526W        W80542   2.361   8.655  17.214 -0.3212 -0.4657 -0.0649
37527W        W80543  16.704   4.558  23.037  0.2419  0.1043  0.1348
37528W        W80544  20.685   5.689  23.015  0.1504  0.1094 -0.0452
37529W        W80545   7.837   0.771  24.951 -0.1185  0.2274  0.0154
37530W        W80546  18.845  31.761  27.652  0.0205  0.2850  0.4072
37531W        W80547  34.337   3.747  16.869  0.3459  0.0283 -0.1241
37532W        W80548  19.226   6.691  22.743  0.1193  0.0486 -0.1528
37533W        W80549  17.296  13.785  16.251  0.3717 -0.0463 -0.0153
37534W        W80550  27.324   0.191  20.268 -0.0184 -0.1235 -0.1663
37535W        W80551  14.183  25.467  25.200  0.0417 -0.1899 -0.1932
37536W        W80552  17.079   7.314  20.621 -0.0465 -0.0948 -0.2270
37537W        W80553  31.547  16.188  29.012 -0.1997  0.1858 -0.3064
37538W        W80554   1.854  21.553  18.911 -0.3022  0.0737  0.1231
37539W        W80555   0.707  17.004   2.044  0.1249 -0.1362  0.3310
37540W        W80556   5.346  20.204  18.516 -0.1684  0.0996 -0.0231
37541W        W80557   1.743  32.910  16.818  0.1436  0.0531  0.1163
37542W        W80558  14.722  28.304  14.116  0.0327  0.2918  0.0051
37543W        W80559  12.415  17.655  25.027  0.2759  0.0444  0.0080
37544W        W80560  11.587   8.961  17.286  0.0465  0.2349 -0.0712
37545W        W80561  23.860   6.473  19.103  0.0071  0.0496 -0.2787
37546W        W80562  33.885  12.507  25.771 -0.1039 -0.1796 -0.2477
37547W        W80563   4.142  12.123  14.290  0.0795  0.2282  0.1457
37548W        W80564   9.535  16.215  18.667 -0.1371  0.2482  0.0085
37549W        W80565  32.814  30.484   0.655 -0.2015  0.1297  0.0877
37550W        W80566  11.151  11.335  28.596 -0.1855 -0.0534 -0.4421
37551W        W80567  10.375   9.456  14.714 -0.0367  0.1557 -0.0489
37552W        W80568  12.977  10.835  22.465 -0.2921 -0.0017  0.0468
37553W        W80569  21.768   6.595  18.497  0.0671 -0.1146  0.1180
37554W        W80570   4.292   1.219  16.644 -0.0284  0.2575  0.0147
37555W        W80571  24.855  33.998  25.422  0.2887  0.2289  0.0712
37556W        W80572   9.961  30.472  24.231 -0.1246 -0.1398  0.1615
37557W        W80573  32.925  10.310  20.878  0.1601 -0.1397 -0.3639
37558W        W80574  24.610  32.574  23.880 -0.0311  0.0837 -0.1526
37559W        W80575   4.815   3.011  19.917  0.0722  0.0453 -0.0232
37560W        W80576   6.082  26.690  16.618  0.1601  0.0665 -0.0156
37561W        W80577  30.016  32.433  20.381 -0.2195  0.1513 -0.2001
37562W        W80578   5.146  10.455  17.641 -0.1402 -0.3410  0.1674
37563W        W80579  33.033   4.348   6.654 -0.2450  0.5498 -0.3257
37564W        W80580   8.333   9.278  24.822 -0.4522  0.0713 -0.0087
37565W        W80581  25.369  33.701  16.405 -0.0465 -0.0718 -0.4688
37566W        W80582  32.002   3.042  21.328 -0.1120 -0.0851 -0.1170
37567W        W80583   0.635  24.967  19.651 -0.0168 -0.1764  0.1849
37568W        W80584  14.024  11.124  27.650 -0.2573 -0.0449 -0.0696
37569W        W80585  13.318  31.408  14.674  0.0046 -0.0498 -0.3972
37570W        W80586   3.882  34.055  25.566  0.1111  0.1187  0.1893
37571W        W80587   8.753  28.594  23.837  0.1431  0.0051 -0.0091
37572W        W80588   2.338  31.124  17.855  0.1510 -0.0231 -0.1875
37573W        W80589  14.314  11.209  15.518 -0.2925 -0.1139 -0.3013
37574W        W80590  27.303  16.624  28.835 -0.0309  0.0365 -0.0307
37575W        W80591  20.444  24.979  17.673  0.0527  0.3239 -0.1617
37576W        W80592  18.949  30.307  15.036  0.0389  0.0458  0.3090
37577W        W80593  31.904   6.211  18.498 -0.0824  0.4471  0.3476
37578W        W80594  26.219  26.220  23.124  0.4411 -0.1292  0.0139
37579W        W80595  19.905   3.064   1.887 -0.2463 -0.1889 -0.1581
37580W        W80596  16.592   9.835  19.121 -0.1245 -0.1574  0.1399
37581W        W80597  16.696  26.810  16.448  0.1016 -0.0128 -0.0163
37582W        W80598  32.197  27.386  25.206 -0.1980  0.1491 -0.0841
37583W        W80599   1.141  14.857  16.979 -0.1920 -0.0048  0.2637
37584W        W80600   7.734  22.709  26.566  0.2005  0.0428  0.4366
37585W        W80601   3.588  24.013   2.798 -0.0595 -0.0357  0.0144
37586W        W80602  29.421  33.342  20.492 -0.0959 -0.0733  0.0205
37587W        W80603  10.386  19.815  25.326 -0.2958 -0.0604 -0.0961
37588W        W80604  15.654   1.773  22.178 -0.3043  0.0381  0.1331
37589W        W80605  12.942  15.107  23.624  0.3909 -0.2216  0.0624
37590W        W80606  16.702  33.517  16.350 -0.1262 -0.0954  0.0744
37591W        W80607  19.061  11.410  14.110  0.1768  0.1252  0.1762
37592W        W80608   8.157   5.492  26.035 -0.0643 -0.1988  0.0503
37593W        W80609   7.807  13.078  14.272  0.1312 -0.1239 -0.1139
37594W        W80610  30.125   5.774  26.574 -0.0566 -0.3588 -0.0358
37595W        W80611   5.797  12.520  14.642 -0.0570 -0.1697 -0.1220
37596W        W80612  23.778   2.443  25.085 -0.2422  0.1902  0.0078
37597W        W80613  18.850   2.080   0.189 -0.3264 -0.0907  0.2301
37598W        W80614   9.249   2.471   4.461  0.0568 -0.0577  0.2329
37599W        W80615   5.048  12.186  17.889 -0.0999  0.0952 -0.0883
37600W        W80616  19.633  11.895  15.138 -0.4411  0.1536  0.2458
37601W        W80617  21.267  10.753   2.967  0.2490 -0.0243 -0.2521
37602W        W80618  17.296   8.295  28.086 -0.4244 -0.2094 -0.0622
37603W        W80619  15.280  30.761  24.385  0.0457  0.4313  0.1487
37604W        W80620  18.967  10.788  22.452  0.1832  0.2588  0.3551
37605W        W80621  10.308  14.264  27.774  0.1578 -0.1269 -0.0105
37606W        W80622  14.051  31.144  25.102  0.2399  0.0199  0.0789
37607W        W80623  11.480  26.328  21.573  0.0670  0.0377 -0.1375
37608W        W80624  23.035  30.867   4.701 -0.1058 -0.1034  0.3238
37609W        W80625   8.364   7.365  19.533 -0.2056  0.2810  0.1486
37610W        W80626  11.477  11.866  15.988  0.0841  0.1350  0.1645
37611W        W80627  18.130   1.843   0.355 -0.1377 -0.2881 -0.0864
37612W        W80628  18.598  11.821  18.707 -0.1815 -0.3594  0.0028
37613W        W80629   0.684  13.922  16.912 -0.1429  0.1294 -0.1404
37614W        W80630   9.000  25.923   1.808 -0.0877 -0.1166 -0.3054
37615W        W80631  14.778   8.555  17.346  0.1037 -0.0733  0.1319
37616W        W80632  23.167   6.051  22.199  0.2875 -0.1915  0.1556
37617W        W80633  14.083  29.682  16.116  0.1992 -0.0367  0.0226
37618W        W80634   6.729   6.581  20.240 -0.0042 -0.1173  0.0060
37619W        W80635  21.974  28.300   2.016  0.0666 -0.3104  0.1200
37620W        W80636   4.609   5.606  23.082  0.0166 -0.2650 -0.2297
37621W        W80637  29.374  27.605  20.989  0.2916  0.1694  0.2638
37622W        W80638  13.831  28.573  23.677  0.0957  0.2380 -0.0305
37623W        W80639  11.254   5.962  19.412  0.1997  0.4563 -0.1846
37624W        W80640   4.352  20.329  18.155  0.2809  0.0227  0.1631
37625W        W80641  10.719  22.956  15.484 -0.1062  0.1432 -0.0160
37626W        W80642   9.423  15.893  20.713  0.0136  0.0457  0.1242
37627W        W80643  31.347   4.752  19.411  0.1566  0.0054 -0.0297
37628W        W80644  28.565  28.431  28.580 -0.0784 -0.2502 -0.1885
37629W        W80645  18.238   9.024  22.362  0.0435  0.2523 -0.1010
37630W        W80646  27.716   1.103   8.307 -0.0446  0.1121  0.1076
37631W        W80647  11.387  19.487  20.924  0.2173  0.1097  0.0132
37632W        W80648   5.192   9.992   8.888 -0.2377 -0.0363  0.1831
37633W        W80649  30.804  32.474  27.652 -0.0237 -0.1600  0.0732
37634W        W80650  25.871  34.595  26.774  0.0032  0.1786  0.1772
37635W        W80651   8.608   2.909  20.056  0.3843  0.1179 -0.1542
37636W        W80652  18.455  11.093  14.306 -0.2479 -0.2323  0.1128
37637W        W80653   8.847   6.211   4.125 -0.2641 -0.0201  0.1766
37638W        W80654  13.899  30.079  17.253 -0.1130 -0.0573 -0.3126
37639W        W80655   1.778  33.518  17.559  0.0891  0.0794 -0.1165
37640W        W80656   1.907  21.298  24.571 -0.1692 -0.1255  0.1920
37641W        W80657   9.572  10.336   2.201 -0.2035  0.0711  0.0336
37642W        W80658  13.031   6.419  24.938 -0.0147  0.2942  0.2064
37643W        W80659  17.648   4.926  24.392 -0.1687  0.0857 -0.2922
37644W        W80660  13.457   7.038  19.477  0.0324 -0.2709 -0.0390
37645W        W80661   9.542  11.148  27.210 -0.4300 -0.1307  0.3890
37646W        W80662   8.806   2.258  16.335 -0.2452 -0.1343  0.1630
37647W        W80663  23.168  22.349  18.073 -0.2152  0.0837 -0.0360
37648W        W80664  16.780   1.339  17.010 -0.1732 -0.1677  0.0694
37649W        W80665   6.918  31.776  20.185 -0.0377  0.0424  0.0698
37650W        W80666  17.611   8.170  29.172  0.4483 -0.2212 -0.0719
37651W        W80667  13.022   6.703  14.521 -0.1919 -0.0487 -0.0746
37652W        W80668   7.273  13.243  15.546 -0.1599 -0.0027 -0.0052
37653W        W80669   0.547   9.262  17.613 -0.0645 -0.1850  0.3033
37654W        W80670   7.059   8.173  13.671  0.2334  0.1122  0.2698
37655W        W80671  32.249  30.301  26.161  0.1500  0.0583 -0.3029
37656W        W80672  19.452   6.367  16.276 -0.1389  0.1622  0.2882
37657W        W80673   1.769   3.856  21.855  0.1045  0.0824  0.1588
37658W        W80674  10.819   2.997  17.279  0.4148 -0.3777  0.0992
37659W        W80675  30.130  17.625  14.244  0.0456 -0.0259 -0.1680
37660W        W80676  23.674   4.709  20.062  0.1800 -0.2218 -0.1992
37661W        W80677   0.497  10.584  22.974 -0.0893  0.1179  0.2288
37662W        W80678  14.764   9.328  13.530 -0.0234 -0.1368 -0.0842
37663W        W80679  27.321  34.074  21.838  0.2330  0.2650  0.1820
37664W        W80680   2.315  20.103  23.929 -0.3632 -0.0140  0.1027
37665W        W80681  27.413  12.850  22.025 -0.2543  0.0084  0.3310
37666W        W80682  25.696   7.883  29.105 -0.3524 -0.0134 -0.2605
37667W        W80683   4.326   0.275  18.647 -0.4218  0.1192 -0.1394
37668W        W80684  11.988  32.783  22.450  0.0240 -0.1825  0.3594
37669W        W80685   4.653  17.076  24.718  0.0113  0.1187  0.3634
37670W        W80686  18.953  33.682  27.176 -0.2584 -0.2048  0.1343
37671W        W80687  13.447  33.305  29.216  0.0303 -0.1577  0.2052
37672W        W80688  12.006  10.159  14.900 -0.0259  0.0989 -0.0900
37673W        W80689   4.460  10.841  27.212 -0.3940 -0.2136 -0.0973
37674W        W80690   4.702  28.717  27.777  0.1106  0.1190  0.1592
37675W        W80691   1.851   2.769  14.158 -0.1437 -0.1526 -0.0099
37676W        W80692  25.635   7.915  22.987 -0.0322  0.0845  0.0524
37677W        W80693  21.925  11.859  13.377 -0.2930  0.2349 -0.1262
37678W        W80694   4.754  18.313  26.838 -0.2747 -0.1725 -0.0412
37679W        W80695  26.402   0.473  15.874  0.1331 -0.0456  0.3602
37680W        W80696   5.771   7.412  17.705 -0.4058 -0.0974  0.0230
37681W        W80697  19.979  12.221   1.348 -0.1863  0.1144 -0.1771
37682W        W80698   7.471   6.360  21.511  0.2446 -0.1923 -0.0143
37683W        W80699  19.496  25.167  17.517 -0.0651 -0.2188  0.3379
37684W        W80700  13.768   8.671  21.952  0.1951  0.1126 -0.0055
37685W        W80701  17.898   4.348  14.173  0.0664  0.0792 -0.2675
37686W        W80702  24.669   6.083  16.862 -0.1236  0.3087 -0.1031
37687W        W80703   5.655  15.635  15.006 -0.1146 -0.1840 -0.2082
37688W        W80704  22.210   2.737  21.691 -0.4536  0.1112 -0.2879
37689W        W80705  24.591  27.021  18.404 -0.0939  0.3312 -0.1516
37690W        W80706   2.817   5.900  18.598 -0.1121  0.0556  0.0695
37691W        W80707   9.310  23.546  12.745 -0.0774  0.0128  0.1542
37692W        W80708   2.658  12.791  15.136  0.1271 -0.3528 -0.0076
37693W        W80709  13.278  12.958   3.702 -0.0559 -0.2316 -0.0434
37694W        W80710  10.786  17.958  14.110 -0.0512  0.0448  0.1403
37695W        W80711  12.011   6.504  16.488  0.0482 -0.0594 -0.1203
37696W        W80712  18.309  32.431  26.248 -0.3241 -0.0926 -0.0427
37697W        W80713  11.051   2.584  17.421  0.1757 -0.0462 -0.0956
37698W        W80714   3.880  16.751  18.448  0.1415 -0.0380 -0.2122
37699W        W80715   7.848  13.031  18.994 -0.0479  0.2220  0.0496
37700W        W80716  14.830   6.151   1.588  0.0300  0.2848  0.1560
37701W        W80717   5.137   8.226  14.413 -0.0458  0.1701  0.0946
37702W        W80718  25.683  27.865  20.504 -0.0125 -0.0771  0.0653
37703W        W80719  15.910   8.049  17.993 -0.0267  0.2248  0.2289
37704W        W80720  12.522  31.063   1.936 -0.1359 -0.1609 -0.0889
37705W        W80721   6.852   1.793  15.465 -0.0499  0.2462 -0.0614
37706W        W80722  13.063  31.808  17.231  0.0680  0.2122  0.1697
37707W        W80723   9.744  16.244  16.427  0.0532  0.2106  0.1577
37708W        W80724  30.663   5.729  20.257 -0.0793 -0.0304 -0.1931
37709W        W80725   3.914   4.812  16.460 -0.1099 -0.1671  0.1178
37710W        W80726   7.206   2.839  15.666  0.1505  0.0912  0.0138
37711W        W80727  26.915   7.338  18.740 -0.2046 -0.0196  0.1148
37712W        W80728  11.217   9.692  14.298 -0.3204  0.0588  0.0762
37713W        W80729   6.989   9.938  23.564  0.2668 -0.1995  0.5040
37714W        W80730  25.524   5.546  17.211  0.1606  0.1191  0.2071
37715W        W80731   9.134   3.298  25.824  0.1094  0.0526  0.0536
37716W        W80732  17.686   4.266  24.477 -0.2049  0.1147 -0.1310
37717W        W80733  18.289  15.050  12.286  0.0831  0.0626  0.1225
37718W        W80734   7.151   5.182  26.389 -0.0316 -0.2507  0.2342
37719W        W80735  17.501  18.949   1.397 -0.4685 -0.2624  0.2986
37720W        W80736  10.424  25.429  13.762  0.0293 -0.0938  0.0790
37721W        W80737  26.655   6.846  19.358 -0.0436  0.0362 -0.0558
37722W        W80738  20.002   6.909  20.826  0.0100 -0.0535  0.2428
37723W        W80739   8.797   6.833  23.276  0.0033 -0.0304 -0.0450
37724W        W80740  20.275   3.822  19.574 -0.0729  0.3965  0.0469
37725W        W80741   6.433  12.347  25.900 -0.1228  0.2786 -0.1303
37726W        W80742  11.073   7.579  19.048 -0.0053 -0.1780 -0.0114
37727W        W80743   7.006   7.151  16.959  0.2207 -0.3925  0.0830
37728W        W80744   2.395  31.558  27.942 -0.1010  0.0484 -0.0257
37729W        W80745  14.609  33.256  18.192 -0.1236 -0.0360 -0.2027
37730W        W80746  17.520   6.448  26.823  0.2113  0.1261  0.1422
37731W        W80747  23.188  22.947   4.646 -0.0252  0.4264  0.1033
37732W        W80748  14.564  12.747  19.441 -0.1895 -0.0343  0.3319
37733W        W80749   9.279   7.523  19.541  0.1773 -0.0080  0.0026
37734W        W80750  10.084  26.967  28.022 -0.3263  0.0474 -0.4403
37735W        W80751   6.498  10.035  23.131  0.1788 -0.0343  0.0592
37736W        W80752  22.103   8.222  15.577  0.2830 -0.3870  0.1892
37737W        W80753   3.973  16.189  14.084  0.0043  0.2034 -0.0855
37738W        W80754   3.079  34.200  26.671  0.0741  0.2301 -0.1329
37739W        W80755  18.321  32.293   0.412 -0.2037 -0.1832  0.0445
37740W        W80756   6.817   8.304  28.294  0.2642  0.1011 -0.3665
37741W        W80757   9.044  11.142  17.956 -0.0124  0.1476 -0.1388
37742W        W80758  15.461   2.813  16.496  0.0751 -0.2325 -0.1791
37743W        W80759  16.307   7.156  14.575  0.1586 -0.0995 -0.3998
37744W        W80760  11.645  12.259  19.453  0.0035  0.0648 -0.2443
37745W        W80761  22.288  12.445  22.090  0.1439  0.1454  0.2613
37746W        W80762   3.438  18.698  14.791  0.0263  0.0459  0.0432
37747W        W80763   1.943   6.554   8.025 -0.0897 -0.2227 -0.3749
37748W        W80764  20.094  24.043  14.312 -0.0922  0.0525  0.1301
37749W        W80765   3.666  14.021   6.283 -0.0156 -0.0397  0.4300
37750W        W80766  12.174  29.131  17.141 -0.0003  0.1186  0.3577
37751W        W80767  17.330  33.033  28.576  0.2812  0.1184  0.1773
37752W        W80768   2.244   9.036  14.886  0.3569  0.4532 -0.0538
37753W        W80769   0.644  15.272  20.631 -0.6822 -0.1125 -0.1850
37754W        W80770   8.723  13.116  20.478  0.1633 -0.2918 -0.0669
37755W        W80771  11.901  26.730  13.957  0.1657 -0.1508 -0.1441
37756W        W80772  19.238  10.890  15.763  0.4289  0.0902 -0.0525
37757W        W80773  30.174   4.155  23.624 -0.1326  0.0541  0.1991
37758W        W80774  31.468  21.809  20.346  0.0701  0.0835  0.2428
37759W        W80775  34.219   9.468   3.552 -0.1791 -0.0784  0.0019
37760W        W80776   1.485  16.743  15.180 -0.3012 -0.2807 -0.2533
37761W        W80777  21.315   7.056  22.728  0.0909 -0.0035  0.1154
37762W        W80778   9.435  21.724   8.117 -0.0785 -0.3077 -0.0794
37763W        W80779  34.441  34.717  21.942  0.5920  0.0981 -0.1979
37764W        W80780   1.827   2.392  14.506 -0.2339 -0.1125  0.1392
37765W        W80781  31.656   7.020  23.839 -0.0645 -0.0966 -0.3551
37766W        W80782  20.699   5.874  20.633 -0.1138 -0.0527 -0.0035
37767W        W80783  13.143  30.193  21.485 -0.0558  0.2549  0.1666
37768W        W80784  16.752   7.587   8.485 -0.0660  0.0678  0.0055
37769W        W80785   8.890   2.785  21.577 -0.0042 -0.1087 -0.0463
37770W        W80786  11.266  31.620  20.431  0.1317  0.3486  0.2326
37771W        W80787  26.643  17.117  16.221  0.1692  0.2209 -0.2829
37772W        W80788   0.545  16.925  21.358  0.1484  0.0974 -0.0346
37773W        W80789  23.022   1.536  20.969 -0.0570  0.0490  0.3614
37774W        W80790  13.144  19.439  24.703  0.3371  0.0392 -0.1085
37775W        W80791   5.584   9.392  24.096 -0.0524 -0.0111  0.2656
37776W        W80792  34.470   1.005  17.456  0.0547  0.0048 -0.0292
37777W        W80793  31.181   5.786  19.057  0.3010  0.2901  0.0223
37778W        W80794  11.603  13.400  17.546  0.0360  0.1155  0.2946
37779W        W80795  10.467  20.713  12.992  0.2016  0.0102  0.2543
37780W        W80796   6.645  33.869  15.130 -0.0510 -0.3973  0.0507
37781W        W80797  13.046  28.524  26.502 -0.0201 -0.2558 -0.3177
37782W        W80798  14.369   4.370  28.620 -0.0661  0.0644  0.1612
37783W        W80799  13.985   4.535  17.305 -0.3492  0.2688  0.1616
37784W        W80800  23.990   6.208  23.727 -0.0315  0.2373 -0.2518
37785W        W80801  33.091   6.975  23.168  0.0904  0.1816  0.0668
37786W        W80802  33.557   6.623  15.352 -0.0640 -0.0409  0.1384
37787W        W80803  10.592  33.207   2.516  0.2905 -0.2362 -0.1430
37788W        W80804  12.798  16.370  20.453  0.0414  0.3084 -0.0598
37789W        W80805  20.574   3.907  24.307 -0.1180  0.1388 -0.1432
37790W        W80806   2.347  11.460  16.441 -0.0943 -0.1896  0.2194
37791W        W80807  16.167   5.220   1.563 -0.0168  0.1416  0.1301
37792W        W80808  18.651  29.697  27.743  0.0011 -0.0639  0.0207
37793W        W80809  24.934   9.310  26.478 -0.0770 -0.1467 -0.0189
37794W        W80810   1.578   9.007  24.222  0.0456  0.1540 -0.2970
37795W        W80811  33.145  22.054  24.454  0.0761  0.2317 -0.0940
37796W        W80812  15.783  16.532  15.557  0.1691 -0.2028  0.3870
37797W        W80813  15.667  14.809  13.750  0.0774  0.0048  0.0265
37798W        W80814  16.521  32.320  17.802 -0.1457 -0.0960 -0.2902
37799W        W80815  14.274  26.846  20.496  0.1399  0.2480  0.4356
37800W        W80816  17.435  23.990  27.432 -0.0413 -0.2054 -0.0081
37801W        W80817  20.126  14.288  13.440  0.1745  0.1581 -0.1573
37802W        W80818   0.982   2.962  23.319 -0.1663  0.0156 -0.0013
37803W        W80819  17.600   0.013  18.692  0.0010 -0.0819  0.2503
37804W        W80820   9.974  30.609  15.392 -0.1754 -0.4978 -0.1401
37805W        W80821  15.112  23.543   3.697  0.0602 -0.1176  0.4049
37806W        W80822  29.897  29.940  20.255 -0.0413  0.1505 -0.1564
37807W        W80823  21.338  12.084   3.082 -0.0214  0.1218  0.0903
37808W        W80824   2.856  32.609  22.335 -0.2238 -0.1939 -0.3347
37809W        W80825  12.387  11.452  26.699 -0.0291 -0.1002 -0.0481
37810W        W80826  11.989   8.597  17.307 -0.0545 -0.0617 -0.0106
37811W        W80827  10.811   2.817   8.178 -0.1757  0.1984  0.0976
37812W        W80828  31.415  30.897  23.296 -0.1023  0.1500  0.4098
37813W        W80829   5.056  18.391  18.624  0.1444  0.4075  0.0778
37814W        W80830  26.101  15.625  28.915  0.0159  0.3281 -0.1715
37815W        W80831   5.772  15.632   6.793  0.0617  0.1505 -0.1328
37816W        W80832  12.485  29.356  21.853  0.1125 -0.1161 -0.0076
37817W        W80833   9.207  11.703  22.854 -0.1164 -0.1580 -0.0260
37818W        W80834  34.734  21.196  17.930 -0.0898 -0.0611 -0.4002
37819W        W80835  33.973  25.093   6.343 -0.2177  0.0715  0.1498
37820W        W80836   6.481  16.986   1.660  0.0953 -0.1185 -0.1038
37821W        W80837   5.964  13.540  24.351 -0.2842  0.0695  0.3511
37822W        W80838  32.724   1.312  26.374  0.5025  0.3397  0.0872
37823W        W80839   7.506   9.115   2.535 -0.1578 -0.3951  0.0384
37824W        W80840  20.987   5.257  21.711  0.0957 -0.3644  0.1416
37825W        W80841   7.062   6.668  21.288 -0.0954  0.1580 -0.2797
37826W        W80842  10.967  34.548   6.680 -0.0893 -0.1306 -0.1473
37827W        W80843   4.752  10.718  16.377  0.1200  0.0444  0.0621
37828W        W80844   6.840  34.237  24.692  0.2461  0.0971  0.0688
37829W        W80845   9.299   4.282   1.122  0.0855 -0.1287  0.0101
37830W        W80846  25.089   6.960  17.166  0.2208 -0.2797  0.1336
37831W        W80847   8.793  26.217  22.235  0.1868  0.2548  0.1698
37832W        W80848   0.393  28.974  28.807  0.2511  0.0024  0.1625
37833W        W80849   4.263  11.477  22.340  0.2523 -0.0800  0.0383
37834W        W80850   3.464   9.035  29.123  0.0367  0.3924  0.3653
37835W        W80851  10.467   2.669  14.159 -0.1911 -0.0326  0.2797
37836W        W80852   7.121  11.021   0.780  0.1936 -0.1744  0.0748
37837W        W80853  17.522  29.437  17.680  0.1322  0.1100  0.1873
37838W        W80854  18.069  12.485  21.043 -0.2970  0.0396 -0.0468
37839W        W80855   7.603  29.378  19.600 -0.2179  0.0712 -0.3230
37840W        W80856   1.422  33.518  19.493  0.2557 -0.0684 -0.3812
37841W        W80857  12.136  10.074  22.616 -0.0238 -0.1432 -0.0295
37842W        W80858   8.367   9.705  21.970  0.1399 -0.3047 -0.0681
37843W        W80859  19.288  31.132  18.019 -0.1206  0.1372 -0.1859
37844W        W80860  16.881  11.011  13.164 -0.2279  0.0452  0.1569
37845W        W80861   7.506  26.464  17.426 -0.1429 -0.0420 -0.2881
37846W        W80862  14.176  33.943   5.257 -0.0423 -0.4448  0.4358
37847W        W80863  18.492  13.093  20.360 -0.1381  0.0019  0.1549
37848W        W80864  10.001   0.844  24.656 -0.0469  0.2059 -0.0039
37849W        W80865  18.599  21.830  27.264  0.1005  0.1134 -0.2760
37850W        W80866   5.376  18.709  12.861 -0.2149  0.0999  0.1609
37851W        W80867   3.409   1.693  24.258 -0.2440  0.0620 -0.0621
37852W        W80868  23.845  21.769  23.613  0.2243 -0.2856  0.0181
37853W        W80869   4.394  27.510  19.073  0.0875 -0.1339 -0.0489
37854W        W80870   7.896  17.747  16.968  0.2914 -0.0503  0.0167
37855W        W80871  23.321   1.833  18.126  0.0795 -0.0726  0.0240
37856W        W80872   2.985   0.263  25.338 -0.1389 -0.0956  0.1312
37857W        W80873  17.634  23.640  21.933  0.3245  0.2277  0.0621
37858W        W80874  33.980   5.746  16.558  0.2823  0.2968  0.0813
37859W        W80875  20.822   1.992   9.956  0.0098 -0.2702 -0.1379
37860W        W80876  34.235   9.463  19.817 -0.1533  0.1227 -0.0794
37861W        W80877  20.140  29.947  14.434 -0.1328 -0.1693 -0.2039
37862W        W80878   0.490  11.144  26.519 -0.1480  0.0253  0.1421
37863W        W80879  33.157   8.166  14.376  0.2174  0.0187  0.1700
37864W        W80880  31.137  21.092  18.524 -0.0504  0.0974  0.0466
37865W        W80881   3.233  33.253  17.484 -0.1214 -0.1873 -0.0968
37866W        W80882   5.972  26.072  29.002 -0.1029 -0.0582  0.0784
37867W        W80883   5.819  13.011   3.750 -0.4113  0.0128  0.2133
37868W        W80884  28.952  28.812  26.867  0.2360 -0.1047  0.1172
37869W        W80885  12.571  16.937  21.500 -0.1164  0.1523 -0.0741
37870W        W80886  14.565   5.874  28.039  0.1623 -0.0106  0.1064
37871W        W80887  10.434   4.494  16.912  0.1706  0.1678 -0.1478
37872W        W80888   6.987  34.605   2.500 -0.0409  0.2802  0.0336
37873W        W80889  28.430   7.463  11.795 -0.0479  0.0276  0.0532
37874W        W80890  11.160  30.312  22.682  0.0415  0.0541 -0.1957
37875W        W80891  13.605  22.491  21.080 -0.1005 -0.0342 -0.0738
37876W        W80892  12.062   0.194   4.403  0.0911  0.2634  0.3105
37877W        W80893   1.912   0.519  15.055 -0.2382 -0.1951 -0.0900
37878W        W80894  14.521  28.292  19.623  0.0809  0.3955  0.0597
37879W        W80895  13.732  21.601  20.912  0.0371 -0.0127 -0.1106
37880W        W80896  15.124   7.379  15.021  0.1242  0.2142 -0.2412
37881W        W80897  10.839  31.653   2.463  0.0824  0.3817 -0.2598
37882W        W80898  21.995  27.505  15.362  0.0229  0.1759  0.0251
37883W        W80899   7.022   9.889  13.518  0.0517  0.2607 -0.2811
37884W        W80900   5.676  29.028  23.254 -0.2938  0.1162 -0.2258
37885W        W80901  21.847   1.062  24.978 -0.0539 -0.0081 -0.3125
37886W        W80902  24.797  20.514  25.033 -0.0309  0.1866  0.0452
37887W        W80903  32.224   7.013  20.314  0.2505  0.2759  0.3426
37888W        W80904   0.405  31.842  26.029 -0.3549 -0.0444 -0.0677
37889W        W80905  13.922   5.874  24.363  0.2296  0.2571  0.0218
37890W        W80906   0.653  32.680  19.805  0.1257  0.0878  0.1741
37891W        W80907  16.716  24.777  19.645 -0.2073  0.1183 -0.0265
37892W        W80908  22.627  29.204  19.508  0.1068 -0.0886 -0.1134
37893W        W80909   7.144   2.594  15.228  0.0164  0.2108 -0.0538
37894W        W80910  13.474   1.378  28.143  0.2078 -0.2658  0.1272
37895W        W80911  27.246  16.536   0.519  0.3291  0.2410 -0.0674
37896W        W80912  14.244   6.791  25.119  0.0956  0.0621 -0.1849
37897W        W80913   3.957   9.097  20.546 -0.0981  0.2332  0.1185
37898W        W80914  18.197  11.608  15.402  0.0137  0.4168 -0.2232
37899W        W80915  32.211  30.055  22.351 -0.0377  0.6093  0.2404
37900W        W80916   7.488  24.955  25.813 -0.1943  0.3052 -0.0946
37901W        W80917  14.253  12.372  12.202  0.3066 -0.0774 -0.3036
37902W        W80918  10.943  14.294  23.752 -0.2605  0.0562 -0.1920
37903W        W80919   5.116  13.054  28.256 -0.1203  0.2140  0.0710
37904W        W80920  33.008  19.090  15.929 -0.2042 -0.0062 -0.0961
37905W        W80921   8.901  29.905   1.245  0.1212 -0.0906 -0.1990
37906W        W80922  34.482  27.559  23.841  0.1911 -0.2740 -0.1892
37907W        W80923  16.217  14.314  25.265 -0.0261  0.1824  0.1305
37908W        W80924   7.950  32.486  18.479  0.1275 -0.0579  0.2645
37909W        W80925  13.100   5.313  20.371 -0.4806 -0.1060 -0.0027
37910W        W80926   5.253  21.969  29.090 -0.2214  0.0366  0.0385
37911W        W80927   4.973  19.241   3.797 -0.2160  0.1080 -0.0945
37912W        W80928  10.415  27.326   6.661  0.0066  0.0439 -0.0438
37913W        W80929   0.855   3.191  18.698  0.3646  0.0902  0.0777
37914W        W80930  14.814  27.712   5.676  0.1116 -0.0699  0.0445
37915W        W80931   5.296  23.973   0.691  0.3229  0.2199 -0.0307
37916W        W80932   0.310  20.286  18.882  0.1322  0.2041 -0.0519
37917W        W80933   6.408   7.693   2.902  0.0324  0.2685 -0.0401
37918W        W80934   0.448  32.430  22.745  0.2352 -0.0067 -0.1188
37919W        W80935  29.559   1.111  22.752  0.3462 -0.0046 -0.0947
37920W        W80936   8.817  22.910  15.151  0.0024 -0.1703  0.1729
37921W        W80937  34.287   7.100  17.139 -0.4558  0.2430 -0.0001
37922W        W80938  15.618  30.791  14.778  0.0383 -0.1547  0.0684
37923W        W80939   1.539   8.311  18.605  0.1827  0.1467 -0.1207
37924W        W80940   6.056   1.105  21.815  0.0619 -0.0010  0.0245
37925W        W80941  13.689   8.540  18.671  0.0503  0.1466 -0.1510
37926W        W80942  21.020   5.297  14.703 -0.0974 -0.0467 -0.0460
37927W        W80943  15.383  32.725  26.588  0.2176  0.1738  0.3620
37928W        W80944  12.274   4.858  15.940  0.0815 -0.1612 -0.0329
37929W        W80945  17.021  13.318   1.924 -0.2726 -0.0218  0.0908
37930W        W80946  15.841  16.964  25.232 -0.0244  0.1966  0.1788
37931W        W80947  10.918   6.822  19.635  0.2351 -0.1990  0.1632
37932W        W80948  15.375   5.132  26.112 -0.3551 -0.0064 -0.2950
37933W        W80949  12.004  14.767  21.716 -0.3322 -0.0246 -0.0198
37934W        W80950  15.465   0.002  15.299 -0.0015 -0.1523  0.0827
37935W        W80951   9.512   2.267  16.888  0.3278  0.2338  0.0469
37936W        W80952   7.135  16.084  13.889  0.0421  0.2148 -0.2044
37937W        W80953  10.659  21.160   1.812 -0.1760  0.1656 -0.0714
37938W        W80954  10.700  13.897  23.633  0.4062 -0.1314  0.1138
37939W        W80955  30.313   8.503  25.260 -0.5296  0.0475  0.0508
37940W        W80956  19.361   7.502   1.262 -0.0292  0.1057  0.1001
37941W        W80957  18.607  30.305  28.680 -0.3934  0.4059 -0.1289
37942W        W80958   8.540  12.578  26.737  0.3610  0.1710  0.0093
37943W        W80959  16.281   5.505  17.675 -0.4555  0.3278 -0.1978
37944W        W80960   8.034  31.939  24.198 -0.1616 -0.1614 -0.0432
37945W        W80961  16.802   8.695  18.975 -0.1591  0.2670  0.1268
37946W        W80962  19.069  14.647   2.930  0.0694  0.1202  0.0470
37947W        W80963   3.879   0.903  22.422 -0.0288 -0.2092 -0.3039
37948W        W80964  30.882  26.960   1.317  0.1062  0.1298  0.0121
37949W        W80965  32.556   5.544   2.115 -0.2357  0.0456 -0.3220
37950W        W80966  14.983  32.180  19.182  0.0640  0.1688 -0.0024
37951W        W80967  19.854   1.382   4.288  0.0059  0.2417 -0.1981
37952W        W80968   6.885  34.729  25.553  0.0588  0.1233  0.2115
37953W        W80969  31.252  22.875  20.615  0.3355  0.1991  0.0515
37954W        W80970  20.204  33.627  16.883 -0.0654  0.0237  0.2253
37955W        W80971  34.435   0.115  15.679  0.1938 -0.1462  0.0738
37956W        W80972  10.651  17.236  24.664 -0.0733  0.0722  0.0152
37957W        W80973   9.745   9.990  19.979  0.0537  0.0921  0.2131
37958W        W80974   6.521   0.588  20.955  0.1377  0.0300  0.3068
37959W        W80975  29.608  29.697  22.127  0.0460 -0.1993 -0.2125
37960W        W80976   0.948   5.104  15.235  0.0889 -0.0454  0.0316
37961W        W80977   6.738  27.181  23.471  0.0534 -0.2587  0.4195
37962W        W80978  14.986  30.221   2.393  0.2913 -0.0279  0.3998
37963W        W80979  27.708  21.371  16.072  0.1134  0.2882 -0.0168
37964W        W80980   7.111  15.216  19.222 -0.1386  0.0732 -0.0017
37965W        W80981   5.543  28.136  23.245 -0.1605 -0.1996  0.4762
37966W        W80982  11.748  12.927  26.767  0.1281  0.0966 -0.0670
37967W        W80983   6.038   4.265  25.380  0.2098 -0.1820  0.0347
37968W        W80984  16.415  11.726   8.429 -0.1302 -0.0321 -0.2599
37969W        W80985   5.259  30.509  18.982  0.0701  0.2797  0.1019
37970W        W80986   7.884  27.593   2.069 -0.3068  0.0959 -0.0679
37971W        W80987  14.635  34.003  15.194 -0.0308 -0.0756  0.0065
37972W        W80988  23.327  12.378  26.193  0.0152 -0.0163  0.2414
37973W        W80989   4.652  22.327  26.130  0.0613 -0.2233  0.0937
37974W        W80990  13.070   2.601  14.949 -0.0525 -0.1368  0.0245
37975W        W80991   3.047  27.595  20.831  0.2939 -0.1568 -0.0719
37976W        W80992  12.482   7.149  26.510  0.0306  0.1718  0.0669
37977W        W80993  14.315  33.848  17.295 -0.2443 -0.0091  0.1885
37978W        W80994  16.689   3.084  27.102  0.0301 -0.2530  0.1365
37979W        W80995  29.340   5.173  20.145  0.1764  0.1933  0.1984
37980W        W80996   0.122   3.497  23.677 -0.0323  0.2330  0.2380
37981W        W80997  17.335  17.531  12.341 -0.1262  0.1012  0.1979
37982W        W80998  23.795   0.222  15.918  0.1757  0.1445  0.2169
37983W        W80999  32.916  31.456   1.135  0.2394 -0.1977 -0.2089
37984W        W81000  12.731  22.196  16.897  0.0777 -0.1096 -0.1340
37985W        W81001  27.084   5.886  17.727  0.0032  0.0873  0.4218
37986W        W81002  12.852  24.801  18.512  0.0929 -0.1200  0.0321
37987W        W81003  11.924  10.787  14.426 -0.1316 -0.1257  0.1597
37988W        W81004   7.930  14.266  17.061 -0.3907 -0.3671 -0.1565
37989W        W81005  22.324  15.860  18.606  0.1085  0.1838 -0.0249
37990W        W81006   2.403  11.765   5.456 -0.2422  0.0619 -0.0392
37991W        W81007   4.901   8.985  28.283 -0.0130  0.0918  0.0410
37992W        W81008   6.686   7.347  22.350 -0.1247 -0.0804  0.2946
37993W        W81009   8.275  28.977  20.235  0.1285  0.0032 -0.0207
37994W        W81010  12.502  30.602  27.949 -0.0042 -0.0885  0.1789
37995W        W81011  12.496   5.816  20.414 -0.3096  0.0078  0.2090
37996W        W81012   5.936   8.300  20.217  0.0113 -0.0210  0.1286
37997W        W81013  13.825  32.006  24.773  0.0204 -0.0565  0.3154
37998W        W81014  17.337   2.377  20.685  0.1765 -0.4344 -0.0175
37999W        W81015  15.700  19.261   3.490 -0.1053  0.2846 -0.1855
38000W        W81016   8.373  26.232  21.894  0.1584 -0.0193 -0.4267
38001W        W81017   4.565  29.420  27.482  0.1800 -0.1999 -0.0384
38002W        W81018  31.286  15.122  16.209 -0.0258  0.1194 -0.0163
38003W        W81019  30.561   6.636  21.677  0.1785 -0.1223  0.1256
38004W        W81020  26.539   5.462  25.646  0.2540  0.0830  0.2018
38005W        W81021   4.048  19.414  19.795 -0.0843  0.2420 -0.3343
38006W        W81022  14.244  20.519  20.751  0.0428  0.1351 -0.1265
38007W        W81023   9.914  25.768  24.311  0.0912  0.1825 -0.1296
38008W        W81024   2.686  20.268  16.695 -0.1420  0.2095 -0.4182
38009W        W81025  22.850  20.897  16.284  0.0888  0.3249  0.0288
38010W        W81026  22.915  26.103  14.474  0.0302 -0.1901 -0.2202
38011W        W81027  27.190   8.917   3.356  0.1679 -0.0579  0.1130
38012W        W81028  10.096   5.806  19.313  0.1896  0.1075  0.2354
38013W        W81029   7.870  12.017  23.385 -0.2505 -0.1328 -0.0981
38014W        W81030  26.165  33.385  16.938 -0.3310 -0.1591  0.1127
38015W        W81031  12.940   0.184  21.241 -0.0139  0.0326 -0.2683
38016W        W81032   9.006  27.553  23.469 -0.2876  0.2471  0.1580
38017W        W81033  34.006  21.852  18.263  0.1052  0.1223  0.2709
38018W        W81034  19.056  33.574  18.750  0.4517 -0.1735  0.0041
38019W        W81035  28.999   3.830  20.730 -0.1712 -0.1577 -0.0869
38020W        W81036   5.994   9.597  14.364  0.1131 -0.0646  0.0139
38021W        W81037   5.197   0.247  26.213 -0.2109  0.0201 -0.0328
38022W        W81038  29.268  32.032  20.724  0.2121  0.1255  0.0346
38023W        W81039  12.836  13.118  12.955 -0.0447 -0.1111  0.4945
38024W        W81040  34.433  11.459  18.241  0.1137 -0.1886  0.0548
38025W        W81041  31.009   0.577   6.064  0.1073  0.2036 -0.1954
38026W        W81042  33.323   8.168  16.865  0.2344 -0.0957 -0.0233
38027W        W81043  33.009   7.417  26.223  0.3309 -0.0697  0.0019
38028W        W81044  16.568   3.862  14.569  0.3514 -0.0988  0.2043
38029W        W81045  14.662   1.858  14.350  0.3399  0.1252 -0.2186
38030W        W81046  34.094   9.853  14.856  0.1175  0.3290 -0.2809
38031W        W81047   6.256   7.898  19.126 -0.0085 -0.1927 -0.1709
38032W        W81048   6.021   4.742  20.742  0.2373  0.0840  0.0361
38033W        W81049   2.744   5.627  23.457 -0.2367  0.0239 -0.1775
38034W        W81050   3.507   2.441  15.226 -0.1103  0.1930 -0.0404
38035W        W81051   1.475   3.614  25.381  0.1007 -0.0829 -0.0287
38036W        W81052  14.673  15.684  21.690  0.1027 -0.1155  0.3251
38037W        W81053  30.245  17.098  24.419 -0.0089 -0.1210  0.2533
38038W        W81054   0.238  11.399  14.559 -0.0442 -0.0626 -0.1603
38039W        W81055  33.122  10.409   6.611 -0.1203  0.4233 -0.0951
38040W        W81056   7.158   1.389   2.478 -0.1265 -0.0690  0.2023
38041W        W81057   7.488  13.881  20.976  0.2639  0.0664  0.1311
38042W        W81058   3.364  30.454  27.413 -0.2817  0.0194 -0.3252
38043W        W81059   5.467  27.296  22.619 -0.2277 -0.0353 -0.1535
38044W        W81060   8.459  30.607   1.983  0.1377  0.2017  0.0625
38045W        W81061  12.357  21.131   1.670 -0.0699 -0.3420  0.3454
38046W        W81062   1.283   5.275  14.876  0.1165 -0.1073 -0.0817
38047W        W81063  25.621   4.719  28.012 -0.0765  0.1298 -0.0116
38048W        W81064   2.414  20.035  17.088 -0.2741 -0.2959 -0.0703
38049W        W81065   2.488  32.824   4.104  0.3841  0.0948 -0.0675
38050W        W81066   2.071   5.927   5.010 -0.4264 -0.1979  0.0567
38051W        W81067  28.860  25.272  23.983 -0.0809  0.1584  0.4162
38052W        W81068  18.841   4.941  20.303  0.0120 -0.1351  0.1940
38053W        W81069   9.128   4.981  15.585 -0.0636 -0.0302 -0.0478
38054W        W81070   1.335   9.550  15.353 -0.1222  0.1921 -0.1213
38055W        W81071  22.407  28.040  22.775 -0.0436 -0.4504 -0.1975
38056W        W81072   9.706   9.807  21.796 -0.3155  0.4093  0.0063
38057W        W81073  11.393  11.694   1.859  0.0965  0.0035 -0.1415
38058W        W81074  21.815  27.236  22.688  0.0069  0.0502  0.2785
38059W        W81075   3.483   3.121   6.620  0.2445  0.2607  0.5480
38060W        W81076   4.258  11.581  19.862 -0.1722  0.1898 -0.2996
38061W        W81077   2.952  25.760  16.943  0.1980  0.1207 -0.1335
38062W        W81078   4.654  26.336  20.811  0.1320  0.3649  0.1489
38063W        W81079  16.138   6.747  24.836 -0.1866 -0.3134  0.1284
38064W        W81080  10.943  11.298  22.894  0.0712  0.2480  0.1064
38065W        W81081  18.203   1.972   9.600  0.1113  0.0860  0.1783
38066W        W81082  12.847  15.282   1.767 -0.1387 -0.0395  0.1339
38067W        W81083  11.678   6.146  27.716  0.1664 -0.0845  0.1273
38068W        W81084   8.578  27.599  18.365  0.1479  0.1122  0.0892
38069W        W81085   5.177   3.239  25.882 -0.2798 -0.0370  0.1251
38070W        W81086   5.706   3.706  15.941 -0.3564  0.1746  0.0416
38071W        W81087  24.516   9.699  23.172  0.2093 -0.0718 -0.0061
38072W        W81088  28.332  27.900  20.015  0.2076 -0.1585  0.1236
38073W        W81089   5.760  13.770  15.997 -0.0163 -0.2568  0.0457
38074W        W81090   3.737  20.112  28.850 -0.1785 -0.0839 -0.3651
38075W        W81091  23.308   9.471  28.579  0.1033 -0.0721  0.3405
38076W        W81092  34.763  25.752  16.160  0.0909 -0.5451  0.1174
38077W        W81093  12.451   6.669  27.240 -0.1778  0.3025 -0.1363
38078W        W81094  18.741  26.749  29.014  0.3186 -0.1413  0.0629
38079W        W81095  22.227  33.366  20.475  0.2276  0.2133 -0.0407
38080W        W81096  20.703  21.754  18.531  0.1653 -0.1845 -0.0314
38081W        W81097   5.061  28.305   5.277  0.0779 -0.0528  0.1259
38082W        W81098  33.617  34.695  25.501 -0.0904  0.2885 -0.1535
38083W        W81099  10.622  11.606  25.214  0.1682  0.1327 -0.0489
38084W        W81100   5.629  22.860  23.513  0.1047  0.0712 -0.2332
38085W        W81101  16.982  24.039  19.835  0.0146  0.1658 -0.0533
38086W        W81102  31.530  11.401  22.176  0.1607  0.0117 -0.1924
38087W        W81103  31.567   8.211  27.506  0.2275  0.1381  0.0643
38088W        W81104  17.391  23.229  13.343 -0.0880 -0.0769  0.0861
38089W        W81105   7.724   2.082   8.395  0.1426  0.0984  0.2241
38090W        W81106  10.292  33.080  22.633  0.0301  0.4329 -0.0620
38091W        W81107   0.846   2.365  14.987  0.1097  0.0096 -0.1011
38092W        W81108  16.716  27.992  18.400  0.1190  0.0521 -0.2417
38093W        W81109  18.051  27.724  25.799  0.1000 -0.1679  0.2529
38094W        W81110  32.880  11.933  19.350  0.0463 -0.4242 -0.3097
38095W        W81111  13.858  29.017  24.688 -0.1983  0.2103  0.2313
38096W        W81112  10.397  12.176  25.380 -0.1471  0.3677  0.0744
38097W        W81113  34.109   6.205  14.195 -0.3486  0.0958  0.2494
38098W        W81114  12.890  19.585  20.680  0.0010 -0.2440  0.1734
38099W        W81115  11.211  13.957  21.849 -0.0380 -0.2926  0.0931
38100W        W81116  28.663  29.263  20.276 -0.1262  0.1061  0.2072
38101W        W81117  31.493  29.319  29.275 -0.0255  0.1944  0.1459
38102W        W81118  30.972  20.375  24.356  0.2956  0.1556 -0.2090
38103W        W81119   8.269  21.857  18.712  0.0959 -0.1311  0.0991
38104W        W81120  13.549  32.821   4.544  0.1330 -0.2233  0.0676
38105W        W81121   0.430   5.902  23.794 -0.0646 -0.4030 -0.2195
38106W        W81122  26.934  15.602  21.542  0.2986  0.0413 -0.0567
38107W        W81123   7.373  20.337  15.776 -0.0274  0.0587 -0.0098
38108W        W81124  11.186  18.147  12.864  0.1402  0.2558  0.1055
38109W        W81125   7.108  28.740  17.655 -0.1056  0.2089 -0.3341
38110W        W81126   3.036   2.368  15.930 -0.0547  0.0974  0.2183
38111W        W81127  33.419  11.957  15.373 -0.0954 -0.3482  0.0941
38112W        W81128  10.779   8.064  20.487 -0.0190 -0.0644 -0.0141
38113W        W81129  13.110   7.714  22.275 -0.1831 -0.0035  0.0120
38114W        W81130   5.152  13.235  25.417  0.1041  0.0369  0.2578
38115W        W81131  20.798   8.375  25.664 -0.2942 -0.0112 -0.2049
38116W        W81132  13.998  10.940  19.445  0.0986 -0.1372  0.1856
38117W        W81133  31.665  14.531  16.050  0.0376  0.2051  0.1310
38118W        W81134   3.645  17.123  22.028 -0.1837 -0.1742 -0.1023
38119W        W81135   4.171   4.763  20.305 -0.1344 -0.0071  0.4088
38120W        W81136   0.099   6.703  17.849 -0.2700 -0.3646 -0.2312
38121W        W81137   5.137  34.447  23.758 -0.0385  0.1593 -0.0622
38122W        W81138  16.878  24.082  15.252 -0.1514  0.1326 -0.0429
38123W        W81139  24.272   6.339   0.563  0.2489  0.0886  0.3996
38124W        W81140  31.310  10.115  22.764 -0.0597 -0.0597 -0.0613
38125W        W81141  12.490   1.593  27.171 -0.2856  0.4117  0.3249
38126W        W81142   6.384  33.420  20.083 -0.4570  0.3285 -0.2408
38127W        W81143   7.637  19.964   5.996 -0.0331 -0.2924 -0.1561
38128W        W81144   1.028   1.611  18.906 -0.1655 -0.1192  0.3069
38129W        W81145   2.027  28.494  17.299 -0.1864 -0.2269 -0.0967
38130W        W81146  10.069  26.379  13.875 -0.2813 -0.0975  0.0422
38131W        W81147   5.507   3.176  15.620 -0.1293 -0.2858  0.3071
38132W        W81148  19.444   8.435  16.054 -0.1376 -0.0288 -0.0812
38133W        W81149   2.788   7.872  19.811 -0.0374  0.0615 -0.1007
38134W        W81150   6.627  20.937  18.490  0.2784 -0.3983 -0.3582
38135W        W81151  31.514  32.399   3.690  0.1070 -0.0446  0.3465
38136W        W81152  34.363   0.246  19.193  0.1472  0.1269  0.0762
38137W        W81153   7.840  20.649  24.388 -0.1952  0.0515 -0.0833
38138W        W81154  21.135  10.470  19.800  0.1710  0.1963 -0.0782
38139W        W81155  13.809  28.264  27.009 -0.0721  0.0901 -0.1824
38140W        W81156  15.457  34.149  21.292  0.0613  0.3241 -0.2184
38141W        W81157   1.591   3.567  13.945 -0.0028 -0.2246  0.2472
38142W        W81158  21.899  14.403   0.122 -0.3542 -0.1266 -0.0207
38143W        W81159  13.195   2.143  14.892  0.2132  0.0876 -0.1549
38144W        W81160   3.357   4.275  15.200  0.0469  0.1574 -0.0377
38145W        W81161   3.407  18.474  27.031  0.3137 -0.1912 -0.1738
38146W        W81162  14.356  31.268  18.902  0.0745 -0.0323 -0.0483
38147W        W81163   7.724  31.379  18.385  0.2407  0.2733  0.3127
38148W        W81164   9.977  15.349  20.406  0.1669 -0.0287 -0.1106
38149W        W81165  10.217   5.598  17.925  0.3715 -0.1119 -0.2933
38150W        W81166  16.905  12.211  26.604 -0.1302  0.1394 -0.0683
38151W        W81167  11.712   7.952  24.839  0.0711  0.1652  0.0981
38152W        W81168  11.986  22.912  18.326 -0.1840  0.0233 -0.0848
38153W        W81169  19.318   4.585  14.934  0.0058 -0.0577  0.0751
38154W        W81170  33.154  28.888   0.937 -0.1736 -0.0199  0.1225
38155W        W81171   5.893  12.452  22.718  0.1421 -0.0453  0.0666
38156W        W81172  17.617   3.705  16.839 -0.2043 -0.0189  0.4079
38157W        W81173  11.558  28.402  18.655 -0.0764  0.0369  0.0499
38158W        W81174   6.029   8.637  16.051 -0.0221  0.1441 -0.2840
38159W        W81175   0.376   7.367  28.123  0.0853 -0.2874  0.0528
38160W        W81176  33.987  11.785  16.929 -0.2791  0.2822 -0.1416
38161W        W81177  17.322   7.641   2.295 -0.0732 -0.2072  0.2467
38162W        W81178   3.609  17.056   1.153 -0.3593  0.1143  0.0320
38163W        W81179   7.767   4.675  17.869  0.0374 -0.1502 -0.0705
38164W        W81180  32.978   2.848   0.282  0.3556 -0.2217 -0.1458
38165W        W81181  14.354  21.840  19.940  0.1869 -0.1870  0.1980
38166W        W81182   9.434  26.297  23.416  0.0265  0.1491 -0.2461
38167W        W81183  13.308  22.577  25.031  0.0059  0.2513  0.0781
38168W        W81184  29.930   1.844   3.970 -0.1672 -0.0293 -0.1719
38169W        W81185  25.867   3.630  17.349  0.1107 -0.0842  0.1902
38170W        W81186   2.429   9.623  26.654  0.0763  0.0443  0.3616
38171W        W81187   8.172   4.232  23.775 -0.0412 -0.1227  0.0613
38172W        W81188  15.158  13.617  22.825  0.0354 -0.0912 -0.4010
38173W        W81189  13.012  21.287   3.728 -0.0312 -0.2698  0.1740
38174W        W81190  31.090   7.580   3.515 -0.2813  0.1394 -0.0342
38175W        W81191   6.728   5.540  19.243  0.1912  0.2829 -0.2156
38176W        W81192   0.087  13.005  16.017 -0.1467  0.0208  0.0867
38177W        W81193   7.759  11.218  22.229  0.2352 -0.2037  0.0278
38178W        W81194  33.644  31.245  21.061  0.1567 -0.0077  0.4737
38179W        W81195  19.563   2.562  15.635 -0.1800 -0.1077  0.1255
38180W        W81196  13.678  11.117  21.968  0.1061 -0.3185 -0.3217
38181W        W81197   5.910  11.973  18.249 -0.3044 -0.0919  0.0746
38182W        W81198  18.615  33.764   0.621 -0.2324  0.0566  0.2469
38183W        W81199  34.041   7.468   0.216  0.0513 -0.1266  0.1005
38184W        W81200   9.761   6.932  15.843 -0.0048  0.0282 -0.4331
38185W        W81201   8.515  26.955  15.070  0.2243  0.0701 -0.1556
38186W        W81202  19.396  24.206   2.182 -0.1316 -0.1050 -0.1607
38187W        W81203  24.996   9.343   5.981  0.1799  0.0052 -0.0861
38188W        W81204   7.298   5.282  14.483  0.1570  0.0501 -0.2053
38189W        W81205  14.014   1.808  24.609 -0.0354 -0.1761  0.0628
38190W        W81206   6.773  11.941  25.062 -0.1730 -0.2532  0.1177
38191W        W81207   3.597  15.944  18.561 -0.0647  0.0621  0.3579
38192W        W81208  15.812   2.999  16.149 -0.0859 -0.2118 -0.0582
38193W        W81209  29.053  16.888  17.155 -0.0026  0.3358  0.2098
38194W        W81210  33.825   9.895  17.685 -0.0172  0.0335  0.2741
38195W        W81211  18.466   4.035   1.054  0.1609  0.0616 -0.1551
38196W        W81212   7.331  16.770  17.618  0.1684  0.0568  0.2845
38197W        W81213  29.366   7.094   2.249 -0.0751  0.1431  0.1942
38198W        W81214  32.882   1.618   4.907  0.0192 -0.1333  0.4779
38199W        W81215  15.103  14.762   7.584 -0.3829  0.0130  0.0578
38200W        W81216  33.770   8.356  20.963 -0.0380 -0.1030 -0.2380
38201W        W81217   5.315  12.743  17.263 -0.0317 -0.0373  0.1876
38202W        W81218  17.452  10.150  19.599 -0.2127 -0.1786  0.1722
38203W        W81219   9.907  28.675  24.981  0.2139 -0.0431  0.1495
38204W        W81220  28.706   9.180  28.934 -0.1291  0.0615  0.1477
38205W        W81221   4.997   6.835   2.403 -0.0671 -0.2260 -0.2221
38206W        W81222  16.124   2.786  17.712 -0.0985  0.0623  0.2639
38207W        W81223  12.139  20.758  17.929  0.2040 -0.1561 -0.0476
38208W        W81224  15.501  26.258  29.014  0.3941 -0.1268  0.0819
38209W        W81225   1.639   7.373   4.333  0.0122 -0.3897 -0.2953
38210W        W81226   5.038  28.233  14.812 -0.0806  0.2024 -0.3164
38211W        W81227  16.482  12.412  19.914 -0.3530 -0.2257  0.0578
38212W        W81228  17.705  12.810  19.250  0.0493  0.1553  0.2655
38213W        W81229   8.724   1.531  16.775  0.0957 -0.0710 -0.0029
38214W        W81230  34.303   8.419  14.937 -0.0546  0.3523 -0.2361
38215W        W81231  34.740  15.115  27.094  0.0352  0.0156 -0.1020
38216W        W81232  13.920  28.078  15.015 -0.0778 -0.2651 -0.1351
38217W        W81233   5.499  13.072  23.753  0.0259 -0.0094  0.0637
38218W        W81234  26.162   4.222   1.184 -0.3665 -0.3253 -0.1190
38219W        W81235   8.572   8.769  18.246  0.1592 -0.0755  0.3502
38220W        W81236  17.714  19.502  25.812  0.1684  0.1782  0.0190
38221W        W81237  17.084   4.215  18.890 -0.1121 -0.0324 -0.0771
38222W        W81238  33.487  19.083  25.223  0.3874  0.1678 -0.2074
38223W        W81239   5.169  12.426  19.217  0.1969  0.2373  0.1877
38224W        W81240  16.459  11.138   1.223  0.1530  0.0262  0.0841
38225W        W81241  13.294   9.924  25.237  0.0279 -0.2046 -0.3389
38226W        W81242  34.561  10.259  17.983  0.0396  0.1764  0.1297
38227W        W81243  11.543   2.100   8.061 -0.1764  0.3076  0.1337
38228W        W81244  22.178   3.917  26.229  0.0889 -0.1852  0.0960
38229W        W81245  31.761  23.449  16.831 -0.4501 -0.1082  0.2175
38230W        W81246  21.316  27.646  22.288  0.0297  0.0622  0.0667
38231W        W81247  10.496  12.496  21.576 -0.0580  0.1030 -0.1435
38232W        W81248  29.266  16.542  15.930 -0.0528  0.3103 -0.0053
38233W        W81249  14.641  12.826  24.214  0.1331 -0.0236  0.1227
38234W        W81250  17.578  27.268  16.018  0.2984 -0.0703  0.3510
38235W        W81251  27.649  13.281  29.269 -0.1967  0.0048 -0.3607
38236W        W81252  11.602  10.642  22.634 -0.0881 -0.1816  0.0816
38237W        W81253   7.463   5.259   0.679  0.0040  0.0390 -0.0106
38238W        W81254  33.499   9.123  29.202  0.2776  0.1918  0.1253
38239W        W81255   2.134  31.311   2.312  0.0039 -0.0914 -0.0776
38240W        W81256   8.877   4.050  25.036 -0.0395  0.0799 -0.1655
38241W        W81257  13.343  27.447  14.083  0.2910  0.1522 -0.0520
38242W        W81258  23.364   6.683  20.432 -0.1541  0.2588 -0.1124
38243W        W81259   3.321  17.069  19.316  0.1018 -0.2890 -0.0574
38244W        W81260  14.278   5.698  28.632 -0.0868 -0.2949  0.1257
38245W        W81261   5.116  30.038   0.455  0.1370  0.0331 -0.0677
38246W        W81262   1.665  30.879  15.374  0.0746 -0.1300  0.2400
38247W        W81263  14.415   9.164  18.297 -0.2848  0.1649  0.1220
38248W        W81264  14.335   5.633  14.488  0.2271 -0.1383 -0.2967
38249W        W81265  18.336   9.018  24.627 -0.3701  0.2168 -0.0670
38250W        W81266   6.539  32.721  26.285  0.0537 -0.1595 -0.2959
38251W        W81267  33.531  32.980   2.927 -0.0114 -0.0788  0.2643
38252W        W81268  31.639   4.129  21.524 -0.1116  0.0569  0.1494
38253W        W81269  12.311   8.952  28.531  0.3084  0.1759 -0.1913
38254W        W81270   4.080   4.462  23.550 -0.1166 -0.3897  0.2464
38255W        W81271  21.559   4.026  14.907 -0.2737  0.0220  0.0271
38256W        W81272   5.816  18.811  27.948  0.2241  0.2142  0.0254
38257W        W81273  13.947   5.478  29.002  0.3073  0.0463  0.3714
38258W        W81274  16.072   2.134  16.403  0.0334 -0.1138 -0.2986
38259W        W81275  17.419  31.540  28.463 -0.0625 -0.5000 -0.1884
38260W        W81276   1.115   6.003  21.283 -0.0385 -0.0451 -0.0465
38261W        W81277   9.952   7.492  25.949 -0.0242 -0.1368 -0.0944
38262W        W81278  19.460   6.888   6.305  0.0445  0.4056  0.0001
38263W        W81279  32.074   7.250  24.230  0.1980 -0.3829  0.1428
38264W        W81280  15.348  25.260   3.034  0.0978  0.3693  0.0842
38265W        W81281   2.573  29.855   1.654  0.1573  0.0189 -0.0398
38266W        W81282  15.850  30.935  25.661  0.3189  0.0446  0.1728
38267W        W81283  10.999  22.137   0.598  0.2284  0.1319 -0.3855
38268W        W81284   7.483   9.172   3.801  0.0668  0.1127  0.0213
38269W        W81285   2.149   2.364  27.164  0.0260 -0.2857  0.1559
38270W        W81286  14.616   6.722  21.128 -0.3735 -0.1647 -0.0289
38271W        W81287   5.881  14.177  16.270  0.0324 -0.3821 -0.0345
38272W        W81288  10.922   7.566   2.725  0.2694  0.2108 -0.0966
38273W        W81289  12.166   5.446   8.469  0.1618 -0.0276  0.0387
38274W        W81290  11.836  17.937  13.120  0.1555  0.0005 -0.1006
38275W        W81291   6.972  15.218  16.813 -0.0142  0.0736  0.0889
38276W        W81292   4.725  20.743  19.622  0.3395 -0.1191  0.2315
38277W        W81293  12.415  27.133  24.930 -0.2092  0.0791 -0.1304
38278W        W81294   6.635  14.894  14.180  0.2802 -0.2697 -0.2048
38279W        W81295   0.127  11.924  28.669 -0.4180  0.1132 -0.3218
38280W        W81296  18.829   1.168   5.023  0.0886  0.1534 -0.2999
38281W        W81297   6.709   1.218   5.489 -0.1567  0.0566 -0.2754
38282W        W81298   6.112  31.424  22.521  0.0780 -0.1323  0.0212
38283W        W81299  28.549  14.637  28.423  0.2017 -0.2461 -0.1755
38284W        W81300   5.861  10.489   6.886 -0.0953  0.0377 -0.1751
38285W        W81301  18.217  30.138  27.222 -0.1536 -0.0034 -0.0336
38286W        W81302  12.161  16.674  17.915 -0.0454 -0.2359  0.1472
38287W        W81303  10.202  10.888   5.115  0.0223  0.3428  0.4190
38288W        W81304  17.055   6.601   6.943  0.0982 -0.0168  0.1725
38289W        W81305   9.558  19.163  15.497  0.1331 -0.1286 -0.1144
38290W        W81306   5.480   9.539  14.485 -0.1351  0.0924 -0.0910
38291W        W81307   8.322   4.283  20.483 -0.3727  0.1074 -0.3251
38292W        W81308   7.810   7.096  24.472 -0.0024  0.1254 -0.1601
38293W        W81309  14.542  11.926  22.538  0.2792  0.2935  0.1715
38294W        W81310  12.870  33.325  28.522  0.1620 -0.0471  0.4736
38295W        W81311  23.304   7.790  16.405  0.1011 -0.1152 -0.3457
38296W        W81312  19.550  10.544  21.715 -0.1728  0.1340  0.0381
38297W        W81313   4.224  14.788  24.937  0.1941 -0.2502 -0.0657
38298W        W81314   7.280   5.050   1.491  0.4138  0.3496  0.1562
38299W        W81315   3.616  11.643  28.265  0.0159 -0.1806  0.1277
38300W        W81316   8.971  29.724  26.249 -0.1904  0.1086 -0.0550
38301W        W81317   0.635  34.126  15.691 -0.3237  0.3160  0.0479
38302W        W81318   1.597  31.474  28.218 -0.3098 -0.2348 -0.0569
38303W        W81319  33.853  27.631  27.745 -0.0059 -0.0700  0.1643
38304W        W81320  17.261   1.536   2.709  0.0405 -0.1126 -0.1260
38305W        W81321  11.209   8.362  21.508 -0.0506 -0.2425  0.0874
38306W        W81322  16.031  12.485  24.456  0.0548  0.1544  0.2149
38307W        W81323  19.046   0.376  25.261  0.2470  0.0624 -0.3359
38308W        W81324  16.666   6.396   3.717 -0.1029 -0.1537 -0.4549
38309W        W81325  13.866  24.741  21.126  0.0411 -0.1664  0.0702
38310W        W81326   0.388   1.500  20.087  0.2841  0.0157  0.1488
38311W        W81327  31.242  33.047  21.630  0.1184  0.2372  0.3330
38312W        W81328   6.313  11.461   7.066  0.2589  0.2677  0.2153
38313W        W81329   9.412   7.334  21.955  0.2546 -0.2202 -0.0313
38314W        W81330   2.267  32.440  20.746 -0.2005  0.1886 -0.1215
38315W        W81331   3.277   0.042  14.834 -0.0841 -0.0868 -0.2917
38316W        W81332   4.283  16.946  14.494 -0.2857  0.0008 -0.4272
38317W        W81333  12.314   1.713  17.382 -0.2287  0.1635 -0.0101
38318W        W81334   2.445   1.024  14.939 -0.0911 -0.1085  0.0507
38319W        W81335  16.327  17.376   6.446  0.1610 -0.1212 -0.0414
38320W        W81336   5.352  27.839  18.827  0.2513 -0.1813  0.0266
38321W        W81337   6.041   4.560  18.387  0.0812  0.0646  0.0229
38322W        W81338  14.007   9.409  20.329  0.0455 -0.1362  0.0706
38323W        W81339   6.018  12.514  15.471 -0.1432  0.0903 -0.0080
38324W        W81340   1.161   5.002  20.510 -0.1894  0.0223 -0.2119
38325W        W81341  18.779   8.099  17.774 -0.0992  0.0278 -0.4443
38326W        W81342  23.448  17.332  13.813  0.1155 -0.0362  0.1438
38327W        W81343   6.688  27.882  24.196  0.2055 -0.4208  0.1186
38328W        W81344  11.992   3.147  22.686 -0.1707  0.1013 -0.0507
38329W        W81345  19.485  16.429  11.959 -0.0128  0.0531  0.2853
38330W        W81346  15.886  26.472  18.154  0.1146 -0.0688  0.0213
38331W        W81347  33.549   9.750  15.961  0.1247  0.0178  0.1964
38332W        W81348  25.769  11.277  23.531 -0.1037  0.3140  0.3876
38333W        W81349  17.604  21.292   5.213 -0.2802 -0.1304 -0.1074
38334W        W81350   3.229  13.010   5.647  0.2637  0.5119 -0.0372
38335W        W81351   5.063  13.871  22.125 -0.1863  0.0466 -0.0990
38336W        W81352  25.377  24.388   2.649  0.1284 -0.0279 -0.1512
38337W        W81353   0.010  19.516  15.040 -0.0805  0.3925  0.1374
38338W        W81354   5.759  33.985   9.574 -0.0064  0.0981  0.1119
38339W        W81355  17.044  14.250  28.865  0.0218 -0.0212 -0.0877
38340W        W81356  17.548   6.779  19.095 -0.2311  0.0813 -0.2040
38341W        W81357  20.365   5.652   9.411 -0.1112 -0.0081  0.2262
38342W        W81358   3.311   0.512  19.212 -0.1039  0.0202 -0.3123
38343W        W81359   9.338   1.856  25.931  0.1915  0.0915  0.2761
38344W        W81360  15.396  17.984  15.181 -0.2169 -0.0624 -0.0042
38345W        W81361   1.169   4.765  16.660  0.0803  0.0404  0.0081
38346W        W81362  34.634  10.177  26.663  0.0948  0.1206 -0.0146
38347W        W81363  23.837  32.031   1.101  0.0053  0.0158  0.1662
38348W        W81364  16.356   4.311  14.444 -0.0857 -0.3982  0.0212
38349W        W81365   4.575   5.613   7.030  0.0356 -0.0976 -0.0876
38350W        W81366  29.834   7.261   1.614 -0.0718 -0.2705  0.1506
38351W        W81367  12.368   7.808  21.392  0.4098  0.0816  0.2682
38352W        W81368   6.469  10.862  14.974 -0.1025 -0.0772  0.2936
38353W        W81369  33.200  12.292  27.851  0.0156 -0.0431  0.0704
38354W        W81370  11.793   7.429  25.082  0.2522  0.0446  0.0953
38355W        W81371   9.157   1.564  27.773  0.2998 -0.1921 -0.0726
38356W        W81372   0.691   3.398  23.392 -0.3078  0.2532  0.0827
38357W        W81373   0.442  10.541  20.092  0.0093 -0.1545  0.2470
38358W        W81374   8.596   3.899  15.512 -0.1201  0.0476  0.2592
38359W        W81375  32.552  31.122  18.609 -0.0679 -0.2588  0.2234
38360W        W81376  14.873  34.311   6.656  0.2253 -0.2731  0.2589
38361W        W81377   1.398  27.572   0.855  0.0332  0.0194 -0.1871
38362W        W81378   5.558   7.789  15.497  0.1306  0.1128  0.1811
38363W        W81379   0.901   1.731  17.608 -0.2325  0.1531 -0.2408
38364W        W81380  29.606  31.431  22.915 -0.1998 -0.0066 -0.3631
38365W        W81381  21.718  29.119  25.324 -0.0329 -0.1343 -0.0208
38366W        W81382  26.385  27.897  10.280 -0.0172  0.1073 -0.0166
38367W        W81383  12.266  33.457  24.770  0.0271 -0.1544  0.1265
38368W        W81384  16.187  31.563  26.371 -0.1030  0.0233 -0.0696
38369W        W81385  10.815  13.803  24.652  0.0386  0.0142 -0.1309
38370W        W81386  16.487   9.949  21.051 -0.2055  0.2901  0.2199
38371W        W81387  24.076  29.988  27.923 -0.2156 -0.1775  0.2042
38372W        W81388  16.866  23.764   0.083  0.3539 -0.1337 -0.1469
38373W        W81389   7.848  30.640  10.435  0.1150 -0.1328 -0.2448
38374W        W81390   5.458  20.270   0.972 -0.0055  0.0560  0.1801
38375W        W81391   1.206  33.519  17.620  0.1177  0.0578 -0.2415
38376W        W81392  17.131  25.691  14.150  0.2132  0.1194  0.0240
38377W        W81393  33.849   9.712  21.964  0.1511  0.1780  0.0876
38378W        W81394  17.679  25.090  15.022 -0.1287  0.2248 -0.1096
38379W        W81395  14.779   5.490  14.623 -0.1065 -0.0989 -0.0892
38380W        W81396   8.385  19.825  15.362 -0.0108 -0.0394  0.0273
38381W        W81397   0.268   8.342  17.031 -0.1049  0.2215  0.1508
38382W        W81398   1.380  25.931  26.043  0.2604 -0.1739 -0.1310
38383W        W81399  17.478   0.766  19.856 -0.4595  0.3058 -0.2000
38384W        W81400   6.760  15.110  26.790  0.1024  0.5983  0.0927
38385W        W81401   3.003   0.728  22.946 -0.0802 -0.0290  0.1831
38386W        W81402  12.911   2.459  27.806  0.0845  0.0453 -0.0796
38387W        W81403  18.984  21.152  13.138 -0.0263 -0.0876  0.1327
38388W        W81404   1.859  15.602  15.655 -0.1129 -0.1029 -0.2527
38389W        W81405  30.748  30.691  15.946 -0.1660  0.0775  0.0635
38390W        W81406   1.548   3.276   5.922 -0.0022 -0.0462  0.0497
38391W        W81407  27.757   4.648   1.470 -0.1335  0.0830  0.1426
38392W        W81408   1.485  10.083  24.553  0.6987 -0.2102  0.1156
38393W        W81409  34.413  31.694  18.774 -0.1647 -0.1824 -0.1150
38394W        W81410   3.444   3.492   5.883 -0.1013  0.3927 -0.1340
38395W        W81411   6.244   8.993  14.595  0.3286 -0.0579 -0.0875
38396W        W81412  14.988  11.470  14.874  0.2692  0.1365  0.1095
38397W        W81413   7.344  31.921   2.980  0.0201  0.1233  0.1658
38398W        W81414   7.459   2.423  24.887  0.0795 -0.3051  0.1268
38399W        W81415  20.212  30.545  14.243 -0.0319 -0.1590 -0.1121
38400W        W81416   0.642  34.271  15.211  0.3338  0.0779 -0.3140
38401W        W81417   9.403   5.065   0.288 -0.0161  0.0640 -0.1945
38402W        W81418  27.514  23.495  15.676  0.1309 -0.0987  0.0292
38403W        W81419   0.767  16.944   4.422  0.0172  0.1020  0.0496
38404W        W81420  11.660   2.381   3.988  0.0204 -0.4299 -0.1757
38405W        W81421  28.985   9.914  15.766 -0.0875 -0.2086  0.0003
38406W        W81422  30.783   9.588  16.961 -0.0429 -0.1383 -0.0173
38407W        W81423   0.422  17.333  25.699 -0.1826  0.0488 -0.0015
38408W        W81424  11.898  12.264  27.924  0.0532 -0.0118 -0.1326
38409W        W81425  30.249   6.878   9.730  0.1594 -0.1521  0.4756
38410W        W81426  21.489  11.959   3.670 -0.0564  0.3463 -0.2141
38411W        W81427  25.481  11.433  22.763 -0.3153 -0.0870  0.1843
38412W        W81428  33.535  31.298  27.539 -0.3681  0.0087 -0.1672
38413W        W81429  17.688  12.422   3.678 -0.2689  0.0413 -0.2053
38414W        W81430  13.857   2.584  27.844  0.0033 -0.0295 -0.1487
38415W        W81431  12.622  11.164   9.574  0.2441  0.0582 -0.0424
38416W        W81432  10.152   0.775  15.231 -0.0436  0.1110  0.0536
38417W        W81433   6.956  13.189  17.041 -0.2304  0.0826 -0.2420
38418W        W81434  15.602  16.880   5.663 -0.0670  0.0530 -0.0522
38419W        W81435   8.500  31.671  15.198 -0.2490 -0.1619  0.3500
38420W        W81436  10.450  30.648   5.867 -0.0774 -0.1301 -0.0071
38421W        W81437   5.163   8.999   6.789  0.0117 -0.5014  0.0363
38422W        W81438  17.061  10.259  28.960 -0.1398 -0.1783 -0.1839
38423W        W81439   1.512  30.504  28.767 -0.0688  0.1051 -0.0183
38424W        W81440  33.262   2.597  10.723  0.1054 -0.1631  0.4052
38425W        W81441   2.748   1.703   2.552 -0.1209  0.2436  0.0949
38426W        W81442   8.494  10.069   6.969 -0.0738  0.2653  0.0083
38427W        W81443   9.509  20.710  17.267  0.1853  0.1009  0.2546
38428W        W81444   6.366   2.469  24.721  0.0236  0.2730  0.0012
38429W        W81445  18.525   8.427  24.482 -0.3149 -0.1798 -0.1380
38430W        W81446   3.982   7.228  21.390  0.4181  0.0134 -0.0984
38431W        W81447  13.390  10.788  27.971 -0.1199  0.0357  0.1385
38432W        W81448  24.584   2.280   2.239 -0.2084  0.0640 -0.0454
38433W        W81449  10.921  21.566  16.940  0.2171 -0.1739 -0.0163
38434W        W81450   9.297  27.757  16.998  0.1858 -0.2790 -0.2847
38435W        W81451  26.663  12.303  20.975  0.1393 -0.4130  0.1873
38436W        W81452   6.667   7.945  17.229 -0.0361 -0.3233 -0.1127
38437W        W81453   4.908   2.413  26.415 -0.0652  0.0918  0.0697
38438W        W81454  31.040   3.629   3.708 -0.3164 -0.0293  0.0677
38439W        W81455  34.015  11.097  29.278 -0.0866  0.0561  0.0646
38440W        W81456  28.074   5.278  24.702  0.2263  0.1181  0.0770
38441W        W81457  21.736  22.015  17.461 -0.0015  0.0445 -0.3582
38442W        W81458  18.354   4.289  23.408 -0.2561 -0.1351  0.1582
38443W        W81459  12.428  11.581  15.454  0.1439  0.1929  0.2196
38444W        W81460  29.488   6.408  16.774  0.1004  0.2457 -0.2543
38445W        W81461  10.727   0.077  22.020 -0.0593 -0.0043  0.0260
38446W        W81462  15.711   9.568   3.900  0.4377 -0.0386 -0.3450
38447W        W81463   1.809   9.475   1.493 -0.0221  0.2150 -0.0626
38448W        W81464   3.171  23.406  24.829  0.0099  0.1529 -0.2046
38449W        W81465   1.563   3.620  26.557  0.1201  0.3940 -0.0316
38450W        W81466  34.315  27.392  21.682  0.1644  0.0387  0.2054
38451W        W81467  16.084  32.678   7.929  0.0792 -0.0708 -0.0614
38452W        W81468   2.161   0.604  26.036  0.0309 -0.1829  0.1432
38453W        W81469  12.814  22.532   7.483 -0.0007 -0.2263 -0.0581
38454W        W81470   1.961   6.045  26.054  0.0954  0.1538  0.1031
38455W        W81471  16.374   4.231  20.061 -0.0190  0.0233  0.0547
38456W        W81472  16.870  10.846  22.599 -0.1299  0.1108 -0.0389
38457W        W81473   0.307   1.148  22.104  0.0401 -0.2067 -0.0649
38458W        W81474   9.738  23.310   3.886 -0.0053  0.0516 -0.0852
38459W        W81475  34.398  30.089  21.117 -0.2998  0.0134  0.1190
38460W        W81476   5.613  28.411  21.520 -0.1938  0.1659  0.1828
38461W        W81477   2.284   4.053  23.948  0.1698  0.2037  0.1203
38462W        W81478  28.226  32.556   4.290 -0.1257 -0.0197 -0.0885
38463W        W81479  10.011  22.897   6.499  0.1227 -0.4168 -0.1577
38464W        W81480   4.085   4.135  25.201 -0.2906  0.1049  0.1017
38465W        W81481   9.191  30.882   5.079 -0.1538  0.0047 -0.0021
38466W        W81482   6.741   9.330   5.249 -0.0394  0.2241 -0.1037
38467W        W81483   4.486   6.689  16.677 -0.2935 -0.0025  0.1774
38468W        W81484   7.773  33.787   2.595  0.0209 -0.0053  0.0739
38469W        W81485  12.341  26.892  19.269  0.0180 -0.0826  0.1968
38470W        W81486  19.838  16.724  26.630 -0.0446 -0.1159 -0.3174
38471W        W81487  34.719  30.251  23.824 -0.0119 -0.2571 -0.1448
38472W        W81488  18.243  10.010  13.388 -0.1056 -0.0046 -0.0267
38473W        W81489  20.813   0.720  17.322  0.0248 -0.0577 -0.2228
38474W        W81490   9.097  30.283   0.130  0.1795 -0.0448  0.0296
38475W        W81491   0.963   5.813   1.923  0.0558 -0.0058  0.2346
38476W        W81492   5.861  16.672  15.594 -0.0913  0.2571  0.0076
38477W        W81493  16.467  26.694   0.589  0.2268  0.1680  0.0346
38478W        W81494  12.625  12.073  28.319 -0.1384 -0.0328 -0.1148
38479W        W81495   0.133   3.476   0.448  0.0161  0.3137  0.0083
38480W        W81496  11.793  23.101  14.327 -0.1473 -0.2075  0.1534
38481W        W81497  21.160   7.757  21.652  0.1134  0.3328 -0.0230
38482W        W81498  12.857   2.855  29.064  0.2241  0.1561  0.0106
38483W        W81499  19.948  23.453   1.908  0.2925  0.0651  0.2970
38484W        W81500  31.857  26.568   4.317 -0.0677 -0.2907 -0.0096
38485W        W81501   1.509  23.405  22.966 -0.3336 -0.0776 -0.0276
38486W        W81502  33.254  21.863  27.231 -0.3332  0.0035  0.2671
38487W        W81503   5.230   6.247  25.184 -0.1938  0.2789 -0.1659
38488W        W81504  33.220   7.835  25.422 -0.1075 -0.1663 -0.0064
38489W        W81505  31.238  23.447  21.354  0.0623  0.0939 -0.1795
38490W        W81506  26.357  34.484   7.462 -0.2222  0.4386  0.0366
38491W        W81507  22.694   7.595  19.263 -0.1435 -0.3458 -0.3821
38492W        W81508  18.662  33.254  21.545  0.0459 -0.1909 -0.1433
38493W        W81509   6.035  10.831   4.373 -0.3062  0.1060 -0.2615
38494W        W81510  14.402  17.610  14.413 -0.1013  0.1992 -0.1537
38495W        W81511  24.190  11.356   4.234  0.1337 -0.1504  0.1939
38496W        W81512  15.771  10.974  16.958 -0.0007  0.0972  0.0975
38497W        W81513   0.552  29.609   5.462  0.0070 -0.2569 -0.0491
38498W        W81514   0.209   0.744  23.225  0.1027 -0.3182  0.2502
38499W        W81515  31.295  12.399  15.137 -0.1026 -0.0668  0.0727
38500W        W81516   7.031   7.368  18.390 -0.0730  0.0522  0.1081
38501W        W81517   4.889   7.438  21.544 -0.0910 -0.1068  0.1606
38502W        W81518   1.196  27.476  29.061  0.0173 -0.1252  0.1222
38503W        W81519   1.444   2.750  14.472 -0.0328  0.0136 -0.0355
38504W        W81520   0.293   4.729  17.791  0.1839  0.2661 -0.0727
38505W        W81521  13.028  24.845  22.965  0.1585 -0.0153  0.0928
38506W        W81522   8.422  19.742   6.855  0.1985 -0.4746  0.0298
38507W        W81523  18.380   5.593  26.109  0.0205  0.3175 -0.1551
38508W        W81524  14.722   9.623  16.415  0.0724 -0.2302  0.5453
38509W        W81525   1.072   0.238   7.597 -0.2696  0.0242 -0.2543
38510W        W81526  24.624   3.744  29.173 -0.1788  0.4071 -0.0401
38511W        W81527  11.564   2.534   9.668 -0.4340 -0.0193 -0.1807
38512W        W81528   3.437  32.017   2.157  0.0108 -0.0416  0.1670
38513W        W81529  17.680   7.565   3.938 -0.0175 -0.0618  0.0295
38514W        W81530  31.324  12.575  27.193 -0.1132  0.4558  0.0172
38515W        W81531   1.705  21.779  24.358 -0.0361  0.1189  0.1231
38516W        W81532   3.945  32.335  21.421  0.1574  0.0798  0.2464
38517W        W81533   2.490  11.009  14.927  0.2963  0.0160 -0.1605
38518W        W81534  22.683   7.641   8.062  0.1649  0.0424  0.2658
38519W        W81535  34.640  19.132   0.492  0.3242  0.1544  0.2436
38520W        W81536  26.736  14.750   0.215  0.3247  0.2010  0.0002
38521W        W81537  32.800   0.592  17.553 -0.0074 -0.0525 -0.0451
38522W        W81538  11.926  32.700  24.431 -0.4747  0.0882  0.3505
38523W        W81539  24.103  11.148  15.194 -0.2274 -0.2998 -0.1267
38524W        W81540   9.998  10.667  13.851  0.2555  0.0299 -0.0481
38525W        W81541   4.900   4.308  20.435  0.0039  0.2981  0.1588
38526W        W81542  31.091   0.032  25.024  0.2064  0.0187 -0.0495
38527W        W81543  14.028  34.777   1.045  0.0744 -0.1429 -0.0853
38528W        W81544   7.037   4.304  18.574 -0.0479 -0.0873  0.0826
38529W        W81545  30.947  28.646  16.638  0.0270  0.1582 -0.3962
38530W        W81546  12.199  11.595  19.012 -0.1523 -0.2192  0.3754
38531W        W81547  14.150  30.492   2.349  0.2033  0.0252 -0.1112
38532W        W81548   5.448   6.212  15.911 -0.2912  0.0766  0.0190
38533W        W81549  12.227  16.306   2.273  0.1130 -0.1790 -0.1778
38534W        W81550  28.840  11.014  19.128 -0.0422  0.0471 -0.1584
38535W        W81551  18.835  13.581  15.102  0.2635 -0.1676  0.1519
38536W        W81552   0.209  19.469  19.627 -0.2492 -0.2319 -0.0257
38537W        W81553   4.683  10.444   0.812 -0.3780  0.2134  0.4467
38538W        W81554  11.159   6.743   7.662 -0.2279 -0.0528  0.3389
38539W        W81555   9.442   4.735  26.128 -0.0303 -0.1784  0.4981
38540W        W81556  26.407  13.018   6.582  0.7908 -0.0979 -0.0023
38541W        W81557  12.515  24.698  25.683  0.2130 -0.1880 -0.0043
38542W        W81558  30.136  29.795  22.100 -0.4646  0.0818 -0.3958
38543W        W81559  15.555   2.293  20.832 -0.1615  0.1666 -0.2322
38544W        W81560  10.750   5.995   6.023 -0.1455  0.0988 -0.0709
38545W        W81561  30.343   9.280  22.919 -0.1967 -0.0724 -0.2423
38546W        W81562  23.318  27.646  21.043 -0.1379 -0.0333 -0.0795
38547W        W81563  18.483   8.439  13.832  0.4009  0.1243  0.1899
38548W        W81564  15.181   5.125   8.508  0.0545 -0.0263  0.0204
38549W        W81565   5.668  32.659  21.808 -0.1629  0.4063  0.0520
38550W        W81566  34.211  32.943  27.564  0.0870 -0.0538  0.0173
38551W        W81567   4.062  16.613   4.558  0.2040  0.1513  0.1272
38552W        W81568   0.109  18.480  29.135 -0.2144  0.2310  0.1205
38553W        W81569  11.788  34.106  15.058  0.1363 -0.0600 -0.1326
38554W        W81570   5.949  15.944  22.409 -0.1043  0.0249 -0.0938
38555W        W81571  16.950   3.597   3.647 -0.2841  0.0566 -0.2141
38556W        W81572  13.940  32.109  14.225  0.1362  0.0523 -0.0593
38557W        W81573   9.707  23.960  20.479  0.2282  0.1075 -0.1075
38558W        W81574  26.740  34.241   9.179 -0.0648  0.1084 -0.0966
38559W        W81575  17.187  16.403  17.558 -0.4341 -0.0690  0.0680
38560W        W81576   1.163  14.730  21.819  0.0260 -0.1203 -0.0584
38561W        W81577  10.306   8.321   7.238  0.2045  0.3327  0.1359
38562W        W81578  12.333   3.307   2.256 -0.3462 -0.2483 -0.0365
38563W        W81579  16.966  12.330  11.872  0.1340 -0.1099  0.1721
38564W        W81580  17.916   7.532  28.285 -0.1617 -0.2645 -0.1663
38565W        W81581  10.618  14.579   5.030  0.1225 -0.1286  0.0297
38566W        W81582  19.023  14.284  13.002  0.2779  0.0688 -0.0113
38567W        W81583  15.879  30.998  14.437 -0.0613  0.2217  0.0195
38568W        W81584  11.421   9.090  26.991  0.1915  0.0937 -0.1781
38569W        W81585  23.536   0.876  23.088 -0.0318 -0.1533  0.2177
38570W        W81586   8.145  31.876  25.362  0.0669 -0.1578  0.1405
38571W        W81587  10.890  15.661  28.191  0.3458  0.4322  0.1715
38572W        W81588   9.402   1.312   9.514  0.1761  0.0271 -0.1498
38573W        W81589  12.423   3.859  19.826 -0.1276 -0.2408 -0.0181
38574W        W81590  24.106   8.153  23.163  0.0706  0.2846  0.3137
38575W        W81591  11.442  24.714  22.799 -0.0849  0.1059  0.0070
38576W        W81592   2.882  32.171   8.601  0.1422 -0.1094 -0.1571
38577W        W81593   8.822  25.488   8.868 -0.3203 -0.0471 -0.0336
38578W        W81594  31.694   3.889  27.896  0.3728  0.0676  0.1988
38579W        W81595  27.088  34.481  25.439  0.0795  0.1460 -0.1061
38580W        W81596  32.017   7.395  25.909  0.0807 -0.1147  0.3126
38581W        W81597  13.523   6.565   3.898  0.0056  0.0069 -0.0699
38582W        W81598  31.088   0.130  22.681  0.3235 -0.1100 -0.2888
38583W        W81599  20.193  27.203  27.802 -0.2498  0.3217  0.2047
38584W        W81600   4.245   6.475  18.879 -0.1654 -0.1261 -0.1522
38585W        W81601  13.326  14.167  24.336 -0.3102  0.1347 -0.0446
38586W        W81602  13.748  12.182   0.581 -0.0083 -0.0238 -0.3191
38587W        W81603   2.441  13.853   0.152 -0.1009  0.3408  0.1203
38588W        W81604   9.148   0.183  22.479  0.0881  0.5265  0.0906
38589W        W81605   9.677  31.170  15.379 -0.0246 -0.1192 -0.0932
38590W        W81606   8.471   2.660  20.893 -0.1339 -0.0912 -0.2811
38591W        W81607  11.740  33.575  26.072 -0.0202  0.2265 -0.0940
38592W        W81608  22.377   0.592  19.374 -0.3815  0.1300  0.0550
38593W        W81609  18.653  30.451   7.804  0.1507 -0.2834 -0.2526
38594W        W81610  31.360   3.590  17.166  0.0135 -0.0706 -0.4107
38595W        W81611  28.005  19.926  29.293  0.2098  0.1397  0.2632
38596W        W81612   9.608  15.559  28.913 -0.3487 -0.3646  0.0495
38597W        W81613  12.803  25.751   0.673 -0.4574 -0.0304 -0.0234
38598W        W81614  30.095   0.826   6.738  0.2647 -0.0816  0.2050
38599W        W81615  26.866   0.112  19.963  0.0018 -0.1293  0.2686
38600W        W81616  32.021  11.858  15.411 -0.0531 -0.2123 -0.0262
38601W        W81617  13.335  11.412  26.499  0.2580  0.0781  0.0731
38602W        W81618  16.041   3.306   5.099  0.1853  0.0045 -0.2855
38603W        W81619   4.325  12.905   3.369  0.0104 -0.0800  0.2890
38604W        W81620   8.811  27.320   3.492  0.2246  0.1045 -0.2048
38605W        W81621  20.377  10.189  21.569  0.0329 -0.3354  0.1376
38606W        W81622  16.488  29.711  27.762 -0.2501 -0.1717  0.0072
38607W        W81623  30.771  13.316  18.724  0.0418  0.1758  0.0195
38608W        W81624   6.802   2.786  22.341  0.3686  0.0865  0.0010
38609W        W81625  14.434  32.749  22.251  0.1217 -0.3381 -0.1286
38610W        W81626   9.904  30.841  23.526 -0.3222 -0.0499  0.0169
38611W        W81627   3.438  10.098  14.349 -0.0734  0.0566  0.3067
38612W        W81628   0.211   9.581   4.306 -0.0911  0.1041 -0.1153
38613W        W81629  13.075  12.686  28.691  0.3981 -0.0844  0.1917
38614W        W81630   6.067  12.376  13.222  0.3041  0.0676 -0.1571
38615W        W81631  22.750  31.572  22.999 -0.1803 -0.1691  0.4490
38616W        W81632  12.597   6.310   6.416 -0.1521 -0.0276  0.0689
38617W        W81633  27.576  32.344  18.263 -0.0473 -0.1712  0.0523
38618W        W81634   6.218  24.538  22.862 -0.2169  0.0735  0.3068
38619W        W81635  28.775  29.005  17.535  0.0997  0.3611  0.1050
38620W        W81636   4.927   5.963   4.779  0.0967  0.1060 -0.1628
38621W        W81637  14.818  26.332  18.823 -0.0393 -0.2816  0.1505
38622W        W81638  15.857  26.641   4.076  0.1963 -0.0080  0.1768
38623W        W81639  27.619  25.862   5.796  0.4281  0.2688  0.2166
38624W        W81640  17.543   2.536   8.908 -0.4390  0.2184  0.0681
38625W        W81641  10.975   3.780  14.240 -0.0090  0.0016  0.1723
38626W        W81642  34.271  16.443   4.374 -0.1482  0.2910 -0.0436
38627W        W81643   7.443   2.363  28.711 -0.3374  0.0975  0.0463
38628W        W81644   1.599  13.898   6.240  0.1885  0.2580  0.0103
38629W        W81645   5.989  11.701   1.882 -0.0261  0.2269  0.2334
38630W        W81646   5.878  13.057  27.817 -0.1692 -0.1326 -0.1005
38631W        W81647  20.489   5.007  21.961  0.4735  0.2598  0.1493
38632W        W81648  13.665  17.321   2.585  0.3531  0.1290 -0.4466
38633W        W81649  15.014  31.503   1.150 -0.0380 -0.2665 -0.3000
38634W        W81650   9.751   8.465  20.739 -0.2346  0.3113 -0.0189
38635W        W81651  27.934  32.514  19.005  0.2104 -0.0406  0.0164
38636W        W81652  18.192   6.712  10.230  0.0767 -0.1110  0.4014
38637W        W81653   0.804   2.555   3.177  0.0320 -0.2482 -0.0226
38638W        W81654   0.057  32.413  22.049 -0.0990  0.1355 -0.0799
38639W        W81655  33.605   7.036  25.001 -0.1914  0.0227  0.1097
38640W        W81656  13.331  27.215  18.596  0.0795  0.1149 -0.1050
38641W        W81657  15.994  19.878  27.618  0.0752 -0.1076  0.0115
38642W        W81658  34.493   0.739  25.413 -0.1650  0.0672 -0.0139
38643W        W81659  10.051  26.177  22.819  0.1693 -0.0169 -0.2482
38644W        W81660   6.048  15.103  27.348  0.0046 -0.3836 -0.1762
38645W        W81661  10.837  33.033  16.591 -0.3156 -0.2158  0.0382
38646W        W81662   8.059  15.332  18.275 -0.1151 -0.2016  0.0005
38647W        W81663  21.462   3.137   7.663  0.0116  0.0152  0.2533
38648W        W81664  13.060   8.611  24.067  0.1892  0.0931 -0.3247
38649W        W81665   8.823   5.106  17.682  0.0651 -0.0869 -0.0565
38650W        W81666   1.637   2.858  20.023  0.0826 -0.0141 -0.1717
38651W        W81667  14.615  16.141  22.010 -0.1124 -0.0718 -0.1644
38652W        W81668   8.046   2.166  27.155 -0.1306 -0.0365 -0.0567
38653W        W81669   3.888   2.409   3.727  0.1280 -0.0549 -0.3450
38654W        W81670   3.980   5.037  15.419  0.0080 -0.1970  0.0291
38655W        W81671  14.055   4.611  25.150  0.1039  0.0528 -0.3803
38656W        W81672  33.888   1.078   1.586  0.2320  0.0039  0.1257
38657W        W81673  31.644   4.774   4.183  0.2893  0.1844 -0.2263
38658W        W81674  16.433  11.984   6.313  0.2857 -0.1652  0.1925
38659W        W81675   5.447   4.802  14.776 -0.0009 -0.1150  0.1772
38660W        W81676  11.799  10.277   0.722  0.1284  0.1639  0.0253
38661W        W81677  11.414  10.397  20.426  0.1294  0.2266 -0.0591
38662W        W81678   5.667  24.523  16.163  0.4284 -0.1013  0.3245
38663W        W81679  25.898   2.280   7.208  0.2919  0.2188 -0.2092
38664W        W81680  18.665  16.730  22.194  0.0774  0.0605  0.1898
38665W        W81681   1.621  12.682  25.632  0.2675 -0.0340 -0.0740
38666W        W81682  18.369  13.064   5.681  0.2416 -0.3863 -0.0282
38667W        W81683  10.073   0.702  20.152  0.0285 -0.0319 -0.1473
38668W        W81684  11.173  28.375  28.349  0.2226  0.0539 -0.2539
38669W        W81685  31.914  20.910   7.377 -0.2590 -0.0846  0.0838
38670W        W81686   5.124  23.752  19.433 -0.3508  0.0801  0.1145
38671W        W81687   7.801  10.929   4.132  0.1347 -0.1208 -0.0604
38672W        W81688   8.648  10.390  28.616  0.2601  0.2032 -0.2896
38673W        W81689  21.246   6.128   8.613 -0.2475 -0.0737 -0.1874
38674W        W81690   2.550   5.940  23.143  0.0473  0.0334  0.0312
38675W        W81691  19.719   6.712  19.999 -0.0538 -0.1890 -0.2393
38676W        W81692  11.998  17.843   2.273  0.3578  0.3554  0.0906
38677W        W81693  20.831  10.229   3.342  0.0359 -0.0149  0.2140
38678W        W81694  15.001  17.576  23.352  0.3404 -0.0590  0.0394
38679W        W81695   5.840  16.861  25.018  0.1006 -0.1854  0.3877
38680W        W81696  13.705  27.886  21.309 -0.0733  0.1385  0.0094
38681W        W81697   9.325  32.701  14.239  0.1739 -0.3627 -0.2366
38682W        W81698  23.855  33.794  10.586  0.1190  0.1859  0.0540
38683W        W81699  10.300   4.601  22.148 -0.2782 -0.2576  0.2910
38684W        W81700  30.584   1.451  16.211 -0.3360  0.2075  0.1713
38685W        W81701   5.919  12.626  19.048 -0.0064 -0.1045  0.1718
38686W        W81702  18.572  10.914  13.462  0.2078 -0.0489  0.0019
38687W        W81703   7.868   0.203  28.706 -0.0240 -0.0358  0.0176
38688W        W81704   7.958   0.511  19.636  0.0566 -0.2649 -0.0556
38689W        W81705   3.763   7.536   5.445  0.0553 -0.3414  0.0923
38690W        W81706  11.162  32.556  27.084 -0.0435 -0.0354 -0.2908
38691W        W81707  18.983  14.352  25.499  0.0497 -0.0672 -0.0376
38692W        W81708   0.416   5.771  19.058  0.3000 -0.1439  0.2033
38693W        W81709   8.185   0.141  21.468  0.2022  0.4679 -0.1766
38694W        W81710  13.251   9.769   1.786 -0.0433 -0.2356  0.4129
38695W        W81711  32.664   8.269  18.412 -0.2050 -0.2162 -0.3888
38696W        W81712  13.201  18.167  27.736 -0.1775 -0.0243  0.5885
38697W        W81713  12.192  12.772   2.001 -0.0989  0.2776 -0.1130
38698W        W81714  20.508  12.883   0.185 -0.2685  0.2136 -0.0741
38699W        W81715   0.842   7.820  28.972  0.0155  0.1587 -0.1764
38700W        W81716  31.156   7.349  27.697 -0.1524  0.0133 -0.2286
38701W        W81717   8.329  24.673  25.315  0.1461  0.0312 -0.1775
38702W        W81718  11.504  32.237   8.114  0.1464 -0.3205 -0.1515
38703W        W81719  14.692   6.047   5.510 -0.0859 -0.2783 -0.1247
38704W        W81720  25.124   8.719  22.400 -0.0703 -0.0225  0.0771
38705W        W81721  31.956  33.515   0.589  0.0649  0.2456 -0.0211
38706W        W81722  14.665   6.664  10.173  0.0278 -0.0917  0.0395
38707W        W81723   0.455   8.585   9.756 -0.2729 -0.1513 -0.3502
38708W        W81724   8.314  26.906   0.784 -0.1454  0.2202 -0.0870
38709W        W81725  26.018  31.730  20.367 -0.2417  0.1517  0.1760
38710W        W81726  23.862  33.915  24.192 -0.0619  0.0824 -0.0599
38711W        W81727   2.536   1.415   6.923 -0.1619 -0.0869 -0.1782
38712W        W81728  19.212  15.699   4.307  0.0629 -0.2030  0.1606
38713W        W81729   5.357  18.271  22.988  0.1945  0.2867  0.1544
38714W        W81730  18.238   4.701   1.836  0.2559  0.0396 -0.0244
38715W        W81731   6.771   6.284  21.683 -0.1381 -0.2220  0.3097
38716W        W81732   5.731  13.115  19.296 -0.1005 -0.4334  0.0097
38717W        W81733  11.001   4.592   7.098  0.0842  0.1499 -0.3046
38718W        W81734   7.070   0.011   4.686 -0.0368 -0.2398  0.0333
38719W        W81735  23.097  34.108  18.837  0.1034  0.0558 -0.1183
38720W        W81736  29.727  28.184  18.348  0.0186 -0.0106  0.1154
38721W        W81737  24.702   9.162  27.951  0.2047  0.2241 -0.1238
38722W        W81738   7.789   5.533  22.538  0.0057 -0.2581 -0.5100
38723W        W81739  15.438  33.731   9.483 -0.2888  0.0546  0.0716
38724W        W81740  27.355  13.706   0.678 -0.1375  0.1718  0.3760
38725W        W81741  17.196   2.718  21.629  0.2229 -0.0466  0.1361
38726W        W81742  19.609  16.515   5.077  0.0914  0.2967 -0.1852
38727W        W81743  11.226  12.397  27.004 -0.0301 -0.3279  0.2719
38728W        W81744  11.545   1.241  18.198 -0.0865  0.0685  0.1746
38729W        W81745  17.949   4.450  27.243 -0.2933  0.2444 -0.2553
38730W        W81746  13.972  30.020  27.831 -0.0866 -0.0289  0.1326
38731W        W81747   8.139  14.637   8.810  0.0885 -0.1041  0.1354
38732W        W81748   9.082   8.846   4.689  0.0788 -0.1077  0.2243
38733W        W81749  10.062   1.988   8.874  0.1279  0.0725 -0.0417
38734W        W81750   6.730   3.316  28.163 -0.0428 -0.1454  0.0183
38735W        W81751   5.019  13.941  15.005 -0.2954 -0.3486  0.4985
38736W        W81752  29.072  20.951   5.361 -0.2233  0.1794  0.0495
38737W        W81753  11.263   8.514   1.914 -0.2075  0.0745  0.0704
38738W        W81754   4.436  17.394   5.921 -0.3082  0.1173 -0.1319
38739W        W81755   0.751   5.886  27.064 -0.0204  0.0923 -0.1462
38740W        W81756   4.492  22.052  24.702  0.1581  0.0249 -0.1051
38741W        W81757  26.067   9.334  18.312  0.0005  0.1938 -0.1984
38742W        W81758  20.231   9.485  17.185 -0.0678  0.2144  0.1828
38743W        W81759  28.947   8.530  11.535 -0.0306 -0.2171 -0.1605
38744W        W81760  30.634   8.182  23.475  0.2216  0.1510 -0.0366
38745W        W81761  22.534  11.406  26.979  0.3789  0.1802  0.0724
38746W        W81762  10.582   6.888  18.702  0.1769  0.1580 -0.1182
38747W        W81763  28.591  11.594   5.635 -0.1414  0.1844  0.3124
38748W        W81764  14.809  18.595  13.027  0.0329  0.1359 -0.3126
38749W        W81765  33.729   2.548   8.138 -0.2902  0.0682 -0.0797
38750W        W81766  34.494  22.465  27.963  0.5101  0.1084  0.3644
38751W        W81767  30.994   1.355   1.216 -0.0870 -0.1228  0.3244
38752W        W81768   2.905  28.059  17.576  0.1858 -0.1739  0.1360
38753W        W81769  18.202  31.541  20.887  0.2247 -0.0156  0.2909
38754W        W81770  15.630  15.677  24.189  0.2342  0.1427 -0.0076
38755W        W81771  29.458  14.894  25.558 -0.1097  0.1065 -0.0912
38756W        W81772   2.741   3.729  20.327 -0.3172 -0.0146  0.0562
38757W        W81773  32.610   8.384  25.865 -0.5599 -0.1249 -0.0239
38758W        W81774  21.046  30.252  18.093  0.2376 -0.3067  0.0115
38759W        W81775  10.589  22.383   7.092  0.0397 -0.0325 -0.1112
38760W        W81776  15.543  30.563  20.781  0.2684 -0.0155 -0.1299
38761W        W81777   6.876  17.610   5.467 -0.2661  0.2651  0.3713
38762W        W81778  11.359  26.034  28.284 -0.1446 -0.2535  0.0501
38763W        W81779   0.790   7.646   6.748  0.1374  0.0774 -0.0698
38764W        W81780   8.606  26.497   4.012 -0.0896  0.1124 -0.1379
38765W        W81781  12.262   8.982   5.989 -0.0404  0.1872  0.0823
38766W        W81782  15.043   1.639  24.153  0.0681  0.1109  0.0101
38767W        W81783  10.610  32.763   2.830  0.0494  0.2681 -0.0616
38768W        W81784  15.271   4.734  28.158  0.0749  0.0187 -0.0885
38769W        W81785   4.336  26.103  19.076  0.4311 -0.2241  0.1192
38770W        W81786  21.342   0.676  19.024  0.0234  0.1716  0.2092
38771W        W81787  22.984   4.055  15.207 -0.2651  0.0556  0.0129
38772W        W81788   4.927  29.669   5.496 -0.0377 -0.0598  0.0224
38773W        W81789  14.334  25.298  22.221 -0.3708 -0.0171  0.0736
38774W        W81790  33.536  18.461  20.889 -0.0370  0.2387  0.0132
38775W        W81791   8.614  14.909  23.628 -0.1477  0.2153  0.2265
38776W        W81792  25.417   5.176   8.440  0.1055 -0.0692  0.0304
38777W        W81793  13.563  26.971  16.197  0.1237 -0.1039  0.3695
38778W        W81794  13.231  23.685  13.778 -0.1632  0.0174 -0.1257
38779W        W81795   0.307  25.249   9.395 -0.0479  0.1120 -0.0548
38780W        W81796   0.901   7.250   6.417  0.2107  0.0174 -0.0457
38781W        W81797  10.105  18.781  29.319  0.2161  0.0607  0.0754
38782W        W81798   2.976   5.165   3.952  0.1546  0.1386 -0.2514
38783W        W81799  27.125  17.816   2.537 -0.0777  0.0232  0.3302
38784W        W81800  31.896  28.508   6.666 -0.0102  0.1878 -0.0835
38785W        W81801  29.208  24.068   2.290 -0.3464  0.1589  0.0859
38786W        W81802  30.640  25.673  28.598 -0.0332  0.2935  0.0156
38787W        W81803   2.771  31.773   3.374 -0.1629 -0.1574  0.0504
38788W        W81804  21.601  31.048   4.608 -0.1775 -0.1793  0.2596
38789W        W81805  32.647  23.985   7.449 -0.2954  0.0434 -0.1009
38790W        W81806  11.956  25.072  27.197  0.1556  0.2742 -0.0607
38791W        W81807   0.100  26.779  22.594  0.0149  0.1490  0.1734
38792W        W81808  14.156  18.837  11.891 -0.1610  0.1641  0.1634
38793W        W81809  21.893  10.739   6.749  0.0426 -0.0203 -0.1581
38794W        W81810  18.478   3.869  16.847  0.1307 -0.0817 -0.2389
38795W        W81811  24.597  16.997  18.127  0.0089 -0.4575  0.0512
38796W        W81812  16.975   6.919  20.947  0.2019  0.0338 -0.2914
38797W        W81813  16.065   0.722   8.724 -0.0773 -0.1191 -0.2669
38798W        W81814   7.530  17.601  27.492  0.0192 -0.1260  0.1920
38799W        W81815   8.080   6.060  27.004 -0.1278 -0.1225  0.1464
38800W        W81816  33.691  32.431  24.334  0.0953  0.3744  0.2541
38801W        W81817  24.894  10.220   1.421  0.0710 -0.0921  0.3104
38802W        W81818   4.056  33.387  27.821 -0.1080  0.0982  0.0044
38803W        W81819  17.644  32.141   4.527 -0.0177  0.2126  0.4045
38804W        W81820   2.399   3.661  28.011 -0.0874  0.0038  0.1701
38805W        W81821  17.070  21.514   3.169  0.1548 -0.0050  0.0499
38806W        W81822  13.721  24.474   5.400 -0.0367 -0.0845 -0.2700
38807W        W81823  25.842   5.194   0.079 -0.3227 -0.0393 -0.0079
38808W        W81824   3.853   4.711  27.302 -0.0735  0.4123 -0.2363
38809W        W81825  19.502  26.241   3.853  0.2201  0.0436 -0.0767
38810W        W81826  21.126  13.798   1.068  0.0913 -0.2408  0.1830
38811W        W81827   9.090  10.124   3.703  0.4933 -0.2088 -0.1460
38812W        W81828  14.111  27.230   4.194  0.0762 -0.2926 -0.2718
38813W        W81829  10.995   4.811   4.662  0.0234 -0.2887  0.2152
38814W        W81830  15.639   5.128  15.480 -0.3041  0.2047  0.0864
38815W        W81831   8.666   3.255   3.420 -0.2977 -0.2440  0.1070
38816W        W81832  10.299  19.106   6.436 -0.1033  0.3209  0.1992
38817W        W81833  33.922  32.465  21.843  0.0157  0.1652  0.1091
38818W        W81834   3.420  30.787  21.008  0.0842  0.1826  0.0195
38819W        W81835   1.504  10.113   5.678 -0.3613  0.1923 -0.1334
38820W        W81836  18.153  28.041   4.822 -0.1980 -0.0403 -0.1564
38821W        W81837   5.141   8.561  16.188 -0.1093  0.2511 -0.5014
38822W        W81838   9.807  15.122   8.033  0.1011 -0.0447 -0.0901
38823W        W81839  12.512  23.000  24.559  0.2592  0.2694  0.2605
38824W        W81840  27.566  18.423  22.014 -0.1063 -0.0439 -0.1972
38825W        W81841   9.709  12.591   2.179  0.1983 -0.1240 -0.1495
38826W        W81842   2.012  15.023  22.057  0.3325 -0.0812  0.3317
38827W        W81843  13.589  28.306   1.117  0.0441  0.0632 -0.0296
38828W        W81844  11.066   8.708  22.234 -0.2284  0.0646  0.0896
38829W        W81845  21.832   1.244   1.589 -0.0062  0.0169  0.0563
38830W        W81846   6.754   0.387  11.022 -0.1415 -0.0145  0.1449
38831W        W81847  15.238   8.947   5.298 -0.2078 -0.0462  0.2008
38832W        W81848   9.718  33.783  26.388 -0.0862 -0.0815 -0.1806
38833W        W81849  18.188  18.457  14.458 -0.0485  0.0721  0.0077
38834W        W81850   3.058   7.236   8.594 -0.0740 -0.0420 -0.2116
38835W        W81851   0.633  20.867  14.636 -0.0444 -0.0735 -0.1291
38836W        W81852  34.184  14.458   8.595  0.1086 -0.0083  0.2948
38837W        W81853  34.620   0.377   3.969 -0.3427  0.0668 -0.0555
38838W        W81854  33.134  16.223  25.992 -0.1044 -0.0220  0.0737
38839W        W81855   9.523  28.888   7.969  0.2095 -0.0525 -0.3338
38840W        W81856  31.387  30.638  24.659  0.0375 -0.0729  0.0626
38841W        W81857  19.855   2.324  21.676 -0.2523  0.0797 -0.1318
38842W        W81858   5.290   3.852   3.981 -0.1147  0.0751  0.2595
38843W        W81859  27.852  18.377  16.441  0.1697  0.0657  0.0274
38844W        W81860   9.472  10.275  19.414 -0.0514 -0.1750  0.1062
38845W        W81861  13.152  32.375  25.768  0.0240 -0.1737 -0.2039
38846W        W81862  24.861  14.905  25.139 -0.2142  0.1586  0.0761
38847W        W81863   5.969  12.698  28.275  0.2796 -0.0570  0.0959
38848W        W81864  27.674  11.884  27.300 -0.0866 -0.1332 -0.0190
38849W        W81865  21.675  17.306   4.455  0.0809 -0.3835 -0.1900
38850W        W81866  19.857  17.945  15.862 -0.3199  0.2983 -0.0823
38851W        W81867   7.823   5.103  19.579 -0.0783  0.1996 -0.0404
38852W        W81868  17.766  23.335  23.204  0.2410 -0.0443 -0.0835
38853W        W81869  17.843  13.921  25.015  0.2047  0.0910  0.0652
38854W        W81870  23.533  29.704  18.105 -0.0561 -0.0409 -0.2622
38855W        W81871   1.353   6.936  19.007 -0.2092 -0.2241 -0.0751
38856W        W81872   7.108  10.561   0.471 -0.1593  0.0233  0.1835
38857W        W81873  10.160  24.532  25.630  0.3173  0.0680 -0.1762
38858W        W81874  29.538  14.715   8.902  0.0061 -0.0989  0.1562
38859W        W81875   3.570  32.716  25.671 -0.0890  0.2726 -0.0026
38860W        W81876  32.316   6.092  17.262  0.0760  0.0243 -0.0570
38861W        W81877  24.244  27.483  18.190  0.1714  0.3674 -0.0603
38862W        W81878  13.280  12.582  26.572 -0.1369  0.2120 -0.0098
38863W        W81879  17.166   7.520   1.839 -0.2813  0.2509  0.2476
38864W        W81880  13.447   4.908  23.184  0.2596  0.0286  0.2822
38865W        W81881  18.728   4.804   4.230 -0.0982  0.1637  0.1172
38866W        W81882  34.118   8.536  18.910  0.0254 -0.2675  0.1748
38867W        W81883  20.539   2.919   2.098  0.1718  0.0941 -0.0178
38868W        W81884  15.093   1.056  18.240 -0.0800 -0.0873 -0.4776
38869W        W81885  22.057  20.427  24.521 -0.4304  0.1377  0.2652
38870W        W81886  26.128  14.901  25.106  0.0293 -0.0473 -0.2022
38871W        W81887  15.848   6.593  28.342  0.3781  0.1066 -0.2432
38872W        W81888  33.507   1.471  18.503  0.0925  0.0902 -0.0649
38873W        W81889  16.314  11.116  17.403  0.2823  0.0898  0.0591
38874W        W81890  13.160  28.009   3.083 -0.2867 -0.1683  0.2232
38875W        W81891   7.028  33.511  15.377 -0.2797 -0.0736 -0.2542
38876W        W81892  34.095   3.981   1.981  0.1254 -0.0248 -0.4629
38877W        W81893  19.728  32.462  14.979  0.2352 -0.1223  0.2500
38878W        W81894  28.728  31.057   3.456 -0.0372 -0.0936  0.0188
38879W        W81895   7.357   0.632   9.782 -0.0255  0.0082  0.2965
38880W        W81896  31.972   4.446  25.588 -0.0167  0.0851 -0.2731
38881W        W81897   5.811  10.388  20.870 -0.0613 -0.0213  0.0020
38882W        W81898  10.583   3.170  27.949 -0.0122  0.0375 -0.0467
38883W        W81899  34.487  31.013  27.075  0.2206 -0.0969  0.0460
38884W        W81900  14.730  28.109  25.914 -0.2537  0.2955 -0.0231
38885W        W81901  19.804   2.732  25.035  0.3041  0.2458  0.0456
38886W        W81902  30.270   7.352  20.543  0.0211 -0.0852  0.2204
38887W        W81903  17.959   4.769   1.349 -0.0181  0.0217  0.0541
38888W        W81904   2.728   0.805  19.821 -0.2877  0.0149 -0.0170
38889W        W81905  24.061   7.299  10.225  0.0159  0.0423 -0.1548
38890W        W81906  20.387   8.803  29.285  0.1799  0.2457  0.1298
38891W        W81907   3.162  33.791  18.051  0.0583 -0.1500  0.0953
38892W        W81908  30.610  19.559  15.329  0.0829  0.0963 -0.1395
38893W        W81909   0.337   9.964   0.859  0.1271  0.1922  0.1261
38894W        W81910  12.413   7.197   0.242  0.1024  0.0082 -0.2475
38895W        W81911   3.679   5.888  20.027  0.0665 -0.0791  0.0215
38896W        W81912   1.094  10.088  20.584  0.0562  0.2391  0.1347
38897W        W81913  19.165  11.540  25.852 -0.0522 -0.1043  0.1281
38898W        W81914  31.256  24.755   6.371 -0.1312 -0.2088 -0.0868
38899W        W81915  31.936  25.851   1.840 -0.0676 -0.1088 -0.0992
38900W        W81916   5.619   2.346   0.154 -0.1208 -0.2282  0.0663
38901W        W81917  33.785  24.447  18.862 -0.1343 -0.1301 -0.2236
38902W        W81918  14.582  28.895   0.815  0.0662 -0.2631 -0.2069
38903W        W81919  20.152   9.845  24.478 -0.0302 -0.1059  0.2820
38904W        W81920  13.996  14.840  26.312  0.2033 -0.5178 -0.0350
38905W        W81921  19.148   7.118   1.539 -0.0898 -0.1088 -0.0552
38906W        W81922  11.483  28.236  28.725  0.2292 -0.1154 -0.0064
38907W        W81923  26.649  23.705  28.623 -0.1952 -0.1765  0.2539
38908W        W81924   9.909  10.238  23.991  0.1930  0.0222 -0.2048
38909W        W81925  17.972   6.854   2.285  0.4183 -0.0717  0.1847
38910W        W81926  28.601  13.090  19.158  0.0330 -0.0827 -0.2133
38911W        W81927  25.125  14.980   3.611  0.2541 -0.0427  0.1965
38912W        W81928  34.430  23.900   6.689 -0.0101 -0.3620  0.1908
38913W        W81929  14.216  24.652  24.563  0.0152 -0.1252 -0.2238
38914W        W81930  29.897   5.031  21.356  0.3009 -0.1163 -0.0958
38915W        W81931   6.561  17.531  16.614  0.0621 -0.0236  0.0296
38916W        W81932  22.189  24.077  20.950  0.0184 -0.0690 -0.0143
38917W        W81933  18.652   9.953   6.552 -0.0209 -0.0380  0.0784
38918W        W81934  34.070  10.327  17.789 -0.2047  0.1121  0.0797
38919W        W81935  34.746  33.165  20.551  0.2063  0.2653  0.1478
38920W        W81936  22.878  33.686  28.639  0.0284  0.5116  0.1506
38921W        W81937   0.655   0.919   1.675 -0.2266 -0.1424 -0.2155
38922W        W81938  26.337   1.683   5.300 -0.0859 -0.0626  0.3084
38923W        W81939   5.296   9.499  19.767 -0.0071  0.2952  0.0873
38924W        W81940  33.774   5.116  14.644  0.0665 -0.0065  0.1809
38925W        W81941  24.908  18.237  25.961 -0.3221 -0.0816 -0.0201
38926W        W81942  26.917  13.238  29.318  0.0817 -0.0044 -0.0324
38927W        W81943  23.819   6.613  10.129  0.2736 -0.3067 -0.0967
38928W        W81944  13.790   0.534   4.933 -0.0956  0.1026 -0.1386
38929W        W81945  31.602  31.293  10.816  0.2311  0.0546  0.2876
38930W        W81946  11.080  31.208  21.798 -0.0220 -0.3534  0.0558
38931W        W81947  15.075   0.801  22.298 -0.1187 -0.2597  0.1965
38932W        W81948  11.255   7.844   7.230  0.1070 -0.1201  0.7374
38933W        W81949  11.834  12.065   2.414 -0.2928 -0.0705 -0.1203
38934W        W81950   8.824   8.411  26.664 -0.1558 -0.0183  0.0164
38935W        W81951   2.479  26.030   2.487 -0.0035 -0.0613  0.1530
38936W        W81952   2.644  10.569  22.453 -0.1716 -0.2578  0.2146
38937W        W81953  33.162  33.649  26.857  0.2135 -0.0617 -0.2041
38938W        W81954  34.035   2.909   4.294  0.3222 -0.1390  0.2192
38939W        W81955   4.405  34.169   6.779  0.1022 -0.0768  0.2851
38940W        W81956  11.270  18.365  21.689 -0.0304 -0.0343  0.1376
38941W        W81957   9.363  22.892  15.611  0.1624  0.0440  0.3573
38942W        W81958   7.962  27.413   7.941 -0.1576  0.0171  0.1735
38943W        W81959  14.422   6.818  18.105  0.0523 -0.4949 -0.2620
38944W        W81960  27.378   6.863  20.581 -0.1740 -0.0584 -0.2648
38945W        W81961   1.868  28.460   4.077 -0.2720 -0.0646  0.0484
38946W        W81962  14.579  19.947  19.641  0.1338  0.1588  0.1271
38947W        W81963  16.843   6.510  22.845  0.0077 -0.3985 -0.1292
38948W        W81964   3.850   3.008  27.477 -0.1484 -0.1709  0.2552
38949W        W81965   1.735  12.024  19.599 -0.1119 -0.1717 -0.3015
38950W        W81966   8.629  30.096  21.490  0.0860 -0.1456 -0.0136
38951W        W81967  10.368   0.438  23.723  0.1450 -0.1152 -0.2326
38952W        W81968  19.047  25.298  16.289  0.2464 -0.1698 -0.0679
38953W        W81969  15.268  13.551  25.256 -0.1335 -0.0597 -0.1736
38954W        W81970  31.146  16.854  15.660  0.0040 -0.0849  0.1742
38955W        W81971   8.998   9.373   7.494 -0.0971  0.0972  0.1260
38956W        W81972   6.262   2.251  27.154  0.0001  0.1160  0.1450
38957W        W81973  10.687  21.101  26.298  0.1198 -0.2594 -0.1211
38958W        W81974  31.541  34.350  17.809  0.0805  0.0776  0.0710
38959W        W81975   3.862  21.182   1.116 -0.0819 -0.2307 -0.0782
38960W        W81976   5.585  25.896  25.134 -0.1273  0.1866 -0.1153
38961W        W81977  17.854   6.638  23.419  0.1879  0.3528 -0.3432
38962W        W81978  33.870  17.774  10.053 -0.2372 -0.0630  0.1116
38963W        W81979   6.275   6.462   0.077 -0.1327  0.0062 -0.0310
38964W        W81980   6.285  10.091   8.637  0.4059  0.2271  0.1707
38965W        W81981  18.070  26.662  13.848 -0.1073  0.0477  0.0099
38966W        W81982  11.009  20.522  14.495  0.1571 -0.0070 -0.0749
38967W        W81983  26.428  30.488  22.943 -0.3046 -0.0389  0.0277
38968W        W81984   8.615  23.437  25.795  0.1426  0.3541  0.3287
38969W        W81985  17.792  12.302  26.542  0.5871 -0.0056 -0.1639
38970W        W81986  23.762  12.324  19.375 -0.0642 -0.0684  0.1407
38971W        W81987  32.773   9.241   8.801  0.0468 -0.2832  0.0512
38972W        W81988   1.464   4.336  15.025  0.0165 -0.1287 -0.2732
38973W        W81989  20.915   0.847  26.260  0.3374 -0.1563 -0.3975
38974W        W81990   0.292   6.177   9.557 -0.0153 -0.0586 -0.0774
38975W        W81991  31.329  14.632   7.051  0.0330  0.2276 -0.1124
38976W        W81992  17.334  13.982  13.332  0.1658 -0.0387  0.3327
38977W        W81993   9.687   2.716   3.129 -0.1249 -0.5309 -0.3460
38978W        W81994  10.940   3.720  23.210 -0.0671  0.2263  0.1211
38979W        W81995   4.977   1.281  17.449  0.0291 -0.0276  0.2043
38980W        W81996   1.468   4.670   8.371  0.2659  0.1540  0.2422
38981W        W81997  20.060  29.840  23.278 -0.2111  0.1638  0.1070
38982W        W81998  34.531   2.234   1.711 -0.0129  0.1879 -0.2076
38983W        W81999   4.378   8.142  20.853  0.2814  0.0009 -0.0114
38984W        W82000   6.888  13.233  27.173  0.1939 -0.0690  0.3278
38985W        W82001  33.547   5.868   0.339 -0.0821 -0.1275 -0.3153
38986W        W82002  23.825   5.791  17.166 -0.1626 -0.0711 -0.0516
38987W        W82003  16.129   7.549  16.201  0.0819 -0.0402  0.0350
38988W        W82004   5.071   5.259  18.812  0.4975 -0.0003  0.1031
38989W        W82005   0.110  15.737  23.200 -0.1958 -0.2326 -0.2783
38990W        W82006   7.537  23.884   8.692  0.3400 -0.0225 -0.0787
38991W        W82007  21.893  23.869  25.955 -0.2371 -0.1511 -0.0480
38992W        W82008  12.786  34.364  28.617 -0.0735  0.0161  0.2051
38993W        W82009   2.166   0.153  27.411 -0.0942 -0.0325  0.1282
38994W        W82010  25.246  13.228  16.667 -0.2623 -0.0567  0.1071
38995W        W82011  12.115   4.836  26.851 -0.0110 -0.4457  0.1093
38996W        W82012  28.888   3.863  10.302  0.1720  0.2743 -0.0634
38997W        W82013  30.725  28.128   5.940  0.0817  0.1756  0.0464
38998W        W82014  14.866  29.972   3.879  0.0555  0.1501 -0.1291
38999W        W82015  10.799  29.874  10.019 -0.0729  0.1480  0.0438
39000W        W82016  17.784   3.743  21.840  0.0451  0.2352  0.0182
39001W        W82017  23.147   2.838   3.343 -0.0322 -0.2194  0.0868
39002W        W82018  18.905  19.042   3.511 -0.1606  0.0245 -0.0983
39003W        W82019  17.890   8.731  25.852 -0.2786 -0.1200  0.0608
39004W        W82020  33.526  31.016   3.069 -0.1513 -0.1102  0.2471
39005W        W82021  27.635  11.992  23.915 -0.2849  0.0201  0.0636
39006W        W82022  34.167   5.932  18.606 -0.0338  0.1224 -0.1449
39007W        W82023  10.995   2.816  21.484  0.2575  0.0445 -0.1228
39008W        W82024   8.646  13.770   7.454  0.0043  0.4019 -0.3019
39009W        W82025  34.676  14.043  17.432 -0.0923  0.0568 -0.1078
39010W        W82026   3.104   4.279  26.760  0.3308 -0.0084  0.1326
39011W        W82027   2.333   1.727  27.060 -0.2549  0.3044 -0.1713
39012W        W82028  11.461   6.739  14.975  0.0171 -0.1492  0.0589
39013W        W82029  25.605  29.433   8.020  0.1837 -0.0348  0.1152
39014W        W82030  19.095  12.692   2.013  0.2092 -0.1879 -0.0845
39015W        W82031  10.982  30.710   6.606  0.2423 -0.0826  0.0653
39016W        W82032  18.449   5.417  25.613  0.1949  0.1441  0.1261
39017W        W82033  12.335  15.750   6.027  0.2956 -0.1369 -0.0560
39018W        W82034  23.672   7.916   8.740  0.2312  0.1977 -0.0874
39019W        W82035  18.281   3.721   4.351 -0.0606  0.1282 -0.1194
39020W        W82036  12.570   7.657   3.953  0.2888  0.0126 -0.1303
39021W        W82037  11.322  34.109   1.940  0.1315 -0.3206  0.0003
39022W        W82038   4.258  32.476   1.890 -0.0937  0.0585 -0.2503
39023W        W82039   5.297  27.119   1.813  0.1357  0.0114 -0.1433
39024W        W82040  20.843  34.301  18.651 -0.0386  0.5323  0.1914
39025W        W82041  32.319  11.145   8.569 -0.0770 -0.2935 -0.3987
39026W        W82042   6.616   1.332   1.711  0.2264  0.0618 -0.0006
39027W        W82043  20.528  16.555  14.188  0.0822 -0.4069 -0.1884
39028W        W82044  32.318   5.729  28.973 -0.2785 -0.0549 -0.1266
39029W        W82045  11.297   7.607   0.194 -0.0411  0.2022 -0.1616
39030W        W82046  26.479   7.198   7.590  0.0599 -0.1868  0.0322
39031W        W82047   7.554  31.320   0.089  0.5098  0.0817  0.2767
39032W        W82048  12.086   1.321  25.032 -0.1152  0.0474  0.0776
39033W        W82049  31.792   7.158   1.405  0.1687  0.2143 -0.0631
39034W        W82050  34.432   7.467   7.671  0.1879  0.0571  0.1418
39035W        W82051  14.755   2.015   8.939  0.1914 -0.1388  0.0132
39036W        W82052  10.430  15.629   9.532  0.2099  0.1395 -0.1892
39037W        W82053   2.782  26.894  16.265  0.2693  0.1338  0.0809
39038W        W82054  26.298  20.694  25.274 -0.1076 -0.1997 -0.1359
39039W        W82055  34.492   4.929   6.463 -0.2434  0.4095 -0.0194
39040W        W82056  16.744   6.885   3.925  0.0735  0.0511 -0.3024
39041W        W82057  26.894  30.539  10.483  0.1481  0.0788 -0.0114
39042W        W82058  34.224  18.274  27.165 -0.0277 -0.1722  0.1369
39043W        W82059  32.803  17.367   2.410  0.0471 -0.0434  0.0256
39044W        W82060  20.153  12.042  23.851  0.0021 -0.1472  0.2159
39045W        W82061  18.367  22.371   0.223 -0.3217 -0.1613  0.1440
39046W        W82062   6.271  20.458   4.771 -0.1994  0.1918  0.2322
39047W        W82063   5.070  29.046   6.472 -0.3547  0.1387  0.0978
39048W        W82064   9.445  16.415   6.091  0.0058  0.2329  0.2556
39049W        W82065  28.178  31.222   1.827 -0.0218  0.2342  0.2349
39050W        W82066   1.906  13.127  22.667  0.1449  0.0584 -0.1740
39051W        W82067  28.388  17.022   3.852 -0.3726  0.1756  0.0099
39052W        W82068  23.403   5.024   1.203 -0.1973  0.2016 -0.0619
39053W        W82069  19.067   5.345  26.390 -0.1293 -0.0213  0.1202
39054W        W82070  10.590   1.301   9.148  0.0044 -0.0322  0.0458
39055W        W82071  29.497  33.092   5.591 -0.1456 -0.3188  0.1410
39056W        W82072  13.677  10.924   7.869  0.2945  0.2839 -0.4056
39057W        W82073  12.703  22.049   4.311  0.1483 -0.1186 -0.1316
39058W        W82074  12.194   2.158   2.639 -0.0912 -0.1328  0.1968
39059W        W82075  16.929  12.618  22.232 -0.2996 -0.0119 -0.0435
39060W        W82076  13.942  17.719  27.031  0.0330 -0.2262  0.1218
39061W        W82077  13.314  21.424   6.966 -0.1511 -0.3339 -0.1591
39062W        W82078   3.364   6.381   2.681 -0.1626  0.2412 -0.0026
39063W        W82079   5.545  12.831  25.740  0.1025  0.2497  0.0058
39064W        W82080  11.097   8.927  18.504 -0.0410  0.1974  0.0304
39065W        W82081   0.182  10.320  19.465  0.1774  0.2128 -0.0978
39066W        W82082  13.014  29.566  24.781  0.0168 -0.2643  0.1698
39067W        W82083  32.952   5.495  15.355 -0.0916  0.0397 -0.1306
39068W        W82084  26.656   9.001  20.693 -0.1301 -0.0909 -0.7103
39069W        W82085   4.935   6.889  18.569 -0.1140  0.0754 -0.1729
39070W        W82086  14.850  13.778  12.229 -0.0694  0.2148  0.1273
39071W        W82087  15.547  11.499  22.969  0.1796  0.1182 -0.2066
39072W        W82088  28.000  26.071   3.368  0.3227 -0.2465 -0.0489
39073W        W82089  16.641   8.175  20.366  0.2079 -0.0091 -0.2270
39074W        W82090  10.858   0.483  18.547 -0.0016  0.0236  0.2554
39075W        W82091   0.022  12.640   4.334  0.3440 -0.1610  0.0454
39076W        W82092  14.913  23.761  16.535 -0.1631  0.2678 -0.2330
39077W        W82093  14.957  21.679  12.955  0.2388 -0.1990 -0.2783
39078W        W82094  33.212  12.565  23.126  0.1900 -0.0899 -0.2468
39079W        W82095  31.076   5.975  15.536 -0.4203  0.1371 -0.0704
39080W        W82096  33.196  23.845  19.368 -0.1963 -0.0442  0.2074
39081W        W82097   3.460  13.078  24.659 -0.1147 -0.0193  0.1421
39082W        W82098  23.598  15.234  25.416  0.2255  0.0494 -0.1355
39083W        W82099   8.169  10.717  18.151 -0.0616  0.1721 -0.0456
39084W        W82100   0.320   2.314  23.687  0.1438  0.3779 -0.0655
39085W        W82101  18.761  33.236  26.824 -0.0748  0.0360  0.2884
39086W        W82102  11.338   7.170  14.752 -0.0772 -0.1289  0.2434
39087W        W82103  13.274  10.657  19.163 -0.0464  0.3116  0.1332
39088W        W82104  14.808   7.463  18.955 -0.0002 -0.2184  0.0284
39089W        W82105   3.583  19.786  20.842  0.0203 -0.1256  0.1751
39090W        W82106  18.996  12.369   5.766  0.1829  0.0465  0.1415
39091W        W82107   5.650   0.119  17.719 -0.0916 -0.0445  0.1857
39092W        W82108  26.961   1.114   8.492 -0.0258  0.0533 -0.1835
39093W        W82109  30.552   9.894  26.187 -0.1849  0.0074 -0.1040
39094W        W82110   8.180   3.821  22.414 -0.1874  0.2450 -0.0218
39095W        W82111  12.952  16.819  14.208  0.0498 -0.0345  0.1954
39096W        W82112  10.205   7.236  16.331  0.2520 -0.1338  0.1337
39097W        W82113   2.210  16.544  16.246  0.1655 -0.0576 -0.1125
39098W        W82114   5.871  15.897  15.989 -0.1651  0.0334  0.2259
39099W        W82115   6.981  10.012  22.282 -0.1016 -0.2625  0.0473
39100W        W82116   0.986  13.010  15.430  0.2173 -0.2485 -0.0146
39101W        W82117  12.799  32.388  18.196 -0.0925 -0.0563 -0.0195
39102W        W82118  12.448   3.481  18.351 -0.1877  0.0111  0.3878
39103W        W82119  13.315  21.623  13.898  0.2342 -0.0267  0.0705
39104W        W82120  31.541   9.855  24.183 -0.1005  0.1946  0.0193
39105W        W82121   5.799   5.702  14.943  0.0031 -0.0311 -0.1686
39106W        W82122   9.033  15.138  16.660  0.0658 -0.1943 -0.1014
39107W        W82123  17.152  11.400   7.924 -0.3270 -0.1645  0.0879
39108W        W82124   3.286  17.524  15.621 -0.0408  0.1064  0.2117
39109W        W82125  18.073   8.094  22.417  0.1325  0.0810 -0.2639
39110W        W82126   4.781   6.474  23.986  0.0845  0.0073 -0.1318
39111W        W82127  17.843  10.336  16.655  0.0941  0.1502 -0.2737
39112W        W82128  32.642   3.647  21.407  0.1428  0.0427 -0.0965
39113W        W82129  22.360  12.144  17.863  0.0045  0.2049 -0.2529
39114W        W82130  18.626   4.958   5.198  0.0371 -0.1828 -0.1869
39115W        W82131   9.132  13.136  16.161 -0.3599 -0.2227  0.0799
39116W        W82132   3.636   4.389   0.920  0.1403 -0.1369 -0.0391
39117W        W82133  32.530  13.920   1.444  0.1541  0.2366  0.1049
39118W        W82134   8.164   7.053  18.879  0.2526  0.0265  0.1411
39119W        W82135   4.420  12.690   0.469  0.4201  0.1209 -0.2435
39120W        W82136  29.901  11.131  17.202  0.0535  0.2290 -0.2716
39121W        W82137   9.017  10.633  25.026  0.0804  0.1198 -0.0040
39122W        W82138  14.092  10.759  27.313  0.0700  0.0276  0.1659
39123W        W82139  13.776  14.418  12.836  0.4894  0.1477 -0.3245
39124W        W82140   7.713   6.214   0.794 -0.2660 -0.0763  0.1035
39125W        W82141   6.494  14.777  15.290 -0.0560 -0.1207  0.0827
39126W        W82142  25.672  18.814  22.522 -0.0411  0.3396  0.2520
39127W        W82143   2.163   1.051  22.020 -0.1656 -0.3335  0.3267
39128W        W82144   2.782  32.277  20.290 -0.1023 -0.1678 -0.1471
39129W        W82145  21.571  22.404  19.459  0.1378 -0.2740  0.0671
39130W        W82146  12.184  14.180  16.122  0.5384 -0.1207 -0.4310
39131W        W82147  13.970  20.606  14.202  0.0273  0.0038 -0.2215
39132W        W82148   4.828   6.424  13.468  0.3182 -0.0991  0.0884
39133W        W82149  14.177   4.280  18.258  0.1498 -0.4511 -0.1289
39134W        W82150   9.827   6.136  23.396 -0.0325  0.1345 -0.0749
39135W        W82151  13.948  21.362  13.515  0.3486  0.1083  0.1067
39136W        W82152  15.133   5.721  13.843 -0.2398 -0.1931  0.0797
39137W        W82153  13.778  23.806  25.276  0.1537 -0.2357 -0.1258
39138W        W82154  30.124  14.234  17.352 -0.0493  0.2771  0.0922
39139W        W82155   6.941  23.150  27.358  0.1470  0.1826 -0.3310
39140W        W82156   8.710  20.854  22.088  0.0409 -0.1060 -0.0437
39141W        W82157  19.154  14.188  15.679 -0.1183 -0.3191 -0.1992
39142W        W82158   4.623   3.626  15.236 -0.1915 -0.2120  0.0727
39143W        W82159   9.421   0.727  18.114  0.0192  0.0586 -0.3048
39144W        W82160   2.351   5.984  19.446 -0.1418  0.0538  0.0721
39145W        W82161   3.895   2.832  18.666  0.2192 -0.1614 -0.0356
39146W        W82162  14.394   9.083  21.933  0.0854  0.0931 -0.0938
39147W        W82163   4.037  23.217  25.071 -0.3483 -0.0507  0.5936
39148W        W82164   5.957   9.504  22.519  0.1619  0.2231 -0.0536
39149W        W82165   4.006   4.781  23.040  0.2007  0.2182  0.0745
39150W        W82166  15.565   7.686  17.945 -0.1563  0.0361 -0.0585
39151W        W82167  34.257  31.244   3.319 -0.0321  0.1449 -0.1131
39152W        W82168  11.986   2.829  18.206 -0.5180  0.1144  0.1195
39153W        W82169  15.154   1.929   0.846 -0.1615  0.1686  0.1141
39154W        W82170   9.042   3.576   3.587 -0.0281  0.1363  0.0741
39155W        W82171   4.150  10.398  19.303 -0.0806 -0.0864 -0.1365
39156W        W82172  24.834  33.418  28.761 -0.1131  0.0183 -0.0908
39157W        W82173   1.888  17.346  24.394 -0.0180  0.1909 -0.1535
39158W        W82174  29.494  33.455  25.716 -0.0129 -0.0283  0.2079
39159W        W82175  32.614   5.163  20.681  0.1465 -0.1381  0.4194
39160W        W82176  25.159  33.322   1.036 -0.4995  0.0331 -0.0119
39161W        W82177  22.299  18.099  13.092 -0.1839  0.0936 -0.2611
39162W        W82178  24.717  20.228  19.411  0.3286 -0.1754  0.0263
39163W        W82179  12.008   7.665  14.834  0.0135  0.3074 -0.0522
39164W        W82180  16.972  24.932  22.449 -0.3699 -0.3488  0.1405
39165W        W82181  14.060  17.531  21.274 -0.3171 -0.2738  0.0947
39166W        W82182   4.527   6.549  24.756  0.0977 -0.3176 -0.1240
39167W        W82183  10.329  10.553  17.079  0.2287  0.1623  0.2516
39168W        W82184   2.269  23.845  22.034  0.3835 -0.0457 -0.1022
39169W        W82185   9.979  19.771  18.220  0.1146  0.0032  0.0736
39170W        W82186  25.103   7.780  18.287 -0.2089 -0.2990 -0.2412
39171W        W82187  29.549  31.611  15.702 -0.0679 -0.0295 -0.0530
39172W        W82188  17.925  33.624  15.282 -0.1764 -0.1482  0.1129
39173W        W82189  10.813   4.650   0.377  0.3235  0.2097 -0.1598
39174W        W82190   4.176   2.512  27.366  0.1995 -0.1182  0.0414
39175W        W82191  15.464   3.993  14.144  0.2662 -0.1420  0.0418
39176W        W82192  13.111  32.694  23.521  0.1445  0.0097  0.1592
39177W        W82193  23.508  20.468  22.927  0.0829  0.1139  0.2190
39178W        W82194   8.365  27.624  15.863  0.0065 -0.1613 -0.0822
39179W        W82195  15.590   9.678  13.052  0.0580  0.1577  0.1127
39180W        W82196   5.738   5.672  17.655 -0.0613  0.1132  0.0274
39181W        W82197   0.510  18.486  20.764  0.3662  0.2786  0.0729
39182W        W82198  21.650   8.573  15.348 -0.0257  0.1285  0.1812
39183W        W82199  15.129   3.646  22.959 -0.0967 -0.3478 -0.0732
39184W        W82200  15.140   1.156  18.861 -0.1120 -0.2058 -0.0318
39185W        W82201  16.079   7.151  21.530 -0.1114 -0.0272 -0.0524
39186W        W82202   7.015   0.613  22.817  0.0743  0.0858  0.0934
39187W        W82203  32.805   0.122  20.198  0.0049  0.0413 -0.2225
39188W        W82204   2.082   2.852  22.063  0.1670 -0.0712 -0.0860
39189W        W82205  18.261   7.314  20.126  0.0251 -0.1920  0.0523
39190W        W82206   4.378  26.737  15.039 -0.3569  0.4091 -0.0939
39191W        W82207   8.881  21.466  17.886 -0.5436  0.4048  0.3267
39192W        W82208  10.149   4.740  16.600 -0.0638 -0.2047 -0.1009
39193W        W82209   8.365  28.273   1.782  0.0019 -0.1600  0.2300
39194W        W82210  15.527   3.351  24.901  0.1077 -0.1539  0.1639
39195W        W82211  11.247  10.234  13.781  0.0837 -0.1882  0.0415
39196W        W82212   5.718  18.721  25.859 -0.0022  0.0430 -0.0179
39197W        W82213  34.758   3.185  23.240  0.0219  0.0593 -0.3547
39198W        W82214  13.354   4.541  17.397  0.2209  0.1803  0.3955
39199W        W82215   0.565  26.090  17.283  0.2034 -0.0492  0.0081
39200W        W82216  19.262  14.421  20.607  0.0284 -0.2553 -0.1507
39201W        W82217   0.832  10.227  24.269  0.0586  0.0325  0.1168
39202W        W82218   4.587   6.064  23.218  0.0119  0.0307 -0.2962
39203W        W82219   4.625   7.939  15.955 -0.2205 -0.0985  0.4130
39204W        W82220   9.732  14.757  26.555  0.1577 -0.3006  0.4848
39205W        W82221   5.862  10.394  18.507 -0.0311 -0.3551  0.0441
39206W        W82222  15.304  34.742  22.275  0.1053  0.2105 -0.0574
39207W        W82223   8.066  23.031   1.736  0.1675  0.1065  0.1231
39208W        W82224   7.246  10.918  19.476  0.1776 -0.2305  0.1187
39209W        W82225   4.166  10.319  20.557 -0.0752  0.3671 -0.0680
39210W        W82226   4.876   7.343   1.672 -0.3111 -0.1055  0.2071
39211W        W82227  14.391  34.099  16.461 -0.0673 -0.1199  0.1054
39212W        W82228  29.607  19.222  18.161 -0.1681 -0.4764  0.1419
39213W        W82229   9.097   6.480  22.470 -0.1742  0.3151  0.2638
39214W        W82230   5.291  34.035  27.728  0.0151 -0.0511 -0.0143
39215W        W82231   7.066  31.726   1.944  0.0271 -0.1291 -0.1842
39216W        W82232  26.702  19.751  20.645 -0.1023 -0.0177  0.1264
39217W        W82233  10.439   3.039  14.998  0.2257 -0.1011  0.0296
39218W        W82234   2.581   6.393  13.821 -0.0068 -0.1811 -0.1906
39219W        W82235  31.306   8.667  27.707  0.1217 -0.1238  0.1740
39220W        W82236  12.930  18.305  13.118  0.0366  0.0392 -0.0310
39221W        W82237  32.643   0.794   5.871 -0.4607 -0.0947 -0.0165
39222W        W82238   0.373  30.540  21.558 -0.1227 -0.3098  0.1552
39223W        W82239  33.288   8.166  20.690 -0.2276 -0.0532 -0.0319
39224W        W82240   5.556  12.668  15.248 -0.2434  0.3239  0.0684
39225W        W82241   9.949  21.953  13.603 -0.0189  0.0110 -0.1859
39226W        W82242  34.449  26.794  22.291 -0.3148 -0.0393 -0.0989
39227W        W82243  11.021   1.417  25.960  0.3270  0.0481 -0.2435
39228W        W82244   1.395  15.890  24.481  0.0469 -0.2435  0.0428
39229W        W82245   8.610   7.872  25.889  0.1124 -0.1152  0.2346
39230W        W82246  21.403  11.278  17.411  0.1897 -0.1364  0.2164
39231W        W82247   9.293  25.668  22.705  0.0727 -0.0707  0.3419
39232W        W82248   0.932  16.137   1.698  0.1838 -0.2365 -0.4499
39233W        W82249   9.760   4.948  16.929  0.5079  0.0169  0.1212
39234W        W82250  34.695  29.372  25.330  0.0163 -0.0651  0.0329
39235W        W82251   5.365  16.737  24.297 -0.0055  0.1763 -0.3642
39236W        W82252  23.723  31.327  20.693  0.1839  0.3026 -0.0951
39237W        W82253  34.155   0.095  15.268 -0.3117 -0.2189 -0.1789
39238W        W82254  32.068  17.359  27.203 -0.0825 -0.0072 -0.0582
39239W        W82255  11.999  17.131   0.634 -0.0874 -0.4981 -0.2767
39240W        W82256  14.379  15.848   2.592 -0.1809 -0.2827 -0.0647
39241W        W82257   8.481  19.242   4.648 -0.2572  0.0944  0.0877
39242W        W82258   7.042   8.231  15.112  0.0783 -0.3164  0.1585
39243W        W82259  14.677  23.580  25.629 -0.1133 -0.0186 -0.0400
39244W        W82260   3.095  15.771  13.539  0.0176 -0.1133 -0.1343
39245W        W82261   4.020   2.539  15.151  0.1365  0.2214  0.1957
39246W        W82262  17.077  10.293  21.706  0.1140 -0.2157  0.2824
39247W        W82263  20.642   3.906  20.009 -0.0538 -0.3140 -0.0330
39248W        W82264  31.368  34.491  26.109  0.0091 -0.3396  0.1133
39249W        W82265   9.751  16.988  12.356 -0.2490 -0.1638 -0.1602
39250W        W82266  20.561   7.297  24.970 -0.1933 -0.3550  0.2584
39251W        W82267  18.037   1.764  25.209  0.1114 -0.5871 -0.4031
39252W        W82268   4.563   9.861  19.429  0.1795 -0.3061  0.0854
39253W        W82269   4.972  27.207  15.810 -0.2504 -0.3547  0.0747
39254W        W82270  21.827  10.752  20.330  0.2365 -0.1540 -0.3319
39255W        W82271  21.153  22.609  14.413 -0.0678  0.1775  0.1237
39256W        W82272  17.755  10.531  22.794  0.2414  0.3280 -0.2583
39257W        W82273   8.753   5.196  20.678 -0.1735  0.0743  0.1516
39258W        W82274   7.963   0.553   7.888  0.1171 -0.1922 -0.1172
39259W        W82275  11.863   6.720  21.346 -0.3359 -0.0081  0.0378
39260W        W82276  13.028  33.674  18.272 -0.2716 -0.1390 -0.0142
39261W        W82277  17.921  19.480  12.956 -0.0862  0.0732  0.0078
39262W        W82278  28.976   8.698  21.942 -0.1382  0.1484  0.0633
39263W        W82279   6.958   9.472  22.161 -0.0204 -0.2178  0.0379
39264W        W82280   9.674  18.165  14.963 -0.3365 -0.2835 -0.7993
39265W        W82281  14.741  14.354  11.577  0.1701  0.0295  0.0592
39266W        W82282  30.064  16.144   3.879 -0.1356  0.1241  0.0410
39267W        W82283   4.492  10.660  19.719  0.2817  0.1266  0.3010
39268W        W82284  19.659  28.327  16.347 -0.2315 -0.0284 -0.1140
39269W        W82285  10.589   2.295  21.446 -0.4693 -0.0517  0.4830
39270W        W82286  12.185  19.852  20.188  0.1840  0.2520 -0.1146
39271W        W82287   5.065  13.220  14.519  0.0821 -0.0218  0.1947
39272W        W82288  11.350  19.738  17.365 -0.0476 -0.2756 -0.0957
39273W        W82289  22.426  24.277  15.510  0.0659 -0.3339 -0.1290
39274W        W82290  30.859  12.371  25.407  0.2671 -0.1708 -0.1769
39275W        W82291  18.478   5.318  15.686 -0.3553 -0.0907  0.1277
39276W        W82292  30.129   5.372  22.371  0.4155  0.2023 -0.1736
39277W        W82293   3.829  18.740  21.352  0.2043  0.2385  0.1126
39278W        W82294   8.364   6.052  16.877 -0.0968  0.1635  0.0863
39279W        W82295  18.232  16.055  22.215  0.0426 -0.0820  0.3807
39280W        W82296   8.673   2.793   2.602  0.0287 -0.0898 -0.0793
39281W        W82297   3.056   3.185  19.226  0.2860 -0.1912  0.2280
39282W        W82298  27.158  15.360  15.235  0.0933  0.0377 -0.0675
39283W        W82299   9.690  18.266  20.548 -0.2434  0.1392 -0.2351
39284W        W82300   6.605   6.020  23.544  0.0062  0.1809 -0.0621
39285W        W82301   5.767  11.191  19.774  0.3194 -0.1347 -0.1908
39286W        W82302   7.863   1.818  23.627  0.0757  0.1406 -0.1995
39287W        W82303   7.400  34.733  14.481  0.1131  0.4291  0.1617
39288W        W82304   4.786  17.840  24.674 -0.4017  0.0146 -0.4483
39289W        W82305  17.197  32.828  26.217 -0.0806  0.3865 -0.1892
39290W        W82306  13.529   9.606  25.647  0.0773 -0.2320  0.1048
39291W        W82307  32.454  33.585   3.838  0.2744  0.1919 -0.0119
39292W        W82308   6.910   2.389  20.077 -0.1487  0.2536 -0.0819
39293W        W82309  13.770   9.744  15.755  0.1800  0.1389  0.1723
39294W        W82310  11.287  29.510  25.282  0.1603  0.2161  0.3223
39295W        W82311   7.943  31.468   0.503 -0.2392 -0.3450  0.0413
39296W        W82312   1.915  10.333  15.314 -0.1382  0.0336  0.2565
39297W        W82313  21.357   6.930  17.413 -0.1257  0.1864  0.2107
39298W        W82314  14.595   4.116  20.642  0.1680  0.1456 -0.0179
39299W        W82315  11.538  28.584  22.721 -0.1815  0.1391  0.0562
39300W        W82316  33.854   9.334  28.818 -0.2128  0.2753 -0.1472
39301W        W82317  21.535   6.420  27.751 -0.0635 -0.1068 -0.0537
39302W        W82318   0.663  12.781  20.868  0.0062  0.0013 -0.1256
39303W        W82319  20.694  12.586  22.249  0.0768 -0.0987 -0.1547
39304W        W82320   8.291   5.559  21.169 -0.2305  0.1278 -0.0434
39305W        W82321   0.425  19.927  17.840  0.0886  0.0374  0.1122
39306W        W82322   8.497  13.442  14.899  0.0096 -0.4386  0.1759
39307W        W82323  22.883   0.359  19.767  0.3864  0.0593  0.3027
39308W        W82324   7.769   3.757  23.623 -0.2849  0.1382 -0.0122
39309W        W82325  12.234  13.717  25.214  0.1354  0.1109 -0.5308
39310W        W82326  12.653   6.785  15.624  0.2798 -0.1435 -0.3667
39311W        W82327   5.349  30.140  15.380 -0.2686  0.0591 -0.1800
39312W        W82328  25.473  13.035  14.064  0.0204  0.0580  0.0487
39313W        W82329  13.996  28.463  22.670  0.2107 -0.0821  0.2445
39314W        W82330   9.648  21.267  22.151 -0.0332  0.2660  0.0262
39315W        W82331  17.954  11.661  16.487 -0.2504  0.3059  0.4246
39316W        W82332   5.783   8.847  14.842  0.1238 -0.3841  0.0338
39317W        W82333  18.743  27.788  25.156 -0.2376 -0.2062 -0.0544
39318W        W82334  17.033  17.144  14.216  0.3677  0.1081  0.0171
39319W        W82335  13.193  18.238  25.293  0.1063  0.0984 -0.1331
39320W        W82336  32.874  11.010  20.183 -0.3050 -0.1754  0.1461
39321W        W82337   5.783   4.919  23.685 -0.1822 -0.1064 -0.5163
39322W        W82338   3.528   8.994  16.063  0.0426 -0.2589  0.0803
39323W        W82339  19.960   3.378  15.592  0.0364 -0.1225  0.2724
39324W        W82340  26.714  12.985  24.584 -0.0795  0.0826  0.1663
39325W        W82341   8.404  18.606  19.530 -0.1857  0.1041 -0.1550
39326W        W82342  31.469   8.662   4.813 -0.0680  0.0703 -0.0485
39327W        W82343   3.672   2.629  16.887 -0.0349 -0.0473 -0.0972
39328W        W82344   4.559  21.882  13.764  0.2518  0.2392 -0.3065
39329W        W82345   5.679   4.467  18.651  0.0112 -0.1787 -0.2150
39330W        W82346  17.173   0.941  28.372  0.3641  0.0045 -0.1915
39331W        W82347  29.653   0.583  24.084  0.0112  0.2754 -0.0977
39332W        W82348  17.335  26.964  20.023 -0.0152 -0.0860  0.0746
39333W        W82349   4.895   6.361  14.840 -0.0968 -0.0586  0.1959
39334W        W82350  10.176  11.151  14.162  0.0039 -0.1071  0.0443
39335W        W82351  26.296  14.569  16.851 -0.0703 -0.0411  0.1611
39336W        W82352  19.792  27.224  21.291  0.1233  0.1398 -0.1976
39337W        W82353  13.950  10.616  22.750 -0.0184  0.0841  0.0417
39338W        W82354  14.609  30.955  23.785  0.2712  0.2218  0.1471
39339W        W82355  27.346  26.203   2.532 -0.1569  0.0668  0.1523
39340W        W82356  31.067  33.658  20.419 -0.2169  0.3305  0.1308
39341W        W82357   1.233  21.636  20.347  0.3405 -0.1265 -0.2101
39342W        W82358   7.764   8.837  27.755  0.0451 -0.0358  0.1803
39343W        W82359  16.582  17.631  11.585  0.3086 -0.0008 -0.0836
39344W        W82360  26.110   1.400   3.344  0.1109 -0.0449  0.2572
39345W        W82361   1.397  21.275  24.522 -0.0138 -0.1980 -0.2353
39346W        W82362  34.566   3.596  14.121  0.0230 -0.0880  0.1572
39347W        W82363   7.258  14.064  14.318 -0.1058 -0.0849  0.1907
39348W        W82364  12.966   2.739  22.498 -0.1067  0.1161 -0.0858
39349W        W82365   6.531   7.604  27.224 -0.2083  0.2097  0.1846
39350W        W82366   1.959   4.774  16.779 -0.1207 -0.1962 -0.2538
39351W        W82367  32.772   4.650  26.611  0.3668 -0.2204 -0.1517
39352W        W82368  34.637  33.646  23.751 -0.1447 -0.3178 -0.0271
39353W        W82369   1.357  15.915  15.014 -0.0277 -0.2650 -0.1356
39354W        W82370  25.450   0.020  24.539  0.4727  0.1014 -0.0950
39355W        W82371  21.891   4.022  17.120  0.2414 -0.0350  0.0251
39356W        W82372   9.366   3.952  20.573 -0.1558 -0.0208 -0.0833
39357W        W82373  23.765   6.544  21.622  0.2539 -0.1860  0.2401
39358W        W82374   8.302   7.899  16.922 -0.0582 -0.1810 -0.2306
39359W        W82375   9.378   0.918  24.546  0.2321 -0.0629 -0.1673
39360W        W82376   6.977  15.853  15.870 -0.1354 -0.3457 -0.0767
39361W        W82377  15.732   5.678  16.114  0.0918  0.1803  0.1818
39362W        W82378  30.407  30.429  26.432 -0.0255  0.0664 -0.3539
39363W        W82379  15.444   4.076  22.134  0.3716 -0.0609 -0.1994
39364W        W82380   2.416  33.047  28.625 -0.2798  0.1456 -0.0295
39365W        W82381  11.985  25.011  19.586  0.0435  0.0224 -0.0363
39366W        W82382   8.568  13.603  13.212  0.0551 -0.0194  0.0667
39367W        W82383   9.454  28.262   1.095 -0.1045  0.1639  0.3491
39368W        W82384  23.866  32.461  24.044 -0.0538  0.0732 -0.0215
39369W        W82385   5.235  23.492  19.009  0.1038 -0.0910  0.3638
39370W        W82386   7.514  14.477  24.293 -0.0007 -0.0592  0.2753
39371W        W82387   8.084  20.540  19.145  0.0355 -0.2408 -0.1757
39372W        W82388   9.430   1.547  20.277 -0.0079  0.2107 -0.2191
39373W        W82389   3.198  14.043  16.643 -0.0388  0.0946 -0.2102
39374W        W82390  34.157   5.110  18.228 -0.4088 -0.0960  0.2613
39375W        W82391  12.163  31.510  20.992  0.2094  0.0435 -0.1222
39376W        W82392   3.597  24.163  16.006  0.1199 -0.3216 -0.0655
39377W        W82393  20.019   6.332  16.370  0.1004 -0.3175 -0.0392
39378W        W82394   7.742   3.850  15.880  0.0682 -0.0813  0.0859
39379W        W82395  11.181  30.857  16.591  0.3555 -0.1577  0.0357
39380W        W82396  21.490  15.456  14.497  0.4580 -0.0561  0.1865
39381W        W82397  26.253   1.428  20.866  0.1621 -0.2234 -0.4118
39382W        W82398   6.190  14.539  19.135  0.1815  0.0075 -0.2009
39383W        W82399   3.373  28.075  18.596 -0.2302 -0.2814 -0.1458
39384W        W82400   1.358  26.593   1.930 -0.0362 -0.0672  0.0721
39385W        W82401   7.793   0.334  15.843 -0.0230  0.0662 -0.1027
39386W        W82402   2.264  10.757  19.787  0.2629 -0.1581  0.1891
39387W        W82403   7.179   6.892   2.762 -0.1192 -0.0429  0.3303
39388W        W82404  10.519   9.831  21.423  0.1985 -0.0613 -0.1729
39389W        W82405  11.683   4.812  19.361 -0.0050  0.5937 -0.0993
39390W        W82406   3.238  19.122   6.948 -0.3011  0.0179 -0.3045
39391W        W82407  29.627  23.802  22.845  0.2396  0.1706 -0.1851
39392W        W82408  31.401  10.769  23.865 -0.1436 -0.0722 -0.3109
39393W        W82409  31.562  32.193  18.656  0.1743  0.0823 -0.3229
39394W        W82410  31.221  20.582  20.315  0.2331  0.1764  0.0571
39395W        W82411   2.028  33.534  21.395  0.0396 -0.2480  0.0767
39396W        W82412  13.732  23.958  20.088  0.1223 -0.0322  0.1732
39397W        W82413  13.231   8.992  20.746 -0.2112  0.3589  0.0084
39398W        W82414   2.484  27.336  16.492 -0.3424  0.0745  0.1412
39399W        W82415  21.375   9.065  15.940  0.0214  0.1002  0.1726
39400W        W82416  29.632   5.804  28.217  0.2959  0.1150  0.0691
39401W        W82417  14.774  27.446  19.747 -0.0786 -0.0322  0.0025
39402W        W82418  33.127   4.651  25.116  0.4361  0.2318  0.4195
39403W        W82419   8.745   0.761  23.853 -0.2048 -0.1802  0.1461
39404W        W82420  10.322  20.418  14.838 -0.2260 -0.3717  0.1735
39405W        W82421  23.029  11.565  17.245  0.1000 -0.2641  0.0107
39406W        W82422  20.504  26.879  18.848 -0.0992 -0.0249  0.1239
39407W        W82423  13.323   0.920  23.020 -0.1739  0.0022  0.0150
39408W        W82424  23.818   8.840  25.718 -0.0160  0.2567  0.3641
39409W        W82425   9.788   2.823  18.698  0.0231  0.1796 -0.0644
39410W        W82426  29.328  12.467  21.441 -0.1575 -0.0204 -0.2522
39411W        W82427   7.601  28.918  27.502  0.2098  0.0956 -0.1583
39412W        W82428  25.918  22.250  16.270  0.0835  0.0394  0.0340
39413W        W82429   0.400  12.290  17.403  0.2303  0.3761  0.2210
39414W        W82430  28.873  20.082  24.506 -0.0018 -0.4406  0.2181
39415W        W82431   0.284  12.108  16.302 -0.2116 -0.1351 -0.3118
39416W        W82432  32.124  14.379  20.012 -0.1306 -0.0827  0.1652
39417W        W82433   9.469  32.827  19.294  0.1409 -0.0381 -0.0882
39418W        W82434  14.964  12.931  24.554  0.0240  0.4337 -0.0320
39419W        W82435  18.837  13.638   7.378 -0.0786 -0.0084  0.0537
39420W        W82436   9.350  24.507  23.232  0.2824  0.2079 -0.2987
39421W        W82437   7.270  11.757  21.336  0.3012 -0.1347  0.0598
39422W        W82438   4.327  12.528  14.700  0.1035 -0.1094 -0.0975
39423W        W82439  33.599   8.103   0.970 -0.3470 -0.4428 -0.1930
39424W        W82440   9.758  11.817  18.208 -0.0195 -0.0274  0.0812
39425W        W82441  19.741  13.935  24.237  0.1091  0.4713 -0.0918
39426W        W82442   6.384  12.783  18.922  0.0548  0.2377 -0.1875
39427W        W82443   4.754  11.893  17.192 -0.2343  0.1888 -0.4146
39428W        W82444   2.101   8.539  19.278  0.0247  0.2069 -0.1925
39429W        W82445  20.195  12.369  20.940 -0.2067  0.0672 -0.2374
39430W        W82446  24.632  21.283  18.166  0.2077  0.4693  0.1527
39431W        W82447   8.585   8.682  15.153  0.5711  0.5271 -0.0846
39432W        W82448   2.329  28.553  21.606 -0.0840  0.1635 -0.3929
39433W        W82449   6.695   9.879  20.287  0.0979  0.4200  0.2488
39434W        W82450  31.732   8.944  21.210  0.2653  0.2260 -0.0826
39435W        W82451   9.135  12.069  20.159  0.0911 -0.1589 -0.2354
39436W        W82452  19.878   2.052  15.593  0.1640 -0.1897  0.0914
39437W        W82453  19.079   5.028  14.052 -0.0439  0.1794  0.0182
39438W        W82454   5.940   2.316  23.852 -0.0858  0.1732 -0.2412
39439W        W82455   5.375  25.225  20.348 -0.1792  0.0498 -0.1065
39440W        W82456  18.433   2.011  22.277 -0.1379  0.2158 -0.0407
39441W        W82457   8.153  33.626  16.893 -0.2259 -0.2115 -0.1437
39442W        W82458  33.736  29.848  16.572 -0.3148 -0.0212  0.0875
39443W        W82459   3.487  18.360  20.337 -0.0513  0.1110  0.1873
39444W        W82460  31.046  23.892  22.357 -0.1083 -0.3425 -0.0601
39445W        W82461   4.232  30.433   0.587 -0.0052 -0.0275 -0.2626
39446W        W82462  33.991   7.041  28.761 -0.1827  0.1410 -0.0082
39447W        W82463   5.240  23.495  23.396 -0.3981  0.0020 -0.0910
39448W        W82464   6.542  28.523  27.551  0.0893 -0.2037 -0.1230
39449W        W82465  10.476  12.648  25.573  0.0574 -0.1134 -0.2720
39450W        W82466  23.523   8.677  21.515  0.0411  0.1467  0.1001
39451W        W82467  19.802  15.933  12.540  0.1712  0.4029 -0.2884
39452W        W82468  34.466  18.174  20.571  0.2789 -0.4372 -0.3060
39453W        W82469   8.095  12.672  14.174 -0.0798  0.0191 -0.1796
39454W        W82470   1.818   0.087  16.987 -0.0436 -0.1345 -0.1117
39455W        W82471   7.465   6.376  25.582 -0.3036  0.5370  0.0362
39456W        W82472  33.901   2.922  20.605 -0.0588 -0.2296  0.0189
39457W        W82473  30.990   6.076  18.693 -0.2080 -0.2249  0.2464
39458W        W82474  15.042   9.870  28.951 -0.2331 -0.0110  0.1229
39459W        W82475  26.988   0.425  23.553  0.1365  0.1027 -0.1429
39460W        W82476   4.455  32.960   5.073  0.1464  0.1477  0.2114
39461W        W82477  14.741   0.943  20.472  0.2909 -0.1217  0.0834
39462W        W82478   1.435   9.568  20.579  0.0998  0.0832  0.0974
39463W        W82479  32.969   5.351  18.527  0.1730 -0.1552  0.2072
39464W        W82480   7.232  10.129  16.040  0.0702  0.2346 -0.1323
39465W        W82481  25.150  30.303  11.545 -0.1166  0.0824  0.3614
39466W        W82482  22.430  18.911   0.624  0.1154  0.1248  0.1598
39467W        W82483   6.071  28.433  26.296 -0.0147  0.0449  0.0017
39468W        W82484   6.688  32.268  23.717 -0.1223 -0.3835  0.1913
39469W        W82485  10.738   9.902  24.254 -0.0473  0.0660  0.1961
39470W        W82486  33.548  11.499  20.534 -0.2465  0.1628  0.3028
39471W        W82487  12.585   5.130  17.532  0.0222  0.0763 -0.3463
39472W        W82488   8.396  18.272  17.157  0.1827 -0.2813  0.1902
39473W        W82489  15.113  28.807  25.839  0.0025  0.0031 -0.1317
39474W        W82490   7.719  17.447  12.340  0.0211  0.2905 -0.0008
39475W        W82491  27.966  26.343   0.032 -0.0450 -0.0137  0.2574
39476W        W82492   6.936   4.351  15.828 -0.1122 -0.0461 -0.0891
39477W        W82493  11.240  15.875  16.010  0.0067 -0.0374 -0.1558
39478W        W82494  21.400  24.376  15.277 -0.0852 -0.0330  0.5825
39479W        W82495  17.548   3.366  25.156 -0.2756 -0.1447 -0.0282
39480W        W82496   0.769   4.129  26.622 -0.2352 -0.0265  0.1791
39481W        W82497  29.514   7.095  16.602 -0.1478  0.0416 -0.1202
39482W        W82498   1.124  13.517  15.273  0.0714 -0.0025  0.1317
39483W        W82499   4.067   3.637   2.546  0.3163 -0.0262 -0.2046
39484W        W82500  15.726   3.963  16.016 -0.1825  0.1614 -0.2477
39485W        W82501  12.355  30.093  26.789 -0.0546 -0.0963 -0.2154
39486W        W82502  16.088   1.577  15.438 -0.1102  0.2104 -0.0661
39487W        W82503  21.434  10.997  17.864  0.0290  0.1420  0.2736
39488W        W82504   9.886  34.581   1.037  0.0355 -0.3353 -0.0652
39489W        W82505  21.876   4.649  19.156  0.0727  0.0034 -0.0664
39490W        W82506   8.649  15.429  19.660  0.0882  0.0916 -0.2878
39491W        W82507  25.083  17.013  13.458  0.1695  0.2450 -0.0763
39492W        W82508  11.791   7.852  23.550  0.3333 -0.1562 -0.0846
39493W        W82509  26.423   3.897  22.742 -0.0489 -0.1464 -0.5898
39494W        W82510   8.339  12.327  19.090  0.0046  0.0773  0.0339
39495W        W82511  22.022  33.840  21.335  0.1641  0.0343  0.1751
39496W        W82512   1.926  16.429  26.788  0.2033  0.1914 -0.0144
39497W        W82513  29.297   5.447  28.345 -0.1038 -0.0806 -0.0038
39498W        W82514  17.803  10.385  20.944  0.0852 -0.0867 -0.0069
39499W        W82515  34.153  15.124  17.178  0.0552 -0.1244 -0.0834
39500W        W82516  25.672  28.472  19.541  0.3198 -0.1490 -0.4175
39501W        W82517  12.160  24.365  14.029 -0.0899  0.1537 -0.0228
39502W        W82518   3.593   9.394  16.444 -0.3711 -0.0568 -0.3016
39503W        W82519  30.875   8.388  18.968  0.2895 -0.3969  0.1883
39504W        W82520  10.872  15.311  14.110 -0.2619  0.1021  0.1671
39505W        W82521   8.084  15.942   1.770  0.4121  0.2492 -0.1678
39506W        W82522  26.290  33.939  17.207 -0.2947  0.0744  0.0437
39507W        W82523   2.484   2.069  27.431 -0.0687  0.1122  0.2391
39508W        W82524  12.817  10.692  15.109 -0.2415 -0.0295  0.0952
39509W        W82525  10.409   6.690  14.548 -0.2535  0.0746  0.3271
39510W        W82526  15.221  29.096  14.660  0.1366 -0.2578  0.0553
39511W        W82527   7.892  12.121  15.317 -0.0508  0.2086 -0.0675
39512W        W82528  32.496  32.640   6.323 -0.2330  0.0381  0.2224
39513W        W82529   3.567  28.659  27.686  0.2256  0.0358 -0.3265
39514W        W82530  10.658  16.074  19.331  0.1927 -0.0542  0.2531
39515W        W82531   2.519  25.641  17.896 -0.2457  0.5060 -0.1376
39516W        W82532  19.022  26.730  17.815 -0.1892 -0.3209 -0.2443
39517W        W82533  10.563  21.244  23.401 -0.0218  0.0458 -0.1613
39518W        W82534  27.853  26.795   0.738  0.1982  0.0028  0.1330
39519W        W82535   3.691  34.126   4.602  0.0125 -0.3399  0.2253
39520W        W82536   5.695   3.944   8.116 -0.1131  0.1317  0.0454
39521W        W82537   6.692   0.287  27.451 -0.0705  0.1059 -0.2422
39522W        W82538  15.907   6.054  18.229  0.1934  0.3634  0.2479
39523W        W82539   3.581  11.878   6.654 -0.0745 -0.0732 -0.0228
39524W        W82540  32.266  17.239  18.546 -0.0438  0.0551 -0.2017
39525W        W82541   9.819   4.502  23.055  0.1721  0.0726  0.1583
39526W        W82542  12.243  31.715  14.212  0.0350  0.0934 -0.3363
39527W        W82543  16.206  28.748  17.229 -0.0505  0.2471 -0.0710
39528W        W82544  25.870  13.556   2.047  0.1698 -0.1109 -0.2317
39529W        W82545  16.498   9.081   6.116 -0.0731  0.0388  0.0368
39530W        W82546   7.963   8.902  21.170  0.2434 -0.0026  0.1657
39531W        W82547  33.037  20.131  23.594 -0.2085 -0.0753 -0.0031
39532W        W82548   2.152  29.466  17.723 -0.1053  0.0531  0.0093
39533W        W82549  24.892  32.199  19.733  0.1878  0.2063  0.1653
39534W        W82550  12.739   2.488  15.961 -0.0360  0.0229  0.1088
39535W        W82551   6.478   7.976   9.710  0.2166  0.2278 -0.0172
39536W        W82552   7.390  25.472  21.715 -0.3843 -0.1073 -0.1094
39537W        W82553  24.433  14.097   4.944  0.2995 -0.3236  0.3035
39538W        W82554  13.638  10.069  19.363  0.0817  0.0713  0.2841
39539W        W82555  11.339   7.979  20.711 -0.6209  0.2881 -0.0212
39540W        W82556   3.794   3.206  23.749 -0.3497  0.1012  0.3872
39541W        W82557  22.078  13.037  17.664 -0.0468  0.0217  0.0617
39542W        W82558  10.595   1.551   3.387 -0.0374 -0.0328 -0.1360
39543W        W82559   1.881   5.672  19.611 -0.0240  0.1370  0.2615
39544W        W82560  16.223   0.444   1.300  0.1450 -0.1593 -0.1308
39545W        W82561   8.100  22.584  13.187 -0.2370  0.3099  0.1283
39546W        W82562  30.005  17.997  25.900  0.0493  0.0279 -0.1239
39547W        W82563  10.149   8.145  17.886  0.1248 -0.0979  0.1695
39548W        W82564   5.417   8.621  15.148  0.4120 -0.0577 -0.3216
39549W        W82565  17.546   9.951  12.936  0.4190  0.2626  0.1632
39550W        W82566   4.069  16.575  17.528  0.2664  0.4058 -0.1108
39551W        W82567  30.423  12.133  19.116 -0.3197 -0.1597  0.1184
39552W        W82568   4.374   7.082  24.641  0.0314  0.1752 -0.0859
39553W        W82569  11.340  10.330  23.556  0.1818 -0.0312  0.1821
39554W        W82570  15.766  17.965   5.645  0.2983 -0.2515  0.0367
39555W        W82571  20.204  31.254  21.549  0.0911 -0.1519 -0.1553
39556W        W82572  28.861   4.880  18.634 -0.0177 -0.3710 -0.0528
39557W        W82573   7.633  10.160  19.974  0.0790 -0.1319 -0.0857
39558W        W82574  14.222  25.971  27.603 -0.1044 -0.1609  0.0985
39559W        W82575  32.245  28.997   0.144 -0.3142 -0.0803  0.1044
39560W        W82576   4.630   1.882  25.209 -0.1062  0.2196  0.0234
39561W        W82577  12.046   3.189  17.407 -0.1880  0.4727  0.4313
39562W        W82578  15.938  32.592   4.091 -0.2750  0.2200 -0.0099
39563W        W82579   7.833  29.243   4.843  0.1253 -0.0277  0.1508
39564W        W82580   3.691  27.063  25.275 -0.0963 -0.1900  0.1309
39565W        W82581  31.378   3.826  19.866 -0.3312 -0.0342 -0.0478
39566W        W82582  19.457   3.059  19.627 -0.0488 -0.1768  0.1557
39567W        W82583   9.480   9.637   5.018  0.0206  0.2172  0.2019
39568W        W82584  33.910  32.104   9.191 -0.1544 -0.3102 -0.3299
39569W        W82585  30.548  32.508  18.209  0.1124 -0.0456 -0.2597
39570W        W82586  32.090  13.475  24.757  0.3524 -0.2585  0.1319
39571W        W82587  17.757  19.214  24.702  0.3234 -0.0465  0.1849
39572W        W82588   9.933   2.361  22.037  0.0188  0.5937  0.1652
39573W        W82589  28.055  17.360  18.221 -0.0327  0.1234  0.0717
39574W        W82590   0.423  11.851  20.686  0.1861  0.2461  0.0514
39575W        W82591  11.499  16.845  20.665 -0.3945 -0.0036  0.1207
39576W        W82592   8.177  14.534  18.010  0.0998 -0.0688 -0.0746
39577W        W82593  32.938  13.364  18.251 -0.1509  0.2286  0.0531
39578W        W82594  13.886  11.573  21.432 -0.2180 -0.0219  0.3176
39579W        W82595   0.952  28.008  27.634 -0.2154  0.2576 -0.1879
39580W        W82596   4.797  15.327   0.276  0.2516  0.2479  0.2423
39581W        W82597  28.716  14.622  25.186  0.1823  0.1251  0.0813
39582W        W82598  21.196   4.294   9.595 -0.0367  0.2028  0.2245
39583W        W82599   3.168  24.605  14.126 -0.0776 -0.2618  0.0979
39584W        W82600   0.401  11.652  21.131 -0.1849 -0.2508 -0.3590
39585W        W82601  11.471   0.181  16.499  0.1982 -0.1068  0.0234
39586W        W82602   9.241  25.727  26.166 -0.0895  0.0731  0.3131
39587W        W82603   9.956   7.562  18.686  0.2143 -0.0625 -0.0446
39588W        W82604  16.032  27.442  17.220 -0.1643 -0.2758 -0.0880
39589W        W82605  12.555   8.334  15.124  0.1817 -0.1822 -0.1624
39590W        W82606   3.395  10.872   5.297 -0.0427  0.3244 -0.1992
39591W        W82607  29.717  19.310  19.369 -0.1825 -0.2215 -0.3245
39592W        W82608   5.343   4.134  22.648  0.1080 -0.2368 -0.1935
39593W        W82609   2.162   1.117  25.210 -0.1856 -0.0651 -0.2697
39594W        W82610  27.956   2.965  24.192 -0.2449 -0.1929 -0.2345
39595W        W82611   3.851   0.865  26.882 -0.1550 -0.1349  0.1995
39596W        W82612  16.417  31.165  21.514 -0.1521  0.0435  0.0583
39597W        W82613  12.868   9.029  19.932  0.0234 -0.3325  0.1356
39598W        W82614   0.235  24.878  24.693  0.1582 -0.1469 -0.0655
39599W        W82615  14.983  29.931  18.048  0.0208  0.1772 -0.2164
39600W        W82616   0.370  19.793  23.590 -0.2737  0.0614  0.1250
39601W        W82617  14.321   0.972  13.962  0.1196  0.1749 -0.0060
39602W        W82618   4.322  25.539  27.358  0.0579 -0.2420 -0.1248
39603W        W82619  28.072   5.469  22.727  0.1643 -0.2046 -0.0405
39604W        W82620   6.203  28.444  20.138 -0.3068  0.1834  0.0712
39605W        W82621   9.672  16.283   3.821  0.2133 -0.3065 -0.0551
39606W        W82622   5.479  17.812   8.409 -0.2464  0.1804  0.3218
39607W        W82623   0.538   7.417  22.162  0.1167 -0.2433 -0.2574
39608W        W82624  15.362   7.829  20.518  0.1590  0.1006 -0.0036
39609W        W82625  30.420  29.897  26.897 -0.0942  0.5514 -0.0638
39610W        W82626  15.680  10.730  25.571 -0.0804  0.0434 -0.2449
39611W        W82627  14.732  31.374  15.657 -0.0732 -0.0195 -0.0483
39612W        W82628   1.281   6.629  16.580  0.1175 -0.2836 -0.3531
39613W        W82629  22.307  11.614  15.667 -0.1269  0.0909  0.1518
39614W        W82630   2.418  14.870  14.233 -0.1531 -0.0155  0.2039
39615W        W82631  13.049   0.665  20.046  0.1484 -0.0776  0.0043
39616W        W82632   7.210   8.012   2.800  0.1058  0.3501 -0.0808
39617W        W82633  16.869   6.322  24.521  0.1464 -0.0965  0.5104
39618W        W82634  14.844   3.458  25.694  0.0610  0.0311 -0.0775
39619W        W82635   4.657   7.530  17.807  0.0131 -0.1510 -0.0893
39620W        W82636   6.315  11.651  20.942 -0.3704 -0.2730  0.0867
39621W        W82637   8.676   1.518  21.276 -0.1173 -0.1685  0.4634
39622W        W82638  19.549  22.292  17.310 -0.3109 -0.2581 -0.0879
39623W        W82639   7.167   2.307  14.245  0.1179  0.2527  0.0497
39624W        W82640   6.538  20.080  22.200 -0.5207 -0.2132 -0.1193
39625W        W82641  25.278  11.497  18.554  0.1526 -0.1302 -0.1660
39626W        W82642  12.886   8.658  20.780  0.0420  0.1510 -0.0808
39627W        W82643   6.461   8.813  18.425  0.2532 -0.0683 -0.2801
39628W        W82644   5.349  16.483  19.695 -0.0753  0.1244 -0.0617
39629W        W82645  30.503   7.423  21.016 -0.0206 -0.1229 -0.0796
39630W        W82646  31.291   0.432  23.710 -0.0265  0.3199 -0.2184
39631W        W82647  10.430  13.375  14.011  0.0013 -0.0295  0.0322
39632W        W82648  32.457   2.125  23.753  0.1122  0.1251 -0.3472
39633W        W82649  19.789  20.799  21.783 -0.0733  0.0441  0.1283
39634W        W82650  27.244   2.360   8.123 -0.1737  0.0731  0.3816
39635W        W82651   5.540  17.482  20.859 -0.2319 -0.0099  0.1834
39636W        W82652  20.616  21.246  23.403  0.2374 -0.0420 -0.2675
39637W        W82653  29.679   5.488  15.523  0.0165  0.0688  0.0085
39638W        W82654  30.538  14.422  20.462 -0.1618  0.6799 -0.1228
39639W        W82655   2.143  32.362  15.554 -0.0793  0.1842  0.5345
39640W        W82656   0.588   7.222  15.161  0.1331  0.0096 -0.1853
39641W        W82657  13.919  21.924  22.124  0.2392  0.1459  0.0117
39642W        W82658  27.010   7.887   0.893 -0.1319 -0.4819 -0.0173
39643W        W82659   4.639  26.206  22.352 -0.0749  0.0033 -0.0914
39644W        W82660   9.408   3.299  23.535 -0.0435 -0.0808 -0.1004
39645W        W82661  34.495   6.275   0.180 -0.4007  0.0015  0.2013
39646W        W82662  17.836   5.276  25.688  0.1609 -0.0755 -0.3870
39647W        W82663  19.157  24.120  15.718 -0.3200  0.0901  0.1983
39648W        W82664  12.053  10.617   3.519  0.1134  0.2181  0.1174
39649W        W82665   5.949  11.286  18.948 -0.0516 -0.0149 -0.2020
39650W        W82666   1.041  30.598  20.637 -0.1685 -0.0908  0.0773
39651W        W82667  15.514  10.286  25.431 -0.2147  0.0697 -0.1388
39652W        W82668  31.149   9.453  21.189 -0.0793 -0.0002 -0.3107
39653W        W82669   8.266   6.692  15.051  0.0762  0.1150  0.2966
39654W        W82670  17.251   5.884  20.100  0.0413  0.0886  0.1688
39655W        W82671  14.445   6.655  14.545  0.3112  0.0795  0.0924
39656W        W82672  12.390   1.821  15.621  0.0499 -0.0339  0.1195
39657W        W82673  23.543  23.901   0.252  0.3405 -0.1797  0.0829
39658W        W82674  18.871   9.188  27.110  0.1089 -0.3588  0.0545
39659W        W82675  30.339  15.543  21.677  0.1579 -0.1906 -0.2794
39660W        W82676  25.577   6.799  18.473  0.1288 -0.1542  0.2211
39661W        W82677  10.654   2.138  21.004 -0.1646  0.0853 -0.1852
39662W        W82678  10.581   6.656  15.507  0.1086  0.0292 -0.2364
39663W        W82679  11.505   7.567  28.576  0.1786  0.0664 -0.0649
39664W        W82680  30.773   4.047   5.845  0.2772  0.0008  0.1107
39665W        W82681   9.987  30.328   2.909  0.2815 -0.3489 -0.1551
39666W        W82682   1.052   9.289  22.097 -0.1595  0.0695  0.1568
39667W        W82683   5.470  33.276  14.222  0.1502 -0.1880  0.0335
39668W        W82684   2.317  23.292  27.093 -0.1261 -0.1779 -0.0121
39669W        W82685   9.415  14.086  20.499  0.2103  0.3470 -0.1828
39670W        W82686   2.603   8.887  20.896 -0.1103  0.3020  0.0725
39671W        W82687  31.498  34.727  16.524  0.1063  0.3534 -0.0407
39672W        W82688  11.304   7.372  26.252  0.0153  0.1029  0.1058
39673W        W82689  32.108  10.395  18.843  0.0812  0.0159 -0.1564
39674W        W82690  25.627   8.538  26.233  0.1550 -0.0515  0.1357
39675W        W82691  24.340  30.297  28.252 -0.0423  0.1838 -0.1109
39676W        W82692   6.865   4.689  20.148 -0.1457 -0.1903 -0.0884
39677W        W82693  11.706  12.123  22.992 -0.1974 -0.1862  0.1224
39678W        W82694  14.016  32.037  24.257 -0.1868 -0.0734  0.1307
39679W        W82695   4.207  21.131  14.027  0.3871 -0.1870 -0.0979
39680W        W82696  29.162   6.331  26.899 -0.1472 -0.0413 -0.1692
39681W        W82697  33.633   2.952  26.046 -0.0681 -0.0848  0.1895
39682W        W82698   4.112  13.631  15.433 -0.3521  0.2455  0.0911
39683W        W82699  21.268   6.410  15.846 -0.1566  0.0627  0.2349
39684W        W82700   1.335   2.398   1.176 -0.0289 -0.1039 -0.0560
39685W        W82701  33.261   1.689  15.905 -0.2685  0.0086  0.1611
39686W        W82702  27.472  25.210  21.527  0.0534  0.3125 -0.0227
39687W        W82703  19.214  15.272  12.464  0.1173  0.6296  0.2273
39688W        W82704  11.711  28.368  21.944  0.1291  0.3658  0.1061
39689W        W82705   8.121  29.481   6.961 -0.0977 -0.1383 -0.2170
39690W        W82706   1.050  30.382  22.326 -0.0128  0.3118  0.0171
39691W        W82707  11.877  24.823  21.784  0.0870  0.0493  0.0690
39692W        W82708   6.365  34.323  17.992  0.0812  0.0132 -0.2908
39693W        W82709  20.286   7.123   1.416 -0.0197  0.0930  0.3380
39694W        W82710  28.243  10.250  22.508  0.1579 -0.0869  0.0328
39695W        W82711  22.587  16.524  13.976 -0.0562  0.2108  0.2824
39696W        W82712   2.630  15.067  14.619 -0.2942  0.0330 -0.0129
39697W        W82713  11.535  13.620  21.125 -0.1141 -0.2933 -0.2896
39698W        W82714   9.033  11.885   8.674 -0.3141  0.0611 -0.1705
39699W        W82715  32.804  11.048  19.035  0.3727 -0.3654  0.0115
39700W        W82716   6.715  18.671   1.369  0.0382  0.3351  0.1888
39701W        W82717  28.039  33.069  29.094  0.0924  0.2184  0.0797
39702W        W82718   7.645  15.003  14.771 -0.0459 -0.0200  0.0451
39703W        W82719  24.116  19.227  14.398 -0.1952  0.2611  0.0117
39704W        W82720   4.558  30.659  25.056  0.0277  0.0035 -0.1060
39705W        W82721  16.536   4.865  23.472  0.2098  0.2003  0.2075
39706W        W82722   5.300  25.420  25.143 -0.1639 -0.0605 -0.2266
39707W        W82723  33.394  11.136  17.507 -0.1679 -0.0876 -0.1121
39708W        W82724  27.072   9.238  27.922  0.3960 -0.1770  0.1321
39709W        W82725   4.192  10.986  16.775  0.0446  0.4914  0.2150
39710W        W82726  21.733  15.876   2.085  0.0860 -0.2323  0.1002
39711W        W82727  14.276   8.274  18.152 -0.0145 -0.2293  0.0518
39712W        W82728  17.927   8.169   1.768 -0.1573 -0.1698  0.0096
39713W        W82729  23.792   8.083  28.306 -0.3358  0.0796 -0.1572
39714W        W82730  11.106  15.582  23.542  0.0513  0.0488  0.2659
39715W        W82731  17.434  13.216  26.074  0.4046  0.0476  0.3315
39716W        W82732   3.257  24.386   2.332  0.1424  0.0497 -0.0735
39717W        W82733   7.321  12.292  27.148 -0.0593 -0.1277  0.0152
39718W        W82734  14.463   7.835  18.658  0.1280  0.0108  0.1453
39719W        W82735   3.050   8.950   6.376  0.0277  0.0137  0.0943
39720W        W82736   2.464   5.889  21.745 -0.4141 -0.0818 -0.1234
39721W        W82737   7.380   0.761   4.108  0.1164  0.0304 -0.0630
39722W        W82738   3.336  29.436  15.659 -0.2450  0.1057 -0.2650
39723W        W82739   0.226  20.433  14.953 -0.0064  0.2337  0.1014
39724W        W82740   5.075  21.101  13.604  0.1082 -0.1537 -0.0122
39725W        W82741  30.861  10.869  20.495 -0.3799 -0.0145  0.0945
39726W        W82742  12.974  34.309  25.107 -0.2606  0.1650 -0.0832
39727W        W82743  20.730  17.399  13.183  0.1763 -0.0059 -0.1617
39728W        W82744  19.060  13.442  14.650 -0.1736 -0.0853  0.0260
39729W        W82745   9.890  21.487  15.338  0.1165  0.0225 -0.0113
39730W        W82746  12.318  15.196  14.462 -0.1100  0.1482 -0.6375
39731W        W82747   5.200  15.896  15.671  0.0764 -0.0178  0.0802
39732W        W82748   0.148  18.367  18.748  0.1012 -0.0107 -0.0718
39733W        W82749  32.468  16.159  21.117 -0.5199 -0.1673 -0.3327
39734W        W82750  24.358   6.048  20.053  0.2442  0.0249 -0.3062
39735W        W82751  12.335  34.166  22.029  0.2992 -0.0860 -0.1473
39736W        W82752   7.293   3.357  21.206  0.4874 -0.1464 -0.1336
39737W        W82753  21.777  22.256  15.595 -0.0329  0.1300 -0.2049
39738W        W82754   4.261  12.296   5.983  0.0567  0.1032 -0.4308
39739W        W82755  29.876   5.005  17.936  0.1972 -0.0144  0.3529
39740W        W82756   9.704   5.905  28.149  0.2337 -0.0778 -0.0104
39741W        W82757   6.878  22.114  18.664 -0.1790 -0.0424 -0.1366
39742W        W82758   9.007  23.753  16.101 -0.0435 -0.1132  0.2959
39743W        W82759  30.200   4.917  20.419 -0.1389 -0.0025 -0.2636
39744W        W82760   1.527   0.719  20.783 -0.0010 -0.2345 -0.0833
39745W        W82761   5.770  10.921  15.630  0.0334  0.2189  0.0833
39746W        W82762  23.709   0.134   2.239 -0.3105  0.1228 -0.2817
39747W        W82763  15.263   4.629  19.200  0.0994  0.3279  0.2248
39748W        W82764  16.574  11.238  20.251  0.1130  0.0177  0.2196
39749W        W82765   6.235  23.652  20.382  0.2802 -0.0412  0.1668
39750W        W82766   7.149  17.488   0.830 -0.2761  0.0114 -0.1834
39751W        W82767  23.675  17.134  15.705 -0.3572 -0.3161  0.0670
39752W        W82768  17.094  12.041  22.786  0.3568 -0.1143 -0.1420
39753W        W82769   0.159   2.890  25.952 -0.3201  0.0486 -0.2357
39754W        W82770  29.097   9.561  23.555  0.1893 -0.2345 -0.0576
39755W        W82771   9.671  11.595  13.972  0.0752 -0.1281  0.0012
39756W        W82772  18.577   7.391  28.914  0.1862 -0.1589  0.1778
39757W        W82773  32.629   1.247   2.989 -0.2610 -0.2033  0.2453
39758W        W82774  23.913  10.017  19.191  0.4015 -0.0395 -0.0816
39759W        W82775  12.544  26.107   3.028  0.1340 -0.1627  0.2275
39760W        W82776   5.184   5.102  21.021  0.3440  0.0773 -0.0904
39761W        W82777  30.407   8.786  17.064  0.0579  0.0901 -0.1563
39762W        W82778   9.249   3.894  24.440  0.1519 -0.1249  0.2235
39763W        W82779  32.183  25.328   9.045 -0.0766  0.3165 -0.3919
39764W        W82780   4.648  14.187  14.622  0.3851  0.1740  0.2455
39765W        W82781  18.765  19.300  15.024  0.1446 -0.0092  0.2875
39766W        W82782  19.430  14.171  11.926  0.1898 -0.0150 -0.2357
39767W        W82783   3.974  26.416  14.969  0.0938  0.0498 -0.1082
39768W        W82784   6.470   9.864  29.008 -0.0188  0.0168  0.3021
39769W        W82785   1.051  14.562  26.727  0.4065 -0.0219 -0.2201
39770W        W82786   1.439  20.544  14.636 -0.0409  0.0434 -0.0746
39771W        W82787   3.051   9.026  16.730 -0.0457 -0.1834 -0.2016
39772W        W82788   6.242  19.696  15.838  0.0514  0.0907  0.2028
39773W        W82789  34.251  33.813  16.550  0.0250 -0.1231  0.0110
39774W        W82790  25.312  28.506  26.189  0.3631  0.1359  0.4316
39775W        W82791  26.104   7.683  18.365  0.2668 -0.1092 -0.1702
39776W        W82792  28.474   3.040  22.514  0.0433 -0.2118  0.0247
39777W        W82793   0.116   0.503  22.688 -0.0552 -0.3097 -0.1939
39778W        W82794  12.724  17.990  14.935  0.2834 -0.1761 -0.0609
39779W        W82795  19.295  24.230  27.947 -0.2197 -0.0999 -0.0713
39780W        W82796  12.158  30.041  17.189 -0.1234 -0.0078 -0.0479
39781W        W82797  33.718   3.165  17.428 -0.0476 -0.1102  0.2647
39782W        W82798  23.991  33.050  20.461 -0.0688  0.1128 -0.2423
39783W        W82799  11.693   4.809  28.496  0.2780 -0.2864 -0.0156
39784W        W82800   4.057   7.480  17.763  0.1903 -0.0497  0.0559
39785W        W82801   1.974   6.921  14.388 -0.0203  0.0920  0.0013
39786W        W82802   3.257   6.633  17.054 -0.1079  0.0954 -0.2107
39787W        W82803   2.567  26.896  24.319  0.0342  0.1505 -0.0986
39788W        W82804  24.782   4.271  25.514 -0.0584  0.2023  0.3619
39789W        W82805   9.088  30.281  15.176 -0.0023 -0.0864  0.0296
39790W        W82806  32.244  14.497  22.744 -0.0909 -0.0396  0.3211
39791W        W82807   5.756  16.364  23.190  0.1495  0.0016 -0.1318
39792W        W82808   5.921  16.469  20.033 -0.2444  0.1551  0.7236
39793W        W82809  20.997   7.989  20.266 -0.1969  0.0191 -0.1502
39794W        W82810   3.706   5.213  27.011  0.2519  0.3094  0.2038
39795W        W82811  12.243   7.447  21.037  0.0013 -0.0934 -0.1270
39796W        W82812  19.047   9.153   5.886 -0.0824 -0.2383  0.0678
39797W        W82813  30.388  10.807  17.214 -0.2710 -0.0478 -0.0544
39798W        W82814  18.727  19.325  15.495  0.1679 -0.1069  0.1113
39799W        W82815   6.057  13.631  20.067  0.0082  0.0946 -0.0880
39800W        W82816  12.086  29.165  25.506 -0.1804 -0.1374  0.1101
39801W        W82817  31.526  31.127  15.587 -0.0645  0.1404 -0.0919
39802W        W82818   0.566  16.206  15.382  0.0844 -0.3164  0.2255
39803W        W82819  22.648   9.721  27.107 -0.0209 -0.3601 -0.3288
39804W        W82820  22.664  15.481  14.302 -0.2523 -0.1626 -0.1402
39805W        W82821   4.479   3.521  14.760 -0.1577 -0.1893 -0.1465
39806W        W82822  28.445  14.084  25.026 -0.0034 -0.3137  0.1115
39807W        W82823   8.907   7.402  22.020  0.4237 -0.1094  0.3314
39808W        W82824  12.371  32.087  18.115 -0.2944 -0.4151 -0.3085
39809W        W82825  27.899  17.607  16.971 -0.0383 -0.1913  0.0336
39810W        W82826  28.964   1.572  27.463  0.2507 -0.0510 -0.1133
39811W        W82827  24.171  24.642  28.441 -0.1086 -0.1087 -0.0290
39812W        W82828   9.214  18.226  13.476  0.3326 -0.0554  0.1535
39813W        W82829  22.190   3.542  18.868  0.0140  0.3732  0.0390
39814W        W82830   0.846  27.813  16.564  0.0886  0.1770  0.0581
39815W        W82831   4.180  16.862   6.029  0.0639  0.3470  0.0021
39816W        W82832   9.386   6.660  16.090 -0.0457  0.2851  0.2923
39817W        W82833  32.826  30.942  18.180 -0.2375  0.0252 -0.1337
39818W        W82834  20.596  13.814   6.772 -0.4012 -0.1688 -0.3325
39819W        W82835  20.141  21.233  26.825 -0.0590 -0.0632 -0.0512
39820W        W82836   7.715   3.796  22.629 -0.0059 -0.0119  0.0728
39821W        W82837  20.332   2.546  27.135 -0.1500  0.0580 -0.0652
39822W        W82838   2.428  16.744  16.706  0.3371 -0.0589 -0.3961
39823W        W82839  15.014   8.096  17.485  0.0445  0.1600  0.1867
39824W        W82840   8.974  20.201  12.928  0.4755  0.1091 -0.0055
39825W        W82841   7.874  33.039  16.760 -0.1648  0.0403 -0.0621
39826W        W82842   6.355  11.570  14.435  0.0696 -0.0410 -0.3090
39827W        W82843  33.907  23.834  15.068  0.1850  0.1770 -0.0844
39828W        W82844  24.220  14.676  20.099 -0.0811 -0.0675 -0.1119
39829W        W82845   9.449  27.274  16.919  0.0718 -0.0610 -0.0038
39830W        W82846  10.258  17.363  15.165  0.1548 -0.1311 -0.3880
39831W        W82847   7.790  28.561  20.174  0.2173 -0.0170 -0.0457
39832W        W82848   9.854  19.612  13.255 -0.0210 -0.0088  0.3228
39833W        W82849   2.853  11.067  22.136 -0.4113 -0.1083  0.2005
39834W        W82850   6.068   7.326  21.210 -0.0754 -0.2622  0.0588
39835W        W82851  33.243   2.921  28.749  0.2278  0.2765 -0.4431
39836W        W82852  19.957  28.116  17.181 -0.0573 -0.0498 -0.2369
39837W        W82853  14.722   8.457  26.943  0.2160  0.1051 -0.3992
39838W        W82854  12.062  31.346  16.191  0.0863 -0.1102 -0.1261
39839W        W82855  12.863   7.464  16.406  0.3218 -0.0865  0.1594
39840W        W82856  10.907   7.338  19.731 -0.0745  0.1944 -0.1814
39841W        W82857   7.725   8.091   1.674  0.2861 -0.3028 -0.1002
39842W        W82858  22.316  24.492   1.442  0.5347  0.1578 -0.0422
39843W        W82859   6.167  32.580  13.616 -0.0525 -0.0391 -0.4456
39844W        W82860   7.484  10.435  21.849 -0.3772 -0.0050 -0.1473
39845W        W82861  11.612   3.943   5.792  0.0863 -0.1290 -0.0414
39846W        W82862  23.588  25.629  17.518 -0.1687  0.0474  0.2250
39847W        W82863   4.770  27.236  20.472 -0.1958 -0.0574  0.1409
39848W        W82864  28.612   2.576  28.647  0.0134 -0.0542 -0.0220
39849W        W82865  31.713  18.440  18.921  0.1528  0.1299  0.0083
39850W        W82866   6.237  11.950  14.166 -0.2788  0.1752  0.2983
39851W        W82867  12.912  12.851  27.806  0.1523  0.0950  0.0951
39852W        W82868  33.943  11.484  25.470 -0.3381  0.5923  0.1508
39853W        W82869  15.231   9.821  20.310  0.1310  0.2771  0.3484
39854W        W82870  11.540  13.729  17.107  0.1853  0.1950 -0.2000
39855W        W82871   2.950  13.725  14.704  0.2060 -0.1510 -0.0249
39856W        W82872   8.385  11.583  19.665 -0.4030  0.1794 -0.0224
39857W        W82873  20.210  11.376  21.257  0.0146 -0.3237  0.3333
39858W        W82874   7.441   0.087  15.556  0.0762  0.0875 -0.3379
39859W        W82875  14.510   1.767  15.490  0.0383  0.0903  0.3446
39860W        W82876  17.663   8.736  13.103 -0.2125  0.3550  0.1140
39861W        W82877   1.341  14.870  26.160 -0.1033 -0.0528  0.1179
39862W        W82878  15.350  15.529   3.261  0.1549  0.2071  0.2834
39863W        W82879  12.149   5.017   9.602 -0.0223 -0.1482 -0.0047
39864W        W82880   6.418   0.187   5.321 -0.2780 -0.1969 -0.0237
39865W        W82881   4.512   3.743   5.475 -0.2368  0.1953  0.2673
39866W        W82882  17.940   9.901  15.325 -0.0687 -0.3979 -0.1232
39867W        W82883  10.907   7.157   6.172  0.3281  0.0319  0.2351
39868W        W82884  12.943  18.799  23.853 -0.3109  0.0294  0.1854
39869W        W82885  11.079  21.041   6.439  0.2180  0.0618 -0.2083
39870W        W82886  16.065  16.963  12.576 -0.0213  0.1506 -0.1108
39871W        W82887  22.843  30.548  19.685 -0.0272 -0.0187  0.1201
39872W        W82888  17.884   5.345  24.012  0.0015 -0.2126  0.2544
39873W        W82889   6.550  23.509   4.830  0.4313  0.1229 -0.4583
39874W        W82890  19.461   6.148  20.079  0.0754  0.1380 -0.0212
39875W        W82891  29.100  12.237  22.329 -0.0054 -0.1042 -0.1510
39876W        W82892  11.428   5.554   4.865  0.0597  0.2031 -0.0277
39877W        W82893   3.442  28.057  17.654  0.2829 -0.1295 -0.3602
39878W        W82894  16.788   0.352   4.928  0.1152 -0.0165 -0.0444
39879W        W82895  14.782  25.053  23.198 -0.0802  0.0484  0.1449
39880W        W82896   7.618  21.010   6.231 -0.0898  0.2712 -0.2034
39881W        W82897   4.130  19.999  15.262 -0.1700  0.0984 -0.0949
39882W        W82898  29.697   9.000  27.261  0.1627 -0.2729  0.5857
39883W        W82899  28.353  16.837  15.724 -0.1913  0.1504  0.1982
39884W        W82900   9.197  12.199  18.299 -0.1987 -0.2135 -0.4947
39885W        W82901   9.191  14.413  17.809 -0.0388  0.1654 -0.0053
39886W        W82902  11.439  19.206  24.305 -0.3495  0.0725 -0.0459
39887W        W82903   0.990   2.520  24.956  0.1182 -0.1000 -0.0565
39888W        W82904   1.044  10.712  29.015  0.0326 -0.1998 -0.0602
39889W        W82905   1.284  31.878  17.708 -0.3041 -0.2665  0.1086
39890W        W82906  10.427  18.522  18.280  0.2183  0.3282 -0.0540
39891W        W82907   0.136  14.845   1.190 -0.2685  0.2213  0.2853
39892W        W82908   8.023  16.785   1.626 -0.1584  0.0818  0.2350
39893W        W82909   5.180   8.335   1.927 -0.0101  0.0837 -0.1473
39894W        W82910   8.164   2.742  23.227  0.0610 -0.3330 -0.0067
39895W        W82911  32.519   6.049   6.295 -0.0340  0.1580 -0.1184
39896W        W82912  23.981  15.560  13.861  0.1960  0.0707 -0.1376
39897W        W82913  17.043  17.549  21.018 -0.3306 -0.0606  0.1987
39898W        W82914  13.454  14.007   3.152  0.1674 -0.4695 -0.0590
39899W        W82915   2.356  14.401  19.366 -0.0680  0.0959 -0.1900
39900W        W82916   1.148   4.825  22.533 -0.2640  0.0263 -0.4565
39901W        W82917  33.585   7.710   1.917 -0.0742 -0.0536  0.0233
39902W        W82918   9.451   8.070  14.333  0.0656 -0.0466 -0.1321
39903W        W82919  22.172  21.386  28.895 -0.1477 -0.2143 -0.1441
39904W        W82920  22.519   6.533  25.879  0.2856  0.2168 -0.2600
39905W        W82921  33.635  14.384   1.241 -0.2357  0.0426  0.0160
39906W        W82922  21.154  13.103  23.856  0.0303 -0.1332  0.2877
39907W        W82923  12.052   9.578  22.144  0.1845  0.1809  0.2538
39908W        W82924  16.565   8.984  15.380 -0.0297  0.0686 -0.0360
39909W        W82925  18.720   5.360   1.317  0.0081 -0.2761 -0.0110
39910W        W82926  22.203  16.589  22.191 -0.0360 -0.0152 -0.0252
39911W        W82927   1.599   9.651   1.913  0.2469 -0.2000 -0.1431
39912W        W82928  17.865   7.100   9.555 -0.0324 -0.0328 -0.1650
39913W        W82929  23.362  22.774  26.135  0.0015  0.1135  0.1706
39914W        W82930  33.358  32.942  15.588 -0.0253  0.0938  0.2737
39915W        W82931  10.490  34.713  14.973  0.3097 -0.1368 -0.0384
39916W        W82932  11.361   2.884   4.319 -0.3239  0.1020 -0.0448
39917W        W82933  33.183   7.774  17.522 -0.0793  0.1714 -0.1137
39918W        W82934  28.248   0.478  28.736 -0.0431 -0.0596  0.1499
39919W        W82935  34.693   2.125  23.284 -0.0280  0.3216 -0.0793
39920W        W82936  23.210  24.582  17.218 -0.1359  0.1029  0.0505
39921W        W82937  17.645  20.573  16.078 -0.2477  0.1652  0.1648
39922W        W82938  16.330  16.190  23.653 -0.0063 -0.3159 -0.0492
39923W        W82939   2.455   0.390  19.575 -0.1169  0.0713  0.0673
39924W        W82940  16.156  10.850  16.616  0.0069  0.2552  0.2480
39925W        W82941   0.388  32.011  21.639 -0.0737  0.0968  0.1225
39926W        W82942  11.867  13.825  24.252 -0.3040  0.0587  0.0966
39927W        W82943  18.342   7.734  14.422  0.1360  0.4773  0.0009
39928W        W82944  23.564  22.780  15.583  0.0072 -0.1319 -0.0926
39929W        W82945  31.095  10.984  14.820  0.1209  0.1816  0.2393
39930W        W82946  25.906  12.438  14.462 -0.2369  0.2261 -0.1203
39931W        W82947  19.776   0.782  19.066  0.0680  0.0995 -0.2303
39932W        W82948  21.033  22.111  27.103  0.0267  0.2548  0.1722
39933W        W82949  15.119  10.426   1.994 -0.1810 -0.3981  0.1720
39934W        W82950   2.795  10.067  22.422  0.0555  0.0107  0.2651
39935W        W82951   9.573  11.633  16.342 -0.0792 -0.0450  0.6287
39936W        W82952   0.762  29.049   0.976  0.3311 -0.1757 -0.1438
39937W        W82953   7.772  20.463  26.232  0.2474 -0.1498 -0.3598
39938W        W82954   5.816   5.853  23.084 -0.3958  0.0061 -0.1623
39939W        W82955  31.499  32.642  15.900 -0.2403  0.0807  0.0074
39940W        W82956   1.657  16.598  10.036  0.1217  0.0083  0.1299
39941W        W82957  13.456   2.308   1.252  0.0608 -0.2450 -0.0150
39942W        W82958  21.073   4.376  28.163 -0.0636  0.0806 -0.1135
39943W        W82959  32.485  22.718   9.344  0.1680 -0.1986  0.1291
39944W        W82960  13.544   8.283  19.426  0.5616 -0.3804  0.1583
39945W        W82961  11.519   6.727   1.519 -0.0095 -0.2313 -0.2815
39946W        W82962  18.234  13.462  22.387  0.0120  0.0688  0.0958
39947W        W82963  18.307   9.939   8.559 -0.1456  0.0307  0.1684
39948W        W82964  34.774  27.226  26.508 -0.1717 -0.4461 -0.1246
39949W        W82965  34.609  26.049  27.309 -0.2718 -0.1503  0.0541
39950W        W82966   0.593  19.470  28.707  0.2537 -0.0105  0.2701
39951W        W82967  31.808   7.622   3.980  0.0644  0.1584  0.1745
39952W        W82968  20.046  24.354  16.507 -0.0111  0.1949 -0.0119
39953W        W82969   5.666   3.534  24.491  0.0205 -0.0743 -0.1630
39954W        W82970  29.096  13.633  15.256  0.0653 -0.1476  0.2576
39955W        W82971  12.698  16.544   3.302 -0.0627 -0.0877  0.2008
39956W        W82972  14.841  12.751  27.489 -0.2234  0.0554  0.0885
39957W        W82973   6.879  25.680  25.452  0.1761  0.0642  0.2067
39958W        W82974  24.813   7.806  24.158 -0.0352  0.0410  0.1165
39959W        W82975   9.766  13.784  22.706  0.1963 -0.2214  0.0731
39960W        W82976  31.443  11.323  23.034  0.3739  0.1838  0.1769
39961W        W82977   4.871   8.868   1.186 -0.0679  0.1269 -0.3238
39962W        W82978   5.201  21.171   0.221 -0.1050  0.2107 -0.4069
39963W        W82979  10.281  14.165   3.829 -0.1631 -0.1428  0.2385
39964W        W82980  17.743  22.304  12.438  0.2092  0.0542 -0.1322
39965W        W82981  14.728   7.469   1.339  0.0215  0.2999  0.1074
39966W        W82982  18.082  24.254   1.899  0.1264  0.1015 -0.1862
39967W        W82983   8.164  28.171   1.001 -0.1449 -0.1578  0.5189
39968W        W82984   4.956   9.565   5.998  0.0839  0.1059  0.0195
39969W        W82985  11.188  33.585  17.791 -0.1075 -0.0794 -0.2279
39970W        W82986  23.508   0.021  11.301  0.0108 -0.0249  0.1689
39971W        W82987  28.788  10.150  27.951  0.1399 -0.2641  0.1778
39972W        W82988  18.650   7.414   2.493 -0.1805  0.1361 -0.1081
39973W        W82989   4.212  28.509  26.460 -0.3043  0.0915 -0.1179
39974W        W82990   8.577  29.863  20.430  0.3525 -0.3079  0.4329
39975W        W82991  18.603  12.361   2.102 -0.0746  0.0008 -0.1424
39976W        W82992  16.567   9.272  24.016 -0.1639 -0.1578  0.1231
39977W        W82993   1.057  33.029  14.554 -0.0231 -0.2106  0.0095
39978W        W82994  18.611  26.271  20.611 -0.0581 -0.0956  0.0351
39979W        W82995  25.900  14.015   2.879 -0.1404 -0.0463 -0.1484
39980W        W82996  17.502   5.694  25.560  0.0914 -0.0907  0.1057
39981W        W82997  31.929   8.187   2.479  0.1194  0.3225  0.0045
39982W        W82998  11.785   3.981  21.131 -0.0150 -0.2282 -0.0752
39983W        W82999  13.142   7.290  18.569 -0.1563 -0.2502 -0.0179
39984W        W83000  21.597  13.646  24.593  0.0543  0.1473 -0.0858
39985W        W83001   8.766   5.284  24.212  0.0871  0.1679  0.0188
39986W        W83002  33.097   4.218  15.768  0.0895 -0.2259 -0.0412
39987W        W83003  29.287  22.698  16.015 -0.1245  0.0617  0.0814
39988W        W83004   2.825  27.348  20.414  0.3212  0.4309  0.1619
39989W        W83005   7.051  34.172  19.359 -0.2335 -0.5247 -0.1156
39990W        W83006   5.458   5.632  10.082  0.1358 -0.5798 -0.1745
39991W        W83007  17.763   0.375  17.212  0.0570  0.1921  0.1506
39992W        W83008  12.708  29.981  25.286  0.0709  0.0186  0.0979
39993W        W83009   2.406  18.329  20.470 -0.1046  0.1087 -0.1662
39994W        W83010   7.173  34.424  23.911 -0.3727  0.1390  0.1371
39995W        W83011  27.145   6.811  23.084  0.0785  0.0504 -0.0720
39996W        W83012   7.157  21.503  20.049  0.0107  0.0074  0.1044
39997W        W83013   9.960   9.268  26.510 -0.0278  0.3460 -0.1780
39998W        W83014   8.408  30.972  24.791 -0.0492  0.1183  0.3457
39999W        W83015   4.566  30.716  26.443 -0.1902 -0.0743 -0.1995
40000W        W83016  30.591  27.726  24.943  0.0309 -0.0822  0.0844
40001W        W83017  23.578  16.187   4.705  0.1289  0.1984  0.1026
40002W        W83018  13.396  25.480  20.638  0.1090  0.0278  0.0157
40003W        W83019  30.789   9.535  22.673 -0.0813  0.3153  0.1946
40004W        W83020  29.451  26.183  17.643 -0.1780 -0.1116  0.1769
40005W        W83021  22.808   4.605   3.969  0.0884  0.0944  0.0557
40006W        W83022  34.101  22.269  23.408 -0.2763 -0.0777  0.1793
40007W        W83023   6.105  19.825  19.849 -0.3607  0.0873 -0.4154
40008W        W83024  16.434   9.652  18.014 -0.3283 -0.0629 -0.1548
40009W        W83025   2.367   6.539   5.898 -0.0762 -0.1204  0.4040
40010W        W83026  14.314  10.883  26.371 -0.2611  0.1033  0.0790
40011W        W83027  23.823   9.858  15.617 -0.2141  0.0712 -0.4939
40012W        W83028  15.124   9.368  16.205  0.0871 -0.2301  0.2639
40013W        W83029  18.554  10.462  20.316  0.3426  0.0864  0.0549
40014W        W83030  14.962  16.948  20.059 -0.0844 -0.0910  0.5280
40015W        W83031   2.094  13.158   3.984 -0.4475 -0.2518 -0.0754
40016W        W83032  14.797   2.121  26.267 -0.2156 -0.0241  0.0007
40017W        W83033  15.150  12.385  13.160  0.3705 -0.1335 -0.2796
40018W        W83034  21.835   7.553  18.519 -0.1063  0.0576  0.1585
40019W        W83035  10.771  15.925  24.569 -0.1871  0.1782 -0.0682
40020W        W83036  10.238  17.622  16.437 -0.0738 -0.0645 -0.0468
40021W        W83037   0.291  29.416  21.454 -0.0093 -0.0472 -0.0455
40022W        W83038  23.565  16.607  18.078  0.0396 -0.0437 -0.2740
40023W        W83039  22.057  30.337   2.922 -0.0703  0.0147 -0.2097
40024W        W83040  12.049  21.942  22.984  0.1121 -0.2163  0.1209
40025W        W83041  11.374  17.796  18.467 -0.4471 -0.0465 -0.0580
40026W        W83042  28.235  15.461   2.233 -0.0080  0.1417 -0.0517
40027W        W83043   4.122  30.029  28.157 -0.0738  0.0868  0.1780
40028W        W83044   6.145  18.256  17.312 -0.2217  0.4231 -0.2762
40029W        W83045  17.131   8.583  24.205  0.1604 -0.2204 -0.0734
40030W        W83046   7.898  32.465  20.384 -0.3803 -0.2715 -0.1021
40031W        W83047  18.561  10.754  26.024  0.1517 -0.1736 -0.0593
40032W        W83048  10.821  17.584  26.054  0.0566 -0.0662 -0.4109
40033W        W83049  12.424  25.870  20.024 -0.2240  0.1782  0.4786
40034W        W83050  21.757   4.220  20.790  0.0684  0.1572  0.3013
40035W        W83051  13.813   8.740   7.653  0.0788 -0.1256 -0.0789
40036W        W83052  20.487   9.591  25.196  0.0374  0.1547  0.1044
40037W        W83053  29.971   9.707  16.453  0.0972  0.1601 -0.0544
40038W        W83054  13.151   2.499  19.981 -0.1098  0.0902 -0.0483
40039W        W83055  20.938   5.279  25.512  0.1223 -0.2867  0.1035
40040W        W83056   7.196   2.291  15.600 -0.1499 -0.1715 -0.1306
40041W        W83057   3.547  17.735  22.087 -0.0035  0.4712  0.0290
40042W        W83058  28.236  18.654  20.909  0.0595  0.0521  0.1217
40043W        W83059   3.462  25.650   5.482  0.0801  0.2085 -0.1822
40044W        W83060   6.845  19.454  24.904 -0.2564  0.2321 -0.0170
40045W        W83061   4.906  11.066  24.894  0.2540  0.0698 -0.4457
40046W        W83062  11.438  11.117   2.450 -0.0853 -0.1255  0.0066
40047W        W83063  25.757  12.082  28.451  0.2431 -0.0039  0.0712
40048W        W83064   6.048  31.947   3.735  0.1436 -0.1541  0.0087
40049W        W83065  34.235  29.854   8.806  0.0280 -0.0601  0.0687
40050W        W83066  16.408  19.446  21.464  0.2876  0.3167  0.2551
40051W        W83067   2.215  17.451  16.043  0.1291 -0.0467  0.0588
40052W        W83068  34.702  21.157  15.460 -0.1053 -0.2848  0.1070
40053W        W83069   6.741   7.933  20.064  0.0213  0.2309 -0.2398
40054W        W83070   9.385  31.219  22.394  0.0754  0.0318 -0.0346
40055W        W83071   5.664  11.961  15.827  0.2847 -0.1738 -0.2571
40056W        W83072   7.120   8.849  15.777  0.0903 -0.5757  0.1486
40057W        W83073  12.996  11.326  25.069  0.2801  0.3428  0.1626
40058W        W83074  32.861   8.598   6.495 -0.0161 -0.0310 -0.2587
40059W        W83075   9.170   8.739  26.474 -0.1540 -0.0106 -0.3151
40060W        W83076   4.058   5.095  17.392  0.2171 -0.1781 -0.1622
40061W        W83077   3.058  13.330  19.817 -0.1669  0.2071 -0.0828
40062W        W83078  33.682   8.861   6.641  0.0437 -0.3697 -0.2456
40063W        W83079   9.748  11.016  14.885  0.0898 -0.0607 -0.2467
40064W        W83080   3.364  34.043  28.839  0.2333 -0.0474 -0.0980
40065W        W83081  12.413  23.613  15.666 -0.2722 -0.0305  0.0279
40066W        W83082  15.410  18.337  15.912 -0.0596 -0.1042 -0.0023
40067W        W83083  14.688   4.976   5.867  0.1687  0.0754 -0.0624
40068W        W83084   7.135  16.475  23.484  0.2950 -0.0170 -0.2684
40069W        W83085  28.267  10.822  15.000 -0.0004 -0.2856 -0.1553
40070W        W83086  19.122   8.334   1.622 -0.0828 -0.0106 -0.0517
40071W        W83087   6.112  32.895  15.931  0.2977 -0.0526 -0.3487
40072W        W83088  10.450   6.584   9.379  0.1224 -0.0043 -0.0589
40073W        W83089   3.255  33.523  28.889 -0.1098  0.0373  0.2437
40074W        W83090  32.613  26.189   3.057 -0.2830  0.0647 -0.3982
40075W        W83091  10.757  11.023  29.184  0.0412 -0.0097  0.0612
40076W        W83092  13.972  14.664  29.013  0.1227 -0.2443  0.3329
40077W        W83093  12.996   8.890  26.996  0.1637  0.1564  0.0866
40078W        W83094  29.343   5.977  28.957 -0.1330  0.2547  0.4833
40079W        W83095   7.789   4.622  19.813 -0.1042  0.4406  0.0615
40080W        W83096   7.824   7.668  29.048  0.5766  0.2373  0.0071
40081W        W83097   3.012   4.155  15.974  0.3190 -0.1801  0.1711
40082W        W83098   8.360  14.560  13.461 -0.0653  0.0930 -0.1726
40083W        W83099  11.188   9.335  18.286  0.2329 -0.0835  0.3459
40084W        W83100   4.297   3.993  23.661 -0.0224 -0.1842  0.4076
40085W        W83101   6.953   7.244  19.452 -0.1683  0.1653  0.1166
40086W        W83102  19.212   2.438  14.598  0.1581  0.1686 -0.1343
40087W        W83103  30.634   7.919   6.937  0.1915  0.2484  0.1693
40088W        W83104  11.232   9.826  18.268 -0.1103  0.1254 -0.1612
40089W        W83105  12.383   0.457  14.506 -0.1722  0.3234 -0.1059
40090W        W83106  14.082   1.182  23.298  0.2287 -0.3876 -0.0081
40091W        W83107  21.983   0.153   6.125 -0.1515  0.1282 -0.2775
40092W        W83108   5.775   1.775  18.561  0.1709  0.1623  0.2696
40093W        W83109  16.373  27.004  17.322 -0.1147 -0.0684 -0.1370
40094W        W83110  34.515  24.657  19.617 -0.2382  0.2069  0.3437
40095W        W83111  11.337  14.206  28.665  0.0005  0.1739 -0.1036
40096W        W83112  34.005  11.220  18.829  0.0003  0.1138 -0.2459
40097W        W83113  26.576  18.897   7.693  0.2782  0.4971  0.1754
40098W        W83114   9.732  19.012  13.373  0.0465  0.2069 -0.0877
40099W        W83115  21.263   9.233  15.108 -0.0850  0.0602 -0.3524
40100W        W83116  11.185  29.911  24.540  0.0743 -0.2279  0.1406
40101W        W83117  12.435  15.914  25.564  0.0893 -0.1721 -0.0574
40102W        W83118   9.174   3.404  16.083  0.1615  0.2354 -0.1433
40103W        W83119  10.127  15.105  26.718  0.1468  0.0893  0.2024
40104W        W83120  14.297  20.962  24.668 -0.2044 -0.0017  0.1327
40105W        W83121  32.476   5.478  22.952  0.3256 -0.1825  0.1592
40106W        W83122   4.942  16.188  23.046  0.0544  0.1437 -0.0592
40107W        W83123  15.139  10.802   5.124  0.0857  0.0985  0.1963
40108W        W83124  31.822  20.184  28.829  0.1662 -0.1318 -0.0049
40109W        W83125  31.082  13.804  27.303  0.0800 -0.0356 -0.0854
40110W        W83126  23.751  23.265  19.595 -0.1778  0.0657  0.1205
40111W        W83127   2.629  19.411  24.822  0.0791  0.1378 -0.2585
40112W        W83128   9.475  12.752   1.764  0.4721 -0.3296  0.0288
40113W        W83129  22.430  22.031   3.555 -0.1770  0.1076  0.1061
40114W        W83130  32.735  13.778   4.177 -0.0266  0.0578 -0.2235
40115W        W83131   0.146  17.505  21.763  0.1797 -0.0875 -0.0726
40116W        W83132  31.405  17.578  26.198 -0.1317 -0.1105 -0.0638
40117W        W83133  25.932   6.269  24.573 -0.2189 -0.0564 -0.2429
40118W        W83134   2.119   1.323  15.914 -0.0753 -0.4710  0.0748
40119W        W83135  23.987  18.619   8.127 -0.1764  0.2696 -0.1733
40120W        W83136  11.383  33.879   1.396 -0.0287  0.0896  0.1005
40121W        W83137  19.333  30.290  29.291 -0.1850 -0.0147 -0.2448
40122W        W83138   4.448   8.165   6.037 -0.0275 -0.0086 -0.2398
40123W        W83139  22.901   6.897   3.499 -0.4842 -0.0618 -0.0356
40124W        W83140   7.716   8.992  24.415  0.0385  0.0748 -0.1294
40125W        W83141  13.640  15.812  26.205  0.1323  0.2158  0.0228
40126W        W83142   1.263  13.512  26.797  0.2875  0.0487 -0.1288
40127W        W83143  22.126  21.618  14.985 -0.0347  0.1966  0.3748
40128W        W83144  29.267  16.290  10.209  0.1056 -0.2502  0.3825
40129W        W83145  16.126   1.762  22.756  0.2588  0.2281  0.2767
40130W        W83146  11.024   3.055  20.912 -0.1092  0.1265 -0.0485
40131W        W83147  12.335  14.181  22.767  0.1727  0.1951  0.2967
40132W        W83148  24.454   4.708  27.225 -0.2064 -0.2967  0.1210
40133W        W83149  11.111   7.903  21.169  0.0750  0.1906  0.1728
40134W        W83150  15.846  16.575  27.782 -0.1565 -0.1797 -0.0357
40135W        W83151  27.598   7.066  18.120 -0.1180  0.2025 -0.2737
40136W        W83152  13.323   6.159  22.051  0.0857  0.0364 -0.0490
40137W        W83153  21.343  34.262  18.505  0.0649  0.2058 -0.1696
40138W        W83154   8.430  26.430   1.659  0.0071  0.0995 -0.0147
40139W        W83155  12.647  30.719  17.100 -0.1277  0.1620 -0.0295
40140W        W83156   2.830   5.177   4.805 -0.2205  0.0908 -0.0523
40141W        W83157   2.125  17.233  29.093  0.3162  0.0088 -0.1399
40142W        W83158  33.025  11.348  21.153 -0.2332  0.0137 -0.3911
40143W        W83159  14.769  14.971  25.824 -0.0584  0.1141  0.1205
40144W        W83160   6.391  12.499   9.176 -0.2220  0.0516  0.1919
40145W        W83161  11.121   9.979  19.596 -0.0568 -0.1323  0.4698
40146W        W83162  20.153   1.853   0.241  0.1528  0.0324 -0.1889
40147W        W83163   9.726  17.785  20.519 -0.2603  0.3374 -0.3234
40148W        W83164   9.531  17.968  24.833 -0.3010  0.2021 -0.1818
40149W        W83165  30.673  15.353  15.669 -0.0720 -0.1177  0.0948
40150W        W83166  34.499  14.901   4.610  0.0137  0.0352 -0.0686
40151W        W83167   9.648   9.049   6.978  0.0322  0.0149 -0.2232
40152W        W83168  31.138   5.493   3.129  0.0820 -0.0774 -0.0167
40153W        W83169  20.502  10.106  15.598  0.2010  0.3171  0.1348
40154W        W83170   7.728   7.823  21.701 -0.0878 -0.1832 -0.4445
40155W        W83171   1.749  26.254  19.959  0.3614 -0.5103 -0.0286
40156W        W83172   2.491   3.507   5.124 -0.0110 -0.0076 -0.2835
40157W        W83173   3.183   5.209   0.797  0.1799  0.2675 -0.1621
40158W        W83174   9.477   6.219  16.379  0.2193  0.0700 -0.0830
40159W        W83175   5.953  10.666   6.002 -0.3307 -0.2695  0.2420
40160W        W83176  33.616  23.268   3.103  0.2342  0.0070  0.1662
40161W        W83177  12.647  32.061  22.866  0.0081 -0.1445 -0.0066
40162W        W83178   4.275   3.492   9.953  0.1494  0.1908 -0.1706
40163W        W83179  10.013  12.144  22.882 -0.1416 -0.1243  0.2888
40164W        W83180   7.518   4.994  20.280  0.1190  0.5168  0.3076
40165W        W83181   1.619  14.297   0.228 -0.3063 -0.2405 -0.1100
40166W        W83182   7.922  34.127  19.520  0.1020  0.2965  0.0333
40167W        W83183   7.777   1.353  25.458 -0.2582  0.2099  0.0649
40168W        W83184  13.279  30.143  25.897  0.1550 -0.2177 -0.3100
40169W        W83185   3.997  12.264   2.656  0.0048  0.3901  0.3358
40170W        W83186  18.911  27.956   1.352 -0.2696  0.0578 -0.2204
40171W        W83187   8.485  22.718  26.044  0.0324  0.0726  0.0396
40172W        W83188   1.661   5.009  21.910  0.0545  0.1690 -0.0898
40173W        W83189  27.776  19.515  15.826  0.2591  0.2929 -0.1738
40174W        W83190  34.640  32.314  17.091  0.3737  0.0605 -0.1910
40175W        W83191  30.897   4.965  23.248 -0.0904  0.1654 -0.2735
40176W        W83192  32.390  22.745  25.197  0.2754 -0.0411  0.0346
40177W        W83193   9.707   3.627  16.174 -0.0581  0.0618 -0.0434
40178W        W83194  31.357   9.209  22.052 -0.1560 -0.3837 -0.2861
40179W        W83195   2.358  13.397   1.140  0.0674  0.0600 -0.3151
40180W        W83196  12.875  11.677  24.615  0.0779  0.2851  0.3124
40181W        W83197  12.943   2.895  18.961 -0.0791 -0.0396  0.1814
40182W        W83198  20.538  11.517   4.637 -0.1773  0.1650  0.1672
40183W        W83199  29.404   2.143   2.842 -0.0397  0.0856 -0.2312
40184W        W83200  14.529  26.348   8.638 -0.0340 -0.1685  0.2539
40185W        W83201  14.303  12.720  20.737  0.0976  0.0031 -0.1354
40186W        W83202  12.970  16.712   1.535  0.0290 -0.0310  0.1669
40187W        W83203  13.876  20.916  25.712  0.0154 -0.0259 -0.2183
40188W        W83204  18.512   4.356  24.450 -0.4406 -0.0530 -0.1660
40189W        W83205   9.659  13.714  12.844  0.2446  0.0052 -0.0134
40190W        W83206  17.447  26.106  27.342  0.0735 -0.4084 -0.1274
40191W        W83207   5.825  25.954  27.007  0.1768 -0.0414 -0.0891
40192W        W83208  22.187  20.780  15.686 -0.0850  0.0262  0.2455
40193W        W83209   7.545   1.878  16.313 -0.0226  0.1729  0.0093
40194W        W83210   8.198  16.881   3.880 -0.0228 -0.0193 -0.0644
40195W        W83211  14.575  10.362  20.918 -0.1844 -0.0959  0.0929
40196W        W83212  19.273  10.058  14.891  0.0200 -0.3008  0.0425
40197W        W83213  25.098   3.001  23.873  0.0984  0.1243  0.0428
40198W        W83214   1.036  15.043  22.999  0.2904  0.3937  0.1986
40199W        W83215   4.013   9.106  16.650  0.1238  0.0660 -0.4154
40200W        W83216  24.007  23.561   5.066 -0.0234 -0.0380 -0.1582
40201W        W83217   4.801   6.311  21.793 -0.0071  0.3823  0.2718
40202W        W83218  31.883  13.532   5.955  0.3746 -0.1573 -0.0566
40203W        W83219  33.577  30.222  19.366 -0.0847 -0.0774 -0.1993
40204W        W83220   3.703   5.363  17.252 -0.2837 -0.1008  0.2664
40205W        W83221  17.039  27.396   0.449  0.0116 -0.3445  0.1505
40206W        W83222   1.406   2.446  20.391  0.0346  0.0413  0.0216
40207W        W83223   8.862  19.424   2.179 -0.1007  0.2418  0.1236
40208W        W83224  14.741  29.956  20.823  0.2704  0.1338 -0.1049
40209W        W83225  19.445   4.223  15.286  0.1293  0.1483 -0.1045
40210W        W83226   3.888  15.936  18.062 -0.1112 -0.2858  0.2770
40211W        W83227   6.298  29.521  14.466 -0.3000  0.2396  0.1088
40212W        W83228   8.602   3.480  19.259 -0.2394 -0.2515  0.3286
40213W        W83229  11.245   5.093  20.873 -0.1142  0.1801  0.0461
40214W        W83230   3.960   4.075  17.460  0.2412  0.0841  0.0605
40215W        W83231  16.392  11.608  14.927  0.0448 -0.3110  0.3160
40216W        W83232  29.275  16.803  14.148 -0.1033 -0.1484 -0.0498
40217W        W83233  31.039   0.578  28.147  0.0705 -0.0681 -0.0842
40218W        W83234  10.706  26.956  16.882 -0.1473  0.0776 -0.2538
40219W        W83235   6.814   8.141  22.915 -0.1238  0.1489 -0.0139
40220W        W83236  10.970  14.522   5.831 -0.2752  0.0616 -0.2546
40221W        W83237  10.458  14.722  15.555 -0.0504 -0.1188  0.1554
40222W        W83238  33.129  16.869  23.818  0.1259 -0.0837 -0.0152
40223W        W83239   7.088   3.600   3.342  0.0728  0.1233 -0.1517
40224W        W83240  17.255  31.910  26.932 -0.1456  0.1695 -0.0098
40225W        W83241  13.266  12.073  18.434 -0.0062  0.0430  0.0157
40226W        W83242  32.840   7.968  20.811 -0.0847  0.0146 -0.0614
40227W        W83243  11.419  12.848  23.564  0.0733 -0.1131  0.0786
40228W        W83244  13.019   3.291  25.656  0.3527  0.1210  0.0803
40229W        W83245   3.439   2.640   3.514 -0.8239  0.1104 -0.0901
40230W        W83246  21.864  13.703  15.540  0.0400  0.0205  0.0737
40231W        W83247   3.200   9.762   2.110 -0.1651 -0.2003  0.0168
40232W        W83248   4.396  30.518  28.156 -0.2308 -0.1131 -0.0275
40233W        W83249  10.314   7.676   0.125  0.1401 -0.2851  0.1276
40234W        W83250  23.876  20.586  20.347  0.1735  0.1083 -0.0108
40235W        W83251  21.120  12.946  18.548 -0.0861  0.1500  0.1635
40236W        W83252   8.200   6.426  17.924 -0.0890 -0.0473 -0.1559
40237W        W83253  16.725  18.725  21.592  0.1435 -0.0554 -0.1233
40238W        W83254  28.203  11.951   4.311 -0.0901  0.0610 -0.3457
40239W        W83255  16.710   1.440  20.614  0.3676 -0.0466 -0.0217
40240W        W83256  12.059  32.612   3.748 -0.0833  0.5888 -0.0395
40241W        W83257  34.303   2.823   5.351 -0.3569  0.0784  0.1759
40242W        W83258  11.677  11.378  15.769 -0.1472 -0.0139  0.0063
40243W        W83259  18.497  25.525   4.347 -0.1902 -0.0500  0.1787
40244W        W83260  14.196  16.305  22.635  0.1350 -0.1629  0.0703
40245W        W83261  16.698   9.745  23.863 -0.1716  0.2547  0.1847
40246W        W83262   0.238  17.331  22.798 -0.2278  0.2228 -0.1954
40247W        W83263  12.978  14.135  15.284 -0.1450  0.2975  0.1161
40248W        W83264  33.291  31.939  21.470 -0.0545 -0.1186  0.3181
40249W        W83265   4.018  16.161   4.251 -0.3878  0.0889  0.2595
40250W        W83266  17.370  11.436  21.884  0.2305  0.0604 -0.3388
40251W        W83267  13.829   3.254   9.308 -0.1857  0.0399 -0.2541
40252W        W83268  20.077  16.824  14.546 -0.1256  0.1870 -0.4997
40253W        W83269  15.911  17.831  17.794 -0.1032 -0.0741 -0.1489
40254W        W83270   7.544  14.961  17.608  0.0765  0.1263 -0.1893
40255W        W83271  22.467  11.094  19.971 -0.1120 -0.0057 -0.0426
40256W        W83272   7.851  20.216  19.573  0.0319  0.2808 -0.0207
40257W        W83273  19.439  13.774  20.316  0.1897  0.1588 -0.0033
40258W        W83274  12.746  20.258   7.749 -0.2138  0.1683 -0.0481
40259W        W83275  16.387  29.117   8.102  0.2307 -0.1701 -0.1739
40260W        W83276  11.762  19.370   3.659  0.0102 -0.0473 -0.1212
40261W        W83277  17.192  14.261   4.095  0.2922 -0.2339 -0.0288
40262W        W83278  13.328   7.489   8.763  0.0131  0.1613  0.0323
40263W        W83279  30.309   6.259  15.086  0.0404 -0.0637 -0.0304
40264W        W83280  14.522  26.984  25.939 -0.0864  0.1463 -0.0121
40265W        W83281   3.019  11.985   9.404  0.2857  0.1867  0.0190
40266W        W83282  15.270   5.485  16.114 -0.1433 -0.0569 -0.2939
40267W        W83283  17.399   9.840  24.547  0.2233 -0.1256  0.2996
40268W        W83284   1.528   8.070  27.004 -0.0204 -0.0653 -0.0084
40269W        W83285  31.405  13.667  22.937  0.5712 -0.0017  0.1240
40270W        W83286  17.654   7.913  15.951  0.1307 -0.0464 -0.0181
40271W        W83287   6.823  22.953   9.100  0.0128 -0.3924 -0.0886
40272W        W83288  13.735  31.575  21.925  0.2842 -0.1656  0.1947
40273W        W83289  22.062   9.608  17.233 -0.2341 -0.2704  0.0816
40274W        W83290  12.354   8.582   1.378  0.0300  0.1544  0.0868
40275W        W83291  20.687  19.379   8.168 -0.1166  0.1454 -0.0225
40276W        W83292  26.643  32.320  26.507  0.1188  0.0785 -0.0771
40277W        W83293  21.527  16.861  26.670 -0.0624  0.1254  0.0107
40278W        W83294  26.578   1.325  23.916 -0.0657 -0.1678  0.0194
40279W        W83295   1.710  17.230  15.932  0.0232  0.1951 -0.1604
40280W        W83296   6.410  13.421   5.408  0.0457  0.2739 -0.2417
40281W        W83297  27.177  32.441  16.022 -0.0151 -0.1277 -0.1225
40282W        W83298  32.247   1.938   1.142  0.2312 -0.1676  0.1888
40283W        W83299  17.023  27.600   8.577 -0.0300 -0.0655 -0.0008
40284W        W83300   9.165   1.834  16.811 -0.1588 -0.0182 -0.1379
40285W        W83301   2.344  23.175  16.872 -0.2690  0.1634  0.3091
40286W        W83302   0.187  15.061  10.494 -0.0273 -0.2192  0.2493
40287W        W83303   5.282  31.708  24.585  0.0439  0.1739 -0.0500
40288W        W83304  21.431   5.917   7.562 -0.0646 -0.0042 -0.1776
40289W        W83305  28.926  14.918   7.794 -0.0190  0.3183 -0.2060
40290W        W83306   4.322  12.094  21.241 -0.1501 -0.1626 -0.3828
40291W        W83307   7.996  16.855  25.522  0.2239  0.0454  0.1919
40292W        W83308  18.429  24.234  17.971 -0.1255 -0.0411 -0.0367
40293W        W83309  33.022  18.627   1.138  0.0695  0.1195  0.0953
40294W        W83310  17.819  10.205   6.141  0.1880  0.1434 -0.2117
40295W        W83311  13.354   6.180  21.521 -0.0819  0.4676  0.1088
40296W        W83312  31.648  16.998  16.882  0.2607 -0.1016 -0.1583
40297W        W83313   5.294  33.503   7.119 -0.1654 -0.2052  0.2398
40298W        W83314  13.814  10.014   7.947 -0.0824  0.3959 -0.1754
40299W        W83315  19.032  18.954  13.363 -0.3445  0.2246 -0.3863
40300W        W83316  11.993  18.976  26.783  0.1029  0.1190  0.2018
40301W        W83317  17.471  18.773   0.399 -0.0411 -0.0558 -0.0656
40302W        W83318  16.426  10.731  20.028 -0.1497 -0.1240 -0.0187
40303W        W83319  14.083  33.345  24.066  0.1166 -0.0606 -0.3374
40304W        W83320  11.465  34.354  19.496  0.4067  0.1683  0.0322
40305W        W83321   9.198   0.080   3.866  0.2953 -0.0206 -0.2257
40306W        W83322   7.982   1.627  23.133  0.0155 -0.1684 -0.3234
40307W        W83323  10.787  31.150   1.363  0.2876 -0.0745  0.1942
40308W        W83324  11.641  13.000   0.261 -0.0608  0.1742  0.1077
40309W        W83325  13.730  15.348  14.460  0.1226  0.0202  0.1862
40310W        W83326   0.024  23.143  17.542  0.1566  0.3338 -0.2144
40311W        W83327   4.969  29.677   3.433  0.1508 -0.1008 -0.1842
40312W        W83328   6.165   9.082  22.647 -0.2183  0.0670  0.4077
40313W        W83329  31.868   3.360  27.127 -0.1327  0.1757  0.0301
40314W        W83330   2.625  32.811  20.491  0.2226  0.4252  0.1054
40315W        W83331  15.069  20.081   6.473  0.3101  0.2223  0.0413
40316W        W83332   9.796  18.307  23.905  0.1408 -0.1457 -0.0452
40317W        W83333  26.450   7.287   3.121 -0.3267 -0.2846 -0.1547
40318W        W83334  27.305  10.708  18.277 -0.0190  0.0913  0.3845
40319W        W83335  14.894   7.305  22.872  0.0239  0.0350 -0.1404
40320W        W83336   7.404  17.144  19.656  0.1381 -0.4114 -0.2044
40321W        W83337  23.948   1.179   3.906 -0.0380  0.3970 -0.1807
40322W        W83338  26.632  25.538  19.017 -0.1657 -0.0347 -0.0829
40323W        W83339  20.373  14.629   0.567  0.0458 -0.1772 -0.1398
40324W        W83340  10.571   9.423   6.659 -0.1823 -0.0996  0.0268
40325W        W83341   8.641  21.875  21.499  0.2791  0.4494  0.0277
40326W        W83342  18.770   3.398   1.599  0.1438 -0.1249  0.0485
40327W        W83343   7.181   6.009  24.927  0.1387  0.0495 -0.0234
40328W        W83344   6.839  19.153  17.594 -0.3227 -0.2217 -0.1317
40329W        W83345   8.124  13.885  24.616  0.0096  0.1071  0.2026
40330W        W83346  23.857  10.787   6.363 -0.1111 -0.2534  0.0029
40331W        W83347   7.688   5.479  25.805 -0.1801 -0.2273  0.1229
40332W        W83348  24.895  11.780   5.927 -0.1224  0.0423  0.1529
40333W        W83349   1.524   9.877  25.058 -0.1164 -0.2073  0.2117
40334W        W83350  15.217   6.455  17.545  0.0947 -0.1463 -0.0603
40335W        W83351  33.784   8.025  26.272 -0.0403  0.2587 -0.0449
40336W        W83352  12.895  14.618  11.813 -0.0350  0.1518 -0.1482
40337W        W83353  11.230   5.877   2.247 -0.1518 -0.1527 -0.0378
40338W        W83354   9.986   3.581  19.291  0.1356 -0.1211  0.0111
40339W        W83355  15.329   5.292  22.936  0.1976  0.5424 -0.1662
40340W        W83356   3.245  12.093  27.500  0.0838 -0.2952  0.1844
40341W        W83357  10.883  16.281   7.081  0.1228  0.1102  0.0918
40342W        W83358   6.338  12.938  17.478 -0.3281  0.2009  0.1468
40343W        W83359   8.506   9.526  26.859  0.0941  0.0400  0.0579
40344W        W83360   6.145   8.462   3.774 -0.0290 -0.1849 -0.2833
40345W        W83361   8.234  19.816   1.457  0.0956 -0.0419 -0.0295
40346W        W83362   9.156  15.570   5.204  0.0437  0.3558 -0.4497
40347W        W83363  26.774  14.810  21.952  0.0642 -0.2307  0.3208
40348W        W83364   8.256   5.808  29.026  0.3882  0.0001  0.1915
40349W        W83365  11.775  30.562   1.621 -0.0619 -0.2405 -0.0383
40350W        W83366  28.379  15.240   0.937 -0.2923  0.1420 -0.2674
40351W        W83367  13.256  23.563   3.596  0.1589  0.1766 -0.1071
40352W        W83368   7.217   5.592  20.347 -0.0701 -0.2102  0.0361
40353W        W83369  15.386  11.783   1.416  0.0585 -0.3808 -0.2083
40354W        W83370   6.565  21.017   5.322 -0.0589 -0.1521 -0.1253
40355W        W83371  10.942   9.012  17.939  0.0845 -0.0944 -0.1498
40356W        W83372   1.716  14.728  22.800 -0.2913 -0.3325  0.2062
40357W        W83373  33.487  30.750   7.037  0.2009  0.0386 -0.0531
40358W        W83374   4.207   8.341   0.770 -0.1266  0.1084  0.3853
40359W        W83375  18.016  33.206  15.059 -0.2461  0.1982  0.2910
40360W        W83376  17.889   2.153  24.857  0.0886 -0.1465 -0.1446
40361W        W83377   9.797  13.441   1.703 -0.3849 -0.2315 -0.1136
40362W        W83378  12.808  10.678   4.414  0.0740 -0.1237 -0.0198
40363W        W83379  18.289  32.028  28.769 -0.1842 -0.2223  0.0759
40364W        W83380  24.669  26.020  17.800 -0.2240 -0.0669  0.2237
40365W        W83381   7.287   4.444   9.914  0.1142 -0.0929 -0.1047
40366W        W83382   0.825   7.623   3.411 -0.0436 -0.4873  0.0870
40367W        W83383  15.614  22.436  22.723 -0.0526  0.0558 -0.1200
40368W        W83384  10.694  30.325  16.789  0.0205  0.1688  0.0281
40369W        W83385  11.835   7.610  19.274  0.1609 -0.0480 -0.1264
40370W        W83386  14.731  15.692  13.977  0.1962  0.1074  0.3130
40371W        W83387  15.564  16.250  27.532  0.1889 -0.1051 -0.1640
40372W        W83388   2.366   5.057   0.791 -0.2293  0.2614  0.1091
40373W        W83389   5.160   9.800   3.922  0.0014  0.2974 -0.0591
40374W        W83390  12.935  14.279  21.855 -0.0503  0.1153  0.3125
40375W        W83391  19.806   8.220   7.759  0.0798  0.0100 -0.3870
40376W        W83392   6.216  33.609   6.707  0.1188 -0.1117 -0.0027
40377W        W83393   6.629  15.673  16.253  0.3057  0.3432  0.1565
40378W        W83394  17.840   9.674  15.800  0.1208  0.3202  0.2302
40379W        W83395  14.161  12.940  24.234  0.3158  0.1625  0.0480
40380W        W83396   0.525  13.077  15.209  0.1996 -0.1015 -0.3462
40381W        W83397  10.235  33.713  15.988 -0.0847 -0.2910  0.1784
40382W        W83398   7.109  28.456   2.874 -0.1630  0.1629 -0.1785
40383W        W83399  12.928   3.781  17.234  0.0081  0.0946 -0.2328
40384W        W83400   6.844  12.469   4.229  0.1585 -0.1369  0.0534
40385W        W83401   7.314   6.600   1.517  0.0430 -0.1147  0.0215
40386W        W83402   5.688  23.004   2.833 -0.1685 -0.2229  0.0099
40387W        W83403  18.386  24.266   4.218 -0.3008 -0.2636  0.0454
40388W        W83404   5.365  23.645   2.536  0.0681 -0.1827  0.4073
40389W        W83405  32.443   8.439  24.474 -0.1802  0.2402 -0.1255
40390W        W83406   1.690  15.603  24.052  0.0393  0.4387  0.0343
40391W        W83407  31.746   9.346  16.930  0.0076 -0.0380 -0.0501
40392W        W83408   3.229  18.667  20.041 -0.2881 -0.2767 -0.0315
40393W        W83409   5.767  25.161  21.848 -0.0127  0.1470 -0.0111
40394W        W83410   8.732  27.760  14.900  0.1452  0.1075  0.0445
40395W        W83411  13.484  10.159  20.450  0.0407  0.2391  0.1547
40396W        W83412   4.237  15.322  25.832  0.3499  0.1572 -0.0242
40397W        W83413   3.633  13.997  24.793 -0.4028  0.0733 -0.0725
40398W        W83414  21.618   4.448  22.438  0.2918  0.0932  0.1177
40399W        W83415  29.324  12.500  29.079  0.0972 -0.0109 -0.4051
40400W        W83416   7.543  21.141  16.078  0.0426  0.1792  0.2729
40401W        W83417  12.849   8.094  21.926  0.0707 -0.1462  0.0103
40402W        W83418  20.005  26.410  26.535 -0.0407 -0.1852 -0.0830
40403W        W83419  18.537   1.593  25.091  0.0762  0.1187 -0.1964
40404W        W83420   4.710  11.896   1.356  0.1215  0.0275 -0.1064
40405W        W83421  14.859  23.111  25.725 -0.0068  0.4889 -0.1472
40406W        W83422   0.829  15.454  24.208  0.2035  0.1011 -0.0037
40407W        W83423   2.908   8.711  24.342 -0.0295 -0.1814  0.0385
40408W        W83424  33.198  32.218  14.652 -0.2861  0.1121  0.0167
40409W        W83425  20.906  20.233  24.686 -0.1179  0.0839 -0.0563
40410W        W83426  17.581  25.606  16.836  0.3764  0.0156  0.0829
40411W        W83427  12.449  20.205  23.277 -0.1211  0.1170 -0.5706
40412W        W83428  20.667  24.368  18.233 -0.2070 -0.2546  0.1697
40413W        W83429  15.962   9.154   9.523 -0.0557 -0.0665  0.0689
40414W        W83430   8.021  13.923  18.632 -0.2254  0.2447  0.1035
40415W        W83431  18.482   8.655  15.235  0.0602  0.1322  0.0619
40416W        W83432  34.460  20.444  26.723  0.2094 -0.0622  0.0701
40417W        W83433   8.705   0.089  19.684 -0.0029  0.1518  0.1465
40418W        W83434  10.412   8.466   9.573 -0.0703 -0.1380 -0.2220
40419W        W83435  15.032  13.858  19.178 -0.0873 -0.2148  0.1496
40420W        W83436   4.623   9.262  15.472  0.3347  0.0817 -0.2103
40421W        W83437  31.144  13.349  24.390 -0.0613  0.1311 -0.0014
40422W        W83438   3.780   9.282  19.736  0.1368 -0.3458 -0.2715
40423W        W83439  23.123   2.860  15.781 -0.0671 -0.1910 -0.1596
40424W        W83440  19.665  29.355  21.276  0.0586 -0.0796 -0.1609
40425W        W83441   8.278  22.829  28.141  0.1791 -0.3105  0.1139
40426W        W83442  17.508   3.028   3.253  0.0608  0.1031  0.1061
40427W        W83443   2.598   2.464  25.884 -0.2940 -0.0520 -0.1174
40428W        W83444   3.936  10.615  20.810  0.1436 -0.2489 -0.1818
40429W        W83445   7.821   1.732   7.549 -0.0349 -0.0663 -0.1310
40430W        W83446  32.650   8.206  28.146  0.1526  0.1288  0.1703
40431W        W83447   8.169   8.450  15.450 -0.2043 -0.0843  0.0695
40432W        W83448   1.676  31.851  18.968 -0.0613 -0.0439 -0.0805
40433W        W83449   8.374   1.039  28.782 -0.0127  0.2598 -0.1297
40434W        W83450   9.934  34.075   1.083  0.0663 -0.0812 -0.0124
40435W        W83451   6.360  15.574  29.145 -0.0466  0.0951  0.0928
40436W        W83452   5.975  13.238   0.743 -0.3387 -0.0151 -0.0416
40437W        W83453   1.799  33.037  21.732  0.2959 -0.1766  0.1164
40438W        W83454   3.936  18.708  14.877 -0.0402 -0.0917  0.2073
40439W        W83455   8.498   9.654   0.340 -0.2948  0.1459 -0.2174
40440W        W83456  22.391  16.883  23.946 -0.1235  0.0206  0.2303
40441W        W83457   6.128   1.594   0.045 -0.0626  0.3412  0.3809
40442W        W83458   9.806   5.584  17.665  0.0150 -0.1188 -0.0524
40443W        W83459  12.844  10.011  18.980 -0.0932  0.0071  0.1002
40444W        W83460  12.365   8.624  25.524  0.1525 -0.2945  0.4495
40445W        W83461  19.995  18.351  14.475  0.0141  0.0277 -0.2783
40446W        W83462  14.296  26.277  22.307 -0.3759 -0.0275 -0.1995
40447W        W83463  14.065  12.766   1.927 -0.1739 -0.3631  0.1822
40448W        W83464  16.714  20.166  20.802 -0.0851 -0.0185 -0.3749
40449W        W83465  19.532   1.736   8.558 -0.2080 -0.2504  0.0909
40450W        W83466   1.024  19.804  15.787  0.1972  0.1080  0.1632
40451W        W83467   7.224  22.884  16.696 -0.2872 -0.3060 -0.0321
40452W        W83468  25.655  11.832  17.042  0.2154  0.2860  0.1172
40453W        W83469  22.056   4.912  10.400 -0.0930  0.0404 -0.1816
40454W        W83470  10.277   9.867   6.701  0.1674  0.0541 -0.1756
40455W        W83471   8.738   3.138   8.709 -0.0207  0.1030  0.1874
40456W        W83472   8.171  17.041  23.048 -0.0924  0.1089 -0.1132
40457W        W83473  28.465   6.172   3.005  0.0184  0.1558 -0.1179
40458W        W83474   8.150   9.460  14.195 -0.2088 -0.0424  0.3669
40459W        W83475  14.497   5.979  13.364  0.0323 -0.0064 -0.0182
40460W        W83476   1.084   3.215   1.783 -0.1070 -0.0862 -0.1362
40461W        W83477  32.242  31.233  16.206  0.0359  0.3883  0.2914
40462W        W83478  34.593  16.727  18.763  0.0481 -0.2498 -0.1156
40463W        W83479  13.630   4.007  22.439 -0.0552 -0.1114  0.7236
40464W        W83480  26.500   1.171   4.065 -0.1812 -0.0917  0.1184
40465W        W83481   3.342  34.587  24.097  0.1144 -0.0844 -0.0410
40466W        W83482  14.719  11.694  12.646  0.0270  0.1178  0.0489
40467W        W83483  19.551  24.350  25.059  0.0192  0.1248 -0.0418
40468W        W83484  16.521   2.253  26.777 -0.3467  0.4026  0.2042
40469W        W83485  24.993   7.792  17.751  0.0271  0.0397 -0.1460
40470W        W83486  17.072   9.236   2.749  0.1656  0.2432 -0.2801
40471W        W83487  29.217   5.530  27.099 -0.0291 -0.0923  0.4766
40472W        W83488  26.577   9.195   8.268 -0.1633  0.0473 -0.0733
40473W        W83489  13.903  17.820   2.563  0.0656 -0.1664 -0.1279
40474W        W83490  32.398   2.384  27.918 -0.0671 -0.1531 -0.0968
40475W        W83491   7.871  23.481   4.585  0.3347  0.2450  0.2373
40476W        W83492  12.462  21.463  13.742  0.0174  0.3094  0.1641
40477W        W83493   4.599  24.305  18.089  0.0884 -0.2497  0.2187
40478W        W83494   9.329  16.494  20.476 -0.1353  0.1238 -0.1237
40479W        W83495   4.432   6.928  15.267 -0.0750 -0.2409  0.2617
40480W        W83496  16.751   9.115  22.729 -0.0354 -0.2565 -0.1015
40481W        W83497  18.541  34.117  21.017 -0.0296 -0.2967 -0.0175
40482W        W83498  30.916  15.719  26.450 -0.4465  0.0645 -0.0807
40483W        W83499  17.042  10.087  23.776 -0.1964  0.2381  0.1817
40484W        W83500  11.645  19.132  21.076  0.1409 -0.0821 -0.2958
40485W        W83501  12.902  31.457   0.536 -0.1244  0.0128 -0.2484
40486W        W83502  31.031  14.176   0.688  0.2054 -0.1002  0.3373
40487W        W83503  23.639  11.009  26.805  0.1514 -0.1139  0.1325
40488W        W83504   3.479  26.745   9.201 -0.0956 -0.2979  0.2632
40489W        W83505   2.666  11.684  20.635  0.0945 -0.0290 -0.0097
40490W        W83506  24.212  16.987   9.808  0.0804 -0.0493 -0.1238
40491W        W83507   3.350  33.696  26.929  0.1668 -0.3325  0.0010
40492W        W83508  16.683  14.031  21.295 -0.2754 -0.1910 -0.0078
40493W        W83509   6.739   8.126   2.898 -0.0168  0.1043 -0.0968
40494W        W83510   5.521  26.811  28.829  0.2486  0.0322  0.0176
40495W        W83511  25.948  24.803  21.755 -0.2936  0.0643  0.0144
40496W        W83512   5.397   0.512   8.018  0.2358  0.1955  0.2218
40497W        W83513  29.853   7.934  10.498  0.3725 -0.0516 -0.0065
40498W        W83514  15.286  14.721  21.782 -0.2422  0.2374  0.0799
40499W        W83515  30.744  25.261  10.467 -0.2096 -0.0451 -0.0516
40500W        W83516  23.345   1.984  11.490  0.2086  0.0427 -0.0021
40501W        W83517  18.237  10.217   6.825  0.0068 -0.0774  0.2780
40502W        W83518  18.353  16.857   6.843 -0.0087  0.0756  0.0008
40503W        W83519   9.836  15.204  24.956 -0.3698  0.0309 -0.4944
40504W        W83520   9.372  14.941   0.373  0.0336 -0.2347 -0.1868
40505W        W83521  23.130   5.284   6.631 -0.1700 -0.0217  0.2718
40506W        W83522  23.422   3.534  22.438  0.0001 -0.1044  0.0878
40507W        W83523  13.437  28.058  19.068 -0.0883 -0.1495  0.1920
40508W        W83524  30.492  16.124   3.521 -0.1694 -0.2654  0.1338
40509W        W83525  10.200  13.594  28.434  0.0571 -0.0844  0.4361
40510W        W83526   5.800  13.769   8.995 -0.2331 -0.1078  0.3950
40511W        W83527  34.312  26.417  20.679 -0.3499 -0.0398  0.2302
40512W        W83528   7.030   0.562  26.453  0.0253  0.0859  0.1776
40513W        W83529  32.620  16.285  21.738  0.4038  0.0334 -0.0486
40514W        W83530  14.361  21.462  14.066 -0.1911 -0.1594 -0.2224
40515W        W83531   8.553   2.281   8.826  0.0669 -0.0337  0.0748
40516W        W83532  11.077  15.993  23.238  0.3592  0.0380 -0.2451
40517W        W83533  14.260   8.889   6.302 -0.3124  0.0857 -0.1663
40518W        W83534  33.568   3.852  24.054 -0.0390  0.0477 -0.2733
40519W        W83535  29.036   6.559   9.710  0.1726  0.3187 -0.4386
40520W        W83536   5.268   7.543  26.749  0.3783  0.1032 -0.0940
40521W        W83537   4.921  17.995  23.104  0.0627  0.1561 -0.0674
40522W        W83538   9.524  10.096  17.062 -0.1040  0.3243  0.1862
40523W        W83539   9.709  31.302  18.528 -0.0031  0.2042 -0.1504
40524W        W83540  13.961   6.649   6.606 -0.0658 -0.0939 -0.1142
40525W        W83541  12.861  34.005   3.102 -0.0095 -0.0882 -0.1352
40526W        W83542  28.439  19.813   8.974  0.4154 -0.1601  0.1685
40527W        W83543  15.011  34.416   4.206  0.2421  0.0492 -0.1440
40528W        W83544  33.189  23.727   4.223  0.2764  0.2455  0.0928
40529W        W83545  10.690   7.007  28.322 -0.1185 -0.1225 -0.0034
40530W        W83546  12.756  13.713  25.416  0.1569 -0.3311  0.0130
40531W        W83547  13.281  11.256  22.747  0.1439 -0.1658  0.1891
40532W        W83548   6.071  28.505   4.556  0.0276 -0.2592 -0.2783
40533W        W83549  14.856   6.817  21.945  0.3219 -0.0399  0.0684
40534W        W83550  12.424   4.291  28.243  0.0025  0.0251  0.0166
40535W        W83551  19.909   7.633   3.959 -0.0726  0.0530 -0.4606
40536W        W83552   6.042   6.916  28.820  0.2538 -0.0147  0.0191
40537W        W83553  16.131   7.347   7.397 -0.2137 -0.1407 -0.0039
40538W        W83554   7.693  29.031  20.621  0.0888 -0.0191 -0.2651
40539W        W83555  11.931   4.887  22.823  0.1556  0.0009 -0.0492
40540W        W83556  11.312   3.404  25.985  0.0605  0.2258  0.0688
40541W        W83557  30.197   7.788   1.483  0.3174 -0.0869 -0.1914
40542W        W83558  29.958  16.651  23.633 -0.0977 -0.0961 -0.0093
40543W        W83559  13.102  26.923  21.947 -0.1345  0.1135 -0.2335
40544W        W83560  12.526  20.054  15.893  0.0412  0.0961  0.1475
40545W        W83561   5.678  33.911  10.177  0.2035 -0.1383 -0.2909
40546W        W83562   1.894  18.928  10.450 -0.1095 -0.0293 -0.1424
40547W        W83563  30.710  24.036  18.289  0.0440 -0.0965 -0.3505
40548W        W83564  10.840  32.573  16.469 -0.1536  0.1073  0.2419
40549W        W83565  12.119   9.969  20.470 -0.0444 -0.0758  0.1219
40550W        W83566  33.537   3.199  23.290  0.0416  0.3539 -0.3170
40551W        W83567  12.166  15.199  28.301 -0.0566 -0.1666 -0.0641
40552W        W83568  12.163   5.441  19.092 -0.0106  0.1112 -0.1823
40553W        W83569  18.721   9.196  22.912  0.0549 -0.0398 -0.0617
40554W        W83570  28.663  10.454  29.053 -0.1996  0.1618 -0.1357
40555W        W83571  22.582   1.953  28.614 -0.2666 -0.1671 -0.0891
40556W        W83572  18.431  12.183  17.245  0.1031 -0.1904 -0.0663
40557W        W83573  27.996  15.140  22.805 -0.3777 -0.1194 -0.3450
40558W        W83574  17.199  14.568  26.364 -0.0024 -0.0187 -0.0211
40559W        W83575   1.154   5.650  21.726  0.3556  0.1196  0.0148
40560W        W83576   7.176  17.174  29.009 -0.4577 -0.4646 -0.1204
40561W        W83577  20.655   0.867  24.246 -0.0232 -0.2817  0.1332
40562W        W83578   4.287  34.724  28.833  0.0189  0.1710 -0.2502
40563W        W83579   9.396   1.545   7.691 -0.1251  0.2309 -0.0428
40564W        W83580  17.238   9.757  28.958  0.1957  0.0701  0.3271
40565W        W83581   9.430   0.219   8.769 -0.4828 -0.0381  0.1067
40566W        W83582  14.339   8.134  15.888 -0.1035 -0.2664  0.0851
40567W        W83583   6.586   0.582  23.117  0.0138 -0.0326  0.0054
40568W        W83584   6.696  15.911   2.372 -0.0033  0.0638  0.2072
40569W        W83585  14.238  10.472  23.636 -0.1136  0.2589 -0.2863
40570W        W83586  34.196   8.260   2.026  0.1127 -0.2359  0.3454
40571W        W83587  19.750   1.299  28.010  0.0263 -0.1206 -0.1544
40572W        W83588  23.806   8.262   5.823  0.1424 -0.1133 -0.1214
40573W        W83589  19.336  10.935  23.708 -0.0824  0.3724 -0.2154
40574W        W83590   7.890  28.428   2.801 -0.1935  0.1605 -0.0218
40575W        W83591   0.062   1.033  25.683  0.1155  0.0472  0.3539
40576W        W83592  15.169  16.487  23.241 -0.0373  0.0635 -0.0163
40577W        W83593  15.464   5.982   8.903 -0.1170 -0.0586 -0.0878
40578W        W83594  24.611  13.736  19.725 -0.1103 -0.2131  0.0739
40579W        W83595  25.445   9.655  17.090  0.2272 -0.0560  0.0764
40580W        W83596  20.288  19.116  27.169 -0.0657  0.1001 -0.2803
40581W        W83597   3.125  17.375  22.082 -0.0672  0.0090  0.0092
40582W        W83598  13.853  13.872  20.000  0.1988 -0.1363 -0.1952
40583W        W83599  18.408  12.995  29.244  0.1054 -0.0748  0.3421
40584W        W83600  24.676  16.640   2.360 -0.1316  0.0273  0.1201
40585W        W83601  33.622  23.902  17.049  0.0146  0.0614 -0.0045
40586W        W83602  11.509   7.955   3.112  0.1813 -0.0166  0.2073
40587W        W83603  22.830  14.480  24.629 -0.0767 -0.0970  0.1952
40588W        W83604  34.430   6.785  18.056 -0.1341  0.0477 -0.1713
40589W        W83605  15.493  25.167   1.342 -0.1979  0.1159  0.1462
40590W        W83606  28.679  16.214  18.959  0.0186  0.2554  0.2278
40591W        W83607   3.201   1.431   2.104 -0.3970 -0.0160  0.3642
40592W        W83608  17.913  32.145  10.504 -0.2030 -0.2654  0.2379
40593W        W83609   8.022  10.668   0.156  0.1666 -0.1890 -0.1585
40594W        W83610  26.339  32.208  24.183  0.0857  0.0401  0.2735
40595W        W83611   9.695  10.385   1.726 -0.0536 -0.0194  0.2547
40596W        W83612  12.242  18.300   7.145  0.0657  0.0926 -0.3050
40597W        W83613  18.857   9.896   2.636  0.2685 -0.0767  0.0214
40598W        W83614   4.048  22.147   5.007  0.4675  0.1489 -0.0116
40599W        W83615   8.121  11.342   1.045  0.2746 -0.0978  0.1769
40600W        W83616  18.160  12.337  13.268  0.1023  0.1102  0.1903
40601W        W83617  11.379   0.958  21.434 -0.2955 -0.1180 -0.3872
40602W        W83618   2.143  22.720   6.670 -0.0901  0.2084 -0.1254
40603W        W83619  32.396   8.653   7.318  0.0542  0.1510  0.0967
40604W        W83620   1.601  12.544   1.443 -0.2671  0.0229  0.0150
40605W        W83621  10.048  16.126   3.467 -0.1993  0.0560  0.0927
40606W        W83622   7.385   8.110   2.104 -0.2129  0.3459 -0.0168
40607W        W83623   6.858  15.751  24.919 -0.4896  0.1123  0.1482
40608W        W83624  24.871  17.792   4.077  0.0414 -0.0663  0.2276
40609W        W83625  25.364  25.470  16.225  0.0863 -0.1211  0.2389
40610W        W83626  34.577  10.855  15.121 -0.1331 -0.1839 -0.1347
40611W        W83627  12.828  33.437   4.489  0.0736 -0.0446 -0.0154
40612W        W83628   6.126   8.348  27.102  0.0788 -0.3176 -0.3317
40613W        W83629   8.574  12.925  24.232 -0.1848  0.0530  0.2004
40614W        W83630  15.131  10.628  24.828  0.0082  0.2155 -0.0413
40615W        W83631  14.644   3.141  16.196 -0.1537 -0.0648  0.0620
40616W        W83632   1.999   2.905  25.206  0.4107 -0.2025 -0.4112
40617W        W83633  11.226  11.986  14.664 -0.2055  0.0205 -0.1162
40618W        W83634  23.922  17.616  26.549  0.2213  0.2570  0.3489
40619W        W83635  12.798  14.964  18.756  0.2590 -0.1809 -0.1299
40620W        W83636  10.251  11.566  15.961 -0.1312  0.1644  0.0517
40621W        W83637  21.777  20.653  15.395  0.1635  0.0328  0.0205
40622W        W83638  15.909  11.779  19.568 -0.0735  0.0668 -0.1829
40623W        W83639  13.738  27.944  22.796  0.1427 -0.2987 -0.2745
40624W        W83640  11.427  22.626  19.703  0.2505  0.1148  0.0488
40625W        W83641   6.613  33.733   7.653 -0.1472  0.1455  0.0638
40626W        W83642  24.579   1.774  15.765 -0.3053 -0.0493 -0.0466
40627W        W83643  16.079   2.839  17.178 -0.0107  0.2365 -0.3459
40628W        W83644  20.152  16.775  22.654  0.3634  0.1145  0.0224
40629W        W83645  11.398  23.482  23.737 -0.3408  0.1436  0.0004
40630W        W83646  12.287   5.712  27.300 -0.0219 -0.0763  0.0205
40631W        W83647  26.950   0.631  19.711 -0.1422  0.0680  0.1927
40632W        W83648  28.083  25.896  10.962 -0.1992 -0.1659 -0.2963
40633W        W83649  30.304  33.868  23.991 -0.1821  0.0273  0.1974
40634W        W83650  15.485  10.427   1.543 -0.0977  0.0084 -0.2074
40635W        W83651   0.315  12.165   5.407  0.1707  0.3534  0.0396
40636W        W83652  23.971   2.850  20.868  0.2606 -0.2862  0.0373
40637W        W83653  11.053  11.015   0.456 -0.2494 -0.0963 -0.1958
40638W        W83654   9.424  34.304  26.508 -0.0813 -0.0852 -0.0802
40639W        W83655   4.612  20.580  21.332  0.2529 -0.2597  0.0586
40640W        W83656   8.583  15.953  16.547 -0.0841 -0.0276 -0.0078
40641W        W83657  14.628  13.480   2.519 -0.2296  0.1549  0.2135
40642W        W83658  33.299  11.499  28.670  0.1420 -0.1422 -0.3002
40643W        W83659   9.550  27.586   9.010  0.0265  0.1033 -0.0151
40644W        W83660  24.554  33.618  24.673 -0.2647  0.0020 -0.1751
40645W        W83661  11.053   1.090   4.343  0.0226  0.1877  0.0607
40646W        W83662   9.041  16.976  16.845 -0.1769 -0.0778 -0.2340
40647W        W83663  20.218  21.827   6.736  0.2499 -0.2269  0.0730
40648W        W83664  25.748   3.389   1.509  0.1527  0.2772 -0.1120
40649W        W83665  21.052   4.579   3.934  0.0919 -0.1678  0.1461
40650W        W83666  11.073  13.000  23.145 -0.0985  0.2619 -0.0065
40651W        W83667   7.872   6.281  20.034 -0.0676  0.0441  0.0353
40652W        W83668  15.819   6.273  21.041 -0.3227 -0.0668  0.1980
40653W        W83669  30.480   2.352   2.318 -0.0949 -0.3564 -0.1166
40654W        W83670  20.280  13.946  24.859  0.1479  0.1453  0.0149
40655W        W83671   7.463  18.750   7.751  0.0191  0.4151 -0.1591
40656W        W83672  15.095   8.536  22.232  0.1859  0.0280 -0.2449
40657W        W83673  15.073   2.520  24.502  0.0969 -0.1213  0.2427
40658W        W83674   5.357   3.046  28.242  0.1548  0.1135 -0.0372
40659W        W83675  12.198  25.529  24.048  0.0369 -0.1059  0.0373
40660W        W83676  14.264  14.280  14.974 -0.1594 -0.0576  0.1594
40661W        W83677  23.417  15.009   9.026 -0.0494 -0.2450  0.0728
40662W        W83678   9.703  34.206  20.234 -0.1366 -0.2970 -0.0352
40663W        W83679  11.408   4.721  16.027  0.2264 -0.0650  0.1732
40664W        W83680  14.153  10.070   8.931  0.0554  0.4308 -0.3454
40665W        W83681  13.298  24.580   3.179  0.0281  0.1110 -0.1024
40666W        W83682  10.587  19.652  24.358  0.0996 -0.1387  0.1172
40667W        W83683  17.057  12.669   4.358 -0.2762 -0.0175 -0.2361
40668W        W83684   9.819  10.887   6.089  0.0743  0.0600 -0.3954
40669W        W83685   6.229   5.626   3.153 -0.0671  0.3976  0.1060
40670W        W83686  23.212   0.935   5.743  0.1575  0.1386  0.3174
40671W        W83687   6.110  15.895  28.231 -0.0953 -0.2552  0.0553
40672W        W83688  17.301   5.169  27.559 -0.3479 -0.2382 -0.2937
40673W        W83689  21.021  18.926  14.159 -0.0400  0.3391  0.1290
40674W        W83690  32.819  17.777   8.428 -0.0350  0.2786  0.0968
40675W        W83691   5.738  14.531  17.226 -0.1831 -0.1150 -0.1984
40676W        W83692   6.677   2.340   1.037  0.0649  0.1359 -0.2334
40677W        W83693   9.718  13.753  23.734 -0.0555  0.1937  0.0644
40678W        W83694  31.461  12.249  20.394  0.1246 -0.3833  0.0538
40679W        W83695  20.706  10.405   4.309 -0.0168  0.1204  0.1774
40680W        W83696   0.282  34.420   7.580  0.0151  0.0641  0.2937
40681W        W83697  15.506  13.830   2.480 -0.0162 -0.0826 -0.2128
40682W        W83698  15.298  22.189  24.673 -0.1198  0.0421 -0.1832
40683W        W83699  14.587  16.468  22.440  0.2753  0.0106 -0.0879
40684W        W83700  21.248   5.519  28.909  0.1619  0.1284  0.1740
40685W        W83701  11.633   1.299   4.364  0.3350  0.0443  0.1235
40686W        W83702  25.672   8.898   5.787  0.3927  0.1296  0.1024
40687W        W83703  28.099   7.670  18.372 -0.2456  0.0110 -0.1081
40688W        W83704   3.570  10.950   6.602  0.0942  0.0452  0.1176
40689W        W83705   0.659   3.886  23.988  0.3027 -0.0274  0.1446
40690W        W83706   3.947  16.266   0.632 -0.2523 -0.1433 -0.3511
40691W        W83707  10.033  33.091   1.329  0.1386  0.1700  0.3127
40692W        W83708  10.907  16.330  22.821  0.0964  0.0708  0.1266
40693W        W83709   8.706  28.353   1.279 -0.2599  0.0278 -0.2546
40694W        W83710   7.290  14.483  24.982  0.2380 -0.1148 -0.0827
40695W        W83711   1.703   4.071  17.764 -0.0561  0.0053  0.1360
40696W        W83712  15.728  22.205  22.233  0.0414 -0.2842 -0.0593
40697W        W83713  26.171   4.042  22.159 -0.0370  0.1175 -0.0576
40698W        W83714  28.547  31.964   2.272  0.4277 -0.1792  0.2370
40699W        W83715   1.417  19.614   9.917 -0.1425  0.2324  0.3316
40700W        W83716   7.838   3.492   4.899  0.2001  0.2882 -0.1105
40701W        W83717   4.218  19.538  19.015  0.1440 -0.2634  0.2151
40702W        W83718  32.470  30.837  23.091  0.0740  0.0118  0.2052
40703W        W83719   7.351  16.878  26.772  0.0327  0.2453  0.0834
40704W        W83720  32.475  31.589   8.382 -0.1666 -0.1721 -0.3950
40705W        W83721  10.926   0.644  20.318 -0.2245  0.1876 -0.0059
40706W        W83722   7.293  28.525  24.261 -0.2572 -0.0740  0.3480
40707W        W83723   3.930   5.454   5.065  0.2592  0.0849 -0.2220
40708W        W83724  25.658  28.898  20.905  0.2149 -0.1943  0.4281
40709W        W83725  20.339  12.546  16.678 -0.3189 -0.0341  0.1896
40710W        W83726  12.752  12.753   6.771 -0.3554 -0.1115  0.1403
40711W        W83727   4.177  23.479  26.479 -0.2789 -0.1231 -0.1375
40712W        W83728  11.850   2.777  22.306 -0.0708  0.0964 -0.3036
40713W        W83729  27.782  29.310  11.038  0.0481  0.0547 -0.2907
40714W        W83730  13.905  17.415   0.145  0.1818  0.1092 -0.1838
40715W        W83731   4.025  10.672   7.342  0.1066 -0.4500 -0.0075
40716W        W83732  13.613  12.772  29.247  0.0200  0.0632  0.2174
40717W        W83733   7.801  24.036  22.937  0.0668 -0.0112  0.0654
40718W        W83734  18.369  15.803   1.650 -0.1064  0.3055 -0.2051
40719W        W83735  30.976  14.090  21.222 -0.1212 -0.1135  0.2101
40720W        W83736  32.568  14.807   1.857 -0.1981  0.0024 -0.1279
40721W        W83737   9.413  11.860   2.531  0.0934 -0.0266 -0.1730
40722W        W83738   7.971   5.437  29.229  0.3904 -0.2622 -0.3179
40723W        W83739  30.142  15.736  24.030 -0.1349  0.3188 -0.1705
40724W        W83740  18.014   4.565  26.169 -0.3138  0.0283 -0.3824
40725W        W83741   3.262  25.633   8.578  0.1336  0.0007 -0.0762
40726W        W83742  33.868  26.428  27.789  0.1276 -0.1858 -0.1888
40727W        W83743   5.159   0.006  26.828 -0.0957  0.0357 -0.0206
40728W        W83744   0.737   2.459  20.565 -0.0097 -0.4205  0.2534
40729W        W83745  14.963   5.778  18.362  0.0525 -0.1422  0.1815
40730W        W83746   9.857  12.132  22.283  0.2078 -0.1098 -0.0949
40731W        W83747   4.468   0.636  26.143 -0.1505  0.2193 -0.1377
40732W        W83748  14.104   0.170  23.066 -0.1127 -0.0572 -0.2842
40733W        W83749   2.228  18.194  19.017 -0.0194  0.0448  0.1493
40734W        W83750  30.413  23.452  17.456 -0.0989  0.1734 -0.2676
40735W        W83751   3.816  19.835  16.953  0.1754 -0.0434 -0.0416
40736W        W83752   5.939  24.985  13.987  0.2078 -0.1250 -0.1245
40737W        W83753  23.882   4.843  16.911 -0.0089 -0.1516  0.1393
40738W        W83754  31.849  12.232  20.810  0.0713 -0.0211 -0.1834
40739W        W83755   0.502   7.935  17.328 -0.1938  0.0037  0.0866
40740W        W83756  14.206   7.015  19.171  0.0494 -0.2617  0.0698
40741W        W83757   4.498  11.823  22.672 -0.0907  0.2106 -0.4607
40742W        W83758  10.446  14.348  23.424 -0.2924 -0.0185  0.1815
40743W        W83759  15.887   3.778  17.719 -0.0082  0.2064 -0.0985
40744W        W83760   7.227  14.138  20.068  0.0053 -0.0939 -0.0722
40745W        W83761   0.302  12.500  15.932  0.0481 -0.2929  0.0251
40746W        W83762  34.615  14.953  21.229  0.3710  0.0570 -0.1967
40747W        W83763  33.562  11.463  19.607  0.2093 -0.3382  0.2245
40748W        W83764  10.823  18.226   7.555  0.2925 -0.1924  0.5353
40749W        W83765   8.220   5.169  18.615  0.0293  0.2288 -0.0296
40750W        W83766   6.059  11.767  21.858  0.3135  0.2678 -0.0711
40751W        W83767  14.654  25.029  26.645 -0.0951  0.0416  0.2172
40752W        W83768  16.280  18.608  14.723  0.3396  0.1006 -0.2959
40753W        W83769   2.665  21.870  18.540  0.2245 -0.0851  0.0134
40754W        W83770  14.787  30.212  16.161 -0.1550  0.1148 -0.0140
40755W        W83771   5.180  24.363   3.810  0.1439 -0.0722  0.0762
40756W        W83772  27.638  22.302  21.899 -0.3101 -0.0521 -0.0301
40757W        W83773   2.810  20.677  15.954 -0.1758  0.0128  0.0805
40758W        W83774  11.817  19.043  14.567  0.0830 -0.1013 -0.0370
40759W        W83775   0.602  15.474  15.872  0.0616  0.0026 -0.2490
40760W        W83776   7.933   9.572  16.640  0.0485 -0.3515  0.2839
40761W        W83777  23.265  11.810  15.711 -0.0509  0.0043  0.0825
40762W        W83778  23.462  12.765  13.186  0.0549 -0.0105  0.2107
40763W        W83779  21.705   0.566  23.106  0.0733  0.0371  0.0307
40764W        W83780  11.156   7.039  14.120  0.2825  0.0987 -0.0876
40765W        W83781  34.644  32.007  23.955  0.0676 -0.2926 -0.1518
40766W        W83782  31.266  27.808  27.204  0.5264  0.2408 -0.2706
40767W        W83783   2.938  20.012  16.279  0.0837 -0.2842  0.0448
40768W        W83784   5.424  15.759  27.455 -0.0937 -0.0608  0.0921
40769W        W83785  15.532  11.205   3.150 -0.2640 -0.2169 -0.0027
40770W        W83786   4.201  12.086  14.900  0.0945  0.0364  0.1221
40771W        W83787  11.282   0.294  17.019  0.2533 -0.2581  0.0270
40772W        W83788   3.365  18.017  17.670 -0.2638  0.1439  0.0252
40773W        W83789   3.090  27.990  17.053 -0.3738  0.2288 -0.0016
40774W        W83790  17.483   6.911  18.573  0.1209  0.1394  0.0842
40775W        W83791   0.004  16.323  20.895 -0.2710 -0.0043 -0.0478
40776W        W83792  11.774  32.264   0.700 -0.2599  0.2754  0.1842
40777W        W83793   8.528  23.172  17.391  0.5488  0.0158  0.1376
40778W        W83794   0.833   5.066  27.548 -0.2789 -0.3015 -0.2032
40779W        W83795   3.462  28.097   1.846  0.1158  0.0578 -0.0430
40780W        W83796   9.651  21.561  23.055 -0.2246  0.0894 -0.3212
40781W        W83797  34.541   7.498  21.761  0.0652 -0.1359  0.0775
40782W        W83798   5.352  11.999  26.803 -0.0540 -0.1627  0.2893
40783W        W83799   3.055   7.209  15.722  0.1458  0.1245  0.0221
40784W        W83800   9.760   1.046  22.730  0.0261  0.3067  0.2591
40785W        W83801  15.603  29.237  21.488  0.0256  0.0668  0.1324
40786W        W83802  27.159  25.769  15.999 -0.2046  0.3260 -0.1184
40787W        W83803  22.866  10.931  19.214 -0.1077 -0.1066  0.1617
40788W        W83804   1.863  20.863  23.136 -0.0599  0.2317 -0.0347
40789W        W83805  12.244   7.046  14.138  0.1333 -0.2309  0.0149
40790W        W83806  28.234  18.777  20.135  0.0805  0.0049 -0.1167
40791W        W83807   6.115  18.801  23.755 -0.0073 -0.3359 -0.2092
40792W        W83808   1.129  20.261  22.910 -0.1029 -0.0675  0.0572
40793W        W83809  20.023  28.147  23.693  0.1835 -0.0605 -0.1419
40794W        W83810  14.147   9.300  24.990  0.0137 -0.0433 -0.1205
40795W        W83811   2.702  17.585  25.274 -0.0352 -0.4045 -0.1262
40796W        W83812  31.277   6.471  25.373  0.3064  0.1562 -0.1343
40797W        W83813  12.963  10.561  26.712 -0.1734  0.0207  0.1812
40798W        W83814  11.067  13.180  27.990 -0.5999 -0.0446  0.2555
40799W        W83815  33.958  25.100  20.345  0.0999 -0.0303 -0.0738
40800W        W83816  12.622   9.986  19.574 -0.0066  0.1777  0.0795
40801W        W83817  32.672   2.552  19.786  0.0563  0.2320 -0.1444
40802W        W83818  28.516  18.560  15.893  0.2191 -0.3109 -0.0728
40803W        W83819  33.474  18.239  18.941 -0.3440 -0.1635 -0.2801
40804W        W83820   6.845   3.077  25.841 -0.0326  0.0201  0.0028
40805W        W83821  25.450  14.024  20.971  0.1588 -0.3937 -0.1265
40806W        W83822  29.528  14.242  23.479  0.2918 -0.1273  0.1501
40807W        W83823   3.973  17.579  14.114  0.2451 -0.0784 -0.2507
40808W        W83824  16.364  16.570  12.777  0.2102  0.3896  0.0524
40809W        W83825  10.631  27.792   2.065 -0.1395  0.1111 -0.2726
40810W        W83826  23.344  16.307  16.005  0.0024  0.0905  0.0177
40811W        W83827  17.687  15.339  15.688 -0.0907  0.2866  0.2157
40812W        W83828  23.918  24.239  16.407 -0.0144  0.0644  0.1507
40813W        W83829  13.244  14.714   0.316 -0.0183 -0.3637  0.0192
40814W        W83830   9.665  11.555  28.837  0.2267  0.1300 -0.0500
40815W        W83831  17.824   8.447  23.272 -0.2317  0.1343 -0.2035
40816W        W83832  32.120  14.676  28.765 -0.0062 -0.0957 -0.0403
40817W        W83833   2.878  12.635  29.133  0.1888 -0.0133 -0.0623
40818W        W83834   8.569  11.422  21.765  0.1666 -0.4460  0.1913
40819W        W83835   3.098   9.122  22.812  0.1668  0.0107  0.2201
40820W        W83836   3.212   8.716  17.955 -0.2233  0.4132  0.1040
40821W        W83837  10.891  23.364  14.676 -0.0252  0.1786 -0.3891
40822W        W83838  12.304  20.336   0.830  0.0220  0.0014 -0.3578
40823W        W83839  23.400  21.545  23.733  0.0655  0.0970 -0.2968
40824W        W83840   9.093  20.719  23.914  0.4225 -0.1214 -0.2600
40825W        W83841  17.149  32.416   0.167 -0.0905  0.2818 -0.2255
40826W        W83842   4.717   5.130  15.108 -0.0989 -0.1714  0.0338
40827W        W83843   1.418  19.034  25.030  0.0449  0.0597  0.2673
40828W        W83844  26.471  13.719  18.321  0.0169  0.0491  0.0195
40829W        W83845   7.578  22.142  23.797  0.1494 -0.0667  0.1237
40830W        W83846  33.265  25.522  24.387 -0.1024  0.1351  0.0903
40831W        W83847  12.448  33.028   7.957  0.2274 -0.0039 -0.1125
40832W        W83848  18.133   0.809  15.655  0.0720 -0.0671 -0.1018
40833W        W83849   5.145  16.468  13.750 -0.0098  0.4448  0.0121
40834W        W83850  11.085   8.167  17.813 -0.2687 -0.0393  0.1007
40835W        W83851  23.461  13.831  21.072 -0.0335 -0.0511  0.2142
40836W        W83852  17.015  18.788  16.829  0.1567  0.2967  0.2815
40837W        W83853  27.116  10.102  25.083 -0.0510  0.0835  0.2781
40838W        W83854  11.268   7.536  16.080 -0.1609  0.0140  0.1849
40839W        W83855  23.149   5.588  17.914 -0.3787 -0.0305 -0.0931
40840W        W83856   4.955  21.129  19.359 -0.2563  0.4012  0.1045
40841W        W83857  34.334  25.508  24.067  0.0750 -0.0666 -0.0795
40842W        W83858   6.524  12.829  16.990 -0.0050  0.0255  0.0537
40843W        W83859  29.397  31.395  26.638 -0.0612  0.1430  0.1711
40844W        W83860   0.047  12.837  17.315 -0.1065  0.1902  0.1346
40845W        W83861  10.372  21.205  12.983 -0.1870 -0.1209 -0.1395
40846W        W83862   8.043   0.470  18.242 -0.2449 -0.0953 -0.2144
40847W        W83863   5.981   9.937  25.026  0.0750 -0.1407 -0.0084
40848W        W83864  11.964   8.170  17.707  0.1466 -0.2069  0.0271
40849W        W83865  11.889  12.377  17.405  0.0567  0.1620 -0.1136
40850W        W83866   4.550  20.055  15.026  0.0362 -0.0468 -0.0965
40851W        W83867   5.312  10.318  24.398  0.1012 -0.2055  0.0181
40852W        W83868  26.868  19.851  15.342  0.1091 -0.1053 -0.1517
40853W        W83869  33.933  25.687  21.155 -0.2626  0.0585 -0.0588
40854W        W83870   8.037  11.132  21.623 -0.1473  0.0978  0.1271
40855W        W83871  11.615   8.582  13.826  0.0193  0.1691 -0.0500
40856W        W83872   6.173  21.152  19.959  0.1987 -0.2136  0.0198
40857W        W83873  13.926   5.632   6.619 -0.2503  0.2160  0.0319
40858W        W83874  30.164  17.053  22.233 -0.4259 -0.0987 -0.0235
40859W        W83875  13.891  11.769  14.082 -0.2119  0.1481  0.1723
40860W        W83876  13.522  13.751  16.061  0.1370 -0.1630  0.0442
40861W        W83877  25.346  26.240  22.047  0.0875 -0.0056  0.2889
40862W        W83878  23.472   5.225  24.657 -0.0567  0.1490  0.1166
40863W        W83879   7.688  31.513   3.289 -0.2498 -0.1233 -0.2743
40864W        W83880  34.669  10.873  17.393 -0.2212 -0.1372 -0.1753
40865W        W83881   7.474  15.988   3.553 -0.0398 -0.1735  0.0808
40866W        W83882  34.210  16.294   4.919  0.1371 -0.2287 -0.0905
40867W        W83883   9.984  25.576  14.027  0.0393 -0.1791  0.1329
40868W        W83884  20.987  29.297  20.522 -0.2042  0.2719  0.0690
40869W        W83885   8.226   5.233  24.612  0.1675 -0.0085 -0.2131
40870W        W83886  12.080  12.358  14.472 -0.0932  0.2287 -0.1498
40871W        W83887  34.389  17.675  18.562 -0.1121  0.0252 -0.1631
40872W        W83888   3.228  14.531  27.501 -0.1867 -0.1296 -0.0857
40873W        W83889  18.093  13.155  15.417 -0.0383 -0.1556 -0.5074
40874W        W83890  32.858  14.665  27.553  0.3728 -0.0279  0.0574
40875W        W83891  17.044  10.526  20.704  0.0334  0.0258 -0.1661
40876W        W83892   2.647  10.283  19.743 -0.2248 -0.2256  0.2440
40877W        W83893   3.765  10.353  19.675  0.0448  0.1099 -0.0985
40878W        W83894   6.201  11.446  18.261  0.4520  0.0179 -0.0272
40879W        W83895  10.507  23.503  19.619  0.2004  0.1456  0.0670
40880W        W83896  13.402  33.744  16.063  0.0245 -0.0596  0.0737
40881W        W83897  14.079   1.333  16.151 -0.0757 -0.0886 -0.1840
40882W        W83898   5.019  23.706  22.402 -0.2788  0.2764 -0.0673
40883W        W83899  14.214  16.860  26.407 -0.2065 -0.5137  0.0891
40884W        W83900  10.584  32.959  26.474 -0.2366  0.0397 -0.1468
40885W        W83901   9.013  18.224  14.227 -0.0435  0.1979 -0.0367
40886W        W83902  12.080   9.087  22.170 -0.0432 -0.1684 -0.2887
40887W        W83903  10.872   9.857  18.620  0.1826  0.0885  0.0640
40888W        W83904   3.067  12.539  15.166 -0.0252  0.2507  0.4030
40889W        W83905  28.156  24.816  21.135  0.2263 -0.0936  0.0219
40890W        W83906  32.401   5.986  22.002 -0.0979  0.3618  0.0097
40891W        W83907  20.846  22.405  20.226  0.0057  0.0215 -0.2541
40892W        W83908  33.217  17.521   2.015  0.0423 -0.0385  0.1932
40893W        W83909  28.849  26.368  27.837  0.2210 -0.1514 -0.0792
40894W        W83910  16.084  16.249  15.284 -0.0399 -0.0718  0.0278
40895W        W83911   9.307  15.955  21.877 -0.0912  0.2494  0.0733
40896W        W83912  13.907   9.558   3.889 -0.0652 -0.0097 -0.0715
40897W        W83913  29.577  22.116  18.717  0.0697 -0.2126  0.0356
40898W        W83914  20.116   1.784  27.735  0.1881  0.1599 -0.0114
40899W        W83915  22.579  12.988  13.631 -0.0226  0.0192 -0.0468
40900W        W83916  12.684  12.518  21.727  0.1626  0.2064 -0.0383
40901W        W83917  12.802   8.945  15.138 -0.0067 -0.1489  0.0954
40902W        W83918   4.018   9.802  25.483 -0.1524 -0.1801 -0.1737
40903W        W83919  10.392   0.266  17.678  0.0425  0.0715  0.3255
40904W        W83920  15.486   8.788  16.959  0.0098  0.0568  0.1775
40905W        W83921   9.657   4.799  28.372  0.0760 -0.0123 -0.4173
40906W        W83922  11.535  19.921  16.876 -0.0081  0.2294  0.0316
40907W        W83923  22.383   1.518  19.118  0.0868  0.0818  0.0302
40908W        W83924   8.478  31.222  20.236 -0.1707  0.0520  0.3402
40909W        W83925  26.471  33.192  20.517  0.1401 -0.0132  0.0296
40910W        W83926  12.413  14.782  12.966  0.1382  0.1050  0.2006
40911W        W83927   4.845  17.246  16.342 -0.1992  0.0566  0.0134
40912W        W83928  23.100  28.743  17.885 -0.2353  0.2434  0.2491
40913W        W83929  10.851   6.802  15.107 -0.1688  0.0542 -0.0235
40914W        W83930  33.767  10.567  15.400 -0.1444  0.1152 -0.0841
40915W        W83931   6.433   0.605  24.091 -0.0180  0.3279  0.1404
40916W        W83932  15.757   9.214  15.464 -0.2919  0.0403 -0.3496
40917W        W83933  13.322   6.804  17.905  0.1816  0.0502 -0.0369
40918W        W83934  21.783  29.246  28.734 -0.1313  0.0509  0.1161
40919W        W83935   6.725  34.557  23.973  0.3580  0.2942 -0.0449
40920W        W83936   1.208  20.472  21.227 -0.0196  0.3155 -0.0347
40921W        W83937   6.756  30.854  16.273 -0.1507 -0.1421 -0.0691
40922W        W83938  10.515  17.071  14.551  0.0835 -0.0921 -0.0753
40923W        W83939  15.761  20.245  12.738  0.1388  0.0896 -0.1711
40924W        W83940   0.960  11.962  23.552 -0.1747 -0.2253 -0.1448
40925W        W83941  21.252  19.633  14.227 -0.0238 -0.1533 -0.0588
40926W        W83942   9.657  11.940   0.641  0.0855  0.1675 -0.1982
40927W        W83943  14.600   7.942  14.726  0.0370 -0.4591 -0.1142
40928W        W83944  32.748  12.671   7.159  0.1378  0.3863  0.2219
40929W        W83945   1.660   0.318  19.956  0.2853 -0.0058 -0.0230
40930W        W83946  13.823  27.209  21.338  0.0241  0.5265  0.0626
40931W        W83947  13.791   9.876  15.252 -0.0165  0.0276 -0.3109
40932W        W83948   9.710  18.717  27.570  0.3200  0.1959  0.0218
40933W        W83949  24.080  22.327  19.727  0.3173 -0.2345  0.1138
40934W        W83950  23.256   1.302   2.535  0.2677  0.0163  0.0825
40935W        W83951   6.421  29.885  17.407 -0.1871  0.1751  0.0916
40936W        W83952  13.251  25.007  27.659  0.3313  0.0070  0.0931
40937W        W83953  32.423  29.333   7.577  0.3020 -0.1877 -0.2348
40938W        W83954  33.632  34.118  20.799 -0.2497 -0.0364 -0.2559
40939W        W83955  13.698  15.722  13.093 -0.1148 -0.4268 -0.3111
40940W        W83956  21.888  12.918   1.938 -0.2241 -0.0351 -0.1124
40941W        W83957  14.109   7.746  23.913 -0.1518  0.1497  0.2743
40942W        W83958  31.118  25.774  25.078 -0.1090 -0.2109  0.0592
40943W        W83959  13.229  16.454  23.027  0.0371  0.1207 -0.1592
40944W        W83960   6.496  10.173  19.309 -0.0324  0.2151 -0.0001
40945W        W83961  12.440  15.044  21.706 -0.0397 -0.1412 -0.1243
40946W        W83962  24.885  16.577  14.665  0.2126 -0.3100  0.0262
40947W        W83963   8.932  25.987  19.802 -0.0092 -0.0846  0.3262
40948W        W83964   3.593   5.172  19.063  0.0856 -0.0800  0.2053
40949W        W83965   3.408  11.373  22.140 -0.4370  0.0724 -0.0303
40950W        W83966   8.524  11.402  13.657  0.0864 -0.1011 -0.1452
40951W        W83967   2.080   7.579  19.062 -0.0409 -0.1085  0.1691
40952W        W83968  10.257   7.565  20.439  0.2194 -0.4058  0.1175
40953W        W83969   4.039   7.192  18.514  0.0845 -0.2214 -0.2647
40954W        W83970   9.098  12.798   1.372  0.2973  0.0628  0.1585
40955W        W83971  24.725  11.345  17.234 -0.0961  0.1612 -0.1527
40956W        W83972   1.064   7.594  16.926 -0.2085 -0.1073 -0.1397
40957W        W83973  13.492  10.494  24.414 -0.0770 -0.2424  0.2010
40958W        W83974   2.511   4.711   0.005 -0.2756 -0.0728 -0.3004
40959W        W83975   3.228  14.442  21.727  0.1070 -0.2209 -0.2173
40960W        W83976  18.987   9.315  15.426 -0.1914 -0.3155 -0.0849
40961W        W83977   6.234  32.145  18.160 -0.2837  0.0211 -0.1141
40962W        W83978  23.610  10.859  18.294 -0.1932 -0.0361  0.0650
40963W        W83979  34.533  33.616  21.421 -0.1835  0.1219 -0.0668
40964W        W83980   5.223  22.839  21.739 -0.0238  0.1742  0.0107
40965W        W83981   5.908  14.657  20.771  0.2058 -0.0737 -0.2966
40966W        W83982  10.136   9.388  16.876 -0.0966 -0.0908  0.3500
40967W        W83983   5.896   2.794  18.604 -0.2598  0.2999  0.1723
40968W        W83984   6.620  21.350  18.226 -0.1160  0.0611  0.3281
40969W        W83985   2.214   6.103  25.484  0.0700  0.0369 -0.2537
40970W        W83986  11.980  12.127  15.094 -0.1816  0.0173 -0.1680
40971W        W83987   2.870   5.560   6.595  0.4387  0.2015 -0.1617
40972W        W83988  14.902  23.680  18.185  0.0263 -0.2818 -0.0246
40973W        W83989   1.418  19.261  23.780  0.1790  0.2017 -0.0611
40974W        W83990  30.249  11.136  14.345 -0.0540 -0.1818 -0.2243
40975W        W83991   5.633  22.856  17.183 -0.0685 -0.3018  0.0527
40976W        W83992   7.411  17.695  21.052 -0.3497 -0.0149  0.2397
40977W        W83993   8.766  14.104  17.969  0.1196 -0.1769  0.2508
40978W        W83994  11.378   7.175  17.591  0.2449  0.0253 -0.2995
40979W        W83995  21.491  22.709  22.869 -0.0939  0.3819  0.0864
40980W        W83996  32.516  24.156  15.756 -0.3242  0.1510 -0.1591
40981W        W83997  33.127   3.419  17.476  0.3602 -0.0437 -0.0733
40982W        W83998  14.325  10.356  19.234 -0.2248  0.3188 -0.1568
40983W        W83999   8.823  14.830  20.273 -0.0063  0.0717  0.1335
40984W        W84000  10.874  14.356  14.230  0.0374 -0.1299 -0.4354
40985W        W84001  14.574  22.653  20.655  0.1424 -0.2368  0.0642
40986W        W84002  14.526   3.261  17.376  0.5748  0.3330 -0.2443
40987W        W84003   9.526   5.829  14.110  0.1476  0.0832 -0.2103
40988W        W84004   9.011  18.200  21.315 -0.1338  0.1223 -0.3221
40989W        W84005  14.941   6.600  25.285 -0.2709  0.3700 -0.4138
40990W        W84006   5.024   2.333  14.706  0.0604  0.0822 -0.1427
40991W        W84007   9.530  14.642  23.876 -0.3066  0.1579 -0.0126
40992W        W84008  10.080  24.126  21.655  0.0342 -0.1116  0.2361
40993W        W84009  25.736  16.348   5.274 -0.1979 -0.0701 -0.1551
40994W        W84010   0.005  33.259  21.089 -0.2876 -0.1284  0.2510
40995W        W84011   2.608   3.588  22.798  0.1442  0.1297  0.0364
40996W        W84012  24.166  11.367  13.799  0.0799  0.1748  0.1379
40997W        W84013  22.514  12.209  15.855  0.0765 -0.1439  0.2751
40998W        W84014  27.556   4.351   4.938 -0.0903 -0.1779  0.0138
40999W        W84015   6.833  17.999  22.011  0.1372 -0.0649  0.3063
41000W        W84016   3.330  10.446  20.097  0.0236  0.1558  0.1943
41001W        W84017  17.464  12.616  14.965 -0.4498  0.0423  0.1351
41002W        W84018   7.342  22.258  20.367 -0.0420 -0.3125  0.0710
41003W        W84019  21.439   9.766  25.014  0.0187 -0.0484  0.1849
41004W        W84020   9.114  24.835  22.249  0.0763  0.1851  0.0734
41005W        W84021   6.066   5.539  25.679  0.1605  0.1324  0.1295
41006W        W84022  26.885  21.179  14.963  0.0356  0.0992 -0.3165
41007W        W84023   0.823  15.838  19.802  0.0576 -0.0584 -0.0453
41008W        W84024   9.172  17.702  17.894 -0.1574 -0.0474 -0.6502
41009W        W84025   5.384  14.537  14.303  0.2534  0.1361 -0.0468
41010W        W84026  33.533  11.940  19.269 -0.1190  0.0516 -0.2818
41011W        W84027   2.198  20.448  24.797  0.0594 -0.0393  0.1789
41012W        W84028  27.625  25.638  23.287 -0.1322  0.0050  0.1565
41013W        W84029  29.442  34.045  18.011  0.2303 -0.0180 -0.2375
41014W        W84030   3.006  32.261  15.806 -0.1562 -0.2484  0.1736
41015W        W84031  15.879  10.566  21.329 -0.3406 -0.1331  0.1998
41016W        W84032   5.719  29.955  20.012  0.1820  0.2904 -0.1556
41017W        W84033  16.549  16.872  11.532  0.2493 -0.4358 -0.0534
41018W        W84034  30.272  18.571  21.181 -0.1597  0.0976  0.2701
41019W        W84035  27.537  21.939  21.410 -0.1572  0.2227  0.2936
41020W        W84036  21.866  19.320  12.495  0.1586  0.2026  0.1814
41021W        W84037  12.504  10.941  17.528  0.0611 -0.0335 -0.0443
41022W        W84038   5.921   9.561  17.838  0.1439  0.0527 -0.3304
41023W        W84039   7.609  16.174  17.421  0.2367 -0.0862  0.2305
41024W        W84040  18.808  32.540  24.490  0.0181 -0.0416 -0.1757
41025W        W84041  14.977   2.088  16.855  0.0244  0.3211  0.0428
41026W        W84042   7.999  12.142  24.402 -0.2527  0.2514  0.0565
41027W        W84043  15.343   6.439  22.528 -0.5843 -0.2216  0.0200
41028W        W84044  10.152  33.817  17.515  0.0424 -0.2365 -0.0546
41029W        W84045  15.829   4.300   2.549  0.0054  0.1267  0.1246
41030W        W84046   3.104  19.195  15.846  0.1418 -0.1669  0.2317
41031W        W84047   2.734  18.504  27.864 -0.1986  0.1813  0.0409
41032W        W84048  29.546  12.692  24.835  0.1525  0.0192  0.0112
41033W        W84049   3.285  10.704  27.006 -0.1621  0.0385  0.0995
41034W        W84050   1.321  20.823  25.699  0.0123 -0.0718  0.0504
41035W        W84051  15.414   3.320   7.085  0.0983 -0.0984  0.2146
41036W        W84052  11.391   8.484  20.741 -0.0327 -0.3303 -0.1002
41037W        W84053  13.358   7.788  23.683  0.0466 -0.2772 -0.4673
41038W        W84054  16.049   3.934  26.870 -0.0514  0.2082  0.5329
41039W        W84055   8.865  11.497  21.116 -0.2357  0.2389 -0.3425
41040W        W84056   5.851  11.510  15.449 -0.0697  0.3032 -0.0399
41041W        W84057  10.604  17.601  26.711  0.1938  0.3205 -0.0618
41042W        W84058  32.216   7.404  15.308 -0.2013  0.0631  0.1530
41043W        W84059  31.740  28.525  28.470  0.1330 -0.2546  0.1894
41044W        W84060   0.788   6.638  19.552 -0.0987  0.1299 -0.0509
41045W        W84061  17.494   7.294  28.037  0.0559  0.0618  0.0328
41046W        W84062  18.548  20.138  15.327  0.2610  0.2303 -0.1934
41047W        W84063  14.457  15.154  23.245  0.1576  0.0386 -0.0485
41048W        W84064  16.499  32.080  10.573 -0.1004 -0.0067  0.0118
41049W        W84065   2.596  18.432  13.205  0.0360 -0.1748 -0.2568
41050W        W84066   1.850  22.417  20.180  0.0520 -0.1165 -0.2968
41051W        W84067   0.462   1.429  23.805  0.2256 -0.0168  0.0681
41052W        W84068  10.812  14.648   1.610 -0.1738 -0.0564 -0.4201
41053W        W84069  16.298   0.892  23.814 -0.1322  0.0880  0.0209
41054W        W84070  28.421   6.978  15.412  0.1110  0.1933 -0.2091
41055W        W84071  19.932   8.847  17.526 -0.4274  0.1249  0.1094
41056W        W84072   3.584   4.882  17.267  0.1661 -0.2672  0.0932
41057W        W84073  16.366  28.935  19.521 -0.2629  0.0222 -0.2685
41058W        W84074  14.566   6.197  15.413  0.1859  0.0723  0.0977
41059W        W84075   5.241  14.568  17.085 -0.1799  0.3099  0.0194
41060W        W84076  26.496   9.486  18.520  0.1248 -0.1308  0.0745
41061W        W84077   5.400   6.928  16.532 -0.1924 -0.0527 -0.1243
41062W        W84078   9.611   9.084  22.646  0.0547  0.0472  0.1994
41063W        W84079  19.923   1.646  19.148 -0.0211 -0.0744  0.1112
41064W        W84080   9.788  18.835  18.884 -0.0836 -0.3377  0.1194
41065W        W84081  25.738  31.414  18.106  0.1565 -0.1761  0.1122
41066W        W84082   1.067   2.915  28.197 -0.0662  0.2931  0.0447
41067W        W84083   7.052   8.087  25.021  0.0685  0.2354  0.1055
41068W        W84084   1.549   8.177  19.901 -0.2660  0.1304  0.1293
41069W        W84085  12.521  20.825  29.116  0.1024  0.0133 -0.1919
41070W        W84086   6.094  18.018  18.483  0.0334 -0.0340 -0.1588
41071W        W84087  14.504  27.847   6.765  0.1437  0.0689 -0.1376
41072W        W84088  14.603  33.132  26.012 -0.1369 -0.0762 -0.0277
41073W        W84089  19.218  27.541  15.763 -0.0354  0.0093  0.2747
41074W        W84090  17.576  16.856  13.022  0.0842 -0.1025  0.1843
41075W        W84091   9.224  14.916  17.843  0.0363 -0.1007 -0.1812
41076W        W84092   0.425  21.553  25.074  0.3647  0.1715 -0.0587
41077W        W84093   9.054  18.632  20.939 -0.1580 -0.1092 -0.3543
41078W        W84094  30.095  23.251  21.261 -0.1073 -0.1475  0.2437
41079W        W84095  31.816  30.628  24.311  0.2540 -0.2084  0.2618
41080W        W84096  17.207   1.660  17.955 -0.0379 -0.2593 -0.2021
41081W        W84097   7.665   5.029  25.519  0.1730 -0.1664  0.1725
41082W        W84098   1.864  26.692  25.153 -0.2789 -0.2266 -0.0753
41083W        W84099   3.577   8.135  18.559  0.1192 -0.1402  0.2105
41084W        W84100   9.377  12.312  15.741  0.1622  0.0511  0.2736
41085W        W84101   8.509  20.152  27.327 -0.1488  0.0607  0.0828
41086W        W84102   3.173  18.841  17.236  0.0834  0.2727 -0.0217
41087W        W84103   3.926  28.562  21.325 -0.0304 -0.0817  0.0266
41088W        W84104   3.385   6.869  17.982 -0.0256  0.2741 -0.2011
41089W        W84105   4.484   6.180  14.602  0.0841 -0.0519  0.2105
41090W        W84106  30.383  21.630  24.029 -0.0930 -0.0511  0.2490
41091W        W84107  27.459  33.680  27.211  0.0220 -0.1116  0.0469
41092W        W84108  10.255   3.689  25.241 -0.2073 -0.4163 -0.1333
41093W        W84109   2.109  18.456  14.766 -0.0920 -0.4235  0.0071
41094W        W84110  10.469  21.969  23.714 -0.0117 -0.2644 -0.1696
41095W        W84111  33.984  13.121  18.884  0.1341  0.3324  0.0477
41096W        W84112   4.242  15.706  26.653  0.2165 -0.1344 -0.2897
41097W        W84113  10.623  12.901  20.309 -0.2795  0.2148  0.4830
41098W        W84114  13.558  13.410  13.604 -0.0014 -0.2409 -0.0204
41099W        W84115   2.035   4.870  26.908 -0.2187  0.1568 -0.0520
41100W        W84116  22.259  13.447  27.637  0.0130  0.1876 -0.4029
41101W        W84117   2.503  13.207  24.842  0.0500 -0.1776 -0.0689
41102W        W84118   3.626   5.113  23.168  0.2038  0.0278  0.0977
41103W        W84119   6.653   2.770  17.562  0.0433 -0.0327  0.1272
41104W        W84120  20.027  29.240  27.081 -0.2576 -0.1664  0.1164
41105W        W84121   8.915   5.091  28.883  0.0028  0.3874  0.3344
41106W        W84122  32.948   0.937  27.287 -0.4366 -0.1638  0.1136
41107W        W84123   0.686  18.265  19.914  0.1513 -0.1164  0.0010
41108W        W84124   4.444   3.656  26.018  0.0578  0.3896 -0.0427
41109W        W84125  17.707  16.932  16.283 -0.2585  0.1059 -0.1308
41110W        W84126  22.105  33.417  21.580 -0.0343 -0.1732 -0.0544
41111W        W84127  18.458  25.088  23.841  0.0335  0.1758  0.1833
41112W        W84128   3.024  12.942   0.700  0.1708  0.1350  0.2851
41113W        W84129  22.366  20.427  17.744  0.1404  0.2999 -0.0267
41114W        W84130  34.281  12.323  29.111  0.2788 -0.2342 -0.0867
41115W        W84131  30.076  12.950  20.489 -0.0680 -0.1132  0.1933
41116W        W84132   0.657  19.410  25.732  0.0415 -0.0047 -0.1147
41117W        W84133   4.958  23.935  27.327  0.2464  0.2186 -0.2666
41118W        W84134   3.080  12.455  21.519  0.0048  0.0251 -0.0137
41119W        W84135   9.429  32.725  25.583 -0.0129  0.0309  0.0680
41120W        W84136  12.355  33.399  21.922 -0.0976  0.2057 -0.2136
41121W        W84137  33.113  21.714  17.344 -0.2050 -0.0112 -0.3305
41122W        W84138  28.423  20.748  17.524 -0.2430 -0.2408  0.0342
41123W        W84139  30.112   5.635  17.683 -0.0760  0.0466  0.1118
41124W        W84140   0.850  16.721  20.790 -0.1606 -0.1858 -0.3069
41125W        W84141   5.175  14.945  28.418 -0.1297  0.1037 -0.1517
41126W        W84142   2.484  10.780  16.282 -0.0119  0.0834  0.4702
41127W        W84143   8.760  24.172  14.396 -0.2320  0.0393  0.2658
41128W        W84144  20.078   6.268  15.476  0.0534 -0.0529  0.2567
41129W        W84145   3.442  20.433   4.232 -0.1682  0.1524 -0.2317
41130W        W84146  19.720   3.573  18.739 -0.1660  0.2405 -0.0090
41131W        W84147  13.957   9.540  20.902 -0.2937 -0.0993 -0.1373
41132W        W84148  17.004   0.507  15.499 -0.1311 -0.0136  0.0857
41133W        W84149  12.039  11.746  23.024  0.0166 -0.2685 -0.0271
41134W        W84150  15.768  24.645  21.584 -0.1770 -0.1628 -0.0891
41135W        W84151  12.722  14.105  21.312 -0.1018 -0.0274 -0.0061
41136W        W84152  33.886  19.688  17.267  0.0188 -0.2463  0.0856
41137W        W84153  32.004  28.337  19.562 -0.3263 -0.0235 -0.1250
41138W        W84154  10.046  25.053  19.760  0.0279 -0.0064  0.1553
41139W        W84155   3.047   1.452  15.452  0.1743 -0.1422 -0.2666
41140W        W84156  24.882   9.767  21.057 -0.2701  0.0545 -0.1214
41141W        W84157  16.140  28.286  19.464  0.0970 -0.0018 -0.2983
41142W        W84158  23.087  11.275  19.444  0.2071  0.1445  0.0122
41143W        W84159  18.414   9.810  24.213 -0.1097  0.2595  0.1882
41144W        W84160  13.617  10.570  15.812  0.0599  0.2945  0.1429
41145W        W84161  32.743   7.845  19.275 -0.1189 -0.1881 -0.2577
41146W        W84162   1.955  19.335  23.128 -0.3544 -0.1295  0.1832
41147W        W84163  27.523  20.355  16.434 -0.1706  0.2179  0.1357
41148W        W84164   2.235   7.236  17.506  0.0902  0.2661 -0.0247
41149W        W84165  34.658  24.549  22.924 -0.0114  0.0128 -0.0403
41150W        W84166   3.978  15.746  13.671  0.1020  0.1893  0.1890
41151W        W84167  12.264   6.247  14.447  0.1247 -0.3965 -0.0648
41152W        W84168  12.263  12.202  13.611  0.2301 -0.1063  0.0474
41153W        W84169  15.066  24.907   4.529  0.0850 -0.0542 -0.2583
41154W        W84170  23.695   2.845   3.320  0.0937  0.0727 -0.2511
41155W        W84171  14.395  11.516  17.488  0.2618  0.0445  0.0454
41156W        W84172  31.959  26.685  22.352 -0.0970  0.0357 -0.0765
41157W        W84173  18.144  16.348  19.999  0.1321 -0.1326 -0.0845
41158W        W84174  28.346  28.287   7.607 -0.0246  0.2033 -0.0944
41159W        W84175  13.408   9.725  19.156 -0.3744  0.0609 -0.2291
41160W        W84176  18.711  14.297  11.460  0.3386 -0.0009  0.2099
41161W        W84177  30.548  11.091  15.615 -0.1338 -0.2042  0.1166
41162W        W84178  23.663  27.048  21.019  0.0759 -0.0645  0.0379
41163W        W84179   7.810  13.484  15.321 -0.0157 -0.1814 -0.0857
41164W        W84180  23.020  15.038  23.520 -0.2285  0.0778  0.3324
41165W        W84181   6.526  18.164  29.239  0.2304  0.1088  0.0210
41166W        W84182   0.128   8.723   3.826  0.1528  0.0047 -0.2762
41167W        W84183  20.062  15.530  13.387 -0.1633  0.2105  0.0755
41168W        W84184  13.036   9.195  14.465  0.0473 -0.0781 -0.0133
41169W        W84185  16.849  14.217   0.347  0.2746  0.0102  0.1526
41170W        W84186   5.619  11.889  18.659 -0.0276  0.0268  0.0449
41171W        W84187   2.893  27.953   4.065  0.1286 -0.2864 -0.0442
41172W        W84188  19.187   9.673  15.203  0.2715  0.1783 -0.2368
41173W        W84189   1.466   9.571   7.895 -0.3743  0.0346 -0.2189
41174W        W84190   3.586   4.965  14.503  0.2022 -0.0281  0.1518
41175W        W84191  13.164  11.846  17.947 -0.0266  0.0857 -0.2583
41176W        W84192  22.657  11.083  22.677  0.0598 -0.0127 -0.4858
41177W        W84193   3.034   1.063  17.183  0.1668 -0.2117 -0.1604
41178W        W84194   5.237  13.739  20.395 -0.1122  0.0312  0.0053
41179W        W84195  13.486   5.884  18.527  0.4256 -0.2995 -0.0940
41180W        W84196  24.214  14.887  16.107  0.0440 -0.1106 -0.0125
41181W        W84197   4.384   4.516   8.009 -0.2102 -0.1846  0.2989
41182W        W84198   6.742  27.448  23.924 -0.1916 -0.0491 -0.2553
41183W        W84199  16.740  26.124  25.553 -0.3143  0.3123 -0.1501
41184W        W84200   3.752  29.386  23.299  0.1773 -0.1290  0.0103
41185W        W84201  31.136   9.933  27.921  0.4446  0.1609  0.0588
41186W        W84202   7.980  16.448  25.111  0.1082 -0.0977 -0.2557
41187W        W84203  20.508  19.398  12.803 -0.0771  0.2412  0.4122
41188W        W84204  14.329   5.184  16.919 -0.3454  0.1826 -0.2106
41189W        W84205   8.461  22.395  20.967  0.1316  0.1045  0.0693
41190W        W84206   7.743  34.597  23.766  0.0498  0.1661 -0.1026
41191W        W84207  12.231  12.767  17.352  0.1651  0.0173  0.0712
41192W        W84208  24.971  16.837  13.961  0.2245  0.3017 -0.1514
41193W        W84209   6.488  20.655  19.967 -0.2331  0.0997  0.3416
41194W        W84210   5.558  27.268  20.825 -0.1413 -0.2639  0.0201
41195W        W84211  31.330  10.586  20.409 -0.2028  0.1345 -0.0350
41196W        W84212   8.584  10.488  18.204 -0.1978  0.2275  0.0975
41197W        W84213  18.183  14.656  26.158 -0.0417  0.1034  0.1102
41198W        W84214  21.869   8.360  22.445 -0.1126 -0.1385 -0.0318
41199W        W84215  24.895   9.703  25.058  0.0725 -0.0736  0.1849
41200W        W84216  11.823   5.520  25.911  0.0970  0.1268 -0.0779
41201W        W84217  24.580  10.673  18.464  0.1670 -0.0930  0.0948
41202W        W84218  16.053   4.438  26.892 -0.1432  0.0494  0.2551
41203W        W84219  13.565  24.081  23.104 -0.0820 -0.0360  0.0764
41204W        W84220   9.154  28.162   5.213 -0.0982  0.0301  0.0096
41205W        W84221   4.469  17.856  25.093 -0.0470  0.2654 -0.0130
41206W        W84222   6.708   7.822  26.435  0.1416  0.1628 -0.1243
41207W        W84223  18.087  10.776  22.398 -0.2092  0.1037  0.0956
41208W        W84224   8.155  15.875  21.156 -0.1308 -0.1137  0.0271
41209W        W84225  15.490  10.866  23.505  0.0195 -0.1207  0.3973
41210W        W84226   9.071  17.988  20.825 -0.0488 -0.1915  0.0785
41211W        W84227   9.781   4.222  20.463  0.2029 -0.3194  0.3494
41212W        W84228  30.021  14.359  21.625 -0.1070 -0.0732 -0.1198
41213W        W84229  26.706  14.788   2.329 -0.0032 -0.0171  0.0228
41214W        W84230  22.907  13.998  14.697  0.2821 -0.1343 -0.0333
41215W        W84231   8.319  13.365  20.204  0.0889 -0.3367  0.1162
41216W        W84232   9.697   8.526  14.515 -0.2086  0.0670 -0.0604
41217W        W84233   2.997  24.774   2.548  0.0904 -0.0160 -0.1211
41218W        W84234  14.004  24.569  22.775  0.0431  0.1575  0.0158
41219W        W84235   9.757  15.569  18.106  0.0311  0.0729  0.0882
41220W        W84236   7.886   2.433  20.059 -0.0320 -0.1407  0.5142
41221W        W84237  28.194   6.145  20.166 -0.3814  0.0367  0.2559
41222W        W84238  12.558  13.676  26.328  0.0048 -0.3079 -0.1023
41223W        W84239   4.143  28.051  18.712 -0.0253 -0.1489 -0.2652
41224W        W84240   9.279  33.878   0.976 -0.0425  0.1957  0.2463
41225W        W84241  11.519  11.089   0.536 -0.2852  0.0507  0.1761
41226W        W84242  31.759  29.922  17.166 -0.0206 -0.1133  0.0206
41227W        W84243   7.321  13.837  26.852 -0.0897 -0.2045  0.0153
41228W        W84244  10.526  14.104   8.298 -0.2286  0.0354  0.1352
41229W        W84245   3.943  17.988  24.182 -0.0270 -0.1984 -0.0274
41230W        W84246   4.391   7.048  24.154 -0.1694  0.0906 -0.0214
41231W        W84247   8.848  30.151  24.034  0.2380  0.0255  0.4563
41232W        W84248   2.901   8.141   7.134 -0.0915  0.1928 -0.0914
41233W        W84249   6.127  22.352   0.136 -0.0461  0.4510  0.0541
41234W        W84250  16.082   9.168  25.215  0.2555 -0.1154  0.1783
41235W        W84251  13.110   1.143  15.786 -0.2375 -0.1061 -0.2845
41236W        W84252   6.830   2.371  26.971  0.0841  0.0870 -0.2285
41237W        W84253  11.690   1.528  18.644 -0.0991  0.0847 -0.0762
41238W        W84254   6.861   2.520  28.774  0.1609 -0.1535  0.2611
41239W        W84255  28.798  12.270  19.757 -0.0323  0.1105  0.3493
41240W        W84256  33.491  27.663  22.312  0.1089 -0.0593  0.0578
41241W        W84257   2.738   3.967  23.112  0.0374 -0.3409 -0.0402
41242W        W84258  20.331  34.130  21.050 -0.1057  0.2836 -0.0987
41243W        W84259   5.858  16.635  21.767 -0.2490 -0.3451 -0.1904
41244W        W84260  32.565   0.003   2.233  0.1988  0.4035  0.0537
41245W        W84261   7.929  25.405  24.298 -0.0340 -0.1126  0.3840
41246W        W84262  18.550  10.692  22.186 -0.2448  0.1502 -0.2282
41247W        W84263  34.729  29.727  17.010 -0.6147  0.4016 -0.2299
41248W        W84264   9.079  25.340  27.058  0.0957 -0.2371 -0.1256
41249W        W84265  13.306  25.002   3.416 -0.2830  0.2029 -0.2728
41250W        W84266  30.799   4.342   1.819  0.1417  0.1578  0.0649
41251W        W84267  10.090  10.023   4.113  0.0077 -0.3201 -0.0701
41252W        W84268  16.906  23.744  20.280 -0.0326  0.0854  0.2514
41253W        W84269   5.830  14.539  29.027 -0.0043  0.1565  0.1076
41254W        W84270  14.239  33.268  25.629 -0.1456 -0.0768  0.1144
41255W        W84271   5.510   2.342  14.916  0.1328  0.0449 -0.1557
41256W        W84272   5.048  15.266  18.646 -0.1309 -0.2754  0.0404
41257W        W84273  11.405  23.250  22.906 -0.1135  0.1887 -0.0865
41258W        W84274   7.746  17.282  19.109  0.0479 -0.3858 -0.0800
41259W        W84275   8.692   9.424  20.377  0.0314  0.5270 -0.0452
41260W        W84276  15.943   2.280   1.237  0.0613  0.0898  0.1915
41261W        W84277  22.859  25.133   3.307  0.1019  0.1806  0.0958
41262W        W84278  26.298  30.153   3.915  0.1455  0.0750  0.1614
41263W        W84279  34.245  23.819  26.187  0.0942  0.2123  0.2961
41264W        W84280   0.551  11.273   8.779 -0.0046 -0.2425 -0.0121
41265W        W84281   1.235  26.110  19.755 -0.0315  0.1246 -0.1905
41266W        W84282  15.941  30.669  15.385 -0.2012  0.0925  0.1834
41267W        W84283   6.346  33.285  26.537  0.0767 -0.0274 -0.0566
41268W        W84284  17.646   0.263  15.003 -0.2421 -0.2608  0.0246
41269W        W84285  31.843   4.588  24.073  0.2109  0.0267 -0.1082
41270W        W84286   1.388   3.823  23.502  0.0894 -0.0356 -0.1256
41271W        W84287   6.455   2.711  26.926 -0.2587 -0.0136  0.2115
41272W        W84288  31.150  13.403  16.956  0.2234 -0.1846 -0.0017
41273W        W84289   8.844  14.469  26.355 -0.1899 -0.0190  0.0586
41274W        W84290  18.492  10.559  18.699  0.2536 -0.0452 -0.0918
41275W        W84291   2.645   6.577   1.048 -0.3404  0.1850 -0.2800
41276W        W84292  14.531  10.048  28.937  0.0687 -0.1464 -0.3816
41277W        W84293  11.866   7.337  24.503  0.2843  0.0474 -0.2766
41278W        W84294  28.749   8.478  24.870 -0.0302 -0.1037 -0.0607
41279W        W84295   0.501  14.153  29.011  0.0407  0.0027 -0.3186
41280W        W84296  32.091   2.222  14.660  0.1741 -0.1494 -0.1608
41281W        W84297  12.095  33.295  27.605 -0.2165 -0.0106  0.1016
41282W        W84298   8.431  12.098  26.878  0.0382 -0.2402  0.2489
41283W        W84299  29.102  29.145   5.395  0.1821  0.0053 -0.0419
41284W        W84300  19.163  16.781  12.837 -0.0398  0.1173  0.1823
41285W        W84301  11.136  26.325  17.847  0.0560 -0.1143  0.1572
41286W        W84302  14.167   0.564  18.155  0.4956 -0.1363  0.1017
41287W        W84303  13.357   8.809  16.994 -0.1636 -0.3080  0.3395
41288W        W84304  33.782   9.911  18.666  0.1572 -0.1926  0.1032
41289W        W84305   7.349   7.355  14.543 -0.1799  0.1302 -0.0037
41290W        W84306  10.303  14.628  15.987  0.4633 -0.1397  0.3039
41291W        W84307   5.663  18.501  14.242  0.0624 -0.2419  0.2155
41292W        W84308  18.087   7.579  17.913  0.1084 -0.0620  0.0032
41293W        W84309   8.500  28.990  20.804  0.1145  0.1702  0.0957
41294W        W84310  23.046   5.522  19.044 -0.0612 -0.0350 -0.0294
41295W        W84311  14.088  17.364  22.323 -0.2504  0.1627 -0.0918
41296W        W84312  32.704  13.086  14.911  0.0239  0.1463 -0.4400
41297W        W84313   1.812   1.745  15.213  0.0746 -0.1857 -0.2604
41298W        W84314  21.323   9.698  15.324  0.1839  0.1193  0.3031
41299W        W84315  24.027  17.589  22.509 -0.2288  0.2172 -0.0708
41300W        W84316  13.323  11.354  16.565 -0.2641  0.2676  0.2186
41301W        W84317   2.128   6.647   3.307 -0.0021  0.0126 -0.1784
41302W        W84318   7.019  14.607  20.057 -0.0791  0.4548 -0.1405
41303W        W84319  26.972  14.968   2.833  0.1878  0.2279 -0.2909
41304W        W84320   2.422  31.450   1.539  0.0599 -0.3754 -0.0856
41305W        W84321  13.650   3.623  22.765  0.0302 -0.2075  0.2844
41306W        W84322  17.048   6.900  21.517  0.2956 -0.4610 -0.1072
41307W        W84323   2.983  30.541  21.424 -0.0475  0.4126  0.1437
41308W        W84324  27.805  10.733  25.404 -0.0045 -0.1441 -0.3782
41309W        W84325  19.269   3.102  16.991  0.1834 -0.0180 -0.1277
41310W        W84326   6.631  27.054   6.737  0.1336 -0.1924 -0.0952
41311W        W84327   1.764  33.444  19.839 -0.3103 -0.3426 -0.4016
41312W        W84328  13.917  26.307  24.953  0.0038 -0.3761  0.0073
41313W        W84329  20.723   9.704  14.566 -0.0852  0.0055  0.3610
41314W        W84330  13.487  19.271  15.591 -0.1212  0.0627  0.0256
41315W        W84331   9.667   3.267  25.944  0.2183  0.1835  0.0016
41316W        W84332   1.485  30.795  19.732  0.2532 -0.2529 -0.1847
41317W        W84333   1.416  32.830   4.965 -0.3605  0.2175 -0.0240
41318W        W84334  13.417   3.811  13.984  0.0453 -0.0443  0.1139
41319W        W84335  18.266  15.898  18.890 -0.2302  0.0156 -0.0812
41320W        W84336   4.799  17.079   6.629  0.1624 -0.0332 -0.0948
41321W        W84337   1.283   8.448   2.766  0.2096  0.6111  0.1465
41322W        W84338   8.840  17.783  19.458 -0.0395  0.0328 -0.1785
41323W        W84339   5.122   6.641   0.840  0.1537 -0.3803 -0.0443
41324W        W84340  30.600   2.660  19.113  0.1463 -0.3941  0.0057
41325W        W84341  18.192  11.914  21.594  0.0486  0.1524  0.0073
41326W        W84342  10.089  10.960  22.809 -0.0387 -0.3261  0.0914
41327W        W84343   5.757  27.323  16.094 -0.1314  0.0389 -0.1454
41328W        W84344   0.817  19.626  23.269  0.0330  0.0144 -0.3596
41329W        W84345  13.640   7.650  22.382 -0.1405 -0.1773  0.0829
41330W        W84346   4.669  33.340  23.095  0.0118 -0.1195  0.1034
41331W        W84347  23.527  23.755  18.266  0.1520 -0.0602 -0.3219
41332W        W84348   6.416   8.009  14.853 -0.1299 -0.1670 -0.1908
41333W        W84349   6.887  24.451  15.807  0.2319 -0.2195 -0.0726
41334W        W84350   3.166  26.347  18.251  0.0923 -0.0472 -0.0160
41335W        W84351  21.453   0.520  24.342 -0.1438 -0.2889 -0.0924
41336W        W84352  21.691   9.524  13.916  0.0276 -0.0449  0.2544
41337W        W84353  15.399   4.117   2.746  0.3026  0.2276  0.0247
41338W        W84354   5.218  11.937  18.420 -0.0476  0.2711  0.1506
41339W        W84355  27.562  27.087  22.658  0.1107 -0.3114 -0.0172
41340W        W84356  21.063  29.510  16.152 -0.0218 -0.0841 -0.1179
41341W        W84357  27.928  14.051  21.765 -0.1740  0.3301  0.0618
41342W        W84358  20.555  16.957  28.916  0.1185  0.1904 -0.3523
41343W        W84359   8.196  12.185   3.636  0.1679 -0.0656 -0.0617
41344W        W84360   4.346   3.421  20.354 -0.5875  0.2381  0.1635
41345W        W84361  12.965  32.106  27.678 -0.0564 -0.2799 -0.2742
41346W        W84362   7.694  18.489  24.490  0.3748 -0.0036  0.1075
41347W        W84363   1.306  17.026   4.140  0.2256  0.2089  0.0862
41348W        W84364  14.171  16.470  12.389 -0.2709  0.1752 -0.0920
41349W        W84365   4.345   9.338  15.843 -0.1698  0.1128  0.2098
41350W        W84366   6.689   6.970  24.286  0.2161  0.2147  0.1149
41351W        W84367  10.702   9.603  15.997 -0.2236  0.2825 -0.0768
41352W        W84368  21.692   7.989  24.224  0.2018 -0.2093 -0.1441
41353W        W84369  16.575   8.722  19.824  0.2272 -0.0474 -0.3603
41354W        W84370   9.617   6.180  19.662  0.2311 -0.1395 -0.3098
41355W        W84371  12.002  13.074  19.195 -0.0477  0.1413 -0.2351
41356W        W84372  18.830  13.000  14.624  0.1263  0.0282 -0.0545
41357W        W84373  14.364  10.710   1.285 -0.4045  0.2819 -0.0238
41358W        W84374  15.279  28.913  17.053 -0.2384 -0.3634  0.3019
41359W        W84375  31.448  26.371  19.213 -0.3874  0.2200  0.1830
41360W        W84376  23.157   4.062  19.523  0.0645  0.0106 -0.0174
41361W        W84377  20.210   2.900   2.724 -0.0215  0.0716 -0.0915
41362W        W84378  14.761   9.673   0.326 -0.1174 -0.1624  0.3471
41363W        W84379  14.078  23.815   2.504  0.0325  0.1165  0.7410
41364W        W84380  16.196   8.447  22.989 -0.0434  0.0851  0.1198
41365W        W84381   9.829  11.550  21.297  0.0043  0.0046 -0.0350
41366W        W84382   8.974   4.109  24.105 -0.1534  0.1194  0.0473
41367W        W84383  32.126  20.281  20.226  0.0650  0.2984  0.0135
41368W        W84384   9.704  16.202  23.546  0.2214 -0.1873 -0.2095
41369W        W84385  15.341  16.885   3.875  0.1616 -0.1407 -0.1975
41370W        W84386  13.705   7.451  21.886  0.0028 -0.3893  0.2086
41371W        W84387   5.492  23.636  26.846  0.0579  0.0218  0.2334
41372W        W84388  10.561   4.366  25.341 -0.0662  0.4276  0.0689
41373W        W84389  23.310  22.854  18.004 -0.3865 -0.0326 -0.1909
41374W        W84390  12.517  12.821  15.907 -0.1653  0.0892  0.2349
41375W        W84391  14.592  18.840  21.879 -0.2508 -0.4816  0.0335
41376W        W84392   3.824  19.647  24.011 -0.4368  0.0434 -0.1870
41377W        W84393  12.055   2.037  27.657  0.0714 -0.2946 -0.0288
41378W        W84394   6.000   8.873  20.823  0.8507 -0.0186  0.0947
41379W        W84395  13.322   0.765  20.455  0.1672  0.3463 -0.1814
41380W        W84396  30.461  15.480  19.839  0.2409  0.0151 -0.1482
41381W        W84397  33.037  16.547   5.256  0.1759  0.2061  0.1682
41382W        W84398   5.173   4.564  20.148 -0.1593  0.0316  0.0203
41383W        W84399  30.525  20.805  23.671  0.3026  0.2914  0.1260
41384W        W84400   5.513  25.002  15.462 -0.0472 -0.0726 -0.0600
41385W        W84401  17.439  21.150  22.018 -0.2555  0.1568  0.0911
41386W        W84402   7.807  22.110   6.141  0.2683  0.1302 -0.0237
41387W        W84403  19.851  33.037  18.332 -0.5964  0.2024  0.2463
41388W        W84404   5.112  23.596   4.676 -0.0161 -0.3863 -0.1878
41389W        W84405   6.137  26.197  25.650 -0.0724 -0.0751 -0.0787
41390W        W84406  33.350  22.765  24.314  0.2867  0.0237 -0.4378
41391W        W84407  17.212  10.590  21.258 -0.2043  0.2894 -0.0165
41392W        W84408  11.304  11.059  17.364 -0.0008  0.1933 -0.0246
41393W        W84409   6.845   5.725  20.883  0.0836 -0.1563 -0.1172
41394W        W84410   6.464  31.062   2.144 -0.0644  0.3697 -0.1053
41395W        W84411   5.031   1.013  18.808  0.0532 -0.0258 -0.2087
41396W        W84412   0.314  18.237  16.592  0.1006  0.2058 -0.2536
41397W        W84413  12.503   2.620  25.486  0.0069  0.2134  0.1467
41398W        W84414  27.944  17.816  21.902 -0.1140 -0.2171  0.1365
41399W        W84415  34.049   2.911  23.379  0.1700 -0.1470 -0.1355
41400W        W84416  13.718  14.356   0.068 -0.3687  0.1320 -0.1622
41401W        W84417  34.080  10.176  24.207 -0.1176  0.0910  0.3509
41402W        W84418   5.991  24.090  13.956 -0.1911  0.3210  0.1960
41403W        W84419  26.760  34.183   5.353 -0.0812  0.2360 -0.0745
41404W        W84420   8.592  18.670  16.298  0.0820 -0.0752  0.1494
41405W        W84421  21.727   9.549  14.437 -0.1844  0.1686 -0.2520
41406W        W84422  15.609  30.385  28.821 -0.0810 -0.1401  0.1390
41407W        W84423   2.908  21.267  19.534 -0.2629  0.0039  0.0474
41408W        W84424  22.928   4.209  16.236 -0.0132 -0.0897 -0.0646
41409W        W84425   6.395  15.631  14.834 -0.1379  0.1002  0.1113
41410W        W84426  21.964  18.980  17.108 -0.1033  0.1972  0.0540
41411W        W84427   1.099  14.607  14.998  0.1300  0.2742 -0.0754
41412W        W84428  30.127  13.350  22.666  0.0522  0.0219 -0.0046
41413W        W84429   2.201  14.819  23.069 -0.0581  0.3007 -0.0141
41414W        W84430   9.456  13.583  23.074 -0.2803 -0.3100 -0.2109
41415W        W84431  27.028   2.520  24.396 -0.4622  0.1336  0.0580
41416W        W84432  23.333  11.504  21.703 -0.0463  0.1049  0.2260
41417W        W84433  12.000  13.888  18.769 -0.1525  0.0319 -0.0620
41418W        W84434  12.447  18.986  24.667 -0.2081  0.0090 -0.1924
41419W        W84435   5.366  12.529  22.810  0.0815 -0.2744  0.1803
41420W        W84436  15.185  11.678  25.042 -0.1199  0.0889 -0.2980
41421W        W84437  26.909  21.685  16.117 -0.1998 -0.0093 -0.1285
41422W        W84438   7.578  12.839  24.613 -0.0054  0.1921 -0.0352
41423W        W84439   2.943  16.883  18.166 -0.2263 -0.0272  0.0801
41424W        W84440   0.753  10.805  18.299  0.1610 -0.0699 -0.4876
41425W        W84441   0.877  11.523  27.323 -0.0561  0.1322 -0.2136
41426W        W84442   5.477  12.472  27.113  0.1949  0.0484 -0.0147
41427W        W84443  18.845  14.864  20.623  0.3907  0.0952 -0.1623
41428W        W84444  12.061  31.493   4.009  0.0923 -0.0088  0.2189
41429W        W84445  31.746  16.629  28.627 -0.0923 -0.1773  0.0630
41430W        W84446  28.376   4.033  22.927  0.2345  0.1829  0.0950
41431W        W84447  10.918  14.273  21.453 -0.0120 -0.1731  0.2127
41432W        W84448  33.125  16.364   2.822 -0.0509  0.1408  0.0489
41433W        W84449  20.340  32.385  17.998  0.0558 -0.1180  0.1837
41434W        W84450  12.621  24.234  22.283 -0.2881  0.4254 -0.0548
41435W        W84451  16.732  22.567  26.271 -0.1337  0.1388  0.0949
41436W        W84452  15.678  32.646  18.975 -0.2318 -0.1074  0.0274
41437W        W84453  17.834  22.419  19.785 -0.0012 -0.2480 -0.0975
41438W        W84454   2.062  12.173  21.876  0.0389 -0.1175  0.1747
41439W        W84455  29.194  31.137  17.386  0.1488  0.1881 -0.1325
41440W        W84456   3.356  27.082  14.550  0.0695 -0.0159 -0.0804
41441W        W84457  25.679   4.074  19.580 -0.2052  0.1243 -0.1660
41442W        W84458  34.580  17.943  21.580  0.1122 -0.0405 -0.0397
41443W        W84459   2.269  25.462  22.255  0.3485  0.0339 -0.0582
41444W        W84460   3.190  21.628  16.323 -0.0647  0.0024  0.1550
41445W        W84461  12.618   2.836  17.463 -0.0925 -0.3248 -0.1947
41446W        W84462  14.662   1.515  21.721 -0.0424 -0.1126 -0.1206
41447W        W84463  14.596   5.262  23.178  0.2858 -0.2715 -0.0377
41448W        W84464  19.141  32.516  15.350  0.2590  0.2054 -0.0032
41449W        W84465   6.489  13.730  28.808 -0.1088  0.2196 -0.0790
41450W        W84466   4.237  34.701  15.983  0.1824 -0.2624 -0.1904
41451W        W84467   3.050   8.714  27.267  0.1715 -0.4132  0.2908
41452W        W84468   9.972   9.855  25.978 -0.0484 -0.5219  0.3257
41453W        W84469  28.961   4.462  16.655  0.0273  0.2987 -0.1874
41454W        W84470   2.527  10.359  15.912  0.0561  0.2220 -0.0919
41455W        W84471  16.756  13.233  27.534 -0.1299 -0.0354 -0.0753
41456W        W84472   8.697  12.569  20.502  0.0496  0.0488  0.0261
41457W        W84473   0.203   0.748  15.762  0.2010  0.0297 -0.1291
41458W        W84474  22.352   1.312  23.283  0.0749 -0.0466  0.1141
41459W        W84475   2.873  17.988  14.695 -0.1891  0.0466 -0.2064
41460W        W84476  13.363   1.127  27.202 -0.2384  0.2413  0.0663
41461W        W84477  12.719   2.510   3.826  0.1601  0.1749 -0.0459
41462W        W84478  27.652   4.962  15.736 -0.4742  0.0819  0.0339
41463W        W84479   7.151  16.685  20.300  0.0948 -0.1073 -0.3777
41464W        W84480   4.382  16.775  23.686  0.1760  0.3157  0.0536
41465W        W84481  30.597   8.644  20.666 -0.1029 -0.0760  0.2776
41466W        W84482   4.012  30.044  20.684  0.0599  0.1774  0.0300
41467W        W84483   2.797  20.614  22.960  0.0339  0.0025 -0.3375
41468W        W84484  23.855  23.615  26.408 -0.1640  0.0390  0.1616
41469W        W84485  24.143   7.262  20.597 -0.3278 -0.0612 -0.3147
41470W        W84486  11.768   1.320  23.583  0.1333  0.2389 -0.0202
41471W        W84487   0.791  25.615  25.197  0.3636 -0.0745 -0.1906
41472W        W84488  25.875  13.755  14.614 -0.1404  0.0330 -0.0386
41473W        W84489   2.611   6.728   4.186  0.0967  0.2870 -0.1230
41474W        W84490  16.347   5.446  10.428  0.2910 -0.1742  0.3144
41475W        W84491   1.535  17.071  14.774 -0.0799  0.1986  0.0002
41476W        W84492  10.401   7.965  21.394  0.0230  0.0887  0.0005
41477W        W84493  10.290  12.581  20.498 -0.1089 -0.2498  0.1373
41478W        W84494   5.024  12.728  18.668 -0.1146  0.0662 -0.1600
41479W        W84495   5.888   1.257  19.441 -0.0852  0.1226 -0.0319
41480W        W84496  20.554  14.888  12.863 -0.1455  0.1201  0.0449
41481W        W84497  12.822  21.317  14.714  0.2645 -0.1918 -0.2995
41482W        W84498  19.829   4.904  23.038 -0.0284 -0.0479  0.1337
41483W        W84499  33.317  18.000   8.286  0.1128 -0.0047 -0.1231
41484W        W84500  17.988  28.091  15.440 -0.1214  0.0005 -0.0451
41485W        W84501  11.085  20.112  18.663  0.3038 -0.0901  0.0180
41486W        W84502  12.943  15.999   1.227  0.1590  0.2400  0.1474
41487W        W84503   9.188  14.673  16.918 -0.0485  0.1747  0.1335
41488W        W84504  33.362  10.613  21.726  0.1970  0.2319 -0.1384
41489W        W84505   6.930  18.568  21.160 -0.0462  0.1304 -0.5131
41490W        W84506   9.322  17.881   2.517 -0.0960 -0.1496 -0.1772
41491W        W84507  16.420   9.184  17.907  0.0475  0.2470 -0.0593
41492W        W84508   1.692   1.924  17.395  0.0359  0.3325 -0.2226
41493W        W84509   2.922  30.819  26.144 -0.1958  0.0719 -0.2377
41494W        W84510  28.732  30.019   4.495  0.0607 -0.1631  0.0662
41495W        W84511   3.591   9.906  19.827 -0.0049 -0.1705 -0.1150
41496W        W84512  32.190  32.211  25.017  0.0600 -0.1051 -0.0563
41497W        W84513   7.975   7.696  22.557  0.0906  0.1298  0.2108
41498W        W84514   5.789  10.191  16.193 -0.0910 -0.0352  0.0401
41499W        W84515  33.099  15.198  19.225 -0.1912 -0.0976  0.0947
41500W        W84516   4.151   1.914  24.437  0.3567 -0.3793 -0.2530
41501W        W84517  23.433   8.531   0.732  0.0243 -0.1147  0.0325
41502W        W84518  12.434  15.194  16.328 -0.0329 -0.0408 -0.0898
41503W        W84519  13.937  16.961  12.249 -0.1674 -0.0673 -0.0871
41504W        W84520   9.535  18.260  21.476  0.4762 -0.0538  0.3318
41505W        W84521   4.427  12.834  15.584  0.0355  0.0823 -0.1225
41506W        W84522   0.101  25.267  16.788 -0.0529 -0.1727  0.0643
41507W        W84523   7.106  33.043  22.720 -0.0507  0.0477  0.0368
41508W        W84524  24.097  13.518  21.530 -0.1826 -0.1227 -0.0980
41509W        W84525  13.126   2.569  17.181 -0.1255 -0.2703  0.0389
41510W        W84526  33.914  29.384  16.755  0.1104  0.4694 -0.2379
41511W        W84527  20.567   0.449  16.966 -0.0163  0.3337  0.1269
41512W        W84528  22.335  24.206  17.445  0.0630 -0.2702  0.1618
41513W        W84529  18.020  16.068   6.098 -0.0321  0.3358  0.0705
41514W        W84530   8.955  34.054  21.147 -0.1028  0.0078  0.1672
41515W        W84531  11.246  11.672  18.754  0.0424  0.1291  0.2666
41516W        W84532  18.574   0.209  19.443 -0.2970  0.1234 -0.1904
41517W        W84533  15.942   4.956  29.292 -0.1620  0.0511 -0.0808
41518W        W84534  12.967   7.741  24.140 -0.0560  0.0271 -0.1427
41519W        W84535   7.303   5.749  18.669 -0.1038 -0.1521  0.0213
41520W        W84536  10.409  11.340   2.055  0.1399  0.0373  0.1603
41521W        W84537   8.652  25.003  20.476  0.1979  0.0528 -0.3342
41522W        W84538   0.430  22.814  24.114 -0.2007 -0.0163  0.0396
41523W        W84539   0.326  12.943  26.733  0.2394 -0.3393  0.2748
41524W        W84540  10.609   5.031  17.318 -0.1498  0.0142  0.0316
41525W        W84541  20.848  20.214  13.460  0.0905 -0.0562 -0.1463
41526W        W84542  22.148  13.684  20.802 -0.2278 -0.3192 -0.0178
41527W        W84543  13.020  15.473  15.126  0.0658  0.1481  0.1355
41528W        W84544  32.748  19.573  17.803  0.1252  0.0966  0.0896
41529W        W84545   3.816   5.696  20.510 -0.2049 -0.1992  0.1463
41530W        W84546  19.224   7.717  19.288  0.2030 -0.3697 -0.1036
41531W        W84547  31.231  15.545  25.511 -0.2046  0.1730 -0.0364
41532W        W84548  19.829  13.569  28.477  0.0568 -0.1137  0.3048
41533W        W84549   1.593   2.709   6.755 -0.3639  0.1607  0.2052
41534W        W84550   2.796   8.684   9.651 -0.1398 -0.0472 -0.0503
41535W        W84551  11.599  11.959  27.650 -0.3455 -0.0723  0.1535
41536W        W84552  12.613  21.879  24.842  0.0762 -0.1525  0.0401
41537W        W84553  10.444  16.346  21.499  0.1442  0.2146  0.0176
41538W        W84554  13.236  19.977  14.745  0.1827 -0.0190  0.0801
41539W        W84555  13.143   7.860  18.680  0.0560  0.0219 -0.3139
41540W        W84556  10.404   2.282   7.021 -0.0311  0.2032 -0.1465
41541W        W84557   5.597  25.774  28.146 -0.3172  0.2907 -0.0077
41542W        W84558  14.687  24.049  27.824  0.1857  0.0652 -0.2470
41543W        W84559  14.268   6.272  19.587  0.0579 -0.0191  0.1118
41544W        W84560   9.106   3.374  18.808  0.2820 -0.0684 -0.3022
41545W        W84561  34.767   8.647  25.489 -0.3301 -0.0988 -0.2440
41546W        W84562  22.637  11.457   0.721  0.3863  0.0483  0.1615
41547W        W84563   4.916  25.377  18.406  0.3426  0.4131  0.0899
41548W        W84564   9.891  18.520  19.797 -0.1209 -0.0719  0.0686
41549W        W84565   0.909  12.401  28.989  0.1766  0.1502 -0.0517
41550W        W84566  27.738   2.063  15.822  0.3454 -0.1749  0.2359
41551W        W84567   9.592  12.324  20.143  0.2048 -0.0157 -0.1407
41552W        W84568   6.991  12.952  29.196 -0.1816  0.1959  0.0594
41553W        W84569  10.874   7.881  23.259  0.3436 -0.0670 -0.3795
41554W        W84570  21.695  16.243  13.525 -0.1698 -0.2214 -0.2906
41555W        W84571  15.990  14.300   7.272  0.1386 -0.0011  0.0738
41556W        W84572   0.586   1.932  19.811  0.0833  0.1042 -0.0588
41557W        W84573  20.386  14.585  27.943  0.0989  0.3224 -0.2632
41558W        W84574  16.221   7.008   6.520  0.1301  0.0420  0.1113
41559W        W84575  15.095   9.849  13.582 -0.0589  0.1022  0.2456
41560W        W84576  28.304  13.600  14.377  0.0108  0.0927 -0.0477
41561W        W84577  25.144  30.453  20.298  0.2091 -0.6089 -0.0224
41562W        W84578   8.928  27.309  17.195 -0.0203  0.0735 -0.2819
41563W        W84579   1.214   9.485  21.546  0.2799 -0.0092 -0.1232
41564W        W84580   3.688  22.305  20.518  0.1406 -0.1806 -0.0171
41565W        W84581   1.392  11.886  20.754 -0.1017  0.1608  0.1150
41566W        W84582  14.184  11.216  14.962  0.2238  0.1061 -0.1166
41567W        W84583  25.952  20.172  21.715  0.1410  0.0974  0.0649
41568W        W84584  20.130   2.291  18.989  0.0580  0.0740 -0.2021
41569W        W84585  10.244  20.570  19.530  0.2784 -0.1563  0.0332
41570W        W84586  19.687  26.197  21.601 -0.3083  0.3243 -0.1506
41571W        W84587   5.776  23.036  24.235  0.0556  0.1186 -0.2318
41572W        W84588   0.386   9.699  23.625 -0.1040  0.0128  0.0980
41573W        W84589  10.832  13.424   4.981  0.1885 -0.0119  0.1264
41574W        W84590  16.282  18.478  24.916  0.1272  0.2195  0.2067
41575W        W84591  34.680   8.595  13.773 -0.1687 -0.0430 -0.0057
41576W        W84592  33.259  15.694  24.765  0.2072 -0.0481 -0.4248
41577W        W84593  16.017  25.465  26.479  0.0189  0.0645  0.0660
41578W        W84594  23.082  11.151  15.098 -0.0830  0.0880 -0.1986
41579W        W84595  25.510  18.663   1.300 -0.2429 -0.1337 -0.2412
41580W        W84596  10.624  18.789   3.713  0.1088  0.0489 -0.4491
41581W        W84597   9.295  30.301  21.706  0.0445 -0.1897 -0.3828
41582W        W84598   3.312  24.286  23.743 -0.0375  0.0834  0.0010
41583W        W84599  19.194  19.586  12.857 -0.2363  0.0893  0.2130
41584W        W84600  10.485  33.288   1.314 -0.2388 -0.0774  0.2968
41585W        W84601   4.635  28.367  24.284 -0.0727 -0.0723 -0.0339
41586W        W84602   3.138  11.306  26.535  0.0096  0.2549 -0.0603
41587W        W84603   2.347  19.318   1.686 -0.3362  0.1913  0.1463
41588W        W84604  15.092   6.740  19.741  0.2039 -0.3047 -0.1343
41589W        W84605  15.585  20.728  12.662 -0.0930 -0.1261  0.4292
41590W        W84606  10.933  19.239  24.390 -0.1058 -0.2320 -0.0729
41591W        W84607   0.086  19.085  15.476 -0.0651  0.0200 -0.2977
41592W        W84608   6.717  11.551  24.756  0.0852 -0.1705  0.0078
41593W        W84609  21.544  11.497  13.215 -0.0228 -0.0000 -0.0777
41594W        W84610  28.268  25.147  18.983  0.2903  0.1417 -0.0418
41595W        W84611  11.097  32.678   2.808  0.2310  0.2371 -0.2472
41596W        W84612  22.453  22.608  20.468  0.1241  0.1395  0.2796
41597W        W84613  14.736   2.426  17.186 -0.1673 -0.0960  0.2360
41598W        W84614  21.282  10.166  21.434  0.0545 -0.0752  0.2511
41599W        W84615   5.136   7.703   9.194  0.0736  0.5159 -0.0536
41600W        W84616  16.404   9.350  28.800 -0.1322 -0.0869  0.0754
41601W        W84617  17.565  13.679  26.150 -0.0566 -0.0429  0.0904
41602W        W84618  11.688  34.661  25.225  0.0397  0.1862 -0.0466
41603W        W84619   9.053  27.853  24.637  0.2576 -0.2043 -0.1031
41604W        W84620  13.191  29.596   3.823 -0.2361  0.0791  0.0366
41605W        W84621  10.052  25.737  14.576 -0.0704 -0.0875  0.0107
41606W        W84622   3.061  20.268  16.956 -0.0858 -0.1755 -0.0868
41607W        W84623  16.670  15.546  23.491  0.2301  0.2504 -0.1665
41608W        W84624  14.202  10.739   0.656 -0.3313  0.1371 -0.0942
41609W        W84625   8.170   8.126  20.768 -0.1959  0.2512  0.0885
41610W        W84626  30.922   5.832  19.858  0.0032 -0.1449 -0.1047
41611W        W84627   7.291  23.184  15.788 -0.3470  0.2348  0.0184
41612W        W84628   6.826  22.174  21.348 -0.1264  0.1027 -0.2383
41613W        W84629   4.676  21.470   0.347 -0.2508 -0.1211  0.3501
41614W        W84630   5.426  16.035  16.075 -0.0734  0.0331  0.3481
41615W        W84631  14.864   9.033  28.804  0.0594 -0.0730  0.0260
41616W        W84632   8.614  16.177  21.051 -0.0167  0.0977  0.3776
41617W        W84633   0.549   8.531   3.895  0.0171  0.1555 -0.0556
41618W        W84634  13.629  17.197  22.714 -0.0484  0.0990 -0.2926
41619W        W84635  11.624  32.740  20.824  0.0607 -0.0673  0.1554
41620W        W84636  15.085  29.111  22.460 -0.0740  0.1962  0.0451
41621W        W84637  20.399   0.962  16.587 -0.4540 -0.1583 -0.0212
41622W        W84638  14.958  13.800  20.963 -0.4687  0.0727 -0.1713
41623W        W84639   0.150  16.824  22.558 -0.0786  0.3167 -0.0682
41624W        W84640   8.483  12.501  22.874  0.0387  0.0621 -0.0786
41625W        W84641  13.562  18.807  22.206  0.1576 -0.2161  0.0879
41626W        W84642   4.206   6.960  27.812  0.0388 -0.3152 -0.0321
41627W        W84643   9.386   1.179  17.764  0.1113  0.1833  0.0185
41628W        W84644   8.018  17.406  25.865  0.1615  0.1414  0.2218
41629W        W84645  17.570  20.936   8.504 -0.0720 -0.1915 -0.0006
41630W        W84646  19.753  18.579   5.517 -0.1819  0.3693  0.1051
41631W        W84647  17.418   6.979   5.066 -0.1612  0.0605  0.4352
41632W        W84648  26.965   8.590  25.308 -0.0956 -0.3265  0.2227
41633W        W84649  24.887  14.783   3.251  0.0836 -0.1112  0.2094
41634W        W84650  26.103  18.479  19.979  0.1500 -0.0744  0.0523
41635W        W84651  30.541  19.949  23.061  0.0103 -0.1049 -0.3242
41636W        W84652   2.240  13.469  25.300 -0.2643  0.0178 -0.0402
41637W        W84653  12.598  31.695  22.534 -0.0870  0.1685 -0.0334
41638W        W84654  22.930   5.038  26.383 -0.0547  0.2580  0.1068
41639W        W84655   0.060   6.497  24.424 -0.1111  0.4281 -0.0279
41640W        W84656  11.326   2.394  20.373  0.0678  0.1339  0.3194
41641W        W84657   3.618  11.798   3.498 -0.3202 -0.0542 -0.0051
41642W        W84658  14.026  22.535  13.631  0.0961 -0.1183 -0.2864
41643W        W84659  10.713  34.408  21.765  0.3394  0.2608  0.2132
41644W        W84660   1.740   4.470  26.443 -0.1366  0.0196  0.1500
41645W        W84661  20.558   3.996  18.126 -0.0421 -0.0638  0.1828
41646W        W84662   2.697  32.233  19.828  0.0200 -0.0465  0.0975
41647W        W84663  19.852  14.062  16.622 -0.1464 -0.2844  0.1795
41648W        W84664  14.568  17.901  13.546  0.0005 -0.3916 -0.1093
41649W        W84665  11.017  33.024  20.291  0.0447  0.3911  0.1451
41650W        W84666  11.267   2.963  23.239 -0.2339 -0.0207  0.0194
41651W        W84667  11.823  11.691  26.046 -0.1425  0.0607 -0.0069
41652W        W84668  13.819  19.613  15.410  0.4205 -0.0952 -0.1589
41653W        W84669  13.881   7.046   1.807 -0.1348 -0.1042  0.1038
41654W        W84670  16.822  10.639   3.118 -0.4201 -0.1386  0.3589
41655W        W84671  20.379  12.144  26.973 -0.2106  0.3403 -0.1838
41656W        W84672   5.748  12.368  20.252  0.1689 -0.1731  0.2503
41657W        W84673  27.163  20.860  26.037 -0.1992  0.2882 -0.2865
41658W        W84674  32.078  23.165  19.765  0.1248  0.2797  0.4733
41659W        W84675   5.660  10.690  18.176  0.3390  0.0064 -0.2871
41660W        W84676  12.864  34.372  15.443  0.3432 -0.1056 -0.1849
41661W        W84677   7.636  18.250  26.482  0.3931  0.0347  0.1456
41662W        W84678  14.705  13.485  13.993  0.2392 -0.3376  0.1185
41663W        W84679   7.347   7.732  18.528  0.1572 -0.1363  0.1937
41664W        W84680  19.722  12.802  27.052 -0.2040 -0.1808  0.0621
41665W        W84681  11.635   9.398  23.748  0.0994 -0.1092 -0.6347
41666W        W84682   0.011   4.126   5.507  0.0186 -0.2301  0.1185
41667W        W84683   5.495  11.810   0.689  0.4569 -0.2344  0.0293
41668W        W84684  32.811  28.314  20.279  0.2390  0.3008 -0.0279
41669W        W84685  14.185   0.247  17.718  0.2884  0.3029  0.1097
41670W        W84686  33.772  17.578  16.414 -0.1167  0.2130  0.1405
41671W        W84687  33.335   2.069  25.930 -0.2176  0.1775  0.1922
41672W        W84688   6.516  27.042  22.436 -0.1604  0.0646  0.1875
41673W        W84689   8.528  14.415  20.226  0.1798  0.0359  0.2839
41674W        W84690  21.979   8.381  24.598  0.0513 -0.3120 -0.1209
41675W        W84691  33.239  13.572   1.793  0.2274 -0.1708  0.0462
41676W        W84692  18.466   3.337  16.778  0.1450  0.1666 -0.1054
41677W        W84693   1.623  19.457  20.828 -0.4414  0.1032  0.2834
41678W        W84694   4.730  33.241  14.195  0.1334  0.0263  0.1771
41679W        W84695   4.962   4.471   1.743 -0.4879 -0.1918  0.1006
41680W        W84696  34.277  14.260  15.469  0.1120 -0.1492 -0.1822
41681W        W84697  10.330  33.459  14.856 -0.0084 -0.0475  0.1552
41682W        W84698  12.650  32.207  15.943 -0.2781 -0.1643  0.0602
41683W        W84699   2.509  16.603  21.803 -0.4083 -0.1592 -0.1492
41684W        W84700   9.532  32.317  22.429 -0.2838 -0.0626  0.0738
41685W        W84701  22.275  16.765  20.516  0.1330 -0.0857  0.0594
41686W        W84702  26.599   1.105  26.920  0.0922 -0.2340  0.1696
41687W        W84703  21.809   8.458   5.959  0.1104 -0.2114  0.2375
41688W        W84704  21.779   4.764  21.732 -0.2845  0.0026 -0.3299
41689W        W84705  11.632  22.316   4.832  0.1023  0.2831 -0.0098
41690W        W84706  18.343  26.857  28.260  0.1930  0.2230  0.1670
41691W        W84707   1.165  26.712   4.146  0.0182  0.2943  0.1957
41692W        W84708  14.229  11.817  28.333 -0.0920  0.1687  0.2397
41693W        W84709  17.497  10.011  19.103 -0.0111  0.1526 -0.1446
41694W        W84710  32.609   8.691  19.060 -0.1970 -0.0197  0.0665
41695W        W84711   8.975  30.690  10.139 -0.1472 -0.0767 -0.0275
41696W        W84712  31.705   1.334  18.175 -0.0249  0.1594  0.2255
41697W        W84713  23.556  24.800   2.117  0.1378 -0.0369 -0.0410
41698W        W84714  30.481  27.057   3.218 -0.1278  0.1068  0.0194
41699W        W84715   4.665  20.517  13.054 -0.3383 -0.0541  0.1205
41700W        W84716  28.936  15.603  13.606 -0.1517 -0.2740  0.0501
41701W        W84717  23.278  16.574  27.059 -0.2199 -0.0017 -0.0987
41702W        W84718  11.548  19.234  23.308 -0.1059  0.1576  0.0118
41703W        W84719   7.535  17.646  17.309 -0.5213  0.0445  0.0716
41704W        W84720  22.247  14.006  19.050 -0.0835 -0.0734  0.1105
41705W        W84721  32.183  23.346  19.279 -0.0826 -0.0656  0.2444
41706W        W84722  14.117  31.636  20.577 -0.0829 -0.1502  0.2600
41707W        W84723   6.506  27.969  23.154 -0.1351  0.1058 -0.0806
41708W        W84724  22.844  28.209  27.293 -0.1749 -0.1125  0.1919
41709W        W84725   2.439  24.166  14.647 -0.1127 -0.0050  0.1288
41710W        W84726  30.928  10.103  28.520  0.0141 -0.2409  0.2543
41711W        W84727  16.155  33.333  20.582  0.0332  0.0513  0.1696
41712W        W84728  12.375   5.620   4.652  0.0713  0.0129 -0.0535
41713W        W84729   4.199  22.697   6.797  0.3170  0.1465  0.0971
41714W        W84730  24.956  16.576  19.365 -0.3698 -0.1752  0.2661
41715W        W84731  12.311  21.192  27.244 -0.0932 -0.1795 -0.1347
41716W        W84732  30.007  18.115  22.181  0.1404  0.2818  0.2174
41717W        W84733   5.591  10.459   2.459  0.0229 -0.4388  0.0409
41718W        W84734   7.686  18.985  17.362 -0.2409  0.2410 -0.1940
41719W        W84735  20.673  28.862  24.129 -0.2278 -0.2172 -0.2732
41720W        W84736   9.006  10.357   0.033 -0.0045 -0.1714 -0.0578
41721W        W84737  25.972  10.845   6.291 -0.1183 -0.0493 -0.0735
41722W        W84738  21.178  16.103  13.633  0.0363  0.3357 -0.2059
41723W        W84739  10.564  11.149  15.521  0.0151  0.3079  0.0931
41724W        W84740   7.732  10.687  27.368 -0.3749  0.1421  0.1810
41725W        W84741   3.570   3.998  10.001  0.2123  0.1361  0.1897
41726W        W84742   2.328  15.662  22.966  0.2819 -0.1342  0.1685
41727W        W84743  34.567  27.988  17.134  0.3568  0.1554 -0.3040
41728W        W84744   0.414  31.328  20.989 -0.1894 -0.3121  0.1166
41729W        W84745   9.933   3.595  17.081 -0.1910 -0.0244  0.1194
41730W        W84746  16.318   8.332  17.892  0.0438 -0.2025 -0.1848
41731W        W84747   8.608  19.393   1.362  0.0615  0.1912 -0.0174
41732W        W84748   6.256   7.571  17.344  0.1496  0.1096 -0.0238
41733W        W84749   7.032  20.758   6.582 -0.0124 -0.3162 -0.1101
41734W        W84750   3.556  26.886  16.806  0.1157 -0.4962  0.3531
41735W        W84751  12.598  14.641  16.341 -0.1383 -0.1877  0.1935
41736W        W84752   6.052  16.252  26.553  0.0955  0.2892 -0.1827
41737W        W84753  33.659   9.688   1.917 -0.2824  0.1310 -0.0950
41738W        W84754  34.778  22.745  25.139  0.0296 -0.0302  0.0843
41739W        W84755  17.157  21.303  14.706  0.2025  0.1161  0.0565
41740W        W84756   3.771  27.868  14.998  0.0798 -0.0571 -0.2041
41741W        W84757  12.319  19.247  25.066 -0.0025  0.0636  0.0786
41742W        W84758   8.761  20.344  17.415 -0.2064  0.0025  0.1901
41743W        W84759  19.778  10.552  16.780  0.0445 -0.3676  0.0610
41744W        W84760  29.241  30.497  23.946  0.1276 -0.0773  0.2875
41745W        W84761  23.840  24.278  19.511  0.0601  0.4803 -0.0121
41746W        W84762  29.189   8.705  15.924  0.1625 -0.1468 -0.0021
41747W        W84763   0.874  23.529   4.609 -0.0200  0.0683  0.1207
41748W        W84764  27.244   1.725  29.105 -0.0328  0.0382  0.1168
41749W        W84765  10.955  11.081  14.289  0.0542 -0.2144 -0.0453
41750W        W84766  28.441   5.627  21.234 -0.1680  0.0408 -0.0715
41751W        W84767  21.951  24.047   2.323 -0.0162  0.2559  0.0080
41752W        W84768  14.236  13.889   2.106  0.3347 -0.0928  0.2037
41753W        W84769   4.357  33.412  22.365  0.1101  0.2935 -0.4083
41754W        W84770  17.076  10.655  16.119 -0.0940 -0.1929 -0.1607
41755W        W84771  14.047  28.284  29.111 -0.0116  0.0033 -0.2561
41756W        W84772  11.533   6.019   4.161  0.2762  0.0608 -0.0429
41757W        W84773  23.349  18.763  16.672 -0.1446  0.0212  0.1391
41758W        W84774   7.423  17.669  18.629 -0.2826 -0.2272  0.4236
41759W        W84775   2.763  34.744  18.870 -0.0487  0.1553 -0.0913
41760W        W84776   8.109  15.365  21.412 -0.4905  0.1677  0.0019
41761W        W84777  19.295  11.670  12.944 -0.1070  0.1059 -0.0430
41762W        W84778  33.033  21.799   8.355 -0.1904 -0.0211 -0.0750
41763W        W84779   7.138  14.727  16.786 -0.0764 -0.2195 -0.0904
41764W        W84780  14.335   9.577  13.239  0.0293 -0.0952 -0.2182
41765W        W84781  27.701   8.898   3.260  0.1237 -0.1941  0.2388
41766W        W84782  22.048   2.499   6.075  0.1141  0.2758 -0.1433
41767W        W84783   5.238  13.005   7.188 -0.4668 -0.2872 -0.1869
41768W        W84784   4.435  18.469  28.020  0.0994  0.0696 -0.1028
41769W        W84785  11.689  27.803  13.438  0.2274  0.0815 -0.0444
41770W        W84786   9.540  21.092  26.298 -0.1826 -0.0627  0.0101
41771W        W84787   9.676  23.967  14.429 -0.0976  0.0239  0.1623
41772W        W84788   6.416   6.913   1.109 -0.0397  0.0691 -0.2330
41773W        W84789  13.543  18.402   0.318 -0.0206 -0.0473  0.0283
41774W        W84790  33.743  25.384  23.346 -0.1931 -0.2975  0.1501
41775W        W84791   1.852  15.971  25.265 -0.2113 -0.0146  0.0048
41776W        W84792   7.703   1.398  26.771  0.3320  0.0770 -0.2089
41777W        W84793   0.309  25.083   5.447  0.1021  0.4797  0.2285
41778W        W84794  14.147   8.564  20.073  0.1077  0.1841  0.1100
41779W        W84795  14.189  21.688  22.794 -0.1263  0.1155 -0.3302
41780W        W84796  14.345  23.521  25.265  0.1523  0.1727 -0.3978
41781W        W84797  19.251  18.070  24.325 -0.2691  0.2620 -0.0506
41782W        W84798   3.543  26.435  21.768  0.0448  0.0246  0.0925
41783W        W84799  21.906  23.805  21.297 -0.0499  0.0004 -0.0050
41784W        W84800  15.874   6.817   6.168 -0.0285 -0.2623 -0.0788
41785W        W84801  32.086  30.094   8.187 -0.2274 -0.2718  0.1050
41786W        W84802   6.320   1.776   3.659  0.0744 -0.3448 -0.2922
41787W        W84803   1.039   2.763  10.722 -0.0148  0.1437  0.2758
41788W        W84804  17.107   4.065  29.143 -0.2169  0.2401 -0.0737
41789W        W84805  32.189  27.948   3.845  0.3879 -0.2947  0.0999
41790W        W84806   3.910  10.026  29.095  0.4427 -0.0364  0.1035
41791W        W84807  33.245  20.111   9.844  0.1171  0.2989 -0.0823
41792W        W84808   3.280  19.629  27.646  0.0989 -0.0080  0.2009
41793W        W84809   9.044  10.207  18.112  0.1066 -0.1440  0.1025
41794W        W84810  24.748  14.364   1.660  0.1090  0.1526 -0.0371
41795W        W84811  27.054  16.189  21.095 -0.0218  0.0161  0.2432
41796W        W84812  27.153   5.553  24.204 -0.1218  0.0309 -0.0086
41797W        W84813   9.048  14.286  15.717  0.0690  0.2689  0.0568
41798W        W84814   7.891   5.582  21.443  0.0951  0.0573  0.2002
41799W        W84815  33.345  27.061   3.688  0.1383  0.1307  0.0412
41800W        W84816   6.276  17.948  23.899 -0.4758  0.1639  0.0888
41801W        W84817  32.539  14.060  17.870  0.4543  0.1987  0.2801
41802W        W84818   1.779   4.657  16.022 -0.2182 -0.0196 -0.1679
41803W        W84819  12.231  23.061  23.962 -0.2660  0.1290 -0.1301
41804W        W84820   2.888  24.044   8.840 -0.0356 -0.1647 -0.1493
41805W        W84821  16.350  17.941  18.213  0.0225  0.0516  0.6088
41806W        W84822  15.337  27.116  14.023  0.1370 -0.1444  0.1604
41807W        W84823   9.995  15.589  18.893 -0.4730  0.2537  0.1325
41808W        W84824  15.001   0.005  24.752  0.1064 -0.3870  0.3031
41809W        W84825   1.658  20.521  24.117 -0.0933 -0.1831  0.0500
41810W        W84826  29.779  32.282   2.715  0.0029  0.1960  0.1226
41811W        W84827   2.210  15.650  15.196 -0.1092  0.2099  0.1763
41812W        W84828  16.030  12.318  15.733  0.1671  0.2447 -0.0774
41813W        W84829  33.274   6.062  17.199  0.1269 -0.3820  0.0573
41814W        W84830  11.866  34.690  24.614  0.1889  0.0376  0.2224
41815W        W84831   0.761  11.730   0.625 -0.0611 -0.1575 -0.1795
41816W        W84832   2.726  12.001  17.512  0.1003 -0.1477 -0.0346
41817W        W84833  20.005  24.111  17.538 -0.2331 -0.0490  0.0445
41818W        W84834  20.860  20.590   7.514 -0.1160  0.2022 -0.5045
41819W        W84835   9.119   8.928   4.189  0.2220  0.2169 -0.1587
41820W        W84836  27.724  28.261  25.486  0.1053 -0.1888  0.3970
41821W        W84837  14.400   3.707  18.753  0.1024 -0.0689 -0.0647
41822W        W84838  16.941  18.472   3.864  0.0900 -0.3313 -0.3043
41823W        W84839  31.056   2.419  19.005  0.1475 -0.1598  0.1442
41824W        W84840  11.126  15.509  17.205  0.0347 -0.0280  0.0726
41825W        W84841  18.342   9.448  19.205 -0.1495  0.1916 -0.0712
41826W        W84842  13.567  22.260  29.284 -0.2945  0.0875  0.1030
41827W        W84843   8.460   8.887   7.014  0.1628 -0.0514 -0.1200
41828W        W84844  12.852  22.526  26.466  0.0789  0.1933  0.1156
41829W        W84845  32.706  31.599  17.758  0.3443  0.1334  0.1574
41830W        W84846   4.077  12.166  25.481 -0.1127  0.1033  0.2468
41831W        W84847  25.865  16.883   2.307 -0.0714  0.1427 -0.2202
41832W        W84848   8.275  14.242   8.114 -0.1023  0.0075  0.3236
41833W        W84849   7.181  21.428  23.370  0.1037  0.3061 -0.0205
41834W        W84850  12.860  31.319  17.684 -0.1084 -0.0157 -0.0765
41835W        W84851   5.856   8.640   4.322 -0.0460  0.1796 -0.1151
41836W        W84852  14.793  11.953  23.112  0.3478 -0.0025  0.0858
41837W        W84853  29.830  16.315   2.296  0.0443  0.1684 -0.2327
41838W        W84854  19.826  16.854   7.440 -0.2004 -0.1261 -0.1154
41839W        W84855   6.623   4.489  27.285  0.0630 -0.1200 -0.2887
41840W        W84856  14.733   7.009   3.773 -0.2041  0.1020  0.0542
41841W        W84857  27.087   5.910  19.699 -0.0908 -0.1499  0.2104
41842W        W84858   4.238  32.689   1.070 -0.0740  0.1296 -0.0781
41843W        W84859  14.192  24.532  25.513 -0.0301 -0.0371 -0.0066
41844W        W84860   3.547   5.383   1.158  0.0275  0.2646 -0.2133
41845W        W84861   6.112  28.497  14.654 -0.1234  0.0388  0.0590
41846W        W84862  15.559  21.279   6.536  0.0140 -0.2690  0.0175
41847W        W84863  24.840  12.561  27.214 -0.0507 -0.0462  0.1233
41848W        W84864  10.949   3.151   0.054  0.1835  0.4087  0.1939
41849W        W84865  16.450  24.758   5.335  0.2950 -0.2722 -0.0127
41850W        W84866   0.934   7.210  18.983 -0.3892  0.0967 -0.1154
41851W        W84867   0.705  23.941  13.767 -0.0286 -0.3332  0.0653
41852W        W84868   9.380  20.747  24.551  0.0253  0.2027  0.2270
41853W        W84869   2.759  18.659  17.537  0.3187 -0.1603 -0.1234
41854W        W84870  13.791  11.676   0.803  0.4605 -0.0118 -0.2484
41855W        W84871  25.435   9.634   5.137  0.1334 -0.1866 -0.0192
41856W        W84872  14.641  23.279   3.816 -0.1309 -0.2280 -0.5116
41857W        W84873  22.608   4.508  22.775  0.1096 -0.1682 -0.0335
41858W        W84874  11.418   3.588  14.348  0.3316 -0.0588 -0.0749
41859W        W84875  26.057  12.698  25.115 -0.2572  0.4461 -0.1592
41860W        W84876  10.101   8.495  14.924 -0.0573  0.0733 -0.0987
41861W        W84877   5.187   2.196  22.745 -0.0951  0.0229 -0.0963
41862W        W84878  15.059   4.321  13.953 -0.0205  0.0989  0.3528
41863W        W84879  22.898  22.771  28.689 -0.1279 -0.3523  0.2364
41864W        W84880   9.905   2.953  27.235  0.0529  0.4472  0.1775
41865W        W84881   4.709  21.277   4.318  0.0344 -0.0095  0.1080
41866W        W84882  13.268  12.793   5.055 -0.1016 -0.0776 -0.0622
41867W        W84883  20.266  11.098  14.719 -0.3002 -0.1603 -0.0943
41868W        W84884   4.423   7.799  21.842 -0.0170  0.0591 -0.0598
41869W        W84885   3.067   7.383  25.145  0.3536 -0.0230  0.1377
41870W        W84886  13.952  15.618   2.619  0.1122  0.0284 -0.0556
41871W        W84887   5.142  28.998   9.263  0.1045  0.0069  0.2485
41872W        W84888  33.923  10.769   6.468  0.1937 -0.0142 -0.0283
41873W        W84889  29.059  13.119  16.716 -0.0678 -0.0727  0.1385
41874W        W84890  26.851  30.910  10.809  0.1759 -0.1048  0.5021
41875W        W84891   8.800  22.554  20.529 -0.2321 -0.0237 -0.2119
41876W        W84892   8.882  24.559  27.453  0.1784 -0.0444 -0.1857
41877W        W84893   2.967  20.812  21.922  0.1082 -0.2456 -0.0952
41878W        W84894  21.077   1.077   2.944 -0.1603 -0.2510 -0.0072
41879W        W84895  27.632   4.614  25.544 -0.0396  0.4205 -0.0483
41880W        W84896  22.196  14.296   4.398  0.1354  0.1085 -0.1606
41881W        W84897  10.345   7.235  18.370  0.2190 -0.2562  0.3311
41882W        W84898  14.998  19.610   0.462  0.1250 -0.0898 -0.1753
41883W        W84899   9.280  14.940  18.685 -0.0349  0.2528 -0.0538
41884W        W84900  15.976   0.553  26.621  0.1416  0.0320  0.0475
41885W        W84901  29.651  21.654   4.090  0.1368  0.2363 -0.0753
41886W        W84902  20.345   4.414  16.556 -0.0977  0.2103  0.0363
41887W        W84903  27.971  31.623   7.721  0.0705  0.3469 -0.1635
41888W        W84904   1.483  16.086  19.718  0.0418  0.1283 -0.1677
41889W        W84905   4.636  11.193  27.525 -0.1252 -0.0527  0.2586
41890W        W84906   5.906  31.962  20.544  0.0250  0.3388 -0.0594
41891W        W84907  29.635   8.955   1.938  0.0224 -0.0341 -0.0316
41892W        W84908  23.257  12.526  14.770  0.1348  0.0575 -0.0378
41893W        W84909  26.690   8.576  24.345 -0.2320  0.4771  0.1204
41894W        W84910  27.966  10.518  16.877  0.1072 -0.0217  0.0612
41895W        W84911   7.707  22.774  12.901  0.0085  0.0945 -0.1862
41896W        W84912  14.568  12.688   1.882  0.0931 -0.2261  0.4160
41897W        W84913   9.805  17.825   0.084 -0.3012 -0.0890  0.2254
41898W        W84914   2.489   2.715  28.499  0.0584  0.2465 -0.0170
41899W        W84915  21.813  31.865  17.410  0.0388 -0.2910 -0.0580
41900W        W84916  29.331  14.637  21.404  0.2511  0.2185  0.1618
41901W        W84917  14.727   8.385  21.131  0.4157 -0.2200 -0.2298
41902W        W84918   3.637  16.294  16.723 -0.3481 -0.2904 -0.0537
41903W        W84919  30.104  13.627  14.341 -0.1058 -0.2593  0.0144
41904W        W84920   9.539   5.951  26.518 -0.0987 -0.1216 -0.1349
41905W        W84921   3.269  13.030   6.171  0.1259  0.1504  0.0700
41906W        W84922  11.698  15.394  21.170 -0.1786  0.0945  0.0444
41907W        W84923   5.199   4.668  20.717  0.0127 -0.3437 -0.5621
41908W        W84924  10.922  12.170  26.114  0.0470  0.2408  0.0111
41909W        W84925  15.697  31.617  18.196 -0.3562 -0.0994 -0.2471
41910W        W84926   3.731  31.621   0.812  0.2621 -0.1250 -0.0395
41911W        W84927   6.319  25.069  18.641 -0.0574 -0.0382 -0.0356
41912W        W84928   3.216  12.407  14.090  0.0163  0.2586 -0.1327
41913W        W84929   5.694  23.248  28.283  0.0887  0.3814 -0.1795
41914W        W84930  21.600   9.844   1.421 -0.1148  0.0387 -0.0505
41915W        W84931   5.775  12.367   8.313 -0.1567  0.0719 -0.1768
41916W        W84932  17.656  20.993  22.790 -0.1443 -0.1237  0.1576
41917W        W84933  14.255   7.496   4.643 -0.1266 -0.3537 -0.4554
41918W        W84934   9.935   2.751  16.777  0.1662 -0.2664 -0.1678
41919W        W84935  34.145  24.915  15.921  0.1030 -0.0389 -0.2026
41920W        W84936   2.381   6.649  17.734 -0.2973 -0.0283 -0.1067
41921W        W84937   4.359  15.241  15.758 -0.0971 -0.4202  0.3373
41922W        W84938  14.543  24.094  19.705 -0.2422  0.1254  0.0897
41923W        W84939   8.123  10.875  15.153  0.1063  0.0919  0.0387
41924W        W84940   1.972   2.983   1.538 -0.0207  0.3979 -0.0794
41925W        W84941   2.941  33.406  19.858 -0.1843 -0.1248 -0.0768
41926W        W84942   8.527   1.812  22.976  0.0106  0.0347  0.1535
41927W        W84943  28.269  18.256   6.442  0.0270  0.0535 -0.5449
41928W        W84944   9.783  17.410  21.476  0.4683 -0.0729  0.0665
41929W        W84945  26.630  12.235  21.602  0.0925 -0.0848  0.1565
41930W        W84946   7.161   8.565  10.449  0.0688 -0.2092  0.2941
41931W        W84947  11.514   0.415   4.154 -0.1998 -0.1690 -0.0568
41932W        W84948   1.526   3.019   8.512 -0.0282 -0.1586 -0.0640
41933W        W84949  17.428  20.804  25.820  0.0204 -0.0451 -0.5009
41934W        W84950   5.903   7.896  22.995 -0.1163  0.3326  0.0766
41935W        W84951  19.778  30.017  21.465  0.2117 -0.0135 -0.3030
41936W        W84952   1.956  14.974  26.781  0.2051  0.7291 -0.3852
41937W        W84953  15.427   8.294  25.128 -0.1299 -0.3370  0.1730
41938W        W84954  17.507  31.041  21.298  0.1140  0.0565  0.0115
41939W        W84955  33.626  25.248   6.088 -0.0531 -0.0389  0.0230
41940W        W84956  12.386   8.197   6.641 -0.3272  0.0734  0.0198
41941W        W84957  16.166   7.235  24.562 -0.2111  0.1688  0.0617
41942W        W84958   2.171   5.719  25.000 -0.0890  0.2341  0.0422
41943W        W84959  10.124   5.898  21.951 -0.0972  0.0875 -0.2753
41944W        W84960  19.943   8.675   1.325 -0.1780  0.0455  0.2338
41945W        W84961   8.722  10.942  18.323  0.0775  0.0733  0.3946
41946W        W84962  30.367   6.474   1.332 -0.1061 -0.0560  0.0562
41947W        W84963  34.025   6.132  21.582  0.1140  0.2282 -0.0458
41948W        W84964   1.984  10.002  16.662  0.0648  0.0933 -0.1425
41949W        W84965  22.596  12.622   4.765 -0.0733  0.1755 -0.0245
41950W        W84966  28.989  12.242  25.404 -0.2769  0.1469 -0.0003
41951W        W84967  19.496  11.903  25.850  0.1138 -0.1767 -0.0518
41952W        W84968   6.135  14.939   3.836  0.1400 -0.1591  0.1037
41953W        W84969  14.434   6.967  28.971 -0.3419 -0.1046 -0.3117
41954W        W84970   0.964   9.674  20.969 -0.0274 -0.1296 -0.0587
41955W        W84971   4.824   6.488  28.681  0.0967 -0.0854  0.0349
41956W        W84972  33.147  11.461  25.670 -0.2666  0.2207  0.0360
41957W        W84973   3.563   8.181  27.844  0.3798 -0.1212 -0.3130
41958W        W84974   1.719  18.981   1.006  0.1125 -0.1277 -0.0602
41959W        W84975  11.602  22.913  25.088  0.0467 -0.2112 -0.1517
41960W        W84976  16.222   3.472  14.554 -0.1051 -0.1567  0.2091
41961W        W84977  17.254  12.352  13.627  0.1271  0.2807  0.0989
41962W        W84978   1.207  18.132  24.964  0.1521  0.1320  0.3855
41963W        W84979   6.524  20.104  18.875 -0.3095  0.0341  0.3973
41964W        W84980  29.180   5.764   6.776 -0.1299 -0.0621 -0.0237
41965W        W84981  17.052   8.037  16.276  0.2161 -0.0421  0.0663
41966W        W84982   2.497  29.772   2.154  0.0628  0.0252  0.0949
41967W        W84983   3.987  29.776   5.121  0.4027  0.0881 -0.0782
41968W        W84984  30.650  22.570   3.266 -0.0476  0.1908 -0.0702
41969W        W84985  10.476  23.018  20.240  0.4143 -0.0012 -0.1503
41970W        W84986  10.123   3.517  27.120 -0.3119 -0.2806 -0.1069
41971W        W84987  17.067  17.935  24.111 -0.2292  0.0430  0.2361
41972W        W84988   7.904  14.517   1.346  0.2267 -0.1879 -0.1333
41973W        W84989   0.945  33.551  19.670 -0.2510  0.1033 -0.1972
41974W        W84990  11.132   3.738   1.883 -0.1742 -0.2847 -0.1371
41975W        W84991  29.128  17.247  15.104  0.2266  0.1432 -0.0734
41976W        W84992   8.065  14.772  19.402  0.0791 -0.0173  0.1460
41977W        W84993  30.457  28.267  10.970  0.0617 -0.0175 -0.2912
41978W        W84994   4.779   2.588   6.771 -0.1110  0.2012  0.1939
41979W        W84995   4.675  18.320   7.974 -0.1710 -0.2502 -0.0344
41980W        W84996  11.895   7.050   3.518  0.2243  0.1613 -0.1415
41981W        W84997  23.744  31.059  22.307  0.1882 -0.0564  0.0231
41982W        W84998  34.001   5.778   7.589 -0.2411  0.5342 -0.2766
41983W        W84999   7.647  10.294  21.195 -0.0491 -0.2335  0.0178
41984W        W85000   2.524  11.076  24.320  0.0508 -0.0952 -0.3049
41985W        W85001   6.275  23.045   7.335 -0.0913 -0.2156 -0.0149
41986W        W85002   5.618  15.900  24.198 -0.0703 -0.2183 -0.1081
41987W        W85003  11.295  20.789  16.214  0.1075  0.1363 -0.1863
41988W        W85004  33.310   9.569   2.298 -0.0641 -0.2054  0.0948
41989W        W85005  10.213  20.371  16.663 -0.3400 -0.0828 -0.0050
41990W        W85006   6.381   3.745  28.209 -0.0967  0.0951 -0.2029
41991W        W85007  15.033  10.736  18.666  0.4330  0.1702 -0.2753
41992W        W85008  33.848  20.607  28.788  0.1823 -0.0861  0.0643
41993W        W85009   1.211  31.225   4.012  0.0770  0.0707 -0.0758
41994W        W85010  24.581  26.048  10.723 -0.0506 -0.3674 -0.0113
41995W        W85011   7.049  19.601   7.614 -0.2717 -0.3232 -0.1971
41996W        W85012  15.625  19.344  28.445 -0.0020 -0.3655  0.0734
41997W        W85013  34.730  28.596  25.707 -0.1746  0.0133  0.4512
41998W        W85014   0.426  11.715  27.478  0.0708 -0.1224  0.1123
41999W        W85015   2.401   2.393  22.184  0.1813 -0.0642  0.2829
42000W        W85016  23.569  20.007   5.533  0.0375 -0.1651 -0.0833
42001W        W85017  28.257  18.836   2.718  0.0150 -0.0376  0.0365
42002W        W85018  10.252  20.448  15.771 -0.3360 -0.1336  0.0678
42003W        W85019   5.000   8.129   0.423  0.1252  0.2461  0.2632
42004W        W85020   8.852  10.393  23.491 -0.1164 -0.0332 -0.1096
42005W        W85021   0.619   0.849   4.436  0.0256  0.1091 -0.0044
42006W        W85022   0.552  28.806   7.540  0.1533 -0.0851  0.2152
42007W        W85023  11.435  12.290  12.554  0.0786 -0.0882  0.0688
42008W        W85024  31.047   5.076  15.221  0.0826 -0.3359 -0.0996
42009W        W85025  20.333  24.607  13.238 -0.1543 -0.3357 -0.2239
42010W        W85026  26.539  16.245  15.527  0.1158  0.0972  0.1726
42011W        W85027  18.125  22.287  28.692 -0.1392 -0.2017 -0.0288
42012W        W85028   1.713  34.095   6.822  0.0233  0.2127  0.2689
42013W        W85029  17.845  17.732  21.238  0.2146  0.4558  0.2948
42014W        W85030  28.519   2.492   7.249  0.0154 -0.1960 -0.1192
42015W        W85031   9.121  19.827   2.449 -0.3199 -0.0912  0.1848
42016W        W85032   0.477  14.173   5.734 -0.3192 -0.1298  0.0221
42017W        W85033   2.981  31.887   3.945  0.1184  0.0339 -0.4932
42018W        W85034  20.842   4.261  24.053 -0.2016 -0.2558  0.2910
42019W        W85035  22.111  30.520  17.690  0.1015  0.1049 -0.2321
42020W        W85036   1.673  13.369  27.136 -0.1309  0.1177  0.3869
42021W        W85037  15.593  21.060   8.578  0.1641 -0.0646  0.0271
42022W        W85038   3.817  28.475   5.477  0.0218  0.1684 -0.2494
42023W        W85039  18.505  15.245  20.278 -0.3610 -0.6117  0.0340
42024W        W85040  14.019  27.808  24.203 -0.0872 -0.1309 -0.2780
42025W        W85041  27.110   6.999  29.312  0.1104 -0.1686  0.0753
42026W        W85042   7.209   4.838  24.271 -0.3267 -0.2616 -0.2462
42027W        W85043   0.343  23.513  26.223 -0.1963  0.0627  0.0312
42028W        W85044  33.539   7.863   3.646 -0.1153  0.1864 -0.1245
42029W        W85045  15.003  30.389   5.839  0.0847  0.1407  0.2021
42030W        W85046  20.505   9.429  16.347  0.1130 -0.1132 -0.2461
42031W        W85047  15.559   3.511  27.606 -0.1846 -0.3027 -0.2870
42032W        W85048  24.238   4.749   7.128 -0.1760 -0.2879  0.1990
42033W        W85049  20.348  24.425  21.946  0.0715  0.0418  0.0077
42034W        W85050   6.611  16.287  23.503  0.0296 -0.1827  0.0173
42035W        W85051   5.462   0.429   2.521  0.2035 -0.1703 -0.1523
42036W        W85052  16.793  17.302  25.488 -0.2463  0.2334 -0.0093
42037W        W85053  34.660   0.928   2.883 -0.3275  0.1757  0.1983
42038W        W85054  34.667   2.369  27.773 -0.0688  0.1349  0.0458
42039W        W85055   2.136   0.116   1.011  0.0527 -0.0093  0.3793
42040W        W85056  14.782  17.199  22.890 -0.0160  0.2926  0.3947
42041W        W85057  10.029  31.906  28.057  0.0265  0.0397 -0.1378
42042W        W85058  15.450  23.082  21.036  0.0868  0.3172 -0.3526
42043W        W85059   0.103  11.707  29.164 -0.0357  0.3094  0.0155
42044W        W85060   8.297  21.100   7.594  0.2969 -0.1765 -0.0733
42045W        W85061   4.766  12.004   7.994  0.2217  0.3363 -0.0232
42046W        W85062  14.403   6.531   4.158 -0.1749 -0.0057  0.0471
42047W        W85063  16.043  17.624  18.705  0.2264  0.2488 -0.1275
42048W        W85064  14.430   8.972   4.384  0.1335  0.2798 -0.3892
42049W        W85065  21.849  14.122  19.303  0.0188  0.2058 -0.0464
42050W        W85066  18.213  20.267  23.697  0.1321  0.1571  0.5276
42051W        W85067  28.130  13.616   3.726 -0.0051 -0.2463 -0.3421
42052W        W85068  28.248  34.498  17.814 -0.1408  0.1750  0.2789
42053W        W85069   7.622  20.589  20.401 -0.1642  0.0752  0.1409
42054W        W85070  33.562  12.541  27.544 -0.1303  0.0905  0.0210
42055W        W85071   2.399   5.183   8.975  0.1728 -0.0426  0.0003
42056W        W85072  24.442  13.971  15.840  0.3174  0.1965  0.0750
42057W        W85073  34.513  22.253  26.699 -0.0473  0.1473  0.0508
42058W        W85074   8.731  12.749  19.104  0.0024  0.2117  0.3818
42059W        W85075   7.032  14.863  13.421  0.1291  0.0330 -0.0594
42060W        W85076  10.809  33.181   8.196  0.1210  0.2794  0.1353
42061W        W85077  20.791  21.131  24.789 -0.0200 -0.1844  0.0611
42062W        W85078  11.653  17.867  22.134  0.0727  0.0687  0.1147
42063W        W85079  15.171  24.817  20.695  0.2913  0.0532  0.0220
42064W        W85080  26.617  20.440  18.029 -0.2470 -0.0302 -0.2690
42065W        W85081  14.283   5.835   2.301 -0.0324  0.0782  0.0049
42066W        W85082  33.565  14.745   4.833  0.2214  0.2557 -0.1752
42067W        W85083  32.471  26.031  25.555 -0.0552  0.1478  0.2133
42068W        W85084   5.996  15.315   4.612 -0.1803 -0.0413  0.4096
42069W        W85085  13.320  31.601  27.027 -0.0437  0.0951  0.1373
42070W        W85086  19.148  11.996  15.647  0.1306 -0.0616 -0.0592
42071W        W85087  14.101  11.564   2.853 -0.3005  0.1767 -0.0424
42072W        W85088  10.891  29.651  17.942 -0.1305  0.1693 -0.1802
42073W        W85089   6.796  14.672   7.173 -0.4142 -0.3022 -0.0951
42074W        W85090  15.271  30.423  26.532 -0.2110  0.3011  0.2038
42075W        W85091   3.356  14.082   1.670  0.0080  0.1119  0.3182
42076W        W85092  18.866  34.257   8.735  0.2361  0.2026 -0.1589
42077W        W85093   4.725  27.946  15.648 -0.2724 -0.2736  0.0941
42078W        W85094  13.695  24.805  17.387 -0.4235  0.3455  0.8756
42079W        W85095   1.787  20.630  27.907 -0.0690 -0.2124 -0.3622
42080W        W85096  11.434  16.205   5.968  0.2894  0.2083  0.0468
42081W        W85097  13.957  19.394   6.313 -0.1328 -0.2038 -0.3862
42082W        W85098   4.476  28.396   9.908 -0.0256  0.0741  0.2126
42083W        W85099  32.752  25.812   6.560 -0.0800  0.0364 -0.0695
42084W        W85100  23.902   5.853   1.674 -0.0954  0.0906 -0.1876
42085W        W85101  19.233  12.066  22.163  0.0640  0.1333 -0.5149
42086W        W85102  10.060   8.471  27.973  0.0028 -0.2787 -0.0517
42087W        W85103  32.519  18.541   6.825  0.1770  0.0973 -0.0838
42088W        W85104  33.211  34.040   2.584 -0.2345  0.0818 -0.1122
42089W        W85105  13.291   7.737   2.660  0.0520  0.1300 -0.0873
42090W        W85106   8.596  13.760   3.917  0.1501  0.0677 -0.0709
42091W        W85107   5.653  29.958  18.430 -0.0571  0.1122 -0.1481
42092W        W85108   6.772  24.211  29.157 -0.1707  0.5219 -0.0784
42093W        W85109  10.469  25.730  17.808 -0.0733 -0.3051  0.1600
42094W        W85110  10.547  15.142  21.661  0.2034 -0.0384  0.5471
42095W        W85111  31.343   5.677   4.112 -0.5646 -0.0063 -0.2930
42096W        W85112  19.584   8.420  17.623  0.1658 -0.2685 -0.0191
42097W        W85113  19.285  10.345  19.788  0.4464 -0.2450 -0.1896
42098W        W85114  17.454  22.151  27.970 -0.1513  0.1088  0.0254
42099W        W85115   7.594  12.799  23.732  0.2032  0.2147  0.4407
42100W        W85116  18.324  23.532  24.899  0.2900 -0.0284 -0.1081
42101W        W85117   1.044   4.473  24.322  0.0072 -0.0174 -0.2717
42102W        W85118  10.253   6.021   7.178 -0.3275  0.0941  0.1617
42103W        W85119  19.491   5.895  24.113 -0.1697 -0.0830 -0.0868
42104W        W85120   3.290   8.587  28.902  0.1844  0.1987 -0.0135
42105W        W85121  12.328  32.068  23.980  0.1241  0.1149 -0.1974
42106W        W85122   7.910  11.413   0.102 -0.1211  0.0194  0.1393
42107W        W85123  32.889  12.046   1.035  0.1630 -0.0810 -0.1722
42108W        W85124   3.692  10.672   4.930  0.0989  0.1510  0.0445
42109W        W85125   8.194  29.165  14.553 -0.1061  0.2014  0.1228
42110W        W85126  10.650  20.338   5.839 -0.2657  0.2677  0.1047
42111W        W85127  17.421   7.971   1.657 -0.0644 -0.1167  0.0106
42112W        W85128  13.698  10.333   7.024 -0.2855 -0.1326 -0.2087
42113W        W85129   7.932   5.587   9.253 -0.0606 -0.0448 -0.0600
42114W        W85130   5.494  31.179  20.280 -0.2989 -0.2636  0.0177
42115W        W85131  33.550   1.333   1.229  0.0181  0.3171  0.2175
42116W        W85132  31.572   9.910  17.221  0.1526 -0.0442  0.1257
42117W        W85133  20.138  13.212  27.758  0.0599  0.0568 -0.2822
42118W        W85134  16.790  25.765   5.761  0.0330 -0.0411 -0.1468
42119W        W85135   8.618  18.316  26.069  0.2083  0.0940  0.1234
42120W        W85136  10.435   5.299  27.770 -0.0685  0.2729 -0.3233
42121W        W85137   3.238   1.531  28.648 -0.1171  0.1074 -0.0208
42122W        W85138   9.257  30.834   1.854 -0.0289 -0.2560  0.0823
42123W        W85139   5.980   8.873   6.251 -0.0270  0.1893 -0.1532
42124W        W85140  15.651  33.457   6.441  0.2968  0.1261 -0.1283
42125W        W85141  34.635   5.340   4.912 -0.3134  0.2073  0.2570
42126W        W85142  15.025  21.686  14.516 -0.0979 -0.1233  0.3527
42127W        W85143   7.706   5.809  19.085  0.1448  0.0022 -0.1104
42128W        W85144  29.320  31.582   4.541 -0.2178 -0.1622  0.3656
42129W        W85145  28.687  13.824   6.985  0.0704  0.4322 -0.0126
42130W        W85146   2.472  19.695   6.493 -0.2873 -0.1062  0.1605
42131W        W85147  33.503   8.789  28.258 -0.0342 -0.1423 -0.0054
42132W        W85148  10.307  34.013   2.472  0.1467  0.1597  0.0928
42133W        W85149  11.534  19.221  12.058 -0.3303  0.0685  0.2074
42134W        W85150  15.329   4.492  18.591 -0.0721 -0.2133 -0.1776
42135W        W85151   0.948  29.829   5.209 -0.2047  0.0258 -0.0158
42136W        W85152   8.543  22.518  13.382 -0.0051  0.1413 -0.1843
42137W        W85153   3.964  17.219  27.692 -0.0702 -0.2860 -0.4687
42138W        W85154  13.525  15.173  20.786 -0.2145  0.1067  0.1374
42139W        W85155   8.455  14.096  20.663 -0.1247 -0.2126 -0.0121
42140W        W85156   4.189  21.669  24.895  0.3148 -0.1124 -0.4302
42141W        W85157  33.642  11.851   9.529  0.2839  0.2649  0.1750
42142W        W85158  18.836  27.458  14.772 -0.2787 -0.0373  0.0094
42143W        W85159   0.521   3.406  24.131  0.1072 -0.0969 -0.1019
42144W        W85160   2.743  26.573  18.160  0.0521 -0.0320 -0.0882
42145W        W85161   6.803  10.315  28.388  0.0836  0.2551  0.1089
42146W        W85162  30.372   9.347  27.891  0.0268 -0.1777  0.2802
42147W        W85163   5.662   9.339   4.893 -0.0604  0.0586  0.1361
42148W        W85164  19.223  11.169  16.753  0.1555 -0.0779  0.1724
42149W        W85165  11.006  11.394  27.759 -0.2468  0.1028  0.2104
42150W        W85166  34.047  27.941  15.831 -0.1213 -0.1707  0.1287
42151W        W85167   3.393  14.484  24.852  0.1714 -0.2829  0.0836
42152W        W85168  17.659  13.762   0.794 -0.1184  0.0625  0.1565
42153W        W85169   1.908   4.336  24.858  0.1589 -0.0190  0.3006
42154W        W85170  17.518  24.198  24.633  0.0634  0.1464 -0.3000
42155W        W85171   3.554  12.356  25.820  0.0132  0.2401 -0.1294
42156W        W85172   8.508   2.956   0.073  0.2611 -0.3021  0.1990
42157W        W85173   8.525   3.989  19.192 -0.3677  0.0849 -0.0224
42158W        W85174  29.963  12.210   1.600  0.2451 -0.2411 -0.3208
42159W        W85175  34.369  12.834  23.659 -0.0813  0.2092  0.5187
42160W        W85176   8.995  19.842   0.355 -0.1519  0.0463  0.0163
42161W        W85177  23.938  17.157  20.085 -0.4736 -0.2619 -0.1845
42162W        W85178  14.481  21.552  24.661  0.2225 -0.1441  0.0100
42163W        W85179  11.054  20.887  20.554 -0.1008  0.2375  0.0700
42164W        W85180  11.589   8.673  26.912  0.3923  0.2498  0.3489
42165W        W85181   1.026   4.775  19.811  0.1503 -0.0929 -0.1269
42166W        W85182  19.464  21.366  14.474 -0.1754  0.1006 -0.3401
42167W        W85183  25.051  31.161  25.539  0.1091 -0.4159 -0.0635
42168W        W85184   5.377  14.427  24.090 -0.1347  0.3473  0.1928
42169W        W85185   4.676  16.451   1.874  0.0286  0.0511 -0.6720
42170W        W85186  16.680  14.902  24.021 -0.2267 -0.1475 -0.1778
42171W        W85187  32.664  10.890   4.503  0.3134  0.2658 -0.0466
42172W        W85188  16.053  16.921   4.160  0.0819 -0.0254  0.0734
42173W        W85189  14.633  14.865  27.791  0.2857  0.2882  0.0586
42174W        W85190  14.385  15.868  19.958 -0.0178 -0.1318  0.2404
42175W        W85191   1.524  18.548   8.714  0.0872  0.1077 -0.2643
42176W        W85192  18.860  10.794  20.542  0.0326 -0.0617 -0.0618
42177W        W85193   4.271   0.935   3.026 -0.2008  0.1236  0.1678
42178W        W85194  34.248  30.297  22.441  0.0842  0.1165 -0.1254
42179W        W85195  31.201  14.087   1.706 -0.0188  0.2556  0.4183
42180W        W85196  11.375  16.386  15.601  0.2033 -0.1655  0.2585
42181W        W85197  10.189   0.796  14.638 -0.0298 -0.1228  0.1311
42182W        W85198  24.321  19.796  21.962  0.2760  0.3339  0.0212
42183W        W85199   6.493  17.962  20.689  0.0535 -0.0476  0.0751
42184W        W85200  30.737  13.107   9.262  0.2789 -0.1705 -0.0056
42185W        W85201   5.813  27.944   2.304 -0.0032 -0.1804  0.1776
42186W        W85202   6.066  15.693   0.406  0.0015  0.3598  0.2000
42187W        W85203  27.822  25.576  18.771 -0.2831 -0.2157  0.1149
42188W        W85204  14.702  25.973  26.911  0.1958  0.1436 -0.2655
42189W        W85205   5.699   4.920  19.529 -0.0716  0.0297  0.1582
42190W        W85206   8.688  32.457  26.783  0.0047 -0.2310  0.2806
42191W        W85207   6.636  14.618   0.694  0.2314 -0.1490 -0.1631
42192W        W85208  24.043   2.325  19.739  0.1524 -0.1045 -0.2097
42193W        W85209  14.177  23.754   6.026  0.0273  0.0302 -0.1718
42194W        W85210  34.596   7.753   1.344  0.0037 -0.0468 -0.0155
42195W        W85211   4.513  18.597  25.262  0.3135  0.2027 -0.0231
42196W        W85212  12.232   4.436  18.342 -0.3267  0.0120  0.0972
42197W        W85213   3.538   5.923  15.585  0.0092 -0.0794  0.2976
42198W        W85214  14.576   4.371  24.498 -0.2661 -0.1103 -0.2685
42199W        W85215   2.621  10.621   3.550 -0.0443  0.2178 -0.0746
42200W        W85216   9.183  16.978  20.603 -0.1693  0.1761 -0.2159
42201W        W85217  32.669  33.744  10.010  0.1524  0.1875 -0.3364
42202W        W85218  10.348  17.062  20.475 -0.2923  0.0929 -0.1441
42203W        W85219  17.970  30.621  17.040  0.0321  0.2628 -0.1632
42204W        W85220  16.621  26.116  24.234 -0.0633 -0.0309 -0.0967
42205W        W85221  13.297  19.736   2.537 -0.2235 -0.1261 -0.2212
42206W        W85222   8.616  22.150  17.499 -0.2384 -0.1631  0.0105
42207W        W85223   1.165  24.184   5.798  0.2214  0.0739 -0.1021
42208W        W85224  29.275  27.747  25.395 -0.0159  0.1432  0.0303
42209W        W85225  28.879  10.676   5.587  0.0390 -0.2524 -0.0070
42210W        W85226  20.177  22.837  23.297  0.0536  0.2016  0.2517
42211W        W85227   1.433   9.596   9.248 -0.2959 -0.1104  0.1950
42212W        W85228   1.010   5.122   7.864  0.2059  0.0834  0.1104
42213W        W85229  30.492   9.957   3.287 -0.0975  0.1190  0.5919
42214W        W85230  23.602  15.759  16.117  0.1412  0.3595 -0.1020
42215W        W85231   4.256  11.605  27.504  0.1103  0.0545  0.0935
42216W        W85232  13.857   6.791  18.056 -0.0550  0.1836  0.2607
42217W        W85233  17.026  13.010  23.672  0.0779 -0.3061  0.2821
42218W        W85234   2.313  24.484  27.556 -0.2356 -0.0250  0.0611
42219W        W85235   6.859  31.105   0.172  0.0154  0.1383  0.0382
42220W        W85236  22.247  20.237  22.144  0.1249 -0.0899  0.1316
42221W        W85237   3.643  17.550  17.615 -0.2065  0.1728 -0.0556
42222W        W85238  20.489  12.492  27.840 -0.0459 -0.4131 -0.3015
42223W        W85239  12.077  10.950  16.136 -0.2778 -0.2654  0.2339
42224W        W85240  19.851  17.186  28.091 -0.1118  0.0836  0.0821
42225W        W85241  17.236  10.327   3.073  0.0276  0.1172 -0.0115
42226W        W85242  11.891   3.706  23.495 -0.2713  0.1928 -0.2044
42227W        W85243  21.375   4.844   7.595  0.0129 -0.1122  0.0629
42228W        W85244  33.739  17.306  27.346  0.0394  0.0833  0.3407
42229W        W85245  33.351  28.932  16.302 -0.0069  0.0035 -0.0407
42230W        W85246   7.343   6.490   0.520 -0.1577  0.0626 -0.0276
42231W        W85247   5.011  17.392  25.653 -0.1215 -0.0352 -0.1260
42232W        W85248  14.524   6.841  23.517  0.2183  0.0248  0.2613
42233W        W85249   3.467   6.388  22.624  0.2243 -0.1589 -0.4436
42234W        W85250   9.403  31.452  18.134 -0.2137  0.1184  0.1805
42235W        W85251   9.204   4.495  15.830 -0.1273 -0.1171 -0.0126
42236W        W85252  21.019  21.719   3.627  0.0136  0.0424 -0.1817
42237W        W85253   6.009  17.378   2.778 -0.1020  0.0944  0.0953
42238W        W85254  24.780  19.048  24.846  0.1491  0.0149  0.1449
42239W        W85255  33.749   9.721  20.638 -0.3635  0.0090 -0.1658
42240W        W85256  10.945  34.714   3.593  0.2623  0.1458 -0.1698
42241W        W85257   6.916  33.813   3.207 -0.0204  0.1021  0.4100
42242W        W85258  17.060   6.814  14.199 -0.3101 -0.1120  0.0299
42243W        W85259  15.784   2.199  23.093  0.1165  0.1655  0.0410
42244W        W85260  14.326  25.450  13.209 -0.4099 -0.3432  0.3546
42245W        W85261  22.508  19.692  28.848 -0.3979  0.1747 -0.0933
42246W        W85262   1.821   9.965  24.234 -0.1350  0.0040  0.0177
42247W        W85263  24.456   9.920  15.737 -0.1033  0.2648  0.0901
42248W        W85264   7.535  15.959  29.290  0.0572 -0.1738 -0.1079
42249W        W85265   8.076  31.368  24.593  0.2791 -0.2230 -0.1964
42250W        W85266  23.042   2.192   4.078  0.0827 -0.0166  0.2129
42251W        W85267   5.330  21.132  14.029 -0.0305 -0.2104 -0.3426
42252W        W85268  22.713   0.500  22.506 -0.0991  0.2732 -0.0658
42253W        W85269   1.310  15.632   0.067 -0.2998 -0.5012  0.1710
42254W        W85270  13.701  10.808  18.092  0.4767  0.0337  0.1391
42255W        W85271   1.512  14.794  15.979 -0.1643 -0.3392 -0.1709
42256W        W85272  21.400   6.121  22.048  0.0788 -0.0147 -0.2051
42257W        W85273   8.293   5.100  15.121 -0.0498  0.2880  0.1766
42258W        W85274  32.705  21.320  25.449 -0.0450 -0.2186  0.1542
42259W        W85275  14.378  13.933  22.740  0.0053 -0.3157 -0.0446
42260W        W85276   9.405   3.042  25.495  0.0170 -0.0666  0.2736
42261W        W85277  26.146   6.916   1.451 -0.1224  0.3024  0.0446
42262W        W85278   6.695  21.540  20.275 -0.0271  0.0789 -0.0411
42263W        W85279  20.807   0.952  24.684  0.0418  0.1967 -0.0155
42264W        W85280  13.504   3.189  28.106 -0.0830 -0.1220  0.1533
42265W        W85281  27.920  13.483  27.032 -0.0396  0.2451  0.0905
42266W        W85282  21.364   3.588   2.427  0.2797  0.0799 -0.3196
42267W        W85283   7.229  14.940  19.636  0.0374 -0.0028  0.1357
42268W        W85284   9.582  21.211  24.578 -0.0793  0.0246  0.3346
42269W        W85285  13.306  11.793   0.701  0.0006  0.0637 -0.3795
42270W        W85286  12.509  16.563  22.505 -0.1991 -0.0842  0.4243
42271W        W85287  14.628  23.858  24.866  0.0297  0.1762  0.0291
42272W        W85288   6.044   9.022  15.577 -0.1062 -0.2547  0.0783
42273W        W85289   7.998   7.413  16.959  0.1224 -0.3450 -0.0000
42274W        W85290  33.564   7.315  20.803 -0.1170 -0.2782 -0.3109
42275W        W85291  10.785  24.277  13.762 -0.2230 -0.1862  0.0847
42276W        W85292   8.100  17.769  27.217  0.2972 -0.3387  0.1939
42277W        W85293  31.048   0.989   7.770 -0.0032  0.2212 -0.1764
42278W        W85294  15.626  14.777   7.022  0.1135  0.2353  0.0941
42279W        W85295  27.623  11.008   5.251 -0.3091 -0.1109  0.0818
42280W        W85296  29.890  20.342  24.272 -0.2019  0.1136 -0.0187
42281W        W85297  29.463  18.879  27.142  0.0408  0.0954  0.1314
42282W        W85298  10.304  29.479  20.908  0.3700  0.2000 -0.5212
42283W        W85299   0.239  14.833  15.350  0.0394 -0.0695  0.2641
42284W        W85300   8.616   9.939   2.221  0.0163  0.4005 -0.3996
42285W        W85301  23.403   1.028  17.776 -0.0288 -0.0981 -0.0009
42286W        W85302  23.670  22.891  20.086 -0.1702 -0.3413  0.2187
42287W        W85303  29.758  14.127  28.812  0.2384 -0.2127  0.0942
42288W        W85304  25.389  12.966   1.144 -0.0984 -0.0458 -0.0817
42289W        W85305  18.184  17.734  15.176  0.3922 -0.1717  0.1061
42290W        W85306  10.460  25.652   2.498  0.2499 -0.0066 -0.1385
42291W        W85307   8.638   9.238  16.125 -0.0644 -0.1076 -0.0918
42292W        W85308   0.560  18.799  20.282  0.0409 -0.0468  0.2414
42293W        W85309   6.698   5.996  14.782 -0.0746 -0.0621  0.1975
42294W        W85310   9.674   0.038  23.233 -0.1342  0.2702  0.0649
42295W        W85311  14.175  21.166  13.083 -0.3105 -0.2129  0.1030
42296W        W85312  33.082  14.613  10.351  0.1853  0.1239  0.0472
42297W        W85313  33.270  10.698  25.054  0.5231 -0.1335  0.0128
42298W        W85314  14.936   8.388  24.898  0.0828 -0.1559 -0.0892
42299W        W85315  33.365   5.025   7.407 -0.0315  0.0893 -0.2013
42300W        W85316   6.563  24.112  24.278 -0.1748  0.1030  0.4410
42301W        W85317   3.517   9.024  25.499 -0.2125 -0.0554  0.3593
42302W        W85318  32.306  21.556  20.145 -0.0271  0.0944 -0.0804
42303W        W85319   9.103  21.142  15.809  0.2673 -0.2875  0.2660
42304W        W85320  13.528  11.707   7.980  0.0793 -0.3156  0.1201
42305W        W85321  13.707  18.283  26.521 -0.3180 -0.0888 -0.0310
42306W        W85322  21.904   6.541   2.843 -0.1847  0.0099  0.2259
42307W        W85323   6.094   7.087   1.526  0.0009 -0.2624 -0.1971
42308W        W85324  18.013  11.549   6.156  0.1829  0.0690  0.2689
42309W        W85325   2.031  21.537   6.211  0.0485  0.1171  0.0394
42310W        W85326   8.570  34.489  16.457  0.1056  0.0573  0.2906
42311W        W85327  18.094  31.848  16.391 -0.0566 -0.2027 -0.2456
42312W        W85328  22.026  17.045   7.165 -0.1485 -0.0187 -0.2199
42313W        W85329   9.588  11.949  25.572  0.5450 -0.1791  0.3025
42314W        W85330   4.810  28.428  23.663  0.0015  0.0063  0.0982
42315W        W85331   1.064   3.117   4.514 -0.2601 -0.2802  0.0540
42316W        W85332   6.794   5.993  16.089  0.0164  0.1576  0.0942
42317W        W85333   0.422  10.775   7.446  0.2075 -0.0847  0.4167
42318W        W85334  17.557  16.637   5.513  0.0193  0.1071 -0.2016
42319W        W85335  10.607  27.781  23.781  0.1018 -0.0717 -0.1951
42320W        W85336  19.268   9.414  16.935  0.1149  0.1154  0.2292
42321W        W85337  31.501  20.715  25.110  0.2554 -0.0170  0.2225
42322W        W85338   8.494   1.161   9.825 -0.1722  0.0887  0.1899
42323W        W85339   2.529  32.783  24.544  0.2931 -0.0388 -0.1907
42324W        W85340  12.076   5.034  14.196  0.2454 -0.1926  0.1485
42325W        W85341  30.971  10.592  27.751  0.0952  0.4958 -0.3776
42326W        W85342  27.178  16.199  20.300 -0.1818 -0.1160 -0.1234
42327W        W85343  34.733   1.438   9.021 -0.1380  0.1346  0.0752
42328W        W85344  27.054  21.313  18.025 -0.0810  0.0672 -0.0870
42329W        W85345  32.250  13.812  23.423  0.0853 -0.0212 -0.0911
42330W        W85346  28.239   0.270  17.363 -0.0390  0.1337 -0.2633
42331W        W85347   1.423  19.175   2.827 -0.3113  0.3551  0.0217
42332W        W85348   9.710  26.699  13.826  0.1370  0.0307 -0.1416
42333W        W85349  10.928  10.395  15.955  0.2440 -0.1296  0.0434
42334W        W85350  10.726   6.229   2.658  0.1521 -0.1029 -0.0855
42335W        W85351   7.190  18.120   7.433 -0.0234  0.1759 -0.0270
42336W        W85352  10.552   2.757  29.244  0.2427 -0.0500  0.2020
42337W        W85353  22.788   5.861  18.702  0.1368 -0.1150  0.1047
42338W        W85354  30.399  19.981  24.918  0.0074 -0.1075 -0.0404
42339W        W85355   2.362  34.411  18.657  0.2222  0.0331 -0.3102
42340W        W85356   9.063   4.937   3.321  0.1589  0.1283  0.3607
42341W        W85357  15.323  12.013  21.569  0.0875  0.0033  0.1491
42342W        W85358  16.003  13.261  29.107 -0.0798  0.2351  0.1894
42343W        W85359  18.239   7.546  21.118 -0.1005 -0.0148 -0.0040
42344W        W85360  33.032  22.278  17.530  0.1009 -0.2842 -0.1461
42345W        W85361   7.411  18.500  14.874  0.0690  0.0463 -0.0404
42346W        W85362   2.195   2.669  24.194  0.0055 -0.0677  0.0187
42347W        W85363   5.448   9.147   2.454  0.0101 -0.0334 -0.2694
42348W        W85364  14.872   2.143  24.300 -0.0617 -0.0111  0.3288
42349W        W85365  14.377  10.886  22.416 -0.2083 -0.0891  0.3882
42350W        W85366  31.796  21.208  19.124 -0.1114  0.0778  0.2712
42351W        W85367   0.048   6.932  18.541  0.1685  0.1439 -0.1688
42352W        W85368   4.968  10.531  27.120 -0.0777  0.1797  0.1786
42353W        W85369   5.855  10.980   2.478  0.2553  0.0253  0.4330
42354W        W85370  17.550  25.125  24.810  0.5507 -0.0065  0.1562
42355W        W85371   9.849   7.443  28.098 -0.2068  0.0020 -0.0834
42356W        W85372   2.356   1.263  19.327 -0.2454  0.0817 -0.0120
42357W        W85373  26.300  32.212  21.259  0.2093  0.1969  0.0158
42358W        W85374   2.396  23.177   6.395 -0.0015  0.0174 -0.0614
42359W        W85375  13.128  12.947  24.303 -0.1670 -0.2575 -0.0045
42360W        W85376   0.164  13.995   1.111 -0.1823 -0.1531 -0.0093
42361W        W85377  25.050   9.816   1.640 -0.2809 -0.0959 -0.1814
42362W        W85378  20.381  27.533  28.123  0.4651  0.0378  0.3745
42363W        W85379   4.464   8.264  20.286 -0.1460 -0.5230 -0.1426
42364W        W85380  27.218  21.831   4.151 -0.1294 -0.2713  0.1981
42365W        W85381  18.468  19.052   3.809  0.1364  0.3022  0.1327
42366W        W85382  10.976   5.280   8.809  0.0355  0.1471 -0.0546
42367W        W85383  24.568  18.096  25.012  0.0698  0.1953  0.1948
42368W        W85384  26.047  20.655  21.773  0.2601  0.1841  0.1747
42369W        W85385   9.269  28.766  14.151 -0.3710 -0.0362  0.0770
42370W        W85386  15.884   8.890  23.038  0.0164  0.0911 -0.3554
42371W        W85387  34.657  20.600  25.382 -0.1437 -0.2457  0.1492
42372W        W85388  25.960  12.693   5.872  0.0414  0.3191 -0.1268
42373W        W85389  14.730   4.436  27.793  0.0924  0.1394  0.0280
42374W        W85390  20.023   9.479   5.883  0.1615  0.1772  0.0917
42375W        W85391   1.023  22.726  18.570  0.0051 -0.0682  0.3294
42376W        W85392  11.054  19.499  18.905  0.2107 -0.0371  0.2817
42377W        W85393   7.937  18.437  28.602  0.1655 -0.2040 -0.1588
42378W        W85394  23.437   6.215   9.433 -0.1522  0.1840  0.1128
42379W        W85395  33.126  12.239   5.802  0.0143 -0.0892 -0.2026
42380W        W85396  10.156  33.695  27.715 -0.1664 -0.0584 -0.0437
42381W        W85397  16.642   7.090   3.341 -0.1483 -0.2035  0.0299
42382W        W85398   7.479   3.133  20.801 -0.2368  0.0755  0.1545
42383W        W85399   9.881   5.455   1.851 -0.1503 -0.1613  0.2824
42384W        W85400  24.713   4.301  18.157 -0.3735 -0.1370  0.1043
42385W        W85401  11.955  15.623   1.413 -0.0656  0.4288  0.2028
42386W        W85402   1.268   5.641  22.564 -0.0426  0.0411  0.1340
42387W        W85403   4.049  17.944   2.836  0.1162 -0.0164 -0.0068
42388W        W85404   9.553  23.753  27.881  0.0490 -0.1604 -0.0324
42389W        W85405   1.180   1.272  29.315 -0.0770  0.2147 -0.0788
42390W        W85406  12.043   3.761  21.631 -0.0738  0.1936 -0.2753
42391W        W85407   3.150  32.075  29.105  0.4274 -0.2584  0.1179
42392W        W85408  16.965   3.971   6.507 -0.1070  0.0939  0.0809
42393W        W85409  12.243   9.196   3.888  0.0001 -0.2972  0.0103
42394W        W85410  11.541  28.601  20.204  0.1644 -0.0812 -0.0221
42395W        W85411   6.391  14.355   2.586  0.3578 -0.1327  0.2169
42396W        W85412  32.719  33.898  26.873 -0.0337  0.3715  0.0603
42397W        W85413  17.693  27.501  19.383 -0.0171 -0.2741 -0.1417
42398W        W85414   4.301  18.911  13.712  0.1554  0.0330  0.0154
42399W        W85415  32.898  12.010  15.677 -0.2791  0.2094  0.2181
42400W        W85416  30.148   6.238  21.935  0.1970  0.0374  0.2423
42401W        W85417  34.254  15.892  22.913 -0.1422  0.1557  0.0222
42402W        W85418   0.948  11.444  26.014  0.1911 -0.2821  0.0763
42403W        W85419  34.415  19.825  15.273 -0.0945 -0.0575 -0.1645
42404W        W85420  15.981  10.741  13.749  0.3733 -0.2636 -0.0180
42405W        W85421  20.925  10.024  14.911  0.0039  0.2448 -0.0259
42406W        W85422   8.544   5.357  18.143  0.3512  0.0098  0.0223
42407W        W85423  24.584  18.006  15.142  0.0425 -0.1148  0.2593
42408W        W85424   0.669  21.688  25.502 -0.0038  0.1823 -0.1270
42409W        W85425  12.144  12.104  18.183  0.0143 -0.2266 -0.1172
42410W        W85426   9.666  12.636  15.446  0.2113 -0.1369  0.1085
42411W        W85427  17.991  11.763  14.865  0.1050 -0.1185 -0.1904
42412W        W85428   1.969   8.800  23.145 -0.2811  0.1948  0.0197
42413W        W85429  10.880   9.650  16.601  0.4225 -0.0427 -0.0516
42414W        W85430   4.036  20.877  21.296 -0.1059  0.1890  0.0434
42415W        W85431   4.933   3.202  24.418  0.0847  0.0635 -0.1542
42416W        W85432  11.526  25.186  27.374  0.1136  0.1251 -0.0080
42417W        W85433  33.424  30.004  23.883  0.1460 -0.1886  0.1707
42418W        W85434  19.301  27.817   2.923  0.0017  0.1451  0.1847
42419W        W85435  14.935  22.225  14.150 -0.0110 -0.1710  0.2054
42420W        W85436   6.720  27.179  21.965 -0.1123  0.4195 -0.1015
42421W        W85437  25.000  26.060  19.582  0.1130  0.2592 -0.0654
42422W        W85438  20.910   5.116  14.217  0.2478 -0.2751  0.1869
42423W        W85439   7.680  14.081  13.415  0.1048 -0.1111  0.2423
42424W        W85440  29.165   2.973  14.422  0.2395 -0.1020 -0.1573
42425W        W85441  22.381   2.488  19.464 -0.0689 -0.1875  0.2215
42426W        W85442  13.556  26.935  21.805  0.1295 -0.0204  0.2532
42427W        W85443  21.064  10.998  16.215 -0.2761  0.0856 -0.1094
42428W        W85444  15.195   3.298  14.740 -0.1424 -0.0863  0.1077
42429W        W85445   5.798  22.274  20.853  0.0279 -0.0713 -0.0741
42430W        W85446  24.997   9.302  20.832  0.0091 -0.0852  0.1553
42431W        W85447   4.224  21.225  21.689 -0.1107 -0.1894 -0.0295
42432W        W85448  27.145  23.894  17.494 -0.3918 -0.0224  0.0956
42433W        W85449   9.172  25.546  17.168  0.3222  0.0282  0.0235
42434W        W85450   7.854  29.809  26.522  0.0679  0.1123  0.2206
42435W        W85451  22.575  15.012  22.049 -0.1367 -0.0857 -0.1098
42436W        W85452  22.086   7.123  24.773 -0.1983 -0.0424 -0.1539
42437W        W85453   5.417  11.952  21.143  0.0547  0.1189  0.0461
42438W        W85454  25.015  25.584  17.677  0.1821  0.0453  0.0247
42439W        W85455  14.906   6.721  16.192 -0.0829  0.0212 -0.1741
42440W        W85456  11.465   6.345  17.724 -0.2367 -0.0098  0.2191
42441W        W85457   0.507  19.051  19.848 -0.2431 -0.1258  0.0956
42442W        W85458   6.005  16.480  29.238  0.0964 -0.1486  0.3119
42443W        W85459   7.055  17.722  21.489 -0.3407 -0.1447  0.0075
42444W        W85460  12.691   5.916  16.832  0.0643 -0.2650  0.0036
42445W        W85461  19.445  11.033  21.645 -0.1519 -0.2196 -0.1383
42446W        W85462  12.239  24.646  18.563 -0.2013  0.1146 -0.0111
42447W        W85463  14.100  13.807  24.140  0.0962 -0.3819  0.0350
42448W        W85464   1.621  22.411  15.876  0.0679  0.1907  0.2362
42449W        W85465  12.285  19.183   2.126  0.1187 -0.0675  0.0147
42450W        W85466   8.348  17.216  23.871 -0.1319 -0.3393  0.0307
42451W        W85467  16.994  13.254  13.558  0.2282  0.0791  0.0502
42452W        W85468  22.469  26.140  26.554 -0.3816  0.1329 -0.0347
42453W        W85469  16.182  31.436  27.340 -0.0323 -0.2414  0.3685
42454W        W85470  12.305  11.082  15.286 -0.1249  0.1295  0.1118
42455W        W85471  13.761   6.201  18.795  0.0434  0.1857  0.2086
42456W        W85472  11.297  27.789  16.407 -0.0156  0.3686  0.1242
42457W        W85473  14.332  14.026  20.088  0.0935  0.1585 -0.2292
42458W        W85474  11.436  12.350  23.775 -0.4068 -0.1608 -0.1305
42459W        W85475  21.694   4.945   0.568  0.4069 -0.3004 -0.1132
42460W        W85476  15.522   9.998  12.634 -0.0608  0.1969  0.0183
42461W        W85477  10.845  16.462   1.742 -0.0812  0.1125 -0.1237
42462W        W85478  31.800  30.679  18.149  0.0668 -0.0384 -0.2035
42463W        W85479  21.706  29.869  18.584 -0.1403 -0.0712 -0.0497
42464W        W85480   5.986  26.284  25.184 -0.1368  0.2026  0.1524
42465W        W85481   6.869   5.703  15.206  0.0077  0.1411  0.2373
42466W        W85482   3.081  24.882  17.989 -0.0461  0.1409  0.2026
42467W        W85483   4.490  12.812  17.765  0.0632  0.2886 -0.0688
42468W        W85484   7.698   0.031  20.411 -0.2312 -0.0196  0.2338
42469W        W85485   1.354  14.695  14.547  0.0364  0.2110 -0.1195
42470W        W85486  13.237  15.175  22.776  0.0285  0.0865 -0.4005
42471W        W85487   6.449  18.572  21.627  0.0209 -0.3175  0.0514
42472W        W85488  13.852  20.384  13.483 -0.1157  0.1447 -0.0009
42473W        W85489   1.263  23.216  20.085  0.0891 -0.3714 -0.1813
42474W        W85490   8.508  18.292  18.144 -0.1395  0.0125  0.1240
42475W        W85491  32.227   1.919   3.974  0.0651 -0.0858  0.1257
42476W        W85492  14.866   6.382  17.257 -0.0999  0.1773  0.2154
42477W        W85493  10.133  23.641  20.450 -0.1982 -0.1440  0.0490
42478W        W85494  10.279  25.614  26.206 -0.1835  0.2668  0.2060
42479W        W85495  16.375   7.867  18.669 -0.0820 -0.0471 -0.0796
42480W        W85496  34.589  28.513  18.540 -0.0844  0.2011  0.3119
42481W        W85497   5.615  11.680  24.599  0.3530  0.0128 -0.1499
42482W        W85498   3.335  13.914  15.736 -0.0117 -0.0231 -0.2357
42483W        W85499   3.645   6.287  17.358  0.1182 -0.1254 -0.1338
42484W        W85500   0.799  11.940  27.024  0.1308  0.1280 -0.1323
42485W        W85501  13.952   4.946  24.083  0.1157  0.1375 -0.0118
42486W        W85502  10.640  23.082  17.933 -0.0853  0.2737  0.0638
42487W        W85503   3.726  20.025  15.601  0.0806  0.1764 -0.2832
42488W        W85504   0.366  23.584  23.546 -0.0033  0.0823  0.0678
42489W        W85505  29.802  26.500   3.444  0.0380  0.0927 -0.2552
42490W        W85506   5.823   5.023  26.425 -0.1860 -0.1980 -0.1393
42491W        W85507  20.761  26.765  14.968 -0.0368  0.2087  0.0968
42492W        W85508  19.912  23.423  14.898 -0.0318 -0.2551  0.0328
42493W        W85509  14.125   6.375  20.496  0.4258  0.1594  0.1765
42494W        W85510   2.110  31.126  18.479 -0.1788  0.1292  0.4513
42495W        W85511   5.340  13.347  20.059  0.3292 -0.4409  0.3875
42496W        W85512  33.760  31.695  21.166 -0.1571  0.3399 -0.1850
42497W        W85513  33.524   2.389  20.882 -0.2816  0.0786  0.0258
42498W        W85514   8.021  20.250  16.221 -0.1093 -0.1701 -0.2045
42499W        W85515  14.949  24.671  16.912  0.0269 -0.0706 -0.0271
42500W        W85516  14.977  18.864  11.716  0.5489  0.3366 -0.3133
42501W        W85517   8.777  16.158  13.863  0.0986 -0.0315  0.1205
42502W        W85518  16.783  21.848  27.825 -0.0076 -0.0049 -0.0058
42503W        W85519   6.316  31.159  23.396 -0.1847 -0.1995  0.3223
42504W        W85520  13.418  30.067  17.431 -0.1038  0.0904  0.0502
42505W        W85521   4.428  16.311  13.804 -0.0810 -0.1713 -0.2706
42506W        W85522   3.459   1.931  23.504  0.1754 -0.3432  0.2479
42507W        W85523  18.781   7.645  16.544 -0.3170  0.0267 -0.3009
42508W        W85524  27.309  23.111  19.779  0.0475  0.0295 -0.0954
42509W        W85525  23.584  20.055  22.513  0.1617 -0.4631 -0.2706
42510W        W85526   1.071  12.501  20.781  0.1376  0.2100 -0.3812
42511W        W85527  30.054  11.155  21.270 -0.0054 -0.4763 -0.0374
42512W        W85528   0.966   4.216  19.140 -0.0493 -0.2358 -0.0972
42513W        W85529  11.258  21.863  17.886  0.0336  0.3905 -0.4672
42514W        W85530   2.116  12.983  18.975  0.2812 -0.1349 -0.0492
42515W        W85531   7.652  28.852  19.814  0.0610 -0.0602 -0.2766
42516W        W85532   8.216   4.361  14.604  0.1102 -0.1311 -0.1438
42517W        W85533  13.117  15.977  12.767 -0.0730  0.1247  0.2736
42518W        W85534  16.785   1.611  19.802 -0.0190 -0.1986 -0.1608
42519W        W85535   6.822  16.361  16.917 -0.2654 -0.1667 -0.1310
42520W        W85536   0.842  21.028  21.833  0.0449 -0.1889 -0.0539
42521W        W85537  11.511  12.978  16.180  0.3967 -0.0385  0.0226
42522W        W85538  26.564  15.360  14.596  0.1147 -0.3779  0.2823
42523W        W85539  12.147  23.629  18.837 -0.1071  0.2857  0.0581
42524W        W85540  25.770  33.738  21.000  0.1172 -0.1715 -0.0625
42525W        W85541  12.326  23.607  15.136 -0.0768  0.3288 -0.2010
42526W        W85542   7.492   6.333  16.730  0.2815  0.0109 -0.2653
42527W        W85543  13.613   5.704  28.115  0.1928 -0.1485  0.1859
42528W        W85544  11.835  19.952  25.706 -0.0732  0.1177  0.0212
42529W        W85545  17.014  20.516  13.789 -0.0087 -0.0382  0.0282
42530W        W85546  19.268  20.589  13.441 -0.0081  0.3651  0.3041
42531W        W85547  16.182  29.827   0.279  0.0133  0.1852 -0.1642
42532W        W85548   7.197   7.955  19.775 -0.0509 -0.0404  0.2104
42533W        W85549  21.562  24.426  14.316 -0.1571 -0.0096  0.0381
42534W        W85550  24.676  13.029  17.719  0.1895 -0.2787  0.1360
42535W        W85551  12.429  24.057  13.714 -0.0340  0.1868  0.0252
42536W        W85552  21.244  20.594  17.251 -0.1292 -0.2003 -0.0382
42537W        W85553  26.658  10.003  19.076 -0.1016  0.1105  0.1088
42538W        W85554   1.603   7.237  14.917 -0.0095  0.1235 -0.3643
42539W        W85555   3.699  27.461  26.899 -0.2180 -0.1108 -0.0127
42540W        W85556   2.289   9.887  24.046  0.0604 -0.0578  0.0046
42541W        W85557   4.555  13.003  18.728  0.1786  0.1735  0.1538
42542W        W85558   8.631  15.469  18.303 -0.0464 -0.1487  0.1059
42543W        W85559  11.180   3.604  14.821  0.4324 -0.3143  0.2126
42544W        W85560   6.688  29.539  21.734 -0.1355  0.2356  0.0794
42545W        W85561  10.357   7.375  17.806  0.0387  0.0691  0.3539
42546W        W85562  16.852   4.449  16.766  0.1212 -0.0424  0.2469
42547W        W85563   7.009  21.347   1.464 -0.1221  0.3109  0.1365
42548W        W85564   7.232  14.844  21.699  0.0463 -0.0908 -0.0270
42549W        W85565   3.142  21.042  20.406  0.0657  0.1882  0.1453
42550W        W85566  10.594  26.045  22.869  0.3183  0.2382 -0.0852
42551W        W85567  19.412   4.061  15.752 -0.0250 -0.2704 -0.1385
42552W        W85568  28.552  33.886  20.492  0.0770  0.2599 -0.2321
42553W        W85569  28.621   9.976  28.456  0.2285 -0.0670 -0.1873
42554W        W85570  16.638   8.161  23.036  0.0217  0.1910 -0.1921
42555W        W85571   4.770  13.258  21.096  0.1480  0.3107  0.0795
42556W        W85572  11.114  18.989  25.160 -0.1968  0.3198 -0.0446
42557W        W85573  30.385  14.325  22.451 -0.0588 -0.1697  0.1032
42558W        W85574  27.073  25.682  16.504  0.1010  0.1552 -0.1883
42559W        W85575   2.672  15.915  15.859 -0.2696 -0.0378  0.0385
42560W        W85576  31.555  28.967  17.281  0.1621  0.0303  0.2540
42561W        W85577   0.506  25.852  26.627  0.4598  0.1194 -0.0234
42562W        W85578   5.515  11.852  16.591 -0.0280  0.0714  0.1526
42563W        W85579  31.934   6.071  22.833  0.0028  0.2953 -0.2193
42564W        W85580   1.351  26.409  19.354  0.1230  0.2912  0.0509
42565W        W85581   0.169   4.426  18.149  0.2251 -0.0648  0.1529
42566W        W85582  29.381  13.065   3.467  0.1134  0.2582 -0.0855
42567W        W85583   8.240  25.870  20.040  0.1773 -0.0589  0.0374
42568W        W85584   5.978  30.721  18.471  0.0550  0.2263 -0.3464
42569W        W85585  32.685  25.326  18.413  0.1285 -0.2594  0.0705
42570W        W85586  23.910  18.770  18.484 -0.3282 -0.2195  0.1170
42571W        W85587  17.325   9.859  21.385 -0.4243 -0.2012  0.0970
42572W        W85588  16.760  16.189  13.425 -0.2676 -0.0588  0.2316
42573W        W85589   4.084   6.230   4.580  0.0408 -0.2280  0.0434
42574W        W85590  33.145   3.100  21.863  0.1114  0.0912  0.0944
42575W        W85591  11.642  17.572  22.569  0.1854 -0.0633  0.3179
42576W        W85592  12.569   9.820  16.584  0.1513 -0.1134  0.1794
42577W        W85593  17.715   8.961  15.463 -0.0838 -0.0081  0.2466
42578W        W85594   9.767  18.555  21.808 -0.0787 -0.1530 -0.2690
42579W        W85595  16.094  14.816   1.855  0.3692  0.0885 -0.1709
42580W        W85596  14.766   7.171  16.375  0.3437  0.0223  0.0195
42581W        W85597  14.632  16.198  28.699 -0.0611 -0.0874 -0.2058
42582W        W85598   2.034   3.115  20.150  0.1206  0.0442  0.1091
42583W        W85599  19.753  19.732  12.114  0.0777  0.1345  0.1505
42584W        W85600   6.106  19.536  26.985  0.1855 -0.0006  0.2826
42585W        W85601  14.558  24.854  25.551  0.5069 -0.0028 -0.3505
42586W        W85602  13.167   8.660  18.975  0.1254  0.0317  0.0990
42587W        W85603  19.915  24.679  21.460  0.2161  0.2143 -0.2134
42588W        W85604   3.482  21.864  20.637 -0.0975 -0.1038 -0.3621
42589W        W85605   8.007  29.533  15.498 -0.0786 -0.0295 -0.1978
42590W        W85606  13.680  10.833  13.953  0.1114  0.0951  0.0696
42591W        W85607  11.329  11.410  14.434 -0.0796 -0.0059 -0.0406
42592W        W85608  13.283  12.250  19.158 -0.0750  0.1007  0.2781
42593W        W85609   7.314   2.426  17.052 -0.1083 -0.1324  0.3076
42594W        W85610  22.380   3.845  24.179 -0.2133  0.3161 -0.0299
42595W        W85611  24.214  21.372  25.205 -0.1001 -0.0947  0.3009
42596W        W85612   4.163  12.440  15.737 -0.1314 -0.1566 -0.1016
42597W        W85613  29.780  11.634  25.830 -0.1768  0.4808  0.1757
42598W        W85614   1.295  11.214  27.145  0.1337 -0.0547  0.2575
42599W        W85615  19.025  26.822  20.547 -0.2364  0.1274 -0.2283
42600W        W85616   5.920  26.376  18.576  0.0727 -0.1991  0.1527
42601W        W85617  32.330  15.097  18.523 -0.0690  0.1297  0.1809
42602W        W85618  22.961  17.859  17.862 -0.0736 -0.2813 -0.1587
42603W        W85619  32.323   5.615  14.641  0.0868 -0.2264 -0.1070
42604W        W85620  15.720  23.873  15.433 -0.1054  0.2851  0.0680
42605W        W85621   3.638  32.384  25.000  0.2155 -0.0037 -0.1516
42606W        W85622   3.990  13.945  22.075 -0.1829  0.5206 -0.2488
42607W        W85623  19.102   9.354  13.645  0.1146 -0.4151 -0.0136
42608W        W85624  21.216  10.632  18.545 -0.0416  0.3294 -0.0923
42609W        W85625  16.588   8.871  22.322 -0.0530 -0.3581  0.2160
42610W        W85626  22.766  11.868  15.538  0.0512  0.0889 -0.3320
42611W        W85627   7.315  21.473  15.553 -0.1653 -0.0056  0.1461
42612W        W85628  32.690  16.373  16.574 -0.0541  0.0624 -0.0286
42613W        W85629  10.611  21.525  13.279 -0.0474 -0.2597 -0.1369
42614W        W85630   6.470  17.728  14.569 -0.1411 -0.2274 -0.1126
42615W        W85631   4.725  15.282  16.117  0.0536  0.0340  0.0411
42616W        W85632  23.395  17.155  18.035  0.0706  0.1679  0.2222
42617W        W85633   9.049   1.780  22.935  0.1703 -0.0371 -0.1237
42618W        W85634  13.892  14.857  19.928 -0.0619  0.1470 -0.2246
42619W        W85635   9.982  24.265  16.991  0.1214 -0.1736 -0.1224
42620W        W85636   8.810  28.699  24.672 -0.2259  0.2465 -0.0084
42621W        W85637   1.334   9.979  17.809  0.0418 -0.2055  0.1744
42622W        W85638  33.097  34.305  21.381  0.1277 -0.0332  0.0837
42623W        W85639  32.686   3.493   7.918 -0.0882  0.0381  0.0758
42624W        W85640   6.155   5.235  23.098 -0.4323  0.0896 -0.2402
42625W        W85641   5.174   9.257  22.326  0.1126  0.1094 -0.1575
42626W        W85642  16.885  24.739  15.116  0.0677 -0.0648 -0.0123
42627W        W85643   3.694  26.253  23.064 -0.0082 -0.1602  0.1506
42628W        W85644   8.755   7.302  20.274  0.1293  0.2722 -0.0406
42629W        W85645  15.824  26.240  14.816  0.0895 -0.2967  0.0014
42630W        W85646   0.681  15.794  22.103 -0.0101 -0.5063 -0.2124
42631W        W85647   8.885   9.242  18.359  0.1591  0.0960  0.4040
42632W        W85648  16.627  12.899  17.684 -0.1356 -0.1529  0.2380
42633W        W85649   0.951   7.728  25.234  0.3424 -0.2541  0.0177
42634W        W85650   3.804   9.930  18.504  0.0317  0.4010  0.1398
42635W        W85651   4.834  27.477  17.191  0.1229 -0.1786  0.0371
42636W        W85652   1.814  15.139  18.392 -0.1138  0.3686  0.1003
42637W        W85653  10.498  31.342  15.251 -0.3984  0.0738 -0.4442
42638W        W85654  24.758  15.002  21.069 -0.1140  0.2291 -0.2089
42639W        W85655  10.871   8.234   6.525  0.5097  0.2146  0.3389
42640W        W85656   2.268  19.823  16.154 -0.0461  0.1282 -0.0480
42641W        W85657  22.755  15.568   5.969 -0.0082 -0.3500  0.0391
42642W        W85658   6.861   2.165  15.128 -0.0328  0.0655  0.0370
42643W        W85659   0.331  10.692  18.602  0.0722 -0.0272 -0.0268
42644W        W85660  12.228  17.084  13.426 -0.0016 -0.2085  0.1870
42645W        W85661  26.840  33.471  20.799  0.0968  0.0526 -0.0305
42646W        W85662  14.562   1.562  17.690 -0.0500 -0.2127 -0.0749
42647W        W85663  12.749  27.290  20.592 -0.2151  0.0941 -0.0867
42648W        W85664   7.725   9.213  16.410 -0.4364 -0.0810 -0.1471
42649W        W85665  29.716  27.569  25.586 -0.3083 -0.0626  0.3559
42650W        W85666  22.955   4.451  24.811  0.2374  0.0005 -0.0340
42651W        W85667  33.262  34.397  15.580 -0.0618 -0.2506  0.1072
42652W        W85668   3.569  24.217  15.346  0.3555  0.0836 -0.1594
42653W        W85669  18.293  23.058  15.148 -0.1381 -0.1252  0.1334
42654W        W85670  10.375  15.179  17.560  0.2187 -0.1644 -0.2093
42655W        W85671   9.302   1.952  20.924 -0.2058  0.2918 -0.0182
42656W        W85672   1.375  16.854  19.172 -0.0010  0.0155  0.1510
42657W        W85673   6.450  27.187   4.718  0.0318  0.1264 -0.0366
42658W        W85674  29.411  28.253   3.294 -0.1454  0.0916  0.2631
42659W        W85675   7.666  11.547  21.613 -0.2017 -0.0033  0.1102
42660W        W85676   5.004  11.754  18.040  0.4817  0.2972 -0.0324
42661W        W85677  14.542  19.065  23.727  0.1358 -0.1528 -0.0290
42662W        W85678  33.980   8.047  18.836 -0.1211  0.1537  0.2595
42663W        W85679  14.733  27.797  16.288  0.2995  0.0078 -0.0608
42664W        W85680   3.608  24.376  19.880 -0.2076  0.0481  0.2970
42665W        W85681   0.942  17.600   1.263 -0.0091 -0.2160 -0.0024
42666W        W85682  15.131  11.672  17.217 -0.0500 -0.4328 -0.0181
42667W        W85683  12.894  12.443  15.153 -0.1645 -0.0083 -0.2814
42668W        W85684  14.844  26.075  14.457 -0.2691  0.1002 -0.2658
42669W        W85685  16.022   1.691  17.376 -0.3248  0.0906 -0.2229
42670W        W85686  12.168  19.335  20.216 -0.2559 -0.0475  0.3554
42671W        W85687   4.887  14.199  17.152  0.0135  0.1860  0.0496
42672W        W85688  28.240  34.620  21.272  0.0172 -0.0258 -0.1893
42673W        W85689   3.756   9.474  15.272  0.1365 -0.1563 -0.0986
42674W        W85690   6.895   6.415   0.406 -0.2000 -0.0268 -0.2540
42675W        W85691   0.347   2.185  27.415  0.0388 -0.2272 -0.2733
42676W        W85692  16.431  26.199  21.162  0.2783 -0.1671  0.0748
42677W        W85693   6.272  34.201  16.148 -0.0003  0.2061 -0.0155
42678W        W85694  21.244  23.039  18.226  0.1025  0.1428 -0.2522
42679W        W85695   3.939  17.608  16.334  0.0670  0.0479 -0.0901
42680W        W85696  27.033  13.513  17.049  0.2118 -0.0585 -0.0308
42681W        W85697  29.946  23.273  20.773  0.0539 -0.0811  0.2196
42682W        W85698  33.848  12.291  14.456  0.2169  0.0472 -0.1544
42683W        W85699  30.557   4.903  23.981  0.0682 -0.0955  0.1542
42684W        W85700   9.527  19.947   2.701 -0.1486  0.1837 -0.2055
42685W        W85701  13.500  17.607  25.864 -0.1121 -0.1514 -0.1020
42686W        W85702   4.272  19.924  19.807  0.1248  0.1642 -0.0735
42687W        W85703  10.669  30.356  14.355  0.3183  0.0770  0.0620
42688W        W85704  31.366  13.296  24.976 -0.2254  0.0500 -0.0984
42689W        W85705   8.698  22.116  14.263  0.0280 -0.3257  0.1919
42690W        W85706  12.730   6.807  17.034 -0.2335  0.2087  0.2838
42691W        W85707   1.748  30.658  22.754  0.0828  0.0649 -0.2240
42692W        W85708  12.560   8.339  13.696 -0.1746  0.0021 -0.2753
42693W        W85709   0.822  22.068  28.204 -0.1386 -0.3180 -0.1373
42694W        W85710  20.866  19.339  13.950  0.1612  0.0197  0.1229
42695W        W85711  21.984   5.161  24.856 -0.3785  0.0631  0.0619
42696W        W85712  30.230  25.611  15.177 -0.0435  0.1929 -0.1587
42697W        W85713   4.851  22.386  22.206  0.0771  0.1784  0.1024
42698W        W85714  28.976  17.355  26.796  0.1346 -0.1139  0.1546
42699W        W85715  17.157  33.532  16.496 -0.0991  0.1827  0.1936
42700W        W85716  24.306  16.496  21.135  0.1634 -0.0845  0.2258
42701W        W85717  16.649   6.156  21.979  0.1109  0.0989 -0.2593
42702W        W85718  18.855   8.487  14.214  0.4008  0.0993 -0.2248
42703W        W85719  27.049  34.616  27.478 -0.1784  0.3719 -0.1530
42704W        W85720   1.885  24.375  28.354 -0.1182 -0.1589 -0.1159
42705W        W85721   9.459  23.187  18.591 -0.0004 -0.0483  0.0254
42706W        W85722  22.088   6.627   7.339  0.0227  0.1428  0.0430
42707W        W85723  13.967  12.164   5.389  0.1897 -0.0623  0.1718
42708W        W85724   5.170   4.616  25.620  0.0731  0.2093  0.0010
42709W        W85725  31.683   8.421  18.568 -0.1508  0.2432  0.3138
42710W        W85726   8.647  19.775  27.614  0.0436 -0.0158 -0.3499
42711W        W85727  11.758  18.660  29.220 -0.1906  0.3775 -0.0453
42712W        W85728   4.837  21.180  15.913 -0.0669  0.0261  0.3703
42713W        W85729   8.054  22.473  12.623 -0.1658  0.0252 -0.1340
42714W        W85730  14.942   5.505  16.708 -0.0765 -0.1003 -0.0632
42715W        W85731   3.739  12.670  20.849 -0.2749 -0.1569 -0.0262
42716W        W85732  11.116  31.047  29.082 -0.1830  0.1257  0.0252
42717W        W85733  33.815  20.218   2.055 -0.0050 -0.0653 -0.1591
42718W        W85734  30.786  15.430  17.099 -0.3337  0.0982  0.1950
42719W        W85735   8.078   7.557  21.472  0.3278 -0.0293 -0.0016
42720W        W85736  15.378  15.413  11.763 -0.3884  0.1477  0.1372
42721W        W85737  12.693  24.452  13.963 -0.2452 -0.3814 -0.2768
42722W        W85738   1.570  26.314  16.200  0.2235  0.0189  0.2417
42723W        W85739  32.565  24.247  26.879 -0.2707  0.1476  0.3179
42724W        W85740  15.617  11.105   0.899 -0.0527  0.1045 -0.1401
42725W        W85741   9.251  21.986  17.649  0.1965 -0.0766 -0.0405
42726W        W85742   4.668  23.960  20.968  0.4101  0.2602 -0.3990
42727W        W85743  14.441  23.992   3.261 -0.0892 -0.3462  0.0523
42728W        W85744  23.456  15.916  12.973  0.0440  0.6356 -0.1740
42729W        W85745  11.765  25.293  21.705 -0.0107 -0.0173  0.0506
42730W        W85746  34.022  21.810  20.736  0.1623  0.3262 -0.1483
42731W        W85747  24.729  27.588  19.089 -0.1827 -0.1916 -0.2237
42732W        W85748  28.714  26.395  25.916 -0.1561 -0.3408 -0.1105
42733W        W85749  14.609  13.933  25.076 -0.3068  0.0202 -0.0809
42734W        W85750   4.114  24.675   4.382 -0.1946 -0.1259  0.2176
42735W        W85751   1.125  27.369  17.344 -0.1825 -0.0301 -0.0881
42736W        W85752  23.529  25.065  18.753 -0.1435  0.5350  0.2208
42737W        W85753  10.508  19.836  14.703  0.0974  0.3221  0.3383
42738W        W85754  13.819  11.106  15.685 -0.0740  0.0639 -0.2092
42739W        W85755  10.232  30.623  25.077  0.2556  0.0555  0.2196
42740W        W85756   2.897  20.901  16.405  0.0446 -0.0762 -0.1976
42741W        W85757  23.729  30.548   2.649 -0.1763 -0.0017 -0.0502
42742W        W85758   5.693  26.089  14.519  0.0806 -0.2055 -0.0102
42743W        W85759  24.653  10.830  20.125  0.1831  0.0145 -0.0403
42744W        W85760   5.168  23.665  20.840  0.1692 -0.1903 -0.0660
42745W        W85761   9.787   8.281  13.627  0.0353 -0.2011 -0.0226
42746W        W85762  12.736  10.472  13.888 -0.4021  0.0737  0.0910
42747W        W85763   6.875   9.057  22.392 -0.1594  0.0678 -0.1227
42748W        W85764   7.267  14.509  21.296 -0.1526  0.0440  0.1388
42749W        W85765  10.624  22.905  14.681  0.0252  0.1821 -0.1143
42750W        W85766  17.049  18.213  23.488 -0.1254  0.2043  0.1412
42751W        W85767   0.395  20.529  21.751 -0.3906 -0.0177  0.0335
42752W        W85768   9.757  22.772  20.307 -0.2639  0.0346 -0.1769
42753W        W85769  13.877   8.093  22.022 -0.3318 -0.0584 -0.0801
42754W        W85770   7.295  33.163  21.763  0.1643  0.2441 -0.0607
42755W        W85771  10.553  32.300  25.083  0.2231 -0.0002 -0.0438
42756W        W85772  31.576   2.635  17.024 -0.2187  0.0054 -0.0700
42757W        W85773  15.999   2.390  18.418 -0.2042  0.0830  0.1938
42758W        W85774  34.662   6.147  19.344  0.0596  0.0481 -0.1393
42759W        W85775  18.336  27.960  20.075  0.2082  0.1104 -0.1903
42760W        W85776   1.443  25.375  18.688  0.0759 -0.1389  0.4905
42761W        W85777  15.137   2.578  17.495 -0.1664 -0.0210  0.1098
42762W        W85778  31.332   4.384  23.949 -0.0572  0.1254 -0.1018
42763W        W85779  17.634  13.806  12.689 -0.0809  0.0736 -0.3131
42764W        W85780   4.953   9.677  16.319 -0.0157  0.4173 -0.1770
42765W        W85781   7.348   1.927  24.873 -0.0643 -0.0234 -0.0270
42766W        W85782  16.108  28.013   2.068  0.2450  0.1113 -0.4143
42767W        W85783   9.058  11.280  25.092  0.4318  0.0002  0.3168
42768W        W85784  24.079  15.522  18.728 -0.0711 -0.1326  0.2068
42769W        W85785   4.907  21.963  21.659 -0.2897 -0.2032  0.0246
42770W        W85786   7.670  24.913  19.094 -0.0575 -0.1153  0.3740
42771W        W85787  14.591   9.478  26.276  0.1139  0.0142 -0.0311
42772W        W85788  14.531   3.952  14.221  0.2428  0.3261 -0.0763
42773W        W85789  14.878  13.306  23.099 -0.1024  0.2536  0.0072
42774W        W85790   7.712  12.816  25.135  0.0820 -0.1514 -0.0329
42775W        W85791  24.715  23.744  20.870  0.0543 -0.0754 -0.3107
42776W        W85792  33.308  15.672  19.097 -0.3603 -0.0359 -0.3675
42777W        W85793  17.606  23.633  26.075  0.1840 -0.0264  0.0232
42778W        W85794   9.303  15.016  25.727  0.0204 -0.4187 -0.2525
42779W        W85795  11.506  32.071  26.506 -0.1023  0.0665 -0.0603
42780W        W85796  29.450  11.205  24.013 -0.1496 -0.1564 -0.2598
42781W        W85797  34.430   0.388  25.753 -0.1432 -0.0014 -0.0415
42782W        W85798   8.840  17.978  15.151 -0.1286 -0.2215 -0.2800
42783W        W85799  18.268   3.988  20.503  0.0878  0.0003  0.1054
42784W        W85800   7.536  31.582  22.808  0.0265 -0.1982  0.2314
42785W        W85801  23.799  14.510  23.435 -0.2075  0.1402  0.2377
42786W        W85802  25.289  25.624   0.218  0.1068  0.3850 -0.1282
42787W        W85803  25.668  19.376  26.284 -0.3394  0.1235 -0.0097
42788W        W85804  20.440  12.402  17.845 -0.1960 -0.0127 -0.2515
42789W        W85805  18.623  14.546  13.734 -0.3475  0.1606 -0.0408
42790W        W85806   3.681  21.164  17.034  0.0870 -0.3635  0.2683
42791W        W85807  15.842   9.992   7.675  0.1371  0.2541 -0.0458
42792W        W85808  31.893  24.417   4.232  0.0632  0.0030 -0.0079
42793W        W85809  16.855  23.170  25.642 -0.1318 -0.3362 -0.1264
42794W        W85810   5.496  25.968  24.112  0.2842 -0.0144  0.0292
42795W        W85811  15.385  25.399  14.245 -0.0467  0.0554  0.0798
42796W        W85812  10.384   8.541  16.856 -0.0224  0.0029 -0.0178
42797W        W85813   5.419  22.277  14.691  0.0091 -0.0879 -0.1705
42798W        W85814  24.841   7.153  28.405  0.4325  0.2227 -0.0370
42799W        W85815   1.545  33.644  14.932 -0.1211 -0.1863  0.1348
42800W        W85816  19.852   1.420  24.052 -0.2353 -0.0601  0.1508
42801W        W85817   2.633  12.273  15.201  0.2152  0.1837 -0.3356
42802W        W85818   2.472  12.947  22.027  0.1307 -0.0813 -0.3325
42803W        W85819   3.354  11.959  27.970  0.1615  0.1691 -0.1051
42804W        W85820  12.292  23.076  18.887  0.2296 -0.0685 -0.0136
42805W        W85821  25.940  22.146  20.419 -0.0171  0.1229 -0.1178
42806W        W85822  20.526  29.697   6.016 -0.0702  0.1772  0.0342
42807W        W85823   3.027  10.368  18.355  0.3034  0.0958 -0.2473
42808W        W85824   1.146  20.354  23.399 -0.0055 -0.0495  0.1751
42809W        W85825  12.091  13.539  19.947  0.0268 -0.0712 -0.2012
42810W        W85826  13.317  12.800  13.756  0.0884  0.0680  0.0315
42811W        W85827  13.464  30.819   3.464  0.0964  0.0648  0.1787
42812W        W85828   4.345  11.147  19.676  0.0707  0.2246 -0.1130
42813W        W85829   5.220  10.271  15.888  0.2267  0.1876 -0.1644
42814W        W85830   5.384  20.721  22.029  0.1278  0.2055  0.0411
42815W        W85831  15.872   3.685  21.458  0.0587  0.3360 -0.1024
42816W        W85832  32.121  11.436  21.416  0.3886 -0.2047 -0.0401
42817W        W85833  16.680   1.850   7.424 -0.0863 -0.1354  0.1188
42818W        W85834  23.447  21.802  19.737 -0.0196 -0.0517  0.0649
42819W        W85835  33.855  13.674  16.892 -0.0355  0.1206  0.0598
42820W        W85836  17.406   7.420  27.086 -0.0266  0.2929  0.2334
42821W        W85837  33.337   8.515   1.188  0.1325 -0.0414 -0.2006
42822W        W85838  34.660  14.678  10.603  0.2384  0.0516  0.1596
42823W        W85839  13.642  21.099  12.614  0.2248 -0.1557  0.1431
42824W        W85840   6.819  12.831   3.311  0.0795 -0.1804  0.0459
42825W        W85841   6.714  27.060   3.969 -0.0400 -0.1770 -0.1920
42826W        W85842  14.304  20.757   4.294 -0.1651  0.0744  0.0153
42827W        W85843   6.196  19.985  26.037  0.1173  0.1249  0.0488
42828W        W85844   7.736  18.261  13.024 -0.0968  0.1033  0.1298
42829W        W85845  10.557  26.034  13.811  0.4028  0.1467 -0.0084
42830W        W85846  20.552  21.100  21.581 -0.0668 -0.0169  0.0082
42831W        W85847   5.909   0.611  22.655  0.3384  0.1536  0.1719
42832W        W85848   6.465  10.493  26.802  0.0190 -0.2053  0.2113
42833W        W85849   7.554  27.205   1.710 -0.0250  0.0202 -0.0419
42834W        W85850   6.545   4.336   8.682  0.0181  0.2247 -0.0159
42835W        W85851   9.616  33.148  27.736  0.1486  0.2489 -0.1044
42836W        W85852  11.958   5.782  15.810 -0.0090  0.1304  0.1517
42837W        W85853  26.255  23.775  19.761  0.1016  0.0825  0.1698
42838W        W85854  15.608   9.141  22.603  0.0542 -0.0430 -0.0212
42839W        W85855   2.938  19.335  19.308 -0.2062 -0.0406  0.1875
42840W        W85856  18.252   8.163  21.358 -0.0105  0.1840 -0.0827
42841W        W85857  18.307   8.670  21.452 -0.0045 -0.0352 -0.2088
42842W        W85858   5.625  22.852  15.494 -0.0464 -0.1579 -0.1686
42843W        W85859   9.184  20.796   2.082  0.2754  0.0600 -0.1625
42844W        W85860  23.628  20.140  18.359  0.2331  0.1777  0.0469
42845W        W85861  14.806  11.479  15.635 -0.1164  0.2268  0.1477
42846W        W85862   4.789   1.901  24.128  0.1332 -0.1937  0.0690
42847W        W85863  21.395  14.966   5.479  0.1397 -0.0122  0.1959
42848W        W85864  15.723  22.519  24.147  0.0215 -0.0285 -0.0936
42849W        W85865   5.334  21.527  28.807  0.0066  0.2501  0.0948
42850W        W85866   9.192  13.919  22.898  0.3620 -0.2489 -0.1459
42851W        W85867   1.091  18.511  17.870  0.0005  0.1041 -0.1835
42852W        W85868  10.525  12.482  16.924 -0.0590  0.1694 -0.2289
42853W        W85869  14.396  13.906  13.848  0.0002  0.2395 -0.0751
42854W        W85870  10.947  15.695  24.058 -0.1808  0.1013  0.0871
42855W        W85871  10.618  22.611  15.088 -0.1117  0.0991  0.4299
42856W        W85872  32.034  20.140  20.692  0.0363 -0.1265  0.3521
42857W        W85873  34.441  21.141  18.493 -0.3479 -0.2617 -0.0784
42858W        W85874   6.422  13.857  17.273  0.2490  0.0591 -0.2244
42859W        W85875   7.960  11.821  17.100 -0.1247  0.1648  0.1805
42860W        W85876  16.513  20.541  13.641 -0.2793 -0.1269  0.0293
42861W        W85877  24.464  12.356  20.659 -0.0505  0.0563 -0.2112
42862W        W85878  12.092  23.833   2.082  0.0775  0.1218  0.0267
42863W        W85879  29.767  24.322  18.642  0.2255 -0.0182 -0.6060
42864W        W85880  32.874  21.425  17.015 -0.3516 -0.4685  0.1676
42865W        W85881  27.793  19.840  27.597 -0.1961  0.0519  0.1711
42866W        W85882   3.379  11.599   2.047 -0.0488  0.2367 -0.0059
42867W        W85883  18.895  29.780  20.529 -0.2624  0.0698  0.2348
42868W        W85884  11.921  12.732  19.641  0.1516 -0.0026  0.2767
42869W        W85885   0.100  33.432  28.162 -0.0923 -0.0448 -0.0151
42870W        W85886  30.398  26.029  27.810  0.1956  0.0004 -0.0439
42871W        W85887  17.210  19.417  27.407 -0.3043 -0.3671  0.3556
42872W        W85888  24.374  18.219  21.289 -0.1373 -0.5840  0.0082
42873W        W85889   7.778  31.058  16.554  0.2437 -0.1336  0.0731
42874W        W85890  12.796  18.611   4.126  0.3601 -0.0075 -0.1816
42875W        W85891   5.923   9.155  16.999 -0.0998 -0.1168 -0.0191
42876W        W85892  33.137   0.266  15.888  0.2343  0.3956  0.1978
42877W        W85893   0.516  32.146   5.749 -0.0535  0.1982 -0.1412
42878W        W85894  14.400  25.841  20.060  0.2659  0.0735 -0.2995
42879W        W85895  24.842   0.366  17.885  0.0542 -0.0898  0.2220
42880W        W85896   7.217  23.471  18.138 -0.0494 -0.2650  0.2648
42881W        W85897  10.254   6.076  18.025 -0.0097 -0.4235  0.2820
42882W        W85898  30.581  33.668  19.297  0.2213  0.2164  0.2812
42883W        W85899  15.697  25.438   3.396  0.2887  0.0980  0.4228
42884W        W85900   2.407  12.660   6.502 -0.2289 -0.1715 -0.2594
42885W        W85901   5.974  26.368  26.590 -0.0081  0.0195 -0.2620
42886W        W85902  25.010   9.658  23.165  0.0984  0.0298 -0.1415
42887W        W85903  25.092  19.368  17.322  0.4182  0.2114 -0.0555
42888W        W85904  26.630  26.036   5.898  0.0563 -0.0543 -0.1608
42889W        W85905   2.963  19.010  14.714  0.2990  0.0027 -0.1612
42890W        W85906   3.919   3.151  26.411  0.0509 -0.1594 -0.0525
42891W        W85907  25.257   9.519  23.600  0.0785  0.0779 -0.2968
42892W        W85908  23.320  15.337   1.537 -0.0676 -0.0058 -0.1684
42893W        W85909  19.980   1.616  20.106  0.0856 -0.1786  0.1667
42894W        W85910  15.300   4.376   5.739 -0.1224 -0.1045  0.0695
42895W        W85911  29.414  29.918  27.113  0.0017  0.1359 -0.0159
42896W        W85912  10.619  16.205  23.167  0.0782 -0.1453 -0.1106
42897W        W85913  34.451  12.867  18.364  0.1165  0.3841 -0.2750
42898W        W85914   0.032  26.198  15.678 -0.4659 -0.4423  0.1784
42899W        W85915  16.750  29.965  23.307 -0.1653 -0.0072 -0.0705
42900W        W85916   1.467  29.014  14.955  0.0385  0.0832 -0.1374
42901W        W85917  23.046   9.593  14.074 -0.1589  0.1362 -0.3222
42902W        W85918   8.435  18.581  12.817 -0.0753 -0.0008 -0.0332
42903W        W85919  26.120  19.329  18.707  0.1144  0.0883  0.0132
42904W        W85920  33.792   6.803   2.852  0.2877 -0.2564  0.0771
42905W        W85921   6.009  16.670  19.262  0.4335  0.1727 -0.2443
42906W        W85922  16.107  26.516  20.907  0.1372  0.0383 -0.1303
42907W        W85923   0.316   0.089  17.926 -0.0370 -0.1338  0.0229
42908W        W85924   2.265   7.229   3.635  0.0392 -0.1615  0.2697
42909W        W85925   2.756  33.226  16.674  0.2184 -0.0793  0.1544
42910W        W85926  30.387  18.225  19.254  0.0040 -0.0079  0.0369
42911W        W85927  27.448  24.422  20.345 -0.0661 -0.1234 -0.0580
42912W        W85928   0.425  25.615  22.804  0.0059  0.0022 -0.0374
42913W        W85929   5.397   6.566  21.234  0.0571  0.1198 -0.0447
42914W        W85930  31.910  27.036  23.541  0.0491  0.0737 -0.2624
42915W        W85931  16.625  34.334  16.954  0.0213 -0.2233 -0.3097
42916W        W85932   9.662  33.724   6.002 -0.2071  0.3212 -0.1164
42917W        W85933  10.695   2.321  15.997 -0.1528  0.1636 -0.0842
42918W        W85934   0.319   9.172   0.348 -0.4320  0.3124  0.0207
42919W        W85935  13.972  22.963  24.520  0.0405 -0.1799  0.0832
42920W        W85936   4.170  24.063  21.973 -0.1580  0.1213 -0.1572
42921W        W85937   2.063  12.055  16.246  0.0176  0.1926  0.0150
42922W        W85938  27.042  12.989  16.138 -0.1926  0.0561 -0.0095
42923W        W85939   3.129  12.511  16.715  0.1350  0.1320  0.0238
42924W        W85940   6.467  12.768  23.364  0.0759 -0.1999 -0.0435
42925W        W85941   9.807  13.167  18.511  0.1441 -0.0330  0.0339
42926W        W85942  29.540  10.950  20.335 -0.0519  0.1979  0.1322
42927W        W85943  16.872  28.844  20.284 -0.0143  0.1182  0.1426
42928W        W85944  10.989  21.271  20.254  0.1903 -0.2005  0.1719
42929W        W85945  22.634   3.892  20.703  0.2429  0.2137  0.0807
42930W        W85946   5.099  12.522  20.842 -0.3311  0.2319  0.2058
42931W        W85947  34.541  18.636  18.516  0.4400  0.2396 -0.0717
42932W        W85948  20.657   4.984  26.858 -0.1979 -0.0588  0.0141
42933W        W85949   5.765  23.030   0.619 -0.0261 -0.0983  0.2089
42934W        W85950  30.194  15.331  15.435 -0.1268 -0.1519  0.2545
42935W        W85951  11.949   0.370  23.649  0.1710  0.0656  0.0263
42936W        W85952  22.234   7.483  25.563  0.0467 -0.0576 -0.2383
42937W        W85953   9.906   9.319  16.337 -0.0886  0.3447 -0.3013
42938W        W85954  26.726  13.364  22.501 -0.2404 -0.5347  0.0773
42939W        W85955   9.251  18.449  22.439  0.0395 -0.0671 -0.1751
42940W        W85956  18.335  10.136  20.805 -0.0473 -0.1521  0.4053
42941W        W85957  23.594  13.205   3.272  0.0545 -0.2478 -0.0173
42942W        W85958   6.637  18.155   3.368  0.0900  0.1065 -0.3422
42943W        W85959  13.792  28.176   4.194  0.0988  0.0588 -0.0111
42944W        W85960  22.466   9.487  24.906 -0.0597  0.1150 -0.1342
42945W        W85961  28.709   9.440  22.337  0.0128  0.0213 -0.1321
42946W        W85962  20.987  13.960  13.435 -0.0331  0.3303  0.0584
42947W        W85963  27.874   3.775  24.115 -0.1255 -0.0197  0.0299
42948W        W85964  13.177  10.080   7.979 -0.2965 -0.2924  0.0505
42949W        W85965  12.775  22.094   6.330 -0.2277 -0.3519  0.3278
42950W        W85966   0.243  28.164  21.368  0.0622 -0.1340  0.0802
42951W        W85967  32.065  20.545  15.819  0.4497  0.0153  0.0017
42952W        W85968  34.268  16.405   6.797  0.2254  0.4027  0.0333
42953W        W85969  11.836  23.555  20.251 -0.0145  0.0039  0.1720
42954W        W85970   6.286  12.953  15.630  0.0700 -0.1253 -0.0169
42955W        W85971  10.894  24.882  16.156  0.3755 -0.1458  0.2431
42956W        W85972  34.487   6.708   4.979 -0.0550 -0.2842 -0.0047
42957W        W85973   7.992  19.615  13.776  0.1604 -0.0746 -0.1512
42958W        W85974  21.107  20.336  27.678 -0.0062 -0.2150 -0.1499
42959W        W85975   5.373  10.941   1.094  0.2209  0.2539  0.3752
42960W        W85976  11.619  25.386  21.227  0.1045  0.0546 -0.0648
42961W        W85977   4.931   6.840  26.142 -0.1250 -0.0027  0.3679
42962W        W85978  31.036  12.469  27.652  0.2007 -0.2806  0.0453
42963W        W85979  33.514   0.633  20.025 -0.0268  0.3519 -0.0963
42964W        W85980  30.034  18.191  16.514  0.1318  0.1082  0.1342
42965W        W85981  13.745   3.688  20.006 -0.2152 -0.2964 -0.2823
42966W        W85982  28.807  11.367  28.519 -0.2542 -0.1689  0.0087
42967W        W85983  13.682  21.479  15.156 -0.0126  0.0339  0.2063
42968W        W85984  33.978   8.869   7.340  0.1072  0.0811  0.0750
42969W        W85985  30.103  20.220  22.876  0.1958  0.1876 -0.0542
42970W        W85986  19.901  26.378  19.658 -0.0754 -0.2555  0.1397
42971W        W85987   2.005   8.530  16.938 -0.1888 -0.0522  0.1450
42972W        W85988  18.098  21.047  27.806  0.1260  0.2604 -0.1626
42973W        W85989   2.030  13.370  10.187  0.2211 -0.0705 -0.2241
42974W        W85990   7.396  14.928  24.003 -0.2003  0.3975  0.3315
42975W        W85991  27.733  16.786  22.036 -0.0931  0.3182 -0.0877
42976W        W85992  13.279  30.457  23.281  0.2085  0.0987  0.0964
42977W        W85993   7.512  29.917  20.317  0.2471  0.1316 -0.4134
42978W        W85994   8.686  34.295   0.148 -0.0049 -0.1121  0.1584
42979W        W85995   3.736  21.510   4.357 -0.0888  0.0233  0.0502
42980W        W85996  22.280   8.014  27.442  0.2405 -0.1408  0.0734
42981W        W85997  17.712   4.160   9.103  0.3623 -0.3682 -0.0854
42982W        W85998  28.461  16.790  20.729  0.1482  0.3056  0.0690
42983W        W85999  18.516   4.053  28.918 -0.0527  0.1062 -0.0284
42984W        W86000   3.213  10.460  28.586 -0.0637  0.0646  0.0177
42985W        W86001  17.705   4.747  25.745  0.1734 -0.1453 -0.0066
42986W        W86002   6.213  13.487  28.117 -0.0890 -0.1627  0.0512
42987W        W86003  16.089  23.900   0.646  0.0689  0.0485 -0.2796
42988W        W86004   7.374  23.800  17.260  0.1847  0.2156  0.2157
42989W        W86005   4.672   7.089   5.345 -0.0989 -0.0021  0.1555
42990W        W86006  14.670  27.383  17.457 -0.0073 -0.2774  0.0041
42991W        W86007   6.571  20.117  23.774 -0.3288  0.1285  0.0883
42992W        W86008  13.549  24.240  17.408  0.2610 -0.1747  0.1785
42993W        W86009  24.308   2.372  25.068 -0.0345  0.1340  0.3378
42994W        W86010   0.305  23.917   0.734  0.1576  0.0166  0.2188
42995W        W86011   4.800  19.897  19.859  0.2272 -0.3040 -0.0283
42996W        W86012   6.644  24.286  19.742 -0.2576 -0.2116  0.3306
42997W        W86013  30.235   9.273  17.055 -0.3882 -0.0427 -0.0303
42998W        W86014  27.076  22.629  20.388  0.3192  0.0650 -0.2292
42999W        W86015  27.413   4.463  26.754  0.1503 -0.1352 -0.2882
43000W        W86016  32.449  27.153  23.598 -0.2690 -0.1114  0.2212
43001W        W86017  26.951   1.314  16.072  0.2098  0.0642 -0.0653
43002W        W86018  28.465  19.994  20.727  0.2297 -0.0408 -0.1120
43003W        W86019   4.827   5.688  24.660 -0.1225 -0.2191  0.0307
43004W        W86020   9.971  21.181  27.694 -0.0197  0.0523 -0.2341
43005W        W86021  11.045   4.251  19.837  0.2246 -0.2730 -0.2468
43006W        W86022  20.000  23.049  12.931 -0.0124 -0.1629  0.3069
43007W        W86023  30.177   8.808  26.994 -0.2322  0.2155 -0.0660
43008W        W86024   8.246  32.820  22.843 -0.3582 -0.1461  0.2889
43009W        W86025  13.376  14.036  28.057 -0.1175 -0.0456 -0.1714
43010W        W86026  16.363  24.949  22.264  0.0065  0.1572 -0.2215
43011W        W86027   9.938  24.630  19.262  0.0270 -0.3945  0.3450
43012W        W86028  15.390   5.449  17.019  0.0087  0.2406 -0.1295
43013W        W86029   9.529   1.194  21.587 -0.1061  0.1038 -0.0591
43014W        W86030  20.207  32.891  21.371 -0.1196 -0.1448  0.4041
43015W        W86031  34.081  29.778  24.483 -0.2839 -0.0644 -0.0181
43016W        W86032  23.019   4.988  27.622  0.0107 -0.2134  0.1797
43017W        W86033  12.502   8.237  21.555  0.2412 -0.0385  0.0854
43018W        W86034   9.453  15.288  17.443 -0.1104 -0.0818  0.0816
43019W        W86035   3.183  26.112  21.793  0.0353 -0.1340  0.2842
43020W        W86036   0.850  32.742  21.399 -0.1061  0.1569 -0.1441
43021W        W86037   1.715  19.089  21.258  0.0235  0.2872 -0.1171
43022W        W86038   5.250   7.224  13.698 -0.0454  0.0177  0.1219
43023W        W86039  13.622  16.530  23.342  0.3303  0.0240  0.2026
43024W        W86040  10.125  19.161   5.611 -0.0381  0.0879 -0.0653
43025W        W86041  11.846  32.323  19.779 -0.0124  0.0008  0.0890
43026W        W86042  10.961  12.397  12.565  0.0043  0.2396 -0.0821
43027W        W86043  10.591  11.460  17.328 -0.3213  0.0648 -0.1405
43028W        W86044  10.849   6.375  19.396  0.1838 -0.0062 -0.2520
43029W        W86045   3.115   4.363   6.109  0.0467 -0.0462 -0.0803
43030W        W86046  15.306  25.905  14.704 -0.0495 -0.0769  0.2240
43031W        W86047  33.344  12.905  22.596 -0.3673 -0.1677 -0.0011
43032W        W86048  13.423  20.547  14.731  0.0778  0.2895 -0.1326
43033W        W86049  15.286   4.726  15.452 -0.2212 -0.0292 -0.1066
43034W        W86050   6.188  16.285  25.106  0.1026  0.0227 -0.1380
43035W        W86051  28.052  27.983  18.178 -0.0553  0.0767  0.1346
43036W        W86052   2.678  27.896  19.252  0.0218 -0.2763  0.1982
43037W        W86053   4.034  15.360  20.678  0.2159  0.2164  0.4015
43038W        W86054   8.493  11.267  23.326 -0.0186  0.2706 -0.1286
43039W        W86055   6.398   7.151   5.094  0.1306 -0.2799  0.3070
43040W        W86056   7.942  20.117  21.141 -0.1095  0.1584 -0.2253
43041W        W86057  33.897  31.710   8.628 -0.0932 -0.1494  0.0265
43042W        W86058   5.268  19.547  21.624 -0.0653 -0.1016  0.0728
43043W        W86059   0.984  18.692   6.745  0.0284 -0.2391  0.2949
43044W        W86060  14.572  13.566  19.997 -0.0692  0.1116 -0.1359
43045W        W86061  32.504   3.946   5.394 -0.0316  0.2891 -0.2817
43046W        W86062  13.369  28.750   2.647 -0.1706  0.3397  0.1735
43047W        W86063  27.973  16.375  26.675  0.2729  0.1303 -0.0295
43048W        W86064   5.111  10.858  25.474  0.2201  0.0082  0.2122
43049W        W86065  32.486  14.790  26.361  0.0191  0.0840  0.1801
43050W        W86066  21.264  25.214  19.197 -0.1980  0.0625 -0.1197
43051W        W86067  21.697  16.313   0.927  0.2309  0.0505 -0.0636
43052W        W86068   0.294  11.790   1.568 -0.0998 -0.0764 -0.1197
43053W        W86069  29.808   4.155  23.237 -0.2466 -0.2346  0.1205
43054W        W86070  26.714   5.251  27.754  0.2304 -0.1821 -0.1384
43055W        W86071  12.033  15.641  25.953 -0.0421 -0.1018 -0.1928
43056W        W86072  13.641  28.618  16.522  0.1648 -0.0777  0.0963
43057W        W86073  14.127  33.807  16.137 -0.0104  0.1392 -0.1943
43058W        W86074  33.525  21.517   6.654  0.3692  0.3408  0.1615
43059W        W86075  10.118  28.192  17.259  0.4380 -0.0873  0.0658
43060W        W86076   3.556   9.750  23.961 -0.1845 -0.0091  0.0308
43061W        W86077  32.845  18.988  21.994 -0.2225 -0.1058  0.1768
43062W        W86078  11.219   2.952  25.760 -0.2522 -0.1277  0.2774
43063W        W86079   5.394  18.676  26.236  0.3014 -0.2960 -0.0389
43064W        W86080  16.650  25.515  15.032  0.2325  0.2859 -0.0147
43065W        W86081   1.691  16.722   1.218 -0.0203 -0.0022  0.2667
43066W        W86082  11.281  13.352  24.415  0.0984  0.1184  0.0240
43067W        W86083  31.277  10.285  19.466  0.0993 -0.3722  0.2080
43068W        W86084   8.348  20.205  21.504 -0.0068 -0.0515 -0.0360
43069W        W86085  32.173  33.203  16.219 -0.0027 -0.3423  0.0094
43070W        W86086  34.485  31.965  25.020  0.2144 -0.0228  0.0340
43071W        W86087  11.748  23.109   3.308  0.0956 -0.0497 -0.1095
43072W        W86088  15.121  18.152  26.642  0.2819 -0.2621  0.2119
43073W        W86089   3.093  18.273  22.140 -0.0905 -0.1139 -0.0141
43074W        W86090   6.814   3.509  22.530 -0.0606 -0.1821  0.1069
43075W        W86091   1.578  17.794  17.058 -0.3464 -0.1482  0.0700
43076W        W86092  10.483  22.818  19.494 -0.2128  0.3666 -0.3311
43077W        W86093   0.260  31.593  22.454  0.0407 -0.1673 -0.1625
43078W        W86094  12.863   7.377  13.571 -0.0367  0.2354  0.0149
43079W        W86095   7.128   6.750  25.057  0.3969  0.1800  0.1894
43080W        W86096   9.922   9.184   7.397  0.1019 -0.1542  0.0812
43081W        W86097  12.384  27.936  16.384 -0.1642 -0.0160  0.0343
43082W        W86098  12.545  22.887   3.824 -0.1867 -0.3092 -0.0095
43083W        W86099   6.096  10.163  26.853  0.0130 -0.1900 -0.0382
43084W        W86100   5.210  14.805  14.685 -0.0229  0.1978  0.1401
43085W        W86101   7.000  28.420  16.654 -0.1192 -0.0434 -0.1081
43086W        W86102  33.792  12.991   3.477  0.2870 -0.2421 -0.2849
43087W        W86103  16.681   4.082   7.359 -0.1138  0.0010 -0.1358
43088W        W86104   0.648  31.187   6.223  0.0166  0.2684 -0.0168
43089W        W86105   7.901  14.566  13.363 -0.0692 -0.1209 -0.0435
43090W        W86106  12.704   8.073  18.738  0.1529  0.0248 -0.4401
43091W        W86107  31.507  20.601  26.103  0.3475  0.0389 -0.2191
43092W        W86108  33.314  19.822  22.230 -0.4039 -0.1389 -0.0217
43093W        W86109  28.844  27.297   8.360 -0.4040  0.2578  0.0738
43094W        W86110  11.263  21.706  25.357  0.0294 -0.1623  0.2949
43095W        W86111   6.912  14.766  24.638 -0.0592 -0.1842 -0.1558
43096W        W86112  29.779  13.449  17.782 -0.2992 -0.0001  0.1245
43097W        W86113   4.404  15.567  15.219  0.0924 -0.1452 -0.0793
43098W        W86114   6.036  26.042  28.171  0.0108 -0.0850  0.3336
43099W        W86115  14.950  11.724   7.401 -0.0797 -0.1280  0.3243
43100W        W86116  12.718  12.448  19.103 -0.2195 -0.1389  0.4273
43101W        W86117   7.640   8.010  22.762  0.0141 -0.0633  0.0826
43102W        W86118  12.863  16.747  24.750  0.0337 -0.0128 -0.0523
43103W        W86119   1.770   9.309  17.266 -0.1328 -0.2607  0.1034
43104W        W86120   3.781   1.391  15.038 -0.1782  0.2492  0.0738
43105W        W86121  34.163  19.525   8.626 -0.1412  0.3287 -0.2444
43106W        W86122  13.141  25.392  18.955 -0.2032 -0.0546 -0.0345
43107W        W86123   8.067  24.965  21.200 -0.0911  0.1685  0.0539
43108W        W86124  33.153  20.389  27.681 -0.0456  0.0550 -0.0619
43109W        W86125   0.517  21.653  16.462  0.0692 -0.2143 -0.0010
43110W        W86126  15.725  17.623  14.417  0.4462  0.1714  0.0183
43111W        W86127  24.729  31.156  22.994  0.3403  0.0658  0.0942
43112W        W86128  12.604  20.674  15.779  0.1360  0.0569  0.1178
43113W        W86129   9.594   8.979  22.117 -0.1129  0.1143 -0.0294
43114W        W86130  34.150  11.995  16.546  0.0085  0.0830  0.0107
43115W        W86131   8.187  23.235  23.347 -0.1123  0.0019 -0.0457
43116W        W86132  15.486  30.655  10.371 -0.0322 -0.0498  0.0162
43117W        W86133  13.316  21.295  15.562 -0.0064 -0.0197 -0.0121
43118W        W86134   1.617  12.444  27.956  0.2637  0.0465  0.0600
43119W        W86135  20.676  18.303  12.667  0.0592 -0.1466 -0.1659
43120W        W86136   0.728   4.773   5.513  0.2192  0.0858  0.1240
43121W        W86137  12.550  10.687   1.995  0.1968 -0.0866 -0.2966
43122W        W86138   1.112  22.646  26.308  0.2883 -0.1709  0.0470
43123W        W86139  10.784  17.982  24.115  0.2901  0.1418 -0.0263
43124W        W86140   5.134   1.923  15.172  0.2621  0.0139 -0.2493
43125W        W86141  10.390  25.789  14.907  0.1402  0.2839  0.0237
43126W        W86142  28.615  25.208  19.375 -0.3053 -0.2320  0.2826
43127W        W86143  14.726  21.315  13.213  0.2287 -0.1887  0.1814
43128W        W86144  16.586  25.065  15.278 -0.0188 -0.2883  0.1524
43129W        W86145  12.663  10.705  16.984 -0.0438  0.1188  0.3236
43130W        W86146   4.345  17.925  16.134 -0.5274 -0.2087 -0.1257
43131W        W86147   4.287  15.362  13.947  0.2889 -0.2478 -0.1445
43132W        W86148  26.239  13.675   6.891  0.1364  0.0578 -0.2090
43133W        W86149   1.508  15.740  24.971 -0.1179  0.1130  0.0169
43134W        W86150   2.907  13.210  17.488  0.0921 -0.4161 -0.4092
43135W        W86151   3.029  22.134  15.025 -0.0604 -0.0926 -0.0452
43136W        W86152   6.418  11.080  18.769  0.0501 -0.0956 -0.1879
43137W        W86153   1.149  30.965  27.797 -0.1381 -0.1453  0.1184
43138W        W86154  10.264   3.102  25.077  0.0524 -0.1390 -0.0038
43139W        W86155  31.367   7.453  18.285  0.0686  0.3179  0.2339
43140W        W86156   8.635  17.709   0.775  0.2653 -0.2298 -0.3621
43141W        W86157  33.038  29.385  25.569  0.0398  0.1809  0.0526
43142W        W86158  17.503  27.368  25.854 -0.0295  0.1482 -0.2016
43143W        W86159   9.310  21.679  22.296  0.0370  0.5496  0.2208
43144W        W86160  20.768  21.752  21.663  0.0835  0.1132  0.1864
43145W        W86161   0.143  11.898  15.912 -0.0452  0.1914  0.1851
43146W        W86162   6.453  12.607  21.373 -0.1170 -0.0431 -0.2973
43147W        W86163   3.119   8.555   4.770  0.2131 -0.4118 -0.2328
43148W        W86164  15.947  11.276  16.338 -0.0737 -0.1398 -0.0133
43149W        W86165  34.370  19.032  18.274 -0.0374  0.0068 -0.0672
43150W        W86166  12.303   7.062  26.064  0.3725  0.1491 -0.1543
43151W        W86167   7.604   2.286  16.032 -0.0307  0.0559  0.0683
43152W        W86168  14.135  16.604  25.878  0.0523 -0.0525  0.1914
43153W        W86169   6.384  11.177  28.830  0.3761 -0.1308  0.1245
43154W        W86170   3.719  21.651  16.164  0.5819  0.0600 -0.0506
43155W        W86171   6.119  31.101  24.665  0.0055 -0.0796  0.2859
43156W        W86172  22.106  14.609  18.149 -0.1236  0.0060 -0.2953
43157W        W86173  21.706   9.139  18.439 -0.1279 -0.1390  0.1682
43158W        W86174   7.135  13.208  16.040  0.5046  0.2965  0.0542
43159W        W86175   7.264  10.904  22.735 -0.2262  0.0166 -0.0685
43160W        W86176  34.561  25.521  17.201 -0.0341  0.0056 -0.0619
43161W        W86177   5.207   5.124  29.069  0.3320  0.1510  0.2883
43162W        W86178  13.778   0.227  25.374 -0.0701  0.0460 -0.0842
43163W        W86179  31.357  13.277  27.899  0.0618  0.1189 -0.3789
43164W        W86180   0.047  11.474  28.401 -0.0905 -0.2558  0.2061
43165W        W86181  17.434   4.478   8.157 -0.1461 -0.1059  0.2367
43166W        W86182   9.110   5.500  19.157 -0.1329  0.3253 -0.3192
43167W        W86183  33.414   0.858  20.460 -0.3516 -0.2595 -0.2411
43168W        W86184   9.628  20.433  14.424 -0.2643 -0.0030  0.1053
43169W        W86185  10.289   7.159   8.556 -0.1550  0.1439 -0.0096
43170W        W86186  32.911  19.686  16.109 -0.1328  0.0417  0.0898
43171W        W86187  14.231  12.737  25.141  0.0081 -0.1322 -0.0941
43172W        W86188   9.736   2.165  19.357 -0.2548  0.4484 -0.2571
43173W        W86189   3.191  20.396  14.072 -0.2382  0.2361  0.3103
43174W        W86190  33.468  34.652   2.476  0.2634 -0.0316 -0.2377
43175W        W86191  11.857  21.465  13.579  0.1043  0.0691 -0.2677
43176W        W86192   6.024   0.348  15.029 -0.2546 -0.1254 -0.0061
43177W        W86193  10.758  28.443   7.282  0.0107  0.1211 -0.0240
43178W        W86194  11.411  19.086   4.796 -0.1561 -0.1787  0.1403
43179W        W86195  24.703  14.427  18.519  0.1067 -0.1489 -0.0923
43180W        W86196   0.483  18.418  28.071 -0.1673 -0.2565 -0.0348
43181W        W86197  12.288  34.385  27.714  0.2221  0.1630  0.0436
43182W        W86198  12.012  24.695  15.348  0.0032 -0.2869 -0.0025
43183W        W86199  24.269  21.094  17.828 -0.0315  0.1985 -0.1939
43184W        W86200  14.570  20.944  11.843 -0.2310 -0.1885  0.5123
43185W        W86201  18.965  18.555  15.435 -0.1030  0.0410 -0.0143
43186W        W86202  10.142  15.037  20.856 -0.3221  0.4517  0.1216
43187W        W86203  19.296   7.042  19.925 -0.3067 -0.1501  0.1744
43188W        W86204  27.450  29.105  26.494 -0.2004 -0.0637  0.2011
43189W        W86205   3.212  34.069  25.555 -0.2219  0.0400 -0.0557
43190W        W86206  14.171   7.337  28.754  0.1887 -0.1610 -0.2134
43191W        W86207   0.799  24.417   6.859 -0.0240  0.1152  0.0829
43192W        W86208  11.256  17.007   0.143 -0.2493  0.0169 -0.1266
43193W        W86209  26.996  29.283   9.625 -0.2792  0.3260 -0.1120
43194W        W86210   3.767   9.540  17.011  0.0139  0.0352  0.1381
43195W        W86211  12.796  17.786  13.269  0.2435  0.1500  0.0365
43196W        W86212  30.581  11.298  23.341 -0.1671  0.0187 -0.3277
43197W        W86213   1.041  21.835  27.744 -0.1073  0.0184  0.2797
43198W        W86214   9.665  26.532  20.278  0.0706  0.5667 -0.0630
43199W        W86215  12.136  14.776  24.396  0.2585  0.0569 -0.1803
43200W        W86216   8.277  26.801   6.637  0.0055  0.0521  0.1464
43201W        W86217   7.075  18.133   6.207  0.1011 -0.0141 -0.1147
43202W        W86218   0.974   0.084   1.429 -0.0056 -0.0792  0.0976
43203W        W86219  11.824  16.390   1.312  0.1085 -0.2491 -0.1414
43204W        W86220   5.878  11.013  20.248  0.4437 -0.1031  0.2078
43205W        W86221  28.215  12.703  25.894  0.2950 -0.3209 -0.0851
43206W        W86222  33.490  34.221  17.329 -0.2852  0.0102  0.1604
43207W        W86223   5.392  18.446  21.380  0.0446 -0.0493 -0.2266
43208W        W86224   3.400  22.485  15.366 -0.0475  0.3654  0.0822
43209W        W86225   6.375  29.042  25.408 -0.0455  0.1479 -0.3780
43210W        W86226  33.305  22.144  18.915  0.0207  0.5586  0.0937
43211W        W86227   4.695   3.861  26.438  0.0156 -0.0208 -0.0904
43212W        W86228  18.315  33.875  10.095  0.2346  0.0287 -0.0935
43213W        W86229  15.890  20.447  12.295 -0.0255  0.1084 -0.1970
43214W        W86230   1.991  15.397  20.527  0.0315  0.1274 -0.2343
43215W        W86231  25.075  29.318  15.924  0.1339 -0.1352 -0.2848
43216W        W86232  13.940   3.995  19.048 -0.0595 -0.1299 -0.0420
43217W        W86233   4.089  19.206  14.783  0.1271  0.0992  0.2992
43218W        W86234   7.119  14.344  20.495  0.0329 -0.0690  0.3277
43219W        W86235  20.713   8.290  19.837  0.1600  0.4452  0.0610
43220W        W86236   7.543   0.170   5.893  0.0689 -0.2230 -0.1634
43221W        W86237  19.823  10.841   7.285  0.1158  0.0357  0.1930
43222W        W86238   9.527  16.646  15.061 -0.1767  0.2920  0.3149
43223W        W86239   4.903   8.806  21.632 -0.2618  0.2178  0.1779
43224W        W86240  31.544  32.668   6.389  0.5263 -0.2959  0.3739
43225W        W86241   8.466  15.003   5.214 -0.0821  0.2047  0.0082
43226W        W86242  24.661  25.216   4.785 -0.0137 -0.2266  0.6066
43227W        W86243   5.664  21.204  19.846  0.1071 -0.2506  0.2229
43228W        W86244   9.304  14.481  25.119  0.2087  0.2266  0.3463
43229W        W86245  18.522  13.506   0.790  0.0488 -0.1418 -0.2537
43230W        W86246  31.752   8.250   4.987  0.0890  0.0787  0.1658
43231W        W86247  33.230  21.057   5.895 -0.0829  0.0993  0.1227
43232W        W86248  20.325   6.972  18.603 -0.3073  0.4150 -0.1458
43233W        W86249  11.900  14.245  17.430 -0.2543 -0.0542  0.1085
43234W        W86250   5.360  10.092   4.761  0.0333  0.0216  0.0894
43235W        W86251  28.035   7.605  27.221  0.0858  0.0809 -0.0635
43236W        W86252  13.250  29.547  14.694  0.0805  0.0291 -0.0508
43237W        W86253  21.380  24.193  26.063 -0.0887  0.0293  0.0906
43238W        W86254  22.884   0.303   3.281  0.0665  0.0214 -0.0460
43239W        W86255   7.777  15.890   2.176 -0.2062 -0.0447 -0.3741
43240W        W86256  34.553  10.180   1.916  0.0886 -0.4349  0.0018
43241W        W86257  16.905  23.069  23.496  0.3789  0.1064  0.1011
43242W        W86258  10.519  22.848  21.583  0.0191  0.0263 -0.1078
43243W        W86259  10.872  28.209  27.101 -0.1135 -0.2681  0.2682
43244W        W86260  25.383   2.628  17.545  0.0946  0.1495  0.1663
43245W        W86261  30.230  11.292  25.105 -0.0193 -0.2488  0.3890
43246W        W86262   2.654  11.906   3.323  0.1863  0.1792 -0.0588
43247W        W86263  10.569   1.680  14.166  0.0761 -0.2249  0.2943
43248W        W86264  10.629  16.465  18.235 -0.0671  0.0032 -0.1300
43249W        W86265  32.508   1.576   3.702  0.0148  0.5163 -0.2351
43250W        W86266   6.254  33.074  20.445 -0.0100 -0.1728  0.0900
43251W        W86267  12.432  10.394  15.193  0.0203 -0.0485  0.3908
43252W        W86268  33.830  14.682  27.866 -0.0368  0.0726 -0.1591
43253W        W86269  13.869  20.596  21.405  0.0378  0.1208  0.0684
43254W        W86270  32.574  25.140  18.931 -0.1286  0.0819 -0.0112
43255W        W86271   4.899   9.726   7.214  0.3857 -0.1566  0.0600
43256W        W86272  14.416  23.861  16.280  0.2690  0.0762  0.1534
43257W        W86273  12.724  18.266   0.981 -0.0416  0.0234 -0.1667
43258W        W86274   9.675  13.082  26.862  0.0850 -0.1477  0.2169
43259W        W86275   9.942  13.730   0.362  0.1484 -0.1172  0.1067
43260W        W86276  18.757  24.475  20.086 -0.1514  0.2134 -0.0396
43261W        W86277  28.793  32.225   3.497  0.0094  0.0546 -0.1070
43262W        W86278   7.586  18.461  27.823  0.2151 -0.0463  0.0932
43263W        W86279  20.096  24.360   4.226  0.0420 -0.0478 -0.3366
43264W        W86280  20.835  18.097  15.452 -0.0951 -0.2088  0.0012
43265W        W86281  11.621  20.816  15.808  0.1308  0.0479  0.3433
43266W        W86282  11.578   8.343  14.309 -0.3102  0.1704  0.1434
43267W        W86283  15.375  14.726  19.783 -0.2630 -0.1887 -0.2476
43268W        W86284   7.238   4.383  16.342  0.2048 -0.2613 -0.2114
43269W        W86285   1.731  29.980   3.550  0.0914  0.0287  0.0768
43270W        W86286  27.958  26.276   2.441 -0.2849  0.0104 -0.0929
43271W        W86287  16.177  10.527  28.477 -0.1911 -0.0605 -0.2400
43272W        W86288  26.873   2.966  16.318 -0.0981 -0.0240 -0.1094
43273W        W86289  16.386  28.168  15.119  0.0476 -0.0497  0.0448
43274W        W86290   7.074   7.096   3.952  0.1478  0.0773  0.3318
43275W        W86291   0.471   7.295  22.673 -0.0012  0.1413  0.3577
43276W        W86292   2.413  22.917  20.563  0.0148  0.2240 -0.0587
43277W        W86293   3.226  21.457  23.108  0.0040  0.2499 -0.2237
43278W        W86294   3.931   6.302  24.128  0.2787 -0.1041  0.1029
43279W        W86295  30.076  17.858  15.011 -0.1360  0.1661 -0.2855
43280W        W86296  12.076  23.771  25.886  0.1180 -0.4276 -0.1823
43281W        W86297   6.178   8.318  14.266  0.0135 -0.2378 -0.0310
43282W        W86298  11.431  17.114  21.925  0.1795 -0.0865  0.0596
43283W        W86299  16.546   7.217   1.923  0.0864  0.1928 -0.1478
43284W        W86300  10.870  28.687  17.301  0.0094  0.4457  0.0474
43285W        W86301  20.615  16.223  12.067  0.1708 -0.0937  0.0293
43286W        W86302   9.370  15.205  22.384  0.1246  0.1922 -0.0254
43287W        W86303  10.692   5.279   0.671  0.2016  0.5253 -0.0866
43288W        W86304   6.618  27.338  18.734 -0.1240  0.1484 -0.3150
43289W        W86305   4.843  14.806  17.322  0.4683 -0.2630  0.0581
43290W        W86306   7.551   6.767  25.937 -0.1788  0.0545  0.1565
43291W        W86307   6.259  19.605  17.739  0.0672  0.0588 -0.0393
43292W        W86308  24.952  23.592  21.759  0.2746  0.1459  0.3941
43293W        W86309  13.472  11.899  25.429  0.1861 -0.1547 -0.1807
43294W        W86310  26.708  10.006  18.513  0.1178 -0.0615  0.1136
43295W        W86311   3.912  17.524  20.152 -0.0286 -0.2688  0.3111
43296W        W86312  14.104  32.698  27.971  0.4133  0.1507  0.3268
43297W        W86313  18.507  23.607  18.659 -0.1860  0.1047 -0.0781
43298W        W86314  27.954  11.519  20.575  0.2563  0.0381  0.3194
43299W        W86315  27.033  14.777  18.856  0.0334 -0.3747 -0.0328
43300W        W86316   4.893  18.058   4.434 -0.0862 -0.2018  0.0901
43301W        W86317   8.286  20.843  15.553  0.2845  0.1436 -0.0956
43302W        W86318  17.524   8.808  17.458  0.0177 -0.0728  0.0567
43303W        W86319   8.206  23.533  13.325 -0.2585 -0.2408  0.1466
43304W        W86320   6.343   7.979  17.638 -0.2174  0.3409  0.0179
43305W        W86321   3.835  16.302   2.605  0.0293 -0.0759  0.0298
43306W        W86322  16.373   0.469  18.689 -0.0503 -0.0682 -0.1294
43307W        W86323  32.623   4.259   1.515 -0.2152 -0.1506  0.0560
43308W        W86324  31.836  17.978   2.971  0.0416  0.0948 -0.1432
43309W        W86325  16.008  12.622  19.714 -0.0642  0.1721 -0.0030
43310W        W86326  13.601  24.573  20.662  0.0383  0.2571 -0.3228
43311W        W86327   0.174  10.179  17.663  0.0812  0.1379 -0.0858
43312W        W86328   4.995  18.688  24.986 -0.2602 -0.0118  0.1789
43313W        W86329  31.870  30.883   6.545 -0.3748 -0.2212 -0.1200
43314W        W86330   7.101  12.579  22.082 -0.4508  0.0678  0.1669
43315W        W86331  15.259   4.151  19.397  0.0389 -0.0517 -0.0668
43316W        W86332  18.234  20.996  14.900  0.0015 -0.6296 -0.3813
43317W        W86333   8.146  12.797  23.907 -0.0497  0.1177  0.0716
43318W        W86334   3.263  14.076  27.184  0.0974  0.0884  0.2868
43319W        W86335  13.292   2.434   0.792  0.1167  0.1758 -0.0350
43320W        W86336   7.254   9.086  24.191  0.1726 -0.3832 -0.4289
43321W        W86337  12.356   7.586  26.873  0.0483 -0.0704  0.2644
43322W        W86338   9.788  23.768  25.568  0.0694 -0.1895 -0.1591
43323W        W86339   4.559  16.068  16.361  0.2622 -0.2072 -0.1176
43324W        W86340   3.600   3.508  25.151  0.1653  0.0710 -0.1224
43325W        W86341  28.922  13.507  16.279  0.0573 -0.0860 -0.0914
43326W        W86342  13.196   7.652  21.724 -0.1044 -0.2459  0.1685
43327W        W86343  17.835  12.157  21.362  0.2984 -0.1072 -0.1564
43328W        W86344  14.986  10.005  24.856 -0.2892  0.4878  0.2852
43329W        W86345   2.380  10.372   3.189 -0.1373  0.0530  0.1752
43330W        W86346   8.202  17.389  27.808 -0.1314 -0.0171 -0.0772
43331W        W86347  22.412  10.821   1.374 -0.0274  0.3073  0.1235
43332W        W86348   8.189  23.078   7.587  0.3927 -0.1024 -0.2355
43333W        W86349  12.993  21.241  16.423 -0.0901  0.0996  0.1291
43334W        W86350   5.098  13.579  20.861 -0.0594 -0.2065 -0.0467
43335W        W86351  16.733  28.727   6.621  0.0432 -0.1478 -0.1022
43336W        W86352   8.883  27.469  21.967 -0.2272 -0.0602  0.1360
43337W        W86353   2.140   8.541  24.913 -0.1196  0.1264 -0.0871
43338W        W86354  24.772  17.464  28.555 -0.1799  0.3662 -0.1748
43339W        W86355  19.400  13.408  22.258 -0.2250 -0.2503  0.1323
43340W        W86356  12.339  21.489  22.777  0.0959 -0.0526  0.2165
43341W        W86357  25.168  14.097  19.045  0.2015  0.0187 -0.1026
43342W        W86358  19.930  22.263  27.085 -0.1291  0.3618  0.2354
43343W        W86359  14.054  31.950  17.386  0.4249  0.0246 -0.2939
43344W        W86360  10.897  10.135  14.165 -0.0774  0.1530 -0.1230
43345W        W86361  14.046  10.041  18.214 -0.2991 -0.4631  0.1759
43346W        W86362  29.988  14.955   0.130  0.1088  0.0308 -0.1635
43347W        W86363  27.548  16.156  15.663 -0.0298 -0.1512  0.0495
43348W        W86364   3.972  12.403  21.567 -0.0215 -0.1497 -0.0987
43349W        W86365  10.766   4.370  15.438  0.0039 -0.1108  0.3802
43350W        W86366  11.020  25.450  13.128  0.0696 -0.3086 -0.1993
43351W        W86367  34.162   8.330   0.043  0.2190 -0.3429 -0.1213
43352W        W86368  20.676  17.391   3.803  0.2009  0.0514  0.1097
43353W        W86369  10.635   6.284  25.141  0.4754 -0.0287  0.1186
43354W        W86370  24.421   8.205   1.723 -0.0351  0.0407  0.0615
43355W        W86371   3.510   7.330  13.719 -0.1963  0.2066 -0.2220
43356W        W86372   0.799  10.014  14.765  0.2729  0.2195 -0.2401
43357W        W86373   8.955   9.804  14.780 -0.1552 -0.0346 -0.2258
43358W        W86374  13.822   4.802   3.233 -0.1677  0.2159 -0.2418
43359W        W86375  23.270  11.013  16.963 -0.4459 -0.0013  0.3080
43360W        W86376   0.139   3.390   2.334  0.2341  0.1143 -0.0041
43361W        W86377   1.251   8.485  18.253  0.0351  0.3448 -0.2608
43362W        W86378  34.719  20.617  19.623  0.2248 -0.1392 -0.1397
43363W        W86379  34.425  17.814   9.343  0.4121 -0.3453 -0.0748
43364W        W86380  18.342   7.280  28.364 -0.2386 -0.0953  0.1858
43365W        W86381  33.359  20.821  15.455 -0.3403  0.1871 -0.2395
43366W        W86382  10.223   4.914  18.318 -0.1571 -0.2291  0.0348
43367W        W86383   3.890  18.084  22.920 -0.3131  0.1314 -0.3910
43368W        W86384   6.584  19.851   3.495 -0.0735 -0.1376  0.1462
43369W        W86385  23.149  13.359  23.256 -0.0054 -0.2612 -0.2525
43370W        W86386  10.531   9.006  22.717  0.2247 -0.0032 -0.0648
43371W        W86387   7.122  26.022  25.133 -0.3916 -0.1456 -0.1293
43372W        W86388  29.427   1.820  18.365 -0.3499  0.0498  0.3393
43373W        W86389  18.882  29.185  18.181  0.0782  0.1112 -0.3005
43374W        W86390  10.584  14.809  15.098 -0.1334 -0.1991  0.0553
43375W        W86391  18.375  13.955   4.277 -0.1908  0.4020 -0.0764
43376W        W86392  29.184   0.930  23.023 -0.0531 -0.3298 -0.2293
43377W        W86393  11.493   0.851  19.046  0.0124  0.1085 -0.1218
43378W        W86394  32.424  18.698  25.038  0.3639  0.0926  0.3295
43379W        W86395  12.092  16.601  13.585 -0.1209  0.1585 -0.0559
43380W        W86396  11.393  17.672  13.038 -0.1246  0.1870 -0.3103
43381W        W86397  10.821  26.448  15.017 -0.3792 -0.0884 -0.0699
43382W        W86398  17.015  15.921  14.337 -0.1160 -0.0343 -0.0995
43383W        W86399  11.677   1.607  16.265  0.0375 -0.0629 -0.1339
43384W        W86400   1.367  10.846  23.412 -0.0835 -0.2572  0.1605
43385W        W86401   6.857  12.965  17.519  0.1592 -0.1464  0.1674
43386W        W86402  17.039   9.775  16.424 -0.1525 -0.0890 -0.0898
43387W        W86403  14.595  28.137   0.375 -0.0647  0.1989 -0.5008
43388W        W86404  12.294  15.281  15.405 -0.3984 -0.0330  0.2143
43389W        W86405  19.268   8.873  22.144 -0.1180  0.4543  0.0617
43390W        W86406  11.214  18.154   5.320  0.2186 -0.1758 -0.1676
43391W        W86407  20.624  21.112   0.946  0.1200 -0.4014 -0.0376
43392W        W86408  31.254   7.433   2.672  0.2543 -0.0197  0.1934
43393W        W86409   9.800   1.255  24.659 -0.0379 -0.0081  0.2692
43394W        W86410   0.857  20.669  27.291 -0.0353 -0.1429 -0.1931
43395W        W86411   1.109   9.026  18.361 -0.1329  0.2169  0.0552
43396W        W86412  25.533  34.019  26.117 -0.1549 -0.3066  0.1378
43397W        W86413   7.767   5.662  17.506  0.1926  0.0776  0.0544
43398W        W86414  15.348  24.670  17.369 -0.1713  0.0251  0.2496
43399W        W86415  21.076  16.683   0.364  0.3023  0.0528  0.0049
43400W        W86416  31.921  12.568  18.791 -0.0614  0.2092  0.3416
43401W        W86417  12.437  34.718  19.592 -0.0988 -0.2639  0.0908
43402W        W86418  25.048   9.695   6.901 -0.0912 -0.1014 -0.3424
43403W        W86419  18.062   9.198  25.597  0.3477  0.1220  0.1028
43404W        W86420  18.782  10.392  15.085  0.1081  0.1612 -0.2663
43405W        W86421   6.788  10.618  18.401 -0.1658  0.0387  0.1397
43406W        W86422   9.185  34.218  22.167 -0.1038  0.0160 -0.0955
43407W        W86423  32.146  18.922  24.576 -0.0885 -0.1426 -0.1303
43408W        W86424  16.084  32.117  15.800 -0.0097  0.2180 -0.2044
43409W        W86425  14.839  18.436  21.736 -0.2814 -0.0126 -0.0829
43410W        W86426  13.055  12.700  19.378 -0.0364 -0.1923  0.1641
43411W        W86427   7.464  23.203  13.616 -0.2887 -0.1799  0.0940
43412W        W86428  11.764  17.359  21.534 -0.1353 -0.4412 -0.0035
43413W        W86429   6.125  18.315  20.558  0.0403  0.0700  0.1342
43414W        W86430   9.792  25.757  25.373  0.0911 -0.1482  0.0275
43415W        W86431  32.530  14.266   1.025  0.1648  0.1598 -0.3007
43416W        W86432  18.542  13.458  14.728  0.0026  0.1397  0.0570
43417W        W86433  18.799  27.004  18.974 -0.2590 -0.1686 -0.1499
43418W        W86434   1.211  25.084  20.252 -0.2365 -0.0669  0.3498
43419W        W86435  33.177  13.803  28.355  0.1934  0.5238  0.0822
43420W        W86436  26.419  12.775   8.885 -0.0576  0.0407  0.0297
43421W        W86437   5.362   9.596  17.041  0.2141 -0.0674  0.2204
43422W        W86438  19.516  27.766  26.578  0.1653 -0.1205 -0.0649
43423W        W86439  21.049  21.518  14.890 -0.0081  0.1216  0.0243
43424W        W86440   2.965  18.782   3.869 -0.1974 -0.0127 -0.2067
43425W        W86441   9.110  25.340  28.889 -0.6463 -0.3358  0.0775
43426W        W86442  32.122  10.940   0.753  0.2112  0.0610 -0.2589
43427W        W86443  10.779  15.338   0.393  0.0554  0.3601  0.1233
43428W        W86444  12.321  20.934  12.889  0.1883  0.1639  0.1368
43429W        W86445   9.798  24.515  21.751 -0.0478 -0.0358  0.0268
43430W        W86446   7.152  27.090  15.244  0.4340 -0.2896  0.0329
43431W        W86447  30.558  16.735   8.685 -0.2412 -0.1009 -0.1838
43432W        W86448  10.927  17.009  13.048  0.0364  0.0474 -0.1380
43433W        W86449  23.057  10.668  16.400 -0.1250  0.3507  0.2058
43434W        W86450  16.232   9.777  21.616 -0.1243 -0.1272 -0.0088
43435W        W86451  13.850  31.611  24.176  0.0820  0.1198  0.2906
43436W        W86452  10.320  23.242  15.545 -0.0048 -0.1718  0.2904
43437W        W86453   7.477  11.775  28.542 -0.2347 -0.1950 -0.2623
43438W        W86454  33.131  18.912  18.760  0.0431  0.2463 -0.0145
43439W        W86455  24.370  11.947  16.575 -0.1643  0.2470  0.0476
43440W        W86456  15.803  21.226  26.593  0.0506  0.3961 -0.0134
43441W        W86457  19.455   8.503   2.606 -0.0645 -0.3372  0.0624
43442W        W86458  32.476   8.671  15.983 -0.1796 -0.0111  0.5092
43443W        W86459  14.513  32.327  23.292 -0.2574  0.1336  0.1751
43444W        W86460   6.370  21.200  25.536 -0.1117  0.2122  0.0080
43445W        W86461  12.830   3.018  26.998 -0.0068  0.2950 -0.3980
43446W        W86462   9.006   4.750  26.782  0.0246  0.1047 -0.4041
43447W        W86463  11.915  29.840  23.139 -0.1081  0.1985 -0.4326
43448W        W86464  15.637  12.614  20.023 -0.0464 -0.3944 -0.0547
43449W        W86465   2.619  17.509   0.521 -0.0255  0.1442 -0.4518
43450W        W86466  11.817  28.890   2.902  0.2698 -0.1410  0.2519
43451W        W86467   6.455  17.598  25.197  0.0564  0.0391 -0.1483
43452W        W86468  10.459   6.959  15.972  0.0774 -0.2184 -0.1738
43453W        W86469   9.248   7.068  19.516 -0.3868  0.1088 -0.0961
43454W        W86470   8.195   0.821   4.500  0.0032  0.1049 -0.0457
43455W        W86471  16.064   7.397   6.196  0.1487 -0.2156  0.0234
43456W        W86472  13.464   6.993  28.593 -0.0006 -0.1321  0.0220
43457W        W86473  20.111  15.889  22.811 -0.2246 -0.3666  0.0628
43458W        W86474   7.282  14.338  15.485  0.1500 -0.1947  0.0411
43459W        W86475   2.353  20.206   1.686  0.4786 -0.0996 -0.1127
43460W        W86476   5.524  13.466   1.072 -0.2976 -0.4086  0.0962
43461W        W86477   9.871  19.707   5.650  0.2977 -0.1022  0.1143
43462W        W86478  14.169  23.367  16.422  0.0582  0.1296 -0.0427
43463W        W86479  25.638   5.464  25.174 -0.1684 -0.0754  0.1072
43464W        W86480  18.237   7.962  13.970 -0.0263 -0.1807 -0.0128
43465W        W86481  18.725   2.109  19.441  0.0840 -0.1191  0.0341
43466W        W86482   7.048  20.115  24.138 -0.3820  0.0137  0.1223
43467W        W86483  10.985   2.076  15.245  0.0011  0.1470  0.0110
43468W        W86484   1.171  10.510  24.482  0.1121  0.0841  0.3047
43469W        W86485  17.882  25.880  16.108  0.0277 -0.1829  0.0799
43470W        W86486  13.401   8.517  17.785 -0.3380  0.0211  0.0938
43471W        W86487   4.056  25.533  29.023 -0.2607  0.1003 -0.0693
43472W        W86488   5.380  16.092   7.098  0.0044 -0.0588  0.0286
43473W        W86489  11.294  12.845  14.310 -0.0157 -0.1449  0.3115
43474W        W86490  11.321   9.378   1.403 -0.2455  0.0464 -0.1672
43475W        W86491   7.288  14.939  27.286 -0.1079 -0.0129  0.1213
43476W        W86492   6.003  13.622  25.760 -0.0906  0.0081  0.5382
43477W        W86493  31.309  17.094   2.553  0.0300 -0.0620  0.0276
43478W        W86494  13.904   8.273  15.166  0.0901  0.0162 -0.0648
43479W        W86495  30.606   6.010   5.626  0.1553  0.1623  0.0332
43480W        W86496  28.044  20.281  14.631 -0.0124  0.3079  0.3060
43481W        W86497   3.734  28.763  28.707 -0.0182 -0.1118 -0.1193
43482W        W86498  33.705   5.711  18.878  0.2239 -0.1853 -0.0331
43483W        W86499  12.928   4.916  21.539 -0.1932  0.0140 -0.2164
43484W        W86500  12.952  32.889  20.577 -0.0873  0.0766 -0.6092
43485W        W86501  18.667  10.887  24.081  0.2500 -0.1042 -0.2127
43486W        W86502   3.870  13.016  21.662 -0.0342  0.1199  0.3342
43487W        W86503  25.364  29.789  15.615 -0.0281 -0.2142 -0.0063
43488W        W86504  19.206  25.659  20.700  0.2510 -0.0629  0.0846
43489W        W86505   0.882  14.317  23.717  0.0921  0.0098 -0.1073
43490W        W86506  10.226   0.811  25.658  0.2172  0.0032  0.3172
43491W        W86507  30.723   9.317   0.778 -0.2111  0.1359 -0.0298
43492W        W86508   4.109  18.804  20.914 -0.0034  0.0307  0.0296
43493W        W86509   2.025  13.934  27.089 -0.0488  0.4962  0.0145
43494W        W86510  14.562  17.187  14.129  0.1796 -0.1337  0.1180
43495W        W86511  21.474  26.805  21.126 -0.1375  0.0680 -0.0309
43496W        W86512   9.555  19.344  17.212 -0.3072  0.0565 -0.0358
43497W        W86513  18.375  13.915  11.336 -0.3433  0.3037 -0.1979
43498W        W86514   8.682  21.900  25.473 -0.3070 -0.0909 -0.0841
43499W        W86515   0.594   5.817  26.175 -0.0566 -0.0159 -0.1259
43500W        W86516   1.483  17.801  27.557  0.0371  0.1386  0.1086
43501W        W86517  27.352  14.351   5.875  0.4950 -0.0720  0.1287
43502W        W86518  16.509  13.902  14.759  0.0083  0.0611 -0.0824
43503W        W86519   8.791   2.552  14.401 -0.0368 -0.0055 -0.0224
43504W        W86520  22.720  11.977  19.166 -0.0133  0.0490 -0.0121
43505W        W86521  18.157  33.809   6.375  0.0679  0.0050 -0.1654
43506W        W86522   4.165  15.055  24.000 -0.0405 -0.2179  0.2536
43507W        W86523   7.985  17.474   8.078  0.0211 -0.0847  0.0118
43508W        W86524   4.198   3.892  21.276  0.2242 -0.1944  0.2440
43509W        W86525  11.762  32.101  20.967  0.0493  0.0844 -0.1242
43510W        W86526  34.183  13.775  24.935  0.1427 -0.1580 -0.1644
43511W        W86527   7.617  12.668  13.997 -0.1640  0.0865 -0.2512
43512W        W86528  28.760   8.372   5.472 -0.0405 -0.2797 -0.2609
43513W        W86529  12.451   3.760  20.416 -0.0885 -0.1673 -0.0245
43514W        W86530  22.476   9.340  19.195  0.0823  0.0365 -0.1986
43515W        W86531  17.255  11.615  25.491 -0.0953  0.0280 -0.1277
43516W        W86532   9.983  24.745  14.229 -0.2804  0.0463  0.0727
43517W        W86533   0.185  26.313  22.337 -0.2993  0.1667 -0.3264
43518W        W86534  18.472  21.033  28.140  0.2975  0.0853  0.1715
43519W        W86535  18.348  28.294  19.277  0.3247 -0.0018 -0.2877
43520W        W86536  17.449  30.915  16.060  0.2379  0.3561  0.1493
43521W        W86537  15.124  23.589  26.012 -0.1102 -0.1128 -0.0018
43522W        W86538  10.375   5.236  21.830  0.1041 -0.1879 -0.1342
43523W        W86539  30.665  17.321  23.619  0.1553  0.5825 -0.2713
43524W        W86540  28.374  28.685  21.326  0.1239  0.0436  0.0306
43525W        W86541   6.946  13.750  28.458 -0.0367 -0.1452 -0.0949
43526W        W86542  21.326  26.659  28.901 -0.3272 -0.2230 -0.1308
43527W        W86543  18.287  14.158  28.310 -0.0631 -0.3558  0.2831
43528W        W86544  15.811  13.999   1.127  0.0473  0.0357  0.2481
43529W        W86545   7.146  15.574  22.827 -0.0698 -0.4927 -0.0850
43530W        W86546   7.850  12.997  18.085 -0.0432  0.0869  0.0680
43531W        W86547   2.734   5.954  19.883 -0.1764  0.1305  0.0246
43532W        W86548  27.168  21.201  25.596 -0.3277 -0.3737  0.0723
43533W        W86549  18.182  22.607  12.426  0.0006 -0.1770 -0.1943
43534W        W86550   1.529  12.800   0.105 -0.0492  0.0448  0.0113
43535W        W86551   2.439  15.603  17.049 -0.1033 -0.0459 -0.0665
43536W        W86552   1.731  25.284  27.927  0.0486 -0.2574  0.0238
43537W        W86553   5.441  17.155  25.487  0.0423 -0.0866  0.3427
43538W        W86554  10.729  22.531  25.483  0.0350  0.1958 -0.1681
43539W        W86555   5.998  23.905   8.375 -0.1113 -0.2228 -0.1927
43540W        W86556  12.014   3.100  24.713 -0.2720  0.2408  0.2342
43541W        W86557  22.329   6.938  14.778 -0.2051 -0.1162  0.2411
43542W        W86558   3.619   7.280  17.757 -0.0588 -0.3822 -0.2175
43543W        W86559  12.766  23.106  29.129  0.0024  0.2298 -0.0919
43544W        W86560  11.068  11.538  17.337 -0.2706 -0.1491 -0.0166
43545W        W86561  27.310  30.385  24.006 -0.3429  0.0495  0.0149
43546W        W86562   7.686   8.584  10.167 -0.1043 -0.0832 -0.1996
43547W        W86563   1.539  14.493   7.588 -0.2498 -0.0059  0.1185
43548W        W86564  31.672  25.139  19.298 -0.0564  0.1827  0.1723
43549W        W86565  12.275  25.747  17.960  0.1233 -0.0124  0.1618
43550W        W86566   0.977  11.634  18.135  0.1604 -0.0752  0.2248
43551W        W86567  12.322  30.373   8.873  0.1267 -0.1232  0.1140
43552W        W86568  17.793  32.435  17.145  0.1752 -0.2443 -0.2650
43553W        W86569  23.694  11.181   1.959 -0.0157  0.0679 -0.2965
43554W        W86570   9.828  26.950   5.731  0.1597  0.0423  0.0306
43555W        W86571  31.153  31.022  26.368 -0.1474 -0.2166 -0.0151
43556W        W86572  29.295  24.275  28.808  0.3461 -0.2369  0.1384
43557W        W86573  11.160  18.892  28.385  0.2791  0.0360  0.1625
43558W        W86574   4.199  25.180   0.611 -0.0871  0.3007 -0.1836
43559W        W86575   3.791  16.926  25.080  0.1945 -0.1858  0.0019
43560W        W86576   4.536  18.549  19.832 -0.0512 -0.2150  0.1132
43561W        W86577  11.414  14.362  15.106 -0.0979 -0.0507 -0.0765
43562W        W86578  20.736  17.401  12.586  0.0520 -0.0776 -0.0511
43563W        W86579  27.748  17.119  14.204  0.0543 -0.1995  0.0111
43564W        W86580  34.234  20.841  28.986 -0.3098 -0.0300 -0.2140
43565W        W86581  13.647   1.687  21.561 -0.1162 -0.1249  0.1442
43566W        W86582   8.882   7.644  19.198  0.1872  0.0621 -0.0773
43567W        W86583   8.782  17.699  28.860 -0.0126 -0.1888  0.0999
43568W        W86584   6.137  34.023  18.503  0.1272 -0.1027  0.0038
43569W        W86585   6.656   7.051   3.710 -0.3884 -0.0556 -0.1834
43570W        W86586   5.013  13.619   9.568  0.3233 -0.0472 -0.2579
43571W        W86587   4.723  24.274  14.878 -0.2129  0.1356 -0.0617
43572W        W86588  29.475  18.335  15.577 -0.2853 -0.1977 -0.1464
43573W        W86589  17.502  14.006   4.479  0.0292 -0.1509  0.0369
43574W        W86590  23.108  18.931  16.267  0.0859 -0.1470  0.0318
43575W        W86591  18.969  24.314   3.487 -0.0303  0.1540 -0.0130
43576W        W86592  30.071  17.253  15.005 -0.2664 -0.1193  0.0092
43577W        W86593   9.430  18.720  15.298  0.3194 -0.3213  0.2658
43578W        W86594  11.044  29.084  22.001  0.1873  0.1288  0.0268
43579W        W86595   1.540   0.954   5.381 -0.0577  0.2262  0.1410
43580W        W86596   1.042  27.122  21.194 -0.1223  0.3723  0.0492
43581W        W86597  33.143  10.183  22.236 -0.2096 -0.0911 -0.0619
43582W        W86598  16.995  29.372  22.367  0.0643 -0.3856  0.0913
43583W        W86599   0.846  34.577  15.602 -0.1198  0.0964 -0.0994
43584W        W86600  23.668  18.723   0.046 -0.3745 -0.2137 -0.2555
43585W        W86601  16.506  20.241  21.777  0.1465 -0.0327 -0.0718
43586W        W86602   6.714  16.379  16.091 -0.1998  0.0289  0.1184
43587W        W86603  18.787  15.345   0.496 -0.1676  0.0206  0.3137
43588W        W86604  15.977  22.252   3.097  0.1106 -0.2191 -0.1039
43589W        W86605   7.559  34.104  18.718  0.1255  0.0698  0.1923
43590W        W86606  25.012  11.328  19.085 -0.1093  0.0633 -0.1342
43591W        W86607  20.065   8.117  26.902 -0.1107  0.0799 -0.5460
43592W        W86608  23.896   8.636  15.323 -0.4818  0.0224  0.0773
43593W        W86609   3.428  19.480  16.200  0.4554 -0.0623 -0.0447
43594W        W86610  25.563   6.902  19.600 -0.3581 -0.0546 -0.0420
43595W        W86611   3.134   5.521  14.209 -0.2653  0.1083 -0.1943
43596W        W86612  19.167  14.156  29.118  0.3141  0.1364 -0.0742
43597W        W86613   1.960  27.682  25.645 -0.0077 -0.0163  0.3601
43598W        W86614   7.210   0.041   1.199  0.3127 -0.2669 -0.3866
43599W        W86615  16.974   2.644  16.012  0.1007 -0.1988 -0.0076
43600W        W86616  24.671   2.246  10.804  0.3232 -0.2087  0.0046
43601W        W86617   9.927  23.582  15.419  0.3787  0.0988 -0.0115
43602W        W86618  15.920   3.130   9.858  0.1200  0.0817 -0.2211
43603W        W86619   4.845  24.560  10.047  0.0135 -0.0078  0.1845
43604W        W86620  14.521   4.792  28.271 -0.0478  0.1302 -0.0287
43605W        W86621  23.829  21.233   7.464  0.0308  0.2637 -0.1200
43606W        W86622  31.841   5.198  27.742 -0.1870 -0.3877  0.0938
43607W        W86623  12.575  24.848   6.844  0.1299  0.0331  0.0203
43608W        W86624  13.758  18.898   6.032 -0.0570 -0.1621  0.0447
43609W        W86625  19.152  33.212  27.566 -0.3308  0.2864 -0.0977
43610W        W86626   5.207  30.087   1.728  0.2676 -0.0294  0.0116
43611W        W86627  16.281   7.474  26.276 -0.1372 -0.1181  0.3684
43612W        W86628  11.257  22.690   4.984  0.0238 -0.0962  0.0135
43613W        W86629  30.281  24.314  22.911 -0.1894  0.3336  0.1228
43614W        W86630   1.550  13.155  10.239  0.1488 -0.1072 -0.0172
43615W        W86631  24.480   7.777   4.634  0.0610  0.1152 -0.0893
43616W        W86632  26.671  15.421   0.919  0.1034 -0.1965  0.4664
43617W        W86633  13.145   4.785  28.261  0.2358 -0.0934 -0.3181
43618W        W86634  22.703  29.262  26.257 -0.0994  0.0520 -0.0826
43619W        W86635   5.463  11.540   6.960 -0.0129  0.0680 -0.2192
43620W        W86636   7.877   5.140  26.858  0.3276 -0.2000  0.3298
43621W        W86637  21.774  29.171   7.764 -0.2977  0.0938 -0.2805
43622W        W86638  24.415  20.946  16.731 -0.0739 -0.0231 -0.2883
43623W        W86639  11.122  10.338   3.625 -0.0387  0.0016 -0.1864
43624W        W86640  11.056   2.737   3.323  0.0561 -0.3667  0.1198
43625W        W86641  20.634   8.033  25.069  0.1680 -0.1763  0.2412
43626W        W86642   7.626  15.798  20.949 -0.3361 -0.0195  0.1376
43627W        W86643   8.576  34.771  14.991  0.2537 -0.0103  0.0771
43628W        W86644   7.582  20.525   7.712 -0.0764  0.2837  0.1714
43629W        W86645  10.509  19.326  25.177 -0.0051  0.0809  0.0112
43630W        W86646   0.042  24.995   1.389 -0.0249  0.0613  0.1055
43631W        W86647  33.250  21.520  26.363 -0.1566  0.0410 -0.2594
43632W        W86648   9.892   7.423  20.133  0.0702 -0.0403  0.0876
43633W        W86649   8.814   7.104   8.511 -0.0881  0.0870 -0.1942
43634W        W86650  34.471  25.407   7.515 -0.2199  0.1388  0.0975
43635W        W86651  17.219  26.255  14.835  0.2641 -0.3369  0.5514
43636W        W86652   8.793   9.863   0.684 -0.1625  0.2548  0.0036
43637W        W86653   7.717  15.561   3.622  0.1192  0.1150  0.3212
43638W        W86654  11.210  31.883  18.723 -0.4314  0.1036  0.1457
43639W        W86655  12.482   7.808   8.694  0.0788  0.1589 -0.1372
43640W        W86656  30.555   3.822  28.855 -0.2403  0.0625 -0.2441
43641W        W86657   2.568  20.741  20.171 -0.3068  0.0955  0.0570
43642W        W86658   0.918  16.427  26.724  0.1690  0.2671 -0.3263
43643W        W86659  29.272  32.230  27.135 -0.0491  0.1296 -0.3507
43644W        W86660  31.992  23.696   8.248 -0.0559 -0.4727  0.1598
43645W        W86661   4.695  32.612   5.264  0.0567  0.1925  0.4180
43646W        W86662   2.402   4.443  19.987  0.2448 -0.2270 -0.1433
43647W        W86663  18.331  14.039  24.741 -0.0057 -0.0005 -0.0569
43648W        W86664  10.774  13.282   7.934 -0.0843  0.3540 -0.1718
43649W        W86665   5.401  14.442  16.187  0.2918 -0.0764  0.2734
43650W        W86666  12.557  32.038  24.433  0.3753  0.2289  0.1269
43651W        W86667  16.484   9.937  13.708  0.2913 -0.2010 -0.0504
43652W        W86668   7.630  27.606  29.214  0.2648 -0.1416 -0.4393
43653W        W86669   1.625  26.541  24.646  0.0167  0.3453 -0.1525
43654W        W86670  34.164  18.944  27.445  0.2781 -0.0987  0.1219
43655W        W86671   8.708   9.124  17.039  0.0597 -0.1196  0.1196
43656W        W86672   2.186  13.829  19.533  0.1114 -0.1549 -0.1066
43657W        W86673  10.926  16.407   9.238  0.1974 -0.0628  0.0094
43658W        W86674  13.648  14.628   5.017  0.0682 -0.2719  0.0345
43659W        W86675  28.845  22.536   0.972 -0.0759  0.2020 -0.1767
43660W        W86676  13.618  29.184  16.648 -0.0024  0.0275  0.1279
43661W        W86677  25.194  11.683  23.637 -0.1789  0.1681 -0.2076
43662W        W86678  13.135  19.762   5.431  0.2069  0.0161  0.1506
43663W        W86679   5.897   8.397   5.561 -0.3215 -0.2516  0.2112
43664W        W86680  34.036  23.882   8.079  0.3850 -0.2661  0.2281
43665W        W86681   6.684  24.131  26.058 -0.1171 -0.0898  0.0448
43666W        W86682  22.135  19.082   2.340 -0.0251 -0.0006  0.0812
43667W        W86683   6.202   3.547  16.333 -0.0449  0.0294  0.3377
43668W        W86684  10.205  14.291  15.620 -0.0031 -0.0996  0.0036
43669W        W86685   0.221  11.206   5.547 -0.0002  0.2689  0.1967
43670W        W86686   8.321  24.258  26.228 -0.1102 -0.4020 -0.1830
43671W        W86687   1.980  17.080  23.915 -0.2591  0.2671 -0.0586
43672W        W86688  28.218  17.989   7.927  0.2448  0.2821  0.1559
43673W        W86689   0.457  20.057  24.903  0.0477 -0.0327 -0.3428
43674W        W86690  14.744  25.432   5.879 -0.3911 -0.0451  0.1205
43675W        W86691   8.881  14.672   5.215  0.1094 -0.2652  0.3908
43676W        W86692  17.237  33.972   5.393  0.0639 -0.0314 -0.1859
43677W        W86693  21.912  31.957  10.131  0.1764  0.2147  0.3536
43678W        W86694  14.624   1.365  20.805 -0.1823 -0.2814  0.3182
43679W        W86695  32.634   4.828  10.959 -0.2240 -0.1595 -0.0902
43680W        W86696  24.951  22.452   5.253  0.0307 -0.1898  0.2465
43681W        W86697   7.879   9.229  26.792  0.1133  0.2927 -0.0583
43682W        W86698  10.282  27.617  27.634 -0.1367 -0.0708 -0.2166
43683W        W86699   7.354  11.915  19.497 -0.0566 -0.3110  0.0452
43684W        W86700  13.532   8.010  14.937  0.1138 -0.3337  0.0127
43685W        W86701  16.596  15.406  15.167  0.6406 -0.0812 -0.0660
43686W        W86702   8.292  18.471  27.709  0.0976  0.0228  0.2247
43687W        W86703   4.567  17.979  28.297  0.1488 -0.0978  0.1261
43688W        W86704  21.250  11.423  20.810 -0.1546  0.0004 -0.0361
43689W        W86705  30.737  11.227  19.712 -0.0952  0.0156  0.2534
43690W        W86706  15.916   2.408  26.011 -0.2038  0.2381 -0.1266
43691W        W86707   6.923  13.240  18.448 -0.1291  0.2815  0.0944
43692W        W86708  21.505  10.695  26.866 -0.3793  0.1366  0.0551
43693W        W86709   8.252  17.937  15.268  0.1536 -0.1703  0.2029
43694W        W86710  31.671   4.307   1.277  0.1764 -0.0077  0.2294
43695W        W86711  33.407  14.009  24.070  0.1103 -0.2599  0.0787
43696W        W86712   7.168  23.858  14.948  0.0593 -0.1135  0.0198
43697W        W86713  18.043  21.034   5.677 -0.2937 -0.0314 -0.1825
43698W        W86714  17.828  24.068  22.614  0.4757 -0.0712  0.0609
43699W        W86715  13.126   8.059  28.224 -0.2703 -0.1632  0.1643
43700W        W86716  20.121  34.247  19.478  0.1145 -0.0886 -0.0307
43701W        W86717   3.511  26.893  18.156 -0.1065 -0.3166 -0.1761
43702W        W86718   5.614   3.543   3.811  0.0776  0.3479  0.1040
43703W        W86719  19.055  15.688  17.899  0.0061 -0.1433 -0.3084
43704W        W86720  18.996  14.784   2.362 -0.1163 -0.0904 -0.0169
43705W        W86721  23.675  20.971  14.310 -0.1473 -0.1877  0.2590
43706W        W86722  19.336  14.618   8.331 -0.0178  0.0557  0.0193
43707W        W86723   9.056  18.051  22.169  0.0313 -0.0892 -0.0978
43708W        W86724   7.477  10.212   4.402  0.0823 -0.3519 -0.0348
43709W        W86725  20.651   5.124  24.022  0.0456  0.0606 -0.1927
43710W        W86726  24.795  33.983  21.178  0.1590  0.0187  0.2375
43711W        W86727  12.010   7.696  17.959 -0.1011  0.0688  0.0125
43712W        W86728  12.959  20.590  23.064  0.3403  0.0889  0.0496
43713W        W86729   4.136   5.994  25.481  0.0800 -0.0801  0.1804
43714W        W86730  12.681  22.523  16.082  0.0745 -0.2332  0.1029
43715W        W86731   0.153  32.596  25.493  0.0165  0.0118 -0.2065
43716W        W86732   6.997  15.457  19.629 -0.1899 -0.0647 -0.0495
43717W        W86733   3.395  19.171   0.677  0.0780  0.1147 -0.0992
43718W        W86734  15.052  22.258  17.409  0.3148  0.1092  0.1053
43719W        W86735  19.738  24.489   7.829  0.0663  0.2619  0.0595
43720W        W86736   2.427  28.802  16.502  0.1052 -0.0036  0.0479
43721W        W86737   3.416   5.227   6.380 -0.0942 -0.1110  0.3547
43722W        W86738  12.499   1.530   4.605 -0.2611  0.0505  0.1432
43723W        W86739   6.580  19.003  26.506 -0.0239 -0.0048  0.3275
43724W        W86740  24.264  23.171  28.943  0.0812  0.3873  0.1075
43725W        W86741   3.060   6.377  15.805 -0.0374 -0.1024 -0.0226
43726W        W86742   6.076  14.152   2.167 -0.1336 -0.0966 -0.0470
43727W        W86743   2.825   6.798   5.665  0.1394 -0.0335 -0.1207
43728W        W86744   7.264  20.321  26.159  0.0929  0.2050 -0.1849
43729W        W86745   4.022  27.461   8.215 -0.0047  0.1824 -0.3483
43730W        W86746  13.510  16.684  22.590 -0.0691  0.1447  0.2835
43731W        W86747  12.521  15.765   1.266  0.0981 -0.1141 -0.1184
43732W        W86748  13.479  12.166  16.157  0.1715 -0.0079  0.0861
43733W        W86749  17.507  22.180  20.745  0.1405 -0.0404 -0.3557
43734W        W86750   9.705  22.266  29.096  0.0858 -0.0144  0.0084
43735W        W86751  16.970  33.962  24.811 -0.3033 -0.1239  0.1416
43736W        W86752  28.461  10.018   9.629  0.1058  0.2140  0.0781
43737W        W86753   3.034  18.728   5.478 -0.0425 -0.1619  0.2361
43738W        W86754  18.296   4.262   4.533  0.1877  0.0627  0.0103
43739W        W86755  11.298  22.858  27.781  0.0452 -0.0151 -0.2606
43740W        W86756  10.744  18.109   4.124 -0.0555  0.1187 -0.3914
43741W        W86757  11.806  20.844  14.471  0.0649 -0.2597  0.1032
43742W        W86758  32.612  16.902  20.253 -0.1655 -0.2253  0.2117
43743W        W86759  32.953  24.913  24.747  0.2898  0.3510 -0.0582
43744W        W86760   7.098  28.187   0.027 -0.0920  0.1834  0.0979
43745W        W86761   3.949  11.990  27.873 -0.1685  0.0612 -0.2216
43746W        W86762  28.371  19.322   8.451  0.1651  0.3793  0.0381
43747W        W86763  13.064  29.082  17.469  0.0241 -0.1474 -0.0404
43748W        W86764   1.996  19.204   7.578  0.0159  0.0806 -0.1287
43749W        W86765   9.500  25.220   2.022 -0.0607 -0.1070  0.1667
43750W        W86766  14.626  17.804   1.915 -0.3484  0.1669  0.1552
43751W        W86767  10.996  28.271  23.915  0.2230  0.3265 -0.0970
43752W        W86768  33.579   8.725   8.159 -0.2150 -0.1997  0.0639
43753W        W86769  16.552  12.015   5.844 -0.3908  0.0846  0.1764
43754W        W86770  14.272   7.728  27.343 -0.0422  0.2647  0.1764
43755W        W86771  15.183   0.050   2.379 -0.3724  0.1111  0.0632
43756W        W86772  10.513  29.748   8.617  0.0522  0.0658  0.1587
43757W        W86773   5.123  20.446   5.872  0.1601  0.0244  0.0781
43758W        W86774  21.392  22.057  18.976 -0.2088  0.0236 -0.1871
43759W        W86775  31.466  11.086   1.223  0.1914  0.0208  0.3048
43760W        W86776  19.927  21.721  27.140 -0.2464  0.2368 -0.2778
43761W        W86777  25.070   9.352  28.905 -0.0395  0.1807 -0.3720
43762W        W86778   7.208  19.763  25.212  0.3466  0.0172  0.1937
43763W        W86779  29.164  31.793  17.501  0.0380 -0.0719  0.0801
43764W        W86780  30.104  23.833  23.695 -0.1555  0.0516  0.0864
43765W        W86781  14.429   5.566   9.508  0.2170 -0.1483 -0.1856
43766W        W86782   7.689  12.380   0.282  0.0977 -0.4393 -0.0484
43767W        W86783   6.671  13.203   0.135  0.0476  0.0561  0.0962
43768W        W86784   8.270  33.218   3.729 -0.0623  0.1116  0.0883
43769W        W86785  20.144  16.763   3.434 -0.1286  0.1776 -0.3483
43770W        W86786  14.699  26.296  26.066 -0.0475  0.2034 -0.1519
43771W        W86787  24.229  14.371  18.457 -0.1696 -0.1877 -0.0607
43772W        W86788   9.610  20.039  25.959  0.1747  0.0153  0.4909
43773W        W86789  13.426  17.792  23.769  0.0697 -0.2776  0.1746
43774W        W86790   0.607  16.258  19.522 -0.1737 -0.2276  0.1932
43775W        W86791   4.489   7.676   9.062  0.1527 -0.0506 -0.1887
43776W        W86792  24.652   5.731  21.233 -0.2015 -0.0756  0.0436
43777W        W86793  26.570  14.833  16.497 -0.3532  0.2576 -0.0155
43778W        W86794   7.076  24.854   1.548  0.0388 -0.0618  0.1206
43779W        W86795   0.347  10.405   3.234  0.1447 -0.0558  0.2432
43780W        W86796  11.121  34.731   4.119 -0.1104 -0.0391  0.2951
43781W        W86797  31.719  31.179   2.576  0.1443 -0.3368  0.0733
43782W        W86798   6.841   0.808  25.521 -0.0085  0.0019 -0.0065
43783W        W86799  34.625   3.129  18.546 -0.0238 -0.0286 -0.0087
43784W        W86800  11.338   1.499  23.381  0.0862 -0.0698 -0.4259
43785W        W86801  12.171  27.269  18.952 -0.0878 -0.3965  0.1640
43786W        W86802  18.165  18.259   2.789 -0.2180 -0.3526  0.0243
43787W        W86803  23.114  15.960   3.445  0.0538  0.1251  0.1788
43788W        W86804   2.968  11.029  25.354  0.0845 -0.0301  0.0371
43789W        W86805  15.126  17.528  26.960 -0.0115  0.2203 -0.1670
43790W        W86806   4.126   7.817  18.465 -0.0507 -0.4429  0.0320
43791W        W86807  14.058  19.656  12.808 -0.1054  0.0998  0.0535
43792W        W86808   1.526   8.774   8.641 -0.0160 -0.0569  0.0637
43793W        W86809   1.501  14.144   0.750  0.1117 -0.2467  0.0412
43794W        W86810  21.129  20.583  14.522  0.1989 -0.0956  0.0901
43795W        W86811   9.856   1.855  27.120 -0.1056  0.3189 -0.1082
43796W        W86812  17.750  25.801  19.980 -0.2761  0.1675 -0.1821
43797W        W86813  24.568  12.227  26.626  0.0725 -0.2602  0.0591
43798W        W86814  29.868  13.048  24.654  0.2212  0.2347  0.0845
43799W        W86815  17.950   8.879   3.043  0.0252 -0.0344 -0.4515
43800W        W86816   6.152   0.896  27.975 -0.0095  0.1558  0.2616
43801W        W86817  15.855  15.644  12.394 -0.1870  0.0132 -0.1589
43802W        W86818  13.769  23.164  17.810 -0.0926  0.3829  0.3970
43803W        W86819   2.958  22.778  17.930 -0.4055 -0.1501  0.3020
43804W        W86820  19.317   3.619  17.225 -0.2218  0.0955 -0.0375
43805W        W86821  32.945  11.153  25.248 -0.4286 -0.1117  0.3546
43806W        W86822  12.788   8.052  22.975  0.1261  0.1487  0.0969
43807W        W86823  26.786  13.429   0.606 -0.0156  0.1306 -0.0268
43808W        W86824  31.188  26.238  17.904 -0.0082  0.0500 -0.2599
43809W        W86825   6.687   1.462  16.569  0.1155  0.1283  0.0037
43810W        W86826  28.319   5.777  24.559 -0.1387 -0.0251  0.1965
43811W        W86827   7.867  13.136   4.608 -0.3063 -0.1548 -0.1561
43812W        W86828  30.920  29.795  19.459  0.3030 -0.1171  0.1619
43813W        W86829  21.540   9.725  20.240 -0.1641 -0.2482  0.3040
43814W        W86830  25.944  16.354  24.579  0.0571  0.2901  0.0197
43815W        W86831   7.343  16.143  25.658 -0.1686  0.0996 -0.0617
43816W        W86832  30.360   7.497  17.122  0.2961  0.0070 -0.2138
43817W        W86833  10.653  23.031  21.009  0.1961  0.0531 -0.1942
43818W        W86834  25.498  20.771   0.151 -0.4040  0.0801  0.1761
43819W        W86835   5.275  19.628  16.318  0.3147  0.2721  0.3111
43820W        W86836  12.260  14.239  25.336  0.0885 -0.1759 -0.2616
43821W        W86837   9.060   3.257   2.847  0.0630  0.0862  0.2102
43822W        W86838  20.147   8.331  29.171 -0.0249 -0.2006  0.2914
43823W        W86839  32.303   9.516   3.684 -0.0703  0.0723  0.1796
43824W        W86840   4.509   9.351   8.717 -0.0356 -0.0471 -0.0917
43825W        W86841  10.046  22.648  19.895 -0.1160  0.3153  0.0928
43826W        W86842   8.372   8.333   8.907 -0.2828 -0.0352 -0.1249
43827W        W86843   7.940  26.778   3.477 -0.0017 -0.3287 -0.1363
43828W        W86844   2.841  23.459  26.693  0.1489 -0.0334 -0.1005
43829W        W86845   3.141  15.152   5.673  0.3109 -0.1153  0.1828
43830W        W86846  25.987  19.541  27.262 -0.0277  0.1979  0.1807
43831W        W86847  14.535   6.567  23.134 -0.1791  0.0278 -0.1662
43832W        W86848  12.715  29.904  23.757  0.0424 -0.1437 -0.0619
43833W        W86849   7.550   7.887   9.026  0.0473 -0.2787  0.1273
43834W        W86850  12.219  11.823   6.030 -0.0739 -0.1882  0.2243
43835W        W86851   1.763  15.554  26.913  0.1359  0.0946  0.3231
43836W        W86852  33.576  26.655  19.988 -0.0393 -0.0170  0.2576
43837W        W86853   9.481  29.102  20.999 -0.0016 -0.1330 -0.1434
43838W        W86854   5.169  18.850   5.804  0.1981 -0.2625 -0.1540
43839W        W86855   4.994  19.641  29.156  0.0334 -0.2680  0.3098
43840W        W86856   9.067  26.740  27.505 -0.0346  0.0284  0.1113
43841W        W86857  33.000  29.033  28.708 -0.1719 -0.0837 -0.2507
43842W        W86858  13.379  18.001  15.522  0.5078 -0.3248  0.0712
43843W        W86859   4.840  30.882   6.097 -0.1651  0.0684 -0.3352
43844W        W86860  19.764  22.871  17.972 -0.1375  0.4913 -0.1580
43845W        W86861  28.164   8.984   2.207  0.0758  0.0466 -0.1769
43846W        W86862  21.696  13.878  20.850  0.0150 -0.1035  0.0256
43847W        W86863   7.234  18.332  23.761 -0.0073 -0.1047 -0.2937
43848W        W86864   9.955  20.196  27.323  0.4983 -0.1724  0.4109
43849W        W86865   7.376  11.217  21.189  0.1386 -0.1125  0.0884
43850W        W86866   4.892  32.659  14.856 -0.0913 -0.0874  0.0141
43851W        W86867   4.398  29.901   2.311 -0.1284  0.1726  0.2931
43852W        W86868  10.892   7.147  23.764 -0.0854 -0.1411 -0.3036
43853W        W86869  16.366  17.705  23.284  0.0023 -0.1779 -0.0641
43854W        W86870  13.417  26.070  16.714 -0.0565 -0.2076  0.0780
43855W        W86871  33.180   5.976   9.404  0.0075  0.1568 -0.2133
43856W        W86872   9.043  15.660  17.422 -0.3122  0.4113  0.2859
43857W        W86873   5.276  11.473  14.551  0.2754  0.2117  0.2620
43858W        W86874  11.077  14.782   8.142 -0.0014 -0.1236  0.3584
43859W        W86875  20.033  26.136  23.578 -0.1577  0.3669  0.1748
43860W        W86876  31.820  19.561  20.816  0.4218  0.0202 -0.0005
43861W        W86877  27.807  16.428   5.889 -0.1230 -0.1705 -0.0929
43862W        W86878   0.075  10.825  10.415 -0.3944  0.0462 -0.2111
43863W        W86879  15.842   8.055  27.651  0.0070  0.0231 -0.2113
43864W        W86880   3.515   7.007  22.742 -0.0986  0.0970  0.0600
43865W        W86881  21.111   6.714  16.432 -0.0054  0.4141  0.0600
43866W        W86882  12.077  31.734  28.710 -0.1612  0.0803 -0.1342
43867W        W86883  10.233   5.190   5.729  0.1336 -0.0901  0.0586
43868W        W86884   3.413  20.709   0.298  0.0141 -0.3043  0.0515
43869W        W86885  13.868  20.636   7.105  0.0074 -0.2103  0.0978
43870W        W86886   6.673  19.629   0.364 -0.1434 -0.0837 -0.1018
43871W        W86887  31.399   8.349  19.006 -0.0979  0.1090  0.0644
43872W        W86888  21.088   7.522   3.187 -0.1727  0.1474  0.1189
43873W        W86889  30.916   5.876   7.063  0.1239 -0.2203  0.1806
43874W        W86890  10.580  17.413  24.220 -0.3168  0.1401 -0.0625
43875W        W86891  12.257   0.851  27.097 -0.4913  0.0522  0.0207
43876W        W86892  28.941   9.240  23.194 -0.0173 -0.2695 -0.0244
43877W        W86893   2.055  27.067  19.663 -0.1079  0.1066  0.0155
43878W        W86894  18.637   3.891  26.596 -0.2453  0.2110  0.0221
43879W        W86895   6.820  22.932   1.764 -0.2351  0.1571  0.1976
43880W        W86896   6.201  13.572   3.840  0.5149 -0.3458 -0.0385
43881W        W86897   6.058  28.909  27.435  0.4614 -0.1820  0.1115
43882W        W86898  18.357  25.633   3.146 -0.1829  0.0982 -0.1535
43883W        W86899   5.229  13.071  17.624 -0.1002 -0.0994  0.0001
43884W        W86900   1.337  11.138   9.266 -0.1512  0.0411 -0.0683
43885W        W86901   0.119  26.084  17.061  0.1435  0.1083  0.0236
43886W        W86902  17.665  18.965  27.940  0.2249 -0.0642 -0.3451
43887W        W86903   2.828  17.784  15.733  0.0546  0.3318  0.0358
43888W        W86904   6.896   1.123  23.838 -0.2846  0.3040 -0.0298
43889W        W86905  21.280   8.866   3.857 -0.2797  0.1162  0.0636
43890W        W86906   7.264  20.775  24.655  0.2644  0.0288 -0.0808
43891W        W86907   4.459   4.478  22.179 -0.2188 -0.3383  0.1446
43892W        W86908  10.342  33.558  20.215  0.0432  0.2521 -0.1178
43893W        W86909  26.145   4.353  19.579 -0.2912 -0.0479  0.2239
43894W        W86910   9.760  17.797   6.282 -0.0926 -0.1875 -0.1368
43895W        W86911   5.958  29.749  27.623  0.0171 -0.3349  0.1041
43896W        W86912  17.395   3.194  14.907 -0.1821  0.2894  0.2390
43897W        W86913  21.910  14.377  25.792 -0.3200  0.1319  0.2574
43898W        W86914  11.866   8.640  28.152  0.1741  0.1027  0.5164
43899W        W86915  14.488  17.863   3.724 -0.1071  0.0237  0.1217
43900W        W86916  32.818  19.061   1.179 -0.0720 -0.0089 -0.2375
43901W        W86917  20.448   8.903   4.168 -0.1866  0.4865  0.0689
43902W        W86918  10.214  21.686  28.911 -0.1726 -0.1005 -0.1139
43903W        W86919   2.350  10.623   2.110  0.1124  0.0723 -0.3102
43904W        W86920   8.346  13.080  26.831  0.2558 -0.2619 -0.3976
43905W        W86921   0.116  15.202   0.523  0.0001 -0.0001  0.0354
43906W        W86922  34.425  25.166  14.987 -0.0669 -0.4115  0.0726
43907W        W86923   4.945  11.564   7.677 -0.4092  0.1980 -0.0511
43908W        W86924  29.248  15.612  23.077 -0.1638 -0.2827  0.2903
43909W        W86925   0.227  18.501   6.171 -0.2162  0.1357 -0.2600
43910W        W86926  29.518   5.329   1.072  0.2589  0.4666  0.0493
43911W        W86927  30.134  22.445  22.640  0.1063  0.3123 -0.2680
43912W        W86928  11.235  26.834  26.309  0.0938 -0.3988  0.0422
43913W        W86929   7.025   6.872  26.145 -0.2792 -0.1002  0.3275
43914W        W86930  11.527  16.617   7.567 -0.2198  0.0957 -0.1668
43915W        W86931   3.555  14.276  16.119  0.0823  0.1159  0.2915
43916W        W86932  16.379  16.746  22.397  0.1146  0.2472  0.0726
43917W        W86933   1.316  17.622  18.521  0.2708  0.2090  0.1329
43918W        W86934   3.788  14.211  27.071  0.1706  0.2060 -0.0733
43919W        W86935  14.899  27.602  23.769  0.2341 -0.0111 -0.1199
43920W        W86936  11.073  33.185   0.081  0.2247  0.0674 -0.2383
43921W        W86937   9.856  31.714  20.041  0.2717 -0.0287  0.3686
43922W        W86938  13.609  10.375   4.342  0.3468  0.0650 -0.0657
43923W        W86939  10.218  21.015  14.286 -0.1230 -0.0603 -0.2015
43924W        W86940  11.221  23.014   3.263  0.0500 -0.3879  0.0433
43925W        W86941   7.386  11.170  26.554  0.0473  0.0209 -0.0769
43926W        W86942  10.389   8.185  18.405 -0.0566  0.0772 -0.1109
43927W        W86943   4.216  26.012   9.023 -0.4418  0.3467 -0.0900
43928W        W86944   4.191  20.249   5.416 -0.3448 -0.2338 -0.0011
43929W        W86945  19.820   6.640   3.693  0.1788  0.0484 -0.2181
43930W        W86946   4.438  14.730  27.147 -0.2143 -0.1587 -0.1211
43931W        W86947  30.092  33.768  23.506 -0.2378  0.2430 -0.1570
43932W        W86948   3.294  19.120   1.613  0.2386 -0.0803 -0.3220
43933W        W86949   4.438  16.440   5.608 -0.2239 -0.1534 -0.1591
43934W        W86950  13.381  16.988   5.838  0.1663  0.0922 -0.0460
43935W        W86951   9.523  12.213   9.049 -0.1409  0.3882  0.0456
43936W        W86952   1.902   9.149  17.815  0.1515  0.1378  0.1554
43937W        W86953  19.170  12.827  20.043  0.2362  0.1670  0.0685
43938W        W86954  18.575   0.868  25.799 -0.0865  0.0807 -0.0351
43939W        W86955   5.688  22.949   7.408  0.1716  0.0535  0.0418
43940W        W86956  13.306  14.456  23.888  0.0450  0.0313 -0.3609
43941W        W86957  13.243  25.412  17.987 -0.2744 -0.0777 -0.2893
43942W        W86958  14.658  33.201   9.603 -0.0903 -0.1252  0.0747
43943W        W86959  17.867   0.945   6.135 -0.1650 -0.1296  0.2641
43944W        W86960  20.667  19.661   9.375 -0.0269 -0.1840  0.1694
43945W        W86961  10.265   9.113  15.167  0.6421  0.1870  0.0635
43946W        W86962  24.019   8.809  16.586 -0.1092  0.3407  0.1957
43947W        W86963   1.459  25.593  14.553 -0.3896 -0.2525 -0.0969
43948W        W86964   9.710   4.837   4.716  0.0140 -0.0614 -0.1876
43949W        W86965  12.438  29.258  26.319  0.0478 -0.0249  0.1110
43950W        W86966   4.813  10.692  15.872  0.4542 -0.2463 -0.1014
43951W        W86967  33.799  10.206  26.461 -0.3164  0.0954  0.1437
43952W        W86968  12.000  29.729  15.024 -0.3134  0.4084 -0.1169
43953W        W86969  23.213  15.088   5.149  0.0774 -0.1038 -0.1624
43954W        W86970  12.643   9.547  14.697  0.0128 -0.1605  0.2953
43955W        W86971   1.313   3.996   2.358 -0.0227 -0.1198  0.1471
43956W        W86972  15.550   1.458   5.211 -0.0304 -0.0862 -0.0417
43957W        W86973   9.089  22.142  24.273  0.0012 -0.1067 -0.0680
43958W        W86974  15.613  20.993  15.006 -0.1245 -0.0594  0.0504
43959W        W86975  11.599  21.769  14.598  0.1455  0.1288 -0.1708
43960W        W86976  12.038  26.060   5.841 -0.3638 -0.2958 -0.1050
43961W        W86977  17.784  23.802  17.375 -0.1889 -0.0316  0.0464
43962W        W86978   3.031  13.359  26.018 -0.0210  0.0086 -0.1700
43963W        W86979  28.914  19.981  23.407  0.0226  0.3834  0.2317
43964W        W86980  15.642  11.869  26.848 -0.2414  0.1768 -0.0223
43965W        W86981   2.705  17.790  26.385 -0.0411 -0.3978 -0.1698
43966W        W86982   7.188  11.923  22.813 -0.1392  0.0765  0.0641
43967W        W86983   2.769  30.445  16.235 -0.1238  0.1818 -0.0615
43968W        W86984  28.947  14.035   7.535 -0.0783  0.0806 -0.1103
43969W        W86985  10.029  13.979  20.209 -0.3619 -0.2139  0.0586
43970W        W86986  32.944  12.512  17.228 -0.0205  0.3577 -0.0176
43971W        W86987   2.572  14.800   0.923 -0.1253 -0.0627  0.2617
43972W        W86988  17.044  17.984   0.676 -0.0451 -0.2454  0.0301
43973W        W86989  31.697   8.327   0.736 -0.1742 -0.1114 -0.2379
43974W        W86990   7.006  27.024   2.503  0.0707 -0.3002  0.0589
43975W        W86991  15.626  19.675  22.490  0.0061 -0.1344 -0.0485
43976W        W86992  32.308  22.731  24.186 -0.0396  0.0194  0.0689
43977W        W86993   9.344   6.350  21.104 -0.2327 -0.1145  0.0270
43978W        W86994  24.456  26.771  27.256 -0.1480 -0.1240 -0.0065
43979W        W86995   7.617  20.121   7.018 -0.3082 -0.0030 -0.1874
43980W        W86996  23.815  26.077  24.097  0.1264 -0.3219  0.0442
43981W        W86997   7.888   4.384  29.119 -0.0145  0.0663 -0.1292
43982W        W86998   8.549   1.342  24.584  0.1896  0.1012  0.0011
43983W        W86999  17.191   9.896  17.378 -0.0282  0.1096 -0.4413
43984W        W87000  28.510  27.383  23.388 -0.3100 -0.1572 -0.1977
43985W        W87001  22.882  14.304   6.686 -0.0626 -0.1489  0.0047
43986W        W87002   6.602  15.464  26.426 -0.2018  0.1299  0.1482
43987W        W87003  19.649  31.269   3.844 -0.0184  0.0895 -0.2045
43988W        W87004   7.360  26.493  23.652  0.0668  0.4663 -0.3575
43989W        W87005  10.090  24.485  26.851  0.3074 -0.1272 -0.0690
43990W        W87006  26.940  20.551  14.313 -0.3066  0.0840  0.1741
43991W        W87007  22.408  13.173   7.903 -0.1258 -0.1642 -0.2259
43992W        W87008   2.146   4.593  16.380 -0.0951 -0.1094 -0.0633
43993W        W87009  18.673  12.033  13.377 -0.3385  0.1164 -0.1329
43994W        W87010   8.905  14.344  22.709 -0.0585  0.1392 -0.4530
43995W        W87011   8.338  27.738  22.687  0.0063  0.2195 -0.1535
43996W        W87012   3.107  15.735  20.102 -0.2746 -0.0501 -0.0528
43997W        W87013  12.923  15.943  24.475  0.0804 -0.0745  0.1934
43998W        W87014  15.177  28.471  17.217 -0.1348 -0.0926 -0.0390
43999W        W87015  14.067  13.593  28.280 -0.1942 -0.0783  0.0968
44000W        W87016   6.733  31.016   9.671 -0.3757  0.1043  0.3603
44001W        W87017   3.064  21.603  22.651  0.0682 -0.4357  0.0521
44002W        W87018  34.735   3.601   5.450  0.0136  0.0452  0.2584
44003W        W87019  13.197  11.641   2.056 -0.2843  0.0232 -0.0183
44004W        W87020   7.218   6.053  28.045  0.2378 -0.1249 -0.0739
44005W        W87021   5.673  33.164   0.032 -0.2790 -0.0787  0.0559
44006W        W87022   6.868  20.016  27.323  0.0296 -0.1943  0.1655
44007W        W87023  30.040  13.589  23.122 -0.1817  0.0246  0.0117
44008W        W87024  14.908  22.282  15.167  0.1293  0.2066  0.0023
44009W        W87025   5.995  11.335  20.608  0.1548 -0.1231 -0.2846
44010W        W87026   9.429   2.327  10.104  0.2967 -0.1073 -0.2659
44011W        W87027   0.865  15.359  17.067  0.0622  0.0109  0.0076
44012W        W87028   7.529  22.452   2.915 -0.1228  0.1421  0.0483
44013W        W87029   5.370  31.403  28.072  0.0612  0.1782  0.3018
44014W        W87030   4.429  12.166  26.273  0.4670  0.1973 -0.0075
44015W        W87031  14.519  26.264  22.875 -0.3597 -0.4419 -0.3590
44016W        W87032   8.068  10.240   1.110 -0.2163 -0.1789 -0.0951
44017W        W87033  13.068  17.118  27.927 -0.1312 -0.2337  0.1775
44018W        W87034   3.943  13.643   4.629 -0.2793 -0.0055 -0.4536
44019W        W87035   4.958  10.296  26.226 -0.1750  0.0548  0.3995
44020W        W87036   8.623  29.016  26.579 -0.3234 -0.2252 -0.0942
44021W        W87037   1.378  32.699   8.075  0.0816 -0.0106  0.2312
44022W        W87038   4.374  16.051   1.910  0.0165 -0.2009 -0.2439
44023W        W87039   9.314   7.718   5.279 -0.2701  0.1143 -0.0930
44024W        W87040  16.534  21.008   5.625  0.0591 -0.4453 -0.2779
44025W        W87041  27.214  11.371  15.562 -0.0682 -0.0810  0.1267
44026W        W87042   8.824  21.170   4.808  0.3237 -0.2164  0.0224
44027W        W87043  32.519  19.841   3.131 -0.1955 -0.2030 -0.1514
44028W        W87044  13.842  13.454  21.688 -0.0329  0.0402  0.3766
44029W        W87045  13.554  29.723   4.237  0.0709  0.0493 -0.3944
44030W        W87046   7.363  22.121   3.396  0.2572  0.1803  0.4170
44031W        W87047   9.939  21.823   8.431  0.0196  0.2307 -0.0604
44032W        W87048  32.248  28.866  27.069  0.0327 -0.2961 -0.4276
44033W        W87049   9.533  11.646  21.839  0.0818 -0.0839 -0.0485
44034W        W87050   9.227  25.923   3.003 -0.1610  0.0879 -0.1484
44035W        W87051  18.546  11.568  20.879 -0.1917  0.0147 -0.1580
44036W        W87052   1.397  27.544   6.893  0.2165 -0.1069 -0.0051
44037W        W87053   9.460  15.500   6.549 -0.1875  0.0138 -0.0951
44038W        W87054   2.991  25.589   5.768  0.0923 -0.0175  0.0008
44039W        W87055  32.089  19.759  21.988 -0.1352  0.2428 -0.2298
44040W        W87056  31.001  25.363   9.588  0.1276  0.0973 -0.1484
44041W        W87057  11.364  17.590  21.730 -0.2524 -0.0094 -0.0736
44042W        W87058   5.856  33.258  17.120 -0.4480 -0.0117  0.3249
44043W        W87059   3.432  25.608   8.128  0.0849  0.3887 -0.0934
44044W        W87060   5.463  11.715   8.913 -0.0151 -0.0895  0.1566
44045W        W87061   3.136  24.780   4.411 -0.0010 -0.1030  0.1844
44046W        W87062  27.099  28.008  27.803  0.1338 -0.0600  0.3614
44047W        W87063   9.100  17.480  28.026 -0.0324  0.1651 -0.0742
44048W        W87064  14.807  10.051   0.841  0.0221  0.0739  0.2710
44049W        W87065  31.572   5.697  27.626 -0.1531  0.1560  0.0439
44050W        W87066  11.976  26.825  24.674 -0.0940 -0.2451 -0.0022
44051W        W87067   3.080  14.462   7.879 -0.0820  0.1780  0.1322
44052W        W87068  12.988  21.236  12.020  0.1371  0.0678  0.0634
44053W        W87069  27.387  10.098   9.513  0.1593 -0.1019  0.1196
44054W        W87070   6.253  14.309   0.554 -0.1028 -0.0503 -0.5879
44055W        W87071   3.278  28.982  21.702 -0.3243  0.1991  0.0562
44056W        W87072  15.403  20.288  21.374  0.5300 -0.1731 -0.1131
44057W        W87073  12.375   0.484   7.200  0.3748 -0.0100  0.1279
44058W        W87074  15.318  16.626  15.814  0.1086  0.0476 -0.2621
44059W        W87075  19.812  34.706  25.500  0.2060 -0.1225  0.2697
44060W        W87076   7.065  21.206   3.306  0.2384 -0.0923 -0.1109
44061W        W87077  21.520   9.153   4.233  0.3640  0.4584 -0.0069
44062W        W87078  10.283   4.350   1.879  0.0963 -0.0361  0.4405
44063W        W87079  14.639  26.991  14.243  0.1973 -0.1337  0.0362
44064W        W87080  33.023  18.958   0.215  0.1883 -0.0197  0.2173
44065W        W87081   4.810  28.645  21.122  0.2045 -0.0687 -0.1034
44066W        W87082  28.433   6.835  16.777  0.0383 -0.0358  0.2834
44067W        W87083  10.508  22.368  27.370  0.0038  0.0502  0.1276
44068W        W87084  13.232  26.527  19.536  0.0546  0.2780 -0.0339
44069W        W87085  34.248  27.046  22.662  0.0559 -0.2008  0.0002
44070W        W87086  12.469  19.096  15.467  0.0094  0.1649  0.2572
44071W        W87087  29.552   5.470  22.262  0.0631 -0.0910 -0.1695
44072W        W87088   4.604   4.178  19.901  0.0756  0.2583 -0.0861
44073W        W87089   5.882  25.011  26.719 -0.1181 -0.0592 -0.0919
44074W        W87090  16.656  25.932  16.628 -0.2978 -0.1033  0.0454
44075W        W87091   2.967  24.770  16.623  0.1270 -0.0236 -0.2099
44076W        W87092  13.670  28.405  17.022  0.2087 -0.1100 -0.2156
44077W        W87093  10.926   6.919  24.851  0.2355  0.3758 -0.0896
44078W        W87094  10.153  25.196  12.934 -0.1138  0.4006 -0.1708
44079W        W87095   5.183  28.648  15.344  0.4097 -0.0558  0.1541
44080W        W87096   6.078  29.442  13.947  0.4325 -0.3995 -0.1084
44081W        W87097  17.969  24.835  18.318 -0.2046  0.0879  0.2882
44082W        W87098  15.601  20.096  13.923  0.3736  0.0208  0.0986
44083W        W87099  24.297  17.098  24.961 -0.0646  0.3069 -0.0906
44084W        W87100   2.996  25.805  28.449 -0.0787  0.2694  0.0662
44085W        W87101  21.499   2.319  28.675 -0.1792  0.2362 -0.1989
44086W        W87102  17.872  18.665  23.328  0.0733 -0.0424  0.2389
44087W        W87103  31.989   3.054  20.670 -0.1350  0.1567 -0.1760
44088W        W87104   1.775  26.866  18.320  0.0017 -0.1782  0.1649
44089W        W87105   0.580   6.459  17.631 -0.0854 -0.0285  0.1423
44090W        W87106  13.531  27.830  21.973  0.0847 -0.1300 -0.2054
44091W        W87107   9.207  14.834  21.087  0.0186  0.0577  0.2021
44092W        W87108  15.806   3.159  18.211 -0.1753  0.0853 -0.0463
44093W        W87109  20.278  16.653  13.154 -0.1866  0.3313 -0.1200
44094W        W87110  34.740  21.987  18.838  0.0586  0.3545  0.3349
44095W        W87111  10.751  32.829  17.035 -0.2772  0.0618 -0.0868
44096W        W87112  11.929  27.689  21.574  0.2509 -0.1437 -0.0474
44097W        W87113  25.885  34.405  26.002 -0.2744 -0.0318  0.3315
44098W        W87114  22.582  18.676  15.356  0.1973  0.1746  0.0941
44099W        W87115   2.497  16.262  16.601  0.3193 -0.3094 -0.0624
44100W        W87116   8.630  19.684  16.681 -0.2592 -0.1447 -0.3129
44101W        W87117  22.586  10.690  24.525  0.2370  0.0524  0.2265
44102W        W87118   2.496  18.023  25.472 -0.0560 -0.0838 -0.0283
44103W        W87119  31.631  24.370   6.824 -0.0215 -0.1258  0.1317
44104W        W87120  24.045   7.188  26.581  0.1457 -0.2042  0.1775
44105W        W87121  12.009  23.441   5.940 -0.0846  0.2294  0.3400
44106W        W87122  30.499  20.766  18.702  0.1329  0.0408 -0.0154
44107W        W87123  20.719   3.359  18.834  0.2239 -0.0380  0.2552
44108W        W87124  34.086   7.418  20.629 -0.0256 -0.3729 -0.3288
44109W        W87125   8.732  22.683  19.210 -0.0042 -0.2177  0.2501
44110W        W87126  10.163  30.262  26.840  0.0861  0.1737  0.0007
44111W        W87127  22.733   9.076  24.693 -0.0825 -0.1976 -0.0615
44112W        W87128  14.931  24.124  18.465  0.0681  0.0296 -0.1060
44113W        W87129   0.152  33.556  17.172 -0.3384 -0.1065 -0.3854
44114W        W87130   0.424   6.493  21.072 -0.1955  0.1206 -0.0576
44115W        W87131  13.310  27.212  27.558 -0.2388  0.2722 -0.4939
44116W        W87132  18.102   4.544  20.022 -0.5793  0.3856 -0.3584
44117W        W87133  15.923  21.968  15.100  0.2785 -0.4404  0.0065
44118W        W87134  12.249  18.670  25.768  0.2249 -0.2029 -0.0143
44119W        W87135   8.510  27.153  14.617  0.2698 -0.3634 -0.3220
44120W        W87136   6.956  27.671  13.943  0.0293 -0.1748 -0.0515
44121W        W87137  12.186  25.289  13.076 -0.1956  0.0922 -0.0493
44122W        W87138   1.976   8.509  15.493  0.0924 -0.3055 -0.0699
44123W        W87139  19.663  24.953  23.240 -0.0264 -0.1372  0.0061
44124W        W87140  10.305  22.559  13.018 -0.2922  0.3527  0.1225
44125W        W87141  15.726   7.564  23.818 -0.1046 -0.5160 -0.3368
44126W        W87142   2.509   5.889   3.379  0.2658 -0.0313  0.3857
44127W        W87143   0.481  12.438  18.180  0.1039 -0.0201 -0.2816
44128W        W87144   8.537  29.983  14.391  0.3807 -0.0682 -0.2414
44129W        W87145  19.153  26.269   4.486 -0.0477 -0.1027  0.0089
44130W        W87146   7.544   1.906  18.336 -0.1205 -0.0074 -0.0072
44131W        W87147   7.907  18.712  12.748  0.2270  0.1053  0.2069
44132W        W87148   0.235  26.880  15.152 -0.1176  0.2273  0.1032
44133W        W87149   8.724  12.153   3.695 -0.4191 -0.1691 -0.1412
44134W        W87150   8.745  16.621  17.829 -0.2840  0.1459 -0.4428
44135W        W87151   5.399  29.841  17.679 -0.1610  0.3291  0.0526
44136W        W87152  16.811  13.895  15.205  0.1013 -0.0922  0.0564
44137W        W87153  11.675   0.747   2.300 -0.0542  0.0653 -0.2919
44138W        W87154  15.979  28.678  24.976 -0.2742  0.3014 -0.2035
44139W        W87155  14.202   3.479  21.245 -0.1117 -0.0623  0.3568
44140W        W87156   5.694  16.430  13.738 -0.1198 -0.2965 -0.1836
44141W        W87157   6.611  20.054  13.977 -0.1173 -0.0344  0.1300
44142W        W87158   7.322  30.606  19.230 -0.2214 -0.2248  0.0142
44143W        W87159  13.803  29.030  14.347 -0.0986 -0.3833 -0.0563
44144W        W87160  22.206  31.687  27.370 -0.2101 -0.1094  0.0999
44145W        W87161   6.496  18.777  14.636  0.4771 -0.1739 -0.2656
44146W        W87162  32.984  14.799  16.150  0.0868  0.0225 -0.0000
44147W        W87163  10.486  23.901  13.649  0.0933 -0.1179  0.0731
44148W        W87164   6.964  29.097  23.586 -0.2455 -0.2928  0.0511
44149W        W87165   2.030  18.729  21.475  0.1251 -0.0249 -0.0364
44150W        W87166  26.951   7.340   1.063 -0.0451  0.3081  0.0172
44151W        W87167  23.478  15.112  22.812 -0.2170 -0.0552  0.0850
44152W        W87168  28.781  18.156  18.427  0.2353 -0.2042  0.1837
44153W        W87169  25.831  20.910  20.443 -0.0653 -0.2675 -0.0066
44154W        W87170   2.235  10.257  22.292  0.2295  0.0669 -0.0007
44155W        W87171   2.379   8.495  21.158  0.0455  0.1154 -0.0676
44156W        W87172  31.502  19.662  24.657 -0.1423  0.0578 -0.2208
44157W        W87173   2.575  20.605  21.417  0.0689  0.0424 -0.2954
44158W        W87174  14.526   4.609  16.435  0.0144  0.0504 -0.0691
44159W        W87175   3.805  30.687  16.167 -0.1684  0.1671 -0.3620
44160W        W87176   6.164  10.559  15.347  0.0871  0.3042 -0.0676
44161W        W87177  28.536  31.946  21.750  0.0996  0.3310  0.2430
44162W        W87178   4.941  16.172  20.499 -0.2409  0.0949  0.3223
44163W        W87179  12.488  13.153  13.311 -0.0392 -0.2542  0.0292
44164W        W87180   4.755  22.742  19.079  0.1553  0.2058  0.1137
44165W        W87181  16.324  14.345  13.031 -0.0509  0.1242  0.1103
44166W        W87182   9.442  24.510  19.650  0.1052 -0.0326  0.2146
44167W        W87183   8.743  14.886  18.634 -0.0108 -0.0257  0.3727
44168W        W87184   0.750  20.603  20.920  0.4474 -0.3983  0.2489
44169W        W87185   2.873  23.358  27.222 -0.4546 -0.0025 -0.1044
44170W        W87186  32.010  10.735   0.351 -0.2610 -0.0669  0.0690
44171W        W87187   4.554   1.368  16.202  0.1247  0.1443 -0.0082
44172W        W87188  21.877  14.146  13.351 -0.2781 -0.0893 -0.1019
44173W        W87189   5.399  13.622  16.782 -0.3611  0.0766 -0.0448
44174W        W87190  30.608  32.950  26.494 -0.0989 -0.3224  0.0108
44175W        W87191   4.558  10.959  19.163  0.0429  0.1152 -0.0753
44176W        W87192  12.712  21.559  18.047  0.1893  0.1575 -0.1419
44177W        W87193  12.433   8.685  27.121  0.1171 -0.0146  0.0077
44178W        W87194   4.039   9.656  19.915 -0.2717  0.1518  0.1190
44179W        W87195  14.870  29.281  20.774  0.3077  0.2251 -0.0471
44180W        W87196  17.606  19.347  14.302 -0.1132 -0.0740  0.3634
44181W        W87197   8.540   1.523  27.359  0.3546 -0.2234  0.2922
44182W        W87198  12.385  26.037  21.179  0.1732  0.1190 -0.0605
44183W        W87199   6.509   5.149  14.237  0.0751 -0.0358 -0.0705
44184W        W87200  22.461  12.895  17.343  0.3410  0.0666 -0.0046
44185W        W87201  14.957   2.569  22.953  0.0546  0.6298 -0.4217
44186W        W87202  15.900   5.381  28.335 -0.0964  0.1091  0.0933
44187W        W87203   5.729  34.173  18.878  0.1812  0.1441 -0.0803
44188W        W87204   9.704  32.952  18.886  0.1618 -0.0113 -0.1044
44189W        W87205  13.222   1.429  21.578 -0.1058 -0.0610  0.2034
44190W        W87206  33.967   1.912  14.865 -0.0542 -0.0739 -0.2212
44191W        W87207   5.615   8.145   6.747 -0.1689  0.1326 -0.0499
44192W        W87208  34.701  22.354  17.030 -0.0167  0.0202 -0.1335
44193W        W87209  31.313  28.097  22.556 -0.2192  0.1808  0.0167
44194W        W87210  21.418   4.528  14.686 -0.0875 -0.2697 -0.0175
44195W        W87211  30.173  25.519   9.162 -0.0585  0.1823 -0.0431
44196W        W87212   4.687  21.875  29.015  0.1241  0.0585  0.0376
44197W        W87213  23.173   4.219  23.653 -0.0602  0.0794  0.2435
44198W        W87214  13.401  11.284  20.241 -0.0601 -0.0326 -0.3165
44199W        W87215   4.770  16.859  24.094 -0.0874  0.1419 -0.1274
44200W        W87216  14.345  28.688  16.160  0.1901  0.2106 -0.0774
44201W        W87217   4.450  33.068  16.672  0.1913 -0.0902 -0.0531
44202W        W87218  33.886   9.580   7.078  0.0402 -0.0807  0.4610
44203W        W87219  17.643  27.744  16.189  0.1606 -0.2726  0.0712
44204W        W87220  17.043   5.164  24.337  0.2970 -0.2409  0.0153
44205W        W87221   5.791  10.385  23.067  0.2538 -0.2124  0.2316
44206W        W87222   3.543  23.191  14.207 -0.0276 -0.0735 -0.1584
44207W        W87223  27.732  25.876  25.181  0.1016  0.2632 -0.4146
44208W        W87224   0.798  24.009  21.323  0.1379 -0.3409 -0.1619
44209W        W87225  33.120  21.656  26.806  0.0827  0.0459 -0.1596
44210W        W87226   0.050   7.697   5.910 -0.1258 -0.2983  0.0990
44211W        W87227   4.057  20.682  17.236  0.2488  0.3543 -0.0852
44212W        W87228   0.563   5.878  24.320 -0.0846  0.1685 -0.1588
44213W        W87229   4.140  25.329  13.983 -0.2527 -0.1149  0.3365
44214W        W87230   8.153  20.827  28.297  0.1763  0.0913  0.2150
44215W        W87231   0.544  16.417   2.556  0.1488  0.1633 -0.0921
44216W        W87232  19.067  23.563  18.011 -0.0638  0.0635  0.0477
44217W        W87233  26.798  13.380   1.072 -0.1276  0.0738 -0.0964
44218W        W87234  29.137  13.346  17.160 -0.3800  0.2414 -0.0898
44219W        W87235  23.817  27.096  19.149 -0.0984 -0.1584  0.1452
44220W        W87236  13.836   8.252  15.756  0.0462  0.2354  0.2742
44221W        W87237   1.802  30.795  13.897  0.0291 -0.1662  0.0920
44222W        W87238  28.872   9.864  14.431  0.0466  0.0950 -0.0541
44223W        W87239  15.371  20.992  14.075 -0.1379  0.0214 -0.0505
44224W        W87240   1.502  22.325  16.505 -0.0128  0.0333 -0.0989
44225W        W87241  34.242  31.020  18.083  0.0800 -0.2570 -0.1500
44226W        W87242  21.155  33.561  27.393 -0.1899  0.0814  0.0672
44227W        W87243  12.418  29.898   0.326  0.2039 -0.0548  0.2379
44228W        W87244  31.125   7.469  25.392 -0.3327  0.1352  0.1895
44229W        W87245  31.822  21.571  15.704 -0.0013  0.2341 -0.1071
44230W        W87246  11.739  12.996  14.120 -0.1210  0.0690  0.2555
44231W        W87247  12.256  21.707  27.454 -0.0869  0.3385 -0.1416
44232W        W87248   8.065  29.626  14.118 -0.1537  0.1725  0.1672
44233W        W87249  10.787  25.469  26.320 -0.2491 -0.2893  0.1699
44234W        W87250   9.947  11.974  16.271  0.1890  0.3244  0.1547
44235W        W87251  21.087  28.769  16.641  0.0170 -0.1333  0.0310
44236W        W87252  19.300  25.902  22.325 -0.1818  0.2060 -0.0991
44237W        W87253  15.803  17.279   3.343  0.0783 -0.2189 -0.2698
44238W        W87254   1.259  13.963  21.747  0.0026 -0.1062  0.0915
44239W        W87255   4.678   8.803  22.132  0.0763  0.0305 -0.2101
44240W        W87256   7.274  13.727  21.848  0.0447  0.0909 -0.0528
44241W        W87257   7.398  10.605  19.103  0.0504 -0.2547  0.0439
44242W        W87258  23.652  25.184  16.463 -0.1261  0.4072 -0.1432
44243W        W87259  11.799  15.515  15.559  0.1344  0.1465 -0.1014
44244W        W87260   4.347  29.936  14.257 -0.0067  0.2049  0.1180
44245W        W87261   5.401  20.066  19.407 -0.0444 -0.1216  0.0524
44246W        W87262  11.568  26.377  13.673 -0.1549 -0.1295  0.1666
44247W        W87263   5.216   9.578   0.761 -0.1056  0.0489 -0.0140
44248W        W87264   8.874  21.849  27.157 -0.2041 -0.0954  0.1155
44249W        W87265  26.684  25.638  16.216  0.0202  0.2016 -0.1706
44250W        W87266  23.931   7.175  25.154  0.1423 -0.0083  0.3125
44251W        W87267  10.571  24.740  25.939  0.0364  0.0046  0.1406
44252W        W87268   9.000  19.385  16.905 -0.2368 -0.2699 -0.3687
44253W        W87269  13.473   5.560  14.819  0.4343  0.0631 -0.2350
44254W        W87270  31.135  19.534   7.278  0.2169  0.2172  0.3932
44255W        W87271  21.890  28.182  17.383  0.1485 -0.3405 -0.1266
44256W        W87272  26.624   3.939   2.417 -0.0189 -0.3271  0.0468
44257W        W87273  10.421  19.009  13.812 -0.1065 -0.2635 -0.3999
44258W        W87274   2.647  17.331  15.812  0.1839  0.3511 -0.0286
44259W        W87275  13.357  31.938  25.759  0.0503 -0.0504  0.1395
44260W        W87276   6.560  18.384  13.365 -0.1559 -0.0186  0.1834
44261W        W87277   9.871  24.068  27.478  0.1788 -0.0058 -0.1891
44262W        W87278  23.028   8.812   1.149  0.1432 -0.1947 -0.3690
44263W        W87279   4.871  12.726  15.886 -0.0861 -0.1477 -0.3867
44264W        W87280  23.123  33.638   2.300  0.0045 -0.0318  0.1164
44265W        W87281   6.943  17.699  14.390  0.0437  0.0526  0.1290
44266W        W87282  21.531  24.360  16.880 -0.1325 -0.1124 -0.2594
44267W        W87283   2.785  25.816  20.000  0.2125 -0.1418  0.1310
44268W        W87284   8.281  31.331   0.109 -0.0503 -0.0708 -0.0440
44269W        W87285  18.377   3.058  22.953  0.4176  0.0544  0.2394
44270W        W87286  21.684  20.745   2.405 -0.1833 -0.0379 -0.2527
44271W        W87287  18.800  16.503  15.835  0.0795  0.0125 -0.0525
44272W        W87288  12.324  17.453  12.940  0.4281 -0.1135 -0.2699
44273W        W87289   5.510   5.234  18.450  0.0361  0.0095  0.2153
44274W        W87290   4.473  15.207  21.314  0.0673 -0.0029 -0.0806
44275W        W87291   3.311  30.442  23.601 -0.0459  0.1996  0.1990
44276W        W87292   9.658   3.142  24.190  0.2428  0.2998  0.1414
44277W        W87293   6.221  16.167  26.037  0.1017 -0.0103 -0.2298
44278W        W87294   1.703  27.776  24.336 -0.3049 -0.1283  0.2503
44279W        W87295   7.929  31.060  22.431 -0.2692 -0.0624 -0.2204
44280W        W87296   9.402  24.767  14.246  0.0777  0.1007  0.2573
44281W        W87297  10.987  15.414  15.898  0.1543 -0.0318 -0.3137
44282W        W87298   3.486  22.018  16.446 -0.1359  0.2038  0.1385
44283W        W87299  10.846   1.832  18.068 -0.0435  0.0089 -0.0528
44284W        W87300   9.018  21.070  22.934 -0.1804  0.0637  0.3811
44285W        W87301   8.035  29.838  25.641 -0.1032 -0.1336 -0.0491
44286W        W87302   1.397  12.249  28.914  0.0214 -0.2680 -0.0029
44287W        W87303   4.168   2.177  22.346 -0.0529 -0.1144  0.0147
44288W        W87304   7.382  26.293  13.910  0.2272 -0.1536  0.0247
44289W        W87305   3.412  11.557  19.364 -0.2676 -0.2583  0.1292
44290W        W87306  12.865  32.595   0.722  0.0754  0.5408  0.1596
44291W        W87307  20.789   5.748  18.289 -0.2366 -0.2216  0.1056
44292W        W87308  28.360   6.864   5.032  0.0949  0.0481  0.1432
44293W        W87309   1.661  16.184  24.773  0.3198  0.1329 -0.0765
44294W        W87310  16.689  29.571  22.009  0.0897 -0.0359 -0.0098
44295W        W87311  11.391  12.784   5.176  0.3356  0.0493 -0.0077
44296W        W87312   8.506  12.922  17.017  0.2227 -0.0106 -0.0330
44297W        W87313  10.163  12.973  13.750  0.2473  0.0197  0.5360
44298W        W87314   2.365  33.341  14.889 -0.0041  0.3746  0.0381
44299W        W87315   7.894  24.651  25.966  0.3228 -0.1178 -0.0029
44300W        W87316   2.584  30.049  21.061  0.0584 -0.2725  0.0381
44301W        W87317  19.581   6.773   0.372  0.0915  0.0626  0.2230
44302W        W87318  16.150  23.497  14.697 -0.0115  0.1272 -0.0927
44303W        W87319   5.276  32.418  22.056  0.3286  0.0957 -0.3044
44304W        W87320  32.900  24.161  16.787  0.0407  0.1437  0.3971
44305W        W87321   6.667   9.989  13.843 -0.0108  0.1622  0.3553
44306W        W87322  32.064   6.219  26.759 -0.0493 -0.1141 -0.4662
44307W        W87323   6.113  11.970  27.934  0.1642  0.4144  0.0458
44308W        W87324   7.515  21.725  28.355 -0.1311  0.0944  0.3396
44309W        W87325   7.529  16.521  14.132  0.3418 -0.0302 -0.1172
44310W        W87326  14.451  29.895  18.266 -0.4468  0.1486  0.2586
44311W        W87327   7.139  18.885  15.382  0.0809 -0.0909  0.2484
44312W        W87328   9.630  22.390  14.314 -0.2558 -0.1508 -0.1040
44313W        W87329  31.931  31.662  24.569 -0.1877 -0.0112 -0.4530
44314W        W87330   8.842  19.482  25.586 -0.1097  0.1756 -0.1145
44315W        W87331  23.449  29.270  22.461  0.0034 -0.2813  0.2903
44316W        W87332  10.912  20.954  12.875 -0.0379 -0.3233  0.2903
44317W        W87333   1.801  19.435  25.033  0.0260 -0.0106  0.0252
44318W        W87334  10.933  20.933  23.227 -0.1985 -0.1263  0.2131
44319W        W87335  19.837  24.491  18.287  0.2156 -0.1643  0.1642
44320W        W87336  10.790  24.029  25.434  0.0893 -0.0612 -0.0292
44321W        W87337  29.618  24.060  26.239  0.1187 -0.1407 -0.2386
44322W        W87338   9.565  22.250  13.680  0.2233  0.1626 -0.5212
44323W        W87339  31.671  12.812  22.294  0.0778 -0.0477  0.2762
44324W        W87340  11.845  23.297  16.404  0.2365 -0.0664  0.0023
44325W        W87341   5.888  21.577  27.461 -0.1222  0.0739  0.0111
44326W        W87342  16.062   9.067  14.610  0.0485  0.1997 -0.0876
44327W        W87343  22.653   2.587  14.898 -0.4414 -0.0732 -0.2432
44328W        W87344  13.888  24.722  16.452  0.0016  0.0048 -0.1147
44329W        W87345  20.561  24.463  22.427  0.1533  0.0456 -0.1576
44330W        W87346  32.646  20.070  17.132  0.3154  0.3408 -0.2492
44331W        W87347  17.039  16.269   0.613 -0.1087  0.1799 -0.0662
44332W        W87348  23.015  12.069  16.004 -0.0887 -0.0569 -0.0214
44333W        W87349  15.677  25.485  16.092 -0.2128 -0.1122  0.0773
44334W        W87350  11.104  23.550  26.472  0.4064  0.1965  0.1495
44335W        W87351  28.123  11.582  19.996 -0.2003  0.1000  0.2177
44336W        W87352  10.937  28.600  20.036 -0.0472  0.0055 -0.3351
44337W        W87353  10.794  16.875  15.424 -0.1021 -0.1881 -0.2019
44338W        W87354  29.085   0.210  25.295  0.2894 -0.1172  0.0503
44339W        W87355   5.094  10.591  16.767 -0.0981 -0.0547  0.1368
44340W        W87356   9.415  20.568  18.963  0.0642 -0.0628 -0.3087
44341W        W87357  25.111  15.517  15.531  0.4840  0.1696  0.1353
44342W        W87358   8.179  27.953   3.307  0.0186  0.0033 -0.0536
44343W        W87359   6.078  24.783  25.417  0.0838 -0.2007  0.0549
44344W        W87360  13.452   8.757  18.284 -0.0451  0.0167 -0.0321
44345W        W87361   2.377  15.872  24.002 -0.0408 -0.1214  0.0907
44346W        W87362   0.436  22.210  17.011 -0.2584 -0.0544 -0.0658
44347W        W87363   8.801  15.314  13.456  0.4374  0.0809  0.0974
44348W        W87364   8.615  14.898   4.769  0.3168 -0.1689  0.0929
44349W        W87365  14.395   9.768  22.518 -0.0113 -0.1178  0.0316
44350W        W87366  13.832  26.100  19.177  0.1497  0.3242  0.0128
44351W        W87367   1.821  20.644  13.780 -0.1285  0.3539  0.1826
44352W        W87368   8.202  15.568  12.466 -0.0318  0.0044  0.1439
44353W        W87369   3.819  31.972  16.130  0.0069 -0.0724  0.2457
44354W        W87370  10.583   0.689  18.944  0.0693  0.0907  0.0112
44355W        W87371  17.760  24.240  25.076  0.2505 -0.1145  0.1052
44356W        W87372   3.636  13.105  28.681 -0.0184  0.3272  0.0930
44357W        W87373  27.680  21.849  22.627 -0.1902 -0.0504  0.0800
44358W        W87374  14.343  28.396  27.984  0.0974 -0.0410  0.1192
44359W        W87375  15.986   7.221  22.298  0.1492  0.1291  0.2130
44360W        W87376  12.919   7.203  16.847  0.0329 -0.0120 -0.0303
44361W        W87377  19.917  25.865  14.980 -0.1025 -0.0021  0.0145
44362W        W87378   6.717  13.637  25.900  0.3854 -0.0618  0.2496
44363W        W87379  32.883  17.811   1.004  0.2566  0.2933 -0.0191
44364W        W87380  12.505   5.425  16.573  0.3533  0.1285 -0.0457
44365W        W87381   1.846  18.329  26.087  0.4574  0.0071 -0.0434
44366W        W87382  34.620  22.100   1.556 -0.0167 -0.0320 -0.0524
44367W        W87383   7.119   0.591  19.342  0.2785  0.0377  0.2141
44368W        W87384  24.886  20.893  16.535 -0.0670  0.2094 -0.3547
44369W        W87385   4.118  10.650  17.843 -0.0080 -0.1077 -0.0146
44370W        W87386  26.934  24.720  16.254  0.1154 -0.4809 -0.1553
44371W        W87387  23.094  11.103  18.432  0.0359 -0.1062  0.2237
44372W        W87388   4.846   4.826  25.280 -0.0328 -0.1442 -0.1630
44373W        W87389   9.615  23.767   3.939  0.1274  0.0310 -0.0012
44374W        W87390  24.197   2.038  28.302  0.1270  0.2618  0.4626
44375W        W87391  15.355  18.850  13.743 -0.0490  0.1755  0.1467
44376W        W87392  25.586  26.199  19.147  0.0878 -0.4771  0.1629
44377W        W87393  16.856  15.690  15.720 -0.3215  0.1336 -0.2775
44378W        W87394  16.309  12.291  26.596 -0.1779 -0.1626  0.2033
44379W        W87395  14.740   1.216  19.101 -0.0950  0.3627 -0.1808
44380W        W87396  15.367   9.722   4.304 -0.4527 -0.1366 -0.3392
44381W        W87397   4.450  33.624  18.845 -0.0438  0.4059  0.0614
44382W        W87398  34.020  19.113  22.383  0.4781  0.0062 -0.2796
44383W        W87399   9.038  34.662  14.810  0.1246 -0.1246  0.2761
44384W        W87400   2.143  33.978  25.512 -0.1348 -0.1852 -0.0534
44385W        W87401  33.125  25.467  15.290  0.0124  0.0537 -0.1946
44386W        W87402  33.990  27.811  14.698  0.0711 -0.3435  0.2835
44387W        W87403   7.132  16.162  12.932  0.0465  0.0175 -0.1731
44388W        W87404   7.913  27.407  19.530 -0.1282 -0.2695  0.2506
44389W        W87405   7.857   4.549  25.612 -0.6733  0.4685 -0.2003
44390W        W87406  14.779  14.823  13.622  0.1298 -0.1470 -0.2176
44391W        W87407  17.571  21.380  13.657  0.1116 -0.2776  0.1173
44392W        W87408  10.583  30.310   3.356  0.0402 -0.4045  0.2246
44393W        W87409  34.507  24.719  24.612 -0.0813  0.0901  0.1582
44394W        W87410   3.664  21.849   5.044 -0.0183 -0.1839  0.1818
44395W        W87411   2.365  25.178  14.949  0.0152 -0.0359  0.0414
44396W        W87412  22.554   4.595  24.079 -0.0917  0.0657  0.1513
44397W        W87413  12.288  17.861  22.730  0.0219  0.2954  0.2481
44398W        W87414   5.319  31.320  14.154 -0.2715 -0.1364  0.1271
44399W        W87415   6.382   0.365  17.348  0.2790 -0.0575  0.0616
44400W        W87416  13.552  21.156  13.957  0.0133  0.0707  0.0931
44401W        W87417   0.746   3.844  19.846  0.1287  0.0724 -0.4282
44402W        W87418  15.363  10.796  15.351 -0.1075  0.2806  0.3934
44403W        W87419   6.956  21.122   2.291  0.3696  0.2018 -0.1736
44404W        W87420  22.068  24.579   4.243 -0.2484 -0.1358  0.1350
44405W        W87421  16.941   7.241  25.698 -0.3346 -0.0760 -0.2547
44406W        W87422   7.311  19.525  16.593 -0.1541  0.3021 -0.0323
44407W        W87423  19.883  21.109  17.034  0.0298  0.2497  0.0144
44408W        W87424   2.824   1.458   8.122  0.1770 -0.0677  0.2984
44409W        W87425  12.457  28.788  26.257 -0.1021 -0.1451 -0.0181
44410W        W87426   7.185  24.427  27.907 -0.1045  0.0135  0.0826
44411W        W87427  27.610   0.456  21.726  0.1956 -0.0273 -0.1885
44412W        W87428   4.973  15.652  19.203  0.2268 -0.3598 -0.4198
44413W        W87429   8.794   9.639   3.624  0.0142 -0.0075 -0.1289
44414W        W87430  11.593  17.898   0.208  0.2794 -0.0207  0.1420
44415W        W87431   8.969   5.197   2.277 -0.1245 -0.3379  0.0193
44416W        W87432   2.031  17.813   3.961  0.1401  0.1165 -0.2340
44417W        W87433  28.469  28.764  19.266 -0.1054  0.0227  0.0704
44418W        W87434  19.533   5.380  20.151 -0.1542 -0.3059  0.1943
44419W        W87435   7.321  32.646  18.632  0.2539 -0.1887  0.1227
44420W        W87436  30.410  21.037  17.880 -0.2968 -0.0794 -0.2121
44421W        W87437  24.454  23.752  17.211  0.0822  0.0410 -0.1413
44422W        W87438   3.865  25.579  21.794  0.0196 -0.1744 -0.2389
44423W        W87439  26.622  17.900   1.103  0.1003 -0.2955 -0.0599
44424W        W87440  17.427   5.357  17.177 -0.0139 -0.2264  0.1984
44425W        W87441  14.720  14.969  15.209 -0.1267  0.0949  0.0941
44426W        W87442  14.034  23.856  12.938 -0.0865 -0.1574  0.0716
44427W        W87443  26.396  15.048  17.771 -0.3225 -0.1622 -0.0011
44428W        W87444  15.295  19.394  12.352  0.3825  0.1265 -0.1169
44429W        W87445  15.398  17.268  11.985 -0.1719  0.0459  0.0616
44430W        W87446   9.489   4.239  24.854 -0.0278  0.0566  0.1842
44431W        W87447  26.966  30.642  15.364  0.0414 -0.4483  0.1882
44432W        W87448   6.276  24.562   4.838 -0.0248  0.1383  0.2636
44433W        W87449   5.523  23.814  23.786  0.2829  0.0193 -0.0276
44434W        W87450  25.894  24.409  21.298  0.0482 -0.2573  0.0671
44435W        W87451  31.954   7.448  17.476  0.0240  0.0012  0.0688
44436W        W87452   7.885  14.055  18.031 -0.0317  0.0203 -0.0015
44437W        W87453   6.974  12.110  13.950  0.1692  0.1188 -0.2569
44438W        W87454  11.695  14.786  14.959 -0.1185 -0.0948  0.0832
44439W        W87455   6.795   4.383  20.592  0.1629 -0.0489 -0.0678
44440W        W87456  24.747  18.611  15.773 -0.2417 -0.0263  0.2020
44441W        W87457   1.881  20.850  27.436 -0.2214  0.0245 -0.1041
44442W        W87458  12.625   5.433   9.496  0.1271  0.1651  0.0818
44443W        W87459  31.023  32.299  20.509 -0.1204  0.0022 -0.1031
44444W        W87460   9.986  19.497  20.695  0.1537  0.0041  0.0357
44445W        W87461   2.805  21.164  26.369  0.2825 -0.1730  0.0292
44446W        W87462  13.830  33.238   2.350 -0.1462 -0.2708 -0.2784
44447W        W87463   9.101  30.427  18.131  0.0820  0.0411 -0.1132
44448W        W87464  24.016  29.693  19.350  0.1140  0.1181 -0.4806
44449W        W87465  10.402  26.567  19.772  0.1428  0.3935 -0.3388
44450W        W87466   5.765  13.102  24.150  0.2623  0.0807  0.2349
44451W        W87467  15.544   1.277   2.903 -0.1526  0.0457  0.0108
44452W        W87468  34.373  25.557  14.558  0.0469 -0.0461 -0.0777
44453W        W87469   4.203   8.423  17.839 -0.0645 -0.0181 -0.0204
44454W        W87470  21.997  21.180  23.658  0.0010  0.1022 -0.1510
44455W        W87471  33.797   7.022  25.453 -0.3502  0.1766 -0.0398
44456W        W87472  10.109   0.406  26.201 -0.2026 -0.2958  0.1660
44457W        W87473  16.075   2.627  14.491 -0.2478  0.2591 -0.2785
44458W        W87474  19.699  15.530  14.197 -0.0079  0.1744  0.0483
44459W        W87475   2.883   4.072  24.794  0.1556 -0.3228  0.2392
44460W        W87476   5.659  20.419  15.446  0.0694 -0.0808  0.1880
44461W        W87477   5.330   6.432  15.137 -0.2425 -0.0937  0.1504
44462W        W87478  32.518  33.537  16.545  0.1440  0.1222  0.0350
44463W        W87479  18.061  12.026  24.778  0.0387 -0.4846 -0.0892
44464W        W87480  34.399  23.011  15.481  0.1382  0.0571 -0.3545
44465W        W87481  21.925   3.506  27.511  0.1205 -0.0287 -0.3186
44466W        W87482  34.720  32.033  18.548 -0.1917  0.0179 -0.0356
44467W        W87483  15.371   3.968  18.347 -0.0828  0.2309 -0.3404
44468W        W87484   4.547  13.648  26.122 -0.1147 -0.1604 -0.1118
44469W        W87485  14.472  32.109  17.583  0.3358 -0.0255  0.1022
44470W        W87486   3.311  20.294  28.694  0.1530 -0.0299  0.1566
44471W        W87487   6.501   7.533  15.071  0.2537 -0.1596  0.0367
44472W        W87488  10.628   6.323  23.415 -0.1387 -0.1160  0.1218
44473W        W87489   1.233  16.246  18.323  0.3032 -0.0083 -0.0027
44474W        W87490  16.903   3.738  16.145 -0.1380 -0.0924  0.1536
44475W        W87491  29.486  14.903  24.079 -0.0046 -0.0979  0.3231
44476W        W87492   6.657  26.975  25.154 -0.4157  0.1076 -0.1188
44477W        W87493  13.546  29.749  24.968  0.0965 -0.0393 -0.0922
44478W        W87494  13.304  16.024  12.216 -0.2510  0.2105  0.2241
44479W        W87495  22.749  12.639  23.678 -0.2213 -0.0869 -0.4426
44480W        W87496  13.002  16.812  12.737  0.4565 -0.2630  0.1812
44481W        W87497  24.173  14.990  28.032 -0.0638  0.1735 -0.1488
44482W        W87498   3.383  24.994   8.686  0.4022  0.2162 -0.0755
44483W        W87499  14.536  23.602  17.858 -0.0587  0.0680  0.0507
44484W        W87500   9.914  24.562  18.730 -0.1353  0.0998 -0.3603
44485W        W87501  15.080   6.956  13.722  0.2035 -0.1605  0.4387
44486W        W87502   6.143  22.660  20.928  0.1713  0.4041  0.2833
44487W        W87503   6.317   6.856   3.426  0.2064 -0.0882 -0.1380
44488W        W87504   4.337  16.566  16.546  0.2285  0.0922 -0.0985
44489W        W87505  15.456  33.131   1.710  0.2092 -0.0036 -0.2068
44490W        W87506  16.182  15.287  13.457 -0.1534  0.1379 -0.0045
44491W        W87507  15.738  19.844  22.000  0.1204 -0.0351 -0.1543
44492W        W87508  11.938  20.173  12.942  0.1703  0.0125  0.2896
44493W        W87509   8.655  24.850   0.443  0.1400 -0.1541 -0.1058
44494W        W87510  12.555  21.652   5.957  0.1977  0.1564 -0.2835
44495W        W87511  18.452  19.308  12.642  0.0893  0.2726  0.0528
44496W        W87512  21.568  25.515  15.339 -0.0703  0.1457  0.0468
44497W        W87513   3.853  11.383  13.785  0.0502 -0.0683 -0.0103
44498W        W87514  21.150  11.228  21.224  0.0928  0.0090  0.1975
44499W        W87515  22.031   8.160  28.898 -0.3226  0.0885  0.5232
44500W        W87516  32.991  27.968   2.085 -0.2762  0.1032  0.2311
44501W        W87517  12.227  26.684  20.131  0.1337 -0.1508  0.0085
44502W        W87518  25.484  26.304  23.461  0.0878 -0.0550 -0.0511
44503W        W87519  19.067  13.379  12.530 -0.0196  0.1973 -0.2591
44504W        W87520  13.527  25.957  13.335 -0.1010 -0.0827  0.2016
44505W        W87521   4.717  23.492  16.121  0.0208 -0.1235  0.0711
44506W        W87522  13.263  10.757   4.140 -0.0623  0.0688  0.2819
44507W        W87523  19.668  26.490  23.400  0.0705 -0.0339 -0.0562
44508W        W87524   2.323  15.103  17.410 -0.0358 -0.3298 -0.3102
44509W        W87525   5.897  27.966  27.823  0.0133 -0.2348 -0.1316
44510W        W87526  14.893  14.271  27.158 -0.0075 -0.1467 -0.0500
44511W        W87527  14.691  29.763  17.184  0.0902 -0.0618 -0.0934
44512W        W87528  17.455  34.284  18.900  0.0695 -0.0972 -0.0351
44513W        W87529  18.770  26.537  20.192  0.3530  0.1440  0.0046
44514W        W87530  23.527  22.761   3.172 -0.1182  0.3395  0.0468
44515W        W87531  19.129  17.419  13.448 -0.2255 -0.3536  0.1393
44516W        W87532  19.159  20.202  14.663  0.1457 -0.0590  0.1019
44517W        W87533  14.798  23.219  16.399 -0.0921 -0.0153  0.0037
44518W        W87534  19.955  10.866  15.444  0.2350  0.1730  0.3045
44519W        W87535  25.728  22.911  16.636 -0.2997  0.2728  0.3926
44520W        W87536   7.138  20.642  16.632 -0.0195 -0.4587 -0.1223
44521W        W87537  12.084  20.255   6.119 -0.6170  0.1615  0.1352
44522W        W87538  31.044  26.853  15.855 -0.0953  0.0192  0.0797
44523W        W87539   9.245  15.972  15.604 -0.1956  0.1424  0.1528
44524W        W87540  27.712  22.418  21.326 -0.0138 -0.1464 -0.2515
44525W        W87541  14.739   8.236  18.420  0.1055 -0.2150 -0.0453
44526W        W87542  16.228  21.534  16.132  0.0602  0.1691 -0.0356
44527W        W87543   4.910  14.053  25.131  0.0576  0.1615 -0.0438
44528W        W87544   3.655  17.426  14.490  0.1346 -0.0261 -0.1039
44529W        W87545   3.990  14.391  22.369 -0.0749  0.2915 -0.1138
44530W        W87546  16.588  12.157  28.023 -0.0520  0.4399  0.1912
44531W        W87547   2.338  21.651  27.613  0.2405  0.0526  0.0903
44532W        W87548   0.542  23.847   2.214  0.1791 -0.1206  0.0470
44533W        W87549  25.637  15.450   6.051  0.0623 -0.1831  0.0331
44534W        W87550  17.434  19.015  13.499  0.0155 -0.0494 -0.1029
44535W        W87551   3.807  11.216  19.416  0.1477  0.1594  0.2194
44536W        W87552   5.428  11.301  16.519  0.0545  0.1324 -0.0351
44537W        W87553  14.088   6.627  17.262 -0.2009 -0.0825  0.0028
44538W        W87554  11.476  31.123   2.835 -0.0643 -0.0139  0.1068
44539W        W87555   5.327  17.175  23.903  0.1856  0.4114 -0.2828
44540W        W87556   9.993  17.685  28.457 -0.1897 -0.0867 -0.0155
44541W        W87557  33.179  31.308   6.825 -0.0554 -0.1399 -0.0740
44542W        W87558  30.546  29.614  24.743  0.2035 -0.0615 -0.0420
44543W        W87559   1.110  18.668  25.099  0.2567 -0.2756 -0.1133
44544W        W87560  30.360   2.047  18.400  0.0429 -0.1075 -0.2398
44545W        W87561  29.790  24.213  27.708 -0.0655 -0.0203  0.1433
44546W        W87562   4.910  26.080  17.609  0.0701  0.2107 -0.0250
44547W        W87563   0.977  26.043  16.256 -0.1651  0.2797  0.2182
44548W        W87564   2.826   7.554  26.875 -0.1582 -0.0451  0.0559
44549W        W87565   0.431  23.396  15.228 -0.1562  0.1016 -0.1521
44550W        W87566  14.111  15.556  11.635  0.1926  0.3258 -0.2042
44551W        W87567   2.644  20.112  22.714 -0.3240 -0.3352 -0.1708
44552W        W87568  15.122  18.461  12.016 -0.1232 -0.0802  0.0731
44553W        W87569   9.769  24.377   5.855 -0.4086  0.3934  0.1707
44554W        W87570  19.154   0.463  17.578  0.0505  0.2535 -0.1710
44555W        W87571   3.537   0.386  15.504  0.2692 -0.3773 -0.0895
44556W        W87572  30.946  23.764  26.101  0.2936  0.0544 -0.1197
44557W        W87573  13.633   7.019  14.518  0.2894 -0.3665 -0.1895
44558W        W87574   7.095  20.774  22.298  0.0982  0.4249 -0.1372
44559W        W87575   0.992  18.489  23.049 -0.1373 -0.3010 -0.0720
44560W        W87576   8.039  28.595  22.983  0.3679  0.1204  0.5007
44561W        W87577   5.706  20.958  18.086  0.0093 -0.1567 -0.1926
44562W        W87578   9.400  14.563  15.935 -0.2295 -0.1810  0.0687
44563W        W87579  11.593  26.354  15.571  0.0767  0.0555  0.4202
44564W        W87580  32.572   9.615  22.297  0.1117  0.0246  0.1137
44565W        W87581  11.757  32.810  18.096 -0.1139 -0.2803  0.0334
44566W        W87582  12.975  24.903   6.511 -0.4058  0.0723  0.0168
44567W        W87583   7.427  14.005  19.607 -0.0147 -0.2234 -0.0581
44568W        W87584  16.742  26.415  14.459 -0.0228 -0.0109  0.2422
44569W        W87585   5.314  20.883  24.219  0.2237  0.2081 -0.1621
44570W        W87586   7.903  19.140  21.150 -0.2227  0.1775  0.0728
44571W        W87587   4.227  24.178  19.225 -0.0428 -0.5182 -0.1344
44572W        W87588   1.078  28.630  23.489  0.0897 -0.0477  0.2309
44573W        W87589  19.525  21.506  24.249  0.0930 -0.5088 -0.1591
44574W        W87590   3.131   4.087  20.330  0.2379 -0.0575 -0.1968
44575W        W87591  30.879  17.879  16.288  0.0144 -0.1058  0.2400
44576W        W87592   7.267  13.280  24.419 -0.1552  0.3054 -0.0465
44577W        W87593  31.546  13.177  17.849 -0.0000 -0.4095  0.0651
44578W        W87594   9.146  16.734  22.560  0.1111 -0.2470  0.1660
44579W        W87595  11.322  17.551  15.255  0.1120  0.3240  0.2293
44580W        W87596  30.935   8.426   6.011  0.0109  0.0830  0.3895
44581W        W87597   8.912  12.246  22.995 -0.1541  0.2857  0.1732
44582W        W87598  17.587  22.931  18.196 -0.0167 -0.2400  0.1257
44583W        W87599  10.798  22.263  20.352 -0.1712 -0.2698 -0.1600
44584W        W87600   2.563  19.911  17.614 -0.0817 -0.2334  0.2194
44585W        W87601  11.581  23.558   5.214 -0.2559 -0.2299 -0.3238
44586W        W87602   6.755  10.262  16.250 -0.3385  0.0440  0.1153
44587W        W87603  33.911  29.596  21.905 -0.0075  0.1043  0.1946
44588W        W87604   1.541  29.163  23.024 -0.1437 -0.0699  0.0674
44589W        W87605   4.131  12.618  18.054  0.0222 -0.0389  0.1495
44590W        W87606  11.132   6.410  16.981 -0.2584 -0.2026 -0.2740
44591W        W87607  31.103  19.799   0.644  0.1984 -0.0252 -0.1719
44592W        W87608  23.594  34.119   0.351  0.0738  0.2493  0.5177
44593W        W87609  18.231  15.489  13.746 -0.0328 -0.1194 -0.0770
44594W        W87610   8.122  20.640   7.643 -0.2107  0.0333  0.0337
44595W        W87611   6.300  33.456  20.785 -0.0917  0.0568  0.0921
44596W        W87612  10.333  22.969  15.962 -0.1020  0.0767  0.0333
44597W        W87613   9.655  26.355  17.423  0.1515  0.0795  0.1236
44598W        W87614  31.849  15.851  15.292 -0.3132  0.0159 -0.0513
44599W        W87615   5.170  16.761  13.319  0.0021  0.1455 -0.1478
44600W        W87616  28.931  22.371  23.130  0.3586 -0.0955  0.0009
44601W        W87617  28.065  21.518  23.170 -0.1065  0.0870 -0.3696
44602W        W87618  26.270   1.846   6.273 -0.5219 -0.0051 -0.0197
44603W        W87619  17.550  11.095  17.767 -0.1236  0.2741  0.1895
44604W        W87620  10.970  29.126   2.336 -0.0332 -0.1941  0.4678
44605W        W87621  14.941  28.795   1.142 -0.0659  0.2022 -0.0706
44606W        W87622   7.018  20.708  25.468 -0.2237  0.1516 -0.0781
44607W        W87623  16.812   5.315  16.974  0.1242  0.2037 -0.0919
44608W        W87624   8.789  22.733  12.490 -0.1468  0.2563 -0.1203
44609W        W87625  30.752   7.180  16.407  0.2783 -0.2662 -0.1308
44610W        W87626   1.342  11.467  26.572 -0.0426  0.1305  0.1013
44611W        W87627  22.282  34.012  22.094 -0.2693 -0.2846 -0.2854
44612W        W87628   5.991  10.686  13.551 -0.2357  0.0707  0.1312
44613W        W87629  33.410  33.868  19.054 -0.1302 -0.2876  0.0130
44614W        W87630   9.317  20.015   4.730  0.0881 -0.0431  0.0541
44615W        W87631  33.339  11.742   2.190  0.3338 -0.2233  0.1043
44616W        W87632  22.718  16.076   1.607 -0.0026 -0.1027  0.1524
44617W        W87633  11.580  17.218  18.124  0.0897 -0.0405  0.0103
44618W        W87634  15.457   0.262   0.906  0.0410 -0.1647 -0.2790
44619W        W87635   6.361  26.096  18.769 -0.0889  0.1715  0.1267
44620W        W87636  33.965  11.567   0.887 -0.1864 -0.2886  0.2179
44621W        W87637   7.891  22.699  15.068  0.0812 -0.1471 -0.0201
44622W        W87638  12.590  22.484  14.440  0.2056  0.1670  0.1312
44623W        W87639  23.842  17.836  13.878  0.1348  0.2486 -0.0591
44624W        W87640   5.244   4.208  27.314  0.1025  0.1232  0.1943
44625W        W87641   5.729   6.503  19.179  0.0973  0.1966 -0.1617
44626W        W87642   3.217   7.695  16.921  0.2305  0.1109 -0.0819
44627W        W87643  13.414  30.880  23.576  0.4672  0.0552  0.2906
44628W        W87644   7.701   5.370  24.696  0.2982  0.2170  0.1486
44629W        W87645  31.927   6.066  22.137  0.3222 -0.0965  0.0425
44630W        W87646   3.110  14.323  15.871  0.0632 -0.1131 -0.1163
44631W        W87647   5.950  18.054  24.389  0.0093  0.1065 -0.1747
44632W        W87648  10.427  24.242  21.209 -0.1256  0.0872 -0.0935
44633W        W87649  13.412  27.452  21.026  0.1656  0.0949  0.2207
44634W        W87650  12.618  20.741  14.729  0.1708  0.2240 -0.0348
44635W        W87651   3.265   9.475   9.488  0.0466 -0.0166  0.0289
44636W        W87652  12.514   2.567  20.954  0.2854 -0.2057  0.0211
44637W        W87653   0.417  21.992  16.117 -0.1087  0.0006 -0.0240
44638W        W87654   6.054  15.131  23.662  0.0330 -0.0005 -0.1412
44639W        W87655  31.854  20.791  23.240 -0.0648 -0.2344 -0.1833
44640W        W87656   4.381  15.257  14.855  0.1535  0.2208 -0.1737
44641W        W87657  27.060   4.062   1.455 -0.0121  0.1961  0.1509
44642W        W87658  29.872  30.951  20.198 -0.2522 -0.2716 -0.0188
44643W        W87659  21.015  13.356  15.293  0.0270 -0.0641  0.0421
44644W        W87660  25.740  23.751  20.564 -0.1044 -0.1053  0.1179
44645W        W87661  32.608  13.523  23.952 -0.2728  0.0639 -0.0121
44646W        W87662  11.445  20.287  23.781  0.0131  0.0226  0.0182
44647W        W87663  27.911  25.700  21.732 -0.0759 -0.4249  0.1147
44648W        W87664   5.137  21.182  21.890 -0.0604  0.2943 -0.0869
44649W        W87665   5.121   7.982  27.615  0.1067  0.3673  0.0553
44650W        W87666   3.590  13.701  27.081  0.0238 -0.0864 -0.0400
44651W        W87667  10.048  16.416  14.270 -0.2384  0.0844 -0.2017
44652W        W87668  21.675  34.283  15.609 -0.0355  0.2108  0.2615
44653W        W87669  13.781   2.928  20.647  0.0638  0.0087 -0.2857
44654W        W87670   8.678  20.128  21.103 -0.0173 -0.2722  0.1748
44655W        W87671  30.056  26.652  19.442 -0.1046  0.0205 -0.1478
44656W        W87672  13.354  14.123  16.534 -0.1726  0.1732 -0.0162
44657W        W87673  23.024  24.720  22.669  0.1054  0.2277  0.0645
44658W        W87674  27.737  14.730  16.387  0.1764  0.1798 -0.0756
44659W        W87675   1.737  24.252  13.526  0.3492  0.0858 -0.0111
44660W        W87676   6.513  24.236  16.320  0.2346 -0.0803 -0.0208
44661W        W87677  12.298  20.898  22.316 -0.2262  0.0180  0.1719
44662W        W87678   4.935  19.447  24.273  0.0193  0.0035 -0.1602
44663W        W87679   2.629  34.010  16.285 -0.0635  0.2252 -0.0237
44664W        W87680   3.561  26.783  15.007  0.5511 -0.0710  0.0503
44665W        W87681   8.370  14.163  18.197  0.1644  0.1426 -0.2344
44666W        W87682   3.449   8.205  14.808  0.2595 -0.2601 -0.0386
44667W        W87683  11.356  32.612  18.303  0.2467  0.0033 -0.0669
44668W        W87684   6.866  17.389  18.464  0.2324  0.0664  0.0275
44669W        W87685  25.061   1.980  22.888 -0.2003 -0.0951 -0.0873
44670W        W87686  18.936  29.752   8.589 -0.0744 -0.0739 -0.0265
44671W        W87687   8.888   5.741  28.333 -0.2969 -0.1364 -0.1706
44672W        W87688   5.268  20.692  14.396  0.0441 -0.4064  0.0631
44673W        W87689   5.840   8.684  28.592  0.0711  0.1397 -0.3123
44674W        W87690   0.301   3.689  16.384 -0.1091 -0.4182 -0.1073
44675W        W87691   6.137  17.609  21.706  0.0199 -0.1003 -0.0007
44676W        W87692  27.765  19.944  23.958  0.1744 -0.1600 -0.0982
44677W        W87693  11.995  32.011  18.432 -0.0830 -0.2363 -0.1700
44678W        W87694  31.551  15.321   1.228  0.3293 -0.0463  0.0586
44679W        W87695   1.410   4.938  13.850  0.3235  0.1955 -0.0660
44680W        W87696   7.156  26.536  15.232  0.0181 -0.1375  0.1916
44681W        W87697  14.045  14.723   3.612  0.2533 -0.1340 -0.1297
44682W        W87698  20.501  28.628  22.791  0.5612 -0.1262 -0.1691
44683W        W87699   1.834  18.746   9.608 -0.0724  0.1756 -0.1767
44684W        W87700  11.267  27.705  24.996  0.0020 -0.1392 -0.0316
44685W        W87701  17.606  25.077  21.994 -0.0916 -0.1000  0.2555
44686W        W87702  33.724  12.314  27.151  0.1010  0.6351 -0.0609
44687W        W87703  20.475  31.679  16.982 -0.4958 -0.0949 -0.3726
44688W        W87704  30.286  32.436  18.690  0.0080 -0.2512  0.1194
44689W        W87705  27.850   5.091   3.339  0.1420 -0.0327 -0.1086
44690W        W87706  11.298  17.026  20.208 -0.2618 -0.5707 -0.0398
44691W        W87707  10.100   2.550  28.421  0.3384  0.2326 -0.0197
44692W        W87708  32.998  14.190  16.929 -0.1901 -0.2976 -0.0081
44693W        W87709   7.179  21.908  22.268  0.0715 -0.0129 -0.1675
44694W        W87710  15.026  34.418  21.471 -0.2658 -0.1325  0.1004
44695W        W87711  14.582  13.688  15.742 -0.1501 -0.2726  0.0182
44696W        W87712   0.212  10.096  15.891 -0.0286  0.2240 -0.2370
44697W        W87713  30.074   4.396  17.116  0.1766  0.0667  0.0989
44698W        W87714  34.465  32.554  16.331 -0.0707  0.3147  0.0561
44699W        W87715  32.923  25.133  13.994 -0.2040 -0.0295  0.0280
44700W        W87716  13.703   9.267  16.334 -0.4071 -0.1939  0.0371
44701W        W87717   9.200  25.072  18.907  0.4090  0.2849  0.0258
44702W        W87718  30.490  17.241  20.503 -0.0820  0.0375 -0.1819
44703W        W87719   8.709  28.944  15.461 -0.0021  0.1897  0.0623
44704W        W87720  10.890  27.076  21.025  0.3203 -0.1099 -0.0098
44705W        W87721  15.202   8.981  15.675  0.0347 -0.1577 -0.0759
44706W        W87722  13.916  17.218  13.963  0.1014  0.1979 -0.1241
44707W        W87723   8.617  28.208  21.490 -0.0349 -0.0697  0.0596
44708W        W87724   6.138  29.961  20.299 -0.1138 -0.3623  0.1326
44709W        W87725  29.246  10.091  20.731  0.0153  0.3818 -0.0049
44710W        W87726  22.666   5.909  19.353 -0.4289  0.0211  0.0008
44711W        W87727  20.368  24.905  25.316 -0.1244  0.0023 -0.0035
44712W        W87728  11.481  12.933  19.804 -0.0439  0.0515 -0.0968
44713W        W87729  19.754  15.387  28.574  0.2631 -0.0189 -0.1343
44714W        W87730   2.741  21.400  20.949 -0.3799 -0.0824 -0.0892
44715W        W87731   8.570  15.279   0.486 -0.1284 -0.1653  0.0194
44716W        W87732  32.344  25.067  23.236 -0.2398 -0.0770  0.0299
44717W        W87733  10.612  34.291  16.851 -0.1337 -0.0222 -0.0711
44718W        W87734  10.310  12.692   0.698  0.0080  0.4528 -0.0459
44719W        W87735  25.629  12.835   2.241 -0.4489 -0.0020  0.0552
44720W        W87736  14.439   3.233  14.128 -0.1183 -0.0007  0.2612
44721W        W87737  13.997  23.351  13.085 -0.0675 -0.0166  0.0100
44722W        W87738   0.409   6.033  22.133  0.0618 -0.1159 -0.3471
44723W        W87739  19.910  25.010  20.073 -0.1008 -0.1195  0.0041
44724W        W87740   0.163  11.136  20.029 -0.0567 -0.0962 -0.0603
44725W        W87741  24.340  25.416  27.115  0.2972 -0.3149  0.0301
44726W        W87742   7.755  19.990   1.738  0.3115 -0.1899  0.1628
44727W        W87743  33.742  17.606  18.237  0.1140  0.0650 -0.1019
44728W        W87744  15.968  30.362  16.692 -0.1941 -0.1593  0.1309
44729W        W87745   6.089  15.861  23.919  0.0255 -0.1462 -0.1527
44730W        W87746   2.901  22.548  15.344  0.0470  0.0612  0.2042
44731W        W87747  23.305  20.926  15.360 -0.2831  0.0133  0.1295
44732W        W87748   6.066  20.821  17.599  0.2195 -0.0714  0.0181
44733W        W87749   6.120  11.404  19.432  0.2184  0.1308 -0.1285
44734W        W87750  33.891  20.597  19.944  0.5217 -0.2189  0.3097
44735W        W87751  25.132   3.800  15.731 -0.1728  0.0098 -0.0497
44736W        W87752  12.389  14.249  16.671  0.4411 -0.2683  0.2839
44737W        W87753   6.927  18.926  20.812 -0.1889  0.1205 -0.2908
44738W        W87754   7.502   7.844  24.959  0.0035  0.0078  0.2034
44739W        W87755  29.056  10.799  14.289  0.2110 -0.2164 -0.1211
44740W        W87756  18.624   9.285   1.876  0.1718 -0.0119 -0.2793
44741W        W87757   5.432  10.992  20.111 -0.1179 -0.3187 -0.0433
44742W        W87758  31.995  22.644  19.908  0.0878 -0.0561  0.2651
44743W        W87759  15.930  24.356  25.531  0.0854  0.3316  0.0087
44744W        W87760  23.022  32.140  15.093  0.1346  0.1181  0.2193
44745W        W87761  25.226  12.540  17.444  0.0970  0.1965 -0.1393
44746W        W87762   8.049  27.803  21.752 -0.1627 -0.6061  0.2584
44747W        W87763   1.371   0.011  17.906 -0.2400 -0.0929  0.0250
44748W        W87764   2.664   2.930   7.972  0.2296 -0.0103  0.3038
44749W        W87765   3.533  12.620  17.012 -0.0316 -0.0287 -0.2287
44750W        W87766   3.350  19.009   2.528 -0.2605 -0.2360  0.0392
44751W        W87767  10.490  25.845  16.303  0.2313  0.3062 -0.1938
44752W        W87768  10.253   3.758  23.174  0.1523  0.1885 -0.1937
44753W        W87769  13.528  34.184  14.228 -0.2825  0.0767 -0.1216
44754W        W87770   9.396  12.332  21.928  0.2546 -0.1647  0.0235
44755W        W87771   2.444  11.658  21.617  0.1047  0.2048  0.3434
44756W        W87772   0.555  20.609   3.792  0.0024 -0.3882  0.0337
44757W        W87773   8.240  17.919  20.965 -0.1901 -0.1856 -0.0264
44758W        W87774  15.137  19.539  15.715  0.3016  0.0233 -0.0919
44759W        W87775  14.254  27.265  18.972  0.0820 -0.2224 -0.1295
44760W        W87776  13.362  14.220  13.813 -0.0361  0.1798 -0.1504
44761W        W87777  13.461   9.541  15.413  0.0007  0.2668  0.2315
44762W        W87778  16.264  26.524  17.099  0.0801  0.1112 -0.2352
44763W        W87779   5.700  13.122  21.780 -0.2417 -0.2307 -0.0079
44764W        W87780  16.919  14.750  13.731 -0.1519 -0.2992  0.2893
44765W        W87781   2.590  20.099   6.780  0.1824 -0.2089  0.0074
44766W        W87782  14.993   3.806  18.049  0.1441 -0.3832  0.1496
44767W        W87783  31.789   0.454  19.117 -0.0355 -0.3316  0.2307
44768W        W87784  16.482  25.203  19.844  0.0262 -0.2132 -0.3420
44769W        W87785  30.399  16.294  21.591 -0.2272  0.0331 -0.0256
44770W        W87786   1.623   3.264  17.608  0.1506 -0.1358 -0.0870
44771W        W87787  28.490   9.200   4.398 -0.0199 -0.3393 -0.1657
44772W        W87788  20.432  22.850   5.866  0.2009 -0.0618  0.0321
44773W        W87789  13.256  34.149  15.176 -0.1674  0.0474 -0.1362
44774W        W87790   6.373  28.751   6.209 -0.3854 -0.0074  0.1652
44775W        W87791   4.555  21.356  13.741  0.2686 -0.0367  0.0346
44776W        W87792   4.276  13.708   0.428 -0.2213  0.0336  0.0617
44777W        W87793  31.059  26.709  16.327  0.3510 -0.0430 -0.4920
44778W        W87794   3.916  15.898  17.128 -0.2177 -0.0508  0.0554
44779W        W87795  21.460  30.901  27.432 -0.1813  0.1165  0.2377
44780W        W87796  30.637  29.831   1.284 -0.0419 -0.3202 -0.1230
44781W        W87797  33.965   4.231  28.092  0.1168  0.3192  0.1504
44782W        W87798  10.189  16.664  17.068 -0.1114 -0.0472  0.0715
44783W        W87799  32.297  26.282   1.854  0.2100 -0.2018 -0.2249
44784W        W87800   4.960  20.472  15.561 -0.2162 -0.2071 -0.2812
44785W        W87801  15.630  30.402  15.673 -0.0479  0.0806 -0.0314
44786W        W87802  33.204   2.094  19.663 -0.0405  0.2411  0.1237
44787W        W87803  10.369  22.966  25.467  0.2123 -0.0839  0.0276
44788W        W87804   7.839  13.903  16.189  0.0353  0.5003  0.0429
44789W        W87805  11.516  20.688   7.114 -0.1438 -0.0596  0.0443
44790W        W87806   7.645  26.007  26.849 -0.2131 -0.0005 -0.0648
44791W        W87807   9.055  21.391  23.404  0.1399  0.1035 -0.3440
44792W        W87808   0.735   0.345   0.894  0.3380  0.0623 -0.1368
44793W        W87809  18.115  23.860  14.348  0.2771  0.2757  0.0111
44794W        W87810  18.685  12.988  25.791 -0.0264 -0.0141 -0.0012
44795W        W87811   0.660  10.356  16.424 -0.6404 -0.4953 -0.0341
44796W        W87812  27.652   3.407  19.926 -0.2384 -0.1402  0.1295
44797W        W87813  32.615  30.572  16.795 -0.2121  0.3170 -0.0027
44798W        W87814  34.098  18.435  20.241  0.0705  0.0597 -0.1963
44799W        W87815   8.121  12.455  22.510  0.0847  0.2266 -0.0501
44800W        W87816   7.422  23.709  22.905 -0.1671 -0.0211 -0.2921
44801W        W87817   3.542  25.678  17.327  0.2375 -0.1039 -0.3565
44802W        W87818  11.707  26.010  13.300 -0.1342  0.3049  0.0431
44803W        W87819   9.014  25.031  14.417 -0.2121 -0.2572  0.0354
44804W        W87820  11.069  16.123  17.441  0.0121 -0.1861 -0.0480
44805W        W87821  20.066  26.285   7.925 -0.1774  0.1336  0.1865
44806W        W87822  13.480  13.119  25.024  0.1414  0.0156 -0.0003
44807W        W87823  11.951   4.695  20.343  0.0895  0.3976 -0.0044
44808W        W87824  18.135  23.937  17.036  0.1888 -0.0823  0.0015
44809W        W87825  26.071  10.428   4.443  0.2500 -0.0939 -0.0712
44810W        W87826  12.168  12.673   9.157  0.1529 -0.1163  0.3735
44811W        W87827   3.476  15.476  17.013  0.1776  0.1697  0.2441
44812W        W87828  14.734  13.433   6.658 -0.3650  0.0634  0.1665
44813W        W87829   3.663  15.048  14.462  0.1753 -0.0524  0.0016
44814W        W87830  19.482  11.835  18.169  0.3786 -0.0252 -0.0588
44815W        W87831  18.507  26.790  19.352  0.0905 -0.2222  0.0891
44816W        W87832  25.817  18.427  17.259  0.0221 -0.1618  0.3046
44817W        W87833   9.788  25.978  23.285  0.1187 -0.0413 -0.0906
44818W        W87834   2.723  20.344  17.454 -0.0367  0.3633  0.0098
44819W        W87835  15.833  16.742   0.219  0.1213  0.2209 -0.1888
44820W        W87836   3.518  29.530  17.807 -0.0881  0.2037 -0.2750
44821W        W87837  33.299  30.379  16.473  0.1059 -0.0765  0.1321
44822W        W87838   9.461  31.469  17.573 -0.0166 -0.1367  0.2360
44823W        W87839   7.579   5.001  18.279  0.2063  0.0412 -0.0339
44824W        W87840  10.106  17.539  22.340  0.0492  0.2364 -0.0140
44825W        W87841  26.923   5.603  28.593  0.0884 -0.0925  0.0233
44826W        W87842   5.447  12.805  20.371 -0.1355 -0.1085 -0.0156
44827W        W87843   5.500  32.923  18.734 -0.0393  0.0202  0.0941
44828W        W87844   9.670  26.975  14.294  0.0845  0.1641  0.1035
44829W        W87845   2.897  22.954  23.348  0.1375 -0.0703 -0.3136
44830W        W87846  20.438  20.843  18.857  0.1569 -0.3393  0.0501
44831W        W87847  15.381   4.232   6.283 -0.2336 -0.0525  0.0516
44832W        W87848   3.627  26.505   5.375 -0.0060  0.2076  0.0467
44833W        W87849  10.634  18.359  16.454  0.4408  0.1422  0.0734
44834W        W87850  15.908   2.399  14.022 -0.3658  0.1085  0.2849
44835W        W87851  31.675  25.608  10.022  0.2927 -0.2596 -0.0367
44836W        W87852   9.776  18.531  14.169 -0.1531 -0.1562  0.2391
44837W        W87853  24.939  18.045  16.707 -0.0745 -0.1055 -0.1207
44838W        W87854  20.935   5.217  26.470 -0.1553 -0.1607 -0.0521
44839W        W87855  21.284  26.525  18.067 -0.2019  0.0010 -0.1458
44840W        W87856   6.043  16.963  25.888 -0.0911  0.0546  0.2745
44841W        W87857  16.100   0.443  14.755 -0.3511  0.0991  0.0922
44842W        W87858   6.100  14.601  14.949  0.0578  0.0955 -0.0463
44843W        W87859  22.204  16.879  14.109 -0.0008  0.2195  0.2320
44844W        W87860   2.679  24.754  26.652  0.1955 -0.0824  0.3607
44845W        W87861   4.298  26.223  23.685 -0.1283  0.1282 -0.1620
44846W        W87862  15.433   3.858   1.890  0.0296 -0.3456  0.1756
44847W        W87863   6.088  15.854  13.788  0.1042 -0.1798  0.0005
44848W        W87864  19.029  19.458  26.080  0.0353 -0.0343 -0.0242
44849W        W87865  12.840  26.955  24.676  0.0583 -0.3095  0.3477
44850W        W87866  18.047  25.750  22.592  0.0955  0.1477 -0.0245
44851W        W87867  33.762  15.361  22.714  0.1648  0.1013 -0.3008
44852W        W87868  17.444  16.760  14.051  0.1044  0.3037  0.1994
44853W        W87869  32.589  11.593  21.658  0.0565 -0.1126  0.2837
44854W        W87870  15.945  24.783  17.767 -0.1814  0.2306  0.3742
44855W        W87871   2.506  16.117  17.867  0.0176 -0.2147  0.1474
44856W        W87872  15.328  12.644  15.138 -0.2743 -0.0356 -0.0591
44857W        W87873   4.030  12.944   9.338 -0.0011 -0.2298  0.2343
44858W        W87874  22.313  24.409  26.932 -0.1477  0.4944  0.5334
44859W        W87875  15.201   5.997  19.876  0.4117  0.0162 -0.1866
44860W        W87876  16.214  12.530  20.710 -0.2038 -0.0701  0.2715
44861W        W87877  15.975  29.069  23.596  0.2855  0.0562  0.4233
44862W        W87878   2.594  11.790  18.476 -0.3413  0.1967  0.1269
44863W        W87879   9.735  22.585  16.343  0.3049 -0.1706 -0.0391
44864W        W87880  21.218  22.278  15.246  0.0230  0.1176 -0.3001
44865W        W87881   1.182  34.396  28.436 -0.2232 -0.1427  0.2452
44866W        W87882   8.967   1.485  20.413  0.2987  0.2190  0.0782
44867W        W87883   9.984  27.213  15.787  0.0320  0.0130 -0.0599
44868W        W87884  20.195   8.124  26.374 -0.0312 -0.1281  0.2236
44869W        W87885  33.208  10.257   3.983 -0.0990  0.0711 -0.1634
44870W        W87886  15.816   8.639  24.052  0.2248 -0.2339  0.3537
44871W        W87887  11.211  21.115  24.585 -0.0000 -0.1067  0.3888
44872W        W87888  12.670  18.542  12.282 -0.1600 -0.0524 -0.0919
44873W        W87889  26.817  24.592  16.841  0.1707  0.0537 -0.0971
44874W        W87890  11.341  32.782  25.647  0.0181 -0.4479 -0.0859
44875W        W87891   6.932   4.842   7.255  0.3731  0.1096  0.2032
44876W        W87892  19.483  18.611  14.913 -0.5971  0.1422  0.0823
44877W        W87893  17.539  15.542  23.331  0.0335  0.2388  0.0713
44878W        W87894  34.014  12.092  25.086 -0.0031 -0.0660 -0.2178
44879W        W87895  24.079  19.769  17.466 -0.0133  0.2321  0.1755
44880W        W87896  17.983   9.614  16.309  0.4316 -0.0942 -0.1255
44881W        W87897  25.677  17.905  26.243 -0.2622 -0.0842 -0.0672
44882W        W87898   5.930   4.743  25.156 -0.1239  0.1322 -0.1198
44883W        W87899  21.021  23.908  18.885 -0.0135 -0.2331 -0.4537
44884W        W87900   8.116   6.043  15.748  0.2161 -0.0505 -0.0505
44885W        W87901  10.761  17.466  28.934  0.1425  0.1255 -0.0681
44886W        W87902   7.116  34.167  18.459  0.4086 -0.1704  0.2266
44887W        W87903   7.768  22.861  19.209 -0.0300  0.2402  0.0588
44888W        W87904   5.373  14.820  17.474 -0.2951  0.2560  0.0598
44889W        W87905  14.209   9.310   4.694 -0.2361 -0.0853 -0.0104
44890W        W87906  34.214   5.885  13.697  0.2912 -0.1910 -0.1465
44891W        W87907  14.365   8.705  19.163 -0.0952  0.1038 -0.2618
44892W        W87908   8.656  19.678  22.701 -0.1548 -0.1172 -0.2596
44893W        W87909  16.751  28.438  18.693 -0.0871 -0.2222  0.0316
44894W        W87910   6.990  14.606  27.883  0.0592 -0.2317 -0.0847
44895W        W87911  20.574  18.888  24.519 -0.0423  0.1140  0.2569
44896W        W87912  12.840   5.047   5.484 -0.2288 -0.0347 -0.1183
44897W        W87913   7.960  20.141  26.563  0.0118 -0.0620 -0.1904
44898W        W87914   6.606  28.919  19.083  0.0895  0.1324 -0.3208
44899W        W87915   7.037  20.306  13.877 -0.2115 -0.1023 -0.3374
44900W        W87916   2.637  31.638  21.540  0.0728  0.0206 -0.0150
44901W        W87917   6.683  25.747   1.163  0.1586  0.0287 -0.0697
44902W        W87918  29.912  20.616  23.200  0.2582  0.2125  0.0075
44903W        W87919  11.324   0.444  19.445  0.1280 -0.1708  0.2916
44904W        W87920   8.346   9.045  26.997  0.0485  0.2553 -0.1614
44905W        W87921  29.832  23.354  28.786 -0.0061 -0.0805 -0.1208
44906W        W87922   1.072  10.942  10.332  0.3352 -0.0805  0.2285
44907W        W87923  16.806  28.842  15.549 -0.1793  0.2576  0.0905
44908W        W87924  20.864  26.721   7.883 -0.0017 -0.1302  0.2625
44909W        W87925  12.484  18.865   4.391  0.2083  0.0058 -0.1120
44910W        W87926  12.243  20.776  28.733  0.0301 -0.3981  0.0296
44911W        W87927  10.426  16.053  18.061 -0.2414 -0.0620  0.1132
44912W        W87928  18.131  25.022  23.338 -0.1132  0.0276  0.0904
44913W        W87929   8.833  16.049  25.101 -0.0851  0.1032  0.0725
44914W        W87930  33.809  14.559  15.302  0.0120 -0.0737  0.0440
44915W        W87931  11.263  11.096  24.088 -0.3101 -0.0833  0.0927
44916W        W87932  32.103  10.056  26.234  0.0643 -0.0166 -0.1510
44917W        W87933  10.244  20.371   1.517 -0.2292  0.3567 -0.0830
44918W        W87934  16.921   7.436  19.907 -0.1452  0.0469 -0.3959
44919W        W87935  14.465  16.644   0.744 -0.0937 -0.0709 -0.1882
44920W        W87936  13.061  19.706  23.886 -0.1246 -0.2357 -0.2137
44921W        W87937  14.166  19.297  20.076  0.1348 -0.2086 -0.1145
44922W        W87938   7.280  21.960  13.791  0.0425 -0.0924  0.0682
44923W        W87939  33.883  23.474  28.537  0.0279  0.0023  0.1005
44924W        W87940  14.659  11.130  26.591  0.1114  0.1433  0.0107
44925W        W87941  28.050  28.644  20.411  0.0334 -0.0006 -0.1766
44926W        W87942  14.046  11.564   8.538  0.0942  0.2495 -0.0867
44927W        W87943   5.188  11.220  14.054  0.1997  0.0676 -0.4648
44928W        W87944  21.887  14.505  22.518 -0.0642  0.1972 -0.0566
44929W        W87945   3.101  30.854  23.721 -0.1210 -0.2435 -0.1034
44930W        W87946  18.236  15.890  20.226 -0.0986  0.3503  0.0043
44931W        W87947  29.294   7.559  28.688  0.2305  0.0793  0.0600
44932W        W87948  33.936  19.076  24.396 -0.1440  0.0693  0.0443
44933W        W87949   1.634  21.113  17.125  0.0906  0.0384  0.2381
44934W        W87950   2.405   9.439  25.921  0.0117 -0.2389  0.2498
44935W        W87951  21.905  24.048  19.152 -0.1286 -0.0391  0.1812
44936W        W87952   3.505  24.761  23.824 -0.0335  0.1028 -0.5166
44937W        W87953  31.686  25.395  14.825  0.1956 -0.3750 -0.1843
44938W        W87954  22.176  20.248   6.748 -0.0483  0.2323 -0.2733
44939W        W87955   4.871  15.709  14.310 -0.1620  0.1370 -0.2098
44940W        W87956  27.420  12.916  19.075  0.2310 -0.0152 -0.0214
44941W        W87957   4.113  21.392  16.305 -0.2013  0.0692  0.0204
44942W        W87958   7.977  28.004  28.204  0.2060 -0.0643  0.2227
44943W        W87959   5.958   0.685  15.837 -0.1711  0.1549 -0.1603
44944W        W87960   3.805  24.678   1.295 -0.1086  0.2659 -0.1679
44945W        W87961  10.010  17.174   1.690  0.0277  0.2056 -0.0822
44946W        W87962   6.573  33.303  14.972  0.1984  0.3354 -0.2510
44947W        W87963  16.353  20.841  15.332 -0.3879  0.3321  0.0252
44948W        W87964   3.464  22.289   0.226 -0.0331 -0.1400  0.3720
44949W        W87965  10.642   7.845  21.941 -0.1400 -0.0988  0.3132
44950W        W87966  15.801  12.994  27.831 -0.2174  0.0630 -0.0747
44951W        W87967   0.619  17.056  18.242  0.2313 -0.2344 -0.0660
44952W        W87968  24.432  20.498  21.165  0.4060 -0.0949  0.1959
44953W        W87969   5.606   2.014  22.940  0.0929 -0.2968 -0.1545
44954W        W87970  24.687  14.096  17.250 -0.1225  0.2122  0.0713
44955W        W87971  23.453  28.279  20.774  0.0677 -0.2043 -0.1907
44956W        W87972   1.681  27.318  18.814 -0.2203  0.2338 -0.2653
44957W        W87973  10.550  19.011  15.690 -0.0945  0.2950 -0.2233
44958W        W87974   2.092   8.594  16.457 -0.1064 -0.1470  0.0527
44959W        W87975   8.387   5.162  14.662  0.0714  0.0832 -0.3931
44960W        W87976  14.961  24.498  14.797 -0.0226 -0.0904  0.0690
44961W        W87977  19.520  15.538  26.272 -0.0692 -0.2761 -0.0674
44962W        W87978  33.156  25.981  15.091  0.0976  0.1498 -0.2084
44963W        W87979   3.061  24.669  22.768  0.0028  0.1101 -0.1060
44964W        W87980  22.061  20.357   2.937 -0.1055 -0.0568  0.0874
44965W        W87981  10.355  26.478   3.708 -0.2369  0.1966 -0.4212
44966W        W87982  31.681  14.395   3.094 -0.3421 -0.2382 -0.1356
44967W        W87983   7.209  24.807  21.837 -0.3164  0.0307  0.0244
44968W        W87984  34.117  20.942  18.200 -0.0010  0.0258  0.1913
44969W        W87985  14.107  18.822  25.291 -0.0607  0.0104  0.0295
44970W        W87986  17.836  28.366  14.748  0.0985 -0.1800 -0.0888
44971W        W87987  32.996  29.006  16.610  0.1709 -0.2495  0.0714
44972W        W87988   9.937   3.125  14.929 -0.0009  0.0214 -0.0979
44973W        W87989  28.662   4.885  16.821  0.0355  0.1708 -0.1027
44974W        W87990  14.287  17.961  12.178 -0.3199 -0.1106  0.0068
44975W        W87991  19.371  31.090  26.916 -0.1432 -0.3361 -0.1150
44976W        W87992  17.315  26.867   9.305 -0.0823  0.0288 -0.1197
44977W        W87993  14.892  23.969   0.816 -0.2511  0.1705 -0.0535
44978W        W87994  34.097   7.621  20.152 -0.0188  0.0767 -0.0393
44979W        W87995  26.356  16.191  14.602  0.0881  0.3290  0.1340
44980W        W87996   0.322  26.729  28.139  0.0168 -0.3064 -0.0302
44981W        W87997  32.156  16.686  23.987  0.2519  0.0537 -0.2767
44982W        W87998  32.182   2.309  18.956  0.2070 -0.0318  0.1173
44983W        W87999   3.332  24.880   6.678  0.0180 -0.0846 -0.0139
44984W        W88000  12.059  26.532  23.468  0.1591  0.0083  0.2438
44985W        W88001  27.461  15.252  19.957  0.0517  0.1437 -0.2939
44986W        W88002  14.107  28.574  20.721  0.1563 -0.2953  0.0484
44987W        W88003   9.867  22.498  24.782  0.1377 -0.0041  0.2219
44988W        W88004  34.196  20.048  18.962  0.3278  0.3292 -0.0722
44989W        W88005   1.734  17.947   6.170 -0.1770 -0.0809 -0.0428
44990W        W88006   3.116   4.955  17.385 -0.1419 -0.0050  0.1271
44991W        W88007  15.009  26.412   8.679 -0.0323  0.1243 -0.4758
44992W        W88008  22.661  23.484   0.044 -0.0083 -0.2155 -0.0487
44993W        W88009  16.408  34.024   2.228  0.1562 -0.0850 -0.0267
44994W        W88010  17.756  23.994  15.608  0.2370  0.0706  0.2377
44995W        W88011  14.839   7.164  19.884  0.2021  0.0572  0.1367
44996W        W88012   4.910   3.761  27.445  0.1529 -0.2617 -0.1191
44997W        W88013  18.530  18.814  16.257 -0.1578  0.1836  0.0340
44998W        W88014   8.293   5.835   5.807 -0.4517 -0.0427 -0.0694
44999W        W88015   8.413  34.356  15.484  0.0182  0.1236 -0.0167
45000W        W88016  27.931  29.714  19.875  0.2415  0.2607 -0.0507
45001W        W88017  19.007  20.517   4.601 -0.2786 -0.2452 -0.3115
45002W        W88018   3.312  34.157  19.447  0.0288  0.1583 -0.0644
45003W        W88019  16.475  22.644  14.137  0.0638  0.2031 -0.2403
45004W        W88020   5.577   7.125  28.615 -0.0826 -0.1208 -0.1131
45005W        W88021   3.554  29.518  23.800  0.0715 -0.0316 -0.1062
45006W        W88022  15.337  10.240  14.314  0.0653 -0.1214  0.0532
45007W        W88023   2.807  25.079  16.254 -0.1384  0.1157 -0.0331
45008W        W88024   4.978  17.901   0.356 -0.0134 -0.0074  0.1109
45009W        W88025  13.667  14.817   6.520 -0.0671  0.1412 -0.0212
45010W        W88026  14.714   9.387  17.740  0.0376  0.0440 -0.4886
45011W        W88027  15.420  10.299  19.319 -0.1814 -0.1245 -0.1926
45012W        W88028  20.569  30.380  18.059 -0.2196 -0.0698 -0.0360
45013W        W88029   6.858  29.980  21.524 -0.2320 -0.0730 -0.1800
45014W        W88030  27.971  14.446  18.124  0.1771  0.0560  0.0489
45015W        W88031   9.633  26.637   1.338  0.1703  0.0558  0.0978
45016W        W88032  18.823  23.443  17.136  0.1837 -0.0651  0.0950
45017W        W88033  17.276  21.514   0.167 -0.1364 -0.3851  0.1415
45018W        W88034  26.184  14.142  26.909  0.1902  0.1644 -0.0751
45019W        W88035  11.710  34.376  26.926  0.1549  0.0025 -0.1216
45020W        W88036   9.118  11.694  18.798 -0.0002 -0.2024  0.0150
45021W        W88037  28.478  25.310   2.438  0.0985 -0.0428  0.0132
45022W        W88038  30.422   5.132  25.957 -0.0972  0.0152  0.2573
45023W        W88039  11.437  25.210   0.119 -0.0421 -0.1197  0.1698
45024W        W88040   9.098   9.416  27.507  0.3100  0.0199  0.0738
45025W        W88041   7.845  21.848  26.610  0.1193  0.1721  0.1694
45026W        W88042   5.976   1.046  27.067 -0.0076 -0.0361 -0.3312
45027W        W88043  27.435   7.370  29.172  0.1229  0.2418  0.1941
45028W        W88044  10.191   7.988  15.009  0.4780 -0.0940  0.1087
45029W        W88045   5.816  18.659  24.421 -0.2552 -0.1885  0.0511
45030W        W88046   6.751  24.919  20.463 -0.2367 -0.0267  0.0947
45031W        W88047  34.258   4.300  16.518 -0.1799 -0.2935 -0.0113
45032W        W88048   5.928  29.637  15.589  0.0414 -0.0865 -0.2351
45033W        W88049  21.352  18.567  13.432 -0.0695  0.1438  0.1114
45034W        W88050   6.466   6.584   9.511  0.1060  0.2822  0.1450
45035W        W88051   9.965  10.915  21.839  0.0028 -0.0345  0.2173
45036W        W88052  33.246  20.779  17.564 -0.2504  0.0021  0.1332
45037W        W88053   6.863  19.480  16.373  0.1100 -0.0543 -0.2692
45038W        W88054  29.443  12.971   9.191 -0.0845 -0.2127  0.0987
45039W        W88055   1.401  10.410   8.206 -0.2489  0.2818 -0.2703
45040W        W88056  31.047   5.234  21.790 -0.0710  0.2311 -0.0107
45041W        W88057  13.433  25.772  21.204  0.0093 -0.3322 -0.0803
45042W        W88058   7.770  32.656  21.167 -0.0922  0.0427  0.1326
45043W        W88059  15.936  24.581   3.830 -0.2415 -0.2696 -0.1672
45044W        W88060  16.923   4.676  21.432 -0.1512 -0.2826  0.2684
45045W        W88061   5.433  27.454  27.244 -0.3206 -0.1448  0.0688
45046W        W88062  18.374  14.762   1.102  0.0198  0.0503 -0.2696
45047W        W88063  11.072  13.766  18.353  0.3962 -0.1259  0.3849
45048W        W88064   4.221  23.277  10.302 -0.1517  0.0917 -0.0185
45049W        W88065   4.445  31.743  28.039  0.2272 -0.2855  0.0090
45050W        W88066  18.790  11.516   0.446 -0.0949  0.0946 -0.1946
45051W        W88067   4.379   7.372  25.289 -0.0067  0.0390 -0.3909
45052W        W88068   6.159   6.933  23.149 -0.1756  0.2425  0.1630
45053W        W88069  12.413  10.440   6.413  0.0853 -0.1631  0.2725
45054W        W88070   9.707  17.323  23.862 -0.1707  0.0513  0.1038
45055W        W88071  27.566  33.546  21.880 -0.1363 -0.1531 -0.1206
45056W        W88072  22.901  29.431  16.538 -0.0832  0.1881  0.0337
45057W        W88073  10.015  23.759  19.982 -0.1792 -0.0880 -0.0458
45058W        W88074  14.505  21.736  13.286  0.2091  0.0507 -0.2659
45059W        W88075  31.124   2.417   3.964 -0.3137 -0.0350  0.1510
45060W        W88076  14.797  24.577  15.873 -0.0096  0.0143  0.4866
45061W        W88077   3.169  32.602  23.857 -0.3524 -0.0092 -0.0940
45062W        W88078  17.477  25.579  27.361  0.0513  0.5193 -0.3776
45063W        W88079  30.423  13.669   1.693  0.0082 -0.1821  0.2728
45064W        W88080  14.873   7.717  18.353  0.1161  0.0881  0.0821
45065W        W88081  16.011  11.789  16.591 -0.0246  0.0418  0.1507
45066W        W88082  32.672   0.873  26.122 -0.1513 -0.0482  0.1728
45067W        W88083  34.492  14.916  17.605 -0.2232  0.3677 -0.3815
45068W        W88084  15.375  26.335  15.670 -0.1156  0.2290 -0.2895
45069W        W88085  15.115   8.956  13.812  0.2897  0.3308  0.3133
45070W        W88086   7.510   6.373  20.455  0.3384 -0.0772  0.1382
45071W        W88087  15.173   0.806  21.714 -0.0465  0.0154 -0.0736
45072W        W88088  27.962  30.255   0.977  0.0870  0.2052  0.0951
45073W        W88089  23.376  32.443  16.512 -0.2555 -0.0837  0.0473
45074W        W88090  12.405  33.335  20.036  0.1437  0.1203  0.1922
45075W        W88091  13.414  21.659  26.125 -0.0827  0.2092 -0.0147
45076W        W88092  19.866  17.897   4.365  0.2775  0.1350  0.0037
45077W        W88093   4.414  22.357  18.471  0.2265 -0.1454  0.1962
45078W        W88094  20.629  18.024  14.611 -0.0052 -0.0797 -0.1606
45079W        W88095  13.753   0.542  17.568 -0.3639 -0.1529  0.2010
45080W        W88096  22.616  26.504  19.291 -0.1711  0.0141  0.0530
45081W        W88097   3.528   8.129   7.464  0.0073 -0.2262 -0.1163
45082W        W88098   7.011  25.073  24.411  0.0915  0.2121  0.0230
45083W        W88099  28.077  30.498   5.505 -0.0749 -0.0389 -0.1000
45084W        W88100  17.388   3.581  19.638  0.2758 -0.1513 -0.4948
45085W        W88101  29.755  17.546  14.572 -0.4879 -0.0468  0.0855
45086W        W88102  33.992  14.053   3.503  0.1588  0.4174 -0.1062
45087W        W88103  34.277  23.038  23.305  0.2225  0.1573 -0.0517
45088W        W88104  16.704   5.743  28.415 -0.1245  0.0281  0.3225
45089W        W88105  12.545  28.413  19.077 -0.1232 -0.1473  0.1398
45090W        W88106   4.496  28.069   5.968 -0.3499 -0.3312 -0.3870
45091W        W88107   8.699  11.920  13.809  0.1740  0.1416  0.0673
45092W        W88108  17.604  31.872  28.010 -0.0108  0.0848  0.1319
45093W        W88109  29.042  24.048  26.549  0.0698  0.1671 -0.1022
45094W        W88110  28.662  23.854   4.592  0.0499 -0.0844 -0.1043
45095W        W88111   2.451  12.604  21.694 -0.0515 -0.1029 -0.1146
45096W        W88112   4.673   6.947   1.429 -0.1342 -0.2351 -0.0438
45097W        W88113  10.872  17.930   6.660 -0.4836  0.0266  0.0274
45098W        W88114  23.773  13.330  19.209 -0.1487 -0.3069  0.0639
45099W        W88115  14.511   5.338  27.542  0.2504 -0.0320  0.1448
45100W        W88116   6.058  14.033  22.170 -0.2809 -0.2471 -0.1383
45101W        W88117  15.452  10.239  16.639  0.2080  0.0817 -0.0150
45102W        W88118  29.336  22.280   7.165 -0.0630 -0.2898  0.1570
45103W        W88119  34.373  17.453  15.176  0.4082 -0.0089  0.5552
45104W        W88120   2.302  24.462   8.211  0.0433 -0.1179 -0.2150
45105W        W88121   3.373  14.611  18.651 -0.0259 -0.2815  0.0781
45106W        W88122   8.514   9.314  26.254 -0.3347 -0.2648 -0.2671
45107W        W88123  24.017   2.030   3.867 -0.1133 -0.2364  0.3687
45108W        W88124   4.068  26.563  18.046  0.0060  0.1468 -0.1312
45109W        W88125  16.499   5.934  20.726  0.2222 -0.0703 -0.1170
45110W        W88126   5.434  12.372   3.037 -0.1167  0.0351  0.4064
45111W        W88127   7.896  25.977   3.221  0.1408  0.0085  0.0990
45112W        W88128  10.254   8.845  24.356 -0.0636  0.3310 -0.0926
45113W        W88129  14.507  18.036  27.599  0.0347  0.1629  0.0881
45114W        W88130  24.752   8.681   2.805  0.1619 -0.2075 -0.0267
45115W        W88131  17.810  16.439   0.401 -0.1399 -0.1887 -0.1000
45116W        W88132   6.529  22.814  20.123 -0.0814 -0.1575 -0.2886
45117W        W88133  25.206  14.209  22.189 -0.1591  0.1018  0.1633
45118W        W88134   7.109  27.346  22.964  0.1607 -0.0332 -0.1439
45119W        W88135   8.672   7.394  20.990  0.1018  0.2336 -0.2768
45120W        W88136  20.365  29.565   7.394 -0.2249 -0.2203  0.0892
45121W        W88137   2.314  18.184   4.839 -0.0416 -0.2388 -0.1280
45122W        W88138   9.943  27.007   1.479 -0.0168 -0.1383 -0.0390
45123W        W88139  11.587  10.034  17.417 -0.1071 -0.2174  0.1640
45124W        W88140  10.034  11.271   4.479 -0.0386 -0.0939  0.0228
45125W        W88141   5.779  29.579  28.800  0.0250 -0.0310 -0.1481
45126W        W88142  34.602  16.774   3.745  0.1865  0.0925 -0.0847
45127W        W88143  23.329  15.141  21.917  0.1295 -0.1493  0.0384
45128W        W88144  20.097  12.416  19.439  0.0085 -0.1977  0.1671
45129W        W88145  26.973  17.505  17.718 -0.0945 -0.2267 -0.2488
45130W        W88146   4.274  15.749  17.539 -0.1923  0.0626  0.2769
45131W        W88147   9.360  33.211  14.825 -0.0570 -0.0760 -0.2360
45132W        W88148   4.961  16.144  24.816 -0.1987 -0.0208  0.1632
45133W        W88149  16.465  27.401  16.903 -0.0774  0.0107 -0.2350
45134W        W88150   9.431  19.220  23.200  0.0052 -0.1106  0.0209
45135W        W88151  14.767  19.029  12.414 -0.0055  0.0877 -0.2870
45136W        W88152   1.982   8.382   0.656 -0.2283  0.0003  0.0180
45137W        W88153  14.536  15.899  14.399 -0.3156 -0.2616  0.1069
45138W        W88154  18.550  17.829  14.688  0.1353  0.2046  0.2542
45139W        W88155  12.088  34.160  29.060 -0.0369 -0.0385  0.1678
45140W        W88156   7.223  12.335  16.703 -0.1391  0.2913  0.5853
45141W        W88157   2.413  16.603  15.057  0.0361  0.0370  0.0379
45142W        W88158  12.768  20.668  19.660  0.1049 -0.1065  0.0325
45143W        W88159  34.042  20.050  18.411 -0.0980  0.1154  0.2541
45144W        W88160  13.941   2.370   3.031 -0.0683 -0.0529  0.1113
45145W        W88161  12.622  25.490  15.514  0.1763 -0.0520  0.3941
45146W        W88162  16.533  10.500  16.836 -0.1609 -0.0709 -0.0234
45147W        W88163  27.176  13.472  18.990 -0.1986 -0.0327  0.3407
45148W        W88164   7.490  23.940  23.339  0.1245  0.1433 -0.1054
45149W        W88165   6.984  13.251  20.006  0.0921  0.0183  0.0839
45150W        W88166  29.583  20.329  28.105  0.0278  0.0127  0.0619
45151W        W88167  26.094   7.068  28.763 -0.1455  0.4284 -0.0085
45152W        W88168   3.209  16.317  26.667  0.0424  0.0158 -0.3794
45153W        W88169  17.188  27.127  14.795  0.2475  0.1424  0.0329
45154W        W88170   9.246   4.490   5.990 -0.0039  0.1111 -0.1100
45155W        W88171  20.415   1.305  24.476 -0.0552 -0.0201 -0.2247
45156W        W88172  32.398  28.769  20.457 -0.2011 -0.2060  0.0211
45157W        W88173  13.052  14.464  21.403  0.4490  0.1735 -0.3394
45158W        W88174  11.922  27.377  21.199  0.0234 -0.2228 -0.0353
45159W        W88175  27.563  25.427  18.078 -0.0512 -0.0357  0.0582
45160W        W88176  27.157  18.319  21.271  0.2981  0.2111  0.1019
45161W        W88177   8.396  21.958  13.542  0.3506  0.1105 -0.2540
45162W        W88178  33.497  12.543  18.067  0.3511  0.1381  0.1982
45163W        W88179   5.201  22.901   7.757 -0.2429 -0.2757 -0.2338
45164W        W88180  10.483  17.990  18.328 -0.2813  0.0558 -0.0989
45165W        W88181  30.978  12.066   8.034 -0.2088 -0.1796 -0.0339
45166W        W88182  14.626  33.335  27.455  0.0854  0.2322 -0.1610
45167W        W88183   2.377  29.061  22.238 -0.2781  0.3035  0.1482
45168W        W88184  25.753  17.004  17.013 -0.1807 -0.0081  0.1548
45169W        W88185  31.155  18.708  23.290 -0.0689 -0.1350  0.1937
45170W        W88186  12.332  25.038  23.406 -0.0029  0.1524 -0.3254
45171W        W88187  11.197  27.295   0.874 -0.3164  0.1265  0.0650
45172W        W88188  15.984  23.199  17.531 -0.0617  0.0240 -0.3703
45173W        W88189   2.541  16.749  24.621 -0.0426 -0.1806 -0.2468
45174W        W88190  22.367  24.151  22.657 -0.2561  0.1537  0.2043
45175W        W88191  11.039  24.063  21.508  0.0393 -0.2575 -0.1464
45176W        W88192  29.350  17.199  24.032 -0.2277  0.3631 -0.0383
45177W        W88193   4.365  19.437   6.268 -0.3168  0.0947  0.3474
45178W        W88194   3.477  20.052  21.649 -0.1510  0.1533  0.3047
45179W        W88195   3.331  19.177  22.119 -0.2597  0.0759  0.0906
45180W        W88196  28.665  27.601   0.576 -0.0579  0.1803  0.0561
45181W        W88197   8.494  13.188   0.157  0.0641 -0.1290  0.2396
45182W        W88198  15.243   7.510   6.915  0.4574  0.1321  0.0853
45183W        W88199   6.689  33.454  16.627  0.0607 -0.0268 -0.2604
45184W        W88200   5.109  10.409  24.870  0.1936 -0.1157  0.1495
45185W        W88201   4.700  26.588   7.378 -0.3252 -0.0471 -0.0873
45186W        W88202  34.566   6.663   2.689  0.0101  0.3179  0.1688
45187W        W88203  29.066  14.970   5.995  0.1318 -0.1102 -0.1621
45188W        W88204  24.336  12.816  20.694  0.1144  0.1526  0.0166
45189W        W88205  12.926  12.876   5.482  0.0589 -0.2951 -0.0712
45190W        W88206   6.736  14.688  21.877  0.0124 -0.0696 -0.3680
45191W        W88207  27.775   1.322  22.794 -0.1037  0.1897 -0.1793
45192W        W88208  11.053  20.596  24.386  0.0254  0.3202 -0.1543
45193W        W88209  10.680  20.779  27.979 -0.0055  0.3169  0.0603
45194W        W88210   1.888  27.771   0.410  0.0158 -0.2425  0.2518
45195W        W88211   9.530   2.043  15.515  0.1567 -0.0544  0.1686
45196W        W88212  26.483  10.624   7.372  0.1693 -0.3459  0.4162
45197W        W88213   5.258  26.283  20.798 -0.0331 -0.1387  0.0448
45198W        W88214   6.463  11.102  20.216 -0.1737 -0.0485  0.1837
45199W        W88215  34.078  14.803   5.409  0.0894  0.0004 -0.3583
45200W        W88216  32.591  32.615  16.628  0.0408  0.1360 -0.2281
45201W        W88217  34.018  15.466   0.762 -0.2151 -0.2703  0.3482
45202W        W88218  27.486  21.148  18.354 -0.1767  0.1010 -0.3601
45203W        W88219   9.477   0.075  19.474 -0.0792 -0.1468  0.2210
45204W        W88220   4.286  32.050  14.359 -0.1075  0.0911 -0.3947
45205W        W88221  10.184  13.225  26.579 -0.0187 -0.2118 -0.1501
45206W        W88222  32.487  25.074  26.057 -0.1036 -0.0141  0.1140
45207W        W88223  11.672   3.080  20.053 -0.1087  0.2398  0.3212
45208W        W88224  17.667  17.697  13.045  0.0445 -0.1650  0.1842
45209W        W88225   4.946  19.360  23.021 -0.0671  0.1938 -0.0324
45210W        W88226  16.294  29.815  23.880 -0.2237 -0.0950 -0.1667
45211W        W88227  11.909   9.596   4.681 -0.0321  0.1278 -0.0163
45212W        W88228  28.775  13.608  18.997  0.0599  0.0714  0.4130
45213W        W88229  10.634  10.873   0.797 -0.1279 -0.1499 -0.2340
45214W        W88230   5.314  17.208   1.787 -0.2608 -0.1780  0.5368
45215W        W88231  25.228  13.428   5.554  0.0408 -0.1280  0.4713
45216W        W88232   5.048  19.305  18.653 -0.0413  0.0981  0.2406
45217W        W88233  26.274   2.998  24.796 -0.1804 -0.2295  0.0733
45218W        W88234  20.377  17.527  27.055 -0.0911 -0.2146 -0.1874
45219W        W88235  28.996  33.350   5.216  0.1843  0.1267 -0.4515
45220W        W88236   8.829  21.351  16.194 -0.0796 -0.0249  0.2640
45221W        W88237   7.261  16.639  12.648 -0.0491 -0.0978 -0.2178
45222W        W88238  26.557   3.716  25.241 -0.2880 -0.0702 -0.3891
45223W        W88239  10.546   9.513  20.589 -0.3237  0.0848 -0.1328
45224W        W88240  32.430  13.921  20.811  0.0629 -0.3209 -0.2251
45225W        W88241  34.674  24.317   8.347 -0.0653 -0.4450 -0.0479
45226W        W88242   3.117  17.241  25.481 -0.1129  0.0736 -0.1333
45227W        W88243  11.430  17.744  23.302  0.1436 -0.3821  0.0092
45228W        W88244   8.644  23.209  26.813 -0.3192 -0.0173 -0.0538
45229W        W88245   3.162  25.512  18.480  0.0165 -0.1584  0.2348
45230W        W88246  23.215  19.287  21.817  0.1205 -0.2161 -0.2967
45231W        W88247  30.029  32.776  21.040  0.0210 -0.2828 -0.2352
45232W        W88248   4.112  12.638   6.443 -0.1836 -0.2111 -0.1053
45233W        W88249  11.790  19.704  13.096  0.1272  0.1109  0.1398
45234W        W88250  11.647   2.801  26.350  0.0837 -0.3184  0.5310
45235W        W88251   4.822  23.658   5.191  0.1895  0.1806  0.0432
45236W        W88252   8.562  15.847   8.915 -0.3257  0.0174  0.2398
45237W        W88253   6.767   9.554  27.001 -0.7879 -0.1388 -0.0955
45238W        W88254   1.621  20.620  23.591  0.0573  0.0127  0.3068
45239W        W88255  14.943  28.762   2.263  0.2331  0.1417  0.0484
45240W        W88256   3.473  26.098  28.373  0.0588  0.1047  0.0121
45241W        W88257  31.030   8.867  20.610 -0.0774  0.1006 -0.0126
45242W        W88258   1.893  12.020  22.399 -0.0431 -0.3162  0.0548
45243W        W88259  16.398  27.464   8.851  0.1191  0.2711  0.1564
45244W        W88260  27.019   9.353  25.773  0.0051  0.1626 -0.1091
45245W        W88261   9.678  29.940  21.898 -0.1781 -0.0743  0.0327
45246W        W88262   5.724  16.663  13.277  0.1210 -0.1083  0.5628
45247W        W88263  18.564  17.711  23.082  0.2028 -0.0712 -0.0649
45248W        W88264  16.520   9.463   2.894  0.2779 -0.1974  0.2556
45249W        W88265  12.218  12.403  21.750 -0.3116  0.0860 -0.2930
45250W        W88266  15.382  19.936   1.794  0.2730 -0.2099  0.1171
45251W        W88267  11.718  29.813  16.516 -0.0223 -0.0404 -0.0369
45252W        W88268  18.548  25.855   8.388  0.2453  0.2150 -0.1283
45253W        W88269  12.739  19.561  25.114  0.1310  0.1208 -0.0540
45254W        W88270   2.245  29.958   5.961 -0.0616  0.1978 -0.3380
45255W        W88271  25.379   5.946  28.711  0.1942  0.1499  0.0999
45256W        W88272  24.046  20.453  25.716 -0.4333  0.2099 -0.2040
45257W        W88273   7.389  16.750  24.969  0.1797 -0.1524  0.0378
45258W        W88274  22.426  26.769  16.989  0.0993  0.1611 -0.1233
45259W        W88275   0.120  25.475  14.437  0.2496  0.1446  0.1906
45260W        W88276  17.492  10.339  17.132  0.2703  0.0135 -0.2007
45261W        W88277  12.718  31.377  27.593 -0.0265 -0.3220  0.1103
45262W        W88278   9.710  16.891   9.555 -0.1298 -0.0013  0.1231
45263W        W88279   2.207  24.843  17.206  0.1646  0.1136 -0.3890
45264W        W88280   8.057  21.242  27.491  0.1388 -0.1484 -0.0545
45265W        W88281  23.560  16.889  18.759 -0.1853  0.4002  0.4578
45266W        W88282  34.311  33.384  15.972  0.1199 -0.1872  0.1274
45267W        W88283  31.560  34.711  23.514 -0.0924 -0.3615  0.3782
45268W        W88284  24.568  25.449  15.660  0.0887  0.1347 -0.0422
45269W        W88285  11.678  22.824  20.794  0.3994 -0.0572  0.0584
45270W        W88286  19.018  32.868  20.210  0.2554  0.1080 -0.0159
45271W        W88287  15.835  33.831  25.478 -0.1331  0.1046  0.0444
45272W        W88288   0.967   9.987   8.744  0.2316  0.2994  0.1644
45273W        W88289  12.347  18.802  21.923  0.0817  0.1656 -0.0170
45274W        W88290  23.239  13.252  17.234  0.0410 -0.3490 -0.1879
45275W        W88291  24.167   6.868  25.787  0.0190 -0.0082  0.3172
45276W        W88292   2.783  27.162  25.686  0.0960 -0.0224 -0.1500
45277W        W88293  23.309  27.103  20.064 -0.0264  0.1032  0.2401
45278W        W88294  17.224  17.756   1.125  0.2344  0.0731  0.1253
45279W        W88295  14.365  33.136   2.359  0.0919 -0.0739 -0.0546
45280W        W88296  21.563  24.314  18.013  0.4279 -0.0913 -0.0307
45281W        W88297   7.052  23.785  21.349  0.1218  0.2013  0.0115
45282W        W88298  19.056  30.172   0.872 -0.2656 -0.2362 -0.1432
45283W        W88299  30.936   9.622   5.930 -0.2413  0.1991  0.2168
45284W        W88300   5.341   2.054   5.273 -0.1280  0.0550  0.1861
45285W        W88301   1.051  18.658  20.141  0.2873  0.0920  0.0608
45286W        W88302   9.791  13.355   6.685  0.1080  0.3337 -0.1263
45287W        W88303   3.960  19.500   9.778  0.0688 -0.2181  0.0922
45288W        W88304   9.755   3.063   8.705 -0.2396  0.0875  0.1655
45289W        W88305  16.909   9.046  28.123 -0.0405 -0.2994 -0.0882
45290W        W88306  22.167  28.933  15.422  0.0975  0.0940 -0.0211
45291W        W88307  31.913  18.189   8.942  0.2321 -0.4962  0.3061
45292W        W88308  18.979  13.777   6.685  0.0218  0.2805 -0.0978
45293W        W88309  29.361  28.814  24.990 -0.1837  0.1597  0.0757
45294W        W88310  22.578  16.730   5.536 -0.2506  0.3483 -0.0273
45295W        W88311   3.570   7.062   9.675 -0.0227 -0.0692 -0.0295
45296W        W88312  23.452  21.877  28.738  0.0345 -0.2766  0.0488
45297W        W88313  12.487  21.653  23.399 -0.0612  0.0957  0.3013
45298W        W88314  21.763  22.418  27.548  0.0984  0.2280  0.2453
45299W        W88315  32.225   2.217  24.274  0.0773 -0.0518 -0.1135
45300W        W88316   9.115  22.497  27.910  0.2001  0.2032 -0.1988
45301W        W88317  25.939  23.081  23.908  0.2020 -0.1255  0.1698
45302W        W88318  16.424  30.749   8.878  0.0005 -0.1359  0.1458
45303W        W88319  13.870   3.204  13.967  0.0456  0.3669  0.0765
45304W        W88320   8.777  18.004   2.244 -0.1776  0.0014 -0.0138
45305W        W88321  14.472   9.838   8.191 -0.1215 -0.1617  0.2530
45306W        W88322   8.329  26.063  18.819  0.4515 -0.1195  0.0630
45307W        W88323  28.700  29.240  23.331  0.0532 -0.0252  0.1779
45308W        W88324   6.833  12.960   8.274  0.1417  0.3264  0.0838
45309W        W88325   4.959  21.313  23.580  0.3844 -0.0228  0.0330
45310W        W88326  11.324   9.414   8.427 -0.0456 -0.1979 -0.0140
45311W        W88327   3.398  15.381   1.907 -0.0378 -0.0825 -0.1544
45312W        W88328   1.980  24.803  26.099 -0.2175  0.0175 -0.1495
45313W        W88329   8.309  18.324  13.302 -0.0063  0.1779  0.1158
45314W        W88330  11.754  23.326   7.872 -0.1391  0.2550 -0.0623
45315W        W88331  11.756  20.676  13.581 -0.0531  0.1148  0.0351
45316W        W88332   5.180  29.493   7.762 -0.0155 -0.0505  0.1001
45317W        W88333  20.288  10.049  13.911  0.1252  0.3388  0.1043
45318W        W88334  10.313  19.187  19.774 -0.1215  0.0659 -0.1825
45319W        W88335  16.306  28.730  23.793 -0.1596 -0.0760 -0.2029
45320W        W88336  13.161  27.836  13.692 -0.1399 -0.1761  0.0161
45321W        W88337  10.127  17.925  19.018  0.1190 -0.0862  0.1321
45322W        W88338   4.041  22.302   6.476 -0.1015  0.0615 -0.0513
45323W        W88339  29.862  14.219  20.303  0.2160  0.1051 -0.3264
45324W        W88340  17.183  24.975  25.229 -0.3180  0.0318 -0.1740
45325W        W88341   7.139   7.655  14.870  0.0726 -0.0964  0.2444
45326W        W88342  12.721  32.856  16.178  0.0378  0.1972  0.0203
45327W        W88343  32.690   4.636   8.900  0.1322 -0.2866 -0.4027
45328W        W88344  10.872  24.353  27.625  0.1961 -0.1728 -0.1082
45329W        W88345   6.734  27.641   2.584  0.0233 -0.0451  0.0578
45330W        W88346  12.203  19.158  25.899  0.2795 -0.2462  0.2175
45331W        W88347  29.649  10.984  14.884 -0.0159  0.0294 -0.3007
45332W        W88348   8.180  28.044   6.005 -0.2164  0.0352 -0.5390
45333W        W88349  30.031  26.406  21.932 -0.0957 -0.1279 -0.2677
45334W        W88350  10.867  18.542  27.450  0.0607 -0.1824 -0.5032
45335W        W88351  17.077  16.707  11.442  0.0488 -0.0356 -0.1814
45336W        W88352  15.974  11.741  15.848  0.4130 -0.0723 -0.3212
45337W        W88353  12.873  10.819  24.888  0.1287 -0.0673 -0.2042
45338W        W88354   9.277   2.958  16.286 -0.0287  0.0726  0.2093
45339W        W88355  14.182  15.863  27.954 -0.1997 -0.1808  0.0621
45340W        W88356   1.896  28.737   2.059  0.0873 -0.0457  0.0009
45341W        W88357  12.400   0.379  18.390 -0.1638 -0.0333  0.0240
45342W        W88358   6.472   5.172  22.641 -0.0919  0.0081  0.1831
45343W        W88359  21.786   6.192  21.756 -0.3561 -0.2346 -0.0533
45344W        W88360  19.760  22.330   1.856 -0.1464  0.3155 -0.3128
45345W        W88361   8.835  25.592  21.159 -0.1955  0.0108 -0.1824
45346W        W88362  15.413  26.637  21.738 -0.0177  0.2674  0.0414
45347W        W88363   4.958  16.612  20.088  0.1480 -0.2176  0.3172
45348W        W88364   2.104  12.856  26.012  0.1581 -0.1139  0.1336
45349W        W88365   4.217  18.810   5.660 -0.1634 -0.1297 -0.1388
45350W        W88366  11.925  16.306   0.488 -0.0081  0.0313  0.1525
45351W        W88367   5.482  29.282  14.575  0.2987  0.0983  0.0918
45352W        W88368   0.150  28.301  23.551  0.0791  0.0480  0.1376
45353W        W88369  30.588   5.370   6.505  0.0408 -0.1046  0.2499
45354W        W88370  15.953  28.909   6.984 -0.0416  0.2717  0.2038
45355W        W88371  10.698  24.590  23.935 -0.2680 -0.0601 -0.1057
45356W        W88372   0.240  16.792  20.750  0.1740 -0.2343  0.0401
45357W        W88373  11.589  11.105   3.963  0.5231 -0.1623  0.0398
45358W        W88374  27.265  14.626  21.970  0.3577  0.2962  0.0087
45359W        W88375  15.067  18.135   7.881  0.1396  0.0127 -0.1609
45360W        W88376  21.772   0.017   2.544  0.1882  0.0463  0.1207
45361W        W88377  10.010   4.572   2.300  0.0243  0.1257  0.2751
45362W        W88378  28.400  31.278   9.748  0.0756 -0.3839 -0.1817
45363W        W88379   4.090  12.687  22.540  0.1221 -0.2093  0.0880
45364W        W88380   0.888  10.839  10.760 -0.1059 -0.2395 -0.1680
45365W        W88381   3.373  34.678  14.329 -0.1732  0.0686  0.2286
45366W        W88382   9.736  29.134  29.056  0.0238  0.1498  0.0197
45367W        W88383  13.429  30.049  15.257 -0.0390  0.4929 -0.1032
45368W        W88384  17.170  17.137  14.739 -0.3195  0.1105  0.2499
45369W        W88385  10.492  31.758  17.673 -0.1628  0.2318  0.1243
45370W        W88386  19.680   3.671   3.625  0.0875  0.0074  0.4728
45371W        W88387  22.733  16.945   0.465 -0.0199  0.1766 -0.3084
45372W        W88388   0.682   6.165  26.610 -0.1310 -0.0316 -0.0597
45373W        W88389  14.086  21.916  17.131 -0.3635  0.0639  0.0792
45374W        W88390  25.243   9.735  20.692 -0.1109 -0.2167  0.1341
45375W        W88391   6.340  10.105   0.133  0.2584  0.0439  0.1265
45376W        W88392  14.066  17.453  19.807  0.0214 -0.0469 -0.1422
45377W        W88393   7.654  18.580  17.830 -0.1774  0.0236 -0.1416
45378W        W88394  32.934  16.302   3.764 -0.1990 -0.2998  0.3269
45379W        W88395   2.518   8.886   7.201  0.0554 -0.2018  0.2362
45380W        W88396  20.377  12.036  14.087 -0.1502  0.1549 -0.1599
45381W        W88397  13.799   0.902  26.916  0.0224  0.0400  0.2752
45382W        W88398   5.821  12.871   6.038 -0.0458  0.1021 -0.0494
45383W        W88399  18.257  14.702   1.628 -0.1973 -0.1407  0.0197
45384W        W88400  18.149  33.087  26.925  0.1714  0.4147  0.2845
45385W        W88401  11.019   2.766  24.906  0.1149 -0.0089  0.1090
45386W        W88402  33.835  25.613  20.628 -0.3170  0.4741 -0.0818
45387W        W88403   8.739  33.797  17.280 -0.2453  0.2400  0.2416
45388W        W88404   1.769   7.275  22.768 -0.0659  0.0407  0.0636
45389W        W88405   3.206  20.812  25.301  0.0691  0.0252  0.2376
45390W        W88406   7.053  17.203  16.712  0.0193 -0.0188  0.0165
45391W        W88407  10.108   2.863  21.844  0.0050  0.0058  0.2829
45392W        W88408   8.785   6.302   8.041 -0.0774  0.2722  0.0326
45393W        W88409  11.676  15.996  20.995 -0.0370 -0.4718  0.0664
45394W        W88410  10.596   5.113  27.127 -0.2693  0.2068  0.0270
45395W        W88411  23.216  33.356  20.305  0.1964  0.2597  0.1167
45396W        W88412  16.403  27.435  26.756 -0.0471  0.2221 -0.0248
45397W        W88413   3.354  17.989  23.926 -0.1092 -0.2648  0.0018
45398W        W88414  25.965  14.152  16.980 -0.1950  0.1191 -0.3019
45399W        W88415  13.847  28.991  21.888 -0.0296  0.0677 -0.0614
45400W        W88416   5.763   2.703   1.091  0.2243  0.3361  0.0778
45401W        W88417  13.029  14.569  24.881  0.0190  0.3421  0.0523
45402W        W88418   8.472  24.607  20.189  0.1696 -0.0941  0.0682
45403W        W88419  22.222  23.187  20.511  0.0481  0.1408  0.1255
45404W        W88420  23.451  13.546   0.662  0.0145 -0.2780 -0.3026
45405W        W88421  16.348   9.101  27.249 -0.3494 -0.1976 -0.0005
45406W        W88422   2.409   7.788  23.234 -0.2350 -0.3553 -0.1192
45407W        W88423   3.718  23.535  15.953 -0.0865  0.1123 -0.1793
45408W        W88424  19.408  13.415   6.589  0.1814 -0.2467 -0.0280
45409W        W88425  19.714  32.299  29.180 -0.2031 -0.3823  0.0585
45410W        W88426   7.260  30.242   3.638 -0.0838  0.0784 -0.0122
45411W        W88427  13.528  26.405  21.966 -0.0397 -0.0094 -0.0346
45412W        W88428   9.966  26.626  21.990 -0.0100 -0.0097  0.1803
45413W        W88429  17.245  22.166  20.295 -0.1429  0.0765 -0.2178
45414W        W88430  31.642  16.427  17.606  0.1674  0.2982  0.1290
45415W        W88431  14.267  26.518  27.683  0.0744 -0.1341  0.4813
45416W        W88432   3.514  13.237  23.812  0.1652  0.1540 -0.0230
45417W        W88433  12.144  17.823   3.645 -0.1023 -0.0929  0.0970
45418W        W88434  34.221  29.615  23.078 -0.1353  0.1423  0.1938
45419W        W88435   4.327  23.882  24.997  0.0190 -0.3537  0.2866
45420W        W88436  27.327  23.443   2.057  0.1017  0.1973 -0.0113
45421W        W88437  25.358  24.715  18.705  0.0161  0.0588 -0.0253
45422W        W88438  33.352  25.076  19.101 -0.0129  0.3233  0.2238
45423W        W88439  13.549  11.321   4.939 -0.0166 -0.0442  0.1401
45424W        W88440  29.803  20.715  26.231 -0.0948 -0.1444  0.3801
45425W        W88441   4.806  10.644  15.321  0.1053  0.1200 -0.1059
45426W        W88442   2.465  28.745  23.529  0.0771 -0.2460 -0.2002
45427W        W88443   6.090  29.082  20.881  0.0196 -0.0067  0.1643
45428W        W88444  10.996  28.335  29.315 -0.1585 -0.2476 -0.0143
45429W        W88445   3.224   5.162  22.876 -0.0784  0.1258  0.2015
45430W        W88446  32.940  30.371  26.162 -0.0775  0.1511  0.0067
45431W        W88447  11.982  25.574  25.610 -0.0500 -0.1611  0.1939
45432W        W88448  16.685  15.984   0.868 -0.0632  0.2281 -0.0347
45433W        W88449   0.205  26.811   3.712  0.0113  0.1956 -0.1186
45434W        W88450   8.696  21.644  16.743 -0.0180  0.0914 -0.0445
45435W        W88451   8.223  22.008  21.188 -0.0864 -0.1839 -0.3543
45436W        W88452  29.574  14.550   4.758  0.2223 -0.1147 -0.1424
45437W        W88453  19.753  14.884   6.172 -0.0450  0.1279 -0.3112
45438W        W88454  34.537   3.049   2.135  0.2378 -0.2288 -0.1739
45439W        W88455  25.238  20.880  23.415 -0.2005 -0.1606  0.0108
45440W        W88456  17.496   0.712   9.775  0.1178  0.1595  0.0081
45441W        W88457   7.957   9.558  28.350  0.1012 -0.1868 -0.0209
45442W        W88458   9.556  29.771   3.170  0.2049 -0.2616 -0.0981
45443W        W88459  12.664  21.130   0.139  0.5711  0.0718 -0.1655
45444W        W88460  31.817  21.169  17.468 -0.4001  0.2047 -0.3823
45445W        W88461  10.764  15.142  22.145  0.0766  0.1912  0.2178
45446W        W88462  23.625   7.833   3.833  0.0867 -0.4108 -0.2304
45447W        W88463   1.231  23.272  23.734 -0.1438  0.0090 -0.2308
45448W        W88464  21.787  23.862  28.064  0.0986  0.2470  0.1426
45449W        W88465   5.463   1.427   7.494 -0.0622 -0.1236 -0.0586
45450W        W88466   1.332  13.532  25.151  0.0714  0.0655  0.3812
45451W        W88467   4.949  28.240   7.202  0.1589 -0.0191  0.2611
45452W        W88468  11.760  24.518  26.429 -0.1028  0.3305  0.1072
45453W        W88469  14.485  33.152   3.295 -0.0582  0.4077 -0.0770
45454W        W88470  24.938  22.591   5.796 -0.0781 -0.1178  0.2061
45455W        W88471   3.716  16.016  27.699  0.0838  0.0600  0.0669
45456W        W88472  17.479   6.333   6.846 -0.0634 -0.2353 -0.0358
45457W        W88473   0.636  13.241   3.618  0.1778 -0.2916  0.1200
45458W        W88474  23.320   9.752  18.735  0.0711  0.1847  0.1797
45459W        W88475   1.711  19.877  18.927 -0.0230  0.1025  0.1102
45460W        W88476   0.359  13.358  18.849 -0.1741 -0.1132  0.2339
45461W        W88477  10.462  32.298  17.188 -0.0323 -0.2531  0.0133
45462W        W88478   8.086  32.403  25.805 -0.2677 -0.1424  0.2671
45463W        W88479   2.299  28.794   8.823  0.0009  0.3494 -0.1834
45464W        W88480  34.721  15.914  20.098 -0.5309  0.0360 -0.0349
45465W        W88481  10.801  15.245  27.950 -0.0741 -0.1588  0.1508
45466W        W88482  13.612  25.479  13.764  0.1757 -0.1819  0.1722
45467W        W88483  14.328  11.729   6.005 -0.1536  0.3555  0.1437
45468W        W88484  23.271  30.705  28.744  0.0477  0.1035 -0.0920
45469W        W88485  16.093  24.976   1.896  0.0275 -0.2451 -0.1663
45470W        W88486  11.360  14.965  28.875 -0.2452  0.1235  0.2858
45471W        W88487   7.963   6.538  21.198  0.0778  0.3340  0.1090
45472W        W88488  31.155  26.372  24.792  0.0223  0.1363  0.0663
45473W        W88489   8.167  23.518  18.140 -0.1313  0.1283  0.1471
45474W        W88490  17.298   3.192  15.894  0.1468  0.0978  0.5444
45475W        W88491  24.633  14.604   4.280  0.1866  0.0193 -0.2371
45476W        W88492   3.420  21.197  19.808 -0.2398 -0.0656  0.4379
45477W        W88493   4.350   4.079   9.870 -0.0588  0.0418 -0.3014
45478W        W88494  34.545  16.608  27.508  0.3359 -0.0702  0.1920
45479W        W88495  10.275  17.459  29.189 -0.2466 -0.1937 -0.1279
45480W        W88496  12.399   3.031  21.912  0.2266 -0.0050  0.1548
45481W        W88497   2.470  22.818   3.615 -0.3229 -0.1215  0.1439
45482W        W88498  32.947  13.726  15.453  0.0444 -0.1541 -0.0018
45483W        W88499  13.828  17.502  19.277 -0.0259  0.6448  0.0974
45484W        W88500  13.934   9.252   1.602  0.0005 -0.0285  0.1039
45485W        W88501   3.855  24.405  28.372 -0.0716 -0.0641  0.0471
45486W        W88502  32.738  31.212   8.872  0.0327  0.3560 -0.2791
45487W        W88503  12.490   7.027   7.122 -0.1061 -0.0642 -0.1715
45488W        W88504  14.094  22.408   0.692 -0.2408 -0.5737  0.0497
45489W        W88505  11.689  19.596  24.169  0.1005 -0.0845 -0.4869
45490W        W88506   0.359  17.507  18.897  0.1849  0.2058  0.3235
45491W        W88507  26.187  22.748  25.382  0.0569  0.0758  0.2401
45492W        W88508  25.390   3.836  21.606  0.0296  0.1813  0.1862
45493W        W88509  12.733  13.138  28.824  0.0375 -0.1393  0.0050
45494W        W88510   1.015  34.419   5.695  0.1124  0.1264 -0.1742
45495W        W88511  14.369  26.692  22.572  0.1907  0.1984  0.1293
45496W        W88512   0.598  13.568   2.281  0.0450 -0.0150 -0.4400
45497W        W88513  34.572   8.045   7.343  0.1040  0.0723 -0.1812
45498W        W88514  19.044  25.004  21.876  0.1685 -0.0031 -0.1230
45499W        W88515  14.442  27.624  18.420  0.0008  0.0830 -0.0088
45500W        W88516  16.351  15.759   2.814 -0.1587  0.0351 -0.4272
45501W        W88517  30.204  23.848  22.778 -0.0876  0.3510 -0.0489
45502W        W88518   9.443  21.415  15.570 -0.2694 -0.1330  0.0820
45503W        W88519  19.537  10.829  25.389 -0.2952  0.0931  0.2233
45504W        W88520  10.126  20.843   4.492  0.3406 -0.1840  0.0979
45505W        W88521   9.359  21.594  16.035  0.0777 -0.2652  0.0301
45506W        W88522   2.926  29.975  23.992 -0.0381  0.0788  0.1870
45507W        W88523   2.703  11.278   4.321  0.1232 -0.0724  0.0466
45508W        W88524   8.042  15.350  19.181 -0.1838 -0.0675 -0.1869
45509W        W88525   7.172  34.694   5.577  0.1536 -0.1463 -0.2011
45510W        W88526  11.734   9.221  24.304 -0.0323  0.2779 -0.3082
45511W        W88527   5.947  28.722   9.291 -0.3411  0.1204  0.0042
45512W        W88528  32.347  12.602  16.551 -0.1492  0.2305 -0.0772
45513W        W88529  14.541  16.826  20.248  0.1191  0.1174  0.0596
45514W        W88530   4.317  12.842  19.374  0.0807 -0.1218 -0.0396
45515W        W88531  33.630  16.147  20.141  0.0812 -0.2825  0.1580
45516W        W88532   4.865  18.021   1.859  0.1434 -0.0751 -0.0779
45517W        W88533   5.685  20.310   8.031  0.1027 -0.1954  0.0871
45518W        W88534   2.253  24.256   2.499  0.0299  0.2336 -0.1316
45519W        W88535  14.157   5.666  24.801 -0.2626  0.2114  0.2357
45520W        W88536  27.892  30.214   7.731 -0.0556  0.0511 -0.3072
45521W        W88537  10.290  28.431   2.752  0.0106  0.1118 -0.2579
45522W        W88538   9.718  12.367   4.604 -0.0156  0.0462 -0.0079
45523W        W88539   5.204  29.591   0.835 -0.0116 -0.2142  0.1085
45524W        W88540  25.112   1.075   4.474 -0.0208  0.0100 -0.0827
45525W        W88541  19.653  14.559  28.227  0.0578 -0.1656  0.0692
45526W        W88542  30.356  27.620   8.980 -0.2235 -0.0267  0.0855
45527W        W88543  14.360  23.171  17.280  0.0841 -0.2501 -0.0662
45528W        W88544   9.174  27.895  25.977  0.0268  0.0847  0.0747
45529W        W88545  20.399  21.506   2.766 -0.1649 -0.1241 -0.2502
45530W        W88546   3.971  17.409   0.110  0.2850 -0.2112  0.0729
45531W        W88547   2.134  27.074  24.153 -0.4663 -0.0049 -0.0429
45532W        W88548  31.519  20.265  28.299  0.0460  0.1026 -0.1625
45533W        W88549  12.052  21.926  23.852 -0.0760 -0.3447 -0.2066
45534W        W88550  21.669  30.258  23.808 -0.1727 -0.1607  0.2536
45535W        W88551  15.912  17.674  19.346 -0.1020  0.1666 -0.3843
45536W        W88552   3.543  27.089  22.932  0.1986  0.0023  0.0234
45537W        W88553  16.098  29.179   4.968 -0.1978  0.2761  0.0135
45538W        W88554  19.962  15.320  25.930  0.1197  0.4512  0.0092
45539W        W88555   1.801  27.440  27.029 -0.0896 -0.0479  0.1277
45540W        W88556  34.274  18.637  17.963  0.2977 -0.0713 -0.2586
45541W        W88557   8.079  27.425  19.990 -0.0050 -0.0768 -0.2110
45542W        W88558   3.797   1.661  28.549 -0.2207 -0.1685  0.1367
45543W        W88559  10.757   1.146   3.163 -0.1993 -0.1157  0.3032
45544W        W88560  16.686  22.604   5.812  0.1898  0.2592  0.0129
45545W        W88561  25.866   5.074  16.304 -0.2696  0.0493  0.1365
45546W        W88562  12.889  25.997  14.104  0.3070  0.3485 -0.2661
45547W        W88563  20.028   8.095   6.285 -0.1363  0.2352  0.3616
45548W        W88564  33.688  24.700  19.422 -0.0403 -0.2584  0.1772
45549W        W88565   8.317  21.230  20.281 -0.1014 -0.0350 -0.0192
45550W        W88566  20.486  13.445  12.322  0.0072  0.1488  0.0236
45551W        W88567  11.921  29.257   6.409  0.1545 -0.0998  0.0531
45552W        W88568   1.103  23.188   8.229 -0.0308  0.2371  0.2166
45553W        W88569  25.979  24.812   1.358  0.0418 -0.1019 -0.2035
45554W        W88570  18.562  34.093  19.557  0.2256  0.0706  0.2837
45555W        W88571   1.499  20.456   4.465  0.1297  0.0526 -0.0339
45556W        W88572  30.791  19.685  21.728 -0.3001  0.0924 -0.1937
45557W        W88573   8.761  18.919  13.033 -0.3139  0.0071  0.1368
45558W        W88574  16.417  27.638  22.287  0.1231  0.0776 -0.0299
45559W        W88575   6.464  13.699  29.311 -0.0524  0.2590 -0.0107
45560W        W88576  14.300   4.859  23.172 -0.0225  0.0017  0.1245
45561W        W88577  30.290  18.933   3.762 -0.0014  0.6338  0.0476
45562W        W88578  23.577  15.531  23.193  0.0551  0.0336  0.2306
45563W        W88579   4.945  21.564  19.056 -0.0326  0.0185  0.0235
45564W        W88580  15.166  30.153  23.889  0.0101  0.3824 -0.2727
45565W        W88581   4.714   6.338  26.139 -0.1244 -0.2318 -0.1019
45566W        W88582   1.571  21.277   4.510 -0.1500  0.0985 -0.0396
45567W        W88583  21.896   7.863  26.846 -0.0577 -0.0220  0.1599
45568W        W88584  31.763  11.915  16.198 -0.1637 -0.4152  0.2273
45569W        W88585  23.529  30.356  18.756  0.0991  0.0517 -0.1889
45570W        W88586  12.853  19.805  23.369 -0.1664  0.0754 -0.1866
45571W        W88587  31.013  28.071   3.601  0.0154 -0.2789 -0.0092
45572W        W88588  28.253  10.381  23.038  0.0412  0.0403 -0.2155
45573W        W88589  26.769  25.618   9.231  0.2690 -0.1115  0.3287
45574W        W88590  25.827  13.788  28.075 -0.0022  0.0764  0.1500
45575W        W88591  34.377  20.545  20.040 -0.0989 -0.0932 -0.2510
45576W        W88592  19.842  15.016  14.127  0.0939  0.1773  0.0217
45577W        W88593   8.731  32.721  25.518  0.0311 -0.2077  0.0286
45578W        W88594   7.672  22.983   4.166  0.2354  0.0472  0.3745
45579W        W88595  13.704  30.692   5.279 -0.0333  0.1104 -0.0326
45580W        W88596  23.431  16.619   1.037  0.0994 -0.4652 -0.0587
45581W        W88597   1.964  17.155  25.857  0.0548 -0.0588  0.1857
45582W        W88598   1.901  28.118  27.920 -0.2326 -0.0634 -0.1312
45583W        W88599  33.761  16.392  20.641 -0.0359  0.1822 -0.3097
45584W        W88600  29.467  14.743  20.267 -0.0590 -0.1110  0.1789
45585W        W88601  23.955  33.181  23.451  0.1586  0.0524  0.0734
45586W        W88602  19.791   4.245  16.780 -0.0128  0.1004  0.0013
45587W        W88603   8.582  25.753  22.172  0.1858  0.0327 -0.0760
45588W        W88604  17.958  10.060  17.041  0.0512 -0.0361  0.0081
45589W        W88605   6.550  16.538  13.537  0.1517 -0.0237  0.3348
45590W        W88606   1.631  15.105  22.451 -0.2796  0.1682 -0.0868
45591W        W88607  11.838  24.263  19.161  0.0510 -0.1021 -0.0269
45592W        W88608   2.838   9.370   2.213  0.0865 -0.0509 -0.0205
45593W        W88609   0.027   8.320   3.549 -0.3342  0.2318 -0.0407
45594W        W88610  13.443   9.122  25.669  0.0871  0.2960  0.0885
45595W        W88611   4.421  26.211  21.930 -0.1057 -0.1332 -0.0328
45596W        W88612   7.807  22.060   2.952 -0.1336  0.3136  0.0150
45597W        W88613  11.052   9.708  22.143 -0.0470 -0.1816  0.0219
45598W        W88614  15.589  17.884  25.444  0.0717  0.1092 -0.0534
45599W        W88615  13.196  16.130  11.700  0.1757 -0.0790 -0.0599
45600W        W88616   2.590  28.355  19.741 -0.1204  0.1128  0.3026
45601W        W88617   0.741  15.196  21.197 -0.2661  0.1346  0.0527
45602W        W88618   1.165   5.393  26.758 -0.2652  0.0536  0.1087
45603W        W88619  14.197  10.276  15.200 -0.2188  0.0166  0.1939
45604W        W88620  18.897  11.453  12.573 -0.0232 -0.0386 -0.0732
45605W        W88621  22.819  18.101  29.142 -0.1443 -0.0915  0.0139
45606W        W88622  10.504  13.947  16.670 -0.1398 -0.2007 -0.0450
45607W        W88623  15.843  14.307  21.162 -0.2315 -0.1695  0.0863
45608W        W88624  29.914   2.868  22.657 -0.0829  0.0884 -0.0427
45609W        W88625  20.338  25.143  20.299  0.4743  0.1476 -0.3707
45610W        W88626   2.859   9.098  15.529  0.2046 -0.1343  0.0189
45611W        W88627  21.855  14.366  21.113 -0.2532  0.0778  0.4411
45612W        W88628  31.526  30.988   2.004  0.1383  0.0557 -0.2484
45613W        W88629  14.867  21.067  26.420 -0.1507  0.2825  0.2950
45614W        W88630  18.168  16.726   7.772 -0.2064  0.0632  0.1539
45615W        W88631  20.690   8.483  28.353  0.1503 -0.3510  0.2547
45616W        W88632   9.009  15.636  27.355 -0.0707  0.2031  0.2650
45617W        W88633  27.710   5.993  10.469  0.0693  0.0889  0.1181
45618W        W88634  21.314   1.528   7.125 -0.2213  0.0412 -0.1129
45619W        W88635   8.324   3.119   2.580  0.0452 -0.1169  0.3163
45620W        W88636  25.349  33.278  19.772 -0.1485  0.1297  0.1458
45621W        W88637   8.560  25.039  21.410 -0.1570  0.1267 -0.1248
45622W        W88638  24.570  33.040  27.480  0.0134 -0.0203  0.0698
45623W        W88639   0.867   8.187   2.721  0.1960 -0.2118 -0.2826
45624W        W88640   4.157  26.441   4.753 -0.1196  0.0370  0.2165
45625W        W88641  32.307  19.552  21.606  0.0681 -0.0148 -0.1235
45626W        W88642   1.083  30.164  14.007  0.1545  0.1916 -0.1711
45627W        W88643   8.829  23.225  25.305  0.4189  0.0558 -0.1671
45628W        W88644  12.742  19.855   2.654  0.1051  0.1894  0.1546
45629W        W88645  24.814   1.956  19.266  0.1194 -0.1741 -0.0881
45630W        W88646  33.100  25.237   2.524  0.0152  0.1561 -0.5826
45631W        W88647   8.612  22.894   6.670 -0.2860  0.2751  0.3137
45632W        W88648  15.894  14.014   5.554  0.0938 -0.0270  0.3913
45633W        W88649  16.850  19.487  24.353  0.0285 -0.1937 -0.0336
45634W        W88650  12.805  25.748  18.200  0.2138  0.1889 -0.1374
45635W        W88651  18.395   3.144   0.907  0.1186  0.1731 -0.3664
45636W        W88652  25.528  17.820   5.182 -0.0153 -0.4184 -0.0848
45637W        W88653   2.996   6.757  25.724 -0.3002  0.1454  0.1907
45638W        W88654  15.365  14.281  22.978  0.0007  0.1026  0.0978
45639W        W88655   7.048  33.057  29.297  0.1902  0.1857 -0.0355
45640W        W88656   6.157  20.806  24.494 -0.2214 -0.3122  0.1858
45641W        W88657  15.211  15.073  28.530  0.1037  0.0736  0.0935
45642W        W88658   7.299  15.096  23.059 -0.1834 -0.5967  0.2275
45643W        W88659  13.752  29.229  18.520  0.0869 -0.0711 -0.0070
45644W        W88660  29.279  25.223  21.900 -0.0041  0.1403 -0.3540
45645W        W88661  11.740  26.419  26.680 -0.0959 -0.1717 -0.0832
45646W        W88662  33.573  19.197  25.838 -0.0763  0.0058 -0.0312
45647W        W88663   7.117  34.539  24.377  0.2474 -0.4382  0.0273
45648W        W88664   7.348  31.337   2.825  0.1681 -0.0623 -0.2217
45649W        W88665  12.609   8.618  14.134  0.2155 -0.2394 -0.0210
45650W        W88666  16.765  27.439   2.508 -0.4378  0.1029  0.3704
45651W        W88667   4.329  22.933   8.176  0.0096 -0.1657  0.0594
45652W        W88668  12.752  24.302  20.269  0.0403  0.2012 -0.1039
45653W        W88669  16.818  23.034  14.502 -0.0008 -0.2251  0.0093
45654W        W88670   4.619  14.383   1.323  0.0339  0.2972  0.2874
45655W        W88671  14.493  20.058  20.862  0.0051 -0.0942  0.0746
45656W        W88672  33.921  23.535  15.534 -0.1072 -0.3154 -0.0059
45657W        W88673  12.652  21.860  18.390 -0.0503 -0.1636 -0.2471
45658W        W88674  32.405   4.154  28.420  0.3294 -0.0034 -0.0776
45659W        W88675  11.367  21.311  21.231 -0.0202 -0.0157  0.0789
45660W        W88676   1.295  27.617  22.328 -0.0842  0.1244 -0.0144
45661W        W88677  21.849  29.122  10.362 -0.2089 -0.1311  0.1826
45662W        W88678  19.280  12.022  27.654  0.2245 -0.2746  0.1534
45663W        W88679  17.052  20.660  22.126 -0.0023 -0.1765  0.3649
45664W        W88680  27.853  24.284  28.758  0.0375 -0.2048  0.1494
45665W        W88681   5.812  18.346   5.196  0.3259 -0.1989 -0.1079
45666W        W88682   5.068  31.524  10.118 -0.3022  0.1679 -0.0897
45667W        W88683   3.281  32.502  10.776 -0.1171 -0.1121  0.1656
45668W        W88684  29.608   7.343   5.809 -0.1032 -0.1970  0.2848
45669W        W88685  28.254   9.198  20.544 -0.1016 -0.3300  0.0173
45670W        W88686  14.964  23.686   2.423 -0.0983 -0.0634 -0.0659
45671W        W88687  30.310   4.488  16.714  0.3502 -0.0737 -0.1444
45672W        W88688  11.889  25.029  20.473 -0.1252 -0.2950 -0.4253
45673W        W88689  34.582  33.205   4.650  0.1466  0.3581  0.0023
45674W        W88690  30.988  12.743   5.018 -0.1908 -0.0324  0.0449
45675W        W88691  12.094  15.199   8.783  0.1466 -0.3092  0.2021
45676W        W88692  25.139  29.069   1.994  0.0131  0.1434  0.1777
45677W        W88693  27.308   9.209  28.425  0.0265  0.1796 -0.1914
45678W        W88694   7.950  13.054  23.533 -0.1762 -0.4353 -0.1589
45679W        W88695  15.879   4.933  28.011 -0.4985  0.2577  0.2311
45680W        W88696  24.525  19.167  19.508  0.0897  0.1117  0.2664
45681W        W88697   7.728  10.696  10.427  0.0653  0.1554 -0.0022
45682W        W88698   5.342   7.284  21.639  0.0224  0.1795  0.1928
45683W        W88699  16.107  29.678   5.135  0.0567  0.0214  0.0796
45684W        W88700   8.028  20.939  26.973 -0.2140 -0.1273 -0.2043
45685W        W88701   9.481   8.520  28.151  0.2700 -0.0958  0.0649
45686W        W88702  30.310  29.015  26.556 -0.0262 -0.1149 -0.3028
45687W        W88703   7.337  24.868  15.160  0.4307  0.1418 -0.1691
45688W        W88704   7.579  14.578   8.482  0.0254  0.0244  0.0173
45689W        W88705   8.360  14.188  28.400  0.1620 -0.1237  0.0774
45690W        W88706  20.696   0.673  17.913 -0.4096 -0.2835 -0.0129
45691W        W88707  21.834  11.336   6.556  0.2360 -0.5781 -0.0576
45692W        W88708  32.066  16.975   0.223 -0.1565  0.1338  0.2032
45693W        W88709  31.265  16.125  26.464  0.1149  0.1333  0.1491
45694W        W88710   2.410  28.067  22.335 -0.1250  0.0945 -0.0571
45695W        W88711  15.628  25.661  18.047  0.2855 -0.3685 -0.0482
45696W        W88712   7.834  18.147   1.083  0.1575 -0.1487  0.2273
45697W        W88713  32.970  24.371   1.889  0.0216  0.0384 -0.2001
45698W        W88714  26.964  27.250  26.150 -0.2345  0.2694 -0.1783
45699W        W88715  19.405  27.372   0.665  0.1555  0.4035  0.1632
45700W        W88716   1.256  21.733  15.212 -0.0561 -0.1816  0.1434
45701W        W88717  32.896  20.485   0.673 -0.0843  0.2267 -0.0316
45702W        W88718   6.941   2.141  27.952 -0.2860 -0.6781 -0.2146
45703W        W88719   5.975   0.596  18.900 -0.1047  0.0308 -0.2676
45704W        W88720  16.503  14.098  21.736  0.1919  0.1949  0.0061
45705W        W88721  22.002  15.857  28.597 -0.0437  0.0584  0.3387
45706W        W88722   1.754  13.953  22.039 -0.2996  0.0866 -0.3329
45707W        W88723  10.079  22.146  21.596 -0.0051  0.1681 -0.0528
45708W        W88724  31.525   6.616  28.495  0.2546 -0.0180  0.0726
45709W        W88725  15.690  28.512   2.742 -0.1504  0.0632 -0.1965
45710W        W88726  10.510  19.155  22.579  0.4049  0.0120 -0.0185
45711W        W88727  27.245   3.606  24.826  0.1230  0.2074 -0.0884
45712W        W88728   9.871  18.038   6.679 -0.1028  0.1294  0.0236
45713W        W88729  11.182  21.878   8.679 -0.2136 -0.0288 -0.0767
45714W        W88730  14.069  18.291  13.651 -0.2994 -0.0646 -0.0593
45715W        W88731  11.241  13.885   8.482  0.1008  0.2006 -0.2187
45716W        W88732  17.042  13.576   3.599 -0.2900 -0.1974  0.1384
45717W        W88733  14.501  29.064   7.965  0.0240 -0.0303  0.2592
45718W        W88734  10.239  15.796   1.281 -0.3313  0.3040 -0.0427
45719W        W88735   5.817   7.943  23.507 -0.1002 -0.2956  0.4756
45720W        W88736   4.590  22.098   7.590 -0.1043 -0.1648  0.1842
45721W        W88737   4.003  13.506   5.641 -0.2156  0.1830  0.2320
45722W        W88738  11.159  20.042  25.407  0.1556  0.1147 -0.4046
45723W        W88739   4.817  21.934  20.254 -0.3608 -0.3046  0.1054
45724W        W88740   3.719  33.465  28.677 -0.0448 -0.0082  0.0190
45725W        W88741  11.146  13.099  18.871 -0.0304  0.0838  0.0305
45726W        W88742  34.247  19.348  25.829  0.0334 -0.0688  0.2248
45727W        W88743   9.930  30.550   9.033  0.0296 -0.1651 -0.0810
45728W        W88744   4.826  18.127  27.905 -0.0010  0.4256 -0.0497
45729W        W88745  17.001  23.220   1.006 -0.1211  0.0539 -0.1838
45730W        W88746   9.889  20.926  16.966 -0.2134 -0.0632  0.2373
45731W        W88747  28.124  25.305  20.933  0.0688  0.0217  0.2108
45732W        W88748  32.879  34.476  27.726 -0.0212  0.0552  0.0067
45733W        W88749   6.197  23.261  15.349  0.0738  0.0548 -0.0567
45734W        W88750   5.058  16.611  20.701 -0.0440  0.0079  0.1786
45735W        W88751   0.644  33.254  21.120 -0.3742  0.1316 -0.2565
45736W        W88752  24.971  11.704  25.506 -0.1253  0.1395  0.1477
45737W        W88753   8.023  22.698  21.684 -0.1870  0.1529 -0.0483
45738W        W88754   6.383  11.341  14.882  0.2260 -0.1390  0.0674
45739W        W88755   2.939  23.566  19.074  0.0411 -0.0246  0.1256
45740W        W88756  10.846  19.945  19.129  0.0549  0.0475 -0.3139
45741W        W88757  19.998  27.054  20.253 -0.1688 -0.1698 -0.0462
45742W        W88758   7.904   1.668   1.483  0.3158  0.2543 -0.0081
45743W        W88759   5.936  25.515  26.275  0.0704 -0.3527 -0.1162
45744W        W88760  10.567  34.501  21.246 -0.0473  0.0631 -0.0555
45745W        W88761  31.345  14.969   2.365  0.2992  0.3295  0.2013
45746W        W88762   2.549  14.675  28.155 -0.0123 -0.0168  0.1226
45747W        W88763  15.613  18.363  12.726 -0.2191  0.2177  0.1796
45748W        W88764  33.693   1.327  28.320 -0.1926  0.0564 -0.0772
45749W        W88765   4.620  11.837  17.766 -0.1039 -0.2297 -0.0588
45750W        W88766  13.084   0.755  13.799 -0.2467  0.0340  0.0997
45751W        W88767  16.389  10.760  15.589  0.0890 -0.0790  0.1406
45752W        W88768   2.719  34.341   3.352  0.1498  0.0680 -0.0997
45753W        W88769  31.798  26.035  27.048  0.3453  0.1033 -0.2372
45754W        W88770   6.299  24.747  19.122  0.0834  0.0403 -0.0738
45755W        W88771   9.569  12.261  19.131  0.1722 -0.1484  0.0851
45756W        W88772  32.334  24.463  21.337  0.1233 -0.0909 -0.0957
45757W        W88773   9.696  30.451  14.717 -0.0080  0.0385 -0.3560
45758W        W88774   2.578  29.023  21.406 -0.4036 -0.3992 -0.0005
45759W        W88775  14.403  18.993  24.993  0.0079  0.0551 -0.2385
45760W        W88776   3.325  23.366  18.816  0.0842 -0.5322 -0.0958
45761W        W88777  23.134  25.937  22.724 -0.3778  0.0478  0.3849
45762W        W88778   7.400  14.486  14.183 -0.1285 -0.1904  0.0770
45763W        W88779   5.665  16.693  25.442 -0.0049 -0.0599  0.2316
45764W        W88780   1.672   3.770  16.003  0.0200  0.1426  0.0043
45765W        W88781  12.112  29.680  18.841 -0.0656 -0.1863  0.1312
45766W        W88782  12.580  12.228  23.700  0.0280 -0.0772  0.2333
45767W        W88783  11.346  20.196  26.885  0.2016  0.3792 -0.0714
45768W        W88784   3.548  22.076  15.076 -0.0486 -0.1583  0.1684
45769W        W88785  15.972  26.404   9.621 -0.1960 -0.0952  0.2292
45770W        W88786   4.295  15.270  18.477 -0.1501 -0.2407 -0.3511
45771W        W88787  11.219  26.026  23.367  0.0002 -0.0594  0.0650
45772W        W88788  17.942  30.515  28.163  0.1529  0.0403  0.1382
45773W        W88789  17.474  24.701   5.794  0.0017 -0.2255 -0.1349
45774W        W88790  31.464  23.322  20.539  0.0633  0.0469  0.0002
45775W        W88791   9.282  16.736  17.604  0.0585 -0.0002  0.3324
45776W        W88792   7.189  10.582  20.571 -0.0350  0.2855  0.2474
45777W        W88793  29.175  27.364  18.693 -0.3028  0.0994 -0.1890
45778W        W88794   4.995   9.395  14.614 -0.1181  0.0371  0.1057
45779W        W88795   4.924  10.940  14.944 -0.1510 -0.2878 -0.1081
45780W        W88796  13.373  25.740  23.237  0.1779  0.3173  0.0118
45781W        W88797  23.685  15.014  17.950 -0.1529  0.4828 -0.3745
45782W        W88798   8.511  24.226  24.372  0.3758  0.4605  0.2316
45783W        W88799  33.940  28.470   0.211 -0.0226 -0.2389 -0.0239
45784W        W88800   9.634   2.383   1.039 -0.1576  0.0812 -0.0023
45785W        W88801   9.308  24.595  25.282 -0.1686  0.0014 -0.0466
45786W        W88802  13.905  25.640  13.353 -0.0188 -0.3053  0.1459
45787W        W88803  19.787  10.205  17.756  0.0548  0.1557 -0.0159
45788W        W88804   0.881  26.467  29.219  0.1823 -0.1301  0.3691
45789W        W88805  31.727  28.291  16.587  0.1573  0.1539 -0.3572
45790W        W88806  15.447   8.525  14.180 -0.2589 -0.1105 -0.0538
45791W        W88807   0.171  21.328  23.352  0.0599 -0.4322  0.0192
45792W        W88808  21.804  32.696  18.135 -0.2448 -0.0784  0.0048
45793W        W88809   3.669  25.132   8.236 -0.2406  0.0202 -0.0081
45794W        W88810   3.266   9.023  18.543  0.0426  0.3405  0.3212
45795W        W88811  21.013   9.671  27.264  0.1990  0.0628 -0.0527
45796W        W88812  10.656  25.099  26.610  0.0110 -0.2371  0.2304
45797W        W88813   0.006  22.417  19.870  0.0097  0.1193  0.1164
45798W        W88814  12.273  32.487  18.408 -0.2923  0.1560 -0.2609
45799W        W88815   6.853  24.375  14.172  0.1747 -0.3780  0.1460
45800W        W88816  32.605   1.304  18.033  0.2209 -0.2218  0.1861
45801W        W88817   5.695  15.825  17.706 -0.0288 -0.0689  0.1868
45802W        W88818  22.202  24.679  17.475  0.0279  0.0565  0.0945
45803W        W88819  26.152  32.513  21.734 -0.0395  0.2423  0.0739
45804W        W88820   6.284   8.122  23.669 -0.0603  0.2444  0.0601
45805W        W88821  14.694  20.092  13.903  0.0814 -0.0503 -0.0249
45806W        W88822   2.594  34.317  25.587 -0.2895 -0.2879 -0.1755
45807W        W88823  17.891  22.327  14.323  0.0887  0.1498  0.2037
45808W        W88824   0.278  13.469   3.927 -0.0332  0.1866  0.2948
45809W        W88825   3.620   2.387  27.556  0.0207 -0.0386  0.1592
45810W        W88826  13.233  31.453  19.924 -0.3503  0.1107  0.3419
45811W        W88827   9.285   0.959  21.206  0.1461  0.0842 -0.1717
45812W        W88828   9.015  26.747  25.958  0.1460 -0.3830  0.2013
45813W        W88829   2.519   7.310  18.257 -0.2164  0.1603  0.1015
45814W        W88830   6.715  16.380  14.124  0.4851  0.0147 -0.2190
45815W        W88831   0.748  18.716  18.153  0.1947  0.0231  0.0408
45816W        W88832  23.431  22.552  22.658  0.0101 -0.0938 -0.3572
45817W        W88833  31.645  24.825  17.741  0.2213  0.1174 -0.2012
45818W        W88834  17.127  22.897  13.026 -0.0937  0.0229 -0.3065
45819W        W88835  21.295  29.799  26.326 -0.0778 -0.2264  0.0080
45820W        W88836   0.693  29.990  15.154 -0.1202 -0.1253  0.3347
45821W        W88837  20.868  17.712   7.618 -0.2063 -0.2167  0.1715
45822W        W88838  29.275  17.788  24.848  0.0667  0.3615 -0.1628
45823W        W88839  26.778  13.280  16.687 -0.3639 -0.1046  0.0768
45824W        W88840   6.860  19.527  27.130 -0.1386  0.1484 -0.2029
45825W        W88841  12.813  19.076  24.965  0.1892 -0.0415 -0.0953
45826W        W88842   7.850  27.406  19.044  0.0278  0.0992  0.0040
45827W        W88843  23.666  22.552  18.230  0.1505  0.0814 -0.3515
45828W        W88844   5.010  20.579  21.634 -0.0516  0.0389  0.1515
45829W        W88845  32.523  16.009  17.462 -0.0082  0.0338 -0.2582
45830W        W88846  20.823  23.064   5.684  0.0358 -0.1853  0.0021
45831W        W88847   3.362  26.384  23.864  0.0225 -0.0235 -0.0377
45832W        W88848  20.866   1.154  16.512 -0.0138  0.1110 -0.2167
45833W        W88849   3.480   0.306  18.397 -0.3905 -0.0265  0.3037
45834W        W88850  11.978  32.955  18.505 -0.2416  0.1376 -0.0412
45835W        W88851  33.726  21.204  21.921  0.0627  0.0313 -0.1997
45836W        W88852   9.644  29.488  15.270  0.3209  0.0965 -0.0430
45837W        W88853   3.283  34.470  23.565 -0.0616 -0.2548 -0.1231
45838W        W88854   6.075  17.436  16.831 -0.1470 -0.1518  0.1190
45839W        W88855   8.634  33.164  25.186 -0.1148  0.0831 -0.3538
45840W        W88856   2.350   1.575  14.830 -0.2363  0.1318 -0.3601
45841W        W88857  18.857  31.263   7.427 -0.1970  0.1958  0.1996
45842W        W88858   6.843  30.821  14.820  0.0684 -0.0651  0.0761
45843W        W88859  34.453  32.420  24.236  0.0963  0.1381 -0.0201
45844W        W88860  27.020  13.760  14.941  0.1856 -0.2225  0.2738
45845W        W88861  10.145  25.191  18.391 -0.0091 -0.1307  0.1447
45846W        W88862   7.712  24.309  16.519 -0.1703 -0.0803 -0.2090
45847W        W88863  16.991  20.555  23.470 -0.3239  0.1271 -0.1429
45848W        W88864  13.211  27.994  20.959 -0.2364  0.1196 -0.0874
45849W        W88865   6.355  25.335  17.205  0.1516  0.1944  0.2256
45850W        W88866   4.406   5.956  24.880  0.2603 -0.0876 -0.1301
45851W        W88867  10.170  22.379  13.517 -0.4887 -0.1304 -0.1410
45852W        W88868   4.498   8.496   4.831  0.2219  0.0356  0.1131
45853W        W88869   0.153  32.354  28.681 -0.1430  0.0635 -0.2632
45854W        W88870  17.024  23.698  23.089 -0.2103 -0.2961 -0.4663
45855W        W88871   5.244  29.973  13.493 -0.0626  0.3780  0.2979
45856W        W88872  30.704  15.087  24.103 -0.0359 -0.0205 -0.0348
45857W        W88873  11.159  25.847  15.618  0.0282 -0.0827  0.1399
45858W        W88874   5.798   0.008  21.025  0.0157 -0.1422  0.1456
45859W        W88875   8.677  24.565  16.596  0.1017  0.1655  0.3992
45860W        W88876   7.782  12.445  20.876 -0.4574 -0.0286  0.0591
45861W        W88877  21.759  26.022  16.032 -0.0225 -0.4067  0.0871
45862W        W88878  26.404  22.995  28.291 -0.2346  0.0581  0.3631
45863W        W88879   3.381  15.464  18.909  0.2578 -0.1004  0.0484
45864W        W88880   3.465  23.820  18.840 -0.1744  0.2144  0.0877
45865W        W88881  13.825  31.418  16.188  0.0289 -0.1837  0.2025
45866W        W88882  17.001  28.786  17.212 -0.1802 -0.4990  0.0475
45867W        W88883   3.117  11.244   0.489  0.2604  0.0146  0.0705
45868W        W88884  34.033   0.752  25.089 -0.0401 -0.0477 -0.0183
45869W        W88885  15.097  27.960  19.300 -0.2580 -0.1929 -0.2350
45870W        W88886  20.351   4.003  13.769  0.0073 -0.2265 -0.2063
45871W        W88887  13.917  20.455  15.082 -0.0031  0.1726  0.1913
45872W        W88888  34.756  13.177   0.736  0.1959  0.4526 -0.0919
45873W        W88889   9.825  17.376  17.458  0.1278 -0.1509 -0.0277
45874W        W88890  33.045  14.011  19.572  0.1255 -0.2491 -0.3272
45875W        W88891   8.636   4.526  27.149 -0.1634 -0.3700 -0.1336
45876W        W88892   8.610  11.760  13.332  0.2420 -0.0789  0.0870
45877W        W88893   1.695  17.683   3.576 -0.0394  0.4286  0.1583
45878W        W88894  17.931   2.381   2.636 -0.0425  0.2261  0.3726
45879W        W88895  12.451  31.085  23.807 -0.2855  0.1454 -0.1264
45880W        W88896  34.474  27.077  25.456  0.0973  0.2589  0.0446
45881W        W88897   2.711   5.114  15.044 -0.0750 -0.3197 -0.2967
45882W        W88898   7.985   5.486  15.808 -0.1408  0.0335 -0.1699
45883W        W88899   2.596  18.773  16.643 -0.0650 -0.0810 -0.1447
45884W        W88900   3.901  23.547  14.190  0.0416 -0.0674 -0.1922
45885W        W88901   5.312  27.430  21.251 -0.1504 -0.1197  0.2970
45886W        W88902  14.948  30.113  14.841  0.1060  0.1011 -0.4619
45887W        W88903   9.618  12.367  17.936 -0.0068  0.2237  0.0257
45888W        W88904  24.051  24.608  25.682  0.1018  0.3038  0.0967
45889W        W88905   9.773  32.647  21.101 -0.0201 -0.0702 -0.2124
45890W        W88906  33.144  29.748  29.106  0.2794 -0.0151 -0.2099
45891W        W88907   5.245   3.759  22.233 -0.1772  0.0136 -0.0912
45892W        W88908  18.295  25.278   7.282 -0.3378 -0.0984  0.0447
45893W        W88909  14.342  30.214  15.811 -0.0837  0.1497 -0.0122
45894W        W88910  24.203  31.709  24.054 -0.0373 -0.0228 -0.2019
45895W        W88911  17.921  13.472  13.871  0.0294  0.2635  0.2587
45896W        W88912   7.659  29.965  24.233 -0.0119 -0.1737  0.0876
45897W        W88913   8.767  10.339  23.960 -0.1128  0.1101  0.0852
45898W        W88914   6.175  21.682  16.468  0.0364  0.0270  0.0780
45899W        W88915  19.836   4.697  24.143  0.0541  0.2320 -0.1615
45900W        W88916   4.757  30.679  27.797  0.0200  0.0292 -0.0452
45901W        W88917   8.436  21.724  15.420  0.1478 -0.1504  0.0726
45902W        W88918  24.667  22.257  19.189  0.1135 -0.1027  0.0296
45903W        W88919   3.067  26.673  15.452 -0.2083 -0.1857 -0.2539
45904W        W88920  17.403  34.396  20.181  0.1197 -0.1105  0.0805
45905W        W88921   2.671  26.519  17.652  0.3236  0.1155 -0.2853
45906W        W88922  14.780  34.105  18.584 -0.0260  0.1187  0.2851
45907W        W88923  29.509  29.793  25.462 -0.1521  0.2254  0.3315
45908W        W88924   9.445  25.080  16.964  0.2105  0.0051  0.0501
45909W        W88925   8.447  26.144  20.955  0.1588  0.2375  0.0516
45910W        W88926   7.526  16.505  16.946 -0.0221  0.1800  0.0349
45911W        W88927  10.613  16.358  17.251 -0.0556 -0.2905 -0.0956
45912W        W88928  27.677  26.246  17.888 -0.1839 -0.0281  0.1086
45913W        W88929  10.202  11.259  19.971  0.0134 -0.4270 -0.0341
45914W        W88930  18.074  26.275  21.300  0.0791 -0.1647 -0.0803
45915W        W88931   9.067   2.432  23.622 -0.1177 -0.4031  0.1637
45916W        W88932   4.486   6.451  25.709 -0.0418  0.3018  0.0768
45917W        W88933   0.398  23.446  19.077 -0.0344 -0.1960  0.1518
45918W        W88934  33.309  18.558  15.514 -0.0552  0.4245  0.0419
45919W        W88935  17.277  28.239  20.870 -0.0909  0.0630  0.3471
45920W        W88936  15.597  21.870   1.259 -0.3023 -0.0970 -0.1317
45921W        W88937   3.881  18.916  14.370 -0.1098  0.2339 -0.0053
45922W        W88938  20.779  33.933  19.051 -0.1555  0.0377 -0.0911
45923W        W88939   5.724  25.717  20.255 -0.1248  0.3158  0.2286
45924W        W88940  12.658  30.676  16.169 -0.2537  0.1338  0.1940
45925W        W88941   6.477  32.951  20.850  0.0284 -0.0218 -0.2049
45926W        W88942   9.466   2.150   0.583  0.0254 -0.1109 -0.0638
45927W        W88943  12.041  24.045  17.712  0.0196  0.3148  0.1742
45928W        W88944  33.933  18.352  15.644 -0.1067 -0.0264  0.1990
45929W        W88945  22.824  19.513  16.768  0.2391 -0.2646 -0.5047
45930W        W88946   3.250  24.811  26.668  0.1510  0.3672  0.0690
45931W        W88947   0.866  28.387  18.589  0.0805  0.1377 -0.0408
45932W        W88948  13.737  24.413  14.988  0.2426 -0.1254 -0.4291
45933W        W88949  10.278  30.201  26.338 -0.1448 -0.5614  0.2231
45934W        W88950   1.814  19.698  25.432  0.1595 -0.0886  0.1533
45935W        W88951   6.522  28.900  22.510  0.1822  0.1236 -0.2087
45936W        W88952  34.137  16.019  24.291 -0.3011 -0.0692  0.1720
45937W        W88953   4.606  12.250   3.656  0.0212  0.1728 -0.3121
45938W        W88954  27.380  16.621  19.429 -0.0588 -0.1199  0.4211
45939W        W88955   9.309  27.447  24.396 -0.2470  0.1397  0.0981
45940W        W88956   2.932   4.618  14.597 -0.3395  0.1951  0.2073
45941W        W88957  26.213  18.791  22.368 -0.3631 -0.0228 -0.0917
45942W        W88958  14.521  32.053  19.452  0.0326 -0.3787  0.3799
45943W        W88959   8.517  22.460  22.013 -0.1000 -0.5235 -0.0933
45944W        W88960  22.660  27.620  22.669 -0.0320  0.1071  0.1606
45945W        W88961  21.179  32.043  22.121  0.1023  0.0697 -0.2558
45946W        W88962  22.837  13.636  19.671 -0.3165 -0.0679  0.1494
45947W        W88963   5.575  24.750   1.883 -0.0714 -0.0533 -0.3625
45948W        W88964  18.687   2.267  23.376  0.0896  0.0563 -0.1348
45949W        W88965   6.082  15.287  16.874 -0.1448 -0.0243  0.0548
45950W        W88966   2.616  32.174  15.436  0.0646 -0.1390 -0.0598
45951W        W88967  20.444  17.016  12.631 -0.0900  0.2546 -0.2738
45952W        W88968  11.829   9.419  13.157 -0.1494  0.0642  0.1396
45953W        W88969   9.936  29.073  20.573  0.0355 -0.1246 -0.1609
45954W        W88970   3.901   2.227  15.609 -0.0915 -0.0620  0.0631
45955W        W88971   5.707  13.339  22.341  0.3666  0.1156 -0.2082
45956W        W88972  13.517  25.663  22.620 -0.3387  0.1192  0.0343
45957W        W88973  29.930  11.957   0.789  0.2940  0.1416  0.0064
45958W        W88974   7.768  30.247  17.813 -0.0029 -0.1817  0.0358
45959W        W88975   5.733  21.897  26.957  0.0557  0.3513 -0.4424
45960W        W88976   5.406  15.139  23.708  0.0997 -0.0462  0.0626
45961W        W88977   4.484  28.346  17.210  0.0162 -0.1581 -0.1841
45962W        W88978  23.377  32.344  17.051 -0.0991  0.4518  0.0994
45963W        W88979   9.351   3.599  23.974 -0.0903 -0.0483 -0.0825
45964W        W88980   8.930   8.353  22.076  0.2690 -0.1495 -0.0202
45965W        W88981   4.952  22.446  20.302 -0.3270  0.0535  0.0029
45966W        W88982  33.975  21.764  24.309  0.1233  0.3360 -0.1827
45967W        W88983  11.238  31.005  15.751  0.1575  0.0179  0.1447
45968W        W88984  29.615  29.969   0.692  0.3085 -0.1466  0.0476
45969W        W88985  27.250  23.838  22.058 -0.1657 -0.2127 -0.0664
45970W        W88986   7.076  31.577  15.505 -0.0865  0.3572 -0.1978
45971W        W88987   5.406   1.097  18.313 -0.0399  0.1117 -0.0367
45972W        W88988  26.228  29.555  24.174  0.2331  0.2456 -0.2319
45973W        W88989   2.561  29.007  15.696  0.0421 -0.0227 -0.0195
45974W        W88990  13.312  29.476   5.313 -0.2918 -0.0193 -0.0467
45975W        W88991   2.263  31.804  24.621 -0.0498 -0.2675  0.2379
45976W        W88992  23.147  22.080  19.109 -0.0483 -0.0740  0.0701
45977W        W88993   7.706  15.577   1.599  0.0962 -0.1234  0.1327
45978W        W88994  29.684  16.847  22.241  0.0117  0.2576  0.2037
45979W        W88995   9.700  25.111  28.179 -0.2263  0.0463  0.0942
45980W        W88996  22.233  18.559  13.811  0.0117 -0.1112 -0.3800
45981W        W88997  31.991  18.228  15.241 -0.0134 -0.5259 -0.2605
45982W        W88998  20.704  22.687  26.829 -0.0441 -0.0115  0.0780
45983W        W88999   7.447  21.609   3.236 -0.1417 -0.0510 -0.0421
45984W        W89000  24.695  19.458  21.720 -0.1197 -0.0466  0.2632
45985W        W89001  15.048   2.399  19.360 -0.0081 -0.3121 -0.0617
45986W        W89002   9.903  26.458  17.848  0.0628 -0.0177  0.2544
45987W        W89003  22.722  14.727  25.729 -0.1863 -0.2561  0.0311
45988W        W89004   7.353  28.260  23.601  0.2901 -0.1190 -0.1158
45989W        W89005   3.113  24.362   2.853 -0.1798  0.1620  0.0474
45990W        W89006  33.455  28.504  18.076  0.0852  0.3359  0.1530
45991W        W89007  12.217   9.115  15.568  0.0846  0.2529 -0.0807
45992W        W89008  26.261   5.283  20.563 -0.0134 -0.1872  0.1216
45993W        W89009  34.052  32.699  19.261 -0.0773  0.3976  0.0947
45994W        W89010   3.669   1.742  14.688  0.1697  0.0278 -0.1221
45995W        W89011   7.321  18.886  13.900 -0.0928 -0.2026  0.1480
45996W        W89012  11.071  21.141  22.221  0.0313  0.1632 -0.0766
45997W        W89013   2.250  24.408  19.724  0.1481 -0.2478  0.1615
45998W        W89014  18.316   4.327  16.673  0.2248  0.0381  0.0880
45999W        W89015   3.600  12.217  20.592 -0.3056  0.0796 -0.4554
46000W        W89016  17.634  26.153  21.828 -0.0089 -0.0044  0.0218
46001W        W89017   2.572  30.576  16.794 -0.1420  0.0996  0.1101
46002W        W89018  33.963  23.698  15.989 -0.0804 -0.3149 -0.3900
46003W        W89019  16.173  18.477  15.337  0.3304  0.2842 -0.1116
46004W        W89020   6.618  21.531  12.897 -0.1673  0.1911 -0.3031
46005W        W89021   3.538  19.211  23.078 -0.1216 -0.2754 -0.2262
46006W        W89022  22.194  32.017   2.075  0.0394 -0.3786 -0.1654
46007W        W89023  29.469  21.029  21.099  0.2157  0.1262 -0.1743
46008W        W89024   7.771  22.591  20.669  0.0299 -0.0438  0.0856
46009W        W89025   9.561  28.965  16.325  0.1526  0.2737  0.4995
46010W        W89026  18.140  22.281  22.339  0.1663 -0.1467  0.2300
46011W        W89027  14.442  25.164  13.619 -0.0556 -0.0485 -0.3728
46012W        W89028  18.336  18.993  15.775 -0.1011  0.1137 -0.1140
46013W        W89029  11.771  29.240  25.122 -0.2380  0.2044 -0.3167
46014W        W89030  21.565  30.990  16.498  0.0110  0.1538 -0.1533
46015W        W89031  13.759  27.247  15.466 -0.2782  0.1004 -0.2401
46016W        W89032  20.236  13.879   1.266 -0.0118 -0.1617  0.0267
46017W        W89033  32.395  31.205  14.871 -0.0485  0.0525 -0.0511
46018W        W89034  18.821   4.079  23.303 -0.2642 -0.1779 -0.0614
46019W        W89035  14.510  20.588  12.355 -0.0703  0.1143 -0.1430
46020W        W89036   3.057  18.145   6.281  0.0968 -0.0763  0.0858
46021W        W89037  25.874  20.329   6.583  0.1969 -0.3279 -0.2239
46022W        W89038  31.045  24.608  19.027 -0.1247 -0.0733  0.1390
46023W        W89039  11.849  25.246  29.113  0.1067 -0.1999 -0.1467
46024W        W89040   1.702  34.189  29.048 -0.2035 -0.2543  0.0169
46025W        W89041  18.681   3.744  14.252 -0.5555  0.0733  0.4997
46026W        W89042  33.698  25.867  20.092  0.1346  0.0247  0.0747
46027W        W89043   7.793  23.601  22.184  0.1063  0.0360  0.0685
46028W        W89044  10.742   3.141  25.860 -0.1443 -0.3592 -0.1640
46029W        W89045  21.405  27.704  28.566  0.0059  0.1008 -0.1772
46030W        W89046  22.601  20.118  18.773 -0.1096  0.1908  0.0103
46031W        W89047  14.456  20.005  11.592 -0.2386 -0.3529  0.0156
46032W        W89048  32.613   9.156   2.941 -0.2913 -0.0439  0.0983
46033W        W89049   7.828  28.185  15.609 -0.1720  0.0258  0.2701
46034W        W89050  19.569   8.668  20.218  0.2072  0.2393 -0.0969
46035W        W89051  13.482  12.506  12.944 -0.1336  0.0022 -0.2479
46036W        W89052  29.686   1.501  15.936  0.2314  0.1904 -0.2255
46037W        W89053  34.742  24.154   0.951  0.0777 -0.2486  0.3229
46038W        W89054   6.018  32.606   4.501  0.2317 -0.0982 -0.0246
46039W        W89055  27.549  19.502  26.537  0.1838  0.1085 -0.1303
46040W        W89056  12.729   3.902  28.172 -0.2623  0.3374 -0.1935
46041W        W89057  12.334  29.631  23.642  0.0850  0.2664 -0.0941
46042W        W89058   9.186   9.336  19.672  0.3461  0.1967  0.0089
46043W        W89059  13.012  26.238  18.225 -0.0895  0.0385  0.0080
46044W        W89060  20.086  25.781  26.942 -0.0650  0.1052 -0.1638
46045W        W89061  32.084  31.307  18.991 -0.0132  0.1323  0.1273
46046W        W89062  30.582  13.320  22.259  0.2012  0.1439  0.1327
46047W        W89063   5.448  13.869   5.671  0.0758  0.0292  0.4007
46048W        W89064   3.728  25.387  14.268  0.1387  0.1427 -0.2193
46049W        W89065   2.441  14.449  22.543 -0.0556  0.2189 -0.2864
46050W        W89066  17.928  11.590  22.600  0.0448  0.2053 -0.0058
46051W        W89067  31.342  19.941  16.697 -0.1878 -0.2133 -0.0941
46052W        W89068   9.760  18.397  15.439  0.2839 -0.0997 -0.2558
46053W        W89069  19.370  22.103   2.091 -0.1061  0.3183  0.0627
46054W        W89070  33.393  23.531  22.826  0.4552  0.3623 -0.0363
46055W        W89071  30.422  29.375  17.045 -0.2238  0.0196  0.1813
46056W        W89072  32.230  28.280  22.297  0.0161 -0.1254 -0.0176
46057W        W89073  26.242  10.335  17.608 -0.1033  0.1062 -0.4865
46058W        W89074   3.743  32.821  15.768  0.2106 -0.3184 -0.0371
46059W        W89075  18.196  23.004  22.452  0.1064 -0.1880  0.0603
46060W        W89076  13.804  14.411  13.326 -0.2399 -0.3502  0.0761
46061W        W89077   4.771  27.613  16.593  0.2271 -0.3488 -0.2706
46062W        W89078  27.528  31.457  22.262  0.0497 -0.0572  0.1158
46063W        W89079   1.853  31.725  20.814 -0.1406  0.2924  0.0444
46064W        W89080  13.922  23.775  13.378 -0.0481 -0.0707  0.0178
46065W        W89081  12.990   2.112  20.826 -0.2017  0.1701 -0.2289
46066W        W89082  10.175  24.561  25.066  0.0410  0.0417  0.1936
46067W        W89083   3.075  34.019  22.087  0.1175  0.1635  0.0642
46068W        W89084   6.475  30.886  19.455  0.3650  0.0262 -0.0742
46069W        W89085   9.678  19.959  16.552 -0.2500  0.2624 -0.0486
46070W        W89086   3.859  25.545  19.770 -0.0694  0.1001 -0.0036
46071W        W89087   0.194   4.882  19.243 -0.2907 -0.1432 -0.2486
46072W        W89088  11.912  22.755  14.793  0.0430 -0.2116 -0.0407
46073W        W89089  10.937  23.440  20.972  0.0574  0.0731  0.2756
46074W        W89090  11.142  27.895  27.999 -0.0613  0.2250 -0.1586
46075W        W89091   6.035   9.889  23.025  0.3576 -0.1534 -0.1202
46076W        W89092  13.460  27.242  15.086 -0.0047 -0.2110 -0.1520
46077W        W89093   5.656  21.945  19.337  0.0443 -0.4596  0.0453
46078W        W89094  19.690   2.915  18.066  0.4424 -0.1301 -0.1706
46079W        W89095  30.918  17.538  17.267  0.1962 -0.1497  0.2582
46080W        W89096   6.807  29.675  16.528  0.4848  0.2042 -0.3464
46081W        W89097   9.490  24.408  22.722 -0.1226 -0.0854  0.2155
46082W        W89098  10.803   7.451  20.324  0.2974  0.0632  0.1204
46083W        W89099  14.575  31.293  17.923 -0.3027 -0.1325 -0.0056
46084W        W89100  17.205  25.913  24.767 -0.0699 -0.3332  0.1560
46085W        W89101  28.061  22.361  18.557  0.1252 -0.3152 -0.0762
46086W        W89102  11.144  32.848  17.849  0.2583 -0.0615  0.1865
46087W        W89103  18.142  22.413  18.755  0.4855 -0.0142 -0.2098
46088W        W89104  34.274  16.959  15.248  0.1269  0.0779 -0.1395
46089W        W89105  10.911  25.033  12.860  0.3397 -0.0171 -0.1022
46090W        W89106  30.982  28.871  15.468 -0.0021  0.0726 -0.0296
46091W        W89107  13.084   1.485  27.663  0.0271 -0.2571 -0.0830
46092W        W89108  12.463  10.962  22.505  0.0657  0.1637  0.3701
46093W        W89109   0.449  21.215  16.758  0.2084 -0.2594  0.0558
46094W        W89110  30.698  24.666  18.299 -0.0068  0.1815  0.1768
46095W        W89111   1.818   0.254  26.101 -0.0156 -0.1819  0.1088
46096W        W89112  20.000  29.275  19.291  0.0048  0.4222 -0.0031
46097W        W89113  17.512  23.677  22.940 -0.1579  0.0472 -0.0879
46098W        W89114  19.541  32.754  15.602  0.2693  0.0600 -0.1321
46099W        W89115  34.225  32.942  19.691  0.0464 -0.1055 -0.0220
46100W        W89116  16.164  27.213  14.533  0.0202  0.2308  0.0118
46101W        W89117   1.484  16.159  23.397  0.0592  0.1715  0.2484
46102W        W89118  15.541  28.739  20.547 -0.2398 -0.1269 -0.1185
46103W        W89119  13.397  19.149  11.710 -0.0302  0.1568  0.1122
46104W        W89120  17.037  26.147  22.530  0.1394  0.0503  0.0142
46105W        W89121   8.861  13.089  15.308 -0.2145 -0.1302 -0.3117
46106W        W89122  22.685  20.752  15.844 -0.3258 -0.0686  0.0177
46107W        W89123   5.671  32.443  24.284 -0.2671  0.1400  0.6473
46108W        W89124  16.746  11.289  15.078  0.1878 -0.0411  0.0435
46109W        W89125  13.421  19.593  23.602  0.0470 -0.0802 -0.3219
46110W        W89126   3.000  30.329  20.956  0.0273  0.0069  0.2110
46111W        W89127   5.758  24.143  25.416 -0.2916 -0.1094  0.0338
46112W        W89128  22.685  24.558  19.350  0.0164 -0.1688  0.0831
46113W        W89129  17.207  19.529  12.807  0.1948  0.1657  0.1185
46114W        W89130   8.380  34.021  16.469 -0.0094  0.1266 -0.0945
46115W        W89131  32.294  19.132  26.345  0.2308 -0.3623  0.3201
46116W        W89132  15.963  29.559  24.135 -0.2827  0.1768 -0.1406
46117W        W89133   3.156  15.334  29.171 -0.1046 -0.4444 -0.1773
46118W        W89134   8.389   0.547   4.023  0.0965 -0.0587 -0.0863
46119W        W89135  22.222  22.103  19.398  0.2485  0.4866  0.0577
46120W        W89136  33.191  26.390  18.726 -0.0599  0.0053 -0.3611
46121W        W89137  12.368  19.862   3.037 -0.1004  0.2186 -0.1413
46122W        W89138  15.523  25.063   4.696 -0.0541 -0.0512  0.1572
46123W        W89139  29.495  29.126  19.050  0.0899 -0.0677 -0.1553
46124W        W89140  18.093  26.369  20.726 -0.3720  0.1052 -0.0817
46125W        W89141  14.257  24.213  14.351  0.0514  0.0473 -0.2628
46126W        W89142  30.511  26.887   5.730 -0.3368 -0.2070 -0.2475
46127W        W89143  33.263   0.562  18.989 -0.1392  0.3650  0.0296
46128W        W89144  16.223  21.548  15.666 -0.1135 -0.0117  0.3041
46129W        W89145  15.261  29.786  13.976  0.1296  0.0738  0.4962
46130W        W89146  23.441  13.353  16.740 -0.0307 -0.0934  0.1494
46131W        W89147   7.063  30.504  16.168 -0.0274 -0.0166 -0.0016
46132W        W89148  10.458   4.594  20.588 -0.2709 -0.1864  0.0522
46133W        W89149   3.532  30.716  21.899  0.1735 -0.2279 -0.1755
46134W        W89150   6.254  17.476  20.585  0.1356  0.2037  0.0058
46135W        W89151  12.948  22.564  21.885 -0.1921  0.1697  0.2541
46136W        W89152   4.583   2.909  18.832 -0.0551 -0.1443 -0.0629
46137W        W89153  15.348  22.009  14.334  0.0360 -0.0508 -0.0520
46138W        W89154   2.505  27.241  18.762 -0.1415  0.0509 -0.0684
46139W        W89155   6.564  31.007  27.019  0.0745 -0.1190  0.1084
46140W        W89156   5.971  31.637   5.242  0.3602  0.2021  0.0892
46141W        W89157  17.331   3.045   2.415  0.0192 -0.2224 -0.1688
46142W        W89158  11.086  30.427  17.111 -0.3068 -0.1955 -0.1733
46143W        W89159   0.304  25.063  18.424 -0.0517 -0.1960  0.0669
46144W        W89160   9.928  18.973   2.618  0.0086 -0.0153 -0.1495
46145W        W89161  10.446   7.628  14.692  0.0403  0.0463  0.0465
46146W        W89162  10.219  26.218  21.971  0.3486  0.2676 -0.3261
46147W        W89163  16.016  16.082  12.554  0.0965 -0.0323 -0.1969
46148W        W89164  10.142  27.516  23.085  0.1770 -0.1181  0.0489
46149W        W89165  17.311  25.512  26.683 -0.0063 -0.5293  0.0249
46150W        W89166  19.360  22.265  13.832 -0.1144 -0.0939  0.0566
46151W        W89167   4.634  18.878  28.185  0.0822  0.0535  0.0855
46152W        W89168  20.655  33.795  25.773 -0.1853 -0.0905 -0.0568
46153W        W89169  16.419  26.682  18.055  0.2145  0.0232 -0.0682
46154W        W89170  14.358  19.619   2.154  0.1552  0.4462 -0.1134
46155W        W89171   2.455  14.321  15.128  0.0057 -0.0378  0.1430
46156W        W89172   6.518  18.229  20.264 -0.1289 -0.0640  0.1194
46157W        W89173  20.343  24.477  15.353 -0.5687 -0.1060 -0.1193
46158W        W89174   4.190   1.834  18.098 -0.2043  0.0993 -0.3815
46159W        W89175  12.510  22.946  18.259  0.0130  0.2473  0.0004
46160W        W89176   1.349   3.836  18.179 -0.1887 -0.1560 -0.4291
46161W        W89177   1.436  11.187  19.181 -0.1063 -0.4733 -0.2533
46162W        W89178  11.528   8.238  28.208 -0.0976 -0.1040  0.0341
46163W        W89179   0.374  23.481  17.338  0.1472  0.2329  0.0190
46164W        W89180  19.639  14.278  22.345 -0.1188 -0.2904 -0.3417
46165W        W89181   3.919  21.674  17.206 -0.3100  0.1135  0.0063
46166W        W89182   0.689  11.721  10.495  0.1340  0.1724 -0.0042
46167W        W89183   0.002  17.111  26.670  0.2292  0.0075  0.0720
46168W        W89184   2.812  34.371  24.218  0.1664  0.0369  0.0999
46169W        W89185   9.131  19.303  23.606  0.0619 -0.2078  0.1657
46170W        W89186  17.868  22.786  25.520  0.0021 -0.2212 -0.0465
46171W        W89187  12.865  14.331  16.955  0.1317 -0.3255 -0.0266
46172W        W89188  16.086   0.513  27.139 -0.0086 -0.0369  0.2603
46173W        W89189   5.491  33.866  22.053 -0.1302 -0.0374  0.0963
46174W        W89190  11.037  19.091  12.858 -0.1238 -0.2563 -0.0425
46175W        W89191   0.324   1.761  28.929  0.1382 -0.3619  0.1846
46176W        W89192   0.418  24.212  21.607 -0.0630 -0.1315 -0.1603
46177W        W89193   8.162  24.187  15.653 -0.2069 -0.0889  0.1398
46178W        W89194   1.841  18.666  16.008 -0.4363 -0.0121  0.1096
46179W        W89195  24.577  27.974  16.918  0.1458  0.1984 -0.3189
46180W        W89196  14.919  21.717  15.136 -0.0524 -0.1790  0.0144
46181W        W89197  33.058  25.804  16.893 -0.1041  0.1577  0.3986
46182W        W89198  33.285  16.330  14.784 -0.1246 -0.2200  0.1138
46183W        W89199   5.147  23.868  15.220 -0.1739  0.1443 -0.0450
46184W        W89200   8.989   7.296  14.887  0.0878 -0.0843  0.4356
46185W        W89201   9.950  12.103  17.757  0.0169 -0.2808 -0.3157
46186W        W89202  13.701  33.160  21.595 -0.2627  0.0285 -0.0470
46187W        W89203   7.833   0.496  20.655 -0.0364 -0.2826  0.0718
46188W        W89204   5.494   2.480  21.150 -0.2573  0.0236  0.2654
46189W        W89205  11.103  17.913  22.030  0.0467 -0.0160 -0.0293
46190W        W89206   4.306  16.882  17.060  0.1126  0.2229  0.1388
46191W        W89207   6.357  20.184  14.538  0.2157 -0.0445 -0.2972
46192W        W89208   6.748   8.333  23.725  0.0868  0.1646  0.0103
46193W        W89209   5.894  27.363  16.634  0.3465  0.0760 -0.2250
46194W        W89210  13.955  24.171  15.956  0.0818 -0.0668  0.3751
46195W        W89211  26.854  31.223  24.167 -0.0393 -0.0808 -0.0452
46196W        W89212   7.065  26.726  14.428 -0.1525 -0.2649  0.0099
46197W        W89213   9.292  10.686  14.366 -0.0079  0.3909 -0.1599
46198W        W89214  13.859  23.166  25.672  0.2976  0.2994  0.0009
46199W        W89215  32.812  18.192  28.336  0.2260  0.2127 -0.1501
46200W        W89216  15.179  30.282  16.517 -0.2896 -0.3547 -0.1479
46201W        W89217  33.028  22.390   4.894 -0.2039 -0.1695 -0.3703
46202W        W89218  32.881  19.993  18.531 -0.1530  0.0051  0.0482
46203W        W89219   7.132   4.811   9.510  0.0672  0.1087  0.0212
46204W        W89220  30.311   8.659  28.581  0.0051 -0.1662 -0.2281
46205W        W89221  25.356  19.603  15.856 -0.0160  0.0689  0.0267
46206W        W89222  31.946  18.028  14.060 -0.1328  0.1242 -0.0231
46207W        W89223  12.512  23.117  17.797 -0.1900 -0.1381 -0.2693
46208W        W89224  24.219  23.456  19.628 -0.0795  0.1377  0.0347
46209W        W89225  29.341  10.222  19.132 -0.0384 -0.0131  0.2172
46210W        W89226  28.812  13.929  23.108 -0.2161 -0.2918 -0.1633
46211W        W89227   2.938  32.515   6.448  0.2488 -0.0239 -0.0166
46212W        W89228  13.308  23.225  18.907 -0.1775  0.1532  0.1035
46213W        W89229  15.994   7.578  22.798  0.1170 -0.0167 -0.0937
46214W        W89230  28.335  24.099  22.394 -0.2511  0.1759 -0.0538
46215W        W89231  10.969   3.964  22.338 -0.1484 -0.4183  0.0718
46216W        W89232   9.929  17.179  16.338 -0.2795 -0.1692  0.0153
46217W        W89233   5.996  28.705  25.317  0.3546  0.0058 -0.1309
46218W        W89234  33.931   3.192  24.689 -0.2791  0.0649 -0.1436
46219W        W89235  17.579  10.635  19.552 -0.2501  0.2393  0.0538
46220W        W89236  11.535  13.994  16.689 -0.0378  0.0223  0.3893
46221W        W89237  14.657  34.196  19.719  0.0980 -0.1859 -0.1546
46222W        W89238   6.102  17.222  27.052 -0.0032 -0.0184 -0.1879
46223W        W89239   6.913  17.452  12.959 -0.0416  0.1412 -0.0856
46224W        W89240  29.757  12.978   8.329  0.3736  0.0659  0.1998
46225W        W89241  15.095   0.401  14.490  0.0237  0.2765 -0.0954
46226W        W89242   3.196  18.632  17.790 -0.4237 -0.4246 -0.0813
46227W        W89243  32.319   1.506  26.085 -0.1893  0.2330 -0.1883
46228W        W89244  19.549   9.829  18.500 -0.1336  0.0734  0.1895
46229W        W89245   9.048  16.129  27.586 -0.0835  0.1101 -0.1321
46230W        W89246   3.559  26.208  17.449 -0.1491  0.2319 -0.1475
46231W        W89247   1.486   6.270  16.838 -0.1178 -0.3996 -0.1714
46232W        W89248   6.200  27.941  16.185  0.0727  0.0006  0.1022
46233W        W89249  26.106  20.135  23.072 -0.2255 -0.2458  0.0569
46234W        W89250   4.777  18.416   4.797 -0.0141  0.1105  0.1142
46235W        W89251   6.335  31.638  14.564 -0.0766  0.0744 -0.1648
46236W        W89252  21.753  25.199  24.271  0.2061  0.1942  0.1454
46237W        W89253  11.963  27.721  19.275 -0.2835  0.0020  0.1852
46238W        W89254  27.578  17.523  18.155  0.1325 -0.3070  0.1122
46239W        W89255   7.053  23.863  19.553 -0.0367  0.2397 -0.0155
46240W        W89256  26.187  24.030  15.798 -0.2186 -0.0949 -0.0334
46241W        W89257   2.683  30.457  26.547  0.2401  0.0138 -0.0990
46242W        W89258  34.553  27.186  20.550 -0.0929  0.0883  0.0046
46243W        W89259   6.900  22.279  23.120  0.0391 -0.0667  0.1421
46244W        W89260   9.622   5.215  19.183  0.0566 -0.0423  0.3426
46245W        W89261  11.703  27.594  24.225 -0.0711 -0.2610 -0.0800
46246W        W89262  11.171  24.248  18.096  0.0212  0.1966 -0.1235
46247W        W89263   3.088  28.898  21.242  0.1997 -0.2427  0.0459
46248W        W89264  10.601  26.803   7.567  0.0331  0.4515  0.2256
46249W        W89265   6.531  17.756  12.636 -0.2012 -0.1642 -0.3194
46250W        W89266  16.818  25.899   0.779 -0.2937 -0.0612  0.3111
46251W        W89267  18.980  21.696  13.047 -0.2021  0.0519 -0.0024
46252W        W89268   2.676   2.352  18.518  0.0334 -0.2372 -0.3538
46253W        W89269   4.486  21.147  21.286 -0.4042  0.2289 -0.0124
46254W        W89270   4.026  32.129  19.970  0.0363 -0.0164 -0.1148
46255W        W89271   1.615  27.003  15.115  0.0528 -0.0073 -0.0359
46256W        W89272   7.960  11.771  17.770  0.1599 -0.1408 -0.0575
46257W        W89273   6.876   3.285  20.386  0.3147 -0.3122  0.1018
46258W        W89274  31.441  27.130  26.143  0.1487 -0.0502 -0.4515
46259W        W89275  12.882  17.482  15.822  0.2502 -0.1201  0.1141
46260W        W89276  15.652  29.923   5.561 -0.1508  0.0659  0.1484
46261W        W89277  22.898   6.106  20.907  0.0369 -0.2654 -0.2658
46262W        W89278  21.536   7.594  21.252  0.0376  0.2149  0.1546
46263W        W89279  18.755   1.285  17.987  0.3140  0.1595 -0.0482
46264W        W89280   6.211  20.725  12.913  0.0379 -0.3066 -0.1024
46265W        W89281  28.058  11.451  17.161  0.0684 -0.0780 -0.1952
46266W        W89282  16.239   4.324  15.991  0.3808 -0.2323  0.0212
46267W        W89283  33.065  17.076  26.668  0.2847  0.2751  0.0397
46268W        W89284  21.340  20.218   9.083 -0.1982 -0.1416  0.2459
46269W        W89285  17.945  21.767  12.933 -0.2787 -0.2243 -0.0216
46270W        W89286  10.731   3.157   3.318  0.0662 -0.0331 -0.0493
46271W        W89287   7.119  29.254  23.110 -0.1597 -0.2697  0.1503
46272W        W89288  17.776  12.658  14.538 -0.0559  0.1089 -0.2932
46273W        W89289  16.844  24.139  22.949 -0.3676 -0.1493 -0.1523
46274W        W89290  34.742  19.958  28.493 -0.3665 -0.2135 -0.2911
46275W        W89291  16.227  14.161  28.693  0.0182  0.0352  0.2964
46276W        W89292   7.317  19.393  13.713  0.0890 -0.1991  0.0641
46277W        W89293  11.240  30.363   0.176 -0.0525  0.1717 -0.2876
46278W        W89294  14.626  23.325  14.611 -0.0731 -0.0311  0.0029
46279W        W89295   3.024   3.832   5.877  0.0210 -0.1504 -0.0120
46280W        W89296  18.333  23.154  22.020  0.1345 -0.1923 -0.2338
46281W        W89297   3.866  30.512  14.857 -0.0661 -0.1259 -0.4535
46282W        W89298   6.793  16.560  13.046 -0.0741  0.1202 -0.1762
46283W        W89299  14.231  20.349  13.882  0.1917  0.2194  0.0141
46284W        W89300   6.013  31.320   7.924 -0.0565  0.0210  0.2165
46285W        W89301   9.984  20.283   2.710  0.0300 -0.1986 -0.1673
46286W        W89302  25.311  17.110   1.564  0.2616  0.1176 -0.3680
46287W        W89303  14.542  18.221  25.404  0.0506 -0.0458 -0.0109
46288W        W89304  15.188  28.308  15.268 -0.1282  0.4713 -0.3257
46289W        W89305  15.159  26.999  18.712 -0.0497  0.3205 -0.1970
46290W        W89306   3.802  11.238   1.816  0.0018 -0.0129  0.0558
46291W        W89307  11.286  23.000   3.801 -0.1226  0.0526 -0.0478
46292W        W89308   4.223  32.850  23.039 -0.2153  0.0158  0.2243
46293W        W89309  22.605  26.937  18.223 -0.1991  0.0067 -0.0183
46294W        W89310  27.280   0.226  17.026  0.0527 -0.2312  0.1473
46295W        W89311  18.598  26.574   7.993 -0.2501 -0.0873  0.1102
46296W        W89312   1.449  23.603  18.281 -0.0564 -0.1217 -0.1922
46297W        W89313  13.111  12.997  26.842  0.0933  0.0789  0.1675
46298W        W89314  19.994  14.519  15.146 -0.4343  0.0048 -0.1256
46299W        W89315  21.257  33.666  19.667 -0.2337  0.3744  0.0984
46300W        W89316  14.712  30.526  20.983 -0.1238  0.0182  0.2090
46301W        W89317  26.859  19.548  21.450 -0.0909 -0.0265 -0.2623
46302W        W89318   4.033  22.317  18.788  0.0016  0.0111 -0.2003
46303W        W89319   4.237  21.792  15.450 -0.1149 -0.0622 -0.0449
46304W        W89320  10.479   0.578  23.179  0.1334  0.2563 -0.0165
46305W        W89321   0.895  11.746  21.359  0.3417  0.0611 -0.0890
46306W        W89322   1.112  31.445  29.108 -0.1477  0.0174  0.1270
46307W        W89323   8.758  11.928  18.174  0.0011  0.1373  0.1355
46308W        W89324  23.560  26.616   2.959  0.1303  0.0500 -0.0643
46309W        W89325  14.802  28.414   8.052 -0.1360  0.0037 -0.2135
46310W        W89326  33.824   4.149  14.916  0.2075 -0.1027  0.1362
46311W        W89327   1.726  23.167  20.373 -0.2249 -0.3873 -0.1642
46312W        W89328  23.021  26.791  21.122  0.1840  0.1097 -0.1830
46313W        W89329  27.408  23.311  21.807 -0.0049  0.1611 -0.2639
46314W        W89330   4.198  18.421  13.479 -0.3009  0.2827  0.0706
46315W        W89331  10.167  10.886  19.611  0.4011  0.0778  0.1233
46316W        W89332  31.696   0.597  17.601  0.1960 -0.1022 -0.0988
46317W        W89333  12.711  18.724  15.762 -0.0249 -0.1534  0.2045
46318W        W89334  29.117  15.275   3.209  0.0656 -0.0187 -0.1959
46319W        W89335  31.760  15.916  21.738  0.0160  0.0892 -0.0010
46320W        W89336   4.202  23.694  26.041 -0.3726  0.0139  0.1520
46321W        W89337  11.136  16.451  11.897 -0.0208  0.2776 -0.2918
46322W        W89338  11.676  15.645  22.080 -0.0414 -0.1758 -0.0362
46323W        W89339  17.308  17.332  13.142 -0.1820 -0.4517 -0.2303
46324W        W89340   7.849   7.156   0.559 -0.1749  0.1009 -0.0544
46325W        W89341  21.068   9.243  14.602 -0.0423 -0.1336 -0.1718
46326W        W89342   2.857  17.695  27.273  0.2395 -0.0577  0.2532
46327W        W89343  22.112  22.934  19.473  0.0960  0.0837  0.3138
46328W        W89344  10.569   7.464  14.141 -0.2071  0.0849  0.0486
46329W        W89345  13.507  30.458  10.115  0.2316  0.1125  0.0858
46330W        W89346  33.979  18.377  28.659 -0.1733  0.0651 -0.1577
46331W        W89347   1.254  32.059  16.084  0.0670  0.1842 -0.0072
46332W        W89348   9.266  32.079  16.724  0.2492  0.0503 -0.0989
46333W        W89349   2.631  33.705  16.729  0.0770 -0.4258  0.1190
46334W        W89350  29.430  24.220  24.822  0.1685 -0.0600 -0.2772
46335W        W89351   9.754  28.122  27.208 -0.0292 -0.1417 -0.0420
46336W        W89352   7.589  30.778  24.906  0.0430  0.1060  0.0504
46337W        W89353   4.031  24.956  14.323 -0.1782  0.2692  0.0324
46338W        W89354  23.261  17.964   5.108  0.0696 -0.1196  0.1717
46339W        W89355  14.478  16.368  28.210 -0.1602  0.0847  0.3348
46340W        W89356  28.417  30.034  26.036 -0.0151 -0.1306  0.1068
46341W        W89357   2.658  21.141  25.747  0.0845 -0.0600 -0.1951
46342W        W89358  15.292  25.932  14.226 -0.1683 -0.0845  0.0272
46343W        W89359  16.080  17.761  24.831  0.1086  0.0027 -0.2261
46344W        W89360   3.362  20.450  24.998  0.1438  0.1872  0.4469
46345W        W89361   2.262  10.437  17.620 -0.1223  0.2231  0.1551
46346W        W89362  29.791  17.536  24.925  0.2028 -0.0887  0.1078
46347W        W89363  25.864  19.168   1.299  0.0812 -0.1398 -0.0934
46348W        W89364   2.409   0.109  23.933  0.1027 -0.1634  0.2343
46349W        W89365  30.171  27.754  26.785 -0.0811 -0.2195 -0.0477
46350W        W89366   2.040   0.464   5.692 -0.0992  0.1182  0.1416
46351W        W89367  14.079   2.380  18.016 -0.1844 -0.2870 -0.0712
46352W        W89368  33.698  16.854  28.940  0.0379 -0.0269  0.0546
46353W        W89369  14.716  21.837  12.561  0.0911  0.0405  0.1186
46354W        W89370  21.292  21.069  22.577  0.0191  0.0999 -0.0273
46355W        W89371   8.358  27.932  20.156  0.2204 -0.0478 -0.3188
46356W        W89372  13.499  21.750  24.320 -0.1971 -0.0073 -0.0340
46357W        W89373   3.595   1.197   4.951 -0.1206 -0.3168  0.0921
46358W        W89374  14.100  26.870  21.746 -0.0110  0.2307 -0.0741
46359W        W89375  17.195  11.779  24.875  0.1401 -0.0488 -0.3074
46360W        W89376  13.483   7.908  15.420 -0.1967 -0.0257  0.1811
46361W        W89377  11.338  19.295  14.999 -0.1820  0.3103  0.1841
46362W        W89378  22.265   9.717  24.452  0.0987  0.1280  0.1516
46363W        W89379  33.876  21.457  20.408  0.0888  0.1266  0.0368
46364W        W89380  24.386  29.799  21.702 -0.0031 -0.2034  0.2452
46365W        W89381  13.268  20.407  15.236 -0.1514 -0.1758  0.3188
46366W        W89382  21.610  26.220  29.294  0.0986 -0.0149  0.2171
46367W        W89383   8.618  22.204  19.457 -0.4302 -0.0178  0.0903
46368W        W89384  11.663  12.878  18.808 -0.3475 -0.3162  0.2078
46369W        W89385   9.274  22.388  15.519  0.1965 -0.3591  0.1035
46370W        W89386  25.105   2.305  24.304  0.2095 -0.0656 -0.1117
46371W        W89387   8.775  31.039  19.773  0.1840 -0.2175 -0.2338
46372W        W89388  28.520   2.801  15.701 -0.1291  0.1182 -0.0121
46373W        W89389   1.343  30.256  15.934  0.2840 -0.1199  0.0050
46374W        W89390  10.880  23.228  27.893  0.2128  0.0371  0.0895
46375W        W89391  21.520  27.396  21.805  0.2164  0.4520  0.3158
46376W        W89392  34.370  27.414  28.375 -0.1981  0.0092 -0.0205
46377W        W89393   9.372  26.310  19.877 -0.1983 -0.1458 -0.2515
46378W        W89394  15.611  11.703  16.299 -0.4330  0.0537  0.0245
46379W        W89395  11.421   9.519  25.331 -0.0612  0.2602  0.0610
46380W        W89396   6.572  23.496  21.476  0.1241  0.2246  0.3847
46381W        W89397  17.997  27.965  22.858  0.0684 -0.0042  0.3770
46382W        W89398  15.472  10.275  23.605 -0.1925  0.2354  0.1119
46383W        W89399   9.121   5.509  22.916  0.1491  0.0549  0.2981
46384W        W89400  11.163   5.501  15.744  0.0047 -0.0730  0.4618
46385W        W89401  17.332  30.560  23.015 -0.1363 -0.1284  0.0074
46386W        W89402  32.264  11.417   0.704 -0.4574  0.1076  0.1164
46387W        W89403   8.522  14.883  14.384 -0.1557 -0.0380  0.0287
46388W        W89404  11.483  27.179   8.101 -0.3285 -0.1544 -0.2472
46389W        W89405  15.863  22.304   5.335 -0.1454 -0.2127  0.1202
46390W        W89406  15.268  21.387  13.745 -0.0437 -0.1589 -0.2319
46391W        W89407  27.598   2.484  25.383 -0.0082  0.2717 -0.2325
46392W        W89408  16.870  31.701   5.798 -0.0265  0.2094  0.2306
46393W        W89409   8.051  24.386  14.598 -0.0032 -0.1533 -0.0070
46394W        W89410   4.608  24.105  22.311  0.0577  0.0966 -0.0131
46395W        W89411  23.136  19.139  14.286 -0.0004 -0.1969 -0.3183
46396W        W89412  34.685  24.327  25.679  0.0168  0.0079  0.4417
46397W        W89413  10.412  12.528  13.916 -0.2993 -0.2145 -0.0023
46398W        W89414  22.789  14.792  26.369  0.1629  0.1469  0.2522
46399W        W89415  29.464  34.606  20.842  0.2288  0.1218 -0.1708
46400W        W89416   5.381  27.920  25.995  0.0826 -0.2634 -0.2261
46401W        W89417   6.092  24.980  16.888 -0.1209  0.0320  0.3161
46402W        W89418  12.090  32.483  23.601 -0.4790 -0.1087 -0.1644
46403W        W89419  22.053  31.865  16.269  0.0917 -0.0466  0.0596
46404W        W89420   5.360  31.279  26.201 -0.1986  0.1152  0.0381
46405W        W89421  18.729  33.002   4.259  0.1140 -0.2120 -0.1330
46406W        W89422  18.167  22.165  13.260 -0.1119 -0.1055 -0.3715
46407W        W89423  28.219  19.015  28.084  0.1678  0.0137  0.1729
46408W        W89424   2.356   7.176  21.933 -0.1735 -0.0599  0.1814
46409W        W89425  16.918  15.453  14.257 -0.2787  0.3894  0.0150
46410W        W89426  31.290  32.810  16.337 -0.1792 -0.2536 -0.2304
46411W        W89427   9.859  33.520   4.751  0.2766  0.3944 -0.1719
46412W        W89428   9.925  17.731   2.725 -0.2319 -0.1586  0.0762
46413W        W89429  19.502  22.013  18.498 -0.0378 -0.1553  0.1209
46414W        W89430  31.296  11.189  27.248  0.2109 -0.1586  0.3043
46415W        W89431   9.539  25.683  23.558  0.2418 -0.3384 -0.2496
46416W        W89432   0.475  18.982  18.595  0.2094  0.2294 -0.0136
46417W        W89433   2.291  25.683   1.340  0.0891  0.3903 -0.1571
46418W        W89434  18.840  34.140  24.926 -0.1486 -0.1289 -0.0870
46419W        W89435   9.527  18.691  13.749  0.1684  0.0833  0.1596
46420W        W89436   1.873  23.504  21.142 -0.1482  0.2465 -0.2898
46421W        W89437  19.562  27.188  23.218  0.2059  0.3166  0.2551
46422W        W89438  31.327  16.880  23.184  0.0563  0.0406 -0.1752
46423W        W89439   6.654   9.791   6.189 -0.0125  0.1700  0.1114
46424W        W89440  10.552  20.072  15.950 -0.0270 -0.0605 -0.1110
46425W        W89441  12.615  27.000  17.568 -0.0509 -0.1036  0.0844
46426W        W89442   8.943   7.642  23.332 -0.3534  0.1576 -0.1416
46427W        W89443  13.028  31.490  29.057 -0.3508 -0.2875 -0.0680
46428W        W89444   0.617  13.105  18.074 -0.1691  0.0861  0.1418
46429W        W89445  18.835   6.755  14.909  0.1414 -0.0215 -0.1169
46430W        W89446   6.697  18.206  12.875 -0.1470 -0.0988  0.1462
46431W        W89447  24.769  17.324  22.352  0.2526  0.1593 -0.2036
46432W        W89448  10.020  15.378  13.947  0.1058  0.1879 -0.1248
46433W        W89449   6.433  10.043   2.093 -0.1280  0.2565  0.1010
46434W        W89450   7.436  16.910  22.500  0.0515 -0.0403 -0.2417
46435W        W89451   8.021  20.977  16.411 -0.2703 -0.0836  0.0785
46436W        W89452  32.557  27.358  14.719 -0.1186 -0.0782  0.2609
46437W        W89453   2.028   3.208  16.730 -0.2676  0.0080 -0.3270
46438W        W89454   7.880  11.771  14.189  0.3306  0.2823  0.1557
46439W        W89455   0.103  34.057   6.657 -0.0420 -0.1850  0.1644
46440W        W89456  34.392  30.503  22.001  0.1080  0.0917  0.1403
46441W        W89457  11.875  20.234   4.334  0.4548  0.5337  0.0952
46442W        W89458  13.825  28.344  26.008 -0.1808 -0.1932 -0.0909
46443W        W89459   2.619  33.845  17.206  0.5176 -0.0026  0.0751
46444W        W89460   1.540  16.448   9.419  0.1272 -0.2558 -0.0372
46445W        W89461   7.669  19.753  12.819  0.0188  0.0647  0.0255
46446W        W89462   5.396  12.542  23.350  0.0784  0.0753  0.0560
46447W        W89463  25.395  14.191  16.908  0.0811  0.3908  0.4167
46448W        W89464  11.361   7.243  23.965  0.1374  0.0695 -0.0901
46449W        W89465  18.661  29.433   0.595 -0.1809 -0.0479  0.1072
46450W        W89466  23.218  24.099  28.749 -0.1792  0.0095 -0.0919
46451W        W89467  26.819  17.049   1.360  0.0736  0.1534  0.0683
46452W        W89468  15.204  25.021  27.356 -0.0026 -0.2327 -0.0867
46453W        W89469  21.756  26.384  18.131  0.1558  0.2542 -0.2945
46454W        W89470   6.900  26.847  25.614  0.1871 -0.1346  0.1898
46455W        W89471   9.778  22.325  23.015 -0.1888 -0.2836  0.0758
46456W        W89472   7.902  27.975  17.331  0.0865  0.0521  0.0850
46457W        W89473  29.574   1.773  22.247 -0.2024  0.2163  0.0681
46458W        W89474  13.404  29.228  19.912  0.0465 -0.2460 -0.2802
46459W        W89475  16.648  20.915   6.162 -0.5247  0.1166  0.3106
46460W        W89476   9.627  10.269  21.148 -0.0079 -0.5651 -0.2558
46461W        W89477   5.136  25.656  19.095 -0.2624  0.1042 -0.2675
46462W        W89478  11.519  26.426  14.168 -0.0354 -0.1514 -0.1580
46463W        W89479   6.139  29.122  16.710  0.0921 -0.1955 -0.1690
46464W        W89480  13.656  19.595  12.417  0.0876  0.2646 -0.0622
46465W        W89481  18.246  26.276  16.967 -0.1068  0.0378 -0.1352
46466W        W89482   4.860  31.465  19.691  0.1825 -0.4717  0.1445
46467W        W89483  19.026  31.495  22.685 -0.3279  0.2857 -0.1549
46468W        W89484  19.274  20.215  15.157  0.3220  0.0560  0.0774
46469W        W89485   6.534  24.860  25.571 -0.1902 -0.1396 -0.5526
46470W        W89486  34.341  10.903  26.174 -0.0006 -0.0176 -0.0524
46471W        W89487   0.738  22.250  26.197  0.1561 -0.0994 -0.2323
46472W        W89488  10.449  31.451  16.263  0.2535  0.1636 -0.0576
46473W        W89489  27.503  32.048  16.336 -0.1429  0.1175 -0.4780
46474W        W89490  20.800  16.895  27.661  0.0586  0.1304  0.4985
46475W        W89491  14.415  30.769  22.792  0.1564 -0.1696  0.2652
46476W        W89492   9.173  26.682  16.996  0.1065 -0.3292  0.0798
46477W        W89493  12.540  12.597   5.573  0.0571 -0.3442  0.0665
46478W        W89494  29.794  13.958  23.792  0.0644  0.0133 -0.1847
46479W        W89495  16.180  26.704  16.311  0.2041 -0.1155 -0.0560
46480W        W89496  13.968   6.004  15.749  0.0715 -0.1782 -0.0353
46481W        W89497   5.107  20.949  18.247 -0.2640 -0.1440  0.2309
46482W        W89498   4.758   1.290  26.860 -0.0552  0.1016 -0.1241
46483W        W89499   2.076  33.793  15.162  0.1194 -0.2811  0.3325
46484W        W89500   7.099  27.581  27.803  0.0677 -0.0086  0.0001
46485W        W89501   5.093   8.623  21.221  0.1197 -0.0697 -0.0481
46486W        W89502   4.194  15.901   1.386 -0.0078  0.1367 -0.0830
46487W        W89503   4.754   4.808  15.756 -0.1236  0.2541  0.0240
46488W        W89504  11.081  25.911   4.119 -0.0337  0.2015 -0.0409
46489W        W89505   5.931  16.519   1.989 -0.1212 -0.1132  0.0014
46490W        W89506  15.636  24.622  18.981  0.0751  0.2287  0.0680
46491W        W89507  19.276  25.098  18.713 -0.0038  0.1271 -0.1666
46492W        W89508  11.350   7.027  23.522 -0.2828 -0.1990 -0.1494
46493W        W89509  10.416  29.843   2.011  0.0081 -0.3461  0.1925
46494W        W89510   8.143  12.578  15.315  0.1158 -0.0449  0.3388
46495W        W89511  25.247  20.276  14.361  0.1826 -0.1401  0.0034
46496W        W89512  10.004  23.389  29.192  0.1496 -0.1239 -0.0680
46497W        W89513   2.809  24.393  21.579  0.0281 -0.2945 -0.2273
46498W        W89514  29.556  10.235  18.142  0.1392  0.2339  0.1601
46499W        W89515   4.043   3.961  23.097  0.0311 -0.1927  0.0630
46500W        W89516  14.440  12.553  25.839 -0.0360  0.0571 -0.2537
46501W        W89517   4.735  31.166  23.841  0.2590 -0.1603 -0.4046
46502W        W89518  32.185  26.986  14.594 -0.2948 -0.0464  0.0140
46503W        W89519  17.459  34.444  17.232 -0.3288  0.2011  0.1419
46504W        W89520  20.198  32.002  17.732 -0.4406 -0.0023 -0.0333
46505W        W89521   0.038   8.659  22.759 -0.0508 -0.1588  0.1197
46506W        W89522  29.771  34.270  19.712 -0.0708  0.0984  0.1481
46507W        W89523  16.136  27.700   3.564  0.1472  0.0164 -0.2099
46508W        W89524   7.910  21.675  19.512 -0.0339 -0.2282  0.0528
46509W        W89525  19.326  32.446  26.346  0.4520 -0.0494 -0.0925
46510W        W89526  31.063  19.010  20.935 -0.0750 -0.0893  0.3023
46511W        W89527  34.590  13.339   1.146  0.2832 -0.2583 -0.0570
46512W        W89528   2.686  27.497  15.064 -0.1234 -0.0229 -0.0731
46513W        W89529   1.794  12.821  15.640  0.0104 -0.1645 -0.0300
46514W        W89530  15.809  33.391   0.357  0.0993  0.0189  0.1745
46515W        W89531  31.191   3.388  20.232  0.1573 -0.1853 -0.2337
46516W        W89532   7.054   7.965  27.872 -0.1905 -0.1065  0.1328
46517W        W89533   3.123  23.916  15.125 -0.2008 -0.0040  0.0144
46518W        W89534   4.630  12.335  15.625 -0.4072  0.1300  0.0989
46519W        W89535  30.837   0.825  18.931 -0.0149  0.0597 -0.0152
46520W        W89536  31.686  28.259   2.210  0.0067  0.0017  0.0752
46521W        W89537   7.306  13.502  26.267  0.0591 -0.0887 -0.3035
46522W        W89538  10.305  28.243   1.757 -0.1504 -0.1406 -0.1547
46523W        W89539  30.110  27.721  20.555  0.0935 -0.0859  0.0230
46524W        W89540   2.667  14.011  19.459  0.2132  0.0609  0.0271
46525W        W89541  26.157  18.670  28.824 -0.0349 -0.0749  0.0542
46526W        W89542   5.846  12.916  14.363  0.1543  0.2905 -0.0636
46527W        W89543   8.180  22.765  28.629  0.1459 -0.1557  0.1436
46528W        W89544   4.221  32.613  22.582 -0.2705  0.2338  0.1223
46529W        W89545   2.237   1.577   7.321  0.0543 -0.0025 -0.2071
46530W        W89546   7.076  23.013  15.362  0.0399 -0.0098  0.0805
46531W        W89547  26.165  26.803  26.638  0.1417  0.1065  0.1731
46532W        W89548  29.438  12.660  23.683  0.1085  0.1485  0.1724
46533W        W89549  10.870  22.306  25.906  0.4424  0.4158 -0.2298
46534W        W89550   2.495  20.906  21.844 -0.3593  0.1458 -0.0595
46535W        W89551  10.468  33.797   5.621  0.0545 -0.1313  0.1810
46536W        W89552  21.780  26.707  25.989 -0.2880  0.5179  0.0948
46537W        W89553   2.841   0.481  19.090 -0.0411  0.4015 -0.0699
46538W        W89554  11.873  15.954  12.840  0.1780  0.1200  0.0527
46539W        W89555  21.457  19.838  16.904 -0.4314  0.1306 -0.0439
46540W        W89556  12.755   2.560  18.576  0.0870  0.0099  0.0802
46541W        W89557  16.998   7.038  25.222  0.1179  0.0456 -0.0554
46542W        W89558   1.587  22.924  13.661  0.1078  0.0354  0.0834
46543W        W89559  11.873   1.533  24.563  0.2456  0.1205 -0.1154
46544W        W89560   3.987  13.127   2.770  0.0917  0.0357 -0.1223
46545W        W89561  20.125  18.569  16.686  0.0091 -0.0585  0.0566
46546W        W89562  12.867  23.780  25.515 -0.0877 -0.3381 -0.0173
46547W        W89563  11.994  21.472  19.572 -0.1808 -0.1493  0.2584
46548W        W89564  18.599  31.828  21.203 -0.0245 -0.0113 -0.0119
46549W        W89565  34.245  14.496  16.320  0.2585  0.3205  0.1961
46550W        W89566   8.776   0.061  16.164 -0.0973 -0.2684  0.0118
46551W        W89567  30.403  14.950  17.786  0.0135 -0.0579 -0.0888
46552W        W89568  34.046  24.823   1.259 -0.2064  0.2385 -0.1137
46553W        W89569  15.269  21.919  22.188 -0.1251  0.3569 -0.2680
46554W        W89570   4.373  29.227   2.887 -0.1103 -0.0895  0.0209
46555W        W89571   6.135  24.352  24.365 -0.0868 -0.0413 -0.0759
46556W        W89572   7.084  29.913  15.678 -0.3822 -0.0948 -0.0128
46557W        W89573  17.342  15.560  12.460 -0.1229  0.0080 -0.0949
46558W        W89574  21.465  31.057  24.233 -0.0224  0.3217 -0.0360
46559W        W89575  13.865  22.609   1.118 -0.1125 -0.1678  0.0980
46560W        W89576   2.608  25.489  17.327  0.0001  0.1495  0.2018
46561W        W89577   2.175   9.962   0.965 -0.3187 -0.0372  0.0790
46562W        W89578  14.500   9.953  19.037  0.0292 -0.0447 -0.0716
46563W        W89579   2.835  22.732  16.566  0.0508  0.0124 -0.0157
46564W        W89580  14.738  23.953  21.103  0.2634 -0.1068 -0.3424
46565W        W89581   8.443  16.880  17.050 -0.0871  0.0144  0.1117
46566W        W89582   0.473  18.435   2.052 -0.0373 -0.2758  0.0594
46567W        W89583   4.077  22.809  28.407 -0.2734 -0.1073  0.0531
46568W        W89584   0.797  20.425  28.397  0.2401  0.3867 -0.4599
46569W        W89585   8.155  27.884  23.810  0.2548 -0.2281  0.2722
46570W        W89586  12.466  32.164  20.830  0.1956  0.1985 -0.3408
46571W        W89587  12.908  20.335  21.998  0.0838 -0.2447 -0.3211
46572W        W89588   0.526  28.397  18.969  0.2814  0.0587 -0.3039
46573W        W89589   2.772   3.544  27.768 -0.1115 -0.0292  0.1205
46574W        W89590  14.246  23.568  18.855 -0.0314  0.0046 -0.0024
46575W        W89591  33.630  18.378   2.765 -0.0519  0.0811 -0.1243
46576W        W89592  21.421  27.395  16.408  0.2143 -0.0406  0.2114
46577W        W89593   4.752  20.315  24.827 -0.0223 -0.0296  0.4352
46578W        W89594  17.447  23.050  14.388 -0.0468 -0.1595  0.0127
46579W        W89595   7.047  12.040  17.892  0.2135  0.0972  0.3310
46580W        W89596  12.330  26.589   8.174  0.0089 -0.0550  0.4065
46581W        W89597   8.702  28.456   2.895  0.0259 -0.1928  0.0157
46582W        W89598  13.548  30.830   7.445 -0.0117 -0.0382 -0.1001
46583W        W89599  12.582   3.171   5.773  0.1548  0.0332 -0.0053
46584W        W89600  12.824  16.913  29.011 -0.4828  0.1178  0.6980
46585W        W89601   6.568  29.344   6.432  0.0980 -0.2029 -0.0074
46586W        W89602   5.284  24.642  20.221 -0.1827 -0.3153  0.2336
46587W        W89603   1.095   0.554  19.028  0.2491  0.0561 -0.4291
46588W        W89604   3.584  24.627  21.456  0.3431  0.2238  0.0058
46589W        W89605   5.102  29.673   7.283 -0.2331  0.0279 -0.1295
46590W        W89606  26.045   2.352   6.258 -0.0474  0.2525 -0.2677
46591W        W89607  29.885  21.406   0.184  0.2278 -0.2852  0.0529
46592W        W89608   5.103  17.889  13.255  0.0164 -0.0772  0.2205
46593W        W89609  17.819  27.032   1.510 -0.0937  0.1897  0.0912
46594W        W89610  12.268  10.140   1.051 -0.2065 -0.0604  0.0273
46595W        W89611   2.102  20.203   1.252 -0.1283 -0.1132 -0.1890
46596W        W89612  15.694  22.236  16.354 -0.0972 -0.1916 -0.0355
46597W        W89613  16.383  31.099  15.056 -0.0411 -0.1216  0.0487
46598W        W89614  18.534  22.540   0.753  0.4061 -0.0428 -0.1408
46599W        W89615  16.149  17.403  27.816 -0.2382  0.1742  0.2789
46600W        W89616   8.879   7.338  26.845  0.0478 -0.0120  0.1682
46601W        W89617  33.375   2.045  14.060  0.0440 -0.2759  0.0107
46602W        W89618  18.995  15.553  25.960 -0.0601 -0.1924 -0.1566
46603W        W89619   4.640  21.595  17.928 -0.0075 -0.1057 -0.1581
46604W        W89620   9.350  24.633  18.599 -0.3717 -0.0577 -0.0121
46605W        W89621  32.416  21.913  18.087  0.2822  0.0854  0.0611
46606W        W89622   4.097  29.636   7.147 -0.0321  0.2026  0.1115
46607W        W89623  34.716  24.309  25.124 -0.3982 -0.1019 -0.3321
46608W        W89624   9.892  21.041  13.259  0.2693  0.1908  0.0968
46609W        W89625  27.063  22.040   3.155 -0.1364 -0.1002  0.1366
46610W        W89626  30.760  32.089   0.275  0.2445  0.2995  0.1497
46611W        W89627   5.616  13.295  26.476  0.0917  0.2817 -0.0058
46612W        W89628  23.469  30.871  25.774  0.2225  0.1189 -0.3545
46613W        W89629  10.554  34.668  20.089 -0.4123 -0.0902  0.0678
46614W        W89630   3.751  22.975  15.931 -0.0352  0.3392 -0.0367
46615W        W89631   4.540   2.700   4.955 -0.1560 -0.1267 -0.1096
46616W        W89632  10.162   8.275  16.251 -0.2199  0.2657 -0.0359
46617W        W89633  24.554  28.934  21.606 -0.3976 -0.3048 -0.0386
46618W        W89634  25.130  28.858  27.750  0.3221 -0.3114 -0.0887
46619W        W89635  12.151  25.079  25.617  0.1081  0.1523 -0.1174
46620W        W89636  16.638   7.053  14.196 -0.0708 -0.2458 -0.0347
46621W        W89637  11.388  34.088  18.020 -0.0473 -0.1874 -0.1684
46622W        W89638  10.093  30.373  21.136 -0.1567 -0.1546  0.2347
46623W        W89639  14.330   8.943  24.640 -0.2443  0.1226 -0.0381
46624W        W89640  30.272   1.690  25.661 -0.1097  0.1166 -0.1557
46625W        W89641   0.048  17.459   4.593  0.0491  0.3204 -0.0025
46626W        W89642  18.306  19.778  15.094 -0.0993 -0.0449  0.1332
46627W        W89643  23.554  25.063  28.700  0.2160 -0.2826 -0.3279
46628W        W89644  12.972  25.815  26.861 -0.3496 -0.2712  0.2340
46629W        W89645  13.845  28.990  23.936  0.2118  0.0836 -0.0997
46630W        W89646   2.058  18.933   6.539 -0.1573  0.2361 -0.0692
46631W        W89647   6.055   7.665  14.929  0.0293 -0.0017 -0.0509
46632W        W89648  30.946  22.477  28.939  0.1127  0.3124  0.1758
46633W        W89649  25.552  25.413  23.514  0.0894  0.2300 -0.0372
46634W        W89650  15.604  32.751   1.995  0.0474  0.2799  0.0383
46635W        W89651   2.902   3.984  17.399  0.0198  0.1543 -0.0744
46636W        W89652  14.133  25.671  20.472  0.0389 -0.2067  0.0405
46637W        W89653  29.419  28.808  26.618 -0.2598  0.1428  0.0850
46638W        W89654  14.988  26.081  25.224  0.0110 -0.2901  0.0078
46639W        W89655  26.459   3.227  25.297  0.0103 -0.0237  0.0295
46640W        W89656  21.703  24.837  17.831  0.3639  0.0256 -0.2703
46641W        W89657   3.302  32.564  18.591  0.2056 -0.1094  0.0389
46642W        W89658   2.763  29.321   5.024 -0.0114  0.3473  0.3180
46643W        W89659  20.444  25.385  22.323 -0.0921 -0.1179  0.1581
46644W        W89660  26.535  22.311  16.792  0.0146  0.0962  0.1053
46645W        W89661  17.045  12.547  22.707 -0.2290 -0.0830 -0.2097
46646W        W89662  13.985  15.399   1.843 -0.2087  0.2528  0.1043
46647W        W89663  11.049  24.596  13.133  0.0035 -0.3978  0.0140
46648W        W89664  22.321  23.594   4.103  0.1752 -0.0795  0.0812
46649W        W89665  25.959  22.429  20.954 -0.0994  0.0149 -0.1192
46650W        W89666  21.101  20.128  28.240  0.1700 -0.3691  0.1664
46651W        W89667  29.424  13.123  14.303  0.1111  0.1399  0.0837
46652W        W89668  34.623  27.638  25.597 -0.1569  0.0789  0.0178
46653W        W89669  25.713  31.764  16.155  0.2822 -0.1589 -0.1762
46654W        W89670  16.343   9.660  12.720 -0.3099 -0.3488  0.1456
46655W        W89671  19.851  32.748  17.259 -0.0525  0.1843 -0.1464
46656W        W89672   6.777  23.085   6.818 -0.0262  0.0862 -0.1379
46657W        W89673  14.091  20.323  12.381  0.1968 -0.0981 -0.0245
46658W        W89674  30.283   2.211  26.235 -0.2064 -0.0990 -0.1749
46659W        W89675  19.887  14.656  13.172 -0.1873  0.1249  0.3089
46660W        W89676   3.318  26.892   5.058  0.0172 -0.1522 -0.2168
46661W        W89677  11.730   2.598  28.408  0.1795 -0.2759  0.2700
46662W        W89678   6.612  21.157  27.162 -0.0373 -0.1119  0.1864
46663W        W89679  27.005  17.198  22.078  0.4410  0.3061 -0.0212
46664W        W89680   6.574  24.365  13.724  0.3298 -0.1555  0.1163
46665W        W89681   9.571  17.278  22.967 -0.0861  0.2343  0.1086
46666W        W89682  11.712  23.111  19.743  0.0175  0.1475  0.1784
46667W        W89683  26.337  20.887  26.642 -0.2739  0.1503  0.1267
46668W        W89684   8.662   0.855   0.967  0.2023 -0.0822 -0.2870
46669W        W89685  23.101   9.387  24.773 -0.0783 -0.3134  0.1073
46670W        W89686   5.144  21.280  14.449 -0.0917  0.1160  0.0579
46671W        W89687  11.657  21.062  23.071 -0.0488  0.1784 -0.0957
46672W        W89688   2.785  17.188  13.227  0.2173  0.1916 -0.1751
46673W        W89689  32.304  33.015  24.242  0.1001 -0.0963 -0.0565
46674W        W89690  15.370   7.081  14.079  0.1992  0.0409 -0.0115
46675W        W89691  15.046  15.591  19.395  0.0030  0.1743 -0.0028
46676W        W89692   3.143  28.181   2.590 -0.0853  0.2578 -0.0039
46677W        W89693  26.923  22.874  16.654 -0.0104 -0.1049 -0.3284
46678W        W89694  13.528  26.223  21.002 -0.0338 -0.0583 -0.0899
46679W        W89695   0.518  23.902  16.572 -0.2114 -0.0818 -0.0817
46680W        W89696  24.422  28.296  18.955 -0.1782  0.3749  0.1215
46681W        W89697  16.637  24.359  17.625  0.0166  0.0866 -0.4604
46682W        W89698   7.055   1.830  23.339  0.0579  0.3575  0.4548
46683W        W89699   3.571  14.934  20.870 -0.0717  0.2017  0.0345
46684W        W89700  34.728  16.921  26.231  0.1997 -0.0496  0.0621
46685W        W89701   6.462  22.141  16.374 -0.1607 -0.1526 -0.1323
46686W        W89702   4.380  24.182   4.041 -0.0774  0.2201 -0.0048
46687W        W89703  32.164   6.425  20.292 -0.2876 -0.0710  0.0427
46688W        W89704  29.907  22.308  27.153  0.2465 -0.0374  0.3492
46689W        W89705  33.383  14.808  27.338 -0.5520 -0.1621 -0.2768
46690W        W89706  33.891  24.925  18.974  0.1602 -0.2429 -0.2139
46691W        W89707  13.149  34.171  16.127  0.2186 -0.2431 -0.0496
46692W        W89708  17.762  14.085  23.941  0.0923 -0.0847  0.1143
46693W        W89709   9.571  24.817   6.384 -0.0364 -0.3301  0.0504
46694W        W89710   9.301   0.822  25.850 -0.0484  0.1902 -0.0907
46695W        W89711  17.338   1.487  20.128  0.0046 -0.0679  0.3621
46696W        W89712  10.619   3.154  21.776  0.0912  0.1620 -0.3449
46697W        W89713   7.188  30.347  25.339 -0.1119  0.0239 -0.0675
46698W        W89714   4.766  13.531   8.143 -0.0704  0.1256 -0.0799
46699W        W89715   8.987  23.142   3.198  0.0718 -0.0859 -0.1806
46700W        W89716   6.062  17.919  15.901 -0.1601 -0.3281 -0.0937
46701W        W89717  29.561  22.957  19.985  0.2389 -0.0244 -0.0833
46702W        W89718   8.451  22.456   4.188 -0.0901  0.2315 -0.0524
46703W        W89719   0.148   5.415  17.052  0.1430  0.3777  0.3755
46704W        W89720  21.812  24.456  20.835  0.1781  0.1184 -0.1482
46705W        W89721  20.201  32.832   2.023  0.1495 -0.2117 -0.1447
46706W        W89722   9.971  25.636  18.106  0.1385  0.0680  0.0510
46707W        W89723   8.662   8.058  18.252  0.0164  0.1170 -0.1830
46708W        W89724  33.245  15.165  24.625  0.0108 -0.0219  0.0862
46709W        W89725  16.048   4.006  14.597 -0.0534 -0.0885  0.0620
46710W        W89726   3.529  21.729   1.838 -0.1260  0.0876 -0.0289
46711W        W89727  32.622  27.307   0.761 -0.4786  0.1080 -0.1379
46712W        W89728  11.416  13.584  26.101 -0.2355 -0.1729 -0.2052
46713W        W89729  18.100  16.799  17.553  0.1129  0.0499 -0.0234
46714W        W89730   9.796   7.160  17.629  0.2493  0.1852  0.0770
46715W        W89731   6.789  15.501   3.234  0.0152  0.1255 -0.0406
46716W        W89732  34.544  29.979  24.498  0.4387 -0.1864  0.1424
46717W        W89733   5.449  22.749  26.421  0.4629  0.1469  0.0226
46718W        W89734   8.276   9.949  21.527 -0.2222 -0.3428 -0.1011
46719W        W89735   8.564  18.862  13.513  0.2062  0.0876  0.2582
46720W        W89736  19.521   1.534  17.664 -0.2347 -0.2792  0.0208
46721W        W89737   1.537  26.933  14.609  0.0821 -0.0482 -0.1263
46722W        W89738  15.735  30.776   9.295 -0.0668 -0.4171  0.3095
46723W        W89739   8.836  29.052   4.715  0.0118 -0.3335  0.1585
46724W        W89740  33.507  32.640   7.153  0.1676 -0.0380  0.2043
46725W        W89741  15.488  24.853   3.775  0.0898  0.0273 -0.2162
46726W        W89742  27.716  12.908  15.439  0.0335 -0.0368 -0.1142
46727W        W89743  13.679  27.277  13.170 -0.0857  0.1279 -0.0453
46728W        W89744   9.265  27.776  22.791  0.2355 -0.1593  0.0837
46729W        W89745   5.516  19.146   4.920  0.0217 -0.1376 -0.3067
46730W        W89746  24.055  18.677  23.064  0.1707  0.1695  0.0062
46731W        W89747   6.079   3.680  22.939  0.0070 -0.1587  0.0323
46732W        W89748  29.796  10.050   1.692 -0.1564  0.1580  0.1557
46733W        W89749   5.033  15.249  14.571  0.1556 -0.1904  0.1379
46734W        W89750  12.322  20.579  26.954  0.1210  0.1483 -0.2631
46735W        W89751  11.584  18.913  18.736  0.0069  0.2876 -0.1481
46736W        W89752   7.920  22.634  25.625 -0.3771 -0.0420  0.1480
46737W        W89753  14.310   2.728  14.096  0.0314  0.0754 -0.0444
46738W        W89754   5.033  30.264  24.121  0.2241  0.1013  0.0874
46739W        W89755   6.431  23.336  23.064  0.1614  0.0263 -0.2827
46740W        W89756  12.657  28.120  23.854 -0.0963  0.1011 -0.5485
46741W        W89757  31.295  18.847   1.574  0.1405 -0.1996  0.2256
46742W        W89758  18.568  26.829   2.064 -0.2870 -0.1259  0.0436
46743W        W89759  18.978  23.600  14.377 -0.0013  0.1703  0.0474
46744W        W89760   8.929   4.988  27.646 -0.0517 -0.0648  0.3606
46745W        W89761   8.888  28.598  19.389  0.0381  0.0063  0.1028
46746W        W89762  34.601  10.222  10.227  0.0526 -0.1575  0.0147
46747W        W89763  28.019  18.063  15.723 -0.0153  0.0774  0.0886
46748W        W89764   5.494  30.315  25.889  0.1702  0.0049 -0.3418
46749W        W89765  22.825  30.116  20.559  0.0284  0.1682 -0.1563
46750W        W89766  27.883  22.579  15.603  0.1033 -0.1538 -0.2828
46751W        W89767   7.592   3.314  28.887 -0.1448 -0.3456  0.4677
46752W        W89768   9.408  10.614  19.867  0.0891 -0.0168  0.1461
46753W        W89769  10.653  16.156  14.076  0.0541  0.0861 -0.0330
46754W        W89770  19.436  33.448   6.283  0.0812 -0.5587 -0.0773
46755W        W89771  28.043  29.394  23.785 -0.2178  0.0524 -0.0254
46756W        W89772   5.288  17.031  17.375 -0.2838  0.1587  0.0152
46757W        W89773  21.846  24.397   3.017 -0.3424  0.1162  0.0823
46758W        W89774  22.967  31.081  28.518  0.2973  0.0160 -0.0649
46759W        W89775  29.745  17.245  26.403 -0.0439  0.0911 -0.4561
46760W        W89776   7.873  15.564  23.676  0.0512 -0.2214  0.2721
46761W        W89777  33.206  24.372   2.978  0.0436  0.0048 -0.2525
46762W        W89778  26.123  26.539  16.794  0.2915 -0.0100 -0.3041
46763W        W89779  28.866  28.418  17.231 -0.0967 -0.1367 -0.0172
46764W        W89780   2.125  25.790  16.612 -0.0083  0.2153  0.1619
46765W        W89781  11.330  28.281  14.475  0.2216  0.1321  0.0601
46766W        W89782   2.989  18.259  22.603  0.1017 -0.0990 -0.3892
46767W        W89783  29.200   0.842  10.880  0.0234  0.1408  0.2102
46768W        W89784   9.746  33.184   2.841  0.2233 -0.0783 -0.1695
46769W        W89785  31.020  13.059  24.729  0.4911 -0.1183  0.1331
46770W        W89786   3.983  24.305  18.309  0.3134  0.3462 -0.0065
46771W        W89787  18.237  25.861  13.478 -0.3104 -0.0331  0.0959
46772W        W89788  12.890   4.636   9.612 -0.0854  0.1114 -0.1912
46773W        W89789  32.634  11.195  22.903 -0.2553  0.2417 -0.3362
46774W        W89790  20.247  18.492  27.379  0.0299  0.0066 -0.0206
46775W        W89791   5.099  14.920  24.922 -0.1139 -0.2427  0.1608
46776W        W89792   4.310   5.535  21.340  0.0092 -0.1054 -0.2344
46777W        W89793   3.838  12.957  23.509 -0.0636 -0.1614  0.0691
46778W        W89794  11.387   0.152  21.212  0.0064 -0.3937 -0.1105
46779W        W89795  26.460  23.404  24.051 -0.1424  0.0408 -0.1504
46780W        W89796  28.466  30.327  21.521  0.0380  0.1252 -0.0839
46781W        W89797  24.084  13.374  25.341 -0.2774 -0.0681  0.2704
46782W        W89798   8.921  24.976  21.829 -0.0169 -0.1226  0.2605
46783W        W89799  16.464  19.682   3.925 -0.0859  0.2170 -0.2142
46784W        W89800  27.257   9.175  20.057 -0.0727  0.2286 -0.0864
46785W        W89801  16.703  28.025  22.113  0.2211  0.3021  0.2595
46786W        W89802   5.627   8.588  25.227  0.2478 -0.3739  0.2182
46787W        W89803   9.556  22.731  18.286  0.0492  0.0985 -0.0487
46788W        W89804  11.167  29.046   3.492  0.0417 -0.1247 -0.2020
46789W        W89805   6.160  23.384  26.047  0.0439  0.2908  0.2437
46790W        W89806   4.906  22.897  25.055  0.1697 -0.2938  0.1598
46791W        W89807  12.671  27.201  15.816 -0.1161  0.0383 -0.0403
46792W        W89808  19.877  22.895  22.873 -0.1188  0.0057 -0.1833
46793W        W89809   9.656  34.005   2.514  0.0437  0.0717 -0.0025
46794W        W89810   1.604  25.335  24.875 -0.2466 -0.1646 -0.1168
46795W        W89811   9.315   4.447  27.722 -0.1304  0.0711  0.2270
46796W        W89812  29.714  20.208  10.089 -0.0244  0.0824 -0.0524
46797W        W89813  27.460  26.141  20.430 -0.1377  0.1150  0.2885
46798W        W89814  19.865  19.553  14.949  0.1571  0.0160  0.1459
46799W        W89815  12.994  24.634  28.903 -0.0083  0.0651  0.0624
46800W        W89816  23.126  23.341  23.928  0.0115 -0.0023  0.0791
46801W        W89817  17.444  29.204  22.282 -0.0067 -0.0391  0.0308
46802W        W89818   1.201   7.573  20.380 -0.1969  0.1549 -0.0198
46803W        W89819   8.812  30.312  21.938  0.0750 -0.0717  0.0809
46804W        W89820   9.632  18.443  13.299 -0.0674 -0.2194  0.2582
46805W        W89821  21.688  33.354  24.447  0.0020 -0.1345  0.0062
46806W        W89822  16.091  18.970  20.035  0.0443  0.0860  0.0843
46807W        W89823  10.414  31.398  28.804  0.1772  0.1033  0.1480
46808W        W89824   4.157  19.577  20.297 -0.1236 -0.0969 -0.2599
46809W        W89825  20.975  19.909   0.545 -0.1050  0.0127 -0.1113
46810W        W89826  13.157  32.338  17.408  0.1882  0.0954 -0.3251
46811W        W89827  20.226   1.435  19.515  0.0955  0.2581 -0.1060
46812W        W89828  11.602  20.778  19.223 -0.3399  0.2007 -0.1405
46813W        W89829  16.849  27.831  15.021  0.1384 -0.3778 -0.0982
46814W        W89830   0.392  27.764  14.800  0.0603  0.3735 -0.4015
46815W        W89831  10.540  25.556  27.580 -0.1670  0.0360 -0.4776
46816W        W89832  12.761  14.854  16.888 -0.0429 -0.2595 -0.0364
46817W        W89833  24.264  20.886  14.335 -0.0555  0.0064 -0.2421
46818W        W89834   8.237  26.678  25.627 -0.1047 -0.2614 -0.0580
46819W        W89835  12.473  18.078   3.914  0.3088 -0.0929 -0.1102
46820W        W89836  19.731   0.010  18.043 -0.1795  0.1849 -0.0334
46821W        W89837   4.049  33.147   8.644  0.1179 -0.2189  0.1058
46822W        W89838  22.285  25.014   4.101  0.0916 -0.2135  0.3540
46823W        W89839  11.992  31.702  21.974 -0.0225 -0.2129 -0.1364
46824W        W89840  33.501  14.599   8.545 -0.2538  0.1577  0.2421
46825W        W89841  20.659  31.657  24.008  0.3002 -0.0432  0.2128
46826W        W89842   7.762  21.593  17.823  0.0248  0.0517 -0.0214
46827W        W89843  14.905  28.840   7.812  0.4534  0.2485  0.0816
46828W        W89844  16.752  19.747  12.420 -0.3402 -0.1335  0.1160
46829W        W89845  29.870  23.900  20.758  0.2129  0.0022 -0.1038
46830W        W89846   6.068   8.669  24.894  0.2723  0.4049  0.0309
46831W        W89847   6.170  22.407  24.718  0.1727  0.0893  0.2713
46832W        W89848   4.838   5.134  16.498  0.1721 -0.4136  0.1377
46833W        W89849   7.833  18.996  26.924  0.1370 -0.3906 -0.0915
46834W        W89850   7.306   8.136  20.773  0.2428 -0.1775  0.2155
46835W        W89851   2.546  13.084   9.181  0.1964  0.0776 -0.0495
46836W        W89852   9.582  32.524   1.343  0.1105 -0.2334 -0.1340
46837W        W89853  31.730  32.165   4.644  0.2396  0.0588 -0.0010
46838W        W89854  12.901  13.532  22.447 -0.0216 -0.1874 -0.0313
46839W        W89855  10.509  26.164   1.170  0.1803 -0.0684  0.0846
46840W        W89856  19.745  24.432  23.979  0.2261  0.0975  0.3147
46841W        W89857   3.518  18.890  20.945  0.2108 -0.0421  0.0757
46842W        W89858   3.013  11.824   9.906  0.1195  0.1553  0.0442
46843W        W89859  16.553   7.199   7.165  0.1165  0.0175 -0.1037
46844W        W89860  26.677  16.330  26.337  0.0947 -0.0026 -0.2344
46845W        W89861  11.981  16.957  25.387 -0.0221 -0.0925  0.2635
46846W        W89862  17.464  30.638  15.180  0.1004 -0.0971 -0.1808
46847W        W89863  20.346  16.586  27.420  0.0558  0.1475 -0.0845
46848W        W89864  11.423  15.091  15.652  0.1366 -0.0942 -0.0363
46849W        W89865  21.844   1.644   3.421 -0.0037 -0.2055 -0.0051
46850W        W89866  10.871   0.655  28.190  0.3040  0.0334  0.0723
46851W        W89867  21.910  16.319  21.930  0.0348  0.0654  0.1640
46852W        W89868  13.738  33.327   3.841  0.4850 -0.0946 -0.3001
46853W        W89869  10.958  22.103  15.587  0.0606 -0.3069  0.1722
46854W        W89870   5.487  10.113  18.548  0.0819  0.4154  0.1373
46855W        W89871  20.750  29.793  16.382 -0.0188  0.2742  0.1080
46856W        W89872   8.490  23.366  13.789 -0.2797  0.3762  0.3436
46857W        W89873  13.750  31.115   0.568 -0.1032 -0.0400 -0.1388
46858W        W89874  13.504  33.742  18.630  0.2253  0.3652 -0.1135
46859W        W89875  22.756  21.853  25.995 -0.0642 -0.4573  0.4819
46860W        W89876  25.768  17.953  17.223  0.2627  0.2108 -0.0222
46861W        W89877  19.378  20.083   2.338  0.1908 -0.0204  0.0507
46862W        W89878  34.562  12.258  18.529 -0.0689  0.3892  0.1176
46863W        W89879   1.957  27.843  26.098 -0.1429 -0.1674  0.1149
46864W        W89880  16.181  16.253  18.555  0.0408 -0.0154 -0.0695
46865W        W89881  19.008  10.064   2.158  0.0192 -0.0977  0.2952
46866W        W89882  22.671  21.219  28.862  0.1293 -0.0143 -0.0058
46867W        W89883  22.204  22.717  17.789  0.2383 -0.1062 -0.0572
46868W        W89884   1.858  10.808  26.836 -0.1398  0.2578 -0.0144
46869W        W89885   0.111  31.708  24.624 -0.0093 -0.1235 -0.0653
46870W        W89886   6.740   9.856  25.219  0.1775 -0.1719 -0.1000
46871W        W89887   4.316   1.876  15.407 -0.2012  0.3011 -0.2761
46872W        W89888   1.610  18.968  14.765  0.2492 -0.1310  0.0640
46873W        W89889  22.143  18.891  26.545 -0.1644  0.0080  0.1084
46874W        W89890   8.553   9.170  14.361  0.0678 -0.0260  0.0005
46875W        W89891  20.301  15.357  12.957 -0.0595 -0.1997  0.0843
46876W        W89892   2.640  22.262  24.472 -0.0268 -0.0538 -0.0202
46877W        W89893  33.734  18.505  22.528 -0.3304 -0.0154 -0.0786
46878W        W89894  24.595  13.875  15.315  0.1102 -0.2401 -0.1825
46879W        W89895  14.450  27.888   0.782  0.2621  0.2632 -0.3910
46880W        W89896   5.588  13.824  15.445  0.1142 -0.0254 -0.1932
46881W        W89897  27.879   4.044   1.333 -0.2221 -0.4817 -0.1639
46882W        W89898  12.536  15.293   1.056 -0.0785 -0.0613  0.1602
46883W        W89899   8.039   0.196   4.208  0.1173 -0.0354 -0.1726
46884W        W89900  28.537  17.088  26.693  0.4059 -0.2049 -0.1076
46885W        W89901   4.835  18.186  16.606  0.1753  0.1514 -0.0226
46886W        W89902  19.514  30.834  24.159  0.1911 -0.2970  0.0379
46887W        W89903  14.100  18.930  11.169  0.3234 -0.0053  0.2903
46888W        W89904   5.351   5.780  26.374 -0.1035  0.0833  0.0361
46889W        W89905  13.912  27.714   2.013 -0.0645 -0.2071  0.1059
46890W        W89906  23.474  21.191  25.844  0.0650  0.0012 -0.4096
46891W        W89907   5.964  31.183  16.250  0.0518  0.1367 -0.3502
46892W        W89908  29.514  25.532   3.835 -0.1447 -0.0585  0.2240
46893W        W89909  32.808  20.154  21.328  0.0653 -0.1161 -0.0910
46894W        W89910  20.378  10.695  13.194  0.0589 -0.2923  0.2722
46895W        W89911  13.694  23.434  13.680 -0.0318  0.1261  0.3549
46896W        W89912  29.025  33.711  24.409 -0.2302  0.0286 -0.2119
46897W        W89913  15.505  18.516  20.336 -0.1121 -0.1679  0.2269
46898W        W89914  14.590  22.710  18.621 -0.0042  0.0138 -0.0037
46899W        W89915   3.023  25.812  25.883 -0.2013  0.0538 -0.2491
46900W        W89916  30.090  22.328  17.766  0.1049  0.1467  0.0551
46901W        W89917   8.756  21.546  17.293  0.0985 -0.1502  0.3262
46902W        W89918  31.882  21.842  14.098 -0.3911 -0.2580 -0.0158
46903W        W89919  10.593  13.197  23.103  0.0411  0.2189 -0.1046
46904W        W89920  15.458  12.949   5.741 -0.2075 -0.0120  0.1432
46905W        W89921  30.810  13.905  15.178  0.1592  0.0542  0.2144
46906W        W89922  22.639   5.889   7.214 -0.1210 -0.0216 -0.0890
46907W        W89923  30.904   5.441   5.128  0.1145  0.2532  0.0761
46908W        W89924   3.980  14.653   5.091 -0.0600 -0.3519 -0.0691
46909W        W89925   1.003  19.681  22.049 -0.0486 -0.0765 -0.2641
46910W        W89926  31.971  26.524  19.066 -0.0706  0.1490  0.0922
46911W        W89927   1.065  29.357  21.858  0.1385 -0.0412 -0.1777
46912W        W89928   7.723  18.246  21.675 -0.0671 -0.0192 -0.2681
46913W        W89929  23.551  30.322  23.588  0.3148  0.2651  0.1162
46914W        W89930  34.430  26.600  26.292  0.0834 -0.1090  0.0366
46915W        W89931   7.704  20.475  20.903 -0.1799 -0.3304  0.0522
46916W        W89932  12.199  25.451  19.750  0.0595 -0.0092  0.2002
46917W        W89933   6.096  17.056  15.184 -0.2020 -0.0887 -0.1504
46918W        W89934  25.500  16.536  24.829  0.0830  0.2041  0.0256
46919W        W89935   9.243  27.981   9.874 -0.4317  0.0065  0.1565
46920W        W89936  22.684  17.033  14.186  0.0949 -0.1920  0.1281
46921W        W89937  19.976  15.811  24.766  0.0951  0.0027  0.1001
46922W        W89938   3.827  12.073  17.119 -0.0647 -0.0866  0.2558
46923W        W89939   6.768  31.016  17.632  0.0396  0.1185  0.1238
46924W        W89940  20.651  10.782  16.661 -0.0955  0.0572  0.4489
46925W        W89941   7.396   0.593   3.060  0.2419 -0.1700  0.3861
46926W        W89942  13.715  19.962  12.715  0.3344 -0.0771 -0.0209
46927W        W89943  10.554   2.639  21.845 -0.2247 -0.4663 -0.1582
46928W        W89944   7.620  33.439   0.001  0.0688  0.0197 -0.1445
46929W        W89945   3.386  20.004   4.500  0.2263 -0.3135  0.0612
46930W        W89946   2.706  16.169  24.549  0.1109  0.0061 -0.0372
46931W        W89947   2.301  15.446  27.950 -0.2023 -0.0371  0.0669
46932W        W89948   8.725   5.159  19.640  0.0361 -0.0180  0.2126
46933W        W89949   3.658  28.712   1.704 -0.1760 -0.1388  0.2162
46934W        W89950   9.178  30.585  24.437 -0.0095 -0.0097  0.0682
46935W        W89951  14.112  20.962  20.105  0.2197  0.0047 -0.1810
46936W        W89952  11.188   2.245   7.691 -0.1130 -0.0772 -0.0411
46937W        W89953   9.155  31.796  27.198 -0.0788  0.1626  0.3554
46938W        W89954   5.025  19.210   0.189  0.0339 -0.0888 -0.0557
46939W        W89955   7.708  12.518  16.310 -0.0630  0.2178 -0.1398
46940W        W89956   2.278  20.659  15.227 -0.1287 -0.2601  0.0166
46941W        W89957   0.312  15.699  29.302  0.0041  0.0610 -0.1771
46942W        W89958  20.722   0.520   5.069 -0.1195 -0.1484 -0.0401
46943W        W89959   6.224  12.821   3.536 -0.0518  0.2736  0.1415
46944W        W89960  20.809  11.457   0.933  0.0259 -0.0772  0.1213
46945W        W89961  10.399   8.708  19.125  0.1632  0.2159 -0.0372
46946W        W89962  14.781  22.873   3.068 -0.3168 -0.0249 -0.0970
46947W        W89963   9.351  20.028   2.056 -0.2667 -0.0018 -0.0576
46948W        W89964   5.454  15.784   9.817 -0.4607 -0.1152  0.0086
46949W        W89965   5.425  12.795  27.937  0.0187  0.1275 -0.0570
46950W        W89966  11.124  25.747  18.839  0.1212  0.3290 -0.0871
46951W        W89967  16.324  31.759  17.600  0.0083 -0.0881  0.0600
46952W        W89968  14.751   9.470  18.350  0.0121  0.1254 -0.5066
46953W        W89969  13.279  25.150   4.510 -0.1474 -0.3819  0.0775
46954W        W89970  12.366  26.862  28.293 -0.0868  0.1535 -0.0398
46955W        W89971   7.058  13.523  15.046  0.0294 -0.1201 -0.0619
46956W        W89972  34.390  13.664  20.813 -0.0074 -0.0538 -0.0292
46957W        W89973   7.731   7.234   8.307 -0.0925 -0.3366  0.1043
46958W        W89974  11.229  25.435  21.602  0.0253  0.0969  0.0675
46959W        W89975  11.442  26.681  14.826  0.2466 -0.1866 -0.0929
46960W        W89976  18.436  22.670  18.276  0.1332  0.0311 -0.0051
46961W        W89977  29.922  19.836   1.349 -0.0238  0.3054 -0.2285
46962W        W89978  18.116  18.507  12.588  0.0502 -0.0287  0.0845
46963W        W89979  11.201  15.051  21.139 -0.0226  0.0682 -0.0812
46964W        W89980  18.052  26.450  28.281 -0.0120  0.0765  0.1122
46965W        W89981  18.762  21.555   7.113 -0.0945 -0.4469 -0.0990
46966W        W89982  18.666  22.692   5.651  0.0721  0.3414 -0.2957
46967W        W89983   9.292  21.124  17.074  0.2113  0.2120  0.0985
46968W        W89984   6.421  24.705  16.524  0.0462  0.0696 -0.0899
46969W        W89985  16.702  18.866   4.720  0.1436  0.3184 -0.0991
46970W        W89986  33.181  33.398   6.109 -0.1430  0.0224  0.1657
46971W        W89987  16.334  24.069  12.618 -0.4960 -0.0255  0.2906
46972W        W89988  13.532  29.135  17.540 -0.2240 -0.1555 -0.0502
46973W        W89989  12.680  22.883   5.197  0.1132 -0.0369  0.0328
46974W        W89990  17.960  25.340   6.835 -0.0028  0.0510  0.2974
46975W        W89991  21.540  32.993  20.113  0.0746  0.2351  0.0158
46976W        W89992   5.399  28.349  20.140  0.0342 -0.0362  0.2055
46977W        W89993  14.853  10.721  13.712  0.2763 -0.0005 -0.0190
46978W        W89994  25.637  11.404  23.987  0.1982 -0.1662  0.1947
46979W        W89995   4.818  16.148  14.122 -0.0647  0.0910  0.0748
46980W        W89996   0.774  25.022  22.141 -0.2163  0.4409 -0.2346
46981W        W89997  19.450  29.713  20.593 -0.1835 -0.1901  0.2610
46982W        W89998  11.453  16.523  26.594 -0.3507 -0.1765 -0.1535
46983W        W89999   7.390  12.334  15.986  0.0012 -0.0101  0.0746
46984W        W90000  13.911   4.439  28.268 -0.2529 -0.0909 -0.3157
46985W        W90001  18.484  19.629   1.319 -0.0128  0.1387 -0.0272
46986W        W90002   2.927  20.440   0.898  0.0091 -0.0469 -0.1455
46987W        W90003  16.254  14.809   2.356 -0.5121  0.0903  0.1871
46988W        W90004  19.848  21.950   3.446  0.0411  0.0483  0.2332
46989W        W90005  25.871  17.513  19.527  0.1519 -0.0359 -0.2238
46990W        W90006   2.267  21.183  26.122 -0.1213  0.0955  0.0200
46991W        W90007  24.072  34.112  23.332 -0.1115  0.0462 -0.0287
46992W        W90008  15.594  26.280  20.933 -0.1708 -0.0120  0.0306
46993W        W90009   4.314  19.686   0.176  0.1338 -0.1468 -0.0430
46994W        W90010  25.500  24.417  19.035 -0.3452  0.0333 -0.0307
46995W        W90011   5.349  21.392   7.820 -0.1706  0.0014  0.0365
46996W        W90012  20.822  33.217   7.745  0.3322 -0.3538  0.3126
46997W        W90013  33.053  16.996  18.750  0.3667  0.0367 -0.1925
46998W        W90014  18.217  26.803   7.632 -0.2077  0.0085  0.3421
46999W        W90015  17.675  28.332  25.778  0.0745  0.0335  0.0060
47000W        W90016   6.806  28.475   4.108 -0.0881  0.3054 -0.0336
47001W        W90017   0.892  15.910  24.489 -0.1841 -0.0797 -0.1096
47002W        W90018  16.579  29.150  28.570 -0.0100 -0.4520 -0.1356
47003W        W90019  15.077   5.052  16.807  0.4733  0.1872 -0.0431
47004W        W90020   1.609  15.148  23.382 -0.0266  0.0039 -0.1334
47005W        W90021   2.440  11.070   5.164  0.1105  0.1440 -0.1136
47006W        W90022  24.617   9.218  18.077 -0.1316  0.4775  0.0537
47007W        W90023  20.225  27.620  23.848  0.0592  0.3927 -0.1875
47008W        W90024   1.873   7.985  23.348 -0.4193 -0.0496 -0.1237
47009W        W90025   5.285  12.480  25.605 -0.1012  0.1936 -0.1107
47010W        W90026   2.168   7.909   5.370 -0.0200  0.3125 -0.0773
47011W        W90027  25.079   8.434   3.897  0.2002  0.0649 -0.0165
47012W        W90028   3.085  25.250  25.947 -0.1604  0.0017  0.3053
47013W        W90029  24.401  20.970  25.514  0.2860 -0.1338  0.0901
47014W        W90030  17.016   2.529   9.186  0.1521 -0.1313 -0.3933
47015W        W90031  13.881  19.617  29.024 -0.0947  0.0527  0.0006
47016W        W90032   4.954  10.173  19.580  0.3082  0.0496  0.0722
47017W        W90033   4.617   5.037   4.701 -0.2097  0.0187 -0.0193
47018W        W90034  34.321  21.259  23.714 -0.1884 -0.0063 -0.1843
47019W        W90035  10.223  15.287   5.937  0.1729  0.2444  0.1876
47020W        W90036  10.023  30.701   1.761 -0.0682  0.3559  0.1582
47021W        W90037   1.965  34.656  14.911 -0.0138 -0.2315  0.3778
47022W        W90038   3.986  27.837   1.254  0.0941 -0.2026  0.1817
47023W        W90039  33.348  32.106  26.274  0.1532  0.0874  0.2447
47024W        W90040  26.572   2.166  26.923 -0.1574  0.3159  0.1004
47025W        W90041   3.711  17.183   4.059 -0.1057 -0.2176  0.1535
47026W        W90042   7.107  10.693   2.464 -0.1049  0.3615 -0.0866
47027W        W90043   0.971  27.537   5.672  0.0886 -0.1392  0.0403
47028W        W90044  18.826  18.981  23.999  0.0699 -0.3251  0.1683
47029W        W90045   8.385  17.542  16.810 -0.0463 -0.3251 -0.1596
47030W        W90046  16.706  25.343  24.230 -0.2044 -0.2920 -0.2717
47031W        W90047  11.068   2.052  27.328  0.0716 -0.2333  0.2154
47032W        W90048  23.438  23.445   3.941 -0.2533  0.1690  0.0002
47033W        W90049  22.452   6.156   8.090 -0.1192  0.1233  0.0939
47034W        W90050   6.670  20.996  18.987  0.1431 -0.0939 -0.1105
47035W        W90051  33.938  31.994  19.901 -0.0052 -0.1085 -0.2734
47036W        W90052   1.758  19.906   4.125 -0.0841  0.1659 -0.0997
47037W        W90053  17.472  28.362  22.667 -0.1635  0.2405  0.1727
47038W        W90054  31.441  30.102  19.734 -0.2904  0.3375  0.2556
47039W        W90055  10.463  22.290  22.433  0.1894 -0.1094 -0.3995
47040W        W90056  34.644  18.003   8.754 -0.0051 -0.1039 -0.0025
47041W        W90057  24.617  29.900  27.005  0.0782  0.3389 -0.0633
47042W        W90058  28.174   7.332  16.753  0.2981  0.1100  0.1485
47043W        W90059   5.838  24.665   7.995 -0.1114  0.0201 -0.1248
47044W        W90060  14.250  22.991   4.927  0.0860 -0.2314  0.2893
47045W        W90061  11.454  22.241   9.074 -0.3117 -0.0534 -0.2181
47046W        W90062  10.913  14.266  19.713  0.0713 -0.1281  0.3121
47047W        W90063   8.251  18.639   0.592 -0.0236 -0.2092 -0.1872
47048W        W90064   4.142  29.725  25.079  0.4557 -0.0013 -0.1105
47049W        W90065  31.554  26.812   3.774 -0.0764  0.2006 -0.0191
47050W        W90066   0.232  31.034   8.598 -0.4371  0.1954  0.0984
47051W        W90067   6.391   9.151   6.155 -0.0593  0.3178  0.0532
47052W        W90068  13.507  31.966  24.415  0.3140 -0.1219  0.2546
47053W        W90069  11.219  26.002  13.393  0.0082  0.0394 -0.2048
47054W        W90070  10.802   9.427  17.173  0.2276 -0.2865  0.1609
47055W        W90071  10.442  15.711  28.020  0.0552 -0.1594 -0.0664
47056W        W90072  30.416  22.975  19.224 -0.0935  0.1182  0.0463
47057W        W90073  10.052  23.773  16.907 -0.1457  0.3847  0.4423
47058W        W90074  16.180  17.958   0.671  0.1897  0.3003  0.0432
47059W        W90075  17.193   6.903  22.999 -0.2478 -0.0953 -0.0133
47060W        W90076   3.285   1.719  19.217 -0.2217 -0.1011  0.3057
47061W        W90077  15.769   5.379  22.610  0.0095 -0.0751  0.0756
47062W        W90078  31.497  18.926  26.275  0.0073 -0.3459  0.2223
47063W        W90079  11.415  24.850   1.187 -0.0623  0.0547 -0.1701
47064W        W90080  11.109  19.967  22.539 -0.0802 -0.0177 -0.1088
47065W        W90081  15.364  22.437  18.854 -0.2142  0.3228 -0.0400
47066W        W90082   7.021  12.040  18.673 -0.1973 -0.2106  0.0321
47067W        W90083   4.192   3.145   8.994  0.0904 -0.2463 -0.0251
47068W        W90084   4.438   1.659   2.900  0.1586  0.2171 -0.2168
47069W        W90085   7.332   1.171   9.905  0.1723  0.3292 -0.2288
47070W        W90086  13.458  22.957  16.085 -0.3782 -0.1112 -0.1742
47071W        W90087   9.938  22.050   3.258 -0.0102  0.3366  0.2091
47072W        W90088   6.951  22.616   6.651 -0.0668  0.2518  0.2651
47073W        W90089   7.764  26.074  20.157  0.1949  0.0266  0.0073
47074W        W90090  14.388  30.166   8.912  0.0642 -0.3158 -0.0599
47075W        W90091   7.123  21.247  17.943 -0.0179  0.0385  0.0510
47076W        W90092  17.817  19.590  15.154  0.2974 -0.1677  0.4087
47077W        W90093   7.830  15.403  22.346  0.2317  0.1390 -0.2240
47078W        W90094   2.055  23.467   4.867 -0.1389  0.2863 -0.3543
47079W        W90095  13.011  33.604  17.379  0.0870  0.1279  0.1975
47080W        W90096   7.898  21.764   3.370 -0.2339  0.3779 -0.0916
47081W        W90097  27.227   1.063  17.589  0.0817 -0.0269 -0.2619
47082W        W90098  34.289  26.002  22.724 -0.2968  0.1886 -0.0800
47083W        W90099  33.774  26.958  28.571  0.0062  0.2730  0.1296
47084W        W90100  19.892  22.707   2.339 -0.0751  0.1500 -0.0049
47085W        W90101   8.152  32.055  15.076 -0.1978 -0.0371  0.2966
47086W        W90102   5.757  19.351   0.771  0.0979 -0.1337 -0.2916
47087W        W90103  20.422  19.982  20.925 -0.0902  0.0974  0.2358
47088W        W90104  24.603   2.212  15.574  0.0070 -0.0069 -0.3311
47089W        W90105  25.009  21.424  16.769  0.0504 -0.1867  0.0592
47090W        W90106  18.948  25.639   9.198 -0.0746 -0.0178 -0.0208
47091W        W90107  18.394  31.178  19.917  0.1330 -0.1413 -0.0817
47092W        W90108  24.392  16.490  20.290 -0.1758 -0.0966 -0.3339
47093W        W90109   9.411  33.863   3.304 -0.1751 -0.1878 -0.2746
47094W        W90110  13.351  16.061   4.439 -0.2490  0.1295 -0.0272
47095W        W90111   2.072   3.593   7.764 -0.0580  0.1391  0.3280
47096W        W90112   7.943  25.140  18.694 -0.3084  0.0782 -0.0029
47097W        W90113   1.550  20.380  25.723 -0.1730  0.0466 -0.0881
47098W        W90114  33.253  11.158  24.809 -0.1524 -0.4375  0.0277
47099W        W90115  20.441  19.538   9.788  0.1395 -0.1154  0.0493
47100W        W90116  13.466  15.903  20.638  0.3211 -0.1024  0.0223
47101W        W90117   1.213  31.365  14.260  0.1578  0.1305  0.1617
47102W        W90118  16.927   1.349   0.837 -0.0162  0.0338  0.2649
47103W        W90119  22.736  18.281  28.152 -0.1350 -0.1445  0.0039
47104W        W90120  31.532   1.595   3.451 -0.1377  0.0929 -0.1211
47105W        W90121  28.126  12.915  17.896  0.0143  0.0467  0.0762
47106W        W90122  10.964  28.826  18.699  0.0062  0.2208  0.2141
47107W        W90123   0.934   7.322  15.720  0.0538  0.2847  0.0925
47108W        W90124  29.737  34.004  24.816 -0.0966 -0.3694 -0.1904
47109W        W90125  13.535  26.847   1.577  0.1257  0.2769 -0.0765
47110W        W90126   6.144  25.160   8.089  0.2287  0.2086  0.2806
47111W        W90127  21.552  31.101  20.818  0.0444  0.1446  0.0617
47112W        W90128  19.249  11.764   8.022  0.0233  0.0939 -0.0602
47113W        W90129   8.536  19.588   8.607  0.3885  0.0372  0.1892
47114W        W90130  10.871  13.583   8.529  0.1250  0.0440 -0.2320
47115W        W90131   8.023  25.433   7.939  0.3485  0.0061  0.0963
47116W        W90132   1.281  13.493  18.561  0.3661  0.0262  0.1473
47117W        W90133  17.220  18.430  22.074 -0.0531 -0.2037  0.1268
47118W        W90134  19.265  25.885   0.901  0.0252  0.0536  0.0364
47119W        W90135  18.856  22.811  14.405  0.0607  0.2785  0.3626
47120W        W90136   4.780  24.241  28.199 -0.5548 -0.3030 -0.1788
47121W        W90137  12.639  22.559  28.253  0.0613 -0.0815 -0.1222
47122W        W90138  13.331  25.242  16.600 -0.0905 -0.1481 -0.2230
47123W        W90139  11.753   8.932   5.974 -0.0069 -0.1600  0.0086
47124W        W90140  20.312  27.523  20.252 -0.2859  0.1323 -0.0388
47125W        W90141  19.263  29.465  29.280 -0.0807  0.0014  0.3467
47126W        W90142   9.195   4.816   2.417 -0.1690  0.0566 -0.2165
47127W        W90143  24.024  19.306   5.455 -0.0697 -0.2530 -0.0547
47128W        W90144  17.544   2.005  25.213  0.1817  0.3500  0.0721
47129W        W90145   3.711  22.556   6.815 -0.0842  0.1935  0.4469
47130W        W90146   6.349  24.114   2.217 -0.3515  0.0150  0.0817
47131W        W90147  22.343  26.312  14.909  0.3423  0.3215 -0.1831
47132W        W90148  15.722  12.410   0.411  0.1513 -0.3238  0.1609
47133W        W90149   7.324  15.004   2.034  0.2218  0.2283  0.3388
47134W        W90150  12.076  27.560  27.644 -0.0567 -0.0923 -0.0008
47135W        W90151   4.156  32.876  21.610 -0.0948 -0.3361 -0.0500
47136W        W90152  27.909  25.890   5.335  0.1041 -0.3152 -0.2763
47137W        W90153   5.041  23.876  20.027  0.2503 -0.0806  0.1879
47138W        W90154   2.226   5.209  27.239  0.3188  0.0673  0.0024
47139W        W90155   3.362  22.787   3.607 -0.0852 -0.0809  0.1661
47140W        W90156   0.913   4.252   7.592  0.0767  0.1451 -0.0937
47141W        W90157   7.191  16.001  18.332  0.0922 -0.0108  0.0302
47142W        W90158  10.324   1.469  28.860  0.2033  0.3998  0.0348
47143W        W90159  15.079  19.263  21.234 -0.0794  0.3230  0.2281
47144W        W90160   9.371  29.647  26.601 -0.0006  0.2539  0.0689
47145W        W90161  33.742  31.542  14.939 -0.1111 -0.0931  0.2712
47146W        W90162  16.258  12.878   3.288 -0.2664  0.0617  0.2257
47147W        W90163   4.584  26.017  15.213 -0.0309  0.0044  0.0195
47148W        W90164  10.716  16.883  12.622 -0.0583  0.1242 -0.2819
47149W        W90165  10.707   9.109  17.497  0.1483  0.0528 -0.2041
47150W        W90166  20.307   9.836   1.765  0.1268  0.1816  0.0109
47151W        W90167   1.503  15.916  26.633  0.1636  0.2277 -0.0269
47152W        W90168  23.009  31.839  19.439  0.0392 -0.3075 -0.3486
47153W        W90169  14.338  31.657   0.264  0.0360  0.1497 -0.0722
47154W        W90170  10.546   5.915   5.066 -0.0965 -0.0275  0.2267
47155W        W90171  25.871   7.967  19.310 -0.2695 -0.0577  0.4409
47156W        W90172  11.805  17.719  14.444 -0.1368  0.3063  0.1079
47157W        W90173   6.954   9.738   6.843 -0.0750  0.1354  0.1787
47158W        W90174  11.021  25.635  28.402  0.0504  0.1440 -0.0036
47159W        W90175  18.138  18.614  14.019  0.1398  0.1140  0.0700
47160W        W90176   7.022  32.181   1.472  0.1284 -0.0061 -0.3288
47161W        W90177   5.111  22.835  25.555 -0.2196  0.0228  0.1764
47162W        W90178  14.665  12.774  20.329 -0.0555 -0.1716  0.0591
47163W        W90179  14.701  18.405  13.511  0.3727 -0.2816 -0.0535
47164W        W90180  28.492  29.817  27.743  0.1026 -0.0859 -0.3050
47165W        W90181  23.719  31.104   5.444  0.1249  0.0622 -0.1503
47166W        W90182  22.084  33.156  28.893  0.3882 -0.4931  0.2585
47167W        W90183   5.116  33.221  18.605 -0.3389 -0.0051  0.1732
47168W        W90184  12.407  26.906  27.303 -0.1456  0.1055 -0.0355
47169W        W90185   2.206  33.425   0.258  0.1411  0.0924 -0.0557
47170W        W90186   2.684  23.276  24.542 -0.1549 -0.1064  0.0082
47171W        W90187  18.374  22.277  21.844 -0.1467 -0.0562  0.2516
47172W        W90188  12.596   0.169  28.579 -0.2375  0.1097 -0.3685
47173W        W90189   7.396  27.588   7.899 -0.0550  0.1573  0.0358
47174W        W90190   0.766  34.229   8.487  0.0653  0.1155  0.0980
47175W        W90191  26.092  25.175   8.856  0.2495 -0.1142  0.0347
47176W        W90192   6.486   5.942  27.189  0.2222  0.1121 -0.2210
47177W        W90193   6.032  30.085  21.831 -0.1596  0.1801  0.0113
47178W        W90194  10.115  27.495   3.367  0.1878  0.1540 -0.1077
47179W        W90195  11.407  15.054  19.658  0.0188  0.0469 -0.2107
47180W        W90196   9.543  23.258  23.156  0.4110 -0.1876 -0.4184
47181W        W90197   7.473  24.443  19.069  0.1375  0.1346  0.0928
47182W        W90198  20.427  14.193  26.515  0.0192  0.0018 -0.0885
47183W        W90199   4.366  17.353  23.566 -0.3498  0.0459 -0.1146
47184W        W90200  11.290  15.185  23.855 -0.2617 -0.1460 -0.0694
47185W        W90201   0.911  11.570   5.788 -0.2553  0.0198 -0.0183
47186W        W90202  15.403  14.428  14.984  0.1527  0.1009  0.0740
47187W        W90203  14.873   0.807  17.116 -0.1830 -0.1226 -0.1260
47188W        W90204  17.628  27.087  14.614  0.1943  0.0712  0.0045
47189W        W90205  17.311  33.906  13.826  0.1903  0.1161 -0.2593
47190W        W90206  33.367  33.505  23.676 -0.0264 -0.0099 -0.0254
47191W        W90207   4.706  19.052  17.604 -0.1099  0.0206 -0.0948
47192W        W90208  23.366  19.820  23.146 -0.0372 -0.3057 -0.0684
47193W        W90209  15.602  29.186  15.026 -0.0667  0.1170  0.1663
47194W        W90210   5.488  16.484  21.358  0.3192  0.0308  0.1109
47195W        W90211  30.832  26.608  24.352 -0.2695 -0.1034  0.0392
47196W        W90212   0.713   2.087  28.287  0.0543  0.1785  0.2798
47197W        W90213   9.838  17.807   9.405  0.0740  0.2216  0.3254
47198W        W90214  12.250  23.521   6.384 -0.2580 -0.1201  0.2124
47199W        W90215  13.332   7.189  27.581 -0.2975  0.2101  0.0714
47200W        W90216  11.565  20.495  24.181 -0.1179  0.2325  0.1401
47201W        W90217   2.094   5.047  24.187 -0.2471  0.1287 -0.1519
47202W        W90218  12.820  24.969   4.334  0.2624 -0.1932 -0.2071
47203W        W90219   2.208   3.005   5.113 -0.2195  0.3245 -0.2391
47204W        W90220  14.330  26.361  20.274  0.0936  0.0965 -0.1012
47205W        W90221  15.509  24.744  13.670 -0.0982  0.0045 -0.1499
47206W        W90222   2.207  10.654   7.707 -0.0025 -0.1756  0.2537
47207W        W90223  16.618  32.897  11.110 -0.3591 -0.1114  0.1313
47208W        W90224  10.110  34.088  18.827 -0.0889  0.1116 -0.1596
47209W        W90225   7.006  27.323   3.027  0.1994 -0.1918  0.2651
47210W        W90226  29.126  28.371  22.431 -0.3960  0.4647 -0.1798
47211W        W90227  14.837  21.499   0.602 -0.1557  0.2146  0.2385
47212W        W90228   9.138  21.302   7.474  0.0203 -0.0266 -0.0707
47213W        W90229  12.486  23.305   5.840  0.1336 -0.1431  0.0090
47214W        W90230  29.398  22.634  21.159  0.3020  0.0817 -0.3837
47215W        W90231  15.649  31.769  22.652 -0.2875  0.0579  0.2095
47216W        W90232   7.854  24.542  16.120 -0.1042  0.2323  0.0845
47217W        W90233  17.793   3.208   5.224  0.1640 -0.1027 -0.0359
47218W        W90234  13.415  20.533  24.340  0.0529 -0.3434  0.0569
47219W        W90235  21.568  10.690  22.443 -0.1850  0.0305  0.0022
47220W        W90236   3.340  20.667   2.837  0.1575 -0.0206  0.1851
47221W        W90237  34.252  21.206   8.856 -0.3537  0.0789 -0.3415
47222W        W90238  18.666  20.154   4.557 -0.2695  0.1457 -0.0323
47223W        W90239  18.009  25.985  14.397  0.2227  0.0873  0.2516
47224W        W90240   5.431   2.084   0.551 -0.1603 -0.0249 -0.4320
47225W        W90241  10.734  18.622  18.630 -0.4061  0.1596 -0.4468
47226W        W90242   6.472  25.152   2.309 -0.2221 -0.3374 -0.1744
47227W        W90243  34.393  22.228   7.574 -0.1487 -0.3186  0.0779
47228W        W90244  34.102  28.129  20.248  0.0180  0.0248  0.1317
47229W        W90245  10.812  19.052  23.590 -0.0170 -0.3042 -0.0812
47230W        W90246   2.010  28.716  15.640 -0.3041 -0.3103 -0.0893
47231W        W90247  13.099  24.735  21.252 -0.1655 -0.1105 -0.0748
47232W        W90248  16.410  18.729   6.035  0.1656 -0.0857 -0.0527
47233W        W90249  15.190  18.497  23.784  0.0085 -0.0573  0.0710
47234W        W90250   6.256   6.981  29.291  0.1300  0.2632  0.1504
47235W        W90251  11.960   8.558   9.028  0.1385  0.0222 -0.1249
47236W        W90252  14.261   6.164  24.656  0.2693  0.0909 -0.1184
47237W        W90253  10.079  20.196  25.110  0.1550  0.1315  0.1134
47238W        W90254   4.396  29.160   6.654 -0.1761  0.2302  0.1427
47239W        W90255  22.770  21.897  13.619 -0.0208 -0.0358 -0.0234
47240W        W90256   0.241   4.098  19.588  0.0097 -0.3056  0.0524
47241W        W90257   5.982  23.423   2.988  0.1528 -0.2322 -0.3565
47242W        W90258  12.767   7.098  14.069 -0.2363 -0.1924 -0.0430
47243W        W90259  29.098  32.098  17.024 -0.1690 -0.1328  0.3075
47244W        W90260   0.659   4.181   0.047  0.0860 -0.0678 -0.0333
47245W        W90261   3.425  20.650  13.164 -0.0697 -0.0029 -0.3873
47246W        W90262  11.368  19.055  22.233  0.4656  0.1633 -0.0887
47247W        W90263  21.374  26.772  15.817  0.1029 -0.0697  0.2275
47248W        W90264   4.895  18.875  17.151  0.0565 -0.2660  0.1423
47249W        W90265  16.009   3.175   0.961 -0.1434 -0.1979 -0.1605
47250W        W90266  13.255   0.098  15.884  0.0619  0.0065 -0.0080
47251W        W90267  19.802  22.999  16.201  0.0598 -0.0263 -0.1886
47252W        W90268  11.309  25.723  27.917  0.3208 -0.0549 -0.1961
47253W        W90269  11.851  31.758   6.088  0.1223  0.1662 -0.3450
47254W        W90270  10.859   5.543   7.849  0.1195 -0.1726 -0.3149
47255W        W90271  13.223  12.779  23.815  0.2393 -0.3951  0.1531
47256W        W90272   2.237  27.574  24.073 -0.4692  0.0636 -0.1172
47257W        W90273  10.542   1.681  28.469 -0.1670  0.3447  0.4614
47258W        W90274  22.630   8.447  17.532 -0.0232 -0.2754 -0.1234
47259W        W90275  14.039  18.895   8.287 -0.1049 -0.2221 -0.0296
47260W        W90276   1.418  20.264  16.729  0.1312  0.0239 -0.2057
47261W        W90277   4.527  23.198  16.553 -0.0391  0.1851 -0.2346
47262W        W90278  14.178  16.627   4.336  0.1468 -0.0401 -0.2280
47263W        W90279  15.252  19.210  20.072  0.0487 -0.3387 -0.2315
47264W        W90280  20.273  20.973  28.653 -0.1474  0.0950 -0.2736
47265W        W90281  30.721   8.822  28.336  0.0907  0.1174  0.0416
47266W        W90282   3.532   1.683   0.487 -0.0848 -0.2109 -0.0749
47267W        W90283   2.408   1.920  21.983  0.0643  0.0005  0.3823
47268W        W90284   0.517  34.433   3.834  0.1278  0.1630 -0.0346
47269W        W90285  22.544  33.343   6.122 -0.0674 -0.1422 -0.0736
47270W        W90286  10.746   9.763  15.518  0.1419  0.1379  0.3159
47271W        W90287  11.004  30.995  10.026 -0.1191  0.1461  0.0112
47272W        W90288  17.009  15.106  27.131  0.0807 -0.1934 -0.1957
47273W        W90289   0.914  20.289  26.315  0.1954  0.0926 -0.5803
47274W        W90290   2.434  18.782  26.913 -0.4206  0.0618 -0.1933
47275W        W90291  29.386  31.645  11.458 -0.1446 -0.1825  0.0635
47276W        W90292   5.842  13.217  26.062 -0.0028  0.1302  0.1709
47277W        W90293  34.193   2.654  25.497  0.2855 -0.1259 -0.0361
47278W        W90294  30.453  26.890   0.982 -0.3349  0.2739  0.0799
47279W        W90295  16.084  16.360  17.566  0.3104 -0.0303 -0.0596
47280W        W90296  11.038  22.055  18.285  0.0749  0.1291  0.2556
47281W        W90297  24.980  22.873  26.898  0.0742 -0.0280 -0.3065
47282W        W90298   5.538  31.055  20.932 -0.0670 -0.0970  0.3179
47283W        W90299  10.780   7.583  21.336  0.0281  0.1282  0.2318
47284W        W90300   1.956  18.557  18.764 -0.0513  0.2443 -0.3845
47285W        W90301  13.449  22.672  28.540  0.1112 -0.0887 -0.0287
47286W        W90302  22.507  22.450  18.120 -0.1499  0.1706 -0.5069
47287W        W90303  30.414  32.876   9.023 -0.1652  0.0946 -0.2506
47288W        W90304   6.338  24.582   9.426  0.0787 -0.3291 -0.1852
47289W        W90305   5.704  19.228  20.411  0.2885 -0.1560 -0.3031
47290W        W90306   7.382   2.561   8.361 -0.0922 -0.1331 -0.1690
47291W        W90307  10.222  25.477   0.631  0.1147  0.0257  0.0113
47292W        W90308  20.341  11.643   0.116 -0.0290  0.2614 -0.0088
47293W        W90309  15.371  18.646  19.446  0.4607  0.1797 -0.1908
47294W        W90310  16.472  27.472  29.095  0.0418  0.1655 -0.0062
47295W        W90311   6.968  23.096   8.467  0.0283  0.1436 -0.0393
47296W        W90312  21.126  21.101   5.854  0.3059 -0.3408 -0.2242
47297W        W90313   0.318  16.056   4.493 -0.2210  0.0097  0.0808
47298W        W90314   4.895  24.502  29.111 -0.1476 -0.2087  0.0489
47299W        W90315  12.984  22.993   7.564  0.0739 -0.0389 -0.2860
47300W        W90316  32.305  28.150  15.227 -0.5491  0.0340 -0.1178
47301W        W90317   7.379  31.667  28.115  0.2646  0.0260  0.2012
47302W        W90318   3.750  26.985  13.375  0.0413 -0.0037  0.1147
47303W        W90319  17.446  29.551  23.369  0.2762 -0.1724 -0.1403
47304W        W90320  14.272  22.317  16.945 -0.0735 -0.0794  0.0488
47305W        W90321  32.697  33.249  23.747  0.3106  0.2927  0.0084
47306W        W90322   8.527  23.932   2.856  0.1489 -0.1946 -0.4129
47307W        W90323   9.436  24.927  15.698 -0.1108  0.2527  0.2817
47308W        W90324   8.865   8.517  28.825  0.4071  0.0233  0.0710
47309W        W90325  19.711  28.350   0.695  0.2791  0.0312  0.0231
47310W        W90326  13.720  17.159  27.195  0.1643 -0.0873  0.1147
47311W        W90327  22.294  32.582  15.761 -0.2445 -0.2515  0.1540
47312W        W90328  32.970  22.533  15.197  0.0849 -0.0281 -0.1140
47313W        W90329   3.746   8.944   6.163  0.1334 -0.2399 -0.1424
47314W        W90330  29.915  26.877  24.397 -0.0913  0.1989 -0.1861
47315W        W90331   9.537  24.287  27.926  0.1676 -0.0410  0.3167
47316W        W90332  34.592  13.184  16.391  0.1991  0.1178 -0.0070
47317W        W90333  23.379  24.302   2.006  0.0871  0.2579 -0.1863
47318W        W90334   9.939  22.189   2.184 -0.2325  0.0340  0.0698
47319W        W90335   6.083  33.277   8.981  0.0755 -0.0671 -0.1649
47320W        W90336  16.262  31.045  15.541 -0.1128  0.0234  0.0796
47321W        W90337   5.342  16.525  27.467 -0.0892  0.0410 -0.2437
47322W        W90338  34.334  12.078  14.598 -0.1564  0.0061  0.0857
47323W        W90339   4.752  26.271  14.602 -0.2775 -0.0493  0.0101
47324W        W90340  28.907  19.657  16.491  0.0222  0.0935 -0.2343
47325W        W90341  17.536  18.728  15.260  0.2811  0.0558 -0.2978
47326W        W90342   9.409  12.420  21.113  0.1589 -0.2400  0.1567
47327W        W90343   2.667   0.607  26.099 -0.0535 -0.2696 -0.1632
47328W        W90344  31.970  27.459   8.040 -0.3906  0.1986  0.1176
47329W        W90345   1.935  34.042   4.896 -0.0102 -0.1157  0.1956
47330W        W90346  28.214   1.754   7.493 -0.1001 -0.0837 -0.0573
47331W        W90347  34.153   4.458  19.853 -0.2390 -0.0440  0.4867
47332W        W90348   7.710  13.531  16.577 -0.0756 -0.2912 -0.0921
47333W        W90349   8.748  25.431   7.864 -0.1212  0.0661 -0.0051
47334W        W90350  10.744  15.791   6.080  0.0409 -0.1736  0.3052
47335W        W90351   2.316  14.373   1.009 -0.4203 -0.0531  0.0809
47336W        W90352  16.774  18.925   5.280 -0.0145  0.2066  0.1446
47337W        W90353   6.318  11.927  26.921  0.0605  0.0137  0.3974
47338W        W90354  24.811  30.410  11.164  0.1005  0.0811  0.2130
47339W        W90355  15.904  17.596  22.994 -0.0044  0.5821 -0.0900
47340W        W90356  19.237  18.878  22.299  0.0323  0.1412 -0.1528
47341W        W90357  30.616  34.353  21.554 -0.2236  0.2145  0.1334
47342W        W90358  23.547  31.774   4.404 -0.0408  0.1728  0.0270
47343W        W90359  34.309   5.234  21.809  0.0008  0.1862  0.4938
47344W        W90360   2.688  29.841  19.750 -0.2013  0.0490  0.3024
47345W        W90361   9.798  12.982   8.146 -0.0171  0.1343 -0.2056
47346W        W90362  10.505  11.209   5.552 -0.2084  0.1324 -0.1526
47347W        W90363   6.515  28.751   1.621 -0.1259 -0.2744  0.2755
47348W        W90364  14.160  12.607  17.126 -0.1458  0.3116 -0.2741
47349W        W90365  22.028  31.625  20.179  0.0519  0.2710 -0.1388
47350W        W90366  32.811  19.673  23.682 -0.1632  0.3069  0.1359
47351W        W90367  31.474   9.067   6.019  0.0800 -0.1311  0.2163
47352W        W90368  15.959  12.719  25.089 -0.1632 -0.2887  0.4067
47353W        W90369  11.517  20.316  25.927  0.0409 -0.0493 -0.0860
47354W        W90370   2.439   1.989  25.989 -0.1820 -0.1255 -0.0797
47355W        W90371   7.150  29.277   7.956  0.1629 -0.2411  0.1580
47356W        W90372   3.279   0.084  28.321  0.1229 -0.1256  0.0705
47357W        W90373   7.596  25.416  15.763  0.1006  0.1581  0.1736
47358W        W90374  13.777  29.454  17.218  0.0887 -0.0893 -0.0095
47359W        W90375   2.347  29.844  21.967 -0.0519  0.2473  0.0239
47360W        W90376  14.934   9.949  18.618 -0.2713 -0.1566  0.1016
47361W        W90377  14.090  34.570   2.017 -0.0416  0.1666  0.2490
47362W        W90378   5.593  32.688  27.971 -0.1755 -0.0426  0.1332
47363W        W90379  33.344  13.869  19.159  0.3757  0.1835  0.1201
47364W        W90380  26.642  12.468   0.739 -0.0237 -0.1263 -0.0611
47365W        W90381   5.217  12.244   8.111  0.2228 -0.0075  0.0094
47366W        W90382  29.724  19.460   7.004 -0.2452 -0.0969 -0.2042
47367W        W90383   3.831  16.318  25.080 -0.0987 -0.2324  0.0404
47368W        W90384  15.290  33.836  26.644  0.0115 -0.2154  0.2136
47369W        W90385  13.026  23.815   6.919  0.1246 -0.2878  0.0172
47370W        W90386   9.559  16.292  21.148  0.0775 -0.2727 -0.2367
47371W        W90387   6.078  31.679  17.406 -0.0814  0.2426 -0.1876
47372W        W90388  31.537  26.190   2.712  0.1253  0.0844 -0.0077
47373W        W90389  26.448  29.841  20.189  0.0261 -0.1557 -0.1416
47374W        W90390  25.791   5.667   7.675 -0.0628  0.0974  0.0548
47375W        W90391  30.460  26.903  24.566  0.2581  0.0485 -0.0484
47376W        W90392  12.296   6.342   9.014  0.1108 -0.2776 -0.2425
47377W        W90393   2.397  33.890   8.761 -0.2539  0.2675  0.3717
47378W        W90394  32.829  13.066  27.705 -0.0140  0.0900 -0.0764
47379W        W90395  32.398  26.093  15.244 -0.1662  0.1285  0.2733
47380W        W90396  15.952  12.215  27.999  0.2030 -0.2683 -0.0644
47381W        W90397   2.768  23.374   3.050  0.1010 -0.0508 -0.2627
47382W        W90398  15.964  13.375  15.466  0.1479  0.2744  0.1304
47383W        W90399  11.780  17.070  13.678  0.2979 -0.0249 -0.1736
47384W        W90400  19.356  13.969   1.936 -0.1662 -0.0226  0.0449
47385W        W90401  16.204  11.860  25.389  0.0473  0.0258 -0.0390
47386W        W90402  27.291  18.323   3.143 -0.1471  0.0468 -0.0403
47387W        W90403  24.689  20.757  17.695  0.2930 -0.1722  0.0641
47388W        W90404  18.347  19.710  28.559  0.0066  0.0223  0.0819
47389W        W90405  28.338  19.156   1.875 -0.2497 -0.1130  0.4197
47390W        W90406  16.695  18.926  28.207 -0.1768  0.0012 -0.4350
47391W        W90407  14.778  29.387   8.930 -0.1171  0.2317  0.0622
47392W        W90408  21.307  22.617  25.775 -0.3146  0.0009 -0.0406
47393W        W90409   3.574  30.082  28.044 -0.4577 -0.0683 -0.0617
47394W        W90410   1.733  24.978  20.239 -0.1283  0.0259  0.2972
47395W        W90411  15.006  17.482  15.776 -0.1711 -0.0536 -0.0104
47396W        W90412  32.188  11.045  25.541  0.0051 -0.1990 -0.2513
47397W        W90413  19.198  21.977  17.128 -0.1505 -0.2737  0.0573
47398W        W90414  16.158  33.425  15.001  0.1714 -0.0442 -0.0177
47399W        W90415  12.255  27.466  16.649  0.1851  0.1304  0.1958
47400W        W90416  19.050  19.980  15.544  0.1935 -0.2766  0.0931
47401W        W90417  17.268  12.816  16.145 -0.0460  0.1508  0.0135
47402W        W90418   2.913  21.843   1.115 -0.1488 -0.0375  0.1734
47403W        W90419  17.639  12.132  26.090 -0.1313 -0.0056 -0.0216
47404W        W90420   0.917   0.500  13.839  0.0473  0.0651 -0.0213
47405W        W90421  34.226  33.340   0.434 -0.2087  0.1020  0.1815
47406W        W90422   3.135  15.871  21.825 -0.1166 -0.3277 -0.0209
47407W        W90423  16.521  23.503  12.889 -0.1570  0.0410  0.1059
47408W        W90424  21.947  29.206  27.242 -0.1722  0.0888 -0.3256
47409W        W90425  23.867  12.010  16.708  0.1803  0.0034 -0.3500
47410W        W90426   3.509  13.499  26.100  0.0875  0.1080 -0.1356
47411W        W90427   1.601  13.487  19.290 -0.0947  0.2114 -0.2223
47412W        W90428  17.897  15.891  13.872  0.3540  0.4844 -0.0260
47413W        W90429  14.303   6.050  18.987  0.2444 -0.1583  0.1352
47414W        W90430   8.164  15.671  19.717  0.2267 -0.0847  0.0925
47415W        W90431  12.992  22.703  15.350  0.1286 -0.2282 -0.1029
47416W        W90432   2.844  33.844   1.986 -0.1702  0.1227 -0.0202
47417W        W90433   5.351  12.360  14.779 -0.0529 -0.2595 -0.0578
47418W        W90434   9.967  19.648  17.340 -0.0152 -0.0365  0.1646
47419W        W90435   8.917  33.645  20.311 -0.2185  0.0131  0.2762
47420W        W90436   8.626  18.832  15.767 -0.1787 -0.1191  0.0081
47421W        W90437   4.241  16.696  21.214  0.2897 -0.2950 -0.2614
47422W        W90438   6.477  24.450  18.754  0.2698 -0.3073  0.3561
47423W        W90439  11.301  30.106  16.793 -0.0596  0.2102 -0.0598
47424W        W90440  18.110  32.106  25.013 -0.0088 -0.1458 -0.2666
47425W        W90441  17.875  33.052  18.707 -0.2088  0.2122 -0.0919
47426W        W90442  16.023  21.347   6.293  0.0378 -0.4005 -0.1066
47427W        W90443   2.232  29.644  24.661 -0.0878 -0.1424  0.2526
47428W        W90444   4.663  23.855   0.838 -0.3282 -0.1807  0.2578
47429W        W90445  11.530  27.436  13.827 -0.0369 -0.1213 -0.1000
47430W        W90446  24.259  32.711  23.528  0.1530  0.4661 -0.3978
47431W        W90447  14.637  29.748  14.544 -0.3554  0.3323  0.0104
47432W        W90448  33.650  30.328  26.771  0.1977  0.0822 -0.2379
47433W        W90449   9.650   4.732  18.163 -0.0280  0.1259  0.0669
47434W        W90450  25.832   8.071  18.015 -0.2707  0.1255  0.0359
47435W        W90451   0.823  29.499  21.409  0.0603  0.2168  0.3442
47436W        W90452  10.325  29.455  14.786 -0.0563 -0.0415 -0.1941
47437W        W90453  13.123  24.510   3.952 -0.4176  0.1969 -0.1935
47438W        W90454   0.774  31.415  22.632 -0.0317  0.0432  0.0109
47439W        W90455  15.593  30.174   7.955 -0.5802  0.1608 -0.0906
47440W        W90456  19.077  33.499  18.169  0.1642  0.1138 -0.1011
47441W        W90457  12.548  20.424  16.723  0.1798  0.0695  0.1374
47442W        W90458   6.565  25.767  20.060  0.0941 -0.0218 -0.0572
47443W        W90459  10.627  34.430  16.367 -0.0971 -0.0378  0.0902
47444W        W90460   8.111  34.488  17.210  0.3060 -0.1359  0.0902
47445W        W90461  29.252  17.341   9.835 -0.1274 -0.2938  0.0052
47446W        W90462  11.282  23.105  15.396 -0.0460 -0.0077  0.1179
47447W        W90463   4.908   4.328  20.971  0.2863 -0.0227 -0.0873
47448W        W90464   1.424  26.943  17.395  0.2939  0.1492  0.0573
47449W        W90465   0.211  24.126  15.138 -0.0564 -0.0335 -0.0555
47450W        W90466   4.744  16.935  25.855  0.3433 -0.2598 -0.0167
47451W        W90467  18.494   7.774  17.503  0.3358 -0.1423  0.0775
47452W        W90468  24.097  18.069  17.957 -0.0059 -0.1139 -0.0226
47453W        W90469  17.796   9.649  25.713 -0.1289  0.1939 -0.0250
47454W        W90470  24.695   7.962  25.248  0.0625 -0.1330  0.0281
47455W        W90471   6.409  26.293  19.299  0.4126  0.1617  0.2810
47456W        W90472   9.862  31.326  17.978 -0.1406  0.1615  0.1928
47457W        W90473  23.950  25.142  23.543  0.2590  0.0705 -0.1836
47458W        W90474  16.527  28.889  16.299  0.3883  0.1827 -0.2999
47459W        W90475  28.906  19.850  26.364  0.2081 -0.1659 -0.2410
47460W        W90476  33.808  24.183   2.148 -0.2461 -0.1813  0.2569
47461W        W90477   7.614  31.617  19.378 -0.1220  0.2374  0.4303
47462W        W90478   8.602  26.761  25.222 -0.0680  0.0127 -0.4032
47463W        W90479  11.927  30.042  18.582 -0.2597  0.0374  0.2360
47464W        W90480   6.875  22.389  16.074  0.0106 -0.0613  0.0290
47465W        W90481  12.078   5.045  24.375  0.3271 -0.0432 -0.1012
47466W        W90482  19.305  29.888  17.658 -0.0236  0.1926  0.1037
47467W        W90483   1.089  29.684  16.648 -0.0961 -0.0704  0.0803
47468W        W90484  34.376  20.275  27.242  0.0197 -0.1317  0.3335
47469W        W90485  14.561   9.924  17.623  0.1323 -0.0564  0.0118
47470W        W90486  15.590  19.113  25.586  0.1021 -0.0720  0.0431
47471W        W90487  19.492  33.121  19.150  0.0561  0.0731  0.1063
47472W        W90488  24.687  25.203  25.775 -0.1206 -0.2560 -0.0232
47473W        W90489  13.395   5.886  19.606  0.0329 -0.0794  0.1039
47474W        W90490  10.151  31.215  21.998  0.0243 -0.0393  0.1427
47475W        W90491  22.900  25.181  26.040  0.1834  0.1074 -0.2668
47476W        W90492  33.853   7.521  14.479  0.2279  0.2054 -0.2847
47477W        W90493  33.554  21.183  19.254 -0.3168  0.3506 -0.2408
47478W        W90494  14.546  24.040  15.099 -0.0239 -0.1555  0.1670
47479W        W90495   9.157  13.658  18.059 -0.1425  0.1327 -0.3607
47480W        W90496  14.114  21.669  26.125 -0.3371 -0.1995 -0.5367
47481W        W90497  33.526   2.179  19.323 -0.0589 -0.1248  0.4138
47482W        W90498  19.418  28.617  21.365 -0.1599  0.1292  0.2663
47483W        W90499  16.130  26.216  17.451  0.0782 -0.1679  0.0590
47484W        W90500  33.243  33.034  16.537 -0.3813  0.1085  0.0801
47485W        W90501  11.288  32.213  19.202 -0.0454  0.0063 -0.1386
47486W        W90502   5.193  30.396  17.608 -0.2085 -0.0966  0.4235
47487W        W90503  20.612   0.168  21.731 -0.2187 -0.0642  0.0398
47488W        W90504  15.201  24.052  21.226 -0.1202  0.0860  0.2628
47489W        W90505   7.082  21.506  12.732  0.2650 -0.2469 -0.2577
47490W        W90506  19.163  13.642  15.523  0.1386  0.2688 -0.1002
47491W        W90507  20.224  15.006  13.327  0.1348  0.1199 -0.2269
47492W        W90508  13.565  28.045  15.810  0.2194 -0.2855 -0.0734
47493W        W90509   5.675   0.366   0.046  0.2285  0.0436 -0.2839
47494W        W90510  16.310  16.464  15.970  0.1070 -0.4219  0.0299
47495W        W90511   9.862  20.324  19.994 -0.1230  0.0565 -0.0338
47496W        W90512  30.604  31.125   1.111 -0.0087 -0.2704 -0.2261
47497W        W90513  30.483  21.493  19.692 -0.1637  0.0447 -0.0688
47498W        W90514  10.954  14.356  21.960  0.2621 -0.1445  0.0308
47499W        W90515  20.275  33.752  20.221 -0.0398 -0.2407 -0.3083
47500W        W90516   9.287  26.327   1.128  0.1580 -0.1795  0.0786
47501W        W90517  16.185  25.942  16.821 -0.0296  0.0271 -0.2102
47502W        W90518  14.110  23.330  21.243 -0.4191 -0.2408  0.0162
47503W        W90519   4.710  13.885  18.454  0.1948 -0.2109 -0.1745
47504W        W90520  33.082  23.193  14.112  0.2716 -0.1322 -0.0724
47505W        W90521  11.007  34.290  19.506  0.1031 -0.1567 -0.0827
47506W        W90522  19.135   6.721  16.506  0.3272  0.0640  0.2433
47507W        W90523  27.037  33.131   6.499 -0.1740  0.3283 -0.0194
47508W        W90524   0.554  30.156  16.056  0.2200 -0.2118  0.1183
47509W        W90525  23.248  33.012   3.105 -0.1433 -0.0885 -0.1169
47510W        W90526  23.131  24.887  25.013 -0.7128  0.0236  0.1123
47511W        W90527   0.833  25.944  22.907 -0.1526  0.2712 -0.0262
47512W        W90528  12.067   2.626   2.775  0.1010  0.2564 -0.0969
47513W        W90529   5.494   0.095  22.051 -0.0226 -0.0270 -0.1931
47514W        W90530  19.677  30.721  19.341  0.0067 -0.1169  0.1089
47515W        W90531   5.015  18.044  19.714 -0.3444 -0.0945 -0.2815
47516W        W90532  30.095  26.899  18.581  0.0523  0.0443 -0.2815
47517W        W90533  15.032  27.716  17.763 -0.0732  0.1091  0.0380
47518W        W90534  25.228  19.136  26.979  0.1345  0.3632 -0.0090
47519W        W90535   7.759  25.413  18.322  0.3093 -0.0226 -0.0785
47520W        W90536  16.215  27.637  17.681 -0.2296  0.1140 -0.3241
47521W        W90537   4.174  27.482  24.522 -0.1997 -0.1546  0.1710
47522W        W90538   2.054  16.585  20.926 -0.3897  0.0032  0.0612
47523W        W90539  15.075  16.282  15.111 -0.1442 -0.0136 -0.1930
47524W        W90540  11.983  22.626  21.717 -0.1961  0.0128  0.3072
47525W        W90541   5.172   0.768  22.556 -0.1737  0.1489  0.1375
47526W        W90542  29.899   0.027  17.527 -0.0614 -0.1784  0.3430
47527W        W90543  24.689  30.652  18.488 -0.2809 -0.1757  0.1752
47528W        W90544   5.604   9.291  25.908  0.3074  0.2363  0.1562
47529W        W90545  22.402   4.667  15.946  0.2295  0.0053  0.1617
47530W        W90546  17.738  21.838  13.547  0.0647 -0.1612  0.1150
47531W        W90547  31.587   2.826  18.345  0.2474 -0.0833 -0.2106
47532W        W90548  16.171  33.502  22.879 -0.1361 -0.2598 -0.2729
47533W        W90549   1.485  13.646  15.949  0.3313 -0.0404  0.0532
47534W        W90550  33.949   8.817  14.852  0.0198 -0.1311  0.1082
47535W        W90551   8.937  21.271   1.384 -0.2181 -0.0497 -0.0242
47536W        W90552   7.715  29.476  17.715  0.0433 -0.0987 -0.0872
47537W        W90553  30.103  25.333  26.200 -0.2582  0.2793 -0.0879
47538W        W90554  12.159  31.822  18.936 -0.4693 -0.3411 -0.0320
47539W        W90555   5.292  25.082   7.322 -0.1168  0.1096 -0.0507
47540W        W90556   5.253  19.078  23.926 -0.1170 -0.1212  0.0428
47541W        W90557  29.022  23.781  27.337 -0.0551 -0.1254  0.0988
47542W        W90558   2.238  30.575  19.181 -0.0020  0.0238 -0.0246
47543W        W90559   8.456   2.035  22.138  0.3824  0.1958 -0.2283
47544W        W90560   8.936  31.485  18.022 -0.2307  0.2221  0.1489
47545W        W90561  23.706  21.385  19.540 -0.1806 -0.0309 -0.1847
47546W        W90562  14.556  25.896  24.465 -0.0115  0.1140 -0.1065
47547W        W90563  15.437  10.234  25.971  0.1911 -0.1235 -0.1002
47548W        W90564  31.673   5.621  19.114  0.3051 -0.1394  0.1525
47549W        W90565  12.717  29.774   5.084 -0.1976  0.0768  0.1078
47550W        W90566  19.141  27.415  24.273 -0.1750  0.0536 -0.2929
47551W        W90567   0.232  29.900   3.315  0.2297 -0.2237  0.2769
47552W        W90568  15.897  31.118  20.639  0.1037 -0.0926 -0.1139
47553W        W90569   4.318  24.777  22.612 -0.5200  0.4375 -0.1030
47554W        W90570   8.029  22.424  26.129 -0.1247  0.0868  0.0513
47555W        W90571  25.512  27.836  29.065  0.2886 -0.1649  0.0160
47556W        W90572   7.316  20.456  28.707  0.2934 -0.1989 -0.0022
47557W        W90573  24.278  13.539  15.203 -0.0048 -0.1130  0.0446
47558W        W90574   8.637  33.642  17.958 -0.2276  0.0778  0.1733
47559W        W90575  10.426  21.018   0.707  0.1185 -0.0914 -0.0795
47560W        W90576  15.719  26.034  21.449 -0.0322 -0.0732  0.2165
47561W        W90577   6.662  19.589  23.562  0.0270 -0.1870 -0.1011
47562W        W90578  12.184  25.203  17.518  0.1578  0.3821  0.0098
47563W        W90579   8.753  33.845  24.018 -0.2161 -0.4741 -0.1558
47564W        W90580  29.589  23.954  16.141  0.1371  0.0022 -0.0158
47565W        W90581  21.466   1.558  23.216  0.0248 -0.3547 -0.3803
47566W        W90582  29.305  29.159  27.094  0.3432  0.0678 -0.3543
47567W        W90583  10.139  24.149  20.305  0.1033  0.3154 -0.1772
47568W        W90584  32.784  21.118  21.344 -0.2334  0.0183  0.2332
47569W        W90585  31.285  34.661  20.039 -0.3243  0.0587 -0.3989
47570W        W90586  31.685  10.989  22.745 -0.0856  0.0297  0.0446
47571W        W90587   8.012  25.768  17.758 -0.2607 -0.0000 -0.0177
47572W        W90588  27.825  27.580   9.921 -0.0797 -0.0313 -0.1936
47573W        W90589  27.213  26.984  24.164 -0.0418 -0.0049  0.0794
47574W        W90590   0.226  20.913   1.797 -0.2128  0.1491 -0.0511
47575W        W90591   0.278   1.099  14.527  0.2609  0.1191  0.0882
47576W        W90592  10.956   1.347  14.181 -0.0514 -0.0900 -0.2395
47577W        W90593   5.509   7.330  25.405  0.1204  0.0337  0.0503
47578W        W90594  15.082  25.950  24.544  0.1276 -0.3816  0.5333
47579W        W90595   2.350  18.766  27.474 -0.0895 -0.1782 -0.3244
47580W        W90596  17.628  27.004  16.528 -0.2674 -0.1651 -0.4036
47581W        W90597   4.414  27.369  20.074  0.0546 -0.0427 -0.1632
47582W        W90598   1.796  33.092  15.630 -0.0183 -0.1637  0.1770
47583W        W90599   6.273  31.472  20.630  0.0134 -0.2457  0.0607
47584W        W90600  13.301  19.578  11.449 -0.2521 -0.1232 -0.2041
47585W        W90601  26.085  10.738  16.528 -0.1689  0.4561 -0.0382
47586W        W90602  25.883  20.212  16.273  0.0526 -0.1230 -0.1773
47587W        W90603  23.747  28.050  24.252 -0.1968 -0.1380  0.2847
47588W        W90604   5.542  13.792  22.269  0.2015 -0.0045 -0.1929
47589W        W90605  13.466   9.183  21.232 -0.2228  0.0789  0.0413
47590W        W90606  18.503  27.529  20.009  0.1977  0.6161 -0.1041
47591W        W90607  26.186  21.820  21.770  0.2077  0.1440  0.0600
47592W        W90608  12.861  20.752   7.529  0.2099  0.1602  0.2747
47593W        W90609  18.612   0.138  18.041  0.0687 -0.0981  0.1047
47594W        W90610   4.290   7.624  15.863 -0.2912  0.0515 -0.0337
47595W        W90611  10.082   1.735  14.235  0.3176  0.1053 -0.1219
47596W        W90612   2.948  29.375  20.555 -0.2511  0.1712  0.3546
47597W        W90613  29.778  22.685  16.717 -0.1900  0.1066  0.0874
47598W        W90614   7.069  16.911  19.871 -0.1983  0.1933  0.0496
47599W        W90615  14.253  30.381  15.324 -0.3818  0.2608  0.2496
47600W        W90616  11.326   8.193  14.776 -0.1851 -0.1502  0.0016
47601W        W90617  19.754  22.503  23.841 -0.1526 -0.0227  0.0556
47602W        W90618  16.031  10.462  18.606  0.1385  0.3589 -0.1172
47603W        W90619   8.992  26.380  17.419  0.0813 -0.1061 -0.2433
47604W        W90620   2.876   7.455  15.309 -0.0020  0.1376 -0.1840
47605W        W90621  12.259  22.778  15.165  0.2432 -0.1317  0.0153
47606W        W90622  10.503  19.557  27.583  0.1541 -0.1779  0.0908
47607W        W90623   1.595  31.603  21.515  0.0986  0.0132 -0.1039
47608W        W90624   2.765  13.988  23.768  0.3912 -0.0457 -0.3613
47609W        W90625   9.319  25.913  14.031  0.3669  0.1581  0.2590
47610W        W90626   1.112  33.013  21.033 -0.0206  0.1944 -0.1356
47611W        W90627  12.616  14.012  14.933 -0.0441  0.2577 -0.3638
47612W        W90628   1.741  17.026  13.809  0.4528 -0.0399  0.1460
47613W        W90629  22.440  25.515  28.514 -0.0841  0.0121 -0.2437
47614W        W90630  20.835  11.526  16.260  0.0728  0.2262 -0.0115
47615W        W90631  11.122   0.650  25.182 -0.1630  0.1612 -0.2704
47616W        W90632  19.120   5.458  23.274 -0.0421 -0.1013 -0.0452
47617W        W90633   3.145  23.403  23.777  0.0398  0.0219  0.3484
47618W        W90634  31.468   7.222  25.006  0.3818  0.1592  0.0856
47619W        W90635  31.720  32.993  20.674  0.0483  0.1959  0.4827
47620W        W90636  15.188  13.544  19.767  0.3181  0.0592  0.0504
47621W        W90637  13.686  32.545  24.686 -0.0742  0.3005  0.0247
47622W        W90638  16.682  29.108  24.669 -0.1879  0.1749 -0.3937
47623W        W90639  11.400  30.778  17.238  0.0338  0.0998  0.1766
47624W        W90640  24.117  22.022  20.565 -0.2857 -0.1464 -0.0689
47625W        W90641   2.093  10.037  20.410 -0.2878 -0.0642  0.0306
47626W        W90642  13.989   2.137  16.883 -0.0820  0.1876  0.3027
47627W        W90643  18.266   3.388  24.950 -0.2168  0.1608  0.1238
47628W        W90644  14.450  32.812  15.433  0.0183  0.2107 -0.2303
47629W        W90645   5.693  20.269  26.070 -0.0230  0.0493 -0.1969
47630W        W90646   0.875  22.987  15.283 -0.0940 -0.1928  0.2916
47631W        W90647  18.080  20.149  28.663  0.0704  0.4003 -0.3886
47632W        W90648  32.582  25.423  23.435 -0.5840  0.0430 -0.1918
47633W        W90649  16.105  26.218  22.402  0.0592 -0.0131  0.2616
47634W        W90650  10.291   0.129   2.532  0.3614 -0.0672  0.3273
47635W        W90651  22.103  23.837  22.964  0.2169  0.1741 -0.1893
47636W        W90652   9.720   3.073  22.700 -0.1166 -0.1653  0.1530
47637W        W90653  19.822  30.340  26.300  0.0021 -0.0535  0.2233
47638W        W90654   8.248  21.493  16.469  0.1863  0.1967 -0.1863
47639W        W90655  16.588  25.203   3.154  0.0652  0.1198 -0.4425
47640W        W90656   9.284   5.352  29.140 -0.1573  0.2475  0.0596
47641W        W90657   1.155   5.905   3.445  0.1503  0.2690  0.2050
47642W        W90658  14.845  29.481  22.143 -0.1215  0.1927 -0.0617
47643W        W90659  28.515  17.901  26.131  0.2042  0.0514  0.1464
47644W        W90660  23.654  23.780  19.319  0.0727  0.2325  0.1044
47645W        W90661  31.759  20.172  14.513  0.0890 -0.3136  0.1945
47646W        W90662   9.556  27.685  27.250 -0.1564 -0.1829 -0.0012
47647W        W90663  11.032  10.739  18.373  0.1451 -0.1738  0.3092
47648W        W90664   7.852  32.344  17.500 -0.1237  0.0255 -0.2055
47649W        W90665  16.435  27.996  20.500 -0.2515 -0.1017  0.1781
47650W        W90666  16.497  31.718  20.832 -0.0074 -0.1547 -0.1392
47651W        W90667   9.116   0.411  16.256 -0.0647  0.3751 -0.1553
47652W        W90668  11.796  17.308  25.059 -0.0913 -0.3420 -0.1051
47653W        W90669   2.648   0.716  27.981 -0.0809 -0.2346 -0.2145
47654W        W90670  21.285  28.466  22.150 -0.0403 -0.2802  0.0926
47655W        W90671  15.431  27.807  16.937 -0.3954  0.1139 -0.2602
47656W        W90672   3.509  27.244  21.260  0.6291 -0.0961  0.2834
47657W        W90673  30.570   0.970  24.648  0.0756 -0.2653  0.2071
47658W        W90674  17.163   3.228  26.225 -0.1224 -0.1756  0.2834
47659W        W90675   5.554   3.418  17.805 -0.1079  0.2710  0.0089
47660W        W90676  24.487  26.123  20.063 -0.1046  0.0781 -0.2035
47661W        W90677  15.842   5.436  18.093 -0.5131 -0.0125 -0.1225
47662W        W90678  24.728  22.940  21.214 -0.1449 -0.0933  0.1329
47663W        W90679  26.315  28.552  18.433 -0.1839  0.3212 -0.1209
47664W        W90680   8.198  22.535  22.970 -0.0165 -0.0585  0.2551
47665W        W90681  27.260   3.526  17.198 -0.0078  0.3128 -0.1288
47666W        W90682  13.241  26.282  13.037  0.3386  0.0948 -0.3390
47667W        W90683   9.662  23.878  21.127 -0.3068 -0.0056 -0.0931
47668W        W90684  11.835   7.416  25.606  0.0171  0.0860 -0.0347
47669W        W90685   6.341  28.626  17.832  0.3476  0.4763 -0.0030
47670W        W90686   2.193  34.077  23.910  0.1634 -0.1003  0.0417
47671W        W90687   7.214  30.737  24.438  0.0161 -0.2596 -0.2184
47672W        W90688   5.133  25.691  23.801 -0.0763  0.2701  0.0029
47673W        W90689   8.351  34.018  24.241 -0.3816  0.0598 -0.1084
47674W        W90690  13.030   4.163   0.467  0.0920  0.0266 -0.1026
47675W        W90691  23.218  13.774  15.454  0.0131  0.0387 -0.0624
47676W        W90692  11.300   6.593  19.908  0.0897 -0.0594  0.0955
47677W        W90693  31.013  26.715  18.253  0.0189 -0.2696  0.1844
47678W        W90694  13.747  31.389  15.711  0.2803 -0.2460  0.0496
47679W        W90695   0.226  19.355  27.882  0.0432 -0.1158  0.1823
47680W        W90696   5.908  15.964   9.684 -0.0098  0.0212  0.1990
47681W        W90697   7.069  26.518  22.973  0.1681 -0.0278  0.3834
47682W        W90698   8.845  24.981   1.288  0.0596  0.0720  0.1941
47683W        W90699  12.307  24.168  20.060 -0.1600  0.2426  0.1844
47684W        W90700  19.194   7.222   0.430  0.1904  0.2758  0.0885
47685W        W90701  13.718  12.229  19.514 -0.1063  0.2107  0.1085
47686W        W90702  16.614  18.864  24.072  0.1982 -0.0980  0.0083
47687W        W90703   3.228  34.251  21.649 -0.0791 -0.0788 -0.0597
47688W        W90704  22.507  31.712   1.806 -0.4306  0.2100  0.1754
47689W        W90705   9.933  25.256  17.057  0.0352 -0.4147 -0.3847
47690W        W90706   7.526  24.683  19.508  0.1283  0.0537  0.0033
47691W        W90707  18.594   4.899  15.972  0.0651 -0.1182 -0.0753
47692W        W90708  29.727  23.822  19.359 -0.0534 -0.1761 -0.0571
47693W        W90709   1.666  33.465  25.965 -0.0962 -0.1052  0.0956
47694W        W90710  20.019   3.129  21.387  0.2791 -0.4331 -0.3480
47695W        W90711   7.121  31.988  27.877  0.0894  0.1293 -0.0513
47696W        W90712  13.103  27.536  15.985  0.1023 -0.0823 -0.3928
47697W        W90713   0.289  34.160  20.988 -0.0341 -0.0646  0.2906
47698W        W90714   6.322  26.403  14.651 -0.0419 -0.0905  0.0758
47699W        W90715  11.701  15.715  28.785  0.7014 -0.0618  0.0135
47700W        W90716  31.999   5.750  14.230  0.0798  0.2370  0.1125
47701W        W90717  18.303  24.432  21.389 -0.0743 -0.1682  0.2528
47702W        W90718   9.482  25.341  25.936 -0.0728 -0.0242  0.0639
47703W        W90719  32.329  25.258  17.341 -0.0894  0.1969 -0.3240
47704W        W90720  16.800  27.597  18.740  0.1117  0.0241  0.2320
47705W        W90721  18.708  19.301  13.555  0.0456  0.1142  0.1503
47706W        W90722  15.742  33.464  17.472  0.4443  0.1919 -0.1102
47707W        W90723  31.814  34.654  27.033  0.1630 -0.0415 -0.2809
47708W        W90724  11.048   6.643  19.035 -0.0731 -0.0430 -0.3885
47709W        W90725  16.905   1.446  17.575 -0.1079  0.1684  0.1349
47710W        W90726  17.617  25.364   1.180  0.1727  0.3176 -0.1990
47711W        W90727  12.409  32.701  15.765  0.0243 -0.0218  0.0580
47712W        W90728  10.116  19.287  15.580 -0.0596  0.2335  0.1583
47713W        W90729  18.148  14.058  20.668 -0.0447  0.1099 -0.2397
47714W        W90730   5.493  21.591  14.210 -0.0902 -0.0343  0.3262
47715W        W90731   9.249  34.294  15.077  0.0799  0.2474  0.0672
47716W        W90732   3.722   5.305   6.864 -0.1027 -0.0303 -0.2086
47717W        W90733   2.945  31.475  26.972  0.2551  0.1257 -0.1066
47718W        W90734  21.902   6.107  15.196 -0.0692  0.2399 -0.3367
47719W        W90735   2.516  13.463  23.936 -0.3724  0.4443  0.0413
47720W        W90736  29.019  22.616  25.068  0.3192  0.0609 -0.0211
47721W        W90737   5.748  29.598  26.484  0.2324  0.3658  0.0147
47722W        W90738  13.711   0.217   0.646  0.2692 -0.1342 -0.0697
47723W        W90739  17.076  33.525   0.692 -0.0034 -0.1145 -0.0750
47724W        W90740   8.196   9.555  22.398 -0.0781  0.0911  0.2557
47725W        W90741  19.421   3.904  22.610  0.1852 -0.2766  0.1812
47726W        W90742  19.943  20.485  13.924  0.0862 -0.1917 -0.0386
47727W        W90743  30.616  22.985  29.191 -0.1476 -0.3066  0.0824
47728W        W90744  14.137  25.651  16.568  0.0754  0.0277 -0.5305
47729W        W90745   7.751  31.242  14.898  0.0607 -0.2792  0.1158
47730W        W90746  22.760  26.394  28.894  0.2066 -0.0994 -0.3059
47731W        W90747   9.935  22.509  18.516 -0.1418 -0.3964 -0.0920
47732W        W90748  20.241  21.726  18.734  0.0760 -0.3143  0.1328
47733W        W90749  25.839  26.218   2.694  0.1994  0.3972  0.0144
47734W        W90750  14.906  30.992  15.378 -0.0200 -0.2199 -0.0898
47735W        W90751   4.965   5.270  21.849  0.0928 -0.0249  0.1662
47736W        W90752   8.851  29.603  21.440  0.0034  0.0306  0.0921
47737W        W90753  33.943  31.389  15.808  0.1108  0.1394 -0.2693
47738W        W90754  11.771  29.168  13.699 -0.0787  0.1910 -0.2288
47739W        W90755   6.819   5.384   0.465  0.1543 -0.0444 -0.2003
47740W        W90756   3.855  23.313  28.476  0.0654 -0.0034 -0.0666
47741W        W90757  20.565   9.641  26.225  0.0189  0.0422 -0.1787
47742W        W90758   7.302  14.351   2.131 -0.1793  0.2629  0.1436
47743W        W90759  30.370  27.769  15.186 -0.0959  0.0391  0.2134
47744W        W90760  34.395  24.049  16.373 -0.3498  0.1159 -0.0288
47745W        W90761  19.064   8.711   6.519  0.2974  0.1760  0.1446
47746W        W90762   9.313   6.259  22.886  0.0259 -0.2301  0.3499
47747W        W90763  19.061  26.389  16.458  0.0356 -0.1027 -0.1784
47748W        W90764  28.913   5.244  27.339  0.1531 -0.0490  0.1644
47749W        W90765   5.150  17.059  22.961 -0.3103  0.1866 -0.0868
47750W        W90766   0.009   2.492  21.089  0.0503 -0.1286  0.0589
47751W        W90767  27.272  24.200  24.353  0.2286  0.1473  0.3075
47752W        W90768   9.310  31.362  14.467  0.1953 -0.0268 -0.1627
47753W        W90769   8.520  25.541  24.116 -0.2371 -0.4316 -0.1046
47754W        W90770  13.604  31.656  19.609 -0.1152 -0.1355  0.0324
47755W        W90771   2.128  23.841  19.800  0.2455  0.0238  0.0148
47756W        W90772  24.702   0.157  21.668 -0.0642  0.0333 -0.0765
47757W        W90773   1.503  20.481  26.685 -0.1485 -0.0485  0.0930
47758W        W90774  32.467  14.921  16.801 -0.1163 -0.4548  0.2599
47759W        W90775   0.091   2.278  16.844 -0.0509  0.1273  0.0293
47760W        W90776   8.746  17.545  20.835  0.1462  0.3062 -0.0310
47761W        W90777  17.600   8.355  20.506  0.4177  0.0587  0.0044
47762W        W90778  25.484  32.287  24.285  0.5281  0.2328  0.0897
47763W        W90779  32.922  25.690   1.682  0.0444 -0.0857  0.0403
47764W        W90780  15.363  33.125  20.076  0.3001 -0.0889  0.2371
47765W        W90781   9.447  21.446  14.545  0.0867 -0.2519  0.1479
47766W        W90782  18.999  26.198  19.294  0.3989  0.1753  0.0158
47767W        W90783   8.528   8.489   0.351 -0.0037  0.0324  0.2974
47768W        W90784  22.979  27.346  23.481  0.3354  0.2012  0.0165
47769W        W90785  26.224  21.713  18.266  0.3281  0.3258 -0.4179
47770W        W90786  11.631  34.389  18.408 -0.1491  0.1507  0.0405
47771W        W90787   8.971  18.346  16.463  0.0681  0.1936 -0.1613
47772W        W90788  25.046  20.054  22.862 -0.3656 -0.1363  0.1576
47773W        W90789   1.093   9.929  21.830 -0.0564  0.0723  0.0612
47774W        W90790   3.566  19.349  13.487  0.1205 -0.1373 -0.0323
47775W        W90791  12.908  18.615  23.152  0.1777  0.0318 -0.1882
47776W        W90792   6.515  24.130  17.134  0.2166 -0.0293 -0.3675
47777W        W90793  16.150   6.654  17.240 -0.0292  0.0866 -0.0107
47778W        W90794   6.660  25.026  16.885  0.1889 -0.0855 -0.4348
47779W        W90795  10.817  33.379  17.100 -0.1528  0.0857 -0.1118
47780W        W90796   1.880   6.140  24.934 -0.0842  0.1996  0.0447
47781W        W90797  11.425  33.994   8.284  0.0075 -0.1823 -0.0608
47782W        W90798   1.747  23.347   0.431  0.0351 -0.3390 -0.0859
47783W        W90799  14.455   0.882  15.135 -0.0074  0.3115  0.0555
47784W        W90800  14.300   5.664  19.483  0.0631  0.1693  0.0024
47785W        W90801  33.423  29.378  19.075 -0.3099  0.2528  0.0507
47786W        W90802   1.059  28.062  22.287  0.4163  0.3612 -0.0938
47787W        W90803   9.498   4.359  16.197  0.0746 -0.0879  0.0920
47788W        W90804   2.840  29.884  28.079 -0.2216  0.1736  0.2020
47789W        W90805   2.819   5.463  18.157 -0.1501 -0.1318 -0.1621
47790W        W90806  20.698  24.509  25.223 -0.0697 -0.0715  0.1313
47791W        W90807  30.413   5.291  17.775  0.1896  0.2304 -0.0420
47792W        W90808  32.906  32.941  22.920 -0.3630  0.0120 -0.2764
47793W        W90809  20.306  22.410  17.981  0.0516 -0.1350 -0.0583
47794W        W90810  21.722  33.997  23.360  0.0226 -0.0412  0.1073
47795W        W90811  15.245   5.500  20.614  0.1210  0.3278 -0.2910
47796W        W90812  31.493  33.432   0.175 -0.2156  0.0501  0.1103
47797W        W90813   9.167   8.165  16.648 -0.1485  0.2076 -0.1515
47798W        W90814  12.610  26.293  20.281 -0.0494 -0.0883 -0.0772
47799W        W90815   6.969  20.275  14.403 -0.0136 -0.0282 -0.3213
47800W        W90816   9.203  26.713  18.486  0.1969  0.1204 -0.0389
47801W        W90817  22.089  22.058  18.349  0.2230 -0.0186  0.1786
47802W        W90818  13.652  14.555  18.583 -0.2273 -0.0141 -0.1936
47803W        W90819  32.128  34.304  24.617 -0.3981  0.0858  0.1518
47804W        W90820   2.668  11.704  19.935 -0.1606 -0.1135 -0.0246
47805W        W90821  15.503  31.161  21.799 -0.2487 -0.0931 -0.1486
47806W        W90822  24.685   2.384  16.352  0.1571  0.0451 -0.2578
47807W        W90823  31.424  24.656  29.204  0.1485 -0.0126  0.1109
47808W        W90824  16.538   6.591  23.664  0.3326 -0.0155 -0.1116
47809W        W90825  22.482  25.444  18.894 -0.1763 -0.0744 -0.1445
47810W        W90826  24.208  15.806  22.049 -0.0637  0.1236  0.1530
47811W        W90827  15.057  24.974  17.866 -0.0502 -0.1737  0.0644
47812W        W90828   7.928  18.782  24.173 -0.0276 -0.0347  0.0947
47813W        W90829  33.842  23.772  18.737 -0.0255 -0.1931 -0.2743
47814W        W90830  31.901  23.564  24.386  0.0152 -0.0757 -0.2402
47815W        W90831  23.731   7.453   1.523 -0.0983 -0.0763  0.0782
47816W        W90832  14.279  28.459  15.028  0.1126 -0.2767 -0.2566
47817W        W90833  21.466   8.845  18.772 -0.0875 -0.1166 -0.0389
47818W        W90834  20.334  32.465  16.509  0.1220 -0.0687  0.2848
47819W        W90835  34.678  31.462  16.066 -0.0165 -0.1190 -0.2452
47820W        W90836  30.330   8.374  22.712 -0.1470  0.1456 -0.0518
47821W        W90837   1.425  26.795  23.419  0.0645 -0.0383  0.0799
47822W        W90838   2.261  20.332  15.652  0.2907 -0.4791  0.1352
47823W        W90839  19.436  27.411   5.919 -0.0438 -0.4182 -0.0687
47824W        W90840  15.758   7.526  13.860  0.1200  0.0161  0.0767
47825W        W90841  16.153   0.532  20.616 -0.0240  0.2331 -0.1740
47826W        W90842   8.648  25.971   6.658  0.0892  0.1981  0.2373
47827W        W90843   3.871  11.340  23.738 -0.0865  0.0694 -0.3785
47828W        W90844  11.765   1.178  16.609 -0.1710  0.1199 -0.1973
47829W        W90845  12.472  34.701  14.766  0.0819 -0.0125  0.1363
47830W        W90846  28.928  25.978  28.174  0.1028  0.1205 -0.1524
47831W        W90847  10.955  33.082  10.641  0.0682 -0.0447  0.1399
47832W        W90848  17.013  33.866  27.879  0.0059 -0.1150  0.1658
47833W        W90849  26.672  33.536  23.557  0.2041 -0.1189  0.1654
47834W        W90850   7.919  27.749  22.330  0.0908 -0.2327  0.0836
47835W        W90851  30.958  33.102  26.968 -0.2699  0.1649 -0.0954
47836W        W90852   6.730  18.601  19.875 -0.0620  0.1779  0.0054
47837W        W90853  34.023  16.376  16.043  0.1215  0.0297 -0.1699
47838W        W90854   6.978  30.180  14.734 -0.0037 -0.2735 -0.2096
47839W        W90855  11.778  31.738  16.741 -0.0813 -0.2383  0.0236
47840W        W90856  18.969  13.916  12.469 -0.0298  0.1711  0.1839
47841W        W90857   5.581   3.687  18.214 -0.0470  0.1559  0.0642
47842W        W90858   1.080   4.978  17.562  0.0780  0.3873  0.4205
47843W        W90859   7.400  17.637  14.672  0.3942 -0.4177  0.2833
47844W        W90860  14.689  29.301   8.365 -0.0309 -0.0682 -0.0023
47845W        W90861  33.113  24.814  20.700  0.1681  0.2313  0.1277
47846W        W90862  21.230  23.839  27.691 -0.1315  0.0912 -0.3810
47847W        W90863  21.068  12.167   5.801  0.0804 -0.1533 -0.0960
47848W        W90864   8.323  10.771  28.663  0.0552 -0.0847  0.2541
47849W        W90865  21.112  26.507  19.690 -0.2095 -0.1995 -0.1131
47850W        W90866  23.118  17.546  14.125  0.0237 -0.0570  0.3582
47851W        W90867  23.783  29.554   2.429 -0.1687  0.3291 -0.0195
47852W        W90868  13.387  31.945  26.663  0.1347  0.2981  0.1466
47853W        W90869  32.915   5.325  24.528  0.0185  0.0901  0.0392
47854W        W90870   8.831  25.913  15.434  0.2899  0.0202  0.0728
47855W        W90871  13.783  22.027  15.193  0.0342  0.1658 -0.2785
47856W        W90872  12.747   3.330  17.382  0.1936  0.1631 -0.5157
47857W        W90873  11.134  20.598  19.556 -0.1422 -0.0606 -0.1376
47858W        W90874  13.863  18.882  24.858  0.0476  0.0699  0.1147
47859W        W90875  12.788  23.529  13.891  0.1042 -0.0587  0.3015
47860W        W90876  10.364  24.172  24.063 -0.1045  0.0818  0.1536
47861W        W90877  33.111  25.670  22.066 -0.1819 -0.4516  0.1350
47862W        W90878   4.963   1.275  22.894  0.4003  0.1031 -0.0839
47863W        W90879   3.852  24.067  23.684 -0.3835  0.2624  0.2072
47864W        W90880  10.213  26.067  18.073 -0.0445 -0.2220  0.0660
47865W        W90881   2.744  19.624  22.752 -0.1821 -0.1769 -0.0237
47866W        W90882  13.758  25.888  17.004 -0.1736 -0.1129  0.1649
47867W        W90883   6.252  19.239   8.850 -0.0945 -0.2510 -0.1847
47868W        W90884  11.096  17.584  14.773  0.1289 -0.0462  0.0161
47869W        W90885  13.136  18.612  21.398 -0.0695 -0.2342  0.1143
47870W        W90886   8.013  31.519   4.598  0.1006  0.1386  0.0365
47871W        W90887  22.786  24.856   4.892  0.2381 -0.1823  0.1411
47872W        W90888   7.428   6.347  19.142 -0.0422  0.2038  0.2294
47873W        W90889   6.828  31.189  23.448 -0.0811 -0.0024 -0.1701
47874W        W90890   1.153  29.212  24.276 -0.0452  0.0362  0.1016
47875W        W90891   3.857  11.667  26.976 -0.3351  0.1737 -0.3857
47876W        W90892  19.751  32.525  20.254  0.1271  0.1771  0.0511
47877W        W90893  24.204  32.441  21.118  0.0423 -0.0278 -0.0550
47878W        W90894   2.335   6.298  19.848  0.5146  0.3871  0.1370
47879W        W90895  32.130   7.413  21.558 -0.0021  0.3252 -0.0697
47880W        W90896   3.718  24.672  28.786 -0.0358 -0.1989  0.0022
47881W        W90897  21.765  30.893  23.784  0.1404 -0.0651 -0.2002
47882W        W90898  22.521  25.079   5.345 -0.2529  0.0952 -0.2908
47883W        W90899   9.121  28.303  21.018 -0.0564 -0.1134  0.0472
47884W        W90900  31.508  25.958  16.998  0.1179 -0.2455 -0.1339
47885W        W90901  23.320  29.417  18.962  0.1284 -0.2138  0.2117
47886W        W90902   3.912  22.510  25.516 -0.0720 -0.2288  0.3474
47887W        W90903  16.414   0.776  21.739  0.0734 -0.1708 -0.1380
47888W        W90904  24.829  32.008  28.768  0.2048 -0.2683  0.0729
47889W        W90905  13.819  24.510  14.399  0.1380  0.1770  0.0239
47890W        W90906  28.628   5.167  21.303  0.0866  0.1512  0.2779
47891W        W90907  28.395  17.111   8.378 -0.2130  0.0913  0.0437
47892W        W90908   2.676  26.289  21.454 -0.3523 -0.1496 -0.0593
47893W        W90909   9.844  23.957   1.915  0.3494  0.2755 -0.0888
47894W        W90910   1.611  29.848  27.023  0.1393  0.1899  0.2568
47895W        W90911  32.167  25.595  20.172 -0.1756  0.0071 -0.1165
47896W        W90912  26.477  11.835  26.557  0.2374 -0.0303 -0.1421
47897W        W90913  34.280  21.441  21.065  0.3245 -0.0856  0.2486
47898W        W90914  33.847  28.765   9.880 -0.2017  0.5092  0.2031
47899W        W90915   2.261   2.622  14.737 -0.0209  0.1620 -0.1696
47900W        W90916   7.419  23.520  23.629 -0.1394 -0.1138  0.0631
47901W        W90917  22.099   3.986  16.603  0.0070 -0.0728  0.2216
47902W        W90918  19.858  22.476  18.249  0.0766 -0.1875 -0.0866
47903W        W90919   6.471  30.067  24.781 -0.0555 -0.0322 -0.1742
47904W        W90920   8.998  28.105   3.838 -0.0780 -0.0474 -0.1363
47905W        W90921  33.880   7.619  21.618  0.1332 -0.0685  0.0575
47906W        W90922   3.466  28.951  19.681 -0.3191  0.1941  0.5166
47907W        W90923  11.174   1.714   5.833 -0.1469  0.3892 -0.0240
47908W        W90924   8.539   0.608  15.409  0.0296  0.0619 -0.1789
47909W        W90925  16.073  29.826  14.887  0.0518 -0.1113  0.0364
47910W        W90926  16.218  15.217  28.088  0.1426  0.2554  0.0854
47911W        W90927  30.559  25.639   6.871  0.0523 -0.1418  0.0927
47912W        W90928   6.334   1.304  20.654 -0.0623 -0.0030  0.1485
47913W        W90929   1.613  22.973  21.416  0.1450  0.1626 -0.0213
47914W        W90930   0.743  28.004  20.485  0.1291  0.1755 -0.0753
47915W        W90931   3.790  22.286  13.690 -0.0573  0.1536  0.0174
47916W        W90932  18.404  10.320  14.757 -0.2418 -0.0888  0.1419
47917W        W90933   6.763  29.906  16.099  0.1826  0.2275 -0.2800
47918W        W90934   4.469  21.994  22.865  0.0299 -0.2731  0.2132
47919W        W90935  27.999  29.539  21.014  0.5528  0.0953  0.2176
47920W        W90936  17.729   1.661  22.810  0.1524  0.4073  0.0102
47921W        W90937   9.594  29.835  20.351  0.2614 -0.2320 -0.1108
47922W        W90938   5.984  30.848  17.129  0.1752 -0.2684  0.2015
47923W        W90939  15.420   7.091  15.364 -0.1111 -0.0187  0.2236
47924W        W90940  19.649  10.327  23.176  0.0834  0.0383 -0.2199
47925W        W90941   8.117  32.058  15.734 -0.4428  0.1716 -0.2340
47926W        W90942  10.427  33.698  17.042 -0.1454  0.3492 -0.0727
47927W        W90943  17.596  15.991  18.711 -0.0293  0.0868 -0.3161
47928W        W90944  18.277  22.696  16.968  0.0248 -0.0520 -0.1110
47929W        W90945  34.718  14.193   1.805  0.0441 -0.2782  0.4241
47930W        W90946  11.566  18.681  24.483  0.1769  0.0146 -0.2229
47931W        W90947   3.373  16.161  22.195 -0.1064  0.0385  0.0882
47932W        W90948  13.025  26.096  23.342 -0.1100 -0.0063 -0.4623
47933W        W90949  10.969  22.640  21.911 -0.0229 -0.2792  0.1108
47934W        W90950  13.055  11.445  21.305  0.4263  0.1193 -0.2043
47935W        W90951   2.581   9.891  25.886 -0.1113 -0.1765 -0.0197
47936W        W90952   3.162  25.378  17.228  0.4312  0.0147  0.0595
47937W        W90953   3.760  18.172  25.657 -0.1274  0.3798 -0.1450
47938W        W90954  13.302   3.516  16.996 -0.0958  0.1780  0.1237
47939W        W90955  21.432  19.101  18.546 -0.0311 -0.3588  0.2305
47940W        W90956  12.292   4.229  22.724  0.0444  0.1746  0.4258
47941W        W90957   6.452   5.401  15.413  0.1553  0.1631 -0.0740
47942W        W90958  11.011   9.594  28.444  0.2331 -0.3421  0.0843
47943W        W90959  10.848  29.485  19.143  0.0537 -0.0028 -0.1411
47944W        W90960  14.578  30.556   9.253 -0.2733  0.1665 -0.0201
47945W        W90961  22.178  34.624  23.507  0.3060  0.2175 -0.3645
47946W        W90962  11.199  32.791  21.713  0.1215  0.1064  0.4516
47947W        W90963  20.331  26.397  16.381 -0.1809 -0.0233  0.0500
47948W        W90964  25.848  34.598   2.590 -0.2279  0.0277 -0.2210
47949W        W90965  16.931  29.059  22.829  0.2512 -0.5062 -0.0130
47950W        W90966  11.742  29.050  19.645 -0.3759  0.2797 -0.0508
47951W        W90967  13.374  16.292   7.599 -0.0248  0.0754  0.3043
47952W        W90968  20.039  32.000  16.611  0.2412 -0.0653  0.0167
47953W        W90969  13.615  21.754  16.344 -0.0617  0.0739  0.2625
47954W        W90970  19.579  22.837  14.059 -0.1207 -0.0982 -0.0006
47955W        W90971  17.425   5.481  20.870  0.0405  0.0440  0.0366
47956W        W90972  32.479  24.135  18.982 -0.2175 -0.0756 -0.3455
47957W        W90973  12.984  18.346  15.472 -0.0092  0.2479 -0.1396
47958W        W90974  17.128  25.127  24.332  0.2109 -0.0014  0.1153
47959W        W90975  16.352  27.108  17.827  0.1572  0.0862  0.0238
47960W        W90976  15.578   0.117  16.282  0.3206 -0.0854  0.3051
47961W        W90977  21.659  22.039  14.256 -0.6173 -0.2687  0.2001
47962W        W90978   7.549  19.059  14.800 -0.1616  0.0287 -0.4122
47963W        W90979  16.591  10.698  17.387 -0.0066 -0.3483  0.2878
47964W        W90980  15.452  29.260  17.604 -0.1254  0.3937  0.2236
47965W        W90981   6.857  27.970  15.363  0.0127 -0.0940  0.4380
47966W        W90982  12.425  24.807  22.099  0.1800  0.0227  0.3642
47967W        W90983  10.736  20.559  16.761  0.1972 -0.1163  0.1849
47968W        W90984   3.538  14.139  19.662 -0.1378 -0.0810 -0.1601
47969W        W90985  10.617  28.968  19.108  0.0006  0.0207  0.1578
47970W        W90986  10.981   8.278  27.359 -0.1680 -0.0648  0.1837
47971W        W90987   6.954  17.073  17.456  0.0884 -0.3844  0.1149
47972W        W90988  28.116   2.464  15.927 -0.1230  0.1120  0.2767
47973W        W90989   7.421  29.894  17.766 -0.1747 -0.0117 -0.1735
47974W        W90990  30.062   2.388  19.821  0.1820  0.0193 -0.1501
47975W        W90991   3.349   7.376  15.052 -0.0052 -0.0249  0.0414
47976W        W90992   6.495   6.539  28.365 -0.0481  0.0730  0.2227
47977W        W90993  10.575  27.171   0.692 -0.1915  0.1330 -0.0484
47978W        W90994  28.373  23.940  15.983  0.3009 -0.0905 -0.2662
47979W        W90995  21.657  28.992  18.200 -0.0056 -0.0082  0.0637
47980W        W90996  16.572   1.971  22.944  0.0362  0.0395  0.1780
47981W        W90997  33.880   9.301  15.050  0.1748  0.2647  0.1490
47982W        W90998  18.041  32.831  23.599  0.0722  0.0481  0.2556
47983W        W90999   9.033  17.985   0.640 -0.3273  0.0270  0.0934
47984W        W91000   2.490   1.419  23.933  0.2758  0.1571  0.2816
47985W        W91001  29.433  33.464   0.132  0.0316 -0.3411 -0.1163
47986W        W91002   5.863  32.481  16.126  0.2807 -0.2248 -0.0723
47987W        W91003  24.641  19.736  19.553 -0.1131  0.0902 -0.0686
47988W        W91004  16.413  13.890  13.292  0.2434 -0.0098  0.2363
47989W        W91005   5.716  15.228   0.400 -0.2126 -0.0830  0.4206
47990W        W91006  21.108  17.124  13.020 -0.3627  0.0946  0.2568
47991W        W91007   6.689  24.678  22.031  0.0482 -0.0916 -0.0952
47992W        W91008  24.487  30.065  19.501  0.2793  0.1044 -0.1505
47993W        W91009   3.546  28.856  16.741 -0.2699 -0.0717  0.1703
47994W        W91010   6.441   5.504  16.205 -0.1042 -0.5391  0.1181
47995W        W91011  29.057   2.617  15.711  0.1001  0.0814  0.2107
47996W        W91012   3.522  22.202  22.497 -0.1228 -0.2226  0.0271
47997W        W91013  17.073  23.982  13.322 -0.2497 -0.0019  0.0228
47998W        W91014  34.756  13.984  18.465 -0.0452 -0.0402  0.0009
47999W        W91015   4.758  33.578  14.577  0.0510  0.4098 -0.3973
48000W        W91016  10.790  19.077  25.584  0.2621 -0.1706  0.1486
48001W        W91017  17.758  26.616  19.924 -0.0375 -0.1374  0.0961
48002W        W91018  17.826  34.256  19.269 -0.1357 -0.1182 -0.1388
48003W        W91019  33.662   5.534  20.017 -0.1880  0.0710  0.0248
48004W        W91020  21.014  17.130  12.077 -0.0809 -0.0204 -0.1941
48005W        W91021  23.423   1.807   1.696  0.1911 -0.3316 -0.2228
48006W        W91022  13.246  11.437   2.567 -0.0100  0.2503 -0.0941
48007W        W91023  10.746   1.738  15.607  0.0499  0.0262 -0.1095
48008W        W91024  28.292  33.508  26.866  0.1987  0.3285 -0.0114
48009W        W91025  22.594  30.220  26.464  0.1385  0.2244 -0.3563
48010W        W91026   7.579  30.141   9.573  0.2028 -0.1520  0.0946
48011W        W91027   5.693  17.636  19.452  0.4130  0.1113 -0.0342
48012W        W91028  33.188  11.849   9.239  0.1634  0.3343  0.0940
48013W        W91029  10.491   3.007  24.630 -0.3746 -0.0843 -0.0302
48014W        W91030  10.756  14.077  15.353 -0.1136 -0.0176  0.1686
48015W        W91031   6.654   5.264  23.127 -0.1566  0.1781  0.0135
48016W        W91032  10.982  11.622  28.224 -0.0919 -0.0243  0.2935
48017W        W91033  14.151  30.554  26.926 -0.2337 -0.1447 -0.1722
48018W        W91034  17.664  30.271  22.218  0.0333  0.4272  0.3893
48019W        W91035   1.780  28.250  21.635 -0.2905 -0.0946 -0.4097
48020W        W91036  28.523   1.735  25.829 -0.0001 -0.0307  0.0633
48021W        W91037  13.666  19.582  24.837 -0.1236 -0.3286  0.0519
48022W        W91038   5.208   6.641  19.950  0.1479  0.0478  0.0665
48023W        W91039   0.118  29.722  28.651 -0.0015  0.1791 -0.3457
48024W        W91040  15.401   6.501  13.712  0.1537  0.4000  0.1928
48025W        W91041   7.352  25.258   3.700 -0.1036  0.1023  0.0341
48026W        W91042   9.484  23.577  22.039 -0.2108 -0.3429 -0.0060
48027W        W91043  20.064  23.043  16.639  0.1106 -0.1159 -0.1698
48028W        W91044  25.158   1.718  18.950  0.1938  0.1938  0.3748
48029W        W91045   4.131  24.771  16.464  0.1873  0.0697  0.1955
48030W        W91046  16.103   4.778  24.295  0.1087 -0.0059  0.1150
48031W        W91047  16.910   0.709  16.093  0.1510  0.2729 -0.2939
48032W        W91048   8.054  17.589  12.777  0.4176  0.0192 -0.0157
48033W        W91049  29.479   4.767  19.301  0.1520  0.3556  0.1088
48034W        W91050   7.995  29.199  28.553  0.2218  0.0399  0.0043
48035W        W91051   7.318  25.299   6.127 -0.0796  0.0368  0.2150
48036W        W91052  23.035  33.322   7.147 -0.2218  0.1383 -0.0835
48037W        W91053   3.188  33.028  27.075  0.0625  0.1159  0.5410
48038W        W91054  12.123  28.325  26.969 -0.0537 -0.1736  0.1909
48039W        W91055   7.372  16.416   1.253 -0.1202  0.2803  0.2174
48040W        W91056   3.922  33.890  24.176  0.0115 -0.0334  0.2465
48041W        W91057   0.994   8.862  19.847  0.1632  0.1864 -0.3521
48042W        W91058  14.926  21.957  15.614  0.2265 -0.0474  0.2367
48043W        W91059   7.638  27.502  18.609 -0.1783 -0.1595  0.3553
48044W        W91060   8.335  19.923  23.042  0.1384 -0.2575 -0.2241
48045W        W91061  13.390   1.476   8.102 -0.0895 -0.2370  0.1088
48046W        W91062   4.505  27.861  21.613  0.2012  0.1730 -0.1007
48047W        W91063  15.595   4.876   9.544  0.0396 -0.1706  0.2598
48048W        W91064  33.503  30.349  23.137 -0.1608  0.3056  0.0568
48049W        W91065  22.866  27.455  19.153  0.0490  0.2347  0.2398
48050W        W91066   9.488  34.368  15.554 -0.0553 -0.0895 -0.0951
48051W        W91067  15.743  18.598  13.350 -0.0400 -0.1814  0.3907
48052W        W91068  26.790  33.079   2.792 -0.4545  0.0973 -0.0025
48053W        W91069  16.422  23.733  17.484 -0.3456  0.0647  0.2060
48054W        W91070   3.440  21.736  26.036  0.0991 -0.0653 -0.0928
48055W        W91071  18.198  29.389  24.295 -0.1016  0.1604 -0.4527
48056W        W91072   1.239  28.872  15.420  0.0180  0.1362 -0.2480
48057W        W91073   3.162   5.992  19.464 -0.0144 -0.1515 -0.3573
48058W        W91074  26.862  25.385  20.523 -0.1135 -0.1304 -0.0460
48059W        W91075   0.829  27.589   1.051 -0.0507  0.0686  0.2435
48060W        W91076  12.239  29.610  28.725 -0.0175 -0.0411  0.2292
48061W        W91077  12.496   1.164  28.540 -0.1738 -0.0316  0.1923
48062W        W91078  20.603  29.945  23.176  0.2140 -0.1549  0.0035
48063W        W91079  10.154  28.101   6.127  0.1034  0.3057 -0.1452
48064W        W91080  21.793  12.310  13.913  0.0978 -0.2988 -0.1149
48065W        W91081  33.231  31.634  17.616  0.0261  0.0729  0.0976
48066W        W91082  16.325   5.595  14.738 -0.2849  0.0975  0.1190
48067W        W91083   5.513  27.962  21.435  0.1440 -0.0749 -0.2969
48068W        W91084  17.381  26.359  18.258  0.0745 -0.3683 -0.0841
48069W        W91085   3.506   5.869  14.481  0.3494 -0.0696 -0.0577
48070W        W91086   1.030   0.633  14.870  0.1441 -0.2490  0.1515
48071W        W91087  12.509  15.019  17.315 -0.0507  0.6033  0.1985
48072W        W91088   5.699  32.902  17.878  0.0992  0.2532  0.1929
48073W        W91089   5.147   0.998  20.101 -0.0113 -0.3108  0.2723
48074W        W91090   8.538   3.052  23.419  0.2430  0.1922  0.5975
48075W        W91091  13.570  25.318  27.884  0.0563 -0.2391  0.0956
48076W        W91092  24.193  34.114  17.050  0.2357  0.3113 -0.2972
48077W        W91093   3.512  10.927  20.717 -0.2025 -0.2243  0.0923
48078W        W91094  14.887  24.553  18.112  0.0899  0.0503  0.2431
48079W        W91095  25.716   4.152  17.377  0.0967 -0.2319 -0.0819
48080W        W91096   1.609   8.285  22.967  0.2083  0.2126 -0.3588
48081W        W91097   8.024  21.762  16.831  0.1083 -0.0559 -0.0863
48082W        W91098   7.161  27.821   5.008 -0.2501  0.1531  0.2689
48083W        W91099   1.314  32.362  20.524 -0.2897 -0.3146  0.1142
48084W        W91100  13.090  24.985  23.880  0.4243  0.1330 -0.1069
48085W        W91101  34.554  32.601  19.319 -0.1534  0.4972  0.0807
48086W        W91102  11.780  26.643  15.908  0.0053  0.2052  0.4083
48087W        W91103  14.923   0.828   0.529 -0.0575 -0.2484  0.0907
48088W        W91104  20.890  32.102  18.853  0.0492 -0.0477  0.1021
48089W        W91105   8.548  27.450  28.238  0.1608 -0.2254 -0.2247
48090W        W91106   6.376  31.136  15.945 -0.4474  0.4470  0.1603
48091W        W91107  18.136  20.123  25.122  0.0906  0.2222  0.1332
48092W        W91108  12.672  18.284  23.921 -0.0682  0.0961  0.0864
48093W        W91109   5.729  29.187  20.531 -0.0994  0.2711  0.0886
48094W        W91110  29.393  15.609  22.241 -0.0494  0.2785 -0.0261
48095W        W91111   8.777  29.792  15.207 -0.1862 -0.0363  0.2538
48096W        W91112  14.553   8.626   0.578  0.2368 -0.0170  0.0093
48097W        W91113  14.441   4.413  16.005 -0.0836 -0.1454 -0.1309
48098W        W91114  30.150  29.343  27.168  0.1228 -0.2323 -0.2183
48099W        W91115   4.570  15.318  19.454  0.2335 -0.0741 -0.0733
48100W        W91116   5.595   7.457  18.159 -0.2505 -0.1774 -0.2035
48101W        W91117  16.851  30.780  20.664 -0.3148 -0.2318  0.4099
48102W        W91118  15.212   6.029  26.471  0.0122 -0.2714 -0.1988
48103W        W91119   3.990   5.158  27.667 -0.5447  0.0734 -0.0639
48104W        W91120   6.511  26.364  24.260 -0.1437  0.2139  0.5128
48105W        W91121  26.764  11.456   1.646  0.1799  0.1801  0.2599
48106W        W91122   2.578  34.312  26.844  0.0723  0.0702 -0.0444
48107W        W91123   5.359  25.180  19.183 -0.2528  0.0886 -0.1383
48108W        W91124   0.321  28.716  24.696 -0.1665 -0.3127 -0.2088
48109W        W91125   4.141  32.983  22.220  0.1103 -0.2102 -0.0088
48110W        W91126  13.046  34.041  14.312  0.0693  0.0321 -0.1426
48111W        W91127   9.104  13.518  14.379 -0.4110  0.2195 -0.0544
48112W        W91128  21.574   3.137  21.235  0.2919  0.0640 -0.1386
48113W        W91129   2.118  26.563  29.068  0.2475 -0.0344  0.1273
48114W        W91130   9.603  27.519  28.593  0.2645  0.2271 -0.0291
48115W        W91131  32.154   8.336   5.956  0.0360  0.2574  0.0737
48116W        W91132  15.404   9.685  15.212  0.3995 -0.0492  0.2032
48117W        W91133  15.170  29.297  18.457 -0.0015 -0.3414 -0.3332
48118W        W91134  13.072  12.554  18.675 -0.1486  0.1968 -0.0560
48119W        W91135  11.050  26.179  13.865  0.1696  0.0350  0.1514
48120W        W91136  12.907   0.215  18.651  0.5858 -0.0617 -0.0623
48121W        W91137   7.929  33.003  18.486 -0.1065 -0.2425 -0.0150
48122W        W91138  20.619  30.362  26.817  0.1624 -0.0164  0.1752
48123W        W91139   1.392   6.568  13.592  0.0005  0.1710 -0.1592
48124W        W91140  29.972  25.201  24.247 -0.0823 -0.2642 -0.2289
48125W        W91141   3.261   8.881  28.265  0.0392  0.0765 -0.3175
48126W        W91142  27.193  31.921  28.587 -0.0897  0.0679  0.1217
48127W        W91143  16.635  25.188  28.705 -0.3794 -0.1499  0.0643
48128W        W91144   4.884  18.435  24.074 -0.0286 -0.1455  0.5317
48129W        W91145  14.942   8.801  24.131  0.2555  0.0460  0.0329
48130W        W91146  12.290  23.366  18.437 -0.3316  0.0383  0.2629
48131W        W91147  34.131   0.335  28.092 -0.2597  0.1152 -0.0767
48132W        W91148  11.194  29.196  15.225  0.1602  0.1896  0.0183
48133W        W91149   7.642   1.736  14.900  0.0058  0.1748  0.1720
48134W        W91150  21.054   0.159  20.210  0.0021  0.3132  0.2776
48135W        W91151  30.757  28.116  24.656  0.1683 -0.0905  0.1251
48136W        W91152  16.925  29.257  18.525 -0.0775  0.0334 -0.0668
48137W        W91153  23.059  28.624  26.520 -0.1179 -0.1993  0.0205
48138W        W91154  18.040  24.894  24.089 -0.0853 -0.0545  0.3167
48139W        W91155  18.859   0.428  20.452 -0.0560  0.1520  0.2815
48140W        W91156  12.508  22.664  13.189 -0.1847 -0.2201  0.0402
48141W        W91157   4.410  11.736  26.655  0.3266 -0.1661  0.1993
48142W        W91158   4.077  25.262  14.728 -0.1380  0.3251  0.1055
48143W        W91159  33.403   2.987  16.697  0.0980  0.1675 -0.0261
48144W        W91160  21.019  28.453  23.911 -0.0121  0.1324 -0.0358
48145W        W91161   6.379   2.481  15.050 -0.1240 -0.0467  0.0507
48146W        W91162   4.122  11.131  18.650  0.1230  0.0438 -0.0304
48147W        W91163  33.297  28.420  21.852 -0.2480  0.3730  0.2081
48148W        W91164   2.053  19.150  13.734 -0.0513  0.1976 -0.1991
48149W        W91165  12.563  28.301   1.213  0.0211 -0.1887  0.1616
48150W        W91166   8.923  30.450  14.111  0.0908  0.1633 -0.0537
48151W        W91167  18.577  24.072  15.204 -0.0550  0.2658  0.1267
48152W        W91168  31.765  25.928  17.431  0.0751  0.2805  0.1201
48153W        W91169   1.610  10.039  21.440  0.0383  0.1778 -0.2677
48154W        W91170   6.628  12.896   6.463 -0.1204 -0.1885 -0.1609
48155W        W91171   2.518  25.496  18.360  0.1410  0.1190  0.0359
48156W        W91172  31.766   6.189  15.390  0.1344 -0.3533 -0.0448
48157W        W91173  34.263   4.124  22.413  0.1330 -0.1029  0.0638
48158W        W91174  18.308  15.436  21.920 -0.3474 -0.4903 -0.3817
48159W        W91175  10.721   3.579  15.391  0.0682  0.0255  0.0763
48160W        W91176  33.573  33.353  20.416 -0.2473 -0.2064  0.2606
48161W        W91177  18.479  28.347   5.519 -0.2275 -0.2321 -0.0713
48162W        W91178  33.523  27.974  21.722 -0.0660  0.0879 -0.0803
48163W        W91179  16.244  31.611  21.946  0.0248 -0.2736 -0.2228
48164W        W91180  29.086  27.969  29.097  0.2351 -0.0163 -0.2500
48165W        W91181  13.402  29.682  24.466  0.0729  0.0082  0.2474
48166W        W91182  18.376  23.151  18.427  0.0114 -0.0676 -0.4146
48167W        W91183  27.073  34.181  25.022  0.0379 -0.1172 -0.2746
48168W        W91184  27.823   3.907   1.814  0.1838  0.2368  0.0733
48169W        W91185  19.987   3.713  28.730 -0.0719 -0.2492 -0.1029
48170W        W91186  12.310   3.886   8.160  0.1431 -0.3167 -0.0053
48171W        W91187  32.179  29.658   1.774 -0.0397 -0.1165  0.1294
48172W        W91188  17.774  22.117   6.714 -0.2036  0.0251 -0.0202
48173W        W91189   1.310  20.759  19.059 -0.3950  0.2157 -0.3950
48174W        W91190  26.299   4.050   1.794  0.2897 -0.1498  0.0112
48175W        W91191   2.766  21.072  28.873 -0.0005 -0.0963 -0.0071
48176W        W91192   3.427   0.635  22.055 -0.2520  0.0264 -0.3630
48177W        W91193  20.434  23.469   0.611  0.0048 -0.0281 -0.0647
48178W        W91194   1.863  33.014  14.352  0.1437  0.1700 -0.2223
48179W        W91195  14.133   0.306  15.366 -0.1234  0.3027 -0.2066
48180W        W91196  20.252  21.248  17.356  0.0100 -0.1801  0.0771
48181W        W91197   0.102  14.459  17.164  0.0255 -0.1003 -0.2231
48182W        W91198  22.596   4.000   1.645 -0.0481 -0.0171  0.1578
48183W        W91199   4.775  32.962  22.535  0.1070  0.0752 -0.2288
48184W        W91200  12.365  31.252  20.490 -0.0122  0.1722  0.1303
48185W        W91201   9.394  14.033  16.126  0.3484  0.2350 -0.1107
48186W        W91202   1.879  18.086   3.352 -0.1322  0.0318 -0.1723
48187W        W91203  30.081  23.178   5.314  0.0796 -0.2760 -0.2671
48188W        W91204  23.918  16.820  22.168  0.0030  0.0916 -0.1042
48189W        W91205  34.281  33.094  21.206 -0.1812 -0.0061 -0.1800
48190W        W91206  31.136  24.210  16.980 -0.0480  0.0064 -0.0082
48191W        W91207  11.242  27.317   5.530 -0.0373 -0.0181 -0.1589
48192W        W91208   0.883   4.272  27.579  0.1425  0.1478 -0.1856
48193W        W91209   4.810  33.143  28.423 -0.0092 -0.0486 -0.0067
48194W        W91210  16.627  10.494  20.919  0.0814 -0.5137  0.0853
48195W        W91211  33.258  11.034  22.065 -0.0285 -0.1816 -0.3364
48196W        W91212  12.221  34.127  15.498  0.1114 -0.1107  0.3195
48197W        W91213  15.726  33.117  24.243 -0.0184 -0.0707 -0.2401
48198W        W91214  13.805  34.560  19.729  0.0587 -0.0781 -0.0272
48199W        W91215  32.698   3.694  14.483 -0.0516 -0.0940  0.2668
48200W        W91216  10.040  27.694   9.203  0.1653 -0.2552 -0.2014
48201W        W91217   1.134  10.279  27.229  0.2881  0.3335 -0.1742
48202W        W91218   3.940   2.448  18.301  0.0833  0.1533 -0.2907
48203W        W91219  33.949   3.431   9.863 -0.0558 -0.2188  0.0189
48204W        W91220  20.320   2.915  10.268  0.1475  0.1256  0.0876
48205W        W91221  16.630  31.876   2.244  0.1432 -0.2063  0.3846
48206W        W91222   0.397  27.133  22.784 -0.0475  0.0277 -0.1595
48207W        W91223  29.074  32.473   3.796 -0.0151 -0.1094  0.1957
48208W        W91224   0.590  18.230   0.551  0.1744 -0.0381 -0.1580
48209W        W91225   7.933  30.363  23.995 -0.1911 -0.2237 -0.2523
48210W        W91226   3.091  12.972  14.829 -0.0516  0.1456  0.1934
48211W        W91227  19.139  19.875  21.171  0.0310 -0.1476 -0.0510
48212W        W91228   5.740   3.561   5.823  0.0558  0.1737 -0.1717
48213W        W91229  33.340  33.695   2.249  0.0682 -0.2698 -0.0405
48214W        W91230  12.312  31.365  17.790  0.0022 -0.2174  0.0856
48215W        W91231  13.010  16.883  22.739  0.0122  0.2948 -0.1510
48216W        W91232  14.407  23.379  22.903  0.0304 -0.0775  0.0213
48217W        W91233  10.567  27.907  22.005  0.2294 -0.3440  0.0500
48218W        W91234   3.599   2.904  24.592  0.4070 -0.1817  0.2700
48219W        W91235  18.057  23.363  17.471  0.0614 -0.0290 -0.0356
48220W        W91236   2.588  33.163   7.613 -0.0425  0.2167  0.0201
48221W        W91237  14.116  10.529  18.241 -0.0651  0.1758  0.1511
48222W        W91238  13.897  33.677   2.979  0.3284 -0.1262 -0.0133
48223W        W91239  21.044  33.639  25.228  0.1455 -0.0210  0.0221
48224W        W91240  18.806   5.065   6.122  0.0589 -0.0500 -0.0029
48225W        W91241   2.927  24.793   3.014  0.2568 -0.2970  0.3021
48226W        W91242  11.554  13.776  14.457  0.1236  0.2299 -0.1456
48227W        W91243   8.415  27.712   8.486 -0.2646  0.0363 -0.2310
48228W        W91244  24.340   7.949   0.501  0.0629 -0.0446  0.2637
48229W        W91245  20.589  30.303  17.043 -0.2830  0.2104  0.2330
48230W        W91246  12.231  15.004  22.228 -0.0330  0.0108 -0.1853
48231W        W91247   3.106   1.013  14.573 -0.0287  0.0409 -0.0784
48232W        W91248  13.728  19.491   7.673 -0.1511 -0.3306  0.2693
48233W        W91249  12.979  25.867  25.083  0.3201 -0.0641  0.3836
48234W        W91250  13.288  10.209  18.957  0.0084 -0.0800 -0.0134
48235W        W91251   9.836  28.429  27.626  0.2357 -0.1041  0.4804
48236W        W91252  33.903  25.090   6.835  0.0687  0.4517 -0.0266
48237W        W91253   3.917  28.739  19.841  0.1337 -0.3131 -0.1705
48238W        W91254  24.891  21.273  20.983 -0.2723 -0.1323 -0.1842
48239W        W91255  17.720  24.515  28.692  0.0637  0.2089  0.0359
48240W        W91256  12.019   4.125   7.465 -0.0456 -0.1480 -0.0789
48241W        W91257  11.561   7.328  29.162 -0.2266 -0.0176 -0.1502
48242W        W91258  21.847  16.542  14.092 -0.1628 -0.0125 -0.0392
48243W        W91259  16.050  18.229  13.503  0.0164  0.1695 -0.3540
48244W        W91260  16.569  34.142   8.736 -0.3837  0.1189 -0.2638
48245W        W91261  30.785  10.240  15.672  0.0071 -0.1902  0.1061
48246W        W91262  10.704  31.853   0.651 -0.1580 -0.1505 -0.1606
48247W        W91263  28.892  13.139  19.969  0.1846 -0.1701  0.0843
48248W        W91264  27.423   4.779  19.413 -0.0660  0.1138  0.0375
48249W        W91265  16.126  33.805  17.553 -0.1711  0.2118  0.0219
48250W        W91266   1.603  20.505  20.023 -0.0857  0.0643 -0.2709
48251W        W91267  11.703  10.772  16.960 -0.3874  0.0577 -0.0052
48252W        W91268   8.721  21.685  18.888  0.2073  0.1666  0.0180
48253W        W91269  14.396  23.064   2.772  0.0624 -0.1261 -0.0006
48254W        W91270  14.885  17.183   4.223  0.0786  0.1711 -0.2148
48255W        W91271  33.887  15.646  17.779 -0.3030  0.0805  0.0577
48256W        W91272   8.309  11.350   7.110  0.2963 -0.2518 -0.0922
48257W        W91273   9.651  21.878  20.972 -0.1180  0.0720 -0.1918
48258W        W91274   8.992  22.727  24.476 -0.1679 -0.0313 -0.1517
48259W        W91275  17.161  25.219  15.152  0.3043  0.3037 -0.0403
48260W        W91276  31.441   4.905  17.742  0.1212  0.3738  0.0867
48261W        W91277  24.567  32.595   2.194  0.0030 -0.0935  0.0554
48262W        W91278  19.863  31.742   8.171 -0.0744 -0.0548  0.1300
48263W        W91279   9.131  16.919  20.094 -0.1325  0.1231  0.1022
48264W        W91280   1.441  24.164  18.080 -0.2037 -0.1323 -0.3101
48265W        W91281  32.579  29.007   6.469  0.1532 -0.1068  0.2232
48266W        W91282  11.507  20.119  22.788  0.1566 -0.2634  0.1255
48267W        W91283   5.875  19.841  15.116  0.2598  0.0116  0.2776
48268W        W91284  30.729  27.403  17.623  0.2694  0.0060  0.2398
48269W        W91285  31.057  15.413  24.015 -0.1930  0.0534 -0.0330
48270W        W91286  32.831   8.672  21.993  0.2367 -0.1056 -0.2443
48271W        W91287   4.905   0.549  15.036  0.1816 -0.0027  0.0981
48272W        W91288  19.392  34.372   0.400  0.0100  0.3913 -0.1316
48273W        W91289  12.013  18.346  14.246 -0.0704  0.3877  0.2324
48274W        W91290  16.784   5.969  19.689 -0.1286  0.0670 -0.2053
48275W        W91291   7.281  26.017  15.175  0.1070  0.1895  0.1050
48276W        W91292  22.830  31.791   2.145 -0.3119 -0.0754  0.0521
48277W        W91293  11.183   6.374  27.574 -0.0257  0.2572 -0.3511
48278W        W91294   9.471   2.943  19.896  0.3060 -0.2993 -0.0421
48279W        W91295  20.499  17.964  28.487 -0.3334 -0.0651 -0.2935
48280W        W91296   3.795  28.495  26.081 -0.0625  0.0134 -0.1835
48281W        W91297   8.792  16.527  16.985 -0.2168  0.0322  0.1684
48282W        W91298  20.815  26.926   5.307  0.0042 -0.0451  0.1187
48283W        W91299  34.587  26.784   9.732  0.1116 -0.0281  0.3373
48284W        W91300  17.711  31.532  18.565 -0.0507  0.0315  0.1432
48285W        W91301   2.715  29.081  18.984 -0.1246 -0.2147  0.0327
48286W        W91302   1.137  33.961  18.550  0.2323  0.0462 -0.0739
48287W        W91303   6.608  19.234  12.983 -0.2471 -0.0402 -0.0491
48288W        W91304   3.878  23.853  26.417 -0.1472 -0.0647  0.1131
48289W        W91305   5.964   8.601  22.501 -0.0046  0.0475 -0.2024
48290W        W91306  14.359  27.720  18.915  0.0174  0.2623 -0.0483
48291W        W91307   4.530  13.392  23.444 -0.1242  0.1920 -0.0514
48292W        W91308   8.327  22.560  14.360 -0.1856  0.0317  0.1425
48293W        W91309  14.546  11.117  13.554 -0.2204 -0.1298 -0.2024
48294W        W91310  26.288   2.657  22.841  0.2284 -0.0674  0.1782
48295W        W91311  27.846  31.764   2.276 -0.1118  0.4268 -0.1223
48296W        W91312  16.283   3.277  13.519 -0.2337  0.1865 -0.1257
48297W        W91313  13.624   5.265  17.594 -0.0484 -0.0500 -0.1522
48298W        W91314  33.565  30.409  20.682 -0.0858  0.0015  0.1121
48299W        W91315  25.891  31.384  16.594  0.0493 -0.2170  0.3699
48300W        W91316  23.134  28.172  28.215  0.0887 -0.1042  0.0316
48301W        W91317  18.478   3.238  21.977  0.0425  0.0104  0.0929
48302W        W91318   9.821  34.663  26.210  0.1224  0.0087  0.1826
48303W        W91319  26.655  10.039  22.003  0.2388 -0.1409  0.0835
48304W        W91320  11.710  21.892  12.795  0.2594 -0.0845  0.0924
48305W        W91321  29.211  22.608  11.232 -0.1373  0.1462  0.0569
48306W        W91322  14.213  34.382  22.092 -0.0977  0.3856 -0.0826
48307W        W91323   3.159  31.038  22.316  0.0214  0.0876  0.1955
48308W        W91324  16.701  26.405  25.939 -0.2658 -0.0856  0.0956
48309W        W91325  18.466  21.592  15.036 -0.0778  0.2241 -0.2798
48310W        W91326  16.441  20.684  22.851 -0.1067 -0.2757 -0.1835
48311W        W91327   3.538  22.082  29.065 -0.1939 -0.2198  0.0284
48312W        W91328  25.237  26.800   7.493  0.1517  0.1510 -0.0661
48313W        W91329  34.269  31.601  16.318  0.0881 -0.0556  0.0326
48314W        W91330  31.344  16.785  20.690  0.2452 -0.2463  0.1014
48315W        W91331  10.352  25.207  28.934  0.0994 -0.1426 -0.1216
48316W        W91332  25.332  32.894  10.820 -0.1155 -0.1276 -0.0219
48317W        W91333  14.176  18.055  26.780 -0.0762  0.0319 -0.0501
48318W        W91334  29.184   4.124  28.578 -0.0478 -0.3006 -0.2270
48319W        W91335  24.130  16.668  16.428  0.0813  0.0400 -0.0543
48320W        W91336   8.742  25.523   1.421  0.2718  0.0299  0.0466
48321W        W91337   4.836  15.020  29.204 -0.0380  0.0452 -0.0693
48322W        W91338   7.248  25.420  20.213 -0.2421  0.0010  0.1222
48323W        W91339  16.835   7.074  18.274 -0.1704  0.3586 -0.4553
48324W        W91340   8.457  34.076   9.652  0.0326  0.0269  0.2000
48325W        W91341   4.798  13.254  17.769  0.2531 -0.1550  0.0092
48326W        W91342  10.436  28.440  14.916 -0.0438 -0.1608  0.0347
48327W        W91343  20.064  13.503   3.858  0.2419 -0.0253  0.0614
48328W        W91344  13.596  28.441  22.950 -0.0309 -0.2569 -0.0031
48329W        W91345  27.733  30.627   6.708  0.2140 -0.0103 -0.2495
48330W        W91346  14.987  33.407   4.480  0.0137  0.3741 -0.0126
48331W        W91347  34.440  21.367  22.608 -0.4019 -0.0571 -0.0324
48332W        W91348   9.028  28.564  16.831  0.0113  0.0692 -0.0625
48333W        W91349  13.654   7.837  19.345  0.1243  0.1178  0.0036
48334W        W91350   6.377  34.529  28.529 -0.0192  0.1724 -0.0154
48335W        W91351   9.856  10.579  26.318  0.0603  0.2701  0.0548
48336W        W91352  17.933  23.044  14.847 -0.1311  0.0950 -0.2558
48337W        W91353   3.953  20.325  18.481  0.2059 -0.0072 -0.2269
48338W        W91354   0.647  26.846  20.302  0.1313  0.1815  0.2456
48339W        W91355  28.001  14.798   3.799  0.0047  0.5173  0.3367
48340W        W91356   2.776  17.888  28.923 -0.1937  0.0656 -0.0784
48341W        W91357  18.315   5.557   1.632  0.4274 -0.0668  0.1613
48342W        W91358  15.414   0.273  17.691  0.1131 -0.4010 -0.2100
48343W        W91359   9.592  18.220  20.056 -0.0005 -0.0296 -0.0782
48344W        W91360  27.775  18.279  26.534  0.2419 -0.1955 -0.1729
48345W        W91361  12.511  32.309  21.391 -0.2201 -0.0110 -0.1277
48346W        W91362  10.394  29.227   6.302  0.1306 -0.3154  0.1782
48347W        W91363   2.158  20.679  20.569  0.2027  0.2072  0.1867
48348W        W91364  10.516   1.733  19.247 -0.1241  0.1049  0.0740
48349W        W91365  16.373  26.228  25.246  0.1765  0.0335 -0.0465
48350W        W91366  10.992   9.166  16.590 -0.0236  0.0267 -0.3622
48351W        W91367   5.368  18.204  15.716 -0.1374 -0.1068  0.2235
48352W        W91368  34.539   7.590  26.341  0.0380 -0.3557  0.1147
48353W        W91369  18.799  30.530  20.915  0.1907  0.2019 -0.1735
48354W        W91370   5.620  17.340  22.942 -0.0163 -0.0560  0.1707
48355W        W91371  10.982  29.783  21.915  0.2204  0.2339  0.1417
48356W        W91372  33.205  23.160  16.310 -0.1143 -0.0337 -0.2003
48357W        W91373  12.056  12.103  18.777  0.2190  0.2844  0.3103
48358W        W91374  21.577  25.495   1.034  0.1125 -0.0687 -0.3122
48359W        W91375  17.459   7.864   1.130  0.1735  0.1739  0.0178
48360W        W91376  22.968  26.416  21.468 -0.2204 -0.0108  0.2712
48361W        W91377  12.137  11.207  22.273  0.2098 -0.2002  0.0925
48362W        W91378   9.854  19.256   9.035 -0.1426 -0.0796 -0.2222
48363W        W91379  21.668  17.626   6.365  0.2202 -0.0326  0.0490
48364W        W91380  24.634  29.441  29.172  0.1741  0.1049  0.1412
48365W        W91381   2.565   5.456  18.557  0.0328 -0.0017  0.0198
48366W        W91382  11.579  20.838   0.248  0.0927  0.0642  0.0151
48367W        W91383  23.774  34.593   0.352 -0.0936  0.2999 -0.3581
48368W        W91384  15.304  25.490  24.223 -0.1577  0.0118  0.5241
48369W        W91385  31.266  33.432  24.031  0.1874 -0.0956 -0.1295
48370W        W91386   0.850  27.595  18.945 -0.2549  0.2678 -0.1270
48371W        W91387   8.656   3.031  17.012  0.2174 -0.3752  0.1470
48372W        W91388  12.671  20.962  16.175  0.1013  0.1033 -0.1834
48373W        W91389   2.184  19.975  29.010 -0.1395 -0.5278  0.1907
48374W        W91390  20.523  27.224   4.216  0.3631 -0.0340 -0.0491
48375W        W91391  27.043  19.814  21.001 -0.0209  0.0987 -0.2705
48376W        W91392   3.448  30.915   9.205 -0.0112 -0.1364 -0.3247
48377W        W91393  15.629  26.509  17.618  0.3379 -0.0241  0.0373
48378W        W91394   4.602  26.230   9.649  0.1655 -0.3495  0.0162
48379W        W91395  23.255   7.726   7.089  0.1018  0.0019  0.1641
48380W        W91396  26.128  23.751  25.995  0.1008 -0.0045  0.0553
48381W        W91397  18.460  14.991  13.654 -0.0959  0.0724 -0.2839
48382W        W91398  15.904  31.824   4.712  0.0956 -0.1404  0.1419
48383W        W91399  29.837  21.066  20.364  0.0331  0.0686 -0.0989
48384W        W91400  29.239  22.723   0.276  0.2733 -0.0139  0.0703
48385W        W91401   0.675  33.929  17.068 -0.0119 -0.1018 -0.3101
48386W        W91402  19.361  23.490  21.935  0.1834  0.1498 -0.2914
48387W        W91403  26.383   9.543   0.365 -0.2357  0.2532  0.5026
48388W        W91404  15.081   7.876  18.776 -0.1722 -0.0871  0.1702
48389W        W91405  16.129  29.498  20.737 -0.0589 -0.1776 -0.4978
48390W        W91406  12.302   8.508   0.205 -0.0128 -0.1541  0.0933
48391W        W91407   9.767  25.306  14.629  0.0004 -0.1183  0.1603
48392W        W91408  16.268  28.467  26.397 -0.4514 -0.1761 -0.2916
48393W        W91409   9.949   8.541  25.868  0.1540 -0.0545  0.0075
48394W        W91410  11.210  33.593   4.794 -0.2163  0.2080 -0.1115
48395W        W91411  29.399  23.313  21.958 -0.2043  0.2780 -0.1089
48396W        W91412  14.065  20.941  23.833 -0.3659 -0.1006 -0.1694
48397W        W91413  15.774   6.452  22.195  0.0769  0.0083  0.0308
48398W        W91414   7.284  31.077  14.810  0.0674  0.0930 -0.0710
48399W        W91415  10.367  29.946  16.806  0.1548  0.1787  0.1828
48400W        W91416   2.920  30.011   2.510  0.2040  0.3830  0.0844
48401W        W91417  11.711  25.283  23.774 -0.1111  0.4121  0.0616
48402W        W91418  14.200  23.266  23.507  0.1423  0.1159 -0.0026
48403W        W91419   1.001  34.395  18.963 -0.2045  0.2088  0.1291
48404W        W91420   0.012   6.878   4.596  0.2011 -0.0347 -0.2833
48405W        W91421   4.912  19.627  13.644  0.2473  0.1348 -0.0978
48406W        W91422  33.079  14.094  17.518  0.5139  0.0053  0.0125
48407W        W91423   4.198  12.394  20.863  0.0110 -0.3984 -0.0416
48408W        W91424  18.681  32.924  16.223  0.0936  0.0449  0.0168
48409W        W91425  12.817  33.634   2.249  0.0206  0.0049 -0.0485
48410W        W91426  22.659  29.041  25.750  0.0690 -0.0719  0.0251
48411W        W91427  14.040   2.347  19.396 -0.0834 -0.1525 -0.3336
48412W        W91428  16.496  24.732  28.653  0.0326 -0.0330  0.0374
48413W        W91429  14.368  24.551  14.764  0.1418 -0.0458  0.0999
48414W        W91430  22.868  31.332  19.643 -0.2044 -0.0588  0.0362
48415W        W91431   8.216  29.982  29.129 -0.3310 -0.1421 -0.0264
48416W        W91432  11.215  32.863  24.458  0.1959 -0.1923 -0.0639
48417W        W91433  14.620  22.093  25.526  0.0208  0.1521  0.2889
48418W        W91434  20.724  24.946   2.089 -0.5215  0.1695 -0.2642
48419W        W91435   9.744   0.235  25.390  0.0407  0.1481 -0.2635
48420W        W91436  11.252  28.269   4.859 -0.0490  0.3516 -0.3488
48421W        W91437  19.761  26.344  27.881  0.0371 -0.0154  0.3168
48422W        W91438  24.183  23.722   8.313  0.0532 -0.1627  0.2279
48423W        W91439  10.337  32.855  25.697 -0.1870  0.2884  0.0842
48424W        W91440  20.084  13.167  19.929  0.1028 -0.1573 -0.1378
48425W        W91441   8.247   1.502  26.481 -0.1373 -0.0760  0.1458
48426W        W91442  13.850  25.531  20.887  0.0908 -0.0889  0.0435
48427W        W91443  23.161  24.190   3.705  0.1073 -0.2392  0.0888
48428W        W91444  22.514  10.297  14.663 -0.1111  0.1258 -0.2012
48429W        W91445   1.302  18.147  19.275  0.1487  0.0822  0.0108
48430W        W91446  27.639  19.975   4.003 -0.1923  0.0794  0.4595
48431W        W91447  14.383  26.362  13.107 -0.0632 -0.1133  0.0666
48432W        W91448   6.097  28.519  21.193 -0.1664  0.2383  0.3183
48433W        W91449   9.636   3.621  20.887 -0.0800  0.2010 -0.0401
48434W        W91450   8.122  18.919  28.342 -0.2593 -0.0159  0.2870
48435W        W91451  17.884  20.242  26.048  0.0220  0.0535  0.3512
48436W        W91452  12.609  21.235   3.939  0.1242  0.0240 -0.2919
48437W        W91453   8.692  19.227  21.483  0.0313  0.1764  0.1393
48438W        W91454   0.932   6.306  20.736  0.2030  0.3819  0.1085
48439W        W91455   1.909  13.960  15.858 -0.2186  0.2528  0.2377
48440W        W91456  11.014  25.255  20.660  0.2812 -0.1023  0.0306
48441W        W91457  23.053  29.451  21.785 -0.2901  0.0614 -0.1580
48442W        W91458  14.646  16.239  14.056  0.2252 -0.1231  0.1333
48443W        W91459   5.104  30.180  16.774 -0.3018 -0.0792 -0.1285
48444W        W91460   3.378   3.230   7.125 -0.4826  0.0702  0.3163
48445W        W91461   2.074  23.111  18.690  0.1379 -0.0749  0.0443
48446W        W91462  10.212  24.430  19.833 -0.1055 -0.1707  0.2549
48447W        W91463   9.064  31.850  14.428  0.2114  0.1492  0.1051
48448W        W91464  32.300  27.751  15.490  0.2633 -0.0877  0.2133
48449W        W91465  15.626  19.509  25.865  0.3383 -0.1914 -0.1059
48450W        W91466  13.516   7.979   7.050  0.0350 -0.0088 -0.0719
48451W        W91467   9.614  25.432   4.281  0.2899 -0.1279 -0.1577
48452W        W91468  16.498  32.626  15.035 -0.0220  0.0589  0.0386
48453W        W91469  21.158  18.025  26.227  0.0659  0.0882 -0.3370
48454W        W91470   6.172   2.007  21.811 -0.0543 -0.0335  0.1760
48455W        W91471   6.674  26.170  13.585  0.0104  0.0415  0.1118
48456W        W91472   8.618  23.556   2.393 -0.1375 -0.2570  0.3008
48457W        W91473  19.233  31.707   4.114 -0.0858  0.0707  0.2258
48458W        W91474  14.492  10.313  17.860 -0.0599 -0.0679 -0.2050
48459W        W91475  10.937   5.449   5.934 -0.2185 -0.0542  0.0530
48460W        W91476  11.289  22.638  22.317 -0.2217  0.0846 -0.2434
48461W        W91477  18.060  23.420  21.595 -0.0540  0.1406  0.0231
48462W        W91478  18.082  11.937  18.754 -0.0189 -0.1746 -0.1513
48463W        W91479   5.218  24.188   2.972 -0.2165  0.1096 -0.1350
48464W        W91480  31.385  22.016   7.675  0.0371 -0.0229  0.0410
48465W        W91481  33.827  32.904  17.411 -0.1635 -0.2714 -0.1216
48466W        W91482   3.229  14.103  17.133  0.1297  0.2432 -0.0661
48467W        W91483  15.017  29.038  17.464  0.1870 -0.3218 -0.1710
48468W        W91484   9.304  28.023  20.641 -0.0689  0.1209  0.0095
48469W        W91485  19.111  32.114  23.719  0.1813 -0.0474 -0.2021
48470W        W91486  24.540  28.392  26.052  0.0066  0.1608  0.0322
48471W        W91487   9.933  19.040  21.037  0.1869 -0.0161 -0.3386
48472W        W91488  10.180   0.198   0.831 -0.3375 -0.1745  0.3506
48473W        W91489  27.909  19.389  25.078  0.1324  0.2516 -0.0930
48474W        W91490   9.957   9.493  14.980  0.0033  0.1515 -0.0839
48475W        W91491  21.530  32.229  17.258 -0.3261  0.3823  0.2671
48476W        W91492  13.754   3.747  28.827  0.1752 -0.0094 -0.1074
48477W        W91493  15.681   5.705  24.501  0.0913  0.1274 -0.3993
48478W        W91494  10.952   2.049  28.692 -0.4061 -0.1960  0.0443
48479W        W91495   0.327  18.994  15.088  0.0695 -0.0344  0.1717
48480W        W91496  34.642   2.365   2.889  0.3635 -0.3738 -0.2438
48481W        W91497   9.024  18.882   0.107  0.1410  0.1616  0.1368
48482W        W91498  16.850  23.941  24.038 -0.0950  0.2123 -0.1298
48483W        W91499   4.358  22.792  22.834 -0.1585  0.0393 -0.0999
48484W        W91500   3.338  17.640  19.455  0.2038  0.4382 -0.0831
48485W        W91501  31.603  10.070  23.367  0.1709  0.2993  0.0646
48486W        W91502  28.983  25.423  27.790  0.0671  0.2050  0.0606
48487W        W91503  18.492  21.181  24.536  0.1447  0.1364 -0.0814
48488W        W91504  11.912  24.742  19.157  0.0718 -0.1110  0.0567
48489W        W91505  27.813   8.137   9.227  0.0819  0.0245  0.4257
48490W        W91506   1.057  17.748  19.143 -0.1647  0.4096  0.0157
48491W        W91507  15.490  29.036  28.141 -0.2952  0.3809 -0.1778
48492W        W91508  12.608  15.046  13.394 -0.0861 -0.0919 -0.0950
48493W        W91509   5.282   4.688  17.795  0.0370  0.1092 -0.2876
48494W        W91510  25.899  25.577  21.648  0.2020 -0.0259 -0.1506
48495W        W91511   6.305  22.261   9.052 -0.0941  0.0459  0.3014
48496W        W91512  23.972   0.969  21.255 -0.1260  0.0352 -0.2551
48497W        W91513  32.874  24.257  18.062 -0.2630 -0.2297  0.1715
48498W        W91514  11.418  12.914  21.757 -0.0882 -0.0077 -0.1520
48499W        W91515   4.489  16.196  17.629 -0.4131  0.0606  0.3309
48500W        W91516   6.945  25.819  27.374  0.0443 -0.2631  0.1812
48501W        W91517   3.068  26.680  24.613  0.2962 -0.2588  0.1996
48502W        W91518  16.213  29.908  16.413  0.0127 -0.1398  0.1832
48503W        W91519  10.905  23.429  23.575 -0.1463 -0.1177  0.2309
48504W        W91520   2.164   5.930  22.766  0.1015 -0.0621 -0.1785
48505W        W91521  22.743  27.908  17.228 -0.1776  0.1390  0.1450
48506W        W91522  17.728  17.801  12.203  0.0823  0.1324 -0.0471
48507W        W91523  26.608  21.814  17.668 -0.0903 -0.0051 -0.4649
48508W        W91524   7.358  22.689   2.370 -0.3324 -0.2941  0.2455
48509W        W91525  15.539  16.258  14.210 -0.0318 -0.0951 -0.1187
48510W        W91526  18.633  13.267  14.267 -0.2221 -0.3234  0.1055
48511W        W91527  21.990  26.488  24.516  0.1719 -0.1528 -0.0501
48512W        W91528  32.809  15.445  29.028 -0.2964  0.0479 -0.3004
48513W        W91529  33.179   4.820  18.859  0.1569  0.0719 -0.2251
48514W        W91530  22.219  24.077  18.768  0.1075  0.0489  0.1194
48515W        W91531   8.982  34.030  26.587  0.1918  0.0574  0.2859
48516W        W91532   6.976  29.975   2.431  0.1569 -0.2102 -0.1306
48517W        W91533  22.671  28.665  23.800  0.0884  0.0657  0.2609
48518W        W91534  25.021  20.922  25.209  0.0103  0.3531  0.0967
48519W        W91535   7.930   5.130  25.078  0.2184 -0.2397 -0.2974
48520W        W91536  14.692  11.287  22.588 -0.1064  0.3224  0.3054
48521W        W91537   8.366  31.184   3.925 -0.2345  0.1707 -0.1744
48522W        W91538  16.403  22.978   5.992 -0.2076 -0.1324 -0.0783
48523W        W91539  28.799  28.310  21.300 -0.0774  0.0395  0.2709
48524W        W91540  20.992  15.605  13.843 -0.2738  0.3347 -0.1086
48525W        W91541   6.528  24.087   0.776  0.2187  0.0222  0.0860
48526W        W91542  20.667  17.972  29.229  0.0292  0.0897  0.1663
48527W        W91543  26.827  19.321  19.633 -0.2450 -0.0789 -0.1580
48528W        W91544   1.684  23.725  15.307 -0.0245  0.1035  0.1854
48529W        W91545   7.554  14.331  16.045 -0.0479 -0.0680  0.0129
48530W        W91546  27.651  19.718  15.316  0.1267  0.4852  0.0821
48531W        W91547   6.214  19.280  23.616  0.1184  0.2787  0.1922
48532W        W91548  15.193  19.829  14.096  0.1018 -0.1810 -0.0643
48533W        W91549   4.154  28.598  14.745 -0.3695 -0.0304 -0.2657
48534W        W91550   5.184   0.445  27.785  0.1835  0.2684  0.1656
48535W        W91551   9.703   0.463  24.499 -0.1388 -0.1641 -0.0881
48536W        W91552  14.304  22.359  17.888 -0.0950 -0.0911 -0.1771
48537W        W91553   7.142  27.707  29.093 -0.0004  0.0052 -0.2945
48538W        W91554   9.480  18.675  27.113 -0.3563 -0.3052 -0.0180
48539W        W91555   8.096  31.717  16.151 -0.2810  0.0519  0.4726
48540W        W91556  13.240   1.626  19.929  0.1622  0.0563 -0.0561
48541W        W91557   1.179  19.322  26.884  0.0711 -0.1838 -0.1425
48542W        W91558  29.028   0.893   1.194 -0.1426  0.3469  0.1569
48543W        W91559   7.853  31.833  21.784 -0.1038  0.0177  0.4050
48544W        W91560   7.530  19.550   3.344 -0.1252 -0.0720  0.1034
48545W        W91561  19.388  26.843  14.358  0.1473 -0.2649 -0.1496
48546W        W91562  26.332  19.705  25.437  0.0064 -0.3129  0.2250
48547W        W91563  10.004  22.736  14.009 -0.1763  0.3462 -0.0541
48548W        W91564  31.696   4.922  10.033  0.0391 -0.0930 -0.0059
48549W        W91565  26.242  21.688  28.735 -0.1610  0.2003 -0.0427
48550W        W91566  32.886  10.469  20.243  0.0974  0.2377 -0.1300
48551W        W91567  34.250  30.321   6.945  0.1371 -0.1321 -0.2285
48552W        W91568  11.311  20.978  14.466  0.0951 -0.2847 -0.1620
48553W        W91569   8.956  10.927  25.953  0.4333 -0.2165 -0.0604
48554W        W91570   6.421   1.065  16.726 -0.0409  0.2211 -0.0459
48555W        W91571  19.167  21.009  15.382 -0.0371  0.1987  0.0102
48556W        W91572  17.367  16.248  20.633 -0.0843  0.0692  0.1176
48557W        W91573  21.139  34.473   2.957 -0.3524  0.2663 -0.1095
48558W        W91574  17.095  29.407  17.390  0.0566  0.1296 -0.1202
48559W        W91575  13.537  25.688   1.092 -0.2360  0.1066  0.3851
48560W        W91576   4.599  32.132  17.007  0.3417 -0.0265  0.1545
48561W        W91577  17.164   4.679  14.959  0.0570  0.7469  0.0594
48562W        W91578  19.812  25.901  17.759 -0.0616  0.1529 -0.3879
48563W        W91579   2.815  16.812  14.446  0.1524  0.1158 -0.0686
48564W        W91580   3.009  31.708  18.691 -0.0347  0.1187 -0.0254
48565W        W91581   5.456  15.721  18.458 -0.1011  0.0504  0.0408
48566W        W91582  29.377   6.146  19.840  0.2737  0.0289  0.0011
48567W        W91583  15.342  22.286   2.683 -0.0123 -0.1516 -0.2784
48568W        W91584   1.229  11.913  10.309 -0.0365  0.1654  0.1926
48569W        W91585  34.317  19.982   2.834 -0.3301  0.1904 -0.1448
48570W        W91586   5.680  11.709  27.028  0.2586 -0.4338  0.1883
48571W        W91587  20.646  21.465   5.863  0.0627  0.1311 -0.1128
48572W        W91588  31.918  27.412  10.226 -0.0964  0.1073 -0.0457
48573W        W91589  25.552  17.281   2.459 -0.0255 -0.2988 -0.1586
48574W        W91590  12.623  13.381   8.155  0.0024 -0.5259 -0.1857
48575W        W91591  31.142   7.690   5.112 -0.0081  0.1658 -0.0493
48576W        W91592  28.180  21.335  15.137  0.3622 -0.1992 -0.3035
48577W        W91593   2.490   1.996  13.945  0.0758  0.0707  0.3426
48578W        W91594  24.540  26.986  21.822 -0.1181  0.0640  0.1607
48579W        W91595   5.829  27.798  17.633  0.1436 -0.0792  0.2033
48580W        W91596   1.056  29.935  21.643  0.3914  0.2728  0.0496
48581W        W91597  28.504  20.238  20.249 -0.0101  0.1680  0.2746
48582W        W91598   1.678  34.513  19.675 -0.1473  0.0155 -0.1371
48583W        W91599   4.574   1.897   2.267 -0.2614  0.1371  0.0568
48584W        W91600   5.267  34.151   6.324  0.4022  0.3068  0.1843
48585W        W91601   6.576  33.400  23.606  0.0537 -0.1116  0.2783
48586W        W91602  19.873  18.595   2.093 -0.1609 -0.0031  0.1664
48587W        W91603  32.294  20.461  19.516 -0.1079 -0.4347  0.0576
48588W        W91604  18.714  16.511  27.726  0.2777  0.0921 -0.0115
48589W        W91605  29.750  19.631  17.294  0.0673  0.1754 -0.1279
48590W        W91606   3.244  31.293  16.390 -0.3244  0.2942  0.0401
48591W        W91607  14.155  23.369  27.894  0.1221 -0.0536  0.0305
48592W        W91608   0.828   0.833  19.396 -0.1618  0.1503 -0.4549
48593W        W91609   3.621  31.483  21.514 -0.0115  0.0595  0.0862
48594W        W91610  15.872   1.398  17.958 -0.0294 -0.3588 -0.0208
48595W        W91611  23.230  25.778  28.821  0.3709 -0.0747 -0.1567
48596W        W91612  12.958  13.901  19.859 -0.0060 -0.0858  0.4957
48597W        W91613   9.739   0.509  18.438  0.0031  0.0646 -0.2233
48598W        W91614  24.967  14.693  21.443 -0.4490  0.2374  0.1331
48599W        W91615   6.913  21.988  13.422 -0.0540 -0.2339 -0.1108
48600W        W91616  17.329   4.442   4.616  0.2595 -0.4863 -0.2909
48601W        W91617  10.331  19.634  22.453  0.0455  0.3305 -0.0414
48602W        W91618  12.474  26.711  18.375  0.0337 -0.2723  0.0748
48603W        W91619  12.774  20.351  26.973  0.2394  0.2514  0.2231
48604W        W91620   0.337  26.687   1.492 -0.1941  0.1936 -0.0146
48605W        W91621   9.445  25.108  19.885  0.2056  0.0899  0.0008
48606W        W91622  18.039   1.113  17.964  0.1584 -0.0203 -0.5787
48607W        W91623  11.253  22.462   7.902 -0.0335 -0.0998 -0.1472
48608W        W91624  12.438  29.054   5.392  0.3824  0.0267  0.1788
48609W        W91625   5.469   8.125   2.676 -0.0305 -0.0321 -0.3070
48610W        W91626   3.120  16.509  22.412 -0.0566 -0.2207  0.0859
48611W        W91627  28.906  13.254  24.286 -0.0852  0.1964  0.1002
48612W        W91628  28.486  27.115  18.516 -0.0392 -0.0520 -0.3511
48613W        W91629   0.940   2.689  18.929 -0.0043 -0.0883 -0.2664
48614W        W91630   7.496  18.202  28.313  0.1687 -0.0834  0.1367
48615W        W91631   1.379   2.312   8.146 -0.0136  0.0683  0.1573
48616W        W91632  30.513  19.000  20.304 -0.0196  0.0858 -0.2325
48617W        W91633   3.661  33.547   5.144 -0.3815 -0.0400  0.1732
48618W        W91634  18.871  22.843  16.004 -0.2849 -0.1849 -0.5156
48619W        W91635  10.662  19.176   1.195  0.1810  0.3050  0.1219
48620W        W91636  32.797  23.404  27.418 -0.0150 -0.0899  0.2261
48621W        W91637   1.036  11.232   1.703 -0.0926  0.0757  0.0403
48622W        W91638  11.402  27.717   1.101 -0.0308  0.1473  0.1219
48623W        W91639   3.700  34.437  27.387 -0.0680 -0.1550 -0.2279
48624W        W91640   7.093  29.493   6.558 -0.0749  0.1237 -0.0716
48625W        W91641   0.322  31.363   3.934 -0.2305  0.2686 -0.4445
48626W        W91642  14.206  27.054  18.471 -0.4131  0.0934 -0.3732
48627W        W91643  17.161  15.288  13.820  0.0800  0.1407 -0.0221
48628W        W91644   1.208  29.998  23.344  0.0287  0.1037  0.2421
48629W        W91645   2.779  25.107  22.767 -0.3491 -0.2263 -0.1303
48630W        W91646  10.371  14.796   5.590  0.1264 -0.0729 -0.0305
48631W        W91647  12.602   9.750  13.813  0.1244 -0.0531  0.1715
48632W        W91648  31.654  10.644   1.330  0.2896 -0.0707 -0.0039
48633W        W91649   4.766   1.290  22.033 -0.0857 -0.0983  0.0288
48634W        W91650  21.751  24.840  26.570 -0.1864 -0.0506  0.0506
48635W        W91651  11.867   8.938  27.205 -0.2128 -0.1185  0.1997
48636W        W91652  16.326  27.599   9.341 -0.0012 -0.0727 -0.2031
48637W        W91653  32.287  24.674   0.913  0.1876 -0.1386  0.3507
48638W        W91654   0.636  25.143  24.857  0.2709 -0.2847  0.1515
48639W        W91655   7.499  22.719   0.209  0.0920  0.2743  0.0692
48640W        W91656  32.967  33.046   6.596  0.1553  0.1037  0.0515
48641W        W91657   4.826  17.802  19.310 -0.4109 -0.0218 -0.0021
48642W        W91658  13.345  14.374  15.562 -0.1986  0.6515 -0.3054
48643W        W91659   5.203   8.828  16.652 -0.0084 -0.1528  0.2272
48644W        W91660  14.082   4.679   8.465 -0.1356 -0.0941  0.2266
48645W        W91661  11.427  30.017   5.098  0.3011 -0.3096  0.0483
48646W        W91662  12.647  32.900  22.211  0.1630 -0.0736 -0.2846
48647W        W91663   9.975   4.617  24.872 -0.0593 -0.0169 -0.0389
48648W        W91664   0.429  29.228   9.610 -0.0487  0.1716  0.1698
48649W        W91665  11.905  24.691  25.900 -0.1810 -0.1256 -0.1444
48650W        W91666  22.827  30.331  20.134  0.2088  0.2185  0.0051
48651W        W91667   2.611  33.243  24.975 -0.1294  0.0204  0.1866
48652W        W91668  16.093   1.139  20.766 -0.1603 -0.2059 -0.1000
48653W        W91669   1.906  27.746  15.667  0.2131 -0.2235 -0.1942
48654W        W91670  10.268  26.638  27.308  0.1841  0.2156 -0.2240
48655W        W91671   4.194  29.538   0.824  0.2260  0.2051 -0.2675
48656W        W91672  14.985  17.418  22.478  0.0288  0.1043  0.1356
48657W        W91673  12.726  28.192   3.507  0.0861 -0.0567 -0.2742
48658W        W91674  14.224  27.444  25.123 -0.2022 -0.3197  0.4987
48659W        W91675  14.208  32.873  19.512 -0.1505 -0.0907  0.0470
48660W        W91676   2.559  32.308  21.701 -0.1096  0.3556 -0.1671
48661W        W91677  22.537  22.110  26.387  0.0974  0.1150 -0.3144
48662W        W91678  10.280  18.557   8.405  0.0345 -0.1543 -0.0310
48663W        W91679   4.268  21.528  22.988 -0.3192  0.1441 -0.0749
48664W        W91680   7.992  28.460   3.542 -0.2568 -0.0695  0.0408
48665W        W91681   7.425  33.823  27.947  0.0321  0.1838 -0.1608
48666W        W91682   7.985  19.342  23.176 -0.1689  0.0790  0.1809
48667W        W91683  13.578  30.482  21.334 -0.2755  0.1420 -0.0823
48668W        W91684  11.076  27.982  23.521  0.3159  0.0265 -0.2083
48669W        W91685   9.953  27.897  29.308 -0.1054 -0.4259 -0.2526
48670W        W91686  10.550  29.400  25.993 -0.0694  0.1041  0.5863
48671W        W91687   7.713   7.084  19.138 -0.1715  0.3617 -0.0351
48672W        W91688  21.831  32.445   1.351 -0.1550 -0.2713 -0.2179
48673W        W91689  12.191  31.369   7.317 -0.1458  0.1688  0.0384
48674W        W91690  30.769  29.450  19.779  0.0378 -0.1066  0.2075
48675W        W91691   3.113   5.901   8.635 -0.1205 -0.0050 -0.1566
48676W        W91692  26.990   7.201  22.119  0.0265 -0.0603  0.1121
48677W        W91693  27.259  29.506   9.250  0.0830 -0.0968  0.4078
48678W        W91694  20.300  23.212   1.636 -0.1342 -0.1951  0.0494
48679W        W91695  12.475  18.595  28.169  0.0760 -0.3260  0.3234
48680W        W91696   0.293  27.248  27.670 -0.0066  0.1623 -0.3133
48681W        W91697   3.710   4.465   0.422 -0.3459 -0.1230 -0.0463
48682W        W91698  11.690  13.299  14.557 -0.0860  0.2071 -0.2393
48683W        W91699  13.390  22.559   7.516  0.3216  0.1112 -0.0694
48684W        W91700  21.188  18.123  15.825 -0.1824  0.1841 -0.5171
48685W        W91701  22.386  22.050  20.708  0.2432 -0.2435  0.0515
48686W        W91702  30.117  30.219  17.590  0.0441 -0.0709  0.1151
48687W        W91703  21.370  32.711  28.246  0.0189 -0.0261 -0.0493
48688W        W91704  14.477   9.965  22.044  0.0236 -0.2161 -0.0907
48689W        W91705   0.893   0.115  28.415 -0.3070 -0.2672  0.1229
48690W        W91706  12.411  23.659   0.352  0.0583 -0.0184 -0.0181
48691W        W91707   3.252  33.198  24.844 -0.3259  0.0827 -0.0119
48692W        W91708   0.332  25.999  23.137 -0.5023  0.1333 -0.2116
48693W        W91709  15.364  12.630   0.036 -0.1014 -0.2729  0.3072
48694W        W91710   8.643  20.206  22.804 -0.1766  0.0558 -0.1516
48695W        W91711  12.123  33.466   7.180 -0.0420 -0.0217  0.3716
48696W        W91712   7.871  11.389  23.887  0.0198  0.3339 -0.1736
48697W        W91713  13.491   5.510   7.995  0.1353  0.1232 -0.1279
48698W        W91714  14.508  17.954   2.421 -0.0530  0.1097  0.1180
48699W        W91715   7.324   5.364  19.011 -0.1752 -0.1733 -0.1592
48700W        W91716  12.398  22.838  21.344 -0.0310 -0.0162  0.1024
48701W        W91717   7.375  33.557   2.380  0.2579  0.0534 -0.1287
48702W        W91718   8.945  16.799   3.430 -0.0007 -0.0114  0.0478
48703W        W91719  29.615  11.572   5.402  0.0777 -0.3061 -0.0128
48704W        W91720   3.503   7.249  28.879 -0.0975 -0.0223 -0.1210
48705W        W91721  29.726  24.950  10.870  0.4023 -0.1020  0.2021
48706W        W91722   5.306  29.433   4.010  0.0297  0.1308  0.1172
48707W        W91723  34.556  25.813  23.220  0.4093 -0.1474  0.1733
48708W        W91724   3.466  13.165  21.318  0.3008 -0.1139 -0.0432
48709W        W91725  18.502  26.256  24.881  0.2348  0.1738 -0.2041
48710W        W91726   9.869  26.920  21.561  0.1788 -0.1295 -0.1258
48711W        W91727  12.648  18.469   7.385 -0.2917  0.2936  0.1889
48712W        W91728   8.482  27.462   7.171 -0.0585 -0.0956  0.0864
48713W        W91729   8.761  25.176  22.310  0.1325 -0.0885  0.2337
48714W        W91730   4.672   0.902   9.638 -0.2294  0.0196  0.0093
48715W        W91731  15.913   3.158  14.280 -0.1541  0.0364 -0.2646
48716W        W91732  27.413  31.135   5.349 -0.0377  0.2242 -0.0038
48717W        W91733  31.819  31.606  21.391 -0.0706 -0.0748  0.0606
48718W        W91734  22.484  19.864  17.720  0.1590 -0.3272  0.0153
48719W        W91735   5.654   5.627   8.507 -0.1236 -0.0772 -0.0980
48720W        W91736   6.646  23.176   5.292 -0.0543 -0.2780 -0.0529
48721W        W91737  28.223  12.811   6.123  0.1900  0.2187  0.0664
48722W        W91738   5.687   2.564   1.930  0.0039  0.1240  0.2810
48723W        W91739  21.904  30.837  25.230  0.0064  0.2380 -0.0753
48724W        W91740  14.568  16.771   5.510  0.2308 -0.2723  0.3239
48725W        W91741  12.888  20.411  29.057 -0.1015 -0.2696 -0.0643
48726W        W91742  25.126  11.941  21.633  0.3294 -0.0470 -0.2263
48727W        W91743  23.717  23.063  18.223 -0.0463 -0.0933 -0.0765
48728W        W91744  18.691   7.388  26.298 -0.3110 -0.1217 -0.3001
48729W        W91745   6.281  21.454   5.075  0.2434  0.1256  0.1576
48730W        W91746  14.144  20.682   6.500  0.2219 -0.0688  0.3921
48731W        W91747  24.134  21.108   7.035 -0.1925  0.0294  0.1474
48732W        W91748   9.084  17.255   3.195  0.3799  0.1140  0.1977
48733W        W91749  15.365   9.982   2.186  0.1225 -0.1040 -0.3814
48734W        W91750   1.006  30.157   9.224 -0.0726 -0.1573 -0.0453
48735W        W91751  10.893  14.891   6.618 -0.0992 -0.0383 -0.3342
48736W        W91752  18.920  22.927   1.963 -0.1030 -0.0867  0.0163
48737W        W91753  21.891  14.817  16.020 -0.0720 -0.3643 -0.2786
48738W        W91754   7.049  29.280  21.088 -0.0587  0.0989 -0.1390
48739W        W91755  11.107  22.144   7.168  0.0191  0.0270 -0.3476
48740W        W91756   3.057  21.188   0.316  0.0324  0.0572  0.0351
48741W        W91757   0.892  12.988  22.737 -0.0231 -0.0870  0.1052
48742W        W91758  20.123   4.172   6.788  0.1843 -0.3181 -0.1211
48743W        W91759   0.681   1.876  25.503 -0.0530 -0.0985  0.1711
48744W        W91760   7.239  29.834  29.108 -0.0104  0.0743  0.1937
48745W        W91761   4.607  21.182  28.420 -0.0034  0.3978 -0.4232
48746W        W91762  22.945   4.491  26.406 -0.3405 -0.1269 -0.0373
48747W        W91763  27.323  21.931  20.034 -0.1530  0.1202  0.1044
48748W        W91764  29.045  32.216   8.904 -0.4683  0.3043 -0.0102
48749W        W91765  32.438  34.305  20.742 -0.1695  0.1859  0.0817
48750W        W91766  29.764  15.967   6.883  0.1111  0.0420 -0.1075
48751W        W91767  26.884  15.306  17.928 -0.0520  0.1036 -0.0239
48752W        W91768  16.642  32.436  11.333  0.1725  0.2384 -0.2270
48753W        W91769  10.307  27.475   4.470 -0.2058 -0.1999 -0.1426
48754W        W91770  24.157  24.469  17.820 -0.2740 -0.2037  0.2118
48755W        W91771  30.515  10.663   4.559  0.1073 -0.3318  0.0386
48756W        W91772  10.547  29.260   1.492 -0.1667  0.1960 -0.1463
48757W        W91773   4.759   3.959  19.471  0.0581 -0.0750  0.1210
48758W        W91774   9.012  32.489  17.679  0.1831 -0.0192 -0.0217
48759W        W91775   5.030  31.946  14.720  0.1295 -0.1575 -0.0708
48760W        W91776  13.343  28.738   1.793 -0.1561 -0.1223 -0.1011
48761W        W91777  14.472   3.923  15.469 -0.1741  0.3831 -0.4593
48762W        W91778  27.820  17.718   2.068 -0.0504  0.3257  0.3351
48763W        W91779   9.886  13.191  28.482 -0.1662  0.0692 -0.1801
48764W        W91780  24.279  30.989   5.130 -0.3590 -0.2948 -0.1404
48765W        W91781  33.277  31.864   1.424  0.0601 -0.1096  0.3040
48766W        W91782  28.902  15.054  28.269 -0.1915 -0.1025 -0.0091
48767W        W91783   1.768  32.722  18.677  0.0257  0.2800 -0.0200
48768W        W91784  20.007   7.479  28.924  0.1471 -0.1695 -0.0018
48769W        W91785   2.614  24.429   8.627 -0.0360  0.0649  0.1185
48770W        W91786   6.965  27.362   0.191  0.1548 -0.2230  0.1076
48771W        W91787  22.564  30.497  25.801 -0.0170  0.1818 -0.1241
48772W        W91788   1.942   4.499  23.842 -0.1725  0.4478  0.1148
48773W        W91789  14.338  26.154   8.155 -0.1205  0.2187  0.0033
48774W        W91790  27.403  21.293  20.894 -0.0900 -0.2125  0.1033
48775W        W91791   2.582   8.262  20.139 -0.0745  0.0818  0.0902
48776W        W91792  34.226  25.256   8.230 -0.1400  0.2976  0.0479
48777W        W91793   6.730   5.846   1.701 -0.1705  0.0510 -0.1392
48778W        W91794   2.722  27.254   6.356  0.3399 -0.1367  0.0572
48779W        W91795   0.746  21.192   7.876  0.1192  0.1504  0.1879
48780W        W91796   6.380  32.985  18.734  0.2106  0.0056 -0.0535
48781W        W91797   1.530  17.021  19.704 -0.0472 -0.3697 -0.1090
48782W        W91798  12.614  15.476  20.888  0.3982 -0.0808  0.1770
48783W        W91799   9.210   1.915  24.240 -0.1201  0.1348 -0.2146
48784W        W91800  14.471  25.815  23.146  0.0930  0.0993 -0.2307
48785W        W91801   0.668  17.666  22.649 -0.1973  0.0884  0.1740
48786W        W91802   3.782  33.192   0.297 -0.1103 -0.4652  0.1337
48787W        W91803   7.205   3.661   6.628  0.0938 -0.0050 -0.1115
48788W        W91804   8.172  29.664  15.963 -0.2483  0.2113  0.2601
48789W        W91805  12.269  20.479  14.425 -0.0434  0.3605  0.2116
48790W        W91806   8.129  18.584  23.459  0.1003  0.1544 -0.1692
48791W        W91807  15.926  22.516  23.689  0.0081  0.2020  0.0282
48792W        W91808  28.195   5.041  16.588 -0.1288  0.0207 -0.0960
48793W        W91809   3.466  31.464  16.818 -0.0666 -0.0605 -0.0551
48794W        W91810   8.110   1.419  19.980 -0.0134 -0.1039 -0.2186
48795W        W91811  16.304  27.207  15.203 -0.0381 -0.0421 -0.0410
48796W        W91812   5.866   3.793  28.428  0.3155  0.2776 -0.3016
48797W        W91813  34.376  34.643   5.993 -0.0371 -0.1423  0.1123
48798W        W91814  25.126   4.594  21.059 -0.0260 -0.0197  0.1931
48799W        W91815  22.167  19.099  19.637 -0.0693  0.1618  0.0386
48800W        W91816  29.921  34.696  10.215 -0.3498  0.0518 -0.0664
48801W        W91817  11.201  17.362   2.070  0.1441  0.2074 -0.0158
48802W        W91818  29.393  23.533  18.308  0.1351  0.0337 -0.0971
48803W        W91819  26.726  33.608   3.094  0.1032  0.0470  0.1113
48804W        W91820   8.576  17.792  22.868 -0.1050 -0.1985 -0.2415
48805W        W91821  14.733  29.112   1.462  0.0788 -0.1209  0.2828
48806W        W91822  13.656  32.751   1.700 -0.0220 -0.1394 -0.0298
48807W        W91823  19.512  20.794   3.834  0.0184  0.0880 -0.0506
48808W        W91824  11.029  20.546   4.053  0.1075  0.2558  0.0876
48809W        W91825  22.193  26.503  23.603  0.0059  0.1040 -0.1692
48810W        W91826  31.519  20.635   8.096  0.0575  0.0853  0.3784
48811W        W91827  33.825  18.244  23.103  0.1787 -0.0657 -0.4551
48812W        W91828   6.367  14.317  16.146  0.2772  0.3888 -0.0745
48813W        W91829  12.334   3.139  23.734 -0.2384  0.1983 -0.0999
48814W        W91830   4.964  33.178  16.359 -0.1509  0.0709  0.2466
48815W        W91831  12.647   4.210   6.171  0.0066 -0.2029 -0.0423
48816W        W91832   6.887  22.206  20.780  0.0304  0.0505 -0.0406
48817W        W91833  17.197   4.299  21.172 -0.0053  0.0859  0.0236
48818W        W91834  12.057   4.654   3.391  0.0073  0.0589 -0.0013
48819W        W91835  21.409  13.983  15.355  0.1338  0.0340 -0.0930
48820W        W91836   5.568  31.676  10.232  0.0996  0.0101  0.0719
48821W        W91837   4.156   1.352  21.340 -0.3242 -0.0353  0.0708
48822W        W91838   2.336  30.914  19.940 -0.0198 -0.2609 -0.1243
48823W        W91839   1.709   3.828   6.288 -0.0649 -0.1464  0.4351
48824W        W91840  21.251  23.099  24.062 -0.0128  0.2943 -0.2875
48825W        W91841  29.076   8.666   9.184  0.3061 -0.2026 -0.1164
48826W        W91842   7.600  21.249  21.142  0.0352  0.0102 -0.0011
48827W        W91843  33.036  15.805  23.418  0.0523 -0.1253 -0.1705
48828W        W91844  34.659   5.977   8.067 -0.0974  0.3631 -0.4048
48829W        W91845  23.697  30.264  20.079  0.1625 -0.2561  0.3997
48830W        W91846  10.399  22.821   7.155 -0.1164 -0.0581  0.1990
48831W        W91847  27.461   1.125  10.167  0.0376 -0.1134  0.0133
48832W        W91848   5.887  19.356  19.579  0.2080  0.1203 -0.2962
48833W        W91849   1.072  29.411   2.404  0.0882 -0.1342 -0.0322
48834W        W91850  28.601  31.224  24.169 -0.4252 -0.1022 -0.1197
48835W        W91851   2.809  18.620  19.651 -0.2203 -0.1181 -0.0733
48836W        W91852   4.504   7.855   1.655  0.1551 -0.1471 -0.1184
48837W        W91853  15.724  23.691  26.393 -0.0989 -0.1602  0.3316
48838W        W91854   6.072  23.587  16.443  0.0152 -0.0198  0.2145
48839W        W91855  16.367  15.265   1.973  0.4828  0.2522  0.0846
48840W        W91856  13.592  26.140   1.274  0.0125  0.1563  0.0108
48841W        W91857  13.863  17.187  28.618  0.1111 -0.2204  0.0318
48842W        W91858  22.258  13.487  13.821 -0.0050 -0.2383 -0.0406
48843W        W91859  29.816  22.448  24.159  0.4659  0.3771 -0.2605
48844W        W91860  22.498  31.134  21.600  0.3204  0.1080 -0.3408
48845W        W91861  20.937  18.966   7.407  0.1021  0.0128 -0.3116
48846W        W91862  32.686  31.244  28.831  0.2223 -0.0937 -0.0716
48847W        W91863   2.103  31.900  25.336 -0.2611 -0.0819 -0.2704
48848W        W91864   8.295  21.960  23.090  0.2406  0.0797  0.0826
48849W        W91865  22.901  17.275  17.186  0.1573 -0.2395  0.0193
48850W        W91866  10.129  22.970  21.997 -0.0726  0.2103 -0.2359
48851W        W91867  29.992  28.611   4.004 -0.2561  0.0796  0.1927
48852W        W91868  15.690  23.029  12.740  0.2261 -0.0266 -0.1874
48853W        W91869  11.478  27.300  19.428 -0.4580  0.1095  0.2496
48854W        W91870  17.129  25.205  28.824 -0.0242 -0.0993  0.0832
48855W        W91871  21.525  25.577  21.823  0.1546  0.0411 -0.0599
48856W        W91872  27.849  19.358   7.292 -0.2885  0.2758  0.1682
48857W        W91873  13.668  23.180   3.665  0.2367  0.0205  0.3527
48858W        W91874  19.424   2.858  16.534 -0.1116 -0.0754  0.1755
48859W        W91875  24.203  23.824   0.782  0.0351 -0.4033 -0.2537
48860W        W91876  20.150  16.141   0.432 -0.1591  0.1904 -0.1230
48861W        W91877  33.375  32.339  27.291 -0.0441 -0.0572 -0.2728
48862W        W91878   0.494  22.537   4.120  0.0974 -0.0490  0.0671
48863W        W91879  23.996  13.173  19.700  0.1152 -0.3541 -0.3357
48864W        W91880   7.641  30.345   7.785  0.2753  0.1133  0.0381
48865W        W91881   7.505  28.538  17.432  0.2122  0.1013 -0.0565
48866W        W91882  10.618  30.172   0.104 -0.4318  0.0934  0.0666
48867W        W91883  28.432   4.668   9.863  0.0605  0.1534  0.1253
48868W        W91884   9.324  15.364  24.955  0.1318 -0.0248  0.2417
48869W        W91885  10.553  31.613   0.275 -0.0325 -0.0866  0.0341
48870W        W91886   7.407  33.464   5.035  0.0686  0.0726 -0.0547
48871W        W91887   6.332  12.586  14.655  0.0006  0.1631  0.4247
48872W        W91888  20.568  27.681   4.452 -0.1201  0.1328  0.0777
48873W        W91889  27.099  16.679  22.982 -0.0383  0.4188  0.0809
48874W        W91890   5.433   6.783  20.633 -0.2104 -0.1955 -0.5912
48875W        W91891  25.497  32.084  19.684  0.1250 -0.3365  0.1502
48876W        W91892   2.672  15.196  26.995 -0.1350 -0.2631 -0.2380
48877W        W91893   5.853  18.520  27.130 -0.1094 -0.0215 -0.3018
48878W        W91894  18.522  19.490   3.677  0.3727 -0.0471 -0.0624
48879W        W91895  33.261   2.640  25.406  0.0237  0.0082 -0.0723
48880W        W91896  13.257   4.337  16.359  0.1036  0.1293 -0.1003
48881W        W91897   7.036  25.157   7.408  0.1295  0.0366  0.1002
48882W        W91898  33.337   2.104  28.044  0.1733  0.0534 -0.1277
48883W        W91899  31.042  31.602   2.614  0.0916  0.0203 -0.0964
48884W        W91900  15.553  26.535   1.211 -0.0934 -0.1691  0.7063
48885W        W91901  17.054  26.102   6.760 -0.0412  0.0031 -0.2435
48886W        W91902  20.877   8.289   5.319  0.1710 -0.1171  0.0066
48887W        W91903  30.776   0.079   7.649  0.0028  0.2885  0.2949
48888W        W91904   6.445  18.446  26.450  0.3273 -0.2701 -0.0656
48889W        W91905   5.756   0.875   7.308 -0.0733 -0.1421 -0.0480
48890W        W91906  10.320  25.194  23.602  0.0915  0.3018 -0.1947
48891W        W91907  20.950  31.378  28.814  0.0002 -0.0836 -0.0854
48892W        W91908   5.856  30.433  14.174 -0.0079  0.1827 -0.1774
48893W        W91909   5.878  14.840  25.763 -0.0903  0.0210  0.1044
48894W        W91910  23.662   1.498   1.103 -0.0849  0.0333 -0.1221
48895W        W91911  19.375  33.594  17.188 -0.0269  0.3222 -0.2069
48896W        W91912  12.644   6.766  24.860  0.0886 -0.1206  0.1274
48897W        W91913  19.241   4.147   1.541  0.1361 -0.0352  0.2600
48898W        W91914  34.264  17.109  24.296 -0.0704 -0.0703 -0.4385
48899W        W91915  17.998  16.059  19.523 -0.2774  0.1689  0.2343
48900W        W91916  12.112  32.567  14.784  0.1137  0.3070 -0.4613
48901W        W91917  29.567   1.783   3.153  0.2288 -0.0051 -0.3908
48902W        W91918  32.491  28.240  11.217  0.2864  0.1656  0.1548
48903W        W91919  21.017  31.155   8.708 -0.0641  0.2738 -0.3735
48904W        W91920  33.925   8.266   8.486  0.1319  0.1493 -0.2800
48905W        W91921   6.341  22.986   3.123  0.0509  0.2122  0.1432
48906W        W91922  27.065  13.020  22.748 -0.3327  0.0963  0.0969
48907W        W91923   9.345  30.431   7.357  0.2452  0.0752  0.0724
48908W        W91924  15.292  30.519  21.807  0.0738  0.1115  0.2462
48909W        W91925  10.825  25.314   3.408 -0.0606  0.1167  0.0250
48910W        W91926  22.216  32.670  28.810  0.3343 -0.2450  0.0754
48911W        W91927   0.430  15.006  20.067 -0.2209  0.1004  0.1877
48912W        W91928  14.476   5.325  10.204  0.2634  0.1148 -0.0995
48913W        W91929  20.844   8.270   1.160 -0.1005 -0.0886  0.2324
48914W        W91930  33.363   8.262   9.162  0.1452 -0.0713 -0.0394
48915W        W91931  24.283  25.609  19.007 -0.0706  0.0499 -0.1724
48916W        W91932  15.744  29.893  24.535 -0.1312  0.4228  0.2064
48917W        W91933  14.067  20.761  26.617 -0.2037  0.0328  0.4025
48918W        W91934   6.427  15.256  22.184 -0.3330  0.0081  0.0501
48919W        W91935  26.865   8.528   1.737  0.4288 -0.3945 -0.0190
48920W        W91936  25.711  14.471  16.094 -0.3209 -0.0296  0.0589
48921W        W91937  16.000  31.987  18.508  0.1487 -0.1087  0.0148
48922W        W91938  29.890  26.761  26.508  0.3932  0.1088 -0.0500
48923W        W91939  29.553  31.110   9.061  0.0085  0.1588  0.1724
48924W        W91940  11.340  13.175  23.959  0.1440 -0.0643  0.3270
48925W        W91941  10.732  29.027  16.435  0.0074 -0.1744  0.2175
48926W        W91942  16.312   6.060  25.735 -0.2920  0.0828 -0.2010
48927W        W91943  11.388  23.537   3.283 -0.0036  0.2677  0.1473
48928W        W91944  33.157   1.448   3.626  0.0892  0.0716 -0.3992
48929W        W91945   6.155  25.823   0.060  0.2098  0.2632 -0.3853
48930W        W91946   8.034  33.120  17.900 -0.2278 -0.2614  0.1556
48931W        W91947  10.954  26.127   6.102 -0.1494  0.1889  0.1147
48932W        W91948  30.605  25.396   7.394  0.1026  0.1606  0.1043
48933W        W91949  32.070  10.585   1.573 -0.0638  0.0535 -0.0875
48934W        W91950   1.127   4.176   1.346 -0.1490  0.2067 -0.2795
48935W        W91951  14.777  33.339  19.124  0.0281  0.1054  0.0679
48936W        W91952  10.204   3.873   2.966  0.2204 -0.1848 -0.0107
48937W        W91953   7.320  22.142  22.688  0.2706  0.1478  0.0778
48938W        W91954  15.823  25.714   7.342 -0.3156  0.0556 -0.0552
48939W        W91955   4.321   8.180  29.154 -0.1720 -0.1823  0.0734
48940W        W91956  31.106  26.671  23.062  0.1206  0.2694  0.0491
48941W        W91957  14.540  29.109   4.878  0.2316 -0.2522  0.1637
48942W        W91958  11.198  18.060   8.273  0.0511 -0.0016  0.3856
48943W        W91959  12.884   1.707   6.334  0.0106 -0.4524 -0.1859
48944W        W91960   5.563  15.727  29.143  0.1022  0.0116  0.0169
48945W        W91961  29.673  14.500   9.335  0.1044 -0.1734  0.0826
48946W        W91962  20.683  27.117  27.942  0.0406 -0.1060 -0.0654
48947W        W91963  26.602  14.893  14.862 -0.2339  0.1083 -0.4721
48948W        W91964  27.010   9.601  19.165 -0.0141 -0.3825  0.2174
48949W        W91965  20.403  29.190  22.828  0.0513  0.3757  0.2261
48950W        W91966  33.215   4.764   7.964  0.1388 -0.0446 -0.2071
48951W        W91967  30.551  22.023  25.477  0.1535 -0.1400  0.1916
48952W        W91968   6.815  29.486  19.090  0.0889 -0.1672  0.4185
48953W        W91969  27.096  19.632  24.722 -0.2587 -0.0382 -0.0895
48954W        W91970   2.684  32.548  18.381 -0.0548 -0.0765 -0.1113
48955W        W91971   6.545  22.124  14.447  0.0782  0.0355 -0.2223
48956W        W91972   9.663  25.675   8.779  0.3107 -0.1704  0.0663
48957W        W91973  12.824  22.331  13.485  0.2082 -0.1247  0.3058
48958W        W91974   6.291  17.111  18.749 -0.0830 -0.0123 -0.0306
48959W        W91975   9.088  20.440  13.727  0.0009  0.0679 -0.0193
48960W        W91976  17.134  23.074  26.997  0.0440 -0.3213 -0.0885
48961W        W91977   8.101   3.966   2.274 -0.1855  0.1446  0.1063
48962W        W91978  21.050  31.842   0.859 -0.0171 -0.0926  0.1724
48963W        W91979   8.884  32.450   9.528  0.0127  0.2420  0.1948
48964W        W91980  22.454  18.553   5.458  0.1117  0.3188  0.2705
48965W        W91981  12.028  24.716  29.094 -0.1500  0.2159  0.1042
48966W        W91982   4.214  28.491  24.744  0.0219  0.1540  0.2481
48967W        W91983  32.851   0.316  18.788  0.0016 -0.1190  0.0349
48968W        W91984   3.114  22.198  26.580 -0.0340 -0.0286 -0.3114
48969W        W91985   6.916  33.755   4.715  0.2002  0.0368  0.0744
48970W        W91986   6.610  17.408  21.595 -0.0204 -0.0747  0.3111
48971W        W91987   9.813  27.540   2.319  0.2650 -0.0919  0.2332
48972W        W91988  32.055  28.107  27.656 -0.1953 -0.3455 -0.3802
48973W        W91989   4.207   5.088   4.349 -0.2261 -0.2782 -0.3427
48974W        W91990  25.863  21.779  19.837  0.1000  0.1491  0.0303
48975W        W91991  32.043  29.626  21.944  0.0814 -0.0312 -0.2411
48976W        W91992   7.552  20.898   8.097 -0.0127  0.2059  0.0302
48977W        W91993  12.496   6.432  19.111  0.0949 -0.2062  0.1515
48978W        W91994  29.100  23.088   8.837 -0.1390 -0.0976  0.1332
48979W        W91995  11.332  22.354  13.951  0.0337  0.1617 -0.0463
48980W        W91996  32.505  10.906  26.420 -0.1132 -0.3551 -0.3129
48981W        W91997  16.391  19.465  12.483  0.3849 -0.2900  0.3587
48982W        W91998   9.416  10.405  15.675  0.0124  0.0870  0.0311
48983W        W91999   1.784  21.432   6.760 -0.0842 -0.0249 -0.1455
48984W        W92000   4.845  18.180  22.018  0.2715 -0.1544  0.4057
48985W        W92001   3.699   7.132  24.695 -0.0950 -0.1703  0.0514
48986W        W92002  25.603  25.243  21.395 -0.0909  0.1767  0.1215
48987W        W92003   2.290  31.853  23.557 -0.0869 -0.5542  0.3519
48988W        W92004   4.261  13.148   8.194  0.0035 -0.0410  0.0139
48989W        W92005  13.869  21.294   2.599  0.1705  0.3588 -0.0764
48990W        W92006  25.870  31.512  23.847 -0.4918  0.1344  0.0912
48991W        W92007   6.266  29.782   6.441 -0.3537  0.1796 -0.1957
48992W        W92008  19.217  27.939   1.779  0.1147 -0.0245 -0.1036
48993W        W92009   2.911  21.570   9.169 -0.0303  0.1011  0.0227
48994W        W92010   6.102  28.483  16.157  0.0680 -0.1515  0.0545
48995W        W92011   0.787   9.245  11.015  0.2459  0.1377 -0.1421
48996W        W92012   7.384  32.204  24.534  0.0745  0.0596  0.0008
48997W        W92013   9.864  23.161  24.040  0.2694 -0.2352  0.2309
48998W        W92014  17.426  22.477  25.251  0.0443  0.0691 -0.0417
48999W        W92015  17.469  22.952   1.004 -0.1479 -0.2348  0.0876
49000W        W92016  20.660  19.984   0.937  0.0458  0.1895  0.1975
49001W        W92017  26.209  23.588  27.249 -0.1165 -0.1270  0.0204
49002W        W92018  16.436  12.296   2.182  0.0257 -0.2495 -0.1458
49003W        W92019  10.851  11.208   1.197 -0.3812  0.0612  0.1257
49004W        W92020   8.958  32.414  22.302  0.1315  0.0396  0.0998
49005W        W92021  14.116  17.047  25.187  0.1626  0.1637 -0.0408
49006W        W92022  25.416  24.340  25.004  0.2179 -0.0588  0.0081
49007W        W92023   3.109  21.064  17.079 -0.2660  0.0682  0.1775
49008W        W92024  20.439  23.433  26.636 -0.1605 -0.2329 -0.0710
49009W        W92025   8.537   6.252   4.512  0.1062  0.1045 -0.1231
49010W        W92026  12.111  23.540  27.735  0.0686 -0.1252 -0.0007
49011W        W92027  21.120  34.100   1.205 -0.2424  0.1506  0.0523
49012W        W92028   6.658  31.212   0.617  0.0277 -0.1617 -0.0846
49013W        W92029   1.941  28.476  23.727  0.0374 -0.0314 -0.0799
49014W        W92030   7.674  29.132  29.026  0.2194 -0.3182  0.0815
49015W        W92031  14.377  27.569   0.329  0.1002 -0.0868  0.2071
49016W        W92032   2.243  18.438   6.602 -0.2390 -0.2046 -0.2190
49017W        W92033  11.760  33.446  18.366 -0.0916 -0.2582  0.0587
49018W        W92034   7.666  32.183   0.836  0.2615  0.3672 -0.3297
49019W        W92035   1.240  29.399  27.938  0.0164 -0.1477 -0.0084
49020W        W92036  12.698  29.799  28.479 -0.0789  0.2817 -0.1559
49021W        W92037  11.056  18.896  29.079  0.1172  0.1258 -0.4487
49022W        W92038  15.214  18.941  24.585  0.4409  0.0200 -0.0259
49023W        W92039  12.800  27.507  21.069 -0.0112  0.0307  0.1408
49024W        W92040   5.706  33.890  25.423  0.1726  0.1448 -0.0401
49025W        W92041   5.344  34.726  22.954 -0.0933  0.1896 -0.0006
49026W        W92042  10.906  21.784   8.275 -0.2815  0.0425 -0.1264
49027W        W92043   8.652   5.533  26.312 -0.3177  0.1723  0.0879
49028W        W92044   1.940  23.036   7.990 -0.0561  0.0558 -0.3098
49029W        W92045  11.756  25.069  28.222  0.2551 -0.1081 -0.1348
49030W        W92046  13.461  21.100   1.349 -0.1703  0.0906 -0.2488
49031W        W92047  25.478  27.614  23.971  0.1266 -0.0036 -0.1982
49032W        W92048   5.019  19.052  27.462  0.0052  0.0818  0.2524
49033W        W92049  33.511  25.073   2.854 -0.0308  0.0959  0.1755
49034W        W92050  32.691   1.918   1.825  0.1803 -0.1100 -0.1768
49035W        W92051  15.576  25.120  28.136  0.1115  0.2040 -0.0067
49036W        W92052   3.378  34.758   1.370 -0.0464  0.2760 -0.0167
49037W        W92053  23.690  23.974  28.638 -0.4174 -0.0256  0.0431
49038W        W92054  21.267  13.538  24.962 -0.0252  0.1548  0.1849
49039W        W92055   7.759  30.500   8.318  0.0543 -0.0103  0.0175
49040W        W92056   3.785  24.891   0.530 -0.1389  0.1779 -0.0083
49041W        W92057   6.727  33.361  26.845  0.1284 -0.1063  0.0339
49042W        W92058  13.317  31.178   9.263 -0.3036  0.3484  0.0077
49043W        W92059   9.630  19.186   7.138 -0.0824  0.0568 -0.0372
49044W        W92060  17.595   1.362  16.575 -0.0567 -0.1133  0.1480
49045W        W92061  18.543  23.558   2.407 -0.0258  0.0164  0.2306
49046W        W92062   8.258  13.961  27.523  0.2828  0.2767 -0.0008
49047W        W92063  11.940   7.386   8.368  0.0405 -0.0687 -0.2111
49048W        W92064  12.672  16.429   5.530  0.1627  0.0147 -0.0739
49049W        W92065   3.956  24.171   4.284 -0.0782 -0.0261 -0.0600
49050W        W92066  33.542  22.347  23.331  0.0026 -0.1047  0.1215
49051W        W92067   7.155   4.637  28.923 -0.0061 -0.0849  0.0724
49052W        W92068   7.796  14.405   8.050 -0.2276 -0.4161 -0.1265
49053W        W92069  24.349  29.046  25.452  0.0367  0.1991 -0.0298
49054W        W92070  21.930   9.087  15.691 -0.0141  0.0345 -0.0580
49055W        W92071   5.556  33.252  25.255 -0.2124  0.0205  0.3703
49056W        W92072  13.586  30.453  22.283 -0.1607 -0.0008  0.1518
49057W        W92073   1.713  10.234   6.816 -0.2121  0.1073 -0.0690
49058W        W92074  12.989  16.960  26.002 -0.0563  0.0017  0.0643
49059W        W92075   6.099  20.818   5.803 -0.1693  0.0893 -0.1064
49060W        W92076  15.006  28.896   5.841 -0.0645 -0.0246 -0.0060
49061W        W92077   5.277   2.680   9.758 -0.0281 -0.1918  0.0333
49062W        W92078  25.780   5.960   2.733 -0.2643  0.6457 -0.2150
49063W        W92079  15.224  22.400  23.040  0.2725 -0.2830  0.2100
49064W        W92080  16.559  29.116  20.060 -0.0392  0.5893  0.0985
49065W        W92081   1.191  22.675  16.745 -0.1405 -0.0273  0.0042
49066W        W92082   6.301  24.906  16.044  0.0326 -0.1756  0.0195
49067W        W92083  21.618  34.207  22.328  0.1187  0.2270 -0.0931
49068W        W92084   0.002  31.168  24.728 -0.2787 -0.0499  0.1702
49069W        W92085   9.358   6.976  15.049 -0.0685 -0.2147  0.2515
49070W        W92086  15.301   1.609  16.529 -0.2048 -0.1445  0.1193
49071W        W92087  23.444   5.105  25.972  0.0526  0.3086 -0.4402
49072W        W92088   8.107   6.898  17.015 -0.2620  0.0053  0.0490
49073W        W92089   9.615  32.642  16.800  0.0880 -0.3184 -0.3335
49074W        W92090  33.308   0.076  18.152 -0.6162 -0.1432  0.0174
49075W        W92091   0.665  11.610  23.833 -0.0545 -0.1371 -0.1894
49076W        W92092  13.761  28.904  17.124  0.0254 -0.1067  0.0691
49077W        W92093  14.904   0.197  17.833 -0.0102 -0.1082  0.1977
49078W        W92094   6.533  26.489  25.772  0.1643 -0.0507  0.0293
49079W        W92095  20.549  11.843  22.862 -0.1762  0.2960  0.2981
49080W        W92096  10.388  27.115  14.879  0.0627  0.0616 -0.0553
49081W        W92097  14.551  27.974  24.018 -0.3550 -0.3261 -0.0929
49082W        W92098  26.740   2.673  24.019 -0.3542 -0.3609 -0.1274
49083W        W92099  13.548  21.901  12.928 -0.4759  0.2937 -0.0934
49084W        W92100  18.265   7.445  24.529  0.2490 -0.3505 -0.0806
49085W        W92101  11.762   2.771  25.031  0.1414 -0.2394  0.0965
49086W        W92102  12.336  28.669  21.228  0.1419  0.0233  0.0748
49087W        W92103   1.240  30.392  18.136 -0.0176 -0.2127 -0.0951
49088W        W92104  19.305  27.610  16.759  0.2914 -0.1830 -0.1580
49089W        W92105  10.729  31.018  28.646 -0.1544 -0.4386 -0.1181
49090W        W92106  16.947  28.928  28.897 -0.0921 -0.0022  0.0764
49091W        W92107   1.163  33.967   1.659 -0.3074  0.2307  0.0079
49092W        W92108  19.429   1.193  28.842 -0.0472  0.3846 -0.1021
49093W        W92109   6.526   1.106  21.578  0.0173  0.1801  0.2116
49094W        W92110  11.646  10.189  25.310 -0.1016  0.4723 -0.1882
49095W        W92111   5.270   7.836  24.640  0.0060  0.0821  0.1069
49096W        W92112  11.750  31.160   2.389 -0.1363 -0.2788  0.1824
49097W        W92113  12.714  26.323   4.513  0.3019 -0.0105 -0.0173
49098W        W92114  21.394  22.162  17.791 -0.0738  0.0617  0.1964
49099W        W92115  18.893  23.970  22.568 -0.1719  0.1426 -0.1593
49100W        W92116  13.169   5.613  17.452  0.0318  0.1977 -0.1143
49101W        W92117  12.672  12.115  13.248 -0.1044  0.2004 -0.1292
49102W        W92118   7.124  21.520  13.506 -0.2147 -0.2930 -0.1138
49103W        W92119   6.835   0.372  23.545  0.0163  0.0434 -0.0815
49104W        W92120   2.359   6.257  20.815  0.0756  0.1216  0.0083
49105W        W92121  18.539  13.403  13.444  0.2139 -0.0228  0.1466
49106W        W92122   6.073  26.417   1.810 -0.0628  0.0161  0.0615
49107W        W92123  10.826  32.970  28.898 -0.1835 -0.4864  0.0062
49108W        W92124   2.422  14.234  16.937  0.1316  0.0641 -0.2572
49109W        W92125   4.445   2.405   3.745  0.3190  0.1671  0.0936
49110W        W92126   1.019  32.058  18.219 -0.1927 -0.1496  0.1222
49111W        W92127   4.497   9.393  16.403 -0.0347 -0.2326 -0.2326
49112W        W92128   7.892   1.423  17.653 -0.2713  0.1915 -0.1780
49113W        W92129   9.096  14.810  14.074  0.1926 -0.1869  0.1593
49114W        W92130   6.460   0.373  25.612  0.4312  0.0801  0.0619
49115W        W92131   2.019  29.501  24.262 -0.0400 -0.2144  0.2858
49116W        W92132   2.183  26.423  23.810  0.2465 -0.0593  0.0289
49117W        W92133  21.590  30.074  25.209  0.1731  0.2563  0.3608
49118W        W92134  11.850  26.249  16.187  0.0570 -0.3156  0.0685
49119W        W92135  14.921  34.286  15.893 -0.0625  0.0512 -0.0304
49120W        W92136   5.014  18.957  19.865  0.0785 -0.0267  0.1534
49121W        W92137   5.534  11.021  26.331  0.1451 -0.3401 -0.1085
49122W        W92138   2.267  31.825  15.779 -0.3222  0.0870  0.0772
49123W        W92139  16.320  11.178  13.820 -0.3045  0.0505  0.3015
49124W        W92140   5.649   9.610   1.092 -0.0168  0.2555  0.4895
49125W        W92141  16.260   8.674  26.583 -0.0749  0.0424 -0.1333
49126W        W92142   0.311   3.770   9.809  0.0788 -0.0831 -0.1548
49127W        W92143  12.818  21.284  22.787  0.4654 -0.5476 -0.0081
49128W        W92144   2.670  19.918  14.607  0.2165 -0.1988 -0.1291
49129W        W92145   1.236  31.671   4.766 -0.0602 -0.1770 -0.1125
49130W        W92146   7.896  31.070  23.330 -0.1208  0.1538 -0.1127
49131W        W92147  20.994  20.555  21.026  0.1404 -0.2969  0.2555
49132W        W92148  17.567  34.712  19.172  0.1599  0.0182 -0.0279
49133W        W92149   0.823  14.684  28.119 -0.1169  0.0568 -0.1756
49134W        W92150  16.212  24.656  15.204  0.0336 -0.2688 -0.0030
49135W        W92151   9.042   7.575  20.000 -0.0347 -0.1317 -0.0993
49136W        W92152  14.510  23.717  13.255  0.0221 -0.1053 -0.1559
49137W        W92153   7.697   2.317  15.427 -0.0879  0.1338 -0.0643
49138W        W92154  25.807  25.106  29.087 -0.3134 -0.0925 -0.1984
49139W        W92155  20.695   2.737   0.813  0.2163 -0.1392 -0.2496
49140W        W92156  17.663  30.060  19.655 -0.2269 -0.0672  0.0382
49141W        W92157   0.983  16.400  28.543 -0.0984 -0.0858 -0.0496
49142W        W92158  21.671  32.538  18.696 -0.0779  0.2011  0.1012
49143W        W92159  10.335   7.996  20.097  0.2727  0.0122  0.0311
49144W        W92160  14.715   4.296  19.438  0.2989  0.2541 -0.1423
49145W        W92161  12.980   1.586  22.319 -0.2027 -0.2018 -0.0243
49146W        W92162  26.157   1.782  18.425 -0.0172 -0.3722  0.0579
49147W        W92163  25.774   3.360  18.754 -0.4027 -0.0649  0.0375
49148W        W92164   7.997  27.183  14.176  0.1300 -0.0499  0.0056
49149W        W92165   8.322  28.029  15.029 -0.2368 -0.2834 -0.0597
49150W        W92166  10.791  13.443  21.711 -0.1063 -0.0915  0.2269
49151W        W92167  25.573  25.871  17.698  0.0518  0.1240  0.0227
49152W        W92168   0.092  31.356  15.507  0.0876 -0.0512  0.0891
49153W        W92169   9.564  33.179  18.192  0.0228  0.1744 -0.0487
49154W        W92170  13.587  30.468  25.666 -0.2330  0.2002 -0.0877
49155W        W92171   6.923  31.379  13.908  0.1451  0.0197  0.0298
49156W        W92172  10.971  33.823  19.970 -0.1268  0.0951 -0.1517
49157W        W92173  25.660   8.836   0.240 -0.1548  0.3263 -0.0536
49158W        W92174   2.359  14.751  20.706  0.1987  0.1652 -0.2457
49159W        W92175   9.498   5.204   3.859 -0.0244 -0.0698 -0.1560
49160W        W92176  18.606  16.232  23.744  0.1651  0.1646  0.2361
49161W        W92177  28.476   3.787  19.500  0.1203 -0.1131  0.0294
49162W        W92178   8.927  31.634  16.042 -0.1298  0.2285  0.0262
49163W        W92179  29.148   4.904  23.070  0.4098  0.1469 -0.3827
49164W        W92180   8.606  33.845  27.478  0.0925  0.3358 -0.2054
49165W        W92181   5.342   2.283  26.244  0.0995  0.3151  0.1814
49166W        W92182   8.493  24.468  27.089 -0.0124  0.0704  0.0717
49167W        W92183  26.332   3.624  16.021  0.4208  0.5371 -0.2984
49168W        W92184   4.220  16.885  22.193  0.0128 -0.0137  0.0870
49169W        W92185   9.782  34.029  19.248  0.1757  0.1658  0.3508
49170W        W92186   4.881  27.894   0.649  0.0894  0.2189 -0.0289
49171W        W92187   2.925  19.170   3.392  0.0608 -0.3658 -0.2574
49172W        W92188   0.193  27.313  21.505 -0.1229 -0.0012 -0.0034
49173W        W92189   3.760   4.348  19.711  0.2044  0.1665 -0.1460
49174W        W92190   6.560  26.126  16.999  0.2820  0.4015  0.1896
49175W        W92191   1.711  31.064  24.120  0.1174  0.3527  0.1912
49176W        W92192  17.462   2.904  23.533 -0.1240  0.3165 -0.2180
49177W        W92193  13.661  19.048  14.347 -0.0707 -0.0617  0.0780
49178W        W92194   4.862  11.371  13.733 -0.1682 -0.1612  0.0364
49179W        W92195  12.430  16.583  20.198 -0.7176 -0.1374 -0.0627
49180W        W92196  21.605   5.867   0.181 -0.1106 -0.1605  0.1533
49181W        W92197  26.778   5.013  25.482 -0.0956 -0.1512  0.1786
49182W        W92198  21.658  14.666  28.954  0.5151  0.2978 -0.1125
49183W        W92199  10.586   1.095  15.497  0.0203  0.2531  0.2968
49184W        W92200   8.854  29.104   9.349 -0.2939 -0.0713 -0.0607
49185W        W92201   8.355  17.027  14.320 -0.0019  0.0611 -0.0891
49186W        W92202  15.310  30.128   4.477  0.2774 -0.2611 -0.0399
49187W        W92203  19.469   9.984  15.498  0.0568  0.0391  0.1588
49188W        W92204  11.457  33.059  18.644 -0.0736  0.2867 -0.0169
49189W        W92205  28.349   7.695  26.339  0.1230 -0.0323 -0.0438
49190W        W92206  14.096   2.134   6.404  0.0705 -0.0982  0.0165
49191W        W92207  16.525  26.133  23.655  0.2317  0.3588  0.0064
49192W        W92208   5.238   2.891  23.906 -0.0168 -0.0908  0.1604
49193W        W92209  17.255  30.829  17.584 -0.2810  0.1062 -0.1851
49194W        W92210  10.875  26.537   1.295 -0.1215  0.1436 -0.2172
49195W        W92211  23.258  18.332  16.047 -0.1666  0.0757  0.1056
49196W        W92212   3.550  25.411  25.950  0.1058 -0.0296  0.0405
49197W        W92213   7.915  28.790  14.310 -0.1528  0.0719  0.1523
49198W        W92214  30.518   5.573   7.257  0.1183  0.0007  0.1109
49199W        W92215  17.482  30.428  25.182  0.4499 -0.0812  0.4783
49200W        W92216   9.693  23.684  18.249  0.0030  0.4526  0.0355
49201W        W92217  17.518  30.490  19.372  0.0979  0.1869  0.1542
49202W        W92218  18.131  32.021  28.153 -0.3655  0.2672 -0.0256
49203W        W92219   8.528  29.793  17.713  0.0130 -0.0900 -0.0962
49204W        W92220  27.037  29.629   4.771 -0.0613  0.1246 -0.0256
49205W        W92221   2.974  33.393   0.843 -0.0222 -0.2679  0.0780
49206W        W92222   9.107  27.690  19.781 -0.0259  0.4358  0.1383
49207W        W92223   1.406  32.810  21.418  0.0476 -0.0883  0.0700
49208W        W92224   0.851  17.626  18.158  0.1330 -0.1960 -0.2165
49209W        W92225   6.105  24.187  19.804 -0.2108 -0.2947  0.0432
49210W        W92226   3.910  29.898   1.012 -0.1660 -0.1481 -0.2893
49211W        W92227  13.769   0.831  18.019 -0.1749  0.0547  0.0254
49212W        W92228  25.278  28.208   3.620 -0.3767 -0.1594  0.2902
49213W        W92229  12.552  24.241  19.525  0.1769  0.4196  0.2820
49214W        W92230  20.223   4.726   6.313  0.0387 -0.0640 -0.1458
49215W        W92231   2.439  24.292  18.964  0.0429 -0.1240  0.1391
49216W        W92232  16.654  30.894  22.376  0.2741 -0.1183  0.0924
49217W        W92233  12.213  22.185  20.520 -0.1088 -0.1207  0.0552
49218W        W92234  12.648   3.678  19.225  0.1727 -0.4722  0.0640
49219W        W92235   8.303  30.059  19.251  0.1314  0.3803  0.1727
49220W        W92236  10.598  30.273  19.595  0.1123 -0.3320  0.1001
49221W        W92237   8.502  19.210  14.260  0.1064  0.2129 -0.0703
49222W        W92238  15.216   1.914  19.143  0.1378 -0.0705 -0.1522
49223W        W92239  12.628  26.087   6.656 -0.2195 -0.2247  0.0649
49224W        W92240  20.249  15.697  12.609 -0.0801 -0.1129  0.1848
49225W        W92241   6.275  12.138  24.870  0.0437  0.1416  0.2628
49226W        W92242   7.270  10.147  20.933  0.3353  0.0933 -0.0555
49227W        W92243  13.842  18.946  20.196  0.1691 -0.0326  0.0031
49228W        W92244  19.452  27.573  19.689  0.1633  0.1781 -0.0487
49229W        W92245   6.613  24.953  23.042  0.0165 -0.1479 -0.1241
49230W        W92246  16.952   3.041  15.598  0.2407 -0.0059 -0.0953
49231W        W92247  10.879   5.019  18.565  0.1529 -0.1484  0.2335
49232W        W92248   3.569  33.988  23.517 -0.0991 -0.1397 -0.0388
49233W        W92249  22.889  32.129  21.522  0.1050 -0.2674  0.0946
49234W        W92250  16.737  26.074  24.735  0.1845 -0.2805 -0.0100
49235W        W92251   7.190   0.992  20.873 -0.0704 -0.3386 -0.1597
49236W        W92252  33.015  24.170  19.009  0.3381  0.3445  0.0977
49237W        W92253  19.364  28.269  24.898 -0.2761  0.1826 -0.0800
49238W        W92254   4.649   1.556  19.712  0.0845 -0.2463 -0.1610
49239W        W92255  22.003  30.137  14.231 -0.0484  0.0351 -0.1623
49240W        W92256  34.334   1.851  20.405  0.1235 -0.2339  0.1815
49241W        W92257  29.761  29.955  18.340  0.0435  0.1278  0.0063
49242W        W92258   1.079   1.207  14.937 -0.1316  0.2136  0.0084
49243W        W92259  21.877  32.296  16.530 -0.3070  0.1476  0.1643
49244W        W92260  17.951  28.481  22.852  0.0056  0.1218  0.1444
49245W        W92261  10.603   6.117   0.366  0.2264 -0.1160 -0.2153
49246W        W92262  27.011  32.734  25.099 -0.0467  0.2994 -0.0002
49247W        W92263   4.835  34.455  27.911  0.0453 -0.2889 -0.3070
49248W        W92264   5.210  10.340  20.833  0.0809 -0.1560  0.0760
49249W        W92265  12.087   6.899  20.859 -0.6088 -0.2654 -0.1168
49250W        W92266   4.587   2.631  22.308  0.0053  0.3948 -0.2020
49251W        W92267  27.736  26.040  14.795  0.0233  0.0419 -0.0376
49252W        W92268   5.129  23.320  24.826  0.3753  0.1713 -0.2815
49253W        W92269   7.305   0.381  18.420  0.1758  0.2874 -0.3268
49254W        W92270   8.182   0.373  14.315  0.0137  0.0717  0.3433
49255W        W92271  34.556  21.449  18.883  0.0384  0.3912  0.3113
49256W        W92272   8.921   6.275  15.422 -0.2235  0.0850 -0.1778
49257W        W92273  28.767  25.234   8.388  0.1664 -0.3523  0.3901
49258W        W92274   7.293  18.398  22.980 -0.1811 -0.0752 -0.2849
49259W        W92275   3.954  29.753  24.065  0.0104  0.1540 -0.2662
49260W        W92276   4.303  24.723  18.233 -0.2921  0.0295 -0.1067
49261W        W92277   9.101  17.666  16.841 -0.2743  0.1503 -0.1635
49262W        W92278  12.854  15.254  21.948 -0.1293 -0.0511  0.0492
49263W        W92279   5.420  14.297  19.681  0.0857  0.1840 -0.1770
49264W        W92280   9.587  29.888  15.534 -0.0636  0.0608 -0.1910
49265W        W92281  18.645  16.756  13.058 -0.0172 -0.0702  0.1159
49266W        W92282  29.155  25.876  19.145 -0.3002 -0.0110  0.1356
49267W        W92283  14.108  19.211  24.590 -0.2984 -0.2508 -0.1298
49268W        W92284   2.569  10.329  18.057  0.1923  0.0619 -0.0234
49269W        W92285  10.741  20.613  28.437 -0.1543 -0.1814 -0.0438
49270W        W92286  11.183  12.680  20.854 -0.2482 -0.0021  0.1109
49271W        W92287  18.817  25.866  26.686  0.2545 -0.2459  0.0459
49272W        W92288   3.477  14.950  15.368 -0.1147  0.0554 -0.1137
49273W        W92289   4.075  33.739  17.828  0.1002 -0.2296 -0.3773
49274W        W92290  14.023   7.370  19.526 -0.0241  0.1708  0.3770
49275W        W92291   3.401   5.461  25.184 -0.4387  0.1434 -0.0023
49276W        W92292  15.774  20.590  13.601 -0.1995 -0.1259  0.2450
49277W        W92293  22.018  28.363  19.348 -0.1003 -0.0434  0.2019
49278W        W92294  33.130   3.422  14.511  0.1809  0.2488  0.0876
49279W        W92295   0.742   1.632  26.910  0.0574  0.3934  0.1155
49280W        W92296   3.935   4.573   5.361  0.0933 -0.0358  0.2503
49281W        W92297  16.177  31.294  16.852  0.2572 -0.2011 -0.2303
49282W        W92298   7.585   7.450  18.218 -0.1459 -0.0768  0.0196
49283W        W92299  11.858  24.689  18.183 -0.3361  0.0958  0.3199
49284W        W92300   3.462  27.652   3.206 -0.0293  0.1129  0.0901
49285W        W92301  12.959  27.168  16.340 -0.0897 -0.0881  0.0298
49286W        W92302  17.521  11.456  12.580 -0.3007  0.2421  0.2021
49287W        W92303   8.014   4.745  17.378  0.1831  0.0224  0.0615
49288W        W92304  13.421  17.570  24.504  0.1137 -0.3795 -0.1033
49289W        W92305   8.946  31.075  18.931 -0.0975  0.0193  0.0758
49290W        W92306  22.386  23.217   2.658 -0.1368 -0.1128  0.2374
49291W        W92307  10.633  27.419  28.620 -0.2736  0.2473  0.0951
49292W        W92308   1.901  25.062  15.929  0.1545 -0.0094 -0.1276
49293W        W92309  18.599  25.147  26.665 -0.0518  0.2360 -0.1322
49294W        W92310  17.080  10.259  28.078 -0.1737 -0.0598 -0.1701
49295W        W92311  11.955  34.664  19.499  0.3874  0.2164 -0.2397
49296W        W92312  18.641  32.155   5.755  0.1559 -0.0253  0.2142
49297W        W92313  22.931  19.491   4.115 -0.2063  0.1631  0.2070
49298W        W92314  30.279   4.708  17.989 -0.0804  0.0378  0.0818
49299W        W92315  20.198   0.929  23.270  0.1376  0.2892 -0.0858
49300W        W92316   3.071  29.829  22.305  0.1096  0.0720 -0.0584
49301W        W92317   8.364  23.032  13.280 -0.2056 -0.0346 -0.1618
49302W        W92318   6.896  25.872  27.939  0.0933  0.3863  0.2391
49303W        W92319  12.275  24.644  25.247 -0.1643  0.0582  0.0993
49304W        W92320   4.575  27.714  21.147 -0.0283  0.2053 -0.3501
49305W        W92321  12.457   4.284  14.151  0.0312  0.2975  0.0338
49306W        W92322  16.571   8.273   4.603  0.2728  0.3764  0.2670
49307W        W92323   5.744   0.943  26.004 -0.1548  0.0475 -0.1751
49308W        W92324   1.795   1.484  26.229 -0.1035  0.0596  0.0142
49309W        W92325   6.198  23.020  13.843 -0.2023 -0.1708 -0.0069
49310W        W92326   9.526   0.193  26.506 -0.2038 -0.2500  0.1777
49311W        W92327  16.819  11.965  23.235 -0.3468 -0.0899 -0.2094
49312W        W92328   7.112  21.363  21.432  0.0518 -0.0244  0.1169
49313W        W92329   8.019  18.496   4.028 -0.2418  0.1526  0.2512
49314W        W92330  33.467  22.409  19.399  0.0423  0.0521 -0.1066
49315W        W92331   5.614  29.443  18.004 -0.2728 -0.1012 -0.0850
49316W        W92332  22.412   4.186  17.600 -0.1540  0.2503  0.1253
49317W        W92333   4.682  11.163  21.257 -0.0499  0.2376 -0.1765
49318W        W92334   9.536  31.059  23.218 -0.3332 -0.0785  0.1157
49319W        W92335  13.826   6.391  24.323  0.1534  0.0748 -0.1119
49320W        W92336  30.739  26.643  19.775  0.0517  0.2347 -0.1939
49321W        W92337  21.322  28.541  15.604 -0.2199 -0.0531 -0.3472
49322W        W92338   5.507  33.723  18.089 -0.0610  0.0265 -0.1490
49323W        W92339  18.923  23.319  22.078 -0.1220  0.0431  0.0844
49324W        W92340  30.632  31.498  24.907 -0.0394  0.4051  0.1508
49325W        W92341   1.705  12.428  17.844  0.0497  0.2625 -0.1436
49326W        W92342   6.972   4.545  28.172 -0.0137  0.1087  0.4352
49327W        W92343   7.358  31.306  23.315  0.1094  0.1007 -0.1201
49328W        W92344  16.921   3.075  16.958  0.3334  0.0125 -0.2952
49329W        W92345   3.126  22.162  15.603 -0.0653  0.0745 -0.0669
49330W        W92346  13.556  16.150  13.585  0.0460  0.0590 -0.4400
49331W        W92347   3.800   1.101  27.767 -0.0067  0.1331  0.2328
49332W        W92348  16.204  24.190  13.436 -0.0827  0.2569 -0.1299
49333W        W92349   1.834   7.875  18.739  0.2328  0.0848 -0.1475
49334W        W92350   2.746   8.076  16.412 -0.3869 -0.0599  0.1619
49335W        W92351  11.071  29.410  21.542 -0.2742  0.0315  0.2114
49336W        W92352  13.858  22.119  13.270  0.0562 -0.0926 -0.0444
49337W        W92353  29.087  33.102  20.831  0.1178  0.2549 -0.1669
49338W        W92354   0.899  31.799  19.819  0.1177  0.0785 -0.0390
49339W        W92355   9.421  21.766  13.945  0.0816  0.0639  0.1900
49340W        W92356  24.367   2.730  24.593  0.0854  0.1550 -0.2455
49341W        W92357  31.454   4.943   1.799  0.2376 -0.0535  0.0643
49342W        W92358  32.778   4.687  19.729  0.0788  0.1652  0.0928
49343W        W92359  15.105  28.753  23.818 -0.1865 -0.1633 -0.0495
49344W        W92360  14.231  10.910  13.902  0.1691  0.1926  0.2436
49345W        W92361  11.875  19.255   1.610  0.2477  0.0048  0.2026
49346W        W92362  19.211   5.206  27.252 -0.0488  0.1916  0.1012
49347W        W92363  26.007  20.476  20.739  0.2157  0.2419 -0.0660
49348W        W92364  16.532   1.477  22.970  0.1386  0.3217 -0.0936
49349W        W92365   3.804  20.972  15.699  0.1790  0.0532 -0.2549
49350W        W92366   8.790   9.826  27.939  0.0115 -0.0760  0.0587
49351W        W92367   7.425   7.136   0.210  0.0625 -0.2610  0.1593
49352W        W92368  15.532  15.047  28.000  0.0906 -0.1770  0.2743
49353W        W92369  29.565  14.219  21.659  0.1194 -0.0460 -0.2424
49354W        W92370   5.466  13.455   1.550  0.0722  0.3490  0.0147
49355W        W92371   6.912  10.494  22.704 -0.0515  0.1295  0.1806
49356W        W92372  17.387  31.145  14.960  0.0929 -0.5988 -0.0470
49357W        W92373   7.319   1.004  24.109  0.3779  0.1143  0.0036
49358W        W92374  19.762   2.254   0.161 -0.1342  0.1097 -0.1310
49359W        W92375   7.045  20.984  21.810 -0.1876 -0.0435  0.3260
49360W        W92376   5.527  32.927  16.914  0.0867 -0.1348  0.1122
49361W        W92377   6.934  26.130  14.028 -0.0564 -0.0366 -0.2810
49362W        W92378   6.157   1.080  17.572  0.1163  0.0205 -0.0243
49363W        W92379  34.622  34.089  23.497 -0.0801 -0.1480  0.0867
49364W        W92380   2.098  25.643  22.716 -0.1257  0.0649 -0.3179
49365W        W92381  12.129  11.119  21.341  0.2497  0.0087 -0.2131
49366W        W92382   3.839  22.058  18.385 -0.1266  0.0865 -0.2608
49367W        W92383  20.877   3.572  22.652  0.2285  0.0158 -0.0801
49368W        W92384  12.895   2.317  25.477  0.1793 -0.1447 -0.3056
49369W        W92385   6.131  31.675  23.011 -0.0743 -0.0543  0.1299
49370W        W92386  19.616  27.720  16.394 -0.0928  0.2847 -0.2953
49371W        W92387   9.016  20.423  20.448 -0.0309  0.1161 -0.2679
49372W        W92388  22.805  26.849  14.909 -0.0862 -0.1574  0.1214
49373W        W92389  32.871  21.532   0.409  0.2299  0.0806 -0.3525
49374W        W92390  14.071  29.407  15.481 -0.0465  0.1416 -0.2445
49375W        W92391  15.025   0.348  23.906 -0.0406 -0.0934  0.0444
49376W        W92392   2.121  26.788  19.295  0.1512  0.3085  0.0837
49377W        W92393   9.248  29.773  15.156 -0.0882  0.0434  0.0319
49378W        W92394   7.973  32.552  15.368  0.2647 -0.4081 -0.0487
49379W        W92395  34.288  25.107  19.886  0.1434  0.0306 -0.1335
49380W        W92396  11.057   1.780  19.594 -0.1419  0.2060 -0.0255
49381W        W92397   4.753  28.936  15.379  0.1192  0.2105 -0.0471
49382W        W92398  10.967   7.380  13.825  0.0288  0.1131 -0.0054
49383W        W92399  12.708  17.191   0.727  0.1702 -0.1088 -0.0217
49384W        W92400   9.559   7.336  25.070  0.1492 -0.0253  0.1108
49385W        W92401  32.240  24.951  21.039 -0.3176  0.1604  0.0203
49386W        W92402  19.618  29.714  29.036  0.1370  0.2014  0.4460
49387W        W92403  14.331   0.190  23.525  0.1623 -0.0964 -0.0508
49388W        W92404  19.012   3.410  15.476 -0.2864  0.1599  0.0605
49389W        W92405  34.283  29.193  17.682  0.2768  0.0551  0.1234
49390W        W92406  10.833   0.931  23.389  0.0496 -0.0195  0.4136
49391W        W92407  24.099  26.889  17.385 -0.0043  0.1377  0.0035
49392W        W92408   5.209   9.567  23.710 -0.4694  0.0902  0.1078
49393W        W92409  20.758  14.545  21.335  0.1127  0.2385  0.0984
49394W        W92410  23.432   2.420  24.628 -0.1618 -0.1500  0.0014
49395W        W92411  18.217   8.029  18.709  0.1288 -0.2615 -0.3625
49396W        W92412  14.150   3.630  17.063 -0.0653  0.0187  0.0694
49397W        W92413   5.914  18.241  13.892  0.5867  0.1122  0.0169
49398W        W92414  33.180  11.509  26.330 -0.0210  0.3647  0.0848
49399W        W92415  24.494  34.088   3.211 -0.3782  0.1852  0.2468
49400W        W92416  31.077   2.345  27.923  0.2429  0.1588  0.1193
49401W        W92417  15.660  30.449  19.146  0.3105  0.1304  0.0894
49402W        W92418  13.430   4.094  18.077 -0.0684 -0.1152  0.0791
49403W        W92419   8.544  10.455  25.707  0.0304  0.0766  0.0009
49404W        W92420  32.085  23.835   5.714 -0.1935 -0.0942 -0.1735
49405W        W92421  25.328   2.592  18.531 -0.1454  0.1899 -0.1391
49406W        W92422  32.738  34.564  17.047  0.0844  0.3826  0.1172
49407W        W92423   0.663  12.690  23.037  0.0648 -0.2089  0.1183
49408W        W92424  34.443  23.741  27.149  0.3451  0.0647  0.3455
49409W        W92425  21.514   3.654  23.131 -0.0512  0.0157  0.4365
49410W        W92426  21.785  28.746  25.002 -0.2834 -0.1411  0.1374
49411W        W92427  18.570   4.295  16.176  0.0725  0.2887 -0.1173
49412W        W92428   5.800   4.745  18.003 -0.4550  0.1142  0.0093
49413W        W92429   1.077  13.762  14.782  0.0384 -0.0315  0.0242
49414W        W92430   3.407  17.687  27.365  0.0602  0.1311 -0.0185
49415W        W92431   2.183  30.573  18.621 -0.1594 -0.1425 -0.1327
49416W        W92432   8.283  24.755  20.659 -0.0058  0.3115  0.1278
49417W        W92433  16.769  11.770  21.728 -0.0810  0.1395 -0.0027
49418W        W92434   1.253  30.591  22.737  0.5645  0.0020  0.1178
49419W        W92435  19.878  26.477  20.217  0.0929  0.2715 -0.1035
49420W        W92436  19.973   6.482   5.119 -0.0181 -0.4066  0.2519
49421W        W92437  25.493  28.617   2.746  0.0511  0.2908 -0.1004
49422W        W92438  15.214  14.192  13.170  0.0773  0.1531 -0.1442
49423W        W92439  12.039  28.176  22.843 -0.1323 -0.1679 -0.1235
49424W        W92440  15.633  11.773  23.771  0.0746  0.0405 -0.0697
49425W        W92441  15.977  25.948  25.070  0.1200 -0.0176 -0.0279
49426W        W92442  14.095  17.621  11.757 -0.0633  0.1370 -0.1329
49427W        W92443  18.005  33.638  16.395  0.3377 -0.0684  0.0416
49428W        W92444   8.892  11.077  17.072 -0.1729 -0.1424  0.0686
49429W        W92445   4.919   6.693  18.121  0.1174  0.2189 -0.0862
49430W        W92446  16.238   9.384  15.534  0.0629  0.1943  0.0635
49431W        W92447  11.381  27.827  15.484 -0.3471 -0.0261  0.0194
49432W        W92448   3.185   9.866  27.096 -0.2680  0.1214  0.1618
49433W        W92449  13.557   5.178  28.909  0.2230 -0.0724 -0.1727
49434W        W92450  34.148  23.610   5.350 -0.1228 -0.0401 -0.3168
49435W        W92451  30.810   1.061  25.070  0.1614 -0.1022 -0.0060
49436W        W92452   7.176  17.725  23.659  0.3173  0.0966  0.0121
49437W        W92453  11.691  26.913  17.248 -0.0936 -0.0309  0.1214
49438W        W92454  27.128  34.666  18.643  0.1057 -0.0488  0.2521
49439W        W92455  16.618  29.731  16.260 -0.1110  0.1276  0.0546
49440W        W92456  17.615  27.193   1.040  0.0017  0.0800 -0.4391
49441W        W92457  19.324   6.645  22.177 -0.1779  0.0044  0.0176
49442W        W92458  18.147   9.239   0.375  0.2796 -0.1498  0.1327
49443W        W92459  23.568  19.673  19.806 -0.0798  0.2008 -0.0207
49444W        W92460  26.118   8.459  18.774  0.1322 -0.1595  0.1882
49445W        W92461   9.661  31.777  18.410  0.0749  0.1834  0.1417
49446W        W92462  17.795   2.320  19.629 -0.1057 -0.2658 -0.1678
49447W        W92463   9.859   0.171  16.090 -0.3666  0.0750 -0.2675
49448W        W92464  16.332  29.290  18.469 -0.1176 -0.0157  0.3239
49449W        W92465   9.500   5.649   0.888 -0.0971  0.0308  0.2549
49450W        W92466  18.150  34.760  19.488  0.1152  0.0708  0.0855
49451W        W92467  16.016   6.339  15.100 -0.1049 -0.5284  0.2377
49452W        W92468  25.315  24.552  21.596  0.0173  0.0629  0.1478
49453W        W92469   5.311   7.276  23.461 -0.2323 -0.1507  0.0177
49454W        W92470  10.780   3.961  16.144  0.1436  0.0362 -0.0390
49455W        W92471  15.417  24.437  16.895  0.1724 -0.1631 -0.1430
49456W        W92472  12.042   0.805  25.790  0.1794 -0.3026 -0.3559
49457W        W92473   9.410   0.030  16.223 -0.1967 -0.1596 -0.0939
49458W        W92474   1.664  24.985  22.117  0.0955  0.0798  0.1657
49459W        W92475  12.609  29.303  17.490  0.0606  0.1239  0.0423
49460W        W92476   9.427  11.671  15.445 -0.0600 -0.2222 -0.0087
49461W        W92477   4.332  19.843  24.005  0.1225 -0.0933 -0.4068
49462W        W92478  32.783  25.151  15.728 -0.1127 -0.0253 -0.3316
49463W        W92479  16.188   4.388  20.578  0.0159 -0.1653 -0.0931
49464W        W92480   8.301  13.259  21.194 -0.1343  0.0113  0.2453
49465W        W92481  10.160  26.678  25.124  0.1100  0.1031  0.1936
49466W        W92482   8.612  27.089  21.818  0.2497 -0.2409 -0.5997
49467W        W92483   2.346   0.759  19.210  0.2183 -0.0192  0.1510
49468W        W92484  10.582  29.581  22.586  0.4611 -0.4124 -0.0426
49469W        W92485  33.726  26.234  20.464  0.2158 -0.1582  0.0182
49470W        W92486  34.680  30.324  22.824 -0.1958 -0.1380  0.2970
49471W        W92487   9.858  20.452  16.024  0.3006 -0.2025 -0.4236
49472W        W92488  13.919   1.790  27.824 -0.2677  0.3263 -0.0141
49473W        W92489  15.915  25.420  14.393  0.0893 -0.0414  0.0903
49474W        W92490  15.808   3.385  19.585 -0.2001  0.0791  0.0496
49475W        W92491  18.929   3.772  22.970  0.0046 -0.1746 -0.1571
49476W        W92492   4.973  27.149  23.526  0.3113 -0.0038 -0.0113
49477W        W92493  15.824  16.832  13.551  0.0573 -0.1510 -0.1116
49478W        W92494  30.960  24.369   0.737 -0.0018 -0.0966 -0.2363
49479W        W92495   2.655  31.825  29.098 -0.0677  0.2984  0.0373
49480W        W92496  32.599   4.121  18.164  0.2820 -0.1535  0.0263
49481W        W92497  11.600   3.903  15.657 -0.0751  0.0746 -0.0485
49482W        W92498  12.174  29.064  16.518 -0.1236  0.1263 -0.0592
49483W        W92499  19.781   5.896  20.363 -0.2303 -0.1502  0.3539
49484W        W92500  33.904  24.792  28.088 -0.1466  0.2875  0.0148
49485W        W92501  14.804  28.488  23.077 -0.0228  0.1634  0.2570
49486W        W92502   6.486  34.519  19.191 -0.2070 -0.0044 -0.4212
49487W        W92503  16.749  33.392  26.658  0.0702 -0.0714  0.4354
49488W        W92504  13.006  30.875  17.392  0.0799  0.1211 -0.0221
49489W        W92505  16.653   3.563  18.286  0.1670 -0.1099 -0.2686
49490W        W92506   3.183   1.291  15.906 -0.1421  0.0532  0.1568
49491W        W92507  34.077  30.289  19.814 -0.0308 -0.1203 -0.2408
49492W        W92508   8.817   6.078  20.103  0.0076  0.0305  0.1924
49493W        W92509  14.348  21.544   5.013 -0.1525  0.0013 -0.0533
49494W        W92510  21.597  28.163  15.911  0.0692 -0.5241 -0.1174
49495W        W92511  11.210  22.119  14.442 -0.0648 -0.2876  0.1826
49496W        W92512  33.979  14.657   2.978 -0.2736  0.2882 -0.2857
49497W        W92513   8.360  28.919  28.279  0.1232  0.3390 -0.4866
49498W        W92514  21.725   7.838   0.664 -0.2658 -0.2923 -0.1042
49499W        W92515   0.423  25.674  19.646  0.0303 -0.1683  0.0210
49500W        W92516  13.795  23.244  23.035 -0.1158  0.0646 -0.1855
49501W        W92517   9.293  11.280  21.174 -0.0981  0.2518 -0.1934
49502W        W92518  13.337  10.666  18.592  0.0192 -0.2831 -0.0588
49503W        W92519  30.337  16.411  18.800 -0.1054  0.1179  0.0154
49504W        W92520   1.585  30.981  20.963 -0.0840 -0.2920 -0.0073
49505W        W92521  22.782   1.769  18.017  0.2214 -0.3422 -0.0050
49506W        W92522   1.918  20.332  27.500 -0.1330  0.0796 -0.1524
49507W        W92523  20.274   1.958  14.898  0.1386  0.0686  0.1871
49508W        W92524  29.511  18.724  22.981  0.1930  0.3195  0.0217
49509W        W92525   5.770  30.096  16.701  0.1577  0.3156 -0.0179
49510W        W92526  15.984  20.376   0.938  0.0825  0.1621  0.1520
49511W        W92527  13.837  10.533  19.021  0.3111  0.0299  0.1226
49512W        W92528  24.657  33.154  25.077  0.3202 -0.0100 -0.1937
49513W        W92529  16.429  26.726  25.089  0.0428  0.0385  0.0000
49514W        W92530   4.086  34.349  25.149  0.2157  0.1303  0.1278
49515W        W92531  28.244  24.678  18.317  0.4226  0.2221  0.0295
49516W        W92532  24.964  30.215  25.274 -0.4039 -0.0884  0.1045
49517W        W92533  11.404  15.600  19.710 -0.2736  0.2134 -0.1785
49518W        W92534  14.423  15.419   7.364  0.2546  0.2499  0.3450
49519W        W92535  27.377  21.938  23.183 -0.0172 -0.0732  0.2013
49520W        W92536  34.364   3.916  16.123  0.3768 -0.0797 -0.2860
49521W        W92537  26.838   2.758  20.224  0.0981  0.0111 -0.2713
49522W        W92538   4.082  25.898  15.221 -0.0028  0.0705  0.0561
49523W        W92539  11.611  28.114   6.929 -0.0415  0.0672 -0.0995
49524W        W92540   5.593  24.880   2.438 -0.3271 -0.1160  0.0880
49525W        W92541   9.468  11.550  25.042 -0.3277  0.2447  0.2770
49526W        W92542   7.198  22.375  16.624  0.1156 -0.0538 -0.1043
49527W        W92543  19.181  21.468  18.413 -0.1724 -0.1196  0.1318
49528W        W92544   8.829  10.247  20.061 -0.4254  0.0226  0.1242
49529W        W92545  31.588  21.603  15.179  0.1307  0.2870  0.1196
49530W        W92546   1.707   3.481  20.595 -0.0176  0.1679 -0.1806
49531W        W92547   1.643   7.873  29.187 -0.4528 -0.0565 -0.0976
49532W        W92548   8.950  16.026  16.825 -0.1180 -0.0341 -0.0282
49533W        W92549  19.215   7.439  15.723 -0.2563 -0.4689  0.1033
49534W        W92550  27.129   0.608  17.373  0.0643  0.2561  0.1443
49535W        W92551   1.096  22.951   9.951  0.0215 -0.0649 -0.1217
49536W        W92552  16.528  15.800  14.228  0.2283 -0.0035  0.2942
49537W        W92553  22.415  23.144  17.672 -0.4562 -0.1068 -0.0095
49538W        W92554   5.499  26.650  18.764 -0.1240  0.0996 -0.1939
49539W        W92555   6.179   3.005  24.582  0.1742  0.1943 -0.2433
49540W        W92556  24.605  29.881  24.841  0.0265  0.2548 -0.0846
49541W        W92557   2.897  26.771  26.078  0.4335 -0.3369 -0.0678
49542W        W92558  18.312  31.461   1.138  0.0225 -0.2052 -0.2589
49543W        W92559   5.351  17.612   5.876 -0.1751 -0.0364 -0.2372
49544W        W92560   9.623  20.065  23.090  0.0693 -0.0750 -0.1333
49545W        W92561   1.327  27.917  24.012  0.1929 -0.3432 -0.3897
49546W        W92562  29.416   1.986  27.025  0.1786  0.1007  0.2505
49547W        W92563  14.959  18.654   2.274  0.4089 -0.3589  0.0408
49548W        W92564  12.256  16.103  14.872  0.2912 -0.1648  0.3816
49549W        W92565   3.248   7.318  26.025 -0.4176  0.0275  0.0086
49550W        W92566  14.607  25.185   4.606 -0.0013  0.1184 -0.2089
49551W        W92567  14.768  12.763  15.296 -0.0744  0.1279  0.2120
49552W        W92568  11.533   6.177  15.000  0.0791  0.1578 -0.1056
49553W        W92569  21.051  32.060   2.739  0.2333 -0.0345 -0.0301
49554W        W92570  29.616   1.570  17.694  0.2427  0.0616 -0.1282
49555W        W92571  18.859  26.698   5.531 -0.0544 -0.0531  0.0993
49556W        W92572   4.029  23.677  19.830  0.2928  0.0100  0.0175
49557W        W92573  13.418  20.397  15.788 -0.0736 -0.0252 -0.0079
49558W        W92574  33.166  34.120  17.027  0.1851 -0.0923  0.3401
49559W        W92575   7.777  32.626  24.515  0.2563  0.2928  0.0619
49560W        W92576  25.176  31.472  18.824 -0.2911  0.0550  0.2181
49561W        W92577  11.276   9.489  22.797  0.2031 -0.1601  0.1500
49562W        W92578  11.785  29.035  20.164  0.0323  0.1495  0.4075
49563W        W92579  31.365   7.592  21.009  0.2193  0.0350  0.1608
49564W        W92580  22.960  33.619  28.165 -0.1552  0.3254  0.0933
49565W        W92581  14.771  22.254  23.316  0.0747 -0.0806  0.0037
49566W        W92582  28.241   0.222  16.844  0.1633 -0.2257  0.2992
49567W        W92583   5.192  23.045   2.096  0.0825  0.0216  0.1575
49568W        W92584  12.997   4.981  26.652  0.1961 -0.0007  0.1873
49569W        W92585  34.748   0.637  14.498  0.2373 -0.0010 -0.1993
49570W        W92586   9.415  23.114  24.284  0.0324  0.0309  0.0868
49571W        W92587   1.468   7.450  15.589 -0.0673 -0.1454 -0.0220
49572W        W92588   4.487   6.084  15.436 -0.1032  0.1759 -0.1128
49573W        W92589   4.519  19.294  25.551 -0.1334 -0.2774 -0.4361
49574W        W92590  31.170   2.854  10.022  0.1149  0.1077  0.0728
49575W        W92591  30.296   4.292  20.650 -0.1594  0.0514 -0.0182
49576W        W92592  13.623  28.382   6.448  0.1346 -0.1051  0.0904
49577W        W92593  22.441  19.970  20.220 -0.1917  0.0620 -0.2507
49578W        W92594  11.151  18.943  23.243  0.0143  0.1147  0.1488
49579W        W92595   7.953   2.502   2.703 -0.0092  0.0842 -0.2280
49580W        W92596  16.324  27.209  16.372 -0.2012  0.3184 -0.1669
49581W        W92597   2.272  32.092  16.686 -0.1205 -0.0515 -0.0486
49582W        W92598  33.155  13.271  20.982 -0.2256  0.1242 -0.2602
49583W        W92599  28.184  23.358  19.273 -0.1912 -0.0170  0.1114
49584W        W92600  25.282  13.157  15.160 -0.4232  0.1268  0.0182
49585W        W92601  13.960   6.339  14.501  0.2168  0.0913 -0.1689
49586W        W92602   1.877  33.452  15.880 -0.0337 -0.1637 -0.2111
49587W        W92603   0.775   8.951  28.445 -0.0688  0.0584 -0.0496
49588W        W92604  28.419   4.985  20.167 -0.3004  0.3016 -0.2513
49589W        W92605   3.351   9.964  27.698 -0.0840 -0.0996  0.0496
49590W        W92606  11.886  29.271  16.218  0.2576 -0.1353 -0.0304
49591W        W92607  13.348  26.688  20.766  0.2266 -0.2183  0.1750
49592W        W92608   3.121  24.698  26.193 -0.0275 -0.2212  0.0548
49593W        W92609   0.163   9.991  18.215  0.0629  0.3122 -0.0409
49594W        W92610   0.305   1.518  14.810  0.1451  0.0071 -0.2765
49595W        W92611   6.899   9.121  25.118  0.3141 -0.0877 -0.0951
49596W        W92612  13.751  24.421  22.365 -0.0434  0.1922  0.1734
49597W        W92613   7.915   3.971  20.522  0.0608 -0.0375 -0.4316
49598W        W92614  20.454   3.004  17.740  0.0232 -0.2934 -0.0283
49599W        W92615   1.717   5.594   1.474 -0.0580 -0.0494  0.1592
49600W        W92616  22.113   2.232  16.398 -0.0370 -0.0029 -0.3506
49601W        W92617  32.040  27.043  19.899 -0.2984  0.2100  0.1124
49602W        W92618   5.120  18.311  13.672 -0.4570  0.0927 -0.1108
49603W        W92619  28.710  29.484  19.782  0.2282  0.0009  0.3852
49604W        W92620  13.462  16.661   1.682  0.1051  0.1741  0.0525
49605W        W92621   4.589   8.355   0.318  0.0202 -0.1437 -0.0313
49606W        W92622   5.995  15.664  16.420 -0.2464  0.0596 -0.0781
49607W        W92623  26.207  23.708  14.596  0.0288  0.0455  0.1558
49608W        W92624  13.952  26.514  14.716  0.0491 -0.1341 -0.2495
49609W        W92625  16.546  31.024   9.819 -0.2257 -0.2965  0.1690
49610W        W92626  20.689  26.386  20.829  0.1836  0.1244 -0.2384
49611W        W92627   2.078  19.510   2.854 -0.1996  0.1391 -0.1860
49612W        W92628   1.236  32.722  22.362  0.0279  0.0083 -0.0912
49613W        W92629  16.170   4.056  23.857  0.3109  0.3766  0.0469
49614W        W92630   3.721   8.540  17.886  0.2126 -0.2703 -0.0797
49615W        W92631   6.718   2.006  16.808 -0.1332  0.0348  0.0484
49616W        W92632  34.325  34.549  28.546  0.0420  0.1401  0.0176
49617W        W92633  32.133  29.704   1.037 -0.1675 -0.0733  0.0873
49618W        W92634  14.987  26.498  16.292 -0.4338 -0.0891  0.0207
49619W        W92635  10.310  19.620   7.398 -0.0854 -0.1278 -0.1441
49620W        W92636  18.123  22.895  13.890  0.2123  0.2545 -0.1610
49621W        W92637  15.384   0.414  24.268  0.1689 -0.2196  0.2651
49622W        W92638   7.503  20.944  17.326  0.0830  0.0437  0.1220
49623W        W92639   0.818  31.663  25.829 -0.4132  0.0938 -0.0069
49624W        W92640  14.302  32.912  10.225 -0.4026 -0.4020 -0.1124
49625W        W92641   2.856   0.246   1.253  0.0044  0.0537 -0.1114
49626W        W92642  14.162  30.669  23.864  0.0526  0.1337 -0.2834
49627W        W92643  31.970   0.597   0.933  0.2711 -0.0150 -0.3146
49628W        W92644  12.387  24.606  16.221  0.4390 -0.2560  0.1045
49629W        W92645   0.202  28.624  17.713  0.2995 -0.1397  0.2855
49630W        W92646   2.501  26.610  21.823 -0.2531  0.0537 -0.1482
49631W        W92647  27.840  27.980  16.482  0.0062 -0.1975 -0.1632
49632W        W92648   4.286   0.089  25.337  0.2144  0.2099 -0.1556
49633W        W92649  12.804  22.056  20.621  0.1488  0.0623 -0.1685
49634W        W92650  13.307   5.920  19.070 -0.1673 -0.3568 -0.1411
49635W        W92651   3.055  27.055  26.500  0.2100  0.0893  0.0130
49636W        W92652  16.079  19.084  28.419 -0.2519 -0.2527  0.0160
49637W        W92653  22.815  27.725  15.043 -0.2033 -0.0078  0.3441
49638W        W92654   5.853  31.898  23.374  0.0397 -0.0273  0.1353
49639W        W92655  14.760  27.652  16.794 -0.2555 -0.0968  0.1762
49640W        W92656  13.519  31.393  28.763  0.5159 -0.6287 -0.1121
49641W        W92657  12.704  31.356  22.889  0.0686  0.0595  0.0234
49642W        W92658  16.966  20.310  13.344 -0.0248 -0.0233 -0.0938
49643W        W92659   2.906  18.510  14.585  0.1714  0.1425  0.0503
49644W        W92660   6.606  33.735  29.195 -0.1596  0.0502 -0.1451
49645W        W92661  10.965  11.168  20.789 -0.0402 -0.1156 -0.1819
49646W        W92662  30.022  20.323  20.027 -0.1983  0.1010 -0.2780
49647W        W92663  32.999  12.804  18.292 -0.1524 -0.1376 -0.0425
49648W        W92664  21.517  22.538  16.566  0.3637  0.1586  0.0064
49649W        W92665  12.503  21.713   3.965  0.2793  0.1718 -0.0831
49650W        W92666  31.377  23.943  16.545  0.1308  0.1328  0.1823
49651W        W92667  25.841  28.175  23.383  0.3586  0.0361 -0.3170
49652W        W92668   1.747  20.479  20.874  0.1900  0.1306  0.0017
49653W        W92669  19.207   2.273   3.454  0.0309  0.1158  0.0826
49654W        W92670  14.511   4.995  22.666  0.1151  0.2443  0.0940
49655W        W92671  25.845   1.655  16.002  0.2052 -0.0062 -0.1759
49656W        W92672   4.237   3.347  15.529  0.3809  0.0925 -0.2094
49657W        W92673  19.894  28.333  23.177  0.0860  0.0409  0.2831
49658W        W92674  18.758  28.781   1.400  0.1814  0.1469 -0.1832
49659W        W92675   3.614  13.623  19.280  0.3780 -0.3064 -0.0715
49660W        W92676  11.054  32.048  26.791 -0.1311  0.0457  0.2409
49661W        W92677   2.678  26.408  24.597  0.1883  0.0566  0.0553
49662W        W92678  32.544  27.349  29.203 -0.2443 -0.0199  0.2285
49663W        W92679  10.325  24.786  26.471  0.1279  0.3157  0.3874
49664W        W92680  15.962  30.895  17.636  0.1169  0.0749  0.1372
49665W        W92681  23.876  31.621  18.047 -0.2290 -0.0603 -0.0551
49666W        W92682  31.013   5.872  25.650  0.0001  0.1094 -0.1783
49667W        W92683   5.084   4.833  16.146  0.2030 -0.1872 -0.2555
49668W        W92684  10.981  24.225  14.675 -0.1698  0.2661  0.1175
49669W        W92685  24.212  17.956  19.470 -0.0589  0.1410 -0.2197
49670W        W92686   0.035  29.480  26.340 -0.0197  0.0092  0.1899
49671W        W92687   5.731  24.494  14.027 -0.3875  0.0698  0.0794
49672W        W92688  12.642   6.346  15.811 -0.1939 -0.0621 -0.1080
49673W        W92689  10.766   7.176  14.747 -0.0759  0.2193  0.0872
49674W        W92690   8.955  21.057   6.371  0.4753  0.0203 -0.0211
49675W        W92691  20.568   2.459  14.916 -0.0698  0.3188  0.0632
49676W        W92692   6.943   2.785  14.349 -0.1118 -0.1247 -0.1547
49677W        W92693  21.140  32.746   8.330  0.1258  0.0062 -0.0332
49678W        W92694  22.063  30.490  17.103  0.0107 -0.0556 -0.2274
49679W        W92695   9.243  16.149  16.344  0.0194 -0.0000  0.2129
49680W        W92696  14.192   9.392  13.682  0.1609  0.2485  0.0983
49681W        W92697  11.588  18.322  13.944  0.2959  0.0115 -0.3248
49682W        W92698  10.508   0.272  24.999 -0.2689  0.2395  0.0440
49683W        W92699  24.295  24.029  20.611 -0.2421 -0.0661  0.1205
49684W        W92700   3.036  17.707  20.657 -0.0338  0.3320 -0.0172
49685W        W92701  17.718   6.396  26.336 -0.0597  0.0855  0.2552
49686W        W92702   7.509   8.373  14.665 -0.0363  0.3916 -0.5578
49687W        W92703  24.228  26.817   1.691  0.1396 -0.4268  0.2257
49688W        W92704  18.718   5.683  23.431  0.3010  0.1909 -0.1682
49689W        W92705   4.812  32.657  14.249  0.1883 -0.1119 -0.0064
49690W        W92706   8.560  11.200  19.241  0.0211  0.1899  0.1764
49691W        W92707  12.962  33.089  23.699 -0.0907  0.2986  0.1263
49692W        W92708   0.665  32.576  24.237  0.0264  0.0135  0.0059
49693W        W92709   3.730   4.473  16.136 -0.2096  0.0048  0.1112
49694W        W92710  19.271  15.032  28.920  0.3494  0.1800 -0.3606
49695W        W92711   9.916  29.617  13.466 -0.3235 -0.0318 -0.0955
49696W        W92712  23.696  28.021  25.837 -0.0105 -0.0223  0.2932
49697W        W92713  18.458  33.071  26.491  0.1991  0.0104  0.0196
49698W        W92714  16.539  22.731  15.072  0.0834 -0.0523 -0.0673
49699W        W92715  12.855   4.200  17.617  0.1084  0.1662  0.0755
49700W        W92716  16.741   8.914  13.198 -0.1831 -0.2555 -0.1696
49701W        W92717  23.709  28.429  19.245 -0.3117  0.1028 -0.0136
49702W        W92718  31.300  28.491   1.405  0.2995 -0.0832 -0.1353
49703W        W92719  10.830  25.483  27.992  0.1556  0.1033  0.0482
49704W        W92720  18.210   3.418  19.401  0.1093  0.2079 -0.1882
49705W        W92721  29.514  29.677  19.403  0.3830 -0.0686  0.0154
49706W        W92722   0.499  21.311   3.353  0.0113 -0.0664 -0.2199
49707W        W92723  27.047   2.077  16.338 -0.3367  0.0028 -0.0945
49708W        W92724  15.632  25.548  20.465 -0.0889 -0.1026 -0.1414
49709W        W92725   3.715  25.084  21.277 -0.1971 -0.2163 -0.0613
49710W        W92726   9.961  23.184  23.377 -0.2555  0.2737  0.0238
49711W        W92727   8.941  18.910  27.446 -0.0479 -0.1326 -0.1431
49712W        W92728  33.319  26.087  21.319 -0.0190 -0.0946 -0.1803
49713W        W92729  10.462  28.566  21.044 -0.2005  0.0336  0.1028
49714W        W92730  29.327  10.038   3.383  0.1926 -0.1404 -0.2577
49715W        W92731  13.251  12.370   0.536  0.1037 -0.1278  0.0330
49716W        W92732  21.361  31.058  26.125  0.2869  0.1131  0.0405
49717W        W92733  25.738  28.776  26.326 -0.1462 -0.0374 -0.0041
49718W        W92734  20.066  30.503  10.435 -0.0148 -0.0224 -0.3160
49719W        W92735   8.981  27.696   3.225  0.0505  0.1897 -0.1200
49720W        W92736   2.516  17.518  19.649  0.0360  0.1984  0.1288
49721W        W92737  28.490   2.422  24.482  0.4585 -0.2967 -0.0963
49722W        W92738  33.070  25.438  25.918 -0.0287 -0.0419  0.2091
49723W        W92739  33.080  31.121  16.282 -0.0054  0.0640  0.0920
49724W        W92740  29.072  26.782  20.333  0.0169 -0.0132  0.1773
49725W        W92741  29.699  24.370  19.179  0.1181  0.2690 -0.0527
49726W        W92742   8.561  21.416  22.101  0.2789 -0.0009 -0.1455
49727W        W92743   6.727  28.715   5.434  0.0905  0.1750 -0.4494
49728W        W92744  16.736  26.151   5.308 -0.2045 -0.1070  0.1924
49729W        W92745  23.111  25.869  22.171 -0.1081 -0.0656 -0.1026
49730W        W92746  20.269  28.841   6.254 -0.0438 -0.0857  0.2077
49731W        W92747   3.931  31.713  26.919 -0.0632 -0.0598  0.0905
49732W        W92748   4.399   5.256  23.644  0.0210 -0.1590  0.0164
49733W        W92749  21.180   7.642  13.625 -0.0700  0.0261 -0.0280
49734W        W92750  14.031  28.929  21.326  0.2055 -0.1960  0.1390
49735W        W92751  18.669  10.172  21.559 -0.0488  0.0363  0.1544
49736W        W92752   3.457   7.656  16.027 -0.1111 -0.0601 -0.1938
49737W        W92753  34.124  33.034  15.635  0.0449 -0.1393 -0.0640
49738W        W92754   2.888   0.175  15.344 -0.1620  0.0820  0.1297
49739W        W92755   4.741  34.762  18.863  0.2487  0.1319  0.1093
49740W        W92756  19.248  25.304  22.685 -0.0721  0.2669  0.0902
49741W        W92757   5.260  29.789  21.696 -0.1563 -0.0656 -0.1339
49742W        W92758  21.827   6.726  17.527  0.0551  0.3412  0.3983
49743W        W92759  18.455  11.305  19.457 -0.0881 -0.2168  0.1990
49744W        W92760  19.590  29.392  15.529 -0.0831  0.2162 -0.1590
49745W        W92761  27.640  26.722  24.550 -0.3347 -0.3566  0.0851
49746W        W92762  10.825  23.710  26.098 -0.0194 -0.2753 -0.0722
49747W        W92763  10.959  18.118  11.994 -0.2909  0.1359  0.0641
49748W        W92764  10.696  33.980  20.534 -0.0158  0.1387 -0.1643
49749W        W92765  13.812  31.759  14.981  0.1973  0.1073 -0.2108
49750W        W92766  24.582   1.568  19.497 -0.1006  0.1371 -0.0110
49751W        W92767  28.059  12.419  22.068  0.1731  0.1335 -0.1035
49752W        W92768   8.261  31.165  14.894 -0.2141 -0.3853 -0.0394
49753W        W92769  10.179   9.871  25.089 -0.1244  0.2415  0.0553
49754W        W92770  12.002  34.107   0.447  0.2182  0.0873 -0.0506
49755W        W92771  20.778  19.015  20.779  0.0185 -0.1152 -0.0362
49756W        W92772   5.717  30.209  17.632 -0.1490 -0.0215 -0.0247
49757W        W92773   8.657  31.372   8.350 -0.1048 -0.2412  0.1318
49758W        W92774  17.434  13.159  13.810  0.4005 -0.1569 -0.0277
49759W        W92775  19.664   6.772  28.422  0.1915 -0.2050  0.0704
49760W        W92776  11.059  18.479  22.935 -0.2084 -0.0024  0.1250
49761W        W92777  18.284  22.631   3.339  0.2707  0.1995  0.3893
49762W        W92778  10.658  30.863  26.437 -0.0323  0.1145  0.1752
49763W        W92779  30.950  14.479   5.569 -0.0468 -0.1430  0.5137
49764W        W92780   8.225  25.980  16.021  0.0741  0.1665 -0.0387
49765W        W92781  10.476  10.374  15.061 -0.3559  0.2479 -0.1860
49766W        W92782   0.249   8.870   1.795 -0.3393  0.1168  0.2874
49767W        W92783   9.625  26.898  19.692 -0.1469  0.1944 -0.2396
49768W        W92784  20.332  31.968   8.134  0.0058 -0.0725 -0.1295
49769W        W92785   2.536  26.421  26.177  0.1231 -0.1026  0.0009
49770W        W92786   9.617  31.199   2.527  0.0763  0.2761  0.1546
49771W        W92787  30.938  29.107   6.245  0.0049 -0.0751  0.0563
49772W        W92788  12.012  19.070  21.447 -0.1392  0.0291 -0.2432
49773W        W92789   5.812  32.036  21.297 -0.0837 -0.0582  0.0711
49774W        W92790   7.868  17.626  18.330  0.2678 -0.2165  0.0759
49775W        W92791  16.243  32.146  27.883  0.0261  0.7622 -0.4583
49776W        W92792   1.414  19.543  26.049  0.3085 -0.2332  0.0417
49777W        W92793  27.477  31.869  27.589  0.2535 -0.0306  0.1367
49778W        W92794  16.862  13.784   1.737  0.0129 -0.0346 -0.0616
49779W        W92795   7.996   4.369   0.846 -0.0618  0.0075  0.0111
49780W        W92796  15.625  23.776  21.082  0.0935 -0.1078 -0.1684
49781W        W92797   6.321   6.735  14.734 -0.0819 -0.0565 -0.1182
49782W        W92798  15.969   1.661  23.713  0.0275 -0.1472 -0.1462
49783W        W92799  25.854  29.463  25.067 -0.0812  0.4036 -0.0505
49784W        W92800  11.894  20.850  15.321  0.0273  0.1710 -0.2716
49785W        W92801   4.278   6.847  14.719  0.0107  0.1056  0.1477
49786W        W92802   8.591   8.749  14.584  0.0293 -0.0611 -0.1393
49787W        W92803  18.987  21.709  27.605 -0.1663  0.1205 -0.1656
49788W        W92804  10.552  31.751  28.246  0.0558 -0.1395 -0.0438
49789W        W92805  14.616   2.779  25.622  0.0557 -0.1709  0.0997
49790W        W92806   0.237  32.557  20.125 -0.2954 -0.1080 -0.1210
49791W        W92807  33.900   2.521   1.576  0.0647 -0.5000 -0.0470
49792W        W92808  18.986  21.066   6.560 -0.0745  0.2444  0.1679
49793W        W92809  15.005  32.699  18.980  0.1944  0.0610  0.4120
49794W        W92810   8.250  18.244  12.425  0.2536  0.0373  0.0625
49795W        W92811  19.835  12.207   2.343  0.1496  0.0742 -0.1315
49796W        W92812   2.477  30.963  18.817 -0.2536 -0.1990  0.0762
49797W        W92813  11.188   4.710  28.336 -0.2433 -0.2101 -0.0109
49798W        W92814   5.780   9.994  28.313  0.1022 -0.1306  0.1552
49799W        W92815  21.912  33.166  23.172 -0.0982 -0.1363  0.0924
49800W        W92816  22.875  31.964   1.473  0.0279  0.0035 -0.1503
49801W        W92817   6.440  29.468  18.756  0.0544  0.3475  0.2600
49802W        W92818  29.349  16.844  24.629  0.2730 -0.2059  0.1507
49803W        W92819   8.014  27.465  18.239 -0.0315 -0.1727  0.0557
49804W        W92820   6.501   8.773  20.764 -0.0263 -0.0170  0.0237
49805W        W92821   8.238   3.621  15.206  0.0761  0.0461 -0.2264
49806W        W92822   4.470  32.296  17.440  0.0931  0.2227  0.0039
49807W        W92823  14.474   0.281  18.594 -0.2013 -0.0554  0.0674
49808W        W92824   4.047  31.986  13.905 -0.1360  0.1991  0.0243
49809W        W92825   6.025  15.851  25.690  0.0350 -0.3649 -0.0572
49810W        W92826   2.059  27.330  18.445 -0.0085  0.0400 -0.0542
49811W        W92827  10.945  31.741  14.162  0.0296  0.2521 -0.0062
49812W        W92828  10.607  34.186  26.551  0.1158  0.1258 -0.1734
49813W        W92829  23.735  20.160  13.459  0.1434 -0.1459  0.0804
49814W        W92830  17.963  23.192  27.828 -0.0829 -0.1126  0.4120
49815W        W92831  13.624   2.263  17.916 -0.4419 -0.2428  0.3396
49816W        W92832   6.240  24.267  23.872 -0.0596 -0.1218 -0.1147
49817W        W92833  18.303   4.297  14.767  0.1912  0.1745  0.2596
49818W        W92834   9.615   4.564  27.318  0.2860 -0.1037 -0.3679
49819W        W92835   3.240  24.436  16.809  0.0148 -0.1765 -0.0617
49820W        W92836   1.241  26.450   7.809 -0.0812 -0.4121 -0.1931
49821W        W92837  15.218  27.186  23.884 -0.1954  0.0624 -0.1736
49822W        W92838  10.583   6.396  20.689 -0.0543 -0.0434  0.3602
49823W        W92839  20.147  24.096  21.374  0.1459 -0.1480 -0.0092
49824W        W92840  20.352  32.296  21.082  0.1395  0.0505  0.1424
49825W        W92841   7.238  12.182  24.892 -0.1247  0.1014  0.3244
49826W        W92842  14.127  32.112  29.108 -0.0899  0.0839  0.1811
49827W        W92843   4.975   4.909  22.304  0.4155  0.0805  0.0209
49828W        W92844  27.863  22.722  26.879  0.1779  0.1429 -0.3320
49829W        W92845   7.268  22.650  22.991 -0.0730  0.1083  0.0130
49830W        W92846  11.261   4.921  16.779  0.0596  0.3413 -0.0142
49831W        W92847  27.319  18.985  20.725 -0.1556  0.0026  0.0239
49832W        W92848  33.942   1.515   0.973 -0.3043  0.1234  0.0473
49833W        W92849   6.940  20.053  17.189  0.1488  0.2009 -0.1598
49834W        W92850   2.598  27.492  23.246  0.4294  0.1796  0.2353
49835W        W92851  19.434  25.444  19.557  0.2452 -0.4595 -0.1634
49836W        W92852  16.853  33.650  23.279  0.1347 -0.3803 -0.3120
49837W        W92853   0.812   2.084  15.998 -0.0280  0.0642  0.0159
49838W        W92854  24.363  26.973  28.680 -0.0069  0.2201 -0.0857
49839W        W92855   6.880  27.356  22.436 -0.1293 -0.1641  0.1714
49840W        W92856   5.555   9.072  16.254  0.0042  0.2610 -0.1460
49841W        W92857  24.622   0.744   0.989  0.0112 -0.1121 -0.2145
49842W        W92858  28.522  13.448  24.034  0.0289  0.0423  0.2697
49843W        W92859  32.030  25.229  15.677 -0.0309  0.0899 -0.2459
49844W        W92860  11.677  24.323   2.583  0.3651 -0.0060  0.0493
49845W        W92861  16.657   4.266  25.592 -0.6046 -0.2683 -0.0564
49846W        W92862  12.481  28.861  17.403  0.0514  0.2466  0.0256
49847W        W92863   0.444   6.717  19.220  0.1237 -0.2211 -0.0036
49848W        W92864   9.127  24.269  17.477  0.1055  0.0233 -0.2448
49849W        W92865  23.540   2.404   4.168 -0.0058  0.1724 -0.1003
49850W        W92866  26.628   1.774  29.127  0.1360  0.0702  0.2806
49851W        W92867   8.868   4.502  22.245 -0.3320 -0.2565 -0.0607
49852W        W92868   5.232  33.171  24.889  0.2068  0.0611 -0.0475
49853W        W92869  17.366  24.837  25.704  0.1912  0.0197  0.0761
49854W        W92870   4.417  30.484  27.382  0.1994 -0.0084  0.2388
49855W        W92871  32.196   5.961  24.428  0.1248  0.4082 -0.0231
49856W        W92872  29.069   9.121  28.215  0.0475 -0.0227 -0.2166
49857W        W92873  12.373  29.132  22.685 -0.3732 -0.1974 -0.2990
49858W        W92874  26.114  16.410  17.581  0.4492 -0.1091  0.1112
49859W        W92875  34.321  22.232  24.345  0.1575 -0.1558  0.2998
49860W        W92876   4.718  12.327  20.160 -0.3387  0.1482  0.2889
49861W        W92877  33.651   7.442  19.336 -0.2688  0.0679 -0.0148
49862W        W92878   9.559   9.789  15.040  0.1072  0.2095  0.4420
49863W        W92879  15.187   6.311  16.071  0.3141 -0.3119 -0.0674
49864W        W92880   3.389  26.852  22.026  0.0456  0.0968 -0.1053
49865W        W92881  12.964  28.559  28.301  0.1157  0.1015  0.1475
49866W        W92882  21.241   4.384   2.182  0.0043  0.0014  0.1214
49867W        W92883  14.086  27.202  17.642 -0.0112 -0.1912 -0.0416
49868W        W92884  12.967  13.109  16.192 -0.0057  0.0752  0.0249
49869W        W92885  15.824   0.853  14.513  0.1217  0.3369 -0.1975
49870W        W92886  14.608  16.096  13.105  0.1758 -0.3533 -0.3355
49871W        W92887  15.394  20.965  26.663 -0.0629  0.1242  0.2818
49872W        W92888  33.955  16.448  19.869 -0.1765 -0.0369  0.0207
49873W        W92889  14.645  22.779  16.966 -0.1068  0.2680  0.1830
49874W        W92890  10.272  34.237  24.845  0.1772 -0.2229 -0.1260
49875W        W92891  13.314   2.537  26.394  0.2990 -0.2065  0.3789
49876W        W92892  12.101  27.424  21.995 -0.1903  0.0162  0.2012
49877W        W92893   8.443  26.686  15.536 -0.0975 -0.1244 -0.1271
49878W        W92894   0.587  30.156   5.535  0.0544 -0.2330 -0.0184
49879W        W92895  26.606   0.636  23.020  0.0925  0.1999 -0.2106
49880W        W92896   7.434  14.743  15.723  0.2152  0.2181  0.1345
49881W        W92897  11.694   3.403  14.897  0.1859 -0.1575  0.0063
49882W        W92898  15.648  27.443  28.911 -0.2118  0.0300  0.0067
49883W        W92899  15.139  24.683  19.448 -0.1940  0.0258  0.0810
49884W        W92900  31.513  21.198  21.584 -0.1846  0.0175 -0.2621
49885W        W92901  33.205  34.015  15.240  0.1845  0.0456 -0.0434
49886W        W92902  11.581  20.370  20.778 -0.1689 -0.0972  0.2247
49887W        W92903   6.042   7.249  22.214 -0.2252 -0.1535  0.3586
49888W        W92904   2.086  33.074  18.935  0.1571  0.1523  0.1078
49889W        W92905   7.795   6.240  15.420  0.2300  0.0319 -0.1846
49890W        W92906  20.757  31.046   5.270  0.0582 -0.1118  0.1727
49891W        W92907  10.043   8.262  14.056 -0.1696 -0.0251 -0.1278
49892W        W92908   5.278  17.494   7.076 -0.3012  0.1313  0.1828
49893W        W92909   2.222   9.632  16.376 -0.1678  0.3239  0.0299
49894W        W92910   7.683   5.130   0.142  0.0364 -0.1138 -0.1290
49895W        W92911  33.676  29.184   2.806 -0.4650 -0.2393 -0.1231
49896W        W92912  12.450  29.000   0.535  0.1518 -0.3561 -0.2179
49897W        W92913   7.800  10.247  22.122 -0.0161  0.0255 -0.1030
49898W        W92914   7.388   3.776   2.953 -0.1905 -0.0678  0.1417
49899W        W92915  28.675  28.896  17.014 -0.1139  0.0647 -0.0294
49900W        W92916   1.971  17.362  14.683  0.2567  0.2652  0.1544
49901W        W92917  16.797  17.028  22.188 -0.1697 -0.0194  0.1804
49902W        W92918  14.120  29.902  14.498 -0.1016 -0.0874  0.1848
49903W        W92919  31.444  29.728  25.990  0.0788 -0.2115 -0.2975
49904W        W92920  13.389  31.424  24.306  0.3796  0.3021  0.4884
49905W        W92921   8.242   6.183   1.640  0.0121 -0.0787 -0.1401
49906W        W92922  22.246  16.899   1.854  0.1154 -0.4837 -0.2473
49907W        W92923   1.886  29.893  16.221 -0.0763 -0.2063  0.0452
49908W        W92924  13.127   1.959   1.040  0.1013 -0.2559  0.0805
49909W        W92925  25.087  27.409   8.704  0.1606  0.2860 -0.2965
49910W        W92926  21.311   4.031  15.912  0.3763 -0.2226  0.0474
49911W        W92927  14.865   0.473  21.630  0.2649 -0.2305  0.1590
49912W        W92928  13.185  24.675  25.414 -0.4601  0.0561  0.1404
49913W        W92929  33.336  25.322  16.576 -0.2153 -0.1538  0.0044
49914W        W92930  18.207  28.765  23.174  0.2744 -0.0336  0.2749
49915W        W92931   7.727   5.214  23.752  0.0940  0.0271  0.1569
49916W        W92932   3.692  34.243  18.752 -0.1104 -0.3351 -0.0183
49917W        W92933  26.284   1.048  16.949  0.2198 -0.0390  0.6258
49918W        W92934   6.961  31.348  21.502  0.1658 -0.0885 -0.2497
49919W        W92935  13.159  27.744  14.989 -0.2293 -0.0215 -0.2198
49920W        W92936   2.566  12.509  20.493  0.0757 -0.2434 -0.0183
49921W        W92937  14.098  24.713  20.715 -0.0881  0.1815  0.0016
49922W        W92938  19.195  29.853  22.572 -0.0281  0.2922  0.1519
49923W        W92939  27.427  29.756  17.047 -0.0973 -0.1759  0.0578
49924W        W92940   3.858  14.081  19.253 -0.0307  0.0357  0.0346
49925W        W92941  15.469  22.117  23.804  0.3195  0.0358  0.0582
49926W        W92942   7.771  27.771   1.109  0.1339 -0.0947  0.2474
49927W        W92943  21.235  19.807   6.427  0.0362 -0.0448 -0.0226
49928W        W92944  11.255  25.009  18.754  0.2296  0.1213 -0.0350
49929W        W92945   8.151  18.512   6.714  0.2028  0.1562 -0.0848
49930W        W92946  28.822  12.450   8.478  0.1188 -0.1640  0.1776
49931W        W92947   4.727  25.668  22.451  0.0132 -0.1026 -0.0484
49932W        W92948  22.210  16.143  14.867  0.0825  0.1523 -0.1401
49933W        W92949   8.570   1.849  19.179  0.1249  0.2156  0.0308
49934W        W92950  15.944  17.344  12.189 -0.0409  0.1380  0.0427
49935W        W92951  20.118  12.512  22.406  0.0859 -0.1027 -0.1574
49936W        W92952   0.827  21.334  17.682 -0.3818  0.1914 -0.1713
49937W        W92953  33.426  17.386   0.597  0.2483  0.1005  0.3008
49938W        W92954  29.383  27.609  28.207  0.2321  0.3658 -0.1174
49939W        W92955  34.528  17.100  23.577 -0.1261  0.1477 -0.1307
49940W        W92956  14.728  26.565  17.002  0.2906 -0.0081 -0.1878
49941W        W92957  25.357  13.489  24.359 -0.0634 -0.0317  0.1814
49942W        W92958  33.857  11.292  17.558  0.0735  0.0111  0.0063
49943W        W92959   4.320  27.941   6.775 -0.1967  0.3702 -0.2330
49944W        W92960  15.755   3.700  23.993 -0.5322  0.3039  0.0333
49945W        W92961  19.171  32.416  19.493 -0.2098  0.2976  0.0176
49946W        W92962  13.488   5.909  22.654 -0.2750 -0.2260  0.2129
49947W        W92963   0.543  13.919  23.676  0.0510 -0.0795  0.0539
49948W        W92964  15.235   5.844   5.241 -0.1295  0.1187  0.1547
49949W        W92965   9.187  21.713  12.358 -0.0408  0.2856  0.0894
49950W        W92966   3.621  33.261  27.059 -0.0872 -0.1699 -0.2706
49951W        W92967  18.889  22.754  26.267 -0.1070  0.1288  0.0711
49952W        W92968  13.039  29.783  26.274  0.3375 -0.1133 -0.2213
49953W        W92969  20.587  17.968  19.971  0.1697  0.2145  0.0723
49954W        W92970   2.038  26.947  21.388  0.1251 -0.0814 -0.1761
49955W        W92971  14.405  33.514  16.912  0.0330  0.0665 -0.1165
49956W        W92972  34.643   3.162  18.017 -0.0488 -0.1452 -0.1582
49957W        W92973  11.100  25.494  14.438  0.4895 -0.0850  0.1715
49958W        W92974  17.803  25.862  20.962  0.2473  0.1065 -0.0540
49959W        W92975  27.184  23.796  16.432  0.1341 -0.0104 -0.0553
49960W        W92976   1.994  29.686  27.438 -0.0211  0.1238 -0.0108
49961W        W92977   6.836  11.912  16.544  0.0506  0.0550 -0.0330
49962W        W92978  23.795  29.413  23.936  0.4029 -0.0897  0.2284
49963W        W92979   1.909  29.813  26.066 -0.3281 -0.2321  0.4064
49964W        W92980  31.471  33.606   5.817 -0.1067 -0.3091 -0.2456
49965W        W92981   1.183   8.681  24.313  0.2121  0.0433  0.1659
49966W        W92982   3.924  22.806  19.436  0.1486 -0.1240 -0.1381
49967W        W92983  22.035   4.836  26.304  0.3946 -0.1516  0.0224
49968W        W92984  15.647  10.400  27.056 -0.1755 -0.2595 -0.0256
49969W        W92985  11.079  31.125  26.584  0.3541 -0.2113 -0.1247
49970W        W92986  29.255  22.951  22.286 -0.0413  0.4493 -0.1296
49971W        W92987  32.068  17.741  16.009  0.0361 -0.0935 -0.0513
49972W        W92988   3.970   0.994  14.420 -0.0505 -0.0898  0.1397
49973W        W92989  14.381  33.805  21.387  0.0732  0.1621 -0.2746
49974W        W92990   9.896   2.580  26.907  0.0291  0.2762  0.0643
49975W        W92991  11.655  19.647  26.099 -0.4032  0.1003 -0.1003
49976W        W92992   6.190  19.438  16.432  0.0901 -0.1087 -0.3097
49977W        W92993   8.117  34.353  19.943  0.1033 -0.1830 -0.0830
49978W        W92994  21.098  24.148  21.015  0.0281  0.0942 -0.1357
49979W        W92995   9.726   9.627  26.314 -0.4366  0.0912 -0.3698
49980W        W92996   3.208  24.911  17.096 -0.2988  0.3207 -0.1122
49981W        W92997  30.831  17.266  15.693  0.1592  0.0057 -0.1800
49982W        W92998   9.963   9.721  17.212  0.3813  0.0445  0.1882
49983W        W92999  14.549  16.861  12.279 -0.2427  0.2113  0.2788
49984W        W93000  13.538   2.313  23.216 -0.1996 -0.0103  0.2070
49985W        W93001   6.736   5.113   9.475 -0.0473 -0.2936  0.0629
49986W        W93002   4.453  32.536   3.884 -0.3699  0.4202  0.0607
49987W        W93003  25.414  26.697  23.172 -0.0843 -0.1680 -0.1900
49988W        W93004  31.019   2.799  15.649 -0.2233  0.0098  0.0958
49989W        W93005  32.405  13.868   5.136 -0.2155  0.0965 -0.2413
49990W        W93006  23.183  22.449  17.554  0.0748  0.2234  0.2632
49991W        W93007  12.882  34.691  27.242 -0.0600 -0.1564 -0.2869
49992W        W93008   8.578   5.668  25.812  0.1524  0.1470 -0.0418
49993W        W93009  15.076  27.143   1.543  0.0225  0.1583  0.0313
49994W        W93010  12.552  17.021  28.010  0.3086 -0.0995  0.1400
49995W        W93011   7.635  23.523  16.734 -0.0986 -0.1691  0.3836
49996W        W93012   5.345  25.443   7.722 -0.0140  0.3908  0.1007
49997W        W93013  16.893   8.587  15.080 -0.0693 -0.2025 -0.2240
49998W        W93014  16.910  30.167  27.943 -0.0198  0.1742  0.0800
49999W        W93015  20.343  25.434   6.290 -0.0180 -0.2506  0.1852
50000W        W93016  32.922  10.545  18.370 -0.0078  0.2931 -0.0015
50001W        W93017   2.131  32.185  20.325  0.1289  0.0590 -0.0694
50002W        W93018  22.789   8.931  17.515 -0.4411  0.1285 -0.1185
50003W        W93019  14.141  16.930   0.995  0.0765 -0.1047 -0.0019
50004W        W93020   9.140  27.289  20.953  0.2115  0.0660  0.1814
50005W        W93021  12.005   0.441  25.430  0.1690 -0.2338 -0.1110
50006W        W93022  10.398  15.522  13.199  0.2869  0.0029  0.0272
50007W        W93023   9.151  28.491  20.516  0.0108  0.0175 -0.0974
50008W        W93024  19.447  29.291  14.835 -0.2254  0.0863 -0.2719
50009W        W93025   8.494   3.428  27.799  0.1566  0.1250 -0.2938
50010W        W93026  16.540  28.610  15.883  0.0492 -0.0958 -0.0358
50011W        W93027   2.798  32.962  17.642 -0.1845  0.1100  0.1759
50012W        W93028  32.113  29.609   7.296 -0.0909  0.1060  0.4046
50013W        W93029  33.022  34.637   9.792 -0.1588 -0.0609  0.1740
50014W        W93030   2.707  28.689  22.359  0.0350  0.0165 -0.0804
50015W        W93031   2.120   5.138   7.702  0.0520 -0.1787 -0.1898
50016W        W93032  23.210  18.594  14.165 -0.0645  0.0675  0.3374
50017W        W93033   6.818   7.083  23.399  0.1291  0.2444  0.1712
50018W        W93034  28.816  22.064   1.175  0.2754  0.1439 -0.3033
50019W        W93035   8.881  27.678  14.409 -0.1104  0.1250 -0.0407
50020W        W93036  19.427   0.112  14.834  0.0038 -0.2431 -0.1026
50021W        W93037   4.403  33.761  27.666  0.2541 -0.0896 -0.0744
50022W        W93038  13.914  22.288  24.333 -0.0191  0.0596  0.2914
50023W        W93039  10.140  29.236  19.913  0.4699  0.3549  0.0066
50024W        W93040   6.086  26.069  17.801 -0.0914  0.0933  0.1941
50025W        W93041   2.461   0.755  17.760 -0.0089  0.4217 -0.1419
50026W        W93042  17.137  29.752  22.072 -0.0424 -0.0791  0.2533
50027W        W93043  27.546  10.013   3.065  0.0253 -0.0097 -0.0976
50028W        W93044   6.953  30.091  20.916  0.0829 -0.0877  0.0132
50029W        W93045   7.200   0.303  27.718  0.1411 -0.4339  0.5041
50030W        W93046   2.658   1.905  16.688  0.0248  0.1398  0.1710
50031W        W93047  15.503  32.177  19.821  0.1308 -0.3379  0.0171
50032W        W93048   5.492  10.210   4.160 -0.0472  0.1205  0.3154
50033W        W93049   4.197  28.304  29.243  0.0617 -0.0509 -0.1988
50034W        W93050  19.202  19.609  15.814  0.1981 -0.1492  0.1169
50035W        W93051  12.212  32.910  16.282 -0.3333  0.0593  0.3044
50036W        W93052   8.764  25.137   4.799 -0.0812  0.2442  0.0353
50037W        W93053   0.544  31.842  26.515  0.0376 -0.0745 -0.0447
50038W        W93054   5.983   5.157  21.166 -0.0670 -0.2080 -0.2655
50039W        W93055  21.153   9.635  13.904  0.0094 -0.3060  0.0038
50040W        W93056  21.524  24.699   1.408 -0.0030  0.1373 -0.1318
50041W        W93057  14.876  30.638  26.267  0.1574 -0.0145 -0.1863
50042W        W93058   2.699   7.634  14.197 -0.4551  0.1959  0.1022
50043W        W93059  29.085  11.497  28.050 -0.1310 -0.3293 -0.2083
50044W        W93060  11.368   1.686   6.816 -0.0894  0.1084  0.1729
50045W        W93061  19.059  22.359  20.160  0.1869  0.0436  0.0715
50046W        W93062  10.135  11.818  22.028  0.2031 -0.3456  0.0655
50047W        W93063  33.228   2.086   7.032  0.0235 -0.1329 -0.0373
50048W        W93064  31.096   0.984  15.493 -0.0372 -0.2614 -0.3947
50049W        W93065  12.306   8.009  14.709  0.0546 -0.1954  0.3549
50050W        W93066  26.845  22.431  23.888  0.1693 -0.0311 -0.1780
50051W        W93067   9.477  27.676  21.354 -0.2072  0.1559  0.3455
50052W        W93068  21.869  15.663  17.971 -0.3610 -0.0885 -0.3137
50053W        W93069  33.969  12.902  15.264  0.2874  0.1808 -0.2991
50054W        W93070  32.132  34.282   7.345 -0.0873 -0.0714  0.2282
50055W        W93071   8.999  27.662  27.364  0.0468 -0.1034  0.1345
50056W        W93072  10.311  20.834  16.698  0.0432 -0.0501  0.1003
50057W        W93073  24.883  18.484  26.377 -0.0699 -0.1465 -0.1461
50058W        W93074   9.673  10.767  15.845 -0.0915 -0.1652  0.1086
50059W        W93075  17.236  30.817  15.607  0.2079 -0.1578 -0.1719
50060W        W93076  10.776  12.808   6.418 -0.1057 -0.1438 -0.1347
50061W        W93077   3.355  23.422  20.349 -0.5709 -0.0452  0.1739
50062W        W93078  13.107  28.388  28.822  0.1491  0.0615 -0.1180
50063W        W93079   4.190  21.478  22.132 -0.2876 -0.0869 -0.1069
50064W        W93080  11.776  16.886  14.562  0.0233  0.1506  0.1589
50065W        W93081   0.736  25.978  25.855 -0.0559  0.0364  0.1160
50066W        W93082  12.599  31.045   0.522 -0.2488 -0.2590  0.1241
50067W        W93083  29.175   0.948   4.757 -0.0779  0.1426  0.2130
50068W        W93084  15.758  18.610  13.969  0.1758 -0.3750 -0.2354
50069W        W93085   0.937  25.211  26.311  0.1998  0.3054 -0.2298
50070W        W93086   9.013   0.854   1.457 -0.2654  0.0934 -0.0423
50071W        W93087   8.895  33.431  28.240 -0.1227 -0.3879  0.0777
50072W        W93088   9.329  25.714  21.090  0.2699 -0.1953  0.1727
50073W        W93089   0.303  32.201   6.217 -0.0086 -0.0238  0.0349
50074W        W93090  29.174  29.508  15.964  0.0293 -0.1420 -0.2230
50075W        W93091   3.351  28.349  14.237 -0.1902  0.1171 -0.0287
50076W        W93092  23.699   5.031  29.295 -0.0005 -0.3811  0.0833
50077W        W93093   8.490   4.227  22.565 -0.1080  0.1500  0.5792
50078W        W93094  12.298  21.927  12.870 -0.1207  0.2671  0.0623
50079W        W93095  13.488  22.005  26.672  0.1461 -0.0276  0.1897
50080W        W93096   2.812   3.516  17.141  0.2879 -0.1418 -0.0566
50081W        W93097   7.260   4.812  22.084 -0.2534  0.0233  0.1649
50082W        W93098  17.480  34.128  10.389  0.1921  0.1095  0.1129
50083W        W93099  33.502  34.505  19.061  0.3462 -0.4113  0.2833
50084W        W93100  10.830  21.292  14.825  0.2956  0.0976 -0.0332
50085W        W93101  34.525   5.190  27.867 -0.0435 -0.2930 -0.1948
50086W        W93102  18.183  29.631  15.139  0.0632  0.1423  0.0112
50087W        W93103   7.312  25.939  26.446 -0.1569 -0.1378 -0.1325
50088W        W93104  14.875   6.069   6.908  0.0014  0.1855  0.0692
50089W        W93105  21.898  32.465  17.566 -0.1693  0.0276 -0.2325
50090W        W93106  13.947  24.799   7.292  0.1381  0.0628 -0.0451
50091W        W93107   6.297  15.337   2.941  0.2234  0.2258 -0.2780
50092W        W93108   6.823  21.453   4.240  0.1114 -0.1337  0.2137
50093W        W93109   4.719   1.828   5.415 -0.0852 -0.0238  0.2881
50094W        W93110  20.887  27.163  25.163 -0.0744 -0.1328  0.0263
50095W        W93111  14.647   4.580  27.323 -0.0212 -0.0218 -0.3205
50096W        W93112  15.696  32.378  23.099  0.2397 -0.2919  0.2883
50097W        W93113   9.857  33.380  24.203  0.2513 -0.1262  0.0094
50098W        W93114  32.082  23.749  23.946 -0.1254 -0.0889  0.0883
50099W        W93115   3.588  32.799  15.044 -0.0016  0.0418  0.1649
50100W        W93116   9.389  23.450  14.939  0.0864  0.2288 -0.0583
50101W        W93117  10.720  16.088   5.047  0.2150  0.0696  0.0315
50102W        W93118  14.139   1.417  21.628  0.1527  0.0260 -0.0053
50103W        W93119   4.511  34.561  24.937  0.2563  0.0105  0.2071
50104W        W93120   1.434   0.697  14.635 -0.2756  0.0793 -0.0705
50105W        W93121   6.106  34.599  18.314  0.2253 -0.2158  0.0326
50106W        W93122   3.837   1.480  24.235  0.4596  0.1195 -0.1137
50107W        W93123  12.524  31.118   1.113 -0.1558  0.0591  0.1836
50108W        W93124   9.642  24.217   4.340 -0.1756 -0.0405  0.1221
50109W        W93125   3.243  25.235  24.056 -0.1074 -0.1420  0.0163
50110W        W93126   9.943  12.857   1.125 -0.0307  0.0303 -0.0460
50111W        W93127  28.266  27.179  26.656 -0.0108 -0.2114  0.0770
50112W        W93128  27.915   2.239   1.733 -0.1074 -0.2152 -0.0204
50113W        W93129  33.693  28.205  20.604  0.1696 -0.0726 -0.3232
50114W        W93130  12.524  33.508  29.026  0.1400 -0.1887  0.0311
50115W        W93131  11.480  21.812   1.984 -0.0213  0.2671 -0.1663
50116W        W93132  12.379   7.937  20.203  0.0322  0.1525 -0.2319
50117W        W93133  15.152  33.933   9.877  0.0972  0.0823 -0.0683
50118W        W93134  18.469  28.179  17.122 -0.1829 -0.1517 -0.2351
50119W        W93135  18.748   2.514  23.800 -0.2683 -0.0220  0.0125
50120W        W93136  25.541   0.114   8.764 -0.0017  0.1635  0.3589
50121W        W93137  11.013  25.703  21.044 -0.1517  0.3654  0.3374
50122W        W93138   8.927   7.468  25.876  0.1949 -0.2481 -0.1335
50123W        W93139   5.622  14.753   3.671  0.0571  0.2889  0.2939
50124W        W93140   0.691  11.934  19.120 -0.1116 -0.2546 -0.0973
50125W        W93141  13.030   8.524   2.380 -0.1051 -0.3217  0.0750
50126W        W93142  10.716  26.582   5.354 -0.1354 -0.2589 -0.4184
50127W        W93143  25.574  12.220  21.571  0.0860 -0.0699  0.0230
50128W        W93144  13.323  29.138  21.755 -0.2398  0.1113 -0.0804
50129W        W93145   9.867  23.978  22.759 -0.3243 -0.0591  0.2978
50130W        W93146  15.755   7.951  14.866  0.2563  0.1417 -0.2628
50131W        W93147  17.377   1.967   0.854  0.1210 -0.2692 -0.2197
50132W        W93148   9.252  32.664  27.267 -0.0171  0.1510  0.0749
50133W        W93149   5.573  28.781  24.237 -0.1248  0.4375 -0.1579
50134W        W93150  13.450  30.139  17.972 -0.1322  0.3739  0.0471
50135W        W93151   9.231   7.434  25.528 -0.1249 -0.3069  0.0267
50136W        W93152   7.050  32.772  20.125 -0.1756 -0.3536 -0.0426
50137W        W93153  20.848   4.179  25.604 -0.1081  0.0374  0.0739
50138W        W93154  23.970  25.979  23.044 -0.0137  0.0825 -0.1103
50139W        W93155  14.346  22.406  23.994  0.2282 -0.1771 -0.0824
50140W        W93156   8.821  33.774   0.737  0.0954  0.1612  0.0007
50141W        W93157  17.113  30.565   2.835  0.1172 -0.1092  0.0378
50142W        W93158   3.287  18.663  26.579 -0.2808 -0.1646 -0.2937
50143W        W93159   3.491  28.679  22.762 -0.1055 -0.0974 -0.1674
50144W        W93160  21.205  30.745  16.858 -0.0989  0.0517 -0.1510
50145W        W93161  10.081  25.455  22.233 -0.1574 -0.3230  0.2475
50146W        W93162  15.016   3.807  15.391  0.1838 -0.1273 -0.1535
50147W        W93163  18.784  31.396  21.821 -0.2928  0.1531  0.0243
50148W        W93164  25.431  32.879  22.171  0.0829  0.0577  0.2083
50149W        W93165  13.089  15.768  15.559  0.0506  0.1146  0.5057
50150W        W93166   3.778  24.650  16.824  0.1695 -0.0073  0.0162
50151W        W93167  19.013   7.836  25.710  0.3518  0.3245 -0.0617
50152W        W93168   9.385  17.697   4.012  0.2503  0.0987  0.0038
50153W        W93169   0.329  31.032   0.227  0.0145 -0.0668 -0.2538
50154W        W93170   3.108  22.943  16.193 -0.4398 -0.2313  0.0266
50155W        W93171   4.913   1.982  23.642 -0.1039 -0.0793 -0.3748
50156W        W93172  31.726  33.786  22.331  0.0067  0.4005  0.1288
50157W        W93173  29.570  25.254  11.241 -0.0048  0.0560  0.0477
50158W        W93174  18.930   7.016  27.231  0.0274  0.1133  0.0601
50159W        W93175  32.524   1.048  20.857 -0.0255 -0.1320  0.0667
50160W        W93176   3.543   6.065  22.208  0.4096 -0.2379 -0.0238
50161W        W93177  18.259   0.203   7.571 -0.0529  0.3103 -0.0915
50162W        W93178   1.971  25.179  14.614 -0.0079  0.2983 -0.1457
50163W        W93179  27.747   6.308   3.352  0.2434  0.1178 -0.3500
50164W        W93180  32.328  31.367   1.309  0.1375 -0.1192 -0.1725
50165W        W93181  21.301  24.230   1.661  0.1801  0.1668 -0.1202
50166W        W93182   2.376  22.999  23.181 -0.2978 -0.3373  0.0823
50167W        W93183  28.143  20.957  28.143  0.2296  0.1050 -0.0521
50168W        W93184  30.916  17.195  27.366  0.0707 -0.2503  0.1916
50169W        W93185  12.219   0.121  23.171 -0.1679 -0.1990  0.2206
50170W        W93186  17.871   0.690  22.971 -0.2291 -0.0336 -0.0136
50171W        W93187  12.145  12.988  20.578 -0.2209 -0.2334  0.0291
50172W        W93188   6.505  14.039  20.854  0.3211 -0.2071  0.0990
50173W        W93189   6.566  18.643  29.263  0.4172 -0.0041  0.2393
50174W        W93190   5.445   1.580  18.199  0.0925  0.0112 -0.2203
50175W        W93191  29.600  26.286   9.973  0.5367  0.1000 -0.1768
50176W        W93192   3.005  32.813   4.239 -0.2722 -0.1275  0.0936
50177W        W93193  11.056  30.095  14.742 -0.1699  0.3711 -0.2762
50178W        W93194  13.174  29.434  17.911 -0.0535 -0.1798  0.0224
50179W        W93195   6.076   0.601  28.533 -0.1367 -0.0643  0.3562
50180W        W93196  11.892  24.108  21.826 -0.1095 -0.3105  0.1151
50181W        W93197  11.781   5.455  24.153 -0.2018 -0.0073 -0.1837
50182W        W93198   9.228  32.593  15.178 -0.3045 -0.1355  0.0384
50183W        W93199  12.237  33.364   1.669  0.3767 -0.0228  0.1305
50184W        W93200   4.902  27.794  18.504 -0.1930 -0.2300  0.0180
50185W        W93201  22.799  24.867  15.392 -0.3063 -0.0390  0.2296
50186W        W93202  28.537  31.776  20.611 -0.0559  0.0920 -0.3555
50187W        W93203  30.612  28.753  22.522  0.1814 -0.1090  0.1841
50188W        W93204  13.163  23.201   2.357 -0.3297 -0.1171 -0.0337
50189W        W93205  11.042  22.366  22.897 -0.1629  0.2960  0.5682
50190W        W93206  17.569   5.159  21.797  0.0140 -0.4489  0.0059
50191W        W93207  25.466  22.410  22.710  0.0120  0.0698 -0.2691
50192W        W93208  33.524   4.578  27.459 -0.1110  0.0028 -0.2213
50193W        W93209   5.706  26.501  24.162  0.0669 -0.1139  0.0923
50194W        W93210  24.264  23.290  18.523  0.0239 -0.2303 -0.3186
50195W        W93211  19.529  28.019  22.845 -0.0237 -0.0411  0.4223
50196W        W93212   7.728  29.794   7.840  0.3226  0.0387 -0.3212
50197W        W93213  33.186  29.902   3.025 -0.3342  0.2244  0.1128
50198W        W93214  16.248  29.372  16.103 -0.0191  0.2616  0.0491
50199W        W93215  15.877  10.883  14.627 -0.1326 -0.0217  0.3570
50200W        W93216   0.118  20.654  22.620 -0.1817 -0.0125  0.1211
50201W        W93217  21.830   8.278   6.908 -0.0909  0.1246  0.0428
50202W        W93218   9.400   3.636   5.888 -0.0107  0.2829 -0.0223
50203W        W93219   8.427   1.451  23.347 -0.0828 -0.0784  0.0709
50204W        W93220  29.409  31.086  28.569  0.1029  0.3256 -0.1552
50205W        W93221  11.934  15.668   2.727 -0.2532 -0.1896  0.0161
50206W        W93222   6.759  28.051  20.468 -0.1227 -0.1737  0.0650
50207W        W93223  10.691   0.188  18.972 -0.2745 -0.1846  0.0070
50208W        W93224  19.853  29.658   3.241  0.0346  0.2023  0.2473
50209W        W93225   9.900  12.763  25.775 -0.0280  0.0216 -0.0380
50210W        W93226  10.068   4.613  17.857  0.3046  0.0447 -0.1537
50211W        W93227  18.736   5.254  20.689  0.1060 -0.2264  0.1913
50212W        W93228  17.988  21.416  22.153 -0.1987  0.0711 -0.1529
50213W        W93229  14.578  28.813  26.567 -0.0383  0.2208  0.0802
50214W        W93230  10.271  22.315  28.275 -0.0230 -0.1049 -0.0661
50215W        W93231   6.409  20.550  24.914 -0.0160  0.1216 -0.0162
50216W        W93232  24.341  32.018  28.581  0.1979  0.0982  0.1662
50217W        W93233  12.419  28.490  15.318 -0.1317  0.3727 -0.0115
50218W        W93234  10.738  20.119  19.609 -0.0257  0.1078  0.3193
50219W        W93235   4.610  31.366  16.417 -0.0419  0.1140  0.0029
50220W        W93236   8.370   1.529  22.084 -0.0173 -0.2649 -0.1135
50221W        W93237   7.111  13.123  21.967 -0.1102 -0.0327  0.0449
50222W        W93238  10.249  29.256  22.460  0.0530 -0.0909  0.0806
50223W        W93239  12.628  27.115  21.827 -0.0026  0.3016 -0.1690
50224W        W93240   3.349  29.220  20.985 -0.1398 -0.2490 -0.2212
50225W        W93241  29.772   6.795  21.106 -0.0602  0.0808 -0.0141
50226W        W93242   1.439   3.887  15.200  0.2729  0.3707 -0.1721
50227W        W93243  32.138  11.326  20.883 -0.1022  0.2573  0.2949
50228W        W93244   3.827   4.862  26.758  0.1954  0.0535 -0.0516
50229W        W93245  18.367  33.472   3.488 -0.2036 -0.0763  0.0480
50230W        W93246  33.179  14.394   1.584 -0.1736 -0.1715 -0.2292
50231W        W93247  11.694  12.851  25.081  0.1118 -0.4102  0.0539
50232W        W93248  14.502   7.584  15.076  0.2270  0.1633  0.2333
50233W        W93249   7.774  15.937  22.453 -0.1699  0.0118 -0.0877
50234W        W93250  29.461  26.065  28.192  0.1200 -0.1095 -0.0779
50235W        W93251  12.965   2.183   2.911 -0.1439  0.2611  0.1103
50236W        W93252  21.206  34.683  10.861 -0.2701  0.1426 -0.1528
50237W        W93253  20.188   1.021   0.914 -0.0165  0.2686  0.1351
50238W        W93254  32.733  20.692   6.937  0.1921 -0.0977  0.4410
50239W        W93255  17.288   0.199  17.343  0.0826 -0.0719 -0.1194
50240W        W93256   4.028  20.564  16.759 -0.0414 -0.0180 -0.0970
50241W        W93257  11.719  32.748  18.911  0.2104  0.0825  0.1060
50242W        W93258   2.105  18.770   0.546 -0.0268  0.0814 -0.3833
50243W        W93259  17.303   1.174  17.835 -0.0658 -0.2509  0.0539
50244W        W93260   7.705  29.391   0.993  0.1499  0.2105  0.0172
50245W        W93261  13.974  12.317  25.433  0.2095 -0.1128 -0.1220
50246W        W93262  20.548  20.052  23.032 -0.0061 -0.0816 -0.1112
50247W        W93263  34.374   2.355  18.205  0.0669  0.3154  0.1097
50248W        W93264  28.655  18.343  27.558  0.1776  0.0126  0.2650
50249W        W93265  15.745   6.193   9.303 -0.1386 -0.2159 -0.1303
50250W        W93266  25.553  20.706  17.706 -0.0314  0.3325  0.2253
50251W        W93267  25.198  18.807  27.766  0.1170  0.1236  0.0474
50252W        W93268  14.503  31.749  17.216 -0.2561 -0.0433 -0.0661
50253W        W93269  12.161  22.329  15.396 -0.3072 -0.2198  0.1837
50254W        W93270  13.960   0.688   9.911 -0.0673 -0.0138 -0.1080
50255W        W93271  17.413  21.092  11.937  0.2152  0.0392  0.1382
50256W        W93272   7.147  32.142  15.616 -0.4169  0.2549  0.0517
50257W        W93273  15.734  18.122  27.720  0.2254  0.1274 -0.0796
50258W        W93274   9.048   5.994  19.340  0.1106  0.2161 -0.0969
50259W        W93275  23.696  29.389   6.042  0.0287 -0.2089 -0.0720
50260W        W93276  14.329  26.958  13.788  0.1061  0.1334 -0.0528
50261W        W93277  19.101  21.601  24.045  0.2323 -0.2622  0.0479
50262W        W93278   6.400   0.100  24.821 -0.1205  0.0929  0.0455
50263W        W93279  34.145   5.734  20.673  0.1978 -0.1436  0.1169
50264W        W93280  32.396  18.878   3.655 -0.1060  0.1558  0.4893
50265W        W93281   2.251   7.952  22.737  0.0232 -0.2166  0.0396
50266W        W93282   0.531  26.327   4.099 -0.0142 -0.1401  0.2198
50267W        W93283   1.613   6.640   2.544 -0.1670  0.4195  0.4621
50268W        W93284  33.202  33.198   4.853 -0.1275  0.1991  0.3751
50269W        W93285  14.492  19.280   2.904  0.0343  0.1939  0.2840
50270W        W93286   7.094   6.101  15.157 -0.2654 -0.2731  0.1313
50271W        W93287   0.728   1.069  23.536 -0.2214  0.1210 -0.1850
50272W        W93288  30.094  28.641  10.753  0.1631 -0.0436 -0.3400
50273W        W93289  11.006  23.724   4.217  0.2706 -0.0270  0.2122
50274W        W93290  10.661   3.061   6.393 -0.3321 -0.1403 -0.4918
50275W        W93291  29.567  30.105   7.968 -0.1668 -0.2130 -0.2414
50276W        W93292   4.218   9.442   5.533  0.2385  0.0155 -0.4955
50277W        W93293  24.890  20.056  26.249 -0.1375 -0.1302 -0.1714
50278W        W93294  13.338  22.612  19.605  0.1844 -0.2249  0.0652
50279W        W93295  26.788  31.119   3.725  0.2130 -0.1476 -0.3784
50280W        W93296  33.537  27.250  27.639  0.1764  0.1167 -0.0727
50281W        W93297  14.935   4.632   8.753 -0.3242 -0.0616  0.1942
50282W        W93298  34.162  14.806  19.266  0.0303 -0.0295 -0.1689
50283W        W93299  25.724  30.004  27.778 -0.0452  0.0060  0.0187
50284W        W93300   4.799  24.379   5.086 -0.1043 -0.1531  0.0518
50285W        W93301  19.052   5.457  26.853  0.0272  0.2125  0.0369
50286W        W93302   8.486   1.371  25.543 -0.1794 -0.2953 -0.3174
50287W        W93303   1.585   8.440  16.648  0.1836 -0.2337 -0.0590
50288W        W93304   4.461  10.808   9.171  0.0368 -0.0424 -0.1895
50289W        W93305   0.997  23.029   2.070 -0.4980  0.4245  0.0870
50290W        W93306   0.502  23.154  23.719  0.1639  0.0695  0.0575
50291W        W93307   8.253   5.930  25.413  0.2594 -0.0293  0.3977
50292W        W93308   5.492  23.104  18.923  0.0223 -0.3112 -0.1168
50293W        W93309  23.513  34.110  25.274  0.2981  0.0347 -0.0237
50294W        W93310   6.970  29.137  27.138  0.0258  0.0637  0.0096
50295W        W93311  29.561  33.585  24.540  0.0198  0.0301 -0.1324
50296W        W93312   2.731  18.084  28.105  0.0999 -0.1147  0.0093
50297W        W93313  30.739   1.432  10.466  0.0939 -0.2387  0.1526
50298W        W93314  13.695  23.240  17.284 -0.3427 -0.1672  0.1999
50299W        W93315   4.347   2.054  20.921 -0.1137  0.5309  0.0527
50300W        W93316  13.093  29.502   1.176  0.0606  0.2423  0.0523
50301W        W93317  27.887  20.425  10.003 -0.1600 -0.0621  0.0686
50302W        W93318  33.629  15.156   0.682 -0.0863  0.0644  0.0492
50303W        W93319  27.995   1.420  23.899 -0.0994 -0.1119 -0.4560
50304W        W93320  14.454  23.716  15.504  0.1065  0.0713 -0.0776
50305W        W93321  20.918  24.034   5.235  0.1239  0.0644 -0.0377
50306W        W93322  30.094   1.507  15.432 -0.2816 -0.1297  0.2310
50307W        W93323  15.473  33.502   0.856  0.0733 -0.0064  0.1344
50308W        W93324  16.101  15.712   2.377 -0.2465 -0.1597 -0.0007
50309W        W93325   2.798   6.289   1.831  0.1147 -0.2927 -0.0953
50310W        W93326   8.426  10.367   7.809 -0.3256  0.1209 -0.0809
50311W        W93327   4.858  20.880   4.022 -0.0054  0.0990  0.3022
50312W        W93328  14.341  28.615   3.066 -0.0834  0.4861 -0.1164
50313W        W93329  23.218  26.094  25.350 -0.2328 -0.0924  0.2726
50314W        W93330   3.043   1.251  23.202 -0.5005 -0.2008  0.0534
50315W        W93331   0.857  33.972  21.907  0.1131  0.1580 -0.1159
50316W        W93332  11.820  19.504  25.085  0.0317 -0.1794  0.2792
50317W        W93333  15.010   4.174  23.412  0.3184 -0.0646  0.1604
50318W        W93334  10.408  26.598  22.396 -0.3473 -0.0777 -0.1684
50319W        W93335  20.770  21.821  26.198 -0.1408  0.1083  0.1132
50320W        W93336  17.328  29.197  27.770  0.1135  0.2057 -0.3375
50321W        W93337  33.197  15.950   8.291 -0.1323 -0.3390  0.0305
50322W        W93338  18.453  32.236  23.059 -0.2245 -0.0653  0.1191
50323W        W93339   5.741  26.851  19.590  0.0137 -0.0696  0.0241
50324W        W93340  11.687  26.812  21.387 -0.0736  0.0583  0.0258
50325W        W93341   2.078  34.089  27.584  0.0474 -0.0310  0.1718
50326W        W93342  33.882  30.167  21.402 -0.0394 -0.2941 -0.1211
50327W        W93343  30.071  16.184  25.821 -0.0519  0.4312 -0.0771
50328W        W93344   4.146  30.337   8.209 -0.0132 -0.1884  0.0071
50329W        W93345   3.770  33.347  15.738  0.1118  0.2980 -0.4608
50330W        W93346  26.257  25.182  21.569 -0.0269 -0.3728 -0.1474
50331W        W93347  32.444  23.643   3.723 -0.0585 -0.0342  0.1492
50332W        W93348  23.948  12.608  20.977  0.1933 -0.1482 -0.1072
50333W        W93349  15.925  32.561  20.439 -0.1049  0.2471  0.0221
50334W        W93350   3.336  22.491   0.686 -0.0565  0.1822  0.0660
50335W        W93351   0.765  30.787  20.221 -0.0759  0.0938 -0.2094
50336W        W93352  11.305  33.817   2.621 -0.0572 -0.0384 -0.2168
50337W        W93353  34.571  18.782   0.849 -0.0595  0.2174  0.0600
50338W        W93354   9.077  22.762  14.634  0.2062 -0.3270 -0.0505
50339W        W93355  14.127   5.089  22.405 -0.0747  0.1594 -0.0948
50340W        W93356  10.331   3.709  17.423  0.1831  0.0877  0.0309
50341W        W93357  26.981  28.906   2.430  0.5699 -0.0595 -0.3391
50342W        W93358   6.693   5.546  26.457 -0.0714  0.0900  0.0411
50343W        W93359  24.078  22.864  21.949 -0.0535  0.0128 -0.2096
50344W        W93360   3.860  25.006  20.714  0.0197 -0.2431 -0.0538
50345W        W93361  13.833  31.779  22.846  0.1177 -0.2305 -0.0797
50346W        W93362  12.093   4.612  22.110  0.2221 -0.5209 -0.0184
50347W        W93363  10.908  25.203   6.739 -0.1592 -0.2491 -0.2216
50348W        W93364  12.457  11.031   2.791  0.2966 -0.2744 -0.1625
50349W        W93365  13.393  27.111  14.456  0.1277  0.2183  0.0588
50350W        W93366   2.404  32.813  18.657 -0.0269  0.0367  0.2172
50351W        W93367   6.922   5.254   4.617 -0.3488 -0.2162  0.1057
50352W        W93368   8.445  26.049   0.018  0.0435  0.0064  0.0566
50353W        W93369  21.219   0.236  28.003 -0.2730  0.2063 -0.0669
50354W        W93370   4.730  20.537   5.500 -0.0480 -0.1402 -0.0419
50355W        W93371   7.888  33.021  22.516 -0.0399  0.0509  0.2333
50356W        W93372  21.426  21.817  23.769  0.0150  0.0894 -0.3001
50357W        W93373   1.545   7.250  23.695  0.0291  0.0920 -0.2848
50358W        W93374   1.340  25.493   0.016 -0.0240  0.1413 -0.1843
50359W        W93375  16.672  25.706   3.152  0.0224 -0.0692  0.1211
50360W        W93376  25.688   1.485  25.328  0.0008 -0.0645  0.0559
50361W        W93377  30.182  13.932  26.495 -0.0940 -0.1899  0.1012
50362W        W93378  10.983  34.666  21.080  0.0549 -0.0513 -0.0114
50363W        W93379  21.722  22.623   1.137  0.0530  0.3360  0.0484
50364W        W93380   1.435  21.871  16.635 -0.0039 -0.1174 -0.0154
50365W        W93381   4.873  22.285  14.526 -0.2091  0.0592 -0.1004
50366W        W93382  12.313  31.567   1.192  0.0539 -0.2891  0.0438
50367W        W93383  29.637   1.199  20.619  0.0331  0.0204 -0.2975
50368W        W93384   6.286  26.092  28.616 -0.0705  0.2963 -0.0882
50369W        W93385  33.376  23.311   3.589 -0.1137 -0.0380 -0.1934
50370W        W93386  26.358   7.209  24.761  0.0062  0.2011 -0.1733
50371W        W93387  24.299   1.364  29.047 -0.0845 -0.0287  0.1959
50372W        W93388   3.064  15.505  15.797 -0.3172 -0.1130  0.1388
50373W        W93389   4.404  19.746  13.681  0.0568 -0.1926 -0.2184
50374W        W93390  14.653   0.295   0.503  0.3216 -0.0625 -0.0651
50375W        W93391   9.625  18.652  18.417 -0.1467 -0.2859 -0.2125
50376W        W93392   3.097   3.514  18.648  0.2408  0.1415 -0.2943
50377W        W93393  14.441  16.878   2.174  0.0928 -0.0646  0.1230
50378W        W93394   8.191   6.814  28.927  0.1986 -0.1147  0.0587
50379W        W93395  11.343  34.750  18.986  0.1875 -0.0487  0.0699
50380W        W93396   0.166  11.008  25.727 -0.0098 -0.0680 -0.0724
50381W        W93397   1.499   4.848  17.028  0.0285 -0.1486  0.2352
50382W        W93398  12.260  22.338   0.650 -0.0842 -0.2086  0.1688
50383W        W93399   7.062   0.415  16.787 -0.1415 -0.0138  0.0941
50384W        W93400   2.870   8.352  21.869  0.1714  0.0555  0.0565
50385W        W93401  13.084  28.805   2.229  0.0671  0.2439  0.2259
50386W        W93402  34.380   0.912  25.891  0.2041  0.0900  0.0621
50387W        W93403   0.442  21.148  21.512  0.2507 -0.6024 -0.3679
50388W        W93404  34.529  15.526   0.043 -0.2318 -0.1442 -0.3071
50389W        W93405  15.799  14.517   2.299 -0.0297  0.2374  0.0039
50390W        W93406  10.086  28.875   1.974 -0.0003  0.0344  0.3323
50391W        W93407  34.315   1.404   3.828  0.0810  0.0942 -0.2478
50392W        W93408   2.323  15.028   7.613  0.6304 -0.1026  0.0210
50393W        W93409  34.072  13.458   4.719 -0.0448 -0.3046 -0.0753
50394W        W93410   7.463  31.422  25.691 -0.0153 -0.4793  0.1099
50395W        W93411  29.549   7.604   1.945 -0.0863  0.0669  0.1374
50396W        W93412   8.048   3.540   0.219  0.0447 -0.1222 -0.0796
50397W        W93413   6.137  33.645   2.937 -0.0821 -0.0246  0.1369
50398W        W93414  24.444   1.826   8.680 -0.0406  0.1068 -0.1814
50399W        W93415   3.362  15.662  22.358  0.4707  0.2909  0.0629
50400W        W93416   9.610  26.694  24.980  0.0101  0.2505  0.0698
50401W        W93417  28.435   9.226   9.928 -0.4205  0.0769  0.0682
50402W        W93418   5.975  24.037  28.595 -0.0280  0.1092 -0.1306
50403W        W93419  27.458  22.540  27.703 -0.0913 -0.3085  0.2688
50404W        W93420  12.286  11.208   7.173 -0.4201  0.0764 -0.0324
50405W        W93421  21.188  27.397  15.949 -0.0711  0.3066  0.0914
50406W        W93422   9.603  13.391  26.466 -0.1327  0.1011 -0.0568
50407W        W93423  20.700  31.017  19.712 -0.1943 -0.1652  0.2024
50408W        W93424   4.559   2.270  17.183  0.0078 -0.0656  0.1867
50409W        W93425  19.015  17.902  14.786 -0.1971  0.3287 -0.3533
50410W        W93426   7.531  30.315  27.605  0.3791 -0.1941  0.0738
50411W        W93427  11.568  21.334   1.217  0.1431  0.3153  0.0601
50412W        W93428  10.199  28.097  28.012 -0.0470 -0.0223  0.0971
50413W        W93429  10.657   8.851  25.963  0.4243  0.1339  0.0980
50414W        W93430  21.529   6.745  26.234 -0.0585  0.2701 -0.0700
50415W        W93431  11.487  28.268  23.198  0.0067  0.0648 -0.2727
50416W        W93432  28.827  10.211   7.043  0.0849  0.1344 -0.1858
50417W        W93433  27.612  28.440  22.446  0.1730  0.2433 -0.1759
50418W        W93434  30.877   3.827  26.066 -0.0089 -0.1847  0.1968
50419W        W93435   9.768  25.614  19.769  0.0557  0.2859  0.1471
50420W        W93436  14.363  15.997  24.889  0.1214 -0.4057 -0.0492
50421W        W93437  12.034   0.894  13.512 -0.0111 -0.0745 -0.1921
50422W        W93438  12.608  30.047   7.853  0.2219  0.0126 -0.2320
50423W        W93439   3.761  29.532  22.869 -0.1297 -0.0162 -0.2758
50424W        W93440  13.500   8.936   4.146 -0.0656  0.1927  0.0001
50425W        W93441   4.824  34.103   2.129  0.1053  0.2285 -0.0891
50426W        W93442   1.117   9.180  23.017 -0.2714 -0.1173 -0.0007
50427W        W93443  10.974  20.481  17.740 -0.2867 -0.0057  0.0384
50428W        W93444   8.380   9.927   8.150  0.3304 -0.1657  0.2408
50429W        W93445  32.445   9.761  15.859 -0.0368 -0.0567 -0.0773
50430W        W93446  13.750  14.068  20.436 -0.0501  0.0519  0.1138
50431W        W93447  19.237   6.589  20.216 -0.1444 -0.1710  0.0335
50432W        W93448  32.159  23.199  11.122  0.0382  0.1598 -0.1695
50433W        W93449  31.680   2.697  16.347  0.0922 -0.1373  0.1268
50434W        W93450  11.854   6.906  23.399 -0.3096  0.0840  0.1653
50435W        W93451  15.937  25.563  28.040 -0.3360 -0.1191 -0.0850
50436W        W93452  12.307  34.113   8.738  0.0149 -0.0939 -0.1541
50437W        W93453  10.854   1.326  24.157 -0.1251 -0.2169  0.0149
50438W        W93454   0.232   6.091  17.681  0.3854 -0.4238  0.0596
50439W        W93455  33.414  25.373  19.628  0.4356 -0.1750  0.0879
50440W        W93456   2.161  31.143  23.913  0.4596  0.0414  0.0554
50441W        W93457  33.400  19.682  19.139 -0.1078  0.2752  0.3019
50442W        W93458   0.288  25.669   6.237  0.1068 -0.0504  0.3314
50443W        W93459   2.435   9.813   1.442 -0.1668 -0.4042  0.1772
50444W        W93460  18.831  28.171  18.970 -0.1040 -0.0792 -0.0308
50445W        W93461   7.248   7.228   7.102 -0.0660 -0.0314 -0.0999
50446W        W93462  10.982  23.364  16.980 -0.0941  0.1527 -0.2905
50447W        W93463  10.804  32.519  21.961  0.1820 -0.0350 -0.0529
50448W        W93464  22.011  16.816  26.625 -0.0408 -0.2252 -0.1455
50449W        W93465   0.231   5.915   4.724  0.1957  0.2929  0.1736
50450W        W93466   3.843  33.283  20.951 -0.2021  0.0482  0.2315
50451W        W93467   7.402   1.252  18.558 -0.0083  0.0420  0.1254
50452W        W93468  18.784   9.316  23.519 -0.0281  0.1707 -0.1926
50453W        W93469  19.344   0.613   4.375 -0.0716  0.1302 -0.1306
50454W        W93470  29.600  13.168   6.252 -0.2580 -0.3861  0.0609
50455W        W93471   9.055  28.553  28.638 -0.1238  0.3687  0.1389
50456W        W93472  31.593  34.292   4.842  0.3885 -0.0029  0.1627
50457W        W93473   7.705   8.161  23.918 -0.2091 -0.0587 -0.1115
50458W        W93474  15.357   2.278  24.846 -0.2553  0.2569 -0.0039
50459W        W93475   2.498  34.355   8.980  0.0739 -0.2219 -0.4422
50460W        W93476  10.211   2.359  29.054  0.1442  0.3226  0.0541
50461W        W93477   9.343   6.559  27.176  0.1309  0.1021 -0.2182
50462W        W93478   3.761  14.958   8.191  0.0556  0.1998  0.0569
50463W        W93479   5.648  17.327   8.874  0.1138  0.1741 -0.5132
50464W        W93480  34.513  34.277   1.764  0.0365 -0.3117 -0.4252
50465W        W93481  33.934  28.748  16.969 -0.3914  0.1170 -0.0850
50466W        W93482  11.861  25.234   8.080  0.1688  0.1560  0.0047
50467W        W93483   9.424  26.809   3.338  0.2462 -0.0583  0.0054
50468W        W93484   2.544   3.240  28.664 -0.0610  0.2181  0.1138
50469W        W93485   2.183  10.020  28.775 -0.0527 -0.1388  0.0207
50470W        W93486  12.806  15.286  26.712 -0.1116  0.0167  0.1648
50471W        W93487   8.329  25.701  17.387  0.1879  0.3939 -0.2841
50472W        W93488   2.646  11.426   9.797  0.0819 -0.2674 -0.1572
50473W        W93489  13.451   6.270   3.483  0.1484  0.3283  0.3542
50474W        W93490   7.238  20.868  27.996  0.3412  0.2338 -0.3824
50475W        W93491   9.431  15.133  26.202 -0.1838 -0.0806 -0.0186
50476W        W93492   0.619  23.127  19.399  0.0129 -0.2005 -0.0237
50477W        W93493  17.609  31.741   4.097 -0.2820  0.1039  0.0854
50478W        W93494  20.200   3.534  15.165  0.1420 -0.0516  0.0474
50479W        W93495  24.453  27.313  15.691 -0.0258  0.0126  0.3962
50480W        W93496   7.585   7.134   4.801  0.2323 -0.2597  0.2394
50481W        W93497   6.095  25.751   5.195 -0.0298 -0.0683  0.1542
50482W        W93498   9.596  14.690  22.444  0.0675 -0.2210 -0.0153
50483W        W93499  23.286  25.952   8.988 -0.2048  0.0628  0.3427
50484W        W93500   3.323  12.317   7.748  0.2559  0.3694 -0.1453
50485W        W93501  33.399  33.383  26.430  0.1737 -0.1023  0.1353
50486W        W93502   2.320  13.273  25.808 -0.2311 -0.0395  0.3529
50487W        W93503  32.959  34.404   7.343  0.3603  0.0624 -0.2985
50488W        W93504  33.977   0.050   0.382  0.0831 -0.1041 -0.2337
50489W        W93505  18.337   1.516   9.372  0.0297  0.2272  0.0547
50490W        W93506  30.415  33.435   0.168  0.0417 -0.2256  0.2455
50491W        W93507   4.528  13.771  19.804  0.2488 -0.2179 -0.1041
50492W        W93508   3.096   8.953  14.633  0.2380 -0.1624  0.1313
50493W        W93509  12.510  18.224  26.589  0.0854  0.0905  0.0906
50494W        W93510   7.895   6.714   0.840  0.0599 -0.1480 -0.0705
50495W        W93511   7.848  28.623  17.902  0.1534  0.2999  0.0927
50496W        W93512   7.901  11.626  28.228  0.1144  0.2408 -0.1584
50497W        W93513  23.748  27.829   4.715  0.3652  0.0770 -0.2097
50498W        W93514  27.406  32.223  18.721  0.3340  0.3369  0.2444
50499W        W93515  17.750   0.692  18.138 -0.1416 -0.2951 -0.0781
50500W        W93516  13.615  24.638  13.802 -0.3616 -0.0146 -0.3296
50501W        W93517   4.271  20.156  21.557  0.0794 -0.0243  0.0538
50502W        W93518  18.901   3.599  27.645  0.1739  0.1883  0.1031
50503W        W93519  28.762  33.985  21.984 -0.0099 -0.1847  0.1094
50504W        W93520   3.484  32.246  15.754 -0.0431 -0.1731  0.1147
50505W        W93521  20.130  28.492   5.319 -0.0860  0.0331 -0.1830
50506W        W93522   3.490  27.461  18.071  0.1882 -0.1405  0.2338
50507W        W93523  32.270  13.935  26.412 -0.1611 -0.1554 -0.1524
50508W        W93524  25.141   8.922  16.918  0.0744 -0.0177 -0.2252
50509W        W93525   2.723  23.200  24.048  0.2182 -0.1700  0.2242
50510W        W93526  30.634  25.082  17.416 -0.2627 -0.0186 -0.0641
50511W        W93527  11.763  25.956  25.212  0.3064  0.2255  0.1984
50512W        W93528   9.338  33.187   6.329 -0.0373  0.2546  0.3184
50513W        W93529   8.681  31.857  25.194  0.0514 -0.3027  0.1850
50514W        W93530  25.604  18.768  28.928  0.1722 -0.0302  0.0779
50515W        W93531   3.607   4.069  22.771  0.0730 -0.3382 -0.0559
50516W        W93532  21.811   3.958   0.340  0.2633  0.0826 -0.4014
50517W        W93533  34.587  24.641  24.079  0.1304  0.3764 -0.1752
50518W        W93534  21.460   0.944  20.544 -0.0487 -0.1663 -0.3955
50519W        W93535   9.948  28.869   9.670 -0.1376  0.2370 -0.2589
50520W        W93536  23.069  24.220  19.052  0.0168  0.3086 -0.1983
50521W        W93537   7.520  31.721  20.322  0.1052  0.0422  0.0934
50522W        W93538  10.316   5.575   4.758 -0.0768  0.1527  0.0364
50523W        W93539  14.708  30.652   2.553 -0.1306  0.0302 -0.1303
50524W        W93540   4.455  23.407  27.932  0.1852  0.2605  0.2187
50525W        W93541   3.390  27.217   5.812 -0.0077  0.0511  0.1534
50526W        W93542  13.929  11.897  24.593  0.3003 -0.0709 -0.1102
50527W        W93543  27.738  11.578   9.199 -0.0110  0.1641  0.1175
50528W        W93544   4.847  24.585  23.885  0.0539  0.1576  0.2285
50529W        W93545   8.138  29.789   8.868 -0.0414  0.4758  0.1814
50530W        W93546  17.925  32.455   7.400  0.2106 -0.0291  0.1958
50531W        W93547  18.174  23.214   3.438  0.0507 -0.0109 -0.1798
50532W        W93548   0.673  25.608   9.415 -0.1738 -0.0217 -0.2275
50533W        W93549  27.824  10.282   8.245 -0.0212 -0.2218  0.0488
50534W        W93550  27.265   3.956   4.761 -0.2924  0.0200  0.0874
50535W        W93551  25.218  15.753  21.587  0.2564  0.1853  0.3152
50536W        W93552   8.140  11.076  16.723 -0.0332  0.1057  0.3110
50537W        W93553   9.983  20.416  23.465 -0.1005 -0.0533  0.0481
50538W        W93554  11.408  22.917  28.360  0.5079  0.0662  0.2012
50539W        W93555  13.535  25.140  26.535  0.0326 -0.1656 -0.0307
50540W        W93556   1.346  26.254   1.000 -0.2630 -0.1043  0.2959
50541W        W93557  20.575  32.292   1.808  0.1240  0.0950 -0.0284
50542W        W93558  18.608   2.645  27.676  0.0254  0.0382  0.1622
50543W        W93559   7.614  12.154   7.145 -0.2011  0.1830  0.2003
50544W        W93560  31.288  17.289  15.436  0.0836  0.0837 -0.0950
50545W        W93561  34.040  30.684   7.724 -0.1177  0.1066 -0.0481
50546W        W93562  16.196   3.583  16.899  0.3206 -0.0692  0.0285
50547W        W93563   3.806   4.408  17.154  0.2839  0.2592 -0.2010
50548W        W93564   1.371  34.277  26.161 -0.1150 -0.0686  0.0873
50549W        W93565   8.432   1.706  18.091 -0.1453  0.0808 -0.0267
50550W        W93566   4.541   3.570  19.825 -0.1190 -0.0540  0.0101
50551W        W93567  32.297   5.347  27.859  0.0356  0.2552  0.0850
50552W        W93568  12.849  26.562   5.791 -0.4639  0.2762  0.0966
50553W        W93569  12.816  24.435   1.589 -0.0844  0.1467 -0.0674
50554W        W93570  17.952   5.653   8.809 -0.4333 -0.2020  0.0217
50555W        W93571  28.825  10.871   7.536  0.4961 -0.0642 -0.1413
50556W        W93572   6.352   5.446  18.006 -0.0151  0.1947 -0.1801
50557W        W93573  32.315  27.485  16.841  0.0181 -0.5278 -0.3674
50558W        W93574   6.216  30.211  18.727 -0.0807 -0.2277  0.0158
50559W        W93575   3.400  11.010   2.461  0.0560 -0.0878 -0.0198
50560W        W93576  22.384  12.162  26.532 -0.0873  0.1025  0.0680
50561W        W93577  28.555  30.441  22.943  0.0009 -0.0186  0.0992
50562W        W93578   0.075  25.709  18.880 -0.1550  0.2876  0.0690
50563W        W93579  14.342  15.422  28.489 -0.1152  0.0935  0.1329
50564W        W93580  30.687  26.717  22.635 -0.1131  0.1123 -0.1776
50565W        W93581  10.921  29.350  18.444  0.0040  0.0789 -0.1011
50566W        W93582  22.623  12.183   8.334 -0.2184 -0.0724  0.3856
50567W        W93583   3.262  31.563   6.295  0.0900  0.0379  0.1728
50568W        W93584   8.045  32.017   4.373 -0.0551  0.1692  0.2985
50569W        W93585   7.391  33.487  26.894 -0.2070 -0.1625 -0.0947
50570W        W93586   5.037  24.124   7.027 -0.1418 -0.0992 -0.1369
50571W        W93587  34.072  15.861  22.110  0.0737 -0.1686 -0.2097
50572W        W93588   3.668  25.559  18.809  0.2995  0.1840 -0.0244
50573W        W93589  19.722  30.014  22.798 -0.0006  0.0426  0.4351
50574W        W93590   8.948   8.037   5.561 -0.1909  0.1250  0.0867
50575W        W93591  26.987  22.615  15.509 -0.2545 -0.0114  0.2117
50576W        W93592  14.926  26.896  21.421 -0.0701 -0.0406 -0.1462
50577W        W93593   0.844  14.091  21.145  0.2202  0.0257  0.1279
50578W        W93594  32.775  12.833  16.896 -0.3249 -0.0037  0.0635
50579W        W93595  19.137  27.086   1.309  0.0688  0.0200 -0.3732
50580W        W93596  13.968  34.137   4.225 -0.1046  0.1192 -0.0935
50581W        W93597  32.237  23.575  18.414  0.2172 -0.2087  0.0092
50582W        W93598  32.310  17.654  28.700  0.0532  0.2188  0.5146
50583W        W93599  19.301  28.133   5.201  0.0601  0.1625  0.1352
50584W        W93600   2.286  17.525   6.216 -0.1036 -0.2559 -0.0948
50585W        W93601   0.611  22.839  20.899 -0.2363  0.0528 -0.0910
50586W        W93602  10.608  22.571  26.339  0.1478  0.0680 -0.3667
50587W        W93603  15.097  10.283  12.592  0.1922  0.2546  0.1053
50588W        W93604   5.586  29.343  20.084  0.1287 -0.0264  0.1992
50589W        W93605   8.318   9.372   6.887  0.0488 -0.0317  0.1966
50590W        W93606  25.911   6.165  20.832  0.1156  0.2239  0.1354
50591W        W93607  10.577  17.732   1.129 -0.4077 -0.0281 -0.0156
50592W        W93608  15.500  22.606  13.433  0.0430  0.0938  0.2055
50593W        W93609  31.180  27.454   1.150 -0.0700 -0.0810 -0.0822
50594W        W93610  34.632  26.027   3.579  0.1607  0.0009 -0.3764
50595W        W93611  34.266  27.779  18.252  0.2386  0.2280 -0.1097
50596W        W93612  29.813  21.385   3.604 -0.0605  0.0421  0.1217
50597W        W93613  32.949  25.771   6.025 -0.0540  0.1114 -0.0834
50598W        W93614  22.794   0.342  27.939  0.3090 -0.2965  0.0172
50599W        W93615   9.847  26.244   8.338 -0.0679 -0.0779 -0.1208
50600W        W93616  18.491  26.873  24.006 -0.2885 -0.1490  0.2611
50601W        W93617   4.984  32.076  22.270  0.0243  0.4187  0.0790
50602W        W93618   1.852  21.888  24.853 -0.4726  0.0677  0.0121
50603W        W93619   7.400  20.309   8.869  0.2699 -0.0597 -0.0761
50604W        W93620  10.686  28.020  28.939 -0.1925  0.6067 -0.0641
50605W        W93621   2.725  14.067  15.529 -0.1501  0.0865 -0.2559
50606W        W93622   5.807  34.307  15.518 -0.1247  0.3630  0.0641
50607W        W93623  22.157  33.222   1.562 -0.2986 -0.2457 -0.0621
50608W        W93624  19.904  30.502  28.169  0.1027 -0.2612  0.2044
50609W        W93625  17.324  23.883  21.590  0.0188  0.2259  0.0370
50610W        W93626  11.470  18.525  22.124 -0.2804  0.2022 -0.2635
50611W        W93627   5.946  16.313   1.109  0.0215  0.0850 -0.0516
50612W        W93628  28.263  22.851   9.583  0.0146  0.0095 -0.5203
50613W        W93629  19.144  22.776   6.699  0.1604  0.0114 -0.3371
50614W        W93630  29.928  19.873  25.624 -0.0094 -0.1454  0.0144
50615W        W93631   6.421   8.622   1.355 -0.0490 -0.1828  0.0926
50616W        W93632  33.917   9.773  22.807  0.1327  0.0668  0.0564
50617W        W93633  13.734  27.577  16.844 -0.0613  0.0660 -0.1005
50618W        W93634   8.493   1.467  14.908  0.2183 -0.4301  0.1033
50619W        W93635  30.717  22.654  14.711  0.2283  0.0631  0.4684
50620W        W93636   3.683  31.074  22.933  0.1599 -0.0614  0.1839
50621W        W93637   4.847   4.670  15.228 -0.0949  0.2630 -0.0689
50622W        W93638  19.408  30.303  24.503 -0.0100 -0.1167 -0.5055
50623W        W93639   9.768  30.761  20.518  0.1143 -0.1577  0.1362
50624W        W93640  12.336  20.025   1.456 -0.1111  0.0207  0.0971
50625W        W93641  17.274  16.154  13.584  0.0015 -0.0697 -0.1200
50626W        W93642  11.050  13.086   3.661 -0.5425 -0.0230 -0.2095
50627W        W93643   0.008   1.800  21.548  0.1821 -0.1487  0.0362
50628W        W93644  30.228  24.291  24.893  0.1000  0.2178 -0.4046
50629W        W93645   9.967  25.804  26.583  0.0052  0.0215  0.1298
50630W        W93646   6.615  14.970  17.039  0.0437 -0.0320 -0.1657
50631W        W93647   8.666   5.320  21.414 -0.1673 -0.1212  0.0819
50632W        W93648   8.638  29.032   8.439  0.0990 -0.3597  0.0872
50633W        W93649  12.697  32.371   2.386  0.2273 -0.1618  0.0145
50634W        W93650   6.883  27.019  20.792  0.0274 -0.0240 -0.2829
50635W        W93651  28.861  14.220  23.619  0.5162  0.0112  0.2791
50636W        W93652   1.780  17.773  26.251  0.2838 -0.1610  0.1995
50637W        W93653  32.603  15.704  25.271 -0.1608 -0.0917  0.0235
50638W        W93654   3.773  31.519   1.359 -0.0120 -0.0256  0.0466
50639W        W93655  17.608  21.620   1.600  0.0418  0.2025 -0.0606
50640W        W93656   9.092   8.968   9.763  0.2096 -0.1821 -0.2755
50641W        W93657  14.917  20.194  14.376 -0.1049  0.1836 -0.2774
50642W        W93658  11.137   5.348  15.192 -0.0040  0.2280 -0.4453
50643W        W93659  34.030  24.570  23.765  0.1670 -0.0564  0.2254
50644W        W93660   3.519  19.699  17.859  0.1603  0.0599 -0.1076
50645W        W93661  30.562  31.144   3.466  0.2234 -0.1654 -0.1589
50646W        W93662  15.998  22.949   4.559 -0.1426  0.2782  0.0322
50647W        W93663  29.300  32.568  10.241  0.3356 -0.0463 -0.2166
50648W        W93664  29.639  14.746  25.085  0.0831  0.1704  0.1154
50649W        W93665  34.603  18.958   4.167  0.2010 -0.0653 -0.3142
50650W        W93666  10.140  30.212   5.948  0.0717  0.3840  0.1958
50651W        W93667   8.625  21.271  15.627 -0.1254  0.1214 -0.0049
50652W        W93668   0.123  20.836   4.067 -0.1231  0.1258 -0.2179
50653W        W93669   4.989   2.259  28.761  0.1601 -0.3147  0.1541
50654W        W93670  12.529  26.189  16.417 -0.0610 -0.3107  0.2282
50655W        W93671  14.042  10.661   1.737 -0.0951 -0.0211  0.1526
50656W        W93672   5.057  13.728  29.025 -0.1119  0.0564 -0.0840
50657W        W93673   1.899  27.499   0.855  0.5681  0.2968 -0.1595
50658W        W93674  11.876  20.703  27.390 -0.1775  0.2499  0.1243
50659W        W93675   8.740   3.168   4.225 -0.1747 -0.0450 -0.0624
50660W        W93676  14.534   2.160  19.808 -0.1548  0.0649 -0.1434
50661W        W93677  32.607  15.478  17.416  0.0715 -0.1236 -0.0017
50662W        W93678  18.830  21.361   4.862 -0.1970  0.1562 -0.0069
50663W        W93679  16.361  29.543  25.197 -0.1262  0.1335 -0.1234
50664W        W93680  15.720  20.861   5.237 -0.1562  0.1279 -0.0470
50665W        W93681  12.420   2.030  26.266 -0.0331  0.0228 -0.0669
50666W        W93682  14.968  20.865  28.040 -0.0929 -0.0572 -0.2295
50667W        W93683   7.626  31.290   0.964 -0.0135 -0.0845 -0.1101
50668W        W93684  25.088  19.979  28.508 -0.2650  0.0080  0.2791
50669W        W93685  30.746   2.457   6.301 -0.1224  0.0064  0.0683
50670W        W93686  17.616  18.620  24.130  0.1757  0.3179  0.1821
50671W        W93687   3.180  28.084  26.895  0.4843 -0.1756 -0.2847
50672W        W93688   1.082  33.015   4.613  0.2070  0.1562  0.4147
50673W        W93689   6.030  11.781   4.609 -0.2451  0.2306 -0.0984
50674W        W93690  22.468  10.901   3.094 -0.3762  0.1557  0.1434
50675W        W93691  16.147   5.827  28.383  0.0064  0.3079  0.1568
50676W        W93692  10.262  20.102   5.586 -0.0981  0.4612  0.0968
50677W        W93693   8.195   3.340  29.076  0.0963  0.0855  0.2167
50678W        W93694   8.227  29.182   8.225 -0.0204 -0.2404  0.0397
50679W        W93695  16.487  30.145  18.403 -0.1248  0.0828 -0.1019
50680W        W93696  34.524  23.468  21.744 -0.0186 -0.2448  0.1244
50681W        W93697   3.893  27.751  22.792 -0.3276  0.1981 -0.1802
50682W        W93698  18.442   2.963   7.359  0.1600  0.1283 -0.0788
50683W        W93699   9.087  16.865  15.692 -0.3153  0.0077 -0.0698
50684W        W93700   9.778   3.319   1.246  0.0773  0.2931 -0.3918
50685W        W93701   0.740   3.981  22.342 -0.0102 -0.1739 -0.1187
50686W        W93702  14.197  31.143  24.643 -0.1406  0.2145 -0.1981
50687W        W93703   9.008  29.090   4.182  0.1705 -0.0964 -0.0654
50688W        W93704  11.496  30.170   9.478  0.0017  0.1527 -0.2995
50689W        W93705   6.174  26.500  28.850  0.2814  0.0918  0.1962
50690W        W93706  30.270   1.385  22.183 -0.1912  0.0098  0.2825
50691W        W93707  34.476  25.467   9.177  0.0322 -0.3951  0.1329
50692W        W93708   1.524   2.557   2.601 -0.0317  0.0930 -0.2534
50693W        W93709  10.670  13.992  21.847  0.1020  0.2023  0.0273
50694W        W93710  12.804  30.625   7.076  0.2922 -0.1958 -0.0937
50695W        W93711  13.662  29.819   3.587  0.0769 -0.1298  0.3086
50696W        W93712   0.801  26.280   7.515 -0.0177  0.3029  0.1040
50697W        W93713   4.945   6.043  24.225 -0.6418 -0.1588  0.3828
50698W        W93714  32.398  23.807  26.137 -0.0910  0.1263  0.0086
50699W        W93715  12.019  16.984   3.559  0.2595 -0.0994 -0.1089
50700W        W93716   3.374   0.073  10.145  0.1249  0.0713  0.0946
50701W        W93717  31.231   5.634   3.639 -0.0533  0.1123 -0.3260
50702W        W93718   5.822  13.949  19.657 -0.0848 -0.3782 -0.0248
50703W        W93719  17.699  33.108   9.588  0.1627  0.2263  0.0921
50704W        W93720   8.146  32.461  19.900 -0.1335  0.0070 -0.2005
50705W        W93721   4.892  26.308   1.572 -0.0487  0.1631 -0.1338
50706W        W93722  29.449  25.699  23.624 -0.0117  0.3216 -0.3194
50707W        W93723  33.909   0.577   6.667  0.0745  0.0571  0.3236
50708W        W93724  12.119   1.839   6.819 -0.3490 -0.2534 -0.1475
50709W        W93725   2.908  28.201   9.039  0.0525  0.0461  0.1907
50710W        W93726   6.829  12.009  20.237  0.0417  0.1503  0.1513
50711W        W93727  34.689   4.638  23.018 -0.2043  0.0451 -0.1708
50712W        W93728  32.505  31.662  10.594  0.3359 -0.1930  0.0373
50713W        W93729  15.817  13.704  25.276  0.3012 -0.0258 -0.0081
50714W        W93730  25.697  29.316  11.089  0.2442 -0.4596 -0.2142
50715W        W93731   0.575  26.957  28.513  0.1934 -0.0861  0.0537
50716W        W93732  17.076   6.449  16.353  0.1584  0.0767  0.1797
50717W        W93733  11.919   2.216   8.936 -0.2220 -0.3364 -0.0021
50718W        W93734  13.432  10.851   1.727  0.2357 -0.1543 -0.0921
50719W        W93735  30.882   9.249  26.390 -0.1588 -0.1734 -0.0681
50720W        W93736   9.794  20.160   7.450 -0.1175 -0.0218 -0.4728
50721W        W93737   7.080  21.664  20.666  0.2818 -0.0255 -0.1322
50722W        W93738   2.894  27.791  18.514 -0.1137 -0.1238 -0.0459
50723W        W93739   0.219   4.849  22.648  0.0117 -0.1258 -0.0738
50724W        W93740  24.565  32.816   3.617 -0.0349 -0.0882 -0.0626
50725W        W93741   9.230   4.069   6.890  0.1530  0.1447  0.1517
50726W        W93742  11.995  15.266  21.806  0.2219  0.2423 -0.0058
50727W        W93743  19.082  13.856  25.538  0.0995 -0.0099  0.1144
50728W        W93744  31.886   6.791  28.233 -0.2086  0.1418  0.0972
50729W        W93745  13.728  12.432  28.797  0.1574 -0.0630 -0.0199
50730W        W93746  30.016  20.180   3.072  0.0757  0.0373  0.0472
50731W        W93747  33.171  18.449   9.593 -0.0013  0.3346  0.0818
50732W        W93748   3.548  33.474  22.827 -0.1597 -0.3087 -0.0179
50733W        W93749  28.619  33.418   2.162 -0.1464  0.0399 -0.1558
50734W        W93750   8.488  28.056  26.552 -0.2132 -0.2461 -0.0173
50735W        W93751  31.158  31.409  18.792 -0.0419 -0.1871 -0.1494
50736W        W93752   7.083   9.557  18.925 -0.0044  0.0698 -0.0716
50737W        W93753   6.396  28.014  27.715 -0.1673  0.3177 -0.3137
50738W        W93754  31.770  26.966   5.232  0.2131 -0.1574 -0.0624
50739W        W93755   4.178  26.020   6.224  0.1763  0.2004  0.0650
50740W        W93756  11.720  31.255  16.531 -0.1087 -0.3474 -0.0883
50741W        W93757   9.625  31.625  20.680  0.0257  0.0348 -0.1769
50742W        W93758  14.663  12.175  13.531  0.0879  0.1317 -0.0899
50743W        W93759  22.556  25.085  29.226  0.0477  0.1838  0.0188
50744W        W93760   5.091   4.669  14.008 -0.1028 -0.1031 -0.1411
50745W        W93761  15.301  25.091  22.978 -0.0517  0.1411  0.1180
50746W        W93762  18.631  34.443  27.879 -0.0726 -0.1784 -0.2394
50747W        W93763  11.173  33.133  20.718 -0.0010  0.2690 -0.0924
50748W        W93764  17.445   8.934  20.133 -0.1878 -0.0867 -0.4682
50749W        W93765  28.534   8.942   6.189 -0.2808 -0.0118 -0.0012
50750W        W93766   3.937  27.041  17.885 -0.0272 -0.4265  0.0430
50751W        W93767  14.278   9.188  26.648 -0.0247 -0.0869 -0.0760
50752W        W93768   4.624   8.621  28.981 -0.1486  0.1700 -0.2182
50753W        W93769   9.018   3.063  28.473 -0.2023 -0.3575  0.0467
50754W        W93770  12.132   2.285  21.141 -0.2230 -0.1209 -0.3352
50755W        W93771   5.895   2.287  17.312  0.0710 -0.1264 -0.0113
50756W        W93772   7.604   6.944  14.868 -0.3087 -0.0863  0.0619
50757W        W93773  34.041  10.199  27.687  0.1791 -0.2524  0.2555
50758W        W93774  23.152  28.574   2.486  0.2362 -0.0261  0.0309
50759W        W93775   4.510   8.976  19.868  0.4265 -0.1466  0.0298
50760W        W93776   1.879  31.729  27.600  0.0686  0.3090  0.1304
50761W        W93777   8.952  24.972  26.041 -0.0502 -0.1447 -0.1382
50762W        W93778  33.395  22.701  18.297  0.0052  0.0339 -0.2436
50763W        W93779  34.360  26.872  28.406 -0.1053  0.1783 -0.0354
50764W        W93780  19.071  28.522  21.001 -0.3099 -0.0695 -0.2172
50765W        W93781   4.497   0.575  25.517 -0.0723  0.0765  0.0150
50766W        W93782   8.722   2.466  21.234 -0.1241  0.0115 -0.1646
50767W        W93783  18.677   1.388  17.486  0.1769 -0.3155  0.1465
50768W        W93784   3.631  14.304  16.715 -0.1933 -0.2069  0.1079
50769W        W93785  34.556  21.092  20.351  0.0384 -0.3521  0.2019
50770W        W93786  14.505  16.958  15.342 -0.4363 -0.2333  0.4339
50771W        W93787   8.234  30.994  21.579 -0.2483  0.1284 -0.1436
50772W        W93788   4.709  23.612  19.126  0.1915  0.2059 -0.1538
50773W        W93789  24.501  24.750  25.412 -0.5101  0.1221 -0.0038
50774W        W93790   0.762   8.499  22.040 -0.2402  0.3070 -0.4625
50775W        W93791   8.291   9.063  22.498  0.0432  0.0470 -0.2279
50776W        W93792   0.323  32.963  27.307 -0.1498  0.6448 -0.1778
50777W        W93793  17.435  16.199  28.749 -0.0460  0.2607  0.2373
50778W        W93794   7.739  26.730  16.919 -0.1770 -0.3248 -0.2787
50779W        W93795   1.688   4.335   0.445  0.0127 -0.3354 -0.3812
50780W        W93796   1.615   2.613  15.449  0.2518  0.1052  0.0212
50781W        W93797  23.014  30.716  20.928  0.0972  0.0216  0.1621
50782W        W93798  19.680   1.425  14.648  0.2135  0.0778 -0.2385
50783W        W93799  18.651  16.692  15.329  0.0298 -0.0671  0.0484
50784W        W93800  34.304  29.325  23.531 -0.0833 -0.1796 -0.0110
50785W        W93801  21.028  28.121  23.485  0.0111  0.0766  0.2660
50786W        W93802  12.166  32.066  15.106  0.1961  0.3602 -0.0453
50787W        W93803  28.865  21.645  22.374 -0.2351 -0.1738 -0.1299
50788W        W93804   7.821   3.798  24.935 -0.1741  0.2099 -0.1603
50789W        W93805  20.863   6.521  14.058  0.1465  0.0424  0.1046
50790W        W93806  31.790  20.872   2.386  0.1217  0.0483 -0.3555
50791W        W93807  20.892  28.906  18.928 -0.0748 -0.2101 -0.1116
50792W        W93808  17.250  26.505  15.864 -0.1066  0.0801  0.0099
50793W        W93809  18.342   6.160  16.745 -0.0705  0.0328  0.2793
50794W        W93810  14.891  28.937  23.364 -0.1170  0.2060  0.3236
50795W        W93811  16.818   5.061  18.928  0.0023  0.3661  0.4949
50796W        W93812  11.590   0.957  18.601  0.0664 -0.0392 -0.2203
50797W        W93813   7.609   3.343  25.108 -0.3809  0.0221 -0.0398
50798W        W93814  21.779  30.334  20.572  0.1879 -0.0456 -0.2301
50799W        W93815  10.967  32.153  17.390 -0.2479 -0.2544 -0.0318
50800W        W93816  27.034   1.565  27.842 -0.2091  0.1475 -0.1444
50801W        W93817  14.274  30.641  17.584  0.0888  0.0238  0.0260
50802W        W93818  23.824   2.032  16.149 -0.1787  0.1681  0.0304
50803W        W93819   6.804   7.025  21.509  0.0843 -0.1187  0.0055
50804W        W93820  31.522   2.445   1.359  0.2048 -0.1289 -0.1427
50805W        W93821  13.013  33.632  14.022  0.0893  0.0771  0.1257
50806W        W93822   6.743  11.040  19.384 -0.1524 -0.1912 -0.4118
50807W        W93823   3.906   0.987  22.908  0.2640 -0.2117  0.0011
50808W        W93824   2.270  29.112  23.977 -0.3197  0.1004 -0.0260
50809W        W93825   0.205   2.916  28.851 -0.4236 -0.2481 -0.0169
50810W        W93826  18.206   9.451  12.643  0.1660  0.1606 -0.0096
50811W        W93827  23.768   6.058  21.379  0.0417  0.1779 -0.2481
50812W        W93828  13.415   9.588  14.484 -0.0715 -0.0067  0.3158
50813W        W93829  10.360  23.720  15.133 -0.0772 -0.1240 -0.0384
50814W        W93830   9.594   9.296  14.704  0.1006 -0.1365  0.2807
50815W        W93831  29.716  26.929  15.498 -0.1191  0.0494  0.1789
50816W        W93832   1.675  28.727  20.576  0.1028 -0.3400  0.2481
50817W        W93833  25.102   6.577  19.624  0.1551 -0.0246  0.0355
50818W        W93834   7.844  25.687  14.074 -0.1284 -0.0599  0.2212
50819W        W93835   8.124  26.061   2.216 -0.4105 -0.0355  0.1197
50820W        W93836  34.215   4.793  26.189  0.0569 -0.0849 -0.2110
50821W        W93837   2.666   9.068  16.365  0.0203 -0.1134 -0.0827
50822W        W93838  21.227   0.082  24.449 -0.2737 -0.2311 -0.0003
50823W        W93839  11.306  27.593  22.466 -0.0415  0.0453 -0.4064
50824W        W93840  28.933  29.579  17.190 -0.3288 -0.0249  0.0996
50825W        W93841  14.144   5.990  25.733  0.1721  0.0771  0.3162
50826W        W93842   7.671  31.835  27.590  0.4901  0.2771  0.0706
50827W        W93843  24.941  17.609   0.853  0.1933  0.0789  0.2898
50828W        W93844   9.922  32.776  27.568 -0.1071 -0.1758 -0.1052
50829W        W93845  19.758   8.114  16.293 -0.1529  0.0821 -0.0743
50830W        W93846  20.436  25.361  27.947 -0.0024  0.0936  0.3136
50831W        W93847  11.576  26.066  26.300  0.1201  0.1653 -0.0544
50832W        W93848  12.182   6.002  16.761  0.1212  0.0610  0.2632
50833W        W93849  17.729   8.713  13.601 -0.1552 -0.2428 -0.1039
50834W        W93850  19.193  34.430  20.656  0.1104 -0.0484 -0.0152
50835W        W93851   4.524  13.155  24.370  0.0786  0.2414 -0.1183
50836W        W93852  27.335  33.783   6.664  0.0192  0.3042  0.0267
50837W        W93853  18.401  24.646  26.593  0.4295  0.0273 -0.1605
50838W        W93854  32.023  30.985  18.566 -0.0242  0.0982  0.0046
50839W        W93855  15.593   0.993  18.756  0.3210  0.1232 -0.2188
50840W        W93856  17.113  28.879   0.734 -0.0532  0.0733 -0.0418
50841W        W93857  33.607   1.169  15.886 -0.1121 -0.1200  0.0551
50842W        W93858   7.867  31.100  15.373 -0.2901 -0.2744 -0.1152
50843W        W93859   9.868  32.712  15.102  0.3918 -0.2705  0.2491
50844W        W93860   0.935  10.550  23.373  0.1306  0.1213 -0.1883
50845W        W93861  12.441   2.663  23.934  0.1663  0.1688  0.3210
50846W        W93862  13.524   4.691  20.103 -0.1126  0.0294 -0.1875
50847W        W93863   2.940  18.073  16.501 -0.1978  0.2724  0.1440
50848W        W93864  16.610  34.128  26.929  0.0648  0.3753  0.1207
50849W        W93865   9.964   8.020  27.663  0.2828  0.2775 -0.0498
50850W        W93866  13.008  12.198  21.860 -0.1952 -0.0448 -0.0467
50851W        W93867   5.006  30.161  22.204 -0.0539 -0.0234  0.1805
50852W        W93868   2.226   7.736  23.714  0.2426  0.1410 -0.1384
50853W        W93869  22.147   8.740  15.434 -0.4042 -0.1013  0.1101
50854W        W93870  14.291   2.880  21.574  0.1253 -0.0256  0.0491
50855W        W93871  31.685   0.062  22.977 -0.1038 -0.0105 -0.0472
50856W        W93872  13.995  10.508  13.773 -0.1776 -0.0286 -0.1705
50857W        W93873  14.771   9.234  15.847 -0.0075  0.0351  0.0031
50858W        W93874  12.047   6.068  14.944  0.2548  0.1653 -0.2796
50859W        W93875   7.546  14.493  22.521  0.0149  0.0350  0.0802
50860W        W93876   0.482  11.677  26.419 -0.0142 -0.2024  0.0932
50861W        W93877   4.149   9.499  28.462  0.0153  0.2603  0.0736
50862W        W93878   3.023  11.026  24.267  0.2879 -0.1784 -0.1257
50863W        W93879   2.810   5.125  24.602 -0.1806  0.0238 -0.1309
50864W        W93880  17.723   0.357  19.539 -0.2538  0.0161  0.0568
50865W        W93881   9.648  23.779  19.476  0.1730 -0.2022  0.0686
50866W        W93882  26.036  34.606  22.415 -0.1907  0.0350  0.0445
50867W        W93883  18.762  34.778  16.691 -0.0959  0.0904 -0.0627
50868W        W93884  31.725  14.383  19.385  0.0213 -0.3166  0.2624
50869W        W93885  21.840   1.882   1.156 -0.1726  0.0821  0.1439
50870W        W93886   5.122  11.533  19.408 -0.3812 -0.1468 -0.1067
50871W        W93887  16.219   8.092  21.191  0.0356  0.4146  0.2433
50872W        W93888  32.733   3.243  19.606  0.2566  0.0027  0.3711
50873W        W93889   6.707   5.125  26.099  0.0260 -0.1098  0.0171
50874W        W93890  32.905  30.751  18.660 -0.3485  0.3487 -0.0379
50875W        W93891   5.438  29.533  16.338  0.1591 -0.0161  0.0896
50876W        W93892  23.499   3.887  22.810  0.0938 -0.0769 -0.0984
50877W        W93893  11.781   3.692  26.158  0.3306 -0.1992 -0.4029
50878W        W93894   6.289  23.942  16.719 -0.0464  0.2620 -0.1723
50879W        W93895  13.937  22.839  18.234 -0.0434  0.1607  0.2466
50880W        W93896  10.758   4.078  20.203 -0.0549 -0.2010 -0.2692
50881W        W93897   7.082   8.451  23.332 -0.2083  0.1854 -0.2707
50882W        W93898  20.132  30.422  14.744 -0.0691  0.0600  0.0283
50883W        W93899  10.580  28.792  18.403  0.0223  0.0334  0.1479
50884W        W93900   5.593  13.383  14.558  0.1646  0.1947  0.1204
50885W        W93901  20.461  33.921  27.974  0.1546 -0.1992 -0.0789
50886W        W93902   2.554   1.003  27.208  0.1657  0.2830 -0.0385
50887W        W93903   4.895  28.878  19.588 -0.2136 -0.1083  0.0413
50888W        W93904   2.288   0.258   0.490  0.1091  0.2157  0.2824
50889W        W93905  10.311  34.757  24.121 -0.0240  0.2218  0.2502
50890W        W93906   5.045  28.796  25.524  0.0547 -0.1961 -0.0654
50891W        W93907   8.186   3.400  15.817 -0.0439  0.2010 -0.1096
50892W        W93908   4.892  13.944  13.182  0.1859 -0.3146 -0.0221
50893W        W93909  21.957  27.716  20.004  0.1125  0.2207 -0.1255
50894W        W93910  21.594   1.461   1.176 -0.0489  0.0658  0.3643
50895W        W93911   9.969   0.932  19.708 -0.4009  0.3017 -0.0600
50896W        W93912   4.626  20.738  15.923  0.2698 -0.0325  0.0491
50897W        W93913  33.048   6.067  16.603 -0.1603  0.0816 -0.1370
50898W        W93914   4.084  33.804  21.571 -0.4594 -0.1273  0.4558
50899W        W93915  33.152  31.646   3.582 -0.1924 -0.2928 -0.1423
50900W        W93916   4.531   3.504  23.487 -0.0856  0.1276 -0.2879
50901W        W93917  32.969  27.632  29.092 -0.1196  0.2469 -0.0007
50902W        W93918  28.497  14.417  23.059 -0.1258  0.1418 -0.0576
50903W        W93919   5.422  32.425  18.605 -0.2057  0.0620  0.1556
50904W        W93920  20.358   4.879  25.221 -0.0193  0.0801 -0.2427
50905W        W93921   6.471   3.368  21.833  0.2205  0.1072 -0.2109
50906W        W93922  19.846  28.621  17.951 -0.2882  0.1279  0.1894
50907W        W93923  14.458   3.912  24.593  0.3642 -0.2255  0.2559
50908W        W93924   9.738  25.835  22.766  0.3269 -0.2554  0.1441
50909W        W93925  15.533   5.788  25.353  0.1206  0.1111  0.0029
50910W        W93926  17.771  21.814  14.123 -0.0660  0.1488  0.3425
50911W        W93927   6.411  33.136  19.653 -0.1324  0.0729 -0.1731
50912W        W93928  27.714  34.148  27.155  0.2404  0.1147  0.1315
50913W        W93929   8.389  34.038  29.078  0.1926 -0.1491 -0.0490
50914W        W93930  30.565   1.756  17.573  0.1148 -0.1162 -0.4167
50915W        W93931  34.016   2.581  19.939 -0.4068  0.0268 -0.2646
50916W        W93932   0.596  33.109  21.700  0.3918  0.1507 -0.1557
50917W        W93933  13.071  28.400  18.943  0.4494 -0.0573  0.0085
50918W        W93934  18.145  26.448  14.305  0.0347 -0.0933  0.0783
50919W        W93935   6.871  23.491  14.406 -0.1753 -0.2717 -0.0633
50920W        W93936  10.279   3.843  24.346 -0.1744 -0.1428 -0.2348
50921W        W93937  14.467  34.736  26.396  0.1462  0.0690 -0.0757
50922W        W93938   9.035  27.709  17.974 -0.2807 -0.0129  0.0208
50923W        W93939  32.888   0.421  15.352 -0.2252  0.3106  0.1238
50924W        W93940  19.613   9.590   1.386 -0.1250  0.3156 -0.0549
50925W        W93941   5.197  22.558  18.986 -0.0279 -0.4807  0.2960
50926W        W93942  10.013  12.650  21.584 -0.1655 -0.1981 -0.3823
50927W        W93943   9.707   4.181  27.826  0.2165 -0.3701 -0.4665
50928W        W93944   6.810  24.002  16.669  0.0310 -0.2217 -0.2070
50929W        W93945  24.907  10.996  25.035  0.0068 -0.3209 -0.0575
50930W        W93946   2.108   1.613  17.251  0.4596 -0.3623  0.0094
50931W        W93947   2.080  33.662  20.202 -0.3207  0.3027  0.0544
50932W        W93948   7.795  13.269  23.061  0.0197 -0.2265  0.1392
50933W        W93949  30.876   1.719  22.741 -0.4982 -0.3506  0.1509
50934W        W93950  16.392  25.501  16.729 -0.0267  0.1410 -0.1207
50935W        W93951   4.315  14.564  20.798 -0.0859 -0.0577 -0.1513
50936W        W93952  11.688  13.455  18.647 -0.1295 -0.1118 -0.2854
50937W        W93953  26.702  30.292  26.280 -0.1278 -0.2377 -0.1034
50938W        W93954   5.515  31.885  18.760  0.0194 -0.3126 -0.1226
50939W        W93955  20.872  25.356  24.861 -0.2295  0.0619 -0.0863
50940W        W93956   8.208  26.054  20.482 -0.3514 -0.0547  0.0002
50941W        W93957  24.221   4.522  16.747 -0.1794  0.0194 -0.1734
50942W        W93958  13.107  30.829  15.919  0.3441  0.2117  0.1821
50943W        W93959  31.094   4.624  15.508 -0.4691 -0.1312 -0.2981
50944W        W93960  23.995  29.600   9.240  0.3832 -0.3022 -0.0588
50945W        W93961  19.894  27.904  16.769 -0.1005 -0.0058 -0.2892
50946W        W93962  10.265  24.466  13.877  0.0881  0.0762  0.1378
50947W        W93963  23.618  25.728  23.421 -0.0010 -0.3265  0.0936
50948W        W93964  12.625   3.074   1.472 -0.0790  0.1075  0.3304
50949W        W93965  22.496   6.342  19.668  0.0471 -0.0499  0.0427
50950W        W93966  26.081  30.129  26.295 -0.2229 -0.2930  0.0385
50951W        W93967  34.372  25.082  19.333 -0.0269  0.2986 -0.2018
50952W        W93968  34.291  28.378  15.764  0.3839  0.2208 -0.1349
50953W        W93969   9.729  10.621  27.268 -0.3251 -0.1894  0.0779
50954W        W93970   3.050  11.482  25.609 -0.2910  0.0132  0.3500
50955W        W93971  15.601   1.960  26.911 -0.2536 -0.3217  0.0821
50956W        W93972   7.402   5.957   2.299 -0.0388  0.1585 -0.0506
50957W        W93973  18.817   6.995  28.562  0.1367 -0.4680 -0.0700
50958W        W93974  26.338  14.623  15.250  0.0795  0.3543  0.2676
50959W        W93975  30.526  30.000   2.532 -0.2469  0.2254 -0.1008
50960W        W93976   7.079  13.612  27.994  0.4527  0.1402 -0.1385
50961W        W93977   7.145   1.632  16.214 -0.2306  0.1479 -0.0020
50962W        W93978   3.940   1.185   5.420 -0.2453  0.2836  0.1182
50963W        W93979  21.677   2.477  14.727  0.1566 -0.0663  0.3482
50964W        W93980  18.952   8.904   0.128  0.1173  0.0921 -0.0769
50965W        W93981   9.294  11.181  26.757 -0.0046  0.0171  0.0080
50966W        W93982  19.338   0.416  20.655  0.3533  0.4607  0.0263
50967W        W93983  32.027  11.598  17.502  0.0081 -0.1840 -0.1816
50968W        W93984   0.238   2.022  28.453  0.1474  0.0109  0.2184
50969W        W93985  18.221   1.491  25.573  0.0064 -0.1199 -0.1602
50970W        W93986   7.888  21.053  20.704 -0.0122 -0.1072  0.0149
50971W        W93987  12.209  22.893   1.849  0.0860  0.0720 -0.1300
50972W        W93988  32.241   7.617  18.220 -0.0163  0.2985 -0.1280
50973W        W93989  24.779  32.637   7.733  0.0849  0.0114 -0.3199
50974W        W93990  22.890  33.585  22.225  0.0006 -0.0534 -0.1258
50975W        W93991  15.099   6.674  14.116 -0.0302 -0.2772  0.3510
50976W        W93992  10.165   2.655  17.262  0.3388 -0.3501  0.0240
50977W        W93993  25.073   8.051   1.285 -0.1466  0.0904 -0.3815
50978W        W93994   5.480  27.694  17.295  0.0705  0.1342  0.1930
50979W        W93995   7.630  33.586  18.696  0.1163 -0.2578 -0.3873
50980W        W93996  25.418   8.893  22.885 -0.2467  0.2163 -0.1755
50981W        W93997   4.671  27.021   0.409  0.0420 -0.0552 -0.0644
50982W        W93998  13.269   7.039  19.985  0.2133 -0.0702  0.2614
50983W        W93999  10.169  32.019  23.200 -0.0335 -0.0104  0.1235
50984W        W94000   4.500   1.655   7.294 -0.1350  0.1628 -0.2388
50985W        W94001  33.109  27.291  20.824 -0.0376 -0.3632  0.0668
50986W        W94002  11.485  24.208  26.885  0.0319 -0.0853 -0.0581
50987W        W94003   3.860  31.317  14.697  0.1659  0.1635  0.2037
50988W        W94004   7.815   0.547  15.366 -0.1699  0.3740 -0.0250
50989W        W94005   5.101  31.267  21.512  0.1168  0.1845  0.1385
50990W        W94006  33.524   5.531  28.925  0.0935  0.0589 -0.2506
50991W        W94007   3.307  34.090   4.946  0.2543 -0.2264 -0.1194
50992W        W94008   3.320  34.645  15.695 -0.0324 -0.2415  0.0923
50993W        W94009   9.146   6.426  19.737  0.1028 -0.2350  0.1760
50994W        W94010   7.270  32.051  25.122  0.1757 -0.1925 -0.3726
50995W        W94011   8.606   1.788  19.890 -0.1285 -0.0347  0.1451
50996W        W94012   0.318   5.500  22.197 -0.0219 -0.0034  0.1777
50997W        W94013   0.298   0.009   9.757  0.1594  0.0023  0.0038
50998W        W94014   6.433   0.927  14.691 -0.0870  0.0003  0.1453
50999W        W94015  22.764   1.213  25.102 -0.2336  0.1278  0.1238
51000W        W94016  33.990  30.143   4.653 -0.3404 -0.0708  0.0297
51001W        W94017   9.564  34.605  22.209  0.0756  0.0241  0.1802
51002W        W94018   9.748  33.470  19.210 -0.1451 -0.0373  0.2149
51003W        W94019   4.568  34.210  22.765 -0.3145 -0.0710  0.0727
51004W        W94020   4.931  23.228  14.855  0.2276  0.0111 -0.1428
51005W        W94021  10.462   0.589  18.299  0.3507 -0.3018 -0.2674
51006W        W94022  24.504  13.366  24.534 -0.0725 -0.0167  0.0253
51007W        W94023   5.842  32.760  18.387  0.1767 -0.3039 -0.2923
51008W        W94024   7.356  18.499   3.657  0.0008 -0.0332  0.0263
51009W        W94025  13.685   1.397  24.693  0.1351 -0.0865  0.0124
51010W        W94026   1.396  25.005  18.167 -0.2441  0.0766 -0.1171
51011W        W94027  32.759  32.973  16.397  0.1774 -0.1187  0.1831
51012W        W94028  22.807  27.002  15.449  0.4737  0.3396 -0.3273
51013W        W94029  10.878  25.164  28.718  0.0291  0.1484 -0.1219
51014W        W94030  13.600  29.285   0.076 -0.1511 -0.3353 -0.0240
51015W        W94031  17.192  27.273  15.682 -0.0514  0.1148 -0.1597
51016W        W94032  15.367  30.919  16.320 -0.0250  0.1447 -0.2296
51017W        W94033   7.119  15.015  28.900 -0.2078  0.0811  0.1264
51018W        W94034  10.028  21.138  20.243 -0.1078 -0.2595 -0.2140
51019W        W94035   0.374  30.026  22.818  0.0311  0.0747  0.0007
51020W        W94036  22.208  11.601  16.812  0.0146 -0.1979  0.0233
51021W        W94037  12.154   1.265   3.338 -0.2348 -0.2704  0.0735
51022W        W94038   4.498  22.920  25.351  0.1503 -0.2986 -0.0599
51023W        W94039   7.775  26.479  19.875  0.0257 -0.3408  0.0598
51024W        W94040  22.272   6.434  21.580  0.6297 -0.3729  0.0300
51025W        W94041   5.707   1.841  24.670 -0.2229  0.2338 -0.1480
51026W        W94042  11.902   2.187  19.113 -0.0813  0.1075  0.0390
51027W        W94043   3.379   0.191  25.697 -0.0564  0.1400  0.3980
51028W        W94044   0.011   2.023  25.346 -0.0864 -0.0492 -0.1677
51029W        W94045  34.064  32.778  22.319 -0.3000  0.0865 -0.0183
51030W        W94046  29.495  27.858  23.680 -0.0444 -0.0650 -0.2648
51031W        W94047  31.206  25.489  24.660 -0.1714  0.1306 -0.6139
51032W        W94048  25.164  34.286  21.108 -0.1103 -0.0517 -0.2350
51033W        W94049  25.930  26.876  20.409 -0.1633  0.0436  0.1980
51034W        W94050  14.792  28.682  14.873  0.2094  0.2574 -0.3718
51035W        W94051  22.859  33.496  20.021 -0.1822  0.1737  0.1784
51036W        W94052  13.776  21.706  21.577  0.0506 -0.1645  0.2036
51037W        W94053  33.677  30.744  17.379 -0.1148  0.0916  0.0222
51038W        W94054  16.384   3.385  15.936  0.0967 -0.3849 -0.0857
51039W        W94055  16.835  30.706  17.101  0.3153 -0.2102  0.1991
51040W        W94056  17.046  23.136  16.683  0.1064  0.0819  0.0883
51041W        W94057   5.775  21.962  18.262  0.0639  0.1404  0.0100
51042W        W94058   8.782  21.759  24.392  0.3064  0.1418  0.2390
51043W        W94059  20.554   7.250  23.779 -0.2376  0.0715 -0.0490
51044W        W94060   7.571   4.383  27.743  0.2249 -0.0025 -0.1022
51045W        W94061  29.979  31.604  24.145 -0.1462  0.1394 -0.0628
51046W        W94062   7.500  23.416  15.417 -0.0231  0.2566 -0.1316
51047W        W94063  28.797   2.983  20.096  0.1200  0.0231 -0.0399
51048W        W94064  23.378   4.810  16.893 -0.1001  0.4057 -0.0353
51049W        W94065  26.780   5.028  17.836  0.0547 -0.1025  0.0159
51050W        W94066  34.332   4.473  15.040  0.2698  0.1176  0.0003
51051W        W94067  10.400  11.967  28.748 -0.1713  0.0706  0.0931
51052W        W94068  15.316  19.801  27.523  0.0039 -0.5011 -0.0023
51053W        W94069   1.825  11.812   3.996  0.0810 -0.1327  0.0686
51054W        W94070  15.704  25.793  22.378  0.0730  0.0957 -0.0538
51055W        W94071  20.095  28.674   0.730  0.1285 -0.1827  0.2699
51056W        W94072   3.406  33.072   2.729 -0.0481  0.2142 -0.2521
51057W        W94073  15.601  31.022  22.298 -0.0548 -0.1536  0.1041
51058W        W94074  14.949  14.986  20.912  0.3031  0.1173  0.1614
51059W        W94075   5.738  27.357  24.642  0.0465  0.0814 -0.1485
51060W        W94076  33.188  34.573  20.146  0.3220 -0.1648  0.0858
51061W        W94077  16.824  12.239  21.948 -0.1271 -0.2648  0.0140
51062W        W94078  20.398  27.709  24.843  0.2024 -0.1545 -0.1014
51063W        W94079   6.045   6.117  26.370 -0.0724  0.2311  0.0443
51064W        W94080   8.895  25.696  19.384 -0.2790  0.0746  0.0415
51065W        W94081  28.984   9.096  21.328 -0.3799 -0.0074  0.1878
51066W        W94082  24.978  17.258  15.636 -0.2840 -0.1164  0.0312
51067W        W94083   0.613  11.032  23.227 -0.1824 -0.3447  0.1556
51068W        W94084  32.036   4.871  15.717 -0.1374 -0.1540  0.0201
51069W        W94085  24.562  26.610  26.722 -0.2035  0.1535 -0.1229
51070W        W94086  19.345  28.642  19.537  0.3358 -0.0211  0.1612
51071W        W94087   9.693  34.444  16.441 -0.0398 -0.0176  0.3729
51072W        W94088  21.276   0.787  15.379  0.3158 -0.0192 -0.0013
51073W        W94089   6.465   0.945   2.142  0.1477  0.1345  0.3250
51074W        W94090  17.389  27.801  23.624  0.0734  0.2514  0.0213
51075W        W94091   6.008  34.705  21.862  0.1470 -0.2945  0.1241
51076W        W94092  27.362  24.162  16.155 -0.1005  0.1014  0.3569
51077W        W94093   1.671  24.104  16.162 -0.0662 -0.0179  0.0791
51078W        W94094  34.416   6.812  22.616  0.5692 -0.2032 -0.1029
51079W        W94095   2.185  22.527   2.881  0.3940  0.2363 -0.0038
51080W        W94096  10.331  31.051  18.843 -0.1524  0.0127 -0.1252
51081W        W94097   8.241  20.510  21.049 -0.1149 -0.1694  0.0946
51082W        W94098   7.670   9.293  28.064  0.0252  0.1173 -0.3824
51083W        W94099  34.277  32.847  23.647 -0.0745  0.2168  0.0713
51084W        W94100   5.543  33.778   2.489 -0.2180  0.1103 -0.1578
51085W        W94101   6.522   1.286  23.527  0.2813 -0.1977 -0.2979
51086W        W94102  10.385  25.218  21.896  0.1563  0.3963  0.0757
51087W        W94103  12.625  24.151  16.367  0.1642 -0.1481  0.0463
51088W        W94104   7.122   8.178  14.219  0.0611  0.2108  0.1372
51089W        W94105  30.526  23.674  24.854  0.2501  0.0947  0.1329
51090W        W94106  20.992  30.806  24.235  0.2212  0.1643 -0.1071
51091W        W94107  30.506  17.617  15.177  0.1211 -0.1120  0.0364
51092W        W94108  10.827  12.266  13.072  0.1444  0.2100  0.2603
51093W        W94109   6.117  11.201  21.096  0.0126 -0.0432 -0.0668
51094W        W94110  14.222   7.883  19.633  0.1364  0.0254  0.2859
51095W        W94111   8.453  25.208  21.860 -0.0354  0.1935  0.1139
51096W        W94112   9.924  16.573  15.547 -0.1136  0.1328  0.0881
51097W        W94113  12.986  25.000  22.209 -0.0229 -0.3152 -0.2972
51098W        W94114  13.595   6.225  27.914 -0.2606  0.3045  0.1210
51099W        W94115  26.943  18.472  23.903  0.0532  0.1356  0.0466
51100W        W94116   0.036   6.245  16.102 -0.0019 -0.3030  0.2574
51101W        W94117  31.212  11.414  25.159 -0.0437 -0.0218 -0.1256
51102W        W94118  14.043  30.146   3.337 -0.2143  0.1873 -0.1781
51103W        W94119  13.639   4.319  14.545  0.0971 -0.0689  0.0395
51104W        W94120  17.733  26.421  17.026  0.1367 -0.3508  0.0131
51105W        W94121   8.668  32.748  19.364  0.1239  0.1334 -0.1562
51106W        W94122   5.202  31.138  22.735 -0.2362  0.2498 -0.0003
51107W        W94123   9.642   6.685  19.055  0.0261  0.0310  0.0595
51108W        W94124   5.675  29.627  25.551  0.2132  0.2795 -0.1289
51109W        W94125  26.606   2.571  18.770  0.0378 -0.0107  0.2023
51110W        W94126   4.176  11.162  22.706 -0.0978 -0.0469 -0.0676
51111W        W94127  10.731  15.121  25.043  0.0820  0.0391 -0.1931
51112W        W94128   8.196  10.405  18.658  0.1894 -0.0354  0.4339
51113W        W94129   9.299  23.048  23.567  0.0328  0.2458  0.2404
51114W        W94130  11.764   4.370  19.637 -0.1663  0.5165 -0.0190
51115W        W94131   5.143   0.102  16.673 -0.1644  0.1523  0.0981
51116W        W94132  19.745   3.550   8.340 -0.0899  0.2047  0.0104
51117W        W94133  11.473   3.356  26.473 -0.1927  0.0093 -0.0760
51118W        W94134   2.256  14.649  16.683 -0.1124 -0.3563 -0.1493
51119W        W94135   4.435  26.983  15.500  0.0233 -0.0931  0.1508
51120W        W94136  13.317  29.405  21.191 -0.0201  0.0882  0.4074
51121W        W94137   5.737   2.805  24.805 -0.2020  0.0781  0.1462
51122W        W94138  28.089   0.123   9.276 -0.0022 -0.4958  0.4094
51123W        W94139  24.383  30.569  19.510 -0.2246  0.0891  0.0042
51124W        W94140   1.289  30.099   0.019 -0.0645 -0.1517  0.1663
51125W        W94141   8.004  32.382  23.227 -0.3792  0.2352  0.2881
51126W        W94142   4.133   6.186  19.336 -0.0131 -0.1820  0.2251
51127W        W94143   3.533  33.746  24.394 -0.0169  0.2987 -0.0050
51128W        W94144   2.191   0.921  19.723 -0.0021 -0.3141  0.0166
51129W        W94145  14.570   3.662  20.949 -0.1888 -0.3617 -0.2357
51130W        W94146  33.910  13.455   0.282 -0.5900 -0.1338  0.3979
51131W        W94147   2.633  21.105  18.738  0.0762 -0.4539  0.1683
51132W        W94148  31.780  19.415  27.032  0.1958 -0.0060  0.1665
51133W        W94149  14.238  30.953  19.630 -0.0510  0.1135  0.3111
51134W        W94150  18.061   4.736  19.546 -0.1870  0.2974 -0.0906
51135W        W94151  27.477  13.167  20.774 -0.0796 -0.0398 -0.3001
51136W        W94152  22.463   0.051   3.712 -0.1315  0.1903  0.1585
51137W        W94153  34.275  13.585   9.838  0.0847  0.0124 -0.0243
51138W        W94154  34.533  31.607  17.370  0.0404  0.1388  0.3557
51139W        W94155   4.789  11.474  25.745  0.1095 -0.1108  0.0375
51140W        W94156   6.403  28.569  19.353 -0.0767  0.0236 -0.0546
51141W        W94157   2.798   1.570  20.965 -0.0613  0.0597  0.0361
51142W        W94158  10.670  26.432  27.110 -0.0323  0.0097 -0.0850
51143W        W94159  17.405  25.776  25.495 -0.0119 -0.2303  0.1455
51144W        W94160  34.056  19.774  16.465  0.2000  0.0168 -0.0306
51145W        W94161  14.811  31.184  22.618  0.0583 -0.1775 -0.0084
51146W        W94162  15.620   7.924  23.467 -0.0996  0.1006  0.0726
51147W        W94163  12.645   1.816  23.425 -0.0581 -0.1534 -0.1938
51148W        W94164  32.296  28.241  28.597 -0.1059 -0.0434 -0.1390
51149W        W94165   4.536  32.905  16.232  0.1507 -0.0834  0.0131
51150W        W94166  31.279  12.922  28.996 -0.0433 -0.0260  0.2261
51151W        W94167   0.289   3.914  28.770  0.1578 -0.1212  0.0178
51152W        W94168   9.420   9.084  27.261  0.0149  0.2560  0.0461
51153W        W94169  33.330  34.706  23.166 -0.2889 -0.1143  0.1748
51154W        W94170  13.936  14.608  14.725  0.2525 -0.0951 -0.4677
51155W        W94171  34.285  33.995  20.217  0.1841  0.1168 -0.2298
51156W        W94172  18.347   6.411  17.164 -0.0143 -0.3732  0.0217
51157W        W94173   2.118  10.651  18.107  0.1381 -0.3392  0.1992
51158W        W94174  18.290  31.012  19.148  0.1866 -0.0187  0.2787
51159W        W94175  34.103  23.381  22.920  0.1696 -0.3711 -0.1041
51160W        W94176   5.046  32.896  19.023  0.1640  0.0424 -0.0869
51161W        W94177  18.740   3.163  14.608 -0.0464 -0.3387 -0.2278
51162W        W94178   8.398  13.551  29.108  0.1175 -0.2281  0.0726
51163W        W94179  22.522  18.442   4.475  0.0184 -0.0333 -0.2188
51164W        W94180  14.528  28.118  16.672  0.1737  0.3688  0.0726
51165W        W94181  23.561  18.829  26.980 -0.1776 -0.0032 -0.4059
51166W        W94182  14.690   1.969  17.457 -0.1245 -0.0973 -0.2146
51167W        W94183  14.783   4.615  23.270  0.0489 -0.1517  0.1512
51168W        W94184  30.107  24.670   8.280  0.0747 -0.1292 -0.1832
51169W        W94185   1.018  10.315  18.386 -0.0513  0.1335 -0.2632
51170W        W94186  25.196  32.606  21.432 -0.1967  0.2032  0.1775
51171W        W94187  34.242   4.559  28.376 -0.3615 -0.2486 -0.2382
51172W        W94188  26.912   3.952  25.752 -0.2437 -0.0401  0.0905
51173W        W94189  19.440  22.309  19.624 -0.4695 -0.1689 -0.0958
51174W        W94190   7.289  15.579  27.620  0.2525  0.0094 -0.0484
51175W        W94191   7.109   0.854  20.384 -0.1464  0.3256  0.1534
51176W        W94192  17.907   7.096  15.654 -0.0186  0.1379  0.0027
51177W        W94193   1.476   1.523   8.236 -0.0001 -0.2711 -0.3647
51178W        W94194  21.101  28.424  25.780  0.0750 -0.3153  0.2030
51179W        W94195  16.506   3.304  24.285 -0.0713  0.2039  0.0007
51180W        W94196   4.758  26.906  14.584  0.0154  0.2176  0.1435
51181W        W94197   7.073   2.560  21.826 -0.0521  0.1791  0.4010
51182W        W94198   4.418  34.098  23.854  0.0362  0.0877 -0.0119
51183W        W94199   9.882  19.600  29.292  0.1238 -0.0913 -0.0336
51184W        W94200   0.646   2.382   0.317 -0.1312 -0.0003 -0.1745
51185W        W94201  29.941   4.805   4.318  0.2235  0.0405  0.2551
51186W        W94202  13.943  11.190  17.704  0.0510  0.2116  0.1979
51187W        W94203  15.079   2.769  20.278  0.1652  0.2383  0.0738
51188W        W94204   8.283  20.691  29.103  0.2638 -0.2698  0.0377
51189W        W94205  10.833   8.452  13.456 -0.3011  0.0448 -0.2858
51190W        W94206   9.256   7.544  22.368 -0.1645 -0.0048  0.2981
51191W        W94207  15.691   6.245  16.486  0.2060 -0.1839  0.1041
51192W        W94208  20.218  24.729   0.833 -0.2853  0.1370 -0.0110
51193W        W94209  18.398   7.666  21.602 -0.1425  0.0228  0.0979
51194W        W94210  15.162  26.241  26.941  0.2443  0.2314 -0.1853
51195W        W94211  22.815  29.011   3.091 -0.3686 -0.0148 -0.0559
51196W        W94212  16.999   7.379   3.160  0.3248 -0.4036 -0.1547
51197W        W94213  32.086  32.992   2.104 -0.1146  0.0744 -0.0333
51198W        W94214  11.179   6.149  21.414 -0.0224  0.0454  0.3406
51199W        W94215   4.474   0.647  19.625  0.2476 -0.1502 -0.2309
51200W        W94216  28.191   7.438  20.616  0.2412 -0.0112  0.0522
51201W        W94217   6.603   1.201  25.814 -0.1217  0.0937  0.2817
51202W        W94218   3.540  10.242  15.977  0.1951  0.1439 -0.0485
51203W        W94219   0.837   5.711  18.797 -0.0151  0.1941  0.3572
51204W        W94220   5.562   6.027  29.041 -0.1459 -0.1448 -0.1508
51205W        W94221  27.448  10.292  14.642 -0.3612  0.1556 -0.2472
51206W        W94222   7.695  22.590  28.662 -0.0857  0.1952  0.2349
51207W        W94223  33.418  12.485   6.514  0.0563  0.0002 -0.0810
51208W        W94224   7.294  18.384  14.084  0.0927 -0.1953  0.1152
51209W        W94225   3.604  17.247   3.245 -0.0682 -0.0653  0.2209
51210W        W94226  31.923  16.156  22.897  0.0907 -0.0184  0.2808
51211W        W94227   8.494  21.546  27.685  0.1224 -0.0290  0.0779
51212W        W94228  17.555   3.686   8.855 -0.1338  0.1045  0.0172
51213W        W94229  14.845   1.969  23.364  0.1279  0.0664  0.1888
51214W        W94230  33.525  11.296  25.325 -0.1620  0.0345  0.2575
51215W        W94231   1.343   7.796  23.640 -0.1498  0.1256  0.0901
51216W        W94232  32.929  24.153  29.300 -0.1179 -0.1677 -0.0094
51217W        W94233   7.283   3.773  18.765  0.2773  0.2948  0.0688
51218W        W94234  23.835  31.310  28.232  0.2398 -0.0384  0.1461
51219W        W94235   5.317  14.344  14.766  0.1362  0.1360 -0.2327
51220W        W94236  17.124  13.303  27.887  0.1118  0.1357  0.2023
51221W        W94237  16.353   8.837  23.255 -0.0470 -0.0760 -0.0396
51222W        W94238  18.886  19.489  12.502 -0.0093  0.0102  0.0323
51223W        W94239   8.294  15.240  16.874  0.0794 -0.1286  0.0031
51224W        W94240  33.817  29.323  18.673 -0.1123 -0.1687  0.0039
51225W        W94241  18.605  30.572   3.785  0.1111 -0.3267  0.0850
51226W        W94242  14.947  25.828  19.006 -0.3878  0.1718 -0.3359
51227W        W94243   2.175  34.085  21.031  0.0954 -0.2817  0.1301
51228W        W94244   5.773  27.775   9.113  0.1601  0.1804 -0.1561
51229W        W94245  19.909  20.397  24.148  0.0282 -0.1111  0.0419
51230W        W94246   0.435  33.507   7.513  0.1315 -0.0233 -0.0419
51231W        W94247  10.164  30.586  28.476  0.0280  0.4571  0.0232
51232W        W94248  15.016  32.331  22.296 -0.0247 -0.0031 -0.0606
51233W        W94249  23.892   3.394  20.843 -0.2273 -0.2032  0.3574
51234W        W94250  15.764  24.007  13.634  0.1089 -0.0322  0.1498
51235W        W94251  20.768   1.847  25.961 -0.0127 -0.0550  0.0577
51236W        W94252   2.345  31.778   0.449 -0.2905  0.0701  0.1012
51237W        W94253  12.792  33.571  24.861  0.0193  0.1858  0.0734
51238W        W94254   0.562  32.298  18.138  0.3046  0.2013  0.3427
51239W        W94255  21.154  24.996  19.905  0.1158  0.0077  0.2162
51240W        W94256   9.305   4.167  19.027  0.2640 -0.1258 -0.2906
51241W        W94257  11.388  34.144  28.587 -0.2066 -0.1444  0.1223
51242W        W94258   4.533   7.489   8.398 -0.0769  0.0041  0.0252
51243W        W94259  21.839  14.223  22.089  0.0156  0.0974  0.2108
51244W        W94260  12.842   0.883  24.398  0.3699 -0.1298  0.0776
51245W        W94261  12.857  21.311  29.080 -0.3206  0.1054  0.0257
51246W        W94262   7.197  32.455  23.817  0.4309  0.2196 -0.0251
51247W        W94263  19.276   0.238   8.923 -0.3321 -0.0503  0.0635
51248W        W94264   7.788  21.905  19.943 -0.0520 -0.1075  0.0022
51249W        W94265   7.987   7.684   7.515  0.1996  0.0529 -0.0844
51250W        W94266  32.713  29.408  17.981 -0.1488 -0.0785 -0.0175
51251W        W94267  34.065  22.763   9.834 -0.0825  0.1339  0.2828
51252W        W94268  18.517  31.574  28.503  0.3092  0.0011  0.0259
51253W        W94269  19.566  32.896  24.961 -0.0610 -0.5019 -0.4477
51254W        W94270  27.436  12.061   2.785 -0.0012 -0.0898 -0.0418
51255W        W94271   9.102  27.195   8.920  0.1258 -0.0062 -0.1344
51256W        W94272  17.818   5.682  13.697  0.0071  0.1252 -0.1180
51257W        W94273  24.785  32.605  19.420  0.0703 -0.1597  0.1408
51258W        W94274  12.321   0.077   1.005  0.0717  0.1233 -0.0428
51259W        W94275  21.210   4.993  20.733  0.0705 -0.1539 -0.2074
51260W        W94276  29.799  26.182  22.347  0.0453  0.1725 -0.1671
51261W        W94277  18.589  28.632  25.023  0.1620  0.2286 -0.1255
51262W        W94278   1.992  32.774  25.554  0.0300 -0.0491 -0.0407
51263W        W94279  18.175  31.277   8.202  0.0311  0.1171 -0.0216
51264W        W94280  28.415   4.410  16.917  0.1331 -0.3181 -0.0333
51265W        W94281  10.608  30.571  28.203  0.0940  0.1923 -0.0206
51266W        W94282   6.825  32.686  27.898 -0.0344 -0.0955 -0.0763
51267W        W94283  17.033  28.360   2.605  0.3024  0.4279 -0.1700
51268W        W94284  15.783   8.804  28.873  0.1167 -0.1064 -0.1373
51269W        W94285  17.724  29.019  18.895  0.1017  0.0024 -0.2783
51270W        W94286  11.139  23.802  14.335 -0.0207  0.1517  0.4858
51271W        W94287  20.482   6.523  17.843  0.3263  0.0558 -0.0212
51272W        W94288   7.015  13.088  13.301  0.2585  0.2269 -0.1169
51273W        W94289  24.211   5.216  27.315 -0.0937  0.1421  0.0856
51274W        W94290  24.704  14.477   6.798 -0.0051 -0.0067  0.2111
51275W        W94291   4.596  15.965  27.802 -0.0861  0.0683 -0.2444
51276W        W94292  10.824  34.375   1.181  0.1395 -0.1465 -0.1388
51277W        W94293  32.901   0.695  15.765 -0.0361  0.0262  0.3083
51278W        W94294  11.748  17.801   4.069  0.1464  0.1071  0.0575
51279W        W94295   4.443  30.175  16.479  0.1636 -0.1373 -0.2944
51280W        W94296  10.002  34.409   4.441  0.2414 -0.1778  0.0883
51281W        W94297  21.051   4.929  25.124  0.0904 -0.1060  0.0330
51282W        W94298   8.369   0.958  26.487  0.2484  0.0033  0.3235
51283W        W94299   5.802  14.108   3.065  0.3255  0.1642  0.1363
51284W        W94300  15.457  20.286  12.338  0.2175  0.3675 -0.1379
51285W        W94301  15.644   8.322  28.658  0.3503  0.0993  0.0187
51286W        W94302  18.050  26.789  14.704 -0.0590 -0.2251  0.3529
51287W        W94303   8.009  15.549  26.974  0.0874  0.1446 -0.2782
51288W        W94304   6.655  32.419  15.368 -0.2059  0.1289 -0.0923
51289W        W94305   5.228  24.597  25.747 -0.0479 -0.2297  0.1802
51290W        W94306   2.388  22.980  21.837  0.1636 -0.0955 -0.1325
51291W        W94307   1.757   5.659  20.844 -0.0922 -0.0866  0.0565
51292W        W94308  13.902  29.814  23.053  0.0808  0.0466  0.1947
51293W        W94309   6.791   4.885  22.192  0.0886 -0.2873 -0.0936
51294W        W94310  14.610  25.524  20.408 -0.1601  0.2305 -0.0208
51295W        W94311  10.548   5.308   6.566 -0.2892 -0.1244  0.1445
51296W        W94312  20.272   2.791  16.780  0.0433 -0.1434 -0.0123
51297W        W94313  12.496  30.486   6.542 -0.0546  0.1071  0.0739
51298W        W94314  13.716   1.359  18.927 -0.1020 -0.0428 -0.4051
51299W        W94315  18.318  29.556  25.255 -0.0136  0.2561 -0.0817
51300W        W94316  34.072  30.872  22.204 -0.0147  0.2430 -0.1712
51301W        W94317  11.361   0.097  24.611 -0.0603 -0.3877  0.3081
51302W        W94318  14.524  29.819  28.150 -0.0472 -0.0385  0.1999
51303W        W94319   7.267   2.531   6.671 -0.2762 -0.1523  0.2216
51304W        W94320  26.630   5.626  18.344  0.0835  0.0984 -0.2138
51305W        W94321  13.022  33.535  26.536 -0.1133  0.3229 -0.0897
51306W        W94322   0.809  29.661  23.534 -0.1629  0.2241 -0.0773
51307W        W94323  19.612  30.250  23.266  0.3143  0.0128  0.2929
51308W        W94324  28.611  30.094  24.699  0.0372 -0.1836 -0.0938
51309W        W94325  12.672  32.998   6.597 -0.1819 -0.4216 -0.1914
51310W        W94326  30.039   1.563  20.213  0.1076  0.1266  0.3071
51311W        W94327  28.111  25.150  18.514 -0.0462  0.0207 -0.2389
51312W        W94328   7.257   6.546  17.604  0.1425 -0.0514 -0.2377
51313W        W94329  32.863  22.857   8.654  0.1640  0.0199 -0.2807
51314W        W94330  27.880   4.347  25.895  0.0575 -0.2170  0.1261
51315W        W94331  20.799  14.416  12.088 -0.1309 -0.0909 -0.2407
51316W        W94332   4.086  14.261  14.763  0.1739  0.0248 -0.0100
51317W        W94333   3.918  32.237   2.292 -0.0273 -0.1584  0.0845
51318W        W94334  15.427  26.065  24.100  0.3812  0.2210  0.3380
51319W        W94335  31.625  29.646   0.915  0.1537 -0.1110 -0.0733
51320W        W94336  26.148  19.628  20.687 -0.1479 -0.0402  0.1720
51321W        W94337  30.224  16.708   3.099 -0.2182 -0.0334  0.1507
51322W        W94338   6.778  19.377  16.921 -0.2995  0.2077  0.1034
51323W        W94339   7.305  18.524  28.657 -0.1652  0.1782  0.0282
51324W        W94340  11.193  32.444  26.406 -0.1213 -0.0443 -0.2012
51325W        W94341   7.349   7.865  17.563 -0.0751  0.2096 -0.0990
51326W        W94342  25.148  24.424  15.013  0.0257  0.2092  0.0435
51327W        W94343  30.965  34.096  20.667  0.1816  0.4809 -0.1113
51328W        W94344   6.399   4.848   5.952 -0.1598 -0.1379  0.0984
51329W        W94345   5.771   1.942  22.020 -0.0716  0.0841  0.0963
51330W        W94346  17.991  34.024  21.577  0.1310 -0.3217  0.0859
51331W        W94347  23.239  33.799  26.021 -0.2978  0.2141  0.0200
51332W        W94348  11.733  27.574  19.772  0.1531 -0.1960  0.2858
51333W        W94349   9.960   7.665  21.331  0.0571 -0.1936  0.0566
51334W        W94350   5.140  33.746  14.267  0.0888  0.1611  0.0857
51335W        W94351  10.194  18.796  27.548 -0.3533  0.1523 -0.1632
51336W        W94352  17.588   7.830  14.987  0.1272  0.0389  0.3557
51337W        W94353  18.553  32.169  27.838 -0.2216  0.0761 -0.6525
51338W        W94354   2.619  28.791  26.271 -0.3015 -0.1667 -0.3087
51339W        W94355  13.447  30.059  28.687 -0.3271  0.3719 -0.2807
51340W        W94356   3.390  28.740  14.532 -0.1530  0.1304  0.0403
51341W        W94357  17.528  24.819  13.714 -0.5124 -0.2192  0.3277
51342W        W94358   0.862  14.347  22.862  0.0711 -0.1992  0.2745
51343W        W94359  19.708   2.819   0.855 -0.1064 -0.0555  0.0480
51344W        W94360   8.067   4.088   0.249  0.0939  0.0034 -0.1129
51345W        W94361   4.182  28.781  20.299  0.0339 -0.1156  0.0393
51346W        W94362  15.945  33.007  20.244  0.1526 -0.0876  0.1820
51347W        W94363  10.143  27.486   7.091  0.1305 -0.3427  0.2012
51348W        W94364  33.871  33.704  20.122 -0.0916  0.0641 -0.1049
51349W        W94365   7.409  33.956  27.053 -0.0362  0.1571  0.0616
51350W        W94366  34.266  15.023  26.415  0.3409 -0.3404  0.2441
51351W        W94367  10.669  23.816   3.757 -0.2576 -0.1625 -0.2849
51352W        W94368  19.589  31.506  18.231 -0.1396  0.1928  0.0498
51353W        W94369  22.466  13.677  16.684 -0.0860  0.0483  0.1056
51354W        W94370   8.414  19.378  15.067  0.0622  0.2189  0.1848
51355W        W94371   7.009  32.690  22.405  0.0162  0.3445  0.1162
51356W        W94372   6.108  24.818  21.874  0.0346 -0.0383  0.2327
51357W        W94373  15.959   0.319  24.984 -0.0960 -0.2084  0.4069
51358W        W94374  11.963  18.567  27.395  0.1643  0.0022 -0.1205
51359W        W94375  10.008  25.590   0.048  0.0970  0.3571  0.0668
51360W        W94376  32.874  11.124  22.479 -0.0659 -0.0619  0.2605
51361W        W94377  32.295  34.643  17.394 -0.2087  0.1018 -0.0909
51362W        W94378   3.364   5.434  16.096  0.0061 -0.4100 -0.0925
51363W        W94379  26.707   4.712   4.415 -0.3790 -0.1322  0.1442
51364W        W94380   8.344  26.463   4.725  0.1149 -0.0950  0.1888
51365W        W94381   4.310   7.171   8.944  0.2162 -0.2505  0.1694
51366W        W94382  10.643  29.583  20.469  0.2519 -0.0523  0.0860
51367W        W94383  17.226   0.826  21.839  0.3801 -0.0679  0.0913
51368W        W94384   7.398  14.111   8.217 -0.1918  0.3363 -0.2094
51369W        W94385   7.427  18.771  12.866  0.2095 -0.0214 -0.0139
51370W        W94386   2.873  30.928   2.378  0.0750 -0.1208 -0.0554
51371W        W94387  32.910  15.116  21.178 -0.2215  0.2346 -0.0930
51372W        W94388  14.058  13.116  24.896  0.2519 -0.0066 -0.2214
51373W        W94389  27.425  20.450  24.386 -0.0538  0.0421  0.4241
51374W        W94390   1.876  19.395  15.326 -0.0048 -0.0623 -0.1774
51375W        W94391   5.328   9.785  28.541  0.2937  0.0139 -0.0244
51376W        W94392   2.260  24.524   1.162 -0.5645  0.1227 -0.0308
51377W        W94393  32.160  26.777   3.492  0.2016  0.0668  0.0022
51378W        W94394  13.659   8.339   0.535 -0.2155 -0.1135 -0.0143
51379W        W94395  31.381  29.706   2.188  0.1547  0.2185  0.1977
51380W        W94396   4.549  31.336  15.286 -0.0758 -0.0467  0.2083
51381W        W94397  29.475  23.656  17.749 -0.1717 -0.3674 -0.0587
51382W        W94398  23.690   7.363  24.777  0.2549  0.3169 -0.0467
51383W        W94399  32.163   5.304  19.842  0.3896  0.1099  0.0455
51384W        W94400   1.654  31.440   1.319 -0.3313 -0.3390 -0.1653
51385W        W94401  28.457  21.375   8.213 -0.0730  0.4966 -0.0177
51386W        W94402   4.308  17.675   4.488  0.1558  0.1698 -0.2350
51387W        W94403  25.311  10.611   3.101  0.0164 -0.0917 -0.2444
51388W        W94404  10.834  27.720   3.156  0.1827  0.1304  0.0156
51389W        W94405  28.667  28.018  10.159  0.1214  0.1439 -0.1788
51390W        W94406  10.630   3.686  21.525 -0.2471  0.2466  0.3628
51391W        W94407  28.780  25.717  28.668  0.2866 -0.0658 -0.0488
51392W        W94408   1.389  25.396   3.640 -0.3164 -0.2357 -0.1211
51393W        W94409  11.655   8.659  21.475  0.0770  0.0327  0.1095
51394W        W94410   2.870  26.544  27.983 -0.3048  0.2157 -0.1799
51395W        W94411  33.357  20.671   0.784 -0.0507  0.0986 -0.4857
51396W        W94412  32.769  29.704  22.807 -0.2312 -0.0474 -0.2830
51397W        W94413  16.300   6.406  18.880  0.1362  0.3489  0.0186
51398W        W94414   5.844  14.127   7.270  0.0988 -0.3045 -0.3111
51399W        W94415  32.670  29.475   9.254  0.3104  0.1015 -0.1869
51400W        W94416  34.101   3.339   0.904  0.1560 -0.2731 -0.1949
51401W        W94417  28.349   6.124   5.389 -0.3590 -0.0738  0.0395
51402W        W94418  10.190  33.712  19.192 -0.2117 -0.1600  0.1503
51403W        W94419  16.366  30.133   9.948 -0.2630  0.0789 -0.2466
51404W        W94420   9.325  15.711  16.062  0.0625 -0.1874  0.2932
51405W        W94421   8.877  25.350   6.069 -0.3301  0.2719 -0.2473
51406W        W94422   2.790  30.564  23.174  0.0339  0.3033  0.0738
51407W        W94423   5.446  30.927   0.829 -0.2425 -0.1289  0.1284
51408W        W94424  12.813  29.335   2.347  0.0348 -0.7832  0.1995
51409W        W94425  13.785  29.245   2.749  0.3509 -0.1669 -0.2514
51410W        W94426  16.252  27.987  24.294  0.1807  0.0425 -0.0611
51411W        W94427  21.303  10.463   4.411 -0.5067 -0.0690  0.1534
51412W        W94428  11.122  18.575  17.390  0.0050 -0.3223  0.2089
51413W        W94429  18.898  26.365   3.094  0.4563 -0.0197  0.0310
51414W        W94430  16.018  32.902  19.246 -0.1800  0.5111  0.0142
51415W        W94431  21.556  12.248   0.095 -0.1973  0.2684 -0.4002
51416W        W94432   6.305  25.992   1.950  0.3499  0.1237 -0.1583
51417W        W94433   5.347   7.385   7.916 -0.1868 -0.0536  0.2496
51418W        W94434   9.807  23.790  26.325 -0.3412 -0.2697  0.0389
51419W        W94435  11.564  30.448  20.708  0.3279 -0.1220 -0.3157
51420W        W94436  11.626  33.675   8.009  0.2615 -0.2521 -0.1236
51421W        W94437   5.733   8.066   3.078  0.1129  0.1510  0.1559
51422W        W94438  32.807   8.941  20.257  0.1991 -0.4990 -0.3761
51423W        W94439  11.524  32.985  26.866 -0.0624 -0.1669  0.2135
51424W        W94440  22.274   0.089  23.074 -0.1871 -0.1911 -0.4082
51425W        W94441   5.665  18.014  17.302 -0.1956  0.1022  0.4311
51426W        W94442  27.770  27.230   6.973 -0.0800  0.1095 -0.2358
51427W        W94443   4.637  29.647  19.693 -0.1739 -0.3544 -0.1084
51428W        W94444   8.252  21.621  14.448 -0.2422 -0.0090  0.1617
51429W        W94445  29.503   8.359  29.097 -0.1544  0.1437  0.0031
51430W        W94446  32.578  32.358   0.072  0.2608 -0.3606  0.1360
51431W        W94447  27.159  27.810  24.142 -0.0259 -0.0792  0.1998
51432W        W94448  19.862  28.642  23.673  0.2026 -0.0807  0.1291
51433W        W94449  29.385  14.982  24.676  0.1291 -0.0263  0.0595
51434W        W94450   2.926  33.154  18.525  0.1181 -0.0730 -0.1240
51435W        W94451  12.799  26.119   1.281  0.3419 -0.0422  0.0492
51436W        W94452   6.622  21.500  16.245 -0.1912 -0.3095 -0.0356
51437W        W94453   6.733  29.929  28.126  0.0374  0.2334  0.0413
51438W        W94454   8.153  25.225   2.771 -0.2593  0.2395 -0.1361
51439W        W94455   8.851   4.507  16.934 -0.0741 -0.1223  0.0104
51440W        W94456  25.680  10.716  15.378 -0.1714  0.1023 -0.0531
51441W        W94457  26.155   6.903  21.321  0.1862  0.0468  0.3586
51442W        W94458   7.104  21.519  16.281 -0.1709  0.1135 -0.1702
51443W        W94459  15.600   8.760   1.960 -0.1197 -0.0552 -0.1022
51444W        W94460  11.877  31.369  20.622 -0.0019  0.0855 -0.1771
51445W        W94461   7.454  10.705   2.919 -0.1534 -0.1006 -0.0451
51446W        W94462  33.385  26.272   2.390  0.0852 -0.1444 -0.0087
51447W        W94463   9.796  30.609  16.759 -0.1272  0.2368  0.0739
51448W        W94464  28.184  28.958  16.109  0.1758 -0.1556 -0.3406
51449W        W94465  18.981   4.130  14.100 -0.3597  0.0451  0.0629
51450W        W94466  15.007   4.592  19.800 -0.0558  0.2263 -0.0072
51451W        W94467   8.640   7.129   3.392 -0.0989  0.1098  0.0429
51452W        W94468  15.517  25.154   9.110  0.0714  0.1218  0.1151
51453W        W94469  13.402  28.213   1.720  0.2336  0.1904 -0.4060
51454W        W94470  32.913   8.285   5.170 -0.1034  0.0810  0.1015
51455W        W94471  33.788  21.995  17.162 -0.1235  0.0268  0.0126
51456W        W94472  21.274  33.674   2.503 -0.1437  0.0389  0.1889
51457W        W94473   3.918  33.722  15.054  0.3073 -0.2363  0.1413
51458W        W94474  31.489   4.416  18.511 -0.2110  0.2405 -0.1697
51459W        W94475   7.946  21.956  24.161 -0.0619 -0.1812  0.1004
51460W        W94476   7.549  13.820   4.689  0.0654 -0.0326  0.0905
51461W        W94477   8.658   5.829  18.297 -0.0070 -0.0805 -0.3446
51462W        W94478  29.225   1.536  27.008 -0.3651 -0.0624  0.2313
51463W        W94479   0.142  27.409   8.815  0.1404  0.1172  0.3906
51464W        W94480  10.878  34.044   8.145 -0.6432 -0.3060 -0.0685
51465W        W94481  22.423   6.034  25.510 -0.2822  0.1854  0.1594
51466W        W94482  10.514  34.250   6.675 -0.0768 -0.1619 -0.1444
51467W        W94483  12.747  34.210   9.739  0.0837 -0.0626 -0.2086
51468W        W94484  11.325  17.749  25.398 -0.0413 -0.0918 -0.1857
51469W        W94485  22.721  14.009  24.368 -0.0791  0.3135  0.1295
51470W        W94486   6.632  30.944  25.146 -0.4010  0.3057 -0.2897
51471W        W94487  20.496   1.047   2.679 -0.2107  0.0174 -0.0541
51472W        W94488   9.425   0.940  15.051  0.0658 -0.1527  0.1026
51473W        W94489   0.415  22.150  25.768  0.1098  0.0050 -0.1197
51474W        W94490   9.844  10.397   3.187 -0.1711  0.0707  0.2981
51475W        W94491  24.295   5.379  24.488  0.0934 -0.1425 -0.2348
51476W        W94492   4.372  26.499   1.540 -0.0602 -0.1137  0.0972
51477W        W94493  28.233  23.463  17.772  0.2320 -0.0981 -0.1689
51478W        W94494  28.651  22.924  26.196 -0.0204 -0.2765  0.3364
51479W        W94495   4.452   3.413  25.614 -0.0273  0.1288  0.1239
51480W        W94496  27.150  24.397  28.493  0.1639  0.1641  0.0214
51481W        W94497  21.837  32.982   5.567 -0.0918  0.1280  0.1133
51482W        W94498   5.051   5.604   6.687  0.0989  0.0940  0.2336
51483W        W94499   6.253   8.670  13.764 -0.2189 -0.0278 -0.0824
51484W        W94500   6.489   9.840   7.096  0.2643  0.0571 -0.2052
51485W        W94501  34.654  16.755  10.001  0.4811 -0.1892  0.1135
51486W        W94502  19.018  24.352  13.486 -0.1086  0.0647  0.1490
51487W        W94503  29.203  30.290   6.121  0.1903 -0.0924 -0.1406
51488W        W94504   8.204   2.509  21.334  0.2315  0.1609 -0.1629
51489W        W94505   6.622   0.161  16.794  0.0994  0.0504 -0.2457
51490W        W94506   7.397   5.869   3.410  0.4217  0.1088  0.1688
51491W        W94507  15.470   8.227  17.734 -0.2229 -0.0592  0.0810
51492W        W94508   6.909  29.245  24.588  0.0456  0.2289 -0.0278
51493W        W94509  25.861  26.341  22.086  0.1411  0.0117  0.0804
51494W        W94510  27.989   3.807  21.551  0.0168 -0.3485 -0.2520
51495W        W94511   7.587  30.332  18.377 -0.2786  0.1150  0.0401
51496W        W94512  13.863  14.830  20.882  0.2555  0.1538 -0.3580
51497W        W94513   0.443  33.744  27.429  0.1422 -0.0958  0.1882
51498W        W94514  10.062  30.229  25.920  0.0508  0.2105 -0.1449
51499W        W94515  10.198  31.055  14.538  0.0751 -0.0198 -0.2625
51500W        W94516  16.572  29.227   1.550 -0.2180  0.0335 -0.0510
51501W        W94517  11.038  19.942  23.492 -0.0158  0.1719  0.0257
51502W        W94518  23.093  29.623  20.407  0.0879 -0.2940 -0.0092
51503W        W94519  13.892   2.506  24.010 -0.1586  0.3113 -0.0158
51504W        W94520   3.476  32.947  20.778 -0.1636  0.1299 -0.2552
51505W        W94521  10.771   0.449  19.439  0.2855  0.1705 -0.0059
51506W        W94522   9.117  30.166  19.490 -0.1894  0.0112  0.0174
51507W        W94523  27.600   3.858  10.644  0.1254 -0.0963 -0.0150
51508W        W94524   3.675  18.521  17.828  0.0483 -0.1875  0.0239
51509W        W94525   8.403  33.109  20.705  0.3460 -0.1959  0.1141
51510W        W94526  12.405  34.591  15.310 -0.0485  0.0890  0.3571
51511W        W94527   8.049   0.447  26.421  0.0516  0.2813  0.0059
51512W        W94528   9.563  28.969  23.843 -0.2902 -0.2539  0.0115
51513W        W94529  12.069   5.171  21.955 -0.1674  0.2170 -0.1657
51514W        W94530  27.297  27.434   4.440  0.2065 -0.1535  0.1681
51515W        W94531  20.696  25.134   1.394  0.2458 -0.0208  0.0473
51516W        W94532   9.619  18.172   7.180  0.0573  0.1172  0.0782
51517W        W94533   3.466  23.651  17.448 -0.1413  0.0966  0.2515
51518W        W94534  17.959  21.783  12.442  0.0803  0.0228 -0.3637
51519W        W94535   1.887  18.646  28.410  0.2423  0.2200  0.0682
51520W        W94536   0.788  25.760  24.713  0.1523  0.1212  0.3288
51521W        W94537  16.912  10.810   0.645  0.1299 -0.1218 -0.0459
51522W        W94538  18.159   9.419   2.758  0.0022  0.1693  0.0048
51523W        W94539  22.923  33.814   0.916  0.1766  0.1564 -0.2347
51524W        W94540  14.359  27.995   2.144  0.0318  0.3139 -0.2758
51525W        W94541  24.000  17.986  23.106 -0.1350  0.2281 -0.2612
51526W        W94542  21.469  27.989  17.722 -0.2345 -0.2096 -0.1587
51527W        W94543   2.590   9.021   3.135 -0.1791 -0.2609  0.0894
51528W        W94544  34.414  19.960  24.758  0.0471  0.0812 -0.0240
51529W        W94545  11.622  16.893  27.748  0.2500  0.3347 -0.0128
51530W        W94546   9.338  30.262  23.625  0.0566 -0.0814  0.0928
51531W        W94547   9.971  31.442  13.861  0.0883  0.2350 -0.0217
51532W        W94548  33.479  27.936  25.162  0.0979  0.0958  0.2255
51533W        W94549  20.699  29.547   4.806  0.1350  0.3499 -0.1596
51534W        W94550   6.404   6.706   2.865 -0.0291  0.1008  0.0981
51535W        W94551   1.126   4.435  26.957  0.0810  0.0840  0.1829
51536W        W94552   8.148  32.957  19.176  0.1204  0.0134  0.2182
51537W        W94553  24.915  28.665   3.647  0.0462 -0.1109 -0.1431
51538W        W94554   8.084  20.501  13.420  0.3124  0.2092  0.1599
51539W        W94555  17.279  27.432  29.309  0.0737  0.0029 -0.1839
51540W        W94556   4.153   6.335   2.487  0.0973  0.3199 -0.1113
51541W        W94557  32.760   5.335  25.062  0.1438 -0.2523  0.2579
51542W        W94558  18.194  32.808  22.651 -0.1270  0.2010  0.1743
51543W        W94559  11.822  26.750  25.719 -0.1590  0.1561  0.2651
51544W        W94560   1.246  21.857  10.296  0.0556 -0.1940  0.1474
51545W        W94561  23.646  27.171   7.195 -0.1411  0.1960 -0.1539
51546W        W94562   4.277   0.928  18.027 -0.3391 -0.2437 -0.1032
51547W        W94563   5.941   0.625  26.415  0.0701 -0.3742  0.3392
51548W        W94564   4.419   4.031  24.348  0.1447 -0.0613 -0.3216
51549W        W94565  28.605  12.876  16.711 -0.2617 -0.2165  0.2112
51550W        W94566   6.239  28.694  15.710 -0.1291 -0.1845 -0.4125
51551W        W94567   4.008  28.108  17.157  0.0540 -0.0476  0.0894
51552W        W94568   8.254  16.749   0.327 -0.1064  0.3670 -0.3137
51553W        W94569  10.369   5.616  28.706  0.1367 -0.0289  0.1718
51554W        W94570  23.155   5.972   7.387 -0.1280  0.1198  0.2897
51555W        W94571   8.022  27.790   2.825 -0.1190 -0.1593  0.1583
51556W        W94572   8.049  34.313  14.535  0.0764  0.1102  0.1074
51557W        W94573  15.812  20.187   1.375  0.0826  0.1872 -0.2999
51558W        W94574  22.430  13.028  12.857  0.1227  0.0042 -0.0584
51559W        W94575   1.300  24.992   1.440 -0.0631 -0.1914 -0.3252
51560W        W94576  19.115  31.897  27.190  0.0132  0.0023 -0.2139
51561W        W94577  33.847  27.338  22.578 -0.0746 -0.2715 -0.1216
51562W        W94578  14.807  13.336   0.682  0.0121  0.1617  0.1112
51563W        W94579  33.462  13.942   4.260  0.0758  0.0013  0.0077
51564W        W94580  17.808   7.791  15.508  0.2418  0.0349  0.0982
51565W        W94581   8.839  11.435  26.908  0.1978 -0.3324  0.2062
51566W        W94582  14.608   8.762  18.088 -0.1180  0.2124 -0.1426
51567W        W94583   5.553  27.577  26.430 -0.1983 -0.2145 -0.0265
51568W        W94584   1.165  24.116   4.104 -0.0938  0.2567  0.0953
51569W        W94585   7.342   3.513   4.461 -0.1615  0.2109 -0.2931
51570W        W94586   4.019   1.130  15.755 -0.1498  0.0546 -0.0535
51571W        W94587  28.019  12.441  20.842 -0.1498 -0.0228  0.2645
51572W        W94588   2.072   6.196   3.580 -0.1036 -0.0895  0.0231
51573W        W94589   9.733   5.541   3.421  0.0136 -0.2415 -0.0571
51574W        W94590   8.086  34.622  17.732 -0.0908 -0.1384  0.0824
51575W        W94591   2.900  30.089   5.092 -0.1993 -0.2057  0.0222
51576W        W94592  22.495  34.775  15.893 -0.3064  0.2508  0.0018
51577W        W94593  34.189  33.083  26.439  0.0226 -0.3426 -0.1889
51578W        W94594  24.670  29.964  15.773  0.1764 -0.0219  0.1574
51579W        W94595  10.199  34.301  19.404  0.0915 -0.1116  0.0123
51580W        W94596  26.408  18.661  22.790  0.3374  0.1597 -0.1767
51581W        W94597  27.944   2.497  19.436  0.2518  0.2586  0.2025
51582W        W94598  13.243   9.532   2.699  0.2002 -0.1724 -0.0951
51583W        W94599  25.751  14.281  23.942  0.0587  0.2617  0.3131
51584W        W94600  17.407   1.538  25.917  0.1531 -0.1034  0.0231
51585W        W94601  30.031  25.094  11.486 -0.1638 -0.0446 -0.0785
51586W        W94602   2.583  25.257   1.367 -0.1121  0.1092  0.0685
51587W        W94603   5.035  13.656  23.342 -0.1893 -0.2108  0.2232
51588W        W94604  20.806  24.935  16.979  0.0738  0.4148 -0.0017
51589W        W94605  29.568  29.004  20.103 -0.0653  0.2043  0.1214
51590W        W94606  13.458  23.864   0.751 -0.1520 -0.0396 -0.4077
51591W        W94607  33.367  10.762  20.347 -0.1541  0.2919  0.3629
51592W        W94608  14.730  25.512  14.518 -0.0131  0.0199 -0.2230
51593W        W94609  33.509  27.580   6.912  0.2607  0.2817  0.0993
51594W        W94610   2.014   5.252   1.623 -0.1466  0.0563 -0.2257
51595W        W94611   0.305   4.367  15.751  0.1171 -0.0598 -0.1316
51596W        W94612   5.605  34.350  25.491 -0.0105 -0.2300  0.0382
51597W        W94613   7.716  10.033   2.186 -0.0408  0.0255  0.1416
51598W        W94614  15.409  25.737  20.868  0.0359 -0.1941  0.1210
51599W        W94615   6.693   1.282   4.078  0.0977 -0.3374 -0.2319
51600W        W94616   3.978  31.696   7.484 -0.3921 -0.0519 -0.2402
51601W        W94617  13.492  34.620   4.284  0.0608 -0.1728 -0.2646
51602W        W94618   8.318  18.390   6.049 -0.1418 -0.0984 -0.0312
51603W        W94619  31.880  33.982  11.140 -0.2126 -0.1165  0.1230
51604W        W94620   9.162   2.530  15.512  0.1342 -0.0566 -0.0691
51605W        W94621  20.378  11.784   0.654  0.0015 -0.0820 -0.1606
51606W        W94622   7.761  19.290  16.511  0.3531 -0.1615  0.0726
51607W        W94623  10.001  29.663   5.040 -0.1426  0.0077 -0.1292
51608W        W94624  19.015  25.080  23.920  0.0432 -0.0738  0.0110
51609W        W94625   4.681  19.568  23.838 -0.1271  0.2115  0.0350
51610W        W94626  22.224  10.279  22.254 -0.6204 -0.3970 -0.2828
51611W        W94627   7.902  32.614   0.494  0.4200  0.0098  0.2848
51612W        W94628  15.631  27.802   7.132 -0.3371 -0.0560  0.2364
51613W        W94629  25.742  11.098  22.374 -0.0120 -0.0690  0.0450
51614W        W94630  25.144  28.611  26.771 -0.3092  0.2049 -0.0624
51615W        W94631   1.904  33.062   8.782 -0.0452 -0.3633  0.1540
51616W        W94632  26.125  21.230  22.701 -0.0350 -0.1417 -0.0595
51617W        W94633  16.522  32.987   9.215 -0.0894  0.4270 -0.1905
51618W        W94634  16.171   8.184   0.235 -0.1816  0.0750 -0.2190
51619W        W94635   7.196  13.186  28.355 -0.1777 -0.0790 -0.0546
51620W        W94636  17.642  32.617   8.457  0.3740 -0.1403 -0.1310
51621W        W94637   0.901   0.454  16.608  0.0520 -0.0714  0.0717
51622W        W94638  13.389  28.752  28.609 -0.0359  0.1206 -0.0926
51623W        W94639  16.660  31.216  20.193 -0.1181  0.1118 -0.2016
51624W        W94640  13.822   4.473   9.064  0.3317  0.3328 -0.0034
51625W        W94641  34.635   5.672  10.262 -0.0773 -0.0389  0.2248
51626W        W94642   8.076  16.730   5.794  0.1026 -0.0874  0.0512
51627W        W94643  23.282  12.072   0.187 -0.1562  0.3863 -0.2330
51628W        W94644  14.870  29.341  19.559  0.0269  0.2279 -0.1604
51629W        W94645  15.876  32.457  27.983  0.3650 -0.1753 -0.2570
51630W        W94646  17.999   3.171   0.577 -0.0970 -0.0883  0.2465
51631W        W94647  28.628  33.449   1.642 -0.3588 -0.1097  0.0379
51632W        W94648  15.714  34.723  10.230 -0.3027 -0.1094  0.3460
51633W        W94649  12.335  14.391  14.341  0.0787  0.1463 -0.1061
51634W        W94650  13.526  29.508  28.169 -0.0353 -0.1510  0.1668
51635W        W94651  11.952  27.218  22.564 -0.0278  0.3030 -0.1288
51636W        W94652   7.818  28.426  18.907  0.3005  0.0878 -0.2898
51637W        W94653  10.034  31.813  25.956  0.0962  0.0088 -0.0248
51638W        W94654  19.878   5.600  17.398 -0.3453 -0.0133  0.1784
51639W        W94655  22.634  21.629  21.588  0.1314  0.0755  0.2321
51640W        W94656   7.961   3.521  17.130 -0.0357  0.1331  0.0173
51641W        W94657  10.244  21.989  27.131  0.0099  0.0330 -0.0476
51642W        W94658   5.225   8.929  22.773  0.0663 -0.3700 -0.0202
51643W        W94659  20.336   7.932  20.615  0.0995  0.0259  0.0478
51644W        W94660  16.584  20.420  12.992  0.1534 -0.0133 -0.5261
51645W        W94661  14.180  26.197  26.069 -0.0047  0.0161  0.2732
51646W        W94662   0.757   9.491  19.915  0.0867  0.1668 -0.1183
51647W        W94663  14.917   4.959  27.290  0.0267 -0.0543  0.2296
51648W        W94664  21.314  29.371  26.122 -0.0149  0.0515 -0.0878
51649W        W94665  31.552  29.286  16.531  0.0688 -0.1051  0.0963
51650W        W94666  12.044   0.363  19.698  0.1019 -0.0378  0.0006
51651W        W94667  33.339   9.519  25.570 -0.2929 -0.3257  0.1058
51652W        W94668   0.014  29.061  15.281  0.2513 -0.1818  0.0478
51653W        W94669  19.488  30.569   1.448  0.1987  0.1610 -0.1167
51654W        W94670  14.370  25.293  14.189  0.2009 -0.1839  0.1354
51655W        W94671   8.291   1.630   0.223 -0.0599  0.0572  0.1358
51656W        W94672  16.802  33.870  14.598 -0.0250  0.1717 -0.2037
51657W        W94673   8.055  29.666   1.894  0.1105  0.0428 -0.0387
51658W        W94674   2.936   2.031  23.356 -0.0928 -0.1826 -0.1734
51659W        W94675  34.144  14.316  18.366  0.0297  0.0097  0.0705
51660W        W94676   8.137  23.365   2.138  0.1291  0.0310  0.0053
51661W        W94677  17.822   5.236  24.840  0.1787  0.1297 -0.1672
51662W        W94678   1.612   8.574  25.969  0.1403 -0.2572  0.1298
51663W        W94679   9.096  33.852  23.270  0.2548  0.0342  0.1440
51664W        W94680  21.359  24.563   3.071 -0.1576  0.2105 -0.2782
51665W        W94681  13.482   6.080  20.493 -0.2164  0.1293  0.2356
51666W        W94682  13.132  32.160  17.922 -0.1093 -0.2387  0.1506
51667W        W94683  28.554  22.926  24.109  0.1386 -0.2806 -0.0428
51668W        W94684  25.143   0.810  19.226 -0.2305 -0.0620  0.1550
51669W        W94685  17.172   7.713  21.440  0.3996 -0.0164 -0.1846
51670W        W94686  12.355  13.010  15.196  0.2262 -0.1146  0.1620
51671W        W94687  14.219  18.031  14.116 -0.1992 -0.0857  0.0221
51672W        W94688  22.558  33.433  16.238 -0.0602  0.1336  0.0005
51673W        W94689   9.824   1.385  18.931 -0.0764 -0.2043 -0.3323
51674W        W94690  10.407   1.846  17.792  0.2014  0.0194 -0.0599
51675W        W94691  10.517   6.964  25.669  0.1176  0.2111  0.1356
51676W        W94692  18.696   3.054  17.368 -0.0018  0.1748 -0.2024
51677W        W94693  34.255  18.658  28.374 -0.0016 -0.0247 -0.1530
51678W        W94694  20.250  34.744  20.634 -0.1098  0.1295 -0.2652
51679W        W94695  10.424   8.953  26.764  0.0624  0.0535 -0.1317
51680W        W94696   7.535  24.053  15.278 -0.1117  0.0346 -0.2042
51681W        W94697  16.891   0.670  14.706  0.0152  0.1755  0.1691
51682W        W94698   6.037  11.984  15.488  0.0198 -0.1615 -0.0591
51683W        W94699  23.155  22.289  21.794  0.1960 -0.1906  0.1099
51684W        W94700   6.829   2.644  14.888  0.0217 -0.0092 -0.3276
51685W        W94701  19.293   4.036   0.720 -0.0670 -0.0138 -0.2369
51686W        W94702  17.402  18.980  14.721  0.0574 -0.0730  0.0465
51687W        W94703   6.708  33.928  15.610  0.0385 -0.1542 -0.1029
51688W        W94704  27.464  31.573  26.184 -0.2039  0.0599  0.2447
51689W        W94705   1.992   5.115  16.346 -0.2126  0.1566 -0.0243
51690W        W94706  26.041  34.079  20.653  0.0751 -0.1616 -0.0374
51691W        W94707   9.520  32.689  17.906  0.1944 -0.0919 -0.0907
51692W        W94708  24.699   1.220  24.310  0.0480  0.1002 -0.3380
51693W        W94709  23.026  34.114  16.065 -0.1407  0.0456 -0.1996
51694W        W94710  16.487   9.434  21.141 -0.1198  0.3623  0.2587
51695W        W94711   5.394   4.394  16.880 -0.0569 -0.2654 -0.2758
51696W        W94712  20.791  27.287  18.585  0.3657 -0.1531 -0.2048
51697W        W94713  23.150  15.980  21.230  0.2155 -0.0522  0.3400
51698W        W94714  26.181  16.267  16.694  0.0048  0.2941 -0.0613
51699W        W94715  16.913  10.032  16.983  0.1376 -0.1906  0.1358
51700W        W94716  14.969  30.571  20.540  0.1445 -0.4627  0.0601
51701W        W94717  14.777   5.117  17.862  0.1402  0.2616 -0.1323
51702W        W94718  19.078   2.023  16.455  0.0047 -0.0886 -0.2424
51703W        W94719  13.454   6.959  15.566  0.0496  0.0085  0.0910
51704W        W94720   9.951   6.452  27.304  0.1827 -0.0378  0.2417
51705W        W94721  19.402  17.317  14.680 -0.2096  0.0141  0.0295
51706W        W94722   6.920   2.134   0.519  0.1388  0.1900 -0.0022
51707W        W94723  20.441  34.568  27.376 -0.1491  0.0597 -0.1434
51708W        W94724  21.206  31.890  15.113 -0.2059 -0.4501 -0.4241
51709W        W94725  22.527  33.447  15.668  0.1879  0.0452  0.0434
51710W        W94726  14.654  29.665  20.461  0.0432 -0.0940 -0.0193
51711W        W94727  33.302   2.195  17.335 -0.1392  0.0965 -0.0129
51712W        W94728   7.952  20.808  19.589  0.1852 -0.0063  0.0536
51713W        W94729  18.875   2.988  23.771  0.1373  0.0670 -0.0317
51714W        W94730  22.851   2.687  28.169  0.2298 -0.3372  0.2287
51715W        W94731  16.538  33.054  17.071 -0.1116  0.0106  0.4138
51716W        W94732   8.851  31.466  20.087 -0.3960  0.1363 -0.2730
51717W        W94733  17.651  10.393  25.100  0.0404  0.1488 -0.0767
51718W        W94734   4.880   6.925  24.909  0.0509  0.1341  0.2920
51719W        W94735   7.895   0.545  17.716  0.0418 -0.1070  0.3863
51720W        W94736   3.837  31.082  17.577  0.0209  0.1094  0.0856
51721W        W94737   4.482  23.359  19.742  0.2963 -0.0473  0.0302
51722W        W94738  21.976  13.534  14.726  0.0079  0.1679 -0.1495
51723W        W94739  14.964  12.195  26.379 -0.1559  0.3729  0.0622
51724W        W94740   7.408   0.798  16.934  0.1048  0.1780  0.0114
51725W        W94741  12.010  31.145  26.205 -0.0327 -0.2240  0.2276
51726W        W94742  14.483   2.062  16.860 -0.1248  0.0266 -0.0687
51727W        W94743   3.682  22.871  24.158 -0.0465 -0.1589  0.1319
51728W        W94744   9.463  22.380  17.914 -0.1582 -0.2493  0.1046
51729W        W94745   7.273   1.462  24.685  0.0917  0.0037 -0.3064
51730W        W94746  17.001   1.686  23.583 -0.1619 -0.0112  0.1591
51731W        W94747   5.382  28.859  14.289 -0.1040  0.2707  0.0335
51732W        W94748  13.937   6.310  19.244 -0.1015  0.1391  0.4078
51733W        W94749   9.264  29.641  23.189  0.1651 -0.1230 -0.1290
51734W        W94750  10.071   7.768  15.431 -0.2623 -0.0555 -0.0303
51735W        W94751  19.414  24.882  17.064 -0.3383 -0.2429  0.0221
51736W        W94752  20.884  21.184  13.777  0.0922  0.1536  0.0055
51737W        W94753   7.153  16.376  17.352 -0.1592 -0.0286 -0.1531
51738W        W94754   6.015  13.565  15.572 -0.1803 -0.2123 -0.1173
51739W        W94755   3.320  28.861  15.673  0.0773 -0.0013  0.2366
51740W        W94756  28.586   2.566  26.779 -0.1299  0.2846  0.1250
51741W        W94757  17.197   8.074  15.742 -0.2139  0.0439  0.2312
51742W        W94758  26.041  20.026  15.380  0.0576  0.0070 -0.1762
51743W        W94759  13.754  31.216  23.322  0.0301 -0.0869 -0.0963
51744W        W94760  17.852   5.049  16.994 -0.0985 -0.0067  0.0950
51745W        W94761   9.277  17.715  15.237  0.2649  0.3811  0.1527
51746W        W94762  20.774  29.806  26.215 -0.0206  0.0166  0.3369
51747W        W94763   7.507  10.883  25.971  0.0880 -0.0784  0.0191
51748W        W94764   5.594  30.676  17.416 -0.1120 -0.3027 -0.0811
51749W        W94765  10.552  33.651   1.645  0.0034  0.3049 -0.0185
51750W        W94766  16.782  32.702   0.017  0.1568 -0.1422 -0.1278
51751W        W94767  22.486   1.284  17.915  0.0609  0.1584  0.2752
51752W        W94768   9.484  28.862  27.260  0.0174 -0.0876 -0.2726
51753W        W94769  32.163  29.072  22.633  0.0760  0.0105  0.1293
51754W        W94770  24.457  14.801  22.567  0.1892  0.0501  0.0933
51755W        W94771   7.518  17.619  19.760  0.1919  0.2023  0.0197
51756W        W94772  14.082  32.204  17.921  0.2104 -0.3576 -0.2586
51757W        W94773   5.779  24.369  14.916  0.2004 -0.1808  0.0086
51758W        W94774  21.122  10.221  19.003 -0.1408  0.4443  0.0177
51759W        W94775   1.551   9.127   6.010  0.1550 -0.0189  0.0694
51760W        W94776   3.948  29.976  19.101  0.0423 -0.2120 -0.3047
51761W        W94777   0.333  28.551  26.717 -0.0716  0.1770 -0.4092
51762W        W94778   5.388  20.768  13.601  0.0626 -0.3080  0.1106
51763W        W94779   5.787  25.896  19.661  0.1654 -0.1339  0.1471
51764W        W94780   4.297  33.495  21.193 -0.0719  0.0344 -0.0153
51765W        W94781   9.549  29.626  13.828 -0.0305 -0.3404  0.1374
51766W        W94782   5.016  33.216  19.415 -0.4807 -0.1531  0.0570
51767W        W94783   5.652   7.311  14.011 -0.0534 -0.2833  0.1186
51768W        W94784  11.458  23.529  24.315  0.0025  0.0410  0.0079
51769W        W94785  23.546  27.749  20.036 -0.2425 -0.1161 -0.0417
51770W        W94786   6.914  17.489  13.456  0.0845 -0.2286 -0.1238
51771W        W94787   8.268  16.026  20.155  0.1254 -0.1382  0.1994
51772W        W94788  14.219  28.719  25.238  0.3312 -0.1035  0.0130
51773W        W94789  20.485   6.905  16.254 -0.0696 -0.0026 -0.3383
51774W        W94790  15.614   1.338  16.171 -0.3657 -0.4346 -0.1875
51775W        W94791   6.671  21.661   7.408  0.3877  0.2055  0.1620
51776W        W94792  21.549   0.921  24.602  0.0595  0.0322  0.0052
51777W        W94793  16.201  22.706  13.502 -0.1091  0.0407 -0.2951
51778W        W94794  30.701   4.544  21.102  0.2261  0.0813  0.1208
51779W        W94795  10.636   5.616  20.991  0.0058  0.1465 -0.1781
51780W        W94796  25.014   1.911   5.483  0.1655 -0.0278 -0.0278
51781W        W94797  23.856   6.882  24.531 -0.1252 -0.0519  0.2030
51782W        W94798  33.128  22.682  25.318  0.2933  0.0170  0.0778
51783W        W94799  27.506  30.778  19.098 -0.0440 -0.1483 -0.0170
51784W        W94800   7.808   0.871  21.568  0.0303  0.0702  0.1321
51785W        W94801  12.231  33.872  28.066 -0.0321 -0.1606  0.3081
51786W        W94802  18.141  25.838  18.535  0.2459  0.4883 -0.0812
51787W        W94803   4.477  16.128  28.320 -0.0598  0.2352  0.0101
51788W        W94804  20.585  12.205  21.967 -0.0173  0.0129 -0.1001
51789W        W94805  20.931  33.852  28.489 -0.1726  0.0408 -0.2615
51790W        W94806  33.202  24.217  24.698 -0.1266  0.3012 -0.2847
51791W        W94807   4.464  21.527  20.258  0.0567  0.1300  0.0871
51792W        W94808  16.213  33.954  15.222 -0.1564  0.0530 -0.1964
51793W        W94809  25.291  27.045  18.790 -0.0270 -0.0585  0.0242
51794W        W94810  28.029  13.438  17.954  0.1490 -0.0625  0.1158
51795W        W94811  33.263   6.252  28.119  0.4147  0.1261  0.2348
51796W        W94812   1.628  33.909  16.057  0.1034 -0.1638 -0.0169
51797W        W94813   1.663  16.023  18.528  0.2451 -0.0174 -0.2727
51798W        W94814   6.523   3.972  15.006 -0.1397  0.0740 -0.1894
51799W        W94815   9.310  27.668   8.140  0.0648 -0.0544  0.5319
51800W        W94816   9.416  10.742  16.360  0.0638  0.0949  0.2117
51801W        W94817   7.183  12.014  14.861 -0.0736  0.0913  0.2299
51802W        W94818  14.950  17.377  12.409  0.4423  0.0333  0.0980
51803W        W94819  33.569  25.558  15.701  0.0668  0.2954  0.2394
51804W        W94820  34.262  20.172  23.661  0.0649 -0.0954 -0.0763
51805W        W94821  17.649   4.199  25.906 -0.1005  0.1241  0.0213
51806W        W94822  10.484   1.528  18.215  0.0394  0.0497 -0.1254
51807W        W94823   7.932  24.497  22.694  0.0523 -0.2566 -0.1517
51808W        W94824  15.055  34.465  19.068  0.0999 -0.1985 -0.0297
51809W        W94825  20.212  30.928  14.916 -0.0628  0.1179 -0.1085
51810W        W94826  12.338  29.972  14.601 -0.1924 -0.1536  0.1291
51811W        W94827  21.271   6.908  21.688 -0.3855 -0.1049  0.0059
51812W        W94828   9.054  34.547  23.524  0.0241 -0.0932  0.2646
51813W        W94829  21.912   8.082  14.882  0.1165 -0.0660  0.1092
51814W        W94830  19.131  33.753  15.036  0.0884 -0.0089 -0.0023
51815W        W94831  34.019  24.407  27.582 -0.0589  0.0277  0.4038
51816W        W94832  11.911  31.218  14.491  0.0206  0.0271  0.0509
51817W        W94833   3.472   9.872  15.570  0.1510 -0.0804 -0.1899
51818W        W94834   5.418   1.509  17.411  0.1290 -0.1045  0.1652
51819W        W94835  20.937  11.479  19.456 -0.3664 -0.0856  0.0505
51820W        W94836  21.575  29.300   2.702 -0.0329 -0.0619 -0.0654
51821W        W94837   9.127   5.301   2.964 -0.1367  0.4510 -0.0971
51822W        W94838  33.929  17.132  24.656  0.3507 -0.2438 -0.0642
51823W        W94839  10.606  13.878  21.373  0.2325 -0.2162 -0.0264
51824W        W94840   1.072  25.068  17.224 -0.0028 -0.3177  0.2378
51825W        W94841  23.757  11.899  17.236 -0.0884 -0.1739 -0.0636
51826W        W94842  17.585   3.811  21.268 -0.4489 -0.2312  0.0799
51827W        W94843   0.420   4.762   9.769 -0.1055 -0.0852 -0.4647
51828W        W94844  24.347  12.117  14.029 -0.0316 -0.1910 -0.0139
51829W        W94845   3.228   7.611  21.903 -0.2207  0.1712  0.1325
51830W        W94846  15.101   2.583  18.185  0.0388 -0.1065 -0.1728
51831W        W94847  14.549   0.459  20.314 -0.2611  0.1715  0.0458
51832W        W94848   5.701   3.090  16.875  0.2315  0.6832 -0.0610
51833W        W94849  11.142   5.589  23.176 -0.2000 -0.3702 -0.2813
51834W        W94850  17.918  21.828  22.539  0.2629 -0.2504  0.0157
51835W        W94851  14.009  34.356   9.932 -0.0093 -0.2389 -0.1101
51836W        W94852   4.701   1.462   0.643  0.1219  0.0215 -0.3023
51837W        W94853   3.561   1.801  22.055  0.1861  0.0511 -0.2014
51838W        W94854  22.055  29.370  23.309 -0.2350  0.2069 -0.1989
51839W        W94855   5.117   7.105   1.043  0.1839 -0.0321 -0.0052
51840W        W94856  12.904  17.978  19.785  0.0021 -0.2656  0.0267
51841W        W94857   1.671  14.457  17.279 -0.0808 -0.1748 -0.0360
51842W        W94858   8.120   2.633  25.391 -0.1315 -0.0929  0.3915
51843W        W94859   9.742  21.155   5.268  0.1872 -0.3184 -0.0631
51844W        W94860  10.685   0.672  15.152  0.2302  0.2292  0.1098
51845W        W94861  18.049  34.017  24.468 -0.0560 -0.0944 -0.1511
51846W        W94862  13.471  33.925  25.185 -0.1793  0.1077 -0.2123
51847W        W94863  23.365   1.186   6.519 -0.2488 -0.1501 -0.0663
51848W        W94864   2.902   1.601  16.262 -0.1062 -0.1252  0.0390
51849W        W94865   0.193  33.490  19.473 -0.3986 -0.1137  0.1233
51850W        W94866  16.839  34.423   0.250  0.1728 -0.1018 -0.2289
51851W        W94867  15.226  11.523  19.827 -0.0547  0.2334  0.2180
51852W        W94868   5.764  12.579  28.721  0.1462  0.0197  0.0926
51853W        W94869  30.117   1.164  28.230  0.2194  0.3634 -0.3209
51854W        W94870  10.406   9.280  22.279 -0.0536 -0.0148 -0.1625
51855W        W94871   8.372   5.374  26.841 -0.1006 -0.0639 -0.1292
51856W        W94872   6.328  14.487  14.377 -0.2462 -0.2012 -0.0745
51857W        W94873   1.228  23.738  17.741  0.2691 -0.0421 -0.0101
51858W        W94874   4.104   5.907  18.726  0.0894  0.0392  0.1038
51859W        W94875   1.873  30.078  15.698 -0.0907 -0.2784 -0.1433
51860W        W94876  11.495  25.105  13.229  0.1496 -0.1214  0.0592
51861W        W94877  19.405   0.835  22.814 -0.1262 -0.1777 -0.0764
51862W        W94878  18.255   7.209  14.313 -0.0696  0.0863  0.0108
51863W        W94879   9.695   5.225  25.071  0.3778  0.0403 -0.3302
51864W        W94880  33.439  28.518  16.994 -0.0391  0.3725 -0.0622
51865W        W94881  22.076   7.798   6.333 -0.0567  0.0100  0.0955
51866W        W94882  34.572  20.861  21.790 -0.2457  0.0143  0.4420
51867W        W94883  32.507   1.687  16.608  0.2265  0.0589  0.2204
51868W        W94884  11.951   9.706  15.625 -0.1469  0.1257 -0.4327
51869W        W94885  19.011   0.737   9.483  0.4941  0.1670  0.0259
51870W        W94886   7.420   0.630  16.095  0.0479  0.4049 -0.1412
51871W        W94887  19.655  23.039  13.490  0.1589 -0.2658 -0.0752
51872W        W94888  25.455  18.308  18.881 -0.1507  0.3220  0.0723
51873W        W94889   0.472  24.083  15.594  0.2564  0.0246 -0.3347
51874W        W94890  29.448   6.823  23.431  0.3039 -0.3786 -0.0798
51875W        W94891   5.657  31.354  24.695  0.0186 -0.1915 -0.0850
51876W        W94892  10.459   5.911  25.494  0.1523 -0.1866 -0.0292
51877W        W94893  20.772  34.321   0.905  0.4173 -0.1465  0.2506
51878W        W94894  11.486  23.012  18.345  0.0875 -0.2264 -0.1010
51879W        W94895  12.218  11.018  26.469  0.1002 -0.4194 -0.3261
51880W        W94896  26.891  11.072  14.223  0.0247 -0.1642 -0.0509
51881W        W94897   2.858   3.377  20.038 -0.0712 -0.1628  0.0116
51882W        W94898   6.289  28.097   0.206 -0.1199 -0.3848 -0.1768
51883W        W94899   6.042   7.352  19.780  0.3068 -0.1933  0.1028
51884W        W94900  13.481  26.944   6.440  0.2358  0.1784  0.1752
51885W        W94901  12.914  21.946  21.278  0.2161 -0.0984  0.2851
51886W        W94902  11.322  32.357   1.528 -0.0876 -0.2705  0.1416
51887W        W94903  26.660   5.681  16.683  0.0758  0.2577 -0.1392
51888W        W94904  30.824   6.676  20.329 -0.0877  0.0148 -0.1545
51889W        W94905  11.500  32.758  19.654  0.3419 -0.1514 -0.1133
51890W        W94906  26.727  15.791  16.604 -0.0138 -0.0924 -0.0826
51891W        W94907   7.796  22.171  20.364  0.1376 -0.0543 -0.2094
51892W        W94908   7.841  33.118  24.545  0.1657  0.1960  0.2030
51893W        W94909  14.630  14.185  15.767 -0.2914 -0.2332 -0.3095
51894W        W94910  32.347   4.298  14.732  0.0305  0.1641  0.0052
51895W        W94911  16.532  22.798  19.120 -0.0278  0.2154 -0.1233
51896W        W94912  22.798  28.588  24.400 -0.0155 -0.1517  0.1099
51897W        W94913  28.307  34.312  20.865  0.0692 -0.4197  0.0434
51898W        W94914  11.265   2.484  20.859 -0.2119 -0.1566  0.0962
51899W        W94915   3.832   6.323  18.645  0.1058 -0.2052  0.0044
51900W        W94916  23.227   0.331   5.011 -0.4843 -0.2580 -0.0683
51901W        W94917   6.329   3.069  21.408 -0.2893  0.3428 -0.0612
51902W        W94918   6.440   0.712  20.031 -0.4217  0.3046 -0.0201
51903W        W94919  31.053  13.411  18.332  0.2082 -0.1159  0.1784
51904W        W94920   8.642  32.066  21.487 -0.2232  0.0652  0.1661
51905W        W94921  19.825   3.550  19.738  0.0691 -0.0454  0.0429
51906W        W94922  10.193  26.014  27.518 -0.1233  0.1194 -0.0092
51907W        W94923   7.246  10.275  25.136 -0.0951 -0.0029  0.0972
51908W        W94924   3.027  30.551  22.279 -0.0211 -0.0171  0.2823
51909W        W94925  14.907  10.589  15.952 -0.1185 -0.0882 -0.1069
51910W        W94926   2.746   6.983  17.911 -0.0827  0.2196  0.2282
51911W        W94927  26.717   8.948  25.930 -0.0675 -0.0513 -0.2003
51912W        W94928  16.524   5.698  16.944  0.0994  0.1519 -0.0676
51913W        W94929  14.338  31.669  17.838  0.1374  0.3834 -0.2090
51914W        W94930  13.883  32.193  15.244 -0.1487 -0.1905  0.3229
51915W        W94931  32.074   5.731  19.527  0.3147 -0.0980  0.2007
51916W        W94932  23.408   4.805  23.108 -0.0593 -0.1948  0.0591
51917W        W94933  11.257  20.673  18.677 -0.3151 -0.0118 -0.3238
51918W        W94934  23.674   7.897  27.716  0.1491  0.0444  0.2921
51919W        W94935  17.279   9.655  14.279 -0.1472  0.2389  0.2758
51920W        W94936  16.073  22.793  25.617 -0.0752 -0.3809 -0.0522
51921W        W94937  30.761  21.668  27.423  0.1344  0.2919  0.1184
51922W        W94938  24.740  21.911  28.813 -0.1293 -0.0168 -0.3629
51923W        W94939  29.217  10.631  26.112 -0.1961  0.1112  0.3039
51924W        W94940  15.285   8.521  17.364  0.1325 -0.0262 -0.2577
51925W        W94941   8.379   3.484  16.379 -0.0693 -0.2055  0.0079
51926W        W94942  19.669  11.220  18.103  0.1005  0.1196 -0.2090
51927W        W94943  12.215  10.115   4.725  0.2699 -0.0719  0.1000
51928W        W94944   9.379  31.729  27.936 -0.0210 -0.2240 -0.1569
51929W        W94945   8.417  30.793  26.706  0.0779  0.1111  0.3588
51930W        W94946  10.299   2.244  23.874 -0.1426 -0.0903 -0.1805
51931W        W94947  25.337   1.669  23.201  0.0133 -0.0290 -0.0788
51932W        W94948   1.946  11.791  14.401 -0.0574 -0.2928  0.1017
51933W        W94949  31.683  30.248  21.423 -0.3667 -0.1793 -0.1710
51934W        W94950  11.345   5.316  28.700 -0.0217  0.2331 -0.0219
51935W        W94951  13.449  24.370  21.139  0.0081 -0.2651  0.0553
51936W        W94952  16.874   7.308  15.177  0.1175 -0.1711  0.1163
51937W        W94953  26.864  31.232  16.057 -0.3572  0.3657 -0.0248
51938W        W94954  12.479   9.907  13.033 -0.1292 -0.2416  0.1424
51939W        W94955  12.771   4.660  15.868 -0.0733 -0.1897  0.2883
51940W        W94956  13.044  24.654  15.234  0.0265 -0.3355  0.2501
51941W        W94957  15.380   7.403  18.863  0.3356 -0.1619  0.0869
51942W        W94958  17.058  21.733  23.587  0.2288  0.0140 -0.0403
51943W        W94959   6.799  28.618  28.998 -0.0085 -0.0735  0.0736
51944W        W94960  16.097  30.770  21.020  0.2597 -0.0006 -0.0551
51945W        W94961  25.043  10.682   1.407  0.0266  0.1734  0.1501
51946W        W94962  12.233   9.007  14.265  0.1088  0.0044  0.1417
51947W        W94963  13.873  14.605  16.722  0.3349  0.2168 -0.2713
51948W        W94964  27.667  30.608  20.365 -0.0028 -0.0889 -0.2438
51949W        W94965  18.353   4.902  16.900  0.0018  0.0888  0.2126
51950W        W94966  26.691   6.829  21.923 -0.1377 -0.1123  0.3832
51951W        W94967  29.669  14.820  19.050  0.0338 -0.2016 -0.1706
51952W        W94968   4.561   8.217  15.501  0.1723 -0.1271  0.1970
51953W        W94969  17.798  22.983  21.359  0.0982  0.0532 -0.4170
51954W        W94970  31.276   4.316  19.683 -0.0520  0.5978  0.2765
51955W        W94971  27.523   6.586  18.789  0.0956  0.0565 -0.4670
51956W        W94972   9.693  11.732  19.074  0.2981  0.0588  0.4977
51957W        W94973   4.993  32.325  22.999  0.1991  0.0494  0.1787
51958W        W94974   9.027  10.968  20.807  0.2136 -0.0092 -0.0412
51959W        W94975  25.323  23.655  17.158 -0.1679 -0.1747 -0.2439
51960W        W94976  12.952   1.613  15.123 -0.0163  0.0044 -0.1089
51961W        W94977   5.971   9.409  26.222  0.2586 -0.3206 -0.1388
51962W        W94978  13.094  32.264  22.735  0.1589 -0.2218 -0.0282
51963W        W94979  21.837   5.924  16.166  0.0162  0.1120  0.0698
51964W        W94980  26.364  20.661  15.517 -0.1156 -0.2343  0.1935
51965W        W94981  12.101  18.798   1.876 -0.0420  0.1301  0.0634
51966W        W94982  13.484   8.884  21.647 -0.3021 -0.2007  0.4583
51967W        W94983  23.278   8.352  22.899 -0.0587  0.4012 -0.2969
51968W        W94984  34.326   3.699  15.618 -0.1089 -0.1053 -0.0246
51969W        W94985  23.548  11.826  19.409 -0.1994 -0.0295 -0.0779
51970W        W94986  23.546  28.969  24.911  0.0963  0.2932 -0.1561
51971W        W94987   5.747   2.879  23.224 -0.2494 -0.0702 -0.4876
51972W        W94988  14.451  11.416  13.967 -0.2722  0.0856  0.3021
51973W        W94989   6.096   7.441  24.637 -0.2373 -0.0185  0.1968
51974W        W94990  15.613   9.752  16.158 -0.0252  0.0592 -0.0299
51975W        W94991   5.858  31.902  16.976 -0.0295 -0.2578 -0.2284
51976W        W94992  20.687  31.205  21.178  0.2107 -0.0364 -0.5152
51977W        W94993  12.229  23.905  23.189  0.3201  0.2729 -0.0279
51978W        W94994  13.561   5.012  21.273  0.0091  0.3148 -0.0649
51979W        W94995  33.746  28.415  21.043  0.2546 -0.1084 -0.1416
51980W        W94996  13.476  11.363  23.261 -0.1414  0.1710 -0.3809
51981W        W94997   6.920   6.488  16.166  0.1441  0.2258 -0.1872
51982W        W94998  17.870  24.035  19.456  0.0214 -0.1080 -0.1947
51983W        W94999   7.633   2.060  17.304  0.1742 -0.2105  0.1777
51984W        W95000   1.017  34.771  16.854  0.0942  0.1174  0.2223
51985W        W95001  27.547   3.509  19.424  0.1489  0.0146 -0.1199
51986W        W95002   7.490   6.579  14.198  0.1418 -0.1632  0.0607
51987W        W95003  25.179  28.872  17.003  0.2880  0.0937  0.2282
51988W        W95004  33.978  11.036  23.232 -0.0945 -0.1003  0.0981
51989W        W95005  12.088  28.269  28.140  0.0618  0.0034 -0.1647
51990W        W95006   3.436   7.010  20.452  0.1687 -0.1405  0.2349
51991W        W95007  16.794  31.510  29.199  0.2447  0.1155  0.0927
51992W        W95008  19.949   7.759  14.602 -0.0503  0.0854 -0.2019
51993W        W95009   2.405  23.303  18.330  0.0346 -0.0934  0.1188
51994W        W95010   5.727   2.725   4.282 -0.1385 -0.0547 -0.0300
51995W        W95011  11.111  20.488  28.067 -0.0811 -0.1824  0.0270
51996W        W95012   9.931   4.269  16.463  0.0961  0.1433 -0.4380
51997W        W95013  14.219   7.359  14.691 -0.1936 -0.2323  0.0895
51998W        W95014   2.433  14.985  27.755  0.0364  0.0451 -0.0651
51999W        W95015  11.275   7.171  18.100 -0.1374  0.0428  0.0929
52000W        W95016   8.832  26.446  14.151 -0.3254  0.1805  0.1039
52001W        W95017  20.442   8.559  16.705  0.1965  0.1374 -0.0884
52002W        W95018   5.555  19.284  28.094  0.3827  0.0488  0.1879
52003W        W95019  13.586  26.573  26.407 -0.2389  0.0361  0.1145
52004W        W95020   8.866   0.413  15.781 -0.1204  0.1540  0.1805
52005W        W95021  19.699  11.107  12.931  0.0909  0.0298  0.4316
52006W        W95022  11.764  33.416  14.597  0.0942  0.0280 -0.0665
52007W        W95023  16.952   2.911  22.073 -0.6749 -0.1328 -0.2308
52008W        W95024   3.149  34.499  24.741 -0.1997 -0.1378 -0.1249
52009W        W95025  20.420   9.457  17.953  0.2599  0.2169  0.0150
52010W        W95026   4.974   6.570  27.748  0.2875  0.0111 -0.1009
52011W        W95027  15.719  11.863  20.852 -0.0105  0.0378  0.1518
52012W        W95028  17.690  33.191   1.128 -0.1297  0.0157 -0.0774
52013W        W95029   2.887   3.283  16.741  0.1635  0.0749 -0.0747
52014W        W95030   4.275  30.389  19.046  0.1075  0.3679  0.0815
52015W        W95031  23.905   6.065   2.905 -0.0194  0.2235 -0.0096
52016W        W95032  20.548  33.865  24.974  0.0835 -0.2915  0.3583
52017W        W95033   3.086   9.123  20.187 -0.0627 -0.0339 -0.2506
52018W        W95034  18.502   9.780  16.228 -0.2111 -0.0568 -0.0864
52019W        W95035   4.321  21.509   4.117  0.0839  0.0180  0.0543
52020W        W95036  22.422  31.543  16.336  0.2517 -0.0825 -0.3643
52021W        W95037  17.683   5.547  15.032 -0.0697 -0.0536 -0.0185
52022W        W95038   7.901  28.726  15.669  0.0275 -0.2060 -0.2298
52023W        W95039  23.900  30.052   1.045 -0.1733 -0.1656 -0.0278
52024W        W95040  28.240  27.175  16.638 -0.2869  0.0334  0.3475
52025W        W95041  26.215  18.705  21.110  0.3479  0.0861 -0.0257
52026W        W95042  14.132  10.479  19.703  0.4556 -0.1824  0.1341
52027W        W95043   9.543  25.553  26.844 -0.2970 -0.0557 -0.1190
52028W        W95044  22.046  29.498  24.227  0.0842 -0.3191  0.2251
52029W        W95045  14.149  13.317   4.083  0.1043 -0.1041  0.2946
52030W        W95046  12.886   9.343  22.793  0.0619  0.0024  0.0743
52031W        W95047  23.177  31.170   5.131 -0.2075  0.1215  0.1802
52032W        W95048  30.362  32.598  20.734 -0.1002  0.0776  0.0171
52033W        W95049  30.710   4.593  17.856 -0.0863 -0.0213  0.0083
52034W        W95050  15.972  31.756  16.552  0.2226 -0.1104 -0.0664
52035W        W95051  20.396  10.413  18.421 -0.0262 -0.1370 -0.3480
52036W        W95052  32.494   2.286   3.435  0.1618  0.2625  0.2977
52037W        W95053   8.016   2.098  14.892  0.2856  0.1707 -0.0223
52038W        W95054  20.713   4.039  26.079 -0.0888 -0.2718 -0.1020
52039W        W95055  18.794   5.677  22.009  0.0113  0.0763  0.1332
52040W        W95056  23.522   5.309  25.198 -0.2662 -0.1642  0.0574
52041W        W95057  15.850  27.101   8.201 -0.0684  0.1101 -0.1676
52042W        W95058  10.565  33.676  18.773  0.0744  0.0111 -0.0674
52043W        W95059  29.731   1.782  21.730  0.2236  0.1840  0.1624
52044W        W95060  31.794  34.445  17.404 -0.2305  0.4013  0.1096
52045W        W95061   3.930   8.027  24.918 -0.2408  0.1837  0.0274
52046W        W95062   7.271   1.574  24.135  0.1082 -0.2413  0.1319
52047W        W95063  27.156   7.314  23.090 -0.0347  0.1881  0.3517
52048W        W95064  33.217  15.059   4.910 -0.0962 -0.2154  0.0918
52049W        W95065   2.952  31.663   4.935  0.1437  0.0771 -0.0886
52050W        W95066   1.095  32.326  25.834 -0.2527 -0.2914 -0.1357
52051W        W95067  31.166   8.290  19.931  0.0028 -0.2729  0.1119
52052W        W95068  24.707   1.948  18.747 -0.0180 -0.1591 -0.0830
52053W        W95069  18.436  13.876  14.407  0.0271  0.1310 -0.3227
52054W        W95070  27.505  32.988  21.767  0.0999  0.1046 -0.0483
52055W        W95071  16.442   4.378  15.502 -0.1474  0.0498 -0.0460
52056W        W95072  12.410   3.327  17.732 -0.1666  0.1330  0.1525
52057W        W95073   7.739   8.915  13.960  0.1718  0.2111 -0.3381
52058W        W95074  15.208  29.510   1.682  0.2631 -0.0675  0.1868
52059W        W95075  14.370  34.502  18.394 -0.2991  0.3925  0.2165
52060W        W95076  11.603   3.351  28.450  0.3349 -0.0838  0.0897
52061W        W95077  16.120  11.273  22.947 -0.0062 -0.0358 -0.0445
52062W        W95078  33.608  27.713  16.040  0.1968 -0.0272  0.1484
52063W        W95079  10.598  17.723  24.780 -0.2159  0.2494 -0.0804
52064W        W95080   5.519   1.927  16.065  0.3212  0.0091 -0.1111
52065W        W95081  20.314   8.808  28.205 -0.3867  0.0020  0.2351
52066W        W95082  13.980   8.890  13.565  0.1274 -0.0595 -0.2241
52067W        W95083   2.596  32.838   5.403  0.1041 -0.0102  0.1997
52068W        W95084  11.612   3.857  20.666  0.0096 -0.2927  0.2096
52069W        W95085   1.672  29.669  14.467 -0.2027  0.0458  0.0499
52070W        W95086  26.714  32.436  29.271 -0.0898 -0.3249 -0.4202
52071W        W95087   9.270   8.836  19.713 -0.3661  0.0593 -0.0506
52072W        W95088  12.325  24.262  14.993 -0.1053  0.0403 -0.2702
52073W        W95089  18.901  29.236   0.192 -0.1275 -0.0449 -0.1873
52074W        W95090   9.256  14.060  18.287 -0.0913 -0.1288 -0.2322
52075W        W95091  14.174   5.373  24.252  0.2658 -0.0788 -0.0994
52076W        W95092  22.311  19.456  19.952 -0.2990 -0.2122  0.0666
52077W        W95093  17.117  10.207  14.714 -0.1105 -0.0284 -0.1951
52078W        W95094  17.910   5.437   0.810 -0.1319  0.0567 -0.0808
52079W        W95095   3.964  32.669  20.605  0.0894  0.0268  0.2342
52080W        W95096  12.762   7.460  28.711  0.1404  0.0909  0.1649
52081W        W95097   1.261   8.746  22.777  0.3553 -0.3473  0.2392
52082W        W95098   3.881  26.603  17.183  0.3187  0.2808 -0.1291
52083W        W95099  14.330  22.233  13.369  0.1690 -0.0372 -0.3388
52084W        W95100  15.451   3.654  27.115 -0.1879 -0.1666  0.1071
52085W        W95101  13.491   8.129   5.445 -0.0849  0.0971  0.0222
52086W        W95102  21.078  29.582  19.549  0.1572  0.2188  0.2380
52087W        W95103  32.191   5.092  14.881  0.0579 -0.1746  0.1594
52088W        W95104  12.913  34.049  26.545  0.0351  0.2733  0.1079
52089W        W95105  32.718  29.626  17.378  0.0614  0.0891 -0.0298
52090W        W95106  28.062   0.316  23.161  0.0657 -0.2369  0.1492
52091W        W95107  32.877   0.616  25.153 -0.2414  0.1534 -0.3742
52092W        W95108  14.968  16.243  15.812  0.0056 -0.0020  0.0300
52093W        W95109   4.437  33.299  25.419 -0.4498  0.0828  0.1122
52094W        W95110  11.974  32.565  21.225  0.1156 -0.0621 -0.2367
52095W        W95111   5.798   8.921  23.385  0.1285  0.1213  0.1204
52096W        W95112  12.102   3.479  22.209 -0.1835 -0.0569 -0.0643
52097W        W95113   0.994  33.307  15.530  0.1889 -0.2469  0.1115
52098W        W95114   7.535   1.457  23.192  0.3154  0.1944 -0.2855
52099W        W95115  12.182   1.520  16.552  0.0110  0.0051  0.2174
52100W        W95116  20.542   1.031  19.459  0.2876  0.0514  0.1787
52101W        W95117   6.481  15.960  26.503 -0.0457 -0.1814 -0.0001
52102W        W95118  29.692  17.633  26.108  0.1402  0.1025  0.3242
52103W        W95119  10.946   5.889  26.009 -0.1259 -0.5096 -0.0546
52104W        W95120  14.691  24.528  14.346 -0.1096  0.3864  0.0238
52105W        W95121  19.659  32.006   1.268  0.1136 -0.2940  0.0270
52106W        W95122  12.896  25.220  24.916 -0.2198 -0.1762 -0.0002
52107W        W95123  24.210  15.627  20.896  0.2195 -0.2213 -0.0549
52108W        W95124  16.045  28.782  25.580 -0.0433  0.0839  0.1525
52109W        W95125  18.584  34.287  26.197 -0.1708  0.1561 -0.0961
52110W        W95126  14.073   2.708  28.837  0.0784 -0.2508  0.0849
52111W        W95127   9.641   4.312   2.553  0.1553 -0.3898 -0.1911
52112W        W95128   0.941  29.371  27.322  0.0690 -0.4191  0.0197
52113W        W95129   3.883  12.634  19.546  0.1596 -0.0324 -0.0018
52114W        W95130   1.769  30.404  18.288  0.1870 -0.1201  0.0740
52115W        W95131   1.598  21.847  22.785  0.1298  0.2192  0.1471
52116W        W95132  19.570  23.338  19.277 -0.1756  0.1008 -0.1445
52117W        W95133   3.682  31.021  16.721 -0.0186 -0.0315 -0.2693
52118W        W95134  23.886   5.792   5.085 -0.0027 -0.3125 -0.0102
52119W        W95135  11.427   7.555  20.895  0.1637 -0.0072  0.0880
52120W        W95136  29.333   5.893  24.163  0.1649  0.0709  0.0860
52121W        W95137   6.341   1.560  21.673 -0.0040 -0.0876  0.2466
52122W        W95138   7.171  29.533   2.742  0.1281 -0.1085 -0.1068
52123W        W95139   0.324   5.737  20.655 -0.2920 -0.2827  0.1668
52124W        W95140   9.312   7.389  15.834  0.0201  0.0527  0.1471
52125W        W95141  27.454   6.436  21.536 -0.0332 -0.1934  0.0628
52126W        W95142   0.058  13.118  14.921  0.1726 -0.2320 -0.3260
52127W        W95143  12.893  29.063  22.005  0.1022 -0.0988 -0.3843
52128W        W95144  13.476   2.181  20.028  0.0327 -0.1003 -0.0319
52129W        W95145  20.345  22.572  17.332 -0.0284 -0.0531 -0.1672
52130W        W95146  13.753   7.732  25.381 -0.0763  0.0927  0.3689
52131W        W95147  14.482  11.539  23.133  0.2309 -0.0492  0.0898
52132W        W95148   7.431   7.796  16.143 -0.2870  0.2626  0.0190
52133W        W95149  15.386   6.739  15.981 -0.0988  0.0513  0.0590
52134W        W95150  14.621  26.047   3.051 -0.2598  0.0490  0.1995
52135W        W95151  24.882  12.582  18.390 -0.2741 -0.2722  0.1660
52136W        W95152  23.239   3.526   7.977  0.0891 -0.0183 -0.2547
52137W        W95153   1.099  15.521  19.004 -0.0955  0.0019  0.1849
52138W        W95154  23.841   8.612  26.925 -0.0916  0.0607  0.3138
52139W        W95155  27.652   0.125  18.429 -0.0291  0.0354 -0.2665
52140W        W95156  12.593   1.258  18.399  0.0229  0.2701 -0.0107
52141W        W95157  19.142   6.039  28.220  0.2290  0.0095 -0.0650
52142W        W95158  13.280  34.135  18.245  0.0978  0.1114 -0.0481
52143W        W95159   5.679  14.308  22.217  0.1513 -0.0366 -0.1673
52144W        W95160  34.273  32.322  23.740  0.0581  0.2719 -0.3656
52145W        W95161  12.238  32.654  17.956 -0.3542 -0.1628  0.1708
52146W        W95162   7.893  34.379   9.658 -0.2261 -0.2778 -0.3001
52147W        W95163  12.086   1.220  22.199 -0.1081 -0.0884 -0.0819
52148W        W95164  16.458  33.272  23.568 -0.0947  0.0519  0.0182
52149W        W95165  15.187  29.789  18.462  0.0579  0.0768 -0.0051
52150W        W95166  16.531  28.787  22.622  0.3367  0.0971 -0.2401
52151W        W95167  12.572  30.409  20.379  0.1187  0.3415  0.1885
52152W        W95168  27.192   4.779  20.904 -0.1552 -0.3673 -0.0050
52153W        W95169   7.611   3.032  16.368 -0.2169  0.1555  0.3089
52154W        W95170  17.835  31.092  19.893  0.2767 -0.1239 -0.0965
52155W        W95171  26.716  31.817   0.613  0.0511  0.0317 -0.1650
52156W        W95172  27.999   9.799  15.270  0.0931 -0.2076 -0.0569
52157W        W95173  28.303  24.473  16.023  0.2025 -0.0110  0.1360
52158W        W95174  30.093   3.417  19.056  0.1712 -0.0211  0.0719
52159W        W95175   7.638  30.742  15.129 -0.3305 -0.1710 -0.1505
52160W        W95176  27.114  29.577  24.820  0.4070 -0.3673 -0.0512
52161W        W95177   6.025  31.342  16.750 -0.1824 -0.3253 -0.4138
52162W        W95178  23.081   1.077  22.955  0.0361  0.1382 -0.0863
52163W        W95179  18.209   8.049  17.198 -0.1306 -0.0413  0.2341
52164W        W95180  34.079   8.782  23.201 -0.0017  0.1710  0.0337
52165W        W95181  22.333  10.096  21.244 -0.1018  0.3052  0.0547
52166W        W95182   9.382   7.990  20.707  0.1566  0.1740 -0.1158
52167W        W95183  17.428  26.600  20.328  0.1510  0.1240 -0.1342
52168W        W95184   7.973   7.335   2.365 -0.1858  0.0946  0.0693
52169W        W95185  19.567  20.912  13.940 -0.0355 -0.0181  0.1178
52170W        W95186   6.027  13.546  28.557  0.0255 -0.0146  0.0131
52171W        W95187  16.609  34.544   1.299  0.1786 -0.0206 -0.0093
52172W        W95188  13.264  23.778  15.484 -0.1624 -0.0087  0.1578
52173W        W95189  18.616  22.389  23.678 -0.0482  0.2899 -0.0656
52174W        W95190   8.948   3.340  20.519 -0.0340  0.0768  0.1515
52175W        W95191  29.449  20.102  28.529  0.0681  0.0723  0.0522
52176W        W95192   4.363  33.338  28.873 -0.0376 -0.0520 -0.1388
52177W        W95193  15.424   8.607  19.299 -0.0436  0.0912 -0.0232
52178W        W95194  34.202  32.768  26.042  0.5452 -0.0105  0.0339
52179W        W95195  26.734  23.351  16.807 -0.1108 -0.1043  0.0616
52180W        W95196  10.770  32.182  15.535 -0.1831  0.0247 -0.2104
52181W        W95197  19.450   1.460  24.972  0.1373  0.1232 -0.2550
52182W        W95198  19.707  28.187  21.421  0.4491  0.0613 -0.0099
52183W        W95199  20.834  32.245  15.897 -0.3232 -0.0490  0.0919
52184W        W95200   7.503  14.709  25.508  0.1029 -0.3252 -0.0024
52185W        W95201  31.320   7.845  19.828  0.1104  0.0947 -0.1829
52186W        W95202  10.770  24.928  17.131 -0.1510 -0.0432 -0.1310
52187W        W95203  28.165   5.556  15.964 -0.2117  0.2733 -0.1122
52188W        W95204   9.544   7.718  18.360  0.1278  0.1952  0.0371
52189W        W95205   6.642  17.217  20.819 -0.2505 -0.2457 -0.0635
52190W        W95206  11.988  26.735  18.637  0.0636  0.0465  0.1152
52191W        W95207   2.117  13.626   7.527  0.1545 -0.1431  0.1688
52192W        W95208   9.166  22.132  19.753  0.0443 -0.1985  0.1450
52193W        W95209  33.517  18.799   5.182  0.1880  0.0185  0.2470
52194W        W95210   3.569   6.314  15.854  0.1069 -0.0927  0.2304
52195W        W95211  29.719  32.317  20.810  0.2062 -0.2192  0.1065
52196W        W95212  20.696  11.795  24.865 -0.2703  0.0447  0.2435
52197W        W95213  30.746   6.394   4.017 -0.2071  0.4250  0.2069
52198W        W95214  16.854   4.702  16.113  0.0069 -0.1553  0.2186
52199W        W95215  11.001  30.226   6.539  0.2413  0.3178 -0.3096
52200W        W95216   4.813  18.843  18.567 -0.2263  0.0707  0.2563
52201W        W95217  15.330  15.115   0.128 -0.0505  0.0174 -0.3036
52202W        W95218  20.306   4.176   3.458  0.0070 -0.0676  0.0057
52203W        W95219  18.320   9.671   4.625  0.2586  0.2305 -0.1464
52204W        W95220   5.095  12.335  16.629  0.3523 -0.1173  0.1827
52205W        W95221  19.975  34.310  18.135  0.0357  0.1028  0.1495
52206W        W95222  29.155  26.658  19.238 -0.2390 -0.0869 -0.0867
52207W        W95223   7.131  30.444  23.402 -0.1125 -0.1551 -0.0423
52208W        W95224  21.686   4.747  18.683  0.0970  0.3970  0.0266
52209W        W95225   4.438  16.046  18.323  0.0453 -0.0552  0.1307
52210W        W95226  18.474  14.691  20.142 -0.0249 -0.1350  0.0846
52211W        W95227  33.391   5.038  23.344 -0.1957 -0.2564 -0.0927
52212W        W95228  24.587   9.543  14.802  0.1098  0.1074 -0.1190
52213W        W95229   9.559  17.664  19.885 -0.1821 -0.0778  0.1112
52214W        W95230  27.367  34.578   0.492  0.2903  0.0818  0.4000
52215W        W95231  24.433   4.853  18.587  0.2725  0.0623  0.1886
52216W        W95232  12.896   6.010  25.173  0.2666 -0.0370 -0.1287
52217W        W95233  16.755  10.803  16.511 -0.1031 -0.0353 -0.1439
52218W        W95234  16.977   2.466  14.909  0.0184  0.0005 -0.1282
52219W        W95235  20.657   3.739  15.015  0.1070 -0.3899  0.1237
52220W        W95236   7.913  12.767  18.593  0.0933  0.0604  0.1388
52221W        W95237   8.729  28.366  25.528 -0.1130 -0.0943  0.1177
52222W        W95238  21.251  26.548  16.867  0.1524 -0.0198 -0.4102
52223W        W95239  18.584  22.443  13.219 -0.1724 -0.3915  0.1218
52224W        W95240  15.631   4.079  16.482 -0.0071 -0.1610  0.1940
52225W        W95241  31.217  33.955  28.174 -0.0345 -0.3323  0.1568
52226W        W95242  18.093  33.132  15.557  0.0605  0.2853 -0.0517
52227W        W95243   7.821   9.339  20.362 -0.0117  0.1031  0.0172
52228W        W95244   2.904   9.961  26.464  0.1701 -0.3781  0.1991
52229W        W95245   7.302   8.517  18.894  0.0102 -0.2101  0.2560
52230W        W95246   1.942  23.404  19.932 -0.1075 -0.1018 -0.3930
52231W        W95247  17.303  29.051   2.621 -0.2393 -0.1704 -0.1761
52232W        W95248  14.149  12.780  28.703  0.1574 -0.0101 -0.3623
52233W        W95249   4.718   8.521   7.737  0.0870 -0.2050 -0.0021
52234W        W95250  10.650  32.176  24.585 -0.0994 -0.1753 -0.0513
52235W        W95251  33.002  20.907  14.516  0.0037  0.0507  0.1409
52236W        W95252  30.057   5.912  17.285  0.0690 -0.0100  0.1666
52237W        W95253  23.339  34.079  21.344  0.0083  0.0991 -0.0970
52238W        W95254   3.170   4.672   8.611  0.1583  0.1582  0.1159
52239W        W95255   5.862  34.484  19.297  0.1792  0.0349  0.2817
52240W        W95256   1.713   6.390   7.572  0.0074 -0.0163  0.0572
52241W        W95257  26.198  27.092   0.916  0.3019 -0.1368  0.0650
52242W        W95258  24.241  31.099  25.305 -0.0098 -0.1937  0.0132
52243W        W95259  29.640   0.573  18.018 -0.6002 -0.0218 -0.1618
52244W        W95260  17.259   6.160  24.776  0.0840 -0.1496  0.1214
52245W        W95261  27.940  25.022  24.320  0.1094  0.0106 -0.0057
52246W        W95262  24.181   6.777  21.033  0.0103  0.0094 -0.3009
52247W        W95263   1.871   8.724  17.346  0.0432 -0.0002 -0.0359
52248W        W95264   4.265  23.177  26.012  0.0404 -0.1612  0.0139
52249W        W95265   6.204  17.029  14.397 -0.1461  0.0288  0.0024
52250W        W95266  18.071   5.420   3.235 -0.0008  0.0761 -0.2709
52251W        W95267  15.769   5.537  20.171 -0.1398  0.1515  0.2825
52252W        W95268  11.099   5.341  21.236 -0.0306  0.1888 -0.2231
52253W        W95269  12.013  30.140  15.584 -0.2318  0.0596  0.1509
52254W        W95270   7.236  19.195  28.297 -0.3686 -0.0170  0.0984
52255W        W95271  20.227   5.543   4.540  0.2741 -0.1633  0.1079
52256W        W95272  19.250  14.189  13.959 -0.4054  0.2476  0.0369
52257W        W95273   7.419  28.075  15.351 -0.2349  0.0911 -0.0590
52258W        W95274   4.401   6.078  24.150  0.0469  0.4621  0.0126
52259W        W95275  16.780   5.564  16.498 -0.1283 -0.1401  0.0158
52260W        W95276   3.331   2.867  27.624  0.0030 -0.0259  0.3592
52261W        W95277  30.865   8.647  20.207 -0.3373 -0.2129 -0.2419
52262W        W95278  12.985  30.057  27.283 -0.0987  0.1831  0.2810
52263W        W95279  14.100  24.684   5.780 -0.2586 -0.0261 -0.2036
52264W        W95280  14.683   5.801  24.915  0.0377 -0.0517 -0.0129
52265W        W95281   6.393   2.801   7.395 -0.1777  0.0984 -0.2676
52266W        W95282   8.358  19.440  21.062 -0.0784  0.3156 -0.1417
52267W        W95283  13.226   0.971   2.555  0.2875  0.1100 -0.6270
52268W        W95284  17.934   1.877  21.099 -0.2401 -0.1992 -0.0457
52269W        W95285  20.743   1.768  15.161 -0.1567  0.2125  0.0120
52270W        W95286  20.381   4.824  19.935 -0.1742 -0.0101 -0.0053
52271W        W95287  22.721   2.748  18.472  0.0996 -0.0536 -0.0398
52272W        W95288  11.966  31.450  15.656 -0.0025 -0.0499 -0.4135
52273W        W95289  17.156  31.752   9.988 -0.1651  0.1656  0.0302
52274W        W95290  32.872  33.267   0.475 -0.1920 -0.1217 -0.0383
52275W        W95291   4.896   5.002  23.626 -0.0216 -0.3425  0.0965
52276W        W95292   6.596  27.016  17.827 -0.2244 -0.2913 -0.0093
52277W        W95293  11.045  27.828  22.870  0.0439 -0.0099 -0.0551
52278W        W95294  13.556  19.923  15.130 -0.2260 -0.0323 -0.1391
52279W        W95295   5.395  15.599  24.548 -0.0518  0.1851 -0.2835
52280W        W95296  12.344   4.079  15.199 -0.1776  0.0811  0.1907
52281W        W95297  26.732  10.875  19.267  0.0098 -0.0644 -0.1349
52282W        W95298   4.316  33.263   1.148  0.1944  0.1345  0.1965
52283W        W95299  16.438   1.423  24.561 -0.1664 -0.0638  0.0671
52284W        W95300  14.336  30.618  21.911  0.4369 -0.0401  0.1825
52285W        W95301  14.226   8.979   2.111 -0.0632  0.3053 -0.1909
52286W        W95302  12.244   5.204  22.397 -0.0382  0.1336 -0.2033
52287W        W95303  27.551   1.360  18.760 -0.0291 -0.2646  0.0731
52288W        W95304   6.255  24.403  29.307 -0.0358  0.0538 -0.1944
52289W        W95305   0.044   2.892   4.564 -0.0636 -0.0830  0.0713
52290W        W95306   3.278  15.516  24.160  0.1261 -0.0291 -0.3176
52291W        W95307  11.150  21.213   0.207 -0.1547 -0.0374 -0.1255
52292W        W95308  19.531   7.958   7.101  0.1218  0.0527 -0.0619
52293W        W95309  20.510   9.097  24.981  0.1248  0.0077  0.0871
52294W        W95310   2.293   8.706  18.396 -0.1095 -0.3263 -0.3333
52295W        W95311  29.285   2.660   6.701  0.0132  0.0992 -0.0845
52296W        W95312   4.793  17.051  14.620 -0.2133  0.2471 -0.1760
52297W        W95313  18.283   0.475  23.149 -0.0300 -0.0744  0.0242
52298W        W95314  15.664   8.368  23.052 -0.1756  0.0617  0.0956
52299W        W95315   2.039   7.844  26.224  0.0759 -0.1677 -0.0309
52300W        W95316  14.638  27.213   5.382 -0.0516  0.1491 -0.0392
52301W        W95317  18.909  29.076  28.482  0.2102 -0.0021  0.0213
52302W        W95318  12.612  34.757  18.962  0.1512  0.1191 -0.0100
52303W        W95319  11.696  15.589  16.389  0.2882  0.0294 -0.0640
52304W        W95320  19.326  11.298  19.533  0.0668 -0.0747 -0.1683
52305W        W95321  13.525   3.887   7.866  0.2185 -0.0197 -0.1211
52306W        W95322  16.561  22.395  13.592  0.0004 -0.1285 -0.0280
52307W        W95323  11.618   8.924  19.405 -0.0051 -0.2140  0.2595
52308W        W95324  13.419  25.882  23.760  0.1661 -0.0074  0.1070
52309W        W95325  17.303  14.413   4.607 -0.0725  0.2517  0.0230
52310W        W95326  23.899  20.222  17.888  0.3611 -0.0237  0.1270
52311W        W95327  21.832  22.394  18.054 -0.1457  0.0991  0.0066
52312W        W95328  25.235   8.772  28.738 -0.0284  0.2835  0.0270
52313W        W95329  33.106   4.158  18.165 -0.0224  0.2546  0.3651
52314W        W95330  34.214  34.017  17.602 -0.0081  0.0969  0.1399
52315W        W95331  25.703  25.372  19.307  0.0336  0.0932 -0.1969
52316W        W95332  10.578   6.583  17.668 -0.0493 -0.0097 -0.2126
52317W        W95333   1.394   4.037  24.939 -0.2235 -0.1526  0.0002
52318W        W95334  32.419  26.458  23.011 -0.3856  0.0799 -0.0516
52319W        W95335  10.904   0.204  17.504  0.1292  0.0519 -0.2012
52320W        W95336  25.810   5.655  27.868 -0.2867  0.0766  0.3663
52321W        W95337   1.444   2.034  24.413 -0.1747 -0.0282 -0.0111
52322W        W95338   3.794   2.080  18.715  0.0407 -0.0446 -0.2265
52323W        W95339   7.436  32.292   8.615  0.0023 -0.3052 -0.0396
52324W        W95340  21.926   8.728  22.141 -0.2663  0.4025  0.0147
52325W        W95341  14.756   6.062   2.549 -0.2310  0.0849 -0.2568
52326W        W95342   9.297  27.120  23.491  0.0797 -0.0656 -0.0536
52327W        W95343   6.614  12.512  15.474  0.1779  0.0154  0.0313
52328W        W95344  27.208   1.030  18.792  0.1389 -0.1743  0.1618
52329W        W95345   7.018  14.254  16.108 -0.1344 -0.0892 -0.0496
52330W        W95346   2.018  14.785  26.331 -0.3721 -0.1606 -0.3652
52331W        W95347   9.604   0.453  27.053  0.0465 -0.3674  0.2217
52332W        W95348  11.279   1.692  15.876  0.2087  0.0685 -0.0463
52333W        W95349  12.395   9.789  24.313 -0.0646 -0.2767  0.1090
52334W        W95350  27.300   7.494  24.490 -0.1615 -0.2516 -0.0574
52335W        W95351  34.123  14.008  23.010  0.1409  0.3250  0.2810
52336W        W95352   9.583  29.879  25.070 -0.0073  0.1280  0.3993
52337W        W95353   7.916  31.214   2.383  0.0667  0.2946 -0.0622
52338W        W95354  15.626   9.550  25.075  0.0660  0.2152  0.1063
52339W        W95355   7.770  17.389  26.355  0.1082  0.0848  0.0578
52340W        W95356  10.022  19.260  22.645  0.1942  0.4383 -0.0367
52341W        W95357   9.688  17.198  14.137 -0.1014 -0.1636  0.1289
52342W        W95358  31.242  29.515  21.049  0.1994  0.1014  0.0290
52343W        W95359  25.750   9.977  24.786  0.3395  0.2592 -0.1628
52344W        W95360  27.450  26.256  25.414  0.0276  0.2923  0.1229
52345W        W95361  22.958  34.425  22.805  0.2938 -0.2271 -0.1396
52346W        W95362   5.575  34.718  25.854  0.0390  0.1674 -0.3232
52347W        W95363  26.807  31.709  18.821  0.0837  0.1242 -0.0306
52348W        W95364  20.930   4.738  22.511 -0.0441 -0.1080  0.1508
52349W        W95365  25.230   2.850  24.375 -0.0298 -0.0398 -0.0410
52350W        W95366  10.168   3.097  14.098 -0.3393 -0.3143 -0.2553
52351W        W95367  20.905  34.380   2.302  0.2494  0.0227  0.1335
52352W        W95368  21.102  18.593  15.311  0.0646 -0.1613  0.0320
52353W        W95369  12.184   3.448  14.140 -0.0271  0.2190  0.2211
52354W        W95370   4.002   5.913  21.638 -0.0968  0.1759 -0.0504
52355W        W95371  19.322  26.208  24.688 -0.3437  0.2094  0.1278
52356W        W95372   1.662  10.559  20.672 -0.1918 -0.2644  0.1514
52357W        W95373  25.947  10.453  18.142  0.0054 -0.2886 -0.1012
52358W        W95374  19.840  25.790   0.885 -0.3206  0.1460  0.1810
52359W        W95375  22.662   6.427  16.727  0.1335 -0.1055 -0.2649
52360W        W95376  32.836   4.673  20.510  0.1681 -0.1299  0.2628
52361W        W95377   1.198   8.752  22.024 -0.1239  0.2108  0.2102
52362W        W95378   8.310   7.114  22.246  0.1127  0.1942  0.3459
52363W        W95379   8.395  25.185   4.063 -0.5630  0.0206  0.1229
52364W        W95380  16.237   7.574  21.133 -0.1688  0.0083  0.1307
52365W        W95381  27.490  29.612  23.911  0.0011 -0.2231 -0.0970
52366W        W95382  17.896   2.440  17.793  0.0798 -0.1038  0.1140
52367W        W95383  14.351   9.018  16.950 -0.1098  0.2189 -0.3533
52368W        W95384  14.319  32.398  14.365  0.1101  0.0056  0.0117
52369W        W95385  27.447  11.315  17.042 -0.1361  0.0454  0.3781
52370W        W95386  13.907  25.408  22.475  0.0613 -0.0240 -0.5126
52371W        W95387   2.250   3.931  17.038 -0.0090 -0.2344  0.3140
52372W        W95388   0.734  26.815  15.031  0.3070 -0.1680 -0.1400
52373W        W95389  28.624  24.837  16.526  0.0734  0.1456  0.1219
52374W        W95390  16.364   2.802  25.201  0.4396  0.1182 -0.3296
52375W        W95391  16.210  34.756  18.436 -0.0086 -0.0737  0.0386
52376W        W95392  13.644   8.199  16.221  0.0867 -0.0456 -0.1750
52377W        W95393  23.495   8.959  27.822 -0.0471  0.1866 -0.1149
52378W        W95394  11.702  28.127  15.826  0.0178  0.0234  0.2403
52379W        W95395  16.301  23.019  24.673 -0.0338 -0.3472  0.2851
52380W        W95396  34.672  13.309  20.993 -0.1221  0.1304 -0.0863
52381W        W95397  33.625   7.279   3.230 -0.2278  0.0470  0.2128
52382W        W95398   7.335  27.481  26.866  0.2305 -0.0223 -0.1288
52383W        W95399   6.315   6.215   7.251  0.1645  0.2783  0.1478
52384W        W95400  22.363   6.419  17.784 -0.1132 -0.0083 -0.2257
52385W        W95401  19.811   6.809   2.361  0.3337 -0.1029  0.1458
52386W        W95402  13.932   5.430   1.038  0.1229 -0.4413  0.0275
52387W        W95403   1.677  34.496  16.387 -0.0627 -0.0008 -0.4207
52388W        W95404  33.544  27.404  19.398 -0.0474 -0.2758 -0.2893
52389W        W95405  22.936   5.316  21.764  0.1280 -0.0702  0.0696
52390W        W95406  26.635   0.173  27.304 -0.0143  0.2625  0.1306
52391W        W95407  33.931  31.594  18.575 -0.0999  0.2671  0.1564
52392W        W95408  19.009  23.714   1.633  0.0450 -0.2201  0.0322
52393W        W95409  18.760  11.736  16.021  0.0992  0.0749 -0.1179
52394W        W95410  15.443  27.962  20.098  0.0524 -0.0115 -0.1934
52395W        W95411   8.077  13.976  25.083  0.1586  0.1350 -0.1313
52396W        W95412  33.685  18.286   0.681  0.0279 -0.0003 -0.1229
52397W        W95413  11.993  24.262   4.912  0.0361 -0.2800 -0.0465
52398W        W95414  22.529   7.523  18.224 -0.0638  0.2016  0.1975
52399W        W95415   9.203  28.189  13.842 -0.1826 -0.0491 -0.1134
52400W        W95416  32.336   2.927  23.234  0.1818 -0.0460 -0.1577
52401W        W95417  21.915   4.391   1.455  0.2443 -0.2202 -0.0062
52402W        W95418  13.294  11.895  26.325 -0.0771  0.1617  0.0111
52403W        W95419  19.936  19.273  13.463 -0.4145 -0.3391  0.1063
52404W        W95420   9.813  14.913  20.063 -0.0764 -0.0462  0.0306
52405W        W95421  12.650  25.383  23.718 -0.1158  0.3158 -0.2237
52406W        W95422  14.746   8.246  15.646  0.0247  0.4442 -0.1083
52407W        W95423   8.247   2.918  14.518  0.2119 -0.1802 -0.0128
52408W        W95424   0.588  27.159  21.740 -0.1108 -0.0953  0.2528
52409W        W95425   8.535  12.046  15.374  0.1519 -0.1398  0.0814
52410W        W95426  34.287   3.760   9.160 -0.0056 -0.2011  0.0773
52411W        W95427  17.165   6.768  17.379 -0.0868 -0.0419 -0.1376
52412W        W95428  14.008  25.969  25.330  0.1055  0.1723  0.2795
52413W        W95429   7.710  10.686  22.533  0.0503 -0.1009  0.1448
52414W        W95430   8.749   7.788  14.948 -0.1616  0.0881 -0.2214
52415W        W95431  12.398  12.470  15.299 -0.0356 -0.4619 -0.1327
52416W        W95432   6.108   0.195  15.656  0.1646  0.1228 -0.1255
52417W        W95433   0.113   8.306  17.587 -0.0846 -0.0825  0.1662
52418W        W95434   2.524  29.207  16.219  0.3722  0.2875  0.1741
52419W        W95435  21.480  31.319  23.797 -0.0030 -0.1254 -0.1618
52420W        W95436  10.003   9.073  22.904 -0.0133 -0.1444  0.0948
52421W        W95437  18.868  10.596   7.681 -0.1776  0.0728 -0.1179
52422W        W95438  10.945   0.403  27.745 -0.3738 -0.0695  0.2636
52423W        W95439  34.354  21.203   0.989  0.1843 -0.0036 -0.0458
52424W        W95440  14.317  17.925   1.496  0.2244 -0.0184 -0.3531
52425W        W95441   6.044  28.382  15.193  0.0553  0.0594  0.0858
52426W        W95442   9.626  12.551  13.784  0.1614 -0.3166  0.3006
52427W        W95443  19.928  29.577  23.635  0.4530 -0.4343  0.1434
52428W        W95444  19.363  11.331   7.362 -0.0520 -0.1717  0.1145
52429W        W95445  12.330  33.026  23.506 -0.0023 -0.0422  0.0987
52430W        W95446  11.519   4.242  22.905 -0.4011  0.1615 -0.0186
52431W        W95447  29.104   1.801  28.395 -0.3263  0.1665 -0.0303
52432W        W95448  10.104  19.985  16.940 -0.2373 -0.0670 -0.0589
52433W        W95449  15.468   0.697  23.781 -0.2275 -0.0919  0.3245
52434W        W95450  12.701   4.310  24.391  0.1477 -0.1313  0.0493
52435W        W95451   8.110   1.083   0.436 -0.1319 -0.0932 -0.3507
52436W        W95452  15.631  23.273  22.348  0.0918 -0.0924  0.0815
52437W        W95453   2.468   3.915  19.423 -0.3747 -0.3546  0.0554
52438W        W95454   0.165  10.434   1.640  0.2232 -0.1563 -0.0025
52439W        W95455  33.101  32.945   7.039  0.1395  0.0876 -0.0886
52440W        W95456  18.735   7.907   3.512 -0.1356  0.1659 -0.0151
52441W        W95457  24.720  23.160  28.085 -0.1229  0.0376 -0.1001
52442W        W95458  17.896  32.306  26.482 -0.2320  0.2444  0.1437
52443W        W95459   3.468  16.409  18.177  0.0811  0.0275  0.0957
52444W        W95460  14.532  21.215  21.054  0.0951  0.1788  0.0684
52445W        W95461  10.731  32.926  15.584  0.2290 -0.1148 -0.0493
52446W        W95462  29.522  28.179  22.738  0.0593 -0.0295 -0.0360
52447W        W95463  33.510   1.102  18.873  0.0339 -0.0254  0.0834
52448W        W95464   8.120  16.590  21.169  0.1150 -0.0244 -0.2562
52449W        W95465  26.721  31.058  22.978  0.0689  0.2076 -0.1847
52450W        W95466  22.279  31.315  17.118 -0.0472 -0.1445 -0.1386
52451W        W95467   4.002   8.890   3.675  0.2648  0.2469 -0.0245
52452W        W95468  31.502  27.400  20.515  0.0860 -0.0284 -0.0611
52453W        W95469   6.979  25.880   2.246  0.1223  0.0287  0.1323
52454W        W95470   1.355   4.865   3.828 -0.4318  0.1270 -0.2506
52455W        W95471   8.120  22.489   1.858 -0.0410  0.0043 -0.1859
52456W        W95472  15.438  10.542  17.786 -0.0758  0.2190 -0.2499
52457W        W95473  15.293  30.810  22.721  0.1831 -0.0645 -0.0722
52458W        W95474   4.571   4.717  20.745 -0.0308  0.0196 -0.1518
52459W        W95475  13.229  27.211  25.849  0.0231 -0.0339  0.3403
52460W        W95476  21.514  32.636   0.177 -0.0620  0.0996 -0.1379
52461W        W95477   7.647  26.458   8.587  0.1323  0.3584 -0.1099
52462W        W95478   8.236  21.925  26.177 -0.1367 -0.0091 -0.1304
52463W        W95479  16.711  17.397  27.612  0.1071 -0.0836  0.0922
52464W        W95480  17.518   5.745  28.319  0.2283  0.1175 -0.0298
52465W        W95481  31.010   0.189   2.588 -0.3639 -0.4642 -0.0508
52466W        W95482  24.192  22.774  23.312 -0.2936  0.1857 -0.0569
52467W        W95483   6.698   3.321  15.570  0.2484 -0.1818  0.0309
52468W        W95484  16.146   6.300  23.501  0.1352 -0.1045 -0.0235
52469W        W95485  22.710  24.424  22.947  0.0421  0.2874  0.1054
52470W        W95486   1.092  21.910  26.457  0.0717  0.2290  0.0914
52471W        W95487  14.117   9.701   7.451 -0.1766 -0.0237  0.1599
52472W        W95488  34.542   9.107   1.844 -0.0588 -0.1471  0.2934
52473W        W95489  20.302  22.085  20.474  0.0774 -0.2352 -0.0301
52474W        W95490   7.944  17.374  13.999  0.0012  0.0772  0.0049
52475W        W95491   8.564  25.483  13.776 -0.4675  0.0693  0.4848
52476W        W95492   8.903   7.789  16.302 -0.1397  0.0937  0.0770
52477W        W95493   5.759  10.386  28.647 -0.0131  0.0219  0.0096
52478W        W95494   8.989   5.393  27.923 -0.1713  0.1030 -0.1161
52479W        W95495  10.310  15.384  16.727  0.0235  0.1066 -0.0971
52480W        W95496   9.459  33.730  28.282 -0.0063  0.0456  0.3682
52481W        W95497   1.679  28.133   0.739 -0.0777 -0.0215  0.2087
52482W        W95498  18.365   5.522  22.163  0.0294  0.1048 -0.0430
52483W        W95499  22.314  29.409  15.399 -0.0867  0.0000 -0.0066
52484W        W95500  11.297  25.519  16.761 -0.2640  0.2395  0.1155
52485W        W95501  13.625  19.431  12.926  0.0700  0.4083 -0.0240
52486W        W95502  34.553  30.210   8.459 -0.0451 -0.0365 -0.2108
52487W        W95503  12.441   1.252  23.636  0.2417  0.0771  0.0254
52488W        W95504  30.154  29.669   8.431  0.1814  0.2926  0.2603
52489W        W95505  20.515  11.463   6.916  0.0595  0.0913 -0.0290
52490W        W95506  15.221   5.955  17.388  0.0406 -0.1777 -0.0313
52491W        W95507   3.600  33.393  15.241 -0.0821 -0.2339  0.1213
52492W        W95508  11.797  10.306   3.178  0.1479 -0.3434  0.0558
52493W        W95509  30.969  29.185  27.967  0.2902 -0.2343 -0.1813
52494W        W95510   6.551  20.504  19.131  0.0741 -0.1639 -0.1715
52495W        W95511  12.160   0.143  24.124  0.0297  0.1485  0.0564
52496W        W95512  19.815   9.044  15.275 -0.1838 -0.1454 -0.0014
52497W        W95513  26.138  15.614  19.615  0.2925 -0.0525 -0.0794
52498W        W95514  30.942  33.439   9.284 -0.1999  0.0483  0.2723
52499W        W95515  17.641  31.011  17.218  0.2492 -0.0467  0.1256
52500W        W95516  20.863   7.502  20.390  0.3106 -0.3366  0.1497
52501W        W95517   5.202  31.718   1.466 -0.0003 -0.0676  0.3105
52502W        W95518  16.015   4.753  24.862  0.0014  0.1083 -0.1217
52503W        W95519  19.242  34.229   6.346 -0.2370  0.0023  0.1018
52504W        W95520  12.040   0.189  22.074 -0.1239  0.1583  0.0237
52505W        W95521  12.437  32.224   9.246 -0.0011  0.1023 -0.1610
52506W        W95522   6.580   7.969  21.150  0.2153 -0.0219  0.1976
52507W        W95523  13.418   2.015  23.858  0.0181  0.1037  0.3942
52508W        W95524   0.455   6.988   1.366  0.2008 -0.0129 -0.1060
52509W        W95525  24.227   1.919  27.795 -0.0715  0.1055  0.3567
52510W        W95526  15.485   3.128  13.408 -0.1430 -0.0858 -0.0556
52511W        W95527   3.609  20.736  24.650  0.2896  0.4376  0.1375
52512W        W95528   6.080  33.152  15.009 -0.2604 -0.0021  0.0840
52513W        W95529   6.858   1.368  18.740 -0.2478 -0.3091 -0.1163
52514W        W95530   4.302   0.356  28.627  0.0456 -0.1446  0.0524
52515W        W95531  30.974  15.207  22.245  0.0577  0.0552  0.0218
52516W        W95532   2.680   7.932  15.165 -0.0497  0.0476  0.0173
52517W        W95533  18.253  27.647   0.060 -0.1950  0.1092 -0.0686
52518W        W95534  11.616   2.958  28.858  0.1020  0.2315 -0.0345
52519W        W95535  19.436   0.497  21.828 -0.2261  0.2623  0.1467
52520W        W95536  10.760  33.753  23.137  0.0202 -0.1662  0.1601
52521W        W95537   3.339  11.671  16.090  0.1399 -0.2695 -0.3599
52522W        W95538  14.280  22.843   7.239 -0.1362 -0.1864  0.2164
52523W        W95539  10.150  23.916  20.868  0.1009  0.0133 -0.1655
52524W        W95540   7.569   4.120   6.655  0.0254  0.0820  0.0237
52525W        W95541   4.064  25.949  23.325  0.4897  0.1616 -0.5380
52526W        W95542   3.712   6.326  14.361  0.0893 -0.1794 -0.1208
52527W        W95543  24.798  29.406  20.920 -0.2391  0.4293  0.0382
52528W        W95544  10.342  29.422   8.250 -0.2514 -0.0970  0.1332
52529W        W95545  13.689  31.171  18.115  0.0225  0.0849 -0.3978
52530W        W95546  24.678  32.347  17.623 -0.1667 -0.2175  0.0947
52531W        W95547  25.942  17.898  27.635  0.1207 -0.0169  0.0780
52532W        W95548   8.408  29.121  17.259  0.0075  0.2700 -0.1883
52533W        W95549   9.780   4.915   8.559  0.0699 -0.2463 -0.1994
52534W        W95550   6.673  31.574  26.327 -0.1185 -0.4204 -0.1118
52535W        W95551  17.519   0.793   2.085  0.1393  0.0995  0.0253
52536W        W95552  33.197   1.338  18.071 -0.1157  0.2370 -0.0617
52537W        W95553   9.236   2.968  22.951 -0.1435  0.1264 -0.2683
52538W        W95554  17.373  23.986  25.198  0.4138 -0.3187  0.0773
52539W        W95555  20.986  28.443  18.991 -0.0260  0.1096  0.0078
52540W        W95556  22.656  32.246  19.077  0.2583  0.0200  0.0563
52541W        W95557   2.552   0.091   9.184 -0.1135 -0.0740  0.1530
52542W        W95558  33.802  32.675  27.511  0.0243  0.1357 -0.0192
52543W        W95559  13.238  14.001  19.015  0.0394 -0.0949  0.1636
52544W        W95560   4.590  33.133  20.385 -0.2516  0.2185  0.0262
52545W        W95561  12.471  32.605   1.144 -0.2864  0.0131  0.2163
52546W        W95562  20.910  25.887  23.024 -0.0940  0.0650  0.0376
52547W        W95563  29.598   9.229  29.040  0.0583 -0.1609  0.2696
52548W        W95564   7.479  27.197  17.585 -0.0522 -0.0149  0.0646
52549W        W95565   8.725  23.673  28.985  0.2013  0.1072  0.0181
52550W        W95566   5.327  25.911  21.695  0.1414  0.1105 -0.0326
52551W        W95567  29.469  31.701   4.017 -0.0292 -0.0881 -0.1603
52552W        W95568  11.069  30.577   1.219  0.0331 -0.2038 -0.1257
52553W        W95569  13.836   7.411  27.344  0.2293 -0.0850  0.0145
52554W        W95570  27.590   8.855   6.962  0.0657 -0.2736 -0.1881
52555W        W95571  12.794  34.408  21.210  0.2404 -0.0717  0.0347
52556W        W95572  15.344  26.221  19.045 -0.1025  0.1496  0.2350
52557W        W95573  14.979  15.647  27.553  0.0885 -0.2925 -0.0908
52558W        W95574   9.726  28.057  16.245 -0.2989 -0.1176  0.2159
52559W        W95575  14.126  10.005  19.551 -0.1323  0.0176  0.0477
52560W        W95576  20.490   1.846  21.043 -0.2304  0.1061 -0.1292
52561W        W95577   5.535   7.881  26.454 -0.1359 -0.2532 -0.0165
52562W        W95578  12.337   6.911  15.215  0.2314  0.0471  0.1155
52563W        W95579   7.786  23.470  24.073 -0.5707  0.0624  0.0493
52564W        W95580   4.486   0.628  20.596  0.0747 -0.1176 -0.1105
52565W        W95581   5.630  34.552  21.477 -0.0253  0.2388 -0.0342
52566W        W95582  16.756  24.812   0.803  0.2458  0.0040 -0.0315
52567W        W95583   0.983  24.421  29.187  0.1220 -0.1480  0.1345
52568W        W95584   4.573  24.707   5.409 -0.1372 -0.0593  0.0477
52569W        W95585  14.990  10.409  16.876  0.0610  0.0778  0.2317
52570W        W95586  18.266   2.682   6.962 -0.0394  0.2008 -0.1111
52571W        W95587  24.256  31.454  24.527 -0.1316 -0.1215  0.1637
52572W        W95588   2.872  33.341  14.748  0.0303 -0.1094 -0.1453
52573W        W95589  12.685   7.006  18.838 -0.2963  0.4614 -0.4356
52574W        W95590  12.888   5.191  28.270 -0.1355 -0.0900  0.3206
52575W        W95591   0.570   9.964  17.320 -0.1075 -0.3042 -0.1326
52576W        W95592   7.145   3.141  27.422 -0.2599  0.0668  0.0909
52577W        W95593  16.415  13.661  20.481  0.3252  0.3914  0.0639
52578W        W95594  21.398  25.907  23.448 -0.0289  0.3297  0.0401
52579W        W95595  22.072   0.338   3.869 -0.2120 -0.0641  0.0175
52580W        W95596  16.630   2.208  15.817 -0.1452  0.0316  0.3468
52581W        W95597   7.493   9.943   0.324 -0.0808  0.2198  0.1061
52582W        W95598  21.000   6.981  18.650  0.1906  0.0256 -0.0599
52583W        W95599  12.215  27.852  26.471 -0.1080  0.3575  0.2538
52584W        W95600  15.989  20.832  28.671 -0.0213  0.2022 -0.3256
52585W        W95601  15.067  16.164  22.802 -0.2031  0.2541 -0.0081
52586W        W95602   7.766   5.191   4.722 -0.0365 -0.1411 -0.1023
52587W        W95603  25.672  13.449   5.796 -0.2915 -0.1288  0.1273
52588W        W95604  26.746   1.460  24.589 -0.0439 -0.2617 -0.2976
52589W        W95605   2.696   5.418  27.238 -0.0168 -0.5077 -0.0836
52590W        W95606   7.010   6.707  23.057  0.1805  0.0535  0.0899
52591W        W95607  14.183  11.285  22.820  0.0254 -0.0892  0.0204
52592W        W95608   6.800  31.170   4.736 -0.0518 -0.2248  0.1022
52593W        W95609  12.191  13.120  25.626  0.2087  0.3486 -0.2729
52594W        W95610  11.510   4.166  21.562 -0.1270 -0.2719  0.1644
52595W        W95611  19.848  33.813  28.569 -0.0154 -0.0104  0.1007
52596W        W95612  11.535   4.864  14.627  0.1013 -0.2303  0.0840
52597W        W95613   8.570  17.995  23.342  0.2412 -0.2012 -0.3268
52598W        W95614  16.459   9.821  15.675 -0.0091 -0.1438  0.0575
52599W        W95615  30.890  15.228   9.235  0.3816  0.3772  0.0804
52600W        W95616   7.549  31.629  17.931 -0.2188  0.0938  0.1036
52601W        W95617  14.513  29.669  18.791  0.2322  0.0105 -0.0399
52602W        W95618   6.098   4.546   5.622  0.4270  0.0337  0.1735
52603W        W95619  32.698   5.770   4.782 -0.0700 -0.0713  0.1815
52604W        W95620  13.420   9.991   7.504  0.0389  0.0371 -0.1957
52605W        W95621  24.381   8.380  23.495  0.2017  0.1962 -0.2054
52606W        W95622   4.428   8.059  19.539 -0.1792  0.1197  0.0374
52607W        W95623  16.574  17.343   4.934 -0.0213 -0.5041  0.0601
52608W        W95624  33.245   8.946  22.906 -0.0310  0.2613  0.2995
52609W        W95625   2.925  32.520  17.818 -0.0689 -0.0168  0.1846
52610W        W95626   1.906  12.259   1.158  0.3052  0.1716 -0.0517
52611W        W95627  12.644  11.424  14.138 -0.1801  0.4097  0.1912
52612W        W95628  34.729   2.544   2.066 -0.2917 -0.0772 -0.0096
52613W        W95629   1.445  32.976  17.799 -0.5081  0.2898 -0.3207
52614W        W95630  17.723  30.914  25.186  0.0718 -0.0663 -0.1378
52615W        W95631   7.967  32.469  22.707  0.4553  0.1625  0.1567
52616W        W95632  22.437   3.083  21.168 -0.1109 -0.1945 -0.0049
52617W        W95633  18.517   1.729   0.096 -0.0247 -0.0661  0.0792
52618W        W95634  26.211   1.070   7.424  0.0735 -0.0110 -0.3670
52619W        W95635  22.216   3.655   8.789  0.0183 -0.0928  0.0663
52620W        W95636   9.503  24.624  26.861 -0.0702  0.2204  0.1926
52621W        W95637  20.277  23.606  20.516 -0.0909 -0.3682  0.1651
52622W        W95638   1.944  24.335   4.176 -0.0421 -0.1991  0.1586
52623W        W95639  26.767   9.514  27.465 -0.0368 -0.1331 -0.0706
52624W        W95640  31.407  31.806  20.534  0.1921 -0.2924  0.1616
52625W        W95641   9.936   0.420   9.452 -0.0356 -0.0597 -0.1521
52626W        W95642   2.389  29.151  24.734 -0.0951  0.2128  0.0001
52627W        W95643  30.015  30.198   5.133  0.1367 -0.1446 -0.0901
52628W        W95644   3.692  21.523   7.428  0.0418 -0.1802  0.0356
52629W        W95645  30.628   3.786  17.832  0.0119 -0.1980  0.0816
52630W        W95646   4.343  11.374  20.971 -0.0057  0.1387  0.2461
52631W        W95647  11.643  28.132  24.294  0.0519 -0.2051 -0.0563
52632W        W95648  25.237  10.343  14.722  0.0502 -0.2136 -0.3112
52633W        W95649   4.317  17.046  24.143 -0.0537 -0.0145  0.3253
52634W        W95650  32.049   1.457  28.323  0.3654 -0.2397 -0.1969
52635W        W95651  33.908   9.524  28.355 -0.3777  0.1001 -0.1164
52636W        W95652  13.891   2.979  26.233 -0.1564  0.0545  0.0562
52637W        W95653  19.146   3.542  13.479 -0.3754  0.0143 -0.4303
52638W        W95654  16.758   2.108  23.996 -0.2194  0.4168  0.0368
52639W        W95655   9.484   6.301  28.903 -0.1321 -0.4081 -0.2203
52640W        W95656  13.063  34.131  19.921 -0.2186 -0.0218  0.0026
52641W        W95657  22.728   6.408  28.304  0.1504  0.0545  0.1121
52642W        W95658   5.682   0.436  26.817  0.5660  0.2846 -0.1633
52643W        W95659  10.593  14.937  13.815  0.1091  0.0928 -0.0472
52644W        W95660   3.437   5.282  20.278  0.2537 -0.0439  0.1836
52645W        W95661   9.587  32.980  19.782  0.3016  0.3689  0.1234
52646W        W95662  11.948  30.646   6.886  0.1339  0.3005 -0.1505
52647W        W95663   3.077   8.876  23.909  0.0185 -0.0431  0.2049
52648W        W95664  22.235   7.672  27.787 -0.2298 -0.0720 -0.1830
52649W        W95665   8.787  24.578  15.192  0.1142  0.0470 -0.1353
52650W        W95666   3.676  11.907  25.813 -0.1006  0.2040 -0.3524
52651W        W95667   9.190   8.732  26.951 -0.0774  0.2780  0.0206
52652W        W95668   5.898   7.391   5.879  0.0111  0.0103 -0.0992
52653W        W95669   9.815  26.366  16.110  0.1811 -0.0791 -0.1583
52654W        W95670   6.073  10.875  14.655 -0.2977 -0.2563 -0.0232
52655W        W95671  17.992  19.092  28.903 -0.0593 -0.0499 -0.3355
52656W        W95672  23.874   4.838  24.648 -0.1694 -0.4055 -0.0659
52657W        W95673   3.630   3.164  15.980 -0.0028 -0.0468 -0.1922
52658W        W95674  11.755  26.425  22.034  0.1188 -0.3315  0.1759
52659W        W95675   8.961   9.603  23.982  0.3139  0.2214  0.1945
52660W        W95676   1.778  32.011   9.584 -0.0464  0.0099  0.2567
52661W        W95677   0.616  29.632  16.894  0.0584  0.1230 -0.1067
52662W        W95678  12.040   4.267  21.731  0.1313  0.0318  0.1342
52663W        W95679  27.067   2.469  17.207  0.0391  0.3003 -0.1503
52664W        W95680  18.285   0.434  10.053  0.4072  0.0137 -0.0220
52665W        W95681  12.041   1.407  20.765  0.1496 -0.0078  0.0703
52666W        W95682   9.368  24.906   7.690  0.2581 -0.1031  0.1010
52667W        W95683  11.118  34.064  24.038 -0.0164  0.0928  0.1180
52668W        W95684  23.305  34.729  23.183 -0.1708  0.0020  0.0238
52669W        W95685  22.702  25.042   1.616  0.2226 -0.2131  0.2861
52670W        W95686  20.835   6.539  24.084 -0.1026 -0.0588  0.0871
52671W        W95687  11.448  24.875  17.830  0.1511  0.1213  0.3030
52672W        W95688  25.565  26.227   8.990  0.0427 -0.2910  0.0845
52673W        W95689  11.384  31.149  20.584 -0.0908  0.3080  0.2910
52674W        W95690   5.433   4.180  16.005 -0.0899  0.0854  0.5222
52675W        W95691   7.476  14.928  20.677 -0.1071  0.2638 -0.1967
52676W        W95692  11.665  28.805  16.464  0.0725 -0.0713 -0.1643
52677W        W95693   9.621   8.013   4.373 -0.0324  0.0546  0.2000
52678W        W95694  10.843  15.989  21.532  0.0298 -0.2630  0.1726
52679W        W95695   8.019  27.789   0.288  0.2988 -0.0086 -0.0661
52680W        W95696  27.864  13.147  22.151  0.1136  0.0058  0.0230
52681W        W95697  21.200   9.563   5.129  0.0065  0.0349 -0.0543
52682W        W95698  28.067  33.175  20.181  0.0645 -0.3675  0.0034
52683W        W95699  15.277  30.534   9.310  0.0834 -0.1465  0.0348
52684W        W95700   5.778   9.496  26.914 -0.2446 -0.0533 -0.3008
52685W        W95701   8.491  32.237  25.529 -0.1307  0.0444 -0.0449
52686W        W95702  23.532   2.495   2.768  0.1873  0.2279 -0.0240
52687W        W95703  20.084  31.066   6.813  0.0468  0.2419  0.1228
52688W        W95704  20.513   0.650   0.524 -0.2790 -0.2345 -0.1409
52689W        W95705  24.898   0.077  23.011  0.0261  0.0499  0.0083
52690W        W95706  25.680  30.621  18.729  0.0812  0.0780 -0.2282
52691W        W95707   2.917   1.417  13.832 -0.2414  0.1430 -0.2201
52692W        W95708   7.958   0.666  22.047 -0.0716  0.0729 -0.0520
52693W        W95709  15.610  15.061   1.848  0.1158 -0.1703  0.1054
52694W        W95710  19.505   8.926  16.359  0.4182  0.2800  0.0690
52695W        W95711  15.072  30.825   6.977 -0.0630 -0.1706 -0.1651
52696W        W95712  33.483  30.145  16.892 -0.2405  0.3395  0.1422
52697W        W95713   5.474  17.816  27.937  0.0672 -0.2438  0.0129
52698W        W95714  14.287  30.050   6.450 -0.2872  0.2197  0.0323
52699W        W95715   6.994  22.192  28.816 -0.1351 -0.0094 -0.1552
52700W        W95716   7.775  11.950   3.137  0.3474  0.1929  0.5267
52701W        W95717   4.266  24.962  22.030  0.0663 -0.0702  0.2190
52702W        W95718   9.651  10.351  16.132 -0.2512  0.1962 -0.1340
52703W        W95719  12.324  27.639  19.897 -0.0174  0.2739 -0.2166
52704W        W95720   6.217   9.411  23.893  0.2678  0.0693 -0.1738
52705W        W95721  30.326   1.490   3.008 -0.0319 -0.0901 -0.1334
52706W        W95722  27.476   4.792  15.267  0.0066  0.1961  0.1355
52707W        W95723  11.853  11.159  23.546 -0.0647 -0.0086 -0.3272
52708W        W95724  11.497   2.715   1.418 -0.3845 -0.0906  0.1627
52709W        W95725  13.896  33.795  17.708 -0.0035 -0.1171  0.1422
52710W        W95726   8.014  30.300  28.867  0.1249 -0.4710 -0.1844
52711W        W95727  21.528  31.980  23.237 -0.1466  0.3559  0.0312
52712W        W95728   7.253  33.354   5.906 -0.0975 -0.2659 -0.0656
52713W        W95729   6.437   5.150   8.191  0.3946  0.2741  0.0095
52714W        W95730  27.067  30.681  17.396  0.0210  0.2209  0.1276
52715W        W95731   8.924  24.454   6.905  0.1494 -0.0257 -0.0847
52716W        W95732   5.668  33.841  14.764 -0.0667 -0.0580  0.1361
52717W        W95733  20.398   7.816  23.769 -0.3280  0.1612  0.0977
52718W        W95734   7.381   5.419  26.798 -0.2579  0.0294 -0.0406
52719W        W95735   3.249  18.896  20.569 -0.2102  0.0526  0.2751
52720W        W95736  16.357   4.124  24.609  0.2479 -0.1971  0.0938
52721W        W95737   5.366   2.747  27.154 -0.0185  0.0316  0.0293
52722W        W95738  31.517  29.283  17.739 -0.2056  0.1344 -0.2694
52723W        W95739   9.038   8.487  17.456 -0.1952  0.0002  0.1635
52724W        W95740  28.672   2.702  19.593  0.1358 -0.0057 -0.1090
52725W        W95741  32.942   7.305  21.878 -0.1510 -0.2764  0.2780
52726W        W95742  19.988   8.469  24.892  0.2278  0.0855  0.0539
52727W        W95743  21.343  30.155   6.981 -0.2391 -0.1571 -0.1298
52728W        W95744  32.576  30.643  17.789  0.2592  0.1402 -0.0696
52729W        W95745  15.251  28.669  22.267 -0.1945  0.2287 -0.1905
52730W        W95746   9.573   1.848   0.940 -0.1620 -0.2296  0.0190
52731W        W95747  11.894  10.906  17.435 -0.2232  0.3080  0.3619
52732W        W95748  20.454  10.240   5.234 -0.2952 -0.1198 -0.0185
52733W        W95749  12.232   0.833  18.472 -0.1480 -0.1491 -0.0708
52734W        W95750  10.758   2.850   0.437 -0.0660  0.0834  0.0136
52735W        W95751  32.347  33.822  29.067 -0.3615 -0.2182  0.1122
52736W        W95752  22.968  34.731  23.539  0.3256 -0.1737 -0.1071
52737W        W95753   9.395   2.461  26.768  0.0481  0.1768 -0.1090
52738W        W95754   3.462   3.981  17.457  0.3075  0.1561  0.1554
52739W        W95755   9.783   0.736  26.601  0.1210  0.1103  0.0266
52740W        W95756  30.448   5.649  18.410 -0.0432  0.2181 -0.1148
52741W        W95757   6.767   6.389  19.179 -0.1108 -0.0872  0.2566
52742W        W95758  15.711  19.770  21.540  0.0750  0.1781 -0.2290
52743W        W95759  21.771  22.180  23.621 -0.0626  0.0663  0.2225
52744W        W95760  25.611  33.240  22.492  0.2205 -0.0941  0.0290
52745W        W95761  24.631   8.370  21.717 -0.0611 -0.0934  0.1899
52746W        W95762   9.693  34.705  17.711  0.1183  0.4363  0.0823
52747W        W95763  17.777  28.347  16.267 -0.0405  0.0313  0.2263
52748W        W95764  11.478   1.862   1.614 -0.2599 -0.0609  0.1667
52749W        W95765  16.979   6.035   3.552  0.3468 -0.3286 -0.0413
52750W        W95766   5.460  32.255   8.601 -0.0983  0.1816  0.3970
52751W        W95767  27.469   8.819  25.944  0.1836  0.2875  0.1966
52752W        W95768  12.370  30.161   4.943  0.0977 -0.1183  0.0176
52753W        W95769  17.239   6.395  22.473 -0.1010 -0.3341 -0.3112
52754W        W95770  10.800  29.844  28.655  0.2730  0.0417 -0.0943
52755W        W95771   9.630   4.965  19.651  0.0255 -0.1138 -0.1442
52756W        W95772   7.664  27.823   6.009 -0.0429  0.1436 -0.1724
52757W        W95773   8.380  16.516  20.685  0.2540 -0.1254 -0.0200
52758W        W95774  25.744   0.246  17.061 -0.0128  0.3894 -0.0652
52759W        W95775   8.399  11.335  22.699 -0.0377 -0.2191 -0.0157
52760W        W95776   6.669   9.957  22.706  0.1904  0.0650 -0.1568
52761W        W95777  29.470   2.995   3.151 -0.2220  0.2778 -0.0255
52762W        W95778  18.601   5.144  14.194  0.1972  0.0866 -0.0713
52763W        W95779  20.300  33.742  17.812 -0.1408 -0.2081  0.0800
52764W        W95780  18.212  16.927  25.095  0.2725  0.2082 -0.2202
52765W        W95781  17.006  14.355  23.925  0.0019  0.3404  0.2896
52766W        W95782   6.248  29.687  28.610  0.1372  0.0633 -0.1820
52767W        W95783  10.426  10.207  23.990 -0.2393  0.5054  0.1247
52768W        W95784   8.639   7.722  15.438 -0.0519  0.2407  0.1157
52769W        W95785  15.734   0.951  20.416 -0.3437 -0.1582 -0.2354
52770W        W95786  17.362   7.418  13.426  0.0181  0.1647 -0.0837
52771W        W95787  31.992  33.568  18.700  0.0279  0.3921  0.1918
52772W        W95788   6.726  26.731  15.376  0.1117 -0.0381 -0.1705
52773W        W95789   2.020  31.429  15.422  0.2156  0.0332  0.1779
52774W        W95790   7.074  29.107  14.685  0.1398 -0.2865  0.0035
52775W        W95791  19.264  34.519   7.321 -0.4515 -0.0199 -0.1190
52776W        W95792  14.833   0.851  17.770 -0.2149  0.1909  0.0623
52777W        W95793  21.937  30.998   5.984 -0.1928  0.0270  0.4178
52778W        W95794  10.951   3.371  26.721 -0.1319 -0.2506 -0.1665
52779W        W95795  32.598  32.903   3.910 -0.0668 -0.2135  0.0161
52780W        W95796   6.596   7.796   7.976  0.1995 -0.1563  0.0164
52781W        W95797   1.789  32.048   0.261 -0.2823 -0.2637 -0.3314
52782W        W95798   2.518  21.189  17.017  0.2503  0.1317  0.0583
52783W        W95799  11.253   5.409  18.161 -0.0854  0.3088  0.0492
52784W        W95800  30.859   1.944  27.722 -0.1187  0.0377  0.0605
52785W        W95801  13.631   0.901  28.344 -0.0930  0.2537  0.1317
52786W        W95802   0.903  11.476  28.828  0.2226 -0.0472 -0.2102
52787W        W95803   9.110  20.148  21.368  0.1050 -0.1320 -0.2817
52788W        W95804  22.850  32.177  17.499 -0.0452  0.0554  0.3099
52789W        W95805  11.397  25.960  19.600  0.1215  0.0643  0.4110
52790W        W95806  20.894  26.487   0.298  0.2094  0.0428 -0.2847
52791W        W95807   6.011   9.975   0.853 -0.4369 -0.1331 -0.0523
52792W        W95808  10.085  32.427  20.727  0.0580 -0.1172 -0.1394
52793W        W95809  25.224  32.629  23.253  0.0319 -0.4301  0.0176
52794W        W95810  22.887   9.875  19.308 -0.0734 -0.0894 -0.2280
52795W        W95811  22.445   9.962  19.032 -0.0011  0.0281 -0.0055
52796W        W95812  26.841   3.139  15.822  0.0635  0.0873 -0.1879
52797W        W95813  32.801   2.636  10.584  0.2984 -0.3435 -0.1796
52798W        W95814   9.249   0.656  26.647 -0.1198  0.0148 -0.0690
52799W        W95815   9.531   8.439  24.343 -0.0137  0.0296  0.0847
52800W        W95816   3.259  22.318  16.801  0.2542  0.1302 -0.3400
52801W        W95817  26.658  17.947  28.953 -0.0320 -0.4833  0.0823
52802W        W95818  21.493  11.994  13.629  0.2103  0.0733 -0.2379
52803W        W95819  10.974  10.034  21.550  0.0383 -0.1437 -0.0221
52804W        W95820   8.047  32.425  24.019 -0.1641  0.0154  0.3740
52805W        W95821  31.177  16.365   1.277  0.0794  0.1961  0.1052
52806W        W95822  12.253   3.990  22.204  0.1231 -0.0744  0.0647
52807W        W95823  25.695   7.414   9.469 -0.0563 -0.0221  0.2311
52808W        W95824  32.605  27.890  18.681  0.3749  0.1063  0.1470
52809W        W95825   0.260  20.700   6.302  0.3307  0.0310  0.1989
52810W        W95826  26.485   5.984   6.941 -0.0204 -0.1154 -0.2887
52811W        W95827  16.463   1.415   9.782  0.0764  0.1652  0.2082
52812W        W95828  15.673  26.081   0.428 -0.0634  0.0007  0.1257
52813W        W95829  15.955  33.784  20.434  0.0201  0.0047  0.0392
52814W        W95830   1.736  29.377   2.696  0.0329  0.0874 -0.1229
52815W        W95831  13.251   3.885  19.262  0.1586 -0.0428 -0.1848
52816W        W95832   8.753  32.867  20.917  0.0806  0.0140  0.0633
52817W        W95833   2.476  17.154  23.265  0.0607  0.3074 -0.1337
52818W        W95834  11.372  33.705   0.420  0.2248  0.2670  0.2171
52819W        W95835   9.484  26.533  25.863  0.0773  0.2253  0.1402
52820W        W95836  22.000  24.395  24.799  0.1454  0.0783 -0.3067
52821W        W95837  18.637  31.501  25.613  0.0861 -0.1174  0.2430
52822W        W95838  28.877   4.814  20.377 -0.3175  0.0480  0.0715
52823W        W95839  28.113  11.580  27.695 -0.0296 -0.2743  0.1693
52824W        W95840   0.292   1.656  26.550  0.1640 -0.1062 -0.0943
52825W        W95841   8.348  33.479   6.719 -0.0158  0.0084 -0.0380
52826W        W95842  21.650   8.391  18.728  0.3103  0.2401  0.0326
52827W        W95843  15.903  32.966  27.309 -0.1113  0.2089 -0.1063
52828W        W95844  14.846  24.682  21.773 -0.1300 -0.2131 -0.1945
52829W        W95845  21.774  19.993  24.465  0.0479 -0.1178 -0.1107
52830W        W95846  22.114  34.534  15.652  0.0463 -0.1648 -0.0696
52831W        W95847   7.511   2.982  19.148  0.0391  0.0929 -0.0176
52832W        W95848  22.526   0.503  23.026 -0.4634  0.1621 -0.3248
52833W        W95849  14.870  12.138  24.956 -0.1652  0.0695  0.1613
52834W        W95850  12.152  23.061  27.742  0.1214 -0.0390  0.0140
52835W        W95851   1.567   9.085  25.507 -0.1415  0.1374  0.2268
52836W        W95852  15.044   4.405   1.221  0.0300 -0.1024  0.0815
52837W        W95853  19.289   5.810  25.585 -0.5092 -0.0460  0.2516
52838W        W95854  15.758  28.472  26.636  0.3138  0.0515  0.0400
52839W        W95855  31.301  16.209  15.060 -0.1726  0.0157  0.2187
52840W        W95856  12.534   8.253   2.464 -0.3745  0.3519  0.1471
52841W        W95857   1.256  13.644  24.220  0.0963  0.1579  0.0370
52842W        W95858  30.074   6.748   1.917  0.0710 -0.0473  0.0918
52843W        W95859  11.337   0.998  16.388 -0.0840 -0.0585 -0.1963
52844W        W95860  10.295  10.330  24.882 -0.4124 -0.0163  0.2183
52845W        W95861   6.357  29.570  26.356 -0.2076 -0.0158  0.2128
52846W        W95862  33.520  23.819  26.893 -0.1384  0.1508  0.1494
52847W        W95863  21.308  32.603   2.993 -0.4030 -0.2122 -0.0152
52848W        W95864  11.316  26.831   5.684  0.0959  0.0631 -0.1372
52849W        W95865  14.515   6.966  16.011 -0.1958 -0.0441 -0.2663
52850W        W95866  17.090  11.994  16.107  0.1947  0.1493 -0.1523
52851W        W95867   2.678   4.067  26.615 -0.3080  0.1475  0.2293
52852W        W95868  32.422  24.203   1.208 -0.3675  0.0587 -0.0823
52853W        W95869  14.836   3.036  26.952 -0.0412  0.1402  0.0411
52854W        W95870  10.396   9.342   7.724 -0.3344 -0.1073  0.0795
52855W        W95871  22.574   7.532  23.045  0.0111 -0.1171 -0.2570
52856W        W95872  18.598  11.834   5.058  0.0188 -0.1416 -0.1213
52857W        W95873  10.921   6.608  18.389  0.1065 -0.1326  0.2685
52858W        W95874  28.910   3.088  24.941  0.2332  0.1252  0.1853
52859W        W95875   9.411   3.719  26.076 -0.0805 -0.1817  0.3281
52860W        W95876  10.085  16.004  27.338  0.3338 -0.1586  0.1025
52861W        W95877   8.192  21.262   4.076  0.1903 -0.0028 -0.1833
52862W        W95878  14.596  12.891  23.310 -0.4299 -0.2221 -0.1625
52863W        W95879  12.545   1.944  22.122 -0.0447  0.2055  0.0280
52864W        W95880   7.556  22.813  17.230  0.2235  0.2774  0.2968
52865W        W95881  26.568  16.962  14.943 -0.2495  0.1522 -0.2865
52866W        W95882   8.296  28.980   5.594 -0.1822 -0.0801  0.3239
52867W        W95883  11.794  18.303   3.499 -0.0897 -0.4089  0.1197
52868W        W95884   2.503  26.276  13.668  0.0307 -0.0257 -0.1031
52869W        W95885  27.494   5.131  21.374  0.0831  0.0035  0.2864
52870W        W95886  11.183   4.649   8.197  0.4238 -0.3035  0.2761
52871W        W95887  17.165   1.508  21.760 -0.1371  0.1230 -0.0210
52872W        W95888  10.797  27.058   1.196  0.2139 -0.2256 -0.1491
52873W        W95889  14.901  33.963  27.933  0.1700 -0.1448  0.1934
52874W        W95890  25.701  24.767  27.746  0.0497 -0.5284 -0.0856
52875W        W95891   5.813  30.715  24.649  0.0091 -0.1759  0.1089
52876W        W95892  10.201  18.790  22.673  0.1880  0.2827 -0.1193
52877W        W95893  11.083  29.673  14.951 -0.2110  0.1096  0.0194
52878W        W95894   2.691   9.714  24.405 -0.0907  0.3139 -0.1599
52879W        W95895  26.184  23.706   0.795 -0.2356 -0.2986 -0.2407
52880W        W95896   3.509  27.658  23.029 -0.5509  0.1758  0.0346
52881W        W95897   8.409   4.247  18.210  0.1762  0.0582 -0.0572
52882W        W95898   1.779  12.735  16.664 -0.1920 -0.2112  0.0276
52883W        W95899   6.382  29.679  15.796  0.1923 -0.2267  0.0809
52884W        W95900  10.109  14.024   1.320 -0.0239  0.0585  0.0689
52885W        W95901  23.436  27.988   3.294 -0.1797  0.3347  0.0034
52886W        W95902   9.300  17.689  17.403  0.2613 -0.1687  0.0736
52887W        W95903   4.289  22.025  20.180  0.2446  0.1471 -0.0304
52888W        W95904  26.244  32.967   3.467 -0.1140 -0.0191  0.4023
52889W        W95905  17.770  11.509   5.715  0.1856 -0.1372  0.0223
52890W        W95906  27.980  10.580  22.334 -0.3300 -0.2225  0.2976
52891W        W95907  10.388   8.649  15.823 -0.0556  0.1683  0.1532
52892W        W95908   0.899   6.265   6.986  0.0652 -0.3321 -0.0594
52893W        W95909  14.388  29.815  26.456 -0.1462  0.2044 -0.0854
52894W        W95910  15.205   6.984  24.552  0.2508  0.0196 -0.1381
52895W        W95911  25.188  13.789  25.227 -0.1197 -0.2411  0.0432
52896W        W95912  13.999  25.658   8.459 -0.1247 -0.2266  0.1208
52897W        W95913  33.619  23.320   9.625 -0.2341 -0.0976  0.2042
52898W        W95914  26.930  26.177   8.410  0.1663  0.4712  0.1077
52899W        W95915   3.186  27.801   8.760 -0.2295 -0.0139  0.5518
52900W        W95916  13.204   8.453   5.685 -0.1058 -0.1592 -0.1875
52901W        W95917  22.381   1.217   1.351  0.0793 -0.1642  0.0315
52902W        W95918  17.284  28.298   3.311  0.2833 -0.0840 -0.1677
52903W        W95919  20.593   6.400  15.066  0.1334 -0.0853  0.3315
52904W        W95920  33.521  34.767   9.710 -0.0633  0.1031 -0.0968
52905W        W95921  14.630  30.974   6.719 -0.2313 -0.0633  0.2150
52906W        W95922   2.603  29.085  25.701  0.1387 -0.0187 -0.1286
52907W        W95923   8.260  30.377  16.823  0.1571 -0.0035 -0.2604
52908W        W95924  12.697  21.406  27.452 -0.2125 -0.0218 -0.0882
52909W        W95925  16.012  19.739   6.423  0.2063 -0.0543 -0.0782
52910W        W95926  12.446   9.708  22.917  0.2869 -0.1210 -0.0885
52911W        W95927  22.082  26.621   9.787 -0.2886  0.3961  0.2327
52912W        W95928  11.208  11.398  26.746 -0.1867  0.0904 -0.0274
52913W        W95929  17.721   3.378  24.173  0.0959 -0.1710  0.0908
52914W        W95930   1.298   8.381  26.687  0.1316  0.0906  0.1063
52915W        W95931  18.548   2.664  20.094 -0.1154  0.2229 -0.2725
52916W        W95932   7.665  34.696   5.388  0.0399  0.0293  0.2883
52917W        W95933  30.246  32.167   1.041  0.0535  0.0078  0.0773
52918W        W95934   7.909  27.706   3.950 -0.1522  0.3513  0.2400
52919W        W95935   3.008  34.346  16.415  0.0401  0.1057  0.2450
52920W        W95936   3.849   7.135  26.743  0.0972 -0.1139  0.2253
52921W        W95937  27.436  33.650  28.284 -0.0267 -0.2410  0.0592
52922W        W95938   0.165  27.538  19.698  0.0852 -0.0979  0.2336
52923W        W95939  11.983  28.484  25.034  0.2872 -0.1500 -0.0226
52924W        W95940  19.330  23.237  23.505  0.3043  0.2034  0.2216
52925W        W95941   7.882   8.869  16.068  0.0339 -0.0482 -0.1975
52926W        W95942  12.003  31.074   4.774  0.0211  0.2455 -0.1457
52927W        W95943  30.795  11.246   0.685  0.2481 -0.1467 -0.4229
52928W        W95944  16.828   1.318   7.529 -0.1471  0.1434 -0.1134
52929W        W95945  20.786  30.423   9.783  0.1710 -0.2627  0.0060
52930W        W95946  23.733  16.618  17.161 -0.3030  0.1813 -0.3656
52931W        W95947  12.495  32.054  22.148 -0.2434 -0.3257 -0.0613
52932W        W95948  23.385  33.739  16.248 -0.1695 -0.3837  0.3185
52933W        W95949   9.753  26.256  24.274 -0.0190  0.3231  0.2754
52934W        W95950  20.155  30.018  22.316  0.1393  0.1659  0.3363
52935W        W95951  14.960  25.294  26.987 -0.1155 -0.3150 -0.0698
52936W        W95952   8.439  33.576  25.519 -0.0526 -0.3271 -0.3552
52937W        W95953   8.521   2.439  19.068 -0.1456  0.3129  0.4609
52938W        W95954   7.326  34.582   7.326 -0.0629 -0.0949  0.1874
52939W        W95955  34.651   5.454  19.831  0.3115  0.0996  0.0889
52940W        W95956  15.300  12.997  21.669  0.5710 -0.1807  0.1741
52941W        W95957  10.144  12.842   8.491 -0.2781 -0.2154  0.5627
52942W        W95958  28.336  21.651   5.410  0.2012 -0.0179  0.2753
52943W        W95959  12.257  31.953   7.544  0.2015 -0.0099 -0.0473
52944W        W95960  14.836   6.394  21.682  0.3914  0.1887  0.4881
52945W        W95961  28.740  14.633  18.754  0.0661  0.1910 -0.2899
52946W        W95962  21.895   6.398   4.123 -0.2618 -0.0304  0.0291
52947W        W95963  30.785  32.645  28.777  0.1982 -0.4816  0.1818
52948W        W95964  30.843  30.276   1.090 -0.1401 -0.1009  0.0715
52949W        W95965  11.524   3.365  16.245  0.0974  0.0684  0.2012
52950W        W95966  23.675   1.723  27.933  0.2184  0.1868 -0.0757
52951W        W95967   7.812  14.010   0.186  0.0421 -0.0206  0.4157
52952W        W95968  12.271   0.295  16.822 -0.3644 -0.0357 -0.0820
52953W        W95969  21.932  18.478  28.976 -0.0425  0.0812 -0.1553
52954W        W95970  10.394   4.276   0.421 -0.1034 -0.1753  0.0163
52955W        W95971   2.834  34.219  18.462  0.3444  0.2961  0.2405
52956W        W95972  10.099   4.314  14.357 -0.0364  0.1776 -0.0432
52957W        W95973  22.563   4.944   1.794  0.0754  0.2742  0.2027
52958W        W95974  12.010   7.019  22.603  0.3463  0.0737 -0.3143
52959W        W95975   4.398   0.263  24.884 -0.0920  0.1273 -0.2187
52960W        W95976  28.219  16.383   5.604 -0.2989 -0.1351 -0.2057
52961W        W95977  15.727  25.119  14.071  0.1035 -0.2481  0.0679
52962W        W95978  22.900   4.858  23.106  0.3583 -0.0647  0.1132
52963W        W95979   3.418  11.941  18.167  0.1592  0.2708  0.3018
52964W        W95980  30.177  19.802  15.666  0.0941  0.0592 -0.0001
52965W        W95981  14.273  10.306   0.933  0.1279 -0.0296  0.1165
52966W        W95982  16.250   5.135  27.778  0.1834 -0.0546  0.1683
52967W        W95983  11.219  30.417   8.572  0.2424  0.0664  0.0169
52968W        W95984  16.336  25.396  26.995 -0.2180  0.1021  0.1175
52969W        W95985  23.129   4.299  28.969  0.1243  0.0110 -0.4048
52970W        W95986  10.289   7.694   1.152 -0.2090 -0.0799 -0.1822
52971W        W95987   3.649  31.413  20.362  0.0191  0.1640 -0.2548
52972W        W95988   0.140  32.198   3.660 -0.0120 -0.0466  0.0946
52973W        W95989  29.452  24.231   0.232  0.1290 -0.3995  0.0949
52974W        W95990  11.721  28.665  26.879  0.1382  0.0180  0.2086
52975W        W95991   6.195  26.846  27.276 -0.2781 -0.2581 -0.0896
52976W        W95992  34.379   5.764  22.845 -0.0145 -0.1075  0.0933
52977W        W95993  10.771   0.322  26.923 -0.1071 -0.0354 -0.0960
52978W        W95994  11.752  34.329  17.471 -0.1919  0.2393  0.0989
52979W        W95995   8.038  12.813   9.746  0.0757  0.1927 -0.0048
52980W        W95996  12.505  33.850  18.584  0.0162 -0.1990  0.0127
52981W        W95997  16.808   6.514  27.986 -0.0143  0.1090 -0.1465
52982W        W95998   4.474  14.971  21.922  0.0189 -0.1484  0.0752
52983W        W95999   3.435   3.048  10.470  0.0412 -0.0914 -0.1532
52984W        W96000   7.735  19.881  22.247 -0.0197  0.0657 -0.0486
52985W        W96001   4.857   5.259  19.923 -0.0782 -0.1532 -0.2395
52986W        W96002  19.337  21.146  23.955  0.0461  0.0858  0.2109
52987W        W96003  34.313  16.688  28.849 -0.2553  0.0484  0.0946
52988W        W96004   1.252  25.894   1.562  0.1418  0.0134  0.1782
52989W        W96005   7.042  19.815   3.365 -0.1180 -0.2856  0.0630
52990W        W96006   4.422   0.281  27.307  0.1756 -0.1488 -0.1169
52991W        W96007  11.503   7.997  25.341  0.0722  0.2110 -0.0691
52992W        W96008  34.568  27.978   9.345  0.0787 -0.2944  0.1949
52993W        W96009   8.591   5.339  28.576 -0.2055  0.2799  0.1254
52994W        W96010  10.453   1.100  14.928 -0.2003 -0.3651 -0.1365
52995W        W96011  12.085  30.041  23.847  0.0614 -0.0760 -0.1935
52996W        W96012  28.713  24.965  27.850  0.2074  0.2697  0.0991
52997W        W96013   1.342   6.360  14.669  0.1209  0.2551 -0.1252
52998W        W96014   8.082  13.352  26.259 -0.1359  0.4991 -0.1025
52999W        W96015  13.804   0.392  19.619 -0.1406  0.0401  0.2446
53000W        W96016  29.017   3.583  22.050 -0.0772 -0.0340 -0.3689
53001W        W96017   9.920   2.242  24.668  0.0796 -0.0498 -0.0099
53002W        W96018   9.365   6.514  21.925  0.2494  0.2298 -0.2668
53003W        W96019  19.536   5.700  18.749 -0.1185  0.2649 -0.1622
53004W        W96020   6.579  31.291  18.082 -0.1403 -0.0675 -0.3784
53005W        W96021  25.244  27.705  16.595 -0.2314 -0.0256  0.0160
53006W        W96022  15.784   1.735   7.357  0.1674 -0.3251  0.0098
53007W        W96023   2.745   4.118  16.861 -0.1475 -0.1532  0.1696
53008W        W96024  13.754  10.438  23.974 -0.4330  0.0127 -0.0023
53009W        W96025  13.621  33.569  28.082 -0.1476 -0.0253 -0.1164
53010W        W96026   4.784   4.103  25.957 -0.0716  0.0184  0.0204
53011W        W96027  18.771  28.197   2.011 -0.2722 -0.1129  0.2260
53012W        W96028   5.127   5.537   8.407 -0.2961  0.1313  0.0267
53013W        W96029  32.508   6.237  19.955  0.4201  0.0134  0.1844
53014W        W96030  12.286  15.261  18.989  0.1406 -0.0875  0.0876
53015W        W96031  13.193   3.182  16.530  0.2355 -0.0249 -0.2184
53016W        W96032  28.843  12.974  20.488 -0.1022 -0.3191 -0.1843
53017W        W96033   8.074  34.023   5.103  0.1050  0.0746  0.0632
53018W        W96034  22.818  27.480  16.320 -0.3187 -0.0439 -0.0304
53019W        W96035  17.882  19.068  20.651 -0.2196  0.1771  0.0824
53020W        W96036  19.639   5.208   9.876 -0.1543 -0.2781 -0.0915
53021W        W96037  32.272  28.112   0.312 -0.2911  0.2806  0.1387
53022W        W96038  15.433   0.453   0.155  0.1001 -0.1530  0.1069
53023W        W96039  19.303  33.860  25.120  0.0176 -0.0527  0.0408
53024W        W96040  24.665  22.776  27.774  0.2152 -0.3014 -0.0763
53025W        W96041  23.059  24.763  19.019  0.1018 -0.0553 -0.1074
53026W        W96042  19.412  15.603   8.162 -0.3064  0.0278 -0.0215
53027W        W96043   5.745  28.599  20.817  0.2714 -0.2832 -0.0316
53028W        W96044  16.355   3.980   2.716  0.0633  0.0136 -0.0285
53029W        W96045  34.329  21.460  20.548 -0.1963  0.0270 -0.3683
53030W        W96046   7.481  13.041  20.264  0.0549 -0.0346  0.3072
53031W        W96047  12.584  26.365   4.017  0.0111 -0.1565  0.0638
53032W        W96048   4.056   1.928   3.793  0.2127 -0.0785 -0.1609
53033W        W96049  15.292   4.331  25.165 -0.0062  0.1129  0.2823
53034W        W96050  14.939  31.793  25.493 -0.0847  0.5423  0.0098
53035W        W96051  21.522  23.860  16.530 -0.1261 -0.0714 -0.0219
53036W        W96052  11.032  30.562  19.990  0.0539 -0.0647 -0.2045
53037W        W96053  32.310  22.445  10.468  0.0386 -0.0156  0.3550
53038W        W96054  17.712   8.804  27.139 -0.1537  0.0617  0.1294
53039W        W96055   7.146  28.284   7.780 -0.1892 -0.2363  0.0831
53040W        W96056  18.451   1.984  26.120  0.0958 -0.1288 -0.0269
53041W        W96057  33.810   9.527  20.095 -0.2123  0.1967  0.0083
53042W        W96058   1.855  26.949  28.704  0.2697  0.1838  0.0625
53043W        W96059  13.758  12.262  18.012 -0.0071 -0.1677  0.0265
53044W        W96060  17.132   5.400   0.480  0.1274 -0.1679  0.1034
53045W        W96061   2.404  12.469   8.222 -0.3275  0.1849 -0.1809
53046W        W96062  23.910   7.459   2.051 -0.0421 -0.3860 -0.2145
53047W        W96063  28.434   2.887   3.375  0.5008  0.2279  0.0695
53048W        W96064  12.625   0.046   7.109  0.3099 -0.0453  0.0014
53049W        W96065  11.090  28.920  14.353 -0.2381 -0.0835  0.0469
53050W        W96066   8.284  14.226  22.875  0.2933  0.0101  0.1277
53051W        W96067   6.214   9.858  28.142  0.4645  0.1311 -0.1994
53052W        W96068  28.722  34.485  23.188  0.0048 -0.1609  0.2721
53053W        W96069  16.638   0.377  20.599  0.0275  0.0366 -0.4204
53054W        W96070  21.567  23.602  27.265  0.0377 -0.1059  0.0489
53055W        W96071   1.905   1.101  28.415 -0.1506 -0.0108  0.0927
53056W        W96072  11.758   8.324  23.297  0.1003 -0.0443  0.2430
53057W        W96073   8.108  34.294   1.132  0.2720 -0.4746 -0.0058
53058W        W96074  25.358  33.804  25.383 -0.1262  0.0878 -0.1382
53059W        W96075  11.126   1.822   0.598 -0.1890  0.0090  0.1986
53060W        W96076  30.872  12.060  22.680  0.1757 -0.3568  0.1824
53061W        W96077  15.473  31.452   7.698  0.1242 -0.1640  0.1343
53062W        W96078   0.667  12.167  27.690 -0.1544 -0.1558  0.3512
53063W        W96079  14.841   2.680   5.556 -0.2353 -0.2249  0.0258
53064W        W96080  24.126  31.630   4.453 -0.3479  0.0043  0.0898
53065W        W96081   7.568   8.464  22.048  0.1081 -0.0397  0.1493
53066W        W96082  18.643  22.859  13.484 -0.1351  0.0122  0.3185
53067W        W96083   9.421   1.770  28.473 -0.0415  0.0242 -0.1490
53068W        W96084  10.938  16.347  19.001  0.1442  0.0322 -0.1500
53069W        W96085   9.990  25.433  13.468  0.2396 -0.2264 -0.1463
53070W        W96086  13.311  34.706  22.916  0.0261 -0.1133  0.1464
53071W        W96087   9.949  24.104  24.308  0.2011 -0.3155 -0.1220
53072W        W96088  18.093  25.173  25.183  0.3726 -0.1343 -0.3022
53073W        W96089  10.463  26.686   7.060  0.2983  0.1976  0.0449
53074W        W96090  20.858  27.625  25.201  0.0263  0.1976 -0.0283
53075W        W96091   0.140   0.068  29.247 -0.3580  0.2154  0.1188
53076W        W96092  17.651  12.991  20.290  0.0599  0.2048 -0.0808
53077W        W96093  10.071  29.225  23.420 -0.2854 -0.0398  0.0946
53078W        W96094   9.540   2.272  17.551 -0.2075 -0.1205 -0.0098
53079W        W96095  31.230  33.433   2.971  0.0738  0.2697 -0.1549
53080W        W96096  32.383  13.143  26.988 -0.1839  0.1076  0.1070
53081W        W96097  25.935  28.827  20.426 -0.2915 -0.1816 -0.0483
53082W        W96098  27.399   4.410  27.726  0.1602  0.0109  0.2670
53083W        W96099   6.652  15.555   6.974  0.1182 -0.0538 -0.1051
53084W        W96100  22.139   5.899   7.204 -0.2024  0.1885 -0.0992
53085W        W96101   7.061  10.488  27.004  0.1428  0.1771 -0.2653
53086W        W96102   7.407  33.123   3.408 -0.1682  0.1116 -0.1173
53087W        W96103  17.264  20.527   5.244 -0.1408 -0.5639 -0.1660
53088W        W96104  10.619  17.216  18.991  0.1340 -0.0634 -0.0272
53089W        W96105   6.258  21.933  20.096  0.0506 -0.0758 -0.0535
53090W        W96106   8.630  22.168   8.103 -0.1297  0.0412  0.0069
53091W        W96107  11.635  18.067  15.988 -0.0877  0.0939 -0.1921
53092W        W96108  28.622  23.171   2.074  0.1374  0.1560  0.0228
53093W        W96109  27.812   0.904  20.054  0.2662 -0.2415 -0.2087
53094W        W96110  12.319   2.556   4.480 -0.2245  0.1320 -0.2757
53095W        W96111  21.270  32.175  20.554  0.0381  0.2681 -0.1309
53096W        W96112  31.863   1.177   5.596 -0.1041  0.0136 -0.2199
53097W        W96113  31.408  11.235  24.218  0.0151 -0.0930  0.1216
53098W        W96114   5.441  26.188  28.921  0.3216 -0.1687  0.0911
53099W        W96115   3.984   3.153  24.821  0.1237 -0.1378  0.1140
53100W        W96116   6.288  14.154  14.775  0.2587 -0.3206  0.0110
53101W        W96117  16.399  25.590  23.445  0.2014 -0.0919  0.3956
53102W        W96118   6.346   7.391  23.069 -0.1277 -0.0644 -0.2939
53103W        W96119  20.040  33.620  25.052  0.2287  0.0851 -0.4491
53104W        W96120  15.223   3.286  20.044 -0.3044  0.1126  0.0222
53105W        W96121  13.195   0.515  22.755 -0.1670 -0.2432  0.0932
53106W        W96122   7.005  32.533   4.892  0.0979  0.2157  0.1285
53107W        W96123  26.985  29.924   6.228 -0.1827  0.1043 -0.1660
53108W        W96124  11.254   9.892  15.228 -0.0419  0.1189 -0.0029
53109W        W96125  24.462   4.927  24.538  0.0413 -0.5330 -0.2536
53110W        W96126  19.807  10.417  28.090  0.0859 -0.1726 -0.2877
53111W        W96127   9.882  30.266  20.211  0.1271  0.0976 -0.0682
53112W        W96128  13.217  30.837  24.860  0.0748 -0.1098  0.0204
53113W        W96129   5.827  13.424  21.007 -0.4421  0.2640 -0.2784
53114W        W96130  13.486  22.364   2.161 -0.3007  0.3282 -0.1831
53115W        W96131   3.868   9.794   3.827 -0.0079 -0.0963 -0.2631
53116W        W96132   1.487  33.438  22.731  0.0815  0.0310 -0.1615
53117W        W96133  13.353   3.208  18.072 -0.2514  0.1069  0.0671
53118W        W96134  15.060  27.274  21.657 -0.0587  0.0308 -0.0271
53119W        W96135  13.439  33.241  27.131 -0.1533  0.0434  0.1664
53120W        W96136  17.512  29.550  19.050  0.0760 -0.0920 -0.1322
53121W        W96137   7.874   0.711   9.146  0.0720  0.1293  0.1223
53122W        W96138   2.632  27.310  23.982  0.0125  0.3186 -0.1388
53123W        W96139   8.581   2.402  27.092 -0.0117 -0.0181 -0.4656
53124W        W96140  22.655  30.387   3.404 -0.0320  0.0413 -0.3781
53125W        W96141   5.039   0.850  25.487 -0.0972  0.1974 -0.0391
53126W        W96142  17.481  29.704   9.398  0.2000 -0.1590 -0.1704
53127W        W96143  16.219  27.946  15.723  0.1190 -0.0929 -0.1058
53128W        W96144   2.082  33.585  28.446  0.1322 -0.1155  0.2061
53129W        W96145  14.756   7.486  14.602 -0.0449  0.4529  0.5573
53130W        W96146  26.224   9.336  22.589 -0.1566  0.1309  0.1977
53131W        W96147  26.312  10.633  26.785 -0.3693  0.4296  0.1694
53132W        W96148  11.830  30.554  17.672  0.3448 -0.1308 -0.1908
53133W        W96149  21.707  32.873   1.484  0.0769 -0.0876 -0.1770
53134W        W96150  11.142  21.839   0.939 -0.2024 -0.2228 -0.1722
53135W        W96151   5.522  28.317  27.674  0.2416 -0.0422 -0.1071
53136W        W96152  15.003  33.905   7.521  0.1327 -0.0977  0.3488
53137W        W96153  34.772  16.365  20.364 -0.2539  0.3234 -0.2807
53138W        W96154  31.504  34.154  10.223  0.0865 -0.0056  0.1451
53139W        W96155  33.533   1.691  26.569  0.1081  0.2099 -0.0235
53140W        W96156   9.258  33.787  26.181 -0.5953 -0.2503  0.0076
53141W        W96157  34.580  30.405  23.294  0.2749  0.3137 -0.0823
53142W        W96158  11.922  27.491   7.275  0.0961  0.1776 -0.0300
53143W        W96159  12.343   1.741   9.202 -0.0565  0.3217  0.0185
53144W        W96160  21.289   3.195   4.130  0.0527  0.1286  0.3193
53145W        W96161   6.293  11.710  21.446  0.0251 -0.3978 -0.1972
53146W        W96162  18.703  22.881  27.242 -0.2232  0.0492  0.4215
53147W        W96163  11.027   5.642  19.757  0.0261 -0.0600  0.3805
53148W        W96164  27.528  31.323  28.015 -0.1396 -0.1743  0.3305
53149W        W96165  19.048  11.083   2.600  0.0811  0.3082 -0.3091
53150W        W96166   2.691  31.384  26.471 -0.2817  0.1316  0.1376
53151W        W96167   8.598  24.228   2.426 -0.2938 -0.4489 -0.3046
53152W        W96168  10.951  32.655   6.373 -0.1062  0.4498 -0.0094
53153W        W96169   2.196   5.416  19.163  0.0007  0.0504  0.0393
53154W        W96170  15.734  21.190  25.932 -0.2395  0.0007 -0.1552
53155W        W96171  12.584  31.548  24.257  0.1032  0.2558 -0.0130
53156W        W96172   6.027  28.471  27.722  0.0623 -0.0446 -0.1541
53157W        W96173   1.330   0.396  15.493 -0.2391  0.1871  0.0046
53158W        W96174  21.804  30.831   8.316 -0.0692 -0.2199 -0.0191
53159W        W96175   0.190   2.566  19.492  0.0020  0.2127  0.1614
53160W        W96176  14.876  14.759  25.361  0.1901  0.0421  0.0803
53161W        W96177  23.551  12.974  20.974  0.3508  0.5033  0.0290
53162W        W96178  14.778  13.378  16.154  0.4135 -0.2386 -0.1881
53163W        W96179   4.273   8.006  14.303  0.0618 -0.1471 -0.0343
53164W        W96180  13.331   8.077   8.749 -0.1593 -0.0969  0.0728
53165W        W96181  17.840  30.043   9.197  0.1489  0.1326  0.2887
53166W        W96182  12.268   5.519  24.418  0.1287 -0.1348 -0.1997
53167W        W96183  30.509   5.780   9.267 -0.3454 -0.0442  0.0131
53168W        W96184  12.011  22.056  20.979 -0.0861  0.0210 -0.1982
53169W        W96185  11.819   6.702  19.607  0.0598  0.0046  0.0488
53170W        W96186  15.410  31.387  21.289  0.1349  0.2137  0.0552
53171W        W96187   2.058  17.889  25.248 -0.3091 -0.0551  0.1838
53172W        W96188  23.008   4.542  10.118  0.0707  0.0849  0.1582
53173W        W96189  21.371  28.131  14.791 -0.1885  0.2367 -0.1171
53174W        W96190  11.359  17.316  13.818 -0.0304  0.1630 -0.0863
53175W        W96191   1.310   5.483   7.018 -0.0001  0.0718  0.0141
53176W        W96192   6.735  13.769   9.170 -0.0270  0.0615  0.0136
53177W        W96193  24.361   1.754  21.012  0.0857 -0.3334 -0.2195
53178W        W96194   7.085   3.345  24.005 -0.0529  0.0588  0.1023
53179W        W96195  15.678  33.668  23.924  0.2424  0.1722  0.2255
53180W        W96196   1.166  28.533  15.024 -0.0854  0.1624 -0.0113
53181W        W96197   3.941   4.333  20.178  0.1949 -0.0212 -0.2509
53182W        W96198  28.820  25.513  16.886  0.1261  0.1529  0.1479
53183W        W96199  25.842  15.425  16.554 -0.2517 -0.1973  0.1338
53184W        W96200   2.869  34.436  27.519 -0.0935  0.0979 -0.3341
53185W        W96201  23.850  30.303  29.297 -0.4509 -0.0086 -0.1022
53186W        W96202   5.685  23.866  18.119 -0.0014  0.0182  0.0293
53187W        W96203   6.277   3.132   4.371  0.1896 -0.0044 -0.0843
53188W        W96204  16.324  32.256  20.266 -0.3972  0.2332  0.1993
53189W        W96205  14.771   6.299   8.281 -0.1117  0.2264 -0.1689
53190W        W96206   4.014  22.418  13.154  0.2750 -0.0941 -0.2667
53191W        W96207  23.101  15.054  14.704 -0.1344  0.0724  0.2734
53192W        W96208  19.193   6.161  15.571 -0.0395  0.1886 -0.1936
53193W        W96209  31.036   0.956  22.522  0.1063 -0.1211 -0.3136
53194W        W96210  17.467  13.754  23.290 -0.5530 -0.0059  0.0640
53195W        W96211   4.190  28.654   3.922  0.0284 -0.1823  0.2708
53196W        W96212   8.061  34.462  21.004 -0.0261  0.2357  0.2603
53197W        W96213   3.189   5.195  15.362  0.3124  0.0162  0.0032
53198W        W96214  14.887  20.138   0.614  0.2172  0.3159 -0.1875
53199W        W96215  34.566  17.237  25.831  0.1403  0.0772  0.4271
53200W        W96216   2.197  30.715  17.424 -0.1616 -0.3410  0.0319
53201W        W96217  13.633  33.351   0.339  0.0350  0.0893  0.0048
53202W        W96218  31.896   9.998  27.679  0.0400 -0.0928  0.0463
53203W        W96219   3.778   5.336  19.875 -0.1255  0.0240 -0.1836
53204W        W96220  19.307   1.905  23.078 -0.1914 -0.0189 -0.1243
53205W        W96221  17.169  10.256  27.180 -0.1871 -0.0008 -0.0254
53206W        W96222   4.390  33.374  16.281  0.2681 -0.1326  0.0883
53207W        W96223  22.385  33.366  26.725  0.0817 -0.2637  0.0201
53208W        W96224   9.922  34.147   6.363  0.5107  0.1228  0.2467
53209W        W96225  21.948  14.132  23.842 -0.1496 -0.3081  0.0546
53210W        W96226  19.633  14.121   4.904  0.1668  0.1273  0.2267
53211W        W96227  34.027  30.891   8.714 -0.2219 -0.3133 -0.4985
53212W        W96228   3.514  16.474  18.682  0.2147 -0.2681 -0.3244
53213W        W96229  16.206  10.381  14.645  0.0818  0.0163 -0.2139
53214W        W96230  10.003   8.557   9.877 -0.0282 -0.0926  0.2529
53215W        W96231   5.671   3.138  15.102  0.2881 -0.0493 -0.2155
53216W        W96232   2.623  29.512  25.450  0.0582 -0.0185  0.1062
53217W        W96233  15.047  22.716  20.073 -0.2350  0.1499  0.1266
53218W        W96234   3.037  33.944   2.469  0.0549 -0.2220 -0.0396
53219W        W96235  15.464   4.272  25.657  0.3352  0.0697 -0.0073
53220W        W96236  12.510   9.919  17.435  0.0267 -0.0940  0.1337
53221W        W96237  13.712  13.269  14.040 -0.1580  0.0739 -0.0304
53222W        W96238  19.682  14.653   8.809  0.0301 -0.1741  0.1135
53223W        W96239   8.744   8.459   6.256  0.2166 -0.0616 -0.0723
53224W        W96240   6.351   3.753   1.386  0.0590 -0.2106  0.0902
53225W        W96241  23.672   1.675  15.147  0.1012 -0.0156 -0.1071
53226W        W96242   9.151  22.632   3.017 -0.1464  0.2561 -0.3110
53227W        W96243  34.281   4.167   0.548  0.2787  0.0298 -0.1217
53228W        W96244  17.160  11.035  16.564  0.1409 -0.0314  0.4277
53229W        W96245  19.753   0.764  21.501  0.1654 -0.0398 -0.0217
53230W        W96246  32.616  25.605  25.875  0.1348 -0.0350 -0.0599
53231W        W96247   3.209   5.332  23.461 -0.1318 -0.0954 -0.1124
53232W        W96248  19.432   0.655  14.611  0.1205  0.2421 -0.0008
53233W        W96249   6.472  15.948  21.387  0.1304  0.1075  0.0507
53234W        W96250  23.897  25.204   2.884 -0.1381  0.2362  0.1331
53235W        W96251   6.988  31.026   7.528  0.1165  0.2661 -0.5702
53236W        W96252  31.956   5.683  28.577  0.0285 -0.0681 -0.1647
53237W        W96253  15.245  33.861   9.022  0.0846  0.1358  0.1459
53238W        W96254   6.954   3.266  26.577  0.0287 -0.0032  0.0944
53239W        W96255  15.767  10.214   6.626  0.3833  0.0373 -0.0589
53240W        W96256  13.606   4.347  15.862 -0.1687  0.3533 -0.1012
53241W        W96257  19.760  11.679   4.593 -0.0239 -0.1456  0.1968
53242W        W96258  23.180  11.669  15.227  0.0840 -0.0247  0.0257
53243W        W96259   0.785   3.552   3.094 -0.0075  0.1442 -0.1188
53244W        W96260   2.128   2.353  26.066 -0.3561  0.2905  0.1790
53245W        W96261  14.427   2.338  28.639 -0.0959  0.0706 -0.0719
53246W        W96262   9.277  10.041  19.818 -0.0032  0.0821 -0.0307
53247W        W96263  32.940  15.646   2.884 -0.2075 -0.1487 -0.2264
53248W        W96264  33.869   8.354  18.434  0.0204 -0.3311  0.0518
53249W        W96265   6.596  34.243  27.937 -0.0594 -0.0972 -0.1387
53250W        W96266   5.422  14.311  17.488  0.1918 -0.1941 -0.4569
53251W        W96267  16.575  30.907   1.959  0.1162  0.2826  0.2297
53252W        W96268   5.602  30.838  26.579 -0.0457  0.2114 -0.2825
53253W        W96269  16.338  30.787  24.570  0.0333 -0.0197 -0.2765
53254W        W96270   5.228  34.757   8.778 -0.1445 -0.2708 -0.1080
53255W        W96271  18.615  34.100  18.835  0.3399  0.2185  0.2178
53256W        W96272  18.598   6.039   1.189  0.0063  0.0237 -0.2529
53257W        W96273   5.914  32.429   8.753  0.0754  0.1485 -0.0941
53258W        W96274  34.160   1.807  24.037 -0.1042 -0.3584  0.2973
53259W        W96275   6.300  10.313   4.381  0.2503  0.2270 -0.1182
53260W        W96276   6.979  21.949  20.256 -0.0800  0.0031 -0.2186
53261W        W96277  34.476   8.862  14.600  0.6070 -0.0995 -0.2347
53262W        W96278  10.799  10.702  15.335 -0.0866 -0.2800  0.1044
53263W        W96279  14.456   6.474  13.459 -0.2725 -0.1577  0.0531
53264W        W96280   6.147  31.485  26.471  0.1534  0.0440 -0.0692
53265W        W96281  19.060   3.792   5.807 -0.2096 -0.2716 -0.1603
53266W        W96282  31.737  24.447   9.854  0.1829  0.0634 -0.0592
53267W        W96283   5.379   0.845  28.165 -0.1030  0.1639 -0.0672
53268W        W96284   1.946  10.513  28.014 -0.1416  0.1093  0.1428
53269W        W96285  30.345   7.029  24.213  0.1660  0.0208  0.1672
53270W        W96286   8.647  16.515  24.617 -0.2676 -0.0560  0.0470
53271W        W96287  16.243  25.437   1.946 -0.0547 -0.3189  0.0215
53272W        W96288  18.809   2.067  18.711 -0.1346  0.0537  0.0370
53273W        W96289  12.936  34.396   7.233 -0.1235  0.1167  0.3986
53274W        W96290  24.382  25.418   6.683 -0.1274  0.1705 -0.1580
53275W        W96291  14.884  26.583  21.039  0.0492 -0.4115 -0.1331
53276W        W96292  15.531  13.676  25.994  0.1176  0.1565 -0.2994
53277W        W96293  16.944   5.374   8.391  0.2782  0.0625 -0.1961
53278W        W96294   1.350   0.178   4.803  0.2175  0.2009 -0.3585
53279W        W96295  13.135  18.863  24.597  0.0467 -0.0634 -0.1445
53280W        W96296  32.833  32.002   7.508 -0.1074  0.1648 -0.0813
53281W        W96297  27.813   1.584   5.776 -0.1148 -0.0523  0.1829
53282W        W96298  11.534  11.847  14.318 -0.0564 -0.3501 -0.1530
53283W        W96299  16.223  16.878  16.167  0.0510 -0.0470  0.0200
53284W        W96300  14.406  30.932  27.525  0.1584 -0.0995  0.1674
53285W        W96301  17.934  31.170   4.678 -0.0453 -0.0918 -0.1616
53286W        W96302  21.324  14.882  14.369 -0.2608  0.0450 -0.2866
53287W        W96303   9.866   6.097   4.751 -0.1039 -0.1709 -0.2479
53288W        W96304  14.520   9.771  24.883  0.0274 -0.0731  0.2502
53289W        W96305  12.697   0.111  23.026 -0.3020 -0.0760 -0.2254
53290W        W96306  18.745  34.158   0.918 -0.0065  0.0643  0.1459
53291W        W96307  11.335   2.174  28.358 -0.1678 -0.0761  0.0021
53292W        W96308  13.352   1.294   0.276  0.3298 -0.0565  0.4408
53293W        W96309  22.138  13.965  18.125 -0.0393 -0.3069 -0.3491
53294W        W96310  21.147  14.294  25.226  0.2306  0.1785  0.4274
53295W        W96311  23.328  32.476  27.497  0.3301 -0.3518 -0.0479
53296W        W96312  21.066  27.601  21.196 -0.1114  0.3652 -0.1653
53297W        W96313  12.619  27.515  18.101 -0.1670  0.3066  0.0686
53298W        W96314  30.670   0.997  18.302 -0.1391  0.0629 -0.1390
53299W        W96315  34.702  31.884   7.603 -0.3621  0.3027  0.2157
53300W        W96316  22.306  13.751  23.852 -0.1297 -0.0373 -0.0109
53301W        W96317   7.292  34.380  15.607  0.2742  0.1811  0.2758
53302W        W96318  12.740   0.289  26.974 -0.1688 -0.1634 -0.0084
53303W        W96319   4.869  25.597  24.260  0.1815  0.2013 -0.2084
53304W        W96320  14.385  33.130   1.723  0.1425 -0.1103 -0.1402
53305W        W96321   9.100  28.938  23.667 -0.1704  0.3546  0.0823
53306W        W96322   6.012  33.672  22.084  0.0197  0.5243 -0.0235
53307W        W96323  14.853   9.230  17.242 -0.0228 -0.0871  0.1482
53308W        W96324  17.444   0.834   0.199  0.2764  0.2819 -0.0272
53309W        W96325  17.688  19.454  21.848  0.1251 -0.1077  0.0998
53310W        W96326   5.784   2.273  17.791  0.1309  0.0643 -0.0903
53311W        W96327  22.912   2.208   0.214  0.1865  0.0579 -0.0559
53312W        W96328  13.763  22.594  12.602 -0.0549 -0.1263  0.1747
53313W        W96329   8.102  24.268  25.662 -0.2210  0.2381  0.1844
53314W        W96330  14.044   7.126  23.336 -0.1701 -0.0585  0.0527
53315W        W96331   5.507   6.246  23.365  0.0519  0.3246 -0.0963
53316W        W96332  11.781   9.533  13.676 -0.1176  0.1858  0.2606
53317W        W96333   9.302  31.989  20.829  0.1740  0.0290  0.0534
53318W        W96334  25.726  16.908  14.646 -0.1888 -0.0490 -0.0934
53319W        W96335  29.809  31.879  16.656  0.0580 -0.2333 -0.2062
53320W        W96336  18.776   9.677  23.846  0.2427  0.0090  0.1541
53321W        W96337  29.619  22.341  21.481 -0.0428 -0.1971 -0.0300
53322W        W96338   9.308  12.754  18.964 -0.0506  0.0249  0.2669
53323W        W96339  23.269   3.420  10.798  0.2725  0.1922  0.2267
53324W        W96340  29.581   5.216  16.433  0.3653  0.1051  0.2251
53325W        W96341  18.866   8.694  16.065  0.0804  0.3059 -0.0841
53326W        W96342   9.964  33.189  18.508  0.1495 -0.1394 -0.1955
53327W        W96343   7.631  11.052  24.590 -0.0713  0.4078  0.4869
53328W        W96344   1.680  31.644   2.516 -0.1281  0.0461 -0.1347
53329W        W96345   9.859   6.168  17.188 -0.2787  0.4559  0.1957
53330W        W96346   7.753   9.840  15.097  0.0515 -0.2197 -0.0648
53331W        W96347  11.853   6.565   3.138 -0.1482 -0.1877 -0.1158
53332W        W96348  27.753  26.887   2.448  0.3861  0.2816  0.0926
53333W        W96349  10.988  23.405   2.986  0.2387  0.2490 -0.0351
53334W        W96350   7.795  12.407  24.821 -0.0527  0.3847  0.1517
53335W        W96351  13.822   7.813  27.735  0.0144 -0.0248 -0.0164
53336W        W96352  19.650  25.500   7.122  0.0141 -0.2232 -0.0037
53337W        W96353  19.884  13.995  12.677  0.0522 -0.0594  0.0786
53338W        W96354  19.183  25.261  15.363  0.0421 -0.0171  0.2656
53339W        W96355  11.357  32.713  16.011 -0.1168 -0.0258 -0.0098
53340W        W96356  16.192   8.833  23.781  0.1436 -0.3022  0.3475
53341W        W96357   7.014  28.215  20.083  0.0371  0.1304 -0.3382
53342W        W96358  12.515  16.027  22.113 -0.1634 -0.2627 -0.2407
53343W        W96359  10.204   7.585  19.713  0.2684  0.2423  0.0632
53344W        W96360  13.187  15.291  21.184 -0.2670  0.1569 -0.3038
53345W        W96361   7.142   7.446  15.901 -0.0637 -0.0669  0.1192
53346W        W96362  32.348  16.953  23.037 -0.0378 -0.2642  0.2735
53347W        W96363   7.507   4.136  23.406  0.0520 -0.1506  0.0976
53348W        W96364   9.463  29.072  17.572  0.2171 -0.1566  0.0135
53349W        W96365  20.273   7.527  27.576  0.1025  0.0396 -0.0369
53350W        W96366  20.196  11.251  25.883 -0.0222  0.0867  0.0414
53351W        W96367   5.048   2.316  16.821 -0.0469  0.1520  0.0157
53352W        W96368   4.286  10.119  19.764 -0.3285  0.0224 -0.1936
53353W        W96369   4.610  11.126  22.461 -0.0781 -0.0440 -0.1098
53354W        W96370  31.657   9.215  28.366  0.2647  0.0013 -0.1200
53355W        W96371  18.696   8.953  15.669  0.1896 -0.0122 -0.0811
53356W        W96372  14.176   4.777  14.429  0.1076 -0.3522 -0.0189
53357W        W96373  34.777  10.715  20.386 -0.1941  0.3729 -0.3912
53358W        W96374   9.081  27.450   1.234  0.1599  0.0011  0.3125
53359W        W96375  30.811  21.167  23.381  0.2274  0.3584 -0.2484
53360W        W96376  14.218   8.315  16.408  0.0899 -0.1614 -0.1590
53361W        W96377  15.299  15.547  14.490  0.1098 -0.0036 -0.0007
53362W        W96378  17.644   9.174  13.342  0.1043  0.0948 -0.1462
53363W        W96379  11.802   8.802  16.861 -0.4009 -0.1617  0.1141
53364W        W96380  32.526   8.391  20.928  0.0804 -0.1987 -0.0951
53365W        W96381  18.486   1.177  15.391 -0.0664 -0.0360  0.3562
53366W        W96382  24.695  16.586   3.890 -0.1044 -0.1220 -0.1359
53367W        W96383  10.079  32.243  25.204  0.2027 -0.1149  0.1411
53368W        W96384  10.319   0.747  28.374 -0.3266  0.0762  0.0926
53369W        W96385  24.235  21.533  19.438  0.0560  0.1452  0.0328
53370W        W96386  11.743  32.367  22.430  0.1240  0.3898 -0.1765
53371W        W96387   7.700  10.297  18.753  0.2126 -0.0907 -0.0915
53372W        W96388   3.164   6.642  19.564 -0.0815 -0.1616  0.0954
53373W        W96389  25.124  28.720  22.310  0.0678 -0.2768  0.1858
53374W        W96390  10.161  32.313  14.938 -0.0603 -0.1240 -0.0653
53375W        W96391  21.545   2.571  24.249  0.1396  0.1618 -0.4010
53376W        W96392   9.949   4.842  20.545 -0.1279  0.2613  0.1453
53377W        W96393  11.205   1.970   2.062  0.0020 -0.0065 -0.3156
53378W        W96394  33.836   7.014  29.221  0.2353 -0.1194 -0.1668
53379W        W96395   4.508   3.362   3.619  0.2229  0.1074  0.1200
53380W        W96396  15.740   3.433  15.359  0.0121 -0.1069 -0.2850
53381W        W96397   7.923  34.665   3.314  0.1047  0.1731 -0.0913
53382W        W96398  11.644   9.260   2.355 -0.2987  0.2134 -0.2512
53383W        W96399  15.068   0.236   4.837  0.1041  0.1280 -0.1072
53384W        W96400  25.201   0.169   6.045  0.1280  0.1087 -0.1504
53385W        W96401  10.284  31.309   7.109  0.2102 -0.0511 -0.1285
53386W        W96402  21.692  10.985  19.223  0.3468 -0.1728  0.2253
53387W        W96403  31.059  22.968   0.124  0.1037  0.2756 -0.2965
53388W        W96404   9.227   3.596  14.507 -0.1457 -0.1094 -0.0653
53389W        W96405  28.840  22.406  22.051  0.1884 -0.1188 -0.0855
53390W        W96406  11.574  15.279   2.779 -0.0515  0.1849  0.0828
53391W        W96407  19.352   9.806  13.266  0.4038 -0.0455 -0.2156
53392W        W96408  18.003   2.595  16.187 -0.1570 -0.2004  0.2008
53393W        W96409  33.277  10.650  16.070 -0.0969  0.0141 -0.0035
53394W        W96410  23.228   8.823  24.018  0.4171  0.2466 -0.2911
53395W        W96411  33.783  11.543   5.100  0.4861 -0.1058 -0.1047
53396W        W96412   5.240   4.384  28.367  0.0219 -0.1065 -0.2239
53397W        W96413  32.016   1.992  19.824 -0.0083  0.0664  0.0520
53398W        W96414  13.022  21.487  13.510 -0.0180 -0.0157  0.4491
53399W        W96415  13.311   6.737  27.240  0.0752  0.4902  0.1915
53400W        W96416  13.426  14.748  21.554 -0.0965 -0.1449  0.1841
53401W        W96417  12.011   8.690  21.917  0.2678  0.0106 -0.0709
53402W        W96418   3.685   4.607  21.576 -0.1776  0.0209 -0.1903
53403W        W96419  20.183  26.868  19.298  0.4685  0.1932 -0.1313
53404W        W96420   7.349   8.651  17.159 -0.2517 -0.0512  0.0484
53405W        W96421  22.170  12.764  15.494  0.3453  0.1871 -0.0348
53406W        W96422  14.708   7.240  13.086  0.2767 -0.0034 -0.0894
53407W        W96423  11.175  14.638  15.827  0.1002 -0.2893 -0.0963
53408W        W96424  25.809  11.273  21.369  0.2560  0.0657 -0.0675
53409W        W96425   8.722  31.601  22.215 -0.2882  0.0110 -0.1236
53410W        W96426  27.494  33.631  18.328  0.1532  0.0718 -0.2665
53411W        W96427   7.587  16.513  13.605 -0.1647 -0.3699  0.1081
53412W        W96428   2.748   7.348  19.506  0.1284  0.0444 -0.1655
53413W        W96429  10.319   6.745  19.797 -0.4246 -0.2923  0.2558
53414W        W96430  34.028  12.159  19.291 -0.0888  0.1273 -0.2068
53415W        W96431  32.960  12.455   0.322 -0.1453 -0.2378  0.1840
53416W        W96432  16.021  29.693  21.747  0.0658 -0.1469  0.2369
53417W        W96433  17.578  17.007  14.443  0.1630 -0.1283  0.0693
53418W        W96434   5.014   8.475  15.333  0.0249  0.2280  0.1439
53419W        W96435   4.924   4.423  19.552 -0.1280 -0.0213  0.0587
53420W        W96436  14.038  13.871  21.534  0.0234  0.1475 -0.2719
53421W        W96437  10.203  17.822  19.541  0.0697  0.0459  0.2969
53422W        W96438  10.513  17.874  12.294 -0.0471  0.1586  0.2157
53423W        W96439  21.857  28.824   2.731 -0.1651 -0.1479  0.3040
53424W        W96440  12.136   4.411  17.499 -0.1059  0.2657  0.0812
53425W        W96441  11.650  12.500  25.426 -0.2755  0.1280  0.1031
53426W        W96442  17.117  29.633  25.961 -0.0218  0.0596  0.3112
53427W        W96443  19.759  11.262  22.058 -0.0342  0.2433  0.0643
53428W        W96444   9.613   7.156  18.640  0.2253  0.0297 -0.0615
53429W        W96445  26.530  10.011   0.230 -0.0388 -0.4266 -0.1057
53430W        W96446   0.403  11.980   4.982 -0.3377 -0.2228 -0.2029
53431W        W96447  30.501   9.974  23.400 -0.1891 -0.3484  0.1356
53432W        W96448  11.430   5.731  21.317  0.4001 -0.0559  0.3144
53433W        W96449  22.977   7.633  14.418 -0.1948 -0.0142 -0.0565
53434W        W96450   1.738  22.801  18.474 -0.3065 -0.2309  0.0478
53435W        W96451  26.976  28.411   0.460  0.0758 -0.0985 -0.1329
53436W        W96452  33.683   6.597  19.260  0.0272 -0.1237  0.1816
53437W        W96453   2.390  17.607  22.250 -0.1080  0.0564  0.1457
53438W        W96454  18.807   1.433   0.510 -0.1560  0.0226  0.1331
53439W        W96455  12.741   9.921  15.195 -0.0879  0.1733 -0.1002
53440W        W96456  31.935  19.528  27.615 -0.3896  0.2285  0.1287
53441W        W96457   8.633   1.716  24.163 -0.0421 -0.1365 -0.4916
53442W        W96458  15.884   7.919  17.435 -0.1562  0.1567  0.1208
53443W        W96459   9.398  34.123  16.732 -0.0069  0.1083  0.1434
53444W        W96460  20.476  29.139  19.800  0.1596 -0.0154  0.1330
53445W        W96461  16.005  11.753  12.263  0.0208 -0.1483  0.2033
53446W        W96462  16.474   4.934  25.061  0.0519 -0.0853 -0.1158
53447W        W96463  14.757  12.476   0.593 -0.0454  0.3680 -0.1954
53448W        W96464   8.962   0.081  16.619 -0.0235 -0.2963 -0.3385
53449W        W96465   7.599  30.838  22.043 -0.3406 -0.0948  0.0363
53450W        W96466  18.038   6.160  15.777 -0.1567 -0.0629  0.3300
53451W        W96467   8.572  15.554   3.110  0.1003 -0.0755  0.0581
53452W        W96468  12.063  28.246  20.711  0.2274  0.2377  0.0104
53453W        W96469  20.484  33.586   5.651 -0.0102 -0.0698 -0.1780
53454W        W96470  28.677   4.760  25.966  0.1086 -0.1426  0.2636
53455W        W96471  12.506  14.100  17.343  0.1652 -0.1015  0.0422
53456W        W96472  23.408  12.713  17.687 -0.2311  0.3192  0.1011
53457W        W96473   9.276   2.283  24.598 -0.0890 -0.0442  0.1175
53458W        W96474  28.686   9.464  15.764 -0.0201  0.0334  0.4087
53459W        W96475   5.962   2.569  19.040  0.1909 -0.1296 -0.1983
53460W        W96476  15.328   9.175  20.914  0.2207  0.1467 -0.2035
53461W        W96477  27.777   9.021   4.561  0.1681 -0.1569 -0.1538
53462W        W96478  23.038   7.223  28.832  0.1521  0.1821 -0.1440
53463W        W96479  18.523   8.313  15.624 -0.0780 -0.2568 -0.0831
53464W        W96480   2.974   2.747  14.533 -0.1906 -0.2568  0.1647
53465W        W96481   9.181  11.807  23.921  0.2345  0.2793  0.0280
53466W        W96482   8.051   4.648   0.326  0.1182 -0.2787 -0.0890
53467W        W96483  15.766  10.009  19.648  0.2132  0.1423 -0.0917
53468W        W96484  23.226   6.581  24.442  0.1752 -0.1377  0.2565
53469W        W96485  20.236   6.797  14.960 -0.0592 -0.0450 -0.1231
53470W        W96486   9.738  29.623  19.154 -0.2184  0.0791 -0.0125
53471W        W96487  34.263   5.884  29.005  0.0408  0.0681  0.0448
53472W        W96488  20.143   2.979  23.292  0.2961 -0.0887 -0.1320
53473W        W96489  18.268   5.498  24.816 -0.1926  0.1677  0.2887
53474W        W96490  30.885  17.935  16.982 -0.2373  0.1253  0.1692
53475W        W96491   8.127  30.345  28.366 -0.0807  0.2788 -0.2434
53476W        W96492  20.058   8.996  19.535 -0.0437  0.0939 -0.0199
53477W        W96493   2.098  11.265  15.729  0.0583 -0.0646 -0.1464
53478W        W96494   3.594  11.261  15.038 -0.1819 -0.0093  0.0457
53479W        W96495  19.895   1.849  26.227 -0.0199 -0.1166 -0.0449
53480W        W96496   4.197  33.502  16.799  0.0406 -0.0509 -0.1637
53481W        W96497  25.893  12.301  27.162  0.1467 -0.5532 -0.0657
53482W        W96498   5.760   8.196  13.997 -0.2753 -0.2950 -0.0891
53483W        W96499   2.271  27.602  14.092  0.1137  0.3903 -0.0703
53484W        W96500  14.102   3.830  19.711 -0.0437 -0.0580 -0.1635
53485W        W96501  22.910  13.036  17.508 -0.0500  0.1030 -0.1001
53486W        W96502   2.970  22.005  26.024 -0.0175  0.2333  0.2299
53487W        W96503  22.800   3.624  19.409  0.0171  0.0791  0.0699
53488W        W96504   3.563  26.069  27.666  0.0189 -0.1238 -0.1354
53489W        W96505  12.514  32.139  23.322  0.0059  0.1877 -0.0936
53490W        W96506  14.029   2.360  21.840  0.1236  0.4049 -0.0523
53491W        W96507   1.573  24.001  28.526  0.2497 -0.1047  0.1305
53492W        W96508  15.755   8.427  17.366 -0.2433  0.0334 -0.3355
53493W        W96509  12.043  10.616  22.287  0.0662 -0.0082  0.0519
53494W        W96510  30.623  10.220  17.498 -0.0226 -0.0665 -0.1912
53495W        W96511  15.646  32.560  17.072 -0.0907  0.1449  0.0824
53496W        W96512  24.296  32.035  19.023 -0.0607 -0.0899  0.0339
53497W        W96513  21.467   7.672  15.041 -0.6029 -0.1031 -0.2999
53498W        W96514   7.486  16.004  18.743 -0.2042 -0.1353  0.2380
53499W        W96515   7.961   8.146  29.041 -0.1628  0.3127 -0.1793
53500W        W96516  17.782   9.770  13.402 -0.1155  0.0494 -0.0705
53501W        W96517   1.086  33.254  16.975  0.1180  0.0662  0.1098
53502W        W96518  20.387  11.875  17.822 -0.1058 -0.0962  0.1158
53503W        W96519  32.453  10.683  16.225  0.1032  0.3424  0.0291
53504W        W96520  13.299  24.074   3.440 -0.2249 -0.0719 -0.0701
53505W        W96521  22.224  29.012  23.643 -0.2376 -0.1304  0.2439
53506W        W96522  18.505  18.787  12.724 -0.0587 -0.0612  0.2870
53507W        W96523  17.104   4.925  21.970  0.0777  0.0364  0.1210
53508W        W96524  10.913   9.273  14.529  0.1221  0.2149 -0.2448
53509W        W96525  24.159  30.429   1.313 -0.2447  0.0751 -0.2172
53510W        W96526  33.372  24.697   8.126 -0.2850  0.1270 -0.2216
53511W        W96527  29.209   8.071  28.629  0.1696  0.0052  0.1191
53512W        W96528  32.878   4.544  18.529  0.2383  0.0607  0.1162
53513W        W96529  20.314  22.624  28.173 -0.0136  0.0457  0.1030
53514W        W96530   1.112   8.610  20.600 -0.1309  0.2306  0.1718
53515W        W96531  13.869   5.835  19.698 -0.0743 -0.1044  0.2414
53516W        W96532   2.848  13.314  15.066  0.1315  0.4294 -0.1826
53517W        W96533  18.729  30.347  20.470 -0.2559  0.0462  0.0524
53518W        W96534  12.974   5.257   2.220  0.0909 -0.1473 -0.0772
53519W        W96535  28.553  21.435  16.224  0.1648 -0.2062 -0.1344
53520W        W96536  13.887  16.967  23.365 -0.3440  0.1332  0.0894
53521W        W96537  10.239  13.567  25.336  0.0605 -0.0653 -0.0341
53522W        W96538  18.819   3.299  26.491 -0.0501  0.0773  0.1584
53523W        W96539   6.462   3.998  17.146  0.0709 -0.1218 -0.1669
53524W        W96540  17.629  26.665  18.664 -0.0011 -0.1021 -0.0048
53525W        W96541  19.852  23.856  17.105 -0.0255  0.1833 -0.0152
53526W        W96542  14.144  26.224  18.132 -0.0596  0.2679 -0.2250
53527W        W96543   6.257   4.798  22.917  0.1196 -0.3633 -0.1137
53528W        W96544  22.942  33.599  15.962 -0.3216  0.2112  0.0782
53529W        W96545  19.333  34.196  15.220  0.1924 -0.3684 -0.0218
53530W        W96546   6.301  13.510  21.501 -0.0070 -0.0198 -0.0796
53531W        W96547  25.927  15.403  22.610 -0.0184 -0.0997 -0.1071
53532W        W96548  17.741   6.140  24.574  0.3419  0.2434 -0.0308
53533W        W96549  27.600  29.794   0.312 -0.0808  0.1015 -0.2455
53534W        W96550  17.576  28.404  19.986  0.1753  0.1845  0.1779
53535W        W96551  17.525  29.712  29.264 -0.0208 -0.0832 -0.0598
53536W        W96552  33.167  31.163  24.807  0.0854  0.1644 -0.0240
53537W        W96553  22.097   5.626  16.535  0.1741 -0.0401  0.0647
53538W        W96554   1.982  17.180  22.982 -0.0313  0.2432  0.1732
53539W        W96555  11.350  22.374  25.965  0.0399  0.2869 -0.1909
53540W        W96556  18.813   9.282  18.759  0.0257  0.1863 -0.1542
53541W        W96557  12.060   2.338  20.221  0.0590  0.0801 -0.2116
53542W        W96558  11.518   4.746  23.250  0.0691 -0.1317 -0.3960
53543W        W96559   8.537  11.993  20.569  0.3270 -0.0926  0.0969
53544W        W96560  26.925   8.505  24.811 -0.1044  0.0106 -0.2644
53545W        W96561  14.891   5.557  23.450  0.1469  0.0272  0.1563
53546W        W96562   8.018   3.253  18.446  0.3872 -0.0474  0.3586
53547W        W96563   0.796  10.436  20.414  0.4695  0.2181  0.1665
53548W        W96564   2.585  33.409  25.416 -0.1079 -0.1308  0.1118
53549W        W96565   4.610  20.317   5.989  0.2737  0.1319  0.1288
53550W        W96566  19.275   0.119  16.519  0.0506 -0.1183 -0.1746
53551W        W96567   4.881  23.652   9.773  0.2152 -0.2112  0.2897
53552W        W96568  20.758  33.953  17.729 -0.0422  0.1133 -0.1440
53553W        W96569  32.537  34.552  14.493  0.0511  0.1146 -0.0573
53554W        W96570  18.528  28.264  29.264  0.0119  0.0608  0.0010
53555W        W96571  15.261   4.653  27.017 -0.3883  0.0298 -0.0487
53556W        W96572  19.504   2.146  19.788  0.2577 -0.0713  0.0020
53557W        W96573  26.310   6.685  26.466 -0.0516  0.0768 -0.0948
53558W        W96574  22.611  28.178  14.360 -0.1193 -0.1972  0.3698
53559W        W96575  20.093  32.159  21.489  0.1432 -0.0150 -0.1433
53560W        W96576  14.749  11.599  20.350 -0.0451 -0.1016  0.4105
53561W        W96577  13.028  19.027  14.418  0.0127  0.1344  0.0647
53562W        W96578  20.943   9.461  25.034  0.0192  0.1533 -0.1436
53563W        W96579  19.050   1.402   4.074  0.2033 -0.2362 -0.1121
53564W        W96580  11.372  31.088  24.675  0.3438  0.1563  0.1212
53565W        W96581  12.695  19.051  23.323 -0.0585  0.1162 -0.1068
53566W        W96582  18.720   2.750  27.178 -0.0487  0.0200 -0.1514
53567W        W96583  11.826   7.945  27.207 -0.2108  0.1379  0.2434
53568W        W96584  32.140  29.941  19.096 -0.0160 -0.0144 -0.1461
53569W        W96585  34.604  34.728  20.140  0.0587  0.2389  0.3661
53570W        W96586  27.270  16.116  13.755 -0.2068  0.2430 -0.0870
53571W        W96587  13.947   8.139  20.952 -0.1015 -0.0845  0.2004
53572W        W96588  20.471  13.830  15.619  0.1629 -0.0842 -0.0562
53573W        W96589  12.297   1.618  14.809 -0.4133 -0.2076  0.2658
53574W        W96590  21.326  20.139  24.935  0.1847 -0.1853 -0.0348
53575W        W96591   2.147  13.897  21.741 -0.0031  0.0172 -0.0692
53576W        W96592  34.129  34.552  15.740  0.0580 -0.0644  0.0383
53577W        W96593   8.301  18.533  22.697 -0.0193 -0.1290 -0.0940
53578W        W96594   8.156  16.777  24.270 -0.2921 -0.1007 -0.3532
53579W        W96595  16.121   4.530  19.226  0.2118 -0.0014 -0.0433
53580W        W96596  13.187  22.723  14.789 -0.3773  0.1293 -0.1363
53581W        W96597  18.701  24.332  15.633 -0.0716  0.3065 -0.1510
53582W        W96598  10.861  18.546  14.069  0.0227  0.2641 -0.0169
53583W        W96599  21.123  11.253  13.110  0.0532 -0.0918  0.2599
53584W        W96600  15.072  33.345  25.900  0.1866  0.0661 -0.1068
53585W        W96601  34.266  10.496   4.867 -0.0137  0.0847 -0.0799
53586W        W96602   4.678   2.679  16.958 -0.2878 -0.2254  0.0702
53587W        W96603  34.147  28.808  15.653  0.5931 -0.2172  0.2414
53588W        W96604  14.983   0.365  28.090  0.4440  0.1264 -0.1196
53589W        W96605  28.958  15.764  26.486 -0.2042  0.1075 -0.1148
53590W        W96606   6.318   0.726  15.188  0.0721 -0.1307 -0.0475
53591W        W96607  21.010   6.775  25.567  0.0159  0.1342  0.3091
53592W        W96608   4.229   7.319  14.966  0.2816 -0.3922 -0.2899
53593W        W96609  13.537  32.954  22.161 -0.3532  0.2770 -0.2178
53594W        W96610  30.481   6.847  29.236 -0.3326  0.1708  0.2381
53595W        W96611  29.544  10.295  29.316  0.0668 -0.0795 -0.2481
53596W        W96612  17.746   4.552   3.330  0.0036 -0.0794  0.0130
53597W        W96613  23.367   1.557  26.680 -0.0048  0.1876 -0.1625
53598W        W96614  12.248   5.403  15.433 -0.0281 -0.1613  0.3162
53599W        W96615  19.270  11.030  20.422 -0.2150  0.0074 -0.1667
53600W        W96616  12.636  30.472  25.322  0.1729 -0.0495 -0.2833
53601W        W96617  15.266  10.328  18.859  0.0893  0.0827 -0.2058
53602W        W96618  28.635  33.827  15.951 -0.0847  0.2470  0.1106
53603W        W96619  25.755  26.222  21.040  0.0084 -0.4189 -0.1080
53604W        W96620  15.153  10.431  14.783 -0.0106  0.0880 -0.1497
53605W        W96621   8.417   4.288   0.530  0.0105  0.1287  0.0425
53606W        W96622   7.580   0.769  19.263 -0.1004 -0.1828  0.1986
53607W        W96623   8.611   6.719  17.864 -0.0230 -0.1764  0.0057
53608W        W96624   3.624  25.319   1.876  0.0129  0.0769  0.3005
53609W        W96625  27.315  14.465  19.130 -0.2505 -0.1761 -0.3615
53610W        W96626   6.197   3.258  14.316  0.1447  0.0969 -0.0666
53611W        W96627  12.077   9.173  24.747 -0.1807 -0.4554  0.0109
53612W        W96628   7.855  34.631  18.932 -0.1849 -0.2518 -0.0146
53613W        W96629  21.304  32.883  27.289  0.2612 -0.0007 -0.0012
53614W        W96630  33.180  16.204  15.253  0.0847 -0.1173 -0.1082
53615W        W96631  26.011  28.960  28.236 -0.3257 -0.1536  0.2126
53616W        W96632   7.979   7.700   0.758  0.0213 -0.0181  0.1241
53617W        W96633   1.179   7.279  19.904  0.0998 -0.0847  0.0908
53618W        W96634   7.194   8.686  25.217  0.3298  0.1682  0.2570
53619W        W96635  17.823  10.938  27.688 -0.1108  0.0251  0.1765
53620W        W96636   0.106   1.679  22.593  0.1129  0.0266  0.0781
53621W        W96637  19.732  27.842  23.448  0.1843  0.1059 -0.0906
53622W        W96638  22.917   9.444  21.107 -0.0785  0.1168  0.2371
53623W        W96639   1.654  21.382  13.827  0.1657 -0.3361 -0.0685
53624W        W96640   8.259  19.950  24.082  0.1944 -0.2111  0.1090
53625W        W96641  19.685  24.947   7.895 -0.1016 -0.3620  0.1552
53626W        W96642  28.320  27.689  25.383 -0.0298 -0.0091 -0.0133
53627W        W96643  10.984   6.967  21.638 -0.4193 -0.0648 -0.1551
53628W        W96644   2.051  33.431   0.833 -0.0844  0.2121  0.0503
53629W        W96645   9.391  34.130  16.147  0.0455  0.1336 -0.2605
53630W        W96646  11.472   5.960  26.188 -0.1500 -0.0311 -0.4215
53631W        W96647  15.116  17.131  13.729  0.1850 -0.0866 -0.2360
53632W        W96648  18.281  31.388  14.494 -0.0769  0.1205 -0.2668
53633W        W96649   9.256  11.735  18.284 -0.0368  0.0555  0.1056
53634W        W96650   8.920  32.906  23.743  0.3644 -0.0548  0.1604
53635W        W96651  15.180  13.790  14.034  0.3529  0.3456  0.1876
53636W        W96652  13.932   9.336  25.462 -0.1268  0.0084  0.0081
53637W        W96653   3.510  26.668  20.039  0.2260  0.1244  0.0692
53638W        W96654   3.288   8.033  14.356  0.1638  0.1635 -0.3235
53639W        W96655   9.438  32.186  15.335 -0.0636 -0.1349 -0.4231
53640W        W96656  11.092   5.024  26.541  0.3837 -0.0171  0.1208
53641W        W96657  14.848   1.367  27.905  0.1024  0.0444 -0.0951
53642W        W96658  18.404  11.575  21.888  0.0390 -0.0612 -0.1942
53643W        W96659   6.515   7.892  18.092 -0.0355 -0.2554 -0.1270
53644W        W96660   9.021   9.080  15.838  0.0672  0.0943 -0.2747
53645W        W96661  15.792   8.926  12.788  0.0710 -0.2827 -0.4437
53646W        W96662  24.950   7.317  17.514 -0.2920 -0.2411 -0.1879
53647W        W96663  18.285  30.189   3.888 -0.0317 -0.3442 -0.0772
53648W        W96664  33.628   5.042  20.946 -0.0149 -0.1164  0.0905
53649W        W96665   7.717  19.158  12.589  0.0147 -0.0089 -0.0928
53650W        W96666   8.538  13.928  21.635 -0.0340  0.3571  0.0890
53651W        W96667  12.907   7.709  13.234  0.1327 -0.2168  0.1039
53652W        W96668   4.988  20.726  20.421  0.0669 -0.0380 -0.0596
53653W        W96669  10.208   8.432   9.144 -0.3090  0.0685  0.2137
53654W        W96670  21.842  18.332  13.361  0.0751 -0.1645 -0.1042
53655W        W96671  33.127   7.456  18.281  0.0504 -0.0246  0.1910
53656W        W96672  29.603  23.387   3.585  0.1148 -0.0515  0.1024
53657W        W96673  22.782   7.994  25.434  0.2991  0.0747 -0.1010
53658W        W96674  16.925   1.410  18.844 -0.1475 -0.2312 -0.1564
53659W        W96675  16.196  24.902  27.424 -0.0266  0.0529 -0.4004
53660W        W96676  27.415  29.816  17.613  0.4196  0.0423  0.3226
53661W        W96677  16.691   5.046  14.696  0.2773 -0.0194 -0.0205
53662W        W96678  13.330  33.391  20.068  0.0652  0.0440  0.1080
53663W        W96679  16.717   0.286  26.574  0.1302  0.3808  0.1601
53664W        W96680  17.432  17.865  16.336  0.0378 -0.4967  0.1451
53665W        W96681   7.709  31.983  28.596 -0.0610  0.0315 -0.2866
53666W        W96682  24.147   4.069  16.951 -0.3635  0.1699  0.2425
53667W        W96683   6.623  20.718  13.765 -0.3867 -0.1280  0.1107
53668W        W96684   3.394  10.145  25.047  0.0293 -0.1919  0.0571
53669W        W96685  16.654  33.448  18.026  0.1130 -0.0308  0.0175
53670W        W96686  27.560  15.727  16.959 -0.1769  0.3171 -0.0391
53671W        W96687  26.782   5.450  20.300 -0.1920  0.1731  0.1150
53672W        W96688  23.786   3.772  26.320 -0.0219  0.0046 -0.1943
53673W        W96689   5.694  33.371  20.690 -0.1825  0.2285  0.1431
53674W        W96690  17.353  13.849  24.772  0.2017 -0.1077  0.0148
53675W        W96691  18.565   3.389  18.190 -0.2836 -0.0990  0.0903
53676W        W96692  11.692   5.799  20.828 -0.0505  0.1567 -0.0886
53677W        W96693   9.625  28.025   2.195  0.0800  0.1253 -0.0693
53678W        W96694  19.021   3.983  19.246  0.1444  0.0092  0.1354
53679W        W96695   7.528  27.010  14.348 -0.2945 -0.3599 -0.1522
53680W        W96696  10.928  32.394  16.921  0.1035 -0.0349 -0.1226
53681W        W96697   8.576  32.304  19.104  0.2553 -0.2474 -0.0061
53682W        W96698  17.167  30.784  29.036  0.0703  0.2182  0.1041
53683W        W96699   5.988  14.173  20.731  0.1910  0.0759 -0.0781
53684W        W96700  13.004   3.360   6.548 -0.0382  0.0376  0.1793
53685W        W96701  31.339   9.652  21.641  0.1700 -0.0457 -0.1791
53686W        W96702   5.664  26.844  22.736  0.0309 -0.1091  0.3165
53687W        W96703  32.744  24.718   8.760  0.0274  0.1138  0.1023
53688W        W96704   2.388  12.077  20.786  0.0849 -0.1438  0.0340
53689W        W96705   9.180  32.210  14.026  0.0931  0.2179  0.0585
53690W        W96706  10.157  18.857  17.995  0.1529 -0.2195 -0.3601
53691W        W96707  20.593  32.221   4.702  0.0988  0.2725  0.0203
53692W        W96708  21.913  30.421  22.549  0.1105 -0.1343  0.0507
53693W        W96709   9.538   4.482  19.640 -0.2951 -0.1482 -0.1186
53694W        W96710   3.090  18.070  25.245 -0.1682 -0.1332  0.0977
53695W        W96711  14.700  34.605  18.741  0.1443  0.0150 -0.1476
53696W        W96712  30.716   6.384  26.692 -0.0612 -0.3206  0.0427
53697W        W96713  30.674  33.869  21.027  0.2472 -0.3583  0.0732
53698W        W96714   4.911  27.179  20.000 -0.1732 -0.2325 -0.1633
53699W        W96715  13.940  34.612  21.682 -0.0472  0.3543 -0.1998
53700W        W96716   3.554  24.339  13.834  0.1081 -0.1347 -0.0215
53701W        W96717  18.217   2.111  25.642  0.0916  0.1288  0.1238
53702W        W96718   5.241  10.769  10.200 -0.0989 -0.1799 -0.1492
53703W        W96719  16.502  32.977  16.087 -0.4403 -0.2201  0.0164
53704W        W96720   3.787  11.735  14.278 -0.1572  0.0661  0.0432
53705W        W96721  14.125   7.559  17.750  0.4450  0.0601 -0.1951
53706W        W96722  15.671   3.332  22.351 -0.1348 -0.0041  0.1883
53707W        W96723  11.590  29.327  21.497 -0.0309 -0.0601 -0.0628
53708W        W96724  25.405   5.110   7.945 -0.0468  0.1838 -0.0426
53709W        W96725  19.400   4.299  20.262 -0.1692 -0.0548 -0.0971
53710W        W96726  11.853   4.519  25.196  0.0947 -0.1175 -0.0821
53711W        W96727  18.139  15.096  20.642  0.3457  0.1924  0.4981
53712W        W96728   5.084  33.481  18.153  0.1844 -0.0583 -0.3157
53713W        W96729  19.328  33.920  18.263 -0.2367 -0.0550 -0.1277
53714W        W96730  16.745   3.914  23.658  0.2063 -0.2381  0.0518
53715W        W96731  11.999  34.679  17.185 -0.0550  0.5347  0.0448
53716W        W96732  12.494  21.366   2.670  0.0964 -0.1735 -0.0849
53717W        W96733  31.168   8.399  17.234  0.0965 -0.1143 -0.1810
53718W        W96734  13.998  31.297  19.885  0.1045  0.0295 -0.3544
53719W        W96735   7.623  11.902  13.683 -0.2145 -0.0021 -0.0536
53720W        W96736   8.347  30.939  14.356  0.0522 -0.2898 -0.1598
53721W        W96737  11.509  34.646  16.949 -0.1628  0.3347 -0.0256
53722W        W96738   0.905  24.913   6.701  0.1906  0.0422  0.1326
53723W        W96739  17.869   9.519  16.808 -0.0237 -0.0339  0.0739
53724W        W96740   9.565  12.053  18.622  0.1918  0.1302 -0.0671
53725W        W96741  18.205   1.472  27.473  0.0051 -0.1503 -0.4334
53726W        W96742   3.915  22.535   5.338  0.0602  0.1205  0.3129
53727W        W96743   2.043  31.043  14.379  0.1675  0.2341  0.0710
53728W        W96744   3.635   3.644  20.979  0.0551 -0.2480  0.1326
53729W        W96745   6.887   0.773  16.461  0.3131  0.0486  0.1570
53730W        W96746  15.498   4.153   6.762  0.2466  0.4391  0.0271
53731W        W96747   3.385   8.292  20.699  0.0748 -0.1784 -0.0918
53732W        W96748  27.594  12.473  18.873 -0.0719  0.1122  0.1189
53733W        W96749   2.752   3.750  16.476 -0.2113  0.3024  0.0541
53734W        W96750   0.143  16.804  24.882 -0.0306 -0.1374 -0.1358
53735W        W96751  19.007   3.764   7.060 -0.0441  0.2167  0.5210
53736W        W96752  21.657  10.411  21.246 -0.0003  0.0405  0.3270
53737W        W96753  11.183  23.644  28.656 -0.0900 -0.1100 -0.1287
53738W        W96754  34.533  30.124  17.678  0.0312 -0.0944  0.0622
53739W        W96755  14.510  27.888  20.553  0.0315 -0.0980  0.1245
53740W        W96756   8.881  26.553  16.585  0.0069 -0.1145  0.2686
53741W        W96757  15.038  34.145  17.841  0.1431  0.1140 -0.1116
53742W        W96758  13.998  30.797  21.259  0.1686  0.4503 -0.1058
53743W        W96759  34.722  30.856  18.267  0.0695  0.1550 -0.0513
53744W        W96760   3.910   3.889  18.824  0.0669  0.2396  0.0170
53745W        W96761   2.300   5.755  19.975 -0.1183  0.0495 -0.0941
53746W        W96762  12.293  26.850   2.479  0.1283 -0.3371  0.0022
53747W        W96763  17.240   0.418  16.932  0.1183 -0.2016 -0.2060
53748W        W96764  10.827  26.670  20.017  0.2434  0.0367  0.0859
53749W        W96765  11.101  33.903  14.242 -0.2394 -0.1130  0.0220
53750W        W96766   8.458   2.088  25.268 -0.0707  0.1443  0.1634
53751W        W96767  11.997   0.666   3.610 -0.0138  0.1331  0.2747
53752W        W96768  33.033  12.805  15.321  0.0382 -0.1348  0.3063
53753W        W96769   7.578   1.099  22.047 -0.2241  0.3153  0.3126
53754W        W96770  15.797  31.131  20.157 -0.1281  0.1748  0.1921
53755W        W96771   1.983  31.546  14.822 -0.3627 -0.0876  0.3812
53756W        W96772  12.452   0.353  15.523  0.4745 -0.2084  0.0333
53757W        W96773  12.621  26.766  20.750 -0.2118  0.0003  0.1888
53758W        W96774  16.432  25.748  25.455  0.3067  0.2634 -0.1780
53759W        W96775   3.991   5.563  28.766 -0.0167 -0.1309 -0.2224
53760W        W96776  14.309   9.312  25.868 -0.1611  0.2460  0.1011
53761W        W96777  18.865   5.296  17.056 -0.2378  0.2450 -0.1863
53762W        W96778   4.515  32.752  15.157  0.0346 -0.0336  0.2811
53763W        W96779  20.447   9.202  24.455 -0.2684  0.0355  0.0327
53764W        W96780   4.872   3.833  13.319  0.0102 -0.1785 -0.2340
53765W        W96781   0.934  24.046  25.599  0.0174  0.0217  0.1257
53766W        W96782  26.795  19.298  21.050 -0.3313  0.2084 -0.0834
53767W        W96783  19.996  24.325  17.043  0.1394 -0.2129  0.2469
53768W        W96784  24.714  25.104  26.308 -0.0545  0.2360 -0.0923
53769W        W96785   9.523  15.804  17.624  0.1926  0.3615 -0.1770
53770W        W96786  22.420   9.120  23.326  0.2222 -0.0145  0.0778
53771W        W96787  12.880   6.310   9.744  0.2314  0.3299 -0.0237
53772W        W96788  27.107   0.047  15.609 -0.2785 -0.0013 -0.4692
53773W        W96789  10.413   4.599  15.158  0.0963 -0.0160  0.0058
53774W        W96790  33.209   5.595  25.917  0.0307 -0.2754 -0.1417
53775W        W96791   6.877   9.369  20.700  0.0295  0.0104 -0.1875
53776W        W96792  30.089  15.858  17.977  0.1610 -0.1861 -0.0464
53777W        W96793  15.812  19.888   0.759  0.0330 -0.1520 -0.0630
53778W        W96794  21.242   6.147  13.848 -0.4604 -0.0998 -0.0131
53779W        W96795  21.994   2.298  21.774 -0.0232 -0.0132  0.2693
53780W        W96796  17.374   5.224  23.944  0.0024 -0.4508  0.2933
53781W        W96797  30.301  21.044  20.535  0.0291  0.1877 -0.1160
53782W        W96798   6.745  29.923  18.438 -0.1528 -0.0722  0.0174
53783W        W96799  14.173   0.784   3.068 -0.1857 -0.0617 -0.2021
53784W        W96800  27.479  12.698  22.882  0.0782  0.1021 -0.0979
53785W        W96801  17.055  11.937  13.866  0.2970 -0.0165 -0.2753
53786W        W96802   1.518  30.975  22.458 -0.0196 -0.3171  0.2088
53787W        W96803  21.540   5.382  20.765 -0.1118  0.0973 -0.1254
53788W        W96804  18.002   3.348  28.860 -0.3208  0.0644 -0.0321
53789W        W96805  18.130  32.808  17.360  0.3930  0.0014  0.0311
53790W        W96806  21.296  33.512  20.649  0.1868  0.5332  0.1875
53791W        W96807  22.205  20.353  13.672  0.1383  0.1624 -0.0495
53792W        W96808  23.194  31.633  19.849 -0.2203  0.1532 -0.0108
53793W        W96809  29.951   2.168  28.290  0.1571  0.1058 -0.0932
53794W        W96810  23.818   8.331  23.614 -0.1663  0.1538 -0.0648
53795W        W96811   5.863  23.053  16.723 -0.0092 -0.3164 -0.2244
53796W        W96812   4.015  10.633  27.323  0.3673  0.2698  0.2086
53797W        W96813  30.019  27.049   3.360 -0.1055  0.2282  0.0818
53798W        W96814  19.746   4.908  16.837  0.3071  0.2456  0.0642
53799W        W96815   8.748   1.647  23.679 -0.1630 -0.3052  0.1503
53800W        W96816  18.764  25.464  23.716 -0.0938 -0.2424  0.1466
53801W        W96817  21.834   5.168  22.741  0.1157  0.2404 -0.0072
53802W        W96818  14.654  31.847  27.125 -0.2048 -0.3275  0.0937
53803W        W96819  12.881   7.197  15.633 -0.2141  0.0738  0.1088
53804W        W96820  20.219   4.890  23.902  0.2453  0.0921 -0.4270
53805W        W96821  20.970   6.748  14.594  0.1533 -0.1115 -0.0929
53806W        W96822  30.129  31.934  20.175 -0.1500  0.2417  0.0301
53807W        W96823  23.241   5.084   7.640 -0.0235  0.1136  0.0075
53808W        W96824  19.294   6.774   4.889 -0.0307 -0.2210  0.1783
53809W        W96825  16.966  21.313   6.407  0.2655  0.0722  0.0963
53810W        W96826  30.440   7.917  11.243 -0.1266 -0.2263  0.1558
53811W        W96827  18.668   7.946  21.168  0.1506  0.3060  0.0149
53812W        W96828  21.670   7.219   0.755  0.0117  0.1343  0.1279
53813W        W96829   3.889  33.362  24.312  0.0768  0.1727 -0.2061
53814W        W96830  16.985   9.693  21.043 -0.0475 -0.1012  0.1223
53815W        W96831   8.616   7.174  24.046 -0.1057 -0.2440 -0.2986
53816W        W96832  15.969  20.258  23.613 -0.2568  0.1418 -0.3508
53817W        W96833  22.029  12.453  15.115 -0.0268 -0.1830  0.0641
53818W        W96834  10.457   3.936  22.233 -0.1991 -0.3127  0.4230
53819W        W96835  16.993   4.504   3.345  0.0786 -0.1349 -0.1674
53820W        W96836  15.750  23.613  18.727  0.1470 -0.0655  0.2285
53821W        W96837   1.073   2.023  20.503 -0.0028 -0.0097  0.3096
53822W        W96838   7.715  33.936  22.414  0.2301 -0.1931  0.0780
53823W        W96839  25.663   3.479  20.335  0.2816  0.1481  0.4927
53824W        W96840  11.456  29.145  26.681 -0.0765 -0.1565 -0.1856
53825W        W96841  19.269   7.795  27.548  0.0400 -0.0283 -0.0495
53826W        W96842  14.267   7.605  27.781  0.0964 -0.0530 -0.1765
53827W        W96843  15.736   0.449  28.116  0.2192  0.1991 -0.0993
53828W        W96844   3.998  15.377   4.650 -0.3525 -0.0512 -0.2598
53829W        W96845  23.301   7.946  18.008  0.0732 -0.0573  0.0736
53830W        W96846  11.380  14.445  18.059 -0.1016  0.4024  0.1742
53831W        W96847  27.458   9.657  21.886 -0.0058  0.0064  0.2822
53832W        W96848  20.015  33.938  27.182  0.0422  0.2126  0.1653
53833W        W96849  24.760  28.938   5.204  0.2194  0.1750 -0.1695
53834W        W96850   3.071  18.202  26.548 -0.2373  0.0521  0.0276
53835W        W96851   4.244   4.927  14.973 -0.0521  0.1922 -0.1679
53836W        W96852   9.043   8.500  27.894 -0.1202  0.1779 -0.0756
53837W        W96853  18.304   2.772  17.784 -0.0251 -0.1281  0.2109
53838W        W96854   8.984   6.573  20.315  0.2303  0.4711 -0.0537
53839W        W96855  16.494   2.829  24.451 -0.2370  0.3368 -0.0852
53840W        W96856  23.378   4.497  25.135  0.0524  0.1422  0.3257
53841W        W96857  14.708   0.066  19.981  0.1091 -0.0403  0.3013
53842W        W96858   4.991   6.776  21.400  0.1522  0.1760  0.2436
53843W        W96859  22.780  26.066  27.828 -0.2063 -0.0876 -0.1071
53844W        W96860  31.613  14.097   4.566 -0.1370  0.1607 -0.0868
53845W        W96861  33.551   7.417  22.645 -0.2008 -0.1334  0.1806
53846W        W96862  12.447  34.770  21.353 -0.2062  0.0454 -0.1891
53847W        W96863  19.210   1.136  20.010  0.1273  0.0765 -0.0932
53848W        W96864   7.630  11.747  22.952  0.0350  0.0091  0.4867
53849W        W96865  18.418   2.096  16.279  0.0267  0.0755  0.2272
53850W        W96866   5.631  32.710  28.480 -0.0211  0.0613 -0.1710
53851W        W96867   8.148   5.492  17.853  0.1615  0.2410  0.1405
53852W        W96868  25.083   6.408   7.816 -0.1153 -0.1352 -0.0695
53853W        W96869   4.465   2.548  26.552  0.2262 -0.0063  0.0067
53854W        W96870   5.054  12.931   4.765  0.0296  0.1236 -0.3258
53855W        W96871   5.994  10.755  16.111 -0.2300  0.0952  0.0238
53856W        W96872  24.314  13.081  15.421 -0.2460  0.1192 -0.2732
53857W        W96873  10.130  26.750  28.721 -0.0463 -0.1311 -0.0060
53858W        W96874   9.619  30.478  13.378 -0.1676  0.0005 -0.1454
53859W        W96875   9.606  13.432  17.673 -0.0262  0.2177  0.3917
53860W        W96876  12.813  10.910  20.248  0.4043  0.4130  0.2428
53861W        W96877  19.601   2.510  18.885  0.2855 -0.0046  0.0383
53862W        W96878   9.717  10.708  23.808 -0.0841  0.0005  0.3632
53863W        W96879   6.827   8.198  24.546 -0.1192  0.0380  0.0422
53864W        W96880   7.554   1.261  19.201 -0.1048 -0.3088  0.1376
53865W        W96881  23.702  32.453  24.522 -0.2639  0.2322 -0.1054
53866W        W96882   9.467  31.947  19.817  0.0671 -0.0464  0.1463
53867W        W96883   3.104   0.335  29.116 -0.0930 -0.2012  0.0721
53868W        W96884  11.322   8.863   5.588  0.1788 -0.0422 -0.2308
53869W        W96885   7.834   1.671   2.517  0.1045  0.0878 -0.2863
53870W        W96886   9.524   3.905  14.234  0.2619  0.2596  0.0877
53871W        W96887   8.767   4.863  21.114  0.1278 -0.1358  0.1649
53872W        W96888  13.900   1.537  15.661  0.1187 -0.3254  0.1174
53873W        W96889  20.901   4.783  14.679 -0.0948  0.0077  0.2009
53874W        W96890   6.003  32.186  16.520 -0.0693  0.1693  0.2124
53875W        W96891   6.274  25.873  26.436 -0.1034 -0.1856 -0.1474
53876W        W96892  21.598  24.389   7.058  0.3150  0.1299 -0.2049
53877W        W96893  15.004   3.687  20.777 -0.0172  0.1553  0.2551
53878W        W96894   8.915   8.768   0.599 -0.4170 -0.1385  0.5015
53879W        W96895  27.174  18.128   8.574 -0.2754  0.1675  0.4201
53880W        W96896   5.891  33.094  24.938  0.1666  0.2831  0.1765
53881W        W96897  19.563   5.369  25.725 -0.0166  0.3787  0.2451
53882W        W96898  16.038  30.107   2.116 -0.1385  0.1121 -0.0412
53883W        W96899  14.702   2.882  14.411 -0.1038  0.0267 -0.2486
53884W        W96900  31.786   8.117  13.899 -0.0924  0.0063 -0.2524
53885W        W96901  15.619  19.721  12.122 -0.1608 -0.2355 -0.0355
53886W        W96902  17.131  22.373  19.481 -0.1504 -0.0218  0.2882
53887W        W96903  15.588  28.236  14.970  0.2837  0.0539  0.0709
53888W        W96904  32.403   7.815  16.791 -0.1249  0.2694  0.0367
53889W        W96905   0.129  17.118   1.588  0.1783  0.0277 -0.3337
53890W        W96906   6.633  12.510  20.317 -0.0542  0.2237  0.0217
53891W        W96907  13.567  28.658  25.535  0.1921 -0.1808  0.1272
53892W        W96908   0.415  29.699  19.018  0.3683  0.0265  0.3812
53893W        W96909  11.003  11.813  14.232  0.1857 -0.0489  0.7025
53894W        W96910  15.599  28.196  23.308 -0.4542 -0.1188 -0.2125
53895W        W96911  21.158   1.084  24.372 -0.0100 -0.0094 -0.0010
53896W        W96912   6.844  34.416  17.339 -0.0125  0.0268 -0.2713
53897W        W96913   5.419  23.291  16.971  0.2470 -0.2284 -0.0058
53898W        W96914  16.559   1.824  24.354 -0.0913 -0.0156  0.1104
53899W        W96915  31.665  17.612  15.256 -0.0868  0.1198 -0.3463
53900W        W96916   1.457  17.064  18.195 -0.0442 -0.2464  0.3267
53901W        W96917  21.138   3.766  15.008  0.1403  0.1526  0.1468
53902W        W96918  31.245   7.827  17.816  0.1136  0.0386  0.0931
53903W        W96919  32.194  27.001  18.821  0.0386 -0.3726  0.0759
53904W        W96920   9.196  12.224  17.317 -0.2614 -0.0935 -0.2691
53905W        W96921  24.790   9.716  22.082  0.1223 -0.1817  0.2130
53906W        W96922   6.517  10.058  26.505  0.1096  0.3461 -0.0977
53907W        W96923  11.478   4.151  22.402 -0.1847 -0.2371 -0.0365
53908W        W96924  18.945  20.558  27.391 -0.2944 -0.0517 -0.2311
53909W        W96925  15.716  23.307  13.330  0.2529  0.1916 -0.0847
53910W        W96926  18.866   2.067  22.569  0.0374 -0.0736 -0.1650
53911W        W96927  10.816  26.708  17.903 -0.5201  0.1939  0.1926
53912W        W96928  12.271   1.386  20.229  0.3678  0.4911  0.0777
53913W        W96929  23.367   0.592  18.319  0.0481 -0.0964 -0.2531
53914W        W96930   3.865  19.934  14.173 -0.1140 -0.2531 -0.0615
53915W        W96931  17.287   3.255   5.468  0.0852 -0.0908  0.1255
53916W        W96932  13.247  24.083  25.409  0.1568 -0.2231  0.2959
53917W        W96933   4.922   3.751  23.708 -0.2559  0.1311  0.0876
53918W        W96934  19.537  34.387  15.686 -0.4897 -0.2238 -0.3042
53919W        W96935  29.289  32.009  18.993 -0.0772  0.2385 -0.2777
53920W        W96936  23.216  32.309  20.292 -0.1728 -0.0193  0.1774
53921W        W96937  23.269  27.228  18.854 -0.0995  0.1740  0.5836
53922W        W96938  34.150   1.612  16.368  0.2023  0.0234  0.1089
53923W        W96939   8.510   2.435  19.943 -0.0220 -0.1554  0.0308
53924W        W96940   6.787  23.697  15.825 -0.2184 -0.0139 -0.3829
53925W        W96941  19.525  10.033  16.072 -0.0296  0.1145 -0.2145
53926W        W96942   8.402  30.774  15.240 -0.0424  0.1128  0.1090
53927W        W96943   8.081   8.793  18.282 -0.1969 -0.4235 -0.2520
53928W        W96944  20.295  33.865  25.428 -0.1043 -0.0638  0.1489
53929W        W96945   7.441   0.060  25.677  0.0174  0.1732 -0.2075
53930W        W96946  17.986  14.527  12.120  0.1625  0.0284 -0.1239
53931W        W96947  16.146   6.751  14.371 -0.0229  0.1921  0.0473
53932W        W96948  16.890  22.863  22.463 -0.0872 -0.1086  0.1407
53933W        W96949   3.113   3.522  21.157  0.0311  0.1244 -0.0841
53934W        W96950  22.184  11.259  20.404 -0.0776 -0.1522  0.1958
53935W        W96951   2.992  10.063  20.041  0.1984 -0.1392 -0.3766
53936W        W96952  13.705   3.380  26.733 -0.1949  0.1957 -0.0334
53937W        W96953  23.492   0.487  10.171 -0.0976  0.2918 -0.0215
53938W        W96954   5.430   2.525  16.516 -0.0889  0.1595  0.0169
53939W        W96955  29.057  16.611  23.806  0.3448  0.2819 -0.1935
53940W        W96956  31.153  15.470  15.843  0.0209  0.5399  0.0726
53941W        W96957   9.312   5.430  16.965  0.1832 -0.3375 -0.0064
53942W        W96958  20.656   5.578  14.428  0.3068 -0.3254  0.2101
53943W        W96959   7.198  15.822  14.494 -0.3215 -0.2396  0.0545
53944W        W96960  25.467  15.350  28.715  0.0217  0.0027  0.1339
53945W        W96961  10.082  13.645  13.194 -0.0270  0.2013 -0.2699
53946W        W96962  22.809   2.128  15.092  0.2383 -0.0290  0.1973
53947W        W96963  29.019  13.803  29.144 -0.2621  0.2477  0.0204
53948W        W96964  27.814  28.706   1.696  0.0204  0.0831  0.1347
53949W        W96965   9.329   3.930  15.976  0.2657  0.0272 -0.1686
53950W        W96966  22.951  28.095  26.446 -0.1960 -0.3028  0.0112
53951W        W96967  14.558   2.576  21.225  0.2053  0.0977  0.0747
53952W        W96968  30.756  23.885  26.939  0.4895 -0.0735 -0.1549
53953W        W96969  12.090  33.949  24.085  0.0732 -0.1816 -0.0688
53954W        W96970  14.309   6.864  21.916  0.0478 -0.3680 -0.0555
53955W        W96971   4.805   7.848  27.949 -0.1971  0.1982 -0.3413
53956W        W96972  28.847   5.934  22.257  0.0388 -0.2656  0.0497
53957W        W96973  19.102  28.664  17.435 -0.1046  0.0769  0.0412
53958W        W96974   8.251  32.115  18.225  0.1456  0.0366  0.1384
53959W        W96975  31.066  33.769  16.946 -0.2256 -0.2439  0.2693
53960W        W96976   7.248  17.165  14.487 -0.1140  0.1867 -0.1257
53961W        W96977   3.017  11.588  18.868  0.0932 -0.0360  0.0078
53962W        W96978   7.562   9.786   4.081  0.1618  0.1731  0.1745
53963W        W96979  29.390  22.993  16.419 -0.1285 -0.2887  0.0519
53964W        W96980  13.576   1.752  28.805  0.1164  0.2707  0.0483
53965W        W96981   5.187  26.083   1.915  0.1250 -0.3615 -0.0091
53966W        W96982  10.766   0.059  17.038  0.1194  0.1651  0.1414
53967W        W96983   5.417   6.407  14.658 -0.0023  0.0965 -0.2355
53968W        W96984  15.218   3.580  17.571 -0.0984 -0.2101 -0.0133
53969W        W96985  15.198   8.684  16.549  0.2395 -0.3025  0.3132
53970W        W96986  21.249  14.490   3.199  0.2007  0.2216  0.1802
53971W        W96987  17.779   0.390  21.939 -0.1851  0.0800  0.1563
53972W        W96988  29.023   1.883  27.854 -0.1263 -0.1262 -0.2336
53973W        W96989  21.519  10.781  23.294  0.1778  0.2400 -0.0943
53974W        W96990  21.958  34.168   1.906 -0.0596 -0.0544  0.2716
53975W        W96991  24.239   5.802  22.808  0.1316  0.0854  0.2269
53976W        W96992  10.111   9.471  21.512 -0.2073 -0.3241  0.2777
53977W        W96993  34.414  10.906  21.316 -0.1617 -0.0226  0.0766
53978W        W96994   7.646  29.483  16.895 -0.0112 -0.4929 -0.2107
53979W        W96995   4.892   5.686  17.045  0.1149 -0.0574  0.1385
53980W        W96996  22.344   4.844  15.446  0.2285 -0.0355  0.0356
53981W        W96997  26.090  14.714   2.880  0.1327 -0.2774 -0.2622
53982W        W96998  14.550  30.150   7.953 -0.0054 -0.0357 -0.0337
53983W        W96999  24.913  28.175  27.046 -0.0744 -0.1425  0.4553
53984W        W97000   0.860   7.174  16.214  0.2986  0.1748 -0.0931
53985W        W97001   6.249   4.116  19.419 -0.3211 -0.4208 -0.0207
53986W        W97002  32.150   6.412   2.437  0.1990 -0.0280  0.5463
53987W        W97003  12.600  31.458  18.909  0.3423 -0.1546 -0.0492
53988W        W97004  13.823   1.782  14.315  0.1719 -0.1087 -0.1269
53989W        W97005   9.497   9.826  20.891  0.0713  0.1591  0.5676
53990W        W97006  17.412  10.423  13.014 -0.0496 -0.2991 -0.3729
53991W        W97007  13.083  30.697   5.203  0.0376  0.0050 -0.0027
53992W        W97008  21.339  33.522  16.001  0.0196 -0.0537  0.1357
53993W        W97009  20.740   5.873  25.580  0.3205  0.4739 -0.3847
53994W        W97010   4.623  23.999  25.982 -0.1696  0.0297 -0.2111
53995W        W97011  10.288  25.306  14.757  0.3462  0.2861  0.3140
53996W        W97012   8.512   4.977  25.073 -0.2895  0.2110 -0.0040
53997W        W97013  26.172  13.491  17.961 -0.2741  0.2108  0.0918
53998W        W97014  10.985  34.696   7.533  0.1739  0.0906  0.2678
53999W        W97015   6.337  31.700  18.457  0.3441  0.0528 -0.0602
54000W        W97016  16.118  11.523   1.986  0.0350  0.0081  0.0445
54001W        W97017  28.204   1.104  15.958 -0.0953  0.0071 -0.0182
54002W        W97018  22.674  13.840  15.269  0.2697 -0.3195 -0.0197
54003W        W97019  19.241  29.037  20.659  0.2271 -0.0714 -0.2105
54004W        W97020  17.122  10.524  13.845 -0.0618 -0.3197 -0.2838
54005W        W97021  16.731   1.630  19.263 -0.0895  0.0435  0.3559
54006W        W97022  28.472  19.910   6.137  0.2637 -0.1237  0.1357
54007W        W97023  23.388  12.505   8.172 -0.3637  0.2459  0.0917
54008W        W97024   5.117   2.267  16.169 -0.0782  0.1107 -0.0598
54009W        W97025  12.792  15.132  24.329 -0.0076  0.2153  0.1975
54010W        W97026  30.951   3.146  28.853  0.1196  0.2104  0.0937
54011W        W97027   8.659  13.238   2.016 -0.1082 -0.0767  0.1472
54012W        W97028   6.543   0.143  14.291 -0.0331  0.1475 -0.0177
54013W        W97029  12.515  26.869  17.061 -0.1055  0.3298  0.5829
54014W        W97030  21.345  29.155  16.460 -0.0272  0.1486 -0.1269
54015W        W97031  11.637   4.590   1.006  0.0112  0.2943 -0.0074
54016W        W97032  33.469  14.252  22.132 -0.0158  0.1465 -0.0125
54017W        W97033   2.961   1.230   1.682  0.0923  0.0164 -0.2138
54018W        W97034  22.444  33.597  17.669 -0.1615  0.0376  0.0262
54019W        W97035  23.686  18.389  12.982  0.1042  0.0048  0.1210
54020W        W97036  18.638  11.020   0.184 -0.0867 -0.1816 -0.0299
54021W        W97037  19.353  31.010  27.731 -0.0209 -0.0245 -0.3055
54022W        W97038   6.520   6.047  17.428  0.2435  0.2303 -0.1149
54023W        W97039  19.204   9.867  26.628  0.2590 -0.1415 -0.1176
54024W        W97040  25.202  16.031  25.159 -0.1258  0.5010  0.2075
54025W        W97041  32.222  26.562   2.994 -0.0076 -0.0461  0.1600
54026W        W97042  30.891  11.604  24.320  0.2950 -0.0760  0.1875
54027W        W97043  31.764  15.287  26.620  0.1578  0.2424 -0.0260
54028W        W97044   6.541  12.332  23.755 -0.1796  0.0263  0.1410
54029W        W97045   4.007  17.710   3.304 -0.2380  0.1988  0.1385
54030W        W97046  14.971   3.491  16.078 -0.2298  0.1177  0.1112
54031W        W97047   9.735  30.019  22.366 -0.0805  0.0588 -0.2366
54032W        W97048   7.245   6.012  26.512 -0.0566 -0.2063 -0.0398
54033W        W97049  16.780   0.207  28.936 -0.0313  0.3078 -0.1174
54034W        W97050  12.302   5.302  28.315 -0.1127 -0.0109  0.3918
54035W        W97051  25.733   3.792  15.880  0.0142  0.0756 -0.0196
54036W        W97052  28.624  28.862   4.492 -0.1970  0.0913  0.1040
54037W        W97053  14.997  31.367  14.537 -0.1729  0.2054  0.1196
54038W        W97054  15.890   7.517  19.699  0.3160 -0.1254 -0.1467
54039W        W97055  33.706  13.368  15.419 -0.0873  0.1382 -0.1573
54040W        W97056  26.156   3.002  24.105  0.0128  0.0021  0.1838
54041W        W97057  25.511  20.663  18.405 -0.3351  0.0506 -0.2509
54042W        W97058  15.412   1.518  20.966  0.2682 -0.0429  0.1098
54043W        W97059   8.075  33.040   8.764 -0.0653  0.0434 -0.1397
54044W        W97060   5.624  19.154   5.838 -0.0053 -0.1189 -0.1534
54045W        W97061  20.604  10.819  15.640  0.0983 -0.3567 -0.1381
54046W        W97062  14.458  33.017  20.426 -0.0362 -0.1219  0.0996
54047W        W97063  11.517   6.478  26.370 -0.3060 -0.1202 -0.3841
54048W        W97064  14.192  26.925  23.814  0.0525 -0.0854 -0.2461
54049W        W97065  11.678   9.458  17.418 -0.2022  0.2299  0.0446
54050W        W97066  34.731   0.742  19.516  0.3115  0.1647 -0.1509
54051W        W97067  32.557   0.604  20.024  0.2085  0.0628  0.0662
54052W        W97068  15.104   4.239   3.202 -0.0493  0.2663 -0.0073
54053W        W97069  24.321  15.304  25.016  0.1938 -0.3649 -0.1594
54054W        W97070   4.589   4.009  14.746 -0.1129 -0.0770 -0.1785
54055W        W97071   0.134  28.034  21.995  0.2528  0.2714  0.1332
54056W        W97072   2.188  19.062  21.043 -0.2486  0.2674 -0.0202
54057W        W97073  13.288  30.640  18.704  0.0674 -0.1413  0.3499
54058W        W97074   9.595  10.834  20.762 -0.3069 -0.1111 -0.0041
54059W        W97075  28.958  31.786  26.282 -0.2621 -0.2967  0.2916
54060W        W97076   8.249  31.816  16.787 -0.1622  0.0455 -0.0538
54061W        W97077  29.389  11.324  27.383  0.0742 -0.0274  0.1525
54062W        W97078   6.926  19.370  12.616  0.1914 -0.1273 -0.1189
54063W        W97079  16.431  11.395  18.333  0.0132 -0.1133  0.0184
54064W        W97080  16.832  13.291  21.620 -0.0778  0.2486  0.1203
54065W        W97081   5.368  16.715   9.134 -0.0853 -0.2978  0.0928
54066W        W97082  12.184  28.317   0.861  0.0905 -0.1307 -0.2540
54067W        W97083  16.563   2.926  15.875 -0.0336 -0.1571  0.1448
54068W        W97084  26.246   7.257  10.129  0.1463  0.2619 -0.0895
54069W        W97085   4.613   0.225  16.628  0.0923  0.0837 -0.1517
54070W        W97086  13.724   7.013  13.947  0.1458 -0.2762  0.1560
54071W        W97087   6.647   9.996  17.530  0.0994 -0.2614 -0.3890
54072W        W97088  16.257  31.544  19.671 -0.0151  0.0166 -0.0789
54073W        W97089  24.058   6.316  18.619  0.1740 -0.1639 -0.0685
54074W        W97090   2.259  17.747   0.756  0.0173 -0.1892  0.0600
54075W        W97091  32.979  31.539  28.619  0.2607  0.0770  0.0876
54076W        W97092  13.319   7.933  25.649  0.2715 -0.1219 -0.0657
54077W        W97093   3.449  17.348  20.415  0.1382 -0.0310  0.0678
54078W        W97094  33.427  24.105  16.533  0.1326 -0.3738 -0.1596
54079W        W97095   4.394  31.257  24.887  0.1489  0.0669 -0.3158
54080W        W97096   2.553  13.875  18.522 -0.1484  0.0262 -0.1072
54081W        W97097  17.545  32.342  26.958 -0.1240  0.0675 -0.1530
54082W        W97098  32.192   4.302  15.728 -0.1843 -0.2042 -0.0550
54083W        W97099  26.568   2.752  10.694  0.2392  0.3438  0.1421
54084W        W97100  22.178  29.055   5.077  0.1098  0.0093 -0.1989
54085W        W97101  20.715  13.474   1.244  0.1800  0.1159  0.1858
54086W        W97102  14.007   9.436  18.445 -0.0643  0.1820 -0.0401
54087W        W97103  18.393  18.351  13.656  0.0858 -0.1834 -0.2068
54088W        W97104  14.024  13.775  23.210 -0.1545 -0.0803 -0.2259
54089W        W97105  29.039   0.028  19.700 -0.1253 -0.0866  0.0114
54090W        W97106  18.317  23.846  20.423 -0.3128  0.1673  0.3695
54091W        W97107  13.035  30.576  20.526  0.1913 -0.1235  0.3698
54092W        W97108  16.342   5.196  17.177  0.1008 -0.2132  0.0896
54093W        W97109   4.187  33.512  20.698 -0.1328 -0.1856 -0.0084
54094W        W97110   9.100   3.614  27.564  0.0161 -0.1731  0.5991
54095W        W97111  14.173   3.528  19.212  0.0576 -0.2714 -0.1607
54096W        W97112  15.884   1.749  20.912 -0.2749 -0.0198  0.0968
54097W        W97113  15.944   8.641  16.118 -0.0251  0.0085  0.0739
54098W        W97114  14.331  11.424  20.649 -0.2275  0.2227 -0.0577
54099W        W97115  11.295  30.537  14.219 -0.0417 -0.3874  0.2596
54100W        W97116  34.590   8.844   6.644  0.2286  0.2101 -0.0902
54101W        W97117   5.582   7.668   6.989 -0.0415 -0.1777  0.0400
54102W        W97118   7.656  28.457  14.684 -0.1587  0.0615  0.1431
54103W        W97119  23.312  18.841  15.862 -0.1001  0.0738  0.2150
54104W        W97120   4.958  24.675  14.602 -0.0451 -0.0969 -0.0674
54105W        W97121  18.296  11.971   9.226  0.0474 -0.1332  0.2689
54106W        W97122   4.605  16.396  21.237 -0.1938  0.3990 -0.1079
54107W        W97123  32.457  27.635   2.537  0.1798 -0.2111  0.0852
54108W        W97124  23.048  12.169   5.820 -0.0988 -0.1719  0.0550
54109W        W97125  18.270   7.915   3.259 -0.1976  0.0504  0.0295
54110W        W97126  15.725   9.538  13.941  0.1077  0.1447  0.0909
54111W        W97127  25.634   9.817  21.563  0.0446 -0.0464 -0.0153
54112W        W97128   7.716   1.283  15.190  0.0979  0.0983 -0.1135
54113W        W97129  21.202  20.281  24.281 -0.2449 -0.0379 -0.0529
54114W        W97130  14.483  12.273   5.103 -0.2471 -0.3114  0.4229
54115W        W97131  15.134  14.859  14.951  0.2701 -0.1003 -0.1176
54116W        W97132   5.739  31.350   3.867 -0.0369 -0.0192  0.2856
54117W        W97133  11.382  32.384  18.776 -0.2598 -0.1101 -0.2748
54118W        W97134   9.512   3.261   7.314  0.1766  0.0952  0.4155
54119W        W97135   1.496  13.454  23.733  0.3286 -0.2695  0.3807
54120W        W97136  11.990  13.659  14.699 -0.0168 -0.2068 -0.5534
54121W        W97137  21.550  27.362  14.491  0.1719  0.0635 -0.0582
54122W        W97138  14.105   7.336  15.206  0.0985 -0.0000  0.1361
54123W        W97139  12.431  27.478  19.477 -0.1444  0.1569  0.1201
54124W        W97140   9.445   0.570  15.881  0.1164 -0.1625 -0.1688
54125W        W97141  13.466   3.378  14.280  0.2771  0.0986  0.2548
54126W        W97142  18.310  17.308  14.386 -0.0199 -0.1154 -0.1065
54127W        W97143  18.115  31.288  27.023 -0.0726  0.1646 -0.0453
54128W        W97144   6.819  32.307  25.287 -0.2696 -0.0145  0.3254
54129W        W97145  19.413  15.915   6.971 -0.0543 -0.2967 -0.0080
54130W        W97146  11.020   5.880  27.043 -0.0806 -0.1098 -0.0814
54131W        W97147  18.491  18.864   5.076 -0.0868  0.1810 -0.0714
54132W        W97148  33.835  24.562   6.152  0.2666  0.1836 -0.3517
54133W        W97149  10.620  34.355  23.203  0.4117  0.0906 -0.0471
54134W        W97150  22.969   6.636  17.054  0.0149 -0.0253  0.3514
54135W        W97151  16.809  34.513  15.955 -0.3608  0.1503 -0.0495
54136W        W97152  19.174   7.943   1.120 -0.4943 -0.0473  0.1642
54137W        W97153  14.626   9.592   2.259  0.0262 -0.1008  0.0216
54138W        W97154  28.113   9.754  14.258 -0.1021  0.3107 -0.0159
54139W        W97155   6.501  32.370  25.904 -0.2187  0.1583  0.2675
54140W        W97156  12.906  23.527  14.433  0.0577  0.1456 -0.0677
54141W        W97157  32.402   9.669  14.993  0.0975  0.2202  0.1194
54142W        W97158  17.587  16.177  11.776  0.0372  0.1145  0.1705
54143W        W97159  15.381   7.287  25.812 -0.0591  0.2175  0.2428
54144W        W97160   8.291  26.555  13.456 -0.0584 -0.0902 -0.1898
54145W        W97161  17.320  30.027  27.010  0.3894 -0.1520 -0.0086
54146W        W97162  26.814  34.077  26.788  0.1808 -0.0718  0.0830
54147W        W97163  17.838  18.926  14.492 -0.3811  0.0514  0.0051
54148W        W97164  14.194   9.468  28.326  0.3541  0.1327 -0.0900
54149W        W97165  31.155  13.150  16.490  0.0708  0.0440  0.5340
54150W        W97166  19.203  32.885   0.926  0.4119 -0.0537 -0.1191
54151W        W97167  32.242  11.101  26.054 -0.2242 -0.1287  0.4618
54152W        W97168   7.544   6.162   1.299 -0.2273 -0.0419  0.1303
54153W        W97169   7.566   6.890   3.620 -0.1923 -0.0130 -0.0238
54154W        W97170  19.664  11.008  16.905 -0.3643  0.1986 -0.2093
54155W        W97171  23.996   1.537   8.703  0.1012 -0.2509  0.2730
54156W        W97172  31.282  16.745  10.379 -0.0902  0.0595 -0.0586
54157W        W97173   7.251  22.037   2.743 -0.0963 -0.2724  0.2857
54158W        W97174  13.164   7.147  21.264  0.2069 -0.2486 -0.3293
54159W        W97175  13.672   6.217   8.383  0.0917  0.0359  0.0865
54160W        W97176  10.431  17.352   1.521 -0.1873 -0.1874 -0.0227
54161W        W97177   9.529   0.672  20.218 -0.2822  0.2920  0.0058
54162W        W97178   7.838  11.529  21.120  0.2925 -0.0080 -0.0051
54163W        W97179  13.062  18.838  25.287  0.1279 -0.2951  0.0057
54164W        W97180  19.588  33.727  18.939  0.2662  0.1368  0.2197
54165W        W97181   8.351   8.539  25.437  0.2345 -0.1607 -0.0346
54166W        W97182   4.362  26.679   6.924 -0.1686  0.2253  0.1498
54167W        W97183  24.903  10.411  21.383 -0.0587  0.1932 -0.1811
54168W        W97184   9.704  32.130  26.124  0.0968  0.5333 -0.2212
54169W        W97185   6.936  12.271  15.778 -0.2865 -0.1587 -0.2952
54170W        W97186  10.430   3.452   0.259 -0.3073  0.0874 -0.2452
54171W        W97187   9.511   0.566  10.087  0.1169 -0.2686 -0.3122
54172W        W97188   9.136  33.765  14.360  0.0594  0.2962 -0.2461
54173W        W97189  16.607  14.240   3.116  0.3587  0.0648  0.0180
54174W        W97190  13.800  12.770  17.638  0.0286 -0.0812 -0.2218
54175W        W97191  22.954   8.937  14.784 -0.0047  0.0274  0.2259
54176W        W97192  15.380  34.620  20.278  0.0138 -0.0138 -0.5625
54177W        W97193   1.835  10.003  23.195 -0.3274  0.0271 -0.5746
54178W        W97194  17.723  25.464  26.382 -0.5172  0.2702  0.0173
54179W        W97195   4.851   5.852  20.941 -0.2114 -0.2379  0.1293
54180W        W97196  11.656   2.155  25.982 -0.1006  0.0841  0.0296
54181W        W97197   5.548   2.838  26.108 -0.1878 -0.0814  0.2485
54182W        W97198  10.922  10.212   3.123 -0.4261 -0.0949 -0.1361
54183W        W97199   4.814  22.778  28.811  0.0923 -0.1423 -0.0226
54184W        W97200  15.169   5.642  26.111 -0.1623  0.3199  0.1666
54185W        W97201   4.884  24.133   3.501  0.0445 -0.0168 -0.1939
54186W        W97202   6.968  29.999  23.193 -0.1583 -0.0816  0.2469
54187W        W97203  21.021   5.727  17.865 -0.1211 -0.3801  0.0595
54188W        W97204   9.355  15.821  19.129 -0.2484 -0.2601 -0.1040
54189W        W97205  14.708  14.423  25.063  0.2398 -0.1481  0.0945
54190W        W97206  21.194   4.493  16.808 -0.2911 -0.1207  0.2562
54191W        W97207  29.974   3.599  27.238 -0.1763  0.1480 -0.1277
54192W        W97208  17.308  15.803   2.670 -0.1076 -0.0656  0.1345
54193W        W97209  13.600   9.577  18.666 -0.2803  0.3847 -0.3954
54194W        W97210   6.639  33.675  14.613 -0.0376 -0.0083 -0.0166
54195W        W97211  30.832  25.312  28.964  0.0371  0.0951 -0.0258
54196W        W97212  27.757   2.399  26.302 -0.3098 -0.1211  0.2699
54197W        W97213   4.892  34.194  24.944  0.1291  0.4423  0.0971
54198W        W97214  14.121  29.385  22.820  0.3715  0.3240  0.2289
54199W        W97215   5.469  25.276   5.811 -0.1789  0.1096  0.0597
54200W        W97216  11.043   1.387  16.206 -0.0120  0.0509 -0.0735
54201W        W97217   5.790  19.701   5.845  0.0407 -0.0979 -0.1352
54202W        W97218   5.747  21.764  22.247  0.1088 -0.1687  0.1785
54203W        W97219  13.914  33.213  28.332  0.2233 -0.0440  0.1525
54204W        W97220   9.781   8.047   3.373 -0.0748 -0.0011  0.1147
54205W        W97221   8.206  19.158  25.737 -0.0604  0.2400 -0.1392
54206W        W97222  10.068   7.263  15.582 -0.1315  0.1603  0.1051
54207W        W97223   5.392  11.448  15.656 -0.1510 -0.1618 -0.1919
54208W        W97224  12.846   2.085  16.947 -0.0109  0.0758 -0.0038
54209W        W97225  15.350  25.370   3.782  0.1174 -0.1313 -0.1806
54210W        W97226   9.319   9.027   2.704 -0.4828 -0.0906 -0.0924
54211W        W97227  32.975  32.634   6.247 -0.2658  0.2577 -0.1559
54212W        W97228  15.503  32.561   0.163 -0.0635 -0.1321 -0.3288
54213W        W97229  12.224  10.963  17.034 -0.1057 -0.0400 -0.0764
54214W        W97230  10.026  23.340   3.101  0.3455 -0.0814 -0.0690
54215W        W97231   6.541  26.545  19.759  0.1544  0.1892  0.2596
54216W        W97232  34.314  29.200   8.120 -0.0153 -0.0402  0.2117
54217W        W97233   5.073  30.700  28.868 -0.1508 -0.2941  0.4918
54218W        W97234  17.761   3.317  21.625  0.0762 -0.1919 -0.0292
54219W        W97235  12.292  25.709  17.440  0.0756 -0.0303 -0.0120
54220W        W97236  13.414  18.980  15.018 -0.2527  0.0654  0.3186
54221W        W97237  13.525  13.437  12.558 -0.0461 -0.0975  0.0294
54222W        W97238  22.635  15.624  26.037  0.0863 -0.1745  0.2844
54223W        W97239  13.528   0.909  15.795  0.0936 -0.2155  0.2896
54224W        W97240  14.738  26.081  17.231  0.1239 -0.4059  0.0462
54225W        W97241   9.948  29.571  16.471  0.1309 -0.0876  0.2344
54226W        W97242  19.459   1.957  14.703  0.2000 -0.1641  0.1329
54227W        W97243  10.652   0.104   8.334  0.1961  0.0223 -0.1121
54228W        W97244  26.528   8.687   0.515  0.2411 -0.0461  0.1340
54229W        W97245   8.989  10.558  21.604  0.1685  0.0013 -0.1595
54230W        W97246  32.490   7.526  20.278 -0.2178  0.0354  0.1454
54231W        W97247  12.741  33.909  22.816 -0.0709  0.1328  0.1691
54232W        W97248   6.704   2.851   5.347  0.1079  0.2874 -0.0090
54233W        W97249  11.840   8.316  16.804 -0.0014  0.2451 -0.0472
54234W        W97250   8.607  13.684  22.080  0.0696 -0.0357  0.2024
54235W        W97251  14.272   3.333  21.811 -0.0213 -0.2237  0.0035
54236W        W97252  25.522  15.415  22.961 -0.1252  0.2521 -0.0234
54237W        W97253   4.329  10.106  16.955 -0.1011 -0.2829 -0.2499
54238W        W97254  13.954   0.440  28.901 -0.0350  0.0347  0.0847
54239W        W97255  10.143  10.832  18.113 -0.2931 -0.2258  0.0296
54240W        W97256  15.041  33.977   3.878 -0.2180  0.2122 -0.0635
54241W        W97257   3.055  20.762  21.273  0.0435  0.1474 -0.0885
54242W        W97258  33.372  31.595  21.847  0.1188  0.4397  0.0665
54243W        W97259   3.817  10.098  24.262  0.1339  0.5663 -0.1130
54244W        W97260  16.103   8.640  19.644  0.0312 -0.4682  0.0332
54245W        W97261  15.101  22.155  12.658 -0.1145 -0.0440  0.1017
54246W        W97262  10.580  26.130   0.651  0.2929  0.1014 -0.0242
54247W        W97263   4.559  10.769  18.605 -0.0326 -0.0221 -0.2965
54248W        W97264  17.439  33.670  23.258 -0.2467 -0.0646 -0.0079
54249W        W97265  20.911  12.634  20.446  0.0191 -0.2269  0.1680
54250W        W97266   5.047   1.725  22.628 -0.3036 -0.0254 -0.0123
54251W        W97267  30.959   1.842  24.406  0.1307 -0.1358  0.0406
54252W        W97268  18.302  24.658  23.619  0.0840  0.0255 -0.0369
54253W        W97269  33.106  30.720  25.847  0.0246 -0.0748 -0.0194
54254W        W97270  22.573  12.795   2.046  0.2045 -0.1128  0.3310
54255W        W97271   5.892  13.274  16.009  0.1125 -0.0761  0.1128
54256W        W97272   0.693   8.114  25.977 -0.1948  0.2545  0.1790
54257W        W97273  23.934   8.537  19.148  0.1515 -0.0667 -0.2008
54258W        W97274  16.334  33.469  16.005  0.0819 -0.0484  0.0013
54259W        W97275   8.936   6.532   2.237  0.1496 -0.0666  0.1418
54260W        W97276  12.037   8.742   1.778  0.1647 -0.0279  0.2334
54261W        W97277  14.223   3.934  28.910  0.1919 -0.1185  0.0023
54262W        W97278  12.336  18.032  13.428  0.0476 -0.0983 -0.1048
54263W        W97279   9.672  14.881  14.906  0.1884  0.0092  0.2923
54264W        W97280   2.925  29.465  17.108  0.1563  0.1973  0.1826
54265W        W97281   3.032  23.790  18.486  0.3801  0.1877 -0.2279
54266W        W97282  11.427  11.687  15.433 -0.1670 -0.0335  0.3388
54267W        W97283  31.664   8.473   8.430 -0.1081 -0.1205 -0.3875
54268W        W97284  14.406  12.250  16.757  0.1530 -0.1493 -0.0982
54269W        W97285  18.356   7.467  27.424 -0.1457 -0.0948  0.0929
54270W        W97286   5.298   7.821  28.779 -0.0669 -0.1713 -0.0597
54271W        W97287  12.880   7.197   8.101  0.3073 -0.1164  0.1413
54272W        W97288  11.504  31.392  25.355 -0.1276  0.2866  0.1254
54273W        W97289  34.567  13.858  10.403 -0.1237 -0.2607  0.2418
54274W        W97290   7.211  11.803   1.430  0.1168  0.2364  0.3890
54275W        W97291  14.091   1.204  27.735 -0.3055 -0.0314  0.4010
54276W        W97292  34.260  27.671   5.469  0.4611 -0.0110  0.2011
54277W        W97293   9.683   4.291  23.526  0.4133 -0.0743 -0.0396
54278W        W97294  24.429  33.671  26.934 -0.0841 -0.0867  0.0577
54279W        W97295  17.378  22.595  16.053 -0.0319  0.3412  0.2910
54280W        W97296  34.059  18.520   1.513 -0.0526 -0.0449  0.2027
54281W        W97297  10.964  12.980  21.502  0.3464  0.2104  0.2782
54282W        W97298  19.306  34.215  24.635  0.0235  0.0878  0.0190
54283W        W97299   2.716  10.990  17.024  0.3449  0.0221  0.0083
54284W        W97300  18.462  23.622  14.120  0.1474  0.4275  0.1425
54285W        W97301  16.203  26.091   5.634 -0.3563 -0.1226  0.1286
54286W        W97302  10.994  11.247  26.233  0.1144 -0.0411 -0.0659
54287W        W97303   2.933   2.809  23.709  0.0259  0.4513 -0.2487
54288W        W97304   5.735  12.572   4.705 -0.1976  0.0817  0.1930
54289W        W97305   1.998  34.472   5.094 -0.1248 -0.0694  0.0056
54290W        W97306  18.213  21.233  13.577  0.0502  0.4110 -0.1399
54291W        W97307  24.517  27.624   5.529  0.0899 -0.2206  0.1294
54292W        W97308   1.214  19.577   5.459 -0.1807 -0.3939 -0.0688
54293W        W97309  24.566  26.318  18.392 -0.1226  0.1643 -0.1236
54294W        W97310  28.109  11.665   3.431 -0.0870 -0.0643 -0.1903
54295W        W97311   1.521  24.852   2.155  0.0970 -0.1829  0.1673
54296W        W97312   9.202  16.173  14.862 -0.1988 -0.2772 -0.1606
54297W        W97313  13.798  33.484   6.361 -0.2209  0.0248  0.2172
54298W        W97314  16.631   7.325   8.956  0.0031  0.0615  0.0909
54299W        W97315  11.835  18.479  25.333  0.0562 -0.0831 -0.0725
54300W        W97316   5.419  13.420  15.794 -0.1376  0.1283  0.1580
54301W        W97317  22.208  32.767   1.549 -0.2966 -0.2246 -0.0732
54302W        W97318  22.520   8.052  22.173  0.3564 -0.2127  0.0550
54303W        W97319  25.923   8.014  28.498  0.0073  0.4222 -0.0285
54304W        W97320  20.581  22.089  21.341 -0.0454 -0.3660 -0.0302
54305W        W97321  32.017   8.991  25.001 -0.2350  0.3320 -0.1470
54306W        W97322   3.534   8.318   6.365  0.0411 -0.0733  0.1803
54307W        W97323  12.418   9.795   0.685 -0.0909 -0.1845  0.0155
54308W        W97324  26.889  27.555   9.530  0.1947 -0.3369  0.1739
54309W        W97325   6.382  11.026  21.997  0.1854 -0.1407  0.1762
54310W        W97326   8.134  19.674  27.367 -0.4106 -0.0140  0.1611
54311W        W97327   0.524  30.129   2.096  0.2088 -0.1067 -0.1247
54312W        W97328   5.822   6.897   0.284 -0.0992  0.0762  0.3798
54313W        W97329   5.181   4.259   5.462 -0.0124 -0.0823  0.0046
54314W        W97330   2.269  15.612  13.855  0.0496 -0.0841  0.0852
54315W        W97331  29.036  30.554  16.655 -0.2778  0.0790 -0.0652
54316W        W97332  25.811   9.856   3.190 -0.0598  0.2307 -0.2910
54317W        W97333  24.511  33.308  20.772 -0.0102  0.3437 -0.1718
54318W        W97334  18.474  23.987   1.593  0.3414  0.3174 -0.1677
54319W        W97335  11.903  21.043  18.226  0.1407 -0.0032 -0.0598
54320W        W97336  24.272  30.874   1.099 -0.3309  0.1779 -0.0526
54321W        W97337  15.753  33.586  26.767 -0.2680 -0.1379 -0.0879
54322W        W97338   8.881   4.398   0.134 -0.0004  0.2168  0.1566
54323W        W97339  25.922   0.581   0.395 -0.2324 -0.2110  0.4919
54324W        W97340  30.331  27.082  19.425 -0.0290  0.2700 -0.1502
54325W        W97341  30.329   4.193  27.287 -0.2020 -0.1540  0.0807
54326W        W97342   6.584  16.025  13.703  0.4966 -0.1737 -0.1001
54327W        W97343   4.417  25.626   7.224  0.0920 -0.1940  0.0450
54328W        W97344  24.205  32.491   5.219 -0.2665  0.0734 -0.0800
54329W        W97345   1.625  25.294   0.393 -0.0100  0.1005  0.0895
54330W        W97346   7.576   2.319  21.436 -0.4215  0.2209 -0.2765
54331W        W97347  11.583   6.460   0.201 -0.0432  0.2669  0.0060
54332W        W97348   4.650   4.100  21.350 -0.2196  0.1610  0.1834
54333W        W97349  10.381   1.031  17.010  0.2133  0.0956  0.2040
54334W        W97350  17.294   7.483  20.181 -0.0324  0.0403  0.0556
54335W        W97351   3.076   0.473  27.718  0.2471  0.0515  0.2483
54336W        W97352  15.655  11.275  22.071 -0.3046 -0.0304  0.0715
54337W        W97353  13.391  21.947  19.678 -0.1883 -0.1299 -0.0592
54338W        W97354  12.459  28.574  22.644 -0.0963  0.0983  0.2542
54339W        W97355  34.679  11.377  27.588  0.0464 -0.1277  0.1850
54340W        W97356   1.599   9.177  18.820  0.0624 -0.2370 -0.0629
54341W        W97357   8.411   8.764  28.457 -0.0404 -0.1151 -0.1190
54342W        W97358  13.064  31.626  18.658 -0.0593  0.0651  0.0351
54343W        W97359  13.536   9.686  21.303  0.0906  0.0711  0.1996
54344W        W97360  12.101   2.508   3.269  0.1942  0.2295 -0.0673
54345W        W97361  10.196  12.132  24.924  0.2963  0.3081 -0.1230
54346W        W97362  16.670  12.638  20.379 -0.0258  0.0319 -0.0223
54347W        W97363  18.742  34.680   7.589  0.2306 -0.1184 -0.2069
54348W        W97364   4.758  33.997  21.026 -0.3017  0.1407  0.3563
54349W        W97365   9.380   3.891  21.226  0.1411 -0.0645  0.3741
54350W        W97366   0.353  26.646   0.090  0.0309 -0.2060  0.0047
54351W        W97367   2.926   9.377  23.814 -0.1005  0.2431  0.2546
54352W        W97368  25.941  11.350   3.231  0.1693 -0.2281 -0.0776
54353W        W97369  20.655   7.589   3.727 -0.1807  0.3247  0.0666
54354W        W97370  22.085   6.272   8.424  0.1286 -0.2168 -0.3246
54355W        W97371   4.829  12.938   4.288 -0.1819  0.3747  0.0024
54356W        W97372  20.881  22.152  19.756 -0.1514 -0.0800 -0.0385
54357W        W97373   5.760  22.734  14.699  0.2088  0.2010  0.2142
54358W        W97374  24.587  26.734  23.535 -0.0944 -0.0292 -0.2781
54359W        W97375   5.570  10.623  20.518  0.1103 -0.0244 -0.0184
54360W        W97376   3.040   6.051  15.356 -0.0241 -0.0695  0.1727
54361W        W97377  34.217   8.279  19.333 -0.0980  0.2718 -0.2778
54362W        W97378  25.180  10.383  15.235 -0.0876  0.2414  0.0937
54363W        W97379   4.098   3.853  20.306  0.2159 -0.0736  0.2789
54364W        W97380   5.551  10.432  18.933 -0.2146 -0.1962 -0.2613
54365W        W97381  12.701   9.364   7.343  0.0184 -0.0373 -0.2339
54366W        W97382   3.218   0.092   2.695  0.1722 -0.0157 -0.2855
54367W        W97383  21.692  27.890   3.036  0.1236 -0.1246 -0.0040
54368W        W97384  17.492   5.801  23.116  0.0068 -0.1256 -0.0287
54369W        W97385  19.349  31.211   1.535 -0.0633  0.1132  0.0588
54370W        W97386   2.352  11.361  15.309  0.3730  0.2540  0.0872
54371W        W97387  16.901   2.618  28.614  0.4137  0.0273  0.3031
54372W        W97388   5.897   8.146  25.088  0.1627  0.0447 -0.2946
54373W        W97389  21.124  34.059  25.492  0.0149  0.1572  0.2362
54374W        W97390   1.907  24.781   3.206 -0.0867 -0.3248  0.4809
54375W        W97391   4.233  24.668   0.361  0.0566  0.0456 -0.0443
54376W        W97392   4.649   9.107   2.923  0.0348 -0.3173  0.0909
54377W        W97393   8.414  10.978  15.866  0.1919 -0.3882  0.0212
54378W        W97394  12.080   5.944  20.187 -0.0070  0.0643 -0.2845
54379W        W97395  28.503  34.015  17.552  0.1157  0.1288  0.0415
54380W        W97396  19.002  29.820  24.459 -0.2629 -0.1043  0.0073
54381W        W97397   0.066   0.431  24.141  0.1911 -0.0927  0.0709
54382W        W97398  32.315  34.615  24.978  0.1039 -0.2238  0.1353
54383W        W97399   0.469   5.381  17.926  0.2947  0.0900  0.1823
54384W        W97400  20.792   3.584  23.307  0.1488 -0.0904  0.1610
54385W        W97401   9.378  19.256   3.900 -0.4196 -0.0281  0.1611
54386W        W97402  29.711  13.451  24.487  0.0532 -0.0208 -0.0161
54387W        W97403  19.354   2.072  14.210  0.2379 -0.0657  0.2109
54388W        W97404  21.206   1.018   2.365 -0.1723  0.1616 -0.1087
54389W        W97405  28.706   9.955  18.818 -0.1503 -0.0038  0.2277
54390W        W97406  15.415  31.633  25.346  0.0796 -0.1405  0.0031
54391W        W97407   3.635  18.877  23.462 -0.1769  0.2149 -0.0219
54392W        W97408  14.618  10.459  26.490 -0.0238 -0.1145 -0.2551
54393W        W97409  16.722  11.143  23.038 -0.0519  0.0425  0.1925
54394W        W97410   6.934   9.151  21.817  0.2792  0.3595  0.0814
54395W        W97411   1.180  25.316  25.410  0.2311  0.2864  0.1878
54396W        W97412  17.647   7.580  18.702  0.2276  0.2881  0.0361
54397W        W97413  20.558  14.507  13.273 -0.1999 -0.2029 -0.0007
54398W        W97414  11.109   7.907  24.106 -0.0574  0.0132 -0.3535
54399W        W97415  10.486  15.795  20.292  0.0501  0.1657 -0.4701
54400W        W97416   9.411  12.254  25.200 -0.4713 -0.1505  0.0545
54401W        W97417   0.154  13.592  22.875  0.2052  0.0195  0.2794
54402W        W97418   7.359  28.980  24.505  0.1035 -0.1751  0.1570
54403W        W97419  19.647  27.958  20.571 -0.2625 -0.4699 -0.2229
54404W        W97420  21.176  34.391  28.003 -0.1279  0.0858 -0.0127
54405W        W97421  15.372  18.736  12.971  0.1658  0.1150  0.0994
54406W        W97422  21.573  21.807   1.297  0.3658  0.1164  0.0809
54407W        W97423  23.457   9.453  18.357  0.1426 -0.1317 -0.0643
54408W        W97424  23.372  10.251  22.547  0.2112 -0.1336 -0.1460
54409W        W97425   8.113   9.894  16.951  0.1394  0.1411 -0.0070
54410W        W97426  19.353  24.690  27.713 -0.0011 -0.1056  0.1634
54411W        W97427  16.286  10.705  25.627 -0.1963 -0.1517 -0.1597
54412W        W97428   2.486  21.581  16.368  0.2878  0.1159  0.0262
54413W        W97429  12.872  34.354  18.965 -0.0400 -0.0649  0.4025
54414W        W97430  15.677  23.432   1.789  0.0765  0.1437  0.0475
54415W        W97431  14.736  25.818   0.937 -0.2306  0.1934  0.1360
54416W        W97432   9.893  29.549  16.950  0.0139  0.1084  0.0391
54417W        W97433  11.898   8.443   3.223  0.2950  0.2149 -0.2227
54418W        W97434   0.643   8.280   2.307  0.3021 -0.0845  0.1240
54419W        W97435  12.913  33.624  22.033 -0.0593  0.0619 -0.0380
54420W        W97436  13.135  12.501  27.040 -0.2545 -0.1743 -0.0519
54421W        W97437   6.021   2.043  16.865  0.2115  0.1036 -0.1982
54422W        W97438   9.137  12.118  20.664  0.2944 -0.0757  0.0375
54423W        W97439  24.545   4.897  23.805 -0.2693 -0.0580  0.1181
54424W        W97440   4.519   7.842  13.819  0.1950 -0.1698  0.2125
54425W        W97441  12.907  20.364  14.871  0.1621  0.0742 -0.1364
54426W        W97442   7.297   4.439  16.868  0.1421  0.2667  0.0441
54427W        W97443   4.312  10.144  23.715  0.1175 -0.0048 -0.1010
54428W        W97444   5.856   9.775  21.468 -0.0259 -0.1790  0.2909
54429W        W97445   5.368  32.405  17.041  0.1279  0.1357  0.1070
54430W        W97446  16.983  29.403  19.939 -0.0110  0.1085  0.1993
54431W        W97447  13.436   0.960  21.472  0.1822 -0.1885  0.2206
54432W        W97448  22.835  32.522   0.742  0.0841  0.2956 -0.2057
54433W        W97449  11.295  12.375  26.525  0.0076 -0.3135 -0.0021
54434W        W97450  33.102  13.398  14.268  0.1574  0.0445  0.0502
54435W        W97451   6.018  12.755  25.977  0.0687  0.1702  0.1605
54436W        W97452  22.343  13.119  29.312 -0.0213  0.1478  0.0371
54437W        W97453  25.772  13.502  20.429 -0.0863 -0.0115  0.3643
54438W        W97454   8.674  17.192  15.666  0.0836 -0.0154  0.2329
54439W        W97455  14.361  32.590  22.811 -0.2447 -0.2253  0.0395
54440W        W97456  13.782  15.317  19.632 -0.0259  0.0781  0.1705
54441W        W97457   8.335  33.099  22.399  0.0713 -0.0634  0.2692
54442W        W97458   0.006  23.523  25.798 -0.3925 -0.0695  0.0905
54443W        W97459   9.983   6.204   1.612 -0.0884  0.3018 -0.0265
54444W        W97460  11.643  10.726  27.742 -0.0551 -0.1094 -0.0015
54445W        W97461  11.543  18.721   2.587  0.2867  0.0555 -0.0983
54446W        W97462  18.360  19.098  16.672  0.0809 -0.4407 -0.1643
54447W        W97463  13.050  29.725  28.863  0.0444  0.1866  0.0194
54448W        W97464  19.903   5.331   2.113  0.0880 -0.0124  0.3229
54449W        W97465   9.731  22.572   2.619 -0.0210  0.0206  0.0550
54450W        W97466   3.494  16.512  24.776 -0.0905  0.2568 -0.0853
54451W        W97467  13.387   6.618  21.734  0.0113 -0.1973 -0.3384
54452W        W97468  19.575   3.039  15.707  0.0361 -0.0596 -0.0653
54453W        W97469  14.957  15.910  19.860 -0.5121 -0.1810  0.1259
54454W        W97470   4.668  27.961  16.997 -0.2230  0.1369  0.0183
54455W        W97471   8.199  25.856  14.528 -0.0233 -0.2483 -0.1295
54456W        W97472   8.220  12.565   7.089 -0.1468 -0.1419  0.1305
54457W        W97473  12.902  13.141  22.857 -0.1860 -0.3319  0.1526
54458W        W97474  25.736  31.661  21.897  0.2280 -0.1842  0.0142
54459W        W97475  16.535   5.816  25.263 -0.0334 -0.0793 -0.0676
54460W        W97476  24.230  24.652  24.059 -0.1777  0.1145 -0.1115
54461W        W97477   8.518  10.831  27.842  0.1171  0.2240 -0.1586
54462W        W97478   8.673   1.693  22.473  0.1495  0.0752  0.0051
54463W        W97479  33.366  21.532   1.444  0.0064  0.1369 -0.4732
54464W        W97480  19.124   5.108  28.249 -0.0254 -0.2487  0.2666
54465W        W97481   8.278   4.551   4.956  0.0377 -0.1586 -0.4350
54466W        W97482  25.453  29.149  21.993  0.1165  0.1239 -0.1016
54467W        W97483   3.174  17.021  28.578 -0.5352 -0.1974  0.2731
54468W        W97484  20.392   8.412  15.045 -0.1975 -0.1093  0.0922
54469W        W97485  17.511  34.538  14.814  0.0062 -0.0311 -0.2651
54470W        W97486  33.809  34.760  16.700 -0.0877  0.0591  0.0798
54471W        W97487   0.278  32.755  24.545 -0.0532  0.0861 -0.2330
54472W        W97488  15.020  17.755   5.009  0.0210 -0.0206  0.0223
54473W        W97489  14.172  30.322  28.265  0.3939 -0.3282  0.1233
54474W        W97490  16.732  16.984  13.848 -0.3497  0.4851 -0.3782
54475W        W97491  25.408  22.741  25.355 -0.0765 -0.2658  0.2745
54476W        W97492   6.117  22.183   3.321  0.1697 -0.0610 -0.0004
54477W        W97493  33.567  16.837   2.096 -0.0239 -0.2112  0.4090
54478W        W97494  16.351   0.858  22.337 -0.0694 -0.0493  0.2156
54479W        W97495   6.603  11.146  15.379 -0.0965  0.0881  0.1006
54480W        W97496   8.272   9.188   6.247  0.1044  0.1576  0.0071
54481W        W97497  15.884  16.334  13.813 -0.0284  0.0649 -0.4262
54482W        W97498   9.538  19.176  27.741 -0.3042  0.1661 -0.1361
54483W        W97499  33.624   7.420  14.923 -0.1702  0.0024  0.1873
54484W        W97500  30.125  16.047   1.326 -0.3274 -0.2435 -0.1819
54485W        W97501   9.356  16.584   4.731  0.0656  0.1580 -0.2413
54486W        W97502  14.740  14.132  14.124  0.3331  0.0424 -0.0657
54487W        W97503   8.633  26.630  22.080 -0.0430  0.0393  0.2602
54488W        W97504   9.691  13.833  26.189 -0.0954 -0.0116 -0.0099
54489W        W97505  19.401  16.921  21.353  0.1007  0.1131  0.0019
54490W        W97506  34.332   0.327  19.732 -0.1195 -0.0923  0.1071
54491W        W97507   2.786   2.749  24.172 -0.1930 -0.1563  0.1536
54492W        W97508  17.953  23.949   6.290  0.0845  0.2743  0.0078
54493W        W97509  32.794  21.615  27.221  0.0769 -0.1720  0.2949
54494W        W97510   9.800  34.054   1.642  0.0912 -0.1607  0.2280
54495W        W97511   4.969  32.989  20.801  0.2297 -0.2499 -0.1642
54496W        W97512  17.082   9.613   3.037  0.1668  0.1344  0.1089
54497W        W97513  23.900   9.417  21.945 -0.2260 -0.1251  0.1634
54498W        W97514  11.122  14.068  20.590 -0.2781 -0.0432 -0.3112
54499W        W97515   8.157  12.291   7.851 -0.0683 -0.1453  0.2131
54500W        W97516  16.656   9.578   8.811 -0.1043 -0.1650 -0.3156
54501W        W97517   9.740   8.072  15.249  0.0257  0.3702 -0.1262
54502W        W97518  19.468  30.825   2.781 -0.2387 -0.0349 -0.0372
54503W        W97519   3.609  16.178  21.733  0.0222  0.1173 -0.1651
54504W        W97520   9.980   5.987  25.578  0.0012 -0.1799  0.2214
54505W        W97521  17.294  34.707   7.387 -0.2647  0.0641 -0.0608
54506W        W97522  15.474   6.512   4.241  0.3841  0.2924 -0.2641
54507W        W97523  33.482  17.033  19.058 -0.0688 -0.1473 -0.3373
54508W        W97524  18.654  33.715   9.316 -0.0487  0.1337 -0.1109
54509W        W97525  18.243  29.191  23.480  0.1767 -0.0848  0.0595
54510W        W97526  20.751  23.748  27.530 -0.2281 -0.0115 -0.1348
54511W        W97527  17.180  14.074   1.454 -0.0961  0.0816 -0.0252
54512W        W97528   0.347  27.997  19.723  0.1610 -0.3564  0.0011
54513W        W97529  13.923   1.960  16.005 -0.2155  0.0885 -0.0611
54514W        W97530  24.653  22.962  23.052  0.2410  0.0109  0.2509
54515W        W97531  32.179   7.043  28.587 -0.2305  0.4251  0.6024
54516W        W97532  29.620   0.198  26.664  0.2186  0.0753  0.0877
54517W        W97533  11.673   0.923   0.275  0.0615 -0.1713 -0.0195
54518W        W97534  22.904  34.140  24.264 -0.2953 -0.2104 -0.0800
54519W        W97535   3.092   5.931  14.807  0.0660  0.0258  0.1402
54520W        W97536  14.471   1.099   2.785 -0.1599 -0.3538  0.0132
54521W        W97537  21.786  33.772   0.034  0.2002  0.1821  0.1315
54522W        W97538   1.068  12.543  15.329 -0.2208  0.1742  0.0635
54523W        W97539  21.352  17.908  14.755 -0.0481  0.3551 -0.0184
54524W        W97540   2.731  34.414   4.879  0.1338  0.0510  0.1543
54525W        W97541  22.679  31.356  28.265 -0.1357 -0.0289  0.1199
54526W        W97542  31.276   8.418   1.814 -0.1647 -0.1087 -0.0541
54527W        W97543  16.616   3.936   3.527 -0.3012  0.1795  0.0998
54528W        W97544   8.721  11.346  17.531  0.1019 -0.0321  0.0743
54529W        W97545   4.149   4.150  27.819  0.3883  0.0008  0.2456
54530W        W97546  15.595   6.287   5.410 -0.0679 -0.3311  0.0252
54531W        W97547  30.445   9.049  21.041  0.0992 -0.2063  0.1182
54532W        W97548  32.790   4.450  28.579 -0.3171  0.0400 -0.1680
54533W        W97549   8.911  19.759  26.601 -0.0992  0.0143  0.2122
54534W        W97550  13.899   2.894  14.911  0.3121  0.3042 -0.1881
54535W        W97551  26.166  25.820   1.349 -0.0255 -0.3454 -0.0560
54536W        W97552   1.407  11.636  28.590  0.2711 -0.1324 -0.0373
54537W        W97553  17.770  22.267  24.034  0.2593 -0.6875 -0.0730
54538W        W97554  15.751  28.358   3.234 -0.0167 -0.1421 -0.2406
54539W        W97555  14.837   4.996  26.806  0.2862  0.1766 -0.2740
54540W        W97556   7.829  17.978  20.667  0.3667 -0.1379  0.0361
54541W        W97557  12.728   3.577   2.328 -0.2954  0.0774 -0.0668
54542W        W97558  16.080   1.351  28.993 -0.1848  0.1917  0.1794
54543W        W97559   7.608  31.233  23.735 -0.0069  0.1653 -0.0007
54544W        W97560  12.800  19.428   2.424 -0.0362  0.5406 -0.2418
54545W        W97561  28.676  33.985  18.410  0.0945 -0.0610 -0.4183
54546W        W97562   5.577   6.463  26.095 -0.3468  0.2232  0.1211
54547W        W97563   4.160  27.290  21.158  0.2367 -0.0557 -0.0744
54548W        W97564  19.248  18.615   2.618  0.0320 -0.2015 -0.5117
54549W        W97565  25.022   9.714  19.863  0.0370  0.1729 -0.3161
54550W        W97566   5.389  16.295  24.511  0.1480  0.0319 -0.5022
54551W        W97567   1.382  30.811   9.510  0.0073 -0.1136 -0.1875
54552W        W97568   4.189  21.845   7.415 -0.0636 -0.0194 -0.0280
54553W        W97569   8.687   1.431  28.728  0.0027  0.2512  0.1872
54554W        W97570  17.702  33.087  18.233  0.2076 -0.1542  0.0258
54555W        W97571  28.169   2.128   7.934  0.0064 -0.2836 -0.0204
54556W        W97572  31.842  34.662   4.577 -0.1001 -0.0999  0.1579
54557W        W97573   5.675   8.003   7.882  0.0933 -0.1004 -0.1991
54558W        W97574  25.298  18.598   4.307 -0.0795  0.4971 -0.1738
54559W        W97575  30.272  27.252   7.451 -0.2161  0.1335  0.1129
54560W        W97576  32.658   0.406  28.364 -0.1215 -0.0481 -0.0432
54561W        W97577   4.777  19.684   6.094  0.2389 -0.2844 -0.1313
54562W        W97578  13.199  34.124  21.417  0.1942  0.1348 -0.1509
54563W        W97579   5.765   9.793  23.892 -0.5302 -0.2371 -0.1626
54564W        W97580  11.602  10.988   1.380 -0.1456  0.0089 -0.4159
54565W        W97581   4.980  14.091  17.629  0.2028 -0.0673  0.1670
54566W        W97582  29.847   6.754   0.223 -0.2527 -0.0773 -0.0991
54567W        W97583  25.658   3.710  27.555 -0.0964 -0.1686 -0.2984
54568W        W97584  17.367   7.280  22.254  0.1954  0.2582  0.0450
54569W        W97585  28.951  27.932  21.566 -0.2387 -0.0566  0.2581
54570W        W97586   9.161  31.877  17.789 -0.3184  0.1499  0.0285
54571W        W97587   6.362  21.085  25.015  0.0379  0.0722 -0.0863
54572W        W97588  15.934   4.414  29.277 -0.0660 -0.3004  0.0825
54573W        W97589  22.602   2.831   6.993  0.1940 -0.2087 -0.1784
54574W        W97590  24.628  17.560  14.360  0.0419  0.1580  0.0339
54575W        W97591  33.627  29.997   9.803 -0.0695  0.0140  0.0037
54576W        W97592   9.445   8.360  18.225 -0.1395  0.1594  0.2178
54577W        W97593  34.186  31.791   3.134 -0.0542  0.1400  0.1034
54578W        W97594  17.656  27.890  29.119 -0.0800  0.1951 -0.0307
54579W        W97595  19.951   3.017  10.545  0.0650 -0.1922 -0.0398
54580W        W97596  14.513  20.731   6.149 -0.0331  0.0068  0.3283
54581W        W97597   8.358   6.705  25.646  0.0765 -0.0919 -0.2475
54582W        W97598   7.438  18.127  24.182  0.3698 -0.1225  0.1008
54583W        W97599  14.563   1.155  24.354  0.0956 -0.0536 -0.0433
54584W        W97600  12.487   2.241   5.732 -0.0132 -0.0650 -0.1263
54585W        W97601  25.874  33.280  24.792  0.0383 -0.0793 -0.1017
54586W        W97602   0.317   4.621   8.585 -0.0291  0.0722  0.1988
54587W        W97603  15.640   7.835   0.901 -0.2733 -0.2132  0.1253
54588W        W97604  11.985  21.673  22.453 -0.0662 -0.0926  0.0906
54589W        W97605   9.533   4.489   1.987  0.0330  0.1585 -0.1261
54590W        W97606  14.284  17.927  24.014 -0.1319 -0.0847 -0.2336
54591W        W97607  26.288  27.515  28.262  0.2534  0.3685  0.0871
54592W        W97608  12.840  22.344   1.358  0.0998 -0.1723  0.3264
54593W        W97609  34.519  11.990  22.242 -0.1649 -0.0955  0.0692
54594W        W97610   6.601  29.179  16.540 -0.1575  0.1283  0.0011
54595W        W97611   3.668  16.948  28.138 -0.0353  0.1996  0.1189
54596W        W97612   5.008   3.656  23.149  0.2083 -0.1312  0.1288
54597W        W97613   4.268   9.333   9.458  0.0793  0.1686  0.3856
54598W        W97614   5.598   9.347   0.251 -0.2144  0.2133 -0.3009
54599W        W97615   7.245  30.100  19.290 -0.2212  0.2174  0.1358
54600W        W97616  15.707  31.687  20.072 -0.1242  0.0504  0.1346
54601W        W97617   3.439  17.987  16.364 -0.0428  0.0246 -0.0110
54602W        W97618  21.139  13.308   4.718 -0.0615 -0.2072  0.3279
54603W        W97619  12.092  33.197  26.649 -0.1067  0.2139 -0.1016
54604W        W97620  14.672   8.960  25.020  0.0566  0.0817 -0.3450
54605W        W97621  14.319  12.592   4.645  0.2550 -0.0583  0.0094
54606W        W97622   3.199   7.546  10.372  0.1324 -0.1542 -0.2197
54607W        W97623  24.233   1.701  18.433 -0.2386  0.2896 -0.3049
54608W        W97624  12.248   6.421  23.022  0.1067  0.1171  0.2042
54609W        W97625   2.186  25.739  28.095  0.2823  0.1022  0.3002
54610W        W97626   1.168   6.438   2.399 -0.0468  0.3800 -0.0119
54611W        W97627   8.637   6.573  27.931 -0.1236  0.1558 -0.1588
54612W        W97628  23.131   9.173   8.156  0.2448 -0.0692 -0.0615
54613W        W97629  22.682  31.949  16.242  0.0399 -0.0812  0.3478
54614W        W97630   6.470   2.180   7.251 -0.2225 -0.3271 -0.0551
54615W        W97631   3.858  29.432  26.264  0.1864 -0.3297  0.0184
54616W        W97632   2.997   2.007   3.900  0.0701  0.0234  0.1393
54617W        W97633  15.599  34.166  22.631  0.0646 -0.1418 -0.2743
54618W        W97634  13.561  33.233   6.053  0.2113  0.1956 -0.0799
54619W        W97635   9.567   1.683   1.465 -0.0732 -0.2682 -0.1337
54620W        W97636  14.065   7.849  13.905  0.3526 -0.3296 -0.0971
54621W        W97637  13.232  12.755  15.085 -0.1181  0.1257 -0.5185
54622W        W97638  33.336  29.486  26.465  0.0713  0.0572 -0.2913
54623W        W97639  13.693   4.867   9.363  0.0134 -0.3248 -0.1366
54624W        W97640  17.377   9.444  15.698 -0.1757 -0.0084 -0.1509
54625W        W97641  19.993   2.797  26.652  0.3180 -0.1290 -0.0758
54626W        W97642   7.249   9.633  15.933  0.2452 -0.0225  0.0249
54627W        W97643  11.068   2.077  17.599  0.1146  0.2854  0.2020
54628W        W97644  22.048  33.649   0.415 -0.0127  0.0367  0.0030
54629W        W97645   1.700  33.761  27.105 -0.0773 -0.0369  0.1140
54630W        W97646   9.901   3.254   7.035 -0.0084  0.1199 -0.0559
54631W        W97647  13.106  25.413   8.335 -0.0769  0.0749 -0.1351
54632W        W97648  11.007  10.773   2.856  0.0946 -0.0940 -0.3848
54633W        W97649   9.132   6.792  18.817  0.2614 -0.0901  0.3137
54634W        W97650  21.784  23.963   7.295  0.0804 -0.2860 -0.0285
54635W        W97651   0.994  29.725  13.790 -0.1142 -0.1403 -0.1259
54636W        W97652  20.137   1.646  18.703  0.2654  0.0581 -0.0046
54637W        W97653  13.370  22.955  13.352 -0.2230  0.2600  0.1750
54638W        W97654  17.717  11.000  26.088  0.4785  0.0054 -0.2519
54639W        W97655  12.828   4.157  16.175 -0.1393 -0.1704 -0.3089
54640W        W97656  16.832   9.356  15.556 -0.1700 -0.1114  0.0415
54641W        W97657   5.479  26.533  15.259  0.1438  0.0679  0.0767
54642W        W97658  13.051  16.355   1.865 -0.0804 -0.0967 -0.0845
54643W        W97659   4.580  34.533  23.965  0.0971 -0.0126 -0.0717
54644W        W97660  18.099  24.879  21.306  0.0177 -0.2324 -0.1244
54645W        W97661  11.991   1.672  22.349 -0.1724 -0.1450 -0.2270
54646W        W97662   8.231  19.746   0.886 -0.0919  0.1419  0.4101
54647W        W97663  14.221   3.427  25.497  0.0799 -0.2397 -0.2212
54648W        W97664  12.164  26.048  14.532 -0.2546 -0.2461  0.3198
54649W        W97665  10.711   0.617  27.303  0.0500 -0.0366  0.1689
54650W        W97666   7.173   7.781  20.249 -0.0995 -0.0220 -0.1930
54651W        W97667  29.330   4.722   7.793  0.2102 -0.2550  0.0192
54652W        W97668   6.307  21.275  17.737 -0.1053  0.0181 -0.1177
54653W        W97669   7.780  34.319  16.376 -0.0013 -0.3732 -0.0133
54654W        W97670  12.203   8.656  23.020 -0.1555  0.3510 -0.0506
54655W        W97671  23.481  14.828  18.421 -0.0182  0.1366 -0.1604
54656W        W97672   3.977  30.406  27.871 -0.2265  0.0010 -0.0249
54657W        W97673   1.848   1.441  19.359 -0.1805  0.1482  0.0689
54658W        W97674  28.809  32.613   8.690 -0.1900  0.0238  0.1153
54659W        W97675   5.083  24.135  17.449  0.1533  0.0935 -0.1279
54660W        W97676   6.146   2.517  25.175  0.1668  0.0760  0.2217
54661W        W97677  25.753   2.875  18.758  0.0165 -0.0008 -0.5658
54662W        W97678   7.530  34.505  22.598  0.0754 -0.1092 -0.0847
54663W        W97679  13.502  10.904   2.997  0.0508 -0.3365 -0.0862
54664W        W97680  15.124  28.584  27.633  0.1161  0.0132 -0.0323
54665W        W97681  24.823   8.886   3.687  0.0762  0.1172  0.0509
54666W        W97682   2.845   6.006  26.952  0.0789 -0.1675  0.0277
54667W        W97683  19.147  11.900  18.911 -0.1051 -0.0097  0.0914
54668W        W97684  12.399   2.225  28.197 -0.0517  0.4771  0.0151
54669W        W97685  16.419   2.437  28.179  0.0032  0.0972 -0.1031
54670W        W97686   3.877   4.747  23.941 -0.0228  0.2793 -0.0417
54671W        W97687  25.990  32.309  16.810  0.2311 -0.1085 -0.1911
54672W        W97688  13.734   9.984   8.679 -0.0495 -0.0084 -0.1361
54673W        W97689  18.189  17.745   4.428  0.0255 -0.1526  0.0739
54674W        W97690   9.686  26.649   8.549 -0.2629  0.4400 -0.0973
54675W        W97691  13.507  26.781  27.211 -0.0081  0.0342  0.1430
54676W        W97692   9.998   5.757   0.979  0.0696 -0.2184 -0.0587
54677W        W97693   0.426   4.961   3.714 -0.1303 -0.0168  0.0099
54678W        W97694  12.781   2.661  21.958 -0.0379 -0.1891  0.1313
54679W        W97695   6.130   1.379  14.292  0.2254  0.0333  0.1168
54680W        W97696  27.158   5.675  29.095  0.0734 -0.0176 -0.0791
54681W        W97697  17.238   6.045  26.046  0.0308  0.3319  0.1093
54682W        W97698  16.918  24.919  15.590  0.0456  0.1396  0.1987
54683W        W97699  13.358   4.102  24.074  0.0346  0.1147 -0.0300
54684W        W97700  33.921  11.825   0.381  0.1225 -0.0375 -0.0239
54685W        W97701  32.868  32.323   4.060  0.2750  0.1996 -0.0439
54686W        W97702  26.745  19.338  17.554 -0.1843  0.0818 -0.2689
54687W        W97703  10.785   1.786  24.666 -0.3410  0.1328 -0.0384
54688W        W97704  32.804  17.267  15.331 -0.2270  0.0065  0.3147
54689W        W97705  21.108   6.649   2.418 -0.2816  0.4715 -0.0143
54690W        W97706  21.910   9.021  19.572  0.0353 -0.1215 -0.0038
54691W        W97707  12.740  12.325  25.732 -0.0498 -0.1246 -0.2283
54692W        W97708  13.843  24.611  19.617  0.2399  0.2634 -0.0964
54693W        W97709   0.388  10.079  25.248 -0.1396 -0.0887  0.0576
54694W        W97710  31.126   7.555  22.405 -0.3030  0.0191 -0.0108
54695W        W97711  24.337  25.974  15.850 -0.4101 -0.2252 -0.1652
54696W        W97712  15.073   1.676   3.935 -0.2938  0.2344 -0.1538
54697W        W97713  32.182  31.869  10.226  0.0856 -0.0695 -0.1772
54698W        W97714   5.373  18.659  15.469  0.1613 -0.4227  0.1834
54699W        W97715   6.974   3.998  24.004 -0.1112  0.3081 -0.0878
54700W        W97716   8.270  33.992   2.147 -0.1062 -0.0419 -0.0604
54701W        W97717  25.971  24.044  26.361  0.0502 -0.0793  0.1205
54702W        W97718   6.454  10.043  21.589 -0.0856  0.0921  0.1851
54703W        W97719   6.666  34.403  20.327 -0.2562 -0.2184  0.0293
54704W        W97720  19.164   2.118  21.660 -0.0918  0.0426  0.4398
54705W        W97721  18.877  31.168   6.481  0.2117 -0.0924  0.1139
54706W        W97722  17.207  34.643  24.170  0.3883  0.1488  0.0096
54707W        W97723   4.611   0.990  15.115  0.0672 -0.0565  0.0806
54708W        W97724   9.113  33.977   6.864  0.0713 -0.0718  0.2908
54709W        W97725   6.505  10.194   4.868  0.3322 -0.2354  0.0226
54710W        W97726  32.764   2.329  24.061  0.1662 -0.0833  0.1447
54711W        W97727  20.820  11.635  29.243 -0.1701 -0.0859  0.3040
54712W        W97728  14.707  10.748  26.039  0.0952  0.0732 -0.2402
54713W        W97729   7.189   7.933   8.719 -0.1791 -0.0130  0.0961
54714W        W97730   8.708   9.653   7.160 -0.0686  0.1104 -0.0040
54715W        W97731  14.799   6.922  24.195 -0.0329 -0.0320  0.0060
54716W        W97732  11.636  26.248  14.643  0.2145 -0.3025 -0.2119
54717W        W97733   5.892  19.175  24.588  0.0823 -0.1878  0.0802
54718W        W97734   9.134   8.762  22.354  0.1142  0.0462  0.2013
54719W        W97735  17.427  21.355  16.580 -0.0494 -0.0242 -0.0561
54720W        W97736  15.211  31.965  22.891  0.0585  0.1178  0.0638
54721W        W97737  12.099  17.617  26.381 -0.0410  0.2396 -0.0464
54722W        W97738   4.311  21.998   0.919 -0.1473 -0.0765  0.0895
54723W        W97739  17.220   8.439   0.118  0.0191  0.0762 -0.2322
54724W        W97740   5.289  13.750   8.147 -0.2306  0.1965 -0.0733
54725W        W97741   1.892   4.881  24.859 -0.1141  0.4519 -0.4729
54726W        W97742  22.851   3.994  17.270 -0.0378  0.0887  0.1476
54727W        W97743  33.656  22.352  16.056  0.1621  0.2959 -0.0532
54728W        W97744   9.964   4.567  29.040 -0.0984  0.1671  0.1451
54729W        W97745   3.141  22.927  18.801  0.3325 -0.0945  0.2062
54730W        W97746  19.169   7.106   8.125 -0.2361  0.1745  0.0637
54731W        W97747   3.438   0.481  23.050 -0.0602 -0.2222  0.1886
54732W        W97748   7.775  16.678  20.043  0.1283 -0.0588  0.1012
54733W        W97749  15.049  30.941   9.487 -0.0485  0.1658 -0.1296
54734W        W97750  15.739  10.121  27.554  0.0983 -0.3691  0.2525
54735W        W97751  10.343  20.593  21.466 -0.0126  0.5394  0.0368
54736W        W97752  20.995  11.928  19.636 -0.1399  0.4002 -0.3064
54737W        W97753  24.238   1.584   0.504 -0.1728 -0.0188 -0.1816
54738W        W97754  14.876   3.352   0.262 -0.1856 -0.1591  0.0282
54739W        W97755  32.015  22.401   6.439  0.0361 -0.0838 -0.0225
54740W        W97756  16.090  20.358  13.879  0.2009  0.0997 -0.1520
54741W        W97757  14.922   4.304  16.151  0.2385  0.3002  0.0155
54742W        W97758   9.454  29.444  16.641  0.0379  0.0706 -0.1685
54743W        W97759   4.896  20.875  14.674  0.1876 -0.0411  0.1112
54744W        W97760  18.639  13.440  15.553 -0.1258  0.2639  0.0227
54745W        W97761  34.629   4.661  18.532  0.1475  0.0524  0.0298
54746W        W97762  31.404   8.609   6.408  0.0890  0.0546 -0.3154
54747W        W97763  24.505  13.516  15.668 -0.0521 -0.1151 -0.0034
54748W        W97764  14.108  19.612  22.355 -0.2617  0.0412 -0.3118
54749W        W97765  12.191  10.881   0.083 -0.2337  0.0130 -0.0526
54750W        W97766  12.383  13.748  20.471 -0.1278  0.3037 -0.0878
54751W        W97767  25.132  13.633   7.080  0.1261 -0.0434  0.1160
54752W        W97768  28.613  10.418   9.392 -0.1338 -0.1802 -0.0736
54753W        W97769  16.478  14.864  21.744  0.1887 -0.3251 -0.1373
54754W        W97770   3.919  14.864   4.279 -0.2058 -0.0233 -0.1721
54755W        W97771  14.422  17.496  13.336  0.3080  0.0986  0.3080
54756W        W97772  17.307  27.753  28.559 -0.2891 -0.4751 -0.2874
54757W        W97773   2.771   4.577  21.200  0.1354  0.0454 -0.0155
54758W        W97774  16.477   2.995   1.678 -0.0128 -0.0069 -0.0018
54759W        W97775  30.923   6.962  21.536  0.2058  0.0050 -0.0524
54760W        W97776   4.864   8.598  26.746 -0.0622 -0.0308  0.4631
54761W        W97777   8.700   1.529  29.250  0.4662 -0.0587 -0.1726
54762W        W97778  17.663  16.441  14.522  0.0626  0.0106 -0.1967
54763W        W97779   2.343  11.618  14.106 -0.0531  0.3316 -0.1606
54764W        W97780  34.168  33.646   8.565 -0.0268  0.1080 -0.0089
54765W        W97781  11.283  30.025  27.777 -0.0401 -0.0529 -0.0666
54766W        W97782   8.895  23.264   1.144 -0.2055 -0.0008  0.2059
54767W        W97783   6.655   3.671  27.790  0.2013  0.0656 -0.1339
54768W        W97784  21.736  23.796   5.611 -0.0699 -0.0176 -0.0931
54769W        W97785  29.716  11.218  24.513  0.0293  0.1047 -0.2385
54770W        W97786   4.348   4.879  26.751  0.1942 -0.1035 -0.2683
54771W        W97787  15.267  15.993  21.631 -0.0912  0.0476  0.0345
54772W        W97788  15.324   9.078  26.203 -0.1619 -0.0488  0.2646
54773W        W97789  17.307  13.322  15.885 -0.2007  0.2818 -0.1808
54774W        W97790  18.679  11.030   2.187 -0.2630 -0.0495 -0.1756
54775W        W97791  30.776  16.577   0.102 -0.1601  0.2344 -0.3118
54776W        W97792  19.119   7.185  25.467 -0.2266  0.0794 -0.3218
54777W        W97793  30.199   9.461  25.918 -0.0509 -0.3658  0.0883
54778W        W97794  18.826   8.710  23.676  0.1011  0.1033 -0.1478
54779W        W97795  12.364  25.804   2.185 -0.1482  0.0559  0.1012
54780W        W97796  12.063   5.492  24.998  0.0322 -0.2489 -0.1911
54781W        W97797   0.865  34.225  26.046  0.4407  0.1360  0.2811
54782W        W97798  16.888  15.481  28.444 -0.3944  0.2165 -0.0737
54783W        W97799  22.144   6.208   1.718  0.0790 -0.0533  0.1211
54784W        W97800   7.658  20.201  27.438  0.2101  0.3596 -0.2533
54785W        W97801   7.451   4.698   8.894  0.2144  0.3524  0.0682
54786W        W97802   6.234   1.895  20.699  0.2354  0.0726  0.0794
54787W        W97803   7.262  32.786   6.451 -0.2019  0.0132 -0.1284
54788W        W97804  18.582  34.673   8.481  0.3255 -0.1019 -0.2996
54789W        W97805  31.198   6.964  25.400  0.0101  0.0347 -0.0910
54790W        W97806   2.647  19.764  16.537 -0.3041  0.0509  0.0453
54791W        W97807   2.842  12.334  19.751 -0.0016 -0.0627 -0.3314
54792W        W97808   6.195  32.918   8.051  0.1488 -0.0169  0.3530
54793W        W97809   7.446  10.201   5.304 -0.0090  0.0049 -0.4128
54794W        W97810  19.029   0.857   2.935  0.0507 -0.1196 -0.0607
54795W        W97811  15.868  28.625  14.254 -0.0108  0.2647 -0.4136
54796W        W97812  10.055   6.948  25.833 -0.6522 -0.0864 -0.1641
54797W        W97813  16.029   5.994  26.531 -0.0993 -0.1028  0.3038
54798W        W97814  20.476   7.652   0.603 -0.0600  0.0936  0.1503
54799W        W97815  14.355  33.625  17.771  0.2647 -0.0496 -0.1531
54800W        W97816   3.870   2.198  20.736 -0.3860 -0.0298  0.0407
54801W        W97817  11.274   6.464   8.634  0.1289  0.1813 -0.1329
54802W        W97818  18.364   5.262   8.768 -0.1328 -0.0087 -0.1463
54803W        W97819  14.622  32.853  27.214 -0.0286  0.1054  0.2202
54804W        W97820  16.430  29.457   6.523 -0.0044  0.1348  0.0388
54805W        W97821  19.620   6.326   5.817  0.0373 -0.1891  0.0378
54806W        W97822   4.571   1.971   0.754  0.1075  0.1823  0.1216
54807W        W97823  19.511  28.214  23.800 -0.3004 -0.1389 -0.0226
54808W        W97824   7.776  22.884   9.219  0.0290 -0.0329  0.2734
54809W        W97825  11.550  21.417   2.901  0.2335  0.0583 -0.3220
54810W        W97826  11.955   7.501  14.013  0.2852 -0.0365 -0.0776
54811W        W97827  26.004  11.692   0.836 -0.0755 -0.2349  0.1713
54812W        W97828  10.058   4.182  19.694 -0.1104  0.5139  0.0585
54813W        W97829  18.735  32.376  10.071  0.0273  0.0705 -0.1368
54814W        W97830  19.994  20.855  27.199 -0.1122  0.2758  0.0977
54815W        W97831  19.824   9.542   1.889  0.1202 -0.0173  0.1847
54816W        W97832  33.242  22.036   2.767  0.2915 -0.2060 -0.1344
54817W        W97833   0.417  31.799  28.011  0.2758  0.0948  0.0289
54818W        W97834  18.963   2.820  14.284  0.2835 -0.0244  0.0239
54819W        W97835  23.238  25.341  27.502 -0.1240  0.1894  0.0721
54820W        W97836  14.324  31.118   6.271 -0.1018 -0.2396  0.0702
54821W        W97837  17.730  33.231  15.992 -0.2608 -0.1596  0.0142
54822W        W97838  15.441  18.436  25.099  0.2374 -0.1402  0.0491
54823W        W97839   8.293  29.375  17.662  0.1436  0.1397  0.0580
54824W        W97840  21.852  24.971   4.472  0.0358  0.0459 -0.0315
54825W        W97841   1.964  19.454  28.437  0.0125 -0.1797  0.1452
54826W        W97842  11.388   7.394   2.744 -0.1814 -0.0001 -0.0443
54827W        W97843   0.017  11.421  19.643 -0.3674  0.1163 -0.1813
54828W        W97844  28.469  11.501  25.715 -0.0652 -0.2034 -0.0474
54829W        W97845  31.473  14.974  29.242  0.1255 -0.0483 -0.0882
54830W        W97846  11.171   4.612   7.610 -0.2007 -0.1245 -0.1270
54831W        W97847   8.920  14.767  12.825  0.0054  0.0167  0.0341
54832W        W97848  22.765  27.240  27.240  0.0434 -0.1649 -0.1335
54833W        W97849   0.629   3.467  28.802 -0.0273 -0.0310  0.0890
54834W        W97850  32.254   7.513  15.869 -0.0671 -0.1359 -0.1421
54835W        W97851   0.873   3.890  14.525  0.0915 -0.1564 -0.2999
54836W        W97852   2.112  15.373   3.297  0.0945 -0.3886  0.1661
54837W        W97853  13.630  13.152   5.124 -0.1707 -0.0066  0.1191
54838W        W97854  27.528   7.593   7.206  0.0325 -0.0464 -0.2390
54839W        W97855  13.578  15.231  23.208  0.1157 -0.2030  0.0126
54840W        W97856   9.185   9.925  25.559 -0.0099 -0.0466  0.1834
54841W        W97857  22.833   2.429  27.720 -0.1986  0.2035 -0.1217
54842W        W97858  13.745  28.774  22.299 -0.1074  0.5276 -0.0342
54843W        W97859  16.799   5.731  21.679 -0.4408  0.3445  0.0378
54844W        W97860  20.969  16.154   3.926 -0.0261 -0.0212 -0.0646
54845W        W97861  10.179   2.623  22.876 -0.0177  0.1111  0.0146
54846W        W97862   4.886  30.659  22.151  0.1896  0.2015  0.0801
54847W        W97863  30.035   0.969  26.291 -0.0561 -0.1291  0.1745
54848W        W97864  11.272  26.761  16.263  0.5274  0.1478 -0.0060
54849W        W97865  26.632  31.287  17.913  0.0697 -0.0324  0.2371
54850W        W97866   8.849  32.877  24.739 -0.1757 -0.1686 -0.0501
54851W        W97867  13.159  14.523  26.939  0.2383  0.1516  0.0399
54852W        W97868   6.890   4.270  27.695 -0.0719  0.1780 -0.1735
54853W        W97869  20.651  14.969   1.654  0.0149  0.0910 -0.1266
54854W        W97870  19.147  23.725  17.506 -0.0801  0.0139 -0.5086
54855W        W97871  13.383  31.918   7.869 -0.1284 -0.1374 -0.0460
54856W        W97872  15.745  29.083  18.911 -0.0396 -0.0810 -0.0944
54857W        W97873   4.192  29.311  10.101  0.0821  0.1842 -0.0940
54858W        W97874  11.387  13.304  26.978  0.1434 -0.0402 -0.2082
54859W        W97875   7.556  26.032  22.844 -0.2767 -0.1373 -0.2920
54860W        W97876  29.081  14.056   0.996 -0.1652  0.1283 -0.0043
54861W        W97877   7.600  33.137  25.288 -0.0048  0.2378  0.0356
54862W        W97878  18.565  24.626   3.343  0.1262  0.0389  0.1193
54863W        W97879   3.400   6.042  24.090  0.2409  0.0667  0.1042
54864W        W97880  25.118  34.272   7.467  0.0500 -0.0387 -0.0382
54865W        W97881  14.760   4.454   5.771 -0.3172  0.1398 -0.2125
54866W        W97882  21.789   6.941   7.002 -0.0424 -0.0881 -0.0603
54867W        W97883  12.937   1.040   9.293  0.0051 -0.0369 -0.0409
54868W        W97884  16.583  32.098  24.153  0.1437 -0.2174  0.2666
54869W        W97885   7.724  30.082  28.555  0.4736 -0.1590 -0.2707
54870W        W97886  22.375   3.916  17.106  0.0551  0.0990  0.2670
54871W        W97887   9.249   8.134  27.088  0.2260  0.1413 -0.1051
54872W        W97888  12.999  27.336   0.255  0.0376  0.1745  0.1619
54873W        W97889  23.050  24.744   1.991  0.0599 -0.2123 -0.1678
54874W        W97890  12.432   8.861  23.384  0.2588 -0.1588 -0.4043
54875W        W97891  33.953  29.296   6.353 -0.1954 -0.2220 -0.1625
54876W        W97892  24.554   5.644  27.314 -0.0531 -0.3101  0.0414
54877W        W97893  31.758  10.390  22.584  0.4268  0.1692 -0.1533
54878W        W97894   3.320  34.565   4.757  0.0716  0.1402 -0.0188
54879W        W97895   1.645   8.757  26.517  0.1394 -0.0592  0.0242
54880W        W97896  17.949  26.906  23.638 -0.0744  0.0419 -0.0477
54881W        W97897  30.566   2.961  28.555 -0.0923  0.0083  0.1015
54882W        W97898  10.391  32.730  15.887 -0.0621 -0.2523  0.0199
54883W        W97899   9.127  16.491  25.949 -0.1655  0.0374  0.0620
54884W        W97900   8.990  10.029  21.735  0.1717 -0.0120 -0.0084
54885W        W97901  15.911   7.763  26.399 -0.4543  0.9086  0.0328
54886W        W97902  30.819  34.701  17.250  0.1109  0.2713  0.1037
54887W        W97903  24.691   6.061  15.408 -0.2065 -0.5489  0.0762
54888W        W97904  27.078  25.281  16.180 -0.4341  0.1403  0.3615
54889W        W97905   4.208  27.919  22.100  0.0005 -0.2054 -0.0149
54890W        W97906   3.853  30.907   6.728 -0.0853  0.0436  0.0928
54891W        W97907  24.522  18.329  18.329 -0.0163  0.3308  0.1082
54892W        W97908  31.382  16.289  28.542 -0.1873 -0.0757  0.0338
54893W        W97909  14.432  14.167  24.655 -0.2102 -0.1252  0.0653
54894W        W97910  19.453  33.292   0.989  0.1392  0.7364 -0.0275
54895W        W97911  17.417  27.733   3.304  0.1476  0.0305 -0.1728
54896W        W97912   5.434  24.168   1.194 -0.1523  0.2807  0.2596
54897W        W97913  13.927  27.429   1.124 -0.1191 -0.1703  0.0468
54898W        W97914  14.403  16.319  27.681  0.1174 -0.2462  0.1335
54899W        W97915  13.720  33.595   4.566 -0.3310 -0.2118  0.2829
54900W        W97916  15.833  11.723   1.265  0.1307 -0.0605  0.1701
54901W        W97917  20.700   5.527  14.947 -0.1677 -0.0310  0.0187
54902W        W97918  19.594  24.940  26.030 -0.1092  0.0161 -0.3203
54903W        W97919  11.305  17.281   1.175  0.0627  0.0246 -0.0186
54904W        W97920  29.129   1.146   8.260  0.0467  0.0105 -0.0610
54905W        W97921  34.013  18.473  20.746 -0.1142 -0.1270  0.3996
54906W        W97922  23.536   8.276   9.283 -0.2178 -0.0610  0.0411
54907W        W97923   2.984   5.934  23.841  0.0899 -0.1393  0.1918
54908W        W97924  12.759   7.718  28.294  0.1749 -0.0912 -0.2440
54909W        W97925  23.788   5.684  28.572  0.1297 -0.1881  0.0453
54910W        W97926  20.809  18.685  20.344 -0.3283  0.0093 -0.2240
54911W        W97927  17.130   1.162  14.787 -0.2751 -0.1688  0.3694
54912W        W97928   7.832  31.521  16.781  0.0388 -0.1011 -0.0341
54913W        W97929   5.665  32.652   0.099 -0.3476 -0.1967  0.3275
54914W        W97930  31.101   7.698   6.690  0.3010  0.1820  0.0645
54915W        W97931  12.166  24.651   5.177 -0.0119  0.1248  0.3867
54916W        W97932   8.243   4.873  19.686  0.1247 -0.3087  0.0733
54917W        W97933   9.446  34.245   3.649  0.0096  0.3336  0.0556
54918W        W97934  10.114  33.225  25.134 -0.4699 -0.0923 -0.0459
54919W        W97935  15.264  27.419   3.162  0.0133  0.1913 -0.0770
54920W        W97936   3.848  31.576  22.102  0.3397 -0.2690 -0.4582
54921W        W97937  32.474  10.096   8.132  0.3166 -0.1684 -0.0401
54922W        W97938   8.491  27.692   5.709  0.0354  0.2319  0.1778
54923W        W97939   4.169  14.105   3.237 -0.0355 -0.1924  0.1905
54924W        W97940   7.997  33.887   8.310  0.1204 -0.4063 -0.5930
54925W        W97941  30.064  21.408  28.180 -0.0615 -0.0600 -0.2815
54926W        W97942   9.953   2.066   6.928 -0.4108  0.0270 -0.1293
54927W        W97943  23.424  23.204  10.174  0.1362 -0.0090 -0.1211
54928W        W97944  13.526   4.301   6.025 -0.0606  0.1557 -0.2624
54929W        W97945   3.810  24.239   8.305 -0.1689  0.1115  0.2333
54930W        W97946  34.258  18.452   9.751 -0.1833 -0.1481 -0.2526
54931W        W97947  34.660  26.295  25.839  0.3083  0.1221  0.0012
54932W        W97948  15.138  13.742   1.942 -0.0419  0.0725  0.1619
54933W        W97949   3.769   7.513   4.609  0.1117  0.1398  0.0667
54934W        W97950   3.481  10.010   3.480 -0.1189 -0.1076  0.3340
54935W        W97951  16.018  31.031  18.778  0.1470  0.2916 -0.0668
54936W        W97952   3.994   1.016   6.974  0.0515 -0.0293 -0.1484
54937W        W97953  13.792   2.832   5.734 -0.2136 -0.2219 -0.0204
54938W        W97954  19.228   0.791   8.988 -0.1336  0.2290  0.1228
54939W        W97955  23.235   6.541   1.519 -0.4396  0.0628  0.1803
54940W        W97956  25.356   8.114  21.454 -0.0069  0.1633 -0.2385
54941W        W97957  14.269  15.514  13.748 -0.1350 -0.2622  0.3213
54942W        W97958  19.740   8.860  21.570 -0.0277  0.2812  0.3353
54943W        W97959  26.716  27.870   4.438 -0.5295 -0.1932  0.1584
54944W        W97960  25.824  27.352  28.378  0.1377 -0.0199 -0.0057
54945W        W97961  25.796  10.311  27.815  0.0353  0.1455  0.0683
54946W        W97962  17.390   5.109   8.281 -0.2008  0.3432  0.0204
54947W        W97963  29.573  10.844  17.494 -0.2404 -0.1415 -0.0629
54948W        W97964  21.251   8.763  14.871 -0.2576  0.0086 -0.2240
54949W        W97965  22.879   8.932  29.023  0.0673  0.0709  0.2388
54950W        W97966  14.784   9.429  27.140 -0.2288 -0.0374  0.1576
54951W        W97967  32.906   2.655  15.813  0.0472  0.0242 -0.0318
54952W        W97968   1.823  32.392  17.005 -0.2182  0.0978  0.1976
54953W        W97969  17.740   6.953  23.836 -0.0188 -0.2189  0.2489
54954W        W97970   7.396   7.188  26.014 -0.3642 -0.3358  0.2477
54955W        W97971  11.489   5.032   5.114  0.2711 -0.2312  0.0987
54956W        W97972   8.688   8.076   6.594 -0.2653  0.1674 -0.2681
54957W        W97973  33.282  28.189   9.355 -0.1167 -0.0054 -0.0731
54958W        W97974   4.555  22.599   6.252  0.1850 -0.2118  0.1009
54959W        W97975  14.584   7.913   9.140 -0.1088  0.1357  0.2055
54960W        W97976  18.059  12.015  25.277  0.1156  0.3615  0.2260
54961W        W97977   4.809  31.805   7.038 -0.0365  0.0618  0.1186
54962W        W97978  10.130  29.764  23.484  0.1138  0.0760 -0.5680
54963W        W97979  13.965  33.738   0.136 -0.0801  0.0521 -0.3347
54964W        W97980  20.739  32.795  24.474 -0.2976 -0.0858 -0.4519
54965W        W97981  15.216   7.876   7.538 -0.2781 -0.2370  0.0473
54966W        W97982  16.314  20.048   8.191  0.1716  0.0341  0.0178
54967W        W97983  24.849  18.113  23.651 -0.1125  0.0380 -0.1761
54968W        W97984  28.683   6.958  23.748  0.1958 -0.2207 -0.1283
54969W        W97985  12.989   5.325  20.986 -0.0216 -0.0653 -0.1295
54970W        W97986  14.599   1.175   2.058  0.0725  0.2109  0.1361
54971W        W97987  22.824  22.882  14.866  0.1021  0.2387 -0.1464
54972W        W97988   4.140   1.400   1.158 -0.0854  0.2349  0.0846
54973W        W97989  11.511  20.158  20.272 -0.0077 -0.2028  0.0705
54974W        W97990  15.360  25.748  18.731 -0.2082  0.0567  0.2079
54975W        W97991   9.093  34.233  17.251 -0.0927 -0.1328  0.2118
54976W        W97992  14.869   8.291  14.906  0.0527 -0.1985 -0.0861
54977W        W97993  16.005  24.394  24.574 -0.0038  0.0158  0.0981
54978W        W97994  30.433  10.030   5.223  0.1925 -0.2063  0.2772
54979W        W97995  19.287   7.285  18.936 -0.1456 -0.0551  0.3468
54980W        W97996   8.023   9.862  15.716 -0.1201 -0.0367  0.2579
54981W        W97997  12.158   6.385  19.611  0.1893  0.0952  0.2038
54982W        W97998   7.209  17.916  13.925  0.1606  0.1674 -0.3121
54983W        W97999  32.976  15.384  17.978  0.1295 -0.0307 -0.3738
54984W        W98000   2.092   1.880  14.359 -0.1970 -0.0582  0.1636
54985W        W98001  33.913  19.567  15.072  0.0703 -0.2374  0.1422
54986W        W98002  11.096   4.830  24.047 -0.0252  0.0721  0.4549
54987W        W98003  12.658  15.517  13.230  0.0459 -0.4353  0.3447
54988W        W98004  32.295   3.888   0.933  0.2524 -0.2237  0.0238
54989W        W98005  17.770   4.503  17.800  0.1441 -0.1756 -0.0994
54990W        W98006   7.010   2.936  20.815  0.0331  0.0845 -0.2058
54991W        W98007  32.747   2.320  22.539  0.2705 -0.1599  0.1646
54992W        W98008   0.733   8.247   8.287  0.0210 -0.2164 -0.1697
54993W        W98009   0.899   1.436  25.792 -0.0344  0.2565 -0.3024
54994W        W98010   9.237  24.048  20.831 -0.3544  0.2228 -0.4130
54995W        W98011  12.915   9.472  16.512 -0.0358 -0.2104 -0.0202
54996W        W98012  10.687  20.460  19.255 -0.2795 -0.1488 -0.0702
54997W        W98013   6.969  13.295  25.300 -0.0647 -0.0129 -0.1299
54998W        W98014  11.466  15.433  29.107  0.0982 -0.0159 -0.0597
54999W        W98015  29.060   7.708  20.119 -0.2210 -0.0712  0.0062
55000W        W98016  14.079  11.210  14.261  0.2743 -0.2248  0.2080
55001W        W98017   4.217  32.341  15.160  0.0170 -0.2154  0.4447
55002W        W98018  16.107  32.553  20.885 -0.1522  0.0132 -0.0463
55003W        W98019   7.166  11.521  21.992 -0.1794  0.0332 -0.1468
55004W        W98020  19.972  10.235  18.243 -0.0371 -0.0708  0.1999
55005W        W98021  30.370  21.452  21.944 -0.1164 -0.0933 -0.0506
55006W        W98022  21.942   3.637  19.999 -0.0835  0.0178  0.2214
55007W        W98023  16.270  10.745  14.174 -0.1308 -0.2322  0.0357
55008W        W98024  14.412   1.387  14.933  0.0192  0.1869 -0.2277
55009W        W98025   3.792  33.228  17.614  0.0390 -0.0853  0.2238
55010W        W98026   5.818   1.226  17.182 -0.3187 -0.0173  0.0449
55011W        W98027  17.863  22.935  28.226 -0.0031 -0.1776 -0.3391
55012W        W98028  25.086  34.536  14.748 -0.1167 -0.1419 -0.1320
55013W        W98029  17.811  32.750  20.051  0.1740  0.2096  0.0664
55014W        W98030  22.723  19.227   0.864 -0.2387  0.2701 -0.1760
55015W        W98031   2.694   2.691   0.137 -0.0172 -0.0942  0.0973
55016W        W98032  16.002  20.036  15.653 -0.0459 -0.3275  0.3590
55017W        W98033   0.704  11.351  17.148  0.2609  0.1336 -0.0858
55018W        W98034  21.976  12.099  24.408 -0.1715  0.1138 -0.3765
55019W        W98035   6.234  31.767  26.004 -0.2249  0.5311 -0.0191
55020W        W98036   2.430  27.440  15.492  0.0992 -0.2946 -0.2435
55021W        W98037  21.944  14.140   6.714  0.0525 -0.0813 -0.2335
55022W        W98038   5.626  26.090  15.130 -0.0610 -0.1677 -0.0357
55023W        W98039  23.495  29.250  15.127  0.3195  0.1057  0.0819
55024W        W98040  13.865  27.953  23.768  0.0456 -0.2942 -0.2180
55025W        W98041   6.034   1.394  16.191 -0.1024  0.0658 -0.1129
55026W        W98042   8.178  12.415  20.131 -0.1024 -0.1640  0.2120
55027W        W98043  31.711  25.577  15.295  0.1105 -0.0143  0.0202
55028W        W98044  11.174  20.324  16.817 -0.3478  0.0199  0.1075
55029W        W98045  30.210  14.102   2.013  0.3314 -0.3186 -0.1479
55030W        W98046  11.192  13.244  21.143 -0.0904 -0.4806 -0.4578
55031W        W98047   1.434  30.674  24.098  0.2803 -0.0194 -0.3461
55032W        W98048  10.184   1.549  14.880  0.0625 -0.1588 -0.1270
55033W        W98049  21.061  31.085  16.508 -0.1414  0.3386 -0.0908
55034W        W98050   7.489  15.499   2.039  0.1491  0.1561 -0.2055
55035W        W98051  33.532   2.972  15.238 -0.3026 -0.0211 -0.2441
55036W        W98052  14.850  11.102  14.105 -0.3863  0.1497  0.0447
55037W        W98053  14.933   2.021  18.277 -0.2646  0.0754 -0.1567
55038W        W98054   8.182  21.072  12.651 -0.1515  0.0322 -0.0314
55039W        W98055   8.137  13.790  19.121 -0.0577  0.2635 -0.1684
55040W        W98056  13.444  25.426  13.288 -0.1570  0.0759  0.2784
55041W        W98057  12.975  34.605  14.946 -0.1108 -0.0181 -0.1394
55042W        W98058   4.123  14.838  21.580  0.2336  0.1324  0.2268
55043W        W98059   8.148  32.541  26.879  0.1755  0.0458  0.1860
55044W        W98060  32.862  19.149  17.992 -0.0502  0.3408 -0.0237
55045W        W98061  10.212  29.938  16.181  0.0997  0.0470  0.0834
55046W        W98062  16.497  26.874  14.331 -0.0328 -0.4577  0.1252
55047W        W98063  14.251   3.560  14.690  0.1535  0.1008 -0.0159
55048W        W98064  20.977  18.259  16.510  0.0874  0.2446 -0.1175
55049W        W98065   5.407  15.137  15.005  0.1600 -0.1118 -0.1986
55050W        W98066   9.313  18.225  12.937 -0.1597  0.3250 -0.1721
55051W        W98067  14.196  28.109  23.032  0.0205  0.0406 -0.0856
55052W        W98068   7.686   3.809   0.388  0.0092 -0.0446 -0.2259
55053W        W98069  17.991   6.827  15.244 -0.0265  0.0263  0.0093
55054W        W98070  21.430  12.980  15.287 -0.4095  0.3060 -0.5778
55055W        W98071   9.562   6.681  17.651  0.1131  0.3767 -0.0822
55056W        W98072   9.635   8.270  22.906  0.0175 -0.0162  0.0758
55057W        W98073  23.090  31.698  21.321  0.1117  0.2550 -0.0530
55058W        W98074   9.196  11.974   3.517 -0.3213  0.0715  0.4636
55059W        W98075   7.063  11.352  21.568  0.0968  0.0773 -0.1266
55060W        W98076   8.852   3.282  16.556 -0.4464  0.2569  0.2770
55061W        W98077   7.008  26.401  19.531  0.0072  0.3950  0.1131
55062W        W98078  12.114   0.039  20.640 -0.0335  0.0971  0.1321
55063W        W98079   7.622   2.141  24.013 -0.0735  0.2274  0.0777
55064W        W98080  20.484  15.219  14.605 -0.1019 -0.1574 -0.0551
55065W        W98081  16.579   6.043  17.341  0.1787 -0.1264  0.0184
55066W        W98082   2.422  16.700  26.429 -0.0832 -0.1221 -0.3008
55067W        W98083  12.662   8.981  20.452 -0.1095 -0.0590  0.0965
55068W        W98084   8.587  27.187  22.397 -0.1534  0.1235 -0.2581
55069W        W98085  23.824  15.692  14.311  0.0929 -0.0991  0.2826
55070W        W98086   4.532  20.352  17.513  0.0036 -0.0914 -0.2889
55071W        W98087   5.777  11.242  14.775 -0.0359 -0.3624 -0.0994
55072W        W98088   9.195   6.159  20.605 -0.1241  0.0538  0.0039
55073W        W98089  12.038  11.285  13.377  0.1438  0.2184  0.2196
55074W        W98090  18.761   9.155  16.246  0.0504  0.0400  0.0774
55075W        W98091  28.063   5.436   0.528 -0.2870  0.0735  0.1546
55076W        W98092  16.016   1.525  18.385 -0.0332  0.2611 -0.1031
55077W        W98093  16.972  30.390  21.108 -0.0832  0.4027 -0.2387
55078W        W98094  25.330   6.184   7.362  0.0901  0.2333  0.0247
55079W        W98095  22.492  17.672  18.142 -0.2846  0.3088 -0.1841
55080W        W98096  12.035   8.786  24.359  0.0867 -0.0195 -0.0410
55081W        W98097  10.247  15.732  14.615 -0.2253 -0.2615  0.3309
55082W        W98098   2.381  11.279  14.425  0.2043 -0.0189 -0.1237
55083W        W98099   9.305   6.338  24.855 -0.0668  0.1248  0.0833
55084W        W98100  31.448  23.819  19.590  0.1096 -0.1968  0.1009
55085W        W98101   2.130   4.113  26.254 -0.0581  0.4174  0.2783
55086W        W98102  11.613   4.295  24.802  0.2789 -0.1881 -0.0697
55087W        W98103   6.354  10.393  17.592  0.1871  0.0325 -0.0604
55088W        W98104  15.809  12.391  26.546 -0.2474  0.1914 -0.0609
55089W        W98105  17.402   1.625  17.479  0.2003 -0.0879  0.0487
55090W        W98106  12.202  11.107  20.147  0.1333  0.1069 -0.1617
55091W        W98107   9.100  13.725  17.562  0.0796 -0.0228 -0.1202
55092W        W98108   4.747  19.436  17.107 -0.0635 -0.3301 -0.1655
55093W        W98109   8.121  26.416  18.342 -0.4113  0.1739 -0.1429
55094W        W98110  18.219  34.641  17.887  0.1290 -0.0277 -0.0416
55095W        W98111   9.609   8.356  17.648  0.2740  0.0446  0.1188
55096W        W98112   8.526  13.646  20.574 -0.0716  0.2841  0.1432
55097W        W98113  22.203   2.622  22.382 -0.0011 -0.0404 -0.2229
55098W        W98114   8.872  29.066   3.324  0.2166 -0.0847  0.0878
55099W        W98115  15.832   6.576  23.900  0.2101  0.3107  0.0139
55100W        W98116  10.338   3.208  15.552  0.2405  0.0580  0.0259
55101W        W98117  14.525  20.533  14.295  0.0770 -0.3590  0.0422
55102W        W98118   1.202   3.150  23.786  0.1682 -0.0861 -0.4325
55103W        W98119   4.058  34.449  13.804  0.1415 -0.0109 -0.3788
55104W        W98120  11.537   8.080  18.020 -0.1735  0.3013  0.0371
55105W        W98121  22.539  10.719  17.777 -0.1132  0.1446 -0.0350
55106W        W98122  13.144  15.347   4.501  0.2856  0.0716  0.1625
55107W        W98123  34.704  22.027  25.552 -0.1560 -0.1406 -0.1003
55108W        W98124   5.158   6.098  16.387  0.0621  0.1628  0.3905
55109W        W98125   3.377  16.419  16.131  0.0558  0.2451 -0.2397
55110W        W98126   5.020   9.237  24.651 -0.0915 -0.2449  0.1313
55111W        W98127   2.815  12.877  16.468  0.0415 -0.0945  0.5973
55112W        W98128  15.481  16.473  22.390  0.3334 -0.1585 -0.2096
55113W        W98129  29.227  31.874  22.899  0.0936  0.1020 -0.1548
55114W        W98130  21.345  15.446  24.602 -0.0213 -0.1418 -0.1628
55115W        W98131   3.735  16.656  13.854  0.0603 -0.3787 -0.0410
55116W        W98132  19.518   8.825  17.324 -0.2485  0.0493 -0.0903
55117W        W98133  14.790  18.644  15.364 -0.0935  0.2654  0.0666
55118W        W98134   6.780  33.206  24.880 -0.3417  0.0081  0.0088
55119W        W98135  33.167  10.031  13.575 -0.0529 -0.1738  0.2176
55120W        W98136   0.900  17.154  21.140  0.0839 -0.0503 -0.2825
55121W        W98137   7.278   9.167  24.719  0.2516  0.1245  0.2547
55122W        W98138  13.024   8.336   3.761  0.0694  0.0387  0.1154
55123W        W98139  15.728   0.400  15.442  0.1694 -0.4813  0.1468
55124W        W98140  11.061   5.742  14.782  0.1261 -0.1048 -0.0379
55125W        W98141  31.755  27.994  27.243  0.1083  0.0608 -0.0475
55126W        W98142  30.361  12.071  20.179 -0.2533  0.1397 -0.0445
55127W        W98143  30.370   4.460  17.485  0.0355 -0.4233 -0.2106
55128W        W98144  16.382   8.378  18.804 -0.0631  0.0678  0.0188
55129W        W98145  27.035  16.627  15.007  0.0448 -0.0703 -0.0805
55130W        W98146   7.018  19.999  20.107  0.2338 -0.1434 -0.0700
55131W        W98147  11.675   6.507  16.829  0.2102 -0.2234  0.1483
55132W        W98148  28.564  22.080   3.474 -0.0497 -0.0102 -0.0338
55133W        W98149  33.251  29.603  27.163  0.1534 -0.1076  0.1190
55134W        W98150   0.782  14.026  17.446  0.2590 -0.2314 -0.0362
55135W        W98151  11.499   5.164  23.526 -0.6138 -0.2493 -0.2537
55136W        W98152   1.968  16.246  23.928 -0.1290 -0.0992  0.0043
55137W        W98153   4.459  21.075  19.182 -0.0609  0.0236 -0.1606
55138W        W98154  10.278  13.015   0.186  0.1323  0.0332 -0.1640
55139W        W98155  12.893   9.715  23.195  0.0322  0.1587 -0.0585
55140W        W98156   0.046  34.642  15.834 -0.1484  0.1790 -0.2352
55141W        W98157   8.859  19.550  12.377  0.2286 -0.3613  0.1197
55142W        W98158   4.125   3.539  25.147 -0.0466 -0.4135  0.2296
55143W        W98159   8.588  10.112  15.001  0.1317 -0.2561  0.1780
55144W        W98160  24.579  32.641  25.136  0.0093 -0.1397 -0.1117
55145W        W98161  32.857  33.389  17.823 -0.1065  0.1424 -0.4115
55146W        W98162  17.927  21.926  24.331 -0.1451  0.1123  0.0080
55147W        W98163  10.993  11.403  15.456 -0.1114 -0.1698 -0.1382
55148W        W98164  27.269   9.183  23.325 -0.0720  0.0511 -0.0584
55149W        W98165  30.258  21.925  16.376 -0.0667 -0.1154  0.1804
55150W        W98166  13.153   6.013  28.865  0.3161 -0.0820 -0.2507
55151W        W98167  13.086  13.518   2.861  0.3682 -0.0165  0.2283
55152W        W98168   8.561   0.442  21.384 -0.1570 -0.1446 -0.0716
55153W        W98169  12.974  21.791  17.042  0.1551  0.0725 -0.0001
55154W        W98170  32.008   2.560  23.991 -0.0454 -0.1922 -0.3638
55155W        W98171  10.403  25.186  17.973  0.0673  0.0276  0.2635
55156W        W98172  20.456  11.230  19.172  0.2325  0.0860 -0.1038
55157W        W98173  12.704   9.983  22.196  0.2514  0.0938 -0.3573
55158W        W98174  14.876   2.901  27.439 -0.0453 -0.0071  0.1888
55159W        W98175   7.979  15.481  12.878  0.2625  0.2944  0.1198
55160W        W98176   6.204   1.539  24.304  0.0889 -0.5045  0.0752
55161W        W98177  10.363  17.515  26.273  0.2940  0.1388 -0.2518
55162W        W98178   5.694   2.809   3.523 -0.0754 -0.0255  0.0395
55163W        W98179  14.024   3.077  17.273  0.0829 -0.4005 -0.3812
55164W        W98180   6.960  14.499  12.914 -0.0786 -0.0227  0.1506
55165W        W98181   1.187  17.981  21.980 -0.0181 -0.4266 -0.0184
55166W        W98182  22.676  33.732   0.256  0.1973 -0.1280  0.1034
55167W        W98183  34.220   5.071  24.516  0.2032 -0.2643 -0.1203
55168W        W98184  10.654  20.462  18.464 -0.1544  0.1038 -0.1087
55169W        W98185  25.962   7.598  23.688  0.4709  0.1624 -0.1046
55170W        W98186  12.537   3.436   3.140  0.1624  0.0065 -0.1166
55171W        W98187  20.302  29.779  20.208  0.2937 -0.0803  0.2450
55172W        W98188  18.925   3.780  19.703 -0.0064  0.0708 -0.0749
55173W        W98189  28.465   6.773   0.473  0.0121  0.2047 -0.0726
55174W        W98190  11.557  33.591  22.757  0.3493 -0.1809 -0.1795
55175W        W98191   6.353  31.839  27.319  0.1552 -0.0744  0.1546
55176W        W98192   5.237   6.078   6.586  0.1532 -0.0400 -0.0199
55177W        W98193   9.141  18.480  18.240 -0.0385  0.3331 -0.0950
55178W        W98194   2.857   7.530  18.499  0.1919  0.1832  0.1145
55179W        W98195  12.227   4.504  15.500  0.0449 -0.1756 -0.1742
55180W        W98196   2.978   1.865  15.843  0.1559 -0.1070 -0.2671
55181W        W98197  19.007  12.384  21.841  0.0128 -0.0053  0.1764
55182W        W98198   7.777  23.855  14.183  0.0649  0.0642 -0.2816
55183W        W98199   5.627  19.289  18.549  0.1679  0.1983 -0.0721
55184W        W98200  24.938   5.672  25.757  0.1669 -0.1091  0.1671
55185W        W98201   3.667   8.934  22.428 -0.1457  0.2473 -0.1990
55186W        W98202  22.820   4.195   2.674 -0.2357 -0.0855 -0.1397
55187W        W98203   5.569   5.496  25.542  0.0677 -0.1093  0.3075
55188W        W98204  22.451  12.660  27.434 -0.1291 -0.3077  0.4031
55189W        W98205  23.541  11.579  16.505 -0.3540 -0.0719 -0.1661
55190W        W98206  10.915   2.052  14.766 -0.0696  0.1473  0.0241
55191W        W98207  17.200  34.373  22.533 -0.0729 -0.0383  0.0191
55192W        W98208   7.498   1.519  17.320  0.0934 -0.0717 -0.0768
55193W        W98209  29.449   8.471  19.538 -0.3882  0.1257 -0.3532
55194W        W98210   5.640  31.475  22.939 -0.0089  0.2031 -0.3036
55195W        W98211  26.948   9.540  21.583 -0.1221 -0.0417  0.1964
55196W        W98212  13.687  23.802  16.241  0.0838 -0.1722  0.2373
55197W        W98213  17.724   0.508  24.736  0.1271  0.0853  0.2524
55198W        W98214  27.988  21.174   1.139  0.0597  0.1217 -0.0813
55199W        W98215  18.051   1.359  15.780  0.1988 -0.0888 -0.0156
55200W        W98216  24.254  28.870  17.781  0.1701 -0.1418  0.0765
55201W        W98217  15.591  14.194  15.444 -0.3228  0.2457 -0.0704
55202W        W98218  21.545   3.553  16.115  0.2341  0.0801 -0.0787
55203W        W98219  27.970  19.261  28.416  0.1542 -0.3410  0.3179
55204W        W98220   7.576   4.451  24.621  0.0621 -0.1244 -0.1486
55205W        W98221  21.743   1.360  19.604 -0.1522  0.1882  0.0194
55206W        W98222  32.710   2.357  20.292 -0.0376 -0.3679 -0.2114
55207W        W98223   7.034  30.856  18.085 -0.1500  0.0417 -0.3581
55208W        W98224  12.946  10.718  15.789  0.1529 -0.1446  0.1528
55209W        W98225  15.120  33.960  15.368  0.1631 -0.0982  0.0765
55210W        W98226  12.541  26.868   1.066  0.2643 -0.2612 -0.0208
55211W        W98227  21.431  12.598   4.072 -0.0007  0.3385 -0.0249
55212W        W98228   7.107   4.504  24.884 -0.1483  0.0556 -0.1079
55213W        W98229   3.079   3.287  20.448  0.0451 -0.0232 -0.0933
55214W        W98230   7.419  12.866  17.782  0.1282 -0.0839  0.0198
55215W        W98231  22.826  13.740   3.972  0.0495 -0.0186  0.3063
55216W        W98232  22.509  18.420  18.915  0.0959  0.0282 -0.1066
55217W        W98233  14.364   5.185  13.660  0.3738  0.1018 -0.0576
55218W        W98234  15.040  17.636  14.959  0.2223 -0.2211 -0.0482
55219W        W98235  15.488  29.674  25.342 -0.5022 -0.1643  0.2236
55220W        W98236  24.243   6.857  19.090  0.0497 -0.1064 -0.2129
55221W        W98237  12.304  32.796  16.760  0.2285  0.3999 -0.2028
55222W        W98238  23.469  12.278  17.899  0.0998  0.0893  0.2165
55223W        W98239  32.971   5.508  13.935 -0.1005  0.3044 -0.2460
55224W        W98240   8.959   8.517  23.227 -0.1756 -0.0214 -0.0302
55225W        W98241  29.145   3.239  20.956  0.3683 -0.2423  0.0488
55226W        W98242  14.153   2.452  20.198 -0.0664 -0.3663 -0.1392
55227W        W98243   4.124  12.059  19.030 -0.1170  0.0659  0.4735
55228W        W98244   5.538  13.408   5.632 -0.0107 -0.0791  0.1453
55229W        W98245  17.109  22.256  23.103 -0.1261 -0.3971 -0.1509
55230W        W98246  14.309   3.883   6.783 -0.3111  0.1718 -0.0006
55231W        W98247   2.322   2.627  17.178 -0.1574 -0.2458  0.0086
55232W        W98248  13.527   7.905  17.257  0.0549 -0.1033  0.1241
55233W        W98249   6.319   8.043  20.383 -0.1495  0.0554  0.0203
55234W        W98250   2.823  18.662  13.608  0.0189  0.0906  0.2183
55235W        W98251  12.340   3.171  14.583  0.1254  0.1312 -0.0151
55236W        W98252  29.772   6.285  28.204 -0.0048  0.1150  0.6709
55237W        W98253   5.638  11.094  14.338  0.2029 -0.0999  0.1761
55238W        W98254   1.134   7.567  14.745 -0.2247 -0.1444  0.0183
55239W        W98255  29.913   9.678  28.631 -0.0606  0.1124 -0.2207
55240W        W98256   3.027   8.917  15.947 -0.0063 -0.0534 -0.1901
55241W        W98257  19.535  15.591  12.309  0.0460  0.2667  0.1252
55242W        W98258  10.492  11.635  14.143 -0.1493  0.4658  0.2064
55243W        W98259  33.554  26.066  26.181 -0.1733  0.1599 -0.2136
55244W        W98260  17.348   9.010  13.883  0.1440  0.1033  0.0004
55245W        W98261  12.172  14.956  21.231 -0.1794 -0.0126 -0.0834
55246W        W98262   9.187  19.776  14.709 -0.0418 -0.0690  0.0257
55247W        W98263   9.441  29.205   3.226 -0.1941 -0.1399 -0.2635
55248W        W98264  16.245   5.371  22.014 -0.3711 -0.1379  0.2001
55249W        W98265  14.417  30.744  25.954  0.0050 -0.1361 -0.0875
55250W        W98266  13.273   7.148  21.736 -0.1520 -0.2751 -0.1572
55251W        W98267   7.289  17.502  16.348  0.2368  0.2677  0.1103
55252W        W98268   6.492  10.122  21.103  0.2496  0.0749  0.2217
55253W        W98269  10.380  10.091  15.516  0.2062  0.0553 -0.0566
55254W        W98270  23.562   4.239  21.816 -0.0198  0.0409 -0.0369
55255W        W98271   2.737  28.720  16.097 -0.0669  0.0068  0.0498
55256W        W98272  14.168   8.080  24.282  0.0439 -0.0452  0.0112
55257W        W98273  17.533  17.092  11.483  0.1401  0.1257 -0.1462
55258W        W98274  15.799   1.494  13.712  0.1655  0.1155 -0.1832
55259W        W98275  13.329  19.769  15.574  0.0561  0.2522  0.0886
55260W        W98276   8.522  17.888  25.009 -0.6182  0.0976 -0.0975
55261W        W98277  12.458   0.547  25.695  0.1250  0.3041  0.0521
55262W        W98278  32.869  17.337  20.303  0.1676  0.1469  0.0184
55263W        W98279  13.537  15.055   5.305 -0.1782  0.4603  0.2315
55264W        W98280  12.386  29.813  18.318  0.2805  0.0059  0.2272
55265W        W98281  10.967  34.199  21.392 -0.0469 -0.3077 -0.1757
55266W        W98282   4.003   9.955   6.042 -0.0088  0.4825  0.1834
55267W        W98283  15.174  32.274  16.642 -0.0351  0.0739  0.3936
55268W        W98284  24.846  26.361  15.820 -0.0878  0.0534 -0.1931
55269W        W98285  12.694   3.097  16.360 -0.1693  0.0326  0.4413
55270W        W98286  14.499  29.426  28.942 -0.0504  0.2406 -0.2217
55271W        W98287  12.346   3.970  20.887 -0.0529  0.0621  0.0045
55272W        W98288   6.506   5.080  19.336 -0.0887 -0.2997  0.0725
55273W        W98289   5.826   5.899  20.839  0.0699  0.0058 -0.0428
55274W        W98290  11.409  20.574  15.398 -0.2355  0.0669  0.0340
55275W        W98291  14.024   1.597  23.579 -0.0168 -0.1905  0.1508
55276W        W98292  14.219  25.206  20.617 -0.0670  0.1586 -0.0851
55277W        W98293  16.782  30.529  29.258 -0.0485  0.4178  0.1495
55278W        W98294  30.896  12.070  17.335 -0.0800 -0.0507  0.1223
55279W        W98295   2.530  28.857  24.398  0.0286 -0.1756  0.0701
55280W        W98296  13.371  17.085  12.931  0.2292  0.3009  0.0756
55281W        W98297   0.975   3.427  24.266  0.1695 -0.2193 -0.0088
55282W        W98298  34.184   1.251   1.989 -0.1715 -0.0066  0.2263
55283W        W98299   5.414  17.385  15.936 -0.1771 -0.0444 -0.2080
55284W        W98300   7.665   8.300  16.893  0.0615  0.2036  0.0489
55285W        W98301   8.369   8.306  22.048 -0.1050  0.2938 -0.1266
55286W        W98302  16.836   9.603  20.222  0.1928  0.0184 -0.0176
55287W        W98303  23.066   4.103  22.708 -0.3101  0.0180 -0.2343
55288W        W98304  14.514   5.032  14.827  0.1309  0.2269 -0.0402
55289W        W98305  18.748   9.629  19.985 -0.1270 -0.0355  0.0263
55290W        W98306   4.554   4.489  18.517  0.2417  0.0824  0.1266
55291W        W98307  17.686  16.387  27.785 -0.1877  0.2314  0.1574
55292W        W98308   4.671  21.932  15.705  0.1050 -0.2239  0.0985
55293W        W98309   3.784   5.764  18.298 -0.0445 -0.2212 -0.1112
55294W        W98310   4.774  19.586  27.553  0.4536  0.1622  0.1253
55295W        W98311   8.366  15.238  17.796 -0.1354  0.1685 -0.3108
55296W        W98312   9.425   5.658   0.197 -0.0965  0.0690  0.4986
55297W        W98313  15.280   0.781  17.545  0.0555  0.2322 -0.0999
55298W        W98314  24.463  30.337  20.832  0.0811  0.0091 -0.1724
55299W        W98315  11.403  32.550  16.860  0.0409  0.1913  0.1695
55300W        W98316   6.806  14.128  14.839  0.0636  0.1527  0.1638
55301W        W98317  19.703   8.837  17.925  0.0451  0.6623 -0.1850
55302W        W98318  11.295  28.253  19.847 -0.0268  0.2053  0.2468
55303W        W98319  32.479   4.933  15.905 -0.1074 -0.1621  0.2791
55304W        W98320   5.775  11.159  24.671  0.2142  0.1290 -0.0970
55305W        W98321   3.590  12.633  21.372 -0.0526 -0.3206  0.0507
55306W        W98322  29.305  32.296  15.908 -0.2423  0.1131  0.3032
55307W        W98323   2.054   6.371  18.545 -0.2300 -0.0679 -0.4427
55308W        W98324  25.880   9.775  15.032  0.0166  0.0871  0.2374
55309W        W98325  12.731   4.928  18.759 -0.0033 -0.2805 -0.0540
55310W        W98326  11.521   0.315  14.772 -0.0661 -0.1117  0.0097
55311W        W98327   4.656  29.954  18.501  0.1802 -0.1141  0.0363
55312W        W98328   6.201  24.281  26.184  0.0048 -0.0874  0.3474
55313W        W98329  18.005   0.126  23.940  0.1038  0.2032  0.1270
55314W        W98330   1.636   6.521   3.854  0.0461 -0.0289 -0.0224
55315W        W98331   4.078   4.924  17.870 -0.0140  0.2684 -0.2858
55316W        W98332  14.103   2.014  18.454 -0.1545 -0.0907  0.0078
55317W        W98333  18.530   9.950  22.554 -0.2069  0.0825 -0.0451
55318W        W98334   5.324   8.413  20.769 -0.0914 -0.3565 -0.1632
55319W        W98335   2.253   5.975  14.483  0.1555 -0.0619  0.0514
55320W        W98336  18.669   9.389  17.894 -0.0503  0.0077  0.1249
55321W        W98337  10.486  34.348  15.474  0.1456 -0.0793  0.3130
55322W        W98338  13.661  23.614  14.770 -0.0499  0.2961  0.0451
55323W        W98339   3.655   8.319  16.754 -0.0174  0.1757  0.2496
55324W        W98340  11.304  19.690  11.974 -0.0671 -0.1719 -0.1074
55325W        W98341  10.685  32.525   3.696 -0.1413  0.0000 -0.2754
55326W        W98342  17.952   9.504  21.619 -0.0166  0.2515  0.1610
55327W        W98343   3.659  10.799  23.647 -0.0692 -0.1078  0.1193
55328W        W98344  14.855  10.579  19.453 -0.0365 -0.0460  0.0120
55329W        W98345   6.522   2.991  17.148 -0.0130  0.1801 -0.1160
55330W        W98346  29.653  32.112  17.530  0.0473 -0.2744 -0.1026
55331W        W98347  25.650   7.018  25.692  0.2173  0.1767 -0.0358
55332W        W98348  17.843  31.413  24.355 -0.0087  0.1678 -0.0037
55333W        W98349   9.028  23.080  18.854 -0.2366  0.0669 -0.2461
55334W        W98350  16.993  33.186  16.176  0.1174  0.0690  0.0113
55335W        W98351   8.624   3.762  14.813 -0.0371  0.3731  0.1774
55336W        W98352   0.916  32.418  23.407 -0.2579 -0.0249 -0.1019
55337W        W98353  21.086  23.449  18.959  0.2319 -0.2226 -0.0736
55338W        W98354  14.709   9.670  15.404 -0.1932 -0.0326 -0.0427
55339W        W98355  19.865   4.327  17.560  0.2764 -0.3130  0.1839
55340W        W98356  33.779   3.502  17.744  0.0907  0.0997  0.5110
55341W        W98357  14.349  12.216  14.586 -0.2908 -0.0814  0.1887
55342W        W98358  10.372  10.012  14.257 -0.0378 -0.0677  0.2793
55343W        W98359  33.805   7.349  19.799 -0.1099 -0.0602  0.2401
55344W        W98360  21.555   4.023  25.471  0.3843  0.2290  0.2838
55345W        W98361  20.340  21.719  17.497  0.1342 -0.0545  0.2724
55346W        W98362  26.637  17.365  23.367  0.3303  0.1357  0.2527
55347W        W98363   5.080  13.648  25.871  0.1645  0.3316  0.0241
55348W        W98364   4.741  15.248   0.837 -0.1575  0.0403  0.0134
55349W        W98365   1.933  13.877  21.158  0.0624  0.1086 -0.5395
55350W        W98366   8.570   8.377  17.745  0.1440  0.0700 -0.2167
55351W        W98367  21.319  10.798  21.445 -0.1092  0.0994 -0.2675
55352W        W98368  23.572   1.515  15.832 -0.0110 -0.0655  0.1285
55353W        W98369  31.236  14.375  20.558  0.4068  0.1266  0.1044
55354W        W98370   6.324   6.826   9.109 -0.0532 -0.1182  0.0993
55355W        W98371  25.195   4.123  15.324  0.0069 -0.1030 -0.1357
55356W        W98372  29.609  30.297  19.606 -0.2461 -0.2063 -0.1575
55357W        W98373  16.621  18.415   2.341 -0.1161 -0.0159 -0.1992
55358W        W98374   7.077   3.250  14.496  0.2384  0.1422  0.1877
55359W        W98375  10.736  12.497  22.342  0.2129  0.1329  0.0454
55360W        W98376  12.975   4.976  15.492  0.0242  0.2955 -0.4515
55361W        W98377   9.446  10.347  22.291 -0.1133 -0.0292 -0.2390
55362W        W98378  14.569  25.134  19.283  0.0433 -0.0296 -0.2619
55363W        W98379   6.953   8.401  20.620 -0.1268  0.2387  0.4005
55364W        W98380  14.857   2.164  24.893  0.1491 -0.0099  0.2264
55365W        W98381  12.291  19.593   2.584  0.1323 -0.1093  0.1452
55366W        W98382  15.552   7.680   4.259 -0.2583 -0.4468  0.0616
55367W        W98383  32.045   5.367  20.299  0.1181 -0.0069  0.3066
55368W        W98384  12.956   5.715  15.617 -0.1671 -0.0015 -0.2597
55369W        W98385  32.182  12.871   5.049 -0.1943  0.1676  0.2782
55370W        W98386   6.003  26.470  20.520  0.2213 -0.0094  0.0641
55371W        W98387  12.224  22.546  27.903 -0.0944  0.1406  0.3341
55372W        W98388   9.299  13.378  15.349  0.0956 -0.2500 -0.0639
55373W        W98389   4.571   0.857   2.075 -0.0829 -0.0131 -0.2109
55374W        W98390  18.126  11.800  15.981 -0.1090 -0.1624  0.1074
55375W        W98391  19.409  22.713  18.389 -0.0984  0.0324  0.2548
55376W        W98392   3.499  19.484  19.376 -0.2684  0.0641 -0.2442
55377W        W98393  10.859  15.232  12.776 -0.1804  0.0400 -0.0711
55378W        W98394  16.341   0.841  22.848  0.2353 -0.2045 -0.2526
55379W        W98395  29.738  25.255  16.741 -0.2226 -0.1589  0.2711
55380W        W98396  11.705  18.257  12.705 -0.0750  0.0479 -0.2224
55381W        W98397  19.034   8.523  18.487  0.1214 -0.2971 -0.4863
55382W        W98398  34.588  12.176  16.688  0.2194 -0.1321  0.1112
55383W        W98399   0.613  15.042  18.916 -0.0168  0.3303  0.0228
55384W        W98400   3.579  31.746  14.728  0.2056  0.0048  0.0333
55385W        W98401  22.841  13.707  28.286 -0.1357 -0.1583  0.2536
55386W        W98402   7.092   2.335  21.039 -0.1396 -0.2290  0.1533
55387W        W98403  16.636   3.325   0.508 -0.2167 -0.0269 -0.2172
55388W        W98404  29.765   6.396  24.810  0.3565 -0.1409  0.1241
55389W        W98405   8.894   3.156  19.540 -0.0995  0.3479 -0.2305
55390W        W98406  11.034  34.778  19.377  0.0205 -0.2901  0.1653
55391W        W98407  23.595  25.889  25.664  0.0172  0.1122 -0.0519
55392W        W98408   8.059  25.250  25.204  0.0437 -0.1355  0.2457
55393W        W98409  19.818   7.846  26.533  0.1687  0.1551  0.2599
55394W        W98410  21.823   6.988  14.103  0.2418 -0.0535 -0.0153
55395W        W98411  31.509  30.538  17.755 -0.0184 -0.0295  0.3624
55396W        W98412  24.584   3.816  17.864 -0.0381  0.0677  0.2145
55397W        W98413  21.583   6.949   0.358  0.1061 -0.2405  0.1085
55398W        W98414  26.305   1.699  17.494  0.0695  0.0315  0.3611
55399W        W98415  14.442   4.604  19.092  0.2097 -0.0764 -0.0654
55400W        W98416   5.835   2.768  16.330  0.3279 -0.0395  0.2235
55401W        W98417   0.793   2.921  25.339 -0.2371  0.5989 -0.0333
55402W        W98418  14.845  14.419  24.380  0.0375 -0.0771  0.0471
55403W        W98419   4.946  13.762  18.021 -0.1429 -0.1587 -0.3810
55404W        W98420  30.592   6.534  28.802 -0.1774 -0.0521 -0.0887
55405W        W98421  13.211   9.182  23.851 -0.1199  0.1993 -0.2873
55406W        W98422   3.125  33.694  20.403 -0.3087 -0.1244  0.1096
55407W        W98423  16.938   9.313   0.285  0.0896 -0.0268  0.1065
55408W        W98424  14.179  15.876  13.013 -0.1545 -0.2201  0.2659
55409W        W98425  20.780   2.862  18.922 -0.1889  0.0806 -0.0948
55410W        W98426  22.011   8.415  25.575  0.5035  0.0832  0.1001
55411W        W98427  28.467   7.329  21.556 -0.4846  0.2223 -0.2241
55412W        W98428  27.472  12.983   0.411  0.0768 -0.2683  0.1595
55413W        W98429  11.719  32.369  19.251  0.0886  0.1518  0.0480
55414W        W98430  11.372  17.725  17.435  0.0304  0.0795 -0.3161
55415W        W98431  12.980  30.024  17.648 -0.4822  0.0066 -0.1059
55416W        W98432   8.570  17.262  13.300  0.2575 -0.0464  0.3386
55417W        W98433   9.759   3.549   2.139  0.3013  0.3733 -0.1681
55418W        W98434  13.528  23.563  23.321  0.0762  0.1050  0.0563
55419W        W98435  14.562  10.059  23.938 -0.1329  0.3219  0.1857
55420W        W98436  34.773   6.042   6.979  0.1358  0.1984 -0.2099
55421W        W98437  10.457  29.209  16.874 -0.1467  0.0290 -0.2256
55422W        W98438  15.450  24.769  15.792 -0.0830 -0.1395 -0.0390
55423W        W98439  28.387   5.736  18.281  0.4267  0.0169 -0.0057
55424W        W98440   3.567  28.249  24.257  0.2693 -0.0731 -0.0485
55425W        W98441  27.273   2.297  16.716 -0.1590  0.0494  0.2385
55426W        W98442   5.070  14.916  14.246 -0.2328  0.3745  0.2609
55427W        W98443  22.041  12.478  15.922  0.0886  0.1026  0.1971
55428W        W98444   9.545  22.079  19.423 -0.0491 -0.1464 -0.0132
55429W        W98445  24.021  33.716  26.055 -0.1459 -0.1208 -0.1830
55430W        W98446  23.115   3.068  15.278 -0.0467  0.3759 -0.1334
55431W        W98447  33.326  16.895  16.185 -0.0500  0.1617  0.1055
55432W        W98448  26.407  17.329  15.450 -0.3505  0.0642 -0.1584
55433W        W98449   9.855   9.032  21.526  0.1421  0.1830  0.0607
55434W        W98450  20.969   4.119  18.995  0.0717 -0.0445 -0.0337
55435W        W98451  19.828  20.763  27.793 -0.3305  0.0509  0.1518
55436W        W98452   1.276  21.854   1.399  0.1567 -0.0079  0.0657
55437W        W98453  18.885   7.404  18.622  0.0870  0.0755  0.0834
55438W        W98454  18.927   4.688   8.062 -0.3463 -0.1255  0.0444
55439W        W98455  27.596   8.063  18.300  0.2543 -0.1636  0.4236
55440W        W98456  18.230   8.377  14.776 -0.0690 -0.3197  0.1125
55441W        W98457   3.034  29.490  28.355 -0.1898  0.3066  0.0810
55442W        W98458  13.621  20.528  12.404  0.0962  0.0123 -0.2470
55443W        W98459  25.692  14.748  21.962 -0.3562 -0.0918 -0.0568
55444W        W98460  23.041   8.061  23.387 -0.0870 -0.0238  0.0489
55445W        W98461   3.090  29.574  23.022  0.0513 -0.1335 -0.0925
55446W        W98462   9.005  28.011  16.229 -0.2162  0.2746 -0.0910
55447W        W98463  10.663   9.460  15.096  0.2559  0.3256  0.0857
55448W        W98464  16.473  15.175  14.254 -0.1007  0.4915 -0.0668
55449W        W98465  16.143  10.428   6.057 -0.2827 -0.2154 -0.1339
55450W        W98466   3.276  12.201  24.948  0.0818 -0.2604 -0.1827
55451W        W98467   5.901   6.218  22.802 -0.0937  0.1348  0.0412
55452W        W98468  10.944  15.194  15.092 -0.0330  0.2891  0.1909
55453W        W98469  11.357  12.126  25.526  0.1269 -0.0601  0.0931
55454W        W98470  17.368  16.102  24.499  0.3002 -0.1031  0.2534
55455W        W98471  17.755   9.366  27.166 -0.0402  0.2120  0.2761
55456W        W98472  12.802   3.638  16.399 -0.0913  0.0399  0.0338
55457W        W98473   8.193   5.997  19.362 -0.1602 -0.3368  0.1667
55458W        W98474  11.746   9.246  21.878  0.2476 -0.2882  0.3440
55459W        W98475   8.432  11.207  14.608 -0.0909 -0.2511 -0.0398
55460W        W98476  12.584   7.585  15.929  0.1156 -0.1304 -0.1914
55461W        W98477   5.565   7.829  22.624 -0.0124 -0.0038  0.0121
55462W        W98478   4.937   0.672  19.827 -0.3118 -0.0871 -0.2122
55463W        W98479  23.719   5.125  15.742  0.2209 -0.2513 -0.1421
55464W        W98480  16.945  16.862  11.955  0.0000 -0.1310 -0.1543
55465W        W98481  12.368  28.756  16.912  0.0538 -0.0402 -0.1294
55466W        W98482  21.167  12.828  17.437 -0.3163  0.1030  0.1976
55467W        W98483   3.784  11.540  24.187 -0.1729  0.0960 -0.0619
55468W        W98484  11.935  20.877  20.162 -0.1386  0.7098  0.2440
55469W        W98485   2.526  16.432  18.766  0.1408 -0.2342 -0.4806
55470W        W98486   1.913  28.825  17.786  0.1314  0.3183  0.0555
55471W        W98487  16.450  12.599  22.179 -0.3173 -0.0116  0.1668
55472W        W98488   0.097  19.050  26.729 -0.2939 -0.2665 -0.0632
55473W        W98489   7.928   7.105  15.563 -0.2699 -0.3067 -0.1505
55474W        W98490  30.695   8.513   7.983  0.2285  0.4085  0.0769
55475W        W98491   8.825   3.702  20.088  0.1586 -0.1047 -0.1608
55476W        W98492  21.293   8.121  17.142  0.0737 -0.0986  0.0380
55477W        W98493  33.613  25.753  15.174  0.1630 -0.1851  0.0214
55478W        W98494  12.624   6.886  25.759 -0.1735  0.1188 -0.2598
55479W        W98495   2.641  13.829   2.399  0.2157 -0.0575 -0.0569
55480W        W98496   7.396   6.585  16.231 -0.3675  0.0160  0.0169
55481W        W98497  19.729  16.275  28.404 -0.1636  0.2468 -0.2573
55482W        W98498  34.083  32.533  25.643 -0.3245  0.2489  0.0045
55483W        W98499  16.057   9.259  14.165 -0.0932  0.1595  0.0460
55484W        W98500   0.710  22.588   1.149 -0.0420 -0.0516 -0.1187
55485W        W98501  34.282  16.893  15.928 -0.1466 -0.0609  0.1935
55486W        W98502   8.406  19.869  28.090 -0.2851  0.3156 -0.4224
55487W        W98503  16.999  23.125  28.493 -0.0716 -0.1130  0.2220
55488W        W98504   7.855   1.702  26.310  0.2609  0.2381 -0.1273
55489W        W98505  10.580   4.489  16.364 -0.1665 -0.3220  0.0472
55490W        W98506   7.853  23.110  22.394  0.1659  0.1686 -0.0768
55491W        W98507  10.666   7.755  19.747 -0.1661 -0.1270 -0.0717
55492W        W98508   5.750  23.544  29.202  0.2178  0.0265 -0.1850
55493W        W98509  10.388  32.923  18.452  0.1192  0.0056 -0.0390
55494W        W98510  10.862   7.924  14.079  0.3428 -0.2046 -0.2235
55495W        W98511   5.514   7.208  19.643 -0.2573 -0.0126 -0.3802
55496W        W98512  18.337   5.182   0.856  0.1936  0.3281 -0.0860
55497W        W98513  23.444   1.731  20.743  0.1426 -0.0135  0.0776
55498W        W98514  15.612   7.315   3.930  0.2251 -0.0658  0.0545
55499W        W98515  31.567  15.608  19.006 -0.1403  0.0353  0.3678
55500W        W98516   7.096   1.584  17.553  0.0229 -0.3691 -0.0140
55501W        W98517  28.170  32.501  17.189 -0.0512  0.1576  0.0326
55502W        W98518  34.286   7.210   8.423 -0.0307  0.0408 -0.0491
55503W        W98519   7.917   4.757  21.135  0.2783 -0.0085  0.0061
55504W        W98520  31.839   7.279  21.933  0.0758  0.0887  0.2767
55505W        W98521  23.874   3.516  20.352  0.1232 -0.0528  0.0762
55506W        W98522   6.841  27.330  28.965  0.0381 -0.3750 -0.3191
55507W        W98523  11.695   0.682   7.750 -0.0430 -0.0088  0.1945
55508W        W98524   4.048   4.359  22.674  0.1429  0.0378 -0.1954
55509W        W98525  15.597   4.893  10.381  0.1952  0.1737  0.0601
55510W        W98526   5.223   5.630  22.405  0.0194 -0.0587 -0.4094
55511W        W98527  15.097  15.237   1.962  0.1624 -0.2463 -0.0283
55512W        W98528  12.480  14.867  26.566  0.4667 -0.0809  0.0268
55513W        W98529  25.365  31.987   8.207  0.0397 -0.0496  0.3201
55514W        W98530   9.008   6.582  21.552 -0.0754 -0.0831  0.3606
55515W        W98531  10.971  30.788  23.498 -0.0998 -0.2045  0.0975
55516W        W98532  16.563  14.790  13.293 -0.0463 -0.0041  0.0557
55517W        W98533   7.111  10.909  15.114 -0.0457 -0.2353 -0.0187
55518W        W98534   4.606  13.169  13.434 -0.4572 -0.1669  0.0295
55519W        W98535  10.600  34.196  14.815  0.1188  0.0538  0.1513
55520W        W98536  15.864  14.078  14.929  0.0305  0.0989  0.0161
55521W        W98537   3.202  29.382  22.587 -0.0727  0.0090 -0.0297
55522W        W98538  17.778  12.635  13.371 -0.2182 -0.0061  0.2060
55523W        W98539  15.362  19.914   0.490  0.0649  0.1571 -0.1610
55524W        W98540   3.045  15.855  14.991  0.0341  0.0262  0.1855
55525W        W98541  13.165   0.189   0.462 -0.1422  0.1872 -0.2633
55526W        W98542   2.403  32.999   4.960  0.2438  0.0295  0.2997
55527W        W98543  14.191  32.206   6.143  0.1123  0.1008  0.2604
55528W        W98544   0.997   7.085  22.909 -0.0822 -0.1486  0.1898
55529W        W98545  10.444   9.120  14.272 -0.2427  0.0271 -0.0435
55530W        W98546  20.577   5.507  17.803  0.2193 -0.0422  0.0877
55531W        W98547   9.440   9.738  17.448  0.1192 -0.1988  0.2227
55532W        W98548  24.833  16.111  22.586 -0.4562  0.4300 -0.1166
55533W        W98549  15.505  31.554  24.858 -0.1287  0.1988 -0.0245
55534W        W98550   2.449  18.684  15.878 -0.2706 -0.0466 -0.1430
55535W        W98551   4.379  18.229  21.752  0.1219  0.1382  0.0452
55536W        W98552  10.773   6.833  20.625  0.2064 -0.0324 -0.1742
55537W        W98553   3.824   0.414  18.729 -0.0731 -0.0982 -0.0860
55538W        W98554  10.505   5.492  19.335 -0.0486 -0.2422  0.1504
55539W        W98555   9.807  34.472  15.935 -0.0643  0.1353 -0.1181
55540W        W98556  13.676  29.613  17.714  0.1290 -0.0902 -0.6719
55541W        W98557  29.439  33.701   1.964  0.2817 -0.2231 -0.2052
55542W        W98558  28.078  24.301  21.587  0.1629 -0.0244  0.1125
55543W        W98559  12.563   9.299  27.828 -0.3652  0.2252 -0.0529
55544W        W98560  18.792  11.871  16.518 -0.0222 -0.0736  0.0809
55545W        W98561   9.532   5.387  21.302 -0.1859 -0.2634  0.0821
55546W        W98562  23.926   3.553   2.032  0.1918 -0.1551  0.1314
55547W        W98563  22.819   8.519   1.465  0.0021  0.2131  0.1564
55548W        W98564  22.008   7.526  25.977  0.1984 -0.1929  0.0295
55549W        W98565   0.591  18.726  24.918 -0.0607 -0.3359 -0.2822
55550W        W98566   4.856  12.281  22.775  0.4685 -0.1120  0.0467
55551W        W98567  10.188   3.505  24.764  0.0090  0.1256  0.0948
55552W        W98568  12.914  26.268  15.933 -0.1281 -0.1989 -0.3273
55553W        W98569   1.502  24.021  21.685 -0.0246 -0.0535  0.1126
55554W        W98570   8.630   4.212  15.028  0.2939 -0.0848  0.1276
55555W        W98571  10.742   6.038  16.831 -0.0780 -0.0974  0.2464
55556W        W98572  23.561   7.465   0.539  0.1676 -0.1788  0.1821
55557W        W98573   9.554  19.346  22.709 -0.0836 -0.0631  0.2732
55558W        W98574  25.809   7.947  10.199  0.1006  0.1162 -0.3844
55559W        W98575   7.664   5.996  14.889 -0.1216  0.2727  0.2819
55560W        W98576  13.924   2.310  14.967  0.0835  0.1464  0.0100
55561W        W98577  23.189  26.845  18.559 -0.1276  0.2491 -0.0285
55562W        W98578   4.001  34.556  26.398 -0.2477 -0.0195 -0.0229
55563W        W98579  10.359   8.243  15.495 -0.1494  0.0963 -0.0815
55564W        W98580   7.511  33.022  13.730 -0.1394 -0.2661 -0.1019
55565W        W98581  26.019  13.490  15.738  0.2724  0.0449 -0.2544
55566W        W98582  12.539  19.128  22.794  0.1027  0.1871 -0.2033
55567W        W98583  10.474  17.707  13.145  0.0757  0.1396 -0.1524
55568W        W98584   1.452  22.739  26.739 -0.0703 -0.3384 -0.1061
55569W        W98585  34.244  25.580  19.556  0.2625  0.3610 -0.1844
55570W        W98586   9.130  16.888  19.216  0.3759 -0.1380 -0.1286
55571W        W98587  16.725   7.951  17.752  0.1020 -0.0288 -0.1752
55572W        W98588  29.637   3.677  22.128 -0.0615  0.0361 -0.1519
55573W        W98589   7.228  24.956  14.627  0.1057  0.4236  0.0690
55574W        W98590  34.671  11.285   3.809 -0.0063 -0.0807 -0.1116
55575W        W98591   5.082   6.740  28.218  0.1407 -0.1068  0.1727
55576W        W98592  18.872  33.722  24.015 -0.0773  0.1511  0.4735
55577W        W98593  28.403  13.106  20.996  0.0253  0.0921 -0.0345
55578W        W98594   0.357  26.082  28.832  0.1759 -0.0062 -0.0237
55579W        W98595  34.425   7.472  17.769 -0.3324 -0.2443  0.1223
55580W        W98596   4.638   9.399  14.162 -0.2394  0.2785  0.3066
55581W        W98597  11.585  16.090  18.103  0.1367 -0.2410 -0.2780
55582W        W98598  19.738  31.949  19.450 -0.1631 -0.0738 -0.1551
55583W        W98599  10.463  30.379  20.091  0.2462  0.0450  0.2187
55584W        W98600  26.919  28.552  17.724 -0.1027  0.3557  0.3240
55585W        W98601   0.925  12.683   7.041  0.0580 -0.3405  0.0984
55586W        W98602  16.354   5.753   1.553  0.0464 -0.1042  0.0929
55587W        W98603  25.091  16.229  24.547  0.0252 -0.1071  0.3080
55588W        W98604  14.190   5.319  20.513  0.3149 -0.2391 -0.2059
55589W        W98605   9.656   1.968   4.523 -0.1925 -0.0581 -0.0831
55590W        W98606  16.893  29.701  27.356  0.1005  0.4329  0.1011
55591W        W98607   8.525  11.570   0.186 -0.1957  0.0155  0.3043
55592W        W98608  21.370  10.259  15.838 -0.2995  0.1027 -0.0284
55593W        W98609  20.323  10.299   3.501 -0.1925 -0.0995  0.2515
55594W        W98610  25.340   7.673  15.076 -0.0544  0.0782 -0.1004
55595W        W98611  15.924  10.377  16.809  0.4471 -0.0981  0.1005
55596W        W98612  18.904   6.695   2.816 -0.0538  0.1678  0.0740
55597W        W98613  14.259   9.823  15.465  0.0326  0.0329 -0.3521
55598W        W98614  33.175  12.614  25.171  0.1303  0.2120 -0.1090
55599W        W98615  20.460  13.715   2.520  0.0472  0.0980 -0.0754
55600W        W98616  27.898  13.646  17.094  0.4124  0.1140 -0.0790
55601W        W98617   8.545   7.790  20.659 -0.1138  0.0759  0.0430
55602W        W98618  25.963  12.045  19.888  0.2035  0.3604 -0.2975
55603W        W98619   4.866  24.991  22.972 -0.1595 -0.2025 -0.2621
55604W        W98620  25.746  21.341  14.584 -0.3801  0.0739  0.1722
55605W        W98621  10.655   1.660  26.223  0.5459 -0.2395 -0.0164
55606W        W98622  18.528   2.167  15.323 -0.2272 -0.0897 -0.1097
55607W        W98623  15.686   8.333  20.330 -0.1825 -0.1934  0.3009
55608W        W98624  25.902  21.100  29.267  0.0727 -0.1606 -0.0520
55609W        W98625   3.579  27.311  21.798  0.0780  0.1055 -0.2781
55610W        W98626  13.432  22.573  13.594  0.2840  0.0823 -0.0898
55611W        W98627  24.379   3.780  15.086  0.1633 -0.2335  0.1472
55612W        W98628  26.821  16.507  25.614  0.2757  0.0294  0.0547
55613W        W98629  30.298  11.999  22.822 -0.0073 -0.3455  0.0818
55614W        W98630  31.710  10.346  28.506  0.2238 -0.3130  0.2227
55615W        W98631  26.174   9.187  19.111 -0.1400 -0.1554  0.1037
55616W        W98632  32.080  13.640   3.426  0.0578  0.2154  0.0041
55617W        W98633  13.502  14.695   6.023  0.1575 -0.1888 -0.3111
55618W        W98634   8.445   7.011  15.919 -0.0641 -0.1686 -0.1997
55619W        W98635  11.963   9.448  14.763  0.0787  0.1257  0.1193
55620W        W98636   2.130   3.037  23.499  0.1663 -0.1766 -0.1855
55621W        W98637  14.758  34.000  16.893 -0.2228  0.3559  0.0888
55622W        W98638   9.665  32.636   4.403 -0.2562 -0.2155  0.0418
55623W        W98639  27.330  24.231  18.645  0.0148  0.0474  0.1775
55624W        W98640   3.870  16.721  16.847 -0.2840  0.1478  0.1609
55625W        W98641  33.173  13.840  15.011 -0.0812  0.1933 -0.2606
55626W        W98642   9.811   5.764  26.931  0.0864  0.0290  0.2599
55627W        W98643   7.678  10.005  25.180 -0.2884 -0.0543 -0.0312
55628W        W98644   5.743  34.107  18.226  0.1413 -0.2006 -0.4422
55629W        W98645  25.231  14.545  25.614  0.0699  0.0731 -0.2564
55630W        W98646  21.193   4.855  18.534  0.4249  0.0264  0.0451
55631W        W98647  34.133  10.629  28.440 -0.1335  0.1897 -0.6021
55632W        W98648   2.272  12.727  24.707 -0.1495 -0.2576  0.1609
55633W        W98649   1.927   3.367   2.846  0.1524 -0.1828 -0.3136
55634W        W98650  13.128  13.292   5.613  0.1852 -0.2762  0.3246
55635W        W98651  19.148  25.119  25.744  0.0392  0.2833  0.0864
55636W        W98652  11.501   1.992  26.424 -0.1570 -0.2193 -0.1927
55637W        W98653  27.632  25.390  15.902 -0.2674 -0.1019  0.0671
55638W        W98654  15.997  19.960  13.441 -0.2150  0.1997  0.0852
55639W        W98655  34.430   3.625  21.893  0.0038 -0.0837  0.2833
55640W        W98656  20.270  29.056  28.009  0.0876  0.1261 -0.0798
55641W        W98657  15.524   7.584  13.409 -0.0275 -0.2023 -0.1342
55642W        W98658   8.950  15.314  25.881 -0.0781  0.1511  0.1978
55643W        W98659   3.891   4.460  18.249  0.0606 -0.1828 -0.0864
55644W        W98660   7.314  14.322   2.921  0.2056 -0.0576 -0.0030
55645W        W98661  27.096   0.603  19.120  0.0738 -0.0806 -0.5431
55646W        W98662   5.976  30.382  17.237  0.0271 -0.1058 -0.2202
55647W        W98663  34.269   6.181   8.401  0.2273 -0.2324 -0.0865
55648W        W98664  32.301  21.602  14.396 -0.1750 -0.1579 -0.0935
55649W        W98665  24.323   4.548  19.014 -0.3110 -0.0824  0.1533
55650W        W98666   5.331   8.135  14.954  0.4669 -0.0634  0.0396
55651W        W98667   4.104  22.081  22.196  0.1338 -0.1525  0.0274
55652W        W98668  16.014  13.800  13.664  0.1532 -0.0167 -0.0136
55653W        W98669   7.291  19.526  22.190 -0.4068  0.1329  0.0727
55654W        W98670  15.916  25.761  13.579 -0.1256 -0.0167 -0.0086
55655W        W98671  15.962  23.430  12.849 -0.0097  0.2214  0.0870
55656W        W98672  20.934  13.315  16.579  0.1605 -0.4014 -0.1583
55657W        W98673  27.313  20.012  17.200 -0.1239  0.0929  0.0421
55658W        W98674  14.507  15.572  13.250  0.0944  0.1091  0.0673
55659W        W98675  10.486  33.898  16.580  0.1282 -0.0606  0.0797
55660W        W98676  25.144   9.332  16.136  0.0158 -0.0250 -0.4620
55661W        W98677  17.888   6.345  22.556  0.2274 -0.1634  0.1041
55662W        W98678  14.092   6.085  23.140  0.0980 -0.0482  0.0620
55663W        W98679  16.167  28.339  20.060 -0.0219 -0.2631  0.0319
55664W        W98680  27.269  13.045  15.572 -0.0264  0.2229  0.1839
55665W        W98681   9.495  11.910  29.270  0.2569  0.1496  0.0808
55666W        W98682   1.264  14.904   3.334  0.1846  0.2161 -0.1405
55667W        W98683  22.060  23.944  15.877 -0.0500 -0.0967  0.3397
55668W        W98684  17.159   4.956  19.885  0.1112  0.4493  0.2656
55669W        W98685  15.633  14.892   0.497 -0.0528  0.1383 -0.0518
55670W        W98686   0.978  16.838  22.934 -0.3810 -0.2017  0.2004
55671W        W98687  34.477  19.960  23.176 -0.0028  0.1498  0.0800
55672W        W98688   5.513  15.231  27.357 -0.0934  0.3474  0.3039
55673W        W98689  13.737   3.393   5.064 -0.0936 -0.0536 -0.2721
55674W        W98690   7.499   3.958  24.556 -0.0946 -0.1798  0.2538
55675W        W98691   7.905  17.818  13.194 -0.0654 -0.3110  0.3183
55676W        W98692  10.227  19.109  13.366 -0.1092 -0.0099  0.0484
55677W        W98693   5.852  10.668  17.132 -0.1684  0.1573 -0.0965
55678W        W98694  19.509   5.321  16.133 -0.3331 -0.0720  0.0376
55679W        W98695  21.426   5.964  14.325  0.1073 -0.2299  0.0451
55680W        W98696  13.546   4.824  15.252  0.3179 -0.0848  0.0139
55681W        W98697   4.386  18.680   8.054 -0.1929  0.0894 -0.0994
55682W        W98698  12.849   0.466  24.745 -0.0542  0.1202 -0.0876
55683W        W98699  22.076  16.634   1.458 -0.0253 -0.1416 -0.2622
55684W        W98700  20.329  15.512   0.218  0.1765  0.2219 -0.1701
55685W        W98701   6.814   6.996  19.919  0.1812  0.3559 -0.1409
55686W        W98702   9.885  15.099  17.826 -0.2672  0.1440 -0.1122
55687W        W98703  15.237  20.612  14.545  0.1225  0.0818 -0.0726
55688W        W98704  15.453   4.928  16.214 -0.5074 -0.0482  0.0552
55689W        W98705  13.143   0.392  28.400 -0.4390  0.1517  0.1565
55690W        W98706  18.945   3.392  22.063  0.1095  0.0676 -0.0613
55691W        W98707  11.604  10.260  15.166  0.0163  0.1734 -0.0756
55692W        W98708  26.960   2.922  26.466 -0.2244 -0.3172 -0.1919
55693W        W98709  24.806   7.457  20.470  0.3749  0.2181 -0.1606
55694W        W98710   8.509   5.781  23.429  0.3954 -0.3525 -0.2315
55695W        W98711  15.907   8.631  28.344 -0.1424  0.0775 -0.0797
55696W        W98712  22.942  33.561  20.750  0.0828  0.3530 -0.2434
55697W        W98713  22.981   4.492  19.266  0.2263  0.2271 -0.0975
55698W        W98714   8.878  32.468  23.860 -0.1697 -0.0647  0.3959
55699W        W98715   5.556  19.236  26.073  0.0651  0.1813  0.1783
55700W        W98716  24.148  18.722  21.264  0.1334  0.0763  0.3920
55701W        W98717  16.285  32.850  24.295  0.0665 -0.1499  0.1597
55702W        W98718  27.598   2.987  18.392  0.1493 -0.2782 -0.1661
55703W        W98719  29.880  33.936  20.639  0.1012 -0.0783  0.1142
55704W        W98720  29.493  12.891   2.562 -0.4099 -0.1656 -0.2054
55705W        W98721  22.938  34.167   1.495 -0.0113  0.1094 -0.2558
55706W        W98722  11.834  19.740  19.190 -0.1216 -0.0109 -0.0941
55707W        W98723  19.429  29.865   0.180  0.0353 -0.1689  0.1620
55708W        W98724  11.446   4.645  25.564 -0.1582  0.1408  0.1376
55709W        W98725  34.158   5.214   0.127  0.0372 -0.1647  0.2726
55710W        W98726  17.537   3.172  16.771  0.2227  0.0192 -0.0939
55711W        W98727  27.993  34.764   4.603  0.2010  0.1317 -0.0974
55712W        W98728  34.067  12.546  14.961  0.0008 -0.1763  0.0103
55713W        W98729  19.080   3.606  26.838 -0.0423 -0.2895 -0.0441
55714W        W98730   3.520  15.917   3.426 -0.3033  0.1625 -0.0769
55715W        W98731  18.532   2.183   2.541  0.2838 -0.1509  0.3079
55716W        W98732   9.955   0.940   0.248  0.0111  0.3965 -0.2773
55717W        W98733   7.080   1.962  19.138  0.0631 -0.0031  0.1698
55718W        W98734   9.049  13.922  22.381  0.1067 -0.1099  0.1883
55719W        W98735   5.826  24.931  16.403  0.1353  0.2487  0.2218
55720W        W98736  31.748   3.789  18.453 -0.0079 -0.1662 -0.1556
55721W        W98737   6.219   1.506  17.849 -0.0411 -0.0773 -0.1127
55722W        W98738  25.927   9.469  17.194  0.3095  0.1429 -0.1184
55723W        W98739  23.562  16.280  19.029 -0.0014  0.1101  0.1515
55724W        W98740  14.048   8.738  23.722 -0.1078  0.1258  0.3021
55725W        W98741   5.706  12.565   1.526  0.5063  0.0679  0.1288
55726W        W98742   2.497  19.819   2.852 -0.0845  0.2145  0.0332
55727W        W98743  34.059  32.662  24.032  0.3431 -0.0202 -0.1040
55728W        W98744  16.270  21.056  23.488 -0.0351 -0.3100  0.1573
55729W        W98745  13.693  14.234  27.059 -0.1467  0.4896 -0.1367
55730W        W98746  19.446   3.090  20.132  0.0128  0.0011 -0.0798
55731W        W98747   8.117  18.534  18.319  0.1486  0.0422 -0.1621
55732W        W98748   0.958  15.432   1.220 -0.1713  0.1043  0.0763
55733W        W98749   8.941  15.418  15.181  0.3212  0.0538  0.2372
55734W        W98750  23.096  12.207  18.835 -0.2132  0.3190 -0.0790
55735W        W98751   8.733   1.336   1.312 -0.3146 -0.1299  0.0945
55736W        W98752  10.696   2.420  14.530  0.1237 -0.2022 -0.4710
55737W        W98753  17.374   6.854  16.330 -0.1473  0.2379 -0.1296
55738W        W98754  16.054   5.283  18.984 -0.0851 -0.0189 -0.3638
55739W        W98755   5.362  21.955  18.023  0.0952  0.1402 -0.0578
55740W        W98756  15.213  26.244  26.120  0.0140  0.0602 -0.3266
55741W        W98757  12.369  17.441   1.363  0.2915  0.0371  0.1410
55742W        W98758  29.091  27.435  11.334  0.0126  0.1586  0.1045
55743W        W98759  19.676   5.044  19.750 -0.1158 -0.1254 -0.2484
55744W        W98760   5.709  18.937  18.987 -0.0497  0.1449 -0.1475
55745W        W98761  33.705  19.678  17.722  0.0406  0.2701  0.2284
55746W        W98762  15.769   0.864  26.138 -0.0986 -0.5286  0.1439
55747W        W98763  23.046  16.914  22.821 -0.2185 -0.2270 -0.0668
55748W        W98764   2.360  30.108  22.482  0.2386 -0.1130  0.1015
55749W        W98765  15.262  17.056   4.533 -0.1690  0.1027 -0.2029
55750W        W98766  19.404  13.186  13.732 -0.1177  0.3047  0.2287
55751W        W98767   8.237  10.188  22.352 -0.0742 -0.2091  0.1950
55752W        W98768  11.654   1.203  28.760  0.1169 -0.2632  0.1578
55753W        W98769  23.518   3.792  28.426 -0.2814  0.0173 -0.1762
55754W        W98770  10.262  16.536  18.532 -0.1032 -0.2540  0.1219
55755W        W98771  14.174   8.053  17.694 -0.0598  0.1089 -0.0482
55756W        W98772  22.915   0.588   4.229  0.2185  0.3199 -0.0747
55757W        W98773  11.116  20.550  18.245 -0.0759  0.0047  0.0417
55758W        W98774  13.019  33.800  16.437  0.0503  0.0583 -0.0112
55759W        W98775   9.333  11.196  16.184  0.1225 -0.0270  0.3167
55760W        W98776  14.440   4.465  15.547  0.2654 -0.1530  0.0859
55761W        W98777  27.034  15.088  19.846  0.0902 -0.0810  0.1711
55762W        W98778  13.644   9.390  19.846 -0.1574 -0.0275 -0.5000
55763W        W98779  20.078  30.358  18.746  0.2163  0.2784 -0.1384
55764W        W98780  10.334  23.323  21.775  0.2386  0.0893 -0.1676
55765W        W98781  13.007  12.625   1.651 -0.0453 -0.1793 -0.0594
55766W        W98782   8.460  12.412  21.534 -0.1104  0.3120  0.1747
55767W        W98783   1.436   9.097  15.581 -0.2187 -0.0246 -0.4028
55768W        W98784  29.639  32.661  27.117  0.0303  0.3605  0.0330
55769W        W98785  17.513  11.438  13.670 -0.2613  0.0707  0.0774
55770W        W98786   6.756  34.623  26.918  0.3514 -0.2845  0.1741
55771W        W98787  17.092  19.461  26.417 -0.2962 -0.2406 -0.0852
55772W        W98788  17.076  34.140  15.682  0.1589 -0.3036  0.0609
55773W        W98789  10.869  15.360  21.328  0.0473 -0.2004 -0.3798
55774W        W98790  16.399  13.636   6.267  0.1465  0.2554  0.0715
55775W        W98791  34.357  31.721   9.179 -0.1478  0.1235  0.1060
55776W        W98792  19.206  22.192  15.232  0.1472  0.1096 -0.1395
55777W        W98793  20.484   2.430   0.483 -0.2501 -0.2778  0.0432
55778W        W98794  27.224  14.633  19.959 -0.0108 -0.0449  0.0189
55779W        W98795   5.731  12.403  16.495  0.0416  0.1410 -0.5043
55780W        W98796   2.630   6.216  17.765 -0.2076  0.0703 -0.0408
55781W        W98797  24.308   5.271   3.839 -0.0874  0.2773  0.1370
55782W        W98798  31.488  30.734  21.560 -0.0557  0.4536  0.1797
55783W        W98799   3.383  16.338   6.762 -0.0527 -0.0959 -0.1396
55784W        W98800   4.559  18.421  22.381 -0.1443 -0.0906 -0.1712
55785W        W98801   5.113  30.908   6.997  0.0132  0.2099  0.1932
55786W        W98802  17.832  17.167   2.452  0.0427  0.0981  0.1148
55787W        W98803  18.366   4.760  20.746  0.1989  0.2021 -0.0806
55788W        W98804   2.927   3.210   8.646 -0.1744 -0.0899  0.1274
55789W        W98805  25.596  14.183  18.262  0.0368  0.1397 -0.0483
55790W        W98806  13.175   9.406  25.372  0.1642  0.0380  0.0323
55791W        W98807  11.850  11.756  23.679 -0.2895  0.1500  0.1266
55792W        W98808  32.165  15.228  15.077 -0.0450  0.1965  0.2900
55793W        W98809   7.268  25.567   5.730  0.1262 -0.0438  0.1443
55794W        W98810  15.452  25.208  17.750 -0.1320  0.3334  0.0814
55795W        W98811  18.014   5.898   3.330  0.0141  0.1180 -0.1231
55796W        W98812  14.056  30.938   6.743 -0.3424 -0.1846  0.0962
55797W        W98813  22.461  25.178  18.430  0.0172 -0.2568  0.0155
55798W        W98814  25.465  10.704   0.703  0.1374  0.1263  0.1341
55799W        W98815   8.510  14.953  26.619 -0.2181  0.2305  0.1145
55800W        W98816  13.243   6.636  26.265 -0.2549 -0.2378  0.1590
55801W        W98817   3.321  10.420   3.070  0.1896 -0.2347  0.2016
55802W        W98818  13.697  15.528  22.248  0.1389 -0.5626 -0.0102
55803W        W98819  11.078   2.939  18.478 -0.1514  0.0126  0.0841
55804W        W98820  28.889  14.816   7.040  0.0515 -0.2930 -0.0511
55805W        W98821   9.204  11.321  22.095  0.1358 -0.1346  0.0163
55806W        W98822   7.064  26.050  16.838  0.1663  0.1503 -0.0619
55807W        W98823   5.325   6.911  24.467 -0.1810 -0.2924  0.0155
55808W        W98824   3.256   7.436   6.718  0.2192 -0.1158  0.0082
55809W        W98825  11.508  18.493   3.045 -0.0330  0.0437  0.1788
55810W        W98826  30.317  22.196  16.849  0.0597 -0.1198 -0.0225
55811W        W98827   5.974  28.360  18.483 -0.1577  0.1008 -0.2476
55812W        W98828  27.441  24.087  24.777  0.0137 -0.0239  0.1639
55813W        W98829  16.023   7.831  19.168 -0.1833  0.0719 -0.0544
55814W        W98830  33.576  16.423  15.406 -0.0798 -0.2351  0.1107
55815W        W98831  16.188  28.871  18.187 -0.2907 -0.1357 -0.2917
55816W        W98832   3.185  10.495  23.328  0.1615 -0.1854 -0.1850
55817W        W98833  14.346   0.806  10.516  0.1345  0.2022 -0.1206
55818W        W98834   7.454  23.477   0.725  0.3317 -0.0298 -0.2919
55819W        W98835  21.603  22.315  23.188  0.1786 -0.1956 -0.2163
55820W        W98836   4.015  33.694  25.298  0.1912  0.0987 -0.0656
55821W        W98837  19.440   6.371   5.165  0.0167 -0.0577 -0.1303
55822W        W98838  18.056  19.718  26.042 -0.0259  0.0469  0.1050
55823W        W98839  10.904  13.665  22.181  0.0523 -0.0775  0.0097
55824W        W98840  17.706  15.804  25.961  0.2386 -0.2571  0.2344
55825W        W98841  21.768  30.907  16.981  0.4250 -0.1780 -0.1269
55826W        W98842  34.306  12.509   7.752 -0.1904 -0.0525  0.0548
55827W        W98843   3.953  10.239  15.617  0.0498 -0.2233  0.1948
55828W        W98844  25.203  10.943   2.726  0.4188 -0.1172 -0.2403
55829W        W98845   4.575  19.593  17.588  0.0238 -0.4044  0.1625
55830W        W98846   1.945   4.682  22.809  0.0634 -0.0655  0.1239
55831W        W98847  20.353   8.741  26.358  0.1696 -0.0084  0.2013
55832W        W98848   0.402  29.265   5.773  0.1173  0.2658 -0.2891
55833W        W98849   9.456   9.526  16.313  0.0101 -0.1502  0.0951
55834W        W98850   6.259  20.499  22.252  0.3694  0.2177  0.2491
55835W        W98851  20.518  16.142  26.185 -0.0890 -0.0471 -0.0973
55836W        W98852  12.481  16.524  28.773 -0.1532  0.0951 -0.3839
55837W        W98853  13.008  30.131  22.975 -0.0210  0.1260  0.0174
55838W        W98854  26.689  15.458  19.557  0.0116  0.3027 -0.1411
55839W        W98855  28.721  11.772   3.526 -0.2753  0.0606 -0.1627
55840W        W98856  16.285  16.745  17.197 -0.0519  0.3308 -0.0153
55841W        W98857  16.799  32.420  22.142 -0.0976 -0.3830 -0.0924
55842W        W98858  20.704  17.349  25.606  0.1078 -0.1852 -0.3566
55843W        W98859  11.404  28.142  27.542  0.1964 -0.0642 -0.0295
55844W        W98860  11.829  14.735  23.463 -0.0990 -0.2799  0.0512
55845W        W98861  14.600  20.094  12.080 -0.2987  0.1539  0.1827
55846W        W98862  33.817  12.049   0.854  0.2027 -0.3117 -0.0606
55847W        W98863  13.549  22.687  21.811 -0.0139 -0.1925 -0.4768
55848W        W98864  30.158  10.247   4.691 -0.2726 -0.1264  0.0912
55849W        W98865  11.253  33.361  26.007  0.2355  0.0272  0.1127
55850W        W98866  18.774  14.931   5.595  0.2440  0.2406  0.0269
55851W        W98867  31.917  19.785  25.009  0.0244  0.1321  0.1117
55852W        W98868  19.913   8.581  14.953 -0.1593 -0.0977  0.1456
55853W        W98869  27.599   2.912  10.122  0.4378  0.1987 -0.0907
55854W        W98870  17.260  23.093  19.666  0.1681 -0.2626  0.2130
55855W        W98871  26.199   3.037  18.117  0.1571 -0.1083 -0.0998
55856W        W98872  16.615  16.921   7.034  0.0951  0.1596  0.1397
55857W        W98873  16.275  27.673  19.785  0.0301  0.0472  0.2838
55858W        W98874   6.996  30.098  15.253 -0.3484  0.0408  0.2947
55859W        W98875  31.838   5.676  20.831 -0.0693  0.2488  0.0734
55860W        W98876  31.991  17.754   0.188  0.0974  0.0182 -0.0890
55861W        W98877  16.166   1.140  20.267 -0.1130  0.1548  0.4885
55862W        W98878  24.095  13.284  18.494  0.3361 -0.1594  0.0999
55863W        W98879  13.158  17.896  14.156  0.2748  0.3712 -0.1487
55864W        W98880  34.584  15.692  23.612  0.0282  0.0236  0.0058
55865W        W98881   5.293  11.570   3.577  0.2071 -0.1384 -0.1307
55866W        W98882   1.880   4.573  15.178 -0.4082 -0.3349 -0.0766
55867W        W98883   0.870  12.020  17.528 -0.2028 -0.1123 -0.1153
55868W        W98884  31.378   6.851  15.832  0.3616  0.0057  0.2935
55869W        W98885   9.542  17.168  21.037 -0.3354 -0.0361  0.0399
55870W        W98886  28.881  21.382  21.121 -0.2209 -0.2531  0.1426
55871W        W98887   3.266   6.212  21.820 -0.0337  0.4505 -0.0014
55872W        W98888  18.981  30.485  23.036  0.0381 -0.0087 -0.0351
55873W        W98889   1.120  27.244  23.425 -0.2666  0.3859  0.3790
55874W        W98890  26.663   2.525   2.721  0.2017 -0.0889 -0.0050
55875W        W98891   6.608  12.543  15.978  0.1067 -0.1795  0.2366
55876W        W98892  14.045  10.857  23.956 -0.0887  0.2753  0.0831
55877W        W98893   9.221   4.753  19.924 -0.0449 -0.0896  0.0818
55878W        W98894   7.949  11.227   3.735 -0.2874  0.2437  0.3596
55879W        W98895   1.117  14.030  18.665 -0.1977 -0.0466 -0.3960
55880W        W98896   2.252  17.975   6.840 -0.3732  0.0852 -0.1091
55881W        W98897  28.801  16.653  15.772  0.0342  0.2040 -0.0563
55882W        W98898   6.794   5.774   1.068  0.0398 -0.1694 -0.3097
55883W        W98899  29.508  12.292  20.494 -0.0353  0.2275 -0.2401
55884W        W98900   8.330  19.475  18.023  0.1429  0.0761  0.3480
55885W        W98901  18.016  20.128  12.584  0.0338  0.1765 -0.1327
55886W        W98902  12.655   9.401   1.549  0.0633 -0.2063 -0.3071
55887W        W98903   0.745   5.590   2.251  0.1048 -0.0441  0.1967
55888W        W98904  22.125   4.405  26.002 -0.2353 -0.1895 -0.1405
55889W        W98905   1.411  10.407  26.760 -0.1106  0.2032  0.1909
55890W        W98906   9.489   8.816   1.216  0.0843  0.3959 -0.0636
55891W        W98907  33.248  31.032  19.847 -0.1028 -0.2698  0.0239
55892W        W98908  20.043  18.937  16.277 -0.2535  0.0814  0.2901
55893W        W98909  21.340  25.345  22.227  0.0117  0.0197 -0.1924
55894W        W98910  16.025  26.902  27.924  0.2191  0.1376 -0.1214
55895W        W98911  30.965   9.121  29.195  0.0280  0.3803 -0.0120
55896W        W98912   1.506  30.952   8.963 -0.1236  0.1418 -0.1573
55897W        W98913  17.562  17.581  22.020  0.1978  0.1132 -0.3824
55898W        W98914  12.396   6.455  24.525  0.1502  0.0352  0.2203
55899W        W98915  31.700   7.964   0.387  0.3110 -0.1664 -0.2953
55900W        W98916  28.034  20.582  28.556  0.0007  0.0626 -0.0669
55901W        W98917  11.049  16.723   0.740 -0.0231 -0.2194 -0.2426
55902W        W98918   7.656  31.357  21.577 -0.1074  0.1065  0.0510
55903W        W98919  12.192  14.329  28.712 -0.1764  0.2237 -0.1625
55904W        W98920  15.836  26.661  20.490  0.3352  0.1729  0.0505
55905W        W98921   7.244   5.676   0.569 -0.0572 -0.1921  0.1649
55906W        W98922   5.685  20.503  19.495  0.1058 -0.1357 -0.0120
55907W        W98923  11.347  20.033  24.179 -0.0073  0.2790  0.1940
55908W        W98924  32.930  10.460   0.822  0.2246  0.1582  0.2971
55909W        W98925  30.395   2.109  27.076 -0.0862 -0.3299  0.1429
55910W        W98926  16.865   2.693   7.799  0.1987 -0.2245  0.0530
55911W        W98927   9.466   9.924  15.535 -0.1254  0.0916  0.0801
55912W        W98928   7.222  14.199  24.602  0.0708  0.0657 -0.0714
55913W        W98929  13.213  13.013  29.046 -0.4536 -0.2664 -0.2977
55914W        W98930  13.038   3.199   4.884  0.1471 -0.2112  0.1707
55915W        W98931  15.429  12.975  14.313  0.0452  0.1765  0.0470
55916W        W98932  15.261   9.349  13.319 -0.3144  0.0824 -0.0967
55917W        W98933   1.614  10.040  19.709  0.5143 -0.3364 -0.1985
55918W        W98934  12.121   7.711  19.796  0.1069 -0.0337  0.0332
55919W        W98935  24.374  11.580  15.806  0.0964  0.0162 -0.1998
55920W        W98936  21.640  13.287   4.971 -0.1905  0.0510 -0.1224
55921W        W98937  17.661  22.253  25.606 -0.0729 -0.1847  0.1916
55922W        W98938  17.950  22.310  25.088  0.0277  0.1849 -0.0495
55923W        W98939  23.293   7.207   0.083  0.0449  0.2488  0.0161
55924W        W98940   8.220   4.851  22.993  0.1895  0.3207  0.1212
55925W        W98941   3.870   8.293  17.492 -0.1855 -0.1774  0.1173
55926W        W98942   8.425   1.443  19.528  0.1806  0.2901 -0.0991
55927W        W98943  16.940   5.599  15.977 -0.1654 -0.0559 -0.0642
55928W        W98944   6.750  14.158  19.915  0.0377 -0.0838  0.3653
55929W        W98945  10.102   7.579  14.338  0.1451  0.1258  0.0799
55930W        W98946   5.462   7.172  21.049  0.0949 -0.1258 -0.0234
55931W        W98947   7.994  21.736  15.734 -0.1419 -0.2008  0.3862
55932W        W98948  12.338  15.738  14.439 -0.0354 -0.0280 -0.5788
55933W        W98949   8.820  16.024  15.365 -0.0555  0.1711  0.1278
55934W        W98950  25.687  31.197  27.163  0.2390 -0.1629  0.0991
55935W        W98951  12.426  10.412  20.623  0.1480  0.1926  0.0066
55936W        W98952   5.558  32.841   5.406 -0.3121  0.1164  0.3556
55937W        W98953  18.282   6.968   8.305  0.2531 -0.1926  0.1142
55938W        W98954   9.376  11.080   6.256  0.3442  0.0544  0.1540
55939W        W98955  10.634  19.199   6.808  0.0875 -0.2056 -0.0959
55940W        W98956   1.589  11.309  22.764 -0.0038 -0.0483 -0.3264
55941W        W98957  15.813  32.707  23.986  0.1633 -0.2091  0.1845
55942W        W98958   2.517   4.409   6.569 -0.0683 -0.1949  0.2405
55943W        W98959  10.996   4.834  16.323 -0.0482 -0.2368 -0.4211
55944W        W98960   5.949   7.363  22.733  0.0563 -0.0281 -0.1884
55945W        W98961  18.444  13.638  29.262  0.1163 -0.1728  0.3521
55946W        W98962   3.452  10.277  18.647  0.1174 -0.0646  0.4404
55947W        W98963   7.260   6.685   6.988 -0.2162  0.0301 -0.0623
55948W        W98964   3.197   7.135  17.123 -0.1619 -0.0932 -0.0969
55949W        W98965  12.073  13.483  27.755  0.1730 -0.0480  0.1271
55950W        W98966   6.815  26.846   8.580  0.1506  0.1451 -0.2237
55951W        W98967   5.872  34.767   3.968 -0.2373  0.0446 -0.0329
55952W        W98968  15.695  15.521   2.656  0.0385 -0.0034 -0.0431
55953W        W98969   7.472  32.375  19.077 -0.0369 -0.1947 -0.1230
55954W        W98970  19.858   8.165  19.861  0.1824  0.1545  0.1237
55955W        W98971   6.571  18.790   2.893  0.0341 -0.0377  0.1084
55956W        W98972  25.100  25.737   3.757 -0.3291  0.2543  0.0514
55957W        W98973  12.404  31.726  20.581 -0.0028  0.1557 -0.0885
55958W        W98974  15.803  22.668   2.115  0.0644 -0.4672 -0.1442
55959W        W98975  19.232   7.456   2.014 -0.0460  0.1634  0.0815
55960W        W98976   5.855  33.134   2.896 -0.0979  0.1190 -0.0629
55961W        W98977  11.102  26.958  19.588 -0.0846  0.0878 -0.1831
55962W        W98978  31.772   8.399  26.455  0.0317 -0.1113  0.1252
55963W        W98979  29.122  10.741  26.607  0.1134  0.1367 -0.1712
55964W        W98980  34.527  24.518  23.537  0.0425  0.1499 -0.1915
55965W        W98981  15.621  12.986  15.748 -0.2563  0.0910  0.1147
55966W        W98982   0.977  24.461   8.046  0.0985  0.2681  0.3008
55967W        W98983  12.891   4.180   7.024  0.0313 -0.0288 -0.0130
55968W        W98984  15.923  23.334   7.258  0.1651 -0.1983 -0.0593
55969W        W98985  21.748  21.056  22.745 -0.0785 -0.0057 -0.1181
55970W        W98986  15.131  29.907  27.534  0.0863  0.2842 -0.0266
55971W        W98987  13.824   5.931  18.117 -0.2809 -0.2071 -0.2062
55972W        W98988  30.372  12.041  18.148  0.0441  0.0226  0.2186
55973W        W98989  10.721   8.989  18.873  0.1846 -0.2162  0.0240
55974W        W98990  16.247   2.904  18.180 -0.4388  0.2629 -0.0592
55975W        W98991  19.626  21.076   8.282 -0.1710  0.1043  0.1356
55976W        W98992   8.139  16.883  18.921 -0.1096  0.0232 -0.0927
55977W        W98993   9.076  10.167  16.759  0.3431  0.2997  0.1999
55978W        W98994  13.074   2.962  23.047  0.0751  0.0640 -0.2349
55979W        W98995  11.028  15.336  26.439 -0.1147  0.2447  0.1191
55980W        W98996  22.989  30.890   5.475 -0.1928  0.0771  0.0394
55981W        W98997  11.799  26.254   2.862 -0.1761 -0.1181 -0.1197
55982W        W98998  14.601  30.876   1.052 -0.0369 -0.2601  0.0506
55983W        W98999  23.212   5.693  25.135 -0.3005  0.1050  0.1452
55984W        W99000  15.621  12.016  26.327  0.0277  0.0527 -0.3682
55985W        W99001  30.059  24.274  26.254  0.0368 -0.2437  0.0964
55986W        W99002   3.695   6.762  29.048 -0.1187 -0.0922  0.2043
55987W        W99003  12.917  14.827   2.980  0.5285  0.0129  0.0805
55988W        W99004  12.221  23.051  25.843 -0.1778 -0.0796 -0.1945
55989W        W99005   3.015  26.675   1.445 -0.0121  0.1432 -0.1694
55990W        W99006   6.070  24.035  17.238  0.1191  0.0564 -0.0162
55991W        W99007   0.986  20.584  14.854 -0.2337 -0.0464  0.1415
55992W        W99008  16.423  11.152  23.412 -0.2164 -0.0501  0.1914
55993W        W99009   4.635   5.584   5.935 -0.0494 -0.0904 -0.0629
55994W        W99010  16.024  27.856  22.499  0.1398 -0.3086  0.0724
55995W        W99011  24.999  12.910   2.626  0.1094  0.1842  0.0102
55996W        W99012  33.413   7.874  28.036  0.0629  0.1369 -0.1090
55997W        W99013  12.623   8.046   9.220 -0.2274  0.3079  0.0547
55998W        W99014  19.486   6.079   1.493 -0.3654 -0.0524  0.0940
55999W        W99015  27.471   6.086  23.219  0.3174 -0.0423 -0.1700
56000W        W99016  33.630  34.646  21.510 -0.1976 -0.0428  0.0031
56001W        W99017   9.215  12.522   2.374 -0.0270  0.2721  0.0835
56002W        W99018  18.501   6.863  24.809  0.1627  0.2678  0.0602
56003W        W99019  16.901   9.390   6.273 -0.1222  0.3332 -0.1164
56004W        W99020  17.313  10.796  20.331  0.0358  0.1667 -0.0452
56005W        W99021  27.254   6.463  11.791 -0.1128  0.3578  0.0932
56006W        W99022  29.984  31.771  23.007 -0.0841 -0.0746  0.1836
56007W        W99023  19.801  15.378  25.461  0.3433 -0.0039 -0.0585
56008W        W99024  13.380   4.473  28.617 -0.2028 -0.0053 -0.1628
56009W        W99025  15.152  22.247  25.230 -0.0334 -0.1538  0.1232
56010W        W99026  30.223  20.458   2.752 -0.3920  0.0418  0.0133
56011W        W99027  26.548  10.777  18.135 -0.1797  0.1363 -0.0945
56012W        W99028  16.819   8.446  29.172 -0.1637 -0.0865  0.2074
56013W        W99029   0.007   8.779   3.286  0.1511  0.2273  0.0899
56014W        W99030   8.322  33.887  19.666  0.0846 -0.1264 -0.0463
56015W        W99031  23.326  25.522  18.912 -0.1772  0.0202  0.3269
56016W        W99032  12.900  20.229  26.017 -0.0596  0.3299  0.1653
56017W        W99033  21.169  28.507  29.131  0.1870  0.2133  0.1852
56018W        W99034   1.648   8.420   1.064 -0.0033  0.2741  0.2189
56019W        W99035  27.673   5.531  26.228  0.0315 -0.0434  0.3244
56020W        W99036   4.202   8.914   0.640  0.4143 -0.2019 -0.2793
56021W        W99037   8.542   9.700  24.823 -0.2937 -0.0716 -0.1130
56022W        W99038  18.618   2.659  15.814  0.3650  0.1062 -0.0824
56023W        W99039  16.683  14.685   5.947  0.0578 -0.0270 -0.1992
56024W        W99040   4.104  30.429   1.110  0.1265 -0.0096  0.0538
56025W        W99041  12.372   2.891   3.517  0.1528  0.1026 -0.0322
56026W        W99042  21.898  18.146   3.665  0.2034  0.4305 -0.1281
56027W        W99043  18.302   0.432  23.662 -0.0486 -0.0583 -0.0210
56028W        W99044  24.574  23.855  26.842  0.0763 -0.2097 -0.1446
56029W        W99045  12.449  17.499   7.730 -0.0999  0.1387 -0.1608
56030W        W99046  14.300  11.136  18.290 -0.0618 -0.1256  0.0100
56031W        W99047  13.143   6.810  23.413 -0.1539  0.2803 -0.0530
56032W        W99048   3.891   7.040  23.128 -0.2264  0.2201 -0.1840
56033W        W99049  25.637   3.962   2.822 -0.2180  0.2909 -0.1515
56034W        W99050   7.485  12.974   2.466  0.2294  0.0084  0.0864
56035W        W99051   4.884  11.219  16.532 -0.0427  0.3125 -0.1578
56036W        W99052  34.408  31.570   4.123 -0.0493 -0.0758  0.1422
56037W        W99053   2.453   5.234  25.885 -0.0689 -0.3385 -0.1584
56038W        W99054  16.484  34.262  27.935  0.0482  0.1827  0.0960
56039W        W99055  15.532  14.365  20.402  0.0909 -0.0028 -0.0055
56040W        W99056  20.310   6.940   5.814  0.2665  0.0265 -0.0329
56041W        W99057  18.782   1.833  21.882 -0.0261  0.0833 -0.4947
56042W        W99058   8.650  17.033   2.404 -0.2815 -0.2035  0.0777
56043W        W99059  23.290  31.463  17.225 -0.0099 -0.1959 -0.0831
56044W        W99060   5.445   3.555  21.140 -0.0945  0.1103 -0.0166
56045W        W99061  10.549  14.810  29.087  0.0670  0.1140  0.4672
56046W        W99062  34.452  21.408   8.389 -0.0858 -0.0119 -0.0558
56047W        W99063  22.850  29.843  16.980  0.2443 -0.2880 -0.1686
56048W        W99064  11.140   5.975  24.542 -0.0460 -0.1471 -0.3166
56049W        W99065  28.912  33.676   3.966  0.2625 -0.3468 -0.0357
56050W        W99066  17.939  30.303  26.824 -0.0735  0.0885 -0.2441
56051W        W99067  21.535  22.070  28.793  0.2011 -0.0207  0.0497
56052W        W99068  11.347   4.739  15.109  0.0344 -0.2772  0.1980
56053W        W99069  18.459  30.998   1.397  0.1075 -0.0322  0.1878
56054W        W99070  28.210  33.915  28.891  0.3133  0.1794 -0.3070
56055W        W99071   8.074  20.002  13.179 -0.1933 -0.3240  0.2887
56056W        W99072  26.224  34.304   5.826 -0.1097  0.0576  0.0045
56057W        W99073  15.222  30.544  16.046 -0.1776  0.1856 -0.0727
56058W        W99074  17.545  16.303   5.930 -0.1769  0.0454  0.0387
56059W        W99075   4.170   5.467  14.221  0.1266 -0.0761 -0.1749
56060W        W99076  25.722  16.828  24.427 -0.3016 -0.4004  0.0162
56061W        W99077   2.408  34.091  18.144 -0.0275  0.0639  0.0232
56062W        W99078  16.042   7.392  17.986  0.1922  0.0807 -0.1403
56063W        W99079   2.815  19.956  23.929  0.1784  0.2079  0.1586
56064W        W99080  10.351   8.526   0.942 -0.1916 -0.1314  0.0808
56065W        W99081  29.555   8.604   1.574 -0.0900 -0.0199  0.2884
56066W        W99082  12.788   7.276  24.930 -0.1118  0.0153 -0.2497
56067W        W99083   6.807  11.054  16.878 -0.1002 -0.3192 -0.0421
56068W        W99084  11.048   0.664  17.261  0.0115  0.1034 -0.1738
56069W        W99085   5.857   1.077   1.126 -0.1640  0.2987 -0.1951
56070W        W99086  11.807  23.832  27.029 -0.2213  0.2496  0.1874
56071W        W99087   6.739  32.699  28.965  0.2034  0.0273 -0.2502
56072W        W99088   0.485   4.330  20.873 -0.0117  0.1139 -0.0442
56073W        W99089   1.138   2.546  17.657  0.1222 -0.0657 -0.1828
56074W        W99090  14.110  13.423  19.933  0.2260 -0.0968 -0.0667
56075W        W99091  30.890  12.231  17.862  0.3661  0.1145 -0.1549
56076W        W99092  34.723   7.769  27.616  0.0897 -0.0990 -0.2444
56077W        W99093  16.696   0.607  19.153 -0.0288 -0.0593 -0.0575
56078W        W99094  18.736   2.599  14.953  0.1884 -0.1274  0.1324
56079W        W99095   9.280  26.446   2.968 -0.0912  0.0518 -0.0800
56080W        W99096   1.741   9.822  15.057 -0.1114 -0.1998  0.1445
56081W        W99097   3.570  20.131   2.177  0.3054  0.0330  0.1519
56082W        W99098   3.778  17.884   5.134 -0.3508 -0.3918  0.1057
56083W        W99099  25.904   2.977   3.072  0.2220 -0.0109  0.1537
56084W        W99100   0.902  26.514  22.870 -0.1092  0.3298 -0.4913
56085W        W99101  22.251  12.130  13.682 -0.1047  0.0416  0.1494
56086W        W99102  24.373  26.264   2.880 -0.0996  0.1494 -0.1207
56087W        W99103   7.770   9.544  23.370 -0.1063  0.0084 -0.0724
56088W        W99104  23.763   9.668  15.154  0.1321 -0.0129  0.1459
56089W        W99105  25.486  10.387   7.026 -0.1329  0.1885  0.0411
56090W        W99106  30.283   1.021  27.768  0.3083  0.1789 -0.2017
56091W        W99107   2.308  10.007   8.616  0.0676  0.1304 -0.0948
56092W        W99108   5.368  31.801  24.066  0.0685  0.1459  0.0186
56093W        W99109  11.782  13.921  28.500 -0.0136  0.3522  0.1585
56094W        W99110  34.409  13.408  27.550  0.1254  0.1483 -0.0395
56095W        W99111  17.004   6.302  15.050  0.0914  0.0613  0.0685
56096W        W99112  18.368   7.526  16.904 -0.5723 -0.0200 -0.0671
56097W        W99113  11.865  13.351  28.195 -0.1039 -0.2786  0.2009
56098W        W99114  18.848  25.807  27.169 -0.1228 -0.2027  0.0146
56099W        W99115  32.794   8.155  15.378 -0.0760  0.2798 -0.1601
56100W        W99116  28.363  15.359  19.039  0.1699  0.0418  0.0434
56101W        W99117  33.354   5.611   4.426  0.4487 -0.5171  0.1508
56102W        W99118  15.239  20.499  14.036 -0.2945 -0.3987 -0.3762
56103W        W99119   9.828  14.793   8.483 -0.1271  0.2430  0.1869
56104W        W99120  11.587  18.162  20.283 -0.4181  0.1387 -0.0062
56105W        W99121   4.213  24.501  14.608 -0.0844  0.0658 -0.0060
56106W        W99122   8.651   0.806  18.438 -0.0490  0.2565 -0.1718
56107W        W99123  23.170  11.088  14.454  0.3208 -0.1692  0.0026
56108W        W99124  17.673  29.701   3.255  0.0297 -0.1028  0.2202
56109W        W99125   9.111   5.210  16.368  0.5316  0.1717 -0.0932
56110W        W99126  20.472  32.364  28.694  0.3199  0.2324 -0.0286
56111W        W99127   5.556   6.667   6.692  0.0274  0.1768  0.0476
56112W        W99128   6.836  17.139   8.621  0.1795 -0.1529  0.1284
56113W        W99129   7.633  19.760  27.039 -0.0667  0.0752 -0.0709
56114W        W99130  25.454  10.663  18.330 -0.3959  0.1127 -0.3772
56115W        W99131  11.063   8.577  15.083  0.2139 -0.0239  0.0274
56116W        W99132   9.870  28.298  15.646  0.0183  0.0479  0.0375
56117W        W99133   1.436   1.545  17.646  0.3135 -0.0794 -0.1711
56118W        W99134  32.812  24.197  22.100  0.1059  0.1962 -0.1447
56119W        W99135  32.119   4.448   7.364 -0.1684  0.1077  0.0201
56120W        W99136   7.771  27.555  21.453 -0.1871  0.0742 -0.0060
56121W        W99137  24.642  17.221  27.016 -0.3712 -0.3092 -0.1814
56122W        W99138  18.526   1.550   3.489  0.0135 -0.2826 -0.0869
56123W        W99139   5.262  31.797  15.238 -0.2521 -0.1116 -0.1099
56124W        W99140  24.703  16.054  15.974  0.1038  0.4412 -0.1180
56125W        W99141  33.140   4.590   5.209  0.2269  0.2001 -0.0772
56126W        W99142   7.535  32.237  23.525 -0.2252  0.0341  0.2047
56127W        W99143  18.431   8.931  17.703  0.4165  0.1581 -0.1260
56128W        W99144  25.008  11.254   4.354  0.0578  0.1544  0.0497
56129W        W99145  22.032   8.639   9.339 -0.0162 -0.0852  0.0622
56130W        W99146  12.542   5.619  24.870 -0.4406 -0.1524  0.6119
56131W        W99147   8.663   7.035  19.119  0.2442 -0.0183 -0.1003
56132W        W99148  29.656  12.299  18.566  0.2161  0.3962  0.0084
56133W        W99149  20.486  18.073   4.310  0.1498 -0.1146 -0.1088
56134W        W99150   8.982  23.911  24.144 -0.0550 -0.1757 -0.0650
56135W        W99151   5.614   1.152  15.092  0.1173  0.1835 -0.1797
56136W        W99152  10.805  30.334  17.693  0.0707  0.0426 -0.0071
56137W        W99153  27.126  32.790  29.058 -0.1582  0.1331 -0.0598
56138W        W99154  10.668  17.593   2.287 -0.0112 -0.1861  0.1909
56139W        W99155  14.622   0.413  16.004  0.2159  0.1204 -0.2999
56140W        W99156  18.379  32.249  16.400 -0.2868 -0.1290 -0.0058
56141W        W99157  19.321  27.285  16.162 -0.1427  0.1390  0.0004
56142W        W99158  24.686  10.237  21.863 -0.1071  0.2212  0.0131
56143W        W99159  19.664  18.262   8.086 -0.0101 -0.1277  0.0526
56144W        W99160  15.250   4.661  22.139  0.0165  0.2952 -0.1598
56145W        W99161  18.623  33.246  24.164  0.2137 -0.0242 -0.2054
56146W        W99162  12.603  16.075  26.176 -0.1979 -0.0190 -0.2284
56147W        W99163  31.413   2.171   7.669 -0.2112 -0.2094  0.1786
56148W        W99164   8.915  10.163   6.520  0.1043  0.2697  0.0373
56149W        W99165  23.270  15.928  20.262 -0.3300  0.1929  0.0802
56150W        W99166   9.412  13.147   0.449 -0.1062  0.0881  0.0184
56151W        W99167  10.762   0.129  23.845 -0.1561  0.0285 -0.0013
56152W        W99168  20.983  23.534  15.869 -0.2154  0.2801 -0.0676
56153W        W99169  13.771  11.754   0.214 -0.0992  0.0033 -0.1544
56154W        W99170   4.454  14.697  26.271 -0.1132  0.1044 -0.0338
56155W        W99171   2.314   3.340   1.837 -0.2208  0.0177 -0.1305
56156W        W99172  11.066  10.487   8.252  0.1758 -0.1786  0.1491
56157W        W99173  24.074  19.779   4.771  0.0994  0.0958  0.3140
56158W        W99174  17.652   9.546  23.761 -0.0372  0.0078 -0.0999
56159W        W99175  26.567   3.250  27.310 -0.0769  0.1227  0.1036
56160W        W99176  11.275  10.677  16.407  0.1938 -0.1331  0.1030
56161W        W99177  10.332   6.934  15.152 -0.1946  0.2345 -0.1438
56162W        W99178   6.125   6.533  25.534  0.0528 -0.0754 -0.1267
56163W        W99179  13.753   9.137  22.379 -0.2025  0.1961 -0.1479
56164W        W99180   0.315  27.861  20.721 -0.2544 -0.0949  0.0708
56165W        W99181  17.510   9.383  21.510 -0.0787 -0.2326  0.1476
56166W        W99182  31.768  34.158  22.661  0.1710 -0.2371 -0.0627
56167W        W99183  12.563   4.221  29.282  0.4847  0.1244  0.3082
56168W        W99184   4.352  12.519   5.530  0.2529  0.1764  0.1587
56169W        W99185  20.751   3.152   3.028 -0.1592  0.0157  0.1221
56170W        W99186  29.489  16.344  17.153 -0.1545  0.0239  0.0403
56171W        W99187  15.144  18.271  12.851 -0.0193  0.3581  0.0907
56172W        W99188  25.939   4.452  28.364  0.0816  0.0049  0.2887
56173W        W99189  10.547  34.400   8.476 -0.1842 -0.1630  0.0451
56174W        W99190  16.004   9.968   0.415 -0.1832  0.0610 -0.3553
56175W        W99191   2.628  20.778   7.723 -0.1491 -0.0637 -0.0102
56176W        W99192  22.080  34.241  10.624 -0.0188 -0.1677  0.0833
56177W        W99193  18.109   5.270  22.692 -0.3467 -0.3727 -0.1672
56178W        W99194  28.947   8.805   5.216 -0.2374 -0.3426  0.1037
56179W        W99195  11.335  11.363   0.148 -0.2457  0.0683  0.2726
56180W        W99196  34.355   8.440   8.116 -0.0593  0.4081 -0.1390
56181W        W99197  20.774  21.679  24.236  0.0156 -0.2461  0.0532
56182W        W99198  15.130  10.291  27.011 -0.1209 -0.1386 -0.1571
56183W        W99199   8.536  11.407  18.768 -0.2602  0.0395  0.0399
56184W        W99200  20.091  16.397   1.358  0.2014  0.0228 -0.1571
56185W        W99201  24.632   5.158   7.207  0.1768  0.1600 -0.5019
56186W        W99202  16.473   8.387   0.940 -0.0160  0.3013  0.2248
56187W        W99203  16.678  10.788  20.473  0.2173  0.2177 -0.2022
56188W        W99204   2.055  28.968  19.617 -0.2938  0.2602 -0.0936
56189W        W99205  11.367   5.343   5.504  0.0041 -0.1032 -0.1919
56190W        W99206  23.703  12.881   8.282 -0.0262  0.2373 -0.1040
56191W        W99207   0.964  12.593  21.332  0.1551  0.1262  0.1948
56192W        W99208  14.041  16.539  25.247  0.1606 -0.2209  0.2169
56193W        W99209   8.275   8.399   9.395 -0.1516 -0.1457 -0.0330
56194W        W99210  21.713  13.985   2.265  0.1699  0.0236 -0.0020
56195W        W99211  16.219   8.799  17.620 -0.2214 -0.1814 -0.0714
56196W        W99212   7.926   8.120   8.828  0.0464 -0.0650 -0.2703
56197W        W99213  27.043  12.071  26.135  0.2136  0.1946  0.0981
56198W        W99214  22.213  15.718   5.730  0.2208  0.2770  0.2969
56199W        W99215   9.478  11.260   8.832 -0.3886  0.1562  0.2962
56200W        W99216   4.160  18.409  19.221  0.1574  0.0300 -0.2076
56201W        W99217  15.398   1.194  23.798  0.1675  0.0994 -0.0541
56202W        W99218   4.429   3.727   4.492  0.0554 -0.0998  0.0120
56203W        W99219  11.861   2.836  15.648  0.3030  0.2613 -0.0067
56204W        W99220  22.106  15.239  24.619 -0.0286  0.1289  0.2251
56205W        W99221   3.257   9.279  28.752 -0.1586  0.1556 -0.0900
56206W        W99222  13.123   6.318  23.207 -0.3972  0.2469  0.2608
56207W        W99223  28.341   6.694  20.228  0.1088  0.1197  0.3694
56208W        W99224  17.491  15.442  27.074  0.0156  0.0782 -0.0528
56209W        W99225  18.007   0.819   7.737  0.1176 -0.0637 -0.1045
56210W        W99226   6.757   2.472  21.414  0.2569 -0.0653 -0.1765
56211W        W99227  13.210   6.904  26.750 -0.1855 -0.0801 -0.3345
56212W        W99228  15.292   2.163  23.127 -0.3468 -0.2812 -0.2045
56213W        W99229  33.465  15.342  20.360 -0.1706  0.0486 -0.0974
56214W        W99230   5.124  33.010  21.315 -0.1902  0.0070  0.1477
56215W        W99231  22.510   0.854   1.059 -0.0353  0.0105  0.2250
56216W        W99232  21.536   8.658   5.554 -0.1208 -0.1693  0.2325
56217W        W99233   6.855   3.194   0.709 -0.5160  0.1254  0.1895
56218W        W99234  19.013  27.448  22.152  0.0998  0.0255 -0.0498
56219W        W99235   6.978   3.906   9.848  0.1299 -0.0164  0.0006
56220W        W99236  15.152   0.615   4.468  0.2876  0.0328  0.1239
56221W        W99237  10.028  12.312  26.269 -0.0303 -0.2495  0.0074
56222W        W99238   6.478   6.122   4.926 -0.1844  0.3367  0.0205
56223W        W99239   4.340  24.862  15.972 -0.0606  0.2937  0.1597
56224W        W99240   4.238  14.345  28.822  0.0001 -0.0458  0.0359
56225W        W99241  21.448  14.208   4.929  0.1542  0.2247 -0.0053
56226W        W99242  25.685  31.274   3.887  0.1249 -0.2657 -0.0084
56227W        W99243  11.607  13.606   0.632 -0.1679 -0.0227 -0.1288
56228W        W99244   3.346  16.641  15.601  0.0129  0.0185 -0.0165
56229W        W99245   7.998  17.325  15.963  0.0294 -0.0834  0.3967
56230W        W99246  13.535   3.623  24.331  0.0993  0.0314  0.0308
56231W        W99247  26.047   8.356  21.150 -0.4137  0.2106 -0.0561
56232W        W99248  28.618  24.951   4.438 -0.0491 -0.0857 -0.0192
56233W        W99249   5.347   4.630  10.642  0.0174  0.0138 -0.1689
56234W        W99250  24.732   0.774  27.708  0.1992 -0.2438 -0.0207
56235W        W99251   7.337  27.136  22.281  0.0304  0.0829 -0.2445
56236W        W99252   6.711   4.960  15.156 -0.0671  0.0254 -0.0642
56237W        W99253  32.647  28.982  19.714  0.1208  0.1056 -0.1104
56238W        W99254  33.779   7.133  23.556 -0.0133  0.2541  0.0863
56239W        W99255  16.536  21.394   3.393  0.2182 -0.2788  0.2477
56240W        W99256  25.504  10.545  19.571 -0.1724  0.3067  0.0671
56241W        W99257  26.538   7.288  28.533 -0.1496  0.1326 -0.2743
56242W        W99258   2.925   2.832  25.060 -0.2173 -0.0740  0.2799
56243W        W99259   8.530  16.690  20.198 -0.1298 -0.1085  0.0480
56244W        W99260   6.522  10.735   4.649 -0.3043  0.1530  0.3514
56245W        W99261  25.647  19.897  26.888 -0.0331  0.1509 -0.1293
56246W        W99262  32.769   5.770  10.227  0.1641  0.0062 -0.0263
56247W        W99263  21.568  11.219   6.046 -0.1437  0.0506  0.1733
56248W        W99264  13.673  18.251   4.589  0.0397 -0.1657  0.1340
56249W        W99265  15.050  33.175  19.544  0.3495 -0.0986  0.0272
56250W        W99266  13.028   0.570  25.263 -0.0124 -0.0124  0.0194
56251W        W99267  11.491  18.180  22.927 -0.2331  0.1868 -0.1532
56252W        W99268  10.082   9.294  20.593 -0.1167  0.2946  0.0549
56253W        W99269  25.500   9.604   4.059 -0.1147 -0.0911 -0.0045
56254W        W99270  15.818  16.215   1.140  0.1208 -0.1171  0.0651
56255W        W99271  24.156   8.232   4.952 -0.2299 -0.1521 -0.1807
56256W        W99272   6.522  11.244  21.480 -0.2850 -0.2692  0.0996
56257W        W99273  19.362  28.751   1.318  0.1457 -0.4864  0.0864
56258W        W99274   6.711  12.167   9.360 -0.2346  0.1744 -0.1054
56259W        W99275   4.519   2.251   7.885 -0.1053 -0.1417  0.0770
56260W        W99276  23.541  19.503   5.543 -0.0863  0.1609 -0.0959
56261W        W99277  10.716  16.310   4.569  0.0394 -0.0453 -0.3637
56262W        W99278  16.935  25.700  10.280 -0.1723  0.0125  0.0019
56263W        W99279  16.702  18.242   8.333 -0.1227 -0.0396  0.0653
56264W        W99280   8.727  12.268  29.038 -0.1545  0.0378  0.3567
56265W        W99281  16.623  30.533   2.657 -0.0124  0.1198  0.0690
56266W        W99282  12.912  23.035  17.464 -0.0315  0.1543  0.3030
56267W        W99283  16.654  21.260  28.571 -0.0901  0.0447 -0.2216
56268W        W99284  23.512   4.878   1.687 -0.3023 -0.0421  0.0010
56269W        W99285   8.972  11.804   5.647 -0.0041  0.1382 -0.4709
56270W        W99286   1.104  14.372   8.773 -0.0234  0.1041 -0.1441
56271W        W99287  20.200  17.986   3.944  0.3431 -0.1247 -0.1877
56272W        W99288   9.292  20.518  29.096 -0.1330  0.3904  0.1829
56273W        W99289   2.369   0.545  27.074  0.1104 -0.1941  0.1860
56274W        W99290  21.850  32.189   6.301 -0.0726  0.0784  0.1281
56275W        W99291  10.713   6.043   4.066 -0.0070 -0.0562 -0.1221
56276W        W99292  28.842  29.701  23.504 -0.1856  0.1783 -0.2335
56277W        W99293  14.973  16.720  19.598  0.1776 -0.2855  0.1424
56278W        W99294  21.065  15.124  16.123  0.0364  0.0840 -0.2283
56279W        W99295  24.734  33.680   1.037 -0.0046 -0.1080 -0.3219
56280W        W99296  28.536  33.845   0.640  0.0692 -0.0649  0.0183
56281W        W99297  25.131  10.726  23.787  0.1022 -0.1284 -0.0851
56282W        W99298  16.307   5.004  17.863 -0.0712  0.2750  0.0966
56283W        W99299   8.182   1.664  25.242 -0.0588 -0.0873 -0.0818
56284W        W99300   5.203   5.586  27.270 -0.1732  0.4544  0.1276
56285W        W99301  31.064   8.222   6.572 -0.0017 -0.0278  0.1647
56286W        W99302  15.317  34.385   5.969 -0.1555  0.3668 -0.1161
56287W        W99303  12.908  14.890  21.593 -0.2440 -0.0554  0.2937
56288W        W99304  19.143  25.070   6.546 -0.0197  0.1387  0.2106
56289W        W99305  27.004   2.266  23.815  0.1347 -0.2608 -0.2370
56290W        W99306   6.359  29.068  26.134  0.2117 -0.0641  0.2211
56291W        W99307  23.824   5.011  28.296 -0.0786  0.1773  0.0058
56292W        W99308   2.588  11.872  28.304  0.2241 -0.2114 -0.0383
56293W        W99309   0.941  33.560   5.936  0.3320  0.1375  0.1041
56294W        W99310  12.932   1.511  19.579 -0.2754  0.4178  0.0970
56295W        W99311   5.213  13.531   0.689 -0.0036  0.2616  0.0539
56296W        W99312   5.647  13.806   1.916 -0.3033  0.2126  0.2232
56297W        W99313  23.854  23.159  20.945 -0.0965  0.1575 -0.3285
56298W        W99314  19.445  19.721   8.217  0.1971  0.0863  0.0186
56299W        W99315  28.673  20.373  22.071 -0.0597  0.0371 -0.1792
56300W        W99316  20.119  27.175  18.544 -0.0141  0.2631  0.0540
56301W        W99317  33.768   4.331  25.689  0.0162 -0.0056  0.1896
56302W        W99318  18.143   4.981  25.876 -0.0172  0.1287  0.2355
56303W        W99319   3.498  14.936   5.242  0.1555 -0.0325 -0.0916
56304W        W99320  12.833  16.528   2.318 -0.3380  0.1109 -0.1273
56305W        W99321   2.459  10.982   2.426  0.0939 -0.0031  0.1270
56306W        W99322  10.153   7.363   3.020  0.1512 -0.1128 -0.1168
56307W        W99323  27.758   0.489  28.366  0.2409  0.0288 -0.1905
56308W        W99324   0.196  33.304  15.046  0.2611 -0.3970  0.2764
56309W        W99325  20.567   1.396  16.231  0.0802 -0.1495 -0.0327
56310W        W99326  11.425  11.930  17.011 -0.1507  0.0473  0.0370
56311W        W99327  10.237  27.952   7.849 -0.2420  0.3250  0.0575
56312W        W99328  23.653  12.702  23.908  0.1784  0.0104  0.2382
56313W        W99329  12.166  14.185  27.770  0.0419 -0.0276 -0.0330
56314W        W99330  11.802  17.699  23.703  0.0213 -0.0958 -0.1485
56315W        W99331  31.338  13.555   1.468  0.3812 -0.3426  0.0585
56316W        W99332   9.971  15.144  17.319  0.0301  0.0267 -0.2136
56317W        W99333  34.218  24.120  20.112 -0.1873 -0.0920 -0.0294
56318W        W99334  18.522   1.342  24.154  0.3133  0.0903  0.0386
56319W        W99335   7.123   4.496  21.521 -0.2391  0.3129  0.1319
56320W        W99336  13.832  22.856  16.348 -0.0235  0.1214 -0.0922
56321W        W99337   6.725  12.847  13.648  0.1683 -0.4402 -0.0322
56322W        W99338  22.213  11.951  26.989 -0.1257  0.1396  0.0466
56323W        W99339  20.839  14.802  24.405  0.0078  0.0563  0.3839
56324W        W99340   4.886  24.389  20.205  0.1238 -0.1251  0.1528
56325W        W99341   3.199   3.472  23.149 -0.2495 -0.0155 -0.0142
56326W        W99342  10.476   4.970  16.228 -0.1644  0.1641  0.1789
56327W        W99343  22.631  11.081  27.392  0.1554  0.2510 -0.0603
56328W        W99344  31.526  33.580  16.927 -0.2434 -0.0065 -0.0755
56329W        W99345  18.896   0.599  27.495  0.1775  0.2313  0.1578
56330W        W99346  10.502  13.784  23.218 -0.1513 -0.1727 -0.1748
56331W        W99347  11.681   7.255   8.876 -0.2765 -0.1532 -0.1731
56332W        W99348   1.956  28.613  28.071  0.0569  0.4346  0.0228
56333W        W99349  14.043  14.678  24.565  0.1628 -0.1850  0.1137
56334W        W99350   8.314  27.796   8.952 -0.0045  0.1572  0.0410
56335W        W99351   6.232  31.843  18.931  0.1653  0.0905 -0.1287
56336W        W99352  17.259  23.921   0.369  0.1728  0.1716  0.1663
56337W        W99353  30.554   4.308  23.919  0.0396  0.2073 -0.3385
56338W        W99354   0.392  12.045  17.871 -0.1523  0.2536  0.2062
56339W        W99355  14.389  30.804  26.424 -0.2726  0.0887 -0.1221
56340W        W99356   7.921   4.478   3.523  0.1320 -0.0897  0.2032
56341W        W99357   9.466   0.969  17.268  0.1965 -0.3755  0.0597
56342W        W99358  33.783  10.867  28.892 -0.2885 -0.0355 -0.0377
56343W        W99359   1.235  16.778  10.271 -0.1082  0.1248  0.0747
56344W        W99360   9.717   7.587   1.772 -0.2709 -0.4321 -0.2931
56345W        W99361   0.078  31.438   7.396  0.1750  0.2687 -0.2577
56346W        W99362   4.101   6.165  18.278 -0.1325 -0.0814 -0.0706
56347W        W99363   5.199   0.675  28.820  0.2343  0.0226 -0.2035
56348W        W99364  10.781  12.213  27.108 -0.0196 -0.0303  0.3451
56349W        W99365  20.929  17.309  28.555  0.0699 -0.1907 -0.0689
56350W        W99366  10.411   6.762   1.414  0.0978  0.0802  0.0507
56351W        W99367  18.791   4.316  18.395 -0.2097  0.1212 -0.0592
56352W        W99368  14.623   3.517  17.830  0.2066 -0.2107 -0.0775
56353W        W99369  12.659  34.449  26.337 -0.3422  0.3133  0.0915
56354W        W99370  14.806   5.188   7.245  0.2268 -0.3204  0.0533
56355W        W99371  20.740  26.756  23.679  0.2681  0.0959 -0.2990
56356W        W99372  16.880   3.712  20.722  0.1717 -0.2332  0.1506
56357W        W99373  18.566   5.513   4.169  0.0170  0.0561 -0.2312
56358W        W99374   6.551   8.435  23.225 -0.2613  0.2442  0.2663
56359W        W99375   6.192  22.038  24.023 -0.0690 -0.3957 -0.2144
56360W        W99376   9.672  16.083  29.153 -0.1224  0.1818  0.1062
56361W        W99377  11.002  11.074  13.019 -0.1444 -0.1861  0.2338
56362W        W99378  29.724  11.327   2.124 -0.1072 -0.1360  0.4181
56363W        W99379  23.674  26.509   8.165  0.0456 -0.2840 -0.0978
56364W        W99380  32.668  10.936   3.807  0.2345  0.0984 -0.2593
56365W        W99381  26.795  18.705   0.343  0.0273  0.0291 -0.0330
56366W        W99382  23.704  16.191  20.269  0.1045  0.0362 -0.2196
56367W        W99383   3.152   7.575  28.699 -0.0352 -0.1718  0.0816
56368W        W99384  31.509  33.966  15.796  0.0438 -0.0037 -0.3887
56369W        W99385   8.051  15.358  25.840 -0.3297 -0.0596  0.0291
56370W        W99386   7.317  34.648  17.482 -0.1903 -0.0766 -0.1522
56371W        W99387  19.949  14.704   0.180 -0.0666  0.0454  0.1176
56372W        W99388   0.378  25.841   4.945  0.0044 -0.2224  0.1067
56373W        W99389   1.736   3.940   4.134 -0.2743 -0.1832 -0.0332
56374W        W99390  32.530  31.229  19.240 -0.0184  0.0813 -0.1217
56375W        W99391   5.066   0.664   6.030 -0.0641  0.1138  0.0111
56376W        W99392   8.428   3.448  24.392  0.1084 -0.1648  0.1869
56377W        W99393  12.332  23.726  26.538 -0.2432 -0.3191 -0.1051
56378W        W99394   6.474   7.471   7.539 -0.0994 -0.1579 -0.2118
56379W        W99395   5.364   4.466   2.686  0.0582  0.1080  0.0031
56380W        W99396  22.821  26.914  19.025 -0.1041 -0.1330  0.0673
56381W        W99397   2.144   1.739  29.287 -0.1061  0.0139 -0.1453
56382W        W99398  18.304  28.166  25.065  0.1571 -0.0808  0.3399
56383W        W99399  18.884   5.737  19.497 -0.1899 -0.0324 -0.1765
56384W        W99400  17.945  17.714  13.577  0.0070  0.4189 -0.1017
56385W        W99401  18.633  34.393  18.043 -0.1951  0.4793 -0.1104
56386W        W99402  27.040  26.293   7.707  0.1981 -0.1061  0.0706
56387W        W99403  18.175  19.103  12.204  0.0699  0.0531 -0.1127
56388W        W99404  16.470   0.312   4.361  0.1434 -0.4395 -0.0420
56389W        W99405  19.821   2.343   7.097 -0.0611 -0.0450 -0.0049
56390W        W99406  17.553  24.578  23.300 -0.0253 -0.1340 -0.1934
56391W        W99407   3.215  14.060  23.449 -0.2812  0.1722 -0.3784
56392W        W99408  28.444  11.444  20.466  0.3747 -0.1825 -0.0859
56393W        W99409  11.770   4.138  19.163  0.1919  0.0879 -0.0865
56394W        W99410  20.877  11.178   7.036  0.0284  0.0017  0.0034
56395W        W99411  19.018  30.921   2.990 -0.0838 -0.0415  0.0177
56396W        W99412   3.062  14.928  15.632 -0.0657  0.0486 -0.1012
56397W        W99413  10.586  13.827   3.550  0.2060  0.2000 -0.0100
56398W        W99414  11.675  11.130  28.088  0.2442 -0.0843  0.0938
56399W        W99415   7.570   5.698   8.449 -0.2821 -0.0585 -0.0607
56400W        W99416  29.398  20.031  29.281 -0.1199 -0.0881  0.0403
56401W        W99417  17.380  18.737  15.788 -0.1572  0.0170 -0.0871
56402W        W99418  23.073   9.789  16.347  0.2098 -0.0141  0.2379
56403W        W99419  21.118  29.344   2.052  0.0512 -0.1921 -0.0390
56404W        W99420  19.986   7.379  16.261  0.0554  0.1991 -0.3441
56405W        W99421  18.053   2.178   7.250 -0.2042  0.1061 -0.3810
56406W        W99422  16.729  33.533  27.635 -0.0767  0.1643  0.2827
56407W        W99423  16.605  29.047  17.315  0.0206 -0.2681  0.2416
56408W        W99424  34.739  33.128   3.406  0.1589  0.2696 -0.0249
56409W        W99425  17.212  15.218   2.556 -0.2861  0.0398  0.2446
56410W        W99426  10.719  31.383   9.908  0.2043 -0.0971  0.0369
56411W        W99427  17.844  20.038   2.971 -0.0527 -0.2168 -0.1369
56412W        W99428  12.440   5.802   9.741 -0.2285 -0.4825 -0.0383
56413W        W99429   3.452  28.537   2.811  0.2365  0.0962 -0.3001
56414W        W99430  15.093  27.019  14.468 -0.3864  0.1179 -0.3376
56415W        W99431   7.353   9.983   7.892  0.2480 -0.2578  0.5423
56416W        W99432  13.978  10.289   1.403  0.1678 -0.0499  0.3883
56417W        W99433  23.786  21.478   6.240 -0.1322 -0.1332  0.3032
56418W        W99434   8.991  33.855   2.956 -0.4623  0.0607  0.3591
56419W        W99435  20.632   9.287  29.006  0.0528  0.1521  0.2025
56420W        W99436   9.759  22.605   7.282 -0.0862 -0.1128 -0.0067
56421W        W99437  10.023  34.639  28.966  0.0899  0.1931  0.0961
56422W        W99438  22.175   5.711  14.386  0.1817 -0.1109  0.1218
56423W        W99439  27.042   3.440   3.825 -0.0688 -0.0994  0.1104
56424W        W99440  15.030  32.093  19.696 -0.0891 -0.0157  0.2075
56425W        W99441  28.128   5.440  28.906  0.1342  0.0638 -0.1500
56426W        W99442  19.445  18.753  23.193  0.0613  0.0171 -0.2141
56427W        W99443  10.143   9.963  24.409  0.1290 -0.2143 -0.2706
56428W        W99444  16.002  34.298   4.032  0.0063  0.1811 -0.4022
56429W        W99445  12.078  12.555   5.721 -0.1813 -0.0084 -0.0201
56430W        W99446  25.624   6.574  29.319 -0.0361  0.0351  0.3948
56431W        W99447   8.983   9.576  16.019  0.0747  0.2423  0.0674
56432W        W99448   2.357  16.236  25.960  0.2285  0.1340 -0.3126
56433W        W99449  23.359   3.712  10.045  0.1534  0.2418 -0.0567
56434W        W99450   7.203   8.263   4.644  0.1151 -0.2501 -0.0840
56435W        W99451  12.581  12.729  14.859  0.0653 -0.2142  0.0151
56436W        W99452   8.448  32.365  23.590 -0.1070  0.1738  0.0082
56437W        W99453  18.132  24.433   2.971  0.0088 -0.1845 -0.0876
56438W        W99454   7.793  12.420  18.959  0.1935  0.2419  0.2449
56439W        W99455  16.117   0.866   1.759 -0.2281  0.0291  0.0482
56440W        W99456  10.285  28.300  29.017 -0.1721 -0.4502  0.0141
56441W        W99457  28.076   9.610  10.157  0.2218  0.0838  0.0470
56442W        W99458  12.322   4.453  25.136 -0.1332  0.0566  0.1975
56443W        W99459   5.791  10.411  25.156 -0.1250 -0.0879 -0.0698
56444W        W99460   6.445   6.318   1.851  0.0685  0.1572 -0.1348
56445W        W99461   7.577  16.447  22.420  0.0585  0.2116 -0.3306
56446W        W99462  22.251  12.198   3.077  0.0381  0.5537  0.0071
56447W        W99463  15.992   2.417   6.391  0.3313 -0.2600  0.2487
56448W        W99464  13.280  26.049   0.830 -0.0355  0.0447  0.0424
56449W        W99465  14.117  30.363  16.675 -0.0983  0.1458  0.1265
56450W        W99466  14.503  22.551  27.688 -0.1141 -0.1273  0.2752
56451W        W99467   9.868   1.345   7.822 -0.1639  0.0615  0.2323
56452W        W99468  10.415  13.575   1.266  0.1892  0.0404  0.1062
56453W        W99469  13.279  19.204   4.585 -0.2004  0.0504 -0.2263
56454W        W99470  15.589   5.006   6.196 -0.2016 -0.0156 -0.1964
56455W        W99471  10.750  25.640   4.884  0.1125  0.1612  0.1330
56456W        W99472  26.280  18.383   5.227 -0.1025 -0.0371 -0.2421
56457W        W99473  15.955  33.455  20.026 -0.0742  0.2451 -0.0452
56458W        W99474  17.772   4.406  18.325  0.0680 -0.0965 -0.2196
56459W        W99475  20.292   9.730  29.080 -0.2585  0.0131 -0.0770
56460W        W99476  29.438  12.677  16.618  0.4002 -0.0535  0.0141
56461W        W99477  26.732  11.939  25.247 -0.2153  0.1711  0.0405
56462W        W99478   5.465  16.548  27.954 -0.1763  0.3053 -0.0479
56463W        W99479  22.968  14.850  21.824  0.1203  0.1716  0.0035
56464W        W99480  33.519  10.437   2.362 -0.4899 -0.2094 -0.1075
56465W        W99481   2.653  15.006  23.584  0.0485  0.0888 -0.1442
56466W        W99482  27.573  20.707   5.850 -0.1265  0.2547 -0.0469
56467W        W99483   3.718  15.072   9.120  0.2464 -0.0088 -0.2349
56468W        W99484  20.735  34.454   2.739  0.0038 -0.0480 -0.2148
56469W        W99485  11.109   7.967  16.898  0.0389 -0.1917  0.2527
56470W        W99486  21.650  15.430   1.296  0.1319  0.1961 -0.0321
56471W        W99487   7.821   1.679   6.879  0.0194  0.0709 -0.0032
56472W        W99488  15.550   4.657   1.362 -0.0534 -0.0313 -0.2046
56473W        W99489  12.664  14.032  25.033 -0.2784  0.0035 -0.3399
56474W        W99490  14.867  25.621  16.663  0.1967 -0.1581  0.1239
56475W        W99491   6.215   5.784   8.543  0.1679 -0.3817  0.1984
56476W        W99492  12.719  33.892  15.301  0.1796 -0.0551 -0.2253
56477W        W99493  19.609   1.406  20.479  0.0166 -0.0137 -0.1399
56478W        W99494  21.981   1.663   6.336  0.0856 -0.0534  0.1064
56479W        W99495   2.374  12.163  24.499 -0.2493 -0.1705  0.3127
56480W        W99496  11.696  21.718  26.126  0.0777  0.2143  0.0902
56481W        W99497   8.456   7.281   2.496 -0.1882  0.2815 -0.0185
56482W        W99498   4.308   8.657   8.056 -0.1102 -0.1498  0.0276
56483W        W99499   7.238  32.512  25.023  0.4961  0.0200  0.0068
56484W        W99500  34.131  16.734   3.977  0.3127 -0.0961 -0.0114
56485W        W99501  11.411  25.354   0.673  0.0054 -0.0392 -0.0678
56486W        W99502   8.814   5.259  26.661 -0.0203  0.1998  0.2642
56487W        W99503  15.697   4.500  23.530 -0.0757 -0.2479  0.4540
56488W        W99504   3.914   8.485   2.054  0.0939 -0.0885  0.1030
56489W        W99505   5.150  28.791   6.956  0.0264  0.2023 -0.0203
56490W        W99506  33.956   7.058  22.662 -0.1651  0.0278  0.0750
56491W        W99507   7.259  29.248  21.537  0.1724  0.0275 -0.2077
56492W        W99508  32.738  22.070  22.257  0.1381 -0.2380 -0.2756
56493W        W99509   2.599   9.658  22.081  0.2776 -0.2129 -0.0434
56494W        W99510  17.253  29.288  29.127 -0.0156  0.1005  0.3831
56495W        W99511  15.146  22.880   1.229 -0.0484 -0.0034 -0.1433
56496W        W99512   9.397   1.947  23.265  0.0137 -0.1204  0.0788
56497W        W99513   9.932   7.810   8.070  0.1574  0.1444 -0.0659
56498W        W99514  14.816  18.316   7.010 -0.2202 -0.2220  0.4249
56499W        W99515  32.473  12.215   1.270  0.2406  0.0550  0.2887
56500W        W99516  10.953  15.872  15.544  0.1443  0.0161 -0.1273
56501W        W99517   3.299  13.735   6.292  0.2225 -0.2567 -0.0755
56502W        W99518  18.499   9.656   9.694  0.2440 -0.1490  0.3194
56503W        W99519  16.147  18.231   8.176 -0.0078 -0.1066  0.2526
56504W        W99520   8.041   8.585   1.068  0.2284 -0.0288  0.2434
56505W        W99521  27.120   1.929  26.820 -0.3079  0.4012 -0.1798
56506W        W99522  25.229   1.328  15.456 -0.1782  0.0894  0.2749
56507W        W99523   6.104  23.895  24.206 -0.1452  0.1074 -0.0764
56508W        W99524  22.808   3.993  17.838 -0.0971 -0.2370 -0.1795
56509W        W99525  33.429   2.935   5.917  0.0301  0.1016 -0.1400
56510W        W99526  11.448  11.603  27.934 -0.1440 -0.1816 -0.1354
56511W        W99527   4.568   3.180   9.692  0.1250  0.2760  0.3934
56512W        W99528  24.159  20.335  28.633 -0.1165  0.2024 -0.2561
56513W        W99529  12.058   6.660   4.344 -0.2602  0.0004  0.1430
56514W        W99530  33.085   7.100   2.415  0.2142 -0.0574  0.1438
56515W        W99531  15.431  34.705  19.494  0.0456 -0.0601  0.1519
56516W        W99532   6.894   5.742   3.812  0.0002 -0.4952 -0.2218
56517W        W99533  18.237  22.642   4.823 -0.3753  0.0283 -0.0689
56518W        W99534   3.127  21.852   3.127  0.4164 -0.0431 -0.1047
56519W        W99535  32.991   7.752   8.749 -0.0363 -0.0424  0.2622
56520W        W99536   3.088   4.061  17.860 -0.1256 -0.3943 -0.0360
56521W        W99537  14.893  13.816  13.606  0.0354  0.0973  0.0393
56522W        W99538  13.599  12.459  14.077 -0.1061  0.0796  0.0696
56523W        W99539  14.006   2.637  15.374  0.2141  0.1340 -0.0605
56524W        W99540  12.360  34.052  28.547 -0.3540 -0.0451  0.0363
56525W        W99541   5.970  12.814  22.223 -0.2532 -0.0892 -0.4080
56526W        W99542  25.227   8.369  20.873 -0.1636  0.4580 -0.1037
56527W        W99543   9.834  18.164  12.963  0.2561 -0.2188 -0.1597
56528W        W99544  33.593  15.735  26.599  0.2070  0.1864 -0.0721
56529W        W99545  15.211  29.769  20.976 -0.0078 -0.4296 -0.2440
56530W        W99546   3.009  11.396  22.485 -0.4541  0.2385 -0.2093
56531W        W99547   5.093   9.958  25.252 -0.0499  0.1213  0.0543
56532W        W99548   2.986   4.950  28.490 -0.0461 -0.0125  0.2091
56533W        W99549  18.160  30.084   1.495 -0.2262  0.1474 -0.3264
56534W        W99550  17.473  13.070  21.372  0.3092  0.1463 -0.2002
56535W        W99551  22.212  33.077  27.796  0.1605  0.2597 -0.3144
56536W        W99552   5.235  27.403   4.937 -0.1382  0.1642  0.0071
56537W        W99553  16.837  30.674  16.577  0.3247  0.1960  0.0924
56538W        W99554  10.577   9.734  22.341  0.1711  0.3611 -0.1931
56539W        W99555   9.468   1.266  28.563  0.2423  0.0449 -0.1981
56540W        W99556   5.155  20.979   6.765  0.2774 -0.0114  0.1841
56541W        W99557  13.844  13.586  24.863  0.2146 -0.1657 -0.1466
56542W        W99558  29.955  26.766   6.962 -0.1116 -0.2560  0.0490
56543W        W99559  30.620  11.092  24.184 -0.1932  0.0743  0.1706
56544W        W99560   8.575  26.505  21.376 -0.3883 -0.0192  0.1466
56545W        W99561   8.460  12.664  28.725  0.1214 -0.1412  0.1792
56546W        W99562   2.744  24.377  27.895 -0.1831 -0.1732 -0.3837
56547W        W99563  17.992   3.170  28.129 -0.3582 -0.3843  0.0475
56548W        W99564   0.949   2.896  24.647 -0.3087  0.2352  0.0584
56549W        W99565  27.213  11.959   0.404  0.0778 -0.0749  0.0280
56550W        W99566  11.227  23.052   0.523  0.1462 -0.0214  0.1273
56551W        W99567  26.653  24.285   2.459  0.1935  0.0891  0.0950
56552W        W99568   9.636  23.076  19.901 -0.2778 -0.3558 -0.1643
56553W        W99569  10.689  27.376  27.522  0.1675  0.0439 -0.2711
56554W        W99570  14.751  21.045  22.923 -0.0160 -0.1089  0.1238
56555W        W99571  14.346  12.835   1.282 -0.1438 -0.0493 -0.0078
56556W        W99572  12.207  18.159  28.834  0.1387 -0.0592 -0.0923
56557W        W99573  19.292  15.883  23.202  0.0976  0.0701 -0.0604
56558W        W99574  11.981  24.142  24.577  0.2805 -0.1098  0.0092
56559W        W99575  10.856   1.842   6.762  0.0591  0.1563  0.0862
56560W        W99576  11.557  24.376  20.976  0.2648 -0.1038  0.1996
56561W        W99577  11.264  19.248  25.559  0.1847  0.1499  0.0941
56562W        W99578  12.115  18.556  21.460  0.3895 -0.1228 -0.0667
56563W        W99579   1.979  14.150  23.359  0.1075 -0.0715  0.1729
56564W        W99580  20.722   1.073  25.328  0.1418  0.2550 -0.0446
56565W        W99581  14.744   4.243  26.388 -0.2194  0.0440 -0.2317
56566W        W99582  15.026  10.311  20.174 -0.0325  0.0620  0.1410
56567W        W99583  25.021   7.955  16.059  0.3696  0.1280  0.5013
56568W        W99584   5.198  13.309  18.092 -0.0067  0.0419 -0.2022
56569W        W99585  17.264   8.638  21.505 -0.0890 -0.0683  0.0223
56570W        W99586  24.302  28.912  28.137  0.0226 -0.0782  0.1811
56571W        W99587  12.478  11.575   6.933 -0.1311  0.1096  0.2998
56572W        W99588   8.765  21.183   5.888 -0.3024  0.0361  0.2055
56573W        W99589  11.410   5.878  15.417 -0.1032  0.2176  0.0942
56574W        W99590  13.295  22.177  27.837  0.3913  0.0978  0.1826
56575W        W99591   0.828  34.054  28.263 -0.2352  0.1899  0.0801
56576W        W99592  17.521   5.837  22.215  0.2535 -0.0784 -0.2129
56577W        W99593  32.191  20.787  27.641  0.2626  0.2273  0.1647
56578W        W99594  10.199  19.224  17.548  0.3559  0.1096  0.1107
56579W        W99595  29.005  19.702   0.243  0.0456 -0.3468  0.0304
56580W        W99596  28.673   3.995  17.985  0.2876  0.0017 -0.0489
56581W        W99597  11.783  11.389  25.678  0.0573  0.0513 -0.4408
56582W        W99598  16.939  13.814   6.318  0.1748 -0.0419  0.0022
56583W        W99599  26.832  29.142  28.778  0.2080  0.1160  0.1304
56584W        W99600   9.494   7.120   1.660  0.1169 -0.0171 -0.1559
56585W        W99601   0.744   0.848  21.961  0.3755 -0.0575  0.1717
56586W        W99602  16.690  33.346   6.662  0.0057  0.0306 -0.1624
56587W        W99603  27.339  25.687  25.433 -0.1453 -0.3402 -0.0496
56588W        W99604  32.394  17.129  28.481  0.2770 -0.0505  0.2316
56589W        W99605  23.021  26.275   6.158  0.1411  0.0386 -0.1450
56590W        W99606   7.274  12.598   4.475 -0.4467  0.0300  0.0527
56591W        W99607  31.112  12.287  18.688 -0.1505 -0.1156  0.4622
56592W        W99608  10.685  10.078   3.998 -0.1162 -0.4658  0.1422
56593W        W99609   5.377  14.562   4.094  0.1366  0.0833  0.1274
56594W        W99610  20.690  31.611   2.286 -0.0505 -0.3226 -0.3969
56595W        W99611   4.542  10.185   9.665  0.3648  0.0342  0.1261
56596W        W99612  31.933   9.830  14.961  0.0026 -0.1494  0.3154
56597W        W99613   3.803  25.456  17.999 -0.4318 -0.0518  0.1979
56598W        W99614  16.414  11.205   5.786  0.0367 -0.0036 -0.0085
56599W        W99615   0.200   2.399  24.898  0.1146 -0.0554  0.1392
56600W        W99616  26.463   7.624   9.182 -0.0946 -0.2255  0.4250
56601W        W99617  25.438   4.291  16.973  0.0717  0.0275  0.0486
56602W        W99618   0.086   4.652   6.792  0.3696 -0.0196 -0.0996
56603W        W99619  19.665  24.277   9.377 -0.1654 -0.2633 -0.2560
56604W        W99620  15.790  10.914   7.410 -0.2735 -0.0396  0.0346
56605W        W99621  17.762  20.235   6.767 -0.0307 -0.0165  0.1686
56606W        W99622  17.498  18.011   7.350  0.3120  0.0452 -0.1275
56607W        W99623  12.570  15.628  21.755 -0.0847  0.0713 -0.2489
56608W        W99624   8.217   3.424   2.234  0.2605  0.0820  0.1355
56609W        W99625   0.400  22.107   3.293 -0.0279 -0.1404  0.1743
56610W        W99626  13.041  23.344   5.174  0.3306  0.0143  0.1678
56611W        W99627  28.062  25.512  26.856 -0.1584  0.1790 -0.0810
56612W        W99628  11.485   2.704   0.121 -0.1931 -0.3765 -0.3155
56613W        W99629  16.403   5.402  21.522 -0.1815 -0.1226  0.0282
56614W        W99630   8.848   6.595  17.407  0.0965 -0.0637  0.0045
56615W        W99631  14.343   0.876   4.177  0.3103 -0.0797 -0.1473
56616W        W99632  12.340  15.841  16.167 -0.0255 -0.0168 -0.3265
56617W        W99633   4.588  28.058   5.119  0.2771  0.3317  0.0307
56618W        W99634   9.449  34.193   7.162 -0.0206 -0.5182  0.0227
56619W        W99635  24.911  33.621   2.359  0.0684 -0.0982  0.2074
56620W        W99636  29.269   9.928  10.406 -0.0548  0.2526  0.0888
56621W        W99637   3.947  17.907  22.434 -0.0270 -0.0561 -0.0896
56622W        W99638   9.967  29.995  29.260  0.0573  0.0146 -0.1761
56623W        W99639  13.388  33.487   9.187 -0.1148 -0.1938  0.2487
56624W        W99640  11.380   3.951   2.407  0.1190 -0.2281  0.1561
56625W        W99641  22.116  15.118   5.708  0.2569 -0.4901  0.1264
56626W        W99642  13.043   7.695  26.050 -0.3699 -0.3619 -0.0443
56627W        W99643  14.910   5.206  28.887  0.4995  0.0692 -0.3876
56628W        W99644  34.234   9.687  21.595 -0.2965 -0.1755  0.2256
56629W        W99645  16.690   7.955  21.338 -0.2929 -0.2708  0.0083
56630W        W99646   5.598  14.200   2.246  0.2123  0.0467  0.2135
56631W        W99647  27.695   3.188  28.697 -0.2065  0.1367 -0.1064
56632W        W99648   8.386   9.581   4.547 -0.2025  0.2786 -0.1572
56633W        W99649  14.277  34.377   3.840 -0.1058  0.2675 -0.1821
56634W        W99650   1.070  22.247  18.761  0.1507  0.0038 -0.1975
56635W        W99651   9.965   6.830  24.094 -0.0412  0.0373  0.3880
56636W        W99652  15.602   1.264  14.618 -0.1713  0.1939  0.2755
56637W        W99653  21.836  17.980  23.784  0.2530 -0.2077  0.0613
56638W        W99654  22.705  11.211  18.650  0.0971  0.0541  0.1869
56639W        W99655  34.464  16.308  18.436 -0.0828 -0.2401 -0.4406
56640W        W99656  14.765  13.536  19.512 -0.0157 -0.2324 -0.0209
56641W        W99657  22.347  14.043  25.889 -0.1422 -0.2328  0.1748
56642W        W99658  16.654   4.044  15.798  0.3669 -0.4047  0.1209
56643W        W99659   8.885   2.640  15.934 -0.0809 -0.1001 -0.1023
56644W        W99660  11.514  14.011  21.478 -0.1526  0.0658 -0.1761
56645W        W99661  30.048  20.978  19.946  0.3321  0.2381 -0.0004
56646W        W99662  12.486   5.489  19.438  0.1370  0.0798 -0.3554
56647W        W99663   0.064   2.791  14.742  0.2885 -0.0289  0.1285
56648W        W99664  29.970  10.573  28.678  0.1231  0.0686  0.3128
56649W        W99665  23.826  16.789   8.581  0.0785  0.2149  0.0748
56650W        W99666   1.526  24.236  17.074  0.3079  0.1895  0.3426
56651W        W99667   1.270   4.320  14.535 -0.1422  0.0801 -0.1545
56652W        W99668   9.668  21.447  20.828 -0.1280 -0.1483 -0.1553
56653W        W99669  33.757  17.778  26.095  0.3060 -0.1608  0.0128
56654W        W99670  15.238  10.667  13.077 -0.0195  0.2810  0.1555
56655W        W99671  18.925   7.598  22.977 -0.1687 -0.4607  0.1163
56656W        W99672  12.275   5.408  21.046  0.3383 -0.0696 -0.1391
56657W        W99673  13.074   0.593   9.893  0.0785  0.3963 -0.1576
56658W        W99674  29.531  16.179  20.104 -0.1951 -0.0580 -0.0836
56659W        W99675  17.703  34.068  28.285 -0.2442  0.0787 -0.1440
56660W        W99676  18.081  13.527  14.336  0.0482 -0.1327 -0.0078
56661W        W99677   1.389  10.919  17.555  0.0523 -0.0549  0.0712
56662W        W99678  10.591  15.471  13.640  0.1061  0.0205 -0.1538
56663W        W99679  28.001  13.408  23.744  0.0058  0.1604 -0.1717
56664W        W99680   9.048  20.200  23.677  0.0993 -0.4575 -0.0767
56665W        W99681  16.842   7.533  23.847  0.0846 -0.2856  0.2247
56666W        W99682   0.844   9.603  26.232  0.1892  0.1082 -0.1012
56667W        W99683   9.990   7.581  14.863  0.0092  0.0621  0.0096
56668W        W99684  10.569   9.371  21.078 -0.2474 -0.2692 -0.0347
56669W        W99685   9.678  11.202  15.342 -0.4785  0.0772 -0.0268
56670W        W99686  32.327   5.831  21.212 -0.0106 -0.1777  0.1855
56671W        W99687  26.886  13.793  16.657 -0.2883 -0.1531 -0.0129
56672W        W99688  20.521  26.535  28.359 -0.4594 -0.0690 -0.3303
56673W        W99689  34.385   6.330  14.681 -0.1855  0.0019  0.3102
56674W        W99690  19.410   3.952  26.021 -0.2763  0.4644  0.0140
56675W        W99691  17.811   8.781  20.412 -0.0818 -0.2883 -0.1655
56676W        W99692   8.585  19.899  17.672 -0.0596  0.0176  0.1391
56677W        W99693   4.900  13.296  28.681  0.2268 -0.0221 -0.1857
56678W        W99694  15.288  18.627  14.359  0.1287  0.1508  0.1295
56679W        W99695   9.997  17.580  14.246  0.1404  0.0462  0.1361
56680W        W99696   8.187  18.992  17.214 -0.1515 -0.1879  0.2238
56681W        W99697  30.249   6.378  19.395  0.0652  0.0846 -0.2571
56682W        W99698  13.883  33.560  22.479 -0.3786  0.0235  0.4276
56683W        W99699  32.408  30.212  21.743  0.1096  0.0628 -0.1083
56684W        W99700  10.704  13.665  28.522 -0.1530 -0.0700  0.0006
56685W        W99701  22.820  22.691  21.787 -0.0218  0.2442 -0.0378
56686W        W99702  14.619  20.790  13.351  0.0887  0.1878 -0.1222
56687W        W99703  31.401  23.851  18.614 -0.2911 -0.1751 -0.3026
56688W        W99704  29.275  11.127   9.363 -0.1264 -0.3335 -0.2247
56689W        W99705  28.026  15.085  25.061  0.0135  0.0138 -0.0611
56690W        W99706   5.625   6.672  26.520 -0.2240  0.0155  0.1158
56691W        W99707   8.137   1.238  17.158  0.3184  0.1826  0.0343
56692W        W99708   4.802  22.640  22.963 -0.0435  0.1773 -0.1235
56693W        W99709  19.694  27.845  17.536  0.1234 -0.0534 -0.0120
56694W        W99710  25.138  11.829  17.292  0.1915  0.0994 -0.1309
56695W        W99711  22.226  23.242  22.434  0.1399  0.0029 -0.2586
56696W        W99712   7.158   7.551  20.700  0.2172 -0.0077  0.0664
56697W        W99713  14.059   7.282  22.205 -0.2330 -0.0238 -0.0720
56698W        W99714   2.059  30.563   0.126  0.2036 -0.0617 -0.1730
56699W        W99715  14.795  34.413  16.639  0.1776 -0.0705 -0.4260
56700W        W99716  27.437  18.532  26.732  0.1348  0.1887 -0.0683
56701W        W99717  31.549   1.343  16.397  0.0663 -0.2872  0.0065
56702W        W99718  23.588  17.975  19.012 -0.0778 -0.1040 -0.1649
56703W        W99719  11.629  24.758  14.122 -0.0190 -0.2024 -0.0118
56704W        W99720   5.915  15.938  16.922  0.0987  0.1120  0.0014
56705W        W99721  34.639  11.444  23.098 -0.3374  0.0956  0.2411
56706W        W99722  12.982  24.353  20.812  0.3638  0.0765  0.1926
56707W        W99723   7.898  14.841  18.454 -0.0654  0.2456 -0.0813
56708W        W99724  10.298  21.702  14.025 -0.0304 -0.3063 -0.0181
56709W        W99725  13.171  28.956  21.252 -0.2225  0.0528  0.2067
56710W        W99726   5.255  13.359  21.951  0.1602  0.1277  0.1385
56711W        W99727  17.532  18.465  13.251  0.1234 -0.1986  0.1333
56712W        W99728  23.155  13.280  21.542  0.4087  0.0269  0.3589
56713W        W99729  15.470   5.758  12.504 -0.1915 -0.0184  0.0415
56714W        W99730  15.160  14.261  19.523  0.1056  0.0228  0.2365
56715W        W99731   7.353   9.241  19.526  0.1553 -0.1563 -0.0332
56716W        W99732   4.998   1.578  21.219  0.1253 -0.0537 -0.0702
56717W        W99733   6.166   8.275  26.006 -0.1580 -0.0859  0.0924
56718W        W99734  14.882  28.276  15.686 -0.1962 -0.0175 -0.2120
56719W        W99735   3.183  34.346  14.675  0.0980 -0.1919 -0.2226
56720W        W99736   6.924  16.488   3.096  0.0707 -0.2876 -0.1607
56721W        W99737  20.457  30.256  19.038 -0.1227  0.0926  0.4016
56722W        W99738  13.177  20.835  12.286 -0.1102 -0.1836  0.5560
56723W        W99739   0.542  16.207  26.408 -0.1988  0.2447 -0.1353
56724W        W99740  24.723   6.521  22.750  0.1447  0.1704 -0.1983
56725W        W99741  21.675   8.118  19.476 -0.0268  0.1462  0.3595
56726W        W99742  10.970  12.499  13.493 -0.0771 -0.3543  0.0064
56727W        W99743  10.910   8.511  16.975  0.5243  0.0066 -0.0012
56728W        W99744  18.471  26.006  17.898 -0.0617 -0.1376 -0.1384
56729W        W99745   7.502   7.739  18.980  0.3704  0.2800 -0.0575
56730W        W99746  27.383  12.889  29.152  0.1849  0.0664 -0.0545
56731W        W99747  26.233  12.763  20.589  0.0942 -0.1374 -0.1489
56732W        W99748   2.232   3.840  23.044 -0.0105  0.0812  0.1359
56733W        W99749   6.503  13.658  15.304  0.0773 -0.2114  0.1032
56734W        W99750  12.712  17.632  16.394  0.0747 -0.0174 -0.0944
56735W        W99751  23.451  16.855  19.249  0.1878  0.3474  0.0007
56736W        W99752  18.283  11.948  12.965 -0.4600 -0.0053  0.3735
56737W        W99753   2.043  21.110  15.620  0.0873  0.3024  0.1461
56738W        W99754   6.393   1.252  19.716 -0.0801  0.1104 -0.1060
56739W        W99755  34.114   8.206  21.446 -0.0859 -0.2742 -0.0315
56740W        W99756   2.731  13.394  23.379 -0.0204  0.0033  0.1289
56741W        W99757  10.116   9.882  22.714 -0.0059  0.0213  0.2418
56742W        W99758  16.990   6.108  29.084  0.0445  0.2751 -0.3951
56743W        W99759  21.741   7.180  14.896  0.0454  0.1869 -0.3071
56744W        W99760  18.617  24.118  25.504 -0.1773 -0.0294  0.0061
56745W        W99761  20.667  12.162  20.542 -0.1649  0.0491 -0.1655
56746W        W99762   6.415  13.248  28.834 -0.0033 -0.1324 -0.2128
56747W        W99763  22.677  16.809  15.782 -0.3941  0.0059  0.1678
56748W        W99764   8.065  27.102  23.253 -0.2860 -0.1399 -0.4658
56749W        W99765  14.240  23.323   1.584  0.1901 -0.0573  0.1261
56750W        W99766   4.030   2.570   0.216  0.2038 -0.3130 -0.0121
56751W        W99767   0.082  28.639  15.846 -0.0106  0.0403 -0.1003
56752W        W99768   7.844  18.826  16.830  0.0052  0.3433  0.0193
56753W        W99769  21.503  18.103  20.759 -0.1399  0.2202  0.0308
56754W        W99770  25.380  32.784  24.189 -0.0667  0.3387  0.0292
56755W        W99771   0.339  16.672  26.448 -0.1281  0.0889 -0.1051
56756W        W99772  13.999  33.525  23.304  0.0264 -0.0624  0.1799
56757W        W99773  13.685   0.172  13.729  0.0366 -0.1041  0.0983
56758W        W99774  15.280   6.595  18.032 -0.2234  0.0024  0.2069
56759W        W99775  15.682  10.569  13.349  0.3632 -0.0160  0.4186
56760W        W99776  14.702  25.943  25.729 -0.2691  0.0257 -0.1078
56761W        W99777  15.232  10.351  13.566  0.1668  0.1505 -0.0705
56762W        W99778  24.405  15.669  14.234  0.1796 -0.1921  0.2240
56763W        W99779  12.057  10.613  20.907  0.7131  0.0792  0.3179
56764W        W99780  22.754  32.349  20.566 -0.1063 -0.0360  0.3463
56765W        W99781  26.616  14.693  18.091 -0.0701 -0.2602  0.0078
56766W        W99782  12.399   8.527  15.757 -0.1048 -0.0008 -0.2430
56767W        W99783  15.907  11.421  14.803 -0.1166  0.2826 -0.1251
56768W        W99784  19.790  11.638  16.061 -0.3704 -0.1060 -0.2249
56769W        W99785  21.898  23.593  16.753  0.0468 -0.2288  0.0595
56770W        W99786  12.322  16.624  16.814  0.0011 -0.0948 -0.1228
56771W        W99787  11.211  18.897  21.096 -0.1490 -0.1794 -0.2561
56772W        W99788  30.875  16.748  23.063  0.0774 -0.0022 -0.1810
56773W        W99789  26.781  34.069   1.877  0.3450 -0.2445  0.1079
56774W        W99790   8.284  24.800  14.367  0.0047  0.3205 -0.1135
56775W        W99791  28.475  22.401  23.282 -0.2540  0.2475  0.1466
56776W        W99792   4.148  10.581  20.061 -0.0109 -0.1718  0.1218
56777W        W99793   8.332  29.603   3.904 -0.0889  0.3835 -0.1268
56778W        W99794  13.159   5.182  14.116 -0.0751  0.1828 -0.0396
56779W        W99795  32.161  11.146  14.883 -0.1028  0.1519  0.4700
56780W        W99796   8.493   6.424  16.054  0.1826  0.2395  0.1156
56781W        W99797  22.226   2.099  25.976  0.1074  0.3573  0.2038
56782W        W99798   9.469  15.049  14.513 -0.0195 -0.0741 -0.0704
56783W        W99799  13.896  34.706  18.057  0.1120 -0.1821  0.1020
56784W        W99800   3.687   9.515  18.013 -0.5263 -0.1274  0.2010
56785W        W99801  33.178  15.532   3.994  0.3152  0.2929 -0.2628
56786W        W99802   7.635  14.030  16.668 -0.1534 -0.0418 -0.1906
56787W        W99803  23.181  17.757   2.393  0.1750  0.4333  0.2826
56788W        W99804  15.285  11.790  14.566  0.2953  0.2271  0.5236
56789W        W99805  11.673   7.710  18.299 -0.1997 -0.3495  0.0802
56790W        W99806  14.179  11.210  22.088  0.2195  0.1887 -0.2099
56791W        W99807   9.287   6.707  15.509  0.0259 -0.3296 -0.0866
56792W        W99808   2.802   9.230  24.284  0.0385 -0.1417  0.1986
56793W        W99809   9.592  14.069  23.228 -0.0444 -0.0903 -0.1224
56794W        W99810   1.792  22.150  26.042  0.0607  0.2159 -0.1960
56795W        W99811  29.078  11.001  15.672  0.2235 -0.1052  0.1082
56796W        W99812  14.091   8.194  18.581 -0.2596  0.1141  0.1307
56797W        W99813  24.147  23.822   2.314  0.0070 -0.2404 -0.1727
56798W        W99814  15.050   6.503  25.787 -0.0582  0.1316 -0.0233
56799W        W99815  30.435  11.284  27.479  0.0479  0.0399  0.1642
56800W        W99816   7.533  21.118  14.343 -0.0538 -0.2083  0.2961
56801W        W99817   2.764  22.712  21.515  0.0419 -0.0836 -0.3005
56802W        W99818  14.585   6.153  13.801 -0.2004 -0.0869  0.2161
56803W        W99819   6.313   6.030  16.184  0.2123 -0.0036  0.3004
56804W        W99820  17.152   6.556  20.682  0.3012 -0.0535  0.1229
56805W        W99821  23.818  22.818  22.394  0.2472  0.0627  0.0869
56806W        W99822  10.256  33.132  27.757 -0.0424 -0.0779 -0.2243
56807W        W99823  29.116  21.588  23.779  0.1890  0.0982  0.2160
56808W        W99824   0.351  33.531  16.324 -0.1394  0.0835 -0.0657
56809W        W99825  12.741  34.507  21.921  0.0472  0.3968  0.2777
56810W        W99826  10.636   2.596  15.082 -0.3036  0.2337  0.0471
56811W        W99827   6.918   0.005  20.625 -0.0716  0.2740  0.1189
56812W        W99828   8.323  17.657  15.766 -0.1666  0.2559  0.1270
56813W        W99829   6.585  21.029  16.173 -0.0952 -0.1525  0.1060
56814W        W99830  10.346  12.120  14.818  0.0364 -0.0773  0.0999
56815W        W99831   8.652   2.493   3.050 -0.2244  0.1294 -0.0093
56816W        W99832   7.816  21.242  15.585 -0.0152  0.2498 -0.1200
56817W        W99833   4.451  11.137  16.253  0.1501 -0.1598 -0.0639
56818W        W99834   5.999  17.505  14.274 -0.0683  0.0290 -0.1545
56819W        W99835  23.334  16.430  26.502  0.0139 -0.0238  0.4111
56820W        W99836  34.291  27.285  22.180  0.3329 -0.0570  0.0729
56821W        W99837   4.390  30.840  22.908 -0.2850  0.1988  0.1960
56822W        W99838  10.219  21.841  17.548 -0.0313  0.0141  0.0847
56823W        W99839  31.226  13.221  17.428 -0.5672 -0.4639  0.1245
56824W        W99840  13.736  23.611  18.114 -0.0769 -0.2793  0.1177
56825W        W99841  21.006  11.180  15.489 -0.2152  0.0528 -0.0715
56826W        W99842   5.379  18.911  14.300 -0.3602  0.0117  0.1046
56827W        W99843  18.089   6.354  19.182  0.0060  0.2008 -0.0867
56828W        W99844  15.451  28.257  18.292 -0.0938 -0.0404 -0.3361
56829W        W99845   4.234  30.035  25.475  0.2545  0.2245  0.0710
56830W        W99846  10.412   4.301  18.083  0.3623 -0.2223  0.0226
56831W        W99847  10.269   8.470   1.823  0.2800  0.3179  0.0139
56832W        W99848  24.248  22.023  19.349  0.1561 -0.0944 -0.1902
56833W        W99849  34.470   7.977  20.350 -0.0613  0.3086 -0.0524
56834W        W99850  21.417  10.939  20.067 -0.1163  0.1532  0.0168
56835W        W99851   0.658  30.898  27.468 -0.3079 -0.2450  0.2304
56836W        W99852  16.555  25.416  21.614 -0.0814  0.1503 -0.1971
56837W        W99853  21.590  10.898  21.937 -0.1354  0.1272 -0.0557
56838W        W99854  10.701  10.846  19.451  0.1959  0.2603 -0.1904
56839W        W99855  15.264   7.590  14.285  0.1097 -0.3053  0.0246
56840W        W99856   2.285   4.244  21.550  0.2698  0.2620 -0.0448
56841W        W99857  19.761  33.908  17.889 -0.2366  0.1424 -0.0267
56842W        W99858  11.985   2.289  23.073 -0.1538  0.1387  0.0235
56843W        W99859   4.535   3.492  17.530  0.2152  0.1198  0.3206
56844W        W99860  28.811  12.810  26.911 -0.1182 -0.2204 -0.1390
56845W        W99861  27.411  18.880  19.685  0.1853  0.0698  0.1078
56846W        W99862  32.782   6.502  18.209  0.0149 -0.1511  0.0069
56847W        W99863   0.702  16.836  15.122 -0.4598 -0.0944  0.2246
56848W        W99864  22.084   5.598  17.199 -0.0268 -0.0477 -0.1163
56849W        W99865  16.054   1.131  16.484 -0.0674 -0.0884  0.3192
56850W        W99866   1.355  34.587  25.119  0.0453 -0.1665 -0.2653
56851W        W99867   7.890  20.507  23.456  0.0657 -0.2675 -0.1083
56852W        W99868  31.595  11.648  28.604  0.0101  0.2114  0.2029
56853W        W99869   6.008   5.893  22.241  0.3504  0.1151 -0.3121
56854W        W99870  21.548   9.807  19.016 -0.3519 -0.0363  0.0082
56855W        W99871  27.805   2.995  20.994 -0.0048  0.5096 -0.0267
56856W        W99872   7.835  15.365  23.115  0.0682 -0.0196 -0.0403
56857W        W99873  27.943  15.605  10.135 -0.0714 -0.0529  0.1064
56858W        W99874   6.558  28.246  27.141  0.0873  0.1408 -0.1296
56859W        W99875   7.042   5.194  19.475  0.0346  0.0630 -0.4179
56860W        W99876  19.554   7.219  26.213 -0.1361 -0.2445  0.0243
56861W        W99877   2.265  19.483  15.810 -0.1135 -0.1521  0.0293
56862W        W99878  24.182  28.295  19.493 -0.3295  0.2710 -0.0627
56863W        W99879   4.067  13.437  16.405 -0.0125 -0.0395 -0.0005
56864W        W99880   7.753   7.458  26.183 -0.0475 -0.1736  0.2206
56865W        W99881  34.310   3.436  21.343  0.0654 -0.1699 -0.1501
56866W        W99882  16.779  10.080  20.603  0.0752 -0.5138  0.1613
56867W        W99883  25.561  17.198  15.266  0.1650  0.1089 -0.2577
56868W        W99884  10.875  10.164  23.753  0.2511 -0.1937  0.0509
56869W        W99885  10.096  10.374   7.388  0.0351 -0.1156 -0.1995
56870W        W99886  12.730  30.802  24.749  0.0154 -0.0143  0.0850
56871W        W99887   2.663  24.716  17.479  0.3923  0.2580 -0.4432
56872W        W99888   2.625   5.629  21.276 -0.0843  0.1555 -0.1811
56873W        W99889  12.615   1.031  24.925 -0.2021  0.0823  0.0350
56874W        W99890  30.528   7.882  17.568  0.3802 -0.0303  0.0868
56875W        W99891  22.414   0.637  16.597 -0.2242  0.2052 -0.1320
56876W        W99892   1.615   9.929  22.446 -0.1420 -0.1338  0.2176
56877W        W99893   8.664  12.519  13.948 -0.0630 -0.4410 -0.0950
56878W        W99894  23.601   3.852  24.504 -0.0235 -0.1141 -0.4094
56879W        W99895   5.650   7.847  21.477  0.3340  0.0655  0.1104
56880W        W99896   2.165  27.335  23.058  0.0818  0.0149 -0.3078
56881W        W99897  25.675   9.467  22.479 -0.1771 -0.0596  0.1306
56882W        W99898   9.488  13.493  15.916 -0.1813  0.0765  0.0692
56883W        W99899   4.674   4.141  15.227 -0.0664 -0.0793  0.1414
56884W        W99900  29.695   1.456  23.090 -0.4300 -0.0691 -0.2101
56885W        W99901  15.997   5.733  22.323  0.1081 -0.2258  0.0707
56886W        W99902   8.359  18.857  21.419 -0.1007  0.0125 -0.0492
56887W        W99903  29.103  24.697  25.064 -0.0750 -0.0195  0.0966
56888W        W99904   4.064  12.962  14.769  0.2100 -0.1772  0.1331
56889W        W99905   5.147   8.383  21.895  0.1634  0.0504 -0.0892
56890W        W99906   8.492   5.238  27.725  0.0109  0.0897  0.1548
56891W        W99907  12.554  16.058  12.965  0.1294  0.1754 -0.0920
56892W        W99908  10.736   7.547  16.090 -0.2121  0.2104 -0.1335
56893W        W99909   9.345   5.530  15.774 -0.0190  0.1695  0.1111
56894W        W99910   7.798  12.106  18.167 -0.1923 -0.0282 -0.0759
56895W        W99911  13.343  14.816  20.105 -0.1316 -0.1886 -0.4259
56896W        W99912  21.015   1.243  15.487  0.1692  0.0805  0.3457
56897W        W99913  19.629  25.599  14.555  0.0677  0.0655 -0.0777
56898W        W99914  26.941  33.701  17.915  0.0331  0.0862  0.3362
56899W        W99915  33.146  13.754  15.931 -0.0310  0.2541 -0.0378
56900W        W99916  14.670   1.735  22.636 -0.0668  0.1584  0.1129
56901W        W99917   1.977   7.403  21.054  0.1283  0.0393 -0.0167
56902W        W99918   6.633  27.411  14.452  0.1774 -0.0768  0.2783
56903W        W99919  12.679   5.105  14.305  0.0907  0.1558 -0.3733
56904W        W99920   3.901  29.590   8.649 -0.2004  0.2496  0.0749
56905W        W99921   6.554  20.087  13.143  0.3477  0.0404 -0.0776
56906W        W99922   6.027  31.522  20.179  0.1095  0.0991  0.0506
56907W        W99923   0.843  21.978  20.240 -0.0350  0.2833  0.0216
56908W        W99924  15.385  11.252  17.096  0.1970  0.2894  0.0256
56909W        W99925   1.309  20.160  23.826 -0.1585 -0.0591  0.2384
56910W        W99926  11.074   8.571  19.799  0.0064 -0.0440 -0.0413
56911W        W99927  22.330  29.458  25.387  0.6133 -0.0109 -0.1471
56912W        W99928  32.156  17.690  17.726  0.0837  0.0546  0.0712
56913W        W99929   9.471   9.212  25.196  0.2204  0.0911  0.1508
56914W        W99930  18.108  24.081  21.764  0.2096 -0.2673  0.0710
56915W        W99931  18.287  29.610  21.681  0.1320  0.1173  0.1183
56916W        W99932   0.628  31.527  23.572 -0.2931  0.0203 -0.2855
56917W        W99933  30.245  19.883  15.176  0.0687 -0.1002 -0.0227
56918W        W99934  15.489   4.365  13.371 -0.1238 -0.2714  0.2540
56919W        W99935  19.638   7.052  24.756  0.3305  0.0324  0.1284
56920W        W99936   8.118  29.374  19.405 -0.0832 -0.1958 -0.2368
56921W        W99937   6.740  10.717  25.854  0.1478 -0.1407 -0.0822
56922W        W99938  11.858   6.587  21.855 -0.1226 -0.0120 -0.1493
56923W        W99939  21.401  22.524  14.020  0.0307  0.0634 -0.2395
56924W        W99940   3.407  25.134  18.241  0.0094  0.0378 -0.0369
56925W        W99941  18.587  11.038  12.567 -0.0030 -0.2296 -0.0119
56926W        W99942  21.198   9.220  21.540 -0.3744  0.1532 -0.1623
56927W        W99943  13.039  29.616  19.747  0.5073  0.0857  0.0498
56928W        W99944  17.041  30.388  28.379  0.2296 -0.3059 -0.0686
56929W        W99945  25.488  13.433  14.349 -0.1798  0.3481 -0.1263
56930W        W99946  27.953   2.344  14.902 -0.0533 -0.0585  0.0843
56931W        W99947  13.283  10.429  23.542  0.0273  0.0086  0.1676
56932W        W99948  12.104   6.790  18.699  0.0771 -0.2432 -0.1323
56933W        W99949  15.457  20.710  15.468 -0.1955  0.0074 -0.3541
56934W        W99950  25.851  12.768  26.938 -0.1000 -0.0156  0.4059
56935W        W99951  11.974   8.628  18.457 -0.0429  0.2624  0.0459
56936W        W99952  28.903  11.925  18.475  0.1936  0.1225  0.1510
56937W        W99953  16.531   1.732  26.607  0.0813 -0.0188  0.0999
56938W        W99954   9.185   7.234  18.329 -0.0724  0.1284 -0.2899
56939W        W99955  10.878  34.328   6.225  0.0348  0.0068  0.4196
56940W        W99956  29.469   6.392  25.878  0.0754 -0.1822 -0.4006
56941W        W99957   7.109   3.552  15.754  0.0857  0.1797  0.4903
56942W        W99958  19.654  24.625   0.757 -0.2514  0.2058  0.0460
56943W        W99959  20.825  24.744  17.441  0.0113 -0.0241  0.2535
56944W        W99960  18.972  17.934  12.213 -0.1254 -0.3007  0.2346
56945W        W99961  34.564   6.030  19.981 -0.2881 -0.1238 -0.1109
56946W        W99962  21.280  17.429  14.933  0.0369 -0.2078 -0.2868
56947W        W99963  13.300  33.341  21.849  0.1066 -0.1283  0.1753
56948W        W99964  15.128  25.974  16.057  0.0832 -0.3847  0.1379
56949W        W99965  14.155  32.880  20.073 -0.2490 -0.0934 -0.1618
56950W        W99966  10.487  27.838   9.118 -0.0037 -0.0330  0.1869
56951W        W99967  15.097  13.074  22.097  0.0069  0.2875 -0.0812
56952W        W99968  22.406   8.996  19.640  0.2209  0.0811  0.1269
56953W        W99969  14.660   2.846   1.347  0.0954  0.3310 -0.0563
56954W        W99970  13.683  14.191  14.779 -0.1626 -0.1151  0.0563
56955W        W99971  18.337  31.530  23.606 -0.1027 -0.1466 -0.1115
56956W        W99972   9.271   1.163  26.419 -0.0466  0.0269  0.2488
56957W        W99973   0.186  16.567  25.311  0.3323  0.2983 -0.0662
56958W        W99974  13.376   5.105  25.249 -0.4629 -0.1611  0.0063
56959W        W99975  28.605  15.259  18.581 -0.0104 -0.0375 -0.1082
56960W        W99976   4.600  33.621  28.498  0.1762 -0.1161 -0.2120
56961W        W99977  18.974   0.532  24.526 -0.2622 -0.3877  0.2155
56962W        W99978   4.434  31.063   0.076  0.0225  0.1650 -0.0163
56963W        W99979  24.655   5.751  24.331  0.0603 -0.1622 -0.0154
56964W        W99980  17.694  11.483  19.879  0.2122 -0.0375 -0.1648
56965W        W99981  34.050  32.554   7.157  0.0140  0.2564 -0.0243
56966W        W99982   4.012  26.259   2.780 -0.2435 -0.1504 -0.0358
56967W        W99983  16.419  26.052  22.033 -0.1927 -0.2087 -0.0282
56968W        W99984  24.126   4.147  18.800 -0.1083 -0.0207  0.0480
56969W        W99985   3.051  12.080  15.405  0.3777 -0.0038  0.0704
56970W        W99986   9.256  23.346  13.209 -0.2379  0.0091  0.0726
56971W        W99987   5.132   6.468  22.151 -0.2430 -0.3761  0.1094
56972W        W99988  12.427  20.408  16.180 -0.1174  0.0092 -0.3628
56973W        W99989   8.305   8.729  18.767 -0.0510 -0.1105  0.0360
56974W        W99990  14.654   5.093  15.452 -0.0638 -0.0039  0.2550
56975W        W99991  18.317  17.888  16.006 -0.2998  0.2303  0.1417
56976W        W99992   8.343  16.891  22.027  0.1202 -0.1506 -0.0826
56977W        W99993  11.555  16.380  17.689  0.0262 -0.0813 -0.0454
56978W        W99994   8.673  13.707  18.925 -0.3935 -0.3646 -0.1148
56979W        W99995   4.689  17.705  23.394  0.1983  0.0762 -0.0013
56980W        W99996  16.530  34.193  14.890 -0.0163  0.0665  0.0963
56981W        W99997  33.357  33.193  20.819 -0.0092 -0.1406  0.2436
56982W        W99998   0.617   8.617  26.353  0.1863 -0.0617 -0.1231
56983W        W99999  21.140  22.548   7.231 -0.4413 -0.1023 -0.2116
56984W        W    0   7.627   4.710  25.077  0.0325  0.2260  0.1378
56985W        W    1   7.224  23.175  18.606 -0.2053 -0.3631  0.3394
56986W        W    2   3.738  12.068  14.645  0.0821 -0.0401 -0.1616
56987W        W    3   1.008   8.021  27.023  0.1438  0.1244 -0.1771
56988W        W    4   7.273  17.960  26.139  0.2549 -0.1778  0.2351
56989W        W    5  13.498  12.321  14.897  0.4656 -0.1616  0.3936
56990W        W    6  25.712   7.338   4.144 -0.2364 -0.0633  0.2225
56991W        W    7  16.944  29.069  16.016 -0.0076 -0.1537 -0.0872
56992W        W    8   6.398  12.695  21.985 -0.0845 -0.1588 -0.0511
56993W        W    9  34.715  32.086  17.577 -0.1372 -0.0730 -0.0895
56994W        W   10  11.815   8.059  22.768  0.1363  0.1299  0.0121
56995W        W   11   7.530  29.348  20.176  0.0052  0.4119 -0.4315
56996W        W   12   4.376   1.715  20.558  0.0459 -0.2121  0.0210
56997W        W   13  29.194   2.442  27.957  0.2125 -0.0862 -0.3156
56998W        W   14  11.776   9.107  25.977 -0.0573  0.0591  0.2264
56999W        W   15   8.308   9.947  22.796 -0.0611  0.0364  0.1796
57000W        W   16   4.868   4.078  17.021  0.1575 -0.0737  0.2376
57001W        W   17   7.874   6.472  17.548 -0.1052  0.0201  0.2032
57002W        W   18   0.975  12.044  20.617 -0.1663  0.0226 -0.1667
57003W        W   19   8.163   9.141  15.769 -0.2536 -0.0306  0.0708
57004W        W   20   4.424  14.588  16.461 -0.1645 -0.1575 -0.0789
57005W        W   21  20.788   4.325  15.513 -0.2870  0.0138  0.3717
57006W        W   22  12.136  20.211  19.261  0.2185 -0.1616 -0.1183
57007W        W   23  23.274   3.254  25.034  0.1919  0.1996  0.0651
57008W        W   24   7.734   6.495  22.836  0.2120  0.1267 -0.1173
57009W        W   25   5.143   9.126   2.857 -0.4277  0.1394  0.2243
57010W        W   26  30.945  14.233  15.507  0.0986 -0.1433 -0.0042
57011W        W   27  19.536  11.138  16.323 -0.0260 -0.0518  0.2114
57012W        W   28  30.199  12.190  14.015  0.2167  0.1320 -0.0637
57013W        W   29  34.723  26.448  15.231 -0.0028 -0.2013 -0.1390
57014W        W   30  33.379   3.827  26.336 -0.1795  0.1769  0.0492
57015W        W   31   4.243   7.356  20.003 -0.1267  0.0954 -0.1774
57016W        W   32  19.175  17.660  15.190 -0.0669 -0.1309 -0.0728
57017W        W   33  18.169   6.947  14.802 -0.1578  0.0339  0.1760
57018W        W   34  33.883  11.310  20.900 -0.0179  0.2895  0.1892
57019W        W   35   6.018   8.073  21.905 -0.1960  0.0915 -0.0455
57020W        W   36  24.899   2.848  29.126 -0.1267 -0.2547  0.4392
57021W        W   37   1.388  34.713  15.681 -0.3169 -0.0229 -0.1728
57022W        W   38   7.508  30.147  18.856 -0.1023  0.0486 -0.2502
57023W        W   39  29.213  22.140   3.456  0.1676  0.1580 -0.0207
57024W        W   40  12.513  19.104  14.567 -0.1514 -0.1935 -0.3825
57025W        W   41  12.940   8.979  21.570 -0.1965 -0.1619  0.2480
57026W        W   42   7.574  12.814  15.832 -0.2342  0.2240 -0.1301
57027W        W   43  15.327   2.187  22.147  0.1211 -0.2312  0.3740
57028W        W   44   6.166   0.493  18.131 -0.0059 -0.2511  0.0838
57029W        W   45   7.857   5.625  24.079  0.2031 -0.1103  0.0705
57030W        W   46  28.074   7.021  27.033  0.2017 -0.0340 -0.2709
57031W        W   47   9.747   6.717  21.078  0.1070 -0.3703  0.1644
57032W        W   48  14.124  15.400  22.391  0.3233 -0.0453  0.0033
57033W        W   49  18.672  29.096  21.684 -0.0283  0.0936 -0.2082
57034W        W   50   9.131  32.464   0.973 -0.0585 -0.1415 -0.0345
57035W        W   51  12.834   8.310  19.500  0.1405  0.1311 -0.0843
57036W        W   52  18.493  33.552   3.004 -0.4405 -0.3357 -0.1502
57037W        W   53   8.612   7.991  13.632 -0.1213  0.0868  0.1307
57038W        W   54  17.304  10.687  22.319 -0.0018 -0.1358  0.1685
57039W        W   55  16.998  27.373  20.120  0.1456  0.2270  0.0164
57040W        W   56  17.565  10.238  28.763 -0.0800  0.3293 -0.0574
57041W        W   57  32.140  18.586   9.457  0.1685 -0.1426  0.1335
57042W        W   58   1.665   9.298  25.068 -0.3012  0.0120 -0.0016
57043W        W   59  23.222   8.550  16.213  0.0022  0.1914  0.0684
57044W        W   60  19.764   3.080  27.091 -0.0405  0.2996  0.3178
57045W        W   61  15.769  18.901  12.708  0.1366  0.1444  0.1420
57046W        W   62  17.744   2.150   3.485 -0.3001  0.0102  0.1288
57047W        W   63  18.795   4.892  15.536 -0.2104 -0.2126 -0.0345
57048W        W   64  16.082  15.032  13.897 -0.2508  0.1484 -0.0178
57049W        W   65  18.477   3.974  17.824  0.0761  0.0240 -0.0686
57050W        W   66  13.542  14.641   2.246  0.0326 -0.0735  0.0398
57051W        W   67   7.639   5.392  19.954  0.0271  0.0355 -0.0380
57052W        W   68   1.589  10.776  16.541 -0.4550 -0.3026 -0.2824
57053W        W   69   1.046  34.474  18.449  0.2129 -0.2250  0.0133
57054W        W   70   9.398  21.002   6.173 -0.0464 -0.0230  0.0865
57055W        W   71  21.555   3.973  18.865  0.0695 -0.0624 -0.1925
57056W        W   72   6.156  17.054  17.227  0.0531 -0.2174  0.0357
57057W        W   73  31.477   6.985  19.653  0.0171 -0.1772  0.1491
57058W        W   74   6.956   5.627  15.708  0.1503 -0.1054 -0.3566
57059W        W   75  19.785  29.767  25.015  0.1363 -0.0244 -0.0299
57060W        W   76  32.292  18.583  21.607 -0.0204  0.2886  0.2058
57061W        W   77  11.401  15.317  17.624  0.1334  0.1622  0.0657
57062W        W   78  20.467  30.142  20.649  0.0130  0.3983  0.1454
57063W        W   79  22.058   6.152   0.321 -0.1985 -0.2042  0.1272
57064W        W   80  16.568  19.397  15.587  0.3676 -0.0938  0.0261
57065W        W   81  24.274  16.046  15.164  0.2885  0.0271 -0.0642
57066W        W   82  10.843  23.503  17.743  0.1691  0.1780  0.2289
57067W        W   83   1.582  16.900  22.754  0.0621 -0.0208 -0.3722
57068W        W   84   4.937  19.255   5.866 -0.2174 -0.0623  0.0702
57069W        W   85  11.545  14.355   3.539  0.2740 -0.1877 -0.1238
57070W        W   86  17.569  22.427  18.948  0.0875 -0.0379  0.0541
57071W        W   87  13.805  10.354  21.406  0.2109  0.1992  0.2084
57072W        W   88   0.973   5.173   0.958 -0.1758  0.3590 -0.0044
57073W        W   89  19.330  15.730  12.890 -0.1272  0.2639  0.1687
57074W        W   90  31.969   9.532  21.624  0.0700  0.1171 -0.0259
57075W        W   91   9.246   3.281  20.975 -0.3757  0.2511  0.0187
57076W        W   92   9.742  11.118  19.827  0.2913  0.0503 -0.1883
57077W        W   93  19.040  16.179   1.499  0.1183  0.1596 -0.0454
57078W        W   94   9.046  12.708   2.889  0.1545  0.1881 -0.0474
57079W        W   95   5.323  13.141  15.382  0.0269  0.2454  0.2494
57080W        W   96  13.212  19.422  14.672  0.1031  0.1614 -0.1592
57081W        W   97  31.904  14.936  25.073  0.0019 -0.0963 -0.3661
57082W        W   98   6.284  19.049   0.277  0.0255 -0.0889  0.2073
57083W        W   99   9.230  20.303  23.202  0.2107  0.2293  0.1879
57084W        W  100   4.428  10.452  17.266  0.0793 -0.1437  0.1340
57085W        W  101   8.772  31.252  16.410 -0.4202  0.4033 -0.1891
57086W        W  102  18.357   0.102  15.226  0.1043  0.2254  0.1509
57087W        W  103  21.938  13.723  16.892 -0.1387 -0.1809  0.0829
57088W        W  104  14.212  25.893  19.499 -0.3846 -0.2057  0.1778
57089W        W  105  31.083   3.139  23.452 -0.1727  0.0381 -0.2015
57090W        W  106  15.552   4.316   7.429 -0.2313  0.3161  0.0983
57091W        W  107  10.283   9.452  26.929  0.0049 -0.3658  0.2353
57092W        W  108   3.820   7.342  15.247  0.1461  0.0648  0.0429
57093W        W  109  29.377  13.593   1.017  0.0116 -0.5036  0.1124
57094W        W  110  11.318   7.658  23.688 -0.0872  0.1632 -0.1881
57095W        W  111   6.832  19.970  21.607  0.0913 -0.0143  0.0555
57096W        W  112   8.120  23.213  20.505 -0.0311  0.2521 -0.2709
57097W        W  113  25.717  16.361  17.892  0.0661  0.2632  0.1146
57098W        W  114  17.683  14.648   0.414 -0.0802  0.2179  0.2774
57099W        W  115  21.234  16.564  12.795  0.1957  0.0860  0.2092
57100W        W  116   6.518  17.649  21.071  0.0351 -0.1462  0.0580
57101W        W  117   7.489   7.343  20.387  0.1115  0.1862  0.0917
57102W        W  118  24.653  16.475  14.132 -0.1628 -0.0422 -0.2125
57103W        W  119  15.231  31.350  15.472 -0.3042  0.2283  0.0657
57104W        W  120  33.454   0.294  16.880  0.0856  0.1915  0.1434
57105W        W  121  13.661   0.643  16.911 -0.0214  0.1485 -0.0825
57106W        W  122  10.934  13.521  13.867  0.0604  0.1070 -0.1223
57107W        W  123  30.919  21.129  28.293  0.0646  0.2605 -0.1438
57108W        W  124   7.675  10.809  27.850 -0.0294  0.2824  0.2177
57109W        W  125  13.703  10.733  21.685  0.1799 -0.0170 -0.3197
57110W        W  126  23.366  19.102  17.126 -0.1661  0.3625  0.2288
57111W        W  127   4.452   6.958  18.811  0.2585 -0.0410 -0.0840
57112W        W  128  17.741  11.328  28.540 -0.0882  0.0984  0.3178
57113W        W  129  22.495   7.431  17.582  0.2933  0.3383 -0.2543
57114W        W  130  34.520  10.683  27.072 -0.1077  0.0366  0.0834
57115W        W  131  27.721   5.779  16.802  0.0889  0.0854  0.0957
57116W        W  132   8.222  19.236  18.779 -0.2658 -0.0234  0.2789
57117W        W  133  31.637   1.309  27.154  0.0266  0.0016  0.1155
57118W        W  134  16.878  20.038  26.274 -0.1271 -0.0923 -0.1016
57119W        W  135  11.386   2.996  20.491  0.1530 -0.1055 -0.2288
57120W        W  136   6.393  22.348   4.777  0.3017  0.2206  0.2914
57121W        W  137  17.892  15.960  15.273  0.1289  0.3329  0.4134
57122W        W  138  14.553  14.537  15.423  0.0895  0.4685  0.0516
57123W        W  139   6.742   9.106  23.999 -0.3049  0.1834 -0.0071
57124W        W  140  19.992  12.717  13.139  0.1232  0.3737 -0.1822
57125W        W  141  16.443  18.843  28.722 -0.0278 -0.2042 -0.4140
57126W        W  142  30.756   9.418  18.054  0.1376 -0.4623  0.2567
57127W        W  143  30.476   0.372  20.202  0.0308  0.1009 -0.2653
57128W        W  144  32.250   8.396  22.884 -0.0478 -0.3402  0.0338
57129W        W  145  17.053  10.148  15.251 -0.0313 -0.0321  0.1725
57130W        W  146   9.804  11.891  25.121 -0.2404  0.2485 -0.3638
57131W        W  147  24.624  18.808  18.565  0.1868 -0.1744  0.2392
57132W        W  148  16.488  13.971   0.634  0.2781 -0.1523  0.2054
57133W        W  149  25.757  12.683  22.766  0.0770  0.2458 -0.0461
57134W        W  150  18.848  31.962  19.776 -0.0800 -0.0837  0.0426
57135W        W  151   9.048  13.780  19.606 -0.1042 -0.1788  0.1776
57136W        W  152  13.892  26.324  25.606 -0.1443  0.0694 -0.0846
57137W        W  153  10.976  19.909  26.275  0.1726  0.1345  0.3259
57138W        W  154   2.768  15.910   0.116 -0.0336 -0.1862  0.1422
57139W        W  155  25.243  10.404  28.184 -0.0864  0.1825  0.1496
57140W        W  156   4.778   3.473  22.254  0.1311 -0.1405 -0.1569
57141W        W  157   6.040   2.944  23.991  0.0403  0.0226 -0.1237
57142W        W  158   6.992   9.329   3.860 -0.1690 -0.2110  0.2149
57143W        W  159  18.025  24.208  13.516  0.0101 -0.1527 -0.2418
57144W        W  160  21.409  22.397  20.372 -0.0087 -0.2894  0.1177
57145W        W  161  11.088  17.330   6.077 -0.0587 -0.0931  0.0913
57146W        W  162   1.327  33.671   0.694  0.1766 -0.5163  0.2693
57147W        W  163   8.251  14.989   6.185  0.0608 -0.1982 -0.2119
57148W        W  164   5.493  18.651  19.840  0.2324 -0.1200  0.0451
57149W        W  165  16.971  14.241  12.376  0.0662  0.0653 -0.0221
57150W        W  166  14.574   5.189  16.512  0.0796 -0.4685  0.1702
57151W        W  167  19.710  21.941   8.114  0.1867 -0.1554 -0.1072
57152W        W  168   8.379   7.773  17.369 -0.0412 -0.0582 -0.4612
57153W        W  169   7.902  14.674  13.829  0.1030  0.0913  0.0442
57154W        W  170  11.728  27.495  26.851 -0.0663 -0.0909  0.0413
57155W        W  171  16.677  16.298  14.457 -0.1719 -0.1496 -0.4395
57156W        W  172   9.147  22.521  16.990 -0.0896  0.0130 -0.0903
57157W        W  173   4.419   5.823  19.168 -0.1057  0.1564 -0.0291
57158W        W  174  27.240   7.696  23.421  0.0625 -0.3405 -0.2954
57159W        W  175  31.680   9.255  22.440 -0.1089 -0.1324  0.2350
57160W        W  176   6.483   8.696  22.333  0.4021  0.1289  0.1606
57161W        W  177   3.166   8.133  16.713 -0.0826 -0.0749 -0.1026
57162W        W  178  17.740  12.014  11.971  0.0511  0.3054  0.0604
57163W        W  179   1.370   8.310  16.184  0.3755  0.1650 -0.0794
57164W        W  180  23.027  18.099  24.158 -0.0321 -0.1836 -0.2171
57165W        W  181   0.514   4.051  18.794  0.3366  0.0563  0.1741
57166W        W  182  30.531  16.984  14.883 -0.0203  0.0374  0.3993
57167W        W  183  23.167  14.933  17.600  0.3048 -0.0439 -0.2077
57168W        W  184  25.011  10.258   9.759  0.1459 -0.4024 -0.1881
57169W        W  185  16.153  16.614  11.768  0.1468 -0.0609  0.0926
57170W        W  186  11.459  10.980  14.632  0.1357 -0.1026  0.1423
57171W        W  187  20.717  31.044  20.709  0.0984  0.1151  0.2649
57172W        W  188  16.777   3.747  26.105 -0.0088 -0.0069  0.1048
57173W        W  189  22.392  15.826  16.468 -0.0076 -0.1151 -0.2026
57174W        W  190   3.520   5.070  21.384  0.0634  0.1802  0.1456
57175W        W  191  24.157   8.056  18.434 -0.0384  0.0148  0.0901
57176W        W  192   2.340  17.912  15.781  0.1107  0.1259  0.2759
57177W        W  193  12.792   8.540  22.216  0.2324  0.2030 -0.1520
57178W        W  194  10.488  14.104  19.954  0.2067 -0.2756  0.1817
57179W        W  195  28.111  12.044  24.994  0.1565  0.1276 -0.1705
57180W        W  196  10.114  18.405  19.238  0.1450 -0.0723  0.2268
57181W        W  197  29.602  19.018   9.754 -0.3450 -0.2979  0.0472
57182W        W  198  14.013  31.184  27.481  0.0313  0.3179  0.1259
57183W        W  199  21.867   9.914  24.737 -0.0505 -0.0382 -0.1455
57184W        W  200   8.663  18.566   7.981 -0.2165  0.2195 -0.1160
57185W        W  201   9.232  21.704   1.638  0.3046 -0.1012 -0.0739
57186W        W  202   5.080  14.640  26.791  0.0916  0.1871 -0.1674
57187W        W  203  27.262  23.138  20.440  0.1486 -0.2020  0.2933
57188W        W  204  29.996  16.148  28.334  0.2699 -0.0667  0.1362
57189W        W  205   9.296  17.218  21.509 -0.1854  0.0844 -0.0018
57190W        W  206   7.647  26.973  23.461 -0.0126  0.3906  0.1643
57191W        W  207  21.309   6.982   7.610  0.2270 -0.2001 -0.0256
57192W        W  208   7.027   2.844  19.849  0.0488  0.3788 -0.1312
57193W        W  209  11.256  21.632  19.433  0.0533 -0.1615  0.2327
57194W        W  210  12.736  15.956  14.878 -0.3877 -0.0799  0.0259
57195W        W  211   0.964  11.500   2.393 -0.0521 -0.0328 -0.0303
57196W        W  212   0.764  28.726  19.285  0.2058 -0.1936  0.0237
57197W        W  213  14.854  13.466   4.684 -0.1689  0.2263  0.2325
57198W        W  214  23.156   4.028  27.105  0.0402 -0.4401  0.1124
57199W        W  215   8.269  18.273  25.690 -0.0316  0.0661 -0.1514
57200W        W  216  33.459  15.562  24.293 -0.2518 -0.2892  0.1374
57201W        W  217  32.294   9.375  15.469 -0.1646 -0.0611 -0.1109
57202W        W  218  16.484   9.406  14.613 -0.1545  0.2908 -0.2011
57203W        W  219  32.516   4.566  28.127  0.0163 -0.0132 -0.0172
57204W        W  220  21.584  10.072  14.068 -0.3229 -0.2826  0.0952
57205W        W  221   4.827   0.006  25.470  0.2063 -0.1597  0.0597
57206W        W  222  13.266   5.444  21.378 -0.1719  0.2347  0.1433
57207W        W  223  12.563  14.049  19.552 -0.1617 -0.1338  0.3055
57208W        W  224   7.738  15.656  17.356  0.1204 -0.1842  0.1983
57209W        W  225   6.577  22.488  25.738  0.3929  0.1410 -0.1528
57210W        W  226   4.957   5.615  15.393  0.1121 -0.1097  0.0745
57211W        W  227  25.789  26.810   5.199  0.1224  0.0024  0.0698
57212W        W  228   6.625   8.383  26.245  0.1614  0.2364  0.2587
57213W        W  229  18.879  34.515  17.149 -0.0241  0.1399 -0.0737
57214W        W  230   2.679  15.313  21.114 -0.3353 -0.0125 -0.1170
57215W        W  231   4.764  22.811  17.671  0.0148 -0.0971 -0.1745
57216W        W  232  15.185  20.275  23.245 -0.1306  0.0095 -0.1442
57217W        W  233  11.637  24.549  23.343 -0.0800 -0.1193  0.0948
57218W        W  234   3.222  12.710  23.685  0.2592  0.0092 -0.2931
57219W        W  235  16.572  10.578  27.260 -0.0880  0.0259  0.1138
57220W        W  236  24.701  11.495  25.076 -0.2155 -0.0520 -0.1090
57221W        W  237   7.475   6.458  14.986  0.4979  0.2720  0.1354
57222W        W  238  11.967  22.812  13.188 -0.1838 -0.0480 -0.0240
57223W        W  239   1.733  16.361  16.160 -0.2075  0.0261  0.2026
57224W        W  240  32.978   8.802   4.918 -0.2878 -0.0085 -0.0871
57225W        W  241  13.501   9.977  17.630 -0.1104  0.1238 -0.0505
57226W        W  242   5.975  32.693  18.890  0.1115  0.0956  0.3056
57227W        W  243  18.637  27.051  26.925  0.0312  0.0877  0.2049
57228W        W  244  25.182  15.876  15.822  0.0298 -0.1350 -0.0850
57229W        W  245  33.186   8.630   7.852  0.1026 -0.0590 -0.0952
57230W        W  246  16.364   8.581  26.086 -0.0015  0.1038  0.0797
57231W        W  247   9.286   6.820  21.185  0.2927  0.2425  0.1590
57232W        W  248  10.145  19.421  21.628 -0.3317  0.1831 -0.2236
57233W        W  249  13.148   1.019  27.731  0.0737 -0.0780 -0.0163
57234W        W  250  24.059  18.925  28.036  0.1681 -0.1560 -0.2462
57235W        W  251   7.241   3.454  14.953 -0.2916  0.1045  0.3393
57236W        W  252  19.741  22.433   4.773  0.3166  0.1882 -0.1297
57237W        W  253  14.323   2.980  26.707  0.1300 -0.0055  0.0441
57238W        W  254  13.577  27.388  24.175 -0.3406  0.1521  0.0779
57239W        W  255   5.753  18.713   0.743  0.0019 -0.3485 -0.4453
57240W        W  256  25.584  18.796  18.911 -0.0949  0.0166 -0.3967
57241W        W  257  11.936   6.496  20.058  0.0486  0.3875 -0.0175
57242W        W  258   4.507   8.988  17.386 -0.0214  0.2001 -0.0540
57243W        W  259  12.836  26.613  28.362  0.2520  0.2332 -0.1639
57244W        W  260  33.649  18.204  25.065 -0.0574 -0.2835  0.1447
57245W        W  261  33.608  16.823  19.738 -0.0187 -0.2009 -0.0188
57246W        W  262   4.853  20.750  25.203 -0.0072  0.2663 -0.1904
57247W        W  263  30.199  30.688  25.470 -0.0016 -0.0377  0.0174
57248W        W  264  24.412  17.394  19.288 -0.0307 -0.0793 -0.0293
57249W        W  265  16.151  20.546  29.078  0.0209 -0.0404 -0.1038
57250W        W  266   8.011   5.546  26.501  0.1314  0.1524 -0.1148
57251W        W  267   4.442   9.713   4.606  0.0249 -0.1621  0.0598
57252W        W  268  34.262  16.184  20.788  0.0321  0.2406 -0.2156
57253W        W  269  27.691  18.793  14.543  0.2187 -0.1129  0.0451
57254W        W  270   4.607  28.065  26.773  0.2424 -0.3862 -0.1040
57255W        W  271   9.199  12.096  17.790 -0.0431  0.0516 -0.1586
57256W        W  272  26.660   3.258   3.518  0.2766  0.0739 -0.4003
57257W        W  273  12.983   0.005  14.401 -0.0115  0.0930  0.0444
57258W        W  274  27.182  11.661  21.289 -0.0129  0.1554  0.0268
57259W        W  275  15.554  26.770  27.779  0.4319 -0.0218 -0.3447
57260W        W  276  14.589   5.893  14.965  0.1049  0.2251  0.1714
57261W        W  277  13.633   9.731  13.572 -0.0606 -0.0360 -0.1680
57262W        W  278  26.277  15.631  22.171  0.0041  0.0367 -0.0859
57263W        W  279  11.127  30.756  20.870 -0.4641 -0.4648 -0.2484
57264W        W  280  33.667  13.688   9.775  0.1300 -0.1994  0.1493
57265W        W  281  24.980  14.313  26.111 -0.1558 -0.1827 -0.1325
57266W        W  282   8.687  15.433  12.597 -0.0761 -0.0439  0.1693
57267W        W  283  34.730  33.953  17.717 -0.0946 -0.0661  0.1849
57268W        W  284  12.431  14.265  15.468  0.1105 -0.1374 -0.1203
57269W        W  285  20.502  29.826   1.062 -0.0882 -0.1006 -0.0849
57270W        W  286  13.924  12.487  21.780  0.0807 -0.4495 -0.1206
57271W        W  287  29.343   6.788   1.083 -0.1146  0.2584 -0.0319
57272W        W  288  33.626  14.267  29.309 -0.1553 -0.1444  0.2965
57273W        W  289  10.644  20.389  20.538 -0.2290 -0.0816  0.0203
57274W        W  290  32.179  16.623  27.452  0.2759  0.1838  0.0251
57275W        W  291  32.892  27.027  22.459 -0.4135  0.0616 -0.2339
57276W        W  292  27.820   9.084  21.603  0.5128  0.0236 -0.0225
57277W        W  293  15.940   7.707  18.391 -0.0404  0.2548  0.0532
57278W        W  294  24.149  18.564  18.109  0.0995  0.0339 -0.0202
57279W        W  295  28.103   4.945   7.727 -0.0487  0.0078 -0.0331
57280W        W  296   3.933  15.759  21.064  0.0931  0.2656 -0.1433
57281W        W  297  30.513  18.494  19.896 -0.1321 -0.1932 -0.0238
57282W        W  298   4.228   4.454  15.392  0.2888  0.0775 -0.2231
57283W        W  299   3.537   8.570  18.363 -0.2121  0.1944 -0.1036
57284W        W  300  18.657  26.649  27.231 -0.0525  0.0395 -0.3072
57285W        W  301   9.159  20.310  14.692 -0.2545 -0.1235  0.1401
57286W        W  302  22.277  19.424  13.692  0.0706 -0.2063 -0.0432
57287W        W  303   9.757  10.864   2.068 -0.3857 -0.1264  0.0874
57288W        W  304  19.057  24.717  19.705  0.2122  0.1137  0.0378
57289W        W  305  21.707  12.762  13.302 -0.1151  0.0481  0.0533
57290W        W  306  11.656  32.726  26.401  0.1678  0.4293 -0.2143
57291W        W  307   3.647  15.205  21.656 -0.0712  0.0752  0.2169
57292W        W  308  13.593  18.646   0.882  0.2149  0.1500  0.3355
57293W        W  309  13.345  15.388  26.400 -0.1130  0.1253 -0.1079
57294W        W  310  34.007  13.354  25.840 -0.0863 -0.0588  0.1002
57295W        W  311  30.094  22.181  21.466 -0.0198 -0.0002 -0.0546
57296W        W  312  30.907  18.436  22.399  0.1651  0.1141  0.1074
57297W        W  313   7.863  34.750   0.551  0.1004 -0.2919 -0.2012
57298W        W  314   5.576  16.290  17.251  0.0805 -0.1706 -0.0785
57299W        W  315  10.062  12.530  27.602 -0.0743  0.1422  0.5925
57300W        W  316  15.815  11.846   7.510  0.0986  0.2240  0.0158
57301W        W  317  15.205   9.502  15.657  0.1792  0.5065 -0.0434
57302W        W  318   2.726  12.348  18.620 -0.2581 -0.0679  0.1082
57303W        W  319   6.884   5.267  16.345 -0.3665 -0.0828  0.2170
57304W        W  320  19.669   3.519   0.378 -0.1455  0.0637 -0.0414
57305W        W  321  32.519   9.463  17.443  0.1269 -0.1237 -0.1025
57306W        W  322  17.530  13.626  14.849 -0.0454 -0.3371 -0.0146
57307W        W  323  15.221  28.327   2.492 -0.0898 -0.2064  0.0603
57308W        W  324  27.152  19.401  14.807  0.1231  0.2427 -0.1020
57309W        W  325  17.760   9.627  18.197  0.2879  0.3009  0.0480
57310W        W  326  27.964  15.469  20.545  0.0008  0.2388  0.0188
57311W        W  327   6.613  10.074  16.697 -0.1873  0.3227  0.2945
57312W        W  328  16.606  11.439   3.134 -0.0882  0.1791 -0.1381
57313W        W  329  31.281  10.164  27.339  0.0408 -0.1862  0.1692
57314W        W  330  19.188  34.303  16.200 -0.0650  0.1441 -0.2841
57315W        W  331  12.640  16.681  12.365  0.0486  0.0866  0.0713
57316W        W  332  28.876  14.902  16.243  0.0267 -0.1572 -0.0107
57317W        W  333  28.830   3.480  28.940  0.0666 -0.3042  0.0180
57318W        W  334  23.240  31.324  28.174 -0.3116 -0.0481 -0.1329
57319W        W  335  17.879   6.785  14.352 -0.2019 -0.1989  0.2658
57320W        W  336   7.614   5.722  14.491 -0.0974 -0.2506 -0.0909
57321W        W  337  33.347   9.317  26.379  0.0617  0.0297 -0.2268
57322W        W  338  25.749  21.478  17.427 -0.0558  0.2265  0.0275
57323W        W  339   9.583  21.445  21.341  0.3429 -0.1886 -0.0898
57324W        W  340  29.242   5.172  14.919  0.3361  0.0939  0.1467
57325W        W  341   6.219   0.959  22.895 -0.0155 -0.0293 -0.1042
57326W        W  342   6.438   8.943  18.937 -0.0866  0.3908 -0.2098
57327W        W  343  17.171   6.958  19.391  0.0541 -0.1019  0.1986
57328W        W  344  12.965  22.582  24.633  0.1402 -0.1490 -0.0422
57329W        W  345   9.779  14.758  16.155  0.3028  0.2545  0.3891
57330W        W  346  17.228   1.019  25.299 -0.0467 -0.3935  0.3020
57331W        W  347  14.754  17.003  12.708  0.1005 -0.3623  0.2131
57332W        W  348  23.659  20.461  19.947  0.3967  0.2673  0.0715
57333W        W  349   6.307  29.850  15.304  0.3152 -0.1288  0.1523
57334W        W  350  25.907   8.683   4.246 -0.0811 -0.2598  0.2385
57335W        W  351  11.836  15.480  14.601 -0.1964 -0.1731  0.0952
57336W        W  352  31.621  11.698  28.053  0.1293  0.0562  0.0377
57337W        W  353  17.440  31.827  24.370  0.0302  0.0431 -0.1637
57338W        W  354   6.449  25.948  14.003  0.1420  0.1171 -0.0547
57339W        W  355  22.797  20.696  24.979 -0.1423 -0.4820  0.1239
57340W        W  356  24.898   9.821   2.070 -0.0362  0.1136 -0.1778
57341W        W  357  26.903   2.928  27.917  0.1525 -0.1807 -0.2862
57342W        W  358  34.653  10.180   5.067  0.2049 -0.1706  0.0643
57343W        W  359  19.747  28.739  22.193 -0.0320  0.3759 -0.0568
57344W        W  360   7.844   2.250  17.760  0.1823  0.4751 -0.2378
57345W        W  361  11.169   9.634  20.290  0.0212  0.3200 -0.1161
57346W        W  362   8.626  15.219   3.485  0.0512 -0.1141 -0.1942
57347W        W  363   6.638  31.585  19.811 -0.1169 -0.1038  0.1646
57348W        W  364  28.277   3.502  17.194  0.3162  0.0800 -0.1927
57349W        W  365   2.202  14.622  10.492 -0.1588  0.0481  0.1403
57350W        W  366   1.289  31.780  17.205  0.2183 -0.2306  0.0024
57351W        W  367  18.528  21.955  24.020  0.0312  0.1572 -0.0842
57352W        W  368  14.710   0.797  24.676  0.1556 -0.1094  0.2371
57353W        W  369  34.478   3.779  14.727  0.3899  0.1737  0.0280
57354W        W  370   0.145  16.853  28.319 -0.1865  0.3002  0.2943
57355W        W  371  11.572  20.609  19.885 -0.0114  0.0599  0.0635
57356W        W  372  24.428  25.655  22.888  0.2182  0.1210  0.2620
57357W        W  373  26.562  16.553   9.763  0.4001  0.1967 -0.0810
57358W        W  374  15.193  13.276  15.892  0.2297 -0.1401  0.0733
57359W        W  375  25.583  10.286  20.868  0.1274  0.3851  0.1041
57360W        W  376   9.334  21.217  18.211  0.1689  0.2266  0.0445
57361W        W  377  14.135   5.106  19.975  0.2088 -0.2668 -0.2131
57362W        W  378  17.851   5.077   1.760  0.3465 -0.0920 -0.0106
57363W        W  379   8.448  14.308  16.257 -0.0452 -0.0318  0.1585
57364W        W  380  17.485  10.601  15.821  0.1992 -0.2310  0.2921
57365W        W  381  25.701  12.411  16.865  0.0087 -0.0952  0.1329
57366W        W  382  29.230  19.764  19.573  0.1079  0.2817 -0.0528
57367W        W  383  21.981   3.881  23.207  0.1333 -0.0502  0.0558
57368W        W  384   6.485  15.457   0.269  0.1285 -0.1848 -0.2096
57369W        W  385  31.100  18.849   6.480 -0.1170 -0.2538  0.2193
57370W        W  386  22.493  25.930  24.985  0.1024  0.2804  0.2952
57371W        W  387  10.395  12.956  14.337 -0.1623 -0.0480  0.2420
57372W        W  388  13.935   5.020  29.196  0.1408 -0.0608 -0.1443
57373W        W  389  16.737   8.318   3.254  0.0184 -0.0923  0.0595
57374W        W  390   9.353  15.851  18.094 -0.0929  0.0288 -0.0596
57375W        W  391   8.877   3.571  25.298  0.0025  0.0266 -0.2989
57376W        W  392  28.446  27.211  21.626 -0.1813  0.2698 -0.0081
57377W        W  393   1.614  22.878  14.179  0.2503  0.2866 -0.0331
57378W        W  394   5.795  10.576   8.345  0.0287 -0.2444  0.0968
57379W        W  395   8.815   6.073  27.980 -0.4152  0.1220 -0.2735
57380W        W  396  10.375  13.638   8.262 -0.1172 -0.1446  0.1558
57381W        W  397  18.645   9.108   0.546 -0.1974 -0.0800  0.3571
57382W        W  398   7.403  22.408   6.438 -0.0567  0.0699 -0.0811
57383W        W  399  30.951  19.860  17.067  0.2563  0.0597 -0.1746
57384W        W  400  22.695  11.221  17.577 -0.0557  0.1876 -0.1123
57385W        W  401  22.100   7.586  17.253 -0.0123  0.3412  0.1867
57386W        W  402  15.630  11.497  20.116  0.0594 -0.2397 -0.1853
57387W        W  403   9.615  17.928  13.482 -0.0208  0.0959  0.0786
57388W        W  404   1.080  12.132  18.861  0.3970  0.2746 -0.0272
57389W        W  405  26.931  13.046  26.848  0.1362 -0.0196  0.3096
57390W        W  406   5.943  31.015  19.373  0.0940  0.0593  0.3157
57391W        W  407   0.685  13.210  19.300  0.1137 -0.3803 -0.1182
57392W        W  408  30.210   9.896   2.630  0.0588  0.0375 -0.0994
57393W        W  409  14.081  21.065  13.944  0.3022  0.4180  0.0128
57394W        W  410  26.255   8.389  23.549 -0.1974 -0.0845 -0.1476
57395W        W  411   6.288   6.063  16.980  0.2430  0.3877 -0.0144
57396W        W  412   0.758   2.635  19.555 -0.0357 -0.1263  0.1111
57397W        W  413  14.395  15.588  12.607  0.1850 -0.1876 -0.2587
57398W        W  414  18.840  27.677  17.612 -0.2641  0.0130 -0.2569
57399W        W  415  23.502  11.397  27.066  0.3089  0.0149  0.2449
57400W        W  416   2.727  34.538  21.200 -0.3948 -0.0372  0.2348
57401W        W  417   5.903  12.561  29.248 -0.2178 -0.0898  0.0951
57402W        W  418   0.050   6.165  21.146  0.0348  0.2535 -0.0744
57403W        W  419  18.612  34.343  20.554 -0.2445  0.3171  0.0971
57404W        W  420   1.829  28.793  27.121  0.1016  0.2112  0.0867
57405W        W  421   3.859  14.045  25.333  0.3173 -0.0723 -0.0492
57406W        W  422   9.880  23.383  19.602  0.0156  0.0485  0.0040
57407W        W  423  10.864  20.488  15.366 -0.1121  0.1462  0.2281
57408W        W  424  29.365  22.947  17.380 -0.0096 -0.1187  0.1045
57409W        W  425  15.405  18.824   4.531  0.0175 -0.0590 -0.0395
57410W        W  426   3.186  20.411  25.598  0.4251 -0.1051 -0.0745
57411W        W  427  15.280   2.633  16.067  0.0058 -0.1000  0.1107
57412W        W  428  17.527  32.977  25.814 -0.1469  0.1179  0.4577
57413W        W  429   3.942  21.131  19.241  0.4228  0.2491  0.1150
57414W        W  430  12.014  26.471  13.509  0.0962 -0.0690  0.1381
57415W        W  431  13.955  10.554  16.448 -0.3619  0.0618  0.0244
57416W        W  432  27.667  32.834   1.070  0.1587  0.3305  0.1914
57417W        W  433   8.014   0.256  14.801 -0.3210 -0.1580 -0.1653
57418W        W  434  11.664  24.964  20.916 -0.0629 -0.1108  0.2886
57419W        W  435   0.135  15.857  17.361 -0.5561  0.1166  0.0290
57420W        W  436  10.860   7.646  23.700  0.2043  0.2040 -0.1981
57421W        W  437  14.912  30.601  14.263  0.0417 -0.2929  0.2027
57422W        W  438  19.854  24.778  15.218  0.1407 -0.3502 -0.0450
57423W        W  439   3.615  21.016  14.573 -0.0070 -0.2506 -0.2525
57424W        W  440   2.829  12.822  21.177 -0.0087  0.0212  0.1987
57425W        W  441   7.301  22.392  27.350  0.0962  0.2699  0.0834
57426W        W  442  10.264   0.357  25.436  0.1182  0.0050 -0.0476
57427W        W  443  29.974  20.827  28.113  0.2093  0.0854 -0.1031
57428W        W  444  33.471  20.563  25.495 -0.0401  0.0208  0.0168
57429W        W  445   1.629  12.277  16.908 -0.2682 -0.2238 -0.1214
57430W        W  446  20.383   1.509   0.551 -0.0640  0.1547  0.2075
57431W        W  447  11.952  14.411  15.242  0.0291 -0.0165 -0.1850
57432W        W  448   0.484  13.707  26.981 -0.0208 -0.0312 -0.0934
57433W        W  449  23.157   2.572   9.530 -0.1102 -0.2379  0.0534
57434W        W  450  10.949  19.589  25.349  0.0961 -0.1523 -0.1089
57435W        W  451  22.129  10.605  14.568  0.1497 -0.2177 -0.1898
57436W        W  452  13.959  25.048  13.983 -0.0638 -0.0895 -0.0829
57437W        W  453  10.048  15.762  25.047  0.2272 -0.0299 -0.3175
57438W        W  454  23.825   7.117  15.717 -0.2847 -0.0071  0.1030
57439W        W  455  32.063  17.637  17.230  0.1061  0.0658 -0.0815
57440W        W  456   8.965  19.623  16.108  0.0221 -0.0611 -0.1297
57441W        W  457  25.414   3.836  17.581  0.1119  0.1848 -0.1634
57442W        W  458  13.839   9.640  17.970 -0.1370  0.3382  0.0479
57443W        W  459  20.899   8.383  16.903  0.0869 -0.2553  0.0872
57444W        W  460  21.094   7.030  15.645 -0.0251  0.3390 -0.0383
57445W        W  461  18.380   8.300  25.067  0.0230  0.2177 -0.1086
57446W        W  462   7.161  25.587  18.980  0.0627  0.2003 -0.0948
57447W        W  463  14.924  17.060  24.400  0.1207 -0.1439 -0.0969
57448W        W  464  16.358  22.831  17.251 -0.3675  0.2004  0.0299
57449W        W  465  12.104  16.534  19.812 -0.0302  0.1624 -0.0706
57450W        W  466   4.997   5.052  26.065  0.0956 -0.0924 -0.0365
57451W        W  467  32.308  32.385  28.457 -0.0199  0.1349 -0.0098
57452W        W  468   0.330  10.489  22.186 -0.0052 -0.1173  0.3278
57453W        W  469  21.425  11.010   1.777 -0.1568 -0.1265 -0.0280
57454W        W  470  15.586  18.093  21.411  0.1456 -0.2024 -0.0338
57455W        W  471  34.514  12.216  28.088  0.0099 -0.1118  0.0781
57456W        W  472  23.474  11.044   9.338 -0.2862 -0.1913  0.0262
57457W        W  473  11.670   4.100  18.477  0.0756  0.2568  0.3106
57458W        W  474  10.359  13.112   5.579  0.2850  0.1500 -0.0327
57459W        W  475  28.819   3.993  23.914 -0.1815  0.1307 -0.1419
57460W        W  476   9.285  12.193  26.966  0.0581  0.0181  0.0425
57461W        W  477   8.263   4.375   5.917 -0.1587 -0.0834  0.0951
57462W        W  478  30.548  12.938  28.636 -0.2416  0.0369 -0.2132
57463W        W  479  23.302  20.468  18.161 -0.0127 -0.0868 -0.2969
57464W        W  480   7.951  10.235  10.743  0.0701  0.0124 -0.1459
57465W        W  481  12.940   4.995  19.208 -0.0536  0.4335  0.1322
57466W        W  482  22.239  10.150  20.733  0.0026 -0.0359 -0.0427
57467W        W  483   1.023  24.506  18.136 -0.1085  0.1832 -0.0748
57468W        W  484  15.440  23.919  26.824 -0.1466  0.3308 -0.2137
57469W        W  485   7.479   4.233  22.317 -0.0674 -0.1300 -0.1063
57470W        W  486  22.012   9.564   5.807 -0.1411  0.1340  0.1416
57471W        W  487   8.408  11.279  23.868 -0.0843  0.2934 -0.2956
57472W        W  488   9.610   8.390  16.661  0.0561 -0.0018 -0.0785
57473W        W  489  10.642   9.120  25.432  0.1170  0.1936 -0.0316
57474W        W  490  26.849  14.008  19.218  0.2041  0.0925 -0.1286
57475W        W  491  31.823  17.280   3.836 -0.1558  0.5171 -0.2617
57476W        W  492  17.387   5.682   2.492  0.1816 -0.0505 -0.0902
57477W        W  493   2.599  15.862  18.748 -0.1467  0.1055  0.3327
57478W        W  494  21.992  32.984   0.041  0.2605 -0.0209  0.0765
57479W        W  495   6.141  22.554   3.000 -0.1653 -0.0945 -0.0033
57480W        W  496  22.422  33.479  23.057  0.0832 -0.0280  0.0487
57481W        W  497  14.914  17.600   2.320  0.0559 -0.1897 -0.2430
57482W        W  498   8.770  32.477  25.059 -0.1107  0.1221 -0.1074
57483W        W  499  27.180   6.971  19.711  0.3104 -0.1927  0.0197
57484W        W  500  12.039  13.019  22.614  0.0103 -0.2233 -0.0405
57485W        W  501  22.581  24.939  18.857  0.1115 -0.0621  0.1155
57486W        W  502   8.712  21.328   6.873 -0.2614 -0.1369  0.0723
57487W        W  503   6.382  15.979  20.765  0.2234  0.0349 -0.0996
57488W        W  504  29.629  12.687   6.051 -0.1549  0.0788 -0.4572
57489W        W  505  15.025  11.997  16.789 -0.0027  0.1810 -0.3102
57490W        W  506  33.281  27.532  21.860  0.0985 -0.0859 -0.0527
57491W        W  507  13.191  20.611   6.018 -0.1564 -0.2027  0.3985
57492W        W  508  30.983   0.534   7.463  0.1744  0.0169 -0.0289
57493W        W  509  12.602  14.510  25.179 -0.1006  0.3857 -0.2214
57494W        W  510   7.375  19.189  21.365 -0.0560 -0.1971 -0.2670
57495W        W  511  22.874   2.688   3.820 -0.2871  0.0040 -0.2374
57496W        W  512   8.450  15.103  20.474  0.0810 -0.0031 -0.0491
57497W        W  513  19.016  22.261  23.362  0.0126  0.2814  0.1011
57498W        W  514   3.319   5.210  20.809 -0.3401  0.3391  0.0032
57499W        W  515  16.392  16.136  21.324 -0.2699  0.0882 -0.1509
57500W        W  516  29.591  10.042  18.607  0.2031 -0.0789  0.2030
57501W        W  517  28.191  16.427   6.941 -0.0060  0.1368 -0.1540
57502W        W  518   8.708  14.969  22.791 -0.0301 -0.0532 -0.1863
57503W        W  519  27.473   8.731  21.723 -0.2145 -0.4352  0.2511
57504W        W  520  26.214   2.638  17.862 -0.1725  0.1738  0.0682
57505W        W  521  13.649   8.556  20.222 -0.0875  0.2479  0.1571
57506W        W  522  32.698   8.394   6.029 -0.1930  0.1376  0.0177
57507W        W  523   2.766  18.223   4.641  0.5122  0.2764  0.4025
57508W        W  524   9.451  23.631  15.640 -0.0403 -0.3350  0.2340
57509W        W  525   9.506   4.516  16.660 -0.0974  0.0934  0.0999
57510W        W  526  20.739   1.861  27.426  0.0614 -0.1297 -0.2480
57511W        W  527   0.613   1.311  19.156  0.1225 -0.1659 -0.0356
57512W        W  528  17.088  19.438  11.734 -0.1045 -0.3688  0.0842
57513W        W  529   5.752  31.433   2.076 -0.0610 -0.1847 -0.2474
57514W        W  530   0.824  32.802  19.368 -0.2263 -0.0016  0.1785
57515W        W  531   4.995  15.275  25.741 -0.0088 -0.2297 -0.0723
57516W        W  532  20.662  24.802  18.560 -0.1076 -0.0059 -0.3188
57517W        W  533  33.318   3.659  27.710 -0.0493  0.1024 -0.1091
57518W        W  534  20.365  11.781   8.525 -0.3011 -0.3237  0.0353
57519W        W  535  20.473  19.317  25.761 -0.1970 -0.1466  0.0072
57520W        W  536  34.136   8.021  17.222 -0.1694  0.2093 -0.2896
57521W        W  537  10.148  11.436  17.076  0.3312 -0.1710  0.1193
57522W        W  538  33.009  15.663  15.727  0.1527 -0.2422  0.1335
57523W        W  539  14.621   3.615  19.815  0.0580  0.0620  0.2743
57524W        W  540   7.399  26.116  19.798  0.1981  0.1062 -0.1014
57525W        W  541   3.430   8.166  17.987  0.0206  0.1878  0.1788
57526W        W  542   7.701  11.982   3.630 -0.0465 -0.1140  0.0219
57527W        W  543  13.693  27.039  20.889 -0.0178 -0.0607 -0.1031
57528W        W  544  22.952   1.610   5.406  0.1337  0.0238 -0.0910
57529W        W  545  13.557   9.513  12.978  0.2048 -0.1379  0.0515
57530W        W  546  28.035  13.905  20.784 -0.2322  0.0261 -0.0534
57531W        W  547  26.690  23.310  21.501  0.1068 -0.2951 -0.1020
57532W        W  548   5.730   8.516  23.637 -0.0574 -0.1134  0.1010
57533W        W  549  13.405  34.442  15.750  0.0207 -0.3133 -0.0161
57534W        W  550   4.761   3.447  19.422  0.0959  0.0900  0.4446
57535W        W  551  34.337  14.754  25.002 -0.0397 -0.2139  0.2007
57536W        W  552  27.316   6.052   3.423 -0.2059 -0.1117 -0.3031
57537W        W  553  11.887  33.482  15.617  0.1265 -0.0818  0.2016
57538W        W  554   6.530  13.362   2.775 -0.1111 -0.0030 -0.1626
57539W        W  555  13.425  13.898  20.750 -0.1066  0.0686 -0.0422
57540W        W  556  23.270  30.439  16.547  0.1126  0.1261  0.0146
57541W        W  557  34.004  12.804  20.550 -0.0959 -0.0312  0.1522
57542W        W  558  33.898  23.028  25.905 -0.0654 -0.0405 -0.0180
57543W        W  559  30.653   3.052  24.663 -0.0716  0.3921 -0.0529
57544W        W  560  23.804   2.775  24.149 -0.2813  0.0189  0.0425
57545W        W  561  19.402  25.100  27.087 -0.3191 -0.2533  0.2731
57546W        W  562  32.129  10.106   4.096 -0.0366  0.0260 -0.0372
57547W        W  563   7.270   5.899  16.816 -0.3748 -0.1286  0.3067
57548W        W  564  18.913  28.418  23.497  0.2532 -0.0549 -0.1539
57549W        W  565  26.244   1.215  16.512 -0.0824 -0.1390  0.1878
57550W        W  566  14.115  10.910  23.406  0.2105  0.1357 -0.0832
57551W        W  567  23.862  23.935  21.583 -0.0038  0.1700 -0.1576
57552W        W  568   9.485  15.814  16.621  0.0614 -0.1195 -0.0446
57553W        W  569   8.963  16.076  22.902 -0.2347 -0.0776 -0.1768
57554W        W  570  11.599   5.007  17.848  0.0304 -0.0277  0.1711
57555W        W  571   8.838  17.166  12.676 -0.0681  0.2568 -0.3109
57556W        W  572  28.609  21.527  23.443  0.0756 -0.1527 -0.2493
57557W        W  573  11.860  21.608  27.058 -0.1338 -0.0930  0.0204
57558W        W  574   7.209  23.929   4.253  0.1617  0.1136 -0.0930
57559W        W  575  32.602  22.589   8.295  0.1140  0.0655 -0.0460
57560W        W  576   8.745   8.906  20.631  0.1028 -0.0490 -0.2020
57561W        W  577  30.809  12.733  23.234 -0.4109 -0.1522 -0.2178
57562W        W  578  29.202   8.686   4.617 -0.2214 -0.0733 -0.0975
57563W        W  579  23.430   8.283   3.294  0.2157 -0.2397  0.0678
57564W        W  580   5.841  29.942   2.360 -0.0013 -0.0816 -0.1681
57565W        W  581  16.054   5.063   3.257  0.1356  0.0821 -0.1132
57566W        W  582  18.797  10.128  27.556  0.1525 -0.0532 -0.1902
57567W        W  583  12.419   9.225  21.807  0.0517 -0.0767  0.1028
57568W        W  584   2.749  16.504   6.183  0.0614  0.1234 -0.2280
57569W        W  585   8.299   3.999  21.418 -0.2244  0.0359  0.2060
57570W        W  586   8.696  25.276  26.777  0.2155 -0.1329  0.2109
57571W        W  587   8.502   6.256   7.579 -0.0679 -0.0950 -0.1148
57572W        W  588   8.609   8.894  21.290  0.0038 -0.2317 -0.0308
57573W        W  589  11.502   6.168  20.104  0.2662  0.0445 -0.0609
57574W        W  590  31.194   8.473   0.876 -0.1501  0.0504  0.1241
57575W        W  591  13.943   8.572  14.065 -0.0684 -0.2215 -0.0145
57576W        W  592  14.192   3.573  15.728  0.0168 -0.1211  0.0656
57577W        W  593  10.401  18.559  26.347  0.3434 -0.1771 -0.2379
57578W        W  594  27.069  20.669  19.128 -0.1610  0.1008 -0.1027
57579W        W  595  17.878  14.148  21.446  0.0863  0.1215  0.0108
57580W        W  596   6.738  12.750   2.783 -0.0282  0.2719 -0.0028
57581W        W  597   9.333   7.361   2.054  0.0473 -0.1171  0.2123
57582W        W  598  34.389   1.854   3.095  0.1228 -0.1510 -0.1651
57583W        W  599   8.299  20.383  23.169  0.2219  0.0488  0.0670
57584W        W  600  31.092   2.427  19.861 -0.0207  0.2224  0.2180
57585W        W  601  15.817  24.773  26.523 -0.1380 -0.0136  0.2559
57586W        W  602  19.378  10.905  19.873 -0.0821  0.2353 -0.0152
57587W        W  603   2.305   0.687  22.356  0.3061  0.0579 -0.4261
57588W        W  604  10.257   6.772   6.704 -0.1835 -0.2202 -0.1965
57589W        W  605  13.427   8.242  27.368  0.1672  0.2216 -0.0803
57590W        W  606   1.552  13.159  24.251 -0.0620 -0.3582  0.1722
57591W        W  607  15.071   6.138  17.939  0.0966 -0.0139  0.0734
57592W        W  608  10.222   8.494  19.804  0.0411  0.1512  0.2010
57593W        W  609  24.773  20.792  15.301 -0.2428 -0.1912 -0.3172
57594W        W  610  16.212  24.420  20.553 -0.1620  0.0493  0.0249
57595W        W  611   7.916  33.989  25.724 -0.1098 -0.2007 -0.2557
57596W        W  612   4.496  19.376  20.639  0.0950 -0.5837  0.1604
57597W        W  613  17.842  12.217  16.496 -0.3954 -0.0431 -0.3250
57598W        W  614   9.234   5.568   6.492 -0.1615 -0.2555 -0.1834
57599W        W  615   6.720   6.258   0.870  0.1073  0.3201 -0.0688
57600W        W  616  28.497   1.412   2.162  0.2630  0.0732  0.1903
57601W        W  617  18.024  20.750  13.191 -0.1071  0.4482 -0.1132
57602W        W  618  15.770  10.610  23.936 -0.3892  0.0557  0.2604
57603W        W  619  12.478  13.497  14.966 -0.0587  0.0436  0.1387
57604W        W  620  21.060  26.142  27.766  0.0916  0.0369 -0.1129
57605W        W  621  14.894  25.525  25.340 -0.0049 -0.2590 -0.2042
57606W        W  622  11.449  29.917   1.059  0.0694  0.1560  0.0261
57607W        W  623   8.213  31.557  22.375  0.0082 -0.0451  0.1490
57608W        W  624   5.251   7.504  22.115  0.0509 -0.3979 -0.0136
57609W        W  625  21.392  33.097  21.567 -0.2506 -0.1356 -0.0294
57610W        W  626  13.879  20.231   3.671  0.3106  0.1301  0.0192
57611W        W  627  11.947  10.079   1.384 -0.1376 -0.2127 -0.2054
57612W        W  628   8.673  20.062   3.935  0.3868 -0.0628 -0.6454
57613W        W  629  11.771  26.344  24.773  0.3867  0.4926  0.1942
57614W        W  630  34.337  15.458   6.232  0.1002 -0.0386  0.2798
57615W        W  631  15.399  10.714  16.759 -0.0733 -0.0817 -0.2820
57616W        W  632  11.651  19.073  25.224 -0.2233  0.1573 -0.2276
57617W        W  633   4.770  32.535  22.046  0.3790 -0.0288  0.0663
57618W        W  634  29.088   7.254  23.536 -0.1730 -0.1773 -0.5135
57619W        W  635  16.869   1.162   0.036 -0.2172 -0.3698 -0.1376
57620W        W  636  24.267  12.632  22.920  0.2022  0.2832 -0.2309
57621W        W  637  22.863   7.336  22.587 -0.0080 -0.1927  0.1454
57622W        W  638  18.842  23.246  16.616  0.0817 -0.1351  0.2186
57623W        W  639  13.074   8.840  22.556 -0.1615 -0.0455  0.1131
57624W        W  640  15.602  11.119   6.260 -0.0337 -0.1518  0.1189
57625W        W  641  21.840   5.316   4.728  0.1216  0.3260 -0.0946
57626W        W  642   6.846  32.219  16.848 -0.1309  0.1456  0.1358
57627W        W  643  19.754  16.492   8.688 -0.2617 -0.0703  0.0535
57628W        W  644   8.683   7.219  23.571 -0.0397  0.0327  0.1399
57629W        W  645  12.774   6.456   1.853 -0.2175 -0.1656  0.1728
57630W        W  646  10.338   3.248  17.225 -0.1154  0.3579  0.0511
57631W        W  647   4.686  21.968  17.255 -0.1048  0.1541  0.1605
57632W        W  648  20.330  14.515   1.906  0.1838 -0.0137  0.0503
57633W        W  649  31.938  22.584  17.307  0.3034  0.0947  0.2568
57634W        W  650  10.841   9.538  23.077 -0.1916  0.0004 -0.0837
57635W        W  651   0.072  11.895  26.305  0.0505 -0.0815 -0.2165
57636W        W  652  12.701   6.552   5.376 -0.2042  0.0037 -0.3019
57637W        W  653  11.729  25.586  26.406  0.2426 -0.3501 -0.2195
57638W        W  654   8.229  16.633  18.205  0.2371  0.1488 -0.0957
57639W        W  655   7.993   9.337   3.252 -0.1117 -0.1162 -0.1347
57640W        W  656   3.346   4.477  17.465 -0.1789  0.2999 -0.1454
57641W        W  657  22.730  13.015   4.997 -0.0609  0.2755  0.4585
57642W        W  658  24.777  13.581  18.060  0.1222  0.1617 -0.1670
57643W        W  659   1.899   9.707  20.697  0.0620 -0.0817  0.1952
57644W        W  660  18.920  13.755  11.082  0.0420 -0.2061  0.0411
57645W        W  661  34.514  19.247   1.703 -0.3913 -0.0249  0.0336
57646W        W  662  16.308  10.913  26.958 -0.1978  0.2060  0.1183
57647W        W  663  13.862  11.460  28.617 -0.2146  0.1403  0.1441
57648W        W  664  16.141  32.946  14.693 -0.0895  0.2339  0.0977
57649W        W  665   2.439  34.728  14.702  0.0082 -0.0225 -0.0672
57650W        W  666   0.277  17.323  16.428  0.2545  0.0811  0.1418
57651W        W  667   8.650  25.419  14.438  0.1607 -0.2346 -0.3598
57652W        W  668  15.885   9.990  25.224 -0.0530 -0.1100 -0.2092
57653W        W  669   4.926  10.392  25.714  0.2191  0.3082 -0.0771
57654W        W  670   3.921   7.180  13.924 -0.0714  0.1877 -0.0491
57655W        W  671  15.107  31.752  14.236 -0.0188  0.1498 -0.0055
57656W        W  672  31.842   8.237  23.435 -0.1761 -0.1971  0.0606
57657W        W  673   6.689   5.762  21.349  0.1771  0.2569 -0.0499
57658W        W  674  15.857  10.074  19.103 -0.0930  0.1440 -0.1516
57659W        W  675   4.170  17.101  18.236  0.0944  0.1226 -0.2761
57660W        W  676  13.972   0.925   5.932 -0.2930  0.0107  0.2099
57661W        W  677  18.904  21.552  17.276  0.1931 -0.0868  0.1173
57662W        W  678   0.533   6.962  14.578  0.4302  0.1651 -0.1848
57663W        W  679  20.205   1.828  25.843 -0.0608 -0.1527  0.0814
57664W        W  680   5.384  17.985   7.636 -0.1314 -0.1310  0.2330
57665W        W  681   1.219  25.224  23.986 -0.0577  0.1181 -0.1189
57666W        W  682  10.144   9.007  17.221 -0.1895  0.1044  0.0389
57667W        W  683   5.681  20.095  20.294  0.0108 -0.2219 -0.3630
57668W        W  684  29.892   8.942  26.627  0.1980  0.2553 -0.1100
57669W        W  685  21.485   1.992  26.359 -0.3092 -0.1729 -0.0921
57670W        W  686  22.798   8.103   3.346  0.2690 -0.3467 -0.1124
57671W        W  687  17.364   4.308  27.165 -0.1843 -0.0479  0.0485
57672W        W  688   4.934   0.301  17.078 -0.0049 -0.3515 -0.1637
57673W        W  689   8.737  22.753   3.382 -0.2005 -0.0287 -0.0731
57674W        W  690  14.775  31.875  28.731  0.1959 -0.0237  0.0841
57675W        W  691  18.797  16.959  14.974  0.1302 -0.0801  0.0486
57676W        W  692   4.733  32.990  17.928 -0.0474  0.0467 -0.0157
57677W        W  693  24.923  20.479  23.667 -0.2737  0.2054  0.0445
57678W        W  694  11.480   8.741  24.245 -0.1716  0.1858 -0.1106
57679W        W  695  11.385  12.246  13.819 -0.0298 -0.2512  0.0111
57680W        W  696  23.001  20.215  15.689 -0.1242 -0.1808  0.0933
57681W        W  697   4.134   6.706   0.821  0.0950  0.2232 -0.0313
57682W        W  698  23.425  15.934  15.644  0.2534 -0.0555 -0.2580
57683W        W  699  28.245   5.260  19.052 -0.2691 -0.0237 -0.0114
57684W        W  700   4.036  22.543  22.271 -0.1403 -0.2039 -0.0953
57685W        W  701  26.829  34.534   1.623  0.0579  0.1987 -0.2301
57686W        W  702  17.848  12.450   7.204 -0.1223 -0.3032 -0.1602
57687W        W  703  10.089  21.811   0.843 -0.0651  0.1223  0.0985
57688W        W  704   7.915  23.325  19.561 -0.1357 -0.1184  0.2898
57689W        W  705   9.864  10.218  15.215 -0.0886 -0.0394  0.3032
57690W        W  706  27.958   1.126  11.050 -0.1632 -0.4250  0.0783
57691W        W  707   5.480  22.561  18.519  0.4322 -0.0337  0.1868
57692W        W  708   9.075   5.407  18.136  0.1176  0.4309 -0.1107
57693W        W  709  26.371   4.402   0.471 -0.0775 -0.4027 -0.0043
57694W        W  710   8.514  19.144   0.853  0.1658  0.4848 -0.1024
57695W        W  711  20.734  11.173  14.549  0.0510  0.2021 -0.0125
57696W        W  712  14.926  10.649  14.220  0.0356  0.1289  0.2636
57697W        W  713  12.096  32.977   2.482 -0.1951 -0.3881  0.1483
57698W        W  714  29.690   0.520  19.781  0.0526  0.3778  0.0274
57699W        W  715  14.773  26.667  22.896  0.1424  0.0218 -0.1768
57700W        W  716  10.426   3.595  14.147 -0.0281  0.4116  0.0500
57701W        W  717   6.465   3.075   5.790  0.3717 -0.1143 -0.0773
57702W        W  718  12.897   3.177   7.845 -0.0078  0.0303 -0.0101
57703W        W  719   3.850  24.783  17.515  0.0482  0.3546 -0.2856
57704W        W  720  13.829  23.147  28.274 -0.0421  0.1885  0.0262
57705W        W  721  13.227   4.746  19.709  0.1109 -0.0561 -0.0774
57706W        W  722  23.510  15.989  25.513  0.1391 -0.1885  0.0056
57707W        W  723   7.592  19.254  15.240  0.2840  0.3429  0.0556
57708W        W  724  20.014  32.333   1.811  0.2662 -0.0359  0.1484
57709W        W  725   5.582  20.388  23.486 -0.3084 -0.0949  0.1732
57710W        W  726  22.225  34.776  21.349  0.1180  0.0935 -0.3853
57711W        W  727  18.794   9.986  15.909 -0.0598  0.2994 -0.3553
57712W        W  728  14.484   1.958   2.710 -0.0655  0.2938  0.3345
57713W        W  729  17.068  20.594   4.734 -0.0166 -0.1012 -0.1182
57714W        W  730   6.835  15.207  21.447  0.1869 -0.2483 -0.0089
57715W        W  731  33.527  11.631  17.764 -0.0278 -0.0783  0.2188
57716W        W  732  30.905   5.572  26.977  0.2447  0.0117 -0.0775
57717W        W  733  23.200   7.010  23.872 -0.2427 -0.0359  0.1119
57718W        W  734  24.346   9.048  21.130 -0.1014  0.0255  0.2688
57719W        W  735  33.759  15.758  16.410  0.0349 -0.0028  0.2286
57720W        W  736   7.833  18.922  18.708  0.2440  0.3044  0.0701
57721W        W  737  29.025  23.014  23.129  0.0099 -0.1609  0.0451
57722W        W  738   2.400  18.620  15.365  0.3117 -0.3074  0.2560
57723W        W  739  32.109   9.747  24.195  0.1319  0.1162  0.2535
57724W        W  740  29.868  30.499  20.079 -0.0903  0.1437  0.2956
57725W        W  741   1.804   9.434  15.393  0.2555 -0.1736 -0.0576
57726W        W  742  14.594  18.671  25.649 -0.2836 -0.0405 -0.5518
57727W        W  743  29.392   7.718  27.411  0.0111  0.0811 -0.0473
57728W        W  744  11.383  19.177   0.620 -0.2936  0.1380 -0.1461
57729W        W  745  24.376   4.530  28.627  0.2578 -0.0532 -0.1598
57730W        W  746  25.162  19.527  22.137 -0.0287  0.0141  0.0689
57731W        W  747  23.115  14.991   2.263  0.0712 -0.1053  0.1979
57732W        W  748   7.587  25.167   0.056  0.0327  0.2652 -0.0142
57733W        W  749   9.186   9.630   7.967 -0.1963 -0.0133  0.1153
57734W        W  750  25.207  25.481  26.020  0.0971 -0.0126  0.2028
57735W        W  751  17.122  13.455  24.541  0.3711 -0.2844  0.0846
57736W        W  752  16.189   8.063  14.258 -0.0092  0.1153 -0.0463
57737W        W  753  27.695  15.579   3.292  0.0418  0.0052 -0.2366
57738W        W  754   5.035  15.064  16.551 -0.1733  0.2036 -0.1300
57739W        W  755   2.207   6.228  16.357 -0.3143 -0.1153 -0.3633
57740W        W  756  22.788  18.110  19.247  0.1225 -0.0963  0.2241
57741W        W  757  33.242  19.355   1.342  0.1056  0.1621  0.1066
57742W        W  758  30.869  20.780  18.268 -0.1889  0.0165  0.1842
57743W        W  759   8.298   4.769  20.623  0.1155 -0.2889 -0.1447
57744W        W  760  17.605  31.956  23.237  0.2111 -0.0174  0.0827
57745W        W  761  12.039  29.438  20.020 -0.4679  0.2123 -0.0687
57746W        W  762   8.897  10.239  19.058 -0.1260 -0.1571  0.1499
57747W        W  763  16.497  23.823  13.943  0.0313  0.4507 -0.0372
57748W        W  764  29.955   0.974  16.951  0.3412  0.1521  0.4026
57749W        W  765   6.203   5.412   5.903 -0.0435 -0.2741 -0.3303
57750W        W  766  14.184  16.793  14.118  0.4556  0.4454  0.1307
57751W        W  767  13.248   9.629   7.196  0.5017 -0.0199  0.1883
57752W        W  768   1.124  13.112  22.255 -0.1053 -0.2205 -0.0468
57753W        W  769   8.959  20.622  15.117 -0.0374  0.0468 -0.0876
57754W        W  770  14.420  32.173   0.200  0.1958 -0.1862 -0.1480
57755W        W  771  10.576  31.327  23.506 -0.0590  0.4074  0.0659
57756W        W  772  32.699  11.466   7.266 -0.0020 -0.0558  0.4425
57757W        W  773   0.061  14.063  28.141 -0.2240  0.1050  0.0159
57758W        W  774   3.564  12.758   1.434 -0.0243 -0.0608 -0.1557
57759W        W  775  11.911   9.538  26.129 -0.0397 -0.1657 -0.1202
57760W        W  776  21.713  10.116  20.832  0.0692 -0.2646  0.0581
57761W        W  777  10.055   8.458  19.305  0.2912 -0.0800 -0.4892
57762W        W  778   4.578   8.879  16.550 -0.1676 -0.0936 -0.2510
57763W        W  779   8.675  31.834  18.363  0.5105  0.0830  0.1155
57764W        W  780  23.271  34.505  20.658  0.4251 -0.0247 -0.2079
57765W        W  781  20.779  17.424  24.946 -0.0088 -0.0097 -0.0291
57766W        W  782  19.050   2.650  21.682  0.1854  0.0285  0.0114
57767W        W  783  17.941  18.168   4.657  0.2245 -0.0124  0.1815
57768W        W  784   5.237  34.038  20.909 -0.1137  0.0795  0.1197
57769W        W  785  20.221   1.386  28.660 -0.1080  0.1700  0.5141
57770W        W  786   8.843  27.461   8.301  0.3753  0.1800 -0.1199
57771W        W  787  15.878  15.644  22.765 -0.1938  0.2442 -0.4525
57772W        W  788  13.185   2.012  17.897  0.0713  0.1876  0.0337
57773W        W  789  30.730  22.317  15.701  0.1607 -0.0206 -0.1407
57774W        W  790   5.834   3.521   5.295 -0.0412  0.2777  0.0028
57775W        W  791  16.642  18.520  21.158  0.1242 -0.2550  0.3150
57776W        W  792  19.110   2.941  15.580  0.2431 -0.2173  0.0340
57777W        W  793   7.878   5.534  20.945 -0.2230  0.1535 -0.1288
57778W        W  794   7.118  13.572  21.095  0.1052  0.0861  0.2872
57779W        W  795  14.356  11.365  28.497  0.0622  0.1166 -0.3292
57780W        W  796   4.203  17.872  16.655 -0.1250  0.6101  0.1761
57781W        W  797   0.842  17.495  26.333 -0.1422  0.0408  0.0975
57782W        W  798  11.755  22.440  15.132 -0.1012 -0.3548 -0.2240
57783W        W  799   1.896  16.773  24.330  0.2153 -0.2528 -0.0432
57784W        W  800   6.640  24.303  22.876 -0.0398 -0.2621 -0.1907
57785W        W  801  33.625  10.548  23.776 -0.0444  0.2671 -0.1378
57786W        W  802  25.645   0.704  19.541  0.1695 -0.1281 -0.0117
57787W        W  803  14.458  17.473  19.500  0.0023  0.4520 -0.1222
57788W        W  804  15.097   5.823   0.957  0.1151 -0.1008 -0.1388
57789W        W  805   5.190  25.515  17.801  0.0186 -0.3164  0.3090
57790W        W  806  16.095  15.814   4.238  0.0734  0.1588 -0.2305
57791W        W  807   8.000  24.191  19.883 -0.3747 -0.2049  0.1526
57792W        W  808   8.835  23.348  16.976 -0.2258 -0.0447 -0.0352
57793W        W  809  16.395   5.679  23.917 -0.0209  0.3232 -0.0077
57794W        W  810   3.219   2.848   8.667 -0.0305 -0.0856 -0.1613
57795W        W  811  20.005  12.920  24.059 -0.2420  0.1220 -0.2769
57796W        W  812   8.093  32.229  28.164  0.0017  0.0186 -0.1938
57797W        W  813  26.551  33.176  21.535  0.1454 -0.1284 -0.3240
57798W        W  814  13.366  16.220  21.606  0.0305 -0.0004  0.1444
57799W        W  815  25.961  19.662  14.984  0.1873 -0.3433  0.1444
57800W        W  816  17.925   6.627  17.046  0.1423 -0.0001 -0.0466
57801W        W  817   8.886  13.987  20.313  0.1586  0.1647  0.0607
57802W        W  818  17.725  15.151  22.437  0.1049  0.0296  0.1069
57803W        W  819  15.795   3.755   1.476  0.0087  0.4076 -0.0307
57804W        W  820  16.101  11.451  25.064 -0.1208  0.2651 -0.3759
57805W        W  821  10.091  32.559  16.989 -0.0548 -0.0782 -0.0562
57806W        W  822   2.612   0.107  19.951  0.3335  0.2355  0.2644
57807W        W  823  10.914  29.875  18.378 -0.1519 -0.1990  0.1778
57808W        W  824   8.855   9.734  19.602  0.0402 -0.1421 -0.1814
57809W        W  825  32.485  17.143   3.298  0.0902 -0.0272  0.2327
57810W        W  826  16.281   6.917  20.162 -0.1294 -0.1624  0.0625
57811W        W  827  10.887   8.677  22.787 -0.0025 -0.0338  0.1011
57812W        W  828  34.385  19.689   7.039 -0.2271 -0.0102  0.0231
57813W        W  829   9.118  14.072  13.687  0.2569 -0.1997 -0.0720
57814W        W  830   6.363   6.291  23.854  0.3802  0.2270 -0.0058
57815W        W  831  19.059   5.189   0.063 -0.2090 -0.4321  0.0814
57816W        W  832  11.843  24.222  15.158 -0.0882  0.4020  0.0155
57817W        W  833  17.720  10.127  23.213 -0.1453 -0.0827 -0.0786
57818W        W  834  23.689  24.022  26.761  0.0265  0.0666  0.2321
57819W        W  835  21.802   7.352  16.156  0.0975 -0.0672 -0.0220
57820W        W  836  25.866  25.864  15.863 -0.1389 -0.0631 -0.4640
57821W        W  837   4.853  17.489  15.854  0.0665 -0.0227  0.3232
57822W        W  838  13.470  13.262   0.023 -0.2806  0.1245  0.2449
57823W        W  839  31.970  11.265   4.083  0.0951  0.1853 -0.1180
57824W        W  840  26.829   7.478   2.216 -0.0837 -0.1184 -0.0904
57825W        W  841  16.807  16.011  28.329  0.0626 -0.0781 -0.1587
57826W        W  842  26.132  21.181  16.429 -0.2345  0.0590 -0.1290
57827W        W  843   5.901  11.895  20.984  0.0542  0.3151 -0.0036
57828W        W  844  10.481  16.443  27.352 -0.1845 -0.0635 -0.3810
57829W        W  845  22.986   4.158   9.311 -0.1780 -0.2825  0.2547
57830W        W  846  14.374  18.162   3.315 -0.0125 -0.4296  0.0239
57831W        W  847  23.181  34.590   4.990  0.0784  0.2973 -0.2912
57832W        W  848  22.587  19.790   0.210 -0.0169  0.2003  0.1292
57833W        W  849   8.783  13.051  14.542  0.1120 -0.1894 -0.1083
57834W        W  850  23.741   9.119  15.242 -0.0700 -0.0241  0.0416
57835W        W  851  14.229  32.536   9.303 -0.2771 -0.0209  0.1520
57836W        W  852   4.635   2.035  28.201 -0.2720  0.2132 -0.0074
57837W        W  853  17.296  17.220   7.656 -0.2905  0.1428  0.0037
57838W        W  854  11.258  32.333  16.347  0.3322  0.5103  0.2370
57839W        W  855   0.893   5.488  24.449  0.0995  0.1285  0.0531
57840W        W  856  21.969   1.061  10.588  0.2659  0.0560 -0.0302
57841W        W  857  13.973   9.210   9.539  0.2079 -0.2236  0.0709
57842W        W  858   7.521  16.060  13.296  0.1790 -0.0158  0.1773
57843W        W  859  14.573  31.762   1.873  0.3776  0.1907 -0.2693
57844W        W  860  14.997  20.646  23.011 -0.1793 -0.4156 -0.0278
57845W        W  861  25.663  11.103   2.536  0.1162  0.3909 -0.1028
57846W        W  862  16.475  33.604   7.440 -0.0759  0.1908 -0.5821
57847W        W  863  16.956  18.087  22.463 -0.0919 -0.0299  0.0503
57848W        W  864   5.253  11.838  28.968 -0.0347 -0.1290 -0.0069
57849W        W  865  24.031  16.671   5.191 -0.1507 -0.2117  0.3176
57850W        W  866  30.481  15.932   7.292 -0.1550  0.2670  0.0157
57851W        W  867  22.374  18.512  12.677  0.0284  0.0877  0.0432
57852W        W  868  15.403   4.125   9.251  0.1623 -0.1336 -0.1248
57853W        W  869   9.461   9.880   2.412  0.0959  0.1245  0.1040
57854W        W  870  34.157  10.675   1.851  0.0137 -0.2791 -0.0304
57855W        W  871   4.247  11.289  28.697 -0.1892 -0.0004 -0.0950
57856W        W  872   2.324  19.526  26.364 -0.1375 -0.2286  0.0996
57857W        W  873  24.182  11.050  27.566  0.2620 -0.0531 -0.2292
57858W        W  874   7.695  23.650   5.472 -0.1618 -0.1252  0.0612
57859W        W  875   7.366  21.994  25.286  0.0697  0.0320 -0.0120
57860W        W  876   6.442   3.782   8.671 -0.1324  0.0217  0.1212
57861W        W  877   4.596  34.681   5.531 -0.1153 -0.0827  0.4018
57862W        W  878   5.318  16.254  14.292 -0.0369 -0.0100 -0.1310
57863W        W  879  11.140  28.564  21.797  0.4932  0.0793  0.0821
57864W        W  880  31.033  21.495  10.470  0.2009 -0.1151 -0.0777
57865W        W  881   3.385  29.684  27.454  0.0538 -0.3481 -0.0849
57866W        W  882  33.009  31.814  22.537 -0.0145 -0.2094 -0.0160
57867W        W  883  10.931   1.565   4.527  0.2333 -0.0967 -0.1084
57868W        W  884  27.707  34.312  16.650  0.3328 -0.1769 -0.1561
57869W        W  885   0.126  17.604  25.447 -0.1118  0.1921 -0.2296
57870W        W  886  13.338  14.274  27.535  0.2063  0.0173  0.2295
57871W        W  887  18.418  26.280   1.080 -0.1392  0.1164 -0.2136
57872W        W  888  10.399   5.240   3.821  0.3438 -0.1747  0.1257
57873W        W  889   1.170  29.312   8.645  0.0154  0.0661 -0.0453
57874W        W  890  18.859  13.993   3.634  0.1839  0.0216  0.0490
57875W        W  891   7.400  10.960   9.312 -0.2319 -0.2484  0.1917
57876W        W  892   8.962  11.388  24.600  0.4431  0.0730 -0.1102
57877W        W  893  11.753  16.897   2.998  0.2237  0.1212 -0.1354
57878W        W  894   6.744  20.518  17.446  0.0268  0.0639 -0.0349
57879W        W  895   2.205  24.419  27.085  0.1804  0.0157  0.1627
57880W        W  896  13.999  19.107  14.002  0.2311  0.3141 -0.3165
57881W        W  897  17.051   3.588  22.633 -0.0195 -0.0157  0.2013
57882W        W  898   9.699  21.417   8.388 -0.2391  0.0687 -0.1499
57883W        W  899  30.020  19.681  11.053  0.0833  0.0703 -0.1190
57884W        W  900  14.777  10.497  21.391  0.1020 -0.0231 -0.2699
57885W        W  901   4.535   2.897  15.631  0.2777  0.2035  0.0993
57886W        W  902  30.310  29.839   9.721 -0.2537  0.1714  0.3437
57887W        W  903   4.973  32.834   3.773 -0.1224  0.0060 -0.0611
57888W        W  904  11.625   4.338  20.802  0.2868 -0.2528  0.2210
57889W        W  905  22.987  14.902  19.096  0.3790 -0.1083  0.2648
57890W        W  906   3.473  14.814  15.911 -0.0849 -0.0106  0.0388
57891W        W  907   4.577  12.383   2.705 -0.0666 -0.1715  0.1472
57892W        W  908   8.649  20.971   3.876  0.0858  0.0984  0.2484
57893W        W  909   9.028   8.951   3.068  0.1443  0.0873 -0.2994
57894W        W  910  20.556   7.501   4.576  0.0702 -0.0736 -0.0691
57895W        W  911   7.440   3.836  25.480  0.2148 -0.0654  0.0697
57896W        W  912  29.000  29.733  24.544 -0.2140  0.1436 -0.0479
57897W        W  913  19.546  27.281  27.870 -0.4131 -0.3261 -0.2193
57898W        W  914  34.020  25.447   4.151  0.1329  0.0781 -0.0663
57899W        W  915  12.957  20.789   3.649 -0.1185 -0.1416 -0.2256
57900W        W  916   8.481   4.485   6.380  0.4305 -0.0598 -0.0651
57901W        W  917  29.247  29.754   1.870 -0.1645  0.1616  0.3983
57902W        W  918  30.233   3.501  24.348 -0.2247  0.1579  0.2143
57903W        W  919  24.567  11.563   3.946 -0.1447  0.2933 -0.0885
57904W        W  920   9.089   9.402  17.237 -0.0004  0.0029  0.1072
57905W        W  921   3.286  17.567  22.578 -0.0590  0.4572 -0.0613
57906W        W  922  12.637  14.691  22.011  0.1496 -0.1407 -0.3463
57907W        W  923   8.024   6.001   4.368 -0.1724  0.4570  0.1505
57908W        W  924  15.056   7.673  20.020  0.2253  0.1358 -0.1520
57909W        W  925  34.358   8.450  10.225  0.1971 -0.3274  0.1292
57910W        W  926  34.156   7.399  24.681  0.0499  0.3439 -0.2141
57911W        W  927  18.561  10.849  19.214  0.3509 -0.0511  0.0808
57912W        W  928  12.308   9.349  13.797 -0.1275  0.2483  0.4004
57913W        W  929  25.326   8.049  17.952  0.2314  0.2073 -0.0905
57914W        W  930   2.370  13.078  17.386 -0.0414 -0.0477 -0.0820
57915W        W  931  19.622  20.948  14.803 -0.1785  0.2599  0.1177
57916W        W  932   3.299   6.132   0.347  0.0142 -0.0564 -0.2191
57917W        W  933   5.851  23.631   1.655  0.5023 -0.1600  0.0576
57918W        W  934   7.055   2.786   2.014 -0.1027  0.3186  0.0034
57919W        W  935  12.646  24.389  26.981 -0.0777 -0.2787 -0.0314
57920W        W  936  26.303   5.178  16.543 -0.2785 -0.1269  0.2433
57921W        W  937  34.554  34.427  17.481 -0.0355  0.2906 -0.0239
57922W        W  938   7.192  17.904   4.119 -0.0016  0.0251  0.2804
57923W        W  939  12.204   4.718  18.779  0.1275  0.0852  0.1689
57924W        W  940  24.525   8.506  25.319  0.1485  0.0375  0.0936
57925W        W  941  13.190  17.890   4.692 -0.1493 -0.1530 -0.0049
57926W        W  942  12.707   2.320  22.495 -0.0799 -0.1679  0.1875
57927W        W  943  23.362  22.043  22.166 -0.1035 -0.1724 -0.1566
57928W        W  944  10.156   5.406  24.293 -0.2796  0.3929 -0.1552
57929W        W  945  12.963  14.908  22.507 -0.0041 -0.1739 -0.1482
57930W        W  946  19.386  13.628  24.053  0.0801  0.0133  0.0963
57931W        W  947  23.180  21.963  17.756  0.1166  0.0545  0.0686
57932W        W  948  16.722  12.163  22.493 -0.1722  0.0564 -0.0128
57933W        W  949  20.676  10.778  14.305  0.0344  0.0634 -0.0701
57934W        W  950  23.238   8.801   6.996  0.1821 -0.1533  0.0601
57935W        W  951  27.014  14.587   3.162  0.1764 -0.1150  0.0749
57936W        W  952   1.891  25.174  17.565  0.0156  0.2031  0.2003
57937W        W  953  12.865   4.803  27.060 -0.1184  0.0645  0.2347
57938W        W  954  21.959   5.894  25.228 -0.1308  0.1168  0.1103
57939W        W  955   3.224  12.699  27.672  0.3336 -0.0582  0.0092
57940W        W  956   4.392   8.981   9.030  0.0186  0.2322  0.2196
57941W        W  957  34.054   4.186   3.380 -0.0475 -0.1687  0.1596
57942W        W  958  16.206  20.122  16.188 -0.0283  0.2908 -0.2581
57943W        W  959  16.414  11.655  20.567  0.0566  0.0475 -0.1241
57944W        W  960  11.590  12.074   3.211 -0.1299  0.1237 -0.1439
57945W        W  961  21.050  11.767   4.774 -0.2571  0.0328  0.4377
57946W        W  962   7.999  13.239  16.867 -0.3262  0.0584 -0.0289
57947W        W  963   3.075  11.979   6.696  0.2129  0.2450  0.2349
57948W        W  964  27.372  34.251  28.972  0.0318  0.0688 -0.1223
57949W        W  965   2.061  17.755   8.633  0.0701  0.1513  0.2224
57950W        W  966  33.132  14.665   3.528  0.2715  0.1659  0.1538
57951W        W  967   2.285   2.925  22.868  0.1296 -0.0003 -0.3406
57952W        W  968   4.767  13.062  21.597 -0.2473  0.0188  0.1903
57953W        W  969  17.602  12.594   6.752  0.3213  0.5766 -0.0640
57954W        W  970   5.284  10.244  23.158 -0.1754  0.0336  0.2913
57955W        W  971  16.811  24.318  28.765  0.0560 -0.0377 -0.2496
57956W        W  972  20.072  29.299  27.606 -0.1905 -0.1855 -0.0560
57957W        W  973   4.482  15.578  23.653 -0.2440  0.2518 -0.0288
57958W        W  974  10.910  12.013  19.832 -0.2685  0.0194 -0.0357
57959W        W  975  11.587  24.566   3.073 -0.1989  0.0587 -0.0193
57960W        W  976   3.413   6.639   4.821 -0.1576 -0.2269 -0.4387
57961W        W  977  17.626  18.402   3.125  0.2717 -0.2246 -0.2229
57962W        W  978  21.596  12.622  14.846  0.1268  0.0226 -0.0857
57963W        W  979  12.525  26.096   3.595 -0.0463 -0.1219  0.1634
57964W        W  980   3.747  20.815   2.995 -0.0073  0.1023 -0.1214
57965W        W  981   4.731   7.426  23.550  0.0023  0.0839 -0.1260
57966W        W  982   0.838  14.615  29.000 -0.1440  0.0890  0.1239
57967W        W  983   5.534  16.821   1.920 -0.1923  0.1424 -0.0519
57968W        W  984  17.398  19.408  16.340  0.0621  0.0620  0.3005
57969W        W  985  10.115  17.851  13.656 -0.3027 -0.0052  0.1023
57970W        W  986  18.676  10.576  24.998 -0.1875 -0.0525  0.0487
57971W        W  987  18.326   5.529   8.358 -0.1809  0.0222  0.1892
57972W        W  988  17.862  25.254  17.125 -0.1436 -0.0215  0.0985
57973W        W  989  15.107  12.995   4.415  0.0043 -0.4143 -0.0444
57974W        W  990  19.336  13.320  13.063 -0.1585  0.2860  0.1068
57975W        W  991  24.622  16.366  24.310  0.4245  0.2635  0.0248
57976W        W  992  34.431   0.344   0.924 -0.0813  0.1707  0.3026
57977W        W  993   4.054   9.670  23.921 -0.2988 -0.1634 -0.1800
57978W        W  994  23.259   8.308  18.999  0.1485  0.0749 -0.1428
57979W        W  995   5.341  16.488  22.925 -0.0404 -0.1460 -0.0798
57980W        W  996  13.272   3.355   9.510  0.0744  0.0599  0.1313
57981W        W  997  15.122  10.166  22.692  0.2703  0.1965 -0.1727
57982W        W  998  13.684  23.310   4.372 -0.2418 -0.0698 -0.1258
57983W        W  999  15.097  28.650  25.171  0.0756 -0.1177 -0.0919
57984W        W 1000  18.671   8.795  20.234  0.1814 -0.4689  0.0458
57985W        W 1001  15.093  20.013  14.859 -0.4238 -0.1173  0.0093
57986W        W 1002  14.559  23.805  22.070  0.0558  0.2551 -0.4224
57987W        W 1003  29.284   8.199   5.001 -0.1789  0.2740  0.0664
57988W        W 1004   2.047  14.159  16.345  0.0147 -0.1630 -0.1076
57989W        W 1005  25.059  17.182  17.771  0.3347 -0.0593  0.0296
57990W        W 1006  18.359  18.206   7.246  0.1598  0.5191  0.0604
57991W        W 1007   5.364  17.356   6.347  0.0733 -0.1887  0.2637
57992W        W 1008  26.354  30.148  23.434 -0.0313  0.1491  0.0349
57993W        W 1009  32.675  20.649   4.403  0.1493 -0.1803 -0.0429
57994W        W 1010  14.470   7.662  16.946  0.0303 -0.2148  0.1078
57995W        W 1011   8.510   7.520   8.232 -0.3521  0.1340  0.2357
57996W        W 1012  17.610   5.266  15.890 -0.4674 -0.2022  0.0668
57997W        W 1013  15.605   8.181  21.485  0.0412  0.0253  0.5717
57998W        W 1014  22.568  33.899   2.936 -0.0436  0.1136  0.0921
57999W        W 1015  33.131   7.045  14.585 -0.1610 -0.2008  0.3505
58000W        W 1016  25.066  16.919  10.082 -0.0742  0.0606  0.0033
58001W        W 1017  20.828  15.296  23.827 -0.0535  0.2100  0.2604
58002W        W 1018   8.519  18.477  23.133  0.1787  0.0616 -0.3882
58003W        W 1019  19.166   8.859   5.370 -0.1428 -0.1456 -0.0240
58004W        W 1020  27.363  16.046   0.392 -0.1178 -0.2258 -0.0752
58005W        W 1021  28.278  18.096   9.999  0.2493 -0.0658  0.0141
58006W        W 1022   9.158  28.652  10.647 -0.0436 -0.1870  0.0763
58007W        W 1023  17.791  10.695  13.026  0.0737  0.0356 -0.1017
58008W        W 1024   2.131  13.577   0.541  0.1134  0.0344  0.0553
58009W        W 1025  26.833  14.391  24.122  0.2297  0.2078 -0.2839
58010W        W 1026   4.156   9.164  15.402 -0.1763  0.0334  0.1021
58011W        W 1027  17.680   3.913   1.967 -0.0129  0.0944 -0.0398
58012W        W 1028  18.653  27.226   1.235  0.0593 -0.0231 -0.1509
58013W        W 1029  17.972  21.392  13.948  0.2366 -0.0529  0.0846
58014W        W 1030  21.620  27.233   0.085  0.1306 -0.0637 -0.0314
58015W        W 1031  29.373   9.740  25.642 -0.0630 -0.1605 -0.4467
58016W        W 1032   0.281   9.227   5.583  0.3066 -0.1057 -0.1789
58017W        W 1033  19.718   1.198  27.057 -0.2083 -0.2082  0.0786
58018W        W 1034  12.288  21.476  13.245 -0.0618 -0.0319  0.0706
58019W        W 1035   6.211   9.689  27.594  0.1768 -0.1334  0.2624
58020W        W 1036  17.560  15.276  15.217  0.2295 -0.1540 -0.4670
58021W        W 1037   1.831  13.480  25.030 -0.3173  0.1564  0.4472
58022W        W 1038   7.081  28.519  16.112  0.0914 -0.0724 -0.1568
58023W        W 1039  16.537  17.449  22.862  0.1635  0.0037 -0.1202
58024W        W 1040   6.516  32.591  17.765 -0.1730 -0.0227 -0.2870
58025W        W 1041  17.302   0.970   9.307  0.2831  0.0094 -0.3602
58026W        W 1042  13.048  22.973  26.173  0.3277  0.1922  0.3640
58027W        W 1043  31.470  13.989  18.426  0.1552  0.2060 -0.2139
58028W        W 1044  26.028  18.630   1.222 -0.3876  0.2349 -0.1528
58029W        W 1045  17.244   2.107  18.219  0.0726 -0.0600 -0.1486
58030W        W 1046  24.274   2.944   5.692  0.1370 -0.0151 -0.3071
58031W        W 1047   2.124   7.950   0.687  0.1992  0.0169  0.0196
58032W        W 1048   4.861  14.580   8.748 -0.0436 -0.1675 -0.0958
58033W        W 1049   3.265  13.388  25.300 -0.0742 -0.2089  0.1215
58034W        W 1050   7.163  21.002  19.260  0.0424 -0.1212 -0.1377
58035W        W 1051   5.883   8.674  17.204  0.1310 -0.0526 -0.1268
58036W        W 1052  17.741  13.391   3.642  0.1062  0.3443  0.1268
58037W        W 1053  15.639  19.933  28.039  0.1984  0.3438  0.1641
58038W        W 1054  11.853  19.861   1.209 -0.1646 -0.0394 -0.0655
58039W        W 1055   3.491  17.838  20.445  0.0253 -0.1680  0.4234
58040W        W 1056  18.377  14.115   1.736  0.3721 -0.0931 -0.1971
58041W        W 1057   9.359  15.695   2.004  0.0487  0.1625 -0.2440
58042W        W 1058   8.119  26.005  22.416 -0.0391  0.0978 -0.2297
58043W        W 1059   5.522   4.029   2.543 -0.2013 -0.1575  0.2750
58044W        W 1060  24.118  10.610  26.178  0.0140  0.2245  0.3035
58045W        W 1061  32.877   4.646   9.995 -0.1689  0.2127 -0.1361
58046W        W 1062   4.471   8.177  27.810 -0.1283 -0.1376 -0.0924
58047W        W 1063  14.314  24.881  20.299 -0.1395 -0.0460  0.0095
58048W        W 1064   4.496  12.293   8.572 -0.1305 -0.2528 -0.1162
58049W        W 1065  17.338  23.937  26.617 -0.1640 -0.2933 -0.3843
58050W        W 1066  10.574  23.473  22.827 -0.1364 -0.2444 -0.0000
58051W        W 1067  12.748  27.494   2.820  0.0028  0.2555 -0.1082
58052W        W 1068   5.563  14.964  14.136  0.2963 -0.0453 -0.0091
58053W        W 1069  22.732  29.243  17.651  0.0721 -0.0239  0.0536
58054W        W 1070  32.234  20.835   1.941  0.1271  0.0577 -0.0418
58055W        W 1071   6.966  14.674   5.834 -0.0082  0.0543 -0.2118
58056W        W 1072  19.493  10.163  22.658  0.0334  0.2650  0.1796
58057W        W 1073  16.239  15.675  18.422 -0.1072  0.0602  0.0149
58058W        W 1074  17.652  22.559   7.123 -0.1524 -0.1787  0.1775
58059W        W 1075  18.441  17.025   0.036 -0.3028 -0.0565  0.0392
58060W        W 1076  16.868  11.601  22.838 -0.1555 -0.0893  0.3989
58061W        W 1077  11.984   0.521   6.849 -0.0537  0.0691  0.3930
58062W        W 1078  14.144   5.711   4.201  0.1760 -0.0320  0.1202
58063W        W 1079   1.900  12.504  21.483  0.0449 -0.2607  0.1298
58064W        W 1080   6.840  12.347  21.565  0.1040  0.0385  0.0967
58065W        W 1081  18.555  17.447  24.341  0.0055  0.1492  0.0436
58066W        W 1082  19.899   7.723   5.824 -0.0827 -0.0130  0.0194
58067W        W 1083  33.946  16.808  22.770  0.0611  0.3465 -0.1225
58068W        W 1084  16.237  25.714   4.863  0.0805  0.1006  0.2625
58069W        W 1085   4.764  19.119   5.425 -0.0647  0.1978  0.1778
58070W        W 1086  19.757   9.972   4.126 -0.0529 -0.2281  0.1762
58071W        W 1087  16.204   0.615   6.825 -0.4061 -0.1340  0.0708
58072W        W 1088  24.168  16.576  24.971  0.1170 -0.1074 -0.1198
58073W        W 1089  18.916  15.818   3.853  0.1959  0.1440 -0.1627
58074W        W 1090  34.307  22.448   2.863 -0.2623 -0.1525  0.1868
58075W        W 1091   6.558  15.810  23.516  0.1337 -0.2269 -0.2257
58076W        W 1092  26.399   3.940  19.742  0.1708 -0.1994 -0.0443
58077W        W 1093  13.512  22.156   0.442  0.1368 -0.1059  0.0669
58078W        W 1094  19.703   3.555  21.471 -0.0875  0.0648 -0.0225
58079W        W 1095  13.956  15.496  28.751  0.4415 -0.0361 -0.0865
58080W        W 1096  14.954  15.976   1.328 -0.1052 -0.0783 -0.0840
58081W        W 1097  27.790  13.651   8.163 -0.0496 -0.1642 -0.2796
58082W        W 1098   4.069  14.363   2.395  0.0011  0.1725  0.1347
58083W        W 1099  32.239  20.947   4.427  0.0333  0.0526  0.0334
58084W        W 1100  26.305  17.526   9.228  0.0226 -0.4361 -0.0604
58085W        W 1101  18.760  23.193  26.448  0.1081 -0.0940  0.1005
58086W        W 1102  16.855  10.213  18.888 -0.2884  0.1597 -0.0291
58087W        W 1103  17.264   3.407   7.106 -0.2566 -0.2348  0.1968
58088W        W 1104  28.248  21.491   9.090 -0.0098  0.0843  0.0491
58089W        W 1105   5.194  17.575  24.772 -0.2355 -0.0341  0.1040
58090W        W 1106  22.335   2.394  27.860  0.1917  0.0421  0.1043
58091W        W 1107  33.325  17.785  10.673  0.1045 -0.0165  0.0828
58092W        W 1108   5.620  10.144   8.308  0.1495  0.2914 -0.0498
58093W        W 1109  19.687  11.359   7.765  0.0426 -0.2025 -0.2306
58094W        W 1110  18.025  21.449  24.632  0.2193 -0.2130  0.1550
58095W        W 1111   8.960  13.545  13.475 -0.0851 -0.0527  0.1770
58096W        W 1112   5.094   3.888   1.867  0.3011 -0.0309  0.2640
58097W        W 1113  18.384  13.608  13.040 -0.4311 -0.2562  0.1356
58098W        W 1114  20.030  14.127   1.712  0.0942  0.0774  0.0572
58099W        W 1115  12.466  33.179  20.662  0.1859  0.0944  0.1067
58100W        W 1116  16.882   8.941   4.685  0.1797  0.0996 -0.5303
58101W        W 1117   0.518   6.087   4.334 -0.0368  0.2427  0.0990
58102W        W 1118  12.126  16.759  27.857  0.0402  0.0703  0.0501
58103W        W 1119  12.693   3.673   7.947  0.1492  0.2336  0.2287
58104W        W 1120  26.845  26.949   0.356 -0.2354  0.0724 -0.2057
58105W        W 1121  15.109   4.486   0.000  0.0865 -0.2151 -0.1469
58106W        W 1122  29.486  23.001   9.201  0.3099  0.2239  0.0210
58107W        W 1123  31.015  24.469   8.959  0.0804  0.2165  0.3135
58108W        W 1124  11.402  21.344  24.107 -0.2283 -0.1249  0.2408
58109W        W 1125   4.252   3.508  26.467 -0.3318  0.1759  0.0821
58110W        W 1126  24.326  12.888  14.410 -0.0862 -0.1497  0.3377
58111W        W 1127  32.483   6.544   3.782  0.1329  0.1386 -0.0776
58112W        W 1128  12.117   5.843   1.323  0.0404 -0.0158  0.1280
58113W        W 1129   1.435  15.311   1.107 -0.4537 -0.1297 -0.0006
58114W        W 1130   0.065  23.548  23.929  0.1721  0.0771 -0.3131
58115W        W 1131  22.265  12.699   1.017  0.1044  0.1808  0.1004
58116W        W 1132   3.409   8.945  26.755 -0.0873 -0.1284 -0.1142
58117W        W 1133  14.331  32.220   3.858 -0.0363 -0.1100 -0.2668
58118W        W 1134  17.403   3.048   6.666 -0.1566  0.0421 -0.1542
58119W        W 1135  17.028  14.362  20.872 -0.0078 -0.0770 -0.0536
58120W        W 1136  14.464   7.103   8.545 -0.2279 -0.0888  0.0191
58121W        W 1137   8.640  11.440   5.384 -0.2619  0.0817  0.0442
58122W        W 1138  21.465  24.358  28.131 -0.0085  0.0386 -0.0751
58123W        W 1139   3.250  20.954   4.753 -0.0817  0.0139 -0.2484
58124W        W 1140  12.840  34.670  28.243  0.1037 -0.1306  0.1956
58125W        W 1141  18.393  10.644   6.816 -0.0009  0.0052 -0.0561
58126W        W 1142  18.847   3.016   0.735  0.0408 -0.1514  0.1615
58127W        W 1143  13.582  11.585  22.310  0.1331 -0.2939  0.1501
58128W        W 1144  14.021  29.179  19.903 -0.0506  0.2928 -0.3677
58129W        W 1145  32.722  21.422   9.769  0.1517 -0.1084  0.1603
58130W        W 1146   4.184  12.411   7.489 -0.0914  0.0108 -0.0907
58131W        W 1147  10.212  12.464  15.480  0.0507 -0.0095  0.1032
58132W        W 1148  28.794  13.832   3.148  0.1599  0.2488  0.3284
58133W        W 1149  12.588  22.200  23.937  0.0289  0.1039 -0.2200
58134W        W 1150  30.023   6.886   2.428 -0.1731  0.0480 -0.2395
58135W        W 1151  12.222  31.736  29.230  0.2406  0.4234 -0.2598
58136W        W 1152   7.899  21.264  17.501  0.1281 -0.3541  0.2043
58137W        W 1153  18.439  16.247   2.970  0.3706  0.3244 -0.1118
58138W        W 1154  33.194   9.805   3.132 -0.0500 -0.1479  0.0135
58139W        W 1155   3.171  20.499  27.714  0.0052  0.1942 -0.2208
58140W        W 1156  12.842   0.137   2.331  0.2396 -0.2762 -0.3123
58141W        W 1157  12.579  29.796  27.952  0.1308 -0.0851 -0.5876
58142W        W 1158  12.565  10.880   1.402 -0.0501 -0.4049 -0.2996
58143W        W 1159  24.330  10.240   3.979  0.0625  0.0511 -0.6189
58144W        W 1160  10.134  16.053  15.076  0.1176  0.1708 -0.0788
58145W        W 1161  10.222  17.503  18.008 -0.4258  0.1309 -0.1076
58146W        W 1162  15.968   3.123   4.549  0.2632  0.3775 -0.1114
58147W        W 1163  15.030  11.114  17.359  0.1552 -0.1484  0.1753
58148W        W 1164  26.308   5.695   8.523  0.2529 -0.0930  0.0879
58149W        W 1165   8.077  17.947  16.525 -0.1326  0.1373 -0.0167
58150W        W 1166  29.569  33.504  28.861 -0.0192  0.0876  0.2324
58151W        W 1167  25.986  27.650  25.248  0.0023 -0.0033  0.1123
58152W        W 1168   6.644  16.564   6.828  0.0162  0.0516 -0.0830
58153W        W 1169  23.561  11.121  22.945 -0.2086 -0.2711 -0.2762
58154W        W 1170   9.035  21.745   4.791 -0.2926 -0.3841 -0.0553
58155W        W 1171  16.889   3.589   1.243  0.0315 -0.0745 -0.1835
58156W        W 1172  15.852  13.058   7.902 -0.2884 -0.1786  0.2048
58157W        W 1173  20.262  15.336   6.422 -0.3370  0.1494  0.2713
58158W        W 1174   6.709  18.448  22.062 -0.2422 -0.0095 -0.1362
58159W        W 1175  12.134  11.748   4.248  0.1817 -0.1755 -0.2926
58160W        W 1176  10.314  13.274  24.413 -0.1494  0.2145 -0.0042
58161W        W 1177  34.421   6.117  20.800 -0.4825  0.0325  0.2035
58162W        W 1178   9.370  11.192  14.157 -0.1725 -0.1511  0.1779
58163W        W 1179   7.092   4.057  17.935 -0.0196  0.1049  0.1910
58164W        W 1180  32.966  12.606  22.267  0.1566 -0.1286  0.3304
58165W        W 1181  14.127   1.495  16.972 -0.0658  0.0237  0.1788
58166W        W 1182  34.314   4.063  19.141  0.1649  0.3715  0.2572
58167W        W 1183   5.039  30.036   5.202  0.1636 -0.2040 -0.0417
58168W        W 1184  15.369   8.889   1.464 -0.1245  0.0008  0.2555
58169W        W 1185  21.303   7.245   6.263 -0.0110  0.3934  0.1079
58170W        W 1186   7.290  15.619  20.098  0.1671 -0.2571 -0.2360
58171W        W 1187  27.831  20.126   9.469  0.1992  0.1056 -0.3664
58172W        W 1188  16.048  24.026   8.318 -0.2766 -0.0356 -0.1449
58173W        W 1189   6.631  13.344  27.817 -0.1807  0.1450 -0.3425
58174W        W 1190  22.410   7.695  27.059  0.1732  0.0444 -0.2312
58175W        W 1191  30.319   4.756   3.529  0.1406  0.0730 -0.0066
58176W        W 1192  13.269  24.217   4.368 -0.1657  0.1953 -0.3277
58177W        W 1193  11.236   0.945  17.752  0.1410  0.1722  0.1734
58178W        W 1194   8.796  25.051  27.469 -0.1154 -0.0214  0.0028
58179W        W 1195  17.262  15.072  24.639  0.0341  0.0861  0.1911
58180W        W 1196  20.362  21.642  25.986 -0.0886 -0.0687 -0.1245
58181W        W 1197  14.678   3.198  25.233  0.0564 -0.0639 -0.1978
58182W        W 1198   9.507  16.024  17.095 -0.0540 -0.1395  0.2412
58183W        W 1199  15.224   4.504   5.197 -0.2509 -0.1767 -0.0513
58184W        W 1200  19.466  22.309  27.001  0.0256 -0.0084  0.0174
58185W        W 1201   0.459  11.517  22.652  0.1900  0.4691  0.1542
58186W        W 1202  18.880   9.569   8.102  0.0385 -0.2342 -0.1957
58187W        W 1203  13.539   6.951  22.552 -0.0894 -0.0712 -0.3419
58188W        W 1204   5.240   6.903  15.085  0.0952 -0.1188  0.1212
58189W        W 1205  28.494  14.311   8.482  0.1059 -0.1548 -0.2627
58190W        W 1206  29.205   3.169   2.776 -0.3540 -0.3598 -0.0809
58191W        W 1207  32.039  19.721   6.526 -0.1602  0.1190  0.2490
58192W        W 1208   9.541  33.730   3.805 -0.0298  0.3566  0.4375
58193W        W 1209   3.658  22.755   5.750 -0.1794  0.0926 -0.0268
58194W        W 1210   0.674  31.600  25.124  0.2170  0.1120 -0.0043
58195W        W 1211  13.468  21.737  15.841 -0.2589 -0.1209 -0.1607
58196W        W 1212  16.541  24.073   7.084 -0.2194 -0.3180 -0.0233
58197W        W 1213  15.838   7.875   1.466 -0.2153  0.2895  0.2674
58198W        W 1214  10.390  14.772  26.512 -0.0619 -0.0132  0.3494
58199W        W 1215  12.799   9.033  16.878  0.0200  0.1039 -0.0078
58200W        W 1216  26.559   7.322  29.082 -0.2163  0.2640 -0.1045
58201W        W 1217  14.415  12.365  21.121 -0.1149  0.4249 -0.0185
58202W        W 1218  13.884  23.840   7.447 -0.2102  0.2254 -0.2058
58203W        W 1219  15.146  23.453  26.525  0.0218  0.0112 -0.2573
58204W        W 1220  13.988  11.656  27.496 -0.1434 -0.2477 -0.0491
58205W        W 1221  20.444  14.743   2.906 -0.1370  0.0066  0.1892
58206W        W 1222  10.255   1.046  20.996  0.0211 -0.0172 -0.0425
58207W        W 1223  20.779  12.293  16.395  0.2265  0.2398 -0.3413
58208W        W 1224  24.501  19.510  26.257  0.2036  0.0099 -0.1814
58209W        W 1225  13.920  16.889  22.450 -0.0180 -0.1191  0.0546
58210W        W 1226  11.673  33.876   4.910  0.1061  0.1209 -0.2219
58211W        W 1227  32.944   6.090  22.260 -0.4714  0.1030  0.1731
58212W        W 1228  18.912   7.159   4.667 -0.0199  0.3456  0.0713
58213W        W 1229  23.006  31.347  22.093 -0.0149  0.2756  0.1461
58214W        W 1230  10.836  11.588  24.728 -0.1867 -0.0830 -0.2964
58215W        W 1231  11.171   4.379  26.662 -0.3933 -0.3028 -0.1783
58216W        W 1232  12.488  15.112  18.380 -0.0363  0.0030 -0.1129
58217W        W 1233  10.863   5.446  22.745 -0.1940 -0.0134  0.0474
58218W        W 1234  15.585  14.352  21.743  0.3807  0.2634  0.1808
58219W        W 1235   3.620  11.173   1.185 -0.1632  0.0816  0.0026
58220W        W 1236   3.075   7.010  23.242  0.2160  0.0993  0.0333
58221W        W 1237  22.201   1.301   2.826  0.2296  0.0038  0.0166
58222W        W 1238   5.237   7.690   1.410 -0.3342 -0.0205  0.0383
58223W        W 1239   2.685  13.886  16.766 -0.1403 -0.1400  0.0309
58224W        W 1240   2.802  16.716   1.542 -0.1042  0.5147  0.2890
58225W        W 1241   4.321  10.453   0.224  0.0458  0.2188 -0.2031
58226W        W 1242   9.452  13.660   2.222  0.0798 -0.3170  0.0199
58227W        W 1243  28.903  10.239   1.855  0.0956  0.2112  0.1067
58228W        W 1244   9.995  29.081   1.508  0.0077  0.0068  0.3216
58229W        W 1245  22.792   3.636   8.764 -0.2517  0.2147 -0.2433
58230W        W 1246   0.324  13.769  10.400  0.0787 -0.1782 -0.1910
58231W        W 1247  15.125  27.767  23.314 -0.0436  0.0190 -0.0173
58232W        W 1248   1.842   0.253  28.829  0.0647  0.2750  0.0099
58233W        W 1249   7.085   0.664   3.673 -0.0752  0.0767  0.2818
58234W        W 1250  12.278  11.992   6.695  0.3492  0.3386  0.1953
58235W        W 1251   5.013  25.765  28.121 -0.0922 -0.1204  0.1136
58236W        W 1252   7.645  20.364   8.404 -0.1140 -0.0091 -0.0642
58237W        W 1253   0.887  18.885  21.067 -0.1347 -0.0608 -0.4888
58238W        W 1254  18.998  11.096   0.634  0.0713 -0.2508 -0.0975
58239W        W 1255  23.719  11.252   2.683 -0.2323  0.3892  0.1327
58240W        W 1256  19.821  12.824   6.755 -0.0088 -0.1611 -0.2551
58241W        W 1257   1.880  12.664  22.558 -0.0456 -0.1641 -0.0275
58242W        W 1258  18.999  13.005   0.901 -0.2119 -0.0277 -0.2351
58243W        W 1259  34.533   2.080  23.912 -0.2704 -0.1080  0.3977
58244W        W 1260   6.475  22.727  28.255 -0.0672 -0.1527 -0.1048
58245W        W 1261  14.255   6.555  27.279  0.0603  0.2499 -0.0971
58246W        W 1262  20.788   2.129  28.294  0.1824  0.1487 -0.3663
58247W        W 1263  14.237   2.059  14.165  0.3905 -0.1159 -0.0215
58248W        W 1264   6.009  10.618  23.863  0.2515 -0.1250 -0.0224
58249W        W 1265   2.302   6.581   1.657  0.0293  0.0030  0.4592
58250W        W 1266  22.531   9.497   1.895  0.0752 -0.1816 -0.0148
58251W        W 1267   2.916  20.938   2.502 -0.1736 -0.4182 -0.0383
58252W        W 1268  15.094  12.509   7.646  0.0090  0.0126  0.0706
58253W        W 1269  16.538  24.815  24.536  0.1223  0.3026  0.0060
58254W        W 1270   0.030  18.940   1.382  0.3530  0.0053 -0.0163
58255W        W 1271   7.431  10.837  26.986 -0.0103 -0.0286  0.1816
58256W        W 1272   4.386   7.301   6.143  0.4677 -0.0477  0.0963
58257W        W 1273  28.789  21.439   3.182 -0.1242  0.0993  0.0395
58258W        W 1274   5.555  10.322   7.275 -0.3315  0.1583  0.0289
58259W        W 1275   7.940  20.300   5.813 -0.2051  0.4401  0.1601
58260W        W 1276   5.263   2.094  29.296  0.0290  0.1372 -0.1691
58261W        W 1277  25.990  12.386   0.029 -0.1709  0.2264  0.1664
58262W        W 1278  12.974  10.244   6.151 -0.0336  0.0118  0.3039
58263W        W 1279   2.546   7.675  26.036  0.1530 -0.0605 -0.2633
58264W        W 1280  32.121  15.932   2.319  0.1399 -0.1858 -0.3498
58265W        W 1281  28.203   8.407   6.290 -0.2925 -0.0759 -0.1066
58266W        W 1282   4.465  29.645   0.221  0.0631 -0.0066 -0.0487
58267W        W 1283  22.829  22.770   9.213  0.0675  0.0405 -0.1013
58268W        W 1284  27.296  20.583  23.574  0.3084  0.1469  0.2182
58269W        W 1285   6.436   7.829   4.967 -0.0300  0.2411  0.2174
58270W        W 1286  15.933   7.469  18.799  0.2819  0.0594 -0.0288
58271W        W 1287   6.508  19.177  27.201 -0.1061 -0.1150  0.1542
58272W        W 1288   1.945   5.675   2.837 -0.1816 -0.0292 -0.3094
58273W        W 1289   3.728   3.579  22.970  0.0656 -0.0711  0.1892
58274W        W 1290  10.223  25.615  19.945 -0.0140 -0.0312  0.0685
58275W        W 1291   2.455   8.095   4.433  0.2850  0.1705  0.0293
58276W        W 1292  11.656  30.184  15.157  0.0415  0.0845 -0.0580
58277W        W 1293   7.287   7.000   9.916  0.1047  0.2801 -0.1386
58278W        W 1294  15.751  17.039  15.373  0.1829  0.1010  0.1825
58279W        W 1295  17.151   7.432   4.193 -0.0262 -0.2095  0.3812
58280W        W 1296  15.845  19.020   2.615  0.0131 -0.1166  0.1951
58281W        W 1297  32.233  32.193   6.278 -0.2895  0.2089 -0.0351
58282W        W 1298   5.660  16.570   3.755 -0.2902  0.2994 -0.0210
58283W        W 1299   5.519  13.726   7.578 -0.0338  0.0304 -0.1679
58284W        W 1300  10.382  16.383  24.667 -0.2017 -0.0129  0.0350
58285W        W 1301   9.028   9.844  17.686  0.0592  0.1050 -0.1190
58286W        W 1302  18.977  34.622   0.211  0.0884  0.0909  0.2563
58287W        W 1303  10.493   3.887   3.878 -0.2148 -0.3838  0.1319
58288W        W 1304  21.953  34.171  19.951  0.2130  0.2973  0.1772
58289W        W 1305   5.676  19.143  13.750 -0.2239  0.4016  0.3215
58290W        W 1306  33.837  19.513  19.746  0.1691  0.0585  0.0044
58291W        W 1307  10.905   9.345  13.580  0.4664 -0.1939  0.0562
58292W        W 1308  18.643   7.398  16.068 -0.0220 -0.0916 -0.1443
58293W        W 1309   3.491  16.170  14.208  0.0945 -0.0439 -0.3621
58294W        W 1310   8.971  16.139  14.330  0.1639 -0.2464 -0.0089
58295W        W 1311  12.604   5.696  28.256 -0.0341  0.2085 -0.2927
58296W        W 1312  27.231  31.891  23.028 -0.1744  0.1656  0.0415
58297W        W 1313  21.689   8.033  15.327  0.1413 -0.0128 -0.2313
58298W        W 1314   8.728   6.231   0.259  0.0896  0.0279 -0.0677
58299W        W 1315  19.327  16.376  14.139  0.0920 -0.0837 -0.3185
58300W        W 1316  27.218  25.539  23.056 -0.1937  0.0822  0.0816
58301W        W 1317   1.004   1.305  19.547  0.0349 -0.1530 -0.1829
58302W        W 1318  12.122  15.170  14.936  0.1684  0.2044 -0.1577
58303W        W 1319   4.750  10.615  22.487 -0.1598  0.1877  0.1167
58304W        W 1320  21.904   6.803  19.556  0.2211 -0.0945 -0.1673
58305W        W 1321  18.481  25.634  25.187 -0.2084 -0.0304 -0.0719
58306W        W 1322  27.912   0.506  22.112 -0.1735 -0.0383 -0.2398
58307W        W 1323  11.632   9.264  22.482  0.0650  0.0825 -0.2394
58308W        W 1324  27.689  26.257  28.020  0.2458  0.0335  0.3573
58309W        W 1325  32.652  31.900  28.881 -0.2177 -0.2692  0.2796
58310W        W 1326  18.046  33.485  18.877  0.3786  0.1839 -0.4312
58311W        W 1327  17.001  33.952  24.285  0.0685  0.1744 -0.0843
58312W        W 1328  23.387   5.578   5.083  0.3280 -0.2653  0.3665
58313W        W 1329   7.765  16.783  27.023  0.1201  0.0448  0.3048
58314W        W 1330  31.278  12.902  17.010  0.1410 -0.1392 -0.1875
58315W        W 1331   9.114  10.488  26.612  0.1626 -0.3702 -0.0866
58316W        W 1332  19.069   2.937  20.764  0.3348  0.2059 -0.0344
58317W        W 1333  16.506  22.423  25.378 -0.0270  0.2239 -0.4058
58318W        W 1334  20.720  11.252  20.903 -0.0609 -0.1570 -0.0372
58319W        W 1335  34.328  20.523  22.670 -0.1114 -0.1618  0.0648
58320W        W 1336  11.973  23.230  21.095  0.5591 -0.2071  0.3636
58321W        W 1337  21.562  14.053  21.390  0.0034  0.2674 -0.0049
58322W        W 1338   6.704  19.974  18.326  0.1940 -0.1837 -0.0123
58323W        W 1339  33.926   9.831  16.734  0.0220  0.1717 -0.2267
58324W        W 1340  16.658  20.746  12.526 -0.2596 -0.4770  0.1698
58325W        W 1341  11.619  21.846  18.662  0.2348  0.0482  0.0717
58326W        W 1342  15.791   9.983  26.219 -0.1831 -0.0786  0.0021
58327W        W 1343   8.380   6.750  24.735 -0.0695 -0.1605  0.1941
58328W        W 1344  16.351  25.482  15.397  0.1680  0.0007  0.0926
58329W        W 1345   6.052  18.516  13.134  0.2145 -0.3720  0.2179
58330W        W 1346   6.746  10.169  24.725  0.0403 -0.2818  0.2903
58331W        W 1347  20.251  27.759  23.349 -0.2607  0.0447  0.3873
58332W        W 1348  31.498  17.466   8.383  0.1019  0.0599  0.1446
58333W        W 1349  13.643  20.298  19.539 -0.0662  0.2855  0.0261
58334W        W 1350  31.907  27.318  16.555  0.3461 -0.0460  0.1644
58335W        W 1351  15.411  20.326  15.752  0.0377  0.1618  0.1499
58336W        W 1352  17.202   1.876  19.146 -0.1086  0.0592  0.1686
58337W        W 1353  11.949  26.818  28.028 -0.0974  0.0394  0.1195
58338W        W 1354   0.365  32.891  22.791 -0.0875 -0.4046 -0.0399
58339W        W 1355  34.087  18.538  17.479 -0.0991 -0.0652 -0.1559
58340W        W 1356   7.713   0.367  21.538 -0.0737 -0.0777 -0.1145
58341W        W 1357   8.124  17.133  14.785  0.1377 -0.0104 -0.1815
58342W        W 1358  12.760   0.276  15.948 -0.0714  0.1843  0.2183
58343W        W 1359  26.982  29.498  19.594  0.1235  0.0156  0.0835
58344W        W 1360  27.831  14.106  18.774  0.1938 -0.0375  0.0949
58345W        W 1361   3.301  23.261  17.834 -0.0625  0.0400  0.2568
58346W        W 1362  10.037  11.615  20.347  0.1101  0.1814 -0.0128
58347W        W 1363   6.064  10.384  16.559 -0.0757  0.3450  0.1264
58348W        W 1364  31.419   9.988  24.638 -0.0935 -0.0552 -0.1411
58349W        W 1365  14.197  28.352  27.410 -0.1386 -0.1094 -0.4484
58350W        W 1366  14.438  23.936  22.761 -0.1182 -0.0770 -0.2280
58351W        W 1367  31.209  18.495   0.096  0.0410 -0.0028  0.0265
58352W        W 1368   4.611   9.876  21.189 -0.1742  0.0111 -0.0282
58353W        W 1369  12.183  10.661  13.648 -0.1858  0.0765  0.3420
58354W        W 1370   7.611  34.018  15.977 -0.2799 -0.0989  0.4280
58355W        W 1371  19.096  11.810   3.403  0.0022 -0.3884 -0.0526
58356W        W 1372  10.878  28.128  18.003 -0.0786 -0.0777  0.0151
58357W        W 1373  25.417  15.854   7.918 -0.1447 -0.0243 -0.0117
58358W        W 1374  11.739  26.861  23.133  0.0234  0.1523  0.0968
58359W        W 1375   4.479   1.370  24.747  0.0475  0.0544 -0.2460
58360W        W 1376   9.553  21.930  22.714  0.2315 -0.2791  0.0482
58361W        W 1377   0.705  17.756  23.292  0.1942 -0.3482  0.0855
58362W        W 1378   3.669   0.379  17.963 -0.1477  0.0316 -0.0541
58363W        W 1379  12.041   7.042   4.708 -0.0661 -0.0592 -0.1177
58364W        W 1380  22.343  19.687  26.475  0.0830  0.0563  0.0123
58365W        W 1381   2.858  13.085  26.779 -0.1019 -0.4696 -0.0830
58366W        W 1382  14.423  14.913  19.950 -0.1333  0.0660  0.1635
58367W        W 1383   1.877  11.427  16.839  0.0222  0.2771 -0.2432
58368W        W 1384  22.382  22.641  19.098 -0.0618 -0.0744 -0.1337
58369W        W 1385  29.255  20.761  22.633  0.0477 -0.1503  0.1374
58370W        W 1386  16.091  29.923  24.932 -0.0754 -0.0473 -0.0635
58371W        W 1387   9.771   7.875  20.443  0.0276 -0.0651  0.1490
58372W        W 1388   6.237  14.683  18.657 -0.0656 -0.0017  0.1582
58373W        W 1389  23.673  19.075  21.982  0.1846 -0.2611 -0.0690
58374W        W 1390  31.512  21.775   7.173  0.0318 -0.1170  0.1358
58375W        W 1391  30.146   6.967  17.219 -0.3400 -0.0760 -0.0289
58376W        W 1392   3.743  20.284   0.057 -0.2771 -0.3646 -0.0734
58377W        W 1393  12.574  13.047  12.527  0.3439 -0.0384  0.0895
58378W        W 1394   9.568  21.268  14.095  0.1457  0.3625 -0.0232
58379W        W 1395   7.035  16.350  19.505 -0.1390  0.1473  0.1841
58380W        W 1396   9.968  17.389  19.726 -0.0687 -0.4418 -0.1584
58381W        W 1397   7.051  11.540  17.758 -0.0784  0.3245  0.3862
58382W        W 1398  19.926   0.927  26.120 -0.3836 -0.0354 -0.3030
58383W        W 1399   5.358  31.237  15.064  0.0969  0.0676 -0.0099
58384W        W 1400  33.349  26.780  22.574  0.0566  0.1224 -0.1690
58385W        W 1401  14.674   5.362  17.311 -0.0519  0.2576 -0.1756
58386W        W 1402   4.576  12.567  21.275  0.6323 -0.1360 -0.0224
58387W        W 1403  11.157  23.058  19.970 -0.1098  0.1152 -0.0794
58388W        W 1404  19.021  11.839  24.453  0.0529 -0.0105  0.0992
58389W        W 1405  10.059   4.619  22.631 -0.2724  0.2573 -0.2953
58390W        W 1406   8.992  14.387  15.015 -0.1739  0.0305 -0.1146
58391W        W 1407  17.819  11.646  20.586 -0.1262 -0.2300 -0.0984
58392W        W 1408   9.231  33.735  16.499 -0.2541 -0.6681  0.1660
58393W        W 1409  26.009  21.783  19.324  0.3063  0.2978  0.0749
58394W        W 1410   1.149  25.102   0.516 -0.1323 -0.0826 -0.0059
58395W        W 1411  16.603  18.070  16.107  0.2034  0.0679  0.1796
58396W        W 1412  24.263  20.049  19.211 -0.0649 -0.1795  0.0606
58397W        W 1413   8.084  15.273  21.940  0.2001 -0.1571  0.2296
58398W        W 1414   5.407  14.901  19.049  0.1950 -0.0205  0.3780
58399W        W 1415  22.375  10.011  23.340  0.1546  0.3073  0.2049
58400W        W 1416   9.940  32.891  15.653  0.1821  0.0010 -0.5656
58401W        W 1417   4.561  12.933  14.482 -0.2425 -0.3115 -0.1336
58402W        W 1418  10.078   0.014  21.205  0.2441  0.2538 -0.0384
58403W        W 1419  13.122  10.338  22.664 -0.1262 -0.1579 -0.0159
58404W        W 1420  26.047  13.079  18.240 -0.2465 -0.0029  0.0028
58405W        W 1421   8.179  14.395  14.208  0.2738  0.1995  0.0801
58406W        W 1422  10.182  21.149   1.874  0.1510 -0.0140  0.1122
58407W        W 1423   4.929  14.840  18.176 -0.0286 -0.0355  0.0003
58408W        W 1424  16.513   4.785   6.153  0.0652  0.3355  0.0167
58409W        W 1425  17.246   4.641  17.672  0.0179 -0.0146  0.0852
58410W        W 1426  33.457  11.923  22.697 -0.0347 -0.0174 -0.1868
58411W        W 1427   0.938  30.045  15.633 -0.3266  0.1819  0.1545
58412W        W 1428   2.829  30.755  17.227 -0.2496  0.1944  0.1373
58413W        W 1429  19.041  24.881  25.269 -0.1867 -0.1832 -0.0970
58414W        W 1430  17.411  34.549  16.271 -0.4316 -0.1516  0.0545
58415W        W 1431  14.014   9.100  19.430  0.1477  0.0738 -0.3774
58416W        W 1432  18.520   9.940  18.122  0.3166 -0.0516  0.1578
58417W        W 1433  13.998  15.014  25.366 -0.0502  0.1476  0.1782
58418W        W 1434   3.827  20.733  22.618 -0.0628  0.1854 -0.1088
58419W        W 1435  25.070   7.563   8.608 -0.0515  0.0218 -0.0246
58420W        W 1436  12.607   0.302  17.725 -0.2465  0.0193 -0.1897
58421W        W 1437  24.679  21.373  24.028  0.0558 -0.0504 -0.0940
58422W        W 1438  22.148  22.812  14.264  0.0377 -0.0396 -0.1175
58423W        W 1439   9.280  15.380  20.987 -0.0571 -0.0811  0.1513
58424W        W 1440   5.289  19.972  19.879  0.1142  0.0972 -0.0738
58425W        W 1441  13.849  26.285  17.242  0.1620 -0.2236 -0.0837
58426W        W 1442   6.120  26.102  13.712 -0.3725 -0.4333 -0.0749
58427W        W 1443   8.670  27.459   0.113  0.0316 -0.1827 -0.0329
58428W        W 1444   0.786  16.765   0.188  0.1401  0.0482 -0.0230
58429W        W 1445  19.489  11.426  13.760 -0.2429  0.1969  0.0682
58430W        W 1446   3.955  18.191  14.938 -0.0521 -0.0298  0.0425
58431W        W 1447  11.594  18.086  24.441 -0.0778 -0.2041  0.3328
58432W        W 1448  30.382  11.951  15.953 -0.1128 -0.2140  0.1211
58433W        W 1449  26.885  25.247  22.731  0.1313 -0.1076  0.0306
58434W        W 1450  16.891  16.255  22.793 -0.0453 -0.0023 -0.1244
58435W        W 1451  10.473  16.876  24.404 -0.0977 -0.1926  0.2564
58436W        W 1452  15.290  33.364  24.225  0.1284  0.0505  0.1931
58437W        W 1453   5.339  10.052  14.328 -0.0045  0.2753  0.0003
58438W        W 1454  28.173   7.261   5.948 -0.2144  0.2543 -0.1076
58439W        W 1455  26.969   5.523  21.901 -0.1067 -0.2363  0.1006
58440W        W 1456   3.693  22.756  17.416 -0.0370 -0.0706 -0.0832
58441W        W 1457  20.583  14.641  14.720 -0.1081 -0.4022  0.2543
58442W        W 1458  15.963  14.534  14.058 -0.1901  0.5238  0.0111
58443W        W 1459  10.967  31.775  25.756  0.1468 -0.2033  0.0437
58444W        W 1460   3.902   2.639  20.321  0.2896  0.0555 -0.1816
58445W        W 1461  19.698   5.423  14.720 -0.0403 -0.2374  0.1210
58446W        W 1462   3.350  17.403  14.012  0.1922 -0.3402 -0.0989
58447W        W 1463  17.091  13.055  12.959  0.0688 -0.3041 -0.0184
58448W        W 1464   9.061  30.958  16.023  0.0335  0.3619  0.0298
58449W        W 1465   6.660   6.916  24.834  0.0857 -0.2068  0.1143
58450W        W 1466  17.027  21.296  13.785 -0.0021  0.3248 -0.0589
58451W        W 1467   8.438  18.902  14.720 -0.1390 -0.0460  0.2429
58452W        W 1468  12.004   2.749  23.701 -0.1793 -0.1693  0.2358
58453W        W 1469  18.298  16.616  15.683  0.2226  0.0070  0.2518
58454W        W 1470  28.020  17.351  21.504  0.1583  0.1702 -0.0041
58455W        W 1471   2.130  20.128  14.932 -0.0780 -0.1781 -0.0820
58456W        W 1472  12.093  21.031  19.279 -0.1955 -0.0766 -0.1804
58457W        W 1473  18.109   4.612  24.534  0.0140  0.1946 -0.1244
58458W        W 1474   2.338  17.851  17.668  0.1662  0.1789  0.1673
58459W        W 1475  24.341  32.559  23.031 -0.4275  0.0384  0.1522
58460W        W 1476  14.605   7.283  18.362 -0.0267  0.1091  0.1297
58461W        W 1477  30.339  23.363  23.558 -0.0079 -0.0953  0.1245
58462W        W 1478  17.315  33.427  22.519 -0.1959  0.0773  0.0891
58463W        W 1479  28.801  31.347  28.671  0.0296  0.2044  0.1141
58464W        W 1480  13.647  20.439   3.066  0.0826 -0.0946  0.3195
58465W        W 1481  20.880   8.171  27.980  0.0639  0.2911  0.1310
58466W        W 1482   4.559  29.330  15.958  0.1041 -0.0380  0.2330
58467W        W 1483  34.548  10.161  19.108 -0.1586 -0.0798 -0.1429
58468W        W 1484  12.219  10.423  17.345 -0.2563  0.0296  0.0721
58469W        W 1485  12.419  22.778  22.222  0.2920 -0.3280  0.0681
58470W        W 1486  22.846  27.361  21.158 -0.3236  0.0547 -0.1481
58471W        W 1487   5.912  13.308  18.276 -0.3502 -0.1520 -0.0342
58472W        W 1488  13.705  30.648  16.692 -0.0424  0.1993 -0.2733
58473W        W 1489  27.519  22.270  22.849  0.0640  0.0921  0.0477
58474W        W 1490  25.190   8.391  26.477 -0.0665  0.3098 -0.1247
58475W        W 1491  11.307   7.903  14.327  0.1778 -0.0249  0.1726
58476W        W 1492   7.853  18.318  16.995  0.0060 -0.2916 -0.1450
58477W        W 1493  21.844  26.605  27.814  0.2819  0.2085  0.0002
58478W        W 1494  33.405  12.244  23.488 -0.0190  0.1133 -0.0203
58479W        W 1495  10.036  24.647  17.782 -0.0056  0.0511  0.1864
58480W        W 1496  13.754  14.366   0.620  0.1345  0.0736  0.2073
58481W        W 1497  13.141  17.108  14.846  0.2892  0.0835 -0.2229
58482W        W 1498   6.275  14.372  18.284 -0.0102  0.0714 -0.0632
58483W        W 1499   4.027  12.162  19.625  0.3546 -0.2506 -0.0772
58484W        W 1500   4.047  21.891  24.398 -0.2483  0.0125 -0.1595
58485W        W 1501   5.130   6.437   6.985 -0.2710 -0.3071 -0.0915
58486W        W 1502  30.798  34.412   6.930  0.1011  0.0042  0.1463
58487W        W 1503   6.496  14.020  17.758 -0.0371 -0.0855  0.2385
58488W        W 1504  11.116  26.277  18.804 -0.3059 -0.0135 -0.1943
58489W        W 1505  17.486   9.517  20.946  0.0195  0.0545 -0.0054
58490W        W 1506   5.566  22.337  27.090 -0.1201 -0.1761 -0.5047
58491W        W 1507   7.635  31.349  20.792 -0.0035 -0.0233  0.2715
58492W        W 1508   9.945   9.897  18.625  0.0146 -0.0093  0.2251
58493W        W 1509  20.279  24.239  20.406 -0.3602  0.2750 -0.0784
58494W        W 1510   5.958   3.805  20.259 -0.2410  0.1066  0.1783
58495W        W 1511  16.989  34.774  16.379  0.3026 -0.0835 -0.2434
58496W        W 1512  10.478  18.542  24.748  0.0956  0.3382 -0.0282
58497W        W 1513  15.576   4.257  24.662 -0.2442 -0.1157 -0.2751
58498W        W 1514   1.843  23.077  17.103  0.3237  0.4400  0.0693
58499W        W 1515  17.035  29.747  15.443  0.0274  0.0214 -0.2259
58500W        W 1516  28.645  19.834  19.338 -0.1559  0.1486  0.0161
58501W        W 1517  23.221  21.855  21.579  0.0330 -0.0806  0.2140
58502W        W 1518   5.903  30.871  22.193 -0.2757 -0.0683 -0.2272
58503W        W 1519  21.384  15.332  27.006  0.2116 -0.1509 -0.3644
58504W        W 1520  20.902  22.751  14.012 -0.0383 -0.2093 -0.1322
58505W        W 1521  13.988  26.654  27.277  0.1734 -0.1079  0.2109
58506W        W 1522  25.930   9.050  16.136  0.2261 -0.1572 -0.1751
58507W        W 1523  22.651  24.815  15.896 -0.1303  0.2940  0.2378
58508W        W 1524  10.382  28.449  23.055  0.1990  0.0339 -0.1518
58509W        W 1525  34.607  29.823  16.504 -0.3639  0.0938  0.0948
58510W        W 1526  14.206  13.202  13.840 -0.0139 -0.2655 -0.0073
58511W        W 1527   7.441  33.902  16.446 -0.1607 -0.0641 -0.2890
58512W        W 1528   4.358  17.335   1.617 -0.2987 -0.1123 -0.0917
58513W        W 1529   4.273  25.793  19.741  0.2148  0.1201  0.0358
58514W        W 1530  12.861   3.843  21.381  0.0321 -0.1352 -0.2292
58515W        W 1531  21.181  29.567  18.551 -0.0906  0.2635  0.2219
58516W        W 1532  31.098  14.831  18.593  0.0843  0.1426  0.0765
58517W        W 1533  18.349  15.843  14.257 -0.0419 -0.0364 -0.1387
58518W        W 1534   3.089  23.381  22.340 -0.0454  0.2167  0.1012
58519W        W 1535   3.445   6.176  26.181 -0.0424  0.1153  0.3444
58520W        W 1536  17.672  18.368  11.833 -0.3533  0.2385  0.1151
58521W        W 1537  23.125  27.762  15.870 -0.2726 -0.0571 -0.0564
58522W        W 1538   2.354  26.853  26.490  0.0066  0.0740  0.1119
58523W        W 1539   4.985  15.958  17.125  0.1035  0.0261 -0.1879
58524W        W 1540   8.670  14.895  13.255 -0.1083 -0.0528 -0.1530
58525W        W 1541   5.811  20.494  24.273  0.2527  0.3064  0.0238
58526W        W 1542   9.141  13.805  24.500 -0.1625  0.2925 -0.3415
58527W        W 1543   6.144  21.345  18.203 -0.2237  0.3484  0.2079
58528W        W 1544  33.689   3.696  28.552 -0.0095  0.1472 -0.0691
58529W        W 1545  19.696  19.280  13.041  0.0949  0.2158 -0.0164
58530W        W 1546  33.618  12.679  16.060  0.1292  0.2162 -0.1155
58531W        W 1547  27.068  21.080  16.462  0.3447  0.0478  0.0098
58532W        W 1548  11.431  29.825  26.418  0.4043  0.0528 -0.0729
58533W        W 1549  23.699  10.073  20.992 -0.1085 -0.2427 -0.2186
58534W        W 1550  20.212  25.845  18.656 -0.1050  0.1059  0.0818
58535W        W 1551   5.608  17.085   7.156  0.1207 -0.0948 -0.3060
58536W        W 1552  24.554  13.987  19.270  0.0972  0.0796  0.0057
58537W        W 1553  24.601  17.527  26.635 -0.0203  0.1008 -0.2229
58538W        W 1554  22.433   9.669  17.614 -0.1341  0.2633  0.0854
58539W        W 1555  33.507  23.652  16.228 -0.1828 -0.1510 -0.1540
58540W        W 1556  26.186  16.659  14.807  0.1800 -0.0885  0.0754
58541W        W 1557  16.308  12.875   0.010  0.1808  0.3014  0.0789
58542W        W 1558  20.496  24.576  16.699  0.1712  0.1013  0.2348
58543W        W 1559   9.877  23.898  15.024 -0.0565  0.1836  0.0361
58544W        W 1560  14.709  13.420  22.150  0.2441  0.5136 -0.0550
58545W        W 1561  12.559  19.515  15.270  0.0820  0.1388  0.0862
58546W        W 1562   0.801  15.203  25.245 -0.4019 -0.0548 -0.0749
58547W        W 1563   2.447   9.476  23.860 -0.0490 -0.1435  0.0368
58548W        W 1564  14.416  20.863  19.161  0.0323 -0.0612  0.0902
58549W        W 1565   9.807  30.788  16.295 -0.2007  0.0708  0.1556
58550W        W 1566   7.469  22.074   2.319  0.0225 -0.0905  0.2178
58551W        W 1567  29.375   5.576  10.514  0.1260 -0.0320  0.1279
58552W        W 1568   8.781   4.624   5.130 -0.0431  0.2150 -0.0900
58553W        W 1569  27.727  19.131  24.604 -0.1133  0.1782  0.1419
58554W        W 1570  11.395  20.851  21.970  0.3134  0.0202  0.3981
58555W        W 1571   9.418  22.913  13.105 -0.0939  0.0775 -0.1346
58556W        W 1572   9.178  20.040  15.975  0.0347  0.0570 -0.2888
58557W        W 1573  13.345  25.985  17.930 -0.1127 -0.0048 -0.2246
58558W        W 1574  25.719  30.679  18.210  0.2462 -0.2086 -0.2092
58559W        W 1575  21.210  20.121  14.439 -0.1150  0.1124  0.2309
58560W        W 1576  18.566  26.830  17.280  0.0856 -0.0837 -0.1050
58561W        W 1577  15.907   7.200  21.069 -0.0397  0.0322  0.0075
58562W        W 1578   9.807   2.705  16.205 -0.2775 -0.3662 -0.2052
58563W        W 1579   9.857  32.066  20.976  0.1608  0.3629  0.2118
58564W        W 1580  20.117   9.403  20.386  0.1891  0.0233 -0.1057
58565W        W 1581  17.149  33.107  24.123 -0.1957  0.0624 -0.1206
58566W        W 1582  33.324  23.271  17.612  0.2250 -0.3266 -0.2064
58567W        W 1583  27.060  16.398  18.518 -0.1293  0.1397  0.1401
58568W        W 1584  10.623  24.277  18.439  0.1314  0.2348  0.0782
58569W        W 1585   6.600  15.512  19.349  0.0357 -0.0390 -0.0360
58570W        W 1586  21.173  34.108  17.084 -0.0164 -0.1936 -0.2613
58571W        W 1587  17.592  21.524  14.515 -0.0951 -0.2437  0.3925
58572W        W 1588  19.104   7.146  20.630  0.0991  0.0501 -0.2211
58573W        W 1589  25.576  20.254  27.793  0.3925  0.0465  0.0629
58574W        W 1590  16.670  16.680  27.309 -0.1671 -0.2365  0.0552
58575W        W 1591  10.116  12.051  15.775 -0.1198  0.1493 -0.2822
58576W        W 1592  17.719  18.772  22.808  0.2791 -0.1723 -0.1054
58577W        W 1593  28.378  16.209  23.156  0.2324  0.6272 -0.3932
58578W        W 1594  15.123  16.746  25.964 -0.2654 -0.1213 -0.1136
58579W        W 1595   9.030  31.643  16.575 -0.1006 -0.0292 -0.0087
58580W        W 1596  28.704  11.076  16.600 -0.3820  0.1553 -0.0090
58581W        W 1597   2.727  11.665   0.974 -0.0455 -0.0263  0.2878
58582W        W 1598   8.831  20.600  19.882 -0.0774 -0.0397  0.0625
58583W        W 1599  27.352   5.294  20.895 -0.0163  0.0830  0.0224
58584W        W 1600  17.321  33.774  20.882 -0.0878  0.1753  0.1313
58585W        W 1601  32.031  17.694  20.461  0.1530 -0.2396 -0.2391
58586W        W 1602   8.920  12.490  27.019  0.3633 -0.1319 -0.3241
58587W        W 1603   9.962  32.540  15.984  0.2035 -0.1957 -0.2518
58588W        W 1604   8.081  11.166  24.256 -0.0525 -0.2191 -0.2735
58589W        W 1605  32.916   5.059   2.169  0.1825 -0.0301 -0.1118
58590W        W 1606   4.325  13.777  14.963 -0.0754  0.3521 -0.1069
58591W        W 1607   5.708  28.734  23.753 -0.0069  0.0452 -0.0054
58592W        W 1608  10.964  17.141  20.697  0.0284 -0.0018  0.1494
58593W        W 1609  20.960  16.320  12.409 -0.0806  0.1194 -0.1583
58594W        W 1610  12.320  11.205  14.460  0.0646 -0.1363  0.0857
58595W        W 1611  14.294  25.408  24.507  0.1235  0.1536 -0.3810
58596W        W 1612  12.722  17.964  27.074  0.1643 -0.2303  0.2634
58597W        W 1613   5.129   5.024  20.415 -0.1575  0.1405  0.2680
58598W        W 1614  15.273   6.447  16.762 -0.0482 -0.1748  0.1909
58599W        W 1615  11.818   0.175  15.183  0.0612 -0.0114 -0.1501
58600W        W 1616  27.713  11.480  19.561  0.0247 -0.0380 -0.1609
58601W        W 1617  11.311  22.332  26.898 -0.0063  0.3301 -0.0964
58602W        W 1618  12.874  12.704  19.884 -0.2642 -0.5359  0.2066
58603W        W 1619   9.004  21.958  26.132 -0.1349 -0.1533 -0.0444
58604W        W 1620  23.458   9.029  28.676  0.0044 -0.1601  0.0750
58605W        W 1621  12.090  13.605  20.911  0.1279 -0.2731  0.0698
58606W        W 1622  10.806   3.190  25.046 -0.0904  0.0538 -0.1982
58607W        W 1623  18.632  20.131  14.496 -0.0165 -0.1268 -0.0678
58608W        W 1624   1.569  20.059   1.350 -0.0608  0.1910 -0.2347
58609W        W 1625   9.286  17.902  19.243  0.1700 -0.1717 -0.1504
58610W        W 1626   5.466  20.579  22.478  0.2997  0.2927 -0.0167
58611W        W 1627   7.002  18.907  13.017 -0.0257  0.1191 -0.2980
58612W        W 1628   4.804  15.232  13.920  0.0682 -0.1284 -0.1145
58613W        W 1629   2.371  14.804  28.647  0.0651 -0.1988 -0.1517
58614W        W 1630  23.057  11.206  25.742 -0.1488  0.0657  0.1452
58615W        W 1631  32.630  30.937  16.426  0.0335 -0.1240  0.0352
58616W        W 1632   6.071  15.474  15.279 -0.0534  0.2171 -0.2224
58617W        W 1633  30.174   2.169   2.697 -0.0541  0.3357  0.1998
58618W        W 1634   8.400  30.124  15.961  0.2441 -0.1972 -0.0849
58619W        W 1635  10.378  28.960  14.906  0.1003 -0.1839  0.1408
58620W        W 1636  10.684  32.952  18.933  0.0774 -0.0884 -0.0974
58621W        W 1637  10.964  19.549  13.394 -0.0860 -0.1460  0.2714
58622W        W 1638  20.977  34.515  25.304 -0.2517 -0.3137 -0.1622
58623W        W 1639  12.367  20.930  21.331  0.0235 -0.1054  0.0492
58624W        W 1640  18.071  14.329  12.663 -0.2529 -0.0229 -0.0439
58625W        W 1641   3.062   3.142  17.277  0.1465  0.0873  0.0879
58626W        W 1642   9.617  25.640  16.961 -0.2573  0.0809  0.1079
58627W        W 1643  26.732  24.570  21.449 -0.2382 -0.2156 -0.1149
58628W        W 1644   3.879  10.490  15.188  0.1628  0.0971 -0.2365
58629W        W 1645  10.794  20.860  16.306  0.0057 -0.0032  0.0442
58630W        W 1646  33.044  19.213  17.543 -0.0463 -0.3159 -0.2281
58631W        W 1647  24.855   8.716  21.998 -0.1474  0.0086 -0.1996
58632W        W 1648  16.376   5.914  18.015 -0.1944 -0.3069 -0.0265
58633W        W 1649  13.269  31.291  17.337 -0.1725 -0.0123  0.1143
58634W        W 1650  10.960  23.611  25.610  0.0275  0.2630  0.0482
58635W        W 1651   7.541   9.654  25.669  0.1122 -0.0374  0.0488
58636W        W 1652  27.753  16.990  17.288 -0.0614  0.1478  0.2140
58637W        W 1653  24.619   6.176  23.081  0.0593 -0.1237 -0.1369
58638W        W 1654  18.429  17.249  14.859  0.0103 -0.0649 -0.0649
58639W        W 1655  34.229  15.915  29.255 -0.2026  0.1032 -0.0720
58640W        W 1656   8.617  13.395  16.229  0.1112 -0.3579 -0.5172
58641W        W 1657  33.452  23.497  26.103 -0.3628  0.0112 -0.0250
58642W        W 1658   7.988  11.387  28.742 -0.3149 -0.0730  0.0348
58643W        W 1659   0.292  25.481  24.798  0.0262 -0.0364  0.1429
58644W        W 1660   7.999  27.182  17.801  0.1122 -0.1110 -0.0711
58645W        W 1661  12.149  12.121  20.203  0.1304 -0.2409 -0.0175
58646W        W 1662   9.875   3.176  24.623  0.0025  0.1276 -0.2121
58647W        W 1663  16.028  17.437  15.178 -0.0059 -0.0301  0.1631
58648W        W 1664   0.087  21.361  20.019  0.0933  0.0362 -0.5193
58649W        W 1665   6.386  19.838  19.347  0.1860 -0.0392 -0.5371
58650W        W 1666  33.685  22.200   3.621  0.2455 -0.2883 -0.1567
58651W        W 1667   7.982   6.420  16.682 -0.0105 -0.0356 -0.1770
58652W        W 1668   8.885  29.027  14.180  0.1670  0.0370 -0.1399
58653W        W 1669  11.138   6.309  15.320 -0.3098 -0.2036 -0.0508
58654W        W 1670  11.470   5.187  17.398  0.4723 -0.1708  0.1166
58655W        W 1671   4.165   1.853  25.983  0.5274 -0.1188 -0.6256
58656W        W 1672  10.948  15.520  24.810  0.1061 -0.0358  0.0866
58657W        W 1673  18.459  34.037  24.004  0.1062  0.1836  0.0064
58658W        W 1674   6.578   4.666  17.522  0.2767 -0.0935  0.0918
58659W        W 1675  20.033  30.239  18.236 -0.2102 -0.2014  0.1135
58660W        W 1676   0.073  30.156  17.225 -0.1780 -0.0361  0.1590
58661W        W 1677  10.054  27.312  26.785 -0.0841 -0.1587 -0.1242
58662W        W 1678  20.830  18.918  15.657  0.1629  0.2669  0.4605
58663W        W 1679  17.972   2.745  13.988 -0.1277 -0.3989 -0.0945
58664W        W 1680  32.647  24.855  20.247 -0.1595 -0.1941 -0.1056
58665W        W 1681  16.935  20.353  14.310 -0.2239  0.0921  0.0083
58666W        W 1682   7.752   7.455  24.777 -0.2103 -0.1213  0.1018
58667W        W 1683  12.234   0.140  19.199 -0.0322 -0.1781 -0.3263
58668W        W 1684  16.410   6.604  21.892  0.1584 -0.0900  0.0434
58669W        W 1685  21.715  33.748   2.231 -0.2167 -0.2287  0.2144
58670W        W 1686   9.956   7.637  17.582 -0.2071  0.0771  0.0355
58671W        W 1687  12.395  24.257  17.474 -0.0487 -0.1713  0.0885
58672W        W 1688  15.411  21.479  14.193 -0.0097  0.0994  0.1904
58673W        W 1689   2.230  19.480  20.640 -0.1954 -0.3040 -0.1990
58674W        W 1690   9.918   6.386  20.489  0.0028 -0.2620 -0.2710
58675W        W 1691  14.197  34.279  15.264  0.0829 -0.0254 -0.1914
58676W        W 1692   0.979  16.976  16.495 -0.1683  0.1236  0.0908
58677W        W 1693  11.352   8.391  15.931 -0.4462 -0.0735 -0.0515
58678W        W 1694  33.404  13.705  18.222  0.0592  0.0993  0.3251
58679W        W 1695  15.684  24.619  20.570  0.0421 -0.0012 -0.1588
58680W        W 1696  12.696  26.557   6.961  0.0614 -0.3253 -0.3485
58681W        W 1697  16.251  33.278  26.665  0.2393  0.2068 -0.0221
58682W        W 1698  18.021   0.435  15.290  0.3389 -0.2709 -0.0138
58683W        W 1699   9.166  29.664  15.729  0.1276 -0.0227  0.0577
58684W        W 1700  11.800  21.112  14.854 -0.1841  0.2150  0.4431
58685W        W 1701   1.129  24.264  22.563  0.0272 -0.0248 -0.5457
58686W        W 1702   1.500  14.365  21.958  0.2982 -0.2651  0.0476
58687W        W 1703  10.905  12.729  13.984  0.2724  0.0308  0.0149
58688W        W 1704  13.504  25.785  22.041  0.1357 -0.0584  0.0530
58689W        W 1705  18.804   0.588  19.234  0.2138  0.0335 -0.0121
58690W        W 1706  11.745  19.589  12.626 -0.4782  0.0438  0.0912
58691W        W 1707  16.771  34.525  24.516  0.0902 -0.0115  0.1722
58692W        W 1708  12.541  13.428  16.816 -0.1322  0.1309 -0.0603
58693W        W 1709   4.593  31.907  16.587  0.0916  0.0097  0.2003
58694W        W 1710  23.449   7.740  10.114 -0.1706 -0.0636  0.1586
58695W        W 1711  27.496   9.788  20.182  0.0940  0.3416 -0.1922
58696W        W 1712   5.353   5.669  27.788 -0.0430  0.1432 -0.4776
58697W        W 1713  18.028  28.182  19.722 -0.0313  0.0149 -0.0076
58698W        W 1714  15.211   7.313  20.509 -0.1418 -0.1949 -0.0045
58699W        W 1715  14.358  14.909  28.644  0.1721 -0.2216  0.3431
58700W        W 1716   7.261  29.967  18.427 -0.0658  0.0412  0.2357
58701W        W 1717  32.443  16.383  22.835 -0.2582 -0.1736  0.3044
58702W        W 1718  24.904  16.805  20.222 -0.2019  0.2734 -0.0429
58703W        W 1719  15.426  16.135  15.635  0.2259  0.1781  0.0188
58704W        W 1720  17.332  11.051   6.555  0.2714 -0.2317  0.2557
58705W        W 1721  13.383  11.211  27.733  0.0023 -0.1542  0.0410
58706W        W 1722   6.099   4.079  15.961  0.2479 -0.2819  0.0066
58707W        W 1723   8.748  24.694  12.501  0.0442 -0.2652  0.3735
58708W        W 1724  28.983  26.328  18.439  0.0178 -0.0845 -0.1883
58709W        W 1725  17.819  32.844  14.794 -0.1397 -0.0177  0.0652
58710W        W 1726   5.311  33.315  15.988 -0.0343  0.0658  0.1421
58711W        W 1727  10.491  22.624  14.328  0.1505 -0.0097  0.0013
58712W        W 1728   1.589  14.334  20.517 -0.0006  0.0138  0.1102
58713W        W 1729  11.462  10.895  14.169 -0.0920 -0.0927 -0.2239
58714W        W 1730   8.877  19.356  19.356 -0.4068 -0.1821  0.0340
58715W        W 1731  22.013  23.359  27.263  0.0273  0.0386  0.0164
58716W        W 1732   3.117  14.438  24.369 -0.2790 -0.0528 -0.1195
58717W        W 1733  18.606  22.546  20.256  0.2572  0.0158 -0.0457
58718W        W 1734   3.406  11.968   1.558 -0.0974  0.0772  0.3077
58719W        W 1735  14.137   5.210  17.392  0.0343  0.1618  0.1701
58720W        W 1736  23.650  18.489  20.739 -0.0522  0.2376  0.1649
58721W        W 1737   8.177  29.102  26.776  0.1080  0.1000 -0.2187
58722W        W 1738   1.422  10.393   0.387  0.0380  0.2835 -0.0933
58723W        W 1739   6.474  26.645  20.662 -0.0500  0.0926  0.4825
58724W        W 1740  12.382  23.813  14.687 -0.0183  0.1151  0.1486
58725W        W 1741  22.592  23.780  21.204 -0.0495  0.0005  0.3421
58726W        W 1742  12.904   4.365   7.514 -0.2723 -0.3976  0.0121
58727W        W 1743   1.030   6.381  23.531 -0.1931 -0.0768 -0.2013
58728W        W 1744  25.167   3.888  24.306  0.0489 -0.1936  0.1910
58729W        W 1745   3.950  24.174  17.386 -0.1508  0.2019 -0.3922
58730W        W 1746  11.114  17.521  16.891 -0.0879 -0.2081  0.2512
58731W        W 1747  25.081  30.668  14.699 -0.3177  0.0854 -0.0643
58732W        W 1748   5.392  17.433   7.609  0.2118 -0.0215 -0.2915
58733W        W 1749  21.965  31.477  28.272  0.0499  0.0802 -0.0516
58734W        W 1750  19.436  29.639  24.163  0.0180 -0.1878 -0.0977
58735W        W 1751  16.338  31.164  25.303 -0.3468 -0.0008 -0.1206
58736W        W 1752  34.351  16.188  15.158 -0.0566  0.1791 -0.0469
58737W        W 1753  20.803   5.027  22.938 -0.1266 -0.2582 -0.3114
58738W        W 1754  27.398  17.021  24.719  0.1667  0.0462  0.0989
58739W        W 1755   1.241   8.313  13.954  0.1087 -0.2725 -0.1220
58740W        W 1756  13.757  24.746  13.133 -0.0466  0.0994 -0.0816
58741W        W 1757  17.319  27.498  21.877  0.3720 -0.1683 -0.1065
58742W        W 1758  17.250   0.514  28.624  0.1233 -0.0696 -0.1861
58743W        W 1759  10.924   9.239  20.347 -0.0221  0.0388 -0.1669
58744W        W 1760   6.076  29.371  21.385 -0.0033 -0.0059  0.3344
58745W        W 1761  14.790  18.650  14.355 -0.0133 -0.1735  0.1418
58746W        W 1762  27.547  12.693  14.380 -0.4556 -0.0578 -0.0911
58747W        W 1763   7.450  21.145  28.895  0.0535 -0.1281  0.1290
58748W        W 1764   2.008   9.272  25.634  0.0388 -0.0510  0.3434
58749W        W 1765   6.231  11.501  23.775 -0.1554  0.0736  0.1277
58750W        W 1766   4.249  21.113  15.902 -0.1894 -0.0029  0.2023
58751W        W 1767   3.799  16.045  20.677  0.2429  0.0894  0.0940
58752W        W 1768  17.125  10.875  28.918  0.2140  0.0760  0.1470
58753W        W 1769   5.406  15.921   6.663 -0.0451  0.1486 -0.0369
58754W        W 1770  26.465  31.441  21.260  0.0302 -0.0063 -0.0753
58755W        W 1771  12.153  22.594   1.136  0.4050  0.0173 -0.3561
58756W        W 1772  14.982  18.935  13.381 -0.0163 -0.1086 -0.0317
58757W        W 1773  13.218  24.943  20.625 -0.1515  0.2669 -0.0821
58758W        W 1774  11.805  25.099  12.804  0.2217  0.0078  0.0837
58759W        W 1775  27.441  10.854  21.636  0.2190  0.0157 -0.1242
58760W        W 1776   5.775   7.481  15.851 -0.1336 -0.3359  0.1344
58761W        W 1777  10.532  23.570   1.389  0.4067 -0.1487  0.1625
58762W        W 1778  19.567  33.846  25.915  0.0358  0.3028  0.0493
58763W        W 1779   6.999  24.025  13.050  0.0083  0.1128  0.0639
58764W        W 1780  32.037  19.250  15.297 -0.0921  0.0984 -0.3398
58765W        W 1781  21.385  18.073  13.349  0.1921 -0.1328  0.3551
58766W        W 1782  21.631  22.333   8.891  0.2159  0.0550 -0.3743
58767W        W 1783  32.778  33.339  21.207  0.1168 -0.0724 -0.1308
58768W        W 1784   0.376  16.880  17.814 -0.3111 -0.0806  0.1469
58769W        W 1785  26.503   8.604  18.405 -0.0222  0.4292  0.0686
58770W        W 1786  10.135  21.669  18.023 -0.1119  0.2978 -0.1337
58771W        W 1787   1.130  13.870   5.167  0.2507 -0.2181  0.1933
58772W        W 1788  28.553  15.241  14.836  0.0786  0.0315  0.1585
58773W        W 1789  15.626  27.505  16.531  0.4117 -0.0801  0.2002
58774W        W 1790  14.199  19.348  18.521  0.3431  0.4349 -0.0636
58775W        W 1791   7.511  24.054   2.215  0.0240  0.0230  0.3673
58776W        W 1792  11.339  23.704  25.370  0.4196  0.0703  0.3721
58777W        W 1793   2.890   8.435  15.751 -0.2297 -0.2325 -0.1837
58778W        W 1794  21.532  10.737  25.798  0.1393  0.0119  0.2902
58779W        W 1795  11.782  29.727  15.526 -0.2525  0.0225  0.3831
58780W        W 1796   5.923  22.135  15.606 -0.3219  0.1027 -0.0725
58781W        W 1797  18.873  23.303   5.932  0.0664 -0.1416 -0.2148
58782W        W 1798  25.975  16.820  16.012  0.1614 -0.1775 -0.0300
58783W        W 1799  13.183  26.468  16.913 -0.1799 -0.1322 -0.1889
58784W        W 1800  22.639   5.249   6.496 -0.3865  0.1931 -0.2536
58785W        W 1801   1.330   0.950  23.182 -0.0913 -0.3553  0.1158
58786W        W 1802  21.886  21.361  20.040 -0.2060 -0.1830  0.1728
58787W        W 1803  14.019   9.095  17.406 -0.0218 -0.2889 -0.1190
58788W        W 1804  11.182  13.159   3.115 -0.0106  0.4269 -0.1257
58789W        W 1805   8.736  14.548  26.854  0.0809 -0.1215  0.0332
58790W        W 1806   8.573  10.158  16.811 -0.0479  0.1557  0.0800
58791W        W 1807  13.560   7.540  16.347  0.0951 -0.0504 -0.2849
58792W        W 1808  21.346  16.437  28.213  0.2090 -0.2108  0.0293
58793W        W 1809  32.175  28.062  26.605  0.0212  0.0220 -0.0088
58794W        W 1810  28.842  17.806  25.641  0.2499  0.3114 -0.0023
58795W        W 1811   3.504   9.304  21.443  0.3949  0.2547  0.0600
58796W        W 1812  31.399  13.677  20.064 -0.0327 -0.0098 -0.0334
58797W        W 1813  29.618   4.216  19.618  0.0959  0.2427  0.1704
58798W        W 1814  20.370   1.319  25.970 -0.0066 -0.0683 -0.0409
58799W        W 1815   2.100   9.965  25.717  0.3508 -0.4131  0.3053
58800W        W 1816  11.906  18.141  14.753  0.0493  0.2437 -0.0636
58801W        W 1817   3.775  25.901   3.591  0.1268 -0.0648 -0.0946
58802W        W 1818  10.003  17.490  13.254  0.1466  0.0649  0.2069
58803W        W 1819   7.709  16.778   7.349 -0.0663  0.0680 -0.1618
58804W        W 1820  12.564   5.049  21.121  0.1750  0.0975  0.1552
58805W        W 1821   4.140  15.610  25.355 -0.1038  0.3814 -0.2477
58806W        W 1822  15.839   6.829  20.371 -0.2225 -0.2919  0.1009
58807W        W 1823  34.541   5.411  21.438 -0.0029  0.2260 -0.1691
58808W        W 1824  34.621  25.637  17.827  0.0415 -0.0193  0.0824
58809W        W 1825  15.208  10.517  26.339 -0.1006 -0.3095  0.1845
58810W        W 1826  33.211  33.102  23.988  0.1207 -0.4254 -0.1645
58811W        W 1827   9.239  26.820  13.898 -0.1185 -0.2122 -0.0639
58812W        W 1828  27.711  18.577  24.420  0.4081  0.4968 -0.3524
58813W        W 1829   7.992   8.398  21.715  0.1364  0.4766  0.0522
58814W        W 1830   7.005  19.250  18.867  0.1385  0.2384  0.0138
58815W        W 1831  12.681   3.580  27.798 -0.0378 -0.0371  0.1192
58816W        W 1832  33.501   8.741  15.037 -0.2012 -0.0915  0.0738
58817W        W 1833   2.289  25.003  18.542  0.0741 -0.1319 -0.1375
58818W        W 1834  26.839   2.986   2.781  0.2677 -0.2063  0.2079
58819W        W 1835   4.266   5.554  18.217  0.3990  0.0819  0.0285
58820W        W 1836   2.463  16.545  17.563 -0.1282 -0.1797 -0.0485
58821W        W 1837   7.653   3.903  19.215  0.0008  0.0609  0.2918
58822W        W 1838  32.820   9.423  15.637 -0.1870 -0.1491  0.0402
58823W        W 1839  27.880  29.402  26.591 -0.2366 -0.4270  0.2036
58824W        W 1840  23.558  22.814  16.100  0.0385  0.1410  0.1354
58825W        W 1841  28.602   4.554   3.755  0.2034 -0.0117 -0.0491
58826W        W 1842  15.301  26.190   3.094  0.2403  0.0308  0.1233
58827W        W 1843  11.084  31.148  14.289 -0.0489  0.1917  0.2785
58828W        W 1844  15.783  20.563  26.788  0.2147  0.2869 -0.2275
58829W        W 1845   9.651   2.490  22.555  0.3931 -0.3875  0.2852
58830W        W 1846   7.237   6.757  27.486  0.2639 -0.1020 -0.0332
58831W        W 1847   8.900  33.272  15.718 -0.0743 -0.0757 -0.1082
58832W        W 1848  10.823  33.649  17.472 -0.1469  0.0209  0.0363
58833W        W 1849  11.281  24.319  15.174  0.1525  0.1809  0.0277
58834W        W 1850  23.164  20.871  15.827 -0.3451 -0.0135 -0.3595
58835W        W 1851  13.166  18.580  13.538 -0.4852  0.0007  0.2513
58836W        W 1852  19.024   0.199  21.089  0.3073 -0.1162  0.3497
58837W        W 1853  13.996  14.817  13.022  0.3070  0.1718  0.1831
58838W        W 1854   0.374  18.198  22.540 -0.2889 -0.2756  0.1572
58839W        W 1855  12.330  20.781  20.456  0.1796 -0.1649  0.2302
58840W        W 1856  15.050  11.348  16.175 -0.2740  0.0535  0.5169
58841W        W 1857  20.371  12.952   2.204 -0.2125 -0.3391  0.1396
58842W        W 1858   9.171  19.103  15.824 -0.3135  0.0299 -0.0127
58843W        W 1859  28.048  25.405   9.432 -0.0556  0.1814 -0.2435
58844W        W 1860   8.456  10.893  20.052  0.0583 -0.0284 -0.1601
58845W        W 1861  20.341  11.972  20.158 -0.1812  0.0959  0.1666
58846W        W 1862  33.709   1.953  18.689  0.1473 -0.1968 -0.3868
58847W        W 1863  14.974   8.898  13.312 -0.1541 -0.0202 -0.0506
58848W        W 1864  34.394  10.576  25.487 -0.0810 -0.2824 -0.3631
58849W        W 1865  16.620  13.386  20.827 -0.1969 -0.2515  0.2385
58850W        W 1866  17.272  10.650   3.571 -0.2077  0.0251 -0.0082
58851W        W 1867  12.162  21.054  13.583  0.0917 -0.1630  0.1630
58852W        W 1868  19.670   9.579  15.210  0.0979 -0.1371  0.0037
58853W        W 1869   7.718  22.874  19.731 -0.1343 -0.1297  0.0915
58854W        W 1870  16.942   2.842  21.227 -0.1049  0.0896  0.1340
58855W        W 1871   6.114  17.554  15.387  0.0702 -0.2994  0.0383
58856W        W 1872  23.914  10.759  22.103 -0.0931 -0.1235  0.1421
58857W        W 1873  26.207   0.133  17.328 -0.1374 -0.0838 -0.0639
58858W        W 1874  28.140  30.759  17.438  0.1070 -0.0966 -0.3116
58859W        W 1875  31.500  28.510  18.103  0.1301 -0.1886  0.1397
58860W        W 1876  20.322  19.672  14.760 -0.0128  0.0390  0.2548
58861W        W 1877   2.805  15.297  17.122  0.0726  0.3577  0.0597
58862W        W 1878  33.678   0.603   3.870  0.0507  0.1970  0.0123
58863W        W 1879  15.380   9.682  24.615 -0.1718 -0.3015 -0.1147
58864W        W 1880   5.496  24.614  14.549  0.0966  0.0561  0.0581
58865W        W 1881  17.954  29.517  22.597  0.0274 -0.0615 -0.0596
58866W        W 1882  26.227  27.780   0.406 -0.0366  0.2871  0.2777
58867W        W 1883  12.338  30.986  20.885 -0.1082  0.0114 -0.1428
58868W        W 1884  16.850  13.354  23.059  0.0657 -0.1643  0.0184
58869W        W 1885   5.917   9.488  25.374 -0.2794 -0.2967 -0.4089
58870W        W 1886  17.042   0.881   5.704  0.2111 -0.0662 -0.0514
58871W        W 1887  34.037  20.336  23.218  0.2199  0.2517 -0.5345
58872W        W 1888   1.997  22.086  18.978 -0.3365  0.1022  0.1603
58873W        W 1889  11.766  27.877  26.154  0.2364  0.0407 -0.2873
58874W        W 1890   4.040   4.066  26.654  0.1439  0.2083 -0.2025
58875W        W 1891   7.193  25.246  15.451 -0.0960 -0.1580  0.0763
58876W        W 1892  10.222  32.654  26.728  0.2755  0.0646 -0.1257
58877W        W 1893  22.259  24.608  21.090 -0.1318  0.2677  0.0365
58878W        W 1894  11.409   0.813  26.154 -0.1137 -0.1708  0.0612
58879W        W 1895  25.268  26.632   3.361 -0.1616  0.3428  0.0761
58880W        W 1896  12.298  23.900  20.495 -0.0862  0.3847 -0.3200
58881W        W 1897  33.663  14.572  20.305  0.1134 -0.3227 -0.0468
58882W        W 1898  21.245   1.775  22.793 -0.1418  0.3298 -0.1195
58883W        W 1899  11.242  11.166  13.859 -0.1304 -0.3163 -0.0781
58884W        W 1900  14.618  22.240  16.212  0.5038 -0.2631 -0.3557
58885W        W 1901  34.062  27.498  16.568  0.1039  0.0224 -0.0096
58886W        W 1902  19.755  11.826  27.654  0.0293  0.1818 -0.0003
58887W        W 1903  13.299  33.166  25.667 -0.1067  0.0360 -0.2905
58888W        W 1904  17.301   3.926  20.893 -0.1291  0.1392  0.0772
58889W        W 1905   7.755  31.105  19.690  0.0057 -0.0293 -0.0619
58890W        W 1906  28.921   9.213  19.977 -0.4421  0.0643  0.1416
58891W        W 1907   8.266  16.969  28.391 -0.0906  0.0017 -0.0171
58892W        W 1908  21.945  22.165  14.851  0.0508 -0.3807 -0.1490
58893W        W 1909  10.315  27.341  23.614 -0.1986  0.0136 -0.0090
58894W        W 1910   8.550  14.577  19.165  0.0466 -0.0953 -0.0357
58895W        W 1911  16.334   1.202  27.670  0.0618 -0.3152 -0.1332
58896W        W 1912  27.310  20.131  26.129 -0.0463 -0.2339  0.2684
58897W        W 1913  27.983  12.024  27.626  0.1909 -0.1455  0.0924
58898W        W 1914  17.860  29.387  17.286 -0.1160 -0.2306  0.0599
58899W        W 1915  18.729  28.364  21.329 -0.2879 -0.0479  0.2145
58900W        W 1916   8.848  10.320  27.008 -0.1456 -0.0505 -0.2197
58901W        W 1917  12.254  12.801  25.214  0.1532 -0.0332  0.1488
58902W        W 1918  14.546  23.011  19.147 -0.1430  0.2783 -0.2432
58903W        W 1919  24.365  27.273  24.105  0.0780  0.2447  0.1586
58904W        W 1920  22.259   6.900  23.986 -0.0908 -0.2206  0.1708
58905W        W 1921  16.144  14.302  14.549  0.0140 -0.1631 -0.1543
58906W        W 1922   7.954  24.359  25.197  0.0702 -0.1199  0.2736
58907W        W 1923  14.249  20.478  11.923  0.0141  0.0657  0.1637
58908W        W 1924   6.306  14.762  22.094  0.0123  0.0109 -0.0313
58909W        W 1925   1.749   0.691   1.730 -0.0983  0.2408  0.2068
58910W        W 1926  15.026   7.081  26.227  0.1012  0.1036 -0.1632
58911W        W 1927  27.638  14.050  18.343  0.1771  0.1890  0.0526
58912W        W 1928   0.031   9.036  18.265 -0.0042  0.1394 -0.0282
58913W        W 1929  18.757   8.523  21.215  0.2307  0.1802  0.3378
58914W        W 1930  10.659  20.505   2.458  0.0262 -0.0169  0.1790
58915W        W 1931   7.683  29.569  21.568 -0.0351 -0.2320  0.0393
58916W        W 1932   7.598   9.721   5.107  0.1241  0.4740  0.0744
58917W        W 1933  11.961  26.758  12.550  0.0470  0.2687  0.0606
58918W        W 1934   4.702  11.673  21.170  0.0684  0.1843 -0.0837
58919W        W 1935  13.563   4.865  19.262 -0.0981 -0.0605  0.1681
58920W        W 1936  13.471  31.807  28.418 -0.1044 -0.1870 -0.0581
58921W        W 1937  12.876   9.679  19.908 -0.1322 -0.1609  0.1446
58922W        W 1938  13.421   5.413  23.420  0.2505 -0.2045  0.3106
58923W        W 1939  34.566  18.560  20.133  0.0043 -0.1399  0.1278
58924W        W 1940  31.374  23.137  27.246  0.0090  0.0007  0.2982
58925W        W 1941  31.417  16.826  17.269  0.2390  0.1136  0.0981
58926W        W 1942  32.383  20.923  18.786 -0.5095  0.0983 -0.0647
58927W        W 1943  10.244  17.826  17.049 -0.0412  0.1698 -0.2068
58928W        W 1944   9.500  10.202  27.480 -0.1431  0.2140 -0.3469
58929W        W 1945  22.067  23.683  18.413 -0.2151 -0.0584  0.3271
58930W        W 1946  11.804  20.145  12.431 -0.2488 -0.1046  0.0100
58931W        W 1947  13.447  23.560  18.518  0.1463  0.0374 -0.0725
58932W        W 1948   7.957  20.036  23.663  0.1315 -0.0224  0.1048
58933W        W 1949   0.253  24.020   1.771  0.0926 -0.0985 -0.0658
58934W        W 1950   9.975  18.599  16.057 -0.1786 -0.0399 -0.1003
58935W        W 1951  10.010  11.281  24.519  0.1172  0.1679 -0.0907
58936W        W 1952   3.826  13.188  20.961  0.3543  0.1139 -0.1018
58937W        W 1953  22.383  16.071  15.942  0.0925  0.0927 -0.3169
58938W        W 1954   8.386  17.466   7.733  0.0443 -0.1745  0.0726
58939W        W 1955  26.265  18.211  16.590 -0.0864  0.1202  0.1341
58940W        W 1956   2.583  25.526  16.756 -0.0111  0.0665  0.0168
58941W        W 1957  15.530  24.319  19.823 -0.1678  0.3121  0.0127
58942W        W 1958  24.199  25.080  25.663  0.3496  0.1021 -0.1223
58943W        W 1959  15.715  12.667  14.115 -0.2465 -0.2617  0.0873
58944W        W 1960  32.125  13.854  29.068 -0.2291  0.2504  0.3523
58945W        W 1961  11.347  21.256  14.824  0.2649  0.3674  0.2568
58946W        W 1962  32.113  30.857  26.792  0.0707 -0.1085 -0.2082
58947W        W 1963  19.697   6.220  16.816  0.4077 -0.1607  0.2070
58948W        W 1964  16.368  14.310  20.975 -0.0636  0.1771  0.1564
58949W        W 1965  33.044  12.607  20.235  0.1228 -0.1978 -0.1954
58950W        W 1966  26.509  16.974  18.078 -0.3789 -0.1248 -0.1472
58951W        W 1967   0.382   0.699  27.926  0.1072 -0.1005 -0.1211
58952W        W 1968  11.557   6.256  22.876  0.0239  0.0414 -0.2144
58953W        W 1969   2.914  22.888  24.683  0.3986 -0.0036  0.1414
58954W        W 1970  26.804   0.465  16.293  0.0573  0.0956 -0.0952
58955W        W 1971  21.539  26.394   2.260  0.1566 -0.0795 -0.0312
58956W        W 1972   2.238   2.499  25.525 -0.0861  0.0875  0.0449
58957W        W 1973  23.361   9.430  29.138 -0.0155 -0.0973 -0.2946
58958W        W 1974  17.401  11.264  18.585 -0.2567  0.1033  0.1719
58959W        W 1975   5.564  18.607  13.722 -0.2970 -0.1103 -0.2869
58960W        W 1976  12.572  11.436  27.144 -0.0202  0.2342  0.1524
58961W        W 1977  13.376   8.995  15.277 -0.1554  0.0443 -0.6083
58962W        W 1978   2.964  30.912  26.612 -0.1261 -0.0627 -0.0905
58963W        W 1979  23.013  32.248  22.101 -0.1568 -0.0396  0.1697
58964W        W 1980  23.384  16.095   0.666 -0.0636 -0.0460 -0.3012
58965W        W 1981   5.932  29.157  24.442 -0.2912 -0.1725  0.0721
58966W        W 1982  28.221  29.415  16.393  0.0773 -0.0797 -0.0878
58967W        W 1983   9.475  14.524  20.744 -0.1503  0.1515  0.1040
58968W        W 1984  11.289  30.879  15.113 -0.1674 -0.0415  0.2313
58969W        W 1985  15.930  28.556   0.426 -0.3030  0.0662  0.2396
58970W        W 1986   6.505  28.429  24.308 -0.1696 -0.1924 -0.0169
58971W        W 1987  17.034  34.245  25.843  0.0632 -0.2511 -0.0314
58972W        W 1988  11.417   1.727  18.196 -0.1165  0.0177 -0.2185
58973W        W 1989  34.610   3.524  16.369  0.1047 -0.0322 -0.1114
58974W        W 1990  19.003   1.631  22.292 -0.2147  0.0429  0.0360
58975W        W 1991  17.941  21.536  15.857  0.2295  0.0883  0.0855
58976W        W 1992  22.854  13.509  14.871  0.0443  0.0535  0.1130
58977W        W 1993  26.968  24.479  18.979  0.1349 -0.1353 -0.4142
58978W        W 1994   0.826   0.772  17.979 -0.0023 -0.1594  0.1885
58979W        W 1995  16.187  30.866  16.577  0.2489  0.0901  0.1790
58980W        W 1996  14.359  14.587  13.339 -0.0846 -0.0869 -0.0319
58981W        W 1997   4.016  32.057  24.844  0.0090 -0.2322 -0.1971
58982W        W 1998  11.870  24.713  20.000 -0.0515 -0.0746 -0.1090
58983W        W 1999  12.867  12.239   7.626  0.1915  0.1661 -0.1383
58984W        W 2000  24.052   4.469  20.301 -0.1504  0.2254  0.1115
58985W        W 2001   8.144  23.111  14.200 -0.0382  0.0082  0.2056
58986W        W 2002  24.410  16.768  14.495 -0.0880  0.3300  0.1076
58987W        W 2003   8.330  20.459  24.401  0.1795  0.2529  0.0303
58988W        W 2004  23.020   5.425  24.723  0.1565 -0.0848  0.1336
58989W        W 2005   0.437  21.560  23.703 -0.1024 -0.0578 -0.0531
58990W        W 2006   0.775  30.031  25.919  0.1998  0.0111 -0.0341
58991W        W 2007   9.537   6.852  14.158 -0.0659 -0.0801  0.0421
58992W        W 2008   5.974  24.506   8.462  0.0196  0.1778  0.3316
58993W        W 2009  10.345  16.641   0.537  0.0530 -0.0600  0.0489
58994W        W 2010  29.489  22.151  24.380 -0.0450 -0.2746 -0.1143
58995W        W 2011  17.200  24.545  19.759  0.0040  0.0239 -0.0247
58996W        W 2012  20.625   8.343  13.859 -0.2919 -0.0302 -0.2187
58997W        W 2013  11.233  27.014  23.976 -0.1803  0.2807  0.1246
58998W        W 2014   2.124  12.728  17.064 -0.2333  0.1915  0.0359
58999W        W 2015   6.909  10.849  20.229 -0.0283  0.1059  0.0444
59000W        W 2016  22.345  12.558   0.559  0.2391 -0.1389  0.2944
59001W        W 2017  20.631  23.168  19.010 -0.1078 -0.1961  0.1402
59002W        W 2018  15.207  29.605  20.461 -0.1354 -0.0666 -0.0669
59003W        W 2019  29.541  14.733  23.026  0.1490  0.1002  0.0840
59004W        W 2020   0.389  29.373  23.702 -0.3362 -0.0813  0.1744
59005W        W 2021   3.241  19.644  14.661 -0.0684 -0.0430  0.1634
59006W        W 2022   7.271  16.459  18.541  0.0689  0.2085 -0.1127
59007W        W 2023  22.201  29.139  18.168 -0.2312 -0.3380  0.0693
59008W        W 2024   8.445   5.740   3.055  0.2223  0.1417  0.0598
59009W        W 2025  20.811  10.021   7.375 -0.0314  0.0239  0.1931
59010W        W 2026  22.581  20.248  24.362 -0.1406 -0.0027  0.0066
59011W        W 2027  27.973  16.608   8.335 -0.1152  0.0465  0.0022
59012W        W 2028  33.797  20.085  15.142 -0.1835 -0.0228 -0.1164
59013W        W 2029  12.450  31.657  14.691 -0.2642  0.3981  0.1152
59014W        W 2030   6.482  20.813  16.630  0.0081 -0.0206 -0.1675
59015W        W 2031  10.726   8.263  19.964 -0.1059 -0.1537  0.0957
59016W        W 2032  24.076  12.080  15.751  0.1071  0.1447  0.0560
59017W        W 2033  14.583  25.187  17.568 -0.1343 -0.2214  0.2052
59018W        W 2034  32.851  10.364  24.455  0.0200  0.0398  0.0838
59019W        W 2035  17.962  10.297  14.285  0.1236  0.0205  0.2866
59020W        W 2036  14.768  13.147   2.067  0.1187 -0.0261  0.1600
59021W        W 2037  27.823  24.629  17.994 -0.0259  0.0107  0.0179
59022W        W 2038   6.590   1.532   9.989  0.1660  0.2041  0.0125
59023W        W 2039   8.349   9.533  27.986  0.0650 -0.2585 -0.0230
59024W        W 2040  15.125   7.522  27.769  0.3761 -0.2282 -0.0430
59025W        W 2041  30.624  24.933   0.095  0.0013  0.6718  0.3050
59026W        W 2042  32.798   0.901  28.241  0.3173 -0.1392  0.1212
59027W        W 2043   8.303  12.759   4.765 -0.0222 -0.0306 -0.1354
59028W        W 2044  25.799  23.402  16.196  0.1921 -0.1143 -0.1034
59029W        W 2045  18.490  19.086   5.919 -0.2273  0.0337 -0.2588
59030W        W 2046  14.230   9.312  27.310 -0.0994  0.1882 -0.3833
59031W        W 2047  29.128  14.271   7.913 -0.0491 -0.2307  0.2264
59032W        W 2048  17.513   8.820  17.941 -0.0611 -0.2590 -0.2150
59033W        W 2049  11.808  15.424  16.978  0.1815 -0.1022  0.0966
59034W        W 2050   5.832  20.756  24.852  0.1707 -0.0315  0.2604
59035W        W 2051   3.648  17.888   8.086 -0.2210 -0.1351 -0.0987
59036W        W 2052   4.958  12.724  14.164 -0.0050  0.2131  0.2105
59037W        W 2053  19.757  10.082  14.493 -0.2842 -0.1976  0.1397
59038W        W 2054   9.586  22.151  18.366 -0.2013 -0.1526  0.3062
59039W        W 2055   7.817   9.268  19.312 -0.0129  0.0149  0.0921
59040W        W 2056  11.863  21.062  28.685 -0.1116 -0.3111 -0.2841
59041W        W 2057  14.281  13.024  17.698 -0.0357 -0.1637 -0.1279
59042W        W 2058  14.580   4.037  14.725  0.2333 -0.2166 -0.0759
59043W        W 2059   6.255  23.306  23.542  0.0663  0.1509 -0.1259
59044W        W 2060   0.466  12.710  22.611  0.3989  0.1961 -0.3190
59045W        W 2061  31.955  19.795  26.564  0.0970 -0.0767  0.1442
59046W        W 2062   3.034  27.283  18.954 -0.3709 -0.0696 -0.2266
59047W        W 2063  23.326  28.249  15.006 -0.1514 -0.1924 -0.0543
59048W        W 2064  15.157  29.176  20.207  0.2523  0.1652  0.2669
59049W        W 2065  34.173  17.591   2.357 -0.0770 -0.1306 -0.3377
59050W        W 2066  12.142   4.948  13.722  0.2236 -0.0193  0.1175
59051W        W 2067   3.049  26.861  27.432  0.1244 -0.1907  0.0436
59052W        W 2068   6.002  32.644  20.380  0.0131 -0.1852 -0.0390
59053W        W 2069  26.510  24.283  18.748  0.4131 -0.1466 -0.4695
59054W        W 2070  12.663  11.174  14.982 -0.2530 -0.0700  0.4037
59055W        W 2071  17.370  31.793  20.422 -0.0319  0.0480 -0.2819
59056W        W 2072   8.165  14.691   9.360  0.1086 -0.2232  0.1042
59057W        W 2073   8.223  17.739  24.026 -0.3375 -0.0083  0.0359
59058W        W 2074   9.533  13.705   6.933  0.2175  0.0045 -0.2110
59059W        W 2075  34.264  10.642  29.205 -0.0050  0.2898 -0.0309
59060W        W 2076  12.543   0.276  22.166 -0.3906 -0.0644  0.1720
59061W        W 2077   9.025  12.522  26.558 -0.3425  0.3000 -0.0327
59062W        W 2078  13.007  26.888  19.926 -0.2451  0.0445  0.0597
59063W        W 2079  10.593  33.791  15.128 -0.0671 -0.3136  0.3025
59064W        W 2080   7.648  13.490  19.259  0.0281  0.2519 -0.0546
59065W        W 2081   4.577  17.241   4.979 -0.0262 -0.1867  0.0262
59066W        W 2082   6.715   1.894   4.024 -0.2747  0.3167 -0.0652
59067W        W 2083  33.272   8.276  24.134  0.0170 -0.0675  0.0033
59068W        W 2084  34.421  25.250   6.595  0.2532  0.3086  0.4659
59069W        W 2085   6.689  27.115  15.009 -0.0494 -0.1133  0.1788
59070W        W 2086  27.943  18.733   2.079  0.2435 -0.0346  0.1999
59071W        W 2087  23.627   5.086  16.559 -0.2642  0.0959  0.2902
59072W        W 2088  33.821   9.862   9.879 -0.0694 -0.0157  0.0430
59073W        W 2089  22.556  30.145  23.607  0.0072 -0.0841  0.3195
59074W        W 2090  31.317   2.431  21.277  0.1035 -0.0724  0.2234
59075W        W 2091  17.275   6.740  21.989 -0.1234  0.1528  0.1805
59076W        W 2092  15.626   9.495  14.481  0.3288 -0.2030  0.0581
59077W        W 2093  11.976  11.648  21.532 -0.0049 -0.0102 -0.1335
59078W        W 2094   8.816   4.750  16.513  0.0734 -0.0219 -0.2059
59079W        W 2095   8.180   0.096   9.140  0.0618 -0.1492  0.0696
59080W        W 2096  22.398  13.518  19.007  0.1921 -0.0616  0.1539
59081W        W 2097  25.132   3.303   2.482  0.0675 -0.0054  0.0833
59082W        W 2098   3.362  16.745   4.155  0.2633  0.1666  0.1423
59083W        W 2099   4.606   4.426  26.751 -0.0854 -0.1253 -0.0907
59084W        W 2100  17.333   6.222  25.565 -0.2453  0.0105  0.0097
59085W        W 2101  26.260  13.943  23.622  0.0452 -0.1508  0.2840
59086W        W 2102  11.078  15.856  28.956  0.0205 -0.2294 -0.1710
59087W        W 2103  28.961   7.404   0.817  0.0835  0.0292  0.1935
59088W        W 2104   8.217  17.747   0.471  0.0413 -0.1232  0.0894
59089W        W 2105  16.600   9.839  28.899  0.2182  0.0066  0.2074
59090W        W 2106  28.847   4.056  19.260  0.1112 -0.2386  0.3297
59091W        W 2107  10.273   7.386   4.162  0.1337 -0.0215 -0.0018
59092W        W 2108   6.462  17.189  28.348  0.1457 -0.0758  0.1161
59093W        W 2109   2.387  19.020  17.766  0.3295 -0.1926 -0.0090
59094W        W 2110   6.749  26.221  28.354  0.1990  0.0078 -0.2379
59095W        W 2111  19.666  21.275  16.587  0.3462  0.1199  0.1554
59096W        W 2112   2.771   9.146  27.287  0.5862  0.2950  0.0737
59097W        W 2113  17.191  29.514  16.117 -0.1174  0.3482  0.1859
59098W        W 2114  32.160  14.278  14.657  0.0489  0.3184  0.0198
59099W        W 2115   5.243   7.828  23.487  0.0700 -0.2639  0.0273
59100W        W 2116  13.470  15.560   2.526 -0.0039 -0.1176  0.3277
59101W        W 2117  18.863  12.449  16.528 -0.2758  0.1587  0.1618
59102W        W 2118   8.628  19.336  23.755  0.2146  0.3861 -0.2958
59103W        W 2119  30.909  23.287  16.544  0.5218  0.0747  0.1358
59104W        W 2120  16.291  15.433   4.484 -0.1103 -0.0735  0.1692
59105W        W 2121   8.434  26.721  23.626  0.1567 -0.0685 -0.1013
59106W        W 2122   9.593  29.949  17.850  0.1059 -0.4397 -0.2327
59107W        W 2123  34.604  17.960  22.555  0.0637  0.1405 -0.2230
59108W        W 2124  16.698  30.445  23.289  0.3619 -0.1594 -0.2052
59109W        W 2125  11.025  17.944  24.957 -0.1547 -0.1845 -0.1734
59110W        W 2126  24.755   8.451   0.461  0.0087  0.0979 -0.0231
59111W        W 2127  19.633   8.186  14.854  0.1510  0.2348 -0.0575
59112W        W 2128  15.308  28.186  22.051  0.2283  0.2325  0.0055
59113W        W 2129  25.489  29.145  25.043 -0.1918  0.0166 -0.2911
59114W        W 2130   3.670  19.168  21.664  0.1668  0.1956  0.1204
59115W        W 2131   7.922  34.487  21.566  0.0605 -0.2846  0.2363
59116W        W 2132   1.695  18.621  27.477 -0.0411  0.0820  0.1700
59117W        W 2133   9.177   2.775  26.399 -0.0718 -0.0020 -0.0006
59118W        W 2134  13.505  11.737  19.333  0.1658 -0.2959 -0.1897
59119W        W 2135  19.542  17.951  23.218  0.1930 -0.0000  0.2693
59120W        W 2136  31.459   3.181   7.077 -0.0178  0.1205  0.0233
59121W        W 2137  34.523  28.859  20.751  0.0516  0.1959 -0.1099
59122W        W 2138   9.650   1.486  27.917 -0.4016 -0.3431 -0.1521
59123W        W 2139  20.569   2.191  15.376 -0.0245 -0.0962  0.0932
59124W        W 2140  24.496   4.154   2.663  0.0350 -0.4629 -0.4171
59125W        W 2141  13.953   6.360   1.246 -0.0689 -0.3977 -0.0370
59126W        W 2142   5.103  21.286  26.747 -0.3673 -0.1385 -0.1395
59127W        W 2143   8.472   7.077  14.831 -0.0148 -0.1244  0.0231
59128W        W 2144   0.523  29.539  22.768  0.0641  0.1255 -0.1602
59129W        W 2145  12.583   6.434  15.267  0.0072  0.2080  0.1673
59130W        W 2146  29.463  16.492   8.030  0.1394  0.1786  0.0515
59131W        W 2147  10.485  19.520   3.090 -0.0453 -0.2542  0.0809
59132W        W 2148  10.631   8.847  21.044 -0.1709  0.2593  0.1609
59133W        W 2149   5.935  14.216  27.568 -0.4329 -0.2075  0.2227
59134W        W 2150  28.374  20.876  25.464  0.3211  0.1599 -0.2742
59135W        W 2151   1.025  15.433   8.871 -0.3927 -0.2355 -0.0350
59136W        W 2152   3.029   5.697  10.036 -0.2247  0.0982 -0.0190
59137W        W 2153   2.180   4.408   2.092  0.0808 -0.4204  0.1291
59138W        W 2154  11.578  18.520  28.107  0.1212  0.1813  0.1444
59139W        W 2155  34.713   1.440   7.855 -0.1079  0.0715 -0.1832
59140W        W 2156   1.694  16.486  20.431 -0.1418 -0.0635  0.2291
59141W        W 2157  14.296  12.030  27.767 -0.3272 -0.0105 -0.0083
59142W        W 2158   5.438  14.169  28.878 -0.0077  0.1045 -0.2115
59143W        W 2159  10.439  16.787   2.989  0.1187 -0.2298 -0.1351
59144W        W 2160   6.934  13.628  17.300 -0.1354 -0.0504  0.0311
59145W        W 2161  23.277   4.603   7.435 -0.3210 -0.1381 -0.0900
59146W        W 2162   3.682  27.284   4.934 -0.0900 -0.0184 -0.0225
59147W        W 2163  33.353  20.292  29.018  0.0261  0.0043 -0.1469
59148W        W 2164   9.327  25.034   4.507  0.0283  0.3058 -0.0275
59149W        W 2165   4.001  11.648  22.778 -0.0895  0.0111  0.0177
59150W        W 2166  13.946  10.546   7.933 -0.1756 -0.0028 -0.0489
59151W        W 2167  16.705  12.408  28.431 -0.1440 -0.1490 -0.0227
59152W        W 2168  22.105  19.351  20.628  0.1474  0.0378  0.0851
59153W        W 2169   0.303  12.759  17.811 -0.1608  0.2180  0.1019
59154W        W 2170  26.912  16.891  27.672  0.0241  0.3168 -0.0171
59155W        W 2171   5.439   7.303  22.521 -0.0819  0.0477  0.0254
59156W        W 2172  23.489  15.219  24.554  0.2511  0.0956  0.1644
59157W        W 2173   3.880   2.478  19.024  0.0423  0.0374  0.0387
59158W        W 2174   2.063  23.375  23.047  0.4489 -0.1975  0.1379
59159W        W 2175  22.061  21.194   2.293 -0.0861  0.0595 -0.4863
59160W        W 2176   5.409  18.273  26.924 -0.0222  0.1826 -0.0674
59161W        W 2177   8.834  33.990  25.326 -0.0134  0.0327 -0.1818
59162W        W 2178   7.806  30.095   3.517 -0.2515  0.2453 -0.1118
59163W        W 2179  22.484  17.578  13.947 -0.1853 -0.1774 -0.0221
59164W        W 2180  18.174   4.761  19.035  0.1808 -0.0043  0.2385
59165W        W 2181  22.321  11.843   8.904  0.2385  0.3513  0.0579
59166W        W 2182  21.440   4.565  21.995 -0.0577 -0.2068  0.1614
59167W        W 2183  24.393  29.173  18.914  0.2156 -0.0386  0.0961
59168W        W 2184  31.348   3.579  27.822  0.0453  0.3274 -0.0504
59169W        W 2185  15.574  12.653  20.890 -0.0666 -0.0358  0.0298
59170W        W 2186  16.430  10.928  22.059 -0.0588 -0.1679 -0.1910
59171W        W 2187  28.685  12.994   0.805 -0.0397  0.0553 -0.0471
59172W        W 2188  34.239   9.912  10.780 -0.0903 -0.2877  0.0459
59173W        W 2189   5.237  25.078  19.808 -0.2883 -0.1919 -0.0573
59174W        W 2190  11.221   4.689   2.185  0.3777  0.0504 -0.2084
59175W        W 2191   7.217   7.593  23.484  0.0929 -0.1166 -0.3468
59176W        W 2192  14.406   6.083  23.568 -0.5375  0.3505  0.0167
59177W        W 2193  22.505  18.106  13.635 -0.1102 -0.0338 -0.3144
59178W        W 2194  16.016   8.525  24.505 -0.2918 -0.0737 -0.2289
59179W        W 2195  13.418  17.352  14.153 -0.0835  0.0337  0.0037
59180W        W 2196   5.318   7.099  17.001  0.1616 -0.0228  0.1269
59181W        W 2197   5.792  11.121  18.038 -0.2832 -0.0985 -0.0531
59182W        W 2198   8.164  21.073   7.103 -0.0884 -0.0300 -0.2452
59183W        W 2199  31.159   5.169  19.659  0.0806 -0.2176 -0.2636
59184W        W 2200  10.186  33.754  25.060  0.1062 -0.4239  0.0746
59185W        W 2201  22.012  12.060  16.685  0.1022  0.0007 -0.4937
59186W        W 2202  27.687  26.983   1.188  0.1656 -0.3314 -0.0186
59187W        W 2203  13.994  15.583  29.219 -0.3298 -0.0334  0.2101
59188W        W 2204  10.880  27.725  15.169  0.1264 -0.0820  0.0836
59189W        W 2205   3.054  31.732  25.821  0.0799 -0.2897 -0.0939
59190W        W 2206   3.877  21.003  24.293 -0.2125 -0.1941  0.1501
59191W        W 2207   3.079  16.677  18.973  0.0542  0.2447  0.4942
59192W        W 2208  12.892  17.285   7.765  0.3222 -0.2114  0.3679
59193W        W 2209  15.225  15.117  22.705  0.2492  0.1617  0.2936
59194W        W 2210  13.142  11.029  19.935 -0.1217 -0.3139 -0.0456
59195W        W 2211  16.983  10.632  15.546 -0.0489 -0.1349  0.2506
59196W        W 2212  32.915   6.147  26.437  0.0928  0.1054  0.0587
59197W        W 2213   4.608  22.798  20.608 -0.2496  0.2609 -0.2514
59198W        W 2214  12.107  19.307  23.719  0.1998  0.0219 -0.1314
59199W        W 2215  23.789   7.394   0.098 -0.0187 -0.1621 -0.2131
59200W        W 2216  22.060  18.179   9.882 -0.1023  0.0328 -0.2213
59201W        W 2217  30.981  24.470   7.950  0.0526  0.0484 -0.1093
59202W        W 2218   9.502   0.225  18.082 -0.1091  0.1335 -0.2642
59203W        W 2219   8.154  16.399  26.904  0.2228  0.1363 -0.0381
59204W        W 2220   4.003   7.230  19.037  0.4682 -0.0533  0.0074
59205W        W 2221  14.523   7.597  25.312  0.0234  0.1901 -0.1519
59206W        W 2222  21.514  13.424  26.563 -0.0387  0.2655  0.0725
59207W        W 2223   7.560  16.387   2.214  0.0610 -0.1549 -0.2131
59208W        W 2224   7.076  22.807  22.039  0.1036 -0.2287  0.0080
59209W        W 2225  13.188  27.810  29.273 -0.2945  0.3600 -0.1407
59210W        W 2226   3.319  21.675  15.240  0.0192 -0.3195 -0.1169
59211W        W 2227  12.313  16.134  13.759  0.0577 -0.1493 -0.0919
59212W        W 2228   6.228   8.152   0.167  0.4205  0.2005  0.1427
59213W        W 2229  12.509  12.247  27.782 -0.0678 -0.1826  0.2010
59214W        W 2230  17.972  24.324  24.631  0.2906  0.0784 -0.0612
59215W        W 2231  10.448  20.427  16.234 -0.0150 -0.2299  0.0505
59216W        W 2232  11.218  15.960  21.913 -0.1267 -0.1537  0.5272
59217W        W 2233   3.258  15.689   5.200  0.1641  0.2558 -0.3015
59218W        W 2234  29.745  15.036   9.318 -0.2841  0.1167 -0.0042
59219W        W 2235   8.685  23.032   0.701  0.0279 -0.0744  0.1233
59220W        W 2236  34.093  16.594  27.884  0.0216  0.0642  0.2922
59221W        W 2237  17.319   5.563   9.430  0.1026  0.1031 -0.2784
59222W        W 2238  12.869  22.404  19.878 -0.2255 -0.1942 -0.3465
59223W        W 2239  21.802   5.350  16.884  0.3695  0.0749 -0.2486
59224W        W 2240  25.396  26.830   2.212  0.1094  0.1978  0.1860
59225W        W 2241  33.449  14.932  20.091  0.2367  0.1458  0.2290
59226W        W 2242  13.649  10.412  20.036  0.0651  0.0644 -0.1550
59227W        W 2243  34.330  33.232  22.269 -0.2239 -0.1897 -0.2760
59228W        W 2244   2.782  12.141  25.218  0.0539  0.1853 -0.0609
59229W        W 2245  14.940  24.711  26.844  0.1801  0.3537 -0.0745
59230W        W 2246  17.317   3.722   1.648 -0.4136 -0.1197 -0.1941
59231W        W 2247   9.440   5.685  20.287 -0.4687  0.0868  0.1364
59232W        W 2248  13.261  10.578  21.491  0.1052  0.3268  0.1648
59233W        W 2249  21.736  24.533  20.363  0.1031  0.0551 -0.0271
59234W        W 2250   3.651  33.306  14.345 -0.1089  0.0743 -0.1762
59235W        W 2251   4.591  33.042  21.211 -0.2762  0.0103 -0.1446
59236W        W 2252   7.887   7.180   0.012 -0.3952 -0.0322 -0.0396
59237W        W 2253  33.025  14.055  22.039 -0.0094 -0.1852  0.0630
59238W        W 2254  29.018  14.981  19.132  0.2615  0.4801 -0.2417
59239W        W 2255   1.582  12.277   9.989 -0.1331  0.1584 -0.0153
59240W        W 2256  25.893  20.115  14.881 -0.0218  0.2246 -0.3151
59241W        W 2257  14.025  30.726  25.387 -0.1275  0.0508  0.1783
59242W        W 2258  21.382  11.809  21.325 -0.0048  0.2279 -0.1534
59243W        W 2259  17.348  22.230  18.369 -0.0874  0.0189 -0.0692
59244W        W 2260  25.534  28.194   1.427  0.1281  0.1717 -0.2762
59245W        W 2261  28.337  12.499  19.600 -0.0419 -0.0746 -0.5098
59246W        W 2262  16.170  12.091  28.963  0.1651  0.1104 -0.1714
59247W        W 2263  14.249   8.299   0.307 -0.1120  0.0101 -0.0230
59248W        W 2264  10.861  20.940   0.513 -0.1555 -0.1793 -0.1324
59249W        W 2265   8.903   9.098  15.383 -0.1413 -0.1979 -0.1256
59250W        W 2266  19.942   9.741  18.055  0.2198 -0.0440  0.2048
59251W        W 2267   4.998   2.914   5.464 -0.0493 -0.1868  0.0575
59252W        W 2268   3.341  11.097  16.870  0.2304  0.0008  0.0437
59253W        W 2269   9.136  17.890  27.679  0.2457 -0.3996 -0.1072
59254W        W 2270  33.357  20.571  18.042  0.1579  0.1158 -0.2837
59255W        W 2271  13.686  28.150   7.924  0.0903 -0.0786  0.1408
59256W        W 2272  18.161  11.491  29.242 -0.1124  0.0442 -0.0239
59257W        W 2273  12.733  11.534  18.912 -0.2119  0.1281  0.0991
59258W        W 2274   0.731  20.756  21.426  0.0240  0.4000 -0.0052
59259W        W 2275   3.142  11.453  10.225  0.0568 -0.4212  0.1529
59260W        W 2276   5.545  11.837   7.425 -0.1624  0.0568  0.2150
59261W        W 2277  16.259  23.941  20.254  0.2841  0.0746 -0.1734
59262W        W 2278  12.655  12.875  20.838 -0.2943 -0.1239  0.0384
59263W        W 2279  13.902  24.829  10.015  0.0106  0.0719  0.0077
59264W        W 2280  19.181   1.324  18.718 -0.2135 -0.0696 -0.1514
59265W        W 2281  16.497  20.065  11.618  0.0937  0.0440  0.0751
59266W        W 2282  10.425  18.038  21.727 -0.1515  0.2570 -0.0221
59267W        W 2283  11.002  20.011   2.367 -0.0712 -0.1219 -0.1266
59268W        W 2284  29.747   4.701  18.859  0.1827 -0.1335  0.0912
59269W        W 2285   2.251  26.547   1.240 -0.0181  0.0466  0.1246
59270W        W 2286   8.201  17.609   1.821  0.1942  0.2658  0.0655
59271W        W 2287  13.506  31.585  16.991 -0.0348  0.0713 -0.0283
59272W        W 2288  14.740  21.672   4.765 -0.0759  0.1679  0.2358
59273W        W 2289   4.291  30.883  24.175 -0.2113  0.1994 -0.1575
59274W        W 2290   9.220  12.943  15.741 -0.0876 -0.2226  0.2238
59275W        W 2291   2.439   2.512   5.187 -0.2816  0.1861 -0.0357
59276W        W 2292  15.452  11.350  17.848  0.1803 -0.5360  0.0789
59277W        W 2293  22.460  19.491  16.409  0.2009  0.3331 -0.3142
59278W        W 2294  33.420  11.202  15.884 -0.0666 -0.1334  0.1875
59279W        W 2295   3.831  17.316  20.864 -0.1470  0.1449  0.0349
59280W        W 2296   2.001  23.118   3.501 -0.0049 -0.1155 -0.1741
59281W        W 2297  18.655  23.576  14.904 -0.0651 -0.1234 -0.0723
59282W        W 2298  30.739  15.114  28.390 -0.1765  0.1703 -0.2700
59283W        W 2299  27.206  19.233  18.823 -0.1448  0.0134  0.2515
59284W        W 2300  25.675  16.026  17.432  0.0495  0.0776  0.0294
59285W        W 2301   6.264  31.792  15.085  0.0221 -0.0670 -0.2350
59286W        W 2302  32.290   9.666   2.154  0.0981 -0.1095 -0.0257
59287W        W 2303   5.797  23.417  22.144  0.0085 -0.0348  0.2462
59288W        W 2304   3.524  16.739  26.344  0.0761 -0.0535 -0.0324
59289W        W 2305  16.630   1.822  15.510 -0.2783  0.4323 -0.1454
59290W        W 2306  17.673  23.952   7.897 -0.1449 -0.0882  0.0905
59291W        W 2307  17.037  16.688   2.468  0.0128  0.0345 -0.0654
59292W        W 2308  10.224  10.040  27.452  0.0211  0.0193  0.1045
59293W        W 2309  21.090  34.671  18.374  0.0259  0.0748  0.0013
59294W        W 2310  28.393  16.204   0.164  0.2465 -0.2904  0.0384
59295W        W 2311   8.810  19.245  25.069 -0.0806  0.1875 -0.1092
59296W        W 2312  31.686  31.857  20.973  0.1776 -0.0036  0.1219
59297W        W 2313  10.321  20.189   4.457 -0.1553  0.2163  0.0092
59298W        W 2314  25.804   1.474  27.200 -0.0341 -0.1198 -0.1009
59299W        W 2315   2.310  11.705   4.173 -0.0181  0.0392 -0.0951
59300W        W 2316   7.122  20.335  29.195 -0.0044 -0.1817  0.0731
59301W        W 2317  27.065   3.421   4.693  0.2099  0.2947  0.0575
59302W        W 2318   7.128   5.493  21.408  0.3278 -0.4507  0.0362
59303W        W 2319  10.762   8.700  26.448 -0.1770  0.0064 -0.0090
59304W        W 2320  28.634  31.957  18.098  0.0375  0.0748 -0.0172
59305W        W 2321  18.155  22.692  13.354  0.1014 -0.0182  0.3213
59306W        W 2322  14.062  14.124  12.587  0.1352  0.0890  0.2002
59307W        W 2323   5.493  26.486   0.834  0.0918 -0.0223  0.0342
59308W        W 2324  18.718  11.192  16.649 -0.0879  0.1376 -0.0937
59309W        W 2325  13.540  27.941  17.242  0.1175  0.0882  0.1245
59310W        W 2326  11.712  11.672  16.703 -0.0152 -0.0385  0.0832
59311W        W 2327  13.713   4.161  16.445  0.1965 -0.2683 -0.0337
59312W        W 2328  17.705  12.609  21.490 -0.1177  0.1124  0.2767
59313W        W 2329  14.615  11.416   7.180  0.0342  0.1055  0.1675
59314W        W 2330   6.606  21.317  20.740 -0.0279 -0.1055 -0.2036
59315W        W 2331  13.047  30.368  25.040  0.0503  0.2282  0.0796
59316W        W 2332   8.010  17.255  18.064  0.1346  0.1754 -0.0633
59317W        W 2333  23.530  16.235  14.467  0.0640  0.2454 -0.2438
59318W        W 2334  14.802  23.372   1.933 -0.2215 -0.1208  0.0795
59319W        W 2335  11.927  23.910   9.342  0.0487 -0.2937 -0.2733
59320W        W 2336  16.420   5.293  19.669 -0.1814 -0.0034  0.1782
59321W        W 2337   2.739  29.435  26.256 -0.1835  0.1223  0.1311
59322W        W 2338  20.232  33.912  10.547  0.1190  0.0187 -0.0524
59323W        W 2339  27.515   0.832  16.686  0.3064  0.0730 -0.2213
59324W        W 2340  28.144  11.843  27.068 -0.1210  0.2263 -0.0827
59325W        W 2341   1.504  13.790  27.354 -0.0284  0.2663  0.2809
59326W        W 2342  16.763  30.737  24.027 -0.0522  0.0788 -0.1216
59327W        W 2343  10.454  27.017  22.753 -0.1005 -0.0963  0.1238
59328W        W 2344  24.172  23.920  16.075  0.2070  0.0560  0.2078
59329W        W 2345   6.440  14.707   6.663  0.0752  0.0418  0.1075
59330W        W 2346   9.386   8.887  14.416 -0.5230  0.1462  0.2361
59331W        W 2347  16.224  25.079   6.331  0.3389 -0.0698  0.0024
59332W        W 2348   5.868   4.625  22.582  0.1884 -0.1218  0.0571
59333W        W 2349  17.137  23.357  19.252  0.0902  0.0842 -0.0012
59334W        W 2350  12.046   4.680  17.947  0.0198 -0.0502  0.2593
59335W        W 2351   9.010   7.836  15.783  0.1465  0.2790 -0.0089
59336W        W 2352   8.696   7.351   6.036 -0.0320 -0.1306 -0.2728
59337W        W 2353  14.928  14.059  12.714  0.0829 -0.0176  0.2407
59338W        W 2354  17.623   5.689   9.845  0.2006 -0.1081 -0.1475
59339W        W 2355  28.813  13.618   2.299 -0.1797  0.2345 -0.1469
59340W        W 2356  27.048   5.369   5.584 -0.1950 -0.1619  0.0109
59341W        W 2357  20.174  12.460  22.930 -0.5162 -0.1940  0.0999
59342W        W 2358  28.622  11.946  24.744  0.2273  0.1707  0.1564
59343W        W 2359  25.830   7.156   5.921 -0.0826 -0.0308 -0.1410
59344W        W 2360   6.987   8.858  20.911  0.0143  0.4745  0.1013
59345W        W 2361   6.055  34.638  25.773  0.3078  0.1136  0.2217
59346W        W 2362  12.435   5.003  19.294  0.2568  0.2246 -0.2129
59347W        W 2363  13.929  14.748  25.839  0.1839  0.3523 -0.0903
59348W        W 2364  13.798  14.793   0.267 -0.1565  0.1609 -0.0352
59349W        W 2365  26.532  12.616  28.977  0.1917  0.1636  0.2810
59350W        W 2366   7.527  16.019  26.248 -0.0937  0.0157  0.0170
59351W        W 2367  12.659  22.318  15.176 -0.0403  0.0149 -0.0333
59352W        W 2368  11.541  14.801   2.571 -0.1261  0.1335  0.1985
59353W        W 2369   8.141  20.787  18.576 -0.4074  0.4472 -0.2406
59354W        W 2370   0.888  12.562  27.300  0.1146 -0.0503  0.3792
59355W        W 2371  14.306  13.130  21.090  0.1023  0.1129 -0.1236
59356W        W 2372   4.920   7.981   3.910 -0.2638  0.1885 -0.0986
59357W        W 2373  14.269  12.359   0.585  0.1515  0.1307 -0.0443
59358W        W 2374   1.396  23.766   6.068 -0.0667  0.0810  0.0741
59359W        W 2375   1.273  14.131  26.521 -0.0898 -0.0800 -0.0983
59360W        W 2376  33.221   1.816  15.219  0.1039 -0.0308 -0.1588
59361W        W 2377  12.283  11.952  17.727 -0.2058 -0.0088 -0.3095
59362W        W 2378  12.566   9.287  23.887  0.1040  0.1231 -0.0750
59363W        W 2379  13.990  16.974  14.991 -0.0408  0.2216 -0.3235
59364W        W 2380  27.461  16.736  14.380  0.1986 -0.2135 -0.0704
59365W        W 2381  29.086  19.250  21.088 -0.1947  0.1478 -0.0420
59366W        W 2382   6.828  17.880  14.907  0.2630  0.1219 -0.2491
59367W        W 2383  15.236   9.431  13.852 -0.0229 -0.0568 -0.2942
59368W        W 2384  13.810  16.979  15.519 -0.3014 -0.2975  0.0816
59369W        W 2385  32.031  10.124  15.864 -0.0564  0.3860 -0.0885
59370W        W 2386  11.721   9.197   7.999  0.3780 -0.1783 -0.0494
59371W        W 2387   8.564  31.928   1.423  0.1313 -0.0158 -0.2691
59372W        W 2388  27.535  22.934  10.310  0.1364  0.2973 -0.0261
59373W        W 2389  34.620   3.880  22.825 -0.0103  0.1331  0.0085
59374W        W 2390  17.570  19.409  28.821  0.1682 -0.0095  0.1699
59375W        W 2391   8.927  21.135  13.174 -0.0354  0.1376 -0.0803
59376W        W 2392  20.958   9.450  20.902  0.2268 -0.1240 -0.0419
59377W        W 2393  28.038  15.364   4.228 -0.3728 -0.0538 -0.1807
59378W        W 2394  20.888   8.327   7.288 -0.2983 -0.0573  0.1265
59379W        W 2395   9.827   4.248   0.415 -0.0577  0.0792 -0.1800
59380W        W 2396  32.886   7.133   7.246 -0.0442 -0.0005 -0.1754
59381W        W 2397  17.608   7.969  27.817  0.0820 -0.0962 -0.0269
59382W        W 2398  14.908   9.580  18.951 -0.1809 -0.0594 -0.1017
59383W        W 2399   1.069  15.713   3.008  0.1489 -0.0806  0.0860
59384W        W 2400  27.574   9.401  15.534  0.2041  0.0386 -0.1345
59385W        W 2401   4.428  11.443   9.476 -0.0776  0.1311  0.2587
59386W        W 2402   4.534  31.074  14.826  0.1654 -0.3535  0.0195
59387W        W 2403  11.191   6.602  26.964 -0.0804  0.2074  0.0392
59388W        W 2404   6.450  28.378   3.820 -0.0851  0.3287  0.0832
59389W        W 2405  28.056  31.393  23.526 -0.1965 -0.0873  0.0335
59390W        W 2406   3.811  28.879  23.114 -0.1677 -0.3226 -0.2716
59391W        W 2407  34.243   3.625   0.456  0.0606  0.0301  0.1236
59392W        W 2408  25.132  10.929  13.944 -0.1294  0.0095 -0.0273
59393W        W 2409  11.224  14.198  24.159  0.1491  0.1543  0.2121
59394W        W 2410  27.527  20.784  16.242 -0.2587  0.1391  0.2863
59395W        W 2411   7.484  15.707   3.130  0.0800 -0.1890  0.1696
59396W        W 2412   1.995  21.416   4.296 -0.5453  0.2028 -0.0291
59397W        W 2413   2.735  20.664  25.581  0.1232 -0.1478  0.0922
59398W        W 2414  18.326   4.896  20.280  0.1179  0.1500  0.3534
59399W        W 2415   4.233  14.633   9.819  0.3130 -0.1195 -0.0323
59400W        W 2416  14.930   4.272  22.051  0.0235 -0.1115  0.1357
59401W        W 2417  21.725   9.021  15.118 -0.2694  0.2115  0.2636
59402W        W 2418   7.770   9.225  18.326  0.0392 -0.0934 -0.1012
59403W        W 2419  17.328  14.072   8.546 -0.1932 -0.0998  0.0302
59404W        W 2420  15.766  32.424   4.646 -0.3089 -0.0540  0.0182
59405W        W 2421   0.402   4.336  28.471 -0.1239 -0.1930 -0.2923
59406W        W 2422   8.071   0.915  19.363  0.0449  0.1358  0.5657
59407W        W 2423  24.328  19.213   1.526  0.3382  0.0172 -0.3102
59408W        W 2424  10.284  22.182   8.663  0.0463  0.2373 -0.0460
59409W        W 2425  17.383  12.780  14.318 -0.0379 -0.0709 -0.1972
59410W        W 2426  10.297  32.451  27.271 -0.1518 -0.1076 -0.1791
59411W        W 2427  13.750  19.400  20.842  0.1908  0.0584 -0.1091
59412W        W 2428   3.874   5.274   3.090 -0.4008  0.0769  0.2000
59413W        W 2429  28.882  23.911  28.855 -0.1505  0.0205 -0.0101
59414W        W 2430  23.785  15.671  16.569 -0.3555  0.1908 -0.1683
59415W        W 2431  33.510   5.893   5.481 -0.0749  0.1976  0.1201
59416W        W 2432  34.613  27.634   6.439 -0.0749  0.0551  0.0468
59417W        W 2433  23.384  21.353   9.185 -0.1186 -0.0402 -0.1344
59418W        W 2434   3.530  18.829  12.820  0.2631  0.0887 -0.1801
59419W        W 2435   1.599   1.246  22.155 -0.2779 -0.1137  0.0145
59420W        W 2436  22.681  13.382   8.366  0.2054 -0.0546 -0.1252
59421W        W 2437  11.120  26.592  23.592 -0.0825  0.3655 -0.3714
59422W        W 2438  14.075  16.366   3.834 -0.2431 -0.4727  0.3227
59423W        W 2439  11.634  30.878   1.314  0.1303 -0.1485 -0.1424
59424W        W 2440  30.924  10.697   9.828  0.1028  0.2403 -0.1856
59425W        W 2441   5.052  19.799   7.643  0.1176 -0.1867 -0.1097
59426W        W 2442  12.557  15.793  20.479 -0.0936  0.0122  0.2181
59427W        W 2443  20.895  32.358  25.913 -0.0511 -0.1307 -0.0188
59428W        W 2444  32.194  17.969  18.361  0.2004 -0.1814  0.2643
59429W        W 2445   9.148   5.555   9.704 -0.2426 -0.1557 -0.1972
59430W        W 2446  19.134  27.079  29.023 -0.1104 -0.1844 -0.1543
59431W        W 2447   3.064  15.025  22.969  0.0855  0.3458 -0.1344
59432W        W 2448  12.242  19.635  16.367  0.0093  0.0447 -0.0765
59433W        W 2449  27.262   8.522   2.956  0.0243  0.2859 -0.4488
59434W        W 2450  15.809  13.660   2.885  0.1339  0.2050 -0.1079
59435W        W 2451  20.397  14.058  29.252 -0.0119 -0.0601 -0.2318
59436W        W 2452  15.786  18.588  20.965 -0.0112 -0.2382 -0.0575
59437W        W 2453   8.618  14.391   0.897 -0.1622  0.1145  0.2347
59438W        W 2454  23.245  29.870   2.974  0.1340 -0.4395  0.1822
59439W        W 2455  10.728  32.477   4.342 -0.1633  0.2914 -0.0457
59440W        W 2456  23.011  16.657  28.079  0.0682 -0.1681  0.1954
59441W        W 2457   9.322   9.732   3.896  0.0841 -0.2225  0.2536
59442W        W 2458  14.878   6.770  28.257 -0.2105  0.0376 -0.1778
59443W        W 2459  10.548  29.977   6.973  0.0408 -0.0072  0.1287
59444W        W 2460  10.660  10.270  14.597  0.1464 -0.1539  0.2650
59445W        W 2461  14.371  21.822   7.113  0.2531  0.2980  0.1075
59446W        W 2462   3.473   9.434   7.402 -0.0667  0.1614 -0.0589
59447W        W 2463   3.415  15.260  16.088 -0.1981 -0.1768 -0.5536
59448W        W 2464   9.171  12.829  22.270 -0.0355 -0.0567 -0.1211
59449W        W 2465   4.721  19.508   7.955 -0.2661  0.0612 -0.0419
59450W        W 2466   5.744  20.548   4.868  0.1118  0.0494 -0.1078
59451W        W 2467  18.433  19.424   0.788 -0.1481 -0.1577 -0.0616
59452W        W 2468   0.221  12.870   4.811  0.0505  0.1737  0.0084
59453W        W 2469  29.198  15.061  27.095 -0.0066 -0.2984 -0.0971
59454W        W 2470  14.060  22.584   6.807 -0.0227  0.0784 -0.0093
59455W        W 2471  26.071  16.457   3.896 -0.0318  0.5252 -0.1333
59456W        W 2472   7.450   7.432  24.280 -0.0140  0.0918  0.0860
59457W        W 2473  23.105   6.594  18.192  0.0637  0.0395 -0.2717
59458W        W 2474  29.159  13.388   9.202  0.0001  0.2235 -0.4410
59459W        W 2475  13.333  14.052   7.828 -0.1652 -0.2671 -0.0027
59460W        W 2476  19.483  16.417  22.455  0.0908 -0.1180 -0.3715
59461W        W 2477  13.495  29.793   9.466 -0.1955  0.0463  0.1528
59462W        W 2478  16.158  10.715  17.116 -0.4188  0.2322 -0.1896
59463W        W 2479  27.563   4.380  20.899  0.1225 -0.0625 -0.3331
59464W        W 2480   9.241   6.024  22.221  0.0130 -0.2440  0.2143
59465W        W 2481  27.225  24.503  11.403  0.0085 -0.1344  0.1778
59466W        W 2482  19.563  23.614  18.034  0.1985  0.0989  0.1238
59467W        W 2483  33.760  32.457   3.684 -0.0473  0.2506 -0.3889
59468W        W 2484  22.117  12.264  21.662 -0.1318  0.1548  0.0151
59469W        W 2485   3.649  11.560  26.490 -0.1691  0.0766  0.2018
59470W        W 2486   7.357  22.761   6.124  0.1255  0.0523  0.0281
59471W        W 2487  25.367  32.013   1.167 -0.1520 -0.0479 -0.1398
59472W        W 2488  23.388  22.334  18.597 -0.1359  0.0099 -0.2561
59473W        W 2489  28.281  24.610  25.056 -0.1211  0.1112  0.1088
59474W        W 2490  22.422   9.339   3.911  0.0525 -0.1044 -0.2589
59475W        W 2491  12.705  23.242  13.026 -0.2521  0.3619 -0.3336
59476W        W 2492  14.728  20.482  11.700 -0.2326 -0.0179 -0.2255
59477W        W 2493   0.093  29.792  10.378  0.2754  0.1442  0.2167
59478W        W 2494  15.006  19.189   3.069 -0.1309  0.0731  0.3648
59479W        W 2495  18.984  31.665  25.363 -0.0202 -0.1596  0.1366
59480W        W 2496  25.451  21.483  27.577 -0.1913  0.1611 -0.1891
59481W        W 2497  30.517  24.942  26.060  0.0834 -0.1120  0.0029
59482W        W 2498  19.872  25.635   2.039  0.0220 -0.0956  0.0027
59483W        W 2499  31.366  26.236   9.439  0.2199 -0.2420 -0.0538
59484W        W 2500  11.735  23.929   6.956 -0.4162 -0.0964  0.0653
59485W        W 2501  12.585  20.034  23.731 -0.1620  0.0621 -0.0360
59486W        W 2502  15.267  11.675  29.216  0.0422 -0.0754  0.1273
59487W        W 2503  17.558  25.172  26.075  0.1378 -0.1312  0.2238
59488W        W 2504   9.303  18.022  16.585 -0.2086 -0.3475  0.1944
59489W        W 2505   3.734  27.665   5.401  0.0194 -0.0978  0.0814
59490W        W 2506  11.573   7.672  24.235  0.1434 -0.3389  0.2885
59491W        W 2507  33.909  20.617  20.512 -0.0644  0.0180 -0.0324
59492W        W 2508   7.533  23.613  18.718  0.2136 -0.0699  0.0409
59493W        W 2509  13.610  13.754  14.000 -0.3523  0.0540 -0.2179
59494W        W 2510  11.102  10.080   0.286  0.2051 -0.3444 -0.1604
59495W        W 2511   9.838  21.330  12.291 -0.0721 -0.1080 -0.5044
59496W        W 2512   3.694  26.986  16.223 -0.0622  0.0421  0.1782
59497W        W 2513  28.532  22.100   9.737  0.2625 -0.0981  0.0640
59498W        W 2514  11.513   5.797   6.700  0.0275 -0.0403 -0.0119
59499W        W 2515  12.974  16.280  24.828  0.1002 -0.1440 -0.1855
59500W        W 2516  30.573  14.316  20.997 -0.4845  0.1246  0.2042
59501W        W 2517   8.150  10.867  22.612 -0.0021  0.0628 -0.1204
59502W        W 2518  15.541  14.855   6.510 -0.1481 -0.1418  0.0068
59503W        W 2519   8.151  18.119  28.980 -0.0487  0.2997 -0.3179
59504W        W 2520  18.301  10.262  27.463 -0.1858 -0.2053 -0.0027
59505W        W 2521  17.737  16.926  24.779 -0.2605  0.0020  0.0297
59506W        W 2522  17.625  20.936   4.307  0.0004 -0.1116 -0.0905
59507W        W 2523   6.846  15.423  29.306  0.0577  0.0787 -0.0232
59508W        W 2524   6.900  10.812   9.014  0.0623  0.0536 -0.1153
59509W        W 2525   1.818  10.788  24.917 -0.0045  0.0375  0.2345
59510W        W 2526  12.886  18.145  25.775 -0.3205 -0.2169  0.1545
59511W        W 2527  20.422  26.588  16.853  0.0738 -0.1593 -0.0522
59512W        W 2528  17.687  22.028   2.738  0.4912 -0.0839  0.0816
59513W        W 2529  13.752  10.205  23.523 -0.0673 -0.1997 -0.1960
59514W        W 2530  16.515  16.529   2.358 -0.0846 -0.0920  0.0646
59515W        W 2531  34.595  24.874   9.874  0.0646  0.0181 -0.1260
59516W        W 2532   1.507  29.555   0.635  0.1614 -0.2713  0.4834
59517W        W 2533  10.317  14.848  17.132  0.2645 -0.2956  0.2543
59518W        W 2534   8.288  14.755  22.861 -0.0884  0.2219 -0.1378
59519W        W 2535  31.106  25.568  15.426 -0.2434 -0.1308  0.0469
59520W        W 2536  12.407  11.504   6.395  0.4882 -0.2216  0.1673
59521W        W 2537  14.427  12.120  29.240 -0.2276  0.0370 -0.0857
59522W        W 2538  29.296   6.106   0.246  0.0823 -0.0622 -0.2171
59523W        W 2539   6.316  18.182  16.217  0.0552 -0.1098 -0.0433
59524W        W 2540   8.940  17.851   7.087  0.0149 -0.0513  0.1060
59525W        W 2541  30.969  15.591  24.821  0.1597  0.1723 -0.0308
59526W        W 2542   8.222  28.569   1.297 -0.0627 -0.2149 -0.1151
59527W        W 2543   3.979  31.665   7.983  0.0004  0.3015  0.1042
59528W        W 2544  15.234  24.135  28.288 -0.0335 -0.1400 -0.0682
59529W        W 2545  23.297  10.278   4.425 -0.1160  0.0313 -0.1489
59530W        W 2546  10.733   2.793  27.310 -0.6258 -0.1316 -0.3017
59531W        W 2547  18.048  17.551   5.331  0.0138 -0.0866 -0.2350
59532W        W 2548  25.327  22.570  19.919  0.0131  0.1527 -0.2900
59533W        W 2549   9.252   6.847   9.218  0.1128 -0.0313  0.1301
59534W        W 2550  24.371  28.709   1.771  0.2324 -0.0585 -0.1608
59535W        W 2551  24.113  30.428   8.930 -0.2467 -0.0145  0.1897
59536W        W 2552  22.509   6.365  27.380 -0.2824  0.1101  0.3447
59537W        W 2553  16.404  15.247  26.310  0.1132 -0.0249  0.0840
59538W        W 2554   3.280   4.191  22.354  0.0582  0.2744 -0.1533
59539W        W 2555   2.610   1.157  10.632 -0.1884 -0.2485  0.2047
59540W        W 2556  20.837  33.073  21.369  0.0236 -0.0917 -0.1389
59541W        W 2557  27.454  10.142  28.541 -0.0732 -0.1817  0.0636
59542W        W 2558   9.839  18.096  16.317  0.0508  0.0834  0.1253
59543W        W 2559  34.617  26.619   0.469  0.0732  0.4297 -0.2228
59544W        W 2560  17.502  16.820   0.663 -0.0148  0.1053 -0.0341
59545W        W 2561  23.396  25.735   2.177  0.0770  0.2814 -0.2662
59546W        W 2562  12.979  24.616  22.541 -0.3975 -0.0152  0.0800
59547W        W 2563   4.353  22.843   9.997 -0.0459 -0.0446 -0.0722
59548W        W 2564  17.577  20.438  29.251  0.0088 -0.1623  0.2669
59549W        W 2565  29.104   4.914   5.049 -0.1335  0.0554  0.0001
59550W        W 2566  12.230  31.296  28.498 -0.0732 -0.0180 -0.1995
59551W        W 2567  14.666  18.844  18.800  0.0566 -0.1743 -0.1073
59552W        W 2568   4.038  26.822   6.484  0.0487  0.2331  0.0567
59553W        W 2569  34.495  27.348  24.614 -0.0034 -0.0545  0.0171
59554W        W 2570  23.364  13.805  17.149 -0.1183  0.0698 -0.3388
59555W        W 2571   2.980  22.628  19.678 -0.2905  0.0740  0.1550
59556W        W 2572  22.156  19.845   0.048 -0.0953  0.0821 -0.2231
59557W        W 2573   1.094   0.379   3.034  0.0485 -0.2230  0.0603
59558W        W 2574   9.059   7.366   1.604 -0.0519  0.1407 -0.0048
59559W        W 2575   0.195  18.450  18.239  0.2888  0.0561  0.0592
59560W        W 2576  31.901  20.636  28.058  0.1058  0.2738  0.2837
59561W        W 2577  12.459  14.566   8.332 -0.1872 -0.0402 -0.1551
59562W        W 2578  20.127  14.384   4.849 -0.1142 -0.0634 -0.0220
59563W        W 2579   6.772   7.321  28.136  0.2367 -0.0340  0.0259
59564W        W 2580  23.628  18.791   1.987 -0.0994 -0.0476 -0.1115
59565W        W 2581  32.965   0.883  21.087  0.3040  0.5627  0.0973
59566W        W 2582  11.721  29.431  17.351  0.2504 -0.1061 -0.2121
59567W        W 2583   3.892  13.122  18.620  0.0808 -0.2566 -0.0792
59568W        W 2584   0.616  17.780   3.983  0.0450 -0.0099  0.0285
59569W        W 2585  21.226  31.421   3.283 -0.0200 -0.0384 -0.0141
59570W        W 2586  14.620  10.774  23.560  0.0441 -0.0544  0.0515
59571W        W 2587  12.544  24.958   2.426 -0.0545  0.3205  0.0845
59572W        W 2588   6.162  23.012  20.459 -0.1590 -0.2722  0.0040
59573W        W 2589  19.000  12.251   6.786 -0.1997 -0.1944  0.0421
59574W        W 2590  33.556  16.183  15.909 -0.0135 -0.1885 -0.3103
59575W        W 2591  16.342   3.782  23.381  0.2181 -0.2967  0.2060
59576W        W 2592  16.103  18.418  23.702 -0.0881 -0.2699  0.0740
59577W        W 2593   8.463  13.280   0.685  0.1007  0.0055 -0.1879
59578W        W 2594  14.949  10.312   2.460 -0.0127  0.1216 -0.2770
59579W        W 2595   7.019   9.581  23.960 -0.0111 -0.2416 -0.0927
59580W        W 2596  14.317  19.555   5.956 -0.0460 -0.2296 -0.2349
59581W        W 2597  18.118   7.216  23.552 -0.0645 -0.3011  0.0508
59582W        W 2598  33.475  12.446   8.368 -0.2640  0.1411 -0.0543
59583W        W 2599  15.643  27.207  25.110  0.3543 -0.0217  0.0633
59584W        W 2600  10.472  18.290  21.159  0.0562  0.2530 -0.0384
59585W        W 2601  13.281   4.574  17.887 -0.2296  0.1681  0.0430
59586W        W 2602  16.937   7.230   2.205 -0.2095 -0.0275  0.0696
59587W        W 2603  21.606   7.329   6.729 -0.1048  0.0186  0.1063
59588W        W 2604   8.005  10.060   0.298 -0.0815 -0.1652  0.0847
59589W        W 2605  27.060  13.847   4.297 -0.0631 -0.2337  0.2107
59590W        W 2606  32.791  14.106   7.079 -0.0867 -0.0319  0.0417
59591W        W 2607  18.641  10.672  21.661  0.0757 -0.0355  0.2702
59592W        W 2608  14.072  32.611   4.012  0.0898 -0.0785  0.2605
59593W        W 2609  30.221   7.241   6.324 -0.0357  0.1811 -0.1445
59594W        W 2610   7.510  19.871  17.666  0.1529  0.0572 -0.2568
59595W        W 2611   0.648  16.924  16.864  0.0141 -0.1613  0.0468
59596W        W 2612  16.097  15.196  21.510 -0.2481 -0.0075  0.1337
59597W        W 2613  11.426   6.793   9.171 -0.1522 -0.2472  0.1037
59598W        W 2614  33.701  17.690   8.361 -0.1070 -0.0673  0.0710
59599W        W 2615  26.008  26.357  16.007  0.0934  0.2096  0.0877
59600W        W 2616  22.579  10.413  22.534  0.0937  0.0963  0.2989
59601W        W 2617  21.641  19.977   8.777  0.0367 -0.0016  0.0530
59602W        W 2618   4.886  22.025   0.180 -0.1790  0.2170 -0.2220
59603W        W 2619   3.801   1.575   4.189  0.1513 -0.2962 -0.2558
59604W        W 2620   7.897   2.876   8.823  0.1627 -0.3533  0.2916
59605W        W 2621  21.690  20.932  23.263  0.0287 -0.3281  0.2363
59606W        W 2622  20.683  29.594   2.040 -0.1200  0.1194  0.0046
59607W        W 2623  24.722  26.741  24.688 -0.1548 -0.2303 -0.0268
59608W        W 2624   9.240  23.416  27.336 -0.1553 -0.1187 -0.1603
59609W        W 2625  15.190  31.132  24.776 -0.1109 -0.2464  0.2112
59610W        W 2626   7.658  15.558   8.536  0.2760 -0.2118  0.1770
59611W        W 2627   3.857  21.763   6.397 -0.1285 -0.0662  0.1229
59612W        W 2628  20.268  31.275   2.440 -0.0725 -0.1097 -0.2533
59613W        W 2629   8.572   5.387   1.367  0.0113  0.0410 -0.1309
59614W        W 2630  11.852  34.224  16.909 -0.2235  0.0254  0.4526
59615W        W 2631  25.238  18.925  23.451 -0.0565  0.2122 -0.4113
59616W        W 2632   1.091  15.255   9.434 -0.0477  0.1090  0.1297
59617W        W 2633  12.346  24.907  18.121  0.0552  0.0538  0.2159
59618W        W 2634  33.397  18.498  23.255 -0.6004 -0.1314  0.2084
59619W        W 2635   7.333   2.690  18.655 -0.3229 -0.1471  0.0350
59620W        W 2636  12.901  26.250  14.653 -0.2774 -0.0749 -0.0082
59621W        W 2637  10.911  28.559  19.320 -0.1728 -0.1135  0.2958
59622W        W 2638   2.428  31.410  21.931  0.3929 -0.3544  0.3157
59623W        W 2639   9.670  24.094   7.645  0.1474 -0.0243 -0.0732
59624W        W 2640  12.910  18.756   7.013  0.1884 -0.0265 -0.0480
59625W        W 2641   6.414  17.660   3.025  0.1241 -0.1745  0.3188
59626W        W 2642  30.008  22.315  23.139  0.0024 -0.0328 -0.1379
59627W        W 2643   3.939  21.637  18.591  0.3566 -0.3039  0.2624
59628W        W 2644  22.975  12.021  23.059 -0.2086 -0.1342 -0.0386
59629W        W 2645  21.082  30.140  16.041  0.1619 -0.0864 -0.2001
59630W        W 2646   8.593  11.197   2.423  0.0686  0.0689 -0.0169
59631W        W 2647  11.414  22.669   0.781 -0.0123 -0.1734 -0.0155
59632W        W 2648  15.759   8.528   6.737  0.1388  0.0319 -0.2298
59633W        W 2649  32.838  13.317  10.120 -0.0926 -0.2763 -0.2164
59634W        W 2650  17.967  15.152  26.057  0.2846  0.1076  0.1435
59635W        W 2651  20.214   3.169  19.473 -0.0144  0.3355 -0.0225
59636W        W 2652  20.369  23.605  24.526  0.1066 -0.0979 -0.1250
59637W        W 2653  32.429  23.275   5.093  0.2808 -0.1823 -0.0979
59638W        W 2654  26.367  22.901  10.792 -0.1621  0.1997 -0.0889
59639W        W 2655  11.801  17.313  27.358  0.0553 -0.0538  0.1082
59640W        W 2656   7.188  12.930   5.609 -0.1212 -0.3656  0.0329
59641W        W 2657   5.898   1.443   7.195 -0.1012 -0.1304 -0.0229
59642W        W 2658  18.645  20.265  27.801 -0.1445  0.4171  0.0481
59643W        W 2659  16.445  14.430   7.058  0.0774  0.0467 -0.1544
59644W        W 2660   8.270   8.133  16.301 -0.0440 -0.1958  0.0436
59645W        W 2661  12.239  16.700   1.086  0.1482 -0.0501  0.0719
59646W        W 2662   6.726  29.299  25.859  0.0744  0.0490  0.0353
59647W        W 2663  14.890   6.679   4.215  0.1904 -0.2361 -0.4025
59648W        W 2664   2.112  12.186   5.724 -0.3607  0.0160  0.3032
59649W        W 2665  29.721  20.987   8.994  0.2924 -0.1971  0.0027
59650W        W 2666   6.608  25.343  17.602  0.2035 -0.2735 -0.1208
59651W        W 2667  10.140  19.190  23.852 -0.1366 -0.1843 -0.0866
59652W        W 2668  18.697  17.427  19.122 -0.1018  0.3547 -0.3638
59653W        W 2669   4.262  11.949   2.958 -0.0875  0.0909 -0.2792
59654W        W 2670  10.048  23.311  14.985  0.2537 -0.2163  0.0672
59655W        W 2671  20.934  28.037   7.372  0.2874 -0.0666  0.3167
59656W        W 2672  22.226  23.017   7.969  0.0502 -0.1088 -0.2116
59657W        W 2673  16.351   5.966  15.053  0.2812  0.3984  0.1451
59658W        W 2674  15.146   9.025   2.107  0.1032 -0.1458 -0.0853
59659W        W 2675  31.666   3.391   8.320 -0.0144 -0.2252 -0.2871
59660W        W 2676  14.934  10.900   1.999 -0.2479 -0.3016  0.0383
59661W        W 2677   1.530  21.950   6.038  0.2661  0.0532 -0.1983
59662W        W 2678  12.105   6.540   6.572 -0.0581  0.0176 -0.1197
59663W        W 2679   7.993  24.963  20.300 -0.1889 -0.4136  0.1602
59664W        W 2680  27.315  16.044   4.064 -0.3862 -0.0061 -0.0837
59665W        W 2681  30.341  18.925   7.438 -0.0922  0.2812 -0.1687
59666W        W 2682   4.652  13.803  27.157 -0.3245  0.2954 -0.0579
59667W        W 2683  26.385  19.350   5.145 -0.3258  0.0588  0.3251
59668W        W 2684   5.259  23.748  13.517  0.3211 -0.0454 -0.3320
59669W        W 2685  34.212   9.812  24.999 -0.0984 -0.0945 -0.0883
59670W        W 2686  33.545  24.360   9.863 -0.0889  0.0252  0.2073
59671W        W 2687  10.111  11.086   0.184  0.0296 -0.3122 -0.0031
59672W        W 2688  11.988   4.857   8.215 -0.1450  0.3202 -0.2083
59673W        W 2689  10.858  29.787  23.589  0.0736  0.1695  0.0564
59674W        W 2690  13.954  20.062  26.133  0.0184 -0.1671 -0.2293
59675W        W 2691  20.127   6.343  22.233 -0.0994  0.0230 -0.1438
59676W        W 2692  17.510  11.388  16.765  0.2529 -0.2045 -0.0155
59677W        W 2693  14.672   5.545   3.443  0.1962  0.2515 -0.1160
59678W        W 2694  18.318  12.565  22.847  0.2563  0.7694 -0.2056
59679W        W 2695   9.044  14.749  28.815 -0.1181  0.0549 -0.3294
59680W        W 2696  17.957  21.952   3.905 -0.2300  0.1131  0.1812
59681W        W 2697  31.512  21.415   7.570 -0.1444  0.6049 -0.0752
59682W        W 2698   6.929  19.861  12.374 -0.2234  0.1074 -0.1280
59683W        W 2699  15.586  32.351   8.570 -0.5856  0.1262  0.0055
59684W        W 2700  18.237   8.835  27.082  0.1588  0.0130  0.0745
59685W        W 2701  28.165  29.789  26.768  0.3956  0.2613 -0.2059
59686W        W 2702  34.297   9.773  10.301  0.0628 -0.1010 -0.0877
59687W        W 2703   0.399  18.463   7.927 -0.1917 -0.1196  0.0549
59688W        W 2704   5.642   1.294  16.586  0.0201  0.2608 -0.0848
59689W        W 2705  16.189   8.476   3.505 -0.1381 -0.2363 -0.2709
59690W        W 2706   1.026   1.384  10.122 -0.2175 -0.0467  0.1880
59691W        W 2707   5.110  12.627   6.127 -0.0072  0.0669  0.1578
59692W        W 2708   8.770  25.894   6.175  0.0760  0.0649 -0.2808
59693W        W 2709   4.954  22.971   6.303 -0.0776 -0.0997 -0.1234
59694W        W 2710  17.860  29.375  25.330  0.2687 -0.0316  0.1037
59695W        W 2711  19.946  11.231  29.241 -0.2583 -0.0458  0.1298
59696W        W 2712   3.307  19.362   2.884 -0.1805 -0.1999 -0.0381
59697W        W 2713  25.066  14.395   5.168 -0.2587 -0.0625 -0.1764
59698W        W 2714  34.373  17.899  25.539  0.0271  0.1001 -0.5705
59699W        W 2715  20.068  25.129  20.805  0.2781 -0.1692  0.2574
59700W        W 2716  10.329  18.809   1.855 -0.1686  0.0742  0.1750
59701W        W 2717  10.415  15.081   0.622  0.2215 -0.0016  0.0480
59702W        W 2718  13.071  28.534  25.667 -0.0300 -0.0504 -0.0011
59703W        W 2719  15.484  31.126   9.732  0.0814  0.0560  0.3016
59704W        W 2720  17.927   2.724   0.306  0.0907  0.1195  0.1732
59705W        W 2721   5.268   9.205   1.149 -0.2273  0.2792  0.0515
59706W        W 2722  22.669  19.379  17.714  0.0315  0.0115  0.0524
59707W        W 2723  18.197  17.448  24.044 -0.0934  0.0044 -0.1031
59708W        W 2724   3.475   1.052  24.458  0.0348  0.0204 -0.1101
59709W        W 2725  26.555  10.692   5.243 -0.1020  0.1061 -0.4329
59710W        W 2726   7.817  19.983  20.543  0.0565  0.1130 -0.3021
59711W        W 2727  28.728  25.126  26.287  0.2511 -0.1863  0.1455
59712W        W 2728  14.495  24.731   6.087  0.2569  0.0323  0.1569
59713W        W 2729  19.038  27.241  27.745  0.1977 -0.2995 -0.0751
59714W        W 2730  10.251  32.955   5.693  0.0467  0.0452  0.0031
59715W        W 2731  11.810  23.519  23.206  0.1960  0.1586  0.2698
59716W        W 2732  19.788   3.940  22.952  0.2756 -0.0231 -0.1923
59717W        W 2733  12.989  25.059  24.385  0.0323 -0.1867  0.0987
59718W        W 2734   7.366  22.325  28.371  0.0269 -0.1967 -0.1820
59719W        W 2735   6.350   7.098  20.859  0.1261  0.0519 -0.0775
59720W        W 2736   9.496  17.264   7.211  0.0472 -0.0244 -0.2918
59721W        W 2737  11.154  21.973   6.301  0.0434  0.1412 -0.0953
59722W        W 2738   1.844  16.954  25.321 -0.0720 -0.0057  0.5004
59723W        W 2739  28.963  26.658   8.237 -0.0400  0.1722  0.1217
59724W        W 2740   7.586  17.327   0.926  0.0943  0.0409  0.4818
59725W        W 2741  11.160   9.760  20.745 -0.5152 -0.0086  0.0399
59726W        W 2742  11.260  28.058   6.623  0.1110 -0.0853  0.1471
59727W        W 2743  12.445  14.481  23.176  0.0135 -0.1137 -0.2324
59728W        W 2744   6.688  31.603   0.010 -0.0609 -0.1788  0.0197
59729W        W 2745   9.481  14.292   6.465  0.0975  0.3035  0.2168
59730W        W 2746  29.262   3.677   5.670  0.3463 -0.1408 -0.0131
59731W        W 2747  12.723   6.284  20.540 -0.2232 -0.1843 -0.1902
59732W        W 2748  15.930  23.463   5.273  0.3377 -0.1950  0.1102
59733W        W 2749  31.008  12.047   3.386 -0.1931  0.0067 -0.2880
59734W        W 2750  12.916  19.665   7.534 -0.0172  0.1916 -0.1888
59735W        W 2751  11.152  20.980   9.025  0.5719 -0.1125 -0.0367
59736W        W 2752   3.480  27.352   1.995 -0.2487  0.1301  0.2367
59737W        W 2753  14.766  19.639  20.889 -0.2459  0.0756  0.1206
59738W        W 2754  12.709  11.162   7.818  0.2699  0.1940  0.0432
59739W        W 2755   6.406   8.997  28.316  0.0690  0.1726 -0.1212
59740W        W 2756   1.856  24.824   5.880 -0.0406 -0.2551  0.2994
59741W        W 2757   4.252  13.309  28.222  0.1355 -0.0599  0.0735
59742W        W 2758  25.251  25.945   1.217 -0.0735 -0.1399  0.1704
59743W        W 2759  10.470   8.093   4.692 -0.1140 -0.1365 -0.1135
59744W        W 2760   2.378  17.128   5.309  0.0357 -0.0747  0.1499
59745W        W 2761   9.184  14.877  29.263  0.1671 -0.2730  0.1045
59746W        W 2762  16.389  21.390  26.660  0.0084  0.0672  0.1792
59747W        W 2763  20.672   3.442  26.952  0.0238 -0.3011  0.0425
59748W        W 2764   8.747  26.872  16.967  0.1111  0.4042  0.1559
59749W        W 2765  28.505  16.334  14.004 -0.1045  0.0410 -0.3063
59750W        W 2766   9.371   4.687   5.034 -0.0947  0.0762  0.0007
59751W        W 2767  29.444  11.593   9.421 -0.1822  0.0751  0.1155
59752W        W 2768   2.282  27.467   1.845 -0.3638  0.0161  0.1634
59753W        W 2769  10.056  21.048  22.350  0.0790 -0.3152 -0.0812
59754W        W 2770   1.815  24.050  16.623  0.4826  0.0654  0.0520
59755W        W 2771  19.639  13.962   3.203 -0.1378  0.1896  0.3428
59756W        W 2772   0.977   7.904  27.607 -0.1269 -0.2078  0.0261
59757W        W 2773  15.963  18.987  22.109  0.2220  0.0836  0.3098
59758W        W 2774  28.025   2.798   0.080  0.1052  0.1052 -0.0982
59759W        W 2775   0.302  19.445  21.064  0.0801  0.2804  0.0622
59760W        W 2776  24.787  25.933  18.773  0.0975  0.0202  0.2440
59761W        W 2777   9.779  14.259   7.660 -0.1084  0.2988 -0.1545
59762W        W 2778   9.093  21.682   6.471 -0.0556  0.0565 -0.1316
59763W        W 2779   0.980  21.439   3.533  0.1850  0.1995  0.2648
59764W        W 2780   7.102  19.612  17.517 -0.1080 -0.1938  0.1073
59765W        W 2781   1.843  24.763   1.146  0.0524  0.1396  0.2628
59766W        W 2782  25.035  29.225   7.308 -0.1918 -0.1651 -0.2934
59767W        W 2783   9.026  23.475  23.579  0.1069  0.0925  0.1488
59768W        W 2784   9.603  25.404   7.567 -0.0900 -0.0904 -0.3224
59769W        W 2785  18.230  29.993  26.503 -0.3171  0.1663  0.2031
59770W        W 2786  31.010   9.840  19.013 -0.0036 -0.1229 -0.1973
59771W        W 2787  34.052  27.480  17.561  0.0392  0.0157 -0.2848
59772W        W 2788  22.707  27.401  10.853 -0.0254  0.3472  0.1866
59773W        W 2789   2.798  28.533   9.452 -0.0890  0.2494  0.0299
59774W        W 2790   4.049   5.927  22.177 -0.2733  0.1187  0.0184
59775W        W 2791   7.624  11.018   3.276 -0.2666 -0.1518  0.1230
59776W        W 2792  11.445  33.002   2.976  0.4993 -0.0630 -0.4104
59777W        W 2793  10.756  24.416  28.847 -0.2032 -0.1336 -0.3357
59778W        W 2794   8.925  14.757  24.227 -0.2662  0.1865 -0.1292
59779W        W 2795   9.135  11.335   6.951  0.0820  0.2859 -0.1947
59780W        W 2796  11.940  28.030  28.583 -0.1941 -0.1588  0.1237
59781W        W 2797   9.294   8.712  25.928 -0.0757  0.0308 -0.0201
59782W        W 2798  19.248  19.607  16.376  0.0734  0.0828  0.0744
59783W        W 2799  25.551  19.260  27.640  0.2402  0.0016  0.1807
59784W        W 2800  23.730   8.026  19.325 -0.0073  0.3436 -0.3900
59785W        W 2801   4.268   0.787   6.707 -0.0139 -0.1539  0.1001
59786W        W 2802  19.064   6.773  26.836  0.2309  0.0349 -0.2084
59787W        W 2803  12.799  20.104   4.336 -0.1131  0.1747 -0.0447
59788W        W 2804   0.713  16.105   6.098 -0.0691  0.1933  0.0117
59789W        W 2805   6.053  14.444   3.347  0.0507  0.0686  0.0696
59790W        W 2806   8.141  11.376  24.716  0.0927 -0.1322  0.2942
59791W        W 2807   1.330  24.024   2.622 -0.0736  0.1014 -0.3758
59792W        W 2808   3.362   0.367   9.063 -0.2216  0.0913 -0.1161
59793W        W 2809  16.963  15.335  20.397 -0.2395  0.0508 -0.0535
59794W        W 2810  26.784   0.998  24.321  0.4695 -0.0729 -0.3155
59795W        W 2811  21.895  13.198  24.729  0.1386 -0.0167  0.0707
59796W        W 2812  12.607  20.619  18.060 -0.0125  0.0883 -0.1097
59797W        W 2813  23.070  29.720  10.874 -0.1729  0.1033 -0.3718
59798W        W 2814   8.641   1.267  17.253  0.0017 -0.0272  0.2776
59799W        W 2815  28.587  11.572   2.137 -0.0262  0.2159 -0.0711
59800W        W 2816  32.301  14.720   4.841 -0.0514  0.0551  0.0628
59801W        W 2817  16.222   9.070  26.249  0.1760  0.1920  0.1165
59802W        W 2818  15.949  27.933  20.273 -0.0618 -0.0841 -0.4340
59803W        W 2819  21.809  33.281   6.806 -0.2894  0.1861 -0.1806
59804W        W 2820  26.231  22.265  20.009 -0.0222 -0.0371 -0.3394
59805W        W 2821  10.442  17.837  22.197  0.0749  0.2853  0.1781
59806W        W 2822  29.591  16.078  20.826 -0.3978 -0.1820  0.0539
59807W        W 2823  11.257  19.598  17.866 -0.2668 -0.2111 -0.0646
59808W        W 2824   2.611   4.402  10.171 -0.1086 -0.1688 -0.0247
59809W        W 2825   9.050   3.045   3.271  0.2714  0.3324 -0.2273
59810W        W 2826  28.977  12.531  24.796 -0.0048 -0.0832 -0.2271
59811W        W 2827   3.568  13.321   6.585  0.0113  0.1111 -0.2179
59812W        W 2828  20.002  28.589   5.832 -0.3134  0.1654  0.3193
59813W        W 2829  19.785  12.385   2.875 -0.2930  0.0486  0.1860
59814W        W 2830  11.079  28.514  27.859  0.0184  0.1566  0.2881
59815W        W 2831  10.873  15.122  28.845 -0.0125  0.1556  0.0497
59816W        W 2832  14.819  22.066   1.931 -0.2387 -0.1292  0.4214
59817W        W 2833  22.652  16.902  21.117 -0.0307  0.1899 -0.0208
59818W        W 2834  30.634  24.879  18.805 -0.1719  0.2400  0.0202
59819W        W 2835   0.598  27.102   5.657  0.3107 -0.0912 -0.0233
59820W        W 2836  13.471  13.809  25.250 -0.1656  0.3217  0.0124
59821W        W 2837   7.708   8.215   4.087  0.0019 -0.2044  0.0600
59822W        W 2838  13.016  19.162  13.586 -0.1977  0.2064  0.3760
59823W        W 2839  11.817  10.165  20.041 -0.0146  0.0480  0.2742
59824W        W 2840  27.878  19.332   0.397 -0.1130  0.0253 -0.0809
59825W        W 2841  15.300  20.188   7.480  0.0369 -0.6316  0.4514
59826W        W 2842  13.417  19.406  26.115 -0.0501 -0.2203  0.0655
59827W        W 2843  13.464  10.748  22.530 -0.2823  0.0612  0.0105
59828W        W 2844  18.644  12.946  24.162 -0.2450 -0.5487  0.1857
59829W        W 2845  16.775  22.401   1.513  0.1023 -0.0842 -0.1137
59830W        W 2846   8.005  11.497   8.874  0.2224 -0.0365  0.3819
59831W        W 2847   0.106  17.229   3.059  0.3953  0.1527 -0.2744
59832W        W 2848  15.359  25.110  29.245 -0.3775 -0.2279  0.1114
59833W        W 2849  14.581  21.982   7.534 -0.0182 -0.3059  0.2625
59834W        W 2850   1.151  15.442  10.034 -0.1511  0.0124  0.0941
59835W        W 2851  23.238  25.758  10.966 -0.0403 -0.3279  0.0319
59836W        W 2852  16.518  19.708  29.085 -0.1824 -0.1421 -0.1436
59837W        W 2853  11.610  23.691  22.708 -0.1289 -0.0063 -0.0891
59838W        W 2854  20.679  21.977   8.625 -0.0549 -0.2265 -0.0846
59839W        W 2855  17.316  15.495   4.651  0.2136  0.2066 -0.0502
59840W        W 2856  23.610  14.255   6.415 -0.2383 -0.2006  0.0433
59841W        W 2857  28.910   7.950   6.668 -0.5870 -0.0975  0.0853
59842W        W 2858   4.135  17.154   3.312  0.1059  0.0643  0.2014
59843W        W 2859   5.756  18.052   2.247 -0.0383  0.1610 -0.2833
59844W        W 2860  17.605  16.581   3.161  0.1673  0.1422  0.3300
59845W        W 2861  16.559  11.144   8.567 -0.0372 -0.0798 -0.0799
59846W        W 2862  25.576  12.825  16.661 -0.1180  0.0512 -0.0697
59847W        W 2863  19.481  17.168  13.759 -0.0912  0.1080  0.2715
59848W        W 2864  32.969   2.458  28.489  0.1075  0.2732  0.1336
59849W        W 2865   8.426  29.871   7.182  0.1272  0.2425 -0.0378
59850W        W 2866   4.568   1.016   2.638  0.3836  0.3836  0.0255
59851W        W 2867   6.929  20.822  22.754  0.1154  0.0935 -0.3474
59852W        W 2868  15.857  16.682   5.214  0.0911  0.2901  0.1278
59853W        W 2869  33.537   6.759  21.723 -0.1914  0.0363 -0.1283
59854W        W 2870   8.653   4.723   6.824  0.0926 -0.0347 -0.0863
59855W        W 2871  32.776  23.571  25.130  0.0309 -0.0430 -0.0365
59856W        W 2872  12.502  31.864  27.371 -0.0362  0.2633  0.0468
59857W        W 2873  11.215  18.243  14.257 -0.1248  0.0052  0.0947
59858W        W 2874  17.010  16.250   4.950 -0.0023  0.2342  0.1314
59859W        W 2875   1.251  20.875   3.120  0.2116 -0.0790  0.3084
59860W        W 2876   6.492   5.810   5.449 -0.0786  0.1780 -0.0504
59861W        W 2877  29.814  20.400   0.254  0.1799 -0.0804 -0.1611
59862W        W 2878  12.553  28.787   7.580 -0.0518 -0.1543 -0.0689
59863W        W 2879   8.037  20.750   3.031 -0.0274  0.0463 -0.1237
59864W        W 2880  30.006  20.202   8.456 -0.1808  0.4866  0.1053
59865W        W 2881  24.844  26.189   1.805  0.0313 -0.0978  0.1708
59866W        W 2882  18.597   5.539   9.781  0.0413  0.0703 -0.0634
59867W        W 2883  24.835  29.254  25.059 -0.0467  0.0881 -0.0044
59868W        W 2884   5.537  25.616   7.298  0.1364  0.0039 -0.0841
59869W        W 2885   6.620  11.526   5.207  0.0136 -0.1957 -0.2505
59870W        W 2886  24.960  10.582   9.431 -0.1758 -0.0204  0.4712
59871W        W 2887  15.155  14.824  22.276  0.3262  0.2002 -0.2441
59872W        W 2888   3.206  11.251  24.793 -0.1565 -0.0160  0.2757
59873W        W 2889  17.653   5.821  10.341 -0.0893  0.2680 -0.1079
59874W        W 2890  33.691  11.545   0.067 -0.2608  0.1829 -0.3016
59875W        W 2891   5.138  30.513  19.511  0.1870 -0.1793  0.1856
59876W        W 2892  30.193   1.234  22.894  0.2931 -0.0450 -0.0742
59877W        W 2893  15.652  32.073  22.262 -0.0190 -0.1600  0.0376
59878W        W 2894  15.132  29.142  22.952 -0.1119 -0.1761 -0.0983
59879W        W 2895   0.141  32.684  17.199  0.0603  0.1767 -0.3254
59880W        W 2896  18.212  18.243  20.602 -0.1976 -0.1903 -0.0169
59881W        W 2897  17.669  28.949  25.662 -0.0187 -0.0810 -0.1497
59882W        W 2898  20.934  33.840   0.054  0.0811 -0.1890  0.0673
59883W        W 2899  30.616   8.284  27.913 -0.2148 -0.2312 -0.0182
59884W        W 2900  13.450  32.911  17.247  0.2813 -0.1482 -0.2002
59885W        W 2901  13.424   2.814   3.512 -0.0424 -0.1284 -0.1543
59886W        W 2902  18.492  18.162  12.388  0.0325  0.1062 -0.1443
59887W        W 2903  13.741   9.155  23.096  0.1399  0.0814  0.0756
59888W        W 2904  27.598  20.323  19.715  0.0913 -0.1471 -0.1997
59889W        W 2905  19.730   6.314  17.332  0.2717  0.2433 -0.0225
59890W        W 2906  15.475  23.818  19.594 -0.3625 -0.0826 -0.1738
59891W        W 2907  21.408  13.425   7.320 -0.1568  0.1449  0.2716
59892W        W 2908  23.036  27.539  20.601 -0.3167  0.1157 -0.1524
59893W        W 2909   2.449  14.362  14.269  0.2134 -0.1243 -0.2249
59894W        W 2910   0.411  29.656  23.249 -0.2868 -0.1079  0.0979
59895W        W 2911  17.730   0.044  25.154 -0.2271  0.0790  0.0385
59896W        W 2912  18.762  10.225  13.407  0.0564 -0.0889 -0.1571
59897W        W 2913  23.825  33.857  15.986  0.1794 -0.0033  0.0091
59898W        W 2914   5.973  30.070  20.780 -0.0498 -0.1887  0.1887
59899W        W 2915   8.326  30.269  17.726 -0.0645  0.0060  0.0808
59900W        W 2916  15.852  29.104  18.400 -0.0107  0.4139 -0.5465
59901W        W 2917  15.295  13.771  12.983  0.2329  0.1406  0.0646
59902W        W 2918  10.807  21.044   4.017  0.1207  0.0393 -0.1755
59903W        W 2919  33.929  17.047  20.075 -0.1098  0.0712 -0.3949
59904W        W 2920   5.802  17.719  17.683  0.3344  0.2075  0.3366
59905W        W 2921   6.986  12.063  15.296  0.0090 -0.0958  0.1849
59906W        W 2922  31.739  24.927  20.839 -0.1646 -0.1133 -0.1140
59907W        W 2923   5.256  20.364  19.065 -0.1472  0.0991 -0.0830
59908W        W 2924  13.276  33.432  15.646 -0.1826 -0.0739 -0.0184
59909W        W 2925  15.660   0.327  14.528  0.2928 -0.0097 -0.2304
59910W        W 2926  22.484  23.138  19.125  0.0053  0.3715  0.0931
59911W        W 2927  19.302  13.686  13.841  0.3537  0.0881  0.0614
59912W        W 2928   8.026  22.296  26.614  0.1210 -0.1672  0.1019
59913W        W 2929  27.507  34.496  19.404 -0.1199  0.2218 -0.0680
59914W        W 2930  21.324  30.242  20.912 -0.0359 -0.1000  0.2140
59915W        W 2931  21.235  29.975  21.945 -0.0770 -0.1805 -0.0495
59916W        W 2932  18.276   9.052  20.094 -0.3857 -0.1643 -0.3804
59917W        W 2933   3.374   9.957  22.530 -0.2430 -0.2604 -0.0574
59918W        W 2934  17.278   8.962   6.957  0.0249  0.0372  0.0198
59919W        W 2935  25.648  20.518  14.768 -0.1507  0.0928  0.0339
59920W        W 2936  23.491  23.930  23.271 -0.0714  0.1461  0.1448
59921W        W 2937   2.996  10.682  14.403  0.3043  0.1041  0.0722
59922W        W 2938   2.987  29.985  21.332  0.3536 -0.0341 -0.2557
59923W        W 2939   8.097  21.034  21.176 -0.4213  0.2401 -0.1804
59924W        W 2940   2.101  15.192  17.828  0.0251  0.1069 -0.0161
59925W        W 2941  18.930  26.877  16.336 -0.1687 -0.1574 -0.0204
59926W        W 2942  32.099  31.269  28.797  0.2183 -0.1089 -0.3704
59927W        W 2943  14.450  21.117  28.620  0.0683 -0.0451  0.0793
59928W        W 2944  15.381   6.810  22.178 -0.1212  0.0607 -0.0537
59929W        W 2945  12.371  18.229  13.952 -0.1271 -0.1158 -0.1272
59930W        W 2946   6.852   0.795  24.234  0.3628  0.2268  0.0973
59931W        W 2947  25.831  26.418  20.616  0.2785  0.2153  0.1555
59932W        W 2948   8.039  19.734  26.270 -0.2838 -0.2715 -0.1194
59933W        W 2949  20.425  10.029  16.278  0.3814 -0.4613 -0.2407
59934W        W 2950  10.813  21.568  18.599 -0.1595  0.0078  0.1350
59935W        W 2951   8.092  10.882  17.178  0.1979  0.2040 -0.1397
59936W        W 2952   9.514  25.227   3.351  0.1939 -0.0722 -0.0226
59937W        W 2953  16.192  13.244  14.944  0.1562 -0.2753 -0.0269
59938W        W 2954   5.957  21.528   2.666  0.0088 -0.2887 -0.3368
59939W        W 2955   5.018  15.622  16.816  0.0895  0.0986  0.1344
59940W        W 2956   9.230  24.703  27.777 -0.1968  0.0805 -0.0463
59941W        W 2957  21.679  19.391  17.085 -0.2778 -0.3652  0.0187
59942W        W 2958  15.618  18.095  12.311  0.0926  0.0531 -0.1268
59943W        W 2959  33.593   5.670  14.778 -0.0726 -0.1041 -0.0081
59944W        W 2960  25.114  15.028  16.125  0.1089 -0.0504  0.0584
59945W        W 2961  22.316  11.067  17.264  0.2673 -0.2978  0.1517
59946W        W 2962   9.863  11.095  17.697 -0.0354  0.1908  0.1930
59947W        W 2963  17.745  24.594  19.507 -0.2538  0.0851  0.1425
59948W        W 2964  11.298  23.175  25.474  0.1929 -0.1465 -0.2654
59949W        W 2965  24.034   8.994  17.320  0.1316 -0.1219  0.2419
59950W        W 2966  17.552  27.048  22.738  0.1157 -0.2183 -0.1437
59951W        W 2967  15.763  23.335  21.318 -0.2380 -0.0660 -0.0020
59952W        W 2968   3.249  19.417  14.224 -0.1723 -0.0389 -0.5333
59953W        W 2969  11.574   5.568   7.904 -0.0252  0.2278 -0.2228
59954W        W 2970  16.549  28.933  16.818 -0.0984 -0.0426 -0.0052
59955W        W 2971  13.173  17.066  13.747 -0.6150 -0.1122  0.0699
59956W        W 2972   7.641  32.519   5.144 -0.0769  0.2194 -0.0436
59957W        W 2973  12.628  20.459  13.750  0.0755 -0.0959 -0.1308
59958W        W 2974  26.135  24.167  19.491 -0.2498  0.0553 -0.0139
59959W        W 2975  11.860  17.782  28.772 -0.1946  0.2253 -0.1286
59960W        W 2976  12.344  14.681  15.219  0.2402  0.2246 -0.2481
59961W        W 2977  14.143  22.952  12.674  0.2100  0.0860 -0.0921
59962W        W 2978  21.303  26.088  17.808 -0.0442  0.0648  0.0332
59963W        W 2979   9.924   8.108  17.270 -0.0125  0.0245 -0.0990
59964W        W 2980  25.940  29.081  15.539  0.0161  0.1577 -0.1345
59965W        W 2981  11.161  25.943  21.599  0.1637 -0.3859  0.3694
59966W        W 2982   1.243  10.741  18.675  0.1380 -0.1209 -0.4923
59967W        W 2983   4.020  19.041  25.985 -0.3895  0.0374  0.0366
59968W        W 2984  14.602  29.239  22.606 -0.0857  0.0632 -0.2726
59969W        W 2985  31.790  13.623  28.662 -0.2988  0.1518 -0.1534
59970W        W 2986   9.101  12.980  20.172  0.0953  0.0747  0.0046
59971W        W 2987   8.624  17.424  18.335  0.1528  0.1504 -0.3233
59972W        W 2988  23.146   6.049  16.286 -0.1045 -0.1375 -0.2330
59973W        W 2989  25.033   5.639  16.611 -0.0698 -0.0089 -0.2958
59974W        W 2990  22.138  11.471  14.723 -0.1519 -0.1878 -0.3309
59975W        W 2991  13.382  20.695  25.879  0.0721 -0.1015 -0.1332
59976W        W 2992   6.901  18.990  16.610 -0.1758  0.1460  0.0079
59977W        W 2993  10.384  21.845   8.282 -0.1503  0.2108  0.1261
59978W        W 2994  22.745  13.305  20.089  0.1722  0.1448  0.0595
59979W        W 2995   7.363  28.247  25.299 -0.1458  0.1200 -0.0378
59980W        W 2996  28.065  16.609  17.745  0.1046  0.2319  0.1283
59981W        W 2997   4.278  22.174  25.640  0.0523  0.2317  0.1748
59982W        W 2998  10.093   9.655  20.939 -0.3058 -0.1809 -0.0438
59983W        W 2999  24.537  31.615  23.676  0.1329  0.0666 -0.1407
59984W        W 3000   6.941  27.515  20.577  0.1959 -0.0400 -0.1967
59985W        W 3001  21.145  33.648  20.166  0.0142  0.0783  0.0214
59986W        W 3002  15.124   3.244  24.519 -0.0612 -0.0634  0.1854
59987W        W 3003  12.838   5.161  24.708 -0.0366 -0.2074 -0.1370
59988W        W 3004   0.523  21.666  21.579  0.1489 -0.0494  0.4097
59989W        W 3005  16.827  25.895  23.293  0.1813  0.1413 -0.0021
59990W        W 3006  10.142  26.516  20.847  0.2840 -0.2165  0.2662
59991W        W 3007   0.944   3.187  19.234 -0.0685  0.3074 -0.2492
59992W        W 3008  18.179   2.522  14.857  0.0304  0.0073 -0.0967
59993W        W 3009   9.276  19.714  13.251  0.2360  0.2021 -0.3319
59994W        W 3010   9.837  25.623  24.872 -0.1052 -0.2359 -0.2864
59995W        W 3011  20.855  24.551  16.293 -0.3314 -0.4226 -0.0326
59996W        W 3012   9.612   5.651  23.535 -0.2399 -0.3102 -0.2148
59997W        W 3013   4.550  13.649   2.118 -0.0550  0.0776  0.2943
59998W        W 3014   1.569  26.128  17.828  0.2356 -0.1416  0.0814
59999W        W 3015   2.659  30.799   0.930 -0.0715 -0.1045  0.2268
60000W        W 3016   4.703  21.528  23.920  0.1886 -0.1087  0.2206
60001W        W 3017  16.308  33.802  18.078 -0.2141  0.2032  0.2768
60002W        W 3018  28.509   2.308  27.195 -0.0652 -0.0819 -0.1744
60003W        W 3019  23.244   7.151  21.226  0.0275  0.1449 -0.1297
60004W        W 3020  14.639  23.170  15.509 -0.0299  0.1058 -0.0491
60005W        W 3021  23.897  24.803  21.126  0.2769  0.1973 -0.1827
60006W        W 3022  14.523  24.300  19.115  0.0910  0.2492 -0.1722
60007W        W 3023  14.638  24.303  22.058  0.4101  0.1741  0.0773
60008W        W 3024  20.024  24.817  16.752  0.1347 -0.0805 -0.0778
60009W        W 3025  15.521  23.621  13.814 -0.0748  0.1760 -0.0380
60010W        W 3026  16.758   7.495  17.430 -0.2168 -0.0413 -0.1951
60011W        W 3027  14.994  18.752  22.819 -0.0231 -0.1049  0.3269
60012W        W 3028   2.951  23.587  24.197  0.0422  0.1104  0.0181
60013W        W 3029   6.669   7.235   1.394  0.1373 -0.1451  0.0294
60014W        W 3030  31.909  16.368  21.962  0.0152 -0.0151 -0.2505
60015W        W 3031   7.881   5.987  18.003 -0.1463  0.0665  0.0567
60016W        W 3032   4.099  31.248  19.388  0.4120 -0.1616  0.3834
60017W        W 3033   7.243  20.582  17.064 -0.2471 -0.2533  0.3077
60018W        W 3034  32.009  18.110  21.380 -0.1140  0.0455  0.0768
60019W        W 3035  10.750  13.648  15.054  0.0837 -0.1623  0.2578
60020W        W 3036  10.391  23.953   1.777 -0.1210  0.0357 -0.3136
60021W        W 3037  17.228  19.449  26.946  0.0819  0.1230 -0.3307
60022W        W 3038   6.421  22.302  14.903  0.1104  0.1560  0.1841
60023W        W 3039   9.117  33.174  21.420  0.0214 -0.2384 -0.3319
60024W        W 3040  27.369  21.514  22.353 -0.2605 -0.1115 -0.0429
60025W        W 3041  33.111  22.673  19.116 -0.3558 -0.1066  0.0334
60026W        W 3042  13.536   4.129  21.427 -0.2451 -0.1337  0.2465
60027W        W 3043  16.228  23.287  23.201  0.0455 -0.0976  0.0022
60028W        W 3044  30.901  31.798  20.310 -0.3476 -0.1487 -0.1129
60029W        W 3045  15.178  23.251  13.896 -0.1890  0.1114  0.4419
60030W        W 3046   9.739  26.172  21.168  0.2545  0.1079 -0.0373
60031W        W 3047  14.672  25.641  19.467 -0.2055 -0.0904 -0.0853
60032W        W 3048  32.891  32.163  27.911  0.2313 -0.1567  0.1416
60033W        W 3049   6.741  26.512  16.184  0.0584  0.1282  0.1484
60034W        W 3050   7.866  25.180  22.632  0.0267  0.0556 -0.0158
60035W        W 3051  11.427   6.734  24.844 -0.1950  0.0185  0.3099
60036W        W 3052  23.960  20.498  22.093  0.2904  0.2439  0.0846
60037W        W 3053   3.901  19.728  19.448 -0.2672  0.0248  0.0567
60038W        W 3054  13.679  27.354  17.324 -0.3213 -0.1592 -0.1736
60039W        W 3055   7.548  26.220  14.776 -0.4901  0.2110  0.2387
60040W        W 3056   0.830  10.799  19.938 -0.2165  0.2182 -0.1791
60041W        W 3057  20.124   8.734  19.103 -0.1288  0.1088  0.1157
60042W        W 3058  24.074  19.441  22.297 -0.3639  0.2117 -0.1546
60043W        W 3059   4.346  18.001  18.998 -0.0745  0.0721 -0.3288
60044W        W 3060  18.315  27.030  28.790  0.5331  0.1854 -0.1159
60045W        W 3061  19.147   1.483  20.335 -0.2338  0.2548  0.1843
60046W        W 3062  29.245   8.176   2.614 -0.2126  0.1883  0.2695
60047W        W 3063   9.348  18.588  28.747 -0.1535 -0.1288 -0.1666
60048W        W 3064  30.120   0.216  18.554 -0.0703  0.1222 -0.0275
60049W        W 3065   8.574  20.708  28.597 -0.2040 -0.0579  0.2628
60050W        W 3066  13.397   8.960  19.906  0.0823  0.0119  0.0774
60051W        W 3067   6.570  13.019  23.726  0.1817  0.1097  0.2188
60052W        W 3068  25.966   8.511  18.239  0.1614  0.1967 -0.0489
60053W        W 3069   9.192  22.764  25.375 -0.3007  0.2400 -0.1029
60054W        W 3070  19.155  17.136  12.265  0.3107  0.1887  0.1844
60055W        W 3071   1.865  18.061  14.938  0.4721  0.0732  0.1603
60056W        W 3072   3.176  22.595  19.188  0.1237  0.0578 -0.2881
60057W        W 3073  12.338  25.972  19.041  0.0562  0.1132  0.3958
60058W        W 3074  29.538  30.216  16.052 -0.3106 -0.3230  0.0015
60059W        W 3075   3.659  19.120  15.145  0.2500  0.0860  0.2555
60060W        W 3076  24.517   4.855  28.969 -0.1362 -0.1065  0.0345
60061W        W 3077   5.342  12.091  16.217 -0.0411  0.3002  0.1766
60062W        W 3078  10.728  25.642  20.004  0.0649 -0.2930  0.1068
60063W        W 3079  10.620  26.959  19.579 -0.2571 -0.2957 -0.2767
60064W        W 3080   7.695  26.667  20.866 -0.1690  0.2171 -0.0001
60065W        W 3081  24.603  29.488  15.796 -0.1709  0.1967  0.1822
60066W        W 3082  11.454  27.103  28.272 -0.0372  0.0829 -0.1787
60067W        W 3083  17.953  16.455  11.669  0.2794 -0.0329  0.2691
60068W        W 3084  19.091  33.314  28.597 -0.1224  0.3285  0.0180
60069W        W 3085  23.590  30.639  19.157  0.1547  0.0171  0.1501
60070W        W 3086   6.389   4.983  25.116  0.1114 -0.2341  0.1163
60071W        W 3087   5.661  13.948  24.232  0.3788  0.2015 -0.1628
60072W        W 3088  12.458  11.690  19.980 -0.1171  0.0798  0.1835
60073W        W 3089  31.566  23.494  16.369 -0.0501 -0.2724  0.4255
60074W        W 3090  12.862  15.990  16.849  0.2538  0.1173  0.3157
60075W        W 3091  17.814  23.489  28.398  0.0013  0.0891 -0.2002
60076W        W 3092   4.078  28.411  19.454 -0.1955 -0.0401 -0.2229
60077W        W 3093   9.091   5.944  18.107 -0.0219  0.0855 -0.0639
60078W        W 3094  30.589  30.125  17.678 -0.1106 -0.0955 -0.0023
60079W        W 3095  15.225  19.024  15.350  0.0376 -0.0684  0.2795
60080W        W 3096  25.252  34.026  22.451 -0.0713  0.1660  0.1384
60081W        W 3097  13.148  17.433  11.954  0.1854  0.0075  0.1898
60082W        W 3098   8.868  19.127  26.519 -0.0276  0.0354 -0.1835
60083W        W 3099   5.507   0.942   0.799 -0.1701  0.1702 -0.0179
60084W        W 3100  10.622   6.388  27.752 -0.1939  0.2583 -0.2683
60085W        W 3101  16.074  15.679   7.187 -0.4693  0.0212  0.1932
60086W        W 3102   6.004  17.793  29.006  0.1805 -0.1741  0.3646
60087W        W 3103  18.910  19.343  12.036  0.3793 -0.2832 -0.0283
60088W        W 3104  13.810  21.424  22.152 -0.3174  0.1473  0.2454
60089W        W 3105  34.136  33.902   2.412  0.1059 -0.1693 -0.0302
60090W        W 3106   4.273  14.491  19.372  0.1117  0.0604 -0.1473
60091W        W 3107  29.115  16.072  23.930  0.2927  0.0728  0.1023
60092W        W 3108  24.896   2.474  22.639 -0.1506  0.0919 -0.1027
60093W        W 3109  15.369  21.098  12.416  0.0539  0.1153  0.1099
60094W        W 3110  21.346  25.623  17.648 -0.2867 -0.0852  0.2386
60095W        W 3111  16.487  29.985  15.169  0.0772 -0.1466 -0.0691
60096W        W 3112  16.708   0.656  22.586 -0.2443  0.1372 -0.0494
60097W        W 3113  16.038  27.752  16.841 -0.1153  0.0775 -0.2676
60098W        W 3114  13.648  20.948  20.170  0.0762  0.0827  0.0439
60099W        W 3115   8.342   5.532  14.392  0.0754  0.2854  0.0302
60100W        W 3116  15.865  25.015  16.026 -0.0042 -0.1165  0.4735
60101W        W 3117  12.453  25.670  13.252  0.0008  0.0220  0.1589
60102W        W 3118   0.368  13.547   0.891  0.2151 -0.2411  0.0711
60103W        W 3119  18.606  31.346  15.396 -0.1246  0.1533  0.2151
60104W        W 3120  15.170  19.993  13.010 -0.0411  0.0988 -0.0446
60105W        W 3121  32.500   0.422  16.660  0.0317 -0.1104  0.1391
60106W        W 3122  29.107  21.882  25.537 -0.0564 -0.0444  0.1029
60107W        W 3123  14.550  16.006  13.632 -0.0734 -0.0941  0.1077
60108W        W 3124  18.719  33.645  21.970 -0.3781  0.1176  0.0881
60109W        W 3125   5.131  19.872  18.822 -0.2833 -0.1748  0.1776
60110W        W 3126   7.794  21.409  20.292  0.1740  0.3109  0.2992
60111W        W 3127  17.402   6.609  23.610 -0.0038  0.0868  0.0952
60112W        W 3128   2.141  10.818  15.934  0.3660  0.1797  0.0036
60113W        W 3129  12.650  21.769  13.336 -0.1017 -0.1566  0.2986
60114W        W 3130   2.279  33.044  16.742 -0.0757 -0.1527  0.1198
60115W        W 3131  20.223  30.715  22.706  0.0448  0.3284  0.1880
60116W        W 3132   5.935  10.293  24.314 -0.2274  0.4948  0.1394
60117W        W 3133  19.970  31.152  26.063  0.2436 -0.1778  0.1078
60118W        W 3134  34.261   1.836  27.088 -0.0899  0.1865  0.3878
60119W        W 3135  12.896  30.321  15.845 -0.2287  0.1984 -0.0049
60120W        W 3136   9.560  28.273  17.086  0.0374 -0.2695 -0.3375
60121W        W 3137  17.141   7.138  24.335 -0.0754  0.1129 -0.1766
60122W        W 3138  29.638  19.994  19.337 -0.2061  0.0974  0.0600
60123W        W 3139  12.929  12.150  16.168 -0.3648  0.2438 -0.0806
60124W        W 3140  23.386  26.571  17.756 -0.0001  0.2449 -0.1720
60125W        W 3141  33.773   8.685  21.579 -0.1098  0.0746  0.2011
60126W        W 3142  10.850  26.299  22.108  0.2300 -0.1158 -0.1336
60127W        W 3143  15.451  13.833  19.401  0.0535 -0.2088 -0.4310
60128W        W 3144  21.323  21.661  17.881  0.2155 -0.0805  0.1970
60129W        W 3145  20.015  19.136  13.938  0.0198 -0.3370  0.0632
60130W        W 3146   2.653  26.380  20.000 -0.2358 -0.0908  0.2291
60131W        W 3147   1.108  22.513  24.021  0.0908 -0.0685 -0.1657
60132W        W 3148  23.081   7.472  19.537 -0.2608 -0.4349  0.1182
60133W        W 3149  10.208  14.007  21.101 -0.0293  0.2247  0.2541
60134W        W 3150  16.479  22.563  21.589 -0.2150 -0.0167  0.1372
60135W        W 3151  16.236  28.300  27.853  0.2399  0.1985 -0.0813
60136W        W 3152  20.917  24.171  17.837  0.0072 -0.1410  0.0638
60137W        W 3153  34.106  13.741  28.493 -0.0468 -0.3921  0.2798
60138W        W 3154  10.970  22.952  15.006 -0.1196 -0.0611  0.4290
60139W        W 3155   3.587  27.049  17.248  0.1278 -0.0720  0.0794
60140W        W 3156   0.200  29.295  24.227  0.0367  0.0645 -0.0851
60141W        W 3157  32.303  21.233  21.067 -0.0380  0.0161  0.2894
60142W        W 3158  13.451  32.694  16.049 -0.1163 -0.1513 -0.0164
60143W        W 3159   8.391  13.880  15.100  0.1610 -0.0686 -0.1010
60144W        W 3160  13.836  18.060  13.132 -0.1918  0.0330 -0.0678
60145W        W 3161   8.817  17.130  14.074 -0.1032 -0.4054  0.0901
60146W        W 3162   2.305  12.340  22.306 -0.0714  0.2441 -0.4370
60147W        W 3163  19.325   8.631  29.286  0.3070 -0.2125 -0.2147
60148W        W 3164   5.205  24.487  28.113 -0.3790  0.0024 -0.3501
60149W        W 3165  29.308  18.498  19.685 -0.0218  0.1594  0.1276
60150W        W 3166  17.497  30.383  21.063 -0.0555 -0.1103 -0.0539
60151W        W 3167  30.249  21.291  14.965  0.1809 -0.2029 -0.0176
60152W        W 3168   3.959  24.959  23.162  0.0244 -0.1795 -0.1863
60153W        W 3169  34.171  32.279  26.403  0.2462  0.2476  0.3686
60154W        W 3170  16.928   5.463  22.100 -0.1174  0.5341 -0.0521
60155W        W 3171  24.767  21.711  17.816 -0.3103 -0.2357  0.1100
60156W        W 3172  19.633   0.898  23.260 -0.0797 -0.2211  0.3489
60157W        W 3173  32.517  22.973  23.777 -0.1145  0.1153  0.4628
60158W        W 3174  16.458  27.566  20.795  0.1136  0.1084  0.1180
60159W        W 3175   7.174  30.586   3.252 -0.1618 -0.0475 -0.0332
60160W        W 3176  12.482   7.885  16.364 -0.0539  0.2885  0.0606
60161W        W 3177  17.108  23.966  26.178 -0.0808 -0.0784 -0.1840
60162W        W 3178   1.691  18.070  19.695  0.1517 -0.2170  0.1070
60163W        W 3179   3.762  24.359  19.309  0.0524  0.0305  0.1926
60164W        W 3180  19.617  16.730  19.410  0.2571  0.0348 -0.1973
60165W        W 3181   9.005   1.821  24.755  0.1295 -0.0939  0.1763
60166W        W 3182  20.811   8.704  18.173  0.0129 -0.1745  0.4006
60167W        W 3183  12.262  22.196  13.271 -0.0493  0.0156 -0.2519
60168W        W 3184  17.063  22.906  21.938  0.0149  0.0326  0.1124
60169W        W 3185  33.300  14.992  27.805  0.1873  0.2540  0.0816
60170W        W 3186  14.666  26.097  13.417 -0.1167 -0.0110 -0.2548
60171W        W 3187  17.916  28.993  24.417  0.3789  0.3048 -0.0971
60172W        W 3188  31.436   5.228  23.043 -0.0721  0.3303 -0.0174
60173W        W 3189  14.179  23.271  13.519 -0.2367 -0.3502 -0.2055
60174W        W 3190  13.894  27.347  21.839  0.0600  0.0082 -0.1630
60175W        W 3191   6.561   2.976  26.349 -0.2518 -0.2432 -0.2369
60176W        W 3192  21.990  18.660  16.557 -0.5713  0.1039 -0.0937
60177W        W 3193  18.807   8.858  13.852 -0.3126  0.1650  0.1919
60178W        W 3194  25.203   9.988  18.855  0.0715 -0.1868  0.1325
60179W        W 3195  26.857  16.350  25.129 -0.0316  0.3119  0.2627
60180W        W 3196  28.209   9.206  20.019 -0.1371 -0.3043  0.3596
60181W        W 3197  26.726  26.865  26.438  0.1879  0.2002 -0.0710
60182W        W 3198  20.346  33.002  26.726  0.1345  0.1887 -0.2379
60183W        W 3199  29.096   9.333  17.929 -0.0970 -0.1902 -0.0160
60184W        W 3200   3.151  29.946  17.891  0.1507 -0.0943  0.0516
60185W        W 3201  32.074  26.340  21.469 -0.0482  0.0465 -0.1652
60186W        W 3202   9.033  24.987  29.243 -0.3824 -0.0721 -0.0741
60187W        W 3203   6.899  16.846  19.387 -0.1379 -0.1529  0.0607
60188W        W 3204  16.006  16.915  28.472  0.1880 -0.0519 -0.3066
60189W        W 3205  17.908   9.079  18.486  0.2500 -0.1956 -0.0189
60190W        W 3206   4.040  18.885  17.763  0.1863 -0.1289  0.2328
60191W        W 3207  31.927  10.637  25.280 -0.2147 -0.2168  0.1163
60192W        W 3208  31.019  22.148  16.113 -0.0867 -0.1834  0.1083
60193W        W 3209   6.758  10.603  27.433  0.1004  0.0451  0.2577
60194W        W 3210  17.174  13.634   1.078  0.0965 -0.3197 -0.3520
60195W        W 3211   1.946  27.609  23.557  0.2035 -0.0103 -0.3213
60196W        W 3212  15.212  10.028  13.080  0.0646 -0.0526  0.1940
60197W        W 3213  24.295  16.192  16.167  0.4490 -0.4333 -0.1414
60198W        W 3214   5.508  31.422  15.593 -0.0352 -0.2986  0.1221
60199W        W 3215  20.823   9.919  13.590 -0.1496  0.1945  0.1952
60200W        W 3216  24.181   1.374   1.112  0.0514  0.0219 -0.0046
60201W        W 3217  15.873  34.726  21.611  0.1760  0.0569  0.0140
60202W        W 3218  32.893  11.724  19.898 -0.3251 -0.0082  0.0888
60203W        W 3219  11.619  25.731  21.716 -0.1728 -0.0187 -0.0415
60204W        W 3220  23.663  29.754  10.804 -0.1676 -0.0567 -0.1674
60205W        W 3221   7.348   6.314  18.518  0.1517 -0.1006  0.1468
60206W        W 3222  32.085  21.543  28.424  0.0429  0.0546 -0.1321
60207W        W 3223  24.098  18.172  24.296  0.0851  0.2720 -0.1383
60208W        W 3224  22.011  21.978  26.226 -0.0772  0.0921  0.2375
60209W        W 3225   3.533  22.374   9.333  0.1056  0.0076 -0.1565
60210W        W 3226  14.443  14.751  24.250 -0.1932 -0.2261 -0.1388
60211W        W 3227  29.192  15.913  24.724 -0.0016 -0.4770  0.0770
60212W        W 3228  23.730  27.554  18.089 -0.1146 -0.1303  0.1263
60213W        W 3229   6.983  11.802  24.411  0.0334 -0.2057  0.1568
60214W        W 3230  14.479  12.386  21.886  0.0023 -0.3517  0.3060
60215W        W 3231   6.491  29.974  20.700  0.0199  0.0577 -0.2462
60216W        W 3232  15.035  28.855  28.327 -0.2380  0.2427  0.0067
60217W        W 3233  12.253  23.987  17.126 -0.2968 -0.0075  0.2252
60218W        W 3234  22.956  17.058  21.887 -0.0768 -0.2182 -0.1709
60219W        W 3235  16.138   3.377  18.575 -0.0386  0.0928 -0.1592
60220W        W 3236  31.623  13.498  18.480 -0.1299 -0.1919 -0.1838
60221W        W 3237  25.899   0.348  22.139 -0.0771 -0.0405 -0.0205
60222W        W 3238  22.991  18.551  16.923  0.2047 -0.0719 -0.0249
60223W        W 3239   6.064  17.165  18.187  0.0005  0.0322  0.3175
60224W        W 3240   9.349   2.083  26.410 -0.0906 -0.0386 -0.4028
60225W        W 3241  18.034  27.218   0.108  0.0264  0.3715  0.4403
60226W        W 3242   3.987  22.818  14.580  0.1576  0.2221 -0.2436
60227W        W 3243   9.778  18.377  22.376  0.0014  0.0851 -0.3685
60228W        W 3244   9.029   5.006  22.168 -0.1698 -0.0778 -0.2316
60229W        W 3245   9.344  27.120  18.816  0.0462  0.2541 -0.0719
60230W        W 3246  10.897  15.929  13.565 -0.0152 -0.0174 -0.2517
60231W        W 3247  24.694  23.290   0.085  0.0714  0.2562  0.0337
60232W        W 3248  24.364  26.293  21.999 -0.1705  0.1307  0.2544
60233W        W 3249  23.335  15.087  16.055 -0.0518 -0.0085 -0.3088
60234W        W 3250  13.866  14.142  28.095 -0.0106  0.1708  0.1902
60235W        W 3251  12.278  15.781  18.960  0.2325 -0.4410  0.1779
60236W        W 3252  26.391  27.929   6.726  0.0805  0.0611 -0.2552
60237W        W 3253  18.842  28.173  24.844 -0.0521  0.1247 -0.1560
60238W        W 3254   6.479   9.353  15.274  0.2912 -0.1817  0.0988
60239W        W 3255   4.520  13.146  16.897 -0.0238 -0.3796  0.1095
60240W        W 3256  14.942  23.453  20.304  0.3176 -0.1693  0.0908
60241W        W 3257   9.243  18.369  19.235 -0.1217  0.1545  0.0439
60242W        W 3258  10.723  29.103  22.493 -0.0759 -0.0991  0.2130
60243W        W 3259   7.861  10.767  23.890  0.0205  0.0259  0.2863
60244W        W 3260   5.178  10.042  16.699  0.2211 -0.1120  0.0132
60245W        W 3261  24.518  21.394  26.742  0.0262 -0.0153 -0.0308
60246W        W 3262  23.045  14.152  27.043 -0.0316 -0.1331 -0.0672
60247W        W 3263  30.816   1.148  16.554  0.2022  0.1887 -0.0821
60248W        W 3264  15.442  24.997  26.844 -0.1146 -0.1015  0.2528
60249W        W 3265  10.468  25.459  17.162 -0.1482  0.1252 -0.1701
60250W        W 3266  10.950  13.642   0.470  0.0475 -0.2371  0.2322
60251W        W 3267  17.808  11.660  29.018  0.1324 -0.4230 -0.1063
60252W        W 3268   0.218  18.015  19.780  0.0630  0.0293 -0.1688
60253W        W 3269   8.777  21.995  22.985 -0.1450  0.1167  0.1841
60254W        W 3270  16.959  25.878  15.204  0.0106  0.0082  0.2212
60255W        W 3271   0.796  23.117  22.808  0.1217 -0.1610 -0.1238
60256W        W 3272  14.178   1.227  21.116 -0.1141  0.1643  0.3691
60257W        W 3273   9.849  10.472  19.717  0.1933 -0.0095  0.2053
60258W        W 3274   0.605  14.922  16.883  0.0077 -0.4322  0.2046
60259W        W 3275   7.556  18.557   5.839  0.1690  0.1130 -0.1516
60260W        W 3276  13.984   8.943  18.211  0.0396 -0.0146  0.1202
60261W        W 3277   1.957  24.423  16.927 -0.1453  0.0882 -0.0647
60262W        W 3278  20.062  28.453  21.184  0.3330 -0.0706 -0.0801
60263W        W 3279  17.052  31.995  22.334 -0.3330 -0.2492  0.0102
60264W        W 3280  26.138  16.940  17.376  0.0548  0.1103 -0.0183
60265W        W 3281  24.099   4.818  22.480 -0.0813  0.1071  0.1988
60266W        W 3282   6.944  18.366  15.069 -0.1992  0.4731 -0.5057
60267W        W 3283   7.388  32.505   1.820  0.0747  0.0757 -0.1243
60268W        W 3284  22.861  25.563  14.630  0.0194  0.0103  0.3424
60269W        W 3285  10.699  30.903  16.844 -0.0763 -0.1093 -0.0463
60270W        W 3286  12.154  29.139  17.653  0.1059 -0.0999 -0.0953
60271W        W 3287  16.880   6.835  13.742  0.2172 -0.1917  0.0734
60272W        W 3288  11.056   8.018  16.067  0.1436 -0.0224 -0.0741
60273W        W 3289  15.202  24.223  21.704  0.3101  0.0842 -0.0769
60274W        W 3290  32.869  32.200  26.074  0.2229 -0.0412 -0.2431
60275W        W 3291  30.701  21.238   0.855  0.1265  0.0146 -0.2904
60276W        W 3292  17.462   6.110  15.680 -0.1542  0.0716 -0.3357
60277W        W 3293   0.199  27.077   7.150  0.0973 -0.1021 -0.2222
60278W        W 3294  17.743  30.052   6.984 -0.1120 -0.1082  0.1695
60279W        W 3295   6.290  20.144  27.270  0.3531  0.0380 -0.4517
60280W        W 3296   8.572  30.131   9.115  0.4278  0.0536 -0.0879
60281W        W 3297   2.096  16.729  17.895 -0.0115  0.0944  0.0901
60282W        W 3298  10.603  18.973  20.186 -0.0402 -0.3819  0.3948
60283W        W 3299  13.954  21.752  15.670  0.0686  0.0285  0.0848
60284W        W 3300   1.315   5.050   5.592  0.3154 -0.2581 -0.1038
60285W        W 3301   3.721  11.465  15.515 -0.1895 -0.0528 -0.0166
60286W        W 3302   5.408  23.509   4.277 -0.0913  0.0245 -0.0209
60287W        W 3303  28.673  32.501  23.263 -0.0596  0.0912 -0.0790
60288W        W 3304  34.342  19.204  21.013 -0.2150  0.1309 -0.2154
60289W        W 3305  22.940  32.309  18.509 -0.2103  0.0463 -0.0892
60290W        W 3306  17.638  30.110  18.808  0.1968  0.0641  0.1895
60291W        W 3307  12.116  20.763  15.818 -0.0700  0.0898 -0.2244
60292W        W 3308   2.459  10.392   0.736 -0.0315  0.1834  0.1001
60293W        W 3309  14.476  32.634  17.987 -0.1566 -0.1708  0.1407
60294W        W 3310  27.859  15.866  18.210 -0.0273 -0.1473 -0.0238
60295W        W 3311   7.508  33.528  15.947 -0.0010 -0.1786 -0.2022
60296W        W 3312  10.003  15.963  19.999 -0.0503 -0.0447  0.0211
60297W        W 3313  11.786  16.871  29.215  0.0777  0.1257 -0.1748
60298W        W 3314   0.655   6.926  21.776 -0.0322  0.3323 -0.1821
60299W        W 3315  14.019  24.267  13.911  0.1033  0.0667  0.0922
60300W        W 3316  10.623  10.100  13.299 -0.1199 -0.1634  0.2581
60301W        W 3317   5.377   8.166  23.832 -0.0082 -0.0758  0.2631
60302W        W 3318   7.696  18.723  23.760  0.3563  0.2360 -0.1169
60303W        W 3319  17.092  14.284  15.451  0.1229  0.0137  0.0765
60304W        W 3320  33.511  30.812  27.492 -0.3042  0.1434  0.0371
60305W        W 3321   1.215  27.452  20.170  0.0387 -0.0328  0.0160
60306W        W 3322  24.896  23.346   8.051  0.1455 -0.2156 -0.0154
60307W        W 3323  27.952  14.370  28.309  0.2063 -0.0929 -0.1270
60308W        W 3324  20.075   2.644  20.910  0.1202  0.1293 -0.0189
60309W        W 3325   6.216  12.303  20.045  0.0783 -0.2832  0.0705
60310W        W 3326   6.090  25.793  25.347 -0.0657  0.1062 -0.4356
60311W        W 3327   0.804  19.741  28.258  0.4271 -0.0547  0.1471
60312W        W 3328   8.503  21.420  21.176 -0.1752  0.0258  0.0012
60313W        W 3329  29.933  22.715   5.447 -0.1438 -0.1827 -0.3179
60314W        W 3330  34.356  13.081  17.424  0.1304  0.1533 -0.0209
60315W        W 3331  21.457  32.609   9.697  0.0594  0.3056 -0.1625
60316W        W 3332   7.542  11.253  20.221  0.1246  0.0993 -0.2165
60317W        W 3333  11.437   3.869   1.353  0.1355  0.1864  0.5100
60318W        W 3334  23.598   7.559  23.371  0.0086  0.0730 -0.1356
60319W        W 3335  19.904  13.107  28.260  0.1145  0.2326  0.2179
60320W        W 3336  27.459  16.573  23.349  0.1921  0.0656 -0.0659
60321W        W 3337  12.120   8.925  19.530  0.0927 -0.0366 -0.1765
60322W        W 3338  11.508  11.883  26.666  0.1693 -0.0464  0.0875
60323W        W 3339  19.268  21.386  26.504  0.0723  0.3364 -0.1234
60324W        W 3340  17.738  23.824  23.475  0.2608  0.1373 -0.2909
60325W        W 3341  10.675   1.059  22.359  0.0394  0.2072  0.1490
60326W        W 3342  17.707  21.948   7.864  0.0254  0.4389 -0.0223
60327W        W 3343  19.473  27.067  27.371 -0.3086 -0.0567  0.1912
60328W        W 3344  15.450  16.065   6.038  0.0733  0.3268  0.1937
60329W        W 3345  31.200  12.384  19.575 -0.1089 -0.1544 -0.3703
60330W        W 3346   3.869  18.385  14.483  0.0796  0.0197  0.2235
60331W        W 3347  21.890  23.864  24.089 -0.0031 -0.2094 -0.3864
60332W        W 3348  33.949   8.977  27.199  0.0841 -0.4118  0.1740
60333W        W 3349   6.232  21.783  17.960  0.1175 -0.1177 -0.1697
60334W        W 3350  19.934  11.332  13.442 -0.0503 -0.1559  0.1454
60335W        W 3351   3.485  16.062  17.226 -0.0979  0.0939  0.3519
60336W        W 3352  13.622  29.094  27.923  0.1925  0.3141 -0.0092
60337W        W 3353  26.736  15.709  23.144 -0.0450  0.0278  0.2151
60338W        W 3354  20.065  10.519  26.278  0.0788 -0.0019 -0.0634
60339W        W 3355  12.801  19.508  14.479 -0.1432  0.0440  0.1530
60340W        W 3356  29.523  31.499  19.242 -0.0804  0.0931  0.1856
60341W        W 3357   6.224  19.132  15.327  0.0367  0.1428 -0.2072
60342W        W 3358  24.818   9.698  24.193 -0.0883  0.1737 -0.0362
60343W        W 3359  18.622  15.568  11.282 -0.1015  0.0135  0.2276
60344W        W 3360  26.931  21.700  22.342  0.3058 -0.0391 -0.3473
60345W        W 3361   4.128  31.033  16.343 -0.0063 -0.3909 -0.1911
60346W        W 3362  18.572  11.523  17.050 -0.0996  0.1171 -0.3868
60347W        W 3363  13.097  16.501  13.633 -0.0107 -0.1789  0.0647
60348W        W 3364   4.258  32.509  21.975 -0.1854 -0.1344  0.2866
60349W        W 3365   1.949  20.827  24.484 -0.1058  0.0673 -0.2758
60350W        W 3366  15.928  26.888  25.479  0.3173  0.0128 -0.2372
60351W        W 3367  10.246  13.346  21.515  0.5548 -0.3811 -0.2186
60352W        W 3368  11.648  25.498  24.252 -0.0548  0.2062 -0.0147
60353W        W 3369   4.690  21.509   1.317 -0.1526  0.0838  0.0116
60354W        W 3370  14.117  19.721   0.318 -0.1823 -0.0653 -0.1073
60355W        W 3371  27.383  33.195  24.926  0.0639 -0.0705  0.1190
60356W        W 3372  23.297   9.514  17.880 -0.2540  0.4660  0.2816
60357W        W 3373  23.701  26.073  22.169  0.0552  0.0921  0.0060
60358W        W 3374  14.256  12.571  13.559  0.1060  0.0306 -0.1640
60359W        W 3375  34.391  20.729  20.691 -0.3876  0.1114  0.0072
60360W        W 3376   4.309  26.001  14.779  0.1189  0.2267 -0.0011
60361W        W 3377   5.967   9.377   6.256  0.3117  0.0702 -0.2013
60362W        W 3378  10.212  17.089  17.333  0.1389 -0.1605 -0.0670
60363W        W 3379  16.748  12.754  21.786  0.2176 -0.0078 -0.0442
60364W        W 3380   7.841  24.299  21.435  0.0796 -0.1563  0.0317
60365W        W 3381  14.653   6.375  24.973  0.1349  0.1461  0.5061
60366W        W 3382  11.843  14.472  14.389 -0.0305  0.1510  0.0407
60367W        W 3383  13.410   9.139  17.375 -0.0627  0.1617 -0.4586
60368W        W 3384   9.070   8.648  15.375  0.0507 -0.1927  0.1259
60369W        W 3385   6.506  26.054  15.964  0.2917 -0.1349 -0.0142
60370W        W 3386  34.308   7.760  21.369 -0.0211 -0.1935  0.3460
60371W        W 3387  12.804   4.004  20.806 -0.2424  0.0254 -0.0796
60372W        W 3388   9.152  31.883  25.129  0.1918  0.3396  0.1174
60373W        W 3389   6.862  10.628  15.929  0.2372  0.1311  0.0712
60374W        W 3390  31.449  15.908  27.619  0.0031 -0.1817  0.1145
60375W        W 3391  26.222  20.814  16.785  0.0826 -0.0862 -0.1159
60376W        W 3392  14.696  15.030  20.440  0.0919  0.1044 -0.0764
60377W        W 3393  32.654  14.001  19.858  0.2019  0.0175 -0.3006
60378W        W 3394   9.288  18.908  19.194 -0.3761  0.3895 -0.0629
60379W        W 3395  26.719  18.093  19.135 -0.0457 -0.0763  0.0231
60380W        W 3396   9.999  12.081  19.357  0.0857  0.2442  0.0003
60381W        W 3397   8.606   1.146   7.306 -0.0063 -0.5675 -0.2166
60382W        W 3398  14.726   5.189  22.175  0.0185 -0.0397 -0.0398
60383W        W 3399  12.936  18.346  20.893  0.1555 -0.1778 -0.3389
60384W        W 3400  14.724  23.373  18.801  0.0809  0.1173 -0.0931
60385W        W 3401   6.835   7.933  17.705 -0.1087 -0.0230  0.1939
60386W        W 3402  24.372  21.749  28.464  0.1765  0.0565 -0.1803
60387W        W 3403   7.906  19.081   0.706  0.1724 -0.0907  0.0701
60388W        W 3404  22.781  10.083  26.658  0.2315 -0.3400 -0.0147
60389W        W 3405   3.767   8.054  22.735  0.2545 -0.2638 -0.2882
60390W        W 3406   5.961  11.988  16.415  0.0358  0.1540  0.1075
60391W        W 3407  14.457  11.424   5.372 -0.3117  0.0535 -0.0374
60392W        W 3408  12.989  13.681  26.085 -0.1765  0.2397 -0.2473
60393W        W 3409  14.651  17.069  25.145  0.0288 -0.1449  0.1144
60394W        W 3410  15.838  27.637  18.902  0.2233 -0.1166 -0.1365
60395W        W 3411   4.231  23.701  27.017  0.1050  0.0038  0.0167
60396W        W 3412   3.006  12.977  18.388 -0.1947 -0.1303  0.0081
60397W        W 3413  17.182  18.649  24.356 -0.0930 -0.0045 -0.0007
60398W        W 3414  23.790   1.010   8.892  0.3700  0.0339 -0.3591
60399W        W 3415  11.946  13.127  13.133 -0.0850  0.1760 -0.1819
60400W        W 3416  31.441  14.530  21.367  0.0564 -0.2230  0.0577
60401W        W 3417  31.517  26.356  21.318 -0.4775 -0.1389  0.2059
60402W        W 3418  26.026  34.354  20.197  0.1496 -0.0416  0.1750
60403W        W 3419   2.998  16.385  17.946  0.0955 -0.3554 -0.1454
60404W        W 3420  24.826  28.482   1.317 -0.1004 -0.0719 -0.2107
60405W        W 3421   4.393  23.313   0.008  0.1328 -0.0217  0.5658
60406W        W 3422  21.939   4.141  20.082 -0.1203 -0.1464  0.0505
60407W        W 3423  29.444  17.100  21.449 -0.3181  0.0765  0.0698
60408W        W 3424  33.577  13.905  17.234  0.2233 -0.1004  0.1915
60409W        W 3425  21.914   2.564  23.800  0.2766 -0.0950 -0.3890
60410W        W 3426  18.489  20.100  12.287 -0.3392  0.0673  0.0997
60411W        W 3427  21.338  25.038  22.706 -0.0926  0.0434  0.1380
60412W        W 3428  11.117  13.162   9.367  0.2551  0.0341  0.0510
60413W        W 3429  24.195  15.194  14.400  0.3386  0.2357  0.0008
60414W        W 3430   2.856   7.297  22.104 -0.1081  0.2296 -0.1019
60415W        W 3431  15.654  11.491  15.483  0.0426  0.1832  0.1575
60416W        W 3432   7.188  28.972  28.949  0.1103  0.0476  0.0875
60417W        W 3433   9.543   9.015  23.533 -0.0869 -0.1280 -0.0733
60418W        W 3434  12.977  14.603  27.432 -0.2936 -0.1985 -0.1375
60419W        W 3435   2.001  26.442  27.386 -0.2421 -0.3225 -0.0390
60420W        W 3436   3.617  19.963  14.589 -0.0378 -0.0558 -0.0451
60421W        W 3437  28.327   0.885  23.699  0.1203  0.1260 -0.0521
60422W        W 3438  19.540  19.269  15.737  0.0342 -0.1434  0.2691
60423W        W 3439   7.121   7.179  14.989  0.0095  0.1894 -0.0499
60424W        W 3440  14.944  28.944  19.161 -0.2114  0.1646  0.1933
60425W        W 3441  22.509  10.619  17.121 -0.2789  0.1049  0.0052
60426W        W 3442   9.081  32.121  22.803 -0.0690  0.2633  0.1995
60427W        W 3443  32.762  13.610   0.385  0.0921  0.0007  0.1174
60428W        W 3444  34.415  33.565  24.692  0.1299  0.1692 -0.0125
60429W        W 3445  18.367  12.675  12.501 -0.0924  0.3400 -0.3066
60430W        W 3446   9.502  19.994  24.697 -0.1316  0.0984  0.0606
60431W        W 3447   8.423   0.793  20.936 -0.1500 -0.3738 -0.0182
60432W        W 3448  11.278  16.044   6.450 -0.3429 -0.1473 -0.0615
60433W        W 3449  10.127  25.099  19.183  0.0268 -0.1728 -0.0342
60434W        W 3450   6.993   1.534  20.779 -0.2095 -0.2134 -0.1787
60435W        W 3451   7.751  14.821  21.110  0.1387 -0.0419 -0.1171
60436W        W 3452  12.091  25.137  14.766 -0.1716 -0.0697 -0.0271
60437W        W 3453  19.100  22.434  24.684  0.0448  0.0780  0.1136
60438W        W 3454  10.914  31.713  15.420  0.0782  0.1355  0.1072
60439W        W 3455   1.632   6.497  25.465  0.1235  0.3714 -0.0447
60440W        W 3456  33.205   7.810  14.074 -0.3427 -0.3513 -0.0276
60441W        W 3457  13.588  20.782   0.318  0.0257  0.1737  0.1514
60442W        W 3458  33.337  25.053  15.473  0.0982 -0.3713  0.1048
60443W        W 3459   4.334   4.106   2.480 -0.1594 -0.1291 -0.1740
60444W        W 3460   9.748  20.573  19.444  0.0258 -0.2967  0.0638
60445W        W 3461  17.469  10.914  14.575  0.1806 -0.0665  0.0213
60446W        W 3462   0.653  26.844   7.066 -0.0665 -0.1748 -0.0644
60447W        W 3463   5.596  16.238  15.654  0.1756  0.0880  0.0429
60448W        W 3464   1.829  32.540  17.910 -0.0758 -0.0808 -0.0714
60449W        W 3465  26.701  19.332   4.693 -0.1263 -0.2684  0.0422
60450W        W 3466  27.374  23.561  17.807 -0.5072 -0.0940  0.2478
60451W        W 3467   3.492  10.087  26.343 -0.2112  0.2297 -0.2197
60452W        W 3468   1.870  26.611  16.664  0.2759 -0.3442 -0.2336
60453W        W 3469  19.907  17.731  12.446 -0.3450 -0.1208 -0.2985
60454W        W 3470  25.029  27.414  17.321 -0.3486 -0.1812 -0.0274
60455W        W 3471   9.081  34.504   6.845  0.2564 -0.3450  0.1078
60456W        W 3472  16.873  14.271  13.984  0.0749  0.1183  0.2373
60457W        W 3473   3.941   9.670   1.078 -0.1626  0.0155  0.0487
60458W        W 3474   5.613  32.335  26.064 -0.3154  0.2409 -0.0946
60459W        W 3475  30.615  15.010  25.198  0.0925  0.0656  0.0874
60460W        W 3476  22.572  21.069  23.674 -0.1666 -0.0513  0.1366
60461W        W 3477  15.657  14.444  14.591 -0.1397  0.0275 -0.0744
60462W        W 3478  27.382  27.258  16.317  0.0315 -0.3114  0.0058
60463W        W 3479  13.009  25.426  25.816  0.5180  0.1364 -0.0885
60464W        W 3480   9.547  32.714  14.724 -0.1169  0.0956 -0.1596
60465W        W 3481  27.045  29.323  23.591 -0.0510 -0.1810 -0.0664
60466W        W 3482  19.264   9.970  28.681 -0.0944 -0.1290 -0.2443
60467W        W 3483  12.014  18.694  26.290  0.2035 -0.2481  0.0382
60468W        W 3484  34.660   6.570  23.195  0.1809 -0.1868  0.1486
60469W        W 3485   4.355  23.647  28.527 -0.0345 -0.0895 -0.0165
60470W        W 3486  26.345  32.453  17.150  0.0728  0.2175 -0.1211
60471W        W 3487  29.100  30.112  15.772 -0.1649  0.2250  0.0265
60472W        W 3488   0.294  25.993  21.362 -0.1763 -0.1708 -0.0192
60473W        W 3489  14.625  18.339  15.053 -0.1305  0.0172  0.0665
60474W        W 3490  17.427  30.208   2.471 -0.1022  0.1247  0.0062
60475W        W 3491   2.516   5.438  26.377 -0.1425 -0.2192 -0.0432
60476W        W 3492  15.121  23.888  12.412  0.0457 -0.1617 -0.0074
60477W        W 3493   4.605   4.888   3.693 -0.0997  0.0506 -0.1595
60478W        W 3494  17.235   2.436  25.132 -0.1907  0.1549 -0.1340
60479W        W 3495  24.106   8.303  19.578 -0.0422 -0.0969 -0.0467
60480W        W 3496  29.343  20.950  19.579 -0.0887 -0.2127 -0.1358
60481W        W 3497  13.536  28.648  13.995 -0.0238  0.0443 -0.1168
60482W        W 3498  26.848  20.434  26.056 -0.1815  0.1554  0.1212
60483W        W 3499  10.003  14.740  18.157 -0.3510  0.2190 -0.0675
60484W        W 3500   9.838  13.282  16.175  0.1790  0.0582  0.0537
60485W        W 3501  28.049  28.135   0.437  0.2174  0.2331 -0.1690
60486W        W 3502  15.305  19.599  23.888  0.2426 -0.3902  0.1141
60487W        W 3503  15.767  22.385  25.463 -0.2409 -0.2093  0.0297
60488W        W 3504  24.464  14.666  21.238 -0.0661 -0.2790  0.0340
60489W        W 3505  18.195   9.550  23.803  0.0123 -0.0790 -0.2569
60490W        W 3506  33.658  24.846  29.060  0.0102  0.0274 -0.0799
60491W        W 3507   7.631  12.812  14.669 -0.1954 -0.0424  0.0416
60492W        W 3508   2.263  10.333  26.029  0.0960  0.2880  0.0472
60493W        W 3509  23.140  33.333  24.773 -0.1759  0.0955  0.0835
60494W        W 3510  10.279  29.097   3.336  0.3466 -0.1317  0.1094
60495W        W 3511   0.010  32.546  16.718  0.0606 -0.1487  0.1065
60496W        W 3512  11.489   8.219  21.162 -0.1562  0.0800 -0.0463
60497W        W 3513   3.348   3.940  23.204 -0.3832 -0.2828 -0.4409
60498W        W 3514  30.805  13.979  18.921  0.0817 -0.2603 -0.0601
60499W        W 3515   3.927  11.051   3.538  0.1451  0.2024 -0.1477
60500W        W 3516  22.309  11.053  14.521 -0.1248  0.0799  0.0806
60501W        W 3517  16.834   7.921  16.759  0.4559  0.0489  0.3550
60502W        W 3518  20.302  27.950  17.902  0.0410 -0.1565 -0.0754
60503W        W 3519   1.796   9.218  20.397  0.0664 -0.1643 -0.1562
60504W        W 3520  25.874  20.362  19.432 -0.0488 -0.1655  0.1128
60505W        W 3521   8.751  15.960  19.560 -0.1068  0.1376 -0.1177
60506W        W 3522   3.416  10.801  15.044  0.0763 -0.0761 -0.2252
60507W        W 3523  24.563  31.314  25.719 -0.0289  0.0305  0.0313
60508W        W 3524  23.168   6.093  23.345  0.0189  0.1650  0.3364
60509W        W 3525   0.324  26.550  16.705  0.3156  0.2751  0.0178
60510W        W 3526   7.264  24.474  15.508  0.0543  0.3675  0.1309
60511W        W 3527  11.138  12.096  22.044 -0.3837 -0.0641 -0.2293
60512W        W 3528  12.993   2.398  17.652 -0.1478 -0.2846 -0.1137
60513W        W 3529  12.219  26.311  19.821  0.0035 -0.3925  0.1277
60514W        W 3530   8.416  30.462   8.708 -0.0868  0.3741  0.1754
60515W        W 3531   9.718  20.004  17.769  0.1156  0.0040  0.0203
60516W        W 3532  24.423  10.742  26.699  0.2991 -0.2465  0.0318
60517W        W 3533   0.651  14.882   5.646  0.0705 -0.0332  0.0352
60518W        W 3534  15.727  28.865  27.056 -0.0816 -0.2069 -0.0126
60519W        W 3535  11.401  19.849  13.433 -0.1959  0.1653  0.1497
60520W        W 3536   7.858  23.651  21.668  0.0723  0.3116 -0.2947
60521W        W 3537  34.668   2.626  22.368  0.3127 -0.0492 -0.2204
60522W        W 3538   5.698  14.344  13.364  0.1323  0.3104  0.0371
60523W        W 3539  14.419  12.670  27.228  0.1916 -0.1623  0.1133
60524W        W 3540  22.971   4.540  28.492  0.1418  0.1315  0.0718
60525W        W 3541   4.627  19.153  18.952  0.0700 -0.0175 -0.1799
60526W        W 3542  13.769   8.741  15.605  0.0998 -0.2165  0.3160
60527W        W 3543  13.632  27.847  26.015  0.2119  0.3268  0.0486
60528W        W 3544  12.034  20.222  23.596 -0.1275 -0.0851  0.1290
60529W        W 3545   2.299  21.949  19.459 -0.1191  0.0581  0.1341
60530W        W 3546   5.344  13.092  18.525  0.0866  0.0293 -0.1109
60531W        W 3547   2.183  12.290  22.950  0.0194 -0.0217  0.0803
60532W        W 3548  30.832   7.672  27.939 -0.0097 -0.0589 -0.0733
60533W        W 3549  19.741  27.850   0.791 -0.2447  0.1398  0.2303
60534W        W 3550  34.614  30.193  25.665  0.2557 -0.1911  0.1934
60535W        W 3551   1.078  33.197  22.439 -0.0073  0.0121 -0.0374
60536W        W 3552  21.942  25.153  14.922 -0.0950  0.1998 -0.4124
60537W        W 3553   2.423  17.709  17.141 -0.5230 -0.0704  0.0019
60538W        W 3554  18.801  22.551  15.414 -0.0583  0.1153 -0.1652
60539W        W 3555  34.006  29.041  20.176  0.0201  0.1788 -0.1498
60540W        W 3556  11.474  11.716  22.777  0.3205  0.0378 -0.3415
60541W        W 3557  23.209  13.956  27.874 -0.1851  0.4498 -0.3673
60542W        W 3558  28.202  18.584  27.733  0.0279 -0.2269 -0.0596
60543W        W 3559   6.192  26.969  18.618 -0.2766  0.3569 -0.0013
60544W        W 3560  12.902  22.872  23.169  0.4101  0.1334 -0.0244
60545W        W 3561  12.102  27.620  23.968 -0.2833  0.1120 -0.1656
60546W        W 3562  34.507  21.019  19.859 -0.2695  0.0276  0.1300
60547W        W 3563  11.537  19.232  26.651  0.0141 -0.0195  0.1061
60548W        W 3564  10.655  30.723  17.303  0.0087  0.1451 -0.1865
60549W        W 3565   3.892  19.162  16.266  0.2958  0.0514 -0.1523
60550W        W 3566   0.900  16.570  16.112 -0.1499  0.2883 -0.1548
60551W        W 3567   5.520  27.796  15.978 -0.1037 -0.3384 -0.1815
60552W        W 3568  28.426   6.632  21.663  0.0863 -0.1402  0.3039
60553W        W 3569  25.867   2.843  20.926 -0.0218  0.3736 -0.2104
60554W        W 3570  30.790  24.797   5.533  0.1451  0.3092  0.2195
60555W        W 3571  19.013  20.024  12.726 -0.2704  0.0154 -0.1812
60556W        W 3572   8.752  15.677  17.880  0.1005  0.2506  0.3932
60557W        W 3573   4.023   8.667  18.248  0.0889 -0.2716 -0.0007
60558W        W 3574  10.030  30.850   1.312  0.2283  0.0631 -0.0586
60559W        W 3575   7.457  11.334  25.273 -0.0441 -0.0076  0.2441
60560W        W 3576  10.608  16.934  15.871  0.2727  0.1405 -0.1068
60561W        W 3577   7.109  14.025  26.111  0.2671 -0.1273  0.1152
60562W        W 3578  17.892  31.634  15.605 -0.1106 -0.0957  0.1129
60563W        W 3579   5.327   7.169  24.921  0.2117  0.1201  0.1707
60564W        W 3580   5.332  10.123  17.235 -0.2715 -0.0263 -0.0081
60565W        W 3581  22.453  32.088   3.875  0.0831  0.0731  0.0609
60566W        W 3582   8.163   3.613  20.973  0.3073  0.0556  0.0154
60567W        W 3583   1.727  11.326  26.825  0.0452  0.1779  0.0927
60568W        W 3584   1.941  33.124  22.668  0.2928  0.1512 -0.2875
60569W        W 3585   4.699  19.203  15.091 -0.3077  0.1234  0.0173
60570W        W 3586  22.253  27.230  17.339  0.1683 -0.1569 -0.1453
60571W        W 3587   4.474   4.625  18.988 -0.4002  0.0711  0.3673
60572W        W 3588  19.768  22.667  19.749 -0.0921  0.1622 -0.1200
60573W        W 3589  27.164   6.858  15.866 -0.3665  0.1227 -0.0352
60574W        W 3590  10.005  26.839  20.080 -0.0984  0.1126 -0.0861
60575W        W 3591  18.290  26.687  19.796 -0.1933 -0.2181 -0.0803
60576W        W 3592  13.137   6.637  28.682 -0.4023 -0.2696 -0.2555
60577W        W 3593  13.124   2.051  15.373 -0.0698 -0.0262  0.0924
60578W        W 3594  33.987  28.660  20.696  0.4454  0.1068 -0.1058
60579W        W 3595  12.697  22.763  14.923  0.0942 -0.0758 -0.1284
60580W        W 3596   9.533  31.870  21.635  0.0524  0.2431  0.0090
60581W        W 3597  15.158  19.937  22.806 -0.0878 -0.1380  0.1891
60582W        W 3598   8.291  21.239  25.099  0.0044 -0.4109 -0.4260
60583W        W 3599  11.419  26.030   8.532 -0.0552  0.4994  0.1973
60584W        W 3600   8.341  27.022   3.383 -0.0895 -0.0886 -0.2821
60585W        W 3601   2.328  27.394  19.877 -0.0950 -0.1263 -0.0130
60586W        W 3602  28.238  29.826  15.665 -0.0344 -0.2821 -0.3497
60587W        W 3603  14.782  14.204  22.336  0.4482  0.1212 -0.1037
60588W        W 3604  32.889   0.986  22.937  0.1051  0.0174 -0.0068
60589W        W 3605  16.549  31.078  18.074 -0.0017 -0.1006  0.0202
60590W        W 3606   7.704  32.115  19.533 -0.0260  0.2247 -0.0371
60591W        W 3607  11.895  21.331  12.107 -0.2428  0.1742 -0.0578
60592W        W 3608   8.228   1.135  15.187  0.2766 -0.0258 -0.1559
60593W        W 3609  11.785  14.932  14.510  0.0841  0.0900  0.1315
60594W        W 3610  20.327  12.096  16.472  0.0950 -0.3837 -0.1071
60595W        W 3611   7.454  32.444   2.792 -0.5102  0.0370 -0.0573
60596W        W 3612  17.554  18.533   6.547 -0.1485  0.1089 -0.0624
60597W        W 3613  10.215  29.947   3.202 -0.3347  0.2116 -0.0226
60598W        W 3614   7.363  13.706  18.283  0.3456  0.2925  0.5951
60599W        W 3615   1.962  24.903  18.074  0.1176  0.3160 -0.0807
60600W        W 3616   9.074   8.515  19.365  0.2306  0.0563  0.2784
60601W        W 3617  13.323   7.585  19.009 -0.0248  0.0996 -0.1940
60602W        W 3618   8.622  23.401  14.971  0.1640  0.0425 -0.1207
60603W        W 3619   9.084  29.915   7.677  0.2043  0.0011 -0.3780
60604W        W 3620  20.018   7.505   1.807  0.2716  0.1331  0.2499
60605W        W 3621  15.587   0.784  22.148  0.1089  0.0165 -0.0315
60606W        W 3622   8.620  30.296  15.265  0.0309 -0.0510  0.2517
60607W        W 3623  33.907  33.073  25.650 -0.2618 -0.3103  0.1289
60608W        W 3624  20.484  12.224  19.786 -0.0363 -0.3274 -0.1586
60609W        W 3625  24.008  33.258  25.562  0.0552  0.1288 -0.1574
60610W        W 3626  32.039   6.895  16.051 -0.0539 -0.0792  0.1246
60611W        W 3627   9.379  18.367   4.063 -0.1100 -0.0017  0.0404
60612W        W 3628  14.033   5.998  21.238  0.0519  0.2341 -0.3474
60613W        W 3629  18.315   7.071  17.858 -0.2262 -0.1384  0.2473
60614W        W 3630  14.725  29.914  24.617  0.1724 -0.0948  0.0078
60615W        W 3631  21.306   6.528  18.980  0.2956  0.1693  0.4977
60616W        W 3632   8.633   9.904  22.344  0.4397  0.0057 -0.0697
60617W        W 3633   3.575  31.885  25.060 -0.0263 -0.0177  0.0846
60618W        W 3634  20.338  26.678  14.392  0.1613 -0.1549 -0.1619
60619W        W 3635  34.415  24.857  28.880 -0.0627  0.3043  0.0072
60620W        W 3636  16.058  25.094   4.803  0.0686 -0.1357 -0.2956
60621W        W 3637  16.703  26.120  17.634  0.1413 -0.2217 -0.0497
60622W        W 3638   9.516  21.655  19.179  0.1392 -0.1076 -0.1227
60623W        W 3639  19.429  26.488  19.518 -0.0828  0.0305  0.0756
60624W        W 3640   8.246  21.243  28.022  0.0886  0.1130  0.2744
60625W        W 3641  17.403  29.515  28.101 -0.1203  0.1084 -0.3108
60626W        W 3642  23.070  30.481  18.922 -0.0237  0.0767 -0.1344
60627W        W 3643   7.721  27.872  19.310 -0.2566 -0.3736  0.1285
60628W        W 3644  15.293  20.497  15.009 -0.0960 -0.2153  0.4585
60629W        W 3645  14.467  13.404  12.488  0.0416  0.2282  0.0158
60630W        W 3646   9.170  13.067  13.461  0.1050  0.1286  0.4042
60631W        W 3647  18.065  31.324  22.120  0.0041  0.0307 -0.2072
60632W        W 3648  27.439  12.814  26.950  0.1085  0.2410  0.0650
60633W        W 3649  13.422  15.804  24.106  0.2309 -0.3087 -0.0926
60634W        W 3650  15.556   9.758  17.806 -0.0903  0.0235  0.2267
60635W        W 3651  15.421  17.099  15.768  0.0482  0.0098 -0.1325
60636W        W 3652  16.262  12.828  11.746  0.1698 -0.0061  0.0360
60637W        W 3653  25.154  10.473  22.525 -0.1642  0.0598  0.0422
60638W        W 3654  21.484   3.857  15.431 -0.5236  0.0134  0.0356
60639W        W 3655  22.212  27.322  25.473  0.2324  0.1072 -0.0071
60640W        W 3656  14.875  14.262  21.162  0.0097 -0.3264 -0.0109
60641W        W 3657  10.742  15.237  23.922 -0.0726 -0.1261  0.3785
60642W        W 3658   4.661  28.161  15.112 -0.0422  0.0864 -0.0234
60643W        W 3659   5.717  20.680  18.974 -0.1999 -0.0520 -0.0171
60644W        W 3660  12.050  11.032  13.965  0.2115 -0.1327 -0.0726
60645W        W 3661   4.827  25.800  27.615  0.2423  0.2779 -0.2607
60646W        W 3662  10.997  19.407  25.940  0.0819  0.2314 -0.3335
60647W        W 3663   7.492   7.887  14.523 -0.4670  0.0600  0.0823
60648W        W 3664  16.355  16.845   2.792  0.0290 -0.2699 -0.1613
60649W        W 3665  19.243   0.939  26.466  0.0121  0.2758  0.0647
60650W        W 3666  15.600  20.852  13.157  0.1384 -0.0525  0.1361
60651W        W 3667  33.386  16.575  18.620  0.0757 -0.3107 -0.1043
60652W        W 3668  12.453  32.380   7.870 -0.0249  0.1450 -0.2058
60653W        W 3669   9.884  13.887   0.899  0.1664 -0.1860  0.4219
60654W        W 3670  12.900  14.149  16.276 -0.0811  0.1421 -0.0709
60655W        W 3671  16.497   4.337   4.292  0.0282  0.2897 -0.0268
60656W        W 3672   8.363  17.839  19.157  0.0794  0.4014  0.4625
60657W        W 3673  18.469  20.255  15.843 -0.0406  0.1661  0.0341
60658W        W 3674   7.299  19.056  21.957  0.4354  0.0631 -0.0894
60659W        W 3675  21.534   4.937  24.355  0.1459  0.0566 -0.0270
60660W        W 3676  16.948  10.963  20.077 -0.0498 -0.0546 -0.0447
60661W        W 3677  26.362  22.542  16.024 -0.0532 -0.1370 -0.1133
60662W        W 3678   8.154  13.845  16.568  0.1992 -0.2769  0.2253
60663W        W 3679  10.907   9.047  15.102 -0.0050 -0.0151 -0.1861
60664W        W 3680  23.527   2.465  28.805  0.1819  0.0649 -0.0359
60665W        W 3681   6.857  14.474  14.425  0.0951  0.0631  0.2403
60666W        W 3682  14.650  19.823  13.060  0.0028  0.0758 -0.1542
60667W        W 3683   0.698  14.443  15.761  0.1606 -0.1610  0.2655
60668W        W 3684  27.163  32.517  15.504  0.2755 -0.0567  0.2338
60669W        W 3685  18.868  18.392  11.894  0.1666 -0.0997  0.5067
60670W        W 3686   9.399  11.910  22.237 -0.0409  0.1395  0.2420
60671W        W 3687   8.276  17.051  18.479  0.2966 -0.0820 -0.0146
60672W        W 3688  11.685   1.505  26.660 -0.1751 -0.1271  0.5095
60673W        W 3689  34.501   5.459  17.289  0.0305 -0.0419  0.1414
60674W        W 3690  28.875   4.922  21.667  0.2942  0.0168  0.0517
60675W        W 3691  25.000  10.813  18.295 -0.1667 -0.1505  0.2926
60676W        W 3692  19.867  23.355   5.341  0.1966  0.0932 -0.4346
60677W        W 3693   2.292  15.051   1.263 -0.2615 -0.1305  0.1750
60678W        W 3694   0.784  16.223   1.195 -0.1087  0.0147 -0.1604
60679W        W 3695  17.544  17.292   4.391 -0.2464  0.1518 -0.0640
60680W        W 3696  29.658  12.947  22.323 -0.0397 -0.1606 -0.1895
60681W        W 3697  26.920  29.952  16.894  0.1624 -0.0195  0.1417
60682W        W 3698  14.827  27.116   7.906  0.1220 -0.0791  0.2469
60683W        W 3699  26.458   1.641  16.636 -0.3901  0.2025 -0.1776
60684W        W 3700  13.307   3.921  17.531 -0.0610  0.3427  0.0486
60685W        W 3701  16.780   0.624  23.175  0.0573 -0.0523  0.0295
60686W        W 3702   9.192  32.499   0.038  0.0686 -0.2809 -0.1219
60687W        W 3703   8.964  12.325  21.434  0.1250  0.3452 -0.1033
60688W        W 3704   6.823  10.137  20.740 -0.0108 -0.1150 -0.3872
60689W        W 3705   7.708   7.182  23.828 -0.3439 -0.1327 -0.0819
60690W        W 3706   6.240  13.317   9.715  0.2658  0.1053 -0.0354
60691W        W 3707  11.382  10.222   2.787 -0.0704 -0.0013  0.2461
60692W        W 3708  22.269  18.860  20.050  0.0360 -0.0513 -0.1484
60693W        W 3709  16.088  10.543  12.541  0.0446 -0.1611  0.2345
60694W        W 3710   5.666  19.455  14.130 -0.0457  0.2386 -0.3975
60695W        W 3711  12.869   9.698  28.674  0.2498  0.1095  0.1161
60696W        W 3712   9.258  13.161  18.481  0.0481  0.2014 -0.0976
60697W        W 3713   5.628   9.484   2.993  0.0613 -0.1223 -0.2666
60698W        W 3714  25.819   9.321  18.783  0.0887  0.0502  0.1573
60699W        W 3715  21.006  14.529   8.682 -0.1859 -0.0637 -0.1207
60700W        W 3716  17.385  24.124  17.396 -0.0824  0.1276  0.4159
60701W        W 3717   9.891  21.653  16.875 -0.1713 -0.2275  0.2686
60702W        W 3718   2.840  23.351  18.590  0.2312 -0.0864 -0.1065
60703W        W 3719  13.399  21.730  22.199 -0.3598 -0.0889 -0.0263
60704W        W 3720   7.738  25.453  19.084 -0.2721  0.0296 -0.2226
60705W        W 3721  20.837  33.084  26.645  0.1537  0.1159  0.2451
60706W        W 3722  25.207  30.151  22.930 -0.0180  0.2128  0.3089
60707W        W 3723  33.100  14.497   8.840  0.0295 -0.0800 -0.0282
60708W        W 3724  11.170   6.288  18.678  0.2487  0.0233  0.3397
60709W        W 3725   6.845   5.501  14.421 -0.0689  0.1870 -0.0698
60710W        W 3726  13.104  29.201  15.091 -0.0829 -0.1278 -0.0936
60711W        W 3727  15.726  27.784  24.173 -0.2323 -0.2740  0.0520
60712W        W 3728  31.096  22.968   4.389 -0.3120 -0.2678 -0.1025
60713W        W 3729   4.514  12.891  27.570 -0.2687 -0.1565 -0.2331
60714W        W 3730   6.259   8.150   3.064 -0.0615 -0.1681 -0.0823
60715W        W 3731   3.834  21.476  26.474 -0.1643 -0.1879 -0.1167
60716W        W 3732   5.655  18.579   2.236 -0.0057  0.0668 -0.3321
60717W        W 3733  15.884  23.723  22.041 -0.1605  0.0427 -0.1256
60718W        W 3734   7.270  32.284  22.513 -0.0921 -0.1256 -0.2574
60719W        W 3735  15.003  15.316  22.236  0.0603  0.1164  0.1188
60720W        W 3736  12.173  17.576   0.861 -0.0095  0.1521 -0.0640
60721W        W 3737  25.247  15.257  13.892 -0.0012  0.4658  0.3726
60722W        W 3738   3.435  22.888   0.019 -0.0834  0.2582 -0.0103
60723W        W 3739  10.307  24.703   0.543 -0.0348 -0.3034  0.0228
60724W        W 3740  10.740  17.094  25.204 -0.1733  0.0913 -0.0619
60725W        W 3741  12.109  19.290  13.293  0.2086  0.2641  0.0862
60726W        W 3742   0.146  12.109  21.032  0.2162 -0.2568  0.3059
60727W        W 3743  10.587  31.936  16.053  0.0091  0.1038  0.2177
60728W        W 3744  11.037  16.879  24.672  0.1489 -0.0280 -0.1775
60729W        W 3745  14.043   7.756  16.015  0.4017  0.1103  0.3050
60730W        W 3746  26.971  27.440  18.594 -0.1983  0.2739  0.1825
60731W        W 3747  17.986  17.730   2.693 -0.1310 -0.1096  0.1862
60732W        W 3748   1.481  14.699  19.332  0.2138 -0.0899 -0.0785
60733W        W 3749  22.471  13.915  25.073  0.0907 -0.0179  0.1286
60734W        W 3750  31.880  24.766  24.338 -0.2404  0.0307  0.1082
60735W        W 3751  14.285  28.560  17.737 -0.0093 -0.1652 -0.4092
60736W        W 3752  15.737  19.404   1.166  0.1860  0.1127 -0.0312
60737W        W 3753   6.840   5.642  27.592 -0.1230  0.1317 -0.0803
60738W        W 3754  10.566   6.670   3.686  0.2761  0.0155  0.3272
60739W        W 3755   1.581  20.888   1.777 -0.2344  0.0492  0.0537
60740W        W 3756  16.107  17.173  24.858  0.1796  0.3332  0.2540
60741W        W 3757   7.710   2.074  19.662  0.0987  0.1272 -0.1470
60742W        W 3758  16.622  13.164  13.208  0.3072  0.3030 -0.0779
60743W        W 3759  10.815  16.248  12.397  0.0959 -0.1911  0.4451
60744W        W 3760   9.105   1.888   7.012 -0.0280 -0.0001 -0.1265
60745W        W 3761   7.756  26.806   1.040 -0.0421 -0.2523  0.3026
60746W        W 3762   4.020  16.282  20.100  0.0325 -0.0136 -0.5193
60747W        W 3763  19.774  24.089  22.784  0.2112  0.2049  0.1742
60748W        W 3764  29.315  22.315  20.790  0.2408 -0.0668  0.1289
60749W        W 3765   7.046   9.808   4.054  0.4062 -0.1417  0.0634
60750W        W 3766  10.373  12.323  17.420 -0.0297 -0.0694  0.1462
60751W        W 3767  11.492  11.607   6.471 -0.2790  0.3009  0.0268
60752W        W 3768   5.922  12.370  13.781  0.0888  0.0144  0.1457
60753W        W 3769   6.947  12.235  23.386  0.0484 -0.1612  0.0519
60754W        W 3770   7.015  30.871  22.630 -0.0024  0.2162 -0.0162
60755W        W 3771  31.658   1.545  28.745 -0.1474 -0.1801 -0.0919
60756W        W 3772  30.384  27.169   4.824 -0.1792 -0.1778 -0.0860
60757W        W 3773   3.453  17.062  29.085 -0.3145  0.1678 -0.0867
60758W        W 3774   7.065  14.737   6.583  0.2337  0.0962 -0.0500
60759W        W 3775  34.590  19.470  15.557 -0.0150  0.1758 -0.0123
60760W        W 3776   5.223   9.723   0.229 -0.1126 -0.0694 -0.0635
60761W        W 3777   8.963  28.399  22.868  0.2583 -0.1014  0.1990
60762W        W 3778  16.972  31.763  24.115 -0.0171 -0.1953 -0.0357
60763W        W 3779   1.484  20.025  26.221  0.2597  0.0217  0.0379
60764W        W 3780  34.567  27.692  22.967 -0.2291  0.0941  0.0635
60765W        W 3781  18.873  19.702   2.960  0.0011 -0.0455  0.2241
60766W        W 3782   8.387   3.077   7.435  0.4137  0.3313 -0.0746
60767W        W 3783  15.648  32.150  24.013  0.0103 -0.0629  0.1535
60768W        W 3784  10.131  11.487  13.796 -0.0864 -0.5459 -0.1962
60769W        W 3785  23.868  31.195  28.806  0.0566 -0.2363 -0.0444
60770W        W 3786  17.197  15.090   3.523  0.0644 -0.2435 -0.4526
60771W        W 3787   6.047  27.467   9.341 -0.2273  0.1746  0.1259
60772W        W 3788  13.913  24.985  21.568 -0.3827 -0.2729 -0.2714
60773W        W 3789  15.573  18.075  14.656 -0.1848  0.1612 -0.0201
60774W        W 3790   2.923  31.976   7.203  0.1062  0.0519 -0.1023
60775W        W 3791  17.044  21.491   5.420 -0.0682 -0.0498  0.1703
60776W        W 3792  25.031  29.328  19.584 -0.1621  0.1553 -0.2490
60777W        W 3793  15.274  11.734  24.290  0.3110 -0.1142 -0.0798
60778W        W 3794   6.478   5.764   2.214  0.0344 -0.0787  0.2216
60779W        W 3795  25.346  10.160   0.695 -0.2812  0.0277  0.2584
60780W        W 3796  13.013   0.547  23.263 -0.2232  0.0457  0.1089
60781W        W 3797   8.501   9.658  16.511  0.1502  0.0214  0.0265
60782W        W 3798   1.335  33.114  16.547  0.1353 -0.0483 -0.0109
60783W        W 3799  12.710  30.224   5.366 -0.0836 -0.3361 -0.2965
60784W        W 3800  19.306  21.102   5.244  0.0531 -0.1784 -0.3817
60785W        W 3801   6.160  20.820  19.602  0.0269 -0.1508 -0.3171
60786W        W 3802   7.905  22.501   4.336  0.3299  0.0813 -0.0768
60787W        W 3803   9.472   0.188  23.641  0.1989 -0.0556 -0.0586
60788W        W 3804  11.484  34.097   7.019 -0.0498 -0.1359  0.2185
60789W        W 3805   6.531   6.816   7.032 -0.0042 -0.1714  0.0233
60790W        W 3806  15.142  27.572   5.247 -0.1451 -0.1577  0.1789
60791W        W 3807  23.469   8.360  14.704  0.0987  0.2116 -0.1124
60792W        W 3808   9.718  14.901  29.254  0.3118  0.2272 -0.2150
60793W        W 3809  16.020  15.648  15.709  0.1288  0.3054  0.0381
60794W        W 3810  15.375  30.688   9.875 -0.0334  0.2188  0.3358
60795W        W 3811   0.540  31.586  21.932  0.1462 -0.2702  0.1044
60796W        W 3812  22.796  23.995  21.618  0.3026 -0.0842  0.0656
60797W        W 3813  13.446  25.147  17.141 -0.1884 -0.0304  0.1766
60798W        W 3814   6.959   9.802  21.148  0.1542 -0.0792  0.0522
60799W        W 3815   7.821   0.462  22.929  0.0957 -0.3979  0.2619
60800W        W 3816   5.000  11.678  16.591  0.1203 -0.1905  0.0211
60801W        W 3817  31.361  19.809  15.803 -0.1103 -0.1866  0.0009
60802W        W 3818  13.574  18.055  28.787 -0.3457  0.2227  0.1092
60803W        W 3819   2.795  22.327  20.114  0.0963  0.3704  0.2706
60804W        W 3820  10.110  34.647  15.295 -0.2992 -0.1875  0.0929
60805W        W 3821   7.502  28.473   2.511  0.2186 -0.4569  0.0011
60806W        W 3822  10.164   4.995   6.724  0.2507 -0.0036 -0.0233
60807W        W 3823  11.666   5.626  22.540  0.1479 -0.0694  0.0327
60808W        W 3824  31.756  27.834   7.780 -0.0392 -0.3448  0.4709
60809W        W 3825  24.316   7.563   5.603 -0.0830  0.3086  0.1489
60810W        W 3826  13.377  27.407  23.684 -0.1550 -0.0207  0.1424
60811W        W 3827  34.181  13.802  10.751  0.1148 -0.3957 -0.2260
60812W        W 3828  16.261  21.003  15.862 -0.3710 -0.0089  0.0589
60813W        W 3829   8.500  28.944  27.232 -0.1139  0.3481 -0.0262
60814W        W 3830   7.724   1.869  25.843 -0.1153 -0.1046 -0.1229
60815W        W 3831  17.767  11.060  18.213 -0.1901 -0.2379  0.0454
60816W        W 3832  26.159   6.890  25.958 -0.2988  0.2435  0.0484
60817W        W 3833  31.324  25.613   8.507 -0.1270 -0.1656 -0.1777
60818W        W 3834  16.050  29.458   1.541  0.0739 -0.3614  0.2642
60819W        W 3835  21.312  13.349  19.284 -0.1526  0.0452  0.0438
60820W        W 3836  11.171  24.067  13.316 -0.0327  0.0837  0.2317
60821W        W 3837   3.615  24.764  19.047 -0.0046 -0.0218 -0.1713
60822W        W 3838  28.823  18.476  20.931  0.0399  0.0804 -0.0067
60823W        W 3839  34.008   8.058  27.973  0.0124  0.0397  0.1039
60824W        W 3840   1.452   7.985  27.510  0.0423 -0.0825 -0.1522
60825W        W 3841  18.728  30.636  16.316 -0.2810  0.2582  0.0936
60826W        W 3842  11.955   2.253  26.435  0.0840 -0.0004  0.0700
60827W        W 3843  15.515   5.260   6.668 -0.2786  0.0568 -0.0333
60828W        W 3844  29.015  16.185  21.417  0.1267 -0.1446  0.1707
60829W        W 3845  24.859  15.178  19.445  0.1352 -0.1332  0.0245
60830W        W 3846  31.856  20.598   8.618 -0.1615 -0.1826 -0.0219
60831W        W 3847  11.710  32.361  26.910 -0.0569 -0.0342 -0.0670
60832W        W 3848  12.261  17.484  28.947  0.0836 -0.0502 -0.0429
60833W        W 3849  18.228  14.202  15.038  0.0988  0.2776  0.0131
60834W        W 3850   0.974  27.054  15.884 -0.0475 -0.2651 -0.2932
60835W        W 3851  15.853  23.871   1.945  0.1616  0.2817  0.0513
60836W        W 3852   0.959  21.135  19.232  0.0899  0.0833  0.1438
60837W        W 3853  15.152  26.932  23.078 -0.0159  0.0109  0.0752
60838W        W 3854   8.991   2.210   0.499  0.1728  0.0127  0.3477
60839W        W 3855   7.328  26.988  17.168 -0.2130  0.2865  0.0573
60840W        W 3856  15.534  33.147  26.179 -0.2863  0.0762  0.1922
60841W        W 3857  34.172  21.228   7.415  0.1515  0.1810 -0.3181
60842W        W 3858  30.885  29.945  11.328 -0.0865 -0.0429  0.0080
60843W        W 3859  12.399  19.310  11.679 -0.1135  0.0060  0.0866
60844W        W 3860   9.897  26.455  22.458  0.0426 -0.0919  0.0931
60845W        W 3861  24.304  15.430   0.403  0.0579  0.1942 -0.1086
60846W        W 3862  15.387  32.553  23.699 -0.1462 -0.0764 -0.0505
60847W        W 3863  11.812  23.379  19.186  0.0889  0.1020 -0.3333
60848W        W 3864  16.272  22.511  28.648 -0.1125 -0.2151 -0.0497
60849W        W 3865  16.726  31.689  17.862 -0.0841 -0.0710  0.1026
60850W        W 3866  24.213   8.056  19.994  0.2647 -0.2988 -0.1058
60851W        W 3867  13.717  26.216  27.315 -0.0011 -0.0348  0.0630
60852W        W 3868  15.906  33.682  24.957 -0.0261 -0.5471  0.1727
60853W        W 3869   3.185  32.619   2.360 -0.0845  0.2128 -0.1827
60854W        W 3870  15.170  32.610  23.040  0.1114  0.1244 -0.2867
60855W        W 3871   3.305  32.230  20.437  0.2256 -0.1465  0.0972
60856W        W 3872  15.626   2.966   3.134  0.0478 -0.0895 -0.0863
60857W        W 3873  30.104  10.056  18.640  0.2426 -0.0772 -0.0690
60858W        W 3874  15.823  13.558  13.142 -0.3561 -0.0356 -0.3166
60859W        W 3875  18.030  14.770   0.700 -0.3531  0.3103 -0.1266
60860W        W 3876  11.264   1.704  14.385  0.0510 -0.0729 -0.1680
60861W        W 3877  29.724  20.952  24.887  0.0455 -0.0381  0.1395
60862W        W 3878  14.082  20.801  13.462  0.0778 -0.0004 -0.4143
60863W        W 3879  22.787  30.975   3.402 -0.0602 -0.1592 -0.2591
60864W        W 3880  10.544  26.027  28.360  0.2602  0.2458  0.0190
60865W        W 3881   6.516  11.994  15.590  0.1847 -0.0830  0.1252
60866W        W 3882   9.154   0.201  21.498  0.1827  0.0047 -0.0922
60867W        W 3883  20.675  24.159  27.791 -0.1046 -0.2571 -0.2802
60868W        W 3884  17.314  13.227  24.069  0.3257 -0.0063 -0.0435
60869W        W 3885  22.472  24.752  19.765 -0.0981  0.3131 -0.0301
60870W        W 3886   5.583  18.188  26.281 -0.2049  0.1621 -0.1401
60871W        W 3887  10.378  16.690   2.041  0.3685 -0.0453  0.1055
60872W        W 3888  14.737  13.809  20.440  0.3764  0.0674 -0.0864
60873W        W 3889   7.504  16.432  21.949 -0.0316  0.1076  0.1667
60874W        W 3890   2.762  24.530  17.905  0.3609  0.1448 -0.0602
60875W        W 3891   8.250  12.274  17.107  0.2309 -0.2653  0.1807
60876W        W 3892  19.913  18.775  13.623 -0.1242 -0.3578 -0.0512
60877W        W 3893  13.198  19.636  25.347 -0.0961 -0.1483 -0.1716
60878W        W 3894  17.596  34.191   2.858  0.2435  0.1863 -0.1373
60879W        W 3895   6.776  19.981  14.989  0.0263  0.0999  0.2303
60880W        W 3896  24.305  16.102  19.077  0.2866  0.0128 -0.0307
60881W        W 3897  23.545  26.785  29.276 -0.0116 -0.2623  0.0351
60882W        W 3898  33.288   6.538  21.352  0.2201 -0.2149 -0.0724
60883W        W 3899   5.156  14.535  15.721 -0.3369 -0.0757 -0.0558
60884W        W 3900  10.625  27.183   3.831  0.0158  0.2596  0.1989
60885W        W 3901   6.189  21.267  19.442  0.0438 -0.0544 -0.1325
60886W        W 3902  13.147  34.186  20.908  0.0260 -0.2351  0.0485
60887W        W 3903  31.120  13.713  17.458  0.0241  0.3143  0.4512
60888W        W 3904  27.805  21.671  20.095  0.2820  0.2969 -0.3862
60889W        W 3905  32.597   6.685  25.063 -0.3212  0.1120  0.1618
60890W        W 3906  26.221  32.373  20.778  0.1496  0.0434  0.2456
60891W        W 3907  10.134  23.383  17.840 -0.2995 -0.0827  0.0115
60892W        W 3908  18.799  18.207   5.593 -0.1327  0.1581  0.0381
60893W        W 3909  11.517   9.692   4.390 -0.0994 -0.1385 -0.1838
60894W        W 3910   9.374  11.354  19.314  0.1966  0.1309  0.0543
60895W        W 3911  22.544  14.113   1.771  0.0287 -0.0248  0.3412
60896W        W 3912  21.078  20.443   1.806 -0.0590  0.1778 -0.0970
60897W        W 3913  24.530  20.687   9.528 -0.0473  0.1094 -0.0641
60898W        W 3914   5.889  13.608  21.980 -0.0946 -0.0009  0.1554
60899W        W 3915  32.107  11.306  18.198  0.1212 -0.2136 -0.0720
60900W        W 3916   6.883  26.814   6.366 -0.1330  0.0643 -0.2920
60901W        W 3917   6.564  16.911  21.391  0.0347 -0.1446 -0.0681
60902W        W 3918   7.357  23.053   8.879  0.0809 -0.3175 -0.3410
60903W        W 3919  11.742  14.082  19.347 -0.4292 -0.0901 -0.2225
60904W        W 3920   9.366  19.863   5.546  0.1197  0.2682 -0.1446
60905W        W 3921  11.393  30.772  22.457 -0.2672 -0.1613 -0.0097
60906W        W 3922  16.313  10.028   4.826  0.1790  0.1752  0.3169
60907W        W 3923  12.858   5.900   6.713 -0.5882 -0.2689 -0.2414
60908W        W 3924   8.912  26.626   2.582  0.3016 -0.1397  0.0741
60909W        W 3925  23.011   0.614  25.615  0.5389 -0.1645 -0.0385
60910W        W 3926  34.104  26.973  24.458  0.3624 -0.0405  0.5322
60911W        W 3927   4.807  17.868  26.554 -0.0400  0.0265  0.0077
60912W        W 3928   1.818   3.130  21.470 -0.0078 -0.2028 -0.1120
60913W        W 3929  12.383  28.134   0.424  0.1519  0.0150  0.0933
60914W        W 3930   0.061  10.931  15.683  0.1010 -0.0712  0.4770
60915W        W 3931   8.178  24.461  16.573 -0.2954 -0.2111 -0.0670
60916W        W 3932  26.951  21.599  16.681  0.2541 -0.0493 -0.1374
60917W        W 3933   9.892  26.100   3.044  0.2746  0.1964  0.0625
60918W        W 3934  18.932  23.785  21.955  0.0851  0.0650  0.0820
60919W        W 3935  19.183  15.278   3.303 -0.2648 -0.2100  0.3438
60920W        W 3936   5.205  33.643  21.710  0.1527 -0.1360  0.0991
60921W        W 3937   4.155  13.401  17.785 -0.3316  0.2316 -0.0201
60922W        W 3938   7.425   8.951  19.098  0.1794 -0.0780  0.0054
60923W        W 3939  26.961  25.517  21.473 -0.1037 -0.0541  0.1209
60924W        W 3940  12.685   2.558   6.690 -0.4547 -0.0908 -0.4161
60925W        W 3941  16.453  33.093  27.091  0.0983 -0.0066  0.1286
60926W        W 3942   7.566  21.382  27.473  0.2287 -0.2409  0.0332
60927W        W 3943  24.912  10.082  25.441 -0.0704  0.3611 -0.0709
60928W        W 3944   4.252  17.710  29.012  0.3052  0.0095  0.4183
60929W        W 3945   5.373  24.955  24.249 -0.1488 -0.0034  0.2554
60930W        W 3946   3.075  16.159   7.123  0.3922  0.0116 -0.2681
60931W        W 3947   2.182  28.954  18.245 -0.0060 -0.0656  0.0944
60932W        W 3948  19.204  17.698  22.285 -0.0568 -0.1076  0.0044
60933W        W 3949  20.803   2.428  14.458  0.0485 -0.2255 -0.0542
60934W        W 3950  29.133  27.185   7.989 -0.1230 -0.0293 -0.0376
60935W        W 3951  19.303  15.816   1.379 -0.0389  0.0699  0.2453
60936W        W 3952  25.819   2.937   1.513 -0.2511 -0.0024 -0.1732
60937W        W 3953   5.212  19.317  22.056  0.0333 -0.0071  0.0233
60938W        W 3954  32.315  27.244  24.665 -0.0269 -0.0950  0.0422
60939W        W 3955  20.775  23.637  22.467  0.4377  0.0387 -0.1052
60940W        W 3956   4.473  17.555   0.193 -0.1240  0.1014 -0.2875
60941W        W 3957  18.174  17.608   8.022  0.0054  0.1271  0.1950
60942W        W 3958   8.088  31.666  28.885  0.4217 -0.0723 -0.4311
60943W        W 3959  32.393  20.706  16.666 -0.0399  0.2196 -0.0708
60944W        W 3960   9.182  13.070  22.980 -0.3306 -0.2986 -0.2475
60945W        W 3961  27.456   2.953  27.868  0.0307 -0.1386  0.0564
60946W        W 3962  30.250  21.262   6.773 -0.0949  0.2366  0.0774
60947W        W 3963   9.316  20.778  28.374 -0.3255 -0.2852 -0.0697
60948W        W 3964   7.003  27.903  21.817  0.1853  0.1467 -0.0309
60949W        W 3965  34.123  34.755  20.587  0.2800  0.0572 -0.0418
60950W        W 3966  14.597  29.264  17.385  0.2446 -0.3011 -0.1815
60951W        W 3967   0.616  30.078  17.186  0.0676  0.0537  0.2245
60952W        W 3968   0.471  15.737   5.294 -0.4073 -0.2541 -0.1007
60953W        W 3969  26.268  25.634  18.333 -0.1583  0.3626 -0.2035
60954W        W 3970   0.292  21.274  20.476 -0.1506 -0.1180 -0.5006
60955W        W 3971   3.648  14.203   0.880 -0.3165  0.0568  0.1464
60956W        W 3972   0.128  31.540  23.363  0.1636 -0.0296 -0.1344
60957W        W 3973  11.572  20.508  12.721 -0.1915 -0.2464  0.0777
60958W        W 3974   5.902   9.073   5.793  0.1454  0.2725 -0.0843
60959W        W 3975  17.836   5.124  22.337  0.0580  0.0888 -0.1293
60960W        W 3976   0.575   7.183  23.149  0.3091  0.3070 -0.5643
60961W        W 3977  27.403   9.841  20.758  0.0148  0.0848 -0.0443
60962W        W 3978  27.793  22.361  16.512 -0.0165  0.0487 -0.0568
60963W        W 3979  17.004  27.596  23.884 -0.0059  0.1506 -0.0110
60964W        W 3980   5.797  15.366  28.849 -0.0689  0.0228  0.0689
60965W        W 3981  13.269  22.889  22.193 -0.0693 -0.0596 -0.1450
60966W        W 3982   6.371  26.630  26.740  0.0927 -0.0791 -0.1243
60967W        W 3983  23.794  19.568  23.948  0.0966 -0.1512  0.1996
60968W        W 3984  25.505  15.242  17.948  0.0302 -0.0999 -0.5993
60969W        W 3985  10.437  16.524  19.043  0.3144 -0.0419  0.0756
60970W        W 3986   7.865  24.485  17.383  0.0024 -0.1843 -0.0078
60971W        W 3987   8.717  17.547  15.327  0.0796  0.0228  0.2587
60972W        W 3988  16.960  27.473  28.935 -0.3639 -0.1285 -0.1443
60973W        W 3989  32.741  13.479  21.408  0.3283 -0.0298  0.5451
60974W        W 3990   8.625  10.382   8.298  0.2880 -0.0245 -0.1819
60975W        W 3991   8.692  16.396  19.827  0.0407  0.3263  0.0714
60976W        W 3992  27.065  21.342   1.640 -0.0603  0.1712  0.4018
60977W        W 3993  14.980  26.923  17.338 -0.2380 -0.1836  0.0517
60978W        W 3994  33.052  25.471  24.989 -0.2246 -0.0618 -0.1942
60979W        W 3995  10.168  17.232  24.608  0.3070 -0.1552  0.1514
60980W        W 3996   9.803  10.168  25.068  0.4048 -0.0127 -0.2375
60981W        W 3997  27.774   9.752   0.442  0.0304 -0.0753 -0.0020
60982W        W 3998  17.308  16.492  12.638  0.0219  0.0659  0.2185
60983W        W 3999   4.217  14.533  27.572 -0.3527 -0.3194  0.0777
60984W        W 4000   9.045  14.445  20.535  0.1429  0.1323 -0.3174
60985W        W 4001  21.677   9.149   2.141  0.0165 -0.0280 -0.0571
60986W        W 4002  17.241  20.260   1.467 -0.0028 -0.1078  0.2023
60987W        W 4003  19.544  24.203   0.599 -0.0262 -0.4563 -0.0337
60988W        W 4004  13.664  20.313   5.927 -0.2429  0.0024  0.0230
60989W        W 4005  17.734   6.048  18.956 -0.2788  0.3042 -0.0837
60990W        W 4006  10.811  23.163  23.100 -0.1914 -0.0036  0.1362
60991W        W 4007  15.214   3.755  24.512 -0.2000  0.1449 -0.0284
60992W        W 4008   6.105  21.781  18.643 -0.1087 -0.5388  0.0668
60993W        W 4009  12.396  20.163  27.414  0.4255  0.4342  0.2831
60994W        W 4010  20.782  27.739  20.025  0.2487 -0.0417 -0.1044
60995W        W 4011   6.973   2.583  25.500  0.0707 -0.0638  0.0114
60996W        W 4012   4.813  15.665  26.552  0.2074  0.0838  0.1651
60997W        W 4013  15.846  26.356   0.812 -0.1745 -0.1692  0.0393
60998W        W 4014  17.089  28.216  21.868 -0.1270  0.1350 -0.1763
60999W        W 4015   8.998  27.401  28.445  0.0067  0.2740 -0.0666
61000W        W 4016   4.977  14.125   9.091  0.0534  0.0013  0.1690
61001W        W 4017  24.624  28.799  27.719  0.2424 -0.2112  0.2162
61002W        W 4018  21.372   9.202  14.204 -0.1119  0.1082  0.1010
61003W        W 4019  20.724  32.247  22.037 -0.1752 -0.0411 -0.0543
61004W        W 4020   9.952  27.565  25.827  0.1458 -0.2798 -0.0304
61005W        W 4021   9.819  31.085  16.713 -0.1162 -0.0767 -0.0498
61006W        W 4022   6.509  19.614  26.294  0.4756  0.3174  0.2210
61007W        W 4023   9.947  18.646  12.980  0.0812 -0.0315  0.0530
61008W        W 4024   4.243  21.339  18.278 -0.3426  0.2036  0.4572
61009W        W 4025  13.161   2.762  25.441  0.1638 -0.0590  0.2129
61010W        W 4026  27.694  24.557  16.306  0.0393 -0.2005  0.0720
61011W        W 4027  17.478  17.933  15.840  0.3122 -0.1718  0.0215
61012W        W 4028  16.977  21.285   7.993  0.1023 -0.0310 -0.2611
61013W        W 4029  15.523  30.484  16.805  0.3722 -0.1562 -0.0899
61014W        W 4030  19.827  30.314  22.000  0.3020 -0.1080  0.0334
61015W        W 4031  10.086  25.806  13.091 -0.2742  0.2271  0.1868
61016W        W 4032  15.503  16.624  22.914  0.0479 -0.2026  0.0270
61017W        W 4033  15.183   4.901  20.928 -0.0994  0.0620 -0.0079
61018W        W 4034  33.836  13.360   8.336  0.1169 -0.1289  0.2328
61019W        W 4035   8.441  20.749  14.970 -0.1200 -0.0226 -0.2609
61020W        W 4036   3.620   6.821  20.919 -0.2197  0.0308  0.1984
61021W        W 4037  19.293  27.802  20.160  0.0267  0.0465 -0.0742
61022W        W 4038  16.166   0.630  17.391  0.3204 -0.3515 -0.1564
61023W        W 4039  31.448  21.304   4.113  0.1798  0.0865 -0.0900
61024W        W 4040   5.431  26.364   0.308  0.2014 -0.0920  0.2005
61025W        W 4041  31.862  21.319   9.074 -0.2296 -0.1781 -0.2307
61026W        W 4042  19.585   5.359   3.279 -0.0210 -0.0300  0.0061
61027W        W 4043  17.878  16.441   2.090  0.1152 -0.0729 -0.0083
61028W        W 4044  17.927  28.047  25.426 -0.0625 -0.0147  0.0462
61029W        W 4045  28.816  16.446   6.813 -0.0321  0.0459  0.0421
61030W        W 4046   4.954   1.391   4.819 -0.0465 -0.0028 -0.2851
61031W        W 4047   7.390  21.732   1.148 -0.0245  0.2560  0.0935
61032W        W 4048  17.397   3.272   1.307  0.2281  0.2510 -0.4847
61033W        W 4049  11.069   5.394  24.851  0.0486 -0.2008  0.1470
61034W        W 4050   4.635  29.091   2.391  0.1462  0.0828  0.1425
61035W        W 4051   4.332   0.676  29.097 -0.5014  0.0860  0.0310
61036W        W 4052   3.992  25.439   5.345 -0.3611 -0.4677  0.1151
61037W        W 4053   7.481  11.485   1.810  0.1164  0.1769 -0.1887
61038W        W 4054  32.169   9.292  29.309  0.0041  0.0823 -0.3810
61039W        W 4055   1.739   0.638  24.554  0.0957  0.2539  0.0513
61040W        W 4056  31.610  11.825   8.782 -0.3259 -0.2118 -0.0364
61041W        W 4057   0.964   9.535   9.008  0.2182 -0.2064  0.1431
61042W        W 4058  16.017  22.416  20.875 -0.2288  0.0839  0.0884
61043W        W 4059  31.416   3.299  21.515 -0.2074  0.1370 -0.0518
61044W        W 4060   6.445  19.947  27.813 -0.0490  0.0450  0.2587
61045W        W 4061   9.269  24.730  20.885 -0.3685  0.1522  0.0829
61046W        W 4062  10.055   7.853   4.971 -0.1623  0.1461  0.1095
61047W        W 4063  14.108  17.496   5.380  0.0149 -0.2126  0.0810
61048W        W 4064  16.268  14.174  22.877 -0.0786 -0.0272  0.1284
61049W        W 4065  15.536   1.056  24.804 -0.4302 -0.0463 -0.1248
61050W        W 4066  15.103  27.724  28.995  0.0430 -0.1352  0.1800
61051W        W 4067  15.169  18.456   1.433 -0.2179  0.0322  0.0455
61052W        W 4068   7.501   8.028   5.933  0.2210 -0.1098  0.2071
61053W        W 4069  15.265  14.130  22.480  0.1812  0.3413 -0.0723
61054W        W 4070  20.129  26.556  29.231 -0.0359  0.1898  0.1968
61055W        W 4071  29.524   0.363  17.114 -0.1522 -0.1502 -0.2008
61056W        W 4072   5.861  15.851   1.454  0.0928 -0.0805 -0.0228
61057W        W 4073  19.386  34.562  10.302  0.0169  0.1207 -0.0041
61058W        W 4074   5.693  25.557  19.034 -0.0450 -0.1481  0.3092
61059W        W 4075  30.645  21.127   1.609  0.1215  0.1665 -0.0783
61060W        W 4076   9.728  18.894  20.620 -0.1859  0.0957 -0.4304
61061W        W 4077  24.863  23.761   6.891  0.0463  0.4208  0.2644
61062W        W 4078  33.854  26.829   4.891  0.0327  0.1417  0.0583
61063W        W 4079  13.128  24.783  13.818 -0.1086  0.3533  0.0621
61064W        W 4080  22.776  24.947  21.552 -0.0816  0.0205 -0.1776
61065W        W 4081  18.448  22.883  19.827  0.0059  0.0259 -0.0408
61066W        W 4082   3.763  12.923   8.209  0.0816 -0.2687  0.2178
61067W        W 4083   6.638  25.002   4.318 -0.3238 -0.1590 -0.3677
61068W        W 4084   4.184  24.149  24.414 -0.1545 -0.2618 -0.0258
61069W        W 4085   0.461  31.689  20.044  0.0104  0.0310  0.0892
61070W        W 4086  24.432  21.921  21.378 -0.3115  0.2978 -0.1878
61071W        W 4087  17.420  15.412  19.149 -0.0739  0.1640 -0.1283
61072W        W 4088  25.205   4.850   2.450  0.0751 -0.4020  0.2119
61073W        W 4089  23.283  23.093  19.500  0.1295  0.0279  0.2739
61074W        W 4090  23.648  12.683  26.540 -0.0954  0.0868  0.2925
61075W        W 4091   9.590   8.779   9.222 -0.1600  0.1711 -0.0677
61076W        W 4092  16.909  24.105  12.402  0.2162  0.2035  0.1070
61077W        W 4093  24.698  20.758   8.785  0.1974  0.1653  0.0070
61078W        W 4094  31.688  19.215  28.984  0.3572  0.0907  0.1774
61079W        W 4095  20.545  24.628  25.693 -0.1466  0.1033  0.1957
61080W        W 4096  33.222   9.111  18.386  0.1678  0.0609 -0.2526
61081W        W 4097   0.192   9.208  27.579  0.0471 -0.1213  0.1932
61082W        W 4098  12.161  16.655  19.248  0.1292 -0.0314  0.0638
61083W        W 4099  19.715  21.667  25.934 -0.4343 -0.5470  0.2272
61084W        W 4100  10.457  27.364  21.205 -0.1537 -0.0780 -0.4255
61085W        W 4101  31.375  14.096   9.088  0.0066  0.2140  0.0654
61086W        W 4102  11.731  12.762   6.181 -0.3621 -0.1036  0.0889
61087W        W 4103   6.106  19.943   7.917  0.1154  0.3036 -0.1213
61088W        W 4104   3.209  31.447   3.139 -0.0772 -0.0459  0.0854
61089W        W 4105  12.094  24.336   2.906  0.1685 -0.2520 -0.1241
61090W        W 4106   8.050  16.945   8.211 -0.2072 -0.1470  0.2845
61091W        W 4107   9.760  25.251  22.749  0.0341 -0.0602 -0.0159
61092W        W 4108  10.502  22.953   1.928 -0.2134 -0.0058  0.0216
61093W        W 4109  18.439  19.354  27.603 -0.0608 -0.0171  0.3809
61094W        W 4110  19.634   3.166  23.174 -0.0545 -0.3277  0.1124
61095W        W 4111  20.152  17.415   6.947  0.0715  0.0193 -0.2779
61096W        W 4112  12.438   1.252  21.839  0.0582 -0.0579 -0.1665
61097W        W 4113  26.437  15.718   5.621 -0.1512 -0.2028 -0.1704
61098W        W 4114  16.221  21.752   5.257  0.2503 -0.1658 -0.0589
61099W        W 4115  10.717   5.677  24.598 -0.1194 -0.1915  0.2103
61100W        W 4116   0.627  30.463   4.104 -0.1372 -0.0206 -0.1868
61101W        W 4117   1.231   8.446  27.196 -0.2734  0.1318  0.0837
61102W        W 4118  33.529  20.229   2.903  0.1088 -0.1427  0.0294
61103W        W 4119  21.283  13.955  20.424  0.0722  0.3455  0.2764
61104W        W 4120   7.313   6.053  16.309 -0.2164  0.1493  0.1263
61105W        W 4121   7.711   9.702   5.560  0.1057 -0.1650  0.2031
61106W        W 4122  12.486  17.951   7.552 -0.1354  0.3265 -0.0861
61107W        W 4123   4.850  18.770   7.306  0.0943 -0.1822  0.0427
61108W        W 4124  15.934  16.332  14.799  0.0550  0.0529  0.3405
61109W        W 4125  34.248  33.646   7.391  0.0267 -0.0613 -0.0398
61110W        W 4126  12.194  24.806  12.719 -0.0539  0.0064 -0.0461
61111W        W 4127  10.388  32.304   5.666  0.1442 -0.2540 -0.0741
61112W        W 4128  24.053  27.387  28.650  0.2838  0.0755 -0.3481
61113W        W 4129  14.729   2.921  18.285  0.1982  0.0526 -0.0146
61114W        W 4130  18.228  18.074   5.248  0.3711 -0.0212  0.4267
61115W        W 4131   7.159  10.520   1.022 -0.0341  0.0712 -0.1962
61116W        W 4132  31.922  22.693  23.167 -0.2051 -0.1836 -0.0863
61117W        W 4133  32.547  10.276  20.513 -0.0160  0.1002  0.0193
61118W        W 4134  31.241  16.138  22.484 -0.0309 -0.2031 -0.0303
61119W        W 4135  18.276  20.463   8.078  0.0335  0.0950 -0.0001
61120W        W 4136  23.578  20.710  23.401  0.1502  0.4348  0.0334
61121W        W 4137  24.306  16.543  17.329 -0.0302  0.0045  0.0820
61122W        W 4138  17.686  18.379  12.331  0.0599  0.3569 -0.0011
61123W        W 4139  20.292  29.507  23.944 -0.0201  0.1132  0.0104
61124W        W 4140  10.508  33.916   7.138  0.1925  0.1175 -0.0328
61125W        W 4141  14.390  30.938   2.292  0.4025  0.0795 -0.4769
61126W        W 4142  25.444  23.396  27.681  0.1651 -0.2870  0.0829
61127W        W 4143  12.727  23.734   0.801  0.2208 -0.1379  0.0997
61128W        W 4144  17.806  15.401   4.626  0.1088  0.1242 -0.0204
61129W        W 4145   8.472  17.985  24.527  0.0742  0.0616 -0.1086
61130W        W 4146  19.581  24.545  17.392  0.1738  0.1130  0.2732
61131W        W 4147   5.072  10.392   1.148  0.0210  0.0091 -0.0339
61132W        W 4148   7.361  20.129  16.261 -0.2652 -0.1032  0.2959
61133W        W 4149  13.323  23.912  23.622 -0.0807  0.0583  0.0705
61134W        W 4150   2.725  25.541  10.397 -0.1485 -0.1237 -0.3456
61135W        W 4151   2.551   3.050   1.437  0.2658  0.0941 -0.0965
61136W        W 4152   4.315  20.561  23.111 -0.1448  0.2044  0.1516
61137W        W 4153  18.844  27.756   7.958  0.1651 -0.0947 -0.0647
61138W        W 4154  18.273   7.067  26.120  0.2961 -0.0050  0.1052
61139W        W 4155   7.200  13.341  17.610  0.1577 -0.0263 -0.0782
61140W        W 4156  22.422  12.006   2.060 -0.0321  0.0911 -0.0176
61141W        W 4157   7.849  29.726   9.576 -0.0194  0.4196  0.3727
61142W        W 4158  15.960  27.510  22.129 -0.0418 -0.0845 -0.1846
61143W        W 4159   8.937   9.547  25.722  0.1278  0.1125  0.0350
61144W        W 4160  22.596  19.760   0.706 -0.2845  0.0556  0.0698
61145W        W 4161  32.573   5.097   6.180  0.1773 -0.1459  0.1377
61146W        W 4162  21.847  12.282   5.025  0.0221  0.0242  0.1022
61147W        W 4163  10.510  21.524  19.394  0.0196  0.0103  0.1171
61148W        W 4164  18.623  24.906  26.241 -0.0191  0.1807 -0.0019
61149W        W 4165  23.737  31.112  18.233 -0.0743  0.1763  0.1890
61150W        W 4166  16.790  12.400  13.820  0.1958  0.0074  0.0416
61151W        W 4167  10.545  28.547  28.655 -0.1493  0.0706  0.0375
61152W        W 4168   8.255  18.088  14.771  0.1604  0.0836 -0.1911
61153W        W 4169  33.271   9.700  26.082  0.2358 -0.2470 -0.0820
61154W        W 4170  13.818  15.771   2.118 -0.2460 -0.1431  0.0900
61155W        W 4171  16.809   5.217  22.496 -0.1184  0.0192  0.1683
61156W        W 4172   4.748   9.944   9.231  0.3144 -0.0216 -0.1466
61157W        W 4173   6.695  18.393  17.387 -0.1284 -0.1834  0.0284
61158W        W 4174  12.215  20.995   0.253 -0.3370 -0.3001  0.1059
61159W        W 4175   8.303   7.180   0.267 -0.3271 -0.1762 -0.4587
61160W        W 4176   5.949  25.592  14.774 -0.3876  0.1606 -0.1116
61161W        W 4177  30.534   4.014   8.791  0.0282 -0.0422 -0.4855
61162W        W 4178  26.902  12.116   8.428 -0.2844  0.1088 -0.2416
61163W        W 4179  12.351  14.045   7.792  0.1205  0.3588 -0.3316
61164W        W 4180  19.291  23.196   1.476 -0.1171 -0.1210 -0.2106
61165W        W 4181  20.010  25.033  14.406 -0.0873 -0.0500  0.1563
61166W        W 4182  17.297  21.667   6.816  0.0251 -0.0546  0.1117
61167W        W 4183   8.421   4.243  21.986 -0.1851 -0.0458 -0.0791
61168W        W 4184  18.585  23.248  14.482  0.0744  0.0285 -0.1988
61169W        W 4185   5.899  25.661   5.761  0.1563  0.1072  0.1724
61170W        W 4186   4.535  29.602   1.835 -0.1920  0.2248 -0.2828
61171W        W 4187  32.066  30.162   4.520 -0.0937  0.1203 -0.0558
61172W        W 4188  11.764  21.523   5.199 -0.0202  0.0144  0.1041
61173W        W 4189  34.653  29.999   0.978 -0.0140  0.0559  0.1029
61174W        W 4190   3.851  16.870  27.282 -0.0579  0.2161  0.0121
61175W        W 4191   2.179  23.323  20.360 -0.0394  0.2046 -0.0135
61176W        W 4192   2.957  33.516  22.154  0.1743 -0.0015  0.3390
61177W        W 4193  32.268  26.187  15.929 -0.1190  0.0017  0.1268
61178W        W 4194  24.543  22.060  14.334 -0.3662  0.3877  0.1299
61179W        W 4195  32.201  12.618  24.995 -0.0659 -0.0280  0.0861
61180W        W 4196   0.152  17.986   0.484 -0.2088  0.1856 -0.0245
61181W        W 4197  18.515  12.198  20.945 -0.1546  0.0569 -0.1107
61182W        W 4198   6.938  17.044  24.816 -0.1079  0.0471  0.4489
61183W        W 4199  24.808  14.186  26.575  0.1516 -0.0077 -0.0406
61184W        W 4200   4.090   8.106  23.104 -0.1110  0.0428  0.0851
61185W        W 4201  21.087  23.924  28.294 -0.0400 -0.0591  0.0692
61186W        W 4202  19.902   9.989  19.250 -0.1401 -0.2320  0.2083
61187W        W 4203  12.554  20.993   7.176  0.1713  0.3231 -0.1489
61188W        W 4204  26.429   9.342  10.017  0.0305 -0.0388 -0.0913
61189W        W 4205  11.763   1.704   7.156 -0.1505  0.1501 -0.5316
61190W        W 4206   8.688  12.686  23.813  0.0976 -0.4145 -0.1470
61191W        W 4207   3.140  23.321  15.927  0.2612 -0.2249  0.2562
61192W        W 4208  20.185  15.182  13.806 -0.2589  0.0677 -0.1801
61193W        W 4209   7.706  22.230   0.200 -0.2587 -0.3926 -0.3284
61194W        W 4210  20.646  18.372  24.528  0.1408 -0.0921  0.0176
61195W        W 4211  26.648  14.046  17.416  0.0707 -0.2036  0.1481
61196W        W 4212  14.487  33.366   6.778  0.0489 -0.0632  0.1062
61197W        W 4213  33.440  18.884  22.327 -0.2854 -0.1499  0.0036
61198W        W 4214  21.302  22.591  21.732  0.0495  0.3387 -0.1004
61199W        W 4215  18.199   3.584  15.931 -0.0700 -0.2554  0.0194
61200W        W 4216   5.105  19.733   8.402 -0.2118 -0.0745 -0.0299
61201W        W 4217  10.208  31.415   6.453 -0.2892  0.3332 -0.0654
61202W        W 4218  24.567  32.420   2.796 -0.0097 -0.1446  0.2793
61203W        W 4219   5.179   8.261  17.673 -0.1249 -0.2198  0.0198
61204W        W 4220  21.453  14.847  20.991 -0.3444  0.1122 -0.0688
61205W        W 4221  11.153   3.575   5.132 -0.0529 -0.1473  0.1036
61206W        W 4222   8.448   2.213  17.332 -0.1180  0.0504 -0.0279
61207W        W 4223  19.555   4.127   4.855  0.0374  0.0269  0.0268
61208W        W 4224  31.652  30.569  19.446  0.0220 -0.2870  0.1183
61209W        W 4225  16.151  33.214   1.318 -0.0793 -0.0078 -0.4627
61210W        W 4226  19.667  17.292  26.614  0.2214  0.1326  0.0181
61211W        W 4227  10.958  23.947  19.488  0.0566 -0.2597 -0.0818
61212W        W 4228  19.605   0.762  22.279  0.1082 -0.1788 -0.1710
61213W        W 4229  30.316  19.649   9.696 -0.1561  0.3178 -0.2822
61214W        W 4230  23.086   9.357   6.926 -0.2344 -0.2369 -0.2203
61215W        W 4231   6.427  14.963   2.567 -0.0805  0.0933 -0.1244
61216W        W 4232  11.279  13.099  25.024 -0.2697  0.0519 -0.1098
61217W        W 4233   5.007  24.176  20.706  0.1146  0.0684  0.0997
61218W        W 4234  12.297  17.744  27.850  0.0479  0.2992  0.2376
61219W        W 4235   1.098  29.692  23.926 -0.1191 -0.2878  0.0551
61220W        W 4236   8.046  27.750   6.399 -0.1483 -0.1478 -0.1673
61221W        W 4237   7.819   3.250  22.409 -0.2262  0.0106  0.1059
61222W        W 4238   9.377   4.944  15.133 -0.0579 -0.0586  0.1271
61223W        W 4239   1.992  15.706  21.669  0.0226  0.0937 -0.2619
61224W        W 4240   2.459  22.902  14.516  0.1016  0.1328 -0.1767
61225W        W 4241  31.121   5.481   6.930  0.2326 -0.0606 -0.1401
61226W        W 4242   0.617   6.184  17.186 -0.1349  0.0865  0.2324
61227W        W 4243   3.599  20.220   5.820  0.0182 -0.3777  0.1790
61228W        W 4244  22.985  12.143  17.056  0.2349  0.0624  0.0140
61229W        W 4245  11.861  25.445   0.305  0.0393  0.1780 -0.0138
61230W        W 4246  10.670  25.346  27.070 -0.3425 -0.0842  0.3441
61231W        W 4247  18.288  27.276  23.411  0.0171  0.0979  0.0754
61232W        W 4248  11.357   0.392  16.014 -0.0627  0.1205 -0.0126
61233W        W 4249   1.061  10.980   2.162  0.0936  0.2643 -0.2015
61234W        W 4250   7.225  29.699  18.933 -0.3067  0.2751 -0.1348
61235W        W 4251  12.705  33.090   4.048  0.0293  0.1132 -0.0532
61236W        W 4252  18.081  23.648  26.931  0.0234 -0.2050  0.0321
61237W        W 4253  11.923  25.117  17.917 -0.0246  0.1957 -0.0027
61238W        W 4254  33.674  10.533  21.285  0.0793 -0.3605  0.0079
61239W        W 4255   2.232  17.139  27.980 -0.2108  0.0357  0.0618
61240W        W 4256  15.418  14.954  23.927  0.0016 -0.2974 -0.3170
61241W        W 4257  19.484  17.565  12.591 -0.1025  0.0831 -0.0642
61242W        W 4258   8.052  21.410  19.872  0.1871  0.2175 -0.2846
61243W        W 4259  21.565   1.431   1.983  0.0484 -0.1661  0.0444
61244W        W 4260  32.268  13.361  18.459  0.0044  0.0678 -0.1255
61245W        W 4261   7.416   7.933  16.603  0.2327 -0.2136  0.2443
61246W        W 4262  26.107   0.336  21.673 -0.0086 -0.0632  0.0758
61247W        W 4263  15.484  18.331   5.324 -0.1796  0.0929 -0.0075
61248W        W 4264   7.791  11.442  23.428 -0.3106  0.2080  0.4200
61249W        W 4265  11.197  15.893   0.861  0.2744  0.0565 -0.1172
61250W        W 4266  30.394  13.146  20.056  0.1015  0.1116 -0.2220
61251W        W 4267   2.383  21.590   3.568 -0.0581  0.3308 -0.1163
61252W        W 4268   8.486   2.375  23.120 -0.2226  0.1268  0.2081
61253W        W 4269  18.821   5.004   0.919 -0.2229 -0.2518 -0.1258
61254W        W 4270  23.523  24.368  16.922  0.1339  0.0855 -0.4189
61255W        W 4271  12.562  29.757  26.455 -0.1548  0.1114  0.1969
61256W        W 4272  30.912  11.798  18.056 -0.3784 -0.0935  0.2735
61257W        W 4273   3.166  30.038   1.122  0.3229  0.1017 -0.0528
61258W        W 4274  26.967   6.072  23.133 -0.3359  0.2553 -0.1910
61259W        W 4275  12.919  19.176   0.739 -0.0150 -0.2000 -0.0403
61260W        W 4276   0.437  15.132   6.840 -0.1179  0.3911  0.0852
61261W        W 4277  34.032   0.490   7.919  0.3793  0.0090  0.0976
61262W        W 4278   8.411   9.423  21.498  0.2797 -0.2724 -0.0312
61263W        W 4279   9.454  16.452   5.547  0.0741  0.0232 -0.1417
61264W        W 4280  11.006  16.101  16.925 -0.0997  0.3067 -0.0557
61265W        W 4281   4.570   3.645   7.167 -0.0322  0.2033  0.0642
61266W        W 4282  11.456  26.051   0.176  0.0150 -0.0550  0.1538
61267W        W 4283  11.942  33.152  28.613  0.1565  0.1325 -0.0699
61268W        W 4284  28.076  17.375  16.495  0.2049  0.1178  0.0526
61269W        W 4285   3.417  34.271   0.515 -0.2911 -0.3198  0.0284
61270W        W 4286  17.984  12.240  15.769 -0.0488 -0.0722  0.0069
61271W        W 4287  14.067  20.639   1.860  0.0482 -0.0646  0.2472
61272W        W 4288  20.723  20.730  28.929  0.2113 -0.0226 -0.0297
61273W        W 4289   1.292  26.360  26.280  0.2790  0.3028 -0.1054
61274W        W 4290  16.216  26.770   4.987 -0.1128 -0.3724  0.1788
61275W        W 4291  10.793  20.040  15.083 -0.0913 -0.2694 -0.2505
61276W        W 4292  11.979   3.191  25.183  0.3993  0.0953 -0.2352
61277W        W 4293  14.722  21.630  20.981 -0.2340  0.1861  0.2797
61278W        W 4294  17.158  14.794  21.082  0.1582 -0.0344 -0.2390
61279W        W 4295  14.761  29.890   0.930 -0.1776 -0.2043  0.0425
61280W        W 4296  23.941  22.026   2.257  0.3361  0.1634 -0.0084
61281W        W 4297  15.269  22.517   4.914  0.1988  0.1125  0.0192
61282W        W 4298   9.255  25.825   6.680 -0.1267  0.0689  0.0103
61283W        W 4299   5.957   4.207   4.724  0.1699  0.2915  0.0813
61284W        W 4300  32.065  18.589  27.541  0.0574 -0.1114 -0.2285
61285W        W 4301   1.389   8.584   9.666  0.3131 -0.1785 -0.3347
61286W        W 4302  17.522  22.952  27.532 -0.4116 -0.1101  0.0230
61287W        W 4303   3.389  24.426  25.724  0.1257  0.0565  0.0684
61288W        W 4304  16.110  10.836  28.863 -0.2364 -0.4295 -0.1252
61289W        W 4305  19.277  18.929   7.103 -0.1068 -0.0072  0.1023
61290W        W 4306   8.570  30.840   8.454  0.1434 -0.1092  0.0270
61291W        W 4307  12.094   1.406  28.569  0.2501 -0.0260  0.0137
61292W        W 4308  17.419  20.836  29.020  0.2912 -0.1553  0.4309
61293W        W 4309   1.695   8.653   6.084  0.3366 -0.0631 -0.0925
61294W        W 4310   1.173  16.967   1.301  0.2366 -0.0718 -0.0195
61295W        W 4311   7.513  25.291   5.391  0.1786  0.2973  0.2117
61296W        W 4312  24.299  17.946   4.498  0.1907  0.1407  0.0807
61297W        W 4313   8.799  22.887   8.980 -0.3319  0.0241  0.0983
61298W        W 4314   1.316  23.078  17.058  0.0849 -0.0530  0.0221
61299W        W 4315   9.306  14.843  21.972  0.2357 -0.2319  0.1753
61300W        W 4316   5.089  22.567   2.120 -0.0850 -0.0096 -0.2386
61301W        W 4317   5.262  23.062   0.628 -0.5390 -0.1009 -0.1264
61302W        W 4318  16.722  21.880  19.268  0.0494 -0.2084  0.1324
61303W        W 4319   8.650  14.715  17.841  0.0787  0.0599  0.1090
61304W        W 4320   0.040  18.112  25.451  0.2452  0.2125 -0.1275
61305W        W 4321  12.664   6.276   3.192 -0.4849  0.3788 -0.0837
61306W        W 4322  14.203  20.679   0.310 -0.1376 -0.2785 -0.0179
61307W        W 4323   4.970  12.697   9.339 -0.1886  0.0027  0.2179
61308W        W 4324  18.922  10.224  17.337 -0.0032  0.1086  0.2350
61309W        W 4325  24.195   0.009   8.535  0.3163  0.3144  0.0267
61310W        W 4326  27.043  17.290  24.135 -0.2064  0.0802 -0.0873
61311W        W 4327   9.132  17.791   8.396 -0.0781  0.2773 -0.2474
61312W        W 4328   4.051  17.622  15.746 -0.0784  0.1780 -0.1614
61313W        W 4329  18.475  30.307  26.048  0.0182 -0.1806 -0.2721
61314W        W 4330   7.046  16.539   3.624 -0.1010  0.1069 -0.0632
61315W        W 4331  16.101  20.907  21.879  0.0169  0.3766 -0.3258
61316W        W 4332   2.004   7.348  14.686 -0.1315 -0.1511 -0.0256
61317W        W 4333   1.514   9.182  13.891 -0.4953  0.0182 -0.0220
61318W        W 4334  25.100  29.238   1.076  0.1302  0.0762  0.0926
61319W        W 4335  22.490  19.034  13.037 -0.0449  0.0981  0.1820
61320W        W 4336  13.177  24.372  21.623  0.1949  0.2429 -0.2902
61321W        W 4337  33.206   0.332   3.681  0.1852  0.1353  0.2186
61322W        W 4338   2.963   2.135  22.780 -0.1902 -0.0386  0.1913
61323W        W 4339   4.637  19.370   2.515  0.0677 -0.3241 -0.0084
61324W        W 4340   7.252  22.587   4.924 -0.0432  0.0240  0.0390
61325W        W 4341  25.404   8.662  10.529 -0.1199 -0.1023 -0.1131
61326W        W 4342  12.021  21.419  24.805  0.0095 -0.3400  0.1067
61327W        W 4343   3.803  14.741  17.795  0.0125 -0.3057 -0.0645
61328W        W 4344  16.511   8.506   7.599  0.0831  0.0894  0.3410
61329W        W 4345   4.303  25.850   5.264  0.0525  0.0058 -0.3543
61330W        W 4346  25.801   4.830   5.741  0.3140 -0.0980 -0.2496
61331W        W 4347  14.969   5.084  28.426  0.0254  0.2778 -0.1885
61332W        W 4348  12.198   8.663  21.332  0.0372  0.4308  0.0071
61333W        W 4349  12.284  28.143   2.505 -0.0514  0.0530  0.0644
61334W        W 4350   6.518  30.636  10.548  0.1083  0.1114 -0.0670
61335W        W 4351  11.537  18.056   2.827 -0.2280  0.0188  0.0761
61336W        W 4352  25.261   3.062  21.469  0.1116 -0.3279  0.0327
61337W        W 4353  10.590  15.064   6.995 -0.1401  0.2123 -0.2357
61338W        W 4354  30.383  12.683  25.374 -0.2938 -0.2260  0.0321
61339W        W 4355  13.831   5.185   2.902 -0.3422  0.0164 -0.2090
61340W        W 4356  12.144   6.147   3.516 -0.4406 -0.0787 -0.3420
61341W        W 4357  19.806  24.388  21.878  0.1564 -0.1793 -0.0495
61342W        W 4358   9.792   6.558   3.696  0.2927 -0.2891  0.0923
61343W        W 4359   2.738  19.442  20.401  0.5018 -0.0812 -0.1098
61344W        W 4360   8.488  20.961   8.364  0.0568  0.2638  0.2044
61345W        W 4361  15.468  24.962   6.136  0.2241 -0.0991 -0.0799
61346W        W 4362   8.167  31.266   6.336  0.0099  0.1069  0.3593
61347W        W 4363  11.860  34.666  28.986 -0.3064  0.3289 -0.0484
61348W        W 4364  15.625   3.416  26.329  0.3201  0.0429 -0.1815
61349W        W 4365  30.655  19.658   5.436 -0.2873 -0.4103 -0.0515
61350W        W 4366  12.040  18.811  24.989  0.1577 -0.0454 -0.1657
61351W        W 4367  34.347  14.065  23.420 -0.0054  0.0517  0.0268
61352W        W 4368   9.951  20.224   3.225 -0.2032  0.1354  0.1374
61353W        W 4369  14.779  21.174  23.999  0.1712 -0.1479  0.0129
61354W        W 4370   8.794  19.550   0.883 -0.1575 -0.0110 -0.1070
61355W        W 4371  15.130  11.480   4.072 -0.2944  0.4840  0.2802
61356W        W 4372   1.770  31.983  21.216  0.0397 -0.0978 -0.1375
61357W        W 4373  22.603   2.903  22.603  0.0351  0.1912  0.1697
61358W        W 4374   3.911  19.837  24.553  0.0499 -0.0879 -0.0170
61359W        W 4375  15.747   9.423  17.429 -0.2137  0.2580  0.0321
61360W        W 4376  19.923  27.518   1.302  0.0399  0.2105 -0.1664
61361W        W 4377   7.696  12.789  28.753  0.0601  0.1345 -0.0306
61362W        W 4378  13.081  17.459   4.502 -0.1482  0.0212  0.1435
61363W        W 4379   3.160   2.548   4.861 -0.1251  0.2711  0.0669
61364W        W 4380  17.087  34.747  26.819  0.1574  0.1131 -0.1330
61365W        W 4381  20.257   8.448   2.122  0.1641 -0.2223 -0.0290
61366W        W 4382  23.474  12.380  28.300  0.0805 -0.0888 -0.0522
61367W        W 4383   4.253  21.641   1.703  0.1704  0.2843 -0.1246
61368W        W 4384  20.899  17.579   4.277 -0.1702  0.1332 -0.0641
61369W        W 4385  31.943  13.797  20.901 -0.1417  0.2898  0.2285
61370W        W 4386  17.558  19.281  12.608  0.0603 -0.1410  0.0667
61371W        W 4387  12.067   7.897   8.400  0.1524  0.2062  0.0413
61372W        W 4388   6.084  17.224  24.820 -0.0651 -0.1303  0.1403
61373W        W 4389  33.075  30.778   7.308  0.4324  0.0508  0.1800
61374W        W 4390   5.037  15.685  17.520  0.2975  0.0574 -0.2587
61375W        W 4391   4.416  25.333  25.942 -0.3030  0.0193  0.1198
61376W        W 4392  18.514  13.771  23.593  0.0547  0.0647 -0.1081
61377W        W 4393   9.226  15.524  28.529 -0.0088 -0.1400  0.0269
61378W        W 4394   4.083  15.088  25.393 -0.1030  0.0749  0.0545
61379W        W 4395   5.202  22.905  24.284 -0.2380  0.1525  0.2621
61380W        W 4396  26.296  17.925   0.205  0.1266  0.3002  0.2325
61381W        W 4397  30.511  28.594  17.096 -0.0162 -0.0931 -0.0971
61382W        W 4398   4.371  19.379  26.200  0.1019 -0.2356 -0.0527
61383W        W 4399   3.907  16.760  25.558 -0.2294 -0.2761  0.3652
61384W        W 4400   3.605  24.840  22.734 -0.3894 -0.2906 -0.1538
61385W        W 4401  15.434  28.589   5.863  0.2077 -0.2769 -0.0087
61386W        W 4402  16.924  28.213  21.322  0.0736  0.0164 -0.1492
61387W        W 4403  14.394  31.939  22.927  0.0502  0.0054  0.0156
61388W        W 4404  17.316  30.035  16.360 -0.2517 -0.0064  0.0145
61389W        W 4405  25.081   3.252  20.291  0.0651 -0.1564  0.1226
61390W        W 4406  15.598  24.724   0.843  0.3189  0.4090  0.0973
61391W        W 4407   7.076  24.319   7.811 -0.2301  0.1520 -0.2459
61392W        W 4408  28.013  32.657   7.517  0.1187  0.3438  0.1112
61393W        W 4409  10.051  29.954  22.997  0.0342 -0.0369  0.2766
61394W        W 4410  10.693  22.530  15.773  0.0384 -0.2728  0.1515
61395W        W 4411  13.825  21.666   0.649 -0.1229 -0.2283  0.0768
61396W        W 4412   8.830  10.401  26.157  0.2172 -0.1311 -0.2580
61397W        W 4413  32.803   8.098   4.725 -0.3070 -0.4693 -0.2637
61398W        W 4414   1.283  19.713  26.561  0.2945  0.1521 -0.0773
61399W        W 4415  23.179  25.139   4.666 -0.0061  0.0091  0.1669
61400W        W 4416  17.344  25.260  15.623 -0.3049 -0.3991 -0.0604
61401W        W 4417  32.285  23.361  20.602 -0.1025  0.0442  0.2907
61402W        W 4418   8.883  14.088  19.261 -0.3202  0.1838  0.1814
61403W        W 4419  11.130  26.831   5.255  0.0596 -0.3254  0.0866
61404W        W 4420  16.746  23.625  17.059 -0.4717  0.2911  0.0115
61405W        W 4421  17.161  17.038  24.062  0.3128  0.1076  0.1393
61406W        W 4422   6.757  20.870   0.660  0.0845 -0.2386  0.1513
61407W        W 4423  10.783  26.206  26.664  0.0798  0.1723  0.0418
61408W        W 4424  34.566  11.468   5.503 -0.2123 -0.0408 -0.0005
61409W        W 4425  13.386   1.626   8.569 -0.0401  0.3384  0.0665
61410W        W 4426  14.496  17.899  26.201  0.1679  0.1472  0.0303
61411W        W 4427  17.887   6.918   0.752  0.0586 -0.1529 -0.1035
61412W        W 4428  31.673   6.749   3.413  0.3241  0.1934  0.0889
61413W        W 4429  18.928  34.235   7.593 -0.0785  0.4608 -0.1462
61414W        W 4430  34.397  25.181   1.480  0.2107  0.0389 -0.2516
61415W        W 4431  15.012   2.972  25.879  0.1627 -0.0347  0.1545
61416W        W 4432  11.217  28.693  15.221  0.1055 -0.1308  0.1597
61417W        W 4433  12.778   0.654  21.464 -0.1590 -0.0546 -0.0814
61418W        W 4434  14.361  18.745  22.827 -0.1782 -0.0607  0.1065
61419W        W 4435  19.845  27.310   5.614  0.0694 -0.1063 -0.3141
61420W        W 4436   1.466  16.418   7.985  0.1553  0.2011  0.0021
61421W        W 4437   9.970  15.231   0.284  0.1062 -0.1529  0.1075
61422W        W 4438   4.489   8.016  26.560 -0.0388 -0.0513  0.1120
61423W        W 4439   8.152  15.769  24.516  0.0900 -0.0084  0.1769
61424W        W 4440  18.016  14.876  23.348 -0.2870  0.2508  0.0956
61425W        W 4441  10.308  19.291  28.468 -0.1629  0.0121 -0.2770
61426W        W 4442  11.843  26.830  20.938  0.0377  0.1736  0.3072
61427W        W 4443   7.583  27.520  20.931 -0.0725 -0.0602  0.1050
61428W        W 4444  11.034  29.275   6.466  0.1743 -0.1337  0.1909
61429W        W 4445  19.323  28.739  26.348 -0.1166  0.0941 -0.0307
61430W        W 4446  11.520  21.824  28.256 -0.0069  0.0749 -0.2434
61431W        W 4447   4.104   4.024   8.160  0.1966  0.2460  0.1262
61432W        W 4448  24.613  28.272  10.555  0.2944 -0.2528 -0.3266
61433W        W 4449  11.448   1.477   3.378 -0.0801  0.1654 -0.3280
61434W        W 4450   3.367  13.460  24.242 -0.1094  0.2866  0.2251
61435W        W 4451  13.637  23.496   3.294 -0.1665 -0.0097  0.4856
61436W        W 4452  16.545  16.012  27.677  0.3459  0.1848 -0.1870
61437W        W 4453  13.134  20.893  28.207  0.1193 -0.4186  0.0750
61438W        W 4454  14.465   2.041  23.047  0.1357  0.1135 -0.0914
61439W        W 4455  23.845   8.971  19.270  0.0543 -0.2219  0.0609
61440W        W 4456  15.323  29.340   7.665  0.2230 -0.0199  0.2022
61441W        W 4457   6.731   4.393   9.966 -0.3819  0.2373 -0.0047
61442W        W 4458  12.871   6.713  20.070  0.0761 -0.1107  0.1144
61443W        W 4459  24.595  27.022   7.359 -0.1032 -0.4053 -0.1434
61444W        W 4460  13.123  24.050  19.224  0.2334  0.2591 -0.1737
61445W        W 4461  12.251  31.859  10.367 -0.0157  0.0577  0.1992
61446W        W 4462  19.410  26.298  26.565  0.2702 -0.1195 -0.0143
61447W        W 4463  17.969  16.007   4.985 -0.1306 -0.1054 -0.0097
61448W        W 4464  15.667  32.155   2.826  0.0575 -0.2322  0.1651
61449W        W 4465  23.837  22.755   0.362  0.1170  0.1427 -0.1094
61450W        W 4466   1.805  21.116  19.216  0.1397  0.1321  0.0447
61451W        W 4467  21.852   1.596   5.398  0.0465 -0.0320 -0.0539
61452W        W 4468   6.456   9.852   0.609  0.2237 -0.1033 -0.2757
61453W        W 4469  15.619  23.004  19.722  0.2759 -0.1032  0.0729
61454W        W 4470   5.267  19.689   5.036 -0.0133  0.0436 -0.1924
61455W        W 4471  20.118  15.758  27.821 -0.0727 -0.1455 -0.0274
61456W        W 4472  34.295  29.813  27.991  0.2943  0.0982 -0.1983
61457W        W 4473  13.241  24.260  15.049 -0.0104 -0.3530  0.0744
61458W        W 4474   5.212  11.982  18.983 -0.0229 -0.0533  0.4653
61459W        W 4475  33.011  29.635   0.528  0.1333 -0.1635 -0.0200
61460W        W 4476  20.522  14.050  21.394  0.0019  0.1223 -0.0285
61461W        W 4477  19.778  13.881   4.096 -0.0189  0.2287 -0.0316
61462W        W 4478  15.218  32.516   5.496  0.0969  0.1795  0.2352
61463W        W 4479  22.142  32.506  23.274 -0.0456  0.2147  0.2022
61464W        W 4480   7.036  27.290  27.355 -0.2963 -0.1557 -0.1321
61465W        W 4481  11.406  11.871  28.484 -0.1490  0.0887 -0.3036
61466W        W 4482   5.935  31.751   8.726 -0.2070  0.1026  0.1824
61467W        W 4483   3.685   0.158   1.740 -0.0318  0.0604  0.1449
61468W        W 4484  20.321  31.376  26.364  0.0728 -0.2494 -0.0867
61469W        W 4485   9.224  18.431  24.612  0.0118  0.1295  0.1890
61470W        W 4486  23.041  16.728  21.436 -0.3235 -0.0381  0.1334
61471W        W 4487   1.125  34.045   0.406 -0.0109 -0.2379 -0.0467
61472W        W 4488  21.102  23.927   6.216  0.1036  0.0915 -0.1382
61473W        W 4489   4.619   9.576   2.677 -0.3180 -0.1546 -0.2723
61474W        W 4490  30.307  17.320  21.808 -0.0297  0.3564 -0.1587
61475W        W 4491   9.873  11.033  21.254  0.0319  0.3381  0.1423
61476W        W 4492   6.735  19.559  15.884 -0.0424  0.0645 -0.1674
61477W        W 4493   5.401  19.271  24.418  0.1102 -0.2018  0.2080
61478W        W 4494   6.280  25.845  20.439  0.0381 -0.1272 -0.0386
61479W        W 4495   0.574  26.521   8.975  0.2072 -0.1129  0.0582
61480W        W 4496   6.940   3.955  17.052 -0.2325 -0.0720  0.2000
61481W        W 4497  18.515  30.912  11.378 -0.1308 -0.1059 -0.0614
61482W        W 4498  14.028   6.748  25.748  0.2326  0.1286 -0.0797
61483W        W 4499   5.292  13.713   9.130 -0.1066  0.1084 -0.1923
61484W        W 4500   2.629  20.308  23.573  0.0174  0.0331  0.1310
61485W        W 4501   1.805  10.739  18.698  0.2147  0.1297 -0.0252
61486W        W 4502  20.304  30.746  27.831 -0.2209  0.2014 -0.3143
61487W        W 4503   9.062  29.046   2.848 -0.0369 -0.2316  0.1869
61488W        W 4504  17.988  18.836  25.001 -0.2859 -0.1950  0.0273
61489W        W 4505  21.081   5.464  25.040 -0.2421  0.1104 -0.0750
61490W        W 4506  31.617  30.666  16.502  0.0262 -0.1517 -0.2568
61491W        W 4507  10.095  23.558  28.735  0.1068 -0.0811  0.1397
61492W        W 4508  17.634  27.588  24.027  0.0175  0.0297 -0.1223
61493W        W 4509  23.760  21.778  22.132 -0.0109  0.0435 -0.0201
61494W        W 4510  13.590  19.179  24.592  0.2812 -0.0193  0.5175
61495W        W 4511  16.973  20.922  26.022  0.0254 -0.0095 -0.0913
61496W        W 4512  11.559  16.139  16.631 -0.4942 -0.0601  0.1938
61497W        W 4513   5.009  34.442  16.830 -0.1280  0.0902 -0.0392
61498W        W 4514  25.923  31.035  25.250 -0.0300  0.0748  0.0030
61499W        W 4515  29.397  16.908  20.997  0.1517  0.2444  0.0547
61500W        W 4516  30.268   7.432  23.854  0.1710 -0.0151 -0.0286
61501W        W 4517   4.441  11.075   1.137 -0.2139 -0.0213  0.3443
61502W        W 4518  20.527   9.502  21.704 -0.0505 -0.1372 -0.0130
61503W        W 4519   9.941  29.338  21.137  0.4725  0.1916 -0.1063
61504W        W 4520  24.108  15.715  21.525  0.2891 -0.1852  0.0108
61505W        W 4521   7.380  24.899  14.103 -0.0816  0.1109  0.0621
61506W        W 4522   5.694  24.526   1.403 -0.1151  0.0183  0.0430
61507W        W 4523  12.241  15.547  16.619 -0.0009  0.1420 -0.0628
61508W        W 4524  23.037  25.677  16.021 -0.0345 -0.2117  0.2058
61509W        W 4525   3.600  20.933  18.943  0.3379  0.0659 -0.0575
61510W        W 4526  19.717  29.708  20.173 -0.0979  0.1158  0.0020
61511W        W 4527   7.661   0.038   3.927  0.4052  0.2610 -0.1761
61512W        W 4528  33.394  22.815  20.319  0.2165 -0.1405 -0.1089
61513W        W 4529  15.481   2.666  22.982  0.0989 -0.4447  0.0453
61514W        W 4530   1.925  22.808  23.486  0.0568 -0.2356  0.1707
61515W        W 4531  24.483  14.788  27.119 -0.1957 -0.3321  0.0872
61516W        W 4532  21.274   6.850   0.833 -0.1359  0.0565 -0.2633
61517W        W 4533   4.245  32.522   5.485 -0.0145 -0.0848 -0.1147
61518W        W 4534   6.290  24.444   2.766 -0.1304 -0.1524 -0.4598
61519W        W 4535  22.685  32.014  25.831  0.0055 -0.0686 -0.2343
61520W        W 4536  23.517  23.805  20.356 -0.1442 -0.2643  0.1911
61521W        W 4537  17.792  20.810   0.842 -0.1701 -0.0486  0.1314
61522W        W 4538  25.898  34.565  21.889 -0.0902 -0.0123  0.0425
61523W        W 4539  20.945  19.783  22.315 -0.0050  0.1252  0.2265
61524W        W 4540  17.502  21.818  12.629  0.0482 -0.3023 -0.1390
61525W        W 4541  33.446  22.630  21.871  0.4687  0.0174  0.2642
61526W        W 4542  20.647  24.659  15.855  0.0069 -0.0678  0.1008
61527W        W 4543   5.705  20.578  28.729 -0.3743 -0.0701 -0.0598
61528W        W 4544  11.402  23.399   7.563  0.1221 -0.0382  0.3396
61529W        W 4545   6.573  21.803   0.578 -0.0937  0.0805  0.0692
61530W        W 4546   4.078  10.891  19.065  0.0797 -0.1115 -0.1581
61531W        W 4547   0.141   8.214  22.634 -0.0910 -0.1023  0.0910
61532W        W 4548   9.176  11.426  16.930  0.0273  0.2834 -0.2139
61533W        W 4549   7.395  15.188  22.058  0.1960  0.0028 -0.1762
61534W        W 4550  31.473  24.198  24.441 -0.1087  0.0330  0.0078
61535W        W 4551  17.721  11.401  21.095  0.1448 -0.1424 -0.0604
61536W        W 4552  19.709  19.992  13.904 -0.3181 -0.0099  0.1978
61537W        W 4553   8.164  22.597  16.762  0.0869  0.0819 -0.5130
61538W        W 4554  27.038  12.183   0.814 -0.1703 -0.1327  0.3399
61539W        W 4555  12.440   1.151  21.036 -0.1509 -0.0930 -0.1055
61540W        W 4556  10.310   0.537  19.654  0.0525  0.0528  0.0734
61541W        W 4557   9.516  12.966  20.431  0.2152 -0.0347 -0.1873
61542W        W 4558  27.037  32.508  24.652 -0.1080 -0.1735  0.1371
61543W        W 4559  20.821   2.953  14.586  0.2450  0.0286 -0.0005
61544W        W 4560  13.889  31.684  26.588  0.1325  0.1574  0.2584
61545W        W 4561  17.695   4.109  18.795  0.1702  0.1474  0.1029
61546W        W 4562  25.285  24.398  25.558 -0.0838  0.3464 -0.1958
61547W        W 4563  12.031  21.802  15.448 -0.0923  0.0091 -0.0607
61548W        W 4564  11.378  18.422  18.053 -0.1466  0.1830  0.1848
61549W        W 4565  21.034   1.986  15.482 -0.0580 -0.2701  0.3041
61550W        W 4566  33.826  29.466  17.590  0.3027  0.1164  0.2846
61551W        W 4567  28.899  26.607   0.832 -0.1479 -0.1757 -0.1817
61552W        W 4568  20.604  25.214  29.271  0.4572  0.2285  0.1471
61553W        W 4569   8.748  32.659  20.028  0.0345  0.1055 -0.1602
61554W        W 4570  11.858  30.269  22.751  0.3225  0.4692 -0.0536
61555W        W 4571  13.577  10.946  24.007  0.1293 -0.0678 -0.2411
61556W        W 4572  22.031  23.515  18.939  0.1736 -0.2232 -0.0380
61557W        W 4573  22.775  25.325  21.276  0.1203  0.2789 -0.2169
61558W        W 4574  34.246  31.925  18.362 -0.0049 -0.0577  0.2434
61559W        W 4575  20.503  13.837  15.039 -0.1784  0.4478  0.3472
61560W        W 4576  19.026   1.019   5.502 -0.1109 -0.0153 -0.3783
61561W        W 4577  20.829   3.316  26.409 -0.0871  0.1382  0.0313
61562W        W 4578  15.042  14.656  27.593  0.0326  0.0665  0.1334
61563W        W 4579  32.510  21.744  18.546 -0.1803  0.2792 -0.5104
61564W        W 4580   7.791  20.010  13.608 -0.0540 -0.0432  0.0680
61565W        W 4581   7.379  21.981  17.413  0.0580  0.1853 -0.1240
61566W        W 4582  25.259  12.409   0.963 -0.2611  0.0966  0.2190
61567W        W 4583  11.793  23.356  23.957 -0.2959  0.1166 -0.2172
61568W        W 4584   0.635  15.686  27.759 -0.4234 -0.0662 -0.0039
61569W        W 4585  13.315   5.299  26.380  0.0964 -0.0128  0.1890
61570W        W 4586  32.873  30.767  15.473 -0.1326  0.3301  0.2010
61571W        W 4587  13.091  22.611  13.123  0.2609  0.1440 -0.0667
61572W        W 4588  18.208  21.240  12.967  0.0149  0.1947  0.1382
61573W        W 4589  19.662  23.718   0.569 -0.1993  0.1934  0.0173
61574W        W 4590  13.374  13.107  12.182 -0.1561  0.0554  0.3760
61575W        W 4591   7.167  19.739  26.775 -0.2168 -0.0697 -0.0627
61576W        W 4592   0.752  23.656  15.567 -0.1671 -0.1458 -0.1954
61577W        W 4593  25.614  14.823  15.696 -0.2965 -0.0006  0.1568
61578W        W 4594   3.328  21.931  15.972 -0.0136 -0.1064  0.0370
61579W        W 4595   0.501  26.920  16.408 -0.2775  0.1291  0.0331
61580W        W 4596  17.458  21.736  15.012 -0.0638  0.2565  0.0194
61581W        W 4597  16.788  18.523  12.314 -0.0814 -0.0825  0.1736
61582W        W 4598  17.721  16.519  15.866 -0.2628 -0.0826 -0.0582
61583W        W 4599   4.359  14.946  19.075  0.0637 -0.0027  0.1437
61584W        W 4600  18.553  26.268  19.544 -0.0819 -0.2164  0.0016
61585W        W 4601  24.693  16.294  18.913  0.2056 -0.1289  0.1356
61586W        W 4602  22.996  23.264  19.944  0.2541  0.1363  0.3244
61587W        W 4603  15.615   1.431  25.863 -0.0124 -0.1063  0.2962
61588W        W 4604   2.287  10.694  17.135 -0.4334  0.1037 -0.2754
61589W        W 4605   2.931  33.115   5.137 -0.2323 -0.2802 -0.2887
61590W        W 4606  26.800  17.632  16.066 -0.0027 -0.1296  0.1999
61591W        W 4607   2.876  21.396  16.618  0.0380  0.0516  0.0815
61592W        W 4608  34.224  19.176   0.823 -0.0269  0.1129 -0.0101
61593W        W 4609  17.920   1.745  16.729 -0.2027  0.2161 -0.0638
61594W        W 4610  12.833  10.805  21.938 -0.1030  0.1116 -0.1440
61595W        W 4611  15.848  24.499  13.472  0.1029  0.2418  0.1300
61596W        W 4612   0.961  23.053  24.018 -0.1263 -0.1019  0.2592
61597W        W 4613  26.960  30.247  27.951 -0.1307  0.0505  0.0565
61598W        W 4614  11.539  12.669  13.289  0.2794 -0.0068 -0.2860
61599W        W 4615  19.176  14.005  15.166  0.2676  0.0890  0.2983
61600W        W 4616  17.548  24.488  27.284  0.0039 -0.1116 -0.0897
61601W        W 4617  13.354  26.470  17.964  0.0476 -0.0821 -0.0940
61602W        W 4618   7.023  28.250  21.394 -0.3520  0.0984 -0.0465
61603W        W 4619  16.275  20.348  15.280 -0.0542 -0.1348  0.3191
61604W        W 4620  22.115   5.511  17.829 -0.0807 -0.1322 -0.0959
61605W        W 4621   5.733  27.664  13.464  0.0284 -0.0283  0.1200
61606W        W 4622   5.198   5.502   6.105 -0.2121  0.0661  0.2866
61607W        W 4623  10.390   5.583  14.809 -0.0320  0.4078 -0.2809
61608W        W 4624   9.049  16.589  23.053  0.0803 -0.0039  0.3567
61609W        W 4625   5.194  22.688  23.285  0.6034  0.0132 -0.3182
61610W        W 4626   3.729  19.151   4.302  0.1183 -0.2799 -0.0070
61611W        W 4627  25.893  20.290  24.190  0.1585 -0.0488  0.2288
61612W        W 4628   7.778  21.793   1.563 -0.0305  0.0655  0.3957
61613W        W 4629  11.526  31.442  14.856 -0.0966  0.0811  0.0851
61614W        W 4630   7.969  21.448  14.083 -0.0778  0.3353 -0.1327
61615W        W 4631  17.619  32.146  16.321 -0.2764 -0.0725  0.0704
61616W        W 4632  19.009  25.368   1.752  0.0325  0.2633 -0.0805
61617W        W 4633  11.736  22.141  21.593  0.0994  0.1098 -0.2301
61618W        W 4634  18.523  19.397  24.034  0.0477 -0.1082  0.0234
61619W        W 4635  17.573   0.890  20.703 -0.0142 -0.1274 -0.1218
61620W        W 4636   6.407  28.967  21.368  0.0315  0.1482  0.0367
61621W        W 4637  14.319  24.534  16.100 -0.1301 -0.1403 -0.0930
61622W        W 4638   2.336  22.099  26.383 -0.1341 -0.1853 -0.0016
61623W        W 4639  16.606  20.131  14.667  0.2423 -0.1791  0.0104
61624W        W 4640   6.776  34.463  23.465  0.0348 -0.2516  0.1211
61625W        W 4641   1.321  22.146  15.574 -0.0760 -0.1152 -0.1774
61626W        W 4642   0.565  18.018  18.998  0.1679  0.1826 -0.1967
61627W        W 4643  30.869  23.455  23.325 -0.2343 -0.2681 -0.1211
61628W        W 4644   4.317  20.088  19.023  0.0344  0.1829  0.1692
61629W        W 4645  19.381  11.927  14.655 -0.0465 -0.2187 -0.1263
61630W        W 4646  23.239  14.593  18.784  0.1909 -0.0355 -0.5104
61631W        W 4647  33.189  25.578  18.173  0.1329  0.4273 -0.0472
61632W        W 4648   9.534  18.784  20.103  0.1355  0.0198  0.0779
61633W        W 4649   6.249  25.974   8.677  0.1379 -0.2374  0.0192
61634W        W 4650   4.287   2.028  18.554  0.5704 -0.2568  0.0078
61635W        W 4651   1.671   8.499  24.127  0.0231 -0.1501  0.2212
61636W        W 4652   7.515  14.654  17.112 -0.3257  0.2826  0.2469
61637W        W 4653   4.314  19.078  14.279  0.0656  0.0801  0.1874
61638W        W 4654  12.992  30.696  28.376  0.0806 -0.1750 -0.2716
61639W        W 4655   4.833  22.009  16.157 -0.1569 -0.1256 -0.0850
61640W        W 4656  26.746  27.788  28.240  0.5230 -0.1460 -0.0785
61641W        W 4657  13.064  12.486  20.707 -0.3039  0.4879  0.0607
61642W        W 4658   8.085  12.369   2.949 -0.3219 -0.3072  0.1196
61643W        W 4659  32.224   0.040  16.960  0.1146  0.1445 -0.0131
61644W        W 4660  15.858  25.861  18.780 -0.1642 -0.1532  0.1109
61645W        W 4661   2.954  23.704  16.801  0.1933 -0.0719 -0.0059
61646W        W 4662   8.766  20.741  29.168  0.0894  0.0101  0.2367
61647W        W 4663  22.843  16.495  23.050  0.1710  0.1944  0.2476
61648W        W 4664   8.271  20.054  16.685 -0.1346  0.5246  0.2264
61649W        W 4665  10.431  32.357  18.688  0.2055  0.0521  0.1035
61650W        W 4666  21.835  22.424  22.576  0.2502 -0.0400  0.3035
61651W        W 4667  22.911  19.158  18.702  0.2458 -0.0487  0.2862
61652W        W 4668  14.077  31.019  16.941 -0.0630 -0.2033  0.1361
61653W        W 4669  28.295  26.989  28.300 -0.2881  0.1085 -0.0228
61654W        W 4670  32.285  22.450  17.624 -0.2813 -0.1804  0.1660
61655W        W 4671  23.722  16.514   0.636 -0.0762  0.0241 -0.0202
61656W        W 4672  28.658   5.187  15.750  0.0473  0.1328 -0.2482
61657W        W 4673   8.454  29.895  19.722  0.0358 -0.1028 -0.1273
61658W        W 4674  15.428  15.046  20.162 -0.1465  0.1042  0.2635
61659W        W 4675  19.630  24.214  19.249 -0.0074 -0.1868 -0.2898
61660W        W 4676  23.287  23.826  17.151  0.1762 -0.2406 -0.0311
61661W        W 4677  19.805  25.662  21.463 -0.1622 -0.0316  0.2918
61662W        W 4678  19.308  29.916  25.616 -0.0624  0.2015  0.2039
61663W        W 4679  11.935  26.752  14.848 -0.0034 -0.0110  0.0252
61664W        W 4680  18.338  14.816  27.752  0.4937 -0.3726  0.1337
61665W        W 4681  15.196  19.719  21.325  0.2449 -0.0384  0.2608
61666W        W 4682   1.601  32.008   6.374 -0.0072  0.1928 -0.0337
61667W        W 4683  11.234  23.760  19.031 -0.3411 -0.0126  0.0544
61668W        W 4684  20.719   4.670  24.297 -0.1007 -0.2720  0.2344
61669W        W 4685   6.439  25.258  21.685 -0.0417 -0.1770 -0.2551
61670W        W 4686  11.823   8.265  19.042 -0.1769  0.0674 -0.2821
61671W        W 4687   9.269  12.562  23.200  0.1493 -0.0210 -0.1350
61672W        W 4688   3.370  14.350  25.494 -0.3336  0.1310 -0.1145
61673W        W 4689  14.522  24.944  21.332 -0.2395 -0.0907  0.0290
61674W        W 4690   6.845  21.085  14.143  0.1396  0.1911  0.3062
61675W        W 4691  10.791  14.857   2.116  0.1690 -0.0874  0.0731
61676W        W 4692  14.210  31.621  15.934 -0.0023 -0.1849 -0.2441
61677W        W 4693   6.968  18.749  13.493 -0.0711 -0.1912  0.4066
61678W        W 4694   3.126  24.787  15.436  0.0524  0.3156 -0.0624
61679W        W 4695   8.599  24.456  13.382 -0.1038  0.2159  0.1844
61680W        W 4696  14.348   0.042  15.747 -0.3578 -0.0628  0.1259
61681W        W 4697   6.860   7.981  23.422  0.0186  0.0286 -0.1676
61682W        W 4698  30.963  13.724  23.478  0.1423 -0.3508  0.1464
61683W        W 4699  23.813   1.572  26.849 -0.2673 -0.4368  0.1810
61684W        W 4700  19.414  29.889  18.788 -0.0114  0.1499 -0.0084
61685W        W 4701  15.304  17.214  25.278  0.1512  0.0088  0.0009
61686W        W 4702   4.774  23.013   0.320  0.4348  0.0361 -0.0572
61687W        W 4703  20.028  14.917  12.772  0.0612  0.2546  0.3066
61688W        W 4704  28.796  16.475  23.097  0.0718 -0.2234 -0.2489
61689W        W 4705   6.732  10.675  15.406 -0.3635 -0.1662 -0.2348
61690W        W 4706   7.916  21.911  13.386 -0.0898 -0.0730 -0.2381
61691W        W 4707   7.167  20.230  17.573  0.0084 -0.0709  0.7388
61692W        W 4708   7.665  19.986  18.640 -0.0505  0.0022 -0.1117
61693W        W 4709   6.421   8.292  19.869  0.1069 -0.0702 -0.0767
61694W        W 4710  34.687   9.400  25.048 -0.2856  0.2737  0.1192
61695W        W 4711  14.848  13.344  27.695 -0.0215 -0.0570  0.2514
61696W        W 4712   9.739  23.183  13.434 -0.1545  0.2629 -0.0732
61697W        W 4713  16.207   9.917  19.445  0.0757 -0.0610  0.2825
61698W        W 4714   5.310  17.866   5.409  0.1930 -0.0115 -0.1545
61699W        W 4715   3.413  23.187  17.260  0.1370  0.0336  0.1831
61700W        W 4716   0.623  17.549  27.569 -0.1291 -0.2527 -0.2405
61701W        W 4717  22.179  25.869  24.511  0.1593  0.0999  0.2004
61702W        W 4718   9.177  32.895  15.587  0.0330 -0.3151  0.0694
61703W        W 4719   9.127  23.918  18.109 -0.1496 -0.1239  0.1859
61704W        W 4720   6.140  27.639  27.551 -0.0728 -0.1910  0.1080
61705W        W 4721  12.519  27.981  14.295 -0.2269  0.1477  0.0144
61706W        W 4722   5.701  24.726  13.565  0.3022 -0.3555 -0.0380
61707W        W 4723  28.496  29.187  22.471 -0.2732  0.2885 -0.2259
61708W        W 4724  20.090  27.467  17.590  0.2096 -0.0602  0.1693
61709W        W 4725   3.265  10.875  18.116  0.0334  0.0730  0.0056
61710W        W 4726  29.473  22.161  27.446 -0.4049  0.3150  0.0373
61711W        W 4727   7.261  30.868  20.301 -0.0720  0.1730  0.1912
61712W        W 4728   7.935  26.390  15.714  0.2249  0.0672  0.0395
61713W        W 4729   5.235  22.641  13.348  0.1951  0.1408 -0.1794
61714W        W 4730   3.852  18.033  20.077 -0.0527 -0.0169 -0.2702
61715W        W 4731  19.420  33.586  23.822  0.2758  0.0464 -0.2480
61716W        W 4732  24.265  23.580  20.837 -0.1432  0.3605 -0.2225
61717W        W 4733  12.054  28.171  14.420  0.1839  0.1796  0.2432
61718W        W 4734   5.010  14.656  13.835 -0.1572  0.0177  0.2025
61719W        W 4735   9.469  28.490  14.735 -0.1222  0.0508  0.1536
61720W        W 4736  15.820  23.008  18.444  0.0213 -0.2042  0.0215
61721W        W 4737  14.267  26.426  14.273  0.4025 -0.2616  0.2490
61722W        W 4738  31.599  33.531  15.450  0.0922 -0.0905 -0.0526
61723W        W 4739   2.979  15.761  21.270  0.0086 -0.1618 -0.2789
61724W        W 4740  32.712  13.618  19.507  0.1148  0.0957  0.0944
61725W        W 4741  13.133  28.752  19.379 -0.1955  0.1269  0.1160
61726W        W 4742  32.360   1.567  20.420  0.0253  0.2069  0.2909
61727W        W 4743  34.318  32.705  17.319 -0.0523 -0.1438  0.1677
61728W        W 4744  24.629  21.932  20.414  0.0847 -0.2355 -0.0190
61729W        W 4745  24.161   0.814   0.215  0.0590  0.1797 -0.1910
61730W        W 4746  21.194   1.538  16.939  0.1922 -0.2446 -0.2223
61731W        W 4747   7.724  24.379  15.636  0.0402 -0.0112 -0.0556
61732W        W 4748   2.503  16.931  20.748  0.0865  0.1107 -0.0587
61733W        W 4749  11.585  22.586  12.256 -0.0256 -0.3378 -0.1738
61734W        W 4750  12.911  30.446  16.654  0.2093  0.1213 -0.1973
61735W        W 4751  14.082   4.219  23.652  0.3203 -0.6288 -0.3117
61736W        W 4752   7.138  27.115  14.758 -0.0437  0.1175  0.1250
61737W        W 4753  32.209  16.175  15.133 -0.2271  0.0365  0.1446
61738W        W 4754  16.263  10.765  19.058 -0.0120  0.0169 -0.0186
61739W        W 4755   3.577  25.069  14.592 -0.0623  0.2902  0.2284
61740W        W 4756  19.854  27.401  19.900  0.4153  0.1621  0.0522
61741W        W 4757   3.064  18.428  21.148 -0.0526  0.1754  0.0462
61742W        W 4758   8.158   2.505  15.203 -0.2161  0.1055  0.0193
61743W        W 4759  15.006   4.010  24.887 -0.1153  0.0547  0.0355
61744W        W 4760   0.942  16.207   5.300  0.0420  0.0211 -0.2930
61745W        W 4761   2.239  15.520   2.035 -0.0711  0.2812 -0.0187
61746W        W 4762   7.114   2.614  22.804  0.1034 -0.2401  0.2413
61747W        W 4763   9.926  21.845  18.727  0.0571  0.2450  0.0008
61748W        W 4764   3.019  13.677  15.422  0.1914 -0.1336 -0.3507
61749W        W 4765  18.459   8.047  13.534  0.4831  0.4644  0.0746
61750W        W 4766   6.269  34.690  22.706 -0.1563  0.1193 -0.1030
61751W        W 4767   7.259  14.445  18.733  0.0417 -0.1803 -0.4156
61752W        W 4768   1.730  23.278  15.578 -0.1562 -0.2296 -0.2840
61753W        W 4769  21.818  27.077  18.044 -0.2260  0.0753 -0.0366
61754W        W 4770   7.105  32.314  21.020 -0.1729  0.1928 -0.1000
61755W        W 4771   2.565   0.585  23.633  0.5520  0.3030  0.0103
61756W        W 4772   8.142  13.482  14.168  0.0777 -0.1038 -0.1530
61757W        W 4773  19.945   1.202  21.430  0.2241 -0.0596 -0.2674
61758W        W 4774   6.826  24.470  17.315 -0.0881 -0.0179  0.0312
61759W        W 4775  32.934  15.328  24.932  0.3856  0.0347  0.1853
61760W        W 4776  24.342   5.439  19.301  0.2222  0.2738 -0.0262
61761W        W 4777   2.091  32.411  17.515 -0.0761 -0.0421 -0.1185
61762W        W 4778  17.052  22.485  21.516 -0.1617  0.2318  0.1811
61763W        W 4779  29.365  21.629  18.678  0.0022 -0.2193 -0.1299
61764W        W 4780  16.906  23.462   7.153 -0.2981 -0.1051  0.0493
61765W        W 4781  34.353  15.780  15.568  0.0396 -0.1406  0.1451
61766W        W 4782  12.204  20.761  21.787  0.0184  0.1827  0.2978
61767W        W 4783   1.148  23.218  22.373 -0.0574  0.2625 -0.0234
61768W        W 4784  12.199  19.882  15.044 -0.2165 -0.0411 -0.1009
61769W        W 4785  20.938  32.597  28.467 -0.1451  0.1048  0.4036
61770W        W 4786  19.420   1.699  19.061 -0.1128 -0.2450  0.1410
61771W        W 4787  30.272  24.549   0.784 -0.1363  0.3173  0.2143
61772W        W 4788  21.845  28.671  26.908  0.1833 -0.0623 -0.0437
61773W        W 4789  30.960  30.808  21.913  0.0214 -0.0931  0.2981
61774W        W 4790  18.662  18.806  14.626 -0.3023 -0.0238 -0.1563
61775W        W 4791   9.913  10.323  15.708  0.1002  0.0640 -0.0187
61776W        W 4792  14.945  13.275   2.852  0.3464  0.0545  0.2391
61777W        W 4793  31.440  21.306  18.168 -0.0343  0.2242  0.3022
61778W        W 4794  18.591  26.578  18.094 -0.1889 -0.1730  0.0224
61779W        W 4795  11.692  18.518  22.634  0.0569 -0.4201  0.1978
61780W        W 4796  12.936  28.791  14.766  0.2946  0.4480  0.1050
61781W        W 4797  15.160  23.480  13.420 -0.0009  0.0618  0.0980
61782W        W 4798  27.954  15.931  27.000 -0.0733  0.0705 -0.3056
61783W        W 4799   0.325  24.529  18.316  0.2324  0.0903  0.0249
61784W        W 4800  19.585  11.818  15.625 -0.1928 -0.0911 -0.1185
61785W        W 4801   2.812  16.405  16.170 -0.0355 -0.1391  0.3436
61786W        W 4802  30.954  25.110  24.844 -0.2090  0.2151 -0.2002
61787W        W 4803  20.409   3.636  20.385 -0.3009  0.0581  0.1795
61788W        W 4804   4.270  24.800   1.472  0.1235  0.0974 -0.4814
61789W        W 4805   7.147  30.767  17.377 -0.0485  0.2751 -0.0494
61790W        W 4806   8.013  28.175  20.437 -0.0744 -0.2710 -0.0105
61791W        W 4807   7.301  32.937  19.736  0.4904  0.5389  0.0079
61792W        W 4808  15.145  32.066  27.092 -0.1791 -0.3135  0.4472
61793W        W 4809  10.203  11.061  13.555 -0.0930 -0.0816 -0.0869
61794W        W 4810  20.813   1.434   2.529  0.1521  0.1764 -0.0618
61795W        W 4811  17.863  10.309  18.743  0.0705  0.1409 -0.1394
61796W        W 4812  30.553   5.866  29.284 -0.1311 -0.0018  0.1471
61797W        W 4813  32.648   3.491  25.493  0.0847  0.2421  0.2970
61798W        W 4814  20.421  12.887  14.583  0.0643  0.1634  0.1217
61799W        W 4815   9.358  11.825  13.566  0.0453 -0.0252 -0.0146
61800W        W 4816  30.005  34.583  20.159 -0.0664 -0.1875  0.3881
61801W        W 4817  31.553   3.978  16.691  0.0215 -0.2240 -0.0091
61802W        W 4818   1.175  19.577  25.215 -0.3212 -0.0007 -0.0503
61803W        W 4819  23.590  28.863  18.376 -0.0772  0.1430  0.0279
61804W        W 4820  10.342   2.623  27.065  0.0917  0.0834 -0.3772
61805W        W 4821  11.653  33.289  16.380 -0.2246 -0.1555  0.0317
61806W        W 4822   5.196  31.621  13.786 -0.2415  0.2034 -0.0270
61807W        W 4823  10.584  18.820  17.789 -0.3826 -0.0582 -0.0637
61808W        W 4824  11.450  23.263  16.678  0.0694  0.1375  0.2509
61809W        W 4825  33.926   4.661  16.336  0.0335  0.0036 -0.5331
61810W        W 4826   2.012  18.368  16.342 -0.3142 -0.0654 -0.1941
61811W        W 4827   0.298   6.021  22.610 -0.0077 -0.2605  0.0390
61812W        W 4828  21.017   2.596  20.847 -0.4447  0.0572 -0.5655
61813W        W 4829  31.217   1.273  20.781  0.1264 -0.0676  0.1061
61814W        W 4830  14.960  28.460  18.351 -0.1346 -0.0446 -0.0688
61815W        W 4831   9.796   7.944  23.502  0.0389  0.0348  0.1404
61816W        W 4832  22.007  10.657  17.820 -0.0255 -0.3087 -0.0063
61817W        W 4833  13.899   1.115  14.308 -0.1622  0.0848  0.1521
61818W        W 4834  21.132  23.945  16.204  0.1205 -0.0505  0.1733
61819W        W 4835   5.924  31.662  23.803 -0.0701  0.1384  0.0019
61820W        W 4836   5.660  13.206  13.135  0.0776 -0.2671  0.1252
61821W        W 4837   4.264  32.488  26.331 -0.4013  0.0222 -0.2398
61822W        W 4838   0.171  26.917  27.262  0.0666 -0.1224  0.1488
61823W        W 4839   8.069  17.570  24.841  0.2085 -0.0108  0.1076
61824W        W 4840  20.875  32.617  18.256 -0.0844 -0.1885  0.1426
61825W        W 4841   7.595   3.169  21.975  0.0017 -0.0951 -0.1840
61826W        W 4842  17.629   1.117  15.713 -0.0914  0.1238 -0.1377
61827W        W 4843  25.610  24.573  22.522  0.1442 -0.0962 -0.1103
61828W        W 4844   6.219  32.510   4.930 -0.1727 -0.2155  0.3905
61829W        W 4845  18.175  27.955  18.662 -0.1558 -0.0800  0.1606
61830W        W 4846  22.504   2.459  24.632 -0.2527 -0.2518  0.1402
61831W        W 4847   7.147  21.614   2.352 -0.0162 -0.3385 -0.0729
61832W        W 4848  29.055  20.517  20.412 -0.2649 -0.1737  0.1186
61833W        W 4849  11.557   8.377  18.410  0.0667 -0.1319 -0.0515
61834W        W 4850  18.534   4.983  15.133 -0.2594  0.2220 -0.1320
61835W        W 4851  22.203  22.196  17.785  0.1542 -0.0484  0.1113
61836W        W 4852   9.023  32.002  26.718  0.0435  0.0715 -0.0044
61837W        W 4853  10.843   9.494  17.745 -0.0466  0.0296  0.0309
61838W        W 4854  21.932  26.843  20.082 -0.0753  0.0827  0.0993
61839W        W 4855  10.119  33.868  28.315 -0.4290  0.2352 -0.2047
61840W        W 4856  10.537  13.049  15.353  0.3757  0.0840 -0.2286
61841W        W 4857  12.409  16.044  16.720 -0.4363 -0.0629  0.1727
61842W        W 4858   0.827  22.110  16.415 -0.1506  0.0635  0.0362
61843W        W 4859  20.908  18.709  14.626  0.1496 -0.0183  0.0943
61844W        W 4860   2.773  25.764   3.442  0.2634 -0.1880  0.0817
61845W        W 4861  25.459  14.959  19.410 -0.1209 -0.1640  0.1424
61846W        W 4862   8.136  18.737  25.422 -0.1860 -0.0572 -0.1542
61847W        W 4863   6.217  34.067  20.013  0.1367  0.3150 -0.1549
61848W        W 4864  21.414  17.534  20.348  0.1761 -0.0447  0.0219
61849W        W 4865   3.393  13.338  14.596 -0.2520 -0.1232 -0.0242
61850W        W 4866  11.573  11.385  13.528 -0.0293 -0.0645 -0.0207
61851W        W 4867  20.617  24.771  24.304 -0.0767 -0.1894 -0.1209
61852W        W 4868   2.280  17.827  20.406  0.2807  0.0451  0.1993
61853W        W 4869  11.009  23.595  19.832 -0.1335 -0.2368 -0.0214
61854W        W 4870   2.862  20.894  27.819 -0.1336 -0.0981  0.2204
61855W        W 4871   7.232  13.603  14.079  0.2950 -0.0155  0.1177
61856W        W 4872  20.761  10.635  18.906  0.0933  0.1913 -0.1428
61857W        W 4873  21.009   5.187  19.501 -0.3153 -0.3371 -0.0153
61858W        W 4874  24.464  29.941  23.402  0.3890 -0.3217 -0.1711
61859W        W 4875  17.277  27.335   1.934 -0.2236  0.0581  0.1259
61860W        W 4876   9.928  28.313  21.211  0.0920  0.0802  0.0681
61861W        W 4877  27.118  24.248  17.098 -0.0026  0.0231 -0.1025
61862W        W 4878   5.727  10.972   3.939  0.2019  0.1481 -0.1306
61863W        W 4879  19.097  14.666  14.042 -0.0999 -0.1933  0.0308
61864W        W 4880  15.069  20.882  13.080 -0.1457 -0.1073 -0.0203
61865W        W 4881   4.091  29.024  16.706  0.0901 -0.0916  0.1226
61866W        W 4882   7.572  29.836  14.152 -0.0190  0.2095  0.2493
61867W        W 4883  21.716  18.163  14.943  0.0913 -0.1112 -0.2204
61868W        W 4884   9.036  16.340  22.148  0.2725 -0.0349 -0.0006
61869W        W 4885  20.836  23.171  26.866  0.2647 -0.1776  0.1848
61870W        W 4886   7.255  22.873  18.107  0.3408 -0.0290 -0.0781
61871W        W 4887  10.252   2.191  14.935 -0.0707 -0.0155 -0.0585
61872W        W 4888   6.653  22.165  12.627 -0.2192 -0.2018 -0.1365
61873W        W 4889  33.389  21.698  22.146  0.1946  0.1792  0.1628
61874W        W 4890   2.094  32.692  15.938  0.0894 -0.1227  0.1025
61875W        W 4891   6.937   5.736  25.367 -0.1431  0.1581  0.2741
61876W        W 4892  22.807  10.265  19.992  0.2374 -0.0983  0.2886
61877W        W 4893  28.757  15.504  21.413 -0.4790  0.0898  0.0265
61878W        W 4894  13.372  21.927  12.417 -0.1211  0.0705 -0.0468
61879W        W 4895  30.552  32.414  26.753 -0.2407  0.0524  0.3330
61880W        W 4896   6.820  22.974  21.620  0.2358  0.2680  0.0971
61881W        W 4897  30.386  18.509  26.392 -0.1738  0.0986 -0.2190
61882W        W 4898  15.972  18.602  20.397 -0.3252  0.1731 -0.1889
61883W        W 4899   7.703  14.272  21.337  0.0648 -0.0628  0.1739
61884W        W 4900   7.299  24.362  23.526 -0.0150 -0.0074  0.2507
61885W        W 4901  28.894  17.687  18.660  0.1148  0.1960  0.1691
61886W        W 4902  23.008  18.280  28.662 -0.1361  0.0443 -0.1980
61887W        W 4903   8.513  20.324  13.038  0.0377  0.2385 -0.2093
61888W        W 4904  12.537  27.687  15.800 -0.1513  0.2801  0.0633
61889W        W 4905  12.822   9.141  23.273  0.0420  0.2302 -0.4476
61890W        W 4906   6.197  27.481  17.623 -0.0795 -0.0583 -0.2349
61891W        W 4907   5.575  16.730  17.041  0.2778  0.3660  0.0170
61892W        W 4908  25.628   4.548  20.907  0.3052 -0.0846  0.2248
61893W        W 4909  27.082  24.677   1.781 -0.1346  0.3275 -0.2982
61894W        W 4910   4.043   1.425  23.731  0.4012  0.2228 -0.3926
61895W        W 4911   3.962  21.899  16.583  0.0475  0.0483  0.0583
61896W        W 4912   9.349  31.582  28.910  0.0293  0.0021  0.0125
61897W        W 4913  19.113  21.105  14.154 -0.1145 -0.4501  0.3264
61898W        W 4914  14.840   3.738  19.046 -0.0028 -0.1677  0.2570
61899W        W 4915  24.482  23.620  17.831 -0.0200 -0.2048 -0.1727
61900W        W 4916  19.737  25.148  14.827  0.1598 -0.1344  0.1300
61901W        W 4917   5.768  26.532   5.935 -0.1410 -0.1326 -0.1108
61902W        W 4918   0.501  19.422  19.228  0.1520 -0.0717  0.1651
61903W        W 4919  18.480   8.547  22.684  0.0713 -0.0127 -0.0037
61904W        W 4920  25.581  23.917  24.862  0.0181  0.1342  0.0575
61905W        W 4921   7.038  23.660  28.470 -0.2010  0.1041 -0.0316
61906W        W 4922  24.484  24.995  23.653 -0.2153 -0.3637  0.0222
61907W        W 4923  21.733   1.775  19.144 -0.2239 -0.0120  0.0582
61908W        W 4924  23.627  26.592   1.176  0.2102 -0.2929 -0.0669
61909W        W 4925  12.410   4.643  29.066  0.0966  0.0633  0.1874
61910W        W 4926  13.623  32.196  14.624  0.2962  0.0217  0.1722
61911W        W 4927   6.695  31.943  15.300 -0.0271  0.3715 -0.1585
61912W        W 4928  19.984  17.074  14.068 -0.0503 -0.0299 -0.1692
61913W        W 4929   6.658  21.777  14.778  0.0561 -0.1698  0.1176
61914W        W 4930  32.388   0.227  17.732  0.4107 -0.2893  0.1415
61915W        W 4931  11.277  14.198  27.079 -0.1001  0.1146 -0.2228
61916W        W 4932  19.516   4.488  27.940 -0.1428 -0.1669 -0.0386
61917W        W 4933   8.103  30.167   9.221 -0.1403  0.0862 -0.1000
61918W        W 4934  32.991  28.845  21.162  0.1485 -0.1512 -0.0352
61919W        W 4935  10.734  34.099   5.316 -0.0089  0.0450  0.3598
61920W        W 4936  23.708  13.858  21.575  0.0577 -0.1327 -0.1157
61921W        W 4937  13.289  10.992  23.595  0.1997 -0.1694  0.1783
61922W        W 4938  12.945  29.656  14.198 -0.3585  0.0836 -0.1197
61923W        W 4939  30.167  25.944  24.715  0.1191 -0.0183 -0.0494
61924W        W 4940  11.990  26.075   5.097  0.1556  0.0359 -0.0520
61925W        W 4941  23.396  21.555  27.835  0.1635  0.0473 -0.0399
61926W        W 4942  24.160  10.327   0.953 -0.2055 -0.0978  0.3521
61927W        W 4943   3.222  16.162   3.783  0.0861  0.1332 -0.2126
61928W        W 4944   7.339  19.307  12.918  0.1859 -0.2563 -0.1640
61929W        W 4945  17.843  23.419  12.934  0.1865  0.0077  0.0879
61930W        W 4946   7.905   2.038   0.327  0.0964 -0.0125  0.1521
61931W        W 4947  23.720  16.608  16.680  0.1399  0.3996 -0.1275
61932W        W 4948  16.040  24.999  26.062 -0.3366  0.0683 -0.0300
61933W        W 4949  21.988  19.508  23.403 -0.0316 -0.2340 -0.0449
61934W        W 4950   4.140  28.034  21.340 -0.2203  0.1835 -0.2321
61935W        W 4951  13.676  23.951  15.171  0.0306  0.1959  0.1784
61936W        W 4952  20.336  33.721  20.718  0.0601  0.1935 -0.0190
61937W        W 4953  13.321  21.933  22.648  0.1777  0.2634 -0.3952
61938W        W 4954  28.573  11.861  15.243 -0.1335 -0.0334  0.0723
61939W        W 4955  19.732  18.810  15.884 -0.5283  0.0955  0.2861
61940W        W 4956  18.169  34.051  22.720 -0.1686  0.1331 -0.1811
61941W        W 4957  33.495  12.778  23.488 -0.0896 -0.1566  0.3110
61942W        W 4958   7.189  21.713  18.521 -0.0473 -0.1447  0.2587
61943W        W 4959  21.801  15.530  22.664  0.1284  0.2212  0.3385
61944W        W 4960   8.790  20.007  13.456 -0.1002 -0.2011  0.0605
61945W        W 4961  19.007  24.367  24.971  0.0181 -0.0664  0.1912
61946W        W 4962  28.992  25.193  19.932 -0.2286 -0.1213  0.1484
61947W        W 4963  25.539  14.392  27.949  0.0456 -0.1307  0.1116
61948W        W 4964   1.107  17.464  15.847 -0.2429  0.2786  0.2011
61949W        W 4965   5.401   3.417  18.600 -0.2751  0.2623  0.1088
61950W        W 4966   7.716  13.481  17.763  0.0955  0.0073 -0.0764
61951W        W 4967   1.442  30.055  20.252 -0.0913 -0.2064 -0.3746
61952W        W 4968  17.035  27.215   4.004 -0.3789  0.0422 -0.0171
61953W        W 4969  17.591  21.676  17.301  0.2645 -0.2600  0.1824
61954W        W 4970  17.487  24.214  18.064 -0.3106 -0.2097  0.0049
61955W        W 4971   9.785  24.220  19.934  0.1347 -0.3040 -0.1434
61956W        W 4972  17.882   7.814  14.316 -0.0076  0.3016  0.0176
61957W        W 4973  19.127  24.107  18.029 -0.0523  0.2997 -0.0520
61958W        W 4974  13.696  25.548  25.301 -0.3541  0.0856 -0.0982
61959W        W 4975  16.013  24.646  13.895 -0.0871  0.0337 -0.0518
61960W        W 4976  27.841  18.549   5.919 -0.0710  0.1668  0.1486
61961W        W 4977  21.431  24.833  16.675  0.2256 -0.3896  0.2886
61962W        W 4978  18.365  20.591  21.606 -0.0747 -0.1638  0.2170
61963W        W 4979   3.781  29.239  22.046 -0.0161  0.0600  0.2679
61964W        W 4980   5.529  17.364  19.966  0.0136  0.0508 -0.1533
61965W        W 4981  20.400  22.161  19.302 -0.0969  0.2437  0.0546
61966W        W 4982   4.392  19.749  25.384 -0.0860  0.1190  0.2182
61967W        W 4983   4.725  28.815   7.779  0.1615  0.0228  0.1360
61968W        W 4984   9.504  12.630  14.256  0.0237 -0.2331 -0.0427
61969W        W 4985  17.051  25.271  20.273 -0.0062 -0.3712 -0.0483
61970W        W 4986  11.671   3.328  15.736  0.3515  0.2201 -0.0490
61971W        W 4987   4.640  21.878  14.337 -0.0182  0.0311  0.2730
61972W        W 4988  12.276  22.382  14.824  0.2396 -0.3095  0.0598
61973W        W 4989   6.033  31.693  16.376  0.2470  0.3265 -0.2923
61974W        W 4990   4.705  18.746   0.150 -0.1197 -0.3135 -0.2899
61975W        W 4991  16.332  18.433  16.326  0.1699 -0.2961 -0.0760
61976W        W 4992  17.366  27.589  15.125  0.1127  0.2619  0.0261
61977W        W 4993  13.527  27.599  27.386 -0.1045 -0.0890  0.0150
61978W        W 4994  18.161  29.162  15.804  0.1887 -0.2959  0.1967
61979W        W 4995  19.952  26.451  21.990  0.3234 -0.4589 -0.1285
61980W        W 4996  14.195  24.766  19.309 -0.2651 -0.1339 -0.1210
61981W        W 4997  23.592  30.747  14.753 -0.0312  0.1237 -0.0617
61982W        W 4998  10.057  25.905  13.615 -0.3142  0.1035 -0.0733
61983W        W 4999  10.538  18.753  14.499  0.4319  0.0964 -0.1976
61984W        W 5000   9.206  10.518  25.788  0.2077  0.2466  0.0883
61985W        W 5001   1.173   6.829  26.183 -0.3218  0.3606  0.3291
61986W        W 5002   4.804  21.501  14.722  0.2066 -0.1893 -0.0841
61987W        W 5003  29.338   6.751   3.671 -0.2287  0.1717  0.1367
61988W        W 5004  21.780  21.121  13.903 -0.1957 -0.3770 -0.0799
61989W        W 5005   8.384  23.278  20.905 -0.1063  0.0756 -0.0417
61990W        W 5006  24.982  27.123  21.521  0.0271  0.0114  0.0723
61991W        W 5007  24.546  19.328  25.165  0.1650 -0.1218  0.2031
61992W        W 5008  10.911  34.631  24.823 -0.4839 -0.0256  0.1246
61993W        W 5009  12.612   1.032  19.631 -0.0295  0.1179  0.1322
61994W        W 5010  24.330  22.731  25.891  0.0845 -0.0535 -0.1232
61995W        W 5011   9.741  20.077  26.448 -0.2751  0.0902 -0.0106
61996W        W 5012  23.215  16.388  17.203 -0.0853 -0.0019 -0.0550
61997W        W 5013   0.956   3.205  10.518 -0.1887 -0.1475  0.0388
61998W        W 5014   1.818  14.296   1.180 -0.3879  0.0155  0.2464
61999W        W 5015   8.428  22.936  16.964 -0.0099  0.0827  0.1559
62000W        W 5016  14.402  25.513   1.343  0.2337 -0.1979 -0.2588
62001W        W 5017  10.695  21.761  24.146 -0.0518  0.2312 -0.1346
62002W        W 5018  14.387  29.446  20.870 -0.0534  0.2115  0.0347
62003W        W 5019  15.308  29.384  16.065 -0.0783  0.3419  0.0047
62004W        W 5020   1.926  22.648  21.659  0.3741  0.4917  0.1396
62005W        W 5021  20.480  23.011  13.707 -0.0186 -0.0835  0.1240
62006W        W 5022  21.488  18.889  16.169 -0.3093  0.2102 -0.0032
62007W        W 5023  13.681  19.744  23.190  0.2084 -0.1887 -0.1559
62008W        W 5024  12.810  28.396  23.487  0.0950  0.0929  0.0746
62009W        W 5025  14.355  12.750  14.039  0.0873  0.0815  0.0746
62010W        W 5026   8.895   2.729   0.329  0.1773 -0.2902  0.0418
62011W        W 5027  33.971  10.114  19.130 -0.2438 -0.0402  0.2036
62012W        W 5028   2.293  11.041  25.136  0.0450 -0.0129 -0.0263
62013W        W 5029   2.855  15.448  23.279  0.2489 -0.2302 -0.1435
62014W        W 5030   7.901  18.525   6.238  0.1608  0.0685 -0.0402
62015W        W 5031  30.619  30.535  19.417 -0.0391 -0.1204 -0.3678
62016W        W 5032   7.062  19.923  17.969  0.1654  0.1477  0.2135
62017W        W 5033   7.049  17.480  17.141 -0.2664  0.0015  0.1879
62018W        W 5034   9.981  12.330  12.726  0.1362  0.0938  0.0218
62019W        W 5035  22.523  18.074  18.614  0.2319 -0.0775 -0.2200
62020W        W 5036   7.759  22.985  21.359 -0.2792  0.2183  0.0061
62021W        W 5037  13.703  17.474  15.672  0.0881  0.1479 -0.1159
62022W        W 5038  20.803  25.635   8.249 -0.3441 -0.1015 -0.3026
62023W        W 5039  25.027  24.680  22.772  0.1579 -0.3000 -0.1410
62024W        W 5040  10.299  34.623  18.951  0.0444 -0.1740  0.2795
62025W        W 5041   3.796  18.298  18.870  0.1500 -0.0379  0.2087
62026W        W 5042   0.056  23.274  16.105 -0.0607  0.1298 -0.1171
62027W        W 5043  14.957  20.369  12.280  0.3773 -0.1393 -0.3506
62028W        W 5044   2.889  25.371  27.362 -0.0006 -0.0458 -0.0921
62029W        W 5045  34.544  16.048  19.272  0.3435 -0.2610 -0.0533
62030W        W 5046   3.425   6.206  24.907  0.1440 -0.0799 -0.1327
62031W        W 5047  17.152  25.279  27.166  0.0408 -0.3007  0.0858
62032W        W 5048  24.471   6.629  18.689 -0.1831 -0.2029  0.2617
62033W        W 5049  26.151  22.373  25.701 -0.1068 -0.1716  0.3526
62034W        W 5050  13.714  30.427  17.606 -0.0247  0.0803  0.0074
62035W        W 5051  20.983  19.328  22.303  0.2968  0.2260 -0.1029
62036W        W 5052  21.679  19.949  25.308 -0.0477 -0.1400  0.2207
62037W        W 5053   6.698  21.895  23.854 -0.0188  0.2165  0.0753
62038W        W 5054   8.052  21.347   1.424 -0.1558 -0.4018 -0.0907
62039W        W 5055   4.428   8.583  21.717 -0.2214  0.3068  0.3377
62040W        W 5056  15.534   0.515  20.144  0.2603 -0.0740 -0.1005
62041W        W 5057  25.636  14.682  18.503  0.1925  0.0160  0.1348
62042W        W 5058   4.339  25.638  15.609 -0.2438 -0.2381 -0.1052
62043W        W 5059   6.955  27.931  16.190  0.0821 -0.0640  0.0673
62044W        W 5060   3.865  22.325  28.721  0.3307 -0.0546 -0.0986
62045W        W 5061   9.244  31.877  17.323  0.1127 -0.1762  0.1845
62046W        W 5062  18.646  29.461  14.729 -0.1410 -0.1510 -0.1113
62047W        W 5063  23.911  22.969  19.196 -0.0601 -0.0548 -0.2292
62048W        W 5064  26.524  30.267  19.138  0.0028  0.0577 -0.0651
62049W        W 5065  16.739  10.871  13.756 -0.0981  0.1789  0.0766
62050W        W 5066   7.225  27.914  20.705 -0.0563 -0.1394  0.2865
62051W        W 5067   8.348  21.918   8.487  0.1794 -0.1079  0.3573
62052W        W 5068   9.272   6.858  23.641  0.0755  0.0289 -0.2508
62053W        W 5069  31.139  33.548  25.011 -0.2322  0.0813  0.1339
62054W        W 5070  10.194  19.133  16.545  0.2346  0.1695  0.0840
62055W        W 5071  32.394   1.174  25.739 -0.2113 -0.1766 -0.3433
62056W        W 5072  20.658  23.384  17.434 -0.2051 -0.1389 -0.2262
62057W        W 5073  16.261  14.632  27.499 -0.3930  0.1135  0.0230
62058W        W 5074  21.889  23.765  17.564 -0.3789 -0.2848 -0.2778
62059W        W 5075  33.418  11.440  28.074 -0.1274  0.0145 -0.1335
62060W        W 5076  20.415  30.868  22.238 -0.1858  0.1330  0.0377
62061W        W 5077  14.349  10.733  21.210 -0.0106  0.0199 -0.2077
62062W        W 5078   9.096   2.618  28.059 -0.3383  0.2327  0.3774
62063W        W 5079  28.788  20.874   3.153 -0.0883 -0.1313  0.1147
62064W        W 5080  14.636   2.456  18.492 -0.0139 -0.1824  0.0008
62065W        W 5081  10.325  25.172  22.871 -0.2171 -0.3071 -0.0617
62066W        W 5082  12.171  19.587  26.651  0.0292  0.4988  0.0460
62067W        W 5083  20.499  34.013   0.643 -0.1814 -0.0669 -0.2179
62068W        W 5084   3.908  18.237  20.596  0.2115 -0.1426  0.0446
62069W        W 5085   5.436  25.985  13.021 -0.0349  0.1972 -0.0387
62070W        W 5086  22.172  16.513  12.907  0.1023 -0.0198  0.1773
62071W        W 5087  10.053  20.236  21.230  0.3816  0.1040 -0.0390
62072W        W 5088   6.253   6.000  18.344 -0.1529 -0.1200  0.1807
62073W        W 5089  10.566  15.861  14.966 -0.1452  0.0020  0.1670
62074W        W 5090  25.244   8.610  17.737  0.1201  0.2997  0.1527
62075W        W 5091   2.885  18.208  18.363 -0.2784  0.0782 -0.1156
62076W        W 5092  10.367  20.895  13.499 -0.3352 -0.1094  0.3128
62077W        W 5093  10.916   6.571   2.323 -0.1616  0.2457  0.0511
62078W        W 5094   9.422  32.340  25.288 -0.0018 -0.0630 -0.1929
62079W        W 5095  24.103  24.830  22.593  0.2833  0.0556  0.0710
62080W        W 5096   3.376   1.481  20.278 -0.2791  0.1053  0.2797
62081W        W 5097   6.196  21.732  19.124 -0.1407 -0.0325 -0.0048
62082W        W 5098  19.300  27.972  19.043 -0.0758  0.2393 -0.2194
62083W        W 5099  25.961  22.308  17.234 -0.0624 -0.1542  0.0523
62084W        W 5100  15.378  24.142  28.852 -0.0864  0.3441 -0.1023
62085W        W 5101  16.871  21.789   6.547  0.1646 -0.0503  0.0657
62086W        W 5102  13.012  27.943  15.592  0.2179 -0.3787 -0.1059
62087W        W 5103   2.053   9.973  18.990 -0.3876  0.1530 -0.0976
62088W        W 5104  12.347  30.350  13.896 -0.5180 -0.3519 -0.0799
62089W        W 5105  15.519  29.386  16.997  0.0542 -0.1132  0.4838
62090W        W 5106   3.635  17.947  21.470 -0.2421 -0.0576  0.1083
62091W        W 5107  27.826  31.208  18.900  0.4265  0.1342 -0.1925
62092W        W 5108  15.583   0.612  26.941 -0.1194 -0.1214 -0.1042
62093W        W 5109  15.191  22.488  23.516  0.2088  0.1576 -0.1200
62094W        W 5110  30.066  27.043  24.896 -0.0152  0.0475  0.2843
62095W        W 5111  10.786  27.018  23.156 -0.0502  0.2123 -0.0285
62096W        W 5112  33.421  30.512  18.552  0.0356  0.2458 -0.2137
62097W        W 5113  11.943  19.934  27.553 -0.2240 -0.2028  0.0474
62098W        W 5114  19.174  24.357  19.364  0.2548  0.0479  0.0850
62099W        W 5115   4.201   6.858  20.174 -0.1631 -0.0851 -0.1460
62100W        W 5116  21.986   1.778  26.513  0.3015  0.0280  0.2557
62101W        W 5117   7.555  14.182  25.810  0.1496 -0.3275  0.1880
62102W        W 5118  12.267  33.091  19.264  0.3344 -0.0671 -0.6180
62103W        W 5119  13.022  27.073  20.961 -0.0415  0.0680  0.3622
62104W        W 5120   7.768  29.350   8.310 -0.0338 -0.0461  0.1495
62105W        W 5121  14.090  17.326  15.343  0.0505 -0.2069  0.0254
62106W        W 5122  23.553  29.976  24.941  0.0548 -0.3135  0.4959
62107W        W 5123  33.788  28.090  28.668 -0.1272  0.0718  0.1731
62108W        W 5124  20.347  28.094   5.164  0.2039 -0.3195  0.0425
62109W        W 5125  32.479   7.000  25.778  0.0450 -0.0752  0.1884
62110W        W 5126  17.460  24.823  21.563 -0.1806 -0.3700 -0.2000
62111W        W 5127  21.437   0.136  26.975 -0.0640 -0.1515 -0.0836
62112W        W 5128  17.358  25.365  23.760  0.5361 -0.1422 -0.1509
62113W        W 5129   9.586  23.049  25.651 -0.2567  0.1718  0.3037
62114W        W 5130  15.525  27.296  25.612 -0.1279  0.1535 -0.0589
62115W        W 5131  28.268  31.450   8.819  0.1102 -0.1319  0.1722
62116W        W 5132  19.371  20.985   7.351  0.0391 -0.3515 -0.1202
62117W        W 5133   9.312   3.868   8.959 -0.2220 -0.1764 -0.3964
62118W        W 5134  23.163  24.690  28.806  0.1752  0.2109 -0.0490
62119W        W 5135   1.166  11.892  17.146  0.0322 -0.1539  0.2498
62120W        W 5136  33.811  19.061  15.069  0.1523  0.0740  0.0249
62121W        W 5137  10.113  26.451  21.419 -0.0054  0.0097  0.1599
62122W        W 5138  34.165   2.367  15.694 -0.0265  0.1659 -0.0713
62123W        W 5139  32.413  14.128   7.700  0.1850  0.0412 -0.0060
62124W        W 5140  12.201  14.808  14.101 -0.2164 -0.1076  0.1275
62125W        W 5141  24.143   0.248  25.219  0.0304  0.3209 -0.2011
62126W        W 5142  19.864  31.529  16.865  0.0171 -0.0492  0.1360
62127W        W 5143   4.101  27.105  17.338 -0.0528 -0.0952  0.2250
62128W        W 5144  10.166  13.026  14.798 -0.1870 -0.2101  0.1902
62129W        W 5145   4.643  20.139  28.942 -0.0491  0.0128  0.0932
62130W        W 5146  28.805  18.478  23.577  0.0621 -0.0137 -0.1257
62131W        W 5147  19.487  27.913  27.080  0.0846  0.2074  0.0085
62132W        W 5148  12.159  18.644  14.727  0.0899  0.4650 -0.2157
62133W        W 5149   5.940  13.056  28.698 -0.1241 -0.0421 -0.3648
62134W        W 5150  24.854  19.036  26.088 -0.3323 -0.1186  0.3265
62135W        W 5151  17.110  21.498  16.241 -0.2993  0.1594  0.1127
62136W        W 5152  12.581  17.534  11.915 -0.2586  0.1383  0.0679
62137W        W 5153  24.445   3.193  24.837 -0.0424  0.1861  0.0126
62138W        W 5154   1.527   6.823  27.657 -0.1116  0.2582 -0.1322
62139W        W 5155  30.606  21.433   4.709 -0.0778 -0.0132  0.0143
62140W        W 5156  20.093  33.659  18.758 -0.1806 -0.2466  0.0963
62141W        W 5157   3.624   3.521  17.236  0.0173  0.1503 -0.3889
62142W        W 5158  19.804   7.186   1.195 -0.0693  0.2809  0.1202
62143W        W 5159  24.991  19.172  15.892  0.2300  0.0420 -0.3662
62144W        W 5160  25.084  28.177  20.743 -0.1727 -0.1753  0.1294
62145W        W 5161   5.582  19.623  22.936  0.2633 -0.3274  0.0381
62146W        W 5162  19.529  18.941  13.339 -0.2255 -0.3400  0.0768
62147W        W 5163  17.953  13.404  12.999 -0.1667  0.3830  0.0480
62148W        W 5164   9.995  10.825  13.123 -0.0563 -0.1154  0.1934
62149W        W 5165  17.172   3.154  27.918  0.3163 -0.2318 -0.0208
62150W        W 5166   1.059  20.559   4.849 -0.0735 -0.2533 -0.0181
62151W        W 5167  31.941  17.041  16.291  0.0526 -0.0102  0.2264
62152W        W 5168  27.806  15.741  14.304  0.0667 -0.0071  0.1262
62153W        W 5169  21.722  32.879  21.997  0.1201  0.0209  0.0925
62154W        W 5170  18.138  27.809   0.678 -0.1664 -0.0088 -0.0639
62155W        W 5171   7.751  25.211   0.542 -0.0371 -0.0450  0.0893
62156W        W 5172  25.884  17.890  20.083  0.2771 -0.1020  0.1442
62157W        W 5173   5.180  22.244  13.074  0.0502  0.0215  0.2116
62158W        W 5174  21.604  24.123  27.583 -0.0650 -0.1634  0.2554
62159W        W 5175  32.755  21.891  16.729  0.0729  0.1027  0.0295
62160W        W 5176  18.997  12.458  24.568  0.0028 -0.2075  0.0308
62161W        W 5177  23.132  26.371  15.865  0.1681 -0.3952 -0.1559
62162W        W 5178   2.521   1.034  25.913  0.1211  0.0545  0.0643
62163W        W 5179   9.435   3.486  20.466 -0.0605  0.0435  0.1739
62164W        W 5180   4.419  13.199  26.393 -0.1421  0.0660 -0.0398
62165W        W 5181   9.951   0.745   3.002  0.0760  0.0540 -0.0908
62166W        W 5182  18.094  28.557  20.134  0.0148  0.0520 -0.0064
62167W        W 5183   5.692  18.646  17.425 -0.0903 -0.2296  0.1586
62168W        W 5184   5.978  10.993  16.811  0.2342  0.1671  0.3139
62169W        W 5185  26.932  11.013  23.020 -0.0389  0.0075  0.0188
62170W        W 5186  14.363   0.843  16.191 -0.1531 -0.0092  0.0157
62171W        W 5187  26.945  28.304   8.702  0.1619  0.0752 -0.0888
62172W        W 5188  13.584  27.991  16.743  0.0856 -0.2791  0.1966
62173W        W 5189  14.387  33.916  21.989  0.1522  0.1753 -0.2811
62174W        W 5190   8.272  25.988  24.918  0.1703 -0.3291  0.1804
62175W        W 5191   0.085  23.746   4.746  0.0646 -0.1947  0.0655
62176W        W 5192   3.812  19.272   0.950  0.0449 -0.1280 -0.0221
62177W        W 5193   8.789  11.560  14.658 -0.1558 -0.1009 -0.0027
62178W        W 5194  17.465  15.412  11.110  0.3447  0.0364  0.0033
62179W        W 5195   2.569  30.132  16.575 -0.2680 -0.0236  0.2502
62180W        W 5196  20.771  13.379  14.743 -0.0369 -0.2884  0.2446
62181W        W 5197  20.927  32.185  28.789  0.0745 -0.0178  0.1316
62182W        W 5198   8.127  14.883  15.333  0.3810  0.0111 -0.1625
62183W        W 5199  12.447  34.656  26.942  0.1408 -0.2926 -0.0219
62184W        W 5200   6.269  32.121  22.762  0.0137  0.1013 -0.0107
62185W        W 5201  12.225  19.302  16.768 -0.1416 -0.0699  0.1932
62186W        W 5202  17.974  13.495  25.366  0.2582 -0.1466  0.0618
62187W        W 5203  11.482  29.316  16.533 -0.2813 -0.0140 -0.1031
62188W        W 5204   1.703  25.923   4.601  0.2129  0.1359  0.1967
62189W        W 5205  11.657   7.230   0.871  0.0879  0.1003 -0.0518
62190W        W 5206  23.612  33.734   8.485 -0.0606  0.0739 -0.0237
62191W        W 5207   1.282  30.653  18.586  0.0098 -0.0392 -0.3166
62192W        W 5208  15.434  33.683  27.183  0.0247  0.0426  0.2072
62193W        W 5209  25.931  15.845   9.296 -0.0912 -0.0234  0.2755
62194W        W 5210   4.683  17.521  17.550  0.2715 -0.2699  0.0456
62195W        W 5211   6.736  17.716  18.027 -0.1727 -0.3275  0.0549
62196W        W 5212   3.405  27.867   2.327  0.1078  0.1533  0.1815
62197W        W 5213  17.115  13.144  12.335 -0.2289  0.1135 -0.3832
62198W        W 5214  11.070  30.200  16.011  0.0104 -0.2449  0.5197
62199W        W 5215  26.447  24.484  24.918 -0.0837  0.0449  0.1576
62200W        W 5216  14.832  15.239  14.103 -0.0994 -0.1026 -0.1403
62201W        W 5217  14.940  24.895  13.560  0.0965  0.0903  0.2145
62202W        W 5218   9.251   0.428  25.416  0.0948  0.1892 -0.0241
62203W        W 5219  31.674  27.538  26.921  0.1931  0.1436  0.2275
62204W        W 5220  22.921  33.150  28.740  0.2711  0.0409 -0.0861
62205W        W 5221  26.755   0.088   1.228 -0.0245  0.1918  0.0004
62206W        W 5222  20.070   6.996  20.334  0.0484  0.0338 -0.0364
62207W        W 5223  19.150   6.784  19.174  0.0385  0.1034 -0.0697
62208W        W 5224  18.586  31.254  19.450 -0.1791 -0.2940 -0.0059
62209W        W 5225   3.388   3.774  14.795 -0.2298 -0.3089  0.0261
62210W        W 5226  12.685   0.804  16.117  0.4682  0.0770 -0.0469
62211W        W 5227   9.103  23.932  13.993 -0.0101 -0.0802  0.0149
62212W        W 5228  23.569   6.404  18.275  0.1117  0.1316  0.0709
62213W        W 5229  18.198   2.965  18.465  0.0604 -0.2393 -0.2116
62214W        W 5230   8.042  16.412  20.360 -0.1414 -0.0476 -0.1457
62215W        W 5231  32.355  28.318   1.242 -0.0911 -0.0908 -0.0073
62216W        W 5232  28.545  31.758  19.021  0.1362  0.0098  0.0548
62217W        W 5233  22.261   2.121  19.193  0.2240 -0.3582  0.1036
62218W        W 5234  26.522  22.418  28.342 -0.0380  0.0363 -0.3570
62219W        W 5235  21.962  15.771  14.691 -0.1587  0.2711  0.0341
62220W        W 5236  33.500  12.501  15.160  0.2794  0.2098 -0.3401
62221W        W 5237  13.087  10.382  13.506 -0.2621 -0.2799  0.1351
62222W        W 5238  14.885  26.452  21.794 -0.2425  0.0864 -0.0460
62223W        W 5239  29.808  17.671  22.574 -0.0259 -0.0594  0.0971
62224W        W 5240  11.190  30.240  21.962 -0.3511 -0.0369  0.2958
62225W        W 5241  17.537  15.928  14.369 -0.1768 -0.0718 -0.1407
62226W        W 5242   6.230  30.460  19.427  0.0889 -0.1079  0.3785
62227W        W 5243  18.433  33.895   3.902 -0.0573 -0.1748 -0.3851
62228W        W 5244  19.719   0.998   1.233 -0.1880 -0.2466 -0.0451
62229W        W 5245  22.090  25.421   1.013  0.1665 -0.2956 -0.0542
62230W        W 5246  21.076   2.901  27.456  0.0098 -0.1522  0.0991
62231W        W 5247   9.829  26.796  26.422  0.0696 -0.0164 -0.1590
62232W        W 5248   0.606  32.790  16.336  0.1694  0.0626 -0.1945
62233W        W 5249  33.044  32.531  27.605 -0.1028 -0.1969 -0.0651
62234W        W 5250  15.663  27.033  29.202 -0.0848  0.2586 -0.1765
62235W        W 5251  19.667  24.011  16.489  0.3094 -0.1406  0.0107
62236W        W 5252  29.166  16.727  15.186  0.2066  0.0003 -0.1938
62237W        W 5253   9.127  18.766  25.063  0.0578 -0.2470  0.2394
62238W        W 5254  31.576   2.859  23.116  0.1452 -0.0812 -0.0222
62239W        W 5255   2.599  18.539  24.229 -0.1496  0.0101  0.3281
62240W        W 5256   2.717  19.037  17.117 -0.0144  0.1811 -0.0169
62241W        W 5257   3.135  26.229  19.923 -0.1363 -0.3865  0.0675
62242W        W 5258  21.834  18.620  14.717 -0.2554  0.3102  0.0914
62243W        W 5259  28.238  22.636  26.279 -0.2228  0.1320  0.1198
62244W        W 5260  16.424  15.375  15.700  0.1221  0.2632  0.0085
62245W        W 5261  15.264  22.778  17.567  0.2264  0.1560  0.1301
62246W        W 5262  15.080   4.809  25.795 -0.1807  0.2460  0.2745
62247W        W 5263  33.524   0.137  22.752 -0.1089  0.0918  0.0050
62248W        W 5264   6.025   0.604   7.681  0.0067 -0.1433 -0.3461
62249W        W 5265  16.159  24.902  14.345 -0.3384  0.0076  0.1122
62250W        W 5266   9.281  26.627  18.946 -0.0685  0.0540 -0.0490
62251W        W 5267  16.661  32.146  19.251 -0.3419 -0.0045 -0.1586
62252W        W 5268  27.070  13.891  25.502  0.0370  0.0417  0.2973
62253W        W 5269   8.456  32.625  21.871  0.0576  0.0397 -0.1405
62254W        W 5270  17.458  29.201  18.422  0.0084 -0.1433  0.0922
62255W        W 5271  22.202  17.150  27.059  0.2120  0.0653  0.0647
62256W        W 5272  17.558  31.223   4.288 -0.1417  0.0855  0.1412
62257W        W 5273   7.950  22.633   0.433  0.1243 -0.0760 -0.1151
62258W        W 5274  10.415  27.237  29.176 -0.0875 -0.0584 -0.1509
62259W        W 5275   5.212   0.592   1.476 -0.0454 -0.2336  0.3109
62260W        W 5276  32.137  29.774  18.028  0.0093 -0.4242 -0.1365
62261W        W 5277  19.836  27.696  23.011  0.2471 -0.1626 -0.5503
62262W        W 5278  15.872   2.423   1.758 -0.1942  0.4097  0.1960
62263W        W 5279  15.127  26.680  17.748  0.1715 -0.2697 -0.2867
62264W        W 5280   7.680  12.015  21.350  0.0328  0.1676  0.2075
62265W        W 5281   6.147   3.930   7.959 -0.2230  0.3380  0.0012
62266W        W 5282  11.999  26.198  14.014  0.1704  0.3360  0.0512
62267W        W 5283  13.841   2.162  23.619 -0.1400 -0.1258  0.3402
62268W        W 5284  23.563  31.863  21.492 -0.0245 -0.0807  0.0491
62269W        W 5285  13.456   6.613  14.742 -0.0235 -0.0612 -0.0295
62270W        W 5286  10.370  30.053  14.169 -0.0543 -0.1850  0.0530
62271W        W 5287  18.579   5.107  22.792  0.1822 -0.0264  0.0134
62272W        W 5288  26.305  27.138  17.134  0.1603 -0.0969 -0.1272
62273W        W 5289   4.193   4.043  15.056  0.0822  0.1386 -0.0312
62274W        W 5290  31.651  29.409  17.070  0.0275  0.0395 -0.1769
62275W        W 5291   3.372   1.903  26.030 -0.1073  0.0612 -0.3260
62276W        W 5292   9.474  28.014  14.588 -0.3612  0.0211 -0.0339
62277W        W 5293   8.818   5.718  21.077 -0.0851 -0.1556 -0.0890
62278W        W 5294  21.171  26.066  19.480 -0.2120 -0.0437  0.0325
62279W        W 5295  18.341   2.937  23.978 -0.0952 -0.1423  0.1414
62280W        W 5296   7.302  19.488  19.566 -0.2325  0.0404  0.2113
62281W        W 5297   8.740  12.402  18.250 -0.1088  0.1181  0.1383
62282W        W 5298   8.383  18.449   2.327  0.2009 -0.1219  0.0381
62283W        W 5299   9.661  28.548  16.088 -0.1637 -0.0200  0.1021
62284W        W 5300  28.783   9.845  21.004  0.2023 -0.0561 -0.1403
62285W        W 5301  12.765   5.606  22.192 -0.2790  0.1890  0.1659
62286W        W 5302  14.357  25.179   7.899 -0.2495  0.3114 -0.0237
62287W        W 5303   3.377  15.396  13.372 -0.1612  0.0381 -0.2059
62288W        W 5304   7.024  27.592  24.645  0.0997  0.3805 -0.0484
62289W        W 5305  21.654  27.254  24.488  0.0653 -0.0345 -0.1265
62290W        W 5306  31.963  28.691  18.730  0.0081  0.1341  0.2982
62291W        W 5307  20.394  28.565   4.223 -0.1821 -0.0926  0.0497
62292W        W 5308  20.855  25.146  22.098  0.1489 -0.0149  0.0443
62293W        W 5309  20.140  25.541  21.889 -0.0721 -0.0749 -0.1991
62294W        W 5310   5.177   9.735  19.385 -0.1521  0.1566 -0.0593
62295W        W 5311   4.951  26.151  19.890  0.0736 -0.1932  0.0908
62296W        W 5312  11.877  31.113  19.601  0.0200 -0.3372  0.2321
62297W        W 5313  15.029   5.971  19.348 -0.3183  0.0302  0.3103
62298W        W 5314  15.825  26.793  16.618  0.1669  0.2693 -0.2819
62299W        W 5315  18.580  12.429  26.630 -0.1636 -0.2497 -0.2762
62300W        W 5316  16.314  13.480  26.591 -0.1734 -0.2116 -0.0087
62301W        W 5317  33.768  23.717  23.093 -0.1312  0.1059  0.1950
62302W        W 5318  27.545  30.988   8.846  0.1212 -0.0455 -0.1448
62303W        W 5319   3.542  26.194  13.643  0.2557  0.0722  0.2625
62304W        W 5320  19.847  25.550  27.356 -0.2933  0.0082  0.3751
62305W        W 5321   6.735  21.660  28.008 -0.1020  0.0100  0.2697
62306W        W 5322  13.222  23.276  14.034  0.0860 -0.1649  0.2149
62307W        W 5323  11.010   2.867  16.236 -0.0377 -0.1757  0.0969
62308W        W 5324   4.563  29.168  28.688 -0.0945  0.0551  0.1585
62309W        W 5325  19.828  22.999  20.210  0.0925  0.0786 -0.3546
62310W        W 5326  10.592  21.295   0.188  0.0760  0.2197 -0.0825
62311W        W 5327   8.169   7.250  22.756 -0.0395  0.5035  0.0429
62312W        W 5328  26.619   7.109  26.577  0.2142 -0.1166 -0.1527
62313W        W 5329   0.897  15.798   2.465  0.1310 -0.0691 -0.0372
62314W        W 5330  19.069  18.921  14.941  0.1532 -0.0492  0.1549
62315W        W 5331   6.498  18.587  19.329 -0.1543 -0.4290 -0.3082
62316W        W 5332  20.972  25.911  20.608 -0.2178  0.0132  0.1828
62317W        W 5333  23.463  26.948   3.391  0.2515 -0.1780 -0.2118
62318W        W 5334  16.236  33.821  28.476 -0.0340  0.1327  0.1280
62319W        W 5335  20.745   0.787  19.835 -0.0151 -0.1724 -0.2126
62320W        W 5336  24.239  24.476  18.268  0.1755 -0.1007 -0.3368
62321W        W 5337   5.818  33.364   3.382 -0.0693 -0.1191 -0.0367
62322W        W 5338  13.741  31.261   7.625  0.0002  0.1151  0.3167
62323W        W 5339  19.927  24.685  25.197  0.0291  0.2544 -0.0928
62324W        W 5340  29.474   1.775   2.490  0.2776 -0.0808  0.0321
62325W        W 5341   2.368  28.988   1.733 -0.3380 -0.2091 -0.0912
62326W        W 5342   0.929  31.515  16.945  0.0728  0.0845 -0.1150
62327W        W 5343   4.707  32.476  28.352 -0.2185  0.0978 -0.3240
62328W        W 5344  22.437   2.077  26.431  0.1192  0.0568 -0.2823
62329W        W 5345  17.847  17.043   4.025 -0.2736  0.2201 -0.0759
62330W        W 5346  12.364  31.056   2.454 -0.0893  0.0859 -0.1036
62331W        W 5347   5.940  22.037  23.019  0.1493 -0.1006  0.0909
62332W        W 5348  10.882   2.553  18.930  0.0165 -0.0946 -0.1166
62333W        W 5349  17.226  20.933  21.161  0.0675  0.1660 -0.2036
62334W        W 5350  11.392  24.862  20.191  0.3650 -0.1677  0.0585
62335W        W 5351  14.353  18.300  25.871  0.0784 -0.0076  0.4457
62336W        W 5352  17.863  24.136  20.582 -0.1578  0.0585 -0.1134
62337W        W 5353  14.748  27.176  16.387  0.0701  0.0674  0.0429
62338W        W 5354   8.765  25.756   3.265  0.0821  0.1100 -0.3153
62339W        W 5355   3.601  31.014  20.618 -0.2659  0.0385 -0.1915
62340W        W 5356  10.587  21.527  17.300 -0.1835  0.4748  0.1481
62341W        W 5357   3.949  13.705  19.618 -0.3373 -0.1522  0.1354
62342W        W 5358  21.319  10.616  13.322  0.0026  0.1588 -0.2076
62343W        W 5359  13.372  17.643  12.386 -0.0516 -0.0207 -0.1714
62344W        W 5360  33.098   8.565   3.975  0.1098  0.4155 -0.0271
62345W        W 5361   3.334  31.829  19.646  0.2071  0.2117  0.0627
62346W        W 5362  24.362  25.824   1.865  0.2989 -0.2433  0.3478
62347W        W 5363  13.012   1.272  14.680  0.1941  0.0603 -0.0764
62348W        W 5364  20.761  26.591  21.379  0.1063  0.3345  0.0500
62349W        W 5365  18.482  14.649  12.207 -0.1953 -0.0661  0.2998
62350W        W 5366  17.299  18.557  13.703 -0.1265  0.1195  0.2928
62351W        W 5367  20.638  23.325  20.029  0.0619  0.3244 -0.2086
62352W        W 5368  11.320  26.638  17.524 -0.0693  0.1029 -0.2649
62353W        W 5369  16.031  29.113   3.966  0.2378  0.1233  0.0558
62354W        W 5370   5.239  25.788  19.635 -0.1560  0.0701  0.0699
62355W        W 5371  15.025  12.588  17.956 -0.1619 -0.0275 -0.0974
62356W        W 5372  13.736   9.974  20.883 -0.3875  0.3453 -0.3227
62357W        W 5373   7.188  34.041  28.475  0.1362 -0.0853  0.4522
62358W        W 5374  17.500  10.267  20.486 -0.1911 -0.2660 -0.0558
62359W        W 5375  16.655  23.538  21.372  0.3379  0.2086  0.0772
62360W        W 5376  33.269  22.441  20.620 -0.3314  0.0275  0.1261
62361W        W 5377  12.440  25.023  19.346  0.1786  0.0253  0.0929
62362W        W 5378  30.057  24.095   0.709 -0.0208  0.2027 -0.0234
62363W        W 5379   3.285  22.086   2.720 -0.0217 -0.2311 -0.0136
62364W        W 5380   2.650  28.416  14.655  0.3204  0.0508  0.1477
62365W        W 5381   8.375  21.381  25.548  0.1039  0.2777  0.2723
62366W        W 5382  14.588  26.805  15.963  0.0273 -0.1149  0.0396
62367W        W 5383  14.830   7.171  14.091 -0.1811 -0.1752  0.1133
62368W        W 5384  33.556  13.221  28.302 -0.0327 -0.1757 -0.2911
62369W        W 5385  19.455  23.712  14.305 -0.2647  0.0992 -0.2820
62370W        W 5386  25.349  24.578  16.013 -0.1134 -0.2761 -0.0770
62371W        W 5387  10.681  30.015   0.800 -0.0942  0.1472 -0.2074
62372W        W 5388  21.303  32.201  18.476  0.1663  0.0261  0.2556
62373W        W 5389  17.734  26.190  22.996  0.0824  0.1372  0.0417
62374W        W 5390   5.871  15.067  21.468  0.0962  0.0082 -0.0105
62375W        W 5391   8.796  17.668  16.005  0.2580 -0.0092  0.2093
62376W        W 5392  22.676  34.600  21.348 -0.2063 -0.4588  0.0919
62377W        W 5393  12.117  13.075  18.619 -0.1130 -0.0764 -0.0528
62378W        W 5394  31.898  30.560  19.942 -0.3546 -0.0865  0.1038
62379W        W 5395  33.658  34.728  17.215 -0.2422  0.0438 -0.1862
62380W        W 5396  25.306  26.691  18.199  0.0507  0.0158  0.0220
62381W        W 5397   6.487  28.620  16.445 -0.1236  0.1726  0.2149
62382W        W 5398   5.528  18.311  29.249  0.2933  0.2612 -0.1579
62383W        W 5399   8.946  24.097  21.531  0.3196 -0.0021 -0.0951
62384W        W 5400  14.250  17.214  11.938 -0.1563 -0.2196  0.1269
62385W        W 5401  25.647  24.861  20.064  0.0444  0.1397 -0.0444
62386W        W 5402   0.935  12.746   0.971  0.2278  0.1927 -0.1457
62387W        W 5403  17.395  31.025   5.238 -0.2551  0.2775 -0.0290
62388W        W 5404   5.090  30.565   2.679 -0.0860  0.3060 -0.2671
62389W        W 5405  22.704  23.220  10.354 -0.2429  0.0302 -0.3443
62390W        W 5406  26.007  16.055   0.056  0.1322 -0.1845  0.1793
62391W        W 5407  16.406  16.889   6.459  0.2832  0.2358 -0.0951
62392W        W 5408  18.591   7.532   4.466  0.1159  0.0275  0.3068
62393W        W 5409  17.227  31.687  17.577  0.0855 -0.1065  0.0673
62394W        W 5410   6.923  32.195  24.745  0.0275  0.0086  0.3325
62395W        W 5411   7.910  31.260  26.926  0.1770 -0.3114 -0.0165
62396W        W 5412   0.116  32.091  22.468  0.1221  0.1316  0.1933
62397W        W 5413   8.976  19.858  19.217 -0.0943 -0.0820  0.0421
62398W        W 5414  14.558  28.803   1.892  0.2230  0.0589  0.0739
62399W        W 5415   4.113  28.472  17.532  0.1463  0.0722  0.3778
62400W        W 5416  18.051   4.034  21.392  0.1862 -0.0981  0.3228
62401W        W 5417  17.400  23.151  24.623 -0.1142 -0.1517 -0.1124
62402W        W 5418   1.717  14.182  22.934 -0.0374 -0.2299 -0.0367
62403W        W 5419   8.257   4.817  22.516  0.3527  0.1235  0.0373
62404W        W 5420   4.161  22.905  20.695  0.1028  0.1363  0.2583
62405W        W 5421  16.442  34.352  17.424 -0.0038 -0.1733 -0.5060
62406W        W 5422   6.712  28.448   3.397  0.0127 -0.1409  0.0335
62407W        W 5423   6.556  24.462  17.758 -0.0460 -0.2432  0.0406
62408W        W 5424   6.215  27.177   3.972 -0.1567  0.2462 -0.0055
62409W        W 5425   9.356  28.661  19.497 -0.2831  0.2858  0.0668
62410W        W 5426  23.692  25.485   5.929 -0.2330 -0.4055 -0.0177
62411W        W 5427  21.743  24.977  22.384 -0.0235  0.1245  0.2794
62412W        W 5428   6.818  26.577  17.314  0.0540 -0.3645 -0.1534
62413W        W 5429  19.494  22.072  29.122 -0.0560  0.2157 -0.0354
62414W        W 5430  17.345  23.768  14.951 -0.2372  0.0676  0.3541
62415W        W 5431   9.350  24.022   2.882  0.1257  0.0022  0.0280
62416W        W 5432  16.837  18.872  14.528 -0.3712  0.0035 -0.0360
62417W        W 5433  24.891  19.528  15.481 -0.1420 -0.0462 -0.1097
62418W        W 5434   8.221  27.751  19.204  0.1423 -0.0566 -0.1115
62419W        W 5435  15.951  24.951  27.827  0.0826 -0.0719  0.2296
62420W        W 5436  25.867  34.055  18.327  0.2397  0.2170 -0.2559
62421W        W 5437   0.131  23.735   2.960 -0.0391  0.1596 -0.2082
62422W        W 5438  19.566  25.504  15.677  0.0326 -0.0617 -0.1265
62423W        W 5439   2.564  24.622  16.270 -0.2317 -0.0678 -0.1646
62424W        W 5440  20.519  17.390   0.861  0.2113 -0.0711 -0.1030
62425W        W 5441  16.913   1.980  14.975  0.0347 -0.2044  0.0580
62426W        W 5442  12.438  32.244  15.481 -0.3459  0.0632 -0.1647
62427W        W 5443  18.010  24.231  18.652 -0.1416 -0.0555  0.1953
62428W        W 5444  17.088  22.919   1.458  0.0676  0.3087 -0.4927
62429W        W 5445  14.241  33.058  23.164 -0.3026 -0.0930  0.1613
62430W        W 5446  22.259  20.945  22.642  0.1509  0.5347 -0.0250
62431W        W 5447   2.942   2.424  18.972 -0.0628  0.0616 -0.1772
62432W        W 5448  16.942  19.412  23.358 -0.1454  0.7236 -0.1432
62433W        W 5449  16.060  28.314   9.158 -0.1369 -0.2160  0.2405
62434W        W 5450   5.405  27.881  20.119 -0.0461 -0.0609  0.0480
62435W        W 5451  24.921  20.004  19.857 -0.2517 -0.1486  0.0024
62436W        W 5452   0.405   7.974  22.306 -0.0858 -0.2087 -0.3364
62437W        W 5453   5.338  25.472  27.813 -0.1761  0.0176 -0.1406
62438W        W 5454  20.593  22.290  16.994  0.3997  0.0511 -0.0071
62439W        W 5455  29.493  27.105  10.531  0.0133  0.1307  0.1549
62440W        W 5456   5.608  19.760   0.961 -0.1229 -0.0264 -0.1707
62441W        W 5457   7.881  13.400  27.586  0.1588  0.0559  0.0099
62442W        W 5458  23.036   5.827  21.684  0.0944  0.0053  0.1103
62443W        W 5459  33.258  29.472  18.011  0.3389 -0.3721 -0.2179
62444W        W 5460   0.253  22.702  16.946  0.2492 -0.4226 -0.1123
62445W        W 5461  19.796   8.022   8.764 -0.2119  0.1918 -0.0320
62446W        W 5462  10.573  17.260  19.488  0.0805 -0.1904 -0.2352
62447W        W 5463  10.627  20.777  18.049  0.0235  0.1299  0.0125
62448W        W 5464   8.800  22.796  25.011 -0.1438 -0.1804 -0.0838
62449W        W 5465   9.608  28.719  22.303  0.1696 -0.0943 -0.2797
62450W        W 5466  26.648  19.755  16.505 -0.4586  0.1909  0.0680
62451W        W 5467  17.203  19.792   6.287 -0.1496  0.3320 -0.0918
62452W        W 5468  19.367  33.884   5.126 -0.2328  0.1418  0.0099
62453W        W 5469   9.640  14.158   0.571  0.1730 -0.1407  0.1892
62454W        W 5470  17.237  29.296  15.665  0.1648 -0.1781  0.1695
62455W        W 5471  12.139  18.766  23.802 -0.2749  0.1256  0.2825
62456W        W 5472   5.805  15.095  16.450  0.2409 -0.1967  0.2018
62457W        W 5473  15.106  30.494   4.679 -0.2768  0.0744 -0.1675
62458W        W 5474   1.546  22.934  25.526  0.3184 -0.0344 -0.1848
62459W        W 5475  13.696  17.807  15.153  0.0702  0.0030  0.3048
62460W        W 5476  19.718  21.508  23.229 -0.0286 -0.0452  0.4806
62461W        W 5477   5.596   1.864   5.860  0.0790 -0.0263  0.1708
62462W        W 5478   2.404  29.806  14.338  0.0095 -0.0870 -0.0606
62463W        W 5479   0.312  15.354  17.170  0.1516  0.0461 -0.1570
62464W        W 5480   4.553   1.124  26.270 -0.0160  0.0389  0.1585
62465W        W 5481   9.373  17.899   6.638  0.1355 -0.3335  0.0335
62466W        W 5482  33.721   6.621  28.869 -0.1197 -0.3941  0.0251
62467W        W 5483   8.513  24.489   4.152  0.2715  0.1286  0.1952
62468W        W 5484   8.776  22.473  27.479  0.1542  0.1797 -0.2961
62469W        W 5485  21.676  23.502  28.516  0.1976 -0.3067  0.3882
62470W        W 5486  21.156   6.566  26.910  0.0719 -0.4043 -0.0543
62471W        W 5487  14.568   2.639  19.584 -0.1457 -0.2476 -0.0548
62472W        W 5488  15.175  31.824   0.804  0.0985  0.3134  0.3899
62473W        W 5489  11.594   2.438  14.629 -0.1707 -0.2361 -0.3412
62474W        W 5490  29.664  24.820  17.888 -0.3487 -0.0664 -0.1104
62475W        W 5491  18.366  10.182  15.309 -0.0173 -0.4599  0.0870
62476W        W 5492   2.091  26.051  18.861 -0.0566  0.5135 -0.1522
62477W        W 5493  19.613  27.252  17.482 -0.0172 -0.0232  0.1600
62478W        W 5494   5.702  25.004  17.353 -0.0377  0.0925 -0.1068
62479W        W 5495  17.103  24.137   4.200 -0.1099  0.3630 -0.0482
62480W        W 5496  28.212  14.206  27.411 -0.0283  0.0231 -0.0588
62481W        W 5497  20.961  15.861  12.306  0.2222 -0.1047  0.4515
62482W        W 5498  18.274  34.131  27.714  0.1973 -0.2574  0.1914
62483W        W 5499   0.722  22.399   8.536 -0.0953 -0.1241  0.2160
62484W        W 5500  19.268  28.981  25.472 -0.3677 -0.1374 -0.0574
62485W        W 5501  31.760   7.808  20.696  0.1116 -0.1408 -0.0229
62486W        W 5502  18.799   0.195   2.022  0.0930  0.0198 -0.1645
62487W        W 5503  16.729  17.919   1.111 -0.0454  0.1027  0.1277
62488W        W 5504   4.441   9.378  14.616  0.0303 -0.1989  0.0983
62489W        W 5505  24.283  16.793  14.972 -0.0441 -0.2233 -0.3780
62490W        W 5506  18.218  26.737  18.422 -0.0289 -0.0216  0.0486
62491W        W 5507  12.599   7.677   0.247  0.1583  0.3324 -0.2513
62492W        W 5508   1.173  29.641  28.505 -0.1745 -0.0840 -0.1271
62493W        W 5509   9.376   3.529  25.431  0.1509 -0.3885  0.4378
62494W        W 5510   7.211  32.926  20.883 -0.0146  0.2374 -0.3540
62495W        W 5511  13.159  22.767  13.976  0.1477 -0.0601  0.0066
62496W        W 5512  20.871  27.778  27.202  0.0354  0.2533  0.0067
62497W        W 5513  20.351   9.573   1.017 -0.2247  0.0663  0.0192
62498W        W 5514   9.148  33.001   0.245 -0.0841 -0.1152 -0.2312
62499W        W 5515  16.773  33.914  17.153 -0.4579 -0.0026  0.0993
62500W        W 5516  15.711  31.325  19.634  0.4062 -0.3826 -0.1815
62501W        W 5517  15.168  34.446  20.803 -0.2548 -0.1281 -0.2145
62502W        W 5518  16.544  22.850  20.147  0.1782  0.1355  0.1811
62503W        W 5519   8.600  13.832   8.430 -0.2083 -0.2840 -0.1306
62504W        W 5520  16.605  17.030  16.469  0.1319  0.1160 -0.1437
62505W        W 5521   2.315  28.400  15.205  0.1237  0.0299 -0.0095
62506W        W 5522  16.300  31.855  14.489  0.2088  0.0776 -0.3615
62507W        W 5523   8.061  24.607  18.925  0.0701  0.1129 -0.0631
62508W        W 5524  34.478  14.430   6.826 -0.2930 -0.1337 -0.0593
62509W        W 5525  16.104  23.105  22.671 -0.2559 -0.1587  0.0992
62510W        W 5526   5.693   1.041   3.271  0.0909  0.0207  0.2921
62511W        W 5527   7.121  30.238  18.051 -0.2396 -0.1421  0.2063
62512W        W 5528  11.983  19.734  16.787 -0.0132 -0.3978  0.1534
62513W        W 5529  19.156  26.125  15.803 -0.1258  0.2428 -0.0010
62514W        W 5530  30.153  14.147  29.130 -0.0382 -0.0801 -0.1355
62515W        W 5531   9.757  20.688  22.448 -0.0665 -0.0997 -0.0314
62516W        W 5532  30.307  11.407   2.806 -0.1888 -0.1678 -0.2256
62517W        W 5533  20.534  14.460   0.145 -0.0844  0.2899 -0.2559
62518W        W 5534   0.318  17.117  24.527 -0.2572 -0.2312 -0.2969
62519W        W 5535   7.336  18.629  24.165 -0.3587  0.3130  0.0124
62520W        W 5536  15.469  31.800  26.288  0.0554  0.0508 -0.1960
62521W        W 5537  28.487  30.257  29.115 -0.1881 -0.1937 -0.0069
62522W        W 5538  28.046  16.807  26.980  0.1586 -0.0425  0.0175
62523W        W 5539  14.505  19.412   5.516  0.0633 -0.0235 -0.0708
62524W        W 5540  22.659  22.265  23.820  0.1905 -0.0001 -0.0810
62525W        W 5541  15.126  24.232  16.569 -0.1412  0.1711  0.0346
62526W        W 5542  21.432  22.784  17.779 -0.0527  0.1672  0.1932
62527W        W 5543  34.711  32.835  15.145  0.0551 -0.2450 -0.0902
62528W        W 5544  16.086  15.110   4.875 -0.2296  0.4145 -0.0618
62529W        W 5545   4.185  15.961  24.928  0.0886  0.3388  0.1049
62530W        W 5546   6.013  20.153  18.547 -0.6472 -0.1718 -0.0848
62531W        W 5547  32.910  25.865  21.610  0.1089 -0.2161 -0.0167
62532W        W 5548   4.189  18.171  12.983 -0.1935  0.1628 -0.1299
62533W        W 5549  11.736  30.055   1.407  0.0790  0.1747  0.3005
62534W        W 5550   9.638  26.128   6.337 -0.1274 -0.3757 -0.0200
62535W        W 5551  10.078   9.074  19.175  0.2288 -0.0128  0.1954
62536W        W 5552  20.527  29.312  16.984 -0.1850 -0.2483  0.1406
62537W        W 5553   0.200  32.327  26.017  0.2406 -0.0251 -0.1440
62538W        W 5554   3.397  10.514   2.174 -0.1388 -0.1795 -0.0654
62539W        W 5555  17.844   8.776  17.037  0.0425  0.4858  0.0944
62540W        W 5556  10.706   9.993  29.252 -0.1289 -0.1202 -0.0511
62541W        W 5557   6.875  33.213  27.719 -0.0599  0.3899 -0.0020
62542W        W 5558  15.235  23.019  16.733  0.1875 -0.4431 -0.0372
62543W        W 5559   9.887  31.049  15.807 -0.1139  0.2783  0.2502
62544W        W 5560  13.346  18.611  13.003  0.0398  0.0219 -0.2992
62545W        W 5561  19.446  16.435  21.586 -0.0152 -0.0467  0.2286
62546W        W 5562  15.904  24.949   1.184 -0.3705 -0.1623  0.1040
62547W        W 5563   3.896  30.658  18.026  0.0792  0.1313 -0.1183
62548W        W 5564   4.183  32.022  25.838 -0.0152  0.0124 -0.3293
62549W        W 5565  10.946  19.900  27.471  0.2001 -0.3921 -0.3291
62550W        W 5566  16.597  29.415  27.071 -0.1249 -0.1861  0.2318
62551W        W 5567   6.199  33.392  21.613  0.2936 -0.1677  0.0189
62552W        W 5568   2.255  33.939  26.572 -0.3235 -0.0098  0.2139
62553W        W 5569  25.243  28.877  16.024 -0.0943  0.1185 -0.1528
62554W        W 5570  12.498  23.218  27.387 -0.0805  0.1226  0.0478
62555W        W 5571  27.494  22.185  28.223 -0.1885 -0.1701 -0.1189
62556W        W 5572   7.177  31.585  29.210 -0.0082 -0.0004 -0.2319
62557W        W 5573  16.598  16.044  29.000 -0.0234  0.0717  0.3186
62558W        W 5574  18.151  21.677  17.254 -0.3789  0.0672  0.0647
62559W        W 5575   7.528   3.426  23.322 -0.0236  0.1602 -0.1515
62560W        W 5576  33.548  23.802  15.721  0.0992  0.0517  0.0616
62561W        W 5577   5.723  28.719  17.667 -0.3023 -0.1574  0.1598
62562W        W 5578  20.322  13.468  28.254  0.0064 -0.5000  0.2570
62563W        W 5579  10.626  12.150  21.989  0.0871  0.3186 -0.1970
62564W        W 5580  11.844  14.901  16.883 -0.5411 -0.0867  0.0916
62565W        W 5581   8.854  31.963  18.860  0.0796 -0.4138 -0.1714
62566W        W 5582  12.356  22.985  14.485 -0.0038  0.1845  0.2078
62567W        W 5583  17.293  16.889  12.309  0.0327  0.3002 -0.1133
62568W        W 5584  11.418  10.905  28.562 -0.3167 -0.0566  0.2872
62569W        W 5585  18.488  23.535  20.082  0.1813 -0.1911  0.2052
62570W        W 5586  19.327  26.757  20.936  0.1331 -0.3521 -0.2013
62571W        W 5587  15.854  28.673   1.970  0.2350 -0.0746  0.1930
62572W        W 5588  20.272  30.663  20.878  0.1565  0.4055 -0.2757
62573W        W 5589  11.191  22.093  20.704 -0.1423  0.2807  0.3347
62574W        W 5590   2.932   8.904   5.076 -0.0590  0.0128  0.1730
62575W        W 5591  20.817  25.725  26.067 -0.0274  0.0705  0.3742
62576W        W 5592  23.120  34.193  10.610 -0.1392  0.0940 -0.1444
62577W        W 5593  17.036  21.657  23.055 -0.0650  0.0293  0.0856
62578W        W 5594  11.688  21.351  18.567  0.3054  0.0247 -0.0737
62579W        W 5595  12.648  21.293  20.414  0.2468 -0.2172  0.1319
62580W        W 5596   6.433  24.891  28.956 -0.0157  0.0418  0.1364
62581W        W 5597  15.109  24.336  17.691 -0.1545  0.0688  0.1660
62582W        W 5598  13.795  23.329  16.004 -0.2200 -0.1352  0.0596
62583W        W 5599   6.059  30.349   2.623 -0.1496  0.2446  0.0854
62584W        W 5600  11.626  32.329  20.553 -0.3275  0.2188  0.0924
62585W        W 5601  17.461  29.796  15.835 -0.1673 -0.0291  0.4067
62586W        W 5602  10.934  25.721  13.994  0.1842 -0.0354 -0.1326
62587W        W 5603  32.273  34.698  21.717  0.1996  0.3899 -0.1124
62588W        W 5604  24.345  29.330  17.759  0.1813 -0.1861 -0.0499
62589W        W 5605   5.638  24.224  17.353 -0.1629  0.1997 -0.1051
62590W        W 5606  29.789  26.376  23.868 -0.2318 -0.1066 -0.3311
62591W        W 5607  29.420  18.652  25.576 -0.0955 -0.0643  0.1822
62592W        W 5608   0.868  21.972  25.128 -0.0136 -0.0767 -0.5305
62593W        W 5609   6.423  31.370  16.419 -0.0116 -0.1814  0.2391
62594W        W 5610   1.536   5.742  27.554 -0.0012 -0.2078  0.0264
62595W        W 5611  26.447  14.045  27.377  0.0772  0.0475 -0.0969
62596W        W 5612  14.034   0.495  15.892 -0.0077  0.4639  0.0844
62597W        W 5613   8.209  19.223  20.172  0.0128  0.2286 -0.0299
62598W        W 5614   4.520  19.440  18.497 -0.1220  0.2920 -0.1269
62599W        W 5615  17.407  20.581  25.011  0.1238  0.0683  0.0506
62600W        W 5616   6.880  13.386  28.919  0.1829  0.4398 -0.0696
62601W        W 5617   8.356  25.514   0.376 -0.0454 -0.1073  0.1685
62602W        W 5618  16.427  20.609  23.819 -0.1581 -0.2530 -0.3032
62603W        W 5619  11.530  33.962  27.189  0.3345 -0.2691 -0.0025
62604W        W 5620  33.887  28.435  16.067  0.0657 -0.0136 -0.0100
62605W        W 5621   4.970  30.381   1.419  0.1923  0.1538  0.1452
62606W        W 5622  21.050  22.346  27.865  0.0164  0.1652 -0.1801
62607W        W 5623  24.297  33.425  22.009 -0.2205 -0.2002  0.2691
62608W        W 5624  12.080  24.256  14.560 -0.0011 -0.1812  0.1380
62609W        W 5625  18.930  27.007  14.773  0.0768 -0.1519 -0.1923
62610W        W 5626   4.291  17.945  18.499 -0.4099  0.0691 -0.0907
62611W        W 5627  34.745   5.095   7.647  0.3493  0.2197  0.0575
62612W        W 5628  10.945   9.532  19.351  0.1068  0.1047 -0.0512
62613W        W 5629   8.128  21.214  14.751 -0.0538 -0.3133  0.1160
62614W        W 5630  13.969  20.539  21.989  0.0800 -0.0924  0.2249
62615W        W 5631  15.502  21.494  22.138 -0.1891  0.2379  0.4585
62616W        W 5632  14.018   3.754  15.239 -0.3397 -0.0106 -0.0031
62617W        W 5633  18.140  29.592  23.851 -0.3730 -0.2598  0.2396
62618W        W 5634  26.069  28.948   2.267 -0.2622  0.0332 -0.1377
62619W        W 5635  22.300  19.358  14.301 -0.2287  0.1533  0.0272
62620W        W 5636   9.709  19.011   1.716  0.2959  0.1018  0.0324
62621W        W 5637  10.450  31.218  18.045 -0.0729 -0.1127 -0.0181
62622W        W 5638   9.537  23.705  22.951  0.0622  0.2714  0.0201
62623W        W 5639   6.178   3.666   0.140  0.1700 -0.0229 -0.1306
62624W        W 5640  29.304  10.834  10.605  0.1757  0.0017 -0.3163
62625W        W 5641  15.225   5.732  24.775  0.0496 -0.1902 -0.0896
62626W        W 5642   6.527  29.746   7.932 -0.0724  0.1236  0.0160
62627W        W 5643  23.226  11.422  22.226 -0.0430 -0.1262  0.1829
62628W        W 5644  24.746  27.118   2.693  0.2046 -0.0836 -0.0120
62629W        W 5645  11.937   7.921  14.276 -0.3812  0.1942  0.1071
62630W        W 5646   8.781  18.027  13.771 -0.3642 -0.1788 -0.0332
62631W        W 5647  14.646   8.331   2.646 -0.1419 -0.1694 -0.1665
62632W        W 5648   9.907  23.885   4.973 -0.3301 -0.3396  0.0324
62633W        W 5649  23.945  19.704   5.762  0.1540  0.3316  0.1369
62634W        W 5650   4.201  27.486  21.720 -0.2382 -0.2721 -0.0010
62635W        W 5651   6.999  18.261  16.421 -0.1948  0.1111  0.3902
62636W        W 5652   1.097   9.159  16.427 -0.3150  0.1648  0.0779
62637W        W 5653  28.224  29.724  28.168  0.3970  0.1962 -0.2340
62638W        W 5654   6.618  33.184  14.460 -0.0015  0.0623 -0.1000
62639W        W 5655  10.685  29.531   9.306 -0.0362 -0.1826  0.3320
62640W        W 5656  18.241  25.701  19.922  0.2046 -0.3699  0.2916
62641W        W 5657  10.124  20.003  16.283  0.0109  0.0363  0.1004
62642W        W 5658  18.217  17.365  25.631  0.0308 -0.2706  0.0201
62643W        W 5659   9.531  14.006  17.825  0.0038 -0.0388 -0.0563
62644W        W 5660  18.511   0.878  21.206 -0.1783  0.0328  0.0467
62645W        W 5661  24.029   7.762  20.770  0.0290 -0.0889 -0.0737
62646W        W 5662   9.648  23.209  18.053 -0.3078  0.2719 -0.3075
62647W        W 5663  11.298  33.279   9.880 -0.2167 -0.1913 -0.1317
62648W        W 5664   7.428  28.798  18.343 -0.0090 -0.4195  0.0891
62649W        W 5665  18.626  25.405  27.635  0.4357 -0.0264 -0.2076
62650W        W 5666   9.824   7.357   0.875  0.2166 -0.2173 -0.1138
62651W        W 5667   8.401  29.204   9.601  0.0603 -0.2060 -0.1928
62652W        W 5668   2.632  28.286   0.282 -0.0473  0.1279  0.1244
62653W        W 5669   5.320  28.703  19.176 -0.0676  0.2181 -0.0602
62654W        W 5670  27.609  12.087   1.219 -0.0943 -0.0227  0.0920
62655W        W 5671  12.586  20.047  15.346 -0.3115  0.2345 -0.2061
62656W        W 5672   9.761  33.506  17.523  0.2354  0.0199  0.1578
62657W        W 5673  24.903  14.869  18.771 -0.1200 -0.1225  0.0593
62658W        W 5674   6.016  32.284  19.173 -0.0173  0.1121  0.0728
62659W        W 5675  32.749  15.827   5.839 -0.2624  0.0544  0.0717
62660W        W 5676   2.434  21.502  19.391  0.0146 -0.2292  0.2473
62661W        W 5677  28.795  32.261  22.116 -0.3027 -0.0227  0.0330
62662W        W 5678  13.907   2.540   6.104 -0.0664  0.1456  0.3543
62663W        W 5679   4.470  13.362  27.790 -0.0360  0.0817  0.1604
62664W        W 5680  11.443  21.308  17.901  0.0704  0.2113 -0.0175
62665W        W 5681  15.487  24.625  14.828 -0.1282  0.2197 -0.1065
62666W        W 5682   7.967  10.561  20.846  0.1027  0.3184 -0.2130
62667W        W 5683   9.320  27.975  27.637  0.1953 -0.2238  0.2208
62668W        W 5684   2.908  29.697   7.002 -0.1923  0.0092  0.2293
62669W        W 5685  24.357   2.192   6.242 -0.3693  0.1148  0.0107
62670W        W 5686  19.415  25.693  17.594 -0.2465 -0.0438 -0.0903
62671W        W 5687  18.098  26.456   0.309  0.2325 -0.1137  0.1234
62672W        W 5688  12.205  27.500  15.365 -0.0427  0.0152 -0.0186
62673W        W 5689   9.983  11.326  18.184 -0.2568  0.1283  0.1607
62674W        W 5690  14.381  27.589  23.716  0.2091 -0.2029 -0.3336
62675W        W 5691  14.884  27.552   0.534  0.2182 -0.1970  0.2057
62676W        W 5692  10.850  12.314  18.246  0.1882  0.2571  0.1514
62677W        W 5693   1.651  13.101  18.978 -0.2111 -0.1595 -0.2087
62678W        W 5694  15.277  29.766  24.268  0.2663 -0.1391 -0.1172
62679W        W 5695  22.954  19.034  16.778  0.1651  0.0919  0.1727
62680W        W 5696   5.217  10.804  22.142 -0.0662 -0.1701  0.2825
62681W        W 5697  24.782  29.854   6.329 -0.1920  0.1273  0.1582
62682W        W 5698  13.532  23.669  23.981  0.0825  0.1629  0.1342
62683W        W 5699  13.389  24.766  18.348 -0.2680  0.1048 -0.1426
62684W        W 5700   6.978  26.009  22.935  0.0847 -0.0288  0.2206
62685W        W 5701   8.673   7.916  22.122 -0.1607 -0.1180  0.0270
62686W        W 5702  11.008   8.318  14.411 -0.1150 -0.2259 -0.2084
62687W        W 5703   8.600  17.970  20.580 -0.0966  0.1723  0.2833
62688W        W 5704  22.645  25.957   0.465  0.0715  0.0190  0.0263
62689W        W 5705   8.158  32.352  10.275  0.1269  0.0391  0.2101
62690W        W 5706   6.126  11.910   4.060 -0.0805  0.0263 -0.0325
62691W        W 5707   0.207  22.396  16.497 -0.0448  0.1372  0.3121
62692W        W 5708   8.287  27.877  27.720 -0.2308 -0.0640 -0.0745
62693W        W 5709   6.894  28.220  19.375  0.2125 -0.2383  0.0965
62694W        W 5710  19.399  24.324  18.412  0.1160  0.1863 -0.1528
62695W        W 5711  19.792  19.017   0.061  0.2201  0.1123  0.0437
62696W        W 5712   5.088  33.426   4.847  0.1296 -0.2248  0.1398
62697W        W 5713  20.784  34.226  26.575 -0.2958  0.3034  0.1837
62698W        W 5714  32.285  10.818   5.853  0.2026 -0.0920  0.2536
62699W        W 5715  14.624  33.289  22.909 -0.2158  0.1877  0.0376
62700W        W 5716  31.032  14.405  17.218  0.1350 -0.0835  0.2653
62701W        W 5717  30.401  22.770  26.892 -0.2281 -0.3171 -0.1491
62702W        W 5718  16.718  11.540  19.907  0.2293 -0.2127  0.1129
62703W        W 5719   4.451  18.618   3.507  0.3183 -0.1145  0.1608
62704W        W 5720  17.846  27.983  28.595 -0.0464 -0.1675  0.0669
62705W        W 5721   6.487  28.307  22.707 -0.0455 -0.0742  0.0993
62706W        W 5722   4.326  32.495  25.820 -0.1656 -0.0474  0.1882
62707W        W 5723  14.955  32.616  16.873  0.0282  0.2621 -0.1858
62708W        W 5724  18.551  29.687   7.152  0.2792  0.0922  0.0830
62709W        W 5725  12.292   0.193  27.965 -0.0951  0.0360  0.0091
62710W        W 5726   8.298  17.691  22.417 -0.4465 -0.1468  0.0114
62711W        W 5727  23.252  23.451  25.024  0.1144 -0.2002 -0.1758
62712W        W 5728  26.830  26.362  17.761  0.0282 -0.0268  0.1050
62713W        W 5729  23.459  10.992   6.061  0.0292  0.1669  0.3550
62714W        W 5730   6.911  22.741  21.120  0.0549 -0.1303  0.0315
62715W        W 5731  30.703  19.406   4.392 -0.2818 -0.2405  0.0038
62716W        W 5732  27.569  15.595  18.547 -0.0685 -0.0546 -0.0241
62717W        W 5733  20.896  15.334  24.430  0.0758 -0.1263  0.0147
62718W        W 5734  17.458   2.543  16.044  0.2675 -0.1236 -0.0923
62719W        W 5735  11.761  14.845   3.356  0.1647 -0.0253 -0.0480
62720W        W 5736  34.351  20.123   5.433  0.0837 -0.2407 -0.2191
62721W        W 5737  14.628  12.968  13.676 -0.5422 -0.1814  0.2123
62722W        W 5738   5.270  11.171   5.456  0.2228 -0.1930 -0.3437
62723W        W 5739   4.947  21.876   3.645 -0.0128 -0.1934  0.1585
62724W        W 5740  21.528  28.650  18.762  0.1829 -0.2452  0.0490
62725W        W 5741  15.930  29.186   7.815 -0.0550 -0.0584 -0.0182
62726W        W 5742   3.405  12.835  17.480  0.0147  0.2831  0.0857
62727W        W 5743   4.647  25.533   5.857  0.4432  0.0656  0.0377
62728W        W 5744   3.840  26.098   1.222  0.0951  0.2750  0.1747
62729W        W 5745   8.928  23.667  15.641 -0.1116 -0.0243 -0.0339
62730W        W 5746  13.133  24.515   1.990  0.1492  0.2275 -0.3415
62731W        W 5747  23.672  29.201   8.986 -0.1302 -0.4601  0.2165
62732W        W 5748  33.374  29.238   2.229  0.1255 -0.0474 -0.1216
62733W        W 5749   8.177  26.713  27.634 -0.2989 -0.1299 -0.1072
62734W        W 5750   3.069  24.699  20.634 -0.2874 -0.1140  0.0673
62735W        W 5751  13.229  27.227   2.066 -0.3781  0.0696  0.0121
62736W        W 5752   7.769  13.912  26.692  0.0549  0.2158  0.4848
62737W        W 5753  14.552  22.457  13.929 -0.0993 -0.1649  0.1339
62738W        W 5754   3.034  27.680  24.119  0.3245  0.5794 -0.1255
62739W        W 5755  16.866  14.005  25.964 -0.2927  0.1354 -0.0230
62740W        W 5756  11.428  24.237  27.394 -0.3569  0.1298  0.1961
62741W        W 5757   7.079  28.306  15.635  0.0216  0.0308 -0.1850
62742W        W 5758  13.482  32.247   5.085  0.3038  0.0453  0.3425
62743W        W 5759  27.997  14.563  20.386  0.0356 -0.0214  0.0418
62744W        W 5760   6.031  25.107   6.545 -0.2167 -0.0123 -0.0087
62745W        W 5761  30.830  32.942  19.506  0.2530 -0.2413 -0.1697
62746W        W 5762   9.135  14.085  29.033  0.0771 -0.1539 -0.1074
62747W        W 5763   8.101  31.634  23.698  0.0056 -0.1221 -0.1056
62748W        W 5764   3.640   4.962   5.015  0.1963  0.2985 -0.3332
62749W        W 5765  19.979   0.555  23.559  0.1257  0.0905 -0.3137
62750W        W 5766   6.379   5.367  28.836 -0.2011 -0.0434 -0.0048
62751W        W 5767   4.874   8.408   2.890  0.0219  0.0730 -0.2511
62752W        W 5768  12.213  13.139  21.576  0.2031 -0.0777  0.1632
62753W        W 5769  16.263   1.933  28.254 -0.0881 -0.2827 -0.1194
62754W        W 5770  15.400  11.526   5.967  0.0051 -0.0768 -0.1046
62755W        W 5771  34.382  28.571  17.652  0.1829  0.3175 -0.2449
62756W        W 5772  13.069  19.102  21.407 -0.0214  0.3628  0.1359
62757W        W 5773  20.875   8.951  13.615 -0.2178  0.3127 -0.1258
62758W        W 5774   8.093  22.334   3.877 -0.2312 -0.0074  0.2376
62759W        W 5775   3.173  24.541  25.210 -0.2613  0.0618 -0.0789
62760W        W 5776   4.050   3.640  16.722 -0.0486 -0.2668 -0.2772
62761W        W 5777   3.128  26.631  14.518  0.1265 -0.0422  0.0950
62762W        W 5778   1.209   0.021   8.929  0.1514  0.0388  0.3670
62763W        W 5779   7.840  29.275   7.743  0.0621  0.1050  0.0741
62764W        W 5780   4.634  10.729   5.826 -0.2460 -0.2159 -0.1902
62765W        W 5781   3.161  29.590   0.914  0.3333  0.0785 -0.0527
62766W        W 5782  29.883  32.344  28.486  0.1281  0.1739 -0.1864
62767W        W 5783   9.366  15.104   0.814  0.0894  0.1001  0.0298
62768W        W 5784  21.603  10.228   2.380 -0.1027  0.0275 -0.0560
62769W        W 5785  13.026  23.528  19.127  0.0478 -0.2121 -0.0003
62770W        W 5786  16.165  25.366   1.267  0.3353  0.1269 -0.2535
62771W        W 5787  20.193  26.454  25.151  0.1027  0.0921 -0.2295
62772W        W 5788   5.874  31.481  27.194  0.0701  0.0339 -0.2996
62773W        W 5789  20.530  20.442  26.819  0.0131 -0.0950  0.1544
62774W        W 5790   6.236  15.075  14.538  0.3175 -0.2120 -0.0096
62775W        W 5791  24.406  16.425  21.742 -0.0668 -0.2113  0.0488
62776W        W 5792   8.533  26.477  16.000 -0.2636 -0.1221  0.0315
62777W        W 5793  12.631  18.860  25.586 -0.0471 -0.1792  0.0803
62778W        W 5794   7.747  15.443  17.788  0.0264 -0.1431 -0.0867
62779W        W 5795  22.802  15.799   3.007  0.1391  0.0072 -0.1349
62780W        W 5796  13.414   5.067   1.611  0.2934  0.2869  0.1632
62781W        W 5797  18.235   0.065  17.400 -0.0498 -0.1797  0.0960
62782W        W 5798  15.803  28.428   5.456 -0.4306 -0.2432  0.0089
62783W        W 5799  10.792  10.692  17.402 -0.0117  0.2387 -0.0181
62784W        W 5800   8.247   4.433   7.172 -0.2651 -0.3451 -0.2334
62785W        W 5801   2.112  20.117   2.589  0.1560  0.1851  0.0102
62786W        W 5802  19.056  33.770  28.384 -0.2423  0.1909  0.2034
62787W        W 5803   5.011  15.380  21.965 -0.1851  0.1842 -0.1854
62788W        W 5804  26.806   9.204  28.494 -0.1636 -0.2507 -0.0624
62789W        W 5805   5.061  20.362  16.400 -0.1376 -0.1607 -0.1051
62790W        W 5806  12.258  19.730  27.961 -0.0695 -0.1784 -0.1920
62791W        W 5807  14.695  18.077  22.312  0.3815  0.0321  0.0935
62792W        W 5808   6.193  26.394   7.413 -0.0637 -0.1553 -0.1458
62793W        W 5809  30.373   9.851  22.841 -0.0467  0.0880 -0.4434
62794W        W 5810  16.837  17.639  12.411 -0.0423 -0.0871 -0.0477
62795W        W 5811  25.980  27.833  15.202  0.1770 -0.0944 -0.1384
62796W        W 5812   4.935   7.175  21.111 -0.2986  0.0002  0.2820
62797W        W 5813   8.726  17.406  24.736 -0.0430  0.2049 -0.2507
62798W        W 5814  12.991  28.702  16.117 -0.0203 -0.0450  0.0550
62799W        W 5815  12.964  24.009  27.166 -0.2310  0.0802 -0.0869
62800W        W 5816  20.185  26.119  15.521  0.0890  0.1365  0.2395
62801W        W 5817   7.527  12.638  17.338 -0.0127 -0.2460  0.0034
62802W        W 5818  16.571  30.690  20.235 -0.1141  0.0028  0.1650
62803W        W 5819  27.613  26.070  24.239 -0.1588  0.0506 -0.0704
62804W        W 5820   4.702  22.064  23.757  0.2229 -0.0715 -0.2338
62805W        W 5821  15.258   5.955  16.851 -0.5401  0.1761  0.0599
62806W        W 5822  18.436  19.723   5.438  0.1064 -0.0683  0.0629
62807W        W 5823  16.496   2.273  18.487 -0.0472 -0.3299  0.0048
62808W        W 5824  23.700  30.913   0.618 -0.0388  0.0489 -0.0076
62809W        W 5825   5.690  18.018  18.149  0.1106  0.3878 -0.0849
62810W        W 5826  17.102  22.634  23.473  0.1444  0.0115 -0.2358
62811W        W 5827  12.484  30.384  15.383 -0.1925  0.0406 -0.0202
62812W        W 5828   9.801  27.835  27.686  0.0902  0.1241 -0.1601
62813W        W 5829   4.736  11.548  23.933  0.5992 -0.0253  0.0419
62814W        W 5830  15.855   6.063  19.758  0.1487  0.2619 -0.2441
62815W        W 5831   8.673  22.155  29.079 -0.1426 -0.0819 -0.3346
62816W        W 5832  17.014  22.490   7.202  0.2591  0.2586 -0.2442
62817W        W 5833  11.333  22.829  16.370 -0.2413 -0.1658 -0.2568
62818W        W 5834  15.971  21.696   5.956  0.0754  0.1177  0.2269
62819W        W 5835  23.092  23.635  21.246 -0.0435  0.0450  0.0576
62820W        W 5836  20.909  21.897  23.741 -0.2310 -0.3485 -0.0879
62821W        W 5837  17.469  16.551  18.104  0.3013 -0.0644  0.4665
62822W        W 5838  32.609   9.334  22.695 -0.1426  0.1568 -0.1863
62823W        W 5839  32.280  16.353   2.072  0.0934  0.1594  0.1741
62824W        W 5840   0.137  16.200  18.305 -0.1136 -0.2464  0.0388
62825W        W 5841  12.570  32.733   3.662 -0.0292  0.0835 -0.0125
62826W        W 5842   9.087  31.019  18.062 -0.0823 -0.3031  0.0406
62827W        W 5843  15.785  14.588   5.638 -0.1738  0.2056  0.1298
62828W        W 5844  10.151   8.360  23.230  0.4833 -0.2954 -0.1088
62829W        W 5845  19.593  33.380  25.074 -0.1349 -0.2047  0.3827
62830W        W 5846  12.436   5.724  25.323 -0.0683  0.0106  0.4004
62831W        W 5847  13.152   1.278   7.224  0.1006  0.2233  0.0809
62832W        W 5848  17.534  24.154  26.111  0.3074  0.0883  0.0942
62833W        W 5849   5.912  17.062  20.079  0.0916 -0.1220  0.2342
62834W        W 5850  13.428  24.850   8.467 -0.0394  0.0182  0.0863
62835W        W 5851  14.510  27.495  28.407 -0.4062  0.0625 -0.0756
62836W        W 5852   1.691   8.589  26.960 -0.0218  0.0808 -0.1657
62837W        W 5853  14.228  24.864  25.940  0.1144 -0.1704 -0.0640
62838W        W 5854  18.334  18.314  23.351  0.2186  0.0471 -0.0487
62839W        W 5855  17.007   7.778   1.406  0.0695 -0.1752 -0.0886
62840W        W 5856   7.127  33.670  22.414  0.0989  0.3497  0.0740
62841W        W 5857  26.975   6.049  27.651 -0.0552  0.1407 -0.2103
62842W        W 5858   5.137  29.655  16.866 -0.2253  0.2271  0.0210
62843W        W 5859   6.430  32.678   3.344 -0.0767  0.1110  0.2719
62844W        W 5860  27.781  24.235  10.482 -0.2474 -0.3688 -0.0499
62845W        W 5861  12.305  17.494  15.287  0.0642 -0.3120  0.1815
62846W        W 5862   7.195  24.342  21.608 -0.2032  0.2144 -0.1457
62847W        W 5863   9.052  22.630   6.696 -0.0164  0.0687  0.4266
62848W        W 5864   9.979  15.620  13.497  0.0208 -0.1414 -0.0021
62849W        W 5865  15.456  13.766  21.772 -0.0213 -0.1039  0.1303
62850W        W 5866  14.114  24.057  22.238  0.2837 -0.1577  0.0660
62851W        W 5867   2.351  20.280  23.074 -0.2893  0.0874 -0.0539
62852W        W 5868  33.248  14.177  14.684  0.1147 -0.1230 -0.0892
62853W        W 5869   5.336   0.190  21.052 -0.1085  0.3668  0.1808
62854W        W 5870   9.588  23.435  23.645  0.0089 -0.1480  0.1743
62855W        W 5871   0.619  32.073   2.686 -0.0616 -0.0530  0.1421
62856W        W 5872   0.104  31.216   5.991 -0.0496  0.0317 -0.1203
62857W        W 5873  29.389  34.506   9.455 -0.0814  0.1621  0.3057
62858W        W 5874  10.189  30.405  29.084 -0.1234  0.1290 -0.1360
62859W        W 5875  20.773  24.869   5.500  0.2408  0.3006 -0.1564
62860W        W 5876   5.371  27.038  18.519 -0.0281  0.2442 -0.1502
62861W        W 5877  20.082  31.620  20.504  0.1990  0.0666 -0.0534
62862W        W 5878  28.570  33.271  23.215 -0.2230  0.3036  0.1607
62863W        W 5879  17.814  33.810  25.048  0.1649  0.2251  0.1812
62864W        W 5880  12.884  31.489  20.326  0.1147 -0.3125 -0.2332
62865W        W 5881  15.712   2.163  21.812 -0.1941  0.1660 -0.1447
62866W        W 5882   6.920  28.926  14.231  0.1092 -0.0953 -0.0134
62867W        W 5883  19.139  21.564  21.632 -0.1270  0.1307 -0.2685
62868W        W 5884   2.653  28.739   0.111 -0.0311  0.0766  0.0784
62869W        W 5885  10.074  28.851  18.993 -0.1999  0.0456 -0.0085
62870W        W 5886  15.750  15.445  28.174  0.1707 -0.0372 -0.1561
62871W        W 5887  33.911  28.267  23.221 -0.0993  0.1766 -0.0782
62872W        W 5888  15.447   5.177   1.603  0.1558  0.2503  0.1415
62873W        W 5889   8.080  30.929  20.091 -0.2505 -0.1765 -0.4456
62874W        W 5890  11.189  22.393   2.001  0.0734  0.0025  0.0061
62875W        W 5891   8.016  18.899  19.625  0.3511  0.0836 -0.0382
62876W        W 5892  21.493  18.428   7.034  0.2083 -0.1457 -0.1228
62877W        W 5893  23.885  22.423   6.089 -0.1388 -0.2102  0.0686
62878W        W 5894  10.629  10.837   2.150 -0.2425 -0.0942 -0.1723
62879W        W 5895  13.793  22.938   4.792 -0.1665 -0.1241  0.3127
62880W        W 5896   1.253  13.879   9.077 -0.3399 -0.0800  0.0715
62881W        W 5897  19.870  28.742  20.225  0.0518 -0.1258  0.3643
62882W        W 5898  13.962  25.009  16.982  0.2043 -0.0389  0.2299
62883W        W 5899  27.829  30.978   7.182  0.0373 -0.2828 -0.2835
62884W        W 5900   1.800   6.114  14.810  0.0950 -0.0359  0.0218
62885W        W 5901  13.988   7.801  17.295 -0.2192  0.0255  0.0816
62886W        W 5902  15.563  25.083   2.127  0.4004  0.0977  0.1286
62887W        W 5903   8.557  28.700  22.759  0.0121  0.0744 -0.4580
62888W        W 5904  20.141  33.753  24.511  0.3055  0.1412  0.0018
62889W        W 5905  15.837  17.513  22.491 -0.0479 -0.1064  0.5077
62890W        W 5906   6.833  33.081   5.943 -0.2785  0.1524  0.1361
62891W        W 5907   4.157   7.259   0.954 -0.0182 -0.2474 -0.0865
62892W        W 5908  20.729  15.202   9.318  0.0381  0.1711  0.0464
62893W        W 5909  13.875  15.440  12.566 -0.3256  0.2738 -0.1590
62894W        W 5910  22.038   5.125  19.872  0.2419  0.2391 -0.0317
62895W        W 5911   9.104  12.405   1.875 -0.0726 -0.1503  0.0449
62896W        W 5912  13.402  33.947   7.460 -0.1073  0.2254 -0.0343
62897W        W 5913  19.659  26.603  24.028  0.1404 -0.1094  0.0229
62898W        W 5914  18.225  25.487  23.494 -0.3228  0.2485 -0.0491
62899W        W 5915  18.757   0.753  26.655 -0.3016  0.0867  0.1837
62900W        W 5916   2.300   6.861  14.825  0.1916  0.3120  0.1041
62901W        W 5917  17.940  25.623   9.528  0.2127  0.2919 -0.0366
62902W        W 5918  10.953  28.023  21.079 -0.0796 -0.0492  0.0135
62903W        W 5919  12.782  25.223  27.681 -0.3482 -0.2857  0.0771
62904W        W 5920  12.233   2.813   5.888 -0.2495  0.0022 -0.0576
62905W        W 5921   0.896  22.372  19.620 -0.1568  0.2097  0.0035
62906W        W 5922  21.712  21.080   7.231 -0.0602 -0.1712  0.1303
62907W        W 5923  27.060  13.386  27.776  0.0095  0.1444 -0.0064
62908W        W 5924   8.224  33.615  27.137  0.0366 -0.2345 -0.0432
62909W        W 5925   4.761   3.971  18.563 -0.0923 -0.0149 -0.0077
62910W        W 5926   6.098  17.866   7.673 -0.2073 -0.0344 -0.3054
62911W        W 5927  15.164  19.682   2.806  0.0181 -0.2750  0.1957
62912W        W 5928  11.326  34.442  24.336  0.3192  0.3892 -0.1570
62913W        W 5929  31.518   3.523  26.820 -0.0779 -0.3784  0.0767
62914W        W 5930  26.424  30.655   3.924  0.0265  0.0120  0.0027
62915W        W 5931   4.216  19.303   4.537 -0.1205 -0.0427  0.0569
62916W        W 5932   4.718  19.663   3.686 -0.0743 -0.1636  0.2462
62917W        W 5933   4.871  20.899  27.184  0.0073 -0.0432 -0.0694
62918W        W 5934  15.377  17.868  20.017  0.0175  0.3656 -0.1371
62919W        W 5935   6.008   3.269  26.397 -0.2509 -0.2362 -0.0288
62920W        W 5936  13.570  22.000  21.195 -0.1922 -0.2024 -0.1624
62921W        W 5937  11.360  34.272   7.469 -0.0305 -0.1144  0.1514
62922W        W 5938   8.927  14.184   7.378 -0.0282 -0.2648 -0.0879
62923W        W 5939   6.255   4.050  16.486 -0.0689 -0.0511  0.0785
62924W        W 5940   5.958  25.487  22.682  0.0952  0.0998 -0.0381
62925W        W 5941  12.083  14.261  24.358 -0.0715 -0.1916 -0.1419
62926W        W 5942   6.514  22.816  22.956 -0.0046  0.2465 -0.0512
62927W        W 5943  16.267  16.931   5.068 -0.0686  0.4107  0.1246
62928W        W 5944  12.775  32.095  14.531 -0.1949  0.1433 -0.2674
62929W        W 5945  10.658  34.073   9.782 -0.2865  0.2809  0.0412
62930W        W 5946  10.948  21.270   5.950  0.1830  0.0151 -0.1855
62931W        W 5947  16.644  26.345  28.579 -0.0797 -0.1140 -0.2128
62932W        W 5948  30.172  20.387  24.743  0.0294 -0.0597 -0.1700
62933W        W 5949   9.818  20.741  27.965 -0.1105 -0.0329 -0.1103
62934W        W 5950   9.821  28.127  20.774  0.1884  0.0945 -0.2631
62935W        W 5951  33.672  19.573   1.410 -0.2213  0.1238 -0.2823
62936W        W 5952  17.542  21.745  20.418 -0.0804 -0.1821 -0.1283
62937W        W 5953   2.203  13.913   1.967 -0.0075 -0.1109  0.1271
62938W        W 5954  11.039  12.620  20.306 -0.4353  0.2419  0.1213
62939W        W 5955  20.960  22.082  17.274 -0.0923  0.2181 -0.1174
62940W        W 5956  22.486  25.713  24.024  0.0854 -0.2775 -0.1752
62941W        W 5957  13.632  12.798  19.183  0.0154 -0.2236 -0.1237
62942W        W 5958  12.705  13.211   3.626  0.1853 -0.1563  0.0528
62943W        W 5959  31.288  25.317   8.099  0.3969  0.0734 -0.0087
62944W        W 5960   8.807  24.062   0.547  0.0378 -0.0657 -0.2530
62945W        W 5961   3.373  21.386  25.040 -0.2802 -0.0612 -0.0254
62946W        W 5962  32.422  22.549  20.276  0.0014  0.0120  0.1858
62947W        W 5963  29.345  29.498   9.432 -0.1092 -0.0815 -0.0827
62948W        W 5964   5.731  31.936  22.753  0.0206  0.0074 -0.0524
62949W        W 5965   5.386   2.918   5.889 -0.1940 -0.0875  0.1352
62950W        W 5966  19.918  29.743   9.962  0.0052  0.1693 -0.2624
62951W        W 5967  26.131  12.639   8.426  0.2185 -0.2623 -0.1716
62952W        W 5968  15.141  34.162  17.276  0.4134  0.1822 -0.1370
62953W        W 5969  24.874  34.147  24.927  0.0638  0.0272 -0.2649
62954W        W 5970   7.377   1.655   8.339 -0.1029  0.1473 -0.1661
62955W        W 5971  11.220  22.931  17.049  0.3010  0.3316  0.2735
62956W        W 5972   5.202   3.723   0.324  0.0478  0.4079 -0.0910
62957W        W 5973   3.179  12.853  19.002 -0.1673 -0.0626  0.1296
62958W        W 5974  27.308  11.252  23.252 -0.2563  0.1061 -0.1177
62959W        W 5975  14.598   6.713  15.299 -0.0230 -0.1671 -0.0680
62960W        W 5976  28.758  31.439  18.157  0.1166  0.1953  0.0453
62961W        W 5977  12.589  22.892   2.279 -0.2544 -0.2687 -0.1625
62962W        W 5978  16.665  32.603  17.286  0.0715 -0.0147  0.2413
62963W        W 5979  27.713  21.617   1.211 -0.1113 -0.1921 -0.1555
62964W        W 5980  23.942  22.121  18.536 -0.3138  0.2635  0.0103
62965W        W 5981  11.321  31.874   9.317 -0.1675 -0.4001 -0.0729
62966W        W 5982  13.266   7.186  26.171  0.1122 -0.0036 -0.3355
62967W        W 5983  27.303  23.054  17.687 -0.0727 -0.2235  0.0247
62968W        W 5984  18.162  33.537  22.892 -0.3124  0.0981 -0.1563
62969W        W 5985  22.244  15.420  25.638  0.2350 -0.0898 -0.3863
62970W        W 5986   3.422   6.553   9.540 -0.2872 -0.3038 -0.1284
62971W        W 5987  16.941  20.135  25.710 -0.0453  0.0431 -0.3000
62972W        W 5988  17.403  23.324   4.217  0.0442  0.2510  0.5423
62973W        W 5989  15.384   1.326  22.360 -0.1328 -0.3119 -0.3039
62974W        W 5990  16.630  21.287  15.414  0.2711 -0.0551 -0.1334
62975W        W 5991  10.708  12.720   1.085 -0.3848 -0.0243  0.0749
62976W        W 5992  11.834  34.651  16.135  0.0464 -0.3391 -0.0814
62977W        W 5993  11.068  26.687  24.355 -0.2726 -0.2148 -0.0810
62978W        W 5994  22.235  22.460  15.761 -0.0509  0.2005  0.5646
62979W        W 5995  15.771   2.950  26.612 -0.0508 -0.1160  0.1091
62980W        W 5996  12.511  13.712  26.951 -0.0319  0.1567  0.0298
62981W        W 5997   4.961   7.841   1.905 -0.2483 -0.4412  0.0924
62982W        W 5998  20.188  34.689  15.230 -0.0455  0.0677  0.2351
62983W        W 5999  30.869  22.367  23.345 -0.1418 -0.2815 -0.0048
62984W        W 6000  16.402  22.225  24.949  0.1186  0.1611 -0.0103
62985W        W 6001  22.666  23.900  15.342 -0.3233  0.0085 -0.1502
62986W        W 6002  15.273  28.410   6.476  0.0627  0.0595 -0.0273
62987W        W 6003  15.508  25.559   0.378 -0.2799  0.0558 -0.1413
62988W        W 6004  16.897  25.889   1.426 -0.0060 -0.0179  0.5410
62989W        W 6005   9.434  19.998  26.875 -0.2096 -0.3151  0.0208
62990W        W 6006   9.363  20.995  27.031  0.1063  0.1675  0.0253
62991W        W 6007   9.197  12.953  27.165 -0.1723 -0.1180 -0.0726
62992W        W 6008  33.397  18.581   3.181 -0.0437 -0.1334 -0.2306
62993W        W 6009  14.118  32.685   5.990  0.2235 -0.2374 -0.4353
62994W        W 6010  17.239  28.578  25.649  0.5677  0.3031  0.1326
62995W        W 6011   6.712  10.996   6.726 -0.1452 -0.0088 -0.1087
62996W        W 6012  26.750  29.768   3.110 -0.0301  0.0784  0.0648
62997W        W 6013   0.396  21.204   0.956  0.1074 -0.0290 -0.0811
62998W        W 6014   6.282  31.326   4.933  0.0594 -0.0989  0.0549
62999W        W 6015  20.651  13.578   2.935  0.1152  0.2430 -0.2099
63000W        W 6016  22.429  29.185   2.050 -0.1710  0.3633  0.1429
63001W        W 6017  22.363  27.746  11.059  0.1108 -0.0053 -0.0798
63002W        W 6018  11.769  14.224  23.464 -0.1019  0.0643  0.0444
63003W        W 6019   9.266  33.753  17.513 -0.3606 -0.0484 -0.0304
63004W        W 6020  12.926  27.779  14.570  0.3198 -0.1763  0.1631
63005W        W 6021   6.332  18.788  17.420  0.0651  0.0963 -0.2263
63006W        W 6022   1.341  15.224   5.797 -0.0893 -0.1560 -0.0700
63007W        W 6023  17.434  22.670  26.995 -0.0818 -0.1443 -0.2254
63008W        W 6024   4.734   5.489  18.019 -0.1681 -0.2831  0.0871
63009W        W 6025  22.439  31.034  28.622  0.3285 -0.1537  0.0115
63010W        W 6026  13.265  31.024  14.272 -0.0889 -0.0892  0.3304
63011W        W 6027  17.387  10.160  20.972 -0.0191 -0.0185 -0.1230
63012W        W 6028  23.676  22.629   4.647  0.2069 -0.0174  0.0659
63013W        W 6029  25.345  17.572  21.736  0.2405 -0.1969 -0.1964
63014W        W 6030  10.272  29.062  16.241 -0.2474 -0.0404 -0.1271
63015W        W 6031  14.954  23.356  16.929  0.0040 -0.3148  0.0360
63016W        W 6032   1.886  30.755  23.261  0.1022  0.0588  0.1849
63017W        W 6033  20.113  20.496   4.676  0.0485  0.0861  0.0254
63018W        W 6034  12.913  19.300  28.938 -0.0004 -0.0212 -0.0677
63019W        W 6035  13.803  12.052   7.097  0.0639 -0.1901  0.1029
63020W        W 6036  14.349  23.027   7.826 -0.0229 -0.0779 -0.1527
63021W        W 6037  33.817  32.988   0.566  0.2277  0.3246  0.2895
63022W        W 6038   9.148  18.711  18.753 -0.2875 -0.1239 -0.4229
63023W        W 6039   6.319  16.241  19.029  0.3847  0.2647 -0.0465
63024W        W 6040   4.171  34.746   1.714 -0.1118 -0.2438 -0.1394
63025W        W 6041  14.579  27.850  14.218 -0.1430  0.0384 -0.0633
63026W        W 6042  33.185  19.447   8.291  0.0610  0.2150 -0.0643
63027W        W 6043  30.897  31.911  17.479  0.0097 -0.1036  0.2418
63028W        W 6044   0.617  25.681  19.169  0.0736 -0.1036 -0.0724
63029W        W 6045  19.290  23.813  13.839 -0.0178  0.3829 -0.0828
63030W        W 6046   1.764  29.510   1.567  0.0612  0.0122 -0.0333
63031W        W 6047  22.309  30.038  17.949  0.1093  0.0001 -0.0903
63032W        W 6048   5.982  32.545  24.682  0.1074  0.1067 -0.1562
63033W        W 6049  15.471  14.547  28.456  0.1493  0.0872 -0.0383
63034W        W 6050   7.759  12.178  26.242  0.1250 -0.3297  0.4880
63035W        W 6051   7.186  31.547  26.972 -0.2487 -0.0041  0.2037
63036W        W 6052   9.394   6.471  23.351  0.4201  0.3167  0.0970
63037W        W 6053  14.930  24.910  28.892 -0.2463  0.0057 -0.0616
63038W        W 6054  20.382  31.314  15.370 -0.1261  0.1122  0.1787
63039W        W 6055  25.430  21.175  17.678  0.2591 -0.1924  0.0513
63040W        W 6056   4.788  17.274   9.093 -0.0004 -0.2388  0.0080
63041W        W 6057  15.219  12.176  24.620 -0.0954  0.0359 -0.1752
63042W        W 6058  12.262  27.839   7.494 -0.2085  0.0038  0.0225
63043W        W 6059  29.131  28.112  23.465  0.3237 -0.1482  0.1115
63044W        W 6060   6.071  29.946   8.761 -0.3712 -0.0340 -0.1800
63045W        W 6061  21.271  13.511   5.499  0.0110 -0.0505  0.0336
63046W        W 6062  21.806   1.221  14.990  0.3595  0.2749  0.1522
63047W        W 6063   6.161  32.552  21.246  0.4536  0.0280 -0.0714
63048W        W 6064  10.810   1.071  16.541  0.3454 -0.2446  0.0886
63049W        W 6065  23.840  27.699  23.520  0.4514  0.0530  0.3520
63050W        W 6066   7.759  22.210  24.822  0.0868  0.1063 -0.3724
63051W        W 6067  14.987  20.864   2.057  0.0369 -0.2370 -0.0626
63052W        W 6068  22.268  16.918  25.056 -0.1037 -0.1267  0.2670
63053W        W 6069  32.826  23.619  19.142 -0.1370 -0.3115  0.0511
63054W        W 6070  24.602  34.686  16.317  0.0335  0.2332 -0.1058
63055W        W 6071   9.925  19.757  22.655 -0.2288 -0.2321 -0.0135
63056W        W 6072  11.898  34.693   2.405  0.1341  0.6029 -0.2815
63057W        W 6073  13.953   0.083   9.955  0.1835 -0.1160  0.1267
63058W        W 6074   9.386  27.756   6.112 -0.2466 -0.1440 -0.1782
63059W        W 6075   7.148  15.853  28.829 -0.0662  0.2568  0.0548
63060W        W 6076  20.181  14.678  26.780 -0.0984  0.1748 -0.1113
63061W        W 6077  10.747  28.772  28.220  0.3426  0.1087 -0.2383
63062W        W 6078  11.924   3.206  26.238  0.0511  0.0183 -0.0674
63063W        W 6079  23.866  27.287  18.662  0.3708 -0.0854  0.0376
63064W        W 6080  18.351  33.635  27.885  0.1830  0.2214 -0.1058
63065W        W 6081  23.337  31.706  20.825 -0.2546  0.0296  0.1528
63066W        W 6082   2.693  18.199   8.105  0.3611  0.0653  0.2390
63067W        W 6083  27.677  24.785   1.186  0.1057 -0.0707  0.1689
63068W        W 6084  34.144   0.695  21.810 -0.2790 -0.0326 -0.0710
63069W        W 6085  11.241   9.939  16.305  0.0278 -0.0389 -0.3223
63070W        W 6086   4.402   0.434  20.094  0.3346 -0.4418 -0.1353
63071W        W 6087  21.034  21.903  16.784 -0.3503 -0.0141 -0.1721
63072W        W 6088  10.493  21.442  14.427  0.0421  0.0120  0.1344
63073W        W 6089  15.475  10.822  22.289  0.0891 -0.0310 -0.0332
63074W        W 6090  13.628  20.887  21.836 -0.1426  0.2725 -0.3071
63075W        W 6091  15.742  33.722  28.483  0.0532 -0.4450  0.2241
63076W        W 6092  14.650  25.308  27.518  0.0139 -0.1965 -0.0517
63077W        W 6093  10.629   2.185   2.905 -0.1919  0.2067  0.3700
63078W        W 6094   9.430   7.303  26.974 -0.2556 -0.1827  0.2102
63079W        W 6095  12.947  13.503   9.004 -0.0915 -0.1639  0.1785
63080W        W 6096  15.489  17.975  19.516 -0.1839 -0.1263  0.0255
63081W        W 6097  27.190  21.042  26.557 -0.1074 -0.5269  0.0540
63082W        W 6098  14.751  17.474   6.391  0.1927 -0.3641 -0.1402
63083W        W 6099  17.772  24.013   3.637  0.1033  0.1599 -0.0851
63084W        W 6100  15.721  20.812  29.054 -0.3220  0.2084 -0.1963
63085W        W 6101   2.215  30.260   1.602 -0.0773  0.1363 -0.1692
63086W        W 6102  10.466   7.064  21.718 -0.2708 -0.0997  0.2034
63087W        W 6103  19.359  34.503  16.819 -0.1922  0.0245 -0.1514
63088W        W 6104   0.648  11.222  24.250 -0.0462 -0.4198 -0.0979
63089W        W 6105  10.519  27.496  26.801 -0.0437  0.1189 -0.4082
63090W        W 6106  20.026  25.684   8.664  0.3284 -0.0164  0.1652
63091W        W 6107  12.763  18.758  13.874 -0.0510  0.0733  0.0231
63092W        W 6108   0.061  21.981  21.666 -0.0042 -0.1250  0.3602
63093W        W 6109   8.492  10.881   8.307 -0.3290  0.0495 -0.1449
63094W        W 6110  13.117  13.480  13.257 -0.2786 -0.1135  0.0276
63095W        W 6111  22.530  18.200  24.379 -0.0023 -0.1330 -0.0309
63096W        W 6112  16.680  26.869  22.274  0.2381  0.1204 -0.0916
63097W        W 6113  14.661  21.078  12.340 -0.0750  0.2093  0.0219
63098W        W 6114  19.786  26.949   6.575  0.1979 -0.1844 -0.1407
63099W        W 6115  30.890  18.675   4.070  0.0574  0.1905 -0.1045
63100W        W 6116   3.900  26.413   0.362 -0.0558 -0.0848  0.0694
63101W        W 6117  32.981  22.474  23.435  0.0628  0.0296  0.1039
63102W        W 6118  13.819  21.570   4.234  0.0253  0.0280  0.0537
63103W        W 6119  19.744  26.405  24.488  0.0820  0.1608 -0.4625
63104W        W 6120  27.441  27.021  25.949 -0.0324  0.1285 -0.5688
63105W        W 6121  19.249   4.558  22.433 -0.2304  0.0023  0.0294
63106W        W 6122  18.047  10.095  28.121  0.2643  0.1077 -0.1157
63107W        W 6123  16.073  23.228  19.704 -0.1269 -0.2127 -0.3297
63108W        W 6124  14.674  16.737   7.898 -0.1071  0.0752  0.1042
63109W        W 6125  33.402  10.586  26.641 -0.0329 -0.2341  0.0933
63110W        W 6126  10.565  22.848  27.148 -0.0655 -0.1099 -0.4004
63111W        W 6127  18.803  13.085   5.359 -0.1526  0.1626 -0.1287
63112W        W 6128  27.851  30.965   2.669  0.0640 -0.1325 -0.2019
63113W        W 6129   8.562  23.466   0.365  0.1370  0.0053  0.0462
63114W        W 6130   6.742  13.729   4.545  0.0667 -0.0957  0.0258
63115W        W 6131  34.710  20.610   4.420  0.0994  0.0349 -0.3155
63116W        W 6132  26.036   7.572  29.268  0.3356 -0.2377  0.2319
63117W        W 6133   0.306  23.075  27.050 -0.3533  0.0453 -0.2416
63118W        W 6134   6.786  24.653  24.228 -0.1416  0.0841 -0.1413
63119W        W 6135  29.563  25.083  21.482 -0.0816  0.2192 -0.0695
63120W        W 6136  15.713  29.012   3.598 -0.2134  0.0302 -0.0099
63121W        W 6137  15.750  22.841   6.419 -0.1238  0.0398 -0.0448
63122W        W 6138   0.941  18.772  28.086 -0.0564 -0.1531 -0.1054
63123W        W 6139  32.102   1.035  17.817  0.7224 -0.3297  0.0183
63124W        W 6140  21.793   8.645   9.770 -0.2582 -0.1636  0.0696
63125W        W 6141  31.702  32.196   7.534 -0.3502  0.0205  0.3910
63126W        W 6142   3.235  32.237  28.487  0.2098 -0.1247  0.0237
63127W        W 6143  11.348  16.194  21.472  0.0215  0.0953 -0.2102
63128W        W 6144  13.056  11.703   2.953  0.1091 -0.1922  0.1812
63129W        W 6145  10.223  12.442  21.993 -0.2568 -0.0832 -0.0746
63130W        W 6146   9.775  18.165   5.857 -0.1688  0.4488 -0.1297
63131W        W 6147  10.056  16.085   2.317 -0.1402 -0.0288  0.0160
63132W        W 6148  14.419  25.541   7.122 -0.1493 -0.1908  0.1655
63133W        W 6149  33.193  23.456   9.911 -0.0480  0.1086 -0.0442
63134W        W 6150   8.367  13.797  23.752 -0.0897 -0.0469 -0.0107
63135W        W 6151  34.497  30.089   6.502  0.0731 -0.2830 -0.0743
63136W        W 6152  14.639  21.606   4.126 -0.2053  0.0263  0.1719
63137W        W 6153  13.227  21.740  14.832 -0.0104 -0.0301 -0.1846
63138W        W 6154   6.049  29.539  25.170 -0.1494 -0.2244  0.2787
63139W        W 6155  15.909  31.762   6.246 -0.2069  0.3187 -0.1906
63140W        W 6156  17.003  17.896  28.529  0.2337  0.0353 -0.0423
63141W        W 6157   5.240  31.780   8.735 -0.1252 -0.2672  0.3961
63142W        W 6158  24.075  14.339  20.490  0.1069  0.1208  0.0854
63143W        W 6159  11.523  17.648   2.519 -0.2821 -0.3748  0.2088
63144W        W 6160  17.083  27.587   7.243  0.2436  0.0423 -0.0103
63145W        W 6161  18.563   0.091  24.435 -0.1432  0.2842  0.0709
63146W        W 6162  10.656   6.023  17.701  0.2037  0.0059 -0.0145
63147W        W 6163  14.642  26.517  19.953 -0.0764 -0.1281  0.1109
63148W        W 6164  19.389  24.863  21.566 -0.0086  0.0765  0.0995
63149W        W 6165  10.097   7.723   2.492 -0.0597  0.1937 -0.0143
63150W        W 6166  33.154  17.015   5.466  0.2623  0.1312 -0.0162
63151W        W 6167   9.940  31.545  27.731  0.1646  0.0232  0.0202
63152W        W 6168   0.219  24.381  14.380  0.0170 -0.2810 -0.0315
63153W        W 6169  25.718   0.315  23.187  0.2304 -0.2311 -0.2588
63154W        W 6170  10.281  32.333  23.552 -0.0938 -0.3809  0.0026
63155W        W 6171  12.683  22.049  16.014  0.1290 -0.0283  0.0488
63156W        W 6172  16.114   5.697  17.238  0.1419 -0.1868  0.0139
63157W        W 6173  12.832   5.282  18.387  0.1382  0.1096  0.0661
63158W        W 6174  12.924  19.432  27.061  0.0083  0.1448  0.3268
63159W        W 6175  34.141  15.360  16.295 -0.0057 -0.0092  0.1205
63160W        W 6176  13.845  12.236  17.508 -0.1333  0.0078  0.0423
63161W        W 6177  23.279  10.938  15.993  0.1472 -0.4087  0.3686
63162W        W 6178   9.720   7.451   5.610 -0.2672 -0.0019  0.0296
63163W        W 6179   1.873  32.020  22.379  0.1251  0.1856  0.3040
63164W        W 6180  22.494   4.798  24.502  0.2356  0.1958 -0.0047
63165W        W 6181  11.238   8.824  24.779  0.1758 -0.1335 -0.4711
63166W        W 6182  13.266  20.774  22.199  0.2321 -0.1989 -0.1899
63167W        W 6183  34.415  25.710  18.651  0.0827 -0.1233  0.2520
63168W        W 6184  34.409  33.546  20.883  0.0444 -0.0926  0.1979
63169W        W 6185  21.825  30.169  19.623 -0.1161 -0.2763  0.2623
63170W        W 6186  12.934   2.134  25.967 -0.0058  0.0457  0.1181
63171W        W 6187   6.604  34.623  25.922  0.1275 -0.2096  0.0587
63172W        W 6188   7.723  34.574  15.855 -0.0515  0.3496  0.2897
63173W        W 6189  24.896  17.448  18.438  0.0025  0.1076  0.0070
63174W        W 6190  15.678  23.907  23.064  0.0293 -0.0362 -0.0409
63175W        W 6191  23.769   3.377  25.560 -0.1495 -0.2478  0.0105
63176W        W 6192  14.565  31.340  25.181  0.1240  0.1242  0.2334
63177W        W 6193   4.613  14.952  25.842  0.0205  0.1362 -0.2138
63178W        W 6194  30.359  31.762   1.238 -0.2576 -0.2807 -0.0580
63179W        W 6195   1.939  29.850  22.269 -0.0539 -0.0017 -0.4733
63180W        W 6196   7.052  20.010  18.923  0.2622  0.1820 -0.0446
63181W        W 6197   6.766  25.415  14.179  0.4536 -0.1891  0.0694
63182W        W 6198  11.000  31.086  17.209  0.0596 -0.1086  0.0113
63183W        W 6199  17.467  34.191  24.908 -0.0007 -0.1390  0.0118
63184W        W 6200   7.459  29.424  18.119  0.0824  0.1084 -0.2897
63185W        W 6201  17.288  30.343  26.449 -0.0163 -0.2166  0.2388
63186W        W 6202   8.719   2.172  23.899 -0.0181 -0.1919 -0.1148
63187W        W 6203   2.972  16.275  28.417  0.3084  0.0666 -0.0775
63188W        W 6204   1.819  19.598  20.343 -0.0323 -0.0118  0.2739
63189W        W 6205  10.299  18.550  14.006 -0.0824  0.1645 -0.0470
63190W        W 6206  18.826  23.352  18.386  0.0750  0.0032 -0.1147
63191W        W 6207   1.445  32.066  20.012 -0.0567 -0.1450  0.2672
63192W        W 6208   9.457  30.224  18.964  0.0622  0.0440 -0.0359
63193W        W 6209  17.484  28.501  24.303  0.4072 -0.1115  0.1741
63194W        W 6210  15.861  23.253  28.414 -0.0597 -0.1352 -0.0053
63195W        W 6211   7.057  32.684  15.514 -0.0727  0.0020 -0.0140
63196W        W 6212  28.392  21.613  18.504 -0.0104  0.0258 -0.0570
63197W        W 6213  18.037  26.921  16.110 -0.0448 -0.2893  0.2380
63198W        W 6214   9.094  30.572  17.282  0.0135 -0.0199  0.1808
63199W        W 6215  12.890   4.324  14.547 -0.2244 -0.1819 -0.0036
63200W        W 6216   2.992  29.322   6.690 -0.3836 -0.0527 -0.2695
63201W        W 6217  21.544  21.539  19.049  0.0548  0.3599  0.1079
63202W        W 6218  16.287   0.564  28.096 -0.1331  0.1131 -0.3876
63203W        W 6219  15.682  34.017  18.541 -0.0637 -0.0449  0.0030
63204W        W 6220  16.907  30.495   1.819  0.0373  0.1448  0.1735
63205W        W 6221  20.923   5.173  22.240 -0.0693  0.2310 -0.0223
63206W        W 6222  14.776  24.173  13.549  0.2823 -0.0517 -0.0944
63207W        W 6223   9.837  24.203  25.099  0.1332  0.1731  0.0007
63208W        W 6224  10.399   0.971  20.510  0.0162  0.4060  0.1589
63209W        W 6225  20.989  20.138  21.699  0.0115 -0.0016  0.0116
63210W        W 6226  12.672  14.808  14.461  0.2047 -0.1078  0.0973
63211W        W 6227  32.796  26.844  25.153  0.2632 -0.3720 -0.2891
63212W        W 6228  34.532  16.739  20.766  0.0112 -0.4214 -0.1146
63213W        W 6229   2.480  21.760  28.172 -0.1502 -0.0532 -0.0979
63214W        W 6230  23.402  20.911  17.845  0.1083  0.4138  0.3442
63215W        W 6231  31.077  16.398  20.456 -0.1357 -0.0537 -0.1946
63216W        W 6232  17.969  18.309  15.266  0.1727 -0.1805  0.0287
63217W        W 6233  24.821  33.967  25.952 -0.0697  0.1904 -0.0796
63218W        W 6234   2.291  26.133  14.695 -0.0695  0.1223 -0.2792
63219W        W 6235   7.210  22.821  13.729 -0.2953 -0.3511 -0.1721
63220W        W 6236   6.609   1.030   4.555  0.2931 -0.0118 -0.2264
63221W        W 6237  24.963  19.553  20.701  0.1495 -0.1302 -0.0049
63222W        W 6238  29.654   3.586  21.562  0.1053 -0.1851  0.0934
63223W        W 6239   4.594  21.752   2.183 -0.1437  0.2368  0.1277
63224W        W 6240  12.299  25.640  16.923 -0.1608  0.1638  0.0428
63225W        W 6241   5.414  20.453  16.680  0.1090 -0.1600 -0.0143
63226W        W 6242   5.272  20.904  26.348  0.2831 -0.5132 -0.0268
63227W        W 6243  13.746  18.681  13.734 -0.2170  0.3329 -0.0520
63228W        W 6244   7.016  27.661  14.624 -0.0218 -0.2199 -0.1330
63229W        W 6245  15.066  24.992  16.054 -0.3678 -0.0753  0.1856
63230W        W 6246  17.697  11.941  13.751  0.2337  0.0473 -0.0146
63231W        W 6247  14.339  29.299  14.289  0.1755  0.0046  0.1748
63232W        W 6248   9.451  29.565  21.155  0.0393  0.1437 -0.1880
63233W        W 6249   6.480  24.385  24.768  0.1043  0.1920 -0.0405
63234W        W 6250  19.964  18.627  25.235 -0.1946  0.2184 -0.0325
63235W        W 6251  30.056  27.370  23.666 -0.1392  0.1068  0.0309
63236W        W 6252   4.424  33.805  14.984  0.0812 -0.1397  0.2282
63237W        W 6253  25.971  11.082  18.803  0.1386 -0.0584  0.0423
63238W        W 6254  26.799   4.518  15.890  0.0598  0.0709 -0.0997
63239W        W 6255  28.125  33.091  23.144 -0.0355  0.1699  0.1041
63240W        W 6256  14.716  18.798  28.604 -0.1957 -0.0129 -0.1745
63241W        W 6257  20.908   6.007  26.809 -0.0077 -0.0816 -0.3410
63242W        W 6258  19.178  25.469   6.247 -0.0906  0.0920 -0.1478
63243W        W 6259  20.162  32.208  26.755  0.2497  0.0588 -0.0093
63244W        W 6260  26.947  12.654  18.296 -0.0614 -0.3094 -0.1246
63245W        W 6261  26.312   6.721  20.846  0.2058 -0.1058 -0.0747
63246W        W 6262   6.533  30.193  14.969 -0.0780 -0.1831 -0.0255
63247W        W 6263   8.993  11.641  17.874  0.2454  0.3255 -0.1880
63248W        W 6264   4.983  20.743  17.314 -0.0765 -0.1551 -0.1021
63249W        W 6265  18.207  27.674  25.242 -0.1620 -0.1174 -0.1401
63250W        W 6266  23.785  15.942  15.329  0.1771  0.0129  0.1449
63251W        W 6267  23.282   2.967   7.748 -0.1971 -0.1282 -0.0664
63252W        W 6268  10.074   1.853  18.174 -0.0087 -0.2565 -0.0677
63253W        W 6269  16.833  28.217  25.637 -0.0476  0.1281 -0.0251
63254W        W 6270   3.973  18.111  15.441  0.1376 -0.1280  0.2797
63255W        W 6271   7.527   4.223  21.740 -0.1942 -0.1214 -0.2449
63256W        W 6272  15.134  13.128  15.245  0.0901  0.0615  0.0593
63257W        W 6273   3.451  11.371  19.793  0.1968  0.1066  0.0065
63258W        W 6274  16.243  23.816  16.923  0.1397 -0.2147  0.1632
63259W        W 6275  25.582   1.873  26.865 -0.1742 -0.0097  0.1616
63260W        W 6276  16.338  32.693  22.451  0.0649 -0.1476 -0.0433
63261W        W 6277  12.894  21.735  22.310 -0.0969  0.1206 -0.0787
63262W        W 6278  24.910  31.275  21.482 -0.0859 -0.1664  0.2930
63263W        W 6279  19.107  32.890  17.266  0.0114  0.1418  0.2774
63264W        W 6280  19.013   2.479  20.717  0.3106  0.0276  0.2636
63265W        W 6281  30.233  29.734  18.422 -0.0312 -0.1203 -0.3547
63266W        W 6282  17.678  21.201  21.156  0.0854  0.0027  0.2088
63267W        W 6283   2.255  21.999  14.901 -0.0443 -0.1911  0.0229
63268W        W 6284  24.967  30.824  19.062 -0.0776  0.0518 -0.0797
63269W        W 6285  22.520  28.474  15.382  0.0039  0.0979  0.2322
63270W        W 6286  10.740  20.547  28.931 -0.1363 -0.1226 -0.2613
63271W        W 6287  23.462  19.256  15.533  0.0260  0.3062  0.0957
63272W        W 6288  26.480   0.522  19.017 -0.3161  0.0526  0.1101
63273W        W 6289  19.391  20.819  14.408 -0.2138 -0.2395 -0.3000
63274W        W 6290  29.120   1.935  20.199 -0.1035 -0.1302 -0.0436
63275W        W 6291  32.594  25.864  20.070 -0.2008  0.0771  0.1690
63276W        W 6292  14.349   0.991   9.710  0.1715  0.0952 -0.3943
63277W        W 6293  18.272   0.995  22.261 -0.1762  0.1100 -0.2379
63278W        W 6294  34.196  26.685  17.225  0.2320 -0.0415  0.0199
63279W        W 6295  14.730  20.237  27.668  0.0121  0.0037  0.1229
63280W        W 6296   4.496  21.132  15.012  0.1584  0.0458 -0.0294
63281W        W 6297   9.216  20.303  16.894  0.1146  0.2014  0.0442
63282W        W 6298  25.579  27.234  19.214  0.0590  0.0140 -0.1090
63283W        W 6299  16.196  32.407  23.934  0.0127  0.2354  0.0497
63284W        W 6300  34.637  24.357  18.308  0.2406  0.0183 -0.1715
63285W        W 6301   5.452  29.946  28.990 -0.0503 -0.1310 -0.0257
63286W        W 6302  34.560  24.973  21.204  0.0373 -0.0736  0.0403
63287W        W 6303  12.666   6.693  28.316  0.1091 -0.0591 -0.0677
63288W        W 6304  12.366  33.897  24.521 -0.0502 -0.0660  0.1540
63289W        W 6305   3.848  31.844   3.634 -0.0700  0.3345  0.1267
63290W        W 6306   8.423  22.430  17.931  0.1050  0.1773 -0.0977
63291W        W 6307  31.914  22.702  18.504 -0.0756  0.1560  0.2537
63292W        W 6308  17.492  33.510  25.921  0.0032  0.0640 -0.1135
63293W        W 6309   9.206  25.193  17.478 -0.2512  0.2419  0.2596
63294W        W 6310  26.154  29.327  24.617 -0.1030  0.3594 -0.2919
63295W        W 6311  13.193  23.910  20.954 -0.1896  0.1649  0.0156
63296W        W 6312  18.617  32.273  21.654 -0.1767  0.1747 -0.1071
63297W        W 6313  13.475  16.017  25.093 -0.3825 -0.1872 -0.0387
63298W        W 6314  14.994  28.284  22.604  0.0687 -0.1463 -0.3744
63299W        W 6315   9.803  18.682  28.917 -0.1553 -0.2482  0.1050
63300W        W 6316  23.455  33.285  16.910  0.1395 -0.1167 -0.2225
63301W        W 6317  25.231  17.572  18.099  0.1073 -0.0879  0.1131
63302W        W 6318  26.901  19.315  25.064  0.1254 -0.0622 -0.1388
63303W        W 6319  22.614   7.963  21.014  0.2156 -0.1803 -0.0189
63304W        W 6320   7.429  26.969  25.351  0.0971  0.0026  0.1405
63305W        W 6321   6.351   2.215  26.016  0.1276  0.0104  0.0495
63306W        W 6322  32.938   6.627   7.228 -0.0664  0.0710  0.0892
63307W        W 6323  33.470  21.020  15.970  0.0933 -0.1794  0.1672
63308W        W 6324  19.863  20.284  12.014  0.0887  0.3070  0.2824
63309W        W 6325   6.223  25.434  24.119 -0.1296  0.1233  0.2067
63310W        W 6326  20.964  32.387  17.368 -0.2321 -0.0397  0.0983
63311W        W 6327  18.009   2.893  14.493 -0.0941  0.0222 -0.1838
63312W        W 6328  15.186  27.216  15.526  0.0439  0.1922  0.1129
63313W        W 6329  11.654   2.024  20.177  0.0728 -0.2342  0.1447
63314W        W 6330  17.628   6.924  17.401 -0.0411  0.1122 -0.1766
63315W        W 6331  22.915   1.360  22.166  0.1212 -0.2258  0.1621
63316W        W 6332  26.568  30.412  20.035  0.0515 -0.0720  0.0849
63317W        W 6333   2.984  10.274  18.813  0.0544  0.1901  0.1372
63318W        W 6334  30.441  23.394  18.933  0.3095  0.1439 -0.0242
63319W        W 6335   4.764  32.843  17.465  0.0155  0.3085 -0.3644
63320W        W 6336   2.387  31.542  21.053  0.4246 -0.2279  0.0801
63321W        W 6337  19.609  25.838  22.719 -0.0415 -0.1068  0.0659
63322W        W 6338   3.672  25.043  15.613  0.1212  0.0952 -0.1873
63323W        W 6339  22.465  23.686  24.043  0.1546  0.2296 -0.4418
63324W        W 6340  18.362  14.389  14.520 -0.0361 -0.1446 -0.1822
63325W        W 6341   4.060  31.210  24.485 -0.0667 -0.0649 -0.1748
63326W        W 6342  11.100  27.751  19.065 -0.1101 -0.1437  0.0110
63327W        W 6343  15.936  32.293  22.628 -0.2101 -0.0266 -0.1263
63328W        W 6344   6.002  20.238  12.679 -0.3714  0.0909  0.0467
63329W        W 6345   4.936  30.102  15.610 -0.1431 -0.0783 -0.0783
63330W        W 6346  32.522  29.938  17.868  0.2360  0.0653 -0.1579
63331W        W 6347   8.397  24.407  22.405 -0.2906 -0.0446  0.0577
63332W        W 6348  13.272  33.634  20.516 -0.2855  0.1495  0.0037
63333W        W 6349  23.106  28.893  24.706  0.0282 -0.1383  0.1629
63334W        W 6350  19.111  31.390  10.894  0.0208 -0.2898  0.4998
63335W        W 6351   9.198  34.164  23.767 -0.0739  0.0820 -0.1374
63336W        W 6352  21.685  23.652  22.203 -0.0557 -0.3575 -0.0597
63337W        W 6353  16.914  16.282  24.629  0.3578  0.0015  0.0411
63338W        W 6354  16.333  33.600   2.546 -0.2079 -0.1823 -0.2913
63339W        W 6355  25.976  30.313   1.703  0.0540  0.0658  0.3070
63340W        W 6356  23.666   4.837  18.247  0.0019  0.1920 -0.0382
63341W        W 6357  34.438  30.580  26.104  0.1032 -0.0367  0.2388
63342W        W 6358   2.347  18.866  25.116 -0.1982  0.1826 -0.1214
63343W        W 6359  22.782  12.214  23.476  0.0919  0.1991  0.1128
63344W        W 6360  28.004   8.499  27.329 -0.0766 -0.3501  0.0050
63345W        W 6361  11.489   0.329  23.867 -0.0042 -0.0416 -0.1313
63346W        W 6362  26.218  21.102  24.374  0.1048 -0.1358  0.3663
63347W        W 6363  29.242   5.233  17.903 -0.1864  0.0963 -0.0647
63348W        W 6364  11.061  24.685  25.277 -0.4779 -0.1444  0.3092
63349W        W 6365   5.226  19.793  13.109 -0.0580  0.1687  0.3943
63350W        W 6366  14.713  21.654  24.169 -0.0701  0.2762  0.0777
63351W        W 6367  17.905  26.679  22.641  0.1586  0.3048 -0.3960
63352W        W 6368   1.332  21.401  23.208 -0.2033 -0.1622 -0.2219
63353W        W 6369  26.387  31.899  18.537  0.0109 -0.1348 -0.0485
63354W        W 6370   3.942  25.091  26.044  0.1640 -0.0730 -0.3116
63355W        W 6371   3.651  21.963  16.942  0.1010 -0.1180 -0.1167
63356W        W 6372  13.678   0.627  14.902 -0.0608 -0.0366  0.1682
63357W        W 6373  10.527  23.457  20.680  0.0223  0.0620 -0.1048
63358W        W 6374   7.718  20.163  22.692 -0.0235  0.4632  0.1872
63359W        W 6375   9.049  29.966   8.220  0.1323  0.3249 -0.0486
63360W        W 6376  27.714   4.985  17.350 -0.3435 -0.0201 -0.2319
63361W        W 6377  18.889  24.201  24.457  0.0638 -0.0418  0.0314
63362W        W 6378  23.262  22.741  13.956 -0.1682 -0.2223  0.1032
63363W        W 6379   9.677  34.522   5.012  0.0664  0.1132 -0.0944
63364W        W 6380  16.711   0.892  27.915  0.0381  0.2583  0.0128
63365W        W 6381  12.399  26.570  18.900 -0.3519  0.0006 -0.2813
63366W        W 6382  25.319  26.223  27.700 -0.3418 -0.0043 -0.0583
63367W        W 6383  11.277   1.582  25.195 -0.1090 -0.0667  0.2919
63368W        W 6384  33.758  33.963  24.383  0.0031 -0.0693 -0.0756
63369W        W 6385  11.435   0.134  28.799 -0.2126 -0.1592 -0.0863
63370W        W 6386   0.960  26.234  15.149  0.0331  0.2415  0.0589
63371W        W 6387  10.362  27.838  15.539  0.1748 -0.2165 -0.1229
63372W        W 6388  18.509  30.343  18.995 -0.1155 -0.4002 -0.2497
63373W        W 6389  22.605  23.410  17.214  0.1201 -0.0985  0.1476
63374W        W 6390   1.449   1.277  27.949  0.1729 -0.0707  0.0953
63375W        W 6391   4.481  27.702  14.256 -0.2733 -0.0233 -0.1982
63376W        W 6392  16.821  32.466  21.500 -0.0723 -0.0119 -0.2625
63377W        W 6393  24.293  32.947  21.118 -0.1146 -0.0813 -0.2422
63378W        W 6394  24.957  27.019  27.404  0.0932  0.0096  0.2353
63379W        W 6395  30.686  18.447  21.936 -0.1017  0.1344  0.0416
63380W        W 6396   8.103  29.889  24.038 -0.4281  0.1008  0.1258
63381W        W 6397   2.802  23.734  14.726  0.0849 -0.0250  0.2100
63382W        W 6398  31.151  29.108  18.882 -0.4405 -0.1903 -0.0163
63383W        W 6399  21.094  21.133  28.692 -0.2964 -0.0120 -0.0296
63384W        W 6400  29.103  31.962  21.707 -0.1376  0.2064  0.2116
63385W        W 6401  13.517  31.433   1.164 -0.1321  0.0253  0.2820
63386W        W 6402   4.607  19.212   7.122 -0.1248  0.0495  0.0527
63387W        W 6403   6.014   5.763  24.958  0.0046 -0.0078  0.1276
63388W        W 6404  16.460  32.210  18.687 -0.0324 -0.2047 -0.1416
63389W        W 6405  11.524   3.485  27.492  0.3161  0.0865 -0.0841
63390W        W 6406  22.678  23.308  22.294 -0.0621 -0.0127 -0.0079
63391W        W 6407   2.157  12.175  20.360  0.1821  0.1177  0.0444
63392W        W 6408  10.472   7.349  23.525  0.0960  0.0777 -0.2172
63393W        W 6409  33.771  24.765  17.858  0.0536  0.0411  0.1227
63394W        W 6410  11.612  29.080  22.787  0.0250  0.0086  0.0458
63395W        W 6411  15.562  29.567  22.873  0.1750 -0.0135 -0.2115
63396W        W 6412   4.265  11.294  24.133 -0.0384  0.1310 -0.1234
63397W        W 6413   5.460  29.487  17.233 -0.2700 -0.0768 -0.1628
63398W        W 6414   5.181  34.262  23.126  0.2278  0.0742  0.0116
63399W        W 6415  25.515   2.975   7.000  0.1158  0.1686 -0.2406
63400W        W 6416  29.428  11.138  18.007 -0.1031  0.4040  0.1034
63401W        W 6417  20.920  22.753  22.810 -0.3601  0.0509 -0.2308
63402W        W 6418  20.480   1.715  23.484 -0.0249 -0.3126  0.2636
63403W        W 6419  17.006  21.494  22.387 -0.1401 -0.1643  0.0640
63404W        W 6420   6.783   2.514  16.838 -0.2323  0.1056 -0.2828
63405W        W 6421  10.720  32.733  23.002 -0.0790 -0.1992  0.1874
63406W        W 6422   5.598  29.504  18.650  0.1941 -0.1137 -0.0550
63407W        W 6423  32.954  33.671  26.438  0.1328  0.2245 -0.2492
63408W        W 6424   1.591  21.191  23.613 -0.1802  0.2409  0.0758
63409W        W 6425   7.588   4.219  14.290  0.1793 -0.2271  0.3353
63410W        W 6426  26.657  22.375  25.410 -0.1528 -0.2531  0.3507
63411W        W 6427  19.996  25.560  13.324  0.2390 -0.1334 -0.0185
63412W        W 6428  23.465   7.356  17.168  0.0697  0.0910  0.4169
63413W        W 6429   5.726  27.813  16.873 -0.0780  0.2308 -0.2765
63414W        W 6430   6.294  30.502   8.823  0.1239 -0.2257 -0.1223
63415W        W 6431  21.380   0.853  17.311 -0.0003  0.2213 -0.0556
63416W        W 6432   3.665   0.177  16.550 -0.0577 -0.3193  0.0465
63417W        W 6433   8.625  21.057  18.641  0.2544  0.3400 -0.0762
63418W        W 6434  11.607  22.518  13.464 -0.3257  0.1060  0.0192
63419W        W 6435   5.158  18.082  17.016  0.0018 -0.2100  0.0465
63420W        W 6436   9.886  22.123  14.704  0.1220 -0.2398 -0.2202
63421W        W 6437   2.690  10.237  14.984 -0.5149 -0.1356 -0.0164
63422W        W 6438  32.405  23.520  15.015 -0.0559  0.1798 -0.1727
63423W        W 6439  10.344  26.955  24.774 -0.4028  0.1478  0.0419
63424W        W 6440  22.946  28.286  16.959 -0.2099 -0.0279 -0.0015
63425W        W 6441  11.538  33.813  19.161 -0.1675 -0.1514 -0.1214
63426W        W 6442  11.864   4.661  16.237  0.2121 -0.0255  0.4210
63427W        W 6443   3.690  20.409  28.339 -0.1375 -0.0431  0.0746
63428W        W 6444  15.280   8.116   3.277  0.0511  0.3431 -0.0535
63429W        W 6445   3.887  23.745  16.967 -0.4580  0.1700 -0.1043
63430W        W 6446  20.685   0.992  25.817  0.0066 -0.2923 -0.1335
63431W        W 6447  17.550  15.502   1.507 -0.0971  0.3865  0.2617
63432W        W 6448  23.695  29.423  24.897 -0.1607  0.2091  0.4558
63433W        W 6449  17.374  34.770  21.191 -0.2975 -0.2651  0.1413
63434W        W 6450   8.927  33.000  22.427 -0.0057 -0.0878 -0.0756
63435W        W 6451   7.980  16.835  16.795  0.3306 -0.0412 -0.0600
63436W        W 6452  11.753  27.485  15.183 -0.2441 -0.2164 -0.2520
63437W        W 6453  12.464  13.850  14.429  0.0114  0.1509 -0.0324
63438W        W 6454  14.946   4.600  24.921 -0.2739 -0.2342  0.1800
63439W        W 6455  14.180   2.682  24.798  0.2334  0.1407  0.3702
63440W        W 6456   0.492  33.083  25.955 -0.0028 -0.2673  0.1294
63441W        W 6457  19.699  21.850  13.660  0.1506 -0.2773  0.1145
63442W        W 6458  13.866  30.179  22.602 -0.0257  0.0216 -0.3131
63443W        W 6459  15.574   9.075  14.129  0.1452 -0.1008  0.2994
63444W        W 6460  27.287  33.508  22.992 -0.0392  0.3192 -0.5102
63445W        W 6461   4.833  10.192  18.722  0.2930  0.0084 -0.2349
63446W        W 6462  16.754  21.180  16.010 -0.0795  0.2360 -0.0766
63447W        W 6463   8.508  30.769  19.030 -0.0697 -0.1761 -0.1234
63448W        W 6464  20.225  30.985  17.616  0.0617 -0.2242 -0.3020
63449W        W 6465  17.944  30.568  17.977  0.0440 -0.2617 -0.0436
63450W        W 6466  20.369  30.951  24.786  0.2866 -0.0329 -0.1828
63451W        W 6467  25.439  15.998  14.540 -0.0452 -0.0822  0.1219
63452W        W 6468   0.564  34.743  21.858 -0.0917  0.2270  0.2479
63453W        W 6469  27.417  24.291  19.764 -0.0571 -0.0799 -0.0725
63454W        W 6470  10.431  26.364  18.389 -0.0142 -0.2651  0.3879
63455W        W 6471  17.543  12.160  29.010  0.2917 -0.1381 -0.1224
63456W        W 6472  10.440  22.531  21.979  0.1434 -0.1122  0.0328
63457W        W 6473  12.167  22.796  17.389  0.0469  0.2705 -0.0152
63458W        W 6474  34.063  30.161  20.297  0.1842  0.1790  0.0312
63459W        W 6475  21.820  14.463  19.734 -0.2796 -0.0473 -0.1051
63460W        W 6476   6.381  28.584  24.770  0.1178 -0.0996 -0.1662
63461W        W 6477  11.478  21.478  22.237 -0.1614  0.3395 -0.0116
63462W        W 6478  23.643  22.711  19.590  0.1008  0.2272 -0.0275
63463W        W 6479  22.806  15.484   2.371 -0.0588 -0.0218  0.1219
63464W        W 6480   5.817  33.109  23.730 -0.1929 -0.2324  0.0457
63465W        W 6481  12.105  18.876  24.352  0.3752  0.2774 -0.1244
63466W        W 6482  20.195  20.578  16.215 -0.0512 -0.1364  0.1285
63467W        W 6483  13.556  34.748   0.216 -0.3217  0.0338  0.0499
63468W        W 6484  20.252   4.445  24.951  0.1079 -0.1719 -0.2327
63469W        W 6485   5.489  11.265  20.546 -0.1319 -0.1846 -0.0766
63470W        W 6486  20.082  31.098  24.341 -0.1740 -0.0752 -0.0613
63471W        W 6487  28.851  31.514   4.262 -0.0369 -0.0165  0.0356
63472W        W 6488  16.716  21.650  15.909 -0.1243 -0.2847  0.0279
63473W        W 6489  20.231  25.234  25.663  0.3044 -0.0827 -0.0943
63474W        W 6490  31.698   3.543  25.457  0.1056  0.1271  0.5691
63475W        W 6491  27.554  34.751  16.239  0.1608 -0.1162  0.2169
63476W        W 6492  18.670  23.673  22.937 -0.0874 -0.1480  0.2936
63477W        W 6493   6.117  33.769  16.336 -0.4290  0.0839 -0.0221
63478W        W 6494   4.478  20.559  17.056 -0.0678  0.4148 -0.0984
63479W        W 6495  10.632  31.060  21.742 -0.2338 -0.4497 -0.0883
63480W        W 6496   2.006  20.807  28.805 -0.2199 -0.1543 -0.2704
63481W        W 6497  13.575   4.655  16.465  0.2698  0.0563 -0.1774
63482W        W 6498  11.336  27.808   0.602  0.0286  0.0648 -0.1182
63483W        W 6499   9.121  25.718  15.829 -0.1161 -0.1735  0.0412
63484W        W 6500  26.497  26.805  23.604 -0.1979  0.1681 -0.0347
63485W        W 6501  20.438  17.934  22.126 -0.1313 -0.2382  0.1305
63486W        W 6502   7.251  30.895  25.917  0.0041  0.4336  0.0899
63487W        W 6503  23.165   8.877  19.054 -0.0673  0.0019  0.1464
63488W        W 6504   7.084  29.084  18.985  0.1645 -0.1727  0.2458
63489W        W 6505   4.114  15.691  24.028  0.0198  0.1664 -0.0512
63490W        W 6506   9.021   1.232  15.352 -0.4733 -0.2750  0.3989
63491W        W 6507  18.327   4.998  22.279  0.1707 -0.0754 -0.0427
63492W        W 6508   9.079  26.318  16.162 -0.0579 -0.0203 -0.2471
63493W        W 6509  15.878  19.078  13.649  0.1497  0.0820  0.3248
63494W        W 6510  12.000  33.715  22.174 -0.0599  0.1582 -0.0725
63495W        W 6511  16.709  28.853  17.774  0.3285  0.1126  0.2074
63496W        W 6512  24.789   1.173  19.654  0.4390 -0.2899  0.1155
63497W        W 6513   4.312  14.491  24.458 -0.0152 -0.0287 -0.2784
63498W        W 6514   7.340   3.013  23.092  0.0466 -0.2856  0.0022
63499W        W 6515  29.415  33.858  20.101 -0.0240  0.2991  0.0894
63500W        W 6516  12.489  19.196   3.995 -0.1170 -0.1615 -0.1766
63501W        W 6517  14.472   1.795   4.015  0.4673 -0.1961 -0.1437
63502W        W 6518  22.234   1.021  17.593 -0.1511  0.0037 -0.1432
63503W        W 6519  11.346  19.511  16.206 -0.0323 -0.1878  0.1030
63504W        W 6520  14.060  26.726  26.551 -0.1342 -0.1931 -0.4431
63505W        W 6521   6.983  27.474  17.060 -0.1111 -0.0607  0.1309
63506W        W 6522  29.989  19.076  17.304 -0.1761 -0.2494  0.0255
63507W        W 6523   2.758  27.117  22.786 -0.0550 -0.2517  0.1336
63508W        W 6524   8.911  11.067  27.258  0.0373  0.1221 -0.1430
63509W        W 6525  13.183  31.360  23.333 -0.1178 -0.2204 -0.3806
63510W        W 6526  22.516  30.354  25.042  0.0295 -0.0340  0.0023
63511W        W 6527  22.152   1.942  16.830 -0.0469 -0.1443  0.1610
63512W        W 6528  13.876  21.613  12.635 -0.0399  0.2578 -0.0029
63513W        W 6529  17.553   4.528  13.340  0.0645 -0.1374  0.2378
63514W        W 6530  22.018  33.670  17.973  0.1098 -0.0050  0.2690
63515W        W 6531   4.555  16.245  20.120  0.0799 -0.1599 -0.1020
63516W        W 6532  27.453  33.671  24.213  0.0078  0.0387 -0.0584
63517W        W 6533  20.330  15.946  13.134 -0.1009 -0.2124  0.1753
63518W        W 6534  22.117  28.458  21.592  0.0331  0.0889 -0.3087
63519W        W 6535   2.519  33.291  22.922 -0.1409 -0.0397 -0.2068
63520W        W 6536   6.144  33.207  23.353  0.3625 -0.1426 -0.1368
63521W        W 6537  17.955  29.316  25.886  0.0851 -0.1342 -0.1114
63522W        W 6538   9.160  16.737  21.283  0.1285 -0.0829  0.0697
63523W        W 6539   3.719   1.704  19.960  0.0052  0.0360 -0.0038
63524W        W 6540   7.273  12.998  26.356  0.1237 -0.1344 -0.1433
63525W        W 6541   8.092  19.413  21.498 -0.4598 -0.1006  0.0167
63526W        W 6542   8.294  30.466   1.322 -0.4600  0.0540  0.3600
63527W        W 6543   2.609  10.803   9.766  0.0494 -0.1019 -0.1755
63528W        W 6544  23.111  33.315  24.269 -0.3321 -0.2720  0.3936
63529W        W 6545  14.692   8.676  13.651  0.0193 -0.2711  0.2762
63530W        W 6546   2.030  18.096  18.502 -0.0635  0.0519 -0.0325
63531W        W 6547  19.728   8.056  20.863 -0.0068 -0.0232  0.3444
63532W        W 6548  17.229  20.940   3.635 -0.3335  0.0496 -0.1327
63533W        W 6549  18.991   6.323  19.322 -0.1453  0.4030 -0.0327
63534W        W 6550  20.393  26.181  13.831  0.1298  0.1762 -0.0288
63535W        W 6551   6.312   1.778  22.619 -0.0780  0.2681 -0.1105
63536W        W 6552   0.867  30.964  15.529 -0.0423 -0.1191 -0.3812
63537W        W 6553  15.806   4.182  15.023  0.1416  0.0266  0.2597
63538W        W 6554  22.891  19.252  21.346  0.3443 -0.1433  0.0457
63539W        W 6555   5.795  15.812  19.365  0.0575 -0.0940 -0.3199
63540W        W 6556   9.324   0.694  19.691 -0.1154  0.0028  0.0241
63541W        W 6557  30.927   1.750  16.346 -0.1848  0.0527 -0.0203
63542W        W 6558  12.887  20.452  25.012  0.0675  0.2381 -0.1130
63543W        W 6559  10.727   2.670  21.044 -0.0851  0.1448  0.0391
63544W        W 6560  19.040  25.477  26.797  0.4622  0.5361 -0.2394
63545W        W 6561  10.855   4.558  21.669  0.0543 -0.0100  0.0808
63546W        W 6562   3.291   6.925  27.026  0.1106  0.0075 -0.1748
63547W        W 6563   2.362   0.002  18.224 -0.0750 -0.0417  0.0766
63548W        W 6564  10.770   8.163  19.382 -0.0038  0.0962  0.0018
63549W        W 6565   3.692  23.836  16.369  0.1386  0.1080 -0.3217
63550W        W 6566  23.559   1.417  24.699 -0.1660  0.0171  0.0602
63551W        W 6567   6.531  31.388  24.833 -0.0143 -0.0152  0.0403
63552W        W 6568  19.895  17.641  26.311 -0.0080  0.2935 -0.3358
63553W        W 6569  21.376  31.058  17.243  0.4127 -0.1093 -0.0815
63554W        W 6570  17.950  22.053  15.995 -0.2677 -0.0737  0.1371
63555W        W 6571  12.502  29.570  24.657  0.1848 -0.1946  0.2071
63556W        W 6572  12.001  28.348  13.475  0.0826  0.5498  0.0224
63557W        W 6573  14.118  22.708  14.745  0.0290  0.0379 -0.2018
63558W        W 6574  21.676  32.285  19.577  0.3323 -0.0108 -0.0357
63559W        W 6575   5.282  11.235   2.466  0.1543  0.2273  0.0022
63560W        W 6576   8.027   4.229  19.084 -0.0932 -0.0876  0.0093
63561W        W 6577  31.594  32.467   0.536  0.0653  0.1300  0.1026
63562W        W 6578  17.750  16.048  11.265 -0.2217 -0.0413  0.0959
63563W        W 6579  10.235  30.576  20.468 -0.1158 -0.0174 -0.2463
63564W        W 6580  28.871  27.428  27.212  0.0451 -0.0285  0.1324
63565W        W 6581  24.344  27.900   0.798  0.2762 -0.0190  0.3114
63566W        W 6582  22.791   3.122  17.453 -0.0248  0.0629  0.0547
63567W        W 6583   2.320  33.491  27.026  0.0480  0.1042  0.1823
63568W        W 6584  10.755  25.322  17.618 -0.0323 -0.0197 -0.1176
63569W        W 6585  19.630  29.116  14.354  0.0284  0.1891 -0.0450
63570W        W 6586  11.644  14.981  25.148 -0.0277 -0.0755  0.1068
63571W        W 6587   4.197  20.701  15.596 -0.1674  0.0838  0.2420
63572W        W 6588  20.249  29.863   5.429 -0.0652 -0.0367  0.0338
63573W        W 6589   0.637  24.218   5.721  0.1442  0.0002 -0.0830
63574W        W 6590  17.247   1.881  25.609  0.1709  0.0543 -0.1737
63575W        W 6591  16.615  28.276  14.587 -0.1637 -0.1225  0.0947
63576W        W 6592  11.318  22.880  26.659  0.0284  0.0132  0.1573
63577W        W 6593   9.991  26.866  16.187 -0.0951 -0.1519  0.0473
63578W        W 6594  28.168   6.059   3.701 -0.3182 -0.0082  0.0525
63579W        W 6595  10.272  24.727  18.241 -0.0895 -0.0474 -0.0412
63580W        W 6596  24.637  34.702  24.681  0.1085 -0.1472  0.2127
63581W        W 6597  17.611  23.177  29.037  0.2780 -0.1369 -0.2205
63582W        W 6598  13.132  28.680   0.489  0.1829  0.0646 -0.1257
63583W        W 6599  20.548  30.800  21.431  0.1143  0.1169 -0.3447
63584W        W 6600  16.805  25.014  18.060  0.1237 -0.3316 -0.0722
63585W        W 6601  13.672  23.251  23.633 -0.2500 -0.7970 -0.1212
63586W        W 6602  24.230  26.750  22.112 -0.0946  0.3188 -0.2714
63587W        W 6603  15.383   5.439  21.639 -0.1575  0.0799  0.2905
63588W        W 6604   6.838  25.879  14.485  0.1270  0.1572  0.1497
63589W        W 6605   8.544  20.243  15.049  0.0212  0.0597  0.0911
63590W        W 6606  31.996  25.456   0.989  0.3526 -0.2050 -0.2421
63591W        W 6607  17.946  28.871  28.582 -0.0798 -0.0954  0.2652
63592W        W 6608   0.264  33.817  24.849 -0.3332 -0.0208  0.0006
63593W        W 6609  19.343  30.318  22.242 -0.0231 -0.1358 -0.1296
63594W        W 6610  14.693   1.996   6.281  0.2229 -0.3224  0.1061
63595W        W 6611   3.592  20.442  20.429  0.0983 -0.1690 -0.2614
63596W        W 6612   9.529  13.739  14.939  0.1172 -0.0251 -0.1040
63597W        W 6613   7.351  19.610   3.856  0.4174  0.1149 -0.2674
63598W        W 6614  22.568  21.925  18.128  0.3580  0.1841 -0.0426
63599W        W 6615  11.501   3.939  15.204 -0.0075  0.0569 -0.0312
63600W        W 6616  12.019   1.957   0.184  0.1935 -0.0231 -0.0818
63601W        W 6617  24.340   9.556  27.758  0.2069 -0.0172  0.0440
63602W        W 6618  13.991  33.431  26.986 -0.0182 -0.0045 -0.0594
63603W        W 6619   0.937  25.876  16.972  0.0900 -0.2225  0.2138
63604W        W 6620  19.401  24.823  18.330  0.0904  0.0120 -0.2425
63605W        W 6621   8.764  12.063  19.184  0.1894  0.1719  0.2644
63606W        W 6622  12.624   0.290  20.781 -0.1152 -0.0360  0.1466
63607W        W 6623  14.456  32.850  26.468  0.2806  0.2168 -0.0020
63608W        W 6624  26.842  33.061  23.716 -0.2720 -0.1925 -0.0102
63609W        W 6625   4.545  23.473  27.370  0.1865 -0.0322  0.1869
63610W        W 6626  16.240  30.817  17.114  0.0401  0.1156 -0.2182
63611W        W 6627  19.692  28.413  15.396 -0.1308  0.1771  0.1268
63612W        W 6628  18.861  32.516   9.002  0.3401 -0.2408  0.3096
63613W        W 6629  29.962  10.377   9.525 -0.0980  0.0430  0.3794
63614W        W 6630  14.419  25.453  16.148  0.0870 -0.3389  0.0330
63615W        W 6631  33.893  34.366  28.626  0.0671 -0.2097 -0.1499
63616W        W 6632   7.548  29.389  14.883  0.1017  0.2756 -0.2554
63617W        W 6633   9.603  21.902  21.492  0.0237 -0.1248  0.0313
63618W        W 6634   0.261   0.360  17.384  0.1020 -0.0013  0.1636
63619W        W 6635  34.499  16.231  14.676 -0.1977 -0.0361  0.3750
63620W        W 6636  17.331  17.574  25.891 -0.1040 -0.1535  0.2335
63621W        W 6637  17.542  20.583  21.945 -0.0408  0.1036  0.4170
63622W        W 6638  25.724  18.231  14.351  0.0440 -0.0720  0.2302
63623W        W 6639   7.707   2.539  27.383  0.1845 -0.1238 -0.0225
63624W        W 6640  29.084  23.186  16.068 -0.0040  0.1088 -0.1469
63625W        W 6641  10.997  20.008  14.536 -0.0886 -0.1077  0.1395
63626W        W 6642  20.007  31.535  18.460 -0.0267 -0.0858 -0.1622
63627W        W 6643  34.271  10.641  16.374 -0.0809 -0.0162 -0.0294
63628W        W 6644  19.631  25.968  18.279 -0.0748 -0.0434  0.2233
63629W        W 6645   5.667  25.461   5.276  0.1110 -0.0591 -0.0208
63630W        W 6646  15.060  16.464  14.147  0.0914 -0.1378 -0.1287
63631W        W 6647   2.839   2.984  26.920  0.1485  0.2561  0.0620
63632W        W 6648  10.752  10.980  25.868 -0.4532 -0.0760 -0.0808
63633W        W 6649   9.167  19.594  19.794  0.0776  0.0445  0.3137
63634W        W 6650  11.684  16.445  22.354  0.0331  0.1218  0.1933
63635W        W 6651  17.877  20.872  13.695  0.0230 -0.1998  0.1117
63636W        W 6652   4.735  11.168   2.252  0.0946  0.1135 -0.3120
63637W        W 6653   9.225  17.432  19.474  0.2160 -0.2986  0.0652
63638W        W 6654   7.887   2.944   2.496 -0.0105 -0.2273 -0.0757
63639W        W 6655  25.099   3.797  23.636  0.0673  0.1809 -0.0915
63640W        W 6656   1.506  15.427   9.129 -0.0586  0.1610  0.1208
63641W        W 6657  17.367  13.457  21.082  0.1430  0.2214  0.0150
63642W        W 6658  24.653   9.307  15.703 -0.1882  0.0574  0.0482
63643W        W 6659  10.578  13.882  17.786 -0.0317  0.2496  0.0466
63644W        W 6660  34.364  17.588  24.217  0.5622  0.2038 -0.1047
63645W        W 6661   7.275  26.475  28.586  0.3123 -0.0367 -0.1668
63646W        W 6662  26.955  28.551   2.072 -0.2943 -0.1616 -0.1134
63647W        W 6663  20.643  20.273  22.470 -0.1012  0.1065  0.0913
63648W        W 6664  14.141  25.613  28.828  0.1454 -0.1290  0.3448
63649W        W 6665   5.830   2.360  27.981 -0.3088 -0.0102 -0.3523
63650W        W 6666   3.881  33.864  15.566 -0.3139 -0.0137 -0.1064
63651W        W 6667  12.373  28.581  16.029  0.1613 -0.3759 -0.0215
63652W        W 6668   7.606  31.982  16.046 -0.0062 -0.1146  0.2842
63653W        W 6669  14.341  26.967  24.449 -0.0741  0.1118 -0.0159
63654W        W 6670  28.262   5.866  22.328  0.0963  0.0733  0.0881
63655W        W 6671  11.438  27.338  20.311 -0.2710 -0.0402  0.3088
63656W        W 6672  23.438  27.889  24.638 -0.1272 -0.2062  0.1558
63657W        W 6673  15.355  33.961   3.396  0.1292  0.0645  0.1828
63658W        W 6674  14.269  12.027  15.084  0.1767  0.0464 -0.1388
63659W        W 6675   9.858  31.264  19.835  0.0310 -0.0625 -0.1588
63660W        W 6676   3.003  16.409  15.053 -0.0987 -0.2815  0.0144
63661W        W 6677   7.715  27.259  28.378 -0.4328 -0.2686  0.0541
63662W        W 6678  16.293  24.458  14.574 -0.0507  0.1770  0.2211
63663W        W 6679  17.207  30.254  21.866  0.2725  0.2972 -0.1579
63664W        W 6680   6.539  34.165   8.991  0.0088 -0.0739 -0.1112
63665W        W 6681   4.264  33.090  15.771  0.2848  0.0133  0.3200
63666W        W 6682  20.614  23.139  16.076  0.2113  0.2353  0.2213
63667W        W 6683  14.145   4.303  20.459 -0.0863  0.0448 -0.0554
63668W        W 6684  25.081  10.263  20.876 -0.0467  0.0845  0.1336
63669W        W 6685  29.109  22.897   6.908 -0.0435 -0.2708 -0.0247
63670W        W 6686  18.723  23.917  18.231 -0.0530  0.0469  0.1985
63671W        W 6687   4.290  15.038   2.007  0.0572  0.0997  0.0747
63672W        W 6688   9.471  29.408  24.287 -0.0324  0.0347  0.2375
63673W        W 6689  17.561  25.367  14.052 -0.1679  0.0482  0.2298
63674W        W 6690  22.386   0.775   2.072  0.0060  0.0263  0.0437
63675W        W 6691   6.246  22.583  16.557 -0.2444 -0.0267 -0.2893
63676W        W 6692  34.387  24.539  15.308 -0.0882  0.1572  0.2353
63677W        W 6693  25.254  25.665  20.571 -0.2064  0.1043  0.0164
63678W        W 6694  32.912  19.191  16.400 -0.0260  0.0398  0.1947
63679W        W 6695   0.743  31.814  21.219 -0.1108  0.1815  0.0813
63680W        W 6696   7.528   3.383  25.780 -0.0541 -0.0054 -0.2747
63681W        W 6697  13.305   0.969  22.539  0.1249 -0.0873 -0.1901
63682W        W 6698  12.234   4.841  20.769 -0.0281 -0.0472 -0.2433
63683W        W 6699  28.347  32.884  21.330  0.1347 -0.1787  0.1806
63684W        W 6700  28.256  28.026  26.767  0.0943  0.0028  0.0600
63685W        W 6701  27.251  28.050  16.406  0.1081 -0.2665 -0.0290
63686W        W 6702   1.934   5.186   5.489 -0.2194 -0.0749  0.2059
63687W        W 6703  19.159  22.597  19.238 -0.0307 -0.0700 -0.0198
63688W        W 6704  31.895   9.334  16.455 -0.0140 -0.0178 -0.0086
63689W        W 6705   8.325  25.646  25.772 -0.0688 -0.0702 -0.0346
63690W        W 6706  12.558  19.251  19.968 -0.4145  0.0763  0.0370
63691W        W 6707  18.353   5.139  19.364  0.2547  0.0164 -0.2565
63692W        W 6708  17.302  15.651  24.693 -0.1208  0.0330  0.1470
63693W        W 6709   1.449  15.241  16.823 -0.2363  0.0691  0.0606
63694W        W 6710   2.685  34.071  17.682 -0.1213  0.0579 -0.3744
63695W        W 6711   3.096  31.824  16.729  0.2000  0.2061  0.2402
63696W        W 6712   1.778  23.448  25.423  0.0726  0.0427  0.0759
63697W        W 6713   7.567  28.474  20.684  0.0763 -0.3527  0.2843
63698W        W 6714  15.937  22.786  13.080  0.0202 -0.2788  0.2284
63699W        W 6715  12.344  28.847  26.807 -0.2176  0.3877 -0.0373
63700W        W 6716  12.679  22.537  13.952 -0.1490  0.4499  0.1799
63701W        W 6717  20.349  26.446  17.367 -0.0406 -0.3597 -0.0887
63702W        W 6718  10.465   8.644   1.414  0.0495  0.0776  0.0284
63703W        W 6719  22.060   9.519  18.834 -0.1835  0.0864  0.0753
63704W        W 6720  24.318  30.380  23.226 -0.3163 -0.0963  0.1798
63705W        W 6721  11.707  31.084  19.160 -0.2781 -0.0075 -0.3856
63706W        W 6722  12.260  25.982  15.948  0.4189  0.1259  0.1989
63707W        W 6723  11.317  29.417  17.019  0.1182  0.2072  0.0240
63708W        W 6724   9.632  23.561  16.666  0.3582 -0.0892  0.2980
63709W        W 6725  11.087  12.943  17.547 -0.0023 -0.0636 -0.1650
63710W        W 6726  13.396   6.403  26.732 -0.2638 -0.2439 -0.3112
63711W        W 6727  15.661   0.782   9.604  0.0273 -0.1733 -0.0940
63712W        W 6728   1.939  22.528  19.736 -0.2081 -0.1849  0.2646
63713W        W 6729  33.970  34.457  15.111  0.0895 -0.2419  0.0367
63714W        W 6730   8.384  16.769  29.117  0.1685 -0.0448 -0.0076
63715W        W 6731  25.783  11.681  17.562 -0.1617 -0.2026  0.3126
63716W        W 6732   8.420   1.315   2.186  0.2131 -0.2646 -0.0989
63717W        W 6733   1.903  18.053  20.600  0.1023  0.0348 -0.1834
63718W        W 6734  17.264  28.141  16.246 -0.1096  0.2820  0.2038
63719W        W 6735  18.253  15.573  14.744  0.1544 -0.1014  0.0093
63720W        W 6736  16.806  27.235  25.562 -0.0756  0.0344 -0.0514
63721W        W 6737  18.403  22.353  15.210  0.2341  0.0997 -0.0689
63722W        W 6738  15.107  23.257  22.301 -0.4330 -0.1456  0.2408
63723W        W 6739  13.698   1.505  22.920 -0.0436  0.0456  0.1378
63724W        W 6740  32.175  27.559  19.724 -0.1468 -0.2793  0.0932
63725W        W 6741   7.222  16.235  16.185  0.1867 -0.1525  0.3587
63726W        W 6742   8.097  25.620  18.779  0.0127  0.0515  0.0440
63727W        W 6743   8.592  26.937   0.240 -0.2424 -0.2291 -0.0094
63728W        W 6744  18.869  14.740  19.731  0.2271  0.0030 -0.2593
63729W        W 6745  14.712  30.583   5.443  0.0970  0.0727 -0.2133
63730W        W 6746  19.626  21.534  20.129 -0.1050  0.4158 -0.1881
63731W        W 6747  25.940  26.847  19.419  0.2183  0.0179  0.3756
63732W        W 6748  21.659  22.333  18.589 -0.1166 -0.0371 -0.4513
63733W        W 6749  16.190  31.777  17.058 -0.2212  0.1074 -0.1214
63734W        W 6750  11.950  22.465  16.634  0.2367  0.2657  0.0952
63735W        W 6751  12.484  20.218  18.816  0.0936  0.2545 -0.1999
63736W        W 6752   3.232  11.504  15.633  0.1296  0.0288 -0.0028
63737W        W 6753  17.990  18.652  12.031  0.0267  0.0128 -0.1953
63738W        W 6754   4.897  28.562  18.140 -0.1163  0.3456 -0.0010
63739W        W 6755  11.322  17.690  14.221  0.0137 -0.0224  0.1819
63740W        W 6756  12.301  32.947  22.981  0.0647 -0.1418 -0.1334
63741W        W 6757   4.191  12.542   4.660 -0.0747  0.2912 -0.1288
63742W        W 6758  28.340   4.756  18.139  0.0214  0.2666  0.0612
63743W        W 6759  15.801  26.539  27.396 -0.1094 -0.0086 -0.2836
63744W        W 6760   1.485  18.104   3.987 -0.1581  0.2900 -0.0497
63745W        W 6761  16.829  27.346  15.220  0.0741 -0.0364  0.0643
63746W        W 6762   7.982  20.425  14.833 -0.1167  0.0787 -0.0943
63747W        W 6763   1.315   0.361  17.075  0.0835 -0.1560  0.0101
63748W        W 6764  15.958  28.561  22.678 -0.0473 -0.1524  0.0141
63749W        W 6765   7.678  21.930  18.254  0.0323 -0.0437 -0.1039
63750W        W 6766   6.786  11.708  14.120  0.1023 -0.0191 -0.0318
63751W        W 6767  26.419   0.336   0.187  0.0163  0.1062  0.1721
63752W        W 6768  13.482  17.785  26.363 -0.1819  0.1165 -0.0086
63753W        W 6769  32.487  28.392  16.172  0.0906 -0.1013  0.0302
63754W        W 6770  32.042   0.055  18.201 -0.1637 -0.1059 -0.2476
63755W        W 6771  15.602  21.407  20.454  0.0990 -0.0830 -0.0497
63756W        W 6772  13.214   0.563  21.284  0.3205 -0.2470 -0.0122
63757W        W 6773  22.515  14.606  24.202 -0.2266  0.0990 -0.3738
63758W        W 6774   3.581  20.068  25.259 -0.1638  0.0398  0.2816
63759W        W 6775  33.795  33.221  17.815  0.1661 -0.1799 -0.0380
63760W        W 6776  13.250  11.117  15.772 -0.1219 -0.1744  0.0790
63761W        W 6777  21.055  32.677  21.833 -0.0239 -0.0755  0.1228
63762W        W 6778  22.248  31.668  18.595  0.1951 -0.1893  0.0917
63763W        W 6779  26.481   0.403   2.052  0.1050  0.3377  0.0208
63764W        W 6780  26.737  21.338  25.004  0.0957 -0.1345 -0.3922
63765W        W 6781  14.170   8.422  13.607 -0.0064  0.4195  0.0565
63766W        W 6782  20.726  16.852  13.377 -0.0809 -0.1768  0.2461
63767W        W 6783  10.363  24.941  20.689  0.1754 -0.1735 -0.0416
63768W        W 6784  32.951  29.363  20.360  0.0997  0.1530 -0.1551
63769W        W 6785  20.237  27.647  17.002  0.0570  0.0134 -0.1628
63770W        W 6786  14.598  31.330  16.900 -0.2029  0.0153  0.1480
63771W        W 6787  21.248  13.476  14.661 -0.4082 -0.1302  0.0583
63772W        W 6788  13.367  19.213  12.195  0.0435 -0.0444 -0.2273
63773W        W 6789  17.418  29.048  17.373  0.0274  0.2183 -0.1173
63774W        W 6790  16.557  17.677  15.108  0.2519  0.0643  0.3084
63775W        W 6791  12.068  27.768  25.558  0.4444  0.0975  0.1792
63776W        W 6792  11.577  20.998  17.120 -0.1960  0.3539 -0.2373
63777W        W 6793  13.153  11.498  20.815 -0.1653  0.1293 -0.1522
63778W        W 6794  21.293   0.217  23.979 -0.0702  0.2055  0.2053
63779W        W 6795   7.758   0.289  26.001  0.0233 -0.1143 -0.1462
63780W        W 6796  14.604  24.596  12.846  0.0930  0.1873  0.2316
63781W        W 6797  18.513  10.121  19.872 -0.4056 -0.1180  0.2531
63782W        W 6798  32.378   5.231   3.605 -0.1200 -0.2545  0.2272
63783W        W 6799   1.946  24.305  17.652 -0.2010 -0.2228 -0.0677
63784W        W 6800  33.410  31.467  18.702 -0.0866 -0.1595 -0.2316
63785W        W 6801   4.190  32.160  19.482  0.1633  0.1100 -0.1535
63786W        W 6802  15.153  33.715  20.645  0.4037  0.3065 -0.0177
63787W        W 6803  33.948   2.740  16.200 -0.2139 -0.0273  0.3482
63788W        W 6804  21.195  31.763  20.255  0.0957  0.2148 -0.1810
63789W        W 6805  10.568  31.356  26.496  0.2625  0.1628  0.2792
63790W        W 6806  33.567  24.326  21.378  0.2833 -0.2433 -0.2716
63791W        W 6807  15.282  26.370  14.520 -0.4358 -0.0752  0.0921
63792W        W 6808   5.542  24.551  25.300 -0.2316 -0.0018  0.2047
63793W        W 6809   3.100   9.925  16.006  0.0676  0.0140 -0.2497
63794W        W 6810  14.508  19.610  24.289  0.3499 -0.3668  0.2951
63795W        W 6811  16.593  24.324  26.958 -0.1474  0.1764  0.1005
63796W        W 6812  19.727  31.464   1.317 -0.0388 -0.2939  0.1580
63797W        W 6813  33.843  16.842  27.106 -0.0574  0.1067  0.0736
63798W        W 6814  16.138  33.974  27.018  0.3813  0.0652 -0.0986
63799W        W 6815  16.536  29.747   2.348  0.0699 -0.0785  0.1527
63800W        W 6816  18.227  27.935  22.130  0.0437  0.0948 -0.1490
63801W        W 6817   8.230   5.140  23.424  0.0091  0.1497  0.3006
63802W        W 6818   4.277  26.264  14.364  0.2817 -0.1261 -0.1574
63803W        W 6819   6.709  33.286  20.420  0.2836  0.0003  0.1956
63804W        W 6820   5.478  32.153  14.905 -0.1329  0.1407 -0.0712
63805W        W 6821  14.053   2.820  22.990 -0.1317 -0.1883 -0.0460
63806W        W 6822  12.949  17.842  12.220 -0.0007  0.0602  0.0978
63807W        W 6823  13.202  31.401   3.966  0.2426  0.1454  0.0887
63808W        W 6824  11.404  18.582  27.603 -0.0808 -0.3683  0.2282
63809W        W 6825  22.643  31.948   4.873  0.1256 -0.0237 -0.3177
63810W        W 6826   5.187  18.784  23.153 -0.1910 -0.3711  0.1175
63811W        W 6827  20.306  19.649  23.935  0.4071 -0.0728  0.2195
63812W        W 6828  22.674  31.596  26.092  0.0238  0.1875 -0.1035
63813W        W 6829   4.976  18.611  15.117  0.0568  0.0558  0.1669
63814W        W 6830   2.626  20.007   0.978 -0.0313  0.1397 -0.2154
63815W        W 6831  25.612  30.086  20.668 -0.5936 -0.1141  0.1547
63816W        W 6832  27.875  19.979  18.699 -0.3318  0.1073 -0.2115
63817W        W 6833  28.745  23.146   3.291  0.0670 -0.0803  0.2456
63818W        W 6834  19.705   0.570  26.895  0.0955 -0.3003 -0.4009
63819W        W 6835  14.057  28.817  15.525  0.2150  0.1534 -0.0232
63820W        W 6836  20.028  16.764  12.713 -0.2120 -0.0761 -0.0594
63821W        W 6837   6.469  32.050  17.684 -0.3830  0.0361 -0.1107
63822W        W 6838   5.745   4.886   1.399 -0.0552  0.2348  0.0779
63823W        W 6839  11.179   1.050   0.026 -0.0421  0.1168 -0.3285
63824W        W 6840  11.199  27.732   4.730 -0.0251 -0.0339 -0.0856
63825W        W 6841   2.421  14.992  19.615  0.1709  0.3083 -0.0180
63826W        W 6842  20.739   4.689  15.186 -0.1071 -0.1180 -0.0990
63827W        W 6843  10.044  29.840  27.507  0.0254  0.0863  0.0626
63828W        W 6844  14.818  16.957  27.660  0.4615 -0.0097 -0.4170
63829W        W 6845  15.772   4.362  20.915  0.0959  0.0016  0.0621
63830W        W 6846  22.828  30.901  22.347 -0.4137 -0.0517  0.0650
63831W        W 6847   6.674   2.469  26.456 -0.3467 -0.0808  0.0956
63832W        W 6848  19.324  34.666  21.930  0.3443  0.1123 -0.4317
63833W        W 6849  12.128  22.171  22.004  0.0236  0.0542 -0.1436
63834W        W 6850  30.299  33.649  25.061 -0.0043  0.0845  0.1792
63835W        W 6851   7.215  31.016  16.021  0.0177 -0.0187  0.3758
63836W        W 6852  22.691  30.034  19.767  0.2414  0.1845  0.0843
63837W        W 6853  31.011   1.798  15.854 -0.0135 -0.4653  0.1137
63838W        W 6854  18.214  31.062  11.005  0.2399 -0.1803  0.1171
63839W        W 6855  21.535  32.778  21.152 -0.1536  0.1890  0.1954
63840W        W 6856  28.628  23.429  18.952 -0.1715  0.1328 -0.2451
63841W        W 6857   2.749   2.876  18.475 -0.0588 -0.2300 -0.0767
63842W        W 6858  16.085  25.488   0.615 -0.0743  0.2082  0.2068
63843W        W 6859  12.739  34.363  14.519  0.1531 -0.1450 -0.2362
63844W        W 6860  20.096  28.884  22.582  0.4897 -0.0141  0.4110
63845W        W 6861   0.551  33.414  24.385 -0.0321  0.1589 -0.1042
63846W        W 6862   6.547  29.986   5.079  0.1383  0.0437 -0.1547
63847W        W 6863   6.819   6.583   2.654 -0.0958  0.3453  0.1945
63848W        W 6864  30.699  31.225  18.578 -0.0082  0.0282 -0.2741
63849W        W 6865   5.319   6.361  18.047  0.0087 -0.1918  0.2150
63850W        W 6866  14.164  15.365  19.967 -0.4005 -0.2544  0.1378
63851W        W 6867   5.204   2.593   1.958  0.1357 -0.1729  0.1768
63852W        W 6868  33.724  31.625  20.140  0.1044 -0.0836  0.0589
63853W        W 6869  17.669  23.042  15.861 -0.0819 -0.1362 -0.1022
63854W        W 6870   8.628  27.222  13.653  0.0855  0.2253 -0.1673
63855W        W 6871  26.054  30.153  22.946  0.1527  0.3746 -0.1635
63856W        W 6872  17.055   5.925  17.260  0.0483 -0.1964  0.1002
63857W        W 6873  17.142   7.501  18.096 -0.2432 -0.1063  0.2600
63858W        W 6874   9.314  19.531  15.105  0.1150  0.1309  0.0665
63859W        W 6875   9.741   9.708  16.781 -0.1143  0.0182  0.1113
63860W        W 6876  29.243   0.668  22.618 -0.3458  0.1371 -0.1476
63861W        W 6877   9.808  27.487  16.677 -0.1448  0.0159 -0.1362
63862W        W 6878   3.709  13.609  15.824 -0.4970  0.1584  0.0185
63863W        W 6879  28.941  33.540  18.584  0.0244 -0.1419  0.0885
63864W        W 6880  32.034  13.135  18.063  0.1975  0.0439 -0.3565
63865W        W 6881   6.924  33.837   1.464 -0.0202  0.1340  0.3270
63866W        W 6882  23.543  15.352  26.858 -0.0211  0.1090 -0.1079
63867W        W 6883  11.073  20.604  20.066 -0.0344  0.1464 -0.1149
63868W        W 6884  31.577  27.667  15.818 -0.0630 -0.2605 -0.2854
63869W        W 6885  19.284  26.420  22.297  0.0329 -0.1676 -0.1402
63870W        W 6886  13.695  29.700  14.868 -0.1800 -0.0924  0.1359
63871W        W 6887  17.223  21.175  13.217  0.2880  0.2661 -0.2571
63872W        W 6888   6.270  19.053  20.583 -0.3856  0.0680 -0.0338
63873W        W 6889   9.148  14.994  23.780  0.4239  0.0736 -0.1037
63874W        W 6890  31.646  23.469  25.552  0.0590 -0.1594  0.1151
63875W        W 6891  22.033  26.700   0.503 -0.3990  0.2179  0.0028
63876W        W 6892   4.944  32.728  27.601 -0.1099 -0.1540  0.0954
63877W        W 6893   9.452  32.218  14.435  0.0877 -0.2320  0.0051
63878W        W 6894   3.127  21.792  16.796  0.2474 -0.2094  0.2781
63879W        W 6895  28.430   4.670  19.063  0.2832  0.1119  0.2173
63880W        W 6896   5.557  28.436  14.466 -0.1514 -0.0423  0.1750
63881W        W 6897  12.073  23.950  22.644 -0.2721  0.3067 -0.1984
63882W        W 6898   7.023  28.555   2.368 -0.2420  0.2172  0.1032
63883W        W 6899  18.867  24.114  26.054  0.0267 -0.1136 -0.1314
63884W        W 6900   1.907  22.819  15.708  0.5151  0.2247  0.2047
63885W        W 6901   5.499  13.034  19.750 -0.1812  0.0507  0.0511
63886W        W 6902  23.491  31.544  16.269 -0.2260  0.1858 -0.1006
63887W        W 6903  20.900  22.014  14.566 -0.0357 -0.1094  0.1716
63888W        W 6904  11.092  29.344  16.129 -0.2778 -0.3508 -0.1031
63889W        W 6905   9.967  32.165  19.835  0.2357  0.2497  0.2559
63890W        W 6906  16.693  30.408   5.446 -0.3689 -0.1474 -0.4690
63891W        W 6907  10.823   2.674   4.618 -0.1711 -0.2928  0.3486
63892W        W 6908  21.986  20.915  17.695 -0.0080  0.4469  0.1504
63893W        W 6909   9.367  34.153  25.145  0.0489  0.0585 -0.1281
63894W        W 6910  17.357   7.887  28.739  0.4213  0.1231 -0.2437
63895W        W 6911  19.607   0.195  15.448  0.0141 -0.0713  0.2496
63896W        W 6912  18.882   8.362  22.197  0.0396  0.0921 -0.2048
63897W        W 6913   6.942   7.305   0.785  0.0957 -0.0907  0.1012
63898W        W 6914  10.616   1.165  19.088  0.1382  0.0965 -0.0758
63899W        W 6915   9.701   9.903  22.289 -0.0718  0.0504  0.0309
63900W        W 6916  13.505  19.691   5.784 -0.1329 -0.1542  0.0871
63901W        W 6917   0.161   0.607  25.866 -0.0678 -0.3773 -0.1781
63902W        W 6918   1.584  22.562  14.831  0.1237  0.1926 -0.1678
63903W        W 6919  15.623  33.343  25.212  0.2886  0.1699  0.2677
63904W        W 6920   5.238  14.232  21.847  0.0951 -0.2966 -0.1284
63905W        W 6921  34.164  18.173   7.251  0.1242  0.2191  0.0496
63906W        W 6922  16.812  18.728  13.587 -0.3242  0.0988  0.3354
63907W        W 6923  13.778  29.032  25.231 -0.0603 -0.1468 -0.1310
63908W        W 6924  25.413  16.138  27.563 -0.0967 -0.3516 -0.2035
63909W        W 6925   6.713  30.501  15.332  0.0426  0.0124 -0.1369
63910W        W 6926  28.464  34.421  17.221  0.1646 -0.0005  0.1033
63911W        W 6927  22.186  19.029  23.360 -0.1911  0.4477  0.1053
63912W        W 6928  16.516  30.778  19.463  0.0228 -0.2153 -0.3024
63913W        W 6929  10.346  30.584  24.552  0.3775 -0.0971  0.0851
63914W        W 6930  32.504  24.220  27.518  0.2159 -0.1504  0.0744
63915W        W 6931   0.095   0.936   6.689 -0.0879 -0.0726  0.1242
63916W        W 6932  21.077  17.281  27.564 -0.0365  0.0383 -0.0884
63917W        W 6933  31.446  24.150  23.234  0.1300  0.2844  0.2749
63918W        W 6934   6.136  26.645  21.426 -0.1445  0.1422 -0.1378
63919W        W 6935   1.200  11.665  28.076  0.0318 -0.4198  0.4126
63920W        W 6936   7.660  29.095  15.371  0.0104 -0.3698 -0.0800
63921W        W 6937   9.100  24.579  21.399 -0.2601  0.2589  0.0095
63922W        W 6938  16.130  10.183  15.645 -0.1843  0.0548 -0.0314
63923W        W 6939   7.109  11.710  19.072 -0.2702  0.1530  0.3986
63924W        W 6940  22.741  29.567  25.712  0.0309  0.0110 -0.2824
63925W        W 6941  19.924   8.368  15.871  0.0439  0.2999  0.0889
63926W        W 6942   3.187   0.020  17.252  0.1123  0.2971 -0.0656
63927W        W 6943  20.516  28.980  15.668 -0.2800 -0.2224 -0.0799
63928W        W 6944  24.329   4.764  19.474  0.0480 -0.0936 -0.1638
63929W        W 6945  28.679  21.067  20.460  0.3954  0.2660  0.3206
63930W        W 6946   7.275  14.769  15.239  0.2877 -0.1366 -0.1975
63931W        W 6947  31.584   6.785  27.765  0.0637 -0.0879  0.2908
63932W        W 6948   7.414  17.012  12.863  0.0391 -0.3569 -0.2368
63933W        W 6949   2.183  13.925  15.447  0.3601  0.2272 -0.0934
63934W        W 6950  17.966  24.724  16.916  0.0824  0.2245  0.1561
63935W        W 6951  10.422  21.960  21.237  0.2021  0.0169 -0.0250
63936W        W 6952   9.662  18.119  28.473  0.1278 -0.0978  0.1523
63937W        W 6953   4.863   8.519  25.725 -0.1889 -0.2491  0.0662
63938W        W 6954  19.773  25.229  21.237 -0.1524 -0.1130  0.0093
63939W        W 6955   5.841  34.134  17.247  0.1579 -0.1411 -0.1209
63940W        W 6956  15.924  25.352  17.769 -0.0960 -0.0559  0.2061
63941W        W 6957  21.936  27.287  20.348  0.1565 -0.0499  0.2673
63942W        W 6958  15.876  22.514   4.883  0.1702  0.1079  0.1364
63943W        W 6959  11.825  16.647  21.824 -0.0259  0.0529 -0.3584
63944W        W 6960  20.652  17.422  20.150 -0.0947  0.0873 -0.1425
63945W        W 6961  23.228  31.857  22.397 -0.1782 -0.3131 -0.1116
63946W        W 6962   8.082  15.305   5.115 -0.0163 -0.1116 -0.1121
63947W        W 6963  22.106  14.752  29.174  0.0233  0.0791  0.0616
63948W        W 6964  23.683  22.302  15.155 -0.1808  0.3576 -0.1602
63949W        W 6965  13.630  32.332  24.115  0.1097 -0.1544  0.0011
63950W        W 6966   2.199  29.074  16.874  0.2451 -0.0968 -0.0752
63951W        W 6967  17.051  28.776  16.672 -0.0449 -0.2347  0.0403
63952W        W 6968   7.883   7.971   3.502  0.0953  0.2588  0.2122
63953W        W 6969  19.500  31.969  17.514  0.1831  0.0970  0.1950
63954W        W 6970  31.153  13.872  19.282  0.0073 -0.0766  0.0603
63955W        W 6971  34.452  13.491  22.112 -0.1626 -0.0654  0.2332
63956W        W 6972  13.534  31.711  16.522 -0.1617  0.3402 -0.1814
63957W        W 6973  24.934  26.467  27.495 -0.1840  0.1389  0.1424
63958W        W 6974   7.660  18.121  14.570 -0.3243 -0.1299 -0.0584
63959W        W 6975   3.815  24.784  24.862 -0.0828  0.0805  0.1276
63960W        W 6976  32.535  20.903  19.471  0.2485  0.0320 -0.2238
63961W        W 6977  15.687  27.188  16.087 -0.2845  0.1711 -0.0574
63962W        W 6978   2.324   4.304  23.409 -0.2294 -0.1465  0.0319
63963W        W 6979  16.635  24.692   0.270  0.0556 -0.0429 -0.1008
63964W        W 6980   1.171  12.373   3.163 -0.0150 -0.2737  0.1107
63965W        W 6981  11.291  22.277  21.955 -0.1227  0.0019  0.0277
63966W        W 6982  10.908   6.070   3.188 -0.0463 -0.0488  0.1849
63967W        W 6983   7.978   4.415   5.330 -0.0270  0.2377 -0.0800
63968W        W 6984   5.994  19.888   3.576  0.0937  0.0467  0.0443
63969W        W 6985  33.588   2.208  15.038 -0.2856  0.0018 -0.0059
63970W        W 6986   8.011  21.482  21.350 -0.2172 -0.0322  0.1374
63971W        W 6987  32.931  28.460  25.148 -0.1504 -0.0463  0.1174
63972W        W 6988  15.379  28.154  19.663 -0.0367 -0.1426  0.0647
63973W        W 6989   9.121  33.535   1.905  0.0035  0.0750 -0.5084
63974W        W 6990  13.949  25.401  29.282  0.0218  0.0485  0.1577
63975W        W 6991  13.911  26.818  17.335 -0.0879  0.1282 -0.2056
63976W        W 6992   8.881  27.724  17.497 -0.0467 -0.2980 -0.0719
63977W        W 6993   3.380   5.313  21.776  0.1854  0.0491  0.0703
63978W        W 6994  13.321  27.137  21.384  0.0807  0.2041  0.0442
63979W        W 6995  18.436  23.627  21.768 -0.0759 -0.1582 -0.2580
63980W        W 6996  10.553  14.765  23.101 -0.0486 -0.0931  0.1154
63981W        W 6997   4.605  30.184   0.435 -0.1202  0.3572 -0.2577
63982W        W 6998   1.807  30.262  17.348  0.3388 -0.0621 -0.0463
63983W        W 6999  14.394  24.389  26.799 -0.0464  0.2353 -0.2914
63984W        W 7000  11.280   7.093   1.181  0.0766  0.2846 -0.0771
63985W        W 7001   8.390  20.131  14.485  0.1868 -0.1557  0.4689
63986W        W 7002  27.272   6.463  23.503 -0.1587 -0.0820  0.0461
63987W        W 7003  17.668  27.637  18.348 -0.1357 -0.4568 -0.1930
63988W        W 7004   0.779  26.443  10.567  0.2508  0.1035  0.2599
63989W        W 7005   2.686  26.796  18.609 -0.0930  0.0158 -0.1527
63990W        W 7006  20.752  26.900  16.193  0.0374 -0.1754  0.0316
63991W        W 7007  15.198   0.197  19.926  0.3178  0.0084 -0.2285
63992W        W 7008  15.727  27.933   7.955  0.0931 -0.2224 -0.2161
63993W        W 7009  29.804  20.806  17.165 -0.1605  0.3698  0.0982
63994W        W 7010   1.611  24.642  17.884 -0.3560  0.0787 -0.0653
63995W        W 7011  11.295  26.434  19.718  0.0073  0.3404 -0.1215
63996W        W 7012  17.315  17.687  24.514 -0.0827 -0.1564  0.1367
63997W        W 7013  26.047  14.610  18.172 -0.0900 -0.0373 -0.1413
63998W        W 7014   6.950   3.809  10.612  0.3406  0.0554 -0.1733
63999W        W 7015   8.011  11.645  15.250  0.1295  0.1998  0.1946
64000W        W 7016   8.556  30.068  22.628  0.0393 -0.0154  0.0507
64001W        W 7017   0.305  25.596  23.961  0.2125 -0.4584 -0.0193
64002W        W 7018  13.665   2.033  14.695  0.2132  0.1421 -0.1445
64003W        W 7019  11.281   0.941  20.267 -0.0237 -0.0576 -0.0287
64004W        W 7020   9.523  20.921  28.887 -0.1054  0.1125 -0.0352
64005W        W 7021  17.695   3.861  18.258  0.1308 -0.1159 -0.0122
64006W        W 7022  13.460  28.598  17.527 -0.0716 -0.0514 -0.0134
64007W        W 7023   0.692  30.528  16.787 -0.1806  0.4076  0.2941
64008W        W 7024   7.171   8.679  21.825  0.1667  0.2182 -0.0579
64009W        W 7025  23.645  31.577  22.589  0.1365  0.0214  0.2092
64010W        W 7026  32.411  21.716  20.719 -0.1703 -0.0223 -0.0588
64011W        W 7027  13.020  32.226  19.434 -0.0972  0.2941  0.1383
64012W        W 7028  11.227   1.036  23.777  0.3215 -0.2695 -0.2639
64013W        W 7029  32.316  13.587  10.772  0.0541 -0.1009 -0.2972
64014W        W 7030  23.363  27.953  18.143 -0.1298 -0.2165  0.3962
64015W        W 7031  15.478  30.053  18.208  0.4810  0.0686 -0.0268
64016W        W 7032   5.970  24.249   3.556  0.1140 -0.3431  0.3104
64017W        W 7033  19.411  28.771  24.100 -0.0643 -0.1498  0.1673
64018W        W 7034   2.996  28.587   0.558  0.0502 -0.0904 -0.0559
64019W        W 7035   6.444  34.187  14.778  0.0096 -0.2715 -0.2306
64020W        W 7036  31.217  29.620  23.998 -0.2565  0.3120  0.1917
64021W        W 7037  18.050   3.249  25.783  0.1493  0.0442 -0.2552
64022W        W 7038  12.472  32.902  19.749 -0.1937  0.1784  0.0767
64023W        W 7039  26.014  13.058  27.414  0.1642  0.0320  0.2822
64024W        W 7040   2.549  33.449  17.571  0.0267 -0.4581 -0.0493
64025W        W 7041  32.657   2.084  23.234 -0.1875  0.0418 -0.1893
64026W        W 7042   1.909   8.236  27.603  0.5069  0.1026 -0.0246
64027W        W 7043  10.925  29.047  19.507 -0.1601 -0.0183  0.0336
64028W        W 7044  15.588  25.662  26.713  0.0879  0.0823  0.1283
64029W        W 7045  15.183   2.795  28.439  0.0334 -0.1612 -0.2358
64030W        W 7046  18.205  28.555  17.398  0.2055 -0.2477 -0.2710
64031W        W 7047  17.099  20.756  11.578 -0.0674 -0.2594 -0.1301
64032W        W 7048   1.812  14.107  15.252 -0.3675 -0.0123  0.0384
64033W        W 7049  19.226  23.687  27.928 -0.0211  0.0849 -0.2466
64034W        W 7050  29.150  23.343  27.591  0.1331 -0.3683  0.0824
64035W        W 7051  32.541  25.498  28.498  0.0716  0.1532 -0.1335
64036W        W 7052  12.948  30.829  26.694  0.0723  0.0644 -0.2218
64037W        W 7053  10.771  17.855  16.178  0.0649  0.0444 -0.1965
64038W        W 7054   3.858   3.550  29.263 -0.0583 -0.0707 -0.2504
64039W        W 7055  11.382  24.751  16.395  0.1297  0.3066 -0.0697
64040W        W 7056  21.022  34.595  19.783 -0.0406 -0.0385 -0.2203
64041W        W 7057  14.887  17.240  11.866  0.2070  0.0055 -0.0359
64042W        W 7058   2.318  12.799  16.508 -0.1045  0.0117 -0.1824
64043W        W 7059   3.547  28.363  19.645  0.0799 -0.0702 -0.0492
64044W        W 7060  21.676   8.990  16.725  0.0086 -0.2835  0.1029
64045W        W 7061   7.969  34.413  20.469  0.1434  0.1251 -0.1939
64046W        W 7062  24.472  31.260  24.041  0.1546 -0.3096  0.4348
64047W        W 7063  34.034   8.860   8.303  0.0458  0.2855  0.4433
64048W        W 7064  22.825   4.771  21.152 -0.3665  0.0828 -0.3130
64049W        W 7065  32.464  23.496   5.668 -0.3568  0.0661  0.0616
64050W        W 7066  14.968   8.647   3.835  0.1326 -0.0112 -0.1488
64051W        W 7067   1.145  18.812  27.604  0.1188 -0.0798 -0.0857
64052W        W 7068  33.962  23.461   0.709  0.0482 -0.0628  0.1110
64053W        W 7069  16.104  32.871  15.198 -0.2516  0.0493 -0.0529
64054W        W 7070  18.837  33.458   8.949 -0.0161 -0.0926 -0.1357
64055W        W 7071  27.558   1.369  16.721 -0.1512  0.1619 -0.0678
64056W        W 7072   8.495   2.141   0.321  0.0114 -0.1406 -0.2799
64057W        W 7073  14.381  34.676  21.419  0.0261 -0.0484 -0.4514
64058W        W 7074  25.281   5.332   0.110 -0.0116 -0.0702 -0.1389
64059W        W 7075  26.710   0.489  21.286 -0.1351  0.2396 -0.0127
64060W        W 7076  18.790  30.873   8.012 -0.1957  0.4013  0.1269
64061W        W 7077  11.548  28.609  15.904 -0.0068 -0.3117 -0.2863
64062W        W 7078  18.284  24.887  16.425  0.0471  0.3603  0.1756
64063W        W 7079  23.157  14.216   3.942  0.1437  0.1389 -0.1564
64064W        W 7080   9.127  29.522  27.810 -0.1743 -0.4361 -0.0807
64065W        W 7081   1.288  17.991  15.699  0.0078  0.1585 -0.3364
64066W        W 7082   3.570  26.085  19.864 -0.0349  0.2322  0.0169
64067W        W 7083   3.487  18.641  27.578  0.0992  0.0803  0.2286
64068W        W 7084  15.965   0.315  21.035 -0.0635  0.0693  0.0605
64069W        W 7085  15.085  29.266   0.600  0.0623  0.1700 -0.1557
64070W        W 7086  22.089  17.134  16.514 -0.0436  0.0048 -0.3272
64071W        W 7087   9.389  29.211  15.584 -0.0731  0.0696  0.0991
64072W        W 7088   4.640  20.398   2.675 -0.2509 -0.1625  0.0396
64073W        W 7089  18.984  33.020  15.415  0.2146  0.0240  0.0063
64074W        W 7090   6.747  28.164  26.511  0.0211 -0.0978  0.1076
64075W        W 7091  34.577  33.124  17.204  0.1121 -0.0374  0.0055
64076W        W 7092  26.410  30.108  25.235 -0.0763 -0.3545 -0.1684
64077W        W 7093   8.647  12.851  16.104 -0.4828 -0.3222  0.1366
64078W        W 7094  13.800  23.782  15.637 -0.2650 -0.0226  0.0568
64079W        W 7095   9.396   4.514   0.668  0.1222  0.1745  0.1696
64080W        W 7096  10.724  21.568   3.215 -0.1500 -0.0553  0.2024
64081W        W 7097   7.944  34.079   0.715 -0.0116 -0.1755  0.0665
64082W        W 7098  34.065  24.460  17.614  0.1359 -0.0853 -0.1607
64083W        W 7099  16.148  23.477  26.093 -0.0234 -0.3266 -0.2951
64084W        W 7100  23.332  17.403  16.053 -0.1070  0.0314  0.1261
64085W        W 7101  20.947   6.557  25.086 -0.2345  0.3415  0.0289
64086W        W 7102  25.285  29.982   9.201  0.1605 -0.0214 -0.0695
64087W        W 7103   6.942  22.539  27.676  0.2269  0.0860 -0.2376
64088W        W 7104  17.234  27.048  22.062 -0.2347 -0.1844 -0.0174
64089W        W 7105  13.818  34.201  18.366 -0.0979  0.1043 -0.2967
64090W        W 7106  33.075  32.053  24.800  0.0491 -0.1223  0.1841
64091W        W 7107  14.212   9.893  29.302 -0.1300 -0.0022  0.0490
64092W        W 7108  10.570  33.346   3.744  0.0611 -0.1686 -0.0222
64093W        W 7109  30.199   9.412  20.184  0.2841  0.0887 -0.0303
64094W        W 7110  14.003  31.281  21.141  0.2245 -0.0991  0.1513
64095W        W 7111  12.988  21.511  14.292  0.0446  0.1140  0.3332
64096W        W 7112   6.874   3.020   3.290 -0.1262 -0.1657 -0.1861
64097W        W 7113  19.746  23.510  16.705  0.2753 -0.3094 -0.1368
64098W        W 7114  18.341  28.318  26.880  0.2042 -0.1260  0.0528
64099W        W 7115  12.536  31.533  13.805 -0.1492  0.0251 -0.3356
64100W        W 7116  29.952  30.131  18.756  0.3145 -0.0215  0.2027
64101W        W 7117  23.208  29.100  18.513 -0.2266  0.0242 -0.0639
64102W        W 7118  14.223   3.081  23.406 -0.2899 -0.1895  0.2711
64103W        W 7119  21.478  24.379  14.765  0.0394 -0.0513  0.1418
64104W        W 7120   7.274  14.930  18.872 -0.0282 -0.0617  0.1393
64105W        W 7121  15.964  25.135  19.526 -0.1717 -0.2222  0.0163
64106W        W 7122  26.574  28.054  23.576  0.2897 -0.3297  0.3389
64107W        W 7123  22.257  34.295  16.109 -0.2396  0.1377  0.2437
64108W        W 7124  18.165   7.719  22.708 -0.0353  0.0778 -0.1702
64109W        W 7125  15.656   2.871  23.885 -0.0813  0.2415  0.0124
64110W        W 7126  15.868  30.086  19.835  0.1306  0.0236  0.1479
64111W        W 7127   1.268  31.112  20.182  0.0854 -0.2398  0.0892
64112W        W 7128  10.582  28.131  25.491  0.2095  0.0674  0.1899
64113W        W 7129  15.903  10.895  17.784 -0.1827  0.0140 -0.3973
64114W        W 7130   6.506  24.104  15.656  0.3450 -0.0449  0.3976
64115W        W 7131   5.885  25.663   0.510  0.0974 -0.1258 -0.2044
64116W        W 7132  34.162  17.830  18.064 -0.0138 -0.1637 -0.0588
64117W        W 7133  31.758  10.282  27.246  0.1255  0.2055  0.2771
64118W        W 7134   9.604  28.533  20.786  0.0342 -0.0173 -0.0779
64119W        W 7135   1.913  30.450  16.129  0.0619  0.0511 -0.1898
64120W        W 7136   2.478   6.064  26.048 -0.1054  0.0789  0.0320
64121W        W 7137  23.780  12.803  19.226 -0.0031 -0.1835 -0.1324
64122W        W 7138  16.739  18.428  20.615 -0.1206  0.0122 -0.3179
64123W        W 7139   2.623  27.364  19.297  0.0502 -0.4159 -0.1142
64124W        W 7140  13.469  14.426   6.967  0.1055  0.2812  0.1271
64125W        W 7141  24.382   0.200  23.292 -0.2650  0.2940  0.0325
64126W        W 7142   6.532   2.724  23.986  0.1373 -0.0043 -0.2159
64127W        W 7143  30.780   9.144  19.462  0.0402 -0.1476 -0.0489
64128W        W 7144  14.294  30.405  27.803  0.0124  0.1634 -0.0364
64129W        W 7145  12.083   1.877  24.837  0.0294 -0.1616 -0.1215
64130W        W 7146  23.268   2.568  16.171  0.0246 -0.2538 -0.0150
64131W        W 7147  29.651  27.345  16.479 -0.1655 -0.1806  0.1121
64132W        W 7148  34.730  28.909  22.297  0.0842 -0.1899  0.0567
64133W        W 7149  12.016  15.053  17.361 -0.1634  0.2325 -0.5342
64134W        W 7150  11.365  31.443  28.161  0.2026 -0.0142 -0.0973
64135W        W 7151  21.636  21.627  15.599  0.0876  0.1637 -0.2985
64136W        W 7152  21.100   9.708  24.157  0.2346  0.0960 -0.3516
64137W        W 7153   5.774  25.024  19.505  0.2336  0.2788  0.2446
64138W        W 7154  16.501   2.151  21.297 -0.1514 -0.2017 -0.0091
64139W        W 7155  14.549  31.781  29.151 -0.0775  0.0718 -0.1412
64140W        W 7156  11.457  18.967  22.782 -0.1317  0.5938  0.0642
64141W        W 7157  33.580  18.835  18.974  0.1233  0.0729  0.0471
64142W        W 7158  22.310  21.712  24.450 -0.0781 -0.0728  0.0831
64143W        W 7159  30.511  26.148  28.695 -0.0193  0.0465  0.5316
64144W        W 7160  13.512  33.514  16.558  0.0795 -0.1801 -0.0886
64145W        W 7161  30.648  26.040   5.898  0.1592 -0.1511  0.1898
64146W        W 7162  14.546   6.699  17.051  0.0591 -0.0424  0.1093
64147W        W 7163  23.511  23.274  26.245 -0.1211 -0.0054 -0.2666
64148W        W 7164  16.118  16.927  13.917  0.1073  0.2969  0.0863
64149W        W 7165  10.851   8.508  16.046  0.0026 -0.1683  0.0132
64150W        W 7166   7.140  18.909  25.639 -0.1318 -0.0358  0.2605
64151W        W 7167  10.861   0.698   0.267  0.1129 -0.1391  0.1806
64152W        W 7168  30.859   5.139  24.968  0.0271 -0.1126  0.0091
64153W        W 7169   2.519  10.155   6.670  0.0254  0.2837 -0.1465
64154W        W 7170   7.386   4.253  23.882 -0.0257 -0.0153  0.3482
64155W        W 7171  25.812  23.933  24.136  0.2706  0.1508  0.0615
64156W        W 7172   7.066  28.893  15.605  0.3425 -0.1535 -0.3045
64157W        W 7173  22.134  26.792  18.915 -0.1835  0.0399 -0.2816
64158W        W 7174  18.426  21.784   0.175  0.0626  0.2412 -0.4209
64159W        W 7175  24.269  31.699  17.697  0.1414  0.0244 -0.0829
64160W        W 7176  24.577  16.632  16.184  0.1576  0.0109  0.0416
64161W        W 7177  12.933   0.543  19.088  0.2206 -0.0046  0.4112
64162W        W 7178  21.226  32.359  22.927  0.2849  0.0170 -0.1391
64163W        W 7179  18.977  27.306  18.030 -0.2747 -0.1836  0.2936
64164W        W 7180   6.623  27.599  17.815 -0.2664  0.0366 -0.1386
64165W        W 7181  25.372  22.393  20.862  0.1411 -0.0793 -0.0819
64166W        W 7182  12.691   4.286  20.034 -0.2109 -0.3727  0.1513
64167W        W 7183  24.129  27.432  10.037  0.1565 -0.3795 -0.0916
64168W        W 7184  14.882   2.472  15.755 -0.1166 -0.0034 -0.2148
64169W        W 7185  10.088  33.923  24.296  0.0866  0.3022 -0.0689
64170W        W 7186  13.268  27.613  19.284  0.1279  0.1386 -0.0238
64171W        W 7187  16.425   8.741  28.255  0.0550  0.4349  0.3074
64172W        W 7188   0.180  30.354  24.323 -0.0535  0.3230 -0.3938
64173W        W 7189  13.211  29.116  16.293  0.2393  0.0336 -0.1386
64174W        W 7190  12.876  27.822   1.089  0.0051  0.0295  0.0218
64175W        W 7191  19.958  25.447  17.478  0.0782  0.1251 -0.0361
64176W        W 7192  24.094  30.455  22.650 -0.0249 -0.3198 -0.0977
64177W        W 7193   9.538  29.751   0.908 -0.2174 -0.1572 -0.0333
64178W        W 7194  20.960  23.762   1.489  0.2471 -0.1762  0.0987
64179W        W 7195  21.666   7.555  18.035 -0.0049 -0.1496 -0.1960
64180W        W 7196  20.207   0.481  16.409  0.0133  0.0053 -0.2933
64181W        W 7197   5.092   6.272   9.220  0.0548 -0.0126  0.0903
64182W        W 7198  16.471  30.821   7.168  0.2724  0.0871 -0.2417
64183W        W 7199   5.317  21.929  20.328  0.2421 -0.3102 -0.0889
64184W        W 7200  20.622  10.761  17.611 -0.0452  0.0805 -0.3576
64185W        W 7201   5.869  30.999  23.664  0.1210 -0.2544  0.2818
64186W        W 7202   0.730  28.356   9.321 -0.2688 -0.0126 -0.0430
64187W        W 7203   1.199  30.428  27.939  0.0276 -0.2797 -0.1823
64188W        W 7204  32.264  19.917  25.355  0.6538  0.2763  0.0487
64189W        W 7205  28.572   6.852   1.545  0.0683 -0.0402 -0.1984
64190W        W 7206  18.151   0.606  22.543 -0.0286 -0.1369 -0.1489
64191W        W 7207  21.063  22.045  21.462  0.1112 -0.1874 -0.1771
64192W        W 7208   5.765  19.122   8.678 -0.1389 -0.1940  0.0824
64193W        W 7209  34.615   6.763  17.020  0.3027  0.1406  0.1990
64194W        W 7210  10.160   6.302  18.526  0.5712 -0.0214  0.0941
64195W        W 7211  10.526  19.057  21.686 -0.2446  0.2899 -0.0931
64196W        W 7212  14.285  23.915  21.304  0.0448  0.0666 -0.0395
64197W        W 7213  18.286   7.576  16.426  0.1022  0.2295  0.0341
64198W        W 7214   2.013   4.051  24.385 -0.0983 -0.1733 -0.0221
64199W        W 7215  17.035  28.860  19.757  0.3908 -0.3070  0.1065
64200W        W 7216   3.463  33.037  28.830  0.1135 -0.0316  0.0316
64201W        W 7217  16.852  21.227  22.861  0.0487  0.4643  0.0067
64202W        W 7218  24.882  29.770  16.782  0.0250 -0.1283  0.2238
64203W        W 7219  25.263  22.991  15.608 -0.2233 -0.1975 -0.1206
64204W        W 7220  21.774  19.028  20.006 -0.0128 -0.3233 -0.3674
64205W        W 7221   1.756  27.966  23.816  0.2173 -0.0183  0.2113
64206W        W 7222  19.020   5.144  25.476  0.0191 -0.0847 -0.0926
64207W        W 7223  18.791  24.658  23.788  0.0277 -0.0324 -0.1589
64208W        W 7224   6.590  30.580  26.515  0.1047 -0.2799  0.0361
64209W        W 7225  13.381  13.035  13.299  0.2173  0.1224 -0.0999
64210W        W 7226   8.903  30.132  28.944 -0.0847  0.0037  0.2151
64211W        W 7227  28.071  31.317   6.303  0.1253 -0.1350  0.2841
64212W        W 7228   1.668  11.009  19.618  0.1014  0.0183  0.0869
64213W        W 7229   7.530  15.160  17.140 -0.0708  0.0802 -0.1572
64214W        W 7230  24.266  25.890   0.006 -0.1262 -0.1314 -0.1199
64215W        W 7231   1.492  23.517  21.484 -0.2848 -0.2825 -0.1297
64216W        W 7232   5.983   0.853   5.697 -0.0439  0.1530 -0.2026
64217W        W 7233  12.230  19.918  12.590  0.1439  0.2015  0.1355
64218W        W 7234  10.394  18.690  16.839  0.0879 -0.1874  0.0897
64219W        W 7235  17.564  29.747  21.045  0.3193 -0.0586  0.1911
64220W        W 7236  18.520   8.082  22.852  0.1287 -0.1044  0.2315
64221W        W 7237  15.899   0.051  17.396  0.0973 -0.0229 -0.1089
64222W        W 7238   7.425   5.123  25.964 -0.2898 -0.1391 -0.1486
64223W        W 7239  14.296  22.569  24.439  0.1691 -0.2175  0.1852
64224W        W 7240  12.347  26.390  25.686 -0.0791 -0.1179 -0.0134
64225W        W 7241   4.892  30.175   5.675  0.0339 -0.2508  0.2037
64226W        W 7242  28.281  24.132  28.310  0.1334 -0.0710 -0.2492
64227W        W 7243  13.427  33.106  28.271 -0.2363  0.2236  0.0015
64228W        W 7244   8.450  14.937  27.110 -0.2056  0.0323 -0.0476
64229W        W 7245  18.919   2.742   5.924 -0.2169 -0.0144 -0.2255
64230W        W 7246  21.632   7.342  19.602  0.2103  0.0653 -0.1259
64231W        W 7247  14.699  29.425  14.897  0.0966  0.1971  0.0057
64232W        W 7248  23.116  25.097  17.393 -0.1551 -0.2606 -0.0266
64233W        W 7249   9.709  20.522  13.057  0.1603 -0.1858 -0.0553
64234W        W 7250   6.404   3.161  22.294 -0.1373  0.0753 -0.0645
64235W        W 7251   1.007  27.477  15.420  0.1884  0.1855  0.3931
64236W        W 7252  16.224   4.907  13.756  0.0611  0.1687 -0.0938
64237W        W 7253   4.617  31.798   0.662 -0.0735  0.4235 -0.0528
64238W        W 7254   4.490  34.075  14.536  0.0790 -0.0634 -0.2944
64239W        W 7255  25.268  29.001  26.416  0.5262 -0.2191 -0.0605
64240W        W 7256  24.715  29.234  23.010  0.1267 -0.0858 -0.1731
64241W        W 7257  34.227  23.941  27.858 -0.0752  0.1607  0.2880
64242W        W 7258  16.779  24.885  27.839 -0.0763  0.0329  0.2156
64243W        W 7259  12.942  23.379  25.215 -0.1890 -0.0616  0.2187
64244W        W 7260  23.225  29.125  17.575  0.1691 -0.2908  0.2822
64245W        W 7261  10.060  10.126  16.929  0.0305  0.1401 -0.0862
64246W        W 7262  13.268  14.933   6.917 -0.2615 -0.0263 -0.0121
64247W        W 7263  29.758   6.647   0.689 -0.2903 -0.3214  0.3421
64248W        W 7264  23.605   5.820  20.695 -0.3972 -0.0933  0.2649
64249W        W 7265  13.531  22.062  13.749 -0.0986 -0.2982 -0.1478
64250W        W 7266   9.198  32.523  28.129  0.0516 -0.3238  0.1617
64251W        W 7267  12.129  33.946  20.239 -0.0446  0.1018  0.1111
64252W        W 7268  16.326   6.127  14.507  0.2443  0.1147 -0.0981
64253W        W 7269  14.243  19.557   6.858 -0.1052  0.1346 -0.0262
64254W        W 7270   1.436  25.568  22.741 -0.0571 -0.1832 -0.4034
64255W        W 7271  15.295  18.099  11.778 -0.0772  0.4277  0.1932
64256W        W 7272  18.189  26.924  17.924 -0.3866  0.1813  0.1044
64257W        W 7273   7.727  28.586  25.336  0.1269  0.2454  0.0203
64258W        W 7274  28.481   4.004  26.562  0.0623 -0.4658 -0.1767
64259W        W 7275  20.801  29.305  26.014 -0.2200  0.0557  0.1917
64260W        W 7276  30.657  21.481  10.910 -0.0987 -0.2119 -0.0334
64261W        W 7277  23.998  23.716  20.282  0.1359  0.0898 -0.0830
64262W        W 7278   9.433   4.548  26.838  0.0633  0.1767  0.0538
64263W        W 7279   8.344  32.208   8.258  0.3010 -0.1533  0.2387
64264W        W 7280   4.240  28.679  16.203 -0.1467  0.0837  0.1912
64265W        W 7281  27.911  27.060   4.193  0.1116 -0.1290  0.1100
64266W        W 7282  22.999   1.874  23.952  0.1138 -0.2680  0.1243
64267W        W 7283  11.300  29.238  14.648  0.0018  0.0113 -0.2573
64268W        W 7284   3.182  33.735   9.171  0.0007 -0.1142  0.2179
64269W        W 7285  19.693  28.367  26.532 -0.1847 -0.2431  0.1641
64270W        W 7286   8.214  16.893  15.657 -0.0487  0.0755 -0.0865
64271W        W 7287   4.750   0.754  14.595  0.5584 -0.0405  0.1622
64272W        W 7288   0.735  30.466  28.506 -0.2887 -0.1912 -0.2050
64273W        W 7289   8.635  33.897   4.558 -0.1910 -0.0606 -0.3122
64274W        W 7290  22.773  27.335  21.637  0.0069  0.0694 -0.0604
64275W        W 7291   8.887  31.296   0.750  0.0797  0.0023  0.0091
64276W        W 7292   6.054  32.542  17.954  0.1857  0.2005  0.1330
64277W        W 7293  34.721  20.316  20.481  0.1228  0.0093  0.4545
64278W        W 7294  22.948   8.909  14.234 -0.0024  0.1886  0.2872
64279W        W 7295  13.854   4.374   0.406 -0.1889 -0.2162 -0.0314
64280W        W 7296   4.472   0.801   5.327 -0.2245 -0.1252  0.0506
64281W        W 7297  30.355  20.168  18.593  0.0730 -0.0406 -0.0273
64282W        W 7298  32.689  19.158  23.699 -0.0129  0.1584  0.1045
64283W        W 7299   6.379  25.085  15.022 -0.1963 -0.2787  0.0428
64284W        W 7300  33.594  33.747  15.955  0.0739 -0.0188  0.0273
64285W        W 7301   8.046  21.605  22.289  0.4550  0.0161 -0.1530
64286W        W 7302  17.751  28.566  20.512 -0.1619  0.0156  0.2124
64287W        W 7303  19.378  26.951   6.230  0.2106 -0.0337 -0.0837
64288W        W 7304  17.774   1.619  24.869  0.0730  0.0450 -0.0385
64289W        W 7305  20.402  33.106   9.053  0.2349 -0.0601  0.1829
64290W        W 7306  12.516  19.208  26.409 -0.0858  0.7001  0.2226
64291W        W 7307   9.289  26.726  28.504 -0.1317 -0.1229  0.1630
64292W        W 7308  20.648  25.490  23.261 -0.0285 -0.0535 -0.0080
64293W        W 7309  15.674   4.379  27.329 -0.1121  0.3416  0.1175
64294W        W 7310   3.493  23.266   0.397  0.1032  0.3629  0.0448
64295W        W 7311  34.506  13.903   6.248 -0.3259  0.1980 -0.2733
64296W        W 7312  20.575   6.242  25.190  0.3349 -0.2963 -0.1876
64297W        W 7313  18.189  10.849  13.971 -0.2306 -0.1443 -0.5112
64298W        W 7314  22.139   6.773  18.138 -0.0557 -0.2286 -0.0960
64299W        W 7315  13.491  28.775  18.464  0.0071  0.2819  0.0206
64300W        W 7316  22.354  25.540  25.734 -0.2066  0.0050  0.2114
64301W        W 7317  16.414  23.442  28.240 -0.0228 -0.3616 -0.0440
64302W        W 7318  10.606  31.708  22.694  0.0866  0.1803 -0.3333
64303W        W 7319   5.027  29.695  17.390  0.2225  0.2262 -0.2498
64304W        W 7320  14.883  14.596  14.060 -0.0104  0.0771 -0.3793
64305W        W 7321   2.777  30.495  23.833 -0.3394  0.0140 -0.2809
64306W        W 7322  19.899  32.530  15.896  0.0056 -0.2824  0.4716
64307W        W 7323   2.754  34.646  23.182 -0.1430  0.3348  0.0717
64308W        W 7324   8.613   1.245  20.093 -0.1766 -0.2255 -0.1284
64309W        W 7325  14.678  32.793  23.185 -0.0755  0.3266 -0.1022
64310W        W 7326  14.751  29.648  26.745  0.0965 -0.1842 -0.0232
64311W        W 7327   3.239  20.791   1.749 -0.1380 -0.2705 -0.3016
64312W        W 7328  25.027  34.459  16.837 -0.0594 -0.1666 -0.2230
64313W        W 7329  18.198  31.050  24.201 -0.2307  0.1860  0.0348
64314W        W 7330  11.912   4.683  24.682 -0.2216 -0.4233 -0.2818
64315W        W 7331  33.866  28.271  25.428 -0.0587 -0.1195  0.3162
64316W        W 7332  19.994  11.376  19.446 -0.1931  0.1369  0.0886
64317W        W 7333   3.710  21.854   2.872  0.0492  0.0099  0.0260
64318W        W 7334  11.164  29.736  13.904  0.0144  0.4293 -0.0867
64319W        W 7335  17.326  19.846  26.235  0.3195  0.1702  0.1460
64320W        W 7336  14.423  11.185  20.214  0.2028 -0.1395  0.1167
64321W        W 7337   9.161   0.919  14.550 -0.0428 -0.0285  0.1157
64322W        W 7338  11.819  27.740  22.468  0.1991 -0.1676  0.2187
64323W        W 7339   3.636  15.623  15.784 -0.0612  0.0572  0.0283
64324W        W 7340   5.699   8.511   5.959 -0.0540 -0.1649  0.0029
64325W        W 7341  12.310  30.913  14.688  0.2736  0.0713  0.0850
64326W        W 7342  13.780  22.511  19.075 -0.2592 -0.2221  0.0211
64327W        W 7343  12.814  24.463  18.108  0.0154  0.1545  0.0764
64328W        W 7344   3.907  31.619  24.129 -0.2711 -0.0037  0.1001
64329W        W 7345   5.645   4.601  20.418 -0.1926  0.1657 -0.2646
64330W        W 7346  16.960  24.128  22.009  0.1347 -0.0549  0.0101
64331W        W 7347  17.250  23.868  15.572 -0.1257 -0.3708  0.4457
64332W        W 7348  21.734  11.491  16.125  0.2662 -0.5591 -0.2532
64333W        W 7349  30.258  14.547   2.903  0.3924  0.0489 -0.0518
64334W        W 7350   9.072  20.885  14.398  0.3255  0.2181 -0.2575
64335W        W 7351  18.122  32.970  27.518 -0.1363  0.1365  0.0491
64336W        W 7352  24.069   2.634  25.458  0.0827 -0.0840 -0.0570
64337W        W 7353  13.920  26.456   7.706  0.1093 -0.0164  0.3104
64338W        W 7354  30.430  24.684  22.500 -0.1903 -0.0239 -0.1169
64339W        W 7355  14.960  28.054  28.181 -0.3605  0.1069 -0.1208
64340W        W 7356   1.240  23.223  14.183  0.1471 -0.1805 -0.1225
64341W        W 7357  15.813   1.484  14.215 -0.2862 -0.1425  0.0739
64342W        W 7358  29.474  28.232  19.635 -0.1060 -0.2215  0.2522
64343W        W 7359   3.290  18.003   0.826 -0.0477  0.2207 -0.3400
64344W        W 7360  24.633  31.925  25.934  0.3272 -0.0389  0.2638
64345W        W 7361  31.157  34.192  23.357 -0.0649  0.0580 -0.3110
64346W        W 7362  11.404   1.494  23.875  0.1504 -0.0838 -0.0550
64347W        W 7363   1.542   3.246   5.337 -0.4475  0.1975 -0.0365
64348W        W 7364   5.025  34.027  18.057  0.3445 -0.2425  0.1876
64349W        W 7365   5.841   6.931   5.958 -0.2584 -0.1211 -0.1910
64350W        W 7366  18.994  16.090  28.058 -0.2844  0.1393 -0.1747
64351W        W 7367  13.953  33.815   1.032 -0.1746  0.0717 -0.1600
64352W        W 7368  13.434  22.089  25.641  0.0651 -0.1094  0.2169
64353W        W 7369  32.239  28.313  20.738 -0.1606 -0.1597 -0.2009
64354W        W 7370  14.038  29.415  19.468 -0.2630  0.0385  0.1054
64355W        W 7371  26.064  33.279   2.572 -0.0687  0.1577 -0.0957
64356W        W 7372  30.683  29.904  23.292  0.3424 -0.0473 -0.3902
64357W        W 7373   9.152  25.337   1.184  0.1003  0.1752 -0.2435
64358W        W 7374  19.971  21.534  24.064  0.1612  0.2387  0.3371
64359W        W 7375  25.782  19.160  20.463  0.2710  0.3027  0.0739
64360W        W 7376   9.794  17.105  23.393 -0.3473  0.1728  0.1366
64361W        W 7377  10.357  16.470  22.729 -0.1534 -0.2291 -0.1347
64362W        W 7378   8.484  34.552  20.721 -0.1609  0.0442  0.1494
64363W        W 7379  23.128   9.149  24.343 -0.3970 -0.2460  0.1357
64364W        W 7380  11.981  24.272  23.818  0.2235 -0.0547 -0.3290
64365W        W 7381  17.920  29.774   2.730  0.2231 -0.2052 -0.1895
64366W        W 7382  15.808   4.993  22.243  0.0870  0.2439  0.1240
64367W        W 7383  23.458  28.899   5.269 -0.0111 -0.1980  0.1669
64368W        W 7384  11.971  19.929  15.548  0.4468 -0.2108 -0.0124
64369W        W 7385  23.619  30.336  21.138 -0.3503  0.2649 -0.0878
64370W        W 7386   5.962  19.649  18.509 -0.1746  0.0168  0.3067
64371W        W 7387  21.954  28.087  22.912  0.1439  0.0890  0.0845
64372W        W 7388  11.625  29.970  20.369  0.0432 -0.3012 -0.1547
64373W        W 7389  31.889  17.688  21.843  0.0127  0.1551 -0.0327
64374W        W 7390  16.666  33.592  22.778  0.0453 -0.1370 -0.2862
64375W        W 7391   1.215  16.143   0.016  0.0210  0.1578  0.2306
64376W        W 7392  11.089  21.957   2.288 -0.2577  0.1017  0.0021
64377W        W 7393  18.517   1.402   4.005  0.0849  0.0945  0.0779
64378W        W 7394  10.317  13.503   0.125 -0.0786 -0.0445  0.3517
64379W        W 7395  30.573   2.361  19.950  0.0784  0.3121  0.1291
64380W        W 7396   6.292  28.173  20.567 -0.0151  0.0382  0.0726
64381W        W 7397  23.507  18.654  21.629  0.0272 -0.4214 -0.1850
64382W        W 7398   6.750  20.463  16.928 -0.1334 -0.0492 -0.2205
64383W        W 7399   1.737   8.951  21.341  0.0243 -0.0794 -0.1069
64384W        W 7400  18.900  34.071  28.738 -0.0365  0.0286 -0.0989
64385W        W 7401   9.527  33.014  15.246  0.2869  0.0273  0.0423
64386W        W 7402   4.992  25.991  28.757  0.1643 -0.0614  0.1709
64387W        W 7403  25.950  11.352   0.241 -0.0859  0.4447 -0.2044
64388W        W 7404  10.988  21.942  16.376  0.1673 -0.1493  0.0240
64389W        W 7405  10.953  30.799  22.599 -0.2280 -0.1403 -0.2693
64390W        W 7406  23.849  25.008  26.389 -0.1144  0.4259  0.0381
64391W        W 7407  17.857  31.953  20.588 -0.0316  0.0841 -0.0940
64392W        W 7408  31.846  30.255   9.662  0.0211  0.1838 -0.3001
64393W        W 7409  13.595   5.066  22.718  0.2837  0.1612 -0.2231
64394W        W 7410  21.198   0.856  26.643 -0.2172 -0.0428  0.4042
64395W        W 7411  34.042  27.549   0.477  0.3109 -0.0586  0.0834
64396W        W 7412  19.720  21.495   3.298 -0.2824 -0.0110  0.0549
64397W        W 7413  10.367  21.398  22.651 -0.0172 -0.0367  0.3614
64398W        W 7414  25.317  28.174   4.204 -0.1849  0.0028 -0.0789
64399W        W 7415  21.488   0.528   3.768  0.0199 -0.0278 -0.1032
64400W        W 7416  16.139  16.978   7.375 -0.1373 -0.1500 -0.1928
64401W        W 7417  14.716  28.451  24.153  0.2156 -0.1544  0.2557
64402W        W 7418  15.913  29.220   6.307  0.1580  0.4802 -0.3137
64403W        W 7419   3.070  24.178  15.566  0.3414  0.0200 -0.0949
64404W        W 7420  16.545   8.450   0.428 -0.0290  0.0407 -0.0254
64405W        W 7421  34.049   1.821   7.534 -0.2390 -0.0368 -0.2306
64406W        W 7422  11.792  33.637   0.167 -0.2739  0.0885 -0.0370
64407W        W 7423  15.137  24.862  22.530  0.0878  0.1012  0.0686
64408W        W 7424   1.033   9.358   9.669 -0.1976  0.1669  0.2671
64409W        W 7425   5.556  24.096  19.445  0.5421 -0.2330  0.2383
64410W        W 7426  28.612  29.874  11.163 -0.0865  0.2096  0.2306
64411W        W 7427  29.552  18.850  15.687 -0.2779  0.2226 -0.1302
64412W        W 7428  11.935  21.574   0.068 -0.1427  0.2395 -0.1652
64413W        W 7429  22.059  22.549  25.558 -0.1442  0.1291 -0.0064
64414W        W 7430  18.387  25.266   8.430 -0.2575  0.1360  0.1893
64415W        W 7431  24.226  32.971  16.319 -0.1090 -0.4218  0.1551
64416W        W 7432  29.376  29.612  26.713 -0.1602  0.1610 -0.1252
64417W        W 7433  20.193  22.829  27.737 -0.1553 -0.0654  0.1296
64418W        W 7434  15.864  19.358   5.658  0.0417 -0.0995 -0.0366
64419W        W 7435  33.308  10.859   2.680 -0.1566 -0.0973 -0.1039
64420W        W 7436  33.424  26.878   4.629  0.1017  0.0688  0.2057
64421W        W 7437   6.988  34.224   7.582 -0.4065  0.0706  0.1312
64422W        W 7438   6.499  22.483  17.372  0.0220 -0.3021  0.1087
64423W        W 7439  22.700  28.941  22.928 -0.1019  0.0255 -0.0089
64424W        W 7440  19.387   0.919  24.747  0.1823 -0.1607 -0.1051
64425W        W 7441  15.156  19.875  12.181 -0.2421  0.6029 -0.2857
64426W        W 7442  33.816  31.037  22.661 -0.0569  0.3443 -0.0012
64427W        W 7443   5.543  34.760   5.426  0.5316 -0.1254 -0.0761
64428W        W 7444  16.710  29.089   8.993  0.0240  0.1618 -0.0245
64429W        W 7445   9.194  22.021  29.153  0.0779 -0.1498 -0.0414
64430W        W 7446  20.522  33.340  25.019 -0.0864 -0.3539  0.0968
64431W        W 7447  12.595  26.270  20.760 -0.0075 -0.4356  0.1215
64432W        W 7448   3.475  26.517  27.405  0.0352  0.0739  0.1365
64433W        W 7449  33.160  26.645  22.082 -0.0940  0.1541  0.0965
64434W        W 7450   6.558   1.495  16.038 -0.0524 -0.5162 -0.1102
64435W        W 7451  14.929  21.440  28.679  0.3226 -0.0497 -0.1494
64436W        W 7452  23.241  13.502  19.993  0.0079 -0.0716  0.0593
64437W        W 7453  17.538  27.807  22.668  0.0138  0.2581  0.0660
64438W        W 7454  16.345  25.108  26.591  0.0243 -0.3611  0.1762
64439W        W 7455  12.631  19.190  12.960  0.3361  0.0652 -0.2831
64440W        W 7456  25.261  23.243   8.418 -0.1460  0.0062  0.0873
64441W        W 7457  34.522  24.133  23.159 -0.1546  0.0128  0.1131
64442W        W 7458  11.447  29.201   0.290  0.0331 -0.0275 -0.3330
64443W        W 7459   6.844  24.957   2.013  0.1546  0.0824 -0.0419
64444W        W 7460  15.754  26.964   0.408 -0.0095 -0.1431  0.0316
64445W        W 7461   8.822  18.610  22.301 -0.0286  0.2380 -0.3726
64446W        W 7462  15.128  33.313  27.408  0.1233  0.2007 -0.0947
64447W        W 7463  10.108  34.092  22.561  0.1570  0.3536 -0.1572
64448W        W 7464  25.196   1.733  18.046  0.0090 -0.2886  0.0364
64449W        W 7465   7.727  30.672  26.050  0.1734  0.3554 -0.0372
64450W        W 7466   7.342  32.371  28.558 -0.2231 -0.1037  0.0465
64451W        W 7467  33.476   3.063  21.288 -0.0372 -0.1955 -0.3059
64452W        W 7468   7.222  21.917   3.977  0.0297 -0.0218 -0.0495
64453W        W 7469  13.710  16.712  28.772 -0.0512 -0.2020 -0.4078
64454W        W 7470   9.783  19.671   1.351 -0.0550  0.0857 -0.0289
64455W        W 7471  29.069  34.253  19.140  0.1060 -0.0024  0.0591
64456W        W 7472  13.930  18.808   8.827 -0.2475  0.0641  0.0004
64457W        W 7473  19.314  18.115  13.881 -0.2133 -0.4001 -0.3408
64458W        W 7474  14.015  18.390  14.579 -0.0913  0.3338  0.0999
64459W        W 7475  13.765  21.321  27.857  0.2322 -0.0003 -0.0431
64460W        W 7476  12.355   2.099  27.207 -0.1028  0.2968 -0.3318
64461W        W 7477  19.996  20.313  21.576 -0.1903 -0.0596 -0.3380
64462W        W 7478   6.609  23.360   8.868  0.1075  0.2096  0.0834
64463W        W 7479   0.047  23.845  21.797  0.1387  0.1656  0.0050
64464W        W 7480  32.689   2.424  26.711 -0.2173  0.2832 -0.1284
64465W        W 7481   3.446  25.346   5.027  0.0305  0.1139 -0.1928
64466W        W 7482  10.955  16.259  15.904 -0.0575 -0.0933 -0.4153
64467W        W 7483   0.154  21.077   6.017 -0.0527 -0.1052 -0.2730
64468W        W 7484   5.883  25.129  27.739  0.0164  0.2490  0.2244
64469W        W 7485  19.429  21.121  22.509  0.1188 -0.1191  0.2408
64470W        W 7486  21.587  16.006  26.249  0.0823 -0.1220  0.2120
64471W        W 7487   0.952   2.807   0.264  0.1339  0.1329 -0.0630
64472W        W 7488  18.379  22.301  14.674  0.1572 -0.1992  0.0154
64473W        W 7489  16.249  34.687  19.972 -0.1010 -0.2007  0.0853
64474W        W 7490  18.521  15.182   0.128  0.0138  0.1812  0.2215
64475W        W 7491  18.129  30.678   9.667  0.0267 -0.0618  0.2776
64476W        W 7492  12.059   6.412   0.080  0.2591  0.0081  0.1095
64477W        W 7493  11.742  20.144  13.734 -0.2049  0.0398 -0.0571
64478W        W 7494  17.494  29.007   4.878  0.1362 -0.0448 -0.0512
64479W        W 7495  10.204  22.494  20.382 -0.0004  0.0942 -0.0397
64480W        W 7496   7.671  18.355  23.340  0.4886  0.1579  0.0967
64481W        W 7497   0.009  28.254  20.624 -0.1423  0.0623  0.1922
64482W        W 7498  15.926  29.842  21.253 -0.0088 -0.1640 -0.1055
64483W        W 7499  19.857  12.815   4.431 -0.1227  0.0994 -0.0415
64484W        W 7500  23.976  21.764  21.057 -0.0679 -0.0433 -0.2098
64485W        W 7501  32.787  27.366  20.472  0.1247 -0.0428 -0.0284
64486W        W 7502   3.043  33.337   7.268 -0.3894  0.1227 -0.0730
64487W        W 7503  11.470   6.062  25.206 -0.2196 -0.0707  0.2608
64488W        W 7504  12.425  33.950  25.016  0.1613  0.0380  0.0609
64489W        W 7505  11.904  17.831  21.709  0.1786  0.0610  0.2271
64490W        W 7506   9.792   1.208  16.484 -0.4100 -0.2694 -0.1800
64491W        W 7507  22.949  25.594   3.458 -0.1059  0.1526  0.4207
64492W        W 7508  13.006  26.285  17.677  0.0861  0.1229 -0.1434
64493W        W 7509  13.223   0.532   1.383 -0.1801 -0.1063  0.0158
64494W        W 7510  12.160  33.278  16.636  0.0654  0.2276 -0.4825
64495W        W 7511   5.668   8.458  24.725  0.0381 -0.4619  0.1720
64496W        W 7512  33.909  29.312  18.104 -0.3223 -0.0817  0.1071
64497W        W 7513  15.481   3.257  25.814 -0.0741 -0.0101  0.2774
64498W        W 7514  23.847   1.766  21.587  0.3806  0.1175 -0.1506
64499W        W 7515   5.782  30.752   0.461 -0.0974  0.1074 -0.1295
64500W        W 7516  14.235  10.192  25.664 -0.0241 -0.0175  0.0632
64501W        W 7517   0.473  15.374  27.072 -0.1124 -0.1585  0.0154
64502W        W 7518   4.970  21.905  17.705 -0.1874 -0.6585 -0.1918
64503W        W 7519   3.140   5.820  28.174 -0.0882  0.0133  0.0750
64504W        W 7520   7.646  16.017   6.570  0.0301 -0.1025 -0.3296
64505W        W 7521  20.063  25.465   4.093  0.2236 -0.0358 -0.2143
64506W        W 7522  18.847  19.849   8.458 -0.2493 -0.0873  0.1244
64507W        W 7523   3.760  34.363  23.707  0.3311  0.0477 -0.0097
64508W        W 7524  24.216  30.094  16.606 -0.3694 -0.1039 -0.1464
64509W        W 7525  12.023  31.843   8.704 -0.0205 -0.0047 -0.1680
64510W        W 7526   5.685  18.567   8.600  0.1303  0.1594  0.0731
64511W        W 7527  12.072  14.778  26.265 -0.0482 -0.0752  0.0605
64512W        W 7528  31.429  23.218   7.123  0.1025 -0.1039  0.1532
64513W        W 7529  22.109  14.750  24.424  0.1134 -0.1844  0.2428
64514W        W 7530  12.723  26.012  22.444  0.1729 -0.0459  0.0864
64515W        W 7531  23.216   3.308  20.111  0.1052 -0.0558  0.0301
64516W        W 7532  21.976  21.460  23.175  0.2187 -0.1963  0.0872
64517W        W 7533  22.326   0.484   5.865 -0.0735  0.1689  0.2780
64518W        W 7534   3.191  20.724  14.543  0.1160 -0.1858 -0.2555
64519W        W 7535   2.525   6.665  20.398  0.2887 -0.1665  0.1588
64520W        W 7536  13.272  19.441  26.672  0.3118 -0.1295 -0.2231
64521W        W 7537   2.039  34.196   8.893  0.2736  0.0220 -0.3873
64522W        W 7538  12.797  31.978  29.081 -0.0337  0.0447 -0.0024
64523W        W 7539  10.605  24.314  25.021  0.1505 -0.3463  0.0367
64524W        W 7540  10.734  21.498  21.986  0.1160  0.0493 -0.0443
64525W        W 7541   6.685  20.247   5.584  0.1983 -0.0851 -0.1626
64526W        W 7542   3.343   7.155   1.387  0.5358  0.1420 -0.2164
64527W        W 7543  15.261  27.581  24.266  0.0236  0.1837  0.1851
64528W        W 7544   2.822  23.256  28.731  0.1927 -0.0866  0.0870
64529W        W 7545  32.299  22.438   2.686  0.1821 -0.1593 -0.2310
64530W        W 7546   9.166  30.600  28.956  0.3457 -0.0952  0.2055
64531W        W 7547   6.424  16.271   2.610  0.1190  0.0810 -0.0072
64532W        W 7548   2.146  29.705   1.157  0.1525 -0.1635  0.0723
64533W        W 7549  16.689  13.597  14.067  0.1139 -0.1126 -0.3623
64534W        W 7550   6.834   1.395  15.097 -0.0474 -0.0453  0.1807
64535W        W 7551   1.324  22.036  24.139  0.0927 -0.0826 -0.2662
64536W        W 7552   7.558  31.258  27.842  0.0613 -0.1632 -0.2664
64537W        W 7553  10.797  29.991  22.283  0.2640 -0.0928  0.0238
64538W        W 7554  18.087  25.364  24.681  0.0327  0.0434 -0.2770
64539W        W 7555  30.855  30.652  21.041  0.0058  0.0994  0.0038
64540W        W 7556   8.343  27.563  17.755 -0.0962 -0.0042  0.0234
64541W        W 7557   8.342  14.671   1.289 -0.2323 -0.1373  0.2336
64542W        W 7558  13.021  15.308   7.182  0.1794  0.0697  0.0046
64543W        W 7559   3.017  20.835   3.940  0.0492 -0.1002 -0.0628
64544W        W 7560  23.655   3.410  23.399 -0.0806 -0.1781 -0.0035
64545W        W 7561  19.720  26.274   0.821  0.3169  0.1080 -0.3153
64546W        W 7562   4.411  17.065   2.872  0.2590 -0.4407 -0.1077
64547W        W 7563  24.060  23.151  17.878 -0.2099  0.1656  0.2624
64548W        W 7564  15.389  16.748  25.419  0.2249  0.3180  0.0344
64549W        W 7565  15.793  24.240  26.544  0.2459  0.1998  0.4665
64550W        W 7566   8.580  24.908  14.756 -0.1753 -0.2273 -0.2272
64551W        W 7567  18.155  16.263   2.567 -0.3845  0.3556  0.0382
64552W        W 7568  30.108  14.732   3.887 -0.1567  0.0367 -0.2519
64553W        W 7569  24.469  22.243   5.057 -0.1690 -0.0543  0.3696
64554W        W 7570   9.093  23.521  23.050  0.0627 -0.1106  0.0949
64555W        W 7571  19.062  28.273  24.007 -0.1772  0.4615  0.1048
64556W        W 7572  32.436  11.159  15.402  0.2432 -0.4537 -0.1604
64557W        W 7573  23.188  31.111  24.446  0.0497 -0.1088  0.1878
64558W        W 7574  28.878  20.198  26.891  0.1024  0.0075  0.0160
64559W        W 7575  18.378   3.219  28.401  0.2414  0.3018 -0.3816
64560W        W 7576  10.149  29.798  15.214 -0.0083  0.1103  0.0016
64561W        W 7577  34.298  30.419  18.043 -0.2796  0.1141 -0.0365
64562W        W 7578  34.520  22.029  20.639  0.0245  0.1451  0.2673
64563W        W 7579   5.072   1.061   4.439 -0.0144 -0.1770 -0.1303
64564W        W 7580  22.002  27.678  17.527  0.0036 -0.0643  0.1189
64565W        W 7581   7.563  17.349   0.142  0.3207  0.0130  0.0003
64566W        W 7582   8.063   0.932  25.454 -0.0757 -0.1804 -0.2184
64567W        W 7583  10.005  19.940  24.533 -0.0799  0.0492  0.0963
64568W        W 7584   3.091  17.767  25.614  0.1331  0.1743  0.1450
64569W        W 7585  13.587  32.595  15.112 -0.1316 -0.2267  0.2253
64570W        W 7586  10.409  27.484  10.063 -0.1676 -0.2409  0.0220
64571W        W 7587  12.824   0.619  15.265 -0.0810  0.1277  0.1001
64572W        W 7588  17.245  33.829  22.838  0.2558 -0.1963  0.2149
64573W        W 7589  17.368  10.886   4.205 -0.5606 -0.1775  0.1875
64574W        W 7590   7.832  20.026   0.659 -0.0998  0.2116  0.1143
64575W        W 7591  24.172  10.661  19.918  0.0127  0.3633 -0.0386
64576W        W 7592  16.451  30.609   0.383  0.2631 -0.2753  0.0303
64577W        W 7593   1.227   8.237  15.329 -0.2380 -0.0641 -0.4133
64578W        W 7594   8.099  27.576  24.591  0.3047 -0.4531  0.0257
64579W        W 7595  24.859  28.554  21.392 -0.2148 -0.0204 -0.0669
64580W        W 7596   8.011  31.548   9.542  0.1987 -0.1732 -0.0385
64581W        W 7597  21.331  29.713   2.414  0.1035 -0.0266  0.5181
64582W        W 7598  15.878   4.323  15.649 -0.0908  0.1299  0.0961
64583W        W 7599  10.723   2.982  20.032  0.0559  0.4149 -0.1251
64584W        W 7600   9.850  19.229  15.094 -0.4833  0.2386 -0.1982
64585W        W 7601  10.803  31.570  29.081 -0.1593  0.0152  0.0881
64586W        W 7602  14.522  15.719  22.291 -0.0609  0.4902  0.3425
64587W        W 7603   6.751   1.514   4.548 -0.1241 -0.1970 -0.1439
64588W        W 7604   6.949  10.471  14.341 -0.0902  0.1854  0.0026
64589W        W 7605   1.766  34.274  17.160 -0.4294  0.1923 -0.3018
64590W        W 7606   9.679  17.916  15.429  0.4271  0.1927  0.1711
64591W        W 7607  14.255   4.600  25.637 -0.0470 -0.0791 -0.2984
64592W        W 7608  17.924  24.898  28.976  0.1412 -0.1773  0.1244
64593W        W 7609  20.017  33.385  22.598 -0.0481 -0.0093 -0.1235
64594W        W 7610   5.622   1.764   0.262 -0.1030 -0.0972 -0.0505
64595W        W 7611  11.656  26.387  20.552 -0.2105 -0.2368 -0.0777
64596W        W 7612   8.281  26.588  20.851  0.0409  0.0539  0.2203
64597W        W 7613   0.097  33.436  26.753 -0.1748  0.1567  0.0238
64598W        W 7614   4.133  20.700   5.168 -0.3200  0.2182  0.0649
64599W        W 7615  14.625  26.347   5.763 -0.0432 -0.1415  0.1935
64600W        W 7616   5.987  25.767   1.037 -0.0980  0.0596  0.1346
64601W        W 7617  28.645  10.430  10.078 -0.1484  0.0146 -0.0926
64602W        W 7618  12.887   7.775  20.302  0.0338  0.1239  0.1898
64603W        W 7619   1.378   0.791  16.800  0.2314 -0.3049 -0.5512
64604W        W 7620   3.943  33.671   8.666  0.2043 -0.2900 -0.5562
64605W        W 7621  18.920  25.812  25.782 -0.1328 -0.3940 -0.1144
64606W        W 7622   9.211   4.131  22.213  0.0920  0.0363 -0.1628
64607W        W 7623  15.396  21.126  27.930 -0.0121 -0.0585 -0.0603
64608W        W 7624   6.811  21.186  28.002  0.3104  0.1931  0.0456
64609W        W 7625  31.612  16.522  20.043 -0.1324 -0.0889  0.1523
64610W        W 7626   9.460   2.635   5.368 -0.1120 -0.1617  0.0577
64611W        W 7627  25.875  11.312   9.391  0.2370  0.1262  0.1026
64612W        W 7628  22.783  25.580  28.942  0.0890  0.3015  0.2259
64613W        W 7629   5.287  33.683   3.925 -0.5937  0.0131 -0.2927
64614W        W 7630  20.867  12.687  14.623  0.4106 -0.1150  0.0547
64615W        W 7631   3.502  19.694  21.370  0.3344  0.1568 -0.2023
64616W        W 7632   5.189  30.055  21.265 -0.0226  0.1751 -0.4377
64617W        W 7633  34.096  16.114  27.915 -0.0786  0.0695  0.2035
64618W        W 7634  12.786  15.017   2.424 -0.3168  0.0800  0.1205
64619W        W 7635   9.488  33.633   2.783  0.0315  0.1747 -0.0706
64620W        W 7636  18.205   6.669  22.322  0.1851 -0.0801 -0.1900
64621W        W 7637  14.184  18.975   3.627  0.0041  0.2948  0.2305
64622W        W 7638   2.459   7.236  27.364 -0.2659  0.0408  0.0550
64623W        W 7639   2.541   4.763  10.624 -0.1585 -0.1949 -0.1778
64624W        W 7640  23.960   0.184   7.350 -0.0943 -0.1264  0.3490
64625W        W 7641  19.275  25.367  27.955 -0.0308 -0.1464  0.0954
64626W        W 7642   0.887  24.739  14.903 -0.0912  0.2535  0.1115
64627W        W 7643  15.327   0.992  19.299 -0.0065 -0.1407  0.3984
64628W        W 7644  10.956   3.708   8.640  0.1200  0.5527 -0.0912
64629W        W 7645  10.646   0.401  24.304  0.4182  0.0801 -0.0004
64630W        W 7646  14.023  34.379  19.303  0.0497  0.1125  0.2102
64631W        W 7647  15.795  34.542  18.416 -0.1415  0.2796 -0.1355
64632W        W 7648  18.467  32.408   7.518  0.0715  0.1568  0.1561
64633W        W 7649  13.996  15.191  21.769 -0.1392  0.1322  0.3158
64634W        W 7650  30.473   1.325   2.525 -0.0501 -0.3691 -0.2998
64635W        W 7651   9.104  17.085   3.832  0.2843 -0.0586 -0.1462
64636W        W 7652   9.740  26.004  19.010 -0.1442 -0.6230  0.1094
64637W        W 7653  13.359  15.608   6.176 -0.0848 -0.1750  0.0200
64638W        W 7654   9.049  24.694   8.519  0.0030  0.0955  0.0029
64639W        W 7655  10.241  28.548   6.020  0.0873  0.4136 -0.0210
64640W        W 7656   3.685  11.807  16.397  0.0043  0.1229  0.2306
64641W        W 7657  16.522   5.012   8.272  0.0742 -0.0570  0.0071
64642W        W 7658   8.368   7.582   2.078 -0.2202  0.0073  0.0922
64643W        W 7659   0.481   5.109   6.498 -0.0637 -0.0479  0.2442
64644W        W 7660   3.767  33.150  16.678 -0.3246  0.1213 -0.0106
64645W        W 7661  14.709  19.622  14.073 -0.5387 -0.0099 -0.0544
64646W        W 7662  23.806  26.072  24.602 -0.0297 -0.2648 -0.0298
64647W        W 7663  10.950  25.377  18.623 -0.3116  0.0057 -0.0281
64648W        W 7664  17.079  32.477   1.998 -0.0013 -0.4703 -0.1197
64649W        W 7665  14.042  21.539  27.467  0.2207 -0.0425 -0.2583
64650W        W 7666  10.946  24.057   0.379 -0.3042 -0.2069 -0.1503
64651W        W 7667  18.105  11.068  15.409  0.1165 -0.2585  0.0516
64652W        W 7668  21.713  20.339   0.651  0.0240 -0.0667  0.0650
64653W        W 7669  14.787  14.362   4.420  0.2179 -0.4405  0.1146
64654W        W 7670  18.342  32.075  18.996 -0.2408 -0.0911  0.2165
64655W        W 7671  13.798   5.016  20.376 -0.2879 -0.1059  0.1641
64656W        W 7672  22.052  21.734   3.244  0.5028 -0.1703 -0.0529
64657W        W 7673  14.866  25.905  22.718  0.0020 -0.2167  0.0002
64658W        W 7674  19.605   1.986   5.180 -0.0265 -0.1654  0.4917
64659W        W 7675  15.359  11.417  28.595 -0.2759  0.0010  0.1324
64660W        W 7676  32.728  28.253  28.395 -0.1225 -0.1480 -0.0110
64661W        W 7677   2.809   6.120   4.773 -0.1036  0.0292 -0.2111
64662W        W 7678  18.280  25.647  17.172 -0.1889  0.1408  0.0744
64663W        W 7679   2.985  27.599  16.563  0.1066 -0.1294  0.0573
64664W        W 7680  20.035  24.313  28.463  0.0582 -0.1582  0.0067
64665W        W 7681  11.047  11.881  15.681 -0.0653 -0.0326  0.1884
64666W        W 7682   4.986  19.605   4.173 -0.0761  0.1589  0.2202
64667W        W 7683   6.024  22.673   9.040  0.0575 -0.2875 -0.0536
64668W        W 7684   8.909  27.128  27.750 -0.2536  0.0409  0.2732
64669W        W 7685   5.380  14.665   2.009  0.1620 -0.1533 -0.1038
64670W        W 7686  11.958  11.175  16.616  0.0853  0.3055 -0.0805
64671W        W 7687  34.088  20.773  17.321 -0.1695 -0.0921 -0.0116
64672W        W 7688   2.548  14.005  25.023 -0.0280 -0.1571  0.0578
64673W        W 7689  18.458  22.490  19.453  0.1740  0.0702  0.1570
64674W        W 7690   9.982  31.883  14.773 -0.0042 -0.2167  0.0108
64675W        W 7691  18.991  25.320   0.120 -0.3210  0.1017  0.0234
64676W        W 7692  24.985  27.371   4.364  0.0281  0.1897  0.0746
64677W        W 7693  10.473  13.879  22.753 -0.1971 -0.0582 -0.1784
64678W        W 7694  29.716  30.037  22.927 -0.1303  0.1464 -0.0644
64679W        W 7695   7.256  29.548   6.099  0.3227 -0.1000 -0.1109
64680W        W 7696   0.109  28.625   1.441 -0.0311  0.2383 -0.0988
64681W        W 7697   9.696  30.023  23.906 -0.1700  0.0002  0.1874
64682W        W 7698  15.869  12.409  25.465  0.2928 -0.0091  0.1276
64683W        W 7699  13.246  25.244   1.182 -0.2285 -0.0222  0.2466
64684W        W 7700  32.312   9.222  26.292  0.3256  0.0176  0.2664
64685W        W 7701  17.388  24.834  29.048 -0.1763 -0.2514  0.0759
64686W        W 7702  19.286  31.742   5.074  0.0627  0.0241 -0.1963
64687W        W 7703  12.335  26.564  27.701  0.1997  0.4026 -0.0268
64688W        W 7704   1.829  22.467   9.305  0.1550 -0.0313 -0.2320
64689W        W 7705  14.212  17.474   1.577  0.4365 -0.1207 -0.1263
64690W        W 7706  20.076  24.017  19.982 -0.1083  0.1118  0.1050
64691W        W 7707  19.327  30.049   3.450  0.1585 -0.0929  0.0892
64692W        W 7708  15.978  31.621  21.423  0.6601  0.0114 -0.4105
64693W        W 7709  11.782  30.541   3.686  0.1524  0.1627  0.0233
64694W        W 7710  31.083   8.624  29.235 -0.1920 -0.1539 -0.1474
64695W        W 7711  14.943  33.770  27.442  0.1009  0.1103 -0.0890
64696W        W 7712  19.298  21.835  23.284  0.2015  0.1221  0.0134
64697W        W 7713  20.304  21.882  24.234 -0.0799  0.0182  0.0028
64698W        W 7714   2.993  28.337  24.833 -0.0913 -0.3775  0.0296
64699W        W 7715   9.256  30.981   0.645 -0.1704 -0.3832 -0.0461
64700W        W 7716  10.247  12.025   8.330 -0.3157  0.0104 -0.1109
64701W        W 7717  19.678   7.801  28.444 -0.0569 -0.1223  0.3504
64702W        W 7718  20.003  10.245   1.116  0.1103 -0.1384 -0.1269
64703W        W 7719  24.194  26.465  25.974 -0.0081  0.0421 -0.0866
64704W        W 7720  12.643  22.282   2.339 -0.1080 -0.2133 -0.0558
64705W        W 7721  18.492  18.755  24.810 -0.5292  0.0330 -0.3241
64706W        W 7722   7.121  16.117   0.854 -0.0975  0.0948 -0.1655
64707W        W 7723  12.571   4.871   5.110 -0.2077 -0.0178 -0.1523
64708W        W 7724   6.447  27.046  25.807  0.1072  0.1164  0.0481
64709W        W 7725  30.605  34.071  23.587  0.1117  0.2371  0.2396
64710W        W 7726   5.160  16.721  14.258  0.0547 -0.0648 -0.2127
64711W        W 7727  32.004   7.474   6.782 -0.0028 -0.1484  0.1467
64712W        W 7728   0.263  33.499   2.445  0.1581  0.1321  0.1817
64713W        W 7729  18.133  23.266  18.928 -0.0836 -0.0394  0.0797
64714W        W 7730   5.665  34.273   5.141  0.1074  0.0188 -0.0848
64715W        W 7731  31.274  32.313  26.704 -0.0174 -0.2485 -0.2191
64716W        W 7732  24.094  14.635  20.985  0.0229 -0.0151 -0.1025
64717W        W 7733   7.635   1.535  28.785 -0.2075  0.4124  0.0491
64718W        W 7734  20.248  17.417   1.484  0.3039  0.2198  0.3715
64719W        W 7735  21.940  30.004   4.094  0.1841 -0.3313 -0.1888
64720W        W 7736   5.525  12.241   4.055 -0.0924  0.1038 -0.2804
64721W        W 7737  10.562  34.231  19.751 -0.0258  0.0476 -0.2024
64722W        W 7738  30.839  30.453  28.045  0.1632  0.2302  0.3703
64723W        W 7739  13.833  20.679  19.796 -0.3142 -0.1324  0.1632
64724W        W 7740  10.537  17.293  21.401 -0.0555  0.0793  0.2404
64725W        W 7741  28.575  26.987  24.647 -0.1634 -0.2623  0.1276
64726W        W 7742  19.292  33.863   7.516 -0.0920  0.2390 -0.0328
64727W        W 7743   7.834   6.148   8.449  0.1742 -0.4344 -0.0899
64728W        W 7744  21.432  28.082   7.388 -0.0126 -0.0191  0.0629
64729W        W 7745  21.198   3.158  18.704  0.3175 -0.0453  0.0960
64730W        W 7746  11.913  24.173  28.455 -0.0250  0.1518  0.0928
64731W        W 7747   9.575  13.622  14.182  0.0158  0.3726 -0.0737
64732W        W 7748  31.961  22.511   3.150  0.2145 -0.0044 -0.0101
64733W        W 7749  17.993  27.264  26.058  0.2049 -0.0401  0.1778
64734W        W 7750  27.179  18.195  19.961 -0.2197  0.1899 -0.0050
64735W        W 7751   8.921  14.102   8.206 -0.0990 -0.1185 -0.1451
64736W        W 7752   2.275  12.531  18.505 -0.0997 -0.0490  0.1680
64737W        W 7753  13.802  26.959  24.133 -0.3271 -0.0033 -0.1852
64738W        W 7754   1.677  29.516   3.179 -0.0862 -0.1309 -0.1519
64739W        W 7755  21.136  17.640   2.118  0.1212 -0.3419 -0.1516
64740W        W 7756  13.728  23.662   2.800 -0.0617 -0.0016  0.0822
64741W        W 7757  12.305  22.498  12.737  0.2451 -0.3195  0.1818
64742W        W 7758  13.185  26.919  13.919  0.0395 -0.0366 -0.0230
64743W        W 7759  16.597  33.135  22.109  0.2635  0.3852  0.1905
64744W        W 7760  14.532   8.954  17.478 -0.0631 -0.0565  0.0016
64745W        W 7761  13.368   2.566  24.163 -0.2425 -0.4713 -0.4750
64746W        W 7762   6.256   2.269   9.710  0.2009 -0.0128  0.2007
64747W        W 7763   3.153  31.916  13.630 -0.1834  0.0804 -0.0152
64748W        W 7764  25.543   4.298   8.194 -0.1544  0.1636 -0.1653
64749W        W 7765  12.542  20.607  25.717 -0.0290  0.0587 -0.3456
64750W        W 7766  21.841  26.215  18.689 -0.3295 -0.3793 -0.2667
64751W        W 7767  11.010  25.029  13.386  0.2292 -0.3020  0.2461
64752W        W 7768   6.805  32.994  10.126 -0.0072 -0.0459 -0.0378
64753W        W 7769  13.880   0.461  24.609 -0.4427 -0.0468 -0.0291
64754W        W 7770  14.790  28.164  17.711 -0.0567  0.2156  0.1403
64755W        W 7771  30.208  21.531   0.918 -0.1687 -0.1834 -0.1733
64756W        W 7772   2.402  25.316  14.359  0.0617  0.0928 -0.1889
64757W        W 7773  25.812   3.376  16.897 -0.1080 -0.0191  0.1065
64758W        W 7774   9.480  29.500  14.766 -0.2656 -0.1002  0.1702
64759W        W 7775  19.941   2.161  16.941 -0.1960  0.4854  0.0601
64760W        W 7776  10.335  19.922  19.289  0.0440  0.0090  0.0987
64761W        W 7777   1.545  25.216  21.664 -0.1973  0.0628 -0.0628
64762W        W 7778  13.394  15.279  21.820  0.1402 -0.4446  0.0653
64763W        W 7779  33.663   3.883   7.875  0.0194  0.0152  0.1055
64764W        W 7780   3.195   0.008   5.795  0.1141  0.1449  0.0776
64765W        W 7781   9.647  23.499   8.700 -0.2628  0.0068 -0.1052
64766W        W 7782  21.622   8.821   7.521 -0.1225  0.0936  0.0567
64767W        W 7783  14.273   8.253  27.130 -0.0259 -0.1323  0.0764
64768W        W 7784   9.699  21.501   0.397 -0.2329  0.1224 -0.1688
64769W        W 7785   5.493  20.177  15.035  0.0799 -0.0512 -0.2854
64770W        W 7786  25.289  30.658   6.158  0.1711 -0.3292  0.0472
64771W        W 7787   8.116   4.632  25.222 -0.0351  0.0203  0.2680
64772W        W 7788  19.259   0.399  29.273 -0.0067  0.0330  0.1662
64773W        W 7789   5.741  12.166  27.395 -0.1198 -0.0934 -0.3786
64774W        W 7790  10.082  32.639  28.527  0.0037 -0.0643  0.0702
64775W        W 7791  31.106   4.577   2.507  0.3383 -0.1812  0.0429
64776W        W 7792  12.851   1.048   1.425  0.1685  0.0838 -0.1734
64777W        W 7793   1.240  23.127  28.251  0.1154  0.0082  0.2485
64778W        W 7794  16.788  20.481   2.842  0.0101  0.2465 -0.2051
64779W        W 7795  13.937  29.551  27.231 -0.2389  0.1842  0.3519
64780W        W 7796   3.635  31.073  10.035 -0.0197  0.2342 -0.1700
64781W        W 7797  13.113   1.548  23.387  0.3682  0.1249 -0.0635
64782W        W 7798  22.497   3.435  25.750  0.0799 -0.1289 -0.2732
64783W        W 7799  20.246   6.088   9.662 -0.3068 -0.3196 -0.1118
64784W        W 7800  14.598  25.170  28.043  0.0159 -0.1723  0.0731
64785W        W 7801  12.251   9.007   0.367 -0.2800 -0.1830  0.1821
64786W        W 7802   7.039  20.759   1.100  0.0020 -0.0942  0.0381
64787W        W 7803   1.266  27.663   9.162 -0.0662  0.1921  0.0806
64788W        W 7804   7.496  26.410  19.353 -0.0883  0.2562  0.0279
64789W        W 7805   7.953  14.524  25.778  0.1416 -0.0053 -0.1029
64790W        W 7806   9.474  18.106  18.165 -0.3769  0.0112  0.1956
64791W        W 7807  10.938  16.531  26.990  0.0522  0.2016  0.1113
64792W        W 7808  32.062   0.782  25.689  0.0455 -0.0398 -0.0434
64793W        W 7809  15.649  23.108   0.421  0.2198  0.3274  0.0772
64794W        W 7810  32.243  30.908  24.441 -0.0722  0.2555 -0.1312
64795W        W 7811   5.976  32.095  17.670 -0.1697  0.1222  0.2277
64796W        W 7812  17.298   0.813   6.536  0.3361 -0.2847  0.3913
64797W        W 7813   7.165  22.460  17.240 -0.0944 -0.2097  0.0496
64798W        W 7814  14.604  23.375   6.932  0.0161  0.0862 -0.1929
64799W        W 7815   0.270  25.137   2.728 -0.0298 -0.0681 -0.0205
64800W        W 7816  29.428   1.007   7.803 -0.1496  0.1112 -0.0808
64801W        W 7817  22.828  25.930   6.461 -0.1687  0.2562  0.0564
64802W        W 7818   9.922   3.076   4.298 -0.0247 -0.1195  0.1941
64803W        W 7819  26.654  30.831   8.818  0.0095  0.0667  0.0414
64804W        W 7820   9.158  27.831   0.929 -0.0400 -0.0378  0.1709
64805W        W 7821   7.029  26.902  22.689  0.0566  0.1953  0.2751
64806W        W 7822  32.040  22.867   9.117 -0.1894  0.2024 -0.1682
64807W        W 7823   0.383  30.036  27.839  0.2821  0.0978 -0.0820
64808W        W 7824   8.011  14.065  13.859 -0.0810  0.0557 -0.3496
64809W        W 7825  29.897   4.950  22.513 -0.0085 -0.1023  0.3214
64810W        W 7826  33.055  34.769   4.845 -0.1012 -0.0271  0.2124
64811W        W 7827   8.776   3.707  21.471 -0.3561  0.1187  0.2209
64812W        W 7828  25.402  29.088  15.638  0.1401 -0.2115  0.0147
64813W        W 7829   1.521   2.693  25.214  0.5133  0.1880 -0.1708
64814W        W 7830  22.675  30.093   3.006 -0.7106  0.0769  0.2980
64815W        W 7831  16.328   1.057  28.235 -0.1063  0.2563 -0.1030
64816W        W 7832  10.328  30.839   8.203  0.2462  0.0167 -0.0284
64817W        W 7833  10.288  24.429   4.410  0.0162 -0.2102 -0.4469
64818W        W 7834   1.582  26.140   5.601  0.3136  0.1498  0.1050
64819W        W 7835  17.609  23.321   9.239 -0.1333 -0.1557 -0.3534
64820W        W 7836  24.884  24.744  16.774  0.0039  0.0268  0.1590
64821W        W 7837  10.176  24.474  13.377  0.3405  0.1047  0.1510
64822W        W 7838  11.190  24.683   6.019 -0.2348 -0.0107  0.5469
64823W        W 7839   6.973   2.066  21.936 -0.0365  0.0711  0.2283
64824W        W 7840   3.440  22.615  25.430  0.4320  0.2492  0.0013
64825W        W 7841  19.722   7.721   4.511 -0.0598 -0.0990 -0.0166
64826W        W 7842  21.014  12.946  16.972 -0.1614  0.1922  0.2569
64827W        W 7843  16.378  30.950  20.605 -0.1435  0.0094  0.1013
64828W        W 7844  12.489  25.613  16.444 -0.2287 -0.1537  0.1334
64829W        W 7845  11.589   1.871  24.259 -0.1494  0.0645 -0.3086
64830W        W 7846  18.701  25.435   2.646  0.3373  0.4526 -0.1406
64831W        W 7847  10.271  22.889  18.258  0.2702 -0.0091 -0.0714
64832W        W 7848   9.813   1.697  21.018  0.1944  0.2942  0.1282
64833W        W 7849  24.196  30.883  24.140  0.0951  0.2972 -0.0750
64834W        W 7850  29.528  28.262  28.345 -0.0504 -0.0760 -0.1415
64835W        W 7851  21.727   7.010  24.420 -0.2340 -0.2122  0.0158
64836W        W 7852  26.222  27.020  17.590  0.3161  0.3198 -0.0124
64837W        W 7853  28.614  21.063  25.951  0.3961  0.1580 -0.3486
64838W        W 7854   4.263  25.789  16.248 -0.1844 -0.1927 -0.1683
64839W        W 7855  12.269  27.603  22.580  0.1498  0.2706  0.1348
64840W        W 7856  10.939   2.705  20.535 -0.2084  0.1828 -0.0055
64841W        W 7857  19.071  26.387  17.230  0.1811 -0.1442  0.2762
64842W        W 7858   9.413   6.201  16.907  0.0191 -0.0311  0.1921
64843W        W 7859  32.523  26.904  15.788 -0.1156  0.0719 -0.1213
64844W        W 7860  26.028  34.548  21.351 -0.2194 -0.3201  0.2015
64845W        W 7861  10.393  24.955  16.809  0.1461  0.0399  0.2425
64846W        W 7862  33.099  26.445  15.497 -0.1616  0.1791  0.1392
64847W        W 7863  21.189   1.282  21.176 -0.1080 -0.4378 -0.1720
64848W        W 7864  20.298  32.796  17.000 -0.1793 -0.0782  0.2334
64849W        W 7865   7.557   2.145   2.746 -0.1504 -0.2904 -0.4936
64850W        W 7866   1.762  24.125  19.513 -0.0232 -0.1828 -0.0181
64851W        W 7867   7.392  28.836  20.235  0.0055  0.1522 -0.3318
64852W        W 7868  12.785  13.234  14.429 -0.0366  0.1327  0.2191
64853W        W 7869  11.610  21.554  20.849 -0.1322 -0.0983 -0.2011
64854W        W 7870  13.887  13.833  14.424  0.1024 -0.0600  0.1426
64855W        W 7871   4.881  33.323  21.591  0.2236 -0.0200  0.1584
64856W        W 7872  12.368  26.394  19.346 -0.0193  0.0414  0.2068
64857W        W 7873  16.338  30.913   5.066 -0.2490  0.1261 -0.2293
64858W        W 7874   8.738  34.736  22.274 -0.0645  0.2126 -0.1140
64859W        W 7875   7.235   2.740  17.446 -0.1769  0.1372  0.1333
64860W        W 7876  19.087   9.411  12.408  0.1290 -0.2654  0.2175
64861W        W 7877  11.471   4.107  16.773  0.1040  0.0340 -0.0437
64862W        W 7878  12.227   1.734  23.099 -0.0624  0.0338 -0.2194
64863W        W 7879  18.655  23.998  14.423 -0.4956 -0.1641  0.0491
64864W        W 7880  12.261  28.854  24.251  0.3367  0.0898  0.3026
64865W        W 7881   8.391  15.860  15.624  0.0008  0.3327 -0.1407
64866W        W 7882  31.789  28.806  16.500  0.0376  0.0255  0.1752
64867W        W 7883   9.352   7.003  22.468  0.2330 -0.2271  0.0390
64868W        W 7884  28.854  28.938   2.023  0.0207 -0.1143  0.2060
64869W        W 7885  31.405  34.390  20.462  0.0703  0.0115 -0.0220
64870W        W 7886  12.507   7.303  28.252 -0.3108  0.2144  0.0560
64871W        W 7887   6.361   1.466  23.096  0.1313  0.2681  0.0614
64872W        W 7888   4.302  20.021  13.267 -0.1085  0.0763  0.1089
64873W        W 7889  32.688  33.333  25.153 -0.1855 -0.2323 -0.1519
64874W        W 7890  14.223  34.541  27.998  0.0019  0.2728 -0.2170
64875W        W 7891  21.669  34.070  17.096 -0.3564 -0.2465 -0.1366
64876W        W 7892  26.924  19.301   6.789 -0.5507 -0.1068  0.0454
64877W        W 7893   6.753  33.830  17.102 -0.0460  0.0631  0.1587
64878W        W 7894  19.286   8.226  25.703 -0.1705 -0.0065 -0.0982
64879W        W 7895  21.553  33.087  16.930 -0.0336  0.3132 -0.0873
64880W        W 7896  20.281   5.765  18.355 -0.2800  0.0866 -0.0681
64881W        W 7897  27.947  25.669  20.645 -0.1374 -0.2133 -0.0579
64882W        W 7898  15.010  26.792  23.602 -0.1841  0.0044 -0.1173
64883W        W 7899   5.663  29.931  21.132 -0.0039 -0.1015 -0.4061
64884W        W 7900   3.739  21.448  21.391 -0.3454  0.0293 -0.4103
64885W        W 7901   6.221  22.087  25.472 -0.0119 -0.0847 -0.0516
64886W        W 7902  10.130   1.398  17.835 -0.2571  0.1634 -0.0611
64887W        W 7903   4.512  20.315  22.692 -0.0737  0.1879  0.0259
64888W        W 7904  13.682  31.582  17.468 -0.3292  0.0269  0.0928
64889W        W 7905  13.804  24.762   3.135 -0.4251  0.0463  0.0535
64890W        W 7906  28.594  30.794   1.407  0.1247  0.1550  0.2372
64891W        W 7907  33.812  12.835  23.906  0.1749 -0.3043  0.0769
64892W        W 7908  28.906  19.711  25.251  0.1928 -0.1385  0.1014
64893W        W 7909  21.575  27.075  14.968  0.0066 -0.1813 -0.1816
64894W        W 7910  17.869  23.276  22.138 -0.0536 -0.2427 -0.2185
64895W        W 7911   7.713   1.598  18.834  0.0150 -0.0013  0.0636
64896W        W 7912  12.439   1.882  18.432 -0.2919 -0.2728 -0.2886
64897W        W 7913  30.072  24.562  27.413 -0.1395  0.3713 -0.1232
64898W        W 7914   8.306  31.270  16.502 -0.3910 -0.2697 -0.1074
64899W        W 7915  28.793  33.126  17.844 -0.1398 -0.1094 -0.0310
64900W        W 7916   9.762  24.152  26.978  0.2476  0.1808  0.1852
64901W        W 7917   3.292   1.459  19.730 -0.1947  0.1053 -0.1950
64902W        W 7918  15.205   3.199  19.010  0.1305 -0.2032  0.1911
64903W        W 7919   8.535  33.613  20.617  0.0928  0.2421  0.0802
64904W        W 7920   8.438   3.477  25.001  0.0842  0.0988 -0.0390
64905W        W 7921   0.981  14.240  24.804 -0.3875  0.1735  0.2378
64906W        W 7922   3.806  12.337  20.130  0.0277 -0.0128 -0.1796
64907W        W 7923   9.103   2.003  20.391  0.0663 -0.0684  0.0386
64908W        W 7924  18.390  31.738  26.888  0.1717  0.1575  0.0576
64909W        W 7925   2.130  18.337  15.761 -0.0695  0.2353 -0.0910
64910W        W 7926   6.549   1.394   3.297  0.0933 -0.2258  0.2328
64911W        W 7927  24.594  30.886  15.905  0.1083  0.0729 -0.3173
64912W        W 7928   1.735  28.606  19.465 -0.0282  0.1001 -0.2471
64913W        W 7929   3.034   8.834   0.758 -0.4239 -0.0050  0.1476
64914W        W 7930   8.468  24.690  22.001  0.0216  0.1886 -0.3029
64915W        W 7931  23.308  33.697  25.149 -0.2189  0.0478 -0.1644
64916W        W 7932   8.062   1.703  27.429  0.1463  0.3160 -0.1775
64917W        W 7933   8.224  30.077   7.586 -0.1167  0.1230 -0.0097
64918W        W 7934  18.502  31.820  14.903 -0.1095 -0.1368 -0.2310
64919W        W 7935   6.967  33.175  19.392 -0.0738 -0.0035  0.2532
64920W        W 7936   6.023   8.797  18.603 -0.2633  0.0362 -0.0307
64921W        W 7937  18.812  33.103  16.734  0.1532  0.1489  0.0960
64922W        W 7938  11.967   8.070  28.589 -0.1851 -0.2145  0.4006
64923W        W 7939   8.912  15.290  18.784  0.1088 -0.1417 -0.3194
64924W        W 7940  27.959   3.943  19.415 -0.1558  0.1488  0.0598
64925W        W 7941  10.443   9.540   3.362  0.1431  0.4316 -0.3880
64926W        W 7942  20.216  23.739  13.199 -0.3578 -0.0853 -0.2435
64927W        W 7943  13.614  32.481  17.749  0.1609 -0.0648 -0.1481
64928W        W 7944  23.403  14.158  17.489 -0.0102  0.1865  0.2226
64929W        W 7945  12.809  33.961  23.332  0.0823 -0.1485  0.2203
64930W        W 7946   2.043  22.217   0.915 -0.0708  0.0047  0.1345
64931W        W 7947   3.621   1.262  14.590 -0.2416  0.3965  0.0855
64932W        W 7948  12.479   0.032  17.327  0.0404 -0.1997  0.2879
64933W        W 7949   6.028  25.563  17.513 -0.0706 -0.0482 -0.0830
64934W        W 7950  17.053   8.212  20.666 -0.3806 -0.1834 -0.2832
64935W        W 7951  19.171  31.967  26.348  0.2622 -0.4104  0.0859
64936W        W 7952   4.362  14.907  16.057 -0.0944 -0.1226 -0.1728
64937W        W 7953   6.546  19.594   8.655 -0.1640 -0.0819 -0.3473
64938W        W 7954  18.708  31.758  15.823  0.1311  0.1600 -0.1109
64939W        W 7955  24.751  25.157  25.199  0.2254 -0.2198  0.0971
64940W        W 7956  22.504   0.256  18.026 -0.3562  0.0451  0.1843
64941W        W 7957  18.042   8.727  25.375 -0.0123 -0.1223  0.2425
64942W        W 7958  25.183  23.676   0.188  0.3427 -0.0355 -0.7629
64943W        W 7959  16.689  22.683   5.163  0.0368 -0.2829  0.1028
64944W        W 7960   4.554   2.274   2.569 -0.2620 -0.0930 -0.3041
64945W        W 7961   6.713  32.713  20.488  0.1875 -0.3444 -0.1386
64946W        W 7962  11.143  32.181  20.366  0.0786  0.1882 -0.1038
64947W        W 7963  27.563   8.100  20.713 -0.0353  0.1061 -0.0809
64948W        W 7964  11.116   3.092  27.197 -0.2875 -0.0210  0.1461
64949W        W 7965  15.401   6.925  27.179 -0.1221 -0.1193 -0.2696
64950W        W 7966  10.669  33.016  13.955 -0.0859 -0.0502  0.1096
64951W        W 7967  22.945  21.311  20.186 -0.0106 -0.0247 -0.0222
64952W        W 7968   4.580  15.728   2.243  0.0502  0.1635 -0.1852
64953W        W 7969   0.973  11.837   1.728 -0.1331  0.0765 -0.0890
64954W        W 7970   5.045  15.307  19.535  0.1407  0.0710 -0.2481
64955W        W 7971  18.322   6.851  20.091 -0.0677  0.0183  0.0389
64956W        W 7972   9.359   3.912  19.562  0.1247 -0.0580  0.1121
64957W        W 7973  31.693  27.764  20.935  0.1285  0.1636  0.0556
64958W        W 7974  18.080   9.512   1.267  0.0804 -0.5774 -0.1612
64959W        W 7975   4.990  26.394  26.290  0.2119 -0.2803 -0.2277
64960W        W 7976  32.353   7.041  21.178 -0.0621  0.0177  0.0135
64961W        W 7977  14.796   9.582  23.819  0.0790 -0.2487  0.1547
64962W        W 7978  12.507   3.525  21.817  0.3691  0.3121  0.0526
64963W        W 7979  16.437  29.140  15.673 -0.0699  0.0631  0.2999
64964W        W 7980  10.878  13.149  14.255 -0.1080 -0.2422  0.6085
64965W        W 7981   5.659   9.527  19.345 -0.1713  0.2848  0.1104
64966W        W 7982  24.947  28.575  17.791  0.2689  0.0458 -0.1488
64967W        W 7983  26.706  25.403   0.558 -0.1805  0.0187  0.3560
64968W        W 7984   0.532  26.975  14.580  0.1819 -0.2948  0.1533
64969W        W 7985   8.953  19.568  26.177 -0.1676 -0.2767 -0.0343
64970W        W 7986  19.835  27.127  15.782 -0.2623 -0.1431 -0.4062
64971W        W 7987   8.504  24.264  19.675  0.3404  0.0231 -0.2159
64972W        W 7988  14.135  19.428   2.570 -0.1331 -0.0959  0.2432
64973W        W 7989  23.222  31.192  16.088  0.2845  0.0418 -0.0785
64974W        W 7990  30.569   8.608  19.815 -0.2997  0.3886 -0.1082
64975W        W 7991  26.445  33.621   0.143  0.2594  0.1983  0.1059
64976W        W 7992  13.655  25.291  15.642 -0.0230 -0.2364  0.1645
64977W        W 7993  14.720   3.930  15.900 -0.0160  0.3989  0.1484
64978W        W 7994  11.601  24.637  19.523 -0.0582 -0.0641  0.0210
64979W        W 7995  32.991  29.823  15.647  0.1234  0.1122 -0.1130
64980W        W 7996  25.122  27.970  15.522  0.1662  0.1040 -0.1580
64981W        W 7997  11.467   3.492  28.992  0.1341 -0.1072  0.0076
64982W        W 7998   1.571  13.091  25.153  0.1899 -0.2340 -0.0713
64983W        W 7999  28.046   1.996   0.393 -0.0598  0.1929  0.1013
64984W        W 8000  17.854  28.188  20.818 -0.1050 -0.2138  0.1882
64985W        W 8001   2.325  32.666  17.875  0.0526 -0.0286  0.2947
64986W        W 8002  13.944  30.778  25.882  0.0020  0.0404  0.1276
64987W        W 8003   1.224  16.194  22.001 -0.0644  0.0333 -0.1399
64988W        W 8004  16.759  34.382   2.293  0.0554 -0.1235  0.0077
64989W        W 8005  18.433  33.730   7.904 -0.3010  0.1290  0.1015
64990W        W 8006  13.159  10.273  14.416  0.0833  0.0555 -0.3864
64991W        W 8007   4.919  34.203  14.371 -0.1543  0.1571  0.0463
64992W        W 8008  22.784  34.245  21.716  0.2427  0.1266 -0.0500
64993W        W 8009  28.475  19.246  28.518 -0.0626 -0.0315  0.3157
64994W        W 8010  20.154  20.878   7.595 -0.4649  0.0835  0.1143
64995W        W 8011  18.199   4.043   2.779 -0.0929 -0.0478  0.3439
64996W        W 8012  13.831  29.009  20.371  0.1664  0.1068  0.4783
64997W        W 8013  11.211  18.098  15.542 -0.3641  0.0723  0.3576
64998W        W 8014  13.084   4.559  23.198 -0.2309 -0.1847 -0.1526
64999W        W 8015   2.626  25.933  16.447 -0.1862 -0.1445 -0.0114
65000W        W 8016  24.919  30.561   3.109 -0.2152  0.0328 -0.1389
65001W        W 8017   9.494  31.116  20.818  0.2719 -0.2508 -0.0786
65002W        W 8018  24.457  11.140  21.445 -0.0642 -0.3158  0.1712
65003W        W 8019  15.307  29.663  16.522  0.0046 -0.4801  0.0512
65004W        W 8020  23.200  33.769  22.996  0.1542  0.1054  0.1318
65005W        W 8021  18.103   0.010  25.985 -0.0097  0.1527  0.0701
65006W        W 8022   1.893  25.543  23.542 -0.0538 -0.1593  0.1521
65007W        W 8023   9.398  31.287   2.083 -0.0335 -0.2896  0.2137
65008W        W 8024   7.314  33.546  17.795  0.4859  0.1879  0.3086
65009W        W 8025  19.137   2.261   1.151 -0.0964  0.4562 -0.1235
65010W        W 8026   8.827  33.474  16.188 -0.2556  0.2330 -0.0677
65011W        W 8027  29.436  30.070  17.677 -0.1503  0.1292  0.2146
65012W        W 8028  24.968  19.346  19.123  0.0933 -0.1847 -0.2416
65013W        W 8029  13.911  29.355   1.358  0.0552  0.1961 -0.3009
65014W        W 8030  13.093   5.277  25.681 -0.1860  0.2351  0.1057
65015W        W 8031  19.678  31.564  19.734  0.0441  0.0259  0.2474
65016W        W 8032  28.315  30.276  18.743 -0.2072  0.2874  0.0227
65017W        W 8033  11.856   9.753  19.108  0.0039 -0.0139 -0.0420
65018W        W 8034  15.761  30.611  16.319  0.2502 -0.1964  0.2625
65019W        W 8035  25.052  33.377  23.776 -0.0491  0.0311 -0.1478
65020W        W 8036  19.306   0.100  21.489  0.1659  0.0906  0.0347
65021W        W 8037   2.776  10.865   0.664 -0.2135 -0.0436  0.2696
65022W        W 8038   6.286  25.251  16.457 -0.1341  0.6536  0.0060
65023W        W 8039  10.237  20.736  18.358 -0.0346 -0.0184  0.0506
65024W        W 8040   5.917   4.545  15.617  0.2464  0.1115  0.1646
65025W        W 8041  21.600  31.077  15.183 -0.0738  0.0578 -0.0908
65026W        W 8042  32.313   8.514  14.676 -0.3090  0.1351 -0.0630
65027W        W 8043  13.145  28.225  16.963 -0.1517 -0.0232 -0.1180
65028W        W 8044  26.569  30.316  18.640 -0.0573 -0.1055  0.2746
65029W        W 8045  25.399  34.129  28.435 -0.2443 -0.1198  0.0533
65030W        W 8046  10.062  10.450   2.049  0.2115  0.1804  0.2438
65031W        W 8047  20.391  27.628  18.635 -0.1232 -0.0349 -0.0276
65032W        W 8048  12.339  30.929  19.629 -0.1114 -0.0411 -0.0380
65033W        W 8049  22.632  30.868  15.227  0.2799  0.2713 -0.3060
65034W        W 8050   8.525  29.403  15.388 -0.0728 -0.0379  0.4171
65035W        W 8051  20.934   9.857  23.623 -0.1581  0.2180  0.1650
65036W        W 8052  34.666  29.410   6.161 -0.0275  0.1382  0.2180
65037W        W 8053  13.973   5.132  18.008  0.0118  0.0145  0.0076
65038W        W 8054   6.985   4.064  24.694 -0.2781 -0.2513 -0.0607
65039W        W 8055  19.206  30.197  20.534  0.1664 -0.0185  0.0765
65040W        W 8056  13.210  29.818  28.297 -0.0890  0.1270  0.3143
65041W        W 8057  18.344  33.901  24.994  0.0283  0.3253  0.0076
65042W        W 8058   3.112  12.388  18.300  0.0719 -0.0624 -0.2543
65043W        W 8059  14.211  31.457  15.495  0.1112 -0.2704 -0.2606
65044W        W 8060  20.862  29.453  26.555  0.2912  0.0123  0.1782
65045W        W 8061  34.727   1.402  18.381  0.0095 -0.1438  0.2562
65046W        W 8062  17.223  29.413  19.490  0.1173 -0.0740 -0.0496
65047W        W 8063  23.022  32.612  17.293  0.3688 -0.0931  0.2382
65048W        W 8064  18.983  34.354  18.338 -0.0026  0.1634  0.1104
65049W        W 8065   8.194  28.518  15.167  0.1805  0.1198 -0.0175
65050W        W 8066   9.811  20.101  13.332 -0.1873 -0.0724 -0.0326
65051W        W 8067  10.347  26.061  19.880  0.0097 -0.2874 -0.3227
65052W        W 8068  32.977  32.092  15.159 -0.0957  0.0118  0.1393
65053W        W 8069   7.357  33.762  23.484  0.0952  0.1362 -0.0052
65054W        W 8070  22.875   2.431  20.467 -0.1702 -0.2294  0.5749
65055W        W 8071  33.235   7.903  24.783 -0.2072 -0.0458  0.0268
65056W        W 8072   2.950  17.343  23.458  0.1367  0.2449  0.0142
65057W        W 8073  24.091  14.024  15.070  0.2593 -0.0053 -0.1352
65058W        W 8074  20.392  25.608   2.998  0.0783  0.0098 -0.1122
65059W        W 8075  11.040  26.611  14.068 -0.0751  0.1566 -0.0273
65060W        W 8076   9.213  19.210  24.211 -0.0779 -0.0534  0.1327
65061W        W 8077  23.425  20.015  17.860 -0.1413  0.4624  0.0954
65062W        W 8078  32.760  25.999  15.669  0.2638 -0.2714 -0.1078
65063W        W 8079  14.141  34.276  16.024 -0.0490 -0.0851  0.2410
65064W        W 8080  11.239   4.743  18.866 -0.0051 -0.1152  0.0284
65065W        W 8081   1.999  34.423  16.756 -0.1229  0.2476  0.0714
65066W        W 8082   1.433   4.936  16.242  0.1770  0.0783 -0.1236
65067W        W 8083  13.963   2.105  19.840  0.3425  0.1478 -0.0654
65068W        W 8084  21.194  29.644  20.069  0.0335  0.2124  0.1143
65069W        W 8085  22.856  33.031   0.701  0.1644 -0.0696  0.0557
65070W        W 8086  13.859  25.527  16.013 -0.0490 -0.2939  0.1595
65071W        W 8087  15.271  18.419  15.419 -0.1059 -0.2600 -0.1172
65072W        W 8088  17.673   8.086  13.879 -0.5297  0.0805 -0.0551
65073W        W 8089  18.174   3.227  24.338  0.0477  0.0204  0.1709
65074W        W 8090  33.979   1.086  20.132 -0.0471 -0.1023 -0.3098
65075W        W 8091   5.184  28.216  14.232 -0.0861  0.0118  0.2781
65076W        W 8092   7.127  27.442  18.744 -0.0917 -0.0715  0.0363
65077W        W 8093  31.117  32.534  19.588 -0.0422 -0.0770 -0.0289
65078W        W 8094  31.833  18.236  21.856  0.1816  0.1586 -0.1002
65079W        W 8095  18.529  32.239   4.638 -0.0857  0.0648  0.1696
65080W        W 8096  19.929   7.973  19.281  0.0981 -0.0919 -0.1196
65081W        W 8097   0.558  30.235  18.116  0.0626  0.2333  0.2018
65082W        W 8098  10.985  28.106  25.132  0.0487 -0.0945  0.1229
65083W        W 8099   6.912  31.736  16.798  0.1775  0.0497 -0.0656
65084W        W 8100  27.082  17.677  19.053  0.3557 -0.1495 -0.2618
65085W        W 8101  11.855   6.767  18.268 -0.0982  0.2173 -0.1745
65086W        W 8102  28.817  11.086  24.840 -0.0462  0.1629  0.2815
65087W        W 8103  25.179   2.512  19.813  0.0681 -0.0003  0.2863
65088W        W 8104  13.282   7.672  16.702 -0.1966  0.2752 -0.1621
65089W        W 8105   6.066   3.790  15.047  0.0348 -0.3019  0.1572
65090W        W 8106   9.072  23.903  22.000 -0.2146 -0.3153 -0.1230
65091W        W 8107   5.437   5.190   8.137 -0.2164  0.1160 -0.1219
65092W        W 8108   8.643  25.069  28.755 -0.0553 -0.1942 -0.0306
65093W        W 8109   2.606  32.029  16.092 -0.2003  0.0971  0.0920
65094W        W 8110   4.696   7.857  20.024  0.4347 -0.0913 -0.2756
65095W        W 8111   0.595   6.205  29.026 -0.0232  0.4890  0.0295
65096W        W 8112   9.234   2.766   7.160 -0.0553 -0.1541 -0.2693
65097W        W 8113  15.079   1.319  16.900 -0.1392  0.1652  0.3256
65098W        W 8114  19.721  33.753   3.384  0.1554  0.3862  0.2412
65099W        W 8115  10.553   0.592  17.261 -0.0667  0.0871  0.1867
65100W        W 8116  14.088  18.570  12.313  0.1031 -0.2243  0.0462
65101W        W 8117  14.342   6.497  22.495  0.0710 -0.0856  0.0227
65102W        W 8118  12.822  10.695  23.448 -0.1034  0.0673  0.1546
65103W        W 8119  14.895  18.282  15.689  0.0309 -0.2037 -0.0856
65104W        W 8120  15.383   1.196  17.818 -0.0787  0.0771 -0.1882
65105W        W 8121  17.440  31.943  19.906  0.3097  0.1448  0.2982
65106W        W 8122  16.718   7.420  21.371 -0.3198  0.3595  0.1401
65107W        W 8123   7.378   9.809  17.116 -0.0211  0.0725  0.2882
65108W        W 8124   9.963   7.523  16.663 -0.1781 -0.0435 -0.0984
65109W        W 8125  29.992  34.174   4.375  0.0181 -0.1610  0.0700
65110W        W 8126   1.018   5.675  25.261  0.1932  0.0819 -0.2591
65111W        W 8127  10.241  17.329  12.338  0.0177  0.3323  0.2145
65112W        W 8128   9.196  28.745  17.316  0.0269  0.0235 -0.3378
65113W        W 8129  23.427  24.855  23.309  0.1504 -0.3288 -0.0297
65114W        W 8130  20.200  18.095  12.723  0.3132 -0.1523 -0.2915
65115W        W 8131   7.729  18.456  20.818  0.2045  0.0046 -0.0212
65116W        W 8132  18.063  18.112  14.847  0.2120  0.1811 -0.0871
65117W        W 8133  33.577  31.167  26.172 -0.1058  0.3422  0.0096
65118W        W 8134  21.699   3.671  17.511  0.3244 -0.0551  0.0031
65119W        W 8135  19.903  32.157  24.761  0.0360 -0.0904 -0.2028
65120W        W 8136  14.754  28.734  22.470  0.1608  0.2312 -0.2371
65121W        W 8137   8.776   2.691  26.081  0.1907  0.0236 -0.3460
65122W        W 8138   9.955  34.317  24.064 -0.0305  0.1077  0.4022
65123W        W 8139   7.640   3.907  13.970  0.1213  0.1716 -0.0464
65124W        W 8140  17.621   9.867  21.829  0.0631  0.4318 -0.0592
65125W        W 8141  30.521  22.172  21.106 -0.1399 -0.2005  0.0574
65126W        W 8142  24.037   1.926   5.538  0.1896  0.1514  0.0683
65127W        W 8143  11.361   2.992  14.888 -0.0408 -0.0559 -0.0813
65128W        W 8144   6.758  31.535  27.233  0.0876  0.0628 -0.4057
65129W        W 8145   5.042   4.163   0.783 -0.0443 -0.0933 -0.1855
65130W        W 8146   1.878  34.580  18.093 -0.1076 -0.0577 -0.1142
65131W        W 8147  17.986  31.684  16.905 -0.2380  0.0402 -0.2168
65132W        W 8148  22.606  32.973  17.633 -0.5505 -0.1416  0.2116
65133W        W 8149   7.050  33.035  18.848 -0.0909 -0.0011  0.1097
65134W        W 8150  21.347  22.526  18.994 -0.0015 -0.4022  0.0426
65135W        W 8151   9.353   3.558   1.118  0.0896  0.0606  0.0593
65136W        W 8152  11.977  10.963  22.716  0.1389  0.2163 -0.0878
65137W        W 8153  15.220  12.209  19.784 -0.2118 -0.1181 -0.1905
65138W        W 8154  17.872  30.991  18.374  0.3831 -0.2085 -0.2074
65139W        W 8155  10.818   2.893  14.641 -0.0322 -0.2047  0.0564
65140W        W 8156   9.170   1.970  15.926  0.1934  0.2347 -0.2369
65141W        W 8157  16.093   6.732  28.994 -0.2563  0.0218 -0.0670
65142W        W 8158  12.397   8.897  18.208  0.0156  0.0379  0.2616
65143W        W 8159  14.919  32.893  18.127 -0.2151 -0.0732  0.1034
65144W        W 8160   2.532  24.230  23.211 -0.5070  0.0906 -0.1885
65145W        W 8161  14.067  11.221  25.509  0.0479 -0.0221  0.0237
65146W        W 8162   8.977  30.920  16.971  0.0256 -0.0176 -0.1221
65147W        W 8163  13.147   2.381  16.648 -0.0044  0.5192  0.1241
65148W        W 8164  23.391  28.527  25.060  0.2425  0.0364  0.1649
65149W        W 8165  17.504  20.945   7.164 -0.0396 -0.1446 -0.2071
65150W        W 8166  31.040  34.115  20.147  0.2699 -0.1948 -0.0547
65151W        W 8167  11.509  23.600  15.783  0.1522 -0.0062  0.1561
65152W        W 8168  11.166  33.238  22.185  0.2044  0.1735  0.0109
65153W        W 8169   8.819  25.903  25.038 -0.0628  0.2800  0.3775
65154W        W 8170  18.059   3.251  13.227 -0.3204  0.1400  0.1367
65155W        W 8171   7.148  33.786  14.408  0.3963  0.2653 -0.0957
65156W        W 8172  15.462  20.739  19.667  0.0199 -0.0451 -0.0568
65157W        W 8173   7.494   1.771  17.802 -0.2151  0.0095  0.0916
65158W        W 8174  23.206   9.445  14.619 -0.0488 -0.0939 -0.0721
65159W        W 8175   7.246  25.385  14.925  0.2495 -0.1971 -0.0934
65160W        W 8176  34.082  31.071  21.228  0.0398 -0.2542  0.0964
65161W        W 8177  20.114  29.309  21.083 -0.2559 -0.1460  0.0759
65162W        W 8178  12.596  27.054  14.729 -0.0270 -0.0420 -0.0103
65163W        W 8179  15.590  10.285  23.112  0.1722  0.0512  0.3327
65164W        W 8180  12.205   6.004   4.388  0.2700  0.4560  0.2410
65165W        W 8181  30.875  30.077  28.440 -0.2964 -0.4503  0.2413
65166W        W 8182   3.951   2.789  19.802 -0.0927 -0.2327  0.2045
65167W        W 8183  11.525   7.378  14.226  0.3901 -0.1268  0.0907
65168W        W 8184   0.371   3.378  19.414 -0.4020 -0.0970 -0.0937
65169W        W 8185   2.720  27.796  20.320 -0.1846 -0.2388 -0.1479
65170W        W 8186  17.791  21.209  13.204  0.2341 -0.1788 -0.1072
65171W        W 8187   6.684  18.552  16.045 -0.2644 -0.1935 -0.1449
65172W        W 8188  11.055   3.927  24.767 -0.0515  0.3020  0.0145
65173W        W 8189  11.119   2.305  19.752  0.1774  0.2053  0.0934
65174W        W 8190   5.940  20.315  20.689  0.3561  0.0147  0.0071
65175W        W 8191   5.710  26.482  20.971  0.0743  0.3087 -0.0880
65176W        W 8192  17.122  26.207  14.245 -0.1747 -0.3407  0.0785
65177W        W 8193  20.765  25.984  25.637  0.0537 -0.1361  0.4721
65178W        W 8194  18.822   4.276  16.754  0.1083 -0.2571 -0.0535
65179W        W 8195  10.894  31.925  21.318 -0.1091 -0.2155 -0.1848
65180W        W 8196  26.713  14.552  19.127  0.1613 -0.0882 -0.2829
65181W        W 8197  33.189  31.898  17.225  0.0513 -0.0610  0.0417
65182W        W 8198   5.861  32.301  20.915 -0.1638  0.0314 -0.1786
65183W        W 8199   2.483  19.671   1.366  0.2172 -0.1272 -0.3219
65184W        W 8200  17.799  30.889  24.712 -0.1232  0.0923  0.0226
65185W        W 8201  10.838  28.261  19.715 -0.0748  0.1567  0.4964
65186W        W 8202  28.919  33.673  27.601  0.0607  0.1003  0.1058
65187W        W 8203  31.517  18.448  16.383  0.0449 -0.1280  0.0472
65188W        W 8204  10.034  30.499   0.938 -0.0394  0.1469 -0.3546
65189W        W 8205  21.804  24.060  17.078  0.1841  0.1784 -0.2186
65190W        W 8206  26.348   0.871  18.276 -0.1065  0.1364 -0.0609
65191W        W 8207  30.512  25.206  22.503  0.1266  0.2498  0.0593
65192W        W 8208  12.878  28.002  20.055  0.1188  0.1559  0.2240
65193W        W 8209  15.018   0.114  15.004  0.0923 -0.3591 -0.0367
65194W        W 8210  11.496   3.196  21.470 -0.3767 -0.0149  0.1766
65195W        W 8211  24.459  29.785  15.304  0.0480 -0.0658  0.2102
65196W        W 8212   6.241  25.690  28.908  0.0081  0.4191 -0.0909
65197W        W 8213  11.415  29.917   4.139  0.4333  0.0527  0.0037
65198W        W 8214  18.978   6.859  24.627 -0.0540  0.1009  0.0007
65199W        W 8215  19.353   1.164   7.185 -0.4155  0.2836 -0.0488
65200W        W 8216   2.040   8.312  20.765  0.3738 -0.0015  0.4084
65201W        W 8217  17.586  31.713   2.071  0.1186 -0.1658 -0.2000
65202W        W 8218   5.899   1.110  20.465 -0.0174 -0.1989 -0.1625
65203W        W 8219  14.604  32.072  19.981 -0.2404 -0.3616 -0.0190
65204W        W 8220  14.534  19.103  15.081  0.0967 -0.1913 -0.2206
65205W        W 8221   2.450  29.324  17.328  0.2781  0.0622  0.0987
65206W        W 8222  12.681  32.562  15.057  0.0719  0.2657  0.2398
65207W        W 8223  19.452   1.292  23.039 -0.0935 -0.0523 -0.1295
65208W        W 8224   4.562  11.028  15.536  0.0360 -0.1109 -0.2439
65209W        W 8225  15.937   0.763  21.222  0.1310  0.3648 -0.0254
65210W        W 8226   3.172  29.352  19.812  0.0007  0.1257 -0.2505
65211W        W 8227   9.219   6.380  15.013 -0.0528 -0.1849  0.0775
65212W        W 8228  17.393   5.879  13.994  0.0949 -0.3190  0.2326
65213W        W 8229   0.722   4.882  17.959  0.0452  0.0252  0.2323
65214W        W 8230  32.238   1.102  19.969  0.1720 -0.0143 -0.0330
65215W        W 8231   9.622  23.818   2.472 -0.2023  0.0639  0.1907
65216W        W 8232  16.883   5.540  20.698  0.1875  0.1866 -0.2155
65217W        W 8233  12.000   6.095  22.066 -0.1461 -0.0424 -0.0312
65218W        W 8234  13.079   4.838  18.402  0.0381 -0.1963 -0.1700
65219W        W 8235  23.677  33.405  27.187 -0.1099  0.2868 -0.1652
65220W        W 8236   5.526  23.424   1.966  0.1301  0.2596 -0.0005
65221W        W 8237  19.172   6.010  21.906 -0.1389 -0.1319  0.0438
65222W        W 8238  23.464  34.590  21.409  0.2942 -0.3249 -0.0582
65223W        W 8239  23.652  21.646  16.047  0.0440 -0.3860  0.2171
65224W        W 8240  26.995  22.672  26.376  0.1858 -0.0383  0.2270
65225W        W 8241  32.150  25.950  19.133 -0.0478 -0.0269  0.2277
65226W        W 8242  28.102   1.928   6.776 -0.1234 -0.1736 -0.0671
65227W        W 8243  11.674  27.384  18.169  0.0976 -0.2211  0.1127
65228W        W 8244   0.975   0.078  15.190 -0.0909 -0.3317  0.1794
65229W        W 8245   8.310  34.061  17.689 -0.2656  0.3048 -0.4825
65230W        W 8246   5.573  29.676  13.730  0.0756 -0.0346  0.1968
65231W        W 8247  22.148  29.437  20.236 -0.2980  0.1419  0.2545
65232W        W 8248  12.815   9.688  27.535  0.0986 -0.1254 -0.0020
65233W        W 8249   5.496  17.736  28.434 -0.1602 -0.2635  0.2861
65234W        W 8250   1.851  18.600  17.174  0.2618 -0.0276 -0.1815
65235W        W 8251  11.190  21.392  20.693 -0.0920  0.1121 -0.1531
65236W        W 8252  33.280  21.213   2.838 -0.1060  0.0620  0.1366
65237W        W 8253   4.709  27.995  18.927  0.1526 -0.0810 -0.0982
65238W        W 8254  18.765  34.116   0.287 -0.1354  0.0648 -0.1364
65239W        W 8255  20.111  25.327  13.751  0.1179 -0.1949  0.0540
65240W        W 8256  33.479  25.136  20.805 -0.2302 -0.0529 -0.1616
65241W        W 8257  14.848  31.218  19.028  0.0116 -0.0037  0.0863
65242W        W 8258   0.529  20.572  15.689  0.2713  0.3114  0.0684
65243W        W 8259  23.495  20.601  16.769 -0.1373 -0.1073  0.0523
65244W        W 8260  15.966  27.513  18.186 -0.2458 -0.0860  0.1596
65245W        W 8261   6.358  33.413  15.502  0.2702  0.0825  0.1348
65246W        W 8262   7.841  20.777   6.619  0.1282 -0.1895 -0.1349
65247W        W 8263  33.226  11.675   1.455  0.0029  0.3680 -0.2803
65248W        W 8264  23.999  29.138  22.297  0.0008  0.1386 -0.0501
65249W        W 8265  19.692   5.889  22.130  0.0436 -0.0604 -0.1706
65250W        W 8266   1.785  28.061  25.415  0.0049 -0.0533 -0.1376
65251W        W 8267   6.430  25.773  15.423 -0.0444  0.6669 -0.0349
65252W        W 8268  11.150  13.929  15.141 -0.0033  0.1553 -0.0597
65253W        W 8269  12.790   4.255  15.002  0.3897  0.1781  0.0085
65254W        W 8270   0.663   0.976  24.675  0.1334 -0.1251 -0.0038
65255W        W 8271  33.194  33.084  15.140  0.3465  0.3065  0.0913
65256W        W 8272  11.030  22.935  19.488 -0.1873 -0.2981 -0.1748
65257W        W 8273  33.757  34.652  23.595 -0.2407 -0.0211  0.0640
65258W        W 8274  15.837   0.795  15.018  0.0079  0.0635 -0.2242
65259W        W 8275  16.883  15.207  15.889 -0.3494 -0.2097  0.0850
65260W        W 8276  11.648  32.185  16.041  0.0914  0.2251 -0.2204
65261W        W 8277  18.112   0.363  17.968  0.0124 -0.1247 -0.1435
65262W        W 8278  20.260   8.790  14.657 -0.0890 -0.1100  0.3682
65263W        W 8279  17.559  32.017   0.773  0.0987  0.1759  0.2006
65264W        W 8280  13.011  14.247  19.490 -0.0945 -0.2179 -0.2294
65265W        W 8281  15.810   3.235  16.733  0.0646 -0.1397 -0.1303
65266W        W 8282  13.757  13.101  12.941  0.4089  0.1466  0.1466
65267W        W 8283  25.500   1.847  16.554 -0.0769  0.1880  0.3061
65268W        W 8284   1.238   2.690  22.971 -0.1654  0.0071  0.0669
65269W        W 8285  31.678  26.495   0.547  0.0035 -0.2316 -0.0168
65270W        W 8286  19.915   7.695  19.719  0.3210  0.0563  0.0461
65271W        W 8287  16.666  34.387  22.509 -0.2206  0.4745  0.3899
65272W        W 8288  16.278  28.185  14.204 -0.0469 -0.2082 -0.2325
65273W        W 8289  34.740  25.615  14.916  0.4409  0.0873 -0.0442
65274W        W 8290  18.518  25.251  14.615  0.0907  0.1400 -0.2640
65275W        W 8291   8.051   5.100  18.170  0.0076  0.0899  0.1115
65276W        W 8292   2.627   3.594   6.303 -0.0038  0.3040  0.2129
65277W        W 8293  10.555  27.571   9.580  0.0062 -0.0907 -0.0458
65278W        W 8294   6.817  17.313  16.220 -0.0271 -0.0422  0.3381
65279W        W 8295  16.405   5.405  20.881 -0.1837  0.4930 -0.1047
65280W        W 8296  16.903  29.080  19.305  0.0003  0.3429  0.1457
65281W        W 8297  21.637  27.005  19.267 -0.1355  0.0364 -0.1900
65282W        W 8298  31.634  34.287  16.335 -0.0070 -0.0445 -0.1206
65283W        W 8299  17.186  21.952   5.233  0.1695 -0.0107  0.4051
65284W        W 8300  10.165  23.250  19.137 -0.0583 -0.0051  0.3808
65285W        W 8301  10.719   1.755  26.686  0.2155  0.1164 -0.0517
65286W        W 8302   7.421  17.607  15.312  0.1729 -0.0079  0.3069
65287W        W 8303   5.293  19.778  26.791  0.1324  0.0504 -0.1636
65288W        W 8304  14.345  27.127  21.356  0.0420 -0.3645 -0.2728
65289W        W 8305   0.060   0.185  22.175  0.0819  0.0450 -0.0309
65290W        W 8306  17.018  28.425  19.964  0.0076 -0.3399 -0.0711
65291W        W 8307  27.990  30.038  28.834 -0.2651 -0.0612 -0.1647
65292W        W 8308  22.700  30.363   5.515 -0.1328  0.0618  0.0003
65293W        W 8309   3.862  32.461  18.553 -0.0289 -0.0589 -0.0792
65294W        W 8310  16.880   4.109   0.493 -0.2036 -0.1337 -0.0236
65295W        W 8311  13.090  31.776  24.110 -0.0131  0.0011 -0.1433
65296W        W 8312   4.899  29.498  16.409 -0.0888  0.3659  0.2334
65297W        W 8313  27.166  33.334  16.127  0.0725  0.0496 -0.5170
65298W        W 8314  24.148  13.243  24.862 -0.0606 -0.1862 -0.2000
65299W        W 8315   9.140  12.171  25.692  0.2967 -0.0021 -0.1902
65300W        W 8316  23.657   4.645  20.641  0.3523 -0.0055  0.4218
65301W        W 8317   5.169  32.717  16.556 -0.0607 -0.1723  0.0498
65302W        W 8318  12.965  30.722   0.433 -0.4806 -0.1164 -0.2008
65303W        W 8319  20.081  24.611  19.119  0.0034 -0.0394  0.1978
65304W        W 8320   5.618  27.687   0.576  0.0715 -0.1651 -0.0348
65305W        W 8321  17.986   0.719   1.013 -0.0924 -0.0687  0.3251
65306W        W 8322   8.217  27.821  21.265  0.2324 -0.2109  0.3294
65307W        W 8323   6.499   0.577  18.928 -0.0903  0.1201  0.0789
65308W        W 8324  19.076   4.130  16.319  0.1239 -0.0123  0.0864
65309W        W 8325   9.387  27.602  17.492  0.2188 -0.0923  0.3386
65310W        W 8326  31.214  18.045   3.737  0.2878  0.1767  0.1105
65311W        W 8327  21.756  24.861   2.997  0.0686 -0.0078  0.0560
65312W        W 8328   8.692  33.229  22.867 -0.0205 -0.0745  0.0835
65313W        W 8329   9.584  13.066  15.035  0.1887  0.2199  0.0643
65314W        W 8330   9.063   0.313  19.370  0.2363 -0.1004 -0.2026
65315W        W 8331   2.355   1.360  21.610 -0.0160 -0.3409  0.0997
65316W        W 8332   8.556   6.015  15.280  0.0229 -0.3493 -0.0491
65317W        W 8333  34.659  31.659   5.541 -0.2142  0.0756  0.1328
65318W        W 8334  16.867   4.571  25.948  0.2442  0.0027  0.2474
65319W        W 8335  16.607  16.222  15.191 -0.1034 -0.1150 -0.2070
65320W        W 8336  16.487  17.950  24.997  0.1589 -0.1731  0.2844
65321W        W 8337  20.386  27.128  15.577 -0.0130  0.0664  0.3000
65322W        W 8338  27.460   6.614  16.623 -0.1742  0.1551 -0.4270
65323W        W 8339  21.627  26.611  18.885 -0.2558  0.1031  0.2678
65324W        W 8340   9.195   8.410  16.211  0.0676  0.1712 -0.1537
65325W        W 8341  34.704  23.623  20.839 -0.0076 -0.2249 -0.2706
65326W        W 8342  12.475   5.907  26.318  0.1052  0.0942 -0.5432
65327W        W 8343  28.984  28.964   1.016 -0.0665 -0.1306  0.0339
65328W        W 8344  14.142  12.824  21.519  0.2037 -0.1130 -0.0408
65329W        W 8345   5.059  33.864   2.951  0.1851  0.1194  0.1034
65330W        W 8346  18.552  33.132  20.852 -0.1854 -0.2377  0.0943
65331W        W 8347   8.663  28.440  17.094 -0.1762 -0.0255  0.1146
65332W        W 8348  17.011  23.238  14.103 -0.0883 -0.2992  0.1510
65333W        W 8349  15.508  33.431  19.640  0.0891 -0.4817 -0.0100
65334W        W 8350  19.631  32.971  28.307 -0.1768  0.2901 -0.1607
65335W        W 8351   7.028  24.346  17.813  0.1843 -0.0002 -0.1499
65336W        W 8352   7.315  33.544  17.292  0.1972  0.3273 -0.0501
65337W        W 8353  22.068   9.882  19.947  0.1459 -0.0951  0.0941
65338W        W 8354  25.951  31.053  18.375  0.0986 -0.1050  0.0841
65339W        W 8355   5.158   9.076  25.975  0.1473 -0.0914  0.0090
65340W        W 8356  15.713  33.310  22.945  0.0941 -0.0169  0.0785
65341W        W 8357  15.327  26.620  20.648 -0.1748  0.0197  0.0643
65342W        W 8358   8.891   0.853  20.677 -0.1296 -0.0133 -0.0638
65343W        W 8359   4.931  30.937  15.099  0.2118  0.0161  0.1154
65344W        W 8360  10.488  27.970  28.427  0.1866  0.1015 -0.1363
65345W        W 8361  27.931   2.710  15.510  0.1708 -0.0535  0.0245
65346W        W 8362   3.865  34.616   1.295 -0.0342 -0.1781 -0.2563
65347W        W 8363  12.410  21.189  25.302 -0.2014 -0.1724 -0.1781
65348W        W 8364  24.587  28.217  17.798 -0.1079 -0.0078  0.1108
65349W        W 8365  16.008   2.197  21.096  0.0812 -0.0717 -0.3001
65350W        W 8366  29.563  34.113  22.135  0.0478  0.0506  0.2538
65351W        W 8367  19.496  26.574   9.541  0.2560  0.0673 -0.1862
65352W        W 8368   7.551  32.185  24.035  0.1351 -0.1817 -0.1252
65353W        W 8369   8.476  29.391  27.120 -0.1423 -0.1166  0.1152
65354W        W 8370  22.854  29.602   6.028 -0.2951  0.1517  0.1544
65355W        W 8371  22.618  21.486  14.059  0.0126 -0.0471 -0.1808
65356W        W 8372  13.225  33.775   3.796 -0.0598  0.1023  0.1426
65357W        W 8373  24.224   9.033  15.063 -0.0372  0.1929  0.0800
65358W        W 8374  21.232  16.968  15.095  0.0920  0.2556 -0.0460
65359W        W 8375  11.919  24.849  13.280  0.1393 -0.0497 -0.3095
65360W        W 8376  24.194  33.112  21.607 -0.0292  0.1484  0.2335
65361W        W 8377  13.097  30.544   3.825  0.0318  0.0163  0.0679
65362W        W 8378  15.074  27.536   8.025 -0.2081 -0.0683 -0.1594
65363W        W 8379  14.065   6.511  22.889 -0.2494  0.3512  0.1932
65364W        W 8380  23.869  17.156  17.812 -0.1623  0.0412 -0.4311
65365W        W 8381   7.231  32.355  19.559 -0.1732 -0.0077  0.1589
65366W        W 8382  25.234  19.707  27.550 -0.4813 -0.1949 -0.3376
65367W        W 8383  33.425   1.111  24.133 -0.0506 -0.0070 -0.1621
65368W        W 8384  12.366  25.845  13.995 -0.0256  0.0317 -0.1621
65369W        W 8385  33.292  32.079  24.388 -0.0505 -0.1058 -0.1229
65370W        W 8386  31.910  17.174  17.291  0.2882 -0.0662 -0.1078
65371W        W 8387  20.244  24.871  21.878  0.0682 -0.0753 -0.0604
65372W        W 8388  12.279  32.764  18.902 -0.0107 -0.0653  0.1602
65373W        W 8389  32.510  28.996  23.487  0.0347 -0.0255  0.2172
65374W        W 8390  33.051  32.865   2.687  0.0451  0.2464  0.2369
65375W        W 8391  30.398  17.905  16.994  0.0150  0.1009 -0.1333
65376W        W 8392  21.066   3.998  17.127 -0.0061 -0.0682 -0.2675
65377W        W 8393  19.347  19.672  12.357 -0.0838 -0.0314 -0.1496
65378W        W 8394   9.509  16.277  24.464 -0.1712 -0.1983  0.3546
65379W        W 8395  17.894   3.998  15.870 -0.4392 -0.3000  0.1536
65380W        W 8396  11.094  25.826  20.426 -0.2853 -0.0970  0.0011
65381W        W 8397  17.187   4.300  27.626  0.0724 -0.1716 -0.1246
65382W        W 8398  17.922  21.046  15.787  0.0481 -0.0607 -0.3018
65383W        W 8399  17.520  31.460  17.025 -0.0162 -0.2073  0.4603
65384W        W 8400  13.121  29.230  29.078 -0.1955 -0.4056 -0.2338
65385W        W 8401  33.461  34.618  28.050 -0.0834  0.1517  0.1157
65386W        W 8402  14.771  33.612  18.517 -0.0406 -0.1182  0.2418
65387W        W 8403  17.313  30.797  24.710  0.0609 -0.2232 -0.0309
65388W        W 8404   8.941   8.375  19.814 -0.1826 -0.3063  0.2097
65389W        W 8405  14.692   8.105  22.090  0.1471 -0.2610 -0.1206
65390W        W 8406  12.355  18.748  27.125  0.0320  0.0728  0.1109
65391W        W 8407  18.405   5.219   5.927  0.0765  0.1126 -0.1335
65392W        W 8408  12.420  29.881  15.615  0.1429  0.1894 -0.1917
65393W        W 8409  18.044  33.415  27.545 -0.0379  0.2495 -0.0785
65394W        W 8410  10.217  28.873  25.768 -0.0578  0.2679  0.1770
65395W        W 8411  13.285  26.349  28.066 -0.2669 -0.0759  0.0377
65396W        W 8412  22.951  24.216  25.485  0.2545  0.0760  0.0639
65397W        W 8413   4.501   1.142   1.658 -0.1700 -0.3598 -0.0505
65398W        W 8414  27.039   8.798  22.938  0.0905 -0.1635 -0.1587
65399W        W 8415  11.364   2.354  16.590  0.0657 -0.0878 -0.0407
65400W        W 8416   4.490  25.347   5.362  0.0432  0.0742  0.1034
65401W        W 8417   9.031  32.828  25.868 -0.1884  0.1415  0.0991
65402W        W 8418  16.559  20.646   4.754 -0.0758 -0.1468 -0.1246
65403W        W 8419  30.883   0.969  24.169  0.0514  0.1564 -0.4371
65404W        W 8420   6.896   0.308  25.872  0.0094 -0.1552 -0.1578
65405W        W 8421  29.041  12.648  15.744 -0.0283 -0.0314  0.0865
65406W        W 8422  13.525  22.453  16.492  0.2207 -0.1239  0.0656
65407W        W 8423  23.948  21.187  26.069 -0.2098 -0.0536  0.0145
65408W        W 8424  11.999  27.984  15.395 -0.1974  0.4080 -0.0821
65409W        W 8425   8.709  33.454  18.569 -0.0451  0.4634 -0.1296
65410W        W 8426  13.270   4.257  14.192 -0.0091  0.2450  0.1374
65411W        W 8427  11.544  30.195  15.663 -0.1203 -0.1350  0.1449
65412W        W 8428  24.116   9.774  17.568  0.1701 -0.1037  0.1781
65413W        W 8429  14.556   8.683  22.226 -0.0170 -0.3033  0.1509
65414W        W 8430  21.871  34.160   0.926  0.0203  0.2915 -0.4006
65415W        W 8431  13.794   8.438  18.088 -0.1515  0.1719 -0.1097
65416W        W 8432   1.860  26.381  19.177 -0.0788 -0.0078  0.1959
65417W        W 8433  11.408  27.830  20.065 -0.2361 -0.0373  0.3256
65418W        W 8434   3.203  28.159  26.382 -0.1806 -0.2190  0.0260
65419W        W 8435  15.175  26.454  17.290  0.0789 -0.2022 -0.0149
65420W        W 8436  20.331   6.779  19.147  0.1960  0.2042 -0.3260
65421W        W 8437  13.251  10.560  18.012  0.4366 -0.0453  0.0688
65422W        W 8438  27.918  25.945  22.917  0.1522 -0.1872 -0.3365
65423W        W 8439  22.495   6.079   2.370  0.1792 -0.3106  0.1283
65424W        W 8440  30.339   2.596   0.039  0.1729  0.1433 -0.1443
65425W        W 8441  21.831  31.524   5.333  0.0055 -0.0353 -0.1545
65426W        W 8442  20.029  27.958  16.302  0.0592  0.0643 -0.1082
65427W        W 8443  17.891  20.496  24.885 -0.4194 -0.3337  0.1223
65428W        W 8444   9.489  25.450  14.204  0.0832 -0.0375  0.1076
65429W        W 8445  23.884  18.715  25.198  0.1017 -0.4126 -0.2440
65430W        W 8446   2.073   5.191   2.637 -0.0551  0.3885  0.1273
65431W        W 8447  15.563  29.658  19.926 -0.1168 -0.2305  0.2414
65432W        W 8448  21.255  23.280  21.650  0.1238 -0.0768 -0.0425
65433W        W 8449  16.662  27.949  29.016 -0.0635 -0.0757  0.1212
65434W        W 8450   9.390  23.575  13.641 -0.1263  0.0190 -0.0958
65435W        W 8451   9.370  16.030   5.288 -0.0293 -0.0194  0.1121
65436W        W 8452  18.200   6.151  24.273  0.1999  0.2474  0.0359
65437W        W 8453   7.981   2.686  20.733  0.0444  0.1087 -0.0689
65438W        W 8454  20.543  29.026  26.443  0.4237  0.0766 -0.2118
65439W        W 8455  27.045  20.561  20.350  0.0034 -0.0856 -0.2252
65440W        W 8456  17.973  15.074  13.454  0.1937 -0.2923 -0.1160
65441W        W 8457  14.434  32.547  21.248 -0.1271 -0.4242  0.1408
65442W        W 8458   5.365  27.462  15.132 -0.2038  0.1640 -0.1166
65443W        W 8459  17.691  27.186  26.999  0.2299  0.0019 -0.2982
65444W        W 8460  17.518  30.149  22.738 -0.0477  0.2248  0.1261
65445W        W 8461  12.261  34.433  20.431  0.0244 -0.0687 -0.1613
65446W        W 8462  23.500   4.313  16.227 -0.3413  0.0789  0.0432
65447W        W 8463  34.590  26.872   2.952  0.0415 -0.3185  0.0299
65448W        W 8464   0.399   9.783  22.532  0.0104 -0.3703  0.4233
65449W        W 8465  12.047  28.062   6.351  0.1111 -0.0118 -0.0890
65450W        W 8466  25.301  26.483  20.130 -0.2467  0.1015 -0.0973
65451W        W 8467  25.162   5.398   9.980 -0.4594  0.0655  0.1909
65452W        W 8468  21.398  19.237  26.172 -0.0794 -0.0980  0.1826
65453W        W 8469   6.657  32.273  13.638 -0.0483  0.1205  0.0035
65454W        W 8470  11.310  19.130  14.505 -0.2699 -0.3356 -0.0311
65455W        W 8471  23.115  30.817  15.175 -0.0700 -0.1443  0.0698
65456W        W 8472   4.730   0.004  20.295  0.1712 -0.0773  0.0875
65457W        W 8473  22.504   7.227  21.708  0.2603  0.2370 -0.0101
65458W        W 8474   8.130   6.533  23.838 -0.4004  0.2674 -0.0891
65459W        W 8475  13.687  31.294  28.282  0.2123  0.0358  0.2794
65460W        W 8476   4.897  21.177  17.835 -0.0356 -0.1123 -0.2295
65461W        W 8477  10.530   5.076  23.442 -0.1338  0.4424  0.1894
65462W        W 8478   7.826  26.968  19.870  0.1801 -0.0029 -0.0460
65463W        W 8479   5.274   3.569  19.265 -0.0454 -0.1140 -0.0822
65464W        W 8480  16.524  20.649  28.681 -0.0094  0.1090 -0.0651
65465W        W 8481   4.090  28.363   3.505 -0.0322 -0.0247 -0.0945
65466W        W 8482  15.416   3.690  16.849  0.0325  0.1810 -0.0870
65467W        W 8483  33.684   5.289  26.888  0.1777 -0.0496 -0.2539
65468W        W 8484  15.642  30.147  24.964 -0.1371  0.0691  0.0531
65469W        W 8485  33.898   4.262  23.909 -0.1500  0.0293  0.5821
65470W        W 8486  19.470  29.615  28.132  0.1306  0.2049  0.3540
65471W        W 8487   8.101  19.632  11.927  0.1863  0.3002  0.0318
65472W        W 8488   7.552  17.126  25.543  0.1151  0.0191  0.0615
65473W        W 8489  15.949  28.987  24.186 -0.2694  0.0001  0.2612
65474W        W 8490  29.730   2.144   3.618  0.0931 -0.3310  0.4418
65475W        W 8491  18.325   9.850  25.666  0.0760 -0.0654  0.1087
65476W        W 8492  34.481  19.917  26.872 -0.0335 -0.0754  0.1436
65477W        W 8493  11.213  28.926  16.531  0.0707 -0.1941  0.0337
65478W        W 8494   1.706  26.111  14.656  0.2946 -0.0709 -0.3384
65479W        W 8495   2.833  22.494  22.458 -0.0058  0.1960 -0.1740
65480W        W 8496  15.839  31.794  14.741 -0.4785 -0.3823 -0.1793
65481W        W 8497  18.404   8.426  17.531  0.0146 -0.2738  0.1691
65482W        W 8498   6.669  31.154  23.954  0.2585 -0.0126 -0.3418
65483W        W 8499  11.115  20.373  20.566  0.1712  0.1804 -0.0796
65484W        W 8500  14.073   5.435  16.530 -0.2099  0.1545 -0.0885
65485W        W 8501  29.161   0.550  24.030  0.0751  0.2446 -0.2315
65486W        W 8502  15.193   5.207  22.029 -0.0784 -0.1553 -0.0532
65487W        W 8503  17.204  34.602  18.318 -0.3138 -0.3442  0.3773
65488W        W 8504  15.993  33.428  28.851 -0.0090  0.0412  0.2509
65489W        W 8505  18.918  30.623   0.755 -0.0169  0.2334  0.0782
65490W        W 8506   5.880  30.111  15.422  0.0053  0.0805  0.0837
65491W        W 8507  26.812  11.423  22.626 -0.0197  0.0245  0.3046
65492W        W 8508  17.602  28.848   0.776 -0.0816  0.2507 -0.0244
65493W        W 8509   4.205  24.636  18.908 -0.1600 -0.1088 -0.0925
65494W        W 8510   7.977   1.897  21.906  0.2006  0.0288  0.2743
65495W        W 8511  28.615  21.675  15.067  0.2851 -0.1963 -0.1976
65496W        W 8512  21.609   4.506  24.630 -0.0894 -0.1641 -0.2164
65497W        W 8513  12.336   0.044  23.680 -0.0308  0.2615  0.1325
65498W        W 8514  26.663   1.720  20.839 -0.3745 -0.0982 -0.1220
65499W        W 8515   7.289  21.081  23.798  0.0411 -0.1184 -0.2126
65500W        W 8516  32.118  24.306  16.548  0.1930 -0.2407 -0.2414
65501W        W 8517   7.462   1.076   5.047 -0.0748 -0.0490  0.1214
65502W        W 8518  13.381  29.467  26.414 -0.4141  0.1693 -0.0159
65503W        W 8519   7.443   5.106  27.286 -0.2402 -0.1152  0.3468
65504W        W 8520  13.470   3.496  20.606  0.1945  0.2239  0.0324
65505W        W 8521   2.674   2.867  17.484  0.0028  0.0139 -0.2895
65506W        W 8522  22.030  10.686  18.944  0.1302  0.0983  0.2773
65507W        W 8523   3.742  20.558  25.254 -0.1914  0.1284 -0.0360
65508W        W 8524  12.356  17.963  12.954 -0.2772 -0.0480 -0.1252
65509W        W 8525  14.751   5.765  21.269  0.0867  0.0794  0.1413
65510W        W 8526  15.688  27.192  15.257  0.1980  0.1224 -0.2279
65511W        W 8527  13.627  33.110  14.335 -0.1973 -0.0508  0.2127
65512W        W 8528  19.388  29.823  16.691 -0.0152 -0.0755 -0.1324
65513W        W 8529  12.631  27.390   1.233 -0.1415 -0.1916  0.1479
65514W        W 8530  10.893  30.527  13.905 -0.2951 -0.1933  0.1906
65515W        W 8531  12.297  23.874  14.200 -0.1495  0.0883 -0.2538
65516W        W 8532   5.677  23.405  18.581  0.4261 -0.1174  0.1681
65517W        W 8533  10.559   8.663  17.305 -0.0172 -0.2985 -0.0892
65518W        W 8534  11.055  30.525  27.884  0.0521  0.0323 -0.0723
65519W        W 8535  34.564   4.867  20.456  0.1924 -0.0773 -0.1268
65520W        W 8536   2.771  32.333  20.817 -0.1828  0.2739  0.1286
65521W        W 8537   9.551  29.860  22.832 -0.1166 -0.0218 -0.1050
65522W        W 8538  23.673  26.671  17.310  0.0310 -0.1703  0.2569
65523W        W 8539  20.987  25.789  28.701  0.0753  0.0548 -0.0317
65524W        W 8540  28.805  23.363  20.665  0.0632 -0.4323 -0.2196
65525W        W 8541  14.651   1.659  19.537  0.4107  0.4804  0.0865
65526W        W 8542  11.945   8.887  25.529 -0.1346  0.1385  0.3758
65527W        W 8543  27.865  34.178   7.296  0.0314  0.1198  0.1643
65528W        W 8544  13.223  28.081  22.784 -0.0552 -0.2781 -0.2155
65529W        W 8545  17.683  30.279  16.032  0.0862 -0.0456 -0.1115
65530W        W 8546  12.038  12.740  29.275 -0.1203  0.1217 -0.0239
65531W        W 8547  24.212   8.258  24.399  0.0880 -0.1721 -0.4568
65532W        W 8548   8.850  22.928  13.134  0.1667 -0.2406  0.1994
65533W        W 8549  26.706  30.683  28.211 -0.0974 -0.0720 -0.3288
65534W        W 8550  22.017   8.546  18.415  0.0790  0.0309  0.1826
65535W        W 8551  25.408   0.680  23.424  0.0033 -0.1677 -0.0955
65536W        W 8552  29.549   9.860  28.326 -0.1176  0.0433  0.3681
65537W        W 8553  29.708   6.226  17.227  0.0652 -0.0500  0.0595
65538W        W 8554  15.484   0.223   3.493 -0.0916  0.1107 -0.1313
65539W        W 8555  27.468   8.549  18.237 -0.1362 -0.0355 -0.3943
65540W        W 8556  31.555  18.486  28.496 -0.0960  0.1290 -0.1196
65541W        W 8557  29.263  33.163  25.340 -0.1342  0.0815  0.2788
65542W        W 8558  25.859  19.389  17.646  0.2309 -0.2022 -0.0498
65543W        W 8559  20.873  30.856  22.668  0.1428 -0.0491  0.1199
65544W        W 8560   0.614   2.728  20.963  0.0263 -0.3678  0.0746
65545W        W 8561  10.083  14.892  23.376  0.0919 -0.2532  0.1989
65546W        W 8562  24.075  21.694  22.800  0.0117 -0.1109  0.3672
65547W        W 8563  33.630  29.340  16.301 -0.0769  0.1473 -0.1385
65548W        W 8564   7.570  15.879  28.519  0.3773 -0.0421 -0.0024
65549W        W 8565  19.754  18.051  22.225 -0.2301  0.0156  0.0671
65550W        W 8566   9.014   7.917   2.872  0.0027 -0.2730 -0.0365
65551W        W 8567  22.348  15.657  18.066 -0.1025 -0.1095  0.2129
65552W        W 8568  14.014   4.707  22.796 -0.1807 -0.2571  0.0162
65553W        W 8569  12.160  33.496  20.906 -0.2749  0.1137  0.0022
65554W        W 8570  11.747   7.371  23.609 -0.0299  0.3295  0.2105
65555W        W 8571  15.350   2.865  26.958  0.3794 -0.1718 -0.1569
65556W        W 8572  18.860  33.075  19.765 -0.0699  0.0524 -0.1995
65557W        W 8573   4.950  21.428  27.312  0.3384 -0.1550  0.2358
65558W        W 8574   7.167  25.273  22.095  0.0267  0.0479  0.0013
65559W        W 8575  18.909  27.613   2.645  0.0990 -0.1331  0.1108
65560W        W 8576  27.411  26.842  16.089  0.0902 -0.1260 -0.1654
65561W        W 8577  34.060  22.774  17.045  0.1469  0.0815  0.3138
65562W        W 8578  22.775   4.773  15.641 -0.2811  0.0308  0.1386
65563W        W 8579  12.724  10.459  14.501  0.1314 -0.1194  0.1358
65564W        W 8580   5.901   3.567  17.443  0.0049  0.1687 -0.0226
65565W        W 8581  29.005  31.978  24.677  0.0008 -0.1965  0.1871
65566W        W 8582  22.114  18.156   0.489 -0.1991 -0.1039 -0.2886
65567W        W 8583  27.250  22.694  17.972 -0.0374  0.0687  0.0913
65568W        W 8584  23.474  27.029   5.859  0.0708 -0.1917 -0.0765
65569W        W 8585  15.045  32.660  24.852  0.1827 -0.0478  0.2029
65570W        W 8586  15.479   2.254  18.331 -0.0921  0.0091  0.1902
65571W        W 8587  11.805  28.727   8.085 -0.1631  0.0385  0.0122
65572W        W 8588   6.806  22.152  24.521  0.1735  0.2555 -0.0101
65573W        W 8589  14.234  31.810  26.115  0.0358  0.0669 -0.5576
65574W        W 8590   5.908  17.872  20.799 -0.0833  0.2975  0.0229
65575W        W 8591  15.220  33.034  14.951  0.4726  0.1423  0.0404
65576W        W 8592   7.545   9.626  19.192  0.0166 -0.0818 -0.1029
65577W        W 8593  23.362   4.841  27.139 -0.1069 -0.1551 -0.1143
65578W        W 8594  27.601  29.201  21.296 -0.1645  0.1634  0.0769
65579W        W 8595  19.265  26.142  25.370  0.1999  0.0764  0.3248
65580W        W 8596  15.218  25.428  14.823 -0.2552 -0.0054 -0.2885
65581W        W 8597  17.585   0.154  26.125  0.0501  0.0812  0.0531
65582W        W 8598  28.160  30.581  20.156  0.0815 -0.2990 -0.0781
65583W        W 8599  17.909   3.412  17.096  0.1593 -0.1655 -0.0727
65584W        W 8600   0.417  18.217  26.156 -0.0578 -0.0408  0.0733
65585W        W 8601  21.476  28.153   5.250  0.1698 -0.1506  0.0506
65586W        W 8602  20.966  31.366  24.577 -0.2876  0.2801  0.0576
65587W        W 8603  33.579   7.866  14.744 -0.0593  0.1325  0.0305
65588W        W 8604  22.905  29.866  21.370  0.2028  0.0789 -0.0031
65589W        W 8605  29.615  12.166  21.753 -0.1089  0.0505  0.0225
65590W        W 8606  32.717   2.739  15.361 -0.0016  0.0168 -0.1765
65591W        W 8607  29.179   6.947  19.266 -0.1630 -0.2374 -0.3498
65592W        W 8608   4.884   8.248   1.507  0.2512  0.0968 -0.0197
65593W        W 8609  15.430  22.648  26.925 -0.0188 -0.2271 -0.1711
65594W        W 8610  22.228   5.174  21.876  0.2984 -0.2410  0.1693
65595W        W 8611   3.279  28.341  18.074 -0.0258  0.1611 -0.2286
65596W        W 8612  14.285  32.451  19.850  0.0982 -0.0398  0.1113
65597W        W 8613  13.899  33.278  16.251 -0.5290 -0.0755 -0.2685
65598W        W 8614  18.093  28.509  18.857  0.0085 -0.1772 -0.0403
65599W        W 8615  23.073  19.819   0.419  0.0726  0.0409  0.0717
65600W        W 8616  17.053  31.292  18.055 -0.3155 -0.0837  0.1275
65601W        W 8617  13.404  16.032  24.613 -0.0667 -0.1071 -0.2336
65602W        W 8618  33.434   3.218  17.846 -0.1229  0.0060 -0.0620
65603W        W 8619   5.066  29.764  23.547  0.1601  0.4984 -0.0575
65604W        W 8620   8.624  32.277   6.040 -0.1962 -0.3429 -0.1380
65605W        W 8621   2.245  29.172  19.220 -0.1812  0.2906 -0.0894
65606W        W 8622  14.568  29.504  16.323  0.0706  0.1036 -0.0197
65607W        W 8623   9.409   6.207  18.927  0.0691 -0.2688 -0.0044
65608W        W 8624  23.945  10.254  27.121  0.0934 -0.2829  0.0454
65609W        W 8625  32.112  23.881  23.406  0.0057  0.0215  0.0276
65610W        W 8626   6.851  34.633  21.504  0.1041  0.1231 -0.1237
65611W        W 8627  22.990   6.081  16.993  0.0108  0.0530  0.1070
65612W        W 8628   8.252   9.759  24.419  0.1546  0.0658 -0.0947
65613W        W 8629  16.552  15.942  18.949  0.0848 -0.0854  0.1551
65614W        W 8630  10.946  22.501  14.739  0.1141 -0.3124 -0.0909
65615W        W 8631  14.172  33.306  15.605 -0.0476 -0.2825 -0.1782
65616W        W 8632  10.905  33.658  21.116 -0.3099 -0.2078 -0.2935
65617W        W 8633  13.629   1.867  18.187  0.2215  0.1620 -0.0273
65618W        W 8634  12.158  27.260  23.066  0.0992  0.0179  0.3645
65619W        W 8635   7.730  30.215  19.370 -0.3698  0.2514 -0.1201
65620W        W 8636   5.507  33.451  23.584  0.1984 -0.2313 -0.1565
65621W        W 8637  30.465  21.554  23.502 -0.2067 -0.1578  0.1302
65622W        W 8638  13.258  22.311  21.538 -0.0108  0.1431  0.2909
65623W        W 8639  11.769   4.923  22.310 -0.0346 -0.0315 -0.2449
65624W        W 8640  15.308  17.721   5.423 -0.1687 -0.1885  0.0366
65625W        W 8641  15.622  33.371  14.673  0.1029 -0.1924  0.2549
65626W        W 8642  28.009  21.051   9.905 -0.0458 -0.1409  0.0175
65627W        W 8643  15.811  11.219   5.830  0.1057 -0.3043  0.0112
65628W        W 8644  18.853  24.831  19.269  0.2602 -0.1170  0.2236
65629W        W 8645   8.689  17.858   0.258 -0.2617 -0.0062  0.1213
65630W        W 8646  13.415  20.733  19.553  0.0305  0.1336 -0.0268
65631W        W 8647  19.546   2.663  26.819  0.1256 -0.1783  0.2438
65632W        W 8648  10.523   6.138  15.572 -0.2171 -0.1531  0.0072
65633W        W 8649  25.789   5.402  24.146 -0.0245  0.0144 -0.2547
65634W        W 8650   3.163  12.596   2.751 -0.0154 -0.1192 -0.1198
65635W        W 8651  27.733  31.226  25.812 -0.0769  0.2639 -0.1040
65636W        W 8652  13.249  32.873  21.034  0.1049  0.2970  0.5435
65637W        W 8653  16.940  26.601  19.724  0.0845 -0.1516  0.2094
65638W        W 8654   4.585  22.301   3.124  0.1218 -0.0694 -0.2803
65639W        W 8655  18.402   2.689   9.183 -0.0013  0.1703 -0.3739
65640W        W 8656   2.352  25.962   6.138  0.1837  0.0929 -0.0569
65641W        W 8657  20.960  11.485  14.882  0.1184  0.2379  0.1062
65642W        W 8658  11.870  19.523  15.934  0.0412 -0.2320  0.2408
65643W        W 8659  28.579  19.764  24.753  0.2466  0.2047 -0.0260
65644W        W 8660   6.872  26.768  22.178 -0.1186  0.0555 -0.0184
65645W        W 8661  17.845  19.504   2.429  0.3700 -0.0785  0.1260
65646W        W 8662   7.756   4.903   0.968  0.0086  0.4192 -0.0141
65647W        W 8663  19.530  34.470   3.942 -0.1020 -0.0202  0.0698
65648W        W 8664  14.326  16.784   6.188  0.1838  0.3041 -0.1096
65649W        W 8665   2.257  26.985  15.728  0.0338 -0.0627  0.1144
65650W        W 8666  20.932   8.762  19.596 -0.1194 -0.3897  0.1939
65651W        W 8667   5.499  17.871  24.993 -0.0821  0.1956  0.2104
65652W        W 8668  20.210  28.135  24.987 -0.0463  0.4187 -0.3052
65653W        W 8669  15.537   5.878  28.340 -0.0059 -0.1075  0.0555
65654W        W 8670   0.577   7.059   5.385  0.0882  0.1294  0.5120
65655W        W 8671  21.120  29.843  14.179  0.1320 -0.2932  0.3859
65656W        W 8672   6.042  20.255  13.212  0.2685 -0.2091 -0.1582
65657W        W 8673  22.752   4.853  15.134 -0.1856 -0.1653 -0.2180
65658W        W 8674   9.809  32.957  26.528 -0.4446  0.0289 -0.2522
65659W        W 8675   8.702   3.636  16.059 -0.0622  0.0371  0.1303
65660W        W 8676   5.257   6.345   2.470  0.1688 -0.3541 -0.2297
65661W        W 8677  34.080  28.769   7.867  0.0672 -0.0321  0.0373
65662W        W 8678  11.512  15.316  20.097  0.2247  0.0329 -0.1601
65663W        W 8679   6.321  28.074  19.500  0.1962 -0.2559 -0.0829
65664W        W 8680   1.419   1.718  18.450 -0.3403 -0.0334  0.0117
65665W        W 8681  22.137  23.100  16.554  0.1240  0.2553 -0.1387
65666W        W 8682  22.704  11.573  15.159  0.0636  0.0410 -0.2526
65667W        W 8683  12.406  12.913  17.800 -0.3007 -0.1533  0.3309
65668W        W 8684  13.003  26.344  22.752 -0.1099  0.2825 -0.2760
65669W        W 8685   6.712   0.835   1.697  0.2316  0.1141  0.0783
65670W        W 8686  17.310  29.903  24.194 -0.0084  0.0172 -0.0306
65671W        W 8687  19.305  25.393  17.106 -0.0751  0.1304  0.1330
65672W        W 8688  11.362   3.579  16.756  0.1832  0.0547  0.0619
65673W        W 8689  12.680   8.748  21.240  0.0547 -0.0300 -0.2439
65674W        W 8690  25.055  21.526  19.768  0.1216  0.1837 -0.3766
65675W        W 8691  10.951  11.402  25.548  0.0813 -0.0859  0.3535
65676W        W 8692   3.803   1.125   2.759  0.0390 -0.1432 -0.3063
65677W        W 8693  11.789  23.411  22.387 -0.4478 -0.0576 -0.2868
65678W        W 8694  14.608  30.804  18.644  0.1266 -0.0643 -0.2166
65679W        W 8695  33.385  25.054  25.667  0.0783 -0.3892 -0.0907
65680W        W 8696  26.300  31.793   6.928 -0.5219  0.0225 -0.1183
65681W        W 8697   2.497  32.819  19.141  0.0028  0.0223  0.2439
65682W        W 8698  30.018  28.175  16.480 -0.2042 -0.1092 -0.1506
65683W        W 8699  22.031  34.268   3.655 -0.1661  0.0538  0.2337
65684W        W 8700   5.003   3.368  16.414 -0.1238 -0.0842 -0.0403
65685W        W 8701  16.258   7.770  17.719 -0.0678 -0.0295  0.2922
65686W        W 8702  12.593   3.709  15.376  0.3021 -0.0257  0.3582
65687W        W 8703  12.315  28.518  23.710  0.1153  0.1101 -0.0863
65688W        W 8704   0.542   4.165  17.877  0.1257  0.0855  0.0916
65689W        W 8705  22.001   2.176   1.557  0.0869 -0.0480 -0.2250
65690W        W 8706  33.305   4.526  25.706  0.2798  0.2081 -0.3023
65691W        W 8707   4.040   8.282  25.345  0.1485  0.1887  0.1226
65692W        W 8708  16.500  22.852  22.897  0.0064 -0.3523  0.0643
65693W        W 8709  10.155  29.128  18.328 -0.0180  0.0990  0.0534
65694W        W 8710  22.777   9.410  19.681  0.0218  0.3984  0.0689
65695W        W 8711  15.211  22.671  15.015 -0.0383 -0.0077  0.0416
65696W        W 8712  25.592  20.691  25.854  0.2167  0.1741 -0.0114
65697W        W 8713   5.148  25.353  26.926  0.0296 -0.2503 -0.0291
65698W        W 8714  11.447   1.654  10.141 -0.1806 -0.1363 -0.1893
65699W        W 8715   3.362  20.210  17.839 -0.1356 -0.1588 -0.2492
65700W        W 8716  20.799   6.220  19.850  0.1249 -0.0585  0.2969
65701W        W 8717   5.381   0.992  26.861 -0.0595  0.3027 -0.2490
65702W        W 8718  12.584  23.772   6.068 -0.2997  0.0960  0.0655
65703W        W 8719  13.877  24.188   5.867  0.1910 -0.1215 -0.2669
65704W        W 8720  16.071  28.316  10.174 -0.0585 -0.1639 -0.1110
65705W        W 8721   5.084  22.560  14.210  0.1655 -0.1588 -0.0020
65706W        W 8722  28.227  15.469  24.659 -0.0258  0.0973 -0.1089
65707W        W 8723  14.124  30.754  18.645 -0.2512  0.2940  0.0295
65708W        W 8724   6.414  28.362  25.719  0.2185  0.2795 -0.2033
65709W        W 8725  26.397   7.202  22.194  0.3638  0.1466 -0.1233
65710W        W 8726   9.346  29.966   1.913  0.1131 -0.6778 -0.3103
65711W        W 8727  14.186  13.381   1.200  0.0110 -0.3166 -0.1533
65712W        W 8728  16.196   0.313   1.789  0.1011  0.2836 -0.0184
65713W        W 8729  20.851   5.371   6.950 -0.0314 -0.0995 -0.0450
65714W        W 8730   4.798  29.270  25.317 -0.0682 -0.1125 -0.0993
65715W        W 8731  19.682  33.070  20.075  0.3949  0.0642 -0.3903
65716W        W 8732   9.618  17.901  12.543  0.2576  0.1928 -0.1127
65717W        W 8733   9.947  33.508  17.038 -0.1185 -0.0431 -0.2181
65718W        W 8734  10.573  14.756  23.955 -0.0084 -0.2740  0.2015
65719W        W 8735   5.380  17.433  17.703  0.1799 -0.1798  0.1170
65720W        W 8736  26.400  18.848   2.525  0.3304 -0.0290  0.0535
65721W        W 8737  33.410  27.789  18.967  0.1587  0.0783  0.0553
65722W        W 8738  10.580  22.348  21.498 -0.1059  0.1924 -0.0995
65723W        W 8739  21.701  32.818  19.153 -0.0860  0.1075  0.3019
65724W        W 8740  29.020   3.044  16.663  0.0846 -0.1600  0.2156
65725W        W 8741   7.567   5.192  21.208  0.2698  0.1274 -0.1019
65726W        W 8742  18.954  14.631   0.469 -0.1312 -0.0561  0.0586
65727W        W 8743   8.502   0.982  27.209 -0.0589 -0.2720  0.0550
65728W        W 8744   5.474  28.209  16.857 -0.0038 -0.0264  0.1470
65729W        W 8745  14.963  12.527  25.456 -0.0034 -0.0340 -0.0822
65730W        W 8746  10.150  25.704  23.655 -0.1505  0.0077  0.0710
65731W        W 8747  25.147  27.527  21.845 -0.1206 -0.0974 -0.0166
65732W        W 8748  29.318  20.580  17.886 -0.0606 -0.0326  0.4216
65733W        W 8749  23.031  14.143   6.231 -0.0785 -0.0751 -0.1371
65734W        W 8750   5.898  15.423  22.417  0.1330  0.0760  0.1286
65735W        W 8751  13.620  11.419  20.671  0.2799 -0.1154 -0.0760
65736W        W 8752  10.299  34.444  23.716  0.0218  0.0858 -0.0900
65737W        W 8753  14.110   5.311  18.601  0.0546 -0.1448  0.1010
65738W        W 8754  24.627  30.764   0.764 -0.0663  0.0018 -0.1517
65739W        W 8755  16.039  28.995  27.420 -0.0092  0.2817  0.0525
65740W        W 8756  14.114  31.963   0.604  0.0646  0.0229  0.1089
65741W        W 8757   2.755   5.370  17.404 -0.0660  0.0579 -0.3461
65742W        W 8758  23.040   2.085  25.454  0.1465  0.3842  0.1989
65743W        W 8759   9.456  31.223  24.726  0.2645 -0.3019 -0.2195
65744W        W 8760   6.915  34.714  18.701 -0.3318  0.2350 -0.1419
65745W        W 8761  11.075  24.511  17.105  0.1818  0.1406 -0.2132
65746W        W 8762  12.242   7.680  25.871 -0.2457 -0.0909  0.2318
65747W        W 8763  27.593  18.961  22.135 -0.0710 -0.0877  0.2608
65748W        W 8764  10.185  33.142  14.116 -0.4498 -0.2676  0.0436
65749W        W 8765  29.871  13.388  26.031 -0.1592  0.3216  0.1643
65750W        W 8766  13.947  33.943  22.167 -0.1526  0.2393  0.0831
65751W        W 8767  22.027  31.660  15.328  0.2154 -0.0159 -0.1038
65752W        W 8768  14.599  24.374  22.938 -0.2523 -0.0294  0.1422
65753W        W 8769  11.959   5.991  25.049  0.0524 -0.3211 -0.0881
65754W        W 8770   5.221  17.654  13.694  0.1915  0.0801  0.2485
65755W        W 8771  12.913   8.764  26.512  0.0096 -0.1695  0.0934
65756W        W 8772  19.129  24.405  21.609  0.1086  0.1140 -0.0164
65757W        W 8773  13.754  25.024  20.595 -0.1854  0.0992 -0.2558
65758W        W 8774   7.617  26.099  20.590 -0.2664  0.4056 -0.1303
65759W        W 8775  21.580   6.387  18.057  0.0793 -0.0264 -0.1681
65760W        W 8776  14.347  15.069  19.450 -0.1290 -0.0030  0.1884
65761W        W 8777   7.547  27.655  26.455  0.2023  0.1016  0.0503
65762W        W 8778  24.999  15.928  22.084 -0.0420  0.0696  0.0377
65763W        W 8779  19.773  31.338  14.499  0.2047  0.3135 -0.0429
65764W        W 8780  13.013  24.013   3.948  0.3311 -0.2942  0.0840
65765W        W 8781   4.284  32.561  14.323 -0.1862  0.2463 -0.1161
65766W        W 8782  16.378  25.730  16.270  0.1148  0.1764 -0.1011
65767W        W 8783  14.500   2.024  18.036 -0.2632  0.0169 -0.0952
65768W        W 8784  20.548  24.864   5.021 -0.1177 -0.1011  0.0313
65769W        W 8785   8.084  33.857  25.257  0.1079 -0.0725 -0.2268
65770W        W 8786  23.123   8.405  14.335  0.0977  0.0814  0.0316
65771W        W 8787  24.991   1.260  23.905 -0.0387  0.1153  0.1570
65772W        W 8788  17.398  23.344  20.329 -0.4028  0.0986  0.0028
65773W        W 8789  19.300  27.035  19.585  0.0201  0.2709 -0.0800
65774W        W 8790   9.988  26.015  19.504 -0.3400  0.2312 -0.0224
65775W        W 8791   5.196  28.726  27.464 -0.1356 -0.2400  0.0825
65776W        W 8792  20.797  27.137  21.087  0.1867  0.2110 -0.2856
65777W        W 8793   6.145  23.058  17.807 -0.2966 -0.1588  0.0421
65778W        W 8794  15.575   3.892  15.467  0.2375 -0.2943 -0.2453
65779W        W 8795  22.724  32.503  15.951  0.1437 -0.0191  0.2823
65780W        W 8796  11.923  20.176  14.662  0.1346  0.1936 -0.2255
65781W        W 8797  19.880  25.354  22.781 -0.1120  0.2210 -0.2886
65782W        W 8798  30.620   0.489  10.452 -0.1211  0.1596 -0.0765
65783W        W 8799  22.805   4.035   5.249 -0.1379  0.1772 -0.0712
65784W        W 8800  28.800  32.974   2.259  0.1202 -0.0254 -0.1947
65785W        W 8801  18.025  26.226  19.837 -0.1490  0.0384 -0.0876
65786W        W 8802  33.641   9.329  18.671 -0.0488 -0.0944  0.1171
65787W        W 8803   7.344  31.454  27.409 -0.0568 -0.0648  0.2113
65788W        W 8804  15.510  33.356  22.431  0.0546 -0.1517  0.1022
65789W        W 8805   6.972   6.801   5.258  0.1175 -0.1387  0.0811
65790W        W 8806   6.603  27.236   3.386  0.0997  0.0424 -0.0906
65791W        W 8807  15.214  25.299  18.747  0.1212  0.0906 -0.0678
65792W        W 8808   5.776  21.059  19.405  0.1875 -0.1312  0.0250
65793W        W 8809  16.826  14.025  27.326 -0.1853  0.0944 -0.1470
65794W        W 8810  25.111  21.069  15.591  0.1706 -0.4589 -0.0694
65795W        W 8811   8.090  22.563   6.969  0.0002 -0.3654 -0.0271
65796W        W 8812  28.443  30.409  20.959  0.1757  0.3556  0.1113
65797W        W 8813  12.878   5.123  19.729 -0.1053 -0.0894  0.3835
65798W        W 8814  34.742   3.419   5.965  0.0212 -0.2410 -0.0985
65799W        W 8815   4.424  28.648   2.818 -0.1496  0.0939 -0.0750
65800W        W 8816   2.900  19.823  21.773  0.0158  0.0093 -0.2364
65801W        W 8817  14.428  16.887  24.764  0.1273  0.2826  0.0377
65802W        W 8818   9.796  14.910  21.753 -0.3470  0.2738 -0.1513
65803W        W 8819  21.349  29.225  22.966  0.0090  0.1403 -0.3243
65804W        W 8820   1.426   9.657  24.248  0.1680 -0.1049 -0.1017
65805W        W 8821   2.593  31.209  23.767  0.1259  0.0923  0.2141
65806W        W 8822  13.710  26.726  25.244  0.1486  0.0855 -0.0321
65807W        W 8823   8.071   9.894  27.634  0.2483  0.3423  0.0692
65808W        W 8824  16.764  30.607  28.788  0.6403  0.0699  0.1058
65809W        W 8825  10.697  34.578  26.861  0.1491 -0.1404  0.1382
65810W        W 8826  14.961   6.371  15.101  0.0821  0.0525  0.0898
65811W        W 8827  14.047  23.374  15.476 -0.1418 -0.1417  0.0882
65812W        W 8828   1.175   1.371  23.414  0.1584  0.0845  0.0355
65813W        W 8829  25.637  34.388   8.717  0.1183 -0.1137 -0.0463
65814W        W 8830  15.561   8.767  26.703  0.1371 -0.1323  0.2009
65815W        W 8831  17.409   0.369   1.867 -0.0866 -0.1768  0.2106
65816W        W 8832  29.541   8.771  28.865 -0.1260  0.0482  0.0834
65817W        W 8833   1.249  32.584  13.877  0.2793  0.3553 -0.0153
65818W        W 8834  23.741  13.109  26.927  0.1846 -0.4069 -0.2590
65819W        W 8835  12.112  24.434  27.128  0.1654  0.2701 -0.1943
65820W        W 8836  15.085   1.237  27.363  0.0558  0.1571 -0.0470
65821W        W 8837   2.736  18.500  17.016  0.0703 -0.0733  0.1088
65822W        W 8838  16.201   3.919  17.315 -0.1519 -0.1362 -0.2552
65823W        W 8839   3.800  27.937  14.140 -0.1318  0.1417 -0.0799
65824W        W 8840  15.272  28.383   2.989  0.0817 -0.1947 -0.1822
65825W        W 8841  19.198  21.942  18.067  0.1060 -0.0599  0.0268
65826W        W 8842  11.922  33.505   1.306  0.2421 -0.0361  0.2861
65827W        W 8843  31.019   8.323  26.857 -0.1672  0.3039  0.3622
65828W        W 8844   6.288  26.639  18.232  0.1566  0.0011  0.0062
65829W        W 8845  10.243  20.201  18.322 -0.0808  0.2478  0.1084
65830W        W 8846   8.491  22.159  26.980 -0.0005  0.1544  0.2153
65831W        W 8847  10.791  25.509  14.902 -0.2218 -0.0495  0.1801
65832W        W 8848   1.952  23.377  15.005  0.0957 -0.0273 -0.0097
65833W        W 8849  17.068  26.821  22.538 -0.1879 -0.2604  0.0962
65834W        W 8850  11.366   3.208  22.790 -0.1071  0.0094 -0.2907
65835W        W 8851   3.883  26.638   1.865 -0.1819 -0.2419 -0.4101
65836W        W 8852  22.839  13.691  26.805 -0.0024 -0.0309 -0.1678
65837W        W 8853   4.528  23.773   8.602 -0.0124  0.2336 -0.0918
65838W        W 8854  22.465  14.686  16.930  0.1519 -0.0349  0.0434
65839W        W 8855  15.480  31.718  21.768 -0.0762  0.1240  0.2993
65840W        W 8856  10.563   0.178  20.962 -0.1162  0.1005 -0.1722
65841W        W 8857   8.739  31.936  20.857 -0.1371 -0.1028  0.0045
65842W        W 8858  34.502  18.402  26.720 -0.0510  0.0995  0.0168
65843W        W 8859  23.316  31.007  20.494 -0.1086 -0.1789  0.3789
65844W        W 8860   5.028  29.123  16.084 -0.3260 -0.0600 -0.0952
65845W        W 8861   8.643  29.078  23.754 -0.3235  0.0370 -0.0738
65846W        W 8862   2.436   0.378  20.389 -0.0040  0.1385 -0.2622
65847W        W 8863  31.812  33.395  23.499  0.1610  0.3440 -0.2288
65848W        W 8864   0.021  28.284  27.340  0.0978  0.0240 -0.4693
65849W        W 8865  17.777  29.376   2.423  0.2992 -0.0295  0.1110
65850W        W 8866   2.564  34.034  15.814  0.1793 -0.1583 -0.2517
65851W        W 8867  29.017  28.963  19.403 -0.0594  0.1016 -0.3055
65852W        W 8868   3.137  30.335  18.532 -0.1322  0.2666 -0.0054
65853W        W 8869  17.855  30.122   5.887 -0.2464  0.0430  0.0091
65854W        W 8870  14.122   3.733   6.287  0.0867 -0.1061 -0.0183
65855W        W 8871  12.507  24.884  29.006  0.0482 -0.1978 -0.0294
65856W        W 8872   8.703   3.612  22.665  0.2263 -0.1375  0.2339
65857W        W 8873  26.278   2.330   4.938  0.1318  0.1534 -0.0237
65858W        W 8874  11.925  19.491   6.567 -0.0542  0.2800  0.0403
65859W        W 8875  28.871  22.101  19.367 -0.1811  0.0249 -0.0589
65860W        W 8876  25.429  20.676  23.834 -0.2305  0.0401 -0.3471
65861W        W 8877   6.997  13.741  24.220 -0.0591  0.0461 -0.1892
65862W        W 8878   2.738  32.957  24.018  0.0595  0.0859  0.0082
65863W        W 8879   9.806  27.432  19.806 -0.1411  0.1012  0.0187
65864W        W 8880   4.256  30.932  17.295  0.1186  0.1043  0.2061
65865W        W 8881   4.063  31.964  21.806  0.3062 -0.1004 -0.0139
65866W        W 8882   7.340  26.214   3.725 -0.1280  0.0250  0.1507
65867W        W 8883  14.954  13.984  26.583 -0.0716 -0.0661 -0.0206
65868W        W 8884  34.083  27.386  23.036 -0.2806  0.0139  0.0676
65869W        W 8885  12.719  22.965   3.200 -0.0319  0.1233  0.0486
65870W        W 8886  30.328  29.322  28.514 -0.1376 -0.0093 -0.1838
65871W        W 8887  34.675  28.059  19.510  0.0383  0.0271 -0.2071
65872W        W 8888   6.990  12.800  28.700 -0.3208 -0.2155 -0.1822
65873W        W 8889  10.501  23.884   5.967  0.0053 -0.0416 -0.5555
65874W        W 8890  14.061   2.911   8.456  0.0574 -0.2060  0.1262
65875W        W 8891  21.845   5.624  18.241 -0.2559 -0.0896  0.2178
65876W        W 8892  20.409  19.091  24.022  0.1970  0.2716 -0.1786
65877W        W 8893  13.851  28.565  26.560 -0.0753 -0.0076  0.2080
65878W        W 8894   5.466   8.140  20.341  0.1523 -0.0943 -0.2632
65879W        W 8895   8.174  28.474  25.040  0.1952  0.0184 -0.0515
65880W        W 8896  12.345  15.580  19.386  0.0012  0.0259  0.2218
65881W        W 8897  13.223   3.494  20.147  0.1311 -0.3007  0.1552
65882W        W 8898  16.150  30.674  28.688 -0.2298  0.0294  0.0386
65883W        W 8899   2.606  28.334  24.455  0.1337  0.1188 -0.1812
65884W        W 8900   1.375  25.894  23.459 -0.2223  0.2779 -0.0046
65885W        W 8901   8.248   2.175  16.150 -0.2658 -0.0900 -0.0773
65886W        W 8902  24.798   2.062   2.630  0.0961 -0.0709 -0.2448
65887W        W 8903  16.018   9.294  20.352 -0.3000 -0.2075  0.3038
65888W        W 8904  31.760   8.467  19.448 -0.0089 -0.0322 -0.0317
65889W        W 8905  12.019   1.897   0.805 -0.0838 -0.1623 -0.1466
65890W        W 8906  16.868  27.551  13.973  0.0743  0.0350  0.1892
65891W        W 8907  18.034  29.749  26.914  0.1827 -0.1755 -0.0026
65892W        W 8908  24.249   0.823  18.272 -0.2979  0.1801 -0.0799
65893W        W 8909   7.390  17.218   2.858 -0.2306  0.1029 -0.0071
65894W        W 8910   7.963   6.240  14.131 -0.1287  0.0865 -0.0312
65895W        W 8911   3.083   8.057  25.427 -0.2282  0.2034 -0.1425
65896W        W 8912   0.538  21.685   0.672 -0.2052  0.2559 -0.0501
65897W        W 8913  10.176  33.942  19.918 -0.1602 -0.1293 -0.3123
65898W        W 8914  19.594  21.752  12.201  0.0030 -0.0126 -0.2165
65899W        W 8915  24.059  23.997   3.561 -0.1010  0.2048 -0.2067
65900W        W 8916  22.235  30.730   5.111  0.0580 -0.1795 -0.4246
65901W        W 8917  20.858   8.731   0.054  0.0345 -0.1693 -0.0451
65902W        W 8918  15.354   4.374  21.734 -0.3795 -0.3845 -0.1395
65903W        W 8919  25.018  27.453  27.138 -0.4465  0.0227  0.1558
65904W        W 8920  29.488   0.697  20.340  0.4611 -0.1464  0.1793
65905W        W 8921   8.479  32.316  15.432  0.2712 -0.2135 -0.0847
65906W        W 8922   2.034  21.537  19.846  0.0456  0.2669  0.0920
65907W        W 8923  29.505  25.310  18.097 -0.1550 -0.0952 -0.1014
65908W        W 8924   6.272   4.750   3.576  0.0432  0.0451  0.1495
65909W        W 8925  30.229  18.203   4.405 -0.0671 -0.2546 -0.2691
65910W        W 8926  17.195  22.124  28.437  0.2449  0.0452  0.0847
65911W        W 8927  18.931   2.344  16.127 -0.1680  0.0668 -0.1558
65912W        W 8928  16.533  27.567  18.044  0.0191  0.3228 -0.0118
65913W        W 8929  15.602  16.584  12.382 -0.2057  0.1726  0.0085
65914W        W 8930   6.808   3.432  16.258 -0.3175 -0.2094 -0.1616
65915W        W 8931  29.148   3.187   4.750  0.2806  0.2199 -0.0589
65916W        W 8932  30.356  20.028  17.043  0.0822 -0.1495 -0.1463
65917W        W 8933  33.229   8.113  19.162  0.2314 -0.3099 -0.2801
65918W        W 8934   5.470  13.954  20.863 -0.2950 -0.1389  0.2105
65919W        W 8935   6.755  26.262   3.631  0.0478 -0.0010  0.1466
65920W        W 8936  17.720  23.898   0.123 -0.1094  0.0280  0.0794
65921W        W 8937  17.635  27.503  27.393  0.0117 -0.1844 -0.1880
65922W        W 8938  26.385   6.207  20.767 -0.2060  0.1637 -0.0146
65923W        W 8939  27.301  28.856  29.051  0.0918  0.0186  0.2720
65924W        W 8940  13.851  27.480  26.901  0.0689  0.0752 -0.2141
65925W        W 8941   1.314  27.563   4.071 -0.0545  0.0015  0.0104
65926W        W 8942  30.772   0.519  23.915 -0.0350  0.0787 -0.1140
65927W        W 8943  24.339  26.341   1.867  0.0586 -0.2418  0.2162
65928W        W 8944  33.197  25.765  18.744  0.3672  0.3498 -0.0613
65929W        W 8945  22.521  19.726  17.256  0.0054  0.0892  0.0532
65930W        W 8946  10.270  27.488  24.793  0.1610 -0.0848 -0.0564
65931W        W 8947  33.108  27.567  26.056 -0.1129 -0.1623  0.0502
65932W        W 8948   9.712  25.068  27.665  0.1448 -0.0291 -0.0739
65933W        W 8949  18.303   4.625   2.714 -0.0486 -0.3843 -0.0406
65934W        W 8950   4.499  29.916  22.346  0.1271  0.0965  0.4995
65935W        W 8951   5.266   8.361  16.665 -0.0656 -0.2218 -0.0557
65936W        W 8952  15.839  24.967  15.488 -0.1247 -0.0241  0.1839
65937W        W 8953  19.203  29.951   8.236  0.0818  0.0136  0.0443
65938W        W 8954  19.401  25.089  28.526 -0.1279  0.1424  0.1548
65939W        W 8955  19.891  34.610  27.638 -0.2084 -0.0999  0.0205
65940W        W 8956  13.680  34.198  22.938  0.0929 -0.2657  0.1201
65941W        W 8957  19.082  32.879  22.246 -0.0255 -0.1983  0.2272
65942W        W 8958  28.275  29.389  22.109  0.2021  0.0797 -0.2497
65943W        W 8959  13.332  23.315   1.836 -0.0523  0.0180 -0.0629
65944W        W 8960  11.127   0.156   3.183  0.2498 -0.3233  0.0020
65945W        W 8961  15.002  21.921  28.428 -0.1410  0.2889  0.2287
65946W        W 8962  20.241  34.310  14.845  0.1404 -0.3538  0.0740
65947W        W 8963  26.959   5.390  23.139  0.2314  0.0730  0.0678
65948W        W 8964  16.479   6.347   1.468  0.1595  0.0557  0.1254
65949W        W 8965  18.203   6.241  28.561  0.1029 -0.3679  0.1300
65950W        W 8966  25.605  16.466  17.348  0.0245  0.0651  0.4215
65951W        W 8967  17.524   0.993  23.508  0.2516  0.0478  0.1868
65952W        W 8968  13.476  10.698  14.861  0.0036  0.0153  0.0471
65953W        W 8969  13.339   5.746  14.216 -0.0136 -0.0852  0.0504
65954W        W 8970  17.045  29.897   2.248 -0.0996 -0.0701 -0.2562
65955W        W 8971  13.432  29.559  15.340  0.0322  0.0555 -0.2577
65956W        W 8972  25.256   7.924  18.766  0.1477 -0.0994 -0.0067
65957W        W 8973   2.180  17.243   0.315  0.1113  0.3883  0.0702
65958W        W 8974  32.410  24.386   8.140 -0.0966  0.0930 -0.2190
65959W        W 8975   1.173   5.842  17.954  0.2056  0.0837  0.4562
65960W        W 8976  22.696  23.190   5.949 -0.2635 -0.1977 -0.0676
65961W        W 8977  24.665  29.522   0.696 -0.1475 -0.2039 -0.1779
65962W        W 8978  22.140  20.934  20.273 -0.0726 -0.1023  0.0809
65963W        W 8979  16.545  32.195  28.278 -0.0417  0.1000  0.2845
65964W        W 8980  29.429  20.826  26.472 -0.0993  0.1772 -0.1399
65965W        W 8981  24.358  32.315  18.560  0.1020  0.2366 -0.1463
65966W        W 8982   2.768  26.513  14.186 -0.3872 -0.2453 -0.1801
65967W        W 8983  28.088  26.341  16.402  0.0361 -0.1449  0.3344
65968W        W 8984  16.914  22.937  19.358 -0.2510 -0.0737  0.0897
65969W        W 8985   4.164   3.674  19.336  0.0390  0.0905 -0.0690
65970W        W 8986  21.598  25.874  27.069  0.0170 -0.3307 -0.0363
65971W        W 8987   1.777  28.699   0.528 -0.0448 -0.1980 -0.0306
65972W        W 8988  11.521  27.621   2.657 -0.1671 -0.1493 -0.0374
65973W        W 8989  15.338   2.628   0.543 -0.1264 -0.1234  0.0869
65974W        W 8990   0.694  32.290   3.272 -0.3408 -0.0340 -0.0741
65975W        W 8991   1.613  14.342  24.703  0.0098  0.0658  0.2307
65976W        W 8992   8.222   1.215  14.237  0.3772 -0.0912  0.4075
65977W        W 8993  10.875  32.299  20.999  0.0014 -0.2314  0.0219
65978W        W 8994  23.433  22.055   8.273  0.2268 -0.0374 -0.0985
65979W        W 8995  22.283  23.556  15.617 -0.0739 -0.1564  0.1023
65980W        W 8996  28.233  25.885  25.932 -0.0823  0.0974  0.0039
65981W        W 8997  33.258   4.659  19.977 -0.0581 -0.0057 -0.1623
65982W        W 8998  21.665   2.308  15.664 -0.0970  0.0033  0.1021
65983W        W 8999  14.709  28.009  23.544  0.3533 -0.0111  0.2566
65984W        W 9000  21.265  24.808  14.316  0.1042 -0.3214 -0.1156
65985W        W 9001   6.436   3.878  20.834 -0.1422  0.3601  0.0519
65986W        W 9002   8.851   0.808   1.995 -0.0195  0.0367 -0.1394
65987W        W 9003  34.586   1.042  21.813 -0.1678  0.1203 -0.0296
65988W        W 9004  10.607   3.999   1.797 -0.2956  0.1242 -0.3366
65989W        W 9005  10.471   5.746  14.303  0.1236  0.0225  0.0702
65990W        W 9006  18.696  31.161  23.735  0.0389 -0.0337  0.0525
65991W        W 9007  32.231  25.588  14.143  0.1508  0.2248  0.1887
65992W        W 9008  12.621  31.461  28.275  0.3442  0.1719  0.3266
65993W        W 9009   1.328  20.922   0.254 -0.0709 -0.1661  0.1793
65994W        W 9010   8.129   4.103  16.301  0.3451  0.2067  0.3715
65995W        W 9011   0.371  30.500   0.163 -0.1535 -0.3643  0.4648
65996W        W 9012  12.811  19.567  13.291  0.2343  0.1734 -0.1023
65997W        W 9013   8.337  20.030  13.633 -0.0099 -0.0083  0.2598
65998W        W 9014  26.448  26.501  26.337 -0.2648  0.0419  0.0791
65999W        W 9015   7.534   1.434  28.252  0.1377  0.3939 -0.0238
66000W        W 9016   7.562   3.332  23.830 -0.2719  0.0041  0.3173
66001W        W 9017   5.461   7.255  15.489 -0.0741 -0.0126 -0.4050
66002W        W 9018  12.114  26.554  21.670  0.1077  0.2916  0.0258
66003W        W 9019  27.383  25.298   3.954  0.0496  0.0003 -0.4466
66004W        W 9020  18.900  28.805   2.919  0.0051  0.0616 -0.0315
66005W        W 9021   8.532  29.942   0.862  0.0277 -0.0956  0.0448
66006W        W 9022  21.090   4.696  17.909 -0.1025 -0.0378  0.0657
66007W        W 9023  22.400   2.908  28.011  0.0829  0.1716 -0.2624
66008W        W 9024  15.215  29.158   1.277 -0.0001 -0.2452 -0.0483
66009W        W 9025  11.909  21.315  16.664  0.0647 -0.2054 -0.1401
66010W        W 9026   8.610  11.694   7.310  0.2816  0.0121  0.1287
66011W        W 9027  18.977  27.031   5.168  0.2455  0.1255  0.2157
66012W        W 9028   6.221  34.337   6.051 -0.1494 -0.3226 -0.0124
66013W        W 9029  25.752  31.940  26.479  0.3087 -0.2058  0.3184
66014W        W 9030  32.436  23.807  22.207 -0.1539 -0.1635 -0.1790
66015W        W 9031   3.739  34.388   0.119 -0.0490 -0.1260  0.0381
66016W        W 9032  29.125  19.698   3.691 -0.0138  0.0808  0.0829
66017W        W 9033   1.220   1.027  23.812 -0.0919  0.2989  0.2504
66018W        W 9034  21.061  32.683  25.534  0.2082  0.0672 -0.0215
66019W        W 9035  28.094  31.118  15.774  0.1739  0.1642 -0.3309
66020W        W 9036  33.729   6.486  22.746  0.1526 -0.2856  0.0968
66021W        W 9037   0.371   0.768  29.168 -0.0144 -0.0948 -0.0956
66022W        W 9038   1.869   3.483   4.353  0.1777  0.3413  0.1722
66023W        W 9039  18.506  24.404  17.460  0.0388 -0.1889  0.1258
66024W        W 9040  16.310  30.703  18.523 -0.3422  0.1762  0.0069
66025W        W 9041   7.867   9.988  27.178 -0.2074  0.1639 -0.0213
66026W        W 9042  12.434   3.234  24.936 -0.0614  0.4349 -0.1543
66027W        W 9043  18.358  13.698  15.213 -0.3189 -0.1211  0.1154
66028W        W 9044  24.632  21.650  25.305 -0.2689 -0.2785 -0.2075
66029W        W 9045   4.744  27.402  28.670  0.1574  0.0562 -0.0876
66030W        W 9046   7.753  10.042  24.645  0.1012  0.2861 -0.2347
66031W        W 9047  18.531  16.136  28.241  0.0922 -0.1374  0.4022
66032W        W 9048  13.063  24.776   7.554  0.1023  0.5003  0.0102
66033W        W 9049  11.272  25.622  22.924  0.3006 -0.4509  0.1627
66034W        W 9050   0.984  19.313  26.124 -0.1911 -0.1270  0.0112
66035W        W 9051  21.901   7.847   4.405 -0.0680 -0.2615 -0.0430
66036W        W 9052  30.601   3.606   5.364  0.0917 -0.0917 -0.1723
66037W        W 9053  14.421  25.030  23.559  0.3384 -0.2450 -0.2783
66038W        W 9054   9.468  22.729  26.651 -0.1057  0.0214  0.0446
66039W        W 9055   2.958   2.928   6.440  0.1275  0.1292 -0.1389
66040W        W 9056  26.445  32.782  19.528 -0.0319  0.5402 -0.0446
66041W        W 9057  15.234  30.606   3.601  0.0752  0.1129  0.2519
66042W        W 9058  10.899  31.308   2.786  0.2670 -0.1125 -0.2157
66043W        W 9059  21.601   1.105  25.411 -0.1213  0.0622  0.1817
66044W        W 9060  12.111   9.869  23.196  0.0111  0.1293  0.1982
66045W        W 9061   2.942  28.032   1.590  0.0099 -0.1126 -0.0491
66046W        W 9062  21.551   4.396  27.976 -0.0123 -0.4059 -0.0999
66047W        W 9063  34.214  31.686  21.398  0.0490 -0.3285 -0.0173
66048W        W 9064  29.286  19.087  28.519 -0.0533  0.4790 -0.0371
66049W        W 9065   3.400  25.316   6.438 -0.0925  0.3907  0.0876
66050W        W 9066  30.152  26.552  24.829  0.4469  0.0981  0.3344
66051W        W 9067   2.276   9.260  14.466 -0.1338 -0.0304 -0.0013
66052W        W 9068   9.075  29.472   8.515  0.0271  0.3741 -0.0061
66053W        W 9069  19.532  14.627   7.760  0.0314  0.0876 -0.1871
66054W        W 9070  15.683  30.192  21.624  0.0861  0.3493  0.2076
66055W        W 9071  25.998   3.529   8.721 -0.1518  0.1939 -0.2015
66056W        W 9072   8.504   4.824  18.151  0.2030  0.2482  0.0415
66057W        W 9073  24.723  21.912  18.883 -0.2372 -0.2845 -0.2554
66058W        W 9074   0.928  10.442   9.006 -0.0809  0.0232  0.1742
66059W        W 9075  18.079   2.257   4.164  0.0951 -0.0605  0.2435
66060W        W 9076   3.145  11.963  25.902 -0.0849 -0.3008 -0.1665
66061W        W 9077   9.835  29.005   0.869 -0.0126  0.3024  0.1545
66062W        W 9078  15.159   0.625   5.767  0.0518 -0.1398 -0.0754
66063W        W 9079   3.903  25.194   1.436 -0.2730  0.1510  0.1835
66064W        W 9080  34.375   1.538  17.905  0.2700 -0.1338 -0.1896
66065W        W 9081  13.559  29.040   5.887 -0.1806  0.1282  0.1873
66066W        W 9082  16.305  29.854  24.500 -0.2568  0.3062  0.0334
66067W        W 9083  29.338  33.759   2.446 -0.3505  0.1796  0.2459
66068W        W 9084   2.728   4.728   3.033  0.0083  0.0145 -0.1055
66069W        W 9085  19.765   1.430   2.758 -0.1772 -0.1235  0.2951
66070W        W 9086   9.962   9.159  15.588  0.1317  0.2928  0.0754
66071W        W 9087  16.259   8.480  22.318 -0.1519  0.3516 -0.1913
66072W        W 9088   7.748   8.399  18.511 -0.6545  0.1555 -0.0632
66073W        W 9089  23.640   1.808  22.883 -0.0075 -0.1031 -0.1076
66074W        W 9090  34.011  17.422  17.774 -0.1801  0.2095  0.2567
66075W        W 9091  20.647  25.786  19.880  0.3140  0.0156 -0.1097
66076W        W 9092  10.524   0.612  21.236  0.2644 -0.1551 -0.2124
66077W        W 9093  24.225  28.038  25.822  0.0403  0.1039  0.1297
66078W        W 9094  29.492  34.623  27.555  0.1498  0.0320 -0.0194
66079W        W 9095  13.887  22.307   8.307  0.0356 -0.2610 -0.1146
66080W        W 9096   4.892  34.209   4.060  0.1313  0.2510 -0.0420
66081W        W 9097   9.860  17.276  25.904  0.1864 -0.1161 -0.1840
66082W        W 9098  24.472  20.819   2.179  0.0266  0.0032  0.0991
66083W        W 9099  11.578   0.506   1.818  0.2906 -0.1914 -0.0383
66084W        W 9100  27.267  11.011   9.409 -0.0082  0.2917 -0.1437
66085W        W 9101  24.080   5.082   5.159 -0.1211  0.0108 -0.2949
66086W        W 9102  12.047   0.600  15.486 -0.1651 -0.0670  0.0807
66087W        W 9103  32.167  19.991  23.427  0.2444  0.1678  0.0970
66088W        W 9104  19.748   3.319   5.561  0.1840 -0.4211 -0.1849
66089W        W 9105  12.744   2.063   3.574 -0.1312 -0.0120 -0.1680
66090W        W 9106  17.707  18.746  28.472  0.1222  0.0478  0.2346
66091W        W 9107   0.187  27.153   3.295 -0.2707  0.0873 -0.2010
66092W        W 9108  34.721  16.462  17.931  0.0308 -0.0193  0.0814
66093W        W 9109   6.009  11.943  23.037 -0.0849 -0.1098 -0.4054
66094W        W 9110   9.060   7.582  20.588 -0.1581 -0.3512 -0.0492
66095W        W 9111  24.615  26.476   5.306  0.2991  0.0711 -0.1598
66096W        W 9112  19.646  24.119  17.972 -0.0283  0.2998  0.0326
66097W        W 9113   1.705  13.826  26.615  0.1127  0.0917 -0.1639
66098W        W 9114  25.048  30.502  24.394  0.0514 -0.1319 -0.2634
66099W        W 9115  11.125  18.826  18.885 -0.1849 -0.0446  0.1017
66100W        W 9116  17.723   8.129  22.027  0.1873  0.0022  0.0402
66101W        W 9117   5.776  34.026  22.547  0.0209  0.0704  0.1838
66102W        W 9118   9.580   8.136   6.894 -0.0862 -0.0660 -0.0365
66103W        W 9119   7.747   6.888  10.078  0.1446  0.0397 -0.1873
66104W        W 9120  16.092  33.074  25.757 -0.0939  0.1643  0.0845
66105W        W 9121   8.128  31.095  20.646  0.2712  0.0717  0.1094
66106W        W 9122  33.411   7.799  28.959 -0.1435 -0.0756  0.2313
66107W        W 9123   4.017  33.757  24.645 -0.3813  0.3654  0.1941
66108W        W 9124  12.986   5.294   2.724 -0.0568  0.3572 -0.1202
66109W        W 9125   9.219   3.574   0.506 -0.0048 -0.2772  0.0284
66110W        W 9126  13.099   1.663  25.860 -0.0364 -0.2327  0.1614
66111W        W 9127  18.667  16.227  18.994  0.3478 -0.0307 -0.4449
66112W        W 9128  32.886  22.303  18.774 -0.1846 -0.1732  0.1386
66113W        W 9129  21.700  28.444  14.560  0.0340  0.2999 -0.0508
66114W        W 9130  25.168  23.728  16.200  0.0719 -0.1128  0.1150
66115W        W 9131  10.394   2.954   0.742 -0.4527 -0.0530 -0.2719
66116W        W 9132  15.269  26.705   4.876 -0.1630  0.1637 -0.1388
66117W        W 9133   6.940   3.934   3.076 -0.0738  0.0649  0.1960
66118W        W 9134  20.333  20.889   6.583  0.1354 -0.3021  0.2765
66119W        W 9135  17.124  24.863  13.443 -0.2843  0.0789 -0.1987
66120W        W 9136   4.240  26.974   7.378 -0.0687  0.3055  0.2937
66121W        W 9137   4.252  15.968  23.350  0.1078  0.1563  0.3745
66122W        W 9138  34.356  25.615   1.818  0.2828  0.0130  0.0163
66123W        W 9139  34.142  23.926  22.850  0.2875  0.1151  0.1209
66124W        W 9140  21.366  28.957   2.343 -0.2359 -0.4209  0.3112
66125W        W 9141  15.128   7.472  25.284 -0.3186 -0.3496 -0.5133
66126W        W 9142  16.921   0.477   6.467 -0.2531 -0.0197  0.1470
66127W        W 9143  13.991  28.678  23.175  0.0886  0.1705  0.3981
66128W        W 9144  19.154   3.632  25.111  0.1545  0.2208  0.1167
66129W        W 9145   7.817  13.444  18.284  0.1158  0.0387  0.0192
66130W        W 9146   5.447   1.243  24.631 -0.0605 -0.1892 -0.1502
66131W        W 9147  21.543   6.043   5.154  0.1054  0.4749  0.3248
66132W        W 9148  13.878  22.736  23.410 -0.2538 -0.2846 -0.3300
66133W        W 9149   2.711  29.286  19.951  0.2261  0.0381 -0.2197
66134W        W 9150  27.056  27.732  23.667 -0.1720  0.0438 -0.1217
66135W        W 9151  11.980  20.568  29.157 -0.0016 -0.1406 -0.0508
66136W        W 9152  15.369  23.017  13.200  0.0027 -0.3029 -0.1652
66137W        W 9153  10.170  17.058  26.440  0.0538 -0.1109  0.3267
66138W        W 9154  24.436  20.783   6.007 -0.1366 -0.1781 -0.0113
66139W        W 9155   5.534  23.580  21.271  0.1466 -0.1190  0.1383
66140W        W 9156  14.843  24.979  20.368 -0.3452 -0.0457 -0.0118
66141W        W 9157  13.039  33.496  23.375 -0.1221 -0.0715  0.3226
66142W        W 9158   8.631  31.486  19.620  0.0548  0.0900  0.1072
66143W        W 9159   0.844  29.122  17.774 -0.2545  0.1353 -0.0210
66144W        W 9160   9.002  28.668  27.274  0.0754 -0.0424 -0.0172
66145W        W 9161   9.030   5.100  28.400  0.0606 -0.0216  0.0377
66146W        W 9162  33.399  20.536  20.531 -0.1230 -0.1401 -0.0008
66147W        W 9163  12.218  22.406  15.922  0.2701 -0.1244  0.2032
66148W        W 9164  19.668   0.119   9.600  0.0739  0.1887 -0.2337
66149W        W 9165   1.820   5.024  20.039 -0.0882 -0.0292  0.2063
66150W        W 9166  10.599  30.257   1.572  0.2007  0.0126 -0.2217
66151W        W 9167  11.131   2.507  23.293  0.1419  0.0904 -0.0952
66152W        W 9168   8.941   3.918   1.243  0.1612  0.0054  0.0424
66153W        W 9169  11.474  25.936  21.247  0.1821  0.0397 -0.2982
66154W        W 9170   2.400   4.139   5.557  0.0317  0.0154  0.1910
66155W        W 9171  24.468  17.369  21.534 -0.2088 -0.0603  0.0265
66156W        W 9172  23.792  32.886  23.043 -0.1872 -0.1391  0.3124
66157W        W 9173  28.960  27.392  28.351  0.0307 -0.4735 -0.1204
66158W        W 9174  22.594  24.590  20.244  0.0943 -0.0102  0.1905
66159W        W 9175  19.471  31.913   9.761  0.0501 -0.1013  0.0236
66160W        W 9176  25.433  26.524  17.401 -0.0249 -0.0713  0.0799
66161W        W 9177  18.291  24.043  15.663  0.0605  0.1024  0.0337
66162W        W 9178  23.045  10.044  21.608 -0.2066 -0.0081  0.1445
66163W        W 9179   8.062  29.530  18.112 -0.1411 -0.1593  0.2940
66164W        W 9180  12.769  27.538  25.682 -0.1680 -0.2267  0.0782
66165W        W 9181  19.549  27.693   7.330 -0.0469 -0.1159  0.1320
66166W        W 9182  13.220  27.569  17.011 -0.3314 -0.3630  0.1236
66167W        W 9183  20.705  26.425  14.102  0.2590  0.0605 -0.0150
66168W        W 9184  22.286  23.884  16.333 -0.0515  0.0932 -0.0127
66169W        W 9185  10.448  18.280   1.798 -0.1027 -0.1393  0.0416
66170W        W 9186   6.288   2.121   8.252  0.0051 -0.0152  0.1147
66171W        W 9187  16.224  21.920  25.346  0.0190  0.0988  0.1896
66172W        W 9188   8.841  26.903  28.281 -0.2401  0.0578 -0.1732
66173W        W 9189  12.771  30.252  19.119  0.0478 -0.3741  0.0914
66174W        W 9190  23.708  32.944  28.027  0.3178 -0.1172 -0.1719
66175W        W 9191   4.936  16.028  21.380 -0.3645 -0.0098 -0.0068
66176W        W 9192   6.932  29.036   0.891  0.1410  0.1988  0.0027
66177W        W 9193  23.769  34.439  15.921  0.1068  0.2114  0.1288
66178W        W 9194   9.808  19.170   6.586  0.0377  0.1254  0.1564
66179W        W 9195  29.842   5.894   8.069 -0.1139  0.0567  0.4133
66180W        W 9196  26.688   6.695  10.516  0.3377 -0.1256  0.0418
66181W        W 9197  12.301  15.970   0.371 -0.0238  0.1235 -0.2239
66182W        W 9198   5.555  22.149  21.533 -0.2524 -0.2072  0.3098
66183W        W 9199  14.920  25.987   3.600  0.1453  0.1910  0.0598
66184W        W 9200  21.518  26.850  27.409  0.0651  0.2684  0.0503
66185W        W 9201   5.298  27.323  24.247 -0.0570 -0.4497 -0.1930
66186W        W 9202   8.086   3.669  18.934  0.2574 -0.0785 -0.2199
66187W        W 9203   2.397   3.974  22.572 -0.2077 -0.0126 -0.1392
66188W        W 9204  25.805   9.998  17.363  0.0103  0.0042  0.5044
66189W        W 9205  11.150  33.262   6.220 -0.2596  0.1277 -0.1010
66190W        W 9206   6.967  19.979  21.064  0.0419  0.0300 -0.2323
66191W        W 9207  12.946  20.156  21.441  0.0167  0.0279  0.2222
66192W        W 9208  14.152   4.427  24.209 -0.1500 -0.2113  0.1343
66193W        W 9209   1.413  22.747  20.329  0.0602  0.1009 -0.0844
66194W        W 9210  10.609  25.342  23.188 -0.1010 -0.0447 -0.0037
66195W        W 9211  12.258   7.243   3.887 -0.1969  0.0896 -0.0085
66196W        W 9212   9.215  31.975  22.107  0.0128 -0.2179 -0.1071
66197W        W 9213  18.628  22.447  28.611  0.1011  0.0620 -0.1564
66198W        W 9214   4.381   3.435  22.502  0.2039 -0.0276 -0.0338
66199W        W 9215   9.965  14.864   0.600 -0.1434 -0.0272  0.0347
66200W        W 9216   8.001   9.222   0.846 -0.0756  0.2531  0.1666
66201W        W 9217  19.092  28.405   1.063 -0.2225  0.0066  0.2430
66202W        W 9218  17.037  28.817  27.535 -0.1164 -0.0374 -0.0078
66203W        W 9219   3.749   6.776  17.070  0.1337 -0.1604 -0.1017
66204W        W 9220   0.200  21.180  22.455  0.0233  0.3876  0.0245
66205W        W 9221  18.195  25.590  19.051 -0.1525 -0.1077 -0.1415
66206W        W 9222  11.890  11.296   2.929  0.0078 -0.1347  0.1322
66207W        W 9223  24.575  29.457  16.966 -0.2778 -0.0432  0.0383
66208W        W 9224  22.915  23.306  19.332  0.2421 -0.0363  0.1278
66209W        W 9225  34.391  32.823  16.823  0.3960  0.1781 -0.0730
66210W        W 9226  30.143  26.676   9.183 -0.1803 -0.0891  0.0086
66211W        W 9227  32.006   9.541   7.559  0.0356  0.3063  0.1891
66212W        W 9228  34.297  16.894   6.165 -0.2700 -0.0958 -0.3654
66213W        W 9229  26.890  28.554  17.210  0.0187 -0.1547 -0.1048
66214W        W 9230  10.215  32.725  22.952 -0.2613  0.4561  0.1420
66215W        W 9231  23.009   3.200  18.428 -0.2800  0.0086  0.2000
66216W        W 9232  28.870  32.168  28.281  0.0745 -0.0745 -0.1146
66217W        W 9233  11.366   0.062   4.949 -0.0288 -0.1087 -0.2078
66218W        W 9234  19.108  24.269  23.577 -0.1874  0.1660  0.0862
66219W        W 9235  19.615  20.943   1.692  0.2545  0.0255 -0.2745
66220W        W 9236   6.878  26.352   4.626 -0.1886 -0.1727  0.1022
66221W        W 9237  16.681  22.257  12.331 -0.4642  0.0209  0.1532
66222W        W 9238  27.983  28.553  25.735  0.0987  0.1566 -0.3203
66223W        W 9239  31.271   4.439   4.913 -0.0282 -0.1175 -0.1219
66224W        W 9240  16.659  24.118  17.219  0.0908 -0.0277 -0.3225
66225W        W 9241  12.251   2.921  16.527  0.1362  0.0087 -0.0670
66226W        W 9242   5.002   5.738  28.648  0.0842  0.4003 -0.3218
66227W        W 9243   1.430  22.047  21.891 -0.1006  0.2104 -0.0028
66228W        W 9244  18.788   3.917   3.614 -0.3384  0.0376  0.3023
66229W        W 9245   2.090   7.105  21.427 -0.5095 -0.1323 -0.2389
66230W        W 9246  22.775  26.619  16.202 -0.1613 -0.1149 -0.2512
66231W        W 9247  31.596  31.314  28.709  0.4357 -0.0763  0.0868
66232W        W 9248  23.477  32.523  15.975  0.2547 -0.0507  0.0984
66233W        W 9249  13.517  26.314  20.351 -0.3483  0.0693 -0.0407
66234W        W 9250  14.227   5.640  18.204  0.0450  0.4531 -0.1505
66235W        W 9251  10.661  26.108  21.628  0.2574  0.2439  0.1587
66236W        W 9252   4.747   5.947  23.767  0.1279  0.0179 -0.0704
66237W        W 9253  13.092  26.147  23.999 -0.4881  0.2352  0.3712
66238W        W 9254   0.511   6.408   8.586  0.0096 -0.1783 -0.0340
66239W        W 9255  30.090   5.968  27.973  0.0723  0.1518  0.4175
66240W        W 9256  12.092  24.342  22.307  0.0273  0.0069  0.0695
66241W        W 9257  31.792  32.325  25.259  0.1178 -0.0688  0.1178
66242W        W 9258  26.257   5.883   2.899  0.0117 -0.0720  0.6421
66243W        W 9259   3.009  14.182  17.619  0.0321  0.1828  0.4018
66244W        W 9260  14.178  21.531  21.301  0.4724 -0.1897  0.1305
66245W        W 9261  14.713   7.036   2.693 -0.0924 -0.2825 -0.6950
66246W        W 9262  19.565  22.940  26.983  0.4323  0.1547  0.0010
66247W        W 9263   9.783  34.523  19.116  0.0748 -0.2477 -0.0345
66248W        W 9264   8.673  33.136  16.629  0.0606 -0.1153  0.0747
66249W        W 9265  27.049   1.050  20.386  0.2693  0.3017  0.1028
66250W        W 9266  11.915   6.987  14.897 -0.3139  0.2188  0.1503
66251W        W 9267  24.396   7.470   7.017 -0.0470  0.0730  0.2557
66252W        W 9268   9.338   6.173  20.107 -0.1919  0.1549 -0.0393
66253W        W 9269  22.454  17.920  22.319 -0.0769  0.0544 -0.0411
66254W        W 9270  19.855   6.977  21.290 -0.2986  0.1455  0.2767
66255W        W 9271  11.910  33.235  18.981  0.3527  0.2469 -0.3985
66256W        W 9272  28.412  34.285  24.821 -0.1583 -0.1001 -0.2830
66257W        W 9273  24.617  29.046   8.026  0.0060  0.1594  0.4326
66258W        W 9274  24.041  33.199   7.310 -0.0129 -0.2758 -0.1903
66259W        W 9275   4.585  34.576   2.882 -0.0041  0.1562  0.0266
66260W        W 9276   4.821  22.230  23.282 -0.0143 -0.1171 -0.0272
66261W        W 9277  17.893  24.235  16.067  0.0978  0.1410  0.2180
66262W        W 9278   7.274  30.521   8.552 -0.1084 -0.0057  0.1787
66263W        W 9279  24.412   6.217   2.717 -0.0275 -0.1553 -0.3345
66264W        W 9280  20.577  28.262  15.039  0.1993  0.1434 -0.2739
66265W        W 9281  34.243   0.268  24.383 -0.1107  0.1437 -0.2995
66266W        W 9282  11.220  20.128   5.009  0.2620  0.2606  0.2866
66267W        W 9283   5.683  26.524  14.813 -0.2370  0.0198  0.0213
66268W        W 9284  17.157  20.357  20.487 -0.1180 -0.0482 -0.3210
66269W        W 9285   6.878  17.826   7.169 -0.0235  0.0206 -0.2050
66270W        W 9286  23.111   8.389  21.561  0.2732 -0.0598 -0.1466
66271W        W 9287  16.873   6.636  28.935 -0.0077  0.0565 -0.1583
66272W        W 9288   0.453  11.796   2.739 -0.3386  0.1861 -0.0830
66273W        W 9289  31.961   4.892   5.599 -0.0531  0.1745 -0.1746
66274W        W 9290   4.023  25.776   0.136 -0.0956  0.1625  0.0189
66275W        W 9291  18.077  21.450   1.884 -0.0023  0.1988  0.0776
66276W        W 9292   6.910  32.207   2.647  0.0311 -0.0451 -0.1687
66277W        W 9293  12.891  21.115  12.709 -0.1743  0.4831  0.2670
66278W        W 9294   5.530  19.406   9.279  0.3238 -0.3137 -0.0663
66279W        W 9295  11.260  24.749   0.187 -0.1010 -0.3778  0.0495
66280W        W 9296  19.428   2.163  22.692  0.5563 -0.0685  0.1105
66281W        W 9297  17.264  20.230  28.289 -0.0673 -0.0135  0.1381
66282W        W 9298  15.849  29.457  28.620  0.0915  0.1488 -0.1596
66283W        W 9299  33.579   5.758  28.404  0.3848 -0.0028 -0.2154
66284W        W 9300   1.044  23.024  25.981 -0.0070  0.2437 -0.0703
66285W        W 9301   9.502  27.611  15.921 -0.3844  0.2679  0.2465
66286W        W 9302  18.670  27.194   2.398  0.1340 -0.0959 -0.4731
66287W        W 9303  15.313  26.627  26.438 -0.1177  0.2137  0.1758
66288W        W 9304   1.742  10.950   3.625 -0.0904  0.0414  0.1422
66289W        W 9305  11.990  33.538   3.445 -0.0952  0.4301 -0.1173
66290W        W 9306   4.020  19.632   4.249  0.0357 -0.0517  0.1341
66291W        W 9307  13.902   5.968   5.726  0.1705  0.3317  0.0714
66292W        W 9308   6.495  30.656   2.492  0.0557 -0.0770  0.2254
66293W        W 9309  24.147   6.455  27.205 -0.0648 -0.0172 -0.0837
66294W        W 9310  34.553  18.260  17.338  0.1423 -0.0712  0.3716
66295W        W 9311  11.130  28.907  21.419 -0.0527 -0.0398 -0.2614
66296W        W 9312  24.866  32.559  20.110  0.1216 -0.0711 -0.0507
66297W        W 9313  21.153  26.074  22.571  0.2168 -0.1333  0.1305
66298W        W 9314   5.540  18.556  18.082 -0.3052 -0.0929  0.2617
66299W        W 9315   4.899  29.170  20.850  0.3095  0.2366  0.1823
66300W        W 9316   5.847  18.290  17.675  0.1684  0.0729 -0.0003
66301W        W 9317  19.857  30.861   3.713  0.2051 -0.0030 -0.1284
66302W        W 9318   6.074  23.572   0.301 -0.2697  0.1979 -0.1800
66303W        W 9319  21.196  31.799  22.770  0.1651  0.1836 -0.0581
66304W        W 9320   8.191  13.380  17.841  0.0761 -0.2591 -0.0353
66305W        W 9321  22.779  24.696  28.413 -0.0521  0.3670  0.0254
66306W        W 9322   1.408  28.157  28.649 -0.0219 -0.1574 -0.0232
66307W        W 9323   9.374  20.851  13.202  0.1752 -0.3270  0.2328
66308W        W 9324   9.597  20.994  13.660  0.1298 -0.0365  0.2645
66309W        W 9325  26.850  30.974  25.634 -0.0338 -0.0218 -0.2111
66310W        W 9326  25.672  12.272   3.164  0.0580  0.2639  0.2020
66311W        W 9327  16.856  27.422  22.147 -0.0239 -0.1245 -0.0524
66312W        W 9328  28.269  27.458   8.216 -0.2124  0.0141  0.0254
66313W        W 9329  12.874  28.275  15.188  0.3599 -0.0548 -0.2418
66314W        W 9330   8.062  13.621   4.771 -0.0347 -0.1255 -0.2399
66315W        W 9331   6.139  24.715  20.700 -0.0342 -0.0620 -0.1409
66316W        W 9332  22.631  19.178   3.882  0.1408  0.2042 -0.0912
66317W        W 9333  29.243   6.247  15.334  0.1411 -0.1122  0.0889
66318W        W 9334   2.174   8.444   8.181  0.0193  0.0711 -0.5061
66319W        W 9335  28.382  23.401  25.295  0.1301  0.0667  0.0482
66320W        W 9336  23.578  27.664  16.028 -0.1378 -0.4793 -0.0244
66321W        W 9337   6.891   3.429  19.193 -0.3125  0.0590 -0.5605
66322W        W 9338   1.941  19.357  14.819  0.2659  0.2523  0.0939
66323W        W 9339  22.703  21.459   4.760  0.2756 -0.1115  0.0062
66324W        W 9340  20.318  16.738  28.027 -0.2857 -0.0618  0.3980
66325W        W 9341  20.328  15.685   3.075  0.0788  0.2102 -0.5826
66326W        W 9342  10.699  11.692  23.210  0.2229  0.1262  0.0332
66327W        W 9343  18.388   7.708  28.078 -0.2088 -0.0235 -0.1492
66328W        W 9344   2.171  24.220  24.947 -0.0991 -0.0431  0.0452
66329W        W 9345  16.044  30.913   1.210 -0.0161  0.0622 -0.1165
66330W        W 9346   3.999   3.695  25.608 -0.0446 -0.2018  0.0721
66331W        W 9347  30.537  25.091  16.951 -0.1132 -0.0797 -0.0372
66332W        W 9348  14.055  27.385   8.142 -0.2225  0.1168  0.0772
66333W        W 9349  12.021  32.927   0.293  0.0300  0.0707  0.0686
66334W        W 9350  14.040   1.919  17.844 -0.1500  0.0357 -0.2504
66335W        W 9351  32.549  26.759  22.049  0.0846  0.2373 -0.1909
66336W        W 9352  34.763   2.347  17.942  0.0077 -0.1794 -0.0752
66337W        W 9353  11.096   0.056   8.037 -0.0392 -0.1709  0.2570
66338W        W 9354  19.866  27.063  22.843 -0.0525 -0.2233 -0.1348
66339W        W 9355   1.466  21.205   0.635  0.1568 -0.5232 -0.2922
66340W        W 9356  22.415  21.495   4.159 -0.1140  0.3505  0.0893
66341W        W 9357  11.933  11.401  20.521  0.1736  0.0354 -0.2506
66342W        W 9358  32.383  32.203  16.393  0.0339  0.0124 -0.3208
66343W        W 9359  28.777  23.452  24.306 -0.1830 -0.1623  0.0623
66344W        W 9360   8.432  10.548  15.454  0.0596  0.0953  0.3522
66345W        W 9361   5.187  11.778  17.534  0.1505  0.0364 -0.0523
66346W        W 9362  34.755  28.726   7.513 -0.3689  0.1114  0.1508
66347W        W 9363  15.926  14.451  28.282 -0.0213  0.0071  0.1112
66348W        W 9364   7.626   5.437   2.295 -0.2382 -0.0338 -0.0278
66349W        W 9365  20.953  25.373   7.134  0.2082 -0.2977  0.0876
66350W        W 9366  19.041  22.174  27.911 -0.0734  0.1272  0.0794
66351W        W 9367  19.513  22.583  25.019  0.0073 -0.1330  0.3211
66352W        W 9368   8.384  27.393  20.404  0.0160 -0.0489 -0.0672
66353W        W 9369   1.218  13.083   7.269  0.0734 -0.1893 -0.0055
66354W        W 9370  17.920  33.284  25.861  0.0612  0.1734  0.1097
66355W        W 9371  10.234  13.723  17.101 -0.0780 -0.2014 -0.1300
66356W        W 9372   6.760   4.334   2.276  0.0527 -0.0270 -0.1208
66357W        W 9373  32.839  23.834   5.549  0.1339 -0.1562  0.0548
66358W        W 9374   8.559  22.051   4.026 -0.1926  0.0211 -0.0231
66359W        W 9375  11.409  17.897  28.472  0.0456  0.2746 -0.0322
66360W        W 9376   3.499  21.651   0.350 -0.2645 -0.1509 -0.0395
66361W        W 9377  32.018  34.510  28.483 -0.2228 -0.0261  0.2424
66362W        W 9378  11.013  30.851  28.264 -0.1028  0.3035 -0.1596
66363W        W 9379  13.642  12.864  23.071  0.0896  0.2228  0.1115
66364W        W 9380  13.732  32.239  10.465  0.0987  0.0209  0.0638
66365W        W 9381  15.241  23.902   7.032  0.2703  0.0556  0.4987
66366W        W 9382   9.920  18.891   3.777 -0.2651 -0.2296 -0.0899
66367W        W 9383  21.324  21.155  17.142 -0.3937  0.1160  0.0825
66368W        W 9384   9.263   9.746   3.321  0.1341  0.2360  0.2268
66369W        W 9385   7.477  18.464  13.566  0.0801  0.0046  0.2298
66370W        W 9386   8.126  26.524  27.174 -0.4701 -0.1756  0.1876
66371W        W 9387  34.062   3.875  28.779  0.3282 -0.3332 -0.0623
66372W        W 9388  27.173  27.759   2.502 -0.2373  0.1134  0.1870
66373W        W 9389  32.395  19.398  27.372 -0.0523  0.2001  0.0657
66374W        W 9390  32.546  32.141   4.953 -0.1432 -0.2540 -0.2758
66375W        W 9391  24.151  32.118  27.097 -0.3717  0.1415 -0.3471
66376W        W 9392   5.377  22.629  21.159  0.2003  0.0166 -0.0835
66377W        W 9393  17.666  21.327  15.446  0.0008  0.0462 -0.3183
66378W        W 9394   7.367  16.147  19.181  0.0569 -0.1395  0.1765
66379W        W 9395   1.557  26.247  22.069  0.0486 -0.0327  0.0661
66380W        W 9396  17.655  27.163  20.331 -0.0816  0.3717 -0.0898
66381W        W 9397  32.322  29.812  19.601  0.2298  0.0978 -0.0739
66382W        W 9398  17.043  12.513   0.932  0.1446 -0.3555 -0.1943
66383W        W 9399  17.969   9.945   9.033  0.0688  0.0834  0.0987
66384W        W 9400   9.081  23.686  21.152  0.3786 -0.0863 -0.0545
66385W        W 9401  22.228   7.406  19.385 -0.2610 -0.1372 -0.0047
66386W        W 9402  16.194  11.766   7.954 -0.0925 -0.2461  0.0229
66387W        W 9403  12.554   5.758  13.669  0.2119 -0.0649 -0.2666
66388W        W 9404  13.053  28.282  17.678  0.2648 -0.0335 -0.3026
66389W        W 9405  22.924   1.665  15.760  0.1545 -0.1284 -0.3017
66390W        W 9406   3.133   8.303   8.168  0.3929 -0.1352  0.0797
66391W        W 9407  10.204  32.922  20.840  0.2067  0.1682 -0.1010
66392W        W 9408  17.656  29.567   9.953  0.0596 -0.0266 -0.0356
66393W        W 9409  13.520  32.388  22.461  0.1687 -0.4542  0.1397
66394W        W 9410  17.135  31.484  20.024  0.1814  0.1505  0.2081
66395W        W 9411  32.981  29.514  21.569 -0.0189 -0.0611 -0.0179
66396W        W 9412  15.997  14.087  25.697  0.2132 -0.1230 -0.0041
66397W        W 9413   2.289  14.373  23.024  0.1671  0.1560  0.2357
66398W        W 9414   5.502  32.217   9.627  0.0380  0.0660 -0.1007
66399W        W 9415   2.144  32.501  18.340 -0.2965 -0.2470 -0.4018
66400W        W 9416   8.178  29.275  25.863 -0.0823 -0.4130  0.1012
66401W        W 9417  17.643  24.099   1.796 -0.0278 -0.0225 -0.2641
66402W        W 9418  22.430  26.373   7.341  0.0579  0.1229  0.3262
66403W        W 9419  31.131   5.265  27.354 -0.0320  0.0790  0.3423
66404W        W 9420  28.352  27.599  19.607 -0.2308 -0.1524  0.0749
66405W        W 9421  13.214   8.224  23.428 -0.0262 -0.0422 -0.0617
66406W        W 9422  25.438  32.384  18.610  0.2302 -0.0567 -0.1142
66407W        W 9423   3.571   6.756  22.257  0.2158  0.2257  0.0492
66408W        W 9424  16.852  34.015  19.607 -0.0743  0.2320 -0.1515
66409W        W 9425   1.283   3.731  28.045 -0.2207 -0.0202 -0.0301
66410W        W 9426  10.135  23.162  13.839 -0.4646 -0.1425 -0.0917
66411W        W 9427   1.112   6.781   2.831 -0.3401  0.1012 -0.0349
66412W        W 9428  30.154  32.241   3.880 -0.1102 -0.1406 -0.1586
66413W        W 9429   4.683   0.428  24.177  0.1425  0.1204  0.0363
66414W        W 9430  27.348  21.944  16.728  0.7612  0.0113 -0.0265
66415W        W 9431  19.176  24.634  25.961 -0.0913 -0.0830  0.2080
66416W        W 9432  15.497   0.297   4.695 -0.1370  0.2628  0.3364
66417W        W 9433  19.983  23.177  21.315  0.3552 -0.6149  0.1120
66418W        W 9434   5.682  16.634   5.077  0.0466  0.1657  0.0987
66419W        W 9435  18.835  31.067  18.396  0.1454  0.2464  0.1163
66420W        W 9436  17.049   7.614  28.459 -0.0539  0.1178  0.0191
66421W        W 9437   6.663  32.520  22.809  0.0753 -0.0799 -0.0894
66422W        W 9438  14.111   1.737  15.141  0.2121  0.2059 -0.2521
66423W        W 9439   6.714   2.171  13.943  0.0224 -0.1055  0.1926
66424W        W 9440  29.990  24.080   1.219 -0.0137 -0.1014 -0.1335
66425W        W 9441  17.131  33.640  23.701 -0.2099 -0.0231  0.2322
66426W        W 9442  32.132   3.663   4.164  0.0079  0.3324  0.0579
66427W        W 9443  17.061  28.008   2.179 -0.0380 -0.0854 -0.0110
66428W        W 9444  17.871  28.296  17.160  0.1052  0.1752  0.1235
66429W        W 9445   8.746  31.820  23.092  0.1181 -0.2560 -0.2106
66430W        W 9446  21.167  30.857  29.004  0.0552  0.0335  0.0390
66431W        W 9447  32.303  11.728   4.214  0.0764 -0.2491 -0.3493
66432W        W 9448  17.602  22.987   5.516  0.1778  0.1442  0.1202
66433W        W 9449   7.041  30.298  13.887  0.0972  0.2915  0.0773
66434W        W 9450  10.041   8.569   4.361  0.1044  0.1737 -0.2261
66435W        W 9451  23.000  12.963   6.977  0.2528  0.2905  0.0858
66436W        W 9452  20.249   3.684  26.120 -0.0396 -0.0782 -0.2625
66437W        W 9453   1.442   3.351  27.317 -0.4132 -0.0685  0.0089
66438W        W 9454   6.524  30.345  16.109  0.1528  0.2092  0.1553
66439W        W 9455  25.967   9.107  28.656  0.3090 -0.0517 -0.1662
66440W        W 9456   8.056   2.658   3.697  0.3479 -0.0359 -0.3575
66441W        W 9457  13.578   4.766   8.665  0.2205  0.1343  0.0647
66442W        W 9458  15.905   1.913   2.231  0.0067 -0.2463 -0.0633
66443W        W 9459  12.831  23.190   8.082 -0.0661 -0.0382  0.0235
66444W        W 9460  11.732  21.302  14.396 -0.1548 -0.1185 -0.0194
66445W        W 9461  18.954  18.961  23.143  0.2168 -0.1452  0.0326
66446W        W 9462  30.608  28.837   6.574 -0.3830  0.1019  0.0341
66447W        W 9463  32.283  33.560  21.818  0.1712 -0.0994  0.1092
66448W        W 9464  11.393  12.737   7.225 -0.1769 -0.1632  0.2620
66449W        W 9465   9.992  19.227  12.924  0.1019  0.0474 -0.2149
66450W        W 9466  14.160  24.869  17.638 -0.2461 -0.1982  0.0089
66451W        W 9467   5.299  33.973  15.324  0.1307 -0.2554  0.2819
66452W        W 9468  32.228  10.535  26.555  0.1582  0.1248  0.1190
66453W        W 9469  32.298   6.879   2.617  0.2194  0.1234 -0.0902
66454W        W 9470  19.372  27.062  25.369  0.1440  0.1654 -0.0303
66455W        W 9471  10.973  18.436   4.483 -0.4342  0.0023  0.0357
66456W        W 9472  17.845   9.673   7.476 -0.5205 -0.0934 -0.0273
66457W        W 9473  19.500   4.865  27.484 -0.0347 -0.2955  0.1051
66458W        W 9474   9.351  23.971   8.984  0.0235  0.2145 -0.0269
66459W        W 9475  14.922  24.047  19.334 -0.0977  0.0572 -0.0437
66460W        W 9476  10.489  32.582  28.884 -0.1022 -0.0366  0.0565
66461W        W 9477   8.185  30.412   5.109 -0.1852 -0.0671 -0.0367
66462W        W 9478  11.665  25.476  14.603  0.0026 -0.2956  0.3096
66463W        W 9479   4.221   1.932  25.484 -0.1234  0.0708 -0.1803
66464W        W 9480   5.187  34.459  26.381 -0.0175 -0.0605  0.1093
66465W        W 9481  17.076  29.779   8.428  0.0269 -0.0098 -0.1826
66466W        W 9482  18.150   0.885   3.053 -0.1961 -0.4643  0.1553
66467W        W 9483  17.009  11.401  24.584 -0.2111  0.2482  0.0834
66468W        W 9484  11.672   7.578   3.880  0.0838 -0.0993  0.0042
66469W        W 9485  34.260  28.149  26.660  0.0532  0.2123 -0.1730
66470W        W 9486  28.526  22.499   6.039 -0.1142 -0.0005  0.2425
66471W        W 9487  12.526   7.494  16.764  0.0547 -0.3031 -0.2596
66472W        W 9488  11.538  29.711   5.523  0.1348  0.0277 -0.0627
66473W        W 9489  13.405  24.461  25.799  0.4434  0.1035 -0.1360
66474W        W 9490  10.625   1.426  17.049 -0.0758  0.0733  0.1188
66475W        W 9491  25.836   1.442   1.426 -0.0110 -0.1474 -0.4381
66476W        W 9492  32.206   1.705   6.785 -0.2043  0.0421  0.0991
66477W        W 9493  24.299  28.681   3.884  0.1012 -0.1499 -0.3840
66478W        W 9494   8.787  27.611   8.830  0.4059  0.2038  0.1381
66479W        W 9495   7.879  18.237  15.301  0.1611  0.0894  0.2512
66480W        W 9496  21.409  16.114   6.873 -0.0020  0.0734 -0.0490
66481W        W 9497  16.382  23.933  27.436  0.0734 -0.1137  0.0626
66482W        W 9498  23.821  19.195   7.705  0.0414 -0.1898 -0.1926
66483W        W 9499  26.563  27.014  28.746 -0.4086  0.0943  0.2977
66484W        W 9500  16.392  30.137   0.614 -0.2078 -0.2229 -0.0339
66485W        W 9501   8.469  33.990  21.204 -0.0754  0.3071  0.2260
66486W        W 9502  26.332  28.185  19.906  0.1247 -0.1553 -0.2452
66487W        W 9503  14.229   2.579   8.801  0.1636  0.0254  0.1174
66488W        W 9504  15.109  31.205   0.183  0.1285  0.0974  0.0153
66489W        W 9505  11.376  18.476   0.144 -0.0963  0.1197 -0.0120
66490W        W 9506   3.687  34.150  26.042 -0.0400  0.1410 -0.1320
66491W        W 9507  10.240  26.936  21.220  0.1638  0.0599  0.1278
66492W        W 9508  12.825   6.276  14.508  0.0454 -0.3800 -0.0433
66493W        W 9509  14.847   8.321  14.449  0.4100 -0.1607  0.1908
66494W        W 9510  15.981  24.197  19.579 -0.0462  0.0301  0.0061
66495W        W 9511  10.085   0.814  14.159  0.2324  0.2180  0.3018
66496W        W 9512  14.473  34.137  23.404 -0.0634 -0.0569 -0.6029
66497W        W 9513   9.889   0.863  17.753  0.1092  0.2678  0.1433
66498W        W 9514   7.505  27.007  22.878  0.0705 -0.1204  0.1223
66499W        W 9515  11.127   1.348  14.701  0.2616 -0.0290 -0.1201
66500W        W 9516  10.546   9.530   4.661  0.1841  0.0095  0.0214
66501W        W 9517   7.409  28.512  27.736 -0.2832  0.2811  0.1606
66502W        W 9518  34.021  22.244   1.686  0.0822 -0.0169 -0.0085
66503W        W 9519  30.907  23.854  25.198 -0.0916  0.0642 -0.0914
66504W        W 9520  30.932  30.488  17.950  0.2311 -0.0791  0.1034
66505W        W 9521  25.659  27.254   0.427 -0.2906  0.4830  0.1967
66506W        W 9522  19.530   1.748  16.294  0.0090 -0.3310  0.1503
66507W        W 9523   3.921  17.719  20.583  0.1813 -0.0194 -0.1347
66508W        W 9524  20.320  31.370  20.131 -0.0845 -0.3144  0.2421
66509W        W 9525  12.151   7.723  15.644 -0.2509 -0.0267  0.0066
66510W        W 9526   1.875  32.822  20.811 -0.0990 -0.3472  0.1616
66511W        W 9527   5.733  13.491  19.676  0.2252  0.0631  0.3934
66512W        W 9528  11.426   2.558  18.360  0.1037 -0.3865 -0.0377
66513W        W 9529  14.666  24.873  13.978 -0.0375 -0.0237 -0.1196
66514W        W 9530  32.969  34.346  23.197  0.0788  0.2796  0.2928
66515W        W 9531  33.244  18.070  24.540 -0.0475  0.2368 -0.1770
66516W        W 9532  14.458  30.457  24.602 -0.0721  0.2208 -0.1725
66517W        W 9533   0.777   6.408  21.432  0.0352 -0.3446  0.3691
66518W        W 9534   5.527  15.696  19.809  0.0038  0.1723  0.2224
66519W        W 9535  15.653  34.210  15.163 -0.1096  0.2681  0.1086
66520W        W 9536  12.574   0.364  16.389  0.2647  0.0796 -0.0219
66521W        W 9537  11.067  29.768   2.687 -0.3350 -0.3201 -0.3527
66522W        W 9538  18.629  31.677  24.946  0.2778 -0.0759 -0.1316
66523W        W 9539   3.200  33.965  22.636 -0.0839  0.1040 -0.2319
66524W        W 9540  15.721   0.174  19.790 -0.0938  0.0554 -0.0337
66525W        W 9541   2.008  22.639  22.617 -0.2069 -0.0487  0.1012
66526W        W 9542   8.264  33.466  21.042  0.3388  0.1297  0.2155
66527W        W 9543   9.586  31.076   0.310 -0.0034  0.0493 -0.0060
66528W        W 9544   0.841   9.921  18.146  0.1132  0.1673 -0.0554
66529W        W 9545  17.750  29.283  21.723  0.1489  0.2536 -0.0936
66530W        W 9546  34.412  10.327  20.148  0.0757  0.1950 -0.0677
66531W        W 9547  10.760   5.742  17.283 -0.1187  0.1719  0.0320
66532W        W 9548  10.099   5.906  29.006  0.1390  0.1836 -0.4076
66533W        W 9549  19.052  31.964  16.133 -0.4386  0.0102  0.3551
66534W        W 9550   6.176  12.270  15.881  0.0457  0.2121 -0.2530
66535W        W 9551  32.853  12.160   1.614 -0.1273  0.3602  0.3616
66536W        W 9552  15.432   8.881  16.132  0.2289 -0.1651 -0.0570
66537W        W 9553   5.168  31.912   9.262  0.1509 -0.3716  0.1784
66538W        W 9554   5.440  31.395  18.948  0.1321  0.0280  0.1445
66539W        W 9555   4.956   2.268  25.945 -0.1417  0.1058 -0.2117
66540W        W 9556   3.156  23.451  15.375  0.3046  0.1515 -0.1120
66541W        W 9557  26.331  33.922  15.426 -0.1151 -0.3075  0.0586
66542W        W 9558   6.833  32.813  23.648  0.0106  0.0205 -0.2614
66543W        W 9559  15.831   0.015   5.685  0.1208  0.0206 -0.1962
66544W        W 9560  19.671  34.296  21.855 -0.2618 -0.3006 -0.1109
66545W        W 9561  25.001  28.089  16.784  0.0988  0.1342 -0.0866
66546W        W 9562  18.497   0.734  15.240 -0.2748 -0.1786 -0.0654
66547W        W 9563  25.200  34.417  23.747 -0.0514  0.2576 -0.0795
66548W        W 9564  13.616   1.185  29.199  0.1650 -0.1708 -0.2974
66549W        W 9565  18.004   7.507   2.952 -0.1781 -0.3623 -0.0512
66550W        W 9566  16.001   2.710  24.351 -0.0693  0.3841  0.0636
66551W        W 9567   7.973   5.860  23.025  0.0534  0.1717  0.3830
66552W        W 9568   7.091   3.747  16.540 -0.0999  0.0658  0.4534
66553W        W 9569  21.129  32.249  18.017 -0.2390  0.2037  0.0143
66554W        W 9570  27.892   0.535  16.710 -0.0783 -0.1446  0.1217
66555W        W 9571   5.465  27.093  16.522  0.1894 -0.0215  0.0778
66556W        W 9572  19.668   2.820  21.564 -0.0064 -0.0782 -0.2140
66557W        W 9573  33.809  29.551  20.541 -0.0604 -0.5762 -0.2473
66558W        W 9574  11.360  11.286  23.665 -0.3454  0.1311  0.0905
66559W        W 9575   9.410  29.420  17.143  0.2761 -0.1321  0.1287
66560W        W 9576  31.904   5.065   1.577 -0.2376  0.0668 -0.0999
66561W        W 9577   4.302  29.457  20.091  0.4131 -0.3373  0.0742
66562W        W 9578  22.104  34.098  16.763  0.0314 -0.0489  0.1386
66563W        W 9579  23.728   7.838  17.750 -0.0751 -0.1704 -0.0082
66564W        W 9580  10.279  30.594  16.962 -0.2054  0.0268 -0.0488
66565W        W 9581  26.025   4.539  24.396  0.0624 -0.0264 -0.3431
66566W        W 9582  34.058   4.390  25.315  0.0021 -0.2988 -0.0014
66567W        W 9583  11.981  14.077  13.274  0.1748  0.0449 -0.1771
66568W        W 9584  20.622   3.112  15.906  0.2610 -0.1037  0.0111
66569W        W 9585  17.611  31.850  17.353  0.2240 -0.0274 -0.1123
66570W        W 9586   7.488   0.551  18.028  0.1200 -0.1782 -0.2332
66571W        W 9587   5.783  14.661  21.850  0.0003  0.2071  0.1183
66572W        W 9588   9.540  13.196  22.098 -0.0142  0.0334  0.2435
66573W        W 9589  32.006  31.275  24.205 -0.0926  0.3606  0.3331
66574W        W 9590   6.702  33.399  22.630 -0.1071 -0.0757 -0.1634
66575W        W 9591  15.427  29.919  17.660  0.0983  0.1369  0.2342
66576W        W 9592  20.766  32.882  19.531 -0.1328 -0.2154 -0.1294
66577W        W 9593  24.731  25.138   6.453  0.0307  0.2270 -0.2673
66578W        W 9594  13.981  32.490  18.330 -0.2731  0.0729 -0.0519
66579W        W 9595  17.626   2.375  28.683 -0.1189 -0.1146  0.0626
66580W        W 9596  14.687   6.629  26.255 -0.0506  0.2189 -0.1897
66581W        W 9597  11.338  20.777  17.464 -0.3718 -0.0719  0.1353
66582W        W 9598  12.903  20.814  24.468 -0.1573 -0.2115 -0.2256
66583W        W 9599  10.509  28.215  16.562  0.0830 -0.1046 -0.1275
66584W        W 9600   5.089  30.803  21.713 -0.1234  0.0115  0.1288
66585W        W 9601  14.115  20.011  13.096  0.0359 -0.2296 -0.0790
66586W        W 9602  21.968   5.609  14.806 -0.1637  0.0854  0.1311
66587W        W 9603   4.702   0.123  23.659  0.0480  0.3352  0.2415
66588W        W 9604  17.478  24.023  28.621  0.0617 -0.0671 -0.2675
66589W        W 9605   2.482  19.177  22.343  0.2458 -0.1100  0.2626
66590W        W 9606  18.230   2.848  22.487 -0.0519 -0.0639  0.1282
66591W        W 9607   2.828  26.253   3.513 -0.2515 -0.1547  0.0097
66592W        W 9608   3.754  19.165  24.194 -0.3374 -0.0327 -0.0303
66593W        W 9609   5.675   9.752  20.581  0.1504 -0.0150 -0.0924
66594W        W 9610  31.402  26.348  16.291  0.1194  0.0641 -0.0548
66595W        W 9611  31.111   7.204  17.721 -0.1101  0.2353 -0.3158
66596W        W 9612  22.927   2.806  18.888 -0.2405  0.0894 -0.1741
66597W        W 9613  23.170   1.659  22.496 -0.3705 -0.2972  0.1974
66598W        W 9614  17.517   5.691  18.225  0.1546  0.1116 -0.1556
66599W        W 9615  33.275  32.604  24.003 -0.2128  0.0555 -0.1215
66600W        W 9616  22.102   7.393   3.176 -0.0234  0.1139  0.0245
66601W        W 9617  22.120   7.930  20.859  0.1827  0.2448 -0.2676
66602W        W 9618   3.916  10.187  20.176 -0.0179 -0.0203  0.0550
66603W        W 9619  12.960   1.138  18.790 -0.0864 -0.1555 -0.3345
66604W        W 9620  29.468   1.904  15.053 -0.0045  0.0543  0.1724
66605W        W 9621  19.424  23.621  17.055  0.1768  0.2275 -0.1536
66606W        W 9622  14.835  19.971  12.615  0.0355 -0.0630  0.1061
66607W        W 9623   2.038  31.751  18.586 -0.1760 -0.0425  0.0788
66608W        W 9624  14.333  30.517   5.110  0.0402 -0.1579 -0.1674
66609W        W 9625   5.717  30.499   9.685  0.2622  0.1757  0.2583
66610W        W 9626   4.545  19.295  15.525 -0.0021  0.2329  0.2825
66611W        W 9627   2.944  17.285  27.531 -0.2843  0.4251  0.2780
66612W        W 9628  20.275   4.347  16.102  0.1202 -0.1175 -0.0054
66613W        W 9629  19.568   0.413  17.184 -0.0521  0.0504 -0.2180
66614W        W 9630   1.504  18.487  18.996  0.2188 -0.0275  0.0028
66615W        W 9631   0.995  32.298  22.385 -0.3775 -0.1198  0.0565
66616W        W 9632   7.987  31.346  14.504 -0.1236 -0.0918 -0.0075
66617W        W 9633   9.824  31.646   6.182 -0.0363  0.1636  0.0872
66618W        W 9634  26.435  34.731  21.611 -0.1626  0.0037 -0.0815
66619W        W 9635  14.937   6.191  20.646  0.4543  0.0784  0.0604
66620W        W 9636  25.736  18.040  27.096 -0.0091 -0.0459  0.1686
66621W        W 9637  12.876   9.287  13.730 -0.0807 -0.0172  0.4933
66622W        W 9638   5.491  20.488  21.362  0.0061 -0.1638 -0.1271
66623W        W 9639  14.736   3.354  19.369 -0.0904 -0.2327  0.1487
66624W        W 9640   8.434  14.880  17.443  0.0743 -0.1701 -0.1314
66625W        W 9641   1.235   3.278  26.308  0.0853 -0.2137  0.0118
66626W        W 9642  15.968  24.737  23.165 -0.2510 -0.0432  0.1675
66627W        W 9643  10.579  25.911  25.646 -0.2107  0.1286 -0.0689
66628W        W 9644  18.457  11.436  22.401  0.0960 -0.0637  0.3062
66629W        W 9645   8.973  31.079  15.429  0.0171 -0.2635  0.1077
66630W        W 9646  23.254  33.126   5.505 -0.2095  0.0133  0.0160
66631W        W 9647  27.510   3.939  19.686 -0.1258  0.0822 -0.3820
66632W        W 9648  24.056  27.812  26.326  0.0670 -0.2270  0.1438
66633W        W 9649  15.396  28.295  16.338 -0.4142 -0.1771 -0.2304
66634W        W 9650  11.075  13.768  17.436  0.1458  0.3222  0.1780
66635W        W 9651   6.036  20.906  25.327  0.1589  0.1025  0.0883
66636W        W 9652  28.552  26.299  17.506  0.0597  0.2990 -0.0128
66637W        W 9653   2.860  32.824  14.519  0.3054  0.1513 -0.2560
66638W        W 9654  15.590  11.054  14.961 -0.0968 -0.1372 -0.0644
66639W        W 9655  27.681  16.345  13.543  0.0473  0.2589 -0.2318
66640W        W 9656   7.863  21.422  13.148 -0.0889  0.0295 -0.1177
66641W        W 9657  24.674   4.658  16.728 -0.3115 -0.0350 -0.2949
66642W        W 9658  12.842   7.772  14.418 -0.1284 -0.0603 -0.4688
66643W        W 9659  18.272  31.551  20.277 -0.0848 -0.0699  0.3461
66644W        W 9660   2.243  21.998  16.951 -0.0553 -0.3861  0.0734
66645W        W 9661   0.671  29.589  14.781 -0.3855  0.4319 -0.1662
66646W        W 9662   9.808   0.393  14.431  0.0189  0.1901  0.3218
66647W        W 9663   8.432  14.885  25.097  0.0030  0.1612 -0.4154
66648W        W 9664  13.816  30.963  15.383  0.1304  0.3037 -0.3934
66649W        W 9665  17.124  24.744  21.184  0.0628 -0.1631 -0.2139
66650W        W 9666  10.148   4.574  16.081  0.0275 -0.0146  0.0161
66651W        W 9667   3.323   9.915  18.351  0.0785 -0.1462 -0.1359
66652W        W 9668  11.865   4.167  15.369  0.1020 -0.3375 -0.2956
66653W        W 9669  18.952   3.468  20.252 -0.0903  0.0937 -0.0761
66654W        W 9670   9.226  12.485  24.647 -0.0610  0.1416 -0.0690
66655W        W 9671  16.417  29.732  19.950 -0.0511 -0.2358 -0.1776
66656W        W 9672  14.816   1.021  15.424 -0.5575  0.1001  0.0088
66657W        W 9673  25.485  29.886  23.656  0.0829 -0.0915 -0.3720
66658W        W 9674  32.831   4.845  24.747  0.1556 -0.1116  0.2002
66659W        W 9675  31.735  31.557  26.798  0.2446  0.1528 -0.4590
66660W        W 9676   4.461  10.001  20.259  0.0605  0.0895  0.0307
66661W        W 9677  14.756  20.313  13.331  0.4374  0.1984  0.0498
66662W        W 9678  12.039   3.999   4.505 -0.2348  0.1002  0.2535
66663W        W 9679  22.587   2.435   8.897 -0.1325 -0.3645  0.0484
66664W        W 9680  26.455  31.306  16.361 -0.0154  0.0394 -0.0030
66665W        W 9681  24.790   2.872  16.975  0.0352  0.2003 -0.3157
66666W        W 9682   2.949  33.177  28.701 -0.0879  0.0707 -0.0276
66667W        W 9683  13.373   7.429   0.944 -0.1600 -0.1493 -0.0674
66668W        W 9684  15.086   1.312  16.169 -0.2933  0.1445  0.0164
66669W        W 9685  22.389   5.863  19.901  0.2138  0.1679 -0.0338
66670W        W 9686   8.448  30.269  26.804  0.2248 -0.3358 -0.1553
66671W        W 9687   8.352   1.182  18.001 -0.1378 -0.1069 -0.4676
66672W        W 9688  10.226   6.403  16.942 -0.1405 -0.2346 -0.3831
66673W        W 9689  15.678  32.303  16.531  0.0019 -0.1395  0.0391
66674W        W 9690  15.110  19.427  13.273  0.1477 -0.0776  0.1460
66675W        W 9691  18.435  30.537  28.265 -0.2858  0.1424  0.1176
66676W        W 9692  20.225  31.464  15.823 -0.0507  0.0313 -0.1901
66677W        W 9693   2.451  33.616   2.849 -0.2615  0.0487 -0.0304
66678W        W 9694   8.820  26.608  19.950 -0.1802  0.2825 -0.3549
66679W        W 9695   4.602  25.049  17.390 -0.2027  0.0144  0.0591
66680W        W 9696   9.456  15.067  16.947 -0.0690  0.1185 -0.0189
66681W        W 9697  23.840   6.953  16.926  0.0198 -0.0067  0.1350
66682W        W 9698   5.500  24.085  16.286  0.1037  0.1655  0.1127
66683W        W 9699  25.500   8.493   2.197 -0.2192 -0.7099 -0.0580
66684W        W 9700  22.211  21.637  17.887 -0.0378  0.3949 -0.0161
66685W        W 9701   6.469  29.546  27.752  0.3662  0.0622  0.0247
66686W        W 9702  10.785  19.520  28.384 -0.3011  0.1519 -0.3379
66687W        W 9703   2.091   2.165  13.538 -0.1603 -0.0766  0.0781
66688W        W 9704   6.869  15.090  15.090 -0.1799 -0.1823  0.1512
66689W        W 9705  13.896  23.497   5.655 -0.0768  0.0884 -0.0947
66690W        W 9706  10.645  17.698  19.042 -0.2043  0.0020  0.0197
66691W        W 9707   5.604   4.194  20.138  0.0849 -0.2085  0.3731
66692W        W 9708  32.216  33.600  22.352 -0.3457  0.0912 -0.1397
66693W        W 9709  12.558   4.326  23.205 -0.0070 -0.1450  0.2842
66694W        W 9710  33.160  22.243  28.682  0.2282  0.1181  0.0991
66695W        W 9711  13.730  29.439  21.475  0.0246  0.1000 -0.1256
66696W        W 9712  33.740  33.485  19.057  0.3257 -0.0770  0.3122
66697W        W 9713  32.653  33.051  15.180  0.1113  0.2083 -0.0748
66698W        W 9714  30.066  32.787  16.450 -0.5035  0.0198  0.0293
66699W        W 9715  26.029  31.966  18.185 -0.0110  0.0485  0.0221
66700W        W 9716  18.724   5.151  25.985  0.0224  0.1985  0.0677
66701W        W 9717  26.285   5.592  21.114 -0.3897  0.0103  0.2248
66702W        W 9718  17.234   1.263  17.228 -0.5655  0.0042  0.1455
66703W        W 9719  20.068  27.871  22.008 -0.0248  0.0809  0.2005
66704W        W 9720   1.599   8.248  14.904  0.0118  0.0524 -0.2177
66705W        W 9721   1.972   4.057  18.784  0.0872  0.2328  0.1189
66706W        W 9722   3.928   2.580  25.542  0.0405  0.0333 -0.0246
66707W        W 9723   6.394  26.610  17.646  0.2447 -0.2198  0.0062
66708W        W 9724   7.979  11.316  14.788  0.0039  0.0271  0.0813
66709W        W 9725  22.118  15.229  17.985  0.0918  0.2561 -0.2004
66710W        W 9726   8.345   0.156  19.131 -0.0831  0.0772  0.0313
66711W        W 9727  10.778   0.595  17.753  0.0926 -0.1759 -0.0044
66712W        W 9728  12.591  24.433   3.906 -0.0196 -0.0875  0.4649
66713W        W 9729  23.527  17.641  19.405 -0.0156 -0.0038 -0.1226
66714W        W 9730  20.030  27.901  26.393 -0.1271 -0.0300  0.4216
66715W        W 9731   7.748  34.583   4.469 -0.2547  0.1184  0.0833
66716W        W 9732  15.564   0.453  26.413  0.0653 -0.0683  0.0685
66717W        W 9733  22.194   6.957  21.325  0.0027  0.1663 -0.2635
66718W        W 9734   8.440   3.479  23.108  0.1764 -0.0987 -0.0569
66719W        W 9735  19.752  29.567  19.722 -0.0780  0.0610  0.1559
66720W        W 9736  11.197  25.181   1.553 -0.0753 -0.1179 -0.1868
66721W        W 9737  11.912   5.691   8.835 -0.3499 -0.1212  0.2296
66722W        W 9738  15.083  33.916  25.863 -0.2449  0.2230 -0.0633
66723W        W 9739   0.525  34.270  14.639 -0.3578 -0.1473  0.2140
66724W        W 9740  10.600  32.509  27.792 -0.1464  0.1393 -0.0453
66725W        W 9741   9.680  33.984  15.223 -0.1694  0.3620 -0.0278
66726W        W 9742  28.822   7.551  10.796  0.1574 -0.2236  0.1356
66727W        W 9743   0.289  19.742  22.764 -0.3468  0.2297  0.0296
66728W        W 9744   3.924   1.793  21.122  0.2221 -0.0798 -0.2133
66729W        W 9745  14.719  31.242  18.456  0.4293  0.0277 -0.1527
66730W        W 9746   8.729  15.846  20.109 -0.3651 -0.0087  0.1914
66731W        W 9747   7.744  11.693  19.902 -0.1109 -0.0712 -0.0644
66732W        W 9748  15.075  32.326  20.149 -0.0073  0.0464  0.0673
66733W        W 9749   5.818   7.041  18.497  0.0780  0.3139 -0.0955
66734W        W 9750  14.486   3.825  19.369 -0.2693 -0.2747 -0.0410
66735W        W 9751   8.078  23.490  27.701 -0.0828  0.3374  0.0528
66736W        W 9752  18.797  31.360  21.228 -0.1442  0.1821 -0.1593
66737W        W 9753   9.487   1.498  18.537  0.1967 -0.1781  0.1714
66738W        W 9754  15.830  25.242  25.294 -0.1639 -0.0513  0.2173
66739W        W 9755   1.915   6.048  20.041 -0.0627 -0.2525 -0.1056
66740W        W 9756  11.182  30.716  23.034  0.1101 -0.1372 -0.0188
66741W        W 9757   6.188  30.651  15.817  0.2215  0.3635  0.0621
66742W        W 9758   6.253  13.093   2.104  0.0967 -0.0342  0.3360
66743W        W 9759  14.311  30.234   0.810 -0.0453 -0.2259  0.2002
66744W        W 9760  12.658  10.429  27.654  0.3141  0.0764 -0.2195
66745W        W 9761   4.049   3.764  14.675  0.1397  0.1500  0.3766
66746W        W 9762  31.033   9.092  23.895 -0.0321  0.0409  0.0583
66747W        W 9763  16.048  33.969  19.954 -0.0088 -0.0391 -0.1176
66748W        W 9764  21.979  24.497  22.357  0.2177 -0.0562 -0.1592
66749W        W 9765  12.152  21.982  18.419 -0.4889 -0.2459 -0.0546
66750W        W 9766  21.244   2.705  22.941  0.2426  0.2238  0.2051
66751W        W 9767   7.290  27.842   7.504  0.2814 -0.1428  0.2537
66752W        W 9768  27.406  17.913  28.773 -0.1420 -0.3537  0.0112
66753W        W 9769   7.357   6.628  28.237  0.2047  0.2599 -0.0651
66754W        W 9770   5.435   8.935  24.550 -0.1275  0.0187 -0.0528
66755W        W 9771  15.679  34.597  25.068 -0.0302  0.0534  0.4924
66756W        W 9772  18.812  21.447  16.396  0.1935  0.1545 -0.1132
66757W        W 9773  21.702   1.523   0.005  0.1344 -0.1817  0.1046
66758W        W 9774  12.369  29.103   7.228 -0.0218 -0.2029 -0.1629
66759W        W 9775   6.321  17.645   6.307 -0.3832 -0.1400 -0.2410
66760W        W 9776  16.799  30.859   5.240  0.3307  0.2719 -0.0345
66761W        W 9777   2.435  24.199   0.795 -0.2421 -0.3376 -0.3438
66762W        W 9778   6.782   0.375   1.242  0.3227 -0.1641 -0.1478
66763W        W 9779  10.564  32.673  24.600  0.1011  0.1088 -0.1171
66764W        W 9780  19.271  26.205  27.805 -0.0919  0.0552 -0.1460
66765W        W 9781   8.935   9.176   3.507  0.2415 -0.1010 -0.0797
66766W        W 9782  21.185   6.285  26.446  0.1494  0.1805  0.0574
66767W        W 9783  17.484  31.401   9.833  0.0485 -0.1814 -0.1286
66768W        W 9784   7.318   3.924  21.411  0.0977 -0.1055 -0.2196
66769W        W 9785  29.979   0.611  25.338 -0.3164  0.0316 -0.2497
66770W        W 9786  14.150  20.790  12.672 -0.4754  0.2576  0.1660
66771W        W 9787   4.373  31.327  18.350  0.0115  0.1760 -0.1263
66772W        W 9788  11.940  23.584  25.121  0.3087 -0.0518  0.1715
66773W        W 9789  21.016   5.312  18.444 -0.0096 -0.0624  0.2621
66774W        W 9790   8.283   7.751  18.326  0.0501  0.0343  0.0482
66775W        W 9791  22.052  32.046   0.209 -0.0035  0.3841  0.2260
66776W        W 9792   6.392  23.558   2.623 -0.1813 -0.2133  0.1312
66777W        W 9793   1.993  29.021  24.504  0.1614  0.1727 -0.1103
66778W        W 9794  17.437   0.254  15.481  0.2373  0.1952  0.0423
66779W        W 9795  21.567   5.604  22.908 -0.3466  0.0032  0.1616
66780W        W 9796  19.190  28.246  20.418 -0.0615  0.1185 -0.2423
66781W        W 9797  10.111   9.131  21.115 -0.0787  0.0470  0.1942
66782W        W 9798  15.020   9.831  25.761 -0.2407  0.0456  0.1672
66783W        W 9799   9.156  21.258  19.858 -0.2409 -0.0043  0.2100
66784W        W 9800  23.906  18.002  26.886 -0.0540 -0.1677 -0.0849
66785W        W 9801   0.099  32.876  14.709  0.4133 -0.0728 -0.0929
66786W        W 9802  20.414  34.271  19.099  0.4306  0.3005 -0.0506
66787W        W 9803   4.113  32.789  14.873 -0.1303  0.2599 -0.3282
66788W        W 9804   8.569   6.707  14.465  0.0548  0.0162  0.2131
66789W        W 9805  15.036  34.732  28.534  0.1301 -0.2883 -0.3573
66790W        W 9806  21.785  31.876  22.752  0.3204  0.0855  0.3276
66791W        W 9807  33.103   0.806  24.334  0.2999 -0.0731  0.0117
66792W        W 9808  18.403  32.525  23.448 -0.1721  0.0156  0.1757
66793W        W 9809   5.493  32.342  24.925 -0.3996 -0.0966 -0.2471
66794W        W 9810   8.158   0.956  18.388  0.4477  0.0381  0.0187
66795W        W 9811   6.060  13.365  14.275  0.2371  0.1420 -0.0402
66796W        W 9812  18.814   5.365  15.276  0.1372  0.2024 -0.2197
66797W        W 9813  33.512  26.318  15.916 -0.0255  0.4798 -0.0274
66798W        W 9814  12.093   5.926  19.017 -0.1171 -0.2406  0.3603
66799W        W 9815   5.543   5.730  20.491 -0.0146  0.1146  0.1895
66800W        W 9816   6.901  29.873  26.493 -0.2799  0.2372  0.0178
66801W        W 9817  16.655   2.291   4.285 -0.0415  0.2560 -0.0878
66802W        W 9818   3.160  28.065  21.651  0.1079  0.3690 -0.0009
66803W        W 9819  31.400  19.047  21.883 -0.1858 -0.0987 -0.2723
66804W        W 9820  12.652  16.875  13.764  0.3089  0.0208  0.1593
66805W        W 9821  13.888  31.963  16.858 -0.0204 -0.0913  0.1480
66806W        W 9822  18.667   7.407  21.309  0.0368  0.0145  0.0235
66807W        W 9823   0.644   1.821  18.016  0.1716  0.0916  0.0810
66808W        W 9824   4.916  11.240   3.824  0.1122 -0.3937 -0.1747
66809W        W 9825  23.637  32.045  26.179 -0.1667  0.0268  0.1100
66810W        W 9826  22.089   0.656  16.178 -0.0584 -0.0502  0.3990
66811W        W 9827  10.406   1.998  20.324 -0.4212 -0.0408  0.1471
66812W        W 9828   8.312  34.577  23.048 -0.1536 -0.0616  0.2534
66813W        W 9829  32.642   5.078  28.209 -0.0691  0.1212 -0.0837
66814W        W 9830   6.315  19.777  14.867 -0.0039  0.3273  0.0409
66815W        W 9831  14.444  18.105  24.498  0.0733  0.2638  0.3203
66816W        W 9832  22.233  21.919  24.888  0.2132  0.2238 -0.2625
66817W        W 9833   8.051  31.285  21.930 -0.2420 -0.1349  0.0772
66818W        W 9834  10.274   3.374  14.561  0.0437  0.1842 -0.1884
66819W        W 9835   7.917  20.371  18.656 -0.1527 -0.0774  0.1095
66820W        W 9836   9.904  24.614  27.757  0.1609  0.0736  0.2867
66821W        W 9837   9.357   3.738  26.582 -0.1571  0.3467  0.0018
66822W        W 9838  33.869   2.800  16.694  0.2225 -0.1557  0.2528
66823W        W 9839   7.352   5.166  20.772 -0.0356 -0.0005  0.2534
66824W        W 9840   6.818   4.182  22.813  0.0695  0.0431  0.0179
66825W        W 9841  21.471  31.333  28.900  0.1864  0.1639  0.2210
66826W        W 9842  12.154  31.354  19.239  0.0452  0.0634 -0.0698
66827W        W 9843  12.765  24.433  14.828  0.2233  0.1259  0.0715
66828W        W 9844  15.832  27.953  17.288 -0.2474  0.0418 -0.1514
66829W        W 9845  10.912  28.780  20.956 -0.0887 -0.1265 -0.4940
66830W        W 9846   2.823   0.636  22.369  0.0019  0.0568 -0.1306
66831W        W 9847  28.073  14.867  28.504  0.1114 -0.2130  0.1704
66832W        W 9848  23.272  30.040  20.747  0.1483 -0.2475 -0.2535
66833W        W 9849   2.400  13.501  22.023 -0.1018 -0.0647 -0.1278
66834W        W 9850   7.459   4.157  22.900  0.3236 -0.0876  0.1305
66835W        W 9851   8.101  25.908  16.513  0.1919  0.1738  0.3093
66836W        W 9852  26.469   2.796  26.467  0.0789  0.0641 -0.2341
66837W        W 9853  14.032  21.930  25.590  0.5257 -0.3800  0.0352
66838W        W 9854   9.929   6.129  22.893 -0.2348 -0.2319  0.0794
66839W        W 9855  18.955   6.199   2.606  0.0957 -0.0982  0.6104
66840W        W 9856  34.402  31.727  27.910 -0.0599 -0.0221 -0.2110
66841W        W 9857  18.672  12.904  15.453 -0.0571  0.2143  0.0151
66842W        W 9858  14.731  33.894  20.197  0.0493  0.2956  0.0548
66843W        W 9859  12.797  33.146   8.608  0.3137 -0.1474 -0.1159
66844W        W 9860   9.657  28.835  18.513  0.1845 -0.0761 -0.1548
66845W        W 9861   3.955  30.663  18.863 -0.1532 -0.1001  0.1340
66846W        W 9862  10.382  17.119  16.491  0.1262 -0.0069 -0.1282
66847W        W 9863   8.641   7.052  17.391 -0.0090  0.1138 -0.1817
66848W        W 9864   4.059  23.113  28.008 -0.0965 -0.1615  0.0207
66849W        W 9865  14.747   0.371  25.547  0.0203 -0.0240  0.0049
66850W        W 9866  16.472  19.139  13.253  0.3543  0.2204  0.0626
66851W        W 9867   6.325   4.864  18.040 -0.2321 -0.4397  0.1170
66852W        W 9868  28.848  12.245  18.135 -0.1288 -0.2911 -0.0343
66853W        W 9869  24.116  32.381  17.020  0.0173  0.0199  0.0814
66854W        W 9870  11.703  27.281  23.817 -0.0276 -0.1854 -0.1501
66855W        W 9871  15.419   6.095  18.441 -0.1593 -0.1844  0.0269
66856W        W 9872  14.117  22.576  18.661  0.0230  0.2109  0.1043
66857W        W 9873  20.544  32.648  22.295  0.0995  0.0718 -0.0362
66858W        W 9874  13.834  20.768  17.973 -0.0590 -0.3265 -0.1141
66859W        W 9875  26.161   8.779  23.285  0.0741 -0.2051 -0.1221
66860W        W 9876   0.585   6.127  28.491 -0.1524 -0.0716 -0.3410
66861W        W 9877  22.175  26.268  15.739 -0.1303  0.0341  0.1092
66862W        W 9878  34.556  25.947  24.236 -0.0736  0.0787  0.2299
66863W        W 9879   6.408  30.306  23.950  0.1609  0.0809  0.4765
66864W        W 9880  29.803   9.751  18.271 -0.0696 -0.2958  0.3318
66865W        W 9881  32.155   2.760  25.913  0.2364 -0.3998 -0.0755
66866W        W 9882   6.119   5.381  22.316 -0.1332 -0.2970 -0.2850
66867W        W 9883   7.749   3.883  27.094  0.0499 -0.2011 -0.1524
66868W        W 9884   0.235  22.371  24.884 -0.2616 -0.2479 -0.1115
66869W        W 9885  18.758   8.228  15.187  0.1236 -0.1966 -0.0095
66870W        W 9886  23.469  25.839  21.804  0.1488  0.1645  0.0755
66871W        W 9887  20.581   2.678  20.575 -0.0417 -0.0292  0.2151
66872W        W 9888  15.907  34.316   2.839 -0.2191  0.2575 -0.0228
66873W        W 9889  18.059  34.185  20.746 -0.0827 -0.0909 -0.0005
66874W        W 9890  34.217  28.894  18.126  0.0036 -0.1828 -0.0135
66875W        W 9891  11.725  27.975  15.009  0.1266  0.1312  0.0351
66876W        W 9892  12.974   3.328  26.215  0.1602  0.0885  0.2664
66877W        W 9893  23.474   3.300  21.702  0.1295 -0.1321 -0.1272
66878W        W 9894   7.660  30.976  24.417  0.0546  0.0579  0.3167
66879W        W 9895   2.886  29.989   0.727 -0.1695 -0.0571  0.3688
66880W        W 9896  25.324  30.624  26.172  0.1280  0.0371  0.1555
66881W        W 9897  15.655  28.691  15.394  0.2180 -0.3690 -0.4567
66882W        W 9898   7.381  10.688  17.871 -0.1499  0.0632  0.1070
66883W        W 9899  11.406   3.889  23.237 -0.4406 -0.0217 -0.0862
66884W        W 9900  16.103   3.357  28.929 -0.0030  0.0998  0.2488
66885W        W 9901   0.751  19.532  16.964  0.4503 -0.0282 -0.2099
66886W        W 9902   9.536  26.965  20.677 -0.1168 -0.0735  0.0811
66887W        W 9903  20.835  31.468  26.519  0.3261  0.1093  0.1459
66888W        W 9904  31.829  15.863  23.570  0.0921 -0.0960  0.4256
66889W        W 9905  25.886  28.329  17.741 -0.2089  0.0223 -0.0871
66890W        W 9906   8.820  17.280  23.939  0.2895 -0.1358 -0.4149
66891W        W 9907   6.558  17.807  26.218  0.0693 -0.0443  0.2216
66892W        W 9908  10.143  11.003  14.665  0.1799  0.2132  0.1764
66893W        W 9909   9.041  28.260  14.833  0.1898 -0.1355  0.0651
66894W        W 9910  15.050   9.423  26.482  0.3004 -0.0492  0.3895
66895W        W 9911  24.943  12.569  24.098  0.1125 -0.0214  0.0468
66896W        W 9912   2.433   0.305  22.759  0.1290  0.1820  0.0096
66897W        W 9913   7.295  21.845  17.904  0.0236 -0.3270 -0.0569
66898W        W 9914   6.963  17.299  22.859 -0.0305  0.1091  0.1066
66899W        W 9915  25.293   6.275  18.660  0.0795 -0.4242 -0.0055
66900W        W 9916  13.709  30.329  29.281  0.0256  0.0442  0.1388
66901W        W 9917  25.563  10.166  22.748 -0.0125 -0.0122  0.2702
66902W        W 9918  34.315  29.283  27.972 -0.0311 -0.0222  0.1241
66903W        W 9919  22.641   6.254  20.142 -0.3110 -0.1290 -0.1004
66904W        W 9920  10.638  14.642  13.014  0.4295 -0.0607  0.0102
66905W        W 9921  33.806  13.106  17.712  0.0850 -0.0308 -0.0176
66906W        W 9922  16.267   9.384  24.764 -0.2059 -0.1351  0.1687
66907W        W 9923   9.471   3.955  17.343  0.1627  0.0323  0.2857
66908W        W 9924  14.329  21.008  20.588  0.2399  0.6139  0.4304
66909W        W 9925  22.933  24.218  15.636 -0.2795  0.2058 -0.0782
66910W        W 9926   3.418   0.073  20.493  0.1514 -0.4349  0.1593
66911W        W 9927  19.274  32.328  16.498  0.0536 -0.2153  0.1602
66912W        W 9928   5.483  21.253  15.397  0.0650  0.1150  0.0293
66913W        W 9929  10.039  23.778  19.088 -0.2437  0.2305 -0.2032
66914W        W 9930  10.035  31.499  20.934 -0.1590  0.1005  0.3401
66915W        W 9931  19.450  11.581  16.579  0.0117 -0.0446 -0.3696
66916W        W 9932   1.054   9.230  17.710  0.1685 -0.4614  0.2082
66917W        W 9933  28.454   6.504  17.884 -0.1880  0.0716 -0.0244
66918W        W 9934   9.995  22.950  18.698 -0.1560 -0.1379  0.0930
66919W        W 9935   5.676  17.041  22.226  0.1068 -0.1320 -0.3880
66920W        W 9936  16.750   4.616   7.707  0.1583 -0.3187  0.2895
66921W        W 9937  19.884   1.733  21.688  0.0760 -0.3855 -0.1710
66922W        W 9938  22.915  28.365  17.536  0.1057  0.4488 -0.1817
66923W        W 9939  31.066  28.107  21.625  0.3558  0.0482 -0.1644
66924W        W 9940   9.578  27.146  27.206  0.0542 -0.2485  0.0437
66925W        W 9941  25.718  28.248   0.013  0.1310  0.1546 -0.2388
66926W        W 9942  14.608   3.663  16.329 -0.1063  0.1151  0.2875
66927W        W 9943  11.967  10.237  15.914 -0.2904 -0.0673 -0.2460
66928W        W 9944  28.652  26.034   7.155 -0.1596  0.1510  0.0739
66929W        W 9945   1.040  20.879  28.280  0.1044 -0.0361  0.0544
66930W        W 9946  11.440  34.400  20.089 -0.0332 -0.2439 -0.0113
66931W        W 9947  22.834  22.766  27.151 -0.1157 -0.0652  0.2268
66932W        W 9948  20.083  28.132  18.741 -0.1882 -0.0371 -0.1231
66933W        W 9949  11.832  33.667  20.609 -0.2402  0.1141 -0.0479
66934W        W 9950  19.506  26.143  17.321 -0.1146  0.1420  0.1614
66935W        W 9951  30.957  12.303   2.135 -0.2367 -0.2006  0.0935
66936W        W 9952   3.481   5.481   5.412  0.0341 -0.0339  0.1435
66937W        W 9953   1.949  19.459   5.783 -0.1213  0.0225  0.2734
66938W        W 9954  23.361  24.852  18.249  0.2577  0.0890 -0.0708
66939W        W 9955  13.929   1.010  25.978 -0.0336  0.1506  0.2050
66940W        W 9956  31.645   7.212  20.758  0.1143 -0.3222  0.0065
66941W        W 9957   8.220  22.637  18.315  0.2666 -0.0505  0.2441
66942W        W 9958   0.789   5.372  17.495  0.2995 -0.1261 -0.2249
66943W        W 9959  11.975  17.679  12.655 -0.0179 -0.0745 -0.0327
66944W        W 9960   5.332   0.519  21.730 -0.0387  0.0977 -0.1463
66945W        W 9961   9.685  22.810  17.770  0.0283  0.0781  0.1064
66946W        W 9962  18.752  26.190  25.316 -0.1205 -0.0830  0.3608
66947W        W 9963   0.461   1.057  16.205 -0.1547  0.1576  0.4113
66948W        W 9964   6.632  21.911  15.319 -0.3248  0.1463 -0.1878
66949W        W 9965   5.651   9.068  15.289  0.0324 -0.0846 -0.0691
66950W        W 9966  11.306  23.637  23.268 -0.0190 -0.0022  0.0776
66951W        W 9967  12.039   9.761  17.263  0.3358 -0.3206  0.0993
66952W        W 9968   6.874   5.262  20.556 -0.0674  0.0834 -0.2489
66953W        W 9969  14.694   6.061  17.579  0.1820 -0.5632 -0.1377
66954W        W 9970  14.693  12.137  23.626 -0.0844  0.0040 -0.0115
66955W        W 9971   6.468   6.674  21.637 -0.1165 -0.1014  0.0059
66956W        W 9972   1.992   8.076  19.416 -0.0235  0.1952 -0.1242
66957W        W 9973  11.872  10.703  10.036 -0.1399  0.3543 -0.1558
66958W        W 9974  22.385  27.391  23.219  0.1985  0.3201  0.2655
66959W        W 9975  13.398  21.216  14.828 -0.3414 -0.1414  0.1040
66960W        W 9976   8.544   1.252   6.685  0.1105  0.0490  0.0425
66961W        W 9977  22.235   2.086  28.294 -0.1168 -0.2305  0.0957
66962W        W 9978  15.026  13.603  26.280 -0.5219 -0.2221 -0.0038
66963W        W 9979  11.134  22.565  13.530 -0.1249  0.0243  0.1707
66964W        W 9980  15.787  32.417   7.190  0.1127 -0.2412  0.3542
66965W        W 9981  18.095   4.097   9.471  0.2648 -0.1696 -0.0037
66966W        W 9982   1.421   0.738   4.367 -0.1213  0.1251 -0.0355
66967W        W 9983  21.051  13.229   1.491 -0.0419  0.1814 -0.1211
66968W        W 9984  27.210   0.523  25.985 -0.0768 -0.3385 -0.0353
66969W        W 9985   7.821  16.335  19.543  0.1122  0.1386 -0.3229
66970W        W 9986  12.847  20.213   0.560  0.0640  0.1630 -0.2982
66971W        W 9987  14.455  20.132   3.109  0.2511  0.0251  0.0139
66972W        W 9988  18.083  33.747  20.244  0.1236  0.0098  0.0537
66973W        W 9989  16.739  29.003  22.068  0.1705 -0.2549 -0.0343
66974W        W 9990  15.452  29.961  27.953  0.1459 -0.1973 -0.0261
66975W        W 9991   6.796   3.193  18.453  0.0506  0.2617 -0.0731
66976W        W 9992  25.056  25.120  22.349  0.1259 -0.2215  0.0846
66977W        W 9993  33.897  23.036  27.573 -0.0483 -0.0234  0.0217
66978W        W 9994   0.122   6.331   3.788  0.1337 -0.0130  0.0120
66979W        W 9995   9.476  17.532  23.386 -0.1049  0.2744  0.0061
66980W        W 9996  24.331   0.389  15.976  0.0990 -0.2294 -0.3501
66981W        W 9997  21.770  28.762  19.667 -0.0107  0.1053  0.0272
66982W        W 9998  34.179  27.519  17.066  0.2051 -0.0136  0.3224
66983W        W 9999  16.632   3.025  19.878 -0.0457 -0.0997 -0.0573
66984W        W10000  12.112  23.148  24.845  0.0495  0.1465 -0.2592
66985W        W10001   3.259  33.702   8.675 -0.1108 -0.0377 -0.0439
66986W        W10002  16.154   3.849  15.823  0.1289  0.1980 -0.2388
66987W        W10003  16.874  23.859  14.793  0.1407 -0.1452 -0.0830
66988W        W10004  34.221  18.699  24.218  0.0319  0.2515  0.1192
66989W        W10005  17.560  24.579   1.689 -0.0118 -0.0200  0.2758
66990W        W10006   2.355   3.995   7.908 -0.0570  0.0770 -0.1494
66991W        W10007  13.489  33.322  23.761 -0.0014  0.5444 -0.4661
66992W        W10008   8.995   1.556  28.317  0.4103  0.0798 -0.0831
66993W        W10009   4.009  28.913  19.251  0.1024 -0.3070 -0.0101
66994W        W10010   7.333  29.514  17.318 -0.1239 -0.0473  0.0022
66995W        W10011  10.709   3.699  20.544  0.2193 -0.1083 -0.0789
66996W        W10012   6.345  11.738  24.212 -0.0201 -0.4855 -0.1702
66997W        W10013   4.111  26.885  24.332  0.1140  0.0206  0.0621
66998W        W10014  11.962  34.609  27.340 -0.0204 -0.1564 -0.2774
66999W        W10015  18.236  25.348  22.910  0.1393 -0.1567 -0.2390
67000W        W10016   4.148  33.736   1.085 -0.3401 -0.2440 -0.1164
67001W        W10017  15.473  27.889   2.117 -0.0156 -0.1482 -0.4242
67002W        W10018  15.331  24.221  18.180 -0.3800 -0.3083 -0.3370
67003W        W10019  16.006  26.046   1.184  0.0739 -0.0903  0.0453
67004W        W10020   5.934   6.063  21.701  0.1444 -0.0228 -0.0297
67005W        W10021  18.171  33.733  14.774  0.2783  0.0208 -0.0222
67006W        W10022  12.788  30.556  21.653  0.0106 -0.0532 -0.2974
67007W        W10023  32.157   8.757   4.522  0.0683 -0.1854  0.0067
67008W        W10024   9.597  33.732  28.770  0.0251  0.1871 -0.0727
67009W        W10025  28.517   7.735  18.108  0.3159  0.0522 -0.4486
67010W        W10026   8.259  32.764   3.905  0.1381 -0.3424 -0.2388
67011W        W10027  11.586  25.257  22.340  0.0673  0.2227 -0.2634
67012W        W10028   3.986   0.464   2.109  0.1228 -0.1697 -0.1514
67013W        W10029   9.352  26.023   8.311  0.0474  0.0105 -0.0226
67014W        W10030  17.576  26.866  20.723 -0.2677  0.2389 -0.0459
67015W        W10031  18.256  28.228  20.552 -0.1423  0.2361 -0.0244
67016W        W10032   1.329  25.129  28.263  0.0433 -0.2466 -0.0498
67017W        W10033  16.517  27.636  23.439  0.1534 -0.1466  0.4826
67018W        W10034  31.816  13.109  28.091  0.1331  0.0681 -0.1011
67019W        W10035  16.250  33.096   2.715  0.2612  0.0393 -0.0300
67020W        W10036   5.386  28.622   9.526  0.1272 -0.3031  0.0041
67021W        W10037   2.823   8.925  17.723 -0.0343 -0.2979 -0.0862
67022W        W10038   6.091  24.139  20.730  0.0768  0.0191 -0.1602
67023W        W10039   7.205  19.879   6.824 -0.1217 -0.2724 -0.3545
67024W        W10040   2.505   1.873  24.519  0.0202  0.1691 -0.0465
67025W        W10041  17.939  24.422  16.564 -0.0618  0.0839 -0.4610
67026W        W10042  17.285  11.933  13.374 -0.1090  0.2100 -0.1356
67027W        W10043   3.064  30.763  19.743  0.1956  0.4492 -0.1314
67028W        W10044   8.526  32.830   8.954  0.1206  0.1594 -0.3053
67029W        W10045  23.145  24.337  28.313 -0.0319 -0.3229  0.0272
67030W        W10046  25.060  34.017   1.810  0.0028  0.2215 -0.0589
67031W        W10047  17.695   6.134  25.857  0.4298 -0.0030  0.1918
67032W        W10048   9.686  33.250   5.400  0.0522 -0.0639 -0.2995
67033W        W10049   6.087  12.527  17.385  0.2591  0.4921 -0.1535
67034W        W10050  19.442   5.776  14.441  0.0256 -0.1833 -0.1982
67035W        W10051  17.006  26.953   0.543  0.1370  0.4712  0.7013
67036W        W10052  23.071  33.900   4.481 -0.0742 -0.2521  0.2343
67037W        W10053  21.882   8.349  23.400  0.0814 -0.2771 -0.1571
67038W        W10054   7.407  25.824   6.757  0.0726  0.3725  0.1257
67039W        W10055  11.034  15.786  22.778 -0.3612  0.0460 -0.0046
67040W        W10056  11.758  16.586  16.515  0.0364  0.0337  0.1629
67041W        W10057   9.858  20.103   1.836 -0.0951  0.3064 -0.1377
67042W        W10058  12.597  33.692   4.949 -0.0508 -0.1425  0.3280
67043W        W10059   0.926  11.314  19.228  0.0725  0.1016  0.1335
67044W        W10060  12.624  24.500  28.586  0.1725  0.1002  0.2254
67045W        W10061  30.613   0.604  19.582  0.3088 -0.0922  0.2573
67046W        W10062  10.980  25.639  19.447  0.1043 -0.0059 -0.2515
67047W        W10063  30.888  11.897  14.560 -0.2822  0.3502  0.0539
67048W        W10064  17.887  23.490  16.982  0.0379 -0.1492  0.2084
67049W        W10065   8.974  26.372  25.170 -0.0416 -0.0630 -0.0480
67050W        W10066  16.400   0.623   5.154 -0.0020 -0.0336 -0.0757
67051W        W10067  16.460  27.149  18.317 -0.0538 -0.0425  0.0393
67052W        W10068   9.224  21.612  18.484 -0.0223 -0.2812  0.0009
67053W        W10069   4.990  32.710  28.745  0.1145 -0.0977  0.1684
67054W        W10070  26.980  21.539  21.514  0.3545 -0.2423 -0.2498
67055W        W10071  31.919  28.291   9.646 -0.0225  0.2514 -0.0001
67056W        W10072  16.171   5.968  10.083 -0.4781  0.0790  0.2072
67057W        W10073   9.995  33.045  16.166 -0.0505 -0.0781 -0.1686
67058W        W10074  17.070  22.394  22.634 -0.2614  0.0594  0.0200
67059W        W10075  20.175   5.364  21.726 -0.0997 -0.1575  0.3351
67060W        W10076   5.110  18.116  29.016  0.3423  0.1931  0.0641
67061W        W10077   3.987  10.806  19.556 -0.0476  0.2115 -0.0673
67062W        W10078   4.270  24.111  27.320 -0.3722  0.1734  0.1097
67063W        W10079  20.939  31.154  26.956  0.1298  0.0773  0.0303
67064W        W10080  19.492  11.766  21.403  0.1082  0.5279 -0.1850
67065W        W10081   8.036   0.836   1.758  0.0921  0.3058 -0.0120
67066W        W10082  15.710   3.181  17.687 -0.0528  0.1181  0.2505
67067W        W10083  16.837   2.957  25.247  0.0777  0.0383 -0.1144
67068W        W10084  29.863   0.899  26.735 -0.1824 -0.0298 -0.0079
67069W        W10085   8.073  11.026  23.586 -0.0950 -0.1500  0.2772
67070W        W10086  32.837   3.503  28.066  0.0344  0.3010  0.1540
67071W        W10087  24.001  29.883  25.158 -0.0339  0.0431 -0.0917
67072W        W10088  33.133   0.718  18.559 -0.2155  0.1678 -0.0664
67073W        W10089   4.973  33.618  17.211  0.0953  0.1253  0.0025
67074W        W10090  11.692  12.188  14.719  0.0821  0.0676  0.0759
67075W        W10091  12.205  26.682   1.674 -0.0753  0.1288  0.0629
67076W        W10092   7.089  31.708  19.535 -0.0767  0.2244  0.2492
67077W        W10093  31.990  32.123   9.708  0.2647  0.1303 -0.4703
67078W        W10094  14.399  19.651  20.475 -0.2981 -0.2362 -0.2302
67079W        W10095  10.583  24.285  13.223  0.3372 -0.0518 -0.0629
67080W        W10096  27.269  28.833   4.809  0.1234  0.0155  0.1455
67081W        W10097   6.905   3.493  19.766 -0.0277 -0.0253  0.0503
67082W        W10098   9.345   2.423  21.130 -0.0628 -0.2907  0.2537
67083W        W10099  10.499  33.938  25.415  0.0629 -0.3433  0.3719
67084W        W10100  13.087  23.580  28.197  0.1543 -0.0126 -0.2144
67085W        W10101   9.303  28.071  20.133  0.0384 -0.1609 -0.2105
67086W        W10102  13.896  29.923  16.555 -0.4062  0.2100  0.1685
67087W        W10103   2.265   0.483  15.624  0.0421  0.2517  0.3734
67088W        W10104  19.935   9.721  23.512  0.0384  0.1377  0.0765
67089W        W10105  22.029   4.123  24.679  0.1381 -0.3324  0.3837
67090W        W10106  16.643  31.173  17.162 -0.1701 -0.1134  0.2371
67091W        W10107  30.113   8.133  27.761  0.1786  0.0746 -0.3447
67092W        W10108  27.572   3.296  20.617 -0.0452  0.3395  0.0149
67093W        W10109  29.303  24.106   5.238 -0.3829  0.2209  0.0400
67094W        W10110  17.265   6.530  13.771 -0.1865  0.1299 -0.1088
67095W        W10111   7.211  10.948   5.863  0.1391 -0.1120  0.2834
67096W        W10112   5.377  17.689  27.185  0.2710 -0.1414 -0.0103
67097W        W10113  26.464  29.000  16.396  0.2586 -0.4239  0.1952
67098W        W10114  26.918   3.679  17.945 -0.2731 -0.3514 -0.0723
67099W        W10115  12.275  29.299  20.761 -0.0765  0.0888  0.0113
67100W        W10116  10.822  21.411  12.699  0.1556 -0.2512 -0.0069
67101W        W10117  17.053  30.237  25.763 -0.0985 -0.2214 -0.3042
67102W        W10118  15.447  20.837  24.383  0.3836 -0.0202  0.2294
67103W        W10119  25.582   2.369  24.234 -0.2218  0.0707  0.0088
67104W        W10120  18.875  26.044   0.627  0.1782  0.1208 -0.0219
67105W        W10121   8.173  21.286   2.394 -0.1651 -0.3662 -0.0955
67106W        W10122   7.817  33.267  18.993  0.1169 -0.1630  0.1006
67107W        W10123  25.968  27.437  17.564  0.1245  0.0452  0.1932
67108W        W10124  10.961  20.301  23.958 -0.2249  0.1831 -0.0453
67109W        W10125  30.221  28.302  17.716 -0.0298  0.2522 -0.0454
67110W        W10126  13.600   5.723  24.855  0.1333 -0.1290 -0.1595
67111W        W10127  21.225   2.172  26.744 -0.0236 -0.2357  0.0536
67112W        W10128  31.099  27.492  20.881 -0.0895 -0.1965 -0.0760
67113W        W10129   3.940  23.495  29.065 -0.3394 -0.0372 -0.4117
67114W        W10130  11.590  23.274  17.214 -0.0608  0.1475 -0.1020
67115W        W10131   8.677   2.129  16.911  0.2190  0.2011  0.3252
67116W        W10132  15.975  21.920  15.919  0.0142 -0.2158 -0.1433
67117W        W10133  13.554  32.447  25.542 -0.0717  0.1302  0.0970
67118W        W10134   5.821  28.814  19.244  0.4031  0.1597  0.2071
67119W        W10135  18.479  22.863  14.764 -0.0621  0.1057 -0.0010
67120W        W10136  27.403   3.709  26.673 -0.2489  0.2212  0.2985
67121W        W10137  27.054  26.709   0.795 -0.0179  0.0320 -0.1262
67122W        W10138  24.176  29.452  19.771 -0.0448 -0.0519 -0.2251
67123W        W10139  28.383  17.482  28.964 -0.0903  0.0693  0.0767
67124W        W10140  14.978  32.224  28.083 -0.1466 -0.0661  0.0222
67125W        W10141  15.592  34.320  16.466  0.1089  0.1136 -0.1318
67126W        W10142  24.639  33.524  22.378  0.4934 -0.1464 -0.2466
67127W        W10143  22.646  10.914  26.458 -0.2300  0.1732 -0.1344
67128W        W10144  17.902  22.928  12.620  0.0928  0.3302 -0.2777
67129W        W10145   9.913  32.353   3.343 -0.0374  0.2000  0.0820
67130W        W10146  23.574  33.028   1.334  0.0411  0.3660  0.2517
67131W        W10147  24.105  28.214  24.601 -0.0435 -0.1256 -0.0428
67132W        W10148  30.409  10.761  21.253  0.1937 -0.1393 -0.1061
67133W        W10149  19.409   8.745  25.933  0.0144  0.2596  0.0350
67134W        W10150  13.614  33.499  28.597  0.4758 -0.2007 -0.0490
67135W        W10151  14.934  32.691  21.221 -0.0977 -0.0073  0.0629
67136W        W10152  14.565  27.905  27.270 -0.0589  0.2025  0.1293
67137W        W10153  10.126  25.788   8.897 -0.1261 -0.1088  0.0037
67138W        W10154  34.565   6.663  15.383  0.1927 -0.0204  0.0084
67139W        W10155  21.786  19.832  15.177 -0.2574  0.1570  0.1839
67140W        W10156  26.079   3.738  20.444 -0.3396 -0.1232  0.2490
67141W        W10157   8.962  30.484  24.949 -0.1323 -0.0916 -0.3728
67142W        W10158  21.457  22.653  23.836  0.4087 -0.0148  0.1469
67143W        W10159  18.499  11.586  25.907  0.0727  0.0485 -0.1697
67144W        W10160  14.107  11.568  25.124 -0.0793  0.2363 -0.0864
67145W        W10161  27.428  28.366  11.843  0.3255 -0.1083  0.4271
67146W        W10162   9.753   2.774   5.770 -0.0036 -0.0261  0.2178
67147W        W10163   6.967  28.025  17.917 -0.4358  0.0819 -0.0524
67148W        W10164  24.277  30.215   0.287 -0.0266  0.1212 -0.1039
67149W        W10165  31.590   3.542  24.187  0.4601 -0.0043  0.1807
67150W        W10166   4.531  22.558  21.066  0.1935 -0.3640 -0.1093
67151W        W10167   5.367  22.303  19.431 -0.2057  0.0668 -0.1701
67152W        W10168   7.170  26.971  19.374 -0.1749 -0.4064  0.0133
67153W        W10169  16.890   8.067   4.930  0.1917 -0.0141  0.2711
67154W        W10170  13.614   7.377  21.303 -0.0061  0.1027  0.2637
67155W        W10171   7.651  31.833  24.561 -0.3152  0.2092 -0.3373
67156W        W10172   3.992  17.724   1.594  0.0231  0.3855  0.3093
67157W        W10173   8.629  32.343  19.669 -0.1433  0.1105  0.2347
67158W        W10174  10.024  10.379  29.210  0.2091  0.0831 -0.1699
67159W        W10175   9.838   5.447  20.420  0.1836  0.2842 -0.2785
67160W        W10176  25.176  21.622   0.605 -0.1088  0.0621 -0.1206
67161W        W10177   4.299  28.722  26.002  0.0718 -0.0375  0.2618
67162W        W10178  33.673   1.999   2.636 -0.2713 -0.1746  0.0414
67163W        W10179   7.086   5.232  29.122 -0.0384 -0.1823 -0.2095
67164W        W10180  12.016  34.471  20.967 -0.1812 -0.2419  0.1688
67165W        W10181   5.333  15.451   3.205  0.2407  0.1310 -0.0257
67166W        W10182  12.520   0.538  26.183 -0.1345 -0.1837 -0.0819
67167W        W10183  30.241   6.496  21.144  0.1751  0.0077 -0.0561
67168W        W10184   6.886   2.032   7.481  0.1183 -0.1750 -0.3011
67169W        W10185  33.654  27.555   2.238  0.2463  0.0112  0.0561
67170W        W10186  16.042  14.517  11.283  0.1330 -0.0307 -0.0437
67171W        W10187   2.704  21.386  27.933 -0.5068 -0.1699  0.1365
67172W        W10188  11.550   3.531  23.970 -0.3490  0.0151  0.1260
67173W        W10189   3.737  32.236  25.482  0.0592  0.1986 -0.1187
67174W        W10190   1.575   0.281  21.555  0.2933 -0.0355 -0.1051
67175W        W10191  33.148   8.191   9.580  0.2452 -0.3243  0.2645
67176W        W10192   8.523   2.365  18.517 -0.0307 -0.0026 -0.1498
67177W        W10193  13.954  33.406  14.985  0.0612 -0.2152  0.2713
67178W        W10194  14.377  26.617  21.481 -0.1621  0.0837  0.3633
67179W        W10195  10.738   5.442  20.558 -0.0917 -0.1299 -0.2697
67180W        W10196  16.911  28.057  28.582  0.0106 -0.0440 -0.0874
67181W        W10197  20.501   8.635  13.438 -0.0239 -0.0346 -0.2562
67182W        W10198  17.191  32.827   4.165  0.0898 -0.1239 -0.0881
67183W        W10199  11.828   1.131  26.975  0.0858 -0.1157 -0.1040
67184W        W10200  11.989   4.775  19.825 -0.0035  0.0414 -0.1070
67185W        W10201  32.628  33.518  27.637  0.0039 -0.1342 -0.2456
67186W        W10202  12.021   8.179  18.176  0.1293 -0.1072 -0.0218
67187W        W10203  28.159  14.746  17.565  0.3350 -0.1270  0.0273
67188W        W10204   7.030   0.085  15.304  0.1017  0.3024 -0.2242
67189W        W10205  10.134  20.189  26.222 -0.1586 -0.1736 -0.0361
67190W        W10206   9.769  16.392  16.966  0.1283 -0.1875  0.3820
67191W        W10207  10.585  24.680   3.956 -0.0924 -0.2254  0.2664
67192W        W10208   8.922  34.568   1.781  0.1205  0.0238 -0.1215
67193W        W10209  13.011  28.622  21.678 -0.3197  0.1356  0.1986
67194W        W10210  13.513   1.451  22.448 -0.0450 -0.3764  0.1844
67195W        W10211   8.656  26.218   0.808 -0.1833  0.0302 -0.1356
67196W        W10212  23.549  28.318   2.864  0.2101 -0.2024 -0.2401
67197W        W10213   2.428   4.722  21.566  0.0933  0.2382 -0.2259
67198W        W10214  11.856  11.741   1.947  0.0983 -0.1376 -0.1080
67199W        W10215  10.731   1.504  17.559 -0.0343  0.2873  0.0808
67200W        W10216   5.638  28.150  17.326 -0.1961 -0.1306  0.0173
67201W        W10217  28.536  34.622  21.767  0.1188  0.0136 -0.0036
67202W        W10218  11.926  24.566  21.339  0.0780 -0.0129  0.1239
67203W        W10219   5.753   0.747  21.979 -0.1594  0.0799  0.0464
67204W        W10220  13.819   2.146  20.915 -0.2418  0.2238 -0.1016
67205W        W10221   8.982  16.777  14.953 -0.0391  0.2994  0.2012
67206W        W10222   4.557   6.190   8.659 -0.0503 -0.0434 -0.1650
67207W        W10223  16.099   2.555  26.488 -0.0325 -0.0455 -0.0352
67208W        W10224  12.229  26.551  16.661  0.2487  0.3568 -0.1177
67209W        W10225  12.599  27.684  24.213  0.0128  0.1359 -0.3139
67210W        W10226  11.328  29.352  21.054  0.2722 -0.1694  0.0621
67211W        W10227  33.707  19.029  18.458 -0.3188 -0.2172 -0.1706
67212W        W10228  34.290  33.742  23.319 -0.0912  0.1476  0.0122
67213W        W10229   6.048  10.648  14.087 -0.3698 -0.1631 -0.1552
67214W        W10230  13.883   4.169   3.898 -0.0083 -0.1343  0.2151
67215W        W10231   3.200   9.240  25.921 -0.2043 -0.1193  0.1633
67216W        W10232   3.548   8.884  16.560 -0.2194  0.2471 -0.1906
67217W        W10233  11.267  30.475  24.016 -0.2239  0.1817  0.1380
67218W        W10234  28.317  23.509   1.857 -0.1806  0.1502  0.0176
67219W        W10235  13.475  24.819  14.738 -0.1944 -0.0083 -0.0517
67220W        W10236   3.917  31.554  25.815 -0.0111  0.0900  0.1848
67221W        W10237  28.586  29.266  26.422  0.0936 -0.2082 -0.1996
67222W        W10238  24.108  23.482  24.949 -0.0593 -0.2215  0.1184
67223W        W10239   4.962   0.933   1.302  0.2634 -0.0426 -0.2349
67224W        W10240   7.819  20.103  23.188 -0.0822  0.1224  0.0796
67225W        W10241  20.749  22.617  18.240  0.2885  0.2162 -0.1789
67226W        W10242   4.012   3.517  27.608  0.0499  0.0335  0.1814
67227W        W10243   4.233  27.009   3.123 -0.0584  0.1515 -0.0466
67228W        W10244   4.523  32.272  14.752  0.0722 -0.2819 -0.1464
67229W        W10245   7.829  30.256  19.941  0.2491  0.1081 -0.1848
67230W        W10246  10.506   7.231  19.524 -0.1304  0.0532  0.1023
67231W        W10247  17.364   1.388  20.841 -0.0582  0.1974  0.0558
67232W        W10248  14.584  23.033  27.919  0.1913 -0.0675  0.1763
67233W        W10249   7.747  31.674  26.726 -0.0888  0.0360 -0.2671
67234W        W10250  13.573   9.538  25.057 -0.1260 -0.2110  0.1280
67235W        W10251  13.060  28.992  27.295 -0.0141 -0.0586 -0.5672
67236W        W10252  18.546   6.050  14.230  0.1830  0.0142 -0.2134
67237W        W10253   5.857   9.115  21.262 -0.1724 -0.1359 -0.0405
67238W        W10254  32.054   0.943  28.393 -0.1560  0.2001 -0.1599
67239W        W10255   5.800   1.702  20.471  0.0733  0.1996 -0.0420
67240W        W10256  25.285  34.101  11.245 -0.2004 -0.0395 -0.0283
67241W        W10257   6.112  27.146   1.314  0.0488  0.0132 -0.1478
67242W        W10258  27.341   3.598  27.164  0.0631  0.2200 -0.0022
67243W        W10259  29.685  31.088  22.548 -0.1177 -0.0481 -0.3969
67244W        W10260   4.332  10.845  21.009 -0.3026  0.0635  0.2455
67245W        W10261  16.774  31.289   9.416 -0.1951  0.1015 -0.2963
67246W        W10262   6.530  27.430   2.142  0.3447 -0.1153 -0.0433
67247W        W10263  18.208   4.735  27.826 -0.0535  0.1730  0.2509
67248W        W10264  27.360  15.353   3.640  0.0516 -0.2533 -0.0241
67249W        W10265  19.531   7.766   4.994 -0.2292 -0.0534 -0.0927
67250W        W10266   2.392  17.308   7.272 -0.0099 -0.2629 -0.1998
67251W        W10267  32.346  32.093   8.460 -0.1026  0.0885  0.0421
67252W        W10268   9.760   7.008  28.381 -0.0259  0.2497  0.0495
67253W        W10269   6.842  19.834  15.504  0.0407  0.0677  0.0450
67254W        W10270   3.749   0.843  15.352 -0.1267  0.1852  0.1180
67255W        W10271  18.942  27.392   8.855  0.0429  0.1824  0.1050
67256W        W10272  33.762  25.245  28.431 -0.2303 -0.0063 -0.2168
67257W        W10273   9.554   3.209  27.491  0.1676  0.2287  0.0150
67258W        W10274  33.757   1.819  28.168 -0.2520 -0.0818 -0.2870
67259W        W10275  33.166   6.423  21.805 -0.1507 -0.1883 -0.1114
67260W        W10276  15.762  31.506  22.163  0.1061  0.0621  0.2984
67261W        W10277   4.513  33.943  20.568  0.0975  0.2219 -0.2104
67262W        W10278  11.473  29.436   6.381 -0.0418 -0.4024 -0.3078
67263W        W10279  12.002  22.429   3.952 -0.1773  0.0529  0.0878
67264W        W10280   9.429  28.303  22.694  0.0318  0.2006  0.2541
67265W        W10281  30.364   0.429  15.868 -0.1133 -0.0690  0.0539
67266W        W10282  11.979  28.727  15.182 -0.3077 -0.4760  0.1796
67267W        W10283  11.376  33.681   6.100 -0.0224  0.0859 -0.2405
67268W        W10284   3.231  26.530  28.440  0.2216  0.4199 -0.1131
67269W        W10285   7.508  23.859   1.069  0.0658 -0.0864  0.0386
67270W        W10286  19.005  23.767  28.581  0.1765 -0.0567 -0.0853
67271W        W10287  20.743  30.406   9.091 -0.3480 -0.2127  0.2173
67272W        W10288   3.391   5.374  14.698  0.2672  0.0651 -0.0296
67273W        W10289  19.515  31.939   6.130  0.0361 -0.0525 -0.0219
67274W        W10290   3.162   1.001  22.238  0.1438 -0.1885 -0.0682
67275W        W10291   5.276  33.564  16.500 -0.1136 -0.0828  0.1286
67276W        W10292  18.485   2.155  14.842 -0.1042  0.2691 -0.1388
67277W        W10293   9.493   9.251  17.669 -0.2168  0.2254  0.1139
67278W        W10294  12.130  31.278  13.946  0.1622 -0.1711  0.0363
67279W        W10295  18.878   6.507  15.543  0.2592  0.1056 -0.0193
67280W        W10296  11.158   9.985  22.533  0.2893 -0.1687 -0.4094
67281W        W10297  15.442  13.226  23.151  0.1369 -0.1347  0.2578
67282W        W10298  29.822   2.027   2.265  0.1514  0.0814  0.0308
67283W        W10299  33.018   1.436  22.766 -0.1016  0.1728  0.0241
67284W        W10300  16.375   1.302   1.429 -0.1450 -0.3899  0.1480
67285W        W10301  34.076  33.625  22.528  0.2157  0.1876  0.0855
67286W        W10302  14.799  15.343   6.615 -0.2007  0.0007 -0.4171
67287W        W10303  21.104  32.313  29.233  0.1829 -0.0687 -0.2002
67288W        W10304   2.121   7.529   4.544 -0.1542 -0.0892 -0.0567
67289W        W10305   9.370  33.172  23.571 -0.1230  0.2950  0.2195
67290W        W10306  34.342  29.889  18.349  0.2112  0.2870 -0.2080
67291W        W10307   3.906  19.297   6.405  0.0597  0.3447 -0.3300
67292W        W10308  23.053  32.686   2.800 -0.0559 -0.1572 -0.0166
67293W        W10309  16.947   1.679  25.266  0.0461 -0.3750 -0.1387
67294W        W10310  18.752  21.885  23.599 -0.0749 -0.1352 -0.2978
67295W        W10311  16.326  25.047  15.659 -0.1412  0.2155  0.0682
67296W        W10312  32.142  22.833  19.018 -0.0619  0.0079  0.1453
67297W        W10313   5.755  31.257  19.799  0.0150  0.0179 -0.4005
67298W        W10314  12.687  29.317  27.742  0.0003  0.0850  0.2877
67299W        W10315  18.210   3.577  21.645  0.1580  0.5072  0.3746
67300W        W10316  32.804   0.299  26.016 -0.1069 -0.1373  0.2449
67301W        W10317  28.166   6.541   1.799 -0.3100 -0.2711  0.1337
67302W        W10318  25.839  22.707  24.864  0.1373  0.0883  0.0299
67303W        W10319  15.036   6.065  13.341 -0.3768 -0.1638 -0.2032
67304W        W10320   7.713  24.023  13.745  0.1152  0.0540  0.1276
67305W        W10321  12.315   8.662  13.328 -0.2444 -0.1232 -0.0128
67306W        W10322   0.217  24.642   3.092 -0.0705  0.0509  0.0246
67307W        W10323  22.512  16.046  28.904 -0.1847  0.2096  0.3096
67308W        W10324  15.708   8.977  17.860 -0.0887 -0.3140 -0.2541
67309W        W10325  34.412  14.667  18.033  0.0342  0.0296  0.1931
67310W        W10326  20.772  10.681   8.406 -0.1860 -0.1979 -0.1528
67311W        W10327  13.593  28.041  19.517 -0.1342  0.0192 -0.4405
67312W        W10328  11.638   6.216   2.699  0.0516 -0.1233 -0.0398
67313W        W10329  11.362   6.394   5.301 -0.2416  0.0909 -0.0917
67314W        W10330  14.784  10.127  16.227 -0.1749  0.2690 -0.1205
67315W        W10331   9.410  33.225  28.255 -0.1151 -0.2132  0.3928
67316W        W10332   5.147   1.667   2.222  0.3820 -0.1689 -0.3113
67317W        W10333   5.609  28.470  25.991  0.0020  0.0103 -0.0571
67318W        W10334  12.704  22.994  21.841  0.0185  0.0546 -0.0035
67319W        W10335  18.560   3.444  15.239  0.0579 -0.1287 -0.3417
67320W        W10336  33.629   9.090  15.492  0.1220  0.5034 -0.3624
67321W        W10337  24.606  22.585  20.883 -0.1020 -0.1863 -0.1153
67322W        W10338   8.431   1.992  21.234 -0.0864 -0.2912 -0.0234
67323W        W10339  28.397   7.317  10.762 -0.2279  0.2589 -0.1662
67324W        W10340   5.113  30.285   7.780  0.0165  0.0135  0.1921
67325W        W10341  15.209   3.727   0.271 -0.0015 -0.0939 -0.1566
67326W        W10342  29.512  25.464  27.915 -0.0190 -0.0545  0.2753
67327W        W10343  23.258   6.108  17.872  0.1147  0.0324  0.1047
67328W        W10344   5.070  12.346  21.509 -0.0377  0.1569 -0.1659
67329W        W10345  26.715  24.810  20.878 -0.1314 -0.2087 -0.2891
67330W        W10346  20.216  31.992   1.451 -0.2762  0.1874  0.0483
67331W        W10347  13.707  21.613   6.668 -0.4253  0.0575  0.3071
67332W        W10348  16.414  32.113  25.485 -0.0878 -0.4430  0.0513
67333W        W10349  22.640  28.655  19.995 -0.0056  0.1257  0.0262
67334W        W10350   4.279   9.128  29.046 -0.0551 -0.0878  0.0770
67335W        W10351   9.870   3.117  17.248 -0.1150 -0.1056  0.3214
67336W        W10352   5.939   5.460  29.242 -0.0205 -0.1224 -0.0611
67337W        W10353   2.524  20.333  17.993 -0.0920 -0.3999  0.1459
67338W        W10354  10.799  20.157   4.229  0.1801 -0.1089 -0.0484
67339W        W10355  15.434   7.356  22.040  0.1224 -0.0785  0.3301
67340W        W10356   2.595  28.036  21.446  0.0992  0.2549  0.2315
67341W        W10357  11.349  31.847   1.638  0.2666  0.0129  0.1075
67342W        W10358  11.794  28.232  25.431 -0.1269  0.0322 -0.4989
67343W        W10359  27.654   3.284  10.475  0.1464  0.2403  0.0851
67344W        W10360  14.272   6.309  24.117  0.1588  0.1953 -0.0390
67345W        W10361  17.631  34.597   8.100  0.0452 -0.3925 -0.1363
67346W        W10362   5.006  17.590  22.296  0.0521 -0.0577 -0.0693
67347W        W10363  13.995   8.326   9.284  0.0505 -0.1592 -0.3847
67348W        W10364   8.680  17.434   6.148 -0.1718  0.3304 -0.0827
67349W        W10365  30.296   0.023   7.537  0.0141 -0.1812 -0.3468
67350W        W10366   0.281   3.258  29.232 -0.0727 -0.2606 -0.1214
67351W        W10367   3.718  33.013   9.095  0.0021 -0.0112 -0.0460
67352W        W10368  21.101  12.457  16.749  0.1059  0.2263  0.0831
67353W        W10369   9.246  23.887  16.527  0.1589 -0.1565  0.0370
67354W        W10370  34.145  22.405   3.421 -0.2896  0.0174 -0.1039
67355W        W10371  29.280   6.948  18.570 -0.0041  0.0076  0.2510
67356W        W10372  13.410  12.016  22.972  0.0862  0.0353 -0.0250
67357W        W10373  15.386  29.739  18.947  0.2712 -0.0510 -0.2042
67358W        W10374   8.661  10.167  18.532 -0.3343  0.1930  0.0950
67359W        W10375  10.216  34.670  17.971 -0.0225 -0.0463 -0.1087
67360W        W10376  19.686  28.362  28.911 -0.1205  0.1721  0.4274
67361W        W10377  34.485   0.783   1.777  0.1426  0.0939 -0.0364
67362W        W10378  34.432  23.472  15.659  0.0409  0.4619  0.3186
67363W        W10379   5.091  34.649  17.266 -0.2603 -0.1900 -0.3023
67364W        W10380   4.423  22.540  21.956 -0.0609  0.0342 -0.1179
67365W        W10381  14.636  17.630  23.839 -0.5215 -0.3557 -0.4921
67366W        W10382   5.280   6.208   1.053 -0.0685 -0.0230 -0.1332
67367W        W10383  10.276   0.245   6.278  0.0932  0.4745 -0.1195
67368W        W10384  13.922  32.253  15.988 -0.0130  0.0672  0.2164
67369W        W10385   6.257  13.022   4.065 -0.1007 -0.0271  0.2354
67370W        W10386   0.569  14.346  25.908  0.0280  0.2653  0.0262
67371W        W10387  10.014  11.402   3.024 -0.2129 -0.1794 -0.0635
67372W        W10388   2.141  31.272  26.128  0.1161 -0.4018 -0.2710
67373W        W10389   7.578  30.970   8.630 -0.0676  0.2983 -0.0788
67374W        W10390   4.925  33.365   7.573 -0.2748  0.3457  0.0667
67375W        W10391  26.564  27.009  11.156  0.1258 -0.1679 -0.0146
67376W        W10392   3.096   8.914  27.781 -0.0038 -0.1737  0.3413
67377W        W10393  30.585  26.933   6.241  0.1211 -0.0440 -0.1561
67378W        W10394  31.587  21.298   5.536  0.2436 -0.1793 -0.1798
67379W        W10395   5.733   6.265   5.373 -0.0782  0.3305 -0.1289
67380W        W10396   6.129   7.241  25.894 -0.0785 -0.3396 -0.3331
67381W        W10397  10.404   3.121   8.160 -0.0078 -0.0259 -0.0208
67382W        W10398   7.026   1.501   5.283 -0.2202  0.1133  0.0896
67383W        W10399  23.428  33.181   6.624  0.3901  0.0653  0.1154
67384W        W10400   6.045  19.503   0.251 -0.0164 -0.4619  0.1240
67385W        W10401  17.908  25.919  26.285  0.1253  0.1476 -0.0249
67386W        W10402  21.985  11.125  16.010 -0.3046  0.0641  0.0787
67387W        W10403   1.314  29.386   7.503 -0.2108 -0.1120 -0.3090
67388W        W10404   2.851  11.516   3.866 -0.1714 -0.0478  0.0597
67389W        W10405  32.081   0.976   2.525 -0.0132  0.2595 -0.0227
67390W        W10406   2.172  29.814  18.076  0.0433 -0.2745  0.0918
67391W        W10407   2.288  25.194  22.987 -0.0156 -0.0025  0.0345
67392W        W10408  24.677  28.084   7.602  0.0663 -0.0320 -0.3936
67393W        W10409  17.731   7.312   0.444 -0.0449  0.0289  0.0985
67394W        W10410  12.072  30.762  18.933 -0.2287  0.1868  0.0665
67395W        W10411  16.950  24.416  16.651  0.0953 -0.2350 -0.1893
67396W        W10412   7.797  12.328  16.747 -0.1087  0.0205  0.0057
67397W        W10413  21.509   5.949  25.008 -0.1290 -0.0094  0.0989
67398W        W10414  24.406  10.051  19.443  0.0836  0.1424 -0.1345
67399W        W10415   5.918  26.708  15.284 -0.5213  0.1319 -0.0937
67400W        W10416   9.050   5.224  26.237 -0.2708  0.0027 -0.0437
67401W        W10417   1.337   7.030  18.515 -0.1925 -0.0653  0.0200
67402W        W10418  22.678  33.431  24.763 -0.1017 -0.1157  0.0457
67403W        W10419  20.934   2.589  22.508 -0.0860  0.1312 -0.0475
67404W        W10420  29.139   6.466  20.094  0.4237 -0.1603  0.0132
67405W        W10421  20.433   5.018  26.387 -0.0272  0.1506  0.1361
67406W        W10422  15.575  27.896  13.972  0.1957 -0.1365 -0.0089
67407W        W10423  13.656  15.230  13.020 -0.0569  0.0928  0.1910
67408W        W10424  17.849  28.870  19.802  0.1828  0.0338  0.0815
67409W        W10425   8.190   8.656  22.690  0.1823  0.0233 -0.2449
67410W        W10426   6.447  32.895  16.693 -0.1226 -0.1117 -0.1859
67411W        W10427   9.124  14.120  14.635 -0.1149 -0.3092 -0.0390
67412W        W10428  17.238   8.563  27.661  0.3293 -0.0310 -0.1475
67413W        W10429  22.855  24.540  26.869 -0.1370  0.1069 -0.0392
67414W        W10430   8.872  16.281  20.537 -0.1228 -0.1374  0.1436
67415W        W10431  34.710  30.737  17.823 -0.1817  0.3822  0.2806
67416W        W10432  25.223   2.126  18.356 -0.0121 -0.1619  0.0652
67417W        W10433   2.246   7.950  16.340  0.1488 -0.1706  0.2586
67418W        W10434  12.753  11.364  19.430  0.1999  0.0447  0.2327
67419W        W10435  20.406  30.538  28.371 -0.1134 -0.2022  0.0557
67420W        W10436  16.747  31.018   3.031  0.1244 -0.0374 -0.0591
67421W        W10437   8.339  13.677  13.661 -0.0614  0.1069  0.1652
67422W        W10438  11.270  34.037  25.912  0.0656 -0.0379 -0.0713
67423W        W10439  33.750  18.369   5.241  0.0582  0.1502  0.0484
67424W        W10440  21.115  10.312  24.366  0.1654 -0.0343 -0.2203
67425W        W10441  20.353  12.451  14.788  0.0210  0.0345  0.1403
67426W        W10442  13.384  32.627  28.790 -0.0807 -0.1498  0.1824
67427W        W10443  26.505  14.179   1.010  0.0397 -0.1294  0.0940
67428W        W10444   3.608  10.590  28.301  0.1929 -0.1526 -0.0911
67429W        W10445  26.323  18.164  14.408  0.2714  0.3423  0.1641
67430W        W10446  12.272  12.535  22.644  0.2287 -0.1658 -0.0742
67431W        W10447  13.694  29.467  16.312  0.0725  0.0416  0.0700
67432W        W10448  25.018   3.982  21.021 -0.2250 -0.2593  0.2305
67433W        W10449  26.201  22.530  23.990 -0.3737 -0.0626  0.3537
67434W        W10450   1.713   6.627  24.970 -0.2352 -0.2028  0.0026
67435W        W10451   4.757  17.206  21.605  0.0553 -0.1676 -0.3678
67436W        W10452  33.994  12.675  15.720 -0.1598  0.1820  0.0286
67437W        W10453  28.530  11.565   0.054  0.1212 -0.2333  0.4876
67438W        W10454  29.960  12.456  16.053 -0.0364  0.1236 -0.0973
67439W        W10455   3.955  15.681  16.325 -0.2458 -0.0131 -0.3567
67440W        W10456  15.382   2.400  20.204 -0.0012 -0.1028  0.1175
67441W        W10457  18.532   1.420  21.653  0.1676 -0.1101  0.0138
67442W        W10458  22.644  11.483  16.535 -0.0319  0.0385  0.0971
67443W        W10459  26.000   9.013  23.743  0.3260 -0.1066  0.2450
67444W        W10460  27.222  26.366  20.905 -0.1230  0.0591 -0.0582
67445W        W10461  27.091   0.041  16.184 -0.2888 -0.0909  0.3577
67446W        W10462  20.930  15.128  15.584  0.1317 -0.1104  0.1139
67447W        W10463   9.566   2.368  18.740 -0.1257  0.0964  0.1732
67448W        W10464   7.916  29.551  27.400 -0.0529 -0.1007  0.0857
67449W        W10465  19.516  30.157  19.653  0.1113 -0.2372 -0.0848
67450W        W10466   7.252  30.887  21.323  0.1521 -0.0745 -0.0155
67451W        W10467   7.885  10.572  16.241 -0.1143  0.3160 -0.2129
67452W        W10468   9.870  16.723  23.700  0.1444 -0.0525 -0.2222
67453W        W10469  11.297   5.252  18.905  0.0382 -0.1897  0.3197
67454W        W10470  20.201  20.059  14.104  0.0641  0.0499  0.0262
67455W        W10471  16.501  13.841  22.355 -0.1925 -0.2083  0.0272
67456W        W10472  11.933   7.654  28.819 -0.2073  0.2473 -0.0933
67457W        W10473   1.992   6.957  26.656 -0.0223 -0.0821 -0.1756
67458W        W10474   7.119   9.585  18.417 -0.1300  0.2106  0.1185
67459W        W10475  14.017   8.775  14.592 -0.1155 -0.1489 -0.0182
67460W        W10476  13.694   4.171  15.185  0.2434  0.0624  0.1574
67461W        W10477  29.140  26.467  28.241 -0.1506 -0.1368  0.1507
67462W        W10478  19.183   7.228  24.980  0.1204  0.4300 -0.0926
67463W        W10479  25.356  34.310  17.714  0.0665 -0.1801  0.0777
67464W        W10480  21.234  28.940  15.175 -0.0258 -0.2100  0.1194
67465W        W10481  20.367  20.329  13.685  0.0240 -0.0533  0.0270
67466W        W10482  10.594   1.569  16.097  0.1252 -0.0482 -0.0655
67467W        W10483   3.734   8.233  27.360 -0.1577 -0.1171 -0.3567
67468W        W10484  20.878  10.970   2.613 -0.1475  0.1226 -0.0934
67469W        W10485  10.104   0.331  21.586 -0.0333  0.1676  0.0510
67470W        W10486   8.595   8.284   1.605  0.1092  0.0745 -0.0626
67471W        W10487  15.975  29.465   0.966  0.0872  0.0114  0.0976
67472W        W10488  27.837  34.696   1.810 -0.1123 -0.0158 -0.1262
67473W        W10489  21.887   0.448  24.685  0.1529 -0.0970 -0.3929
67474W        W10490  13.010  11.556  23.184 -0.1223  0.0469  0.1448
67475W        W10491  18.358  31.959  25.763 -0.0844  0.4027 -0.0986
67476W        W10492  18.783  27.996  22.262  0.0405 -0.2952  0.0706
67477W        W10493   0.321  27.098  18.563 -0.0185  0.1237 -0.0382
67478W        W10494  18.074   9.134  14.685 -0.2412 -0.0008  0.0868
67479W        W10495  15.016  34.634  14.530 -0.2236 -0.1238 -0.0980
67480W        W10496  24.267  26.461  23.254  0.2763  0.5121  0.2636
67481W        W10497  16.656  34.545  21.270  0.1431 -0.0360 -0.0174
67482W        W10498   1.003  30.601  18.992  0.0086 -0.1281 -0.2863
67483W        W10499  29.207  13.682  14.222  0.1164 -0.0389  0.0398
67484W        W10500   7.750  15.638  14.634  0.1280  0.0582  0.0089
67485W        W10501  30.886  34.649   1.004 -0.0856 -0.0286  0.2166
67486W        W10502  16.559   7.461  16.924 -0.1366  0.1639 -0.0483
67487W        W10503  14.621   5.045  14.351 -0.0275 -0.2116 -0.0656
67488W        W10504  27.869  34.563  18.099  0.1158 -0.4403  0.1035
67489W        W10505  18.572  29.515  20.151  0.1814 -0.0880  0.4599
67490W        W10506   4.201   8.546  15.326 -0.2586  0.2322 -0.0442
67491W        W10507   9.659  10.402  18.754 -0.1828  0.2436  0.0074
67492W        W10508   7.523   9.213  15.782  0.1324  0.1155 -0.0265
67493W        W10509  11.323   1.291  24.367 -0.2433 -0.2166 -0.1865
67494W        W10510  25.215   9.607  27.366 -0.1580 -0.1298  0.1424
67495W        W10511  12.998  10.037  13.951 -0.1668  0.0701 -0.2687
67496W        W10512  23.362  32.663  24.107  0.3113  0.4693 -0.1059
67497W        W10513  10.398  10.372  16.611 -0.2203 -0.2503 -0.0688
67498W        W10514   6.879  28.782  22.212  0.1254  0.2886  0.3062
67499W        W10515  22.002   0.178  16.009  0.2485 -0.1745 -0.1907
67500W        W10516  29.376   5.776  23.457  0.0155  0.1936  0.1898
67501W        W10517  15.997   0.860  18.558 -0.1453  0.3386  0.3553
67502W        W10518  12.941  29.378  20.190  0.1714  0.4128 -0.1222
67503W        W10519  20.458  27.746   9.360  0.0083  0.0147 -0.0431
67504W        W10520   2.484   7.141  14.320  0.0947  0.0495  0.2293
67505W        W10521  14.897   5.395  27.970  0.2572  0.2835  0.1559
67506W        W10522  23.124  21.608  15.755 -0.0264  0.1674  0.1162
67507W        W10523  25.925  22.950  24.427  0.3149 -0.0257 -0.1485
67508W        W10524  32.575  31.329   3.018  0.0934  0.3658  0.2082
67509W        W10525  25.250  32.020  23.348  0.1265  0.0554 -0.1434
67510W        W10526   9.471  27.359  22.375 -0.1738 -0.1447 -0.0647
67511W        W10527   9.202  21.058  12.700  0.2456 -0.3315 -0.0223
67512W        W10528  14.317   7.185  24.055 -0.2601 -0.3624  0.1336
67513W        W10529   9.542  33.148   1.268 -0.0620  0.0883 -0.0330
67514W        W10530  22.604  34.396  23.685 -0.1936 -0.0668 -0.6517
67515W        W10531  14.111  29.453  20.385  0.2784 -0.0944  0.0415
67516W        W10532   7.777  30.865  19.235 -0.0256 -0.0369 -0.2355
67517W        W10533  12.629  25.100  22.813  0.1620 -0.2749 -0.0815
67518W        W10534  22.398   0.922  29.030 -0.0886  0.2106 -0.0644
67519W        W10535  18.521   3.018  19.309 -0.0736 -0.2073 -0.1047
67520W        W10536   9.797  30.041  27.082 -0.2317 -0.4505  0.2209
67521W        W10537  21.489  16.161  15.563 -0.2215 -0.0791  0.1272
67522W        W10538  21.343   8.861  23.911  0.1151  0.0414  0.0311
67523W        W10539  33.384  12.940  27.892 -0.3646  0.0397 -0.0669
67524W        W10540  14.393  21.342  15.819 -0.1957  0.0960 -0.0470
67525W        W10541  16.408  29.576  23.382  0.0862  0.0943  0.0408
67526W        W10542   0.665  32.223  26.129  0.2485 -0.1957 -0.2708
67527W        W10543  14.611  19.212  14.574  0.3707 -0.3291 -0.3504
67528W        W10544  14.522  29.034  25.438 -0.0801 -0.0946  0.0639
67529W        W10545   8.488  32.579  22.476 -0.0887  0.0306  0.3465
67530W        W10546  21.423   9.848  16.184  0.3879  0.2834  0.3194
67531W        W10547  16.529  28.910   3.652 -0.1863  0.2103 -0.0632
67532W        W10548   4.236   4.190  25.654  0.1309 -0.1008 -0.1613
67533W        W10549  17.443  27.405  17.331  0.1494 -0.1797  0.0423
67534W        W10550  22.742  16.811  22.349 -0.1309  0.0207  0.0395
67535W        W10551   3.180  19.632   4.103  0.1409 -0.0548 -0.0085
67536W        W10552   4.862  30.913  23.096 -0.2233 -0.0152  0.0039
67537W        W10553  19.551   8.315  17.158  0.0539 -0.1426  0.3916
67538W        W10554  27.110   1.682  23.736  0.0605  0.1105  0.1786
67539W        W10555  18.833  21.411   3.615  0.1410 -0.1705 -0.0687
67540W        W10556  27.442   4.475  23.657  0.0749 -0.0927 -0.0340
67541W        W10557  32.087  33.660  16.313  0.1746 -0.1394 -0.0656
67542W        W10558   7.229   1.743  18.717 -0.1406  0.0676 -0.3296
67543W        W10559  18.779   6.507  23.067  0.0430  0.2659  0.0805
67544W        W10560  16.262  34.529  24.259  0.0461 -0.1993 -0.1642
67545W        W10561  26.250  28.949   4.928 -0.0748 -0.0475  0.4922
67546W        W10562  24.282   7.888  15.296  0.1963  0.2546  0.1006
67547W        W10563   8.628  13.761  25.085  0.2878  0.1607 -0.1175
67548W        W10564  22.805   6.780  14.752 -0.0931 -0.1168  0.0168
67549W        W10565  29.546   5.321  14.464  0.4381 -0.0518  0.0090
67550W        W10566  20.067   1.983   1.365  0.0692  0.0058 -0.0135
67551W        W10567  13.744   2.189  21.411  0.1753 -0.0427 -0.1131
67552W        W10568  21.735  13.612  22.085  0.2623 -0.0023  0.2371
67553W        W10569   7.082   8.032  25.788 -0.1175  0.2106  0.1008
67554W        W10570  12.918   7.659  18.228 -0.1821 -0.4344 -0.0823
67555W        W10571  16.951   2.293   0.906  0.0374 -0.2149  0.2897
67556W        W10572  16.915   0.522  27.565 -0.1008  0.0064  0.0960
67557W        W10573  19.740  25.248  15.260  0.0136  0.0468 -0.2100
67558W        W10574  18.925  26.388  24.259  0.0149 -0.1358  0.0637
67559W        W10575   8.199  23.617  22.945 -0.0374  0.2600  0.0376
67560W        W10576  19.125   0.273  19.495  0.2302  0.2570 -0.2251
67561W        W10577   9.377  23.356  19.493 -0.3846  0.0533 -0.0984
67562W        W10578  22.914  30.096  16.075  0.2960  0.1103  0.0827
67563W        W10579  13.486  33.890  20.054 -0.1894  0.3084  0.3019
67564W        W10580  17.653   9.336  22.028  0.0806 -0.0146 -0.0580
67565W        W10581   4.102  11.723  26.175  0.0908  0.2029 -0.1986
67566W        W10582  21.711   8.633  15.848 -0.2603  0.0563 -0.0849
67567W        W10583  25.675  29.294  24.465  0.1069 -0.1484  0.1448
67568W        W10584  11.738  31.356  28.560  0.1695  0.0623 -0.1701
67569W        W10585  16.261   0.251  17.742 -0.0222  0.1719 -0.1153
67570W        W10586   6.253  23.366  29.227 -0.1217  0.1850  0.0999
67571W        W10587  21.603   1.342  24.293  0.2937  0.1785 -0.2104
67572W        W10588  26.494  15.318  23.908  0.2758 -0.2921 -0.3551
67573W        W10589  21.636  22.476  14.568  0.0967  0.0443  0.2196
67574W        W10590   3.874  34.125  16.497 -0.4623 -0.2406 -0.0237
67575W        W10591  15.758   7.111  24.393 -0.1727  0.3415  0.1893
67576W        W10592  23.966  18.360  13.861  0.1329 -0.0247 -0.0586
67577W        W10593  32.933  14.592  15.479  0.0488  0.1130  0.0682
67578W        W10594   8.573   9.995  18.053  0.2628  0.3668  0.3991
67579W        W10595  14.419   4.863  17.668  0.4084  0.0771  0.1225
67580W        W10596  12.526  11.784  23.926  0.2162  0.1973 -0.1637
67581W        W10597   4.146   5.705  16.339  0.0072  0.1517  0.0422
67582W        W10598  19.055   6.777  13.889 -0.2333 -0.1395 -0.2179
67583W        W10599  11.977  29.279   4.693 -0.1152 -0.1317  0.0653
67584W        W10600  24.446  22.047  17.087  0.2514 -0.2098 -0.0840
67585W        W10601  33.374   6.741   3.829  0.0242 -0.1209  0.4073
67586W        W10602   7.238   6.978  19.003  0.0534  0.1388 -0.0010
67587W        W10603  11.023  32.420  25.952 -0.2329  0.4463  0.1426
67588W        W10604  12.534  32.432  16.414  0.3399  0.0050 -0.2295
67589W        W10605   1.328  19.359  18.721 -0.0685 -0.1305  0.0567
67590W        W10606  21.302  27.687   0.552 -0.0459  0.1313 -0.0974
67591W        W10607  22.669  10.412  21.488 -0.0830  0.0277  0.0479
67592W        W10608  10.219   8.817  26.323 -0.2309  0.0710 -0.1371
67593W        W10609   8.485   3.360  19.955 -0.0418 -0.2416  0.1608
67594W        W10610   3.272  31.299  18.989 -0.1832 -0.4372  0.2020
67595W        W10611  17.054   6.183  27.647  0.0480  0.2437 -0.0693
67596W        W10612  16.392   9.344  22.502 -0.1464 -0.3780  0.1707
67597W        W10613  32.351  25.555  16.796  0.2029  0.2944  0.2485
67598W        W10614   7.693  14.569  20.298  0.0380 -0.2098  0.2126
67599W        W10615  17.767   6.544   1.317 -0.1371  0.1176 -0.0715
67600W        W10616   5.801  27.006  15.651  0.0181 -0.0137  0.0925
67601W        W10617  30.453  17.034  15.334 -0.2312 -0.2767 -0.0182
67602W        W10618  17.176   2.134  15.894  0.0856 -0.0527 -0.0553
67603W        W10619  23.558  33.728  21.721 -0.0643 -0.1085  0.3019
67604W        W10620  29.498   9.227  20.853 -0.2091 -0.3009  0.3430
67605W        W10621  14.117  27.048  26.971 -0.2007  0.3122  0.0804
67606W        W10622   3.306   8.119  23.030  0.2467  0.1059 -0.1277
67607W        W10623  26.957  19.215  15.752 -0.1318  0.2584  0.0538
67608W        W10624  34.405   8.510  22.282  0.0717 -0.0959  0.3018
67609W        W10625  15.851  32.777  21.233 -0.1763 -0.3368  0.3028
67610W        W10626  32.570   1.703   3.224  0.0698  0.1074  0.1326
67611W        W10627  25.266  30.311  18.452 -0.2097 -0.0298 -0.5097
67612W        W10628  30.192  32.799  18.092 -0.2022 -0.0638 -0.3700
67613W        W10629  26.695  34.104  23.791 -0.0511  0.0463 -0.1251
67614W        W10630  16.818  21.476   2.122 -0.2034  0.0417  0.0646
67615W        W10631  12.508  33.779  17.400 -0.3094  0.3500  0.1966
67616W        W10632  19.135  19.062  15.490 -0.0651  0.0206  0.2937
67617W        W10633  17.447  27.962  21.653 -0.1506  0.3864  0.1517
67618W        W10634  19.510  27.307  21.967 -0.3673  0.0235  0.1309
67619W        W10635   2.092  10.235  19.879 -0.0227  0.0641  0.0360
67620W        W10636   3.844  12.988  16.793  0.0234  0.2771 -0.0760
67621W        W10637  14.063  32.876  15.082  0.5775 -0.1055  0.0435
67622W        W10638   6.258  33.506  18.547 -0.0009  0.5320  0.0021
67623W        W10639  17.578   5.354  19.797  0.2179  0.2770 -0.3959
67624W        W10640   9.881  24.907  15.477  0.2384  0.2403 -0.0021
67625W        W10641  20.116   0.194  22.557 -0.0041  0.1036  0.0307
67626W        W10642  12.467  32.852  21.526  0.1469 -0.3495  0.4348
67627W        W10643  26.105  31.237  20.224  0.0909  0.1618 -0.0295
67628W        W10644   8.042  24.295   5.886 -0.2558  0.0584 -0.0583
67629W        W10645  12.040  31.781  13.784 -0.0406  0.1165 -0.0252
67630W        W10646  12.960  10.209   1.558  0.2569  0.0042  0.2576
67631W        W10647   1.965  10.142  17.893 -0.1207 -0.0874  0.1202
67632W        W10648  11.352   1.770  21.235  0.1154  0.1549  0.2127
67633W        W10649  17.043   8.721  17.254  0.0585  0.1087  0.3441
67634W        W10650  32.822  28.970  22.037  0.3374  0.1883 -0.1821
67635W        W10651  21.148  27.095  21.443  0.3140 -0.2780 -0.1623
67636W        W10652   6.203   3.046  15.087  0.1829  0.3153  0.1145
67637W        W10653  29.585  25.829  25.455 -0.5923 -0.1584  0.0234
67638W        W10654  13.303  30.745  14.697  0.1408 -0.1994  0.4120
67639W        W10655  17.548   9.334  25.382  0.0548 -0.3107  0.0802
67640W        W10656  15.012  24.974  15.540 -0.2099  0.2516  0.1037
67641W        W10657  13.297  26.595  18.449  0.1075  0.0662  0.3580
67642W        W10658  11.439  19.893  21.807  0.1264 -0.0039  0.1499
67643W        W10659  24.782   1.729  22.508 -0.1833 -0.3530 -0.3273
67644W        W10660  19.401  26.702  27.033 -0.3102 -0.0964  0.0309
67645W        W10661  23.130  23.998  20.037 -0.3187  0.0684  0.0985
67646W        W10662  21.576  25.710  13.844 -0.1117  0.3383 -0.4448
67647W        W10663  17.704  14.028  21.993  0.2885  0.2218 -0.0213
67648W        W10664   5.548  18.044  13.532 -0.1198  0.0305  0.0333
67649W        W10665  31.616   0.273  18.211 -0.2973  0.1336 -0.0245
67650W        W10666  23.476  23.212  17.601  0.0247 -0.1029 -0.1890
67651W        W10667   0.443  31.981  17.767  0.0035  0.1853 -0.0801
67652W        W10668  20.773  31.296  23.328 -0.3717 -0.0961  0.0758
67653W        W10669   2.355  30.126  19.017  0.1883 -0.1479  0.1244
67654W        W10670  10.785  11.130  23.408 -0.0234  0.2792  0.1926
67655W        W10671  28.286   1.304   1.714 -0.2570 -0.0911 -0.1941
67656W        W10672  28.144  26.582  23.205 -0.1046 -0.1606 -0.0353
67657W        W10673  34.761  29.212  21.058  0.3555 -0.1791 -0.0806
67658W        W10674  10.141  13.878  12.724  0.0154 -0.1595  0.3358
67659W        W10675  10.920   9.167  14.065 -0.0028 -0.0215  0.3126
67660W        W10676  20.099   2.566   6.317  0.1781 -0.4352  0.0217
67661W        W10677  23.158  32.252  23.318 -0.0271  0.2949  0.2441
67662W        W10678  16.478   5.396  15.702  0.2700  0.2683  0.0708
67663W        W10679  19.401  32.494  17.362  0.0548  0.4704  0.1549
67664W        W10680  11.048  13.669  27.169 -0.2472  0.2685 -0.1095
67665W        W10681  18.255  20.645  14.483 -0.1078 -0.0601 -0.1463
67666W        W10682  13.173  23.093  12.867  0.4396  0.0015 -0.2038
67667W        W10683  21.611   1.924  20.712  0.0501 -0.0850  0.0727
67668W        W10684  18.839  30.032  20.991 -0.1772 -0.3093 -0.0591
67669W        W10685  22.879  15.992  22.769  0.0638 -0.0046 -0.0571
67670W        W10686   1.284   0.912  18.136  0.0091 -0.0235  0.0851
67671W        W10687  15.661  30.267  23.543 -0.0403  0.1080  0.0548
67672W        W10688  24.799   2.388  18.522 -0.0171  0.1267 -0.2305
67673W        W10689  20.097  33.837  18.281  0.1507 -0.0229  0.0602
67674W        W10690  11.098   5.080  21.704 -0.2319  0.0190 -0.0519
67675W        W10691  12.407  30.862   3.525 -0.4704 -0.0745  0.0487
67676W        W10692   7.029  31.327  16.509 -0.1689  0.1075 -0.0176
67677W        W10693  11.628   5.460  15.596  0.2306  0.2706 -0.0214
67678W        W10694  18.145  16.805  12.998  0.2666 -0.0239  0.0229
67679W        W10695  21.215   6.243  25.428  0.1492 -0.0225 -0.3153
67680W        W10696  21.707  18.536  17.569  0.0370  0.0862  0.3082
67681W        W10697  23.226  34.220  16.690  0.3051 -0.0436 -0.0122
67682W        W10698  16.185  28.746  22.160 -0.0506 -0.0676 -0.2447
67683W        W10699   7.225  34.761  23.536  0.1212 -0.1476  0.2160
67684W        W10700   4.203   9.656  16.717  0.0979  0.2379  0.0707
67685W        W10701  10.852   3.564  26.153 -0.0639  0.2401  0.1300
67686W        W10702  19.566  33.619  23.312  0.0207  0.0582  0.2774
67687W        W10703  17.145   4.125  19.879  0.3448 -0.0574  0.2693
67688W        W10704  13.364  18.238  13.835  0.1069 -0.0208  0.3034
67689W        W10705  23.023  28.222  29.252 -0.2390 -0.1915  0.1475
67690W        W10706   5.091  18.403  16.260  0.0007  0.2930  0.0275
67691W        W10707  21.804  30.776  19.741  0.2037  0.3301 -0.0325
67692W        W10708  32.718  30.707  24.022 -0.1288 -0.0568 -0.3389
67693W        W10709   2.142   0.057  14.324 -0.0412  0.2893  0.0789
67694W        W10710   0.205   5.741  15.041 -0.1896  0.0926  0.1285
67695W        W10711  15.458  17.277  11.158 -0.1132  0.3383  0.0010
67696W        W10712   6.836  33.861  20.911 -0.1852  0.3961  0.0241
67697W        W10713  16.299   8.111  16.166 -0.1170  0.1133 -0.1552
67698W        W10714  27.163   6.964  18.979  0.0528  0.0491 -0.1506
67699W        W10715  18.754  14.065  13.787 -0.2174 -0.0798  0.2414
67700W        W10716  31.792   7.875  26.030  0.0188  0.1954 -0.1302
67701W        W10717  25.243  28.163   1.025 -0.0171 -0.2198 -0.2061
67702W        W10718  19.290   6.491  23.786  0.2039  0.0622 -0.0601
67703W        W10719  13.427  31.975  21.899  0.0658  0.0155 -0.0653
67704W        W10720  11.642  13.769  26.951  0.1403 -0.5211 -0.0041
67705W        W10721  21.910   4.269  18.270  0.2039 -0.3290  0.2610
67706W        W10722   8.265   0.750  23.200  0.4952  0.0062 -0.1134
67707W        W10723   5.921   8.445   0.510 -0.1902 -0.1585  0.3248
67708W        W10724  21.879   3.179  26.511 -0.3359  0.6216  0.0001
67709W        W10725  21.059  33.330  16.413 -0.2365 -0.1711 -0.2040
67710W        W10726  24.714   3.585   2.861  0.1409  0.1401 -0.1158
67711W        W10727  16.733   4.449  19.842 -0.0655 -0.3062  0.1813
67712W        W10728  25.769  29.918  19.531 -0.0920 -0.0312 -0.0515
67713W        W10729   5.016  17.798  24.140  0.1913 -0.0443  0.0108
67714W        W10730  16.953  31.438  23.442  0.1997 -0.2784  0.0808
67715W        W10731  12.415   5.990  22.477  0.0278  0.2968 -0.2846
67716W        W10732   9.684   5.530  25.627 -0.1474  0.1131 -0.0479
67717W        W10733   9.557  33.887  23.517 -0.1068  0.0237  0.2000
67718W        W10734  12.109  21.351  22.133  0.1433  0.0292  0.3069
67719W        W10735  33.670  11.751  23.150  0.1155  0.1307 -0.0320
67720W        W10736   6.564   5.514  16.736 -0.0116  0.1838  0.1221
67721W        W10737  18.596   7.644  13.780  0.1291  0.1041  0.1021
67722W        W10738  22.870   8.192  18.211 -0.2602 -0.4292 -0.0628
67723W        W10739  12.030   0.171  14.710  0.1267 -0.1023  0.0239
67724W        W10740  21.363   4.032  19.331 -0.1252  0.0156  0.0333
67725W        W10741   3.361  31.939   8.624 -0.5170 -0.0584 -0.1517
67726W        W10742   2.774   4.582  17.115 -0.2494  0.0684  0.0523
67727W        W10743  29.524  11.520   1.669 -0.1613 -0.0842  0.0242
67728W        W10744  19.371   3.973  16.756 -0.0047 -0.2113  0.3487
67729W        W10745  25.005  15.333  26.475  0.2175  0.0814 -0.0636
67730W        W10746  22.719  17.744  17.340  0.0640 -0.1223  0.0172
67731W        W10747  16.590  13.458  26.172 -0.2633  0.1071 -0.0419
67732W        W10748  28.975   6.199  18.925 -0.4005  0.0032  0.2994
67733W        W10749   2.775   0.343  16.978  0.2823 -0.0772  0.4466
67734W        W10750   8.921  24.610  20.518 -0.2766  0.3042  0.0693
67735W        W10751  15.726  33.080  17.096 -0.0692 -0.2908 -0.0305
67736W        W10752  10.928  30.075  24.052  0.0341 -0.1323 -0.2495
67737W        W10753   9.963  14.518  19.525  0.1432  0.1553 -0.1592
67738W        W10754  17.054  16.706   0.866  0.3318  0.4411 -0.0340
67739W        W10755  22.728  26.936  26.241  0.0307  0.0007 -0.1094
67740W        W10756   7.743  33.482  27.801  0.0934  0.2990  0.5386
67741W        W10757  15.337   0.529  19.586 -0.0352  0.1082  0.1367
67742W        W10758  29.423  25.764  16.828  0.0300  0.2921  0.1212
67743W        W10759  11.091  27.811   2.373  0.0342  0.1026  0.2299
67744W        W10760  19.843   3.703   4.157  0.0612  0.0106 -0.0769
67745W        W10761   4.653  33.776  21.474 -0.5164  0.1901 -0.3301
67746W        W10762  22.440   0.363  25.986 -0.0742  0.0008  0.2512
67747W        W10763  16.458  34.053  21.863  0.0294  0.0043  0.1065
67748W        W10764   7.472  15.999   1.799  0.0734  0.0146  0.0680
67749W        W10765  24.478  33.876  26.312  0.1992  0.0160 -0.1409
67750W        W10766  14.313  34.014  18.418  0.1437 -0.2557 -0.3141
67751W        W10767  11.504   5.916  15.984  0.1939  0.1048  0.1235
67752W        W10768  18.233  32.660  19.521 -0.0303  0.2254  0.2298
67753W        W10769   7.297   8.653  15.017  0.0358  0.0080 -0.3688
67754W        W10770   4.431  29.339  17.595  0.1426  0.0676 -0.0061
67755W        W10771   9.832  31.016  19.021  0.1903  0.1701  0.2512
67756W        W10772  20.079   5.489  18.845  0.1163  0.2934  0.0921
67757W        W10773  10.777  33.069  17.488  0.2820  0.5568 -0.1998
67758W        W10774  28.837  20.513  17.870  0.3198  0.0100 -0.1603
67759W        W10775  12.035   3.594  15.603 -0.1869 -0.3816  0.2470
67760W        W10776  19.737  11.839  23.721 -0.0380  0.0037 -0.2033
67761W        W10777  28.076  30.958   3.237  0.0915 -0.2943  0.0188
67762W        W10778   1.813  17.682  22.063  0.3190  0.1404  0.1464
67763W        W10779  11.488  33.256  19.810  0.2131  0.0140  0.1423
67764W        W10780   0.069  32.363  21.525 -0.0756  0.0411  0.1759
67765W        W10781  31.443  23.162  15.214 -0.1505  0.0068  0.2141
67766W        W10782  18.914   3.058  18.515 -0.0282 -0.0173  0.0294
67767W        W10783  18.921   5.227  24.136 -0.3084 -0.1765 -0.0605
67768W        W10784  14.794   3.434  18.343  0.0019 -0.0540 -0.0091
67769W        W10785  31.631   2.677   7.756 -0.1484 -0.1324 -0.0894
67770W        W10786  20.380  17.858  22.988 -0.3393  0.1055 -0.3650
67771W        W10787  24.243  26.051  20.509  0.1170 -0.0058 -0.5203
67772W        W10788  28.665   3.364  17.969  0.2667  0.1756  0.0275
67773W        W10789  24.290   2.111  16.010 -0.0323 -0.0652  0.2635
67774W        W10790  22.156  10.564  28.595 -0.2277 -0.1053 -0.2490
67775W        W10791  16.037  31.623  15.905  0.3480  0.1297 -0.1387
67776W        W10792  16.689   7.419  25.273 -0.2345 -0.0531 -0.2444
67777W        W10793  31.637   1.002   2.705  0.2379  0.2666  0.2281
67778W        W10794  21.310  29.282  21.261 -0.2017 -0.1740 -0.1676
67779W        W10795   2.568   4.240  27.612 -0.1861 -0.1550 -0.2117
67780W        W10796  14.657   2.733   0.341 -0.3681  0.1020  0.2775
67781W        W10797  13.233   4.715  26.239 -0.1233 -0.2055  0.1115
67782W        W10798  25.747  12.532  20.610  0.1681  0.1287 -0.1696
67783W        W10799  23.020  11.564  14.764  0.2045 -0.4212  0.0282
67784W        W10800  21.711  14.738  23.003 -0.1669  0.0630 -0.2919
67785W        W10801   1.419  23.616   9.282  0.0755 -0.0356 -0.0944
67786W        W10802   9.693   9.568  22.844  0.0928 -0.3407 -0.3372
67787W        W10803  16.149  33.654  21.592 -0.0889 -0.0094  0.1489
67788W        W10804  18.194  34.509  24.208  0.1804 -0.1827  0.2668
67789W        W10805  12.245  14.727  14.663 -0.2747  0.1644 -0.0369
67790W        W10806  10.827  18.118  22.706 -0.1340 -0.1782 -0.1566
67791W        W10807  21.617   9.439  21.770  0.5210 -0.0679 -0.0474
67792W        W10808  18.176  10.213  18.397  0.1677  0.0178  0.1196
67793W        W10809  17.694  33.289  17.709 -0.0029 -0.0545 -0.0364
67794W        W10810  12.466  32.116   6.665 -0.0223  0.0920  0.2060
67795W        W10811  11.435  33.691  16.736 -0.1744 -0.0667 -0.0439
67796W        W10812  10.406  33.633  27.192 -0.1471 -0.0597  0.0508
67797W        W10813  13.503  21.730  13.384 -0.0601 -0.1973 -0.1657
67798W        W10814   1.421   3.478  24.074  0.0759  0.1998  0.1298
67799W        W10815  14.451  28.805  13.262 -0.3824 -0.0259 -0.1742
67800W        W10816  14.606  28.123  19.117  0.0174  0.1876  0.1471
67801W        W10817  12.890  23.913  13.446  0.1657  0.2639  0.1999
67802W        W10818  13.108   1.273  26.397  0.1474 -0.1387 -0.0051
67803W        W10819   8.278  33.151  18.780 -0.2044 -0.1241 -0.1119
67804W        W10820  24.349  15.367  14.850  0.0323  0.4099  0.0396
67805W        W10821   2.899  34.773  14.513  0.1713 -0.1213  0.1280
67806W        W10822  10.171  32.051  21.880  0.1653 -0.0369  0.1960
67807W        W10823  16.960  14.834  20.592  0.1855  0.0177  0.0918
67808W        W10824   0.558  15.308  15.429 -0.2113 -0.3006  0.1130
67809W        W10825   8.748  25.412  17.479  0.2402  0.2253 -0.2615
67810W        W10826   0.478  26.390  20.473  0.0692 -0.0757 -0.0088
67811W        W10827  17.822  24.782  16.112  0.1552  0.1238  0.0776
67812W        W10828  17.457  17.684   0.531  0.2477 -0.0728  0.2282
67813W        W10829  30.251  13.869  24.515 -0.0408  0.0194 -0.2956
67814W        W10830  20.955  32.580  16.936  0.1675  0.2132 -0.0360
67815W        W10831   8.278   9.422   9.288  0.2141 -0.0322 -0.1422
67816W        W10832  19.794   5.823  19.856  0.1698  0.4690  0.1203
67817W        W10833  19.197  34.684  25.103  0.2945 -0.2437 -0.1141
67818W        W10834  23.070  25.906  21.396 -0.3412  0.0982 -0.2079
67819W        W10835  25.943  24.002  18.343 -0.1634  0.0822 -0.1854
67820W        W10836  19.835   3.777  16.795 -0.2187  0.2282  0.0837
67821W        W10837  16.995   6.582  16.832 -0.1884  0.0172  0.2370
67822W        W10838  27.676  31.388  20.839  0.3397 -0.1085 -0.1415
67823W        W10839  21.419  10.888   6.762  0.0226  0.0592  0.0758
67824W        W10840   7.105  27.462  21.991  0.1423  0.4699 -0.0859
67825W        W10841  20.784  31.414  18.873 -0.2065  0.2649  0.1657
67826W        W10842   4.609  11.583  19.496  0.0170 -0.0222  0.1235
67827W        W10843  11.503   6.115  27.166 -0.1691  0.0082  0.0575
67828W        W10844  19.486  32.602  20.882  0.0071  0.3148 -0.1825
67829W        W10845   6.426   4.203  26.898  0.2270 -0.0539  0.1834
67830W        W10846  32.517   1.795  21.372  0.2409  0.3609 -0.2765
67831W        W10847  29.283  33.945  28.696  0.0137 -0.1652  0.0201
67832W        W10848   4.466  26.314  17.334 -0.1462  0.2140  0.1300
67833W        W10849  26.455  33.554  27.893 -0.2754  0.0617 -0.0454
67834W        W10850  19.154   2.682  27.767 -0.1099  0.0425 -0.1371
67835W        W10851  28.041  28.357  22.207 -0.1255  0.1847 -0.1240
67836W        W10852   3.058   2.851  20.178 -0.0824 -0.0019  0.1235
67837W        W10853  28.776  31.207  27.655  0.4912 -0.0278 -0.1367
67838W        W10854  18.018  16.767  19.065 -0.0053 -0.0560  0.0634
67839W        W10855   1.421   6.012  15.458 -0.1409  0.2246  0.1123
67840W        W10856  18.342  13.841  22.724 -0.1087  0.2781 -0.2638
67841W        W10857   6.101  19.014  14.840  0.1269  0.0523 -0.1464
67842W        W10858  13.445  26.495  24.751 -0.0479 -0.2602  0.2325
67843W        W10859  15.342  27.040  16.469 -0.1736 -0.1043  0.2227
67844W        W10860   3.721  11.553  25.140 -0.0194  0.1214 -0.1421
67845W        W10861  22.622  31.725  19.912 -0.4667  0.1541  0.1280
67846W        W10862  18.593   4.790  19.805  0.2398  0.1335 -0.2269
67847W        W10863  16.496  29.064  14.988  0.0870 -0.1611  0.2725
67848W        W10864  26.634  22.250   3.343  0.1859  0.1167  0.2969
67849W        W10865  16.570  11.031  17.929  0.0504  0.0758  0.2853
67850W        W10866   9.028  29.056  16.489 -0.2458 -0.1512  0.0927
67851W        W10867  11.029  27.110  16.579  0.0817 -0.3355  0.3000
67852W        W10868  18.102  29.628  28.611 -0.1990 -0.1081  0.1403
67853W        W10869  20.270  26.628  24.663 -0.2015  0.1366  0.1147
67854W        W10870   9.160  34.362  14.041  0.0419  0.0026 -0.2756
67855W        W10871  21.828  30.023  18.161 -0.1286 -0.1200 -0.2976
67856W        W10872  12.143  31.946  17.078  0.1111  0.1538  0.2707
67857W        W10873  33.023   2.923  14.971 -0.1509 -0.0887 -0.1006
67858W        W10874  16.636  27.835  27.617 -0.1432  0.1699  0.0903
67859W        W10875  32.076  15.946  16.115  0.1831 -0.0378  0.2141
67860W        W10876   4.744   5.569  22.280  0.0556  0.1019 -0.0625
67861W        W10877  15.226  30.143  19.939  0.4160 -0.0883 -0.0358
67862W        W10878  27.725  16.574  16.476 -0.0078  0.1778  0.2400
67863W        W10879   6.147  23.003  22.184 -0.0326 -0.2486  0.0523
67864W        W10880  12.307   0.438  20.302 -0.1477  0.0346  0.0819
67865W        W10881  15.270   4.014   5.071 -0.0856 -0.0801  0.0371
67866W        W10882  21.530   3.105  15.923  0.1133 -0.3064 -0.0128
67867W        W10883   1.640  33.225  18.553  0.2087 -0.1816 -0.0493
67868W        W10884  17.866  12.791   5.568  0.2084 -0.1492  0.1559
67869W        W10885  31.737  27.842  17.567 -0.1068 -0.1391 -0.0349
67870W        W10886  21.435  31.834   6.299 -0.0548 -0.2312 -0.1208
67871W        W10887   7.194   9.714  21.641  0.2879  0.2799  0.1256
67872W        W10888  25.197  25.017  26.414  0.5251 -0.0726  0.0686
67873W        W10889  15.139   6.173  14.035 -0.2598  0.0161 -0.2364
67874W        W10890  12.150   3.053  28.708 -0.2110  0.0203  0.1140
67875W        W10891  23.652  25.986  19.409 -0.2759  0.0053  0.3081
67876W        W10892  20.398  28.939  19.161 -0.4082  0.0087  0.1361
67877W        W10893  16.702   2.935   0.109  0.1987 -0.0948  0.2507
67878W        W10894   1.507   0.287  26.491 -0.0636 -0.3412  0.2572
67879W        W10895   9.447  29.009  15.147 -0.0761  0.2663 -0.1679
67880W        W10896   1.587  30.230  19.637  0.1269  0.3521 -0.2787
67881W        W10897   6.427  30.997  22.495 -0.1485  0.1280 -0.0244
67882W        W10898  15.930  13.887  24.348 -0.0977  0.1087 -0.0674
67883W        W10899  18.341  21.496  25.235 -0.0470 -0.0101 -0.2117
67884W        W10900  15.360   7.452   1.149  0.0913 -0.1348  0.0252
67885W        W10901  13.218   2.069  17.404 -0.0583  0.0125  0.0206
67886W        W10902  32.798  12.446  26.991  0.0988  0.1304 -0.0151
67887W        W10903  20.102   2.354  29.042 -0.2568  0.2386  0.1991
67888W        W10904  32.500  32.008   2.214 -0.2452  0.1019 -0.0491
67889W        W10905  13.593  17.257  15.068 -0.3159 -0.0755 -0.5137
67890W        W10906   3.086  10.384  27.912  0.1517  0.0800 -0.1304
67891W        W10907  15.269  31.454  22.244 -0.2923  0.1494  0.0501
67892W        W10908   0.942  18.085   2.940 -0.2327 -0.0583 -0.1383
67893W        W10909   0.644  30.994  26.893  0.1326 -0.1399  0.0076
67894W        W10910  19.174  31.569   6.487 -0.0350 -0.0574  0.0320
67895W        W10911  12.869  14.264   8.027 -0.1027  0.1802 -0.0106
67896W        W10912  10.264  23.738  22.554  0.0460  0.1430 -0.3375
67897W        W10913  26.452  19.192  14.507  0.1104  0.0606  0.3217
67898W        W10914  15.593  24.404  23.273 -0.1810  0.1027  0.0447
67899W        W10915  17.631  10.475   3.828 -0.0281 -0.1302  0.4924
67900W        W10916  10.474   9.665  24.690  0.3616  0.0028  0.1630
67901W        W10917  13.223   5.787  26.492  0.3189 -0.1529 -0.0162
67902W        W10918  34.226   6.341  18.315 -0.0678  0.1486 -0.0302
67903W        W10919  14.904  13.671   3.408 -0.0952  0.0409 -0.1429
67904W        W10920  13.239   3.060  19.348  0.0027  0.2330 -0.0276
67905W        W10921  14.497   8.566  16.085  0.2051 -0.0131 -0.1939
67906W        W10922  15.647   1.694  26.388 -0.4100  0.3472  0.1793
67907W        W10923  18.876  34.081  21.422 -0.0299  0.0116  0.0498
67908W        W10924  32.126   0.342   0.348  0.2115  0.0691 -0.0622
67909W        W10925  12.814   2.982  24.645 -0.0802  0.1770  0.1028
67910W        W10926  19.741  33.949   0.211 -0.3832  0.2104  0.0803
67911W        W10927  11.746  13.522  14.064 -0.1435  0.4268  0.1989
67912W        W10928   3.117   8.060  16.048  0.0365 -0.1657 -0.1795
67913W        W10929  14.791  34.007  29.083 -0.0633  0.1154 -0.1623
67914W        W10930  20.352   8.197  15.533  0.2607 -0.1458  0.3365
67915W        W10931  13.993  10.158  14.152 -0.1366  0.0060  0.1109
67916W        W10932  23.520   8.708  18.760  0.1623  0.1022 -0.0340
67917W        W10933  27.187  21.588  23.465 -0.0246  0.0794 -0.2354
67918W        W10934  15.688   8.274  15.888  0.1774 -0.1536 -0.2808
67919W        W10935   9.700  12.396  17.295 -0.0935 -0.3097  0.0500
67920W        W10936  19.888  34.188   3.235  0.0386 -0.1815 -0.1775
67921W        W10937  24.780   5.136  23.169 -0.0992  0.0120 -0.0442
67922W        W10938   8.423   3.707  25.959  0.2834 -0.0122  0.0194
67923W        W10939  11.962   7.017   7.171 -0.0384 -0.0697 -0.1120
67924W        W10940  25.975  27.568  17.036 -0.0551 -0.0935  0.0196
67925W        W10941  13.940   5.485   7.096 -0.0118 -0.4749 -0.1092
67926W        W10942  17.198   9.079  21.706  0.1231  0.3031  0.1579
67927W        W10943  20.110   0.826  22.238  0.1386 -0.2132 -0.0880
67928W        W10944   3.302  19.288  21.131  0.0017  0.1608  0.3231
67929W        W10945  16.582  10.403  28.091 -0.0797 -0.1840 -0.3489
67930W        W10946  14.878   4.029  25.523  0.2546 -0.1642  0.2452
67931W        W10947  11.297  33.235  16.938 -0.1166  0.1488  0.0335
67932W        W10948  10.432   4.046  23.908  0.0975  0.0765  0.1285
67933W        W10949  30.217  31.796  25.014 -0.0535  0.0887  0.2332
67934W        W10950  15.911  28.536  26.123 -0.1607  0.1439  0.2548
67935W        W10951  26.548  31.733   2.616  0.0767 -0.0338 -0.0801
67936W        W10952   8.283   4.517  28.809 -0.2271  0.0592 -0.1663
67937W        W10953  12.802   2.515   4.345  0.0702  0.0930 -0.1507
67938W        W10954   1.889   2.355  25.216  0.1711 -0.2002  0.1754
67939W        W10955  25.162  32.104  21.328  0.2372 -0.3152  0.0361
67940W        W10956   9.443  22.028  25.997  0.1989  0.1395  0.2477
67941W        W10957  14.650   1.602  17.136  0.1763  0.0840  0.2817
67942W        W10958  10.974  25.422  17.143 -0.3217 -0.0056 -0.0816
67943W        W10959   2.726  29.493   0.626 -0.0204 -0.2530  0.2576
67944W        W10960  25.398   0.536   7.576 -0.0303 -0.1334 -0.0589
67945W        W10961  19.990  11.629  24.120 -0.0282  0.0565  0.0187
67946W        W10962  11.333  14.342   9.203 -0.3595  0.1554  0.1535
67947W        W10963  25.214  11.858  16.729  0.1822  0.0461 -0.1363
67948W        W10964  24.409   8.078  20.958 -0.2624 -0.0572 -0.0899
67949W        W10965   5.299   3.034  21.729  0.2472  0.1993  0.1012
67950W        W10966  17.044   3.774  17.396  0.2161  0.4269 -0.0739
67951W        W10967  22.067  32.652  27.301  0.0264 -0.3068  0.1033
67952W        W10968   7.163  10.134  16.562  0.0600  0.1891  0.4204
67953W        W10969   4.496  32.437  19.179  0.0398 -0.1800  0.0954
67954W        W10970  25.860  26.064  25.718  0.4854 -0.1058  0.1643
67955W        W10971  31.903  34.199  25.705  0.1520 -0.1488 -0.1078
67956W        W10972   4.412  10.256  22.219 -0.0506 -0.1541  0.1939
67957W        W10973   6.711  34.407  15.338 -0.0637 -0.1749  0.2543
67958W        W10974   4.203  20.348  28.653  0.0106  0.0591  0.1028
67959W        W10975   9.103  23.167  24.785  0.2067 -0.1357 -0.1097
67960W        W10976  14.511  28.749  14.183 -0.2641  0.0615 -0.2870
67961W        W10977  12.602  29.417  25.475  0.0259  0.2669 -0.0230
67962W        W10978  33.128   0.713   5.023  0.2097 -0.0517 -0.1659
67963W        W10979   3.345   1.172  17.655  0.0528 -0.3520  0.3373
67964W        W10980  11.667  26.479  25.313 -0.1599  0.1807 -0.2727
67965W        W10981  12.908  28.764  15.291  0.0498  0.1048  0.3986
67966W        W10982  18.117   2.818   1.204  0.0394 -0.0457 -0.1643
67967W        W10983  19.696   7.076  23.272  0.0553  0.2242 -0.0981
67968W        W10984  21.801  30.387  18.715  0.0250 -0.1341 -0.0336
67969W        W10985  25.978  11.840  25.771 -0.1817  0.0723 -0.1572
67970W        W10986   7.503  33.878  18.271 -0.2791  0.0213  0.0193
67971W        W10987  25.779   8.782  20.818  0.3503  0.1368 -0.2939
67972W        W10988  16.714  34.440  18.295  0.2695  0.0234 -0.2014
67973W        W10989  31.425  33.887  18.037 -0.2080  0.2648  0.0066
67974W        W10990  14.082  25.561  14.547  0.0886  0.0102 -0.0012
67975W        W10991  12.891  11.656  26.485 -0.0111  0.0778  0.1088
67976W        W10992   7.261  32.654  21.578  0.0881 -0.0250  0.2660
67977W        W10993  12.331  22.238  16.419 -0.3076 -0.2697  0.3240
67978W        W10994  16.076  26.889  19.033 -0.3714 -0.1267 -0.2018
67979W        W10995  23.830   7.905  24.598  0.0697  0.0051 -0.1045
67980W        W10996  10.230   5.856   2.516  0.2735  0.0954 -0.0090
67981W        W10997   6.761  15.982  14.752 -0.1417  0.0435  0.1136
67982W        W10998  24.295  22.242  28.324  0.3597  0.2068 -0.0315
67983W        W10999  19.877  21.195  23.564 -0.0404 -0.2338  0.0035
67984W        W11000   2.216  30.221   1.014 -0.3115 -0.2309  0.1190
67985W        W11001  19.165  34.011  17.032 -0.1666 -0.1517 -0.2956
67986W        W11002  12.185  22.047  25.624  0.0723 -0.0335 -0.0436
67987W        W11003  12.790  33.143   3.487  0.0114  0.0452  0.1589
67988W        W11004  11.889  21.262  25.260  0.2534 -0.1524 -0.3190
67989W        W11005   8.741  20.985  25.178  0.2283 -0.2806  0.2017
67990W        W11006  11.802   2.074  16.434  0.2494  0.1220  0.1819
67991W        W11007  17.812  32.254   0.360 -0.3293 -0.1811 -0.1205
67992W        W11008  11.345  10.470   1.853 -0.0703 -0.0425  0.1233
67993W        W11009  10.847  24.660  26.348 -0.1262 -0.0911 -0.1482
67994W        W11010  18.607  32.283  14.725  0.0559 -0.1696 -0.0398
67995W        W11011   9.155  31.669   5.512 -0.1245 -0.2681 -0.1595
67996W        W11012  11.026   5.566  19.228  0.1812 -0.1266 -0.0792
67997W        W11013  28.272   6.183  26.788  0.1754  0.0904 -0.1479
67998W        W11014  13.096  30.282  14.942  0.0106 -0.2381 -0.3075
67999W        W11015  29.411   2.331  10.694  0.1665 -0.1003  0.2272
68000W        W11016  17.576  11.531  26.960  0.1360  0.1161 -0.0411
68001W        W11017  27.578   0.885  17.274  0.1999  0.2592 -0.0614
68002W        W11018  18.930   3.246   5.826  0.0895  0.0050 -0.0757
68003W        W11019  29.152  10.177  22.274  0.0573 -0.1341 -0.2918
68004W        W11020   7.853  15.907  27.981 -0.4002  0.0557  0.0669
68005W        W11021  12.557   9.517  20.296  0.1551 -0.3597  0.0522
68006W        W11022  11.468  13.484  27.829  0.0675 -0.1154 -0.2959
68007W        W11023  22.058  29.828  23.453  0.4189 -0.0554  0.1183
68008W        W11024  28.301  26.012  29.191  0.1964  0.0154  0.0587
68009W        W11025  25.950   0.277  16.015  0.1425  0.1003 -0.1921
68010W        W11026   0.932   0.468  14.340  0.3958 -0.3577  0.1436
68011W        W11027  17.753  29.720  23.047 -0.0234 -0.1466 -0.0671
68012W        W11028  28.208  33.490  24.634  0.2560  0.2541  0.0173
68013W        W11029  19.392   5.418  17.170  0.2260  0.0534  0.3761
68014W        W11030   6.425  34.417  20.812  0.2783  0.0646 -0.1330
68015W        W11031   4.433   8.882  17.916  0.0173 -0.0912  0.1157
68016W        W11032  12.067   2.451  15.312 -0.1504  0.1512 -0.2660
68017W        W11033   8.397  11.730  19.111  0.0552  0.2147 -0.0835
68018W        W11034  31.406  15.470  22.136 -0.1606  0.0981  0.1688
68019W        W11035   8.300  19.649  23.486 -0.2421 -0.2144  0.0579
68020W        W11036  13.165   7.936  16.265 -0.0635 -0.1539 -0.1551
68021W        W11037   8.049  29.116  27.266 -0.1202  0.0537  0.1634
68022W        W11038  29.034   3.438  25.954 -0.1632 -0.0317 -0.2178
68023W        W11039   8.827  21.235   3.139 -0.0122 -0.1549  0.3398
68024W        W11040  19.020  21.579  15.216  0.1751  0.0100  0.0872
68025W        W11041  25.012   2.304  23.261 -0.1625 -0.3959 -0.0058
68026W        W11042  29.668  33.773   4.254 -0.0652 -0.0134  0.1020
68027W        W11043  26.194  30.056   9.535  0.0077  0.0268 -0.1601
68028W        W11044   5.158   3.604  19.746 -0.2141  0.2015  0.0048
68029W        W11045  32.003  31.123  17.210  0.5124  0.3280 -0.2635
68030W        W11046   9.988   5.018  22.119  0.2924  0.1938 -0.0134
68031W        W11047  11.818   5.710  27.454  0.0158  0.0398  0.1207
68032W        W11048  10.827  33.881  16.103 -0.0812  0.2501 -0.1356
68033W        W11049  25.945   2.955   5.127  0.0131 -0.0259  0.1333
68034W        W11050  17.978   7.437  21.905  0.0771 -0.1988  0.3358
68035W        W11051  21.975  15.270  14.800  0.1381 -0.3761  0.1677
68036W        W11052  23.663  11.561  17.625  0.0414 -0.3872 -0.0195
68037W        W11053   7.725  30.836   4.813 -0.1771  0.2091 -0.1569
68038W        W11054   1.456   7.524  17.322  0.1312  0.4147  0.1747
68039W        W11055  26.976  34.114  25.777 -0.0161 -0.3393  0.0537
68040W        W11056  10.206  14.421  25.332 -0.3002 -0.1248 -0.2660
68041W        W11057  23.451  12.077  14.894  0.0802  0.2003 -0.1910
68042W        W11058   8.107  14.432  19.931  0.2159  0.2557 -0.2081
68043W        W11059  31.759  28.212  26.240 -0.0403 -0.0197  0.0423
68044W        W11060  17.558   3.599   8.363 -0.0032  0.1263 -0.1513
68045W        W11061  15.242   1.754  27.885 -0.0482  0.3074  0.0291
68046W        W11062   8.225  30.381  19.652  0.0135  0.0082 -0.1633
68047W        W11063  22.653  21.617  14.761 -0.0455 -0.0695  0.1101
68048W        W11064   9.128   0.718  15.514  0.1838 -0.1949  0.1469
68049W        W11065  26.503   5.647  18.928 -0.1360  0.2293  0.1491
68050W        W11066  31.499   4.164   5.307  0.1361 -0.4552  0.1345
68051W        W11067   6.812  15.198  22.765 -0.0878 -0.1240 -0.1476
68052W        W11068  24.851  11.846  21.239 -0.1227 -0.4679  0.0718
68053W        W11069  25.803  31.450  26.504  0.0058  0.2355 -0.0650
68054W        W11070   1.545   5.537  15.235 -0.1933  0.1956  0.2072
68055W        W11071  10.156  26.922  14.455  0.2961  0.0405  0.3680
68056W        W11072  24.431  17.774   2.738  0.0605 -0.0476  0.0369
68057W        W11073  20.476  11.825   5.082  0.2589 -0.0340  0.1220
68058W        W11074  16.639  27.238  23.689  0.1726  0.0015  0.0961
68059W        W11075  20.651  15.176  26.659 -0.2825  0.1209  0.4040
68060W        W11076  26.740  32.008  26.021 -0.2404 -0.0399  0.1712
68061W        W11077   1.639  13.637  21.455 -0.0436 -0.2034 -0.2305
68062W        W11078  20.735   7.395   2.272  0.2221 -0.1962 -0.3150
68063W        W11079  12.821   5.622  24.388 -0.2345 -0.0905 -0.1070
68064W        W11080  27.785  18.988   3.747 -0.1931 -0.1785  0.2352
68065W        W11081  24.537  21.058   1.756  0.4248  0.2199  0.2495
68066W        W11082  22.178  18.363   4.100 -0.0867  0.3536  0.3038
68067W        W11083  30.752   7.407  16.844  0.3174  0.4583  0.1537
68068W        W11084  27.349  31.241  18.932 -0.2400 -0.2167  0.0840
68069W        W11085  13.049  34.002   6.519 -0.0233 -0.1818 -0.0723
68070W        W11086  10.197   2.315  17.978 -0.0350 -0.1230 -0.0322
68071W        W11087  19.910  21.517  17.854  0.3836 -0.1301 -0.3558
68072W        W11088  11.470  30.689  23.400  0.2412  0.0141  0.2440
68073W        W11089  17.540   0.665  23.909  0.1036  0.4294 -0.1270
68074W        W11090  26.051  13.738  22.146 -0.1055  0.3019 -0.1948
68075W        W11091  16.367   6.738  19.612 -0.1078 -0.2122 -0.1441
68076W        W11092  11.984  13.477  20.477 -0.2658  0.0128 -0.0770
68077W        W11093  26.122  34.400  17.476 -0.0977  0.1022  0.3009
68078W        W11094  12.085  18.367  13.112 -0.1597 -0.4103  0.1038
68079W        W11095  32.709   9.989   0.535 -0.0254 -0.1081 -0.1937
68080W        W11096  10.800  33.802  18.168 -0.0746  0.1602 -0.1473
68081W        W11097  14.678   5.697  18.002 -0.1777  0.1019  0.0726
68082W        W11098  14.108  31.467  25.564 -0.1350 -0.1170  0.0958
68083W        W11099  14.668  10.437  18.415 -0.0185 -0.1174  0.3275
68084W        W11100  15.036   6.846  17.166  0.1495 -0.0974  0.2087
68085W        W11101  12.732   0.445  22.611  0.1800 -0.1495  0.0680
68086W        W11102  22.843  31.558  10.336 -0.3794 -0.0727  0.0314
68087W        W11103  17.289  29.720  24.736  0.0338 -0.2289 -0.2608
68088W        W11104  17.380  28.800  20.191  0.0230 -0.2291 -0.0179
68089W        W11105  13.771   0.376  21.887 -0.2123  0.3028 -0.4274
68090W        W11106  12.102   1.739  18.923 -0.3468  0.1037  0.2681
68091W        W11107   5.834   6.980  26.144 -0.2210  0.5010  0.3490
68092W        W11108  29.571  31.264  22.106 -0.0964 -0.1698  0.3190
68093W        W11109  19.258  27.591  17.331 -0.1281 -0.3254  0.0949
68094W        W11110  15.699   4.273  19.089 -0.1810 -0.0330  0.0902
68095W        W11111  18.126  11.218  19.866 -0.0510 -0.0953  0.0739
68096W        W11112  21.224  23.149  26.566  0.0179  0.0420 -0.0601
68097W        W11113  30.090  34.022  25.513 -0.1037  0.0490 -0.1910
68098W        W11114  16.276  29.323   0.226 -0.0075  0.0758 -0.0177
68099W        W11115  30.073   9.069  25.597 -0.1558 -0.0889  0.1188
68100W        W11116   4.183  21.272  14.587  0.4253  0.1788 -0.1925
68101W        W11117   3.155  24.770  14.592 -0.3160  0.1601  0.0372
68102W        W11118  21.449   5.685   4.683 -0.1745 -0.0204  0.1073
68103W        W11119  17.366  31.576  26.548  0.0753 -0.0414  0.1373
68104W        W11120  17.280  25.869  22.931 -0.1223 -0.1262 -0.0381
68105W        W11121  10.134   6.425  24.904  0.1417 -0.2673 -0.1453
68106W        W11122  16.305   9.047  20.723  0.0389 -0.1428  0.1354
68107W        W11123  34.403   2.023  14.719  0.2249  0.1084  0.0319
68108W        W11124  22.838  33.361  25.231  0.1451 -0.3115  0.1843
68109W        W11125  17.299  34.077  19.356  0.1488  0.3573  0.2426
68110W        W11126  24.117  11.139  20.284  0.1833  0.1899 -0.3780
68111W        W11127  18.384   3.102  21.488  0.0728  0.2073 -0.1491
68112W        W11128  19.374  10.584  16.130 -0.3252  0.0928 -0.0624
68113W        W11129  34.075   6.797  25.925  0.0252  0.0307  0.0863
68114W        W11130   1.885  20.814  26.578  0.0232 -0.1117 -0.1023
68115W        W11131  33.686   5.301  28.443 -0.2612 -0.1792  0.0189
68116W        W11132  15.194   2.013   3.609  0.1474 -0.0854 -0.0136
68117W        W11133   3.756  17.990  20.987  0.0463 -0.2762  0.3625
68118W        W11134  13.424  31.609  26.263 -0.5457  0.0848  0.2546
68119W        W11135  24.296  31.523  19.952 -0.2308 -0.0643  0.0531
68120W        W11136   4.182  30.792  15.204  0.1827  0.0650  0.0220
68121W        W11137  15.109  30.467  22.223 -0.1527 -0.1875 -0.2845
68122W        W11138  18.488  10.660  25.540  0.2083  0.0833 -0.0456
68123W        W11139  15.992   1.504  18.862  0.0632  0.3123 -0.4086
68124W        W11140  11.256  33.107  15.679  0.0207  0.0358 -0.2821
68125W        W11141   9.253   7.829   2.004 -0.0063 -0.3717  0.0128
68126W        W11142  28.433  19.239  17.718  0.2557  0.1011  0.1671
68127W        W11143  21.468   6.623  29.265  0.3319  0.0197 -0.1869
68128W        W11144  18.678  13.972  13.304 -0.3125 -0.2379  0.1590
68129W        W11145  26.515   9.181   0.677  0.0566 -0.0625  0.2386
68130W        W11146  24.297  34.504  21.657  0.1678  0.1622 -0.1148
68131W        W11147  31.650  13.934  19.380 -0.1135 -0.1360 -0.0835
68132W        W11148  29.454   0.585  21.334 -0.1948 -0.0077 -0.0258
68133W        W11149  24.612  22.605  15.170  0.2258  0.0397 -0.1837
68134W        W11150  21.981   0.823  20.845 -0.0918 -0.0040  0.2826
68135W        W11151  11.198  32.734  22.254  0.0674 -0.3131 -0.0388
68136W        W11152   8.663   8.136   3.192  0.0929 -0.0111 -0.2266
68137W        W11153   5.443  13.107  13.622 -0.1050  0.0889  0.0685
68138W        W11154   8.801   5.979  22.040  0.1271 -0.0170  0.0838
68139W        W11155   9.504  10.367  18.102  0.0658 -0.2329  0.0871
68140W        W11156  26.501  31.837  20.681  0.2065 -0.1549  0.3249
68141W        W11157   7.439   6.282  28.767  0.0336  0.3530  0.1528
68142W        W11158   3.442   3.109  27.173 -0.1262 -0.0581 -0.3576
68143W        W11159  23.486  24.703   6.532  0.0068  0.0289 -0.0506
68144W        W11160  11.139  14.728  13.926 -0.3798 -0.0115 -0.0725
68145W        W11161  19.042   7.291  27.717 -0.3832  0.1044 -0.0993
68146W        W11162  24.563  12.504  14.177 -0.1464  0.0666 -0.1824
68147W        W11163   9.772   3.843  25.235 -0.0249 -0.0168  0.0163
68148W        W11164  32.106   4.664  16.842 -0.2073 -0.1469 -0.2072
68149W        W11165  26.437  30.015   3.456 -0.0083  0.1644  0.0269
68150W        W11166   9.211   0.153   2.416  0.0520 -0.1166 -0.2346
68151W        W11167  17.302  22.351  24.201 -0.0318 -0.2099 -0.0532
68152W        W11168   2.374  14.989  16.339 -0.1608 -0.3715  0.2394
68153W        W11169  24.185   5.843  19.527 -0.0845 -0.0990  0.1045
68154W        W11170   5.790   5.525   3.337 -0.0938  0.3461  0.0358
68155W        W11171  18.039   9.790   3.075 -0.1876  0.1220  0.0509
68156W        W11172  18.084  31.329  19.519  0.0589  0.2091  0.1715
68157W        W11173  18.763  15.580  14.557 -0.3362  0.1507  0.1533
68158W        W11174  18.016   3.961  17.060  0.0275 -0.0558 -0.1198
68159W        W11175  17.304  32.969   5.723  0.0318 -0.1327  0.0918
68160W        W11176  25.275   4.941   1.497  0.2405  0.6419  0.1825
68161W        W11177  24.533   0.188  27.058 -0.3174 -0.1806 -0.0064
68162W        W11178  13.570   5.606  16.551 -0.1971  0.3508 -0.0792
68163W        W11179  18.857  11.298  15.778  0.2721 -0.1500 -0.0803
68164W        W11180  34.776  23.397  21.273  0.2017  0.0465  0.2842
68165W        W11181   9.485  13.489  24.661 -0.2821 -0.0168  0.0676
68166W        W11182   6.048  25.695  16.021 -0.0146 -0.2075 -0.1336
68167W        W11183   9.261  33.986   8.630  0.1744 -0.1971 -0.0026
68168W        W11184  15.137  11.272  24.367  0.0519  0.0525  0.0128
68169W        W11185  25.870  33.798  20.306 -0.0997  0.3700 -0.4455
68170W        W11186   9.543   9.359   2.252  0.0677 -0.0853  0.0983
68171W        W11187   8.601  28.434  27.034 -0.1842  0.0107 -0.3138
68172W        W11188   8.320  32.772  16.731 -0.2052  0.0392 -0.1122
68173W        W11189  34.594   1.574   2.307  0.2972  0.0072  0.1012
68174W        W11190  23.394   0.145  14.985 -0.1327  0.2619  0.0426
68175W        W11191  15.654  32.768   6.235  0.3146 -0.0507  0.0806
68176W        W11192  30.863   1.146  26.053 -0.0501  0.0393  0.3522
68177W        W11193  27.419   4.502  15.704  0.3497 -0.1401 -0.0734
68178W        W11194  22.799   2.228  28.327 -0.0110 -0.0331 -0.0234
68179W        W11195  31.054   3.888  24.028 -0.1522  0.1131  0.0834
68180W        W11196  26.556   6.131  27.932  0.3070  0.0088 -0.0962
68181W        W11197  25.435   6.582  20.016 -0.0146  0.0570 -0.0787
68182W        W11198  15.800  31.893  17.385  0.0261 -0.2315 -0.1711
68183W        W11199  20.311   0.083  27.801 -0.0474  0.0024  0.1401
68184W        W11200  11.167  21.530  13.564 -0.0539  0.0240 -0.0002
68185W        W11201  24.614  25.336  28.493  0.4001 -0.1426  0.0463
68186W        W11202  10.301   2.711  26.524  0.0370 -0.1970  0.0511
68187W        W11203  28.238  12.412  17.580  0.2963  0.2443 -0.1874
68188W        W11204  15.223   2.744  21.279  0.2296 -0.2185 -0.0943
68189W        W11205  16.579  34.270  15.476  0.0223 -0.2550  0.1417
68190W        W11206  29.059  28.545  15.625 -0.0878  0.1875 -0.2295
68191W        W11207  30.666  18.173  26.560  0.1211 -0.0934 -0.0521
68192W        W11208  26.326   1.935  16.263  0.4368  0.1590  0.1768
68193W        W11209  21.764  33.023  27.510 -0.0554 -0.0563 -0.0137
68194W        W11210   9.297  22.848  15.135  0.0973 -0.1634 -0.0885
68195W        W11211  10.451   9.246  23.260  0.0460  0.0687 -0.0044
68196W        W11212  27.619  20.427  28.834  0.0610  0.2260 -0.0029
68197W        W11213  21.248  24.164   7.501  0.0661 -0.1666  0.1619
68198W        W11214   0.938  12.170  18.342  0.3576  0.0409 -0.0337
68199W        W11215  11.259   4.591   5.133  0.3807  0.2950 -0.0937
68200W        W11216  13.897  25.293   4.135 -0.0694  0.1241 -0.3087
68201W        W11217  19.044  30.442  18.683 -0.1173  0.2294  0.1633
68202W        W11218  15.416  26.857  19.605  0.0848  0.2076 -0.3304
68203W        W11219  23.590  19.250  23.655  0.2097  0.2197  0.3512
68204W        W11220  16.916   2.460  18.601  0.3344  0.1169  0.1404
68205W        W11221  33.281   6.516  26.099  0.0230  0.1577  0.1226
68206W        W11222  10.763  19.661  21.200  0.0556  0.0432 -0.1573
68207W        W11223  14.142   2.285  24.531  0.0779  0.1978 -0.0155
68208W        W11224  21.003   2.710  17.739 -0.1469  0.1948 -0.1229
68209W        W11225  18.494  32.027   3.546  0.0922  0.1374  0.1152
68210W        W11226   2.048   5.457  16.662 -0.2700 -0.0161 -0.1618
68211W        W11227  15.391  15.077  27.506 -0.1428  0.1085  0.0643
68212W        W11228  25.246  29.401  26.000  0.0477  0.4387  0.1219
68213W        W11229  32.979  30.582   1.125  0.1671 -0.4984  0.4093
68214W        W11230   8.070  15.879  29.301 -0.1808  0.0335 -0.3378
68215W        W11231  18.163  30.114  28.478  0.3324  0.0098 -0.0960
68216W        W11232  18.947  30.576   1.303  0.2984  0.1175  0.1059
68217W        W11233  16.115  34.336  29.207 -0.1126  0.0118  0.0828
68218W        W11234  24.960  33.134  10.281 -0.1127  0.0753  0.1281
68219W        W11235  20.886   5.508  25.970 -0.3486 -0.3125  0.3242
68220W        W11236  18.719   5.803  25.774  0.2929 -0.0034  0.3072
68221W        W11237  17.258  28.740   3.604  0.2595 -0.1204 -0.1691
68222W        W11238  14.909  26.749  26.879 -0.0708 -0.1521  0.0032
68223W        W11239  14.251  14.096  13.389  0.2465  0.0713  0.0287
68224W        W11240  14.177   0.210   4.775  0.5383 -0.0410  0.1153
68225W        W11241  11.986  11.169  18.318  0.1467  0.0598 -0.1060
68226W        W11242   8.882  27.312  15.191  0.5436 -0.3768 -0.0757
68227W        W11243  18.734  10.033   1.234 -0.0732  0.1558  0.0484
68228W        W11244  22.653  34.103  27.971 -0.0433 -0.0394  0.0971
68229W        W11245   3.062  14.158  14.455  0.0822 -0.0168 -0.4489
68230W        W11246  11.929  11.141  27.556  0.0872 -0.0929 -0.1124
68231W        W11247   5.050   5.117  18.311  0.0415 -0.3536 -0.2582
68232W        W11248  19.845  10.201  12.520 -0.3200 -0.3294  0.0617
68233W        W11249  13.335  32.985  19.119  0.0694 -0.0143 -0.2131
68234W        W11250   4.697  19.654  15.909  0.0321  0.0681  0.0009
68235W        W11251  27.447   5.952  24.935 -0.2010  0.1983 -0.0134
68236W        W11252   7.038   8.685  24.724 -0.0752 -0.1489 -0.0002
68237W        W11253  13.570   8.676  25.955 -0.2856  0.2040 -0.1744
68238W        W11254  21.222   0.950   3.825  0.2311 -0.0573 -0.0014
68239W        W11255  11.484  14.080  20.970  0.0870 -0.1677 -0.2096
68240W        W11256  30.097  27.610  16.366 -0.0641  0.0330  0.3935
68241W        W11257  16.512  26.966  19.428  0.2225  0.1845  0.3320
68242W        W11258   7.831  29.295  15.885 -0.0330 -0.0664 -0.1332
68243W        W11259  31.948  32.053  23.111 -0.1932  0.0975  0.0015
68244W        W11260   7.815   0.985  22.979  0.2934 -0.0340  0.3064
68245W        W11261  18.982  32.787  18.543 -0.1071 -0.2181 -0.0424
68246W        W11262  23.553   1.128  25.325  0.0883  0.0692  0.2504
68247W        W11263   9.183  15.499  16.942  0.0933  0.0584  0.1585
68248W        W11264  29.926  28.125  24.347 -0.0353  0.0222  0.0464
68249W        W11265  25.099  27.007  19.258  0.2927  0.1304  0.1634
68250W        W11266  13.782  31.672  20.086  0.1162 -0.0624 -0.3193
68251W        W11267  15.102  28.709  20.298  0.1681 -0.2377 -0.1421
68252W        W11268   4.227  24.801  20.975  0.1211 -0.1156  0.0631
68253W        W11269  21.285  26.594   3.702 -0.2665  0.2194  0.0933
68254W        W11270  25.618  21.440  22.489  0.0969  0.1102  0.0342
68255W        W11271  31.487   6.581  20.868 -0.2995  0.0592  0.0312
68256W        W11272  17.700  32.826  28.307  0.2189  0.0906 -0.2151
68257W        W11273  31.900   2.515  18.592  0.2498 -0.4976 -0.1500
68258W        W11274  28.077  11.160  22.396  0.0098 -0.2967  0.0884
68259W        W11275  34.329  10.550  26.530 -0.0365  0.1296 -0.1794
68260W        W11276  14.598  11.510  15.162 -0.0283  0.1195 -0.0025
68261W        W11277  22.530  13.953  27.128  0.0567 -0.1219 -0.1559
68262W        W11278   0.660  15.483   0.746 -0.0799  0.0602 -0.0427
68263W        W11279  19.737  19.803   0.880 -0.2865  0.2285  0.0916
68264W        W11280   6.659  31.759  22.241  0.1453 -0.1256  0.2529
68265W        W11281   8.972  27.857  18.543  0.1554 -0.1014 -0.0566
68266W        W11282  14.474  25.081  24.836 -0.2098  0.0350  0.0212
68267W        W11283   7.767   4.329  16.651 -0.1681 -0.3201  0.2238
68268W        W11284  15.766   9.265  20.785  0.0199 -0.1141 -0.0537
68269W        W11285  29.782  30.056   1.384 -0.1614 -0.1574  0.1549
68270W        W11286  28.929   3.983  21.539  0.0221 -0.0232 -0.0790
68271W        W11287   3.387  34.458  27.815  0.1364 -0.2686 -0.0031
68272W        W11288  13.406  12.885  27.721 -0.0002  0.3625 -0.3094
68273W        W11289  31.454  12.901   0.601  0.0557  0.0098 -0.2413
68274W        W11290   0.937   1.779  27.427 -0.0371 -0.2110 -0.4294
68275W        W11291  31.142   5.902  27.886  0.0038  0.0700  0.0472
68276W        W11292   0.318  28.475  22.633 -0.5071  0.0193  0.0248
68277W        W11293   5.411   8.543  19.943 -0.4210 -0.0816  0.0604
68278W        W11294  20.640   3.955   8.156 -0.3226 -0.1138 -0.0339
68279W        W11295  25.662   7.452  19.283  0.2758  0.0848 -0.0371
68280W        W11296  28.571  27.859  17.113 -0.1939  0.0002 -0.1024
68281W        W11297  14.250  10.960  17.338 -0.0323  0.0798  0.0155
68282W        W11298   8.644   8.213  15.410  0.0678 -0.0839 -0.3406
68283W        W11299  15.586  24.534  22.369  0.0811  0.1054 -0.2416
68284W        W11300  16.276   5.354  22.543  0.0747  0.1925  0.2085
68285W        W11301  34.767  33.028  17.643  0.5219  0.0772 -0.0428
68286W        W11302  32.948   5.729  26.742  0.0880 -0.0662 -0.1388
68287W        W11303  30.363  28.334  22.548 -0.3256 -0.0710  0.0249
68288W        W11304  10.403  28.192  21.416  0.1989 -0.1301 -0.0376
68289W        W11305  15.033  13.801   6.542  0.2408 -0.0833  0.0369
68290W        W11306  20.121   6.354  14.753 -0.3610 -0.0582  0.0095
68291W        W11307  15.860   3.689  14.127 -0.0933 -0.0960 -0.0352
68292W        W11308  19.922   6.854  25.092 -0.2094  0.0251 -0.0459
68293W        W11309   3.728  13.965   7.229 -0.1840 -0.1183 -0.2909
68294W        W11310   2.753   8.278  27.664 -0.2756 -0.0078  0.1330
68295W        W11311  20.465   8.898  23.579  0.0142  0.2451 -0.1442
68296W        W11312  27.097   4.580  11.785 -0.1047 -0.1001 -0.1943
68297W        W11313  17.073   3.634  26.532 -0.2288  0.3842 -0.0654
68298W        W11314  19.303   2.589  13.908  0.2706  0.0561  0.0119
68299W        W11315  25.185  33.103  21.446  0.0269 -0.0114 -0.0754
68300W        W11316  12.232   7.732  24.822  0.0526  0.0522 -0.0573
68301W        W11317  17.533  20.009  22.702  0.0439 -0.1078  0.2104
68302W        W11318  15.549   6.974  16.996  0.2912  0.1902  0.1815
68303W        W11319  22.496  24.525  15.084 -0.0287  0.1256  0.0657
68304W        W11320  17.301  31.503  22.961 -0.1783  0.0147  0.0211
68305W        W11321   8.155  32.199  17.121  0.0245 -0.1995 -0.1741
68306W        W11322  22.807  28.992  16.160 -0.0063 -0.2280 -0.0061
68307W        W11323   8.269  24.355   3.768 -0.1291 -0.1299  0.1073
68308W        W11324  28.782  26.164  19.468  0.0684  0.2883 -0.0682
68309W        W11325   7.172  19.364  14.181  0.0071 -0.0180  0.0988
68310W        W11326  18.887   4.014  25.320 -0.2052 -0.0227 -0.0742
68311W        W11327   5.246  29.024  23.909 -0.0283 -0.0572  0.0413
68312W        W11328  16.366   4.572  16.575  0.1761  0.0013  0.1299
68313W        W11329  19.174   9.377  19.236 -0.0218 -0.1052 -0.0571
68314W        W11330  10.510   8.140  25.191 -0.2276  0.2836  0.1120
68315W        W11331  16.595   4.703  15.156  0.0997  0.1719  0.0132
68316W        W11332  22.643   8.586  16.634 -0.1025 -0.0986  0.1482
68317W        W11333  11.446  22.748  17.448 -0.2741 -0.0244 -0.1709
68318W        W11334   6.395   9.337  24.356 -0.0780  0.3947 -0.0380
68319W        W11335  20.963   2.243  18.609  0.1171 -0.0532  0.1053
68320W        W11336  15.342  31.311  20.783 -0.2673  0.0811  0.1211
68321W        W11337  15.558   5.882  20.635 -0.0300  0.0998 -0.0712
68322W        W11338  14.756  13.283  21.186  0.0677 -0.1413 -0.1833
68323W        W11339  23.195  11.812  27.695 -0.3517 -0.2534 -0.0743
68324W        W11340   5.116   8.022  15.613 -0.2099  0.2574 -0.0600
68325W        W11341  22.624   0.621   2.514 -0.2540 -0.4353 -0.1624
68326W        W11342  19.157   0.706  28.811  0.1282  0.1802 -0.0075
68327W        W11343  33.278  22.356  10.031 -0.0944 -0.2025 -0.3558
68328W        W11344  23.504  27.009  24.202  0.0623 -0.2523  0.3581
68329W        W11345  20.500   1.829   3.129  0.1450  0.0212 -0.2473
68330W        W11346  19.613  14.127  13.124  0.0857 -0.1003  0.1438
68331W        W11347  16.796  18.378  14.619  0.0084 -0.1091 -0.0565
68332W        W11348  16.775  34.056  22.888  0.1839  0.3739  0.0992
68333W        W11349  28.757   4.480   5.123  0.0452  0.1295  0.1013
68334W        W11350  12.190   5.292  26.781  0.0561 -0.3671  0.1806
68335W        W11351  13.919  11.230  16.584  0.3817  0.0148 -0.1722
68336W        W11352  17.192  33.308  29.318 -0.1844 -0.0240 -0.0819
68337W        W11353  30.467   5.054  28.875  0.4343 -0.2070 -0.1046
68338W        W11354   9.760  26.793  21.071  0.0369 -0.0202 -0.0820
68339W        W11355  10.770  12.154   6.387  0.1064  0.3096  0.0264
68340W        W11356  15.525  12.705  19.303 -0.3813  0.1117 -0.0635
68341W        W11357  16.881   0.047  16.880  0.0116  0.0927 -0.2178
68342W        W11358   4.131  31.604   9.038 -0.2389 -0.0901  0.2496
68343W        W11359  31.157   6.672   9.100 -0.1394 -0.1157 -0.1958
68344W        W11360   0.490  32.971  20.321  0.1168 -0.0528  0.1007
68345W        W11361  13.481  20.171  25.297  0.2652  0.1235 -0.1102
68346W        W11362  29.641  17.443   7.527 -0.0101 -0.3052 -0.0070
68347W        W11363  21.383   7.338  20.830 -0.2590  0.0246  0.1301
68348W        W11364  16.830  14.102   1.067  0.1947 -0.1123  0.1971
68349W        W11365  34.494  33.169   7.303  0.1393 -0.0144  0.2211
68350W        W11366  16.839   0.447  16.550  0.2210 -0.0057  0.0076
68351W        W11367   4.946  12.414  29.190  0.1161  0.0685  0.0056
68352W        W11368  16.506   0.485  24.171  0.4112 -0.1510  0.0299
68353W        W11369   6.518   5.301  14.837  0.1881 -0.2165 -0.1878
68354W        W11370  29.533  33.096  21.158 -0.0894  0.1982  0.1806
68355W        W11371  24.200  25.392  16.553 -0.0524 -0.0044  0.2124
68356W        W11372  15.634   2.401  16.373  0.1549  0.1237 -0.0041
68357W        W11373  23.688   8.888  25.114  0.3889  0.0672  0.2829
68358W        W11374  33.101  29.834   3.556 -0.0774 -0.1689  0.1416
68359W        W11375  23.872  17.360  23.113 -0.2052 -0.0940 -0.2317
68360W        W11376  17.923  34.355  18.765 -0.2033  0.1854  0.2716
68361W        W11377  20.226   3.470  23.267 -0.0312 -0.0681 -0.1898
68362W        W11378  11.614   0.003   3.098 -0.2987 -0.0982  0.1649
68363W        W11379  24.236   6.603  23.057  0.1097  0.2404  0.1859
68364W        W11380   1.011   9.414  15.794 -0.2144  0.4037 -0.1818
68365W        W11381  10.210  23.956  14.591 -0.2778  0.0541  0.1458
68366W        W11382  20.388   6.059   1.679 -0.0346 -0.1466 -0.0725
68367W        W11383   4.415  27.165  27.743 -0.0035 -0.0176 -0.1220
68368W        W11384  14.512  31.749   4.097  0.2827 -0.2021 -0.0467
68369W        W11385  16.034  23.008   1.777  0.0924  0.1448 -0.1566
68370W        W11386  16.027  32.021   2.058 -0.0858  0.0747  0.3259
68371W        W11387  16.664  31.328  21.928 -0.1095 -0.2020 -0.3576
68372W        W11388  25.182  11.668  20.882 -0.4028 -0.0309 -0.3340
68373W        W11389  20.710  22.671  18.899 -0.0341  0.1598 -0.1365
68374W        W11390  29.189   5.059  24.144 -0.2036  0.1196 -0.0307
68375W        W11391  20.222   4.691  21.036 -0.2484  0.1723 -0.3597
68376W        W11392  21.192  24.501  20.247 -0.0406 -0.2771  0.0103
68377W        W11393  19.607   3.350  25.558  0.1232  0.1936 -0.0075
68378W        W11394   6.804   4.485  14.918  0.1264  0.3252  0.2506
68379W        W11395  12.267  31.300  22.529 -0.3572  0.2343  0.1789
68380W        W11396   4.093   2.044  28.680  0.0917 -0.3159 -0.1672
68381W        W11397  17.745   4.003   0.404 -0.1471  0.1872  0.3231
68382W        W11398  29.568  25.211   0.724 -0.2992 -0.0313 -0.0216
68383W        W11399  32.335  30.128  16.088  0.2350  0.2230 -0.2140
68384W        W11400  30.885  34.048  17.946 -0.2870  0.0141 -0.0134
68385W        W11401   7.307  30.439  22.912  0.2834 -0.1097 -0.2175
68386W        W11402   8.274  24.943  16.233  0.1507  0.2619  0.1756
68387W        W11403  13.438  10.975  19.521  0.2600 -0.0170 -0.2580
68388W        W11404  14.897  13.165  20.243 -0.0607  0.0324 -0.0442
68389W        W11405  22.556   6.919  15.567  0.2149 -0.3388 -0.0619
68390W        W11406  10.605  30.491  28.748 -0.2341  0.3006  0.0937
68391W        W11407   7.483  17.964   6.441  0.1469  0.0116  0.1630
68392W        W11408  15.832  15.245   7.210 -0.0050  0.1960  0.2872
68393W        W11409  12.488  32.327  27.696 -0.0848 -0.0282  0.0780
68394W        W11410   5.294  27.926  20.966 -0.0647 -0.0830  0.0274
68395W        W11411  16.949  10.136  14.252  0.1529  0.1797  0.0432
68396W        W11412  17.388  11.934  18.163 -0.0053 -0.1605 -0.0318
68397W        W11413  14.246   9.954  24.395 -0.1084 -0.3982 -0.4593
68398W        W11414   2.537   9.070  19.312  0.1815  0.0814  0.1244
68399W        W11415  17.399   0.621  24.426  0.1900 -0.2845  0.0187
68400W        W11416   4.748   6.868  27.048 -0.0017  0.1718 -0.1943
68401W        W11417  28.441  25.842  26.901  0.0858  0.1756 -0.0437
68402W        W11418  12.357  30.518  14.465 -0.0241  0.3310 -0.0063
68403W        W11419  13.749  29.133  15.766 -0.1325  0.3854  0.1110
68404W        W11420   1.480  16.680  23.407 -0.0044 -0.0674 -0.2599
68405W        W11421  18.093   4.928   3.222  0.3758  0.0919  0.2073
68406W        W11422  10.705   3.397  15.870  0.1362  0.0477  0.2351
68407W        W11423  18.793  34.522  14.486  0.1784  0.0753 -0.3412
68408W        W11424  30.501  29.570   4.416 -0.0813  0.1072  0.1334
68409W        W11425  14.047   8.961  28.434 -0.0450  0.2746 -0.1800
68410W        W11426  12.824  29.422  22.372  0.2307  0.0103 -0.0519
68411W        W11427  13.841   7.943   4.378 -0.0608  0.1264 -0.2283
68412W        W11428  29.514  24.983  22.309  0.0510 -0.3363 -0.1121
68413W        W11429  30.583   4.761   1.700 -0.3415 -0.1357 -0.3995
68414W        W11430  22.545   2.846  25.797 -0.0077  0.0323  0.0554
68415W        W11431  20.255   1.815  15.411 -0.1240 -0.1035  0.0618
68416W        W11432  28.045   3.975   0.373  0.0124  0.2061  0.0913
68417W        W11433  21.092  28.939  25.768  0.1224  0.1336 -0.2537
68418W        W11434  22.512   3.410  22.665  0.1731  0.0680  0.0291
68419W        W11435   7.697   8.527  22.516 -0.0162 -0.1997  0.3629
68420W        W11436  15.172   3.320  21.599 -0.1783 -0.1909 -0.2685
68421W        W11437  30.680   9.613   4.439 -0.3845 -0.0257  0.2771
68422W        W11438   8.268   4.846   8.078 -0.2185 -0.1330 -0.1067
68423W        W11439  13.823   4.895  25.565 -0.3408  0.2007 -0.1920
68424W        W11440  11.044   3.975  21.433 -0.1473 -0.1230 -0.1993
68425W        W11441  26.290   7.085   3.554  0.0543  0.0202  0.2624
68426W        W11442  18.375   8.848  25.786  0.0553 -0.0683  0.0142
68427W        W11443   6.072   5.570  27.135  0.2742  0.0009 -0.1339
68428W        W11444   4.383  28.786   8.695  0.1146 -0.1162  0.1206
68429W        W11445  32.271   4.403  23.711 -0.2598 -0.0652  0.0015
68430W        W11446  24.127   2.383  24.232 -0.0662  0.3621 -0.0188
68431W        W11447  14.021  21.074  21.072 -0.1723 -0.0881  0.0872
68432W        W11448  16.305   5.153  14.991  0.0569  0.2745 -0.1144
68433W        W11449   9.649   4.623  20.097 -0.1317 -0.1549 -0.1205
68434W        W11450  11.371  34.568   7.031 -0.1021  0.4929  0.1767
68435W        W11451  19.171   1.561   6.265  0.1332  0.2426  0.2170
68436W        W11452  22.542   3.230   5.227 -0.0486  0.0318  0.0942
68437W        W11453  18.732  32.737   0.947 -0.1379  0.1156  0.1322
68438W        W11454  20.169  21.602  20.172  0.1326 -0.1795  0.1803
68439W        W11455  17.651   3.416  20.777  0.2620 -0.0987  0.1139
68440W        W11456  14.185   3.451  20.063 -0.0088  0.2197  0.2509
68441W        W11457  18.417  10.173  17.195  0.0453 -0.0867 -0.2774
68442W        W11458  13.065  32.505  19.003  0.0337  0.0348  0.2293
68443W        W11459  25.247  19.719  18.815 -0.4557 -0.2868  0.0330
68444W        W11460   8.870   4.421  18.483  0.0729  0.1635  0.0890
68445W        W11461  23.404  28.124  16.189 -0.0359  0.1184  0.0745
68446W        W11462   4.198  11.696  16.335 -0.0442 -0.1229  0.0692
68447W        W11463  14.188   1.212  13.534 -0.2828  0.2614  0.1457
68448W        W11464  11.550   2.191  15.073 -0.1208 -0.0115  0.0335
68449W        W11465  17.030   3.751   7.930  0.2600 -0.0266 -0.1355
68450W        W11466  19.495   0.876  20.422  0.0825  0.2659  0.2146
68451W        W11467  26.238   8.847  21.041 -0.0476 -0.1012  0.1188
68452W        W11468  15.032  12.642   2.130  0.1267  0.0969  0.0396
68453W        W11469  12.179  11.330  15.811 -0.3418  0.2434  0.1920
68454W        W11470  13.854   8.918  27.573  0.3353 -0.0917  0.3740
68455W        W11471  34.327  10.773  23.458  0.1552 -0.0816  0.2747
68456W        W11472  12.149  10.649  15.696 -0.3178  0.0751  0.1719
68457W        W11473   4.833   3.255  15.483 -0.2166  0.0522 -0.1551
68458W        W11474  23.186  12.833   3.186 -0.0613  0.2458  0.0486
68459W        W11475  29.643  32.984   4.685 -0.1667  0.1091 -0.1729
68460W        W11476  16.269  11.335  19.636  0.2134 -0.2180  0.1223
68461W        W11477  24.894   2.368  25.913  0.0757  0.3672 -0.0679
68462W        W11478   4.817  31.695   0.195  0.0684  0.1420 -0.2637
68463W        W11479  19.913  32.265  25.672  0.1180 -0.1311 -0.3523
68464W        W11480   9.174  27.320  23.024  0.3078 -0.0204  0.0146
68465W        W11481  21.626  10.862  18.675  0.0788 -0.2642  0.0559
68466W        W11482  11.440  32.919  21.284  0.3165  0.1231  0.0066
68467W        W11483  19.767   7.615  23.523 -0.3104  0.1913  0.0711
68468W        W11484   0.813  16.701  24.202  0.1494  0.1274 -0.1835
68469W        W11485  28.238  14.376  18.752  0.2138 -0.4734 -0.0294
68470W        W11486  34.707  26.951   0.062  0.1745  0.1069  0.2631
68471W        W11487   8.238  27.999  24.900 -0.0760 -0.0509 -0.2056
68472W        W11488  15.206   0.172  20.896  0.3875  0.1998  0.2108
68473W        W11489  12.005  31.189  25.438 -0.0897  0.1003 -0.0007
68474W        W11490  17.620   0.121  18.115  0.1850 -0.3335 -0.0860
68475W        W11491  15.942  28.680  19.730  0.1479  0.2477 -0.3561
68476W        W11492   5.232  31.909  20.705 -0.0732 -0.1584  0.0045
68477W        W11493   2.975  33.176  27.818 -0.1348 -0.0207 -0.3774
68478W        W11494  20.442  18.018  24.236  0.1858  0.0014 -0.2808
68479W        W11495  20.473  32.275  10.057 -0.1526  0.0202  0.0026
68480W        W11496   3.354   0.520  16.356  0.2655  0.0795 -0.2762
68481W        W11497  31.289  31.902  28.881 -0.0291 -0.3041  0.0771
68482W        W11498  26.112  21.458   0.242  0.5384  0.1955 -0.1346
68483W        W11499  12.784   8.217  16.096 -0.0233 -0.0039 -0.0322
68484W        W11500   6.744   6.752  27.476  0.1645 -0.2134 -0.0545
68485W        W11501  21.841   7.293   8.392  0.3264 -0.4044  0.0074
68486W        W11502  26.661   4.950  23.189  0.1185 -0.0278 -0.1449
68487W        W11503   4.778   4.736  21.814 -0.0760 -0.1726 -0.4388
68488W        W11504  14.161  10.663  24.899  0.1605 -0.3358 -0.2494
68489W        W11505  15.428  13.297   7.855 -0.1097 -0.2855  0.1522
68490W        W11506  32.264   8.896  25.422 -0.1146  0.3052  0.0662
68491W        W11507   0.353  10.190  25.842 -0.2472 -0.2220 -0.0123
68492W        W11508  28.789  11.270  27.053  0.0473  0.0999 -0.1146
68493W        W11509  32.900  20.475  22.113 -0.1562 -0.0529  0.1014
68494W        W11510  25.700  18.828  23.358  0.0076  0.0795  0.0288
68495W        W11511   8.837  23.332  12.338  0.2017  0.1153  0.0956
68496W        W11512  19.407   7.273  17.808  0.3793  0.2199 -0.0145
68497W        W11513   5.443   3.317  22.217 -0.1970  0.3617  0.0822
68498W        W11514  15.734  18.378  27.245 -0.5759  0.0065 -0.0412
68499W        W11515  29.704  15.800  20.346  0.1077  0.1195 -0.1723
68500W        W11516   5.755  30.538  15.649 -0.1045  0.0268  0.1033
68501W        W11517  32.830  26.450  27.205  0.2621  0.0527  0.1210
68502W        W11518   6.011  24.179  17.857  0.0914  0.1832  0.1664
68503W        W11519   9.807  12.299   8.191 -0.5377 -0.4962 -0.1122
68504W        W11520  27.905   5.207  11.048  0.0828  0.1029  0.1026
68505W        W11521  21.067  21.436  28.020  0.1877  0.1007  0.1904
68506W        W11522  12.550  31.788  19.378  0.1070 -0.4828 -0.0479
68507W        W11523  19.203  34.766  15.997 -0.0033  0.0735  0.0116
68508W        W11524  15.384   1.640  27.454 -0.5211 -0.0209 -0.0532
68509W        W11525  11.252  14.561   0.798 -0.0101  0.1858  0.1273
68510W        W11526  11.786   1.061  14.064  0.0147 -0.1230  0.1881
68511W        W11527  27.685   0.878  18.658  0.1015  0.2215 -0.0334
68512W        W11528  14.501   8.155  13.973  0.0425 -0.0464  0.3463
68513W        W11529  33.184  17.065  25.875 -0.0876  0.1361 -0.0527
68514W        W11530   8.682  33.900  28.582  0.1150  0.1233 -0.1674
68515W        W11531  11.058  32.588  28.057  0.4864  0.1351  0.0371
68516W        W11532  17.330  30.586  16.432  0.0268 -0.1736  0.2054
68517W        W11533  21.349  20.633  20.027 -0.3848 -0.0993 -0.1154
68518W        W11534  17.390  24.353  21.775 -0.0495  0.4494  0.1908
68519W        W11535  25.730  12.885   7.179 -0.2213 -0.0625 -0.1494
68520W        W11536  24.534  32.356   4.324  0.0824 -0.0984  0.1837
68521W        W11537  23.531   6.473  19.588  0.0098  0.2176  0.1357
68522W        W11538  11.936  32.116   5.221 -0.1090  0.1611  0.0595
68523W        W11539   5.731   4.409   8.232 -0.1543 -0.2867  0.0444
68524W        W11540  15.498  33.288  28.750  0.2119 -0.0641  0.2632
68525W        W11541   8.258  32.149   2.367  0.0061 -0.0229 -0.0037
68526W        W11542  11.974  34.138  24.842  0.0714  0.0292 -0.3767
68527W        W11543   3.553  31.345  24.320 -0.4270 -0.1303 -0.1768
68528W        W11544  18.656   1.418  14.555  0.0016  0.0074 -0.2054
68529W        W11545  21.247   7.401  18.349 -0.0802 -0.0943 -0.0612
68530W        W11546  32.678  10.863  19.764  0.1660 -0.1358  0.1037
68531W        W11547  26.317  30.098  19.592 -0.0734 -0.4412 -0.2195
68532W        W11548  24.750   2.780  15.445 -0.0444 -0.4861  0.2558
68533W        W11549  15.552   5.008  14.169  0.0880 -0.0196  0.1166
68534W        W11550  18.053   8.009  20.089 -0.0805 -0.2054 -0.0926
68535W        W11551   8.953  15.899  18.453 -0.1377 -0.2452 -0.0161
68536W        W11552  15.101  34.225  24.149  0.0678 -0.1925  0.0871
68537W        W11553  11.467  32.490  17.790 -0.0103 -0.0864 -0.1286
68538W        W11554  23.983   5.877  27.786 -0.1943 -0.2617  0.1413
68539W        W11555  19.950  27.030  15.217 -0.4760  0.0376 -0.1101
68540W        W11556   6.944  10.114  15.511  0.3191  0.1928 -0.2198
68541W        W11557  26.289   7.241   8.092  0.1599  0.1980 -0.0652
68542W        W11558  31.735  32.200  29.042  0.3117  0.1042 -0.0216
68543W        W11559  11.456  34.712   5.650  0.0664 -0.3267  0.2518
68544W        W11560  26.071  19.526   2.425 -0.1440 -0.0180 -0.0085
68545W        W11561  25.487   4.623  20.352 -0.1034 -0.3464  0.0150
68546W        W11562  11.386  22.998  13.486 -0.0983  0.0284  0.0014
68547W        W11563  15.545  33.395  17.931 -0.3160 -0.1940 -0.1062
68548W        W11564  11.674  25.324  15.126 -0.2755  0.0849 -0.0130
68549W        W11565  20.273  33.623  23.794  0.0336 -0.1684  0.1056
68550W        W11566  12.556   1.256   4.187  0.1258  0.0539  0.1987
68551W        W11567  21.536  22.128   6.484  0.2920  0.3183  0.0059
68552W        W11568   2.119   4.598  27.825 -0.0860 -0.2337  0.0771
68553W        W11569  18.099   1.046  25.943 -0.1532 -0.0227  0.3496
68554W        W11570  15.481  30.297  17.280 -0.0891 -0.0788 -0.0684
68555W        W11571   7.053   6.711  15.117  0.1024  0.0238  0.0990
68556W        W11572  29.288  33.015   7.463  0.1384  0.0251 -0.1184
68557W        W11573  34.687  14.654  16.550  0.1924  0.0552 -0.0961
68558W        W11574  22.084  12.865  22.310  0.2324 -0.2366 -0.0963
68559W        W11575   8.298  10.038  28.126 -0.1952 -0.1742  0.0628
68560W        W11576   1.789   1.065   2.099  0.0588 -0.2756  0.0433
68561W        W11577  27.356  31.211  16.041  0.2587 -0.1412  0.0796
68562W        W11578  12.921  33.924  14.851 -0.0257 -0.1825 -0.3367
68563W        W11579  23.643  27.231  16.266 -0.0383 -0.3577 -0.0905
68564W        W11580  22.298  12.027   4.142  0.0903 -0.0872  0.4409
68565W        W11581  29.200   3.503   4.106  0.0239  0.1456  0.1147
68566W        W11582  20.653  18.813  12.664  0.2045  0.1016  0.2828
68567W        W11583  28.423   1.897  25.373  0.0299 -0.1305  0.0831
68568W        W11584  18.604  31.659  18.775 -0.2586  0.1784 -0.1384
68569W        W11585  32.376  17.394  20.166 -0.0402 -0.0069  0.0676
68570W        W11586  20.912  30.341  20.531 -0.1543 -0.0190 -0.1289
68571W        W11587  18.126   8.585  24.804 -0.1087 -0.3103  0.1498
68572W        W11588  10.385  17.430  28.250  0.1334 -0.2435  0.0851
68573W        W11589  20.094  19.675   6.430  0.1561 -0.5684 -0.1176
68574W        W11590  22.300  23.566  23.377  0.1921 -0.5446  0.0841
68575W        W11591  25.173  31.771  21.903 -0.0228  0.2991 -0.5040
68576W        W11592  14.206   2.557   0.429  0.1701  0.1510 -0.6668
68577W        W11593  30.111  11.909  22.047 -0.3957  0.0360  0.0663
68578W        W11594  20.504  13.779   0.305 -0.0077 -0.0376  0.1221
68579W        W11595   9.560  10.073   6.133  0.1344  0.2382 -0.0784
68580W        W11596  33.500   3.189   2.254  0.2435 -0.0792  0.0917
68581W        W11597  18.334  10.206  28.510 -0.0636 -0.0199  0.0064
68582W        W11598  16.631   6.987  17.338  0.1380  0.0118  0.3052
68583W        W11599  24.214  25.719  22.141  0.1947 -0.0656  0.0390
68584W        W11600   7.762  33.580  21.016 -0.3590 -0.0549  0.1355
68585W        W11601  13.179   9.281  19.624 -0.0933 -0.1685 -0.1271
68586W        W11602   2.529   2.170  26.875  0.3352 -0.2269  0.0166
68587W        W11603  20.622   5.598  15.645  0.1773  0.0438 -0.1652
68588W        W11604  17.872   1.263   0.952  0.1765  0.2141  0.0278
68589W        W11605   5.093  25.065  17.584 -0.0775 -0.0500 -0.1583
68590W        W11606  21.983   9.739  20.552 -0.1847 -0.1433  0.1062
68591W        W11607  15.695   1.680   0.743 -0.2337 -0.2233  0.0330
68592W        W11608  21.334  30.961  22.473  0.0007  0.0645  0.0711
68593W        W11609  25.190   3.057   3.693  0.1802  0.1311  0.0511
68594W        W11610   7.020  34.275   3.504 -0.1378  0.0364  0.1045
68595W        W11611   9.967  34.223  14.397 -0.1264 -0.1248 -0.1203
68596W        W11612  13.023   5.761   4.054 -0.1150  0.2461  0.1248
68597W        W11613   8.314  13.253   4.887  0.0103 -0.1940 -0.3694
68598W        W11614   9.414  18.471  16.198 -0.2628  0.1930  0.2808
68599W        W11615   9.560  23.502   2.954  0.3710  0.0277 -0.2230
68600W        W11616   1.619   6.610  18.458  0.1426 -0.1428  0.1425
68601W        W11617  15.728   3.486  20.095  0.0318 -0.4094  0.0283
68602W        W11618  21.545  13.347  16.986 -0.1068  0.0124 -0.1985
68603W        W11619   8.064  10.977   2.381 -0.0555  0.5186  0.2484
68604W        W11620  15.874  33.484  19.300  0.3466  0.0285  0.0424
68605W        W11621  33.788   3.443  27.574 -0.0487 -0.3891  0.1794
68606W        W11622   4.863  30.269   3.574 -0.0690  0.0662  0.0894
68607W        W11623   1.980   5.321   4.858 -0.2851  0.0224 -0.3334
68608W        W11624  16.386   5.978  24.390 -0.2535  0.3762 -0.0279
68609W        W11625  10.233  22.097  26.451 -0.4495 -0.0263 -0.1985
68610W        W11626   3.686  26.984   5.440  0.1274  0.1308  0.0806
68611W        W11627  25.534  31.707   9.491 -0.0731 -0.1109  0.2178
68612W        W11628   0.493  31.272  25.835  0.2096 -0.1070 -0.0312
68613W        W11629   9.544  31.781  24.740 -0.3336  0.2301 -0.0761
68614W        W11630  28.742  34.168  17.930  0.1437 -0.1145 -0.1854
68615W        W11631  29.658  30.854  27.430  0.1132 -0.1187  0.2820
68616W        W11632  15.561   1.700  17.647  0.0028 -0.0345  0.1013
68617W        W11633  33.496  20.669  26.684 -0.2325  0.2461 -0.0821
68618W        W11634   5.421   7.401   9.454 -0.1910  0.2654  0.2036
68619W        W11635  21.652  25.673   6.659 -0.1860 -0.0733 -0.2175
68620W        W11636  25.844  18.211   5.579 -0.0379 -0.1235 -0.2195
68621W        W11637  18.176  13.738   2.580  0.0888  0.0922 -0.0092
68622W        W11638   5.530   0.762   1.872 -0.1306  0.0670  0.0316
68623W        W11639   8.367  15.197   1.535 -0.1793  0.0902  0.0459
68624W        W11640  33.752   7.491   9.489 -0.0740 -0.2299  0.0973
68625W        W11641  11.163  28.956  22.684 -0.1182  0.1188 -0.1045
68626W        W11642  14.667  18.232   0.151  0.0747 -0.1381 -0.0993
68627W        W11643  11.066   4.132   1.561  0.1487  0.2170 -0.1046
68628W        W11644   2.519  31.317  14.589  0.3072 -0.0737 -0.1025
68629W        W11645  33.841   1.143  27.510 -0.3739  0.0522  0.0247
68630W        W11646  17.682   1.363   2.479  0.1105  0.0213 -0.0896
68631W        W11647  28.055   8.600  26.665 -0.1337 -0.2047  0.2028
68632W        W11648  17.676  32.128   1.716  0.0715 -0.0358  0.0758
68633W        W11649  16.974  14.354  23.335  0.0240  0.0929  0.2748
68634W        W11650  34.039   1.658  21.542  0.4823  0.0408  0.2970
68635W        W11651  21.643   9.240  20.510 -0.0955 -0.0223 -0.0506
68636W        W11652  15.078  23.989   3.976 -0.1516 -0.0890 -0.2657
68637W        W11653   0.513  29.235   6.328  0.2920 -0.0079  0.1920
68638W        W11654  13.809  33.795   8.190 -0.2282 -0.2244 -0.0306
68639W        W11655  12.516  27.849  23.495  0.3349 -0.1156 -0.0661
68640W        W11656  14.569  11.265  26.080  0.1334 -0.0515 -0.1516
68641W        W11657   1.295  34.499  24.627  0.0461 -0.1104  0.0304
68642W        W11658  11.788  11.900   0.928 -0.0306  0.2574 -0.1236
68643W        W11659   9.179  27.936   2.430  0.0239  0.4642  0.1785
68644W        W11660  26.562  30.720   1.355  0.0654  0.1370 -0.2776
68645W        W11661  18.239  14.201  13.507  0.0559 -0.0127  0.1518
68646W        W11662  13.383   4.161   4.087  0.0094 -0.0039  0.1259
68647W        W11663  24.166   7.810  19.390  0.1599  0.3807  0.0621
68648W        W11664  14.654   7.777  26.189  0.1109 -0.3326  0.0597
68649W        W11665   4.060  17.377  21.984  0.0069 -0.2391 -0.0688
68650W        W11666  14.406  32.086   2.576  0.0133 -0.1845  0.0610
68651W        W11667  19.215  11.802  25.458 -0.0272  0.1857  0.2600
68652W        W11668  10.239  33.943  21.561 -0.0809 -0.2407  0.2534
68653W        W11669  12.595  34.637   6.356  0.1715 -0.0396 -0.0050
68654W        W11670  23.950  28.135  18.893  0.0025  0.0205  0.2940
68655W        W11671  16.830   4.428  25.053 -0.0421  0.1659 -0.0510
68656W        W11672  14.639   3.183  14.885 -0.4363 -0.0360  0.0435
68657W        W11673   4.391  15.813   4.418  0.2376 -0.1311  0.2840
68658W        W11674  21.687   1.913   8.705  0.1134 -0.0026 -0.1008
68659W        W11675   4.714  34.690  28.456 -0.0758  0.0313 -0.1031
68660W        W11676  20.857  26.996   0.468 -0.2181 -0.0400  0.1997
68661W        W11677  15.753  14.873   3.846 -0.1433 -0.2620  0.2872
68662W        W11678   3.440   1.165   3.529  0.2058 -0.0790 -0.3078
68663W        W11679  12.263  21.148  16.959 -0.0407 -0.1291  0.1513
68664W        W11680  18.888   9.311  26.602 -0.4624 -0.0216 -0.0092
68665W        W11681  11.890  25.386  13.419 -0.0475 -0.0195 -0.1489
68666W        W11682  17.122   2.384   8.658  0.1103  0.2230  0.4404
68667W        W11683  20.234  30.576   3.048  0.1366 -0.1221  0.0332
68668W        W11684  10.611   1.520   9.653 -0.2423  0.3826 -0.0935
68669W        W11685  26.094  28.309  27.700 -0.1306 -0.3676  0.1108
68670W        W11686   6.277   3.817  26.551  0.0168 -0.3622  0.1076
68671W        W11687  12.179  22.019   4.196  0.3287  0.1842  0.0008
68672W        W11688  19.575   4.417  18.408  0.4054  0.2052 -0.1261
68673W        W11689  12.935  17.827  22.096 -0.2618 -0.1226 -0.0492
68674W        W11690  32.538  21.778  19.718 -0.1201 -0.1816 -0.1230
68675W        W11691  11.707   0.547   1.115  0.1404 -0.3453 -0.2263
68676W        W11692  16.540   7.061  26.822 -0.3047 -0.2511  0.3550
68677W        W11693  20.347  24.331  26.713  0.0229  0.2257 -0.0460
68678W        W11694  11.368   0.854  27.507 -0.3884 -0.0687  0.0766
68679W        W11695  13.574  31.719  23.311  0.3581 -0.1210  0.2595
68680W        W11696   8.117   3.383  27.326 -0.0289  0.0898  0.0164
68681W        W11697  11.385   5.552   0.598 -0.2276 -0.0760 -0.3486
68682W        W11698  16.430  14.220   3.650 -0.0419  0.0944  0.1545
68683W        W11699  21.142  32.979   4.349  0.3972  0.0365 -0.1243
68684W        W11700  23.619   1.895  26.390  0.3131 -0.2214  0.0243
68685W        W11701  19.490  21.194  28.868  0.0779 -0.0168 -0.2487
68686W        W11702   3.388   2.281   7.366  0.1640 -0.1806  0.0232
68687W        W11703  16.124  28.039   0.568  0.3003 -0.2695 -0.0707
68688W        W11704  16.482  14.876  14.834 -0.6863  0.1050 -0.1312
68689W        W11705  17.334  12.391  16.576 -0.1789 -0.0223  0.0058
68690W        W11706  24.078  29.336   6.842  0.1754  0.0381  0.1106
68691W        W11707   5.264  12.093  22.482  0.1207  0.4045  0.1364
68692W        W11708  23.757  31.499   1.366  0.1268  0.3497  0.0504
68693W        W11709  18.123  10.765  25.835  0.4826 -0.2168  0.1415
68694W        W11710  19.147  10.635  14.760  0.1659 -0.0130 -0.0432
68695W        W11711  15.149   9.461  22.267 -0.4574  0.1108  0.1580
68696W        W11712  23.559   2.448  15.737  0.1112 -0.0734  0.2636
68697W        W11713  33.515   0.590  15.088  0.0524 -0.1805 -0.0192
68698W        W11714  21.032  31.952   7.957  0.1171 -0.2719 -0.1304
68699W        W11715  15.899  18.694  15.794  0.1202 -0.2831  0.0050
68700W        W11716  14.668  30.595  15.823  0.1867  0.0144 -0.1794
68701W        W11717  20.674  32.276  20.637 -0.0225 -0.3133 -0.1182
68702W        W11718  15.106  10.412  21.007  0.0831  0.2561  0.2396
68703W        W11719   4.091   3.092   9.701 -0.2269  0.2827  0.0025
68704W        W11720  13.454  18.986   5.019  0.0476 -0.0386  0.2114
68705W        W11721   9.307  32.520   7.786  0.2007 -0.0284  0.0424
68706W        W11722   6.512  33.335   5.513  0.0237 -0.1647  0.2161
68707W        W11723   9.861   5.476  28.928 -0.0971 -0.1335 -0.1747
68708W        W11724  15.050  26.523   9.512 -0.3081  0.0601 -0.2257
68709W        W11725  32.864   3.008  26.170 -0.2430 -0.1150  0.1173
68710W        W11726  21.624   6.090  23.870  0.0134  0.2413  0.0416
68711W        W11727   3.368   4.221   6.636 -0.0783  0.0637  0.0287
68712W        W11728  22.879  33.757  18.045  0.1217 -0.2776  0.0909
68713W        W11729  32.002  22.787  26.140 -0.0049 -0.0899  0.1523
68714W        W11730  20.979   7.746   0.447 -0.0427  0.3097  0.0102
68715W        W11731  19.852  10.187  17.166  0.0539  0.0362 -0.2827
68716W        W11732   7.751  14.984  25.949 -0.3011  0.0859  0.0107
68717W        W11733  10.969  22.956  18.444 -0.1108  0.0199 -0.0278
68718W        W11734  18.577  30.505  16.764  0.3801 -0.1007  0.0895
68719W        W11735  15.604  13.925  23.298 -0.0018  0.0000  0.0619
68720W        W11736   8.046   4.328   1.731  0.1429  0.0314  0.3263
68721W        W11737  17.229  11.698  19.959 -0.1341 -0.2449  0.1298
68722W        W11738  29.524  10.468  26.735 -0.0635 -0.0861 -0.2535
68723W        W11739   2.513  31.448  19.080  0.1259 -0.2293  0.2204
68724W        W11740  26.554  10.447   0.577 -0.0342 -0.1079 -0.3762
68725W        W11741  28.844   0.839  22.329 -0.0737 -0.4046  0.2220
68726W        W11742   6.746  21.148   7.642 -0.0618 -0.0561 -0.3810
68727W        W11743  18.288  30.275  27.807  0.1305  0.1401 -0.2200
68728W        W11744   7.246  29.685  24.286  0.0864 -0.0116 -0.0730
68729W        W11745  19.467   7.168  26.712 -0.1341 -0.4346  0.1991
68730W        W11746  15.389   3.022   2.740 -0.0657  0.0685 -0.0881
68731W        W11747   3.115  34.576  25.285  0.0034  0.4362  0.5442
68732W        W11748   6.127   4.139  27.354 -0.1091 -0.2919  0.1005
68733W        W11749   3.142  14.154  26.643 -0.2686  0.0145 -0.0407
68734W        W11750  23.600   9.719   7.289  0.1901  0.0137  0.0089
68735W        W11751   1.497  33.445   3.172 -0.1950  0.0494  0.0313
68736W        W11752  21.973  13.416  25.795  0.1563 -0.0687  0.0634
68737W        W11753   2.879  26.261   2.728  0.2134  0.2476  0.0277
68738W        W11754   3.283  27.448   5.221 -0.2899  0.0973 -0.3678
68739W        W11755  10.056   1.334  10.387 -0.2824  0.1484  0.2295
68740W        W11756   8.378   1.788  15.741  0.0336  0.3106 -0.3314
68741W        W11757  25.374  29.656   4.048  0.0922 -0.2926  0.0121
68742W        W11758  21.313  29.597  17.306 -0.1252  0.1275  0.0377
68743W        W11759  17.460  14.864  25.490 -0.2425  0.2002  0.0205
68744W        W11760  26.837  15.967  14.794  0.0380 -0.0420 -0.0583
68745W        W11761   4.042  32.030  26.547  0.2923  0.1063 -0.4272
68746W        W11762   1.447   4.395  22.613 -0.1935  0.4023 -0.0384
68747W        W11763  18.181   5.202  25.263 -0.0313 -0.0199  0.0590
68748W        W11764  26.690   5.229   2.429 -0.1733 -0.0741  0.0132
68749W        W11765  14.877   2.748   2.591 -0.0049 -0.1177  0.1404
68750W        W11766   6.217   8.457  18.958  0.1428  0.2664  0.0503
68751W        W11767  26.184   6.215  19.015  0.1690  0.0615  0.2016
68752W        W11768  12.158  16.237  27.612 -0.0633 -0.4119 -0.0635
68753W        W11769  11.932  17.288  22.023 -0.2694  0.2368 -0.1418
68754W        W11770   5.046  24.759  21.601  0.1717  0.0302 -0.4030
68755W        W11771  25.432  24.292   0.865  0.0108 -0.2107  0.1300
68756W        W11772  17.388   5.407  25.159  0.1440  0.1497 -0.0152
68757W        W11773  21.466   8.068  20.085 -0.1447 -0.0207  0.0673
68758W        W11774   7.990   7.457  18.697  0.0078 -0.1683  0.0510
68759W        W11775  20.560  15.723  25.989 -0.1694  0.0473 -0.2241
68760W        W11776  10.596   6.200   3.575 -0.0411  0.1311 -0.1523
68761W        W11777   7.464  27.156  27.711 -0.1491  0.1483  0.0559
68762W        W11778  23.609  24.951   0.678 -0.1974  0.1951 -0.0754
68763W        W11779  28.535  30.434   1.751 -0.1192 -0.0872  0.2533
68764W        W11780  20.441  13.842  19.598 -0.0305  0.1005 -0.1075
68765W        W11781  32.669   4.843  29.122  0.2161  0.0330 -0.1855
68766W        W11782  12.646  16.311   0.859  0.0536  0.2044  0.2633
68767W        W11783  20.796   1.627  20.648  0.3163 -0.0686  0.1994
68768W        W11784  34.282  18.679   3.326  0.2053 -0.1296 -0.1027
68769W        W11785  20.763  14.766   5.992  0.1257  0.2349 -0.3626
68770W        W11786  32.104  34.573   4.972 -0.0240 -0.1105 -0.2046
68771W        W11787  11.041  25.919   5.187  0.0777 -0.0247 -0.1516
68772W        W11788   2.963  20.585  28.905  0.0454 -0.2866 -0.0816
68773W        W11789   1.682  32.696  22.185 -0.0531 -0.2204 -0.0178
68774W        W11790   6.585  32.963  18.107 -0.2197 -0.0454  0.1884
68775W        W11791  32.953   4.278  17.233  0.1121  0.1751  0.0347
68776W        W11792   5.042  33.495  21.160 -0.1821 -0.2744 -0.0488
68777W        W11793  24.429  19.229  20.817 -0.1840 -0.1377 -0.1954
68778W        W11794  19.936   4.847   7.624 -0.1020 -0.2679 -0.1052
68779W        W11795  15.006   0.143   0.060 -0.0867  0.1037 -0.2553
68780W        W11796  11.689  26.430   5.682 -0.1880  0.0892 -0.1644
68781W        W11797  13.826  30.627  23.458  0.2042  0.0082  0.1508
68782W        W11798  23.233  10.762   3.802  0.1492 -0.0806 -0.2063
68783W        W11799   9.275  30.796  21.859 -0.2356 -0.1820  0.0191
68784W        W11800   6.172  14.588  20.343 -0.0135  0.2648  0.0812
68785W        W11801  30.695  29.757  16.886 -0.2509  0.0225  0.1321
68786W        W11802  18.854   3.179  27.037 -0.1523  0.0072 -0.3136
68787W        W11803  23.112   9.775  23.411  0.2457 -0.0724  0.0775
68788W        W11804  18.633  19.913   3.433  0.1998  0.1496 -0.0377
68789W        W11805  13.317  31.022  29.055  0.0565 -0.1960 -0.1711
68790W        W11806  14.408  23.694  23.361  0.1715 -0.4253 -0.2638
68791W        W11807  18.442  24.646   3.885  0.1769 -0.1183  0.1217
68792W        W11808  15.663   8.276   1.869 -0.0616 -0.0032  0.1372
68793W        W11809  16.609  21.045  26.415  0.1058 -0.1719  0.0021
68794W        W11810  10.192  13.674  20.576 -0.0310  0.0331 -0.3183
68795W        W11811  10.639   1.998   3.733  0.0785  0.0467  0.2036
68796W        W11812  13.020  21.190  15.935 -0.0077  0.2240 -0.0629
68797W        W11813  12.762  30.390  26.955 -0.2633  0.0525 -0.0461
68798W        W11814  16.187  30.046   1.131  0.0091  0.0012 -0.1080
68799W        W11815  11.693  32.873   0.655  0.0292 -0.3174 -0.1382
68800W        W11816   8.251  34.474  22.001 -0.2962 -0.0260  0.1725
68801W        W11817  12.802  29.051  24.193  0.0350 -0.3239 -0.1038
68802W        W11818  33.223   0.764  23.345  0.2069  0.0915 -0.1381
68803W        W11819   6.657   4.108   1.789 -0.1323 -0.0553 -0.0164
68804W        W11820   9.516   5.416  27.762 -0.0089 -0.0628 -0.2379
68805W        W11821  20.149  27.577   3.501 -0.0463  0.0729  0.0385
68806W        W11822   7.272   2.015  24.343  0.0457 -0.2868 -0.1570
68807W        W11823  32.979  27.188  23.477 -0.1345  0.1493  0.0455
68808W        W11824  21.926  26.380  19.861  0.0700 -0.1508  0.2990
68809W        W11825  23.951   2.876   2.844 -0.1448  0.1803  0.1051
68810W        W11826  10.467   0.629  22.609 -0.0155 -0.0669 -0.2264
68811W        W11827  23.081  25.594  23.217  0.0344 -0.0747  0.1377
68812W        W11828   9.593  29.893   0.260 -0.0666 -0.1094 -0.0313
68813W        W11829   3.059  18.736   9.831  0.0778 -0.2166 -0.0612
68814W        W11830  34.044  32.217   1.410  0.3385 -0.0858 -0.0446
68815W        W11831  30.996  25.242  16.975  0.1877 -0.3631  0.2728
68816W        W11832  25.373  27.279  27.428 -0.1266  0.2346 -0.1957
68817W        W11833  16.576   8.449   1.937 -0.1663  0.0450 -0.1841
68818W        W11834  11.812   7.910   4.386  0.0390 -0.1602 -0.1005
68819W        W11835  18.124   6.627  16.556  0.1755 -0.1346 -0.1245
68820W        W11836  32.022  29.212  28.895  0.1771 -0.0566 -0.1836
68821W        W11837  24.908  34.118   2.603 -0.0187  0.1669 -0.0512
68822W        W11838  30.201  23.927   3.290 -0.3148  0.2097  0.1284
68823W        W11839   2.787   5.727  22.564 -0.2840  0.0354  0.1842
68824W        W11840  15.642   0.512  17.228  0.2961 -0.0678  0.3073
68825W        W11841  21.589   7.443  26.558 -0.0370 -0.1469 -0.0199
68826W        W11842  21.574  24.516   0.953  0.0507  0.1240 -0.1145
68827W        W11843  29.724  13.826   4.070  0.3443 -0.0355  0.0813
68828W        W11844  25.320  32.745  29.219 -0.1778 -0.2849 -0.0519
68829W        W11845   0.556   6.835  25.089 -0.2579 -0.0531  0.1483
68830W        W11846  16.408  25.786   1.498  0.0288  0.2148  0.0480
68831W        W11847  14.414  22.224   8.808 -0.2431 -0.1873 -0.0624
68832W        W11848  19.609   8.289   1.340  0.3147 -0.0127 -0.0039
68833W        W11849  16.632  12.540  21.215 -0.2608  0.2499 -0.0469
68834W        W11850  11.795  19.313   8.998  0.1854 -0.1688 -0.0503
68835W        W11851  34.659  18.382   3.148  0.1720  0.0979 -0.2301
68836W        W11852  15.354   4.451  20.758 -0.4185  0.0455  0.0571
68837W        W11853  11.829  29.876  22.164 -0.0520 -0.0456  0.2119
68838W        W11854  28.026  13.773  25.391 -0.1215 -0.0313  0.1098
68839W        W11855  26.582  28.890  21.367  0.2073 -0.2280  0.1198
68840W        W11856  32.688  29.577  28.385 -0.1296 -0.1148 -0.0757
68841W        W11857  12.423   6.082   2.189  0.0140  0.1780  0.1506
68842W        W11858  28.155  30.489   2.514  0.3099 -0.2442 -0.3251
68843W        W11859  23.199  34.574   2.797  0.3303 -0.0690 -0.4623
68844W        W11860   0.955   6.244   5.320 -0.0660 -0.0951  0.1705
68845W        W11861  25.425  28.110  19.816  0.1467  0.0977  0.5225
68846W        W11862  15.482   6.654  23.538 -0.2281  0.0012 -0.2754
68847W        W11863  15.699  21.844  21.895  0.1402  0.2063 -0.0119
68848W        W11864  21.849  25.035  24.690  0.0965 -0.0707 -0.4549
68849W        W11865  19.146  16.506  22.000  0.1830  0.1882  0.0408
68850W        W11866  31.135  19.354   0.866 -0.4860 -0.2776 -0.0420
68851W        W11867  23.648  26.166  20.735  0.0966  0.0926  0.0145
68852W        W11868   9.252  16.999  23.729  0.4160  0.1271  0.0626
68853W        W11869  16.303   7.703  20.614 -0.1600 -0.2470 -0.1381
68854W        W11870  20.647   9.241  23.131  0.1665 -0.0608 -0.0092
68855W        W11871  24.536   9.200   5.162 -0.1061  0.1079 -0.1246
68856W        W11872  17.415   3.427  18.384  0.0560  0.1390 -0.0946
68857W        W11873  17.521  13.389  29.046 -0.0961  0.2008 -0.1006
68858W        W11874  24.326   7.021   2.638  0.2358 -0.0403  0.1972
68859W        W11875   1.281  33.809  26.161  0.0853 -0.1290 -0.2351
68860W        W11876  30.065  26.383  28.736  0.0292 -0.1624  0.3122
68861W        W11877  30.224  30.702   1.220  0.0371  0.1238  0.0700
68862W        W11878  29.175  30.905  24.668 -0.0746  0.3178 -0.2196
68863W        W11879  27.723  21.130  15.140 -0.0117 -0.3041  0.0209
68864W        W11880  20.145  16.510  28.551 -0.2559  0.1347  0.1902
68865W        W11881  17.672  33.502  26.673  0.2110  0.3742  0.5585
68866W        W11882  26.425   1.447   7.139  0.1191  0.0793  0.0678
68867W        W11883   4.694   8.524  26.266  0.2333 -0.2725  0.0086
68868W        W11884  14.159  12.917  19.082 -0.2997 -0.1279  0.3250
68869W        W11885  15.563  31.101  18.432  0.1804 -0.0619 -0.2250
68870W        W11886  24.176   4.869  24.126  0.1130 -0.1505  0.1231
68871W        W11887  12.687  17.029   1.967 -0.0696  0.1591  0.2546
68872W        W11888  20.383   3.039  18.678  0.0447 -0.1232 -0.2409
68873W        W11889  17.171   3.459  14.532  0.0463  0.3328  0.3457
68874W        W11890   7.735   5.811  16.597 -0.2211 -0.2826 -0.2842
68875W        W11891   4.998   0.720  26.088 -0.0040  0.1369 -0.1454
68876W        W11892  33.171  17.630  15.501  0.0050  0.0812  0.0510
68877W        W11893  17.436  11.714   2.101 -0.0223 -0.0739  0.0343
68878W        W11894  25.582   9.270  20.731  0.0359 -0.1747 -0.1283
68879W        W11895  14.773  22.042  25.085 -0.0168  0.2498 -0.3250
68880W        W11896   1.065   4.509  23.373 -0.1856 -0.1083  0.0660
68881W        W11897  17.086  14.797  23.675  0.2180 -0.1670  0.3346
68882W        W11898  24.612  15.703  22.321 -0.2586  0.0336  0.1748
68883W        W11899  33.389  29.370   4.262  0.0057 -0.1136 -0.0217
68884W        W11900   1.480   7.712   7.119  0.2574  0.0940  0.4577
68885W        W11901   5.698  31.774  14.464  0.3757  0.1185  0.0241
68886W        W11902  19.674   5.288  21.578 -0.0545 -0.0289  0.1547
68887W        W11903  34.219  20.677  19.584 -0.3202 -0.1246 -0.0051
68888W        W11904  24.750  17.574  20.831 -0.1467  0.2141  0.0243
68889W        W11905  17.943  16.716  26.037 -0.1237 -0.0780 -0.2740
68890W        W11906   9.616  33.093   0.494 -0.1952  0.0091  0.3229
68891W        W11907  18.487  30.824  26.212 -0.1212  0.1255  0.2407
68892W        W11908  13.821  13.211  17.889  0.1434 -0.0325 -0.0657
68893W        W11909  20.583  34.155   8.438 -0.0929 -0.0423  0.0177
68894W        W11910  25.663  33.350  19.393  0.0191  0.0763 -0.1512
68895W        W11911   4.658   0.732  28.644  0.2760 -0.0524  0.0697
68896W        W11912  19.523  30.113  27.443 -0.0377  0.0653 -0.2026
68897W        W11913  12.396   1.647  25.924 -0.2418  0.0771 -0.0684
68898W        W11914  25.038   7.278  25.500 -0.0060 -0.0456  0.1084
68899W        W11915  23.566  34.127  20.497 -0.0101  0.0674  0.1791
68900W        W11916  32.599   1.219  16.915  0.1782 -0.1988 -0.2603
68901W        W11917  18.750   7.892  21.985 -0.0401 -0.1510 -0.1895
68902W        W11918  26.512  25.066   2.223  0.2467  0.0380 -0.1449
68903W        W11919   1.477   7.310  26.516  0.1028 -0.0820  0.0629
68904W        W11920  18.144  16.630  24.674 -0.1782  0.1577 -0.1291
68905W        W11921  23.734  22.222  20.782  0.2554 -0.1804 -0.1298
68906W        W11922  17.644  12.813   7.511 -0.0623 -0.0531 -0.1439
68907W        W11923  11.335  11.705  13.836 -0.1711 -0.1977 -0.1122
68908W        W11924  31.231   3.751  25.110 -0.2970 -0.7079  0.1271
68909W        W11925  23.506   7.416  20.108 -0.2834  0.3915  0.0523
68910W        W11926  11.418  26.101  17.427  0.1255 -0.0672 -0.1991
68911W        W11927  12.240  28.259  13.901 -0.1715 -0.0413 -0.0779
68912W        W11928  22.102   2.268   4.126  0.1500  0.1942 -0.0522
68913W        W11929  28.949   2.312  24.726  0.2009  0.0601  0.1479
68914W        W11930  13.964   4.847   4.062 -0.3211 -0.4071 -0.0586
68915W        W11931   5.217  31.377  27.520 -0.1449 -0.1958  0.3474
68916W        W11932  28.431   3.426  26.096 -0.0784  0.2189  0.1456
68917W        W11933  31.852  15.737  28.022  0.0925 -0.3016  0.0268
68918W        W11934  13.935   0.616  14.391  0.0553  0.0704  0.1369
68919W        W11935  11.641  24.057  23.111 -0.0854 -0.2838  0.3079
68920W        W11936  20.638   6.258  20.923  0.2550 -0.3236 -0.0847
68921W        W11937   1.179  33.289  18.122  0.2271 -0.2031  0.0560
68922W        W11938  31.204  28.094   0.905 -0.0017  0.1749 -0.1638
68923W        W11939  17.121   5.552  25.900 -0.2527 -0.0922  0.1319
68924W        W11940  27.885  13.740   1.856 -0.2710 -0.1398 -0.2484
68925W        W11941   7.090  15.750  19.268 -0.1041  0.0978 -0.0297
68926W        W11942  10.706  10.925  21.184  0.0623 -0.2761 -0.0743
68927W        W11943   7.675  30.133  25.309 -0.1399  0.1242  0.1923
68928W        W11944  19.078  11.017  23.110 -0.0743  0.0743 -0.1594
68929W        W11945   3.367   1.303   2.634 -0.0185 -0.1216 -0.1635
68930W        W11946  10.214  30.522  22.062  0.2172  0.0498  0.0068
68931W        W11947  28.918  32.668   7.558 -0.1776 -0.3034  0.1550
68932W        W11948  33.461  11.599  24.611 -0.1562  0.0194  0.1862
68933W        W11949  15.231  12.833  24.062 -0.0374 -0.1483  0.0685
68934W        W11950  10.150  28.699  15.898  0.0276  0.1511 -0.1266
68935W        W11951   2.787  23.842   5.566  0.2353  0.2605  0.4123
68936W        W11952  11.138  13.733  12.329  0.4498  0.0348 -0.2933
68937W        W11953  13.377  28.242  24.574 -0.2623  0.0582 -0.1699
68938W        W11954   4.277  34.563  23.581  0.1141  0.1689  0.0063
68939W        W11955   3.805  14.613  19.576  0.1764 -0.1870 -0.1009
68940W        W11956  19.330  14.117  22.943 -0.2000 -0.2763  0.1148
68941W        W11957   8.949  28.403  23.422  0.0497  0.2837  0.0187
68942W        W11958  10.418   9.350   2.912  0.1617 -0.0974  0.0528
68943W        W11959  29.352   9.850  23.919  0.2019 -0.0253 -0.0571
68944W        W11960  16.320  32.485  28.689 -0.1891 -0.2666  0.0248
68945W        W11961  20.331  32.870  28.483  0.3159  0.1295  0.1711
68946W        W11962  24.661  28.167  21.156  0.3762  0.0777 -0.2782
68947W        W11963  17.554  26.458   2.212 -0.0775 -0.1785  0.0334
68948W        W11964   1.962  16.895  23.415 -0.1039  0.2367 -0.2099
68949W        W11965  27.599  26.351  23.756  0.0225 -0.0464 -0.0713
68950W        W11966  14.817   1.685  16.650 -0.3323 -0.1814  0.3457
68951W        W11967  14.342   8.734  26.953  0.0287 -0.2084 -0.0458
68952W        W11968  16.085  25.818  18.212 -0.1372  0.0296 -0.0241
68953W        W11969  29.958   5.319  16.056  0.1315  0.1286  0.2225
68954W        W11970  15.192  23.873  24.911  0.0251 -0.1042 -0.2791
68955W        W11971  12.410  33.334  28.022  0.1365  0.0355  0.0794
68956W        W11972   4.202  14.481  25.313  0.0064 -0.0850 -0.0508
68957W        W11973  14.116  12.359  22.646  0.0725 -0.2450 -0.2525
68958W        W11974  32.281  27.977  27.108  0.2585  0.0567 -0.2682
68959W        W11975  12.257  10.888  13.212 -0.0379  0.0258  0.0493
68960W        W11976  12.707  30.874  25.737 -0.0898  0.1382 -0.1392
68961W        W11977  25.067   6.974   2.954 -0.1376  0.2312  0.4532
68962W        W11978  18.930  11.317  22.540  0.0917 -0.1017  0.0919
68963W        W11979   9.974   4.522  17.041  0.3164 -0.0296 -0.1493
68964W        W11980  17.597  34.491  25.896 -0.0593 -0.3788 -0.1890
68965W        W11981   5.095   0.311  23.897  0.2640 -0.2401 -0.2765
68966W        W11982  21.644  32.081   9.003 -0.1600 -0.1721  0.2633
68967W        W11983   9.626  19.386  15.912 -0.0416 -0.4182 -0.2551
68968W        W11984   4.191   2.053   6.232 -0.2121 -0.0252  0.1013
68969W        W11985  20.225  31.931   4.991  0.1208 -0.2077  0.2007
68970W        W11986   6.669  33.796  22.259 -0.2352  0.0893  0.2075
68971W        W11987   0.186   8.032  27.248  0.1026  0.1146 -0.1400
68972W        W11988   8.495  22.726  29.000  0.3309 -0.2905  0.3569
68973W        W11989  13.824  10.768  21.077 -0.0132  0.0855 -0.0422
68974W        W11990  25.380   3.150   0.653  0.0035  0.0478  0.0291
68975W        W11991   3.712   7.064  19.435  0.1864  0.3150  0.0570
68976W        W11992  14.038  30.383   4.702  0.0952 -0.1526  0.1064
68977W        W11993  11.806  10.504  13.889  0.0579  0.1468  0.1068
68978W        W11994   8.039   4.886   3.266  0.1773 -0.2838 -0.0766
68979W        W11995  16.350  16.117  13.837 -0.2210  0.3936  0.1374
68980W        W11996   9.569  29.082  26.267  0.2107  0.1032 -0.0978
68981W        W11997  26.467   9.581  25.138 -0.1182  0.1810  0.0089
68982W        W11998  25.100  10.591  24.311 -0.2544  0.1510 -0.0769
68983W        W11999  30.354  30.122   6.770 -0.2342  0.1199  0.0759
68984W        W12000  34.527   2.702  19.986  0.1233 -0.1677 -0.2109
68985W        W12001   6.245  26.270  20.922  0.1824 -0.0104 -0.2150
68986W        W12002  33.475   1.661  19.047 -0.1986  0.1959  0.0746
68987W        W12003   6.414   8.729  14.237 -0.0173 -0.1752 -0.1165
68988W        W12004  15.711  30.496  25.332 -0.2304 -0.1729 -0.0865
68989W        W12005  12.945  31.706   9.976 -0.1773  0.0414 -0.0390
68990W        W12006   6.454  22.826  16.970 -0.0000  0.0779 -0.0670
68991W        W12007  17.754  30.949   3.912  0.3129  0.2087 -0.3842
68992W        W12008  22.942  34.745   7.088 -0.1284 -0.0100 -0.0169
68993W        W12009   7.034   0.832  27.860 -0.2373  0.2566  0.1090
68994W        W12010  26.992  28.737   1.569  0.1111 -0.3769 -0.1255
68995W        W12011  16.925  26.211   4.525  0.0434  0.1673  0.0180
68996W        W12012  24.323   5.767  23.489  0.2684 -0.0902  0.0844
68997W        W12013   8.235  24.770   5.532  0.0126  0.0127 -0.3630
68998W        W12014  16.225  24.483   8.125  0.2310  0.2110 -0.2448
68999W        W12015  14.401  17.360  26.257 -0.0089  0.1343 -0.1183
69000W        W12016  26.255  16.252  27.665  0.0532 -0.0631  0.2622
69001W        W12017   5.595  18.326  24.789 -0.1812  0.0327  0.0339
69002W        W12018  27.742  13.330  28.324  0.1123 -0.0199  0.0080
69003W        W12019  17.085  10.594  13.366  0.2170  0.2194 -0.0479
69004W        W12020  19.457  10.879   4.496  0.2464  0.0273  0.1897
69005W        W12021   0.918  16.553  25.224  0.1082  0.3321 -0.0478
69006W        W12022   2.396  23.839   5.877 -0.2456 -0.1237  0.1669
69007W        W12023  24.931  21.238  29.139  0.1253  0.0686  0.0417
69008W        W12024   6.159   3.775  18.937  0.1534  0.1083 -0.1312
69009W        W12025   9.823  13.405   7.874  0.0742  0.0849 -0.0393
69010W        W12026  17.137   3.334  25.397  0.1048 -0.2542 -0.1597
69011W        W12027  20.681  29.545  21.367 -0.2039 -0.0595 -0.2053
69012W        W12028  20.224  12.825  17.683  0.2689 -0.1327 -0.4404
69013W        W12029  15.056   7.533  15.502 -0.1690  0.1545  0.0664
69014W        W12030   9.325   7.159  28.648  0.0867 -0.2783  0.1782
69015W        W12031  34.689   7.156  23.630  0.2341 -0.1631 -0.2027
69016W        W12032  10.553  33.971  14.258  0.1663  0.2827 -0.0207
69017W        W12033   5.428   2.129  14.500 -0.0776 -0.0252 -0.0115
69018W        W12034  14.348  16.951  21.767 -0.0760 -0.0184  0.0842
69019W        W12035  21.179  19.204   1.936  0.1111 -0.0439  0.0501
69020W        W12036   4.920  18.028  22.569  0.0912  0.2344  0.0856
69021W        W12037   5.258   5.293  16.050  0.4310  0.1306 -0.0216
69022W        W12038  11.863  12.638  23.584  0.3795  0.0371  0.1684
69023W        W12039  19.506  10.520  14.403  0.4684  0.2587 -0.0590
69024W        W12040  11.763   9.571   8.727 -0.0766  0.4739  0.0274
69025W        W12041  13.686   0.050   5.039 -0.0056 -0.0124 -0.2494
69026W        W12042  26.043  33.339  28.614 -0.3350  0.1622 -0.0009
69027W        W12043  22.355  18.807   4.074  0.1132 -0.1303  0.0216
69028W        W12044   7.695  28.929   2.758 -0.2176  0.2848  0.1595
69029W        W12045   3.057  22.503   3.036  0.0425 -0.1530  0.0747
69030W        W12046  26.732  21.072   0.327 -0.2799  0.2434 -0.1135
69031W        W12047  21.568  32.162  28.529 -0.0390  0.1104  0.0929
69032W        W12048   3.455  10.347  15.394  0.0342  0.0982  0.1665
69033W        W12049  27.873   5.787  23.498 -0.2263 -0.1977 -0.5515
69034W        W12050  25.894   8.669  24.514  0.0027  0.0221 -0.0598
69035W        W12051   7.490   0.401   7.771  0.1224  0.0639 -0.0173
69036W        W12052  17.503  17.634  14.927 -0.0653  0.0617 -0.0445
69037W        W12053  27.860  15.260  18.821  0.0134  0.2800  0.0134
69038W        W12054  14.130   4.893   3.616  0.0525 -0.3513 -0.2453
69039W        W12055  26.484  34.688  17.635 -0.2945 -0.1950 -0.0970
69040W        W12056   3.806   7.858  25.792  0.2877 -0.4365 -0.0352
69041W        W12057   2.356  32.112   8.933 -0.2744  0.0299  0.3187
69042W        W12058  18.202  32.551   2.294 -0.2871 -0.0753 -0.2535
69043W        W12059  15.552  27.800  14.683 -0.0074  0.4476  0.1328
69044W        W12060  11.928   4.867  25.609 -0.2090  0.2799 -0.0610
69045W        W12061  19.651  30.217  15.844  0.0257 -0.2613  0.2235
69046W        W12062   4.339  32.839  28.418  0.0451  0.6029 -0.1227
69047W        W12063  13.383  15.781  25.558  0.0998  0.3013  0.2036
69048W        W12064   0.200   4.333   2.829  0.1251  0.0083 -0.0428
69049W        W12065   8.225   7.029   2.025  0.0486 -0.2539  0.6098
69050W        W12066   0.272  20.483  21.219 -0.1221 -0.0781 -0.0279
69051W        W12067  22.058  28.137  25.804  0.0922  0.0455  0.1394
69052W        W12068  19.074  31.019   7.064 -0.1694 -0.0742 -0.2264
69053W        W12069  10.263  24.245  22.594  0.3736 -0.2382  0.0828
69054W        W12070  14.125  19.476  23.516 -0.0151  0.0200  0.0402
69055W        W12071  30.187   5.204  28.484  0.0532 -0.3781  0.1328
69056W        W12072   5.136  33.966  10.171 -0.0652 -0.3011  0.2535
69057W        W12073  13.193   4.168   6.572 -0.0906  0.2153  0.0736
69058W        W12074  23.281   6.403  27.716  0.0151 -0.0220  0.1095
69059W        W12075  13.346   8.927  16.434 -0.2954 -0.0635  0.0061
69060W        W12076  16.764   7.973  22.422  0.1074 -0.1380 -0.2420
69061W        W12077   6.211   1.829   9.954 -0.1162  0.0840  0.1407
69062W        W12078  15.253  31.865  20.142 -0.0432 -0.1735  0.1567
69063W        W12079  12.800  15.039  23.107  0.0941 -0.1653 -0.1974
69064W        W12080   9.159  22.171  13.965 -0.1812 -0.2739  0.0649
69065W        W12081  20.791  19.737  28.504 -0.0589  0.2101  0.1733
69066W        W12082  21.667  28.950  15.529  0.0934 -0.0355  0.1952
69067W        W12083   7.329  10.791  20.014 -0.0078 -0.1261  0.1172
69068W        W12084  15.911   0.062  15.137 -0.1699 -0.0814 -0.1196
69069W        W12085  21.593  34.019  20.303  0.1097 -0.0039  0.2118
69070W        W12086  12.762  15.509  14.532  0.0360  0.2850  0.1062
69071W        W12087   8.477   2.377   7.724 -0.0314  0.0976 -0.5134
69072W        W12088  20.638  31.211  16.754  0.1470  0.4348  0.1446
69073W        W12089  26.434   8.837  27.269  0.0373  0.1302  0.0203
69074W        W12090   1.046   7.114  27.126 -0.0249  0.0850 -0.1075
69075W        W12091  21.491  34.039  25.916 -0.0335  0.0829 -0.3130
69076W        W12092   5.896  10.073  14.504 -0.0310 -0.4486 -0.2191
69077W        W12093  15.315  18.003   1.198 -0.0463  0.1165 -0.1432
69078W        W12094  16.423   8.774  14.903  0.1051 -0.2074 -0.1823
69079W        W12095  19.165  32.305  25.072  0.0592 -0.0084  0.1929
69080W        W12096   4.843  30.228  18.082  0.0375  0.0700 -0.2957
69081W        W12097  32.896   9.410  14.001  0.2038  0.0201  0.1080
69082W        W12098  25.390  15.759  14.091  0.0327 -0.1750 -0.0983
69083W        W12099  15.945  28.421  20.563 -0.1190 -0.1299 -0.0414
69084W        W12100  18.369  23.955  27.773  0.2191  0.1133  0.0602
69085W        W12101   9.084   6.205  27.458 -0.2700 -0.0265 -0.0480
69086W        W12102  17.598   6.054  21.668  0.2839  0.0897  0.5719
69087W        W12103  25.880   5.876   3.225  0.1287 -0.0305  0.1546
69088W        W12104  22.825  15.205  12.747 -0.1216 -0.1557  0.2415
69089W        W12105  31.886  24.843  23.332  0.1113  0.2038  0.0532
69090W        W12106   0.680   1.543  15.869  0.1311  0.3129  0.1349
69091W        W12107  18.549  10.983  27.225  0.1004 -0.0655  0.2345
69092W        W12108  22.027  30.237   0.881 -0.2779  0.1401  0.0706
69093W        W12109  21.134   8.455  18.761 -0.0364 -0.0431 -0.0892
69094W        W12110   7.410   0.217  20.757 -0.0679 -0.1147 -0.2414
69095W        W12111  19.825   1.225  22.617  0.0287 -0.2550  0.0327
69096W        W12112  24.661  19.110  17.258 -0.0676  0.1413 -0.2555
69097W        W12113  23.503   0.385  20.481  0.2796 -0.0684 -0.1223
69098W        W12114  24.481  22.137  20.888 -0.0287  0.0862 -0.3226
69099W        W12115  11.860  29.781  25.013  0.1886  0.2211 -0.0252
69100W        W12116  18.605   9.952   0.047 -0.0743 -0.3821 -0.2881
69101W        W12117  12.114  32.634  19.399 -0.1143 -0.0159  0.0284
69102W        W12118   9.384  23.840  23.461 -0.1695 -0.0097  0.0816
69103W        W12119  30.980   6.261  27.595 -0.0677 -0.0368 -0.4303
69104W        W12120  17.377   3.875  22.102 -0.0652  0.2859 -0.1874
69105W        W12121  19.946  17.356   1.922 -0.2112  0.3181  0.0870
69106W        W12122  13.944  34.606  20.687 -0.2154 -0.2693  0.1455
69107W        W12123  23.346  13.786  14.858 -0.0565  0.0723 -0.3059
69108W        W12124  23.681  34.200  16.971  0.2279 -0.1560  0.0681
69109W        W12125  22.405  32.501  25.316 -0.1995 -0.3957  0.1187
69110W        W12126   9.523  14.777  16.576  0.0416  0.1259 -0.0262
69111W        W12127   9.772  10.034   6.602  0.1613  0.2109 -0.0001
69112W        W12128  33.922   1.997   3.259 -0.2392 -0.1623  0.0445
69113W        W12129  13.036   7.458   2.006 -0.0701  0.2718 -0.3648
69114W        W12130  34.127   7.881  25.860 -0.1828 -0.3692  0.1667
69115W        W12131   0.148  12.417  26.624  0.0150 -0.3437 -0.0784
69116W        W12132  10.385  21.523  12.434 -0.4058  0.0314  0.0013
69117W        W12133  16.180   7.512  26.766 -0.0142  0.1805 -0.1313
69118W        W12134  21.306   2.255   3.536 -0.2074 -0.2566  0.0581
69119W        W12135   5.949  27.442  17.155  0.1504 -0.1286 -0.3545
69120W        W12136  27.033  30.337  17.802 -0.0639 -0.0310  0.0269
69121W        W12137  21.788   3.846  17.988 -0.3254  0.0170  0.1322
69122W        W12138  14.947  12.829  16.104 -0.1010 -0.0120  0.0623
69123W        W12139  33.459  34.742  22.317  0.4122 -0.0949 -0.2426
69124W        W12140   2.261  15.218  20.903 -0.0131 -0.1294 -0.0426
69125W        W12141   6.707  32.309   5.166 -0.1241 -0.0312  0.1964
69126W        W12142  11.662  12.441  17.997 -0.0448  0.0499 -0.0916
69127W        W12143  24.964   9.931  21.553  0.1781 -0.3157  0.1854
69128W        W12144  13.514   7.610  26.267  0.0868  0.0541 -0.0187
69129W        W12145   1.122  24.102  23.182  0.4730  0.3880 -0.0801
69130W        W12146  10.919  20.163   5.385  0.0518 -0.0397 -0.0415
69131W        W12147  17.983  12.883  28.473 -0.3494 -0.1833  0.2009
69132W        W12148   9.929  32.051  15.303  0.0849  0.1885 -0.0810
69133W        W12149  22.130   7.961  13.986 -0.3483  0.1781 -0.0843
69134W        W12150  24.393  34.105  20.420 -0.1623  0.0575  0.1505
69135W        W12151  21.320  15.345  18.928  0.0787  0.2494  0.0813
69136W        W12152  18.658  10.711   2.549 -0.3506 -0.0068 -0.1268
69137W        W12153  20.595  10.952  18.290 -0.1395 -0.2079  0.1339
69138W        W12154  33.491  29.950  17.499 -0.0927  0.2308  0.4670
69139W        W12155  22.847  19.326  17.246  0.1667  0.3310  0.0667
69140W        W12156  18.809   1.597  18.443  0.0368  0.1174  0.0200
69141W        W12157  26.362  25.348  23.554 -0.1269  0.0077 -0.2947
69142W        W12158  30.079   7.983  15.500 -0.0199  0.2738  0.1714
69143W        W12159  16.567   3.119  18.501 -0.1037 -0.0815  0.1728
69144W        W12160  18.139   7.661   8.246  0.1595  0.0074 -0.0700
69145W        W12161  31.002  32.510   8.172  0.0147  0.1003  0.0899
69146W        W12162  14.847   1.740   3.024 -0.3222  0.0898 -0.2133
69147W        W12163   5.060   5.754  23.377 -0.1728 -0.0484  0.0544
69148W        W12164  10.038  19.989  15.791  0.4027  0.2254  0.0811
69149W        W12165  10.059  28.591  16.462 -0.0728 -0.1487  0.0152
69150W        W12166  17.989  18.117  13.928  0.3702  0.3466  0.0406
69151W        W12167  18.118  27.651   6.931 -0.1245  0.0069 -0.1193
69152W        W12168  18.529  24.590  15.218 -0.0708 -0.0228  0.0215
69153W        W12169  18.869   0.811  16.332 -0.0427 -0.0981  0.0297
69154W        W12170  29.967  28.772  23.533 -0.0886 -0.0625  0.1006
69155W        W12171  13.055   4.889  14.541 -0.2336 -0.0005 -0.0061
69156W        W12172  21.633  11.488  18.393  0.0840  0.2544 -0.1568
69157W        W12173  11.520  11.162  16.428 -0.0059  0.2214 -0.0815
69158W        W12174   2.061  16.527  22.241 -0.0556 -0.0612 -0.0231
69159W        W12175  21.999   1.757  21.089  0.1058  0.2823 -0.0325
69160W        W12176  33.719  17.669  26.551  0.0089  0.0490  0.0693
69161W        W12177  29.613  23.696  24.281  0.4528 -0.0262  0.1334
69162W        W12178  27.208  18.559  23.529  0.0953 -0.0839  0.2455
69163W        W12179  25.301  21.295  22.879  0.0055 -0.0148  0.4220
69164W        W12180  10.481   6.721  22.916  0.0897 -0.0038 -0.2881
69165W        W12181  16.207   7.210  20.640 -0.0540  0.1418 -0.1504
69166W        W12182  28.819  20.541  14.816  0.0158 -0.0882 -0.0802
69167W        W12183  13.600  13.374  15.683  0.3066  0.1523 -0.2176
69168W        W12184   9.509  24.390  27.434  0.3413 -0.0792 -0.2663
69169W        W12185  33.247  15.480  22.610  0.1186  0.0775  0.0052
69170W        W12186  30.300  10.026  16.656 -0.0212  0.0106  0.1950
69171W        W12187  21.341   4.815  21.527  0.1925  0.1433  0.1615
69172W        W12188  22.231   0.849   2.655  0.0729 -0.0873  0.1703
69173W        W12189  14.748   2.437  25.901  0.3581 -0.0365 -0.0442
69174W        W12190  24.660   5.239  24.178  0.1947  0.0063  0.1752
69175W        W12191   7.999  23.749   5.977 -0.0069  0.0815  0.3427
69176W        W12192   7.932  10.819  14.610 -0.2477 -0.2230 -0.0686
69177W        W12193  11.710   9.834  14.130 -0.0475  0.0121  0.0144
69178W        W12194   8.371  14.937  18.224 -0.0539  0.1670 -0.0591
69179W        W12195  12.596  23.477  27.913 -0.3997 -0.1545  0.0410
69180W        W12196  18.476  14.139  12.316 -0.2123 -0.3380  0.1904
69181W        W12197  12.074  21.101  29.103 -0.2373 -0.1677  0.2634
69182W        W12198  12.019  29.685  19.327  0.2673 -0.1187 -0.3290
69183W        W12199  19.774   8.697   2.252 -0.1026 -0.1446  0.0157
69184W        W12200  16.422  11.864  19.650 -0.2256  0.1520  0.0288
69185W        W12201  11.997  28.084  18.455  0.1612 -0.2532 -0.0928
69186W        W12202   2.499  31.946  23.069  0.2985  0.1159  0.3022
69187W        W12203  27.697  11.657  26.771  0.4778 -0.1037  0.0839
69188W        W12204  27.823  33.152  27.050 -0.0883  0.1844 -0.3320
69189W        W12205  22.157  26.654  17.996 -0.2540  0.2697 -0.0218
69190W        W12206  25.882  28.604  22.844  0.3473 -0.2260  0.1618
69191W        W12207  22.044  11.926  22.947 -0.0553  0.1041  0.1463
69192W        W12208   4.665   2.591  14.914  0.0675  0.2642 -0.0510
69193W        W12209  23.063   7.548  20.029  0.0507 -0.0570  0.0344
69194W        W12210   6.428  26.496  13.930  0.2182 -0.0534 -0.0060
69195W        W12211  16.627  11.418  21.229  0.2369  0.1606 -0.0978
69196W        W12212   9.167  15.705  14.379 -0.0086 -0.1371 -0.0981
69197W        W12213  14.166  32.302  16.510  0.2565  0.0884 -0.0774
69198W        W12214  18.351  20.609  15.244 -0.0265  0.3488  0.1645
69199W        W12215  16.104   7.091  28.554  0.2072  0.1441 -0.0340
69200W        W12216   0.435   5.743  29.226 -0.3514  0.0138  0.2128
69201W        W12217  27.559  19.861  16.756  0.0150  0.2770 -0.2459
69202W        W12218  33.874  13.049   5.430  0.1670  0.3839  0.1187
69203W        W12219  22.054  10.757   4.537 -0.2967  0.1349 -0.1758
69204W        W12220   9.510   4.698  19.065  0.1877 -0.1997 -0.0284
69205W        W12221  22.987   2.134  27.321  0.0190 -0.0164  0.2935
69206W        W12222  16.685   9.213  24.538  0.2659 -0.1476  0.3481
69207W        W12223   3.407   0.530  15.068  0.1556 -0.2909 -0.1429
69208W        W12224  28.004  10.987  15.813  0.0642 -0.1889 -0.3218
69209W        W12225  20.757   6.913  24.680 -0.0479 -0.0732  0.0025
69210W        W12226  10.368   3.279  23.253  0.1275 -0.3082  0.2256
69211W        W12227  18.151   0.922  18.446 -0.0577  0.2633  0.0086
69212W        W12228   9.921  32.261  21.491  0.0400 -0.2157 -0.3199
69213W        W12229  28.483  16.276  15.932  0.4088  0.0800 -0.1845
69214W        W12230   3.934  15.442  17.837  0.0609 -0.0531 -0.3154
69215W        W12231  19.877  28.707   3.560 -0.2446  0.1201  0.3981
69216W        W12232  17.272  32.763  22.782 -0.5524  0.3012  0.1541
69217W        W12233  29.742  34.588   2.597  0.1177  0.0082  0.1107
69218W        W12234  20.520  10.617  26.469  0.1124 -0.1617  0.1170
69219W        W12235   4.562   2.177  26.216 -0.1888  0.1537 -0.1398
69220W        W12236   0.605  12.516  25.914  0.0221 -0.2634  0.1663
69221W        W12237  18.620  28.867  17.597 -0.1031 -0.1701 -0.0458
69222W        W12238  28.182  19.989  24.226  0.1160  0.1183 -0.2314
69223W        W12239  33.378   1.893  21.038 -0.1116  0.1721  0.1834
69224W        W12240   8.645  12.021  17.698 -0.0875 -0.3766  0.1685
69225W        W12241  24.629   7.154  18.531  0.0275  0.0507 -0.0630
69226W        W12242  24.654  25.960   5.428  0.3267 -0.1189  0.0943
69227W        W12243  18.514  26.552  18.921 -0.1374 -0.1692 -0.2733
69228W        W12244  22.158   1.627   4.456  0.2617  0.1222  0.0632
69229W        W12245  18.297   2.811  26.755  0.0897  0.0998  0.1380
69230W        W12246  22.090   4.119  15.243 -0.0173  0.0356 -0.2994
69231W        W12247  20.974   6.182  18.111  0.2390  0.1513 -0.4098
69232W        W12248  16.794   8.881   6.453 -0.0894  0.1286  0.2153
69233W        W12249  25.665   6.662  24.819 -0.2256 -0.6041  0.0248
69234W        W12250  13.052  15.509  14.118  0.1963  0.0277 -0.1465
69235W        W12251  21.537  30.059  19.097 -0.2693  0.0035  0.0874
69236W        W12252   4.949  14.254  19.559 -0.1903 -0.1287 -0.0715
69237W        W12253  11.247   8.641  18.056  0.1603 -0.0019 -0.0097
69238W        W12254  16.973  31.827  18.999 -0.1418 -0.1858  0.0811
69239W        W12255  22.935  28.856  18.838  0.2630  0.3430 -0.1407
69240W        W12256  19.062  32.959  25.722  0.3766  0.1486  0.2682
69241W        W12257  17.821   3.008  26.192 -0.0465 -0.1027 -0.1386
69242W        W12258  26.270  10.765  26.309 -0.4599 -0.0397 -0.1546
69243W        W12259  19.710   4.567  25.880 -0.0775 -0.1217 -0.4159
69244W        W12260  15.496   3.745  22.612  0.1158 -0.1171  0.0134
69245W        W12261  28.008   5.852  17.900  0.2368 -0.0795 -0.0756
69246W        W12262   8.883   0.590  27.088  0.2639 -0.0281  0.1168
69247W        W12263  21.972   2.468   2.032 -0.1230 -0.1811  0.1873
69248W        W12264   0.949   5.596  14.675 -0.2734  0.1773 -0.2371
69249W        W12265  19.013   9.278  20.815 -0.0007  0.2666 -0.1292
69250W        W12266   5.918  10.037  15.301  0.0848  0.1184  0.1444
69251W        W12267  15.070  30.944  18.554 -0.0308  0.0063  0.3692
69252W        W12268   4.442   0.340  19.163  0.2623 -0.0049 -0.1773
69253W        W12269  34.477  11.168  14.590 -0.0566 -0.0506  0.1689
69254W        W12270  23.145  10.108  13.783  0.2203  0.1166  0.0095
69255W        W12271  18.211  25.660  15.774 -0.1625 -0.2795  0.2388
69256W        W12272  14.635   0.722   1.233  0.1763 -0.0229  0.1254
69257W        W12273  28.436  10.850  18.911  0.0608  0.2285 -0.1081
69258W        W12274  21.908  26.683  14.866 -0.1144  0.0117  0.0408
69259W        W12275  13.915   3.662  23.314  0.2509 -0.3394  0.0070
69260W        W12276  33.718   3.128  16.320  0.0341 -0.1284 -0.2738
69261W        W12277  19.104   8.841  18.922 -0.1056 -0.0403 -0.1437
69262W        W12278  31.573   2.299  26.407 -0.2064 -0.1218 -0.0998
69263W        W12279  25.096  33.166  17.691 -0.2633  0.0434  0.2423
69264W        W12280   7.152  31.250  18.593 -0.4263  0.0734 -0.1699
69265W        W12281  12.529   5.138  24.177  0.3539  0.2405 -0.3267
69266W        W12282  19.292  31.565  20.044 -0.4378 -0.0835  0.0824
69267W        W12283  21.830   8.168  21.204  0.2565  0.1472  0.0394
69268W        W12284  24.736  23.928  22.605 -0.2091 -0.1223  0.1024
69269W        W12285  17.602   7.896  25.542  0.0612 -0.0781  0.0733
69270W        W12286  14.856  32.186  15.019  0.1735  0.1611  0.0002
69271W        W12287  21.722   4.878  14.874  0.0759 -0.1893 -0.1706
69272W        W12288  16.625   1.158  14.801 -0.1934  0.1052 -0.3487
69273W        W12289  18.426   2.980  25.846  0.2579  0.0222 -0.1519
69274W        W12290  19.991  30.058  19.741  0.0210 -0.1450  0.0214
69275W        W12291  18.684   8.674  24.864 -0.1830 -0.0635  0.0879
69276W        W12292  11.925  33.843  17.311  0.2395  0.0160  0.2159
69277W        W12293  10.531   4.275  15.845 -0.1522  0.0790  0.1242
69278W        W12294   4.178   9.969   5.459 -0.2770 -0.0205  0.0781
69279W        W12295  19.706  32.971  21.213  0.0563  0.0134  0.2731
69280W        W12296  10.273  11.125  19.174 -0.1468  0.0295 -0.0184
69281W        W12297   8.755  32.351  18.545 -0.3388  0.1117  0.1644
69282W        W12298  11.904  12.614  16.011 -0.0258 -0.0360  0.2241
69283W        W12299  10.942  32.778  18.589  0.1371  0.2608 -0.0724
69284W        W12300  16.120  33.889  14.213 -0.2683 -0.3850 -0.0921
69285W        W12301  17.841  11.334  12.960  0.4089  0.1940  0.0466
69286W        W12302  17.134  14.151  11.864  0.3812  0.0269  0.0053
69287W        W12303  19.803  11.541  14.654 -0.0732  0.0829 -0.0009
69288W        W12304  23.174   6.787  26.391 -0.0062 -0.0305 -0.0480
69289W        W12305  18.581   3.684  25.169 -0.1461  0.2870  0.0427
69290W        W12306  29.034  27.427   1.508 -0.1823 -0.0045 -0.0667
69291W        W12307  13.924   5.321  21.527 -0.1502 -0.2645  0.1729
69292W        W12308  26.708  32.323  19.523  0.2370  0.0457  0.0656
69293W        W12309  27.971  11.402  25.955 -0.1304  0.0136  0.0032
69294W        W12310  18.076   8.231  23.612 -0.2068 -0.2558 -0.0013
69295W        W12311  18.274  26.398  14.951  0.2583 -0.0871 -0.0301
69296W        W12312  31.144   8.540  15.971  0.2578 -0.1345 -0.1198
69297W        W12313  32.818   3.891   7.345 -0.0449 -0.2563  0.0515
69298W        W12314  29.266  18.922  16.174  0.0922  0.0913  0.1202
69299W        W12315  10.428   2.934  20.393  0.2817 -0.3833  0.3130
69300W        W12316  33.619   8.876  14.499  0.3459 -0.0592  0.5048
69301W        W12317   7.519  29.857  19.793 -0.1849 -0.2531 -0.0655
69302W        W12318  14.368   9.622  16.789 -0.0539 -0.0183  0.1870
69303W        W12319  26.684   5.690  11.773 -0.3250  0.0891 -0.2700
69304W        W12320  20.648   5.360  21.381 -0.1643  0.0605  0.2563
69305W        W12321  17.092  11.165  17.128  0.0512 -0.1875 -0.0986
69306W        W12322  22.241   6.524  18.647 -0.0438 -0.2924 -0.0546
69307W        W12323  28.145  21.147  19.458 -0.3436  0.1881  0.1565
69308W        W12324   8.342   4.734  22.003  0.1746 -0.1044 -0.2082
69309W        W12325  16.162   7.151   9.058 -0.1290 -0.1444 -0.1308
69310W        W12326  18.819   1.777   3.826  0.3286  0.1739  0.0712
69311W        W12327  24.993  11.233  20.661  0.2305  0.1671  0.1299
69312W        W12328  16.368  30.253  17.702  0.0304  0.1355 -0.0504
69313W        W12329  24.171  19.952  16.976  0.2843 -0.1394  0.1430
69314W        W12330  20.052  12.509   3.314  0.1171  0.2842 -0.1417
69315W        W12331  25.406   3.023  23.110  0.0175  0.1123  0.0403
69316W        W12332  17.356  12.436  13.107  0.0090  0.0247  0.0023
69317W        W12333  33.212  33.125  25.988 -0.0987 -0.0978 -0.2163
69318W        W12334   9.126   6.316  23.992 -0.4575 -0.1516  0.2080
69319W        W12335   1.044   7.029  26.627 -0.1821 -0.0961  0.3098
69320W        W12336  15.990  33.158  16.070 -0.1833 -0.3541 -0.1484
69321W        W12337  19.656   4.320  22.168  0.0129  0.1831 -0.3460
69322W        W12338  17.453  31.182  28.912 -0.3419 -0.2085  0.1722
69323W        W12339  14.797  14.467  12.033 -0.5059 -0.2899  0.1577
69324W        W12340  29.671  12.587  17.127 -0.0036 -0.1750  0.0055
69325W        W12341   2.649  33.140  19.612 -0.1311 -0.1272 -0.0114
69326W        W12342  17.726   4.621  15.148 -0.0880 -0.0085 -0.1339
69327W        W12343  11.893   9.360  19.623 -0.1690  0.0745 -0.1341
69328W        W12344  30.856  32.418  21.550  0.1621 -0.3617  0.3748
69329W        W12345  17.100  23.372  14.758 -0.0967  0.1839  0.0818
69330W        W12346  15.179  33.857  21.636  0.1251 -0.1771 -0.2643
69331W        W12347  17.879  29.201  16.774  0.0660 -0.0407 -0.0701
69332W        W12348   3.533  17.807  15.323  0.1674  0.1095  0.0199
69333W        W12349  12.382   4.938  23.467 -0.1308 -0.2014  0.3735
69334W        W12350  17.374  12.593  28.221  0.3380 -0.2241 -0.2180
69335W        W12351  20.409  33.699  17.316 -0.1626 -0.2550  0.0742
69336W        W12352   8.430  13.709  21.080 -0.0393 -0.2069 -0.1229
69337W        W12353   3.085  31.313  24.556  0.0436 -0.1989  0.1128
69338W        W12354   8.848   7.055  20.727  0.2199  0.0717 -0.3162
69339W        W12355  11.005  14.007  22.630 -0.2451 -0.1156  0.1785
69340W        W12356   7.981  17.023  21.322 -0.0793 -0.1971 -0.0650
69341W        W12357  20.583   8.991  19.310  0.0687  0.1106  0.1228
69342W        W12358   1.291   9.446  14.788 -0.1448 -0.0294 -0.2711
69343W        W12359  12.076  32.536  21.723 -0.1675  0.1205 -0.2968
69344W        W12360  19.648  13.027  13.334  0.3633  0.0466 -0.0819
69345W        W12361  25.404  16.767  17.889 -0.2704 -0.2183 -0.1232
69346W        W12362  26.868  22.364  18.315  0.2240  0.1268  0.0529
69347W        W12363  18.182  28.232   3.600  0.1342  0.1894  0.1018
69348W        W12364   2.207  24.179  16.275  0.1017  0.0278 -0.0641
69349W        W12365  10.848  25.658   1.837 -0.0410 -0.3148 -0.0228
69350W        W12366  16.468   4.974   9.228 -0.1338  0.2883 -0.0309
69351W        W12367  14.773   9.116  16.669 -0.0887  0.3780  0.0376
69352W        W12368  27.334  34.274  22.608  0.3502  0.2030 -0.3599
69353W        W12369  13.266  33.797   1.433  0.0301 -0.0484  0.1861
69354W        W12370  29.276  27.363   3.223  0.3266 -0.1909  0.2380
69355W        W12371   9.735   2.570  24.223 -0.2496  0.3142 -0.1259
69356W        W12372  21.764   3.821  23.738  0.1396  0.1886  0.0583
69357W        W12373  18.115   5.098  24.484 -0.2085  0.0199 -0.3264
69358W        W12374   7.333   0.940  26.165 -0.1319  0.4275  0.3138
69359W        W12375  12.315  31.380  27.161  0.1779 -0.0118  0.0380
69360W        W12376   9.095  15.360  22.903  0.3473  0.0501 -0.1425
69361W        W12377  24.651  14.530   4.937  0.2287  0.5043  0.2339
69362W        W12378  19.421   7.583  22.657  0.1044  0.3458  0.2882
69363W        W12379   9.572   4.445  22.201  0.3463 -0.2532  0.0334
69364W        W12380  12.735  13.075  22.310  0.0406  0.1653  0.1022
69365W        W12381  16.366  28.599  25.269 -0.0218  0.1612  0.0669
69366W        W12382   7.316  13.931  15.811  0.1005 -0.4319  0.1979
69367W        W12383  14.944   2.479  22.215 -0.2105  0.1693 -0.2020
69368W        W12384  20.206   0.554  19.792 -0.3569 -0.2232  0.2475
69369W        W12385   9.443  11.966  28.367 -0.0577  0.2706  0.0902
69370W        W12386  16.223  19.563  12.990 -0.2612  0.0522  0.4750
69371W        W12387  16.909   2.676  28.114  0.1108 -0.1374 -0.0015
69372W        W12388  30.742  21.229  17.528  0.1738  0.1382 -0.0342
69373W        W12389   5.809  12.982  17.608  0.2073  0.0995  0.1948
69374W        W12390  17.250  29.405  15.171  0.1065 -0.0841 -0.1232
69375W        W12391  16.374  25.408  18.029 -0.1826 -0.1070  0.1668
69376W        W12392  10.420  12.414  18.504  0.2579 -0.1767  0.0734
69377W        W12393  20.319   3.316  16.846  0.0103  0.2081  0.1318
69378W        W12394   7.415  29.759  16.589  0.0034  0.1181 -0.0443
69379W        W12395   4.018   8.344  18.655 -0.2079 -0.2466 -0.1277
69380W        W12396  18.757   9.072  14.327 -0.1999  0.0656 -0.1492
69381W        W12397  22.163   3.543   0.078 -0.1524  0.2052 -0.0596
69382W        W12398   7.556  10.530  19.612  0.0623  0.2674 -0.1455
69383W        W12399   7.880   9.447  15.466 -0.2363  0.0845 -0.0772
69384W        W12400  10.179  29.049  24.691 -0.3687  0.0454 -0.1458
69385W        W12401  12.259  11.144  25.462  0.0211  0.2160  0.1480
69386W        W12402  16.036  29.971  27.346 -0.1201 -0.0323  0.0680
69387W        W12403   6.320  13.955  25.979  0.2802 -0.2565  0.0974
69388W        W12404  12.801  34.430  17.071 -0.0728 -0.0524  0.1519
69389W        W12405  25.354   0.948  27.667  0.2295 -0.1449  0.3086
69390W        W12406  29.709  23.145  19.131  0.0612  0.1418 -0.1899
69391W        W12407   6.073   0.318  22.208 -0.2648  0.2810 -0.1794
69392W        W12408  12.885   3.925  20.323 -0.1235  0.0584 -0.3267
69393W        W12409  12.123   9.791  16.133  0.1623 -0.1269 -0.1434
69394W        W12410   4.539   8.827  23.478 -0.1041  0.2290 -0.1678
69395W        W12411  12.688  17.432  21.262 -0.0763  0.0827  0.4035
69396W        W12412  27.966  17.726  17.771 -0.2528 -0.1174 -0.1345
69397W        W12413  14.938  34.584  26.248  0.1659  0.2063  0.0447
69398W        W12414  16.628  28.030  17.841 -0.2877  0.0198  0.1004
69399W        W12415  20.443  25.938  23.291  0.0610  0.1525  0.0462
69400W        W12416  29.466   1.997  19.821  0.2959  0.4232  0.1027
69401W        W12417  17.372  10.023  13.382 -0.2538  0.0118 -0.0904
69402W        W12418  22.046  34.664   3.393  0.0387 -0.0364 -0.0054
69403W        W12419  20.696   1.567  25.124 -0.1185 -0.2443  0.0018
69404W        W12420  25.476  10.806   0.235  0.1379 -0.3928  0.0461
69405W        W12421  31.055   5.571  26.461 -0.1372 -0.4131  0.0239
69406W        W12422  17.159   5.525  22.731  0.0267 -0.1342  0.1322
69407W        W12423   2.911  33.521  21.177  0.0168  0.0198  0.0626
69408W        W12424  29.541  16.029  17.737 -0.2189 -0.0386  0.2523
69409W        W12425  23.773   5.316  14.836  0.1634  0.2772  0.0418
69410W        W12426   6.471  33.927  25.456  0.1685  0.0964  0.1225
69411W        W12427  16.060  21.850   1.104  0.2932 -0.2362  0.2277
69412W        W12428   2.635  30.164  23.471 -0.1795  0.1153  0.1163
69413W        W12429  12.645   3.428  15.989 -0.0036  0.1540  0.1087
69414W        W12430  23.032  20.570  27.166 -0.2771 -0.1427  0.0103
69415W        W12431  16.452  12.416  14.616  0.0945  0.0926  0.1067
69416W        W12432  14.208  20.456  15.626 -0.2408  0.1019  0.2205
69417W        W12433  12.137  27.218  18.425 -0.0409  0.2337  0.1111
69418W        W12434  13.979  26.671  26.071 -0.0446  0.2650 -0.0543
69419W        W12435  12.553  30.417   0.497 -0.0243  0.1275 -0.1767
69420W        W12436  33.492   9.716  14.659 -0.0034 -0.1948  0.1847
69421W        W12437  10.573   1.419   7.709  0.0012 -0.0838 -0.2724
69422W        W12438  20.605  32.064  17.346 -0.1957  0.0757 -0.1375
69423W        W12439  12.672  31.691  23.254 -0.0993 -0.2054 -0.1922
69424W        W12440  11.289  25.496   6.068 -0.1231 -0.0141  0.0227
69425W        W12441  22.889  34.327  20.375  0.0034  0.1058  0.0139
69426W        W12442  14.000   4.487  18.743  0.1107  0.1112 -0.0919
69427W        W12443   5.217  16.715  22.511 -0.2092  0.3532 -0.0658
69428W        W12444  19.858  11.105  14.378  0.0848 -0.0122 -0.1823
69429W        W12445  26.430   7.602   0.253  0.0248 -0.0279  0.0860
69430W        W12446  11.685   0.168  21.586 -0.2064 -0.2794 -0.0099
69431W        W12447   7.812  16.110  20.031  0.0622 -0.3563  0.0675
69432W        W12448  15.678  29.981   0.086 -0.0426  0.0399 -0.0007
69433W        W12449  19.676  32.189  21.722  0.0994  0.1919 -0.1159
69434W        W12450  13.654   5.081  16.179 -0.3529  0.3390  0.4104
69435W        W12451  14.906  33.747  22.156 -0.0208 -0.1453  0.0255
69436W        W12452  16.818   8.664  16.821 -0.1582 -0.2385  0.1060
69437W        W12453  24.461   8.777  17.115 -0.1420  0.0624 -0.1055
69438W        W12454  12.633   6.092  14.044 -0.1814  0.1617 -0.1296
69439W        W12455  26.260   9.017  25.025  0.0408 -0.0224 -0.0623
69440W        W12456  16.554  17.549  13.858  0.0863 -0.0670  0.4672
69441W        W12457  18.508  33.042  18.906 -0.3032  0.0379  0.2372
69442W        W12458  23.665   7.293  18.630  0.0081  0.4315 -0.1451
69443W        W12459  26.920   0.093   0.394  0.0221 -0.0292 -0.1969
69444W        W12460  17.972   5.769  19.970 -0.0002  0.0206 -0.0460
69445W        W12461   8.744  11.472  18.299  0.1655 -0.1038  0.0962
69446W        W12462  18.861  33.736   2.234 -0.0524 -0.3798  0.0591
69447W        W12463  23.157   9.475  17.380 -0.0300 -0.0190 -0.1289
69448W        W12464  25.893   8.047  21.574 -0.0468  0.0514 -0.3886
69449W        W12465  16.133   7.508  14.181  0.2424  0.3807 -0.0791
69450W        W12466   4.531   2.417  21.481  0.3181 -0.1001  0.0063
69451W        W12467  30.325  20.210   0.114  0.2566  0.2697  0.4271
69452W        W12468  23.452   7.358  14.410  0.1126  0.0264  0.1266
69453W        W12469  19.299  30.009  24.989  0.0458 -0.2635 -0.2918
69454W        W12470  13.533  14.856  26.777 -0.0572 -0.3304 -0.3147
69455W        W12471  21.107  21.725   1.478  0.3094 -0.1057 -0.4242
69456W        W12472  19.549   7.099  20.940 -0.0649 -0.0539 -0.0698
69457W        W12473  16.406  23.874  14.980 -0.2619  0.4038 -0.0553
69458W        W12474  27.390   5.329  18.956  0.0861  0.0108  0.0767
69459W        W12475   8.249  13.258  22.176  0.0421  0.3073 -0.0764
69460W        W12476   3.629   0.305   4.967 -0.0342  0.0593 -0.4631
69461W        W12477  19.741  10.068  14.986  0.0404 -0.2714  0.0785
69462W        W12478   9.562  22.849  14.431 -0.1453  0.1174  0.0306
69463W        W12479   2.850   6.341  28.913 -0.1869 -0.2484  0.1063
69464W        W12480  14.629  34.321  21.726 -0.3895  0.3066  0.1327
69465W        W12481   8.318  16.082  23.536 -0.1011  0.0778 -0.0302
69466W        W12482  22.787  13.332   5.321 -0.3567 -0.1676  0.2597
69467W        W12483  13.211  30.006   3.409  0.1349 -0.3247  0.2499
69468W        W12484  17.137   6.989  20.278 -0.1792  0.2182  0.0941
69469W        W12485  16.494   6.381  19.924  0.3691  0.2679 -0.1300
69470W        W12486  33.284  32.378  18.657  0.2868  0.0143 -0.1157
69471W        W12487  10.403  11.250  23.119 -0.1638  0.1202 -0.1724
69472W        W12488  19.089   6.031   3.318 -0.2539  0.1327  0.0203
69473W        W12489  16.097  25.824  14.937  0.0849 -0.1120 -0.3853
69474W        W12490   1.324   5.059  26.233 -0.2514  0.0225  0.0469
69475W        W12491   0.671   7.713  14.962  0.0434 -0.0021  0.0269
69476W        W12492  24.968  31.372  24.101 -0.1144  0.2410  0.0474
69477W        W12493  28.895  13.968  18.203 -0.1037  0.0483  0.0260
69478W        W12494  23.634  20.582  24.396  0.0506 -0.3233  0.0349
69479W        W12495  19.730  16.328  26.916  0.0441  0.1915  0.1878
69480W        W12496  20.593  32.606  22.799 -0.1279 -0.1675 -0.0645
69481W        W12497  23.222   7.162  22.182  0.2579  0.0100 -0.3330
69482W        W12498  13.769   7.502  14.671 -0.0300  0.1721 -0.3152
69483W        W12499   1.379  32.015  14.021 -0.0811 -0.3853  0.0995
69484W        W12500  16.200  33.300   8.829 -0.1447 -0.2791 -0.4045
69485W        W12501  19.141  24.786  17.581  0.2510 -0.1694 -0.1460
69486W        W12502   6.827  34.495  16.391  0.1550 -0.5214 -0.0830
69487W        W12503  15.926  25.717  16.462 -0.0766  0.1559 -0.0262
69488W        W12504  19.831  22.061  15.856 -0.0788  0.2836  0.2831
69489W        W12505   3.721  10.715  15.751 -0.1977  0.1230  0.3224
69490W        W12506  26.741  31.115  27.384 -0.3212 -0.1846 -0.1581
69491W        W12507  17.396  24.377  25.451 -0.0446 -0.4535  0.0739
69492W        W12508  15.692   2.527  26.892 -0.0642 -0.0928 -0.0559
69493W        W12509  30.518   1.676  15.776 -0.2004 -0.1554  0.0397
69494W        W12510   9.068   1.050  25.444  0.1026  0.1065  0.2610
69495W        W12511   4.014  10.030  16.072  0.1976 -0.0787  0.0211
69496W        W12512   6.313   1.273  27.645 -0.1683  0.2661  0.2859
69497W        W12513  29.923  21.514  27.412  0.0856 -0.0148 -0.1409
69498W        W12514  19.216  33.085  15.868  0.0761  0.3096 -0.2846
69499W        W12515  17.532  28.729  27.594 -0.2173 -0.3837  0.3421
69500W        W12516   9.533   3.715   4.212 -0.0278 -0.0706  0.0191
69501W        W12517   9.586  24.503   5.341 -0.4769  0.1088  0.1695
69502W        W12518  29.627   5.847  16.865  0.0950  0.2680  0.1450
69503W        W12519  16.954   7.027  17.755  0.0656 -0.2075  0.1757
69504W        W12520   9.103   6.186   2.551  0.1271  0.0577 -0.0078
69505W        W12521  22.215  10.785  22.576  0.0522  0.2779 -0.0918
69506W        W12522  25.378   6.669  23.806 -0.3728 -0.1391  0.1345
69507W        W12523  23.909  14.774   2.210 -0.1102 -0.1050  0.1762
69508W        W12524  25.683  14.031  20.217 -0.1375 -0.1665 -0.0868
69509W        W12525  15.443  26.892   5.947  0.1723 -0.0660 -0.1373
69510W        W12526   4.522  16.006   6.647  0.0669 -0.2107 -0.1970
69511W        W12527   4.384  34.636  17.904  0.2367  0.0808  0.1591
69512W        W12528  22.787   3.178  26.536 -0.0252 -0.1816  0.2367
69513W        W12529  28.178  31.263  24.488 -0.0716  0.1736  0.1153
69514W        W12530  25.466   1.335  15.941  0.2624  0.1840  0.3413
69515W        W12531  15.729   6.375  20.519 -0.0828  0.0133 -0.0352
69516W        W12532  16.069   3.239  26.389  0.3194  0.2027 -0.1872
69517W        W12533   8.351   4.607  18.847 -0.0596 -0.1326 -0.3604
69518W        W12534   6.110  34.279  25.404  0.0138 -0.2685 -0.3433
69519W        W12535  26.314  12.123  15.293 -0.0038  0.1034  0.2498
69520W        W12536  13.057  15.194  17.062 -0.0180  0.0887  0.0667
69521W        W12537  11.670  27.942  17.380  0.0108  0.0235  0.0267
69522W        W12538  15.018  12.653  26.029 -0.1850  0.3872  0.0547
69523W        W12539   1.916   4.163  27.213 -0.0032  0.1843  0.0305
69524W        W12540  29.483  32.929  19.723  0.0895  0.0957 -0.1416
69525W        W12541  14.298   3.437  22.336 -0.2651  0.0622  0.1717
69526W        W12542  27.984  32.205  25.751  0.2460 -0.0216  0.1110
69527W        W12543   4.811  13.728   3.203 -0.0346 -0.0908  0.4361
69528W        W12544  30.976   9.764  19.922  0.0471  0.1157 -0.0780
69529W        W12545  17.232   7.120   5.782 -0.1047  0.2555 -0.0716
69530W        W12546  12.626  31.811  16.902  0.0009  0.0876 -0.2907
69531W        W12547  25.964  32.889  19.425  0.5518 -0.0617 -0.2799
69532W        W12548  33.825   1.425  15.118  0.1530  0.0213  0.0674
69533W        W12549  20.425  26.272  21.252  0.1077 -0.1198 -0.1670
69534W        W12550  22.652  14.259  19.739 -0.0295  0.1603  0.0606
69535W        W12551   9.204  28.548  19.932 -0.2768 -0.0304  0.1635
69536W        W12552  16.846   4.417   0.003  0.0670  0.2198  0.0096
69537W        W12553  25.718  15.593  14.535  0.1576 -0.0280 -0.1659
69538W        W12554  17.871   5.561  25.248  0.0201  0.2211  0.0442
69539W        W12555  12.214   4.720   6.618  0.0991 -0.2056 -0.0070
69540W        W12556  27.706   4.523  21.823  0.0479  0.2049  0.0683
69541W        W12557  31.257  14.377  26.627  0.2744 -0.1350 -0.1023
69542W        W12558  33.246   6.054  14.577  0.2228 -0.1381 -0.1972
69543W        W12559  16.281   3.111  16.356 -0.2904  0.0212 -0.1423
69544W        W12560   7.962  11.770   1.734  0.0446  0.1481 -0.3712
69545W        W12561  16.493  30.148   0.096 -0.3298  0.2118 -0.1160
69546W        W12562  15.219  29.821  17.095  0.1449  0.0403  0.3967
69547W        W12563   9.248  28.165  24.999 -0.1680  0.3271  0.0231
69548W        W12564  11.647   8.573  27.724 -0.1020  0.0578  0.1723
69549W        W12565   2.231  30.302   2.089  0.0957  0.0335  0.1493
69550W        W12566  13.047   6.132  17.571 -0.4940  0.2366 -0.1491
69551W        W12567  15.315   8.150  15.510  0.2476  0.0143  0.1782
69552W        W12568  10.624   2.858   5.628  0.1900  0.2582  0.0516
69553W        W12569  20.342  27.627  27.635 -0.0551 -0.1732 -0.0389
69554W        W12570  23.500   3.730  25.871 -0.1795  0.2585  0.0200
69555W        W12571   2.957   8.644  15.309  0.0054 -0.1730 -0.0631
69556W        W12572  15.444   9.705  19.901 -0.0249  0.0823 -0.0547
69557W        W12573   7.260  17.047  15.155 -0.0005  0.2228 -0.3561
69558W        W12574  22.291  19.856  28.429  0.1411  0.1172  0.1764
69559W        W12575  22.939   6.686  25.718  0.0647  0.1241  0.3446
69560W        W12576  28.343   8.761  20.743  0.2928 -0.1129 -0.4487
69561W        W12577  24.796   6.173   0.157 -0.1171  0.0162  0.0247
69562W        W12578  15.053   8.879  12.834 -0.1532 -0.3815 -0.0379
69563W        W12579  15.298  20.304   2.728 -0.2431  0.1929 -0.1483
69564W        W12580  26.663  11.220  19.680 -0.0841 -0.1992 -0.0283
69565W        W12581   3.728   6.216  13.716 -0.2302  0.0612 -0.2114
69566W        W12582  12.328  32.696  24.062 -0.2400  0.1678  0.1793
69567W        W12583   3.252  27.578  15.083  0.0574 -0.1389  0.2384
69568W        W12584  10.189   1.356  15.325  0.3240  0.0579 -0.0799
69569W        W12585  18.559   0.978  27.619  0.1422  0.0032  0.1051
69570W        W12586  22.184   6.704   2.383  0.3504 -0.2131 -0.0552
69571W        W12587  23.444  13.329   1.083  0.2033  0.0579  0.1369
69572W        W12588  23.881  23.615  22.949 -0.0172  0.2045  0.0881
69573W        W12589   2.786   8.890  29.142 -0.1951  0.0623  0.0013
69574W        W12590   6.502   0.895  18.037 -0.0684  0.1668  0.1373
69575W        W12591   5.215   3.975  28.636  0.0800  0.1398 -0.0234
69576W        W12592  18.625   5.690   7.548 -0.0807 -0.2347 -0.0884
69577W        W12593  22.870   6.715   9.345  0.0517  0.2641 -0.1713
69578W        W12594   2.967   9.704  28.705 -0.3892 -0.3745 -0.0269
69579W        W12595  31.856   1.512  19.434 -0.1315 -0.1230  0.2299
69580W        W12596  33.585  31.759   4.550 -0.0158 -0.1658  0.1780
69581W        W12597  15.311  32.904  24.510  0.2078  0.3800 -0.2309
69582W        W12598  19.068  33.494  19.258  0.0947  0.2774 -0.2464
69583W        W12599  22.247  13.349  17.115 -0.1527 -0.1536 -0.1081
69584W        W12600  11.438   2.144  18.680  0.2514 -0.2122  0.5257
69585W        W12601  10.390  31.413   4.745 -0.0188 -0.0140  0.0802
69586W        W12602  24.523  34.757  16.829  0.1189 -0.3191  0.0256
69587W        W12603  17.044  20.394  21.703  0.1612  0.1389  0.2022
69588W        W12604  25.742  30.254   3.304 -0.0833  0.0646  0.0636
69589W        W12605  34.705   3.703  21.461 -0.2000 -0.0788 -0.1854
69590W        W12606  19.557  30.168  20.167  0.2087  0.3182  0.0649
69591W        W12607  10.476   7.218  20.736  0.1057  0.0680  0.2041
69592W        W12608  21.000  12.589   0.055 -0.2777  0.3238  0.0430
69593W        W12609  18.283  12.053  14.067  0.0588 -0.0091 -0.0824
69594W        W12610  18.006  12.272  13.755  0.0498  0.0572 -0.0494
69595W        W12611  16.452  15.202  24.745  0.0617 -0.0397  0.1816
69596W        W12612  14.484  11.620  27.459  0.1850  0.1525 -0.0075
69597W        W12613   4.994  32.529  23.559 -0.0663  0.1510 -0.2296
69598W        W12614  16.057  10.865   8.422  0.0521 -0.0648  0.3389
69599W        W12615   5.007  34.211  19.559 -0.3741 -0.1547 -0.1585
69600W        W12616   1.816  13.313  25.909 -0.1028 -0.0471  0.0388
69601W        W12617   1.627   5.341  21.468 -0.2699  0.0391  0.0632
69602W        W12618  11.109   2.024  19.053  0.0690 -0.1050  0.2822
69603W        W12619   0.026  19.594  18.238  0.0773  0.0276  0.0999
69604W        W12620  15.301   1.499  20.068  0.2606  0.0740  0.0334
69605W        W12621   1.163  33.118   0.663  0.1855  0.3675 -0.0967
69606W        W12622  32.642  27.255  25.445 -0.0737 -0.1961 -0.1957
69607W        W12623  14.402  32.246   2.094 -0.1036 -0.3021  0.3629
69608W        W12624  16.206   6.124  16.310  0.2614 -0.1937 -0.4311
69609W        W12625   7.893  30.606  28.015  0.0781 -0.1734  0.0557
69610W        W12626  28.895   3.498   6.444  0.3641 -0.0731  0.0021
69611W        W12627  24.690  34.496  19.957  0.3589 -0.0678  0.2875
69612W        W12628   8.314   7.121  14.330  0.0389  0.0933 -0.0829
69613W        W12629   3.084  26.216  17.771 -0.1001 -0.6131  0.0496
69614W        W12630  13.468  33.615  19.116 -0.1681  0.2956  0.0183
69615W        W12631  10.089   9.221  21.941  0.1280  0.0643 -0.0520
69616W        W12632  20.130  31.593  19.558  0.0471 -0.0828  0.0280
69617W        W12633  27.154  33.540  23.631  0.0639  0.1931 -0.0964
69618W        W12634   2.037  30.703  18.011 -0.0569 -0.0076  0.0116
69619W        W12635  24.392  17.927  14.636 -0.0698 -0.2264  0.2183
69620W        W12636   9.131   0.665  22.622 -0.3054  0.0674  0.1868
69621W        W12637  29.500  11.083  22.320  0.6143  0.1183  0.1282
69622W        W12638  25.359  13.135  26.702  0.0962  0.1950  0.2109
69623W        W12639  25.519   0.562  28.381  0.0613  0.1035 -0.0792
69624W        W12640   3.661  19.056  19.664  0.2510 -0.1334 -0.0623
69625W        W12641  31.141  32.323  17.802  0.0099 -0.1886  0.0719
69626W        W12642   0.852  10.058  29.210 -0.0931  0.1244 -0.1858
69627W        W12643  31.934   7.074  15.585  0.1809  0.0140 -0.0100
69628W        W12644   5.729   6.913  25.660  0.0684 -0.4818 -0.3555
69629W        W12645  16.293   2.009  21.788 -0.3593 -0.0508  0.0919
69630W        W12646  12.955  27.136  17.218 -0.0540 -0.0315  0.0919
69631W        W12647  25.601  20.277  15.306 -0.2636  0.0017 -0.3482
69632W        W12648  29.212  12.990  23.945  0.0517 -0.1117 -0.0921
69633W        W12649  20.497  25.215  22.777  0.2947 -0.0473  0.1367
69634W        W12650   9.973   1.813  23.897  0.4376  0.1264 -0.0044
69635W        W12651  11.540  23.177   5.944 -0.0356  0.2649 -0.4957
69636W        W12652  18.154  33.439  26.589  0.0100 -0.1986  0.2005
69637W        W12653  28.090   4.460  24.232  0.3089  0.3121 -0.0596
69638W        W12654  16.922  24.553  25.351  0.0737  0.1803 -0.1301
69639W        W12655  32.564  14.511  17.005  0.1393  0.3124 -0.3279
69640W        W12656   8.233  29.475  26.471 -0.2833 -0.0344 -0.3453
69641W        W12657  24.127  11.763   5.384 -0.1153 -0.2067  0.1435
69642W        W12658  18.923  12.246   2.517  0.0437  0.0300  0.1109
69643W        W12659  22.868  16.486  17.697  0.0941 -0.2053 -0.0977
69644W        W12660  17.793  22.937   6.082  0.1169 -0.0681  0.1126
69645W        W12661   9.352  19.135  18.682  0.3675  0.1259  0.3087
69646W        W12662  20.961  23.574  24.403  0.1234 -0.2637 -0.0451
69647W        W12663  21.124  34.634   0.573 -0.2061  0.2835 -0.0434
69648W        W12664  20.823   2.831  15.120 -0.2271  0.2146 -0.0313
69649W        W12665  25.941   8.446  25.077  0.1087  0.1912 -0.0484
69650W        W12666  23.115  22.116  20.520  0.0762 -0.2362  0.0212
69651W        W12667   2.296  10.236  14.034  0.0491  0.2499 -0.0217
69652W        W12668  31.050  28.079  22.126  0.0534 -0.1408  0.0495
69653W        W12669  13.236  32.798  29.247 -0.1940  0.4319  0.1662
69654W        W12670   9.130  27.582  23.975  0.0632  0.0339  0.1012
69655W        W12671  18.350  16.636  12.542 -0.1517 -0.1382  0.1181
69656W        W12672  12.518   1.907  16.490 -0.0289 -0.1246  0.2535
69657W        W12673  20.619  30.019  15.244 -0.0126 -0.1421  0.0139
69658W        W12674  16.325   6.230  19.474  0.2137  0.2303  0.2819
69659W        W12675  14.954   1.385  22.103  0.0716 -0.0737  0.0845
69660W        W12676  13.454  31.564   4.668  0.1374  0.0229 -0.2274
69661W        W12677  19.016   1.725  17.387  0.1391  0.0617 -0.0015
69662W        W12678   3.982  19.304  16.875 -0.1752  0.1043  0.2606
69663W        W12679  18.567  10.875  15.708 -0.2321  0.1908 -0.1338
69664W        W12680  25.326   5.298  19.040 -0.1577  0.0059  0.0031
69665W        W12681   6.335  31.013  15.341  0.1963  0.3343 -0.2860
69666W        W12682   7.538  11.027  23.605 -0.0275 -0.1993  0.1189
69667W        W12683  14.063   7.915  14.801  0.0159  0.1266  0.3665
69668W        W12684  14.741   0.506  23.500  0.1402 -0.1801 -0.0350
69669W        W12685  22.158  24.777  15.544  0.0954  0.0850  0.0392
69670W        W12686   8.416  25.388  16.458 -0.0262 -0.0551  0.1593
69671W        W12687  15.194  20.903   3.841  0.2264 -0.0119 -0.1636
69672W        W12688  11.834  18.254  24.881 -0.0283  0.0986  0.1796
69673W        W12689  32.354   4.922  26.863  0.1999 -0.1695 -0.0903
69674W        W12690  27.444  28.864  11.570  0.1648 -0.0839  0.2765
69675W        W12691  18.979   3.122  15.067  0.0672 -0.0418 -0.1907
69676W        W12692  29.013  32.477  15.502 -0.0315 -0.0908  0.3137
69677W        W12693  22.840  27.310   7.508  0.2057  0.1253 -0.0554
69678W        W12694  28.129  28.670   7.986 -0.0185  0.0373  0.0152
69679W        W12695   8.267  10.546   1.515 -0.3888  0.1219  0.2520
69680W        W12696   0.971  13.674  16.076  0.0043 -0.0705  0.0226
69681W        W12697  31.477  11.523  13.964 -0.2803  0.1066 -0.3271
69682W        W12698  11.945   5.299  17.275 -0.1243 -0.1033  0.0493
69683W        W12699   2.776  11.286  16.610 -0.0065 -0.0021  0.0331
69684W        W12700  31.939  17.791   3.935 -0.0613 -0.0566 -0.0176
69685W        W12701  23.269  10.563  17.845  0.4108 -0.2871  0.2306
69686W        W12702  13.744   3.572  17.313 -0.3746  0.2026  0.1826
69687W        W12703  26.312  29.083   6.720 -0.1427 -0.5977  0.0216
69688W        W12704   7.192   5.825  24.067  0.0628  0.2763  0.1269
69689W        W12705  14.927  29.852  29.102  0.0550 -0.1081  0.1262
69690W        W12706  18.455   1.622  18.770  0.2607  0.2689  0.0302
69691W        W12707   6.510   9.143  21.059  0.4295  0.1121 -0.0463
69692W        W12708  14.534  32.478  18.791  0.0473 -0.1554  0.0752
69693W        W12709   7.458  11.774  15.257 -0.0847  0.0780  0.1489
69694W        W12710  20.630   4.640  15.903  0.0713  0.1144 -0.3749
69695W        W12711  21.473   9.803  27.489 -0.0892  0.1985  0.2471
69696W        W12712  12.883  13.072  15.124 -0.1972 -0.1886  0.0798
69697W        W12713   4.047   5.589  16.914  0.1960 -0.0578 -0.4390
69698W        W12714  22.216   1.419  25.225  0.0540 -0.1296  0.0253
69699W        W12715   0.723   7.961  18.659  0.0656  0.1248 -0.1681
69700W        W12716  31.552   6.521  19.857 -0.3108 -0.0552 -0.0755
69701W        W12717  24.132  29.426  21.340 -0.2582  0.0395  0.1037
69702W        W12718   5.837   7.780  16.925 -0.0249 -0.0238  0.0040
69703W        W12719  31.417  30.556  26.322  0.0604 -0.1804  0.2075
69704W        W12720   9.281  25.303  23.785 -0.0003 -0.0318 -0.2397
69705W        W12721  11.249   4.317  25.133 -0.0323 -0.1159  0.0032
69706W        W12722  10.397   4.060  16.623  0.0791  0.0521  0.0852
69707W        W12723  16.892  25.672   3.935  0.0551 -0.3598 -0.2757
69708W        W12724  13.700   6.717   3.438  0.0163  0.0620  0.0106
69709W        W12725  20.526  26.206  23.707  0.0070  0.1667 -0.1601
69710W        W12726  19.366  32.113  20.783  0.0020  0.2472 -0.2529
69711W        W12727  15.153   3.138   4.779 -0.0949 -0.1158 -0.0770
69712W        W12728   8.780  28.901  17.958 -0.0218 -0.0251  0.0292
69713W        W12729   5.719   4.847   0.313  0.1738 -0.3700  0.0545
69714W        W12730  33.006   8.094  20.219 -0.0364 -0.0408  0.1894
69715W        W12731  19.160   6.469   5.722  0.4346 -0.1828 -0.3637
69716W        W12732  28.030  12.406  23.428 -0.1050  0.0941  0.2769
69717W        W12733   6.950   5.051  25.649 -0.1813  0.4733 -0.1755
69718W        W12734  16.102  14.064  14.114  0.2410  0.2953  0.0806
69719W        W12735  14.248   8.975  15.917 -0.1305  0.0558 -0.0807
69720W        W12736  13.431  10.625   0.133 -0.0031 -0.1362 -0.1702
69721W        W12737   1.118  30.920  27.063 -0.0219 -0.0216 -0.0122
69722W        W12738  15.992  19.128  13.156  0.1856 -0.3435  0.1828
69723W        W12739  18.840   8.459   2.622 -0.1731 -0.2281  0.0375
69724W        W12740  13.615   2.569  28.968  0.5465  0.0500  0.1106
69725W        W12741  24.543  10.397  26.305  0.0394 -0.2683 -0.0788
69726W        W12742   1.898  31.248   0.809  0.1382 -0.4437 -0.0869
69727W        W12743  16.172  30.643  21.540 -0.1137 -0.0560 -0.2383
69728W        W12744  21.374   9.304  25.316 -0.0102 -0.0433 -0.0387
69729W        W12745  14.965   2.940  16.508 -0.1747  0.2388 -0.3760
69730W        W12746  20.590  32.526   9.255  0.2698 -0.2035 -0.3398
69731W        W12747  20.442  22.023   0.969  0.1520  0.2086  0.2688
69732W        W12748   6.517   8.995  17.806  0.0280  0.1505  0.2005
69733W        W12749  26.045  20.376  15.682  0.1637  0.1773 -0.1713
69734W        W12750  16.659   0.254  21.459  0.0385  0.0410 -0.2099
69735W        W12751  33.603  23.024  16.815  0.3413  0.1164  0.0676
69736W        W12752   0.087   1.521  16.288 -0.4010 -0.0750 -0.1418
69737W        W12753   0.371  30.173   3.764  0.1573 -0.1150  0.2377
69738W        W12754  18.427  10.960  17.003  0.0577 -0.1205  0.1135
69739W        W12755  34.135   8.990  22.196  0.2397  0.2976 -0.4197
69740W        W12756  27.015   1.569  20.528  0.2772  0.3572 -0.0158
69741W        W12757  21.055  26.386  25.557  0.2788 -0.1821  0.0083
69742W        W12758  10.356   5.436   9.028 -0.1866 -0.0586 -0.0175
69743W        W12759  15.105   7.621   5.246  0.0795 -0.1647  0.1449
69744W        W12760   8.885  11.543  19.324 -0.0074  0.3042 -0.2903
69745W        W12761  21.357   7.727   6.526  0.1316  0.1552 -0.0996
69746W        W12762  11.008  24.564  22.789 -0.1860 -0.0173 -0.3682
69747W        W12763  17.095  26.199  24.372 -0.3771  0.3812  0.0505
69748W        W12764  18.586   6.532  13.884 -0.0916 -0.0637  0.0625
69749W        W12765  22.350   4.033  18.186 -0.1754 -0.2068 -0.1239
69750W        W12766  17.767  32.664  26.108 -0.1148 -0.0894  0.1609
69751W        W12767  33.298  32.834  17.380  0.1689 -0.2765  0.0607
69752W        W12768  15.296  23.082   3.052  0.2847  0.0915 -0.0583
69753W        W12769   4.341   8.960  21.429  0.0414  0.0577  0.0568
69754W        W12770  10.244  11.551  24.914 -0.1283  0.1491  0.2905
69755W        W12771  17.184  26.292  28.685  0.1555 -0.2444  0.1609
69756W        W12772   6.886  28.522   8.971 -0.1242 -0.3040 -0.1115
69757W        W12773  16.460  15.410  12.898 -0.1088 -0.2704 -0.1296
69758W        W12774   7.372  31.261  17.535  0.1673 -0.4679  0.1974
69759W        W12775  13.536   8.404   6.031  0.1577  0.0642 -0.3654
69760W        W12776  31.529  31.587  16.509 -0.2476 -0.0758 -0.1499
69761W        W12777   8.991  14.587  18.919 -0.0603  0.3757  0.1502
69762W        W12778   6.437   2.120  15.383 -0.5423 -0.3115  0.1670
69763W        W12779   1.290  14.067  16.037  0.1620  0.2490  0.0331
69764W        W12780  16.469   5.291  25.384 -0.1647 -0.0036 -0.1617
69765W        W12781  18.148   5.681  28.257  0.0631 -0.1497  0.0332
69766W        W12782   8.920  19.023   6.482 -0.2213 -0.1744 -0.1109
69767W        W12783   3.530  11.221   0.112 -0.1222  0.2658 -0.1538
69768W        W12784   8.139   1.676  22.574  0.1776  0.1824  0.1603
69769W        W12785  16.996   9.420  13.848  0.0170  0.2957 -0.0934
69770W        W12786  18.970   5.011  14.971 -0.1752  0.0593 -0.0719
69771W        W12787   5.076  10.838   3.143  0.0889  0.0255 -0.1403
69772W        W12788  13.861   4.002  18.551  0.0380  0.0028 -0.0643
69773W        W12789  10.207  10.830  24.562  0.0442  0.0339 -0.1849
69774W        W12790  24.430  20.272  22.166 -0.0533 -0.0638 -0.0197
69775W        W12791  19.682   0.386  23.195  0.1829 -0.1543 -0.0683
69776W        W12792  31.166  31.359  22.991 -0.2100  0.1257  0.0170
69777W        W12793   3.444   2.357  20.501  0.4819 -0.2466 -0.1217
69778W        W12794   2.468  27.190  21.305  0.0294 -0.0051 -0.0431
69779W        W12795  11.934   3.034   0.963 -0.0551 -0.0323 -0.0837
69780W        W12796   2.531  29.479  18.021 -0.1395  0.0930  0.2654
69781W        W12797  24.383  11.813  22.128  0.2325 -0.0073 -0.3491
69782W        W12798  21.036  14.778  12.698  0.0572  0.3057 -0.0744
69783W        W12799   2.766   6.736  13.548  0.1522 -0.2077  0.3438
69784W        W12800   7.866  15.816  19.365  0.1311  0.0938  0.2802
69785W        W12801  21.512  13.967  15.878  0.0524 -0.0972 -0.2896
69786W        W12802  26.998  20.382  25.172  0.1180  0.1328 -0.2477
69787W        W12803   4.281  13.801  18.844  0.0741 -0.0665 -0.1285
69788W        W12804  33.500   6.527  14.273 -0.2580 -0.0340  0.2808
69789W        W12805  32.435   3.388  27.272 -0.0976  0.2452 -0.0367
69790W        W12806   8.720   5.607   6.955 -0.1589  0.1427  0.0274
69791W        W12807   4.469   5.212  24.311  0.3199  0.2657 -0.2765
69792W        W12808  19.394   6.216  17.975  0.1390  0.0240  0.1380
69793W        W12809   2.427   4.364   1.539 -0.0394  0.1810 -0.1406
69794W        W12810  26.208   5.219   4.960 -0.0630 -0.0834  0.2655
69795W        W12811  24.798  34.044  27.029 -0.2741  0.1585 -0.2880
69796W        W12812  16.886  13.699  28.107 -0.0592  0.0730 -0.1150
69797W        W12813  21.130   7.234  23.743 -0.1225  0.2884  0.2097
69798W        W12814  30.508   8.726  22.224 -0.1767 -0.3003  0.0400
69799W        W12815   9.249   4.367  18.140 -0.1069 -0.1030  0.0208
69800W        W12816   6.427  27.542   0.857  0.1116  0.1856 -0.0150
69801W        W12817  26.211   5.520  25.091  0.0730 -0.2007  0.0573
69802W        W12818  28.459  26.969   5.887 -0.1627  0.4041  0.0067
69803W        W12819  32.161   2.121  27.153 -0.2477  0.2104 -0.2782
69804W        W12820  33.611   8.678  27.469  0.2035  0.0385 -0.0934
69805W        W12821   8.042  33.492   7.499  0.3974  0.0644  0.2501
69806W        W12822  11.786  32.947  16.725  0.0383 -0.1138  0.1627
69807W        W12823  28.100   4.510  15.988  0.0890  0.2538 -0.3866
69808W        W12824   8.546  12.010  24.963 -0.0648  0.2572 -0.0353
69809W        W12825  23.727  25.340   3.922 -0.3156 -0.2085 -0.0783
69810W        W12826   8.981  11.672  15.203  0.2067 -0.1392 -0.0252
69811W        W12827   6.596   5.511  17.278  0.2974  0.3955 -0.1415
69812W        W12828  17.437   7.001  15.361 -0.2072  0.0270  0.0320
69813W        W12829  22.588  17.547   7.852  0.1883 -0.2171 -0.0296
69814W        W12830  21.393   9.605  14.805 -0.2882  0.1644  0.3580
69815W        W12831  19.876   5.117  21.042  0.2690  0.0149  0.0308
69816W        W12832   8.974  17.227  17.707 -0.0618  0.4091  0.4148
69817W        W12833  24.355  17.702  17.129  0.0767 -0.2561 -0.4297
69818W        W12834   7.658   5.499  18.118  0.0196  0.3314  0.0200
69819W        W12835   8.878  24.393  22.866  0.0197 -0.1892  0.1089
69820W        W12836  16.982  19.452  13.832 -0.3447  0.0361  0.1791
69821W        W12837   2.233  17.833  23.720  0.0662  0.3780  0.2703
69822W        W12838   4.834  31.220  14.351  0.0978  0.0570  0.0508
69823W        W12839   8.711   6.360  14.827  0.6087  0.0360  0.5095
69824W        W12840  22.247  15.354  18.467  0.1558 -0.1345 -0.1976
69825W        W12841  14.963  17.150  11.268 -0.1518 -0.2343 -0.2215
69826W        W12842  26.452  11.393  20.783 -0.4142 -0.0603 -0.1629
69827W        W12843  17.779  11.191  15.822  0.0770 -0.2182 -0.1430
69828W        W12844  23.879  17.644  18.102 -0.1527 -0.0046 -0.2403
69829W        W12845   1.640  15.753  16.865 -0.3854  0.2023 -0.4007
69830W        W12846  27.141   4.664  16.932 -0.3057 -0.0788  0.1796
69831W        W12847  34.459   7.561   5.419 -0.4631  0.0474 -0.1329
69832W        W12848  17.336   8.983  16.829  0.2559 -0.0929 -0.1833
69833W        W12849   5.561   5.412  26.814 -0.1748  0.0355 -0.0412
69834W        W12850  16.960  24.916  26.020 -0.0713  0.1146  0.4065
69835W        W12851  27.971   9.331  18.951 -0.0338 -0.1947 -0.4733
69836W        W12852  10.691  19.114  13.357  0.0842 -0.3414 -0.3383
69837W        W12853  10.284  16.143  25.110 -0.1148  0.2552  0.0621
69838W        W12854  14.082  31.217  17.767 -0.1885  0.3114 -0.3002
69839W        W12855  32.985  16.252  15.663 -0.2538  0.6195 -0.0037
69840W        W12856  20.169  15.957  12.185  0.0729 -0.3965 -0.1917
69841W        W12857  23.909   4.474   2.501 -0.2130  0.0899 -0.0781
69842W        W12858  14.741  12.785  21.271  0.1108  0.0749 -0.1068
69843W        W12859  14.410  28.213  16.153  0.4527  0.2516 -0.0648
69844W        W12860  24.366  14.264  20.872  0.1309 -0.3346 -0.0457
69845W        W12861  16.504   1.109   0.939  0.0590 -0.1645  0.3789
69846W        W12862  15.806   5.148   2.671 -0.1440 -0.1233  0.0422
69847W        W12863   4.322  19.838  26.019 -0.1106  0.0591  0.4817
69848W        W12864  20.452   4.432  17.821 -0.0228  0.1141  0.2675
69849W        W12865  14.213  12.056   8.355 -0.1559  0.0528  0.0637
69850W        W12866   1.787  10.558   1.999  0.0102 -0.0502  0.1205
69851W        W12867  11.784   9.644  26.659  0.3052  0.4752  0.2340
69852W        W12868  16.257   1.065   0.152 -0.2047 -0.0829  0.1910
69853W        W12869  16.982  29.981  15.960  0.0027  0.3648  0.1456
69854W        W12870  26.710   2.359  26.388 -0.0574  0.1429 -0.1292
69855W        W12871  29.677   4.846  17.147 -0.2400 -0.1361 -0.0046
69856W        W12872   0.869   7.600  16.446 -0.0427 -0.0705  0.3093
69857W        W12873  24.431   7.290   0.816  0.3459  0.0150 -0.1224
69858W        W12874  19.534   1.382  19.687 -0.1191 -0.1715 -0.1314
69859W        W12875  18.873  17.036  13.513 -0.0599 -0.1201 -0.0742
69860W        W12876  10.075   7.469   6.007 -0.0294 -0.2570 -0.0822
69861W        W12877  22.064   6.513   7.936  0.0199  0.0738  0.2680
69862W        W12878  22.456   9.824  26.070 -0.0413  0.2172  0.0568
69863W        W12879  10.576   3.290   3.788  0.0879  0.0060 -0.0110
69864W        W12880   8.999  29.643  25.752 -0.0743  0.0107 -0.0071
69865W        W12881   7.584  34.491  24.225  0.1213 -0.0687 -0.0559
69866W        W12882  28.023  31.484  26.119  0.3998 -0.4794 -0.0372
69867W        W12883  18.574   1.806  20.939  0.1350  0.1117 -0.4682
69868W        W12884   9.272  10.533  19.028  0.0599  0.3581 -0.2653
69869W        W12885  18.958   2.170  15.044 -0.4047 -0.1036  0.3174
69870W        W12886   4.438  30.945  27.259 -0.1022 -0.0717  0.0939
69871W        W12887  13.314  27.997  27.210 -0.4032  0.1210 -0.0379
69872W        W12888  18.063   8.095  24.602 -0.3494  0.2423  0.2795
69873W        W12889  16.344   7.883  16.598  0.3749 -0.1954 -0.3585
69874W        W12890  20.271  33.196  18.513 -0.3819 -0.0462  0.2818
69875W        W12891   7.611   0.893  20.474  0.0205 -0.2115  0.1510
69876W        W12892  14.156  21.855  14.489  0.0742 -0.2997 -0.0477
69877W        W12893  18.561   0.044   0.491  0.3094  0.2438 -0.2200
69878W        W12894  25.860  12.321   9.717  0.2226  0.1377 -0.2456
69879W        W12895   3.319  15.204   3.272  0.0563  0.0974 -0.0064
69880W        W12896  17.690   5.461  27.862  0.1287 -0.0682 -0.1418
69881W        W12897  26.175   3.847  18.757  0.0520 -0.1250  0.1455
69882W        W12898   6.883   2.866  29.199 -0.2092 -0.0388 -0.0285
69883W        W12899  11.836  21.195  22.565 -0.2227  0.3589  0.2741
69884W        W12900   8.791  25.938  18.904 -0.0626  0.1463 -0.0701
69885W        W12901  22.873   4.826  20.290  0.0850  0.0755  0.0092
69886W        W12902  14.130   9.333   8.727 -0.0848 -0.1136 -0.2020
69887W        W12903   2.329   0.812  25.586  0.1403  0.1672 -0.1666
69888W        W12904  11.333  31.345  17.501 -0.3413 -0.0659 -0.2229
69889W        W12905  30.766   0.049  24.601 -0.2266 -0.4322 -0.1433
69890W        W12906   8.584   3.829   8.126 -0.2569 -0.2719 -0.0868
69891W        W12907  21.185  10.533  14.977 -0.0951 -0.0305  0.5008
69892W        W12908   9.543  20.389  25.080  0.3710 -0.0690  0.3437
69893W        W12909  22.959   9.773  19.964  0.0606 -0.1317 -0.5477
69894W        W12910  16.106  19.944  28.986  0.0871 -0.1041  0.0029
69895W        W12911  20.639  17.646  19.652 -0.0115  0.1484  0.1183
69896W        W12912   5.534   0.112  23.878 -0.1204  0.0205 -0.1138
69897W        W12913   0.192  34.451   1.998 -0.0193 -0.0353 -0.2430
69898W        W12914   1.045  20.070  27.425  0.3573 -0.3009 -0.0025
69899W        W12915  23.534  24.720   7.693 -0.2906  0.2575  0.5064
69900W        W12916   8.712   6.033   6.105  0.2616 -0.0036 -0.0884
69901W        W12917   2.070  32.250   6.627 -0.1698 -0.2870  0.1547
69902W        W12918  24.401  19.300  13.903  0.0343  0.0330  0.2266
69903W        W12919  18.433  27.930  15.228 -0.1616 -0.3691 -0.1782
69904W        W12920  14.477  20.348  21.688 -0.0404  0.1375 -0.0706
69905W        W12921   8.879  14.445  29.257  0.4332  0.0948 -0.0713
69906W        W12922  16.498  11.731   2.269  0.5392  0.0643  0.1181
69907W        W12923  30.177  31.235   0.203  0.2254  0.1072  0.1608
69908W        W12924  22.665   6.708   6.410  0.1090  0.0749  0.0001
69909W        W12925  16.052  16.809   3.204  0.0467 -0.1590 -0.0109
69910W        W12926  12.267   3.337  27.775 -0.2952  0.2395  0.0500
69911W        W12927  28.920  14.218  26.618  0.1443 -0.0066 -0.1948
69912W        W12928   5.247  27.534  17.933 -0.2238 -0.0874  0.1063
69913W        W12929  24.125   8.595  23.911  0.0600  0.0297 -0.2783
69914W        W12930   8.003   7.148  15.073 -0.0197 -0.0013 -0.0324
69915W        W12931  15.355  10.885  13.576 -0.1263 -0.0046 -0.0742
69916W        W12932  13.617   5.162  27.332  0.3644 -0.1121 -0.0844
69917W        W12933  28.922   8.265  27.546 -0.0825  0.3292  0.1130
69918W        W12934  27.415   7.437  26.227 -0.3134 -0.2031  0.0435
69919W        W12935  18.439   4.436  23.895 -0.1209  0.1999 -0.1009
69920W        W12936  30.634  10.081  20.164 -0.1724 -0.2763  0.2037
69921W        W12937  21.506   7.576  15.756  0.1241 -0.0056  0.4682
69922W        W12938  13.779   0.518  22.651  0.2504  0.0194 -0.1957
69923W        W12939  13.005  12.117  23.236 -0.3509  0.1508 -0.0975
69924W        W12940   6.375   5.743   8.103 -0.2492 -0.1586  0.3416
69925W        W12941   2.963  27.541   1.847  0.0796 -0.0756  0.1467
69926W        W12942  22.559  17.827  25.244 -0.0956  0.1507  0.0279
69927W        W12943  27.158  31.760   6.830 -0.0366  0.1202 -0.3437
69928W        W12944  32.568  29.152  16.852 -0.0667 -0.1734  0.3804
69929W        W12945  22.498   9.533  18.280  0.0266 -0.2026  0.2020
69930W        W12946  12.849  11.432  18.018  0.0285  0.0050  0.0702
69931W        W12947  16.312  21.241   3.000 -0.1921 -0.3423 -0.2905
69932W        W12948  13.401   3.024  14.956  0.0195  0.0745  0.0635
69933W        W12949  18.201   9.572  24.789 -0.0340 -0.2833  0.0128
69934W        W12950  30.001  11.122   8.599  0.1555 -0.0547 -0.1597
69935W        W12951  33.060  33.546  24.030  0.0508 -0.0424 -0.2195
69936W        W12952  29.098  29.819   8.705 -0.2662  0.1331  0.1856
69937W        W12953  11.789  33.028   1.149  0.0218 -0.3576  0.1171
69938W        W12954  31.888  31.114  20.934 -0.2041 -0.0031  0.0409
69939W        W12955  11.248   1.972  23.282  0.2535 -0.1776  0.0716
69940W        W12956   9.089  11.471   7.435  0.3009  0.1040 -0.2530
69941W        W12957  11.440  25.946   0.688  0.1771 -0.1113  0.2026
69942W        W12958  11.861   4.063  23.865  0.0419 -0.0863  0.1402
69943W        W12959  28.835   4.173   0.710 -0.0955 -0.0332 -0.1650
69944W        W12960  12.755   8.939  24.263 -0.1538 -0.0936 -0.2809
69945W        W12961   2.694   8.683   0.308 -0.2689 -0.0979  0.0143
69946W        W12962  17.823   5.181  18.872 -0.0411 -0.1902  0.0824
69947W        W12963  29.051   1.371  10.721  0.4193  0.0128  0.0869
69948W        W12964  21.548   4.676  18.222  0.3359  0.0155  0.0690
69949W        W12965   0.986  22.690  21.926 -0.0584  0.0844  0.0494
69950W        W12966  18.381  16.432   2.132  0.1766 -0.2649  0.0535
69951W        W12967  12.973  30.232   6.781 -0.0154 -0.0985 -0.2745
69952W        W12968  20.342  30.804  15.452  0.1534  0.2911  0.0404
69953W        W12969   6.409   5.166   4.594  0.3889 -0.1968  0.0118
69954W        W12970  21.135  25.668  14.742 -0.1467  0.0985  0.0837
69955W        W12971  27.111  15.041  28.353 -0.0125 -0.0732 -0.1723
69956W        W12972  16.891  11.138   4.220 -0.0142  0.1562  0.1291
69957W        W12973   9.724   0.451  19.782 -0.2533  0.1124 -0.0570
69958W        W12974  20.292   0.557  25.886 -0.1331 -0.0771  0.0340
69959W        W12975   8.503  18.008   3.188  0.2937 -0.2795 -0.0755
69960W        W12976  14.397  26.284  21.059  0.0466  0.1341 -0.0028
69961W        W12977  16.079  10.412   4.735  0.3013  0.0873  0.1954
69962W        W12978  16.788   4.241   2.441 -0.1229  0.1729 -0.0639
69963W        W12979  17.457  10.738  20.863 -0.0601 -0.2369  0.0555
69964W        W12980   2.694  29.890  24.623  0.1668  0.3867  0.2678
69965W        W12981   8.222  27.557  25.125 -0.1019  0.2101  0.2315
69966W        W12982   5.352  33.392  22.185 -0.1575 -0.1805  0.3199
69967W        W12983  17.296  17.793  26.583  0.2887  0.1848  0.0631
69968W        W12984   1.954  13.107  26.425  0.2451  0.1663 -0.1017
69969W        W12985  31.790  11.902  20.359  0.1939  0.1713  0.1441
69970W        W12986   1.355   5.509  23.786  0.0037 -0.2158  0.0534
69971W        W12987  24.425   0.476  10.091  0.0997 -0.0267 -0.2141
69972W        W12988  19.461  21.612   7.470 -0.1853 -0.3242 -0.0501
69973W        W12989  14.375  18.637  28.953 -0.0290 -0.0206 -0.0413
69974W        W12990   1.557   8.058  17.489  0.0156 -0.1395  0.0563
69975W        W12991  21.428  12.046  21.867  0.1662 -0.1394  0.0884
69976W        W12992   0.850  10.335  17.060 -0.3555  0.1490  0.0365
69977W        W12993  13.908  15.671  20.487  0.2128 -0.0327  0.2088
69978W        W12994  17.929  10.950   5.490  0.3933 -0.2754 -0.1830
69979W        W12995  15.194   5.608   8.988 -0.1459  0.0926 -0.0765
69980W        W12996   3.017  31.344  24.092  0.3062  0.1539 -0.0203
69981W        W12997  20.808  20.546  20.360 -0.2826 -0.0678 -0.1183
69982W        W12998  15.610  33.812   1.761  0.1285  0.2124  0.0202
69983W        W12999  24.830   8.033   0.804 -0.2603 -0.2571  0.1453
69984W        W13000  33.689  12.394  20.006 -0.0787  0.0394 -0.1397
69985W        W13001  14.036  17.612   4.654 -0.0887 -0.1327 -0.2206
69986W        W13002  18.625  30.531  24.359 -0.1827  0.0194 -0.3817
69987W        W13003  15.863   5.864  14.115  0.0800 -0.3252  0.1910
69988W        W13004   2.396  15.555  14.690 -0.1646 -0.2350 -0.0369
69989W        W13005  23.227  11.889  22.014  0.1984  0.0477  0.3064
69990W        W13006  19.734  15.406  12.815 -0.0741  0.5181  0.0066
69991W        W13007  31.470   6.275   4.044 -0.0054  0.1226 -0.0906
69992W        W13008  28.102  26.268   9.231  0.0554 -0.3722  0.0602
69993W        W13009  26.896   3.355  25.775 -0.1167 -0.2377  0.0988
69994W        W13010   7.840  14.999   2.251  0.0356  0.0485  0.0839
69995W        W13011  19.233  22.583   0.076 -0.0633  0.1435 -0.1351
69996W        W13012  16.899   7.068  22.072  0.1476 -0.0530 -0.0857
69997W        W13013  22.996   5.371  16.932 -0.0768 -0.0344  0.0366
69998W        W13014  17.801  15.841  24.577 -0.2343 -0.0313 -0.0025
69999W        W13015   0.677  11.096   5.670  0.1967 -0.1215  0.1521
70000W        W13016  34.078  10.948   7.893 -0.0220  0.1319 -0.4344
70001W        W13017  16.554  10.588   4.820 -0.0793  0.0786 -0.1696
70002W        W13018  20.902  34.166  15.579 -0.1370  0.0519 -0.2377
70003W        W13019   6.855  19.659  25.900 -0.2654 -0.1340  0.2035
70004W        W13020  26.450  33.707  19.388  0.1067 -0.1703 -0.0563
70005W        W13021  22.895  18.224  17.413 -0.4395  0.1886  0.2580
70006W        W13022  31.727  31.327  22.291 -0.0375 -0.0563  0.0672
70007W        W13023   9.181  15.887  23.761 -0.3496  0.0135  0.0247
70008W        W13024   5.106  29.756  18.755 -0.2936 -0.2122 -0.1805
70009W        W13025  16.068  33.600  16.407  0.5543  0.0145  0.0286
70010W        W13026  14.407  17.038  13.082 -0.1545  0.0069 -0.0414
70011W        W13027   4.379  15.191   5.059 -0.1704  0.1266  0.2714
70012W        W13028  24.129  27.232  20.928  0.0379  0.2953 -0.0360
70013W        W13029  15.216  16.989  28.037  0.2026 -0.1176  0.2239
70014W        W13030  30.619   7.191  27.077 -0.1893  0.0806  0.0627
70015W        W13031  12.738  10.889   5.629 -0.0623 -0.1342 -0.0408
70016W        W13032  11.076   8.031  25.563  0.0707  0.0584  0.1048
70017W        W13033   0.189  10.383  18.948 -0.0805  0.0134 -0.0433
70018W        W13034  21.400   6.220  15.304 -0.0098  0.1752 -0.1794
70019W        W13035  24.086   9.450  15.442 -0.2443  0.2503  0.0373
70020W        W13036   3.230   4.232  24.437 -0.1643 -0.0726 -0.1303
70021W        W13037   7.711  19.928   6.535  0.0113 -0.1700  0.0756
70022W        W13038   6.003  16.669  21.302  0.2557 -0.0370  0.0897
70023W        W13039  16.427   2.836  22.463  0.1828  0.1570  0.1747
70024W        W13040  13.620   4.875  28.437 -0.3384 -0.2169 -0.1895
70025W        W13041  15.298   3.192  16.783  0.2605  0.1178  0.0787
70026W        W13042  21.947  33.016  18.740  0.0213  0.0658  0.1309
70027W        W13043   4.777   0.875  14.094  0.0204 -0.2458 -0.1646
70028W        W13044   8.527   1.157  21.741  0.0567 -0.2689  0.2042
70029W        W13045  16.787   6.882  14.615 -0.0534 -0.3163 -0.0622
70030W        W13046   9.897   2.975  18.226  0.0504  0.0097  0.1218
70031W        W13047   0.864   9.824  19.570 -0.0572 -0.0550  0.1668
70032W        W13048  15.652   5.202  18.696 -0.0584 -0.0577 -0.1199
70033W        W13049  15.572   8.416  16.372  0.1326  0.2143  0.2992
70034W        W13050  11.803   7.889  25.803  0.1099  0.3337 -0.2746
70035W        W13051   3.454   0.420  19.728 -0.0175  0.2857 -0.1634
70036W        W13052  27.055  33.900   5.663 -0.0681 -0.2355  0.0607
70037W        W13053  24.615   5.626  18.195  0.0350 -0.0907  0.1712
70038W        W13054  27.305   0.335  22.081  0.1763 -0.0156 -0.1372
70039W        W13055  33.398   7.806  10.341 -0.0058 -0.1315 -0.0706
70040W        W13056  26.776  23.213  23.618 -0.1524 -0.0093  0.1230
70041W        W13057  11.472  18.518  16.045 -0.3590 -0.3303 -0.2457
70042W        W13058  17.707  29.292  16.053  0.0628  0.0902  0.4931
70043W        W13059  28.203  16.888  19.082 -0.2353  0.1668 -0.0642
70044W        W13060  11.636  15.796  20.123  0.3700 -0.2177 -0.1425
70045W        W13061   2.445   4.964   3.888 -0.0206 -0.0481 -0.1118
70046W        W13062  14.829   9.615  14.497  0.0868  0.4048 -0.0786
70047W        W13063   8.752  18.699  19.164  0.2895 -0.2045  0.0196
70048W        W13064  26.889   5.921  16.209  0.1231 -0.1307 -0.0249
70049W        W13065  15.941  34.008  26.500 -0.1620  0.0639 -0.0788
70050W        W13066  16.311  32.511  21.353  0.1165 -0.1741 -0.0935
70051W        W13067   6.573  10.662  25.002 -0.2222  0.1475 -0.4608
70052W        W13068  13.690  26.949  26.766 -0.2824  0.1189 -0.0583
70053W        W13069  11.743   0.372  29.158 -0.3076  0.1212  0.0758
70054W        W13070  18.322  26.808  24.580 -0.3043 -0.1443  0.3467
70055W        W13071   2.723  20.607  15.475 -0.2808 -0.0297 -0.0470
70056W        W13072  22.140   8.068  19.946  0.0710  0.0467 -0.4813
70057W        W13073  32.868  10.012  26.966  0.0416 -0.1811  0.1920
70058W        W13074  12.781  10.479   1.070  0.2179  0.0507  0.2525
70059W        W13075  15.466  31.529  17.084 -0.0566 -0.3396 -0.0768
70060W        W13076  30.602   2.725  15.095 -0.1344 -0.0032 -0.2190
70061W        W13077  11.563  16.470  21.145 -0.0614  0.1977  0.2051
70062W        W13078   3.855   0.667   3.699  0.2089 -0.1216  0.0565
70063W        W13079   3.520  12.112  23.265  0.0219  0.0751  0.1289
70064W        W13080   2.709  12.697  24.968  0.1091  0.1628 -0.1262
70065W        W13081  19.040   6.362  21.174  0.0724 -0.1508  0.0469
70066W        W13082   1.189  32.231  27.132 -0.1940 -0.0444 -0.0267
70067W        W13083  21.784  29.928   7.093 -0.1446  0.1907 -0.2810
70068W        W13084  15.293  14.823  26.568  0.0204 -0.0799 -0.0056
70069W        W13085  10.345  23.048  27.886 -0.1437 -0.1957 -0.0869
70070W        W13086  27.617  14.042   4.417 -0.1615  0.2078  0.1737
70071W        W13087  26.172  24.201   0.770  0.3043  0.0216 -0.0916
70072W        W13088  28.736  34.411   2.552  0.4912  0.4186 -0.2370
70073W        W13089   0.216   2.225   0.054  0.1138 -0.0170 -0.0068
70074W        W13090  17.685  18.530  14.132  0.0943 -0.1396  0.1899
70075W        W13091   9.150   1.666  18.142  0.1067 -0.1832  0.2358
70076W        W13092  33.493  33.940   6.672  0.3231  0.1682 -0.1506
70077W        W13093  16.321  20.580  12.088 -0.0814  0.1296 -0.0360
70078W        W13094  13.741  27.139  25.994  0.1629  0.2060  0.2800
70079W        W13095  19.674  26.778  19.826 -0.3800 -0.0930 -0.2455
70080W        W13096   1.680  29.449  22.537 -0.1704  0.1147  0.0481
70081W        W13097  16.123   3.489  19.031  0.0168 -0.2086 -0.0156
70082W        W13098  23.920  19.614  16.260 -0.5249  0.1545 -0.2251
70083W        W13099  22.256   0.509  25.081  0.1573 -0.0717 -0.0325
70084W        W13100   9.817   6.020   3.960  0.2308  0.4619 -0.0779
70085W        W13101   7.835   1.255  27.320  0.0551 -0.2898  0.2270
70086W        W13102   4.780   1.367  25.535  0.0113 -0.3541 -0.1758
70087W        W13103  11.411  26.993  17.931 -0.0415 -0.0438 -0.1645
70088W        W13104   0.370   3.106   0.649  0.4084  0.0852 -0.1202
70089W        W13105   8.783  27.930  15.785 -0.2333 -0.0574 -0.2943
70090W        W13106  10.702  13.789  17.093 -0.2658  0.1630 -0.2532
70091W        W13107  23.874  12.779  13.926  0.0605 -0.1846 -0.0812
70092W        W13108   9.578  11.789  20.889  0.2722 -0.3102 -0.0687
70093W        W13109  19.456  31.944   0.291  0.3231  0.2205 -0.0584
70094W        W13110  22.241  34.356   7.416  0.2727  0.0645 -0.0405
70095W        W13111  18.969   5.437  20.297 -0.0601 -0.1132  0.2447
70096W        W13112   8.749   3.949  22.242  0.2373 -0.1813  0.1871
70097W        W13113   8.078  11.304  15.630 -0.4774  0.1675  0.4036
70098W        W13114  24.944   3.483  24.494  0.3273 -0.2397 -0.3182
70099W        W13115  31.770  20.119  24.690 -0.2828  0.1259  0.0923
70100W        W13116  25.548   1.520  19.926  0.1443 -0.1557  0.4409
70101W        W13117  11.452   9.085  25.590 -0.2181 -0.2555  0.0507
70102W        W13118  17.758   3.358  14.349  0.3392  0.2336 -0.1415
70103W        W13119  20.150   2.288  24.228  0.0899  0.3747 -0.1158
70104W        W13120  10.646   6.896  23.378  0.1536 -0.0312  0.2434
70105W        W13121  26.242  15.464   2.969  0.3014  0.1174  0.0418
70106W        W13122  23.845  34.065  21.377  0.3349 -0.1777 -0.4782
70107W        W13123   6.181  34.026   3.761 -0.2167  0.1574 -0.0010
70108W        W13124  34.771  10.184  14.255 -0.0258  0.2666  0.0197
70109W        W13125  14.263  14.901  16.487  0.2157  0.0318  0.2901
70110W        W13126  14.365   2.042  23.592  0.1335  0.3615  0.2003
70111W        W13127  16.024   9.925  18.670 -0.0181 -0.0046 -0.1011
70112W        W13128  21.482   2.416   9.000  0.2455  0.0870 -0.0103
70113W        W13129  19.792  30.736  16.202 -0.2439 -0.0026  0.2411
70114W        W13130  18.991   2.160  21.176 -0.3040  0.3503 -0.2137
70115W        W13131  33.913  14.487   9.998  0.1216 -0.1841 -0.5020
70116W        W13132  29.519   2.114   0.340  0.3263 -0.2381  0.0262
70117W        W13133   1.097   8.563  28.676  0.1285  0.1300  0.2605
70118W        W13134  11.517   4.714  26.431 -0.0656 -0.1351  0.2869
70119W        W13135  10.014   1.386  18.457 -0.3304 -0.3307 -0.1660
70120W        W13136  26.098  16.441  18.783 -0.0751  0.0753 -0.4101
70121W        W13137   1.827   7.317  17.706 -0.0390 -0.2655 -0.0474
70122W        W13138  19.533  16.215   1.585  0.4026  0.0380 -0.1024
70123W        W13139  17.986  31.393   7.691 -0.0755 -0.1587 -0.0558
70124W        W13140  13.805  16.283  13.158 -0.0477  0.2147  0.1713
70125W        W13141  26.413  13.230  19.482  0.0063  0.1953  0.1897
70126W        W13142  32.228  29.413  28.292  0.0047 -0.3145  0.0967
70127W        W13143  18.096  18.024   9.089  0.0698  0.0294 -0.0271
70128W        W13144  12.738   6.276  17.190 -0.4124 -0.2194  0.0890
70129W        W13145  12.174  27.875   1.963  0.1038 -0.1003  0.1486
70130W        W13146  17.835  29.356  28.235  0.4049  0.3596 -0.0164
70131W        W13147  20.468  13.719  14.468 -0.2088  0.0407  0.1733
70132W        W13148  34.195  26.080  19.780  0.0434  0.1287 -0.0439
70133W        W13149  12.810  13.234  17.556 -0.0348  0.0422 -0.1356
70134W        W13150  20.914  13.243   5.691  0.0093 -0.2907 -0.3319
70135W        W13151  23.164   7.480  24.549 -0.1816  0.1080 -0.1715
70136W        W13152  15.841  11.651  21.792  0.2283 -0.2521  0.0427
70137W        W13153  27.046  16.326  24.057 -0.1625 -0.2693  0.0669
70138W        W13154  20.440   5.626  13.689  0.2184 -0.1554  0.1445
70139W        W13155  32.667  20.956  20.813 -0.0888  0.1224 -0.0660
70140W        W13156  25.818  16.946  18.906  0.0646 -0.0575 -0.1923
70141W        W13157   4.634  10.961   8.676  0.1207 -0.1713  0.2013
70142W        W13158  17.983  25.972  22.160  0.1467  0.2659 -0.1288
70143W        W13159  18.206  23.216  17.911 -0.0358 -0.0072  0.0995
70144W        W13160  10.734   5.855  22.468 -0.0493 -0.0174 -0.0767
70145W        W13161  30.762   4.593   9.710  0.3947  0.1533 -0.1401
70146W        W13162   7.227  30.974  20.822 -0.0531 -0.1629 -0.0593
70147W        W13163  12.787   8.444  17.095  0.1198  0.2635 -0.1896
70148W        W13164  10.002  15.142   8.890  0.1650 -0.2676  0.0355
70149W        W13165  14.829   2.610   4.409  0.1487  0.1667 -0.1566
70150W        W13166   9.400  24.367   3.721 -0.0608  0.1883  0.1795
70151W        W13167  18.285  24.853   6.256 -0.1600 -0.2506 -0.0821
70152W        W13168   2.595  20.083  21.362  0.0696 -0.0316  0.0878
70153W        W13169  22.793   4.009   6.310 -0.3024  0.0433  0.6083
70154W        W13170  11.219   5.673  22.256 -0.0543  0.0391 -0.0321
70155W        W13171  16.599   9.555  27.377 -0.0050  0.2815 -0.2904
70156W        W13172  20.614  21.644  13.319 -0.1266  0.0286 -0.2841
70157W        W13173  13.445  32.469  21.957  0.2071 -0.1447 -0.4100
70158W        W13174  10.676  14.376  22.744 -0.1669 -0.1246 -0.2694
70159W        W13175   5.771   2.170  21.527 -0.2129 -0.0161 -0.0715
70160W        W13176   3.571   4.550  22.470 -0.2884 -0.0188  0.0275
70161W        W13177  29.568  17.628  19.886 -0.2661 -0.0688  0.1503
70162W        W13178  22.789  33.925   3.488 -0.0302  0.1229 -0.2017
70163W        W13179   9.606   8.294  27.689 -0.2241  0.1334  0.0986
70164W        W13180  19.266  33.027   4.872 -0.0436  0.0212 -0.1342
70165W        W13181   8.792  13.908  14.865 -0.4118 -0.1622  0.2698
70166W        W13182  28.659   8.456  26.283 -0.1891  0.1106 -0.0850
70167W        W13183  17.014  14.922   4.140 -0.0440  0.4023  0.0118
70168W        W13184  16.773  31.493  18.370 -0.1851  0.1817  0.1806
70169W        W13185  28.612  11.153  22.309 -0.0239  0.2054  0.0516
70170W        W13186  32.151  23.454  14.585  0.0977  0.0835 -0.1001
70171W        W13187  13.805  26.144   8.310 -0.1319 -0.0422  0.0710
70172W        W13188  18.809   9.552  14.067 -0.0861 -0.0148  0.0687
70173W        W13189  23.174  27.611  21.518  0.0581  0.0811 -0.1645
70174W        W13190  17.437  26.625  22.875  0.0120 -0.0968  0.2767
70175W        W13191  32.976  23.951  27.637  0.1127 -0.1330  0.0151
70176W        W13192  26.432   6.142  22.970  0.2356  0.0232  0.1773
70177W        W13193  14.483   9.991  26.305  0.0875  0.0007  0.0703
70178W        W13194  26.762  20.514  18.679  0.0129 -0.0370 -0.2102
70179W        W13195   8.844   7.941   7.968 -0.0641 -0.0436 -0.1920
70180W        W13196  13.374   7.391   3.738 -0.1929 -0.1307  0.1956
70181W        W13197  23.933  33.366   2.499 -0.2834  0.1098 -0.0099
70182W        W13198  33.895  34.603  26.928  0.0781 -0.0649  0.1068
70183W        W13199  27.077  31.970  24.775 -0.4170  0.2402  0.2591
70184W        W13200  15.443  26.126  26.528  0.1331  0.0592 -0.2014
70185W        W13201  21.900  34.667   3.963  0.3509 -0.2146  0.1143
70186W        W13202   6.718  15.021   3.175 -0.2733 -0.5375 -0.0377
70187W        W13203  28.814  11.654  16.009 -0.0361 -0.3111 -0.0343
70188W        W13204  20.685   6.187  13.730 -0.2221  0.1294  0.0963
70189W        W13205  11.756  30.051  18.016 -0.3548  0.1643  0.0172
70190W        W13206  16.671  19.180  16.956 -0.0607 -0.1993  0.2271
70191W        W13207  29.163  25.875  20.472  0.2486 -0.0892 -0.0290
70192W        W13208  24.282  11.801  25.021  0.3493  0.2104  0.0772
70193W        W13209   9.940  26.163  20.542  0.0530  0.1749  0.0280
70194W        W13210  14.997  10.043  19.141 -0.2260 -0.2342  0.2826
70195W        W13211  21.228  33.266  23.243  0.0422  0.0661  0.1941
70196W        W13212  19.073   9.644  18.617  0.1363 -0.0655 -0.0469
70197W        W13213  30.317  15.928  15.542 -0.0108 -0.0550  0.0378
70198W        W13214  10.056  26.937  20.560  0.1868  0.1111 -0.2248
70199W        W13215  27.597  33.774  19.692  0.2936 -0.1456 -0.0908
70200W        W13216  12.003   8.171  19.997 -0.2935  0.1679 -0.2397
70201W        W13217   8.352  19.448   2.321 -0.1058  0.0041 -0.0827
70202W        W13218  31.647   5.709  21.933  0.1798 -0.1757 -0.2628
70203W        W13219  11.138  26.186  26.997 -0.2114  0.1419  0.2477
70204W        W13220  10.961  24.802  27.974  0.5002 -0.1104 -0.0071
70205W        W13221  19.764   6.175  15.858  0.1299 -0.1520 -0.0763
70206W        W13222  14.457  28.967  20.499  0.2474  0.1452  0.0286
70207W        W13223   1.328   5.979  20.742  0.1138 -0.1408  0.0066
70208W        W13224  30.017   7.921  18.385  0.1089  0.2133 -0.1335
70209W        W13225  32.306  31.631  21.351  0.0503 -0.0527  0.1368
70210W        W13226  24.857  14.532  14.680 -0.1909  0.1961 -0.2202
70211W        W13227   9.284  10.524   1.464 -0.2217  0.1724  0.0172
70212W        W13228  16.226  10.147  24.299 -0.0231  0.1538 -0.2281
70213W        W13229  24.630  15.863  21.780 -0.5299  0.0911 -0.2746
70214W        W13230  22.575  13.892  18.286 -0.2258 -0.0896  0.0203
70215W        W13231  14.878  30.720  16.311  0.0762 -0.1655 -0.2285
70216W        W13232  16.287  12.209  13.047  0.0903 -0.0896  0.1047
70217W        W13233   1.454  15.745  22.910  0.1970 -0.2579 -0.2465
70218W        W13234   4.262   6.405  21.971 -0.0513  0.0908  0.1446
70219W        W13235   8.493   4.703  14.959  0.1303 -0.1895 -0.1313
70220W        W13236  22.136  11.505  26.005  0.1140 -0.2126 -0.0535
70221W        W13237  11.054  15.769  14.112  0.0466 -0.3024 -0.0940
70222W        W13238  12.639   0.863  14.708  0.0560 -0.3720 -0.3098
70223W        W13239  33.451   2.706  15.828 -0.0275  0.0605 -0.0761
70224W        W13240   7.361   4.007  26.714  0.3367 -0.0241  0.1157
70225W        W13241  31.448   8.889   3.486 -0.0621  0.0404 -0.0649
70226W        W13242   8.342  15.420  23.737  0.2053 -0.1039 -0.0752
70227W        W13243   9.489   7.045  18.002  0.0452 -0.1012  0.0143
70228W        W13244  26.399   2.592  28.560  0.0083 -0.2530  0.2639
70229W        W13245  21.003   6.692   4.225 -0.1208 -0.0811  0.0345
70230W        W13246  22.895  27.843  17.914  0.3129 -0.1836  0.3436
70231W        W13247   6.779  20.873  27.574  0.0196 -0.0889 -0.3227
70232W        W13248  30.360  32.089   1.975 -0.1250 -0.4782 -0.1382
70233W        W13249   8.825  30.042   4.638 -0.2483 -0.0382 -0.3780
70234W        W13250  15.409  14.803  26.116  0.3140  0.0557  0.1417
70235W        W13251  21.123  29.488  16.760  0.0637  0.0172 -0.1153
70236W        W13252  23.592   0.357  22.894 -0.2452  0.3067  0.0394
70237W        W13253  18.027   4.505   0.225  0.1309  0.0534 -0.0356
70238W        W13254   6.329  16.723  19.844 -0.1402 -0.1593 -0.3421
70239W        W13255  26.973  16.595   3.225  0.0246  0.0951  0.0875
70240W        W13256  14.611  31.118  21.942  0.2367 -0.0540  0.0365
70241W        W13257   5.829   3.594  15.432 -0.0013 -0.1366  0.0645
70242W        W13258   8.008  30.116  18.639 -0.0376  0.1576 -0.1627
70243W        W13259   1.758   3.164   0.160  0.2372  0.0995 -0.2307
70244W        W13260  19.697   7.213  19.751  0.4591  0.1852  0.1778
70245W        W13261   2.618  11.936   3.867  0.1707  0.0292 -0.1110
70246W        W13262   9.025   9.550  23.092 -0.1737  0.3035  0.1494
70247W        W13263   9.270  24.291  14.469  0.2383 -0.1103 -0.0498
70248W        W13264  22.216  33.655   1.779  0.0274 -0.2084 -0.1446
70249W        W13265  19.241   9.418  21.270  0.0361 -0.2389 -0.1963
70250W        W13266   3.961  11.955  15.780 -0.3186  0.0030 -0.2356
70251W        W13267  22.721  33.234  20.371  0.3554 -0.0860  0.1052
70252W        W13268   9.965  12.382  18.862  0.1497 -0.3596  0.1013
70253W        W13269  18.095  31.166  28.958 -0.0511 -0.2054 -0.2435
70254W        W13270  29.939  12.951  17.524  0.1714 -0.3489 -0.0861
70255W        W13271  21.812   4.384   2.235 -0.3093 -0.0538 -0.4007
70256W        W13272  15.572   8.978  14.571 -0.0652 -0.0588  0.2239
70257W        W13273  13.556  28.121  20.027 -0.0270 -0.1605  0.1343
70258W        W13274  15.392  11.756  21.122 -0.1683 -0.0013 -0.2197
70259W        W13275   9.051  28.240  27.988 -0.2541 -0.1772 -0.0251
70260W        W13276  13.196   9.170  24.428  0.4097 -0.0617  0.2760
70261W        W13277  21.799  13.830  23.287 -0.1080 -0.1404 -0.2330
70262W        W13278  10.069  34.170   8.951  0.1462 -0.0940  0.1466
70263W        W13279  12.829   9.409   4.858 -0.1794 -0.0010 -0.0942
70264W        W13280  27.212  28.262   3.562  0.2771  0.2545 -0.0188
70265W        W13281  11.752   4.924  16.981 -0.3147 -0.2004  0.0486
70266W        W13282  18.596  31.221  25.139  0.1987 -0.2616  0.0383
70267W        W13283   5.734   3.595   6.365  0.0428  0.0923  0.0653
70268W        W13284  26.618  34.580  27.998 -0.0416  0.0288 -0.1032
70269W        W13285  15.527   0.527   6.132  0.1715  0.2389 -0.2141
70270W        W13286   2.186  23.976   4.981  0.0685  0.1854 -0.1005
70271W        W13287   5.603  13.406   7.192  0.0674  0.0294  0.0818
70272W        W13288   9.962  16.159  18.299  0.0173  0.1136  0.0627
70273W        W13289   0.704   6.823  25.797 -0.1131 -0.1460 -0.0634
70274W        W13290   7.475  13.974   3.240  0.0388  0.0315 -0.1995
70275W        W13291   0.025  17.905  18.671 -0.0596 -0.0623 -0.1447
70276W        W13292  16.145   2.507   2.310 -0.1998 -0.1355  0.1847
70277W        W13293  10.522   2.467  20.636  0.3279 -0.0236 -0.0918
70278W        W13294  16.922  19.356   3.709  0.1717  0.0644  0.2438
70279W        W13295  10.708  10.241  17.125 -0.3485 -0.4230 -0.1590
70280W        W13296  30.373   8.544  23.255 -0.1561  0.1242 -0.0991
70281W        W13297  20.957   1.003  10.253  0.1312 -0.0763 -0.0266
70282W        W13298  16.967  18.883  22.011 -0.3043  0.0478  0.3472
70283W        W13299  15.955  33.565  17.024 -0.1647  0.0614 -0.0995
70284W        W13300  25.320  28.501  21.021 -0.0836  0.0728  0.0523
70285W        W13301   5.164  17.605  17.265  0.2113  0.3691 -0.0561
70286W        W13302  12.487   0.864   9.395  0.0757 -0.0223 -0.1821
70287W        W13303  13.792  15.995  26.768  0.0814 -0.0972  0.3298
70288W        W13304  13.107   7.823  26.531  0.0270  0.0144  0.3848
70289W        W13305  16.330  33.707   9.172  0.0938 -0.0592 -0.1153
70290W        W13306  20.200  24.565  20.001  0.2590  0.0497 -0.1042
70291W        W13307   8.542   3.671   0.053 -0.0217  0.2018  0.3155
70292W        W13308   9.815   5.111  24.572 -0.3687 -0.1678  0.1793
70293W        W13309  15.148   5.116  23.352 -0.1377  0.2399  0.3360
70294W        W13310   2.850   8.855  26.826  0.0920  0.2934  0.0346
70295W        W13311  13.751  14.548  19.542 -0.0973 -0.1956  0.1137
70296W        W13312  20.602  27.268   1.590 -0.2245 -0.1869 -0.1483
70297W        W13313   8.135   9.621  21.144 -0.2800  0.2879  0.1565
70298W        W13314  15.703   4.876  16.614  0.0243  0.0158  0.0186
70299W        W13315  20.439   3.914   9.306  0.5531 -0.2192 -0.0051
70300W        W13316  25.121  11.942  26.059  0.2906  0.0310  0.2158
70301W        W13317   7.882   2.101  24.929  0.1036  0.0160 -0.1298
70302W        W13318  12.018  18.384   3.117  0.0322  0.2580 -0.2404
70303W        W13319  20.500  11.738  19.533 -0.0954  0.1129 -0.2299
70304W        W13320  14.157   1.894  17.285  0.4263 -0.1804 -0.1111
70305W        W13321  34.303   4.877   7.501  0.0267 -0.1273 -0.0307
70306W        W13322  11.218   6.687  24.025  0.0620  0.0923  0.0545
70307W        W13323  19.908   2.037   8.773 -0.1090  0.1595 -0.0018
70308W        W13324  18.295  27.285  17.364 -0.0158 -0.0489 -0.0178
70309W        W13325  17.329   2.647  16.885  0.1041  0.1812  0.1392
70310W        W13326  34.127  11.753   6.681  0.0574  0.2829 -0.1673
70311W        W13327   5.427  34.438  18.139  0.0417  0.0974 -0.1182
70312W        W13328  20.958  28.261   0.172 -0.0798 -0.0688  0.0100
70313W        W13329  18.584  23.553   9.189  0.3242 -0.0339 -0.0637
70314W        W13330   0.098   7.820  17.602 -0.0601  0.2628 -0.0181
70315W        W13331  32.063   9.273   5.741  0.2852  0.0965  0.1960
70316W        W13332  18.132  34.413  10.622  0.1210 -0.0945  0.0643
70317W        W13333  18.678  24.074  28.843  0.3547  0.2001  0.0816
70318W        W13334  13.618  14.842  14.401  0.3312  0.2539 -0.0664
70319W        W13335  18.362  16.334  29.081  0.3278  0.1016  0.0968
70320W        W13336  16.273   1.427  13.834 -0.0047 -0.0366 -0.1727
70321W        W13337   8.325   6.732  23.093  0.0789 -0.0732  0.1314
70322W        W13338  19.469  24.685  13.686 -0.1151  0.1577 -0.3623
70323W        W13339  17.454  10.333  23.657 -0.2094 -0.0823  0.0604
70324W        W13340  22.130  23.798   1.064  0.3058  0.0285 -0.1551
70325W        W13341  18.884   0.237  10.843 -0.0063 -0.1183  0.1233
70326W        W13342  21.678  16.847   4.116  0.0563 -0.1547  0.2524
70327W        W13343   9.360  12.946  24.559  0.1084  0.3368  0.1411
70328W        W13344  25.277   7.546   0.448  0.0132  0.1911 -0.1734
70329W        W13345  21.412  17.120   8.819 -0.0708 -0.2354  0.2118
70330W        W13346  19.724  11.206  25.652 -0.1696  0.0817 -0.1053
70331W        W13347  16.224   0.432  15.300  0.0467  0.0611 -0.2307
70332W        W13348  16.471  24.200  24.359 -0.0646 -0.0608  0.1208
70333W        W13349   8.638  25.432  14.990 -0.0694  0.4271  0.1757
70334W        W13350   3.456  10.448  24.662 -0.0136 -0.0409 -0.2991
70335W        W13351  19.064  10.021  21.791  0.0171  0.0404 -0.1041
70336W        W13352  33.429  31.581  11.834 -0.0964  0.1825 -0.2979
70337W        W13353  13.598  32.909  18.695  0.1007  0.5162 -0.4369
70338W        W13354  11.331  23.091  24.093 -0.0728 -0.3663  0.3717
70339W        W13355  15.084   8.046   6.922  0.1368 -0.1018 -0.3392
70340W        W13356   4.822   7.603  16.259 -0.2253  0.1054 -0.0458
70341W        W13357  12.904  12.429  27.558 -0.2088 -0.0117  0.1837
70342W        W13358   9.648  31.263  26.479 -0.1244 -0.3005 -0.1404
70343W        W13359  21.811   1.648   2.893  0.2885  0.0945  0.1626
70344W        W13360   3.372  32.143   7.011  0.7321  0.0507 -0.0593
70345W        W13361   4.584  10.535  23.807 -0.0860 -0.2154 -0.1109
70346W        W13362  21.297  32.320  19.997  0.0587  0.0029  0.2680
70347W        W13363   5.040   4.540  23.908  0.0175  0.5246  0.0643
70348W        W13364  21.362  28.061  17.180  0.0733  0.1338  0.2450
70349W        W13365  14.241  21.548  20.766 -0.1327 -0.1146  0.0359
70350W        W13366  14.939   6.093  18.821 -0.0058  0.0614 -0.1237
70351W        W13367  29.958  14.092  19.812  0.1446  0.1751 -0.0556
70352W        W13368  13.047  17.965   1.386 -0.1704  0.1160  0.3342
70353W        W13369   8.434   4.399  28.133 -0.0080  0.0912  0.5706
70354W        W13370  29.635   1.015   0.606  0.1659  0.2477  0.1245
70355W        W13371  21.716  19.701  21.774 -0.1977 -0.3826 -0.1924
70356W        W13372  20.156   2.667  23.764 -0.0206 -0.0752  0.0064
70357W        W13373  28.020  28.985   0.881  0.2304  0.2557 -0.1362
70358W        W13374   6.171   0.784  17.111  0.0203 -0.0767  0.1065
70359W        W13375  10.540  23.698   8.048 -0.1410 -0.0668  0.1986
70360W        W13376  11.220   8.687  14.146 -0.2492 -0.1197 -0.2008
70361W        W13377   7.509  24.885  15.656 -0.0337 -0.2814 -0.0738
70362W        W13378  11.962   3.616  24.819  0.0107 -0.3117 -0.2012
70363W        W13379  14.840  17.422   0.405  0.0341 -0.0741  0.0023
70364W        W13380  16.495   6.427   4.868 -0.0555 -0.1776 -0.1142
70365W        W13381   8.082   7.906  22.084  0.0901 -0.0710 -0.0889
70366W        W13382  11.841  30.124   1.915  0.0933 -0.0552 -0.2780
70367W        W13383  12.376   8.748  15.281 -0.1063 -0.1816  0.2980
70368W        W13384   5.785  11.675  21.374  0.2303 -0.0146 -0.0403
70369W        W13385  10.101  17.001  21.559  0.0665 -0.0467 -0.1949
70370W        W13386  16.026   7.584  28.309  0.0698 -0.1311 -0.2228
70371W        W13387   0.726  17.329  23.066  0.0452 -0.1963 -0.0593
70372W        W13388  18.266  16.273   0.767 -0.0248  0.0472  0.0568
70373W        W13389  21.173   6.978   9.692 -0.0633  0.1703 -0.3236
70374W        W13390  19.960   9.581  25.521 -0.0443 -0.2419  0.0089
70375W        W13391  24.185   4.793   9.633  0.2526 -0.1641 -0.0356
70376W        W13392  22.557  33.880  15.934 -0.2680  0.2225  0.1366
70377W        W13393  19.734  12.822  15.402  0.0481  0.2217 -0.2260
70378W        W13394  11.630   6.649  18.774 -0.0587 -0.3092 -0.3281
70379W        W13395  14.933  26.242   1.787  0.1200  0.0019  0.1407
70380W        W13396   7.893   3.976  15.295  0.1988 -0.1639 -0.2129
70381W        W13397  30.443   1.697  26.693 -0.2331 -0.0760 -0.2965
70382W        W13398  16.187   4.409   5.628 -0.0741 -0.1169  0.1260
70383W        W13399  19.795  31.578   0.006 -0.1876  0.3174 -0.1445
70384W        W13400   9.886  18.025  24.296  0.1464  0.1403  0.0652
70385W        W13401  22.767  29.143   6.393 -0.1895  0.1292  0.2250
70386W        W13402  16.915  14.291   6.308  0.0690  0.2474  0.0155
70387W        W13403  19.276  34.455  22.381  0.1252  0.1458  0.1287
70388W        W13404  15.123   6.177   4.293 -0.0196 -0.0140 -0.2512
70389W        W13405   9.744  28.933  14.222 -0.0941 -0.2516 -0.0950
70390W        W13406  30.952  25.575   2.734 -0.0618 -0.2526 -0.1873
70391W        W13407  12.434  14.550  20.043 -0.0098 -0.1249  0.4138
70392W        W13408  24.087   4.750   8.791 -0.0243 -0.5159 -0.0069
70393W        W13409   1.844   0.159  26.975  0.1196  0.0765  0.2344
70394W        W13410  19.072   4.102  26.871  0.0875  0.2990 -0.3216
70395W        W13411  16.313  16.931  12.133 -0.0917 -0.0779 -0.1015
70396W        W13412   3.524   7.206  18.403 -0.2593  0.1850 -0.1055
70397W        W13413  11.471   2.268   5.665 -0.0094  0.1041 -0.1542
70398W        W13414  30.636  30.178  26.020  0.0476 -0.0952  0.1702
70399W        W13415  13.740   0.925  16.314  0.1841 -0.1238  0.0429
70400W        W13416   1.452   4.774  23.597 -0.0871 -0.1549 -0.2464
70401W        W13417   7.575   5.933  23.302 -0.0487  0.2411  0.4299
70402W        W13418  17.285  33.020  14.612  0.3643  0.5066  0.1661
70403W        W13419  28.432  33.148  19.831  0.1427 -0.0407  0.0926
70404W        W13420   6.753  13.083  15.518  0.1900 -0.1695 -0.0843
70405W        W13421   3.542   1.455  29.125 -0.1222  0.2227  0.1688
70406W        W13422  11.488  10.674   5.955 -0.2183 -0.3588 -0.0348
70407W        W13423  18.890  31.043  20.715 -0.4139 -0.0095 -0.2707
70408W        W13424  28.570  16.860   1.840  0.0816 -0.1348  0.1224
70409W        W13425  26.426   6.431   4.690  0.1739 -0.1309  0.0076
70410W        W13426  21.166  12.785  28.813 -0.2922 -0.0291 -0.1368
70411W        W13427  23.027  22.140  15.801  0.4634 -0.2781  0.0630
70412W        W13428   9.347  25.914   1.450  0.1741  0.3195 -0.1944
70413W        W13429  14.368  25.079   0.160  0.1607  0.1506  0.0827
70414W        W13430  24.978   3.314   3.180  0.3597 -0.4152  0.1800
70415W        W13431  34.488  11.969  25.178  0.1445  0.0045  0.2027
70416W        W13432  23.578   3.733   8.360 -0.2763  0.0481 -0.0211
70417W        W13433  27.412  20.806   4.640 -0.0528  0.0245 -0.0904
70418W        W13434  34.436   5.356   3.900 -0.2489 -0.1252  0.0830
70419W        W13435   4.991   8.086  26.295  0.0941 -0.1284 -0.1326
70420W        W13436  16.775  34.754   2.613  0.0143  0.0165 -0.5420
70421W        W13437  11.917  34.512   0.150  0.0211 -0.1685  0.0028
70422W        W13438   8.471  29.652  14.821 -0.2391 -0.1028  0.1608
70423W        W13439   1.515  18.401  25.237  0.0444 -0.0160  0.4542
70424W        W13440  11.083   2.164   9.001  0.0183 -0.1906 -0.2103
70425W        W13441  26.034   6.608  28.528 -0.1741 -0.0823 -0.2237
70426W        W13442  12.580   4.651  21.938 -0.0619 -0.1814 -0.2575
70427W        W13443  23.283  19.587  17.157 -0.1868 -0.2133 -0.0720
70428W        W13444  28.999  19.538  16.046 -0.3603 -0.1370 -0.1531
70429W        W13445   1.946  31.110  17.250  0.2081  0.4068 -0.1374
70430W        W13446  26.785  13.484  19.391  0.2785 -0.0247  0.1002
70431W        W13447  27.628   3.609  23.753  0.2596  0.1414 -0.0004
70432W        W13448   3.304  32.620  26.210  0.5160 -0.1665  0.1605
70433W        W13449   6.602  30.775   1.395 -0.0709 -0.0802 -0.2373
70434W        W13450  10.434  10.738  25.613  0.1957  0.0696 -0.2859
70435W        W13451  23.315   0.680  25.212 -0.1169  0.2047  0.2518
70436W        W13452  33.515   4.518  22.991  0.0931  0.0209 -0.0649
70437W        W13453  33.241   3.000   7.396 -0.1120 -0.0178  0.0244
70438W        W13454  11.120  11.650  18.252 -0.1353 -0.1007  0.1192
70439W        W13455  26.341  24.616  22.907 -0.2725  0.0222  0.0990
70440W        W13456  22.658   6.714  26.346  0.3051 -0.0774 -0.4042
70441W        W13457  22.100  28.561   6.896  0.2607 -0.1312 -0.1210
70442W        W13458   0.629  28.799   3.345 -0.0487 -0.1423  0.0377
70443W        W13459  21.961  11.974  19.941 -0.0881  0.0153  0.0377
70444W        W13460  11.465  13.719  22.540 -0.0092  0.0487 -0.0123
70445W        W13461  11.296  10.064   4.207  0.0571 -0.1175 -0.1959
70446W        W13462   4.477   8.388  23.898 -0.2514  0.0975  0.1203
70447W        W13463  20.775  34.751  28.155  0.0499 -0.4603 -0.2480
70448W        W13464  10.470  21.104  19.851  0.1047 -0.0401  0.1736
70449W        W13465   2.410   0.821  20.718 -0.0818 -0.1522 -0.0449
70450W        W13466  30.261  32.520  26.378 -0.1046  0.2165 -0.1100
70451W        W13467  23.744   6.875  16.392 -0.1225  0.1443 -0.0136
70452W        W13468  13.423  11.615  13.778 -0.3337 -0.0556 -0.0846
70453W        W13469  21.061  10.223   2.098 -0.1855  0.0364 -0.1893
70454W        W13470  26.360  12.516   6.617  0.0205 -0.2081 -0.0285
70455W        W13471  29.825  27.726  27.183 -0.1614  0.0651  0.0619
70456W        W13472  25.799   9.101   6.217 -0.1488  0.0117  0.3424
70457W        W13473   3.625   4.593  19.055 -0.0856  0.1056 -0.0967
70458W        W13474  13.664  29.306  20.842 -0.1247 -0.2171 -0.2534
70459W        W13475  11.942  28.195  23.462 -0.0508 -0.2415 -0.2445
70460W        W13476  13.373   5.318  28.334 -0.0292 -0.1868 -0.0847
70461W        W13477  30.960   6.214   5.250 -0.2082 -0.2151 -0.1211
70462W        W13478  29.908  19.505   0.580 -0.0030  0.1469  0.0896
70463W        W13479  16.322  34.322  23.558  0.1634  0.0938 -0.0410
70464W        W13480  22.450  15.508  28.212 -0.2168 -0.0830  0.0075
70465W        W13481  29.747   0.465  23.643  0.0491 -0.1656  0.1143
70466W        W13482  13.356  11.131  27.009  0.2789  0.2378 -0.1778
70467W        W13483  22.864   1.497  20.433 -0.0508 -0.0604  0.0558
70468W        W13484   5.402   2.307  25.758  0.0727 -0.0794 -0.2425
70469W        W13485  13.329  11.982  28.798  0.1408 -0.2934 -0.2113
70470W        W13486  10.275   4.882  28.124 -0.2203 -0.2497 -0.1490
70471W        W13487  32.894  23.763  24.201  0.0079 -0.1647  0.0043
70472W        W13488  24.315   7.278  19.694  0.3077  0.0292  0.0095
70473W        W13489  13.650  33.951   6.336 -0.0104 -0.1816  0.1319
70474W        W13490  33.527   7.760   7.795 -0.0239 -0.0248 -0.1325
70475W        W13491  14.164  24.035   6.793  0.2029  0.1720 -0.2432
70476W        W13492  23.447   1.207  18.235 -0.1624 -0.2085  0.0778
70477W        W13493  18.476   1.492  26.048  0.3487 -0.2821  0.2579
70478W        W13494  16.959  14.949  18.164  0.1020 -0.0084  0.1653
70479W        W13495  19.363   7.183  21.422 -0.1475  0.2446 -0.0334
70480W        W13496  11.028   9.733  26.052  0.1019  0.2362  0.2247
70481W        W13497   4.411  23.282  14.659  0.0407 -0.0150  0.0347
70482W        W13498  30.505  24.092  25.345 -0.0682 -0.2272 -0.2243
70483W        W13499   9.993  13.419   8.424  0.2410 -0.0502 -0.0490
70484W        W13500  32.494   7.168   8.079  0.1857 -0.1470  0.0211
70485W        W13501   8.326   9.939  14.484  0.1169 -0.0811 -0.0374
70486W        W13502  29.087  31.793   0.179  0.1436 -0.1284 -0.3394
70487W        W13503  28.695  10.761   3.562  0.0513  0.1102 -0.0931
70488W        W13504  22.730  30.592   2.608  0.0180 -0.2435  0.0377
70489W        W13505   5.723  33.492  16.140  0.0131  0.0763  0.3046
70490W        W13506  13.559  31.040  21.156  0.1002  0.0533 -0.2958
70491W        W13507  13.695  20.183  14.527  0.3180  0.3509 -0.0582
70492W        W13508  17.154   2.918  16.493  0.0525  0.0251  0.2349
70493W        W13509  25.950  13.069   8.558 -0.1885  0.0515  0.2940
70494W        W13510  17.437   9.609  16.933  0.1929  0.1547 -0.0124
70495W        W13511   6.592   7.258  15.469 -0.1624  0.2865 -0.0268
70496W        W13512   5.448  10.634   3.737  0.5115 -0.0168 -0.1553
70497W        W13513  12.286   5.726  25.870 -0.1850  0.2101 -0.0927
70498W        W13514   1.362   6.781  24.478  0.0483  0.2198 -0.2443
70499W        W13515  26.056   4.192   5.685  0.0167 -0.1119 -0.0828
70500W        W13516  10.931   0.155  20.295  0.2320  0.0340 -0.0213
70501W        W13517   1.296  34.071  24.134 -0.2795  0.0624 -0.2225
70502W        W13518  12.990  23.272  28.650 -0.1659  0.0153 -0.0335
70503W        W13519  23.338   2.134  21.030 -0.0977  0.1971 -0.2290
70504W        W13520  11.621   5.436  27.844  0.2797  0.1272  0.1075
70505W        W13521  29.995   8.146  28.910  0.4504 -0.3489  0.0024
70506W        W13522  14.027  20.095  21.632  0.0513  0.2022  0.0273
70507W        W13523   1.233  11.575   1.352 -0.3141 -0.0583  0.1532
70508W        W13524   7.701  13.618  21.531  0.0784 -0.0330 -0.3976
70509W        W13525  16.109  23.695  19.610 -0.1162 -0.1305 -0.1204
70510W        W13526   7.639  33.849   4.860 -0.1248  0.2076  0.1044
70511W        W13527   7.499  29.349  19.070  0.1795  0.0036 -0.0174
70512W        W13528   5.243   0.022   2.804  0.1027 -0.1004 -0.0495
70513W        W13529  18.235   4.200  26.488  0.0557  0.0306 -0.2990
70514W        W13530   9.865   0.085   1.825  0.2650  0.1037  0.0245
70515W        W13531  16.640   6.144  22.559 -0.0192 -0.0585 -0.0558
70516W        W13532  20.845   1.820  29.224  0.1710  0.1381  0.1377
70517W        W13533  15.885  33.343   1.737 -0.0132 -0.0209  0.2056
70518W        W13534  15.005  31.168   6.207  0.0458 -0.2915 -0.1019
70519W        W13535  28.472  33.218   4.266 -0.1987 -0.2314 -0.0561
70520W        W13536  21.056  28.325  17.485  0.1360 -0.0999  0.0357
70521W        W13537  15.118  13.547   4.261  0.1989  0.1538  0.1578
70522W        W13538  25.888  29.548  16.312  0.0302 -0.0079 -0.1307
70523W        W13539  24.469   9.580  17.099  0.0423 -0.2350  0.4066
70524W        W13540  17.512   2.563   3.668  0.0130 -0.2266 -0.2869
70525W        W13541  26.097  20.879  13.842 -0.0858 -0.1776  0.3177
70526W        W13542  19.832  13.201  16.379  0.0544 -0.0337 -0.1978
70527W        W13543  11.661  33.964  15.521  0.1598 -0.2505 -0.0064
70528W        W13544  27.810   1.726   1.459 -0.1713  0.0230 -0.1629
70529W        W13545   2.143   0.181  17.816  0.0470 -0.0276 -0.0286
70530W        W13546  32.057  17.740   7.694  0.0210  0.0936  0.0541
70531W        W13547   7.307  24.063  14.175  0.0513  0.2156 -0.2941
70532W        W13548  16.875  11.477  14.416 -0.0254  0.1336 -0.0104
70533W        W13549   6.103  15.458   1.627  0.0119  0.1483 -0.4240
70534W        W13550  30.933   7.352  10.630  0.2272  0.1601 -0.2517
70535W        W13551  14.139  14.935   2.117  0.4115  0.2880  0.0517
70536W        W13552   2.862  18.769  16.123  0.0382 -0.1445  0.0173
70537W        W13553   8.631  11.644   3.731 -0.1290  0.1050  0.3154
70538W        W13554   2.534   3.149   8.398 -0.2760 -0.0972 -0.0998
70539W        W13555   8.572  28.118   8.662 -0.3345  0.0587  0.2697
70540W        W13556  15.518  15.725  27.377 -0.0147  0.0571  0.1836
70541W        W13557  17.878  10.882   6.870 -0.1570  0.1099 -0.3150
70542W        W13558   9.977  11.727   6.253  0.1949 -0.1110 -0.0136
70543W        W13559   9.764  11.564  26.965  0.0937 -0.0110  0.0944
70544W        W13560  19.493  12.634  13.626  0.0229 -0.4053  0.2995
70545W        W13561  26.360  33.902  27.006  0.3490  0.0190  0.3326
70546W        W13562   6.788  32.924   4.177  0.1643 -0.2218 -0.0007
70547W        W13563  20.805   9.129  24.114 -0.2255  0.1095  0.0070
70548W        W13564  18.686  12.626   0.676 -0.2852  0.0122 -0.2329
70549W        W13565  27.072  15.303   1.852 -0.0315 -0.1143 -0.2864
70550W        W13566  10.087  18.293  28.674  0.0409 -0.0017  0.0446
70551W        W13567  17.630   4.778  19.875 -0.2368  0.2936  0.1396
70552W        W13568  10.405   1.619   1.272  0.1029  0.0824  0.0311
70553W        W13569  27.574   8.957  22.772  0.1542 -0.2152 -0.4041
70554W        W13570   2.994   0.997  27.728  0.3290 -0.2849 -0.0062
70555W        W13571  33.545   6.475  27.213  0.0093 -0.2906 -0.0345
70556W        W13572  27.767  31.934   2.975  0.0711  0.1412  0.0930
70557W        W13573  21.431  16.959  27.329 -0.1007  0.1896 -0.0702
70558W        W13574   3.513  31.387  20.915  0.0905  0.3126  0.3470
70559W        W13575  10.249  11.305   6.056  0.0986 -0.0697  0.0158
70560W        W13576  21.680  13.817  18.808  0.1085  0.1437  0.1181
70561W        W13577  16.310   0.509  25.278 -0.1353  0.2379 -0.0282
70562W        W13578  18.666   8.437  18.140 -0.0895 -0.0163  0.0787
70563W        W13579  14.116  22.773   2.340  0.3526 -0.0009  0.1795
70564W        W13580   0.025  31.517  28.121 -0.1378  0.1656 -0.2129
70565W        W13581   8.500  22.399  28.239  0.1299 -0.0668  0.0959
70566W        W13582   9.820   2.773   3.676 -0.0493 -0.1644 -0.3156
70567W        W13583   0.574   7.871  26.837  0.2158 -0.1849  0.5439
70568W        W13584   2.977  28.357  27.228 -0.4507  0.1789 -0.3007
70569W        W13585  23.206  25.213  29.047  0.0932  0.3420 -0.3016
70570W        W13586  12.144  21.213  24.338  0.3036 -0.2145 -0.0028
70571W        W13587  17.959  12.332  19.033 -0.0526  0.2680 -0.2585
70572W        W13588   1.172   7.240  21.028 -0.2144 -0.0244  0.1697
70573W        W13589   6.254  27.346  14.957 -0.0367  0.0305 -0.2436
70574W        W13590   8.535   7.794  15.966 -0.2905 -0.0051  0.2879
70575W        W13591   5.798  33.152   5.768 -0.1060 -0.3437  0.0899
70576W        W13592  24.110  30.043   4.652  0.2403 -0.1962 -0.2095
70577W        W13593  12.035   2.269   6.615  0.0568  0.2920  0.1506
70578W        W13594   6.400  31.060   7.662 -0.2210  0.1010 -0.1735
70579W        W13595   3.504  28.807   7.675 -0.1187 -0.1700 -0.1055
70580W        W13596  15.440  12.274  22.308  0.0882 -0.1357 -0.0352
70581W        W13597  19.355   5.733  26.491  0.1434  0.3364  0.1284
70582W        W13598   5.947  11.896  22.500  0.3672  0.4372  0.0263
70583W        W13599   0.212  13.969  16.535  0.0650  0.1535 -0.0674
70584W        W13600  12.970  14.938  27.959 -0.1569 -0.1333 -0.0114
70585W        W13601  15.218  28.979  24.656  0.1487  0.4010  0.2231
70586W        W13602  12.891   1.431   8.721 -0.3161  0.5182  0.0933
70587W        W13603  19.435   5.343  27.777  0.0561  0.2035  0.1571
70588W        W13604  20.183  10.366  18.949  0.2278  0.0615 -0.1988
70589W        W13605  21.634  15.612  28.831  0.2622 -0.0341 -0.1115
70590W        W13606   3.893  33.776  18.739  0.1521 -0.0579  0.0968
70591W        W13607  19.321   9.008   4.880  0.1194  0.0432 -0.0909
70592W        W13608   2.573  16.374  22.334 -0.1742 -0.1010  0.2350
70593W        W13609  19.792  11.804  26.728 -0.0867 -0.2598  0.3113
70594W        W13610  33.844  12.386   1.319  0.1243  0.1341 -0.5592
70595W        W13611  23.765   9.798   3.373 -0.1751  0.2293  0.0938
70596W        W13612  10.163  26.728   1.879  0.1824  0.3860  0.3749
70597W        W13613  16.399  11.098  14.705 -0.1336 -0.1325 -0.2562
70598W        W13614  18.124  28.936  15.278 -0.1343  0.0849 -0.4052
70599W        W13615  24.188   2.414  11.769 -0.2632 -0.0607 -0.0433
70600W        W13616  23.790   5.527  28.070  0.0072 -0.2148  0.1447
70601W        W13617  22.133   1.297   5.005 -0.2474  0.1424  0.1463
70602W        W13618  15.004   7.699  17.749 -0.1247 -0.2190 -0.2529
70603W        W13619  33.450  16.054   1.008  0.0933  0.1278 -0.1740
70604W        W13620  31.133  31.344   4.567 -0.1768  0.1604  0.2690
70605W        W13621  14.680  17.133   3.141 -0.0644  0.0131  0.1016
70606W        W13622  23.173   3.003  11.474 -0.1033  0.2537  0.0276
70607W        W13623   6.073  24.883  28.613  0.0014  0.0179 -0.0743
70608W        W13624  27.703  16.272   9.733  0.2885 -0.1393  0.3284
70609W        W13625   2.651  10.779  27.310 -0.1378 -0.1672  0.1792
70610W        W13626  17.640  15.981  20.896 -0.2340  0.2110  0.1163
70611W        W13627  17.445   7.601  13.924 -0.1450  0.5143 -0.1887
70612W        W13628  24.466   9.442  20.832 -0.0637  0.2048 -0.2549
70613W        W13629   5.302  34.499  21.061 -0.0276  0.1591  0.2795
70614W        W13630  33.398  17.022  27.599  0.0170  0.0790 -0.1689
70615W        W13631  22.268   4.682   9.483 -0.1216 -0.0562 -0.0739
70616W        W13632  23.838   6.160   2.342  0.0812 -0.1617  0.0084
70617W        W13633  16.239   2.551   5.390 -0.1304  0.2390  0.3992
70618W        W13634  22.359   9.616  28.831  0.0171 -0.1326  0.2311
70619W        W13635  33.545   4.511  25.287 -0.1561  0.0818  0.1668
70620W        W13636  29.164  20.994   0.006 -0.0774 -0.0631 -0.1687
70621W        W13637  21.801   8.910   3.938  0.0710  0.1673  0.3114
70622W        W13638  18.077   1.779   8.992  0.5357 -0.1611  0.2646
70623W        W13639  23.675   0.020  24.436 -0.2158  0.1606  0.0109
70624W        W13640   7.624  32.356   0.176 -0.3460  0.2771 -0.2115
70625W        W13641  17.916  13.928   3.551  0.0458  0.4756  0.1488
70626W        W13642  20.313   2.173   2.318 -0.0783  0.2768 -0.0639
70627W        W13643  19.985   7.700  27.977  0.0345 -0.3586 -0.3640
70628W        W13644   7.776  19.755   4.871 -0.1452 -0.0608 -0.2432
70629W        W13645  23.226  20.304  23.350 -0.0414 -0.2125 -0.2067
70630W        W13646  32.835  28.331  22.257  0.0638  0.1256  0.3799
70631W        W13647  15.755  33.204   5.467 -0.3788 -0.0057 -0.0055
70632W        W13648  25.925  11.401   7.911  0.0941 -0.0309 -0.0328
70633W        W13649  20.540  10.609  13.852  0.2136  0.0684 -0.2352
70634W        W13650  29.253   4.080  29.218 -0.0554 -0.0481 -0.2314
70635W        W13651  15.496   4.224   1.009  0.1313 -0.1971  0.3766
70636W        W13652  31.590   5.377  20.494  0.2141 -0.1829 -0.2690
70637W        W13653  20.649   3.853   3.703  0.0753  0.3268  0.0800
70638W        W13654   6.666   6.422  15.002 -0.0188 -0.2994  0.1509
70639W        W13655   4.331  29.693  20.502 -0.2575  0.1413 -0.0733
70640W        W13656   1.130   7.942  18.955 -0.1357  0.1294  0.0191
70641W        W13657  13.143  16.208  25.394  0.2389  0.0212  0.0615
70642W        W13658  27.055   1.147  23.779 -0.1078 -0.2192  0.0445
70643W        W13659  24.633  13.200  15.041 -0.1302  0.0740 -0.1150
70644W        W13660  32.478  14.631  14.867 -0.2157  0.0194 -0.0570
70645W        W13661   4.711  14.260  25.516 -0.0840 -0.4656 -0.2215
70646W        W13662  31.271  11.433  14.839  0.3292  0.1528 -0.1781
70647W        W13663  33.630  25.688  28.646 -0.4199 -0.1016  0.3136
70648W        W13664  15.669  15.146  13.255 -0.2376  0.1473  0.3048
70649W        W13665  19.545   9.207  15.641 -0.3470 -0.0877  0.1755
70650W        W13666  21.044  31.494   5.067  0.0050 -0.1180 -0.0073
70651W        W13667  30.207  16.872  28.403  0.0944 -0.0652  0.0153
70652W        W13668  27.014   9.592   1.954 -0.1576  0.0270 -0.0695
70653W        W13669  22.202   3.538  15.231 -0.0049 -0.1153  0.1268
70654W        W13670  14.199  32.047  20.323 -0.0982 -0.1249  0.0775
70655W        W13671  14.745  15.148  28.357  0.0353  0.4337  0.1637
70656W        W13672   4.629  11.146  21.962  0.1872 -0.0525 -0.0636
70657W        W13673  34.703   3.746  27.725 -0.0316 -0.0213  0.3444
70658W        W13674  24.210  32.881   6.770 -0.0446  0.1932 -0.0611
70659W        W13675  16.112  32.811  26.878 -0.2109 -0.0628  0.0586
70660W        W13676  32.985  16.342  22.711  0.1884  0.0959 -0.1436
70661W        W13677  12.104  32.176  20.320 -0.1107  0.1277  0.4911
70662W        W13678   1.669   0.035  23.934  0.2981 -0.1299 -0.3123
70663W        W13679   9.061   5.051   5.249  0.0711 -0.4108  0.2476
70664W        W13680  15.260  28.857   3.419 -0.0534 -0.1024 -0.1097
70665W        W13681  28.309  33.189   8.170 -0.1628 -0.1842  0.2756
70666W        W13682  16.861  33.028  20.218 -0.0288  0.1953 -0.2963
70667W        W13683  13.779   8.322  17.058  0.2523 -0.1901  0.0214
70668W        W13684   7.469  12.698   6.557  0.1626  0.0020  0.1054
70669W        W13685   9.057  25.715  22.305  0.2694  0.2222 -0.0852
70670W        W13686  23.105   5.970   4.349 -0.1476  0.0339  0.2350
70671W        W13687  10.042   4.340   7.293  0.0367 -0.2827  0.2053
70672W        W13688  11.234   3.678   9.076 -0.1560 -0.1820  0.2470
70673W        W13689  21.650   0.062   5.265 -0.1137 -0.3215 -0.0225
70674W        W13690  20.051  30.175  16.158  0.1532 -0.0241  0.1531
70675W        W13691   9.745  34.128  23.063 -0.3200  0.1993  0.0169
70676W        W13692  18.800  11.511   3.702 -0.3158  0.1068 -0.6251
70677W        W13693   6.444   9.259   8.801 -0.0472 -0.0185  0.0489
70678W        W13694   8.256  17.552  20.631 -0.1413  0.0603  0.1782
70679W        W13695  12.658   3.990  27.303  0.1566  0.0723  0.0513
70680W        W13696  24.568  13.977  18.749 -0.1702  0.1427  0.0163
70681W        W13697  33.265   7.373   7.861  0.0060  0.0245  0.0408
70682W        W13698  15.011  12.408   6.671  0.0074 -0.1108  0.3119
70683W        W13699  18.870  11.091   6.516 -0.0354  0.0040 -0.1076
70684W        W13700  14.435   9.333   8.342 -0.1274  0.2945 -0.1496
70685W        W13701   9.274  14.886  26.735 -0.0981  0.1561  0.1675
70686W        W13702  10.257   0.843  26.349 -0.1583 -0.3238  0.0456
70687W        W13703  26.008   7.403  10.902  0.0271  0.1657 -0.3015
70688W        W13704  17.292  13.613  22.142 -0.2665 -0.4348  0.0245
70689W        W13705  12.637  15.464  27.235  0.0250 -0.1724 -0.0443
70690W        W13706  20.202   5.536   4.011  0.0152  0.0675  0.0787
70691W        W13707   9.818   7.076  24.508  0.0447  0.0267 -0.1185
70692W        W13708  14.995  12.033   0.657 -0.0348  0.0736  0.2615
70693W        W13709  13.328  13.335   1.456  0.3594 -0.0928  0.0263
70694W        W13710   7.036  12.199  25.867 -0.2673 -0.1615 -0.0891
70695W        W13711   9.408  18.725  21.547 -0.0957 -0.1540 -0.2998
70696W        W13712  23.161   9.770  25.622 -0.3692 -0.1687 -0.1424
70697W        W13713  14.593  10.056   8.673 -0.1109  0.1384 -0.0719
70698W        W13714  22.865  27.964   7.118 -0.0087 -0.0172 -0.0223
70699W        W13715  24.469  12.017   4.627  0.1971 -0.0578 -0.0759
70700W        W13716  21.543  12.311   5.441  0.2475  0.0629 -0.0564
70701W        W13717  13.208  28.990   4.029  0.1966  0.1601 -0.0882
70702W        W13718  24.852   6.027   8.232 -0.1968 -0.0594  0.1986
70703W        W13719   7.515  12.267  27.657  0.0363  0.1281 -0.1034
70704W        W13720  24.124  11.906   4.155  0.1017 -0.0970 -0.1431
70705W        W13721  12.639  25.259   7.175  0.1545 -0.1926  0.1775
70706W        W13722  23.720   5.902  18.601 -0.0005  0.0414 -0.0430
70707W        W13723   8.664  34.352  15.984 -0.0478  0.1296  0.4560
70708W        W13724  17.094  17.679   2.573 -0.2944 -0.2139 -0.2557
70709W        W13725   3.280   2.221   3.383 -0.2444  0.1868 -0.0180
70710W        W13726  11.227   1.531  17.708  0.3848  0.2155 -0.0354
70711W        W13727  24.868  17.935   2.987  0.2998  0.1454  0.0282
70712W        W13728  15.686  14.975  15.098 -0.1981 -0.0517  0.1880
70713W        W13729  25.814  30.606   6.408  0.1069 -0.1946  0.1259
70714W        W13730  14.434  11.125   4.425 -0.1208 -0.0157  0.0723
70715W        W13731  13.884  24.256  21.403 -0.0761 -0.3856 -0.1731
70716W        W13732  17.675  18.293   4.228 -0.0377  0.0602 -0.2237
70717W        W13733   5.423  16.412  26.958 -0.1343 -0.2892  0.0211
70718W        W13734   3.984  21.791  21.774  0.0776  0.3636  0.2964
70719W        W13735   2.546   9.649  24.931 -0.1777  0.5035  0.3068
70720W        W13736  31.212   2.480   9.238 -0.0625 -0.0937 -0.0595
70721W        W13737  10.377  33.322   8.493 -0.0372  0.2388  0.0590
70722W        W13738  19.956  15.273  24.755  0.0566 -0.1522 -0.1939
70723W        W13739   3.354  11.260   8.681 -0.1622 -0.2871  0.0211
70724W        W13740   8.151  34.132  16.027 -0.1537 -0.1600 -0.3551
70725W        W13741  19.428  20.142   3.639 -0.1496 -0.1168  0.0869
70726W        W13742  19.644  15.009   1.964  0.2734  0.0745 -0.0980
70727W        W13743   2.527  16.607  18.114  0.0288 -0.0009  0.0660
70728W        W13744  20.986  21.349  21.842  0.1129  0.1304  0.1625
70729W        W13745  21.868   6.090   1.260  0.1053  0.0396 -0.5542
70730W        W13746   7.480  26.323  16.873  0.1251 -0.0289  0.2176
70731W        W13747  33.303   0.310  23.611 -0.1612  0.0222  0.0981
70732W        W13748   0.634  33.024  10.894 -0.2020 -0.1256  0.2494
70733W        W13749  13.090   5.185  15.978  0.4220  0.2679  0.2974
70734W        W13750  12.422  31.812  25.454 -0.1675  0.0816 -0.0426
70735W        W13751  25.736   6.766  26.582  0.3167 -0.0105 -0.0686
70736W        W13752  12.818   4.779  15.056 -0.2504  0.0322 -0.1316
70737W        W13753  12.774   6.758   0.130 -0.0931  0.1059  0.1962
70738W        W13754  12.841  17.946  11.724 -0.1406 -0.0379 -0.0155
70739W        W13755   9.116   7.118  26.247  0.2422 -0.0080 -0.2379
70740W        W13756  14.827  11.907  13.948  0.0640  0.0959 -0.0567
70741W        W13757   8.506   1.805  18.660  0.5484 -0.3496  0.3428
70742W        W13758   8.844   7.706  14.007  0.2949  0.1293 -0.3106
70743W        W13759  24.890   1.926  24.629  0.0023  0.0211 -0.1245
70744W        W13760  22.660  12.759  15.472  0.0205 -0.2123 -0.0167
70745W        W13761  20.822   4.522  19.955  0.1688 -0.1344 -0.0805
70746W        W13762  14.715   6.330  14.274  0.0078 -0.1004 -0.3358
70747W        W13763   9.890   2.054  14.629 -0.3041 -0.2718 -0.0384
70748W        W13764  13.923  13.580  27.579  0.2771  0.0805 -0.0304
70749W        W13765  19.160   2.546  22.429 -0.2438 -0.0229 -0.0557
70750W        W13766  22.691   4.332  26.870  0.1541  0.3136 -0.0996
70751W        W13767  15.601   6.622  24.564  0.0041 -0.0196 -0.1120
70752W        W13768   9.451  29.595  23.643 -0.2253  0.0240 -0.0547
70753W        W13769  34.498  24.717  27.394  0.3062 -0.1222  0.1175
70754W        W13770  22.418  10.103  20.227  0.2364  0.1929  0.1520
70755W        W13771  32.250   6.493  19.007 -0.1474 -0.1738  0.3861
70756W        W13772   9.610   9.899   4.564  0.0535  0.0893  0.1572
70757W        W13773  32.902  29.767  18.275  0.0489 -0.0726 -0.0165
70758W        W13774   7.218  20.792  18.207  0.2755  0.3109 -0.0952
70759W        W13775   5.325   5.524  14.059 -0.3118  0.0670  0.1778
70760W        W13776   8.893   3.319  17.448 -0.0749  0.1009 -0.0553
70761W        W13777   3.753  24.213  24.174 -0.0440  0.0077  0.3531
70762W        W13778  23.452  24.150  24.258 -0.3150  0.1313 -0.0557
70763W        W13779  12.779   4.782  17.061  0.0308 -0.2095 -0.0625
70764W        W13780  14.546  10.208  22.777  0.2587  0.2721 -0.2684
70765W        W13781  15.109   1.459  19.448  0.0554 -0.2036 -0.2495
70766W        W13782  25.279   6.102  29.210 -0.1021 -0.0056 -0.2321
70767W        W13783  12.721  11.689  15.088 -0.0783 -0.0407  0.0831
70768W        W13784  22.896   8.582  27.904 -0.1509  0.0442  0.0433
70769W        W13785   4.233  18.419  18.670  0.1548 -0.1876  0.2287
70770W        W13786  18.630  16.604  24.083  0.0926  0.0019 -0.0679
70771W        W13787  30.066  31.266  21.690  0.0138 -0.2586 -0.3998
70772W        W13788  27.025   9.506  21.083 -0.0798  0.0801  0.0372
70773W        W13789  13.186  14.312  12.641  0.1314 -0.2278  0.1965
70774W        W13790   9.117  23.025  12.667  0.0789 -0.0867  0.2680
70775W        W13791  12.070  20.460  22.237  0.0041 -0.0266  0.1802
70776W        W13792  17.299  11.795  16.512 -0.2107 -0.1115  0.0273
70777W        W13793   3.101  28.195  24.009 -0.3167  0.0041  0.2525
70778W        W13794  32.814  16.665  18.448 -0.1876 -0.1308  0.1553
70779W        W13795   7.803  24.567   3.707 -0.3331 -0.4571  0.0943
70780W        W13796  27.409  13.874  14.529  0.2597 -0.0617 -0.0259
70781W        W13797   4.807   4.848  18.655 -0.1689 -0.1056 -0.0176
70782W        W13798  22.294  24.174  22.029  0.0600  0.2633 -0.0330
70783W        W13799   9.445  10.017  18.375  0.2510 -0.4149  0.3242
70784W        W13800  10.297  32.547  21.850 -0.0441 -0.1579  0.0027
70785W        W13801  13.714  27.035  16.672 -0.0904  0.1047  0.0614
70786W        W13802   4.684   0.670  23.679  0.3011 -0.3330 -0.1462
70787W        W13803  19.847   6.663  15.937  0.2416  0.1258 -0.0442
70788W        W13804  21.937  28.438  15.682 -0.3343 -0.0258 -0.0675
70789W        W13805   5.065  34.439  20.041 -0.0276  0.1507  0.0233
70790W        W13806  24.814  24.968   8.255  0.0050 -0.1643  0.0609
70791W        W13807  16.319   1.509  19.989  0.1452  0.0718 -0.0121
70792W        W13808  17.061  29.513  26.873 -0.0519  0.1408  0.1918
70793W        W13809  31.112   9.704   1.515  0.0418  0.0692  0.1788
70794W        W13810  26.634   2.498  17.563 -0.1101  0.1752 -0.1669
70795W        W13811  21.545   6.941  26.738 -0.2702 -0.1619  0.0020
70796W        W13812  10.699   3.715  21.051 -0.0883 -0.0565 -0.1320
70797W        W13813  25.193   7.247  28.884  0.1179 -0.5395  0.2646
70798W        W13814  15.051   7.025  12.825  0.1908  0.0132 -0.0439
70799W        W13815  16.941  33.319  14.792  0.3256  0.3064  0.0780
70800W        W13816  10.513  26.785  16.395 -0.1170 -0.3989 -0.0145
70801W        W13817  26.063   8.793   0.656 -0.2094  0.3095 -0.1960
70802W        W13818   4.467  18.256  15.153  0.1253  0.1800 -0.1180
70803W        W13819  19.130  26.385  23.244  0.2178  0.0765 -0.1432
70804W        W13820  21.510  11.944  14.509  0.0738  0.0561  0.1118
70805W        W13821   6.227   7.057  19.078  0.2699 -0.0797 -0.1742
70806W        W13822  13.776   5.507  22.601  0.1956  0.1222 -0.0263
70807W        W13823   6.469   0.916  15.710 -0.2572  0.0859 -0.1296
70808W        W13824   7.950  15.966  12.623  0.0955  0.1146  0.0943
70809W        W13825   3.947  10.241  22.649  0.1884  0.1100  0.2372
70810W        W13826  28.131  12.384  18.855  0.0750  0.1956 -0.1037
70811W        W13827  31.778  15.083   0.372  0.4171 -0.0768 -0.0688
70812W        W13828  27.444  32.027  15.809 -0.1140 -0.3180 -0.1230
70813W        W13829   4.641   6.664  26.523  0.1866 -0.1194 -0.1953
70814W        W13830  18.653  16.398  11.200  0.2626 -0.1004  0.1155
70815W        W13831  30.860   7.925  16.914  0.2965 -0.0604 -0.0624
70816W        W13832  29.699   6.885  18.861  0.2303 -0.0354 -0.0754
70817W        W13833  22.043   6.705  26.674  0.0183  0.1288  0.0251
70818W        W13834  19.133   5.769  19.950 -0.4478 -0.0092  0.3868
70819W        W13835  27.283  12.307  14.801 -0.3548 -0.0414 -0.1702
70820W        W13836  22.533   6.487  22.212  0.0312 -0.1536  0.0793
70821W        W13837  16.447  11.013  16.200 -0.1104  0.2580 -0.1659
70822W        W13838  14.660  21.665  12.089 -0.0380 -0.0832  0.1125
70823W        W13839  29.600   3.432  19.366  0.1576  0.0149 -0.2295
70824W        W13840  12.987   7.594   6.754  0.0660  0.1752 -0.3294
70825W        W13841  11.056   0.475  21.248 -0.0559 -0.1713 -0.2159
70826W        W13842  25.115   0.570  15.437 -0.1591 -0.2333 -0.0259
70827W        W13843   7.661  10.848  18.723 -0.0162  0.0938  0.0375
70828W        W13844  26.394  26.887  19.701 -0.0002  0.1089 -0.0551
70829W        W13845   4.896  10.781  24.217 -0.1869  0.2962 -0.1257
70830W        W13846  16.092   1.455  28.081 -0.2020 -0.3298  0.0332
70831W        W13847  17.339  15.985  20.161 -0.0594  0.0465 -0.1016
70832W        W13848  29.179  31.643  28.940  0.1474 -0.1431  0.0183
70833W        W13849  21.426   2.477  23.632  0.0770  0.0441 -0.1754
70834W        W13850  17.984  10.004  26.026 -0.0880  0.0396 -0.0465
70835W        W13851   5.957   9.676  17.065 -0.0168  0.0787 -0.0203
70836W        W13852  15.536   8.991  27.698  0.0108 -0.4024 -0.0190
70837W        W13853  17.839   8.691  22.151  0.1121 -0.3314 -0.1113
70838W        W13854  29.694  12.254   2.562 -0.1409 -0.2902  0.1941
70839W        W13855   6.180  33.007  17.691 -0.2139  0.0855  0.2088
70840W        W13856  14.195   2.974  21.020 -0.0710  0.1212  0.2551
70841W        W13857  20.916   7.356  13.960 -0.0209 -0.1720 -0.3393
70842W        W13858  18.069   4.417  25.700  0.1492  0.1530 -0.0493
70843W        W13859   9.484  14.361  14.956 -0.0704  0.1587 -0.0918
70844W        W13860  28.736  20.324  19.261 -0.0628 -0.1667  0.4217
70845W        W13861  16.945   9.446  17.781  0.0716 -0.1036  0.2864
70846W        W13862  34.754  30.269  22.329  0.0235  0.1120  0.2112
70847W        W13863   6.738   4.265  13.875 -0.1860 -0.3322 -0.3671
70848W        W13864  26.655  34.649  25.723 -0.2465 -0.1778  0.0377
70849W        W13865  27.287  11.694  15.130  0.2564  0.2747 -0.2290
70850W        W13866  12.206   9.283  19.151  0.0202  0.1486  0.0323
70851W        W13867  19.106  11.347  20.007  0.0815  0.0127 -0.0283
70852W        W13868  28.030  17.681  21.055  0.0353  0.3569 -0.3525
70853W        W13869   1.527   3.746  18.663 -0.4815  0.1437 -0.1832
70854W        W13870  17.949  27.503  17.661 -0.1405  0.0492  0.0439
70855W        W13871  13.324  30.802  19.228 -0.1411  0.1505 -0.2854
70856W        W13872  26.028   0.653   8.213  0.1539 -0.1341  0.0613
70857W        W13873  20.466  30.676  24.362 -0.2676  0.2315  0.1186
70858W        W13874   5.248  23.360  25.776  0.2435  0.1257 -0.3006
70859W        W13875  18.138  16.244  21.233  0.0272  0.0206  0.3591
70860W        W13876   3.329  13.523   0.170  0.0375  0.0387  0.1303
70861W        W13877  31.781  31.830   5.615 -0.0674  0.2179  0.0061
70862W        W13878  20.916  25.329  26.888 -0.1409  0.1092  0.1571
70863W        W13879  18.677   9.470  22.415  0.0152 -0.1233  0.0254
70864W        W13880   8.428  18.401  15.123  0.1544  0.0903  0.0781
70865W        W13881  20.018  13.297  14.375  0.2318 -0.0504  0.2797
70866W        W13882   9.675   6.596  16.699  0.0489 -0.2183 -0.1054
70867W        W13883   5.589   5.077   6.170 -0.1029 -0.0090 -0.2140
70868W        W13884   4.688   6.868   7.286 -0.3153 -0.1475 -0.0009
70869W        W13885   4.259   1.348   2.425 -0.2357  0.0049 -0.0159
70870W        W13886  22.759   1.264  15.523 -0.2678 -0.1233  0.1365
70871W        W13887  20.690   8.327  15.913 -0.1817  0.2456  0.3888
70872W        W13888   4.077  15.334  14.488  0.1092 -0.0472  0.1131
70873W        W13889   1.426  13.029  26.645  0.0350 -0.0999  0.2001
70874W        W13890   0.915  26.949  22.582  0.1529 -0.2149  0.0080
70875W        W13891   5.200  16.368  18.882  0.2979 -0.1442 -0.1410
70876W        W13892   9.932   6.937  20.423 -0.1671  0.4091 -0.1908
70877W        W13893   8.293   3.436  21.507  0.3950  0.2025  0.1534
70878W        W13894  13.255   4.793  27.403  0.1425  0.1570 -0.1385
70879W        W13895   5.301   8.980  17.540  0.3456 -0.3603 -0.1819
70880W        W13896   7.158   6.373  14.666  0.0195 -0.2351  0.0476
70881W        W13897  11.560   2.894  17.866 -0.0411  0.2953  0.1710
70882W        W13898  26.144  11.357  19.247  0.2191  0.0696 -0.0646
70883W        W13899  25.288  26.417   1.904  0.2261 -0.3129 -0.1098
70884W        W13900  13.704  22.563  14.957 -0.0542 -0.1436 -0.1049
70885W        W13901  21.290  15.512  29.262  0.1959 -0.0844 -0.0602
70886W        W13902  17.490   5.124  17.812 -0.1736 -0.1028 -0.0245
70887W        W13903   9.774  20.396  24.477  0.1326 -0.1064  0.2051
70888W        W13904  26.936  10.278  24.154 -0.0053 -0.0054  0.0623
70889W        W13905  19.617   1.949  20.737 -0.0043 -0.0892  0.1800
70890W        W13906   9.872   2.993  25.569 -0.0450 -0.1682  0.1602
70891W        W13907   8.766  13.345  18.410  0.1511  0.1218  0.0754
70892W        W13908  13.491  31.521  21.362  0.0346  0.2350 -0.2096
70893W        W13909  22.665  16.354  22.207 -0.1407  0.0246 -0.2085
70894W        W13910  20.115  29.894  25.410  0.0096  0.1712  0.2839
70895W        W13911  19.384   7.154  22.265  0.0190  0.1917 -0.0032
70896W        W13912  18.229   0.149   1.290  0.0134 -0.2800 -0.1120
70897W        W13913  18.253  10.866  20.299 -0.1222 -0.1576 -0.1006
70898W        W13914  24.377   8.810  24.941  0.2439 -0.1562 -0.0371
70899W        W13915  15.341  33.322  26.628  0.2269  0.0819  0.2287
70900W        W13916  31.797  22.394  28.198 -0.0331  0.1296 -0.1523
70901W        W13917   1.612  12.776  23.983 -0.2458  0.2439 -0.0889
70902W        W13918  20.099  14.212  19.989  0.0918 -0.0531 -0.0955
70903W        W13919  13.526   1.201  23.379 -0.0572  0.1604  0.5377
70904W        W13920  31.198  11.760  17.658  0.1277 -0.1792  0.0938
70905W        W13921  14.390  27.857  22.601  0.1485  0.2754  0.2126
70906W        W13922  21.896  24.304  26.210 -0.0989  0.2308 -0.2702
70907W        W13923   7.612   3.242  14.635 -0.1841 -0.4610 -0.0117
70908W        W13924  23.701  11.067  13.782 -0.0867  0.3131 -0.0279
70909W        W13925  21.361  21.983  16.360 -0.2692 -0.0219 -0.2727
70910W        W13926  26.822   5.227  27.175  0.0250 -0.2184  0.1841
70911W        W13927  23.937   3.112  17.335  0.0775  0.2285 -0.3707
70912W        W13928  15.146   0.686  27.326 -0.1741 -0.2202  0.0598
70913W        W13929  10.056  17.158  22.637  0.1712 -0.3712  0.0906
70914W        W13930  25.836  31.028  22.026 -0.0181 -0.1601  0.0869
70915W        W13931  16.660  33.923  20.034 -0.0297 -0.3688  0.2098
70916W        W13932  24.867   7.681  23.274  0.1650  0.0368  0.0099
70917W        W13933  18.740   7.736  19.055  0.3183  0.0875 -0.1498
70918W        W13934  11.974   2.924  29.206  0.0015  0.2541 -0.0803
70919W        W13935  14.263  25.794  18.854  0.5325  0.1005  0.0270
70920W        W13936  23.035  10.870   1.502 -0.1751  0.1505  0.2542
70921W        W13937  14.207  21.263  12.461 -0.0806 -0.0648  0.1989
70922W        W13938  16.787  11.022   0.196  0.0431 -0.1990 -0.0842
70923W        W13939   4.536  14.277  19.814 -0.1943  0.0695 -0.0356
70924W        W13940   5.031  20.549  20.949 -0.1652  0.2416 -0.1679
70925W        W13941  22.925  17.703  16.342 -0.2526 -0.1479 -0.0704
70926W        W13942   7.018  12.402  26.747  0.0407 -0.0642  0.1840
70927W        W13943  21.690  13.114  14.861 -0.1913 -0.0574  0.0595
70928W        W13944   0.118  11.619  17.900  0.2002  0.0825 -0.1897
70929W        W13945  27.231  15.447  17.153 -0.1009 -0.0396  0.1184
70930W        W13946  21.235   6.719  17.844  0.2082 -0.1116 -0.5202
70931W        W13947  18.325  33.535  25.511  0.2550 -0.0812 -0.4301
70932W        W13948  24.102  27.817   5.790  0.3014  0.1751  0.2133
70933W        W13949  15.389  14.053  21.248  0.0536 -0.1500  0.1566
70934W        W13950  13.468  21.229  13.460  0.0301 -0.0771  0.2248
70935W        W13951  13.446  25.041  25.757  0.0848 -0.1672  0.3295
70936W        W13952  16.824  30.629  27.611 -0.0320  0.0518 -0.1359
70937W        W13953  31.292  12.819  15.455  0.0344  0.1879  0.1628
70938W        W13954   8.907  33.829   0.234  0.1006 -0.1796  0.3401
70939W        W13955  26.053  16.140  19.173 -0.0246  0.1127  0.1137
70940W        W13956  13.065  28.244   1.265  0.2654 -0.1569 -0.0260
70941W        W13957  29.088   3.848  15.332  0.1478  0.0837 -0.0180
70942W        W13958   9.179  34.127  28.614 -0.0520  0.0195  0.0805
70943W        W13959   7.605   8.543  18.064  0.1582  0.2835 -0.0954
70944W        W13960  26.269  27.602  24.283 -0.0300 -0.0421 -0.1228
70945W        W13961   8.391  24.461  18.516  0.3625 -0.1231  0.1486
70946W        W13962   3.674   9.580   4.769 -0.2025 -0.0399  0.1058
70947W        W13963  30.928  16.670  19.445 -0.0204  0.0157 -0.0977
70948W        W13964  19.930  19.485  29.288 -0.0457  0.1063  0.2889
70949W        W13965  21.112   3.201   2.663 -0.4620  0.1147 -0.3141
70950W        W13966  11.387   2.497  24.742  0.2393  0.1640 -0.2557
70951W        W13967   8.571   9.802  20.042 -0.2182 -0.1161 -0.1854
70952W        W13968  10.730  14.910  16.046  0.0300 -0.2356 -0.0666
70953W        W13969  22.086  29.607  21.913  0.5926 -0.0585  0.2911
70954W        W13970  21.774   9.977  25.893  0.0191  0.4692 -0.2985
70955W        W13971  20.795  10.686   6.919 -0.1089  0.0326  0.2787
70956W        W13972  17.865   3.842  20.855  0.2351 -0.0447 -0.2316
70957W        W13973   8.743   7.237  27.358 -0.1306 -0.0262 -0.2662
70958W        W13974  12.280   9.073  16.936  0.0197  0.1192  0.0374
70959W        W13975  23.979  33.812  27.652 -0.1221 -0.1244  0.0444
70960W        W13976  18.115  28.599  24.790 -0.2664  0.1872 -0.0613
70961W        W13977  21.721   2.395  26.882  0.2009 -0.2148  0.0669
70962W        W13978   4.884  31.323  23.374 -0.4162  0.0041 -0.1555
70963W        W13979  10.632   7.809  24.525  0.1092  0.0263  0.1692
70964W        W13980   9.727   6.414  15.095 -0.0157 -0.0120 -0.4131
70965W        W13981   4.180  12.653  23.074 -0.1054 -0.1649 -0.1225
70966W        W13982  22.919   3.538  23.003  0.2338 -0.0434 -0.4636
70967W        W13983   0.933  14.863  20.136  0.1207  0.0475  0.1984
70968W        W13984  14.551   4.263  25.041 -0.0048 -0.3383 -0.4276
70969W        W13985   6.443  34.638  16.032 -0.1777 -0.0420 -0.2045
70970W        W13986  11.087  12.382  24.600 -0.0873 -0.0892 -0.0812
70971W        W13987  27.170  16.139  16.607  0.0065 -0.0773 -0.1192
70972W        W13988  26.729  20.572  15.944 -0.1381 -0.1735 -0.0173
70973W        W13989  19.808   3.093  28.308 -0.1498 -0.2720 -0.0066
70974W        W13990  18.281   6.232  13.597 -0.4602 -0.0342  0.1042
70975W        W13991  12.554   7.060  20.937  0.0250 -0.0037  0.3335
70976W        W13992  28.065   2.493  23.668 -0.1833 -0.1523 -0.0423
70977W        W13993  11.362  32.220  28.301  0.1891  0.1077  0.1851
70978W        W13994   6.071   5.123  15.666  0.1882 -0.0998 -0.1552
70979W        W13995  12.755  21.326  19.972 -0.0741  0.0323  0.2172
70980W        W13996  15.729   3.350  17.234 -0.0666  0.0230 -0.0129
70981W        W13997  19.802   4.088   0.431  0.0637  0.3480  0.1432
70982W        W13998  23.942  24.339  20.941 -0.0200  0.1186 -0.1306
70983W        W13999   6.460   6.993  14.320  0.0779  0.0360 -0.0152
70984W        W14000  21.494  20.662  20.908  0.3174  0.2043  0.0311
70985W        W14001  15.029  24.055  15.025  0.0877 -0.4575  0.0018
70986W        W14002  10.512  10.547  20.772 -0.1456 -0.3296  0.2204
70987W        W14003   8.062  17.978   8.187 -0.1332 -0.0020  0.0113
70988W        W14004  22.690   4.645   2.140 -0.1271  0.2655 -0.1646
70989W        W14005  14.650   7.411  28.037  0.3587 -0.0378 -0.2763
70990W        W14006  23.976   0.890   3.303  0.0309 -0.0653 -0.0904
70991W        W14007  32.260  18.850  20.182 -0.1403 -0.0925  0.0575
70992W        W14008   3.165   1.815  14.573 -0.0521  0.0058 -0.0975
70993W        W14009  19.574  31.170  23.450 -0.0100 -0.0529  0.0106
70994W        W14010  17.604   1.279  21.661  0.0076  0.5165  0.1038
70995W        W14011   8.994  24.631  26.369  0.0696 -0.3257 -0.2215
70996W        W14012   4.561  20.111  23.669  0.0336  0.0110  0.1041
70997W        W14013  18.599   4.695  19.295  0.1125 -0.2878 -0.0468
70998W        W14014  11.669  12.755  14.614 -0.1327 -0.0542  0.0088
70999W        W14015  22.217  32.409  19.475  0.1420  0.3160  0.0761
71000W        W14016  22.435   8.732  23.750  0.1186  0.2012  0.2975
71001W        W14017   8.895   0.839  16.568 -0.3652  0.2464  0.3106
71002W        W14018  17.805  16.853  11.904 -0.1825 -0.3164  0.0483
71003W        W14019  16.760   6.511  19.507  0.2106 -0.3913 -0.1898
71004W        W14020  23.475  15.681  17.933 -0.2775  0.0470  0.0959
71005W        W14021  13.472   7.263  26.583 -0.1120  0.0210  0.1405
71006W        W14022  27.678  34.770  21.905  0.0786  0.3381  0.0856
71007W        W14023  10.049  14.296  14.158  0.0044  0.0253  0.0607
71008W        W14024  19.908  31.698  21.713  0.1820 -0.2182 -0.0209
71009W        W14025  20.116  17.505  13.874  0.3206 -0.0473  0.0063
71010W        W14026  16.698   5.559  15.335  0.0784 -0.1884 -0.3350
71011W        W14027  23.721  34.739  16.303 -0.1662  0.2317 -0.3067
71012W        W14028  13.569  22.250  15.635 -0.3171 -0.0389 -0.1776
71013W        W14029  10.252   3.181  19.951 -0.0553 -0.1676 -0.0761
71014W        W14030   1.041  27.467  27.890 -0.1692  0.2852 -0.1328
71015W        W14031  10.951  33.603  16.659  0.2944 -0.1989  0.2311
71016W        W14032  21.584  23.165  16.374  0.0466  0.0507 -0.1507
71017W        W14033   4.657  32.765   2.457 -0.4199 -0.0418 -0.0859
71018W        W14034   6.195   4.893  17.113 -0.1757  0.2264  0.2521
71019W        W14035  15.812   8.476  27.396  0.0071  0.0242 -0.0973
71020W        W14036   6.156  29.855  14.833 -0.0948  0.0262  0.0361
71021W        W14037  10.550  30.767  19.727 -0.0419  0.2296  0.1611
71022W        W14038  18.110  17.312  12.638 -0.3630  0.2255  0.3165
71023W        W14039  28.741   2.277   1.114 -0.1340 -0.1276  0.0442
71024W        W14040   3.983   9.439  23.176  0.1245  0.2614 -0.2267
71025W        W14041  21.054  20.113  17.209  0.2774  0.1568  0.0235
71026W        W14042   5.309  25.372  17.259 -0.1850 -0.2955 -0.3950
71027W        W14043   6.196  22.338  19.888 -0.2873 -0.0328 -0.0270
71028W        W14044  27.928  33.627  19.164 -0.1972 -0.1463  0.0187
71029W        W14045  17.969   4.924  17.921  0.0968 -0.1487  0.0860
71030W        W14046   6.009   5.912   6.996 -0.0008 -0.0542  0.0384
71031W        W14047  17.630   7.426  21.499 -0.1496  0.1235  0.0762
71032W        W14048  11.003  13.454  16.109 -0.3219  0.0448 -0.0562
71033W        W14049  22.343   0.667  17.146 -0.0814 -0.1234 -0.0015
71034W        W14050  26.300  33.228  23.914 -0.4757  0.1087  0.1089
71035W        W14051  23.961  10.670  17.244 -0.0701 -0.0607  0.2046
71036W        W14052  21.043   5.650  18.804  0.2476  0.1826 -0.0012
71037W        W14053  11.421  20.069  15.455  0.1101  0.0294  0.1135
71038W        W14054  19.147  13.481  26.681  0.0645  0.1051 -0.1354
71039W        W14055  22.646  33.631   5.164 -0.0042 -0.1661 -0.1879
71040W        W14056  21.804  23.051  17.585  0.1196 -0.0411 -0.0089
71041W        W14057  25.595  27.970  25.021  0.1325  0.0295 -0.2248
71042W        W14058  16.154  18.675  13.692 -0.0512  0.0205  0.1744
71043W        W14059  34.664  30.458  15.367  0.2383 -0.1464  0.0122
71044W        W14060   6.915  30.617  23.997  0.1588  0.0725 -0.0178
71045W        W14061  10.008  22.239  15.698 -0.3596  0.2092  0.2640
71046W        W14062  24.458  20.612  23.921  0.0940 -0.0424 -0.2156
71047W        W14063  10.465   9.270  20.147 -0.0163  0.3133 -0.0334
71048W        W14064  22.932   0.951  22.490 -0.0259  0.0954 -0.2307
71049W        W14065   8.580  14.033  14.291 -0.0585  0.1893 -0.1662
71050W        W14066   8.545  29.891  24.512 -0.0669  0.0734  0.3616
71051W        W14067  18.005  12.262  16.961 -0.3086 -0.2342  0.0062
71052W        W14068   0.167  25.216  21.391 -0.0723 -0.1047  0.0764
71053W        W14069  19.456  34.273  22.887 -0.2991 -0.0512  0.0738
71054W        W14070  25.985   5.636  23.697  0.0606 -0.1584  0.0119
71055W        W14071  17.138  24.068  12.864  0.1026  0.1829  0.1825
71056W        W14072  16.095  14.917  15.359  0.1158  0.0304 -0.1663
71057W        W14073  28.042  18.329  20.008 -0.0447 -0.0411  0.1274
71058W        W14074   8.407   5.714  24.041  0.1959 -0.3150  0.0877
71059W        W14075  11.525  15.129  19.120  0.1143 -0.2096 -0.0378
71060W        W14076   9.592  20.558  17.773 -0.1220 -0.3669 -0.0313
71061W        W14077  10.143  12.619  17.686 -0.0977 -0.3973 -0.0245
71062W        W14078  27.087  12.530  17.782 -0.1543  0.0760 -0.2206
71063W        W14079  25.186   0.064  18.730 -0.1820  0.0494 -0.0509
71064W        W14080  33.106   7.538  14.940 -0.1625 -0.2168  0.1993
71065W        W14081  14.472   4.136  18.962 -0.1736 -0.0778 -0.0278
71066W        W14082  17.915  19.556  16.080 -0.3412  0.4717  0.1875
71067W        W14083  24.967  11.797  24.771 -0.0796 -0.1045  0.0666
71068W        W14084   8.078  17.485  23.405 -0.1210  0.2070  0.1152
71069W        W14085  32.855  23.034  21.035  0.2302  0.4271  0.0761
71070W        W14086  23.231   4.916  17.347  0.0728 -0.3462 -0.2167
71071W        W14087  15.988  28.983  28.508 -0.0036 -0.1509 -0.1641
71072W        W14088  20.887  17.141  14.740 -0.3273 -0.3824  0.0427
71073W        W14089   8.270   8.026  28.086 -0.0597  0.1032 -0.1347
71074W        W14090  25.260  20.949  20.597 -0.1000  0.0105  0.3402
71075W        W14091   0.189  30.092  16.718 -0.0661 -0.2001  0.3118
71076W        W14092  18.238  10.927  12.978 -0.0463  0.2962  0.3900
71077W        W14093  25.097   2.433  19.333  0.0399 -0.0961  0.0390
71078W        W14094   2.359  25.912  21.889 -0.0746 -0.0308  0.1122
71079W        W14095  28.455   6.288  22.530  0.0739 -0.0930 -0.3287
71080W        W14096  12.519  19.049  13.437 -0.3407  0.1357  0.1708
71081W        W14097   6.252  23.355  14.827  0.2752  0.1488 -0.3120
71082W        W14098   8.109   4.616  18.362 -0.0196 -0.1331 -0.2311
71083W        W14099   7.967  27.055  27.092  0.0484  0.1924 -0.5207
71084W        W14100  17.629  30.746  26.079 -0.1559 -0.1270 -0.1591
71085W        W14101  22.720  25.698  27.001 -0.1823 -0.2716 -0.0875
71086W        W14102  19.255  20.145  16.027  0.0035  0.2831 -0.0497
71087W        W14103  13.391   9.903  16.196  0.3757  0.0681  0.1717
71088W        W14104  16.732   9.209  19.800  0.0809 -0.1381  0.2143
71089W        W14105   9.547  33.280  24.952  0.0047 -0.2437 -0.1970
71090W        W14106  31.182  11.606   3.282 -0.0970  0.3829  0.0079
71091W        W14107   5.193  26.487  20.261 -0.1243  0.0313 -0.2855
71092W        W14108  26.827  18.002  20.311 -0.0271 -0.2606  0.3255
71093W        W14109  11.911  11.095  14.915  0.0429 -0.1460 -0.0597
71094W        W14110  11.012   3.931  16.578 -0.2016  0.3266  0.1256
71095W        W14111   2.330  16.972  19.729  0.0274 -0.1245 -0.2032
71096W        W14112   1.701  14.267  14.330  0.1476 -0.2252 -0.1054
71097W        W14113  16.125  30.382  22.175 -0.2202  0.1225  0.0482
71098W        W14114  29.232  33.066  10.181  0.2592  0.0617 -0.2040
71099W        W14115  20.451  20.925  16.009 -0.1067 -0.2487  0.2509
71100W        W14116  31.161  11.132  16.411 -0.2087 -0.0820 -0.2001
71101W        W14117  23.444  32.351  22.399 -0.1033 -0.2074 -0.0577
71102W        W14118  10.523   3.967  14.449 -0.0154 -0.2161  0.1056
71103W        W14119   7.661  13.438  20.517  0.0155  0.0337  0.5269
71104W        W14120   8.124   4.441  24.295  0.0354  0.1512  0.0496
71105W        W14121   2.131  13.150  20.642 -0.2248  0.0163 -0.1021
71106W        W14122  25.442  30.597  23.261  0.1372 -0.3159  0.1534
71107W        W14123  33.942   0.549  15.360 -0.1319  0.0935 -0.4012
71108W        W14124   6.122  32.598  24.072 -0.2852  0.1781  0.2188
71109W        W14125   0.893  14.841  20.798  0.1117 -0.3740  0.1947
71110W        W14126  11.130  27.336  15.173 -0.3179 -0.3123 -0.0569
71111W        W14127   5.464  14.106  25.118 -0.1879 -0.0696  0.1318
71112W        W14128   6.045  13.757  17.644 -0.1738  0.0370  0.1484
71113W        W14129   9.545  18.162  14.420 -0.0675  0.1588  0.0832
71114W        W14130  28.033  29.602  24.230  0.1584  0.3640  0.1657
71115W        W14131  20.848   9.726  22.662  0.1093 -0.1984 -0.1548
71116W        W14132  24.251   7.512  15.621  0.1875 -0.1479  0.1397
71117W        W14133  26.966   1.595  21.937 -0.0012  0.0796 -0.0312
71118W        W14134  17.353  14.333   7.130  0.1672 -0.1936  0.0299
71119W        W14135  15.116   7.310  16.943 -0.0672 -0.2243 -0.0094
71120W        W14136  14.620  16.294   7.113  0.0485 -0.0293 -0.2461
71121W        W14137   3.809   2.713  16.130  0.2772 -0.1601  0.1920
71122W        W14138  15.778   7.521  24.607 -0.1639 -0.0368 -0.2768
71123W        W14139  15.844   6.879   3.317  0.0780  0.1598  0.2590
71124W        W14140  22.766  13.201  17.094  0.3289 -0.2036  0.1980
71125W        W14141  19.595  16.846  12.537  0.0037  0.5152 -0.0175
71126W        W14142  18.630  16.932  14.491 -0.1803  0.4461  0.4694
71127W        W14143  24.333   2.836   8.176  0.0780 -0.1583 -0.2172
71128W        W14144  10.745   4.066  25.981 -0.0314  0.0830 -0.2528
71129W        W14145   9.412   3.697  16.851 -0.0446  0.1496  0.5536
71130W        W14146  11.239   5.213  19.957  0.0932  0.0073  0.0543
71131W        W14147  29.364   2.406  20.248 -0.1621  0.2874  0.0393
71132W        W14148  26.180  26.766  25.817 -0.1868  0.1548  0.1863
71133W        W14149   5.643  33.974  19.440 -0.2986  0.0189  0.1189
71134W        W14150  15.791   8.604  22.623 -0.1825 -0.2187 -0.0473
71135W        W14151  34.283  14.412  17.332 -0.2028 -0.2401 -0.1805
71136W        W14152   8.652  20.326  15.500  0.2932 -0.2059 -0.0347
71137W        W14153   4.384  17.725   8.720  0.0776 -0.2847  0.2482
71138W        W14154  16.438   1.366  17.387 -0.1378 -0.4037 -0.0395
71139W        W14155  11.626  20.232  21.236 -0.2466  0.0629  0.0528
71140W        W14156   6.372  16.554   1.140 -0.2201 -0.0787 -0.0851
71141W        W14157  23.846   6.429  16.697 -0.0572  0.2249  0.1920
71142W        W14158   8.124   4.399  27.763  0.3052  0.2498  0.0636
71143W        W14159   7.507  25.161  25.283 -0.1947  0.2362  0.0417
71144W        W14160  31.496   4.200   3.193  0.0054  0.1204  0.0482
71145W        W14161  13.285   0.338  25.627  0.1175  0.3672  0.1079
71146W        W14162  13.026   9.047  27.927  0.1409 -0.1655 -0.1200
71147W        W14163  29.744   6.522  22.126 -0.5057  0.2280 -0.1152
71148W        W14164   4.829   2.445   9.353  0.1199  0.0154  0.0374
71149W        W14165  21.971   0.657  28.041  0.1366 -0.0281 -0.1506
71150W        W14166  24.580  12.128   8.302  0.0070 -0.4469  0.1597
71151W        W14167  12.779  14.951  15.985  0.5217 -0.1544 -0.0273
71152W        W14168  20.663  28.047  25.952  0.2721  0.1190 -0.2807
71153W        W14169  13.303  13.914  23.900  0.0751  0.1807 -0.1651
71154W        W14170   7.749   4.431  14.769 -0.0031 -0.2246 -0.3269
71155W        W14171   6.530   1.490  29.086  0.1396  0.0456  0.4115
71156W        W14172  12.624  32.529  14.582  0.0783  0.3802 -0.1145
71157W        W14173  22.559  12.287  15.329  0.1843 -0.1346  0.1758
71158W        W14174  19.262   9.133  21.698 -0.0070 -0.0478  0.1378
71159W        W14175   2.300   1.031  20.232  0.0047 -0.0652 -0.1776
71160W        W14176   8.168  10.415  21.733  0.0514  0.0615  0.0062
71161W        W14177  24.245  11.640  20.157 -0.3064 -0.3101 -0.4818
71162W        W14178  16.891   2.154  28.281 -0.3459 -0.2557  0.0325
71163W        W14179  32.241   1.888  25.710 -0.0536 -0.0356  0.0512
71164W        W14180  19.249   3.032  25.683 -0.0768 -0.3152 -0.2551
71165W        W14181   8.698   2.949  14.087  0.0213  0.0537  0.1173
71166W        W14182   6.389   9.341  16.836  0.2293  0.2154 -0.1542
71167W        W14183  10.211  18.090  16.584  0.1568  0.2389 -0.0871
71168W        W14184   1.806  22.125   7.898  0.0928  0.2105  0.2299
71169W        W14185  22.352   9.950  22.771  0.1437 -0.2183  0.0636
71170W        W14186  10.987  20.062  23.015 -0.0120 -0.0416 -0.3256
71171W        W14187  12.257  20.670  18.876  0.0240 -0.1200 -0.2398
71172W        W14188   8.950  12.307  25.014  0.1994  0.1076  0.0916
71173W        W14189  15.791   8.703  18.948  0.2577  0.0936  0.3444
71174W        W14190  33.841   2.545  14.828  0.1016 -0.0984  0.2092
71175W        W14191  17.908  33.391  21.610 -0.0996  0.0825  0.0239
71176W        W14192  12.627   1.998  16.040 -0.1919 -0.2477  0.0794
71177W        W14193  12.780  12.232   6.813  0.2583 -0.2040  0.2339
71178W        W14194  11.296   0.908  19.749  0.2058  0.0757  0.1065
71179W        W14195   3.718  14.729  26.227  0.0404 -0.2352  0.1274
71180W        W14196  21.994  28.716  20.968 -0.0254 -0.0836 -0.2754
71181W        W14197   9.921   2.108  16.614  0.0593  0.0788 -0.1653
71182W        W14198   6.543  19.092  21.612  0.1987  0.0200 -0.1531
71183W        W14199  15.849  17.133  26.300 -0.2105 -0.0375  0.0450
71184W        W14200   8.527  30.349   9.570  0.2147 -0.2059 -0.0464
71185W        W14201  21.005   2.313  15.081  0.0880  0.1909 -0.0844
71186W        W14202  28.263   5.736   7.927 -0.3783  0.1745 -0.0803
71187W        W14203   7.667  32.815  17.202  0.2822  0.1641  0.3031
71188W        W14204  21.862   4.636  20.046 -0.0655  0.1538 -0.0501
71189W        W14205  13.924  10.794   0.201 -0.1798 -0.2720 -0.3059
71190W        W14206  23.018  34.516  15.814 -0.0939 -0.0810  0.1990
71191W        W14207  27.439  29.133  18.398  0.0302 -0.1658  0.0464
71192W        W14208  16.172  17.266   5.952  0.1252  0.1024 -0.0028
71193W        W14209  11.541  21.728  26.599 -0.3045 -0.2578  0.0129
71194W        W14210   5.356  21.613  17.641 -0.0354 -0.2323 -0.1616
71195W        W14211  22.438  13.812  14.829 -0.5247  0.0096  0.0762
71196W        W14212  15.422   5.022  19.572 -0.1241 -0.0979 -0.3395
71197W        W14213  13.636   8.136  13.585 -0.3580  0.2706  0.1756
71198W        W14214  19.997  12.059  14.860 -0.1225 -0.0107  0.0870
71199W        W14215   8.574  29.791  27.854  0.1830  0.3204  0.1596
71200W        W14216  17.219  11.647  20.858  0.1973  0.2783 -0.0059
71201W        W14217  16.122  25.246  14.992  0.0933  0.0740 -0.4253
71202W        W14218  30.845   8.303  15.602 -0.0589 -0.2603 -0.0379
71203W        W14219  29.920  32.107   7.335 -0.2840 -0.3510  0.2385
71204W        W14220   4.737  32.094  19.663 -0.1172  0.1026 -0.2493
71205W        W14221  19.616  12.024  19.129 -0.0505  0.0176 -0.0216
71206W        W14222  16.627  25.894  18.071 -0.0974 -0.0586  0.1872
71207W        W14223  28.892  24.673  27.265 -0.2726  0.2111  0.1803
71208W        W14224  28.081   8.888  21.936  0.0547 -0.1123 -0.2422
71209W        W14225  28.294  15.728  14.670  0.1142  0.0234 -0.0428
71210W        W14226  11.425  26.715  24.897 -0.0356 -0.0415  0.1155
71211W        W14227   2.610  30.298  18.576 -0.3957 -0.3404  0.0585
71212W        W14228  22.605   5.224  15.882 -0.1816 -0.0817  0.1237
71213W        W14229  26.867  15.630  27.551 -0.0175  0.1102 -0.0496
71214W        W14230  11.404  12.705  13.843 -0.1695  0.2521 -0.1169
71215W        W14231  12.052   9.701  20.026  0.0717  0.0716 -0.1591
71216W        W14232  24.579  31.065  17.566  0.1811  0.1471  0.0796
71217W        W14233  12.334  14.938  15.751 -0.1688  0.3109  0.0560
71218W        W14234  28.302   2.564   1.252  0.1952 -0.1409 -0.1704
71219W        W14235  24.188  25.627  25.845 -0.0730 -0.1331  0.0859
71220W        W14236   2.378  28.327  16.195  0.2077  0.0743  0.2189
71221W        W14237  17.109  16.241  15.384 -0.2911  0.1059  0.1091
71222W        W14238   9.376   7.866  17.501  0.3501  0.2472  0.0680
71223W        W14239   5.781  14.113  21.191 -0.1460  0.2111  0.0985
71224W        W14240  22.320  10.087  21.832  0.1405  0.2990 -0.2063
71225W        W14241  16.344   8.964  13.678 -0.2901  0.0375 -0.2681
71226W        W14242   9.252   3.809  21.833  0.2171  0.1636 -0.2712
71227W        W14243  18.304   5.922   3.780  0.1908 -0.1187 -0.1444
71228W        W14244  28.601   4.535   8.863 -0.0692  0.2481  0.2539
71229W        W14245  34.602  16.012  17.027  0.1224  0.3896 -0.2630
71230W        W14246   5.869  29.593   7.437 -0.0212  0.0156  0.0295
71231W        W14247  18.414   7.753  20.337 -0.0782  0.0213 -0.2784
71232W        W14248  20.445   3.953  20.868  0.2097 -0.3508 -0.2599
71233W        W14249   3.736   4.544  17.775 -0.0425  0.1425  0.0332
71234W        W14250   0.167  10.301  24.827  0.0357 -0.1962 -0.0637
71235W        W14251  10.280   4.083  25.661 -0.2405 -0.1696  0.2515
71236W        W14252  14.822   8.907  14.747  0.0452 -0.2042  0.1949
71237W        W14253  13.965  12.226  13.890  0.0352  0.1115 -0.1459
71238W        W14254   7.892  16.707  18.592  0.0870 -0.2874 -0.0249
71239W        W14255  16.746  12.309   6.611 -0.1467 -0.2367 -0.2842
71240W        W14256   4.200  16.459  21.691  0.0403 -0.1680 -0.0318
71241W        W14257  30.154  32.450  17.703 -0.2136 -0.0809 -0.0378
71242W        W14258  23.847  20.378  27.360  0.0762  0.1884 -0.0378
71243W        W14259  15.269   3.118  17.429  0.2485  0.1075  0.1398
71244W        W14260  10.428  11.838  25.764 -0.1749 -0.0558 -0.2462
71245W        W14261  30.470  20.447  16.641  0.1177 -0.3439 -0.2253
71246W        W14262   9.677  14.647  28.084  0.3064  0.2767 -0.0099
71247W        W14263   3.360   6.804  15.805  0.0778 -0.1088 -0.0207
71248W        W14264  22.588  13.717  25.586  0.0668 -0.1027 -0.1205
71249W        W14265  10.100  30.945  20.142 -0.0037  0.1504  0.1404
71250W        W14266  24.535  31.907   4.512  0.1187  0.0352  0.0816
71251W        W14267   3.232  16.919  24.209  0.1734  0.0754 -0.0101
71252W        W14268  15.293  34.694  16.677 -0.0784 -0.1300  0.1184
71253W        W14269  34.537  13.856  22.612 -0.2338  0.3128 -0.0761
71254W        W14270  28.577   5.143  24.933 -0.4011 -0.0060 -0.2399
71255W        W14271   7.761   0.884  25.864 -0.2068 -0.2708 -0.2032
71256W        W14272  28.317  30.970  17.020  0.0131  0.1107 -0.0763
71257W        W14273   7.508  10.746  21.041  0.2236  0.0772 -0.0997
71258W        W14274  23.921   7.093  23.385  0.0043 -0.1601 -0.1036
71259W        W14275  16.101   7.206  25.137 -0.1317  0.2290  0.0803
71260W        W14276  16.039   4.451  28.257 -0.0974  0.2927  0.0358
71261W        W14277  18.708  10.236  22.078  0.2683  0.2686 -0.0977
71262W        W14278  18.658   0.149  14.800  0.7431  0.0416 -0.0496
71263W        W14279  10.303  17.518  18.658 -0.2245 -0.0505  0.1308
71264W        W14280  13.757  20.716   6.203  0.1503 -0.2313  0.1109
71265W        W14281   7.357  26.455  26.552  0.1533 -0.0420 -0.2250
71266W        W14282  19.918  14.567  21.534 -0.1396  0.1252  0.2109
71267W        W14283  27.671  30.500   0.406  0.1556  0.2058 -0.1187
71268W        W14284  21.723   4.070   1.850 -0.0039  0.0261 -0.2318
71269W        W14285  11.577  20.323  13.251 -0.0657 -0.4727  0.2215
71270W        W14286  17.344   4.754  23.682  0.1868 -0.0493  0.4099
71271W        W14287   6.946   0.792  21.779  0.2744 -0.2741  0.0554
71272W        W14288  24.530  22.725  21.757 -0.2565  0.0221 -0.2374
71273W        W14289  15.604  19.229  15.035 -0.2089  0.0197 -0.1378
71274W        W14290   2.985   7.957  15.541 -0.0338  0.2340  0.1923
71275W        W14291  22.660  29.765  26.215 -0.1652 -0.0134 -0.2608
71276W        W14292  12.905   1.685  15.633 -0.2017 -0.1333 -0.0060
71277W        W14293   5.479  32.112  21.727 -0.0030  0.2216  0.2637
71278W        W14294  20.578  11.577  25.330 -0.1224  0.2805  0.1069
71279W        W14295  12.675  26.510  27.024 -0.1623 -0.3403  0.1941
71280W        W14296  25.987   7.110  20.888 -0.1499  0.0641 -0.0866
71281W        W14297  23.855   9.550  19.353  0.1346  0.1369  0.0669
71282W        W14298  25.967  10.238   6.791 -0.3536  0.0477  0.0440
71283W        W14299  18.366   5.888  14.836  0.5798 -0.3849 -0.2037
71284W        W14300  23.465   8.799   3.370 -0.0144 -0.0578  0.0140
71285W        W14301  22.351  15.518  21.224 -0.1610 -0.2100 -0.1347
71286W        W14302  13.562   2.805  23.151 -0.1636  0.0285  0.0536
71287W        W14303  14.397  21.680  14.882  0.0042  0.0658  0.1567
71288W        W14304   6.901   8.357  19.662 -0.1130 -0.0586 -0.0569
71289W        W14305  10.940   7.117   2.434  0.1055  0.1857 -0.0183
71290W        W14306  13.762  33.413  22.004  0.0045 -0.0078  0.0315
71291W        W14307  10.702   6.297  15.007 -0.2313 -0.0733 -0.3841
71292W        W14308  30.157  33.768  17.672 -0.1785  0.0851 -0.0771
71293W        W14309  20.905  10.760  20.312  0.0203  0.2729 -0.1327
71294W        W14310  23.282   5.616  19.509 -0.1219 -0.3090 -0.1493
71295W        W14311  31.214  14.943  26.658 -0.0596 -0.0300 -0.0980
71296W        W14312  30.956   6.327  22.966  0.1373  0.0067  0.2173
71297W        W14313  12.783  12.544   7.223 -0.4419 -0.0851  0.0189
71298W        W14314  27.946   4.474  18.856  0.0319 -0.0638  0.1328
71299W        W14315  10.115  28.615  17.989 -0.3344  0.2549 -0.0409
71300W        W14316  27.181  21.475  14.629  0.1176  0.2104 -0.2474
71301W        W14317  14.905   5.039  24.282  0.1606 -0.2100 -0.2863
71302W        W14318  15.153  30.415  29.085  0.4484 -0.0840  0.2088
71303W        W14319   4.567  14.306  13.184  0.1174  0.2579  0.2095
71304W        W14320  10.884  29.771  19.627 -0.1917  0.0163 -0.1194
71305W        W14321  19.192   9.266  16.488 -0.0272 -0.0569  0.0376
71306W        W14322   5.069  14.784  20.019 -0.0907  0.2116 -0.1076
71307W        W14323  11.432   6.572  13.417 -0.0342  0.1615 -0.2321
71308W        W14324  16.620  10.821  27.764 -0.0428 -0.0799 -0.0668
71309W        W14325   7.044   5.867  22.357 -0.3128  0.0507 -0.3182
71310W        W14326  13.868   2.458  15.977 -0.0551 -0.0142 -0.2080
71311W        W14327  23.045  10.252  14.776 -0.0865 -0.0689 -0.0086
71312W        W14328   6.815   5.715  24.856 -0.2068  0.1932 -0.2691
71313W        W14329  33.837   3.983  17.555 -0.1345 -0.0753  0.0092
71314W        W14330  14.103   3.383  20.772 -0.1708 -0.0215 -0.3048
71315W        W14331   4.341  15.331   3.558 -0.0093 -0.1829  0.3159
71316W        W14332  33.067  12.085  23.097 -0.5027  0.0150 -0.0987
71317W        W14333  11.574   5.585  19.808 -0.0475  0.2232  0.0165
71318W        W14334  25.669   7.723   2.608 -0.1322  0.2361  0.0924
71319W        W14335   2.610  19.141  15.889  0.2883 -0.1866  0.1349
71320W        W14336   8.992   8.323  15.767 -0.0403 -0.2647  0.0705
71321W        W14337  17.942  27.718   1.648  0.1563 -0.0924  0.0985
71322W        W14338  22.683   6.931   7.384 -0.0460  0.1675  0.1911
71323W        W14339  10.139  27.045  19.650  0.1660  0.0322 -0.1218
71324W        W14340  32.720  10.241  25.380 -0.3810  0.0818  0.0360
71325W        W14341  10.286  20.275  18.820 -0.0666 -0.0064 -0.1289
71326W        W14342  34.208  12.392  19.691  0.0394  0.0347 -0.0574
71327W        W14343   2.897   7.274  25.655 -0.0128  0.4392  0.1624
71328W        W14344  16.183  14.978  12.919  0.1076  0.1713 -0.0167
71329W        W14345  16.332   1.295  19.148 -0.0390  0.0432 -0.0196
71330W        W14346   5.583  32.450  16.547  0.2800 -0.2102 -0.0713
71331W        W14347  10.704  17.743  16.653 -0.0891  0.0180 -0.0007
71332W        W14348   4.197  16.342  18.017  0.3351  0.4627 -0.2317
71333W        W14349  31.433  12.522  19.154  0.1769  0.0056  0.0386
71334W        W14350  31.978  31.585   8.323  0.2154 -0.1595 -0.1328
71335W        W14351  33.257   0.664  16.439  0.0967  0.0898 -0.3022
71336W        W14352  29.014  29.555   4.294  0.0029 -0.1597 -0.0464
71337W        W14353  23.867   3.635   4.546 -0.0345 -0.1788 -0.2026
71338W        W14354   5.102  16.237  20.972 -0.1769  0.0649 -0.2080
71339W        W14355  28.939  11.506  23.962 -0.0201 -0.0115 -0.0979
71340W        W14356  21.917  11.181  16.544  0.2460 -0.2353 -0.0576
71341W        W14357  20.840  10.435  22.550  0.0264 -0.4213  0.0465
71342W        W14358  29.147  18.322   2.493 -0.0275 -0.3255 -0.1271
71343W        W14359  17.737   8.303  19.198 -0.2215 -0.0499 -0.0957
71344W        W14360  10.463  15.672  14.088  0.3587  0.1068 -0.0330
71345W        W14361  13.822   1.070   8.923 -0.1293  0.0879  0.0938
71346W        W14362  14.127   9.552  19.870 -0.0354  0.0962  0.2042
71347W        W14363   3.278  20.339  16.033 -0.2161  0.0755  0.3030
71348W        W14364  16.686   9.670  24.802 -0.0990 -0.4240  0.2903
71349W        W14365  34.320   0.256  16.137 -0.2508 -0.0407  0.1640
71350W        W14366  22.167  10.552  24.239  0.1095 -0.1492  0.0239
71351W        W14367  11.664   9.874  16.870 -0.0838  0.1563 -0.1152
71352W        W14368   4.700   6.730  20.999  0.0692  0.2880  0.2080
71353W        W14369  20.636  25.277   5.281  0.1162 -0.2028  0.3973
71354W        W14370   8.172  20.908  25.416  0.0824 -0.2171  0.0808
71355W        W14371  27.605   9.110  17.534 -0.0139 -0.0623  0.3160
71356W        W14372  25.509  27.595   7.143 -0.0186 -0.1450 -0.2035
71357W        W14373  32.844  24.765  23.327  0.0857 -0.0356  0.2582
71358W        W14374  16.408  13.460   1.722 -0.1521 -0.0812  0.1375
71359W        W14375  11.539   9.912  14.654  0.0999 -0.1011  0.0840
71360W        W14376   3.503  12.820  14.052  0.1351 -0.0796 -0.1856
71361W        W14377  32.107   6.709  25.963 -0.0353 -0.1952  0.1753
71362W        W14378   6.419   9.173   1.479 -0.1298  0.1681 -0.1168
71363W        W14379  15.730  33.706  15.090 -0.1557  0.1917  0.1317
71364W        W14380  31.873   4.836  19.427  0.0680 -0.0472  0.0441
71365W        W14381   4.814   6.348  28.133 -0.0302  0.1992  0.0711
71366W        W14382  28.108  23.849  21.331 -0.3952 -0.3380  0.1561
71367W        W14383  15.784  12.454  21.597 -0.1602 -0.0416 -0.4226
71368W        W14384  32.386   5.298  25.434 -0.2550 -0.4172  0.1146
71369W        W14385   6.072   5.316  15.054  0.2198  0.0897 -0.1746
71370W        W14386  14.421  16.700  14.903 -0.1620  0.1937 -0.1212
71371W        W14387  19.642  34.331  25.101  0.0679  0.2211  0.3102
71372W        W14388  15.921   7.220   1.568 -0.2646  0.0411 -0.0471
71373W        W14389  13.013   4.069  23.237  0.1274 -0.2822  0.2289
71374W        W14390   7.821  33.224  15.400  0.3647  0.2503 -0.1224
71375W        W14391   4.887  16.863  13.873  0.0400 -0.4180  0.2369
71376W        W14392  24.580  16.539  28.236 -0.0518  0.4667 -0.4376
71377W        W14393  29.848   8.074  19.970 -0.3579 -0.0434  0.2335
71378W        W14394  10.171  19.961  23.214 -0.1465  0.0641 -0.0322
71379W        W14395  21.962  20.751  14.800  0.3882  0.1542  0.1424
71380W        W14396  18.914   7.876  15.527  0.2065 -0.0518  0.1112
71381W        W14397  13.218  10.733   8.034  0.3655 -0.3348  0.2817
71382W        W14398  14.186  32.296  26.219  0.1478 -0.1054 -0.0643
71383W        W14399  19.002   4.949  22.644 -0.2248 -0.0927  0.0344
71384W        W14400  13.687   6.975  15.064 -0.2199  0.1991  0.2118
71385W        W14401   5.799  14.698  26.660 -0.1885  0.0599 -0.1265
71386W        W14402  24.056  34.628  26.461 -0.1176 -0.1644  0.1438
71387W        W14403  15.214  21.838   2.871 -0.0779 -0.0859 -0.0689
71388W        W14404  30.430   0.462  21.237  0.0730  0.0155 -0.0571
71389W        W14405   3.143   4.853  27.985 -0.3371  0.0059 -0.1904
71390W        W14406  15.470  18.326   4.272 -0.0002  0.2259 -0.2340
71391W        W14407  16.274   6.992  17.710  0.1018  0.3860  0.0937
71392W        W14408   1.463   0.256  19.476  0.0168 -0.1432 -0.1166
71393W        W14409   9.962  24.767  16.973  0.0690 -0.0873 -0.3102
71394W        W14410   8.788  21.447  12.774 -0.1908  0.2954  0.0126
71395W        W14411  25.508  33.984  21.856  0.0099  0.3456 -0.0050
71396W        W14412   3.411  21.688  18.306  0.1232  0.1560 -0.1760
71397W        W14413  17.584  25.094  14.510  0.5312 -0.2795  0.3182
71398W        W14414  28.637   9.957  20.075  0.2546 -0.0637 -0.2607
71399W        W14415  11.711  21.450  19.124  0.0209 -0.3712  0.0312
71400W        W14416   8.169   5.908  22.568 -0.0710  0.0482 -0.1920
71401W        W14417  10.674  14.340   2.010  0.0369 -0.1899 -0.2804
71402W        W14418   6.766   4.828   3.653  0.1158 -0.0913  0.0780
71403W        W14419   4.826   7.772  17.306  0.0341 -0.0104 -0.0719
71404W        W14420   7.439  19.734  18.984  0.2220  0.1574 -0.3545
71405W        W14421   6.320   7.532   1.505  0.0911 -0.2030  0.0812
71406W        W14422  16.183   7.801  15.155 -0.1410 -0.1717  0.1330
71407W        W14423   1.581   0.698  19.174  0.2418 -0.0302  0.1555
71408W        W14424  20.162   4.694  27.992 -0.0074 -0.4024  0.2931
71409W        W14425  10.802   8.745  24.526  0.1312 -0.0404  0.2406
71410W        W14426  21.131  11.530  13.561 -0.1749  0.2107  0.1308
71411W        W14427  18.709   0.495  21.424  0.3436 -0.2385 -0.1497
71412W        W14428  17.435   9.800  23.439  0.2194  0.0349  0.2588
71413W        W14429  11.039  23.105  17.480  0.0287  0.0317 -0.3167
71414W        W14430  18.119  32.326  15.598  0.0989 -0.0049  0.3702
71415W        W14431  20.869  25.763  17.643 -0.1610 -0.2506  0.2032
71416W        W14432  14.150  14.933  20.428 -0.0745 -0.1681  0.1883
71417W        W14433   1.501  30.527  23.553 -0.3455  0.0047  0.1339
71418W        W14434  27.921  20.833  22.539  0.1591  0.2461 -0.0157
71419W        W14435   2.747   3.507  17.711 -0.2232 -0.0092  0.2161
71420W        W14436  10.299  22.849  13.381 -0.1644  0.1202  0.0400
71421W        W14437  19.370   1.198   2.874 -0.0389 -0.1559 -0.1448
71422W        W14438  24.794  26.271   0.609 -0.3002  0.1696 -0.4428
71423W        W14439  26.436  15.843  19.153 -0.0314  0.1662  0.0204
71424W        W14440  17.030  16.983  16.755 -0.0799  0.4284 -0.1486
71425W        W14441  27.893  33.186   9.685  0.2632  0.0730  0.1885
71426W        W14442   3.563   4.819  15.424 -0.1011 -0.0867 -0.1834
71427W        W14443  10.640   0.413   5.979  0.0854 -0.2088  0.0663
71428W        W14444   8.740  21.099  15.140 -0.2672  0.1427 -0.2010
71429W        W14445  18.670   2.416  14.391  0.0042 -0.2688 -0.0763
71430W        W14446  29.940   8.924  21.093  0.1999  0.4352 -0.2412
71431W        W14447  30.866   7.650  21.243 -0.0335  0.3096 -0.1444
71432W        W14448  31.452  17.945  27.252  0.1130  0.1172 -0.4577
71433W        W14449  20.766  12.995   3.368 -0.0677 -0.0418  0.2702
71434W        W14450  18.240  23.169  13.187 -0.0458  0.0607  0.0966
71435W        W14451  17.144   9.476  24.773  0.1972 -0.0463 -0.1596
71436W        W14452   1.751  23.783   5.136  0.0058  0.1257 -0.2958
71437W        W14453  32.725  23.617   6.324  0.0729 -0.3006  0.3145
71438W        W14454  17.539   0.833   1.219  0.0296 -0.1363 -0.0816
71439W        W14455  25.689  14.031   2.027  0.0241  0.1849  0.5203
71440W        W14456  10.172  11.887  23.428  0.0066  0.0375  0.3123
71441W        W14457   3.358   3.405   4.508 -0.0140 -0.2206  0.2614
71442W        W14458   2.601   7.354   1.968 -0.2451  0.1921  0.0950
71443W        W14459  14.756   9.978  18.109 -0.0576  0.0072 -0.2933
71444W        W14460  27.829   6.597   4.242  0.0552  0.2396 -0.1492
71445W        W14461   2.796   4.974  18.485 -0.0750 -0.2308  0.2277
71446W        W14462  10.545  10.880  14.961  0.2940 -0.1394 -0.2511
71447W        W14463   8.716  34.106   3.333  0.0295  0.3156  0.0250
71448W        W14464  16.324   9.960  22.479 -0.1503  0.0939  0.0950
71449W        W14465  21.694   3.074  20.768 -0.1486 -0.1132  0.1344
71450W        W14466   0.101  30.966  19.285  0.1094  0.1700  0.0869
71451W        W14467   7.487   7.997  15.036 -0.2164  0.0193  0.2788
71452W        W14468  14.365  14.384   2.257  0.0692  0.1736 -0.3294
71453W        W14469   4.767  32.791   8.331 -0.0370  0.0866 -0.0007
71454W        W14470  20.001  11.932  21.405  0.2807 -0.0780  0.3552
71455W        W14471   8.862  11.972   4.548  0.0976  0.2287 -0.0534
71456W        W14472  11.248  25.877  25.427  0.4441  0.1155  0.0246
71457W        W14473  18.512  34.463  25.198 -0.5004  0.1196 -0.0852
71458W        W14474  24.147  34.653  26.944 -0.2395  0.2301  0.0925
71459W        W14475  26.950  12.738   9.101 -0.0367 -0.2368 -0.1995
71460W        W14476  15.386  13.859  14.999  0.0626  0.3268 -0.1774
71461W        W14477   3.595  31.941  27.609  0.3045  0.2078  0.0260
71462W        W14478  10.369  31.259  19.830  0.2183  0.2679  0.0204
71463W        W14479  12.084  11.443  28.875  0.1395 -0.0316  0.0244
71464W        W14480  19.478   7.853  15.939  0.2559 -0.3657  0.2564
71465W        W14481   8.618   0.767  22.758  0.0959 -0.1931  0.1118
71466W        W14482  19.325  13.119  23.065  0.2496 -0.1401  0.2542
71467W        W14483  15.963   3.189  24.130  0.3041  0.2333  0.1721
71468W        W14484  10.078   8.090  16.800 -0.2049  0.1680  0.0574
71469W        W14485  11.673  27.614   5.116 -0.1199 -0.1225  0.0389
71470W        W14486  11.952   7.226  19.599  0.2523 -0.1125  0.5467
71471W        W14487   2.636   7.582   4.520 -0.0008 -0.1090 -0.2902
71472W        W14488  30.583  33.029  17.935 -0.0237 -0.0123 -0.0199
71473W        W14489  17.241  33.788  14.945  0.0929 -0.0084 -0.1863
71474W        W14490  16.566  14.075  14.324  0.1841 -0.2299  0.1967
71475W        W14491  15.957   6.536  23.136  0.3099  0.1214 -0.1097
71476W        W14492  14.874   6.205  26.106  0.0930 -0.2582 -0.2916
71477W        W14493  29.720  34.246  16.665 -0.1941 -0.1848  0.2317
71478W        W14494  34.495   4.863  22.033 -0.0486 -0.1125 -0.1718
71479W        W14495  20.526  15.897   0.560 -0.1588 -0.0914 -0.1418
71480W        W14496  26.204   2.523   2.873 -0.2715  0.0600  0.1189
71481W        W14497  16.660  25.387  17.390  0.2086  0.4472 -0.3339
71482W        W14498  28.503   6.008  17.872  0.0306  0.0239  0.0106
71483W        W14499  24.155   9.136  24.008  0.0322  0.2647 -0.0123
71484W        W14500  24.259  22.019  22.213 -0.0511  0.2178  0.0429
71485W        W14501   5.800  22.916  28.727 -0.2097 -0.1951 -0.1309
71486W        W14502  21.164  12.858   1.188 -0.3696 -0.3254 -0.3561
71487W        W14503  24.207   0.740  20.821 -0.1604 -0.0790  0.1436
71488W        W14504  23.869  19.470   6.657 -0.0486  0.4093  0.1546
71489W        W14505  18.284  10.076  12.449 -0.0725 -0.0964  0.2135
71490W        W14506  12.300  12.311  15.820  0.4914  0.1703  0.0451
71491W        W14507  10.923  10.618  24.015  0.2304  0.0656 -0.2347
71492W        W14508  23.299  30.268   0.791  0.0864 -0.0953  0.3950
71493W        W14509  19.166  19.673  13.872  0.2359  0.3896  0.2477
71494W        W14510  23.189  16.589  18.820  0.0633 -0.0095  0.0152
71495W        W14511  22.163  12.634  16.464 -0.2416  0.0857 -0.2325
71496W        W14512  12.603  10.386  24.969 -0.1388 -0.3459 -0.1242
71497W        W14513   5.327  10.036  23.607  0.0041 -0.0891 -0.0189
71498W        W14514   0.396   5.910   2.102 -0.0098 -0.1919  0.3029
71499W        W14515  19.637  11.683  22.960 -0.1380 -0.1149 -0.0268
71500W        W14516  27.585  28.224  21.423 -0.0926 -0.0627  0.1529
71501W        W14517   6.678   4.761  24.772  0.4749  0.2450  0.0274
71502W        W14518   6.143   2.752  10.008  0.1302  0.1381  0.1544
71503W        W14519  12.902  33.307  25.355 -0.2172  0.0649  0.1823
71504W        W14520   6.254  10.685  29.112 -0.2764  0.3713 -0.1440
71505W        W14521  15.937  30.095  22.542 -0.0284 -0.2144 -0.0594
71506W        W14522   9.481   0.600  20.857 -0.1874  0.2247 -0.3281
71507W        W14523  12.336  10.203  23.550  0.3184 -0.2346  0.1672
71508W        W14524   5.863  29.027  14.367  0.0593 -0.1950 -0.1201
71509W        W14525  16.110   9.469  13.555  0.2830 -0.2719  0.0446
71510W        W14526  19.553  33.268  18.002  0.1626  0.1545 -0.1262
71511W        W14527  18.246  10.686   2.901 -0.1290 -0.0239 -0.0814
71512W        W14528  18.300  32.494  17.015 -0.0563  0.0124 -0.0716
71513W        W14529  30.368   9.465   0.430  0.1634  0.1188  0.1693
71514W        W14530  14.928  16.363  13.393 -0.1719  0.2835 -0.1012
71515W        W14531  12.512   5.155   4.630 -0.2892 -0.1221  0.2597
71516W        W14532  26.431  14.235  24.398 -0.2436 -0.1085 -0.0095
71517W        W14533  10.612   2.563   1.002  0.1662 -0.1906 -0.0150
71518W        W14534  11.927   9.797   1.865 -0.0679  0.2830  0.1911
71519W        W14535   5.218  28.680  15.886  0.1639  0.2104  0.3308
71520W        W14536  11.164   4.191  17.363  0.1399  0.0184  0.1617
71521W        W14537  20.451   9.447  22.700 -0.1061  0.3192 -0.2298
71522W        W14538  15.689   6.843  28.732  0.0431 -0.1610 -0.0995
71523W        W14539  25.611   6.899  28.469 -0.0556 -0.0581 -0.0236
71524W        W14540  17.708   2.293  18.259  0.2211  0.1307 -0.1570
71525W        W14541   4.290   1.421  17.762 -0.2702 -0.2993  0.0727
71526W        W14542  16.839   0.090   9.080 -0.2275  0.0472  0.2217
71527W        W14543   6.977  15.962  23.160 -0.1631  0.3749  0.1068
71528W        W14544  18.492  14.286  22.372 -0.1108  0.3290  0.0554
71529W        W14545   1.851  29.762  19.185  0.1952  0.0449 -0.1698
71530W        W14546  21.249   8.069  25.676 -0.0251 -0.1938 -0.1771
71531W        W14547  13.243   8.190  16.881 -0.1146 -0.1993  0.1349
71532W        W14548   2.169  12.380   6.170  0.0920 -0.0509  0.1846
71533W        W14549  17.382  33.020  20.021  0.1491  0.0895  0.5138
71534W        W14550  10.466   9.687  25.420  0.2153 -0.0668 -0.2817
71535W        W14551  18.326  31.405  15.789 -0.3457  0.0292 -0.0167
71536W        W14552  21.863  14.779  28.384  0.1944  0.1068  0.0464
71537W        W14553   5.955  15.074  27.881  0.3830 -0.2405  0.3382
71538W        W14554  32.718   5.466   1.643 -0.2467 -0.1208  0.2021
71539W        W14555  33.163  13.782   4.725 -0.2062  0.0092  0.0082
71540W        W14556  11.432   0.191   3.620  0.1192  0.2170 -0.1326
71541W        W14557  25.525  26.390  15.893  0.1238 -0.2305 -0.1807
71542W        W14558  16.101  32.401  19.080  0.0805 -0.0536 -0.0269
71543W        W14559  13.646   8.965   6.157 -0.2852 -0.1366  0.0355
71544W        W14560  15.294  14.405  24.791  0.0748 -0.1204 -0.0692
71545W        W14561   1.838  31.850  28.572  0.1163 -0.0207 -0.2209
71546W        W14562  29.722  30.667   2.504 -0.2146  0.1300 -0.1780
71547W        W14563  13.464   2.329  25.376  0.0538  0.0970  0.0460
71548W        W14564  33.409  33.052  21.720  0.2070  0.1007  0.0172
71549W        W14565  29.791  19.334   3.248 -0.2058 -0.1194  0.3164
71550W        W14566   1.035   7.117  23.429 -0.1808  0.1657 -0.0287
71551W        W14567  15.305  23.885  17.845 -0.0993 -0.0071 -0.1995
71552W        W14568  26.988  12.254  22.655 -0.0367 -0.0367 -0.0248
71553W        W14569   5.341  28.839  20.657  0.3256  0.0436  0.2597
71554W        W14570  11.794   0.374  22.872  0.2230 -0.2850  0.2138
71555W        W14571  27.125  10.863   2.742  0.1375 -0.3683  0.1943
71556W        W14572  19.411  19.164  21.734 -0.0964 -0.3778 -0.0794
71557W        W14573   5.366  30.319  20.025 -0.0182 -0.2763  0.0543
71558W        W14574  13.419  14.763  12.975 -0.4506  0.2283  0.2826
71559W        W14575   0.927  19.212  16.463  0.0548 -0.4386 -0.2800
71560W        W14576   3.713   1.836  26.366 -0.1716 -0.2832 -0.0338
71561W        W14577  17.348   5.241  29.093  0.2554 -0.0184  0.0704
71562W        W14578   0.440   1.794  26.068  0.1048  0.1812  0.1800
71563W        W14579  15.077  11.764  15.344 -0.1384  0.1077  0.0887
71564W        W14580  21.276  34.645  15.670  0.1741  0.0811 -0.0010
71565W        W14581  32.788  23.468  24.632  0.2406  0.1426 -0.1511
71566W        W14582   3.649  16.121  19.424  0.1484  0.3295  0.0472
71567W        W14583  10.620   0.208   9.769  0.0230 -0.0154  0.1083
71568W        W14584  32.164  15.364   0.626 -0.1745  0.1033 -0.1079
71569W        W14585  27.383   5.314   9.766  0.0447  0.0327 -0.0355
71570W        W14586  26.132  16.729   6.276 -0.0791 -0.2089  0.4187
71571W        W14587  26.080  29.211  21.704 -0.3183  0.0192 -0.0624
71572W        W14588  14.317  10.738  18.784 -0.1401 -0.0316  0.0999
71573W        W14589  11.249  11.147  20.277  0.2104  0.1238 -0.2461
71574W        W14590  15.504  33.045  19.317  0.0115  0.4106 -0.1281
71575W        W14591  30.913   8.889  15.401 -0.1324 -0.0870 -0.0095
71576W        W14592  14.052   5.261  26.585 -0.1126 -0.1932  0.1117
71577W        W14593  18.775  24.999  15.031  0.2820 -0.0541  0.0082
71578W        W14594   3.239   5.645  19.922 -0.0446 -0.1191  0.0941
71579W        W14595   1.519   9.790  28.912  0.0371 -0.2508 -0.0019
71580W        W14596  16.041  20.248   5.709  0.1762  0.0414  0.2655
71581W        W14597   8.599   3.407  20.978  0.1190 -0.0849  0.1606
71582W        W14598  24.732   5.964  26.086  0.1296  0.1393 -0.0873
71583W        W14599  28.616   6.665   6.578 -0.2722 -0.2854  0.1564
71584W        W14600   4.386  16.900   6.836  0.0762 -0.2272  0.1961
71585W        W14601  16.604   6.802  19.104  0.4940  0.2225  0.0519
71586W        W14602  16.420  32.671  19.486 -0.0707 -0.3473  0.0561
71587W        W14603  16.452  31.649  23.693  0.1389 -0.1108  0.2014
71588W        W14604  13.946  25.920  21.132  0.0255 -0.1446  0.1042
71589W        W14605  12.882   3.042  27.473  0.2006 -0.2075 -0.2421
71590W        W14606  27.995  21.987  21.618  0.1573  0.1523 -0.0895
71591W        W14607  10.736  12.568  16.363  0.1319 -0.0426 -0.1091
71592W        W14608  15.413  29.155  16.560  0.1956 -0.3746 -0.0513
71593W        W14609  13.453  34.217  27.303 -0.0883  0.0802  0.0863
71594W        W14610  22.504   1.336  27.090  0.1068  0.4354 -0.1678
71595W        W14611  16.368  15.585  21.079 -0.1822  0.0428  0.3355
71596W        W14612  25.179  15.516  20.885  0.1879 -0.3067  0.4261
71597W        W14613  32.787  24.853   0.320  0.1234 -0.1153  0.0404
71598W        W14614  32.862   1.239   1.858  0.4507  0.0620 -0.1499
71599W        W14615  14.968  30.057  17.507 -0.1374  0.0143  0.0095
71600W        W14616  11.395   2.700  21.283 -0.2708  0.1265 -0.1204
71601W        W14617  29.429  10.588  20.858 -0.1604  0.1004 -0.2621
71602W        W14618  20.742   2.567  16.703  0.0320 -0.0109 -0.1147
71603W        W14619  15.853  24.912  24.756 -0.2045 -0.0228  0.1619
71604W        W14620   3.630  23.177  28.923  0.0397  0.0924 -0.3352
71605W        W14621   1.131   8.975  20.304  0.3229  0.0252  0.2523
71606W        W14622  25.689  13.510  23.111  0.1765 -0.2622 -0.0069
71607W        W14623  24.075   2.454  28.728  0.1206  0.2004  0.1766
71608W        W14624  20.835  14.891  12.241 -0.0258  0.1219  0.0425
71609W        W14625  19.098   2.488   3.041 -0.0173 -0.2112  0.1082
71610W        W14626  15.106   7.923  24.740  0.1632 -0.2554 -0.1420
71611W        W14627  20.115  26.527  24.174 -0.0186 -0.2266 -0.0534
71612W        W14628  16.532   0.195   1.005 -0.1855 -0.2255 -0.1586
71613W        W14629  17.655  19.812  23.375 -0.2346  0.2012 -0.3296
71614W        W14630  13.643   1.038  17.549  0.1305 -0.2058 -0.1871
71615W        W14631  27.278  11.770  17.860  0.0487 -0.0689 -0.4252
71616W        W14632  31.701  34.167  23.616  0.0184 -0.0739 -0.0901
71617W        W14633  16.394  27.810   5.733 -0.1214  0.0951  0.0514
71618W        W14634  25.556  29.731   2.312  0.1387  0.1239  0.1389
71619W        W14635  26.458  11.272  18.252  0.0766 -0.0596  0.0114
71620W        W14636  15.518  16.178   0.762  0.0714  0.2257 -0.0643
71621W        W14637  13.528  25.876  24.898  0.1839  0.0309 -0.0568
71622W        W14638  17.142  30.158  22.360 -0.1718 -0.2739  0.2119
71623W        W14639  29.911   5.312   5.939 -0.0264  0.0886  0.0539
71624W        W14640  11.718   5.534  28.940  0.1605  0.2590  0.0132
71625W        W14641  26.059   4.051   3.992  0.1805 -0.0790 -0.2331
71626W        W14642   8.784  12.973  18.081  0.3169  0.0324  0.1028
71627W        W14643   0.206   6.344  29.303 -0.2241  0.1069  0.0173
71628W        W14644  15.509   7.540   1.639  0.0591  0.2715 -0.0049
71629W        W14645  32.428   7.122   4.834  0.3283  0.1845  0.0088
71630W        W14646  26.141  20.961  19.961 -0.2251  0.1242 -0.0005
71631W        W14647  10.522   8.522  23.852 -0.1931 -0.1996  0.1456
71632W        W14648  17.070  11.583   3.008  0.0025 -0.0520 -0.2054
71633W        W14649  13.396  10.139  15.601 -0.0377 -0.0172  0.1115
71634W        W14650  24.138  25.854  17.752  0.1825 -0.2403  0.2753
71635W        W14651   7.203  10.726  23.193 -0.1252 -0.0082  0.1931
71636W        W14652  17.350  15.918  26.950  0.2651 -0.1497  0.2326
71637W        W14653  29.515  18.262  22.287 -0.0046  0.2874 -0.2349
71638W        W14654  22.995   9.759   5.560 -0.0994 -0.2804  0.1314
71639W        W14655  20.972  20.275  29.010 -0.1568  0.4016 -0.0713
71640W        W14656   2.898  23.265  20.299 -0.1419 -0.0480  0.0214
71641W        W14657  14.709  32.795  15.923 -0.1517  0.2421 -0.0856
71642W        W14658  21.919   9.892  22.093 -0.1437  0.1839  0.0399
71643W        W14659   2.740  25.758  14.474  0.2714  0.1924 -0.1749
71644W        W14660  20.264  20.793  16.875  0.1400 -0.2658 -0.2291
71645W        W14661  28.137   3.319  23.900  0.0977  0.1824 -0.0834
71646W        W14662   9.122  11.490   5.226 -0.4257 -0.0449  0.0417
71647W        W14663  10.462  13.196  28.529 -0.2957 -0.3047 -0.0691
71648W        W14664  18.852  24.315   6.142  0.0155 -0.5397 -0.0092
71649W        W14665  11.450  17.757  12.034  0.1048  0.0712 -0.2243
71650W        W14666   9.122  33.136  18.541  0.0954 -0.0155  0.0663
71651W        W14667  21.294  30.352   3.115  0.0391 -0.0343 -0.0301
71652W        W14668   4.516  10.135   7.712 -0.3678  0.1525 -0.0003
71653W        W14669  10.535   6.844  17.132  0.4886 -0.0167  0.2652
71654W        W14670  24.107   1.842  19.981  0.1712 -0.0235 -0.1059
71655W        W14671  20.220  11.236  26.769  0.1615 -0.2732  0.0454
71656W        W14672  21.330  11.824  17.545 -0.3024 -0.1029  0.0679
71657W        W14673  18.236   0.327  19.852  0.1981 -0.1880  0.0497
71658W        W14674  16.862   3.206  16.102  0.0425  0.1197 -0.1776
71659W        W14675  11.332  14.828   6.778 -0.3254 -0.1180  0.0498
71660W        W14676  34.171  33.637   4.529 -0.1270 -0.0765 -0.0277
71661W        W14677  16.829  12.762   2.760 -0.3242 -0.0771 -0.1721
71662W        W14678  13.118  31.104  25.419  0.0307 -0.1015 -0.1064
71663W        W14679  33.777   7.748  15.374 -0.3645 -0.0932  0.1849
71664W        W14680   1.622   9.106  28.040 -0.2431 -0.1899 -0.2246
71665W        W14681  13.966  16.005  20.076  0.1179 -0.0493 -0.2918
71666W        W14682  16.718  24.538  28.169 -0.4474  0.0587  0.2990
71667W        W14683  12.620   9.351  28.323  0.0583  0.2038 -0.1235
71668W        W14684  14.479   2.647   0.864  0.3928  0.1211  0.2231
71669W        W14685  21.785  11.417   7.792  0.0633  0.0203 -0.0949
71670W        W14686  23.415   6.520  22.493  0.1523  0.0498 -0.0651
71671W        W14687   6.550   7.355  18.161 -0.0327 -0.1062 -0.2397
71672W        W14688  10.937   4.842  22.554  0.0346 -0.1550  0.3585
71673W        W14689  29.097  13.390  23.209  0.4111  0.2905  0.0614
71674W        W14690   1.383  32.283  18.644 -0.1813 -0.2988 -0.0716
71675W        W14691  19.749  13.585  27.863 -0.2583  0.1412 -0.1424
71676W        W14692   5.661   2.345  27.044  0.2967 -0.2070  0.0997
71677W        W14693   8.569  10.142  21.917 -0.2401 -0.1017  0.2913
71678W        W14694   2.881   2.362  24.884  0.0177  0.3046  0.0132
71679W        W14695   8.974   6.369  16.302  0.2200 -0.1471  0.0692
71680W        W14696  13.597   9.590  14.914 -0.2731 -0.2817  0.0089
71681W        W14697  17.363   2.095  14.693  0.0818  0.2831 -0.0002
71682W        W14698   1.725   6.880   0.159 -0.3759  0.1058  0.4574
71683W        W14699  28.664   8.557  24.252  0.4546  0.0388 -0.1180
71684W        W14700   0.890  12.477  22.639  0.0770  0.1880  0.1764
71685W        W14701  16.045   0.109  16.169 -0.0894 -0.0118 -0.0348
71686W        W14702  33.464  27.287  26.991  0.0159  0.0358 -0.0090
71687W        W14703  22.241   5.308  15.571  0.0097  0.1114 -0.1141
71688W        W14704   6.590  27.611  23.449 -0.1361  0.2660 -0.1864
71689W        W14705  26.387  22.756  15.544  0.3057 -0.1927 -0.0503
71690W        W14706  21.748  31.758   9.700  0.1975 -0.1310  0.1382
71691W        W14707  20.439   9.478  19.438  0.2135 -0.0191 -0.0962
71692W        W14708  16.004  11.250   1.138  0.0971 -0.2360  0.0300
71693W        W14709  15.234  32.681   6.900  0.1221 -0.0663  0.1656
71694W        W14710  10.458   5.581  23.765  0.2128 -0.2429  0.2417
71695W        W14711  33.351  11.829  27.777 -0.1555 -0.0899 -0.3306
71696W        W14712  34.436   0.267  22.746  0.2844 -0.0753  0.0696
71697W        W14713  26.296   4.389  17.271  0.0444  0.1225 -0.1521
71698W        W14714   5.394  11.374  24.985  0.3141 -0.2687  0.4404
71699W        W14715  19.689   8.985  22.367 -0.0925  0.2119  0.3659
71700W        W14716  16.888   0.800  27.146  0.1324 -0.1097 -0.0296
71701W        W14717  17.971  19.772   5.861 -0.1915  0.0555  0.0166
71702W        W14718  32.215   4.944  18.030  0.1157 -0.1499  0.1093
71703W        W14719   7.850   9.105  16.895 -0.2187  0.0562  0.0167
71704W        W14720  15.399  10.752   4.497  0.3169  0.0790  0.0095
71705W        W14721  18.857  28.613  27.204  0.0471  0.0762 -0.1955
71706W        W14722  16.023   4.555  25.713  0.0374 -0.0494 -0.2400
71707W        W14723  23.572   1.560  17.103  0.3178 -0.4884  0.0961
71708W        W14724  24.638  24.877  22.534 -0.1638 -0.0065 -0.0503
71709W        W14725  29.050  20.078  22.080 -0.1274  0.0755  0.3010
71710W        W14726  22.933  12.614   0.437  0.0670  0.1559  0.0655
71711W        W14727  19.426  18.981  27.155 -0.3153 -0.0508 -0.0816
71712W        W14728   7.136  19.625  15.128 -0.1876 -0.0265 -0.1390
71713W        W14729   5.663   5.237  14.909 -0.0654 -0.1780 -0.2397
71714W        W14730  11.737  12.356  26.774 -0.1783  0.0260  0.3702
71715W        W14731  21.901  24.954  22.839  0.0183 -0.1608  0.1763
71716W        W14732  24.539  25.693   2.547 -0.1917 -0.1499 -0.3686
71717W        W14733   5.682   5.661  22.622  0.0843 -0.1532 -0.1988
71718W        W14734   0.127  20.137  24.042 -0.1489  0.0583  0.0797
71719W        W14735  12.474  11.893  28.867  0.1517 -0.1093  0.2452
71720W        W14736   9.298  11.613  14.534  0.3110  0.2174 -0.2129
71721W        W14737  18.060   7.376   4.196 -0.2330 -0.2223  0.4181
71722W        W14738  19.050  26.279   9.412  0.1964  0.2661  0.1093
71723W        W14739  23.990  10.598  18.841  0.0863  0.2703 -0.0235
71724W        W14740  18.624   7.359   0.737  0.1432  0.1058 -0.0929
71725W        W14741   8.094  13.960  21.364  0.3967 -0.1370 -0.1033
71726W        W14742  18.599  10.855  14.772 -0.2757  0.1746  0.4343
71727W        W14743  21.244   9.874   2.448 -0.3582 -0.1675  0.0013
71728W        W14744  24.254   7.264   6.558 -0.3086 -0.0132 -0.0180
71729W        W14745  12.554  29.553  14.811  0.1836  0.0933 -0.4421
71730W        W14746   3.106  19.714  19.718 -0.1089  0.0598 -0.2373
71731W        W14747  20.094  12.252  17.044 -0.0365 -0.2702  0.1611
71732W        W14748  20.213  22.163  21.007  0.1138 -0.1620 -0.0590
71733W        W14749   7.255   9.983  24.646  0.2499  0.0047  0.2952
71734W        W14750  23.541  24.248  20.533  0.2353 -0.3380  0.0734
71735W        W14751  32.406  30.131  18.343  0.2920  0.1094  0.1436
71736W        W14752   9.715   5.495  16.172  0.2151 -0.0343  0.0900
71737W        W14753  24.572  21.187  19.648  0.2514  0.2086 -0.2162
71738W        W14754  14.229  10.359  22.372  0.0576 -0.0005 -0.0262
71739W        W14755  15.057   1.845  28.767 -0.1101  0.2333  0.0231
71740W        W14756   4.366  18.457  20.609  0.0414  0.1401 -0.0264
71741W        W14757  10.434   4.718  25.003  0.2588  0.1178  0.1888
71742W        W14758   3.470  17.488  25.889  0.4932  0.2292 -0.1260
71743W        W14759  30.712   4.263  21.525 -0.4124 -0.2785 -0.3055
71744W        W14760   9.949  12.434  19.799 -0.1384 -0.2887 -0.1193
71745W        W14761   6.538   5.776   7.530  0.2715  0.1483  0.1005
71746W        W14762  29.133  19.544   5.373 -0.2309  0.1251  0.4348
71747W        W14763   6.723   4.942  24.290  0.0553  0.3216  0.3793
71748W        W14764  12.960   5.991  26.132 -0.0615  0.2888 -0.0637
71749W        W14765  12.222  10.172  13.462  0.2006 -0.2831  0.2036
71750W        W14766  24.524  19.667  17.197  0.1529  0.2134 -0.0350
71751W        W14767  23.003  19.540  22.904  0.0150  0.0838 -0.0043
71752W        W14768  10.213   2.470  23.345 -0.0735 -0.0084  0.0969
71753W        W14769  26.355  21.366  20.127 -0.0746 -0.2802 -0.0361
71754W        W14770  17.808   4.820  15.740 -0.0195 -0.2306 -0.5251
71755W        W14771  29.733  12.579  24.106  0.0785  0.1097  0.1962
71756W        W14772  25.416  21.048   2.333  0.1490  0.1834  0.2782
71757W        W14773  11.670   8.913  16.152  0.0912  0.1850 -0.0450
71758W        W14774  33.465  16.777   5.075  0.0404  0.0462 -0.1584
71759W        W14775   7.807  12.815  22.854 -0.3868 -0.1442  0.2374
71760W        W14776  19.873   3.090  16.622 -0.2141  0.1625  0.0876
71761W        W14777  29.963  17.229  25.304 -0.0913  0.1486  0.2543
71762W        W14778  20.479  16.189  22.596  0.2250 -0.0066  0.3274
71763W        W14779  30.304   3.502   1.750  0.1728 -0.1889 -0.0714
71764W        W14780  33.773  13.523  22.070 -0.0382 -0.2358 -0.0054
71765W        W14781  13.304   6.587  19.739  0.1213  0.1141 -0.2489
71766W        W14782  19.520  11.488  14.217  0.1882 -0.0112 -0.2783
71767W        W14783  20.133   3.971  23.409  0.1197  0.0277  0.3410
71768W        W14784   7.213  33.428   0.457  0.0101  0.0146 -0.1170
71769W        W14785  12.120   1.201  15.775 -0.1773  0.1983  0.1548
71770W        W14786  17.905  24.279  21.079 -0.1254  0.0826  0.0598
71771W        W14787   6.650  10.455  18.868 -0.0030 -0.3214  0.2437
71772W        W14788   1.618  12.289  22.745  0.1255  0.1365  0.2259
71773W        W14789  20.692  19.249  16.359  0.2880  0.0864  0.0594
71774W        W14790   6.962  28.966  16.318 -0.0133  0.0825 -0.1851
71775W        W14791   0.632   9.094  19.141 -0.1473  0.4862  0.0489
71776W        W14792  18.660  10.698   6.280 -0.2913 -0.0401  0.0479
71777W        W14793  14.518  17.650  24.364  0.0958 -0.0990 -0.2853
71778W        W14794  12.988  10.005  17.676  0.0946 -0.2880  0.1762
71779W        W14795  10.391  29.113  13.951  0.5312 -0.1291  0.2084
71780W        W14796  25.601   5.320   1.362 -0.0277 -0.1051 -0.4599
71781W        W14797  32.352  13.585   9.149 -0.0780  0.0822 -0.1389
71782W        W14798  13.862   6.255  24.920 -0.0575  0.1129 -0.0690
71783W        W14799  17.316  11.939  23.408 -0.1035 -0.0131  0.4466
71784W        W14800  21.267   8.296  24.455 -0.3669  0.0312  0.0839
71785W        W14801   9.931   2.273   5.407 -0.1545  0.1792 -0.2891
71786W        W14802  33.294  30.760  29.292 -0.0852  0.0633  0.0945
71787W        W14803  19.978   9.686  27.377  0.1457  0.2775 -0.0417
71788W        W14804  34.241  33.152  19.037 -0.1286  0.1630  0.0702
71789W        W14805  10.626  12.033   4.216 -0.2399  0.2515  0.0782
71790W        W14806   9.017  16.099  21.512 -0.4582 -0.3805  0.2759
71791W        W14807   5.542   0.768   6.400  0.0143 -0.0294 -0.1456
71792W        W14808   1.858  13.872  18.245  0.0591 -0.1288 -0.1822
71793W        W14809  22.112   1.492  25.798 -0.1143 -0.0473  0.0679
71794W        W14810  21.211  32.838  16.591 -0.2005 -0.1268 -0.1501
71795W        W14811  12.101  12.772   0.989  0.0778 -0.1612 -0.0090
71796W        W14812  23.550  27.635   0.149  0.1084  0.3210  0.4108
71797W        W14813   1.757   2.885  27.440 -0.0501  0.4291  0.0231
71798W        W14814   3.762   6.630  20.449  0.0813  0.0829  0.3035
71799W        W14815  15.210   6.497  24.888 -0.2244  0.1316  0.0657
71800W        W14816  29.013  20.094  20.666  0.3599  0.2839  0.0659
71801W        W14817  14.723  30.166  27.690 -0.0887 -0.1319 -0.1329
71802W        W14818  20.992  27.472   4.502 -0.0893  0.1347  0.1539
71803W        W14819   5.842   1.741  16.498 -0.0452 -0.2720 -0.0764
71804W        W14820   3.699  10.465  23.259  0.1699  0.1523 -0.0110
71805W        W14821  21.197   2.653  16.025 -0.2149 -0.3339 -0.1232
71806W        W14822  31.510   2.662  18.815 -0.2913  0.1938  0.0388
71807W        W14823  32.762  17.982  26.072 -0.0859  0.3384  0.1094
71808W        W14824  21.273   6.271   2.687 -0.2357  0.0022 -0.0558
71809W        W14825  15.849  13.248  14.535  0.3396 -0.0080 -0.3635
71810W        W14826  15.647  11.933   0.525  0.1000 -0.1297 -0.0797
71811W        W14827  30.704  17.048  22.302  0.0922 -0.0427 -0.2094
71812W        W14828  21.118   3.423   5.478  0.1567  0.1066  0.0148
71813W        W14829  15.721   9.664  21.143  0.2042 -0.1085 -0.2053
71814W        W14830  18.415  34.570  20.951  0.0488  0.1583 -0.1243
71815W        W14831   2.721  26.435   1.061 -0.3095  0.1702 -0.0867
71816W        W14832  30.789  16.424  22.709 -0.2632 -0.0820 -0.3468
71817W        W14833  16.862  16.070  13.907  0.0691  0.1620 -0.1172
71818W        W14834  29.326   4.619  24.500 -0.0806 -0.1735  0.2261
71819W        W14835  31.206   8.688  23.070 -0.3976 -0.0157  0.0904
71820W        W14836   2.547  30.067  22.956 -0.0509 -0.3889  0.1546
71821W        W14837   9.757   3.818  27.379  0.0671 -0.1019 -0.0924
71822W        W14838  31.040  18.886   9.848 -0.0025 -0.2595  0.3625
71823W        W14839  11.168  20.646  26.921  0.0754 -0.0511 -0.1500
71824W        W14840  13.177  10.576   8.575 -0.1651  0.1204  0.2958
71825W        W14841  15.573   0.595  25.133 -0.0830 -0.2128 -0.2519
71826W        W14842  13.495  10.055  14.754 -0.4884 -0.0011  0.1781
71827W        W14843  23.382   1.863  10.976 -0.2603  0.2868  0.2984
71828W        W14844   1.262   1.448  22.570 -0.0196 -0.2132  0.0005
71829W        W14845  15.339   5.155  27.056  0.1043  0.1186  0.0670
71830W        W14846  18.496  25.275  20.013 -0.0618 -0.1680 -0.1675
71831W        W14847   5.342  26.273  13.453  0.0369  0.2148 -0.1843
71832W        W14848  22.612  34.511  23.189  0.1731 -0.1627  0.1292
71833W        W14849   3.796  26.787  25.719  0.0023 -0.1395  0.1411
71834W        W14850  17.935   7.593   6.934 -0.0755 -0.2622  0.1050
71835W        W14851  22.968  11.815  14.341  0.0545  0.1705  0.0254
71836W        W14852  15.408  26.032   2.026 -0.2240 -0.3694  0.1192
71837W        W14853   6.293  12.403  27.078 -0.2339 -0.3889 -0.0731
71838W        W14854   3.143  10.006  15.230  0.0449  0.5062  0.0749
71839W        W14855   3.235  34.107   0.918  0.0950 -0.0984 -0.2594
71840W        W14856  19.716   5.606   4.604 -0.0648 -0.0760 -0.0780
71841W        W14857  30.916   8.935  14.412  0.2642 -0.1254  0.2987
71842W        W14858  22.595   7.415  26.277  0.1008 -0.0557  0.0964
71843W        W14859   1.626  26.685  27.565 -0.0794 -0.1398 -0.0752
71844W        W14860  24.303   6.706  28.079  0.1711  0.1551  0.0008
71845W        W14861   1.243   8.293  25.777  0.2148 -0.2075  0.3098
71846W        W14862  31.480  10.875  23.299 -0.1103 -0.1946  0.3562
71847W        W14863   0.118  15.092  19.695 -0.2091 -0.0011 -0.0379
71848W        W14864  14.621   5.069  20.728  0.1409 -0.1009  0.3137
71849W        W14865  32.970  26.160   9.037 -0.0847 -0.0748  0.1155
71850W        W14866  20.848  16.132  12.969 -0.0230  0.1578  0.4446
71851W        W14867  31.718  33.609   7.999 -0.1350  0.2378  0.4099
71852W        W14868  17.733   6.030  17.891  0.1026 -0.2923 -0.0309
71853W        W14869  19.436  19.778  14.246 -0.0159  0.0155 -0.4388
71854W        W14870  16.474  13.985  24.551 -0.2883 -0.1655 -0.3244
71855W        W14871   2.033  14.938   2.798  0.2241 -0.0165  0.1378
71856W        W14872  16.700  33.777  15.500  0.1012  0.1463 -0.1540
71857W        W14873  11.790  34.681  27.886 -0.0595 -0.1236  0.1197
71858W        W14874   1.211   8.988   2.173  0.2431 -0.0703  0.1544
71859W        W14875  10.922   4.390   2.533 -0.2107 -0.1919  0.0898
71860W        W14876  28.751   2.585  23.223  0.0853  0.1594 -0.1233
71861W        W14877  19.717   5.659  18.159 -0.3131  0.1407  0.0291
71862W        W14878  21.736  10.082   5.821  0.1396 -0.4109  0.0301
71863W        W14879  20.968   2.372  18.110 -0.1916 -0.4295  0.0750
71864W        W14880  20.745   6.850   0.571 -0.0208  0.1938  0.4258
71865W        W14881  20.405   7.811   2.029  0.1360 -0.0487 -0.0430
71866W        W14882  19.572  22.824  17.472 -0.2216 -0.1618  0.1387
71867W        W14883  31.296  16.405  24.804 -0.1724  0.0339 -0.1400
71868W        W14884  17.933  33.789  23.240 -0.1221  0.0217 -0.0004
71869W        W14885  19.558  31.431   1.906  0.1173 -0.0691  0.1265
71870W        W14886  23.135  12.271  20.277 -0.0161 -0.1274  0.2163
71871W        W14887  15.105  10.964  22.698 -0.0881 -0.2000  0.2514
71872W        W14888   9.356  21.988  15.730  0.1542 -0.0635 -0.4580
71873W        W14889  30.033   7.783  18.952  0.3596 -0.0837  0.1110
71874W        W14890  30.440  15.687  18.264  0.2588 -0.0643  0.0264
71875W        W14891  10.505  11.404  20.641 -0.4384  0.2178  0.0107
71876W        W14892  29.374   9.029  10.288 -0.0099 -0.0762  0.1082
71877W        W14893  32.892  22.568   9.102  0.1178  0.0319 -0.1893
71878W        W14894   7.337   2.409  18.089  0.0430  0.1345  0.3597
71879W        W14895  30.150   7.566  21.363 -0.1775  0.0704  0.3406
71880W        W14896  12.730  15.363  22.633  0.2886  0.2029  0.3402
71881W        W14897  15.286   9.303  17.771 -0.2679 -0.1415 -0.0177
71882W        W14898  12.216  30.198  27.290  0.1322  0.3665  0.0779
71883W        W14899  26.325  28.799  23.161  0.3637 -0.2128  0.0835
71884W        W14900  25.111  22.044  19.673 -0.2848 -0.0649  0.1291
71885W        W14901  18.319   8.480  16.980 -0.2667 -0.1273  0.1841
71886W        W14902  31.293  12.075  18.256 -0.0588  0.0315  0.0499
71887W        W14903  24.676  19.955  15.543  0.0239  0.3246  0.1523
71888W        W14904  19.479  30.067   2.372 -0.0586 -0.0906 -0.3519
71889W        W14905  32.955   9.104  24.156  0.1181  0.2840 -0.0382
71890W        W14906  15.490  12.511  23.167 -0.0425 -0.0455  0.0753
71891W        W14907  23.630  10.611  16.549  0.0336  0.1680  0.2411
71892W        W14908   4.115   7.472  19.467  0.0664  0.0877  0.0720
71893W        W14909   5.569  16.262   1.594 -0.3009 -0.1925 -0.3642
71894W        W14910  20.710   8.544  15.444 -0.0741  0.2280 -0.1113
71895W        W14911  14.133  30.339   1.324 -0.3396  0.0305 -0.2172
71896W        W14912  23.361  11.940   2.916  0.2552 -0.0160 -0.3156
71897W        W14913  28.773   8.549   6.009 -0.0785  0.0331  0.3122
71898W        W14914   3.357  34.649  28.939 -0.0066  0.1627  0.0593
71899W        W14915  25.782   2.981  25.957 -0.2498  0.3187 -0.2528
71900W        W14916  23.889  12.396  18.110 -0.0789  0.0979 -0.0935
71901W        W14917  16.502   9.009  19.242 -0.0367  0.1903 -0.3389
71902W        W14918  34.459   8.649  18.071 -0.0754  0.2183 -0.1823
71903W        W14919   9.330  23.242  28.722 -0.3799 -0.0304 -0.1455
71904W        W14920  14.902  30.982  26.596 -0.0560 -0.0201  0.1038
71905W        W14921  28.298  15.540  14.205 -0.0549 -0.1732 -0.0379
71906W        W14922  24.424  23.026  19.436  0.0567 -0.0564 -0.1430
71907W        W14923   8.711   0.426   0.720 -0.0471 -0.0237 -0.1884
71908W        W14924   8.614  13.658  19.415  0.3557 -0.3175  0.3985
71909W        W14925  18.151  16.927  16.629  0.0072 -0.2104 -0.1950
71910W        W14926  28.903  29.496  15.515 -0.1936 -0.1068 -0.1697
71911W        W14927  16.936  28.278  22.507  0.2836 -0.2470 -0.0830
71912W        W14928  22.933  16.958  27.120  0.1090 -0.0838 -0.1123
71913W        W14929  24.908   4.723  27.494 -0.0044  0.1085  0.0096
71914W        W14930  17.507  33.882  17.712  0.1732  0.3501  0.2179
71915W        W14931  20.529  13.830  25.843 -0.0724 -0.0014  0.1598
71916W        W14932  17.765   5.440  20.316  0.0421  0.2351 -0.2187
71917W        W14933  11.379   2.453  22.259 -0.0520 -0.0072 -0.2632
71918W        W14934  11.549   7.293  28.030  0.2043 -0.2914  0.0411
71919W        W14935   3.673   8.582  29.261  0.1743 -0.2958  0.0274
71920W        W14936   4.007  22.832  16.448 -0.0469 -0.3310  0.0795
71921W        W14937   9.825  33.515  28.056 -0.1245 -0.1312  0.0493
71922W        W14938  17.811  34.335  27.249  0.0515  0.2246  0.1660
71923W        W14939   5.678  26.071  15.994  0.1940  0.0755 -0.0644
71924W        W14940  12.526   1.707  19.679  0.0344  0.1502 -0.0809
71925W        W14941  14.939   4.066  19.890  0.1557 -0.3912  0.4037
71926W        W14942  30.643  18.993  26.109  0.1173 -0.0638  0.0301
71927W        W14943  16.820  15.584   2.770  0.1995  0.0142  0.0435
71928W        W14944  18.491  19.538   0.288  0.1234  0.1834 -0.6445
71929W        W14945  28.359   9.982  14.989  0.2102  0.1001 -0.2572
71930W        W14946  17.280  12.128  15.032  0.0391  0.2768 -0.1698
71931W        W14947  12.656  31.188  23.338  0.1183 -0.0641  0.4958
71932W        W14948   5.689  12.779  13.958 -0.0183  0.0774  0.2438
71933W        W14949   6.144   5.413  26.545 -0.1015  0.0097  0.1111
71934W        W14950  31.965   3.696   8.717 -0.1838  0.0661  0.0626
71935W        W14951  21.174   4.531   0.599  0.1985 -0.0195  0.0232
71936W        W14952  14.817  11.620   3.078 -0.3890 -0.2864  0.1103
71937W        W14953   3.201   6.969   0.462 -0.1453 -0.0891 -0.0993
71938W        W14954   8.360   0.953  18.941 -0.2143  0.1315 -0.1363
71939W        W14955  30.612  13.963   3.747  0.3456  0.0789 -0.1970
71940W        W14956   7.320  31.245   7.192  0.1626  0.0912  0.0105
71941W        W14957  27.538   2.932  29.279  0.2394  0.0907 -0.2663
71942W        W14958  10.787   8.732   5.713 -0.1847  0.0716 -0.0926
71943W        W14959  20.855  14.257  12.570 -0.4006  0.1236  0.3194
71944W        W14960  34.015   2.733  24.415  0.0533 -0.0255 -0.2875
71945W        W14961  18.779   6.190   8.534 -0.3961  0.1779  0.0705
71946W        W14962  15.639  15.826  14.020  0.1450 -0.2127  0.2261
71947W        W14963  11.252  31.612   3.036 -0.0889  0.0170  0.1498
71948W        W14964  12.021  14.917   8.374  0.2957 -0.0756  0.0248
71949W        W14965  13.003   5.877  21.738  0.2051 -0.0507 -0.2101
71950W        W14966  14.713  33.745  25.508  0.0279  0.4266 -0.1187
71951W        W14967  34.164  13.144  24.075  0.1380 -0.0311  0.0165
71952W        W14968  15.335  17.213  20.248  0.2269 -0.1158 -0.0409
71953W        W14969  25.036  31.316  19.268 -0.0727  0.0910 -0.0313
71954W        W14970  21.775   2.982  10.015 -0.0214 -0.4049  0.0400
71955W        W14971   9.613  19.723   6.122 -0.0547 -0.0056  0.3834
71956W        W14972   8.859   3.695  26.301  0.0054  0.0935 -0.1569
71957W        W14973  13.275  12.432   7.868  0.0910 -0.1529 -0.2142
71958W        W14974  16.376  34.138   3.735  0.3620  0.1814 -0.0807
71959W        W14975  26.315   5.520  10.762 -0.1331  0.1408 -0.2271
71960W        W14976   1.953  10.324   6.351 -0.1456 -0.1527  0.2227
71961W        W14977  14.539  32.334  28.761 -0.1429 -0.0992  0.0131
71962W        W14978   7.500   4.696  17.406 -0.1655 -0.2830  0.0698
71963W        W14979   2.542  18.517   0.496  0.0459 -0.1584  0.2209
71964W        W14980  13.944   5.181   4.993 -0.0033  0.2400  0.1577
71965W        W14981  23.737  14.448   1.325  0.4616  0.1095  0.1914
71966W        W14982   7.903  31.072   5.179 -0.1861  0.0116 -0.0661
71967W        W14983  16.386   3.955   3.996  0.3142  0.0538  0.1901
71968W        W14984   6.765  24.844   9.365  0.2927 -0.1526  0.1392
71969W        W14985  19.796   4.715  23.639 -0.0050 -0.1895  0.1467
71970W        W14986  19.514  16.007   2.414 -0.0106  0.2257  0.0007
71971W        W14987  28.701  30.992  22.980 -0.1215 -0.0555  0.0715
71972W        W14988  13.513  11.377   0.529  0.0012 -0.2084 -0.0546
71973W        W14989   1.986  11.799   3.535  0.0824 -0.1185 -0.0280
71974W        W14990  19.194  19.120  16.075  0.1477 -0.0483  0.3542
71975W        W14991   2.288  13.609  29.083 -0.0767 -0.0523  0.0652
71976W        W14992   7.970  11.897  28.675 -0.0062  0.0164  0.1405
71977W        W14993  20.305   7.400  25.789 -0.0536  0.1084 -0.1074
71978W        W14994   7.804  27.531  26.871  0.0896  0.0711 -0.2402
71979W        W14995   3.713  29.909   2.903 -0.1756  0.2605  0.1896
71980W        W14996  21.961   1.196  11.055 -0.1873 -0.0794  0.1303
71981W        W14997  18.492  10.774  17.862  0.2836  0.0793  0.1829
71982W        W14998  10.015   5.063  15.962  0.0709  0.3440  0.1827
71983W        W14999  19.204  23.650   3.041 -0.1610 -0.1161 -0.2468
71984W        W15000  19.753   9.498   8.309 -0.0190  0.0764 -0.3124
71985W        W15001  10.590  10.132   1.306 -0.1549 -0.1094  0.3189
71986W        W15002  30.408   9.181   9.791  0.1875 -0.1127  0.1777
71987W        W15003  18.797  32.388  22.096  0.0143 -0.0581  0.1900
71988W        W15004  18.363   9.796   4.173 -0.0823  0.1984 -0.1872
71989W        W15005  17.890   5.601  23.222  0.2251 -0.2119  0.1701
71990W        W15006   2.741   7.449   7.307  0.0131  0.0468  0.3932
71991W        W15007  10.382  28.677  22.492 -0.2053 -0.2037  0.2294
71992W        W15008   8.867  19.075  23.278 -0.3106  0.0801  0.1619
71993W        W15009  13.044  13.166  24.806 -0.1515 -0.0049 -0.2263
71994W        W15010  28.733   5.843   0.166  0.1919  0.1336  0.3403
71995W        W15011   7.177  24.801  20.176 -0.0577 -0.0755  0.2494
71996W        W15012  16.443   4.774  27.056  0.0697 -0.1820  0.0539
71997W        W15013  10.638  10.016  19.763 -0.2528  0.1229  0.2948
71998W        W15014   7.275   3.493   9.668  0.0334  0.1261  0.0221
71999W        W15015  15.945  10.853  22.093  0.4522  0.0839  0.2665
72000W        W15016  32.098  22.760   4.732  0.2028 -0.2226  0.0470
72001W        W15017   5.696   4.533  27.096 -0.1693  0.1018 -0.0114
72002W        W15018   9.034  26.642  26.982 -0.0158 -0.0167 -0.0268
72003W        W15019  19.999   9.206  15.896 -0.2090 -0.0345  0.0594
72004W        W15020  17.666  13.698  19.808 -0.1999  0.1745  0.3243
72005W        W15021  14.899   4.189  21.516  0.0920 -0.0149 -0.1772
72006W        W15022  13.444   2.930   9.221  0.0047  0.2183 -0.1081
72007W        W15023  20.614   3.417  16.407  0.1370 -0.1344  0.2946
72008W        W15024  18.545   2.012  13.789  0.2277  0.3161  0.0696
72009W        W15025  14.281   6.050  22.174 -0.1768 -0.2861  0.0525
72010W        W15026  22.672   7.557  25.789 -0.2389  0.0933  0.0079
72011W        W15027  21.561  15.555  14.964  0.0060  0.1047  0.0011
72012W        W15028   2.043  12.107  27.273 -0.1440 -0.3580  0.4110
72013W        W15029   8.719   0.344  17.360 -0.2912 -0.0432 -0.1906
72014W        W15030  10.513  27.096  23.979 -0.2645 -0.0782  0.0443
72015W        W15031  17.463   9.060  23.679 -0.4304  0.1620  0.1102
72016W        W15032  21.657   5.246   1.298  0.2634 -0.2605 -0.0786
72017W        W15033  30.968  12.479   2.596  0.1028  0.2128  0.3212
72018W        W15034  21.428   8.559  19.623 -0.0222  0.1195 -0.3282
72019W        W15035  31.552  33.227  18.898 -0.2176  0.2428  0.1313
72020W        W15036  27.498   6.893  21.346  0.1055  0.1246  0.1749
72021W        W15037  18.248   8.960  22.913 -0.0554  0.1688  0.3673
72022W        W15038  22.547   7.736  13.759  0.0107  0.2113  0.2541
72023W        W15039  31.236   1.893  23.990 -0.1308 -0.1505  0.3312
72024W        W15040  25.000   3.440   6.120  0.0634 -0.1669 -0.0851
72025W        W15041  28.463   9.670   4.113  0.0154 -0.0998 -0.1886
72026W        W15042  12.543  12.502  16.799  0.0576 -0.3591  0.0956
72027W        W15043  15.441  24.236   6.723  0.1854 -0.0599  0.3057
72028W        W15044  14.937  33.830  28.426  0.1519 -0.3857  0.5055
72029W        W15045  10.302   2.892   3.978  0.1133 -0.1246  0.0261
72030W        W15046  28.116   6.968  27.556  0.0511  0.1039  0.0125
72031W        W15047  16.695  17.943  14.081  0.2838 -0.0265 -0.0106
72032W        W15048  22.804  16.513   7.803 -0.2534 -0.1286 -0.2966
72033W        W15049   8.093   3.194   3.496  0.1981  0.1667  0.1884
72034W        W15050   8.582  31.876   1.889 -0.0937  0.2493 -0.1098
72035W        W15051  15.369  13.188  26.048 -0.0375  0.2841 -0.0365
72036W        W15052   8.059   0.860  15.783 -0.1181 -0.0319 -0.2331
72037W        W15053   6.281  32.780   9.099  0.2220  0.1245  0.4229
72038W        W15054  19.421   7.502   3.776  0.1014 -0.0531  0.0349
72039W        W15055  33.110   6.995  21.510  0.1868  0.1300 -0.3162
72040W        W15056   5.210  33.859  19.923 -0.1427  0.1797  0.0096
72041W        W15057   6.595   8.453  21.149 -0.0510  0.1014 -0.2786
72042W        W15058  17.265  14.911  19.133 -0.3544 -0.0973 -0.2271
72043W        W15059  11.668  32.785  21.996  0.3327 -0.1731 -0.0431
72044W        W15060   8.306  26.619  18.744  0.1695 -0.2665 -0.1397
72045W        W15061  32.101  18.175   8.155 -0.0821 -0.0394  0.1166
72046W        W15062   6.731  26.590   9.309 -0.3550 -0.2322  0.1480
72047W        W15063  18.654  33.289  28.927 -0.0622 -0.1747  0.2671
72048W        W15064  19.080  12.810  25.526  0.1586  0.3342  0.1396
72049W        W15065   7.287   6.565   1.010  0.7243  0.1755  0.2555
72050W        W15066  12.275  11.712  22.175  0.2538 -0.1672  0.0732
72051W        W15067  12.145  19.096  16.288 -0.3120  0.0839 -0.4612
72052W        W15068   1.701  12.955   8.148 -0.2617 -0.1223  0.4214
72053W        W15069  14.314  18.864   0.170 -0.0524  0.0050 -0.0280
72054W        W15070  18.542  30.761   9.971 -0.0511  0.1355  0.0375
72055W        W15071  19.073   8.537   2.186  0.0023  0.0561 -0.1308
72056W        W15072  10.325  10.136  20.610  0.1390 -0.3497  0.0058
72057W        W15073  16.626  10.381  13.196  0.1170 -0.0216 -0.0395
72058W        W15074  16.428   2.999  20.823 -0.1321 -0.3491 -0.3715
72059W        W15075  12.082  28.088   4.411  0.1344 -0.1571  0.1073
72060W        W15076  12.949   3.790  15.825 -0.2145 -0.1014 -0.0684
72061W        W15077  22.638  28.156   1.012  0.3868 -0.0813  0.1192
72062W        W15078  26.980  32.783  25.619 -0.3356  0.2496 -0.1151
72063W        W15079  15.751  14.529   4.216  0.0581 -0.0553  0.3010
72064W        W15080   5.165   6.415  26.349  0.1622  0.1598  0.3105
72065W        W15081  26.348  11.700  19.994 -0.0176 -0.0035  0.5143
72066W        W15082  12.904  10.266   4.119 -0.1986  0.0713  0.0438
72067W        W15083  26.238   4.693   7.554 -0.1247 -0.0484 -0.4605
72068W        W15084  30.986   8.420  28.195  0.0936 -0.0265 -0.0322
72069W        W15085  18.935   1.879   3.338 -0.2433 -0.1678 -0.0764
72070W        W15086   7.781  26.442  13.633  0.0737  0.1250 -0.2016
72071W        W15087  24.388   2.715  29.036 -0.1696  0.2814 -0.2053
72072W        W15088  18.988  28.420   4.383 -0.2752  0.1676  0.1441
72073W        W15089  22.266   3.237   3.286 -0.3918  0.1002  0.2425
72074W        W15090   6.565  33.479  24.447  0.0373  0.2103 -0.2447
72075W        W15091   2.261  16.472   7.893 -0.0731  0.2094 -0.0723
72076W        W15092   6.621  29.526   8.851  0.0508 -0.0405  0.1517
72077W        W15093  24.082  10.098  24.104 -0.0149 -0.1305  0.0586
72078W        W15094  16.008  22.260   8.513 -0.1631 -0.0359  0.2346
72079W        W15095  14.301   8.513  15.605 -0.0848  0.0009  0.3153
72080W        W15096   4.892   9.621   8.853 -0.2468 -0.0793  0.2165
72081W        W15097  25.078   5.587   3.614 -0.0013  0.2365 -0.0632
72082W        W15098   1.531  15.077   6.600 -0.0537 -0.1718  0.0272
72083W        W15099   0.087  19.282  22.771 -0.1032  0.2714 -0.0536
72084W        W15100  30.908  28.857  22.903  0.0589 -0.0766  0.1344
72085W        W15101  13.205   6.928  17.136 -0.1992  0.1476  0.0975
72086W        W15102  10.207  23.722  26.743 -0.1204  0.2054  0.0163
72087W        W15103  23.306  16.337  23.861 -0.2318 -0.1453 -0.1273
72088W        W15104   9.389   8.916  20.568 -0.1233  0.0649  0.1265
72089W        W15105   4.789  15.101  27.917 -0.0623 -0.2591 -0.4062
72090W        W15106  28.501  17.545   9.433 -0.2523  0.2648  0.2667
72091W        W15107   7.486  23.331  17.464 -0.1903  0.0457  0.1319
72092W        W15108  29.993   5.656   8.546 -0.0815  0.1032  0.5065
72093W        W15109  18.766   6.912   0.825  0.1058 -0.1214 -0.2528
72094W        W15110  15.831  20.205  25.544 -0.0256 -0.3198 -0.3541
72095W        W15111   7.977  13.116   8.142  0.0190 -0.0320  0.1942
72096W        W15112  20.712  27.314  22.623 -0.2162 -0.0670 -0.3098
72097W        W15113   0.792   3.461   4.169  0.0478 -0.0779 -0.0802
72098W        W15114  18.862  13.415  22.234  0.1740  0.0981 -0.7276
72099W        W15115   7.417  34.243   2.722 -0.1298 -0.2131  0.1242
72100W        W15116  21.116   8.359  28.576 -0.0096  0.2346  0.0851
72101W        W15117   9.765   9.139   0.902 -0.1081 -0.0511  0.1023
72102W        W15118  14.057   2.466  17.229 -0.4898 -0.0544  0.0708
72103W        W15119  21.938  13.329  22.424  0.0355 -0.0566  0.2375
72104W        W15120  24.631   1.620   1.848 -0.0507 -0.3095  0.1679
72105W        W15121  26.178   8.026  17.424 -0.0939 -0.0435  0.0777
72106W        W15122  20.361  14.065  23.463  0.0809  0.0124  0.1647
72107W        W15123  14.448  10.944   0.298 -0.1073  0.2863  0.0009
72108W        W15124  18.222  34.099  25.435  0.4103 -0.3300  0.0413
72109W        W15125  11.085  12.135  22.566  0.2061 -0.2147 -0.0823
72110W        W15126  12.846   2.151  27.063  0.1745  0.1954  0.1105
72111W        W15127  18.121   4.289   7.159  0.2118  0.0818  0.1540
72112W        W15128  14.562  16.361  12.067 -0.0413  0.1114  0.1502
72113W        W15129  23.736  27.402  25.477 -0.0718  0.0322 -0.2966
72114W        W15130  23.951  22.419   1.767 -0.1422 -0.0914 -0.0830
72115W        W15131  19.404   8.404  27.913  0.1235  0.0640  0.1173
72116W        W15132  34.642  14.800  24.140  0.1245  0.1841 -0.2416
72117W        W15133  33.409  22.668  23.861  0.2430  0.0149 -0.1910
72118W        W15134   8.879   0.684  23.242  0.3418  0.0883 -0.1670
72119W        W15135  16.717  11.467   1.505  0.0101  0.1534  0.4099
72120W        W15136   4.053  29.232   3.524 -0.0008  0.0111 -0.2191
72121W        W15137   0.539   6.632  28.531  0.1021 -0.0495 -0.1155
72122W        W15138  21.824  28.945  19.154 -0.0888 -0.1045  0.1310
72123W        W15139  12.695  11.294  15.960  0.1783  0.1472  0.0448
72124W        W15140   9.398  32.330  21.302  0.0539 -0.0939  0.1992
72125W        W15141  11.545  11.419  18.201  0.5010 -0.1950  0.0816
72126W        W15142  33.272  22.486   2.492  0.0594 -0.0546 -0.5405
72127W        W15143  24.175   9.337  27.249 -0.0209  0.0217 -0.0225
72128W        W15144  27.276  12.305   8.702 -0.1247  0.1586  0.0672
72129W        W15145   7.895  14.382   4.703  0.0612  0.2393  0.2994
72130W        W15146  28.637  13.659  25.369 -0.0588 -0.0336  0.0602
72131W        W15147  31.856   0.167   5.229  0.0047 -0.3927  0.1342
72132W        W15148  29.916  15.670   9.880 -0.0212 -0.1516 -0.0351
72133W        W15149  25.940   6.086   4.916 -0.0934 -0.2731  0.0921
72134W        W15150  14.082  13.077  23.325  0.1129  0.0615  0.0433
72135W        W15151  21.319  10.378   8.377 -0.1043  0.2540  0.3182
72136W        W15152   8.472   2.819  26.507 -0.1529 -0.2875  0.0387
72137W        W15153  22.287  13.905   0.186 -0.3939 -0.1467  0.2828
72138W        W15154  28.460  18.642   8.035  0.2344  0.0662 -0.2422
72139W        W15155  20.469   8.646   1.159 -0.2710 -0.0815  0.2836
72140W        W15156   4.903  24.426  23.348  0.2054 -0.0939  0.1600
72141W        W15157  25.771  24.270  27.923  0.0024  0.2503  0.0729
72142W        W15158  12.001   4.995  15.566  0.2198 -0.0977 -0.2917
72143W        W15159  10.173   2.371  26.193  0.0124  0.0298  0.0026
72144W        W15160  10.833   3.033  10.763  0.0074  0.0146  0.0553
72145W        W15161  21.463   9.737   7.463  0.4791 -0.0170  0.2293
72146W        W15162   0.282   8.520  23.832 -0.0699 -0.1553  0.0233
72147W        W15163  11.558  20.572   2.992  0.0184  0.1210  0.1693
72148W        W15164  10.863  15.319   4.805  0.4488 -0.0874 -0.3621
72149W        W15165  23.384  32.478  18.716 -0.1465 -0.1992  0.1230
72150W        W15166  10.263   3.823  20.041 -0.0097  0.1841  0.0430
72151W        W15167  17.376   6.362  20.327  0.1021 -0.0518  0.3002
72152W        W15168  19.871  11.355  27.573  0.1260 -0.1386 -0.0055
72153W        W15169  24.938   9.312   8.865  0.0544  0.0570 -0.2845
72154W        W15170   1.639   6.869  16.219  0.0947 -0.0950  0.2012
72155W        W15171   8.468   2.788   8.982  0.0729 -0.0300 -0.1264
72156W        W15172  23.717  13.985  28.735  0.2594 -0.3356 -0.2377
72157W        W15173  33.884  23.862   2.583 -0.2603 -0.2704  0.1895
72158W        W15174  26.226   0.416   4.396 -0.2841 -0.0368 -0.0366
72159W        W15175  25.377   2.222   0.327 -0.2109 -0.0797  0.3312
72160W        W15176  24.323   4.895  17.069  0.0328  0.0936 -0.1377
72161W        W15177  14.963   3.203  17.799  0.3197  0.0927 -0.3767
72162W        W15178  25.022   7.832   9.061 -0.0922 -0.1220 -0.0055
72163W        W15179  19.581  11.487   6.259  0.1702  0.0675  0.1781
72164W        W15180  33.324  10.937  28.620  0.0336  0.0699  0.2386
72165W        W15181  16.860  30.780  19.827  0.0199  0.0982 -0.0217
72166W        W15182  17.487   3.948   6.631 -0.3509 -0.0698 -0.2400
72167W        W15183  12.560  33.528  23.469 -0.0854 -0.0335  0.0290
72168W        W15184  14.545   9.289  19.733  0.2897 -0.0646  0.1183
72169W        W15185  18.093  11.595  20.169  0.1109 -0.0183  0.2073
72170W        W15186  12.434  27.031  25.704  0.1943 -0.0044  0.0227
72171W        W15187   8.877  10.793   2.352  0.2401 -0.2034  0.0706
72172W        W15188  28.574  27.011   5.253  0.0572  0.2339  0.1565
72173W        W15189  33.689  20.688   6.512  0.0165 -0.0100  0.1452
72174W        W15190  22.605  13.703   2.268  0.0775  0.1695  0.0890
72175W        W15191  26.217   5.034   3.763  0.0693  0.2028  0.3694
72176W        W15192  21.526   0.585  20.167  0.2463 -0.0150  0.0930
72177W        W15193  22.628   5.802   4.524  0.1667  0.0437 -0.2995
72178W        W15194  25.558  11.973   4.808 -0.1831  0.0997  0.0740
72179W        W15195   2.810  14.618   3.486  0.0197  0.2697  0.0063
72180W        W15196  16.992  12.078   1.313  0.2288  0.1874  0.2745
72181W        W15197   0.361  17.474  18.403 -0.1420 -0.0476 -0.0639
72182W        W15198   4.902  16.586  25.071 -0.1831  0.1570  0.3297
72183W        W15199  17.749   0.248   8.788  0.0531  0.0187 -0.0720
72184W        W15200  15.203  23.276  11.815 -0.0971 -0.0772 -0.2167
72185W        W15201  30.023   4.371  22.722  0.0084  0.2666  0.0381
72186W        W15202   9.382   8.377   5.521 -0.1796 -0.0571  0.0536
72187W        W15203  23.049   7.936  24.471  0.2499  0.2637 -0.1340
72188W        W15204   4.872  24.089  26.485 -0.1331  0.1185  0.6526
72189W        W15205   5.235  16.628   2.775 -0.2159 -0.1721  0.2069
72190W        W15206  30.207  28.205   0.602 -0.0767 -0.0660 -0.2124
72191W        W15207   7.465  15.777  16.014  0.0618  0.0867  0.0929
72192W        W15208  20.549   6.141  23.046 -0.1294  0.1302  0.2652
72193W        W15209  29.146  15.349  21.064 -0.3367 -0.0149 -0.2009
72194W        W15210  20.260  29.752  25.930 -0.0395  0.2496 -0.0928
72195W        W15211  13.227  34.161  20.416 -0.1545  0.1277 -0.1778
72196W        W15212  27.074  12.114  21.380  0.2039  0.1416  0.0013
72197W        W15213  17.494  25.010   7.715  0.2169 -0.1518 -0.2857
72198W        W15214   5.793  15.393  28.342  0.0962 -0.0552  0.0112
72199W        W15215   1.272  11.905  26.291 -0.2294 -0.0230  0.2524
72200W        W15216  26.563  21.334  21.398 -0.3682 -0.2764 -0.1176
72201W        W15217  22.145   3.482  16.963 -0.0446  0.1206 -0.0148
72202W        W15218   2.444  31.004   9.962  0.1746 -0.1110  0.2141
72203W        W15219  12.473  32.979  25.428 -0.0486  0.0429  0.1539
72204W        W15220  16.874   3.559   7.444  0.1122 -0.1366  0.1270
72205W        W15221   3.703  22.746   0.443 -0.1302  0.1622 -0.4689
72206W        W15222  28.474  13.041  29.062  0.2917  0.0294  0.0909
72207W        W15223  31.420  12.051   1.731  0.1855 -0.0572  0.2281
72208W        W15224  29.704  13.865  29.308  0.0579 -0.1139 -0.0966
72209W        W15225  10.284  31.055  16.545 -0.0298 -0.0033  0.1468
72210W        W15226  22.714  15.781  21.540  0.1484  0.1715  0.6186
72211W        W15227   1.377   4.078  26.730 -0.0138  0.0663  0.2380
72212W        W15228  11.380   2.953  16.611  0.2655  0.0063  0.0226
72213W        W15229  19.602  18.546  21.336  0.2708 -0.5583  0.1806
72214W        W15230  31.865   2.968  16.682  0.2302 -0.0632  0.0936
72215W        W15231  29.114  23.185  19.226  0.2254 -0.0899 -0.1426
72216W        W15232  23.819  11.136  29.295  0.1381  0.3152 -0.0821
72217W        W15233  10.303   1.596   3.857  0.2136 -0.0782 -0.1061
72218W        W15234   4.977   8.318  24.037 -0.0511  0.0618  0.1717
72219W        W15235   0.260   8.828  25.877 -0.0357 -0.4758  0.2008
72220W        W15236  14.772   6.232  22.261 -0.2888 -0.1873  0.1986
72221W        W15237  13.784  10.885  28.309  0.0158 -0.1685  0.0833
72222W        W15238  16.172   3.595  25.550  0.0168 -0.1386  0.1140
72223W        W15239  13.425  14.726  22.554  0.0090  0.1156 -0.0908
72224W        W15240  15.467   2.959  24.340  0.0272  0.0636  0.3716
72225W        W15241   9.351   4.892  24.672  0.1407  0.0270  0.0861
72226W        W15242  13.392  11.894  24.456  0.0349 -0.0809  0.2694
72227W        W15243  33.139  13.359   9.756 -0.3687 -0.1573  0.1166
72228W        W15244  13.781   4.290   2.637 -0.0757  0.1061 -0.0349
72229W        W15245  10.113   5.334  19.083  0.3276  0.0163 -0.2622
72230W        W15246   9.333   3.523   3.166 -0.0781 -0.0278  0.0674
72231W        W15247  20.649  31.800   5.131 -0.3618 -0.2641  0.1095
72232W        W15248  28.392   9.566   1.027  0.1434 -0.1295 -0.0153
72233W        W15249  15.039  12.038  20.370  0.0411 -0.0486  0.1332
72234W        W15250   3.682  26.866  10.328  0.0615 -0.0999  0.0579
72235W        W15251  16.018   6.523  16.103  0.0515  0.0648  0.0933
72236W        W15252   9.785   9.002   1.585 -0.0825  0.5626 -0.0040
72237W        W15253   3.452   7.023   0.032 -0.0819 -0.2945  0.0031
72238W        W15254  12.704   4.990   6.568  0.1575 -0.0714 -0.0452
72239W        W15255  22.684  13.225  16.150 -0.0165 -0.3135  0.1735
72240W        W15256  23.378  16.652  17.606 -0.1217 -0.2740  0.0123
72241W        W15257   8.047  20.109  14.026  0.0939  0.0359 -0.2724
72242W        W15258  30.013  33.347  29.056  0.2182 -0.0703 -0.0980
72243W        W15259  29.876  17.425  18.810 -0.0614 -0.1888 -0.0420
72244W        W15260  13.425  32.961   2.516 -0.2084 -0.0188  0.1881
72245W        W15261  24.934  32.385  16.173  0.2018  0.3362 -0.0744
72246W        W15262  27.420  33.305  17.454 -0.2819  0.1181 -0.0070
72247W        W15263  14.763   5.245   9.779  0.1311  0.2020  0.1660
72248W        W15264  20.413  32.517  23.713 -0.0513 -0.1569 -0.0568
72249W        W15265  15.567   0.137   7.995 -0.0561  0.1164 -0.0674
72250W        W15266  15.008  25.951   5.791 -0.0103  0.0542  0.3378
72251W        W15267  19.153  33.282  23.224 -0.1070 -0.1879 -0.0044
72252W        W15268  23.531  21.480  29.031  0.0944  0.1994  0.1215
72253W        W15269  13.000  16.844  13.328 -0.2873 -0.1240  0.1804
72254W        W15270  18.299  24.456   6.903 -0.1280 -0.0352 -0.0767
72255W        W15271  34.096  21.112  19.020 -0.1404  0.3020 -0.1166
72256W        W15272   5.712   1.083   7.805 -0.1574  0.2435  0.1321
72257W        W15273   5.457  15.145  21.695 -0.0633 -0.5198  0.2092
72258W        W15274  29.227  26.028   1.736  0.4997 -0.0510  0.0986
72259W        W15275  11.150  18.611  16.416  0.0891  0.1958  0.1903
72260W        W15276  17.865  17.048   6.147 -0.3026  0.3364 -0.0138
72261W        W15277  13.176   3.455  27.697  0.0957 -0.0592 -0.0966
72262W        W15278   2.654  29.098  28.489  0.3293  0.0678 -0.2974
72263W        W15279  31.171  10.871  21.467 -0.1418 -0.1715 -0.1680
72264W        W15280  23.591  17.919  16.869 -0.3573 -0.0672 -0.3405
72265W        W15281  17.290  11.368  23.803  0.2905 -0.1829  0.1627
72266W        W15282   2.174  20.173   9.221  0.0223 -0.0484  0.1249
72267W        W15283  22.290  26.201   3.841  0.4942 -0.1347  0.1580
72268W        W15284  33.160   7.955   0.561 -0.0746  0.2412 -0.2945
72269W        W15285   2.823  12.879   6.318  0.0723 -0.0380 -0.4654
72270W        W15286  12.304   5.428  26.308  0.1360 -0.2905 -0.1471
72271W        W15287   7.429   4.673   5.431 -0.1448 -0.0448  0.0052
72272W        W15288  12.386  11.692  13.395 -0.0682 -0.0817  0.2022
72273W        W15289  18.412   4.229   0.470 -0.1181 -0.3506 -0.1608
72274W        W15290   4.393  12.575   8.124 -0.1816  0.1823  0.0963
72275W        W15291  26.617  15.575  24.971  0.2002  0.0193  0.0208
72276W        W15292   8.284  11.584  21.418  0.2968  0.0361 -0.3748
72277W        W15293  17.692  31.529  15.103  0.2768 -0.0511 -0.0811
72278W        W15294  19.037   6.121  28.758 -0.1917  0.3983 -0.2813
72279W        W15295  15.432  12.423  28.299  0.1979 -0.1041  0.3225
72280W        W15296  12.742   3.494   4.590 -0.3581  0.2486  0.0747
72281W        W15297  29.259  11.167   6.716  0.0381  0.1201 -0.0915
72282W        W15298  22.653  12.295   4.373  0.1023 -0.1508  0.0100
72283W        W15299   9.262  13.345   5.230  0.0133 -0.1598  0.3803
72284W        W15300   5.036  18.544  25.429 -0.2651 -0.1983 -0.1212
72285W        W15301   5.782  14.813  14.603  0.1512  0.0804  0.2053
72286W        W15302  12.672   8.935   4.576  0.0382 -0.1024 -0.2187
72287W        W15303  22.900  11.637   4.786  0.1146  0.1733 -0.2501
72288W        W15304  15.139  33.453   6.857 -0.0077 -0.0561  0.0832
72289W        W15305  14.413  33.958  26.287 -0.2515  0.0191 -0.0554
72290W        W15306  21.075  11.635  25.438  0.3128  0.1950  0.2576
72291W        W15307  26.660   8.781   3.673 -0.0173 -0.3756 -0.1662
72292W        W15308  11.389  12.464   8.047 -0.3924 -0.2457  0.2430
72293W        W15309  29.912   4.863  24.584 -0.0976  0.1691 -0.0690
72294W        W15310  10.951  16.686  26.302  0.0585 -0.0953  0.5438
72295W        W15311  15.065  27.594  27.252 -0.2191 -0.0659 -0.2109
72296W        W15312   9.923  33.834  21.133 -0.1209  0.2103 -0.0079
72297W        W15313  10.105  12.767  26.833  0.1268 -0.0025  0.0652
72298W        W15314  18.993   5.819  27.157  0.1245 -0.0837 -0.2888
72299W        W15315  27.995   5.520  21.902  0.0007  0.3934 -0.1138
72300W        W15316  24.816  32.514  29.217 -0.2167  0.3091  0.1564
72301W        W15317  10.121  11.017   0.754 -0.1647 -0.1504 -0.0412
72302W        W15318  16.112  15.366  20.164  0.1544  0.1972  0.0534
72303W        W15319  26.313  25.319   2.593 -0.2658  0.2661  0.3841
72304W        W15320  28.904   8.440   7.543 -0.2456  0.1985  0.1685
72305W        W15321   0.940   6.613  24.681 -0.1153  0.0959 -0.1420
72306W        W15322   9.579  19.536  19.584 -0.0230 -0.2586  0.0568
72307W        W15323  25.446  34.356   5.253  0.2345 -0.0563 -0.2696
72308W        W15324   2.658  34.192  10.627  0.0107 -0.1206 -0.0183
72309W        W15325  19.389   2.338   1.703  0.1670 -0.1446  0.1608
72310W        W15326  14.641   6.689  13.927 -0.2840  0.0382 -0.0177
72311W        W15327  29.934  12.691   6.994  0.0715  0.1257  0.3439
72312W        W15328  13.306   5.823   6.596  0.0163 -0.0875  0.1622
72313W        W15329  23.729  19.979   7.966  0.0160  0.1197 -0.0252
72314W        W15330  25.140  16.258  17.159 -0.1497  0.0699  0.0899
72315W        W15331  21.467  12.634   0.391 -0.0830 -0.2013 -0.0295
72316W        W15332  17.986  18.589  29.061  0.0788  0.0021  0.3347
72317W        W15333  23.187  13.388   9.076  0.0716  0.0368 -0.1196
72318W        W15334  26.612  23.761  21.295  0.0209 -0.0343 -0.0208
72319W        W15335  10.616  26.302  28.981  0.1485  0.2359  0.0708
72320W        W15336  18.207  10.463  26.365 -0.0204 -0.7443 -0.0617
72321W        W15337  22.774  14.767  26.852  0.2749 -0.0416  0.1208
72322W        W15338  18.229   9.508  19.768  0.3952 -0.0639  0.0537
72323W        W15339  13.977  12.342   4.888  0.0919  0.0854 -0.1766
72324W        W15340  16.677  29.885  25.957  0.2781 -0.1710 -0.0307
72325W        W15341  18.771  17.296  23.357  0.0771  0.0242  0.2954
72326W        W15342  16.251  24.613  24.923  0.0059  0.2843 -0.0734
72327W        W15343  27.345  10.907   8.520  0.2095  0.1344 -0.2116
72328W        W15344  21.118  12.448   0.806 -0.0593 -0.3223 -0.3958
72329W        W15345  16.707  13.730   2.739 -0.0522  0.0486 -0.0475
72330W        W15346  34.475   4.377  26.410 -0.2322 -0.0965 -0.1377
72331W        W15347  25.776  10.887  19.781  0.2486 -0.0154  0.2683
72332W        W15348  10.705   0.966  23.857  0.0058  0.0660  0.0908
72333W        W15349  18.108   5.879  27.572 -0.0380 -0.1880 -0.1595
72334W        W15350  17.149  13.995  26.427 -0.1896  0.2460  0.1164
72335W        W15351  12.568   7.307   1.375  0.4559 -0.1309  0.2951
72336W        W15352  16.454   6.064   7.551  0.4499 -0.0430  0.2430
72337W        W15353  16.138  13.324   2.981 -0.1404  0.0475  0.4538
72338W        W15354  19.574  17.209   8.032 -0.1749 -0.1208  0.1119
72339W        W15355  15.031  10.439   4.784 -0.1263 -0.0035  0.1708
72340W        W15356  16.960   0.542  20.175 -0.0678 -0.1590 -0.0575
72341W        W15357  29.879  28.280   4.804  0.2954 -0.1527 -0.0103
72342W        W15358  15.453   8.636   6.208  0.2222 -0.2172 -0.0518
72343W        W15359  11.394   3.113  25.238 -0.0406 -0.3534 -0.0278
72344W        W15360  13.395  21.270   4.143  0.1090  0.0695 -0.3865
72345W        W15361  15.292  31.305   1.556 -0.1285 -0.0363  0.1264
72346W        W15362  28.480  24.615  26.937  0.4227 -0.0888  0.1753
72347W        W15363  16.210  31.554   8.942  0.0737  0.2299  0.1615
72348W        W15364  13.054  27.387   1.632  0.0426  0.0549 -0.3083
72349W        W15365  28.331   6.481  17.296  0.2670 -0.2154 -0.1781
72350W        W15366  21.427  34.130   5.711  0.2098  0.2067  0.0983
72351W        W15367  19.073  15.530  11.481 -0.0903  0.0795  0.1437
72352W        W15368  24.083  18.638   6.466 -0.2751 -0.1620  0.1573
72353W        W15369  17.468   5.543  23.605 -0.1866  0.0059 -0.0485
72354W        W15370  31.149  32.165  25.374  0.2883 -0.2860  0.1484
72355W        W15371  12.232   9.503   0.324 -0.0242 -0.1266 -0.1503
72356W        W15372  19.246  15.395  24.155  0.3402 -0.1494  0.1781
72357W        W15373  16.534  20.680   3.830 -0.0550  0.2561 -0.0827
72358W        W15374  24.965  32.560   5.504 -0.0543 -0.0651 -0.0676
72359W        W15375  13.918   4.003  27.371 -0.0617  0.1218  0.2095
72360W        W15376  24.582  14.797  15.467 -0.1346  0.1247 -0.4853
72361W        W15377  13.374  12.251  25.054  0.3062  0.2335 -0.0206
72362W        W15378   4.628   1.940  17.913  0.0896 -0.0444 -0.3541
72363W        W15379  11.964  15.250   5.313 -0.2288  0.0336 -0.3526
72364W        W15380   5.056   0.025   5.563 -0.0568  0.0346 -0.0326
72365W        W15381   2.515   7.550   8.688 -0.0871  0.1192 -0.3026
72366W        W15382   2.513  17.385   5.732 -0.4851 -0.0172 -0.1927
72367W        W15383  18.988  22.481   8.543  0.0809  0.0702 -0.2159
72368W        W15384  22.006  10.376  27.457 -0.2385  0.5168  0.0430
72369W        W15385  16.632  10.299  15.413 -0.0745 -0.2856 -0.2671
72370W        W15386  15.358  10.162  17.441  0.0765  0.1224  0.2089
72371W        W15387  24.369  20.827  15.522  0.1034 -0.0175 -0.1739
72372W        W15388  22.124   6.837   3.207  0.1003  0.0834  0.0211
72373W        W15389  27.064  16.985   6.651 -0.1025 -0.2413 -0.0043
72374W        W15390  26.814   6.321   3.893 -0.0396  0.0854 -0.0190
72375W        W15391  26.315   2.861   2.540  0.0814 -0.1841 -0.3574
72376W        W15392  25.665  32.366  23.457 -0.2150  0.0735 -0.0270
72377W        W15393   6.223  11.870   1.502 -0.3325 -0.0493 -0.0655
72378W        W15394  27.053  10.275  25.979 -0.0821  0.1063  0.0197
72379W        W15395  30.302  14.136  25.520 -0.0342 -0.0064  0.0655
72380W        W15396  15.338   8.933  14.986  0.2390 -0.0538  0.0264
72381W        W15397   9.274   0.209  15.625 -0.2811  0.2370 -0.1342
72382W        W15398  15.963  12.358   8.415 -0.0323 -0.1918  0.1495
72383W        W15399  22.703   1.027  19.390 -0.0740 -0.4111  0.0824
72384W        W15400   8.473  14.817   2.618 -0.1340  0.1336 -0.3544
72385W        W15401   9.791  12.725   6.795  0.2451 -0.2159  0.0906
72386W        W15402  21.105  18.157   2.117 -0.2333 -0.0189  0.1098
72387W        W15403  19.270  17.292   2.760  0.1080 -0.0837  0.4843
72388W        W15404  29.470  17.063   7.258 -0.0906  0.3338  0.0321
72389W        W15405  31.943   4.981   9.124  0.3378  0.1304  0.2165
72390W        W15406  29.279  11.294  23.590 -0.1924 -0.1793 -0.2455
72391W        W15407  18.682   6.800  17.146 -0.0384  0.0154  0.0358
72392W        W15408  11.190  13.439   2.725 -0.1211 -0.0264  0.0239
72393W        W15409  17.520   6.271   0.159 -0.0387 -0.0485 -0.0376
72394W        W15410   6.622   3.770  16.610 -0.0820 -0.3059 -0.0434
72395W        W15411  18.783  12.336  27.065 -0.0928  0.1880 -0.0304
72396W        W15412  21.008   9.962  20.020  0.0586 -0.1306 -0.0066
72397W        W15413   2.161  22.410  23.577 -0.1849 -0.5126 -0.2708
72398W        W15414  25.113  33.914  17.680  0.2230  0.1082  0.0634
72399W        W15415   7.086  31.935  23.692 -0.0989  0.0772  0.0967
72400W        W15416   4.256  11.350  19.139 -0.2087 -0.0153 -0.0509
72401W        W15417  26.308  24.672  20.798 -0.0082 -0.0800 -0.2270
72402W        W15418  15.722  19.164  12.224  0.0186  0.0840 -0.2166
72403W        W15419  16.764  13.676  12.337 -0.1099  0.0293 -0.1205
72404W        W15420  24.407  22.437  23.055  0.1948  0.3461  0.1646
72405W        W15421  25.284   8.911  22.001 -0.0994 -0.5042 -0.3659
72406W        W15422  17.719   6.648  15.607  0.0850  0.1003  0.1211
72407W        W15423   8.681  29.266  24.394 -0.0639  0.3132  0.1773
72408W        W15424   5.154  27.479  28.148 -0.0208  0.3090  0.0973
72409W        W15425  27.599  26.867  19.755  0.2352  0.0232  0.0300
72410W        W15426  26.040  19.228  22.625 -0.0931  0.0157  0.0169
72411W        W15427  28.127  13.101   5.713 -0.0015  0.2063 -0.3662
72412W        W15428  28.171  32.283   0.002 -0.1944  0.1539  0.1380
72413W        W15429  33.661  16.151  18.666 -0.2301 -0.5644  0.1042
72414W        W15430  17.521  12.881  12.013 -0.1800  0.1419 -0.1397
72415W        W15431  23.632   9.186  16.799 -0.2407  0.1056  0.0992
72416W        W15432  19.191   9.700  24.785 -0.1884 -0.0142  0.0319
72417W        W15433  11.150  13.156  16.597  0.0290  0.2193 -0.0859
72418W        W15434  22.634   2.810  24.313  0.2159  0.1384 -0.2693
72419W        W15435   6.795  19.019  19.485  0.0573  0.2170  0.0111
72420W        W15436  10.230   6.513  23.617  0.1081 -0.1062 -0.0996
72421W        W15437  22.929  31.043  21.316 -0.3467 -0.0144  0.0259
72422W        W15438  26.158   3.086  18.622  0.2592  0.0960  0.0037
72423W        W15439   9.180  12.314  18.834 -0.3024  0.1289 -0.2560
72424W        W15440   1.974  29.912  23.965 -0.3412  0.0713 -0.3963
72425W        W15441  11.320   7.864  15.195 -0.0631 -0.1582 -0.1214
72426W        W15442  24.167  11.701  23.247 -0.0069  0.3786  0.0528
72427W        W15443  16.981   0.345  14.131 -0.0649  0.1767  0.0311
72428W        W15444  26.170   6.075  20.338  0.0151 -0.2167 -0.2055
72429W        W15445   5.907  14.773  22.417 -0.0814  0.3776 -0.0799
72430W        W15446  22.320   6.972  10.328  0.4237  0.3093 -0.1810
72431W        W15447  12.333   0.887  20.636  0.0839 -0.0633 -0.2062
72432W        W15448  29.454  11.641  19.679  0.2547  0.0686 -0.1407
72433W        W15449  22.150  11.524  19.122  0.0945 -0.0465 -0.2345
72434W        W15450  10.898  10.498  25.686  0.1154 -0.1907 -0.0827
72435W        W15451  23.389  16.421  13.761 -0.1436 -0.0500  0.1331
72436W        W15452  10.816  26.224  24.206 -0.0040  0.1106 -0.1021
72437W        W15453  21.606   5.668  20.296 -0.0323 -0.1279 -0.1311
72438W        W15454   1.404  32.788  14.313 -0.0217  0.2011 -0.3324
72439W        W15455   9.917  14.241  16.001  0.1268  0.1731  0.0810
72440W        W15456  27.140  13.931   2.653 -0.0230  0.2332 -0.0695
72441W        W15457  23.028  30.173   6.901 -0.2583  0.0349 -0.2022
72442W        W15458  22.639  32.737   4.953 -0.1680  0.1924 -0.1980
72443W        W15459  12.636   2.504  15.129 -0.1363  0.0875  0.0542
72444W        W15460   9.260   1.747  25.158  0.1266 -0.0583  0.3130
72445W        W15461  20.061   1.767  24.448  0.0180 -0.1762 -0.3882
72446W        W15462  22.522  20.285  19.491 -0.0100 -0.1613  0.0590
72447W        W15463  27.492  13.411  15.323 -0.0090 -0.1295  0.1328
72448W        W15464   7.913  16.222  26.476  0.0176 -0.0894 -0.1525
72449W        W15465  12.902  15.997  14.388  0.0725  0.2711  0.2634
72450W        W15466  32.100   7.867  19.356 -0.2013  0.3132 -0.1745
72451W        W15467  22.264   2.122  22.530 -0.0449 -0.0758  0.1678
72452W        W15468   6.015  13.763  14.545 -0.1861 -0.2169  0.0161
72453W        W15469   4.494  11.918  15.822  0.0165 -0.0482 -0.0345
72454W        W15470  13.593  10.950  13.057  0.2988 -0.1985  0.1254
72455W        W15471   6.674  26.144  17.563 -0.1683 -0.1481 -0.1218
72456W        W15472   8.385  31.258  17.768 -0.1115  0.2199 -0.1928
72457W        W15473  29.059   7.800  15.353 -0.2053 -0.1046  0.0477
72458W        W15474  16.013   3.079  23.488  0.0321 -0.1495  0.3011
72459W        W15475  11.815  15.087  28.674 -0.3095 -0.1980 -0.0586
72460W        W15476  31.817  10.005   3.683 -0.2066 -0.1203 -0.2394
72461W        W15477  19.404   7.855  26.067  0.2441  0.2640  0.0409
72462W        W15478  18.911  30.847  21.298 -0.2320 -0.0320  0.2824
72463W        W15479   3.857  11.062  21.092 -0.0939  0.1416  0.3538
72464W        W15480   3.994   0.138  17.675 -0.3535  0.3323 -0.0524
72465W        W15481  34.127   2.584   0.484  0.0070  0.1183  0.1212
72466W        W15482   9.561   1.231  25.543  0.2639  0.1610  0.1511
72467W        W15483  28.238  14.524  14.606  0.0739  0.4131 -0.3008
72468W        W15484  33.048  13.984  16.434  0.3170  0.2627  0.2744
72469W        W15485   7.930  19.605  20.973  0.0360 -0.1029 -0.2221
72470W        W15486   5.507  28.043  23.809 -0.1434  0.0212 -0.1516
72471W        W15487  25.470   8.634  17.246  0.3333  0.3703  0.2188
72472W        W15488  19.860  23.948  18.398  0.1576  0.0790 -0.1245
72473W        W15489  11.606  21.254  23.684  0.0239 -0.2679 -0.0848
72474W        W15490  13.236  12.678  24.790 -0.2331  0.2606  0.0734
72475W        W15491   2.656   1.471  15.787 -0.2462  0.3292 -0.2722
72476W        W15492  24.682  15.027   6.024  0.0244  0.4675 -0.0345
72477W        W15493  17.023   9.955  17.883 -0.0737 -0.3816  0.1856
72478W        W15494  15.200   1.834  21.707 -0.0497  0.0913 -0.1010
72479W        W15495  13.713   4.441  26.394 -0.1578  0.0226  0.0147
72480W        W15496   6.301  11.786  17.743  0.1027  0.2998  0.0671
72481W        W15497  23.791  32.930  24.349 -0.1984 -0.0802  0.0175
72482W        W15498  18.916   3.761  16.621  0.1657 -0.1013  0.2111
72483W        W15499  10.348   0.101  20.457 -0.1772  0.0088  0.0396
72484W        W15500  15.210  26.080  28.221  0.1032 -0.1026  0.0478
72485W        W15501  27.078  20.492  21.701  0.0720 -0.1725  0.2302
72486W        W15502  25.099   4.486   0.404  0.0818  0.2088 -0.0475
72487W        W15503  14.752  28.345  22.180 -0.0392  0.0236  0.0613
72488W        W15504  27.972  16.179  16.552  0.0974 -0.3087 -0.0318
72489W        W15505  10.857  11.013  13.507  0.2280 -0.1119  0.0789
72490W        W15506  22.715  14.228  19.260  0.0296 -0.1126  0.0494
72491W        W15507  12.623   8.832  27.564  0.1960  0.2612 -0.1803
72492W        W15508   4.898   7.107  17.712  0.0038  0.0229  0.0639
72493W        W15509  17.808   6.475  14.761  0.1838 -0.1706  0.1841
72494W        W15510  28.368   9.137  18.597 -0.1047 -0.2250  0.3187
72495W        W15511  12.240  27.290  16.093  0.0373 -0.0282  0.2313
72496W        W15512  11.375   3.407  23.476  0.2170 -0.0390 -0.2374
72497W        W15513  14.154   3.329  22.834  0.0498 -0.2560  0.1014
72498W        W15514  26.865   0.495  20.348 -0.0136  0.1404  0.0206
72499W        W15515  11.079   3.718  20.173  0.2874 -0.0630  0.2222
72500W        W15516   0.943  12.033  15.261 -0.4988  0.1845  0.2814
72501W        W15517  24.305   8.149  23.893  0.0218  0.2089 -0.0410
72502W        W15518   1.983  26.262  18.166  0.3655 -0.0879 -0.0968
72503W        W15519  12.636   5.276  15.764 -0.2799 -0.0855  0.2142
72504W        W15520   4.956  23.249  19.336 -0.0897  0.2266  0.0717
72505W        W15521   3.916   9.765  14.270 -0.0576  0.1705  0.2802
72506W        W15522  12.693  16.648  16.091 -0.0634 -0.1599  0.4223
72507W        W15523  20.561   7.105  23.293 -0.1232  0.0243 -0.1149
72508W        W15524   1.857  20.631  14.903 -0.2552 -0.3183  0.1741
72509W        W15525  27.115   8.002  16.796  0.1175 -0.0124  0.1556
72510W        W15526  17.195  27.453  24.333  0.3656  0.0189  0.0789
72511W        W15527  20.877  20.935  17.026 -0.2357  0.1332  0.0208
72512W        W15528  22.678  11.551  20.305  0.0159 -0.1794  0.1817
72513W        W15529  28.809  12.385  21.345  0.2873  0.2442  0.0747
72514W        W15530   8.785  18.422  13.261  0.0903  0.0239  0.5589
72515W        W15531  13.833  30.061  25.232 -0.0014 -0.2437 -0.0656
72516W        W15532   7.085  20.458  19.195 -0.1257 -0.2335  0.0432
72517W        W15533  23.337   8.472  23.457 -0.1091 -0.0736  0.2158
72518W        W15534  19.826   6.848   9.460 -0.0754  0.3412 -0.0577
72519W        W15535  25.511  19.829  16.387  0.0314  0.1340 -0.0604
72520W        W15536  15.793   3.117  19.168  0.0236 -0.2732  0.0657
72521W        W15537  12.424  10.634  20.077 -0.4825  0.2979 -0.2089
72522W        W15538  16.859  27.746  15.537 -0.0843  0.2236  0.3352
72523W        W15539  20.189  21.787  13.506 -0.1127  0.0277 -0.0880
72524W        W15540  21.420  12.818  27.342 -0.3630  0.3046  0.2812
72525W        W15541   1.888   3.758  16.667  0.1645  0.0404  0.1899
72526W        W15542   4.652  14.137   3.488 -0.0683 -0.3878 -0.2961
72527W        W15543   6.435  30.392  19.821  0.1016  0.0543 -0.1504
72528W        W15544  26.249  28.463  19.519  0.0425 -0.1535 -0.3757
72529W        W15545  19.984  23.945  24.019  0.0054  0.0588 -0.4614
72530W        W15546  26.081  14.949  19.913 -0.2683 -0.2387  0.1004
72531W        W15547  25.533  11.859  19.695  0.1250  0.0712  0.1273
72532W        W15548  10.791   6.526  21.968 -0.2599 -0.0218 -0.1806
72533W        W15549  10.136   6.955  18.023  0.2163 -0.2088 -0.0833
72534W        W15550  19.987  21.589  26.361 -0.0051  0.1689 -0.2165
72535W        W15551  21.427   7.692  16.778  0.0336 -0.1081  0.3239
72536W        W15552  17.538  10.708  25.700  0.0593  0.0335 -0.3187
72537W        W15553  23.152  18.375  17.784  0.1340  0.1304 -0.0018
72538W        W15554  27.555   9.457  26.304  0.0915  0.1998 -0.0645
72539W        W15555   4.222  34.401  14.311  0.1290  0.1269  0.0824
72540W        W15556  22.180  10.213  25.838  0.0953 -0.1003  0.3340
72541W        W15557  25.661  20.042  16.883 -0.2355  0.0959  0.1315
72542W        W15558  12.284  22.973  12.890  0.0099 -0.0066  0.1586
72543W        W15559  22.856   6.812  21.883 -0.0320  0.0083 -0.1813
72544W        W15560  11.000   7.187  15.897  0.1741  0.0715  0.0077
72545W        W15561  22.328  10.398  14.193  0.1353 -0.1749  0.0581
72546W        W15562  12.764   5.404  21.506 -0.2583  0.0486  0.1630
72547W        W15563  20.996  20.174  15.458 -0.1434  0.0098 -0.2017
72548W        W15564  21.195  11.219   0.757  0.0482  0.2786 -0.1691
72549W        W15565   9.107  13.590  26.321 -0.1518  0.0082  0.3642
72550W        W15566  11.388  22.183  20.114 -0.0603  0.0666  0.0607
72551W        W15567  27.810  11.566   5.406 -0.1939  0.0273  0.1140
72552W        W15568  27.385  16.873  16.251  0.1638 -0.2679  0.2957
72553W        W15569   6.529  19.795  16.785 -0.2501 -0.0385  0.1970
72554W        W15570  34.137  25.792  21.651  0.0714 -0.3062 -0.1470
72555W        W15571  21.099  21.413  19.747  0.0299 -0.1837 -0.2340
72556W        W15572  19.721  21.805  17.474  0.0399  0.6039 -0.0959
72557W        W15573  12.437   9.355  16.481 -0.1658  0.0278 -0.1204
72558W        W15574   2.803  24.672  21.203 -0.1211 -0.2032  0.1558
72559W        W15575  16.224  12.081  16.170  0.1021 -0.0059 -0.0241
72560W        W15576   4.641  13.441  14.138 -0.1987  0.1361 -0.5753
72561W        W15577  16.447   8.521  13.964  0.2773 -0.1453  0.2239
72562W        W15578  18.043  16.698  25.533 -0.1575 -0.1869 -0.2041
72563W        W15579  17.773  14.719  12.527 -0.0463 -0.1523 -0.3263
72564W        W15580  26.234   7.877  14.661  0.0306  0.2318  0.1423
72565W        W15581  18.109  29.399  20.471  0.2437  0.1902  0.0173
72566W        W15582   8.008  26.291  16.814  0.3874 -0.2021  0.2687
72567W        W15583   9.979  18.930  26.211  0.2987  0.1464  0.1760
72568W        W15584  33.745  14.283  26.104 -0.4007  0.0839  0.2742
72569W        W15585  15.168  27.952   3.787  0.2404 -0.2281  0.0544
72570W        W15586  20.923   8.877  16.855 -0.0684 -0.1907 -0.0762
72571W        W15587   5.609  17.460  15.205  0.0677  0.2422  0.0578
72572W        W15588  31.913  24.740  18.655 -0.2160 -0.0791  0.0349
72573W        W15589  24.765  20.257  17.830 -0.0191 -0.0393  0.1762
72574W        W15590  25.377   1.399  27.448  0.2703 -0.0869  0.1714
72575W        W15591  26.198  27.819  23.283  0.0895  0.2009  0.2672
72576W        W15592  32.321  12.369  26.789 -0.0493  0.3638 -0.0986
72577W        W15593  14.120   9.226   7.576  0.2155  0.0450  0.2539
72578W        W15594  16.072  18.610  13.000 -0.1360  0.0573 -0.1158
72579W        W15595  15.115   9.480  21.316  0.0314 -0.2029  0.1676
72580W        W15596   4.085  10.790  26.316 -0.3188  0.3022  0.4703
72581W        W15597  16.597  18.207  15.485 -0.0082  0.2231  0.0745
72582W        W15598  24.032  10.821  27.984  0.3772  0.1147 -0.2202
72583W        W15599  28.144   6.445  23.852  0.0602  0.3117 -0.0076
72584W        W15600  15.757   0.649   1.065 -0.0710 -0.1416  0.0122
72585W        W15601  26.052  33.920  15.883  0.0260  0.3732 -0.1833
72586W        W15602  30.073  23.049   1.095  0.0748  0.2762  0.0408
72587W        W15603   9.024   8.415  17.981 -0.4747 -0.1736 -0.4013
72588W        W15604  25.668  23.499  21.068  0.1230  0.2982 -0.2620
72589W        W15605  31.037  21.075  16.058 -0.0759 -0.1709  0.2408
72590W        W15606  11.274  18.794  14.089  0.0895 -0.1600 -0.1095
72591W        W15607  18.489  29.628  26.785 -0.0658  0.1890  0.1579
72592W        W15608   6.060   7.851  20.002  0.1979 -0.0504  0.0427
72593W        W15609  13.090   6.644  17.503 -0.2095 -0.2849 -0.0783
72594W        W15610  33.780  33.911  16.422  0.0355 -0.1095  0.2154
72595W        W15611  16.720  13.492  19.543 -0.0065 -0.1069  0.2324
72596W        W15612  31.644  24.381  16.773 -0.0545 -0.0693  0.0167
72597W        W15613  28.042  14.396  19.657  0.1277 -0.0344  0.0600
72598W        W15614  15.911   1.854  25.942  0.0865  0.1970  0.5027
72599W        W15615  14.444   2.083  20.860  0.1603 -0.1571  0.0435
72600W        W15616   9.861  31.766  24.027 -0.4403  0.2582 -0.0165
72601W        W15617   2.052  30.539  14.273 -0.3141  0.2169 -0.0895
72602W        W15618  19.767   7.163   3.794  0.3999  0.3619 -0.0071
72603W        W15619  24.801   5.681  22.195  0.4876  0.1455 -0.2075
72604W        W15620  11.797  13.754  24.878  0.2977  0.0638 -0.0311
72605W        W15621   5.535  28.420   5.214  0.0664  0.1293 -0.0181
72606W        W15622   8.386  27.953  25.404 -0.0137  0.3710 -0.0958
72607W        W15623  30.384  32.533  21.780 -0.1430 -0.1413  0.3123
72608W        W15624  34.440   2.487  24.501  0.0554 -0.0628  0.0030
72609W        W15625  12.615   3.752  24.376  0.1107  0.0363  0.2266
72610W        W15626  28.180  32.928  25.630 -0.0521  0.0758 -0.0741
72611W        W15627  24.789  16.360  17.507 -0.2766  0.0328 -0.0893
72612W        W15628  16.970   9.792  15.665 -0.1579 -0.1974  0.1171
72613W        W15629   2.140  17.778  24.646 -0.3363 -0.1710 -0.0223
72614W        W15630   8.833  12.118  16.971  0.0403 -0.1450 -0.2534
72615W        W15631   9.273   5.686  26.068 -0.1805 -0.1903 -0.0753
72616W        W15632  24.887  12.632  20.709 -0.1683 -0.1410 -0.1417
72617W        W15633  15.838  15.466  25.682  0.0031  0.2593  0.1506
72618W        W15634  27.773   8.831  16.704  0.3679 -0.0832  0.0040
72619W        W15635  13.254   9.964  22.309 -0.3748  0.1867 -0.5747
72620W        W15636  20.301  31.325   0.095 -0.2104 -0.3938 -0.0612
72621W        W15637  27.850  17.030   0.218  0.0875  0.0111 -0.0631
72622W        W15638  17.054  20.546  12.756  0.2926  0.0510  0.2565
72623W        W15639  14.783  29.207  26.921 -0.0683  0.0981  0.3388
72624W        W15640  21.346   8.887  18.141  0.0478  0.1369 -0.2947
72625W        W15641  13.046   5.997  27.308  0.1084 -0.3515 -0.2079
72626W        W15642  22.531  29.463  18.047  0.1788 -0.2994  0.3475
72627W        W15643  23.199   0.061  28.157  0.0109  0.1726 -0.1757
72628W        W15644   8.731  16.322  14.840 -0.0276  0.2530 -0.3507
72629W        W15645  20.660  12.097  19.269 -0.1935 -0.3344 -0.0479
72630W        W15646  12.654  29.042  21.005 -0.2434 -0.2400 -0.2107
72631W        W15647   8.822   6.518  24.872 -0.0283  0.1756  0.1008
72632W        W15648   9.518  17.942  22.895  0.3551 -0.3568 -0.1431
72633W        W15649  29.186  15.165  13.799 -0.2338  0.1050  0.0091
72634W        W15650  31.448  28.178  23.268 -0.0793  0.1221 -0.1496
72635W        W15651   9.539   9.205  28.357 -0.0223 -0.2113 -0.0721
72636W        W15652  12.738   5.980   4.450 -0.0548 -0.0118 -0.0095
72637W        W15653   4.187  15.487  27.197  0.2521  0.2219 -0.0532
72638W        W15654  16.356  10.932  13.374  0.1218  0.1692 -0.0794
72639W        W15655  17.058  33.334  22.066 -0.0655  0.2201 -0.2605
72640W        W15656   8.719  23.333  24.407  0.4138  0.1835  0.2601
72641W        W15657  19.373  30.390  22.746  0.5277 -0.1905 -0.0948
72642W        W15658  29.787   9.303  10.270 -0.1125 -0.0772  0.0318
72643W        W15659  18.750  25.999  18.281  0.0145 -0.0193 -0.0054
72644W        W15660  22.979  21.751  19.459 -0.0591  0.2436  0.1098
72645W        W15661  21.898  19.841  17.611  0.0561 -0.0139  0.2035
72646W        W15662  18.048   3.829  24.318 -0.3396  0.0836 -0.0620
72647W        W15663  31.009  14.288  27.081  0.1992 -0.1959 -0.1339
72648W        W15664  17.008  17.698  15.972  0.1377  0.0539  0.2873
72649W        W15665   2.232   9.545  17.765  0.4826  0.0773  0.1805
72650W        W15666  25.194   5.297  19.890 -0.1322  0.4302  0.1599
72651W        W15667  19.963  34.776  15.798  0.1479  0.1440  0.4204
72652W        W15668  21.505   6.740  20.167  0.2444 -0.1820 -0.0062
72653W        W15669   3.567  32.123  23.073  0.0269  0.0579 -0.1423
72654W        W15670  18.594   1.798  17.924  0.1664 -0.1802 -0.3963
72655W        W15671  12.376   9.220  15.044 -0.0418 -0.1529 -0.2321
72656W        W15672  29.802  29.275  22.349  0.0448 -0.1669  0.0988
72657W        W15673  10.349  21.301  16.928 -0.1258 -0.1118 -0.1070
72658W        W15674  16.182   8.300  19.231  0.2015 -0.1462  0.1215
72659W        W15675  11.486   0.765  22.795 -0.1501 -0.0419  0.0797
72660W        W15676  26.990  29.132  18.208 -0.1120 -0.0082 -0.0838
72661W        W15677   7.034  32.246  18.767 -0.3886 -0.1202 -0.0825
72662W        W15678   4.142   4.559  15.870 -0.1308 -0.1520 -0.2308
72663W        W15679   8.103  19.062  15.545 -0.1075  0.0557 -0.0890
72664W        W15680  31.010   6.163  16.273  0.0109 -0.0329  0.0594
72665W        W15681  33.012  21.429  15.925  0.1824 -0.1222  0.0164
72666W        W15682   7.496  21.148  22.173  0.0417  0.0188  0.0665
72667W        W15683   6.446  14.415  22.421  0.0473 -0.1675 -0.1431
72668W        W15684  17.465  10.094   8.553  0.1063  0.1269 -0.0616
72669W        W15685  29.722  20.220  14.889  0.1244  0.0568 -0.2023
72670W        W15686   8.175   6.530  25.110  0.0254 -0.0060  0.1426
72671W        W15687  28.303  10.463  20.706 -0.2667  0.1265 -0.0222
72672W        W15688   7.705   8.071  15.530  0.0141  0.1558  0.2685
72673W        W15689  26.370   6.431  26.908  0.3268  0.0409 -0.3411
72674W        W15690  10.957   7.009  22.955 -0.2685  0.0829  0.2125
72675W        W15691  11.331   8.456  13.410 -0.1898 -0.3010  0.1419
72676W        W15692   5.185  24.094  16.667  0.0399 -0.1572 -0.1933
72677W        W15693   8.549  18.899  15.250  0.2815  0.0755  0.1150
72678W        W15694  10.348   4.715  21.627 -0.0729 -0.2681 -0.0994
72679W        W15695  16.562   4.198  18.990  0.0954 -0.1363  0.4242
72680W        W15696   9.507  25.480  27.384 -0.4132  0.1407  0.0006
72681W        W15697   6.957  14.157  13.953 -0.3072  0.3853 -0.2031
72682W        W15698   6.749  13.789  26.367 -0.1354  0.2403  0.4477
72683W        W15699  21.410  25.995  15.332 -0.0991 -0.1184  0.1554
72684W        W15700  29.856  26.009  17.344  0.1071  0.0534 -0.0102
72685W        W15701  14.609  11.228  17.060  0.1622 -0.0966  0.2217
72686W        W15702  28.688  10.246  15.340  0.0243 -0.0627  0.1128
72687W        W15703  22.448  17.978  23.810 -0.3317 -0.0316  0.1797
72688W        W15704   7.470   1.454  20.742 -0.0268  0.0934 -0.0127
72689W        W15705  25.154  16.464  20.622 -0.0765  0.0469 -0.2842
72690W        W15706  25.717  17.942  21.776  0.0528 -0.5750 -0.3740
72691W        W15707  20.365  14.703  15.433 -0.2383  0.0165  0.2116
72692W        W15708  22.468  13.330  19.591  0.2009 -0.0833  0.1671
72693W        W15709  24.943  14.083  16.663  0.2338 -0.4773 -0.0632
72694W        W15710  27.226  19.027  16.246  0.0475  0.3257  0.2534
72695W        W15711  14.933   4.883  16.344  0.3764  0.4445  0.2078
72696W        W15712  23.636   5.417  16.173 -0.3585 -0.0920 -0.2940
72697W        W15713   6.427  12.050  20.613 -0.4031  0.2655  0.1077
72698W        W15714  21.136  17.643  12.912  0.1580 -0.0052  0.2704
72699W        W15715   4.657  14.937  18.642  0.0565 -0.1101  0.2509
72700W        W15716   6.192  13.207  22.456 -0.0828 -0.1593  0.3265
72701W        W15717   6.942  16.901  14.793  0.0357 -0.2137 -0.1651
72702W        W15718  25.963  21.408  24.091 -0.1267 -0.0057  0.0329
72703W        W15719   2.737  20.859  20.776 -0.2031 -0.2495  0.1281
72704W        W15720  27.808  13.909  19.766 -0.0182 -0.0947 -0.0888
72705W        W15721  16.250  18.175  13.006  0.0884  0.1542 -0.1252
72706W        W15722  17.341  19.407  15.848 -0.2364  0.1703  0.2021
72707W        W15723   8.441  15.349   2.680  0.2441 -0.4239 -0.0920
72708W        W15724  21.148   3.122  19.182  0.1878  0.0793 -0.2733
72709W        W15725  22.274  24.919  16.806  0.0017  0.0663  0.1157
72710W        W15726  11.238   2.399  24.287  0.0247 -0.1287  0.3112
72711W        W15727  27.470   9.893  17.853 -0.0324  0.1226 -0.0815
72712W        W15728  13.182   7.478  15.995  0.0489 -0.1659 -0.1705
72713W        W15729  32.521  13.910  15.457 -0.1340 -0.2832 -0.0690
72714W        W15730   4.442   3.927   3.579  0.0860  0.0888  0.0217
72715W        W15731  16.552  15.588  26.019 -0.3237 -0.2556 -0.1594
72716W        W15732  23.295   8.409  17.951  0.0826 -0.0179  0.0569
72717W        W15733   2.539   7.446  15.750  0.3092 -0.0904 -0.4126
72718W        W15734  15.242  11.592  26.862 -0.0822 -0.2434 -0.0963
72719W        W15735  30.185  15.419  14.882  0.1631  0.0281  0.2031
72720W        W15736  24.081  24.940  17.042 -0.1212  0.2114  0.1155
72721W        W15737  23.326   4.175  16.731 -0.0666 -0.1193  0.0544
72722W        W15738   0.956   8.076  24.815 -0.0865  0.2722  0.0816
72723W        W15739  11.265   8.022  29.266  0.0331 -0.4526  0.2490
72724W        W15740  18.892  26.615  19.689  0.2536  0.0706  0.0684
72725W        W15741  18.843  12.791  20.471 -0.2696 -0.1772 -0.3137
72726W        W15742   6.640  11.812  18.136 -0.3375 -0.0482 -0.1225
72727W        W15743  28.867   5.405  23.433  0.1843 -0.0555 -0.0679
72728W        W15744  18.857  24.043  19.135 -0.1578 -0.1095 -0.1141
72729W        W15745  19.070   6.329  13.661 -0.0909  0.1549  0.1751
72730W        W15746   4.791   2.151  22.428 -0.2126 -0.0854  0.1879
72731W        W15747   5.547   9.895  15.764  0.1126  0.0112  0.0775
72732W        W15748   9.624  19.976  18.500  0.0759  0.0218  0.0802
72733W        W15749  17.527   7.842  19.234  0.0442 -0.2682 -0.3909
72734W        W15750  14.108  32.029  21.908  0.1111  0.2664 -0.1008
72735W        W15751   8.539  30.376  16.404  0.1363 -0.1565 -0.1423
72736W        W15752  16.940  21.121  16.513  0.0390 -0.0556 -0.0536
72737W        W15753  18.983  10.814  15.281 -0.2360 -0.0807  0.0243
72738W        W15754  20.710   4.770  24.815 -0.0647  0.1037  0.3663
72739W        W15755  24.624  17.539  18.021 -0.1097  0.4218  0.0800
72740W        W15756  16.112   1.072  14.165 -0.0120 -0.0228  0.0056
72741W        W15757   6.103  15.571  23.417 -0.1083  0.1235  0.3137
72742W        W15758   4.864  19.666  14.925  0.0066  0.3130 -0.1055
72743W        W15759  21.116  12.193  21.165  0.0378 -0.0120 -0.0159
72744W        W15760  10.632  27.041  14.285 -0.1460 -0.2470 -0.1634
72745W        W15761   0.422  14.062  18.125 -0.1921  0.0354 -0.1727
72746W        W15762  18.632  18.287  16.077  0.2228  0.1345  0.2004
72747W        W15763  28.384   4.017  15.480 -0.0474  0.2679  0.1451
72748W        W15764  17.266  17.231  11.938 -0.0050  0.0311 -0.2303
72749W        W15765  20.550  10.758  19.428 -0.4651 -0.1291  0.2637
72750W        W15766  13.259  33.422  24.666  0.0871  0.2436 -0.0415
72751W        W15767  25.612  21.957  22.466 -0.2652  0.1544  0.1996
72752W        W15768   5.675  20.699  15.824 -0.0377  0.2108 -0.1694
72753W        W15769   8.378  15.097  13.609  0.0596  0.2171  0.4092
72754W        W15770   1.715   7.662  14.087 -0.2153 -0.3391 -0.0702
72755W        W15771  19.143  22.390  25.935 -0.1119 -0.1313  0.1193
72756W        W15772  20.232  31.298  16.452  0.1761 -0.0879  0.1803
72757W        W15773   9.678   7.251   9.694 -0.0767  0.0889 -0.0653
72758W        W15774  17.511  10.939  15.445 -0.0426 -0.0713 -0.1394
72759W        W15775  34.021  25.488  18.399  0.0605 -0.0115  0.0107
72760W        W15776  29.020  29.505  19.270 -0.3357 -0.2097 -0.1995
72761W        W15777  26.960  14.278  18.821  0.0935 -0.0932 -0.2847
72762W        W15778   1.063  12.832   1.895 -0.0752 -0.2877  0.3750
72763W        W15779  14.408  23.062  24.234  0.2011 -0.5402 -0.0294
72764W        W15780   8.672   5.947  14.515 -0.1011  0.0384  0.1097
72765W        W15781   5.754   6.745  20.996 -0.0890 -0.0068  0.0574
72766W        W15782  20.031   9.269  21.004 -0.0639 -0.1644 -0.2835
72767W        W15783  21.027  22.252  18.655  0.2229 -0.0514 -0.0799
72768W        W15784  11.580  33.462  25.159 -0.3920  0.0859  0.3042
72769W        W15785   4.716  10.857  27.861  0.0481 -0.2340  0.0747
72770W        W15786   6.047  34.254  20.457 -0.0170 -0.2254  0.0729
72771W        W15787  14.073  10.669  14.260  0.0508  0.1752  0.3829
72772W        W15788   7.969  27.138   3.790  0.1494  0.0743  0.0371
72773W        W15789   4.090  20.503  20.614 -0.0862  0.0563  0.1411
72774W        W15790  34.619   0.653  26.419 -0.1613 -0.0892 -0.0106
72775W        W15791  27.351   7.824  25.933  0.2118  0.1652 -0.0140
72776W        W15792   1.426  13.336  21.815 -0.0678 -0.1905  0.2363
72777W        W15793  13.996  12.017  24.087 -0.0039  0.1979 -0.1233
72778W        W15794  20.899  12.667  18.052  0.0061  0.0763 -0.0013
72779W        W15795  23.744  18.641  13.449  0.1450 -0.2779 -0.0055
72780W        W15796  34.751  28.491  16.342  0.1299 -0.0133 -0.0439
72781W        W15797  19.043   8.183  15.918  0.0263  0.1383 -0.1126
72782W        W15798  20.086   9.851  15.311 -0.0085  0.1337  0.1707
72783W        W15799  10.319  10.149  22.311  0.0611  0.0487  0.2841
72784W        W15800   8.412   5.713  14.914  0.1977  0.0396 -0.5569
72785W        W15801  27.679   2.566  17.565 -0.3034 -0.1800  0.1576
72786W        W15802  16.665  22.799  20.622 -0.1835 -0.1134  0.3016
72787W        W15803  33.941  12.895  18.146  0.0322  0.0826 -0.0677
72788W        W15804   0.547   5.054  22.275  0.1543  0.1755  0.0766
72789W        W15805  24.706  34.018  15.348  0.3303  0.1918 -0.1176
72790W        W15806   4.782  33.684   1.877  0.3497 -0.0208 -0.3276
72791W        W15807  28.790   5.468  19.444 -0.4112  0.0300 -0.1829
72792W        W15808  19.463  27.394  18.285  0.0350  0.1772  0.0311
72793W        W15809  12.167  22.200  25.129 -0.2103  0.0002  0.0144
72794W        W15810  29.944  11.254  18.296  0.0423 -0.1483  0.5223
72795W        W15811  24.750  11.917  16.981  0.0375  0.2908 -0.1440
72796W        W15812  21.864  17.389  21.106 -0.1296  0.0682 -0.0710
72797W        W15813  26.791  34.027  17.246  0.4665  0.2209 -0.1155
72798W        W15814  14.512  32.398  27.947 -0.2353  0.1920 -0.1595
72799W        W15815  23.703   6.392  24.612 -0.1991  0.0474  0.2602
72800W        W15816  32.558   9.718  17.812 -0.0905 -0.0093  0.0574
72801W        W15817  13.941  24.283  26.556  0.2053 -0.1664  0.3748
72802W        W15818   8.712   2.684   9.959  0.0239 -0.0918 -0.2280
72803W        W15819  30.853  16.734   0.639 -0.2784  0.2776 -0.2714
72804W        W15820  12.156  27.197  14.942  0.0382 -0.2668 -0.0056
72805W        W15821  30.019  13.859  25.859 -0.1180  0.0255  0.0704
72806W        W15822   6.451   2.285   3.875  0.1224 -0.2615  0.0734
72807W        W15823  29.370  29.607   7.202 -0.0218  0.0631  0.1354
72808W        W15824  13.888  17.618  14.228  0.1044 -0.0194 -0.0810
72809W        W15825   6.276  22.199  18.816  0.0293 -0.2205 -0.0269
72810W        W15826  10.460  26.941  20.210  0.0272  0.0092 -0.0650
72811W        W15827   9.038   0.645   5.353  0.1289 -0.0364  0.4521
72812W        W15828  32.996  11.254  15.389 -0.1990  0.4679  0.0467
72813W        W15829  14.528  14.573   3.495  0.2604 -0.1744 -0.2682
72814W        W15830  11.808  16.388  26.934  0.1460 -0.0111  0.0355
72815W        W15831   7.159  25.047  19.738  0.1689  0.0586 -0.1161
72816W        W15832  15.342   6.317  14.449  0.0185  0.1561  0.1541
72817W        W15833  17.158   5.922  18.551  0.3945 -0.2666  0.1484
72818W        W15834  13.152  24.777   1.487  0.1181 -0.1114 -0.0838
72819W        W15835   5.848  21.237  20.894 -0.2672 -0.3439 -0.0789
72820W        W15836  25.636   7.105  23.224  0.2287 -0.1261  0.0075
72821W        W15837  19.352   8.994  26.719 -0.0916 -0.2908 -0.2816
72822W        W15838  14.216  23.232  18.086  0.3279  0.1486  0.2050
72823W        W15839   8.639  27.981  17.910  0.1028  0.1347 -0.2480
72824W        W15840  12.844  31.340  17.043  0.3474  0.2435  0.3400
72825W        W15841  14.498  19.230  15.972 -0.3670  0.1140  0.1190
72826W        W15842  22.874  21.823  16.211  0.3330 -0.1670 -0.2160
72827W        W15843  20.704  10.449  22.008  0.0549 -0.0129  0.0923
72828W        W15844   8.313  11.329  17.201 -0.2322  0.1621  0.2293
72829W        W15845  12.857  13.138  19.166 -0.0894 -0.1455 -0.0991
72830W        W15846  19.633  14.954  15.030  0.0060  0.1121  0.1473
72831W        W15847  17.803  10.801  19.975  0.0855 -0.4852  0.1876
72832W        W15848   5.268  10.702  25.943  0.0877  0.0893 -0.0571
72833W        W15849  14.766  14.198  14.683 -0.0871 -0.0309  0.1127
72834W        W15850  24.076  15.488  24.100 -0.1827  0.0418 -0.1447
72835W        W15851   3.916   4.458  20.680  0.2095 -0.0624 -0.4788
72836W        W15852  13.590  15.639   0.286 -0.2110 -0.1119 -0.0323
72837W        W15853  13.235   8.257   0.325  0.0026  0.0555 -0.2527
72838W        W15854  19.159  16.104  11.139  0.2569  0.1148 -0.2862
72839W        W15855  17.867  27.097   9.956  0.0834  0.2093  0.1088
72840W        W15856  19.721  26.220  26.947  0.0195  0.3447 -0.1948
72841W        W15857  17.596  28.054   2.983  0.0993 -0.0444 -0.2650
72842W        W15858   0.022  19.172   2.543  0.1546  0.1779  0.1619
72843W        W15859   7.888   8.572   8.567  0.3994  0.1831  0.0707
72844W        W15860  25.001  32.003  15.843 -0.0739 -0.0956 -0.2677
72845W        W15861  16.742   5.033  13.660  0.1544  0.2249 -0.0275
72846W        W15862  24.078  14.493  23.933  0.0301 -0.2256 -0.1616
72847W        W15863  29.509  20.136  19.863 -0.0223  0.2287  0.1476
72848W        W15864  32.982  11.753  16.951  0.1557  0.2665  0.1681
72849W        W15865  24.041  27.011  15.993  0.1415  0.1501 -0.0028
72850W        W15866   1.365  32.840  20.612  0.2003 -0.2712  0.0681
72851W        W15867   5.992  10.055  21.826  0.0627 -0.2145  0.3005
72852W        W15868  14.393   9.651  18.004  0.0212  0.2948 -0.0184
72853W        W15869  17.039  11.177  22.183  0.1182  0.2523  0.1681
72854W        W15870  22.614   3.253  15.719  0.0508  0.1670  0.2126
72855W        W15871  17.579  15.686  11.579  0.0217  0.0007 -0.0567
72856W        W15872   8.667   5.976  15.782 -0.0585 -0.0893  0.3065
72857W        W15873  25.450   5.408   8.853  0.1125 -0.0326 -0.0229
72858W        W15874  28.894  10.368  14.501  0.0780  0.3581  0.3126
72859W        W15875  18.755   5.211  16.555  0.1013 -0.2682  0.1618
72860W        W15876  19.325   4.849  20.247 -0.1663  0.1907 -0.3573
72861W        W15877  25.817  20.897  24.146 -0.0273  0.1118  0.1340
72862W        W15878  21.378  16.349  22.961  0.2095 -0.3190 -0.2793
72863W        W15879  20.247  34.625  19.923  0.0717 -0.2727  0.1395
72864W        W15880  16.525  22.117  15.844  0.0918 -0.1562  0.2122
72865W        W15881  22.463   4.342  16.426  0.0582 -0.2501 -0.1106
72866W        W15882  22.327   7.385  16.132 -0.0598 -0.0431 -0.2671
72867W        W15883   4.953   4.761  19.121 -0.0324  0.1941 -0.2034
72868W        W15884  10.696  24.630  14.644  0.1629 -0.1814 -0.1157
72869W        W15885  20.701   8.254  18.561 -0.2975 -0.0829  0.0360
72870W        W15886  13.700   7.562  28.836  0.0727  0.0236 -0.3528
72871W        W15887  19.361  26.702   4.375 -0.2699 -0.2750 -0.1039
72872W        W15888  21.382   6.826  28.699  0.0871 -0.1023  0.0778
72873W        W15889  23.481  11.389   6.386 -0.3136  0.1633 -0.1828
72874W        W15890  12.200   8.288  24.629 -0.4768 -0.1824  0.0490
72875W        W15891  34.683   5.395  20.821  0.7586 -0.1937  0.2176
72876W        W15892   5.590   4.222  22.264 -0.3902 -0.1263  0.0527
72877W        W15893   5.161   3.024  23.010 -0.1153  0.7568  0.2148
72878W        W15894   6.375  19.609  22.273  0.0417  0.0679 -0.2278
72879W        W15895  18.113   6.831  21.787 -0.1320 -0.2412 -0.1883
72880W        W15896  24.779   5.171  25.538 -0.0729  0.0425 -0.0053
72881W        W15897  14.785  12.614  24.991 -0.1321 -0.2518  0.1597
72882W        W15898  12.173   5.047  14.975 -0.0247 -0.2462  0.2476
72883W        W15899  17.261  12.897   3.068  0.0878  0.0908 -0.2120
72884W        W15900   4.083  16.987   1.974 -0.2478 -0.1313 -0.1653
72885W        W15901   4.071  31.923  14.767 -0.0716  0.2928  0.0970
72886W        W15902  30.296  15.319  17.350  0.1070 -0.1221 -0.1607
72887W        W15903  22.560   5.736  16.189  0.0130 -0.1104 -0.1060
72888W        W15904  22.646   1.092  21.649  0.2187  0.1273  0.0561
72889W        W15905   6.877   9.137  28.277 -0.3280 -0.2422  0.0092
72890W        W15906  21.508  20.933  26.199 -0.3787 -0.3079  0.0689
72891W        W15907  21.827  18.595  14.213  0.2290  0.0900  0.2340
72892W        W15908   9.126   4.863  19.430  0.1273 -0.2788 -0.1423
72893W        W15909  22.420  28.215  19.787 -0.4766  0.0724 -0.1433
72894W        W15910  31.244   6.204   0.051  0.0258 -0.2400  0.0888
72895W        W15911   0.550   2.607  21.476 -0.0887 -0.2020 -0.0457
72896W        W15912  19.872   8.578  16.354  0.2088  0.0821 -0.1017
72897W        W15913  26.087   9.947  19.420 -0.0711 -0.1489 -0.1272
72898W        W15914  17.661  10.869   2.787 -0.0715 -0.0833 -0.3353
72899W        W15915   5.121  17.625  16.759 -0.0037  0.2165 -0.1094
72900W        W15916  34.516  13.417  28.839 -0.1202 -0.0215 -0.1428
72901W        W15917  10.172  19.660  24.098 -0.1410 -0.0972  0.4389
72902W        W15918  28.480  15.436  17.027  0.0472  0.1020 -0.0568
72903W        W15919  22.327  13.082  18.707  0.0897 -0.1692  0.0047
72904W        W15920  25.526  11.088  14.233  0.0420 -0.0479  0.2738
72905W        W15921  20.537  16.986  14.403 -0.3007  0.0069 -0.1028
72906W        W15922  22.374  10.823  23.060 -0.1825  0.0090 -0.1814
72907W        W15923  26.633  20.564  20.060  0.3787  0.3584 -0.1917
72908W        W15924  18.466   2.798  16.826  0.1547  0.1082 -0.0771
72909W        W15925  26.447  19.259  19.178  0.1592  0.1066  0.0828
72910W        W15926  19.532  29.018  18.944 -0.2322  0.2004 -0.1021
72911W        W15927  20.007   6.092  18.109 -0.1927 -0.1737  0.1245
72912W        W15928   9.977  16.351  23.126 -0.1296  0.1854 -0.3960
72913W        W15929  19.670  29.079  16.073  0.0728  0.3372 -0.1586
72914W        W15930  29.151   9.648  22.151  0.2297 -0.0785  0.0885
72915W        W15931  11.724  25.662  22.623  0.3544  0.0038  0.2322
72916W        W15932  13.995   3.450   9.858  0.0296 -0.0906  0.0657
72917W        W15933  25.316  33.963  27.938 -0.3325 -0.3072 -0.0527
72918W        W15934  15.506   7.762  22.860  0.0580  0.0419 -0.0356
72919W        W15935   9.932   9.817  15.480 -0.1215 -0.0399  0.0805
72920W        W15936  19.609   5.826  16.285 -0.2885  0.2218 -0.0466
72921W        W15937  16.137  28.082   6.406 -0.1716  0.2605 -0.0077
72922W        W15938  31.732   8.841  22.750 -0.1222  0.0486  0.0534
72923W        W15939  21.550  12.705  13.788 -0.0779  0.0026 -0.0904
72924W        W15940  18.832  33.858  15.854  0.0019 -0.1153  0.0225
72925W        W15941  32.851  28.837  20.632 -0.2060 -0.4545  0.0220
72926W        W15942  14.804   4.524  17.856 -0.1266  0.0291 -0.1457
72927W        W15943  31.418   9.444  15.850 -0.1309  0.2141 -0.0899
72928W        W15944  17.499  34.600   6.670  0.0783  0.0885 -0.0782
72929W        W15945  19.602  21.500  21.411 -0.0702  0.1512 -0.1101
72930W        W15946  17.526   3.652  17.326  0.0655 -0.0803 -0.0292
72931W        W15947  25.567  13.174  20.016  0.3099 -0.4247 -0.1499
72932W        W15948   0.975   2.271   5.452  0.1516 -0.0779 -0.0638
72933W        W15949  29.553  18.678  18.010 -0.0188  0.0136  0.5234
72934W        W15950  12.452   4.057   3.034 -0.0475  0.4281  0.0338
72935W        W15951  12.470  18.095  12.503  0.1236 -0.0549  0.0091
72936W        W15952  17.711   4.398  16.220 -0.1753  0.1712  0.1269
72937W        W15953  26.146  11.836  26.980  0.0075 -0.1079  0.3063
72938W        W15954   9.418  22.705  24.945 -0.1018 -0.1585 -0.0699
72939W        W15955   3.054  24.101   1.529 -0.0884  0.1875  0.1221
72940W        W15956   0.833  16.598  26.246  0.2246 -0.0094 -0.0949
72941W        W15957  12.099   8.934  14.729 -0.0003  0.1624 -0.1128
72942W        W15958  12.371   7.150  14.739  0.1646  0.0133 -0.0250
72943W        W15959   1.914   3.033  16.213 -0.3274 -0.1559  0.1006
72944W        W15960  17.889   2.000  22.400 -0.1955  0.2574 -0.1079
72945W        W15961  18.941   7.614  27.176  0.0795  0.1690  0.0350
72946W        W15962   5.606   0.453  16.575 -0.1883 -0.2614 -0.1755
72947W        W15963  16.126   4.003  15.366 -0.1273  0.2639  0.1244
72948W        W15964   7.579   7.585  22.968 -0.1697 -0.0374 -0.0389
72949W        W15965  29.820  22.603  16.169 -0.1385 -0.0057 -0.1756
72950W        W15966  17.184  24.854  14.743 -0.1405  0.1368 -0.3364
72951W        W15967  33.216  18.789  17.796 -0.0261 -0.0328  0.1773
72952W        W15968  18.461  32.302   1.184 -0.0190 -0.2095 -0.2223
72953W        W15969   6.334   7.765  14.443 -0.0138  0.0775 -0.0653
72954W        W15970  11.921  11.014   2.495 -0.2952  0.1500  0.3590
72955W        W15971  16.722  14.784  26.794  0.0249 -0.1537 -0.0285
72956W        W15972  14.975  21.514  22.235  0.0807 -0.0498 -0.4235
72957W        W15973  12.415  28.830  23.374  0.2516  0.1988 -0.1753
72958W        W15974  24.200  12.361  19.543  0.2806 -0.2090 -0.1832
72959W        W15975  29.487   9.232  26.758  0.2279 -0.1227  0.0467
72960W        W15976  30.099  14.939  14.668  0.2350  0.0419  0.2494
72961W        W15977  21.183   9.260   1.415  0.1260 -0.0863  0.1331
72962W        W15978  12.524   5.204  21.919 -0.1119  0.2830 -0.0232
72963W        W15979   9.029  18.467  21.841  0.2083 -0.1515  0.3375
72964W        W15980  29.244  13.676  21.425  0.2977  0.0144  0.0960
72965W        W15981  11.322  22.256  16.510 -0.0247 -0.2295  0.1518
72966W        W15982  23.401  14.163  16.783 -0.0927  0.1959 -0.2492
72967W        W15983  15.092  26.445  19.682 -0.3137 -0.1457  0.1977
72968W        W15984   2.946   5.102  25.819 -0.1863 -0.2469 -0.0645
72969W        W15985  12.190  14.796   1.713  0.1010 -0.5414  0.0227
72970W        W15986  33.184  24.818  19.585 -0.4674  0.2959  0.2354
72971W        W15987   7.965   8.717  25.091  0.1874  0.2339 -0.0284
72972W        W15988   4.672   0.762  16.289 -0.0258  0.2777  0.0638
72973W        W15989   8.520  12.942  14.952 -0.2731 -0.1218  0.1862
72974W        W15990  10.870  32.401   3.201 -0.4478 -0.0180  0.0830
72975W        W15991  17.511  14.651  20.007  0.1751  0.0071  0.1126
72976W        W15992  12.323  11.627  28.441  0.0131 -0.1901  0.0408
72977W        W15993  30.616  33.745   4.296 -0.0303  0.1451 -0.1598
72978W        W15994  28.331   7.562  27.609  0.2687 -0.1598  0.0201
72979W        W15995  19.554  14.657  11.731  0.0807 -0.1160  0.2281
72980W        W15996  15.077   6.019   7.393  0.1163  0.1349  0.1847
72981W        W15997  11.859   9.397  14.267  0.2568  0.2083 -0.0527
72982W        W15998  20.822   4.191  29.072  0.0701 -0.2604 -0.2492
72983W        W15999  22.558  26.905  22.315 -0.1227  0.0228 -0.2733
72984W        W16000   5.330  14.218  15.313  0.1110 -0.0634 -0.1689
72985W        W16001  13.442  15.200  13.963 -0.0393 -0.1635 -0.2196
72986W        W16002  34.549  10.147   2.968 -0.1295 -0.0038  0.1687
72987W        W16003   2.186   0.317  19.115  0.4798  0.1063 -0.0969
72988W        W16004  15.964   7.841  15.701  0.0901  0.0086  0.1191
72989W        W16005  15.298   3.702  20.312  0.1365  0.0240  0.0502
72990W        W16006  12.233   8.649  19.993 -0.2428 -0.1886 -0.1301
72991W        W16007  21.626  13.864  14.719 -0.1438  0.2637  0.0254
72992W        W16008  13.528   8.539  22.432 -0.3477  0.1064  0.2408
72993W        W16009  12.329   5.031  25.997  0.2918  0.0222 -0.0140
72994W        W16010  13.599  28.209  13.167 -0.1306  0.0768  0.1149
72995W        W16011  29.252   5.602  19.671 -0.1332  0.0947  0.0149
72996W        W16012  29.898  20.322  20.696 -0.2912 -0.1484  0.1232
72997W        W16013  32.078  10.000  24.670 -0.1241 -0.1318 -0.1091
72998W        W16014   1.576  29.110  16.822  0.8213  0.2059  0.0778
72999W        W16015  19.157  23.225  17.666  0.0985  0.0332 -0.1987
73000W        W16016   4.462   8.721  27.963  0.1318  0.0295  0.1491
73001W        W16017  14.924   5.643   5.745  0.1867  0.1088  0.0052
73002W        W16018   9.895   1.164  14.938  0.1683 -0.0360 -0.0425
73003W        W16019  27.204  14.056  21.259  0.2283 -0.3840 -0.0084
73004W        W16020   0.462  16.370  20.584  0.2023 -0.0642 -0.2668
73005W        W16021  14.150  34.227  25.187  0.0725 -0.1166  0.1988
73006W        W16022  19.370  21.985  21.338 -0.2126 -0.0369 -0.0775
73007W        W16023   2.686   0.399  23.195 -0.1296  0.1004  0.0344
73008W        W16024  26.091  13.019  16.135 -0.0266  0.0378  0.1469
73009W        W16025  13.010   0.129   3.235  0.0019  0.0533  0.2024
73010W        W16026  14.247  12.198  18.805 -0.1348  0.0867  0.0622
73011W        W16027  29.383   9.898  19.615  0.0559  0.1290  0.0298
73012W        W16028  23.254  26.324   2.637 -0.0650  0.3930  0.1558
73013W        W16029  10.256  33.599  22.844  0.0450  0.1346 -0.1435
73014W        W16030  32.249  12.968  25.478  0.0828 -0.1561  0.0856
73015W        W16031   6.476  16.201  13.184 -0.0994 -0.0335  0.0300
73016W        W16032  33.138  28.282  26.522 -0.0440  0.4882  0.2820
73017W        W16033  31.889  21.157  22.460  0.0811 -0.3355  0.0007
73018W        W16034   2.629  10.638  24.636  0.2290  0.1715  0.0154
73019W        W16035  27.960  13.254  25.583  0.1438  0.2048 -0.0514
73020W        W16036   8.044  29.390  15.023 -0.0452 -0.0827 -0.1016
73021W        W16037  21.565   9.497   6.774 -0.0449  0.1408 -0.3620
73022W        W16038  21.072   9.337  15.648 -0.2557 -0.3623 -0.0274
73023W        W16039   8.787  33.348  17.074 -0.0359 -0.0420  0.1299
73024W        W16040  25.200  16.312   6.574 -0.0027 -0.2218  0.1559
73025W        W16041  14.474  12.815   2.357  0.1336  0.0492 -0.1835
73026W        W16042   8.856   7.271  19.646  0.1053  0.1180  0.0289
73027W        W16043  16.100  11.772  18.566  0.0228  0.2592 -0.1169
73028W        W16044  26.643  16.871   6.361  0.0626  0.0585  0.1717
73029W        W16045   5.057   3.734  18.140  0.2379 -0.0468  0.0915
73030W        W16046  18.935  14.686  14.513  0.0381  0.2465  0.0329
73031W        W16047  14.405  26.033  16.811  0.1824 -0.3047 -0.1804
73032W        W16048  16.543  16.488  12.017 -0.0637 -0.0953  0.4496
73033W        W16049  32.363  15.160  28.946  0.1001 -0.1132  0.2295
73034W        W16050  17.968  11.462  17.558 -0.1896 -0.1282  0.3108
73035W        W16051  16.456  15.417  12.111 -0.1526 -0.0905  0.1725
73036W        W16052  19.395   6.827  14.324  0.1540 -0.2113  0.1684
73037W        W16053   2.739   3.953  25.682 -0.3549 -0.1108 -0.0334
73038W        W16054  29.914   5.313  24.763 -0.1555  0.5666  0.0336
73039W        W16055   8.406  20.732  27.841  0.1069  0.3349  0.1064
73040W        W16056  33.420   6.088  21.127 -0.0881  0.0355  0.0316
73041W        W16057  17.131  10.597   5.787 -0.1025  0.0749 -0.1413
73042W        W16058   2.739  16.460  24.993 -0.2286  0.0412 -0.3310
73043W        W16059  16.054  17.551  26.481  0.0257 -0.2593 -0.2931
73044W        W16060  27.472  27.379   8.756  0.0782  0.0367 -0.0895
73045W        W16061  24.996   9.972  20.272 -0.0773 -0.1291 -0.2427
73046W        W16062  21.328  17.692   8.608 -0.1260  0.3068 -0.0766
73047W        W16063  25.284  22.543  15.855  0.3267  0.0995 -0.1981
73048W        W16064   7.800   7.885  18.502 -0.1230 -0.0212  0.1928
73049W        W16065   2.410  13.616  26.927 -0.0640 -0.0172 -0.2077
73050W        W16066  21.404  31.250  18.138  0.0970 -0.0769  0.1316
73051W        W16067   5.525  10.237  25.993  0.1169 -0.3581 -0.1883
73052W        W16068  30.484   6.227  18.560  0.1874 -0.0925  0.0288
73053W        W16069  19.358  17.890  11.684  0.0473 -0.0727  0.1038
73054W        W16070  12.135   1.266  23.219 -0.1199  0.1114  0.0214
73055W        W16071  16.608   4.805  17.043 -0.1022  0.2184  0.2636
73056W        W16072  29.810  25.745  26.252  0.1044  0.1151  0.1841
73057W        W16073  30.420  23.234  25.678  0.0082  0.1379 -0.1133
73058W        W16074  15.786  27.660   2.418 -0.0882 -0.1527  0.2494
73059W        W16075  12.439  14.314  17.889 -0.0889  0.3647 -0.1350
73060W        W16076  18.204  19.469  15.691 -0.0463  0.1772  0.1299
73061W        W16077  19.176  10.023   8.088  0.0252  0.1036  0.2099
73062W        W16078   4.071  15.437  23.441  0.3627 -0.2305  0.0119
73063W        W16079  13.784   5.751  19.229 -0.3242 -0.1360 -0.1378
73064W        W16080  15.842  25.543  15.399 -0.1619 -0.2428 -0.1379
73065W        W16081  16.895  31.605  25.064  0.0240 -0.0357 -0.2167
73066W        W16082  26.594   7.108  20.345 -0.1163  0.2051 -0.0083
73067W        W16083  16.482   3.462   4.714  0.0654  0.0163 -0.5065
73068W        W16084  25.867   1.650  21.311 -0.1779  0.1603 -0.2974
73069W        W16085  20.015  26.661  15.578  0.1886 -0.0593 -0.0035
73070W        W16086  15.061   9.858  14.936  0.1984  0.0858 -0.4315
73071W        W16087   8.139  17.281  22.240  0.0223 -0.3519 -0.1970
73072W        W16088  32.899  17.333  16.890  0.0934  0.0467  0.1180
73073W        W16089   0.256   6.271   2.410 -0.1864 -0.0119 -0.2303
73074W        W16090   7.804   8.239  16.435 -0.2260  0.1599 -0.0605
73075W        W16091  18.533  33.652  16.829 -0.0256  0.0630  0.0402
73076W        W16092   3.036   0.652  20.804  0.0617  0.1333  0.0419
73077W        W16093  15.574   8.886  22.149 -0.0435 -0.1634  0.3208
73078W        W16094  11.310  28.851  19.037  0.1826  0.1837 -0.0095
73079W        W16095  14.158   8.101  19.151 -0.3314 -0.1697 -0.0026
73080W        W16096  13.908  22.821  15.794 -0.2099 -0.0010  0.3230
73081W        W16097  20.505   9.238  15.896  0.1617 -0.2741 -0.1981
73082W        W16098  20.116   0.604  16.934 -0.3700 -0.1588 -0.2250
73083W        W16099   0.991  27.173  24.616 -0.3859  0.0618  0.2534
73084W        W16100  29.612   7.080  27.670 -0.3883 -0.0689  0.1001
73085W        W16101   7.623  15.184  15.553  0.0926  0.5429  0.0533
73086W        W16102  33.028  18.176  16.334 -0.0619 -0.1709  0.2116
73087W        W16103  21.668  25.519   2.453  0.2852  0.0552 -0.1512
73088W        W16104  20.960  20.629  22.493 -0.1655  0.0476 -0.1834
73089W        W16105  22.141   8.994  14.901  0.1710 -0.3643  0.0819
73090W        W16106  13.427  11.506  27.316  0.0170 -0.1246  0.0379
73091W        W16107  27.395  17.164   1.401 -0.0749  0.0794 -0.1235
73092W        W16108  14.152   0.874  17.705  0.1746 -0.1300 -0.0028
73093W        W16109   3.683   9.510  25.738 -0.2005 -0.0850 -0.1769
73094W        W16110  21.710  11.887  20.398  0.0502  0.2424  0.0281
73095W        W16111   9.722  33.933  17.708  0.2124  0.0864  0.0242
73096W        W16112  14.464   8.482  24.837  0.0170  0.2650  0.2481
73097W        W16113   8.990  22.000  17.166 -0.3883 -0.1635 -0.1580
73098W        W16114   8.728  20.117  23.290  0.0697 -0.3482  0.0520
73099W        W16115  20.458   8.589  22.264 -0.0470 -0.1930 -0.0361
73100W        W16116  10.800  24.492  22.370  0.4492 -0.1336  0.0922
73101W        W16117  12.853  11.714  28.619  0.0070 -0.1339 -0.0191
73102W        W16118   8.772   6.711  19.439  0.4504  0.1639  0.1224
73103W        W16119  19.019  22.154  17.660 -0.2793  0.0555 -0.1501
73104W        W16120   9.794   3.070  19.443 -0.0435 -0.1823  0.1608
73105W        W16121  11.044  11.924  29.165  0.1243 -0.0838 -0.0925
73106W        W16122   9.752  19.888  12.450 -0.2764 -0.1827 -0.1839
73107W        W16123  26.987  16.188   2.250 -0.0115 -0.0395  0.0130
73108W        W16124  22.554  33.567  18.845 -0.1696 -0.0160 -0.1104
73109W        W16125   8.396  10.726  14.436 -0.0927  0.0972 -0.0774
73110W        W16126   2.300   0.078  23.292 -0.1000 -0.1197  0.2257
73111W        W16127  15.340   8.769  18.124  0.0384  0.0267  0.1285
73112W        W16128  11.851  22.150  16.196  0.2182  0.2090 -0.0600
73113W        W16129  17.800   4.735  24.847 -0.1216 -0.1765 -0.0388
73114W        W16130  25.838   9.496  23.504  0.0254  0.0581 -0.2505
73115W        W16131  14.563   0.155  15.232  0.1812 -0.0927  0.1123
73116W        W16132  26.000  12.886  16.885  0.0393  0.1193 -0.1222
73117W        W16133  25.186  12.234  21.154 -0.3911 -0.0592  0.0341
73118W        W16134  22.308  12.983  14.033 -0.2201 -0.0517 -0.0338
73119W        W16135  22.231  30.784  29.022 -0.0815 -0.0422  0.0316
73120W        W16136   8.310  23.406  25.437  0.1436 -0.0909 -0.2263
73121W        W16137   9.064  26.549  23.131  0.1287 -0.0960 -0.2877
73122W        W16138  19.588  24.325  19.805 -0.3090  0.3636  0.1754
73123W        W16139  32.598  21.070  26.137  0.1689  0.0433 -0.2247
73124W        W16140  32.411  13.899   3.821 -0.0748  0.0761  0.0497
73125W        W16141  29.912  14.524  19.345 -0.1275 -0.2641 -0.1109
73126W        W16142  19.175  10.522  20.241  0.0773  0.1079  0.0934
73127W        W16143  13.051  26.816  14.795 -0.0945  0.2809  0.0667
73128W        W16144  27.109  24.265  25.709 -0.0012 -0.3225  0.0457
73129W        W16145   4.877  13.745  19.402 -0.1100 -0.0229 -0.1450
73130W        W16146  12.897   8.686  16.066 -0.2384  0.2922  0.1470
73131W        W16147  18.218   9.480  22.052 -0.3574  0.0222 -0.2163
73132W        W16148  13.102  10.505  16.824 -0.1068  0.1264 -0.3217
73133W        W16149  24.890  10.687  20.621  0.1947 -0.1792  0.1437
73134W        W16150  19.513   8.144  19.505 -0.1952  0.1399  0.0713
73135W        W16151  12.168  25.913  26.053 -0.2874  0.1638 -0.0457
73136W        W16152   4.056  17.945  24.820 -0.1723  0.0878  0.1613
73137W        W16153  17.281   9.281  18.121  0.1873  0.0809 -0.2032
73138W        W16154  15.936   2.884  18.664 -0.0750  0.0874  0.1372
73139W        W16155  11.106   3.650   7.173  0.2571 -0.0665 -0.1242
73140W        W16156  14.404  10.421  16.134  0.0864 -0.2904 -0.0280
73141W        W16157   9.472  11.844  20.422  0.2194  0.2275  0.5219
73142W        W16158  17.268   2.168  16.874 -0.5947 -0.1208 -0.1023
73143W        W16159  16.846   5.320  27.834 -0.3063  0.2772  0.1262
73144W        W16160  14.029  22.750  19.573 -0.1946 -0.1407 -0.1467
73145W        W16161  31.663  18.878  27.818 -0.3364 -0.0615  0.0076
73146W        W16162  14.530  15.430  15.072  0.0605 -0.0514 -0.4301
73147W        W16163  19.806  34.609  17.132  0.3813  0.0118  0.0121
73148W        W16164  23.030  24.251  16.859  0.3087  0.0481  0.1291
73149W        W16165   8.018  15.215  16.263  0.2497 -0.1028  0.1964
73150W        W16166  20.728   8.751  20.084  0.0699 -0.1960 -0.0864
73151W        W16167   9.212  18.497  15.740  0.0674 -0.0265  0.0310
73152W        W16168  15.954  16.496  14.283 -0.1538 -0.1351  0.1559
73153W        W16169   5.896   1.762  17.427 -0.2015 -0.0135  0.0695
73154W        W16170  16.696  25.378  25.252  0.2375  0.2247 -0.3416
73155W        W16171  17.056  30.424  19.116 -0.1183 -0.1459  0.1115
73156W        W16172  29.268  31.191  25.215  0.2372  0.0879  0.0724
73157W        W16173   2.741   4.060  24.327 -0.1937  0.4142  0.0629
73158W        W16174   7.321   7.986  17.092  0.0631  0.0252 -0.2507
73159W        W16175   6.337  22.452   2.391 -0.3488 -0.1164  0.5196
73160W        W16176  22.442  10.443  19.150 -0.0295 -0.0720  0.2483
73161W        W16177  18.508  22.303   2.141  0.1501 -0.0780  0.0578
73162W        W16178  11.082   3.289  21.715  0.0244 -0.0394  0.0400
73163W        W16179  12.140   6.546  22.345 -0.1764 -0.1627 -0.3093
73164W        W16180  32.799  15.246  18.680 -0.2748 -0.1832 -0.2749
73165W        W16181   6.356  30.569   3.424  0.3980 -0.0050 -0.0766
73166W        W16182  20.728  30.989  23.701 -0.2776  0.0027  0.0047
73167W        W16183   1.197  30.713   8.068  0.0116 -0.0325 -0.1468
73168W        W16184  14.157  32.854  26.029  0.0537  0.1625 -0.0345
73169W        W16185  12.370  20.636  20.921 -0.1656  0.0561 -0.2725
73170W        W16186   4.274  19.777  17.195 -0.1656 -0.1788 -0.2940
73171W        W16187   2.591   6.809  29.067  0.0793  0.2143 -0.2749
73172W        W16188  25.552  15.705  19.746  0.1471  0.0884 -0.0145
73173W        W16189  16.206  10.900  20.490  0.0280 -0.1688 -0.1839
73174W        W16190  11.201  14.151  19.267  0.0001  0.2793 -0.1015
73175W        W16191  15.918  13.574   7.838 -0.0148 -0.0914  0.1192
73176W        W16192   6.111  10.795  20.640 -0.2500  0.2085  0.3701
73177W        W16193  25.134   6.539  24.321  0.1072  0.1413  0.0603
73178W        W16194  17.104  21.755  17.208  0.0019  0.0670 -0.0369
73179W        W16195  33.376   2.942  28.222 -0.2210 -0.3041 -0.0433
73180W        W16196  12.631   5.375  28.821  0.2146 -0.5270  0.0154
73181W        W16197  15.074  17.658  22.027  0.0123  0.0585  0.0434
73182W        W16198  10.084  29.727  25.144  0.0580  0.1105  0.0231
73183W        W16199  17.279  11.107  12.326  0.0823 -0.1977  0.2334
73184W        W16200  16.629   3.297  15.219  0.1500  0.0759  0.2243
73185W        W16201   2.609  28.016  24.886 -0.1188 -0.3012  0.0405
73186W        W16202  14.597  25.638   2.400  0.2337 -0.2998 -0.3890
73187W        W16203   9.786  19.631  15.550 -0.0234 -0.2114  0.1468
73188W        W16204  12.219  16.309  26.016 -0.1282  0.1636 -0.0915
73189W        W16205  15.823   3.021   5.485  0.1917 -0.0737  0.0676
73190W        W16206   4.045   2.635  22.376  0.2767 -0.4458 -0.1127
73191W        W16207  16.904  16.742  18.900  0.3522  0.2514 -0.2118
73192W        W16208  22.124  18.482  15.030 -0.1397 -0.0729  0.2497
73193W        W16209  16.008  19.510  28.101 -0.2119  0.1482 -0.0167
73194W        W16210  21.700  23.588   2.206  0.0498 -0.2747 -0.1432
73195W        W16211  11.426   4.530  23.798 -0.2199 -0.0595  0.2251
73196W        W16212  29.287   2.770  22.790 -0.2763  0.0798 -0.2887
73197W        W16213   9.591  30.597  20.983  0.0104  0.0439 -0.0532
73198W        W16214  17.753   4.422   6.756  0.0348 -0.1118  0.4832
73199W        W16215   6.793   4.954   2.622  0.3374 -0.1362  0.3773
73200W        W16216  13.685   8.713  17.427  0.1120 -0.0745 -0.2902
73201W        W16217  12.455  21.052   4.391 -0.2325 -0.4577  0.0605
73202W        W16218  33.287   1.597  28.115  0.2026  0.2299  0.1250
73203W        W16219  30.431  18.422   2.251  0.1347 -0.0338 -0.0765
73204W        W16220  30.703  18.226   9.747  0.1505 -0.1820  0.0554
73205W        W16221  29.772  23.925   8.326 -0.2432 -0.2077  0.0963
73206W        W16222   6.057  18.497  28.309 -0.1991 -0.1681 -0.1335
73207W        W16223  26.347  12.442   4.391 -0.0571 -0.0987  0.1211
73208W        W16224   8.683  16.575   2.631  0.0286  0.3068 -0.1705
73209W        W16225  20.501  24.020  21.725 -0.0702  0.4630  0.2326
73210W        W16226  12.509  16.116   7.883  0.2182  0.2085 -0.2476
73211W        W16227   5.881  15.819  22.978  0.0445 -0.0662  0.0946
73212W        W16228   8.853  34.082  10.565  0.1595  0.0694  0.0248
73213W        W16229  24.752  33.275  15.304  0.0072  0.4066  0.0287
73214W        W16230  11.767  13.178  21.366 -0.4481  0.2060 -0.1300
73215W        W16231  34.416  34.723  28.060  0.0734  0.1107 -0.0923
73216W        W16232  24.511  31.769  18.169 -0.2983  0.2719  0.0684
73217W        W16233   7.975  11.556  19.432  0.3274  0.1570  0.2931
73218W        W16234  19.005  11.678   4.094 -0.2501  0.1959 -0.0741
73219W        W16235   4.885  32.140  15.910 -0.1637  0.1169  0.2498
73220W        W16236  16.471   5.299  18.660  0.3724 -0.0207 -0.1758
73221W        W16237   8.823  27.917  22.626  0.0244 -0.1426  0.0804
73222W        W16238  11.764   7.259  26.148 -0.0004 -0.0686 -0.0147
73223W        W16239   4.359  16.595   7.596  0.1127  0.1339  0.3345
73224W        W16240  27.673  29.056  27.431 -0.0871 -0.0794 -0.0094
73225W        W16241   8.733   2.426  15.048 -0.1276 -0.0523  0.2834
73226W        W16242  23.450  13.872  20.255 -0.1518  0.2144  0.1409
73227W        W16243   2.503  12.232  27.498  0.1378  0.1320  0.1048
73228W        W16244  11.693  21.188  27.732  0.1019  0.3933  0.2412
73229W        W16245  32.074  12.764  19.941 -0.1914 -0.1953 -0.3422
73230W        W16246  20.302  15.525   4.120 -0.0453 -0.0105  0.0427
73231W        W16247  25.896  18.892  17.358  0.0980  0.0007  0.3080
73232W        W16248  16.892   5.997  26.787 -0.0059  0.2496 -0.0332
73233W        W16249  23.942   8.536   1.004  0.3612 -0.1901  0.3177
73234W        W16250   0.658  17.133   1.398 -0.0100 -0.1111 -0.0887
73235W        W16251  23.731  25.790  27.046 -0.3035  0.0544  0.0749
73236W        W16252  19.986  15.353   5.983 -0.1822  0.2063 -0.0654
73237W        W16253  17.903   7.002  28.323 -0.0864 -0.0455 -0.1610
73238W        W16254  24.863  32.643  17.993 -0.1215 -0.1190  0.3313
73239W        W16255   7.885  13.648  17.112  0.2631 -0.1737 -0.3120
73240W        W16256  20.630  13.282  25.963 -0.2339  0.2160  0.0628
73241W        W16257  19.251   7.858  13.637 -0.1477  0.0661 -0.1845
73242W        W16258  26.985  14.445  22.803  0.0935  0.2293  0.0728
73243W        W16259  22.627  22.817  22.244 -0.4656 -0.2190  0.0382
73244W        W16260   9.894  17.623   3.479  0.2155  0.2009  0.1762
73245W        W16261  21.976  10.601   0.672 -0.0141  0.0028  0.3670
73246W        W16262  12.572   9.003  18.964  0.3688 -0.0748 -0.2572
73247W        W16263  24.632   7.885  24.687 -0.2042  0.1536  0.0896
73248W        W16264  19.845   8.747   3.649 -0.1818 -0.0335  0.1064
73249W        W16265   9.000  25.443  14.060 -0.1244  0.3817 -0.0674
73250W        W16266   1.524   0.730   0.804  0.1826  0.1508 -0.0609
73251W        W16267  14.182  13.839  19.089  0.1146  0.0425 -0.1005
73252W        W16268  17.986  31.123   1.355  0.1318 -0.1281 -0.2320
73253W        W16269   7.091  26.552  20.646 -0.0220  0.0907 -0.2333
73254W        W16270  12.633  16.095  25.164  0.1016 -0.1044  0.0701
73255W        W16271  14.880  13.540  24.879 -0.2039  0.1146  0.2128
73256W        W16272  23.430  10.804   4.530 -0.3263  0.0145  0.1280
73257W        W16273  22.931   9.763   0.812  0.1515  0.0740 -0.0754
73258W        W16274  16.994   7.078  16.947 -0.4342  0.2891 -0.1319
73259W        W16275   4.338   3.117  19.822  0.0019  0.3947 -0.0599
73260W        W16276  15.543  18.347  19.832 -0.1062 -0.1523  0.1374
73261W        W16277  15.312  13.657   2.959 -0.1298 -0.0098 -0.1011
73262W        W16278  13.086   9.433  25.944 -0.0647 -0.0840 -0.0563
73263W        W16279  13.727  28.286  22.312  0.0256  0.1556 -0.0623
73264W        W16280  20.460  18.654   1.277 -0.2739  0.0761  0.0211
73265W        W16281  32.564  13.442  15.285  0.2494  0.1845  0.1161
73266W        W16282  15.130  17.462  14.053  0.0780 -0.2440  0.1047
73267W        W16283  11.778  15.336   0.360  0.1002  0.0044 -0.2048
73268W        W16284  12.824  14.094  15.780 -0.1392  0.0984 -0.0972
73269W        W16285  26.777   0.299  21.738 -0.0718  0.1284  0.0019
73270W        W16286  10.299  15.053  19.891 -0.1494  0.0392 -0.2716
73271W        W16287   9.084   8.588  21.361  0.1088 -0.3106 -0.1278
73272W        W16288  13.960  27.922  21.794  0.0872 -0.1529 -0.0828
73273W        W16289  18.089  15.923   7.133 -0.0115 -0.1159  0.1355
73274W        W16290   7.636  13.118  26.073  0.0558 -0.0077 -0.0194
73275W        W16291  22.314  20.010  15.074 -0.2362 -0.2747  0.3385
73276W        W16292  12.350  10.799  14.821 -0.2679  0.1246 -0.2826
73277W        W16293  11.570   0.136  18.188  0.0026 -0.1212 -0.0158
73278W        W16294  19.772   7.185   4.796 -0.0191 -0.2096 -0.0298
73279W        W16295   2.058  11.378   1.334  0.0635  0.0486 -0.4079
73280W        W16296   9.359  24.121  18.668  0.2238  0.2828 -0.2530
73281W        W16297  11.481  31.654  26.144 -0.1877 -0.0839 -0.1507
73282W        W16298  13.166  29.784   6.169  0.0885 -0.2563 -0.2021
73283W        W16299  15.293  20.554   8.751  0.0533  0.0273  0.0330
73284W        W16300  18.702  13.837  27.712  0.5021 -0.0879  0.1083
73285W        W16301  33.223  21.694  25.810 -0.2693  0.3380  0.1515
73286W        W16302   7.967  27.661  27.370 -0.1678 -0.2946  0.1391
73287W        W16303  12.492   5.932  19.864  0.0802  0.1298 -0.2209
73288W        W16304  22.285   8.313  16.866  0.1548 -0.0854  0.0078
73289W        W16305  18.019  12.032  27.675  0.1859 -0.0089 -0.0147
73290W        W16306  20.628   6.108   7.788 -0.0561  0.0824  0.1905
73291W        W16307  27.912   8.844  20.160  0.0390 -0.0862  0.2254
73292W        W16308   9.614  12.754   2.707 -0.0372  0.0670  0.0422
73293W        W16309  31.060  13.689  29.279 -0.1663 -0.1427 -0.3017
73294W        W16310  16.787  13.234   3.914 -0.0068 -0.1134  0.2146
73295W        W16311  32.217   5.866  27.059 -0.0391  0.1338 -0.3330
73296W        W16312  27.083  11.706  24.821 -0.0269 -0.4883  0.2801
73297W        W16313  23.095  13.358   3.078  0.0542 -0.1200 -0.2011
73298W        W16314   2.877  14.776  28.576 -0.1942  0.1255  0.1544
73299W        W16315  28.923  15.822  15.072 -0.0788  0.2286  0.1813
73300W        W16316  20.880  17.017  25.304  0.3398 -0.1738 -0.1648
73301W        W16317  28.345  22.034  19.393  0.0418 -0.1268 -0.2650
73302W        W16318  16.944  31.509  20.502  0.0302  0.1579  0.0011
73303W        W16319  24.771  11.925   7.087 -0.0659 -0.0472 -0.0965
73304W        W16320  30.325  16.252   0.927 -0.1417 -0.2000  0.1597
73305W        W16321  24.861  33.763   0.224 -0.0756 -0.0023 -0.4560
73306W        W16322   4.523   1.028  18.744 -0.1062  0.0688  0.1144
73307W        W16323  15.270  31.538  24.011  0.2753  0.1017 -0.0001
73308W        W16324  31.701   7.293  28.432 -0.6362  0.0293  0.0908
73309W        W16325  19.762  10.784  23.468 -0.4967  0.3035  0.0895
73310W        W16326  24.701   8.956  16.140  0.1893  0.0899  0.4675
73311W        W16327  11.924   3.495   2.412  0.0624 -0.0195  0.1772
73312W        W16328   9.136   0.452  20.525 -0.1254 -0.0087  0.0454
73313W        W16329  20.491  14.679   7.348  0.1310  0.1608  0.0687
73314W        W16330  14.749  11.584  23.581  0.1257  0.4104  0.1576
73315W        W16331   6.750   1.429  26.744 -0.0709  0.0980  0.1713
73316W        W16332  19.230   2.530  26.370 -0.3271  0.1711 -0.0506
73317W        W16333  21.982  11.609  24.197  0.1036 -0.0679  0.0573
73318W        W16334  16.413   4.182  19.511  0.1968  0.3273  0.1838
73319W        W16335  10.533  10.644   7.382  0.0065 -0.3639 -0.0878
73320W        W16336  19.720  12.978  12.728 -0.0086 -0.1850  0.1977
73321W        W16337   2.490  11.052  19.266  0.3375 -0.1650  0.1062
73322W        W16338  19.042  12.593  25.065  0.0675 -0.1356 -0.1298
73323W        W16339  17.346  14.625  24.494 -0.0138 -0.2835 -0.0864
73324W        W16340  13.925   7.491  16.866 -0.1202 -0.3943  0.0402
73325W        W16341  30.072   6.827  21.523 -0.1103  0.0387  0.1089
73326W        W16342   9.534   5.812   6.870 -0.2445 -0.3383  0.1063
73327W        W16343   7.923   0.317  29.204  0.0904 -0.1216 -0.1536
73328W        W16344   1.912  12.498  28.370 -0.1056 -0.0887  0.2139
73329W        W16345   2.791  31.454   6.062 -0.0993 -0.0708 -0.0059
73330W        W16346   9.561  19.825  14.320  0.3173 -0.0849  0.1313
73331W        W16347  10.174  23.984  18.220  0.0206  0.0393  0.2791
73332W        W16348  30.385   3.787  20.735 -0.2119 -0.0389  0.1945
73333W        W16349  14.771  30.384   0.564 -0.0159  0.0656  0.1188
73334W        W16350  11.865  24.405   6.586  0.0763  0.0534  0.1426
73335W        W16351  26.670  12.120   4.565 -0.1219 -0.1689  0.0146
73336W        W16352   7.572  17.999  20.248  0.3121 -0.1108 -0.0440
73337W        W16353   8.595  21.010   5.205 -0.0595  0.1486 -0.2901
73338W        W16354  25.064  24.393  21.214  0.1941  0.0477 -0.1762
73339W        W16355   1.715  12.711  20.111  0.3311  0.3960  0.0410
73340W        W16356   1.121   4.892  25.153  0.1797  0.1095  0.0993
73341W        W16357  17.775  15.855   1.748 -0.0105  0.1240  0.1984
73342W        W16358   9.437   9.529  22.385  0.3403 -0.0680  0.3770
73343W        W16359  21.098   2.646   0.415 -0.2575  0.2224 -0.1308
73344W        W16360  12.987  14.189   1.563 -0.0340  0.0613  0.3167
73345W        W16361   5.625   9.462  28.843  0.1642  0.4094  0.0256
73346W        W16362  29.685  16.589  23.003 -0.3117 -0.0896  0.1338
73347W        W16363  21.917  27.494   8.235  0.0156 -0.2137 -0.3903
73348W        W16364  17.529  16.820  29.185  0.2142 -0.1748 -0.2353
73349W        W16365  26.808  14.187   2.385 -0.1431 -0.0979 -0.0003
73350W        W16366  12.303  32.801   4.189  0.2789  0.3858  0.0142
73351W        W16367   6.902  15.682  21.400 -0.0947 -0.0421 -0.3727
73352W        W16368  29.354   6.595   0.346  0.0310 -0.2139 -0.1068
73353W        W16369   4.667  21.441   6.844 -0.1871 -0.0326  0.2022
73354W        W16370  20.681  25.758  22.509  0.1433  0.3066  0.1431
73355W        W16371  12.525  22.541  25.356  0.3042  0.0676 -0.1989
73356W        W16372  11.097  34.364   5.571  0.0683  0.1405  0.0345
73357W        W16373  26.038   3.033  29.168  0.1252 -0.1872 -0.0236
73358W        W16374  29.048  10.031  16.516 -0.2685  0.1603  0.1087
73359W        W16375  21.217  10.464  21.036  0.0351  0.2025  0.0372
73360W        W16376  25.514  33.297   9.342 -0.2226  0.3463 -0.1779
73361W        W16377  20.303  17.678  25.949 -0.0149  0.1638 -0.0881
73362W        W16378  14.627  27.015  15.392 -0.2009  0.3333  0.4274
73363W        W16379  12.035  11.956  26.845  0.2246 -0.2658 -0.0803
73364W        W16380  12.308  20.859   2.553 -0.0618 -0.0040  0.3386
73365W        W16381   1.416  13.729  20.130  0.1555 -0.1405 -0.0133
73366W        W16382  14.860  28.955   3.766  0.1321  0.0097  0.1535
73367W        W16383  19.588  12.479   0.150 -0.0237  0.0760 -0.1098
73368W        W16384   2.187   2.035  28.893 -0.0955 -0.1628  0.0258
73369W        W16385  13.467   1.746  21.096  0.0056 -0.1191  0.2770
73370W        W16386  11.630  17.211  23.528  0.5006  0.0419 -0.1282
73371W        W16387  15.353   1.862  25.995 -0.0917 -0.1495 -0.1010
73372W        W16388  15.565  13.289  20.879  0.4215  0.0751  0.0458
73373W        W16389  23.309  10.222   7.306 -0.0117 -0.1426 -0.2110
73374W        W16390   8.873   7.831   8.512 -0.2104 -0.2038 -0.0668
73375W        W16391  13.281  19.501  14.167 -0.4313  0.0774  0.1191
73376W        W16392  30.497   6.856  22.810 -0.0211 -0.0730  0.0038
73377W        W16393  23.319  24.722  17.727 -0.0230  0.2794 -0.2821
73378W        W16394   8.027  15.239  17.344 -0.1453  0.0301  0.1483
73379W        W16395  16.663  11.589  17.086 -0.2367 -0.0610 -0.4743
73380W        W16396  33.404  10.090   9.520  0.1810  0.1375 -0.1049
73381W        W16397  24.309  33.444  18.774  0.1075 -0.1890 -0.1158
73382W        W16398   7.458  10.159   3.152  0.1846  0.1484 -0.0577
73383W        W16399   3.775   2.675   8.415 -0.1698 -0.0679  0.1225
73384W        W16400  14.955  30.348  18.296  0.0446 -0.3774  0.0097
73385W        W16401   5.212  14.068   3.237  0.2894  0.0518  0.1501
73386W        W16402  13.144   2.790   2.986 -0.1688 -0.0255 -0.2727
73387W        W16403  26.264   8.165   7.280  0.1526  0.3489 -0.0084
73388W        W16404  23.155   4.254  18.127 -0.0566  0.1799  0.1380
73389W        W16405  12.148   2.822  23.189 -0.1049 -0.0938 -0.1134
73390W        W16406  10.935  23.182  24.506 -0.1671  0.1082  0.0070
73391W        W16407  20.625   1.946   0.438 -0.1221 -0.4092  0.2968
73392W        W16408  16.690  14.235   8.269  0.1430 -0.2337 -0.1553
73393W        W16409  10.407   4.733  15.642 -0.0317  0.0307 -0.0825
73394W        W16410  28.989  11.763  17.476  0.3726  0.0667  0.4000
73395W        W16411  21.818  23.343  15.284  0.2763  0.2557  0.0084
73396W        W16412   8.988  12.798  18.617 -0.0819 -0.0320  0.0260
73397W        W16413  22.284  11.083   6.612  0.2318 -0.3471 -0.0972
73398W        W16414  33.774   8.029  20.159  0.1155 -0.0690 -0.2805
73399W        W16415  30.994  19.028  16.904 -0.1992  0.0253  0.1827
73400W        W16416  30.279   9.632   1.839  0.1014  0.0343 -0.2565
73401W        W16417  19.916   8.449  27.626 -0.3710  0.0588  0.4336
73402W        W16418  17.630  20.382  12.841 -0.0262  0.1703  0.2417
73403W        W16419  28.474   9.048  19.136  0.3577 -0.0738 -0.1150
73404W        W16420  15.107   5.416  27.481 -0.1978 -0.3533 -0.0192
73405W        W16421  22.160   8.160  27.965  0.0417 -0.1624 -0.1771
73406W        W16422  20.633   4.291  24.610 -0.2073 -0.3492  0.3919
73407W        W16423  29.968  22.497  25.237 -0.6451 -0.1225  0.0151
73408W        W16424   2.822  12.465   7.949  0.3479  0.3184 -0.2022
73409W        W16425   0.722  11.087  27.179  0.5372  0.0618  0.0568
73410W        W16426  10.735   0.521  21.708  0.0502  0.1174  0.1576
73411W        W16427  10.476   3.496   1.765  0.2310  0.0193  0.3064
73412W        W16428  10.349  25.047  17.371 -0.0978 -0.1640  0.4906
73413W        W16429  33.860   7.450   8.649 -0.0717  0.1423  0.0160
73414W        W16430  14.813   8.029  19.722 -0.0713  0.3617  0.0682
73415W        W16431  19.412   4.455   4.228  0.0685 -0.1992 -0.0402
73416W        W16432   4.286   9.474   0.763  0.1238 -0.0536  0.1455
73417W        W16433   6.490  12.322   2.784  0.1771  0.3158 -0.2213
73418W        W16434  22.256  28.064  20.247  0.0716 -0.0188  0.1157
73419W        W16435  22.921   5.328  13.812 -0.0204 -0.0729  0.1537
73420W        W16436  24.314  10.873  24.477 -0.1818 -0.0952  0.1121
73421W        W16437  18.506  12.634  14.741  0.1605  0.1763 -0.0093
73422W        W16438  10.627  18.565  17.319  0.0209 -0.1962  0.0041
73423W        W16439  17.082  10.267   7.681  0.1064 -0.0952  0.0740
73424W        W16440  26.427  16.522  17.209  0.3920  0.4823  0.1552
73425W        W16441  20.073   9.181  14.376 -0.1297  0.1255 -0.0929
73426W        W16442   8.468   7.714  28.773 -0.0203 -0.1014  0.0940
73427W        W16443   7.990  32.997  24.076  0.0291 -0.0436 -0.3037
73428W        W16444  21.677   1.584  16.836  0.1235 -0.1226 -0.3128
73429W        W16445  23.320  31.645   1.467 -0.1133 -0.0894 -0.1586
73430W        W16446  22.997  18.524  23.583  0.0022 -0.0074  0.1068
73431W        W16447  28.602   1.366  23.923  0.1717 -0.0199 -0.1186
73432W        W16448  17.947   9.981  23.860  0.2306  0.0586  0.2499
73433W        W16449  20.792  26.082  26.485  0.1708 -0.3822  0.1289
73434W        W16450  19.321   6.326   3.012 -0.1040 -0.2817  0.0820
73435W        W16451   4.811  16.095  19.073  0.0077  0.0578 -0.3314
73436W        W16452  20.486  30.187  19.932 -0.1130  0.1167  0.0951
73437W        W16453  23.724  20.754  26.515  0.1222  0.1045  0.0306
73438W        W16454  23.339  11.098  23.889  0.4142  0.0940  0.0744
73439W        W16455  22.197  34.288  19.222  0.2491  0.0728 -0.0286
73440W        W16456   5.669   4.248  18.177 -0.0390  0.1253 -0.1990
73441W        W16457  27.398   0.741   4.451  0.0977 -0.1612  0.0626
73442W        W16458  18.646  11.054  20.949 -0.0434 -0.3258 -0.0728
73443W        W16459  19.174  29.275   3.944 -0.1437 -0.0495 -0.1684
73444W        W16460   7.406  19.681  20.492 -0.0504 -0.2755 -0.1975
73445W        W16461  19.593  15.744  13.508 -0.0239  0.0010  0.5199
73446W        W16462   5.064  22.526  26.009  0.1531 -0.1277  0.0809
73447W        W16463  22.779  19.654   8.593 -0.1107 -0.0130 -0.0614
73448W        W16464  16.471  13.939   5.462 -0.2830 -0.1208 -0.3751
73449W        W16465  31.349  11.920  14.969 -0.0296  0.0915 -0.0198
73450W        W16466  22.218   8.722  27.046 -0.2959  0.0111  0.0121
73451W        W16467  17.910   5.086  27.554 -0.2747 -0.0527 -0.0433
73452W        W16468  15.655  19.890  14.838  0.2524 -0.0992 -0.0225
73453W        W16469  19.922  13.998  26.439 -0.3635  0.3124 -0.0601
73454W        W16470  19.475  32.320  21.295  0.4510 -0.2988  0.0943
73455W        W16471   4.100  17.866  21.982 -0.0996 -0.0732  0.1637
73456W        W16472  20.673  23.678  19.163 -0.0038 -0.1795 -0.0682
73457W        W16473  28.435   9.975  15.692  0.0356  0.0987 -0.0397
73458W        W16474  13.917   3.649  24.707  0.2371  0.2573  0.1593
73459W        W16475  26.666  30.396  24.840  0.0717 -0.2150  0.2543
73460W        W16476   2.053   4.271  22.316  0.5187  0.1595 -0.0885
73461W        W16477  19.463   9.830  25.180  0.0567  0.1946 -0.0027
73462W        W16478  17.905   3.207  26.647  0.0156  0.2231  0.2806
73463W        W16479   1.568   9.220  26.783  0.0442  0.1256  0.1159
73464W        W16480  30.547  23.426  16.159 -0.0299 -0.1607 -0.0416
73465W        W16481   7.447  20.215  14.193  0.1675 -0.0964  0.2216
73466W        W16482  24.901  11.131   9.235 -0.0501 -0.1296 -0.0791
73467W        W16483   6.478  32.771   6.138  0.2491  0.0219 -0.1149
73468W        W16484   5.766  24.382  27.273  0.1797  0.3431 -0.1226
73469W        W16485  12.768   4.641  19.592  0.0957  0.1418 -0.0755
73470W        W16486  20.046  10.594  27.231  0.0654  0.0358  0.1713
73471W        W16487  20.333  16.561   0.263  0.0553 -0.3206 -0.0456
73472W        W16488  15.974   7.546  21.898  0.2007 -0.2283  0.0436
73473W        W16489  25.747   6.770  15.369  0.1339 -0.2129 -0.0821
73474W        W16490  19.488  18.353  14.454 -0.3028 -0.1212 -0.1234
73475W        W16491   8.287  16.806  22.526  0.2557 -0.2778  0.2380
73476W        W16492  15.985   2.372   7.490 -0.1468 -0.0806  0.1048
73477W        W16493  12.074  13.513   2.584  0.0557  0.0046 -0.2874
73478W        W16494  28.647   0.925   0.767  0.2457  0.0547  0.1219
73479W        W16495  14.028  16.439   6.385 -0.0805  0.1033 -0.1151
73480W        W16496  23.450  14.725   6.159 -0.1715  0.5681 -0.0399
73481W        W16497  30.141  12.949  27.345 -0.0063 -0.2910  0.1335
73482W        W16498  33.074  13.781   8.413 -0.2402 -0.0789  0.1141
73483W        W16499   9.099   4.293   8.636  0.0174 -0.0392 -0.2921
73484W        W16500  21.897  22.274  20.626  0.0266  0.0846 -0.0210
73485W        W16501  33.257   4.168   3.199 -0.3222 -0.1564  0.1594
73486W        W16502  24.080  14.655  15.550 -0.0125 -0.1599 -0.2581
73487W        W16503   2.566   7.991  26.975  0.1316 -0.0249  0.1442
73488W        W16504   8.597   4.238  26.652 -0.1056  0.2012 -0.0854
73489W        W16505  18.656  10.787   7.196  0.1769 -0.2918  0.1520
73490W        W16506  11.704  24.635  15.992  0.2862  0.1455  0.3130
73491W        W16507  17.745   6.057   5.118  0.2040 -0.2283 -0.1952
73492W        W16508  11.172   3.887  25.814  0.0172  0.1192  0.0244
73493W        W16509  26.561  12.525  17.931  0.1753  0.0360 -0.1968
73494W        W16510  27.578   1.276   6.108 -0.3169  0.0016 -0.1244
73495W        W16511  17.811   9.929   1.632  0.4796  0.3806 -0.3973
73496W        W16512   5.934  22.791  20.012 -0.0964  0.4779  0.0995
73497W        W16513  28.033  20.461  22.834  0.3995  0.2593 -0.0540
73498W        W16514  29.087  27.917  22.650 -0.0170 -0.2724  0.0493
73499W        W16515  21.297  34.699  28.362 -0.1202 -0.1196 -0.4550
73500W        W16516   0.101  29.444   3.101  0.0029  0.2538 -0.1855
73501W        W16517  13.991  24.353   2.474  0.4331 -0.0426 -0.0073
73502W        W16518  25.201  12.002  17.803  0.1707  0.1704 -0.1145
73503W        W16519  17.825   1.158  25.588  0.1693  0.1877  0.1414
73504W        W16520  31.481  15.001  14.274 -0.0492 -0.0027  0.0361
73505W        W16521   9.794  15.654  15.748 -0.1340  0.2554 -0.4085
73506W        W16522  15.817  17.341   6.581  0.0161  0.0886  0.4012
73507W        W16523  32.161  34.511   8.743  0.2417 -0.1076 -0.1359
73508W        W16524  27.342  29.268  20.374 -0.0316 -0.1460 -0.0657
73509W        W16525  21.770  34.594   8.882 -0.0937 -0.0623  0.0518
73510W        W16526  26.540   1.924  20.116 -0.2129 -0.4949  0.1192
73511W        W16527  15.010  29.781   6.588 -0.3182 -0.1579 -0.1407
73512W        W16528  25.387  19.076  10.250 -0.0931 -0.0451  0.1451
73513W        W16529  19.523  17.004   4.726 -0.0289  0.2224  0.0160
73514W        W16530  12.214   8.143   1.658  0.0245 -0.0299 -0.0251
73515W        W16531  27.851   6.838   4.787  0.3149 -0.3000  0.2291
73516W        W16532  17.713  31.998   3.129 -0.1202  0.0345  0.0434
73517W        W16533  26.473  16.005   0.003 -0.0911 -0.2535  0.3150
73518W        W16534  15.722  24.486   8.281  0.0358  0.0605  0.0262
73519W        W16535  27.063   9.571  24.995  0.0557 -0.1206  0.1532
73520W        W16536  16.080  10.227  20.862 -0.1429  0.1360 -0.0409
73521W        W16537  15.743  12.862  26.287 -0.0766 -0.2076 -0.1190
73522W        W16538   2.654   3.869   4.817  0.3225 -0.0214 -0.0528
73523W        W16539  14.268  17.426   3.808 -0.1884  0.4151 -0.0573
73524W        W16540  21.138  27.614   1.071 -0.0834 -0.0794 -0.1339
73525W        W16541  12.435   5.695  26.746  0.1038  0.2598 -0.1009
73526W        W16542   7.733  13.917  22.388  0.1070 -0.1121 -0.1458
73527W        W16543  14.852  15.159  27.368  0.3720  0.3900 -0.2039
73528W        W16544  31.240   0.410   3.617 -0.1588 -0.1510  0.2975
73529W        W16545  29.310   0.109   7.928 -0.0869  0.0702 -0.5177
73530W        W16546  13.173   2.228  24.470 -0.0206 -0.2182 -0.2917
73531W        W16547  10.589  19.191  19.343  0.0506 -0.1001  0.1105
73532W        W16548   7.736  12.137   0.731  0.1944  0.2394 -0.0020
73533W        W16549  22.232   3.243  27.271 -0.2227 -0.4056  0.0905
73534W        W16550  17.232   1.875   1.752  0.0797  0.0884  0.1748
73535W        W16551  14.085  13.907   1.289  0.1244  0.1480  0.0078
73536W        W16552  26.143  15.553   0.721 -0.1264 -0.0180  0.1112
73537W        W16553   9.476  21.246   5.667 -0.1768  0.0538  0.1247
73538W        W16554  13.047  17.533   1.056  0.0028  0.5652 -0.2398
73539W        W16555   4.280  19.790   8.923 -0.1744 -0.2863 -0.2960
73540W        W16556  19.565  15.013   0.087  0.0414  0.1991 -0.0339
73541W        W16557  28.237   9.354  22.071  0.1908 -0.3874 -0.1299
73542W        W16558  29.962  14.177  22.159 -0.1577  0.0966  0.0833
73543W        W16559  33.139  16.150  22.083 -0.0070  0.2435 -0.3130
73544W        W16560  31.930  22.151  27.750  0.1513 -0.0145 -0.1160
73545W        W16561  12.675   3.522   9.532 -0.2612  0.0643  0.0724
73546W        W16562  16.129  29.746  28.112 -0.0026  0.0267 -0.0105
73547W        W16563  21.876  32.726  17.064 -0.0027 -0.1356  0.0576
73548W        W16564  20.113  19.750  13.679  0.0158  0.1831 -0.2496
73549W        W16565  16.693  12.079  25.421  0.0504 -0.3057 -0.0164
73550W        W16566   1.619  14.374  15.725 -0.0304 -0.2424  0.1283
73551W        W16567  17.500  13.325   0.875 -0.2251  0.0136 -0.0665
73552W        W16568  13.343  14.944  28.737 -0.4118  0.1418  0.1184
73553W        W16569   9.712  17.786  26.020 -0.1494  0.0080  0.4194
73554W        W16570  20.574   8.615   1.662  0.0785  0.0727  0.1601
73555W        W16571  15.966   4.253   4.511 -0.1036  0.0205  0.0176
73556W        W16572  10.805  32.404  15.975 -0.2507 -0.2463  0.0404
73557W        W16573  21.527  17.753  28.871  0.1451  0.0651 -0.1122
73558W        W16574  24.616  10.663   7.609 -0.2990  0.0498 -0.1297
73559W        W16575  14.832  15.780  23.118 -0.0134  0.0093 -0.1484
73560W        W16576  11.836   3.773  18.830 -0.0927 -0.1821 -0.2416
73561W        W16577  18.104   5.689  24.366 -0.1963  0.1540  0.0115
73562W        W16578  11.329   3.009   6.116  0.3425 -0.3329  0.0651
73563W        W16579  19.234  11.951   4.517 -0.0395 -0.1127 -0.1601
73564W        W16580  24.311  11.123   3.388  0.3229  0.0992  0.1840
73565W        W16581  21.684  31.329  27.281  0.0954  0.0398 -0.1673
73566W        W16582  18.825  13.614  26.350 -0.0947  0.0589 -0.2962
73567W        W16583  14.150  18.987   5.580  0.0628  0.1181  0.0737
73568W        W16584  16.672  33.382   5.284 -0.0372 -0.0412 -0.2487
73569W        W16585   6.228   4.027   5.807  0.2642  0.2562  0.3589
73570W        W16586  15.938   8.619   0.204  0.4413  0.0565  0.0520
73571W        W16587  16.097  12.750  19.229  0.0839 -0.1035 -0.0020
73572W        W16588  18.050  10.175   3.966  0.0791 -0.1181 -0.0377
73573W        W16589  25.201   4.675   8.004 -0.0734 -0.0785  0.0114
73574W        W16590  34.750  11.085  18.736 -0.0351 -0.1491  0.0037
73575W        W16591  23.075  29.703   7.057  0.0354 -0.0133  0.1980
73576W        W16592  34.613  12.604   7.420 -0.0046 -0.2228 -0.0027
73577W        W16593  25.593   2.488  10.839 -0.0390 -0.0598  0.2996
73578W        W16594   6.559  30.061  28.565  0.2149 -0.0863 -0.0016
73579W        W16595  19.942   5.116  25.999  0.0222 -0.0543  0.1786
73580W        W16596  10.303  10.247   6.407 -0.0863 -0.0075  0.0181
73581W        W16597  32.129  13.589  26.736 -0.2334  0.0516  0.2448
73582W        W16598  11.857  12.307   4.876  0.1457  0.1325 -0.0700
73583W        W16599  29.111  26.119  10.186 -0.0114 -0.1212  0.0173
73584W        W16600  21.258   7.091  25.919 -0.1397 -0.0238 -0.3148
73585W        W16601  30.213  12.280   1.105 -0.0883 -0.0962  0.4455
73586W        W16602  26.356   1.842   0.767 -0.0036  0.3348 -0.4611
73587W        W16603  19.716   2.602  27.882 -0.1417 -0.3319  0.0144
73588W        W16604  18.711  10.907   1.678 -0.0903  0.0259 -0.0009
73589W        W16605  22.131  28.813  27.496 -0.0660  0.0040  0.0614
73590W        W16606  13.931   9.330  15.443  0.5376  0.1600 -0.2266
73591W        W16607  12.346   9.864   1.551 -0.1607 -0.1772  0.1813
73592W        W16608  19.469  27.012   8.330  0.0401  0.2422  0.2511
73593W        W16609  21.001  33.840  16.399  0.0764  0.2555  0.0068
73594W        W16610  20.536  16.709   5.507  0.1776  0.2218  0.1447
73595W        W16611  15.678   3.609  14.667 -0.3144  0.3320  0.1321
73596W        W16612   2.853  16.677   9.186 -0.1459  0.4150 -0.0817
73597W        W16613  34.668  14.634   9.380  0.3976  0.1200 -0.0197
73598W        W16614   1.770   5.694   7.308  0.1888  0.2574  0.0906
73599W        W16615  13.799  13.216  25.439  0.0346  0.2123  0.0019
73600W        W16616  18.572  15.064   2.466 -0.1999  0.2554 -0.0232
73601W        W16617   5.018   8.215   5.472 -0.0752 -0.3814 -0.3522
73602W        W16618  28.763  17.811   0.489  0.3227  0.0114  0.2761
73603W        W16619  10.764  30.363  18.245 -0.0021  0.0186 -0.0894
73604W        W16620  25.758   2.834   2.605 -0.0344 -0.0737 -0.1010
73605W        W16621  16.800  18.371  18.537  0.1456  0.1582  0.1494
73606W        W16622  24.555  32.265  24.298  0.3506 -0.0255  0.0395
73607W        W16623  25.258  12.470   2.903  0.4084 -0.1354  0.0414
73608W        W16624  26.865  14.103  23.178 -0.1201  0.1753 -0.1942
73609W        W16625  11.181  10.907   2.073  0.2849  0.0233 -0.1267
73610W        W16626  11.946  19.235   3.166  0.0935  0.1812 -0.0867
73611W        W16627  19.007   8.979  25.716 -0.0572  0.1548  0.3181
73612W        W16628  31.769  21.635  25.681 -0.2103  0.0109 -0.1245
73613W        W16629  10.162   2.662  25.360  0.1945 -0.1971 -0.0405
73614W        W16630  14.713  14.611  19.319 -0.0531  0.2060  0.1382
73615W        W16631   3.175   9.635  14.145 -0.0551  0.0622 -0.1742
73616W        W16632   7.512  30.413  27.092 -0.0705 -0.0683  0.0773
73617W        W16633   0.363  31.702  25.560 -0.1426 -0.0641  0.1926
73618W        W16634  22.984  18.929   4.068  0.0829 -0.0748  0.1146
73619W        W16635  10.871   1.458  15.145  0.1027 -0.1454 -0.3018
73620W        W16636  16.574  18.344  23.262 -0.2185  0.0702 -0.1213
73621W        W16637   3.612   4.924  19.480  0.2658  0.1184  0.0770
73622W        W16638   5.513  15.578  26.603 -0.1598  0.4147  0.1533
73623W        W16639  18.066  16.681  29.306 -0.1155  0.0496  0.1168
73624W        W16640   5.226   7.814  21.700  0.0814 -0.1588  0.1638
73625W        W16641  26.068  19.293   6.460  0.1563  0.2151 -0.2173
73626W        W16642   7.739  18.105  22.221  0.0350 -0.0018  0.0928
73627W        W16643  21.290   9.792  16.839  0.3003 -0.2411 -0.1009
73628W        W16644  12.910  11.356  28.947 -0.0127 -0.0989 -0.3377
73629W        W16645  34.532  26.871   6.999 -0.4391  0.2115  0.0868
73630W        W16646  27.497  21.363   4.616 -0.1358  0.1322  0.0996
73631W        W16647  13.378  18.670   5.822 -0.0227  0.0686  0.0433
73632W        W16648  10.918  31.941   6.451  0.1479 -0.0539 -0.0047
73633W        W16649  10.976   8.627   8.835  0.1554 -0.1920  0.1037
73634W        W16650  14.700  18.053  12.958  0.1492  0.1405 -0.0800
73635W        W16651  21.239  30.980  20.156  0.1296  0.0865  0.1795
73636W        W16652  19.566  20.083  23.932 -0.0419 -0.0527  0.0760
73637W        W16653  28.342  17.988  25.289  0.0077  0.3258  0.1782
73638W        W16654  28.669   5.587  27.698 -0.0797 -0.2915  0.5871
73639W        W16655  23.373  19.354   6.613 -0.2196 -0.2712  0.1454
73640W        W16656  18.940   5.768   3.853 -0.0065 -0.1933 -0.2022
73641W        W16657  18.623   8.693  19.402 -0.1307 -0.0204  0.0716
73642W        W16658  18.625  11.609  24.656  0.0151 -0.0324  0.2292
73643W        W16659  29.133  22.837   3.747 -0.0326 -0.0831  0.0731
73644W        W16660  21.452   9.682  21.423 -0.1104 -0.1707 -0.4973
73645W        W16661   8.586  12.026   7.784  0.2839 -0.0194 -0.2034
73646W        W16662  13.242  34.561  27.614  0.1352  0.1019 -0.5010
73647W        W16663  11.070   9.002  17.176  0.0005 -0.0261 -0.2554
73648W        W16664   6.371  15.323  27.648  0.1433  0.1038  0.2782
73649W        W16665   1.286   7.434   0.115  0.1754 -0.0040  0.2472
73650W        W16666  12.725  16.177  16.291  0.1566 -0.2402 -0.0388
73651W        W16667  15.032  13.041  25.632 -0.2288 -0.2849 -0.1124
73652W        W16668  18.550   6.528  16.222  0.0883 -0.2460  0.2384
73653W        W16669  18.119  16.532  20.458  0.0899  0.2632  0.1964
73654W        W16670  11.122  25.145  27.099 -0.1863 -0.3237  0.0932
73655W        W16671  12.027   1.050   6.427 -0.0780 -0.0698 -0.0478
73656W        W16672  24.579   3.356   8.606 -0.2435 -0.1592 -0.1447
73657W        W16673  27.355  32.740   8.703  0.1629 -0.1275 -0.3312
73658W        W16674   0.015  32.431  25.066 -0.2807  0.1137 -0.1479
73659W        W16675  13.198  11.385  17.085 -0.1807 -0.0788 -0.1906
73660W        W16676  11.194  14.336  24.644 -0.4469  0.1651 -0.2145
73661W        W16677   7.652  19.437   6.576  0.0146 -0.0848  0.2883
73662W        W16678  16.795   4.477  18.568  0.2705 -0.2928 -0.1746
73663W        W16679  31.617  25.255  23.568 -0.1962  0.2383 -0.4711
73664W        W16680   6.846  34.602   3.903 -0.0982 -0.2533 -0.0601
73665W        W16681  17.635   9.453  20.384  0.4909 -0.2513 -0.0506
73666W        W16682  25.846  24.280  28.410 -0.0782 -0.0474 -0.2526
73667W        W16683  10.517   2.921  16.875 -0.2217 -0.2789 -0.1391
73668W        W16684  13.770   2.232   2.561  0.2208  0.1556 -0.1984
73669W        W16685  34.235  24.626  18.079 -0.1219  0.0632  0.0215
73670W        W16686   4.945   7.896  19.547  0.2249 -0.2542 -0.1245
73671W        W16687  15.760  12.287  18.326  0.0106  0.0326  0.0434
73672W        W16688  15.071  28.399   3.585 -0.0936 -0.1255  0.2318
73673W        W16689  14.033   1.017  15.800 -0.1358 -0.2171  0.2178
73674W        W16690  13.131  15.382  27.847  0.0878  0.0046 -0.3660
73675W        W16691  18.298  15.848  12.088  0.0096  0.0568 -0.0777
73676W        W16692  14.469   0.575  27.628  0.1420  0.1888  0.1859
73677W        W16693   0.859  32.271  19.551  0.0906 -0.0487 -0.2811
73678W        W16694   9.728  17.675   0.937 -0.3021 -0.2762 -0.0525
73679W        W16695   9.363   0.253  28.497 -0.1259  0.1892  0.0913
73680W        W16696  17.342  11.093  19.753 -0.0967  0.0947 -0.1282
73681W        W16697  34.752   9.654  14.990  0.0477 -0.0636  0.1140
73682W        W16698  16.156  17.289   4.640  0.0192 -0.1022 -0.2269
73683W        W16699  24.374  13.159  24.050 -0.3306 -0.0020 -0.4091
73684W        W16700  33.358  34.018   7.126  0.3609  0.1945 -0.1118
73685W        W16701  26.233  11.932   4.815  0.1649 -0.3159  0.0027
73686W        W16702   3.062  14.664   2.546 -0.3223 -0.3936 -0.0978
73687W        W16703  19.902  19.969   0.340  0.1463 -0.1346 -0.2419
73688W        W16704  33.528  10.360  27.949  0.2128 -0.0532 -0.2292
73689W        W16705  11.996   7.252  26.621 -0.0037  0.0865 -0.2736
73690W        W16706   5.902  23.180  19.711 -0.2609 -0.1981  0.2046
73691W        W16707  13.035  31.795   2.085 -0.0501  0.0975  0.0027
73692W        W16708  12.852  11.285  23.613  0.0130 -0.0519  0.0166
73693W        W16709  33.637   0.098  15.101 -0.1924 -0.0544  0.1193
73694W        W16710   7.518  34.641  10.381  0.1762 -0.0482 -0.0579
73695W        W16711  22.384  28.328   9.364  0.2013 -0.2449 -0.0203
73696W        W16712   2.834  33.344   1.449 -0.0472 -0.3121 -0.2417
73697W        W16713  19.723  23.054   7.932  0.0800 -0.0650  0.1607
73698W        W16714  14.853  24.587   7.481  0.0040 -0.2954  0.0090
73699W        W16715  15.933  27.562  23.126  0.0831  0.1987  0.0645
73700W        W16716  21.013   9.412  24.566  0.0181  0.1195  0.0335
73701W        W16717  16.483   0.947   5.569  0.0820  0.0270 -0.2537
73702W        W16718  16.578  27.837   2.725 -0.0416 -0.0072  0.4275
73703W        W16719  14.601  13.625   2.012 -0.0423  0.3257  0.1437
73704W        W16720   7.319   0.433   6.288  0.1542  0.1817 -0.0684
73705W        W16721  33.550  33.267   5.678  0.0238 -0.1633 -0.0777
73706W        W16722   8.286  10.866  24.687 -0.0238  0.0721 -0.1927
73707W        W16723   0.595  26.267  24.433 -0.1850  0.0418  0.1649
73708W        W16724  19.313  22.686  22.044 -0.2778  0.0061  0.3182
73709W        W16725  21.480   8.863  17.209 -0.1588 -0.2502  0.1472
73710W        W16726  16.362   8.895   1.145  0.0260 -0.2668  0.1016
73711W        W16727  20.250   0.024  18.645  0.3103  0.2384 -0.2872
73712W        W16728  22.415  34.612   5.459 -0.2684 -0.2306  0.0428
73713W        W16729  17.105  11.734  18.836  0.1580  0.0224  0.0327
73714W        W16730  17.798   9.688  28.996 -0.1531  0.1359 -0.0240
73715W        W16731   1.438  11.951  27.740 -0.4075 -0.3448  0.0647
73716W        W16732  14.854  25.431   7.917  0.1485 -0.0608 -0.2498
73717W        W16733  18.003   7.194  17.216 -0.1371 -0.1701 -0.0346
73718W        W16734  20.549  21.533  25.138  0.0450 -0.2985  0.0726
73719W        W16735  11.299   0.415   7.484  0.1057 -0.1155 -0.1161
73720W        W16736  22.030  20.469   6.063 -0.0195 -0.0934  0.0121
73721W        W16737   7.838   9.953   0.803 -0.1397 -0.1085  0.1647
73722W        W16738  30.916   8.183   1.200  0.0090  0.1219  0.1163
73723W        W16739  12.531  10.095   2.562  0.0154  0.3347 -0.0185
73724W        W16740  27.953  30.679  26.226  0.1881  0.1410 -0.1500
73725W        W16741  10.325  17.745   6.751  0.0025 -0.1668  0.0256
73726W        W16742  23.985  13.842  25.132  0.0068  0.1697  0.0292
73727W        W16743   5.464  10.607   7.683  0.4843  0.0680  0.0350
73728W        W16744  18.611  15.508   2.710  0.0031  0.1476 -0.1901
73729W        W16745  19.262   3.416  18.383 -0.2579 -0.2149  0.3364
73730W        W16746  12.613   2.838  21.480  0.2581  0.0866 -0.1203
73731W        W16747  25.618  10.067  22.156  0.2585 -0.0069  0.3494
73732W        W16748  14.282   7.585  19.127  0.0938 -0.0892  0.1830
73733W        W16749  24.070  25.917  27.402  0.1387 -0.1371  0.0126
73734W        W16750  11.189   9.212  28.759 -0.2259  0.0568 -0.1835
73735W        W16751  15.823   7.615  25.894  0.0324 -0.0357 -0.2120
73736W        W16752  13.922  12.918   5.959 -0.0897 -0.0123 -0.0066
73737W        W16753  29.624  12.696   8.757 -0.1878  0.2398 -0.0676
73738W        W16754   8.930  18.183  17.883  0.0585 -0.3585  0.0060
73739W        W16755  11.915  29.885   0.201 -0.2946 -0.0550 -0.1529
73740W        W16756  17.735  32.907   0.697  0.3410  0.0090  0.0134
73741W        W16757  27.340  15.393   7.359  0.3813  0.4183  0.3861
73742W        W16758  10.825  34.389  15.932  0.0188 -0.1764 -0.1126
73743W        W16759  23.335  30.822  22.197  0.1150  0.1551  0.1096
73744W        W16760  18.971  15.732  21.430 -0.0790 -0.2183 -0.2943
73745W        W16761  21.675  22.562   6.686  0.1226  0.0764  0.0047
73746W        W16762   2.586   8.060  15.919  0.2839 -0.1336  0.1384
73747W        W16763  18.932  11.776   2.358  0.2450  0.2385 -0.1651
73748W        W16764  29.803   8.293  18.719 -0.0594  0.0748  0.4210
73749W        W16765  22.581  30.264   7.109  0.0395 -0.0220  0.2084
73750W        W16766   6.290  16.357   5.789 -0.2603 -0.0354  0.1253
73751W        W16767  20.846  20.373  26.373  0.1357  0.0684  0.3602
73752W        W16768  26.717  13.600  23.066 -0.0482  0.1629 -0.0500
73753W        W16769  24.392   9.949  25.412 -0.3241 -0.0481  0.2431
73754W        W16770  22.804   1.594  21.618  0.0517 -0.0268  0.4194
73755W        W16771   9.825  25.835   5.928  0.1369  0.0854  0.1028
73756W        W16772   1.691   0.741  25.934 -0.1314  0.0158 -0.1906
73757W        W16773  27.853  25.958  16.158  0.2058 -0.0596  0.3311
73758W        W16774  18.408   3.502  26.077 -0.1759  0.0271  0.2048
73759W        W16775  11.279   9.155  29.301  0.2602  0.1030  0.2633
73760W        W16776  13.940  12.710   2.834 -0.0337 -0.2653 -0.1765
73761W        W16777  12.439  16.173   4.660  0.0115 -0.0105  0.1293
73762W        W16778  27.296   6.906  21.811 -0.2062 -0.1677 -0.0595
73763W        W16779  27.962  21.449  27.864  0.0957  0.0386 -0.0109
73764W        W16780   8.144  21.663   7.546 -0.0302 -0.0747 -0.2206
73765W        W16781  12.329  15.702  23.759  0.0302 -0.0359  0.0986
73766W        W16782  31.062  17.155   6.209  0.2492 -0.1313  0.0751
73767W        W16783  15.632  26.238   4.216  0.0032 -0.2776  0.2278
73768W        W16784  25.149   4.025   9.256 -0.0941 -0.1048 -0.3581
73769W        W16785  18.420  22.792  25.462  0.2813 -0.0026  0.0217
73770W        W16786  23.552  12.893  21.521  0.0063  0.3150 -0.2426
73771W        W16787  14.207  10.968   7.909  0.1006  0.1540 -0.2187
73772W        W16788  13.290   3.075  28.990 -0.1130 -0.1682 -0.1622
73773W        W16789  25.655  14.766  25.319 -0.0155  0.2539  0.1839
73774W        W16790  20.463   9.637   7.553 -0.2159 -0.1010 -0.1134
73775W        W16791  15.009   9.216  15.268  0.0892  0.0135 -0.1513
73776W        W16792  27.658  25.606  28.705  0.0055 -0.0745  0.1870
73777W        W16793  33.948  34.674  24.093  0.0115  0.0753 -0.0794
73778W        W16794  32.935  18.043   0.182 -0.2570 -0.3781  0.2926
73779W        W16795   9.935  14.437  21.393  0.0834  0.2124  0.2230
73780W        W16796  18.350   5.074   1.532  0.0500 -0.1621  0.0561
73781W        W16797  14.281  26.142  28.550 -0.2072  0.0281  0.1387
73782W        W16798  10.272  21.029  28.077  0.2964 -0.0378 -0.2018
73783W        W16799  24.312  12.811  28.627  0.3921 -0.1883  0.3359
73784W        W16800   3.082  23.639   9.130  0.2031  0.0322 -0.4629
73785W        W16801  18.606  10.709   3.305  0.0272 -0.0175 -0.1069
73786W        W16802  32.001  17.022   6.802 -0.0364 -0.1718 -0.0309
73787W        W16803  14.992  24.386   6.671  0.0482  0.1622 -0.1109
73788W        W16804  15.514   5.582   1.966  0.1439  0.2946  0.1718
73789W        W16805  21.368  21.328  13.628 -0.4344  0.0531 -0.1984
73790W        W16806  11.688  15.546  23.481  0.1825 -0.0211 -0.0340
73791W        W16807  17.950  29.550  22.076 -0.1793  0.1980 -0.3312
73792W        W16808  12.241  14.437  21.114  0.3692  0.2378 -0.2140
73793W        W16809  17.244  30.894  11.214  0.1753 -0.2701 -0.0054
73794W        W16810   7.500  19.288  20.898 -0.1679 -0.0920 -0.0553
73795W        W16811  14.368  13.910  27.972 -0.0158 -0.2651  0.1575
73796W        W16812  21.316  22.698  27.519  0.1961 -0.3455  0.3175
73797W        W16813  14.189  19.286   4.388  0.0712  0.0122  0.0248
73798W        W16814  30.830  12.487   6.642  0.1375  0.1882 -0.2858
73799W        W16815  14.176  10.573  28.458  0.1560  0.1959 -0.1921
73800W        W16816  24.571   6.263  27.443  0.0508  0.0463 -0.1390
73801W        W16817  19.258  32.766  23.225 -0.0846 -0.0825 -0.0099
73802W        W16818  18.616  18.594  14.108  0.0692  0.0985  0.2280
73803W        W16819  12.112   0.691  22.202  0.0037 -0.0468 -0.0347
73804W        W16820  16.293   4.978   2.805 -0.1265  0.0304 -0.0827
73805W        W16821   2.039   5.621  21.607 -0.2267  0.2613  0.2646
73806W        W16822  29.621   0.783   2.401 -0.3288 -0.1348 -0.0835
73807W        W16823  26.831  10.411   2.937 -0.2738 -0.2654 -0.0259
73808W        W16824   6.455   5.461  27.413 -0.0849  0.2315 -0.0038
73809W        W16825   3.028   9.718   4.298  0.1333  0.5428 -0.1505
73810W        W16826  10.834  21.572  26.443 -0.1303  0.3993  0.0906
73811W        W16827  19.292  21.744  19.753  0.0356  0.0463  0.1624
73812W        W16828  13.958  21.972  26.532  0.2763 -0.1296 -0.0147
73813W        W16829  24.281   4.505   4.521 -0.1372 -0.1472  0.2115
73814W        W16830  18.798   5.115   2.831  0.0399 -0.2429  0.1603
73815W        W16831   9.135  14.548  19.442 -0.1367 -0.2330  0.0226
73816W        W16832  10.122  22.850  28.333  0.0898 -0.1032 -0.1595
73817W        W16833   9.722  10.479  20.281  0.2645  0.0959 -0.0375
73818W        W16834  27.580  21.163  10.116 -0.2269  0.0258 -0.0918
73819W        W16835  13.891  10.708   3.197  0.1212 -0.0281  0.2916
73820W        W16836   3.725   8.757  24.319 -0.0193  0.3955 -0.0386
73821W        W16837  12.580   4.937  16.631  0.2414  0.1563 -0.2962
73822W        W16838  31.120   5.140  14.298 -0.0162  0.2276 -0.3260
73823W        W16839   2.956  27.361  14.654  0.0342  0.0209 -0.2317
73824W        W16840  30.761   8.387  23.970 -0.0396 -0.1060  0.4345
73825W        W16841  27.754   8.040   3.382  0.0549  0.0198 -0.1447
73826W        W16842  33.459  34.106   1.225  0.1640 -0.1587  0.0808
73827W        W16843  26.357   7.520   4.864 -0.0623 -0.1048  0.2159
73828W        W16844  28.989  10.024   5.040  0.0381  0.2025 -0.1775
73829W        W16845  17.063  28.802   9.193  0.1996  0.4032  0.0190
73830W        W16846  21.689   1.129   8.261  0.0843  0.0069  0.2524
73831W        W16847  17.275   4.637   9.646 -0.3788  0.0503 -0.1117
73832W        W16848  17.377  29.584  27.332 -0.2647 -0.3709 -0.0222
73833W        W16849   6.853  17.111   5.520 -0.4556 -0.1323  0.1621
73834W        W16850  14.850   7.582   8.327  0.1518  0.0193  0.1949
73835W        W16851  16.546  24.533  25.750 -0.0126  0.1587  0.1707
73836W        W16852  30.706  15.293  18.994  0.0861 -0.1635  0.2721
73837W        W16853   5.707  19.135  22.771 -0.0019  0.0322 -0.1491
73838W        W16854  20.076  15.820  24.134 -0.2437  0.2832  0.0093
73839W        W16855   4.276  23.721  23.444  0.1303 -0.0001  0.0271
73840W        W16856  22.441  22.970  24.489 -0.2987  0.0659  0.0451
73841W        W16857  25.411   4.084  14.840 -0.1444  0.0117 -0.1394
73842W        W16858   9.649  12.594   8.574  0.0311 -0.1691  0.1367
73843W        W16859  14.577  14.111   0.620 -0.1875 -0.1133  0.1053
73844W        W16860  32.345   1.799   6.208 -0.0597 -0.0076 -0.1560
73845W        W16861  12.781  17.224  15.355  0.2788 -0.0862  0.2386
73846W        W16862  32.550  14.898  17.440 -0.0192  0.3947  0.1877
73847W        W16863  30.466  15.121   0.820  0.0560 -0.1312  0.1585
73848W        W16864  30.123  22.220  10.331 -0.0352  0.3716 -0.1626
73849W        W16865   3.028   9.390  24.708 -0.3011 -0.0735  0.0022
73850W        W16866  13.822  15.314   0.714  0.2010 -0.1997 -0.1729
73851W        W16867  18.395  34.382  16.485 -0.1606 -0.0088  0.0413
73852W        W16868  16.849  25.223  26.493 -0.1259  0.4123 -0.0545
73853W        W16869  14.306   7.284   0.484  0.0824 -0.1873  0.0811
73854W        W16870  17.229  18.354   2.624  0.1483 -0.1762  0.1963
73855W        W16871  18.518  23.213   5.563 -0.0883  0.1422  0.1939
73856W        W16872  21.786   9.088  26.817 -0.1005 -0.0979 -0.0932
73857W        W16873   3.669   0.074  10.549 -0.0800  0.2877 -0.0260
73858W        W16874  10.554  11.568   1.559 -0.1025 -0.1782 -0.0620
73859W        W16875  32.450  20.814  25.527  0.0724 -0.0466 -0.1143
73860W        W16876  18.573  10.318   2.904 -0.2549  0.1313 -0.0211
73861W        W16877  29.286  33.455  27.885  0.2416  0.3130 -0.2377
73862W        W16878  12.959  19.078  28.042 -0.1166 -0.0618  0.3437
73863W        W16879  13.248   9.909   9.409  0.1568  0.1746  0.3177
73864W        W16880  17.243   5.970   0.964  0.2253  0.3286  0.1577
73865W        W16881   7.595  31.505  22.108  0.2991  0.2353  0.3422
73866W        W16882  13.972  13.353  24.410  0.2968  0.0066 -0.0201
73867W        W16883   3.174  18.051   7.766 -0.2479  0.0788  0.1258
73868W        W16884  31.785  14.446   1.054 -0.2654  0.0276  0.1463
73869W        W16885  14.491  10.444  28.063 -0.1166  0.1904 -0.0784
73870W        W16886   6.472  10.432   9.056  0.0450  0.6289  0.1348
73871W        W16887  27.799  26.330   5.916  0.0448  0.0195 -0.1028
73872W        W16888  26.736   4.245   5.106  0.1457 -0.0428  0.0157
73873W        W16889  23.494  12.148  28.722 -0.0401  0.0851  0.0464
73874W        W16890  26.358  19.881  29.103 -0.0878  0.1735  0.2538
73875W        W16891  12.277  19.310  28.857  0.0327 -0.4343 -0.1317
73876W        W16892   0.467  30.905  19.718 -0.0236  0.0234 -0.1266
73877W        W16893  32.774   9.284   5.018  0.1379  0.1508 -0.2585
73878W        W16894  18.817  23.243   1.644  0.0102 -0.0531 -0.0353
73879W        W16895  20.936  24.047   6.677  0.0749  0.2138  0.0918
73880W        W16896  25.523   9.489  29.225 -0.2304  0.0763 -0.1241
73881W        W16897  19.128  18.243   2.252 -0.2349 -0.2340 -0.1956
73882W        W16898   9.973  15.654  29.295 -0.2025 -0.1378 -0.0663
73883W        W16899  31.029  12.554  25.900  0.0108 -0.0142 -0.0440
73884W        W16900   0.519  13.922   4.556  0.0082  0.2724 -0.0111
73885W        W16901  12.192  12.563  18.528  0.0876 -0.0462  0.2478
73886W        W16902  21.159   7.046  29.273 -0.2375  0.1168  0.2837
73887W        W16903   6.294  31.548  28.382  0.3682  0.2706 -0.2778
73888W        W16904  26.208  16.871   0.143  0.1930 -0.2312 -0.0214
73889W        W16905   4.679  31.932   3.279  0.2806 -0.3186  0.0061
73890W        W16906  24.086  22.911   1.007  0.2209  0.0164  0.0116
73891W        W16907  29.691   5.824   0.477 -0.2262 -0.1226 -0.3217
73892W        W16908   6.181   7.860  18.510 -0.0319 -0.3172 -0.1366
73893W        W16909  19.770  17.694  27.254  0.5360  0.3194 -0.0835
73894W        W16910   7.463   8.271   3.648  0.2025 -0.0959 -0.1531
73895W        W16911  23.619  25.071   6.843  0.1717 -0.1569  0.1422
73896W        W16912  19.923  16.047   7.051 -0.0829 -0.2823 -0.1099
73897W        W16913  16.076  24.009  18.703  0.0479 -0.0430  0.1670
73898W        W16914  20.359   7.424  20.209 -0.0706 -0.2802  0.0706
73899W        W16915  16.140  26.472   7.167  0.1135 -0.0195 -0.1679
73900W        W16916  22.753  33.621  24.303  0.2301 -0.0790  0.0086
73901W        W16917  25.720  19.668  18.459  0.2444 -0.2092 -0.0779
73902W        W16918  24.430  28.533  11.792 -0.1450  0.1708 -0.3154
73903W        W16919   9.712  12.909  18.086  0.1181  0.0723  0.1740
73904W        W16920  15.316  17.018  21.180 -0.3314  0.3023  0.4462
73905W        W16921  12.438   9.257  29.154  0.3028 -0.2123  0.4707
73906W        W16922  20.743   0.151  17.911 -0.0263  0.2284  0.2045
73907W        W16923  20.289  19.534  21.061  0.2842 -0.0253  0.0381
73908W        W16924  29.444   3.073  22.276  0.0336  0.2852 -0.0032
73909W        W16925   7.458  11.510   4.707  0.1255  0.1816 -0.0171
73910W        W16926  19.429  16.764  23.636  0.1995 -0.0455  0.1929
73911W        W16927   0.633  16.644  28.104 -0.0874  0.3060  0.0107
73912W        W16928   5.261  25.289   6.774 -0.0441 -0.2085 -0.3019
73913W        W16929  16.356  16.205   3.939 -0.0963  0.3667  0.0457
73914W        W16930  17.422   7.638  24.542  0.0576 -0.2982 -0.0747
73915W        W16931  12.690  17.113   2.515  0.3942 -0.5010 -0.0221
73916W        W16932  13.410  23.227   8.182 -0.2785 -0.1790 -0.2725
73917W        W16933  25.598  17.360   4.716 -0.2063  0.0897  0.0895
73918W        W16934  20.363  11.346   7.978  0.1612 -0.3825  0.0093
73919W        W16935   9.874  15.348  14.782  0.0032 -0.3060 -0.0798
73920W        W16936  13.529  14.969  19.390 -0.0841  0.1095 -0.0516
73921W        W16937  14.628   2.667  25.086 -0.1042 -0.0859  0.0172
73922W        W16938  17.059  22.125  25.493  0.1555  0.1130 -0.1575
73923W        W16939  13.153  21.964  14.395  0.0669 -0.2193  0.2994
73924W        W16940  16.867  15.552  22.938  0.1321 -0.3130 -0.1260
73925W        W16941  13.764  14.016  28.587  0.0125  0.3454  0.1855
73926W        W16942  31.591  20.798   9.070 -0.1381 -0.0640 -0.2189
73927W        W16943  32.951   3.507  24.498 -0.1397 -0.0240 -0.2546
73928W        W16944   9.108   6.648   0.538 -0.0850  0.0285  0.0892
73929W        W16945  28.251  27.134  19.523  0.2594  0.0301  0.0452
73930W        W16946   2.951  18.537  26.912  0.0306  0.1623  0.1290
73931W        W16947  16.515  16.480  23.260 -0.0349 -0.0384 -0.1392
73932W        W16948  16.003  24.533  26.121 -0.3276 -0.1131  0.1356
73933W        W16949  21.110  21.436  16.319  0.1388  0.2651 -0.2678
73934W        W16950   8.672  30.268   1.586  0.0620 -0.1073 -0.1383
73935W        W16951  10.581  32.045  28.759  0.1361 -0.0305  0.1200
73936W        W16952  19.840  10.873   8.195 -0.2340  0.0539  0.3502
73937W        W16953  21.161   3.541   4.453 -0.3285 -0.1746 -0.1171
73938W        W16954   6.436   1.882   4.619 -0.0092  0.2676 -0.0343
73939W        W16955   7.910  22.270  19.584 -0.3612 -0.3292 -0.0219
73940W        W16956   2.742   0.985   5.569 -0.2203  0.0005  0.3110
73941W        W16957  10.077  17.542   4.376  0.1996 -0.2092  0.1739
73942W        W16958  11.225  24.189   4.416  0.1540 -0.1803 -0.5435
73943W        W16959  24.473  18.571   8.264  0.1539  0.1973 -0.0154
73944W        W16960  16.343  10.622   1.413  0.1636 -0.1994  0.1371
73945W        W16961  30.381  34.505  25.475  0.2357  0.1086  0.1199
73946W        W16962  13.697  33.838   3.949 -0.0383 -0.2853  0.0055
73947W        W16963  13.417   2.400   3.254 -0.2855 -0.0640  0.0250
73948W        W16964  21.186  21.541   2.333 -0.2488  0.0764  0.2208
73949W        W16965  30.813   7.477   9.959 -0.1527  0.0391  0.0448
73950W        W16966  33.922  18.641   4.793  0.0307 -0.1789 -0.1827
73951W        W16967  18.660  15.212   1.076 -0.1572  0.1320  0.0896
73952W        W16968  14.564  13.977  24.201  0.0547  0.1376  0.1806
73953W        W16969  17.229  18.759  28.148  0.1688 -0.1996  0.3749
73954W        W16970  20.168  15.394  22.092 -0.3574 -0.2972  0.0010
73955W        W16971  33.396  15.531   5.189  0.0102 -0.3404  0.2924
73956W        W16972  11.923  20.137   3.011 -0.1619 -0.0409  0.0776
73957W        W16973  19.983  17.251  21.752  0.3255  0.2445  0.2268
73958W        W16974  16.772  28.062   4.784 -0.1243  0.2248 -0.2465
73959W        W16975  18.614   0.656   1.967  0.0987 -0.3031 -0.0387
73960W        W16976  16.506  18.526   7.348  0.2526  0.2251 -0.0221
73961W        W16977  15.538  19.401   8.037  0.2295  0.0245  0.1231
73962W        W16978  16.898   7.972   0.960 -0.1019  0.1642 -0.1310
73963W        W16979  17.000  10.986   1.600 -0.1069  0.1907  0.0986
73964W        W16980  13.266   9.209  12.629  0.0063  0.3581 -0.4916
73965W        W16981   4.955  10.236  18.068  0.0914 -0.2338  0.1514
73966W        W16982   4.161  17.928  23.449 -0.0189  0.3208 -0.0356
73967W        W16983  13.887  19.390   0.583  0.0704  0.3356  0.3791
73968W        W16984  14.472   9.329   7.174 -0.1559  0.1067  0.1742
73969W        W16985   3.012  16.898   7.828  0.0531 -0.0085  0.2917
73970W        W16986  19.386  12.308  28.063  0.3114  0.0044 -0.0028
73971W        W16987  20.839   7.243   5.863 -0.2128 -0.0556  0.1369
73972W        W16988  11.690  12.944   2.745 -0.0392  0.1928  0.1020
73973W        W16989   8.358  19.508  25.279 -0.0244 -0.0178 -0.0642
73974W        W16990  26.359  14.421  21.412 -0.0460 -0.0748 -0.0842
73975W        W16991  15.459  12.520  12.218 -0.2385 -0.1536  0.1321
73976W        W16992  24.849  23.473  24.224 -0.1011 -0.1831 -0.0013
73977W        W16993   6.932  20.323  15.438  0.3336  0.1913  0.2434
73978W        W16994   3.105  24.312  21.980 -0.0650 -0.2613  0.0439
73979W        W16995  19.093  31.565  18.320 -0.0785  0.1927  0.0881
73980W        W16996  30.130  33.472  27.958 -0.1323 -0.0210 -0.2851
73981W        W16997  11.757  16.837  13.253 -0.0715 -0.1816  0.0386
73982W        W16998   9.822  10.817  14.307 -0.1105 -0.0822  0.2910
73983W        W16999  27.741  16.430  21.456  0.1646 -0.0539  0.1486
73984W        W17000   5.400  19.582  19.516 -0.2520  0.1386 -0.2012
73985W        W17001  21.307  18.890  22.205 -0.0654 -0.1686 -0.1652
73986W        W17002  33.914  23.404  14.705  0.1019 -0.2310  0.1413
73987W        W17003  19.606  29.184  26.902 -0.1856 -0.0536  0.1292
73988W        W17004  21.848  25.569  17.491  0.1428  0.0933  0.3035
73989W        W17005  29.899  28.455  18.775  0.0988  0.3698  0.1342
73990W        W17006  14.313   5.584  21.429  0.1049 -0.2370  0.0969
73991W        W17007  14.119  22.509  21.579 -0.1786 -0.1033 -0.1735
73992W        W17008  20.226   4.990  16.807  0.0105  0.3212 -0.1047
73993W        W17009  23.483   4.346  28.571  0.3259 -0.1642  0.1796
73994W        W17010   1.917  22.768  20.592 -0.0236  0.2432 -0.1427
73995W        W17011  10.733  31.618  20.248 -0.2203  0.1715  0.0815
73996W        W17012  30.006  14.850  21.034  0.1306  0.2628  0.0237
73997W        W17013  32.359   1.910  22.403  0.1993  0.1171 -0.3496
73998W        W17014  20.555  31.340   3.293 -0.0785  0.2700  0.1594
73999W        W17015  15.536  12.628  22.662 -0.0468 -0.0568  0.2779
74000W        W17016   0.415  26.274   1.077 -0.0886  0.1254 -0.2675
74001W        W17017   6.585  10.519  13.976  0.3553 -0.1237 -0.1349
74002W        W17018  16.370  17.102  15.029 -0.3191  0.1086  0.2007
74003W        W17019  21.005  14.048  15.908 -0.1326  0.0795 -0.1361
74004W        W17020  33.597   2.362  24.610 -0.0077  0.1580  0.3171
74005W        W17021   4.074  34.501  21.526  0.0770 -0.1067 -0.2535
74006W        W17022  22.073  15.689  16.130 -0.0526 -0.1032  0.0697
74007W        W17023   9.502   3.971  15.511 -0.1713  0.1053  0.0530
74008W        W17024  13.847   5.461  16.997  0.1676  0.3709 -0.3461
74009W        W17025  17.585  24.497  14.752  0.0788 -0.0197  0.2456
74010W        W17026  14.408  13.799  14.690  0.0306  0.0566  0.0229
74011W        W17027  20.713   8.478  17.689 -0.1745  0.0274  0.1905
74012W        W17028  16.816   2.874  24.027 -0.4065  0.2134  0.2659
74013W        W17029  11.109  16.421  19.496  0.0473 -0.1944  0.1049
74014W        W17030  28.610   6.875  27.991  0.0342 -0.1719 -0.1950
74015W        W17031  16.008   6.747   0.825  0.1165  0.0340 -0.0193
74016W        W17032  24.888   8.715  22.865  0.0037 -0.1150  0.3629
74017W        W17033  25.792  10.204   8.040  0.4610  0.1321  0.0371
74018W        W17034  29.117  22.086  24.029 -0.2148  0.2436 -0.1134
74019W        W17035  20.335   3.092  20.560 -0.1162 -0.0984 -0.1388
74020W        W17036  27.537  12.365  23.560  0.1630  0.0457 -0.2582
74021W        W17037  19.433   5.056  15.192  0.0394 -0.0056  0.0217
74022W        W17038  20.680  26.331  26.087  0.0027 -0.1385  0.2395
74023W        W17039  14.828   3.567  27.100  0.0917 -0.0340  0.1401
74024W        W17040  27.929  14.503  15.897  0.0011 -0.0250 -0.2397
74025W        W17041   8.008  16.210  18.382  0.4443 -0.0154 -0.1212
74026W        W17042   5.822   6.017  14.502 -0.1157  0.2331 -0.0252
74027W        W17043  18.037   2.010  14.945  0.1366  0.1168 -0.1404
74028W        W17044  14.586  12.139  12.448 -0.1839 -0.1059 -0.2463
74029W        W17045   5.477  21.976  16.181 -0.2368  0.2616  0.1439
74030W        W17046   3.479  24.388  20.475 -0.0312 -0.2650  0.0330
74031W        W17047  14.834  25.602  17.217  0.3082 -0.3787 -0.3394
74032W        W17048  22.828  19.678  20.154  0.2527  0.0932 -0.0242
74033W        W17049  31.006  13.800  19.760  0.1477 -0.3586  0.1216
74034W        W17050  34.469  10.548   2.653 -0.1388  0.0728 -0.1648
74035W        W17051  24.732   2.827  26.160 -0.2075  0.2602  0.0094
74036W        W17052   7.074   6.480  27.026  0.1823  0.1664 -0.0847
74037W        W17053  13.049  10.335  28.014 -0.1391  0.1732  0.0557
74038W        W17054  26.289  13.668  17.513  0.2910 -0.0328  0.1682
74039W        W17055  25.313  18.382  16.444  0.1792  0.2447 -0.1135
74040W        W17056  28.617  24.352  17.772 -0.4366 -0.0132 -0.0640
74041W        W17057   6.629  30.160  15.636  0.0640 -0.0670 -0.4247
74042W        W17058   8.459  19.684  14.095 -0.5047 -0.2116  0.2147
74043W        W17059  14.710  14.910  12.231  0.0246 -0.1610  0.0520
74044W        W17060  12.906   5.309   0.328 -0.2248  0.0171  0.0404
74045W        W17061  19.133   1.740  28.041 -0.1953 -0.1209  0.2914
74046W        W17062  16.520  11.448  13.409 -0.0045 -0.1539  0.1323
74047W        W17063   9.895  26.444  19.779 -0.1273 -0.1140  0.1258
74048W        W17064  25.785  18.313  15.576  0.0713  0.1602 -0.1874
74049W        W17065   0.473  13.056  23.772  0.0179 -0.0524  0.0291
74050W        W17066  22.787   6.992  21.408  0.0725  0.1108  0.0125
74051W        W17067  19.387  29.500   4.532  0.2100 -0.1315  0.1396
74052W        W17068  11.707  10.188  20.777  0.0734  0.0237  0.2307
74053W        W17069   2.427   3.380  15.378  0.0867  0.0153  0.2321
74054W        W17070  12.708  23.428  23.297 -0.0845 -0.2450  0.2901
74055W        W17071  21.618   4.559  26.229  0.0065  0.1392 -0.2149
74056W        W17072  20.546  25.262  20.859  0.0004 -0.2226  0.4171
74057W        W17073  23.937  11.117  21.737 -0.0027  0.0632  0.2985
74058W        W17074  11.665   5.546  19.239  0.1857 -0.3802 -0.1805
74059W        W17075  23.864  15.566   6.952  0.0058 -0.1320  0.1941
74060W        W17076  26.652  21.229  22.707 -0.0489  0.0969  0.2420
74061W        W17077  22.613  22.512  25.692 -0.2912 -0.3363 -0.1926
74062W        W17078   8.757  25.243  22.875  0.0297 -0.1095 -0.0794
74063W        W17079   7.955  33.507  14.661 -0.1097 -0.1468 -0.0561
74064W        W17080  25.689   2.556   1.809  0.0666 -0.1213 -0.2305
74065W        W17081   3.149  15.120  18.656 -0.1972  0.1492  0.2819
74066W        W17082  16.872  12.310  13.174  0.2624 -0.2044 -0.2482
74067W        W17083  19.299  24.941   5.489  0.1675 -0.2044 -0.0590
74068W        W17084  12.835  21.607  24.267 -0.0418 -0.3281 -0.1274
74069W        W17085   8.913  10.666  14.117  0.0794  0.0581 -0.0781
74070W        W17086   8.517   8.039  19.163 -0.0200 -0.4240  0.2807
74071W        W17087   7.317  22.427  15.356 -0.1841  0.0600 -0.0505
74072W        W17088  11.225  19.238  13.913  0.0042  0.1767  0.0686
74073W        W17089  26.433  28.700  17.511 -0.4054  0.0915 -0.0469
74074W        W17090  11.657  19.863  11.639  0.1467  0.0558  0.0217
74075W        W17091  12.217  19.034  13.906 -0.0603  0.2360  0.0968
74076W        W17092  11.332   8.932  22.643 -0.0473  0.3702  0.0316
74077W        W17093  15.696  16.655  17.393 -0.1521 -0.3160 -0.0981
74078W        W17094  29.874  33.870  21.811 -0.2723 -0.0604  0.1345
74079W        W17095   6.300  10.102  18.470  0.0756 -0.0094  0.1318
74080W        W17096  20.969  25.021  15.993 -0.0388 -0.1581 -0.0480
74081W        W17097   3.243  20.535  18.340  0.0439  0.3233  0.0178
74082W        W17098   0.952  31.593  15.195 -0.0114  0.0584 -0.0256
74083W        W17099  11.036  31.206  14.809 -0.1962 -0.0712  0.1603
74084W        W17100  13.765   7.862  14.299 -0.1964 -0.0721  0.4121
74085W        W17101  25.204   4.206  22.886  0.0941  0.1381 -0.2082
74086W        W17102  30.894   8.736  26.489 -0.2105  0.2139  0.2532
74087W        W17103  26.930   2.333  25.185  0.0142  0.0582  0.3508
74088W        W17104  19.147  10.636  13.581  0.0665  0.0674  0.1275
74089W        W17105   0.754  24.183  20.265 -0.0878  0.3019  0.0470
74090W        W17106  19.559  27.112   5.308  0.3489 -0.2152 -0.0214
74091W        W17107  13.227  20.902  22.729 -0.2668 -0.0388  0.0215
74092W        W17108  33.507  15.836  15.416  0.0390 -0.0594 -0.2359
74093W        W17109  17.670  18.444  28.070 -0.3308 -0.0713 -0.0923
74094W        W17110  11.847  18.763  14.054  0.2295 -0.1731 -0.0554
74095W        W17111  15.157  34.730  24.278 -0.4204 -0.0966  0.1026
74096W        W17112  22.055   8.186  16.115  0.0068 -0.3570  0.1706
74097W        W17113   3.558  18.348  14.079 -0.3609 -0.0301  0.3672
74098W        W17114  15.777   9.973  14.274  0.1165  0.3182  0.3008
74099W        W17115   5.824  21.216  24.692 -0.2592  0.0671 -0.3371
74100W        W17116  21.385  12.026  24.452  0.0090 -0.1381 -0.0240
74101W        W17117  12.504  28.244  13.465  0.1651 -0.1566  0.2057
74102W        W17118  20.707  26.451   3.203  0.2706  0.0819  0.0536
74103W        W17119  17.462  17.654  19.598 -0.1515 -0.1554  0.0218
74104W        W17120  22.826   2.120   2.121  0.1117 -0.0344 -0.3758
74105W        W17121  25.432   1.392  16.419  0.2733  0.1048  0.0093
74106W        W17122  10.863   4.745  25.252 -0.1638 -0.1946 -0.0689
74107W        W17123  31.934  14.843  19.463 -0.2927  0.2808 -0.0713
74108W        W17124   3.049  19.468  16.575  0.0623  0.1106  0.0229
74109W        W17125  26.841  31.849  27.886 -0.1435  0.1061 -0.2337
74110W        W17126  14.770  19.727  14.526 -0.3576 -0.0180 -0.3084
74111W        W17127  23.983  25.030  21.547 -0.2175  0.2946 -0.2159
74112W        W17128  27.996   6.943   2.871 -0.0329  0.0109  0.4211
74113W        W17129   9.804  23.084  15.374 -0.4738  0.1720  0.0881
74114W        W17130   5.471  25.726  14.823 -0.1893 -0.0607  0.1645
74115W        W17131  16.858  14.808   6.403 -0.3998 -0.1201  0.0963
74116W        W17132  18.632  28.741  17.018 -0.0111  0.3494  0.0486
74117W        W17133   2.004   4.009  21.246  0.1865  0.1389  0.2792
74118W        W17134   7.867  15.940  17.869  0.3148 -0.2089  0.1051
74119W        W17135  11.167  16.634  15.146  0.0492  0.2591 -0.2576
74120W        W17136  22.972  20.972  18.188 -0.3510 -0.2415  0.2380
74121W        W17137  19.318  12.973  15.566  0.2888 -0.1666 -0.0174
74122W        W17138  30.430   3.184  23.381 -0.1228  0.0471 -0.1512
74123W        W17139  24.486  24.772  25.927 -0.1632 -0.0878 -0.4103
74124W        W17140  14.179  19.523  14.257 -0.1438  0.1019  0.2106
74125W        W17141  31.071  24.087  19.376 -0.0622  0.0969 -0.0201
74126W        W17142  10.404   5.358  13.897 -0.1747  0.1268  0.0850
74127W        W17143  19.830  27.902  19.956 -0.0895  0.1868  0.2031
74128W        W17144  12.570  30.908  22.721  0.1255  0.2362 -0.0990
74129W        W17145  17.575   9.176  25.924  0.0976 -0.0370 -0.0933
74130W        W17146  19.869  22.221  25.078  0.2771 -0.0476  0.2338
74131W        W17147  16.668   5.582  17.395 -0.0168 -0.2864 -0.0832
74132W        W17148  15.756  29.502  26.755 -0.0159 -0.1998  0.0874
74133W        W17149  13.221  20.547  21.553  0.1524  0.1183 -0.0014
74134W        W17150  20.337   6.962  24.136  0.2817  0.1964 -0.2038
74135W        W17151  26.673  24.540  10.516  0.2286  0.0917 -0.1058
74136W        W17152   9.981   5.617  23.193  0.0431  0.0729  0.0964
74137W        W17153  10.423  29.026  20.809 -0.0961 -0.1118 -0.0967
74138W        W17154  32.583  29.478  23.425  0.0864  0.0714  0.0625
74139W        W17155   0.818  21.785  16.979  0.0019 -0.0180 -0.0479
74140W        W17156  14.259   8.495  21.853  0.0895 -0.2727 -0.0209
74141W        W17157   1.412  31.295  27.205  0.2256 -0.1886 -0.2218
74142W        W17158  19.494   9.590  22.658  0.0042  0.1226 -0.2591
74143W        W17159  18.550  10.266  28.021  0.2644  0.1568  0.1910
74144W        W17160  34.292  34.609  27.289 -0.2143 -0.0164 -0.1359
74145W        W17161  23.209  18.441  23.144 -0.3032 -0.0751  0.2246
74146W        W17162  11.056  20.848  14.917 -0.4168  0.1765  0.1828
74147W        W17163   6.331   7.042  22.605 -0.1074  0.3542 -0.0986
74148W        W17164   6.562  31.039  22.974  0.2749  0.0943  0.0611
74149W        W17165  13.869  27.449  23.735  0.2228 -0.1316  0.2096
74150W        W17166  11.845  11.409  14.543 -0.1377  0.0052  0.0854
74151W        W17167  13.029  17.448  14.492  0.0190  0.0627  0.2267
74152W        W17168  24.274  12.383  25.004 -0.3152  0.0511  0.2830
74153W        W17169  13.316  17.893  20.590  0.0345 -0.0211  0.1198
74154W        W17170   7.091  26.326  14.693  0.0347 -0.0520 -0.3309
74155W        W17171  15.155   3.168   8.714 -0.1428  0.3847 -0.2416
74156W        W17172   7.886  10.888  25.082  0.1751 -0.2989  0.0075
74157W        W17173  20.374  14.637  13.756 -0.0345  0.1280  0.1191
74158W        W17174   9.162  14.627  14.522 -0.2772 -0.0594 -0.4641
74159W        W17175  11.088   0.385  15.468  0.2917 -0.0061  0.0674
74160W        W17176  26.160  15.372  18.752 -0.2108 -0.1938 -0.0782
74161W        W17177  14.361   9.192  23.617  0.1512  0.0515 -0.0827
74162W        W17178  12.815   7.288  17.319  0.0155  0.0393  0.1636
74163W        W17179  29.277   8.928   9.713  0.2790 -0.1281 -0.0026
74164W        W17180  20.206   7.133  25.410 -0.0044  0.0991 -0.0504
74165W        W17181  16.068  16.733  15.181 -0.2974 -0.1045  0.1855
74166W        W17182   0.763  12.755  16.048  0.5886  0.1494 -0.0454
74167W        W17183  15.130   7.438  13.784  0.0344 -0.1553  0.0852
74168W        W17184  16.815  31.331  27.858 -0.1484 -0.0592 -0.0771
74169W        W17185  23.726  19.711  16.736 -0.1081 -0.0615  0.1715
74170W        W17186  10.948  27.813  17.613  0.3837  0.2403 -0.1443
74171W        W17187  23.114  28.130  22.919 -0.1886 -0.1992 -0.2561
74172W        W17188  20.854  21.762   2.636 -0.0959 -0.4132  0.0500
74173W        W17189  15.086  31.289  28.135 -0.0111  0.2585  0.0990
74174W        W17190  12.095  21.483  15.092  0.0304  0.1008 -0.0557
74175W        W17191   0.815  25.894  19.982  0.1447  0.2113  0.0205
74176W        W17192  13.692  10.700  24.853 -0.0361  0.1733  0.0832
74177W        W17193  22.832  16.765  17.256 -0.0918 -0.0139 -0.0820
74178W        W17194  16.358  18.293  14.219  0.1167  0.4104  0.2479
74179W        W17195  20.114   9.037  16.348  0.1049  0.0510  0.0514
74180W        W17196  18.861  34.132  24.368 -0.1887 -0.1625 -0.2727
74181W        W17197  20.898  24.647  26.018  0.0408  0.1655 -0.1515
74182W        W17198   5.546   2.649   9.283  0.1544  0.1497  0.1101
74183W        W17199  29.173  28.144  16.946  0.0894 -0.3504 -0.3604
74184W        W17200  15.424   0.832  23.293  0.0130 -0.2535  0.0953
74185W        W17201  17.224   1.854  19.733  0.1859  0.1160  0.1939
74186W        W17202   0.997  32.623  17.823 -0.0147  0.2330 -0.0282
74187W        W17203  13.203   2.944  20.315 -0.5312 -0.1640  0.1666
74188W        W17204  15.707  22.847  14.768  0.0601 -0.2405  0.1298
74189W        W17205   8.838  19.635  15.290  0.1991  0.0718 -0.0637
74190W        W17206  17.003  15.534  12.061 -0.1450 -0.2239  0.2166
74191W        W17207  23.829  17.462  16.047 -0.0268 -0.1876  0.0662
74192W        W17208  25.631  11.515  14.509 -0.0777 -0.5463  0.1612
74193W        W17209  16.003  12.234  21.038 -0.0430  0.0957 -0.1111
74194W        W17210  17.401  13.688   7.733 -0.3803 -0.0427 -0.0671
74195W        W17211  14.052   5.814  21.790 -0.0551 -0.2580 -0.5396
74196W        W17212  20.426   3.884  25.612 -0.0117 -0.0874 -0.0358
74197W        W17213  27.579   9.627  15.069  0.1269  0.2559  0.4354
74198W        W17214  20.936  16.512  13.820 -0.0131 -0.1256  0.2369
74199W        W17215  33.665  13.029  21.866  0.5129  0.3086  0.2013
74200W        W17216  27.118  22.482  21.744  0.3005 -0.0593  0.1912
74201W        W17217  14.381   7.929   2.719  0.1115  0.0219 -0.0707
74202W        W17218  15.259   9.900  24.130 -0.2480  0.2215 -0.0244
74203W        W17219  10.329   9.503  15.468  0.1441 -0.1473  0.1052
74204W        W17220  19.356   7.736  24.258  0.1088 -0.2581 -0.1842
74205W        W17221  33.725  22.286  28.626  0.0703  0.1746 -0.2231
74206W        W17222   2.487  24.014   2.181 -0.1020  0.0996  0.0063
74207W        W17223  33.553   3.070  27.826 -0.0587  0.0703  0.1261
74208W        W17224  16.951   5.792  17.786  0.0779  0.1922 -0.2209
74209W        W17225  11.821   5.791  28.066  0.1281 -0.1937  0.0651
74210W        W17226  26.216  14.916  18.547  0.2318  0.1108 -0.2721
74211W        W17227  25.959  14.298  19.802  0.2229  0.0560 -0.2500
74212W        W17228  14.580  13.149  25.058 -0.2108  0.2888 -0.0556
74213W        W17229  13.137  18.517  19.994  0.0492  0.0192 -0.2162
74214W        W17230  17.843  13.901  14.224  0.0668  0.0830 -0.1843
74215W        W17231   9.775  16.981   6.725  0.3204  0.3355  0.0966
74216W        W17232  15.923   0.628  19.044 -0.2665 -0.0754 -0.0972
74217W        W17233  13.862  30.915  20.800 -0.0749  0.1051  0.1356
74218W        W17234  17.277  31.230  20.766 -0.0453  0.1036 -0.0871
74219W        W17235  10.179  24.513  24.539 -0.1939  0.2379 -0.2215
74220W        W17236  10.036  16.212   8.892  0.0365 -0.3551 -0.2667
74221W        W17237  17.292   4.720   2.737 -0.3741  0.0783 -0.0247
74222W        W17238  26.362  18.362  19.416 -0.0610 -0.1317  0.2560
74223W        W17239  31.680  14.896   1.431 -0.2810 -0.4626 -0.0292
74224W        W17240  21.970  29.241  19.624  0.1573 -0.0975 -0.2065
74225W        W17241  24.224  19.466  16.872 -0.0847  0.5579 -0.1352
74226W        W17242   8.118  28.798  18.486 -0.0518 -0.1071 -0.2040
74227W        W17243   2.592   2.463  16.739  0.1020  0.0553  0.0995
74228W        W17244  22.847  15.793  15.607 -0.0443 -0.1996 -0.0112
74229W        W17245  18.058  17.909  12.578 -0.0864  0.0349  0.4368
74230W        W17246   9.013  15.621  16.461 -0.2089 -0.2206 -0.1553
74231W        W17247  20.964  23.952  23.265 -0.0341 -0.0244 -0.1965
74232W        W17248  21.820  18.188  13.853 -0.1393  0.0740 -0.2580
74233W        W17249  30.835  26.946   3.936  0.2469 -0.1134  0.1791
74234W        W17250  12.591   1.282  15.011  0.0845 -0.1434 -0.1227
74235W        W17251   7.332  22.744  18.986  0.2465  0.1300  0.0428
74236W        W17252  17.318  26.014  16.979 -0.1157  0.0425 -0.0049
74237W        W17253  17.028   7.759  25.377 -0.2691  0.3128  0.1819
74238W        W17254   6.838  11.514  25.349  0.1679  0.1072  0.4355
74239W        W17255  16.205  14.433  24.576  0.2278  0.0433 -0.0106
74240W        W17256   2.956  29.291  16.568  0.2874  0.0190 -0.0014
74241W        W17257   9.336   0.457  18.795  0.0795  0.1524  0.0051
74242W        W17258   6.394  17.267   0.242 -0.1986 -0.0162  0.0112
74243W        W17259  10.679  18.392   0.125  0.4535 -0.0965  0.1070
74244W        W17260  29.017  22.104  18.856 -0.1055 -0.1953 -0.1492
74245W        W17261  27.912  11.538  24.171  0.2458 -0.0945  0.0262
74246W        W17262  13.671   3.234  20.980 -0.1551  0.0989 -0.4080
74247W        W17263  19.023   4.797   0.424 -0.1907 -0.1269  0.1269
74248W        W17264   3.291  33.428  20.806 -0.5207 -0.0194  0.2841
74249W        W17265  18.829  15.553  28.135  0.0481  0.0932 -0.1500
74250W        W17266  27.233  25.921  17.906 -0.1411 -0.4201 -0.2690
74251W        W17267  14.330   6.043   1.439  0.1235 -0.0016  0.1315
74252W        W17268  25.072  30.164  14.571  0.0169  0.2576 -0.0984
74253W        W17269  30.841   8.687   1.204 -0.1726  0.0158  0.2590
74254W        W17270  12.716  13.874  16.761  0.3312 -0.0738 -0.1806
74255W        W17271   8.004   4.762   9.579 -0.1324 -0.0037 -0.0498
74256W        W17272  16.102  24.105  17.416  0.0729 -0.0279  0.0655
74257W        W17273  18.124  19.041  22.872  0.0267  0.0953  0.0484
74258W        W17274   3.050  12.980  15.359  0.0350  0.0076 -0.2111
74259W        W17275  10.928  15.723  26.792  0.0943 -0.0082  0.0915
74260W        W17276   5.427  18.667  15.925  0.3490 -0.0094 -0.4076
74261W        W17277  31.527   1.671  18.627 -0.0054 -0.0624 -0.1020
74262W        W17278  27.669  11.694  25.666 -0.1445  0.2262  0.1142
74263W        W17279  17.468  23.543  27.134 -0.2545 -0.0811  0.1354
74264W        W17280  10.542  16.132  19.956 -0.1208  0.0814 -0.1666
74265W        W17281  31.822   5.324  24.086  0.1357  0.0004 -0.2274
74266W        W17282  11.134  14.435  28.161  0.2338  0.0056  0.0788
74267W        W17283  17.891   6.716  19.874  0.2056  0.3154 -0.2324
74268W        W17284  16.584  28.106  19.402 -0.0871 -0.2807  0.3545
74269W        W17285  19.780  13.269  15.104 -0.4160  0.0827 -0.0527
74270W        W17286   9.452   8.509   2.640  0.1162 -0.1920 -0.4167
74271W        W17287  13.531  32.980  17.788 -0.3169 -0.0408  0.1163
74272W        W17288  18.582  24.735  21.141  0.1614  0.2331 -0.1060
74273W        W17289   8.145  17.109  20.856 -0.0904 -0.1465  0.1790
74274W        W17290  24.753  18.577  17.230 -0.2038  0.5324 -0.0450
74275W        W17291  32.800  20.739  15.038  0.1135  0.1228  0.0568
74276W        W17292  20.248   9.346  15.442  0.3981  0.4620  0.2146
74277W        W17293  30.101  24.170  17.773 -0.3346  0.1834 -0.0170
74278W        W17294  22.962   1.530  28.616  0.1452  0.0208  0.1160
74279W        W17295  27.257  21.123  19.326  0.0924  0.0822  0.1732
74280W        W17296  10.428   0.010  26.029  0.1527  0.2523 -0.2308
74281W        W17297  14.845  11.665  14.415 -0.0141  0.2224  0.1661
74282W        W17298  15.126  19.241  22.117 -0.3159  0.1446 -0.3229
74283W        W17299  24.500  27.518  20.974  0.0669 -0.1764 -0.0572
74284W        W17300   0.832  13.044  16.774 -0.0867  0.0515 -0.1081
74285W        W17301  14.129   6.019  16.321 -0.0425  0.2783 -0.1483
74286W        W17302  14.138   6.455  18.373 -0.0023  0.2666 -0.1095
74287W        W17303  10.055  23.536  14.156  0.0977 -0.0677  0.0102
74288W        W17304  12.107  12.926  12.421  0.3252  0.1066 -0.0900
74289W        W17305  11.712  17.395  16.229  0.2178  0.0954  0.1368
74290W        W17306  18.470  28.877  16.246  0.1603 -0.0244  0.3250
74291W        W17307  13.960   4.849  20.822  0.2132 -0.0827 -0.2971
74292W        W17308  14.073  11.707  14.611 -0.0564 -0.0329 -0.3021
74293W        W17309   8.158  13.307  19.215  0.2176 -0.0869  0.0464
74294W        W17310   4.652  11.090  23.887 -0.0808  0.1381  0.0647
74295W        W17311  11.829  10.954  21.843 -0.0828 -0.1123 -0.1796
74296W        W17312  22.632  14.375  18.111 -0.1812 -0.4299 -0.1370
74297W        W17313   1.429  15.433  28.371  0.1127  0.1325  0.1702
74298W        W17314  28.912  33.244  10.868  0.2589  0.0155 -0.0942
74299W        W17315   0.435  20.212  20.577 -0.2041 -0.1808  0.2559
74300W        W17316  14.767   7.020  20.356 -0.3328 -0.0384  0.0566
74301W        W17317   8.114   6.842   1.545  0.1929  0.0987  0.1831
74302W        W17318   4.952  19.050  23.531  0.1039 -0.1770 -0.0280
74303W        W17319  19.978   9.649  13.935 -0.2045  0.0223 -0.0211
74304W        W17320  11.677  30.392  22.260 -0.0953  0.1806  0.1122
74305W        W17321  24.482  25.227  21.650  0.3398  0.1886 -0.1625
74306W        W17322   9.795  30.713  22.754  0.0005 -0.0957  0.3637
74307W        W17323  16.285  23.995  22.717 -0.2172 -0.1786  0.0179
74308W        W17324  12.519  14.528  21.538  0.1615 -0.6034  0.0527
74309W        W17325  10.815  24.212  16.438  0.2213 -0.3081  0.1444
74310W        W17326   8.322  19.131  21.851 -0.0595 -0.1821  0.4146
74311W        W17327   0.995   7.114  16.744 -0.0361  0.0254  0.1028
74312W        W17328  14.801   6.334  28.082  0.0633 -0.3047  0.1049
74313W        W17329   5.833   5.739  23.957  0.2614 -0.0124  0.0856
74314W        W17330  12.536  26.237   5.577 -0.1628 -0.3329 -0.1470
74315W        W17331  16.604   9.375  13.481  0.0397 -0.0746 -0.1713
74316W        W17332  23.781  11.523  20.139  0.0741 -0.2269 -0.0443
74317W        W17333  22.188  11.565  16.333 -0.0091 -0.0506 -0.1238
74318W        W17334  16.698  12.855  14.132  0.1256 -0.1104 -0.2084
74319W        W17335  24.626  26.759  29.035 -0.0264  0.2473  0.2290
74320W        W17336  21.497   5.371  14.949  0.0681  0.2005  0.0683
74321W        W17337  13.674  17.890  13.818 -0.0581  0.2034 -0.5014
74322W        W17338   9.989   8.791  23.820  0.0960  0.0313 -0.0423
74323W        W17339  31.581  24.321   1.506 -0.3066 -0.1501  0.5024
74324W        W17340  15.496   4.637  14.978  0.0363  0.0008 -0.0838
74325W        W17341  10.178  31.716  19.530  0.3003 -0.1069 -0.3592
74326W        W17342  21.517  28.448  19.278  0.3135  0.0954  0.2825
74327W        W17343  14.460   2.212  22.207 -0.0383 -0.0821 -0.2142
74328W        W17344   5.120   6.536  25.780 -0.0729 -0.0384 -0.1871
74329W        W17345  16.456  21.421  14.679  0.2155  0.0652  0.1090
74330W        W17346  13.924  12.871  20.286  0.0608  0.0052  0.1327
74331W        W17347  28.536  28.657  28.144  0.1943 -0.3031  0.0985
74332W        W17348   2.112   6.785  19.821  0.0683 -0.2327  0.1966
74333W        W17349  13.333  31.173  18.724  0.0850  0.0670  0.1870
74334W        W17350   0.676  34.657  18.205 -0.4921  0.0330 -0.0771
74335W        W17351  13.676  16.270  14.572 -0.1344  0.2442 -0.2415
74336W        W17352   5.937   1.577  15.264  0.1768  0.2233 -0.0176
74337W        W17353  21.573  14.288  14.985 -0.2461  0.1967  0.1347
74338W        W17354  28.108  27.994  15.526 -0.0787  0.0346  0.0409
74339W        W17355  33.746  28.495  20.220  0.1827  0.1498 -0.2695
74340W        W17356  18.887  29.150  19.948  0.0107 -0.1242  0.0288
74341W        W17357   4.457  20.373  18.625  0.0451  0.2736  0.1401
74342W        W17358   7.491   6.105  14.255  0.1787 -0.0883  0.0864
74343W        W17359  10.672  15.150  18.505 -0.1252 -0.0191 -0.2421
74344W        W17360  28.583  18.582  14.559 -0.0201  0.4598 -0.1952
74345W        W17361  30.249  23.555   2.240 -0.1690  0.1112  0.1231
74346W        W17362   4.935  32.049  18.783  0.0217  0.1856  0.0009
74347W        W17363  14.767  12.040  18.178 -0.0436 -0.1242 -0.1915
74348W        W17364  22.328  13.133  22.012 -0.0708 -0.0564 -0.1830
74349W        W17365   6.468  24.735  23.815  0.3105 -0.2356 -0.0580
74350W        W17366   7.504  17.525  16.811  0.2424  0.0187 -0.0933
74351W        W17367  13.570   6.156   0.963 -0.1702 -0.0713 -0.1610
74352W        W17368  20.362  28.306  16.088  0.0577 -0.0993  0.1383
74353W        W17369  18.058  11.542  13.920 -0.0218  0.2058  0.2374
74354W        W17370   9.689   2.786  22.132  0.0783  0.3581 -0.0211
74355W        W17371  11.247  33.940  23.138  0.1674 -0.0438 -0.1408
74356W        W17372  18.497  28.726  23.560  0.0633  0.2742 -0.1428
74357W        W17373   4.698   7.738  18.385 -0.1779 -0.3820 -0.0467
74358W        W17374  12.364   6.245  26.730  0.1076 -0.1347  0.0688
74359W        W17375  19.836   5.811  28.883  0.0487  0.1643 -0.0941
74360W        W17376   2.625  30.222  21.614 -0.1706  0.1147 -0.0390
74361W        W17377  20.887  11.225  16.674 -0.2183  0.3267 -0.0185
74362W        W17378  25.485  18.493  17.734  0.0603  0.2033 -0.1220
74363W        W17379  21.165  20.792  22.956 -0.1086  0.0461 -0.0524
74364W        W17380  13.643  23.323  16.543 -0.1039 -0.1157  0.1073
74365W        W17381  30.171   3.141  26.365 -0.0583  0.0617 -0.2354
74366W        W17382  13.492  20.875  15.965 -0.0002  0.3196  0.0061
74367W        W17383  21.148  34.399  22.233 -0.2376  0.1276  0.2397
74368W        W17384  27.975  15.379  17.040 -0.1973 -0.1249 -0.1948
74369W        W17385  26.151  17.126  16.398  0.1712  0.1519  0.0088
74370W        W17386  24.721  22.265  22.532  0.1307  0.3004  0.1387
74371W        W17387  27.182  12.266  18.664  0.3637  0.2348  0.2395
74372W        W17388  15.150  11.980  13.496 -0.3802  0.1344  0.4671
74373W        W17389   8.178  19.194  26.224 -0.0360  0.2015 -0.0887
74374W        W17390  23.936  31.387  19.280 -0.1659  0.2349 -0.2267
74375W        W17391   8.075  10.486  27.758  0.0094 -0.1116 -0.2002
74376W        W17392  27.027  18.070  18.583  0.0254  0.2108  0.1068
74377W        W17393  23.894  16.804  21.121 -0.1972  0.0895  0.2074
74378W        W17394  16.040   7.958  20.196  0.1011 -0.0234  0.2482
74379W        W17395  24.970  20.464  22.614 -0.0075 -0.0359 -0.2270
74380W        W17396  11.280  22.823  18.778  0.6171  0.2305  0.0390
74381W        W17397  23.964  21.127  20.332 -0.0254  0.2335 -0.0049
74382W        W17398  21.533  12.153  16.812  0.1057  0.0533  0.0860
74383W        W17399  23.342  12.478  13.982  0.3400  0.0333  0.0027
74384W        W17400   9.639  20.567  23.071 -0.0693  0.0878 -0.3881
74385W        W17401  13.697  17.652  22.340 -0.1843 -0.1064  0.0307
74386W        W17402   1.860  14.420  19.411 -0.1791  0.0071 -0.0092
74387W        W17403  12.188  32.519  23.104 -0.4013  0.2047  0.0657
74388W        W17404  21.549   6.600  22.009 -0.1371  0.2193 -0.0433
74389W        W17405  15.136  19.120   8.051  0.0866  0.2200  0.3002
74390W        W17406  18.141  23.422  14.643  0.3183 -0.0021  0.1492
74391W        W17407  20.600  14.974  21.034 -0.0251  0.1944 -0.0083
74392W        W17408   9.583  32.583  15.617 -0.1429  0.1105 -0.1216
74393W        W17409  22.402   2.668  28.462  0.2683 -0.1336  0.0113
74394W        W17410  25.626  10.187  18.476 -0.2638  0.1998  0.0014
74395W        W17411  28.225  20.508  22.325 -0.3767 -0.0294 -0.1778
74396W        W17412   6.335  13.414  22.983  0.0275 -0.0908 -0.0662
74397W        W17413   9.908   0.243  15.064 -0.0366 -0.3512  0.0501
74398W        W17414   3.911  26.927  24.814  0.0266  0.2116 -0.4413
74399W        W17415  13.278  14.024  26.842  0.1429  0.0808  0.0920
74400W        W17416  11.269   7.623  17.844  0.1626  0.2952 -0.0370
74401W        W17417  14.731  32.686   0.823  0.0454 -0.1554 -0.0452
74402W        W17418   9.079  15.012  19.850  0.3184 -0.0015  0.0390
74403W        W17419  14.944   7.489  26.453  0.0524 -0.1250 -0.0057
74404W        W17420  14.866   3.997  18.613 -0.0228  0.1215 -0.1837
74405W        W17421  25.154  21.044  18.357  0.1148  0.0250  0.1925
74406W        W17422  23.026  12.961  15.860 -0.0999 -0.3636 -0.0372
74407W        W17423  16.260  21.312  13.863 -0.4278 -0.1296  0.2472
74408W        W17424  13.390  20.518  20.087 -0.1488 -0.2279 -0.1488
74409W        W17425  18.905  25.127   9.127  0.1309  0.1079 -0.1245
74410W        W17426  12.898  12.295   0.054  0.1341  0.0709 -0.1286
74411W        W17427  19.077  10.222  24.626  0.2329  0.1213 -0.1552
74412W        W17428  26.560   8.100  24.759 -0.1692 -0.0846  0.2844
74413W        W17429  13.501  12.591   3.259  0.1736 -0.0053  0.0326
74414W        W17430  24.397  22.560  19.448  0.0516 -0.0045 -0.0819
74415W        W17431  14.695   4.491  20.261 -0.2036 -0.0760 -0.1208
74416W        W17432  22.967  12.254  24.447  0.3172  0.0969  0.1189
74417W        W17433  27.377  24.751   5.704 -0.0584  0.3010 -0.2243
74418W        W17434  11.374   6.823  20.960  0.1498 -0.0042 -0.0377
74419W        W17435  15.767   0.950  22.575  0.2817 -0.3485 -0.3559
74420W        W17436   4.242  27.628  16.168  0.1035 -0.3663 -0.1204
74421W        W17437  25.521   7.593  23.400 -0.1929  0.1107  0.1215
74422W        W17438   0.711  25.726   8.316  0.2417 -0.0271 -0.2137
74423W        W17439  26.755  16.899   4.143  0.0889 -0.2632  0.2183
74424W        W17440  30.341  28.491  25.041 -0.0540 -0.0078 -0.0160
74425W        W17441  10.074  28.109  19.304  0.1263  0.0148 -0.2081
74426W        W17442  32.686  17.743  20.141  0.1453 -0.4280  0.0199
74427W        W17443   0.837   8.147  25.529  0.1500  0.0688 -0.2544
74428W        W17444  14.449  12.586  12.696 -0.0709  0.1671  0.0735
74429W        W17445  22.791  14.276  15.054 -0.0762 -0.1591  0.2388
74430W        W17446   2.215  31.742  16.239  0.0500 -0.3926  0.0346
74431W        W17447  24.640  10.092  28.602 -0.0266  0.3421  0.1840
74432W        W17448   6.843   8.771  14.994  0.6637 -0.3101 -0.1534
74433W        W17449  19.099  24.297  17.547 -0.0433  0.1299 -0.0601
74434W        W17450   2.685  24.677  19.386 -0.0970  0.1304 -0.1920
74435W        W17451   7.725  22.634  18.597  0.1810 -0.2975  0.1203
74436W        W17452  20.982  24.994  24.082  0.0994  0.5485 -0.1320
74437W        W17453  18.026  16.424  16.441 -0.0632 -0.0513 -0.0281
74438W        W17454  19.337  14.463  27.270  0.1355  0.0450  0.3089
74439W        W17455  33.864   7.487  24.315 -0.0785 -0.0149 -0.1739
74440W        W17456  23.517  23.047   6.696  0.1293  0.2910 -0.0589
74441W        W17457   9.154  14.285   0.734  0.2581 -0.1264  0.1591
74442W        W17458   7.491  14.047  13.900 -0.0702  0.0580  0.0334
74443W        W17459  25.805  15.610  23.401 -0.0332  0.0343  0.0370
74444W        W17460  26.179  11.174   0.797 -0.1708 -0.1504 -0.3054
74445W        W17461  30.288  13.392   4.620  0.0944  0.0914 -0.0632
74446W        W17462  12.271  26.110  16.995  0.0013 -0.0435  0.0740
74447W        W17463  27.621   7.770   6.380  0.2148 -0.0957 -0.2352
74448W        W17464  12.900  25.632  23.135 -0.0334 -0.0660  0.0587
74449W        W17465  11.113  33.413  23.250  0.1415 -0.0413  0.0946
74450W        W17466  20.675  24.378  12.954  0.3037  0.0912  0.0629
74451W        W17467   8.331  13.799   1.905  0.3178  0.1537  0.1011
74452W        W17468   9.985  18.964  21.575  0.0511 -0.1129 -0.1663
74453W        W17469  24.754  18.563  24.967 -0.0528 -0.1825 -0.0289
74454W        W17470  19.008  28.244  17.980 -0.2416 -0.0980 -0.5306
74455W        W17471   4.929  16.730  16.258 -0.0009 -0.1271 -0.1774
74456W        W17472  25.445  26.985  20.194  0.0464  0.0241  0.0704
74457W        W17473  24.028   1.910  24.117 -0.1338 -0.0242  0.2854
74458W        W17474  25.299  18.949  16.571  0.3269  0.1508  0.2189
74459W        W17475  18.659  29.742  25.016 -0.0159 -0.0446 -0.0911
74460W        W17476   4.174  24.264  17.839  0.0705  0.4362  0.0028
74461W        W17477  10.031   2.371  18.971  0.0617 -0.0191 -0.0246
74462W        W17478   7.787  29.871  15.207 -0.1347 -0.2877 -0.0930
74463W        W17479   5.437  25.666  14.294  0.0518  0.0541  0.0668
74464W        W17480  17.004  16.574  13.662  0.3384  0.2601 -0.0105
74465W        W17481  15.552  14.142   1.552  0.2334  0.0745  0.2073
74466W        W17482   9.614  30.289  15.160 -0.0533  0.0149 -0.0167
74467W        W17483  10.584   5.132  23.905 -0.1240 -0.1678 -0.0657
74468W        W17484  17.025  11.006  14.668 -0.2267  0.2019  0.2901
74469W        W17485  20.460  26.145  22.865 -0.2018  0.1091 -0.0963
74470W        W17486   9.747  14.143  18.432 -0.0794  0.2696  0.2058
74471W        W17487  20.677  12.887  22.685 -0.1140 -0.1168  0.0167
74472W        W17488  24.149  15.799  14.719  0.3796  0.3078 -0.0489
74473W        W17489  26.984   6.613  25.375 -0.0647 -0.0214  0.0137
74474W        W17490  25.249   7.139   5.635 -0.0591  0.1703 -0.4938
74475W        W17491  22.676  25.848  14.987 -0.0988  0.0330  0.0619
74476W        W17492   7.506  23.167  20.642 -0.3902 -0.1130  0.2516
74477W        W17493   6.895  18.261  21.598 -0.0870 -0.1146  0.1717
74478W        W17494  13.011  20.830  21.119  0.1953 -0.1343 -0.0812
74479W        W17495  18.064  23.443  25.922 -0.2074  0.0043  0.0315
74480W        W17496  25.033   5.015  28.808 -0.2576  0.4755 -0.1159
74481W        W17497  10.095   6.493  17.648  0.1204 -0.2999  0.0189
74482W        W17498  26.046   8.889  28.171  0.0797 -0.0432 -0.1125
74483W        W17499  31.040  29.960  21.815  0.3336 -0.1285  0.0702
74484W        W17500  22.585  18.534  13.310  0.2580  0.0268 -0.0009
74485W        W17501  18.363  19.124  13.110 -0.4727 -0.1761  0.2918
74486W        W17502  22.185  19.586  15.361  0.1078  0.1282  0.2396
74487W        W17503  21.734  31.636  26.598  0.0500 -0.0621  0.2309
74488W        W17504  16.307  29.039  23.053 -0.1540 -0.2371  0.2308
74489W        W17505  17.530  29.046  19.335 -0.0600  0.1807  0.1160
74490W        W17506  24.259  10.640  20.396 -0.0534 -0.1734  0.1195
74491W        W17507  13.177  32.349  14.788 -0.2498 -0.2367  0.1577
74492W        W17508  16.080  14.771  13.432 -0.1927  0.2734  0.0623
74493W        W17509   4.874  10.676  17.291  0.1401 -0.0331  0.2474
74494W        W17510  10.048  29.144  17.184 -0.0745 -0.0801  0.0377
74495W        W17511  15.580  26.736   7.999  0.1397  0.2114 -0.0452
74496W        W17512  12.397   7.500  25.417  0.0974 -0.2230 -0.0276
74497W        W17513   8.552  25.654  17.902  0.0616 -0.0087 -0.2706
74498W        W17514  19.435  10.425  18.277 -0.0425 -0.0110  0.2865
74499W        W17515  20.926  14.643  15.904  0.0180 -0.1822  0.4121
74500W        W17516  15.423  30.648  18.297  0.2281 -0.4375 -0.0941
74501W        W17517  22.674   0.024  27.308  0.2532  0.0350 -0.0207
74502W        W17518  23.160  18.366  21.876 -0.2574  0.1942  0.0726
74503W        W17519   6.696  12.226  16.915  0.2073 -0.0305 -0.0041
74504W        W17520  17.800  27.023  17.549 -0.0529  0.5356 -0.2072
74505W        W17521   5.785   2.270  23.349 -0.1070  0.1478  0.0657
74506W        W17522   8.515  16.213  17.830 -0.0018  0.1063  0.1502
74507W        W17523   7.088  24.776  16.763 -0.1156  0.1254  0.0249
74508W        W17524  13.262  24.208  17.015  0.1065  0.0861  0.1575
74509W        W17525  26.709  25.767  24.271 -0.2794 -0.2799  0.2441
74510W        W17526  29.954   8.394  21.233  0.2153 -0.3727  0.0158
74511W        W17527   7.283  25.554   0.391  0.0577 -0.4904 -0.0246
74512W        W17528   8.435  24.756  27.546  0.0183 -0.0167  0.0424
74513W        W17529  12.804  33.009  18.994 -0.2790 -0.0416  0.1127
74514W        W17530  29.631  26.523  24.783 -0.0803 -0.1530 -0.2651
74515W        W17531  21.898  25.557  27.514 -0.0180 -0.1450  0.0156
74516W        W17532  18.636  25.270  18.957  0.0350  0.2430  0.0625
74517W        W17533  14.885  17.781   6.864  0.1945  0.1389  0.0582
74518W        W17534  21.486  14.843  16.301 -0.0131  0.3839  0.1410
74519W        W17535  29.289   9.673  18.223 -0.0421  0.0395 -0.0204
74520W        W17536  19.090   7.752   0.133  0.2020 -0.0251 -0.1988
74521W        W17537   5.672  15.352  23.226 -0.1999  0.0329  0.1609
74522W        W17538  15.522  12.447  15.707  0.1546  0.0237  0.0121
74523W        W17539  33.365   4.906  21.715  0.4564  0.1583  0.0280
74524W        W17540  16.400  10.827  26.144 -0.0139  0.1122 -0.3568
74525W        W17541  14.589  33.262  23.965  0.1550 -0.0064  0.1964
74526W        W17542   1.394  16.931  21.383  0.1255  0.0150  0.1474
74527W        W17543   7.671  15.663  16.463  0.0488 -0.0386  0.0380
74528W        W17544  17.927  22.990   0.522  0.0396 -0.1753 -0.2408
74529W        W17545  15.892  21.666  12.486 -0.1589 -0.1858 -0.0367
74530W        W17546  22.682   6.172  23.594 -0.2054  0.2256  0.1115
74531W        W17547  32.058  15.735  21.241  0.2579  0.1824 -0.0932
74532W        W17548  27.400   5.917  20.231 -0.0562 -0.0504 -0.1551
74533W        W17549  19.087  29.152  15.264  0.0286 -0.2255  0.0344
74534W        W17550  10.911   8.704  23.623  0.1240  0.2397 -0.0364
74535W        W17551   6.985  12.823  16.276  0.0639 -0.1387 -0.2769
74536W        W17552  22.595  19.536  20.585  0.0395  0.4279  0.1207
74537W        W17553  19.726   8.176  14.342 -0.0063 -0.1295 -0.0453
74538W        W17554  11.030  12.543  23.429  0.0599 -0.2356  0.0466
74539W        W17555  13.245  17.247  25.483 -0.0687 -0.1741  0.0328
74540W        W17556   8.491  23.946  14.821  0.0210 -0.2898 -0.1053
74541W        W17557  13.633  12.338  28.299 -0.0746  0.0467  0.4115
74542W        W17558  25.234  19.044  17.030 -0.0649 -0.2837 -0.0619
74543W        W17559  25.068   2.039  16.553 -0.0549 -0.0989 -0.0611
74544W        W17560  20.059  26.621  23.673 -0.0447 -0.1394  0.0212
74545W        W17561   2.809  34.685  26.485 -0.0320  0.1565  0.3193
74546W        W17562   9.954   0.274  17.374 -0.1812 -0.1204  0.1729
74547W        W17563   8.865  26.719  13.598  0.1080 -0.1120 -0.1579
74548W        W17564  20.230  11.753  13.233 -0.5329 -0.1703 -0.0376
74549W        W17565  26.269  30.258   0.320 -0.0903  0.0127  0.2180
74550W        W17566  25.189  13.851  18.220 -0.3306  0.2833  0.0324
74551W        W17567  23.745  17.118  13.367  0.1792 -0.2175  0.0582
74552W        W17568  19.042   9.780   0.334  0.2245  0.1269  0.2675
74553W        W17569  28.727   9.098  25.664  0.0434  0.2953 -0.1764
74554W        W17570  19.901  16.717  23.469  0.1213  0.2757 -0.0630
74555W        W17571  17.523   4.203  23.546  0.3899 -0.0966 -0.3238
74556W        W17572  29.995  25.686  22.271 -0.2305 -0.0246  0.2171
74557W        W17573  21.853  21.568  26.844  0.0901  0.1531  0.3765
74558W        W17574  11.710   4.832  20.857 -0.2442 -0.1905  0.1188
74559W        W17575  14.267  13.497  14.248 -0.0859 -0.1285  0.0344
74560W        W17576   8.469  17.033  18.007 -0.0848  0.1214 -0.0736
74561W        W17577  23.336  13.274  16.111 -0.1331  0.0786  0.1345
74562W        W17578  22.580  26.023  20.491 -0.0016 -0.0027 -0.0228
74563W        W17579   9.843   7.323   0.353 -0.3697  0.0267  0.3140
74564W        W17580  23.440  10.497  20.642  0.3648 -0.2191 -0.5574
74565W        W17581  22.466  15.547  14.735  0.1737  0.0072 -0.0343
74566W        W17582  24.983  20.120   0.649 -0.0894 -0.0187 -0.3124
74567W        W17583  12.535  13.997  13.516  0.0094 -0.2289 -0.3111
74568W        W17584   4.100   3.950   2.081 -0.0213  0.1975  0.2306
74569W        W17585  20.719  13.236  17.397 -0.2867  0.1955  0.2793
74570W        W17586   2.609  14.881  15.130  0.0675  0.0781  0.1152
74571W        W17587  20.989  30.664  26.707 -0.0074  0.1647 -0.0758
74572W        W17588   3.460  25.423   3.702 -0.0189  0.2976 -0.1347
74573W        W17589  19.140   5.589  19.033 -0.1603 -0.0749 -0.2904
74574W        W17590  10.425   3.610  16.837  0.1362  0.3212  0.0997
74575W        W17591  23.887  32.465  23.244  0.1529 -0.0074  0.2575
74576W        W17592  24.245  11.200  17.266  0.0267  0.2188 -0.1928
74577W        W17593  16.227  25.788  14.043  0.0934  0.1777 -0.2381
74578W        W17594  14.936  13.510  12.650  0.4092  0.1293 -0.3027
74579W        W17595   4.229  28.645  18.515  0.2192  0.0986 -0.4865
74580W        W17596  19.252  14.307  21.102 -0.0668 -0.0534  0.1305
74581W        W17597  27.001  20.779  22.086 -0.1654  0.0101  0.0297
74582W        W17598  13.911  26.547  20.054  0.1102  0.0663  0.3214
74583W        W17599   3.373   5.391  26.056 -0.1104  0.0366 -0.0570
74584W        W17600  13.437  16.063  23.406  0.0750 -0.2185  0.0914
74585W        W17601  21.045  25.307  27.690 -0.2276 -0.3476  0.3098
74586W        W17602  20.715  11.561  14.228  0.1976 -0.1388 -0.0058
74587W        W17603   8.338  22.238   1.076  0.0160  0.2034  0.2712
74588W        W17604  18.566  22.371  17.257 -0.0701  0.0249  0.0019
74589W        W17605  17.508   9.180  14.440  0.2991  0.1752 -0.0955
74590W        W17606  27.645   6.809  16.175 -0.0965  0.1660 -0.1109
74591W        W17607  21.376  29.860  18.196  0.1939  0.2371 -0.0508
74592W        W17608   6.009  15.386  18.622 -0.1823  0.1067 -0.1036
74593W        W17609   1.949  12.782  16.207  0.4719  0.0209  0.1379
74594W        W17610  30.356  26.145   4.908  0.0406 -0.0980  0.0905
74595W        W17611  31.962  16.710  25.513 -0.1735 -0.1146 -0.0053
74596W        W17612  20.452  10.220  13.445  0.0850 -0.4023  0.2364
74597W        W17613  12.011  12.022  19.753  0.2972 -0.0023  0.0854
74598W        W17614  18.425  13.250  20.913 -0.1623 -0.2675 -0.0534
74599W        W17615  27.227  19.086  20.219  0.3565  0.1355 -0.3579
74600W        W17616  15.977  22.718  16.341  0.2317 -0.2123 -0.1004
74601W        W17617  16.113   4.839  16.928 -0.2667  0.0230  0.1471
74602W        W17618   9.596  29.021  24.761  0.1966  0.3156 -0.2293
74603W        W17619   6.522  12.301  17.881 -0.4172 -0.0887  0.0835
74604W        W17620   7.634  18.535  19.734  0.0810 -0.0389 -0.4145
74605W        W17621  24.937  14.505  23.692 -0.0256 -0.0216 -0.0257
74606W        W17622  16.442  22.682  12.578  0.0238 -0.2804  0.3249
74607W        W17623  15.021  26.268   2.703  0.1390 -0.1011 -0.2322
74608W        W17624  12.390  23.132  15.785 -0.0800 -0.1083 -0.1159
74609W        W17625  23.165  23.737  19.113  0.1908  0.3253  0.3537
74610W        W17626  33.723   4.457  20.268 -0.0939  0.0343  0.0003
74611W        W17627   0.390  17.384   5.016  0.3410  0.1967 -0.1084
74612W        W17628  20.878  29.356  17.803  0.0930  0.1977 -0.1705
74613W        W17629  19.706  22.554  16.485  0.2440 -0.2472  0.1381
74614W        W17630  13.252  16.532   0.589 -0.4300  0.1594  0.1554
74615W        W17631  14.504  25.230  16.603 -0.1328  0.0099  0.0733
74616W        W17632  34.197  17.380   9.142  0.1847 -0.0563  0.3313
74617W        W17633   7.308  20.043  19.423 -0.2093 -0.0224  0.1757
74618W        W17634   2.973  30.464  28.215 -0.2851 -0.1085  0.1428
74619W        W17635  31.146  16.192  29.253  0.0101 -0.0196 -0.1265
74620W        W17636   8.664  23.057  14.164  0.2193  0.0984 -0.0429
74621W        W17637   6.429   8.631  25.749  0.2759 -0.1050  0.1189
74622W        W17638  21.915  26.093  17.478  0.1039 -0.0657  0.2078
74623W        W17639  30.622  34.189  16.434  0.0533  0.0220 -0.2416
74624W        W17640  30.411   4.632  20.060  0.1958  0.1653  0.0494
74625W        W17641   0.565   4.333  23.510 -0.0667 -0.1184  0.1191
74626W        W17642  13.647  33.679   1.855  0.1009 -0.3735  0.0873
74627W        W17643   1.117  28.209   2.331 -0.0715 -0.1704  0.0708
74628W        W17644   8.233  23.128  15.195 -0.2149  0.1179  0.1183
74629W        W17645  25.345  33.749  15.940 -0.0194 -0.0696  0.0440
74630W        W17646  30.211  12.130  18.621 -0.0750 -0.0756  0.1870
74631W        W17647  15.112  21.475  22.723  0.2622  0.1660 -0.0868
74632W        W17648  12.153  27.840  14.791 -0.0041  0.0207 -0.0823
74633W        W17649   8.306  25.385  22.540 -0.0160  0.2068  0.1513
74634W        W17650  19.463  11.053  14.659  0.1397  0.3424  0.0513
74635W        W17651  27.173  22.474  26.868 -0.2206 -0.0171 -0.1263
74636W        W17652  20.719   9.870  18.011 -0.0230 -0.2297  0.2039
74637W        W17653  18.750   7.119  25.184  0.1826  0.4276 -0.0148
74638W        W17654   7.325  17.967  23.275  0.0131  0.1992  0.0369
74639W        W17655   4.466  19.557  19.497 -0.1309 -0.0253 -0.1754
74640W        W17656  23.326  14.166   6.922 -0.1478  0.0768 -0.0097
74641W        W17657  33.391  13.748  21.868 -0.0206  0.2574 -0.1147
74642W        W17658  24.943  28.103  23.330 -0.1464  0.0142 -0.1948
74643W        W17659  25.327   4.419  27.547 -0.1546 -0.0131  0.0953
74644W        W17660  18.636  25.775  18.740 -0.1182  0.1084  0.2518
74645W        W17661   0.202  17.809   1.403  0.0447 -0.1827 -0.3188
74646W        W17662  23.984  18.162  22.257  0.3437  0.0908  0.3491
74647W        W17663   0.108  27.606  18.650 -0.3334 -0.1582 -0.1703
74648W        W17664   7.601  10.650   2.459  0.4304 -0.1982  0.1159
74649W        W17665  32.419  22.611  17.089  0.1281  0.2300  0.1124
74650W        W17666  16.253  13.245  21.892  0.0494  0.2634  0.3639
74651W        W17667  17.146  24.798  27.425  0.4645  0.0857 -0.1857
74652W        W17668  13.642  11.671  12.215 -0.2756  0.0218  0.0602
74653W        W17669  32.168  15.245   1.754 -0.1638  0.1124  0.1888
74654W        W17670  15.927  25.105  26.950 -0.0326 -0.1240 -0.0516
74655W        W17671  20.699  28.113  18.741  0.0641 -0.1800 -0.0412
74656W        W17672   6.815  29.651  17.507  0.2836  0.0715  0.0270
74657W        W17673  29.458  12.632  18.960  0.0165  0.1074 -0.2386
74658W        W17674  15.454   3.955  17.862 -0.1004 -0.0871 -0.3926
74659W        W17675  18.454  14.968  13.156  0.2305 -0.2303 -0.0880
74660W        W17676  12.152  15.288  13.279 -0.0150  0.1944  0.0747
74661W        W17677  23.147  24.353  14.540 -0.1077  0.1063 -0.0775
74662W        W17678   9.085  23.124  27.989 -0.0632 -0.0788  0.1058
74663W        W17679  26.229  18.638   4.328 -0.2965  0.1401 -0.0638
74664W        W17680  34.008  11.269  15.752  0.0624  0.2495  0.0998
74665W        W17681  29.122  29.234  20.030  0.2607  0.0735 -0.2675
74666W        W17682  31.875  21.757  18.898 -0.1990 -0.0130 -0.1327
74667W        W17683  26.298  13.256   1.191 -0.4132 -0.2261 -0.1927
74668W        W17684  32.094  16.308  21.530  0.0767 -0.0069 -0.1657
74669W        W17685   4.506  11.452  23.027 -0.1870  0.0676 -0.0774
74670W        W17686  21.444   5.476  17.197 -0.0092 -0.0681 -0.0870
74671W        W17687  13.648  10.705   2.145  0.0267  0.0620 -0.1451
74672W        W17688   9.859  16.823  13.815 -0.1296 -0.0817  0.2008
74673W        W17689  14.497  24.539  18.438 -0.1333  0.2454  0.0123
74674W        W17690  19.311   9.932   2.501  0.4068  0.0649  0.0338
74675W        W17691  25.373  20.985  14.775 -0.1194  0.1172  0.3427
74676W        W17692  13.788   3.182  21.478  0.2818  0.2173 -0.0476
74677W        W17693   0.955   7.515  18.598  0.3284  0.0869 -0.0099
74678W        W17694  24.571  15.365  24.151  0.5790 -0.0554 -0.2127
74679W        W17695   6.182  16.546   8.767  0.1138  0.2480 -0.2177
74680W        W17696   9.315  20.158   3.277 -0.3591 -0.0237  0.2136
74681W        W17697  20.943  10.079  23.125 -0.1601  0.1217  0.0144
74682W        W17698   9.304  27.086  21.604 -0.0622  0.3388 -0.2402
74683W        W17699  12.643   1.650  24.742  0.0791  0.0342  0.4008
74684W        W17700  28.841  15.416  19.237  0.2895  0.2281 -0.0639
74685W        W17701  18.453  31.097  20.967 -0.0131 -0.0994  0.0086
74686W        W17702   3.384  17.461  28.273  0.1476  0.1783 -0.0322
74687W        W17703  23.956   3.346  15.751 -0.0226  0.1721  0.0922
74688W        W17704  19.156   7.147  16.215 -0.0926 -0.2598 -0.1288
74689W        W17705  18.947  13.661  12.948 -0.2758  0.0084 -0.0623
74690W        W17706  23.168  15.209  17.113  0.1926  0.3880  0.3021
74691W        W17707  20.958  19.713  15.674 -0.1538  0.2584  0.3609
74692W        W17708   3.232  34.446  15.287  0.0522 -0.1566  0.1720
74693W        W17709  20.214  24.002  13.816 -0.3599  0.2305  0.2622
74694W        W17710  24.595  14.972  21.621  0.1223  0.0731 -0.2669
74695W        W17711  23.811   3.950  18.435  0.1428 -0.1153 -0.1062
74696W        W17712  20.765  25.454  20.398 -0.1663  0.0278 -0.4753
74697W        W17713   7.858  16.507  23.308  0.4208  0.1636  0.2627
74698W        W17714  14.299   5.333  15.724 -0.0873 -0.2048 -0.2365
74699W        W17715   7.762  13.434  15.995  0.3402 -0.0246  0.1298
74700W        W17716  21.268  16.130  16.086  0.0075  0.0726  0.0720
74701W        W17717  22.523  27.728  21.825 -0.0845 -0.0717 -0.0069
74702W        W17718  14.776  23.072  25.051  0.3849  0.2249  0.1378
74703W        W17719  25.617  28.849  23.116 -0.1358 -0.2068  0.0204
74704W        W17720  18.140  10.260  26.966  0.0067 -0.2869 -0.1165
74705W        W17721  24.021  22.144  16.748  0.0764  0.4487 -0.3019
74706W        W17722  12.278  13.346  12.817  0.2638  0.0383  0.0702
74707W        W17723  12.081  20.164  17.120 -0.2576 -0.0525 -0.4644
74708W        W17724  21.255  26.885  29.309  0.0889  0.0628 -0.0738
74709W        W17725  10.432  34.496  14.383  0.1674  0.4422 -0.0557
74710W        W17726  11.514  31.975  25.131 -0.2355  0.2593 -0.0323
74711W        W17727  21.440  13.847  13.341 -0.1934 -0.1013  0.2175
74712W        W17728  15.047  21.895  12.201  0.1819  0.0487  0.1895
74713W        W17729  11.157   1.114  22.374  0.1635 -0.0781 -0.4002
74714W        W17730  16.946  12.081   2.303 -0.2084 -0.0302  0.2895
74715W        W17731  10.223  16.900  19.321  0.0944 -0.2961  0.1691
74716W        W17732   4.354  24.201   3.419 -0.0532 -0.0924  0.2759
74717W        W17733  26.946   6.091   4.806 -0.0136 -0.0874  0.1090
74718W        W17734  13.885   2.053  25.195  0.5173  0.1028 -0.3287
74719W        W17735   0.198   2.137  22.709 -0.0170 -0.0041 -0.0205
74720W        W17736   2.225  28.028  21.813 -0.1499  0.0642 -0.3253
74721W        W17737  18.506  32.662  15.387  0.0866 -0.0177 -0.1623
74722W        W17738  24.118  27.639  15.284 -0.1392 -0.3666  0.1834
74723W        W17739  24.060  12.900  18.861 -0.3484 -0.3407 -0.4115
74724W        W17740  17.236  17.141  13.688  0.1764  0.1974  0.2389
74725W        W17741  28.211  25.124   5.993  0.2268 -0.1853  0.1809
74726W        W17742  20.528   5.033  18.665 -0.0597  0.0813 -0.0208
74727W        W17743  22.345  23.061  14.692  0.1395  0.0430 -0.0456
74728W        W17744  11.518   9.050   8.843  0.0293 -0.1086  0.0424
74729W        W17745  20.007  26.098   4.543 -0.0911  0.0417  0.2163
74730W        W17746  18.551  26.715  14.649  0.0717 -0.0019 -0.0572
74731W        W17747   4.450  14.010  19.308  0.2080  0.1126 -0.1459
74732W        W17748  14.805  18.240   3.532  0.1946 -0.2861  0.0790
74733W        W17749  16.894   3.521  14.094 -0.0134  0.0558 -0.2006
74734W        W17750   2.786  18.705  26.475 -0.3004 -0.0027 -0.0800
74735W        W17751   9.301  13.473  20.990 -0.2850 -0.0121 -0.2774
74736W        W17752  24.206  16.029   6.708 -0.1894  0.2519  0.2086
74737W        W17753  27.300  34.430   2.641 -0.1437  0.1542 -0.1073
74738W        W17754  16.334  19.684  15.940  0.3035  0.1759 -0.1924
74739W        W17755  27.310  19.301  15.439 -0.3997  0.0816 -0.1720
74740W        W17756  22.409   3.093  18.215 -0.2200  0.0080 -0.1597
74741W        W17757  14.410  14.445  19.760 -0.0866 -0.2213 -0.1103
74742W        W17758   2.790   8.740  20.368  0.2811 -0.2597 -0.2005
74743W        W17759  13.126   5.021  17.406  0.0911  0.0565 -0.1662
74744W        W17760  15.864  34.387  17.964 -0.0178 -0.1967  0.2767
74745W        W17761  23.319  19.439  19.416  0.1493  0.1734  0.1401
74746W        W17762  23.593   2.531  16.587  0.0399 -0.0317 -0.0497
74747W        W17763  15.680  20.446  14.757 -0.1283  0.1149  0.1451
74748W        W17764  25.807  27.247  23.764 -0.1070  0.0662  0.2464
74749W        W17765  23.383  15.509  22.235  0.1648 -0.0078  0.1550
74750W        W17766  16.742  28.317  15.460  0.0962 -0.0001  0.1168
74751W        W17767  18.771  31.269  27.753  0.1125  0.0261  0.1435
74752W        W17768   6.994   8.597  27.171  0.1494  0.0852 -0.0549
74753W        W17769   3.498  12.284  15.124  0.0168 -0.1254 -0.0104
74754W        W17770  23.733   0.205  26.985  0.0521 -0.0902  0.0582
74755W        W17771   0.669  17.910  17.567 -0.3386  0.2745 -0.4106
74756W        W17772   7.975  26.378  16.273  0.1312  0.2497  0.0997
74757W        W17773  19.585   1.703  22.670 -0.0967 -0.0339  0.0441
74758W        W17774  13.461  27.142  22.758  0.0525  0.2564  0.0179
74759W        W17775  27.173  12.512  28.864  0.2010  0.0888 -0.1275
74760W        W17776  18.833  21.952  28.763 -0.1568 -0.1557  0.1572
74761W        W17777  18.249  16.867  21.988 -0.0734  0.5513 -0.1067
74762W        W17778  13.745   9.144  12.714  0.0338  0.0786  0.1694
74763W        W17779  17.404  14.158   1.902  0.0713  0.0962  0.2479
74764W        W17780   4.888  15.060  19.118  0.0389 -0.0601  0.0155
74765W        W17781   6.232  22.895  16.128 -0.2547 -0.0097  0.0412
74766W        W17782  13.622   8.096   0.067 -0.1648  0.2142 -0.0496
74767W        W17783  17.366  24.941   1.341  0.2296  0.0865 -0.0739
74768W        W17784   8.937  16.661  23.535 -0.0715 -0.2546 -0.0758
74769W        W17785  21.772  24.822   7.185  0.0690 -0.1388  0.1720
74770W        W17786  14.531  31.927   5.829  0.1362 -0.1390 -0.0112
74771W        W17787   0.336   9.495  29.171  0.1263 -0.0875  0.0593
74772W        W17788   5.279  17.112  18.428  0.0130 -0.3272 -0.0221
74773W        W17789  19.977  12.433  15.148  0.2081 -0.1418 -0.1374
74774W        W17790  34.220  30.935   4.668  0.0965  0.1767 -0.0129
74775W        W17791  14.438   4.529  14.817  0.3417 -0.1406 -0.0952
74776W        W17792  22.906   6.376   5.001  0.1736 -0.0386 -0.1993
74777W        W17793  18.194   7.126  16.302 -0.2081  0.0765 -0.0329
74778W        W17794  32.181  28.880  19.870  0.0689 -0.2796  0.1560
74779W        W17795  24.977  15.832   7.754 -0.2405 -0.0019  0.3753
74780W        W17796  26.954  20.623   7.331 -0.1314  0.0836  0.0580
74781W        W17797  13.934  10.440   3.735 -0.3909  0.0124 -0.1172
74782W        W17798   1.085  13.070  20.920 -0.0669 -0.1300 -0.1318
74783W        W17799  21.695  12.501  16.514 -0.4449 -0.0569 -0.1408
74784W        W17800  20.981  10.515   7.993 -0.1471 -0.2447  0.0059
74785W        W17801   1.203  26.425  10.368  0.0295 -0.2745  0.1497
74786W        W17802  16.210   7.173  23.249 -0.1732 -0.0018 -0.0556
74787W        W17803  22.093  25.334  27.944 -0.1320  0.0868 -0.0113
74788W        W17804  19.297   0.117   0.451  0.0305  0.0170  0.4345
74789W        W17805  29.069   7.694   1.603 -0.1081 -0.5114 -0.0263
74790W        W17806   6.776  18.222  28.706 -0.0609  0.3333 -0.0416
74791W        W17807  17.074   0.548  26.742  0.1651 -0.0695 -0.2805
74792W        W17808  25.155   9.234  22.400  0.2895 -0.1649  0.1663
74793W        W17809   3.318   0.147  27.429 -0.3666 -0.2838 -0.4178
74794W        W17810  21.284  26.446  22.832 -0.0610  0.0968  0.1603
74795W        W17811  25.281  18.689  24.335  0.0206 -0.0077 -0.0130
74796W        W17812  18.887  33.491  15.468  0.1910 -0.0759 -0.1575
74797W        W17813  16.133  16.496  12.300  0.1147  0.0960  0.0162
74798W        W17814   3.005   6.158  20.231  0.1560 -0.0947  0.0862
74799W        W17815  27.530  20.316  25.488 -0.0641 -0.2701 -0.1337
74800W        W17816  18.445   5.988   9.601  0.0628  0.0164  0.3033
74801W        W17817   1.168  16.694   4.475  0.0949 -0.0329  0.2446
74802W        W17818  11.058  22.866   5.410  0.0499 -0.2309 -0.0047
74803W        W17819  17.720   3.010  22.482  0.0153  0.0053 -0.1363
74804W        W17820  23.681  16.710  19.757 -0.0591 -0.1180 -0.2045
74805W        W17821  13.047  21.383  15.155 -0.0824 -0.2630  0.0687
74806W        W17822  19.941  16.293  13.427 -0.1101 -0.1410 -0.1249
74807W        W17823  28.765   0.401   9.782 -0.2155  0.1686 -0.2130
74808W        W17824  12.143  10.343  27.703  0.3137 -0.3082  0.1370
74809W        W17825  16.753   1.177  28.360 -0.2527 -0.0467  0.0198
74810W        W17826  19.547  17.321   2.299 -0.3567 -0.2345 -0.0839
74811W        W17827  23.272   9.420   8.916 -0.2098 -0.1153  0.2585
74812W        W17828   6.687  11.322   0.824 -0.0985 -0.1621  0.1054
74813W        W17829   5.914  31.457   9.745 -0.1673 -0.1524  0.1238
74814W        W17830  19.867  27.146   0.479 -0.2884  0.0301 -0.1076
74815W        W17831   4.949  21.098  18.871  0.1523  0.1371  0.3132
74816W        W17832  30.015  30.347  21.281  0.2123  0.0784  0.2155
74817W        W17833  27.403  14.918  15.465 -0.0444  0.0097  0.2640
74818W        W17834  23.913  32.156  28.467  0.2434 -0.0008 -0.0646
74819W        W17835  17.530  20.644   7.993  0.0903  0.2220  0.0255
74820W        W17836  10.335  20.514  12.449 -0.2230  0.2181 -0.1796
74821W        W17837  19.673  26.658   3.273  0.0687 -0.1274  0.2490
74822W        W17838   4.032  25.887  20.158  0.0595  0.1580 -0.1889
74823W        W17839  20.952  26.673  17.684 -0.1620 -0.3202 -0.1485
74824W        W17840  15.369  11.274   1.389 -0.4107 -0.0261 -0.0168
74825W        W17841  24.493   2.794  25.695 -0.1747 -0.1691  0.1134
74826W        W17842   5.597   8.392  14.551 -0.1829  0.2992 -0.0538
74827W        W17843  11.001   0.915  18.747 -0.0765 -0.0318 -0.2666
74828W        W17844  28.611  25.063  21.395  0.1420  0.0883  0.1667
74829W        W17845  32.375   2.779   4.208 -0.2025  0.0205 -0.0289
74830W        W17846  25.144  21.515  18.674 -0.1516 -0.0110 -0.1289
74831W        W17847  16.684  24.578  22.091 -0.1138 -0.1324  0.1091
74832W        W17848  21.570   6.443   2.323 -0.2156 -0.0555 -0.2170
74833W        W17849  22.789  24.433  27.528  0.0402 -0.0630 -0.2040
74834W        W17850  14.378  24.126  29.121 -0.2968 -0.2438  0.3517
74835W        W17851   3.278  24.872  24.771 -0.0016 -0.1498  0.0790
74836W        W17852  24.955  30.375   6.878 -0.0224 -0.3193  0.0445
74837W        W17853  18.039  11.511   5.111 -0.0678 -0.3713 -0.1358
74838W        W17854  10.266  24.942   8.461 -0.0424 -0.1681  0.1659
74839W        W17855   9.185   8.936  27.977  0.3939 -0.1005 -0.2519
74840W        W17856  13.954   5.946  20.762 -0.3813 -0.1974 -0.1473
74841W        W17857   6.197   0.051   2.579 -0.2477 -0.1512 -0.0056
74842W        W17858  27.481   8.824  17.130 -0.1503  0.0310 -0.1094
74843W        W17859  22.937  14.615  21.279  0.1003 -0.1945  0.0729
74844W        W17860  11.787  22.132  22.550 -0.0514  0.4533  0.2634
74845W        W17861  20.211   7.578  17.966 -0.0300  0.4801 -0.0124
74846W        W17862  20.194  16.752  20.016 -0.0808 -0.0724  0.0983
74847W        W17863   6.245   3.066  16.227 -0.0372 -0.1282  0.0306
74848W        W17864  16.261   6.412  20.414  0.0982  0.0787 -0.3221
74849W        W17865  17.254  27.803  18.588 -0.0818  0.1720  0.1244
74850W        W17866  14.483  27.512  24.520 -0.2523  0.2997 -0.3329
74851W        W17867   0.059  26.789  23.100  0.0132  0.2280  0.2901
74852W        W17868  12.326  29.511   2.376  0.0607 -0.1637  0.0101
74853W        W17869  16.566  14.615  22.681  0.0124 -0.0547 -0.1564
74854W        W17870   6.963  26.146  26.090 -0.2798 -0.1468 -0.1795
74855W        W17871  16.860  16.071  26.063  0.1545 -0.0013  0.0313
74856W        W17872  13.175  13.772  13.716  0.0907  0.0682 -0.2080
74857W        W17873  13.774  16.401  13.989  0.0240 -0.1645 -0.3048
74858W        W17874  27.627   8.201   8.741  0.1824 -0.1142  0.1574
74859W        W17875  18.066  15.583  25.647 -0.0848  0.3354  0.2021
74860W        W17876  22.227   6.372  14.855  0.1977 -0.6275 -0.0334
74861W        W17877  13.454  16.146  15.757  0.0936 -0.1644  0.2458
74862W        W17878  22.596  19.750  18.230 -0.1869 -0.0754  0.2524
74863W        W17879   5.030  18.382  13.084 -0.0446 -0.1714 -0.1256
74864W        W17880  16.848   7.872  19.588  0.0115  0.0200  0.3666
74865W        W17881   6.841  19.679  19.749  0.0115 -0.2964  0.0365
74866W        W17882  16.045  31.376  23.914 -0.1579  0.1149  0.2555
74867W        W17883  32.741  21.493  20.956 -0.1909 -0.3248 -0.1217
74868W        W17884  12.363  19.574  27.406  0.1129  0.0538  0.1023
74869W        W17885  26.179  11.589   7.455  0.0359  0.1058  0.1743
74870W        W17886   8.359  28.903  24.777 -0.1144 -0.0402  0.0703
74871W        W17887   4.772   9.884  23.772  0.0780 -0.1939 -0.0214
74872W        W17888  16.011  30.278  24.394 -0.1310 -0.3001  0.0725
74873W        W17889  28.157  28.639  23.190 -0.0263  0.3329 -0.0274
74874W        W17890  17.417  27.030  19.516 -0.1268 -0.1585  0.0154
74875W        W17891  34.453  21.570  19.358 -0.1001 -0.3454 -0.0366
74876W        W17892  10.330  21.456  14.933 -0.0535 -0.2437 -0.3443
74877W        W17893   3.194   2.426   1.992 -0.1692 -0.1316  0.2598
74878W        W17894  22.710  20.078   8.931 -0.1000  0.1956 -0.1270
74879W        W17895  21.639  10.434   2.880 -0.0872 -0.2687  0.1013
74880W        W17896  10.868   7.092   1.912 -0.2492 -0.2991 -0.1170
74881W        W17897  13.545  21.302   0.570  0.1985  0.3109 -0.1461
74882W        W17898   9.491  19.313   4.638  0.2539  0.3498 -0.2462
74883W        W17899   9.009  18.216  25.706 -0.0554  0.0356  0.1542
74884W        W17900  17.824   2.550  18.715 -0.1756 -0.0275  0.0449
74885W        W17901  28.561  15.096  22.373 -0.0309 -0.1574 -0.0734
74886W        W17902  14.282  28.518   0.577 -0.1041 -0.2305  0.1061
74887W        W17903  20.816   9.810   3.663  0.0527  0.1301  0.0257
74888W        W17904  18.866  22.383  21.991 -0.1428  0.1121 -0.3311
74889W        W17905  12.636  23.401  18.810  0.2363  0.1202 -0.0816
74890W        W17906  25.400   7.037  24.629  0.0476  0.0411  0.0681
74891W        W17907   3.596  14.483  17.296 -0.1633 -0.0579 -0.1327
74892W        W17908  27.053  19.550   2.194  0.0558  0.0899  0.2659
74893W        W17909  19.766  18.651  12.980  0.0772 -0.1857 -0.1088
74894W        W17910  27.770  16.342   7.336 -0.0500  0.0599 -0.0466
74895W        W17911  21.091  16.637  25.074  0.0564  0.0981  0.0671
74896W        W17912  16.672  12.229  27.080 -0.0430 -0.1784  0.4852
74897W        W17913  18.213   7.382  26.515 -0.0463  0.1059  0.0005
74898W        W17914  27.838   9.674  17.482 -0.0351 -0.4076  0.3672
74899W        W17915  17.482   2.939   4.048  0.1330 -0.1796  0.3917
74900W        W17916  10.467  24.749   6.197  0.1264  0.0844 -0.0476
74901W        W17917  25.986   8.422   5.827 -0.0427  0.2672 -0.2296
74902W        W17918   3.681  31.043  26.176  0.0402  0.1196 -0.4278
74903W        W17919  15.628  17.569  26.786  0.0459 -0.1727  0.0577
74904W        W17920  20.382  31.401   6.425  0.1474  0.1317  0.0460
74905W        W17921   9.938   7.811   7.008 -0.1285 -0.3763  0.1857
74906W        W17922   0.062  10.832  27.438 -0.2381  0.0608  0.0343
74907W        W17923  29.726  15.417   1.333  0.3225 -0.3438 -0.5347
74908W        W17924  20.663   9.068  28.462  0.1912 -0.0916  0.2535
74909W        W17925  15.549  29.598  24.891 -0.5259  0.0379 -0.2420
74910W        W17926   8.456  30.377   4.159 -0.2352 -0.2552  0.0705
74911W        W17927  15.433   9.749  18.787  0.0071  0.2352  0.0915
74912W        W17928  13.811  21.722   2.857 -0.2635  0.1114  0.1631
74913W        W17929   4.467  22.103   1.933  0.0407  0.2836 -0.2737
74914W        W17930  31.043   6.692  10.339 -0.2800 -0.0229 -0.1026
74915W        W17931  14.327  11.464   3.314  0.0717  0.1077 -0.4490
74916W        W17932  11.869  16.843   6.308 -0.0725  0.0922 -0.0925
74917W        W17933  26.552  11.771   7.142 -0.0333 -0.0581  0.4264
74918W        W17934  32.056  12.843  22.660 -0.2628  0.0162  0.0879
74919W        W17935  14.849  24.525  21.219  0.1848 -0.1383 -0.0439
74920W        W17936   7.311  22.091   4.582 -0.1019 -0.1242  0.1680
74921W        W17937  24.386  19.894  17.824  0.0855 -0.0428 -0.0877
74922W        W17938  21.225  13.639  15.652 -0.1775  0.1330 -0.0885
74923W        W17939  33.271  29.234   5.610 -0.0548  0.0482 -0.1041
74924W        W17940  17.952   7.456  27.081 -0.1479  0.2750 -0.0944
74925W        W17941  13.122   0.483  21.774 -0.0676  0.2184 -0.0109
74926W        W17942   5.527  15.333   1.347  0.0076  0.2379 -0.1888
74927W        W17943  21.061  10.778   5.865 -0.3249 -0.0105  0.0991
74928W        W17944   1.079   7.711  26.235  0.3798  0.3016 -0.0659
74929W        W17945   1.432   9.684  26.427 -0.1530 -0.3263  0.0622
74930W        W17946   8.183  31.395  17.098  0.0493  0.0101  0.0278
74931W        W17947  17.027  34.118  20.625 -0.1142 -0.2962  0.0819
74932W        W17948  30.428  21.002  29.031 -0.0658 -0.2559 -0.0350
74933W        W17949  17.457  13.473  25.644  0.1415 -0.2798 -0.1376
74934W        W17950  11.775   6.992  20.010  0.4098 -0.0764  0.2557
74935W        W17951  19.568   1.329  26.276 -0.2038  0.0305  0.0767
74936W        W17952  24.710  25.191  22.885  0.0927 -0.0270  0.1078
74937W        W17953   5.777  16.542   2.856  0.0721 -0.0444 -0.1097
74938W        W17954  19.582   7.745   2.140 -0.4921  0.0459  0.1438
74939W        W17955  24.362  26.761  16.446  0.4080  0.1513 -0.3168
74940W        W17956   6.250  14.021   7.494 -0.1550  0.0549  0.1645
74941W        W17957   1.839  13.443  28.891  0.1978  0.1777  0.0669
74942W        W17958  20.283  10.856  18.782  0.0098 -0.0059 -0.1258
74943W        W17959  27.566  28.414  10.617 -0.3121 -0.2150 -0.0328
74944W        W17960  15.651  25.729   3.911 -0.0837  0.3912 -0.1436
74945W        W17961   1.068   8.059  14.837  0.1738 -0.1216  0.0209
74946W        W17962   1.878  21.678  27.942  0.0716  0.1334 -0.1103
74947W        W17963   2.018  12.231  17.187  0.1925 -0.1406 -0.0150
74948W        W17964   2.699  24.681  23.223  0.0820  0.0308  0.1021
74949W        W17965  26.907  24.907  20.380 -0.1190 -0.2102 -0.0682
74950W        W17966   7.354  19.730  17.007  0.0480  0.0239 -0.1273
74951W        W17967  19.054  12.294   8.073 -0.0968  0.0223 -0.2474
74952W        W17968  29.719  19.648  22.966  0.2057  0.1000  0.2320
74953W        W17969  16.173  19.172  15.767  0.0716  0.2687  0.0546
74954W        W17970  32.734   9.980  16.220  0.0659 -0.3574  0.4000
74955W        W17971  11.225  12.988  29.319  0.1907  0.0293 -0.0129
74956W        W17972  21.666  25.435  22.620 -0.0765  0.1015  0.1879
74957W        W17973  22.427  14.019  14.132 -0.0474  0.1306 -0.1754
74958W        W17974  30.438  18.788  21.645  0.2205 -0.1691 -0.1282
74959W        W17975  17.430  14.605  22.155  0.1193 -0.0629 -0.2325
74960W        W17976   8.934  17.212   7.063 -0.2007  0.4013  0.1294
74961W        W17977  14.981   5.075   4.469  0.2492 -0.0819  0.1041
74962W        W17978  33.063  31.424  23.193 -0.0897 -0.0929  0.1863
74963W        W17979  27.058  12.605  15.788  0.1209 -0.0450 -0.0267
74964W        W17980  15.090  31.277  17.585 -0.1531  0.1937 -0.0214
74965W        W17981  19.351  22.681  23.404 -0.0245 -0.2493 -0.1772
74966W        W17982   4.216  16.652  28.831  0.1903 -0.1500 -0.1425
74967W        W17983   9.882  10.499   6.462 -0.2429 -0.3977 -0.1802
74968W        W17984  25.808   0.409  17.558  0.1760 -0.2369 -0.4325
74969W        W17985  25.936  22.867  21.863  0.1023 -0.0688 -0.1108
74970W        W17986  15.414  16.673  20.278 -0.0868 -0.4015  0.3945
74971W        W17987  28.540  23.454   3.603 -0.2186 -0.1952 -0.1978
74972W        W17988  17.396   0.842  23.007  0.2056  0.2512 -0.3968
74973W        W17989  10.082  15.476  27.073  0.0331 -0.0899 -0.0870
74974W        W17990  14.599  17.905  19.343 -0.0260 -0.3728  0.0984
74975W        W17991   9.407  21.159   8.866 -0.4545 -0.0731  0.0072
74976W        W17992  18.282  21.823  22.100  0.1818 -0.1213  0.0295
74977W        W17993   4.152  23.568  15.181  0.0807  0.0894  0.2745
74978W        W17994  10.467  22.003  19.580  0.1330  0.0723 -0.0547
74979W        W17995  32.582  25.407  24.920 -0.0796 -0.1367  0.3673
74980W        W17996  12.292  23.605   7.385  0.1517  0.1862  0.1569
74981W        W17997   7.572  33.267  23.885  0.2730 -0.3751 -0.1382
74982W        W17998  31.011  17.201   4.386  0.1150  0.1353 -0.1312
74983W        W17999   9.754  15.702  23.648 -0.1900 -0.2829 -0.0169
74984W        W18000  16.769  16.035   6.041 -0.0605  0.0788 -0.0619
74985W        W18001  33.324  31.201  25.733 -0.1439 -0.0628  0.0256
74986W        W18002  17.056   9.824  19.247 -0.0722  0.2040  0.1344
74987W        W18003  27.580  22.894  23.546 -0.0001 -0.1124 -0.0131
74988W        W18004  25.737  24.536   9.309 -0.3352 -0.1150 -0.1810
74989W        W18005  24.364   4.268   8.663  0.3832  0.1468 -0.1579
74990W        W18006  28.961   8.141  24.259 -0.0804  0.0053  0.1353
74991W        W18007  29.347  10.389   4.127  0.1951 -0.4175 -0.3867
74992W        W18008  19.378   2.768   1.190 -0.0997 -0.0506 -0.2144
74993W        W18009  11.386  15.944   2.157  0.0804  0.0560 -0.0862
74994W        W18010   4.673  32.666  24.992  0.1982 -0.2061  0.3330
74995W        W18011  34.632  14.274   8.711  0.0310 -0.0688 -0.0245
74996W        W18012   3.290  19.934  14.226 -0.1648  0.1401 -0.2497
74997W        W18013  26.196  21.904  20.843  0.0245  0.0849  0.3409
74998W        W18014   3.786  32.918  21.339 -0.0427 -0.1829 -0.3630
74999W        W18015  14.882  22.316  20.870 -0.1202  0.2003 -0.1313
75000W        W18016  26.213  16.797  27.997 -0.2106  0.0240  0.1386
75001W        W18017  15.380  17.510  19.244  0.2043  0.1793  0.0070
75002W        W18018   6.025  11.697  27.370  0.0596 -0.1880 -0.2721
75003W        W18019  22.946  27.640  16.840  0.1624  0.3277 -0.4244
75004W        W18020  21.027  20.044   3.841 -0.1734 -0.0098  0.0914
75005W        W18021  28.828  21.190  23.803  0.0146 -0.1539  0.0532
75006W        W18022  13.951  25.175  13.453  0.0086 -0.0805 -0.0259
75007W        W18023  16.264   9.909   3.794  0.1373 -0.2735 -0.0933
75008W        W18024  17.069  15.838  28.793 -0.1321 -0.0134 -0.1915
75009W        W18025   0.256  25.715  25.265  0.2844 -0.0201  0.1618
75010W        W18026   6.098  13.453  23.429 -0.1536  0.1803 -0.1273
75011W        W18027  19.157  33.235  25.312  0.1218  0.1468 -0.1360
75012W        W18028  23.306  18.424   5.437  0.2775 -0.0985  0.0949
75013W        W18029  11.921  29.179  19.194 -0.3363  0.1332  0.1905
75014W        W18030  13.632  18.141  14.818  0.2673  0.0973  0.2356
75015W        W18031  21.276  20.024  15.954 -0.3112  0.2600  0.3263
75016W        W18032  32.671  21.599  29.266  0.1403 -0.0499  0.0385
75017W        W18033   3.120  19.093  19.807 -0.0750  0.1438 -0.4884
75018W        W18034  11.981  10.479  24.954  0.1504  0.0353 -0.0232
75019W        W18035  20.038   7.794   8.293  0.1466 -0.0007  0.0041
75020W        W18036  21.859   5.704   4.337  0.0377 -0.1698 -0.0675
75021W        W18037  20.286   9.871   3.774  0.2096  0.0381  0.0226
75022W        W18038  10.528  20.354  21.910 -0.3667  0.1140 -0.0869
75023W        W18039   3.550  18.209  21.932 -0.2068 -0.0120 -0.0985
75024W        W18040  14.881  23.608   1.136 -0.3001  0.0335 -0.0764
75025W        W18041  14.940   7.677  20.831 -0.0032 -0.3827  0.0686
75026W        W18042  16.932  18.113   4.206  0.0264  0.0376 -0.0506
75027W        W18043   9.950  18.046  14.116 -0.1000  0.2406 -0.1844
75028W        W18044  23.623   9.424  15.685 -0.1755 -0.0876 -0.4073
75029W        W18045  15.976  21.581  14.486 -0.2002  0.0597  0.0749
75030W        W18046  20.271  21.861  19.766  0.0819 -0.0945 -0.1575
75031W        W18047  19.504   5.308  26.234 -0.0792 -0.1166  0.2549
75032W        W18048  30.483  20.052   5.758 -0.0336  0.3263  0.1176
75033W        W18049  21.437  22.598  24.791  0.2117 -0.0011  0.2022
75034W        W18050  18.586  15.145  20.964 -0.0205  0.1005 -0.1022
75035W        W18051  31.090  18.318   2.662 -0.0125  0.0142 -0.0802
75036W        W18052  29.105  29.146   5.991  0.0041  0.3582  0.0254
75037W        W18053  20.909  14.081  23.609 -0.0861 -0.0784 -0.3626
75038W        W18054  31.961  23.322  15.054 -0.1244  0.0075  0.1674
75039W        W18055  23.333  18.394  19.888  0.1108 -0.2189  0.1488
75040W        W18056  19.569  12.401  26.815 -0.2406  0.1024 -0.2715
75041W        W18057   1.844   0.138   4.828  0.0815  0.2717  0.0016
75042W        W18058  27.184  22.926   2.153 -0.1855 -0.1910 -0.2295
75043W        W18059  18.152  19.029   0.255 -0.3088  0.0648 -0.2295
75044W        W18060  32.646  15.346   7.747  0.2120  0.4133  0.1599
75045W        W18061   8.736  12.474   2.613 -0.0537 -0.2644  0.1164
75046W        W18062  25.919  16.206  23.341 -0.0270  0.2470  0.1161
75047W        W18063   5.570  17.136  24.615  0.1732 -0.0026 -0.2286
75048W        W18064  11.368  22.686  23.780 -0.0217  0.0314 -0.1065
75049W        W18065  25.563  24.168  22.220  0.0382  0.4146  0.1916
75050W        W18066  15.046  15.705   7.949  0.2731  0.2592  0.3953
75051W        W18067   6.407  16.589  21.783 -0.1483  0.0312  0.1328
75052W        W18068  19.768  18.193  29.213  0.1293  0.1448  0.0302
75053W        W18069  21.678  25.564  10.072  0.2886 -0.0772  0.2878
75054W        W18070  33.341  18.375   0.315 -0.1819  0.0425  0.1312
75055W        W18071  22.607  18.165  20.953 -0.0295 -0.2647  0.0247
75056W        W18072   5.595  13.499  14.004  0.0516  0.2148 -0.1055
75057W        W18073  15.151  13.164  26.645 -0.1541 -0.0326 -0.1909
75058W        W18074  16.253  21.402  12.616 -0.0409 -0.1178 -0.0749
75059W        W18075  14.161  12.661  29.236  0.1240  0.1406  0.1019
75060W        W18076  19.289   4.938  17.069 -0.3376 -0.3428  0.0271
75061W        W18077   6.739  14.850  22.390 -0.1077  0.1537 -0.2536
75062W        W18078  12.406  11.391  29.256  0.2244 -0.2520 -0.2202
75063W        W18079  20.062  10.338  15.376 -0.1007  0.0161  0.3179
75064W        W18080   5.224  29.186  15.021 -0.2442  0.0240 -0.1993
75065W        W18081   2.715  21.651   5.289 -0.2352 -0.0076  0.0770
75066W        W18082  13.813  18.325  21.791 -0.1146  0.1460  0.1827
75067W        W18083  32.182  15.484   7.604  0.1276  0.0473  0.2445
75068W        W18084  26.703  19.663   4.332 -0.1187 -0.1653  0.1500
75069W        W18085  31.640  14.934  15.106  0.0660 -0.1110 -0.0528
75070W        W18086  18.727  11.581   0.977  0.0697  0.0300  0.0534
75071W        W18087  30.769  25.212  28.334 -0.1853 -0.1298  0.0566
75072W        W18088   6.047   9.752   2.943 -0.2497  0.1636  0.0540
75073W        W18089  17.415   8.452   5.129 -0.2309 -0.0933 -0.1378
75074W        W18090  22.549  17.872   4.216  0.1548  0.1839 -0.1571
75075W        W18091  19.036  21.384   4.411 -0.2973  0.0498 -0.0368
75076W        W18092  11.355   6.440   9.571  0.0374 -0.1310  0.2702
75077W        W18093   7.792  28.132  27.747 -0.0813 -0.0874  0.0187
75078W        W18094  18.680  14.185   7.410 -0.2170  0.1994 -0.1994
75079W        W18095   1.284   9.930  25.942 -0.1030 -0.2004 -0.1556
75080W        W18096   6.095  16.200  24.305 -0.1403  0.2788 -0.0644
75081W        W18097   7.236  22.941   0.825 -0.1881  0.1009  0.0105
75082W        W18098  33.353  33.400   7.865 -0.2718 -0.1474  0.1148
75083W        W18099   7.775   6.647   5.639  0.2108 -0.0218  0.0117
75084W        W18100  28.567   3.444  23.614 -0.0437 -0.0842 -0.1861
75085W        W18101  24.547  25.453   4.327 -0.0003 -0.1459 -0.1802
75086W        W18102  26.020  22.466  21.466 -0.2377 -0.0284  0.2169
75087W        W18103  14.205  22.205   6.454  0.3238  0.1543  0.1718
75088W        W18104  12.190  24.967   7.203  0.1457 -0.0470  0.3575
75089W        W18105  27.488  15.621  27.211  0.2719  0.4579  0.2123
75090W        W18106  24.197  21.381  25.748  0.0962 -0.0604  0.0248
75091W        W18107  22.769  10.363   9.277 -0.0380  0.0948 -0.0453
75092W        W18108   8.425  28.270   3.662  0.1678 -0.1361 -0.1588
75093W        W18109  16.786  14.144  22.854 -0.1443 -0.0334  0.1147
75094W        W18110  26.822  29.178   3.916  0.1976 -0.0680  0.3283
75095W        W18111  26.485  25.032   1.227  0.1266 -0.3154  0.0225
75096W        W18112  25.583  16.251  15.793  0.1614  0.2250  0.0281
75097W        W18113  11.072  24.610   7.963 -0.1305 -0.1661  0.0009
75098W        W18114   1.530  25.398  16.004  0.2289  0.0066  0.1665
75099W        W18115  32.093  15.776  25.500  0.0044 -0.1181 -0.0805
75100W        W18116  18.516  13.168   6.611  0.1500 -0.0450  0.1821
75101W        W18117  32.628  29.001  29.139 -0.0112  0.0178 -0.0041
75102W        W18118  18.436  30.540   4.209  0.1746  0.0266 -0.0383
75103W        W18119   4.257   5.648  17.392  0.2353  0.1725  0.1574
75104W        W18120   6.806   3.013  25.349  0.0006 -0.0202 -0.1525
75105W        W18121   4.036  12.740   5.119 -0.2780  0.0529 -0.4219
75106W        W18122   3.065  33.052  22.112 -0.1222 -0.2250 -0.0068
75107W        W18123  26.048   6.593  11.375 -0.3551  0.0530 -0.1820
75108W        W18124  18.309  20.090  26.388 -0.0031 -0.3515  0.2864
75109W        W18125  13.020  14.352  28.229 -0.1592 -0.0341 -0.0714
75110W        W18126  11.472   3.860   6.339  0.0597 -0.1193  0.1658
75111W        W18127  12.621  26.503   9.254  0.2364 -0.0923 -0.0531
75112W        W18128   9.536   6.593   8.353 -0.0048  0.0691  0.0427
75113W        W18129  15.081  20.291   4.104 -0.0940 -0.0104 -0.0466
75114W        W18130  19.098  15.286  20.970 -0.1535 -0.2752 -0.0930
75115W        W18131   5.816  25.773  28.554 -0.2074 -0.1050  0.2219
75116W        W18132  21.863  32.352  26.039 -0.3742  0.1205  0.0155
75117W        W18133  21.329  15.087  26.102 -0.1609  0.1230  0.0531
75118W        W18134  19.020   3.607  22.529 -0.0276  0.0352  0.0406
75119W        W18135  30.515  17.194   4.470  0.2222  0.1716  0.0307
75120W        W18136  27.294  17.773   1.663 -0.1098  0.0261 -0.0058
75121W        W18137  11.252  20.816  12.533 -0.0044 -0.0707  0.0657
75122W        W18138   7.116  18.115   8.715 -0.2505  0.2006  0.0025
75123W        W18139   9.842  14.421  23.495  0.2521  0.0189  0.0725
75124W        W18140  10.844  30.572  20.469  0.0278  0.1841 -0.0908
75125W        W18141   5.362  12.231   1.042 -0.2743 -0.1437 -0.2799
75126W        W18142  20.330   9.399  23.457 -0.0699 -0.1503 -0.0478
75127W        W18143  28.091  21.052  26.737 -0.1511  0.1221  0.2142
75128W        W18144  33.656  33.126   5.144  0.1508 -0.0736  0.1871
75129W        W18145  26.521  16.269  18.975  0.2154 -0.0041 -0.1484
75130W        W18146  12.174  19.163   4.633 -0.1645 -0.0300 -0.1527
75131W        W18147  23.009  17.733   0.062 -0.0167 -0.0102 -0.1662
75132W        W18148   5.075  28.098  17.339 -0.2124  0.0295 -0.2273
75133W        W18149   8.152  12.130   7.348  0.0764 -0.1941 -0.2919
75134W        W18150  14.001  13.168  15.342  0.0930  0.5009 -0.0717
75135W        W18151  34.536   7.843  22.638  0.0099  0.1417  0.1807
75136W        W18152  29.586  20.468   5.922 -0.2483  0.0978  0.2084
75137W        W18153   1.154  21.593   6.040  0.0313 -0.0967 -0.2480
75138W        W18154  22.848   4.045   6.933  0.0063  0.0048  0.3105
75139W        W18155  10.264  14.925   8.313  0.0885  0.0755  0.0040
75140W        W18156  12.501   3.692   0.074 -0.1489  0.1652  0.1098
75141W        W18157  12.264  17.810  21.111 -0.0941  0.0364  0.3743
75142W        W18158  15.478   8.047  17.218 -0.5794  0.2133 -0.0817
75143W        W18159  26.366  12.279  17.557  0.2066  0.1814  0.0099
75144W        W18160  23.478  28.799   1.020 -0.2158 -0.1249 -0.3727
75145W        W18161  32.125  20.309  26.056 -0.0116  0.1208 -0.0942
75146W        W18162  31.057  26.952   6.138 -0.0545  0.2440  0.1081
75147W        W18163  14.796  27.499   0.035  0.0975 -0.1434  0.2568
75148W        W18164  16.556   1.051   7.106  0.3089 -0.2850 -0.4222
75149W        W18165  27.748  10.374  19.902  0.0024 -0.1384  0.1671
75150W        W18166  18.826   5.858  26.623  0.4110  0.1954 -0.1796
75151W        W18167   3.681  18.488  28.729  0.1616 -0.0579 -0.1682
75152W        W18168   4.870  27.050  28.105  0.1397  0.0559 -0.0690
75153W        W18169  12.192  22.886   4.176  0.0925 -0.0517  0.2025
75154W        W18170  31.363  18.515   6.796 -0.1203  0.2222 -0.3478
75155W        W18171  15.874   7.818   9.410  0.1226  0.0662  0.2854
75156W        W18172  10.251  14.985   7.330  0.1617 -0.3563  0.1972
75157W        W18173  30.914  18.701  27.367  0.1645 -0.1587 -0.1352
75158W        W18174  16.058   7.991  23.732  0.2704 -0.1988  0.0027
75159W        W18175  19.071  24.128   7.795 -0.2703 -0.2967 -0.0851
75160W        W18176  13.955  21.711  27.971 -0.0974  0.3542  0.1978
75161W        W18177   3.537  19.537  25.320 -0.1346  0.0490  0.0787
75162W        W18178  15.621   3.153   1.740  0.2373  0.1961  0.2125
75163W        W18179  29.147  22.266   5.054  0.1415 -0.3531 -0.1093
75164W        W18180  23.630  16.179  17.796 -0.1398  0.0185 -0.1261
75165W        W18181  26.691  20.620  27.974  0.0971 -0.2671 -0.1822
75166W        W18182  24.268  17.941  23.902  0.0275 -0.1416  0.0723
75167W        W18183   9.697  23.104  22.327 -0.0135 -0.0820 -0.0827
75168W        W18184  15.691  16.918   7.177 -0.3221 -0.0714 -0.4231
75169W        W18185  18.806  22.089   5.508  0.1998 -0.3397  0.0116
75170W        W18186  16.912   6.313   5.262  0.0871  0.1635  0.3096
75171W        W18187  28.464  23.235   5.064 -0.1652 -0.0029  0.2444
75172W        W18188  11.447  15.123   4.701 -0.0016 -0.0450 -0.3551
75173W        W18189   4.431   0.544   4.859  0.1814  0.1994 -0.1734
75174W        W18190   9.809  12.694  28.683  0.2111  0.0183  0.2182
75175W        W18191  15.065  17.117  18.741  0.0528 -0.0989 -0.0218
75176W        W18192   4.593  20.694   0.923  0.1984 -0.1200 -0.1165
75177W        W18193  18.424  11.811   0.623  0.0125 -0.0643  0.0770
75178W        W18194  14.417  13.644   7.594 -0.0160 -0.0868 -0.0269
75179W        W18195  26.749   7.705  19.717 -0.0848 -0.1812  0.0497
75180W        W18196   5.887  13.779  25.289 -0.1480  0.2229  0.0128
75181W        W18197  29.175  13.527  19.699  0.1955  0.0685 -0.1573
75182W        W18198  20.871  14.050  19.436  0.0178  0.1360 -0.2215
75183W        W18199  10.347  16.349   7.963 -0.0263 -0.1454 -0.2180
75184W        W18200   3.107  14.477  29.046  0.1332  0.1087 -0.2122
75185W        W18201  29.974  18.690   8.451 -0.1330  0.2123 -0.2034
75186W        W18202  12.206   4.888  10.105 -0.1084  0.1344  0.0114
75187W        W18203  24.414  18.174  17.220  0.1288  0.2327  0.1726
75188W        W18204  23.944  20.869  21.672 -0.1806  0.2036 -0.1881
75189W        W18205  16.089  20.894  27.859  0.2133  0.0456  0.0471
75190W        W18206  12.779  28.330   5.982  0.1061 -0.1540 -0.2078
75191W        W18207  26.350   5.981  26.594 -0.0508 -0.1968 -0.0725
75192W        W18208  16.050   8.630   2.967 -0.0085 -0.1332 -0.1189
75193W        W18209  10.832  27.808   7.943 -0.0599  0.1726  0.3235
75194W        W18210  17.060  21.816  26.836  0.2653 -0.0705  0.2380
75195W        W18211   1.837  10.891   4.540  0.3301 -0.2594  0.4147
75196W        W18212  26.408  10.373  27.220  0.0904  0.1105 -0.2077
75197W        W18213  19.950  14.915   3.181  0.0860  0.2658  0.1933
75198W        W18214  17.429  15.535   1.032 -0.1823  0.1796  0.3170
75199W        W18215  18.275  17.168   0.450 -0.1449 -0.2770  0.1070
75200W        W18216  22.645  15.718   0.339 -0.1184  0.0470 -0.1002
75201W        W18217  20.801  28.507   1.392  0.2908 -0.1791  0.2671
75202W        W18218  10.352  25.149   5.419 -0.2238  0.1063  0.2697
75203W        W18219  34.612  18.028  24.263 -0.0801  0.0983  0.0162
75204W        W18220  20.139  17.827   3.490 -0.0019  0.4429  0.0924
75205W        W18221  23.741  12.511   4.946  0.2369  0.0452 -0.2209
75206W        W18222  16.614  22.244  26.686 -0.2020  0.0711 -0.1303
75207W        W18223  14.865   6.814  18.255 -0.1524  0.3174 -0.4498
75208W        W18224  22.279   5.550   3.186  0.3020 -0.1366  0.2819
75209W        W18225  24.577  11.980   2.383  0.2767 -0.1076 -0.3316
75210W        W18226  29.162  23.803   0.913  0.2233 -0.1070 -0.3828
75211W        W18227  22.072  17.384   1.978  0.1211 -0.1018 -0.0781
75212W        W18228  11.671   6.978   5.045  0.2397  0.1155 -0.0776
75213W        W18229   8.662  17.112   4.686 -0.2732  0.1846 -0.3173
75214W        W18230   6.896  13.667   0.462 -0.0693 -0.2500 -0.0673
75215W        W18231  30.244  22.672  20.557 -0.0047 -0.1830  0.0072
75216W        W18232  29.820  12.164  20.967  0.0777  0.0316  0.1568
75217W        W18233   0.656  27.941   1.560 -0.0155 -0.1216  0.1349
75218W        W18234   3.893   0.139  21.734 -0.1155 -0.1739  0.5015
75219W        W18235  29.933  33.833   8.232  0.3667 -0.0547  0.1824
75220W        W18236  14.465   3.556   8.795 -0.1016  0.0213  0.0756
75221W        W18237  34.316   6.759  20.517  0.3620  0.1032  0.3056
75222W        W18238  15.464  11.488   7.589 -0.2010 -0.0205 -0.0048
75223W        W18239  17.914  14.776   2.965  0.2451  0.2105 -0.1868
75224W        W18240  13.212  12.617   8.437 -0.0372  0.1194 -0.2325
75225W        W18241  11.920  20.407  20.350 -0.2182 -0.2359  0.1730
75226W        W18242  10.589  18.684  24.299  0.1706 -0.0397  0.4974
75227W        W18243  11.530  12.926  17.405 -0.3111  0.4406  0.0026
75228W        W18244   0.541  23.041   0.294 -0.2476  0.1014  0.1975
75229W        W18245   6.793  14.616  26.920  0.0928 -0.3695  0.1458
75230W        W18246  24.827  25.396   8.786 -0.0951  0.0909 -0.1404
75231W        W18247  16.286  17.789   2.001 -0.0883 -0.1313  0.1092
75232W        W18248   7.944  10.432   4.384  0.1249 -0.3282  0.1468
75233W        W18249  20.564   6.354  22.482 -0.0138  0.0176 -0.1101
75234W        W18250  18.034  20.492   7.545 -0.0067  0.0214 -0.0428
75235W        W18251   3.606  20.976  26.557 -0.0288  0.0771  0.1689
75236W        W18252  25.524   6.841   6.186  0.1587  0.2046  0.2133
75237W        W18253  21.128   9.811  18.731 -0.0681  0.0217 -0.2656
75238W        W18254  30.376   9.853  25.686 -0.0967 -0.1565  0.0916
75239W        W18255  16.314  33.809  25.288 -0.1210  0.3787  0.1707
75240W        W18256  12.440  20.747   2.078  0.0203  0.0263  0.1178
75241W        W18257  21.739  16.708   0.521  0.1643  0.3696  0.0113
75242W        W18258  23.573  21.318  15.608 -0.0878 -0.4237  0.0834
75243W        W18259  20.446  14.656  26.179  0.1017 -0.2934  0.3433
75244W        W18260  18.168  31.919  26.255 -0.3712 -0.0553  0.3442
75245W        W18261   5.311   2.222   4.813 -0.2439  0.0221 -0.1941
75246W        W18262  32.587  12.316  19.212  0.1930  0.1589 -0.0773
75247W        W18263   9.639  18.159  15.828 -0.1062 -0.1872 -0.3460
75248W        W18264  21.227   3.587   7.852 -0.1106  0.1527  0.1377
75249W        W18265  30.421   8.151  18.936 -0.1773  0.0361  0.0859
75250W        W18266  19.305  12.460  27.332  0.1774 -0.1177 -0.0288
75251W        W18267  18.537  13.603   6.860  0.3166  0.3121 -0.3184
75252W        W18268  21.443  16.677   7.795 -0.4889  0.0167  0.1154
75253W        W18269  16.362   7.368   3.115 -0.2021 -0.0092 -0.1334
75254W        W18270   9.457   5.714   2.963  0.1006  0.0179  0.0188
75255W        W18271  18.073  13.666  13.429 -0.2111  0.2771 -0.0518
75256W        W18272  17.459  23.802   6.179  0.0627  0.3312 -0.1172
75257W        W18273   7.269  27.033  16.683  0.0833 -0.2462  0.1714
75258W        W18274  12.746  19.570  28.021 -0.2659  0.3719  0.2371
75259W        W18275  12.849  21.757   3.565 -0.3541  0.2860  0.1464
75260W        W18276  20.352  11.234  21.831  0.2648  0.0792 -0.0246
75261W        W18277  19.014  26.874   0.852 -0.0248 -0.3417 -0.0609
75262W        W18278  32.266  27.629   6.553 -0.0928 -0.0191  0.1984
75263W        W18279  17.361   5.744  26.969  0.0192 -0.0644 -0.0586
75264W        W18280   2.980  33.725  10.686 -0.0679  0.0916 -0.3165
75265W        W18281  24.823   0.848  22.587 -0.0866 -0.1696  0.2916
75266W        W18282  23.025   2.118  28.967  0.2048  0.1396 -0.0170
75267W        W18283   5.713  34.093   6.699  0.0044  0.1558 -0.3473
75268W        W18284  25.713  20.972   0.935  0.1573  0.0001  0.1234
75269W        W18285   7.358  16.395   0.168  0.2316  0.0833  0.0857
75270W        W18286  20.460   5.351   9.786  0.2292 -0.0790 -0.1007
75271W        W18287  32.366  14.214   6.585  0.0783 -0.1217  0.2314
75272W        W18288  14.066   3.364   6.654 -0.0782 -0.0571  0.1082
75273W        W18289  30.170   1.615  17.965 -0.0096 -0.1007  0.0553
75274W        W18290   9.036   2.523   6.749 -0.6790 -0.2864  0.0558
75275W        W18291  21.888   7.808   8.731  0.0672  0.1686  0.2952
75276W        W18292   5.833   8.220  24.031 -0.1756 -0.2446  0.1985
75277W        W18293  24.493  27.717   6.153  0.1680 -0.0774  0.0517
75278W        W18294  19.979   6.887  15.408 -0.0073 -0.0848 -0.1232
75279W        W18295  33.754  14.409   8.913  0.2161  0.1703 -0.0760
75280W        W18296  20.453  16.263  24.009 -0.0898  0.2155  0.0971
75281W        W18297  20.817   1.750   7.219 -0.0084 -0.2938 -0.4448
75282W        W18298  14.823  29.916   4.389 -0.1664  0.3693 -0.1388
75283W        W18299  13.281  13.452   1.909  0.0829  0.1318 -0.1809
75284W        W18300  20.937  13.518   7.658  0.1182 -0.2297 -0.2373
75285W        W18301   5.146  12.535   5.626 -0.0702 -0.1091 -0.1056
75286W        W18302   3.411  19.416   6.082 -0.1933 -0.0040  0.0310
75287W        W18303  29.811  13.311  21.756  0.0300  0.0038 -0.2523
75288W        W18304  23.838   7.268  17.903 -0.0870  0.3282 -0.0925
75289W        W18305  33.232  20.342  17.301  0.0382 -0.2169 -0.0645
75290W        W18306   9.195   9.947  22.151 -0.0374  0.1468  0.2557
75291W        W18307  24.399   3.206  22.711  0.2172  0.3402 -0.0882
75292W        W18308  26.438   7.765  25.612  0.2977  0.2975  0.2173
75293W        W18309   4.983  16.142  13.439 -0.1077  0.2700 -0.0017
75294W        W18310  13.650   6.392  23.193  0.2960  0.1022 -0.0059
75295W        W18311   5.514  17.958  14.033 -0.1450  0.2299 -0.3404
75296W        W18312  11.918  20.111  22.534 -0.0437  0.5507  0.1820
75297W        W18313  19.335   3.427   8.542  0.2003  0.1315  0.0510
75298W        W18314  26.425   1.334   1.602 -0.3999 -0.1257  0.1254
75299W        W18315  18.627   1.195  20.241  0.0776  0.1359 -0.3023
75300W        W18316  18.004  16.174  22.769  0.0983 -0.3548  0.1479
75301W        W18317   8.984   1.410  24.427  0.0416  0.1069  0.0155
75302W        W18318  17.165   6.425   6.276  0.0642 -0.0716 -0.0010
75303W        W18319  19.196  13.346  25.487  0.1833  0.0966  0.4450
75304W        W18320   7.194  30.521  22.280  0.1188 -0.0579 -0.2879
75305W        W18321  22.376  12.808   9.236 -0.1613  0.3486 -0.1499
75306W        W18322  30.900  19.574   2.011  0.2792 -0.1523  0.0670
75307W        W18323  17.551   0.238   5.578 -0.4986 -0.3588 -0.2983
75308W        W18324  10.484  20.682   1.132  0.1233  0.1596  0.1954
75309W        W18325  10.802   4.530  18.953 -0.0343 -0.1479  0.3042
75310W        W18326   1.601  21.613   1.026  0.1722 -0.2415 -0.1336
75311W        W18327   6.828  10.282   2.467  0.0620 -0.3681  0.0486
75312W        W18328  21.492  10.989  14.167 -0.3149  0.1855  0.2069
75313W        W18329   0.646  17.073   2.514  0.0453  0.1548  0.0169
75314W        W18330  13.739  25.957   3.918 -0.2610 -0.0391 -0.3379
75315W        W18331  25.496  18.266   4.924 -0.0315 -0.0105 -0.1917
75316W        W18332  25.199  10.865  14.646  0.1394  0.1477  0.2802
75317W        W18333  15.173  13.467   2.365 -0.0960  0.0084 -0.1388
75318W        W18334  12.861  20.349   2.709 -0.2208 -0.2412 -0.1985
75319W        W18335   2.607  11.711   6.858 -0.2062  0.0935 -0.1905
75320W        W18336  19.002   9.324  25.317 -0.0304 -0.0263  0.0775
75321W        W18337  20.483  12.260  21.457 -0.0381  0.0439  0.1552
75322W        W18338  16.751  15.985   3.123  0.1793 -0.0018 -0.0902
75323W        W18339   7.701  15.343  21.169 -0.2399 -0.0431 -0.2714
75324W        W18340  23.300   2.720   4.815  0.0829 -0.1796  0.0077
75325W        W18341   8.673  15.374  29.295 -0.3639  0.2768 -0.1407
75326W        W18342  14.298   9.736   5.005 -0.3446  0.3118  0.0496
75327W        W18343   5.463  19.199   1.560 -0.0493 -0.2121  0.1715
75328W        W18344  21.891   4.969  28.497 -0.1057 -0.1128 -0.1255
75329W        W18345  18.928  15.695   8.230 -0.2368  0.4004 -0.1157
75330W        W18346  19.967   8.521   5.258  0.3033  0.3129  0.2404
75331W        W18347  12.721  17.235  27.541 -0.2016 -0.2230  0.2566
75332W        W18348  16.957   8.681   8.416  0.0497 -0.2056  0.0215
75333W        W18349  14.368  12.503   2.976  0.1469  0.1433 -0.3468
75334W        W18350   8.730  20.073   5.586 -0.1026 -0.0146  0.2957
75335W        W18351  23.006   5.162   5.459  0.2703  0.1018  0.3110
75336W        W18352   9.299   5.852  24.675 -0.2675  0.3080 -0.2056
75337W        W18353  29.188  31.078  20.785  0.3048 -0.0138 -0.5606
75338W        W18354   6.188  19.472   8.182  0.0221  0.0654 -0.1062
75339W        W18355  32.700  15.094   2.873  0.1888  0.0151  0.2988
75340W        W18356  16.848  11.633  15.794  0.0747  0.0784 -0.1556
75341W        W18357   7.661  17.006  23.143  0.2494  0.1876  0.1218
75342W        W18358  16.899   2.852  22.754 -0.1481 -0.2805 -0.1237
75343W        W18359  20.085   6.031   6.382 -0.3552 -0.0069 -0.0883
75344W        W18360  15.977  27.781   4.381 -0.0188 -0.1342  0.2554
75345W        W18361  23.571   2.160   6.869 -0.1347 -0.2918  0.1501
75346W        W18362  16.745  28.387  20.824 -0.1569 -0.0335  0.2194
75347W        W18363  25.237  16.838  20.978 -0.2296  0.0511  0.0941
75348W        W18364  18.804   9.471  24.457  0.1590 -0.1502  0.2638
75349W        W18365  24.256  17.371   1.209 -0.0727  0.0208  0.2063
75350W        W18366  26.109  16.823  22.551  0.0210 -0.0419 -0.2650
75351W        W18367   5.215  27.623   9.904 -0.1148 -0.3333 -0.2253
75352W        W18368  17.894   6.033  25.370 -0.0148 -0.2304  0.1023
75353W        W18369  14.911  31.298   3.433  0.0055  0.2200  0.1731
75354W        W18370  10.263  13.854   8.715 -0.1531  0.0233 -0.0651
75355W        W18371   4.159  29.438   4.529 -0.0836  0.0247  0.2351
75356W        W18372  10.635   3.617   7.018  0.1539  0.1602 -0.0288
75357W        W18373  13.861  23.547  27.510 -0.0083 -0.1400 -0.0934
75358W        W18374  25.345   2.834   8.920  0.0234  0.0875  0.0125
75359W        W18375  26.019  19.440  19.312  0.0103 -0.0025  0.1272
75360W        W18376  23.412  33.096  21.648  0.3939  0.1280  0.3775
75361W        W18377  27.963  19.680   9.601 -0.4146  0.1812  0.0208
75362W        W18378   6.131  13.668   3.032 -0.1273 -0.1224 -0.1797
75363W        W18379  17.817  12.427   8.095 -0.1406  0.3848  0.1273
75364W        W18380  14.955  25.102  25.035 -0.0550  0.0259 -0.1242
75365W        W18381  28.682  16.770   2.998  0.0930  0.0696 -0.0781
75366W        W18382  16.380   6.870  16.163 -0.0132 -0.0345 -0.1229
75367W        W18383  23.356  14.446   4.679  0.2381 -0.1648 -0.4387
75368W        W18384   9.858  12.877  26.405 -0.0392 -0.3447  0.3162
75369W        W18385   3.364  26.470  26.587 -0.2939  0.1876  0.0288
75370W        W18386  18.863  10.363  22.686 -0.0273 -0.4778  0.3824
75371W        W18387  24.588   4.291  17.156  0.0664  0.0530 -0.0548
75372W        W18388  11.444  21.250  15.734  0.1327  0.0672  0.1029
75373W        W18389  11.454  23.833  19.946 -0.1305  0.0726  0.3165
75374W        W18390   5.647  17.195   8.007 -0.1662  0.0609 -0.0315
75375W        W18391  13.256  22.194  18.338  0.1201  0.2502 -0.3018
75376W        W18392  19.700   4.415   3.568 -0.0491 -0.0009 -0.3398
75377W        W18393   7.783  14.327  29.133  0.1261 -0.0952  0.0249
75378W        W18394  16.826   1.940  16.778 -0.4977 -0.2640  0.0239
75379W        W18395  31.567   7.967   6.642  0.4534 -0.2218 -0.2975
75380W        W18396  11.002  18.653   1.099 -0.4650 -0.2443  0.3226
75381W        W18397   4.238  20.619  25.157  0.1518 -0.0538 -0.0073
75382W        W18398  29.993  20.157  28.401 -0.2949 -0.0511  0.0603
75383W        W18399  18.123  16.063   1.215 -0.0135 -0.1126  0.3002
75384W        W18400  17.935  10.955   2.170 -0.1738 -0.0534  0.0047
75385W        W18401  25.898  27.237   3.331  0.0124  0.1508  0.0356
75386W        W18402  22.144   2.439  16.988  0.2236 -0.0228  0.1453
75387W        W18403   5.196  16.636  16.699  0.2521  0.0058  0.2716
75388W        W18404   2.526  21.709   1.494 -0.1440  0.3207  0.2207
75389W        W18405  19.166  11.278  26.404 -0.0368  0.3069 -0.0240
75390W        W18406  16.936   6.251   4.682 -0.0556  0.0867 -0.0267
75391W        W18407  13.678  20.494   0.686 -0.0045 -0.4448 -0.0879
75392W        W18408  21.981   6.720   0.081 -0.0037  0.0993 -0.1122
75393W        W18409  31.134  22.291   7.318  0.0338 -0.2390 -0.0078
75394W        W18410  14.964  20.369  22.556 -0.1782  0.0952  0.3010
75395W        W18411   9.533  22.609   6.672  0.0091  0.2305  0.1894
75396W        W18412  16.980  32.135   5.134  0.0584  0.0304  0.0153
75397W        W18413  21.218   9.850  14.348  0.0786 -0.1884 -0.2688
75398W        W18414  15.494  22.597   5.984 -0.1418  0.0333  0.1887
75399W        W18415  16.787  17.604   7.508 -0.1142 -0.2393 -0.1123
75400W        W18416  26.457  20.149   4.160 -0.0186  0.1793  0.4290
75401W        W18417   7.271  16.869   8.729  0.2963 -0.1315  0.1610
75402W        W18418  23.963  14.084  18.782 -0.1212  0.0830  0.1059
75403W        W18419  20.846   1.456  10.062  0.1553  0.2954  0.1190
75404W        W18420  18.064  15.910   6.602  0.1673 -0.1546 -0.2095
75405W        W18421   1.898  16.794  28.871 -0.2319  0.2662  0.3796
75406W        W18422  11.175  18.665   4.976 -0.1859 -0.1211 -0.1240
75407W        W18423  20.651  10.056  13.004  0.0319  0.2807  0.1850
75408W        W18424   0.037  19.483  19.102 -0.2070 -0.0022  0.2677
75409W        W18425   1.426   8.320  24.615 -0.1545 -0.1035  0.2255
75410W        W18426  13.911  16.735   8.421 -0.1495 -0.1427  0.0544
75411W        W18427  11.930  18.399  24.239 -0.4305 -0.0495  0.1814
75412W        W18428  12.204  12.604  27.021  0.1006 -0.1190 -0.2584
75413W        W18429  26.245   5.248   7.128 -0.1483  0.1465  0.0955
75414W        W18430  17.469  30.715   2.463 -0.0038  0.0037  0.0300
75415W        W18431  24.315  32.864  28.914  0.1444  0.2406 -0.2076
75416W        W18432  33.566  14.114  15.106  0.0556 -0.2074 -0.2127
75417W        W18433   5.718   7.956  10.680  0.2057 -0.2801  0.2404
75418W        W18434  13.412  13.492   4.835  0.0466  0.3850 -0.2209
75419W        W18435   0.553   3.254   7.907  0.0311 -0.2377  0.2588
75420W        W18436  18.672   2.329  25.804  0.0501  0.2132  0.0143
75421W        W18437   7.926  22.819  20.229  0.0274 -0.1249  0.1660
75422W        W18438  22.568   2.029   7.167  0.0734  0.5180 -0.4969
75423W        W18439  14.583  13.677  28.404 -0.0398  0.1828  0.1461
75424W        W18440  10.371  18.492  25.728 -0.0697  0.2208  0.1383
75425W        W18441  18.631  11.044  26.428 -0.2747  0.0130 -0.1586
75426W        W18442   9.687  20.424  20.944  0.1283 -0.0115 -0.1884
75427W        W18443  30.883  20.518  25.623 -0.2220 -0.2875 -0.0595
75428W        W18444  27.262   2.575   5.801 -0.0830  0.0003 -0.0870
75429W        W18445  18.605  13.509  23.989 -0.1183  0.4680  0.1983
75430W        W18446   1.628   4.841  22.376  0.0614  0.2677  0.0140
75431W        W18447  12.936   2.733   7.119  0.5036  0.1039  0.1538
75432W        W18448  20.933  14.218  22.339 -0.3777 -0.1124 -0.2165
75433W        W18449  18.950  11.041  27.622 -0.1281 -0.1033  0.0747
75434W        W18450  11.585  10.728   7.274 -0.0437  0.0257 -0.2875
75435W        W18451   1.218  17.878  20.672  0.1914 -0.0623 -0.0338
75436W        W18452  18.641   6.044  28.344 -0.0299  0.0822 -0.1530
75437W        W18453   6.873  28.805  19.501  0.4077 -0.2939 -0.1048
75438W        W18454  18.660  18.781   6.239  0.2653 -0.0991  0.0705
75439W        W18455  24.178  22.936   2.592  0.0472  0.2797 -0.3041
75440W        W18456   2.064  29.424  16.300  0.3413 -0.0336 -0.0062
75441W        W18457  16.209  17.883  23.735 -0.2453  0.0637  0.2071
75442W        W18458  11.414   4.303   9.802  0.2334  0.1889 -0.4000
75443W        W18459  22.351  27.135  20.904  0.2402 -0.2519 -0.0205
75444W        W18460  11.263   4.219   7.930  0.1911  0.4898 -0.1915
75445W        W18461  13.475  24.020   1.921  0.2145  0.4205 -0.2472
75446W        W18462  11.137   3.125   3.047  0.1547  0.2835 -0.1306
75447W        W18463  15.423  24.162  17.363  0.0372  0.1179  0.3764
75448W        W18464  19.919  19.328   4.558  0.1786  0.2787  0.0104
75449W        W18465   5.350  21.706  25.925 -0.3418  0.1508  0.3581
75450W        W18466  22.666  13.530   7.539  0.0629 -0.0204 -0.0467
75451W        W18467  25.602   4.259   3.960  0.0936  0.1432  0.2121
75452W        W18468   8.620  25.243  29.244  0.2100 -0.0642 -0.0813
75453W        W18469  10.508   6.162  21.128  0.2438  0.0930 -0.1655
75454W        W18470  22.463   9.881  22.283  0.0200  0.1972 -0.0121
75455W        W18471   4.640   8.249   1.958  0.0684 -0.4560 -0.0791
75456W        W18472  13.283  29.232   6.324  0.2095 -0.2371 -0.4379
75457W        W18473   6.229  12.982   1.071 -0.0872 -0.2093 -0.2049
75458W        W18474  20.790   3.038  16.950 -0.0077  0.1240 -0.1755
75459W        W18475  28.105  24.827   4.566 -0.2330 -0.1620 -0.0779
75460W        W18476  27.112   6.701  10.186  0.2219  0.1163 -0.1046
75461W        W18477   6.342  28.449  28.078 -0.0595 -0.2061  0.1810
75462W        W18478  19.470  33.126  21.598  0.0374 -0.0712 -0.0480
75463W        W18479   7.918   4.407   7.557 -0.0226  0.0379 -0.0395
75464W        W18480  17.563  18.198  26.846 -0.1804 -0.0248  0.0999
75465W        W18481  26.093   8.645   6.583 -0.0950  0.1453 -0.1292
75466W        W18482  15.108  16.749   0.930 -0.0353  0.3149  0.0793
75467W        W18483  17.051  13.762  14.415  0.0681 -0.0171 -0.0133
75468W        W18484  17.943  32.971  10.740  0.3052 -0.2567  0.0284
75469W        W18485  32.702  18.941   6.392  0.0240  0.1851  0.3124
75470W        W18486  32.155  34.133   5.809  0.1523  0.2615  0.1733
75471W        W18487  16.048  18.795   6.804 -0.1518  0.1719  0.0392
75472W        W18488  25.546  16.589   1.450  0.0318  0.0849 -0.2165
75473W        W18489   7.226  10.268   8.363  0.0649  0.1396  0.2526
75474W        W18490  16.917  11.194  18.355  0.0489 -0.0818  0.0300
75475W        W18491  26.539  26.076   2.841  0.1047  0.2586 -0.2961
75476W        W18492  24.748  15.700   5.949 -0.0884 -0.1852  0.1111
75477W        W18493  22.745   5.119   0.070  0.1314 -0.0342 -0.4032
75478W        W18494   7.531  19.713  28.247  0.0217  0.2310 -0.1196
75479W        W18495   4.842  24.708  22.345 -0.0161  0.2831 -0.0004
75480W        W18496  33.698  17.920   7.912 -0.1265  0.3119  0.1553
75481W        W18497  20.564  14.192   0.545  0.2051  0.4720  0.3494
75482W        W18498  12.903  15.491  23.949  0.5044  0.3535  0.0355
75483W        W18499  15.867  13.640   3.843  0.0705  0.2374  0.0773
75484W        W18500  16.328  16.023   8.508 -0.0206 -0.3357 -0.0572
75485W        W18501  26.456  33.136   3.922 -0.3616  0.0171 -0.4722
75486W        W18502  27.964  10.270  23.408  0.2983  0.1343 -0.0624
75487W        W18503   4.694  26.833   8.190 -0.0610 -0.1375 -0.4144
75488W        W18504  30.582  22.548  23.899 -0.2748  0.1311 -0.1105
75489W        W18505   8.095  22.260   8.088  0.0664  0.0359  0.0024
75490W        W18506  20.817   6.127   2.923 -0.1617  0.1085 -0.2099
75491W        W18507  20.288   4.925   5.104  0.1978 -0.1008 -0.0504
75492W        W18508  22.245   5.124   0.306  0.1553  0.4954 -0.0463
75493W        W18509   4.020  18.369  24.511  0.1484 -0.0671  0.0764
75494W        W18510  18.991  14.592   7.457  0.0578  0.1199  0.2102
75495W        W18511   9.834   8.980  25.017  0.0139 -0.3417  0.0048
75496W        W18512  27.722   6.708   6.907  0.1655  0.2123  0.0282
75497W        W18513  12.524   3.700  24.898  0.0885 -0.1038 -0.0470
75498W        W18514  13.063  10.869  21.172  0.1008 -0.1993  0.3073
75499W        W18515  17.039   6.838   5.401  0.0342 -0.0379 -0.0943
75500W        W18516   6.694   0.301  19.373 -0.2380 -0.0635 -0.2622
75501W        W18517  14.654  16.493  20.630  0.0654 -0.2727  0.1118
75502W        W18518   8.387   3.943  10.498 -0.1476  0.0244 -0.2081
75503W        W18519   8.599  26.602  20.447 -0.0963 -0.0361 -0.0733
75504W        W18520   7.568  15.210  18.218  0.3032  0.1872 -0.0329
75505W        W18521   5.454  25.389   8.431 -0.2618 -0.1927 -0.1918
75506W        W18522  31.093  18.416  10.580  0.1871  0.1443  0.0687
75507W        W18523  16.137  23.264  16.280 -0.0411  0.1504 -0.1432
75508W        W18524   3.338   0.812  27.012 -0.0472 -0.1017 -0.0960
75509W        W18525  18.934  10.224  14.549  0.2001 -0.1171  0.1510
75510W        W18526  26.083  26.637  25.095 -0.1171 -0.0559 -0.1618
75511W        W18527  16.750   5.136  27.374 -0.0811  0.2161 -0.0169
75512W        W18528  24.350  14.063   1.729  0.0837  0.1013 -0.1311
75513W        W18529  28.907  33.623  16.720 -0.4601  0.2455  0.0344
75514W        W18530  19.747  29.243   3.710 -0.2486  0.3070 -0.1558
75515W        W18531  19.050  31.536  16.511 -0.1289 -0.1136 -0.2471
75516W        W18532   3.680  32.219   3.198  0.0855 -0.1948 -0.0066
75517W        W18533   3.769  34.181   6.028 -0.2235  0.1535 -0.0934
75518W        W18534  28.764  17.872  17.966  0.1922  0.1490  0.2120
75519W        W18535  13.005  23.946  18.735  0.1121  0.0999  0.2519
75520W        W18536   9.975   3.757  22.263 -0.1357  0.0765  0.0481
75521W        W18537  22.545  21.526  13.385 -0.1889 -0.1720  0.1955
75522W        W18538  10.291  24.104  16.578  0.5482 -0.1463  0.1390
75523W        W18539   3.825  26.383  14.027  0.1525 -0.1209 -0.4172
75524W        W18540  34.234   8.938  17.677 -0.2400  0.1914 -0.0163
75525W        W18541  20.627  28.826  20.692 -0.3127 -0.3696 -0.3895
75526W        W18542  31.225  24.027   5.193 -0.0354 -0.0623  0.1330
75527W        W18543   7.276  29.548  23.580 -0.0983  0.3272 -0.1880
75528W        W18544  33.926  22.705  16.517 -0.0547 -0.2757  0.1569
75529W        W18545  32.862  19.454  18.433  0.2247  0.0989  0.3077
75530W        W18546   7.224  25.370  14.384  0.4263  0.1135 -0.0863
75531W        W18547  17.283  19.485  14.945  0.0109  0.2794 -0.0944
75532W        W18548   9.948  16.793  25.949 -0.0202  0.0722  0.2705
75533W        W18549   4.048  34.295  28.376 -0.0294  0.1749 -0.0487
75534W        W18550   8.152  13.459  19.724  0.1255 -0.4214  0.1421
75535W        W18551  34.649   8.109  18.084  0.1273  0.1862  0.0138
75536W        W18552  10.503   1.317  26.529 -0.0282 -0.0287  0.0750
75537W        W18553  16.476  12.467  13.429  0.1365 -0.4101 -0.0743
75538W        W18554   8.688  10.722  15.035  0.1887  0.3105  0.2017
75539W        W18555  30.506  34.032   6.696 -0.0843  0.2130  0.2903
75540W        W18556  26.211   3.300  23.602  0.2223  0.1078  0.1764
75541W        W18557   4.498  29.093  24.012  0.1322  0.5946  0.0220
75542W        W18558  14.344   9.954  12.898 -0.0042  0.2374  0.0391
75543W        W18559  21.931  29.096   3.166 -0.0572  0.1544 -0.1448
75544W        W18560   8.261  27.598   1.000 -0.0517  0.0529 -0.0630
75545W        W18561  12.316  24.260  16.739 -0.0176 -0.1455 -0.0959
75546W        W18562  11.232  33.730  27.596 -0.1247  0.0337  0.2565
75547W        W18563  14.186  23.867  18.106  0.0010  0.2336 -0.1958
75548W        W18564  30.616  13.097  20.562 -0.0084 -0.1141  0.1811
75549W        W18565   8.787  13.394  17.821  0.0731 -0.1963  0.1615
75550W        W18566  32.660  22.336  17.944  0.1974 -0.2959 -0.1904
75551W        W18567  16.365   7.215  19.680  0.0415  0.1161  0.1378
75552W        W18568   3.134  17.078  15.694  0.1311 -0.0333  0.0960
75553W        W18569   7.344  30.811  14.130  0.2700  0.2663  0.5025
75554W        W18570  13.410  10.087  13.166 -0.1428 -0.1106 -0.0492
75555W        W18571  24.601  13.119  20.430 -0.3294 -0.1499  0.1415
75556W        W18572  27.091   0.638  21.733  0.0162  0.2483 -0.3450
75557W        W18573   2.930  17.196  13.724 -0.3526 -0.2142  0.2005
75558W        W18574   6.456  28.085   8.715 -0.1807  0.2331  0.2737
75559W        W18575  34.583   8.690  25.971 -0.0426  0.0111 -0.1779
75560W        W18576  29.367  21.254  22.607 -0.0897 -0.0119  0.4208
75561W        W18577  23.391  15.981  21.706  0.0759 -0.1487 -0.0490
75562W        W18578   4.941  15.027  23.506  0.1235  0.3837 -0.2098
75563W        W18579  19.234  25.706  20.114  0.2871  0.0405  0.0905
75564W        W18580  12.474  33.869  14.494  0.2639  0.1227 -0.0158
75565W        W18581   6.535  33.808  18.811  0.0551  0.1722  0.3382
75566W        W18582  23.473  21.875  15.516  0.0448 -0.4442  0.1148
75567W        W18583  11.114  14.246  16.669  0.0737  0.0075 -0.0150
75568W        W18584  10.837  12.174  13.835  0.3097 -0.0931  0.1579
75569W        W18585  20.627  27.205  19.873  0.1598  0.0491 -0.2557
75570W        W18586  22.246  31.823   0.680  0.0260  0.0578  0.0303
75571W        W18587  10.874  28.622  22.248  0.3678  0.0839  0.1093
75572W        W18588  25.194  15.237  14.490  0.1674  0.0125  0.3759
75573W        W18589   4.421  13.328  15.666  0.3659  0.0694  0.1827
75574W        W18590  23.084  26.602  26.811 -0.1235  0.0190  0.1005
75575W        W18591  34.762  23.318  19.373 -0.2782  0.1379  0.1898
75576W        W18592  10.703  11.512  18.999  0.0274  0.2718 -0.2703
75577W        W18593  17.192  31.055  23.271 -0.2658 -0.0533 -0.0626
75578W        W18594   6.418  20.386  18.183  0.0898  0.2077  0.1417
75579W        W18595  10.780  26.126  14.309 -0.2332 -0.2858 -0.0878
75580W        W18596  23.795  15.278  19.061  0.3404 -0.3960 -0.2379
75581W        W18597   9.094  26.454  20.368  0.0439 -0.0274 -0.0367
75582W        W18598   7.854  27.210  15.695  0.0042 -0.0497 -0.1749
75583W        W18599  29.942  11.353  16.785 -0.1152 -0.1863  0.2939
75584W        W18600  13.690  22.956  18.729  0.0640  0.1662 -0.0205
75585W        W18601   1.510  19.511  22.682 -0.0255 -0.0495  0.0310
75586W        W18602  13.611  25.259  24.282  0.1904 -0.1736 -0.1509
75587W        W18603  12.730  26.479  23.190  0.0559  0.2320 -0.2770
75588W        W18604  10.456  29.802   4.571  0.0843  0.1984  0.0110
75589W        W18605  26.177  30.948  17.321 -0.0910 -0.2692  0.2049
75590W        W18606  18.870  25.964  24.589  0.1224  0.1171 -0.1142
75591W        W18607  26.962  20.705  19.662 -0.4196 -0.0754 -0.1918
75592W        W18608  21.295   7.414   2.000 -0.0790 -0.1345  0.3469
75593W        W18609   3.215  15.421  21.625  0.0440 -0.0721  0.1891
75594W        W18610  27.928   0.868  19.575  0.2758 -0.2011  0.1408
75595W        W18611  11.308   5.132  25.197 -0.0472  0.1136 -0.0325
75596W        W18612  25.958  24.732  15.216 -0.3199 -0.1011  0.0410
75597W        W18613  15.414  26.603  20.101  0.1666 -0.2097  0.3306
75598W        W18614  14.295   5.722  17.421 -0.2204 -0.2225  0.0694
75599W        W18615  26.459   5.380  21.882  0.0021  0.1676  0.0325
75600W        W18616  15.725  13.474  15.026  0.1105 -0.0644  0.5154
75601W        W18617  27.489   7.163  20.093 -0.2736 -0.1795  0.0794
75602W        W18618  10.388  10.918  20.455 -0.0786  0.0640 -0.3592
75603W        W18619  13.736  32.453  16.648 -0.1692 -0.2345 -0.1636
75604W        W18620  19.303  12.864  14.452 -0.2215  0.1575  0.0815
75605W        W18621  28.543  22.910  28.618 -0.0009 -0.0187  0.1332
75606W        W18622   4.797  31.203  21.974  0.2344  0.0496 -0.2808
75607W        W18623  25.029   1.700  26.088  0.3220 -0.0624  0.3372
75608W        W18624  14.896   4.523  25.440 -0.1424 -0.1125 -0.0602
75609W        W18625   9.850  14.473  14.709 -0.0030  0.0495 -0.0511
75610W        W18626   2.499  10.827  18.429 -0.2712  0.3558  0.1267
75611W        W18627  12.430  24.628  24.676 -0.2927  0.2502  0.1913
75612W        W18628  19.543  22.858  18.903 -0.3956  0.1406  0.2872
75613W        W18629   7.977  14.812   0.821  0.0916 -0.0704  0.1140
75614W        W18630  25.704  20.616  22.156  0.1040  0.0298 -0.2169
75615W        W18631   8.230  12.210  14.973  0.2797  0.3227 -0.1852
75616W        W18632  14.152  27.253  13.398 -0.0180  0.1363  0.1443
75617W        W18633   9.034  20.050  25.876  0.0444  0.0946 -0.1745
75618W        W18634   1.889  31.391  28.859  0.1863 -0.1231 -0.2012
75619W        W18635  24.255  21.291  14.821 -0.4146  0.0511 -0.3379
75620W        W18636  20.831  28.472   2.897  0.0229 -0.0110  0.0476
75621W        W18637  29.864  30.371  27.386 -0.0399 -0.0189  0.2931
75622W        W18638   3.061  10.695  16.603  0.2084  0.4342 -0.1338
75623W        W18639  21.660   2.208  20.020  0.0046 -0.1328 -0.3018
75624W        W18640  17.633  28.146  28.112 -0.2376 -0.1178  0.0385
75625W        W18641  13.870  27.852  14.600  0.2246  0.1770 -0.1681
75626W        W18642  17.870  12.876   0.052  0.0706 -0.2697  0.1069
75627W        W18643  12.971  24.934  14.310 -0.0869  0.0102 -0.0030
75628W        W18644  24.434   8.230   6.590  0.1986 -0.0111  0.2014
75629W        W18645  15.319  32.663  28.498  0.2490 -0.1079 -0.0155
75630W        W18646   9.886  23.697  21.497  0.2081 -0.1281  0.0626
75631W        W18647  13.405  27.718   1.932  0.0303  0.2265 -0.1916
75632W        W18648  33.513  25.789  21.620 -0.3083  0.0477  0.1524
75633W        W18649  12.226   4.213   3.697  0.0684  0.0160  0.3578
75634W        W18650  17.691   8.266  18.640 -0.1548  0.0884  0.1703
75635W        W18651   8.513  19.618  19.020  0.2698 -0.2488  0.0519
75636W        W18652  21.318  26.619  25.935  0.0653  0.0324  0.1695
75637W        W18653   8.759  27.571  20.694 -0.0008 -0.3694  0.3246
75638W        W18654  21.402  25.157  15.757 -0.1333  0.2197  0.2048
75639W        W18655  25.952  28.256  19.163 -0.0478 -0.1458  0.2221
75640W        W18656  10.543  11.700  21.927  0.1433  0.1211  0.2074
75641W        W18657   6.999  29.651  18.089  0.0618  0.1021  0.1225
75642W        W18658  21.180  11.952  14.951  0.0234 -0.0176 -0.0235
75643W        W18659  10.667  27.578  14.240  0.2043 -0.0276  0.2241
75644W        W18660  34.542   3.912  25.139  0.0361 -0.0917 -0.0919
75645W        W18661  23.099  18.559  13.302  0.0354  0.1740 -0.0030
75646W        W18662  12.419  24.572  19.035  0.0630 -0.0725 -0.2110
75647W        W18663  10.989  11.259  18.510 -0.0295 -0.0839  0.0734
75648W        W18664  28.932   8.508  26.955  0.0760  0.2093 -0.3617
75649W        W18665   5.683  17.927  18.911 -0.0734 -0.1223  0.1436
75650W        W18666  20.073  20.322  16.656  0.6287  0.0817 -0.1506
75651W        W18667  12.460   3.068  26.143 -0.0314  0.0184 -0.0713
75652W        W18668   5.800  34.007   1.360  0.2411 -0.1105 -0.0588
75653W        W18669  34.022  21.140   0.126 -0.0050  0.0205 -0.0143
75654W        W18670  23.683  20.960  14.940  0.2209  0.0850  0.1769
75655W        W18671  34.263  24.386  15.818 -0.2930  0.1616 -0.4033
75656W        W18672  13.790  27.160  27.327 -0.1537 -0.1557 -0.1084
75657W        W18673   9.762   5.847  20.680 -0.4146  0.0079 -0.1523
75658W        W18674  11.629   1.293  17.658  0.2481  0.4137  0.1092
75659W        W18675  11.291  23.643  17.546 -0.2063  0.2371 -0.1600
75660W        W18676  21.421  21.213  18.686  0.0080  0.0483 -0.1475
75661W        W18677  20.076  13.643  15.253  0.2520 -0.0508  0.1028
75662W        W18678   2.480  18.772  14.418  0.2205 -0.2712  0.1448
75663W        W18679  13.801   5.575  26.209 -0.1782 -0.3434  0.0433
75664W        W18680  15.565  33.685  10.003  0.4616 -0.0481  0.0475
75665W        W18681  24.555  10.294  15.324  0.2931  0.2393 -0.1349
75666W        W18682   1.159  25.987  18.611  0.2064  0.0761 -0.2991
75667W        W18683  11.531  27.944  18.270 -0.1442 -0.1529  0.3190
75668W        W18684  24.453  17.883  16.715  0.0747  0.1345 -0.0852
75669W        W18685   6.651  18.836  15.132 -0.0744  0.0630 -0.5274
75670W        W18686  26.747  18.781  15.441  0.0238  0.0363 -0.0651
75671W        W18687  22.267  21.819  22.510  0.5214 -0.1489  0.0622
75672W        W18688  13.921  22.295  14.506 -0.3233  0.2380 -0.0277
75673W        W18689   3.374  15.545  26.934 -0.3027 -0.0858 -0.0444
75674W        W18690  18.498   9.578  13.702  0.1492  0.0742  0.0482
75675W        W18691  21.442  25.597   0.272  0.1122  0.2020 -0.2134
75676W        W18692  34.577  12.487  21.959 -0.1202 -0.1774  0.1329
75677W        W18693  32.390  11.925  19.475  0.1189  0.0648 -0.2907
75678W        W18694  14.680  23.339  21.953  0.1931 -0.2104  0.2949
75679W        W18695  10.039  12.248  25.728 -0.4703  0.1963  0.1808
75680W        W18696   4.360  11.379  23.647 -0.0772 -0.1157 -0.1183
75681W        W18697  18.895   6.469  20.689 -0.0523  0.0887  0.2155
75682W        W18698  28.571  25.630  24.186 -0.2921  0.3615 -0.0943
75683W        W18699  18.926  19.913  12.125 -0.0316 -0.1906  0.2322
75684W        W18700   9.898  23.239  15.848  0.1008  0.1803  0.2786
75685W        W18701  18.059  33.644  17.021  0.0775 -0.0793  0.1295
75686W        W18702  10.333  21.829  17.011  0.2091  0.2796  0.0421
75687W        W18703  13.711  22.466  17.072  0.0137  0.3171 -0.1382
75688W        W18704   4.883  16.002  14.785 -0.2174  0.1616 -0.0400
75689W        W18705  34.546  17.820  23.325 -0.0826  0.1057  0.0487
75690W        W18706  13.646  15.626  14.003 -0.0828  0.1469 -0.1966
75691W        W18707   9.303   0.257   4.585  0.0885 -0.0792 -0.1328
75692W        W18708  33.888  25.595  16.235  0.1282 -0.1533  0.1297
75693W        W18709  24.438  11.871  20.886  0.1664 -0.1122  0.0739
75694W        W18710  10.366  32.380  16.229  0.1165  0.2026  0.0632
75695W        W18711  13.262  24.531  12.693  0.3891 -0.1787  0.1224
75696W        W18712  12.554  16.886  24.359 -0.1755  0.1461 -0.0728
75697W        W18713  32.345   8.654  18.285  0.0597  0.0370  0.0967
75698W        W18714  24.941  16.202  21.617  0.1522 -0.0470 -0.1806
75699W        W18715  10.016  15.913  14.222 -0.4457 -0.1157 -0.2187
75700W        W18716  14.582  14.079  19.319  0.0072  0.1975 -0.1340
75701W        W18717  20.904   7.554  25.921 -0.1168 -0.0410  0.0460
75702W        W18718  25.474  12.802  14.638  0.1011 -0.2195  0.0100
75703W        W18719   7.662  18.695  19.274  0.0898 -0.1120 -0.0045
75704W        W18720  17.303  26.299  15.312  0.0023 -0.2732 -0.5167
75705W        W18721  18.618   3.910  18.810  0.0338 -0.0332 -0.0539
75706W        W18722  19.240  21.455  15.680  0.0084 -0.0625 -0.1492
75707W        W18723  26.975  12.673  21.762  0.2065  0.0830  0.2613
75708W        W18724  17.702   6.186  18.406  0.1230  0.1459  0.1081
75709W        W18725  15.020   0.460  15.598 -0.0139 -0.2666  0.2436
75710W        W18726   4.865  18.969  14.237 -0.1146 -0.1547 -0.3066
75711W        W18727  21.099  30.590  28.158  0.1959  0.3109  0.4132
75712W        W18728  12.939  26.909  18.480 -0.0566 -0.0438 -0.2119
75713W        W18729  16.782  11.737  15.261 -0.2680  0.3075  0.5213
75714W        W18730  20.654  21.979  20.127 -0.0800  0.0697  0.2374
75715W        W18731  20.026  10.322  13.124 -0.1395  0.0480 -0.1034
75716W        W18732  17.301  32.323  23.085  0.0712  0.0302  0.0790
75717W        W18733  20.206  33.685  21.257 -0.1128  0.1917  0.1449
75718W        W18734  12.729   9.188  12.734 -0.2093 -0.0358  0.1654
75719W        W18735   0.263  25.093  15.656  0.2257  0.0728  0.1242
75720W        W18736  31.266  22.352  15.720 -0.0354 -0.2088 -0.0221
75721W        W18737  14.559  25.720  17.611  0.2267 -0.0401  0.1766
75722W        W18738  13.937  25.125  27.129  0.0277 -0.0780 -0.0442
75723W        W18739  12.542  22.049  20.183  0.0293  0.2308 -0.0695
75724W        W18740  12.084  20.524  19.671  0.1053 -0.0898  0.3376
75725W        W18741   7.968  25.205  27.422 -0.0431 -0.0482 -0.0285
75726W        W18742  27.559  24.489  15.745 -0.0027  0.0365  0.1113
75727W        W18743   8.915  34.030  19.341 -0.2048 -0.2267 -0.1453
75728W        W18744   8.573  29.816  16.370  0.0755  0.0669 -0.0421
75729W        W18745   6.587  23.474  18.898  0.0726  0.3036 -0.0834
75730W        W18746   9.708  31.054  17.575 -0.1295  0.1918 -0.0712
75731W        W18747  31.983  15.958   1.816 -0.3352 -0.0150  0.1117
75732W        W18748  17.055  22.404  20.760 -0.0002  0.2619 -0.2744
75733W        W18749  20.938  26.391   2.451  0.2010  0.2437  0.1658
75734W        W18750  17.746   9.412  12.877  0.1736  0.2402 -0.0818
75735W        W18751  24.886  10.878  21.639 -0.0372 -0.2265  0.0687
75736W        W18752  14.680  25.430  18.771  0.2253  0.0046  0.1942
75737W        W18753  14.596  16.511  19.314 -0.4929  0.3314  0.0277
75738W        W18754  11.794  10.885  24.025  0.0554  0.1220  0.3110
75739W        W18755  21.235  24.891  17.184  0.1964 -0.2106  0.0870
75740W        W18756  29.829  23.708  22.440  0.1572 -0.0995 -0.1352
75741W        W18757  21.951  32.966  15.421 -0.1420 -0.1591 -0.2998
75742W        W18758   8.856   9.056  13.557  0.1500  0.2396 -0.3785
75743W        W18759   6.036  27.089  17.959 -0.0736 -0.0075 -0.2253
75744W        W18760  17.668  20.694  26.330 -0.0393 -0.2554 -0.0429
75745W        W18761   0.105   9.199  14.837 -0.2191  0.5683  0.2116
75746W        W18762  19.793  15.744   7.899 -0.0350  0.3552 -0.2445
75747W        W18763   5.735  24.589   6.697  0.0539 -0.0252 -0.0796
75748W        W18764  23.968  19.214  15.851  0.1510  0.0919 -0.2253
75749W        W18765  17.121   9.944  24.950 -0.0661  0.0006  0.2653
75750W        W18766   0.352  32.049  20.397  0.2103  0.2991 -0.1543
75751W        W18767  10.797  12.607  19.817  0.3302  0.3757 -0.2394
75752W        W18768  18.101  26.026  17.503  0.0837 -0.0235  0.1178
75753W        W18769   6.390  18.638  23.178  0.1744 -0.0525  0.0712
75754W        W18770  32.832  11.283  15.885  0.2158 -0.1383 -0.0963
75755W        W18771   5.304  26.841   0.430  0.2200 -0.0692 -0.1385
75756W        W18772  33.242   8.063  21.245  0.2133  0.1872 -0.0445
75757W        W18773   8.561   6.301  21.699  0.1445 -0.0260 -0.0783
75758W        W18774  18.089  14.606  13.195 -0.0686 -0.2876 -0.2653
75759W        W18775  15.259   9.532  17.319  0.1420 -0.0538  0.1827
75760W        W18776  20.951  21.886  21.014 -0.0815 -0.0780  0.1167
75761W        W18777   3.752  23.937   0.407 -0.2006  0.2683  0.0530
75762W        W18778  11.832  10.720  24.503 -0.3661 -0.3141 -0.1445
75763W        W18779   4.993  31.083  16.400 -0.0235  0.2567  0.0572
75764W        W18780   9.568  21.343   7.836  0.0288 -0.0361  0.1543
75765W        W18781  34.493  25.618  27.026  0.2692 -0.1443 -0.4973
75766W        W18782  20.746  28.228  17.846  0.1271  0.3035 -0.1601
75767W        W18783  32.272  16.735  21.778  0.2072  0.1217  0.0736
75768W        W18784  14.123  31.283  15.025  0.1082  0.0677 -0.1477
75769W        W18785   1.955   3.949  23.534 -0.0913 -0.1458 -0.1909
75770W        W18786  20.752  15.427  13.146 -0.2019 -0.0392  0.1195
75771W        W18787  28.555  24.540  15.239  0.2761 -0.0295  0.0666
75772W        W18788   9.683  23.838  13.927 -0.2811  0.0116 -0.1700
75773W        W18789  31.070  31.425  23.489 -0.2773  0.1479  0.0971
75774W        W18790   3.297  29.632  27.931 -0.1161 -0.0029  0.2043
75775W        W18791  28.701  18.126  15.764 -0.2367  0.0658 -0.1756
75776W        W18792  11.932  21.949  24.723 -0.3252  0.3448  0.0203
75777W        W18793  27.808   2.593  16.601 -0.2566 -0.2914  0.1113
75778W        W18794  19.020  28.376  18.462  0.4278 -0.0956 -0.1310
75779W        W18795  24.680  21.222  22.309  0.0668 -0.1151 -0.1206
75780W        W18796  17.891  21.104  14.423  0.0467  0.3683  0.1271
75781W        W18797  20.642  29.716  22.451  0.1042 -0.0117 -0.0119
75782W        W18798  17.618  12.490  20.466 -0.0506  0.3400  0.2272
75783W        W18799  18.851   8.550  25.822  0.0007  0.1071  0.1353
75784W        W18800  14.615  32.656  17.268  0.3033 -0.1040 -0.2420
75785W        W18801  12.747  31.294  25.972  0.0425 -0.0745 -0.1033
75786W        W18802   9.475  10.630  16.850  0.0381 -0.1400 -0.0709
75787W        W18803  10.052  19.225  25.090  0.0601  0.0155 -0.2167
75788W        W18804  19.844  15.779  14.642  0.1158 -0.0441  0.0272
75789W        W18805  12.763   7.836  29.145  0.1325  0.0262 -0.2920
75790W        W18806  29.355  27.992  26.968  0.1757  0.0116  0.0423
75791W        W18807  22.007  23.223  24.826 -0.2068  0.1887 -0.2127
75792W        W18808  28.648   9.498  21.317 -0.0738  0.2194  0.1617
75793W        W18809  34.612   0.023   1.832 -0.7057 -0.0172  0.0736
75794W        W18810   9.027  29.331  20.784 -0.0240 -0.2608 -0.2763
75795W        W18811  20.419  22.086  23.722  0.0653 -0.0061  0.2870
75796W        W18812  28.751  20.518  24.815  0.4192 -0.0605 -0.5168
75797W        W18813  13.098  31.132  21.223 -0.1513 -0.1568  0.3322
75798W        W18814  28.565  24.767  28.976  0.0122 -0.3363  0.1320
75799W        W18815   8.837  32.602   0.333 -0.0507  0.0335 -0.1566
75800W        W18816  22.271  13.277  16.518 -0.0280 -0.2595  0.2254
75801W        W18817  14.525   9.152  22.402 -0.1424  0.2000  0.0273
75802W        W18818  27.829  34.646  22.881 -0.0035 -0.0666  0.1176
75803W        W18819  31.862  24.550  21.108  0.0717 -0.3723  0.1255
75804W        W18820   7.061  16.483  22.420  0.2583 -0.2698  0.0086
75805W        W18821  18.219  16.290  13.138 -0.2204 -0.0489 -0.2984
75806W        W18822  34.508  13.082  25.944  0.1384 -0.0636 -0.1183
75807W        W18823   9.982  17.394  13.777  0.2481 -0.4539 -0.2056
75808W        W18824  12.137   8.489  23.613  0.0550 -0.2311 -0.2435
75809W        W18825  21.598  25.322  17.969  0.3389 -0.1836  0.3706
75810W        W18826   7.487  20.135  17.246 -0.0548 -0.1813  0.2454
75811W        W18827  24.402  23.749  18.806  0.0142  0.0093 -0.1239
75812W        W18828  18.942  24.104  23.128  0.1018  0.0117  0.0072
75813W        W18829  24.020  13.387  15.628  0.3603 -0.0029  0.0026
75814W        W18830  10.082  21.239  13.821 -0.0653  0.1639  0.0461
75815W        W18831  23.646   1.211  26.441 -0.1276  0.2996 -0.3269
75816W        W18832  21.621   9.119  21.273  0.0465  0.3571 -0.1416
75817W        W18833  21.412  21.793  13.839 -0.0453 -0.0448 -0.2555
75818W        W18834  14.894   4.806  15.129  0.0847  0.2651  0.0711
75819W        W18835   9.239  11.953  23.370  0.0195 -0.1934 -0.3324
75820W        W18836  10.892  18.529  25.048 -0.0641  0.2188 -0.0938
75821W        W18837  21.871  31.321  18.308  0.1255 -0.0807  0.1649
75822W        W18838  23.187  26.802  20.441 -0.2373 -0.0266  0.2257
75823W        W18839  13.332  26.315  15.552 -0.2057  0.2326  0.2028
75824W        W18840  27.683  29.636  24.636 -0.0757 -0.3490 -0.1871
75825W        W18841  13.183  11.320  12.932 -0.1425  0.0502 -0.0786
75826W        W18842  26.539   3.422  27.822  0.0218 -0.1092  0.0082
75827W        W18843  26.414  22.751  16.639  0.0239  0.3217  0.2167
75828W        W18844  17.707  26.358  14.677 -0.1320 -0.1180  0.0948
75829W        W18845  28.335  29.982  21.176  0.1949  0.1543  0.2694
75830W        W18846  10.586   8.366  17.686  0.0240  0.0444  0.1194
75831W        W18847  12.022   8.466  15.050  0.2075 -0.0324  0.1336
75832W        W18848  33.606  20.702  17.259  0.1192  0.1171 -0.1201
75833W        W18849  18.921   6.445  21.990 -0.1566  0.1051 -0.0935
75834W        W18850  32.450  21.284  23.401 -0.1209  0.3981 -0.3094
75835W        W18851  33.706  15.984  24.041  0.0990  0.3169 -0.3354
75836W        W18852  11.863  11.779  21.010  0.3037 -0.2841 -0.1197
75837W        W18853  31.325   7.131   7.245 -0.1429  0.1816  0.1532
75838W        W18854   3.101  23.523  14.387  0.2102 -0.2328  0.2000
75839W        W18855  22.237  19.855  18.550 -0.1298  0.0525 -0.1541
75840W        W18856   8.703  20.360  16.057  0.1347  0.1497 -0.1213
75841W        W18857  20.864  25.960  16.668 -0.0446 -0.0909 -0.0674
75842W        W18858  27.188  13.750  24.909  0.1106 -0.1848  0.0943
75843W        W18859  17.845  16.307  19.107  0.2166  0.4580 -0.0723
75844W        W18860  12.904  16.165  23.295 -0.0809 -0.0186 -0.0914
75845W        W18861   7.861  17.089  12.641 -0.2887  0.1489 -0.0339
75846W        W18862  16.120  19.507  15.443 -0.3138  0.1830  0.0005
75847W        W18863  26.318  17.968  28.082 -0.0566 -0.1947 -0.1101
75848W        W18864  23.022  15.291  16.507  0.0888 -0.1079 -0.2086
75849W        W18865  32.099  33.411  20.675 -0.1122  0.1694  0.0481
75850W        W18866  27.350  20.001  28.535  0.0586  0.0538 -0.0541
75851W        W18867  22.804  34.760   0.114  0.0936  0.0461  0.0003
75852W        W18868  27.940  24.511  20.248  0.0322  0.0581 -0.3924
75853W        W18869   9.220   5.841  19.782 -0.0277  0.0577 -0.0319
75854W        W18870  15.023   9.992  15.480 -0.1358  0.0829  0.0204
75855W        W18871   3.479   2.450  21.634  0.0709 -0.1491  0.0674
75856W        W18872  21.109  10.215  17.900  0.0276 -0.0487  0.1057
75857W        W18873   3.171  22.913  21.766 -0.2875 -0.1333 -0.3508
75858W        W18874  16.808   8.949  15.931  0.1368  0.3017  0.2906
75859W        W18875  22.562  13.841  17.775 -0.0743 -0.1611 -0.0244
75860W        W18876  18.959  21.557  13.665 -0.0630 -0.0647  0.0513
75861W        W18877   9.652  18.188  19.072 -0.0624 -0.0077  0.3279
75862W        W18878   1.219  25.011  19.608  0.0685  0.2256  0.1702
75863W        W18879  19.178  32.472   7.074  0.0204 -0.4067  0.1986
75864W        W18880  17.430   2.425  25.595 -0.0626 -0.1422 -0.1309
75865W        W18881  20.117  17.338  28.924  0.0377  0.0815  0.1644
75866W        W18882  24.266  18.918  17.706 -0.0461  0.2929 -0.0469
75867W        W18883  33.465  18.550  18.471 -0.1680 -0.1347 -0.2003
75868W        W18884  17.011  19.495  25.471  0.1925  0.3420  0.1048
75869W        W18885  18.869  14.899  13.443 -0.0908  0.0181  0.0797
75870W        W18886  27.468  17.438  15.351 -0.4281  0.1474  0.2338
75871W        W18887  25.027  19.887  16.359 -0.0720  0.0334 -0.1818
75872W        W18888  14.199   1.923  25.539  0.3739 -0.2224  0.0982
75873W        W18889  23.244   6.077  22.864 -0.1122 -0.0513  0.0301
75874W        W18890  33.488  22.895  15.194 -0.1346  0.3857 -0.0287
75875W        W18891  18.658  10.267  24.136  0.1335  0.0520 -0.0210
75876W        W18892  10.662  19.453  13.789 -0.0274  0.3380  0.2617
75877W        W18893  20.318  33.667  19.688  0.1542  0.0359 -0.1063
75878W        W18894  21.382  14.342  25.625 -0.3420  0.1835  0.1471
75879W        W18895  24.589  12.011  25.818  0.3588  0.2661  0.0544
75880W        W18896   8.881  15.316  16.081  0.1624  0.1082  0.0378
75881W        W18897   6.551  12.992  15.076  0.2363  0.1362 -0.1057
75882W        W18898  10.514  31.932  18.360 -0.0879 -0.0812 -0.0069
75883W        W18899   6.520  33.846   9.835 -0.1777 -0.3306 -0.2443
75884W        W18900  13.564  23.613  17.588 -0.2579 -0.1408 -0.0148
75885W        W18901  25.553  15.144  18.480 -0.2878 -0.2323  0.0059
75886W        W18902  26.842   3.402  28.763 -0.0654 -0.2299  0.1239
75887W        W18903  21.865   7.449  20.836  0.0269  0.2841 -0.2107
75888W        W18904  10.905  17.522  14.312  0.2250 -0.1387 -0.2566
75889W        W18905   2.011  16.685  15.354 -0.3198 -0.1428 -0.1517
75890W        W18906   6.441  12.142  16.306 -0.1361  0.2323  0.4740
75891W        W18907  18.363  19.957  14.070  0.0499  0.4102 -0.1628
75892W        W18908  16.945  21.815  12.450  0.1742 -0.1674 -0.2169
75893W        W18909   8.057  13.791  20.603 -0.2532  0.1616 -0.3082
75894W        W18910  21.161  11.162  23.132  0.0297  0.0248 -0.1207
75895W        W18911  26.123   2.653  21.344 -0.1346  0.3009  0.0957
75896W        W18912   1.476  25.276  24.382 -0.0984 -0.0212 -0.1773
75897W        W18913  18.182  15.426  13.147  0.0069  0.1029  0.1124
75898W        W18914  13.207   8.244  20.275  0.0455 -0.1382 -0.1113
75899W        W18915   3.012  17.858  18.006  0.0021  0.0044 -0.1164
75900W        W18916  20.693  33.142  28.761 -0.1653 -0.2031 -0.1327
75901W        W18917  12.519  25.557  24.897  0.0681  0.3095 -0.2570
75902W        W18918   3.457   8.138   6.907  0.1417  0.2246  0.2853
75903W        W18919  14.892   3.738  13.425  0.0099  0.0741 -0.3648
75904W        W18920  25.291  14.523  16.327  0.1997  0.1375 -0.0002
75905W        W18921   9.643  15.478  14.304  0.0434 -0.4156  0.1259
75906W        W18922  29.540  23.238  26.195 -0.0644 -0.3842 -0.0567
75907W        W18923  14.487  10.531  14.033  0.0299 -0.0126  0.1009
75908W        W18924  15.026   1.102  23.163  0.0525  0.0988 -0.0216
75909W        W18925  26.935  21.371  19.720 -0.0469 -0.0342  0.0837
75910W        W18926  22.202  21.251  21.708 -0.4232 -0.0252  0.0407
75911W        W18927  12.586  12.642  13.209 -0.1453  0.0671 -0.1990
75912W        W18928  33.403  18.014  23.331 -0.0983 -0.1726  0.3326
75913W        W18929   9.148   9.002  19.247  0.2633  0.0072  0.2596
75914W        W18930  14.006  12.211  16.250  0.0254  0.1221 -0.0710
75915W        W18931  29.117  12.726  14.368  0.3797 -0.4831  0.1826
75916W        W18932   3.213   7.830  18.883  0.0254 -0.2066 -0.1478
75917W        W18933  32.985  29.137   0.573  0.0569  0.1265 -0.0056
75918W        W18934  18.613  27.989  16.584 -0.0023 -0.1816  0.1089
75919W        W18935  26.082  26.478  20.190  0.1975  0.1638 -0.0712
75920W        W18936  20.530  16.109  12.621 -0.0267 -0.0712  0.1202
75921W        W18937  12.743  16.393  24.202  0.0032  0.0362  0.2164
75922W        W18938  16.333  23.874   1.994 -0.1221 -0.0909  0.0971
75923W        W18939  14.032   9.740   1.612  0.4188 -0.1227  0.1260
75924W        W18940  26.293  10.095  20.995  0.0543 -0.1875  0.1679
75925W        W18941  28.836  22.958   0.094 -0.2188  0.4365 -0.1452
75926W        W18942  17.527  16.119  15.606 -0.1849  0.1468 -0.0717
75927W        W18943  17.011  10.016  24.246 -0.0252  0.2623 -0.0495
75928W        W18944   2.943  25.838  18.229  0.0558  0.2090  0.2314
75929W        W18945   1.074  22.292  21.565  0.1062  0.0970  0.1951
75930W        W18946  16.563  10.512   0.963  0.0097  0.4038  0.1373
75931W        W18947  10.992   0.858  19.247 -0.0348 -0.0965 -0.0350
75932W        W18948  11.871  22.319  13.038 -0.0646 -0.1526 -0.1988
75933W        W18949  23.816  25.469  26.105  0.1221 -0.2570 -0.0739
75934W        W18950  17.131  19.334  14.402 -0.0020 -0.0882  0.2202
75935W        W18951   9.882  23.986  17.436 -0.0816 -0.1601 -0.2954
75936W        W18952  15.903  34.659   4.662  0.1613  0.4234 -0.0546
75937W        W18953  27.479  17.771  21.614 -0.1376 -0.1191  0.2507
75938W        W18954  10.745  23.875  21.149  0.1567  0.0749 -0.2200
75939W        W18955   3.807   2.267  23.230  0.0052  0.0092 -0.0272
75940W        W18956  21.595  13.145  18.552 -0.0548 -0.0443  0.0602
75941W        W18957   2.618  29.945  17.857  0.1290  0.2998 -0.0746
75942W        W18958  24.730  15.650  23.383  0.1782 -0.2246 -0.2389
75943W        W18959  10.161  20.196  22.511  0.0361 -0.1400  0.3062
75944W        W18960   6.463   7.625  19.722  0.1329  0.0539 -0.2211
75945W        W18961  24.686  16.483  15.710 -0.3052  0.2309 -0.1096
75946W        W18962   2.451  12.414  21.241  0.3109 -0.0215  0.0379
75947W        W18963   3.682  20.371  25.703 -0.1447  0.0166 -0.1495
75948W        W18964  17.410  25.992  26.477 -0.1316 -0.1595  0.0055
75949W        W18965   2.484  20.177  18.544 -0.0580 -0.1853  0.0068
75950W        W18966   5.788  15.747  13.450  0.1062 -0.1557 -0.0745
75951W        W18967  16.004  28.542  15.082  0.0152 -0.1921 -0.0236
75952W        W18968  12.027  28.962   7.663 -0.1064 -0.1688  0.0012
75953W        W18969   4.827  26.313  27.557  0.0510  0.2534  0.0474
75954W        W18970   8.685  18.896  22.767 -0.1104 -0.1012  0.2099
75955W        W18971   1.844   9.290  19.880  0.0202 -0.1140  0.1182
75956W        W18972  19.274   5.302  16.705 -0.1081  0.0085  0.3734
75957W        W18973  16.736  15.102  11.417 -0.0199 -0.1398 -0.1969
75958W        W18974  11.744  22.884  16.942  0.1859  0.0191 -0.2286
75959W        W18975  22.190  15.522  14.294 -0.5080 -0.1004 -0.2820
75960W        W18976  16.640  17.886  17.015  0.1910  0.4198  0.0978
75961W        W18977  17.143  27.810  27.638 -0.1385 -0.1710  0.0641
75962W        W18978  34.670  20.366  21.570 -0.3154  0.0217  0.0580
75963W        W18979  15.980  22.552  12.598  0.1322  0.0749 -0.0617
75964W        W18980  21.351  24.558  23.814 -0.0855  0.1287  0.1277
75965W        W18981   9.918  16.495  25.271 -0.2659 -0.0595 -0.2352
75966W        W18982  21.428  28.855   0.696  0.2873  0.1285 -0.1433
75967W        W18983  19.961  11.055  25.199  0.0964  0.1604  0.2002
75968W        W18984   6.705   2.350  17.805  0.0265 -0.2331  0.3208
75969W        W18985  11.806  20.104  18.411 -0.1514 -0.0742 -0.0917
75970W        W18986  11.474  22.949  19.263 -0.1042 -0.0332 -0.0620
75971W        W18987  31.391  29.095  25.672  0.2667  0.2512 -0.0313
75972W        W18988  10.809  26.125   1.555 -0.1451 -0.3405 -0.1161
75973W        W18989  33.223  15.194   1.648 -0.1390  0.2555 -0.0031
75974W        W18990  26.700  14.388  13.634 -0.0214  0.2223 -0.0960
75975W        W18991  13.327  15.316  17.823 -0.2537 -0.1707 -0.1910
75976W        W18992  25.842  22.346  22.239  0.3568 -0.1105 -0.0475
75977W        W18993  14.702  11.869  14.872 -0.1201 -0.0380 -0.0859
75978W        W18994  13.071  25.511  14.369  0.1722  0.2870  0.0145
75979W        W18995   6.913  30.648  25.665 -0.1885 -0.6806  0.1882
75980W        W18996   2.926  13.403  22.661  0.1968  0.3895  0.0241
75981W        W18997  24.318  17.235  14.609  0.0894 -0.5107  0.0901
75982W        W18998   0.730  28.570  27.896  0.0624  0.0299 -0.0387
75983W        W18999  32.417   0.068  18.627  0.2659  0.3948  0.1764
75984W        W19000   7.039  10.724   9.791  0.2445  0.3224 -0.0375
75985W        W19001  22.235  21.922  26.831  0.0146  0.1218  0.3096
75986W        W19002  13.563  24.663  21.572 -0.1526 -0.3126 -0.1980
75987W        W19003  21.830  22.012  28.359 -0.2579  0.0445  0.3335
75988W        W19004   9.030   6.003  16.631  0.0156  0.3405 -0.0878
75989W        W19005   8.828  18.196  27.965  0.0061 -0.2304 -0.2276
75990W        W19006  15.562  26.816  15.742  0.2916  0.2107  0.0562
75991W        W19007  16.131  25.401  13.248  0.0001  0.0104 -0.1340
75992W        W19008  11.636  14.518  22.516  0.2489 -0.3331 -0.0655
75993W        W19009  23.941  26.605  20.593 -0.1540  0.0453  0.2252
75994W        W19010  10.572   4.323   4.313 -0.3613  0.3324 -0.0904
75995W        W19011  18.128  20.942  17.035 -0.0697 -0.0034  0.0650
75996W        W19012  27.488  31.298  26.793 -0.0524 -0.0133 -0.4166
75997W        W19013  20.291  11.399   7.360  0.0755 -0.0859 -0.0534
75998W        W19014  16.408  10.757  23.123  0.5072  0.0888 -0.1474
75999W        W19015   5.112  29.873  22.708 -0.0846  0.0055  0.0210
76000W        W19016  17.084  22.721  15.540 -0.0586 -0.1512  0.5087
76001W        W19017  29.459   8.630  15.213  0.1184 -0.0411  0.0060
76002W        W19018  34.306  33.139  23.269  0.2547 -0.0526 -0.3484
76003W        W19019  13.660  13.932  15.623 -0.0142  0.0880  0.2337
76004W        W19020  13.737  27.318  18.398 -0.1232  0.4161 -0.0997
76005W        W19021  25.561   7.125  16.244  0.0415 -0.2674  0.0232
76006W        W19022  12.057  34.316  23.484 -0.2556 -0.1560  0.1047
76007W        W19023  22.789  31.244  24.663 -0.3574  0.2777 -0.1746
76008W        W19024  23.149   9.910  14.398 -0.0496 -0.1899  0.1960
76009W        W19025  17.620  13.545  13.424 -0.0169  0.1367 -0.1213
76010W        W19026  30.588   7.028  19.892  0.0121 -0.1215  0.0064
76011W        W19027  19.534  26.251  16.247  0.0758 -0.1240 -0.1265
76012W        W19028  10.148  28.593  18.493  0.1898  0.0946 -0.2128
76013W        W19029  17.921   9.593  26.619  0.0179  0.0913 -0.1674
76014W        W19030   6.003  21.722  19.651  0.2598 -0.1682  0.0396
76015W        W19031  26.711  13.431  26.248 -0.1595  0.3313  0.2443
76016W        W19032  17.407  17.866  16.958 -0.0387  0.0911 -0.1036
76017W        W19033  20.683  12.929  15.066  0.0480 -0.2289 -0.2316
76018W        W19034  27.922  18.213  15.230 -0.0824  0.0031  0.0575
76019W        W19035   2.334  26.408  18.503 -0.0049  0.0063  0.2833
76020W        W19036  30.300  24.653  17.028 -0.2387  0.0639 -0.1565
76021W        W19037  23.249  14.874  25.685 -0.0698 -0.1005 -0.2933
76022W        W19038   9.991  20.817   1.548 -0.3391  0.1861 -0.1330
76023W        W19039   2.951  21.149  22.296 -0.0824 -0.2040  0.2393
76024W        W19040   7.148  14.265  16.626 -0.0370 -0.0748  0.1207
76025W        W19041  23.606  31.244   3.391 -0.1757 -0.0481 -0.2916
76026W        W19042  12.351   9.078   1.212 -0.1903  0.1290 -0.1405
76027W        W19043   6.462  23.468  14.026  0.0327  0.0821  0.0774
76028W        W19044  18.878  25.533  21.190  0.1228  0.2985 -0.0636
76029W        W19045  17.595  18.217  12.828  0.1504 -0.1949  0.3504
76030W        W19046  18.581  14.018  12.784 -0.3294 -0.1497 -0.0663
76031W        W19047  27.509  23.370   0.699  0.0998 -0.0445 -0.2966
76032W        W19048  14.211   1.351  26.132  0.0589  0.0372 -0.2102
76033W        W19049  13.866  31.433  22.491 -0.2082  0.1460  0.0077
76034W        W19050  15.817  27.072  23.138 -0.4388 -0.0941 -0.2719
76035W        W19051  15.599  25.154  21.578 -0.0534 -0.2499  0.1039
76036W        W19052   0.903  14.496  16.624  0.3169  0.0952 -0.3612
76037W        W19053   9.635  14.559  17.861 -0.0746 -0.0207 -0.0043
76038W        W19054  17.297  21.524   4.890  0.0378 -0.3211 -0.0399
76039W        W19055  27.196  20.855  15.787 -0.0290 -0.1886 -0.1693
76040W        W19056   3.362  14.720  22.274  0.1971 -0.0645 -0.0688
76041W        W19057   6.114  31.653  21.345  0.0026 -0.0430  0.2217
76042W        W19058  12.469   1.860  20.120  0.2786  0.0571 -0.2798
76043W        W19059  24.567  16.950   2.713 -0.1098 -0.2628  0.0186
76044W        W19060  32.391  21.674  21.391  0.2357 -0.0440 -0.0877
76045W        W19061  15.811  26.506  26.469  0.1175  0.1348 -0.0479
76046W        W19062  17.130  11.211  21.072  0.0319  0.0951 -0.0246
76047W        W19063  21.811   1.975  28.971  0.2884 -0.0353 -0.0261
76048W        W19064   9.257  15.322  14.063 -0.2360  0.1565  0.0138
76049W        W19065  13.229  30.760   2.215 -0.0838 -0.1209  0.0039
76050W        W19066  22.384   7.041  26.012 -0.1523  0.1305 -0.1718
76051W        W19067  12.423   1.624   3.710 -0.2025 -0.1234 -0.1375
76052W        W19068  16.831   2.469   0.379  0.4066 -0.5330  0.1972
76053W        W19069  24.537  26.048  22.410 -0.0790 -0.2058 -0.1146
76054W        W19070  26.297   7.837  22.235 -0.2358  0.0517  0.0337
76055W        W19071  21.722   4.792  26.628  0.1122 -0.1677 -0.0637
76056W        W19072  32.972  14.576  17.353 -0.2644  0.2869 -0.0660
76057W        W19073  11.095  19.790  13.916 -0.1016  0.1829 -0.1376
76058W        W19074   6.668  17.997  18.634  0.2122  0.1358  0.2251
76059W        W19075  16.157  22.015  15.495  0.3078  0.1922  0.1355
76060W        W19076  22.091   9.819  15.221  0.2259  0.3145  0.0976
76061W        W19077  23.281   7.249  15.706  0.0715 -0.1198 -0.1481
76062W        W19078  14.063  29.992  21.334 -0.1255  0.2315 -0.0153
76063W        W19079  28.183   6.460   3.293 -0.3155  0.3525  0.1942
76064W        W19080  16.068  20.457  26.116 -0.1351 -0.0228 -0.1129
76065W        W19081   6.084  13.225  18.908  0.0842  0.1408 -0.1055
76066W        W19082  18.210  24.615  21.897  0.0135 -0.0054 -0.1260
76067W        W19083  32.131  18.712   1.103 -0.0211 -0.0075  0.2000
76068W        W19084  10.568  19.844  23.718  0.0711 -0.0804  0.1087
76069W        W19085  18.132  26.568  17.432  0.0787  0.2182 -0.1874
76070W        W19086  18.398  29.845  22.140 -0.0941  0.0667 -0.1390
76071W        W19087  18.667   5.155  21.866 -0.0133 -0.3189 -0.2347
76072W        W19088  32.117   7.070  17.161  0.3155  0.0744 -0.0483
76073W        W19089  11.693   9.952  17.928  0.0217 -0.1448  0.1093
76074W        W19090   8.791  14.743  16.558  0.1721 -0.1060 -0.2091
76075W        W19091  20.829   5.878   1.434 -0.0565 -0.1884 -0.3076
76076W        W19092  22.880  26.422  22.102 -0.0826  0.1342  0.1411
76077W        W19093  10.979  27.665  26.905  0.1053 -0.1523  0.3900
76078W        W19094  14.822   5.960  26.803  0.0620  0.1387  0.0351
76079W        W19095   8.324  24.954  28.265 -0.1482  0.0339 -0.2239
76080W        W19096  34.578   0.121  17.626 -0.4457  0.1627  0.1774
76081W        W19097  11.101  22.911  14.505 -0.0947 -0.0691  0.4413
76082W        W19098  23.601  17.153  24.652  0.1206 -0.2336  0.1654
76083W        W19099   9.835  24.721   7.996 -0.1283  0.3173  0.1678
76084W        W19100  26.867  20.381   3.863  0.3558 -0.3216 -0.1531
76085W        W19101  10.932  15.487  21.806 -0.3261  0.0542 -0.0652
76086W        W19102  17.540  11.409  16.232 -0.0197  0.0168  0.0255
76087W        W19103   3.391   7.158  16.128  0.1595  0.3372 -0.0198
76088W        W19104  12.220  33.541  23.764 -0.4152 -0.0736 -0.4236
76089W        W19105  22.958   2.983  28.998  0.1072 -0.2646 -0.1516
76090W        W19106  30.622  29.299  20.242 -0.0415 -0.1974  0.0638
76091W        W19107  22.572  24.870  14.209  0.1657  0.2139  0.0357
76092W        W19108  31.791  27.063  14.943  0.0665 -0.0997 -0.0622
76093W        W19109  10.081  21.136  20.771  0.1230 -0.2221  0.1531
76094W        W19110   3.260  14.930  21.756 -0.1288 -0.1425  0.2280
76095W        W19111  11.147  32.610  20.633  0.2320 -0.1290  0.0703
76096W        W19112   7.883  17.711  15.527  0.0910 -0.2526  0.0597
76097W        W19113  14.589  13.773  23.201  0.0106  0.0441 -0.1317
76098W        W19114  24.776   7.565  16.200  0.4427 -0.4137  0.2659
76099W        W19115  13.646   0.500  20.989  0.1293  0.0794  0.2304
76100W        W19116   6.529  19.151  16.196 -0.1033  0.0813 -0.1475
76101W        W19117   5.981   0.053  23.328  0.2823  0.1760  0.0128
76102W        W19118  18.086  19.458  14.202 -0.1214 -0.1333  0.1382
76103W        W19119   9.616  27.500  29.084  0.1375  0.1364 -0.0622
76104W        W19120   8.608  13.668   4.715 -0.2416 -0.1703 -0.0620
76105W        W19121  13.513  21.921  20.151 -0.0375 -0.0086 -0.0999
76106W        W19122  32.276  16.228  25.446  0.1014  0.0187 -0.1567
76107W        W19123  32.397  21.413  22.361 -0.1092 -0.1696  0.2611
76108W        W19124  15.608  14.980  11.732  0.3086  0.0536  0.1574
76109W        W19125  18.345  23.316  13.626 -0.0424  0.1886 -0.2665
76110W        W19126  10.779  19.503  24.808 -0.0443 -0.1517  0.0942
76111W        W19127  20.521  28.398  20.373 -0.0139 -0.2661 -0.2527
76112W        W19128  25.111  16.682  16.407  0.1632 -0.0417  0.3535
76113W        W19129  12.774  28.887  18.981  0.0921  0.0400  0.2368
76114W        W19130  23.540  10.196  14.656  0.3672 -0.0970 -0.0057
76115W        W19131  22.101   7.868   1.549 -0.1601 -0.2067 -0.2413
76116W        W19132  22.239  25.725  15.830  0.3380  0.0248  0.2828
76117W        W19133  22.449  18.979  17.443  0.2039 -0.2275  0.1467
76118W        W19134  15.837  14.467  11.808  0.2221  0.2235  0.0611
76119W        W19135   0.840  18.517  15.780  0.0938 -0.2272 -0.1386
76120W        W19136  18.141  29.897  20.004  0.0936  0.0552  0.5305
76121W        W19137  25.260  18.504  22.413 -0.2507 -0.1199 -0.0540
76122W        W19138   2.837  12.949   2.607 -0.1715  0.1997 -0.0253
76123W        W19139   8.329  28.709  16.849 -0.1752 -0.1344  0.0220
76124W        W19140  21.241  18.589   0.905 -0.2534 -0.4047 -0.3101
76125W        W19141  25.075  31.759  23.754 -0.0975 -0.0027  0.3044
76126W        W19142  20.785  31.515  20.417 -0.2809  0.2054  0.2851
76127W        W19143   3.613  34.258  22.993 -0.0965  0.2045 -0.0659
76128W        W19144  17.021  23.538  12.821  0.2504 -0.0299  0.2425
76129W        W19145  24.944   1.271  20.588 -0.0750  0.2387 -0.1040
76130W        W19146  19.321  30.075  26.248 -0.3988 -0.0281  0.1489
76131W        W19147  22.573  10.585  15.555  0.2280  0.2882  0.0234
76132W        W19148   7.420  14.789  18.392  0.4250  0.2101 -0.0983
76133W        W19149  22.815  21.188  17.153 -0.1250  0.2214  0.1067
76134W        W19150  28.044  23.621  16.329 -0.2613  0.3354 -0.2098
76135W        W19151  17.833  21.994  12.019  0.0471 -0.1106 -0.1305
76136W        W19152  16.899   0.423  21.875  0.0442  0.1875 -0.0169
76137W        W19153   7.783  24.361  14.181  0.0191 -0.0557  0.1832
76138W        W19154  11.543  13.384  15.934 -0.0106  0.0498  0.1327
76139W        W19155   9.806  25.445   3.737 -0.5104 -0.2457 -0.2798
76140W        W19156   5.208   1.525   0.510 -0.1897 -0.0599  0.3415
76141W        W19157  13.025  31.055  19.653  0.0757 -0.1264 -0.2642
76142W        W19158  10.947  15.568  13.204 -0.1747  0.1451 -0.1843
76143W        W19159  16.787  12.159  18.199  0.1977  0.0113 -0.0943
76144W        W19160  16.084  29.034  16.512 -0.0069  0.3061  0.0571
76145W        W19161  22.956   2.067  21.570 -0.1509 -0.0638 -0.0108
76146W        W19162  25.938  13.148  25.008  0.0764  0.2351  0.1954
76147W        W19163  21.707  23.003  20.235 -0.2404 -0.0818 -0.3030
76148W        W19164   2.375   4.995  17.158 -0.0313  0.1494  0.0887
76149W        W19165  21.400  22.737  23.343  0.0628 -0.3606 -0.1208
76150W        W19166  26.900  30.015  18.422 -0.0648 -0.3251  0.0588
76151W        W19167   6.394  20.350  16.534  0.0217  0.3448 -0.1852
76152W        W19168  25.864  23.696   1.451  0.3488  0.2310  0.2252
76153W        W19169  12.851  17.099   5.173  0.2352  0.3317 -0.2394
76154W        W19170   7.438   8.783  18.513 -0.0992  0.1455  0.1962
76155W        W19171  15.434  16.370  12.851  0.3802  0.2511  0.2786
76156W        W19172   3.710  26.991  20.435  0.1552 -0.4857 -0.2063
76157W        W19173  18.194  30.171  16.892 -0.1021 -0.1988  0.0487
76158W        W19174   4.576   2.219   1.262 -0.0478 -0.2873  0.1287
76159W        W19175   6.946  16.234  13.430 -0.1121  0.0590  0.0357
76160W        W19176  21.537  21.011  18.237 -0.2303  0.2036 -0.2727
76161W        W19177  11.028  12.315  15.212  0.0572 -0.1241  0.4660
76162W        W19178  14.052  21.137  19.379 -0.0632 -0.1212  0.0722
76163W        W19179  22.932  27.811  24.587 -0.0080 -0.1207  0.1867
76164W        W19180  17.884  23.280   0.910  0.0036  0.0165  0.4123
76165W        W19181  22.587  11.130  26.030  0.4829 -0.1920 -0.1049
76166W        W19182  29.002  20.884  21.773  0.0331  0.1079 -0.1795
76167W        W19183  23.181  25.067  16.100  0.1541 -0.1001 -0.0921
76168W        W19184  15.424   8.482   7.626  0.0705 -0.2361  0.3351
76169W        W19185   4.800  18.445  22.938  0.0208  0.1866 -0.0572
76170W        W19186   3.436   7.090  26.428 -0.0113  0.1969  0.1766
76171W        W19187   2.857  18.123  14.211 -0.1415  0.1708  0.0408
76172W        W19188  20.025   8.007  18.042 -0.1921 -0.1764  0.1836
76173W        W19189  15.923   0.024  15.636  0.1359 -0.3442 -0.4134
76174W        W19190  19.164  21.326  22.938 -0.5999  0.1350  0.0464
76175W        W19191  14.587   6.295  16.737  0.1945  0.3329  0.1906
76176W        W19192  21.859  20.094  29.045  0.1140 -0.2159  0.0569
76177W        W19193  15.115   8.944  19.447 -0.0123 -0.4720  0.2024
76178W        W19194   2.234  26.781  20.989 -0.1363  0.3370  0.2439
76179W        W19195  31.306  21.015  26.934 -0.3187 -0.1272 -0.3158
76180W        W19196  23.819  23.347  22.484  0.1957  0.0693  0.0570
76181W        W19197  18.872  10.238  20.639 -0.0658 -0.3726  0.0602
76182W        W19198  27.108  27.461  19.108  0.1635 -0.1014  0.0454
76183W        W19199  18.014  24.919  17.470  0.1380  0.3477  0.0723
76184W        W19200   7.369   9.656  14.270 -0.0255  0.4262 -0.0840
76185W        W19201   7.490  26.775  14.867  0.3453 -0.3881  0.2659
76186W        W19202   2.050  22.091  17.865 -0.1617 -0.2282  0.1415
76187W        W19203   3.923  15.223  13.521  0.1330 -0.0163  0.2947
76188W        W19204  10.690  14.371  20.321 -0.2039 -0.1122 -0.1916
76189W        W19205  24.063  14.553  15.031 -0.0455 -0.1049 -0.1070
76190W        W19206  11.869   7.480  21.390 -0.0844 -0.2116 -0.0498
76191W        W19207  18.649  19.263  22.693  0.0423 -0.1967 -0.0812
76192W        W19208   9.778   1.365  17.480  0.1034 -0.1915 -0.0429
76193W        W19209  14.366  31.117  22.376  0.0943  0.3401  0.3224
76194W        W19210  26.813  15.686  26.007 -0.0751  0.0345  0.1867
76195W        W19211   7.981  30.614   1.685 -0.2614  0.0847  0.1053
76196W        W19212  33.460  22.706  24.858 -0.2053 -0.2317 -0.3405
76197W        W19213  21.718  27.736  16.124 -0.1087  0.2392  0.0133
76198W        W19214  12.771  11.628   3.900 -0.3357  0.0818 -0.0349
76199W        W19215  27.815  15.910  18.845 -0.0115  0.2399  0.1043
76200W        W19216  13.544   1.106  14.875  0.1052 -0.0138 -0.1478
76201W        W19217  12.652   5.947  18.882  0.0073 -0.0467  0.3988
76202W        W19218  14.169   8.854  23.271 -0.2000  0.1548  0.3895
76203W        W19219  19.846   7.497  26.998  0.1228  0.0778  0.4383
76204W        W19220  26.057  27.275  18.496  0.1057 -0.0201  0.1274
76205W        W19221  20.865   8.437  16.375 -0.0268  0.0921  0.2734
76206W        W19222  29.726  20.157  23.212 -0.0800 -0.0153 -0.3503
76207W        W19223  14.953   3.343  15.243  0.1124 -0.5579  0.3078
76208W        W19224  12.046   8.011  19.405  0.2501 -0.0779 -0.1738
76209W        W19225   8.422  34.439  26.804 -0.0452  0.0199 -0.2302
76210W        W19226  19.707   9.807  24.246  0.1543  0.2695  0.3771
76211W        W19227  13.162  24.590   5.913 -0.1978  0.0485 -0.0127
76212W        W19228  26.190  11.264  22.558 -0.0451 -0.1231  0.0809
76213W        W19229  14.102  17.380  24.219 -0.2320  0.1286  0.0272
76214W        W19230  27.059  24.518  19.470 -0.0061 -0.1763  0.2724
76215W        W19231  11.941  17.203  14.278  0.0686 -0.1944 -0.0423
76216W        W19232   8.896  21.441  27.395 -0.0285  0.3116 -0.1170
76217W        W19233  17.134  19.060  12.907  0.0014  0.0426  0.0272
76218W        W19234  32.255  24.306  15.389  0.1606  0.3076  0.1572
76219W        W19235  32.022  14.766  29.247  0.0283 -0.0442  0.2333
76220W        W19236  18.674  21.377  24.144 -0.2677 -0.1383 -0.1506
76221W        W19237  27.765  22.820  26.393  0.2690 -0.0384  0.2266
76222W        W19238  15.676  10.275  24.373 -0.0258 -0.0495  0.0645
76223W        W19239  29.537  23.841  23.318  0.1143 -0.1839 -0.2947
76224W        W19240  18.910  19.933   1.123  0.2663  0.2659  0.2617
76225W        W19241  34.747  19.818   1.426 -0.0376 -0.2899 -0.0010
76226W        W19242  31.929  23.640  19.654  0.1605 -0.0970  0.1962
76227W        W19243   8.759  24.779  19.753  0.0342  0.3418 -0.2000
76228W        W19244  30.962   8.508  22.376  0.1021 -0.4510  0.0846
76229W        W19245  18.557  24.788  14.452  0.0356  0.3109  0.0069
76230W        W19246  32.666  23.666  18.121  0.0405 -0.0469  0.0414
76231W        W19247  17.965  24.897  22.888 -0.1414  0.0829  0.1614
76232W        W19248  26.031  17.340  22.551  0.0736  0.1225 -0.0182
76233W        W19249  16.565  20.846  27.980 -0.2672  0.1353  0.4194
76234W        W19250  23.960  32.746  22.558 -0.0424 -0.1337  0.2184
76235W        W19251  17.099  13.877  15.688  0.0316 -0.0197  0.0391
76236W        W19252   0.685  17.387  15.082 -0.0160  0.2955 -0.0633
76237W        W19253   1.067  25.555  23.143 -0.1233 -0.2142  0.0819
76238W        W19254  24.396  24.517  29.044  0.1493 -0.1057 -0.2121
76239W        W19255  10.766   4.997  27.984  0.2543 -0.3554  0.1692
76240W        W19256  16.345   6.720  28.101 -0.3688  0.1406 -0.1896
76241W        W19257  10.213  10.659  24.054  0.2182  0.1675 -0.1887
76242W        W19258  17.602  11.065  19.269  0.2018  0.2895 -0.0809
76243W        W19259  31.251  17.690  17.636 -0.0341  0.1997  0.0930
76244W        W19260  32.289   1.351   4.143  0.1038 -0.0041 -0.2058
76245W        W19261  12.691   0.603  28.714  0.1832  0.0620  0.3705
76246W        W19262  17.673  22.231  14.820  0.1440 -0.1427 -0.0550
76247W        W19263  15.663   5.703  16.641  0.0142 -0.0042  0.0235
76248W        W19264  15.598  23.251  15.519 -0.2594  0.1373  0.1310
76249W        W19265  26.311  28.868  20.782  0.2344  0.0952 -0.0872
76250W        W19266   3.264  25.788  13.788  0.0798  0.1650 -0.0323
76251W        W19267  26.307  18.874  16.511  0.0481 -0.1125 -0.0177
76252W        W19268   9.285   5.462  15.003 -0.1313  0.2639  0.0194
76253W        W19269  10.449   0.068   7.631  0.0755 -0.0386  0.5308
76254W        W19270   8.259  24.379  17.043 -0.0253 -0.0485 -0.1020
76255W        W19271  15.848  24.295   0.484  0.1801 -0.2273 -0.1909
76256W        W19272   7.210  20.683  17.688 -0.2089  0.0398  0.2609
76257W        W19273  16.400   5.272  16.707 -0.2120  0.5264  0.0760
76258W        W19274  26.238  26.054  20.446  0.0205  0.0410  0.0387
76259W        W19275  18.415  10.281  17.683  0.0124  0.0792  0.3609
76260W        W19276   9.986  23.347  22.804  0.0413  0.1448 -0.0807
76261W        W19277  15.880   0.641  19.593  0.2247 -0.0792 -0.0856
76262W        W19278  12.337   0.124   1.564  0.1317 -0.1097 -0.2707
76263W        W19279  26.986  30.890  17.894 -0.1039  0.2331 -0.1602
76264W        W19280   9.705   2.820   9.809  0.0014  0.4611  0.1084
76265W        W19281  23.950  13.844  20.607  0.3402  0.1830  0.1181
76266W        W19282   7.668   9.022   1.230  0.0074  0.1627  0.0856
76267W        W19283  16.426  28.722  26.866  0.3904  0.1215 -0.1843
76268W        W19284   8.332  25.674  15.301 -0.0440 -0.1669 -0.1225
76269W        W19285  22.908   0.459  27.227 -0.0109 -0.6006 -0.0980
76270W        W19286   3.481  18.775  24.076  0.0975 -0.0294 -0.0848
76271W        W19287  13.376   2.372  27.837  0.1922  0.2588  0.0609
76272W        W19288  24.283  18.944   2.761  0.2888 -0.4027  0.0519
76273W        W19289  19.637  18.932  14.245  0.3680 -0.3609 -0.2615
76274W        W19290  32.927  15.078  26.768 -0.0689  0.3048  0.2121
76275W        W19291  14.413  29.830  22.143 -0.2377 -0.2390 -0.5156
76276W        W19292  14.439  17.426  20.906 -0.5144  0.0590 -0.0535
76277W        W19293  10.454  18.312  23.068 -0.0484 -0.0829 -0.0604
76278W        W19294  23.863  18.546  17.607 -0.1053  0.0558  0.2941
76279W        W19295  22.363  23.632  14.417  0.0367  0.1309 -0.0715
76280W        W19296  20.784  14.534  22.741  0.0943 -0.2256 -0.0471
76281W        W19297  10.551  19.640  19.768 -0.0260 -0.2481  0.1271
76282W        W19298  19.863  26.869  27.623  0.2839 -0.0767 -0.1856
76283W        W19299  13.417  11.396  17.846 -0.1691  0.0048 -0.1311
76284W        W19300  13.789   3.398  14.795  0.1580  0.0214  0.0052
76285W        W19301  23.632   7.971  22.426 -0.0164 -0.1162  0.2560
76286W        W19302  16.856  25.645  22.315 -0.1099  0.0064 -0.0142
76287W        W19303  33.880  23.625  21.537  0.3766  0.0429 -0.2408
76288W        W19304   7.864  14.557  22.922 -0.1998  0.4232  0.1579
76289W        W19305  17.933   2.441   2.109 -0.0518  0.2243 -0.0891
76290W        W19306  27.852  17.839  23.283  0.0247 -0.5132  0.1293
76291W        W19307  11.840  15.975  14.430 -0.3204  0.0093 -0.2181
76292W        W19308  18.977  33.092  18.953  0.1797  0.2975  0.2279
76293W        W19309   8.921  10.598  16.628  0.0113 -0.2270  0.0983
76294W        W19310  20.984  21.553  14.182 -0.0023 -0.2795 -0.2684
76295W        W19311  22.375  23.299  22.926 -0.1266 -0.1819  0.0198
76296W        W19312   9.972  13.699  24.556 -0.0774 -0.2128 -0.0053
76297W        W19313  24.659  10.806  19.328  0.0445  0.1621 -0.0601
76298W        W19314  21.728  26.062  19.372 -0.2548 -0.0482 -0.0550
76299W        W19315  27.046   2.804  22.066  0.2826 -0.1100  0.0668
76300W        W19316  15.520   4.972  28.495 -0.3576 -0.1538 -0.4782
76301W        W19317  20.343  28.804  20.112  0.2359 -0.1722  0.0959
76302W        W19318  32.663  19.729   2.609 -0.1237  0.0171 -0.1471
76303W        W19319   9.589  18.761   0.209 -0.3302 -0.1846 -0.0791
76304W        W19320   6.863  19.643  13.713  0.0113  0.2176  0.2495
76305W        W19321  13.364  25.599  16.015  0.1327 -0.1883  0.1714
76306W        W19322  22.949   4.168   1.256  0.2181 -0.0714 -0.1120
76307W        W19323   0.166   6.650  21.477  0.3600  0.1315 -0.0523
76308W        W19324  26.519  21.229  15.449  0.1739  0.0166  0.0099
76309W        W19325  16.135  17.742  12.381 -0.0189  0.1243  0.1170
76310W        W19326  13.960  11.361   5.275  0.0205  0.0464  0.0370
76311W        W19327  17.502   2.338  14.134 -0.2997 -0.0770 -0.0551
76312W        W19328  22.552  25.054  27.724  0.0616 -0.0136 -0.0145
76313W        W19329  33.356  33.094   7.444 -0.3601 -0.1419 -0.3063
76314W        W19330  24.089  26.219   4.330 -0.0794  0.0001 -0.1450
76315W        W19331   3.861  16.110  15.085 -0.0517  0.1874 -0.1788
76316W        W19332  23.573  18.660  16.229 -0.1839 -0.0825 -0.2321
76317W        W19333  12.507  11.951  26.752 -0.1301 -0.1489  0.1153
76318W        W19334   1.824  15.877  29.225  0.0726 -0.3175  0.1509
76319W        W19335  32.097  17.094  17.770 -0.1548  0.1773  0.0426
76320W        W19336  21.117   9.485   4.185 -0.0127 -0.0556  0.1871
76321W        W19337  15.542  23.799  28.493 -0.0994  0.0391 -0.1379
76322W        W19338  14.199  26.469   0.699 -0.1156 -0.0785  0.2239
76323W        W19339  11.853  27.020   9.018 -0.5786  0.0828  0.0997
76324W        W19340  17.725  24.306  13.909  0.1119 -0.2121  0.2488
76325W        W19341  11.739  16.664  15.585 -0.0772 -0.3180 -0.4112
76326W        W19342  15.660  19.589  13.517 -0.1079 -0.2090 -0.1164
76327W        W19343  20.433  20.066   6.416  0.1162  0.2348  0.1188
76328W        W19344  11.062  19.827  28.839  0.1650 -0.0535  0.2363
76329W        W19345  12.906   8.441  12.808  0.0130  0.1965 -0.2082
76330W        W19346  12.130  11.803  16.510 -0.0819  0.1096 -0.0516
76331W        W19347  22.148  16.573  19.884 -0.2612 -0.2682  0.0163
76332W        W19348   7.515  13.961  24.233  0.2224 -0.3374  0.2857
76333W        W19349  11.911  16.816   1.728 -0.2118  0.1297  0.1830
76334W        W19350   0.188  12.666  24.582 -0.1300  0.1623 -0.1195
76335W        W19351  33.445  10.650   3.717 -0.1367  0.1918  0.0719
76336W        W19352  32.119  21.418  17.163 -0.0960  0.2908 -0.1802
76337W        W19353  12.782  20.396   1.042 -0.0554  0.3055 -0.0587
76338W        W19354  32.441   1.888  18.915 -0.1699  0.2289  0.0094
76339W        W19355  14.559  28.752  27.759 -0.0482 -0.0766  0.1471
76340W        W19356  23.777  11.323   8.490 -0.2289 -0.4775  0.2267
76341W        W19357  11.140  21.748  21.088  0.2357  0.1479 -0.0128
76342W        W19358  32.868  32.706  15.560 -0.0776 -0.2708  0.1087
76343W        W19359   5.334  22.366   2.497 -0.0519  0.0625  0.1144
76344W        W19360  29.001  27.229  19.189  0.1400  0.1678 -0.3738
76345W        W19361  34.108  19.900  25.536  0.1617  0.1068 -0.0897
76346W        W19362  13.627  11.918  20.746 -0.1157 -0.3132 -0.3098
76347W        W19363   5.019  20.460  22.735 -0.1327  0.0295 -0.2273
76348W        W19364  22.294  23.008  15.619 -0.1071 -0.0917  0.1224
76349W        W19365  22.566   2.376   8.423 -0.1645  0.0170 -0.0280
76350W        W19366  18.014  11.015  20.891 -0.1413  0.0769  0.0294
76351W        W19367  26.007  15.151  29.142 -0.0972 -0.2596 -0.1150
76352W        W19368  15.415  11.740  20.469  0.0407 -0.1904  0.0139
76353W        W19369  31.139   5.769   1.736 -0.4053  0.2031 -0.1410
76354W        W19370  20.226   4.641  15.584  0.1414  0.0689 -0.2460
76355W        W19371  24.280  22.355  18.965 -0.0455 -0.0533 -0.4003
76356W        W19372  32.939   7.729   6.591 -0.0649  0.0802  0.0965
76357W        W19373  31.156  10.218  20.005 -0.0002 -0.1503  0.0884
76358W        W19374   0.543  25.514  15.079  0.3148  0.0623  0.3031
76359W        W19375  26.032  30.667  22.296 -0.0127 -0.0702  0.1085
76360W        W19376  15.422   7.253  26.696  0.1091 -0.1362  0.2552
76361W        W19377  17.707   1.537  17.887 -0.1455 -0.0596  0.2710
76362W        W19378  11.071   7.901  26.914 -0.0528  0.2800 -0.0917
76363W        W19379  20.299  27.093  16.930  0.2259  0.0488  0.1775
76364W        W19380  12.420  14.585   3.860  0.1624  0.0349  0.2126
76365W        W19381   8.131  20.886  17.866  0.1431 -0.3544  0.1368
76366W        W19382  22.643  18.798   8.156 -0.0363  0.1814 -0.0346
76367W        W19383  11.543  14.638  15.520 -0.3189  0.5280 -0.1546
76368W        W19384  25.300  15.733  17.232 -0.2255  0.0604 -0.2629
76369W        W19385  23.743   7.005  17.499  0.2531  0.2289  0.0397
76370W        W19386  15.696   7.209  16.539 -0.0638  0.2846 -0.2647
76371W        W19387  26.782   9.541   8.659  0.0145 -0.2411 -0.0064
76372W        W19388   6.498  16.086  15.186 -0.2348 -0.3595  0.0427
76373W        W19389  11.808  12.295  29.003  0.3287  0.2344 -0.1558
76374W        W19390  11.502  19.895  18.755 -0.0928  0.1797  0.0425
76375W        W19391  19.223   0.303  25.995  0.1797 -0.0577  0.2069
76376W        W19392  11.892  23.839  14.815 -0.0430 -0.2915  0.2560
76377W        W19393  10.254  12.538  14.524  0.0387  0.0670 -0.3361
76378W        W19394  13.066  21.742  16.210 -0.0709  0.3312  0.3314
76379W        W19395  17.763   9.097   4.716  0.2248  0.0361  0.0170
76380W        W19396  28.895  19.481  17.851 -0.3140  0.1104 -0.0878
76381W        W19397  22.340   5.247   0.794 -0.0586  0.3103 -0.3006
76382W        W19398  22.321  30.166  27.772  0.1322 -0.1104 -0.1813
76383W        W19399  11.627   7.572   2.319  0.0598 -0.0758 -0.0018
76384W        W19400  13.279  15.276  26.915  0.0634  0.0585 -0.0634
76385W        W19401  20.020  13.543  21.838  0.0332  0.2718 -0.5008
76386W        W19402  23.849  31.961   3.918  0.0543  0.0801  0.0908
76387W        W19403  12.905  14.097  13.163  0.1427  0.0223  0.1223
76388W        W19404  31.781  13.591   0.664 -0.0616 -0.2821 -0.1479
76389W        W19405   9.307  22.302   0.954  0.0466  0.0837  0.1980
76390W        W19406  16.244   7.413  25.793  0.0815  0.1144  0.1718
76391W        W19407  10.723  20.190  17.148  0.3382 -0.1124  0.2798
76392W        W19408  11.816  14.603  19.305  0.0457 -0.0170  0.0229
76393W        W19409  21.390   8.404  18.294 -0.1807  0.1721  0.1648
76394W        W19410  30.035   1.574  26.241 -0.3248  0.2005  0.1638
76395W        W19411  21.464  33.669  25.540  0.2975 -0.3070  0.1146
76396W        W19412  12.912  21.493  26.052  0.2833 -0.2070  0.0789
76397W        W19413   9.421   5.672   4.616  0.1369  0.0484 -0.5622
76398W        W19414  17.523  18.685   0.881  0.2785 -0.0627  0.1301
76399W        W19415  10.549   2.739  24.037 -0.0243  0.2167 -0.0306
76400W        W19416  15.583  25.364  17.305 -0.1290  0.1510 -0.3719
76401W        W19417  23.397  22.366  16.889  0.0017 -0.2515 -0.0499
76402W        W19418  21.886  10.753   4.094  0.1893 -0.0533 -0.1910
76403W        W19419  18.737   4.494   0.743 -0.0810 -0.1360  0.0054
76404W        W19420  30.158  21.836  21.141 -0.0581 -0.0140 -0.4683
76405W        W19421  14.838   8.964   1.532  0.5096 -0.2761 -0.1311
76406W        W19422   2.149  12.859   9.412  0.2086 -0.0553 -0.2065
76407W        W19423  27.848  18.062   1.678 -0.0178 -0.0966  0.3009
76408W        W19424   9.783  13.789  20.840  0.0958  0.0450 -0.0950
76409W        W19425   9.313  31.072  25.864  0.3282  0.1822 -0.1182
76410W        W19426  12.334  20.248  21.796  0.0224 -0.3835  0.1194
76411W        W19427  18.430   2.996  24.661  0.1411 -0.2846  0.2319
76412W        W19428  21.809  13.761   7.547 -0.1773 -0.0424  0.0796
76413W        W19429  30.015  16.970  17.205 -0.0277 -0.0911  0.1083
76414W        W19430   8.278  19.978  22.509 -0.3895 -0.0362  0.0120
76415W        W19431  15.578  25.343  27.640 -0.1842  0.0007 -0.0516
76416W        W19432  11.844  31.029  17.409 -0.0158  0.1976 -0.1081
76417W        W19433  31.996  22.133   1.670  0.0654  0.0889 -0.2410
76418W        W19434  24.914  19.173  15.049  0.0557  0.0609  0.0052
76419W        W19435   1.785  20.208   5.988  0.1936  0.1507 -0.1305
76420W        W19436  10.054  20.271  21.784 -0.1304 -0.3848 -0.0924
76421W        W19437   3.743  25.960  29.047 -0.0202 -0.4350  0.1761
76422W        W19438  14.863  21.882   7.077 -0.0196 -0.2098  0.2520
76423W        W19439  32.983   7.754  26.611  0.3512  0.0479  0.0744
76424W        W19440  32.398  15.882  18.511 -0.1503 -0.0509  0.1985
76425W        W19441  17.712  13.363   5.918  0.4316  0.0110  0.1223
76426W        W19442  10.136  17.619  24.175  0.0923 -0.3347 -0.2339
76427W        W19443  22.610  23.950  20.631 -0.1318  0.0948  0.3529
76428W        W19444  16.862  22.392  15.181 -0.1318  0.2728 -0.0621
76429W        W19445  22.142  19.040  14.614 -0.4421  0.3383 -0.0112
76430W        W19446  16.855  18.140  25.265 -0.2617 -0.0953  0.2397
76431W        W19447   1.451  11.480   0.532  0.0427  0.2833 -0.0384
76432W        W19448  25.565  21.155  19.197 -0.0308 -0.1020  0.2272
76433W        W19449  19.425  26.722  17.320 -0.0437 -0.1583 -0.0030
76434W        W19450  31.900  22.825  19.437 -0.3263 -0.3086 -0.3318
76435W        W19451  18.205  33.257   8.123 -0.1238 -0.2738 -0.0245
76436W        W19452  19.791  21.492   8.372 -0.0158  0.0038  0.0156
76437W        W19453  10.654  14.346   0.123 -0.0029 -0.2152  0.2844
76438W        W19454  12.733  10.479  19.737  0.0689 -0.2366  0.1035
76439W        W19455   0.829  18.376  27.580 -0.2854 -0.2424 -0.0251
76440W        W19456  10.552  18.696  15.151  0.1720  0.1555 -0.2091
76441W        W19457  15.901  23.845  14.890 -0.0950 -0.0878  0.4635
76442W        W19458  21.617  18.382  15.802 -0.3756  0.2184  0.1115
76443W        W19459   7.498  19.653  25.768 -0.1645 -0.1688 -0.2737
76444W        W19460  12.872  21.917  19.778  0.0408  0.0598 -0.3537
76445W        W19461  22.712  31.447  21.172 -0.5813 -0.3288 -0.1481
76446W        W19462  15.675  26.622  19.096 -0.1411  0.1190 -0.0276
76447W        W19463  19.670  15.869   1.970 -0.0977 -0.2180  0.3231
76448W        W19464  11.193  12.847   1.468 -0.0508 -0.0732 -0.0429
76449W        W19465  33.290  23.973  21.188  0.1121 -0.1643  0.1951
76450W        W19466  19.659  29.439   1.118 -0.1925 -0.0509  0.1691
76451W        W19467   8.339  11.010   4.201  0.0584  0.0796 -0.3083
76452W        W19468   1.617  30.370  15.262  0.0245 -0.2588 -0.1094
76453W        W19469   9.013  33.172  20.623  0.2801 -0.1348 -0.1278
76454W        W19470  26.996  12.016  26.703 -0.1108  0.3619  0.0914
76455W        W19471  30.397  22.492   5.597  0.0534 -0.0176 -0.0515
76456W        W19472  15.030  21.439  26.064 -0.3758  0.2242 -0.0831
76457W        W19473  11.571  12.021   4.378  0.1232 -0.2983 -0.0660
76458W        W19474  21.175  14.865   2.864 -0.2269 -0.2391  0.0523
76459W        W19475   9.515  12.867  19.811 -0.0812 -0.0338  0.2042
76460W        W19476   7.038  10.971  26.184  0.0976  0.1937  0.0777
76461W        W19477   8.671  18.870   1.399  0.0009  0.0762 -0.3209
76462W        W19478  11.581  12.623   0.787  0.0715  0.0409 -0.2569
76463W        W19479  20.908  20.789   6.619  0.0235 -0.1092 -0.1364
76464W        W19480  25.861  32.027  20.043 -0.2406  0.0198 -0.0059
76465W        W19481  13.571  11.520   3.872 -0.0327 -0.3656 -0.1328
76466W        W19482  17.511   6.526  14.230 -0.3481  0.2671  0.1068
76467W        W19483  23.956  22.348   4.313  0.1787  0.0107 -0.0461
76468W        W19484   9.025  19.457  24.603  0.1674 -0.2967  0.0783
76469W        W19485  20.816  15.114   2.445 -0.0739 -0.3405  0.2551
76470W        W19486  23.894  12.440   3.958 -0.1917 -0.0116  0.0729
76471W        W19487  17.318  30.539  27.523  0.0212 -0.1095 -0.0709
76472W        W19488   2.781  23.722   1.222 -0.0516 -0.2407  0.2387
76473W        W19489   5.174  11.269  22.003 -0.0917  0.1880  0.2859
76474W        W19490  17.180  20.776  23.008 -0.0511 -0.1229 -0.0558
76475W        W19491  34.019  29.141  21.550 -0.0433 -0.1049 -0.3242
76476W        W19492  16.419   0.783   2.087 -0.1826  0.2012  0.0885
76477W        W19493  24.015  14.304  26.438 -0.4913 -0.1723 -0.2922
76478W        W19494  32.244  12.760  17.825  0.0386  0.0801 -0.2601
76479W        W19495  26.146   1.433  23.472  0.0100 -0.2594 -0.1285
76480W        W19496  14.942  19.249   3.932 -0.0005  0.0309  0.0058
76481W        W19497   0.860  33.305  16.230 -0.2049 -0.0886 -0.1554
76482W        W19498  23.787  27.318  17.269  0.0595 -0.1937 -0.1022
76483W        W19499  22.715   5.368   7.890  0.2025  0.1574  0.2872
76484W        W19500  20.209  29.825  19.204  0.4180  0.2029 -0.1203
76485W        W19501  31.133  19.207  28.714  0.1555  0.3765 -0.1797
76486W        W19502  29.408  31.755  27.180 -0.1890  0.2779  0.0266
76487W        W19503  12.447   2.962   7.900  0.5882  0.0215  0.1775
76488W        W19504  18.079  27.689  19.684  0.0398  0.2206  0.0128
76489W        W19505  13.003  19.093  25.923  0.0903 -0.0253 -0.0068
76490W        W19506  11.527  25.825  16.305 -0.2596 -0.0694  0.1829
76491W        W19507  30.478  24.722   7.954 -0.1397 -0.1185 -0.1794
76492W        W19508  29.147   5.178  22.027  0.1485 -0.0133  0.0788
76493W        W19509   5.996  18.386  18.200 -0.1023  0.0722 -0.0383
76494W        W19510  30.544  13.195   3.263  0.0304  0.0679 -0.0464
76495W        W19511  21.626  30.228  22.862  0.2415 -0.1267  0.0523
76496W        W19512  27.325  13.970  18.945 -0.0012 -0.1278 -0.2901
76497W        W19513  27.454  20.941  22.295 -0.1439  0.0923 -0.1298
76498W        W19514  31.267  21.090  28.703  0.2956 -0.0875  0.3344
76499W        W19515  18.082   7.442  14.719 -0.0694  0.0832 -0.1730
76500W        W19516   2.750  21.313   1.046 -0.0114  0.2756 -0.0090
76501W        W19517  14.295  28.992  15.128  0.0858 -0.1088  0.2040
76502W        W19518  16.242   4.645  19.661 -0.2949  0.0644 -0.2288
76503W        W19519  18.798  23.891  28.128 -0.0479  0.0088  0.2160
76504W        W19520  26.203  18.111   4.139  0.0248 -0.3224 -0.3935
76505W        W19521   1.951  21.672   3.831 -0.0984 -0.0269  0.3302
76506W        W19522  23.898  13.247  15.058 -0.0173  0.2044 -0.1485
76507W        W19523  19.440  25.861  25.910 -0.2097 -0.0962 -0.0918
76508W        W19524  17.142   4.497  20.190  0.1571  0.0183  0.2468
76509W        W19525  13.018   4.821  20.172  0.0032  0.0977  0.0982
76510W        W19526  12.759   3.453   6.986 -0.0419  0.3203  0.1570
76511W        W19527  13.882  17.573  24.843 -0.0037  0.1735  0.4425
76512W        W19528   0.770  27.649  25.310 -0.0193 -0.2334  0.1355
76513W        W19529  23.762  15.550   0.228 -0.0846 -0.1095  0.2760
76514W        W19530  13.477  26.693   9.038 -0.2141  0.2877  0.2035
76515W        W19531  10.857  26.391  22.625 -0.0479 -0.0885 -0.1718
76516W        W19532  25.066  22.308  28.410 -0.1811 -0.2400  0.4447
76517W        W19533   4.899  18.184  25.052  0.0855  0.2279 -0.0177
76518W        W19534   7.745  18.909  20.662 -0.2976 -0.1028 -0.0740
76519W        W19535  26.736  21.843  23.778  0.2452 -0.0558 -0.3462
76520W        W19536  33.283  22.697  26.695  0.3200 -0.2441  0.2758
76521W        W19537   1.866  20.139  14.052  0.1675 -0.2364  0.0099
76522W        W19538  12.841  27.973   8.693  0.1518 -0.0286  0.2260
76523W        W19539   7.718  23.324  14.483 -0.0210 -0.2958 -0.3622
76524W        W19540  12.412  24.262   5.998  0.2651 -0.3272  0.0782
76525W        W19541  23.487   0.726   6.159  0.0241 -0.0833 -0.1217
76526W        W19542  13.007  16.102  20.828 -0.0810  0.2531  0.3275
76527W        W19543  11.198  28.226  17.263 -0.0313 -0.4033  0.0554
76528W        W19544   9.395  26.143   2.044 -0.1828 -0.0079  0.0363
76529W        W19545   7.114   8.077  18.880 -0.1245  0.0203  0.0880
76530W        W19546  12.637   3.839   8.490  0.0160 -0.1117  0.0797
76531W        W19547  19.836  22.356   3.052 -0.3079  0.1132  0.2440
76532W        W19548  32.840  31.016  23.657  0.3978  0.0014 -0.1358
76533W        W19549  24.318  23.732  21.629  0.0571 -0.3190  0.1078
76534W        W19550  31.771  17.330  18.843 -0.0077  0.1264  0.0861
76535W        W19551  13.060  13.695  12.847  0.1294  0.0383 -0.0965
76536W        W19552   9.433  17.282   3.565 -0.2069 -0.0037 -0.0920
76537W        W19553   8.860  24.153   7.330  0.2556 -0.0790 -0.1104
76538W        W19554  23.169  10.022   0.347 -0.1855  0.4509  0.0752
76539W        W19555  17.212   2.297  27.353 -0.1300  0.2613  0.0372
76540W        W19556   6.291  24.931  20.278 -0.2716  0.0468 -0.3728
76541W        W19557  25.941  11.024  26.772 -0.3784  0.0941 -0.1367
76542W        W19558  16.584   3.534  22.908 -0.1059 -0.2255  0.2236
76543W        W19559  21.399  21.134  19.287 -0.0056 -0.1799 -0.4351
76544W        W19560   5.258  30.500   0.705 -0.1545  0.0251  0.0149
76545W        W19561  31.383  34.276   3.351  0.2325  0.1424  0.0705
76546W        W19562  22.858   5.801  20.033 -0.0728 -0.1139 -0.0552
76547W        W19563  21.237  26.937  16.347 -0.4047 -0.1619 -0.2738
76548W        W19564  17.703  29.043  21.310 -0.1013  0.0444 -0.1684
76549W        W19565  14.762   0.962  18.644  0.0904  0.2841 -0.1238
76550W        W19566  12.308  33.729  19.731 -0.1721 -0.1316  0.1775
76551W        W19567  15.395  16.267   1.381 -0.0673  0.1318  0.3048
76552W        W19568  14.582  30.330  19.287  0.1162  0.4694 -0.1057
76553W        W19569   2.688  17.613  20.258  0.3217  0.0584 -0.0218
76554W        W19570   6.535  23.995   6.334 -0.0885  0.2038 -0.0692
76555W        W19571  13.588  15.590   4.606 -0.0550  0.0512 -0.3561
76556W        W19572  28.032   7.303   4.967 -0.2993  0.2889 -0.2915
76557W        W19573  27.079  25.787   6.029 -0.0383 -0.1560  0.0248
76558W        W19574  16.405   9.436  19.450  0.0153  0.2152  0.0379
76559W        W19575  14.455  24.591   4.603  0.1701  0.0812 -0.3482
76560W        W19576  27.311  14.186   4.030  0.1612  0.2449 -0.1343
76561W        W19577  21.364  22.126  14.785 -0.0309 -0.0237 -0.0204
76562W        W19578  18.306   2.638   0.752 -0.0372 -0.0422 -0.2413
76563W        W19579   0.567  17.774   2.103 -0.1390 -0.0575  0.0004
76564W        W19580  15.747  15.925   1.595  0.0296  0.2396  0.2296
76565W        W19581  28.561  29.691   6.500  0.0080  0.2420 -0.2625
76566W        W19582  20.824  13.947  21.874 -0.4305  0.0803 -0.2489
76567W        W19583   5.271  17.081   5.490  0.1115  0.0929  0.1059
76568W        W19584  22.276  10.947  28.217  0.0856 -0.0659  0.0467
76569W        W19585  19.367  19.411   8.701 -0.1040  0.2118 -0.0664
76570W        W19586  15.263  31.258   8.499 -0.1304 -0.0401 -0.1453
76571W        W19587  23.080  22.984  16.813  0.0821  0.0064 -0.0836
76572W        W19588  22.353  14.566  27.066  0.0490  0.0451  0.2164
76573W        W19589  14.765  16.239   1.757  0.2535  0.0142 -0.2753
76574W        W19590  34.238  34.111  21.239 -0.1388  0.2077  0.1181
76575W        W19591  19.875  18.093   1.124  0.2105  0.1881  0.3125
76576W        W19592  17.512   0.241  26.713 -0.1876  0.1324  0.0154
76577W        W19593  22.036  27.189  28.970  0.1363  0.1722 -0.2423
76578W        W19594  13.991  18.520   3.331 -0.1568 -0.0070 -0.0157
76579W        W19595   5.208  15.966   1.445  0.0908 -0.0879  0.3402
76580W        W19596  33.721  17.048   3.908  0.3368 -0.0890 -0.2929
76581W        W19597  18.194  22.872  25.892  0.1642 -0.2226 -0.0402
76582W        W19598  18.076  19.289   5.829 -0.0412  0.1586  0.0794
76583W        W19599  12.387   7.369  17.560 -0.1479  0.0575  0.1214
76584W        W19600  22.624  34.275  26.460  0.0237 -0.0147  0.0122
76585W        W19601  29.256  33.559   1.082 -0.0663  0.3544  0.0125
76586W        W19602  26.510  30.488  22.143 -0.2359  0.0042 -0.1852
76587W        W19603  26.412  10.222   1.515  0.1838  0.2429  0.2139
76588W        W19604  14.808  27.463   9.516 -0.1319 -0.2175 -0.0173
76589W        W19605  25.358   6.189   2.938  0.0277 -0.0927 -0.0293
76590W        W19606  11.960  13.822   1.849  0.3632  0.0233  0.0892
76591W        W19607  24.321  24.242  17.217  0.2025 -0.1103  0.2704
76592W        W19608  13.080  22.013  23.481  0.0469 -0.1123  0.0674
76593W        W19609   0.646  28.081   2.482  0.0378  0.0027  0.1208
76594W        W19610  10.877  29.340  15.600  0.1190  0.1515  0.0933
76595W        W19611  25.415  29.562  25.283 -0.2447 -0.1663 -0.2632
76596W        W19612  16.236  10.875   2.564 -0.0637  0.2126 -0.2614
76597W        W19613  10.655   3.536   2.998 -0.0112 -0.2362 -0.0096
76598W        W19614  24.277  20.944  18.296 -0.3122 -0.1739  0.0321
76599W        W19615  16.812  21.279   1.248  0.1981 -0.1539 -0.1814
76600W        W19616   9.935  28.439   3.462  0.2180 -0.1108  0.1800
76601W        W19617  28.853  20.668  25.769  0.2209 -0.1209 -0.1794
76602W        W19618  18.498   3.388   9.802  0.2073 -0.0187  0.0171
76603W        W19619  11.355  18.557   8.343 -0.0386  0.2173  0.2278
76604W        W19620  16.862  25.572  17.785 -0.2926  0.0047 -0.2262
76605W        W19621  16.747  10.421  25.498 -0.1833 -0.0282  0.3350
76606W        W19622  23.676  28.876  23.100  0.0440  0.0966  0.1301
76607W        W19623   5.699  27.449  27.699  0.3693 -0.0499  0.2530
76608W        W19624  12.289  12.352  26.518 -0.1081 -0.4960 -0.2003
76609W        W19625  34.693  33.260   6.161 -0.1179  0.1846  0.2991
76610W        W19626  17.509  17.923  21.576  0.3878 -0.1011 -0.0983
76611W        W19627  16.014  27.899  28.277  0.2327 -0.0105 -0.3529
76612W        W19628  11.318  29.824   1.526  0.2686 -0.4003  0.0770
76613W        W19629  18.499  29.536  16.858  0.0659  0.3644 -0.2475
76614W        W19630  26.456  32.097  15.970 -0.0556  0.1325  0.0729
76615W        W19631  13.843  23.739  21.079  0.1643 -0.1515  0.2749
76616W        W19632  30.548  13.393   0.223  0.1095 -0.2798  0.3798
76617W        W19633  27.691  13.656  17.600  0.0203 -0.0444 -0.0679
76618W        W19634  15.337  19.068   2.126 -0.3333  0.0229  0.1311
76619W        W19635  24.932  24.804  18.361 -0.0533  0.2228  0.3177
76620W        W19636  21.052  26.299  28.301  0.3142 -0.0251  0.1850
76621W        W19637  19.957  29.762   7.651  0.1840 -0.0540 -0.2157
76622W        W19638  20.058  25.551   9.769  0.0314  0.2932  0.0187
76623W        W19639  22.577  16.088  25.831 -0.0204 -0.1521  0.1447
76624W        W19640  17.080  11.804   4.834 -0.1230 -0.1335 -0.0608
76625W        W19641  34.455  32.764   4.787  0.2596  0.1817  0.2750
76626W        W19642  27.800  24.551  24.891 -0.3564  0.0799 -0.1990
76627W        W19643  23.131  29.297  25.503 -0.0400 -0.0649 -0.0635
76628W        W19644  18.703   7.446  14.226  0.0750  0.0262  0.0601
76629W        W19645  22.954  26.906  21.854 -0.1916  0.2117 -0.2269
76630W        W19646  18.411  21.882  25.652 -0.3042 -0.1988 -0.1650
76631W        W19647  18.850  23.907  24.884  0.0467  0.1004 -0.0556
76632W        W19648  16.415   9.077   0.278 -0.1764 -0.2503 -0.1276
76633W        W19649  21.315   8.250  20.505 -0.2177 -0.1218  0.0228
76634W        W19650  18.023  28.047  16.702  0.1724  0.2122 -0.1865
76635W        W19651  19.550  17.304  22.807 -0.2046  0.2426  0.0010
76636W        W19652  24.694  27.328  26.571  0.0274  0.2077  0.1423
76637W        W19653   9.558  32.759   2.684 -0.0831  0.1558  0.1337
76638W        W19654  19.723  15.647  23.031 -0.0980 -0.1015  0.1080
76639W        W19655   8.892  16.536  26.433 -0.2859  0.1644 -0.1284
76640W        W19656  20.285  10.607   0.974  0.0903  0.0111  0.0757
76641W        W19657  27.306  30.977  23.105  0.1362 -0.1539 -0.1979
76642W        W19658  21.283  18.390   5.175  0.1059  0.1291 -0.1644
76643W        W19659  18.179  28.059  11.300  0.0527  0.1763 -0.1096
76644W        W19660   3.918   4.533  22.003 -0.3212  0.0333 -0.2155
76645W        W19661  20.303   1.070  22.780 -0.2206 -0.1872  0.1713
76646W        W19662   6.104  16.181  21.668 -0.0943 -0.2256  0.1475
76647W        W19663  15.172   6.504   8.474  0.0614  0.1282 -0.0307
76648W        W19664  19.533  24.018   8.061 -0.1122 -0.0841  0.0707
76649W        W19665   8.695   1.235  24.038 -0.2638 -0.1429 -0.0019
76650W        W19666  23.916  17.162  21.791  0.2251 -0.2134 -0.2601
76651W        W19667   8.291   8.666   1.966  0.1989 -0.0030 -0.0275
76652W        W19668   2.809   6.903  19.222  0.0908 -0.2921 -0.4473
76653W        W19669  12.697  20.919  16.691 -0.1817 -0.1258 -0.1760
76654W        W19670   1.145  22.210  28.661  0.3476  0.1242 -0.1178
76655W        W19671  25.435   2.119   4.793 -0.0796 -0.1969  0.0920
76656W        W19672  31.381  23.001   0.574 -0.2770 -0.0855  0.0928
76657W        W19673  12.150  17.829   1.736  0.1470  0.1295  0.1180
76658W        W19674  10.337  16.254  27.808  0.2741 -0.1482  0.3429
76659W        W19675  15.770  15.223   5.692 -0.2303 -0.0462  0.3761
76660W        W19676  10.793  12.946  25.837 -0.0417  0.0593 -0.1231
76661W        W19677  13.770  21.421  23.035 -0.1364  0.2288 -0.0197
76662W        W19678  19.334  12.886   1.268  0.0912 -0.0068  0.1452
76663W        W19679   8.777   5.570  16.468 -0.1467  0.1052  0.1337
76664W        W19680   4.435  11.794   3.438 -0.0571 -0.0054 -0.3576
76665W        W19681  10.664  24.612   8.301  0.3558 -0.2077 -0.1167
76666W        W19682  28.576  31.029  11.259  0.2439  0.1701  0.2524
76667W        W19683  16.416   8.459  14.463  0.2606 -0.0099 -0.0823
76668W        W19684   9.917  11.420  19.474  0.2558  0.2845  0.2861
76669W        W19685  21.810  30.085  14.800 -0.0497 -0.0289  0.0590
76670W        W19686  19.186  16.886   0.442 -0.1841 -0.0694 -0.2106
76671W        W19687  21.075   0.773  20.232  0.1222  0.1262 -0.0142
76672W        W19688   5.835  11.589   3.237 -0.2011 -0.0550 -0.1477
76673W        W19689   8.241  22.418   9.288 -0.0773  0.2231  0.2197
76674W        W19690  23.218   4.033  17.606  0.1539  0.1639  0.2729
76675W        W19691   5.958  12.611  24.347 -0.1741  0.0328 -0.1878
76676W        W19692   8.838  22.638   4.020 -0.6290 -0.2976 -0.2420
76677W        W19693  26.885  27.616  21.968 -0.0731 -0.1020 -0.2611
76678W        W19694  17.931   4.263   2.261  0.1315  0.6474  0.0023
76679W        W19695   8.769  11.173   3.925  0.0410  0.1836  0.2937
76680W        W19696   5.683  33.978  24.381 -0.0575 -0.0699  0.3596
76681W        W19697  10.609  17.881  29.202  0.1777 -0.1399 -0.2091
76682W        W19698  28.733  34.700  28.010  0.1210  0.0376  0.1776
76683W        W19699  16.436  21.361   8.774 -0.2157  0.0274 -0.0461
76684W        W19700  23.553  11.080  22.045  0.5670 -0.1146 -0.0283
76685W        W19701   9.961  18.503  16.552  0.0231 -0.1228  0.3103
76686W        W19702  11.742  21.500  21.806 -0.0000  0.2550 -0.0788
76687W        W19703  33.916  10.416  28.891  0.1002  0.0297  0.0472
76688W        W19704  24.333  25.208   7.499  0.2307 -0.4651 -0.0785
76689W        W19705  28.409  20.166  28.411 -0.3550  0.0165 -0.0583
76690W        W19706   4.215  14.245   1.600 -0.1989 -0.1466  0.1628
76691W        W19707   4.554  31.671   2.880  0.2643  0.3000  0.0269
76692W        W19708   8.998   6.886  19.924  0.3889 -0.0379  0.1551
76693W        W19709  24.665  23.451  23.236  0.2187  0.0294 -0.0222
76694W        W19710  23.678  19.836   2.573  0.3657 -0.0500 -0.3081
76695W        W19711  31.118  15.469  20.580  0.2765  0.0970  0.2823
76696W        W19712  17.224  21.201   0.571 -0.0936 -0.0676  0.1742
76697W        W19713  22.424  10.831  21.467 -0.0647  0.0720  0.0446
76698W        W19714  23.991  34.551  18.031  0.0782 -0.4871 -0.1359
76699W        W19715  11.508  20.694  14.845 -0.3668  0.2197 -0.4247
76700W        W19716  12.180  11.704   8.453 -0.1214 -0.1034 -0.1555
76701W        W19717  18.749  32.852  11.040 -0.1614  0.5180 -0.2074
76702W        W19718  23.728   0.493   3.127  0.2699 -0.0776  0.2176
76703W        W19719  20.586  20.114   8.581  0.0163 -0.0613 -0.1664
76704W        W19720  28.199  29.049  25.973  0.0272  0.1322  0.0410
76705W        W19721   8.817  25.012   5.687 -0.0449  0.0762  0.1151
76706W        W19722  13.295  18.439   4.213  0.0927  0.1634  0.2257
76707W        W19723  12.205  29.281  27.832 -0.4682 -0.1770 -0.4506
76708W        W19724  10.805  16.056   6.493 -0.2325  0.0762  0.0301
76709W        W19725  21.505   8.521  24.830 -0.1662 -0.0426 -0.1523
76710W        W19726  25.190  30.515   5.300  0.2497 -0.0328 -0.1695
76711W        W19727   3.045  18.561  14.130 -0.1617 -0.0590 -0.0147
76712W        W19728   4.422  34.746  27.737  0.0084 -0.2575  0.0660
76713W        W19729  16.925  27.633   5.015  0.0618 -0.0838 -0.0141
76714W        W19730  28.313  27.237   7.714  0.1130  0.1273  0.0785
76715W        W19731   8.443   8.726   0.809 -0.0203 -0.1331  0.3678
76716W        W19732   4.915  23.516   0.486  0.1169 -0.0865  0.0969
76717W        W19733   5.721  26.250  21.609 -0.0889  0.1900 -0.4701
76718W        W19734   8.102  30.125  24.547 -0.0897  0.1511  0.2062
76719W        W19735  32.243  22.675  27.003 -0.1127 -0.1405 -0.1294
76720W        W19736  22.180  31.161   9.719  0.0453  0.3233 -0.0885
76721W        W19737  20.328  21.772  22.032 -0.3213 -0.1463  0.0535
76722W        W19738  10.190  25.037  25.646  0.3313 -0.0027  0.0274
76723W        W19739  15.747  11.679   8.868 -0.0389 -0.0022 -0.2387
76724W        W19740  17.886  15.353  12.463 -0.1827  0.0672 -0.4836
76725W        W19741  15.158  25.281   6.407 -0.0036 -0.4386  0.2478
76726W        W19742  12.321  15.841  12.503  0.0113  0.1176  0.1111
76727W        W19743   7.096  12.877   1.571  0.0331  0.1442 -0.0571
76728W        W19744  25.525  23.911   8.055 -0.1034 -0.0864  0.0313
76729W        W19745  23.729   7.921   6.734 -0.1574  0.1579  0.1206
76730W        W19746  22.507   6.204  20.628 -0.2280  0.0543 -0.3451
76731W        W19747  13.286  18.275  29.144  0.2112  0.1540 -0.0147
76732W        W19748  20.206  26.668  21.544 -0.3511  0.1187  0.0658
76733W        W19749   0.704  23.536   0.026  0.0675  0.1239 -0.2770
76734W        W19750  21.636  20.320   8.401 -0.4833  0.0635  0.4051
76735W        W19751  12.476  26.768   9.649  0.0405 -0.2265 -0.0741
76736W        W19752  17.416  18.924  14.098 -0.1980 -0.3398 -0.1066
76737W        W19753   5.790  27.362   3.297 -0.2099  0.0110 -0.2702
76738W        W19754  34.314  22.305  18.909  0.3204  0.0705 -0.0267
76739W        W19755  14.343  22.946  21.500 -0.1743  0.2125 -0.0786
76740W        W19756   4.898  25.895   7.977  0.0565 -0.0134 -0.0374
76741W        W19757   3.439  17.347  25.088  0.1147  0.4397 -0.0894
76742W        W19758   9.909  27.963  21.620 -0.1850  0.0399 -0.0104
76743W        W19759  25.831  20.449  25.336 -0.0527  0.1304  0.1816
76744W        W19760  26.079  15.971   5.375  0.0038  0.0960  0.3669
76745W        W19761  16.018  23.407  15.728 -0.0969 -0.1331 -0.1439
76746W        W19762  21.037   6.942   6.598  0.1609  0.2652 -0.0427
76747W        W19763   3.868   9.335  25.295 -0.3499 -0.1042  0.1640
76748W        W19764  17.009  10.674   6.275  0.1653  0.0378  0.0627
76749W        W19765   0.411  22.023  27.324 -0.2004  0.2485  0.0459
76750W        W19766   3.756  27.553  28.792  0.0233  0.1264 -0.0087
76751W        W19767  22.775  16.904   6.087  0.1458 -0.1057  0.0135
76752W        W19768  16.775  31.964  23.659 -0.3254 -0.1232 -0.0257
76753W        W19769   7.933  26.980  14.671  0.1784  0.1753  0.0995
76754W        W19770  32.005  10.444   5.946 -0.3770  0.0305  0.2531
76755W        W19771   9.633  13.384   0.893  0.0628 -0.2172  0.2895
76756W        W19772  15.548  18.719   3.305  0.1035  0.1728 -0.0759
76757W        W19773  17.527  20.426   7.178 -0.1167  0.0459 -0.1456
76758W        W19774  18.718  32.542   2.175 -0.1876  0.2596 -0.0406
76759W        W19775  24.462  28.543  24.570  0.0162  0.0551  0.1073
76760W        W19776   2.151  17.037   1.391  0.1239 -0.2641 -0.0208
76761W        W19777  12.270  29.942   6.423 -0.0472 -0.2230  0.0402
76762W        W19778  27.416  15.975  10.046 -0.0073  0.0210 -0.2564
76763W        W19779  16.105   9.907  22.994  0.0204 -0.1567  0.1407
76764W        W19780  20.588  31.711  22.997  0.2137  0.2232  0.0173
76765W        W19781  28.615   4.373  21.759 -0.5148 -0.2119  0.0912
76766W        W19782  34.360  31.494   0.780  0.1889  0.3375 -0.0829
76767W        W19783  23.428  26.800  28.483 -0.0977  0.1746  0.1755
76768W        W19784  24.035  16.208   2.351  0.0427  0.0006 -0.0505
76769W        W19785   3.477  19.240  18.510 -0.3705  0.0802 -0.0570
76770W        W19786   6.920  31.650   0.416 -0.1207  0.0821 -0.1828
76771W        W19787   7.491  30.674  17.906 -0.3402  0.0205  0.0088
76772W        W19788  28.482  14.604  24.377  0.3111  0.0878  0.2856
76773W        W19789  30.737  17.079   7.463  0.2468 -0.0442  0.0785
76774W        W19790  19.807  31.612   5.689 -0.0681 -0.0435 -0.2960
76775W        W19791   9.189  18.873   4.649  0.0863 -0.6327  0.2046
76776W        W19792   4.777  18.404   1.390  0.1947  0.3599  0.0657
76777W        W19793   2.738  14.736  17.077 -0.1152 -0.2634 -0.1156
76778W        W19794  11.418  22.011  24.684  0.2309 -0.2006 -0.1745
76779W        W19795  19.441  16.468   7.395  0.0616  0.0582 -0.1990
76780W        W19796  28.891  15.541   4.720  0.1792  0.2179  0.0216
76781W        W19797  31.989  17.193  22.395 -0.4013  0.1895 -0.0601
76782W        W19798  19.391   3.551   7.965 -0.0533  0.0181 -0.1080
76783W        W19799  24.040  11.463  28.764  0.1614  0.2249  0.3825
76784W        W19800  20.286  16.116   7.355  0.0328  0.2090  0.1347
76785W        W19801   9.225  32.961   5.237  0.0229 -0.2776  0.0407
76786W        W19802  13.851  16.092  21.345 -0.0599  0.1245 -0.0113
76787W        W19803  22.270  17.923  16.128  0.3308  0.0801  0.1328
76788W        W19804  25.223  15.057  28.355 -0.0029  0.2186  0.1638
76789W        W19805  16.687  21.817  22.138 -0.0731  0.1822  0.2494
76790W        W19806  30.214  16.643   1.979  0.3647  0.2510  0.2576
76791W        W19807  11.073  29.590   2.091 -0.2059  0.0612 -0.0491
76792W        W19808   5.194  11.829   3.983  0.4588 -0.1924  0.0112
76793W        W19809  14.947  15.644  13.012  0.2565  0.3628 -0.0250
76794W        W19810   5.643  16.883   1.084  0.0734 -0.3025 -0.1049
76795W        W19811  22.629   7.150   9.241  0.2606  0.0615  0.0569
76796W        W19812  33.168   6.578  10.640 -0.0369  0.0823 -0.2067
76797W        W19813  34.238   2.899  18.199 -0.1096  0.1293 -0.1200
76798W        W19814  19.815  33.701   7.230  0.3911  0.4247 -0.1634
76799W        W19815   4.756  20.747  28.953  0.0833 -0.2109  0.1699
76800W        W19816   4.782  20.762  16.754 -0.1733  0.0734  0.1790
76801W        W19817  16.244  32.251   1.687  0.1308 -0.0960  0.1231
76802W        W19818   8.474  27.503   9.681  0.0320  0.1805 -0.3522
76803W        W19819  15.154  16.949   8.730 -0.2070  0.0700  0.3134
76804W        W19820  25.706  27.745  16.279 -0.1037 -0.0537 -0.0735
76805W        W19821  19.849  25.809  15.954 -0.2021 -0.1319 -0.3246
76806W        W19822  27.292   4.437  28.243  0.2752  0.4245 -0.0575
76807W        W19823   7.760  27.830  25.894 -0.3593 -0.6340  0.2200
76808W        W19824  16.694  12.826   1.793 -0.2494 -0.0293 -0.0763
76809W        W19825   7.310  18.253   7.885 -0.2256  0.1259  0.1124
76810W        W19826  13.124  21.225  18.947 -0.1083 -0.0586  0.2672
76811W        W19827  30.404  15.059  27.277 -0.0119 -0.1376 -0.2372
76812W        W19828   1.853  17.668  21.529  0.1083  0.2535 -0.2019
76813W        W19829   4.593  25.249   8.601  0.0772  0.1745  0.0653
76814W        W19830  33.502  29.930  22.103  0.0677 -0.2660 -0.2048
76815W        W19831  10.154  33.504   5.190  0.3325 -0.3886 -0.4283
76816W        W19832  25.951  18.114   2.607  0.2340  0.1714 -0.5857
76817W        W19833   7.165  20.038  16.731  0.4230 -0.1479  0.3889
76818W        W19834   0.540  11.666   2.007 -0.2811  0.0304  0.1419
76819W        W19835  21.281   6.502  22.494  0.0886  0.3130 -0.0087
76820W        W19836   7.232   6.752  10.318 -0.1040 -0.0682 -0.1340
76821W        W19837  22.242  18.394  19.775  0.1174 -0.0008  0.1757
76822W        W19838   3.868  15.477   9.885 -0.1694  0.1569 -0.2366
76823W        W19839  27.075  12.963   9.611 -0.0361  0.1336  0.2098
76824W        W19840  19.812  28.974   0.435 -0.3781  0.1974  0.0438
76825W        W19841  32.521  20.410  25.778 -0.2251 -0.0060 -0.1219
76826W        W19842  31.717  18.781  25.805 -0.1583 -0.0810  0.1859
76827W        W19843  19.064  17.670  27.003 -0.0009  0.3907  0.0442
76828W        W19844  19.150  11.356  15.408 -0.1204  0.1891  0.0851
76829W        W19845   9.954  25.296  24.562  0.2684  0.1274 -0.1508
76830W        W19846  29.624  21.153  27.398 -0.1722  0.0793 -0.0316
76831W        W19847  33.738  13.515   1.446 -0.0295 -0.2494  0.2670
76832W        W19848  20.616  15.872   7.084 -0.0430 -0.1444  0.0740
76833W        W19849   8.203  27.539   9.320  0.0298 -0.1035  0.2547
76834W        W19850  26.332   9.327  28.412 -0.0772  0.3612  0.1848
76835W        W19851   0.186  21.626  19.263 -0.1429  0.0599  0.1520
76836W        W19852  14.101  28.136  20.336  0.0183  0.2003  0.0762
76837W        W19853  28.773   8.321   3.833 -0.0925 -0.0961 -0.0995
76838W        W19854  24.407  10.162  14.589  0.0299  0.2178  0.2072
76839W        W19855   2.151  24.738  22.272  0.2844  0.0383 -0.0926
76840W        W19856  23.698  18.916   2.735 -0.3414 -0.2450 -0.0584
76841W        W19857  12.206  13.010   6.548  0.3556  0.4197 -0.1026
76842W        W19858  13.328  20.285   4.551 -0.3361  0.3732  0.4552
76843W        W19859  15.492  12.783   1.978  0.2848 -0.1402 -0.1154
76844W        W19860   9.557  15.772   4.302 -0.0314 -0.0612 -0.0877
76845W        W19861  21.380  25.562  21.276  0.2433  0.0236 -0.2171
76846W        W19862   8.196   8.049   7.842  0.3193  0.0226  0.0427
76847W        W19863  14.478   1.579  27.615 -0.2226  0.0009 -0.4289
76848W        W19864  23.573  18.300   1.872 -0.0098 -0.2827  0.1174
76849W        W19865  18.129  27.523   1.223  0.2132 -0.1840  0.0848
76850W        W19866  22.818   9.915  15.773  0.1260 -0.2279 -0.3262
76851W        W19867  24.444   8.965   7.521 -0.0228  0.0004 -0.0490
76852W        W19868  26.533  15.927   8.600 -0.0642  0.0548  0.0533
76853W        W19869  15.237   3.989  10.514  0.0869  0.2736 -0.2448
76854W        W19870   3.028  13.506   4.906 -0.0250  0.0338  0.0014
76855W        W19871  14.587  19.912   6.651 -0.0182 -0.0467 -0.0887
76856W        W19872  12.798   2.579  24.289 -0.1458 -0.2793 -0.0793
76857W        W19873  29.381  20.134   8.465 -0.1051  0.0351  0.1015
76858W        W19874  11.438  11.851  19.437 -0.0349 -0.0119  0.0106
76859W        W19875  29.051  28.820  26.282  0.0324  0.2975 -0.0431
76860W        W19876   4.038  16.127   4.767  0.0931  0.1387 -0.1372
76861W        W19877  18.704   0.490  28.977  0.1012  0.3458 -0.1455
76862W        W19878  24.323   4.695   5.817 -0.1699  0.1031 -0.1467
76863W        W19879  28.471  16.021  29.022 -0.0747 -0.1293  0.0079
76864W        W19880  15.635  11.718   7.991 -0.1397 -0.0429 -0.1548
76865W        W19881  23.368  29.180   2.984 -0.1673 -0.0303 -0.0968
76866W        W19882   2.484  32.652  20.051 -0.1881 -0.2918  0.0932
76867W        W19883  18.720  14.191   3.084  0.3315 -0.0242  0.1170
76868W        W19884  21.560  26.761   4.100  0.2670 -0.0216 -0.0848
76869W        W19885  20.548   4.518   7.182 -0.0229  0.0881 -0.0515
76870W        W19886  15.593  25.447  28.940 -0.1470  0.1358 -0.0856
76871W        W19887  30.029  27.625  20.035  0.1421  0.1819  0.0946
76872W        W19888  13.342  33.520   6.676 -0.1116 -0.0763 -0.1839
76873W        W19889   5.608  28.586   4.346  0.0425 -0.0083  0.1446
76874W        W19890  13.205  13.159  28.531 -0.0844  0.2225 -0.0817
76875W        W19891   5.116  22.857  23.775  0.0927 -0.1222  0.0581
76876W        W19892   5.592  19.167  21.729  0.1402  0.1139  0.4095
76877W        W19893  27.704   8.095   0.882  0.2376 -0.3844  0.1219
76878W        W19894   0.137  17.238  21.351  0.0226  0.0105 -0.0589
76879W        W19895  25.348   5.920   3.405  0.0284 -0.2202  0.1645
76880W        W19896  21.943  25.917  21.556  0.2431 -0.0585 -0.0837
76881W        W19897  20.357   3.422   9.419 -0.4423  0.0727 -0.1913
76882W        W19898  13.643   1.758   5.575  0.1171  0.0676 -0.1751
76883W        W19899  20.557  18.435   5.329 -0.1756  0.1650 -0.1941
76884W        W19900   0.331  21.181  26.568  0.0124  0.0158  0.0212
76885W        W19901  28.567  22.789  25.332 -0.3734 -0.2802  0.0241
76886W        W19902  22.344   8.371   6.036  0.0942  0.4160  0.1695
76887W        W19903   5.603  34.480  23.463 -0.0024  0.1041  0.1505
76888W        W19904   4.051  31.231  21.401  0.1004  0.0752  0.0374
76889W        W19905  11.141  20.609   5.221 -0.0535 -0.0031 -0.2876
76890W        W19906  16.789  29.544  15.816  0.0365  0.0180 -0.0403
76891W        W19907   1.116  24.575  20.047  0.0239 -0.3005  0.0773
76892W        W19908  10.026   7.817   6.473  0.2057  0.4947 -0.1301
76893W        W19909   8.063  20.181   6.311 -0.1596 -0.0617 -0.0498
76894W        W19910  15.340  19.147  19.477 -0.0783 -0.3733 -0.1239
76895W        W19911   5.613   9.353   2.052 -0.1072  0.1888  0.2483
76896W        W19912  21.974  29.897   8.357 -0.0829  0.1381 -0.3891
76897W        W19913  19.084  25.809  22.854  0.1078 -0.2625  0.0143
76898W        W19914  25.575  13.060  23.155 -0.1153  0.0341 -0.1084
76899W        W19915  11.773   6.999  23.994  0.4259 -0.1421  0.0816
76900W        W19916  14.609  23.068   0.565  0.0482 -0.0584  0.2324
76901W        W19917  28.193  16.157  17.977  0.1499 -0.2406 -0.1446
76902W        W19918   0.098  29.432  22.021 -0.0481  0.3402  0.2180
76903W        W19919  34.120  10.777  24.415  0.2690  0.0792  0.3387
76904W        W19920   4.637   3.204   1.563 -0.0977 -0.2460  0.0345
76905W        W19921   8.555  21.498  14.874  0.3320 -0.0770  0.3083
76906W        W19922   1.423  19.268  26.460 -0.0495  0.0651  0.1477
76907W        W19923  25.168  23.080   0.242 -0.1233  0.2931  0.0920
76908W        W19924  14.318  28.445   5.097  0.0163  0.6061  0.1675
76909W        W19925   8.010  23.643  27.164  0.2837 -0.2078  0.0072
76910W        W19926  18.300  23.600   7.208  0.2041 -0.1225 -0.0117
76911W        W19927  24.116  25.030  22.010 -0.2185 -0.4827  0.2328
76912W        W19928  20.012  34.366  16.725  0.0304 -0.2069 -0.0253
76913W        W19929  19.516   7.671   6.698  0.0430 -0.1715  0.0381
76914W        W19930   9.262   0.995  23.002  0.2472  0.1455  0.3317
76915W        W19931  16.877  12.300   3.054 -0.4338 -0.0762  0.0213
76916W        W19932  29.548  21.002   3.823 -0.1587  0.0690  0.0423
76917W        W19933  23.020   6.189  29.198  0.4407  0.0242 -0.0892
76918W        W19934   6.492   0.604  27.743 -0.2417  0.0925 -0.3113
76919W        W19935   5.795  23.395  18.012 -0.2687 -0.2455 -0.2162
76920W        W19936  24.141  25.476  15.452  0.1584 -0.0315  0.1199
76921W        W19937  33.762  13.649  25.381  0.0746 -0.0012 -0.1717
76922W        W19938  31.352  29.543   4.593  0.0738 -0.0451  0.1050
76923W        W19939  17.128  17.257  20.624  0.0871  0.3103  0.1042
76924W        W19940  25.491   9.863   7.698 -0.2324  0.0263 -0.2531
76925W        W19941  12.207  33.886   1.637  0.2548 -0.3283 -0.0067
76926W        W19942   2.382   1.635   4.283  0.1937 -0.0507  0.0064
76927W        W19943  16.864  26.416  15.473 -0.2921  0.3967 -0.0169
76928W        W19944  20.388  20.622   3.347 -0.1729  0.2778  0.0377
76929W        W19945   6.490  32.903   3.796  0.0294 -0.0200 -0.1878
76930W        W19946  12.316  34.304   8.133 -0.0802 -0.1627  0.2273
76931W        W19947  13.363  30.754   0.124 -0.1529 -0.1601  0.1573
76932W        W19948   0.948  17.833  25.250  0.1969  0.1670 -0.4204
76933W        W19949  20.209  21.354   7.127 -0.1201  0.1756 -0.0387
76934W        W19950  25.947  28.916  17.793 -0.1776  0.1682 -0.0937
76935W        W19951  23.255  10.099  20.267 -0.0420  0.4967 -0.0298
76936W        W19952  25.799  12.617  23.318 -0.4323 -0.1874 -0.2757
76937W        W19953  16.349  17.997  25.909 -0.2378 -0.0962  0.0162
76938W        W19954  16.434  18.576  28.005 -0.2751 -0.0347  0.1959
76939W        W19955  21.653  23.209  26.898  0.0394  0.1201  0.1241
76940W        W19956  15.845  15.421  11.400 -0.0768  0.1409 -0.4327
76941W        W19957  31.391   7.409   3.842  0.1558  0.2095  0.3667
76942W        W19958  17.783  20.972  25.447  0.0406 -0.0800 -0.0984
76943W        W19959  31.870   7.093  27.054  0.0054 -0.3802 -0.1447
76944W        W19960   8.440  28.450  20.320 -0.4218  0.0757  0.2203
76945W        W19961  30.262  29.008  19.439  0.1692 -0.1289  0.3430
76946W        W19962  34.208  25.518  23.529  0.1913 -0.0007  0.0137
76947W        W19963  23.369  13.896   5.903 -0.0826  0.2958 -0.0827
76948W        W19964  18.291  18.588   2.454 -0.1712  0.0698 -0.0808
76949W        W19965  18.691  28.662   5.865  0.1745 -0.0898  0.2895
76950W        W19966   3.165   1.183   7.313 -0.0335  0.2200 -0.1171
76951W        W19967   1.280   0.986   8.426 -0.3104  0.2079  0.3149
76952W        W19968  10.366  28.879  25.243 -0.0510  0.0241 -0.4064
76953W        W19969  24.032  18.709   1.570  0.2887 -0.1194 -0.0711
76954W        W19970  34.494  22.194   4.413 -0.1940  0.0299  0.0928
76955W        W19971  29.150  19.768   6.528 -0.0489  0.0065 -0.2580
76956W        W19972  19.364  10.059  28.071 -0.1348 -0.1447 -0.0360
76957W        W19973  15.580  34.084  20.750 -0.0506  0.1674 -0.0265
76958W        W19974  14.500   4.840  27.719  0.1556  0.0166 -0.0968
76959W        W19975  14.462   8.536  29.237  0.0484 -0.1900 -0.2677
76960W        W19976  13.210  17.830  22.522  0.0414 -0.0293 -0.1526
76961W        W19977  12.550  12.021  15.404  0.1024 -0.0193  0.0814
76962W        W19978  14.873  16.153  26.152  0.0134  0.0612 -0.1092
76963W        W19979   8.642  22.458  22.615  0.2181  0.1442  0.1802
76964W        W19980  27.594  16.104  23.533  0.0413  0.0769 -0.1220
76965W        W19981  21.118  26.188   2.887  0.1446 -0.0250 -0.1637
76966W        W19982  19.236  23.094  24.898  0.1693 -0.1139  0.3311
76967W        W19983  13.641  32.757  26.857  0.1013  0.1895  0.0344
76968W        W19984  29.328  11.696   9.980  0.0840 -0.1806  0.2500
76969W        W19985  16.459  34.718  16.670  0.1536 -0.3182 -0.0045
76970W        W19986  18.165  32.227   4.033 -0.2199  0.1522  0.1664
76971W        W19987  26.524  14.001  26.586 -0.1414  0.1220  0.1493
76972W        W19988  16.230  17.291  26.896  0.2744  0.1209 -0.0513
76973W        W19989  16.789  10.220   2.774 -0.0414 -0.2380 -0.3335
76974W        W19990  25.720  34.041   3.267 -0.1566 -0.2327 -0.4159
76975W        W19991  11.601  30.948  28.271 -0.0705  0.2011  0.0523
76976W        W19992  33.633  14.490  23.972 -0.2359 -0.1175 -0.1699
76977W        W19993  18.094  19.708   6.931  0.0078 -0.2615 -0.2312
76978W        W19994  23.036  13.827   0.895 -0.1960 -0.0136  0.1641
76979W        W19995  18.569  22.707   8.722 -0.2569 -0.0562 -0.4061
76980W        W19996  27.571  16.563  17.600 -0.1414  0.0385  0.0136
76981W        W19997  15.026  23.676  23.604 -0.1180 -0.4157 -0.0819
76982W        W19998  14.251  17.478  20.335  0.1674  0.1154  0.1557
76983W        W19999  31.754   1.910  27.438  0.1389 -0.3266  0.3819
76984W        W20000  12.423  20.349  26.291 -0.2547  0.0310  0.4764
76985W        W20001  34.560  15.900  28.116 -0.0478 -0.1988 -0.0552
76986W        W20002   4.396   5.410  27.732 -0.0401 -0.2825 -0.0744
76987W        W20003  30.256   4.775   9.850 -0.1070 -0.4688  0.0695
76988W        W20004  28.741  14.095  22.212  0.1755 -0.5148 -0.2549
76989W        W20005  15.752  22.368  28.649  0.1384  0.2807  0.3415
76990W        W20006   8.067  25.283  22.149 -0.1568  0.3724 -0.4039
76991W        W20007  10.824   4.154   6.483  0.2141 -0.1006  0.0944
76992W        W20008  13.293  22.235   3.517  0.3262 -0.0975 -0.2508
76993W        W20009  13.569  26.033   6.477 -0.1445  0.1035  0.1271
76994W        W20010  13.101  33.129   6.939 -0.3623 -0.4081 -0.3284
76995W        W20011  30.174  22.880  16.494 -0.1587  0.2526  0.0538
76996W        W20012  32.851   1.089  23.916 -0.1529  0.1003 -0.0710
76997W        W20013  15.350   9.693   1.215 -0.2164 -0.1558  0.1875
76998W        W20014  11.239  14.064   7.006 -0.1676 -0.0776  0.2333
76999W        W20015   6.165  23.991  14.938  0.0061  0.4033  0.2227
77000W        W20016  30.386  15.516   9.679  0.1949  0.2493 -0.1112
77001W        W20017   8.767  23.253  21.245  0.1191 -0.0437 -0.1226
77002W        W20018  32.807  19.460  27.066 -0.1013  0.0954 -0.1184
77003W        W20019  22.584   2.555   7.952 -0.0603 -0.1210 -0.2526
77004W        W20020   6.992  23.294  21.262 -0.2197  0.0730 -0.2525
77005W        W20021  18.841  13.733  24.708  0.1520  0.0317  0.1107
77006W        W20022   8.407  12.951  24.755  0.2066  0.0978 -0.0699
77007W        W20023  29.715  32.431  26.449 -0.0417 -0.3028 -0.2713
77008W        W20024  14.032  22.099   4.252  0.1862  0.5278  0.2806
77009W        W20025   8.120   6.477   4.253 -0.0900  0.1351 -0.0546
77010W        W20026  18.254   8.750   5.030  0.0971  0.2120  0.2430
77011W        W20027  24.786  14.045  29.017  0.0921  0.2549 -0.2330
77012W        W20028  20.430  34.579   4.577  0.1515  0.2104 -0.0579
77013W        W20029  15.932   9.119   8.389  0.1163 -0.1117  0.1652
77014W        W20030  15.780  22.073   2.084  0.4627 -0.0032 -0.3283
77015W        W20031  10.019  21.137  28.916 -0.2100 -0.1753  0.0379
77016W        W20032  13.895  11.850  29.039 -0.2627  0.0160  0.1079
77017W        W20033  32.176   6.683  19.861 -0.0427 -0.0925 -0.0332
77018W        W20034  16.457  23.540   5.777  0.2081 -0.2849 -0.0941
77019W        W20035  31.234   3.891  20.421  0.0995  0.1948 -0.1347
77020W        W20036   5.822   7.857  18.929  0.4398  0.1630 -0.1405
77021W        W20037  16.875  23.305  13.255 -0.1619 -0.2492  0.0030
77022W        W20038  18.326  24.864  20.354  0.2345 -0.2563  0.1833
77023W        W20039   6.317  11.534  15.464  0.1753  0.1778  0.0620
77024W        W20040  15.006  12.130  17.296 -0.0307 -0.3182  0.0843
77025W        W20041  29.204  24.987  18.840  0.1557  0.1858 -0.2389
77026W        W20042  24.389   1.220  15.583 -0.0432  0.0052 -0.1694
77027W        W20043   0.638   4.317  26.178  0.1823 -0.3392 -0.1240
77028W        W20044  20.486  17.451  14.221 -0.2571  0.0301 -0.0753
77029W        W20045  29.469  23.505  15.445 -0.0141  0.1710  0.0033
77030W        W20046  30.498  27.245  16.649  0.2189 -0.1729  0.0247
77031W        W20047  12.340  13.793  22.381 -0.2191 -0.0088 -0.0382
77032W        W20048  33.191   1.649  24.380 -0.2799 -0.2470  0.2847
77033W        W20049  20.680  27.387  16.733 -0.2039 -0.0770  0.1111
77034W        W20050   4.789  17.571   1.586  0.0075  0.0694  0.1484
77035W        W20051   4.091  26.772  18.509 -0.2575  0.0554 -0.1195
77036W        W20052  10.224  33.239  18.977  0.0515 -0.0340  0.0157
77037W        W20053   7.666  27.116  16.234 -0.0485 -0.0857 -0.0189
77038W        W20054   5.394  33.689   6.535 -0.5179 -0.1361 -0.1765
77039W        W20055  21.275  26.987  18.636 -0.1264  0.1496  0.0518
77040W        W20056  19.425   3.461  14.845 -0.3134  0.1766  0.0316
77041W        W20057  19.697   9.367  18.363  0.2482 -0.2672 -0.0556
77042W        W20058  30.373  25.216  15.579 -0.4154 -0.0643 -0.1905
77043W        W20059   9.386  26.931  26.251  0.2114  0.1541  0.0180
77044W        W20060  20.649  17.616  23.376  0.0203  0.1342  0.1364
77045W        W20061  23.803   5.006  20.986  0.1403  0.1025  0.2286
77046W        W20062  10.539  20.367  21.033 -0.1618 -0.3872 -0.2100
77047W        W20063  12.545  29.345  14.087 -0.0867 -0.2049 -0.1454
77048W        W20064  21.721  20.566  13.683 -0.0295  0.0351  0.1135
77049W        W20065  28.296  17.399  22.529 -0.0698 -0.1884 -0.1414
77050W        W20066   7.889  15.575  15.921  0.3094  0.1497  0.1345
77051W        W20067  16.931  11.475  16.721 -0.1010 -0.2068 -0.2113
77052W        W20068   1.403  21.282  28.309  0.3273  0.1423  0.3135
77053W        W20069  16.334  17.250   2.369 -0.2057  0.4026 -0.2038
77054W        W20070   8.265  30.956  19.568 -0.3978  0.0733  0.0286
77055W        W20071   2.865  21.991  23.619  0.0571 -0.1225 -0.0145
77056W        W20072  29.083  13.332   3.182  0.1444  0.3109 -0.2441
77057W        W20073  25.957  24.266  24.765  0.2702  0.1757 -0.2386
77058W        W20074   0.699  31.338  16.428  0.2448 -0.1416  0.1897
77059W        W20075  30.637   8.825  28.915  0.0458  0.0533  0.1123
77060W        W20076  20.526  16.557  25.070 -0.3218  0.0999  0.0901
77061W        W20077   0.120  12.511  16.937  0.0560 -0.2322  0.0065
77062W        W20078  22.954  25.454  22.517  0.3725 -0.4077  0.0278
77063W        W20079  24.349   6.980  24.291  0.0583 -0.0459  0.2165
77064W        W20080  29.469  28.501  26.236 -0.1316  0.0232 -0.2146
77065W        W20081  11.565   8.284  26.531 -0.2265 -0.0009  0.2128
77066W        W20082  24.842  28.393  16.187  0.0377  0.0717  0.0210
77067W        W20083   1.124  34.381  22.726 -0.3173 -0.0121 -0.0172
77068W        W20084  18.454  24.095  18.797 -0.0279  0.1417  0.3935
77069W        W20085  17.112  19.956   2.247 -0.4649  0.1470 -0.0611
77070W        W20086  21.283  23.045  14.023  0.0865 -0.5672  0.0171
77071W        W20087   1.185  16.125  16.880  0.0880  0.2215  0.1001
77072W        W20088  17.896  20.141  15.161 -0.0555 -0.1644  0.0014
77073W        W20089  27.851  21.016  26.279 -0.1520  0.0670  0.1960
77074W        W20090  20.108  23.209  13.404  0.0488  0.0090 -0.1403
77075W        W20091  27.140  18.160  21.760 -0.0031 -0.3604 -0.1878
77076W        W20092   0.025  30.066  14.038 -0.5326  0.2034  0.0513
77077W        W20093   9.948  30.346  13.958 -0.1605 -0.1048  0.0766
77078W        W20094   7.921  30.099  15.672 -0.0378  0.0886 -0.1276
77079W        W20095  10.252  26.641  29.238  0.0158  0.0139 -0.1446
77080W        W20096  11.538  24.322  13.096 -0.0322  0.0569  0.0452
77081W        W20097  27.103  10.932  16.922  0.0768  0.2765 -0.1753
77082W        W20098   2.744  29.013  16.971 -0.3191  0.2346 -0.2594
77083W        W20099  12.364   4.745  21.462 -0.0939 -0.4706  0.3528
77084W        W20100   6.427  26.958  19.997  0.0445  0.2924 -0.2064
77085W        W20101  31.911  27.936   5.268  0.0765  0.2077  0.1387
77086W        W20102  12.904  30.143  18.620  0.0769  0.0342  0.0867
77087W        W20103  29.025  22.499  29.257  0.1625 -0.2577 -0.1728
77088W        W20104   9.217  19.588  15.624 -0.2182  0.0716  0.1293
77089W        W20105  15.576  22.399  17.246  0.2399  0.1289  0.3117
77090W        W20106   6.472  14.847  27.242  0.2172  0.3907 -0.0377
77091W        W20107  19.483  19.232  15.123 -0.1128  0.1231  0.0641
77092W        W20108  12.169  30.251  18.202 -0.1299 -0.1147  0.0257
77093W        W20109   5.576   2.645  17.416  0.0639 -0.0892 -0.0824
77094W        W20110  25.741  22.268  25.921  0.3806 -0.1264 -0.1601
77095W        W20111  27.298   9.585   4.064  0.0013 -0.1767 -0.2480
77096W        W20112  16.079  28.151  14.687 -0.1695  0.0590  0.1641
77097W        W20113  21.601   1.886  24.973 -0.1480  0.3137 -0.0709
77098W        W20114  21.007   2.237  21.178  0.3082 -0.2307  0.0573
77099W        W20115  14.376  32.030  18.988 -0.0322  0.0556 -0.0123
77100W        W20116   8.192  26.695  17.733  0.2443  0.1200  0.0062
77101W        W20117  34.401  15.088   1.830  0.0995  0.0783 -0.1022
77102W        W20118  30.527  17.976  20.116 -0.2350  0.0189 -0.0724
77103W        W20119  22.036  19.805  23.893  0.2132 -0.2928  0.0752
77104W        W20120   5.949  17.741  12.625  0.1072 -0.2239  0.1844
77105W        W20121   6.865  30.884  16.715  0.3789  0.3096  0.4127
77106W        W20122   7.963   0.249  16.805  0.0225  0.4013 -0.0887
77107W        W20123   1.678  11.874  19.013 -0.0238 -0.1878  0.2252
77108W        W20124  28.244  21.514  20.314  0.2133 -0.4005 -0.3637
77109W        W20125  15.483  13.981  20.705  0.1786  0.0499  0.0509
77110W        W20126  31.713  11.416  26.750 -0.1181 -0.0099  0.1765
77111W        W20127   9.371  28.904  20.440 -0.1169  0.3318 -0.0622
77112W        W20128   9.965  31.752  22.665 -0.2792  0.3207  0.1299
77113W        W20129  16.785  16.816  12.476  0.1043  0.0719  0.0731
77114W        W20130  21.672  30.698  17.474  0.1847  0.2878 -0.0646
77115W        W20131  14.244   1.817  20.130 -0.4164  0.1975  0.0384
77116W        W20132  31.203  18.180  23.541 -0.2845  0.1685  0.1792
77117W        W20133   9.108  16.195  20.966  0.0785 -0.1465  0.2199
77118W        W20134  31.077  27.808  19.009 -0.1190  0.0255 -0.1282
77119W        W20135  14.886  25.460  14.056 -0.2092 -0.0233  0.0480
77120W        W20136   6.301  12.042  17.262  0.1292 -0.3479 -0.1313
77121W        W20137   5.095  32.743  15.388 -0.1451 -0.4029  0.1937
77122W        W20138  26.948  27.749  25.955 -0.1044 -0.1778 -0.0173
77123W        W20139  11.471   9.787  19.905 -0.1762  0.1432  0.1054
77124W        W20140  30.044  20.712  15.832 -0.2270  0.3688 -0.1823
77125W        W20141  18.806  32.115  16.647 -0.1109  0.1665  0.2374
77126W        W20142  23.175   2.486  21.429  0.2225 -0.1136  0.1815
77127W        W20143  31.079  14.824  19.846  0.0976  0.2411 -0.0108
77128W        W20144  33.998  18.164  21.684  0.1394 -0.0870  0.1556
77129W        W20145  12.094  28.510  20.222 -0.2717  0.2958 -0.3036
77130W        W20146   5.930   4.762  14.885 -0.0146 -0.1323  0.0277
77131W        W20147   5.627   3.854  19.764 -0.1114  0.0215  0.0584
77132W        W20148   2.320   0.920  16.520 -0.0545 -0.2212 -0.0159
77133W        W20149   4.805  12.890   8.196 -0.1511  0.3739  0.1422
77134W        W20150  18.187  23.616  23.129  0.1202  0.0065  0.3491
77135W        W20151   9.827   5.630  22.754  0.0871 -0.1951  0.2212
77136W        W20152  16.753  18.875  11.939  0.2568 -0.2750 -0.0013
77137W        W20153   3.435  31.147  15.434 -0.1043 -0.1551 -0.1588
77138W        W20154  18.017  10.570  15.007 -0.2591  0.0379 -0.0800
77139W        W20155  24.512   2.594  19.783  0.1038 -0.0165  0.0382
77140W        W20156   3.114  23.706  17.817 -0.1204 -0.1117 -0.0114
77141W        W20157  32.731  26.102  21.139 -0.1515  0.0444  0.0111
77142W        W20158   2.412  30.249  26.041 -0.0153  0.1671  0.2752
77143W        W20159   8.652  31.376  14.481 -0.1098  0.0398 -0.0862
77144W        W20160  23.170  21.508  20.683  0.5468 -0.1732 -0.2292
77145W        W20161   0.292  22.857  15.937 -0.0438 -0.1044  0.0140
77146W        W20162  16.229  15.544  13.937  0.0937  0.3051 -0.4200
77147W        W20163  12.317   6.685  21.715  0.0423  0.0194 -0.1097
77148W        W20164   9.191  33.952  15.499 -0.3158 -0.1061 -0.0089
77149W        W20165  11.838  33.624  15.121 -0.2271  0.0980 -0.1542
77150W        W20166  15.080   7.476  16.003  0.2076  0.2008  0.3982
77151W        W20167  12.002  30.817  20.535  0.0649 -0.0699 -0.0722
77152W        W20168  10.995   0.721  22.653  0.2364  0.2037 -0.0299
77153W        W20169  25.428  29.811  27.399 -0.0261  0.0137  0.0350
77154W        W20170  26.320  13.958  14.414 -0.1251  0.1054  0.1346
77155W        W20171   3.337  33.753  21.393 -0.1089  0.2000 -0.2368
77156W        W20172  30.923  29.751  22.278 -0.3419 -0.0499  0.2770
77157W        W20173  17.215   7.790  15.360 -0.2645  0.2314  0.3906
77158W        W20174  16.023  29.642  14.358  0.0991  0.1873 -0.0612
77159W        W20175  14.482   3.307  28.144  0.1214  0.3658  0.0570
77160W        W20176   9.027  27.212  14.677  0.2188  0.0866 -0.2718
77161W        W20177  25.025  22.930  23.887  0.3102  0.0291 -0.4145
77162W        W20178  13.113   4.531  16.774 -0.3316 -0.1587  0.0010
77163W        W20179  33.947  15.232  18.867  0.2510 -0.2641  0.0714
77164W        W20180  15.825  26.167  19.145 -0.1367 -0.0988 -0.2412
77165W        W20181  19.186  26.379   0.919  0.1578 -0.1507  0.0818
77166W        W20182   0.221  20.733  20.606  0.1786 -0.0469  0.2044
77167W        W20183  31.387  19.426   2.437 -0.1383 -0.1079  0.0314
77168W        W20184   0.911  31.032  17.078 -0.1194  0.0001  0.3346
77169W        W20185   0.408  26.494  22.949 -0.2745  0.1246 -0.2483
77170W        W20186  29.001  25.480  24.536 -0.0383  0.0473  0.3505
77171W        W20187  14.789   2.594  24.008  0.0390  0.1364  0.0542
77172W        W20188  15.915  23.757  16.171 -0.4899  0.3242  0.2884
77173W        W20189   1.706  21.718  22.208  0.1286  0.0257  0.0969
77174W        W20190   0.681  18.868  16.127  0.3936 -0.0438 -0.4297
77175W        W20191  27.936   5.934  28.759  0.2015 -0.0982 -0.0216
77176W        W20192   7.047  12.700  17.100  0.1322  0.0724 -0.2420
77177W        W20193  17.935  12.015  15.301 -0.1271  0.2415 -0.2233
77178W        W20194  15.389  17.218  14.402  0.2252  0.0962 -0.4341
77179W        W20195  13.158  29.133  15.662 -0.0395  0.0488  0.2833
77180W        W20196  25.631  16.715  21.342 -0.1693  0.0506 -0.0322
77181W        W20197  25.681  16.953  17.542 -0.0393  0.1052  0.2047
77182W        W20198   4.809  19.127  20.886 -0.1427  0.0685 -0.1055
77183W        W20199  26.232  28.796  22.198 -0.1091  0.0510  0.3315
77184W        W20200  32.443  31.447  17.117 -0.1677 -0.2164 -0.0711
77185W        W20201  12.958   1.242  16.871  0.0890 -0.1520  0.1392
77186W        W20202   5.168  21.469  24.077  0.1440 -0.1729  0.0792
77187W        W20203  12.822  34.367  19.480  0.1814 -0.1792 -0.0523
77188W        W20204  28.354   7.629  17.115  0.2248 -0.2404 -0.0424
77189W        W20205  12.463   7.275   0.899 -0.0657  0.2781  0.0457
77190W        W20206  10.997  19.214  20.707  0.0085  0.0991  0.1745
77191W        W20207  14.139  30.202  23.328  0.2222  0.0568 -0.0269
77192W        W20208  18.245  32.853  26.027  0.3864 -0.3423 -0.1780
77193W        W20209   2.439  28.924  17.815 -0.1240 -0.1238 -0.2763
77194W        W20210  10.339  27.925  14.171  0.1689  0.0433 -0.0281
77195W        W20211  14.105  22.968  19.008 -0.2547 -0.0732  0.0699
77196W        W20212  12.584  28.537  28.981  0.1777 -0.1959 -0.1900
77197W        W20213   2.607  30.789  22.110 -0.1952 -0.2786 -0.0866
77198W        W20214  28.890   9.063  24.923 -0.1539  0.0579 -0.0364
77199W        W20215  13.193  16.602   0.045 -0.1944 -0.2286  0.1400
77200W        W20216  20.176  34.243  21.983 -0.1313  0.1106 -0.1706
77201W        W20217  32.647  33.161  27.992 -0.1679 -0.1163  0.0152
77202W        W20218  31.941  31.625  18.249 -0.0253  0.3367 -0.0514
77203W        W20219  28.286  24.948  16.128 -0.1496 -0.0580  0.3061
77204W        W20220   2.412   8.895  22.610  0.0335 -0.2339 -0.0703
77205W        W20221   8.548  17.232  22.586  0.0169 -0.2061  0.0311
77206W        W20222  17.098  32.877  18.370 -0.1021 -0.2275 -0.0042
77207W        W20223   9.823   2.593  25.821 -0.0850  0.0834  0.1882
77208W        W20224  27.763  24.665  20.792 -0.1046  0.3376  0.0689
77209W        W20225  21.900   6.160  18.953  0.0150  0.1135  0.1819
77210W        W20226  16.847   3.491  19.672  0.3963  0.2020 -0.0700
77211W        W20227  24.457  20.668  19.542  0.1930  0.2284 -0.2085
77212W        W20228   5.622  15.424  18.041  0.1687  0.0732  0.2056
77213W        W20229  26.755   1.231  16.728 -0.1098  0.1343 -0.3247
77214W        W20230  13.651  11.488  14.968 -0.0832  0.0377 -0.0052
77215W        W20231  10.252  11.751  18.164  0.0684 -0.1241 -0.2295
77216W        W20232   5.834   1.784  17.983  0.1080  0.0798  0.0185
77217W        W20233   8.013  25.125  16.673  0.4121  0.0424  0.0385
77218W        W20234  10.588  21.615  19.894  0.0551 -0.1406 -0.0945
77219W        W20235  21.925   0.686   0.603 -0.1920  0.0114 -0.2182
77220W        W20236  20.855  23.290  18.261 -0.0650 -0.1763 -0.2758
77221W        W20237   9.144   1.983   7.504 -0.0042  0.5029  0.4155
77222W        W20238  14.083  23.619  13.918  0.1098  0.2748  0.0016
77223W        W20239   8.146   8.373  19.190 -0.2837 -0.0427 -0.1174
77224W        W20240   5.215  27.014  19.015 -0.4384 -0.3504 -0.2428
77225W        W20241  13.757  21.457  25.781  0.0858 -0.2410  0.0742
77226W        W20242  10.461  19.711  15.589  0.3251  0.0500 -0.1011
77227W        W20243  14.583   4.752   2.734  0.1059  0.2277  0.0230
77228W        W20244   9.519  30.281  14.306 -0.1747  0.0650 -0.3193
77229W        W20245   9.765  15.999  13.169 -0.0110 -0.2883  0.0849
77230W        W20246  17.158   8.498  15.503  0.3482 -0.2462  0.0462
77231W        W20247  32.575  10.982  26.944 -0.0340  0.0167 -0.1527
77232W        W20248  25.452  29.055   2.960 -0.1507 -0.0020 -0.1228
77233W        W20249   0.655   2.235  21.105 -0.1712  0.4455 -0.2680
77234W        W20250  12.045  25.718  21.317 -0.2513 -0.2816 -0.1251
77235W        W20251  12.815  11.653  12.717 -0.1013 -0.0716  0.2488
77236W        W20252  18.434  25.776  25.748 -0.1343  0.1417 -0.1165
77237W        W20253   1.720  34.768  22.324 -0.0093 -0.0970 -0.1802
77238W        W20254  22.793  17.175  20.203  0.2391 -0.1598 -0.1532
77239W        W20255  12.088  29.092  21.730 -0.1881 -0.0651  0.1483
77240W        W20256  12.249   2.703  20.568 -0.0290  0.3090  0.0722
77241W        W20257  21.244  23.400  22.133  0.1286 -0.0285  0.2006
77242W        W20258  18.478  25.812  20.403  0.2525  0.2216 -0.2125
77243W        W20259  20.086  11.242  15.887  0.0795 -0.0737 -0.1709
77244W        W20260  28.174  11.562  15.599 -0.0540  0.3249 -0.0016
77245W        W20261  14.478  18.823  15.729 -0.0163  0.0576  0.4548
77246W        W20262   7.521  24.730  20.968  0.0413 -0.2490 -0.2075
77247W        W20263  12.673  22.676  17.765  0.2990  0.0375  0.2968
77248W        W20264   2.531  20.150  25.884  0.0636 -0.2063  0.0072
77249W        W20265   5.494  17.475  18.195  0.2949 -0.1269  0.0136
77250W        W20266   9.980  23.415  24.681 -0.2717  0.1360  0.0167
77251W        W20267  13.626  14.281  14.214 -0.0755  0.2393  0.0310
77252W        W20268   9.295  28.156  23.235  0.2772  0.1815 -0.0938
77253W        W20269  13.669  25.944  20.652  0.0070  0.2168 -0.0040
77254W        W20270  10.097  31.223  21.438  0.1758  0.0002  0.0252
77255W        W20271  28.118   7.879  24.787 -0.0377 -0.1388  0.0859
77256W        W20272  14.902  31.951  23.275  0.0352 -0.2050 -0.0909
77257W        W20273   5.991  14.087  19.204  0.0004  0.1538 -0.0582
77258W        W20274  13.324  13.357  23.975 -0.0328 -0.0377 -0.1233
77259W        W20275  12.489  28.738  18.548 -0.1273 -0.3281 -0.0215
77260W        W20276  12.189  27.849  18.047 -0.1729 -0.0474 -0.0964
77261W        W20277   1.852  22.279   0.014  0.1396 -0.1109 -0.2348
77262W        W20278  20.769  31.916  27.491  0.0392  0.1311 -0.3882
77263W        W20279  28.084  16.624  22.816  0.0253 -0.0845 -0.0870
77264W        W20280  13.582   0.507  20.052  0.4959 -0.3126  0.0584
77265W        W20281  25.325  28.278  22.334 -0.0295 -0.0117 -0.0220
77266W        W20282  26.121  27.504  16.527  0.0343  0.1119  0.2113
77267W        W20283  25.353  21.899   7.492 -0.2964 -0.0882 -0.2665
77268W        W20284  19.937  28.627  17.308  0.1299 -0.3355  0.0341
77269W        W20285  19.721  22.223  12.356  0.0671  0.0823  0.2192
77270W        W20286  13.593   4.074  24.621  0.0853 -0.1731 -0.5600
77271W        W20287   9.810   3.065  29.265  0.4133  0.0263 -0.1755
77272W        W20288   5.935   0.517  20.274 -0.2886 -0.0130 -0.0314
77273W        W20289  20.801  28.591  15.800  0.2971  0.0895  0.0291
77274W        W20290  14.337  25.107  14.679 -0.0303 -0.0475  0.0963
77275W        W20291  14.906  22.734  21.624  0.0440 -0.1370  0.1877
77276W        W20292  10.552  21.989  15.898 -0.0194  0.0167 -0.1659
77277W        W20293  24.037  29.598   0.303  0.0419  0.1513 -0.1871
77278W        W20294  20.965  29.183  20.019  0.1206 -0.0604 -0.2667
77279W        W20295   8.322  16.320  15.204 -0.1990 -0.0563 -0.1393
77280W        W20296   8.763  24.696  18.893 -0.0256  0.2958  0.3602
77281W        W20297  29.918  34.082  20.154 -0.0405  0.3550 -0.2477
77282W        W20298  13.166  10.158  19.414 -0.1201  0.1826  0.0607
77283W        W20299  25.045  13.595  20.870  0.1861 -0.1181 -0.1089
77284W        W20300   1.053   8.734  15.477  0.2274  0.1299  0.0323
77285W        W20301  32.038  26.193  22.367  0.1314 -0.0212 -0.1361
77286W        W20302   9.962  24.036  18.620  0.0916 -0.0345  0.0241
77287W        W20303   4.231  11.746  18.172 -0.0749  0.0550 -0.1737
77288W        W20304  13.041   4.784  21.091  0.1929 -0.0114  0.0671
77289W        W20305  11.049   9.592  29.151  0.3054  0.0572  0.2550
77290W        W20306  20.809  24.308  20.414 -0.1227  0.1280  0.2437
77291W        W20307  18.406  25.403  18.387 -0.0064 -0.2802 -0.0689
77292W        W20308  17.577  22.628  15.542  0.2454  0.0662 -0.3795
77293W        W20309  17.836   2.624  23.874 -0.1145 -0.2639 -0.1469
77294W        W20310  26.462  30.527  24.352 -0.4203 -0.1879  0.0072
77295W        W20311   5.774  13.637  19.194 -0.1236 -0.2298  0.1761
77296W        W20312  23.215  33.772  23.532 -0.3562 -0.1377 -0.1234
77297W        W20313  28.812  15.195  26.718 -0.1427 -0.3683  0.0073
77298W        W20314   4.055   4.181   0.626  0.1722  0.1316 -0.2065
77299W        W20315  32.161   6.873  27.695 -0.0823 -0.0986 -0.0694
77300W        W20316   3.125  19.063  27.577 -0.0532  0.3748 -0.1851
77301W        W20317  27.378  22.695  15.237  0.3349  0.0321 -0.0902
77302W        W20318  16.504  20.107  13.414 -0.0300  0.1558  0.0565
77303W        W20319  12.196   1.273  19.685  0.2091  0.0815  0.2580
77304W        W20320  14.177  20.404  14.679 -0.0306  0.0228  0.0143
77305W        W20321  21.112  28.725  27.258 -0.4277 -0.0639 -0.1941
77306W        W20322   1.226  19.032  19.154 -0.1633  0.0692 -0.1903
77307W        W20323  26.481  14.423  17.740 -0.1105 -0.1714  0.0705
77308W        W20324  34.333  22.409  20.299 -0.1231  0.1522 -0.2067
77309W        W20325  14.080  22.539   5.070 -0.1894  0.2047 -0.2540
77310W        W20326  24.148  25.401  18.283  0.2861 -0.1400  0.2243
77311W        W20327  15.177  14.889  12.490  0.1662  0.1135  0.1272
77312W        W20328  13.490  27.737  24.612  0.1640 -0.4577 -0.2008
77313W        W20329  11.702  31.412   8.476  0.0094  0.1628 -0.0746
77314W        W20330  17.892  27.347  17.069 -0.0074  0.2146 -0.1323
77315W        W20331  29.369  26.931  28.333 -0.2031 -0.1198  0.3373
77316W        W20332  24.292  28.595  25.274  0.1582  0.3583  0.0039
77317W        W20333  26.701  30.897  17.204  0.0287 -0.0257  0.3921
77318W        W20334  27.582  32.291  26.619  0.0944 -0.1507 -0.0668
77319W        W20335  25.244  18.019  22.226  0.0424 -0.0755 -0.0473
77320W        W20336  23.517  19.937  14.343 -0.0335  0.1558  0.1276
77321W        W20337  13.515  27.185   8.185  0.0691 -0.0319  0.5725
77322W        W20338  31.153  23.576  26.818  0.1026  0.2654 -0.0599
77323W        W20339   6.037  28.463  23.476 -0.0053  0.1599  0.2294
77324W        W20340  24.718  32.461  21.595  0.0414 -0.1370  0.0325
77325W        W20341  26.845  21.008  17.228 -0.2815  0.3604  0.1292
77326W        W20342   9.594  28.436  14.213  0.0249  0.3050  0.0288
77327W        W20343  23.124  11.595  17.807 -0.1465  0.2068  0.4380
77328W        W20344  27.709  27.066  19.332 -0.1334  0.1299  0.0495
77329W        W20345  16.757   4.334  27.358 -0.1001  0.1575  0.0781
77330W        W20346   5.574  17.888  16.116 -0.1357  0.1149 -0.1457
77331W        W20347  25.755  18.963  15.635 -0.1967  0.2969 -0.1779
77332W        W20348  19.315  21.963  21.908  0.1640  0.1591  0.1693
77333W        W20349  11.878  33.043  21.554  0.3111 -0.0676 -0.2071
77334W        W20350  11.070   4.135   7.438  0.4221 -0.2387  0.2454
77335W        W20351   4.707  13.182  19.338 -0.1700 -0.1337 -0.1362
77336W        W20352  17.516  33.589   3.965 -0.3217 -0.4817  0.0358
77337W        W20353  17.640  33.683  14.132 -0.3043 -0.2653  0.0933
77338W        W20354   4.189  23.820   4.740  0.0970  0.0203 -0.0900
77339W        W20355  21.202  33.634  19.174  0.4008 -0.1189 -0.0581
77340W        W20356  28.747   1.511   4.045 -0.1097 -0.0244 -0.4853
77341W        W20357  11.813  25.616   0.805 -0.6057  0.4109  0.1965
77342W        W20358  18.694  25.425  15.492  0.1440 -0.0832 -0.2815
77343W        W20359  15.019  34.597  19.657 -0.0140 -0.1982 -0.2080
77344W        W20360  23.974  29.503  27.568 -0.3027  0.3510  0.0857
77345W        W20361   9.563  11.639   3.417 -0.1866 -0.2563 -0.2315
77346W        W20362  12.321  31.050  27.507  0.1571  0.3432  0.0823
77347W        W20363   2.353  25.816  20.919  0.1213 -0.0925 -0.1761
77348W        W20364   6.831  15.908  20.983  0.0641  0.2175  0.0037
77349W        W20365  19.463  27.986  17.052 -0.0805 -0.0647  0.3095
77350W        W20366  11.005  29.587  24.831  0.0421  0.2491  0.1974
77351W        W20367  18.623   3.537  17.669  0.0558  0.0906  0.1462
77352W        W20368  12.455  31.005  19.073  0.4663  0.4592 -0.1358
77353W        W20369   8.655   6.666  22.573  0.0504  0.1104 -0.0168
77354W        W20370  28.312  28.945  25.009  0.0820  0.0664 -0.0986
77355W        W20371  20.909  24.009  23.854  0.0012  0.1490 -0.2394
77356W        W20372  14.737  24.138  25.322 -0.0315 -0.1792 -0.0465
77357W        W20373  18.387  29.346  27.440  0.1245  0.2139  0.0852
77358W        W20374  19.653  28.479  14.777 -0.2610 -0.2350 -0.0234
77359W        W20375   8.048  14.817  16.672  0.0894 -0.1180 -0.0409
77360W        W20376  13.513   5.019  18.136  0.1512 -0.1064 -0.0593
77361W        W20377  19.778  17.385  13.417  0.1211  0.0769  0.0609
77362W        W20378  10.806  12.317  14.755  0.0938 -0.0520 -0.0309
77363W        W20379  13.774  14.748  24.990 -0.3545  0.3300 -0.0789
77364W        W20380   0.957  25.660  24.252 -0.1464 -0.2534  0.0046
77365W        W20381  13.073  10.321  14.941  0.0726  0.1229 -0.2613
77366W        W20382  32.640  14.581  15.903  0.3111  0.2197  0.0234
77367W        W20383   7.891  18.414  16.312  0.2059 -0.1007  0.2460
77368W        W20384  17.500  22.776  18.624  0.1088  0.1215  0.2421
77369W        W20385   6.400  20.980  14.486  0.0684 -0.0616  0.3024
77370W        W20386   3.700  26.054  18.910 -0.2390 -0.0203  0.1979
77371W        W20387  14.270   0.049  20.979 -0.0738 -0.3418  0.0149
77372W        W20388  32.843  19.114   3.456  0.0105 -0.1592  0.0716
77373W        W20389  24.947   8.649  27.789 -0.1473  0.3021 -0.0145
77374W        W20390  27.950  29.437  17.830 -0.0108 -0.1003 -0.2251
77375W        W20391  30.016  32.378  18.238  0.1619 -0.2269  0.0881
77376W        W20392  23.859  14.639  25.104  0.3049 -0.2122 -0.0291
77377W        W20393   7.510  11.954  14.504 -0.2405  0.2559 -0.0042
77378W        W20394   9.195   8.447  23.704  0.1165  0.2016  0.1269
77379W        W20395   1.550  27.623  19.618  0.1373  0.1914 -0.3395
77380W        W20396  17.966  21.943  20.671 -0.0882 -0.1928  0.0772
77381W        W20397  12.001  23.018  13.802  0.0560 -0.2086  0.0565
77382W        W20398  17.006   6.333  19.956  0.0648 -0.0416  0.0211
77383W        W20399  21.596  24.666  15.607  0.1293  0.0968 -0.1001
77384W        W20400  34.402  26.222  16.027 -0.0042 -0.1632  0.0041
77385W        W20401   0.347  30.741   6.962 -0.4281 -0.1939 -0.0413
77386W        W20402   6.696   5.574  22.769 -0.0091 -0.0494  0.0926
77387W        W20403  15.670   0.984  21.679 -0.2264 -0.0570  0.0072
77388W        W20404   7.398  31.820  21.600 -0.2683 -0.1900  0.1903
77389W        W20405  28.216  18.482  25.100 -0.5280 -0.4829  0.3066
77390W        W20406   7.239  28.900  15.080 -0.0959  0.0965  0.1712
77391W        W20407  34.639  29.303  14.426 -0.1997  0.1145  0.1181
77392W        W20408  27.860  32.972  16.046  0.2404 -0.2085 -0.0563
77393W        W20409  16.007  27.904  23.523  0.3114 -0.1752 -0.0378
77394W        W20410  19.743  34.688  14.440  0.1154  0.3562 -0.2192
77395W        W20411  26.041  13.972  18.381 -0.1104 -0.2147 -0.0006
77396W        W20412  24.549  16.357  16.608  0.0468 -0.4869 -0.3280
77397W        W20413  29.178  26.853  22.806 -0.5575  0.2016 -0.0940
77398W        W20414  10.569  26.885  20.694 -0.1163 -0.1993  0.0111
77399W        W20415  14.346  20.087  12.702 -0.3186 -0.1444 -0.0713
77400W        W20416  20.648  24.861  15.149  0.2019 -0.0671  0.3211
77401W        W20417   9.014  29.569  16.443 -0.2912 -0.0640  0.2774
77402W        W20418  17.609  12.137  14.632  0.3359  0.3379 -0.0710
77403W        W20419  14.261  16.432  12.893 -0.2991  0.1980 -0.0240
77404W        W20420  27.170  24.970  27.183 -0.0940  0.1626 -0.0835
77405W        W20421  19.232  20.083  20.756 -0.1370 -0.2481 -0.0165
77406W        W20422   4.881   6.776  15.868  0.1265 -0.4445 -0.0019
77407W        W20423  18.771   3.640  25.680  0.0257  0.1152  0.0217
77408W        W20424  13.738  21.768  14.717  0.3231 -0.0150  0.0051
77409W        W20425   8.495  20.572  16.564  0.0905  0.2315  0.2845
77410W        W20426  29.019  22.986  21.847  0.1155  0.2163 -0.1852
77411W        W20427  25.938  24.549  26.135  0.1416  0.0980  0.0525
77412W        W20428  10.068  23.110  14.395  0.3877  0.0659 -0.1736
77413W        W20429  31.234  31.827  16.179 -0.0724  0.0075  0.0271
77414W        W20430  26.916  29.421  16.553 -0.2416  0.0253 -0.0587
77415W        W20431  27.339  28.279  17.909 -0.0027 -0.0566 -0.1375
77416W        W20432  19.617   1.046  24.326  0.2791  0.2194 -0.0989
77417W        W20433  20.950  34.160   0.465  0.3621 -0.0622 -0.0259
77418W        W20434   9.103  16.513  13.686 -0.0613  0.3616  0.3355
77419W        W20435  22.136  27.882   1.923  0.0606  0.1037 -0.1316
77420W        W20436  12.156  11.610  14.160 -0.1457 -0.1811  0.2221
77421W        W20437  18.890   8.474  23.197 -0.1319  0.1082 -0.1184
77422W        W20438  27.516  33.286  29.147 -0.0327 -0.4885  0.0677
77423W        W20439   1.906   6.109  17.127  0.1878 -0.0274  0.0330
77424W        W20440   4.350  29.386  20.877 -0.1062  0.1006 -0.1798
77425W        W20441  18.071  25.563  16.688 -0.1226  0.2592 -0.2288
77426W        W20442   1.099  15.524  26.405 -0.0506 -0.0535 -0.3147
77427W        W20443   8.717   3.602  17.843  0.0371  0.1347 -0.0006
77428W        W20444   1.167   2.991  18.017  0.1776 -0.1262 -0.0570
77429W        W20445   1.139  21.661  25.466 -0.2462 -0.2250 -0.2070
77430W        W20446  22.551  24.824  23.260 -0.0146  0.3824  0.1799
77431W        W20447  16.594   7.449  17.932 -0.0216 -0.0243  0.1386
77432W        W20448   4.361  21.214   2.225  0.0853  0.4536  0.2950
77433W        W20449   3.441  27.963  28.550 -0.1726  0.0087  0.1754
77434W        W20450  11.348  26.543  22.361  0.1714 -0.0127  0.1945
77435W        W20451  22.637  25.269  16.837 -0.0181  0.3288  0.1252
77436W        W20452  31.250   8.658  23.899 -0.2093  0.1662  0.0115
77437W        W20453   3.516   0.688  17.319  0.1908  0.0895 -0.0646
77438W        W20454   6.693  26.792  27.090  0.2310 -0.0379  0.0524
77439W        W20455  25.649   0.962  18.944 -0.3059  0.2209 -0.3401
77440W        W20456  23.442  26.607  15.118  0.0752 -0.0509  0.1999
77441W        W20457  24.699   6.202  21.464 -0.0510 -0.0284  0.0380
77442W        W20458  20.526  20.901  26.699 -0.2575 -0.0799  0.1873
77443W        W20459  19.132  23.017  21.701  0.1236 -0.0180 -0.0293
77444W        W20460  18.808  24.056  13.909 -0.0674  0.1439 -0.0118
77445W        W20461  21.036  27.164  17.453  0.1136  0.0279 -0.2259
77446W        W20462  22.593  19.759  19.259  0.2679 -0.0248 -0.0445
77447W        W20463   8.835  24.453   3.627 -0.2275  0.1718 -0.1488
77448W        W20464  16.585  11.106  24.449  0.0317 -0.0529  0.0085
77449W        W20465   7.758  28.259  24.824 -0.0315  0.1461  0.1945
77450W        W20466   9.311   8.138  23.261  0.3421 -0.0453 -0.0317
77451W        W20467   6.625  14.771  14.764  0.2913 -0.0264  0.3639
77452W        W20468  17.106  22.076   4.061  0.2429 -0.5567 -0.1639
77453W        W20469   9.997  10.197   0.811  0.3023 -0.0874  0.0946
77454W        W20470  18.962   3.047  16.545  0.3910  0.5373  0.0404
77455W        W20471  20.937  34.417  19.246  0.3581 -0.1243 -0.0560
77456W        W20472  26.439  20.778  15.021 -0.1162 -0.1061 -0.0134
77457W        W20473  21.728  21.105  24.045  0.5446  0.2077  0.0329
77458W        W20474  29.051  14.472   2.567 -0.3423 -0.1490 -0.0685
77459W        W20475  10.309  21.924   5.510  0.3183  0.1412  0.1327
77460W        W20476  16.378  21.654   7.084  0.0366 -0.3434  0.2399
77461W        W20477  12.883  11.970  21.314 -0.3368 -0.1580 -0.0326
77462W        W20478   0.546  22.250  21.616  0.2473  0.1276  0.1511
77463W        W20479  26.589  20.336  16.552  0.0541  0.2182 -0.0571
77464W        W20480  20.279  12.737  11.924  0.1330  0.1736 -0.0644
77465W        W20481  17.834  16.454  17.822 -0.1554  0.1976  0.2714
77466W        W20482  12.937  29.383  21.601 -0.3027  0.3857  0.0570
77467W        W20483  25.069  21.821  27.207 -0.0527 -0.0619 -0.0757
77468W        W20484  20.821  32.389  19.247 -0.0737  0.1448  0.1531
77469W        W20485   9.136  25.394  13.501  0.3028 -0.0330  0.2430
77470W        W20486   3.449  33.829   3.792 -0.1054  0.0803 -0.3598
77471W        W20487   7.395  15.826  17.778  0.1985 -0.2412 -0.2406
77472W        W20488  20.258  17.504  12.781  0.1699  0.3258  0.0559
77473W        W20489  25.954  24.491  24.303  0.0028  0.1765  0.1982
77474W        W20490  24.650  15.793  19.230 -0.1152 -0.2393 -0.1998
77475W        W20491  20.925   3.066  22.794 -0.0298 -0.0666  0.0061
77476W        W20492  34.484  33.610  19.292  0.1997  0.2162  0.3109
77477W        W20493  23.511  24.027  15.488  0.3121 -0.0660  0.0524
77478W        W20494  21.993   6.083  26.642 -0.3559  0.0455 -0.1889
77479W        W20495  27.986   8.320  18.423 -0.2206  0.1732 -0.1308
77480W        W20496  16.012  26.681  14.380  0.0068 -0.6155  0.0719
77481W        W20497  10.656  19.413  23.939 -0.0004 -0.0233  0.0344
77482W        W20498  11.649   4.676   4.789  0.2248 -0.1685  0.0289
77483W        W20499  11.088  30.831  18.129 -0.0013  0.1286  0.2013
77484W        W20500  22.471   1.549  24.772 -0.1265  0.0374 -0.2926
77485W        W20501  16.152  32.245  17.461 -0.0011  0.0479 -0.1867
77486W        W20502  27.973  18.048   5.931  0.3578  0.0927 -0.1534
77487W        W20503  17.991  26.382  18.753  0.0256 -0.0322 -0.1505
77488W        W20504   2.117  25.263  26.835  0.2614  0.0860  0.1091
77489W        W20505  14.501  25.368  25.678 -0.0021 -0.1060 -0.0584
77490W        W20506   2.355  28.275  22.866 -0.0701  0.0601 -0.0782
77491W        W20507  23.578  21.251   1.867  0.2522  0.0092 -0.1453
77492W        W20508  31.504  26.569  23.512  0.0782  0.0179  0.0761
77493W        W20509  13.841  10.065  16.084 -0.0522 -0.1568  0.2047
77494W        W20510  20.777  25.422  19.192  0.0659 -0.1714 -0.0544
77495W        W20511  23.396  22.833  17.277  0.2313  0.3074 -0.1541
77496W        W20512  11.303   9.615  18.871  0.1743 -0.1292 -0.2148
77497W        W20513  21.144  23.366  17.380  0.1498 -0.2840  0.0436
77498W        W20514   3.803  20.178  18.988  0.1374 -0.2135 -0.1174
77499W        W20515  24.597  31.540   7.304 -0.3985 -0.2359 -0.0152
77500W        W20516  29.408  28.663  19.315  0.2324  0.0328 -0.1868
77501W        W20517  15.632  19.605  14.100  0.0782 -0.0674 -0.2127
77502W        W20518   8.378  29.198  15.819  0.2184 -0.2046  0.0925
77503W        W20519  26.030  24.627  17.949  0.2384 -0.2172 -0.2300
77504W        W20520  18.266  20.243  14.839  0.0859 -0.1029  0.0550
77505W        W20521   8.842  12.031  19.688  0.1858  0.1507  0.0255
77506W        W20522  14.804  22.305  20.369  0.1938 -0.2871 -0.0074
77507W        W20523  11.899   1.691   3.452 -0.3557  0.0718  0.5222
77508W        W20524  15.414  32.333  22.645  0.2840 -0.0121 -0.0259
77509W        W20525  12.277  23.848  25.398  0.0061 -0.1931 -0.2157
77510W        W20526  23.551  31.981  20.023 -0.1089  0.2778 -0.1893
77511W        W20527   2.165  27.591  19.464 -0.0871  0.1900 -0.1940
77512W        W20528  17.431  26.594  28.953 -0.1174 -0.0224 -0.3399
77513W        W20529   3.509  18.952   3.821  0.1567  0.0456 -0.2822
77514W        W20530  10.331  20.984  25.777 -0.0338 -0.2300 -0.1491
77515W        W20531  30.698  20.914  22.940  0.1690 -0.2302 -0.0909
77516W        W20532  16.920  20.312  11.717 -0.2585 -0.0089 -0.1142
77517W        W20533  18.541  25.318  28.132  0.0252 -0.2621  0.2274
77518W        W20534  13.732  19.524  15.924 -0.1577  0.0132  0.2073
77519W        W20535  31.769  26.449  17.791 -0.2049 -0.2736 -0.0666
77520W        W20536  20.255  24.757  21.058 -0.0614 -0.1328  0.0200
77521W        W20537   7.931  23.482  25.005  0.2658  0.1721 -0.0274
77522W        W20538  33.827  25.941  16.620  0.2785 -0.1495 -0.1280
77523W        W20539  12.344  34.167  19.505 -0.1020  0.1911 -0.2890
77524W        W20540   8.549  16.450  13.371  0.1338  0.1166  0.1642
77525W        W20541  27.170  19.724  22.400 -0.2977  0.2130  0.0095
77526W        W20542  21.527   0.046  20.380 -0.2443  0.3076  0.0922
77527W        W20543  10.120  22.355  23.872  0.1297 -0.1210 -0.3710
77528W        W20544  26.655  18.542  18.458 -0.0714  0.2653  0.2628
77529W        W20545  12.552  13.995  28.590  0.2448  0.2891 -0.2562
77530W        W20546  23.774  19.063  17.491  0.6019 -0.0270 -0.0716
77531W        W20547   2.148  31.566  16.717 -0.0636  0.3954  0.1297
77532W        W20548   6.866  34.760  29.320 -0.3095 -0.1166 -0.0723
77533W        W20549   8.392   1.032   2.671 -0.1304 -0.1357 -0.1817
77534W        W20550   3.796  32.107  16.899  0.0106 -0.0129 -0.0731
77535W        W20551  12.534  26.638  28.872 -0.1683 -0.0033 -0.2452
77536W        W20552   8.119  25.250  15.687 -0.3033  0.2900  0.2415
77537W        W20553  15.039  10.834  25.289 -0.0813  0.1333  0.1011
77538W        W20554  24.592  28.071  19.347 -0.0958 -0.2286  0.2438
77539W        W20555  32.122  34.489  21.190 -0.0580 -0.1896  0.2474
77540W        W20556  20.263  27.858  19.109 -0.2281 -0.1353 -0.1416
77541W        W20557  26.215   0.055  27.047 -0.1165 -0.0201 -0.1825
77542W        W20558   5.372  10.910  14.724 -0.2366  0.1436 -0.1978
77543W        W20559  23.739   5.274  27.108  0.0777  0.0449 -0.0325
77544W        W20560   7.615  29.828   0.757 -0.1013  0.0853 -0.3447
77545W        W20561  15.631  14.413  12.272  0.4976  0.3836  0.3079
77546W        W20562  30.596  26.517  25.598  0.0092 -0.1997  0.0733
77547W        W20563  11.775  17.424  15.255  0.2296 -0.2651 -0.1663
77548W        W20564  20.569  17.303  15.924 -0.1266 -0.0481 -0.3848
77549W        W20565  33.287  30.646  23.712 -0.3372  0.0307  0.3372
77550W        W20566  19.439  22.011  25.800  0.0881 -0.1426  0.3697
77551W        W20567   3.947  19.723  25.078  0.2565  0.1105 -0.1589
77552W        W20568  26.806  31.426  18.373  0.0269  0.0350  0.2044
77553W        W20569   8.382  28.150  17.461  0.2211 -0.2638 -0.2203
77554W        W20570  14.246   0.672  28.496  0.1061 -0.0125  0.1564
77555W        W20571  32.634  17.093  25.720  0.2212 -0.2078  0.2998
77556W        W20572  17.817  27.452  22.852 -0.2280 -0.0678 -0.1190
77557W        W20573  10.041  17.239  16.852 -0.2157 -0.0522 -0.0204
77558W        W20574   7.166  15.538  16.321 -0.0734  0.0201  0.0348
77559W        W20575  27.241  19.799  25.191  0.1047 -0.0424  0.1509
77560W        W20576  14.285  24.129  13.504  0.3664 -0.1214  0.0405
77561W        W20577   5.516   0.193  27.963  0.1106  0.1041 -0.0379
77562W        W20578   2.381  32.004  22.565 -0.2767  0.0017 -0.3497
77563W        W20579   3.393  10.481   8.488 -0.2185 -0.2145  0.0334
77564W        W20580   3.118  26.734  17.932  0.1875 -0.1227  0.0299
77565W        W20581  13.381  30.317  16.554  0.1496  0.2503  0.2836
77566W        W20582   0.020  26.506   7.611 -0.4602 -0.5189 -0.0962
77567W        W20583   9.055  32.855  14.702 -0.2709  0.0794  0.1180
77568W        W20584  19.717  10.025  21.704  0.0865  0.5817 -0.0648
77569W        W20585  20.512   1.487  18.967 -0.1604 -0.1956 -0.1346
77570W        W20586  22.628   4.108   8.042  0.2259  0.0674 -0.0219
77571W        W20587  24.798  23.650  29.045 -0.0210  0.2610 -0.0844
77572W        W20588   8.112   7.614  20.971  0.1144 -0.0625 -0.3074
77573W        W20589  12.634  29.747  16.052 -0.1968  0.1101  0.0573
77574W        W20590  21.503  24.285  18.839  0.2755  0.0249  0.2912
77575W        W20591  15.924  17.911  15.047 -0.0079 -0.2174 -0.1351
77576W        W20592  18.168  28.974  23.894 -0.0537 -0.3048 -0.2151
77577W        W20593   2.439  16.208  20.013 -0.0214  0.2169 -0.4667
77578W        W20594  21.725  30.563  21.607  0.1116  0.1613 -0.2454
77579W        W20595   9.381  18.535  16.767  0.2903 -0.2419  0.1130
77580W        W20596  13.860  10.807  18.580 -0.3653 -0.1653 -0.0397
77581W        W20597   6.732  26.884   2.923 -0.0579  0.0568 -0.0904
77582W        W20598  11.647  12.220  12.977 -0.1202 -0.1563  0.2447
77583W        W20599   5.478  24.160  14.323  0.1160  0.3575 -0.0137
77584W        W20600  15.930  26.471  15.757 -0.0098  0.0701 -0.2310
77585W        W20601  20.045  16.550  14.121  0.0114  0.2317  0.2724
77586W        W20602  14.060   0.334  19.161  0.1036  0.0227 -0.2412
77587W        W20603   9.528  21.828   2.482 -0.1796  0.0375 -0.1529
77588W        W20604  15.550   7.878  29.036  0.0537  0.2427 -0.1364
77589W        W20605  16.764   3.550  26.963 -0.0004 -0.1869  0.2921
77590W        W20606  16.049  19.618   0.005 -0.2701 -0.1885  0.3561
77591W        W20607  24.100  28.775  19.157 -0.2105  0.3547 -0.2233
77592W        W20608  16.935  23.575  28.170 -0.1889  0.1336  0.1631
77593W        W20609  26.718   8.421  23.837  0.3120  0.2210  0.2038
77594W        W20610  27.131   3.713  15.916 -0.0176  0.1304 -0.2863
77595W        W20611  15.219   9.374  28.841 -0.1331 -0.1028  0.3557
77596W        W20612  14.044  33.327  20.634  0.0646 -0.0766 -0.1711
77597W        W20613  22.073  26.554  16.189  0.1638 -0.0381  0.3591
77598W        W20614  10.424  22.119  17.912 -0.0091 -0.2164  0.2655
77599W        W20615   0.102   1.153   2.442 -0.0343 -0.0692 -0.0834
77600W        W20616  33.517   3.465  20.996 -0.1440  0.1200 -0.1889
77601W        W20617  28.339  34.294  23.392 -0.3866 -0.1569 -0.0648
77602W        W20618   6.695  12.281  14.829  0.0723  0.2486  0.0477
77603W        W20619  22.963  28.282  15.920  0.1042 -0.1618 -0.4382
77604W        W20620  16.971  22.239  13.815  0.0549  0.0299 -0.0976
77605W        W20621  23.873   8.077  15.508  0.1681 -0.1050 -0.0343
77606W        W20622  17.765  25.462  15.310  0.2163 -0.1261  0.1179
77607W        W20623  23.645  15.794  22.572  0.0788  0.2960 -0.0548
77608W        W20624  20.705  12.048  15.504 -0.1859  0.1567 -0.3384
77609W        W20625  10.413  17.658  13.977  0.1940  0.1080 -0.2142
77610W        W20626  10.250  30.018   1.006  0.1457  0.0576  0.0846
77611W        W20627   8.221  28.403  29.043  0.0952  0.3444 -0.0970
77612W        W20628  16.074   9.686  16.862  0.1697  0.2847  0.3254
77613W        W20629  13.701   3.261  15.282  0.3409 -0.0011  0.1179
77614W        W20630  14.183  14.191  14.459  0.3292  0.0577 -0.0078
77615W        W20631  14.606  14.760   0.721 -0.0407 -0.0596 -0.2231
77616W        W20632   0.875   6.915  14.217  0.1222 -0.2698 -0.0844
77617W        W20633  18.518  27.123  18.252  0.0703  0.0547 -0.1843
77618W        W20634   9.286  22.536  23.423  0.1988 -0.0181 -0.1041
77619W        W20635  25.855   7.683  15.206  0.0840 -0.3236  0.0927
77620W        W20636   5.355  18.198  12.751  0.0864  0.1243  0.1692
77621W        W20637  21.098  27.316  25.965 -0.0577  0.0601 -0.2240
77622W        W20638   2.350  11.257  21.897 -0.1565 -0.2112 -0.2468
77623W        W20639  17.439   4.274  22.963  0.1754 -0.1017  0.3407
77624W        W20640  14.327  18.385  23.472  0.0902  0.0904  0.2627
77625W        W20641  29.242  21.420   3.940  0.0377 -0.1961 -0.2904
77626W        W20642   0.856  31.744  16.059 -0.0740  0.0627 -0.1041
77627W        W20643  19.608  26.683  15.340 -0.2062  0.1605 -0.0287
77628W        W20644  32.232   4.655  23.298  0.1509  0.3010 -0.0447
77629W        W20645   7.508  25.208  16.967 -0.1399 -0.0860 -0.0008
77630W        W20646  15.290  11.317  20.788 -0.2287 -0.0305 -0.1326
77631W        W20647  31.050  24.536  20.602 -0.2652 -0.1395  0.1893
77632W        W20648   8.236   9.665  15.168  0.0730 -0.0878  0.0419
77633W        W20649  21.186  17.299  15.527 -0.1068  0.0148  0.0758
77634W        W20650  31.172  16.594  17.674  0.2137 -0.1635  0.0605
77635W        W20651  16.261  14.135  11.422 -0.1878  0.1988 -0.1678
77636W        W20652  26.345  22.994  22.684  0.1960 -0.4486 -0.0952
77637W        W20653  12.648  33.671  24.048  0.0057  0.1507 -0.5202
77638W        W20654   9.295  15.469  15.590 -0.0148 -0.0298  0.3111
77639W        W20655  11.386  31.576  18.006  0.0077  0.0585  0.1280
77640W        W20656  17.123  11.682  14.943  0.0361 -0.1379  0.3039
77641W        W20657   5.585  28.356  24.589  0.0362 -0.0578 -0.2042
77642W        W20658  14.336   7.916   4.419  0.0737  0.2058  0.1689
77643W        W20659  19.930  25.903  20.124 -0.0090  0.3421  0.0263
77644W        W20660  10.665  30.637  15.301 -0.0152  0.0737  0.3763
77645W        W20661   8.011  26.023   8.107  0.0406 -0.3073 -0.0527
77646W        W20662  19.869  26.475  16.571 -0.4482 -0.1237 -0.3628
77647W        W20663  11.305  23.317  14.918  0.0942 -0.4269 -0.0075
77648W        W20664  11.610  32.365   4.891 -0.2614 -0.1025 -0.4336
77649W        W20665  14.942  24.225   3.443  0.3197 -0.2817 -0.1963
77650W        W20666  16.278   0.332  19.185  0.0129  0.2774  0.2923
77651W        W20667   5.850  30.088  25.413  0.2440  0.1818  0.2130
77652W        W20668  13.824  21.287  17.025 -0.0454  0.4646  0.0773
77653W        W20669  12.669  14.604  17.487  0.1079 -0.2701 -0.0753
77654W        W20670   0.633   2.748  17.367 -0.1937 -0.0668  0.0301
77655W        W20671  23.983  32.368  14.881 -0.0008  0.0074  0.2796
77656W        W20672  13.622   1.167  20.040 -0.1651 -0.3767  0.3413
77657W        W20673   3.645   9.501  27.016  0.0836 -0.1808  0.0106
77658W        W20674  15.404  21.859  22.664  0.0348  0.0936 -0.3394
77659W        W20675   7.596  30.109  20.834 -0.2399  0.0264 -0.0672
77660W        W20676  11.857  29.150  24.173  0.0251  0.1979 -0.2664
77661W        W20677  16.330  30.276  28.945 -0.0710 -0.0271 -0.2739
77662W        W20678  15.758  21.723  26.722  0.0300  0.1956  0.0581
77663W        W20679  15.691  14.899  12.752 -0.1315  0.1213  0.3391
77664W        W20680  30.600  21.337  16.130 -0.2621  0.2300 -0.0002
77665W        W20681  33.817  27.255   2.662 -0.0982  0.2579 -0.0376
77666W        W20682  26.441  23.584  28.131  0.0432  0.1557 -0.1065
77667W        W20683  13.225  28.465  19.885 -0.3023 -0.3068  0.2205
77668W        W20684   9.783  24.523  17.373  0.1447  0.0640  0.0983
77669W        W20685  25.542  25.359  26.459 -0.1662 -0.3391  0.0608
77670W        W20686   3.267  34.263  27.187 -0.2137 -0.1273 -0.3590
77671W        W20687  19.776  10.689  22.636  0.1418 -0.0212 -0.0922
77672W        W20688   7.382  26.966   0.374  0.2607 -0.2146  0.1174
77673W        W20689  21.622  25.346  14.214  0.1647  0.0157  0.1148
77674W        W20690   0.146  19.330   5.460 -0.2507 -0.1422  0.0960
77675W        W20691  26.579  21.269  17.618  0.2848  0.1735  0.2002
77676W        W20692   7.484  30.109  21.667 -0.1039  0.0431 -0.1525
77677W        W20693   1.553  28.079  17.564 -0.0381  0.0304 -0.0115
77678W        W20694  30.932   3.218  26.410  0.1135  0.1811  0.1705
77679W        W20695   9.320  27.609  16.523 -0.4215  0.1784  0.1028
77680W        W20696  11.007  24.589  18.591 -0.1081 -0.0740 -0.2402
77681W        W20697  27.166  32.325  20.686  0.2406 -0.2272 -0.1896
77682W        W20698  17.952  26.284  26.695  0.0272  0.2717  0.5070
77683W        W20699  18.271  21.768  12.060 -0.2656  0.0701 -0.2413
77684W        W20700  20.867   7.566  27.770 -0.1541 -0.0355  0.3649
77685W        W20701  11.781  24.757  22.372  0.0091 -0.0577  0.2757
77686W        W20702  26.546  21.546  24.166 -0.0250 -0.1883  0.1307
77687W        W20703  14.307   0.623  22.570  0.0646 -0.3846 -0.2453
77688W        W20704  33.498  18.359  16.453 -0.0503  0.1911  0.0873
77689W        W20705   0.985   4.001  15.850  0.1376  0.0550 -0.1767
77690W        W20706  15.558  27.066  20.409 -0.2662 -0.2010 -0.0365
77691W        W20707  18.137  10.554  15.530 -0.2648 -0.3635  0.1075
77692W        W20708  32.257  30.033  17.402  0.1141 -0.1367  0.0145
77693W        W20709  24.527   7.764  19.744 -0.3027 -0.0444  0.5095
77694W        W20710  26.331   8.753  19.181 -0.3956  0.0113 -0.2412
77695W        W20711  15.417   7.474  24.256 -0.0985 -0.0507  0.2486
77696W        W20712   5.501  34.364   0.618 -0.0401 -0.0236 -0.0386
77697W        W20713   5.395   6.694  21.736 -0.0857 -0.0163  0.0218
77698W        W20714   5.991  18.292  16.620  0.2454  0.2150 -0.0571
77699W        W20715  10.961  20.622  17.228  0.0660  0.0289  0.0810
77700W        W20716  34.409  22.058  19.714 -0.1601 -0.1276 -0.3451
77701W        W20717  27.649  10.112  21.631  0.0002 -0.3580 -0.0727
77702W        W20718  25.408  22.262  21.501 -0.1744 -0.1987  0.0630
77703W        W20719  24.255  12.522  13.706 -0.1583  0.0481  0.0317
77704W        W20720  21.033  29.139  26.904 -0.0664 -0.0948 -0.3082
77705W        W20721  12.745  13.149  23.321 -0.1005  0.0537 -0.1055
77706W        W20722  20.305  34.438  23.631  0.3280  0.0120  0.1445
77707W        W20723  18.275  23.457  16.549  0.0941 -0.3124  0.1617
77708W        W20724  31.678  29.081  19.583  0.0834  0.0742  0.3042
77709W        W20725   4.456   0.450   2.384  0.2355 -0.1149  0.0894
77710W        W20726  27.274  31.956  18.074  0.5126  0.0376 -0.5996
77711W        W20727  13.733  25.658  18.032 -0.0020  0.1332 -0.0874
77712W        W20728  34.599  28.679  27.610 -0.1717  0.2087 -0.2849
77713W        W20729   1.916  29.570  15.278 -0.0845  0.0449  0.5021
77714W        W20730  12.877  11.141  27.748  0.1794  0.0337 -0.0447
77715W        W20731  11.399  10.865  20.680  0.2776  0.3405 -0.1882
77716W        W20732  21.783  30.411  16.679  0.0844 -0.3665  0.0490
77717W        W20733  12.116  15.490   4.207 -0.0128  0.2541  0.0399
77718W        W20734  17.865  22.900  17.713  0.1048  0.3227  0.0183
77719W        W20735  24.728  24.401  26.661  0.2905  0.0121 -0.2887
77720W        W20736  19.517  28.208  17.834  0.1597 -0.4800  0.0955
77721W        W20737  26.880   9.853   1.297  0.0891 -0.0114  0.4158
77722W        W20738   4.051  26.974  16.701 -0.2118  0.0387  0.2608
77723W        W20739   9.811  22.687  13.529 -0.1299 -0.1158  0.1528
77724W        W20740  20.023  23.930  21.862  0.0496  0.2303  0.1516
77725W        W20741  13.236  19.435  15.168  0.2684 -0.0489  0.2400
77726W        W20742   8.697  31.053  28.530 -0.1716  0.3096  0.2293
77727W        W20743  21.671  28.065  20.266  0.3365  0.5347 -0.2323
77728W        W20744  14.499   4.036  17.903  0.1343  0.0667  0.1037
77729W        W20745  20.906  33.936  27.037 -0.0767  0.0466 -0.1971
77730W        W20746  22.595  23.367  26.357 -0.2319  0.0556  0.2981
77731W        W20747  20.927  28.332  14.673 -0.0897 -0.1439 -0.2006
77732W        W20748  31.598   0.041  20.956 -0.2399  0.0403  0.0388
77733W        W20749  33.599  32.885  24.173  0.1214 -0.1058 -0.0586
77734W        W20750  10.318   9.275  15.964 -0.0139  0.0853  0.1700
77735W        W20751   7.871   0.755  14.434  0.3407 -0.0501  0.0492
77736W        W20752  22.630   7.299  23.897  0.0129  0.3377 -0.1066
77737W        W20753  28.959  21.477  22.870  0.0144  0.2352  0.1382
77738W        W20754   8.834  19.301  14.760  0.3984  0.2375 -0.1739
77739W        W20755  15.532   2.962  15.708 -0.2510  0.0856  0.2812
77740W        W20756  30.370  16.867  20.824 -0.4357  0.0480 -0.0043
77741W        W20757  12.044   7.475  23.987  0.1856 -0.1335 -0.1371
77742W        W20758  25.847  10.929  20.997  0.1640 -0.1326  0.0526
77743W        W20759  20.652   3.964  26.996 -0.1180 -0.0214 -0.1698
77744W        W20760   7.890   0.647   4.125  0.1139 -0.2106 -0.0436
77745W        W20761  28.173  21.843  22.725  0.0525  0.0346  0.2140
77746W        W20762  11.744  24.051   5.365 -0.2251 -0.0317  0.2568
77747W        W20763  30.630   9.537  25.339  0.3550 -0.2390  0.0819
77748W        W20764  20.834  28.800  17.088  0.0622  0.0616 -0.1287
77749W        W20765  19.519   4.521   2.170  0.0466  0.0726 -0.3156
77750W        W20766  14.603  27.180  21.816 -0.1197 -0.1744 -0.3267
77751W        W20767   7.507  17.758  26.569 -0.2250 -0.2169  0.0281
77752W        W20768   6.899  17.373  26.175  0.1951  0.2505 -0.0394
77753W        W20769  15.777  26.327  24.576  0.1113  0.0430  0.2924
77754W        W20770  13.719  33.581  19.709 -0.0623 -0.3294 -0.1276
77755W        W20771  17.213  28.290  18.579  0.0343  0.0000 -0.0112
77756W        W20772   8.442  32.299  22.931 -0.0571 -0.0066  0.1985
77757W        W20773  19.650  20.846  25.732  0.0798  0.0497  0.6359
77758W        W20774  16.695  19.560  13.382 -0.0629  0.2187  0.1238
77759W        W20775  16.775   4.923  17.523 -0.0230 -0.0840 -0.1343
77760W        W20776  14.856   1.479  14.659  0.0104  0.0049 -0.1758
77761W        W20777  23.691  11.517  15.187  0.2271 -0.0488 -0.1648
77762W        W20778  24.922  17.825  23.268  0.3953 -0.1766 -0.1175
77763W        W20779  12.681  19.239  14.083 -0.0480  0.1904 -0.0825
77764W        W20780  16.785  26.818  17.049  0.0122 -0.1051 -0.2569
77765W        W20781  20.201   7.687  13.545  0.1541  0.0145  0.1139
77766W        W20782   1.049   5.661  19.914  0.1079  0.0924 -0.0959
77767W        W20783   7.147  26.041   1.119 -0.1247 -0.1076 -0.2235
77768W        W20784  25.946  29.331  20.733 -0.1007 -0.1268 -0.0131
77769W        W20785  27.281  24.167  28.012 -0.0082  0.1725  0.0369
77770W        W20786   4.744  12.750  19.095  0.0167  0.3716  0.3589
77771W        W20787   3.334  25.814  24.072  0.1705 -0.3035  0.0731
77772W        W20788  12.865  23.421  27.047  0.1151 -0.0766  0.0719
77773W        W20789  13.499  27.527  21.569 -0.2474 -0.0763  0.2781
77774W        W20790  12.976  27.551  27.184 -0.1138  0.2979 -0.4992
77775W        W20791  23.168  19.552  18.492 -0.2140  0.0023  0.0192
77776W        W20792  16.983  24.682  13.969  0.0466  0.0436  0.0707
77777W        W20793  18.829  18.129  13.852  0.0807 -0.1855  0.0632
77778W        W20794  19.953  24.588  17.802  0.0705 -0.0625  0.0580
77779W        W20795  24.262   9.907  20.885  0.3379 -0.1560  0.0301
77780W        W20796  15.913  12.262  13.576  0.0457 -0.3515  0.0128
77781W        W20797  22.932  18.187  20.503  0.1274  0.0769 -0.1055
77782W        W20798   5.881  14.168  17.914  0.1488 -0.0616 -0.1223
77783W        W20799   3.910  26.575  25.196  0.2327 -0.2115 -0.4879
77784W        W20800  17.948  31.971  29.218  0.1217 -0.1140 -0.0364
77785W        W20801   0.823  28.524   1.143 -0.0011  0.1228  0.0691
77786W        W20802  16.393  29.541   0.705 -0.0330  0.2628  0.0674
77787W        W20803  16.234   4.399  22.870  0.1229  0.0091  0.2032
77788W        W20804   8.927  16.084  13.417  0.0402 -0.0053  0.0417
77789W        W20805  14.846  27.462  15.198 -0.1580 -0.1968 -0.1948
77790W        W20806   8.922  16.655  14.153  0.1101 -0.0158  0.3063
77791W        W20807  28.714  24.746  16.030 -0.0602  0.0436 -0.0373
77792W        W20808  16.923  31.257  28.369 -0.1062  0.0274  0.1371
77793W        W20809  27.865  14.385   2.670  0.2265 -0.0536 -0.2241
77794W        W20810  25.846  16.038  19.668 -0.1195  0.0861 -0.0030
77795W        W20811  31.868  20.884  24.198 -0.3369  0.1784  0.0378
77796W        W20812  15.675  23.376  14.563  0.1177 -0.2807  0.0295
77797W        W20813  14.473  31.356   1.143 -0.1964  0.2148  0.0277
77798W        W20814  17.585  22.567  21.533 -0.1181 -0.2249 -0.1896
77799W        W20815  15.793  33.893  25.960 -0.0711  0.0255  0.1588
77800W        W20816  16.694  15.604  13.853 -0.0815 -0.1395  0.2679
77801W        W20817   9.508  21.944  20.511 -0.0510  0.0749 -0.0482
77802W        W20818  25.506  16.953  26.227  0.0438 -0.2136  0.1839
77803W        W20819   2.539  34.239  29.109  0.0782 -0.1725  0.3256
77804W        W20820  21.952  13.373  26.734 -0.0532  0.5936  0.1808
77805W        W20821  15.491  27.010  26.733 -0.3410 -0.0311 -0.0731
77806W        W20822  20.470  23.219  17.947 -0.1835 -0.0465 -0.2012
77807W        W20823   0.670  11.277  15.378 -0.2328 -0.2752  0.2147
77808W        W20824  26.295   2.110  19.715 -0.1416 -0.0593 -0.0000
77809W        W20825  25.428  25.683  21.180 -0.0253  0.2596 -0.0023
77810W        W20826  18.226  26.853  23.083  0.1743  0.0999 -0.1069
77811W        W20827  22.225  16.930  21.464 -0.0840  0.0223  0.2177
77812W        W20828  10.607   9.833  17.409 -0.0995  0.1437  0.0775
77813W        W20829   3.527  16.161  15.726 -0.1181 -0.0737 -0.1226
77814W        W20830  15.715  10.980  21.047 -0.0261  0.0061  0.2010
77815W        W20831  17.528  27.868  21.058  0.0627 -0.2174 -0.1784
77816W        W20832  14.280  31.494  26.844 -0.2066  0.1854  0.1852
77817W        W20833  18.287   8.816  14.258 -0.2520  0.0265  0.1940
77818W        W20834  11.594  15.951  23.252  0.1575  0.1782 -0.2551
77819W        W20835  14.755  24.653   1.156  0.1529 -0.0117  0.0235
77820W        W20836  29.470  34.693   6.947 -0.2397 -0.2678 -0.1662
77821W        W20837   9.260   2.943  18.637 -0.3373  0.0747 -0.0077
77822W        W20838  14.236  28.788  14.590 -0.0221 -0.0872 -0.1327
77823W        W20839  17.290   0.700  21.103  0.0059 -0.0884  0.2218
77824W        W20840  19.252  29.701   6.916  0.1452 -0.3144  0.5080
77825W        W20841   7.692  12.947   1.850  0.0562  0.2106 -0.0500
77826W        W20842  12.972  28.991  19.842 -0.2815  0.0290  0.0479
77827W        W20843  19.940   6.836  22.356 -0.0056  0.0901  0.2856
77828W        W20844  13.470  11.943  23.964  0.2652  0.0267  0.0243
77829W        W20845  17.334  27.150   7.130 -0.3055  0.3024  0.2851
77830W        W20846  17.730  27.577  25.413 -0.1002 -0.1184  0.2206
77831W        W20847   5.382  30.252  14.879 -0.3048 -0.1690 -0.0362
77832W        W20848  18.658  28.331  17.525  0.3218 -0.0088 -0.1692
77833W        W20849   5.890  30.266  23.955 -0.0254  0.3171 -0.0193
77834W        W20850   8.732  29.208   5.611 -0.2624  0.0020 -0.1297
77835W        W20851   8.239  28.763   8.772  0.1254 -0.2327 -0.0587
77836W        W20852  23.040  21.486  21.229  0.2626 -0.0189  0.3139
77837W        W20853  34.097   4.200   0.997  0.2802 -0.0268 -0.2143
77838W        W20854  18.816  29.077   7.933 -0.3217  0.1172  0.0991
77839W        W20855  14.545  17.603  11.968 -0.0492  0.2289  0.4306
77840W        W20856   3.913   9.814  21.813 -0.0274  0.0116  0.0194
77841W        W20857  10.557  21.922   6.414 -0.0992 -0.2452 -0.0423
77842W        W20858  30.589  29.440  11.394 -0.1125  0.2493  0.2433
77843W        W20859  30.394  22.719  21.090  0.3354  0.0045 -0.0506
77844W        W20860  28.386  21.657  26.037 -0.0283  0.1040  0.2992
77845W        W20861  16.815  23.128  18.842  0.1740 -0.2235  0.0674
77846W        W20862   9.663  17.520  22.077 -0.0099 -0.0944  0.1340
77847W        W20863   1.169  16.285   5.829  0.1527  0.1244  0.1773
77848W        W20864  12.560  29.104  27.221  0.0287 -0.1655  0.1579
77849W        W20865  17.443  20.091   3.830 -0.0504  0.2929  0.3187
77850W        W20866  23.931   0.551  24.684 -0.0539  0.1577 -0.4069
77851W        W20867  10.417  18.178  14.372 -0.3097  0.0899 -0.0221
77852W        W20868  16.249  28.782   0.090 -0.2472  0.2416  0.1848
77853W        W20869   9.231  29.103  18.092  0.3370  0.0612 -0.0250
77854W        W20870  27.563  29.625  18.431  0.2176 -0.2368  0.0074
77855W        W20871  16.349  28.133  16.171 -0.0494  0.0411  0.0294
77856W        W20872  25.887  16.296   1.734 -0.0663  0.3336 -0.2494
77857W        W20873  14.044  18.726  22.064 -0.1677  0.3292  0.0873
77858W        W20874  19.327  14.534  24.490  0.1670 -0.1790  0.0864
77859W        W20875  30.854  14.184  27.727  0.1462  0.0005 -0.0116
77860W        W20876  19.534  23.199   7.477 -0.1104  0.0311  0.0439
77861W        W20877   3.987   0.944  14.954 -0.1466 -0.1493  0.0501
77862W        W20878   1.587  27.945  24.802  0.4129 -0.0624  0.3125
77863W        W20879  30.203  26.220  23.613  0.2457  0.1520 -0.1078
77864W        W20880  26.653  15.100  18.882  0.0435 -0.0105  0.3605
77865W        W20881   8.648  19.481  28.275  0.0735  0.1626  0.2724
77866W        W20882  25.845  27.950  22.868  0.0693 -0.0096 -0.2041
77867W        W20883  19.972  14.398  25.565 -0.0794 -0.1671 -0.1086
77868W        W20884   3.045  30.325  15.288 -0.0503 -0.1828 -0.1431
77869W        W20885  19.810  15.247  11.530 -0.0208 -0.0009  0.1744
77870W        W20886  21.924  32.418   8.716 -0.1673 -0.0892  0.2001
77871W        W20887  24.885  13.168  23.226  0.4178 -0.0587  0.0413
77872W        W20888  10.171  13.347  22.845 -0.1064  0.0050  0.1593
77873W        W20889   0.071  15.898  26.931 -0.0328  0.1877 -0.0071
77874W        W20890  29.463  25.282   3.131  0.2151  0.0939  0.2670
77875W        W20891  13.253  25.794  13.886  0.0911 -0.1222  0.1176
77876W        W20892  19.862  21.516  19.703 -0.0966  0.1470 -0.2247
77877W        W20893   5.177  24.501  18.102 -0.3926 -0.1018 -0.3214
77878W        W20894  11.556  13.840   5.331  0.0384 -0.1267  0.0347
77879W        W20895  33.757  16.685  17.009 -0.0767 -0.3446  0.0628
77880W        W20896  26.788  30.132  25.524 -0.0102  0.1427  0.0429
77881W        W20897  17.112  23.214  17.884  0.0052 -0.1107  0.0914
77882W        W20898  25.744  33.436  20.063 -0.4671 -0.1202  0.0432
77883W        W20899  21.366  26.965  24.864  0.5598 -0.2196  0.5311
77884W        W20900  13.074  22.093   0.230 -0.1195 -0.0009 -0.3046
77885W        W20901  15.255  21.797  19.936  0.0542  0.0412  0.0284
77886W        W20902  19.973   1.535  23.564  0.1099  0.3141  0.1054
77887W        W20903  13.171  27.935  21.417 -0.1280  0.1162  0.0259
77888W        W20904  14.997   1.066  20.938 -0.0800  0.2003  0.3014
77889W        W20905   6.136  17.502  23.112 -0.1098  0.2417 -0.2062
77890W        W20906   3.798  26.038  14.382  0.0301  0.1279  0.0314
77891W        W20907   1.609  15.706   3.212  0.0167  0.2232 -0.0210
77892W        W20908   2.807   7.278   4.129 -0.1334  0.2098 -0.2794
77893W        W20909  15.658  17.502   2.775  0.0182  0.2274 -0.1873
77894W        W20910  21.486  11.940  23.370 -0.0347  0.3262  0.1372
77895W        W20911   8.562   2.195   3.411 -0.0066  0.0446  0.0705
77896W        W20912   4.173  27.698   7.229 -0.2753 -0.1781 -0.1481
77897W        W20913  14.148  10.697  17.765 -0.0000 -0.0359 -0.0735
77898W        W20914  25.920   1.144  29.053  0.0159 -0.0902 -0.2746
77899W        W20915  20.757  25.683   0.688  0.3664 -0.1402 -0.2958
77900W        W20916  28.437  22.005  28.416 -0.1460 -0.1637 -0.1658
77901W        W20917   0.618  23.576   5.146  0.1416  0.0327 -0.0179
77902W        W20918  13.022  24.918  14.782 -0.0563  0.0897 -0.4012
77903W        W20919   6.538   2.447  21.919  0.0194  0.0015  0.1851
77904W        W20920  16.199  24.399  12.981 -0.0049 -0.0767  0.2461
77905W        W20921  24.676  24.947   7.699 -0.1446 -0.1616 -0.2653
77906W        W20922   1.179  32.451  26.428 -0.1626 -0.1726  0.2153
77907W        W20923   1.018  16.021  27.074 -0.1778  0.0117  0.2897
77908W        W20924   4.198  32.676   2.419 -0.3620 -0.1169  0.2615
77909W        W20925  28.120  25.031  28.941 -0.3056  0.0684 -0.1230
77910W        W20926  27.754  11.060   4.438 -0.0707 -0.1451  0.2267
77911W        W20927  18.197  21.237  28.883  0.2894  0.0642  0.1929
77912W        W20928  28.823  25.662  19.613  0.1374 -0.0577 -0.2395
77913W        W20929   3.598  22.475  21.047 -0.0588  0.1138  0.1104
77914W        W20930  22.262  12.263   1.360 -0.1018  0.1473  0.2690
77915W        W20931  25.658  30.798   3.688  0.2067  0.2202  0.3629
77916W        W20932  17.553  19.952   0.101 -0.0481 -0.1326  0.1801
77917W        W20933   7.610  16.137  15.231 -0.1848  0.1205 -0.0050
77918W        W20934  21.940  24.293  15.415  0.1933 -0.0842  0.1991
77919W        W20935   0.065  19.924   7.046 -0.2330 -0.0214 -0.0407
77920W        W20936  18.022  24.816  14.623  0.1243  0.0857 -0.1317
77921W        W20937   6.234  30.783  18.029  0.2250 -0.0749  0.2407
77922W        W20938   6.355  31.665  15.981 -0.3072 -0.1114  0.2902
77923W        W20939   6.581  30.949  14.356 -0.0613  0.1190 -0.0300
77924W        W20940   3.990  13.539   2.290  0.1031 -0.1901  0.2412
77925W        W20941   9.415  26.173  18.572  0.1685  0.0344 -0.1230
77926W        W20942  23.136  20.857  14.468 -0.2007  0.0558 -0.1465
77927W        W20943  18.031  22.713  27.615  0.0791 -0.3132  0.2224
77928W        W20944  14.133   7.771   9.266 -0.0328  0.0402 -0.0315
77929W        W20945   3.468  30.139  25.229  0.1262 -0.0975  0.2236
77930W        W20946   5.990   2.936  17.251 -0.0206  0.1757  0.0230
77931W        W20947  23.155   2.206  22.637  0.1251 -0.0906 -0.1275
77932W        W20948   6.464  15.585  21.053 -0.4642  0.1332 -0.0260
77933W        W20949  15.507  30.077   2.293 -0.1050  0.0815 -0.1109
77934W        W20950  25.102  18.714  25.817  0.2600 -0.0011  0.0719
77935W        W20951  23.406  11.018  21.358 -0.0969 -0.1592 -0.1257
77936W        W20952   1.351  26.034  21.608  0.0298  0.0287  0.1941
77937W        W20953  25.441  27.763  28.238  0.0917 -0.2681  0.1691
77938W        W20954  21.156  30.199  23.063 -0.0419 -0.1587 -0.0861
77939W        W20955  17.252   4.510  16.423  0.0581 -0.1823 -0.1541
77940W        W20956  26.112  30.788   0.138 -0.0068  0.1774  0.3867
77941W        W20957  19.437  21.009  20.828 -0.5599 -0.2007 -0.0743
77942W        W20958  16.578   3.893  24.159  0.1276  0.0139 -0.2125
77943W        W20959  16.450  32.231  22.703 -0.3759 -0.0296  0.2016
77944W        W20960  20.374  19.496  20.511  0.1147  0.0268 -0.5093
77945W        W20961  15.596  34.732  21.120  0.1513 -0.1261 -0.4169
77946W        W20962   5.387  16.852  20.049 -0.0739 -0.0700 -0.1100
77947W        W20963   7.584  29.122   4.081  0.2749  0.1929  0.0949
77948W        W20964  32.090   0.687  14.664  0.2775  0.1235 -0.2681
77949W        W20965   0.018  16.744   3.206  0.0111 -0.1215  0.0079
77950W        W20966  19.844  27.177   0.961  0.1885  0.3071  0.1672
77951W        W20967  14.702  26.478  14.792  0.2601  0.0969 -0.7998
77952W        W20968  19.160  16.087   1.933 -0.1708 -0.0350 -0.2165
77953W        W20969  15.627   6.108   2.076  0.0718  0.0720  0.2384
77954W        W20970   1.481  32.382  22.619 -0.2218 -0.0413 -0.0560
77955W        W20971  22.601   3.603  17.570  0.5176  0.0592 -0.0999
77956W        W20972  33.983  24.084  17.989 -0.0231 -0.0079 -0.5714
77957W        W20973  17.083  28.580  15.850  0.0562 -0.1593 -0.2549
77958W        W20974  10.854  26.401  15.544  0.1745  0.0118  0.3771
77959W        W20975  27.888  29.088  11.630 -0.1103  0.2091 -0.1024
77960W        W20976  27.852  16.227  15.148  0.0144 -0.0392 -0.4078
77961W        W20977   9.352  20.754  16.770  0.0740 -0.0251  0.0353
77962W        W20978  14.793   4.168  17.132 -0.0789 -0.2199  0.2996
77963W        W20979  11.192  18.349  24.180  0.1116  0.0218 -0.0428
77964W        W20980  23.379   5.156   8.566 -0.2412  0.2161 -0.0044
77965W        W20981   4.295  14.152  24.118  0.3057  0.2170 -0.0083
77966W        W20982   5.142  31.470  20.494 -0.0586 -0.1440  0.2559
77967W        W20983  17.382  30.149  23.402 -0.0081  0.1788 -0.1898
77968W        W20984  25.697  10.580  14.652  0.0222  0.2000 -0.0095
77969W        W20985  26.573  24.377  19.311 -0.0800  0.1697 -0.0344
77970W        W20986  30.471  31.896  22.977  0.0692 -0.1644  0.0679
77971W        W20987  19.032  27.124  25.859 -0.0019  0.0023 -0.1732
77972W        W20988  24.965  14.178  16.169  0.0012 -0.1499 -0.0126
77973W        W20989  32.100  32.708   2.565 -0.0619  0.3716 -0.0373
77974W        W20990  14.939  31.643  21.017 -0.1952 -0.2625  0.0656
77975W        W20991  24.997  23.244   5.562  0.1317 -0.0899 -0.2739
77976W        W20992  15.994   5.110   7.686 -0.1802  0.1061  0.0578
77977W        W20993  30.813  22.372  27.313  0.3430  0.2983 -0.0769
77978W        W20994  12.813  22.942   1.831 -0.2374 -0.0333 -0.3773
77979W        W20995  25.735  16.270  20.106 -0.3048 -0.0419 -0.1405
77980W        W20996  23.663  25.147  29.285 -0.0958  0.1466  0.2353
77981W        W20997   8.019  26.499  14.697 -0.2472  0.2137 -0.1870
77982W        W20998   3.186   7.109   1.862  0.1887  0.1123 -0.0727
77983W        W20999  14.674  17.651   7.622  0.0909  0.0980 -0.3024
77984W        W21000  27.355  24.436  18.214  0.0396 -0.0256 -0.2089
77985W        W21001  10.175  21.444   0.504 -0.1838  0.1451  0.3573
77986W        W21002  17.018  31.223   6.578 -0.0739 -0.2672 -0.0834
77987W        W21003  10.264  19.017  12.139 -0.1631  0.0257 -0.1729
77988W        W21004  20.583  19.007   4.185  0.0844  0.0915 -0.1236
77989W        W21005  25.382  19.630  23.084 -0.0226 -0.1149  0.0935
77990W        W21006   6.858   2.624  18.388  0.2992 -0.0908  0.3347
77991W        W21007  26.318  19.465  16.068 -0.1779 -0.1191  0.1272
77992W        W21008  28.032  11.623  28.769 -0.1728  0.3067  0.0553
77993W        W21009  10.234  25.528  21.320  0.0994  0.0690  0.0674
77994W        W21010  13.941  17.873  23.734  0.0199  0.2978 -0.1723
77995W        W21011   1.974  15.769  24.826 -0.2586  0.2389 -0.0850
77996W        W21012   1.469   0.744  21.303  0.0089  0.0653 -0.1389
77997W        W21013  16.339   2.380  13.760  0.0183  0.3414  0.0126
77998W        W21014  29.036  19.174   5.913  0.0586 -0.2922 -0.0885
77999W        W21015  11.401  21.062  15.263 -0.2488 -0.2001 -0.1105
78000W        W21016  19.150  28.898  14.781 -0.0588 -0.0093 -0.3006
78001W        W21017  19.994  28.767  16.312  0.0088  0.1445 -0.1420
78002W        W21018  20.357  31.684  23.421 -0.0679  0.2033 -0.3902
78003W        W21019  13.140   4.209  24.944  0.0113 -0.0557  0.1193
78004W        W21020  32.543  34.310  21.388 -0.3132  0.0147  0.3730
78005W        W21021   1.604   9.695   0.583  0.0038  0.1154 -0.0984
78006W        W21022  15.739  18.280  15.513 -0.2167  0.0271 -0.3170
78007W        W21023  20.533   3.988   7.040 -0.0647  0.0198 -0.1363
78008W        W21024  23.646  15.918  18.290 -0.1848 -0.1930  0.2719
78009W        W21025   3.286  27.319  15.800 -0.0157 -0.0071 -0.1663
78010W        W21026   6.166  28.973  23.438 -0.1677 -0.1587 -0.0750
78011W        W21027  10.712  18.890  26.590  0.0465 -0.2962  0.1878
78012W        W21028  24.371  18.411  17.680  0.0341  0.0126  0.2953
78013W        W21029  31.542  26.133  20.195 -0.3413 -0.2013 -0.0877
78014W        W21030  33.996  32.654   6.200  0.0100  0.2838  0.0573
78015W        W21031  21.511   9.962  28.329  0.2617 -0.0107 -0.1054
78016W        W21032   9.323  16.622  17.129  0.0793  0.0287  0.0306
78017W        W21033   5.672  21.245  16.908 -0.1238  0.0546  0.1509
78018W        W21034  14.194  13.153  27.244  0.1943  0.0330 -0.0220
78019W        W21035  30.555   4.432  18.316 -0.2548 -0.1318 -0.1495
78020W        W21036  29.264  19.162  24.440 -0.3746  0.4022  0.0627
78021W        W21037  16.697  18.775  23.599 -0.2126 -0.3864  0.1509
78022W        W21038  17.004  21.717  24.245 -0.1031 -0.3794 -0.2640
78023W        W21039   8.800  29.150  27.579 -0.0139  0.0306  0.0161
78024W        W21040  33.812  29.234  15.447 -0.2880  0.2517  0.1494
78025W        W21041   9.777  20.344   4.521 -0.2416  0.2065 -0.1612
78026W        W21042  22.544  10.059   1.213 -0.1591  0.2767 -0.0128
78027W        W21043   8.447  18.129  19.597  0.2074  0.0614 -0.2365
78028W        W21044  29.984  26.086   4.600  0.3201  0.1221 -0.2142
78029W        W21045  34.390  28.226  24.818  0.0713 -0.2593 -0.0231
78030W        W21046  29.325  14.134  22.923  0.0008 -0.4086 -0.0444
78031W        W21047  30.135  15.826   2.652 -0.1275 -0.2649 -0.1534
78032W        W21048  25.778  19.015  18.449 -0.1698  0.1556 -0.1157
78033W        W21049  25.098  30.665   0.501  0.3921 -0.1171 -0.0751
78034W        W21050  15.637  31.375  26.372 -0.1233 -0.0243  0.4134
78035W        W21051   9.041   4.769   6.399  0.1178  0.1902  0.0129
78036W        W21052   7.313   5.443   6.180 -0.2523 -0.0024 -0.1769
78037W        W21053   2.495   7.973  21.082 -0.0597  0.1869  0.1606
78038W        W21054  11.990  30.530  21.504 -0.0699 -0.1868  0.0214
78039W        W21055  14.701  28.018  23.021 -0.4379  0.2244 -0.3531
78040W        W21056   7.872  30.166   7.245  0.1591 -0.0691  0.3442
78041W        W21057  32.067  26.723  26.374 -0.2730 -0.0698 -0.2192
78042W        W21058  24.976   3.198  18.926  0.0479  0.0773 -0.0316
78043W        W21059  10.000  31.945   3.656  0.1720  0.0156  0.1457
78044W        W21060  29.831  28.144   0.185  0.1562 -0.1751  0.1661
78045W        W21061  23.486  15.237  18.648 -0.0419 -0.1013 -0.0833
78046W        W21062  26.176  13.036  25.535 -0.1266  0.0180 -0.2229
78047W        W21063   8.939  15.390   2.084 -0.2070 -0.1883 -0.2806
78048W        W21064  19.756  32.760  23.144  0.1733  0.1063  0.1662
78049W        W21065  15.924  27.635  14.996 -0.2230 -0.0788  0.3540
78050W        W21066   8.415  20.968   0.201 -0.2775  0.2902  0.1166
78051W        W21067  24.763   2.830   0.356 -0.1377  0.1094 -0.1956
78052W        W21068   7.854  16.789  26.493  0.1672  0.1984 -0.1781
78053W        W21069  17.554   0.447  17.730  0.0493 -0.0713 -0.1577
78054W        W21070   6.665   6.438  17.025  0.1815  0.2093  0.1049
78055W        W21071   2.075   4.325   3.922 -0.1302 -0.0869  0.2389
78056W        W21072  14.461  27.673  20.087 -0.4708 -0.0541 -0.1800
78057W        W21073   3.852  22.155  16.158 -0.0341 -0.0013 -0.0112
78058W        W21074   2.971   7.953  20.938  0.1355 -0.2652  0.2092
78059W        W21075  11.006  14.288   8.313  0.3709 -0.0588  0.1306
78060W        W21076  34.776  31.930  21.979 -0.1818  0.2813 -0.4327
78061W        W21077  22.236  26.098   9.101 -0.2903  0.1229  0.1295
78062W        W21078  21.113  27.765  23.201 -0.2740  0.2074  0.3725
78063W        W21079  29.829  34.611   3.081  0.1449  0.1826 -0.1769
78064W        W21080  30.470  30.996  21.818 -0.0419  0.0236  0.0489
78065W        W21081   7.107  27.836   6.309  0.1312  0.1023 -0.0988
78066W        W21082  27.618  28.060  19.621  0.0330  0.1377  0.0215
78067W        W21083  29.896  21.808   6.105  0.2193  0.1134 -0.0145
78068W        W21084   5.779  28.954  14.866 -0.4954  0.1266 -0.0059
78069W        W21085  28.871  11.050   2.235  0.2748  0.0248 -0.0692
78070W        W21086   7.787  25.855   7.703 -0.0809  0.0587 -0.0130
78071W        W21087  23.358  24.139   1.503 -0.1657 -0.1028 -0.1289
78072W        W21088  14.104  19.211   0.962 -0.0540 -0.1642  0.0838
78073W        W21089   8.150  21.423  26.450  0.1687  0.1741  0.6397
78074W        W21090  29.437   2.243  25.878  0.2697  0.3666  0.0836
78075W        W21091  25.258  31.063  23.327 -0.0817  0.0651  0.1227
78076W        W21092  27.867   7.370   1.106 -0.2296  0.3095 -0.0548
78077W        W21093   8.398  31.265  26.951 -0.2711  0.0264  0.0062
78078W        W21094  29.706  33.187   2.389  0.2742  0.0648 -0.1617
78079W        W21095  34.666  24.794  18.530  0.1331  0.1328 -0.0970
78080W        W21096   8.857  29.795   6.420 -0.2244  0.1034  0.1947
78081W        W21097  25.376  25.564   7.963  0.2892  0.2642 -0.0042
78082W        W21098  17.978  32.665  17.870 -0.2169 -0.0599  0.1629
78083W        W21099  21.429  16.584  13.815  0.2444 -0.0562 -0.0045
78084W        W21100  24.646   4.954  20.630  0.1718  0.1368  0.0244
78085W        W21101  32.244   1.652  23.972 -0.0907  0.1503 -0.1585
78086W        W21102  24.041  31.897   5.773 -0.0930 -0.6052  0.3448
78087W        W21103  26.539  10.008   9.119 -0.1019 -0.0532 -0.1140
78088W        W21104  13.538  29.848  21.244 -0.4173  0.1419 -0.3253
78089W        W21105   7.306  33.881  20.072  0.1433 -0.1770  0.0789
78090W        W21106  22.528  11.345  21.756  0.3919 -0.1357 -0.1575
78091W        W21107  18.820   9.869  25.833  0.0180 -0.0253 -0.0415
78092W        W21108   1.258  22.178  15.039 -0.2062  0.1670  0.1449
78093W        W21109   5.552  21.154   6.465 -0.0483 -0.1764 -0.1008
78094W        W21110  17.571  25.590  16.340 -0.3343  0.0101  0.0622
78095W        W21111  15.809  29.033  24.719 -0.0148  0.3134  0.1807
78096W        W21112  15.502  30.507  20.264  0.1744 -0.0285 -0.1095
78097W        W21113   9.675   1.484  19.846 -0.1818  0.3239  0.1155
78098W        W21114  32.071  11.103  24.331  0.1417 -0.0482 -0.0094
78099W        W21115   7.108  27.156  17.966  0.0373  0.2330 -0.0201
78100W        W21116  18.642   5.249  24.613  0.0434  0.2347 -0.1146
78101W        W21117  13.942  19.913  28.125  0.0763 -0.2432 -0.1624
78102W        W21118  23.258  23.062  15.009 -0.4416  0.0176 -0.0545
78103W        W21119  27.022  27.078  20.067 -0.4740 -0.0641 -0.0998
78104W        W21120   0.718  34.669  24.102  0.5759  0.1299 -0.0470
78105W        W21121   9.309  25.824  18.998 -0.0998  0.1423 -0.0934
78106W        W21122  19.577  24.936   2.724  0.1509  0.2593 -0.2081
78107W        W21123  34.466  32.520  23.267 -0.0346  0.1507  0.0592
78108W        W21124   1.699  29.781  21.226 -0.2235  0.2041 -0.1087
78109W        W21125  13.421  32.577  20.056 -0.1072 -0.3124  0.0083
78110W        W21126  29.429  18.788  22.438 -0.0988  0.0780  0.1065
78111W        W21127  13.504  26.013  21.642  0.2072 -0.0699  0.0667
78112W        W21128   3.299  29.862  19.963 -0.1568 -0.2162  0.1070
78113W        W21129  13.158  11.273  22.171 -0.2222 -0.0543 -0.3572
78114W        W21130   8.062  23.805   0.254  0.1462  0.0211 -0.2078
78115W        W21131   3.519  24.557   0.826  0.0569  0.2423 -0.1756
78116W        W21132  11.448   0.278   0.816  0.1665 -0.0032  0.2258
78117W        W21133  18.108  33.381  20.622  0.2203  0.0019  0.0702
78118W        W21134  21.557  33.601  21.602 -0.2878  0.3092  0.2680
78119W        W21135  21.919  31.318  17.426 -0.1084  0.0276 -0.1224
78120W        W21136  21.106  27.725  22.693 -0.2068  0.1523  0.0637
78121W        W21137  11.704   7.110  22.144 -0.1294  0.1572  0.0129
78122W        W21138   6.270  26.588   8.327 -0.1344  0.1042  0.1793
78123W        W21139  18.137  33.483  19.335  0.0176  0.0344  0.0782
78124W        W21140  19.247  25.099   8.377  0.0114 -0.2170 -0.1884
78125W        W21141  27.491  33.956  19.198  0.0599 -0.1791 -0.2378
78126W        W21142  13.565  22.327  22.104 -0.0557 -0.2147 -0.0275
78127W        W21143  10.668  24.382  16.002  0.0875 -0.4723  0.2229
78128W        W21144  21.044  32.331   1.009 -0.1466  0.0827 -0.2105
78129W        W21145  22.182  14.833  22.948 -0.3788 -0.0795  0.1229
78130W        W21146  23.809  18.711  24.186  0.2117  0.2725  0.0291
78131W        W21147  27.115  28.905  28.396  0.1874 -0.0056  0.0511
78132W        W21148  14.561  27.545   2.040  0.0897  0.1975 -0.0472
78133W        W21149  13.332  21.227   0.071 -0.0542 -0.0452 -0.1188
78134W        W21150  24.588  21.608   5.345 -0.1385  0.1720  0.1107
78135W        W21151  26.450  15.781   5.026 -0.1421  0.0143 -0.0256
78136W        W21152  23.672  21.630  21.458  0.2411 -0.1150 -0.1889
78137W        W21153   3.102  26.128   1.388  0.0697 -0.1706  0.0656
78138W        W21154  34.252  29.612   7.806 -0.0704 -0.4875 -0.3280
78139W        W21155  22.654   3.414  17.102  0.0302  0.1561  0.3294
78140W        W21156  15.333  17.769  22.523 -0.2979  0.2059  0.2116
78141W        W21157  27.122  17.590  23.611  0.1446  0.3197  0.0500
78142W        W21158  14.321   1.673  15.916  0.0010 -0.0415  0.0866
78143W        W21159  10.566  32.029  27.847  0.0172  0.1073  0.1223
78144W        W21160   7.291  15.942  26.953 -0.3579  0.1001 -0.0585
78145W        W21161  17.525  21.957  19.932 -0.1967  0.2571  0.0445
78146W        W21162  19.277  16.673  27.796 -0.3283 -0.0094  0.0276
78147W        W21163  33.065  26.253   3.655 -0.1694 -0.0722 -0.2023
78148W        W21164  10.878  27.906   4.996 -0.0755  0.2958 -0.1100
78149W        W21165  16.422  23.966  23.677 -0.1263 -0.1593  0.6132
78150W        W21166  26.566  28.226  20.750  0.4448  0.3492 -0.1510
78151W        W21167   5.366  22.983  18.196  0.2559 -0.0611 -0.1598
78152W        W21168  22.208  22.312  23.318  0.3868 -0.2186  0.0559
78153W        W21169  13.761  20.151  20.038 -0.0507  0.1374 -0.2519
78154W        W21170  10.700   4.512  28.153 -0.3006  0.1324 -0.0528
78155W        W21171   6.215  30.531  15.333  0.2890  0.0024  0.1522
78156W        W21172  20.712  13.545   3.490  0.0820  0.0528 -0.1602
78157W        W21173  16.983  13.985  22.458 -0.2515 -0.0622 -0.1348
78158W        W21174   0.972  26.277  19.054 -0.1082  0.1381  0.1432
78159W        W21175  13.738  10.075  26.134 -0.0627 -0.0115  0.3232
78160W        W21176   3.536   6.611   3.157  0.1037 -0.0869  0.1750
78161W        W21177  11.028  34.592   4.604 -0.0178  0.1104 -0.0262
78162W        W21178  24.247  23.152   9.257  0.2081 -0.1896  0.1579
78163W        W21179   7.708  29.664  18.616 -0.1421  0.0069 -0.0239
78164W        W21180  22.475  24.427  25.531 -0.1334  0.0123 -0.3065
78165W        W21181  22.344  26.888   0.923  0.1420 -0.3380  0.1061
78166W        W21182   0.950  17.446   2.159  0.0667  0.0105 -0.1633
78167W        W21183  28.580  18.245  20.194 -0.0928 -0.0417 -0.1604
78168W        W21184   4.977   4.289  22.344  0.0360  0.0297  0.1480
78169W        W21185  14.786  31.854   9.821 -0.3717  0.2619  0.2055
78170W        W21186  20.539   1.445  23.024 -0.0323  0.2771  0.2489
78171W        W21187  11.608  12.910  15.717  0.2573 -0.1468  0.0434
78172W        W21188  12.725  20.961  24.955 -0.2946 -0.1901 -0.1231
78173W        W21189  19.829  24.502  26.675  0.0905 -0.2878 -0.0569
78174W        W21190   6.226  26.673   1.337  0.3226 -0.0114  0.2127
78175W        W21191  32.457   5.095   2.398 -0.0551 -0.2510 -0.2593
78176W        W21192  11.453  27.519   9.801 -0.2918  0.2709  0.1810
78177W        W21193  26.863  30.194  23.502 -0.2570 -0.1621 -0.0762
78178W        W21194   8.857  19.935   1.340  0.0778  0.0562 -0.1615
78179W        W21195  34.753  20.525   0.043 -0.2036  0.0627 -0.1061
78180W        W21196  25.893   5.803  17.020  0.1401 -0.1982 -0.0843
78181W        W21197   5.856  17.232  13.663 -0.0016 -0.3691  0.0149
78182W        W21198  15.877  22.753  21.221  0.1489  0.1551 -0.0650
78183W        W21199  15.763  29.119  14.452  0.2395  0.1905 -0.1655
78184W        W21200   5.023  31.268  19.249 -0.1121  0.0664 -0.2061
78185W        W21201   6.800  11.326  14.492  0.1640  0.0616  0.1517
78186W        W21202  11.349  10.708  21.622 -0.3671 -0.1746 -0.2297
78187W        W21203  25.096   3.306  28.957  0.1692 -0.0648  0.0721
78188W        W21204  13.814  24.146  23.517  0.0285 -0.0577  0.2413
78189W        W21205  12.363  27.708  18.502  0.0772 -0.0517 -0.4771
78190W        W21206  16.779  22.218   7.526  0.3012 -0.0401  0.5954
78191W        W21207   1.599  24.694   6.343  0.3252  0.1164 -0.3516
78192W        W21208  12.751  28.930   2.823 -0.1144  0.2786 -0.2827
78193W        W21209  15.739  22.327  13.044 -0.1964  0.0183 -0.1056
78194W        W21210  31.504  13.747  26.201  0.1291 -0.2139 -0.0848
78195W        W21211   5.168  24.971   5.415 -0.1353  0.2116 -0.0756
78196W        W21212  31.230  19.360  27.893 -0.0856  0.5563 -0.0156
78197W        W21213  14.375  33.749  27.178 -0.0018 -0.0637 -0.1228
78198W        W21214  13.894  26.202  15.126 -0.2087 -0.3355  0.1876
78199W        W21215  15.140  24.715  19.965 -0.2865 -0.3228  0.1636
78200W        W21216  18.330  11.437  12.907  0.1437  0.1117  0.1973
78201W        W21217   7.476   0.741  28.663 -0.1070 -0.0240  0.0119
78202W        W21218  34.447   7.974  27.101 -0.1056 -0.0991 -0.2418
78203W        W21219  11.632  19.591  22.788  0.0210  0.3239  0.0036
78204W        W21220  11.348  21.869  25.817 -0.0690  0.3115  0.1381
78205W        W21221   2.186  18.688   6.145 -0.0661  0.2126 -0.0850
78206W        W21222   3.847  26.477   0.871  0.1286  0.0689 -0.1383
78207W        W21223  17.689  34.219   4.460  0.1470 -0.2318 -0.4362
78208W        W21224   3.318   2.410   8.511  0.1722 -0.1619 -0.2339
78209W        W21225   7.747  30.507   5.304 -0.0535  0.1351  0.0094
78210W        W21226  20.214  16.827   1.926 -0.3122 -0.1571  0.0351
78211W        W21227  25.247  18.398   7.038  0.0580 -0.1993 -0.1417
78212W        W21228  31.668  27.639   6.270  0.2101 -0.0421 -0.1049
78213W        W21229  18.468   5.411  20.257 -0.2318  0.0451 -0.0791
78214W        W21230  14.802  30.455  26.804 -0.2260 -0.1319  0.1143
78215W        W21231  14.622  25.770  27.397 -0.1188 -0.2347  0.2700
78216W        W21232  25.163  22.562  20.367 -0.2260 -0.2226  0.2797
78217W        W21233  18.434  27.568   8.139  0.3284  0.1045  0.1474
78218W        W21234  31.661  23.519  27.640 -0.1032 -0.1552  0.1126
78219W        W21235  29.732  34.301  26.056  0.1149  0.0914  0.2083
78220W        W21236  26.067  20.781   6.887 -0.1648 -0.1433  0.2625
78221W        W21237  26.929   7.740   8.353  0.2558  0.1001 -0.2080
78222W        W21238  10.693  28.205   8.656  0.0663 -0.1176  0.1843
78223W        W21239  31.950  32.848  15.810 -0.0055  0.2563  0.0613
78224W        W21240   5.745  20.989   7.775  0.1657  0.1338 -0.1751
78225W        W21241  10.389  22.864   4.747 -0.0532 -0.1169 -0.0438
78226W        W21242  18.819  25.111   8.615  0.2755  0.1539  0.3446
78227W        W21243  14.273  21.147  16.354 -0.0773 -0.0213  0.3489
78228W        W21244  34.486  27.763  17.720 -0.2477 -0.2480 -0.0487
78229W        W21245   2.281  10.317  21.332 -0.0716 -0.1799  0.2405
78230W        W21246  12.740  17.390  14.039  0.1318 -0.3047  0.1774
78231W        W21247  23.357   7.831  24.865 -0.2670 -0.1955  0.0425
78232W        W21248  22.594  30.340   7.729 -0.1995  0.0072 -0.1211
78233W        W21249  21.895   3.695   7.034 -0.0580  0.0961  0.0512
78234W        W21250  22.846   1.114  20.750  0.0489 -0.0501 -0.2865
78235W        W21251  23.555  18.393  18.716 -0.0295 -0.1159 -0.1209
78236W        W21252  13.330  19.227  25.575 -0.1457  0.1752  0.0669
78237W        W21253  20.191  26.543  20.820  0.0218  0.0001 -0.3309
78238W        W21254  15.259  27.608  26.247 -0.0361  0.0617  0.0734
78239W        W21255  22.499  14.394   2.787  0.2758  0.0170 -0.1736
78240W        W21256   3.726  22.559  29.180  0.0256  0.0932 -0.0301
78241W        W21257  14.219   0.722   5.138 -0.0988 -0.0258 -0.1090
78242W        W21258   4.608  15.358  26.931 -0.2969  0.0688 -0.1113
78243W        W21259  17.740   2.912  21.279 -0.0258  0.0044 -0.2265
78244W        W21260  15.242  25.921  17.092 -0.1749  0.1925 -0.3669
78245W        W21261  13.890  30.248  24.755  0.2108 -0.1552  0.2974
78246W        W21262   8.958  18.926   2.254  0.1307  0.1282 -0.0612
78247W        W21263   1.247   0.973  20.006 -0.2182 -0.1585 -0.1095
78248W        W21264  20.702  20.012  14.175 -0.1876  0.0146 -0.1330
78249W        W21265  28.946  10.057   9.478  0.2054  0.0355 -0.0284
78250W        W21266  24.142  28.581   9.991  0.2170  0.4227 -0.1234
78251W        W21267  14.511  25.885  25.281 -0.1218 -0.3833  0.0911
78252W        W21268  13.194  26.020  27.749 -0.0296 -0.0155  0.0699
78253W        W21269  11.134  13.598  20.775  0.1189 -0.3354 -0.0901
78254W        W21270  31.080  13.421  26.389 -0.3253  0.2561 -0.0186
78255W        W21271  12.669  22.382  29.281  0.2520 -0.1970 -0.2019
78256W        W21272  24.677  32.500  28.606  0.1559  0.0574  0.0023
78257W        W21273  21.542  20.018  13.985 -0.2145 -0.3417  0.1218
78258W        W21274  17.551  28.142  15.799 -0.1084  0.0578  0.2454
78259W        W21275   4.617  24.578  21.869 -0.1685 -0.1005 -0.2668
78260W        W21276   8.297  10.428  29.075 -0.0167 -0.0726  0.1598
78261W        W21277  23.778  17.196  18.371 -0.0323 -0.3386 -0.2356
78262W        W21278  20.594  31.770  27.930  0.3529  0.3509  0.3436
78263W        W21279  19.655  30.855  24.747  0.0802  0.0726 -0.3190
78264W        W21280   6.457  31.259  20.170  0.1656 -0.0059 -0.1235
78265W        W21281  14.622  21.620   6.576  0.3243  0.1948 -0.0936
78266W        W21282  26.282  22.899  19.116  0.0493  0.0777  0.0457
78267W        W21283  17.859   8.183  16.857 -0.0477  0.0617  0.1220
78268W        W21284  13.117  27.937   5.765  0.0644 -0.2878  0.1096
78269W        W21285   5.872   1.331   3.998  0.0303 -0.0428 -0.1642
78270W        W21286   4.199  18.702   2.231  0.0970  0.1826 -0.2373
78271W        W21287  32.367  28.034  19.738 -0.2208  0.0455  0.1625
78272W        W21288   4.427  23.790   9.522 -0.1533  0.1967 -0.0867
78273W        W21289  34.475  33.432  28.462  0.1782  0.1449 -0.0850
78274W        W21290  11.834  24.847   6.759 -0.0503  0.0662  0.4958
78275W        W21291   9.124  24.865   9.175 -0.0778  0.0735 -0.0089
78276W        W21292  27.094  34.000  28.083  0.0384 -0.2366 -0.0756
78277W        W21293  18.645   9.452   2.789  0.3067  0.0676 -0.0379
78278W        W21294   0.683  30.676   6.578 -0.1299  0.0586 -0.2768
78279W        W21295   9.070  24.078  29.140 -0.1784 -0.0384  0.2579
78280W        W21296   2.220  21.621  20.849 -0.0067  0.3138  0.0463
78281W        W21297  20.088  20.368   7.647 -0.2216 -0.6000  0.3865
78282W        W21298  19.997  22.174  22.196  0.0225  0.3502  0.3086
78283W        W21299  25.538  33.667  22.259 -0.0072 -0.0909 -0.0768
78284W        W21300  19.215  32.005   0.953  0.1428 -0.3761 -0.0507
78285W        W21301  29.325  18.096  18.600 -0.0993  0.1537  0.0493
78286W        W21302   9.886  27.160  14.845 -0.0407 -0.2009 -0.3970
78287W        W21303  26.869  25.666  19.778 -0.1028 -0.1479 -0.0969
78288W        W21304  16.383   2.207  27.433 -0.3720  0.3064 -0.1085
78289W        W21305  16.885  27.301  20.991 -0.1702  0.1381  0.1605
78290W        W21306  28.748  31.381  22.614 -0.2335  0.0397 -0.2266
78291W        W21307   2.975  31.121  14.459  0.0536  0.0896  0.0651
78292W        W21308  26.908  26.088  20.013 -0.1732 -0.1614  0.0217
78293W        W21309  18.329  27.270   1.672  0.2775  0.0843  0.0653
78294W        W21310  17.687  21.879  23.007 -0.1051 -0.3708 -0.0894
78295W        W21311  11.837  28.527  19.753  0.4786  0.1170  0.1281
78296W        W21312  19.484  19.913  28.354  0.1658  0.1921 -0.1895
78297W        W21313  27.177  21.844   7.289 -0.1257 -0.0118 -0.0517
78298W        W21314  17.988  17.967   0.343  0.1880 -0.2469  0.0958
78299W        W21315  31.898  27.937   8.848 -0.1683  0.1149 -0.3201
78300W        W21316   2.792  24.737  15.855  0.2849  0.1544 -0.1314
78301W        W21317  32.577   7.487  25.935 -0.2915  0.1417 -0.2578
78302W        W21318  21.449   2.896  27.786 -0.2120 -0.0042 -0.0159
78303W        W21319   1.291  20.199   6.285 -0.0632 -0.0070 -0.4143
78304W        W21320  32.483  29.211  20.149 -0.1700  0.2826  0.1478
78305W        W21321  17.789  34.714   3.580 -0.5396  0.1369 -0.2412
78306W        W21322  16.335  26.552   4.130  0.1125 -0.2043 -0.4266
78307W        W21323  22.287  31.313   5.483  0.1140  0.2978  0.0355
78308W        W21324   3.815  27.061  19.333  0.1689  0.3030 -0.1169
78309W        W21325  23.958  11.829  25.432  0.0428  0.0531  0.2002
78310W        W21326  31.218  21.080   2.218  0.2450 -0.0700 -0.2545
78311W        W21327  25.490   0.302   2.578  0.1303  0.0390  0.1919
78312W        W21328  18.098  34.452   3.084  0.0243 -0.0526  0.3070
78313W        W21329   9.738  34.676   0.595  0.2096  0.1815 -0.2472
78314W        W21330   3.958  26.154  19.441  0.0848 -0.0596 -0.0779
78315W        W21331   6.499  30.317   2.988  0.1426  0.0010  0.2045
78316W        W21332  15.631  13.462   8.247 -0.0781  0.1115 -0.1366
78317W        W21333  10.387   5.902  18.771  0.1460 -0.1823 -0.2132
78318W        W21334  13.441  25.763  19.000  0.0919 -0.0368 -0.0226
78319W        W21335  16.761  11.756  20.962  0.0476  0.0086  0.1765
78320W        W21336  15.152  27.107  25.137 -0.1473  0.0312 -0.0150
78321W        W21337  14.968  27.103   8.645  0.1494  0.1234  0.0071
78322W        W21338   7.580  18.503  18.346  0.1124  0.0132 -0.4042
78323W        W21339   2.904  34.213   0.179 -0.1228  0.0233 -0.2495
78324W        W21340  17.661  18.405   1.332 -0.2800  0.2031  0.1109
78325W        W21341  14.851  27.071  14.854  0.0612 -0.3451 -0.1448
78326W        W21342  15.127  32.133   6.254  0.0077  0.0600 -0.1991
78327W        W21343   6.564  28.209   5.297 -0.2016 -0.3249  0.0038
78328W        W21344  25.133  22.641  27.493  0.1676  0.1441 -0.2639
78329W        W21345  14.761  26.865  25.437 -0.5515  0.0064  0.1298
78330W        W21346  21.920  32.443   6.861  0.0894  0.1628 -0.0743
78331W        W21347  19.693  32.843  14.659 -0.0126 -0.1275  0.0542
78332W        W21348   8.854  24.314  20.055 -0.1124 -0.2214  0.0911
78333W        W21349  19.728  26.144   3.384 -0.0551  0.1399  0.1232
78334W        W21350  29.456   3.638   1.275 -0.4050  0.1007 -0.1029
78335W        W21351  10.125  16.083   7.632  0.0090  0.1812  0.0128
78336W        W21352   1.758  23.583  24.826  0.2353  0.0442 -0.1807
78337W        W21353  28.488  21.373   0.610 -0.1566  0.0790 -0.0896
78338W        W21354  13.109  22.453  14.366 -0.0219 -0.3171 -0.0801
78339W        W21355   0.115  23.257   8.281  0.1436  0.0061 -0.2856
78340W        W21356  25.069  28.805  28.716 -0.0722  0.1366 -0.0484
78341W        W21357  19.029  22.474  17.128  0.0365  0.0746 -0.0188
78342W        W21358  30.715  24.276  21.929 -0.0812 -0.0123  0.2183
78343W        W21359  18.107  34.346  26.615 -0.0790 -0.1480 -0.0984
78344W        W21360  17.860  11.462   4.639  0.0741 -0.1828  0.0183
78345W        W21361  21.711  34.713  19.132 -0.1371  0.0818 -0.0848
78346W        W21362   7.400  29.706   8.236  0.0713 -0.1378  0.4166
78347W        W21363  13.499  17.792   1.313  0.0030 -0.0523 -0.1746
78348W        W21364  11.521  22.650  14.430 -0.0268 -0.0048 -0.0123
78349W        W21365  30.648  29.659  22.707 -0.2030  0.0834 -0.1331
78350W        W21366   3.843   0.441   6.280 -0.0797 -0.1948 -0.5430
78351W        W21367  12.226  23.253   8.710  0.0682  0.2114 -0.3303
78352W        W21368  11.929  26.877   4.908  0.0687  0.0509 -0.0910
78353W        W21369   5.657  32.026   0.754 -0.1347  0.3667 -0.0729
78354W        W21370  14.527  23.032  23.717  0.2020 -0.0740  0.2884
78355W        W21371  30.452  18.760  29.300  0.0560  0.1505  0.0769
78356W        W21372   4.176   5.620  25.812  0.1072  0.1373 -0.1817
78357W        W21373   6.788  11.704  20.694  0.0240 -0.3492 -0.1535
78358W        W21374   2.527   7.032   8.515 -0.1412 -0.3931 -0.0887
78359W        W21375   4.818   5.968  17.527 -0.2039 -0.1015  0.2279
78360W        W21376  15.390  30.276  28.342 -0.2137 -0.0425 -0.2516
78361W        W21377   3.300  16.828   3.233 -0.0166 -0.0890  0.3396
78362W        W21378  17.446  15.925  16.257  0.3365 -0.0403  0.2930
78363W        W21379  13.409  10.084  18.121 -0.0738  0.1483  0.0995
78364W        W21380  26.942  20.267  28.212 -0.1274  0.1984 -0.2597
78365W        W21381   1.212   5.807  24.748 -0.0516  0.0063 -0.0737
78366W        W21382  27.121  27.802  19.662 -0.3842  0.0318 -0.2332
78367W        W21383  12.615  23.162   6.301  0.3594  0.1031 -0.0639
78368W        W21384   1.718  30.516  25.405 -0.0224 -0.1724 -0.0716
78369W        W21385   5.137  24.758   4.260 -0.1745 -0.1150 -0.0652
78370W        W21386  15.260  24.521  27.171  0.0480  0.2196 -0.2074
78371W        W21387  31.289  19.683  23.606  0.2202 -0.0702 -0.1264
78372W        W21388  16.284   1.064  15.228 -0.1483  0.1782 -0.1494
78373W        W21389   8.562  18.633   0.036  0.2944  0.0382  0.1907
78374W        W21390   7.958  22.534   2.339 -0.1656  0.0831 -0.2205
78375W        W21391   0.762  18.287  23.515 -0.4470  0.1433  0.1320
78376W        W21392  24.828  30.203   5.495  0.2151 -0.3209  0.3063
78377W        W21393  32.108  27.871   9.338 -0.0215 -0.0162  0.1608
78378W        W21394   6.559  32.729   7.612 -0.0282 -0.1051  0.0432
78379W        W21395   0.046  19.174  28.998  0.1198 -0.0850  0.1517
78380W        W21396  11.824  26.699  17.678  0.2038 -0.2900 -0.0647
78381W        W21397  14.895  20.194  20.549 -0.1220  0.0230 -0.2892
78382W        W21398   7.843  24.235  18.265  0.2597  0.0285 -0.0740
78383W        W21399  20.881   1.909   2.443 -0.1542 -0.1982 -0.0017
78384W        W21400  15.693  17.212   4.338  0.2239 -0.0195 -0.3086
78385W        W21401  17.778  10.138  26.520  0.0845 -0.3837  0.1314
78386W        W21402  17.549  25.448  20.400 -0.0313 -0.5278  0.1398
78387W        W21403  12.441  18.679  28.624 -0.2358 -0.0323 -0.0405
78388W        W21404   5.716  19.621  28.416  0.0223 -0.0164 -0.2020
78389W        W21405  18.810  33.227   4.708  0.3095  0.0180 -0.2013
78390W        W21406  17.187  21.307  15.231  0.0232  0.2129  0.1273
78391W        W21407  16.325  19.102  14.652  0.1705 -0.2490  0.2394
78392W        W21408  10.465  31.184  21.092  0.0267 -0.1965 -0.1300
78393W        W21409  16.105  29.987  20.792 -0.2016  0.0538  0.0468
78394W        W21410  22.934  31.414  25.123  0.0516 -0.3084 -0.0547
78395W        W21411  15.102  26.001  19.511  0.2110  0.1269 -0.2147
78396W        W21412  31.519   7.464   6.840 -0.1290 -0.1156 -0.3198
78397W        W21413  23.561  13.927  24.031 -0.1119  0.2486  0.2941
78398W        W21414  28.880  30.843  28.521  0.3166  0.0153 -0.0943
78399W        W21415   2.468  33.846  10.182 -0.1370  0.0586 -0.0926
78400W        W21416  20.710  27.945  21.371  0.2835  0.1314 -0.0992
78401W        W21417  10.258  29.535  14.241  0.0708 -0.0512 -0.4380
78402W        W21418  12.276  33.703   9.255 -0.1142  0.0512 -0.0341
78403W        W21419  20.080   3.852  20.049 -0.0463 -0.2133 -0.4175
78404W        W21420  18.725  24.164  27.210  0.1238  0.0139 -0.0290
78405W        W21421   9.216  20.246  17.985 -0.2590 -0.0288 -0.1258
78406W        W21422  28.307  14.432  29.306  0.1452  0.0147  0.1629
78407W        W21423   8.975  25.946   2.319  0.2695  0.2712 -0.1609
78408W        W21424  32.313  32.483  27.639  0.0589 -0.0346 -0.1942
78409W        W21425  18.007  20.356  14.072  0.0677 -0.0127  0.0732
78410W        W21426  18.619  25.642  17.588 -0.2924  0.2972 -0.3213
78411W        W21427  18.561   5.529  27.047  0.0200  0.2127  0.2163
78412W        W21428  25.016  29.994   5.071 -0.3568  0.1905 -0.4138
78413W        W21429  24.575   9.291  26.907  0.0047  0.0045  0.0854
78414W        W21430  14.722  23.412  13.659  0.0521 -0.1107 -0.3288
78415W        W21431  24.767  21.275   8.758  0.0466 -0.0125 -0.1867
78416W        W21432   3.355  28.224  27.582  0.0617  0.4771  0.1934
78417W        W21433  21.232  19.592  25.883  0.1349  0.0040 -0.2127
78418W        W21434   8.993   3.202   6.321  0.1068 -0.0994 -0.1597
78419W        W21435  19.168  24.687  28.744 -0.1267  0.0770 -0.0190
78420W        W21436  18.143   3.603  27.129  0.1531 -0.0009 -0.2564
78421W        W21437  27.112  28.149  18.361 -0.1393  0.0818 -0.1113
78422W        W21438   6.842  11.595  10.035 -0.0395  0.1279 -0.2415
78423W        W21439   5.025  25.811  24.924  0.5993 -0.0629  0.0339
78424W        W21440  16.129  18.621   2.532 -0.0772  0.1248  0.1037
78425W        W21441   7.334  23.829   4.741  0.0938 -0.4053 -0.2767
78426W        W21442   9.495  21.595   9.137  0.1630  0.5313 -0.0872
78427W        W21443  15.801   8.223   3.341  0.2640  0.0061  0.1419
78428W        W21444  12.690  17.805   4.630  0.4987  0.1183  0.1517
78429W        W21445  12.986  24.889  25.984  0.1568  0.1572 -0.1770
78430W        W21446  19.899  14.304  23.326 -0.0917 -0.3949 -0.1660
78431W        W21447  11.081  18.860   5.462 -0.1007 -0.2334  0.0070
78432W        W21448  19.018  32.337  29.147  0.0508  0.0723  0.1540
78433W        W21449  22.505  21.330   2.102  0.1089  0.0171 -0.0467
78434W        W21450  19.243  13.769  26.039 -0.0209  0.1301 -0.0126
78435W        W21451   3.905   6.379  25.850 -0.1882 -0.1181 -0.0382
78436W        W21452   8.154  14.355   0.527  0.0428 -0.3131 -0.2151
78437W        W21453   5.880  28.697  16.541 -0.1020  0.0475 -0.0354
78438W        W21454  10.252   3.559   1.300  0.1876 -0.1038 -0.0022
78439W        W21455  24.017  33.417   9.212  0.0246 -0.1185  0.0439
78440W        W21456  32.491  25.669   0.758  0.2018  0.4260 -0.3316
78441W        W21457  25.073  23.895   5.529  0.3189 -0.0651 -0.2649
78442W        W21458   5.140  21.239  25.160 -0.2315 -0.3986 -0.4021
78443W        W21459  12.729  24.287   5.651 -0.2414  0.0186 -0.3869
78444W        W21460  11.497  31.267   0.054 -0.0184  0.0316  0.2210
78445W        W21461  13.352  14.476  15.057  0.3181 -0.1005  0.1184
78446W        W21462  23.849  33.084   1.818 -0.1636  0.1805 -0.0162
78447W        W21463  10.841  32.009  19.957 -0.2543  0.1780 -0.0630
78448W        W21464  21.530   7.183   9.413  0.1916  0.1216 -0.3012
78449W        W21465  11.666  15.430   7.140  0.1745 -0.0216 -0.1237
78450W        W21466  18.782   7.292   9.387 -0.0578 -0.3086 -0.3140
78451W        W21467  16.064  18.062  26.344  0.2642 -0.1538  0.1875
78452W        W21468  18.898  15.136   2.052 -0.1489 -0.1843  0.2837
78453W        W21469  24.909  24.104  27.913 -0.1728 -0.1110 -0.0888
78454W        W21470  11.548  33.941   3.017  0.0602 -0.2644 -0.3887
78455W        W21471  14.355  19.727  26.276  0.1189  0.0884  0.2146
78456W        W21472  22.505  22.105  28.536 -0.0684 -0.0409  0.2881
78457W        W21473  24.181  17.329   2.767  0.0389  0.3656  0.4957
78458W        W21474   9.852  26.467  14.301 -0.3217 -0.1181  0.0930
78459W        W21475   6.846  21.818  23.339  0.0532  0.1239  0.0148
78460W        W21476  23.564  19.882   4.623  0.0306  0.1256 -0.0365
78461W        W21477  32.207  25.498   0.370  0.0514  0.1352  0.1460
78462W        W21478  21.499   4.948  27.295 -0.1799  0.2360  0.1759
78463W        W21479  20.091  27.170   4.568 -0.1129  0.3783 -0.0269
78464W        W21480   7.189  24.348   5.004 -0.4094  0.0598  0.0414
78465W        W21481  22.964  25.248  25.529 -0.2310  0.0110 -0.0396
78466W        W21482  25.029  23.240   6.457  0.1495 -0.1006 -0.1828
78467W        W21483   9.881  26.884   4.813  0.0933 -0.0246 -0.3274
78468W        W21484  13.939  23.631  28.725 -0.0871  0.3258  0.2552
78469W        W21485  13.771  28.300   7.126 -0.0004  0.0348  0.1596
78470W        W21486   9.807  23.454   6.602 -0.0168  0.5270 -0.0309
78471W        W21487   4.683  15.771   3.646  0.0677  0.2019  0.4994
78472W        W21488  12.936  21.669   7.895  0.1481 -0.0795  0.0515
78473W        W21489  16.974  22.581   3.921 -0.0240 -0.1945 -0.0781
78474W        W21490  11.500   9.520  15.567  0.4112  0.3299 -0.3931
78475W        W21491  10.799  21.720   6.007 -0.1499  0.2489  0.2015
78476W        W21492  22.595  16.419  24.063  0.1967  0.0342 -0.1119
78477W        W21493  27.204   4.155  20.350 -0.1053  0.0511  0.1558
78478W        W21494   5.403  28.126  26.540 -0.0358 -0.1043  0.4076
78479W        W21495  22.812   6.644   3.993 -0.1255  0.0591 -0.2639
78480W        W21496  24.534  14.047  26.178  0.1179 -0.0607  0.0367
78481W        W21497  18.444  34.473  19.218  0.2328  0.1443  0.0811
78482W        W21498  19.848  34.609   4.318 -0.0267 -0.1021 -0.0520
78483W        W21499  32.304  10.414  24.506 -0.1212  0.1164  0.0159
78484W        W21500  15.835  12.220  28.616 -0.0486  0.2129  0.1080
78485W        W21501  28.256  22.002  27.673 -0.3040  0.0406  0.1894
78486W        W21502   2.227   4.557  26.483 -0.2340  0.1634 -0.1147
78487W        W21503  27.334  18.357  19.469 -0.0305 -0.1162 -0.1098
78488W        W21504  14.758  25.900   5.340 -0.3178 -0.0233  0.0493
78489W        W21505  15.274  19.612  14.579  0.1327 -0.2396  0.0317
78490W        W21506  12.208  26.021  24.809 -0.0821 -0.1341 -0.1436
78491W        W21507  22.308  13.920   4.747 -0.1955 -0.1133  0.0821
78492W        W21508  15.738  20.627  21.605  0.0248 -0.1153  0.0638
78493W        W21509  20.722  22.154  27.501  0.0183  0.0070  0.4155
78494W        W21510   9.873  12.317  21.195 -0.3166  0.3923  0.1186
78495W        W21511  20.099  21.426  24.990  0.1404 -0.1815 -0.2155
78496W        W21512  30.872  21.955  29.033 -0.0952 -0.3165  0.2386
78497W        W21513  12.533   6.043  21.248  0.0928  0.1956  0.1728
78498W        W21514   5.649  24.297  24.841 -0.0279  0.1679  0.1504
78499W        W21515   2.022  18.737  26.705 -0.1174 -0.2403  0.1003
78500W        W21516  14.120  25.305   3.676 -0.2513  0.0046  0.1918
78501W        W21517   4.780  26.566   1.173  0.3087  0.2177 -0.0158
78502W        W21518  16.127  30.256  15.522  0.0018  0.1010 -0.0891
78503W        W21519   9.588  20.519  26.150  0.1936 -0.0938 -0.0047
78504W        W21520  24.059  30.102  14.118  0.2825 -0.0784 -0.0531
78505W        W21521  17.004  19.477   0.756 -0.3312  0.0539 -0.1239
78506W        W21522  20.242   1.958  25.314 -0.1768  0.1517  0.0551
78507W        W21523   7.504  27.209  26.255 -0.2803 -0.2465  0.1522
78508W        W21524  18.506   1.516   9.825  0.1139  0.1460 -0.3249
78509W        W21525  32.116  30.346  10.617  0.1962 -0.1281 -0.1593
78510W        W21526  25.268  16.245   7.676  0.1471 -0.0978 -0.2142
78511W        W21527  12.031  23.871  15.500  0.0162  0.1594 -0.0690
78512W        W21528   3.957   7.985   7.611  0.0102 -0.2294 -0.1628
78513W        W21529  14.368  24.485   7.204 -0.0828 -0.1059 -0.1543
78514W        W21530  17.245  25.322  18.230  0.2217  0.0290  0.0131
78515W        W21531  19.267   1.948   5.582  0.4188 -0.1281 -0.2011
78516W        W21532  32.132  28.686   7.072  0.1677  0.0985 -0.0033
78517W        W21533  11.852  22.945   8.422 -0.0248  0.2425  0.0797
78518W        W21534  11.966   9.670   0.814  0.1085 -0.0299  0.0467
78519W        W21535  33.548  16.162  10.527 -0.0124 -0.1500 -0.1337
78520W        W21536  25.998  24.853  20.397 -0.2690  0.0208 -0.3074
78521W        W21537   5.007  31.852  20.085 -0.1773 -0.1782 -0.0931
78522W        W21538   7.562  26.500  24.820  0.1227  0.1927  0.1127
78523W        W21539   7.182  23.690  16.836 -0.1220  0.0557 -0.0260
78524W        W21540  12.860  34.469   3.324  0.1577  0.0995 -0.0740
78525W        W21541  31.133  29.579  23.337 -0.1097 -0.0797 -0.4240
78526W        W21542  13.611  22.686  24.068 -0.0326  0.3015  0.4222
78527W        W21543  17.561   7.089  21.842 -0.1546  0.0293  0.1256
78528W        W21544  12.660  21.552  18.777  0.1062 -0.2141  0.1252
78529W        W21545   5.333  21.422  20.204 -0.2276  0.0770 -0.2367
78530W        W21546   1.404  29.973   1.006  0.0810 -0.2245 -0.0709
78531W        W21547  34.671   1.864  27.812  0.2576 -0.1266  0.1563
78532W        W21548  17.440  15.613  21.237 -0.0178 -0.0005 -0.3055
78533W        W21549   6.086  15.056   5.702  0.0847 -0.1799  0.0413
78534W        W21550  20.340  30.661  19.888 -0.2405 -0.0892 -0.1873
78535W        W21551  13.435  29.646   7.524 -0.4001 -0.0203  0.1645
78536W        W21552   9.175  21.713  20.159  0.1452 -0.0035 -0.1140
78537W        W21553   4.283  11.966   1.787 -0.1173  0.3065 -0.0363
78538W        W21554  10.991  11.971  16.251  0.1858  0.3990 -0.1532
78539W        W21555  32.615  19.695  22.083  0.0671  0.1673 -0.0213
78540W        W21556  18.048   8.688   9.153  0.0068  0.0245 -0.3977
78541W        W21557  28.070  22.935  18.361 -0.1371  0.1797  0.0298
78542W        W21558  25.990  28.632   6.273 -0.1904 -0.3417 -0.0345
78543W        W21559   8.498  17.257  17.586  0.2063  0.0255 -0.2397
78544W        W21560  28.320   1.382  26.118 -0.1545 -0.0197 -0.0723
78545W        W21561   2.186  23.072  21.395  0.0557  0.0279  0.0383
78546W        W21562  18.564  19.303  22.071  0.2339 -0.0367 -0.3501
78547W        W21563  18.869   1.178  14.990 -0.0380  0.2427  0.2033
78548W        W21564  16.033   6.264  25.221  0.0754 -0.1300  0.3893
78549W        W21565  17.397  30.652   1.632  0.0647  0.4289  0.2641
78550W        W21566  27.105  29.400   8.760  0.3109  0.1723  0.0757
78551W        W21567  18.107  14.418  23.612  0.4224  0.0812 -0.0942
78552W        W21568  13.935   4.576  14.842  0.0001 -0.3467  0.1471
78553W        W21569  25.543  18.159  27.666 -0.1044  0.1191 -0.1561
78554W        W21570  19.647  17.467  14.276 -0.2026  0.1106  0.0193
78555W        W21571  14.677  22.034   6.254  0.3267  0.2736  0.2367
78556W        W21572  17.940  21.795  25.363 -0.1279 -0.6149 -0.0590
78557W        W21573  22.390   7.916   2.710 -0.2887 -0.0295 -0.3467
78558W        W21574   9.443  33.388  19.617  0.4175  0.0324  0.0720
78559W        W21575  22.268  29.630  26.485  0.1237 -0.0512 -0.1132
78560W        W21576  11.102  30.286  19.558 -0.3441  0.1151  0.2428
78561W        W21577   4.516  30.951  20.391  0.1442  0.1801 -0.3038
78562W        W21578  16.303  33.428  15.447  0.1238 -0.3163  0.0800
78563W        W21579  19.753  31.582  28.620 -0.2222  0.2236  0.1834
78564W        W21580  29.267  31.164   0.616  0.1685 -0.2915  0.0854
78565W        W21581   3.853  14.365  24.341 -0.3507 -0.0963 -0.2306
78566W        W21582  12.028   6.972  16.115  0.1505 -0.2050  0.4250
78567W        W21583  14.103  18.129   6.293  0.0181  0.0698  0.2031
78568W        W21584  18.600   3.046  20.572 -0.1571  0.0249 -0.0146
78569W        W21585  16.569  14.788   4.840 -0.0697 -0.0111  0.0183
78570W        W21586   9.614  34.580   3.068  0.0907  0.1401  0.0575
78571W        W21587  13.465  33.922  17.524  0.2764  0.0681 -0.1425
78572W        W21588  10.881  21.650  13.997 -0.3355 -0.1117 -0.0657
78573W        W21589  19.223  17.914  27.825  0.1236 -0.1833 -0.1212
78574W        W21590  18.564   1.393  22.131  0.3764  0.2999 -0.0671
78575W        W21591   0.261   7.391  20.849 -0.1809 -0.2687  0.1855
78576W        W21592  21.212  19.869  20.810  0.1868 -0.1918  0.3479
78577W        W21593  17.866  18.303   1.876  0.1159 -0.4455  0.3037
78578W        W21594  20.487  27.857  14.010  0.0453  0.1334  0.3594
78579W        W21595  23.840  34.489  23.046 -0.0836  0.0060  0.0785
78580W        W21596  26.260  33.193  17.736 -0.0243 -0.1058 -0.3046
78581W        W21597   8.841  12.975   8.718  0.1587  0.3090 -0.1915
78582W        W21598   9.080  29.973  14.302 -0.2121 -0.1389  0.0805
78583W        W21599   7.318  30.359  25.800 -0.1621  0.0644 -0.1408
78584W        W21600  19.941  33.811  26.428  0.1975  0.1965  0.0439
78585W        W21601  19.655  14.296   8.079 -0.1634 -0.0982  0.1821
78586W        W21602   2.266  16.061  21.042 -0.0403 -0.0647  0.2119
78587W        W21603  24.106  29.074   2.487  0.2069 -0.2012  0.0587
78588W        W21604  10.561   4.396   9.366  0.1413  0.0087 -0.0312
78589W        W21605  23.410  25.766   9.764 -0.2244 -0.6236  0.4105
78590W        W21606  26.756   5.979  18.668 -0.1288  0.2568  0.0533
78591W        W21607  25.219  28.523   1.731 -0.2548  0.1917 -0.2743
78592W        W21608  15.622  10.495  21.765 -0.1810  0.2836  0.1561
78593W        W21609  15.828  30.799  19.660 -0.0601  0.0750 -0.0804
78594W        W21610   1.175  18.415   5.402 -0.1944  0.3185 -0.0580
78595W        W21611   4.989  16.508   2.304 -0.0426 -0.1400  0.1909
78596W        W21612  14.666   3.332   9.357 -0.1707 -0.2133 -0.0313
78597W        W21613  30.215  16.645   9.103 -0.0669 -0.2989 -0.0090
78598W        W21614   4.923  16.304   4.803 -0.0637  0.0495  0.0940
78599W        W21615   3.888  26.647  22.832 -0.1640  0.1694 -0.3237
78600W        W21616   0.681   4.496  28.820  0.1725  0.3013 -0.2414
78601W        W21617  12.299  15.968   4.007  0.3358 -0.2150  0.0273
78602W        W21618   6.238  22.668   5.221 -0.0232  0.0714 -0.1470
78603W        W21619   9.699  13.268  25.569 -0.3026 -0.2949  0.4460
78604W        W21620  13.358  28.549  15.023 -0.3533  0.1171 -0.3050
78605W        W21621  16.198  18.201  25.376 -0.0651  0.1296 -0.1096
78606W        W21622  14.132  34.235  28.412 -0.0149 -0.0427  0.3045
78607W        W21623  11.593  19.964   4.633 -0.2374 -0.0212 -0.1381
78608W        W21624   8.797  29.537   6.033 -0.3519  0.0461 -0.1096
78609W        W21625   2.066  21.944  23.862 -0.0537  0.3233  0.0813
78610W        W21626  17.423  26.820   4.863 -0.0345 -0.3368  0.1119
78611W        W21627  20.101  18.712  14.152 -0.1129  0.2467  0.1046
78612W        W21628  20.432  26.782   4.970 -0.1437  0.0198  0.0634
78613W        W21629  10.429   0.694   2.749 -0.1790  0.0232 -0.0212
78614W        W21630   5.626  20.837   2.795 -0.1646  0.0441 -0.2430
78615W        W21631  14.307  29.896  20.165  0.1357 -0.1557 -0.1809
78616W        W21632  11.938   1.670  27.262 -0.0286  0.0335  0.2056
78617W        W21633  10.596  20.635  24.222 -0.1590  0.0467  0.2001
78618W        W21634  16.530  28.673   7.036  0.0433 -0.2749  0.0514
78619W        W21635  16.869  19.088  19.854  0.1366  0.1273  0.1116
78620W        W21636  12.997  15.133  24.971 -0.0730 -0.3185  0.1016
78621W        W21637  21.496  28.203   8.259  0.1007 -0.1501  0.0712
78622W        W21638   4.239  31.850   8.546 -0.0118 -0.2017 -0.0522
78623W        W21639  20.632  15.218  22.108  0.0550 -0.1826  0.1693
78624W        W21640  19.312  22.316  22.962  0.1228  0.0265  0.1732
78625W        W21641  17.066  18.500   0.570  0.1573  0.2217 -0.2110
78626W        W21642  14.338   0.518   3.416  0.1770  0.4030 -0.2824
78627W        W21643   6.391   2.124  27.957 -0.2020  0.1326 -0.0928
78628W        W21644  20.683  17.376   1.310 -0.0437  0.0976  0.0592
78629W        W21645  17.370  26.393   6.554 -0.2908 -0.0114  0.1738
78630W        W21646  11.880  26.160  25.672  0.0371  0.1299  0.1080
78631W        W21647   8.770  29.723  22.371 -0.1756  0.1315  0.1228
78632W        W21648  13.934  13.013  13.390 -0.0047 -0.0628  0.3662
78633W        W21649   8.429  20.528   5.099  0.0027  0.0332  0.1883
78634W        W21650  14.821  34.163  14.667 -0.2354  0.0053 -0.1832
78635W        W21651  23.947  25.002   8.923 -0.0083  0.0519  0.4238
78636W        W21652  25.315  14.708  24.961 -0.3571  0.0487 -0.0194
78637W        W21653   1.196  25.336   9.648 -0.1700  0.0881 -0.2653
78638W        W21654  19.251  15.652   0.368  0.2825 -0.0332 -0.1674
78639W        W21655  14.592  31.887   6.841 -0.1409 -0.1965 -0.0966
78640W        W21656  20.695  22.316   6.580  0.1428  0.3400 -0.3103
78641W        W21657  13.091   7.885  28.675  0.5322  0.1744 -0.3277
78642W        W21658   6.059  33.661  28.258  0.0121 -0.2614  0.0378
78643W        W21659   0.553  19.177   5.041  0.2466  0.1570 -0.0665
78644W        W21660  18.087  20.104   5.512 -0.1798  0.0263 -0.0713
78645W        W21661  26.598  25.406   6.842 -0.0510 -0.0360  0.0904
78646W        W21662  33.658   4.635   8.215  0.0651 -0.1177  0.1506
78647W        W21663   8.531   2.316   5.449 -0.2794  0.0720  0.1555
78648W        W21664  15.893   2.681  29.209  0.2251  0.0655  0.2369
78649W        W21665  16.178  32.547  23.140 -0.1388  0.1352 -0.1291
78650W        W21666  12.958   9.272  17.316  0.3731 -0.2677 -0.0853
78651W        W21667   7.912  13.416  28.202  0.0258  0.3274  0.1230
78652W        W21668  18.040  10.709   6.446 -0.1909 -0.1032  0.0270
78653W        W21669  22.542   0.785  19.795  0.3268  0.1871 -0.1264
78654W        W21670  12.207  21.232   2.150  0.1391 -0.2220 -0.0255
78655W        W21671  11.069  28.678  16.124 -0.0409 -0.0733  0.3155
78656W        W21672  15.338  10.537  24.041  0.0020  0.0769  0.0754
78657W        W21673  13.458  26.840   1.008  0.1167 -0.0096 -0.0276
78658W        W21674  24.297   2.772  22.014  0.0099  0.2424  0.1994
78659W        W21675  18.820  12.947  24.715  0.0739  0.0440 -0.0929
78660W        W21676  13.201  21.597  26.622 -0.0670  0.0440  0.2742
78661W        W21677  25.563   0.244   9.429  0.0876 -0.0204 -0.1950
78662W        W21678  12.073  30.021  21.314 -0.0880  0.2284 -0.1490
78663W        W21679  18.611  32.088  17.246  0.0564  0.1948  0.2177
78664W        W21680  31.037  12.032   4.486  0.1740  0.0436  0.2220
78665W        W21681  13.597  17.474  26.753 -0.0811 -0.0798 -0.2278
78666W        W21682  19.642  16.733  28.581 -0.1886 -0.2467 -0.1787
78667W        W21683  18.593  23.696  24.209 -0.2478  0.1366  0.0995
78668W        W21684  17.748   3.644  23.642  0.3252 -0.2351  0.0262
78669W        W21685  20.119  32.243   0.816 -0.0770  0.0444 -0.0678
78670W        W21686  12.357   6.872  29.187  0.1110  0.0481  0.0222
78671W        W21687  12.342   2.638  29.032 -0.2338 -0.1131  0.2259
78672W        W21688  12.931   1.662  18.266  0.0926  0.2468 -0.1490
78673W        W21689   3.659  31.533  15.158  0.1776  0.1661  0.0628
78674W        W21690  13.887  34.490  14.573 -0.2891  0.0601  0.2591
78675W        W21691   9.955  23.096  16.337 -0.1125  0.0288  0.1584
78676W        W21692  16.222   1.546  20.535 -0.0066  0.1024  0.0149
78677W        W21693   2.130  28.355  26.243 -0.3444 -0.2129 -0.0147
78678W        W21694  27.154  27.004  21.186  0.2770  0.0885  0.1414
78679W        W21695  25.467  26.114  20.443 -0.2115  0.4354 -0.2663
78680W        W21696  31.236   8.636  18.548  0.0189 -0.1203  0.0995
78681W        W21697  31.173  32.882  22.548  0.1049  0.0725 -0.0134
78682W        W21698   4.804  28.130  20.867  0.0741 -0.2205 -0.1870
78683W        W21699   0.862  14.196  17.893 -0.0696 -0.1949  0.1448
78684W        W21700  13.830  30.113  24.306  0.2109 -0.2663  0.1652
78685W        W21701   3.977  19.567  17.765  0.2602 -0.1684 -0.2361
78686W        W21702  24.180  29.637  27.117 -0.0642 -0.2969 -0.1861
78687W        W21703  21.624  25.083  21.680 -0.3516  0.0323 -0.2419
78688W        W21704  21.007   2.436  21.751  0.0016 -0.1201 -0.0107
78689W        W21705  12.647  21.608  26.446 -0.0550  0.0444 -0.2240
78690W        W21706  11.333   0.974   3.929 -0.0865  0.1702 -0.4317
78691W        W21707  15.141  27.493  17.242 -0.3950  0.2035  0.1416
78692W        W21708  12.477  28.606  14.814  0.1445 -0.1785  0.3242
78693W        W21709  34.561   2.906  14.350 -0.3981  0.1236  0.3030
78694W        W21710   0.419   0.989  18.333 -0.1714 -0.2512 -0.0592
78695W        W21711  19.662  18.535  13.973  0.0038  0.1187  0.0621
78696W        W21712  20.053  31.614  26.804  0.0600 -0.0662 -0.1152
78697W        W21713  13.554  29.925  16.947 -0.0362  0.0813  0.1606
78698W        W21714  32.147  27.189  17.668 -0.2249  0.1077  0.1256
78699W        W21715  16.631  21.925  13.376 -0.0549 -0.1959  0.0430
78700W        W21716  19.803  24.506  23.076  0.1874  0.1639  0.0852
78701W        W21717   6.801  27.380  16.073 -0.0792  0.0173  0.1815
78702W        W21718  19.233  26.312  20.703 -0.4637  0.1356  0.4516
78703W        W21719  22.215   0.244  20.408 -0.2229  0.1135 -0.0791
78704W        W21720  20.568  26.907  17.338  0.2109 -0.1690  0.0692
78705W        W21721  20.577   3.804  17.211 -0.0331  0.2983  0.2458
78706W        W21722  21.513   4.330  21.601  0.1687  0.3906 -0.1518
78707W        W21723  21.240   0.357   3.232 -0.0772 -0.0577 -0.1104
78708W        W21724  21.594  25.619  28.715  0.0870 -0.1379 -0.0404
78709W        W21725  21.287  31.651  26.386 -0.2994  0.4787  0.1612
78710W        W21726  11.472   3.989  19.856 -0.2134 -0.1478  0.3632
78711W        W21727   5.491  29.120  26.476 -0.2333  0.2234 -0.1277
78712W        W21728  18.712  33.139  22.015 -0.1997  0.1929 -0.2697
78713W        W21729  20.822  23.147  19.562  0.3417  0.1946 -0.0378
78714W        W21730  12.449  32.911  27.752  0.1677  0.1631 -0.1003
78715W        W21731  28.109  30.559  21.753  0.0966  0.1766  0.1771
78716W        W21732  14.095  23.619  25.709 -0.1182 -0.1172 -0.1239
78717W        W21733  21.368  22.196  19.898 -0.3679 -0.1762 -0.1023
78718W        W21734  13.083  30.291  20.050  0.0010  0.2307  0.4910
78719W        W21735   1.614  16.736  24.732 -0.3927  0.0871  0.4501
78720W        W21736  15.949  15.562  13.096 -0.1962  0.3191 -0.1080
78721W        W21737  18.062  31.964   1.373 -0.0684  0.1617  0.1428
78722W        W21738  19.933  27.122  17.977 -0.2903 -0.0557  0.0512
78723W        W21739  28.496  26.788  17.691  0.0333  0.0530 -0.0112
78724W        W21740  33.529  22.538   7.156 -0.2763  0.3040  0.0667
78725W        W21741  12.857  26.407  19.192 -0.1189  0.2074  0.0961
78726W        W21742   8.318  26.782  14.350 -0.3164 -0.2133  0.0313
78727W        W21743  17.546  27.222  17.992 -0.2670 -0.2958  0.0957
78728W        W21744  13.797  18.688  14.908  0.0347  0.0962  0.1206
78729W        W21745  24.644   0.243  20.286  0.1113 -0.1801 -0.0129
78730W        W21746  31.508   1.772  17.374 -0.1081 -0.0925 -0.0438
78731W        W21747  13.628  21.416  13.003  0.0389 -0.1596 -0.0839
78732W        W21748  28.139   2.311   4.110  0.1329  0.4233  0.2037
78733W        W21749  31.470  32.798  22.972 -0.0455 -0.2614 -0.0270
78734W        W21750   2.149  21.440  16.785 -0.2073 -0.0980  0.2089
78735W        W21751  22.585  32.790  17.096 -0.0320  0.0519  0.1546
78736W        W21752  22.528  20.557  20.865 -0.0314 -0.1406  0.0320
78737W        W21753  16.442  24.442  14.101 -0.1608  0.5367  0.0375
78738W        W21754  26.421  14.839  17.338 -0.1060  0.1635  0.1282
78739W        W21755  28.137  30.972   5.491 -0.0326  0.1520 -0.2471
78740W        W21756   4.628   3.162  23.098  0.0507  0.1108 -0.1924
78741W        W21757   3.148  21.140  20.951 -0.1036  0.0792  0.1089
78742W        W21758  26.363  33.274  24.943 -0.3416 -0.1988 -0.0017
78743W        W21759  11.357   1.907  21.935  0.2661  0.0057  0.2240
78744W        W21760   1.264   2.712  19.298 -0.1011  0.0048 -0.0642
78745W        W21761  22.666  30.417   0.723 -0.1955 -0.2495 -0.1158
78746W        W21762  11.648  27.764   1.609 -0.0544  0.1662 -0.1684
78747W        W21763  15.587  27.166  18.948 -0.0140  0.2291  0.0916
78748W        W21764   8.537  28.296   4.386 -0.0963  0.0814  0.0756
78749W        W21765  19.615  32.082  26.052  0.1863  0.1276  0.1711
78750W        W21766  17.764  12.404  25.014 -0.1036  0.0300 -0.2619
78751W        W21767  12.072  22.694  25.168  0.1413  0.1456  0.1222
78752W        W21768   7.237  33.043  17.347  0.1905  0.2798 -0.0249
78753W        W21769  19.690   2.477  14.850  0.0114 -0.1571 -0.3262
78754W        W21770  12.727  23.718  21.306 -0.1141  0.0744  0.2386
78755W        W21771   8.181   2.934  23.703  0.1976  0.0632 -0.0940
78756W        W21772  14.705  25.176   7.317  0.1532  0.0535  0.2937
78757W        W21773  32.527   1.025  17.533 -0.0732  0.2705  0.1911
78758W        W21774  19.629  24.966  28.078 -0.2736 -0.1895 -0.1029
78759W        W21775  17.732  18.165  14.464 -0.1374  0.1087  0.1335
78760W        W21776  21.612  25.119  27.367  0.0613 -0.1588 -0.1209
78761W        W21777  12.998  25.264  21.285 -0.1253  0.3124 -0.1697
78762W        W21778  11.860   5.091  18.926 -0.1841  0.4257 -0.0051
78763W        W21779   4.152  28.683  17.055  0.1480 -0.2497  0.1835
78764W        W21780  10.579  25.701  15.707 -0.0683 -0.2778  0.0534
78765W        W21781  24.092  16.484  15.348 -0.0955  0.1247  0.0705
78766W        W21782   1.450   8.535   0.580  0.0842  0.2854  0.2954
78767W        W21783   3.519  22.728  16.331  0.3284 -0.0199  0.0481
78768W        W21784   8.890  28.943  18.886 -0.3126  0.2609  0.2881
78769W        W21785  13.813  27.391  14.250 -0.3329  0.0291  0.0059
78770W        W21786  23.585  13.422  14.474 -0.3074  0.2158 -0.4742
78771W        W21787   8.712  27.008  25.619 -0.0427  0.1702 -0.2047
78772W        W21788  16.598   3.109  17.885  0.0009 -0.2680  0.1141
78773W        W21789   6.119  23.572  24.523 -0.1165 -0.1091  0.0456
78774W        W21790  22.972  33.289  15.594 -0.1171  0.0032 -0.1190
78775W        W21791  19.435   0.539  15.127 -0.1248 -0.0237  0.0555
78776W        W21792  32.844  26.815  23.762 -0.0277 -0.0080 -0.0188
78777W        W21793  27.627  26.132  18.811  0.2364  0.1805  0.1874
78778W        W21794  11.603   1.831  19.662  0.0342  0.3433 -0.2577
78779W        W21795  11.158  34.114  14.723  0.2569 -0.0722  0.0518
78780W        W21796  17.187   3.472  16.999 -0.3602  0.3092 -0.1982
78781W        W21797   7.190  14.673  17.631 -0.0158 -0.0897  0.2868
78782W        W21798   8.608  28.464  19.017  0.1011 -0.1728  0.0421
78783W        W21799   4.864  29.627  20.572  0.0404  0.0201  0.4667
78784W        W21800  21.196  19.912  25.364 -0.2588 -0.3416 -0.2279
78785W        W21801   5.326  13.548  22.913  0.2263  0.1448  0.0058
78786W        W21802  28.411  22.935  23.490 -0.0305 -0.1466  0.0841
78787W        W21803  22.804  19.976  25.864  0.2163 -0.1198 -0.0414
78788W        W21804  14.909  32.261  24.531  0.3547 -0.2793  0.3927
78789W        W21805  19.100  16.821  13.892  0.0701 -0.2360  0.3347
78790W        W21806  10.221  33.337  26.688 -0.3053 -0.1051  0.1960
78791W        W21807  26.056   9.272  16.530 -0.2384 -0.0408  0.0610
78792W        W21808  14.567  19.101  28.993  0.0051 -0.2907  0.2621
78793W        W21809  20.561  28.172  15.598 -0.1520 -0.2097  0.0201
78794W        W21810  11.386  30.941  27.400 -0.1700  0.0650 -0.0479
78795W        W21811  22.664  22.863  15.902  0.1494  0.1982  0.5066
78796W        W21812  14.629  31.639  19.138 -0.2930 -0.0729 -0.2640
78797W        W21813   3.640  32.699  14.396 -0.1639 -0.0196 -0.1352
78798W        W21814  23.843  21.593  18.564 -0.0046  0.1042 -0.1188
78799W        W21815  22.479  31.216  19.119 -0.2419 -0.3320  0.2869
78800W        W21816  21.012   5.971  15.649 -0.1712  0.1257 -0.0593
78801W        W21817   5.053  25.036  16.657  0.0307  0.2432  0.2094
78802W        W21818  18.120  30.530  19.248 -0.1263  0.2045  0.0110
78803W        W21819   6.497   4.840  15.671 -0.1685 -0.2263 -0.1094
78804W        W21820  11.111   9.845  17.100  0.2288 -0.1845  0.2511
78805W        W21821  22.523  27.704  14.610 -0.1859 -0.0195 -0.0842
78806W        W21822  18.419  29.131  21.063 -0.1424 -0.0894  0.2094
78807W        W21823  32.334   2.127  22.851  0.3254 -0.2017 -0.1280
78808W        W21824  32.169  18.546  15.592 -0.0376 -0.0616  0.1205
78809W        W21825  16.347   0.361  19.716  0.0228  0.2752 -0.2326
78810W        W21826  18.097   8.198  24.103 -0.0471 -0.1276  0.3755
78811W        W21827  26.442   0.441  28.797 -0.1213 -0.0432 -0.0151
78812W        W21828   4.353  30.295   1.982  0.1911 -0.2371  0.1290
78813W        W21829   5.878  29.868  16.247 -0.2040 -0.0418 -0.0887
78814W        W21830  20.996  30.358  15.582  0.3685 -0.1366 -0.2187
78815W        W21831  15.442  28.762  17.537 -0.2848  0.0458 -0.0812
78816W        W21832  19.076  29.153  21.975  0.0238 -0.0373  0.0998
78817W        W21833   5.169   9.341  28.619  0.3391  0.1350  0.1446
78818W        W21834  11.378  17.050  15.523  0.1904 -0.2931 -0.3294
78819W        W21835  26.024  10.886  15.773  0.1368  0.3098  0.0283
78820W        W21836  31.149  33.692  20.979 -0.1018 -0.0872 -0.6679
78821W        W21837  20.525  17.899  25.537 -0.0604 -0.0330  0.2594
78822W        W21838  28.785  27.337  19.595  0.1759  0.0441  0.3077
78823W        W21839  11.787  21.965  16.723 -0.0393 -0.0596  0.3203
78824W        W21840   9.529  19.963  13.786  0.2734 -0.0982 -0.1991
78825W        W21841  10.112  27.037   3.002 -0.0112  0.1903 -0.1739
78826W        W21842  25.438  26.876  11.634  0.0743 -0.1158 -0.0549
78827W        W21843   7.846   0.071  16.331 -0.0134 -0.0146  0.0839
78828W        W21844  29.900   2.130  27.024 -0.0407 -0.0416  0.3540
78829W        W21845  19.157  31.278  29.089 -0.3441 -0.2366 -0.1303
78830W        W21846   8.711  12.463  17.309  0.1510  0.0359  0.2333
78831W        W21847   6.464  15.571  19.840 -0.1793  0.2271  0.1345
78832W        W21848  16.662  24.013  12.998  0.5036 -0.2586  0.0175
78833W        W21849   8.982  11.761  24.916  0.1905 -0.0287  0.1185
78834W        W21850  26.040  18.939  19.097 -0.0798 -0.0413 -0.0983
78835W        W21851  22.840  32.083  23.867  0.3410  0.0723 -0.1520
78836W        W21852  24.857  24.427   2.716 -0.0875  0.0221  0.0580
78837W        W21853  13.126  31.773   0.186  0.0999 -0.1941 -0.1098
78838W        W21854  30.025  23.514  27.640  0.2262  0.0536 -0.0791
78839W        W21855  12.909   2.086  20.170 -0.2527 -0.1201  0.1287
78840W        W21856   2.302  15.864  25.585 -0.3437 -0.0086  0.0466
78841W        W21857  26.799   0.299  24.027 -0.1414 -0.2352  0.1064
78842W        W21858  25.286  11.347  23.205  0.2240  0.5932 -0.0813
78843W        W21859  23.123  29.384   0.630  0.2261  0.1275  0.0252
78844W        W21860  22.399  28.413  29.023  0.1788 -0.0282 -0.0070
78845W        W21861  16.700  23.142  15.348 -0.1511 -0.2083  0.0951
78846W        W21862   0.696  31.286  18.285  0.0100  0.0352 -0.4108
78847W        W21863   2.816   0.896  21.238  0.1056  0.2941  0.0936
78848W        W21864  14.376  28.382  15.619  0.0466  0.1991 -0.1872
78849W        W21865   5.639  29.905   4.857 -0.0075  0.2660  0.0100
78850W        W21866  21.717   4.719  20.664  0.0715 -0.2321 -0.0962
78851W        W21867   7.104  25.155  23.001 -0.2005  0.0132  0.0816
78852W        W21868  27.150   2.345  25.617  0.2757  0.1083 -0.0107
78853W        W21869  20.920  11.179  14.018  0.0141  0.1859 -0.1264
78854W        W21870  26.484  17.591  22.047 -0.3343 -0.1174 -0.1343
78855W        W21871   9.385  32.744  21.536  0.0612 -0.3519 -0.1422
78856W        W21872  30.932  21.894  21.463 -0.1470 -0.0296 -0.3819
78857W        W21873  28.398  24.498  17.374 -0.0802  0.3831 -0.0280
78858W        W21874  13.171  28.757  16.632  0.3059 -0.0073 -0.2568
78859W        W21875  18.909  25.568  14.154 -0.1740  0.3179  0.1092
78860W        W21876  24.476  20.857  27.886  0.4054 -0.0887  0.1464
78861W        W21877  20.416  25.799  21.399  0.0036 -0.1583 -0.0151
78862W        W21878  23.103   5.138  22.253  0.0908  0.0600  0.3634
78863W        W21879  14.081  25.634  13.888 -0.1193  0.1280  0.0988
78864W        W21880  13.793   3.792  16.067  0.1264 -0.1493  0.1318
78865W        W21881  23.546  26.378  19.168 -0.1127 -0.1242  0.1772
78866W        W21882  18.999   1.663  13.893  0.0924 -0.1884  0.1954
78867W        W21883  18.684   0.532  16.803 -0.1953 -0.1535  0.1952
78868W        W21884   8.628  20.282  20.137 -0.0893 -0.1387 -0.0648
78869W        W21885  23.014  30.024  17.989 -0.0474 -0.1310 -0.4071
78870W        W21886  25.372  25.051  18.322 -0.0438 -0.1830  0.0066
78871W        W21887  28.939   5.186  17.054  0.1754  0.0505 -0.1659
78872W        W21888  17.777  27.314   1.905 -0.0934  0.2326 -0.0978
78873W        W21889  17.766  27.549  21.534 -0.0622  0.2560  0.2600
78874W        W21890   9.371  19.412  22.177 -0.3599  0.0255 -0.1136
78875W        W21891   1.258  28.856  27.155 -0.0395  0.1531  0.1527
78876W        W21892  13.966  30.729   0.163  0.2052  0.1631 -0.0187
78877W        W21893  23.611  10.594  26.249  0.1751  0.0847  0.2533
78878W        W21894  19.468  31.575  25.660  0.1876 -0.2504  0.2163
78879W        W21895  19.299   5.789  27.556 -0.0538 -0.3026  0.0997
78880W        W21896  21.161  28.968  24.066  0.3624 -0.1864  0.1242
78881W        W21897  31.368   0.173  19.143 -0.4830 -0.0348  0.2899
78882W        W21898  16.127  24.069  16.502  0.1400 -0.0515  0.4219
78883W        W21899  16.230  23.799  13.103  0.0298 -0.1562  0.2414
78884W        W21900  21.892  26.164   9.511 -0.1594 -0.0374 -0.1224
78885W        W21901  19.300  29.194  23.861  0.1493 -0.0394 -0.2450
78886W        W21902  24.083  26.053  21.023 -0.3633  0.0829  0.1664
78887W        W21903  26.010  30.577  23.348  0.1415 -0.0765  0.2716
78888W        W21904  10.567  11.645  15.615  0.2736  0.0811 -0.0556
78889W        W21905  15.227  17.239  12.816  0.2141  0.3387  0.2357
78890W        W21906  22.713  29.313  18.560 -0.0529  0.1572 -0.0135
78891W        W21907  17.175  33.598  26.447 -0.5250  0.0684  0.2756
78892W        W21908  18.807  17.199  15.435  0.3898  0.1639 -0.0446
78893W        W21909   7.368  26.297  24.094  0.3002 -0.1925 -0.2614
78894W        W21910  10.201  26.340  13.371  0.0533  0.1279 -0.1728
78895W        W21911   7.566  22.655  16.283 -0.0732 -0.0144 -0.1191
78896W        W21912  26.167  30.006  18.480  0.0464  0.3737 -0.0288
78897W        W21913  33.551  26.519  17.811 -0.0104 -0.5119 -0.0859
78898W        W21914  23.551  16.396  22.027 -0.2694  0.1458  0.2542
78899W        W21915  16.099  21.389  20.243 -0.2222  0.0777 -0.5223
78900W        W21916   8.082  30.097  16.377 -0.3600 -0.0085  0.1721
78901W        W21917  23.784  32.040  16.993 -0.0175 -0.1570  0.1187
78902W        W21918  11.292  25.930  14.261 -0.3864  0.3780  0.2130
78903W        W21919  18.011  32.603  23.139 -0.2017 -0.3775 -0.0717
78904W        W21920   9.630   1.380  15.374 -0.0012 -0.3922  0.0710
78905W        W21921  15.546  34.301   4.392 -0.0221 -0.2918  0.1928
78906W        W21922  18.643  29.433  17.460 -0.0692 -0.3212  0.0109
78907W        W21923  10.897   4.639  20.822 -0.3949  0.0711  0.2129
78908W        W21924  11.949  15.311  14.157  0.1331 -0.1761 -0.0215
78909W        W21925  20.305  30.403  22.059  0.2067 -0.3549 -0.1338
78910W        W21926  12.880  22.906  13.546  0.2931  0.0157  0.0135
78911W        W21927  13.212  27.904  14.171 -0.1935 -0.0035 -0.0963
78912W        W21928  24.250  27.839  19.680 -0.3300  0.2824  0.1263
78913W        W21929   9.313  26.029  20.238 -0.1178  0.0246  0.1177
78914W        W21930  18.820  18.013  26.363  0.1202 -0.0357 -0.0120
78915W        W21931   7.112  17.090   2.438 -0.1166  0.3134  0.1211
78916W        W21932  23.438  12.694  18.218  0.2829 -0.2840 -0.2766
78917W        W21933   6.787  28.224  23.468 -0.0910 -0.0873 -0.1714
78918W        W21934  25.809  24.479  25.631 -0.1562 -0.0428 -0.0221
78919W        W21935  11.021  27.032  18.254  0.1400  0.0019  0.0400
78920W        W21936  29.047  23.939  23.048  0.0377 -0.0542 -0.2316
78921W        W21937  21.133  20.366  13.004  0.0509 -0.0517 -0.0967
78922W        W21938  26.060  27.011  21.669  0.0880 -0.2097  0.2359
78923W        W21939  18.344  24.469  16.105  0.4955 -0.1834 -0.1875
78924W        W21940   5.723  27.837  26.880 -0.0425  0.0552  0.3848
78925W        W21941  25.414  33.514  26.942 -0.0123 -0.2571 -0.0220
78926W        W21942  30.023  19.613  20.903 -0.1246  0.1959 -0.0053
78927W        W21943  16.117  19.325  14.048 -0.1771 -0.1441  0.0848
78928W        W21944   8.259   3.690  26.864 -0.0271  0.0641  0.4338
78929W        W21945  11.684  14.627  24.790 -0.0395 -0.1391 -0.0668
78930W        W21946  24.887  13.757  24.387  0.0684  0.0480 -0.0639
78931W        W21947   4.388  23.190  18.152 -0.1385 -0.0264 -0.2287
78932W        W21948  34.057  19.636  29.257 -0.1838 -0.0694 -0.1100
78933W        W21949  31.437   3.710  29.303  0.0449  0.1401 -0.1215
78934W        W21950  14.121  32.769  24.752 -0.0719  0.1204 -0.0895
78935W        W21951  19.309  15.205  12.933  0.3087 -0.1344  0.1301
78936W        W21952   9.677  26.120  16.964 -0.0649  0.1708 -0.1157
78937W        W21953  13.273  28.396  25.111  0.2307  0.0037 -0.1555
78938W        W21954  33.791  17.225  15.993  0.1679  0.0857  0.0356
78939W        W21955   7.584  27.221  13.282  0.0622 -0.0728 -0.2292
78940W        W21956  16.486  23.770  16.123  0.2064 -0.1858  0.1266
78941W        W21957   7.955  23.088  25.241  0.0840 -0.1131 -0.1654
78942W        W21958  17.407  26.942  26.068  0.4565 -0.2192 -0.1642
78943W        W21959  18.144   6.125  27.131 -0.1100  0.0919  0.1718
78944W        W21960  21.242  16.220  14.652  0.0144 -0.0255 -0.0794
78945W        W21961  27.404  19.896  24.381 -0.2930 -0.1476  0.1460
78946W        W21962  12.534  22.353  25.805 -0.1985 -0.1852 -0.0087
78947W        W21963  28.737   0.490  19.294  0.3776  0.3015  0.0127
78948W        W21964  24.721  30.851  27.786  0.1232 -0.1190  0.3061
78949W        W21965  23.686  21.049  16.055  0.2168 -0.0571 -0.2134
78950W        W21966  19.487  32.172  19.055  0.1364  0.0446 -0.0161
78951W        W21967  29.951  18.265  20.145  0.1724  0.0758 -0.1248
78952W        W21968  12.646  30.435  14.873 -0.2794 -0.1211  0.1635
78953W        W21969  32.387  20.246  16.110  0.1285  0.0822 -0.0531
78954W        W21970  12.416  10.304  18.216  0.0883 -0.0581 -0.1620
78955W        W21971  22.286  24.930  16.231 -0.2306 -0.0942  0.1210
78956W        W21972  26.161   5.023  17.064 -0.1438 -0.0869  0.1546
78957W        W21973  17.208  23.587  20.697  0.5042  0.2209  0.2012
78958W        W21974  32.118  33.836  19.592 -0.1262  0.0987 -0.1642
78959W        W21975  17.316   1.411  23.318 -0.0301 -0.2924 -0.1487
78960W        W21976  20.008  10.864  13.908  0.1493 -0.0441  0.2794
78961W        W21977  18.252   5.733  15.808 -0.0681 -0.0778 -0.0529
78962W        W21978  32.619  32.812  19.554 -0.1089  0.1747  0.1342
78963W        W21979  22.249  31.301   1.505 -0.2025  0.0515  0.2917
78964W        W21980  16.728   1.171  21.580  0.0944 -0.1192  0.0219
78965W        W21981  28.395  20.134  22.898 -0.0047 -0.0328 -0.1209
78966W        W21982  31.578  29.258  20.029 -0.0044  0.3455 -0.1275
78967W        W21983  13.990  19.942  14.094  0.1154  0.3665  0.1376
78968W        W21984  25.054  28.402  17.348  0.0078  0.0287  0.1620
78969W        W21985  18.194  23.630  23.606  0.0610 -0.3504  0.0382
78970W        W21986  16.379   5.212  24.025 -0.0960 -0.1160 -0.2631
78971W        W21987  15.118   4.491  27.490 -0.2780  0.0197  0.0705
78972W        W21988  31.284  19.506  21.715 -0.1029 -0.1395  0.0239
78973W        W21989   8.175  14.994  22.372  0.0525 -0.1739  0.0834
78974W        W21990  21.580  16.644  25.258 -0.1002  0.1077  0.1612
78975W        W21991  12.758  26.668  14.392 -0.0420  0.1158  0.1951
78976W        W21992  32.755  24.909  25.601 -0.2336  0.0766 -0.1689
78977W        W21993  15.221  30.044  21.896  0.2743  0.0706  0.2782
78978W        W21994  33.001  17.738  17.140  0.1335  0.0069  0.0417
78979W        W21995  17.994  26.007  14.898 -0.3195  0.0455  0.2005
78980W        W21996   9.838  23.092  28.698  0.0642 -0.0938 -0.0718
78981W        W21997  18.061   3.333  22.647 -0.0131 -0.1955 -0.0801
78982W        W21998  14.981  19.032  12.866 -0.2091 -0.1560 -0.0162
78983W        W21999  21.065  20.020  23.785 -0.1161 -0.3862  0.0594
78984W        W22000  14.966   0.046  15.928  0.2047 -0.2214  0.2746
78985W        W22001   6.925  12.299  16.309 -0.1419 -0.3897  0.0586
78986W        W22002  25.961  31.073  19.332 -0.1538  0.0748 -0.1483
78987W        W22003   4.736  27.101  19.128  0.0358 -0.1402  0.1498
78988W        W22004  10.136   1.139  24.006  0.0652  0.0002  0.5022
78989W        W22005  12.007  25.125  14.241 -0.0314  0.0317  0.0074
78990W        W22006  10.722  31.007  18.479  0.0587  0.0198 -0.2463
78991W        W22007  16.081  19.431  11.931 -0.0481 -0.1465 -0.2245
78992W        W22008  32.569  13.538  26.217  0.0550 -0.0283  0.1984
78993W        W22009   8.724  13.585  24.086  0.0941  0.0361  0.3019
78994W        W22010   6.306  18.899  19.767 -0.1404 -0.2362  0.1734
78995W        W22011   5.205   6.138  27.379  0.1201 -0.2863  0.4089
78996W        W22012  10.173  23.548  17.325  0.0080 -0.4457  0.0216
78997W        W22013   7.018  33.795  21.885 -0.1959 -0.0129 -0.2394
78998W        W22014  22.238   6.953   0.934  0.5365  0.3275  0.3149
78999W        W22015  20.270   4.044  21.970 -0.1346 -0.1732 -0.3109
79000W        W22016  22.078  23.425  17.260  0.0983 -0.0619  0.0282
79001W        W22017  16.777  23.276  23.095 -0.2905 -0.4417 -0.1832
79002W        W22018  21.317   9.281  17.488 -0.2082 -0.0147 -0.0192
79003W        W22019   3.585  23.022  28.114  0.1254  0.2404  0.0752
79004W        W22020   1.258   0.661  15.883 -0.0320  0.0972  0.0404
79005W        W22021  31.075   3.566   0.353 -0.0273 -0.2735  0.0081
79006W        W22022   3.949   0.328  20.254  0.0386  0.5038  0.1666
79007W        W22023  31.619  32.485  20.767  0.0030 -0.0661 -0.0035
79008W        W22024  11.107  33.247  19.018 -0.0789  0.2138  0.1481
79009W        W22025  13.405   2.502  23.649  0.1869  0.2835 -0.0633
79010W        W22026  22.329  29.433  25.980 -0.1766  0.1965  0.1659
79011W        W22027  11.076  29.534  22.376  0.0354  0.1831 -0.0370
79012W        W22028  27.125  20.414  23.045 -0.1214  0.0281  0.0761
79013W        W22029  14.036  21.026  18.828  0.3949 -0.2706  0.0633
79014W        W22030  29.135  30.902  18.935  0.2606 -0.0913  0.0174
79015W        W22031  27.088  18.232  25.230  0.1040 -0.3883  0.0306
79016W        W22032   4.325  13.631  21.889  0.2398  0.1162  0.1309
79017W        W22033  12.603  27.576  27.950 -0.0829 -0.2181  0.2353
79018W        W22034   9.590   3.137   0.471 -0.2003 -0.2514  0.1374
79019W        W22035  18.618  33.660  19.323 -0.0197  0.1210  0.1523
79020W        W22036  12.812  31.416  20.872  0.2044 -0.0153  0.0655
79021W        W22037  19.346  26.258  22.809  0.2383  0.0133 -0.0292
79022W        W22038  14.711  24.707  15.168 -0.1070 -0.1641  0.0999
79023W        W22039  23.662  23.772  25.147  0.0713  0.0156 -0.0496
79024W        W22040  20.152  20.930  13.818 -0.1888  0.3281 -0.0788
79025W        W22041   3.102   0.948  21.672  0.1029  0.1029  0.0132
79026W        W22042  19.502   8.814  14.918 -0.3203  0.1544 -0.1329
79027W        W22043  12.891  25.874  15.026 -0.0089 -0.0304  0.0320
79028W        W22044  26.307   3.561  21.249  0.0824  0.0074  0.3039
79029W        W22045  19.946  30.884  21.203 -0.3716  0.3447  0.0528
79030W        W22046   1.399  26.938  16.053  0.2427  0.1261  0.4474
79031W        W22047   3.960  28.813  13.934  0.2814  0.1446 -0.0796
79032W        W22048  10.762  20.995  17.567 -0.1885 -0.1968  0.1844
79033W        W22049  15.842   3.903  21.936 -0.0416  0.0377  0.2659
79034W        W22050  21.832  34.469  18.737  0.0807  0.0034  0.4335
79035W        W22051  30.801   1.973  19.145  0.0713  0.0654 -0.3122
79036W        W22052   2.053  26.781  17.117 -0.0611 -0.1098  0.1289
79037W        W22053  21.846  14.622  12.791 -0.1181 -0.4441 -0.0662
79038W        W22054   5.279  31.428  18.516  0.0018  0.0275  0.0170
79039W        W22055  12.046  22.502   6.389  0.0146  0.2296  0.0151
79040W        W22056  29.366  15.334  19.262 -0.1129 -0.1908 -0.2614
79041W        W22057  14.420  24.044  18.558  0.2663  0.1729 -0.2137
79042W        W22058  21.631  10.614  20.784  0.2575 -0.1917 -0.3635
79043W        W22059  16.347  33.663  19.728 -0.3830  0.2441 -0.2219
79044W        W22060   9.540   0.013  22.728  0.1213  0.0469  0.1985
79045W        W22061  18.132  30.117  29.023 -0.2277 -0.0786 -0.0545
79046W        W22062  14.695  18.683  23.486  0.0479  0.1468  0.4041
79047W        W22063  32.976   0.477  18.175  0.1391  0.2413  0.0695
79048W        W22064  12.211  20.574  11.579  0.4226  0.3924  0.2896
79049W        W22065  34.346  27.484  18.674 -0.1402 -0.1811  0.1777
79050W        W22066  25.583   5.102  20.118  0.1556 -0.0380 -0.2653
79051W        W22067   4.658   9.886  14.948  0.0662  0.0142  0.2369
79052W        W22068  20.067  22.335  23.484 -0.2058  0.0933  0.0377
79053W        W22069   6.209  29.922  24.319 -0.0187  0.0826 -0.1504
79054W        W22070  27.372   6.466  15.999  0.3790  0.2098  0.2958
79055W        W22071  13.493   5.367  19.457  0.1429  0.0569 -0.0025
79056W        W22072  19.711   5.326  20.612  0.2932  0.0990 -0.2594
79057W        W22073   9.949  16.930  13.272  0.0354  0.2356 -0.0135
79058W        W22074  28.888  30.382   0.521 -0.4571 -0.0045 -0.1020
79059W        W22075  17.208  33.183  26.720 -0.3335 -0.2567 -0.2071
79060W        W22076  28.040  14.898  14.985  0.1848 -0.1421  0.1305
79061W        W22077   8.113   2.794  19.256 -0.0402 -0.1052 -0.1559
79062W        W22078  10.444  30.667  19.266 -0.1582 -0.1735 -0.0737
79063W        W22079  15.044  27.418  22.182 -0.0928 -0.0607  0.1564
79064W        W22080  10.992  17.459  13.170 -0.2958 -0.0413  0.1501
79065W        W22081  17.947  23.229  15.463  0.1603  0.1222  0.0279
79066W        W22082  22.138  25.891  14.889 -0.1296  0.1033  0.1829
79067W        W22083  27.185  24.701  17.389  0.3862 -0.0724  0.3031
79068W        W22084  17.701  12.136  13.286 -0.0796 -0.4482 -0.1524
79069W        W22085   6.768   9.944  18.850 -0.4298  0.2042 -0.1228
79070W        W22086  13.163  31.212  22.639  0.1509 -0.3022 -0.0400
79071W        W22087  18.525  10.037  18.708  0.1577  0.0345  0.4780
79072W        W22088  29.486  21.144   0.321 -0.1007  0.3001 -0.0812
79073W        W22089  10.727  20.909  23.784 -0.3127 -0.1898 -0.2147
79074W        W22090   8.993  24.387  19.500  0.0601  0.0658 -0.0138
79075W        W22091   6.714  19.146  14.374 -0.4353  0.3399  0.1669
79076W        W22092  21.024  33.566  17.807  0.0461 -0.2131 -0.0213
79077W        W22093  18.398  23.312  23.932 -0.0171  0.0218 -0.1787
79078W        W22094  29.797   0.149  21.091  0.1175 -0.0200 -0.0668
79079W        W22095   6.897  18.649  14.402  0.0021 -0.0082 -0.0515
79080W        W22096  15.193   9.273   7.836  0.1234 -0.0406 -0.2299
79081W        W22097  13.845  21.076  18.329  0.0600  0.1398  0.0367
79082W        W22098  26.919  29.490   2.367 -0.1336  0.0868  0.2953
79083W        W22099  15.801   2.703  18.105 -0.0581  0.0154 -0.2167
79084W        W22100  13.159  30.776  16.400 -0.2416 -0.2829  0.2302
79085W        W22101   0.428  18.183  23.964 -0.0825  0.2204 -0.0948
79086W        W22102  23.953   5.185  14.361  0.1967 -0.2364  0.0518
79087W        W22103  28.266  25.008  20.078  0.1006 -0.0295  0.1638
79088W        W22104  19.730  29.054  19.741 -0.2753  0.0457  0.0060
79089W        W22105  14.740   9.721  15.923 -0.2984  0.0186 -0.0044
79090W        W22106  15.574   1.792  14.516 -0.2454  0.0049  0.0192
79091W        W22107  10.921  15.007  15.581 -0.0568  0.1897 -0.0597
79092W        W22108   3.517  28.100   5.486  0.0194 -0.0576  0.0923
79093W        W22109   1.602   6.740  20.239 -0.0153  0.0628 -0.0574
79094W        W22110  30.260  22.156  20.365 -0.0677 -0.1620 -0.1009
79095W        W22111  13.476  28.236  18.579 -0.1242  0.0524  0.2388
79096W        W22112   4.559   5.464  28.339 -0.1235  0.1787  0.1369
79097W        W22113  15.266   6.938  18.985 -0.2289 -0.2532 -0.0832
79098W        W22114   7.814  19.191  19.209 -0.0427 -0.1418  0.0625
79099W        W22115  13.051  20.661   6.481 -0.0331  0.0645 -0.0937
79100W        W22116   5.740  23.136  26.108 -0.0873 -0.2706  0.1983
79101W        W22117  10.586  30.096  21.453 -0.0574 -0.0623 -0.1009
79102W        W22118  20.862   1.959  25.373 -0.3177  0.0729 -0.0460
79103W        W22119  17.361  25.243  19.126  0.1138 -0.3314  0.0261
79104W        W22120  24.960  26.732  20.999 -0.1905  0.1256  0.0775
79105W        W22121   3.247  29.416   1.678  0.2281 -0.0378  0.3158
79106W        W22122  17.022  27.810  17.521 -0.0024  0.1203  0.1126
79107W        W22123  10.576  18.451  13.585 -0.3747 -0.0072  0.1232
79108W        W22124  18.460  29.334  17.896  0.1066 -0.1761 -0.0283
79109W        W22125   4.511  30.403  16.991 -0.0778  0.0899 -0.1093
79110W        W22126  29.802  30.259  24.165  0.3586 -0.2299  0.1259
79111W        W22127   8.363   3.928  22.943 -0.0565  0.0235  0.1538
79112W        W22128  19.351  14.891  13.621 -0.0319  0.2168  0.2463
79113W        W22129  15.615  28.176  23.892 -0.2276 -0.1273 -0.0502
79114W        W22130  28.515  23.257  22.565  0.3161  0.2114  0.0494
79115W        W22131   9.738  28.206  25.084  0.2600 -0.3252 -0.0103
79116W        W22132  27.997  30.410  20.663  0.2446 -0.0386 -0.0726
79117W        W22133  15.302  19.980  13.535 -0.0207 -0.3038 -0.0362
79118W        W22134  23.826  24.404  21.479  0.3165  0.0435 -0.2439
79119W        W22135  29.326  26.523  18.766 -0.2589 -0.2441 -0.0731
79120W        W22136  25.992   0.504  15.578 -0.0734 -0.2542  0.2446
79121W        W22137  24.130  34.148  23.810 -0.2131 -0.2241 -0.2616
79122W        W22138  12.756  23.830  24.964  0.0930 -0.1205 -0.0907
79123W        W22139   9.588  25.497  22.372  0.0829  0.0384  0.2775
79124W        W22140  23.613  26.665  26.901  0.1327 -0.1374  0.1747
79125W        W22141  12.484   9.548  26.038 -0.1240 -0.1637  0.0537
79126W        W22142  15.105  23.852  13.752  0.4947  0.0389 -0.1811
79127W        W22143  26.452   1.984  21.927 -0.2408  0.0012  0.1017
79128W        W22144   4.150   7.083   0.041 -0.1900  0.1469 -0.1546
79129W        W22145  12.452  28.230  21.434  0.0377  0.3023  0.0066
79130W        W22146  21.398  27.513  17.333  0.1604 -0.3163 -0.5624
79131W        W22147  17.358   6.792  24.127  0.1274 -0.4024  0.1298
79132W        W22148  29.188   6.804  22.762 -0.1779  0.1053 -0.1202
79133W        W22149   7.299  33.476  19.027 -0.0207 -0.2198 -0.1658
79134W        W22150   8.049  24.877  18.299 -0.0925  0.1889 -0.2622
79135W        W22151   1.688  33.368   5.464  0.2110 -0.0425  0.2136
79136W        W22152  19.664  25.734  17.158 -0.0470  0.1306  0.2943
79137W        W22153   8.203   8.966   7.689  0.3671 -0.1772 -0.1642
79138W        W22154  13.472   0.220  21.524 -0.0258  0.0742  0.3430
79139W        W22155   7.044   3.959   5.246 -0.2291 -0.0862 -0.2810
79140W        W22156  25.014  16.033  18.611  0.0649  0.1406 -0.1076
79141W        W22157  30.633  25.211  24.474 -0.2617 -0.0620  0.0374
79142W        W22158  20.657  18.807  27.418  0.2607  0.4122 -0.0730
79143W        W22159  25.626  20.473  15.982  0.1051  0.1316 -0.1015
79144W        W22160  15.999  34.255  23.230 -0.0407 -0.2309  0.2099
79145W        W22161  13.869  23.849  17.260 -0.2726  0.0887 -0.2307
79146W        W22162  23.098   0.385  28.553  0.2718  0.0336 -0.0803
79147W        W22163   4.715   1.192  20.940  0.3162 -0.2514  0.2807
79148W        W22164  31.037   1.970  26.311  0.0274 -0.2536  0.2304
79149W        W22165  16.771  14.213  13.323 -0.2061  0.1968  0.0275
79150W        W22166  12.151  25.596  21.797  0.1110 -0.0399  0.2213
79151W        W22167  34.402  14.978  18.818 -0.1640 -0.2099  0.1741
79152W        W22168  29.428   7.494  22.321 -0.2453 -0.0261 -0.0710
79153W        W22169  31.497   1.355  26.712  0.3331  0.2528  0.2817
79154W        W22170  12.705  20.767   1.636  0.1248 -0.0397  0.1478
79155W        W22171   9.217  14.686  26.138 -0.2987  0.2795  0.0434
79156W        W22172  17.074   9.453  23.680 -0.1723 -0.0184 -0.0187
79157W        W22173  15.859  21.547  22.556  0.1936  0.2807 -0.1726
79158W        W22174  16.597  25.942  28.260 -0.0428  0.0049  0.0168
79159W        W22175   7.686  22.334  19.081 -0.0790 -0.1603  0.4770
79160W        W22176  24.278  27.188   0.342 -0.0421 -0.0482 -0.1562
79161W        W22177  20.111  31.357  27.231  0.0459  0.3138 -0.3810
79162W        W22178  23.885   1.065  22.422 -0.1888  0.2996  0.2370
79163W        W22179  18.309   5.292  17.835 -0.1265 -0.2634  0.0397
79164W        W22180  16.361   1.550  17.847  0.2105  0.1322 -0.1211
79165W        W22181  24.776  29.917  24.251 -0.5819 -0.3502  0.0962
79166W        W22182  16.646  29.081   7.347 -0.0511 -0.0339 -0.0110
79167W        W22183   6.290  29.414  20.413  0.0908 -0.1132 -0.0296
79168W        W22184  26.500  18.561  21.597 -0.2900  0.3328 -0.0169
79169W        W22185  23.334  21.521  23.244  0.1510  0.0649 -0.0029
79170W        W22186  24.007  30.914  19.207 -0.0678 -0.0826  0.1317
79171W        W22187  18.423  27.250  20.474  0.1041 -0.2485 -0.0230
79172W        W22188   8.319  19.252  13.756  0.1570 -0.2406  0.0600
79173W        W22189   7.866  22.772  27.673  0.1817  0.2419  0.0111
79174W        W22190   5.425   8.867   8.866 -0.4196 -0.0486 -0.0148
79175W        W22191  16.757  33.492  24.158  0.1773 -0.1190  0.1505
79176W        W22192  30.104  26.183   3.692 -0.3199 -0.0343  0.1112
79177W        W22193  18.833  17.647  28.799 -0.0818 -0.1202 -0.0963
79178W        W22194   3.820  27.399  16.969 -0.1217  0.0189 -0.1623
79179W        W22195  13.271  22.221  17.235 -0.0323  0.0116 -0.3998
79180W        W22196   1.381  30.133  18.541 -0.0893 -0.2129  0.4186
79181W        W22197  14.544  29.680  15.862 -0.0397 -0.0190  0.0738
79182W        W22198  15.452  33.007  25.676  0.2433  0.2049  0.1033
79183W        W22199   0.460  27.661  16.223 -0.3738  0.0026 -0.2478
79184W        W22200  12.182  19.292   0.251 -0.2047 -0.2604  0.1078
79185W        W22201   3.694  30.587  20.378 -0.0765 -0.1241 -0.0810
79186W        W22202  18.401  33.926  17.830  0.1619  0.0181 -0.0395
79187W        W22203   3.149  25.913  22.340  0.2971 -0.1434  0.3637
79188W        W22204   8.066   1.083   7.996  0.0490  0.1148 -0.3147
79189W        W22205   6.181  13.769  23.951 -0.5748  0.2129 -0.1936
79190W        W22206  16.846  15.674  20.784 -0.0320  0.3783  0.1576
79191W        W22207  16.036  24.859  19.133 -0.2235  0.1152  0.1439
79192W        W22208  32.787  22.271   1.190  0.3657  0.1637  0.0129
79193W        W22209  21.139  30.112   4.344  0.0957  0.1814  0.2312
79194W        W22210  11.078  25.538  27.502 -0.0485 -0.3489 -0.1190
79195W        W22211  13.420  13.933  15.163  0.1695  0.0490  0.2627
79196W        W22212  11.421  27.339   2.207  0.0449 -0.0497  0.1675
79197W        W22213  24.869  21.896   4.994 -0.0318 -0.0533 -0.0375
79198W        W22214  18.639  32.814  28.057  0.1434  0.2916 -0.0026
79199W        W22215   3.302   0.203  24.797 -0.1517  0.5825 -0.4519
79200W        W22216  10.425   2.126   0.795 -0.1915  0.2030 -0.1898
79201W        W22217   8.226  32.010  19.465  0.1688  0.0311  0.1421
79202W        W22218   5.835  16.555  27.607  0.1343  0.2750 -0.2004
79203W        W22219  22.899  21.055  17.684 -0.0270 -0.2777  0.1601
79204W        W22220  13.707  30.236  20.927 -0.1472 -0.2181 -0.0832
79205W        W22221  17.471  17.285  14.058  0.1725 -0.0468 -0.0692
79206W        W22222  15.221  31.822  15.245  0.4822 -0.3075 -0.0803
79207W        W22223  13.088  24.470  14.337 -0.0610 -0.0774 -0.3345
79208W        W22224  12.276  21.195  12.399  0.1472 -0.0315 -0.2601
79209W        W22225  28.639  31.370  16.469 -0.4361  0.2949 -0.2945
79210W        W22226  16.506  18.790  14.081 -0.1100  0.2430 -0.2791
79211W        W22227  21.104  32.796  19.916  0.0778 -0.1383  0.1940
79212W        W22228  14.186  12.642  15.892 -0.1811  0.1048 -0.0310
79213W        W22229  20.403  33.417  25.529 -0.4269  0.1949  0.0168
79214W        W22230  28.330  27.826  24.220 -0.3058 -0.3080 -0.2593
79215W        W22231  15.921  28.180  25.141 -0.1406 -0.0703  0.0730
79216W        W22232  22.325  31.200  27.351 -0.1062 -0.0349 -0.0547
79217W        W22233  33.878  23.938  21.052  0.1123 -0.1868 -0.1337
79218W        W22234  16.806  32.051  21.777  0.2853  0.1781  0.2879
79219W        W22235  23.661  28.761  17.824  0.0086 -0.0021 -0.2392
79220W        W22236  10.498  27.721   0.458 -0.2339 -0.4194  0.4498
79221W        W22237  29.968  17.807  18.443  0.2866  0.0520 -0.0137
79222W        W22238  20.098  18.003  19.714  0.0065  0.3562 -0.0526
79223W        W22239  32.430  30.548  20.117  0.0795  0.0067  0.0567
79224W        W22240  11.272  16.725  22.623 -0.1899  0.0446  0.0010
79225W        W22241  31.191   2.112  20.687  0.2061  0.0625 -0.2356
79226W        W22242  27.409   7.221  28.122 -0.2043 -0.4920  0.0106
79227W        W22243  20.811   8.143  15.183  0.0795  0.2504 -0.1019
79228W        W22244  24.113  29.711  15.649  0.3076  0.2422  0.3614
79229W        W22245   8.853  16.550   7.724  0.1178 -0.0950  0.0346
79230W        W22246  18.633   1.100  26.260  0.1942  0.2100  0.0407
79231W        W22247  13.259  13.536  23.495 -0.1179  0.0480 -0.4016
79232W        W22248  10.047  22.711  21.550 -0.1622  0.4531  0.1133
79233W        W22249  12.090  26.401  26.186  0.0257 -0.0294 -0.1659
79234W        W22250  28.330  29.390  17.276 -0.3159 -0.2871 -0.0148
79235W        W22251   7.470   5.782  21.632 -0.1749  0.1654 -0.3633
79236W        W22252  19.455  31.310  16.734  0.1083 -0.1846  0.0384
79237W        W22253   4.679   8.579  18.966 -0.0639 -0.0957 -0.0919
79238W        W22254  15.501  21.306  11.813 -0.3570  0.2478 -0.2079
79239W        W22255  27.484   6.737   0.570  0.1842  0.3512  0.0170
79240W        W22256  16.299  22.893  23.578 -0.0240  0.0726 -0.3040
79241W        W22257  10.359  24.765  18.756  0.1226  0.1188  0.0706
79242W        W22258  21.354  22.921  17.281  0.5580  0.1422  0.1566
79243W        W22259  13.398   1.935  16.241 -0.0263  0.3805  0.1623
79244W        W22260  23.095   4.450  27.504  0.0507  0.4923 -0.3196
79245W        W22261  16.697  11.897  14.670  0.3866 -0.1017 -0.0207
79246W        W22262  15.409  32.930  16.217 -0.0161  0.3368 -0.0396
79247W        W22263   9.026  29.728  17.434 -0.1511  0.0275 -0.1474
79248W        W22264  27.861  15.961  21.678 -0.1872  0.0616 -0.1579
79249W        W22265   2.867  22.592  13.740 -0.3142 -0.0655 -0.0761
79250W        W22266   8.974  34.502   8.307 -0.0429  0.0749  0.3042
79251W        W22267   6.223   3.784  23.884 -0.2193  0.3296 -0.1184
79252W        W22268  10.453  23.539   0.357  0.2275 -0.0490  0.1506
79253W        W22269  12.409  32.997  14.994 -0.1803 -0.3588 -0.1078
79254W        W22270  19.547   4.792  15.821  0.2701  0.1168  0.0389
79255W        W22271   6.729  13.593   8.702  0.0533  0.0906 -0.2097
79256W        W22272  19.898  12.220  20.227 -0.0041  0.1992  0.2806
79257W        W22273  19.183   7.772  24.754 -0.2753 -0.0628 -0.1792
79258W        W22274   9.087   8.911  17.259 -0.0960 -0.1180 -0.0368
79259W        W22275  29.265  22.074   8.331  0.1378  0.0515  0.0687
79260W        W22276  10.883  30.379  21.226 -0.0501  0.0920 -0.0600
79261W        W22277  30.033  31.099  20.642 -0.0228  0.2302  0.0822
79262W        W22278  17.464  30.609  18.854 -0.1093  0.2389 -0.1699
79263W        W22279  27.357  17.993  26.633  0.2190  0.2686 -0.0495
79264W        W22280  27.398  33.698  27.774  0.0041  0.0814  0.1089
79265W        W22281   3.473  13.732  19.984  0.3093 -0.1868  0.3016
79266W        W22282  22.655   2.995   4.159  0.0491  0.1577 -0.0744
79267W        W22283   6.743  12.363  28.435  0.6089 -0.2569  0.2291
79268W        W22284  14.318  25.071  15.208 -0.2830  0.0205 -0.1761
79269W        W22285  15.198  27.382  16.118 -0.2542  0.2008 -0.0295
79270W        W22286  28.578  18.853  25.037  0.0281 -0.0028 -0.0036
79271W        W22287  27.914  33.401  18.139 -0.3431  0.0834 -0.2382
79272W        W22288  29.522  18.358  24.201 -0.2470  0.1177 -0.1001
79273W        W22289   8.128  25.671   7.382 -0.0208  0.0265  0.5305
79274W        W22290  18.439  33.844  23.171 -0.0162 -0.0154 -0.2239
79275W        W22291   4.975   7.459  19.272  0.0883 -0.0558 -0.1660
79276W        W22292  21.354   0.688  27.819  0.2372 -0.1068  0.0632
79277W        W22293   2.048   1.300  16.785  0.2318  0.1537  0.2170
79278W        W22294   7.564   0.421  14.637 -0.3600 -0.1840  0.1238
79279W        W22295  21.058  30.367  22.531 -0.0166  0.3358  0.0013
79280W        W22296  29.951  29.553  19.608  0.0329 -0.3108 -0.0281
79281W        W22297  11.751  23.472   6.377 -0.1598  0.0386  0.0528
79282W        W22298  24.489  22.566  16.307  0.1054  0.1175  0.2102
79283W        W22299   1.866  16.565  23.007 -0.3260 -0.0684  0.3416
79284W        W22300  21.264  18.915  14.926  0.1552  0.0511 -0.2217
79285W        W22301  21.827  19.775  22.748  0.6639 -0.3892  0.0642
79286W        W22302  12.265  23.818  21.050 -0.0873 -0.1189  0.0174
79287W        W22303  21.529  26.971  20.458 -0.2449  0.3033 -0.0616
79288W        W22304  26.919   0.816  20.787 -0.0222 -0.0379  0.1305
79289W        W22305  22.372  25.238  15.739 -0.2285 -0.2471  0.2636
79290W        W22306  25.104  16.939  18.214  0.0899 -0.0806  0.0193
79291W        W22307  14.583  34.016   3.512 -0.2284  0.3600 -0.1126
79292W        W22308  20.024   8.806  16.825  0.2415  0.1057 -0.1645
79293W        W22309   7.908  15.302  13.644  0.3796  0.1423  0.2800
79294W        W22310  19.191  19.116   2.457  0.2654 -0.1099 -0.0132
79295W        W22311   4.127  31.688  19.199  0.2252 -0.3481 -0.0934
79296W        W22312   8.373  29.354  22.207 -0.0339 -0.1618 -0.3266
79297W        W22313  23.541  14.576  15.292 -0.1019 -0.0455  0.0209
79298W        W22314  18.099  30.528  23.481 -0.0200 -0.1973  0.1066
79299W        W22315  12.824  18.883  20.927 -0.3208  0.0137 -0.1918
79300W        W22316  13.985  33.768  21.683 -0.2581  0.0365 -0.3129
79301W        W22317  28.500  27.064  29.100  0.2732 -0.1656  0.1337
79302W        W22318   2.662  28.312   3.341 -0.0466 -0.1508  0.0650
79303W        W22319  22.934  15.270   0.036  0.2030  0.0253 -0.0913
79304W        W22320  21.387  29.991  20.473  0.1560 -0.0231  0.0044
79305W        W22321  28.209  30.874  22.742  0.0524  0.1717  0.2404
79306W        W22322  30.339  28.943  16.742 -0.1172  0.2044 -0.0426
79307W        W22323   8.390  23.143  25.000 -0.2315 -0.1456 -0.0216
79308W        W22324  21.978  27.486  21.758 -0.1887  0.0572 -0.0211
79309W        W22325  12.416  21.361  16.556  0.0961 -0.0246  0.0538
79310W        W22326  20.128  19.004  28.269  0.0692  0.1390  0.3514
79311W        W22327  16.124  19.020  15.162 -0.0287  0.1568  0.1681
79312W        W22328   9.905  28.703  14.599  0.0276 -0.1766 -0.0440
79313W        W22329  27.904  23.591  15.322  0.1240 -0.2852 -0.0705
79314W        W22330  17.716  22.860  12.158  0.0419  0.1374  0.1677
79315W        W22331  31.105  11.965  26.922  0.1377 -0.0696 -0.0811
79316W        W22332   6.523  29.968  21.893  0.0995  0.1831  0.0082
79317W        W22333  20.626  30.082  25.784  0.0561 -0.3300 -0.0014
79318W        W22334  31.432  15.751  16.308  0.1604 -0.2217  0.0215
79319W        W22335  15.070  12.371  24.091  0.0234  0.1303 -0.0845
79320W        W22336  29.429  16.606  21.365  0.0635 -0.0083  0.0621
79321W        W22337  15.478   0.742   3.619  0.2015 -0.4873 -0.3510
79322W        W22338   6.078  31.244  17.732 -0.3470  0.0176 -0.3622
79323W        W22339  30.804  23.398   7.471  0.3718  0.0961  0.0125
79324W        W22340  11.581  33.691  25.589 -0.3249  0.2484 -0.1105
79325W        W22341  28.915  19.570  27.946  0.0809 -0.0420 -0.2918
79326W        W22342  13.169  34.735  18.991  0.2036  0.2918  0.1509
79327W        W22343  11.279  26.251  24.523 -0.1001 -0.0853  0.1298
79328W        W22344  24.017  31.882  24.958  0.0496 -0.2636 -0.1942
79329W        W22345  20.486  17.247   1.895  0.2083  0.2320  0.1362
79330W        W22346  18.433  32.695  18.504  0.3340 -0.1088 -0.1480
79331W        W22347   6.859  26.581  23.509 -0.2734 -0.1384  0.0985
79332W        W22348   4.409  28.995  26.628  0.1785 -0.3314  0.1578
79333W        W22349  12.140  30.353  20.685 -0.2246 -0.0010  0.3094
79334W        W22350  23.009  29.679   9.972  0.0092 -0.1666  0.1257
79335W        W22351  17.606  34.514  23.827  0.1093  0.0087  0.2555
79336W        W22352  18.231  26.740  26.028  0.1772 -0.2768 -0.3439
79337W        W22353  14.083  33.141   7.261 -0.1937 -0.3213 -0.2244
79338W        W22354  14.277  23.198   0.078  0.1098  0.0326  0.0680
79339W        W22355  12.995  25.498   4.245  0.2826 -0.1383  0.1216
79340W        W22356  29.215  26.429  25.991 -0.0886 -0.0481  0.0392
79341W        W22357  30.555   3.682  16.935  0.3008  0.0393 -0.0042
79342W        W22358   9.734  15.590  22.420  0.3084 -0.1311  0.2590
79343W        W22359  17.914  26.149  13.849  0.0642  0.0820 -0.0775
79344W        W22360  15.610  30.423  22.945 -0.2018  0.0757 -0.5137
79345W        W22361  22.227  16.537  15.922 -0.1679  0.1188  0.2027
79346W        W22362   9.954  29.079  27.177 -0.0715 -0.0597 -0.0317
79347W        W22363   6.524  21.663  14.315  0.1874  0.2128 -0.2476
79348W        W22364   8.539  17.181  16.113 -0.1418  0.3440 -0.1990
79349W        W22365  31.598  31.904   1.240 -0.1151  0.0066 -0.3462
79350W        W22366  30.522   1.850  17.088  0.0741 -0.2145 -0.0325
79351W        W22367   9.375  18.505  19.725 -0.3058 -0.0089  0.0932
79352W        W22368  21.165   5.366  16.283 -0.1776  0.2629  0.1678
79353W        W22369  21.972   1.256   7.456  0.0060  0.3108 -0.0344
79354W        W22370  26.511  10.308  23.852 -0.0123 -0.1866  0.1754
79355W        W22371  14.037  33.263  17.919  0.1226 -0.1845 -0.1421
79356W        W22372  19.632   4.519  17.143  0.0054  0.1183  0.0748
79357W        W22373  20.826  22.553  28.294 -0.5075  0.1171 -0.2066
79358W        W22374   9.211  12.739  15.257  0.0632 -0.1243 -0.0139
79359W        W22375   6.072  14.606  13.943 -0.2198  0.0166  0.1495
79360W        W22376   0.063  21.348   2.695 -0.1066 -0.0053  0.3105
79361W        W22377  21.102  21.594  17.390 -0.3198  0.0974 -0.2738
79362W        W22378  30.251  15.700  22.302 -0.0964 -0.2429  0.1924
79363W        W22379  23.298  19.418  16.707 -0.0425  0.3089  0.1831
79364W        W22380  32.933  25.900   3.242  0.0735 -0.1219  0.0912
79365W        W22381  21.620  26.963  13.922  0.1919  0.1471  0.1803
79366W        W22382  19.163  16.819  11.834 -0.1509  0.1593  0.2694
79367W        W22383  23.652  17.702  22.901 -0.1542 -0.1917 -0.0643
79368W        W22384   8.768   5.484  14.668 -0.0022  0.0213 -0.0799
79369W        W22385   7.263  18.005  17.864  0.0044  0.1157  0.1953
79370W        W22386  11.266  31.766   7.356  0.1500 -0.3951 -0.0216
79371W        W22387  20.110  18.024  25.403 -0.1215 -0.0236  0.2783
79372W        W22388   8.792  21.476  23.847 -0.3357  0.2394 -0.0221
79373W        W22389  19.276  28.202  22.364  0.1889  0.0434 -0.2609
79374W        W22390   3.435  26.420  24.425 -0.2671 -0.1126  0.0842
79375W        W22391  24.355  32.635  15.632  0.2954  0.0406  0.0030
79376W        W22392  20.652  17.826   3.616  0.0140 -0.0271 -0.4163
79377W        W22393  26.986  25.502  18.011 -0.1729  0.0126 -0.0052
79378W        W22394  24.721  25.518  22.492 -0.2666  0.1620  0.3320
79379W        W22395  17.809  26.034  19.133  0.1117 -0.1156 -0.0901
79380W        W22396  25.604  19.888  21.419  0.3618 -0.0756  0.0605
79381W        W22397  11.784  24.376   8.422 -0.1923 -0.1593 -0.1530
79382W        W22398  10.830  28.676   9.355  0.0582  0.2132 -0.0194
79383W        W22399  17.716  18.809  21.123 -0.0363  0.0519  0.0065
79384W        W22400  25.763  19.476  16.230 -0.2059 -0.0423 -0.1332
79385W        W22401  21.262   9.601  19.777 -0.0533  0.0642  0.0843
79386W        W22402  29.903   9.302  17.417  0.3629 -0.0634  0.1939
79387W        W22403  12.723   5.779  17.297  0.0335  0.1806 -0.2280
79388W        W22404  20.756  24.458  14.918 -0.0214  0.0682  0.2055
79389W        W22405  22.484  29.667  16.662 -0.0364  0.0233  0.2966
79390W        W22406  15.263  28.882  18.754 -0.0202 -0.0072 -0.2196
79391W        W22407  21.500  27.427   4.785  0.1359 -0.2143  0.0208
79392W        W22408  22.590  24.994  17.223 -0.2149 -0.1017 -0.3634
79393W        W22409  13.927  25.996  16.213 -0.0697  0.0902 -0.0596
79394W        W22410  11.658   6.101  23.693 -0.0599  0.1215  0.0425
79395W        W22411   9.100   3.088   0.550 -0.1713 -0.1728 -0.3305
79396W        W22412  22.541  30.595  19.219 -0.2267 -0.2396 -0.0908
79397W        W22413  25.282   7.581  24.253  0.0765  0.0164 -0.3069
79398W        W22414  14.224  16.663   7.503 -0.3390  0.2322  0.2199
79399W        W22415  12.261  21.557   3.581 -0.0957  0.0999  0.4691
79400W        W22416  15.621  26.539  25.945 -0.0990 -0.2651  0.0847
79401W        W22417  15.962  30.073  27.797 -0.1943  0.0207  0.1306
79402W        W22418  10.487  33.434  21.980 -0.1911 -0.3003  0.2667
79403W        W22419   1.222   3.016  17.413 -0.1267  0.1374 -0.0964
79404W        W22420  14.340  14.729  14.934  0.2497  0.0485 -0.0905
79405W        W22421  20.205  27.153  14.470  0.1628  0.0434 -0.0300
79406W        W22422  20.773  30.974  28.577 -0.1990  0.2499 -0.1854
79407W        W22423   1.385   6.333   3.447  0.2481 -0.0315 -0.0342
79408W        W22424   8.983  23.388  13.900  0.0049  0.1595  0.2193
79409W        W22425   4.986  14.648  25.785  0.3065 -0.0109 -0.2254
79410W        W22426  17.850  32.756  22.245  0.2985  0.1959 -0.1986
79411W        W22427  23.875  25.605   0.192 -0.4869  0.1177  0.1328
79412W        W22428  13.373  12.384  25.625  0.0285 -0.2400  0.0444
79413W        W22429  22.824  16.371  16.757 -0.0908 -0.0942 -0.0002
79414W        W22430   0.850  21.483  22.429  0.3194 -0.0202  0.3428
79415W        W22431  17.568  20.471   4.669  0.1957 -0.0855  0.1521
79416W        W22432  23.057  31.958  17.117 -0.2263 -0.2434 -0.0529
79417W        W22433  18.343  21.048  25.956 -0.2481  0.0043  0.0459
79418W        W22434  25.725  10.649  24.353  0.2216 -0.0545 -0.0341
79419W        W22435   4.818  26.522  16.102  0.1189 -0.0823  0.1682
79420W        W22436  13.749  24.715  27.404 -0.0358  0.0082 -0.1928
79421W        W22437   3.589  14.767  25.696  0.0556  0.0564 -0.2028
79422W        W22438  13.332  19.887  25.811 -0.1429  0.0264 -0.0181
79423W        W22439  18.145   5.820  20.438 -0.1303  0.1821  0.3149
79424W        W22440   6.655  14.298  21.482 -0.0215 -0.0395  0.1492
79425W        W22441  19.208   0.633  27.897 -0.0399  0.4515  0.0529
79426W        W22442  18.173  25.223  17.927  0.1785 -0.0212 -0.0441
79427W        W22443  18.015  27.451  16.122  0.0940  0.2640  0.2138
79428W        W22444   0.530  19.636  24.666  0.1383  0.1462  0.3154
79429W        W22445  13.622  26.659  19.239  0.0229  0.2361  0.0213
79430W        W22446   6.265  14.134  16.875  0.0263 -0.2415  0.7162
79431W        W22447  21.395  29.457  26.739  0.3413  0.1220 -0.0268
79432W        W22448  17.666   1.021  22.143  0.1775  0.0471  0.1214
79433W        W22449  21.895  16.651  15.436 -0.1772 -0.0337 -0.0804
79434W        W22450  25.101  32.683  18.875 -0.2278 -0.2425 -0.2076
79435W        W22451  25.863  26.196   1.267 -0.0202  0.1380 -0.1147
79436W        W22452  29.757   2.767  21.227 -0.0118 -0.0265 -0.0249
79437W        W22453  33.037  30.925  23.145 -0.1491  0.0768  0.1541
79438W        W22454   4.026  19.667  22.986  0.2863  0.0797 -0.1040
79439W        W22455   7.351  17.312   5.579 -0.0509  0.2796  0.1908
79440W        W22456   8.214   2.488  27.481 -0.0377  0.3855 -0.2699
79441W        W22457  16.889  23.832  19.375  0.0071  0.1063  0.1097
79442W        W22458  22.567  29.965  28.601 -0.1717  0.1582 -0.0950
79443W        W22459   8.375  17.558  14.883 -0.1364  0.1278 -0.0483
79444W        W22460  23.756  19.313   9.556 -0.0654 -0.2026  0.1473
79445W        W22461  23.290  10.196   0.901  0.1487 -0.1870  0.1270
79446W        W22462  23.399  14.547  17.886 -0.1625 -0.1519 -0.2678
79447W        W22463  19.736  28.021  25.116  0.2203 -0.0936  0.2578
79448W        W22464  19.480   1.542  24.344 -0.1338 -0.2740  0.2554
79449W        W22465  21.155  21.989   5.277 -0.2015 -0.0955 -0.0198
79450W        W22466  19.245   4.522  16.684 -0.2705  0.1279 -0.0468
79451W        W22467  29.729  17.390   4.984 -0.1569 -0.3225  0.2139
79452W        W22468   5.656  12.083   1.685  0.0729  0.2072 -0.1393
79453W        W22469   8.023   4.175  23.281 -0.0161  0.0465 -0.2899
79454W        W22470  24.873   2.732  21.852  0.1146 -0.0102  0.2109
79455W        W22471   6.898  25.797   7.539  0.1017 -0.1601  0.0288
79456W        W22472   6.316   6.092   0.457  0.0430 -0.1772  0.1989
79457W        W22473  10.386   6.907  24.440 -0.1235 -0.1947 -0.1037
79458W        W22474   0.002  33.136  22.573 -0.4217 -0.0523 -0.1075
79459W        W22475  14.785  22.494  23.801 -0.3267 -0.1052  0.1116
79460W        W22476  17.455  27.876  25.646 -0.1837 -0.1390 -0.1313
79461W        W22477  13.419  11.128  18.701  0.1299 -0.1272  0.2116
79462W        W22478  29.784  21.881  10.050  0.0813  0.0438 -0.0597
79463W        W22479  23.089  22.801   0.813  0.0805  0.2421  0.0968
79464W        W22480  30.041  30.449   8.182 -0.1608  0.0142 -0.1945
79465W        W22481   4.763   7.990  25.880 -0.0248 -0.1711  0.0361
79466W        W22482  29.720  18.951  16.461  0.0981  0.1310 -0.2362
79467W        W22483   0.029  33.376  26.218  0.0167  0.0704 -0.0333
79468W        W22484  10.814  10.464  18.755  0.0218 -0.1152  0.1474
79469W        W22485   5.490  30.482  29.077  0.1982 -0.0160 -0.0056
79470W        W22486  17.650   8.246  16.356 -0.0665 -0.2115  0.1236
79471W        W22487  14.456  24.756  29.069 -0.0457 -0.0651 -0.0532
79472W        W22488  16.170   2.675  28.588  0.1128  0.0544  0.0474
79473W        W22489  32.053   3.724  22.864  0.0860  0.0072  0.0143
79474W        W22490  18.937  27.073  27.307 -0.1544  0.1781 -0.1351
79475W        W22491  28.341  34.009   9.392  0.0116  0.0987 -0.0012
79476W        W22492  23.674  12.127  20.829 -0.2268  0.3743  0.1167
79477W        W22493   9.487  13.112  16.973  0.1274  0.1383  0.0985
79478W        W22494  30.383  27.389  20.318  0.2290 -0.0311 -0.0475
79479W        W22495   9.960  33.649  23.325 -0.2435  0.0698  0.0732
79480W        W22496   8.828  28.818  20.269  0.0535  0.1909  0.0990
79481W        W22497  10.988  17.587  13.771 -0.0567 -0.1415  0.1067
79482W        W22498  29.620  21.944  19.792  0.0451  0.2692 -0.3432
79483W        W22499   8.294  17.830  18.161  0.2287 -0.2178  0.0736
79484W        W22500   8.939  16.538   8.211 -0.0651 -0.0674 -0.3235
79485W        W22501  33.323   4.568  15.279  0.2126 -0.0064  0.0839
79486W        W22502  11.389  13.272  17.032 -0.1150 -0.1334  0.3010
79487W        W22503  19.220  33.727   9.825  0.0684  0.0051  0.3121
79488W        W22504  23.327  26.213  18.178  0.1617 -0.1496  0.1217
79489W        W22505   7.252  30.862  19.724 -0.0308 -0.2980 -0.1612
79490W        W22506   9.072  29.049  21.330 -0.2270  0.0075  0.2114
79491W        W22507  23.458  31.362  25.873 -0.0845 -0.3160 -0.0671
79492W        W22508  20.492  24.047  27.138  0.1775 -0.0084 -0.1254
79493W        W22509  16.087  19.855  24.527  0.4884 -0.0868  0.2972
79494W        W22510  27.277  29.398  24.321 -0.3509  0.2309  0.1967
79495W        W22511  10.964  26.337  17.295  0.1290  0.1706 -0.0201
79496W        W22512  27.119  13.119  25.782  0.2915  0.0591  0.2603
79497W        W22513  15.675  10.506  17.306 -0.0433  0.1746  0.0817
79498W        W22514  14.854  12.273  16.418  0.2887  0.1240  0.1945
79499W        W22515  21.647   0.173  17.057 -0.1372  0.1875 -0.0068
79500W        W22516   3.657  33.722  20.580 -0.1480  0.3481 -0.3121
79501W        W22517  17.577  33.166  26.284  0.0599  0.0932  0.0857
79502W        W22518  25.380  31.307  21.894 -0.2110  0.3768  0.3316
79503W        W22519  11.030  24.733   6.589 -0.1542  0.0288 -0.0799
79504W        W22520   2.912  15.298  25.189  0.2097 -0.2464 -0.0817
79505W        W22521  13.720  27.417  19.502 -0.0342 -0.0981 -0.2889
79506W        W22522  11.787  17.211  20.001  0.1092 -0.0895  0.2181
79507W        W22523   0.542  25.245   7.964  0.3817 -0.0653 -0.1458
79508W        W22524  14.990   0.629  21.173 -0.1156  0.1806 -0.3528
79509W        W22525  17.108  33.883  21.387  0.0176  0.0505  0.1549
79510W        W22526  10.509   8.784   3.109 -0.2014 -0.1047  0.0588
79511W        W22527  20.783   4.692   2.223  0.1620  0.0588 -0.0007
79512W        W22528  20.322  32.394  28.207 -0.1715  0.2144 -0.0880
79513W        W22529  19.541  30.339  18.415 -0.2473 -0.0189 -0.0531
79514W        W22530  21.959   1.709  23.314  0.0853  0.0617 -0.1287
79515W        W22531  18.957  32.885  26.543  0.0593 -0.3022 -0.4206
79516W        W22532  14.424  33.754  19.817 -0.2282 -0.0032 -0.2134
79517W        W22533  21.771  32.821  19.669 -0.5001 -0.1117  0.1896
79518W        W22534  31.962  16.737  17.479  0.0713 -0.0795 -0.1613
79519W        W22535  32.948  19.052  29.012  0.3239  0.0844  0.1407
79520W        W22536   8.581  17.491   3.255 -0.2156  0.1407 -0.3248
79521W        W22537  22.815  26.812  19.589  0.0354  0.1057  0.0506
79522W        W22538  12.178  11.806  15.864  0.0413  0.3181  0.0037
79523W        W22539  25.003  27.871  22.164  0.2551  0.0758 -0.1077
79524W        W22540   6.003   9.756  28.700  0.0977 -0.1647 -0.1120
79525W        W22541  12.598  25.277  18.385 -0.1521 -0.0069 -0.3496
79526W        W22542  24.557  16.287   6.862 -0.2819 -0.1130 -0.1263
79527W        W22543  13.394  22.388  12.142  0.0522 -0.0577 -0.2550
79528W        W22544  19.927   0.496   9.328 -0.0711  0.1290 -0.1591
79529W        W22545   9.088  27.985  23.660  0.1951 -0.0608 -0.0862
79530W        W22546  10.845  19.057   0.618 -0.0462  0.1508 -0.0114
79531W        W22547  17.720  26.275  15.687 -0.2866  0.2810 -0.1097
79532W        W22548  22.952  24.858  16.919  0.1334  0.0562  0.1764
79533W        W22549  19.937  32.398   7.208  0.1075 -0.4610 -0.4431
79534W        W22550  16.753  11.011   7.888  0.0387 -0.0413  0.3495
79535W        W22551  21.861  25.885   1.761  0.1382  0.0578 -0.2559
79536W        W22552  16.908  21.352   5.873 -0.2603 -0.0879 -0.0462
79537W        W22553  14.872  31.977  18.676  0.1213  0.2786 -0.1273
79538W        W22554  11.913   8.472  19.491 -0.2314  0.0862 -0.1849
79539W        W22555  32.961  29.066  17.738 -0.1851  0.0373  0.1600
79540W        W22556  25.309  26.133   3.510 -0.1640 -0.2426 -0.2208
79541W        W22557  19.463   3.532   2.131  0.4062  0.1699 -0.0309
79542W        W22558  19.315  31.435  24.034  0.0028  0.0190 -0.3059
79543W        W22559  34.702  29.134   5.642  0.0075  0.1502 -0.0036
79544W        W22560  10.239  24.005  24.712  0.0308  0.0869 -0.0567
79545W        W22561  30.616  17.819   1.903  0.0800 -0.0587  0.2061
79546W        W22562  28.364   7.747  21.273 -0.1410 -0.0346 -0.0233
79547W        W22563  14.803  22.028   0.621  0.0113  0.1050  0.1487
79548W        W22564  27.556  16.179  26.733  0.1043  0.0670  0.1587
79549W        W22565  16.856  29.076  21.297 -0.1777  0.0855  0.1236
79550W        W22566  13.798   5.595  23.073  0.1289  0.0127 -0.0420
79551W        W22567  24.679   2.158  21.176  0.1254  0.0514  0.0860
79552W        W22568  15.879  29.324  23.183 -0.0891  0.4514  0.2078
79553W        W22569   8.539  31.733  29.271 -0.1911  0.0146 -0.1969
79554W        W22570  21.221  26.389  21.199  0.0000  0.0992 -0.0008
79555W        W22571   1.102  15.094  16.135  0.0837 -0.0656  0.1414
79556W        W22572  22.157  24.299   6.956  0.1814 -0.1990 -0.0882
79557W        W22573  12.404  15.686   3.659  0.2347 -0.0769 -0.0624
79558W        W22574  12.834  30.347  23.493  0.0227 -0.0645 -0.3681
79559W        W22575  22.052  22.426  20.177  0.1436 -0.1575 -0.3940
79560W        W22576  20.520  18.905  26.827  0.0178 -0.0521  0.0532
79561W        W22577  19.891  21.286  24.495 -0.2108 -0.0977 -0.1987
79562W        W22578  11.309   2.424  26.272 -0.2220 -0.2750  0.1027
79563W        W22579  14.901  31.843  26.432  0.2198 -0.0504  0.5431
79564W        W22580  31.664  20.323  18.772 -0.0488  0.2767 -0.4629
79565W        W22581  13.542  30.134  14.715  0.3177  0.0140  0.1238
79566W        W22582   9.453  24.738  17.681  0.0494 -0.0232  0.1727
79567W        W22583  20.594  31.034  27.464  0.0635 -0.3061  0.3928
79568W        W22584  16.513  25.889  17.270  0.3249 -0.1360  0.1728
79569W        W22585  17.132  19.932  15.580 -0.1724 -0.3413  0.0312
79570W        W22586  17.364  32.389  22.357  0.0328  0.1192 -0.0404
79571W        W22587  10.437  17.809  25.378 -0.1779  0.5902 -0.0577
79572W        W22588  26.725  34.721  26.842  0.0956  0.2386 -0.2981
79573W        W22589   0.728  32.920  27.649  0.1220 -0.0530  0.2440
79574W        W22590  20.858  17.846  14.090  0.0967 -0.0046 -0.1963
79575W        W22591  12.529  27.028   3.008 -0.1556 -0.1428 -0.0758
79576W        W22592  33.912  29.019  19.115  0.2177  0.3774 -0.2689
79577W        W22593  19.943  27.387  23.471 -0.3360 -0.0282 -0.1574
79578W        W22594  13.573  22.883   5.840  0.0335 -0.1002  0.3339
79579W        W22595  19.724  32.998  19.593  0.0269 -0.1806  0.0955
79580W        W22596  30.090  17.804  19.122 -0.2509  0.1065  0.1239
79581W        W22597   5.633   0.238  24.340  0.1829 -0.2543 -0.0648
79582W        W22598  21.003   5.822  14.706  0.0913 -0.2501  0.1490
79583W        W22599  29.462  21.402  23.099  0.0324  0.3889 -0.0872
79584W        W22600  18.877  20.677  28.040  0.0262 -0.1344 -0.0537
79585W        W22601  18.607  21.212   4.083 -0.4465 -0.0345  0.0576
79586W        W22602  28.627   0.091   3.592 -0.0145 -0.0755  0.0547
79587W        W22603  23.075   1.559  25.622  0.1931 -0.0228 -0.0210
79588W        W22604  14.181  27.599  21.515 -0.0181  0.0411 -0.0496
79589W        W22605  28.269   1.783  23.634  0.3868  0.0114  0.2468
79590W        W22606  17.757   3.142  17.515  0.0714  0.2726 -0.1950
79591W        W22607  12.788  15.318   3.049  0.1682 -0.1212 -0.0442
79592W        W22608  15.376  32.241  21.821  0.0722 -0.0001 -0.0323
79593W        W22609  18.353  29.031   0.347  0.1347 -0.2337  0.1429
79594W        W22610  14.144  28.936  13.898  0.1551 -0.1700 -0.2625
79595W        W22611  16.919  24.757  20.145  0.1302  0.1957  0.0189
79596W        W22612   8.583  12.924  21.480 -0.1556 -0.0032  0.0887
79597W        W22613   7.967  25.713  27.078  0.1522 -0.0441 -0.0462
79598W        W22614   2.975  23.279  16.548 -0.3189 -0.1239 -0.0794
79599W        W22615   9.149  28.223  29.062  0.2084 -0.1181 -0.0787
79600W        W22616   0.778  12.311  15.753 -0.1001 -0.0649  0.1920
79601W        W22617  16.278  27.868   4.056 -0.1710  0.1475  0.0590
79602W        W22618  22.666   7.268  19.804  0.4060 -0.2054 -0.0233
79603W        W22619  23.833  33.244  22.422  0.3507 -0.3062 -0.0364
79604W        W22620  12.971  34.548   4.408  0.1931 -0.2399 -0.0639
79605W        W22621  23.713  25.363  21.262  0.2472 -0.0586 -0.0188
79606W        W22622  28.365  25.352  20.466 -0.1142 -0.1546  0.2508
79607W        W22623  29.353  20.049  23.617  0.0681  0.1179 -0.0799
79608W        W22624   9.485  34.511  18.125  0.1636  0.0057 -0.1222
79609W        W22625  26.339  22.523   1.191  0.1178 -0.0182  0.3355
79610W        W22626  34.092  21.618  26.107  0.0354  0.2317 -0.0633
79611W        W22627  21.138  25.168   8.849  0.0682  0.0550  0.0379
79612W        W22628  15.835   9.430   2.276 -0.3617 -0.1110 -0.0180
79613W        W22629  21.085  26.615  25.110 -0.3056 -0.2642  0.0896
79614W        W22630  13.459  29.373  18.946 -0.0749 -0.0346 -0.0286
79615W        W22631  13.984  23.711  23.086  0.2072  0.0281 -0.1704
79616W        W22632  32.987   3.107  25.671 -0.0502  0.1043  0.2352
79617W        W22633  25.724  18.332  20.362 -0.1956  0.1487  0.0160
79618W        W22634   5.198  16.022  21.865  0.0554  0.2215 -0.0900
79619W        W22635  20.543  11.887  23.547 -0.0878  0.0860 -0.1350
79620W        W22636  20.032  32.970  15.036  0.1306  0.0387 -0.0512
79621W        W22637  15.810  31.305  27.019  0.1319 -0.1404 -0.1787
79622W        W22638  19.728   4.293  24.947  0.1564  0.1726 -0.1926
79623W        W22639  13.370  32.907  24.501 -0.1535  0.3862  0.5276
79624W        W22640  18.138  24.409  19.264 -0.1754  0.2810 -0.0674
79625W        W22641   4.948  19.667  19.344 -0.0277 -0.1206 -0.0612
79626W        W22642  28.856   6.020   5.148 -0.2789 -0.0050  0.2113
79627W        W22643  30.301  15.892  18.730 -0.0821  0.4058 -0.1796
79628W        W22644  23.965  22.171  15.603 -0.0370  0.2417  0.2771
79629W        W22645  26.578  34.617  26.245 -0.2745  0.1404 -0.2445
79630W        W22646   8.314   2.648  14.086 -0.0394  0.0489  0.2110
79631W        W22647  14.851  17.248  14.511  0.1225  0.2659 -0.0612
79632W        W22648  25.860  12.951  14.344  0.2169 -0.1370 -0.0720
79633W        W22649   8.985  18.780  20.025 -0.1209 -0.3421 -0.1127
79634W        W22650  14.517  28.229  18.111 -0.1018  0.0910  0.1546
79635W        W22651  27.054  24.673  26.013 -0.0735 -0.1558 -0.0755
79636W        W22652  17.067  31.751   1.988  0.2182  0.1437  0.0477
79637W        W22653  13.883   9.361  13.312  0.0514  0.1336 -0.0061
79638W        W22654  14.787  22.020  26.443  0.0552  0.0767 -0.0287
79639W        W22655  17.834  19.868  13.975  0.2590  0.2008 -0.0919
79640W        W22656  11.028  19.489   1.531 -0.0673  0.1267  0.2529
79641W        W22657  14.693  27.484  14.558  0.4716  0.0023  0.0490
79642W        W22658  14.241  13.636  29.254  0.0510  0.3131  0.0382
79643W        W22659  17.802   0.375  20.078 -0.0158  0.0497  0.0874
79644W        W22660  25.369  10.144  26.708 -0.1343  0.2869 -0.0384
79645W        W22661  28.191  23.032   2.396  0.2249  0.1380  0.0842
79646W        W22662  15.118   8.763   7.941 -0.2945  0.0939  0.0202
79647W        W22663  19.130  23.177  14.256 -0.0293 -0.2658  0.0057
79648W        W22664  14.290  29.271   8.982 -0.1020  0.2319  0.0094
79649W        W22665  28.276  14.005  18.340 -0.0924 -0.1592 -0.3211
79650W        W22666  34.642   0.980  21.343 -0.1472 -0.0164  0.3485
79651W        W22667  29.063  17.614  24.005 -0.1385  0.0446  0.0351
79652W        W22668  21.343  27.706   1.573 -0.1083 -0.0771 -0.0035
79653W        W22669   0.674  25.255  23.936 -0.0700 -0.3407  0.0456
79654W        W22670  17.751  12.249  14.166  0.0195 -0.1237  0.0035
79655W        W22671  18.871  26.690  26.639  0.1391 -0.2037  0.2027
79656W        W22672  12.253   8.621  25.989  0.3399  0.2212 -0.2179
79657W        W22673  25.929  21.786   3.534 -0.1248  0.0552  0.2466
79658W        W22674  17.807  33.258  23.186  0.0166 -0.1082  0.1118
79659W        W22675   8.933  16.127   2.748 -0.2794  0.0883 -0.1008
79660W        W22676  21.849  23.009  22.782 -0.2114  0.1142  0.1076
79661W        W22677  30.091   0.635  19.498  0.2712 -0.0014 -0.2531
79662W        W22678  26.151   5.116  22.112 -0.0252 -0.0852 -0.1741
79663W        W22679  30.007   8.416   5.777  0.0385  0.0716 -0.1829
79664W        W22680  21.791   3.073  14.440  0.1918  0.2829  0.3456
79665W        W22681  30.600  28.775  27.909 -0.3073 -0.1478 -0.2921
79666W        W22682  18.426  26.826   3.702 -0.4394 -0.0407  0.1101
79667W        W22683  11.241   9.420   3.568  0.0337  0.0842 -0.1856
79668W        W22684  22.804  16.827  20.664 -0.3045  0.0178  0.0869
79669W        W22685  13.778  31.002  17.444  0.0469  0.0090 -0.1251
79670W        W22686  11.239  27.870   8.290  0.0731 -0.0388  0.0427
79671W        W22687  27.394  29.612  26.659 -0.1378 -0.0500  0.0620
79672W        W22688  21.636  26.264  25.435  0.1453 -0.1435 -0.0346
79673W        W22689  13.986  24.768   1.033 -0.2294 -0.1539  0.0262
79674W        W22690  15.675  29.358   4.815  0.0016 -0.1533  0.1026
79675W        W22691  14.392  33.624  22.533 -0.3119  0.1590 -0.1976
79676W        W22692  18.038  16.863  14.491 -0.0545  0.0821 -0.0567
79677W        W22693  21.500  14.351  20.090 -0.0704 -0.1227 -0.3131
79678W        W22694  25.113  25.688  25.127 -0.2923 -0.0626  0.1136
79679W        W22695  33.590  27.226  18.887 -0.1288  0.0576 -0.1713
79680W        W22696   7.060  24.857  28.249 -0.1607 -0.1077  0.0983
79681W        W22697  16.240  29.734  26.967 -0.0463  0.4345 -0.2504
79682W        W22698   9.309  27.322   9.367  0.1958 -0.2017 -0.0354
79683W        W22699   1.597  14.967   1.805  0.3891  0.0386  0.1040
79684W        W22700  20.305  23.660  15.387 -0.2723  0.2539  0.0825
79685W        W22701  17.927  27.800  17.228 -0.0921 -0.0620  0.4018
79686W        W22702  20.995  16.529   3.500 -0.1789 -0.5027  0.0979
79687W        W22703  33.032  25.668   8.770  0.4724  0.1662 -0.1786
79688W        W22704  33.839  25.177  21.144 -0.0914  0.0707 -0.1384
79689W        W22705  18.315  33.017  23.149 -0.0140  0.1602  0.0858
79690W        W22706  22.730  28.260   1.465 -0.0002 -0.0070 -0.0261
79691W        W22707  12.938  20.688  13.416 -0.1233  0.0734  0.1967
79692W        W22708  20.105  21.662  15.201 -0.0557  0.0143 -0.1481
79693W        W22709  26.135   5.063  24.284 -0.0189  0.0824 -0.1710
79694W        W22710  15.769  24.086  14.403  0.0034 -0.1269 -0.0893
79695W        W22711  19.650   5.502  15.169 -0.2194 -0.2106 -0.0880
79696W        W22712  18.170  29.040  18.757 -0.0754 -0.1464  0.2458
79697W        W22713  15.918   6.091  28.066 -0.2461 -0.0023 -0.0807
79698W        W22714  27.856  30.633  23.142  0.0638 -0.0896  0.0735
79699W        W22715  31.235  12.837  22.989  0.1131  0.2232 -0.1453
79700W        W22716   6.543  10.734   3.290 -0.2900  0.1909  0.2442
79701W        W22717  16.038  14.549   3.695  0.0019  0.0813 -0.1086
79702W        W22718   0.805  25.659   5.222 -0.1575  0.3699  0.1472
79703W        W22719  32.052  22.852  23.727 -0.0248 -0.1839 -0.3972
79704W        W22720  30.317  28.175  26.633  0.0026 -0.0700 -0.0981
79705W        W22721  17.545  28.595  23.186 -0.1923  0.2334  0.0304
79706W        W22722  12.134  19.531   4.021 -0.0910 -0.3953 -0.1473
79707W        W22723  13.754   6.552  13.795 -0.0405 -0.0605  0.0146
79708W        W22724  10.773  26.266  16.460  0.1374 -0.1175 -0.2232
79709W        W22725  16.818  13.460  15.638 -0.0893  0.0712 -0.3221
79710W        W22726  26.305   0.951  19.726  0.1198 -0.1755  0.2486
79711W        W22727  23.079   5.938   4.872  0.0059  0.1187  0.2915
79712W        W22728  11.619  13.447   3.072 -0.4235  0.3243  0.0240
79713W        W22729  23.717  32.671   0.459 -0.0805  0.1061 -0.2211
79714W        W22730  16.553   2.054  27.858  0.2023 -0.2279  0.1255
79715W        W22731  23.118  20.868  13.453 -0.1798 -0.2431  0.3614
79716W        W22732  27.065  31.639  24.387 -0.0927 -0.0198 -0.0574
79717W        W22733  31.790   9.246  15.437  0.3744  0.2564  0.1599
79718W        W22734  19.708  22.316   1.300 -0.0193 -0.0846 -0.0482
79719W        W22735  25.119  28.525  24.180  0.2133  0.2574  0.1495
79720W        W22736  25.965  23.636   9.080  0.1371 -0.1503 -0.1679
79721W        W22737   9.327  25.823   6.086  0.0685 -0.3755 -0.2629
79722W        W22738  20.618  24.189  16.157  0.0785 -0.2948 -0.0346
79723W        W22739   4.759  27.697  15.182 -0.4004  0.0703  0.1410
79724W        W22740  11.109  14.648  20.515 -0.3595 -0.2293 -0.2072
79725W        W22741   4.766  22.850  13.969  0.2924  0.1686 -0.0889
79726W        W22742   9.387  21.056  17.620  0.0215 -0.2331 -0.2235
79727W        W22743   2.969   2.117  27.314 -0.1960  0.0839 -0.4077
79728W        W22744  12.205  32.153   6.275  0.0463  0.1175  0.2290
79729W        W22745  13.258  24.795  18.884  0.1052  0.0069  0.2732
79730W        W22746  12.549  24.626  19.808  0.1459 -0.1626 -0.0177
79731W        W22747  25.717   2.450  17.108  0.3002  0.0463  0.1567
79732W        W22748  24.573   2.999  21.576 -0.2334  0.0541 -0.2246
79733W        W22749  11.901  32.461  16.878  0.0192  0.1295 -0.0761
79734W        W22750  15.568  19.666   5.077  0.1247  0.4722 -0.0198
79735W        W22751  14.179  15.953  28.473 -0.3257 -0.0894  0.0910
79736W        W22752  31.032  25.822   9.353 -0.2310 -0.0342 -0.0719
79737W        W22753  10.506  18.699  13.105  0.1191  0.0823  0.0628
79738W        W22754   4.756  26.413  28.957  0.1924  0.2006 -0.4388
79739W        W22755  34.303  15.590  19.079  0.0578 -0.0332 -0.2903
79740W        W22756   9.706  30.569   9.470  0.2323 -0.1160  0.0059
79741W        W22757  26.986  28.484  27.689  0.2720 -0.2635 -0.0668
79742W        W22758  10.802  28.323  20.736 -0.1151  0.2374  0.1503
79743W        W22759  28.856  30.759  24.298 -0.0228  0.0429 -0.1718
79744W        W22760  12.815   0.369   5.144  0.0751 -0.0110  0.0673
79745W        W22761  34.558  32.918  18.096 -0.0231  0.3887 -0.2182
79746W        W22762  32.098  14.007  25.190 -0.0054  0.1072  0.3351
79747W        W22763  29.303   0.798  24.542  0.2244  0.2396 -0.0479
79748W        W22764  18.236  19.006  23.921  0.0022 -0.0798  0.1320
79749W        W22765  14.442   7.681   0.201  0.3343 -0.1146 -0.1192
79750W        W22766  25.223   0.428  16.189 -0.2627 -0.0179  0.0913
79751W        W22767   5.551  30.572   7.135  0.1464  0.1862  0.1768
79752W        W22768  14.413  24.526   1.484  0.0692  0.3926 -0.0443
79753W        W22769   9.981  29.233  25.180  0.2256  0.2013  0.0048
79754W        W22770  17.379   0.259   8.307  0.0065  0.5334 -0.0380
79755W        W22771  20.560   5.527  18.723 -0.0163 -0.0626  0.3023
79756W        W22772  13.460  22.724  25.998 -0.0492  0.1066  0.1027
79757W        W22773  12.917  25.930  19.042 -0.0289  0.1984  0.0527
79758W        W22774   7.563  31.519   5.344 -0.0126 -0.2629 -0.2795
79759W        W22775  22.219   3.700  28.822  0.1996  0.1573  0.1273
79760W        W22776   7.330  29.587  22.383 -0.1907 -0.1944 -0.0189
79761W        W22777   1.266  19.392   3.576 -0.6673 -0.0847  0.2344
79762W        W22778   6.756  30.798   3.103  0.0892 -0.0604  0.0443
79763W        W22779  34.173   5.865  10.223 -0.1176  0.1152 -0.1910
79764W        W22780  25.610  18.542  16.021  0.1600  0.2906  0.0581
79765W        W22781  22.639  30.586   0.091  0.0355  0.1143 -0.0849
79766W        W22782   4.714  30.104  20.791 -0.0858  0.0120 -0.0486
79767W        W22783  22.417  31.496  24.161  0.1396 -0.3282 -0.0584
79768W        W22784  12.444  13.970  24.231 -0.0002  0.0561  0.2047
79769W        W22785  22.233  15.732  26.942  0.1206 -0.0094  0.2288
79770W        W22786   6.703   3.626  23.862  0.0474 -0.0301 -0.1906
79771W        W22787  23.670   3.476  24.863 -0.0612  0.3222  0.0461
79772W        W22788  13.322  27.003  24.008  0.0847  0.1893  0.1534
79773W        W22789  33.771  27.588  21.038  0.1093 -0.0761  0.0708
79774W        W22790   7.358   7.094  22.173 -0.3686  0.0246  0.0046
79775W        W22791   7.627  19.942  24.962 -0.2307  0.0593 -0.2317
79776W        W22792   9.905  21.123   3.476 -0.2030  0.0453  0.1582
79777W        W22793   0.454  33.524   0.849  0.1121 -0.1409 -0.3019
79778W        W22794  17.409  24.779  16.416 -0.0817  0.1803  0.2250
79779W        W22795  10.279  29.767  27.111 -0.2753  0.1638 -0.4053
79780W        W22796  22.803  23.979  22.749  0.1204  0.0165 -0.0862
79781W        W22797  15.525  22.516  27.404  0.1444 -0.1159  0.0725
79782W        W22798  18.208  19.789  25.566  0.0628 -0.0802  0.2218
79783W        W22799  19.341  24.212  20.250  0.1831  0.0685  0.1689
79784W        W22800  28.150   2.650  25.053 -0.3980 -0.2478 -0.1067
79785W        W22801  20.181  32.842   5.230 -0.1366  0.1381  0.1933
79786W        W22802  25.389   3.659  24.775  0.0081 -0.1500 -0.3216
79787W        W22803  22.345   7.339   9.637  0.1486  0.0865  0.3116
79788W        W22804  22.811  28.645   7.631  0.0931  0.2115  0.1014
79789W        W22805   9.684  12.260  20.696 -0.0201  0.2172 -0.1572
79790W        W22806  14.209  31.215  25.981 -0.3500 -0.0528 -0.0994
79791W        W22807  23.492  28.157  28.664  0.0524 -0.3138  0.0501
79792W        W22808  18.853  23.157  25.500  0.0934  0.3605 -0.1032
79793W        W22809   6.173   4.456   7.940  0.1378  0.1456 -0.2357
79794W        W22810  20.491  18.854  15.996 -0.0002 -0.1011  0.0324
79795W        W22811  24.796  30.272  23.162  0.1738 -0.4994  0.0349
79796W        W22812  10.172   4.801   8.239  0.0173 -0.3002 -0.1138
79797W        W22813   5.383   4.242  29.017 -0.2315 -0.0604  0.0935
79798W        W22814  33.472  33.972  27.164  0.0674  0.3691  0.1418
79799W        W22815  21.027   3.468  25.100 -0.0577  0.2506 -0.1527
79800W        W22816   8.152   5.874  20.716  0.0353  0.1122  0.1704
79801W        W22817  13.928  20.511  25.380 -0.0669  0.0459  0.2606
79802W        W22818  26.094  32.692  25.883 -0.0309 -0.2514 -0.1808
79803W        W22819   7.520  23.428  12.944  0.2296 -0.0226  0.0010
79804W        W22820   9.715  31.420   0.716  0.1183 -0.3855 -0.3571
79805W        W22821  17.497  20.824  15.582  0.1874 -0.3539  0.1790
79806W        W22822  13.873  12.799  13.852  0.0467  0.0124 -0.0117
79807W        W22823  28.576  13.653   5.058  0.1080  0.2489 -0.1949
79808W        W22824  14.635  12.790  22.720  0.1762  0.0281  0.0445
79809W        W22825   9.892  32.508  23.285  0.2719  0.0119 -0.0636
79810W        W22826  25.702   9.112   7.793  0.0210  0.0032  0.2943
79811W        W22827  15.039  16.171  24.642 -0.1316 -0.1160 -0.1855
79812W        W22828  11.613   7.507  19.950 -0.4836  0.1318 -0.0498
79813W        W22829  10.394  28.115  20.764  0.1448  0.2371 -0.2623
79814W        W22830  21.475  22.659   6.251  0.4975  0.2278 -0.1673
79815W        W22831   4.864   9.053  26.478 -0.1216 -0.3480 -0.0915
79816W        W22832  25.313  25.412   1.951  0.2458  0.0397  0.1871
79817W        W22833   3.668  30.326  15.725  0.1821 -0.4291 -0.1912
79818W        W22834  14.838  24.177  20.591  0.1780  0.1174 -0.0310
79819W        W22835   9.892  26.132  24.776  0.0284 -0.0844 -0.0736
79820W        W22836  20.045  28.524  14.222  0.2036  0.2963 -0.2387
79821W        W22837   4.312  21.023  29.219  0.0563 -0.0461  0.1151
79822W        W22838   8.600  20.256  14.012 -0.0599 -0.4363 -0.2411
79823W        W22839  16.115   3.348  17.893 -0.0172  0.0466 -0.1677
79824W        W22840  30.647  21.475  28.833  0.0515  0.1054  0.1753
79825W        W22841  15.030   2.785   6.031  0.1179 -0.1831  0.0564
79826W        W22842  10.038  15.029  22.888  0.4146 -0.1820 -0.0591
79827W        W22843  10.551  10.502  26.060  0.2512 -0.1260  0.2700
79828W        W22844  11.148  26.347  14.547 -0.0260 -0.0222 -0.1978
79829W        W22845  34.707  32.382  14.850 -0.0383 -0.1514  0.1502
79830W        W22846   9.427  28.710  28.950 -0.2797  0.3384  0.3078
79831W        W22847  22.202  24.969   6.344 -0.2452  0.0361  0.0885
79832W        W22848  14.551  26.842   0.846  0.0522 -0.0451  0.1015
79833W        W22849   4.752  31.438   8.587 -0.0793 -0.1303  0.1207
79834W        W22850  17.901  30.011   0.133 -0.0634 -0.1807 -0.0557
79835W        W22851  11.827   0.906  24.596 -0.0706 -0.4255  0.1785
79836W        W22852  27.102  26.665  21.973 -0.0612 -0.0826  0.1337
79837W        W22853  13.278  32.304   0.904 -0.1205  0.1630  0.1087
79838W        W22854  20.996  22.206   1.180  0.0493  0.1132 -0.0341
79839W        W22855  24.020   1.261  18.373 -0.2427 -0.1284 -0.1147
79840W        W22856   2.812  33.689  22.653 -0.1952 -0.0247 -0.2600
79841W        W22857  17.184  11.075  14.165 -0.0617  0.2186 -0.2305
79842W        W22858  31.321  21.759  23.107 -0.0973  0.0098  0.2150
79843W        W22859  22.481  22.588   8.727  0.0583 -0.2147 -0.0767
79844W        W22860  29.982  26.546  23.402  0.1119  0.0140  0.1603
79845W        W22861   6.863  16.107  16.477 -0.1402  0.1698  0.1084
79846W        W22862  33.183  28.491  16.477 -0.0800  0.1114 -0.2229
79847W        W22863  23.143  33.911  19.851 -0.1095  0.0561  0.1270
79848W        W22864  10.337   0.753  17.884  0.0234 -0.0282 -0.0909
79849W        W22865   2.418  28.576   7.867  0.0240  0.0960 -0.2348
79850W        W22866  19.945  24.902  17.374  0.1455  0.1489 -0.3362
79851W        W22867   5.717  19.781  13.385 -0.0615  0.0732  0.1597
79852W        W22868  24.425  25.445   0.209 -0.0889 -0.0616 -0.0667
79853W        W22869  19.442  32.520   4.827 -0.2449  0.0056 -0.0640
79854W        W22870  32.174  28.307   2.453  0.2791 -0.0990 -0.0393
79855W        W22871  17.643  28.724  24.799  0.0707  0.0455  0.1017
79856W        W22872  18.329  25.108  15.440  0.1500  0.0293 -0.3393
79857W        W22873  21.762  27.260  17.090  0.2466 -0.0850  0.3507
79858W        W22874  17.769  30.926  20.865  0.2102 -0.0898 -0.0702
79859W        W22875  15.638  13.490   6.965 -0.2468  0.0913 -0.1094
79860W        W22876  31.447  22.391  17.401  0.0957  0.4852 -0.2251
79861W        W22877  28.366  29.235  28.131 -0.0928 -0.0342  0.0273
79862W        W22878  12.666  25.481  25.387 -0.3006 -0.1273  0.2609
79863W        W22879  20.621   6.308  25.807 -0.1887  0.1441  0.4604
79864W        W22880  16.011  18.878  14.316  0.0048 -0.1616 -0.0435
79865W        W22881  33.840  16.710  24.951  0.1171 -0.1704 -0.0338
79866W        W22882  19.637  32.156   2.139  0.1109 -0.2409 -0.1149
79867W        W22883  23.503  19.302  20.381  0.4214 -0.0481  0.1130
79868W        W22884  15.688  33.088  23.639 -0.2084  0.0322 -0.2855
79869W        W22885   5.150  20.788   9.230  0.1226 -0.3899 -0.1808
79870W        W22886  26.316  23.653  16.123  0.2056 -0.0130  0.0402
79871W        W22887  17.555  23.222  20.887 -0.2050  0.0649  0.1959
79872W        W22888  17.059   7.654  19.004 -0.0981 -0.1336  0.1567
79873W        W22889  11.080  21.375  13.125  0.0031  0.1031  0.2961
79874W        W22890  15.209  25.188   6.928  0.4985 -0.0691  0.2002
79875W        W22891   5.280  12.255  14.231 -0.1106  0.0964  0.2485
79876W        W22892  19.981  27.482  25.047  0.1122  0.1409 -0.0335
79877W        W22893  19.255   3.996   7.748 -0.0935 -0.0074  0.0262
79878W        W22894  24.375  13.934   4.469 -0.0377  0.0353 -0.0745
79879W        W22895   8.346  28.120  22.142 -0.0501  0.2172 -0.0765
79880W        W22896  17.305  33.146  21.640 -0.0368 -0.3210 -0.0550
79881W        W22897   1.634   2.035  26.192 -0.0276  0.1916 -0.1663
79882W        W22898   5.546   6.728  22.399  0.2016 -0.1682  0.1005
79883W        W22899  15.435  22.488  21.216 -0.1497  0.2631  0.3711
79884W        W22900   9.417  29.825  24.618 -0.1095 -0.1981  0.0814
79885W        W22901  18.035  22.130  13.753  0.2872  0.0801 -0.0253
79886W        W22902  18.344  24.738   2.650 -0.0666 -0.1122  0.0710
79887W        W22903  22.762  33.277  26.326 -0.0308 -0.0154  0.2765
79888W        W22904  16.339  31.195   1.570 -0.0143  0.3344  0.1833
79889W        W22905   5.221  33.629  25.653 -0.2031 -0.3107  0.0484
79890W        W22906  34.053  28.774   3.578  0.2064  0.2493 -0.1956
79891W        W22907  16.212   8.124  14.764 -0.1411  0.0239  0.1143
79892W        W22908  34.517  31.144  15.209 -0.1279 -0.2424  0.1288
79893W        W22909   2.552   1.066   9.350 -0.2418 -0.0391 -0.0180
79894W        W22910   4.761  21.166  22.267  0.0273 -0.0221  0.4299
79895W        W22911   9.612  29.042  21.503  0.0635  0.2706 -0.0488
79896W        W22912  15.122  24.909   0.911  0.5233 -0.0125  0.0476
79897W        W22913  28.376  31.778   9.902  0.1305  0.0577  0.2306
79898W        W22914  12.897  30.901   9.402 -0.1759 -0.0981 -0.0194
79899W        W22915   6.815  23.280   2.120 -0.0930 -0.1988  0.4013
79900W        W22916   8.411  31.272   0.657  0.2353  0.1367  0.0035
79901W        W22917  20.357  30.764  27.028  0.2039  0.1213 -0.1195
79902W        W22918  31.132  17.799  10.027  0.2706 -0.1406  0.0257
79903W        W22919  13.020  23.734  27.670  0.3555 -0.1798  0.1024
79904W        W22920  13.426   1.788  27.922 -0.1825  0.2091  0.0583
79905W        W22921  13.156   3.053  28.499 -0.1887 -0.3175  0.1899
79906W        W22922  10.452  24.242  29.216  0.0663 -0.4109  0.1332
79907W        W22923   2.849   6.536  27.028  0.1402  0.1110  0.0905
79908W        W22924  14.058  16.851   3.914  0.1063  0.3640  0.1889
79909W        W22925   1.084  33.963   2.156  0.0640 -0.1658  0.1766
79910W        W22926  16.262  31.029  19.936  0.0137  0.0081  0.3023
79911W        W22927  22.373  10.065  28.598  0.5045  0.0472 -0.0728
79912W        W22928  17.930  28.417   7.406 -0.0229 -0.3054 -0.4012
79913W        W22929   3.633  31.596   4.427  0.2738  0.0606  0.2363
79914W        W22930  23.200   5.504  28.775 -0.2883 -0.2814 -0.1208
79915W        W22931  13.327  12.020  19.712  0.1629  0.0121 -0.3293
79916W        W22932  30.133  30.502   3.507 -0.2344  0.1569 -0.3339
79917W        W22933   9.499  31.383   4.690 -0.3128  0.0044 -0.2167
79918W        W22934   5.126  29.319  27.355 -0.2825 -0.0423 -0.1469
79919W        W22935   7.116  22.707   1.361  0.1736 -0.0201 -0.0102
79920W        W22936  25.761   5.358   5.831  0.0017 -0.1906  0.0730
79921W        W22937   6.782  23.693   1.201  0.2964  0.1493  0.0780
79922W        W22938  11.721  21.590  22.866 -0.1405  0.0075 -0.1415
79923W        W22939  23.514  33.463   1.706 -0.0224  0.0746 -0.1204
79924W        W22940  17.529  11.392  17.337 -0.2254  0.1111 -0.1172
79925W        W22941  23.864  29.627  10.362 -0.0068  0.0178  0.0610
79926W        W22942   3.903  33.121  22.616 -0.2884 -0.0594 -0.3644
79927W        W22943  17.875  30.143  21.274 -0.2301  0.2763  0.0942
79928W        W22944  22.340  20.727  26.384 -0.2126 -0.2376 -0.0107
79929W        W22945  10.721  20.567   1.585 -0.0002 -0.1451  0.1182
79930W        W22946  31.947  23.120  27.009 -0.1145 -0.1664  0.0615
79931W        W22947  16.262   7.329  23.684 -0.1112 -0.0682 -0.3613
79932W        W22948   8.520  32.012  28.840 -0.0544  0.1347  0.1307
79933W        W22949  20.122   3.010   1.099 -0.1141 -0.2205  0.2885
79934W        W22950  20.770  20.824  22.051 -0.1300 -0.0325  0.3325
79935W        W22951  13.810  11.330  13.845  0.2826  0.0689  0.1541
79936W        W22952  17.413  32.791  23.806  0.0639  0.2473 -0.1923
79937W        W22953  12.965  18.240  12.504  0.0126  0.2178  0.0077
79938W        W22954  22.660  30.888  28.079 -0.0669 -0.1775  0.0734
79939W        W22955  16.132  10.412  27.096 -0.0603 -0.2529  0.1227
79940W        W22956  34.160   8.235   0.934 -0.1005 -0.0242  0.1517
79941W        W22957  18.932  18.128   5.126 -0.0344  0.0082  0.1283
79942W        W22958  30.353  12.231   0.595  0.1373 -0.0326  0.1675
79943W        W22959  16.025  10.568  25.129  0.1554  0.2969  0.2947
79944W        W22960  14.768  20.920  25.368  0.3086 -0.0922 -0.2622
79945W        W22961  18.336  30.231   0.213 -0.2194  0.1391 -0.1456
79946W        W22962  17.871  25.931  17.064 -0.0291 -0.0240 -0.0591
79947W        W22963  24.381  32.154  25.196  0.3505  0.2972 -0.2087
79948W        W22964  18.251  18.334  27.643 -0.0425  0.0854 -0.0862
79949W        W22965  32.273   9.913  18.769 -0.0116  0.0947 -0.2259
79950W        W22966  28.654  17.859  27.749  0.1466  0.1889  0.1181
79951W        W22967  15.008  29.170   6.939  0.1819 -0.1885 -0.3678
79952W        W22968  19.196  25.132   7.837  0.2045  0.2716 -0.0326
79953W        W22969  12.526  18.416  12.866  0.2113 -0.2291  0.0728
79954W        W22970   6.503  27.402   0.014  0.0372  0.3064  0.2282
79955W        W22971  10.580  16.936  18.391  0.1030  0.3547 -0.4480
79956W        W22972  20.927  27.920   4.215 -0.2625  0.1094 -0.1202
79957W        W22973  11.161  21.339  21.736 -0.1183 -0.0715  0.1613
79958W        W22974  12.211  27.450  17.654  0.0647  0.1608 -0.1179
79959W        W22975  18.307  26.674   4.595  0.0882  0.2053 -0.1904
79960W        W22976  21.879   4.458  10.332  0.0756  0.2604  0.0001
79961W        W22977  33.864  33.375  22.138  0.0154 -0.0365 -0.0099
79962W        W22978  13.388  28.102   7.465 -0.2158  0.1160  0.3339
79963W        W22979  25.335  30.053   8.684 -0.0256  0.0305 -0.2066
79964W        W22980   0.038  14.440  23.344  0.2925  0.3780  0.1194
79965W        W22981  27.497   5.032  19.856 -0.1647 -0.2578 -0.1674
79966W        W22982   3.249  34.229  18.225  0.0183 -0.0576  0.2159
79967W        W22983   8.246  13.820  26.354  0.0427 -0.1682  0.0498
79968W        W22984  28.948   1.415  20.343  0.1572 -0.0585  0.3733
79969W        W22985  15.527  21.213  22.664  0.0830 -0.2265  0.2667
79970W        W22986  27.508  31.879  20.035 -0.2715 -0.2277  0.1114
79971W        W22987  17.554   4.448   1.057  0.0532 -0.2324  0.2817
79972W        W22988  14.018  25.907   7.916  0.0436 -0.0036  0.2583
79973W        W22989  11.515  19.003   7.822  0.0430  0.1861 -0.1261
79974W        W22990   1.204  16.077  21.408  0.3044  0.0357 -0.2299
79975W        W22991  21.325   2.157  28.187 -0.2563 -0.0205 -0.0663
79976W        W22992   7.303  28.596   6.190  0.1517 -0.2035  0.1419
79977W        W22993  19.235  17.757  14.328 -0.0070  0.3410 -0.1340
79978W        W22994  13.760  15.851  28.238  0.2185  0.0001 -0.0648
79979W        W22995  14.423  29.861  22.689  0.0411  0.2310 -0.1789
79980W        W22996  30.890  24.887  27.027  0.1633  0.2958  0.3284
79981W        W22997  21.489  17.460  15.964  0.0378  0.0978 -0.0184
79982W        W22998   1.279  24.147  20.730 -0.0587 -0.1342 -0.2341
79983W        W22999  20.094  11.882  19.257 -0.1010 -0.0906 -0.0546
79984W        W23000   9.160  29.650  19.506  0.1459  0.0420  0.0857
79985W        W23001   4.670  10.002   3.956  0.3133  0.1274  0.0127
79986W        W23002  33.348  19.461  27.283  0.3293  0.3164 -0.2607
79987W        W23003  21.036  32.759   2.538  0.0081 -0.0501 -0.1852
79988W        W23004  15.387  32.644  26.105 -0.3242 -0.1077 -0.2352
79989W        W23005  24.352  23.063  20.876  0.2478  0.0967 -0.1348
79990W        W23006  16.885  34.158  25.261  0.1047  0.3246  0.0656
79991W        W23007  22.507  33.063  23.692  0.1745 -0.0065  0.1137
79992W        W23008   0.277  32.885  27.908 -0.0278  0.3652  0.1585
79993W        W23009  19.567  25.382  23.609  0.1065  0.1635 -0.1433
79994W        W23010   2.901  25.889   1.821  0.5420 -0.2299  0.0016
79995W        W23011  33.565  32.165   2.722  0.4855  0.2595  0.2009
79996W        W23012   4.808  29.428  19.177  0.3107 -0.2810 -0.0507
79997W        W23013  28.072  26.014  21.006  0.2004 -0.0993  0.1758
79998W        W23014  15.709   8.101  26.045 -0.2445 -0.0268 -0.1205
79999W        W23015  19.848  19.207   6.320 -0.3495 -0.2719 -0.0085
80000W        W23016  17.111  16.601   1.785  0.0415  0.0673  0.1294
80001W        W23017   7.281  15.413  17.513 -0.3243 -0.1870 -0.0447
80002W        W23018   8.934  22.918  16.693 -0.1108 -0.1534 -0.1356
80003W        W23019  16.942  23.669  25.390  0.0166  0.0676 -0.0772
80004W        W23020   4.785  22.010  18.294  0.1550  0.0575 -0.0819
80005W        W23021   0.076  26.842  21.078 -0.0874 -0.1851 -0.1032
80006W        W23022   6.175  17.600  19.614  0.1113  0.1709 -0.0909
80007W        W23023  25.980   7.067   8.440  0.0926 -0.2138 -0.1910
80008W        W23024   5.280  26.855  24.446 -0.0389 -0.1793 -0.2506
80009W        W23025  10.337  23.736  25.675 -0.3015  0.0249 -0.0518
80010W        W23026  33.222  21.152   0.534  0.0024 -0.2121  0.0480
80011W        W23027  12.519  23.036  17.156  0.0170  0.1738  0.2714
80012W        W23028  26.702   3.168  23.393 -0.3920  0.0786  0.1820
80013W        W23029  18.492  19.348   5.001  0.1452  0.1068  0.1003
80014W        W23030  11.260   3.156   1.473 -0.2059  0.0059  0.0559
80015W        W23031  18.547  15.512  11.768 -0.1169 -0.0970  0.0188
80016W        W23032   1.153  31.083  20.641 -0.0751  0.1665 -0.2181
80017W        W23033   5.602  32.943  19.663  0.1652 -0.2921  0.2719
80018W        W23034  12.054  17.931   7.981 -0.1886  0.0281 -0.1232
80019W        W23035  10.180   0.243  24.527  0.1170  0.1526  0.3967
80020W        W23036  13.909  27.708   4.224  0.3795 -0.2395  0.1102
80021W        W23037   2.402  22.445  21.779 -0.1818 -0.0269  0.1176
80022W        W23038  16.861   2.420   2.896  0.1167 -0.0318 -0.4347
80023W        W23039  10.579   8.410  14.724 -0.0726 -0.0050 -0.0172
80024W        W23040  26.278  18.600   8.469 -0.1245 -0.2617  0.0110
80025W        W23041  13.578  12.888  28.736  0.1255 -0.1038 -0.1784
80026W        W23042  14.769   9.944   6.371 -0.0448  0.2933 -0.0793
80027W        W23043  12.280   4.351   9.244  0.0504 -0.4293 -0.0607
80028W        W23044   9.391  19.538  25.879  0.2820 -0.2707  0.0359
80029W        W23045  31.069  24.795   1.088  0.1366 -0.0265  0.0216
80030W        W23046  26.664  30.614   5.111 -0.0664 -0.1671  0.1945
80031W        W23047  14.224   9.034   2.962  0.2158  0.0317 -0.0389
80032W        W23048  19.654  26.770  19.106 -0.2459  0.2215 -0.1078
80033W        W23049  13.049  10.206  23.143  0.2563 -0.3020 -0.0538
80034W        W23050  17.889  32.246  25.939  0.0010  0.0830  0.1267
80035W        W23051   8.884  11.885  28.311  0.1560  0.0524  0.2401
80036W        W23052  25.951  15.752   9.776 -0.1085 -0.0607  0.0372
80037W        W23053  14.609   7.324  17.862  0.0194  0.0954  0.0396
80038W        W23054   6.938  25.429   4.091 -0.1476 -0.0551 -0.0195
80039W        W23055  27.858   0.771   5.232 -0.1630  0.1281  0.2408
80040W        W23056   1.866  20.820  16.237 -0.2972 -0.1065  0.1366
80041W        W23057  13.876  13.675  19.510 -0.3738 -0.0653  0.0243
80042W        W23058  29.250  32.206  20.056  0.0907  0.0524 -0.0129
80043W        W23059   0.888  22.881  15.777  0.1551 -0.0743 -0.0840
80044W        W23060  20.903  18.217   1.154  0.0557  0.0951  0.0520
80045W        W23061   5.998  16.689   0.794 -0.0706 -0.0339  0.0305
80046W        W23062  33.202  10.126  25.512 -0.0343  0.0614 -0.4822
80047W        W23063  20.086  24.587   5.499 -0.3872 -0.2046 -0.1411
80048W        W23064  17.079  30.369  19.636  0.1825 -0.0332 -0.0160
80049W        W23065  17.420  32.959   7.662 -0.0373  0.2424  0.0423
80050W        W23066   0.792   7.573  27.922 -0.0727  0.2679  0.2117
80051W        W23067  14.003  27.780  17.464 -0.2996  0.0721 -0.0557
80052W        W23068  33.680   0.048   1.678  0.0355  0.1956  0.1809
80053W        W23069  16.910  17.199  12.255 -0.2106 -0.0257  0.2113
80054W        W23070   8.795  22.482  28.705  0.0593 -0.2175  0.0401
80055W        W23071   8.021   1.229  29.298  0.3893 -0.0346  0.0120
80056W        W23072  11.529  23.208  26.930 -0.1842  0.2028 -0.1304
80057W        W23073  13.683  16.529  26.824  0.1322 -0.1760  0.3379
80058W        W23074   2.349  21.963  23.433 -0.2592 -0.0766 -0.3505
80059W        W23075  21.672  20.987  28.857 -0.0181  0.1211 -0.3665
80060W        W23076   6.548  13.594  14.339  0.0206 -0.2226 -0.2824
80061W        W23077  19.074   0.496   3.469  0.1022  0.1575 -0.0994
80062W        W23078  21.975   9.152  23.589  0.0261  0.0927 -0.2411
80063W        W23079  15.960  28.783  20.237 -0.0036 -0.1969  0.0139
80064W        W23080  13.509  19.448  13.389 -0.1792  0.3531  0.0010
80065W        W23081  16.498  29.016   0.825 -0.2140 -0.0311 -0.0181
80066W        W23082  27.506  14.989  22.708 -0.0970 -0.1046 -0.1009
80067W        W23083   3.999   8.266  28.284 -0.4294 -0.0010  0.1124
80068W        W23084   1.154  31.210   4.873 -0.1422 -0.0328 -0.0339
80069W        W23085  17.397  22.628  28.017 -0.0804  0.1062  0.3380
80070W        W23086  26.656  30.771   4.604 -0.0032 -0.0056 -0.0992
80071W        W23087   4.077  20.659  18.828  0.2064  0.0074  0.1113
80072W        W23088  18.907  21.260   1.471 -0.1222  0.1146  0.0548
80073W        W23089  16.408  26.368   0.026 -0.2127 -0.0953 -0.1784
80074W        W23090  20.530  14.874  11.388  0.0136  0.1338 -0.2043
80075W        W23091  10.494   2.177  27.981 -0.1503 -0.2612  0.0169
80076W        W23092   2.871  28.500   1.168  0.3334  0.0203 -0.0754
80077W        W23093  15.403   1.921   5.491 -0.0938  0.1459 -0.3510
80078W        W23094  14.495  30.268  20.491 -0.1659 -0.0483 -0.0920
80079W        W23095  12.884  27.215   5.063  0.1888  0.0939 -0.0499
80080W        W23096  10.484   9.660   4.120 -0.1804 -0.0263  0.1650
80081W        W23097  30.024  27.693   9.813 -0.0098 -0.2583 -0.2183
80082W        W23098  15.662  33.877   0.545 -0.1201  0.1148  0.2234
80083W        W23099  20.347  26.473   5.392  0.2193 -0.0500 -0.3353
80084W        W23100  16.111  23.882  28.148 -0.0890 -0.4293  0.1168
80085W        W23101  32.022   9.834   4.470  0.2082  0.0989  0.3125
80086W        W23102  22.843  26.980   3.149 -0.2329  0.1761  0.1075
80087W        W23103  33.966  20.235  17.398  0.2438  0.1402 -0.1353
80088W        W23104  24.482  28.108  10.067  0.1210  0.1988 -0.0943
80089W        W23105   7.227  23.132   7.593  0.0210  0.1104 -0.1659
80090W        W23106   6.141  32.092  16.032  0.0781  0.0390 -0.1314
80091W        W23107  19.422  21.585   5.473  0.0220  0.1556 -0.1131
80092W        W23108   8.352   8.277  18.588  0.1771  0.1318  0.0450
80093W        W23109  11.669   3.424  22.401  0.0674 -0.0621 -0.1363
80094W        W23110  21.659   1.561  25.315 -0.0455 -0.0003  0.2130
80095W        W23111  12.255  10.063  24.951 -0.0178 -0.1494  0.2682
80096W        W23112   9.254  20.212  20.907 -0.3271 -0.0343 -0.3086
80097W        W23113  19.160  14.972  21.880  0.1216  0.0293  0.1229
80098W        W23114  21.055  23.091  14.515 -0.1692 -0.2221 -0.1051
80099W        W23115  13.289  24.583   6.371 -0.2843 -0.0152 -0.0916
80100W        W23116  20.523  30.097   2.300  0.0127  0.1487  0.0670
80101W        W23117  11.076  24.545  17.691 -0.1527  0.2456 -0.2052
80102W        W23118  18.038  29.478   6.487 -0.0265 -0.0279 -0.0674
80103W        W23119  29.027  24.735  28.796 -0.0030 -0.1456 -0.3000
80104W        W23120  12.861  32.198   1.142  0.3784 -0.0177  0.1758
80105W        W23121  17.949  18.683   4.510 -0.1598  0.1160  0.0627
80106W        W23122  18.173   3.814  23.335  0.1507 -0.2205  0.1456
80107W        W23123  16.850   4.195  10.417  0.3201  0.1968 -0.4510
80108W        W23124  32.423  27.927  17.351  0.0930 -0.0341 -0.2422
80109W        W23125  15.490   6.882   8.288  0.4132  0.1290 -0.0490
80110W        W23126  32.661   1.347  20.087  0.1943 -0.2023 -0.1028
80111W        W23127  15.038  26.049  27.380  0.0803 -0.1119 -0.3614
80112W        W23128  19.644  30.160  28.861  0.0907 -0.2348 -0.2694
80113W        W23129  26.358  27.285   1.668 -0.3280 -0.0354  0.0293
80114W        W23130  17.943  31.080  16.825 -0.0569 -0.3366  0.1488
80115W        W23131   7.912  20.999  26.234  0.1907 -0.1777 -0.0291
80116W        W23132  32.484  17.623  17.049 -0.0861 -0.0222 -0.1251
80117W        W23133  16.517  31.657  21.529  0.0795  0.1147  0.2156
80118W        W23134  30.325  25.104   3.862  0.1772  0.1796  0.1017
80119W        W23135  26.811  23.827  22.273  0.1491 -0.3131 -0.0464
80120W        W23136  27.971  18.113   4.917 -0.1240  0.1621 -0.0458
80121W        W23137  16.389  29.062  21.103 -0.2647 -0.0630  0.2557
80122W        W23138  15.936  24.165  22.380 -0.2627 -0.0771  0.0569
80123W        W23139  24.229  17.827  25.409 -0.2146 -0.0615  0.1683
80124W        W23140   3.073  27.779  10.647  0.0227  0.3288  0.0210
80125W        W23141  16.110  20.204   7.711 -0.2715  0.1420  0.1910
80126W        W23142   0.723  24.254   1.961  0.1827 -0.0272 -0.0354
80127W        W23143  24.713   5.724  14.764 -0.1171 -0.3077  0.1970
80128W        W23144  27.079  30.668  21.445 -0.0011 -0.1708  0.1831
80129W        W23145  17.700  31.188   3.425  0.2812  0.0001  0.1880
80130W        W23146  15.447  29.365   3.405 -0.3930  0.1523 -0.1468
80131W        W23147  17.263  22.551   8.436  0.1392 -0.1763  0.4024
80132W        W23148  23.715  30.520  26.522  0.2202  0.0941 -0.0568
80133W        W23149  14.529  26.142   1.277  0.0269 -0.2384  0.0999
80134W        W23150  22.905  29.089   0.925 -0.0714 -0.0695  0.0499
80135W        W23151  11.316  33.212   0.543  0.3418  0.1173  0.3366
80136W        W23152  21.995  27.652  26.144  0.0694 -0.0662 -0.0308
80137W        W23153  34.613  25.933   8.946  0.2739  0.0818  0.0188
80138W        W23154  26.708  17.506  20.668  0.1424 -0.1442  0.2665
80139W        W23155  14.316  32.542   0.556  0.1660 -0.0102 -0.1784
80140W        W23156  16.370  23.275  14.058  0.2085 -0.0623 -0.2018
80141W        W23157  22.237  30.681  26.170 -0.0428 -0.0986  0.0224
80142W        W23158   8.239  33.054  29.133  0.1590 -0.0016  0.0779
80143W        W23159  22.758  18.950   9.266  0.3037  0.2181 -0.3035
80144W        W23160   5.523   1.795  27.158  0.4223  0.3236 -0.1331
80145W        W23161  25.162  27.247   0.479  0.3275  0.1568  0.0580
80146W        W23162  27.204  15.586  16.628  0.0083 -0.0190  0.1028
80147W        W23163  13.047  24.590  27.835  0.0049  0.1378  0.1460
80148W        W23164  13.471   3.362   6.922 -0.4107  0.0504 -0.0013
80149W        W23165  14.893  21.883  26.010 -0.1605 -0.0461 -0.1987
80150W        W23166  29.777  27.536  11.358  0.0293 -0.1772  0.1086
80151W        W23167  10.783  25.982   3.720  0.1185  0.2211  0.1674
80152W        W23168  10.984  34.169  10.228 -0.0967 -0.1701  0.1402
80153W        W23169  10.551  20.880  17.120 -0.1506  0.0837  0.0720
80154W        W23170  34.380  25.041   0.941 -0.2074 -0.1261  0.1734
80155W        W23171   7.008  33.231  24.411  0.1886  0.0411  0.1638
80156W        W23172  16.340  18.643  22.906  0.2875 -0.0588 -0.2157
80157W        W23173  24.963  20.707  14.768 -0.2763  0.2973  0.0274
80158W        W23174  23.305  21.619   6.686 -0.5286  0.1756  0.1880
80159W        W23175  17.542  31.834  14.777  0.2695  0.2073  0.1500
80160W        W23176  20.248   8.279  20.927 -0.2854 -0.1789  0.0387
80161W        W23177   9.836  24.212   1.468 -0.0574 -0.1927  0.3304
80162W        W23178  24.015  17.544  28.359 -0.1805  0.2088  0.2230
80163W        W23179  13.606  24.285   1.050 -0.0939 -0.0471 -0.0009
80164W        W23180  11.095  18.068  16.539 -0.2737  0.0763  0.0068
80165W        W23181  31.251  33.878   8.044 -0.1606 -0.0683  0.0094
80166W        W23182   7.406  26.041   5.699 -0.0816  0.4458 -0.1532
80167W        W23183   9.432  28.965  14.626  0.0183  0.1175  0.0802
80168W        W23184   3.496  18.896  16.850  0.0815 -0.0025 -0.1738
80169W        W23185  12.354  16.186   5.164  0.2272 -0.1482 -0.0943
80170W        W23186  32.042  32.297  15.992  0.2097  0.1967 -0.0658
80171W        W23187  19.301  33.146  18.511  0.1616  0.1250  0.2006
80172W        W23188  24.453  28.415   0.995  0.0854  0.1152  0.0507
80173W        W23189   0.698  27.769  23.382  0.1681 -0.0903 -0.0169
80174W        W23190  14.967  27.941  25.454  0.0355  0.0935  0.1645
80175W        W23191   6.004  24.280  15.359  0.2487 -0.2004 -0.0733
80176W        W23192  20.983  26.042   4.783  0.0020 -0.2174 -0.1377
80177W        W23193  23.985  28.580  24.890  0.1115  0.1443 -0.1831
80178W        W23194  15.072  33.165  15.962  0.2230 -0.0204  0.3686
80179W        W23195  10.383  18.566  21.745  0.1592  0.0383 -0.1141
80180W        W23196  18.790  20.067  26.518  0.1127 -0.0149 -0.0636
80181W        W23197  28.900  21.451  15.892  0.0838  0.0661  0.1379
80182W        W23198  15.104  11.148  19.495 -0.0061 -0.2568  0.0671
80183W        W23199   7.437  10.518  16.345 -0.1942  0.0916  0.0137
80184W        W23200  18.116   1.109  21.397  0.1893 -0.4232 -0.5059
80185W        W23201  25.718  31.966  23.168 -0.0338 -0.0346 -0.3554
80186W        W23202  12.555   2.724  14.517  0.0102  0.4718 -0.1401
80187W        W23203  11.126  19.125  16.553 -0.0403 -0.1241 -0.1145
80188W        W23204   3.446   8.066   1.901  0.3181 -0.0524 -0.1960
80189W        W23205  10.064  20.057  23.750  0.3752 -0.3880  0.4376
80190W        W23206  13.414  19.942  26.450  0.0795 -0.0561  0.0166
80191W        W23207   6.741  16.905  15.931  0.2237  0.3673 -0.5068
80192W        W23208  16.490  17.815  26.357 -0.0033  0.0828 -0.2591
80193W        W23209  18.639  24.550  16.516 -0.2678  0.0434 -0.4123
80194W        W23210   8.121  19.922   8.371  0.2096 -0.5713 -0.2569
80195W        W23211  20.504  26.833   9.747 -0.1097  0.2479  0.0890
80196W        W23212   7.969  33.291   7.058 -0.1877  0.1141  0.3604
80197W        W23213  24.107   3.207  19.123 -0.0434 -0.0754 -0.1353
80198W        W23214   3.306   2.683   4.422  0.1669  0.2855 -0.0341
80199W        W23215  23.754  34.769  18.437 -0.1567  0.1578 -0.1155
80200W        W23216  25.819  27.177   2.348 -0.2764  0.1192  0.0417
80201W        W23217   7.105  17.477  24.155  0.3919  0.2648  0.3526
80202W        W23218  16.427  30.609   3.471 -0.0038  0.1376  0.1542
80203W        W23219   1.294  34.233  23.308 -0.0232  0.1492 -0.0360
80204W        W23220  23.241   2.140  28.479  0.2584  0.2817 -0.1505
80205W        W23221  32.533  20.001  26.046 -0.2403 -0.2471 -0.2192
80206W        W23222  11.095   4.366  26.156  0.0372  0.1160  0.0160
80207W        W23223  15.764  31.445   5.038  0.1304  0.2045  0.3530
80208W        W23224  10.537  28.208   6.499 -0.0631 -0.2283  0.1558
80209W        W23225  17.528  18.203   7.823 -0.0711  0.0184 -0.1271
80210W        W23226   8.444  14.238  26.586 -0.1619  0.0133 -0.1254
80211W        W23227   9.408   8.759  24.719  0.2768  0.1283 -0.0309
80212W        W23228  33.194  20.053  20.579 -0.2443  0.2456  0.2617
80213W        W23229  12.371  15.964  21.497 -0.0077 -0.1713 -0.0748
80214W        W23230  18.573  20.286   3.760 -0.0607  0.2519  0.0705
80215W        W23231  21.713  17.177  26.980 -0.2198 -0.1475  0.3907
80216W        W23232  22.450  18.757  24.246 -0.3106  0.0780 -0.2074
80217W        W23233  21.992   1.346  18.191  0.0325 -0.2638  0.0492
80218W        W23234  13.312  22.831  21.387 -0.3609 -0.1456  0.3289
80219W        W23235  17.004  12.325   8.447 -0.2577 -0.0407 -0.0575
80220W        W23236  27.087  26.424  27.116  0.0345  0.0138  0.2171
80221W        W23237  34.541   1.020   8.807  0.0600 -0.0687 -0.3740
80222W        W23238   5.339   1.618   5.546  0.2411 -0.2444 -0.1085
80223W        W23239  13.165   5.445   8.875 -0.0076 -0.1055  0.0318
80224W        W23240  23.935  22.359   5.445  0.2740  0.0146  0.1037
80225W        W23241   7.416  21.006  22.612 -0.0854 -0.1921  0.0042
80226W        W23242   8.406   1.051  14.663  0.2181  0.0626  0.0896
80227W        W23243  15.293  24.542  18.518  0.0998 -0.1075 -0.0988
80228W        W23244  20.941  26.218   5.699 -0.1581 -0.1416  0.1204
80229W        W23245  20.143  27.345  25.874 -0.1889 -0.0796  0.0354
80230W        W23246  20.683  22.230  24.140 -0.1153 -0.3336 -0.1283
80231W        W23247  33.102  22.064  21.891 -0.3686 -0.1957 -0.0020
80232W        W23248  18.250   4.133   1.887  0.1145  0.1663 -0.2145
80233W        W23249   5.394  20.084  22.543 -0.2327 -0.0205 -0.0398
80234W        W23250  21.156  13.093  17.901 -0.0444 -0.3209  0.0611
80235W        W23251  15.732  27.971  16.532 -0.1202 -0.0427 -0.0020
80236W        W23252  16.391  26.711   1.998 -0.0617 -0.2621 -0.2425
80237W        W23253  21.661   5.592   1.890  0.0560 -0.2656 -0.2365
80238W        W23254  14.402  15.385  26.227 -0.2854 -0.1857 -0.1335
80239W        W23255  19.115  22.423   0.530 -0.3788  0.1008  0.1071
80240W        W23256   8.365  33.965   0.484  0.2546  0.0630 -0.3864
80241W        W23257  14.865  31.753  22.625  0.2443  0.1272  0.0698
80242W        W23258  13.497  16.973  13.420  0.0602 -0.0971 -0.1087
80243W        W23259  13.699  24.563  15.988  0.3033  0.3479  0.1089
80244W        W23260  27.625  33.964   0.592 -0.0131 -0.0246 -0.1469
80245W        W23261  24.538   4.023   4.327 -0.1280 -0.0889  0.2173
80246W        W23262  24.292  28.228   1.447 -0.1854  0.0400  0.2417
80247W        W23263   5.778  28.572  23.044  0.2656  0.0707 -0.2015
80248W        W23264  24.019  26.745  10.084 -0.3133  0.0448 -0.1200
80249W        W23265  13.309  19.028  24.165 -0.0680 -0.0520  0.2700
80250W        W23266  17.091   9.736   8.887 -0.0768 -0.0587 -0.1071
80251W        W23267  15.104   5.230   6.384 -0.1171 -0.1968 -0.2768
80252W        W23268  15.466  24.351  23.912 -0.0697  0.2430 -0.0566
80253W        W23269  29.058  20.959  27.489 -0.1133  0.0919  0.1945
80254W        W23270   5.320  31.905   5.956  0.2498 -0.0688  0.4096
80255W        W23271   1.377  32.077  28.298 -0.1988  0.0269  0.1669
80256W        W23272  23.167  20.694   2.161 -0.3817 -0.0702 -0.2254
80257W        W23273  12.507   3.721   0.706  0.1417 -0.0375  0.0411
80258W        W23274  20.205  25.968  25.229 -0.2921 -0.0719  0.1719
80259W        W23275  22.085  22.531  28.502 -0.0971 -0.2102 -0.0961
80260W        W23276  22.297  26.733  28.144  0.3238  0.1061  0.1831
80261W        W23277  17.847  33.945   5.978  0.1116 -0.0210  0.1832
80262W        W23278  22.753  33.925  25.774 -0.3766 -0.0030 -0.2216
80263W        W23279  16.029  13.052   6.904 -0.0935 -0.1179 -0.2899
80264W        W23280  32.259  34.336   4.393 -0.2631  0.3764 -0.0787
80265W        W23281   9.904  32.146   4.605 -0.2169  0.1410 -0.1492
80266W        W23282   3.504  25.537  27.624  0.2037 -0.0949  0.1680
80267W        W23283  19.256  26.300  26.084  0.1653 -0.0744  0.1430
80268W        W23284  11.184  18.597  22.492  0.3430  0.0810 -0.1549
80269W        W23285   7.277  28.101   2.354 -0.4416  0.0268  0.2425
80270W        W23286  13.079  33.083  18.191  0.3013  0.2051 -0.1635
80271W        W23287  29.102  29.790  19.757 -0.2361 -0.0793 -0.1327
80272W        W23288  29.145  22.877  26.292 -0.1667 -0.0977 -0.2791
80273W        W23289  14.129  23.075   3.913 -0.0308 -0.1288 -0.3776
80274W        W23290  13.319  25.785  20.242 -0.2460  0.3246  0.1259
80275W        W23291   2.841  28.291  22.680  0.2464 -0.1808  0.0153
80276W        W23292  12.409  30.552  17.853 -0.0026 -0.1981 -0.2219
80277W        W23293   0.168  27.987   7.132 -0.3604 -0.0681 -0.2480
80278W        W23294  19.309  18.795   5.037  0.1478 -0.1707  0.0190
80279W        W23295  14.271  28.932  24.142  0.3235  0.1940  0.1006
80280W        W23296  26.782  19.325  16.291  0.2335  0.0501  0.6067
80281W        W23297   5.310   3.853  18.789  0.3417 -0.3450  0.3681
80282W        W23298  16.551  33.548   5.946 -0.2100  0.0433 -0.2988
80283W        W23299  16.445  23.690   8.337  0.2759 -0.0894  0.0641
80284W        W23300  23.964  20.459   1.921 -0.0210  0.1400  0.0596
80285W        W23301  22.398  26.686   2.419 -0.0288  0.0386 -0.0187
80286W        W23302  17.677  25.480   8.739 -0.0147  0.1204 -0.1534
80287W        W23303   8.127  15.888   6.852 -0.2304  0.0926  0.1056
80288W        W23304  24.427  29.055  10.058 -0.0571  0.1565 -0.3964
80289W        W23305  17.910   2.394   1.599  0.0451 -0.2453 -0.0243
80290W        W23306  21.209  23.839   0.825 -0.1481 -0.3476  0.0084
80291W        W23307   2.841   6.300   2.556 -0.2908 -0.0245 -0.0402
80292W        W23308  15.807  23.869  28.986 -0.0489  0.0587 -0.3833
80293W        W23309  25.171  20.119  21.585 -0.0055  0.0794 -0.2369
80294W        W23310   8.993  17.326  28.499 -0.1193  0.2265 -0.0905
80295W        W23311  25.425   2.980   9.462  0.0322 -0.1113 -0.1554
80296W        W23312  19.417  19.153  23.465  0.2069  0.1511 -0.4596
80297W        W23313   7.132  16.912   4.208 -0.4258 -0.2727  0.1439
80298W        W23314  21.203   0.682  19.677  0.1715 -0.2469  0.2902
80299W        W23315  15.078   2.040  23.826 -0.1346  0.3065 -0.0466
80300W        W23316   7.469   8.091  21.378  0.1854 -0.0524  0.0670
80301W        W23317   5.220  11.042   7.765 -0.0286  0.0897 -0.1191
80302W        W23318  23.437  27.286  23.190 -0.0297 -0.1658 -0.3435
80303W        W23319  25.803  16.824   9.466  0.2822  0.0721 -0.1593
80304W        W23320  12.942   4.875  24.279  0.1471 -0.2616  0.2567
80305W        W23321  29.283  24.825   8.955  0.1033 -0.2123 -0.1039
80306W        W23322   7.291   7.551   5.506  0.0299  0.3123 -0.1460
80307W        W23323   5.471  28.953  16.329 -0.3921  0.1309  0.3030
80308W        W23324  11.740  28.493   1.002  0.0462 -0.0610  0.0156
80309W        W23325  24.301  11.719   8.984 -0.1141 -0.1019  0.2004
80310W        W23326  15.621  18.995   7.114  0.0893  0.2815  0.0125
80311W        W23327  19.352  26.903  28.540 -0.2054 -0.1449  0.0786
80312W        W23328   5.618  19.460   8.368  0.2566  0.0174 -0.1104
80313W        W23329   1.622  13.448   0.966 -0.0871 -0.2748 -0.0109
80314W        W23330  18.633  27.743  27.100 -0.0365  0.3108 -0.2004
80315W        W23331  14.460  23.573  18.400 -0.4124  0.2646 -0.0384
80316W        W23332  16.436  31.718  27.675  0.0385  0.0260  0.4267
80317W        W23333  22.871  24.856   3.716 -0.0030  0.1724 -0.2748
80318W        W23334  14.488  32.372  27.323  0.0466 -0.2584 -0.3642
80319W        W23335   6.483  23.402  17.475 -0.0417 -0.0713  0.1987
80320W        W23336  28.431  11.311  28.870 -0.0551  0.1360 -0.1241
80321W        W23337   9.625  30.923   5.404 -0.1395 -0.0691 -0.0363
80322W        W23338  11.792  10.757   5.556  0.0588 -0.0787 -0.1221
80323W        W23339  19.451  26.873  15.926  0.0703  0.0774 -0.0943
80324W        W23340  11.948  25.462   1.262 -0.2199  0.1415  0.2789
80325W        W23341  25.110  22.822  20.834  0.0946  0.4514  0.0640
80326W        W23342  22.790   1.165   5.612 -0.0461  0.1060  0.1604
80327W        W23343   4.877  26.939   2.410  0.0269  0.1797  0.2605
80328W        W23344  23.099  10.174   8.289  0.1109  0.2453 -0.3935
80329W        W23345  18.165  26.992   1.062 -0.1825  0.3570  0.0508
80330W        W23346  21.321  15.429   6.407 -0.1046 -0.3391  0.0277
80331W        W23347  23.368  34.205  17.383 -0.2285  0.0696  0.4707
80332W        W23348   9.281  17.708   4.529 -0.3865  0.0511 -0.1286
80333W        W23349  18.144  30.828  27.645  0.0772 -0.2427  0.1567
80334W        W23350   0.083  25.101   6.311 -0.1659  0.0850 -0.0991
80335W        W23351  17.927   7.816  21.514  0.0719  0.0829 -0.0906
80336W        W23352  25.069  19.843   7.724  0.0292  0.1117  0.1730
80337W        W23353  19.159  29.021   2.281  0.1656  0.0799  0.2725
80338W        W23354  22.118  34.045   1.380  0.3039 -0.0582 -0.1101
80339W        W23355   6.496  19.145   8.453 -0.1200  0.0804 -0.1704
80340W        W23356   8.567  23.573   4.014 -0.1576 -0.1410 -0.0470
80341W        W23357  22.201  28.469  25.002 -0.0563 -0.3485  0.0972
80342W        W23358   8.870  20.715  24.411 -0.4245 -0.1765  0.0341
80343W        W23359  27.178  31.474  19.434  0.1812  0.2342  0.2091
80344W        W23360  34.476   2.788  17.150 -0.0628  0.4916 -0.0728
80345W        W23361  10.818   7.441   0.442  0.2111  0.1601 -0.0494
80346W        W23362   5.099  33.653  15.697 -0.1247  0.2382  0.1905
80347W        W23363  24.609   3.495  14.781 -0.1102 -0.1497 -0.1206
80348W        W23364  18.025  12.941  11.952 -0.0284  0.0905 -0.4193
80349W        W23365  10.271  17.617  15.572 -0.1315 -0.0122 -0.2965
80350W        W23366   6.375   8.868  24.198  0.1513  0.3486  0.1326
80351W        W23367   9.057  30.487  14.651  0.0194  0.0689 -0.0148
80352W        W23368  11.333  26.952  23.428  0.1425 -0.1418 -0.1142
80353W        W23369  25.194  26.746  15.929 -0.1718 -0.1764 -0.1477
80354W        W23370  16.714  30.141  28.708 -0.1004 -0.2282 -0.0874
80355W        W23371  19.323  25.060  19.237 -0.1507  0.0151 -0.1436
80356W        W23372  26.916  27.397  24.313  0.1766 -0.3006  0.0297
80357W        W23373  19.577  25.952  15.438  0.0340 -0.0539 -0.0381
80358W        W23374  14.164   3.971  20.858 -0.4336  0.0091 -0.4697
80359W        W23375  24.576   1.171  23.717 -0.0213 -0.2724  0.0256
80360W        W23376  20.615  28.672   4.631 -0.4566  0.1769  0.2322
80361W        W23377  30.502  24.446  29.207  0.0299 -0.1325  0.0749
80362W        W23378   3.326  33.914  20.888 -0.2161 -0.1519 -0.5296
80363W        W23379  23.003  32.819  20.366  0.3263  0.0963 -0.1598
80364W        W23380  23.127  20.290  28.543  0.0947 -0.1291 -0.2774
80365W        W23381  20.811  33.805  16.863 -0.0648  0.1626  0.3330
80366W        W23382  25.826   5.026  18.355  0.0192 -0.2960 -0.3112
80367W        W23383   2.834  30.248  22.603  0.1160 -0.1916 -0.2866
80368W        W23384  12.026   0.141  14.169  0.1726 -0.1444  0.1107
80369W        W23385  12.832  17.225  21.818  0.0238  0.0059  0.1868
80370W        W23386  21.728  23.061  20.822 -0.0869 -0.0051 -0.3075
80371W        W23387  33.107   7.708  22.508  0.0455 -0.0685  0.0300
80372W        W23388  28.374   0.104   9.716 -0.0545 -0.2882 -0.0503
80373W        W23389  26.874  33.142  27.102  0.4059  0.1318  0.3014
80374W        W23390  12.054  24.373  13.087 -0.2740 -0.1450 -0.1224
80375W        W23391   8.243  26.892  20.255  0.2230 -0.2510 -0.2190
80376W        W23392  25.836  33.270  20.945 -0.2317 -0.0503  0.0006
80377W        W23393  16.150  30.432  22.832  0.2097  0.0967 -0.4079
80378W        W23394  18.231   9.511  18.055 -0.0912  0.0426  0.2457
80379W        W23395  26.036  25.466  27.854 -0.2953  0.0604 -0.2101
80380W        W23396   2.088  33.972  15.710 -0.2314  0.1038 -0.2369
80381W        W23397   2.578  33.742  20.282 -0.0406  0.0654  0.1341
80382W        W23398  30.982   0.946  17.867 -0.0610  0.1314 -0.1996
80383W        W23399  14.709   5.461  23.926  0.1608 -0.1526 -0.3549
80384W        W23400  24.167  31.895  20.306  0.2257 -0.1420 -0.2146
80385W        W23401  18.883   3.280  18.939 -0.2382  0.1330  0.1895
80386W        W23402  23.555  31.467  15.731  0.1291  0.2678 -0.1164
80387W        W23403  15.961   1.328  17.028 -0.1589  0.0685  0.0923
80388W        W23404  22.889  32.366  27.383  0.1566 -0.2642 -0.0652
80389W        W23405  16.136  22.797  20.535 -0.1881 -0.2113  0.1500
80390W        W23406   9.488  33.408  16.818 -0.1932 -0.0711 -0.2889
80391W        W23407  15.867   7.394  15.144 -0.1051 -0.0115  0.1810
80392W        W23408  14.480  29.051  19.657  0.0058 -0.1138 -0.1324
80393W        W23409  22.992  29.702  19.369  0.0636 -0.6073  0.0614
80394W        W23410  11.315  32.493  14.623  0.3389  0.1202 -0.0650
80395W        W23411   1.745  26.534  17.449 -0.1993  0.3068  0.4727
80396W        W23412  15.402  16.738  11.193  0.0972  0.0584  0.1163
80397W        W23413  16.411  25.795  15.766  0.1669 -0.0488 -0.4431
80398W        W23414  32.513  20.806  27.194  0.1718  0.1431 -0.2709
80399W        W23415  11.573  21.517  13.187  0.2987  0.0102 -0.0866
80400W        W23416   4.375  33.270  14.951 -0.2236 -0.0145  0.0139
80401W        W23417  12.759  34.241  24.673 -0.1709  0.0484 -0.2821
80402W        W23418   6.586   9.623  22.385 -0.1045 -0.0215 -0.2116
80403W        W23419  19.338  23.322  21.394 -0.0111 -0.0160 -0.0151
80404W        W23420  24.892  34.246  20.684 -0.0145 -0.1467 -0.2970
80405W        W23421  20.905  16.493   8.337 -0.0836  0.1925 -0.3188
80406W        W23422  32.632  34.320  24.530 -0.4651  0.2020  0.0776
80407W        W23423  26.049  33.689  22.360 -0.3929 -0.1197  0.2228
80408W        W23424   6.247  34.395  23.245 -0.5951 -0.1808 -0.1895
80409W        W23425  19.286   2.464  23.655 -0.4821 -0.3691 -0.1159
80410W        W23426   4.281  14.340  18.902 -0.0059 -0.2764  0.0340
80411W        W23427  13.702  12.238  26.375 -0.1010 -0.0462 -0.2496
80412W        W23428   7.096  32.666  24.490  0.0940  0.0968 -0.2728
80413W        W23429   2.980  32.304  26.547 -0.0877  0.1916 -0.0380
80414W        W23430  12.125  25.202  27.632  0.1089 -0.1354 -0.3060
80415W        W23431  32.070   7.789  25.044 -0.0482  0.2320 -0.1590
80416W        W23432  11.467  22.069  15.395  0.2320 -0.2561  0.1347
80417W        W23433  28.843   5.675   3.678  0.1169 -0.2657  0.3135
80418W        W23434  13.817  26.992  14.654 -0.0600 -0.2172 -0.2232
80419W        W23435  27.960  11.927  21.743 -0.1659  0.1749  0.2437
80420W        W23436  11.257   3.504  15.307  0.0688 -0.2881  0.0085
80421W        W23437  30.930   5.327  24.028 -0.0665  0.0043 -0.1928
80422W        W23438  13.493  11.518  15.466  0.1393 -0.1248 -0.2123
80423W        W23439  15.699  22.182  26.992  0.0882  0.0943  0.1412
80424W        W23440  18.374  34.523  17.009 -0.0227 -0.3638  0.2436
80425W        W23441  25.919  26.245  22.573 -0.0774  0.0784  0.2100
80426W        W23442  19.563  20.418  14.196  0.1115  0.0303 -0.3402
80427W        W23443   0.023   1.555  19.225  0.2356 -0.2366 -0.2492
80428W        W23444  15.388  34.242  19.792  0.0183  0.0348 -0.0137
80429W        W23445  13.008  32.560  15.795  0.1358 -0.0566  0.2304
80430W        W23446  21.610  19.508  17.817 -0.3019  0.2691  0.0111
80431W        W23447  27.661  27.863  17.880  0.3860 -0.1895  0.1552
80432W        W23448  18.882  22.609  13.895 -0.1792  0.1207 -0.1411
80433W        W23449   3.895  22.641  23.315 -0.1015  0.0659  0.4100
80434W        W23450   6.727  21.515  21.710 -0.0341 -0.2498  0.0408
80435W        W23451  12.115   2.716  17.259 -0.0472  0.0882 -0.2606
80436W        W23452   2.043  11.219  18.325  0.1720 -0.0035  0.1429
80437W        W23453  32.340  22.906  16.584  0.0823 -0.2032  0.0620
80438W        W23454  26.431   0.214  27.870 -0.0981 -0.1163 -0.3292
80439W        W23455   2.862  12.895  20.689 -0.0636 -0.1717  0.2311
80440W        W23456  20.759  26.874  29.281 -0.0518 -0.1395  0.1388
80441W        W23457  14.198  25.823  22.374  0.1245 -0.1999  0.1005
80442W        W23458  27.198  33.004  22.173 -0.1475 -0.1757  0.2027
80443W        W23459  25.527   0.473  27.759  0.1440  0.0609  0.1433
80444W        W23460  16.369  24.480  22.476  0.0248  0.0447 -0.2068
80445W        W23461  12.282   5.968   3.045  0.0585  0.0308  0.1578
80446W        W23462  23.119  20.448   1.240  0.3863  0.2991  0.1705
80447W        W23463   6.080   5.741  16.532 -0.1711 -0.1297 -0.2719
80448W        W23464  22.714  22.625  19.913  0.0222  0.1895  0.0701
80449W        W23465   6.810   8.512  19.021 -0.3624  0.2107  0.1192
80450W        W23466  26.961   3.500  22.048 -0.5400 -0.2433 -0.0667
80451W        W23467  21.880  23.551  16.236  0.0675 -0.1453  0.0226
80452W        W23468  13.366   9.894  12.629 -0.3571 -0.1715 -0.0355
80453W        W23469  15.218  34.531  16.201  0.1333 -0.1112  0.1343
80454W        W23470  14.475   1.548  21.236  0.2162 -0.0218  0.0258
80455W        W23471  25.521   1.750  18.652  0.0517 -0.0886  0.2340
80456W        W23472  22.893  28.484  22.173  0.1422  0.1076  0.3394
80457W        W23473  23.786  11.433  21.441  0.0608  0.1769  0.1309
80458W        W23474   9.783   0.649  16.243  0.1134 -0.1288  0.0742
80459W        W23475  13.543  32.969  26.363 -0.0882  0.1115 -0.0294
80460W        W23476  14.233   2.231  18.951 -0.0409 -0.0775  0.1726
80461W        W23477  26.974  26.588  19.773 -0.0822 -0.1008 -0.1810
80462W        W23478  27.992   7.875  16.153 -0.0615  0.0795  0.0754
80463W        W23479   3.264  28.043  15.035 -0.1413  0.2548  0.1567
80464W        W23480  21.695  34.173  17.634 -0.2536 -0.3186 -0.1616
80465W        W23481  16.339   3.521  20.682  0.2450  0.0587  0.0106
80466W        W23482  17.722  24.761  25.301  0.2694 -0.1614 -0.2878
80467W        W23483  14.991  28.145  20.421  0.0871 -0.2292  0.0369
80468W        W23484  31.932  33.685  25.221 -0.0940  0.1631  0.0148
80469W        W23485  27.920   5.249  16.974  0.1617 -0.0427 -0.1059
80470W        W23486  16.081   2.656  20.724 -0.2877  0.0246 -0.1097
80471W        W23487   8.120  26.782  19.592  0.2079  0.0616  0.1227
80472W        W23488  18.488  21.024  21.692  0.1637  0.0553 -0.4344
80473W        W23489  27.073  31.883  20.931 -0.4952 -0.0488  0.1586
80474W        W23490  25.446  26.923   1.638 -0.1381  0.0231  0.3443
80475W        W23491   4.309  29.372  15.275  0.2105 -0.2040 -0.2224
80476W        W23492  24.394   6.761  19.650 -0.1468 -0.3652  0.1077
80477W        W23493  14.297   5.640  20.074 -0.0982  0.0684  0.0355
80478W        W23494  18.742  30.244  29.171 -0.0081  0.2110 -0.1582
80479W        W23495  26.383  13.700  24.368  0.0067 -0.1092 -0.1487
80480W        W23496  20.339  19.829  24.499  0.1129 -0.0164  0.2114
80481W        W23497  20.696  28.242  24.256 -0.0020 -0.1792  0.0419
80482W        W23498  21.102   9.975  20.933 -0.2448 -0.0622  0.1100
80483W        W23499  19.527  31.851  21.359  0.2207 -0.0025  0.3192
80484W        W23500   7.063   0.698  14.968  0.2273 -0.1044 -0.1721
80485W        W23501  31.395  31.427  20.142  0.0020 -0.2868 -0.0688
80486W        W23502  11.180  16.859  13.812  0.0339 -0.1362 -0.3401
80487W        W23503  11.678  26.136  22.441  0.0253  0.1263 -0.0426
80488W        W23504  12.677  18.796   2.203  0.1655 -0.2602  0.1506
80489W        W23505   1.648   8.406  25.062 -0.1144  0.2301 -0.0358
80490W        W23506  11.281  28.603  27.292 -0.3238  0.2239  0.1206
80491W        W23507  28.070  33.326  25.057  0.3275  0.0095  0.0776
80492W        W23508  17.898  20.454  27.281  0.1524 -0.0916  0.0808
80493W        W23509  14.840  25.998  13.913  0.1015 -0.2017 -0.0313
80494W        W23510  30.545  22.982  21.448 -0.1300  0.2232 -0.2516
80495W        W23511  22.131  31.030  28.134  0.1226  0.0199  0.2412
80496W        W23512  29.135  11.839  16.930  0.0296  0.2175  0.0231
80497W        W23513  24.040  27.591  15.883  0.0291  0.1199 -0.1803
80498W        W23514  10.372  32.837  14.911 -0.1423 -0.1463  0.1591
80499W        W23515  18.401   7.070  20.962  0.0138  0.0120  0.0074
80500W        W23516  12.269   8.192  23.260 -0.1367 -0.0005 -0.1848
80501W        W23517  20.889  24.300  21.616  0.1613  0.3859 -0.0494
80502W        W23518  23.322   2.310  20.155  0.0232  0.1802  0.0357
80503W        W23519  14.087  12.092  22.188  0.2858  0.0494 -0.0050
80504W        W23520  19.322  32.807  17.755 -0.0307 -0.0462  0.2064
80505W        W23521  18.545   7.913  14.841  0.1153  0.2893 -0.1892
80506W        W23522  32.026   1.829  17.368 -0.0278 -0.0463 -0.1588
80507W        W23523  27.524  23.812  21.188 -0.2402  0.0808  0.0111
80508W        W23524   7.104  22.946  24.849 -0.2764  0.0099 -0.0491
80509W        W23525  28.504  20.450  14.468 -0.0266 -0.3298  0.0530
80510W        W23526  21.096  31.633   9.511  0.1944 -0.3148  0.1515
80511W        W23527   7.099  33.096  18.321  0.2780  0.3940 -0.3010
80512W        W23528  29.379   3.658  21.162  0.0135  0.3621  0.0655
80513W        W23529  19.401   1.559  15.782  0.2703  0.0316 -0.1234
80514W        W23530  23.937  25.135  19.792 -0.0337 -0.2667 -0.4032
80515W        W23531  21.636   9.158  22.269 -0.0306  0.4687  0.1838
80516W        W23532  18.878  10.626  17.079  0.0727 -0.0699  0.0283
80517W        W23533   5.292   2.173  24.523  0.2128  0.3905 -0.0920
80518W        W23534  34.110  26.675   1.345  0.0436 -0.0404  0.0434
80519W        W23535  19.670  19.352  16.200 -0.0330 -0.1240 -0.0732
80520W        W23536  11.678  29.014  16.897  0.0246 -0.1933  0.1363
80521W        W23537   8.206  28.342   7.730  0.2715 -0.0807  0.0446
80522W        W23538  17.371  28.956  28.202  0.1186  0.0613  0.0762
80523W        W23539  23.660  14.367  24.319  0.1106 -0.1088  0.3823
80524W        W23540  26.691  31.857  21.207 -0.0933 -0.0111 -0.0653
80525W        W23541  18.018  34.748  18.377 -0.1065  0.0501 -0.4003
80526W        W23542  23.077  21.376  24.358  0.1539 -0.3284  0.1665
80527W        W23543  11.606  12.321  21.001  0.1886 -0.1739  0.1178
80528W        W23544  27.189  25.693  25.938 -0.2951  0.1417  0.1049
80529W        W23545  11.849  22.139  27.483  0.0950 -0.0464  0.1568
80530W        W23546   1.852   1.418  21.314 -0.2608  0.0529  0.1596
80531W        W23547   7.963  30.968   6.704 -0.0853  0.0040 -0.3049
80532W        W23548  13.386   2.405  16.059 -0.0799  0.1457  0.2146
80533W        W23549  27.295   0.713  25.499 -0.2699  0.1991 -0.1756
80534W        W23550  27.284  24.822  16.719  0.2744  0.0202 -0.1402
80535W        W23551  32.570  11.899  22.991 -0.0395  0.3726 -0.0845
80536W        W23552  16.167   5.945  27.507 -0.1257  0.0745  0.0529
80537W        W23553  13.414  25.674  26.449 -0.0248  0.0605 -0.2127
80538W        W23554  30.223   0.508  24.863  0.0286  0.1643 -0.0154
80539W        W23555   6.652  25.311  21.223  0.1136  0.1164 -0.3462
80540W        W23556  29.002  29.715  25.340 -0.1856 -0.1141  0.0439
80541W        W23557  33.038  10.980  17.827 -0.1843  0.4241 -0.1012
80542W        W23558  22.868   1.289  18.263 -0.2038 -0.0599  0.2592
80543W        W23559  22.859   3.215  19.739  0.3892  0.1473 -0.0241
80544W        W23560  15.077  31.820  21.504 -0.0135  0.4574 -0.1140
80545W        W23561  16.782   5.582   1.174  0.1668 -0.1821  0.1014
80546W        W23562  25.938  23.452  29.165  0.2209  0.1093 -0.0372
80547W        W23563   7.419  30.292  16.577  0.4290  0.0127 -0.0732
80548W        W23564  26.180  32.804  22.977  0.1716 -0.0315  0.0871
80549W        W23565  15.021  22.463  13.682 -0.0802 -0.0142 -0.0997
80550W        W23566   2.645  28.830  15.176 -0.1495 -0.3189 -0.0168
80551W        W23567  22.400  33.534  23.937 -0.0376 -0.3163  0.4278
80552W        W23568  10.120   3.447  18.385  0.0905 -0.0599  0.1752
80553W        W23569  30.369   0.949   5.489 -0.0520  0.1468 -0.0724
80554W        W23570   7.696  21.627  15.202  0.1189  0.0577  0.0888
80555W        W23571   3.754  32.555  16.557 -0.0304 -0.2012 -0.3321
80556W        W23572  10.430  32.070  20.906  0.1012  0.0257 -0.1608
80557W        W23573  18.836  33.424  16.079  0.0728  0.2982 -0.1955
80558W        W23574  15.761   9.638  21.709  0.1387  0.1925  0.1601
80559W        W23575   2.087   2.581  15.301 -0.0078 -0.0588 -0.0902
80560W        W23576  27.854  11.605  18.227 -0.0661 -0.4479  0.1670
80561W        W23577   7.603  21.191  19.767  0.1405 -0.0504 -0.0207
80562W        W23578  21.281   7.185  17.795 -0.0014 -0.0412  0.1512
80563W        W23579  18.592  24.763  28.120 -0.1897 -0.2677 -0.0728
80564W        W23580  17.512  25.052  18.630  0.0883  0.1101  0.1612
80565W        W23581  17.898  25.391  29.303  0.2943  0.0120 -0.0668
80566W        W23582   9.528   0.514  21.365 -0.1327  0.3676  0.1322
80567W        W23583  19.526  24.026  17.503  0.0716  0.0700 -0.2970
80568W        W23584  32.330  19.716  20.644  0.0085 -0.1794 -0.0517
80569W        W23585  30.180  18.005  23.354 -0.0802 -0.0214  0.1868
80570W        W23586  18.875   7.347   7.042  0.0937 -0.2265 -0.3353
80571W        W23587  23.790  29.190  17.566 -0.1434  0.1597 -0.1774
80572W        W23588  20.944   0.570  22.362 -0.2217  0.0412 -0.0597
80573W        W23589  11.699   0.749  19.527 -0.1526  0.1791 -0.4518
80574W        W23590  20.553  30.290   6.198 -0.1896 -0.2320 -0.2196
80575W        W23591   6.048   5.032  24.711  0.3104  0.0633 -0.1468
80576W        W23592   4.011  30.543  22.868  0.1344  0.0541  0.1409
80577W        W23593  21.450  25.954  17.288 -0.1267 -0.3719  0.0213
80578W        W23594   3.577  14.205  20.810  0.0944 -0.3614  0.0437
80579W        W23595  34.136  28.708  23.956 -0.1073  0.1498 -0.2401
80580W        W23596  31.171   1.390  19.857  0.0847 -0.2475 -0.0325
80581W        W23597   9.147  33.324  26.057 -0.2622  0.1967  0.3875
80582W        W23598   1.208  20.002  16.270  0.2521 -0.0338  0.1734
80583W        W23599  29.268  29.338  22.277  0.1815  0.3042 -0.0329
80584W        W23600  20.344   8.312  28.682  0.1739 -0.4790 -0.0025
80585W        W23601  24.346  24.588   2.681 -0.1278 -0.0264 -0.1621
80586W        W23602   9.266  29.007  27.726 -0.0671  0.2171  0.2100
80587W        W23603  22.820   7.812  15.052 -0.1114  0.0387 -0.1384
80588W        W23604  14.285   5.767  16.948 -0.0502  0.0776  0.0204
80589W        W23605  10.676  34.444  18.143  0.1582 -0.3275  0.2000
80590W        W23606  11.562  10.705  25.211 -0.0300 -0.0620  0.1529
80591W        W23607  10.468  29.761  19.301  0.0056  0.1031 -0.2121
80592W        W23608   7.440  15.703  13.682 -0.0043 -0.1685  0.0975
80593W        W23609  12.542  24.598  15.292  0.0028 -0.0673  0.0888
80594W        W23610  25.593   0.268  25.601 -0.2335 -0.2090  0.1173
80595W        W23611   3.188  26.321  24.904 -0.2653  0.1104  0.0368
80596W        W23612  13.416  33.868  26.504 -0.1243  0.1493  0.1500
80597W        W23613  30.173  27.412  18.543  0.0218 -0.3074 -0.1482
80598W        W23614  19.363  28.531   0.012  0.1053 -0.1681 -0.2417
80599W        W23615  14.749  23.974  20.162  0.2019 -0.0033 -0.0249
80600W        W23616  12.466  28.305  19.969  0.1974  0.0537  0.0968
80601W        W23617  16.992   1.536  15.154 -0.0380  0.2450  0.1026
80602W        W23618  19.174  26.690   0.010 -0.2762 -0.0158  0.0983
80603W        W23619  27.137  28.358  24.923 -0.3181 -0.1517 -0.1498
80604W        W23620   6.234  30.732  21.361 -0.1876  0.1583  0.0710
80605W        W23621   7.901  26.665  14.062 -0.4703  0.0266  0.1511
80606W        W23622  34.180  20.102  22.769 -0.0248 -0.0530 -0.0543
80607W        W23623  12.192   9.212   2.186  0.2739  0.0237 -0.1064
80608W        W23624  22.569  15.665  17.593  0.1490 -0.1568 -0.0337
80609W        W23625  34.317  19.861  17.119  0.1200 -0.0353 -0.5542
80610W        W23626  16.752   8.209   9.273  0.0062 -0.0196  0.2070
80611W        W23627  33.181  18.178  20.678  0.4409  0.1323  0.1578
80612W        W23628  29.221  32.677  26.220  0.0295  0.2675 -0.2093
80613W        W23629   8.709  33.353  21.132  0.1198 -0.2945  0.0894
80614W        W23630  12.969  15.341  13.649 -0.0534 -0.4120  0.3905
80615W        W23631  20.556   5.283  16.991 -0.0693  0.4037 -0.2696
80616W        W23632   2.605   7.310  23.190  0.0682 -0.1630 -0.3943
80617W        W23633   1.921   8.529  21.366  0.0783 -0.0011  0.1372
80618W        W23634   4.933   1.656  16.082  0.1142 -0.0930  0.1385
80619W        W23635  23.561   5.174  18.826  0.0991 -0.0422  0.0893
80620W        W23636   4.358   8.469   3.323 -0.1978 -0.3863  0.3333
80621W        W23637   3.901   3.587  17.720 -0.2039 -0.2407 -0.1227
80622W        W23638   9.409  33.193  15.913 -0.1331  0.0475  0.1520
80623W        W23639  17.296  27.506  19.682  0.3877 -0.1695 -0.5977
80624W        W23640  33.577  27.744  15.099  0.2809 -0.2250  0.1846
80625W        W23641  15.918  11.619  20.447 -0.0297 -0.5517 -0.0196
80626W        W23642  14.533   4.803  18.184  0.1395 -0.0114 -0.3022
80627W        W23643  28.170  32.455   2.739  0.0644  0.0452 -0.2564
80628W        W23644  23.865   4.408  22.842  0.0260  0.0604  0.3769
80629W        W23645  14.269  28.396  18.867  0.0600  0.0229 -0.1143
80630W        W23646  23.543  19.137  28.712  0.2663 -0.1305 -0.0276
80631W        W23647  23.073   1.735   0.739 -0.1093  0.2292  0.1135
80632W        W23648  14.069  31.580  21.540 -0.0862  0.1972  0.0326
80633W        W23649  16.306  31.467  16.308  0.0393 -0.0367  0.1168
80634W        W23650  22.997  21.172  28.219 -0.1047  0.2928 -0.0997
80635W        W23651  18.153   5.781  21.272 -0.3583  0.0106 -0.2756
80636W        W23652  11.539  26.751  19.448 -0.2663  0.1968 -0.3516
80637W        W23653  27.390  25.312   1.209  0.3149 -0.0150  0.2289
80638W        W23654  23.992   3.890  26.782  0.0941  0.2834  0.2541
80639W        W23655  13.128  23.624  16.723  0.4462  0.0843  0.0512
80640W        W23656   8.079  29.963  21.706  0.0252 -0.0775  0.0063
80641W        W23657  16.745  24.442  12.731  0.0759  0.1124 -0.0997
80642W        W23658   7.389  11.728  14.057 -0.2378 -0.0635  0.0624
80643W        W23659  11.997   5.012  21.223 -0.5024 -0.0722 -0.0037
80644W        W23660   6.857  18.233  17.807 -0.1726 -0.1868 -0.0686
80645W        W23661  31.120  33.489  22.942 -0.1740  0.0963 -0.1376
80646W        W23662  12.816  32.790  16.747 -0.0739  0.0670 -0.1940
80647W        W23663  32.733   2.174  10.411  0.1215 -0.0078 -0.0555
80648W        W23664  11.793  27.998  13.876  0.0455  0.2192  0.1334
80649W        W23665  28.766  21.882   2.199  0.1389 -0.0145 -0.1968
80650W        W23666  28.618  23.220   1.501  0.3521 -0.2226 -0.3374
80651W        W23667  24.659   9.475  27.380  0.0284  0.2682  0.2514
80652W        W23668  15.239  22.078  14.843 -0.2306  0.0990 -0.1721
80653W        W23669  18.612  29.802  24.100  0.1826  0.0767  0.0624
80654W        W23670  19.121   4.588  18.090  0.0733 -0.1638 -0.3365
80655W        W23671  16.260  29.878  17.380  0.3299 -0.1889 -0.4214
80656W        W23672  24.234  26.583   6.586 -0.1200  0.0923  0.0609
80657W        W23673  18.899   1.800  14.760 -0.1649 -0.0329 -0.1615
80658W        W23674  21.850   4.004  22.390  0.4146  0.1086 -0.0538
80659W        W23675  33.488   0.237  21.810  0.2221  0.0612  0.0449
80660W        W23676  10.988  26.181  28.556  0.0036 -0.0212 -0.3757
80661W        W23677  27.773   0.278  17.136  0.0835 -0.0269  0.3059
80662W        W23678  25.588  29.884   0.916 -0.0571 -0.0994 -0.0096
80663W        W23679   3.964  33.235  21.852  0.0109  0.1388 -0.0877
80664W        W23680   9.703   5.874  28.664 -0.0765 -0.0422 -0.0389
80665W        W23681  34.256  32.538  20.822 -0.2116  0.1331  0.0200
80666W        W23682   0.284   6.915  27.502  0.0030 -0.1361 -0.0174
80667W        W23683   3.119  33.575  15.322 -0.1494  0.3793 -0.0130
80668W        W23684  12.218   9.661  13.452  0.2893  0.3176 -0.0767
80669W        W23685  20.082  28.339  28.521 -0.0214  0.3038 -0.0675
80670W        W23686  20.447  28.106  16.968 -0.3439  0.0999 -0.1566
80671W        W23687  18.726   2.043  27.980  0.3339  0.1029 -0.2555
80672W        W23688  10.206  17.388  19.178  0.1094 -0.0461 -0.2526
80673W        W23689   2.381   2.100  21.074  0.0732  0.2069 -0.2893
80674W        W23690   6.515  28.402  14.294 -0.1459  0.0791 -0.3081
80675W        W23691  12.491   1.007   6.600  0.1689  0.0919  0.1895
80676W        W23692  34.123   1.945  15.968 -0.2287  0.0281  0.2954
80677W        W23693  19.445   1.279  21.446 -0.0452 -0.1296 -0.2606
80678W        W23694   7.652  33.675  16.921  0.0629  0.5932 -0.0424
80679W        W23695  21.502  34.301   8.596 -0.1569 -0.1148 -0.1142
80680W        W23696  12.236  25.125  18.870  0.0054 -0.0514  0.1286
80681W        W23697  12.174   5.892  14.086  0.1761 -0.0739  0.2566
80682W        W23698   6.102  33.918  14.313  0.1101  0.1265  0.1591
80683W        W23699  26.546  17.933  13.959  0.1755 -0.3880 -0.1264
80684W        W23700  31.484  13.452  23.558 -0.0335 -0.2181 -0.0061
80685W        W23701  16.132  10.251  15.128  0.0739 -0.1449  0.0986
80686W        W23702  10.384  10.116  28.887  0.2027 -0.3295  0.1446
80687W        W23703  14.612   2.146  19.311 -0.2607 -0.1454 -0.1357
80688W        W23704  31.208   5.562  22.144  0.1859 -0.0375  0.1281
80689W        W23705   9.285  30.184  17.516  0.1481 -0.1572  0.0198
80690W        W23706  11.389  33.043  14.794  0.1678  0.1585 -0.2994
80691W        W23707  16.169  11.895  13.413  0.3987  0.0332 -0.1704
80692W        W23708   8.728  23.875  18.756  0.1940 -0.0675 -0.4673
80693W        W23709  14.731  30.527  15.291 -0.0432 -0.1862 -0.0536
80694W        W23710  22.180   7.784  16.407  0.0464 -0.0919  0.4520
80695W        W23711  20.838   9.798  19.179 -0.2113 -0.0863 -0.1225
80696W        W23712  28.983  10.903  22.059 -0.0614  0.0881  0.2621
80697W        W23713  19.902   9.156  23.475 -0.1250 -0.2225 -0.1120
80698W        W23714  14.555  24.646  13.480  0.4684  0.0445  0.1501
80699W        W23715  22.309  34.579  17.630 -0.0690 -0.2633 -0.1047
80700W        W23716  21.403  26.475  20.716 -0.0926  0.1217  0.1627
80701W        W23717  15.223  31.519  18.033 -0.1135  0.1230 -0.3448
80702W        W23718  28.839  30.427  28.252 -0.0222 -0.0819 -0.0873
80703W        W23719   7.731  29.555  28.282 -0.0092  0.3308 -0.0122
80704W        W23720  14.032   5.259  19.507  0.3334 -0.0784 -0.6119
80705W        W23721  17.373  31.096  16.729 -0.2002  0.0603 -0.1345
80706W        W23722  10.402  29.081  20.297 -0.3438 -0.1394  0.0346
80707W        W23723  10.715  29.108  24.733 -0.0117  0.0120  0.4986
80708W        W23724  19.782  23.233  23.246  0.1510 -0.0003 -0.0562
80709W        W23725  14.633   2.338  14.272 -0.1377  0.0371  0.0655
80710W        W23726  16.783   6.307  17.726  0.0634  0.0269  0.4273
80711W        W23727  30.533   3.811  21.516 -0.1672  0.4461  0.0640
80712W        W23728  15.188  19.054  28.466  0.1318  0.0057 -0.1819
80713W        W23729  17.196  30.629  14.769 -0.0263  0.1479  0.1433
80714W        W23730  25.072   3.806   0.375 -0.1388  0.1002  0.0192
80715W        W23731   3.518  27.646  24.464 -0.1327 -0.0975 -0.2909
80716W        W23732  19.719  27.687  25.984  0.0334  0.1743  0.0005
80717W        W23733  21.250   2.166  14.556  0.1268 -0.1049  0.0847
80718W        W23734  18.037  33.606  24.043 -0.1348  0.0419  0.1664
80719W        W23735  23.676  30.980  16.206 -0.1565 -0.0210 -0.2577
80720W        W23736  15.280   3.491   1.545  0.1800  0.1756  0.2519
80721W        W23737   7.672  13.230  21.921 -0.2968  0.1387  0.3386
80722W        W23738  23.095  25.855  20.585  0.2979  0.0810  0.0267
80723W        W23739  13.638  14.997  13.516  0.0382  0.1193  0.0050
80724W        W23740  26.006  32.038   1.704  0.2127  0.0747 -0.0891
80725W        W23741  27.740  29.641  23.479  0.0599 -0.1247  0.0712
80726W        W23742  31.944   2.409  16.089  0.5688 -0.0648  0.2366
80727W        W23743  15.651  30.070  16.460 -0.0262 -0.1908 -0.2045
80728W        W23744  22.370  21.327  20.088 -0.2067  0.0272 -0.1578
80729W        W23745  17.247  10.071   0.099  0.0836  0.1785 -0.1003
80730W        W23746  21.457  27.815  16.778 -0.1763  0.1767 -0.1366
80731W        W23747  15.562   0.812   4.748  0.0748  0.3129  0.1230
80732W        W23748  20.836  32.409  23.985 -0.0531 -0.1382  0.0322
80733W        W23749   6.000   2.805  28.883 -0.4404 -0.1522  0.2821
80734W        W23750  25.594  34.741  17.483  0.0100  0.0980  0.2157
80735W        W23751  27.285  18.911  24.695 -0.1408  0.1216 -0.2356
80736W        W23752  31.177  21.274   5.860 -0.1454  0.1231  0.0283
80737W        W23753  13.884   9.750  14.460 -0.0791  0.1292  0.1644
80738W        W23754  30.505   2.205  27.931  0.2308 -0.0668 -0.1097
80739W        W23755  20.320  32.453   0.407  0.1243  0.0025 -0.0112
80740W        W23756  11.685  23.600  15.195  0.0472 -0.1307 -0.1341
80741W        W23757  18.685  27.508  19.068 -0.0064  0.0926 -0.0869
80742W        W23758  10.719  28.788  26.011 -0.0899 -0.0683 -0.0861
80743W        W23759  21.277  20.815  24.255  0.1542 -0.0073 -0.1168
80744W        W23760  28.702   8.087   0.857 -0.3041  0.4850  0.1202
80745W        W23761   6.895  21.581  26.520  0.3004  0.2312  0.0435
80746W        W23762  14.953  26.963   5.155 -0.1727  0.0205  0.3323
80747W        W23763  25.205  32.264  21.924 -0.2671  0.0166 -0.3028
80748W        W23764   1.118   8.571  14.933  0.1051  0.0831 -0.1355
80749W        W23765  10.613   4.740   6.512 -0.0438  0.0375 -0.1599
80750W        W23766  25.052  21.103  14.361  0.2481  0.0365 -0.1760
80751W        W23767   1.384  28.822  18.691  0.0131 -0.0515  0.0691
80752W        W23768  19.646  23.461  17.556  0.1493 -0.1603 -0.0896
80753W        W23769   3.571  25.536  23.615  0.0220 -0.0052 -0.0394
80754W        W23770  25.625  21.956  17.452 -0.1567  0.1570  0.1293
80755W        W23771   9.638  24.367  14.077  0.2074  0.4175  0.1403
80756W        W23772  20.695  28.325  16.630 -0.0039  0.0348 -0.1988
80757W        W23773  32.769  26.358  28.674  0.0586 -0.2955 -0.1704
80758W        W23774  17.495  10.513   7.380  0.0205  0.0438 -0.1395
80759W        W23775  24.345   5.365  18.708  0.3846 -0.1128  0.1416
80760W        W23776  22.790  27.372   2.212 -0.0408  0.0965  0.2592
80761W        W23777  13.957   7.346  22.671  0.2383 -0.2888 -0.0078
80762W        W23778   7.605   6.688  18.821 -0.2452  0.0360 -0.2195
80763W        W23779  23.224  34.052  20.815  0.0651 -0.0878  0.2923
80764W        W23780  17.594  21.750  26.124  0.0542 -0.0762  0.0287
80765W        W23781  12.659  11.735   4.393 -0.0747  0.0437 -0.0160
80766W        W23782  19.665  25.014  15.654 -0.0336 -0.1876 -0.2518
80767W        W23783  13.630  12.725  14.503  0.3750 -0.1708 -0.0374
80768W        W23784   8.341  17.598  16.267  0.3397 -0.2984  0.3556
80769W        W23785  12.564  30.248  26.322 -0.0111 -0.2484 -0.0999
80770W        W23786   8.226   6.682   7.738  0.2714 -0.0341  0.1618
80771W        W23787   0.891  27.007  18.333 -0.2279  0.2529  0.0874
80772W        W23788  20.742  20.537   3.822 -0.1092 -0.2067  0.2736
80773W        W23789  13.097   5.709  24.785  0.1094 -0.0413  0.0014
80774W        W23790  19.307  31.086  16.306  0.1042  0.1975 -0.4273
80775W        W23791  11.795  29.149  18.133  0.2562 -0.1216 -0.1031
80776W        W23792  14.890  25.516  23.025  0.1071  0.0953 -0.3166
80777W        W23793  21.014   9.746  17.242  0.2633 -0.0836 -0.0319
80778W        W23794  10.375  24.211  15.057  0.0691  0.2208 -0.1010
80779W        W23795   3.225  34.237  19.921  0.0066  0.0925 -0.0177
80780W        W23796  22.732  24.409  22.396  0.0678  0.0871  0.2875
80781W        W23797  14.022  12.247  20.774  0.0534 -0.0755 -0.0264
80782W        W23798  21.508  24.620   2.080 -0.0332 -0.0336 -0.0404
80783W        W23799  22.043  25.811  22.380 -0.0285  0.1918 -0.2253
80784W        W23800  15.179  28.357   1.962  0.0476 -0.1789 -0.1540
80785W        W23801  10.343   3.156   3.009  0.1249  0.0881  0.1631
80786W        W23802   0.803  33.609  24.765 -0.2091  0.0709  0.0834
80787W        W23803  24.411  29.951  19.036  0.2388 -0.0488  0.0474
80788W        W23804   8.437  26.235  17.434  0.0319  0.4220 -0.1976
80789W        W23805  28.392  32.731  19.553  0.3311  0.1598  0.2545
80790W        W23806  24.237  16.000  19.540 -0.2126  0.3608 -0.1493
80791W        W23807   8.735   4.422  20.794 -0.4800 -0.1269 -0.4895
80792W        W23808  23.346  23.992  27.095  0.0456  0.0496 -0.1058
80793W        W23809  21.325  18.146  25.043 -0.1410 -0.1056 -0.3365
80794W        W23810  14.597   0.140   5.028  0.1223  0.2369  0.1705
80795W        W23811  21.350  24.834  26.226 -0.0391 -0.0101  0.1395
80796W        W23812   6.023  15.633   3.422  0.0272  0.0310  0.0189
80797W        W23813   5.532   9.332  22.757  0.1292 -0.0067  0.1357
80798W        W23814  18.754  17.315  13.914  0.1724 -0.0749  0.1046
80799W        W23815   7.685  20.777   1.140  0.0385 -0.3451  0.3147
80800W        W23816  23.398  24.566  16.475  0.2380  0.2594 -0.3264
80801W        W23817  26.416   5.971  16.997  0.1443 -0.1424  0.0762
80802W        W23818  32.512   8.287  17.321 -0.1124 -0.0687  0.2513
80803W        W23819   9.178   6.873  25.727  0.1975  0.1238 -0.0852
80804W        W23820  31.262  21.725  19.391  0.1547 -0.1976  0.2241
80805W        W23821  16.656  10.110  20.096 -0.1501 -0.1002  0.0979
80806W        W23822  17.716  28.081   5.070  0.1014  0.1364  0.0555
80807W        W23823  23.947  24.153   0.554 -0.4163 -0.4152  0.2142
80808W        W23824  18.641  25.596  28.530  0.1162 -0.2213  0.2717
80809W        W23825  26.396  28.397  16.445 -0.2145 -0.0428 -0.1132
80810W        W23826  28.143  17.379  14.092  0.1093 -0.1494 -0.4452
80811W        W23827  19.553   0.057  17.552  0.0588 -0.0751 -0.1190
80812W        W23828   7.452  16.665  14.559 -0.1984  0.0273  0.1788
80813W        W23829   4.639   5.993   6.728  0.2486 -0.0466 -0.2346
80814W        W23830  16.025   0.758  29.081 -0.4155  0.2273  0.1495
80815W        W23831  13.011  12.780  12.324  0.0560  0.1586  0.0532
80816W        W23832  24.609  19.530  14.423  0.2672  0.0857  0.1197
80817W        W23833   1.554   3.248   0.652 -0.3599 -0.2504  0.1812
80818W        W23834  18.120  16.187  15.653  0.1215  0.0829  0.3373
80819W        W23835  25.300   2.645   8.033  0.3151 -0.1185  0.0789
80820W        W23836  23.503  24.694  29.151 -0.0376 -0.0526 -0.3317
80821W        W23837  10.072   4.367  14.858 -0.2301 -0.0847 -0.0044
80822W        W23838  26.172   0.848  16.104 -0.1149 -0.0927 -0.0323
80823W        W23839   9.426  31.735  16.096 -0.0583  0.0555 -0.0489
80824W        W23840  16.997   1.747  17.233  0.2686 -0.0856  0.0685
80825W        W23841  25.453  32.341   0.803 -0.3147  0.3074  0.3668
80826W        W23842  13.368  26.081  15.142 -0.0261 -0.4219  0.2791
80827W        W23843  33.673  32.151   1.080 -0.2820 -0.0528  0.1030
80828W        W23844   9.926  20.758  13.952 -0.1209 -0.1758 -0.0001
80829W        W23845  24.505  17.154  14.080  0.0048 -0.2241 -0.2072
80830W        W23846  32.763  31.402  28.154 -0.1365  0.2940  0.1371
80831W        W23847  28.220   4.161  19.882  0.0150  0.0803  0.0493
80832W        W23848  24.072   8.353  17.393 -0.1075 -0.3776  0.4531
80833W        W23849  15.857   0.116  13.970 -0.0911 -0.0338  0.2865
80834W        W23850  15.674   5.170  26.583 -0.0315 -0.1866 -0.1581
80835W        W23851  14.153  28.631  16.685 -0.2201 -0.2792 -0.1071
80836W        W23852  21.598  15.742  15.946 -0.0623 -0.3777  0.1941
80837W        W23853  23.252   4.154  15.700  0.1017  0.0722  0.1975
80838W        W23854   0.222  26.778  14.207 -0.2468 -0.0588 -0.0334
80839W        W23855  15.788   0.270  18.090  0.1227 -0.0218  0.0562
80840W        W23856   9.672  25.317   6.148  0.0713 -0.1058 -0.0291
80841W        W23857  20.889  11.848  13.874  0.1865 -0.0152  0.0599
80842W        W23858  13.699  34.751  24.413  0.1813 -0.2119 -0.0653
80843W        W23859  18.457  25.210  17.352  0.0415 -0.2256 -0.0908
80844W        W23860  18.940   2.225  24.635  0.1693  0.0264  0.1462
80845W        W23861   9.558  29.380  27.389 -0.0920  0.0292  0.1011
80846W        W23862  15.815  33.848  17.950 -0.5143 -0.0144 -0.2282
80847W        W23863  32.616   9.544  14.380  0.1300  0.1378  0.0794
80848W        W23864   4.578  10.672  24.761 -0.1610  0.1088 -0.0278
80849W        W23865  27.326  25.235  24.516  0.1484  0.1552 -0.4215
80850W        W23866  27.423  30.762  26.053 -0.1523 -0.2449 -0.1179
80851W        W23867   5.706  27.544  23.981  0.0668  0.1501  0.1639
80852W        W23868   6.658   3.454  26.158  0.1844  0.0712  0.2942
80853W        W23869  14.040   1.043  14.818  0.1105  0.2404 -0.4040
80854W        W23870  28.016  20.874  17.975  0.1008 -0.0875 -0.4351
80855W        W23871  31.983  32.660  20.439  0.0110 -0.3666  0.5568
80856W        W23872  19.678  33.181   3.700  0.0987  0.0742  0.0883
80857W        W23873  14.569   2.371   2.402 -0.0903  0.4383  0.0779
80858W        W23874   2.650  27.742  21.873  0.0877 -0.1766  0.0758
80859W        W23875  26.844  30.469   9.802  0.0797  0.0916 -0.1907
80860W        W23876  17.761   0.766  14.833  0.1840  0.1443 -0.1098
80861W        W23877  15.797  25.200  22.895  0.0745  0.0796  0.1417
80862W        W23878  27.683  20.711   1.309 -0.0836  0.1732 -0.2801
80863W        W23879   1.222   2.720  20.780 -0.2976  0.3981 -0.0360
80864W        W23880  20.850  34.146  23.534 -0.0851 -0.1017  0.2073
80865W        W23881   4.944  14.986  27.094  0.0066 -0.0726 -0.2447
80866W        W23882  20.849   1.381  22.166 -0.3155  0.2833  0.0391
80867W        W23883  24.481  33.765   0.606  0.1404  0.0531  0.1912
80868W        W23884  29.701  29.346  25.392 -0.1133 -0.0526  0.2201
80869W        W23885  28.971  15.603  23.513  0.0317 -0.2967  0.2313
80870W        W23886  18.412  22.094  12.383  0.0471 -0.5958 -0.1758
80871W        W23887  25.928  26.369  19.502  0.1283 -0.1630 -0.1151
80872W        W23888   9.103   2.060   3.269 -0.0209  0.0815  0.4802
80873W        W23889  11.369  15.336  12.834 -0.3829  0.2287  0.0474
80874W        W23890  23.376   2.985  26.756  0.0161 -0.0884  0.5353
80875W        W23891   8.761  32.964  16.173 -0.1582 -0.1775 -0.2512
80876W        W23892   4.606  30.938  16.087  0.0674 -0.1092 -0.3161
80877W        W23893  28.227   0.359  25.634  0.0640 -0.0220  0.1426
80878W        W23894  23.589  24.896  20.176 -0.3188  0.0534 -0.1287
80879W        W23895  22.847  11.384  15.720 -0.2970 -0.1475 -0.1575
80880W        W23896  14.021  30.163  22.110  0.1236 -0.1724  0.4221
80881W        W23897  24.790  20.939  15.881  0.2190 -0.1082 -0.1836
80882W        W23898  11.004  13.344  26.037 -0.0202 -0.1827  0.1605
80883W        W23899  30.725  11.230  18.356 -0.1348  0.1303 -0.0948
80884W        W23900  27.969  14.919  19.398  0.2068  0.1438  0.1060
80885W        W23901  33.661  29.142  25.014 -0.1685 -0.1414  0.0829
80886W        W23902  13.601  30.880  22.592 -0.0814  0.1224 -0.3282
80887W        W23903  26.351  28.604  28.007 -0.1033  0.1143 -0.3228
80888W        W23904  28.198  26.351  17.840  0.2633 -0.2159 -0.1678
80889W        W23905   8.432  21.610  15.927  0.1832 -0.0675  0.0241
80890W        W23906  30.572  12.906  23.766 -0.0205 -0.1423 -0.0094
80891W        W23907  15.384  28.192  24.365  0.1106 -0.3427  0.3362
80892W        W23908  27.320   6.072  25.464 -0.1795 -0.0530 -0.0016
80893W        W23909   2.141  30.722  24.806  0.3105  0.1944  0.0638
80894W        W23910   5.091   3.099  17.245  0.0774 -0.3848 -0.0913
80895W        W23911  26.610   3.232  21.447  0.0064 -0.3029  0.1325
80896W        W23912  10.747   7.158  13.299  0.3505  0.1941  0.1615
80897W        W23913  16.084  12.898  15.421 -0.0419  0.2071  0.1851
80898W        W23914  15.279  30.756  27.428  0.0179 -0.2589  0.1035
80899W        W23915  23.315   1.647  21.295  0.0767 -0.0377  0.3336
80900W        W23916   2.865  31.282  15.087 -0.0812 -0.3072 -0.1484
80901W        W23917  17.453   0.445  18.496  0.2027  0.2621 -0.0155
80902W        W23918  16.487   7.854  23.966  0.0910  0.1365 -0.2355
80903W        W23919  21.388  13.028   0.675  0.0626  0.2748 -0.2453
80904W        W23920  30.590   6.522  20.816  0.0547  0.1667  0.3284
80905W        W23921  30.593  29.410   4.959 -0.0143  0.0671  0.3104
80906W        W23922   9.651  32.309  14.903  0.2257 -0.0318 -0.1573
80907W        W23923  34.339  29.863  15.232  0.1196  0.1893  0.2620
80908W        W23924  17.285  29.639  18.562 -0.0634 -0.0655 -0.0680
80909W        W23925  29.996  31.592  11.573  0.0728 -0.3323 -0.1310
80910W        W23926  18.476   0.307   5.777 -0.2583 -0.1015  0.2111
80911W        W23927  34.204   3.776   8.645  0.0833 -0.0863  0.0793
80912W        W23928   8.612  25.495  28.377  0.0156  0.0190 -0.0956
80913W        W23929   9.011  31.523  24.042 -0.0593  0.0761  0.4053
80914W        W23930  16.501   5.790  27.023  0.3263  0.0829 -0.1143
80915W        W23931  19.949  31.076  15.304  0.0650 -0.0828 -0.0617
80916W        W23932  14.172  11.552  25.956  0.2435 -0.2429 -0.0521
80917W        W23933   9.922   5.683  21.145 -0.0957  0.0066  0.1989
80918W        W23934  11.510  28.328  15.409 -0.2100  0.0817 -0.3264
80919W        W23935  13.836   8.616  20.726  0.1778 -0.1029 -0.1266
80920W        W23936  12.585  20.018  13.479 -0.0697  0.0831  0.0029
80921W        W23937  12.574  29.106  15.041  0.0904 -0.0484  0.1265
80922W        W23938  32.079  27.949  21.957 -0.0464  0.0281  0.1994
80923W        W23939   9.128   6.781  16.574 -0.1346 -0.0844  0.2091
80924W        W23940  11.293  32.758  19.193 -0.1728 -0.0680  0.2604
80925W        W23941  27.386   7.989   6.799 -0.0300 -0.0936 -0.1162
80926W        W23942  20.420   2.014  22.632  0.4496 -0.0254  0.0951
80927W        W23943  17.779  33.738  20.655  0.3649 -0.2847  0.1947
80928W        W23944  18.212  21.937  15.480  0.0061  0.3957 -0.1808
80929W        W23945  13.041  24.012  14.593  0.1532  0.3959 -0.1089
80930W        W23946  34.430   0.039  26.181  0.1129 -0.0123  0.2468
80931W        W23947  33.102  20.139  19.880  0.0762 -0.0285 -0.0531
80932W        W23948   9.966  27.430  21.489 -0.1930 -0.0505 -0.0607
80933W        W23949  19.711  31.022  20.822  0.2481 -0.0857  0.0681
80934W        W23950  22.703  33.918  23.806 -0.1792  0.0820 -0.2740
80935W        W23951  27.864  26.384   9.773 -0.0805 -0.3175  0.1088
80936W        W23952  33.466  10.233  14.572  0.2798  0.0133  0.0892
80937W        W23953  18.693  11.749  15.486 -0.1148  0.2597  0.4509
80938W        W23954  23.987  23.443   1.051  0.0194  0.0633 -0.1684
80939W        W23955  11.853   7.755  20.984 -0.3011 -0.2325 -0.1157
80940W        W23956   0.998  12.560  23.403  0.1686 -0.1724 -0.0238
80941W        W23957  15.902  27.210  17.672 -0.0859  0.0060 -0.0129
80942W        W23958  29.213  24.743  26.514  0.0194  0.0216  0.3074
80943W        W23959   5.467  28.316   5.789 -0.1654 -0.3519 -0.2495
80944W        W23960  15.643   0.952  19.901 -0.0329 -0.0996 -0.0547
80945W        W23961   5.220   5.505  22.890  0.0772 -0.0223  0.1125
80946W        W23962   7.559  33.901  25.372 -0.3069  0.0982  0.3217
80947W        W23963  10.658   7.138  15.471  0.2321 -0.2193  0.1480
80948W        W23964  21.910  30.066  24.252  0.0565  0.1429 -0.1608
80949W        W23965  28.767  32.805  22.011  0.1060 -0.1018 -0.4975
80950W        W23966  15.045   6.428  21.203  0.0044  0.1177  0.0205
80951W        W23967   6.683  29.895  24.135 -0.0307 -0.0041 -0.0961
80952W        W23968  14.381   4.836   8.803  0.1054  0.1896 -0.0189
80953W        W23969  21.415   5.387  26.732  0.1810 -0.3956 -0.0947
80954W        W23970  29.824  14.827   3.062 -0.0799 -0.1624  0.1086
80955W        W23971   5.902   9.378   3.652  0.3675 -0.1227  0.1448
80956W        W23972  22.677  24.343  23.570  0.2604 -0.0229 -0.0219
80957W        W23973   7.725  32.404  14.903  0.1078 -0.2700  0.1298
80958W        W23974   5.187  33.674  19.391 -0.2033 -0.2446 -0.2320
80959W        W23975  27.857   4.251  23.847 -0.0386  0.1259  0.1502
80960W        W23976  11.582  26.996   3.315  0.1798  0.0634  0.0492
80961W        W23977   2.678   9.219  27.829  0.1963 -0.0117  0.0807
80962W        W23978  24.657  22.081   3.757  0.3504 -0.1330 -0.0289
80963W        W23979   8.902   2.917  22.095 -0.2638 -0.2186 -0.1052
80964W        W23980  14.037  24.840   5.141  0.1174  0.5971  0.2498
80965W        W23981  16.079   1.508  19.538  0.0414 -0.0383 -0.0855
80966W        W23982  23.014  23.177  20.938 -0.1717  0.2652  0.0771
80967W        W23983  21.449  29.150  19.659  0.1032  0.0838 -0.0599
80968W        W23984  28.136   6.478  24.923  0.0894  0.0855 -0.3239
80969W        W23985  14.608  20.908  15.559  0.4267 -0.4208  0.2456
80970W        W23986  23.503  31.699  16.795 -0.2248  0.0628  0.1726
80971W        W23987  10.340  12.773   6.760 -0.0121  0.1239  0.0618
80972W        W23988  24.615   1.083  16.437 -0.0790  0.2757  0.2913
80973W        W23989  16.776  25.085  21.954 -0.1159  0.1128 -0.0086
80974W        W23990   4.099  30.762   7.187  0.2138  0.0613  0.1397
80975W        W23991  29.856   2.847  19.468 -0.1021 -0.2177 -0.2331
80976W        W23992   4.790   3.739   3.284 -0.1159 -0.0554 -0.0112
80977W        W23993  19.284  23.468  14.890  0.1464  0.0552 -0.0457
80978W        W23994   7.047  12.487  23.863  0.2569  0.1825  0.0359
80979W        W23995  25.811   6.138  29.159 -0.2620 -0.1776  0.0162
80980W        W23996  24.901  33.987  19.855  0.1310  0.0764  0.0696
80981W        W23997  22.696  31.199  16.661  0.0495  0.4320  0.0096
80982W        W23998  21.583  10.898  16.240  0.1720 -0.0860  0.3072
80983W        W23999   9.738  30.384  17.610  0.0842  0.1720 -0.2620
80984W        W24000   0.911  24.931   3.499  0.2492  0.0636 -0.2214
80985W        W24001  14.699  29.031  14.548  0.0595 -0.0600 -0.0533
80986W        W24002   8.582  16.387  14.419 -0.2901  0.0325  0.0154
80987W        W24003  22.307  30.513  26.748  0.1257 -0.0842 -0.0050
80988W        W24004   4.905  26.081  24.189 -0.1034 -0.1659  0.1218
80989W        W24005  14.338  16.927  28.499 -0.1728  0.1870  0.0965
80990W        W24006  11.075  24.667  28.495 -0.1709  0.0686 -0.1733
80991W        W24007  11.424  29.325  18.570  0.0484 -0.2714 -0.1096
80992W        W24008  18.178  29.835  27.592  0.0715  0.0514 -0.1237
80993W        W24009  18.678  25.861  28.036 -0.0770 -0.0603 -0.2460
80994W        W24010  13.406  33.025   3.447 -0.1286  0.2936 -0.0283
80995W        W24011   6.516  34.431   2.776  0.3229  0.1769 -0.3105
80996W        W24012   5.168  13.846  24.730  0.0928  0.2345 -0.0142
80997W        W24013  21.601  23.399  13.940 -0.1145  0.0884  0.0297
80998W        W24014  12.391  23.521  12.687  0.2095  0.1021  0.1188
80999W        W24015  24.284  28.743  10.420 -0.2177  0.1042  0.0984
81000W        W24016  16.178   8.328  15.760 -0.4405  0.3128 -0.0533
81001W        W24017  19.943   5.539  26.334  0.0629  0.0360  0.1880
81002W        W24018  30.158  26.843  17.041  0.1805 -0.0091  0.0313
81003W        W24019  24.228  26.335  26.505 -0.1029  0.1958  0.0762
81004W        W24020   1.369  28.973  17.870  0.1443  0.3134  0.0843
81005W        W24021  20.036  30.715  17.108 -0.3028 -0.2841  0.1237
81006W        W24022  17.182  28.769  18.435 -0.0857 -0.1022  0.0179
81007W        W24023  16.896  27.284  19.162  0.1634 -0.1505 -0.0951
81008W        W24024  21.873  33.722  10.484  0.1992 -0.0398 -0.0014
81009W        W24025  19.565  28.958  15.195  0.0598  0.2551  0.2433
81010W        W24026   3.893  19.641  16.435 -0.0382 -0.0400 -0.1646
81011W        W24027  18.410  29.577  26.277 -0.0356  0.0147 -0.1424
81012W        W24028  11.826  34.000   3.461  0.1180  0.0119  0.0402
81013W        W24029  12.416   7.017  28.661  0.2409  0.2945 -0.0801
81014W        W24030  31.911  13.058  17.503  0.0271  0.0526 -0.0984
81015W        W24031  15.455  27.533  17.946  0.1204 -0.1993  0.0359
81016W        W24032  10.763  21.153  16.716 -0.3253 -0.0501 -0.0499
81017W        W24033  14.239  28.161  23.562 -0.0333  0.2490  0.0213
81018W        W24034  11.519  30.776  26.950 -0.4297 -0.2127 -0.1416
81019W        W24035   3.827  17.746  14.859  0.1069 -0.0393 -0.3302
81020W        W24036   4.395  27.106  18.617  0.1057 -0.1501 -0.1083
81021W        W24037  16.121   1.167  14.730  0.2487  0.3409 -0.0784
81022W        W24038  31.347   5.467  14.807 -0.0247 -0.0503  0.2140
81023W        W24039  23.621  26.762  18.806  0.2897  0.2164  0.2637
81024W        W24040   6.986   9.379  25.953 -0.0757  0.1509  0.1403
81025W        W24041  19.757   1.322  17.264 -0.0162  0.0735  0.0167
81026W        W24042  17.059  23.161   0.303 -0.1705  0.0943 -0.4515
81027W        W24043  26.837   5.889   1.112  0.0276  0.1010  0.0946
81028W        W24044  21.365  33.665  16.910 -0.1611 -0.0217  0.1719
81029W        W24045   5.894   1.487  25.381  0.0869 -0.0416 -0.0972
81030W        W24046   9.292   7.995  28.089  0.1747  0.0796  0.0757
81031W        W24047   5.420  30.746  23.788 -0.1393 -0.3016 -0.0956
81032W        W24048  14.379  18.206  15.499 -0.0817 -0.0083 -0.0547
81033W        W24049  21.224  33.634  21.155  0.1521 -0.2126 -0.2559
81034W        W24050  12.596   4.237  27.749  0.4123  0.1941  0.0301
81035W        W24051  21.346   7.660  19.283 -0.0315 -0.1226  0.2364
81036W        W24052  34.050   4.834  16.827  0.0426  0.0655  0.4056
81037W        W24053  14.835   1.045  21.395  0.2829 -0.0810  0.0283
81038W        W24054   5.390   8.409  15.777  0.0437  0.0017 -0.0398
81039W        W24055   7.200  29.003  25.012  0.1497  0.3622  0.3041
81040W        W24056  22.948  21.965  21.016 -0.0065 -0.0808 -0.0605
81041W        W24057  23.914  32.773  25.845 -0.0504 -0.1041  0.1445
81042W        W24058   1.107  27.816   2.734  0.1286 -0.1944 -0.1137
81043W        W24059   7.130  30.440  16.938 -0.0135  0.0582 -0.0678
81044W        W24060  22.184  31.772  17.063  0.2085  0.1646  0.2857
81045W        W24061   5.587  26.605  23.635  0.2799 -0.1885 -0.2988
81046W        W24062   4.768  25.770   9.485  0.1249 -0.0739  0.0304
81047W        W24063  14.791   8.409  16.457  0.1184 -0.0106 -0.0602
81048W        W24064  19.820  26.971  21.759 -0.0875  0.1273  0.0936
81049W        W24065  10.695   6.523  16.015  0.0471  0.1061  0.1163
81050W        W24066  31.882  33.979  16.646 -0.0772 -0.1187  0.0361
81051W        W24067  14.237  31.981   7.167 -0.0298 -0.1439  0.0207
81052W        W24068   7.512  32.092  21.185 -0.3259 -0.0797 -0.1432
81053W        W24069  16.728  26.220  17.044 -0.2938  0.0384  0.0907
81054W        W24070  14.200   8.136  14.367  0.0948 -0.1966  0.2090
81055W        W24071  10.759  30.930  27.865 -0.2967 -0.3555  0.2222
81056W        W24072  11.105   9.044   1.034 -0.2658  0.2006 -0.0436
81057W        W24073  15.765  31.572  19.175  0.0022 -0.3565 -0.1287
81058W        W24074   1.064   0.326   2.348 -0.0354 -0.1931 -0.1962
81059W        W24075   1.023  21.056  26.990  0.0482 -0.1852  0.2327
81060W        W24076  22.451   1.644  18.350 -0.2766 -0.1763  0.3669
81061W        W24077  30.489  32.391  16.855 -0.0739  0.0718 -0.1313
81062W        W24078  15.097   5.309  14.263  0.1173  0.1508  0.2085
81063W        W24079  17.093  12.780  13.857  0.1099 -0.3810  0.0818
81064W        W24080  22.152  33.175  22.058 -0.0721  0.0690  0.0267
81065W        W24081  14.294   8.287  22.423 -0.1605  0.1846 -0.0196
81066W        W24082   0.206   5.856  15.861 -0.1209  0.1379  0.1382
81067W        W24083  21.190  32.203  27.100 -0.3686 -0.1035  0.0241
81068W        W24084  19.585  29.651  27.140 -0.2091 -0.0458 -0.1946
81069W        W24085  16.019  32.808  15.719  0.1227 -0.1525 -0.0881
81070W        W24086  30.352  23.369  22.451  0.1428  0.2769  0.2257
81071W        W24087  20.834  24.533  22.934  0.0894  0.0958  0.2064
81072W        W24088  12.792  30.563  23.043 -0.4354  0.0436  0.0484
81073W        W24089   2.464   0.791  22.868  0.2607  0.2058  0.1333
81074W        W24090  27.080  20.626  16.261 -0.0912 -0.4159  0.0410
81075W        W24091  23.306   7.887  19.739  0.0360 -0.0853  0.3864
81076W        W24092  23.936  20.779  16.468 -0.1323 -0.1500 -0.1015
81077W        W24093  25.312  11.938   8.769  0.3195 -0.2076 -0.1037
81078W        W24094  19.656  27.647   0.280  0.1238 -0.1055  0.3202
81079W        W24095   8.808  31.043   5.671  0.2011 -0.0534  0.0122
81080W        W24096   8.289   2.230  20.760  0.3632  0.0202  0.2745
81081W        W24097  13.934  28.456  21.838 -0.0628  0.0445  0.0147
81082W        W24098  27.259  29.829  16.548  0.1860 -0.0472  0.2126
81083W        W24099  20.111  29.575   3.625 -0.0922 -0.1683 -0.0446
81084W        W24100  32.088  33.153  20.235 -0.0590  0.2634  0.0727
81085W        W24101   9.635  10.214  25.957  0.0616 -0.0875 -0.1384
81086W        W24102  10.126  21.724  20.760  0.0466  0.3414  0.2665
81087W        W24103  16.396  30.592  26.671 -0.0566  0.2722 -0.2225
81088W        W24104  13.180  17.781   3.618 -0.0963  0.3313  0.2670
81089W        W24105   8.496   6.398  21.019 -0.0366  0.1006 -0.0695
81090W        W24106  27.050   7.035   5.232 -0.0082 -0.3260  0.0938
81091W        W24107   6.158  21.357  13.502 -0.0886 -0.0542 -0.1391
81092W        W24108   5.362  32.480   5.054  0.1898  0.0879  0.2409
81093W        W24109  12.138  28.136  23.947  0.1992  0.0589 -0.0620
81094W        W24110   4.265  17.291  25.125  0.0261  0.2076  0.0040
81095W        W24111   7.446  34.256  23.451  0.0334  0.2877 -0.0661
81096W        W24112   9.135   8.098  22.393  0.1175  0.0581  0.2619
81097W        W24113   2.494   2.969  22.410 -0.0057 -0.1382  0.0569
81098W        W24114  33.809  27.938  19.357  0.3536  0.1390 -0.0444
81099W        W24115  19.992   5.170  14.405  0.1087 -0.0063  0.0340
81100W        W24116  27.999  20.437  29.210  0.0287  0.0227 -0.3240
81101W        W24117  13.004  22.385  18.749  0.3398 -0.2663 -0.2971
81102W        W24118  30.397  26.385  17.540 -0.2349 -0.0845  0.0605
81103W        W24119   7.823  28.085   0.686 -0.0805 -0.0860  0.4529
81104W        W24120  30.263  27.324  23.151  0.0580 -0.1860 -0.2515
81105W        W24121  24.734   7.381  21.306  0.1410 -0.1656  0.0058
81106W        W24122  17.937   1.536  24.006  0.2301  0.1826 -0.0937
81107W        W24123  15.109  34.488  18.497  0.1447  0.0346  0.0307
81108W        W24124  15.545  27.460   9.949  0.1191 -0.2694 -0.0308
81109W        W24125  18.985   6.112  20.267 -0.2172 -0.0201  0.1275
81110W        W24126   0.231  33.226  15.955 -0.1137  0.1264  0.2724
81111W        W24127  21.585  10.619  16.726  0.1342  0.0210  0.0504
81112W        W24128   8.402  32.768  23.845 -0.0498 -0.4279 -0.1392
81113W        W24129  27.757  23.388  21.364  0.0324 -0.2534 -0.3060
81114W        W24130  18.635   1.087  17.052 -0.1286 -0.0896 -0.0474
81115W        W24131  31.566  31.238   7.668 -0.1174 -0.0512 -0.3904
81116W        W24132  18.285  32.126  24.490 -0.1876  0.0666 -0.1685
81117W        W24133  31.308  24.305  25.700 -0.0169  0.1598 -0.0263
81118W        W24134  19.966  29.783  27.455  0.0323  0.2578  0.1972
81119W        W24135  15.538   4.901  23.126  0.0311 -0.1802  0.0332
81120W        W24136  23.581  16.248   1.609  0.2613  0.2207 -0.1722
81121W        W24137  16.241  23.539  15.267 -0.0187 -0.0512 -0.0051
81122W        W24138  33.896  28.053  21.365  0.1951 -0.2559  0.0914
81123W        W24139  33.584  32.925   4.524  0.3799  0.1998  0.2672
81124W        W24140  21.989  29.303   1.793 -0.2871  0.1644  0.1135
81125W        W24141  11.988  18.833  27.851 -0.2809  0.1277  0.2361
81126W        W24142  34.215  23.453  26.655 -0.3596  0.0995  0.0169
81127W        W24143  20.580  20.383  21.230 -0.0284 -0.4032 -0.0133
81128W        W24144  19.738  19.395   8.398 -0.2897  0.1953  0.0068
81129W        W24145  18.525   0.873   5.285  0.6226  0.1910 -0.3209
81130W        W24146   0.327  21.890   4.933  0.0769  0.4166 -0.2350
81131W        W24147  22.711  31.558  17.427 -0.0715  0.1171  0.0917
81132W        W24148   4.171  31.198  22.623  0.0170  0.0665 -0.2955
81133W        W24149   3.691   9.791  21.376  0.4502 -0.2332  0.0423
81134W        W24150   0.130  26.795  26.729  0.2345 -0.1079 -0.0510
81135W        W24151  23.340  29.587  21.329 -0.0388 -0.0461 -0.0750
81136W        W24152   1.955   3.759  25.661  0.1285 -0.1116  0.0356
81137W        W24153  23.902   5.030  19.681 -0.0702 -0.2180  0.2814
81138W        W24154  12.405  31.958  25.976  0.0214  0.1614  0.1300
81139W        W24155  24.035  26.880   3.681  0.0146 -0.1752  0.1269
81140W        W24156  18.361  32.138  19.550  0.0140  0.1927  0.2579
81141W        W24157  16.880  34.363  23.911  0.2341  0.1171  0.0060
81142W        W24158  25.112  23.941   1.074  0.4988 -0.1781  0.1512
81143W        W24159  15.006  22.913  18.796 -0.6618 -0.0105  0.1051
81144W        W24160  18.990  23.421   3.776  0.1511  0.3257 -0.1150
81145W        W24161  15.531   5.504  13.972 -0.2601  0.0907 -0.3252
81146W        W24162  27.857   0.537  20.581  0.0197  0.4740 -0.1907
81147W        W24163  22.722  33.055  19.787  0.0297  0.2474  0.0570
81148W        W24164  28.813  31.882  16.677 -0.4232  0.1436 -0.0602
81149W        W24165  12.248  30.142  28.010  0.3307  0.1908  0.1907
81150W        W24166  23.696   7.317   8.303 -0.1521  0.2091  0.0250
81151W        W24167  16.033  11.653  13.889 -0.0147  0.1860  0.4382
81152W        W24168  14.221  23.227  27.060  0.3858 -0.1487 -0.3668
81153W        W24169  10.347  24.220   3.954 -0.3108 -0.1490 -0.1778
81154W        W24170  12.685  30.406   1.801 -0.2106  0.0604  0.2969
81155W        W24171  12.382  21.178   6.737  0.4380 -0.1051 -0.2415
81156W        W24172  15.635  23.508  20.665  0.1307 -0.2426 -0.1934
81157W        W24173  26.553  27.134  26.862 -0.0039  0.2520 -0.0406
81158W        W24174  22.340   0.237  16.361 -0.1796 -0.1802  0.2151
81159W        W24175  26.187  31.090   1.832  0.2545 -0.2552 -0.0769
81160W        W24176   8.339   6.061  24.950  0.0264  0.0947 -0.0588
81161W        W24177  18.347  22.317  19.911  0.1374 -0.3323 -0.0839
81162W        W24178  12.755  34.492  15.989 -0.2226 -0.1655 -0.0636
81163W        W24179  13.648  20.292  25.773  0.5069  0.4295  0.1528
81164W        W24180  11.433  24.593   4.085 -0.1149  0.0036 -0.0736
81165W        W24181  26.264  29.319  17.791 -0.0944  0.2908 -0.2020
81166W        W24182   6.332   5.866   9.727 -0.0135 -0.0468 -0.1110
81167W        W24183  28.046   1.369  15.175 -0.2324  0.2486  0.0610
81168W        W24184  15.665   6.607  25.099 -0.0423  0.3064  0.0799
81169W        W24185   5.182   0.122  15.039 -0.0708  0.1175  0.2325
81170W        W24186  15.239  16.785  12.649  0.2720  0.0608  0.2097
81171W        W24187  28.956   3.992   2.719 -0.1468 -0.1040  0.2327
81172W        W24188   6.889   7.905  18.430 -0.1278 -0.0390  0.0321
81173W        W24189  13.048   3.953  24.497 -0.4312  0.2432  0.2075
81174W        W24190   2.736   1.552   0.730 -0.2259 -0.0468 -0.0972
81175W        W24191  16.099   6.515  26.634  0.2712  0.0418 -0.3153
81176W        W24192  27.955  14.694  25.713  0.0023 -0.1786 -0.1589
81177W        W24193  30.174  29.740  28.192  0.0244 -0.0130  0.3170
81178W        W24194  29.730  30.783   3.262 -0.2073 -0.0378 -0.1203
81179W        W24195   4.485   4.116   1.487 -0.1555  0.1333  0.1086
81180W        W24196   2.403   5.990   9.611 -0.1288 -0.0538 -0.2123
81181W        W24197  24.440   0.991  20.409 -0.1371  0.0126  0.1338
81182W        W24198  21.621  33.316   2.505  0.0130 -0.3454  0.2358
81183W        W24199  25.936  18.545  24.692 -0.0373  0.2238 -0.0843
81184W        W24200   0.269  33.004  15.476  0.0302  0.0613 -0.4463
81185W        W24201  12.871  24.763  16.210  0.1144 -0.1424  0.1743
81186W        W24202  11.703   6.327  14.592  0.0879  0.0343  0.0006
81187W        W24203  16.567   1.843  20.275  0.0024 -0.0282 -0.2174
81188W        W24204   6.877  18.564  13.919  0.2295 -0.0929 -0.1604
81189W        W24205  19.446  25.102  16.601 -0.2418  0.0605 -0.0864
81190W        W24206  13.455  19.323  20.248 -0.0589 -0.0407  0.1259
81191W        W24207  14.375  34.599  22.541 -0.0168 -0.1772 -0.4224
81192W        W24208  15.253  27.092  21.095  0.0997 -0.1509 -0.2559
81193W        W24209   9.504  22.503  20.604  0.2004 -0.1212 -0.0418
81194W        W24210  25.665  26.120  19.917  0.1101 -0.0820  0.0386
81195W        W24211  12.179  24.258   2.386  0.0327  0.1447 -0.0968
81196W        W24212  14.784  26.982   3.977  0.2339  0.0126  0.1497
81197W        W24213  14.628   0.840  27.056 -0.4106  0.1646  0.0904
81198W        W24214  32.645  34.532  25.869 -0.0443 -0.2062 -0.2343
81199W        W24215  16.812  28.584  26.243 -0.1655  0.1420  0.2341
81200W        W24216  20.203  14.520  16.213  0.1521  0.2419 -0.0439
81201W        W24217  20.495  21.386   1.773  0.0729  0.0133  0.0285
81202W        W24218  18.971   3.582   4.216  0.1212  0.0761  0.0286
81203W        W24219  15.720   6.486  19.083  0.1758  0.1731  0.2435
81204W        W24220  10.727  14.456  24.313  0.0412  0.1304 -0.1845
81205W        W24221  12.489   8.132   2.929 -0.1981  0.0482 -0.0578
81206W        W24222  10.426  24.101  27.099  0.1394  0.3386  0.2246
81207W        W24223   9.020  23.351  26.550 -0.1440  0.0599  0.2239
81208W        W24224  23.026  24.148  23.273  0.0561  0.0902 -0.2619
81209W        W24225   7.407   0.281  17.092 -0.2320 -0.0610  0.2357
81210W        W24226  33.317  26.071  28.712  0.0552  0.0177 -0.0705
81211W        W24227  20.039   2.195   0.594 -0.0883  0.0163  0.1245
81212W        W24228  24.506  26.977  25.556 -0.1750  0.1884  0.1807
81213W        W24229  25.524  17.763  14.492  0.4424  0.0761  0.1219
81214W        W24230  32.307  24.420   6.809  0.0806 -0.0471  0.0642
81215W        W24231  30.249  24.800  17.584 -0.1563 -0.2407  0.1797
81216W        W24232   6.182  33.325   1.264 -0.0453 -0.0662  0.0584
81217W        W24233  19.859   9.164  22.805  0.2144  0.2610 -0.1746
81218W        W24234  25.853  11.550  15.752  0.1635 -0.0005  0.3086
81219W        W24235  18.834   0.295  15.265  0.0944  0.1541  0.1021
81220W        W24236  12.046  18.662  28.335 -0.0414 -0.3000  0.0982
81221W        W24237   9.088  28.658   0.972 -0.1334 -0.0431  0.1435
81222W        W24238  34.141  13.917  14.416 -0.2007  0.0309 -0.2274
81223W        W24239  21.031  28.626   9.445 -0.1106  0.1335 -0.0359
81224W        W24240  12.176  26.931  22.025  0.1677  0.0604 -0.4979
81225W        W24241  18.200  30.523   2.247 -0.1753  0.0934  0.1551
81226W        W24242  20.739   2.146  28.836  0.0673 -0.0057 -0.1237
81227W        W24243  16.795  30.821   6.359  0.0559  0.1319 -0.2574
81228W        W24244   5.932   2.754  21.150  0.1379  0.1105 -0.1503
81229W        W24245  30.634  10.324   5.585  0.2948  0.2036 -0.3164
81230W        W24246  25.030  26.037  26.005  0.0730  0.0898  0.1330
81231W        W24247  20.926  14.567   7.943 -0.0218 -0.3802 -0.0009
81232W        W24248  20.645   2.557   4.335  0.0471  0.0294 -0.1686
81233W        W24249   9.478  30.000  18.372 -0.1248 -0.0857  0.0139
81234W        W24250   5.799   0.989  25.024 -0.0249  0.2526  0.1358
81235W        W24251  21.099  21.616  23.353 -0.0500 -0.1384  0.3586
81236W        W24252  14.720  32.303  26.342 -0.1890  0.1190  0.3797
81237W        W24253  12.227   3.272  16.934  0.0447  0.2371 -0.3631
81238W        W24254  30.424  19.281   3.404  0.0168 -0.2944 -0.1537
81239W        W24255   9.846  10.307  27.790 -0.3335 -0.1706  0.2207
81240W        W24256  21.090   2.353   1.552 -0.2650  0.4289 -0.3039
81241W        W24257  17.640  25.818   4.075  0.1269  0.3538  0.0044
81242W        W24258  26.801   0.039  25.183  0.0626 -0.1820 -0.0898
81243W        W24259  27.322  20.130  18.653 -0.1394 -0.0998 -0.0686
81244W        W24260  12.087   5.152  17.792  0.0594 -0.2018 -0.1896
81245W        W24261  23.436   8.274  22.040  0.0829  0.3920  0.2628
81246W        W24262   6.377  32.403  16.819  0.0522 -0.0291 -0.1640
81247W        W24263  15.182   4.333  23.918 -0.0745  0.1320 -0.1463
81248W        W24264   8.582  21.759   7.352  0.1605 -0.2005  0.1181
81249W        W24265  15.140  16.588   4.624 -0.5789  0.0432  0.0999
81250W        W24266  15.184  32.031  24.093 -0.2620 -0.0963 -0.1370
81251W        W24267  29.742  29.633  10.895 -0.2360  0.2368  0.3279
81252W        W24268  17.598   4.862   6.664  0.4486  0.0337 -0.2539
81253W        W24269   8.596  30.617  17.312 -0.0842  0.1309 -0.1736
81254W        W24270  18.031  19.916   1.126  0.2297  0.1075  0.2836
81255W        W24271  13.671  23.912  13.786  0.0642 -0.2799 -0.1053
81256W        W24272  29.473  33.150  26.234 -0.1409 -0.4081 -0.1434
81257W        W24273  23.104  22.392   7.105  0.3414 -0.0876  0.0040
81258W        W24274  20.948   7.389  19.480  0.1269 -0.0082  0.1071
81259W        W24275  26.780  18.893  20.689  0.2441 -0.2246 -0.3028
81260W        W24276  18.693   0.961  28.969  0.3341  0.0404  0.0551
81261W        W24277  22.592  33.684  27.726 -0.2682  0.2837  0.2253
81262W        W24278   0.721   8.620  20.246  0.0434  0.1426  0.1309
81263W        W24279  15.221  32.072   4.208 -0.1095  0.1236 -0.0756
81264W        W24280  28.595  30.979  17.443 -0.0033 -0.2044 -0.0727
81265W        W24281  13.178  26.167  13.580  0.0087  0.2725  0.2554
81266W        W24282  19.926  31.847  17.290 -0.1263  0.2122 -0.2343
81267W        W24283  10.391   0.916   2.107  0.0165 -0.0676  0.0368
81268W        W24284  15.333   0.698   6.671  0.1612 -0.1449 -0.0617
81269W        W24285   9.478  26.456  22.000 -0.0841  0.2006 -0.0999
81270W        W24286  31.351  28.689  15.211 -0.1567 -0.3295 -0.0035
81271W        W24287  23.076  28.961  19.895 -0.0635  0.2861 -0.0211
81272W        W24288   4.183  31.255  15.930 -0.0086 -0.0164 -0.2034
81273W        W24289  17.260  32.208  21.867  0.0459 -0.0528  0.0603
81274W        W24290  28.267  14.973  23.233  0.1391  0.1569  0.2679
81275W        W24291   9.368  27.088  28.194  0.1411 -0.2712  0.0306
81276W        W24292   8.253  32.048  18.764  0.2859  0.1854 -0.0550
81277W        W24293  31.834  12.599  16.593  0.0553  0.0866  0.0220
81278W        W24294   2.949  13.126   4.594 -0.3592 -0.1954  0.1041
81279W        W24295   2.386  25.174  17.703 -0.5401  0.3323 -0.0615
81280W        W24296  24.552  25.539  29.039 -0.1823  0.0173 -0.1681
81281W        W24297  19.767  29.276   2.400 -0.1073 -0.1134  0.2572
81282W        W24298  19.006   2.456  15.553 -0.1095 -0.1167 -0.1814
81283W        W24299  29.348  26.914  24.981 -0.2863  0.2922 -0.1567
81284W        W24300  15.483  29.578   5.930  0.1107 -0.2400 -0.0957
81285W        W24301  12.564  33.980   6.437  0.0861 -0.0587 -0.3808
81286W        W24302  25.579  29.367   4.516  0.1261 -0.0642 -0.2954
81287W        W24303   0.845  21.886   2.700  0.1497  0.1631 -0.3157
81288W        W24304  12.107  14.237  19.676 -0.3359 -0.1184 -0.2306
81289W        W24305  17.183  31.364   1.602  0.1990 -0.1957  0.0453
81290W        W24306  31.015   5.671   9.481 -0.3142  0.0826 -0.0605
81291W        W24307  17.426  20.901  12.872 -0.0234 -0.0371 -0.2514
81292W        W24308  10.040  27.323   0.678 -0.1534  0.2078  0.2338
81293W        W24309  24.275  24.148  22.505  0.2656 -0.2309 -0.0643
81294W        W24310  16.352  22.558  13.058  0.0327  0.1446 -0.1913
81295W        W24311   6.700  30.191   8.176 -0.0056 -0.2609  0.0092
81296W        W24312  18.514  28.501   8.157  0.3731 -0.1075 -0.2154
81297W        W24313  12.298  24.053   6.463  0.1891  0.1388 -0.2791
81298W        W24314  28.519  33.777  25.339 -0.1742  0.3468  0.0755
81299W        W24315  25.210  28.954   6.877  0.0593 -0.3189  0.1478
81300W        W24316  20.107   3.791  18.977 -0.1134  0.3602  0.1422
81301W        W24317  22.774  34.592   1.811 -0.0960  0.0984 -0.0428
81302W        W24318  11.447   7.061  22.571 -0.2683 -0.0938  0.3112
81303W        W24319   3.625  25.481   7.672 -0.0620  0.4200 -0.2103
81304W        W24320  13.973  22.017   6.857  0.0704  0.0376 -0.0754
81305W        W24321   6.966  12.598  17.874 -0.0775  0.1535 -0.1222
81306W        W24322  19.526  15.182  19.959  0.4450  0.0487 -0.0376
81307W        W24323   2.705  29.705  23.310 -0.1220 -0.2537  0.0253
81308W        W24324   6.117  11.096  15.270  0.0641  0.1165  0.1722
81309W        W24325   4.999   2.604  27.570  0.2226 -0.1681  0.0234
81310W        W24326  31.283   4.917  27.015  0.0355 -0.3301 -0.1162
81311W        W24327  28.152  21.353  25.000  0.0691 -0.0015  0.0080
81312W        W24328   7.876  25.026   2.471 -0.0461  0.0706  0.1089
81313W        W24329  21.471  25.026   1.787 -0.2986 -0.1703 -0.2662
81314W        W24330   3.849  11.605  17.382  0.2482  0.0728  0.1962
81315W        W24331  17.835  34.698  17.076  0.1107 -0.1114 -0.0287
81316W        W24332   3.609  32.608  17.150 -0.1268 -0.4855  0.0542
81317W        W24333  20.936   8.347  14.758  0.0867  0.2779 -0.5160
81318W        W24334  30.377  26.020  20.803 -0.0243 -0.1003  0.1431
81319W        W24335  29.984   7.083   0.549 -0.3329 -0.3053  0.0137
81320W        W24336  13.960  33.717  19.289 -0.1749 -0.2018 -0.0697
81321W        W24337  11.959   0.870  21.038 -0.1837 -0.0522 -0.2326
81322W        W24338  25.027  33.158  19.300 -0.0302 -0.0812  0.1958
81323W        W24339  26.604   0.753  27.315  0.2799  0.1693 -0.2308
81324W        W24340   7.023  33.343  14.842  0.2307  0.0743 -0.0563
81325W        W24341  16.405  23.831  25.882  0.0731  0.3003 -0.0179
81326W        W24342   7.886  31.660   0.062  0.0245 -0.0710  0.3036
81327W        W24343  24.971   4.073   0.794  0.1887 -0.3521 -0.1424
81328W        W24344   4.126   7.845  15.305 -0.0272  0.2840  0.0358
81329W        W24345   8.193  19.427   2.849 -0.1404  0.4301  0.4405
81330W        W24346  31.647  11.613  19.862  0.3056 -0.4922  0.0674
81331W        W24347   6.350  28.437   9.674  0.3489 -0.0708 -0.2998
81332W        W24348  17.984  34.401   5.956  0.0813 -0.1593 -0.0859
81333W        W24349  13.788   2.318  14.329  0.0791 -0.1638 -0.2180
81334W        W24350  11.351   9.576  26.418  0.0747  0.2265  0.1291
81335W        W24351  25.256   3.547  17.202 -0.1967 -0.0307  0.3503
81336W        W24352   6.379  25.973  18.290  0.1860 -0.2968 -0.1081
81337W        W24353   1.871  26.584   5.674  0.0393  0.2115 -0.1283
81338W        W24354  24.218   7.411  22.619 -0.1173 -0.3760 -0.0286
81339W        W24355  22.192  34.209   2.853  0.0293  0.1317 -0.1280
81340W        W24356   7.876  27.175   5.191 -0.0381 -0.2112 -0.0042
81341W        W24357  15.711  24.270  17.728  0.1669  0.2323 -0.1527
81342W        W24358   0.381  13.422   8.858 -0.0419  0.1583 -0.2808
81343W        W24359  27.740  21.129  21.672  0.0399  0.0151 -0.0135
81344W        W24360  21.424  31.515  19.452 -0.0743  0.0526 -0.2181
81345W        W24361  16.901  31.502  24.553  0.0667  0.2023 -0.2100
81346W        W24362   6.384  19.263   5.447  0.1383  0.0678  0.2955
81347W        W24363  23.365  32.237  17.693 -0.0775  0.1879  0.3042
81348W        W24364   9.129  10.358  16.209  0.0556  0.0495 -0.2280
81349W        W24365  22.118  29.024   0.416 -0.0647  0.2474  0.3953
81350W        W24366   2.367   8.066  27.458  0.0950 -0.0321 -0.0666
81351W        W24367  32.474  19.407  27.926 -0.0615  0.0438  0.1886
81352W        W24368  22.817   4.047  19.050  0.0060  0.0753  0.1498
81353W        W24369  18.555  26.541  22.765 -0.1331 -0.1184  0.1480
81354W        W24370  11.061  28.224  22.537 -0.1121  0.0056  0.2851
81355W        W24371  26.943  31.086   7.626  0.2083  0.0455 -0.1806
81356W        W24372   1.465  27.539   1.874 -0.2323 -0.0970  0.1545
81357W        W24373  15.749   3.045  27.120 -0.0779 -0.2274  0.0380
81358W        W24374  12.741   4.173  25.855 -0.0201 -0.0829 -0.0498
81359W        W24375   5.175  28.942  20.122  0.0775  0.1762  0.2646
81360W        W24376  23.620   1.019   2.826 -0.3273  0.0187 -0.0324
81361W        W24377   5.551  30.408  24.939  0.1151 -0.5104  0.1700
81362W        W24378  11.451  22.355   2.426  0.0204  0.1813  0.0879
81363W        W24379  21.191  32.490  19.527  0.1797 -0.0722  0.2587
81364W        W24380  22.858  28.429  25.201 -0.0450  0.0383 -0.0614
81365W        W24381  31.781  11.489  25.844 -0.1993  0.1443  0.0624
81366W        W24382   8.190  25.851  28.743  0.1803 -0.1572 -0.4421
81367W        W24383  16.643  14.860  25.658  0.0657  0.0059 -0.0416
81368W        W24384   7.865   3.846  26.617 -0.2054  0.1863  0.0204
81369W        W24385  10.859   5.922  18.922  0.1254 -0.0836 -0.1445
81370W        W24386  20.127   3.170  23.746  0.2652 -0.3067  0.4696
81371W        W24387  21.874  28.606   0.537 -0.1626  0.2226 -0.0387
81372W        W24388  10.555  25.835   7.584  0.0820  0.1694  0.2942
81373W        W24389  16.889  24.756   2.235  0.2055 -0.0404 -0.1276
81374W        W24390  12.739   1.033   0.178  0.1476 -0.0501 -0.1124
81375W        W24391  12.109   5.975  23.363 -0.0713  0.0153  0.0610
81376W        W24392  12.989  18.205   3.836  0.0512 -0.2074 -0.1248
81377W        W24393   0.661  30.125  23.425 -0.1042  0.1245  0.0906
81378W        W24394  33.760  29.768  19.031 -0.5516 -0.0949  0.3820
81379W        W24395  20.157  25.585  16.937  0.2557 -0.0729  0.1661
81380W        W24396   2.218  31.769  26.270 -0.0311  0.0358 -0.1069
81381W        W24397  34.436  33.525  16.911 -0.0689 -0.3372  0.1466
81382W        W24398  30.986   0.747  26.411 -0.1742  0.2835  0.2268
81383W        W24399   9.704  32.909  22.976 -0.0380  0.0029  0.1565
81384W        W24400  14.799  27.589  19.175  0.3583 -0.3824  0.0551
81385W        W24401  17.258  32.506  25.165  0.0940 -0.3029 -0.1578
81386W        W24402  14.406  25.361   2.786  0.3334 -0.1786  0.3848
81387W        W24403  15.295   4.240  28.838 -0.0282 -0.0703 -0.0885
81388W        W24404  16.078   2.119  26.948 -0.0964 -0.4011 -0.0770
81389W        W24405  11.630  13.681   6.943 -0.0320 -0.3132 -0.0345
81390W        W24406  16.008   7.651   2.431  0.0069  0.0608 -0.0989
81391W        W24407  10.029   7.831  13.498 -0.0336  0.2236 -0.0752
81392W        W24408  17.975  31.837  22.023 -0.2127  0.1856 -0.1596
81393W        W24409  22.867  28.338  19.591 -0.2048  0.1555 -0.0582
81394W        W24410  13.733  30.008  28.278  0.1566  0.0173 -0.2584
81395W        W24411  10.735  32.699  28.425  0.0713  0.1561  0.0318
81396W        W24412  17.873  30.852  26.620  0.3004 -0.1221 -0.1192
81397W        W24413   6.656  31.322  14.912 -0.0959  0.4358 -0.4596
81398W        W24414   5.426  17.722  25.773  0.3529  0.2268  0.3573
81399W        W24415  10.613  22.688  20.628  0.0103 -0.3130 -0.3824
81400W        W24416   2.631  30.392   2.426 -0.0751  0.0432  0.1162
81401W        W24417  23.774  30.185  24.492  0.0648  0.1640  0.0645
81402W        W24418   8.181  29.247   0.415 -0.4485 -0.3068  0.5277
81403W        W24419   9.245  27.701  14.900  0.0319  0.2027  0.3253
81404W        W24420  22.623   1.283  21.172 -0.0014 -0.1399 -0.0243
81405W        W24421  32.140  32.299   7.111  0.1862 -0.2599 -0.1415
81406W        W24422  16.374  29.450  15.237  0.4866 -0.3126 -0.1167
81407W        W24423  33.342   5.181  22.196 -0.2778 -0.0120  0.2342
81408W        W24424  33.859  31.819  19.424 -0.2453 -0.0734  0.3289
81409W        W24425  10.975   0.805  18.165 -0.0369 -0.2178  0.1351
81410W        W24426   6.640  28.532  20.319 -0.1313  0.0359 -0.0556
81411W        W24427  13.295  27.193   3.498 -0.0086 -0.2123  0.2368
81412W        W24428  12.265  20.990  23.772 -0.1744  0.0230 -0.0348
81413W        W24429  25.717   5.954  18.154 -0.1477  0.1319  0.0230
81414W        W24430  16.876  32.466  28.644 -0.1908 -0.0992 -0.0402
81415W        W24431  15.248  31.305  20.064 -0.2094 -0.0425  0.2109
81416W        W24432  29.959  28.007  22.492 -0.1414  0.1372  0.1905
81417W        W24433  10.912  10.309  17.657 -0.0890 -0.0803  0.1696
81418W        W24434  16.441   8.543  20.990 -0.0195  0.1259  0.0301
81419W        W24435  18.904   5.107  19.379  0.3342 -0.6155  0.1066
81420W        W24436  29.217  19.192  15.717 -0.0835 -0.1160 -0.0899
81421W        W24437  30.445  19.365   7.677 -0.3584  0.0342 -0.0296
81422W        W24438  14.725  28.331   2.191 -0.0223  0.0245 -0.1896
81423W        W24439  21.170  34.157  24.018  0.0475 -0.2875  0.1936
81424W        W24440  11.094  29.006  26.324 -0.0374  0.1355  0.0584
81425W        W24441   9.484  34.504   2.398  0.0953  0.3377  0.1854
81426W        W24442  20.358  34.049  23.347  0.3258 -0.0504 -0.0701
81427W        W24443  10.477  29.589  17.680  0.0623  0.0795  0.0528
81428W        W24444  11.289  17.570  20.208 -0.0026 -0.0142  0.0950
81429W        W24445  22.578  22.093  24.262  0.1178 -0.2213 -0.1185
81430W        W24446   0.199  34.503  24.148  0.1666 -0.0815  0.2471
81431W        W24447  31.780  23.631  18.984 -0.1414  0.1078  0.0146
81432W        W24448   6.029   0.510  17.655 -0.2547 -0.0868  0.2720
81433W        W24449  16.824  29.959   0.746  0.2758  0.2480 -0.0441
81434W        W24450   9.216  21.271  28.417  0.0142  0.3213  0.0800
81435W        W24451  32.553  14.083  19.363  0.2135  0.1362 -0.0001
81436W        W24452   8.718  34.072  23.567 -0.0788 -0.0247  0.1854
81437W        W24453   5.837  28.387  26.783 -0.2524 -0.1728 -0.1440
81438W        W24454  25.840  30.783   4.553 -0.0588 -0.2847  0.0229
81439W        W24455   8.994  30.800  28.167  0.0283  0.1024 -0.0433
81440W        W24456  25.761   9.529  23.962 -0.4120  0.4136  0.3102
81441W        W24457  23.995  22.012  23.209  0.0102 -0.0247 -0.3262
81442W        W24458  32.902   7.693  15.939 -0.3057  0.0864  0.2106
81443W        W24459  30.434   6.659   3.646  0.2853  0.0425 -0.1166
81444W        W24460   8.575   8.065  21.080  0.4119  0.0253  0.2151
81445W        W24461   8.630  28.274  14.489 -0.1713 -0.1454  0.1471
81446W        W24462  17.377  24.376  28.247  0.2947 -0.1122  0.0902
81447W        W24463   8.614  14.790   8.750 -0.3126 -0.0496  0.0200
81448W        W24464  16.600  28.578  28.700 -0.2993 -0.3630 -0.0798
81449W        W24465   3.119  16.895  24.731  0.0423 -0.3319  0.1382
81450W        W24466  20.115   1.126  16.089 -0.0498  0.1990 -0.0652
81451W        W24467  23.324   2.328  20.599 -0.2895 -0.3272  0.2610
81452W        W24468  18.737  19.654  23.028 -0.0985  0.0172 -0.0289
81453W        W24469  25.696   0.702   9.561 -0.1795  0.0359  0.0790
81454W        W24470  28.583   5.660  18.854 -0.3352  0.0824 -0.2485
81455W        W24471  16.816  14.353   4.936  0.0709 -0.0897 -0.0940
81456W        W24472  26.564   6.888  27.076 -0.0613  0.2147 -0.0688
81457W        W24473  26.144  24.401  18.453 -0.0818 -0.0007  0.3213
81458W        W24474  22.522  31.597   9.096  0.1351  0.2465  0.3860
81459W        W24475  18.510   0.995   6.933  0.3124  0.0167 -0.0398
81460W        W24476  33.815  13.860  23.820 -0.0462  0.1100  0.0831
81461W        W24477  17.991  27.870  14.684  0.0841  0.0190  0.3233
81462W        W24478  15.936  13.123   3.733  0.1035  0.3136  0.2268
81463W        W24479  13.027  28.735  27.763  0.0429  0.3536 -0.2751
81464W        W24480   7.401  24.108  25.231 -0.0398  0.0627  0.3582
81465W        W24481   7.919  34.382  23.303  0.0466  0.1347  0.4707
81466W        W24482  21.559  29.439  22.592 -0.0196 -0.0824 -0.2499
81467W        W24483  18.924  24.185  16.615  0.1104  0.0257 -0.0697
81468W        W24484  10.809   3.339   0.549  0.0830  0.2399  0.0781
81469W        W24485  34.504  29.340   3.436 -0.0944 -0.0701 -0.2477
81470W        W24486  27.823  20.263  25.068 -0.0248 -0.4585  0.0908
81471W        W24487  19.060  30.776   3.592  0.0544 -0.0806 -0.0922
81472W        W24488   3.630  29.829  28.932 -0.0896 -0.1101  0.2245
81473W        W24489  18.692  30.846  23.350 -0.0969  0.1130  0.4896
81474W        W24490  26.540  33.948  18.972  0.4360  0.0379  0.0536
81475W        W24491   6.781  20.067   1.320  0.0031 -0.0423  0.1720
81476W        W24492  24.494   9.986   4.446 -0.2394  0.1468  0.0135
81477W        W24493  12.927   3.385  29.104  0.1127  0.1942 -0.0175
81478W        W24494  14.663   4.996  23.687 -0.0744 -0.1832  0.1304
81479W        W24495  18.098  16.899  23.903  0.1891  0.1198  0.3089
81480W        W24496  32.598   8.760   4.270  0.1542  0.1041  0.0653
81481W        W24497   0.629  10.558  29.203 -0.1157  0.1306 -0.3147
81482W        W24498  19.888  30.174  16.935 -0.1939 -0.0497 -0.0788
81483W        W24499  11.826   6.918  16.939 -0.1494 -0.5229 -0.0027
81484W        W24500  17.077  23.501  15.881 -0.2357 -0.0670 -0.3384
81485W        W24501  11.597  30.196   5.486  0.0664  0.0405 -0.1424
81486W        W24502  14.896  29.933  19.447 -0.3336  0.1264 -0.1659
81487W        W24503   6.292  34.236   2.247 -0.1390 -0.0841 -0.1030
81488W        W24504   8.089  21.807  21.728  0.0280  0.0752 -0.1660
81489W        W24505   3.933   1.005   7.931  0.2758 -0.0080 -0.0952
81490W        W24506  27.144   3.304  25.369  0.1556 -0.0706  0.2358
81491W        W24507   8.778  12.839  23.132  0.1495  0.0075  0.0397
81492W        W24508  24.139   0.965  23.819  0.1191  0.0657  0.2853
81493W        W24509  25.357  29.590  28.896  0.0326  0.5181 -0.3911
81494W        W24510  26.200   2.811   4.305  0.2244 -0.3484 -0.0877
81495W        W24511   1.806  33.539  16.989  0.0924  0.3710 -0.0063
81496W        W24512   7.532  14.638   7.349 -0.0467  0.0227 -0.1221
81497W        W24513   5.893  34.259  14.630  0.0892  0.2731  0.2769
81498W        W24514  19.609  16.927  22.467  0.0917 -0.2616 -0.2117
81499W        W24515  13.689  34.383  14.990  0.0745 -0.2904 -0.0728
81500W        W24516  25.718  23.970  10.289 -0.0218 -0.0527 -0.0599
81501W        W24517  12.296   3.586  17.336  0.2873 -0.3091  0.0346
81502W        W24518  11.922   4.552  28.875 -0.0508 -0.1937  0.1139
81503W        W24519   1.892  28.830  22.883  0.1650 -0.3512 -0.1019
81504W        W24520  21.151  28.833   0.174 -0.0497 -0.1044  0.2239
81505W        W24521  29.187  34.590  26.754 -0.0784  0.1484  0.0413
81506W        W24522  28.527   9.406  22.857 -0.1537  0.2475  0.1007
81507W        W24523   0.177  12.892   8.095 -0.1249 -0.1073  0.0447
81508W        W24524  23.597  11.978  15.438 -0.0546  0.4137  0.3156
81509W        W24525   6.189  21.680  14.645 -0.1509  0.0484  0.0378
81510W        W24526  16.848   4.112  17.731 -0.2549 -0.1410 -0.1528
81511W        W24527  11.044   2.608  28.586 -0.0866 -0.1374 -0.1772
81512W        W24528   3.546  31.754  28.932 -0.1742 -0.2850 -0.0678
81513W        W24529   8.987   5.213   6.203  0.0970 -0.1048 -0.0899
81514W        W24530  13.372  24.676  26.565 -0.4787 -0.2554 -0.1498
81515W        W24531  19.153  18.635   1.564  0.3286 -0.0133 -0.1038
81516W        W24532   6.554  21.433  17.269  0.1014 -0.2734 -0.0409
81517W        W24533   8.343  22.732  23.643  0.0147  0.1471  0.0523
81518W        W24534  12.722  20.792  20.186 -0.0175 -0.1127 -0.1321
81519W        W24535  16.822  30.330  26.206 -0.1016  0.2765  0.1073
81520W        W24536   0.916   9.619  20.405  0.0971 -0.2778  0.0893
81521W        W24537  14.347  30.393  18.337  0.2166 -0.0549 -0.3681
81522W        W24538  18.923   5.815   1.637  0.2610  0.2668 -0.3890
81523W        W24539  13.214  21.813  20.929  0.0932  0.2152 -0.1144
81524W        W24540   9.635  32.299  17.121  0.2288 -0.0942  0.0649
81525W        W24541   6.775   6.036  24.424  0.0800  0.0036 -0.1446
81526W        W24542  13.326  10.511   7.326 -0.0821  0.0458 -0.0545
81527W        W24543   8.250   9.065  14.817 -0.3310 -0.0447  0.0652
81528W        W24544  26.002  24.519  22.209  0.2519  0.0522 -0.1179
81529W        W24545   7.316  13.170  24.944  0.1731  0.0111 -0.0491
81530W        W24546  15.111  16.875  20.599 -0.0633  0.0872  0.1865
81531W        W24547  24.135  15.286  17.946 -0.0690  0.0570 -0.0244
81532W        W24548  18.546  18.326  14.781 -0.1178  0.2862 -0.1194
81533W        W24549  16.812  22.705  16.504  0.1723 -0.0044  0.1861
81534W        W24550  17.471   1.485  25.254  0.4099  0.2528  0.2201
81535W        W24551  24.925  34.596  24.189 -0.2552 -0.0311 -0.1861
81536W        W24552  12.346  14.748  18.713 -0.1097 -0.2637  0.1095
81537W        W24553  14.863  32.454  23.575  0.2438 -0.0196 -0.4700
81538W        W24554  10.055  32.373   0.611 -0.1930  0.1374  0.0039
81539W        W24555   3.560  33.744   1.663  0.0254 -0.0473 -0.2553
81540W        W24556  14.036  23.614  22.615  0.0180 -0.0892  0.1409
81541W        W24557  18.526   4.489  26.031 -0.3514  0.0500 -0.1612
81542W        W24558  20.365  32.313   6.215  0.0918 -0.0398 -0.1195
81543W        W24559  14.218  26.286  19.809 -0.1698  0.1106  0.2495
81544W        W24560   1.711  26.269   3.437 -0.1053  0.1299  0.2153
81545W        W24561  19.572  29.248  20.333 -0.0141 -0.0846 -0.3078
81546W        W24562   6.301  29.155   2.411 -0.0311  0.1754 -0.1552
81547W        W24563  21.823   0.572  15.597  0.0079  0.3345 -0.2691
81548W        W24564   7.504  25.961  25.545  0.1867 -0.2129 -0.0242
81549W        W24565  10.522   5.650   6.944  0.1802  0.0777  0.1697
81550W        W24566  24.251  14.441  17.883  0.0035 -0.0956  0.2773
81551W        W24567  22.629  31.050   1.740  0.0214  0.0559 -0.2153
81552W        W24568  27.662  33.598  24.753  0.1333  0.2695 -0.1130
81553W        W24569   7.074   4.420  19.746 -0.0208  0.2906  0.0092
81554W        W24570  31.803  31.978  16.675 -0.3485  0.2718  0.1706
81555W        W24571  25.444  31.695  19.344 -0.1935 -0.2992  0.2470
81556W        W24572  20.835  24.354   4.823 -0.1810  0.2496 -0.2790
81557W        W24573   7.726  12.721  13.486  0.1292 -0.0947 -0.1213
81558W        W24574  17.415   2.604  28.231  0.1207 -0.3802 -0.0877
81559W        W24575  29.954  33.315  25.908  0.1834 -0.2769  0.4353
81560W        W24576  13.402   8.640  23.660  0.1798 -0.0835  0.0125
81561W        W24577  14.458  30.302  22.936  0.0183  0.1844 -0.3310
81562W        W24578  11.295  34.731  27.881 -0.0940  0.1190  0.1193
81563W        W24579  26.245  24.553  14.753  0.1992 -0.1201 -0.0238
81564W        W24580  24.978  22.879   3.356 -0.0703  0.2163 -0.1417
81565W        W24581  27.748   2.877  26.784 -0.0400  0.1032  0.4292
81566W        W24582  13.949  32.464  21.618  0.0942 -0.0040 -0.3075
81567W        W24583   5.050  15.074  23.003 -0.3656  0.2416  0.0610
81568W        W24584  15.701  26.575   6.255  0.1479  0.0005  0.1137
81569W        W24585   9.145  18.558   0.858 -0.3947 -0.0511  0.1389
81570W        W24586  30.490  30.843   3.840 -0.0798 -0.0176 -0.1439
81571W        W24587  11.252   7.606  27.777  0.0072  0.1946 -0.1632
81572W        W24588  31.973  28.839  14.874  0.1695 -0.0262 -0.1811
81573W        W24589  19.895  29.840  17.665  0.2704  0.2484 -0.3237
81574W        W24590  14.344  30.871  15.511  0.0085 -0.1352 -0.0515
81575W        W24591   6.215  23.351  24.139 -0.1705 -0.0740  0.0745
81576W        W24592   6.177   3.538   3.727  0.1190 -0.1162  0.0002
81577W        W24593  15.479  23.568   2.991 -0.0894 -0.3229  0.1835
81578W        W24594   8.854   2.737   6.268 -0.0581 -0.0421  0.2727
81579W        W24595  25.976  28.938   2.748 -0.1030  0.0060  0.1322
81580W        W24596  32.712  30.293   9.559 -0.0276  0.0405  0.1067
81581W        W24597  10.539  20.754  18.866  0.1025  0.1203  0.0928
81582W        W24598  14.061  28.069  16.918  0.1903  0.1225  0.0444
81583W        W24599   8.210   6.201   2.982 -0.1347 -0.2628 -0.0830
81584W        W24600  11.152   6.508   2.732 -0.1944 -0.0411 -0.0577
81585W        W24601  21.975  33.554  22.679 -0.1424 -0.0881 -0.0781
81586W        W24602  25.582   4.789   0.164 -0.0452  0.0987  0.0799
81587W        W24603   3.575   6.626  25.440 -0.0629 -0.1388  0.3059
81588W        W24604  11.923  34.218   3.917  0.0004  0.1030 -0.0575
81589W        W24605  17.840  24.227  28.288  0.0360  0.0417 -0.5292
81590W        W24606  21.983  17.886  24.590 -0.1698 -0.2612 -0.0799
81591W        W24607  14.077   7.819  15.367  0.0670  0.1455 -0.2276
81592W        W24608   3.769  27.379  16.474 -0.0983  0.3230 -0.1303
81593W        W24609   7.816  19.409   6.089 -0.1643 -0.0231 -0.0897
81594W        W24610  14.754  30.013   1.856 -0.2250  0.2065 -0.1438
81595W        W24611  10.002   4.170  10.593  0.1346  0.1431  0.1718
81596W        W24612  34.469  22.728  17.349 -0.2411 -0.2293  0.0617
81597W        W24613  26.923  25.576   7.262 -0.2915  0.2227  0.2542
81598W        W24614   6.586   7.147   5.888  0.1433 -0.0872 -0.0113
81599W        W24615  20.921  10.122  28.645 -0.3246 -0.1954  0.0508
81600W        W24616   6.144  30.715  26.314 -0.1918 -0.0792 -0.0968
81601W        W24617  18.869   5.953  23.028  0.2086 -0.1957  0.2523
81602W        W24618  16.149  28.961   1.737 -0.2814 -0.0459 -0.2012
81603W        W24619   8.705  27.288   5.414 -0.0564 -0.0576 -0.1508
81604W        W24620  22.396  29.318   2.967 -0.0560  0.0137 -0.1047
81605W        W24621   8.972   3.920   4.053 -0.2019  0.1902  0.0013
81606W        W24622   3.558   0.717   0.540  0.1559  0.0588 -0.1385
81607W        W24623   5.928   0.991  20.004 -0.1760 -0.2746 -0.0316
81608W        W24624  27.737  29.327   1.884 -0.0464 -0.1602  0.2083
81609W        W24625  13.118   8.045   1.598  0.0462  0.3106  0.2141
81610W        W24626  28.884  26.128   1.419  0.0060  0.3114 -0.0506
81611W        W24627  24.501  23.510  16.796  0.1963  0.0969  0.1294
81612W        W24628   3.677  12.949  22.691 -0.1493  0.2118 -0.1286
81613W        W24629  19.417  31.162  14.226 -0.2086  0.1864  0.2260
81614W        W24630  18.902  15.165  14.368  0.1002 -0.1736 -0.1892
81615W        W24631  26.029  29.530   1.639 -0.1843  0.1010  0.1081
81616W        W24632   4.696   1.099   6.639  0.2124  0.2119  0.1864
81617W        W24633  23.151   1.786  23.461 -0.3220 -0.2857  0.2134
81618W        W24634  13.218  10.807  23.071  0.1745 -0.1296 -0.1483
81619W        W24635  13.049   4.522   6.225  0.0643  0.0681  0.3487
81620W        W24636  21.532  12.655  29.195  0.2194 -0.1868 -0.0620
81621W        W24637  14.345  27.290  29.272  0.0310  0.0259  0.4267
81622W        W24638  10.070  31.800  21.444  0.0519  0.2990  0.0903
81623W        W24639  18.986   9.673  14.526 -0.0078  0.1198 -0.3463
81624W        W24640  22.566   3.245  18.740 -0.0111  0.2223  0.2262
81625W        W24641  18.905  16.907  25.055  0.1634  0.2092 -0.0142
81626W        W24642  17.453  14.038  14.573 -0.0018 -0.2548 -0.2662
81627W        W24643  12.271   7.217  24.904 -0.0188 -0.0967 -0.3168
81628W        W24644  11.659   5.651  22.009 -0.1134 -0.2892 -0.0290
81629W        W24645  26.393   0.479  24.408  0.1503 -0.1577 -0.1268
81630W        W24646   5.111  28.341   4.045  0.2817 -0.1524  0.0622
81631W        W24647   4.783   4.033   5.824 -0.0399 -0.0165  0.0613
81632W        W24648  10.660  14.429  26.265 -0.0292  0.1040 -0.0209
81633W        W24649  19.415  33.413   8.821 -0.5561  0.1904 -0.0263
81634W        W24650  12.905  27.557  18.539  0.0268 -0.2504 -0.1049
81635W        W24651  12.537  28.484  27.958  0.1485 -0.0884 -0.0928
81636W        W24652   1.303  27.857  25.302  0.1560 -0.0836  0.3081
81637W        W24653  20.284  19.251  14.973  0.1614 -0.1623 -0.0680
81638W        W24654   0.366   1.708  27.492 -0.0189 -0.1640 -0.2113
81639W        W24655   9.707  27.887   7.993  0.1801  0.0624  0.0310
81640W        W24656  16.118  18.562   7.789  0.1528  0.0496  0.0075
81641W        W24657   7.915  27.218   6.992 -0.0898  0.1760  0.0447
81642W        W24658  18.555  30.090  15.952  0.0256 -0.0889  0.1241
81643W        W24659  23.890   5.617  20.351  0.2359 -0.0369  0.0685
81644W        W24660  17.944   9.414  26.124  0.0177 -0.0815  0.1074
81645W        W24661   9.338   0.721   1.815 -0.3348 -0.0708 -0.1109
81646W        W24662  16.250  27.150  22.458  0.0936 -0.2443  0.1728
81647W        W24663   8.207  11.647   0.535  0.1812 -0.2365 -0.1293
81648W        W24664  16.202  20.961   3.476  0.1994  0.0883  0.1594
81649W        W24665  31.112  27.919  24.978 -0.0014  0.3777  0.1447
81650W        W24666  29.774   6.344  15.116 -0.0392 -0.1177 -0.2504
81651W        W24667  10.574  25.212  19.771 -0.4267  0.3465 -0.3834
81652W        W24668  17.666  23.612  14.531 -0.1578  0.0831  0.1267
81653W        W24669   5.157  13.858  24.217  0.1002 -0.1255 -0.0064
81654W        W24670  13.610  24.100  19.606 -0.2367 -0.2854  0.0354
81655W        W24671  20.575   6.314   9.248 -0.0974  0.3656 -0.0380
81656W        W24672  22.190  27.137  27.250  0.0301  0.0719 -0.1308
81657W        W24673  20.458  29.407  23.274  0.2240  0.0549  0.0323
81658W        W24674  20.338  29.157  21.544 -0.5085 -0.1333  0.0696
81659W        W24675  15.018  13.416  21.708 -0.0751 -0.1666 -0.0174
81660W        W24676  27.596  26.292   5.439 -0.3554 -0.0325 -0.2333
81661W        W24677  13.957   2.542  25.271 -0.0686  0.1149  0.0693
81662W        W24678   3.524  21.933   4.577 -0.1281 -0.1855  0.0407
81663W        W24679  22.988  25.856  25.846 -0.1243  0.1741 -0.2419
81664W        W24680   2.238   3.327  23.097  0.1775 -0.1717 -0.0998
81665W        W24681  18.355  19.054  26.322 -0.4890 -0.2076 -0.3841
81666W        W24682  12.834   2.117  14.113 -0.2144  0.0766  0.0637
81667W        W24683  18.558  27.612  28.780 -0.0162 -0.0813  0.0341
81668W        W24684  12.214   1.814  25.438 -0.0322 -0.2191 -0.0108
81669W        W24685   9.073  30.056  25.445 -0.2104  0.0381 -0.0077
81670W        W24686  16.680  27.510  26.316  0.1399  0.1700 -0.1056
81671W        W24687  12.533  24.006   2.836  0.0707 -0.2581 -0.0952
81672W        W24688  11.072  25.490   3.831  0.0789 -0.2484 -0.1424
81673W        W24689  12.578  24.434  28.105  0.1624  0.1944  0.3863
81674W        W24690  33.020   8.185   6.726  0.2719 -0.0422 -0.0571
81675W        W24691   8.235  20.967  16.855  0.1343  0.0904  0.2177
81676W        W24692  19.532  33.532   6.844  0.1119 -0.0804 -0.2335
81677W        W24693  11.999  27.731  16.093 -0.0829  0.2484 -0.1181
81678W        W24694  16.729  24.987   2.698  0.1944  0.1959  0.0999
81679W        W24695  13.205  25.321  25.310 -0.4839 -0.3536 -0.0743
81680W        W24696  16.681   0.114   0.065  0.2941  0.1575  0.0089
81681W        W24697  24.247  30.804   1.722  0.0464  0.1574  0.3625
81682W        W24698  32.577  18.474   1.002  0.2305  0.3802  0.3660
81683W        W24699  22.513   5.835  24.115  0.0512 -0.1133  0.1533
81684W        W24700  20.880  23.624  19.709 -0.1063  0.0363 -0.2614
81685W        W24701  15.141  31.498  25.933 -0.0550 -0.2029 -0.0865
81686W        W24702  11.300  28.652  16.955 -0.2663  0.1301 -0.1967
81687W        W24703  21.720   0.915  22.226  0.4472  0.0405 -0.1647
81688W        W24704   7.792   3.329  21.151  0.0932  0.2058  0.1063
81689W        W24705  17.255  25.158  17.628 -0.0431  0.2621  0.3367
81690W        W24706  17.761  24.735  19.008  0.0402  0.3050 -0.0898
81691W        W24707  17.169   0.148  26.392  0.0827 -0.3597  0.2165
81692W        W24708  21.506  18.724  18.905 -0.1836  0.5954  0.3197
81693W        W24709  13.866  20.038  25.023 -0.1370 -0.2769 -0.0189
81694W        W24710  26.792   5.829   5.184  0.0311  0.2143  0.0831
81695W        W24711  25.958  29.551  18.658 -0.1624  0.1114  0.1368
81696W        W24712  32.206   4.020  19.035 -0.1175  0.3178 -0.2539
81697W        W24713  21.978  19.382  21.211  0.0425  0.1233 -0.1076
81698W        W24714  20.214  14.170  26.050  0.3544  0.0958  0.0010
81699W        W24715  33.802   2.078   8.144  0.2106  0.3897  0.0420
81700W        W24716  24.767  34.517   3.451 -0.1514 -0.0157 -0.0387
81701W        W24717   9.090   8.073  20.184  0.1466  0.3940 -0.2275
81702W        W24718  32.460  12.216   6.171 -0.0075  0.0446 -0.1755
81703W        W24719  15.113  30.766   0.929  0.0982 -0.1906 -0.0065
81704W        W24720   5.705  23.702  16.107  0.1086 -0.2022  0.1693
81705W        W24721  13.924  28.725  18.699 -0.1864 -0.1337  0.0617
81706W        W24722  24.936  26.861   7.064 -0.0707 -0.2125 -0.0580
81707W        W24723  22.598   2.969  16.907  0.0712 -0.1320 -0.2834
81708W        W24724  24.476  27.295   4.490 -0.2607 -0.0687  0.4451
81709W        W24725   9.120  23.403  16.406  0.0944 -0.1440 -0.0094
81710W        W24726  34.446  15.651   7.780  0.0727 -0.0573 -0.0062
81711W        W24727  34.228  30.753  15.470 -0.0362  0.0051  0.0282
81712W        W24728  13.321  27.181  27.056 -0.1619  0.4906 -0.3140
81713W        W24729   9.696   2.312  28.618  0.1778  0.1399  0.0917
81714W        W24730  24.760  20.291  28.923  0.1798  0.1155  0.0468
81715W        W24731  11.816   9.806   2.997  0.0702  0.0553  0.0219
81716W        W24732  19.806  31.237   0.812  0.0383 -0.0795 -0.3094
81717W        W24733  18.256  27.432  21.495 -0.0208  0.0922 -0.1267
81718W        W24734   7.031  29.155  28.179  0.2519 -0.3761  0.0320
81719W        W24735  33.081   4.575  26.971 -0.0236 -0.3711  0.2286
81720W        W24736  11.378  28.876  21.000 -0.0877 -0.3229 -0.1249
81721W        W24737  28.240  22.739  24.454  0.0431 -0.0021 -0.1355
81722W        W24738  23.864  20.688  18.158 -0.1880  0.4660  0.2413
81723W        W24739  14.558  27.891  21.835  0.2647  0.0040 -0.1608
81724W        W24740  13.383   4.799  26.871 -0.0354 -0.1177 -0.1083
81725W        W24741  11.937  30.922   6.428 -0.1965 -0.0896  0.1596
81726W        W24742   7.784  23.545  20.788  0.2530  0.0618 -0.0287
81727W        W24743  31.519   2.141  17.755 -0.1357  0.2013 -0.2084
81728W        W24744  10.479  27.731  17.898 -0.2310 -0.0372  0.3100
81729W        W24745  14.262  24.093   4.500  0.0104 -0.2500 -0.0462
81730W        W24746  14.916   0.356   7.918  0.2254 -0.2916  0.0844
81731W        W24747  31.207  31.814  28.042 -0.0349 -0.0577 -0.0965
81732W        W24748  14.692  33.263  10.207 -0.1264  0.0192 -0.1504
81733W        W24749   7.154   3.365  26.108  0.1989 -0.3508  0.0264
81734W        W24750  11.670   3.753   0.088  0.1290  0.1157 -0.1929
81735W        W24751  12.860   5.045  25.299 -0.0564  0.0386  0.1062
81736W        W24752   6.352   3.196   8.152 -0.1527  0.0485  0.3385
81737W        W24753  15.886   8.977  21.741 -0.0406  0.2311 -0.1038
81738W        W24754  21.596  10.625  18.193  0.2471  0.2039 -0.2258
81739W        W24755   9.036  25.226  15.875  0.2040  0.2462  0.1986
81740W        W24756  15.170  28.942  10.057  0.2217 -0.2343 -0.0308
81741W        W24757  19.873  26.462  17.578 -0.1279 -0.2012 -0.0808
81742W        W24758  27.186   3.129   4.274  0.2501  0.0433  0.0414
81743W        W24759  16.649  18.044  13.369  0.1768  0.4002  0.0492
81744W        W24760  14.037   9.740  24.804 -0.1546 -0.2169  0.0953
81745W        W24761  25.463  26.018  29.165 -0.0204  0.0359  0.1730
81746W        W24762  19.424   9.003   3.440  0.0496  0.1807 -0.4283
81747W        W24763   9.465  34.437   8.462  0.1341  0.0769 -0.1978
81748W        W24764  25.996  24.092   8.022 -0.2114  0.2063  0.4835
81749W        W24765  11.544  27.949  18.860 -0.0809  0.0174  0.0535
81750W        W24766   9.868  32.813   9.710  0.0238 -0.1301 -0.0788
81751W        W24767  19.090   1.824  20.000  0.1073 -0.3089  0.0709
81752W        W24768   8.560  11.444   2.934  0.0905  0.2038  0.4256
81753W        W24769  14.238  24.286   1.069 -0.3328  0.0074 -0.2205
81754W        W24770  22.907   6.301  10.140  0.3127  0.1816  0.0530
81755W        W24771   6.591  29.949  17.907 -0.1605 -0.2002  0.0983
81756W        W24772  15.574  25.668  19.304 -0.0028  0.0307 -0.1049
81757W        W24773  20.664  31.795  14.520  0.1072  0.4732 -0.1293
81758W        W24774  24.239  21.461   4.652  0.2725 -0.1375  0.0242
81759W        W24775  14.114  15.493  15.826 -0.0941 -0.1895 -0.1424
81760W        W24776  15.928   4.105  23.330  0.0487  0.0454 -0.0056
81761W        W24777  26.376  22.593  17.176  0.0234 -0.0212 -0.0289
81762W        W24778  24.138  30.654  20.060  0.3126 -0.0950  0.0461
81763W        W24779  18.499   6.080   7.188 -0.1003  0.0200  0.1186
81764W        W24780  26.088   6.240   6.963  0.0019 -0.0592  0.0309
81765W        W24781  14.665  30.733  20.132 -0.1111 -0.0194 -0.2262
81766W        W24782  16.005  30.833   2.679  0.0567  0.4411  0.2235
81767W        W24783   1.082   4.044  17.781  0.1460 -0.2627 -0.2477
81768W        W24784  14.723  26.559  17.558 -0.0166 -0.2542  0.2609
81769W        W24785  18.083  15.641  22.743 -0.0773  0.0705 -0.1968
81770W        W24786  18.091   0.240   2.639  0.0109  0.1315 -0.1709
81771W        W24787   7.031  25.428  27.052  0.0830  0.1215  0.3680
81772W        W24788   9.635  28.634   5.629  0.1061 -0.1070 -0.2118
81773W        W24789   1.653  33.060  27.490 -0.0318  0.1394  0.5530
81774W        W24790   9.689  32.353   5.032  0.0937 -0.0468 -0.2509
81775W        W24791  21.311  25.883  24.442 -0.1577 -0.0018 -0.1755
81776W        W24792  13.467  29.151   7.810  0.0832  0.0740  0.2003
81777W        W24793  19.095   1.597  25.358 -0.1670  0.3353 -0.0808
81778W        W24794   9.147  34.160  20.391 -0.4149  0.2478  0.1681
81779W        W24795  30.254  26.236  11.426  0.2882  0.1827  0.1238
81780W        W24796   6.036   4.650  21.229 -0.0193 -0.0079 -0.0684
81781W        W24797  34.719  32.193  24.605  0.1056  0.1268  0.0239
81782W        W24798  14.456  30.868  25.001  0.0902 -0.0406  0.1165
81783W        W24799  12.176  31.841  23.533  0.1177  0.2097 -0.0094
81784W        W24800  10.618   0.969  22.891  0.1652  0.1024  0.0562
81785W        W24801  17.878  23.073  20.495  0.0680  0.1862  0.0945
81786W        W24802   6.257   9.159   5.418  0.0785 -0.2217 -0.1218
81787W        W24803  26.962   2.357  10.513  0.0659  0.1996  0.1423
81788W        W24804   3.337  14.360  18.249  0.0338 -0.1331 -0.0055
81789W        W24805  23.665  26.524  25.311 -0.0174 -0.0561 -0.1101
81790W        W24806  27.002  19.718  27.962  0.1658 -0.1756  0.0690
81791W        W24807  12.579  16.033  27.346 -0.0246 -0.0306 -0.1791
81792W        W24808  10.699   5.208   2.628 -0.0740  0.2877 -0.1549
81793W        W24809  17.405  28.693   9.645  0.1530  0.1532  0.0828
81794W        W24810  33.446   2.037  23.928  0.1393  0.2338  0.1954
81795W        W24811   8.413  28.526  15.641 -0.0093 -0.0876 -0.0426
81796W        W24812  10.031  24.328  15.491 -0.1499  0.1678 -0.1132
81797W        W24813  14.474   2.878   9.245 -0.1028  0.2469 -0.0558
81798W        W24814  18.643  17.528  21.549 -0.2827  0.2792 -0.0443
81799W        W24815  23.435   3.459   1.590 -0.2295 -0.2583  0.3019
81800W        W24816  13.509   1.081   3.168 -0.1995  0.3030  0.2142
81801W        W24817  13.966  33.938  27.386 -0.1538 -0.1163  0.0392
81802W        W24818   9.625  28.396  28.549  0.0958 -0.2221 -0.0913
81803W        W24819  26.534   8.630  15.095 -0.3879  0.0192 -0.3626
81804W        W24820  20.983  31.342  17.080  0.1053 -0.3242 -0.1107
81805W        W24821  25.639  22.128  28.350 -0.0892  0.5158 -0.1167
81806W        W24822  10.802   0.800   9.274 -0.0837  0.0588  0.0443
81807W        W24823  30.331   1.691  22.579 -0.0425  0.0501  0.0828
81808W        W24824  20.502  29.471  29.059  0.0031  0.1559 -0.1235
81809W        W24825   7.328   4.975  17.887  0.0260 -0.1822  0.0203
81810W        W24826  22.270  27.424  24.035 -0.0189 -0.1559  0.1876
81811W        W24827  12.994   6.026   7.182  0.2411  0.3252  0.0500
81812W        W24828  19.986   2.477   2.689  0.2428  0.1781  0.2644
81813W        W24829  12.276  26.331  27.271 -0.5975 -0.0639  0.2040
81814W        W24830  11.732  34.593   6.083 -0.0720  0.0987 -0.0539
81815W        W24831  15.910  28.786   6.031  0.0330 -0.0337 -0.0654
81816W        W24832  18.124   2.741  27.703  0.0083 -0.1978 -0.0356
81817W        W24833  16.537  22.266  22.915 -0.0884 -0.0866  0.0907
81818W        W24834  13.987  14.693   8.142 -0.2161  0.1331 -0.0740
81819W        W24835   5.729  23.548  20.289 -0.1044 -0.0622 -0.0236
81820W        W24836  11.964   1.270   2.104  0.1078 -0.0584  0.1669
81821W        W24837  31.331  29.351   7.925 -0.2156 -0.0565  0.1096
81822W        W24838   5.600  27.487   1.984  0.0599 -0.0847 -0.0132
81823W        W24839  30.459   1.627   3.468 -0.0489  0.0425 -0.1573
81824W        W24840  22.596  31.275  18.676  0.0849 -0.3993 -0.0967
81825W        W24841  18.359  15.612  24.234 -0.2506 -0.0692 -0.1658
81826W        W24842  13.045   1.046   3.013 -0.0306 -0.1334  0.3016
81827W        W24843  22.690  20.302   1.076  0.0127  0.1178  0.1535
81828W        W24844  21.733  10.131  17.036  0.1733 -0.0405 -0.1739
81829W        W24845  34.121  34.458  26.387 -0.1080  0.1176 -0.3057
81830W        W24846  20.783   9.933   1.729  0.1918  0.3101  0.0714
81831W        W24847  21.698  33.258  15.784 -0.2725 -0.3916  0.2220
81832W        W24848  28.391   1.144  17.035  0.0220 -0.1969 -0.0503
81833W        W24849  26.121  30.620  10.736  0.1247  0.1082 -0.0678
81834W        W24850  25.178  15.297  17.446 -0.0820  0.0320 -0.2197
81835W        W24851  19.798  24.245  18.795 -0.1507 -0.2497 -0.0233
81836W        W24852  10.610  28.127   9.516 -0.1319  0.2365 -0.1325
81837W        W24853  14.207  26.936  16.287  0.0827 -0.1121 -0.0303
81838W        W24854  33.859  22.698  24.065  0.1656 -0.1538 -0.2887
81839W        W24855   5.983   6.687   1.209 -0.3463  0.2246 -0.1998
81840W        W24856   5.905  22.129  14.700 -0.0750  0.2112 -0.1016
81841W        W24857  28.105  27.554  11.194 -0.0424 -0.0784 -0.0843
81842W        W24858  12.361  22.284   6.712  0.1747 -0.1000  0.0539
81843W        W24859  15.981  21.299  23.866  0.1280 -0.1403  0.0419
81844W        W24860  23.851  26.205  18.208 -0.0401 -0.0877  0.3975
81845W        W24861  13.441  30.637  20.837  0.0258 -0.2297  0.2131
81846W        W24862   6.736  26.501  27.880 -0.1870  0.2039 -0.2866
81847W        W24863  10.637   7.908   2.471 -0.1808  0.1217  0.1526
81848W        W24864  11.293  16.727   3.908  0.0973  0.2247 -0.0345
81849W        W24865  23.843   5.501   9.750 -0.3011  0.0387 -0.1255
81850W        W24866   6.259   4.060  28.540  0.0147  0.2263 -0.2262
81851W        W24867  20.224  25.995  19.717 -0.0263  0.0965 -0.0887
81852W        W24868  25.062  21.543   7.349 -0.2530 -0.1327 -0.1324
81853W        W24869  25.148  23.495   3.103  0.1454 -0.2929  0.0318
81854W        W24870   9.234  26.414   5.094  0.1845  0.0412  0.1384
81855W        W24871  18.471  32.666  27.605  0.1926  0.2980 -0.1879
81856W        W24872  20.704  13.439   6.227 -0.3120 -0.1696  0.2953
81857W        W24873  31.545   3.669  15.360  0.0108 -0.2222 -0.2921
81858W        W24874  28.662  27.619   4.958 -0.2487 -0.1365  0.0929
81859W        W24875  17.039  23.701  13.772  0.0733  0.0374  0.2764
81860W        W24876  10.285   8.188   3.567 -0.0328 -0.0292 -0.2411
81861W        W24877  25.121  31.938  16.857  0.1682 -0.0570  0.0777
81862W        W24878  14.276   4.111  17.049  0.0922 -0.0894  0.1139
81863W        W24879  19.399  34.067  28.578  0.1747  0.1131  0.1369
81864W        W24880  16.863   1.003   5.217 -0.2741  0.0470  0.2821
81865W        W24881  19.071  22.773  27.822  0.2194  0.1172 -0.2810
81866W        W24882  18.692  32.974   5.211  0.3121 -0.0718 -0.0158
81867W        W24883   3.797  28.868  15.862  0.0248  0.0951 -0.0331
81868W        W24884  14.896  21.181  27.108 -0.0609  0.0215 -0.0214
81869W        W24885  34.067  31.463  19.080  0.3969  0.2264  0.1181
81870W        W24886  22.088   2.023   9.530  0.2860  0.0187  0.0638
81871W        W24887  15.395   1.662   3.278 -0.2823  0.1515 -0.1040
81872W        W24888   7.253  28.072   1.824  0.0132  0.0166 -0.0096
81873W        W24889  13.641  32.097   6.351  0.0111  0.3260  0.0377
81874W        W24890  17.623   1.200  14.506 -0.3135 -0.0776 -0.2120
81875W        W24891  15.415  29.198  23.392 -0.1754 -0.2425  0.1916
81876W        W24892  17.327  31.063  19.799  0.3798 -0.0029  0.1102
81877W        W24893  33.051   6.837   6.151 -0.0207 -0.0106  0.1546
81878W        W24894   7.416   8.687  20.589 -0.1665 -0.1324 -0.1542
81879W        W24895   4.270  28.541  22.177  0.2186  0.0398  0.0044
81880W        W24896  25.253  30.068   3.073  0.4386  0.1700 -0.1295
81881W        W24897  22.288   5.556  26.744  0.2913  0.0623 -0.2823
81882W        W24898  16.983   5.243   1.513  0.0714 -0.1384 -0.2470
81883W        W24899  28.579  23.253  23.080 -0.2310  0.2422  0.2146
81884W        W24900  25.097  23.369   3.683 -0.3104 -0.0142  0.0041
81885W        W24901   8.459  28.810  14.370 -0.0350  0.1825 -0.0559
81886W        W24902  28.183  26.760  24.402  0.0944  0.1008 -0.1185
81887W        W24903  19.585  15.046   3.542 -0.0621 -0.0920  0.2890
81888W        W24904  17.160  26.850  16.721 -0.0764  0.0397  0.0923
81889W        W24905  26.505  22.326   5.676  0.0196 -0.0971 -0.0327
81890W        W24906  24.388  28.226   4.105  0.0053 -0.0551 -0.0693
81891W        W24907  16.534  23.684   1.273  0.0240  0.0304 -0.1933
81892W        W24908  16.964  30.146   0.314  0.0329 -0.0490 -0.0541
81893W        W24909  22.290  27.196  17.861  0.0602  0.0911 -0.2098
81894W        W24910  15.940  26.917   9.539  0.0740 -0.0478  0.1982
81895W        W24911  34.014  31.950  20.553  0.1770 -0.2313  0.0072
81896W        W24912  15.657  34.414  26.571  0.0912  0.2473  0.0545
81897W        W24913  15.467  34.235   5.494 -0.3487  0.0159  0.2734
81898W        W24914  13.519   3.012  10.585 -0.0490 -0.1040 -0.1167
81899W        W24915  28.432   5.135  22.488 -0.0860 -0.0429  0.4187
81900W        W24916  19.029   7.469  15.157  0.0661  0.2194 -0.1501
81901W        W24917  12.343  14.957  22.702  0.1828 -0.1749  0.1561
81902W        W24918  22.504   0.489  28.595 -0.1680  0.1641  0.2386
81903W        W24919  26.633  22.366  29.269  0.2772 -0.1413  0.3475
81904W        W24920   2.137   1.362  26.593  0.1868 -0.3378  0.0356
81905W        W24921  23.330   4.261  19.027 -0.4308 -0.1532 -0.2402
81906W        W24922  24.263  26.316   4.798 -0.0215 -0.1150 -0.1305
81907W        W24923  14.331  26.084  14.788  0.0635  0.2271 -0.2447
81908W        W24924  11.461   0.806   4.409  0.2244  0.1398  0.1654
81909W        W24925  10.219  19.691   1.998  0.0652  0.1142  0.1296
81910W        W24926  27.224   1.499  17.935 -0.1776  0.1747 -0.0700
81911W        W24927  21.222   9.687   1.967 -0.0406 -0.1590  0.1075
81912W        W24928  11.244  21.519  19.901  0.1032  0.0201 -0.1343
81913W        W24929   7.266   0.941  24.580  0.1316  0.3256  0.1918
81914W        W24930  25.185  16.433  26.747 -0.0753 -0.1763 -0.3653
81915W        W24931  17.231  30.226   4.348 -0.0102  0.0942  0.1875
81916W        W24932  14.076   1.915  24.008 -0.0353 -0.1470 -0.0706
81917W        W24933  34.638  19.817  10.880 -0.0456 -0.2351 -0.1718
81918W        W24934   2.847   7.078  24.636 -0.2010  0.3052  0.3256
81919W        W24935  15.713   2.196  26.480 -0.4284 -0.1627 -0.0497
81920W        W24936  32.935  31.969  10.282 -0.1070 -0.2254  0.0785
81921W        W24937  18.912  10.065  19.506 -0.0194  0.0061 -0.2892
81922W        W24938  26.961  23.988  18.903 -0.1868  0.2937  0.0782
81923W        W24939  19.414  32.172  24.645 -0.0134 -0.4694  0.3675
81924W        W24940  31.509  21.470  28.482 -0.0695  0.0254 -0.0667
81925W        W24941  27.323   6.641  27.482 -0.1821  0.0461 -0.1586
81926W        W24942  24.497  22.760   1.970  0.4812 -0.0076  0.0559
81927W        W24943  21.835  21.544  21.881 -0.1079 -0.2561 -0.1697
81928W        W24944  29.629   3.968  28.384 -0.0675  0.0682 -0.0491
81929W        W24945   8.857  34.029  17.694 -0.1735 -0.0141 -0.1499
81930W        W24946  15.503   8.748  21.109  0.2189 -0.1313 -0.3263
81931W        W24947   8.577  26.173   5.741  0.4522  0.1935  0.2578
81932W        W24948  26.143  32.259  26.358  0.1941 -0.0021  0.2237
81933W        W24949   6.761  33.430   9.782 -0.1697 -0.0301  0.0105
81934W        W24950  23.675  29.728  20.360 -0.0060 -0.0624 -0.3510
81935W        W24951  27.753   2.533   3.173  0.2636  0.5539 -0.1612
81936W        W24952   6.405  29.384  17.633  0.2770  0.1598  0.1690
81937W        W24953  30.205   4.632  26.060 -0.0011  0.1630  0.2053
81938W        W24954  12.375   6.676  18.303 -0.0202  0.0758 -0.0346
81939W        W24955  14.843  32.302   3.455  0.0232  0.0817  0.0109
81940W        W24956  15.130  25.440  16.251 -0.3246 -0.2576  0.0580
81941W        W24957  32.797   4.937  27.688 -0.2897  0.2263 -0.3936
81942W        W24958  30.382  31.362   8.278  0.1469  0.3818 -0.1158
81943W        W24959  20.374   0.919  26.410 -0.0246  0.1531 -0.3305
81944W        W24960  12.497  22.654  28.844  0.1334  0.1372  0.2939
81945W        W24961   8.580   0.409  27.387  0.3789  0.0774  0.3339
81946W        W24962  13.876  26.610  22.236 -0.0263  0.2590  0.1615
81947W        W24963   9.101  22.518  17.507 -0.2517  0.0604  0.0168
81948W        W24964   9.861   4.540  25.855  0.1798  0.1624 -0.0493
81949W        W24965  10.136  22.465   0.313 -0.1813 -0.1001 -0.0423
81950W        W24966   7.815  28.611  22.292  0.4464 -0.0207 -0.1371
81951W        W24967  25.946   3.004  19.307  0.1343  0.0835 -0.1605
81952W        W24968  12.058   6.987   6.670 -0.2311  0.1065 -0.0854
81953W        W24969   9.563  20.687   6.988  0.3394 -0.1767  0.2694
81954W        W24970  14.502  34.641   0.753 -0.1074 -0.1492  0.2789
81955W        W24971   5.541   4.391   3.998  0.1302 -0.0630  0.0882
81956W        W24972   1.185  28.668  24.784  0.2283 -0.1617 -0.0244
81957W        W24973  28.612   4.709  22.836  0.0076 -0.0463  0.0488
81958W        W24974  30.127  11.314   9.626 -0.1865 -0.3321 -0.1064
81959W        W24975   2.663  26.630   8.360  0.0494 -0.1399 -0.1222
81960W        W24976  31.609  32.989   3.678 -0.2089 -0.1810  0.0541
81961W        W24977   2.041   8.822  24.185 -0.2623 -0.1118 -0.0005
81962W        W24978  23.663  17.294   0.378 -0.1186  0.1521 -0.3297
81963W        W24979  20.197  22.680   7.752 -0.1223 -0.3534 -0.0612
81964W        W24980   1.663  33.335  25.148  0.0179 -0.2442 -0.2256
81965W        W24981   8.449  27.054  26.425  0.1166 -0.1558  0.0107
81966W        W24982  16.230  16.628  25.077  0.0780  0.0238  0.0493
81967W        W24983   8.665  23.595   6.649  0.1285 -0.1826  0.0596
81968W        W24984  25.728  28.987  10.330  0.0461 -0.0242 -0.3208
81969W        W24985  14.833  26.516  22.350  0.2425 -0.0015  0.1154
81970W        W24986   0.343   1.383   8.096  0.1246  0.2559  0.3546
81971W        W24987  24.077   3.514  11.739  0.1244  0.1443 -0.1603
81972W        W24988  27.415   9.826  23.605 -0.0566  0.2307 -0.0285
81973W        W24989  15.219  26.708   3.983  0.0502  0.0170  0.4117
81974W        W24990  34.578  30.170  28.947  0.0819  0.2169  0.0470
81975W        W24991  20.207   3.824  26.803  0.0067 -0.0399 -0.1772
81976W        W24992  19.808  33.816   1.583 -0.0856  0.1856  0.0119
81977W        W24993   6.000  32.992   7.520 -0.3200 -0.2064  0.3225
81978W        W24994  27.033  15.381   9.211 -0.0150 -0.1011  0.1207
81979W        W24995   9.719   0.499   7.220  0.0352 -0.0334 -0.0765
81980W        W24996  27.494  26.995   9.089 -0.1209  0.0518 -0.2336
81981W        W24997   2.855  23.243  17.032 -0.4333  0.0736 -0.0048
81982W        W24998   3.107  31.307   7.916  0.0912 -0.0682 -0.0646
81983W        W24999  14.938  24.879  28.259 -0.0500 -0.0823  0.3981
81984W        W25000  14.848  30.135   2.885 -0.0609  0.3581 -0.0717
81985W        W25001  18.090  23.958  20.047 -0.0822 -0.0178  0.0615
81986W        W25002   7.988  34.019  26.809  0.2314  0.1496 -0.0319
81987W        W25003   9.496  30.269  19.801  0.2981  0.1773 -0.1039
81988W        W25004  16.725   2.196  18.982  0.0012 -0.2770  0.1146
81989W        W25005  12.621  33.361  18.227  0.2174  0.0995 -0.1560
81990W        W25006  27.970  21.350  25.945  0.0302  0.2507 -0.1382
81991W        W25007  22.998  21.555  14.388  0.1930 -0.0466  0.1143
81992W        W25008  15.917  10.332  28.023 -0.0526 -0.0428  0.0887
81993W        W25009  34.037  20.147  19.858 -0.0654 -0.1344 -0.0523
81994W        W25010  13.502   1.720  27.426 -0.1140 -0.3061 -0.2274
81995W        W25011  23.194   4.938   7.045  0.2504 -0.0542 -0.0165
81996W        W25012  18.802   6.914  29.047  0.3260  0.2249  0.2175
81997W        W25013   9.436  30.759  15.226  0.4297  0.1673  0.1957
81998W        W25014  17.567  23.183   1.437 -0.0268 -0.4030 -0.0947
81999W        W25015   8.823  28.579   6.278 -0.3143 -0.0149  0.0977
82000W        W25016  13.226   8.177   0.842 -0.4371 -0.0776 -0.1984
82001W        W25017  16.487   1.326  18.648  0.2265  0.0879  0.0750
82002W        W25018   2.771  27.565  26.856  0.1895  0.1834  0.1244
82003W        W25019  22.739  28.860  26.849  0.1294 -0.0135  0.1949
82004W        W25020   4.452  23.503   0.580  0.0120 -0.0238  0.3688
82005W        W25021  23.572  25.499   2.641 -0.3407  0.1135  0.0831
82006W        W25022  31.339  34.261  17.103  0.0184 -0.1062 -0.0100
82007W        W25023  12.199   7.763  18.446  0.0742  0.1552  0.0858
82008W        W25024   7.042  28.397  15.154 -0.0032 -0.3568 -0.0469
82009W        W25025  27.578  33.115  18.313  0.1117  0.0085 -0.0963
82010W        W25026   9.016  31.532  24.580  0.1333 -0.1775  0.2678
82011W        W25027  23.323  30.813   0.994 -0.0865  0.1872 -0.0228
82012W        W25028  15.630   5.723  21.249  0.1967 -0.3021  0.1395
82013W        W25029  15.919   0.031  28.356 -0.0942  0.0904  0.0883
82014W        W25030  16.611   5.142  20.470 -0.0442 -0.1244 -0.3749
82015W        W25031  11.205  13.133  14.693  0.0980  0.0575  0.0431
82016W        W25032  13.062   8.875  13.011 -0.0551  0.0114 -0.0331
82017W        W25033   2.973  27.730  15.501  0.2315 -0.2488  0.3116
82018W        W25034  18.870  25.534  15.037  0.2068 -0.2790  0.0863
82019W        W25035  13.341  31.627  18.267 -0.0117  0.1624  0.2548
82020W        W25036  11.227  12.744  18.479  0.2149  0.4494 -0.2501
82021W        W25037  18.402  29.947   2.366 -0.5702  0.0993  0.0761
82022W        W25038  25.323  29.848  15.003  0.0001  0.0625 -0.2439
82023W        W25039  24.758  29.800  20.449 -0.1670  0.2676  0.0235
82024W        W25040   6.581  26.955  27.626  0.0623  0.0518 -0.0592
82025W        W25041  14.982   4.083  17.626 -0.1986  0.0070  0.2359
82026W        W25042  17.859   5.840  20.864  0.1834  0.1579  0.1094
82027W        W25043   5.542  30.308  21.553 -0.1298  0.1254 -0.1768
82028W        W25044  16.219  31.275  17.793 -0.1017 -0.0804 -0.0101
82029W        W25045  20.420   0.220  15.955 -0.1089  0.0428  0.0988
82030W        W25046  24.775  34.205  22.383 -0.0264 -0.0661 -0.0533
82031W        W25047   8.875   1.372  19.293 -0.2308  0.0343 -0.2239
82032W        W25048  25.828  24.580   0.720  0.0478 -0.0553  0.1283
82033W        W25049  19.606  20.946  12.539 -0.0661  0.1923 -0.1485
82034W        W25050  13.519  28.761   0.226  0.0619  0.4913  0.1871
82035W        W25051  14.385   1.070  22.875 -0.2252 -0.0847  0.0922
82036W        W25052  12.815   8.039   5.775  0.1058  0.0470  0.1173
82037W        W25053   3.489   8.727  18.905  0.0152 -0.3634 -0.1127
82038W        W25054  19.139  15.644  24.609 -0.1785 -0.0555 -0.0549
82039W        W25055  15.247   0.377  21.963 -0.0728  0.1410  0.1210
82040W        W25056  11.836   0.743  23.225  0.2678 -0.1353 -0.0122
82041W        W25057   3.187  30.852  16.115  0.0787 -0.0523 -0.1712
82042W        W25058  18.841  31.569  23.419 -0.0487 -0.0009 -0.3592
82043W        W25059  18.403  10.427  19.518 -0.1033 -0.1854  0.3396
82044W        W25060  16.367  25.412  14.563  0.3362  0.4590 -0.0491
82045W        W25061  24.404   1.488  17.971 -0.1670  0.0942  0.0093
82046W        W25062  23.357  26.372  14.699  0.0741  0.1808 -0.1430
82047W        W25063  14.468  20.049  25.040 -0.1208  0.0930  0.0982
82048W        W25064  13.952  32.837  16.409  0.0648 -0.0966 -0.2840
82049W        W25065   1.438   6.350  26.070 -0.3403  0.0883  0.0947
82050W        W25066  10.993  22.255  22.425 -0.0506  0.1153  0.1509
82051W        W25067  25.403  30.020  22.442 -0.0100  0.0379 -0.0304
82052W        W25068  10.203   6.438  15.152 -0.2555  0.1735  0.1957
82053W        W25069   5.294   0.387  17.404  0.2822 -0.0442  0.1101
82054W        W25070  16.306  30.107  26.211 -0.2201 -0.0528 -0.1665
82055W        W25071  13.047  30.249  26.530  0.3041  0.1205  0.2130
82056W        W25072  20.767   8.687  23.185  0.1830 -0.0865 -0.0756
82057W        W25073  10.483  21.300  24.903  0.1065 -0.1740  0.0457
82058W        W25074   7.777  28.788  28.074  0.0220 -0.1674  0.0046
82059W        W25075   7.312  30.589  21.686  0.1481  0.0477 -0.1517
82060W        W25076   9.876   2.872  23.190 -0.0268  0.0467 -0.3448
82061W        W25077  15.043  23.669  28.080  0.0388 -0.1495 -0.0357
82062W        W25078  12.851   3.303  18.062  0.0519  0.2206  0.1311
82063W        W25079   4.067   1.383  20.825  0.0655 -0.0703  0.0644
82064W        W25080   1.227  29.259  26.462  0.0026 -0.4453 -0.0685
82065W        W25081  17.782  30.163  17.122 -0.0871 -0.5000  0.1888
82066W        W25082   0.625  32.256  23.803 -0.0822 -0.1558  0.0263
82067W        W25083   7.662  15.508  21.785 -0.0515  0.2338 -0.1355
82068W        W25084  17.688   4.829  27.961  0.1630 -0.1251  0.3308
82069W        W25085   6.835  33.342  21.032 -0.0071  0.0855  0.0363
82070W        W25086   5.846  31.906  15.308  0.0202  0.3007  0.0885
82071W        W25087  15.922   9.900  22.154 -0.0689  0.3480  0.0148
82072W        W25088  18.930   1.674  24.105  0.1951  0.0595  0.0270
82073W        W25089   9.994  24.959  23.231  0.2395 -0.0352 -0.0091
82074W        W25090  25.650  33.565  18.348  0.0685  0.2293  0.2406
82075W        W25091   9.506  34.748  24.640  0.1539 -0.0713 -0.0164
82076W        W25092  22.971  17.894  18.353  0.2373  0.1824 -0.2344
82077W        W25093  17.982  33.714  18.018 -0.0017  0.2560 -0.1066
82078W        W25094  10.541  30.772  17.926  0.0460 -0.3374 -0.0452
82079W        W25095  23.069   4.531  14.296  0.1126 -0.0701 -0.0147
82080W        W25096  19.115  29.594  17.077  0.0621 -0.0119  0.1203
82081W        W25097   1.185   2.273  18.675 -0.0909  0.2574 -0.1230
82082W        W25098  12.024  31.703  24.516  0.0281  0.1268  0.4551
82083W        W25099  19.049   1.398  16.299 -0.0972 -0.1891  0.1114
82084W        W25100  13.348  21.778  15.371  0.4435  0.1349 -0.0519
82085W        W25101   4.223  25.268  16.269  0.0986  0.2455  0.2615
82086W        W25102  12.057  31.373  14.986  0.0963  0.2015  0.4135
82087W        W25103  20.913   3.265  17.746 -0.2370 -0.0094  0.0733
82088W        W25104  19.263   4.650  15.417  0.1599  0.3237  0.0295
82089W        W25105  21.225   5.036  17.527  0.1351 -0.2561 -0.2860
82090W        W25106   1.421  25.743  16.976 -0.0064  0.2403  0.1799
82091W        W25107   5.256   3.377  15.205 -0.4507 -0.3251  0.2377
82092W        W25108  25.805  14.663  19.074 -0.1097  0.0940 -0.2255
82093W        W25109  15.620   4.918  25.674 -0.0365  0.0272 -0.0825
82094W        W25110  27.264  34.719  24.925  0.0736 -0.3990  0.0067
82095W        W25111  18.078  24.944  19.705 -0.3482  0.0380  0.2594
82096W        W25112  16.484  32.382   2.876 -0.0007 -0.0798 -0.1198
82097W        W25113   6.728  28.377  17.601  0.1430  0.2919 -0.1148
82098W        W25114   6.766  10.395  20.300 -0.1460 -0.1607 -0.0235
82099W        W25115  12.648  10.602  13.422  0.0456  0.2725 -0.3366
82100W        W25116  16.300   0.852  19.367 -0.0802  0.0217 -0.0483
82101W        W25117  17.672   7.013  19.536 -0.2779 -0.2520  0.0644
82102W        W25118  20.410   1.924  20.389  0.2731  0.1160  0.1525
82103W        W25119  16.503   8.315  16.944  0.0739  0.0737  0.3365
82104W        W25120  33.826  30.770  18.375 -0.0503  0.2482 -0.0608
82105W        W25121   9.081   4.274   7.288  0.0603  0.1314 -0.0035
82106W        W25122  17.787  24.194  23.125 -0.0741  0.0370 -0.1427
82107W        W25123  29.439  27.130  21.550 -0.0068 -0.1893  0.0952
82108W        W25124  10.007  16.278  28.731 -0.1473 -0.0305  0.0375
82109W        W25125  27.913   4.413  15.535  0.2485 -0.2755 -0.0124
82110W        W25126  33.317  24.034  22.788  0.0748  0.2479  0.0363
82111W        W25127  20.282   2.473  22.444  0.1542  0.4011 -0.0882
82112W        W25128  17.471  15.227  25.084 -0.0232  0.0807  0.2135
82113W        W25129  15.557  11.964  12.364 -0.1447 -0.1059 -0.2549
82114W        W25130  33.709  34.540  18.105  0.0370  0.0797  0.0934
82115W        W25131   6.036  22.723  15.700 -0.1003  0.1510  0.0217
82116W        W25132  13.142  32.647  15.319  0.1740  0.0137  0.1941
82117W        W25133  14.467  14.266  21.959 -0.1967  0.1743 -0.3428
82118W        W25134  20.495  25.640  17.966 -0.0007 -0.1642  0.2441
82119W        W25135   5.031  31.153  28.722  0.0875 -0.2381  0.0308
82120W        W25136  17.101  14.999  13.338 -0.3253 -0.4532 -0.1351
82121W        W25137  25.626   6.736  24.287  0.3500 -0.3536  0.0644
82122W        W25138   4.043  25.062  19.093  0.2613  0.1821 -0.0882
82123W        W25139  15.513   2.834  17.062 -0.4030 -0.0389  0.2436
82124W        W25140  13.588   4.757  27.851  0.0716 -0.1043 -0.2986
82125W        W25141  33.331  18.503  24.882  0.0164 -0.4896  0.1437
82126W        W25142   6.495  28.228  18.117  0.0718 -0.1073  0.1732
82127W        W25143  10.346   1.240  16.502  0.2516  0.0061  0.0205
82128W        W25144  11.925  34.242  16.420 -0.0027 -0.2667 -0.1302
82129W        W25145   6.715  34.259  15.995  0.0324 -0.0193  0.3163
82130W        W25146   3.890  25.899  23.823  0.1000 -0.2728 -0.0979
82131W        W25147  10.961  29.928   0.385  0.1642  0.1892 -0.2000
82132W        W25148  23.845  19.498  22.852  0.1188  0.0559  0.1904
82133W        W25149  23.999   0.361  21.044  0.0331  0.1951 -0.0387
82134W        W25150  17.943  29.725  16.901  0.0704 -0.1666  0.1201
82135W        W25151  13.494   4.242  18.891  0.2704  0.1738 -0.1820
82136W        W25152  30.784  14.584  23.931 -0.1680 -0.3726  0.2568
82137W        W25153  17.246   5.958  19.006  0.4049 -0.2113  0.4132
82138W        W25154  21.217  24.558  18.270  0.0745 -0.3162 -0.2870
82139W        W25155  20.409  30.520  23.499 -0.1984  0.1740  0.0870
82140W        W25156  33.595   5.332  26.101  0.1273  0.0663 -0.2387
82141W        W25157   3.503  11.272  26.895 -0.2278  0.2596  0.0449
82142W        W25158  10.595  10.462  20.239  0.1344 -0.0778 -0.0732
82143W        W25159  29.096  31.969  16.194 -0.1835  0.0572 -0.0890
82144W        W25160   6.700  33.173  16.215  0.0878 -0.3768  0.0566
82145W        W25161  31.050  33.495  29.133  0.3029 -0.1182  0.0317
82146W        W25162  19.049  31.765  21.046  0.1435 -0.0891 -0.1040
82147W        W25163  21.864  29.165  16.392  0.0440 -0.0556  0.0918
82148W        W25164   1.242   6.501  15.556 -0.0996 -0.3655  0.2022
82149W        W25165   4.152  26.055  18.546 -0.1291  0.1988  0.2487
82150W        W25166  22.552   3.896  15.376 -0.2832 -0.0736  0.1627
82151W        W25167   1.482   5.602  16.951  0.1552 -0.0589  0.0789
82152W        W25168   6.908  27.739  19.339 -0.0766 -0.0369 -0.0421
82153W        W25169  31.755  16.071   6.230 -0.1262  0.1299  0.0842
82154W        W25170  21.106  30.500  25.629  0.1738 -0.1035  0.3718
82155W        W25171  21.563  11.985  22.812  0.0019 -0.2482  0.1399
82156W        W25172  20.853   3.072  20.716  0.2256 -0.4254  0.2026
82157W        W25173  13.829   7.258  25.119 -0.0332 -0.2367 -0.0059
82158W        W25174  14.274  32.409  19.306 -0.2182 -0.1483 -0.2279
82159W        W25175  18.099   3.590  19.849 -0.3768  0.1525  0.2587
82160W        W25176  31.955   6.137   7.055 -0.1469 -0.0971  0.0955
82161W        W25177  13.218  33.582   2.946 -0.1856 -0.0538 -0.0050
82162W        W25178  29.954   0.739  20.545 -0.3519  0.3880 -0.0877
82163W        W25179  17.965   8.865  23.445  0.0418 -0.3965 -0.1148
82164W        W25180  11.809  17.928  17.452 -0.1072  0.1009  0.1268
82165W        W25181  24.201  33.468  16.596 -0.1720 -0.0003 -0.1094
82166W        W25182   8.674   5.265  25.435  0.0186 -0.2817 -0.2430
82167W        W25183  11.698  27.228  27.894  0.3563 -0.0707  0.3255
82168W        W25184   3.821  34.521  17.962 -0.3741  0.0437  0.0852
82169W        W25185  19.166  32.759  21.200 -0.0074  0.1549  0.1185
82170W        W25186  14.749  33.099  16.355  0.3800 -0.1850 -0.4218
82171W        W25187   8.033   6.479   6.522  0.1832 -0.3997 -0.3997
82172W        W25188   6.020  11.117  23.553 -0.1291  0.0952  0.0809
82173W        W25189  10.597   3.821   7.485  0.3186 -0.1916  0.1710
82174W        W25190  13.166   4.767  25.584  0.0023 -0.3557  0.4058
82175W        W25191  19.000   1.322  21.777 -0.3894 -0.1005 -0.0242
82176W        W25192   9.588  18.225  25.416  0.1653  0.0623 -0.1327
82177W        W25193   9.788   1.873  18.556  0.2089 -0.2126 -0.0636
82178W        W25194  12.358   2.488  19.376  0.1640  0.1015  0.1248
82179W        W25195  23.640   7.553  25.323  0.0882 -0.1820 -0.1451
82180W        W25196  11.053  18.590  14.556  0.0902  0.0631 -0.1213
82181W        W25197   4.124  14.975  16.508  0.0887  0.0239 -0.1202
82182W        W25198  33.130  17.938  17.681  0.1686  0.1666  0.3062
82183W        W25199  33.940  28.324  22.711 -0.0787 -0.1344 -0.1126
82184W        W25200  11.730  26.845  14.430 -0.1199  0.0004  0.0321
82185W        W25201   6.374  13.473  27.093 -0.2899  0.1433  0.2222
82186W        W25202  23.017   8.530   3.131 -0.1227 -0.0305 -0.6588
82187W        W25203  30.628  17.624  16.651  0.0402  0.1764 -0.2091
82188W        W25204  10.812  26.991   9.143 -0.2020  0.1209  0.2765
82189W        W25205  31.073   8.529  20.936  0.2474  0.1130 -0.5097
82190W        W25206  12.378   5.563  17.086  0.1120 -0.1251 -0.1176
82191W        W25207  27.107  30.957  26.905  0.0311 -0.0629 -0.1374
82192W        W25208  21.050  30.467  14.900 -0.0425  0.0116  0.0136
82193W        W25209  33.403  31.412   2.219 -0.0109 -0.1068 -0.1892
82194W        W25210  10.725   4.282  21.295  0.2699 -0.3586 -0.0683
82195W        W25211   7.350  24.402  16.028 -0.4333  0.1847  0.0156
82196W        W25212  24.691  11.364  21.032 -0.0723  0.3092 -0.0742
82197W        W25213  34.207  10.790  17.242  0.0733 -0.4280 -0.0244
82198W        W25214  18.631   3.382  15.817 -0.1343 -0.1431 -0.0872
82199W        W25215  15.417  28.694  23.332 -0.1230 -0.4865  0.1157
82200W        W25216  15.727  20.876  28.238 -0.4171  0.3132 -0.2319
82201W        W25217  27.392  28.653  17.485  0.3329  0.0577 -0.1505
82202W        W25218  24.689   0.915  18.695  0.3228  0.0847  0.0128
82203W        W25219   0.860  28.300  16.278 -0.0399  0.1445 -0.1072
82204W        W25220  17.193   2.184  17.383  0.0199 -0.1642  0.0576
82205W        W25221  15.776  28.927  17.905  0.1462  0.1802 -0.0590
82206W        W25222  19.357   6.566  16.921  0.1917  0.1205 -0.2494
82207W        W25223   9.642   0.015   4.128 -0.0875  0.1056  0.0635
82208W        W25224  32.618   2.179  14.568 -0.1164  0.0651 -0.1107
82209W        W25225  11.705   4.531  18.679  0.0634  0.1761 -0.0767
82210W        W25226  14.243  29.041   1.126  0.1186  0.1215  0.0060
82211W        W25227  15.970  11.007  25.283 -0.0885 -0.1878  0.1721
82212W        W25228   1.723  25.284  25.397  0.1100 -0.3057  0.2498
82213W        W25229   7.201  10.070  14.557 -0.1604 -0.1178  0.0623
82214W        W25230  20.370   5.811  28.818 -0.0977 -0.3187 -0.2810
82215W        W25231  22.511  32.513  24.627  0.1032 -0.3711 -0.0003
82216W        W25232  25.994   9.404  21.479  0.1637  0.1506  0.2511
82217W        W25233  12.436  30.052  22.906 -0.0739 -0.0221  0.1383
82218W        W25234  34.408  32.556  21.817  0.0172  0.0672 -0.0186
82219W        W25235  21.026   7.922  16.709  0.1008  0.0765 -0.1892
82220W        W25236  23.682  19.135  22.510  0.2551 -0.0905 -0.2922
82221W        W25237  26.229  15.788  24.000  0.2859  0.2560  0.4666
82222W        W25238  12.606   8.182  22.491  0.1178 -0.0401  0.2066
82223W        W25239  22.325  30.896  14.801 -0.1162  0.0900 -0.1462
82224W        W25240  12.421  30.540  28.936  0.3765  0.0190 -0.0699
82225W        W25241  16.449  32.199  27.416  0.0332 -0.3199  0.0713
82226W        W25242  25.868   2.488  16.584 -0.1119  0.0333  0.0921
82227W        W25243  23.323  29.201   6.764  0.1855  0.2896  0.0674
82228W        W25244  32.861   3.748  19.367 -0.0791 -0.2629  0.1452
82229W        W25245  12.559  34.278  15.002  0.1590  0.1860  0.0088
82230W        W25246  10.761  25.095  27.589 -0.2144  0.1201 -0.0433
82231W        W25247  15.553  23.878   3.686 -0.0513 -0.2535  0.2189
82232W        W25248  28.002  16.321  19.839 -0.2142  0.0589 -0.1357
82233W        W25249  26.499   3.853  16.475 -0.1347 -0.2283 -0.2916
82234W        W25250   5.527  24.149  18.683  0.0336  0.0425 -0.0630
82235W        W25251   5.967  28.446  14.122  0.0404 -0.0681  0.0992
82236W        W25252  10.698   6.429  19.996  0.0115  0.1474 -0.2605
82237W        W25253  29.006  24.762  20.192  0.0964  0.1879 -0.3471
82238W        W25254  25.276  32.262  20.353  0.1613 -0.0963  0.1938
82239W        W25255  31.865  34.278  20.378 -0.0355 -0.2238 -0.0486
82240W        W25256  24.635   2.450   0.921  0.1780 -0.1757 -0.2087
82241W        W25257  10.145   8.570  18.204  0.1380 -0.0727  0.3073
82242W        W25258  26.714  33.920  19.840  0.1316  0.4133 -0.0717
82243W        W25259  15.505  25.319   0.871 -0.0376 -0.1972  0.0516
82244W        W25260   6.094  16.410  28.005 -0.1589  0.2556 -0.1136
82245W        W25261   0.302  17.820  21.251 -0.0877  0.2414 -0.1865
82246W        W25262  17.315  32.229  17.724 -0.2775  0.3008  0.1464
82247W        W25263  33.065   7.320  22.825 -0.0728 -0.1790  0.2297
82248W        W25264  28.273   3.766  27.930 -0.0022 -0.1585 -0.1559
82249W        W25265  19.408   2.814  18.534  0.2132 -0.1869  0.1159
82250W        W25266  18.725  27.591  20.798  0.1235  0.2729 -0.0440
82251W        W25267  21.968  13.918  14.349  0.0817  0.1486  0.1502
82252W        W25268   8.070  31.465  20.261  0.2386 -0.1129  0.1540
82253W        W25269  22.856  27.181  22.546 -0.0815 -0.1484 -0.2512
82254W        W25270   2.025  26.958  27.175 -0.0828  0.1109  0.1709
82255W        W25271  23.456  34.389  28.391  0.3390 -0.1492  0.0437
82256W        W25272  21.286  32.598  14.725  0.0129  0.1727  0.3222
82257W        W25273  20.128  11.164  18.328 -0.0636 -0.1630 -0.2486
82258W        W25274  14.608  31.446  20.661 -0.0469  0.1269 -0.2337
82259W        W25275   4.462  34.340  20.285 -0.0047  0.2017  0.3471
82260W        W25276  28.259   1.361  25.614  0.0331  0.1540  0.3985
82261W        W25277  14.462  28.732  28.332  0.0079  0.1437 -0.2195
82262W        W25278  19.004  29.597  16.563  0.1571 -0.0452  0.0421
82263W        W25279  21.185  30.765   5.175 -0.3285  0.0287 -0.2434
82264W        W25280  12.260  10.335  19.483 -0.0595  0.0533  0.0369
82265W        W25281  28.079  29.845  17.133 -0.2451 -0.0739 -0.0967
82266W        W25282  30.874   5.691  16.284 -0.1747 -0.1536 -0.1109
82267W        W25283  17.929  31.759  19.438  0.1693  0.3277 -0.0297
82268W        W25284   4.080  16.446  29.295  0.0275  0.4030  0.3006
82269W        W25285  19.807  28.809  19.309 -0.0488 -0.1056  0.0797
82270W        W25286  23.332  28.571  11.282  0.2573 -0.2776  0.3293
82271W        W25287  26.012   6.479  25.774  0.0161  0.0790  0.2058
82272W        W25288  15.430  33.802  22.227 -0.1670  0.0713 -0.3212
82273W        W25289  14.947  34.606   0.522 -0.0994  0.0734 -0.2571
82274W        W25290  10.683  29.336  14.422  0.0172  0.4351 -0.2090
82275W        W25291  27.851   5.372  19.977 -0.2794 -0.2057  0.2473
82276W        W25292  10.883   5.822  15.359 -0.0746 -0.0476  0.0673
82277W        W25293  33.206  15.110  21.762  0.0738  0.1749  0.0308
82278W        W25294  19.412  14.076  24.712 -0.0059 -0.1824 -0.1055
82279W        W25295  21.614   4.418  13.949  0.2636  0.0528  0.0182
82280W        W25296   0.418  11.143  23.722  0.1274  0.0854 -0.1713
82281W        W25297  22.419  27.797   0.470  0.0685 -0.2170 -0.0451
82282W        W25298  18.959   2.749   2.232 -0.0561 -0.2853 -0.0585
82283W        W25299   3.563  34.663  21.411 -0.2093 -0.0645  0.0087
82284W        W25300  23.186   3.583  15.381 -0.1101 -0.1726  0.2114
82285W        W25301   7.035   8.425   8.521  0.0276  0.0595  0.0812
82286W        W25302  18.073   3.029  16.489  0.2405  0.0891  0.4554
82287W        W25303  11.743   8.330   1.769 -0.1228  0.1147  0.0592
82288W        W25304   4.890   3.153  25.435 -0.0023 -0.2894  0.1665
82289W        W25305   6.265  27.240  16.322  0.0804 -0.1665  0.0162
82290W        W25306  23.601  31.504  17.641 -0.0400 -0.0769  0.0766
82291W        W25307  20.136  32.906  22.262  0.2793  0.0658  0.1307
82292W        W25308   0.149  30.728  22.060  0.2873  0.2279  0.1467
82293W        W25309   7.742  26.867  22.084 -0.0098 -0.0591  0.2376
82294W        W25310  11.313  22.801  24.597  0.0796 -0.0524 -0.2634
82295W        W25311   4.521  23.415  24.049  0.0780 -0.1242  0.0861
82296W        W25312  33.832  30.156   5.213  0.0598  0.0233 -0.0413
82297W        W25313  17.564  26.954  17.055 -0.1819 -0.3949 -0.0205
82298W        W25314  18.641  33.151  25.208 -0.0715 -0.3619  0.0614
82299W        W25315  21.723   2.977  14.969 -0.2843  0.1320  0.1078
82300W        W25316  33.637  31.856  27.313 -0.0884  0.1314  0.0468
82301W        W25317  13.088  23.569  22.621 -0.1843 -0.1827 -0.0061
82302W        W25318  15.180  32.932  22.355  0.0143  0.3322 -0.1372
82303W        W25319  23.285  11.777  18.953  0.1864  0.2707 -0.0153
82304W        W25320  13.986   2.833  19.834  0.0682  0.1133 -0.1737
82305W        W25321  28.495   0.061  19.641  0.0276  0.1341  0.3280
82306W        W25322  27.810  11.466  10.194 -0.0730  0.0277  0.1528
82307W        W25323  12.527   6.875  22.188 -0.4588  0.0444 -0.0194
82308W        W25324  11.423  22.335  12.752 -0.3418  0.0310 -0.1732
82309W        W25325  20.394   5.001   0.031  0.0953  0.0051  0.0580
82310W        W25326  14.749  33.161  22.173  0.1553 -0.3142 -0.1682
82311W        W25327   7.026  15.902  18.783  0.1371  0.0537 -0.1929
82312W        W25328  12.332  26.037   0.789 -0.4679  0.1841  0.2449
82313W        W25329   6.717   0.974  15.264  0.0822  0.3405 -0.0512
82314W        W25330  13.341  13.696  22.613 -0.0335 -0.2364  0.2207
82315W        W25331  14.288   2.862  28.389 -0.2038  0.0027 -0.0491
82316W        W25332  31.377   9.820  19.608  0.2378  0.1008  0.2215
82317W        W25333   9.752   0.961  26.077  0.1232 -0.3753 -0.2484
82318W        W25334  27.845   5.554  27.201  0.3616  0.0792 -0.1391
82319W        W25335  10.990  31.740  28.515  0.0131  0.0779 -0.1790
82320W        W25336   8.572  31.301   4.374 -0.0330  0.0292  0.5207
82321W        W25337  16.842   2.174  19.447 -0.0632  0.0897 -0.3233
82322W        W25338  14.392   1.339  18.734  0.0998 -0.1564 -0.1268
82323W        W25339  18.271   9.089   1.485  0.1762 -0.2216  0.0373
82324W        W25340  14.252  31.196  24.088  0.0178  0.0240 -0.3392
82325W        W25341  16.798  10.203  17.443 -0.2951 -0.2343  0.0825
82326W        W25342  21.034   9.619  17.715 -0.2376 -0.1787  0.0861
82327W        W25343  29.325  27.328   7.571 -0.2040 -0.1406  0.1579
82328W        W25344  29.839  32.027  25.973  0.0638  0.1248  0.1779
82329W        W25345  22.925  28.762  15.668 -0.0578 -0.0399 -0.1352
82330W        W25346  28.834  10.446  23.975 -0.0933 -0.4344 -0.0067
82331W        W25347  29.610  26.981  22.482  0.0093 -0.2634 -0.0443
82332W        W25348   1.758  28.579  25.320  0.2357 -0.1047  0.1205
82333W        W25349  22.467   9.589   4.359  0.1969 -0.1871 -0.4017
82334W        W25350  16.438   3.785  21.153 -0.2402 -0.0165 -0.0459
82335W        W25351  18.592  20.117  25.384  0.1043 -0.0299 -0.2461
82336W        W25352  11.407  16.484  19.059 -0.1508 -0.0357 -0.0089
82337W        W25353  12.117   9.937  14.496  0.0493  0.0808 -0.3137
82338W        W25354  10.712  30.000  16.326 -0.1999 -0.0680 -0.2030
82339W        W25355  28.532   4.408   1.945 -0.3262 -0.0845 -0.2094
82340W        W25356   5.605   4.458   6.680 -0.3326 -0.2687  0.2878
82341W        W25357  29.233  28.568  24.584 -0.0239  0.1886  0.3029
82342W        W25358  12.074  23.826  24.148 -0.2827  0.0578  0.1432
82343W        W25359   1.587  33.850  20.423  0.2082 -0.3549 -0.2413
82344W        W25360  32.242  33.030   0.059  0.1930 -0.3240 -0.7428
82345W        W25361  15.354   8.397  24.132 -0.0847  0.1697  0.2928
82346W        W25362  33.252  24.259   4.576 -0.2958  0.1283  0.0388
82347W        W25363   7.803  26.809   6.771 -0.0078 -0.2306 -0.2878
82348W        W25364  17.705   5.023  25.290  0.0927 -0.3751 -0.0305
82349W        W25365  31.981  11.801  14.582 -0.0689  0.1770  0.1361
82350W        W25366  24.154  34.644  24.867  0.0434  0.1479  0.0651
82351W        W25367  17.620  31.069  15.490  0.1258 -0.3325 -0.4604
82352W        W25368  11.047   3.173  17.711 -0.0511 -0.0788 -0.3195
82353W        W25369  22.835  20.246  22.303 -0.3281 -0.2069 -0.0776
82354W        W25370  11.504  34.137   8.738 -0.2499  0.0573  0.0126
82355W        W25371  17.841   9.743   8.482 -0.1104 -0.0323  0.0152
82356W        W25372  22.315   7.217  22.186  0.0081  0.1214  0.3622
82357W        W25373  25.659   0.993   1.753  0.2442  0.0229  0.0866
82358W        W25374  14.048   6.516  16.708 -0.3496 -0.0606 -0.0553
82359W        W25375  20.599  22.806  17.666  0.1406 -0.0289 -0.1055
82360W        W25376  21.658  15.794  20.478 -0.0682 -0.4471  0.1870
82361W        W25377  27.134  31.860  16.689  0.0593 -0.0533  0.2996
82362W        W25378  11.307   3.302  19.564  0.0091  0.3021 -0.2099
82363W        W25379  11.799  31.581  19.729 -0.0127 -0.3186  0.0741
82364W        W25380  30.550  22.624  16.817  0.1744 -0.1853  0.2262
82365W        W25381  18.450   9.736   0.977 -0.0149 -0.0383 -0.5143
82366W        W25382  10.610  21.777  22.378 -0.0032  0.1100  0.0125
82367W        W25383  27.336   9.585  17.440 -0.2042  0.1988 -0.0544
82368W        W25384  12.073  30.573   1.246 -0.1806  0.1505  0.1347
82369W        W25385  12.573  10.285  22.591 -0.2688  0.0666  0.0213
82370W        W25386   6.782  23.007  19.681 -0.0035 -0.2601 -0.1928
82371W        W25387  18.543  26.993  20.903  0.0430 -0.4682  0.2443
82372W        W25388  21.906   5.077   8.476 -0.1895  0.1505 -0.1528
82373W        W25389  16.356   3.681  22.177 -0.4495  0.1043  0.0586
82374W        W25390  25.117   3.531  19.258 -0.0754 -0.4904 -0.3474
82375W        W25391  11.386   9.549  16.547 -0.0053 -0.0215  0.0682
82376W        W25392  13.292  31.546  17.815  0.0495 -0.2112  0.2757
82377W        W25393  16.983  27.045  14.319 -0.4358 -0.1252 -0.1852
82378W        W25394   2.516  12.092  23.478 -0.1094 -0.1042  0.1652
82379W        W25395   4.366  33.846  16.513  0.0512 -0.0767 -0.0716
82380W        W25396   6.434   5.423  24.724  0.0053  0.1503 -0.0175
82381W        W25397  18.724  32.339  18.656  0.0145  0.0257  0.1968
82382W        W25398  14.868  34.734  26.719  0.0073 -0.0109 -0.0170
82383W        W25399   6.760   1.293  17.821  0.2297  0.1498 -0.1070
82384W        W25400  16.131   1.437   1.010  0.1416  0.1138 -0.2441
82385W        W25401   7.731   9.722  18.137 -0.1754  0.1452 -0.2211
82386W        W25402   6.954  29.478  16.990  0.1633  0.1588  0.0310
82387W        W25403  13.065  19.124  19.834  0.1834  0.1585  0.0979
82388W        W25404  10.042  34.504  23.294 -0.2680  0.3583  0.2124
82389W        W25405  18.955   1.941  26.204  0.1379 -0.4215  0.0191
82390W        W25406  19.986  24.794   1.312  0.1555 -0.1587 -0.3491
82391W        W25407  17.754  26.770   0.570 -0.2166  0.0296  0.0135
82392W        W25408  26.468   2.031   2.656  0.2561 -0.3019 -0.1729
82393W        W25409  30.951  20.708  16.368  0.1426  0.1627 -0.1449
82394W        W25410  17.777   1.594  16.194 -0.0683  0.0678  0.0308
82395W        W25411   7.578   1.598   6.289  0.1303  0.0340  0.2752
82396W        W25412  18.472  33.101  25.664  0.1246 -0.1663 -0.4167
82397W        W25413  18.825   2.301  22.015 -0.2448  0.0239  0.0975
82398W        W25414  30.130   8.361  16.101 -0.0877  0.0039 -0.0218
82399W        W25415  33.908   3.754  18.709  0.1117  0.4619  0.1416
82400W        W25416  22.693  30.720  20.550  0.0079  0.0865  0.2530
82401W        W25417  20.462  26.136   2.843  0.5127  0.3223  0.2538
82402W        W25418   2.130  30.285  27.797  0.2456 -0.0799 -0.3428
82403W        W25419  13.460  27.851  23.353 -0.0721  0.1261  0.1342
82404W        W25420  26.487   3.602  20.804  0.0687 -0.1070  0.1370
82405W        W25421  24.803  10.040  14.954  0.1659  0.0916 -0.0964
82406W        W25422  14.542  31.867   3.602  0.1980  0.1389  0.0130
82407W        W25423  24.520   1.680   3.622 -0.0618 -0.0498  0.1414
82408W        W25424   2.980  29.247  28.836  0.1127  0.1034 -0.2007
82409W        W25425  24.348  18.877  15.238 -0.0813 -0.1453 -0.0376
82410W        W25426  30.465   5.169  23.092  0.2087 -0.0971 -0.1706
82411W        W25427  27.108  34.303  19.128 -0.1555  0.1953  0.0232
82412W        W25428  13.253  33.902  15.585 -0.1695 -0.1920 -0.3172
82413W        W25429   3.360  19.901  20.157  0.0268  0.1691 -0.0147
82414W        W25430   8.171  30.418  26.411  0.1482  0.2824 -0.1172
82415W        W25431   9.615  21.535  26.162 -0.2008 -0.1722 -0.0096
82416W        W25432   3.143  32.874  17.176  0.2540 -0.2048  0.1372
82417W        W25433  20.278  20.833  23.325  0.1450 -0.2214  0.0255
82418W        W25434   0.344  31.914   0.132  0.0603  0.1609  0.1150
82419W        W25435   9.625  24.426  13.289  0.1354 -0.2608  0.1093
82420W        W25436  17.119  31.709  28.027  0.1449  0.2636 -0.0167
82421W        W25437   6.018  23.655  19.879 -0.2512 -0.1112  0.1434
82422W        W25438  19.530  31.242  22.430 -0.0321 -0.2921  0.1591
82423W        W25439  19.641   3.794  20.924 -0.0206 -0.1134  0.2375
82424W        W25440   7.851   6.164  25.236  0.0030 -0.1056  0.0771
82425W        W25441  20.192  28.417  22.250 -0.2058 -0.1082  0.0442
82426W        W25442  15.579  17.674  13.940  0.0710  0.1354 -0.1944
82427W        W25443  16.702  26.572  18.494 -0.0915  0.2800 -0.2806
82428W        W25444  22.955   8.555  24.628 -0.0449  0.1611 -0.4171
82429W        W25445  24.948   8.892  15.753 -0.0374 -0.0720  0.1583
82430W        W25446   1.569   9.524  22.129 -0.0178 -0.3372  0.0681
82431W        W25447  21.498  30.381  27.867  0.0280 -0.1473  0.1112
82432W        W25448   8.831  27.039  23.360 -0.2269  0.1818 -0.2510
82433W        W25449  10.966  27.782  25.567  0.0151  0.2352 -0.1202
82434W        W25450   6.397   5.167  17.526  0.4031 -0.1375  0.1854
82435W        W25451  19.327   9.138   1.066 -0.2014 -0.0332 -0.0820
82436W        W25452  22.473  29.771  21.670 -0.0242 -0.1316  0.1008
82437W        W25453   6.810   3.904  18.535  0.3017  0.2885 -0.0157
82438W        W25454  31.151  10.197  17.402 -0.2829 -0.1497 -0.0975
82439W        W25455  28.247  23.568   2.350 -0.3652  0.0395  0.2757
82440W        W25456   3.091  32.098  10.033 -0.3118  0.2933 -0.1717
82441W        W25457  27.803   0.749   2.588  0.2463 -0.1881 -0.0558
82442W        W25458  18.068   4.840  23.168  0.2309  0.4835  0.1846
82443W        W25459  23.627  17.599  17.536 -0.0841  0.1225 -0.2386
82444W        W25460  20.341   6.733  17.021 -0.0237 -0.1446  0.1074
82445W        W25461  10.757  28.626  17.839  0.1765  0.3631 -0.1333
82446W        W25462   1.758  32.444  20.181  0.1335  0.2538 -0.1069
82447W        W25463  34.594  29.192  16.334  0.0955 -0.0060  0.1212
82448W        W25464   1.297  15.262  14.461  0.5840  0.1165  0.0295
82449W        W25465  26.846  22.141  27.061  0.0719 -0.0913 -0.0690
82450W        W25466  15.335  11.705  22.045 -0.2125 -0.0413  0.2856
82451W        W25467   4.939  25.233  18.914  0.0647 -0.1816  0.1565
82452W        W25468   2.320   9.092  17.506  0.0569  0.3351 -0.0243
82453W        W25469   5.147   6.055  25.981  0.0638 -0.0568 -0.4396
82454W        W25470  14.619  29.634  17.772 -0.0355 -0.1129  0.0698
82455W        W25471  14.054   3.579  28.095 -0.1415 -0.1925  0.0386
82456W        W25472  15.832  25.926  20.202 -0.1952  0.3062 -0.4083
82457W        W25473  28.849  26.520   8.682 -0.1447  0.2195 -0.3602
82458W        W25474  23.016   1.462  24.748  0.2868  0.1719 -0.3888
82459W        W25475  17.175  33.306  25.549  0.0083 -0.1486  0.2723
82460W        W25476   5.505  10.070   0.975 -0.0509 -0.0004 -0.2841
82461W        W25477  17.370  30.725  21.927  0.0448 -0.0149  0.1054
82462W        W25478  22.252  28.914  27.012  0.2614  0.1388 -0.2041
82463W        W25479  23.881  28.124  27.233  0.0732 -0.1131 -0.0535
82464W        W25480  12.628  11.318  26.252  0.0488  0.2064 -0.5061
82465W        W25481  21.609  28.371   0.925  0.1937  0.2525 -0.1095
82466W        W25482  14.889  30.583  18.962  0.3237  0.1348  0.0829
82467W        W25483  18.354   5.256  23.298 -0.1037 -0.1452 -0.1091
82468W        W25484  29.501   8.201  21.278 -0.0275  0.1080  0.0653
82469W        W25485  21.016  32.948   9.534  0.0685 -0.1074 -0.0208
82470W        W25486  14.613   3.147   0.797  0.0800 -0.1150  0.0440
82471W        W25487  14.205  34.136  23.829  0.1309  0.5097 -0.0485
82472W        W25488  33.181  23.613  22.070  0.2053  0.1253  0.6050
82473W        W25489  11.960  29.622   4.002  0.0906  0.2194  0.2011
82474W        W25490   5.876   5.539  18.231 -0.0198  0.2652  0.2315
82475W        W25491  15.334  29.262  19.685  0.0387 -0.0675  0.2201
82476W        W25492   7.704  23.032   0.690  0.0008  0.0233  0.0626
82477W        W25493  11.469   9.668  24.315  0.3466 -0.0084 -0.1526
82478W        W25494   2.255  15.406  20.001 -0.2973 -0.3623  0.2131
82479W        W25495  21.692  28.799  16.026 -0.1829 -0.0259 -0.0582
82480W        W25496   9.942  30.769  17.880 -0.2096  0.1877 -0.1174
82481W        W25497  27.985  19.329  22.617  0.1726 -0.0047 -0.0435
82482W        W25498  14.140  32.166   1.527  0.2713  0.2465  0.0461
82483W        W25499  27.308  18.630   0.283  0.3247 -0.0352 -0.0042
82484W        W25500  20.957   9.289  16.173 -0.0772 -0.2299  0.0955
82485W        W25501   7.003  21.085  17.464 -0.2606  0.1625  0.2164
82486W        W25502  11.891   0.800  26.344  0.0265  0.2261  0.1836
82487W        W25503  22.126  25.533  15.312  0.0089  0.2207 -0.0025
82488W        W25504  34.153   1.142  16.179 -0.1365  0.1634  0.1346
82489W        W25505  34.278   1.966  19.631 -0.2626 -0.0739 -0.1231
82490W        W25506  32.335  18.980  25.474  0.1943 -0.1899  0.1298
82491W        W25507   0.760   6.451  27.147  0.1116  0.3955  0.1282
82492W        W25508   4.005   0.925  24.881  0.1233 -0.1468  0.1554
82493W        W25509  22.802  28.301  15.023 -0.1711 -0.1328 -0.0142
82494W        W25510   8.430   3.340  26.478 -0.3511  0.0705 -0.1983
82495W        W25511  11.154  32.856   3.810 -0.1295 -0.0153  0.1030
82496W        W25512  20.030  29.313   2.844  0.0440 -0.3384 -0.1084
82497W        W25513  14.311   1.827  16.443  0.0128 -0.1486 -0.2352
82498W        W25514  29.301  26.004   5.910  0.0015 -0.1087  0.0190
82499W        W25515  19.739  31.492  15.818 -0.1379 -0.0507  0.0362
82500W        W25516   6.648  11.267  23.634  0.2018  0.4750 -0.0527
82501W        W25517  20.307   2.601  27.660  0.1007  0.0188  0.1287
82502W        W25518  20.095  29.162  17.133 -0.1539 -0.5130 -0.1798
82503W        W25519  20.487   7.719  22.328  0.2705 -0.6639  0.0599
82504W        W25520  24.137   4.988   2.316 -0.0761  0.2651  0.5821
82505W        W25521   0.216  25.155   4.438 -0.2104  0.4473 -0.0573
82506W        W25522  14.823   9.552  14.028  0.0111  0.2555 -0.2417
82507W        W25523  11.044  28.104  20.312 -0.0256  0.1415  0.1975
82508W        W25524  26.757  27.799  27.428 -0.0547 -0.0308  0.3200
82509W        W25525  20.432  30.623  17.383 -0.0553 -0.0306 -0.1813
82510W        W25526  31.919  18.494  28.123 -0.1408  0.0139 -0.1404
82511W        W25527  10.133  27.733  21.055  0.1021 -0.0929  0.0583
82512W        W25528  24.180   8.862  16.051 -0.0437 -0.0633 -0.4841
82513W        W25529  17.354   0.297  19.882 -0.0912  0.2280 -0.0382
82514W        W25530  34.681   0.275  18.104  0.3262  0.0081  0.2242
82515W        W25531   8.974  11.227  20.253  0.0425 -0.2226  0.1562
82516W        W25532  21.456  29.199  15.956  0.1188 -0.1892 -0.4053
82517W        W25533  19.455  26.594  14.867 -0.0964  0.2097 -0.1000
82518W        W25534  24.133   3.109   2.186  0.0330 -0.1408 -0.4830
82519W        W25535  14.534  27.875  15.756 -0.1793  0.1621 -0.2126
82520W        W25536   8.520  12.270   4.824  0.2018  0.0393 -0.5284
82521W        W25537  19.739   8.800  15.832 -0.1556 -0.0118  0.3731
82522W        W25538  17.895  32.448  24.662 -0.0426  0.2953 -0.0309
82523W        W25539   5.139  30.625  15.394 -0.2086  0.1010  0.3277
82524W        W25540  15.815  34.646   3.663  0.2453  0.1108 -0.1687
82525W        W25541  25.264  31.309  19.928 -0.3755  0.2268  0.1773
82526W        W25542  32.985   4.397  28.132  0.0402  0.0569  0.0203
82527W        W25543  11.622   4.362  27.642 -0.0482 -0.2338 -0.0969
82528W        W25544  21.139  33.436  22.781 -0.1239  0.1608  0.0562
82529W        W25545  13.853   6.825  27.368 -0.3984  0.0816 -0.2365
82530W        W25546   0.889  24.550   3.143 -0.0855  0.1739 -0.1670
82531W        W25547  22.579  26.119   4.385 -0.2044 -0.0799 -0.1004
82532W        W25548  31.673  18.920  18.665  0.1674 -0.0654  0.1600
82533W        W25549  30.188  17.972   2.147  0.0058  0.4368 -0.0054
82534W        W25550  11.587  30.160  29.171  0.0735 -0.1079  0.0172
82535W        W25551   0.841   4.112  20.558  0.1306 -0.1170 -0.0174
82536W        W25552  20.401   5.256  19.164  0.0088  0.2307 -0.0833
82537W        W25553  13.532   0.832  28.879  0.0896 -0.0116 -0.4524
82538W        W25554  17.051   6.000  22.882 -0.4704 -0.0512 -0.1189
82539W        W25555  30.798  33.355  25.893 -0.0786  0.0920 -0.2377
82540W        W25556   2.923  34.709   6.214  0.0020  0.0056 -0.1471
82541W        W25557  20.292  25.077  17.072 -0.1540  0.2251  0.0619
82542W        W25558  20.582   6.680   5.365 -0.3012 -0.2248  0.0213
82543W        W25559  26.910  26.804  20.749 -0.0623 -0.0917 -0.1311
82544W        W25560  33.339  26.506  26.117 -0.0021 -0.0200  0.0226
82545W        W25561  25.124   0.196   9.158 -0.0512 -0.1995  0.1526
82546W        W25562  11.452  27.767  23.195 -0.3542 -0.1856 -0.2318
82547W        W25563   3.251  14.016  20.404 -0.2640  0.1629  0.0591
82548W        W25564  23.106  29.207  15.839 -0.2529  0.1989 -0.2624
82549W        W25565  17.141  20.075  12.837 -0.1114  0.1252  0.1503
82550W        W25566  15.057  10.748   3.360 -0.0707  0.1793  0.2568
82551W        W25567   0.484   5.187   6.024 -0.1988  0.1609  0.2261
82552W        W25568   5.563   1.391  20.113  0.0567 -0.0977  0.2448
82553W        W25569   8.153  19.595  15.780 -0.1943 -0.3031 -0.0440
82554W        W25570  15.453  32.905   5.733 -0.0634 -0.1661  0.3646
82555W        W25571   6.767  13.257  21.208 -0.2440  0.2433 -0.4267
82556W        W25572  19.740  34.217   0.704 -0.2157  0.0300  0.1065
82557W        W25573  21.787  21.285   8.599 -0.0346  0.0999  0.1477
82558W        W25574  13.315   5.893  16.939  0.2913  0.1527 -0.0679
82559W        W25575  13.646   0.402  15.553  0.0848 -0.2374  0.3152
82560W        W25576  34.710   3.004  19.453 -0.1098  0.2027  0.1473
82561W        W25577  16.643  32.161   8.586 -0.2138  0.1565  0.1420
82562W        W25578  16.424   8.263  25.651 -0.0619 -0.3324  0.1676
82563W        W25579  23.680  28.986   5.789  0.1236  0.0250 -0.1121
82564W        W25580   6.528   3.652  21.402  0.1551 -0.3315  0.1251
82565W        W25581  15.296   7.639  21.502 -0.2325 -0.3377 -0.2062
82566W        W25582  17.384   0.517  16.384  0.0047  0.0092  0.0658
82567W        W25583  13.124   9.552  24.774  0.0832 -0.0476 -0.3272
82568W        W25584  10.422  22.190  20.770 -0.0194  0.1342  0.2666
82569W        W25585  14.509  28.645   9.164 -0.0549 -0.0531  0.2040
82570W        W25586  26.534  24.130  14.978  0.0086 -0.2613  0.0958
82571W        W25587  12.481  33.782  21.623 -0.0871 -0.3383 -0.0889
82572W        W25588  31.196  18.481  28.081  0.2395  0.2899 -0.0480
82573W        W25589  14.692  32.145  14.169  0.0619 -0.2145 -0.2531
82574W        W25590  14.309  31.716  23.997 -0.1591 -0.2103 -0.0700
82575W        W25591  11.174  34.174  18.990 -0.4940  0.1928  0.1667
82576W        W25592  23.898   1.521   7.327  0.0357 -0.0520 -0.2973
82577W        W25593  18.238   5.942  23.237 -0.1677 -0.2928  0.2186
82578W        W25594  11.696   3.183  23.177  0.1974  0.0534 -0.0481
82579W        W25595  30.074  28.243  20.459  0.1576 -0.1143 -0.2349
82580W        W25596   7.120   5.484  18.206 -0.1079 -0.2626 -0.0341
82581W        W25597   4.499   6.011  21.435  0.0230  0.0228  0.5102
82582W        W25598  17.129  31.021  18.907 -0.1884  0.0737 -0.1512
82583W        W25599  26.319  21.732  18.936  0.2655  0.0301  0.1986
82584W        W25600  19.928  18.745   6.458  0.1302 -0.0795  0.1754
82585W        W25601  19.277  25.357  28.918 -0.1162  0.0245  0.3076
82586W        W25602  14.562  28.237  25.349  0.3294 -0.3886  0.0425
82587W        W25603  34.294  32.991  22.709 -0.0898 -0.1886  0.0704
82588W        W25604  10.553  25.199  21.065  0.0745 -0.2501  0.2286
82589W        W25605  20.045  26.748  18.781 -0.0107 -0.0474 -0.0325
82590W        W25606   8.187  20.981  24.367 -0.2033  0.1434  0.1957
82591W        W25607  13.684   5.343  23.973 -0.2105 -0.2214 -0.1040
82592W        W25608   8.349  18.703  16.872 -0.0331 -0.2256 -0.0949
82593W        W25609  12.602   1.375  14.492  0.3288 -0.1458 -0.0593
82594W        W25610  12.506  27.957  15.310  0.1105  0.0993 -0.1125
82595W        W25611   7.300  22.966   2.984  0.0701  0.3609 -0.0263
82596W        W25612  22.747  20.950  27.050 -0.4003 -0.1222  0.2415
82597W        W25613  16.274  30.389   9.236 -0.2825 -0.0042 -0.1553
82598W        W25614   4.237   9.681  15.185  0.0728 -0.1385  0.1178
82599W        W25615  26.916   2.002  28.781 -0.0249  0.2529  0.1244
82600W        W25616  18.626   6.451  23.898 -0.1488 -0.4456  0.1869
82601W        W25617  33.383  29.390  21.209 -0.2210  0.0072 -0.0686
82602W        W25618  20.896  27.022  18.029 -0.1688 -0.1842  0.0406
82603W        W25619   4.739  34.381   4.537  0.0701  0.2055  0.2688
82604W        W25620  16.128  24.318  23.377 -0.0896 -0.0618  0.2574
82605W        W25621  18.040   7.022  27.435  0.2608 -0.0343 -0.4053
82606W        W25622   2.552  32.968  15.824  0.3973  0.0178  0.0646
82607W        W25623  12.771   3.059  14.811  0.4602 -0.0204 -0.3202
82608W        W25624  14.331  27.122   7.824  0.0950  0.2504 -0.1116
82609W        W25625  21.725  10.227   1.105  0.2245  0.0231  0.1485
82610W        W25626   4.934   3.196  24.918 -0.1406  0.2548  0.1887
82611W        W25627   7.105   8.683   0.539 -0.0273 -0.2467 -0.0777
82612W        W25628  17.850  26.127  16.571  0.2379  0.0242 -0.1647
82613W        W25629   5.828  30.331  19.724  0.1883  0.0028 -0.0015
82614W        W25630  12.720  25.745  28.986 -0.0564 -0.1643  0.1832
82615W        W25631   4.046  22.897  23.798 -0.0794 -0.1935  0.1238
82616W        W25632  30.549  14.864  18.763  0.3658 -0.0470 -0.0885
82617W        W25633  12.024   9.067  17.539 -0.3399 -0.2378  0.5217
82618W        W25634   8.264  13.425  15.832  0.1232  0.0822 -0.2961
82619W        W25635  15.176   3.528  23.504  0.2014  0.0701  0.0503
82620W        W25636   8.404  22.086  15.784 -0.2551  0.0058 -0.0028
82621W        W25637  34.179  23.180  16.579 -0.0366  0.1410  0.1114
82622W        W25638  14.227   4.105   7.652 -0.0679  0.0181 -0.0151
82623W        W25639  12.473  26.274  14.215  0.2343  0.2239 -0.0008
82624W        W25640   5.417   2.620  19.698 -0.2338  0.0477 -0.1671
82625W        W25641  19.690  31.718  24.608 -0.3590  0.3421 -0.3051
82626W        W25642  17.017  34.634   3.052 -0.0013  0.0548  0.1222
82627W        W25643  28.803  27.020  21.212  0.0398 -0.1846 -0.0332
82628W        W25644  14.032  31.747   4.095  0.1251 -0.2431  0.1358
82629W        W25645  32.018  10.580  22.189 -0.1011  0.1751  0.1006
82630W        W25646  17.156  30.480  15.959  0.3959 -0.0196 -0.0036
82631W        W25647  33.234   2.745   1.983 -0.0380 -0.0464  0.1512
82632W        W25648   9.151  14.964  15.092  0.0107  0.1058 -0.0872
82633W        W25649   0.191  26.981  19.182 -0.1292 -0.0109  0.1639
82634W        W25650  24.611  24.060  22.160  0.1374 -0.0010  0.1797
82635W        W25651  22.470   7.757   3.142  0.0654  0.1121 -0.0316
82636W        W25652  25.768   4.434   3.130 -0.0204  0.1010  0.0150
82637W        W25653  20.303   0.115  26.274  0.1800  0.0756 -0.0384
82638W        W25654  17.810   6.561  25.443 -0.0011 -0.2011 -0.2283
82639W        W25655  11.571  28.955  14.984 -0.1808  0.1214 -0.1688
82640W        W25656  29.182  15.066  25.164 -0.2190  0.1278  0.0327
82641W        W25657   6.066  31.868  21.761  0.2494  0.3131  0.0135
82642W        W25658  20.948   0.827   2.000 -0.0923  0.0860 -0.2981
82643W        W25659  29.481   2.832  16.857  0.1725 -0.2160 -0.1465
82644W        W25660  19.756  34.440  19.804 -0.0527 -0.0307  0.2279
82645W        W25661   3.107  33.968  16.081 -0.1495 -0.0345  0.0383
82646W        W25662  24.639  33.051  17.871  0.1899 -0.1364  0.1309
82647W        W25663  13.527   0.097  18.698  0.1309 -0.0503 -0.0580
82648W        W25664  19.421   8.791   1.423  0.1102  0.3606  0.1581
82649W        W25665  22.072  17.990  28.880 -0.5032  0.0130  0.0822
82650W        W25666  15.885  31.785  26.028 -0.2865 -0.3111  0.0859
82651W        W25667  12.181  14.385  23.618 -0.0629  0.2148 -0.0819
82652W        W25668   3.340   1.130  23.638 -0.1622 -0.0355 -0.0240
82653W        W25669  26.446  12.187  19.345 -0.2932 -0.0392  0.1263
82654W        W25670  19.684  31.289  26.601 -0.0561 -0.0877  0.0284
82655W        W25671  25.443   4.195  15.758 -0.0624  0.1534 -0.4201
82656W        W25672  22.281   7.991  19.429  0.0851 -0.1683  0.0176
82657W        W25673  23.989  33.861   4.309  0.1438  0.2710 -0.3543
82658W        W25674  10.002  27.432   0.147 -0.1820  0.0496  0.0333
82659W        W25675  15.990   1.665  26.808  0.0321  0.1021 -0.0248
82660W        W25676  21.710  23.605  25.026  0.0131  0.1007 -0.2804
82661W        W25677  24.042  17.215  16.587  0.2128 -0.4128 -0.1247
82662W        W25678  18.207  24.367  19.786  0.0485 -0.0894 -0.0842
82663W        W25679  10.633  27.618  25.155 -0.0222 -0.0658  0.2867
82664W        W25680   0.342  34.613  14.910  0.0604  0.0760  0.2065
82665W        W25681  19.399  31.558   0.912 -0.0961  0.3735 -0.3259
82666W        W25682  24.691  23.454   1.714  0.1040  0.1930  0.3192
82667W        W25683   0.742   5.391  13.678 -0.0615  0.1004 -0.1056
82668W        W25684  33.439  28.996  16.828 -0.2633 -0.2180  0.1355
82669W        W25685  10.025  13.881  27.521 -0.0675  0.0907 -0.0392
82670W        W25686   1.295   4.587   5.895  0.1530 -0.0168 -0.0949
82671W        W25687  13.087   5.152   1.252 -0.1435 -0.0235 -0.2743
82672W        W25688  18.902   1.199   1.883  0.0760 -0.1278  0.0005
82673W        W25689   3.911   9.412   3.393  0.0335 -0.0017  0.1823
82674W        W25690  16.944   8.076  17.200  0.2176  0.0181 -0.1237
82675W        W25691  17.599   6.243   6.390  0.0242  0.1243  0.0291
82676W        W25692  18.059   2.964  19.464  0.1269 -0.1740 -0.0157
82677W        W25693  10.436   4.543  28.852 -0.2826 -0.1734 -0.2791
82678W        W25694   2.872  34.339   8.049 -0.0095 -0.3193  0.0819
82679W        W25695  25.932  29.610  27.597  0.1015 -0.2201 -0.2824
82680W        W25696  22.988  25.285   2.830  0.1528 -0.0419 -0.0276
82681W        W25697  29.120  34.019  26.675  0.1510 -0.1502  0.0877
82682W        W25698  16.408  24.840   2.353 -0.1053 -0.2780 -0.0692
82683W        W25699  21.355  15.043  19.993  0.2660 -0.2422  0.0625
82684W        W25700  24.826  25.764   1.414 -0.0400  0.0686 -0.1445
82685W        W25701  12.896   3.482  27.263 -0.0511 -0.0488 -0.1877
82686W        W25702  26.616  18.943  26.463  0.1663 -0.0271  0.0556
82687W        W25703  23.577  33.384  24.501 -0.0049 -0.1975  0.4241
82688W        W25704  14.939  27.854  15.441 -0.2353  0.3698  0.0336
82689W        W25705  12.439   2.068   3.947  0.0635 -0.1836  0.1707
82690W        W25706  13.666  30.264   9.342 -0.2016 -0.5445 -0.0188
82691W        W25707  12.322  24.510  13.541  0.0454 -0.1034  0.1313
82692W        W25708   6.941   2.806   4.915  0.1737  0.2490  0.2946
82693W        W25709   9.652  22.737  21.193  0.1083  0.1115  0.0436
82694W        W25710   7.810  33.650  24.028 -0.4621  0.1071  0.0208
82695W        W25711  31.930   1.737  18.987  0.3598 -0.1797  0.2487
82696W        W25712  20.839   7.160  22.870  0.1775  0.3611 -0.2074
82697W        W25713   4.424   3.161   3.164  0.1462 -0.2472 -0.0320
82698W        W25714  11.406   7.835  22.652  0.2908  0.1123 -0.1279
82699W        W25715  16.617  34.709  18.705 -0.0400 -0.1014 -0.1823
82700W        W25716   6.488  15.373   9.125 -0.2775 -0.1045 -0.0773
82701W        W25717  17.645  15.748   5.961 -0.1056 -0.0883 -0.0925
82702W        W25718  28.076  31.620  18.741 -0.1097  0.0504  0.1068
82703W        W25719   2.352  22.499   0.441  0.0727  0.0384 -0.1700
82704W        W25720  22.607  30.111   0.283 -0.2000  0.0399 -0.2041
82705W        W25721   4.849  14.327  24.032 -0.1136 -0.2036 -0.1567
82706W        W25722   0.196  26.190  28.271  0.0797 -0.2566  0.1640
82707W        W25723  24.588   1.987  25.874  0.1232 -0.0617  0.0194
82708W        W25724  32.662   9.784  27.536  0.2604 -0.0633 -0.2052
82709W        W25725  13.984  10.411  24.513 -0.1705  0.0984 -0.0425
82710W        W25726  19.022  25.382  17.627 -0.0608 -0.0531  0.0516
82711W        W25727  20.056   3.452   8.804 -0.0522 -0.0514  0.4503
82712W        W25728   9.289  20.206  14.141 -0.2086 -0.0002  0.1268
82713W        W25729   4.275  33.902   0.554  0.0235 -0.3083 -0.3658
82714W        W25730  13.798   1.505  22.012  0.0232 -0.2372  0.0573
82715W        W25731   6.447  15.506  13.542  0.2473  0.2428 -0.1398
82716W        W25732  23.883  33.003  28.696 -0.2386  0.3191 -0.4718
82717W        W25733  21.175   5.911  23.070  0.1012  0.0696  0.0505
82718W        W25734  26.534   9.898  24.197  0.1285 -0.1022  0.1030
82719W        W25735   6.696   2.155  22.368  0.1296 -0.5785  0.2295
82720W        W25736   3.735  29.637   6.360  0.0232 -0.1146 -0.0889
82721W        W25737  15.622  15.643  15.380 -0.1252 -0.2863 -0.1289
82722W        W25738   9.461  23.945  22.378 -0.0171 -0.0491  0.1522
82723W        W25739  28.705  18.445   5.580  0.0702  0.0777  0.0541
82724W        W25740  16.550  32.604  19.015  0.0164  0.3099 -0.1791
82725W        W25741  28.679  32.129  23.560  0.0100 -0.2417  0.2712
82726W        W25742  11.734   5.286   9.327  0.3165 -0.3283  0.2031
82727W        W25743  11.882  31.748   2.403 -0.1364  0.0598  0.1804
82728W        W25744  17.168   0.244  19.352 -0.1115 -0.2723  0.1885
82729W        W25745   0.089   9.439  24.330 -0.2292 -0.0889  0.1450
82730W        W25746  23.848   2.470  26.693 -0.0196  0.3182 -0.3242
82731W        W25747  29.260  16.199   3.057 -0.0286 -0.0434  0.1291
82732W        W25748   8.466  16.074  19.127 -0.0760  0.0141 -0.2659
82733W        W25749  12.760   8.366  27.005 -0.0380  0.2416 -0.0142
82734W        W25750  29.996  33.187   1.323 -0.1710 -0.1268 -0.1558
82735W        W25751   8.522   9.203   0.513 -0.1251 -0.0880  0.1018
82736W        W25752   3.823   4.116  22.284 -0.2018 -0.0809 -0.0359
82737W        W25753  13.267  30.822  21.635 -0.2783 -0.1346  0.0328
82738W        W25754  23.664  27.158  22.266  0.1015  0.2312  0.0085
82739W        W25755  22.007   3.386  18.385  0.0254 -0.3183 -0.2284
82740W        W25756  26.978  13.604  26.656 -0.1302 -0.0549  0.1776
82741W        W25757  19.172   6.759  27.670  0.0708 -0.0631 -0.2362
82742W        W25758  18.233   3.055   0.028 -0.0605 -0.2486  0.1090
82743W        W25759  19.872  28.305  27.191 -0.1034  0.4502  0.1085
82744W        W25760   3.861  34.717  22.254 -0.0617 -0.0121  0.2605
82745W        W25761  18.783  13.637  12.107 -0.1594  0.1447  0.1200
82746W        W25762  31.086   0.298   1.266 -0.1815  0.2034  0.2433
82747W        W25763  32.324  12.515  23.978  0.1254  0.0551  0.1536
82748W        W25764   6.322  12.357  28.074  0.2285  0.0997  0.0215
82749W        W25765   8.578   3.055   0.968 -0.0571  0.0681 -0.6219
82750W        W25766   1.028  24.647  21.055 -0.1960 -0.0701 -0.0928
82751W        W25767  10.144   5.874   9.035  0.0225 -0.3143 -0.0532
82752W        W25768  19.523  15.836  25.426  0.1000 -0.0456  0.1835
82753W        W25769   8.696   9.023  26.668 -0.2985 -0.0792 -0.0581
82754W        W25770  24.946  34.010  28.757 -0.0893  0.0380  0.2420
82755W        W25771  25.005  25.386  21.943  0.0879  0.0119 -0.2623
82756W        W25772  26.667  30.264   3.100 -0.1419 -0.2927 -0.0271
82757W        W25773  14.129   6.884  15.531 -0.1655  0.3928 -0.3286
82758W        W25774  10.965   8.745   1.473  0.3121  0.0398  0.0097
82759W        W25775   0.286  25.547   5.364  0.0521 -0.0372  0.1429
82760W        W25776  18.872  28.759  28.006 -0.0642 -0.0678  0.2097
82761W        W25777  19.668  12.079  21.737  0.1874 -0.1541  0.2806
82762W        W25778   0.544  32.076   1.727 -0.2552 -0.0075  0.2495
82763W        W25779   4.780  20.667  19.128  0.1439 -0.0900 -0.0805
82764W        W25780   8.966   8.839  23.618 -0.1619 -0.0493  0.0060
82765W        W25781  26.943  31.734   1.207  0.2284  0.1308  0.3705
82766W        W25782  13.457   5.196   0.588 -0.2604  0.2859 -0.1206
82767W        W25783  15.473   5.756  26.921  0.4642 -0.1849  0.1791
82768W        W25784   6.616  23.499  25.333  0.0164 -0.0157  0.0502
82769W        W25785  25.783   5.091  25.673  0.0985 -0.0730 -0.0072
82770W        W25786  31.851  30.693   2.251 -0.1640  0.0641 -0.1612
82771W        W25787  19.003  34.473   1.211  0.3519 -0.0336 -0.1617
82772W        W25788  18.608  28.445  25.823 -0.4465  0.0190  0.1862
82773W        W25789  30.077  33.467  24.574  0.1081 -0.3831 -0.2164
82774W        W25790   8.356  18.771  24.865 -0.0273  0.2552 -0.0503
82775W        W25791  33.932  30.715  19.386  0.0597  0.1906  0.1327
82776W        W25792  26.850  22.851  17.194  0.1423 -0.0073  0.0685
82777W        W25793  11.399  28.822   3.978  0.4561  0.0689 -0.3131
82778W        W25794  10.499  12.812  27.964 -0.0257  0.3553 -0.3122
82779W        W25795  28.619   0.558   4.969  0.2807  0.0836 -0.2047
82780W        W25796  14.678  28.843   0.342  0.0379 -0.1049 -0.0491
82781W        W25797  16.418  26.990  25.492 -0.2013  0.2637  0.2737
82782W        W25798  21.188   9.321  22.504  0.0905  0.3075  0.0964
82783W        W25799  10.825  31.196  18.934  0.2750  0.1803  0.3400
82784W        W25800  31.801   1.852   4.185  0.1160  0.3462 -0.7096
82785W        W25801  24.236  21.109  23.075 -0.0663 -0.3782  0.0166
82786W        W25802  11.854   0.514  18.517 -0.0119 -0.0358  0.1120
82787W        W25803  28.574  29.403   1.805 -0.0563 -0.1083 -0.2454
82788W        W25804  31.196   0.573  24.254 -0.1149  0.0804 -0.1079
82789W        W25805  17.565   8.965  21.241  0.1399  0.0371  0.1303
82790W        W25806  15.829  26.962  21.903 -0.0987 -0.0398 -0.0042
82791W        W25807  20.575  28.215  23.738 -0.1969 -0.1510  0.1434
82792W        W25808  13.271  15.585  29.262  0.2333 -0.0636  0.3160
82793W        W25809  17.525  34.062  15.943  0.1221  0.0869  0.2265
82794W        W25810  34.340  21.509   5.612 -0.0547 -0.4967  0.2497
82795W        W25811   9.140  23.607  18.552  0.1166  0.2245  0.0174
82796W        W25812  18.394  33.439  17.294 -0.0502  0.1287 -0.0699
82797W        W25813  23.341  18.515   8.271 -0.4052 -0.2046  0.1206
82798W        W25814  19.263  30.064  28.268 -0.0917 -0.1004 -0.2972
82799W        W25815  12.830   2.749   4.949  0.1375  0.0831 -0.1276
82800W        W25816  11.300   4.164  17.994  0.0863 -0.2180 -0.0794
82801W        W25817  18.938   7.370   1.118 -0.1219  0.1165 -0.0739
82802W        W25818   6.677  24.068  15.001 -0.0238 -0.2209 -0.0348
82803W        W25819  10.850  16.970   2.819 -0.1553  0.1523  0.1669
82804W        W25820  15.830  30.979  28.949  0.2380 -0.2084 -0.1761
82805W        W25821   5.205  12.074   5.790  0.2453 -0.1272 -0.1800
82806W        W25822  27.985  16.843  21.623  0.1502  0.2735 -0.3194
82807W        W25823  20.644  25.796  29.083 -0.1269 -0.0463 -0.2462
82808W        W25824  22.756  17.165  26.436 -0.3535  0.0213  0.0144
82809W        W25825  17.073  30.658   0.322 -0.1809  0.1322 -0.0385
82810W        W25826  16.082  13.287  27.143  0.3508  0.2319 -0.1767
82811W        W25827  11.096   4.425   3.039 -0.2017 -0.0472 -0.0511
82812W        W25828  14.541  29.462   4.284 -0.1851  0.1770 -0.0061
82813W        W25829   9.678  24.203   3.282 -0.0869  0.2769 -0.1843
82814W        W25830  16.150   3.483   5.554  0.1048 -0.2103  0.3142
82815W        W25831  10.148   3.522  17.910 -0.2595 -0.3330  0.0559
82816W        W25832  32.564  25.194  26.549 -0.0197 -0.1731  0.0682
82817W        W25833   1.583   2.395  23.207  0.0628 -0.4735  0.2890
82818W        W25834  10.604  14.138  12.977 -0.3585  0.3401 -0.0559
82819W        W25835  22.818   8.189  28.781  0.0732  0.0227 -0.3083
82820W        W25836  30.633   6.820   9.442 -0.4494  0.1206 -0.3828
82821W        W25837  26.569  11.412  27.397  0.1251  0.2149 -0.0156
82822W        W25838   7.764  25.613  22.337  0.0639 -0.0210 -0.1348
82823W        W25839  20.754  29.212  16.504 -0.1365  0.1479  0.0698
82824W        W25840  16.681  32.428  23.842 -0.0811  0.0676  0.0841
82825W        W25841  18.332   4.274  27.651  0.1498 -0.3103  0.1308
82826W        W25842  14.949  34.071  16.338  0.5043 -0.4438  0.1728
82827W        W25843  26.199   5.165   1.504  0.0122 -0.5762  0.0974
82828W        W25844  28.307   0.728  21.033 -0.2754  0.1649  0.0900
82829W        W25845   4.509  22.403  27.840 -0.1320 -0.0159  0.2103
82830W        W25846   0.548   4.540  13.968  0.1067 -0.1831  0.2062
82831W        W25847   2.013  12.074  29.234 -0.1356 -0.0920 -0.2323
82832W        W25848  32.006  30.477  27.675 -0.0199 -0.2028  0.0078
82833W        W25849  19.807  12.514  28.427 -0.0438  0.0645  0.0927
82834W        W25850  21.222  31.851   0.298  0.0792  0.0740 -0.0023
82835W        W25851  14.022   2.280   0.966  0.1754 -0.1336  0.0443
82836W        W25852  18.060  25.804  18.026 -0.0606  0.0106 -0.1453
82837W        W25853   3.466   6.801  17.503  0.2456  0.3244 -0.1255
82838W        W25854  33.911  33.707   1.363  0.0181  0.1627 -0.2589
82839W        W25855  16.470  28.415  24.158 -0.2164 -0.1222 -0.0276
82840W        W25856   3.740  30.407   4.713  0.0277 -0.0750 -0.5025
82841W        W25857   2.831   0.233  10.402  0.2276 -0.3306 -0.0468
82842W        W25858   8.128  33.229  19.912 -0.0216  0.0159  0.4021
82843W        W25859   8.962  28.622   4.912 -0.2507  0.1549  0.0183
82844W        W25860  17.191  27.748  15.947 -0.1885 -0.3233 -0.0937
82845W        W25861  18.304  15.541  19.750  0.0476  0.2461 -0.1277
82846W        W25862   4.664  33.958  25.792  0.2420  0.1300  0.2277
82847W        W25863   7.596  32.716  23.955 -0.0693  0.1973  0.1879
82848W        W25864   3.477  30.901  24.909  0.0399  0.0709  0.0755
82849W        W25865  11.127   0.342   5.762 -0.1340  0.4254  0.1112
82850W        W25866  14.205   1.591  22.971 -0.0254  0.0653  0.0659
82851W        W25867  11.085   4.328   9.346  0.1581  0.0566  0.0002
82852W        W25868   4.605  20.035  19.399 -0.1201  0.7388  0.1299
82853W        W25869   7.067  21.020   8.032 -0.2246  0.0810 -0.1814
82854W        W25870  20.672   1.138   6.533  0.0385 -0.2053 -0.0934
82855W        W25871  18.185  23.756  25.483  0.2081 -0.0715 -0.1584
82856W        W25872  12.748  24.310   0.777 -0.3983 -0.2748 -0.1147
82857W        W25873  20.849  32.665   1.278 -0.1198 -0.3450 -0.1118
82858W        W25874  14.681  10.726   3.667  0.0591  0.1093  0.1918
82859W        W25875  19.599  29.200  28.423 -0.0314 -0.0889  0.2473
82860W        W25876  14.917   2.890  19.252  0.0417  0.1672 -0.2069
82861W        W25877  18.379  20.588  24.987  0.1343 -0.4742 -0.0515
82862W        W25878  11.264  25.137  15.334  0.0883 -0.1524 -0.0575
82863W        W25879  19.664   5.990  15.331 -0.0449 -0.0295 -0.2874
82864W        W25880   2.333  15.389  18.588 -0.0543 -0.3374 -0.0747
82865W        W25881  12.465  11.047  16.604  0.1097 -0.0746 -0.1672
82866W        W25882   5.627  33.976  16.502 -0.1139  0.1707 -0.1257
82867W        W25883  14.368   4.122  25.490 -0.1075 -0.3116  0.1798
82868W        W25884  28.745  30.783  27.429 -0.0238 -0.0150  0.1998
82869W        W25885  21.125   8.660  21.560  0.0311  0.1508  0.4233
82870W        W25886  29.686  27.072  25.617  0.2229 -0.0693  0.2519
82871W        W25887  21.174  24.547   3.542  0.2963 -0.0069 -0.0662
82872W        W25888  10.743   8.104   8.306 -0.3594 -0.0875 -0.0535
82873W        W25889  14.530  33.264  26.932  0.4610 -0.0222  0.4821
82874W        W25890  21.535  12.537  22.806  0.5227  0.0940 -0.0213
82875W        W25891  27.600   1.820  20.992 -0.0187  0.1450 -0.1266
82876W        W25892   2.010  10.017  17.137 -0.2052 -0.1396 -0.1313
82877W        W25893  28.305  27.206   2.507  0.0056 -0.1541 -0.1582
82878W        W25894  25.950  17.205   9.987  0.1078 -0.2043 -0.3185
82879W        W25895  33.552  34.305   9.486  0.0609 -0.1161  0.0180
82880W        W25896  19.245   8.091  23.851 -0.1266  0.1112 -0.0021
82881W        W25897   6.557   3.196  17.970 -0.0976 -0.1068 -0.2593
82882W        W25898  16.513  11.649  12.347  0.1827 -0.0996 -0.0202
82883W        W25899  32.702  31.994   1.220  0.0678 -0.2645  0.2422
82884W        W25900  32.006   0.001   1.612 -0.0156 -0.0895  0.1684
82885W        W25901  16.176   5.923   9.224  0.3091  0.1686  0.4831
82886W        W25902   2.860  21.901   7.485 -0.1257 -0.2138 -0.2647
82887W        W25903  26.632   1.430   3.628  0.0021  0.0977 -0.1032
82888W        W25904  10.743  33.717   2.661  0.1475 -0.2721 -0.0607
82889W        W25905  11.620  15.743  17.343 -0.2845  0.1033 -0.0667
82890W        W25906   9.454   4.368  28.204 -0.3655  0.0492 -0.0249
82891W        W25907  11.596  28.176   1.323 -0.0915  0.2543 -0.0245
82892W        W25908  19.212  31.379  15.891 -0.1924  0.2194  0.1467
82893W        W25909  13.487  13.367  22.014 -0.0944  0.1560 -0.2869
82894W        W25910   7.431   6.156  24.495  0.1462  0.0216 -0.0093
82895W        W25911  21.902  34.117  10.048 -0.0974  0.1803 -0.1039
82896W        W25912   0.654  25.390  10.365 -0.3614  0.4199 -0.1391
82897W        W25913  29.764  17.485  23.065  0.0374  0.2053  0.5303
82898W        W25914   6.747  27.259   1.717  0.1724  0.2426  0.0586
82899W        W25915  12.377   0.569  23.857  0.0138 -0.2692  0.1045
82900W        W25916  10.583  28.205  22.368  0.0796  0.0288 -0.0555
82901W        W25917   2.082   9.931  27.338 -0.3413 -0.1984  0.1622
82902W        W25918  18.204   9.812   7.821 -0.1578 -0.0974  0.0691
82903W        W25919  11.617  29.583  28.525  0.4069 -0.0905 -0.0354
82904W        W25920  23.891   7.505   2.639  0.0770  0.4003 -0.1577
82905W        W25921  23.692  10.879   3.082 -0.2071  0.2625  0.1820
82906W        W25922   3.557   3.490  28.823 -0.0585  0.0522  0.1845
82907W        W25923   5.807  23.055   1.870 -0.1146 -0.0090  0.0015
82908W        W25924  10.995  18.400   6.457  0.0178 -0.2933  0.3806
82909W        W25925  13.013  10.523   0.465 -0.2115  0.3712  0.1653
82910W        W25926   8.842  32.932  14.264  0.2700  0.0159  0.0504
82911W        W25927  20.380  18.616  12.309  0.0630 -0.1485  0.1646
82912W        W25928  15.027   2.268  20.593 -0.0900 -0.1740 -0.2012
82913W        W25929  24.613  10.935  23.642 -0.1029  0.0304 -0.1715
82914W        W25930   8.708   7.545   6.658 -0.1164  0.0877 -0.3972
82915W        W25931  31.132   0.226  20.845  0.0523 -0.1862 -0.0691
82916W        W25932   2.314   2.088  14.791  0.0320 -0.0787 -0.0471
82917W        W25933  29.511  24.477  16.153 -0.3441  0.1049  0.1914
82918W        W25934  17.129  34.767  22.172 -0.1466 -0.0081 -0.0676
82919W        W25935  19.297  33.866  24.244 -0.0012  0.0512 -0.0219
82920W        W25936  27.510   1.405  21.312  0.3527 -0.1680  0.1124
82921W        W25937  26.817  22.156  15.913  0.1542 -0.5952  0.2265
82922W        W25938  17.926  24.652  15.131  0.1864  0.1010 -0.1407
82923W        W25939  26.379  19.486  21.724  0.1937 -0.1502  0.3863
82924W        W25940  13.469   6.536  20.841  0.0303 -0.0060 -0.0965
82925W        W25941  10.039  29.625  19.526 -0.0162  0.3050 -0.2164
82926W        W25942  17.702   1.256  17.036  0.0613  0.1225  0.0724
82927W        W25943  21.846   2.048  27.958  0.2020 -0.1126 -0.1662
82928W        W25944   2.615  25.900  18.671 -0.1407 -0.1052  0.1272
82929W        W25945   8.120   1.525  20.850 -0.1493 -0.0342  0.0516
82930W        W25946  30.072   4.306  25.663  0.3090 -0.1325  0.4983
82931W        W25947  28.051   9.200  18.047  0.2336  0.2577 -0.0923
82932W        W25948  22.179   1.173  19.380 -0.0240  0.0526  0.1516
82933W        W25949   7.144  24.173  27.082 -0.1501 -0.1018  0.0779
82934W        W25950  33.263  32.093  16.062  0.0713  0.0698  0.1133
82935W        W25951  12.903  12.246   8.163 -0.1656 -0.1076  0.1045
82936W        W25952  27.727   8.920  15.745  0.1309 -0.0599  0.0795
82937W        W25953  27.737  32.338  25.243  0.0173  0.2192  0.1103
82938W        W25954  26.749  17.159   3.602 -0.0257  0.0196  0.0791
82939W        W25955   2.307   2.756  18.242  0.3805  0.1748 -0.3097
82940W        W25956   5.288  18.368   6.137  0.2574  0.0404  0.0884
82941W        W25957  17.027   3.214  21.650  0.0292  0.1362 -0.3841
82942W        W25958  24.315  16.382  13.563  0.0888  0.2382  0.0583
82943W        W25959  24.108  24.550  27.938  0.1322  0.1988  0.2378
82944W        W25960  25.104  17.248  26.707 -0.0638  0.1597 -0.2099
82945W        W25961  16.994  34.176  14.172  0.0224  0.2953 -0.2337
82946W        W25962  26.255   1.897   0.206 -0.0459 -0.1265 -0.0198
82947W        W25963  31.400  30.739  19.036 -0.2296  0.1703 -0.3691
82948W        W25964  34.767  28.473  21.035 -0.2413 -0.0248 -0.3592
82949W        W25965  20.495  15.566  13.783  0.0348 -0.0026 -0.1803
82950W        W25966  30.987  32.446   8.682  0.1052  0.0236  0.0265
82951W        W25967  19.476   1.500  23.521  0.0780 -0.1841  0.0449
82952W        W25968  33.377  25.190  28.768 -0.0415  0.0452 -0.0262
82953W        W25969  30.323   7.472   0.161 -0.1561  0.1042  0.2551
82954W        W25970  21.640  29.530  19.319  0.0349 -0.0595 -0.0465
82955W        W25971   2.239  29.633  14.812  0.2092 -0.0160 -0.1119
82956W        W25972  14.193   4.892  27.330  0.0227 -0.2481  0.2468
82957W        W25973  31.118  32.690  23.650  0.1561 -0.0410  0.2164
82958W        W25974  17.418  28.394  16.739 -0.0699  0.2916 -0.5115
82959W        W25975  10.475  11.349   2.689 -0.3385 -0.1597 -0.3315
82960W        W25976  20.878  10.333  15.792  0.0126 -0.3786 -0.0882
82961W        W25977  19.061  34.115   9.185 -0.2216 -0.0143  0.0782
82962W        W25978   9.134  32.602  16.057  0.1889  0.1883  0.3156
82963W        W25979  27.116  10.000  21.879 -0.2748 -0.1406  0.1978
82964W        W25980   2.617  14.147   4.123  0.1795  0.2417 -0.6205
82965W        W25981  22.160   7.918  24.433  0.3040 -0.2455 -0.0683
82966W        W25982  18.826  26.756   4.318  0.1802  0.2114  0.0496
82967W        W25983  16.982  29.692  17.969 -0.0806  0.2467 -0.0110
82968W        W25984  19.769  26.209  25.067 -0.0503  0.0238  0.0364
82969W        W25985  20.848  26.443  16.520  0.0485  0.4843 -0.1054
82970W        W25986  24.703   6.847  18.101 -0.2022  0.3078 -0.0520
82971W        W25987  31.666   0.175  17.195 -0.0830 -0.0646  0.3010
82972W        W25988  18.277  13.096  13.219 -0.1796  0.0962  0.1448
82973W        W25989  23.294   6.929  21.659 -0.1313  0.0939 -0.1082
82974W        W25990  27.402  13.680  16.395  0.0727 -0.0429  0.1590
82975W        W25991   9.317  20.860  14.871  0.1788 -0.3661 -0.3866
82976W        W25992   4.179   5.771  22.942  0.0154  0.0064 -0.1812
82977W        W25993  23.651  27.292  21.456 -0.2576  0.2053  0.2477
82978W        W25994  29.237  28.718  17.639  0.1550 -0.1390  0.5503
82979W        W25995  21.031  24.382  28.815  0.0105  0.1378 -0.1044
82980W        W25996   2.343  33.497  26.417 -0.0275 -0.0914  0.1935
82981W        W25997  22.237   9.015  18.445  0.0762 -0.0086 -0.1478
82982W        W25998  15.903  24.774   5.984  0.0482 -0.2674 -0.1665
82983W        W25999  22.075   7.502  28.239  0.0856  0.1395  0.1017
82984W        W26000  33.438  19.803  28.996 -0.2158 -0.1759  0.1890
82985W        W26001  18.212  26.475  23.648 -0.1962 -0.2103  0.0958
82986W        W26002  16.032   1.181   0.602  0.1617 -0.0318  0.1597
82987W        W26003  14.015   5.097  14.741 -0.1471 -0.0572  0.0553
82988W        W26004   2.041  11.782  18.252 -0.2220  0.3314 -0.2462
82989W        W26005  29.798  17.428  17.375  0.0583  0.2607 -0.0028
82990W        W26006  10.151  16.113  16.173  0.0685  0.2609  0.0884
82991W        W26007  28.635  10.647  20.336 -0.0004  0.1107 -0.0197
82992W        W26008   7.987   3.489  27.766 -0.1779 -0.4305  0.0231
82993W        W26009  19.609   1.170  21.928  0.1914 -0.0836  0.0849
82994W        W26010  18.026   1.170  16.216 -0.0447  0.0972  0.1717
82995W        W26011  23.029   0.322  17.079  0.2881  0.2613 -0.0415
82996W        W26012  18.746  33.186   8.069 -0.0798  0.0404 -0.0886
82997W        W26013  32.473   9.068  24.601  0.0026  0.0576  0.2202
82998W        W26014  24.073  30.578  18.731  0.1809  0.3656  0.0498
82999W        W26015  12.907  34.183  25.999 -0.1960  0.0287 -0.1831
83000W        W26016  21.980  34.345   2.346  0.1259 -0.1326 -0.1329
83001W        W26017  16.374  32.975  19.969 -0.3149  0.1901 -0.2336
83002W        W26018   6.154   4.287  17.385 -0.3071  0.4255 -0.1639
83003W        W26019  10.394   4.386  19.404  0.4459 -0.2440  0.1192
83004W        W26020  13.292  26.802  18.920  0.1902 -0.0176 -0.2185
83005W        W26021  22.330  34.213  21.239 -0.0986  0.4348 -0.1430
83006W        W26022   9.430  34.377  24.139 -0.0588 -0.0339 -0.0831
83007W        W26023   4.732  25.342  16.964  0.3046  0.1943 -0.0556
83008W        W26024  14.362  11.836  21.214 -0.1148 -0.0412  0.0608
83009W        W26025  14.973   4.257  15.634 -0.0632 -0.4285  0.0075
83010W        W26026   3.743  31.481  25.360  0.4275  0.1031 -0.0954
83011W        W26027   6.729  11.370  27.083  0.4105  0.0776  0.1662
83012W        W26028  33.574   3.131   1.741  0.2454 -0.2296  0.1838
83013W        W26029  30.584   0.831  28.966  0.1856  0.0342 -0.0559
83014W        W26030  11.540  27.822  25.743 -0.1370 -0.2616  0.1079
83015W        W26031   7.004   0.817  23.363  0.2825 -0.2155  0.4512
83016W        W26032  20.349   7.703  16.980 -0.1822  0.1048  0.2532
83017W        W26033  17.315   2.807  15.270 -0.0910 -0.0019 -0.1119
83018W        W26034  25.337   7.630  16.158 -0.1341  0.2381 -0.2456
83019W        W26035  16.901  30.159  20.668  0.0318 -0.2052 -0.0819
83020W        W26036  27.724  12.165  14.432 -0.3489  0.2154 -0.1395
83021W        W26037  33.136  33.544  19.887  0.2395 -0.1384 -0.0653
83022W        W26038  30.133  29.177   3.063 -0.1257 -0.1316 -0.1305
83023W        W26039  27.664  30.657  28.203 -0.0469 -0.0585 -0.1015
83024W        W26040  28.949   1.725  18.046 -0.3523 -0.1432 -0.0330
83025W        W26041   9.033   0.676  15.013 -0.1341 -0.1811 -0.0913
83026W        W26042  14.699   9.824  21.622  0.1524  0.0302 -0.2922
83027W        W26043  30.555  12.584  18.070 -0.1964 -0.0908  0.0419
83028W        W26044  21.774  11.470  14.306 -0.3843  0.0275 -0.1004
83029W        W26045  18.758  34.507   2.203  0.1578  0.1133  0.0478
83030W        W26046  19.654  13.746  11.788 -0.3021  0.2778 -0.0573
83031W        W26047  25.050  30.949  19.602 -0.0829 -0.0680  0.0636
83032W        W26048  11.592  21.830  19.749 -0.1112 -0.0266 -0.1143
83033W        W26049  14.975  30.792  14.931 -0.4012 -0.0484  0.2631
83034W        W26050  15.445  14.549  14.135  0.0444  0.1303  0.0549
83035W        W26051  12.965   2.816   2.477  0.0015  0.2240 -0.0355
83036W        W26052  18.046  17.816  14.335  0.0240  0.0020 -0.1057
83037W        W26053   8.849   6.346  16.947  0.3777  0.2667  0.0201
83038W        W26054  15.349   9.617  26.025  0.1406  0.1963 -0.0261
83039W        W26055  20.775  17.588  12.094  0.3355  0.0447 -0.1072
83040W        W26056  25.786  27.073   5.880 -0.1473  0.0363  0.0360
83041W        W26057   2.116  31.674  20.390  0.3659  0.0321  0.0138
83042W        W26058  19.656  10.985  19.412 -0.1383  0.1067  0.1119
83043W        W26059  18.073   6.974  18.420  0.0737 -0.1626 -0.1858
83044W        W26060   4.213  30.278  25.945 -0.2629  0.3011  0.0096
83045W        W26061  12.711   5.346  15.232 -0.0860 -0.2618  0.3069
83046W        W26062  32.610  31.297   5.365  0.0749  0.2480  0.0625
83047W        W26063   3.713   9.128  20.993  0.4805 -0.3894 -0.3338
83048W        W26064   4.202  19.711   1.090 -0.1047 -0.1406 -0.1049
83049W        W26065   7.154  33.705  16.815 -0.1740  0.0480  0.0314
83050W        W26066  12.947  23.513  17.651  0.0643  0.0026  0.0218
83051W        W26067  10.145  31.056  25.367 -0.1969  0.0251  0.2609
83052W        W26068  32.925  13.410  29.127  0.0946 -0.1269 -0.2136
83053W        W26069  29.764  25.004  23.249  0.2614  0.1655 -0.5275
83054W        W26070   3.679   2.357  22.055 -0.1549  0.2005  0.2828
83055W        W26071  19.810  34.757  21.753  0.1032 -0.2550  0.0437
83056W        W26072  11.190   2.304   3.598 -0.0281 -0.1681  0.0421
83057W        W26073   7.426   9.057  13.627 -0.0447 -0.1339  0.0532
83058W        W26074  16.028   1.395  27.216  0.3609 -0.2071  0.1177
83059W        W26075  17.207   5.403  18.037  0.1055 -0.0419  0.1352
83060W        W26076  18.297   0.113  25.451 -0.2610 -0.1299 -0.2515
83061W        W26077  16.568   5.616  25.756  0.2063 -0.0215  0.2989
83062W        W26078  23.226  32.947  18.500  0.0948  0.1559 -0.0220
83063W        W26079  27.530  18.283  17.559  0.2229  0.0787 -0.0033
83064W        W26080  16.588   2.806  15.356 -0.0433 -0.2557  0.0118
83065W        W26081  20.013  15.682  13.863  0.0418  0.1447 -0.0761
83066W        W26082  25.239  11.385  25.083 -0.0470  0.2682 -0.1427
83067W        W26083  12.770   1.206  20.604  0.2467 -0.3460  0.0782
83068W        W26084  20.098   6.280  19.121 -0.1582  0.1814 -0.1352
83069W        W26085  30.356   6.754   5.427 -0.2174 -0.0281  0.1771
83070W        W26086  20.172  32.208  25.236  0.1358 -0.1664  0.1028
83071W        W26087  26.733  24.884  19.132  0.1127  0.0240  0.1488
83072W        W26088  11.423   4.610  20.411  0.3281  0.2133  0.1424
83073W        W26089   2.702  12.129  20.272 -0.0691  0.0778 -0.0458
83074W        W26090   9.290  33.264  20.984  0.3680  0.1878  0.3981
83075W        W26091   8.348   1.310   3.502 -0.0881 -0.3040  0.1630
83076W        W26092  11.796   8.090  14.771 -0.0258 -0.1358  0.1196
83077W        W26093  16.421  31.204  18.579 -0.0815  0.0312  0.0501
83078W        W26094  28.708   5.634  17.027 -0.1431 -0.0970 -0.2304
83079W        W26095  19.714   2.559   7.573 -0.0771 -0.2446  0.2023
83080W        W26096  25.688   2.368  28.855 -0.0107  0.1296 -0.1509
83081W        W26097  25.933   0.251  20.220 -0.0287 -0.1065 -0.3128
83082W        W26098  21.818  13.177  13.543 -0.1263  0.1050  0.1273
83083W        W26099  17.253   1.857  22.062  0.1795  0.0527  0.1057
83084W        W26100  26.073  29.849  17.692 -0.1133 -0.0342  0.3069
83085W        W26101  24.492  14.364  15.255  0.1122 -0.1878  0.1723
83086W        W26102   8.635  13.943  22.659 -0.2712 -0.2520 -0.0424
83087W        W26103  24.236   0.380   4.970  0.1961  0.1591  0.0666
83088W        W26104   6.077  18.833  22.751  0.2572 -0.0716 -0.0146
83089W        W26105  29.010  33.587  25.303 -0.0454 -0.2296  0.1107
83090W        W26106  16.334   5.330  23.099  0.1743 -0.3171 -0.0531
83091W        W26107  34.670   0.613  18.999 -0.4191 -0.0107  0.0307
83092W        W26108  11.730  32.564  23.149  0.0057 -0.0549  0.0240
83093W        W26109  22.868   3.979  21.382  0.2581  0.0751 -0.1641
83094W        W26110  19.765   7.186   2.660 -0.1863 -0.1432  0.1086
83095W        W26111   3.566  33.755   5.669 -0.2326  0.0670  0.0242
83096W        W26112  21.049  11.505  17.144  0.0197  0.0477  0.0322
83097W        W26113  14.925   5.519  27.010 -0.1291  0.2352  0.1113
83098W        W26114  27.120  26.998  16.624 -0.2882  0.0851  0.0380
83099W        W26115  18.568   4.278  24.930 -0.0294  0.4122  0.0372
83100W        W26116  24.369   2.428   7.822  0.3626 -0.0542  0.0981
83101W        W26117  30.144  30.935   8.103 -0.2841 -0.0201  0.1733
83102W        W26118  16.510   4.050  20.740  0.1995  0.1225  0.0099
83103W        W26119  18.510  15.743  12.974 -0.2519 -0.2894  0.1057
83104W        W26120  29.248  33.870  23.276 -0.2820 -0.0460 -0.1904
83105W        W26121  16.057   6.572   4.335 -0.0817  0.0857 -0.1553
83106W        W26122  18.330   0.827  19.330 -0.0348 -0.0181 -0.1831
83107W        W26123  24.720  30.744  24.092  0.1651  0.0329 -0.0332
83108W        W26124  15.344   0.887  17.013 -0.0829  0.2650  0.1454
83109W        W26125  14.709  15.962  27.821 -0.1448  0.0355 -0.3154
83110W        W26126  29.539  33.591  20.951  0.0263 -0.1954  0.0101
83111W        W26127  15.058  23.467  20.858 -0.0986  0.1724  0.2269
83112W        W26128   7.018  16.529  19.012 -0.0988 -0.2230 -0.1469
83113W        W26129  18.708  22.218  22.490 -0.2966 -0.0772 -0.0974
83114W        W26130  15.348  30.084  15.985 -0.0223  0.0249 -0.0039
83115W        W26131  17.565  23.465  21.444 -0.1843 -0.0075 -0.1062
83116W        W26132  12.036  31.877  22.457 -0.0401  0.0738 -0.3255
83117W        W26133  12.109  23.428  13.063  0.0958 -0.0064 -0.1222
83118W        W26134  25.104  30.470  21.161  0.0140 -0.2513  0.1418
83119W        W26135   3.667  31.063  18.866 -0.0528 -0.2702  0.0947
83120W        W26136  19.278  31.495  27.749 -0.2973  0.2566  0.3206
83121W        W26137  24.500  27.888  22.341 -0.2761  0.0040  0.0271
83122W        W26138  24.388  30.468  15.732  0.1260  0.2372  0.1045
83123W        W26139   8.437  30.301   3.412 -0.0931  0.1296 -0.4134
83124W        W26140   9.529   0.452  15.240 -0.2042  0.1363  0.1488
83125W        W26141  23.415  11.166  23.406 -0.1836  0.2500  0.0488
83126W        W26142  30.855  33.242  23.861  0.4947 -0.0770  0.1019
83127W        W26143  26.071   2.222  18.126  0.0150 -0.1406  0.2089
83128W        W26144  13.505  34.563  16.282 -0.1538  0.1287  0.1727
83129W        W26145  24.507  10.658  25.812 -0.0008  0.1790  0.3720
83130W        W26146  25.444   2.609  20.766 -0.2609 -0.1495  0.0862
83131W        W26147  18.936  23.504  13.884 -0.1467  0.1218  0.0163
83132W        W26148  34.504  12.075  21.699  0.1976  0.2697 -0.0223
83133W        W26149   8.727   8.543   4.714 -0.0965 -0.2056 -0.0249
83134W        W26150  16.176   9.494  18.429  0.1155  0.2977  0.0924
83135W        W26151  22.228  18.897  22.907 -0.1524  0.0861  0.0262
83136W        W26152  25.573  14.127  16.421 -0.2227  0.0362 -0.0180
83137W        W26153  30.133   4.069  19.692 -0.0112 -0.2115  0.2773
83138W        W26154  22.105   9.118  16.976  0.1349  0.0213  0.2077
83139W        W26155  31.253  32.135   0.040  0.2969 -0.1760  0.0256
83140W        W26156  30.090   0.796   4.573  0.2150  0.0001 -0.0420
83141W        W26157  16.651   2.224  22.085 -0.1829  0.0490  0.0510
83142W        W26158  26.313  29.516  16.513  0.0450 -0.0292 -0.0793
83143W        W26159   6.286   5.896  20.943  0.2365  0.1059 -0.0292
83144W        W26160  25.756  15.768  27.365  0.0758 -0.0819  0.0612
83145W        W26161  17.761  12.148  23.462  0.0206 -0.0554 -0.4179
83146W        W26162  21.480  26.096   8.863 -0.0242  0.2930  0.1004
83147W        W26163  24.275   9.402  22.800  0.1047 -0.0939  0.0512
83148W        W26164  25.497  10.320  15.648  0.1345  0.0873 -0.0528
83149W        W26165  11.701  12.965  16.687 -0.2915  0.2179 -0.0876
83150W        W26166  14.243   7.779  22.256 -0.1785 -0.1843  0.1191
83151W        W26167  15.126   4.744  28.826  0.0787  0.4457  0.0947
83152W        W26168   2.301  24.458  14.226 -0.2463  0.0211  0.1664
83153W        W26169  19.309   3.501  19.902 -0.1861 -0.5440 -0.2823
83154W        W26170   7.677   8.735  16.537  0.3576  0.0924 -0.0595
83155W        W26171  25.321   4.544  21.502  0.0230 -0.1515  0.0714
83156W        W26172   4.587   5.533  26.815  0.0176 -0.2039  0.2549
83157W        W26173  24.798  10.967  16.909 -0.1595  0.0504  0.1876
83158W        W26174  14.930   1.287  22.738  0.0311 -0.1043 -0.3749
83159W        W26175   5.837  27.363  22.296 -0.1632 -0.2170 -0.0685
83160W        W26176  23.189   2.057  15.536 -0.2282 -0.0937 -0.1350
83161W        W26177   7.845  11.993  19.199  0.1371  0.0298 -0.0945
83162W        W26178  16.035  27.003   5.433  0.0053 -0.0416 -0.0911
83163W        W26179   1.656   5.130  23.861 -0.1760  0.0167  0.0463
83164W        W26180  27.026  26.693  23.815 -0.0585  0.2538 -0.2489
83165W        W26181  19.215   1.805  19.500 -0.1343  0.0066 -0.0327
83166W        W26182  18.091   5.083  16.158 -0.0468  0.2022 -0.0640
83167W        W26183  16.684   5.033  21.755 -0.3979  0.0951  0.4443
83168W        W26184  33.040   7.863   7.663  0.0475  0.1654  0.4102
83169W        W26185  22.483   6.506  15.846  0.1240  0.0730 -0.1291
83170W        W26186   8.202  32.515  19.402  0.0277  0.0717  0.3187
83171W        W26187  25.305  30.547  24.988 -0.2273  0.0463 -0.2223
83172W        W26188  24.636   1.407   0.803 -0.0010 -0.1530  0.3193
83173W        W26189  21.850   2.401  19.030  0.1640  0.3516  0.0513
83174W        W26190  10.845  32.487  29.233 -0.4844 -0.0260 -0.1358
83175W        W26191  17.620  29.801  15.156  0.1952 -0.1603 -0.0312
83176W        W26192  24.598  27.979   0.322  0.0480  0.1334 -0.0030
83177W        W26193  31.241  32.656  17.326 -0.1435  0.0216 -0.1701
83178W        W26194  16.046  17.994  14.553 -0.2101  0.2697 -0.1763
83179W        W26195  13.914  28.956  16.298  0.0570 -0.1840  0.3949
83180W        W26196  23.457   2.517  17.299 -0.2301  0.1420 -0.3510
83181W        W26197  16.438  14.085  13.768  0.0889  0.0822  0.1164
83182W        W26198  24.909  15.002  22.362  0.0327  0.0492  0.0881
83183W        W26199  31.014  33.435  18.778  0.1584  0.1071  0.2028
83184W        W26200  14.700  14.356  27.826 -0.1499  0.0323  0.0614
83185W        W26201   7.468  34.689  21.593  0.2279 -0.0736 -0.0141
83186W        W26202  32.197  17.911  23.342 -0.0424  0.0193 -0.0287
83187W        W26203  14.158  31.819  18.312  0.0613 -0.2847 -0.0188
83188W        W26204  30.076   9.906  17.520 -0.1572  0.0225  0.0924
83189W        W26205  33.367  29.054  25.465 -0.0930  0.3751  0.3826
83190W        W26206   2.951  28.885  24.832 -0.0907 -0.1528 -0.1412
83191W        W26207  22.191   4.196  28.673  0.1634 -0.1458  0.1369
83192W        W26208  25.018   1.596  19.845  0.1423  0.2908  0.1673
83193W        W26209  21.641  27.231  19.959 -0.1193  0.1731 -0.0302
83194W        W26210  28.043  14.520  21.598 -0.0492  0.1098 -0.4176
83195W        W26211  32.109  34.576   9.698 -0.1789 -0.4349 -0.5742
83196W        W26212   5.469   1.025  19.726 -0.0299 -0.1010  0.0428
83197W        W26213  13.662   2.665  21.572  0.0682 -0.0525  0.2801
83198W        W26214  20.666  32.202  18.362 -0.3088 -0.1617 -0.0099
83199W        W26215  24.197  34.713  15.748  0.0925 -0.0310  0.2180
83200W        W26216  33.555   7.403  16.379 -0.0418 -0.0524 -0.0556
83201W        W26217  23.582  29.841   0.185  0.1568  0.1460 -0.1681
83202W        W26218  14.340  33.582  15.212  0.3505  0.0546 -0.0601
83203W        W26219  17.528   0.301  23.099 -0.1018  0.0480 -0.2697
83204W        W26220  26.853   9.482  14.753  0.1325 -0.3875 -0.0800
83205W        W26221  24.201   7.458  21.262 -0.0055  0.2372 -0.0363
83206W        W26222  20.848  28.399  16.208  0.0440 -0.1098  0.1522
83207W        W26223  14.387  27.335  15.053 -0.0008  0.0117 -0.0394
83208W        W26224  30.354   0.623   3.547  0.0889 -0.3629 -0.0424
83209W        W26225  34.511   4.087  18.047 -0.1420 -0.1211 -0.5475
83210W        W26226   8.845  34.272  29.003 -0.0600  0.1879  0.0311
83211W        W26227  17.535   6.648   8.727 -0.1389 -0.0162 -0.1786
83212W        W26228  17.544  13.491   0.391 -0.2424 -0.2273  0.1138
83213W        W26229  27.258   8.817  26.748  0.1839 -0.0014 -0.1043
83214W        W26230  24.171   9.715  24.430  0.1717  0.1510  0.2075
83215W        W26231  23.860  30.154  17.364  0.2282 -0.0191 -0.3014
83216W        W26232  25.593   5.865  20.577  0.0993 -0.0933 -0.0886
83217W        W26233  12.973  26.550  20.457  0.0535 -0.0518  0.0930
83218W        W26234  32.831  30.026  22.421 -0.2254  0.0486  0.1606
83219W        W26235  21.264   5.111   0.968 -0.1886  0.0897  0.0047
83220W        W26236  19.169  13.303  19.468  0.0973  0.0258 -0.3177
83221W        W26237  17.085   2.970  18.373  0.0600  0.0738 -0.2479
83222W        W26238  16.411   7.659  21.679 -0.0384 -0.2486 -0.0960
83223W        W26239  19.787  34.668  22.251  0.2901 -0.0166  0.2680
83224W        W26240  34.142  25.772   1.367 -0.1256 -0.0969  0.0010
83225W        W26241  20.832  27.875  24.552 -0.3570 -0.0111  0.0762
83226W        W26242  19.967  11.380  16.503 -0.0526 -0.0131 -0.1605
83227W        W26243  33.385   9.468  24.059 -0.3384  0.0169 -0.3554
83228W        W26244  22.534   4.538  25.617 -0.4550 -0.2833  0.0833
83229W        W26245  28.798  18.882  15.468 -0.0675 -0.0683  0.0295
83230W        W26246  14.366  31.599  21.062 -0.2873  0.3175  0.0955
83231W        W26247  18.348   3.822  21.067 -0.0812 -0.0730  0.0956
83232W        W26248  14.594  24.406  17.674 -0.4828 -0.1611  0.0912
83233W        W26249   1.260  19.960  17.546  0.0969  0.1885  0.1402
83234W        W26250  31.847  31.575   0.354 -0.1853 -0.1211 -0.0194
83235W        W26251  13.364   5.057  22.269 -0.0864 -0.1363 -0.1704
83236W        W26252  15.046   4.922  14.661 -0.1449  0.3126 -0.0454
83237W        W26253  22.867  32.900  23.370  0.3409  0.1600  0.1817
83238W        W26254  18.137  24.453  22.701 -0.0698 -0.0786 -0.0288
83239W        W26255  15.010   0.026   0.985  0.0547 -0.0905 -0.0273
83240W        W26256  10.082  34.600  14.718 -0.2633 -0.1628  0.2196
83241W        W26257  18.981  27.724  16.348 -0.1900 -0.0478  0.2128
83242W        W26258   8.838   4.453  17.918  0.0266  0.0308  0.0724
83243W        W26259  23.048  31.949  18.931 -0.2027 -0.1742 -0.1907
83244W        W26260   8.116   0.705  14.930 -0.1022  0.0320 -0.0906
83245W        W26261  24.842   1.875  17.654 -0.0317 -0.1662 -0.2693
83246W        W26262   9.645  28.015  13.707  0.0824 -0.1580  0.2757
83247W        W26263  15.767  18.454  16.327 -0.0926 -0.0585 -0.1928
83248W        W26264   4.212   2.697  21.019  0.0966  0.0610  0.0177
83249W        W26265  27.180  17.567  20.553  0.1165  0.0821 -0.0760
83250W        W26266  26.195   6.691  23.065  0.0579 -0.3077 -0.1636
83251W        W26267   8.154  12.938  16.065 -0.0788  0.2574  0.0315
83252W        W26268  22.266  27.202  20.005  0.3748  0.3762 -0.1083
83253W        W26269  11.373  24.382  12.379  0.0371 -0.3655 -0.1033
83254W        W26270  10.998   7.479  24.357 -0.3599 -0.1525 -0.2092
83255W        W26271   0.498  34.514  23.600  0.1416 -0.2472 -0.0848
83256W        W26272   7.511   7.090  28.436  0.0184 -0.1173 -0.4478
83257W        W26273   9.359  34.706  25.281  0.1117  0.2578 -0.2052
83258W        W26274   7.831   2.376  18.224 -0.0476 -0.2572 -0.0133
83259W        W26275  19.606   4.636  18.889 -0.2952  0.2082 -0.1647
83260W        W26276  31.098  27.536  28.509  0.1865  0.0364 -0.2211
83261W        W26277  11.692  22.220  20.556 -0.0805 -0.0790 -0.1503
83262W        W26278  28.442   8.497  22.120 -0.2988  0.0725  0.0232
83263W        W26279   5.254   9.213   3.785 -0.1614  0.1961 -0.0538
83264W        W26280  18.455   1.824  28.627  0.1482 -0.1147  0.2537
83265W        W26281  20.174  25.649  20.467 -0.2050 -0.1072  0.1912
83266W        W26282   0.967   2.634  14.585 -0.1346  0.0035  0.0049
83267W        W26283  15.501  28.007  20.608  0.0557 -0.2885  0.1672
83268W        W26284  16.861  30.317  15.453  0.1800 -0.0096  0.0916
83269W        W26285   1.072   6.330  15.084  0.0944  0.1508 -0.0532
83270W        W26286  18.331  30.904  17.348 -0.1369  0.0295  0.3899
83271W        W26287   9.093  28.213  17.186 -0.0149  0.2254  0.1989
83272W        W26288  10.295   2.918   2.555  0.0138 -0.0928 -0.0121
83273W        W26289  21.104  24.422  22.453 -0.0694 -0.1148 -0.0029
83274W        W26290   7.735  27.969  20.833  0.1193 -0.1680  0.1853
83275W        W26291  29.131  31.150  19.373 -0.0635  0.0929  0.1383
83276W        W26292  17.176  17.490  16.545 -0.0053  0.0786  0.0535
83277W        W26293  16.730   0.016  17.707  0.1404 -0.2021  0.0704
83278W        W26294  29.803   4.640  16.699 -0.1683  0.0264  0.2513
83279W        W26295  27.874   1.989  22.257 -0.1914 -0.3633 -0.2324
83280W        W26296  28.396  31.932  16.421  0.0761 -0.2201  0.0038
83281W        W26297  12.690   0.054   0.233 -0.1862 -0.2009 -0.2226
83282W        W26298  20.555  22.251  25.266 -0.2748 -0.1403  0.1171
83283W        W26299   7.832   1.687  16.984 -0.1610 -0.4096  0.0406
83284W        W26300  18.086   0.813  24.881  0.0445 -0.1023  0.2217
83285W        W26301  17.770  33.505  21.148  0.1763  0.3185  0.0737
83286W        W26302  12.075   1.397  21.342 -0.1863 -0.0940 -0.0122
83287W        W26303  17.905  34.218  14.657 -0.1560 -0.3981  0.1792
83288W        W26304  19.442  32.754  18.224  0.1627 -0.1199  0.2052
83289W        W26305  22.609   4.613  26.097  0.0208 -0.0204  0.4338
83290W        W26306  16.236  29.473  27.417  0.0071 -0.0618 -0.0557
83291W        W26307  16.805  13.753  26.888  0.0210 -0.1023 -0.2391
83292W        W26308  20.375  34.099  22.832  0.2113 -0.0864 -0.1357
83293W        W26309  16.984  27.258  17.165  0.5430 -0.2249 -0.1361
83294W        W26310  15.251   0.612   2.344  0.2466  0.1136  0.0253
83295W        W26311  26.542  33.810  11.271  0.1790  0.0852 -0.0344
83296W        W26312  11.655  10.254  24.362  0.1120 -0.1710 -0.1801
83297W        W26313   1.589  10.142  27.595 -0.0236 -0.3505 -0.1209
83298W        W26314  24.046   5.718  25.655 -0.0748  0.3140  0.2394
83299W        W26315  25.992   5.157  23.809 -0.0093  0.3909 -0.2995
83300W        W26316  15.593   3.071  21.359  0.1234 -0.0965  0.1055
83301W        W26317  25.078   5.353  28.453 -0.0416 -0.0720  0.1415
83302W        W26318   5.103  21.294   1.627 -0.1213 -0.2352 -0.0571
83303W        W26319  19.187  33.794  16.206  0.2808 -0.0058 -0.3616
83304W        W26320  24.711  32.855   1.723 -0.0724 -0.0579 -0.0044
83305W        W26321   3.018   2.182  16.540 -0.1749 -0.0156 -0.2877
83306W        W26322   8.342  30.452  21.614 -0.1914 -0.1106  0.2778
83307W        W26323   0.178  16.475  15.839 -0.2787 -0.1533 -0.2037
83308W        W26324   4.205   2.547  16.920  0.1948  0.2013  0.1762
83309W        W26325  23.442   5.550  21.520 -0.0134  0.0091  0.0649
83310W        W26326  15.939  17.771  13.283  0.2701 -0.0462  0.2388
83311W        W26327   3.505   2.686  18.304  0.1288  0.0100  0.0879
83312W        W26328  20.231  27.494   0.304 -0.1359 -0.1352 -0.0394
83313W        W26329   1.319  11.483  24.426  0.2021 -0.0408 -0.0239
83314W        W26330  21.572   4.815   2.306 -0.2708  0.3377 -0.0392
83315W        W26331   2.702  22.989  22.422 -0.1547  0.0129  0.2561
83316W        W26332  19.293   9.432  23.529  0.0836  0.0827  0.0075
83317W        W26333  17.774  11.351   1.870  0.1839  0.0349  0.0364
83318W        W26334  10.443  32.779  19.442  0.0227 -0.0749 -0.1202
83319W        W26335  32.158   3.844  18.117  0.1308  0.3221  0.0830
83320W        W26336  13.830  20.472   7.755 -0.0933  0.1247  0.3188
83321W        W26337   1.380  10.898  20.036  0.2334  0.1716  0.1138
83322W        W26338  27.116  15.501   6.132 -0.0891 -0.2733 -0.1300
83323W        W26339  13.374  18.607  12.518  0.4223 -0.1696 -0.1197
83324W        W26340  12.703   0.936  25.483 -0.0838 -0.5990 -0.0589
83325W        W26341  12.675  23.577  29.001 -0.1786 -0.2206  0.1443
83326W        W26342   6.519   2.955  14.595 -0.2546 -0.0985  0.0527
83327W        W26343  10.687  11.996  18.640  0.1917 -0.2231 -0.1682
83328W        W26344  25.916  20.911  14.924  0.0513 -0.0088  0.0123
83329W        W26345  22.575  34.729  20.639  0.3379  0.0955  0.1027
83330W        W26346  13.521   9.638   3.536 -0.0037 -0.0948 -0.1838
83331W        W26347  18.267   7.566  25.845  0.1991  0.2369 -0.1271
83332W        W26348   0.112   9.161  25.460 -0.0978 -0.2470  0.0134
83333W        W26349  24.964  24.406  24.661 -0.1974 -0.1287 -0.2651
83334W        W26350  19.787   3.380  14.424 -0.0162  0.2217  0.1150
83335W        W26351  10.777  29.242  28.041 -0.0755 -0.0898 -0.2223
83336W        W26352  18.265  10.863  24.953  0.0815  0.0965 -0.3114
83337W        W26353  29.716   4.235  14.886  0.1384 -0.0696 -0.1003
83338W        W26354  16.222  29.417  20.261 -0.1329 -0.1208  0.1818
83339W        W26355  23.881   0.033  21.816 -0.2290 -0.1028 -0.0009
83340W        W26356  18.435  31.446   3.018  0.1524  0.0973 -0.2718
83341W        W26357  20.428  22.105  22.430  0.1128  0.0577  0.1436
83342W        W26358  20.219   6.313  16.808 -0.0634 -0.2254 -0.1244
83343W        W26359  24.768  33.611  18.377  0.0407  0.1947  0.0045
83344W        W26360  18.351   1.775  24.214  0.1490 -0.0659  0.0424
83345W        W26361  15.425  33.841  25.029 -0.3622 -0.0908 -0.2739
83346W        W26362  21.604   8.399  21.835 -0.1389 -0.3386 -0.2115
83347W        W26363  16.315  34.733  15.389  0.0334 -0.2932 -0.0427
83348W        W26364   1.726   6.409  15.835 -0.2039 -0.0725  0.0000
83349W        W26365  14.001  11.702  20.952  0.1462 -0.1253  0.0126
83350W        W26366  14.527  34.020   7.572 -0.3346  0.3656  0.2079
83351W        W26367  11.908  29.426   0.120 -0.1493  0.2351  0.3614
83352W        W26368  28.303  32.439  22.012  0.1893  0.1536 -0.2136
83353W        W26369  15.679  31.644  24.254 -0.1004 -0.0257 -0.0248
83354W        W26370  30.881  31.002  16.753  0.1697 -0.1428  0.0406
83355W        W26371  26.280  14.013  21.051 -0.0400 -0.0442  0.3746
83356W        W26372   6.337  26.785  16.152 -0.1496 -0.0897 -0.0697
83357W        W26373  15.426   4.040  23.125 -0.1087  0.0927 -0.2647
83358W        W26374  11.652   0.125  20.726 -0.1737 -0.1375  0.2396
83359W        W26375   8.334  12.365  15.727  0.3368 -0.0666 -0.0116
83360W        W26376  23.535   7.777  24.233  0.0250 -0.1215 -0.2048
83361W        W26377  25.064  33.781  22.046  0.0986  0.1620 -0.4041
83362W        W26378   4.099  24.538  25.323  0.0083 -0.1249  0.2838
83363W        W26379  32.683  26.819  23.307  0.1761  0.0118 -0.2445
83364W        W26380   4.668  13.616  15.287 -0.1257 -0.3458  0.3944
83365W        W26381   5.485  34.055  17.659 -0.2206 -0.2023  0.1949
83366W        W26382  14.042   5.235   8.406 -0.2207  0.1530 -0.4029
83367W        W26383  18.250   9.088  16.138  0.1614  0.0269 -0.0702
83368W        W26384  20.876   3.732  20.491 -0.4250  0.2485 -0.2255
83369W        W26385  18.358  14.054  21.366 -0.0034  0.2697  0.0791
83370W        W26386   8.613  27.421  21.177  0.0546  0.0050  0.1345
83371W        W26387   5.630   8.649  17.792 -0.0477 -0.1157  0.3531
83372W        W26388  17.033   8.611  25.413 -0.0683 -0.3509  0.0749
83373W        W26389   7.058   6.963  15.597  0.1863  0.1543 -0.0561
83374W        W26390  23.659  34.489  24.850  0.0045 -0.0520 -0.0403
83375W        W26391  16.827  18.552  15.848  0.3183 -0.6471  0.0372
83376W        W26392  25.608   5.858  23.230  0.0243  0.2102 -0.3678
83377W        W26393   2.390   3.257  27.536  0.0791  0.1612 -0.1751
83378W        W26394  10.722  31.294  15.796  0.2230  0.2423  0.2460
83379W        W26395  25.313  14.297  20.020 -0.1278  0.1716  0.0375
83380W        W26396  17.557   1.237   5.613 -0.0639 -0.1451  0.0999
83381W        W26397  34.183  30.475  23.769  0.1160 -0.1855  0.0907
83382W        W26398  27.586  33.693  26.253 -0.0937 -0.3475  0.0226
83383W        W26399  11.161   4.531  14.525 -0.2570 -0.0218  0.1495
83384W        W26400  32.083  18.657  20.677 -0.0714  0.2054 -0.2146
83385W        W26401  25.570   0.893  18.079 -0.3001  0.1070  0.0872
83386W        W26402  25.730   2.207  18.576 -0.2864 -0.0089  0.1626
83387W        W26403  24.592  33.022  28.471  0.0201 -0.1825 -0.1472
83388W        W26404  11.496  28.266   0.511  0.1256  0.1039  0.0197
83389W        W26405  18.149  28.204  28.024  0.0693  0.1664  0.0432
83390W        W26406  25.913  15.451   4.036 -0.0161  0.3287  0.3127
83391W        W26407  16.970  33.848   1.151  0.1308  0.0047 -0.2051
83392W        W26408  20.336   9.383   1.880 -0.1164  0.0393 -0.3981
83393W        W26409  11.670  16.385  28.017 -0.1153  0.2772 -0.1750
83394W        W26410  23.234   8.424  20.290  0.3033 -0.3830 -0.0912
83395W        W26411  19.356  28.717  27.780 -0.1687  0.0719 -0.0383
83396W        W26412  27.048  29.970  23.986 -0.6084 -0.2385  0.0774
83397W        W26413  17.227  31.315   2.114  0.0014 -0.1393  0.2572
83398W        W26414  24.374   4.030  27.100  0.1479  0.0120  0.0482
83399W        W26415  31.425  13.001  18.300 -0.3357  0.0771 -0.0951
83400W        W26416  33.748  23.173  16.271 -0.0565 -0.2513  0.0381
83401W        W26417  15.596  11.642   3.942  0.2198 -0.0758 -0.0839
83402W        W26418  16.279  32.460  15.461 -0.1225 -0.2016  0.1270
83403W        W26419  21.222  30.436  21.757  0.1136  0.1050 -0.1562
83404W        W26420  23.233   6.918  17.350 -0.0317  0.1550 -0.0439
83405W        W26421   3.341   6.685  20.057 -0.3649 -0.0755  0.0500
83406W        W26422  12.171   1.660   5.447  0.1126 -0.2167  0.0837
83407W        W26423  17.076  21.886  25.993  0.1860 -0.0220 -0.3079
83408W        W26424  14.538   2.643  14.878 -0.0372  0.1737 -0.1421
83409W        W26425   0.799   0.788  17.452  0.0038  0.0322 -0.0873
83410W        W26426   0.420  23.674   4.376  0.0327 -0.1338  0.1156
83411W        W26427  18.619  25.084   4.119  0.2424  0.2023  0.0054
83412W        W26428  14.729   8.578  20.346 -0.1272  0.1640  0.1359
83413W        W26429  15.444  27.712  15.223 -0.0611  0.5053 -0.0417
83414W        W26430   6.096  18.124  13.425 -0.0252 -0.1323  0.1292
83415W        W26431  14.180   5.749  23.849  0.0948 -0.1341 -0.0497
83416W        W26432   7.458  16.150  23.190 -0.1163 -0.0059  0.0623
83417W        W26433  23.769  29.861  15.219  0.1522 -0.1238  0.1056
83418W        W26434   8.163   8.438  27.764 -0.1705 -0.1987 -0.2523
83419W        W26435  19.438   6.044  19.574 -0.2145  0.2987  0.0108
83420W        W26436  17.754  31.409  29.273 -0.1538  0.1508  0.0621
83421W        W26437  13.873  26.367  15.762 -0.0012 -0.3415 -0.0060
83422W        W26438  21.259  26.079  15.851 -0.1303  0.1006 -0.0151
83423W        W26439  19.390  11.120  25.990 -0.3628 -0.0510  0.0040
83424W        W26440  11.315  34.663  22.560  0.4417 -0.1871  0.1527
83425W        W26441  22.634  20.811  14.129 -0.0178 -0.1043 -0.0127
83426W        W26442   7.029  29.493  27.828  0.0612  0.0918 -0.0784
83427W        W26443  28.413   9.786  24.454 -0.3641  0.0450 -0.1335
83428W        W26444  15.457  30.637   7.907 -0.1342  0.2607 -0.1040
83429W        W26445  16.782  12.190  15.094 -0.0173 -0.1414  0.0348
83430W        W26446  18.726  30.645  21.830 -0.0508 -0.2388  0.5597
83431W        W26447   8.790  31.483  23.516 -0.1372 -0.0725  0.5456
83432W        W26448   7.376   4.720  21.107 -0.2507  0.0104 -0.0494
83433W        W26449  13.360   1.169  22.062  0.2051  0.2026 -0.4854
83434W        W26450  23.313  31.282   1.121  0.1425  0.0896  0.1523
83435W        W26451  23.136   5.653  22.569 -0.0273 -0.0701 -0.1234
83436W        W26452  25.461  13.915  26.280 -0.1245  0.3009 -0.1140
83437W        W26453  11.631  31.806  15.708  0.1346  0.4115  0.2382
83438W        W26454  10.107   8.570  17.612  0.0832 -0.2282  0.0226
83439W        W26455  17.982   4.938  21.890 -0.2697 -0.0402  0.1711
83440W        W26456   5.309  23.729  10.193 -0.0972 -0.0766  0.0703
83441W        W26457  16.959  23.157   6.548 -0.2045 -0.0773 -0.0830
83442W        W26458   3.817   4.233   9.082  0.1896 -0.2398 -0.0172
83443W        W26459  25.939  22.799   2.398 -0.0718 -0.1213  0.0743
83444W        W26460  28.009  11.094  21.416  0.3564 -0.1291  0.1858
83445W        W26461   4.881  21.839  12.946 -0.1222  0.1100 -0.0428
83446W        W26462  10.989  19.987  18.099 -0.2525 -0.0581 -0.0799
83447W        W26463  22.361  27.388   7.725 -0.0477  0.1478  0.3268
83448W        W26464  28.370   5.396  19.825 -0.2598  0.1023 -0.4047
83449W        W26465  13.318   6.443   0.513 -0.0613 -0.0984  0.1237
83450W        W26466  13.428  32.070  17.016  0.0599  0.3060  0.0805
83451W        W26467  17.043  33.738  25.923 -0.0762 -0.2119  0.4179
83452W        W26468  17.428   0.588  20.339 -0.2592  0.0494 -0.2147
83453W        W26469  30.505  33.079  28.270  0.0775 -0.0916  0.1342
83454W        W26470  28.039  12.680  14.355  0.0006  0.0573 -0.0351
83455W        W26471   0.028  33.431   1.692  0.1002 -0.2589 -0.1534
83456W        W26472   5.916  32.338  23.074 -0.1537 -0.5920 -0.1358
83457W        W26473  23.707  18.771  28.358  0.0705  0.1873 -0.0562
83458W        W26474  23.590  26.540   3.598  0.1310 -0.3756 -0.1190
83459W        W26475   9.521  30.082  25.794 -0.2340  0.1089 -0.1882
83460W        W26476   2.156   2.921  28.848  0.1402  0.0037  0.2800
83461W        W26477  16.907  25.374  19.434 -0.1221  0.1294  0.2625
83462W        W26478  27.078   2.404   8.807 -0.0384 -0.4702 -0.0023
83463W        W26479  27.275  22.592  17.405  0.1580 -0.2390 -0.1208
83464W        W26480  17.429   1.460  23.882  0.1060 -0.1075 -0.1125
83465W        W26481   2.719  21.963  26.880  0.0280  0.1123  0.0730
83466W        W26482  10.564  24.415  21.674 -0.1150  0.1609 -0.1063
83467W        W26483  32.344  28.575  10.521 -0.1289  0.0074  0.0732
83468W        W26484  11.594  12.039  20.113 -0.4753 -0.0462 -0.1848
83469W        W26485  27.373   1.135  18.296 -0.2305 -0.1745  0.1512
83470W        W26486  21.918   5.257   3.014 -0.0783  0.0087  0.1711
83471W        W26487  18.876   9.705  20.547 -0.1155 -0.1851  0.1173
83472W        W26488  28.520  33.220  25.951  0.1558  0.1054  0.3306
83473W        W26489  16.796  29.633  28.736  0.0576 -0.1646 -0.3236
83474W        W26490  14.147   7.176  26.551  0.1113 -0.2777 -0.0061
83475W        W26491  20.617  33.161   0.002 -0.1501  0.1718 -0.2107
83476W        W26492  19.965  25.853  13.871 -0.1620 -0.0036  0.0148
83477W        W26493  27.891  15.231  16.077 -0.3913  0.1740 -0.0890
83478W        W26494   4.963  32.133  21.611 -0.1050 -0.0620 -0.1379
83479W        W26495  22.613  31.966  27.591 -0.1557 -0.0773  0.1244
83480W        W26496  32.147  24.637  14.891  0.2455 -0.6051 -0.3131
83481W        W26497  11.884  33.330  17.060 -0.0659  0.2352  0.0475
83482W        W26498  15.902  13.109  14.038  0.2038 -0.1096 -0.0114
83483W        W26499  20.573  33.847  18.601  0.1167 -0.0263 -0.1304
83484W        W26500  30.019   5.301  20.873 -0.1878  0.1057  0.2922
83485W        W26501  12.487  27.412   6.118  0.1601  0.4125 -0.3469
83486W        W26502  11.817   8.554  20.242  0.2472  0.0351  0.1010
83487W        W26503  15.074  13.369  28.144 -0.1825  0.2332  0.0097
83488W        W26504  19.814   0.382  14.652  0.2114  0.1970  0.2958
83489W        W26505  18.004  32.400  21.370 -0.0958 -0.0456 -0.1519
83490W        W26506  13.274  23.097  28.200 -0.2097 -0.1882 -0.0525
83491W        W26507  23.558   3.968   2.945  0.0726  0.1753 -0.2047
83492W        W26508   8.615  23.975   1.520  0.0424 -0.1699 -0.0371
83493W        W26509  28.647  14.933  22.897 -0.2057 -0.0761 -0.0536
83494W        W26510   9.165   1.149  22.479 -0.2108 -0.0640  0.1196
83495W        W26511  16.052   8.783  14.148  0.1787 -0.0831 -0.2670
83496W        W26512   8.807   4.199   4.416 -0.0157 -0.1901  0.0719
83497W        W26513  15.731  16.846  11.947  0.0006  0.0586 -0.1559
83498W        W26514  25.804  11.389   3.691  0.0621 -0.0594  0.0550
83499W        W26515  19.957   4.765  13.450 -0.0319 -0.0845 -0.0099
83500W        W26516  17.582   5.922  16.520 -0.0702  0.3585 -0.3503
83501W        W26517  12.962  30.709   6.586 -0.1253  0.3449  0.2495
83502W        W26518  22.348   6.076  15.899 -0.0258  0.1429  0.1181
83503W        W26519  15.360  28.014  17.462 -0.2682 -0.1512  0.0145
83504W        W26520  14.314  23.798   7.256 -0.1006  0.0695 -0.0503
83505W        W26521  31.189   3.785   2.465  0.1973  0.2401  0.1368
83506W        W26522  34.556   5.368  24.252  0.1043 -0.2525 -0.0967
83507W        W26523  23.428  32.805  14.874 -0.0405 -0.2483  0.2461
83508W        W26524   5.696  24.716  19.131  0.0420 -0.0823  0.0131
83509W        W26525  21.589   3.598  14.539  0.0357  0.3188  0.3665
83510W        W26526   3.090  26.117  28.003  0.3122 -0.0935 -0.2733
83511W        W26527  16.695  30.316  14.305  0.2904  0.2430 -0.1337
83512W        W26528  11.631  28.455  14.891  0.0267  0.0511 -0.0802
83513W        W26529  21.599   1.439  20.887  0.0018  0.1113 -0.0971
83514W        W26530  27.604  25.811  11.045  0.0949  0.0463  0.4472
83515W        W26531   8.843   1.116  23.521  0.1856  0.2387 -0.2035
83516W        W26532   8.467  27.060  15.897  0.2489  0.1909 -0.3522
83517W        W26533  12.684  27.569  29.305 -0.2510 -0.1873 -0.0706
83518W        W26534  17.814  33.224  16.651  0.3019 -0.0367 -0.0516
83519W        W26535  32.284   8.036  13.870 -0.1063  0.1501 -0.0372
83520W        W26536  24.410   2.729  18.008 -0.2321 -0.0626  0.0996
83521W        W26537  20.655  14.916  25.738  0.1918  0.1053  0.3122
83522W        W26538   9.309  32.645   9.726 -0.1824  0.0530  0.0969
83523W        W26539  25.420  33.169  25.904  0.1738 -0.0121 -0.3186
83524W        W26540  28.176  26.186  16.887  0.0617  0.4372 -0.0575
83525W        W26541  13.757  34.676  22.764  0.1860 -0.2464  0.0979
83526W        W26542  22.355   1.017  24.951  0.0772 -0.3971  0.0582
83527W        W26543  12.506   9.839  15.714 -0.1888 -0.0534 -0.1423
83528W        W26544  24.796  10.957  14.350 -0.0441 -0.3741 -0.1962
83529W        W26545  11.904  12.572  13.902  0.0834 -0.0977 -0.0201
83530W        W26546   3.524   5.528  27.942 -0.0453  0.3353 -0.1273
83531W        W26547   0.933   6.107  17.544  0.3019  0.0596 -0.2381
83532W        W26548  16.693  28.910   4.154 -0.1805 -0.3944  0.1340
83533W        W26549  22.528  10.614  16.555  0.4595 -0.1494 -0.1354
83534W        W26550  21.609  32.598  15.754  0.0386  0.3845  0.2641
83535W        W26551  20.429  19.823  15.948  0.1700 -0.1207  0.1285
83536W        W26552  13.612  10.795  27.450  0.0267  0.1502 -0.0519
83537W        W26553  20.965  21.003  20.741 -0.1894 -0.0588  0.1830
83538W        W26554   0.787  16.493  21.945 -0.2840  0.0675  0.1642
83539W        W26555  11.262  31.648  22.820  0.2046 -0.2531  0.1611
83540W        W26556   6.758  28.158  13.901 -0.2006  0.0829  0.2744
83541W        W26557  26.948   7.283  15.934 -0.1922 -0.0647  0.3110
83542W        W26558  27.610   3.071   1.745  0.1199  0.3389 -0.3365
83543W        W26559  24.825  33.182  22.807  0.0050 -0.1114  0.2190
83544W        W26560  32.050   5.783  15.508  0.1423  0.1216 -0.0094
83545W        W26561  21.129   3.769  14.226  0.1593  0.1671  0.2260
83546W        W26562  21.356  31.687   5.507 -0.0962  0.0316 -0.1425
83547W        W26563  12.897   3.298  22.629 -0.0993 -0.0891 -0.1969
83548W        W26564   7.360   1.677  19.566 -0.0036  0.2756  0.1342
83549W        W26565  33.051  24.599  17.723  0.1176 -0.1683  0.1978
83550W        W26566  34.177  33.159   5.422  0.1362  0.1367 -0.1442
83551W        W26567  23.348  13.545  18.042  0.0844 -0.0572  0.1369
83552W        W26568  29.427   7.271  27.059  0.2377 -0.2003 -0.0763
83553W        W26569  32.492  11.384  18.630 -0.0148 -0.1229  0.3269
83554W        W26570  23.252   2.775  24.310 -0.4441  0.0655  0.1152
83555W        W26571   8.466   4.019   6.319  0.1736  0.1044 -0.2851
83556W        W26572  32.038  14.939  28.018 -0.0576 -0.0456  0.1493
83557W        W26573   1.623  24.970  25.788 -0.0864  0.2628  0.2943
83558W        W26574  15.926   1.268  24.054  0.0261 -0.2215  0.2486
83559W        W26575  32.344   4.987   9.390  0.1634 -0.2607 -0.2339
83560W        W26576  33.806  32.636  21.190  0.3559 -0.2590 -0.0833
83561W        W26577  10.357  31.055   5.100  0.2034 -0.1922 -0.4443
83562W        W26578  19.384   7.220   0.855  0.1851 -0.1692  0.0686
83563W        W26579  11.039  21.478  17.651  0.2545 -0.4004 -0.1235
83564W        W26580  23.506  15.925  14.019 -0.1304  0.3141  0.0258
83565W        W26581  29.356  27.276   2.298 -0.1663  0.0616  0.1198
83566W        W26582   3.470  27.434   3.638 -0.0751  0.1576 -0.0002
83567W        W26583   8.423  26.309  14.452 -0.3200  0.1237 -0.1797
83568W        W26584  26.462   5.942   4.779  0.1824 -0.0123  0.1124
83569W        W26585  23.675   3.185  19.927  0.1526  0.0811  0.0802
83570W        W26586  29.055  27.666  17.040 -0.0243  0.0873  0.0292
83571W        W26587   3.736   1.481   8.990 -0.0525 -0.0196 -0.0653
83572W        W26588  15.863  25.367  16.860  0.0300 -0.2884 -0.3604
83573W        W26589  12.957   0.655  19.554 -0.0209 -0.3505 -0.0893
83574W        W26590  32.117   6.055  24.886 -0.0798  0.4299  0.0915
83575W        W26591   9.480  13.462  13.243 -0.0485 -0.0287 -0.1039
83576W        W26592  13.359  28.852  20.306  0.0433 -0.2224  0.0354
83577W        W26593  30.554  26.917  16.208 -0.0095  0.2201 -0.0680
83578W        W26594  26.063   5.433  17.899 -0.1237 -0.0334 -0.0277
83579W        W26595  21.244  27.650  24.444  0.1709  0.0392 -0.2409
83580W        W26596  24.271   8.939  18.350  0.2051 -0.1719 -0.1193
83581W        W26597  17.187   5.126  14.709 -0.1813 -0.1392 -0.1836
83582W        W26598  11.370  28.280  16.321  0.0904  0.0644  0.1569
83583W        W26599  24.389  10.766  21.016 -0.0917  0.1223 -0.1750
83584W        W26600  26.348   3.690   5.758 -0.0419  0.0702  0.0682
83585W        W26601  16.657  29.447  21.475  0.1158 -0.1585 -0.2900
83586W        W26602  24.389  25.936  23.376 -0.1525 -0.0632  0.0089
83587W        W26603  16.839  28.372   1.975  0.3255 -0.3979 -0.0231
83588W        W26604  19.176  27.325  14.420  0.1523  0.0966  0.0077
83589W        W26605  24.271   5.100  22.067 -0.1146  0.1733 -0.1170
83590W        W26606  29.485   7.931  19.612  0.3035 -0.1501  0.0555
83591W        W26607  27.302  33.740  21.480 -0.1436  0.2750  0.1007
83592W        W26608  20.270   8.659  16.065 -0.1670 -0.0325 -0.1220
83593W        W26609  11.987   6.596   6.072  0.0394 -0.3600 -0.2443
83594W        W26610  28.743   2.676   4.780 -0.0616 -0.0253 -0.2162
83595W        W26611  19.773  31.658  17.804  0.2028 -0.0360  0.2611
83596W        W26612  12.643   9.566  13.331 -0.0266  0.3454  0.3570
83597W        W26613  17.004  33.810  21.884 -0.1139  0.0559  0.1309
83598W        W26614  19.280   4.514  14.038  0.2944 -0.1710  0.1673
83599W        W26615  11.941   1.995  15.461 -0.1897 -0.2386 -0.1889
83600W        W26616   0.262  24.320  27.882  0.1152 -0.2258  0.0154
83601W        W26617   8.197  25.479  16.998  0.2167  0.0566  0.4541
83602W        W26618   7.145   9.277  27.212  0.1830 -0.0078 -0.2501
83603W        W26619   5.327  23.601   1.072 -0.5418 -0.0635 -0.0565
83604W        W26620  12.392  32.205  26.478 -0.2775  0.2357  0.2593
83605W        W26621   2.912  31.490  23.010 -0.0131 -0.0970  0.2748
83606W        W26622  23.782  28.265  19.830 -0.1494  0.0175  0.3889
83607W        W26623  22.068   7.961  18.801 -0.3124 -0.1236 -0.1633
83608W        W26624  22.757  10.495  28.688 -0.2474  0.1801 -0.2165
83609W        W26625  11.839   0.083  18.798 -0.2799  0.1116  0.2006
83610W        W26626  15.844   2.004   8.963 -0.0422 -0.1117 -0.1190
83611W        W26627  23.681  24.225  24.873 -0.0262 -0.1005  0.2692
83612W        W26628   0.700   3.408  16.195  0.0738 -0.2453  0.0205
83613W        W26629  28.902  28.391   9.228  0.2705  0.3737 -0.1839
83614W        W26630  33.432  19.356  26.324 -0.0451  0.1327  0.0511
83615W        W26631   3.845  31.475  17.104 -0.0042 -0.0844  0.1560
83616W        W26632  15.730  10.238   7.125  0.0657 -0.1309 -0.1402
83617W        W26633  14.747  31.971  23.777 -0.0362  0.0029  0.3093
83618W        W26634  31.120   1.766   8.521  0.0968  0.1175  0.0630
83619W        W26635  21.231   1.709  17.759  0.1113  0.1923 -0.0426
83620W        W26636  12.763  15.640   7.495 -0.0702 -0.0426  0.0554
83621W        W26637  20.305  30.660  18.415 -0.0425  0.0295 -0.1556
83622W        W26638  22.607  30.447  17.811 -0.1007  0.0478  0.0239
83623W        W26639   4.695  11.364  19.995  0.1709  0.0297 -0.0195
83624W        W26640  23.919  10.150  25.335 -0.1931  0.2175 -0.1008
83625W        W26641  13.464  23.370  25.975 -0.0271  0.2831 -0.1806
83626W        W26642  27.917   0.141  11.066 -0.0302  0.0561 -0.0039
83627W        W26643  18.766  12.517  25.781  0.0272 -0.1179 -0.0506
83628W        W26644  27.725  11.353  21.030  0.1995 -0.1042 -0.1435
83629W        W26645  32.394  34.366  27.764  0.1436  0.3301 -0.1203
83630W        W26646  10.603  15.381  16.314  0.2166 -0.3387 -0.1301
83631W        W26647  17.757  28.724   7.802  0.3134 -0.2938 -0.0881
83632W        W26648  14.531   1.113  28.171  0.3203  0.3452 -0.1534
83633W        W26649  17.303   5.131  24.744 -0.1481 -0.1320  0.2635
83634W        W26650   0.099   1.020  16.719  0.0939 -0.1225  0.0261
83635W        W26651  10.500   1.981   9.053  0.0036  0.2863 -0.0984
83636W        W26652  17.923  33.499  24.547 -0.1536  0.0941 -0.1177
83637W        W26653  11.476  30.495  14.740  0.0341  0.1156 -0.0349
83638W        W26654  20.740  31.536  29.316 -0.0240  0.1418 -0.0395
83639W        W26655  23.623  28.260  27.639 -0.1357  0.1681  0.0306
83640W        W26656  23.985   3.648  16.719 -0.1762  0.1999 -0.1601
83641W        W26657  32.217  32.023   9.245  0.1716 -0.0694 -0.1292
83642W        W26658  33.174   9.104  21.815  0.1419 -0.1045  0.2212
83643W        W26659  17.652   0.022  20.388  0.2201  0.0827 -0.0072
83644W        W26660  30.645  12.518  18.687 -0.0983  0.2515  0.0448
83645W        W26661  32.454   0.825  27.081 -0.2617 -0.0322  0.0402
83646W        W26662  24.228   6.473  24.559 -0.1031 -0.2814  0.1310
83647W        W26663  23.507   1.659   8.203 -0.0220  0.0821 -0.3299
83648W        W26664  25.178  14.755  14.244 -0.0487  0.0955  0.2914
83649W        W26665  31.955   6.107  28.916  0.0374 -0.3883 -0.0479
83650W        W26666  22.803   5.298   1.047 -0.1777 -0.1217  0.0993
83651W        W26667  19.348   6.011  14.902 -0.0030 -0.1525  0.0939
83652W        W26668  22.656  10.317  26.181 -0.0303 -0.1257  0.2630
83653W        W26669  21.081   8.728   1.435 -0.0548 -0.2578  0.0860
83654W        W26670  14.239  31.569   1.569  0.1097 -0.0011  0.1263
83655W        W26671  23.993  30.758  25.589  0.1255  0.1066  0.1334
83656W        W26672  12.759  26.492  21.208 -0.3079  0.1340  0.0067
83657W        W26673  18.332  26.013  26.520  0.4132 -0.0926 -0.1154
83658W        W26674  15.558  12.772  23.631 -0.3193  0.3572  0.1371
83659W        W26675  16.973   1.816  10.396  0.0327 -0.2085 -0.1945
83660W        W26676  12.766  33.223  24.478 -0.1440  0.0083  0.3835
83661W        W26677  23.889  11.191  23.762  0.1070 -0.1245 -0.0825
83662W        W26678  20.252  31.347  23.937  0.0886  0.1018  0.0092
83663W        W26679  18.019  21.227  23.761 -0.2901  0.1603 -0.0967
83664W        W26680  19.443  32.674  16.903  0.1054 -0.1425  0.1869
83665W        W26681   9.992   0.601  28.052  0.0716 -0.0755 -0.1406
83666W        W26682  26.125   5.709  22.064  0.0741  0.2623  0.1211
83667W        W26683  25.722   2.284  26.569  0.1504 -0.4685 -0.1931
83668W        W26684  20.677   8.550  21.765 -0.0836  0.0092 -0.0298
83669W        W26685   6.240  33.111   4.298  0.3667  0.1021 -0.1232
83670W        W26686  34.314   3.208  16.986 -0.2819  0.0286 -0.0033
83671W        W26687  22.884  11.024  16.661  0.1011 -0.2977  0.2872
83672W        W26688  16.763  19.153  25.775  0.0187  0.1793  0.1036
83673W        W26689   4.597  12.758  26.782 -0.0732 -0.0374 -0.1171
83674W        W26690  23.870   0.668  25.226  0.1859 -0.1472  0.4491
83675W        W26691   4.434  16.355  24.805  0.1099 -0.0669  0.2830
83676W        W26692  18.080   7.183  21.442  0.1041 -0.2685 -0.2650
83677W        W26693  19.472  14.747  14.577 -0.1752 -0.2494 -0.1198
83678W        W26694  31.918  29.110  15.290  0.0414 -0.1485  0.1875
83679W        W26695  24.265  17.321  18.289  0.0461 -0.1961 -0.1327
83680W        W26696  17.592   7.359  17.734 -0.1399 -0.2390  0.4604
83681W        W26697   3.863  24.405   7.811 -0.0305 -0.0219  0.0563
83682W        W26698  16.172   1.976   7.152  0.1516  0.0900  0.0429
83683W        W26699  33.254  21.192  21.407 -0.0795  0.0775  0.0430
83684W        W26700  22.062   4.263  23.777 -0.1392  0.0050  0.3790
83685W        W26701  23.417   7.910  20.196  0.1009 -0.0970 -0.0137
83686W        W26702  20.155  29.692  17.105 -0.0630 -0.1814  0.0822
83687W        W26703  17.145  18.599  14.867  0.1158  0.1075 -0.0882
83688W        W26704  24.200   7.044  18.254  0.1083 -0.0457  0.3187
83689W        W26705  12.538  28.025  22.879  0.0225  0.0651 -0.3100
83690W        W26706  12.576  28.420  17.684  0.0906  0.0892  0.0158
83691W        W26707  26.465  22.064  20.345 -0.2304  0.2007  0.2014
83692W        W26708  19.681  13.373  12.449  0.0526 -0.2870  0.2735
83693W        W26709  25.154  11.520   1.935  0.0245 -0.1519 -0.3849
83694W        W26710   2.114  14.485  17.652 -0.2470 -0.0722  0.0795
83695W        W26711  12.128  30.709  18.384 -0.1458 -0.0966 -0.1671
83696W        W26712   8.989   2.796  25.698  0.1199 -0.0833  0.0822
83697W        W26713  18.276  16.636   1.303 -0.2766 -0.0718 -0.0175
83698W        W26714  32.779   2.945   3.245  0.1493  0.0406 -0.0456
83699W        W26715  17.979  29.865   4.091  0.2523  0.3369  0.3118
83700W        W26716  14.568  34.396  15.556  0.2247  0.1209  0.1105
83701W        W26717   4.522  25.695  28.317 -0.2691 -0.1596 -0.0618
83702W        W26718  31.575   9.872  20.679 -0.3384  0.1304 -0.1002
83703W        W26719  25.542  33.181  18.049 -0.3517  0.0770  0.0294
83704W        W26720  23.534  17.548   3.799 -0.2245  0.5045  0.3817
83705W        W26721  32.109   2.887  18.231  0.1671  0.3690 -0.1612
83706W        W26722  17.200   1.895  20.967 -0.0171 -0.2391  0.2328
83707W        W26723  26.717  31.802   3.122  0.0850 -0.2183  0.1033
83708W        W26724   8.495   5.485  17.362  0.1009  0.1449  0.1139
83709W        W26725  12.403  13.219  17.237 -0.0897 -0.4028 -0.2470
83710W        W26726  23.542  25.041  20.803  0.0908  0.1046  0.1295
83711W        W26727   2.905  32.842  26.654  0.0279  0.3155  0.0252
83712W        W26728  18.937  29.557  23.732  0.1230 -0.2597 -0.0035
83713W        W26729  31.578  25.532  25.023 -0.4045  0.2503 -0.0322
83714W        W26730  10.696   4.842   3.719  0.1657  0.1287  0.3058
83715W        W26731  29.199  28.741  19.849  0.1961 -0.0725  0.0568
83716W        W26732  26.760   5.301  22.614  0.2973  0.3982  0.2887
83717W        W26733  34.220  19.607  21.314  0.3473  0.0192 -0.1909
83718W        W26734  17.225  27.536   2.386  0.0603  0.4946 -0.3914
83719W        W26735  11.186  31.363  16.667 -0.0334  0.1067  0.0722
83720W        W26736  28.320  32.342  28.222  0.2631  0.0172 -0.1284
83721W        W26737  23.910  19.931   6.275  0.0821 -0.0215  0.1878
83722W        W26738  19.916  28.209  15.866  0.1898 -0.2194 -0.0258
83723W        W26739   6.683  33.290   3.457  0.1683  0.2121 -0.0637
83724W        W26740  23.601  32.155  28.946 -0.0443  0.3326 -0.0475
83725W        W26741   0.378  26.054  26.145 -0.2100  0.2386 -0.0977
83726W        W26742  22.881   6.511  20.588 -0.0296 -0.1539  0.2620
83727W        W26743  18.916  32.398  22.699 -0.4573 -0.1220 -0.0391
83728W        W26744   2.025   0.612   0.707 -0.1381  0.2288 -0.0532
83729W        W26745  24.191   2.681   0.735 -0.1547 -0.2647 -0.2450
83730W        W26746  20.776  28.869  24.904 -0.0184  0.0951 -0.0690
83731W        W26747  17.026   8.172  19.193  0.2666  0.1837  0.0318
83732W        W26748   8.832  34.292  23.145  0.0763 -0.0273  0.0145
83733W        W26749  22.117  28.562  20.075 -0.3412  0.0460  0.2253
83734W        W26750  18.056   1.374  24.449  0.0425 -0.0000  0.1215
83735W        W26751  20.667   4.432  14.378  0.2147 -0.0214 -0.0391
83736W        W26752   6.823  23.598  24.368 -0.3259 -0.0712  0.0521
83737W        W26753  21.767  14.603   8.412 -0.4053 -0.0358 -0.3171
83738W        W26754  27.587   5.714  18.572 -0.0900  0.1568 -0.0616
83739W        W26755  25.674  13.220  21.296 -0.3161  0.1483 -0.2773
83740W        W26756  21.074   6.832  26.506 -0.4083 -0.2574 -0.0974
83741W        W26757  11.685  29.571  19.726 -0.0436 -0.2672 -0.0572
83742W        W26758  21.517  22.640   2.850  0.0410  0.1410  0.0713
83743W        W26759   7.758  10.129   4.896 -0.1752  0.0705 -0.1946
83744W        W26760   3.954   8.497  23.525  0.5525 -0.0314 -0.2208
83745W        W26761  30.824  19.578   1.499 -0.0865 -0.0957  0.0585
83746W        W26762  33.190  30.233  29.040 -0.4380 -0.4650 -0.0249
83747W        W26763  11.174   5.680  29.032 -0.0334  0.3432  0.2298
83748W        W26764  20.174   8.866   9.136  0.1357  0.1066 -0.1079
83749W        W26765  18.383   4.151  22.381 -0.0595 -0.1461 -0.0618
83750W        W26766  11.241  31.514  15.846  0.0519  0.0435  0.0878
83751W        W26767  16.865  32.000  18.492 -0.1054 -0.2507  0.1416
83752W        W26768  25.103  18.255  22.974  0.1411 -0.0680 -0.1861
83753W        W26769  16.619   9.950   3.128  0.0666 -0.0387 -0.1419
83754W        W26770  24.837  28.148   9.706 -0.0471  0.1642 -0.0177
83755W        W26771   7.395   3.592  15.392 -0.2520 -0.0369 -0.1185
83756W        W26772   7.549  24.746  24.320 -0.0456  0.0363  0.0027
83757W        W26773   4.110  10.226  26.678  0.0872  0.1024 -0.1824
83758W        W26774  25.217  29.265  24.229  0.0110 -0.1449 -0.2614
83759W        W26775  20.041   5.708   2.397 -0.1036  0.1464 -0.0740
83760W        W26776  20.759  33.829  20.425  0.3426  0.0174  0.0321
83761W        W26777   5.876  24.449  28.945 -0.0640  0.1933 -0.1465
83762W        W26778   2.639   9.124   0.646  0.6131 -0.0934 -0.0260
83763W        W26779  16.739   9.732  14.150 -0.2616  0.2109  0.0211
83764W        W26780  19.712  21.736  25.155 -0.1135 -0.2845 -0.0074
83765W        W26781  23.944  32.806  15.916 -0.0552  0.0769  0.0502
83766W        W26782  34.408  28.881  19.965  0.0121  0.0146  0.2104
83767W        W26783  19.190  33.863  25.625  0.1767  0.1485 -0.2252
83768W        W26784  17.250   1.970   5.622  0.1623 -0.0249  0.2354
83769W        W26785  10.758   1.731  20.649 -0.3255  0.0538  0.0465
83770W        W26786  16.907  24.910   1.319 -0.1585 -0.3125  0.1833
83771W        W26787  12.651   6.379  16.699 -0.1004 -0.2766 -0.2351
83772W        W26788  24.030  32.188  19.867  0.4175 -0.1814 -0.1628
83773W        W26789  18.292   1.739   4.577 -0.0002 -0.2045  0.0109
83774W        W26790  25.008  16.998   3.140  0.1918 -0.1661  0.1727
83775W        W26791   6.090  25.234  25.924  0.0284  0.1070  0.3029
83776W        W26792  21.187   3.998   2.582 -0.0281  0.1806 -0.2281
83777W        W26793   5.255  14.023  23.751  0.3507  0.3367 -0.3116
83778W        W26794  19.117  11.365  23.938  0.0541  0.1636 -0.2465
83779W        W26795  11.315  20.398  15.835  0.2535  0.1254  0.1074
83780W        W26796  28.709  16.195   8.771  0.2063 -0.1006  0.0143
83781W        W26797  31.652  19.050  20.973  0.0785 -0.2012 -0.1461
83782W        W26798  11.596  25.416  18.713  0.2088  0.0687  0.0302
83783W        W26799  14.555  34.376  17.160  0.0243 -0.0606 -0.3678
83784W        W26800  27.304   4.923   9.397  0.2364  0.0801  0.0725
83785W        W26801  13.252   1.566  29.143  0.2144  0.1110  0.2658
83786W        W26802  17.353  30.974   8.813  0.3057 -0.0116  0.0949
83787W        W26803  18.053  11.773  17.161 -0.2487 -0.2468 -0.2841
83788W        W26804  30.958  34.774  27.148  0.1816 -0.1801 -0.3263
83789W        W26805  11.017   2.376  21.832  0.0709 -0.1808 -0.0030
83790W        W26806  16.164  33.277   2.173 -0.0516 -0.2568  0.1245
83791W        W26807  20.970  22.864  21.465 -0.0048 -0.3918 -0.0178
83792W        W26808  33.834   6.521  16.440 -0.3866  0.2798  0.0368
83793W        W26809  21.787   3.206  17.360  0.1292 -0.0325  0.0197
83794W        W26810  22.010  30.524   6.495 -0.3313  0.1192 -0.2585
83795W        W26811  14.934  34.222  23.407  0.0001 -0.0328  0.5686
83796W        W26812  15.097  11.461   7.052  0.0572  0.1733 -0.1496
83797W        W26813  15.242  20.585  13.507 -0.1718 -0.2803 -0.0586
83798W        W26814  23.528  33.840  29.011 -0.0677  0.2494  0.2847
83799W        W26815  32.299   0.270   1.165 -0.1124 -0.1060  0.0860
83800W        W26816   6.436  11.725  22.824 -0.1403 -0.1174 -0.0772
83801W        W26817  12.971   0.275  18.085  0.0223 -0.0601 -0.1163
83802W        W26818   5.663  28.904  22.681  0.2088 -0.1466 -0.0789
83803W        W26819  25.779  14.726  13.369 -0.0596 -0.0673  0.0846
83804W        W26820   9.792  27.672  18.456  0.2858  0.3032  0.0966
83805W        W26821  31.839  13.705  24.283 -0.0641  0.0292 -0.1470
83806W        W26822  23.748   0.619   7.119  0.1676 -0.2057 -0.1741
83807W        W26823  21.796  16.185  28.327  0.0067 -0.0421 -0.0676
83808W        W26824  19.582  31.750  18.676 -0.0214 -0.1298  0.1137
83809W        W26825  27.016  25.100   6.866  0.2284  0.0661 -0.0126
83810W        W26826  12.029  34.281  25.426  0.1521  0.1787 -0.1479
83811W        W26827  17.191  24.255  18.560  0.0109 -0.1973 -0.0660
83812W        W26828   6.791  20.112  19.374 -0.0621  0.1909  0.1690
83813W        W26829  23.191   2.382  16.878  0.1193 -0.2077 -0.1236
83814W        W26830   4.515  25.737  26.202 -0.0223  0.1081  0.1438
83815W        W26831  19.787  13.078   1.462  0.3518  0.0954 -0.0880
83816W        W26832  29.784  21.547  22.617  0.0017 -0.0182  0.0300
83817W        W26833  10.900  31.142  19.709 -0.1174 -0.1433  0.0790
83818W        W26834  17.712  10.007  13.904  0.1428  0.2979 -0.0051
83819W        W26835  24.068   4.101  19.945 -0.0165 -0.1594 -0.0798
83820W        W26836  25.971  29.141  23.261  0.0203  0.2508 -0.1481
83821W        W26837  15.563  33.563  18.387 -0.0050  0.1966  0.0726
83822W        W26838  25.709  13.250  15.397  0.0328 -0.0880 -0.0206
83823W        W26839  17.926   1.458   4.728  0.0237  0.3079  0.1874
83824W        W26840  10.428  26.628   3.057  0.1463  0.2572 -0.2659
83825W        W26841  16.556   0.755  26.751 -0.0804 -0.3332  0.2640
83826W        W26842  17.928   4.204   5.389 -0.0893 -0.1089  0.1322
83827W        W26843  20.633   9.483  22.264  0.1393 -0.0438 -0.2382
83828W        W26844  24.807   9.448  16.455 -0.2523 -0.0058 -0.0876
83829W        W26845  13.208  11.848  16.570  0.0305  0.0302  0.0830
83830W        W26846  22.139  33.869  18.949 -0.1962 -0.1604 -0.1864
83831W        W26847   0.005  32.156  21.067 -0.5084 -0.0515  0.1804
83832W        W26848  12.169  23.579   7.890  0.2009 -0.0121  0.1250
83833W        W26849  32.245  24.344  18.393 -0.0642 -0.0554  0.1031
83834W        W26850  27.216  34.664  21.696  0.0783  0.0344  0.1206
83835W        W26851  31.993  30.263  24.025  0.1034  0.2655 -0.1479
83836W        W26852  14.275  33.250  16.528  0.2158 -0.2696 -0.2333
83837W        W26853  15.362   6.458  20.879  0.0466  0.4666 -0.0600
83838W        W26854  23.059  29.231  15.330  0.2684  0.1960 -0.0114
83839W        W26855   6.973   5.656   8.936  0.3501  0.0387  0.0114
83840W        W26856  29.323  11.264   2.448 -0.0447 -0.3148  0.0882
83841W        W26857  15.268   5.015  15.781  0.2316  0.0681  0.1845
83842W        W26858  16.632  33.046  23.989 -0.0228 -0.0730 -0.1232
83843W        W26859  12.930  31.327  23.843 -0.2813  0.0909  0.2512
83844W        W26860   3.071  33.621  24.714 -0.3497  0.0394 -0.1206
83845W        W26861  24.186   7.526  23.198 -0.1781  0.0847  0.2645
83846W        W26862   1.550  34.140  22.396  0.1026 -0.1040 -0.1862
83847W        W26863  33.275  33.293  18.282  0.2315  0.1131 -0.2513
83848W        W26864  19.714  16.928  15.422  0.1820  0.0293 -0.1315
83849W        W26865  27.585   9.974  15.949 -0.0868  0.0297  0.1946
83850W        W26866  31.449  27.183  28.648  0.2606  0.4468 -0.5514
83851W        W26867  13.823  23.751   0.317  0.1238 -0.0075 -0.0198
83852W        W26868  20.075  32.202  20.563  0.1152 -0.0103 -0.0052
83853W        W26869  13.555  30.582  24.598 -0.1840  0.0710  0.0093
83854W        W26870  18.324  32.297  15.100  0.3186 -0.0103 -0.0726
83855W        W26871  29.428   0.172  18.163  0.0778 -0.3209 -0.0443
83856W        W26872  21.289  33.064  22.306 -0.1939 -0.4163  0.2095
83857W        W26873  18.484  23.297  23.420  0.1992 -0.0153 -0.1837
83858W        W26874   2.351  33.118  16.232  0.1505  0.1979  0.0156
83859W        W26875  22.312  31.638  15.825  0.1069 -0.0402 -0.0618
83860W        W26876  14.398   5.273  28.063  0.1500 -0.0728 -0.0289
83861W        W26877  20.224   6.195   5.560  0.2867  0.0261 -0.2093
83862W        W26878   2.652   8.012  17.557 -0.1622  0.2854 -0.0265
83863W        W26879   0.051  29.582   5.680  0.2134  0.0111 -0.0422
83864W        W26880  30.658  31.488   3.853 -0.4604  0.1966 -0.1098
83865W        W26881  23.234  24.992  21.227  0.1242 -0.1632  0.0739
83866W        W26882  13.439  24.120  20.452  0.0294  0.1827  0.4330
83867W        W26883  21.287   1.450   9.225 -0.2286  0.1230  0.2983
83868W        W26884  16.075   2.947  21.670 -0.2575  0.0798 -0.0418
83869W        W26885  25.089  30.176  25.863  0.3584  0.1115 -0.0725
83870W        W26886  28.722  25.010   5.873 -0.2573 -0.0392 -0.2627
83871W        W26887  30.024  25.534   1.567  0.3692  0.2307 -0.1789
83872W        W26888  10.264  30.718  26.695  0.6343  0.0278 -0.0457
83873W        W26889   9.386  29.399  25.018  0.0961 -0.1992 -0.0370
83874W        W26890  24.097  19.868   6.773 -0.0345 -0.2679 -0.2984
83875W        W26891   2.326  30.049   8.038 -0.1824  0.0019  0.0734
83876W        W26892  18.703  12.757  27.923  0.1670 -0.0712 -0.0393
83877W        W26893  27.743   2.094  21.552  0.1830 -0.1113  0.2521
83878W        W26894   6.688  12.175  19.250 -0.0521 -0.0090  0.0072
83879W        W26895  30.783   7.414   2.518  0.2344  0.0413  0.0368
83880W        W26896  22.012  27.763   4.170  0.0511 -0.0982 -0.4112
83881W        W26897  23.632  26.131   4.024 -0.0088 -0.0314  0.0811
83882W        W26898  34.127  20.439   6.651 -0.0672  0.1551 -0.0679
83883W        W26899  15.648   1.415  20.543  0.0862  0.1602  0.2674
83884W        W26900   3.133   3.331  21.700 -0.0680  0.2011  0.4319
83885W        W26901   9.319  10.670  23.249  0.2892  0.2112  0.1901
83886W        W26902   4.444  13.272  17.426  0.1542 -0.1981 -0.3612
83887W        W26903  18.577   2.868   0.353  0.0575 -0.0155 -0.1984
83888W        W26904  17.475  28.042  18.184  0.1681 -0.5121 -0.0059
83889W        W26905  23.979  26.877  21.407 -0.1145 -0.1519 -0.1326
83890W        W26906  25.660  24.038  17.500  0.0912 -0.1043 -0.2058
83891W        W26907  19.799  11.823   5.181 -0.0668 -0.1694 -0.1772
83892W        W26908  15.238  25.197  13.714  0.1376  0.1066  0.0678
83893W        W26909  12.122   9.583  18.711 -0.2487  0.1612  0.0486
83894W        W26910   6.562   9.817   9.564 -0.0006 -0.2225  0.0787
83895W        W26911  19.603   6.493  15.459 -0.2507  0.0203 -0.0450
83896W        W26912  24.835  33.051  20.437 -0.1090  0.2499 -0.0185
83897W        W26913  29.487  31.049   9.656 -0.0893  0.0357 -0.0324
83898W        W26914  28.598  28.390  26.482  0.1407 -0.2038 -0.0007
83899W        W26915   5.035   2.319  22.024  0.0375  0.1827  0.0059
83900W        W26916  30.510   4.353  10.055 -0.4392  0.0699 -0.2799
83901W        W26917  12.109  27.046  26.155  0.1269 -0.1168 -0.0012
83902W        W26918  30.120   7.766  15.027  0.0777  0.1525 -0.1982
83903W        W26919  20.723  27.741   5.061 -0.4442  0.1900 -0.2529
83904W        W26920   6.808   5.910  28.788  0.0807  0.2364 -0.1893
83905W        W26921   7.412   5.942  25.376  0.2864 -0.2935 -0.1023
83906W        W26922  17.085   7.987  24.770  0.0102 -0.1101  0.1020
83907W        W26923  11.225  30.974   4.678  0.1239  0.0759  0.1198
83908W        W26924  11.580  14.332  19.749 -0.2829  0.2796 -0.0473
83909W        W26925   3.012   5.880  21.539 -0.2123 -0.2947 -0.2488
83910W        W26926   5.102  33.962  27.325 -0.0253  0.2804  0.2782
83911W        W26927  20.134  30.855  29.109  0.3203  0.0257 -0.0895
83912W        W26928  23.093  16.345  20.952  0.1206  0.3019  0.0002
83913W        W26929  11.569   0.957   0.815 -0.0999  0.2134  0.1935
83914W        W26930   6.957  16.142  28.396 -0.1622  0.0295  0.1047
83915W        W26931  25.638  32.432  26.307  0.1259  0.0714 -0.2360
83916W        W26932  17.492   0.378   0.950 -0.0395 -0.1472 -0.1079
83917W        W26933  17.497  32.906  25.294 -0.2592 -0.1935  0.0302
83918W        W26934  20.297  16.152  28.235 -0.0270 -0.3052  0.0108
83919W        W26935  31.721   6.393   0.764  0.0706  0.2413 -0.0235
83920W        W26936   1.872  32.493  19.648  0.1411  0.0187 -0.1559
83921W        W26937  21.460  28.368  27.004  0.0119 -0.0566  0.0231
83922W        W26938  33.079   4.132  27.715  0.0529  0.1156  0.0084
83923W        W26939  22.300  22.084  29.234 -0.1512 -0.0762 -0.1219
83924W        W26940   4.043  27.856  18.161 -0.0132 -0.0991  0.0980
83925W        W26941  18.270  23.582  15.226 -0.1644  0.2422 -0.0973
83926W        W26942  26.687  29.774  28.012 -0.1124 -0.0232  0.2520
83927W        W26943   4.133   1.080  21.770 -0.2826  0.3175  0.0835
83928W        W26944   3.886   8.540  13.622  0.0993  0.1812  0.2096
83929W        W26945  30.422   5.355   7.728 -0.2456 -0.1504 -0.0454
83930W        W26946  14.127  11.791  22.870  0.0723 -0.1458 -0.2914
83931W        W26947  26.309  27.956   1.042  0.2167 -0.2557 -0.2458
83932W        W26948  32.524  28.806  25.000 -0.1492  0.1045  0.2724
83933W        W26949   7.700  20.831  16.839  0.0037  0.1723  0.0184
83934W        W26950  14.435   3.153  25.891 -0.1139  0.1368 -0.2387
83935W        W26951   9.192  14.380  27.128 -0.0139 -0.0696 -0.3088
83936W        W26952  34.440   5.832  14.989 -0.2791  0.1496 -0.0279
83937W        W26953  17.681  33.552  18.544  0.1332  0.2424  0.1022
83938W        W26954   9.142   6.882   1.905 -0.1344  0.1778 -0.0446
83939W        W26955  15.185  15.320   0.658 -0.1470 -0.0079  0.2523
83940W        W26956  21.840   1.174   0.446  0.1176 -0.0393 -0.1634
83941W        W26957  29.508  24.649  23.499 -0.2248 -0.2819 -0.0829
83942W        W26958  31.822   2.619   0.898  0.2123  0.3249 -0.0599
83943W        W26959  22.584  12.482  21.424  0.0242  0.0831  0.0431
83944W        W26960  18.554  31.988  29.244  0.2066 -0.1495  0.4023
83945W        W26961  29.155   2.410   5.308  0.5475 -0.0082  0.1574
83946W        W26962  16.575   7.794  14.520 -0.0139 -0.1710 -0.0936
83947W        W26963  24.339  13.429  19.391  0.1012 -0.1550 -0.3228
83948W        W26964  21.587   8.191  27.648  0.2171 -0.1243 -0.2122
83949W        W26965  20.444   1.419  20.334 -0.0636 -0.0304  0.3888
83950W        W26966  31.656  23.345  28.472 -0.1859  0.1524 -0.0780
83951W        W26967  16.566   2.556   2.000 -0.1664  0.2061 -0.1096
83952W        W26968   2.058  13.969  25.223 -0.3577 -0.0891 -0.1091
83953W        W26969  18.953   2.292  14.010  0.0809  0.4004 -0.0394
83954W        W26970  13.537   3.191  17.625 -0.0694 -0.2316  0.2542
83955W        W26971  12.203  27.435  25.249  0.1629 -0.0958  0.3862
83956W        W26972  21.822   6.066   8.815  0.4390  0.1157  0.4652
83957W        W26973  26.349  31.440  27.972 -0.1186 -0.1813  0.0610
83958W        W26974  18.750   9.149  19.222  0.2026  0.0409 -0.0603
83959W        W26975   8.587  28.227  19.572  0.1670 -0.2544 -0.0389
83960W        W26976  31.396   3.207  15.554 -0.1756 -0.0755  0.0271
83961W        W26977  19.761   6.182   4.688 -0.0182 -0.2751  0.2417
83962W        W26978  12.905  13.697  14.584  0.0347  0.2110 -0.1634
83963W        W26979  17.590  34.715  21.842  0.1856  0.0410  0.1598
83964W        W26980  23.606  13.694  22.036  0.0772 -0.1026 -0.0652
83965W        W26981  23.721  30.446   7.532 -0.1313 -0.0601 -0.0438
83966W        W26982  22.961  13.975  25.241 -0.1386  0.0409  0.2463
83967W        W26983   0.719  33.482  14.584  0.0861  0.1982 -0.2744
83968W        W26984  11.369   8.521  19.333 -0.5473  0.1199 -0.2743
83969W        W26985  17.554   4.346  24.028 -0.2352 -0.2154 -0.1674
83970W        W26986  12.596  11.560  25.333 -0.0548 -0.0199  0.2439
83971W        W26987  25.014   5.142  23.821 -0.2459 -0.3183  0.1034
83972W        W26988  34.739  16.006  16.073 -0.0838 -0.1007 -0.2096
83973W        W26989  20.883  34.392  16.006 -0.0464 -0.1586 -0.0301
83974W        W26990   2.102  12.912  14.714  0.1639 -0.0931 -0.0710
83975W        W26991  11.806   1.872   7.659 -0.1811  0.0220 -0.2910
83976W        W26992   9.421  28.005   3.999 -0.1303  0.1748 -0.4254
83977W        W26993  24.305  30.855  23.071 -0.1338 -0.1941  0.0983
83978W        W26994  16.553  30.245   2.186 -0.2564  0.3260 -0.4070
83979W        W26995  27.379   8.848   4.366  0.1731 -0.1407 -0.1136
83980W        W26996  28.417  34.382  28.982  0.1832 -0.2860  0.2329
83981W        W26997   6.909   7.114  14.117 -0.0055  0.1668  0.2491
83982W        W26998   0.432  12.767  28.409 -0.1449  0.0266 -0.2305
83983W        W26999  16.980   2.000  26.466  0.0625 -0.0250 -0.0377
83984W        W27000  15.997  29.851  20.334  0.0201 -0.3036  0.1045
83985W        W27001  23.981   7.398  17.066 -0.1526 -0.1233 -0.0967
83986W        W27002  25.881  10.102  21.239  0.0439  0.0023  0.2382
83987W        W27003   9.815   4.655   0.152 -0.1345 -0.3040 -0.0501
83988W        W27004  22.440  14.341  18.625  0.1583 -0.2717 -0.1383
83989W        W27005   1.733   7.043   7.888 -0.1857 -0.0858  0.2158
83990W        W27006  27.695   3.781   4.346  0.1023  0.0446 -0.1449
83991W        W27007  28.957  17.723   3.226 -0.0766  0.1175 -0.1124
83992W        W27008  24.151  24.292   1.023  0.1615 -0.1825 -0.0457
83993W        W27009  20.667   8.788   7.012 -0.1242  0.2890 -0.2441
83994W        W27010   0.960  20.005   5.116 -0.0618 -0.0884 -0.2044
83995W        W27011   1.305   9.532  22.666  0.0816 -0.1076  0.0925
83996W        W27012  24.884  29.857   1.510  0.0296  0.0268 -0.3615
83997W        W27013  32.528   6.518  25.692  0.0721  0.1941 -0.1553
83998W        W27014  16.757  30.767  22.852 -0.0366  0.2048  0.0135
83999W        W27015  16.860  14.960  12.926  0.1460  0.1106 -0.1202
84000W        W27016   1.495  29.345  18.632  0.1509 -0.3993  0.1987
84001W        W27017   9.754  15.885   1.095  0.2264 -0.0442  0.1567
84002W        W27018  24.798   5.654  22.716  0.1274  0.1916  0.1592
84003W        W27019   6.692  14.691   8.841 -0.0388 -0.1684 -0.2636
84004W        W27020   6.129   8.711   2.415 -0.1642 -0.1523  0.0762
84005W        W27021   5.903   0.573   0.427  0.2819 -0.1937  0.2869
84006W        W27022  17.862  30.453   4.138 -0.1690 -0.1803  0.0519
84007W        W27023  21.248  13.762  19.641 -0.1311 -0.0384 -0.2154
84008W        W27024   0.036   1.717  16.735 -0.0246  0.0456  0.0075
84009W        W27025  21.018  11.568  18.577  0.0153 -0.0309  0.0574
84010W        W27026  16.002  19.692  11.510 -0.1557 -0.0235 -0.0493
84011W        W27027  24.253  24.020  15.306  0.3237 -0.1256 -0.2099
84012W        W27028  26.942  15.570  14.409 -0.0526  0.2746  0.2905
84013W        W27029  34.713   4.821   8.033 -0.1564 -0.1250 -0.1016
84014W        W27030   0.799  11.331  21.730 -0.2335  0.0700 -0.1597
84015W        W27031  23.598  28.951   7.540  0.1362  0.1431 -0.1667
84016W        W27032  12.408  14.857  23.484  0.1901  0.1247 -0.0500
84017W        W27033  12.507   4.514   1.564 -0.2410  0.0324 -0.0136
84018W        W27034  15.826  25.907  19.735 -0.0548 -0.1403  0.2698
84019W        W27035  22.769  31.153  17.165 -0.2899  0.0301 -0.0613
84020W        W27036  21.975   8.324  14.322 -0.0911  0.1406  0.0485
84021W        W27037   1.860  11.778  25.639  0.2614 -0.0916 -0.1373
84022W        W27038  16.626   5.544  19.239 -0.2042 -0.0930  0.2712
84023W        W27039  21.348   2.671  25.786  0.2774  0.1019 -0.0728
84024W        W27040  26.362  31.437  24.705 -0.0638  0.1442  0.1759
84025W        W27041  27.867  31.321   4.432 -0.0598 -0.1400 -0.0387
84026W        W27042  18.329   7.811  26.282  0.1117 -0.1511  0.3029
84027W        W27043  11.291   1.726   1.237  0.2772 -0.2277 -0.1989
84028W        W27044  16.076  22.932  21.698 -0.2827 -0.0128  0.1384
84029W        W27045  12.331  32.952  24.533  0.1680 -0.4334 -0.1042
84030W        W27046  23.782   9.564   7.712 -0.2091 -0.1268 -0.0681
84031W        W27047  29.463  22.876  10.898  0.0970 -0.1733 -0.2928
84032W        W27048  18.622  22.792  24.059  0.0835  0.1620  0.1553
84033W        W27049   4.657  16.737   0.436 -0.2846 -0.1092 -0.0653
84034W        W27050  29.209  14.601  24.917  0.0401 -0.2104 -0.6622
84035W        W27051  27.100   5.588  27.582  0.1615  0.2051  0.0558
84036W        W27052  16.576   9.683  22.844 -0.1375 -0.3233  0.0524
84037W        W27053  10.822  24.281   4.680 -0.0791 -0.2662  0.0821
84038W        W27054  12.870  21.851  15.238 -0.1316 -0.0893 -0.0193
84039W        W27055   2.777  27.760  19.736  0.0090 -0.1541 -0.2223
84040W        W27056  11.510  29.585  24.749  0.2382  0.1550  0.3091
84041W        W27057  25.621  31.689  29.314 -0.4452 -0.1853 -0.0332
84042W        W27058  20.517  31.027  15.848  0.3521  0.0927 -0.5804
84043W        W27059  16.607  33.709  15.008  0.0982  0.3357  0.2613
84044W        W27060  31.836   1.898  16.307 -0.4561 -0.2701  0.0705
84045W        W27061   7.789   4.879  27.584  0.0888 -0.1062  0.3219
84046W        W27062  30.425   1.360  29.009  0.1521 -0.2955  0.1384
84047W        W27063   9.357  25.426   0.200 -0.1184 -0.1483  0.2951
84048W        W27064  17.326  11.046  15.886 -0.1685 -0.0420 -0.0498
84049W        W27065  18.999   7.796  22.457  0.1654  0.0609 -0.0358
84050W        W27066  12.805  29.600  24.271 -0.1473 -0.2400  0.3572
84051W        W27067  30.641  22.442  18.337 -0.0151 -0.4844 -0.1531
84052W        W27068  27.647  29.649  25.753  0.1444  0.2379  0.1565
84053W        W27069  28.358  19.696  26.668 -0.1139 -0.0505  0.0356
84054W        W27070  16.264  24.077   7.811  0.1200  0.2664  0.0717
84055W        W27071  16.305  13.765  19.168 -0.3888  0.0786 -0.0228
84056W        W27072   8.988   0.745  17.445 -0.4495  0.3474 -0.0419
84057W        W27073  15.743   3.618  20.579 -0.1059  0.0431  0.0519
84058W        W27074  19.333   3.115  24.162  0.2752 -0.0824  0.1668
84059W        W27075  12.248   8.283  22.786 -0.0778  0.1491 -0.1440
84060W        W27076  24.106  33.254  26.868 -0.0144  0.4913  0.0670
84061W        W27077  27.934   2.870  18.942 -0.2207 -0.2588  0.1038
84062W        W27078  27.748  21.647  24.876  0.2399 -0.0831  0.0272
84063W        W27079  17.076  19.071  24.122 -0.2564 -0.1518  0.0763
84064W        W27080   9.919   2.273  19.883  0.3642 -0.0490  0.3236
84065W        W27081  11.727   1.856  23.247  0.0037 -0.2243 -0.1485
84066W        W27082  23.804  16.164  16.373 -0.2019 -0.0486  0.2192
84067W        W27083   5.768  32.937  24.228  0.1210 -0.0894  0.2556
84068W        W27084  21.075  10.630  17.535 -0.3806 -0.0507 -0.0241
84069W        W27085  16.200  17.916  15.425 -0.1345  0.1093  0.1364
84070W        W27086  27.164  26.640   8.290 -0.0984  0.0892  0.2893
84071W        W27087  25.851  34.097  11.135  0.0404  0.1301 -0.0034
84072W        W27088  29.068  10.032  24.357  0.0646  0.1937 -0.3187
84073W        W27089  29.830  11.430  15.052  0.1688 -0.0914  0.2180
84074W        W27090  15.486   2.917  14.429 -0.0753 -0.1476  0.1673
84075W        W27091  22.902  27.616  25.834 -0.1608 -0.2101  0.3416
84076W        W27092  21.860   4.512   6.924 -0.0683 -0.1336  0.1670
84077W        W27093   9.885  11.273  25.079  0.1242  0.2871  0.2339
84078W        W27094  10.749   4.830   2.296 -0.2347  0.2029 -0.0239
84079W        W27095   5.902  32.493   0.660  0.0202 -0.2984  0.2426
84080W        W27096   5.014  33.124  14.993 -0.0578 -0.0920  0.0347
84081W        W27097  24.848  30.342  24.811  0.2382  0.1616 -0.4186
84082W        W27098  28.886  11.044  25.716  0.2199  0.1442 -0.2930
84083W        W27099  22.523  20.933  15.357 -0.1214 -0.0541  0.0577
84084W        W27100  15.340  34.700  21.752  0.1892 -0.0693  0.1353
84085W        W27101   3.170  28.908   5.295 -0.3611  0.0605 -0.1689
84086W        W27102  24.976  33.176  27.718  0.1633 -0.0878  0.2307
84087W        W27103  26.993   3.389  18.745 -0.1072 -0.2344 -0.1010
84088W        W27104  19.811  34.089  14.916 -0.0387 -0.1205 -0.1614
84089W        W27105  27.526  17.437  28.664 -0.0682  0.1313 -0.0554
84090W        W27106   5.605  10.386  23.905  0.4364  0.3935 -0.0706
84091W        W27107  18.966   4.536  20.060  0.0718  0.1748  0.1653
84092W        W27108  17.214  13.071  25.352  0.0412 -0.2288 -0.1168
84093W        W27109  28.591  33.927  26.684 -0.0044 -0.2240 -0.1475
84094W        W27110  19.012  33.226  21.139 -0.2048  0.2379 -0.0833
84095W        W27111  12.070  11.104  28.395  0.4121 -0.2382 -0.2064
84096W        W27112  18.294   8.559  22.191 -0.0191  0.0218 -0.0642
84097W        W27113  11.758  12.061   5.880  0.2046 -0.0541 -0.1080
84098W        W27114   8.280  22.716  20.697  0.1910 -0.1593 -0.0015
84099W        W27115   5.185   7.067  27.838  0.2141  0.3762 -0.0474
84100W        W27116  21.701   0.618   2.403  0.2060 -0.0654  0.1275
84101W        W27117   8.029   1.873  26.764 -0.4017 -0.1600  0.1513
84102W        W27118  16.870   2.011  16.294 -0.0887 -0.1459  0.0018
84103W        W27119  26.722  13.400  24.147  0.1467  0.2277 -0.0385
84104W        W27120  12.130  18.498  20.535  0.0011 -0.1380 -0.0739
84105W        W27121  32.706  33.878  21.729  0.0440 -0.2668 -0.0149
84106W        W27122  27.106  34.052  19.572 -0.1275  0.1124 -0.0513
84107W        W27123  16.769   6.167  16.868  0.1779  0.0848  0.0467
84108W        W27124  24.521  30.383  27.120  0.0644  0.1307 -0.3947
84109W        W27125  12.642   9.602   3.392 -0.1064 -0.1780  0.0226
84110W        W27126  30.433   4.309  28.649 -0.1056 -0.1177  0.3026
84111W        W27127  29.009   6.170  20.434 -0.3507 -0.0338  0.2198
84112W        W27128  14.671  29.387  15.458  0.0556  0.1281  0.1309
84113W        W27129  18.730   0.107   1.335  0.0201 -0.1142  0.1577
84114W        W27130  20.178   0.038  25.795  0.0360  0.1343  0.1256
84115W        W27131  28.464  27.583  23.840  0.2841  0.1507  0.2455
84116W        W27132  18.183  10.305   1.804  0.0620  0.1089 -0.3257
84117W        W27133   0.017  11.722   4.003  0.3017  0.1554 -0.2668
84118W        W27134   5.346   3.333   4.645 -0.2239  0.0828  0.0503
84119W        W27135  33.250   0.280  25.221 -0.1170  0.1213  0.0441
84120W        W27136  26.378  11.824   6.652  0.2706  0.1827  0.1350
84121W        W27137  15.807   4.856  17.773 -0.0430 -0.2417 -0.0948
84122W        W27138  30.252   4.986  22.076  0.0295  0.0042 -0.3097
84123W        W27139   1.652  25.628   1.362  0.1912 -0.0642  0.0119
84124W        W27140  12.210   2.424  16.300 -0.0793  0.1447 -0.0032
84125W        W27141  20.082   5.689  14.281  0.0417 -0.3268 -0.0531
84126W        W27142  11.953   6.190  26.020 -0.0458 -0.0066 -0.1751
84127W        W27143  33.111  31.797  23.490  0.0380  0.0174 -0.0079
84128W        W27144  15.702   9.558  19.167  0.2160 -0.1164  0.0812
84129W        W27145  12.059   4.308  15.937 -0.0560 -0.0425  0.0032
84130W        W27146  28.060   4.171  27.430 -0.0422  0.0016 -0.1926
84131W        W27147   9.273  17.375  14.059  0.0680 -0.0528  0.0833
84132W        W27148  10.201   7.565  15.980 -0.2966 -0.0709  0.1919
84133W        W27149   7.305  29.662  15.274 -0.0242  0.0090  0.4011
84134W        W27150   0.841   0.439  27.019 -0.3735 -0.0872 -0.0981
84135W        W27151   5.959  29.574  24.099  0.1514 -0.0539  0.1870
84136W        W27152  14.460  34.234  19.044 -0.1752 -0.0813  0.1737
84137W        W27153  32.437  22.781  28.145 -0.1252  0.1547  0.0391
84138W        W27154  14.840   1.657  29.205 -0.4775  0.0212  0.0566
84139W        W27155  26.208  28.722  11.247 -0.1660 -0.0605  0.1567
84140W        W27156   1.392  25.318  15.255  0.0924 -0.1163  0.0759
84141W        W27157  14.061   7.011  16.902 -0.2547  0.1682  0.1268
84142W        W27158  14.531  25.416   8.698  0.1684 -0.0129  0.0534
84143W        W27159  24.871   3.314  15.723  0.3553 -0.2848 -0.3961
84144W        W27160  11.262  19.820  25.872 -0.2528 -0.2729  0.0551
84145W        W27161   8.828   0.317  22.895 -0.1650  0.0087 -0.2678
84146W        W27162  16.245   2.565  15.007 -0.4826  0.0483 -0.1602
84147W        W27163   5.431  13.786  26.591  0.1493  0.1595  0.3882
84148W        W27164  32.355  10.262   1.430 -0.1235  0.0851  0.0893
84149W        W27165  24.135  34.251   2.845 -0.1393  0.0360  0.1229
84150W        W27166   7.090   1.399  27.910  0.0466  0.0226  0.0263
84151W        W27167  27.378   3.717   0.974  0.2664 -0.0996 -0.0654
84152W        W27168  18.446  18.770  23.514 -0.0888  0.0357  0.0017
84153W        W27169   5.483   0.119  17.026 -0.1449 -0.1021  0.0879
84154W        W27170  14.768   0.887  26.597  0.0061 -0.2011 -0.1777
84155W        W27171  22.336  33.753  28.240 -0.0762 -0.3509  0.1700
84156W        W27172  21.663  31.899  16.808 -0.0619  0.1089 -0.3074
84157W        W27173  11.703   5.545   7.384 -0.1395  0.2549  0.1004
84158W        W27174  21.814  29.865  25.979  0.0514 -0.1905  0.3598
84159W        W27175  17.056   0.459   9.341 -0.0878  0.4603  0.2008
84160W        W27176  24.955  34.192  23.386 -0.0688 -0.2305 -0.4307
84161W        W27177   9.095   2.354  17.386 -0.0180  0.0515  0.2414
84162W        W27178  26.829  34.631   3.238 -0.0671 -0.1398 -0.0393
84163W        W27179  22.304  13.239   3.304 -0.0539 -0.3366  0.0567
84164W        W27180  12.120  10.547  24.101  0.2361  0.0782 -0.3236
84165W        W27181   0.326  33.974   2.224  0.1117 -0.1112  0.0762
84166W        W27182   5.890  29.864  22.254 -0.1920  0.2411  0.0062
84167W        W27183  23.876  14.610   5.495 -0.1355  0.0871  0.0763
84168W        W27184  31.312  11.675  29.034  0.2757  0.0051  0.1153
84169W        W27185  25.158   4.041  11.635  0.2311  0.0985 -0.0050
84170W        W27186   9.668  15.121  26.949  0.1210 -0.2141 -0.0195
84171W        W27187  23.259  32.725   8.528  0.2517  0.1508 -0.0025
84172W        W27188  18.437   5.425  16.165  0.2815  0.0112  0.3268
84173W        W27189  19.593   5.272   1.571 -0.0680  0.1284  0.0090
84174W        W27190  15.239  14.653   4.945 -0.1336 -0.3709  0.1087
84175W        W27191  10.058  31.485  15.350 -0.0200 -0.0800  0.0676
84176W        W27192  12.735   3.032   3.872  0.2623  0.3292  0.5442
84177W        W27193  16.770  27.312   6.075 -0.1578 -0.0767  0.2695
84178W        W27194  19.202  25.719   2.775 -0.0644 -0.1206 -0.3269
84179W        W27195  16.860  27.822  28.060  0.0209 -0.3030  0.0312
84180W        W27196  17.996  11.374  23.147 -0.1208  0.0441  0.0669
84181W        W27197  29.925   6.608   8.504 -0.0134 -0.0363  0.0879
84182W        W27198   3.690   0.835   6.576 -0.0679  0.1389 -0.1688
84183W        W27199   1.538   5.575  25.020 -0.3536 -0.2803  0.5004
84184W        W27200  30.627   4.813  26.292  0.2715 -0.1448 -0.4977
84185W        W27201   9.007  14.784  22.444  0.0308 -0.3024 -0.2673
84186W        W27202   9.191   1.662  15.402  0.1738  0.2117 -0.0680
84187W        W27203  18.678   8.128  16.310  0.1689  0.2867 -0.0429
84188W        W27204  13.020  11.063  16.246 -0.1839  0.4125  0.1514
84189W        W27205  26.181  32.383   8.528 -0.2682  0.1109  0.1368
84190W        W27206   6.055  20.558   0.924 -0.1060 -0.1049  0.1941
84191W        W27207  26.753   7.172  18.177 -0.0493 -0.0048 -0.0615
84192W        W27208   5.927  22.542  27.360  0.2868  0.1546 -0.2684
84193W        W27209   3.914   3.152  27.023  0.0897 -0.0116  0.0186
84194W        W27210  23.429   0.049  15.617  0.3863 -0.0717  0.1023
84195W        W27211  13.770  29.616  28.593 -0.1268  0.1904  0.3053
84196W        W27212   5.285  33.562  20.714  0.1671 -0.0378 -0.0425
84197W        W27213  27.219   9.826  16.363 -0.0181 -0.2734 -0.0421
84198W        W27214  26.453  27.726  29.156 -0.2132 -0.1103 -0.1479
84199W        W27215   9.260  11.245  14.963 -0.1449  0.2988  0.1906
84200W        W27216   6.120  32.815  22.197  0.0097 -0.1379 -0.0653
84201W        W27217  16.880  27.646   3.161 -0.0599  0.3197  0.0153
84202W        W27218   5.501   5.345   1.308 -0.0512 -0.0699  0.5358
84203W        W27219  20.042  30.767  25.754  0.1960 -0.0729  0.1196
84204W        W27220  18.941   3.586   7.509 -0.5062  0.1452 -0.0446
84205W        W27221  24.431   7.532   1.903 -0.4019 -0.2081  0.3439
84206W        W27222  33.380  29.431   0.214  0.0953 -0.0702  0.1186
84207W        W27223  12.124  26.548   5.908  0.1464 -0.0085  0.0578
84208W        W27224  11.715  17.682   5.866  0.0578  0.0289 -0.1370
84209W        W27225   4.479  28.516  22.691  0.0259 -0.0801  0.1393
84210W        W27226  28.838   0.131   5.105  0.1860  0.0779  0.0414
84211W        W27227  19.668  24.753   5.118  0.1281  0.2148 -0.0407
84212W        W27228  20.306  11.192  27.718 -0.0940 -0.2296 -0.2725
84213W        W27229  13.958   4.022   0.880 -0.2099  0.1249  0.0641
84214W        W27230  31.479  28.021   0.061 -0.3593 -0.3287  0.1727
84215W        W27231  16.981   8.550   0.763  0.1638 -0.0059  0.1301
84216W        W27232  16.387  25.169  27.809  0.3135  0.3067  0.0508
84217W        W27233   4.482   7.013   4.717  0.2715 -0.1294 -0.0346
84218W        W27234  24.923  22.667  29.214 -0.2389  0.0445 -0.0110
84219W        W27235  14.193   0.766  23.681  0.1493  0.1947  0.1616
84220W        W27236   6.279  12.939   9.325  0.1832 -0.1479  0.1357
84221W        W27237   8.304  27.799  20.755 -0.1600 -0.0028 -0.1485
84222W        W27238  22.369  12.771  20.140  0.1982  0.0942 -0.0312
84223W        W27239  24.935  21.858  24.433 -0.0084 -0.1645 -0.2328
84224W        W27240  26.454   5.572  15.588  0.1708 -0.0365  0.1494
84225W        W27241   5.271  33.360  23.100  0.3067 -0.0902  0.2414
84226W        W27242   3.383  25.267  21.638  0.2334  0.0174  0.1125
84227W        W27243  28.292  27.587  24.646 -0.1519  0.0816 -0.0716
84228W        W27244  18.270  32.843  20.531 -0.1660  0.0166  0.0035
84229W        W27245  20.568   9.714  23.128 -0.1485 -0.3774  0.1476
84230W        W27246  16.775  28.938  20.756  0.2410  0.2744 -0.0293
84231W        W27247  23.350   9.060   1.475 -0.0006  0.1165  0.0320
84232W        W27248  11.413   9.300   7.563  0.3454 -0.2762  0.0885
84233W        W27249  17.344   2.040  23.554  0.0724  0.0295 -0.1242
84234W        W27250  22.945  28.381  28.756  0.1187  0.1631 -0.3145
84235W        W27251  14.706   8.221   6.514 -0.1231  0.1040 -0.0727
84236W        W27252   6.293  13.469  26.144 -0.1567  0.3235 -0.1430
84237W        W27253  10.063  31.780   5.448 -0.0968 -0.1314 -0.0247
84238W        W27254  24.536  11.816  22.814  0.1158 -0.0116 -0.1509
84239W        W27255  11.012   7.196   9.158  0.2795  0.2876 -0.0111
84240W        W27256  25.380  24.676  23.087 -0.3077 -0.1274  0.0266
84241W        W27257  12.629   9.050   8.338 -0.0171 -0.0004 -0.0973
84242W        W27258  16.726  29.711  18.418  0.0951 -0.0554  0.0228
84243W        W27259  11.926  10.620   8.653  0.0062 -0.2469  0.0130
84244W        W27260  20.925  34.276  24.505  0.1205 -0.2908 -0.1108
84245W        W27261  26.317  22.180  18.489 -0.0826 -0.4614 -0.0152
84246W        W27262  13.786   6.921   5.641 -0.0177  0.0466 -0.1038
84247W        W27263  22.907  23.841  27.401  0.2283 -0.2300 -0.0027
84248W        W27264  22.502   7.905  17.843  0.0173  0.1219  0.1001
84249W        W27265  25.549  32.820   9.589  0.3937 -0.0886 -0.0565
84250W        W27266  32.520   8.363  25.335 -0.1563 -0.0566  0.1170
84251W        W27267   4.732  10.138  20.797  0.2151 -0.0396  0.0430
84252W        W27268  14.743   2.085  18.793 -0.0324 -0.2763  0.2666
84253W        W27269   5.017  33.921   5.930 -0.0995 -0.0875  0.1560
84254W        W27270  19.794  28.147   5.344  0.0423 -0.2257  0.0161
84255W        W27271  15.709  28.070   0.197 -0.2878  0.2266 -0.1213
84256W        W27272  33.702   5.810   3.421 -0.2751 -0.1636 -0.1228
84257W        W27273  21.880  28.839   5.999  0.2005 -0.0419 -0.2820
84258W        W27274  13.025   0.461  16.487 -0.0817  0.0122  0.0971
84259W        W27275  23.936   9.970  26.667 -0.1053  0.0524 -0.2375
84260W        W27276   9.225   7.562  26.528 -0.0581 -0.1715 -0.0391
84261W        W27277  17.559  11.662  25.853  0.0201  0.1075  0.0703
84262W        W27278  10.291  11.144  24.115  0.1330 -0.3194 -0.1241
84263W        W27279  22.762   6.813  23.826  0.0585  0.0910 -0.0796
84264W        W27280  18.898  21.306  27.293  0.0318 -0.0405  0.0254
84265W        W27281  18.145   0.554   1.828  0.1026 -0.0786  0.2419
84266W        W27282  29.304  31.649  21.269  0.0767 -0.0739  0.0127
84267W        W27283   5.510  31.612   3.037  0.4529 -0.0659  0.0676
84268W        W27284  30.064  32.378  29.017  0.1986  0.1000 -0.2343
84269W        W27285  29.928  29.865  28.603  0.0679 -0.1947 -0.2379
84270W        W27286  15.424   4.741   0.803  0.2012 -0.2280  0.2801
84271W        W27287  27.263  25.465   4.483 -0.0920  0.1204 -0.0708
84272W        W27288   7.984   3.003   0.110 -0.1102 -0.0694  0.0485
84273W        W27289  15.480   0.578  21.122  0.0510 -0.2752  0.1897
84274W        W27290  33.707  28.710   3.182 -0.0394  0.0350  0.2851
84275W        W27291  15.707  15.362  20.439  0.0525  0.0816  0.2483
84276W        W27292   7.001   9.311  17.804 -0.0051  0.0045 -0.0756
84277W        W27293  14.396   8.456  14.802  0.1004 -0.0759 -0.0385
84278W        W27294  19.246   0.741  24.084 -0.5244 -0.0470 -0.0879
84279W        W27295   3.609   6.376   2.235  0.0406 -0.0403  0.0745
84280W        W27296  21.044   9.863  24.715 -0.2844  0.2062 -0.1087
84281W        W27297  17.477   2.854  20.854  0.0609  0.2245  0.1743
84282W        W27298  14.504   6.732   1.966 -0.1024 -0.3575  0.1600
84283W        W27299  15.980  15.309   1.614  0.1073  0.2920 -0.0598
84284W        W27300  34.661   0.607  17.737 -0.0983  0.2552 -0.0892
84285W        W27301  19.647   7.074   7.844  0.1854 -0.1520 -0.0143
84286W        W27302   6.464   2.666  18.085  0.1145  0.0104 -0.1894
84287W        W27303   8.223  16.823  15.192  0.0650  0.1120  0.0710
84288W        W27304   8.182   6.990  26.066 -0.0344 -0.0548  0.2204
84289W        W27305  23.539  15.226  16.627  0.0423 -0.0166 -0.0040
84290W        W27306  28.903   4.147  25.979  0.0359 -0.3010 -0.2106
84291W        W27307  15.555   7.715   2.542  0.0498  0.0290 -0.2556
84292W        W27308  21.324  11.779  22.244  0.2633 -0.0062 -0.1788
84293W        W27309  10.728   0.675  14.657 -0.0691 -0.0123  0.1217
84294W        W27310   5.324   2.974  16.060 -0.0563  0.0122 -0.1718
84295W        W27311  25.943  29.297  20.208 -0.1275 -0.2015  0.0725
84296W        W27312  23.823  34.347   6.614 -0.1222  0.0545 -0.0183
84297W        W27313  23.835  29.387  16.391 -0.1282 -0.0015 -0.1028
84298W        W27314  30.993  20.119  29.153  0.4692  0.2644  0.0545
84299W        W27315  16.860  31.594   0.410 -0.1530 -0.0393 -0.1248
84300W        W27316  15.251  22.637  24.490 -0.0731  0.2613  0.0404
84301W        W27317  17.308   9.581  25.749  0.1106 -0.2330 -0.2163
84302W        W27318  25.713  34.580  28.497  0.0923 -0.2516  0.0308
84303W        W27319  28.536   7.612  24.436  0.2229  0.2833 -0.4525
84304W        W27320  33.909  27.748   1.804 -0.2360 -0.2486 -0.1067
84305W        W27321   2.033   7.393   2.208  0.2778  0.1997 -0.1408
84306W        W27322  15.583  12.521   2.965  0.2250  0.0027  0.1886
84307W        W27323  12.822  16.260  27.731  0.0730 -0.1056 -0.2010
84308W        W27324  12.281  27.224   8.715  0.3699  0.0625  0.1124
84309W        W27325  11.179   2.324  25.697 -0.0981 -0.0152  0.1501
84310W        W27326  14.738  11.724   0.303  0.1472 -0.2972 -0.0903
84311W        W27327   9.203   1.726   0.627 -0.0567 -0.1797  0.1042
84312W        W27328  22.082  23.348  24.265  0.0263  0.0461  0.2554
84313W        W27329  27.700  11.494  29.288  0.1306  0.0355 -0.1213
84314W        W27330  11.391  24.983  21.840  0.0844 -0.2111  0.2378
84315W        W27331  17.221   9.091   2.290  0.2800  0.1240  0.3667
84316W        W27332   1.841   5.552  24.066  0.2538  0.0828  0.0132
84317W        W27333  16.103   1.685   8.259 -0.0011  0.1036  0.3827
84318W        W27334  29.839   1.125  10.426  0.1282 -0.0155 -0.4677
84319W        W27335  26.034  30.968  18.824 -0.1296  0.0941  0.0202
84320W        W27336  16.390   4.495  10.439 -0.2085  0.1239  0.3000
84321W        W27337  12.036  10.500   7.668 -0.1904 -0.2329 -0.3131
84322W        W27338  21.342  22.911  22.270 -0.1320  0.1719 -0.1352
84323W        W27339  21.320   0.613   1.170 -0.0113 -0.0660 -0.0553
84324W        W27340  32.655  30.664   9.149 -0.0027  0.1827  0.1771
84325W        W27341  15.077   5.881  25.657  0.0402 -0.1895 -0.1399
84326W        W27342   2.750   1.139  16.783 -0.2806  0.1300 -0.1969
84327W        W27343  18.050  16.596  28.017  0.2361 -0.1677  0.0459
84328W        W27344  27.451   2.748   3.541 -0.1350  0.3897  0.0982
84329W        W27345  20.093  33.121  25.220 -0.1572  0.2885 -0.0925
84330W        W27346  10.537  29.967  24.405 -0.2244  0.0158 -0.1394
84331W        W27347  10.727  14.788   3.084 -0.0093  0.1180  0.0733
84332W        W27348  33.484  26.098   3.417  0.0505 -0.1758 -0.0428
84333W        W27349  21.918  28.916  16.916  0.2614 -0.2091  0.1981
84334W        W27350  10.219  30.946  27.658 -0.2145  0.0282  0.3323
84335W        W27351  28.365  12.075  28.594 -0.2438  0.0096 -0.0765
84336W        W27352  11.452   8.302   0.382  0.4039  0.1050  0.1934
84337W        W27353  32.652   3.667  20.603 -0.0690  0.0350  0.0247
84338W        W27354  34.569   6.256  25.188  0.1538  0.1731  0.3155
84339W        W27355  12.045   3.514  24.014 -0.1869  0.0408  0.2070
84340W        W27356  22.626   4.119  23.811  0.2799 -0.0533  0.0111
84341W        W27357  22.248  32.937  19.829  0.3232 -0.0316 -0.0706
84342W        W27358  24.560   0.787   6.617 -0.0089 -0.0029  0.1606
84343W        W27359  29.856  11.788   7.235 -0.0028 -0.2125 -0.1426
84344W        W27360  20.170   1.051  26.871 -0.2037 -0.2598 -0.0963
84345W        W27361  14.056  33.750  16.652 -0.0674  0.0180 -0.0002
84346W        W27362  16.626  19.773  26.656 -0.1229 -0.0623  0.0825
84347W        W27363  28.524  30.853   3.943  0.0607  0.2175  0.0365
84348W        W27364  21.825   8.384   7.971 -0.0595 -0.0078 -0.1848
84349W        W27365   7.298  33.991  17.515  0.2683 -0.2586  0.3099
84350W        W27366  23.623   9.602  23.194  0.0725  0.0575 -0.1350
84351W        W27367  18.978  26.833   8.155 -0.0926 -0.3593  0.2663
84352W        W27368  19.194   0.977  15.910 -0.2603  0.2736 -0.1015
84353W        W27369   5.887  16.390   4.658 -0.0727  0.2641 -0.1919
84354W        W27370  24.473  15.609  15.871 -0.1664  0.2642 -0.0871
84355W        W27371  16.977  13.115  18.375 -0.1378 -0.0895  0.0101
84356W        W27372  14.020   4.595   9.647  0.1074  0.1500  0.1016
84357W        W27373  33.886  32.374  28.956  0.0727 -0.0922 -0.1412
84358W        W27374   6.043  33.833  29.320  0.6062 -0.0858  0.5001
84359W        W27375  27.712  16.895   3.633 -0.0109  0.3346 -0.1039
84360W        W27376  30.883   2.789  10.862 -0.2516  0.0060 -0.1008
84361W        W27377  22.430   2.401  15.352  0.1928  0.0045 -0.3886
84362W        W27378  32.599  16.717   0.857  0.3192  0.0013  0.2256
84363W        W27379  14.459   0.136  18.089 -0.0978 -0.3476  0.1695
84364W        W27380   6.455   2.405   0.541  0.3039 -0.4451 -0.2494
84365W        W27381  32.709  13.472  18.688 -0.0491  0.2382 -0.0027
84366W        W27382  21.459   3.980   7.677 -0.0034  0.0453 -0.1311
84367W        W27383  24.497  29.307  27.817  0.1564  0.0396 -0.1071
84368W        W27384  20.313  33.126   2.888  0.3134  0.2191 -0.1018
84369W        W27385  30.004  11.101   0.800  0.1552  0.2754 -0.1600
84370W        W27386  24.601  27.745   4.154  0.1915  0.3168  0.0566
84371W        W27387   7.938   8.173  26.936  0.2579 -0.0200  0.0936
84372W        W27388  32.468  28.884  26.301 -0.1713  0.0474  0.0276
84373W        W27389  23.789  15.763   4.886  0.0421 -0.4011  0.1033
84374W        W27390  20.911  13.734  28.044  0.3562  0.2059 -0.0892
84375W        W27391  19.034  11.307  21.763 -0.1356  0.1339 -0.0213
84376W        W27392   6.324  25.910  14.537  0.1722 -0.1513 -0.1094
84377W        W27393  34.500   1.300  17.066  0.0063  0.0981  0.1441
84378W        W27394  17.442   2.128  18.686  0.1091  0.2637  0.1380
84379W        W27395  31.266  10.536  28.654 -0.0648 -0.3758 -0.2259
84380W        W27396  14.759  19.344   4.942  0.1505 -0.2083 -0.2244
84381W        W27397  11.137   4.798  18.115  0.5955 -0.1907 -0.1045
84382W        W27398  18.562  29.383  16.238  0.0077  0.0453 -0.1535
84383W        W27399  19.093  11.792  26.258  0.1050  0.2419 -0.3096
84384W        W27400  27.522   8.083  16.079  0.2192  0.0881 -0.0040
84385W        W27401  19.059  32.786  28.978 -0.0473 -0.1781 -0.2918
84386W        W27402  18.681  10.168   4.119  0.0390 -0.0775  0.1537
84387W        W27403   8.937  32.020  24.236  0.2143 -0.2703  0.1655
84388W        W27404  21.862   5.156  18.980  0.0105 -0.2026 -0.0109
84389W        W27405  17.513  17.832   3.416 -0.0150  0.2450  0.3820
84390W        W27406  30.061  34.255   0.705  0.0848 -0.0054 -0.0212
84391W        W27407  24.481  20.485  18.542  0.1211 -0.1998  0.2333
84392W        W27408  25.763  32.988  28.824 -0.2934  0.1925  0.4217
84393W        W27409  15.472  11.287  19.169  0.1799  0.0551  0.0338
84394W        W27410  23.036  27.142  28.673  0.0206  0.2234 -0.1989
84395W        W27411   2.042   6.010  23.267 -0.2708  0.0573 -0.1608
84396W        W27412  20.538   3.367  25.353 -0.1323  0.2372 -0.1752
84397W        W27413  28.747   4.402  23.239 -0.0443  0.0462  0.1910
84398W        W27414  16.395  31.858   4.479  0.1985  0.4878 -0.0452
84399W        W27415   8.636   9.464  22.838 -0.0985  0.3522 -0.3038
84400W        W27416  27.244   0.685  11.299  0.0718  0.0043  0.0040
84401W        W27417  23.915  15.736  17.029 -0.0441 -0.0857 -0.2030
84402W        W27418  11.446  29.605  21.922 -0.3320 -0.0776  0.1242
84403W        W27419  33.738  15.697  18.865  0.0527 -0.0672  0.0309
84404W        W27420   0.012  34.555  23.487  0.4524 -0.3171  0.0140
84405W        W27421  22.013  21.048  15.207 -0.0000  0.0186 -0.1717
84406W        W27422  32.496   6.800  18.630  0.0240  0.1853  0.0377
84407W        W27423  34.139  23.417   6.659  0.0658 -0.3448 -0.1611
84408W        W27424   4.185  27.213  23.887 -0.0284 -0.4638 -0.0324
84409W        W27425   5.102  33.270  16.824  0.1602  0.0945  0.1087
84410W        W27426  31.454  15.762  23.918 -0.1427  0.0538  0.2452
84411W        W27427  22.293  22.983  18.183  0.3349  0.1441 -0.1767
84412W        W27428  23.754  15.751   3.176  0.0831 -0.2754 -0.3080
84413W        W27429  13.985   2.073  28.794  0.0863  0.1114 -0.2565
84414W        W27430  16.115  10.058  18.174 -0.0346  0.1867  0.0261
84415W        W27431   6.483  29.438   9.472 -0.2092  0.1312  0.3653
84416W        W27432  15.039   0.847  23.639  0.0132 -0.0415 -0.1004
84417W        W27433  12.242  33.445  26.062 -0.1987 -0.1847  0.3437
84418W        W27434  22.595   9.525   1.390  0.2623  0.0135 -0.0363
84419W        W27435  21.283  29.726   8.891  0.0916 -0.1335  0.1295
84420W        W27436  20.862   7.049  21.005 -0.2701  0.0653  0.3492
84421W        W27437  32.025  11.004  19.876 -0.0220 -0.2283  0.4985
84422W        W27438  19.908  22.821   3.818 -0.2011 -0.1547  0.1590
84423W        W27439  24.095  32.152   4.515  0.1212  0.1470 -0.4452
84424W        W27440  24.575  22.275   4.189 -0.0460  0.1954 -0.0678
84425W        W27441  11.797  30.299  10.317  0.1841  0.0406  0.4459
84426W        W27442  26.315   9.036  18.675 -0.0765  0.0324 -0.0050
84427W        W27443  14.036  29.154   3.437  0.3261 -0.1762  0.3329
84428W        W27444  31.869  33.704   1.197 -0.0528  0.2260 -0.3087
84429W        W27445   1.782  16.188  21.785 -0.0659  0.1836  0.0841
84430W        W27446   2.508   2.228   3.665 -0.0271  0.1718  0.1417
84431W        W27447  17.100  32.426  23.563 -0.2752 -0.2249  0.2252
84432W        W27448  18.842  20.327  28.866 -0.0059  0.0333  0.1599
84433W        W27449  34.752   9.521   3.509  0.2688 -0.1600 -0.0034
84434W        W27450  32.538   0.283  18.180 -0.0501 -0.1156 -0.1640
84435W        W27451   5.172  18.813   3.059 -0.0391 -0.3922 -0.3138
84436W        W27452  19.073  32.240  18.247 -0.3378  0.0097  0.1844
84437W        W27453  30.286  28.095  17.202 -0.2929  0.2396 -0.1482
84438W        W27454  31.282  31.678   0.911 -0.4225  0.0919 -0.0773
84439W        W27455  21.309   4.440  20.558  0.0853  0.1385 -0.1564
84440W        W27456  28.036  27.382  28.554 -0.1855  0.0355  0.0998
84441W        W27457  12.355   2.836  28.293  0.0544 -0.1391  0.1502
84442W        W27458  20.466  29.660   8.492 -0.3876 -0.6061  0.0397
84443W        W27459  29.682   5.994   9.186  0.0488 -0.1537 -0.2889
84444W        W27460   0.138  23.829   6.478  0.2333  0.4879 -0.0567
84445W        W27461  34.281  29.221  29.150 -0.5275 -0.1777  0.0038
84446W        W27462  26.189  31.550   7.316  0.1212  0.4162 -0.2417
84447W        W27463  25.642  27.696  22.091  0.1137 -0.1852 -0.0644
84448W        W27464  31.466  10.058  14.998  0.1207 -0.2733 -0.4722
84449W        W27465  16.107   5.567   2.759  0.0267 -0.0105 -0.3783
84450W        W27466  11.084  32.374   2.062 -0.2249 -0.0771 -0.2231
84451W        W27467  27.342  33.741   0.923  0.0357  0.2269 -0.1339
84452W        W27468  26.999  30.601  20.313 -0.2040  0.1713  0.0634
84453W        W27469  16.544   8.206  21.957 -0.0260 -0.1511 -0.1907
84454W        W27470  12.346  29.948  24.268 -0.1283 -0.0380 -0.0418
84455W        W27471   3.144   3.779  28.509  0.3863  0.4037  0.0419
84456W        W27472  23.868  28.874  25.438  0.2939  0.2129 -0.0611
84457W        W27473  16.639  12.558  15.683 -0.0801 -0.1526  0.0265
84458W        W27474  15.882  30.521  23.897 -0.0323 -0.2912 -0.1511
84459W        W27475  23.988   0.378  18.103  0.5277  0.2323  0.1494
84460W        W27476  26.244  33.821  27.501  0.1306 -0.0726 -0.0871
84461W        W27477  21.812  29.434  29.188  0.3016 -0.0931  0.0246
84462W        W27478   8.335   0.770   3.619 -0.2298  0.2040 -0.4337
84463W        W27479  10.639  34.619   0.688  0.3773 -0.0945  0.1382
84464W        W27480  22.458  24.288  24.700  0.0364 -0.0522  0.2478
84465W        W27481  12.829  30.708  20.099 -0.2070  0.0444  0.1271
84466W        W27482  25.803   6.032   7.296 -0.1664 -0.0396 -0.0134
84467W        W27483   7.183  34.006   0.267 -0.2922 -0.0065  0.0458
84468W        W27484  24.823  33.983   3.555  0.0459 -0.0925  0.0009
84469W        W27485  16.393  31.065  22.756  0.0667  0.0831  0.1218
84470W        W27486   1.312  33.307  27.806 -0.0039 -0.0179  0.0714
84471W        W27487  14.230   9.838  27.247 -0.2542  0.2494 -0.1592
84472W        W27488   6.421  33.704   3.307  0.2282 -0.0389 -0.1576
84473W        W27489   7.590   9.484  27.193 -0.1274 -0.2065 -0.1550
84474W        W27490  13.232   0.077  23.441  0.2089 -0.3586 -0.5788
84475W        W27491  32.065  12.438  25.520 -0.0774  0.2981 -0.0000
84476W        W27492   7.794  33.511   8.639 -0.0469  0.0435 -0.2211
84477W        W27493  34.662   7.553  10.062  0.2254  0.0332 -0.1501
84478W        W27494  14.794  28.438   2.658  0.2961  0.0093 -0.1624
84479W        W27495  19.958  19.912  28.202  0.0257 -0.1898  0.1939
84480W        W27496  23.517   7.396   5.604 -0.2340  0.1963 -0.0014
84481W        W27497  13.935  32.612   4.863  0.2146  0.3122  0.1846
84482W        W27498  26.668   5.730  23.320  0.2886  0.4459 -0.2161
84483W        W27499  23.075   7.021   8.866  0.2702  0.1707 -0.0999
84484W        W27500  33.712  33.577   8.958  0.0391  0.0670 -0.1948
84485W        W27501  32.141  23.447  29.240 -0.0979  0.2146 -0.2246
84486W        W27502  15.905   7.405   4.627  0.0526  0.0511  0.2828
84487W        W27503  10.245  30.428  18.155  0.2409 -0.3664  0.0710
84488W        W27504   8.384   9.637  23.924 -0.1486  0.3317  0.0422
84489W        W27505   3.146  28.751  25.593  0.0365 -0.0182  0.0555
84490W        W27506  22.623  33.193  27.583 -0.2403 -0.1714 -0.2389
84491W        W27507  13.890   4.663   7.926 -0.0213  0.2893  0.2284
84492W        W27508  28.300   2.894  16.224 -0.1888  0.0768  0.1359
84493W        W27509  30.508  30.221  21.178 -0.0522 -0.4094  0.0980
84494W        W27510  19.656  31.066  19.781  0.0217  0.2969  0.1506
84495W        W27511  21.682  31.266   9.644 -0.0620 -0.0416 -0.0631
84496W        W27512  18.034   9.272   9.703 -0.0429  0.2800  0.1069
84497W        W27513  30.058   4.694  23.981 -0.2409  0.0485 -0.4510
84498W        W27514  26.766  23.692   7.782  0.0220  0.1098  0.2607
84499W        W27515  21.397   6.576   4.877  0.1646  0.0918 -0.1011
84500W        W27516   1.288  12.976  18.596 -0.2505  0.1723  0.0412
84501W        W27517  11.710  26.505   3.309  0.1077  0.1935  0.1407
84502W        W27518  11.763  34.118  25.979 -0.1973 -0.2379 -0.1671
84503W        W27519   3.927  15.680   4.286  0.1845  0.1416 -0.3808
84504W        W27520  19.922  17.249   0.949 -0.4408  0.0405 -0.1220
84505W        W27521  29.509  33.756   7.988  0.1366  0.1153  0.0409
84506W        W27522   1.785  32.184  18.326  0.1569 -0.0336  0.2001
84507W        W27523  19.087  10.815  21.936  0.1182 -0.1243 -0.2425
84508W        W27524  33.742   3.654   4.788 -0.2121  0.0764  0.1837
84509W        W27525   1.474  11.896   5.819  0.0356  0.1041 -0.0923
84510W        W27526  17.088   0.533   0.600 -0.0089 -0.3028 -0.0069
84511W        W27527   3.391  22.297   3.726  0.2482 -0.1804  0.0604
84512W        W27528  21.582  33.603  22.999  0.0816 -0.3501 -0.0089
84513W        W27529  20.422  23.498  27.254 -0.0720  0.0790  0.1011
84514W        W27530  20.899  13.563   8.160  0.1651  0.2009  0.2890
84515W        W27531   5.447  14.882  21.218 -0.0762 -0.4657  0.2739
84516W        W27532  34.428   6.213  24.286  0.0651  0.1195 -0.0691
84517W        W27533  20.015  16.329  11.867 -0.3144 -0.0755 -0.1208
84518W        W27534   7.902  32.158   8.550 -0.1885  0.0269  0.1499
84519W        W27535  11.087  11.463  21.294  0.0224 -0.1830  0.3922
84520W        W27536  19.663  33.397  26.488  0.1570 -0.2183 -0.1567
84521W        W27537  21.960   0.660   4.399  0.0540  0.0581 -0.1888
84522W        W27538  22.204  28.021   9.791 -0.2542  0.1503  0.1118
84523W        W27539  28.473  24.635  23.511 -0.2439  0.2602 -0.0382
84524W        W27540   6.917   3.176   5.768 -0.3043 -0.1021 -0.2032
84525W        W27541  22.209   4.472   9.956  0.2148  0.2188 -0.0728
84526W        W27542  26.308  13.760  28.103 -0.0004  0.1639  0.0872
84527W        W27543   9.563   0.776  22.351 -0.2687 -0.0916  0.3606
84528W        W27544  15.692  16.724  27.298 -0.0632 -0.1992  0.1685
84529W        W27545   6.150  30.065   1.342  0.1470  0.0564  0.0611
84530W        W27546  13.423  22.155  19.206  0.1667  0.0109 -0.1261
84531W        W27547   6.955  34.184   6.384  0.3345  0.0789  0.0544
84532W        W27548  26.904  31.643   4.463 -0.2412  0.1527  0.0507
84533W        W27549  10.078   6.539   0.570 -0.1129  0.0480 -0.2894
84534W        W27550   3.154  27.862   9.722 -0.0672 -0.3377  0.0618
84535W        W27551  25.725   5.418   7.233 -0.1101 -0.2297 -0.0275
84536W        W27552  24.411  19.749   5.770 -0.0436 -0.3416 -0.1888
84537W        W27553  24.360   5.280  10.493  0.0295  0.0421 -0.0325
84538W        W27554   3.947   1.937   6.674 -0.0008  0.0309  0.1049
84539W        W27555  15.740  24.240   5.936  0.0698  0.2459 -0.3735
84540W        W27556  20.814   3.559   5.875  0.0733  0.0387  0.0163
84541W        W27557  33.442   0.966  26.382 -0.2769 -0.0247  0.0709
84542W        W27558  18.298   5.554   9.201 -0.3891  0.5185 -0.1131
84543W        W27559   7.795   2.473  14.513 -0.1494 -0.0927  0.2925
84544W        W27560  19.797  27.762  10.828  0.3009 -0.0833  0.0608
84545W        W27561  22.603   6.604  15.170  0.3100  0.3387 -0.2696
84546W        W27562  26.956  16.401  28.604 -0.1276 -0.1475 -0.0996
84547W        W27563  17.441   6.474  15.187 -0.0718 -0.1377  0.0655
84548W        W27564  23.107  30.547  25.736 -0.0951 -0.2685 -0.0125
84549W        W27565  32.172   9.910  18.028 -0.0887 -0.0385 -0.1111
84550W        W27566  23.411   2.470  27.623 -0.1098  0.4438 -0.1147
84551W        W27567   0.029  14.808   1.958  0.2930  0.1006 -0.2511
84552W        W27568  22.329  32.197   7.666 -0.1783  0.1911  0.1435
84553W        W27569   7.310  22.706   9.303 -0.1053  0.1126  0.3551
84554W        W27570   6.482  29.920   5.554 -0.0919 -0.1592 -0.0149
84555W        W27571  16.384  23.258  20.679 -0.4360  0.2070  0.0365
84556W        W27572  19.036   3.020   9.488  0.2336 -0.0683  0.1423
84557W        W27573  28.509   4.531  26.658  0.0010 -0.1820 -0.2917
84558W        W27574  13.665   9.038  17.817 -0.2287  0.0785  0.0793
84559W        W27575  21.036  11.268   6.110 -0.1618  0.2443 -0.3025
84560W        W27576  19.089   9.084  12.826 -0.0300  0.1594  0.1134
84561W        W27577  12.820   7.075  28.985 -0.0604 -0.1364 -0.1459
84562W        W27578  31.036  14.477  22.579  0.1786  0.0866 -0.1568
84563W        W27579  18.334  34.732   3.785  0.0911 -0.0957  0.0872
84564W        W27580  25.721  25.057   7.025 -0.1254  0.0304  0.0233
84565W        W27581  13.556  31.047  27.136  0.0274 -0.1948  0.0721
84566W        W27582  16.967   3.505   5.143 -0.0996 -0.0922 -0.0201
84567W        W27583  12.856   6.563   2.731  0.0699 -0.0905 -0.0599
84568W        W27584  15.416   4.678   8.400 -0.0181 -0.1567 -0.2105
84569W        W27585   7.669   6.196  28.298  0.0730  0.3443  0.2605
84570W        W27586  19.149  30.190  19.116 -0.1414  0.2284  0.0236
84571W        W27587  16.385  10.474   3.077  0.1254  0.0893 -0.0252
84572W        W27588  14.158  31.450   0.689 -0.2285 -0.2741  0.0239
84573W        W27589  28.349  31.195   7.377  0.2443  0.1329  0.2670
84574W        W27590   8.860  10.244  25.413  0.1669 -0.3144  0.0560
84575W        W27591  31.272  30.844  10.888  0.0153  0.0186  0.3013
84576W        W27592  17.458  16.675  23.238 -0.1360  0.0178  0.3197
84577W        W27593  13.785   7.166  27.833  0.1773 -0.1117  0.2716
84578W        W27594  25.632   3.430  19.336  0.0796  0.0448 -0.0857
84579W        W27595  33.340  12.461  18.549  0.2895  0.1298  0.0311
84580W        W27596   5.545  14.570  13.832  0.0072  0.0508  0.2054
84581W        W27597  19.918   6.711  18.799  0.3100  0.2193  0.2055
84582W        W27598  23.390   0.137  19.976 -0.0036 -0.1340 -0.0102
84583W        W27599  14.702  34.597  24.441 -0.0342 -0.3149 -0.3185
84584W        W27600  16.678   8.324  16.470  0.3385 -0.0946 -0.0467
84585W        W27601   3.410  19.929  19.143 -0.1319 -0.1278 -0.0039
84586W        W27602  26.242   0.062  15.590 -0.1448 -0.2943  0.0619
84587W        W27603   1.410  17.887  21.533  0.3299 -0.1258 -0.3610
84588W        W27604  23.636  21.973  18.171  0.0271 -0.1598  0.2416
84589W        W27605  12.741  28.898  15.780 -0.0001  0.0486 -0.1491
84590W        W27606   4.800  26.665  22.272 -0.1432  0.0038 -0.2874
84591W        W27607  31.412  16.463  14.445 -0.3354  0.0046 -0.1248
84592W        W27608   0.141  31.496   1.003 -0.1946 -0.0836 -0.1633
84593W        W27609   6.402  13.864   4.196  0.1261 -0.1702  0.0786
84594W        W27610  20.349   6.515  16.006 -0.2266  0.1973  0.1612
84595W        W27611  10.593  30.953  14.929  0.2643  0.2437 -0.4456
84596W        W27612  33.532   0.403   5.136  0.0316  0.0949 -0.2345
84597W        W27613  32.216   3.235  19.719 -0.0981  0.0819  0.1357
84598W        W27614  15.909  30.356  14.898  0.0615 -0.0962 -0.1103
84599W        W27615  14.673   2.580  16.747  0.2329 -0.0552 -0.1032
84600W        W27616  17.011   1.214  13.822  0.0590 -0.2720 -0.1382
84601W        W27617  17.902  28.987  22.722 -0.4124  0.0212  0.1219
84602W        W27618  28.520  16.666  27.428  0.0958  0.1166  0.0434
84603W        W27619  21.480   4.504  15.607  0.0771  0.1174  0.3096
84604W        W27620  25.546   3.385  16.423 -0.0975  0.0186  0.2268
84605W        W27621  19.806  15.272   5.492  0.1231  0.0568  0.4597
84606W        W27622  19.703  28.237  22.054 -0.0496  0.3346 -0.2846
84607W        W27623   6.654  31.838  25.735  0.1409  0.0841 -0.1672
84608W        W27624  15.925  25.502  24.812  0.0452 -0.0808 -0.0286
84609W        W27625  20.615   6.242  20.316  0.1537 -0.0341  0.1511
84610W        W27626  27.536  19.526  20.302  0.0347  0.1292 -0.3268
84611W        W27627  11.449  10.454  25.718  0.0300  0.0180 -0.0503
84612W        W27628  33.154  16.436  16.704 -0.2481 -0.2457 -0.3862
84613W        W27629  25.558  11.496  15.287  0.1609 -0.1878 -0.1161
84614W        W27630  12.321  24.987  20.136 -0.1730 -0.0190 -0.3712
84615W        W27631  19.398   3.138   1.502 -0.1313 -0.1642  0.3366
84616W        W27632   4.222  24.455  16.822 -0.4953  0.1527  0.0658
84617W        W27633  20.409  18.687  14.777  0.0011 -0.0287 -0.0616
84618W        W27634  29.392   8.860  19.963  0.0843  0.5106  0.0595
84619W        W27635   6.069  34.449  13.673  0.3652 -0.3733 -0.2133
84620W        W27636  25.152  23.776  21.172  0.0819 -0.0731 -0.0913
84621W        W27637   6.300  15.229  16.234  0.0820 -0.2877  0.2870
84622W        W27638  14.497   3.805  22.097  0.1213 -0.0183  0.1023
84623W        W27639  26.969  24.930   0.009  0.0495  0.0969  0.1114
84624W        W27640  20.311  32.525  14.977  0.0874  0.0419  0.1768
84625W        W27641   9.565   2.700  17.317  0.1249 -0.0193  0.4983
84626W        W27642   5.933   3.550  23.406  0.0703  0.0603  0.0015
84627W        W27643  12.857   3.323  25.153  0.2786  0.0825 -0.0076
84628W        W27644   7.529   7.464   3.494  0.0475 -0.1428  0.2429
84629W        W27645  18.420   7.791   1.486 -0.1078 -0.1401  0.0537
84630W        W27646  25.506  16.692  15.547  0.0403  0.1082 -0.1802
84631W        W27647  19.640  33.051   2.252  0.0690 -0.2744 -0.1980
84632W        W27648  30.894  10.927  16.779  0.1601  0.1046  0.2958
84633W        W27649  16.097   5.281   0.325 -0.2024  0.0372 -0.0059
84634W        W27650   2.851  31.724  15.736 -0.0598 -0.1598  0.1244
84635W        W27651   4.275   7.032  16.976 -0.0898  0.2854  0.0077
84636W        W27652  23.681  17.073  16.291 -0.2419 -0.0507 -0.3577
84637W        W27653  17.066   9.085  24.028 -0.0360  0.1149  0.1267
84638W        W27654   7.130   8.910  25.656  0.2652  0.0724  0.1519
84639W        W27655   7.593  32.142  22.898 -0.0424  0.2661  0.0611
84640W        W27656   0.165   9.715  26.752  0.0827  0.1474  0.2122
84641W        W27657  22.785  14.905  17.308  0.0719 -0.0762  0.1184
84642W        W27658  27.114   3.803  18.481 -0.1481  0.0497 -0.1763
84643W        W27659  13.595   6.472  22.723 -0.0777 -0.1650 -0.0670
84644W        W27660  21.207  20.495  19.163 -0.1302  0.2505 -0.3963
84645W        W27661  31.016  33.061  16.017  0.0288 -0.2143 -0.0524
84646W        W27662  16.712  29.819  22.488  0.4032  0.1053  0.0186
84647W        W27663  23.772  23.121  18.711 -0.3061 -0.1679  0.0624
84648W        W27664  23.324  26.314  21.844  0.0060 -0.1908 -0.1467
84649W        W27665  31.563  28.129  20.069 -0.3338  0.0395 -0.0664
84650W        W27666  24.635  31.721  24.212 -0.0584 -0.3583  0.0169
84651W        W27667   4.873  16.245  26.220  0.1671  0.1054  0.1943
84652W        W27668  15.586   2.431  24.431  0.0091 -0.1264  0.1474
84653W        W27669  30.770  26.135   0.988  0.4410  0.1349 -0.0906
84654W        W27670  24.276   1.699  16.417  0.0884  0.4508  0.0437
84655W        W27671  33.840   1.928  23.207  0.2033  0.1405  0.3205
84656W        W27672   6.251   9.986   7.490  0.2652 -0.1430 -0.0658
84657W        W27673  19.895   1.180  17.722 -0.0480  0.1368  0.0118
84658W        W27674  31.175   3.635  26.458  0.0190 -0.3271  0.0158
84659W        W27675  18.400   9.490  26.569 -0.0930 -0.0968  0.0530
84660W        W27676  12.092  13.708  21.894 -0.1285 -0.0035  0.0383
84661W        W27677   3.563  34.243  15.675  0.0460 -0.1119  0.1020
84662W        W27678  15.916  12.758  27.165  0.2134 -0.0622 -0.0226
84663W        W27679  12.797  23.669  20.162  0.0716 -0.0031  0.0274
84664W        W27680  17.201  21.838  19.508  0.2213  0.1850  0.1125
84665W        W27681  25.290   7.236  16.727  0.1121 -0.0056  0.0524
84666W        W27682  14.178   4.268  14.502 -0.1972 -0.1334 -0.0085
84667W        W27683  20.970   9.881  15.847  0.0255  0.1600  0.2807
84668W        W27684   6.962  17.059  27.037 -0.0094  0.4299 -0.2584
84669W        W27685  25.526   2.024  21.513  0.3476 -0.3050  0.1983
84670W        W27686  24.584  17.768  27.223  0.1379  0.2051 -0.1415
84671W        W27687  17.206   7.329  26.135 -0.0990 -0.2013 -0.0413
84672W        W27688  21.536  32.429  24.713  0.1053  0.1407  0.0867
84673W        W27689  28.827  30.498  26.955  0.2423  0.0077  0.1281
84674W        W27690  17.726  17.176  13.612 -0.3074  0.2890 -0.0816
84675W        W27691  27.057  28.762  20.054  0.0067  0.3764 -0.0615
84676W        W27692  10.625   6.951  16.669  0.2246  0.1620  0.3055
84677W        W27693   9.803  10.561  23.104  0.2483 -0.0860 -0.0545
84678W        W27694  10.302   2.375  16.792  0.1820  0.0428  0.0781
84679W        W27695  25.581   5.685   3.773 -0.0554  0.0395 -0.4269
84680W        W27696  24.930   0.336  22.561 -0.4323  0.4323  0.0153
84681W        W27697  23.790  25.584  23.835 -0.0775  0.3506 -0.1145
84682W        W27698  21.252   0.609   2.798 -0.1370 -0.0503  0.0624
84683W        W27699  21.877   6.205  24.743  0.1684  0.0723  0.0321
84684W        W27700  13.781  24.325  18.306 -0.2729 -0.2921 -0.0516
84685W        W27701  25.820  29.643  22.008 -0.1703 -0.0488  0.1855
84686W        W27702  21.887  12.564  19.849  0.2298 -0.1185 -0.0920
84687W        W27703   6.277  21.796  15.611  0.0569 -0.1302 -0.1410
84688W        W27704  14.456   3.055  17.811 -0.1790 -0.1780 -0.0764
84689W        W27705  28.886  12.595   2.085 -0.1132  0.3313  0.1537
84690W        W27706  25.801   8.145  14.928 -0.2357 -0.0153  0.0074
84691W        W27707  12.100  10.070  22.141 -0.1087 -0.0406  0.2254
84692W        W27708  10.964  10.218  16.720  0.1191  0.1331  0.0836
84693W        W27709  16.751  33.635   3.509  0.2180 -0.1929 -0.0462
84694W        W27710  14.820   4.012   0.425 -0.2758  0.1421  0.2688
84695W        W27711  13.983   6.921  18.476  0.2349 -0.0412  0.2131
84696W        W27712  20.962  33.994  21.417  0.0665  0.2164  0.2763
84697W        W27713  13.411  11.801  14.697  0.3078  0.1850 -0.1363
84698W        W27714   5.572   8.967  22.426 -0.0322  0.0282 -0.3660
84699W        W27715  22.487  10.943  14.086 -0.2839 -0.1016 -0.2422
84700W        W27716  25.441  32.248  16.090 -0.3093 -0.0640  0.1539
84701W        W27717  16.504  17.631  12.772 -0.0864 -0.0160  0.0789
84702W        W27718   4.077  24.812  15.396 -0.2015 -0.1211 -0.1441
84703W        W27719   7.787  30.611  29.220  0.3261 -0.1188  0.1867
84704W        W27720  34.203  16.630  17.282 -0.2401  0.1640  0.0015
84705W        W27721  31.296  18.427  15.750 -0.3131  0.0942 -0.1338
84706W        W27722   3.960   2.072  27.303 -0.3596  0.1421 -0.1022
84707W        W27723  13.586   6.299  17.725  0.1707  0.0407  0.0398
84708W        W27724  20.626  33.653  26.676 -0.0640  0.1260  0.0912
84709W        W27725  22.447   2.112  21.720 -0.3297  0.0798  0.0940
84710W        W27726  30.871  15.733  17.603 -0.0495 -0.2914 -0.1074
84711W        W27727  11.784  10.627  16.396 -0.1732 -0.0941  0.1818
84712W        W27728  27.809  32.585  16.798 -0.0142 -0.2096 -0.1787
84713W        W27729   3.485  11.880  18.786  0.1843  0.0696  0.0531
84714W        W27730  14.504   1.540  25.335  0.1986  0.3611 -0.1668
84715W        W27731  10.198   7.730  23.713 -0.2886 -0.0743  0.2275
84716W        W27732  17.246  11.596  14.088 -0.0704  0.3509 -0.0279
84717W        W27733  14.800  18.952   2.653  0.0944 -0.1204 -0.1597
84718W        W27734  13.224   3.704  26.425 -0.0922 -0.1141 -0.1495
84719W        W27735  19.551  24.371  16.188  0.0153  0.0305 -0.1711
84720W        W27736  22.927  33.736  17.471  0.2834 -0.0121  0.2002
84721W        W27737  20.829  17.635   2.774 -0.2550 -0.0376 -0.0452
84722W        W27738  11.969  21.286  15.660  0.1406  0.1356  0.1083
84723W        W27739  33.660  27.323   3.370 -0.1158 -0.1559  0.1823
84724W        W27740  15.654   6.492  15.513 -0.1271  0.1360 -0.2136
84725W        W27741  20.016   6.801  25.693  0.1616  0.0766 -0.3265
84726W        W27742   7.659  30.787  16.100 -0.0026 -0.1527  0.0240
84727W        W27743   3.232   0.286  17.686  0.1086  0.0984  0.1665
84728W        W27744  26.791   7.798  15.893 -0.0635  0.3538 -0.2177
84729W        W27745  16.358   5.397  18.189 -0.2833 -0.1698  0.0692
84730W        W27746  17.715  32.005  21.623 -0.1701  0.0781 -0.0708
84731W        W27747  34.606   3.221  15.949  0.0698  0.1508 -0.3960
84732W        W27748  19.922   4.159  15.212  0.1419  0.2197 -0.3001
84733W        W27749   0.843   1.250  18.039  0.0483  0.0581 -0.0135
84734W        W27750  26.254  26.706  18.612  0.0454  0.4571  0.1821
84735W        W27751  23.154   6.804  28.222  0.1952  0.0215  0.2428
84736W        W27752  30.500  12.663  27.602  0.1441 -0.2886  0.2230
84737W        W27753  27.732  12.358  15.324 -0.2964 -0.2692  0.3455
84738W        W27754  13.059   1.676  27.099 -0.1349 -0.1898 -0.2232
84739W        W27755  33.410  27.021  17.374 -0.1810 -0.2823  0.3821
84740W        W27756   5.647   9.900  16.732 -0.1300  0.0959  0.1558
84741W        W27757  18.101  31.795   5.628 -0.0622  0.0017  0.2095
84742W        W27758   0.990  29.612  15.372 -0.5790 -0.2209  0.0260
84743W        W27759  17.208   9.362   4.782 -0.0340 -0.1682  0.0923
84744W        W27760   9.945  22.156  17.135  0.1450  0.0136 -0.0715
84745W        W27761  16.041  11.573  27.534  0.0354  0.1209 -0.2718
84746W        W27762  10.222  11.284  27.043 -0.1230  0.0815  0.1247
84747W        W27763   5.213  14.445  25.361 -0.1059  0.1385  0.0357
84748W        W27764   8.091   2.913  22.167  0.0700 -0.0769 -0.0010
84749W        W27765   8.359   7.152  16.569  0.2526 -0.0281 -0.1572
84750W        W27766  22.519   1.848  21.275 -0.1794  0.0469  0.2885
84751W        W27767  18.483  11.307  20.428 -0.2477  0.5520 -0.0327
84752W        W27768  23.320   5.794  17.211  0.1780 -0.0793  0.0161
84753W        W27769  21.292  14.423  15.565  0.3815  0.1825  0.0944
84754W        W27770  29.910   9.875  24.776  0.0418 -0.0145 -0.1696
84755W        W27771   4.126   8.467  26.483 -0.1441 -0.3501 -0.0631
84756W        W27772  12.704   5.443  18.921 -0.2700 -0.5260 -0.0368
84757W        W27773   4.856  34.682  23.124 -0.0648 -0.3790  0.4368
84758W        W27774  11.621   3.540  19.806 -0.4169 -0.0726 -0.0886
84759W        W27775  11.702   6.805  17.810 -0.0358 -0.4222  0.1132
84760W        W27776  15.100  29.230  15.190 -0.0850 -0.2702 -0.0178
84761W        W27777  32.712   0.870  27.754  0.2625 -0.0450  0.0893
84762W        W27778  25.826  31.384   3.074 -0.1386  0.0039  0.0846
84763W        W27779   7.919  10.320   9.618 -0.1423  0.4703  0.1915
84764W        W27780  19.990  12.948  20.962 -0.0048 -0.1802  0.0192
84765W        W27781  24.253   8.962  21.999 -0.1278 -0.0329  0.0616
84766W        W27782  14.254  10.131  20.040 -0.0832  0.3478 -0.1141
84767W        W27783  16.976  34.500  27.815 -0.0605  0.3277  0.0083
84768W        W27784  12.532   1.948  21.592  0.0213 -0.2223 -0.1059
84769W        W27785  25.136  34.271  20.192  0.0243 -0.0255  0.1784
84770W        W27786  29.270   0.030  29.180 -0.0186 -0.4709  0.1808
84771W        W27787  17.812   3.677   1.463  0.1568  0.1342 -0.0852
84772W        W27788  22.566   8.823  15.706 -0.0974  0.2772  0.2316
84773W        W27789  22.937  26.081  23.891 -0.2020 -0.0382 -0.1163
84774W        W27790  14.626   3.310   4.962 -0.2095  0.2300  0.2292
84775W        W27791  26.811   4.248  18.159  0.2208  0.2320  0.2316
84776W        W27792  26.660  29.718  23.604 -0.1703  0.2119 -0.3195
84777W        W27793  33.667  31.571  17.812  0.2145 -0.0891 -0.2841
84778W        W27794  23.721  32.574   6.155 -0.2618 -0.3293 -0.3821
84779W        W27795  11.377   8.885  15.258  0.0156 -0.2645  0.3205
84780W        W27796  21.093  33.595  21.648  0.3440  0.0811 -0.1940
84781W        W27797  14.069  30.822  20.185 -0.3243 -0.2168 -0.3513
84782W        W27798  32.080   7.340   2.300  0.4431 -0.0739 -0.4740
84783W        W27799   2.410  15.164   2.353  0.0728 -0.2359 -0.0271
84784W        W27800  24.215   1.980  20.443 -0.0123 -0.2229  0.2449
84785W        W27801  24.668  34.067  17.552 -0.0032 -0.1217 -0.0793
84786W        W27802  16.805   3.489  14.828  0.3356  0.0340  0.0817
84787W        W27803  14.184   8.374   3.515  0.2021 -0.1514  0.2893
84788W        W27804   7.174  24.919  19.222  0.0149  0.1466 -0.0429
84789W        W27805   5.533  12.450  21.256 -0.1795  0.0205 -0.0899
84790W        W27806  11.215  30.392  18.510 -0.2423  0.0953 -0.2628
84791W        W27807  13.798  31.555  25.926 -0.0180  0.2122 -0.0365
84792W        W27808  20.568   6.559  26.293 -0.0357  0.1759  0.1488
84793W        W27809  31.272  23.662  23.779  0.0065 -0.0416 -0.0290
84794W        W27810   6.370  16.008  14.427 -0.2926 -0.4338 -0.1587
84795W        W27811   5.844   1.620  21.611  0.0751 -0.1498  0.1805
84796W        W27812  18.580  11.292  21.510  0.2421  0.1302  0.1967
84797W        W27813  19.055  29.179  19.452 -0.1742  0.0619 -0.0114
84798W        W27814  32.052   8.123  21.097  0.0007 -0.0653 -0.1344
84799W        W27815  31.757  17.218  14.866  0.1854  0.2702  0.2509
84800W        W27816   2.292  11.725  28.809 -0.0467  0.2560  0.0211
84801W        W27817  21.467  25.355  20.821 -0.0114  0.0073  0.0589
84802W        W27818   2.655  30.281   2.922  0.5933  0.3455  0.0637
84803W        W27819  23.025  19.427  13.534  0.3089  0.1883 -0.2805
84804W        W27820  27.047  12.732  22.342  0.2758  0.0208 -0.0470
84805W        W27821  24.679   4.494  10.114 -0.1956  0.0022  0.2060
84806W        W27822   9.300  19.207  13.037 -0.0553  0.1518 -0.0513
84807W        W27823   9.316   1.498   5.769 -0.0550 -0.2039 -0.1080
84808W        W27824  24.682  31.326  19.702 -0.0545 -0.4809  0.2014
84809W        W27825  27.180  16.346   9.261 -0.0243 -0.2810 -0.4697
84810W        W27826  18.680   7.356   1.575 -0.1993 -0.0622  0.0847
84811W        W27827  10.141   5.956  17.560 -0.0679 -0.0558  0.1862
84812W        W27828  15.128  33.518  20.213 -0.2578 -0.3616 -0.0466
84813W        W27829  30.361   1.676  20.571 -0.1172 -0.0288 -0.0188
84814W        W27830   8.310   9.097  19.632  0.1594 -0.0208 -0.2547
84815W        W27831  25.141   9.637  18.491  0.2760  0.0015  0.0207
84816W        W27832   2.554   5.735  19.016 -0.0799  0.1698  0.2436
84817W        W27833  26.231   2.099  23.562 -0.0466 -0.1577  0.1073
84818W        W27834  26.141  32.598   7.495 -0.2969 -0.3235  0.1282
84819W        W27835  10.549  15.088   5.212 -0.1953 -0.0083 -0.1485
84820W        W27836  23.710  29.630  14.254  0.1221 -0.2078 -0.0330
84821W        W27837  20.123  34.110  17.190 -0.2015 -0.3112 -0.0909
84822W        W27838   3.122  10.598  20.972  0.1597  0.0644 -0.3945
84823W        W27839  21.545  30.087  17.359 -0.2497  0.3703  0.2669
84824W        W27840  27.211  32.495  19.446 -0.3263 -0.1959 -0.1982
84825W        W27841   2.654  27.581  13.805 -0.2260 -0.4158  0.0345
84826W        W27842   9.119  23.423  17.969  0.5691  0.2592  0.1395
84827W        W27843  17.977   8.138  22.912  0.1597 -0.1526  0.2853
84828W        W27844   7.491  19.316  23.055  0.0276 -0.0176  0.0970
84829W        W27845  11.487  12.913  12.383 -0.0914 -0.2013 -0.2189
84830W        W27846  32.600  11.050  18.141 -0.0500 -0.0386  0.0472
84831W        W27847  19.805   2.754  16.111  0.2781  0.2055  0.0483
84832W        W27848   7.518   4.947  19.187  0.0065  0.3028  0.2710
84833W        W27849  21.230  27.984  24.952  0.1567 -0.0947  0.3226
84834W        W27850  24.136   6.570  20.098  0.4831 -0.1371  0.1716
84835W        W27851  18.004  13.173  26.882  0.0645  0.0373  0.0558
84836W        W27852  13.091   5.493  29.115  0.1139 -0.2339  0.3075
84837W        W27853  12.329   7.747  22.847  0.0112 -0.1700  0.2862
84838W        W27854   9.093   4.933  23.682 -0.0277 -0.0512 -0.0313
84839W        W27855  20.282   3.477  15.991 -0.0956  0.1602  0.2558
84840W        W27856  11.246  12.530  14.779 -0.0619  0.3384  0.0748
84841W        W27857  16.847  34.015  26.303 -0.3661  0.4303 -0.2195
84842W        W27858  29.677  19.758  17.874 -0.3188 -0.0569  0.2912
84843W        W27859  22.064  12.156   3.686  0.0313 -0.1176 -0.0388
84844W        W27860  32.014   5.153   2.644  0.0291  0.4393  0.0510
84845W        W27861  23.752   5.137  22.837  0.0094 -0.2850 -0.1313
84846W        W27862  14.789  29.624  27.744 -0.0424 -0.0361  0.0567
84847W        W27863  24.549   6.940  17.086  0.0015 -0.0962  0.3481
84848W        W27864  27.347   3.473  17.722  0.1136  0.2263  0.0174
84849W        W27865  13.512  31.123  16.556  0.0217 -0.0595  0.1165
84850W        W27866  30.101  13.250  19.662 -0.0086 -0.0797  0.1222
84851W        W27867  12.864  12.157  17.647 -0.1380 -0.0549 -0.0709
84852W        W27868  15.207   8.010  27.335  0.2722  0.1523 -0.0778
84853W        W27869  22.046  33.164  18.216 -0.2711  0.0841  0.2976
84854W        W27870   0.474  27.279  22.264 -0.0832  0.1409 -0.1018
84855W        W27871  27.834  16.850  20.009 -0.0653 -0.2444  0.1374
84856W        W27872  21.526   1.079  21.701 -0.0254  0.0188  0.1339
84857W        W27873  22.019  32.688  20.764 -0.1275 -0.3069  0.0205
84858W        W27874  25.159   8.751  23.709 -0.0528  0.0376  0.1035
84859W        W27875   0.164   9.937  24.301 -0.0535 -0.3414 -0.0488
84860W        W27876   7.713   4.616  23.026 -0.0491 -0.1827 -0.3995
84861W        W27877   8.413  15.425  15.950 -0.0492 -0.5199  0.2333
84862W        W27878  17.987   0.159  26.495  0.1516  0.0870  0.2229
84863W        W27879  12.169  34.566  25.007  0.1363 -0.1961  0.1931
84864W        W27880  20.027   4.787  22.147  0.1314  0.2502 -0.1962
84865W        W27881  22.587  10.140  13.854 -0.0567 -0.1556  0.2066
84866W        W27882  29.657  15.561  14.736 -0.1794  0.1317 -0.0565
84867W        W27883  17.241   3.802  23.709 -0.1067 -0.3905 -0.0121
84868W        W27884  10.938  18.893  18.108 -0.2767  0.1164  0.0031
84869W        W27885  15.340  11.762  15.831 -0.1432  0.2616  0.2389
84870W        W27886  23.523  31.169  19.039 -0.0315 -0.1842  0.0181
84871W        W27887  23.649  11.281  20.962 -0.0160 -0.0867 -0.3141
84872W        W27888  26.607  15.348   0.318 -0.1842  0.0380  0.0415
84873W        W27889  11.325   0.668   7.043  0.0820 -0.2082 -0.2278
84874W        W27890   8.223   2.765  17.149  0.3062  0.2193  0.2189
84875W        W27891  25.450  29.087   1.481 -0.0372 -0.2991  0.1254
84876W        W27892  31.768  11.642  15.003 -0.1616  0.0882  0.2955
84877W        W27893  14.810   0.874   4.265  0.0478  0.0288  0.1801
84878W        W27894   4.910  20.607  24.452 -0.0544 -0.1498  0.1163
84879W        W27895  29.398  14.721  16.167 -0.2289 -0.1280  0.3865
84880W        W27896   4.043   3.467  15.085  0.1222 -0.1793 -0.1154
84881W        W27897  14.437  30.379  18.822  0.0648 -0.2730 -0.1011
84882W        W27898   4.683  34.777  13.527 -0.0118  0.2258  0.3806
84883W        W27899  24.146   7.883  17.407  0.0209  0.0738 -0.0255
84884W        W27900  32.440  32.679  21.931 -0.3305  0.0896  0.2492
84885W        W27901  16.565  17.102  12.993 -0.0582 -0.0064  0.0781
84886W        W27902  18.966  31.905  21.531  0.1004  0.0537 -0.0544
84887W        W27903  19.784  33.390  28.999 -0.0353 -0.2496 -0.3349
84888W        W27904  15.798   1.416  20.013 -0.0113  0.2589 -0.2862
84889W        W27905  25.353  29.314  18.899 -0.0371  0.1878 -0.1645
84890W        W27906  24.725  28.940  29.313 -0.1118  0.1173  0.3037
84891W        W27907  21.465  14.027  13.798 -0.3323 -0.1398  0.0764
84892W        W27908   8.569  27.754  21.678 -0.2072  0.3012  0.0386
84893W        W27909  12.327   0.641  22.927 -0.2935  0.4474 -0.2359
84894W        W27910   5.153  30.969  18.778  0.0233  0.1741  0.0908
84895W        W27911   7.502   4.107   5.422  0.0332  0.0665  0.0121
84896W        W27912  20.413  31.493  25.871  0.1209  0.0135  0.0709
84897W        W27913   0.040  17.696   1.933 -0.3346  0.2517 -0.3344
84898W        W27914  24.167   2.644  18.833  0.2959 -0.1313  0.0187
84899W        W27915  14.025   0.846   1.919 -0.1093  0.0776 -0.2525
84900W        W27916   8.203  14.602  21.079 -0.1086  0.1242  0.2306
84901W        W27917  23.680   9.968   0.625 -0.0472  0.0747  0.2301
84902W        W27918  20.200   2.385  16.258  0.0059 -0.1248  0.2083
84903W        W27919  16.986   3.270  17.458  0.0131 -0.1164 -0.0981
84904W        W27920   9.954   8.586  17.067 -0.2449 -0.2501 -0.0824
84905W        W27921  22.333   6.700  28.481  0.3433 -0.0284  0.1547
84906W        W27922  32.010  10.997  26.572 -0.1116  0.0203  0.1399
84907W        W27923  20.398   5.650  21.036 -0.1497  0.2167 -0.3517
84908W        W27924  17.747  11.960  20.183  0.1535  0.2371 -0.0328
84909W        W27925  10.592  27.675  23.296 -0.1575 -0.1409 -0.1079
84910W        W27926  24.019   6.312  17.180  0.0882 -0.0454  0.0420
84911W        W27927  13.384   3.298  18.655 -0.2091  0.1025  0.0875
84912W        W27928  15.862  27.023  19.952 -0.1346  0.0185 -0.0924
84913W        W27929   1.802  18.054  23.709  0.1596  0.0158 -0.0099
84914W        W27930  21.065  31.408  19.917 -0.1246 -0.2146 -0.2716
84915W        W27931  29.680  29.537  27.284 -0.1240 -0.0038 -0.4145
84916W        W27932  19.756   1.281  18.777  0.1910  0.2748 -0.1294
84917W        W27933  27.230   7.683  15.620  0.1047  0.2136 -0.1489
84918W        W27934  20.124   9.308  13.056 -0.0656  0.4466  0.1568
84919W        W27935   9.340   2.007  21.749 -0.0108 -0.0039  0.0147
84920W        W27936  15.186  34.175  16.752 -0.0696  0.4108 -0.1432
84921W        W27937  10.676  33.314  23.852 -0.0198  0.1484  0.3530
84922W        W27938   6.872  19.818  29.179  0.2237 -0.1658 -0.0624
84923W        W27939  33.641  24.865  21.510 -0.0404 -0.3932 -0.1703
84924W        W27940  14.372  29.397  23.701 -0.1226  0.2582 -0.2468
84925W        W27941  27.941  32.222  18.601  0.1081  0.0340 -0.1619
84926W        W27942  24.415   0.081  18.057 -0.0365 -0.1854  0.0718
84927W        W27943  22.977   8.990  15.908 -0.2050 -0.3262  0.1874
84928W        W27944  22.361   5.674  28.078 -0.0028  0.4121 -0.0248
84929W        W27945  27.848   8.157  25.214 -0.0772 -0.1286  0.1646
84930W        W27946  25.166  11.541   1.448  0.3442  0.1720 -0.0611
84931W        W27947  15.901   9.048   0.372  0.2440 -0.2530 -0.0013
84932W        W27948  17.166  14.201  19.795 -0.1980 -0.2060 -0.0914
84933W        W27949  16.334  15.984  14.763 -0.2108 -0.1744  0.0723
84934W        W27950  18.842  30.923  17.865 -0.0787 -0.0891 -0.0943
84935W        W27951  34.347  11.317  23.595  0.2663 -0.0522  0.0450
84936W        W27952  15.865  33.068  19.749  0.4317  0.1341 -0.0245
84937W        W27953  13.358  11.546  18.307 -0.4183 -0.0732 -0.0653
84938W        W27954  28.777   2.056  16.646 -0.0367 -0.2117 -0.6763
84939W        W27955  18.831  32.595  17.924  0.0945  0.3147  0.2869
84940W        W27956   0.683   9.195  18.550  0.3983  0.1588 -0.0008
84941W        W27957  11.716   8.225   4.968 -0.1044  0.1739  0.0414
84942W        W27958  29.950  11.954  19.027  0.0634 -0.1338  0.1953
84943W        W27959  27.179  10.980   1.345 -0.1251 -0.1519 -0.2980
84944W        W27960   2.392  27.805  18.467 -0.1565 -0.2571 -0.1033
84945W        W27961  10.455   1.411  21.346  0.0461  0.0065 -0.3721
84946W        W27962  29.837   2.728  27.607 -0.0052  0.1360 -0.0365
84947W        W27963  13.219  26.880  28.015  0.0985 -0.0674 -0.0988
84948W        W27964  13.669  34.164   1.437 -0.0466  0.0102  0.1763
84949W        W27965  26.683   0.095  29.197 -0.0825 -0.0904 -0.0522
84950W        W27966  19.567   7.023  20.363 -0.1411  0.0362  0.2764
84951W        W27967   9.114  32.908  16.995 -0.1522  0.0402  0.0216
84952W        W27968  19.129  34.202  19.855 -0.2146  0.1120  0.0494
84953W        W27969  23.199   0.682  17.475  0.0659  0.0153 -0.0484
84954W        W27970  10.899   3.647   1.500 -0.1478 -0.0824  0.2025
84955W        W27971  22.185  23.843  24.959  0.1487 -0.0841  0.2506
84956W        W27972  19.665  16.519  22.019 -0.0102 -0.0915 -0.3336
84957W        W27973   8.155   9.982  16.223  0.0775  0.1195  0.2187
84958W        W27974  25.706   0.175  19.368 -0.1736  0.0831 -0.2165
84959W        W27975  22.054   0.335  26.769  0.1375 -0.3292 -0.0001
84960W        W27976  15.262   2.630  19.721  0.0614 -0.3213  0.4319
84961W        W27977   0.127   6.596  24.975 -0.1066 -0.2605 -0.1119
84962W        W27978  13.848   2.975  21.894  0.2230  0.1132  0.2531
84963W        W27979  26.426  33.517   3.495 -0.0668 -0.1186  0.1630
84964W        W27980  15.460   5.801  18.000  0.0886 -0.1249 -0.2288
84965W        W27981  14.786  33.702  19.470  0.0924  0.1625  0.2976
84966W        W27982  18.948   0.638  14.921  0.1208 -0.1466 -0.0173
84967W        W27983  19.636  33.767  27.426  0.1921  0.5878  0.1356
84968W        W27984  34.295  33.996  22.789  0.0226  0.4945  0.1344
84969W        W27985   5.302  34.090  18.472  0.1929 -0.1330  0.1076
84970W        W27986  31.987  20.267  27.411  0.3304 -0.0371 -0.4246
84971W        W27987  13.173   6.248  22.500 -0.2529 -0.3480  0.0204
84972W        W27988  25.295  12.332  18.235 -0.2038  0.1633  0.0398
84973W        W27989   5.854  32.558  14.839  0.0098 -0.0688  0.1967
84974W        W27990  16.884  12.285  16.452 -0.1319  0.0182  0.1295
84975W        W27991  18.623   2.309  22.894 -0.1267  0.3938  0.0795
84976W        W27992  13.722  10.085  18.800  0.0502 -0.3536  0.0419
84977W        W27993  27.929   8.296  22.220 -0.1262  0.0701 -0.1703
84978W        W27994   2.636   5.822  17.257  0.2331  0.2276  0.1180
84979W        W27995  23.151  12.396  22.168 -0.2689 -0.0077 -0.4066
84980W        W27996   9.871  23.605  27.253 -0.1101 -0.0649  0.0015
84981W        W27997  26.420   4.613  18.065  0.3167  0.1653  0.0032
84982W        W27998  33.146  17.592  26.586  0.0650 -0.0841  0.0503
84983W        W27999  33.418   7.617   0.949  0.1538 -0.0320  0.0384
84984W        W28000  32.012   7.501  20.221 -0.1785  0.1952 -0.1410
84985W        W28001  20.596  32.578   0.861 -0.3509 -0.0217 -0.3321
84986W        W28002  15.444  34.165  26.170  0.0003  0.0126 -0.1550
84987W        W28003  26.647  27.633  23.949  0.1068 -0.1555 -0.0804
84988W        W28004   1.639  16.027  22.195  0.0419  0.0077 -0.0727
84989W        W28005   2.444   5.523  15.255 -0.2930  0.1219 -0.0774
84990W        W28006  26.710   3.004  18.605  0.0102 -0.2604 -0.1675
84991W        W28007   4.131  17.379  14.650  0.1973  0.0783 -0.3077
84992W        W28008  26.942  21.947  19.698  0.0730  0.2112 -0.2355
84993W        W28009  21.095   3.641  19.276 -0.1567 -0.3022 -0.0678
84994W        W28010  20.431   7.519  17.458 -0.1741  0.1045 -0.1426
84995W        W28011   1.376   9.418  10.051 -0.1381  0.0086  0.1916
84996W        W28012  23.892  29.971  21.883 -0.0140 -0.1437 -0.2236
84997W        W28013  34.400   1.085  14.767  0.2034 -0.1453  0.2131
84998W        W28014  26.250   1.604  27.684  0.1948  0.1121 -0.1391
84999W        W28015  30.122  16.805  27.014  0.0176  0.2721  0.0465
85000W        W28016   8.614   6.999  21.869 -0.0730 -0.2017 -0.0858
85001W        W28017  13.111   5.667  23.847 -0.3235 -0.0751 -0.3437
85002W        W28018  23.085   7.753  16.959 -0.0067 -0.1643 -0.2884
85003W        W28019  17.406   5.463  16.400 -0.0164  0.1322 -0.1265
85004W        W28020  12.994  23.400  13.469 -0.3032 -0.0022  0.2586
85005W        W28021  28.649   0.002  20.213 -0.0254  0.1565 -0.1539
85006W        W28022   7.490   4.606  23.502 -0.2598  0.0837 -0.2593
85007W        W28023  23.606  17.061   3.859 -0.0384  0.0925  0.2298
85008W        W28024  31.206  30.918  15.917  0.2479 -0.1369  0.2263
85009W        W28025  22.857   4.465   5.532  0.1274  0.0806 -0.0580
85010W        W28026  23.662   8.355   3.734  0.0036  0.0559  0.1816
85011W        W28027   6.227  15.744   2.319  0.0857 -0.1345 -0.0083
85012W        W28028  24.461  25.502  26.588 -0.0483 -0.0488 -0.3167
85013W        W28029  30.883   6.215  16.728 -0.0269  0.0980 -0.1733
85014W        W28030  18.478  32.483  28.363  0.0894 -0.0094 -0.1993
85015W        W28031  25.089  16.273   4.632 -0.1293 -0.0341 -0.0222
85016W        W28032   4.771  24.450  17.220 -0.0315 -0.2094  0.0246
85017W        W28033  33.608  33.754  17.109 -0.2007  0.3006 -0.1084
85018W        W28034  22.498  34.451  22.229 -0.0330  0.2732  0.1392
85019W        W28035   8.630  28.716  25.219  0.1472 -0.1333  0.0852
85020W        W28036   9.493  34.611  28.725 -0.0089 -0.0509 -0.2181
85021W        W28037  26.393  10.884  27.255  0.1699  0.0514 -0.0722
85022W        W28038   1.537   7.437  20.720 -0.2495  0.2252 -0.0687
85023W        W28039   3.467   3.197  20.918  0.3982  0.0238 -0.0824
85024W        W28040  14.102   0.126  27.638 -0.0399 -0.0674 -0.0556
85025W        W28041  26.210   0.929  20.692 -0.2385 -0.1439 -0.0293
85026W        W28042  34.066   8.324  24.478 -0.0154  0.1113  0.1041
85027W        W28043  27.600  10.221  15.193  0.1925  0.0585 -0.1328
85028W        W28044  15.162  32.673  27.974 -0.0181 -0.0531  0.0605
85029W        W28045  21.470  26.395  20.171  0.1947  0.0964 -0.1536
85030W        W28046  20.601  31.110  24.175  0.0219  0.0547 -0.2477
85031W        W28047  23.920   5.302  17.926 -0.0513  0.0436  0.1027
85032W        W28048  17.502  10.399  20.009 -0.1386 -0.0939  0.1555
85033W        W28049  16.024  33.655  24.391 -0.1857  0.0875 -0.1278
85034W        W28050  18.338   9.020  19.589 -0.0650  0.2496  0.0157
85035W        W28051  14.067  27.252  17.058 -0.0051 -0.0481  0.3210
85036W        W28052  23.130  14.364  18.253  0.0392  0.1004  0.1686
85037W        W28053  13.368   3.169  27.300  0.0895  0.0692  0.1024
85038W        W28054  31.535   0.200  15.147 -0.0096  0.2898 -0.1206
85039W        W28055  23.574  13.584  23.633 -0.0521  0.1081 -0.1159
85040W        W28056  17.087  28.631  19.052 -0.1966  0.0509 -0.0816
85041W        W28057  25.225   9.598  19.408  0.0144 -0.0090  0.0318
85042W        W28058  15.174   6.893  22.774  0.2536  0.0979  0.0536
85043W        W28059  21.747  19.784  14.566  0.1453  0.1975  0.2135
85044W        W28060   8.575   4.304  23.442  0.3816 -0.1134 -0.0468
85045W        W28061  17.489   9.355  24.433  0.5574 -0.0836  0.0450
85046W        W28062  29.089   7.718  26.121 -0.1664  0.0323 -0.0636
85047W        W28063  16.146   7.040  22.740 -0.0882 -0.0191  0.2838
85048W        W28064  20.587  11.962  13.525 -0.0122  0.1627 -0.2117
85049W        W28065  23.490   7.607  20.564 -0.1193 -0.1072  0.0521
85050W        W28066   7.718  13.062  16.520 -0.1761 -0.1899  0.0077
85051W        W28067  19.451   4.871  25.408  0.0774 -0.0424 -0.1971
85052W        W28068  13.225   5.235  18.720  0.0005 -0.1114 -0.2044
85053W        W28069  20.436   8.493  25.067 -0.1113  0.0703 -0.2815
85054W        W28070   5.505   7.670  14.888  0.0494 -0.0332 -0.0334
85055W        W28071  14.495  20.622  20.298 -0.1258  0.1264 -0.2011
85056W        W28072  20.724  16.528  20.909 -0.2249 -0.1156  0.1355
85057W        W28073  23.441  34.625  23.703 -0.5265 -0.0677  0.2763
85058W        W28074  15.109  31.022   4.715  0.1059 -0.1219 -0.0214
85059W        W28075  10.993  32.608  24.854  0.2305 -0.1551  0.0080
85060W        W28076  21.558  10.119   7.875  0.0055  0.1712  0.0488
85061W        W28077  25.154   2.188  18.839 -0.1018 -0.1330 -0.3213
85062W        W28078  21.447   2.377  27.734 -0.0484 -0.0461  0.1726
85063W        W28079  18.888   6.986  22.264  0.0370 -0.3649 -0.2891
85064W        W28080  27.393   2.376  21.764  0.1728  0.0830  0.0898
85065W        W28081  32.107  11.895  26.838 -0.0740  0.2056 -0.5625
85066W        W28082  22.550  34.320  15.636  0.0051 -0.0463  0.1864
85067W        W28083  17.784   7.683  13.152 -0.2104  0.1249  0.0050
85068W        W28084  12.348   1.077  16.324 -0.0174 -0.0943 -0.0738
85069W        W28085  13.861  33.866  21.210 -0.2334 -0.0252 -0.2459
85070W        W28086  12.365  23.475  16.823  0.1420 -0.0165  0.1236
85071W        W28087  30.473  17.123  26.766  0.0207  0.1493 -0.2185
85072W        W28088  31.951   5.097  23.324 -0.2015 -0.4457  0.1334
85073W        W28089  22.049  30.481  22.005 -0.1274  0.1050 -0.1034
85074W        W28090  17.201   4.403  22.050  0.1731 -0.2870  0.0766
85075W        W28091  13.854  21.201  20.565 -0.0850  0.0796 -0.3664
85076W        W28092  24.859   8.536  16.850 -0.1355  0.1460 -0.2279
85077W        W28093  18.861   2.806  22.823  0.0704  0.2095  0.0791
85078W        W28094  23.264   3.149  17.506  0.2752  0.0339 -0.2685
85079W        W28095  16.505  28.015  18.908 -0.0301 -0.1117 -0.1899
85080W        W28096  22.091  11.052  23.440  0.3356 -0.2418  0.2312
85081W        W28097  22.841  33.293  18.433 -0.2852  0.0246 -0.2223
85082W        W28098  17.636   2.598  16.520  0.0496 -0.0153  0.0592
85083W        W28099   6.455  22.004  23.088  0.3007  0.1272  0.3277
85084W        W28100  24.817  11.121  16.382 -0.0360  0.1476 -0.0115
85085W        W28101  22.976  13.812  16.836 -0.0364 -0.0193 -0.1854
85086W        W28102  19.042  23.480  25.157 -0.1942 -0.0718  0.0530
85087W        W28103   7.724  30.549  18.794  0.1562 -0.1192  0.0117
85088W        W28104  17.857   5.444  18.017 -0.0801 -0.1489 -0.1651
85089W        W28105  23.419   7.034  19.468  0.0957  0.0713  0.0356
85090W        W28106  21.016   2.729  26.983  0.0186 -0.2669 -0.1689
85091W        W28107   9.110  28.432  21.629  0.2029 -0.1167 -0.3588
85092W        W28108   8.764  13.548  20.083  0.2943 -0.0100  0.0916
85093W        W28109  29.996   3.676  18.488 -0.1123 -0.2939  0.0058
85094W        W28110  15.939  25.018  17.292 -0.0073  0.0284 -0.0170
85095W        W28111  15.257   5.556  20.148  0.2406  0.1449  0.0210
85096W        W28112   5.812   7.556  26.843 -0.4359 -0.1203 -0.0650
85097W        W28113  26.450   8.983  26.519  0.2184  0.2108 -0.2051
85098W        W28114  16.782   9.796  14.742  0.0798  0.1720  0.2303
85099W        W28115  33.923  31.207  23.160 -0.1660 -0.1552 -0.4187
85100W        W28116   2.819  29.893  18.811 -0.2296  0.0194  0.1472
85101W        W28117  15.956  34.603  23.715  0.0178  0.0728  0.0424
85102W        W28118  24.931   9.234  22.867  0.1491 -0.0563  0.4913
85103W        W28119  25.186   4.959   6.166  0.0939 -0.2896 -0.0166
85104W        W28120  21.468   3.282  20.095 -0.2626 -0.1866  0.2172
85105W        W28121  21.779  20.061  16.537  0.3851  0.0280 -0.2477
85106W        W28122  15.069  17.785  19.594 -0.0278  0.0978 -0.0365
85107W        W28123  25.611  12.937  21.853 -0.4398  0.0563 -0.0049
85108W        W28124  20.495   7.750  23.288 -0.5505  0.3055 -0.1370
85109W        W28125  10.937  18.624  15.920 -0.3494 -0.1330  0.0327
85110W        W28126  24.006  22.629  15.851  0.3405 -0.3071 -0.0545
85111W        W28127  28.135  16.834  23.593  0.2461  0.1276  0.0125
85112W        W28128  26.711  19.124   0.631  0.0601 -0.0150  0.1744
85113W        W28129   1.582  31.750  23.094  0.1441  0.1394  0.0480
85114W        W28130  18.277  10.127  25.129 -0.3013  0.3364  0.0947
85115W        W28131  25.858   1.205  16.221 -0.0466 -0.2411 -0.2688
85116W        W28132  26.283   9.285  23.126 -0.1315 -0.3440  0.0274
85117W        W28133  12.629   9.883  18.027  0.0533 -0.0433 -0.1881
85118W        W28134  15.068  31.657  20.504 -0.2524  0.1641  0.1501
85119W        W28135  21.891  10.030  23.061 -0.0222  0.1186 -0.0558
85120W        W28136  23.866  22.174  27.341  0.0252  0.0441 -0.0353
85121W        W28137  11.369  19.898  19.223 -0.0745  0.1539  0.2670
85122W        W28138  32.092  10.479  17.423  0.1713  0.1906  0.0083
85123W        W28139   9.313   7.416   3.837 -0.2076  0.1801  0.1646
85124W        W28140  14.547  32.608  20.241 -0.3082 -0.1657 -0.3236
85125W        W28141  23.555  30.376  25.812  0.1347  0.2571 -0.0925
85126W        W28142  12.676  14.725  21.108 -0.2682 -0.2513  0.1211
85127W        W28143   7.618  34.311  26.071 -0.0167  0.0050  0.1684
85128W        W28144  21.119  21.488  21.397 -0.1114  0.0066  0.0817
85129W        W28145   0.451   6.272  15.857 -0.0827 -0.2360  0.0014
85130W        W28146  25.386   4.651  25.011  0.2120  0.1759 -0.0993
85131W        W28147  26.109   9.694  20.677 -0.0716  0.3288  0.2250
85132W        W28148  26.993  14.883  24.993 -0.5173  0.0330 -0.0207
85133W        W28149  31.561  11.188  25.384 -0.0260 -0.0795 -0.2214
85134W        W28150  31.456  28.393  22.129 -0.1271 -0.0316 -0.0557
85135W        W28151  31.334   5.046  27.800 -0.2017 -0.0554 -0.2164
85136W        W28152  12.440   1.063  25.893 -0.2508  0.0960  0.1360
85137W        W28153  30.330   6.613  19.884  0.1103  0.1799 -0.0689
85138W        W28154   2.644  11.391  26.726  0.4525  0.1361 -0.1348
85139W        W28155  33.308   6.536  19.663  0.4377 -0.1364 -0.0957
85140W        W28156  23.953  33.572  21.465  0.0352 -0.2017  0.0152
85141W        W28157  15.451  25.619  28.195 -0.0453 -0.1049  0.2370
85142W        W28158   4.617   9.613  25.324  0.1183  0.2242 -0.2415
85143W        W28159  26.510   3.813  23.270 -0.0999 -0.0053  0.0330
85144W        W28160  13.311   7.888   3.569  0.0542  0.1408  0.0118
85145W        W28161  13.648  34.392  21.233 -0.0136  0.1329  0.0589
85146W        W28162  22.016  21.389  16.071 -0.1925 -0.4815  0.0358
85147W        W28163  28.512  19.425  16.086 -0.0547  0.4799  0.0119
85148W        W28164  12.670   9.048  17.812  0.0245 -0.0464 -0.0376
85149W        W28165   0.836  33.821  20.039 -0.0259 -0.1428 -0.0574
85150W        W28166  31.496  24.362   0.753  0.0090 -0.1526  0.0535
85151W        W28167  23.996   5.779  17.709  0.0300 -0.0639  0.0354
85152W        W28168  18.281   9.795  27.653 -0.0307  0.1434  0.1564
85153W        W28169  23.322  30.415  19.458  0.1755 -0.2946  0.2423
85154W        W28170   8.922  11.372  23.706  0.5954 -0.0721 -0.2233
85155W        W28171  24.574   5.294  28.710 -0.1125 -0.1175  0.0534
85156W        W28172  17.374   6.571   1.692  0.0838  0.0290 -0.2507
85157W        W28173   4.003   5.253  24.108  0.4038  0.0714 -0.1598
85158W        W28174  26.370  10.276  16.540  0.0045 -0.0419  0.1984
85159W        W28175  14.738  29.178  17.875  0.1825  0.0929  0.0702
85160W        W28176  15.786  32.539  15.325  0.2201 -0.1646  0.0693
85161W        W28177  16.831   5.117  23.048  0.0742 -0.0937  0.0167
85162W        W28178   7.924   8.078  14.729 -0.1513 -0.0203  0.2043
85163W        W28179  18.058   0.934   0.451 -0.2536  0.1767  0.1898
85164W        W28180  11.617  31.604  21.694  0.4501  0.0728 -0.1453
85165W        W28181   3.000   5.024  26.648 -0.2306 -0.1958 -0.0640
85166W        W28182  18.990  16.097  12.986 -0.2184  0.1528  0.4920
85167W        W28183  24.563   4.217  21.767  0.2990  0.1620 -0.1544
85168W        W28184  16.508  16.139  18.207 -0.1587 -0.0037 -0.2058
85169W        W28185  27.330  34.111  27.546  0.1028 -0.1672 -0.1135
85170W        W28186  14.688  13.268  27.204 -0.3134  0.0704  0.1781
85171W        W28187  22.855  32.497  21.177 -0.2297 -0.3403  0.1425
85172W        W28188  15.275  25.469  16.915  0.0964 -0.0756 -0.0060
85173W        W28189  27.173   8.259  17.245 -0.1639  0.0267 -0.1316
85174W        W28190  10.189   9.011  13.422 -0.1982  0.1388 -0.0354
85175W        W28191  22.833  13.463  18.044 -0.0564  0.2523 -0.1349
85176W        W28192  28.312  14.051   5.012  0.0889  0.1220  0.0879
85177W        W28193  19.504   7.274  17.103 -0.3256 -0.0216 -0.0488
85178W        W28194  30.073  12.820  28.554 -0.1540 -0.0459  0.0555
85179W        W28195   0.900  22.763  23.626 -0.2830 -0.2671  0.2283
85180W        W28196   2.371   1.017  23.669 -0.0722  0.2702 -0.0181
85181W        W28197  33.931  28.755   2.729 -0.2539 -0.0010  0.1186
85182W        W28198  23.169  12.651  29.260 -0.3076 -0.2991  0.0469
85183W        W28199  16.869  33.150  18.771  0.0318  0.1098 -0.1284
85184W        W28200  31.682  21.613   8.618  0.1617 -0.1577  0.5373
85185W        W28201  22.192  29.564  18.479  0.2927  0.3228  0.1297
85186W        W28202  29.091   2.567  25.791 -0.0277 -0.1625 -0.1753
85187W        W28203  24.067   7.163   7.292  0.2454  0.1376 -0.0402
85188W        W28204  21.186  15.754  13.201 -0.1843 -0.0849 -0.2242
85189W        W28205  17.588  20.922  21.548  0.0543  0.0325 -0.0377
85190W        W28206  22.064   4.646  16.378  0.0977  0.1640  0.0681
85191W        W28207  19.471   4.376  16.176  0.3313 -0.4243 -0.1442
85192W        W28208  16.932  20.249  24.422 -0.1538 -0.1530 -0.1240
85193W        W28209   9.928  30.538  19.130  0.0943  0.2422 -0.2671
85194W        W28210  31.378  26.499  20.644 -0.1016 -0.2064 -0.2481
85195W        W28211   8.652   0.167  23.949  0.0582  0.0967  0.0230
85196W        W28212  26.581   2.158   3.933  0.1466  0.2370  0.1139
85197W        W28213   6.575  14.907  25.010  0.1209 -0.0768 -0.0936
85198W        W28214  30.718  31.181  10.542 -0.2455  0.1331  0.0303
85199W        W28215  13.669   1.237   0.722 -0.4742 -0.1103 -0.4108
85200W        W28216   7.744   4.468  15.548  0.0609 -0.2153  0.0868
85201W        W28217  33.288  13.691  16.745 -0.2724  0.2645 -0.2818
85202W        W28218  17.795   7.925  20.536 -0.1244  0.0531  0.2258
85203W        W28219   9.859   4.246  17.471 -0.2799  0.0888  0.0205
85204W        W28220  16.223   1.615   1.899 -0.2115  0.0442  0.1725
85205W        W28221  24.093  27.412  17.656 -0.0608  0.3297 -0.1597
85206W        W28222   0.676   5.726  19.540 -0.0839 -0.1568 -0.0790
85207W        W28223  14.245  11.614   4.264 -0.2515  0.0372  0.0323
85208W        W28224  25.901   0.794  21.825  0.1424 -0.1377  0.0276
85209W        W28225   4.620   6.142  18.847  0.0486 -0.2974 -0.0341
85210W        W28226   4.888  31.068  16.912 -0.0794 -0.1613 -0.3433
85211W        W28227  21.878   0.808  19.197  0.1411  0.1220  0.1285
85212W        W28228  20.495  30.464  24.844  0.1220  0.1315 -0.1476
85213W        W28229  27.635  33.769  17.644  0.1395 -0.0760  0.3318
85214W        W28230  17.177  34.175   2.508 -0.1649 -0.4480 -0.1792
85215W        W28231  20.101   3.705  23.951 -0.1007 -0.1170 -0.1650
85216W        W28232  27.554  31.383  19.870 -0.2570  0.1457  0.0827
85217W        W28233  23.385  25.913  26.194  0.1506  0.2826 -0.1051
85218W        W28234  30.286  31.336   6.299 -0.0909  0.0157 -0.1490
85219W        W28235  15.419  24.116   0.575  0.2125  0.3857 -0.1967
85220W        W28236  14.212   4.422  14.066  0.1264 -0.2878 -0.0396
85221W        W28237  28.661  32.669  17.332 -0.1225  0.1203  0.0426
85222W        W28238  20.248  10.356   0.124  0.1763 -0.3124  0.2436
85223W        W28239  10.568  33.300  15.271  0.0831 -0.0092 -0.1539
85224W        W28240  22.740   0.125   4.149 -0.1650  0.1843  0.3062
85225W        W28241   7.715   2.672  17.283 -0.1843  0.3590  0.0828
85226W        W28242  21.420  26.335  18.520  0.0072  0.1960  0.1327
85227W        W28243   9.199   5.742  14.544  0.3799  0.2479 -0.1604
85228W        W28244   5.924  16.154  20.454 -0.0677  0.0266 -0.0519
85229W        W28245   6.365   1.943  15.862 -0.1968 -0.1342  0.2224
85230W        W28246  11.360  34.523  21.666  0.1601 -0.1703  0.0006
85231W        W28247  19.804   9.123  25.640 -0.1035  0.2403  0.2779
85232W        W28248  13.450  12.279  16.673  0.0519  0.1793 -0.2640
85233W        W28249  21.863   2.413   2.640  0.1092 -0.1047  0.2956
85234W        W28250  10.251  14.728  18.656 -0.0359  0.1088  0.1746
85235W        W28251  15.591  28.217   7.481  0.2434  0.1118 -0.1267
85236W        W28252  28.685  21.683  19.609 -0.2088 -0.4113 -0.0724
85237W        W28253  26.462   4.907  21.766  0.1013  0.2176 -0.0353
85238W        W28254   7.478  11.115  14.828  0.1043 -0.3165  0.0554
85239W        W28255   2.132  13.474   8.491  0.0382  0.1979 -0.0406
85240W        W28256  11.663  32.137  16.536  0.1369 -0.3032  0.2495
85241W        W28257  18.060   8.542  18.538 -0.0587  0.1810  0.0749
85242W        W28258  24.930  34.658  29.108 -0.0350 -0.1808 -0.2581
85243W        W28259  16.982   4.717  13.969  0.3239 -0.0055 -0.0591
85244W        W28260  18.663   1.920  14.266  0.0262  0.0068  0.2505
85245W        W28261  31.880  30.729   0.153  0.0938 -0.1754  0.3559
85246W        W28262  13.587  32.137  18.220  0.0608  0.1581  0.1569
85247W        W28263  29.384  19.555  16.994 -0.0055  0.0812 -0.4338
85248W        W28264  32.262  33.504  24.061  0.1807 -0.0180 -0.3042
85249W        W28265   1.016  34.319  27.319 -0.3327  0.0204 -0.1674
85250W        W28266  27.342   5.918  28.707  0.1844  0.2143 -0.0643
85251W        W28267  19.050  11.956  21.013  0.2626  0.0507  0.0138
85252W        W28268  23.256   1.042  28.752 -0.0819 -0.0659 -0.0680
85253W        W28269   0.358  21.005   2.971  0.0493  0.1175  0.1474
85254W        W28270  18.410  23.204  24.465  0.2752  0.2322  0.2191
85255W        W28271  18.784  27.302  23.899 -0.1897  0.1037  0.1533
85256W        W28272  10.452   4.112  15.055 -0.2650  0.3355 -0.0638
85257W        W28273  24.610   3.160  22.079  0.1842  0.1714 -0.0754
85258W        W28274  28.800  27.827  16.608 -0.0927 -0.3964 -0.1336
85259W        W28275   3.629   0.686  20.124  0.1077  0.0626  0.2602
85260W        W28276  21.402   7.352  24.293  0.2588 -0.1652  0.0479
85261W        W28277  19.118   2.093  25.596 -0.2508  0.2246 -0.2584
85262W        W28278   4.044   3.854  10.689  0.0105 -0.0278 -0.1059
85263W        W28279  24.829   5.498  15.240 -0.0352 -0.2125 -0.0842
85264W        W28280  24.908  14.149   5.927 -0.1946  0.2888 -0.2021
85265W        W28281  23.422  27.050   1.293 -0.1164 -0.2428 -0.0254
85266W        W28282  14.282  11.822  15.668  0.1728  0.3248  0.4047
85267W        W28283  23.508   9.378  25.248 -0.0003 -0.4246 -0.2508
85268W        W28284  24.569  17.193   0.780  0.2842  0.3243  0.2176
85269W        W28285  33.495   6.618  14.802  0.0773  0.2087 -0.0244
85270W        W28286  29.628  17.885   2.516 -0.1359  0.0727  0.3710
85271W        W28287  31.621  10.647   3.040 -0.1245  0.0123 -0.2996
85272W        W28288  26.475  18.866   2.012  0.1542 -0.1825  0.0190
85273W        W28289  16.579  16.733  15.351  0.2170  0.0626 -0.0637
85274W        W28290  17.014   7.955  20.083  0.0512 -0.1099  0.4024
85275W        W28291  26.659   2.224  21.058 -0.3872  0.3081 -0.2953
85276W        W28292  15.730  15.374  13.740  0.0057 -0.2129 -0.0338
85277W        W28293   7.981  32.949  26.156  0.2599  0.1822  0.2252
85278W        W28294  28.202   4.947   0.812 -0.0836  0.3318  0.2123
85279W        W28295   3.039   7.770   3.754  0.0476  0.0784 -0.0709
85280W        W28296  16.745  30.925  23.518 -0.0494 -0.1877  0.2453
85281W        W28297   9.267  20.814  25.481 -0.2021  0.0002  0.3317
85282W        W28298  18.521   6.215  20.413  0.1538  0.1041 -0.3658
85283W        W28299  13.035  17.235  23.465 -0.1526 -0.0574  0.0728
85284W        W28300  17.653   2.626  24.914 -0.0115 -0.0143  0.1225
85285W        W28301   2.985   7.244   2.297  0.0392  0.0190 -0.2544
85286W        W28302   2.707  32.653   0.339 -0.0371  0.1722  0.2890
85287W        W28303  19.952   1.225  24.706 -0.0701 -0.1513  0.4462
85288W        W28304  14.827  17.388  27.835  0.0946 -0.1130 -0.0525
85289W        W28305  21.120  26.311  29.225 -0.3272 -0.0423  0.4329
85290W        W28306  22.267  11.994  14.957  0.2678 -0.1706 -0.0696
85291W        W28307  29.017  33.653   7.980 -0.0708  0.1584 -0.1792
85292W        W28308  33.410   6.241  28.703 -0.0040  0.2440  0.1356
85293W        W28309  14.437   4.014  24.028 -0.0095  0.1422  0.1413
85294W        W28310  32.932  20.528   7.657 -0.3536 -0.1290  0.0151
85295W        W28311  22.806  10.709  14.536 -0.0716  0.1907  0.1139
85296W        W28312  21.346   2.148  18.867 -0.2077 -0.1346 -0.0287
85297W        W28313  15.573   7.920  26.894  0.4872  0.3930 -0.3900
85298W        W28314  19.242   5.741  18.024 -0.2124 -0.2491  0.0492
85299W        W28315  21.875  26.813  28.653 -0.3229 -0.2299  0.0089
85300W        W28316  26.076   4.005   8.603 -0.2909 -0.1621 -0.1365
85301W        W28317   7.371  31.405  19.825  0.0048 -0.1375  0.0514
85302W        W28318  28.560   8.670  21.670 -0.2580 -0.0023 -0.1525
85303W        W28319   3.259   4.753  21.998  0.0224 -0.0484  0.0435
85304W        W28320  30.125  14.444  18.844 -0.0876  0.1376 -0.2385
85305W        W28321  17.695  16.219  24.153  0.1520  0.2746  0.1403
85306W        W28322  28.344  12.428  17.114 -0.0142  0.1154  0.0075
85307W        W28323  33.306   5.031  22.709 -0.2717  0.0521 -0.1462
85308W        W28324  15.763  31.994   7.472  0.0134 -0.0684 -0.3724
85309W        W28325  29.483  25.569  24.604 -0.4272  0.1816 -0.2694
85310W        W28326   2.880  34.452   1.688  0.1168  0.2497 -0.0603
85311W        W28327  16.232  27.055   6.331  0.2432 -0.0208  0.0330
85312W        W28328  34.373  26.600   7.886 -0.0466  0.0555  0.1399
85313W        W28329  29.825   4.672   9.632  0.2941 -0.2335  0.1789
85314W        W28330  18.444  23.774  13.598  0.0304  0.2219  0.1626
85315W        W28331  14.583  25.560  24.886  0.1178 -0.1464 -0.0357
85316W        W28332  22.329  10.678  26.067  0.0868  0.0657  0.0115
85317W        W28333  23.643  25.428  15.424 -0.2060  0.3214 -0.0618
85318W        W28334  30.462   6.949  24.870  0.0283  0.2785 -0.1361
85319W        W28335  23.366   1.362   5.314 -0.1921  0.0204  0.1316
85320W        W28336  24.152   3.893  23.577  0.0877  0.0134 -0.2186
85321W        W28337  18.448   3.322  26.811  0.1503 -0.1145  0.0956
85322W        W28338  23.171  30.534  20.444  0.2060 -0.2858 -0.0303
85323W        W28339  18.319   5.566   0.506  0.0770 -0.0391  0.0108
85324W        W28340  18.075  17.933  16.884 -0.0731  0.2047  0.1342
85325W        W28341  24.444  11.992  16.101 -0.2814 -0.1185  0.3628
85326W        W28342  19.180   5.164  19.827  0.2098  0.0740 -0.2103
85327W        W28343  15.924  12.465  15.271  0.1191 -0.1983  0.0020
85328W        W28344  15.972  11.117  25.951 -0.0508 -0.0678 -0.3372
85329W        W28345  24.821  24.278  17.038  0.0922 -0.1472 -0.3412
85330W        W28346  30.850   2.347  18.471  0.1985 -0.2010 -0.0603
85331W        W28347  26.782   1.960   1.075 -0.2839 -0.0109  0.3019
85332W        W28348  24.154   1.333  17.114  0.0236  0.1733  0.2023
85333W        W28349  19.383   3.921  27.290  0.1905  0.2178  0.3073
85334W        W28350   5.105   5.648  18.310 -0.0113  0.2185  0.2866
85335W        W28351   6.717  30.766  13.894 -0.1619 -0.0655 -0.2900
85336W        W28352  21.587  13.104  20.135  0.0966  0.1386  0.2527
85337W        W28353  24.619  14.133  24.056  0.0712 -0.4188  0.2726
85338W        W28354  16.913   5.075  25.261 -0.4002 -0.2057  0.1359
85339W        W28355  18.443   4.246  19.109  0.1495 -0.0267 -0.0010
85340W        W28356  18.685  29.507  21.291 -0.0670  0.2910 -0.4349
85341W        W28357  15.322  29.285  19.134 -0.3030 -0.0307  0.1607
85342W        W28358  27.651  17.455  20.745  0.1184 -0.1089  0.1661
85343W        W28359  32.851  13.323  17.653  0.0122  0.0134 -0.3748
85344W        W28360  29.450  31.773   8.379  0.2840  0.1380 -0.2533
85345W        W28361  12.332  16.478  27.208 -0.2272 -0.0884  0.1725
85346W        W28362   7.623  11.307  27.010 -0.1620  0.0240  0.2062
85347W        W28363   5.885  30.778  24.148 -0.0900 -0.1921 -0.0499
85348W        W28364  29.687  24.466   3.477  0.0714 -0.0127 -0.2955
85349W        W28365   2.351   2.975  15.859 -0.1231 -0.0946 -0.0606
85350W        W28366  14.713   2.822  28.732  0.0320  0.1614 -0.0092
85351W        W28367  11.359   0.342  26.785 -0.3314  0.0865 -0.1674
85352W        W28368  29.061  21.637  16.913 -0.0387 -0.2061 -0.1418
85353W        W28369  13.090  30.830  22.230  0.1967  0.1321  0.0374
85354W        W28370  21.591  13.598  28.112  0.1100  0.1672  0.1507
85355W        W28371  11.961   3.831  24.353  0.4905  0.1820  0.0145
85356W        W28372  30.364  24.359  17.402  0.0447  0.3101 -0.0525
85357W        W28373  21.426   4.009  26.617 -0.3279  0.1975  0.2561
85358W        W28374   8.960  34.732  18.224  0.0321 -0.1447 -0.3576
85359W        W28375   8.071   5.669  24.521 -0.2897 -0.0035 -0.0543
85360W        W28376   8.233  10.035  14.017  0.0639 -0.0973 -0.1592
85361W        W28377  30.691  18.735  17.596 -0.1542 -0.0903 -0.1554
85362W        W28378  15.865   8.780  20.056 -0.0052  0.1614 -0.0974
85363W        W28379  20.659  10.379  26.906 -0.0053  0.1656  0.0038
85364W        W28380  25.340   5.821  19.990  0.1087 -0.0838  0.0501
85365W        W28381   6.858   9.881  28.139 -0.0809  0.0239 -0.2391
85366W        W28382  19.426   3.424  16.614 -0.1355  0.0608 -0.1590
85367W        W28383  24.123   3.383  26.597  0.3963 -0.0028  0.3052
85368W        W28384  21.212   2.346  19.828  0.0769  0.3228  0.1882
85369W        W28385  26.546  26.184  24.069  0.1880  0.0653  0.1363
85370W        W28386  23.059  30.250   0.180 -0.0848  0.0231 -0.1670
85371W        W28387  18.707   1.721  16.412  0.1590  0.2914  0.0708
85372W        W28388  12.320  26.645  15.316 -0.0917  0.1242  0.2114
85373W        W28389  23.290  14.915  14.197 -0.0781 -0.1415  0.4091
85374W        W28390  25.875  15.050  23.004  0.1988  0.0362  0.2051
85375W        W28391  22.073  29.759  19.496 -0.1454 -0.1111  0.1123
85376W        W28392  33.686  13.755   4.815  0.0186 -0.0529  0.1000
85377W        W28393  31.776  34.377  14.881  0.2872 -0.0181 -0.0012
85378W        W28394   8.573  21.457  19.897  0.1993 -0.2591 -0.0105
85379W        W28395  29.378  22.867  23.700 -0.1813 -0.1837  0.0570
85380W        W28396  23.192  33.736  24.519  0.0963  0.0332  0.1302
85381W        W28397  18.551  31.777   2.591  0.1011 -0.1126  0.2391
85382W        W28398  18.709   9.204  21.857 -0.1048  0.0546 -0.1310
85383W        W28399  10.396   2.797  21.381  0.1674 -0.3941 -0.0069
85384W        W28400   6.399  34.751  28.027 -0.2395  0.1192 -0.0451
85385W        W28401  20.469   2.530  21.819  0.3289 -0.3939 -0.1524
85386W        W28402  20.045  13.339  21.316  0.0349  0.0739 -0.0156
85387W        W28403  18.568   0.462   4.348 -0.0636 -0.0149 -0.1314
85388W        W28404  28.502   6.785   1.038 -0.3498  0.0230  0.0660
85389W        W28405  23.018  19.830  18.904  0.2557 -0.1195  0.1924
85390W        W28406  20.163   2.706  26.203 -0.2542  0.0390 -0.1899
85391W        W28407  13.871   7.442   0.676  0.0757 -0.0452 -0.4287
85392W        W28408  15.177  17.185  16.200  0.0799 -0.1122  0.2385
85393W        W28409  33.500  32.167  15.577 -0.1320  0.1871  0.0878
85394W        W28410  29.481  14.919   0.900  0.1075 -0.0012 -0.0301
85395W        W28411  24.356   7.259   4.471 -0.3653 -0.2690 -0.3002
85396W        W28412  25.523   1.083  27.045 -0.0537  0.0113  0.1970
85397W        W28413   0.860  11.790  21.865 -0.4065 -0.0852 -0.1008
85398W        W28414  25.888   4.424  24.974  0.0863  0.1134 -0.0354
85399W        W28415  11.663   5.100  29.122 -0.0849  0.1889 -0.0192
85400W        W28416  21.369  28.399  18.137  0.2647 -0.0934 -0.1656
85401W        W28417  14.624  33.419  20.167  0.1380 -0.3252  0.2304
85402W        W28418  18.269  10.889  21.374  0.2447 -0.0943  0.0030
85403W        W28419  24.914  24.458  23.225 -0.2727  0.1581  0.1450
85404W        W28420   5.825  21.568   1.087  0.0866  0.0930  0.2897
85405W        W28421  29.489  25.749   2.321  0.3008  0.0275 -0.5344
85406W        W28422  28.460   7.180  24.745  0.4498 -0.0543  0.0154
85407W        W28423  34.275  13.026  10.687 -0.0433  0.0307  0.0741
85408W        W28424  15.810   4.181  28.815  0.1650 -0.3352  0.0165
85409W        W28425  13.587   5.498   9.692  0.1281  0.4263  0.1153
85410W        W28426  14.685   3.320  22.061 -0.1557 -0.3335 -0.0661
85411W        W28427  25.728   4.845   8.249 -0.0711  0.1107  0.0998
85412W        W28428  33.313   8.711   5.349 -0.0532  0.2251 -0.0587
85413W        W28429  19.760  24.977  13.997  0.1143  0.0447 -0.2026
85414W        W28430  10.139  12.616   3.976  0.1580 -0.3000  0.0116
85415W        W28431  20.328  32.555   1.333  0.0527 -0.1145 -0.0100
85416W        W28432   8.294  16.546  21.636 -0.2157 -0.3368 -0.0535
85417W        W28433  13.053  26.251   2.709 -0.0377  0.2955 -0.0308
85418W        W28434  17.693  15.594  14.878  0.1808  0.0475  0.0166
85419W        W28435   8.759  14.377  24.505 -0.2099 -0.0230  0.2384
85420W        W28436   5.549   4.392  23.484 -0.1735  0.1783  0.1034
85421W        W28437  22.603   4.470  28.808 -0.0341  0.2894  0.0001
85422W        W28438  28.151  14.723   9.006  0.2344 -0.0151 -0.0517
85423W        W28439  16.370  24.305  16.074 -0.0157  0.0683  0.1730
85424W        W28440  30.838  30.399  20.122 -0.0947 -0.3776  0.2481
85425W        W28441  15.486   1.552  24.922  0.0237  0.1281 -0.1371
85426W        W28442  31.074  25.787  15.886  0.1883 -0.1386 -0.0049
85427W        W28443  10.414  10.457  19.744  0.0841  0.2828 -0.1520
85428W        W28444   0.519   1.395  16.692 -0.3022 -0.1782  0.0307
85429W        W28445  28.847  33.114   7.879 -0.0260  0.1376  0.0007
85430W        W28446  12.891   1.545   0.374  0.1172  0.0623 -0.1685
85431W        W28447  32.033   1.261  22.521 -0.2404  0.1027  0.3705
85432W        W28448  33.699   7.826   8.314 -0.1434  0.0539  0.0920
85433W        W28449  24.972  31.112   4.591 -0.0224 -0.1377 -0.0835
85434W        W28450  15.057   3.784  17.172  0.1822 -0.3712 -0.0296
85435W        W28451   4.745   0.260   5.908  0.1420  0.1659  0.2206
85436W        W28452  18.964   8.276  22.684  0.2225  0.1253 -0.2850
85437W        W28453  13.917  33.919  18.778 -0.1169 -0.0464 -0.2114
85438W        W28454  30.540  15.017   2.826  0.1352 -0.0688  0.1823
85439W        W28455  12.058   3.199   3.200 -0.1654 -0.3454  0.1028
85440W        W28456  15.796   1.300  21.199  0.1339  0.0057 -0.2188
85441W        W28457  21.484   7.435  18.845  0.4658 -0.3714 -0.0464
85442W        W28458   7.821  33.621  23.041  0.0488 -0.0892 -0.2051
85443W        W28459  23.120   4.700  22.591 -0.3206 -0.1705 -0.0714
85444W        W28460  25.518  28.971   2.424 -0.0709 -0.2008 -0.1096
85445W        W28461   9.259  12.771  16.572 -0.2573 -0.0008 -0.0960
85446W        W28462  18.896   7.456  28.193 -0.0537  0.1664 -0.1833
85447W        W28463  33.263  15.003  25.149 -0.2540 -0.0968  0.4040
85448W        W28464  19.771   1.754  23.196 -0.2370 -0.0912 -0.2437
85449W        W28465  31.308  29.558  19.741  0.0887  0.0601 -0.0198
85450W        W28466  20.500  22.899  20.305  0.2462  0.1717  0.0308
85451W        W28467  32.296  13.026  15.280 -0.0163 -0.0633 -0.2428
85452W        W28468  30.076  11.115   6.638 -0.0385  0.3125 -0.1503
85453W        W28469   8.628  23.324  22.136  0.1871  0.1786 -0.2420
85454W        W28470   6.668  10.524  23.210  0.3177 -0.1104 -0.0248
85455W        W28471  24.424  28.204   3.590  0.1167  0.1131 -0.2407
85456W        W28472  27.045  14.685  18.311 -0.2314  0.0126 -0.2580
85457W        W28473  20.659  13.736  13.952  0.1899 -0.0632 -0.1874
85458W        W28474  15.127  20.960  15.225 -0.0889  0.0985  0.0788
85459W        W28475  17.917   2.094  16.228  0.2165 -0.1595 -0.1083
85460W        W28476  32.931  25.007  28.393 -0.1488  0.2107 -0.0613
85461W        W28477  14.969   3.034   5.260  0.4972  0.0856  0.0740
85462W        W28478  11.102  33.626   1.728 -0.2428 -0.1863 -0.0227
85463W        W28479  20.539  31.378  24.997  0.1001 -0.0808 -0.4316
85464W        W28480  20.582  25.867  21.927 -0.1302 -0.0122 -0.3610
85465W        W28481  21.838  33.974  21.778 -0.0564 -0.1013  0.1541
85466W        W28482  17.971  32.396  16.659  0.1086 -0.1214 -0.1345
85467W        W28483  30.600   8.605   3.327  0.3455 -0.1270  0.0835
85468W        W28484  11.843  33.637   2.564 -0.0600 -0.0601  0.1427
85469W        W28485  15.796   9.891  17.229  0.1113  0.1669  0.2581
85470W        W28486  17.852   1.912   4.866  0.0681  0.0110  0.2997
85471W        W28487  26.551  18.605   7.110 -0.2602  0.1005 -0.0077
85472W        W28488  18.767  31.677  23.916  0.1283 -0.1618 -0.0557
85473W        W28489  12.894  22.860  19.612 -0.4095  0.2380 -0.1071
85474W        W28490  16.742  33.079  17.512  0.2266  0.2884  0.5138
85475W        W28491  13.993  30.661   9.118  0.5079 -0.0274 -0.0302
85476W        W28492  26.789  10.003   1.830 -0.0478  0.0027  0.0553
85477W        W28493  15.610  11.958  19.919  0.0042  0.0026  0.1081
85478W        W28494  25.229  22.825  23.134 -0.2583  0.1146  0.1709
85479W        W28495  13.357   0.300   8.305  0.1529 -0.0845 -0.0475
85480W        W28496  29.096  23.306  26.507  0.1497  0.2048 -0.0776
85481W        W28497  20.931   1.852  19.653 -0.1156 -0.2818 -0.1548
85482W        W28498   2.784   1.756  24.146  0.3743  0.0571 -0.1176
85483W        W28499  18.137  33.819   0.800 -0.1510 -0.1319  0.1064
85484W        W28500  12.487  11.065   9.044 -0.2114  0.0919 -0.0362
85485W        W28501  12.584  28.075  14.801 -0.0315 -0.0078 -0.0928
85486W        W28502  28.333  20.223  24.750 -0.0665 -0.0201 -0.0474
85487W        W28503   7.344  32.383  17.297 -0.1235  0.1736 -0.1594
85488W        W28504  21.175  21.985   0.160  0.0549  0.1093  0.0778
85489W        W28505   3.334  34.339   2.494 -0.1430 -0.0208 -0.0486
85490W        W28506  31.118  24.109  16.011 -0.1381  0.1582  0.1487
85491W        W28507  19.512   1.242  19.210 -0.1300 -0.1563  0.0247
85492W        W28508  30.330  15.084  28.754  0.2221 -0.3470 -0.0643
85493W        W28509  20.969  30.188   0.258 -0.0803 -0.0115  0.0800
85494W        W28510  26.380   7.220  18.525 -0.0354  0.1572  0.1696
85495W        W28511  16.463  21.802  12.443 -0.0757 -0.2271 -0.3141
85496W        W28512  23.344  13.598  19.445  0.3207 -0.3995  0.0155
85497W        W28513  17.289   5.962  25.188  0.2448  0.1362  0.1978
85498W        W28514   4.939   3.417  15.946 -0.1949  0.2833 -0.4113
85499W        W28515  10.792  24.920  18.862  0.0038  0.0743  0.3837
85500W        W28516  19.481   6.192  20.643 -0.0415  0.0205  0.1218
85501W        W28517  18.149   6.172  18.702  0.2406  0.0691 -0.2357
85502W        W28518  16.917   3.668   0.733 -0.2625  0.1880  0.0657
85503W        W28519  27.941   5.220  23.196  0.0336  0.0297 -0.2920
85504W        W28520  15.253   1.243  15.352  0.1896  0.1545 -0.0425
85505W        W28521   8.382   7.889  17.846 -0.0518 -0.0808 -0.0120
85506W        W28522  29.795  34.469  21.216 -0.0944  0.1227  0.2841
85507W        W28523  15.044   1.689  17.748  0.1709 -0.1684 -0.3538
85508W        W28524   5.732   4.092  15.560 -0.0486  0.0613  0.0999
85509W        W28525   7.584   3.481  16.708 -0.1044  0.0894 -0.1680
85510W        W28526   3.183  18.765  27.928 -0.1527  0.1542  0.2978
85511W        W28527  14.944   4.219   9.150 -0.4404 -0.3831 -0.1357
85512W        W28528  16.652   3.406  16.610 -0.0350 -0.3221  0.2392
85513W        W28529  31.709  12.536   7.167 -0.2681 -0.0521  0.3050
85514W        W28530   3.920   1.082  25.491 -0.0513 -0.3119 -0.1468
85515W        W28531  11.939  33.074  15.007  0.1835  0.0206  0.3628
85516W        W28532  20.297  19.557   0.876 -0.0400  0.0341 -0.0151
85517W        W28533  26.440  11.661  17.812 -0.0151  0.0248 -0.0541
85518W        W28534  11.777   0.664  21.469 -0.0674 -0.2558  0.2834
85519W        W28535  24.662  25.099  19.142  0.0423 -0.2916 -0.0432
85520W        W28536  18.208  30.402  17.430  0.0785  0.1912  0.3817
85521W        W28537  17.603   5.666  26.027  0.2622 -0.3632 -0.1878
85522W        W28538  13.938  28.145  16.334 -0.1305 -0.0408  0.2171
85523W        W28539  27.388   8.591  15.848  0.0469 -0.0909 -0.0294
85524W        W28540  25.038   1.066  27.298  0.0842 -0.2915 -0.1073
85525W        W28541  24.401  17.420  27.549  0.2354  0.0540  0.3469
85526W        W28542   7.174   8.447  21.161  0.0900 -0.1503  0.0418
85527W        W28543  32.623  23.674  25.678 -0.0713 -0.0456 -0.1404
85528W        W28544  30.953  10.239  16.154 -0.0229  0.0053  0.2041
85529W        W28545  14.771  29.290   1.008  0.0514 -0.0815  0.1165
85530W        W28546  32.375   3.958  17.267 -0.1867  0.2380  0.1913
85531W        W28547  18.050   3.120  15.427  0.0627 -0.0345  0.1573
85532W        W28548  14.912  14.714  23.985 -0.1724 -0.2164  0.0217
85533W        W28549  12.324   8.037   0.409  0.0229  0.3065  0.5659
85534W        W28550   3.212  19.691  18.382  0.2433 -0.1066  0.1288
85535W        W28551  30.222  16.128  20.765 -0.0750 -0.0605  0.0759
85536W        W28552  31.909   3.095   7.943  0.0301  0.0048  0.2043
85537W        W28553  29.163  21.882  28.592  0.1549 -0.0487 -0.1685
85538W        W28554  32.552  33.985   2.968  0.3464  0.3022  0.0615
85539W        W28555  21.455  33.268   2.960 -0.2443 -0.0260  0.0516
85540W        W28556  22.542   6.617  25.376  0.0306 -0.3817  0.2604
85541W        W28557  15.813   2.378  20.426 -0.2133  0.4394 -0.2728
85542W        W28558  14.326  26.344  16.114 -0.0054 -0.0311  0.0222
85543W        W28559  25.437  16.341   0.475  0.1661 -0.2734  0.1609
85544W        W28560   1.654  10.000   2.780  0.2435  0.0308  0.0911
85545W        W28561   3.307  33.775   9.663 -0.0370 -0.1018 -0.0959
85546W        W28562  25.405  31.186  10.591 -0.1071 -0.0269  0.0214
85547W        W28563  24.353  24.273  19.520 -0.0834  0.0727  0.1701
85548W        W28564   8.763   2.970  18.577  0.3706 -0.0228  0.0973
85549W        W28565  30.364  27.634  25.509  0.0469 -0.0478  0.0207
85550W        W28566  17.467  16.265  22.813  0.3155 -0.0911 -0.1187
85551W        W28567  25.684  27.084  25.418  0.0152  0.0110 -0.1493
85552W        W28568  12.438   4.194  17.933  0.1310 -0.0399  0.1504
85553W        W28569  21.659   8.783  19.210  0.2161 -0.3190  0.2335
85554W        W28570   0.974   7.709   2.954  0.1059 -0.2417 -0.3403
85555W        W28571   1.131  19.812  22.525  0.1702  0.0398  0.0077
85556W        W28572  21.375  11.316  16.464  0.1510 -0.0151  0.0987
85557W        W28573   0.526  12.112  19.742 -0.0269  0.0410 -0.0503
85558W        W28574  15.078  27.887   7.690 -0.1377 -0.0054 -0.1814
85559W        W28575  19.898  31.232   3.345 -0.2767  0.1267 -0.0361
85560W        W28576  34.135  11.255  24.571 -0.0246 -0.0356  0.0484
85561W        W28577  23.499  12.479   0.353 -0.0272  0.1312  0.1371
85562W        W28578   2.577  23.115   4.077  0.2032  0.1734 -0.0654
85563W        W28579   1.891  32.724  24.330  0.0433  0.2156  0.1330
85564W        W28580  13.277  11.956  15.739 -0.1078  0.2304 -0.0308
85565W        W28581   4.856   6.176  24.896  0.2108  0.1283 -0.0841
85566W        W28582  18.458  10.896   3.789  0.2909  0.1664 -0.0033
85567W        W28583   5.980  33.719  16.923  0.0951  0.2800 -0.2765
85568W        W28584  13.753   6.166  28.432  0.1309 -0.1427 -0.2069
85569W        W28585  31.753  15.065  15.911  0.1907 -0.1520 -0.0340
85570W        W28586  28.818  14.903   9.559  0.2514 -0.1825  0.0921
85571W        W28587   3.005  32.625   7.911  0.2868  0.0057  0.2199
85572W        W28588   3.994  12.656  18.521  0.0512 -0.1267  0.1282
85573W        W28589  25.556  12.692  21.398 -0.0706  0.0178  0.1468
85574W        W28590  10.698  27.304  17.825  0.0118  0.0576 -0.2083
85575W        W28591  11.626   0.760  23.740 -0.1281  0.0003 -0.1122
85576W        W28592  30.788  17.673  23.244 -0.0292 -0.1649 -0.1934
85577W        W28593  17.092  26.370  17.660 -0.0433  0.0675  0.3219
85578W        W28594  24.178   5.233  25.719 -0.2809 -0.2843  0.1483
85579W        W28595  23.132  14.118  19.826 -0.1978  0.2115 -0.1166
85580W        W28596  31.271   2.722  22.343  0.1875  0.0219  0.0987
85581W        W28597  14.767   0.564  18.220  0.0685 -0.0212 -0.2222
85582W        W28598  30.892   0.707  26.972  0.3881 -0.2337 -0.0019
85583W        W28599  17.869   0.493   0.495  0.0154  0.2196  0.0933
85584W        W28600  11.591  33.489  23.245  0.2396 -0.1264  0.0326
85585W        W28601   8.913  16.027  25.968 -0.2161 -0.5886  0.0963
85586W        W28602   6.225  14.549  21.645 -0.1302  0.0183  0.0872
85587W        W28603  16.436  15.494  26.909  0.0320 -0.0617  0.0739
85588W        W28604   9.927  28.258   0.923 -0.0220 -0.1029 -0.0881
85589W        W28605   1.278  18.809  18.180 -0.1331  0.0075 -0.1542
85590W        W28606  17.913  18.132  13.198  0.2401 -0.1391  0.1462
85591W        W28607   8.587   5.004  20.211 -0.1010  0.0939 -0.1234
85592W        W28608  14.282  16.234  21.626 -0.0846  0.1478  0.2190
85593W        W28609  28.667  30.743  18.838 -0.1872 -0.2569  0.0176
85594W        W28610  13.482   3.831  14.496  0.1059  0.0211  0.0030
85595W        W28611  30.049  30.044   2.679 -0.4471  0.0457 -0.3611
85596W        W28612  11.566   6.062  22.245  0.0221  0.1520 -0.0474
85597W        W28613  34.327   9.183  18.109  0.1615 -0.0172  0.0783
85598W        W28614  24.951  32.965  19.786  0.1012  0.1772  0.0310
85599W        W28615   6.169  18.051  14.731 -0.0308 -0.0227 -0.0214
85600W        W28616  17.708   1.818   4.351  0.2306  0.2500  0.0514
85601W        W28617  20.697  32.896  25.305  0.2022 -0.2566  0.1687
85602W        W28618  18.488  34.564  18.564 -0.2607  0.5012  0.1447
85603W        W28619  34.231  13.442  10.381  0.3091 -0.2692  0.1671
85604W        W28620   9.228   6.591   5.733 -0.0037 -0.0345  0.1407
85605W        W28621  10.527  12.668  15.933 -0.0599 -0.0878  0.1604
85606W        W28622  33.669   0.775  14.652  0.3349  0.0751  0.2032
85607W        W28623  21.665   4.922  25.897  0.0487  0.4928  0.2618
85608W        W28624  22.432  11.961  21.319  0.2627 -0.1371 -0.0232
85609W        W28625  30.855   6.991  18.075  0.3783 -0.0865  0.2059
85610W        W28626  25.057  24.234  18.879 -0.0854 -0.3002 -0.1664
85611W        W28627  23.371   6.330  15.409 -0.1611 -0.3048 -0.0186
85612W        W28628  31.174  29.031  20.731  0.1129 -0.0472 -0.0573
85613W        W28629  34.221  20.463   8.742  0.1188  0.1765 -0.2307
85614W        W28630  32.519  11.831  27.597 -0.1922  0.1915 -0.0641
85615W        W28631  21.480  12.365  27.455  0.0172  0.2085  0.0253
85616W        W28632  15.770   8.154   4.186 -0.1829 -0.4257  0.0149
85617W        W28633  13.828  19.830  13.614 -0.3632  0.0857 -0.0252
85618W        W28634  17.795  23.827  18.004  0.2398  0.1838  0.0719
85619W        W28635   9.459  24.026   5.449 -0.0113  0.2505 -0.1041
85620W        W28636   5.262   8.035  29.234 -0.2032  0.0416  0.1182
85621W        W28637  11.863   5.083   6.548 -0.0044  0.1906 -0.0125
85622W        W28638  20.237   4.058  14.815  0.0556 -0.2671  0.1870
85623W        W28639   5.945   3.139  18.993  0.1252  0.0764 -0.1471
85624W        W28640   2.791  11.794  27.757 -0.2477 -0.1925  0.3140
85625W        W28641  23.717  10.066   6.880 -0.1287  0.0254  0.1078
85626W        W28642  25.376  13.861   5.361  0.1308  0.0451  0.3561
85627W        W28643  12.840  33.970  16.942  0.2715 -0.1774 -0.2482
85628W        W28644  24.001  20.596  15.309 -0.0933  0.0424  0.2220
85629W        W28645  12.910  10.204  18.241 -0.0052  0.0378 -0.1150
85630W        W28646  20.142   5.299  22.494 -0.2442  0.2155  0.0651
85631W        W28647  21.045   1.950  27.847  0.1181 -0.0224 -0.2996
85632W        W28648  27.652   2.552  11.226 -0.1830  0.0661 -0.4993
85633W        W28649   1.004  25.616  26.652 -0.0539  0.0228  0.2371
85634W        W28650  13.796   6.842  18.951 -0.2219  0.2504 -0.0584
85635W        W28651   3.304   3.847   7.797  0.1477 -0.2202  0.1695
85636W        W28652  26.241  27.886  19.269 -0.0902 -0.1875 -0.2008
85637W        W28653  25.120  34.663  22.459  0.0897 -0.1206  0.2048
85638W        W28654  24.883   6.253   2.354 -0.0605 -0.2333  0.0865
85639W        W28655   9.489   2.825  20.850  0.1628 -0.0483 -0.0326
85640W        W28656  33.025   1.314  28.400 -0.0806  0.1503 -0.1208
85641W        W28657  19.386  28.611  22.587  0.1694 -0.0803 -0.0086
85642W        W28658  32.135  10.261  23.264  0.2699 -0.0876 -0.0944
85643W        W28659   5.094  25.374  16.209  0.1127  0.4477 -0.3091
85644W        W28660  34.244   2.350  16.259 -0.4190  0.1045  0.1675
85645W        W28661  30.081  19.656   7.981  0.2243  0.1356 -0.2514
85646W        W28662   3.694  11.781  19.748  0.2022 -0.3254 -0.0846
85647W        W28663  26.680  12.890   1.041 -0.0718 -0.1376 -0.0157
85648W        W28664  12.315  31.834   3.239 -0.1349  0.1147 -0.1387
85649W        W28665  30.170  20.618  15.320  0.1024  0.0179 -0.2135
85650W        W28666   1.366  23.659  22.487 -0.2557 -0.1501  0.2367
85651W        W28667  25.514  21.412   5.702 -0.2280  0.0705 -0.3007
85652W        W28668  32.449   2.819   5.943  0.0610  0.1731 -0.2352
85653W        W28669  18.407  26.563  26.424 -0.2009  0.1298  0.0280
85654W        W28670   1.307  22.546   1.278  0.0632 -0.0577 -0.0527
85655W        W28671   4.683   3.058  22.551 -0.0517 -0.1650  0.2365
85656W        W28672   9.514   5.460  18.693 -0.3002 -0.0628  0.2094
85657W        W28673  14.098  20.042  20.565  0.1674  0.0299 -0.0827
85658W        W28674   8.661   6.360  18.159 -0.3849  0.1554 -0.2019
85659W        W28675  22.559  28.484   8.318 -0.1450  0.2653 -0.1182
85660W        W28676  25.948   2.506   4.613 -0.0274  0.0348  0.0175
85661W        W28677  32.276  30.987  29.145 -0.0608 -0.0234 -0.3154
85662W        W28678   6.002   7.166  26.581  0.1770  0.3293  0.1452
85663W        W28679  17.010   5.826   8.604  0.1293 -0.1295 -0.1183
85664W        W28680  18.274   5.721   2.051  0.2219  0.2448 -0.1175
85665W        W28681  12.797  31.953   5.708 -0.0246 -0.0922  0.1556
85666W        W28682  34.253  26.186  29.156 -0.0689 -0.1960 -0.0036
85667W        W28683  23.478  31.944  22.830  0.0540 -0.0874 -0.0468
85668W        W28684  19.998  25.881   9.376  0.2116 -0.0056 -0.2397
85669W        W28685   8.061  11.099  23.084  0.2014 -0.0988  0.2241
85670W        W28686   9.749   7.029  27.781 -0.0184 -0.0564 -0.1193
85671W        W28687  19.371   9.228  15.114  0.2668 -0.0638  0.2200
85672W        W28688  14.009   6.224   4.157  0.0893 -0.0971 -0.1289
85673W        W28689  13.447   1.585  19.380  0.0614  0.1001  0.0973
85674W        W28690  12.196   2.194  29.102  0.2662  0.3899 -0.0546
85675W        W28691  20.203   1.521   7.150  0.1451  0.2700  0.0445
85676W        W28692  12.800  33.547  14.541 -0.0126 -0.2561  0.1851
85677W        W28693   4.350   6.315   6.502  0.1651  0.1590  0.0121
85678W        W28694  16.324   8.736  18.106 -0.1251 -0.0762  0.1091
85679W        W28695  21.143  32.612  20.710 -0.3830  0.0272 -0.1219
85680W        W28696  17.384  30.871   6.515 -0.1161 -0.0880  0.2483
85681W        W28697  31.925  32.316  20.032 -0.1944 -0.0946  0.2290
85682W        W28698  15.615  18.593  12.255 -0.0014 -0.0044 -0.0228
85683W        W28699  12.422  11.430  12.934 -0.0570 -0.1138 -0.1652
85684W        W28700  22.783  26.345  22.626 -0.0838  0.1098 -0.0493
85685W        W28701  12.780   0.944  26.307 -0.0173 -0.3735  0.1387
85686W        W28702   5.714  31.559  26.687  0.4714 -0.0167  0.0061
85687W        W28703  28.157   5.477  25.189 -0.1314 -0.1845  0.1417
85688W        W28704  12.876  15.061  20.809  0.0377  0.2465  0.3659
85689W        W28705   1.778   0.459  15.694 -0.4064  0.0575 -0.5144
85690W        W28706   9.031  20.275  28.367  0.3724  0.2230  0.0876
85691W        W28707   2.588  10.163  21.929  0.2306  0.1185 -0.1010
85692W        W28708   9.688   5.874   1.969 -0.1939 -0.2989 -0.2700
85693W        W28709  18.536  20.091  24.799 -0.2280 -0.0167  0.1993
85694W        W28710  32.859  19.714  19.821  0.2367 -0.3374 -0.5187
85695W        W28711  11.978   4.394  24.219  0.0200 -0.0702 -0.5917
85696W        W28712   9.515  16.339  18.025 -0.2406  0.3576  0.0017
85697W        W28713  24.659   9.894  20.656 -0.0048  0.2449  0.1567
85698W        W28714  17.476   5.653  17.682  0.0217 -0.0942 -0.1059
85699W        W28715   6.020  14.067  26.989 -0.2878  0.1882  0.1049
85700W        W28716   2.226  32.882  19.557 -0.3276 -0.0812  0.1602
85701W        W28717   3.463  16.404   1.392  0.1348 -0.3462  0.1279
85702W        W28718   1.856  24.231  20.576  0.1122 -0.2347 -0.1935
85703W        W28719  12.518  11.937  21.742  0.1014  0.0290 -0.4811
85704W        W28720  11.582   7.798  16.905  0.1329 -0.0414  0.2583
85705W        W28721  18.279  22.583  29.052 -0.2690 -0.2070  0.0116
85706W        W28722  29.687   8.104   1.810  0.1291 -0.0199 -0.0946
85707W        W28723   4.305   2.909   0.623 -0.1787  0.1332 -0.2885
85708W        W28724  13.851   8.073  22.570 -0.1863 -0.0355  0.0500
85709W        W28725  19.719  27.253  18.860  0.2086  0.2846  0.1046
85710W        W28726   3.917  11.906  23.781 -0.1694 -0.0832  0.2315
85711W        W28727   8.181  15.039  14.083  0.1001  0.0444  0.2692
85712W        W28728   6.225   4.528  27.664 -0.0606  0.0989 -0.0907
85713W        W28729  22.855  30.863  11.020  0.0713 -0.2632 -0.1434
85714W        W28730   8.470   3.892   4.108 -0.0169 -0.1282 -0.0497
85715W        W28731  25.726  18.378   0.891  0.1193  0.0395 -0.1965
85716W        W28732  26.627   9.555   4.327  0.1136  0.1122 -0.0308
85717W        W28733  17.697   2.184  21.962  0.3172 -0.0563  0.3137
85718W        W28734   4.641   9.622  24.818  0.1280  0.0687  0.1252
85719W        W28735  14.011   3.863   7.253  0.0896  0.0941  0.1487
85720W        W28736  22.747   3.572  26.829 -0.1571  0.0634 -0.1300
85721W        W28737  19.321  17.350   0.276  0.2342 -0.2413 -0.2546
85722W        W28738  15.966   1.867  20.297 -0.3104  0.2801 -0.0956
85723W        W28739  28.935   4.471  25.597  0.1803 -0.3197  0.1030
85724W        W28740  17.266   0.871   1.691  0.0885  0.1281  0.2403
85725W        W28741  24.268   7.618   9.920  0.2581  0.0297 -0.0406
85726W        W28742  15.420  34.070   2.913 -0.2530 -0.0974  0.0610
85727W        W28743  32.877   7.454  25.533  0.1848  0.2231 -0.2517
85728W        W28744  16.409   2.916   9.200 -0.0955  0.2139  0.1902
85729W        W28745  10.835  13.250  13.147  0.2682 -0.3960  0.1106
85730W        W28746  24.816   7.532  24.986 -0.0932 -0.0151 -0.1115
85731W        W28747  16.701   2.123  18.075 -0.1568 -0.1810  0.0657
85732W        W28748  19.639   2.291  28.876 -0.0083 -0.0350  0.2923
85733W        W28749  31.402   8.150   9.112 -0.0757  0.1144  0.1085
85734W        W28750  16.183   0.491  18.209  0.1741  0.3068  0.3068
85735W        W28751  11.712  12.646  22.397  0.1407  0.1714 -0.3053
85736W        W28752  16.498   4.786  27.547 -0.0811 -0.0109  0.2765
85737W        W28753  21.428  16.280  24.821 -0.0484  0.0072 -0.1478
85738W        W28754  20.835   1.388   7.884  0.2477 -0.1657 -0.2269
85739W        W28755  14.220   5.061  21.200 -0.0253 -0.0348 -0.2707
85740W        W28756  13.864  31.734   9.537 -0.0319  0.0653 -0.1051
85741W        W28757  30.497  10.544  16.786  0.1211  0.0394 -0.0681
85742W        W28758  18.975  11.578  20.574 -0.1212 -0.0553  0.0061
85743W        W28759  31.744  23.936   1.867 -0.1466  0.0483  0.1373
85744W        W28760  26.837  33.881  24.723 -0.0757 -0.3325  0.0336
85745W        W28761  15.588   1.970  23.486  0.0418 -0.2223  0.0850
85746W        W28762   5.039  21.624  13.529  0.2440  0.2999  0.1570
85747W        W28763   5.088  33.450   5.810 -0.1138 -0.1540  0.0608
85748W        W28764  24.898   6.439  25.376 -0.0891  0.0361  0.0705
85749W        W28765  15.819  23.209   2.217 -0.1289 -0.1310  0.0001
85750W        W28766  27.200  29.006  23.178  0.3027 -0.0438 -0.0691
85751W        W28767  21.456  31.439  24.756 -0.0537 -0.0801  0.2080
85752W        W28768  18.124  26.522   5.357  0.0415 -0.1143  0.0669
85753W        W28769  13.159   5.482  23.019 -0.0924  0.0819  0.2704
85754W        W28770  22.036  12.997  14.507 -0.0721  0.0007 -0.1585
85755W        W28771  21.979   2.300   7.408 -0.0198 -0.4257  0.0799
85756W        W28772  26.684  29.972   1.271 -0.2033  0.0719  0.1177
85757W        W28773   5.190  18.837  17.679 -0.2483  0.1456  0.0804
85758W        W28774  18.513  11.549  26.453  0.1184  0.1765 -0.3802
85759W        W28775  21.861  28.122  21.094  0.1279  0.2809 -0.0918
85760W        W28776  19.016   7.688   4.029  0.0764 -0.0405 -0.0199
85761W        W28777   5.769  12.051  14.174  0.0974  0.2512  0.0319
85762W        W28778  18.560  33.166  15.163  0.1137 -0.1823 -0.2977
85763W        W28779  29.189   0.200  28.169  0.2256 -0.0629 -0.0190
85764W        W28780   2.763   5.613   1.415  0.3714 -0.0213 -0.0406
85765W        W28781   2.972   0.624  17.381 -0.1589  0.0511  0.0264
85766W        W28782  18.515  30.998  25.716  0.1464  0.1757 -0.1042
85767W        W28783  31.653   6.318  27.019  0.1581 -0.1168 -0.0535
85768W        W28784  29.990   0.662   0.239  0.0322  0.2047 -0.1110
85769W        W28785  21.916  26.801  17.086  0.2817  0.2136 -0.3715
85770W        W28786  24.224  13.793  22.803  0.1721 -0.3404  0.3240
85771W        W28787  18.486  14.220  21.804  0.0425  0.2015 -0.0918
85772W        W28788  20.923  26.745   7.137 -0.3499 -0.0561  0.0343
85773W        W28789  25.474  16.257  16.372  0.0830 -0.0854 -0.1576
85774W        W28790   9.848  11.348  20.801  0.0426  0.2705  0.2809
85775W        W28791  19.455  33.572   0.026  0.1746  0.0675  0.0888
85776W        W28792  25.690  21.907  20.787 -0.0722  0.0108 -0.0219
85777W        W28793  28.679  22.868  20.574  0.0122  0.1366  0.0773
85778W        W28794  30.619   6.135  21.755 -0.0021  0.0493  0.2311
85779W        W28795  20.369   9.710  15.916  0.0680  0.3716  0.0279
85780W        W28796  17.575   0.748   4.267 -0.0462 -0.3746 -0.1477
85781W        W28797  30.681  11.085  15.121  0.1359  0.2353 -0.1810
85782W        W28798   5.044  28.308  23.217  0.1786  0.2198  0.2475
85783W        W28799  31.916   6.082  27.514 -0.0074 -0.3835  0.0867
85784W        W28800  21.681   6.267  26.134  0.1009 -0.3150 -0.0220
85785W        W28801  23.290  20.172  27.353 -0.0761  0.0634 -0.0300
85786W        W28802  28.822  30.003  28.819 -0.3922  0.0326  0.2754
85787W        W28803  16.501   7.918  26.347 -0.0173 -0.0177  0.2308
85788W        W28804  34.171   9.393  26.539  0.1078  0.0662  0.2103
85789W        W28805  20.418  15.151   3.313 -0.1184 -0.0349 -0.0374
85790W        W28806  21.069   5.306  20.379 -0.1002  0.1381  0.0063
85791W        W28807   3.081  32.289  18.209 -0.1948  0.2266  0.2341
85792W        W28808  10.308   4.851   0.640 -0.1138 -0.0459  0.0948
85793W        W28809   6.268  31.334  19.612  0.0231  0.0973 -0.0717
85794W        W28810  16.423   7.830  17.248 -0.1115  0.1721 -0.0227
85795W        W28811  14.126   0.131   5.279 -0.2370 -0.1282 -0.3084
85796W        W28812  14.293  33.466   6.187 -0.1469  0.0964 -0.0605
85797W        W28813  15.613  23.772   9.006  0.0007 -0.2232  0.2917
85798W        W28814   0.613   6.155   0.328 -0.1248  0.2333  0.3022
85799W        W28815  20.142  16.397  26.403  0.0698  0.0927  0.0308
85800W        W28816   4.756  28.618   6.650 -0.2669  0.2985  0.2448
85801W        W28817  24.880  16.592   7.534 -0.2996 -0.1482  0.0928
85802W        W28818   8.135   2.309   6.659 -0.0671  0.1582  0.0474
85803W        W28819  11.528  28.822   7.586  0.0856 -0.0930 -0.1014
85804W        W28820  13.022   8.442  21.620 -0.1576 -0.2101  0.0492
85805W        W28821  22.045  30.629  10.586 -0.2503 -0.0806 -0.0179
85806W        W28822  16.792  21.491   0.128  0.1315 -0.0414 -0.0238
85807W        W28823  21.691  16.755  21.893  0.1793  0.0339  0.2220
85808W        W28824  18.574  30.812   7.452  0.3253  0.0830 -0.0208
85809W        W28825  16.887   9.794  23.350  0.0118 -0.2052 -0.1137
85810W        W28826  25.841   3.565  27.136 -0.4658  0.0413  0.1288
85811W        W28827  23.969  11.750  14.110  0.0307  0.0822  0.0894
85812W        W28828  11.087  21.879  28.013 -0.2418  0.1791 -0.1776
85813W        W28829  29.201  32.766   4.387 -0.2719 -0.2197 -0.3292
85814W        W28830  12.121  14.592   1.252  0.1196  0.1572 -0.1390
85815W        W28831  12.705  12.956  20.266  0.1452 -0.1881 -0.1124
85816W        W28832  24.101  15.502   4.398  0.3061  0.1385  0.3199
85817W        W28833  33.762  29.680  19.497 -0.0626  0.2581  0.2403
85818W        W28834  19.385  12.266  23.541  0.1457 -0.3117 -0.0621
85819W        W28835  16.973  30.768  26.105 -0.1192 -0.1487 -0.4788
85820W        W28836  21.832   6.466   6.947 -0.3345  0.2380  0.0598
85821W        W28837   1.614   1.603  28.314  0.0873 -0.1484 -0.3840
85822W        W28838  14.476   9.665  21.049 -0.3493  0.0077  0.0947
85823W        W28839  11.242  27.843  24.481  0.2759  0.1041  0.1664
85824W        W28840  17.869  15.657  27.742  0.0500 -0.0475  0.2983
85825W        W28841  25.998   4.699   2.090  0.1877  0.0338  0.0699
85826W        W28842  14.052  11.380   4.785 -0.3860  0.2298  0.0063
85827W        W28843  20.659   1.654  17.834  0.0906  0.0572  0.1142
85828W        W28844  19.826   7.677  24.147  0.0193 -0.0999 -0.1284
85829W        W28845  18.614  30.011  21.652 -0.1773  0.2723  0.1271
85830W        W28846  12.249  17.747  14.109  0.2548 -0.1437 -0.3064
85831W        W28847   6.564  28.624  25.235  0.0254  0.0139 -0.1215
85832W        W28848  17.663   6.233  19.922  0.1609 -0.0983 -0.0557
85833W        W28849  21.419   2.103  24.007 -0.3251  0.1296 -0.0864
85834W        W28850  29.860   8.775   7.009 -0.0391 -0.0807  0.1365
85835W        W28851  30.073  16.758  18.143  0.0975  0.0591 -0.2932
85836W        W28852  15.816  23.629   5.935  0.1984  0.0366  0.1421
85837W        W28853  33.388  30.861  15.537  0.2302 -0.0633  0.2801
85838W        W28854  19.466  19.037  21.237  0.1688 -0.2548 -0.0124
85839W        W28855   7.932   6.370  25.788  0.0495 -0.0868  0.3603
85840W        W28856  22.117   5.322  26.086 -0.0016 -0.4276  0.1445
85841W        W28857  24.122   1.314  11.055  0.0981 -0.0627 -0.5318
85842W        W28858  23.255   3.680   4.503  0.0619 -0.1418 -0.4260
85843W        W28859  31.226  23.644   2.129 -0.1582  0.2111  0.0957
85844W        W28860  23.764  26.935  28.108 -0.4018 -0.0744  0.0066
85845W        W28861  26.065   3.318   2.540  0.1610 -0.0499  0.0812
85846W        W28862  14.969  19.702  24.295  0.0220  0.4176  0.0868
85847W        W28863  22.224   2.854  28.897 -0.0586  0.0535  0.0734
85848W        W28864  15.653  26.244   8.614  0.0144 -0.1717  0.0381
85849W        W28865  19.319  24.109   1.695 -0.3496 -0.0264 -0.2220
85850W        W28866  10.071  17.920  15.081  0.1370  0.3309 -0.0648
85851W        W28867  25.899  27.853  28.476 -0.0826  0.0194  0.2248
85852W        W28868  24.192  30.385  26.353  0.2746 -0.2542  0.0103
85853W        W28869   1.524  23.989  26.367  0.0372 -0.4090 -0.1712
85854W        W28870   0.298  14.567   0.768 -0.3745  0.1671 -0.0275
85855W        W28871  23.197  12.432  23.677 -0.0391 -0.0920  0.3615
85856W        W28872  17.975  32.882   3.142 -0.5613 -0.1505 -0.2115
85857W        W28873  22.237   5.196  28.062  0.2276 -0.0139 -0.0847
85858W        W28874  23.703   5.784  26.640 -0.4217  0.3190  0.3451
85859W        W28875  19.299   5.929  29.218 -0.0712  0.2240  0.0299
85860W        W28876   9.687  19.373   2.552 -0.3284  0.1383  0.4095
85861W        W28877  27.920   8.657   8.971  0.0738  0.0704  0.1497
85862W        W28878  23.777  31.828  21.048  0.0749  0.1244 -0.0231
85863W        W28879   8.393   1.241   0.787 -0.1862 -0.0843 -0.2660
85864W        W28880  20.040  30.137   2.337 -0.0548  0.0141  0.0578
85865W        W28881  11.309  24.928   3.292 -0.0038  0.1879  0.0248
85866W        W28882  28.886  32.289  26.018 -0.0941  0.0056  0.2076
85867W        W28883   9.868  13.913  25.414  0.0069  0.2152  0.0737
85868W        W28884  16.002   3.547   0.683  0.1259 -0.2208 -0.1619
85869W        W28885  13.242   9.200   5.467 -0.0215 -0.1522  0.0986
85870W        W28886  25.479  16.753  14.158 -0.1018 -0.5359  0.0759
85871W        W28887  11.741  16.704  22.835  0.0957  0.0080 -0.0324
85872W        W28888  12.732  30.051  24.703 -0.1685 -0.2627  0.0989
85873W        W28889  19.091  22.831   5.966 -0.5062  0.1662 -0.2394
85874W        W28890  13.900  10.375   9.707  0.4552 -0.2010  0.1800
85875W        W28891   1.600  30.726  14.352 -0.1108 -0.0132  0.1527
85876W        W28892  13.576  19.261  22.945  0.3830 -0.1224  0.0391
85877W        W28893  22.541  20.447  17.063 -0.1632 -0.1137 -0.1020
85878W        W28894   6.714  11.096  27.853 -0.2541 -0.0621  0.1103
85879W        W28895   2.122  14.853   8.067 -0.2993  0.1866  0.1639
85880W        W28896   5.807   4.805  23.110  0.1992  0.1301  0.2363
85881W        W28897  19.748  24.051   7.026  0.1769  0.1052 -0.0577
85882W        W28898  30.999  29.136  21.879  0.0207  0.0756 -0.4229
85883W        W28899  10.960  22.057   5.654 -0.0166  0.1325  0.0519
85884W        W28900  10.011  24.461  28.994  0.0872  0.0982  0.2428
85885W        W28901  12.616  16.648   7.716 -0.0747 -0.2559  0.0826
85886W        W28902  25.404  21.327   2.893  0.1057  0.2210 -0.3168
85887W        W28903  22.107  28.387  27.270 -0.1541 -0.1241  0.0059
85888W        W28904  14.379   3.735   0.899 -0.1829  0.0422  0.1863
85889W        W28905  20.839  28.226   3.373  0.3501  0.1586 -0.0271
85890W        W28906  15.673  14.478  16.168  0.2838  0.4692 -0.0792
85891W        W28907   8.088  21.754   4.767  0.2117 -0.0136  0.2218
85892W        W28908  23.068  18.696  24.908 -0.2611  0.0972 -0.2476
85893W        W28909   8.504   1.869  28.594  0.0803  0.2142 -0.0485
85894W        W28910  14.077   4.850  18.372  0.4159  0.1264 -0.1537
85895W        W28911  19.669   9.249  21.962  0.0502 -0.0800 -0.0005
85896W        W28912  34.609  15.470  10.330  0.0145 -0.0180  0.0645
85897W        W28913  21.592   3.995   9.225 -0.2966  0.2690  0.1979
85898W        W28914  26.404  27.942  22.308 -0.0700 -0.0042 -0.0539
85899W        W28915  20.705  22.814   8.482  0.1019 -0.0100 -0.0007
85900W        W28916   2.556   3.434  13.962  0.1137  0.4100  0.3086
85901W        W28917  31.203  16.069   2.407  0.0356  0.1166 -0.0365
85902W        W28918  20.106   8.961  25.973 -0.0415 -0.1654 -0.1631
85903W        W28919  27.113   6.539  19.154  0.1053 -0.0248  0.0494
85904W        W28920  22.212  18.835  25.497  0.0907  0.1557 -0.2146
85905W        W28921  18.958   5.108  28.743 -0.1319 -0.0624  0.0991
85906W        W28922  18.618  14.020  25.390  0.1358 -0.1850 -0.3079
85907W        W28923   3.308   0.957   1.512 -0.1212 -0.2684  0.0455
85908W        W28924  15.876   9.730  20.093  0.1938 -0.4162 -0.2551
85909W        W28925   3.449   9.881   6.657  0.2187  0.4639 -0.0966
85910W        W28926   5.318  30.473  15.823  0.0158  0.0433  0.1238
85911W        W28927  22.328   2.375  21.228  0.3436  0.3739  0.2437
85912W        W28928  25.329   9.040  24.627  0.1623 -0.0097  0.4842
85913W        W28929  25.425   2.328  15.526 -0.1256 -0.2093 -0.1367
85914W        W28930  14.896  31.665   8.335  0.1966  0.0009 -0.3181
85915W        W28931  27.572   4.942  23.456 -0.0165  0.0704 -0.1729
85916W        W28932  17.708  29.300  28.795 -0.0722 -0.2089  0.0364
85917W        W28933  25.896  32.258   3.001  0.0311 -0.0673 -0.0872
85918W        W28934  12.948  29.985   1.093 -0.0454  0.2698 -0.1201
85919W        W28935  13.876   7.327  25.633 -0.5058  0.0024  0.0069
85920W        W28936  22.044  27.350   4.989 -0.0755 -0.0540 -0.0293
85921W        W28937   9.536   5.668   5.906 -0.1783  0.2105 -0.3550
85922W        W28938   9.158   6.756  26.735 -0.2442  0.1575 -0.0397
85923W        W28939  29.566  30.991  19.102 -0.0860  0.3689 -0.1522
85924W        W28940   9.172  19.949   8.036 -0.1898  0.2006 -0.0017
85925W        W28941  16.060  32.179   3.143  0.0632 -0.3773 -0.1300
85926W        W28942  12.537  31.575  28.893  0.3433 -0.3676 -0.0271
85927W        W28943  25.513  33.576   6.483  0.0133  0.1815  0.1332
85928W        W28944  26.040   2.500  23.268  0.0285 -0.1251 -0.0354
85929W        W28945   7.315  14.577  28.369 -0.0188 -0.2780  0.1297
85930W        W28946  21.777   4.523   7.425 -0.1406 -0.1962 -0.0180
85931W        W28947  15.422   5.496   4.590 -0.0746 -0.1037 -0.4215
85932W        W28948  22.263  30.240  29.304 -0.2037  0.1303  0.0580
85933W        W28949  17.178   1.027   4.222  0.1697 -0.4402 -0.0360
85934W        W28950  21.664  24.710  18.341 -0.2092 -0.3925 -0.4315
85935W        W28951  20.820  14.210   1.894 -0.1824  0.2540  0.0639
85936W        W28952  15.399  13.575  15.423 -0.4701 -0.0177 -0.0387
85937W        W28953  17.774   4.209  22.099  0.2252  0.0855  0.0496
85938W        W28954  16.876   7.865  28.868 -0.2080 -0.3580 -0.3085
85939W        W28955  25.504  28.151   7.317  0.2874  0.1554 -0.3136
85940W        W28956  21.233  12.730  13.105  0.0658 -0.1902  0.0387
85941W        W28957  11.241  33.595  10.387 -0.0863  0.5703  0.1606
85942W        W28958   9.710  12.807  27.293 -0.4622 -0.0846 -0.1748
85943W        W28959  17.515  30.912   0.103 -0.1547 -0.2109  0.0093
85944W        W28960  22.659   0.374   6.914 -0.1100  0.1928 -0.2699
85945W        W28961  10.412   8.200  17.197 -0.0676 -0.1886 -0.2949
85946W        W28962  16.695  14.144  25.353 -0.2145  0.0672  0.1304
85947W        W28963  25.326  20.312  19.711  0.0570  0.3363  0.2994
85948W        W28964  30.036  17.696  10.313 -0.0678  0.1199 -0.0366
85949W        W28965   9.218  19.721  16.639 -0.3376  0.0664 -0.0144
85950W        W28966  21.029  18.146  21.221 -0.2009 -0.0442 -0.0914
85951W        W28967  14.979  27.958   2.679 -0.1249 -0.1004  0.2658
85952W        W28968  20.841   3.774  17.739 -0.3433 -0.3653  0.0174
85953W        W28969  29.523   9.156  23.660  0.0487 -0.2336 -0.0358
85954W        W28970  21.270  11.211  25.691  0.2165 -0.1099 -0.3092
85955W        W28971  34.045   8.801  19.581 -0.2058 -0.1213  0.0735
85956W        W28972   2.543  31.829   5.371 -0.1217  0.1832  0.1278
85957W        W28973  33.888   7.424  26.749  0.0072  0.0551 -0.3105
85958W        W28974   2.412   3.826  14.226 -0.1041  0.1022  0.1999
85959W        W28975   3.868   3.150   5.752 -0.0097  0.1790  0.0158
85960W        W28976  10.918   6.693  25.284 -0.0956 -0.2330 -0.1151
85961W        W28977   0.317   3.226  14.879 -0.0280  0.0809  0.0984
85962W        W28978  31.149  15.869  20.898 -0.1793  0.4270 -0.0007
85963W        W28979   2.416  21.250   3.240  0.2105  0.3429  0.1199
85964W        W28980  12.313  31.894   2.778 -0.1046  0.4721 -0.2089
85965W        W28981  18.068   4.888   6.670 -0.3777  0.0416  0.3593
85966W        W28982  10.809  10.388  22.569 -0.3024 -0.1256 -0.1663
85967W        W28983  29.859  32.454   9.079  0.2715  0.0207 -0.0181
85968W        W28984  14.349  21.475   2.434 -0.1385 -0.1858 -0.4929
85969W        W28985  28.868   6.968   9.560  0.0675 -0.1131  0.1832
85970W        W28986  15.896  32.595  29.073  0.0126  0.0036 -0.0451
85971W        W28987   1.027  15.593  21.620 -0.2448  0.0519 -0.1084
85972W        W28988  22.570  31.177   8.739  0.2727 -0.3422 -0.1072
85973W        W28989  16.522   5.738  22.330 -0.3282  0.0908  0.0834
85974W        W28990  13.020  12.444  18.167  0.1993  0.0059 -0.1123
85975W        W28991  10.528   9.516   6.159 -0.1153 -0.3845 -0.2003
85976W        W28992   2.619  28.712   9.905  0.0022  0.1533  0.1155
85977W        W28993  17.165  13.987  21.140  0.0690  0.0101 -0.0187
85978W        W28994  12.810   5.837  20.771 -0.1697  0.0784  0.0853
85979W        W28995  16.332   4.905   6.994 -0.0273  0.1189  0.0102
85980W        W28996  24.971  14.817  28.720  0.2790 -0.0069 -0.1100
85981W        W28997  29.548  32.471  25.887 -0.0314 -0.1177  0.2713
85982W        W28998  23.936   0.475   1.804 -0.0205  0.0413  0.2461
85983W        W28999   6.980  14.994  23.807  0.0839 -0.4065  0.0423
85984W        W29000  21.616   8.035  24.714  0.1882  0.0766 -0.0500
85985W        W29001  12.382  31.032   7.685 -0.0837  0.0485  0.0271
85986W        W29002  14.111  23.491   8.826 -0.0502 -0.1984  0.2819
85987W        W29003  16.457  16.868  26.774  0.0223  0.0105 -0.0738
85988W        W29004  16.111   9.483  27.021 -0.2887  0.3463 -0.0537
85989W        W29005  12.072   2.831   9.717  0.2013 -0.0834  0.4867
85990W        W29006  11.432   0.820  16.950 -0.0119 -0.1341  0.0415
85991W        W29007   8.727  33.178  19.002 -0.1715  0.0914  0.2465
85992W        W29008  12.259  28.317   1.736 -0.2533  0.0837  0.0569
85993W        W29009  29.102   5.501   2.560 -0.0274 -0.1220 -0.0724
85994W        W29010  20.140   8.217   9.092 -0.1527  0.0911 -0.0123
85995W        W29011  13.514  28.008  17.712 -0.1206 -0.3334  0.1021
85996W        W29012  20.059   9.006  20.083 -0.1738 -0.0020 -0.0574
85997W        W29013  13.680   7.425  17.423 -0.0585 -0.3349  0.0866
85998W        W29014  20.702   0.031  25.777 -0.3139 -0.1353  0.2207
85999W        W29015  18.835   6.724   8.405  0.1854  0.1094  0.1470
86000W        W29016  10.804  32.345   8.727  0.0505  0.0945  0.1652
86001W        W29017  16.323   5.444   9.426  0.0943 -0.2472 -0.1485
86002W        W29018   7.434   2.945  26.628 -0.1693 -0.1821  0.0579
86003W        W29019  12.818   1.949  28.454  0.0260 -0.0730  0.1274
86004W        W29020  20.542  29.035   4.282 -0.0777 -0.1075 -0.0958
86005W        W29021  12.063  14.274  28.241  0.0464 -0.0671  0.1194
86006W        W29022  25.909   5.859  26.884 -0.0723  0.3501  0.1139
86007W        W29023  23.459  32.098   8.909  0.4342 -0.0466 -0.2112
86008W        W29024  25.142  11.418  28.424 -0.0490 -0.0405  0.2898
86009W        W29025   2.069  29.230  15.778  0.0032  0.4366 -0.1526
86010W        W29026  33.559  30.474   9.540  0.1060  0.4438  0.2293
86011W        W29027  20.209  26.963   1.632 -0.1670 -0.0744  0.3934
86012W        W29028  30.266   8.746  21.468  0.3248  0.0400 -0.0256
86013W        W29029  11.067  12.478  29.237  0.0124  0.2786  0.1394
86014W        W29030  11.296   9.575  26.859  0.1466  0.2049 -0.2386
86015W        W29031   9.705  33.983   5.016  0.1838 -0.0293 -0.0117
86016W        W29032  17.321  18.912   8.298 -0.0807  0.1748 -0.0578
86017W        W29033  13.418  30.428  15.992  0.3693  0.0229  0.1459
86018W        W29034  23.144   1.014  24.876 -0.3041  0.0288 -0.0451
86019W        W29035  18.951  14.436  22.631 -0.1405  0.1012  0.4350
86020W        W29036  13.977   9.628   6.570  0.0091  0.0376 -0.1959
86021W        W29037  11.777  19.030  27.416  0.2874  0.0693 -0.1080
86022W        W29038  14.618  29.258  20.127 -0.4421  0.0516  0.3412
86023W        W29039  26.320   5.564  27.020 -0.1750  0.1138  0.1557
86024W        W29040  26.735  29.891   3.957 -0.0445  0.1681 -0.1645
86025W        W29041  17.586  21.188   8.048 -0.5386 -0.1054 -0.0454
86026W        W29042  19.633  18.048  23.808 -0.2181 -0.0947 -0.1480
86027W        W29043  19.804  34.353  23.803  0.0752  0.1245  0.1469
86028W        W29044  17.232   5.021  26.419 -0.1679 -0.2310  0.0997
86029W        W29045  13.765  28.585  24.922  0.3858 -0.1314  0.0712
86030W        W29046  20.119   3.650   0.412  0.0950  0.1207 -0.2483
86031W        W29047   5.309  21.825   6.292  0.3552 -0.0316 -0.0364
86032W        W29048   7.188   2.327  27.507  0.2596 -0.0959  0.2025
86033W        W29049  16.853  18.151  15.052 -0.1840 -0.2591 -0.0141
86034W        W29050  28.296  13.193  21.496  0.0940 -0.1327 -0.1554
86035W        W29051  30.960  34.278   2.604 -0.0913 -0.0256  0.0051
86036W        W29052  27.696   1.433   4.088 -0.1619 -0.1503  0.2302
86037W        W29053  14.220  13.754   3.791 -0.1966 -0.1023 -0.1533
86038W        W29054  19.806   6.687   4.740  0.2068  0.1231  0.1527
86039W        W29055  24.557  12.795  18.941  0.1800  0.0892 -0.2819
86040W        W29056  24.246   9.411  18.542  0.1573  0.2551  0.2039
86041W        W29057  25.152  16.442   1.276  0.2091  0.0155  0.3866
86042W        W29058  18.771   6.913   0.334 -0.2863 -0.0413 -0.2921
86043W        W29059  16.412  29.635   1.233 -0.1184 -0.0442  0.2300
86044W        W29060  30.270  34.186   1.569  0.2023 -0.0625 -0.0297
86045W        W29061  15.471  22.634  12.582  0.3036 -0.2305  0.0011
86046W        W29062  29.796   0.414   6.694 -0.3519 -0.0660 -0.0226
86047W        W29063  12.261  28.804   0.046  0.3645 -0.0743  0.1511
86048W        W29064  20.387   5.994  23.576 -0.1294  0.0980  0.1409
86049W        W29065  33.500   1.685   9.458  0.0176 -0.3206  0.0575
86050W        W29066  12.468  22.612  19.556  0.1076 -0.3466  0.1895
86051W        W29067  10.721   5.697  16.486 -0.0690 -0.1667 -0.3277
86052W        W29068  19.835   8.363   7.060  0.3751 -0.1601  0.2116
86053W        W29069  28.919  21.181  22.432 -0.0275  0.1960  0.0712
86054W        W29070   8.808   5.153  17.145 -0.0285 -0.2831  0.2524
86055W        W29071  30.244  29.581  24.127  0.2616  0.2189 -0.2787
86056W        W29072  14.345  13.280  22.435  0.3998  0.0560  0.0842
86057W        W29073  25.270  12.681  23.346  0.2350  0.1901 -0.0597
86058W        W29074  25.714  28.424  21.402 -0.1828 -0.0863  0.0102
86059W        W29075   4.107  26.139  26.141 -0.1295 -0.2927 -0.1266
86060W        W29076  27.669  34.438  27.618 -0.2108 -0.1155  0.2009
86061W        W29077  10.299  30.709   2.681  0.1862 -0.1196  0.0812
86062W        W29078  20.232  24.360   1.385 -0.0908  0.3210  0.2186
86063W        W29079  28.336   9.681  16.591 -0.0298 -0.1938  0.0141
86064W        W29080  13.618   7.751   3.998  0.2064 -0.1946  0.2776
86065W        W29081  14.103   3.479   7.544  0.0556  0.1094  0.1094
86066W        W29082   6.488  11.032  27.380 -0.1921 -0.1779 -0.0000
86067W        W29083  18.763   0.289  16.202  0.1098  0.2390 -0.2997
86068W        W29084  17.322   5.135  18.939 -0.1126 -0.1037  0.0113
86069W        W29085  22.781  11.215   4.107 -0.1665 -0.0860 -0.0235
86070W        W29086  17.069  10.615  23.696  0.2116 -0.3070  0.2807
86071W        W29087  17.795   7.719  26.637  0.0527  0.1465 -0.1371
86072W        W29088  32.317  32.651   0.705 -0.1333 -0.1589 -0.3496
86073W        W29089   8.423  13.272  27.773  0.0712 -0.1349 -0.2260
86074W        W29090  18.223  11.045   2.577 -0.1231 -0.3812 -0.0757
86075W        W29091   9.571  30.743   1.487  0.1918 -0.0019  0.0179
86076W        W29092   7.841  10.711   6.395 -0.0248  0.0211  0.2044
86077W        W29093  23.796  28.818  25.981 -0.1914  0.3360  0.1696
86078W        W29094  21.825  32.175  18.340  0.0571 -0.0775 -0.0987
86079W        W29095  18.546  32.018  27.327  0.0723 -0.1198  0.1445
86080W        W29096  15.210  20.803  24.998  0.2777  0.1256 -0.3545
86081W        W29097  11.965  30.441  28.318 -0.0870  0.2628 -0.2255
86082W        W29098  15.347  13.047  19.968  0.2447  0.3474  0.0356
86083W        W29099  34.682  26.973   2.283  0.2937  0.2233  0.1316
86084W        W29100  19.863  11.175  14.996  0.1457  0.0686 -0.0196
86085W        W29101  33.790  34.455   8.500  0.2108 -0.1175  0.0438
86086W        W29102  23.603  31.554   6.730 -0.0299 -0.0386 -0.5103
86087W        W29103  32.795  14.544   6.847 -0.1794  0.0635 -0.0967
86088W        W29104  15.005   1.349  28.858 -0.0357  0.1316  0.0263
86089W        W29105   6.425   3.003   3.055  0.0045  0.3974  0.2331
86090W        W29106  22.250  24.664   3.226  0.3182 -0.1319 -0.1251
86091W        W29107  24.915   7.279   3.866 -0.1772  0.1767  0.2107
86092W        W29108   0.756   3.606   6.152  0.1748 -0.3376  0.1594
86093W        W29109  20.747  29.408  24.157  0.0344  0.1707  0.0858
86094W        W29110  11.959  11.439  12.680 -0.2845  0.2901  0.0047
86095W        W29111  25.049  32.205  25.456  0.0364  0.1293 -0.2440
86096W        W29112  21.299   9.661   0.046  0.2284 -0.2285  0.1132
86097W        W29113  17.510  30.106  25.529  0.0392 -0.0918  0.1782
86098W        W29114  10.001  30.387  27.416 -0.2383 -0.2004 -0.0332
86099W        W29115  28.118  26.684  15.931  0.5210  0.0416  0.1682
86100W        W29116  24.635  33.775  23.589  0.0626 -0.2844 -0.2288
86101W        W29117   5.073   0.985   0.607  0.3426  0.1299  0.1239
86102W        W29118  23.487  32.026   6.823 -0.4076  0.1538 -0.0713
86103W        W29119  21.364  14.744  13.092  0.1085  0.1074 -0.4252
86104W        W29120  12.904  31.179  24.426 -0.0527 -0.1177  0.1268
86105W        W29121  15.727  29.027   1.408  0.1066 -0.0221 -0.2214
86106W        W29122  26.983  31.498  25.637 -0.2222  0.1130  0.0557
86107W        W29123  24.044  15.175  19.980  0.0903  0.0460 -0.1630
86108W        W29124  32.058  18.317   5.249 -0.1558  0.0849 -0.2191
86109W        W29125   6.364   6.695   1.556 -0.3808  0.2807  0.0754
86110W        W29126  16.579   7.529  22.929 -0.0803 -0.1583 -0.1952
86111W        W29127   8.423   4.886  24.291 -0.1076  0.2246 -0.2173
86112W        W29128  27.906  10.245   0.252 -0.1568 -0.1111 -0.0196
86113W        W29129  12.926  25.406  14.815  0.1089  0.2408 -0.0498
86114W        W29130  25.452   8.766  25.073  0.3687  0.0473 -0.1313
86115W        W29131  23.593  14.094   0.478  0.1696  0.0480  0.1330
86116W        W29132  18.035  11.576  24.985  0.0477 -0.1815 -0.0833
86117W        W29133  22.551  14.730   9.703  0.1016  0.1415 -0.2873
86118W        W29134  20.064  10.085  21.141  0.0409 -0.0330  0.1484
86119W        W29135  29.063  29.034  16.190 -0.2136  0.1775 -0.1934
86120W        W29136   6.312   2.565  16.134  0.2827 -0.0601  0.2881
86121W        W29137   0.367  34.707   7.986 -0.1943  0.0922 -0.0230
86122W        W29138  34.651   9.546  26.357 -0.2124  0.2311  0.0997
86123W        W29139  19.712  26.280  28.730 -0.0399  0.3390  0.0838
86124W        W29140   7.056   8.965   6.132  0.1198  0.0425  0.0795
86125W        W29141  24.824  29.658  27.522 -0.0950  0.1992  0.0766
86126W        W29142   7.169  29.368   1.633 -0.0557  0.2901 -0.0723
86127W        W29143  14.130  33.761  24.392 -0.1548 -0.2140  0.2101
86128W        W29144  28.846  29.829  29.308  0.2308 -0.2173  0.0961
86129W        W29145  32.035  24.190  25.167  0.1974  0.1588 -0.1728
86130W        W29146  32.659  24.717   2.885 -0.4126 -0.1645  0.0534
86131W        W29147  17.980  12.903  20.720 -0.0965  0.1303  0.0973
86132W        W29148  32.897  26.773  26.238  0.1204  0.1606 -0.0437
86133W        W29149   6.696   8.515   0.232  0.1055  0.2605 -0.3411
86134W        W29150  22.292  26.113  28.997  0.0823  0.2301 -0.0748
86135W        W29151  23.994   4.328  22.333 -0.0415  0.0041  0.0531
86136W        W29152  17.368  12.211  19.945  0.0763  0.1740 -0.1396
86137W        W29153   5.770   0.243   7.191  0.0343  0.2720 -0.1158
86138W        W29154  25.188  33.250  16.182  0.3351 -0.2853  0.2691
86139W        W29155  21.364   2.282  22.639  0.0287  0.2034  0.1844
86140W        W29156   9.034  25.642  26.674  0.2687  0.0963 -0.0420
86141W        W29157   9.502  34.278   6.659 -0.1157 -0.1168 -0.0300
86142W        W29158   5.797  12.683   4.149  0.2215  0.0736 -0.3202
86143W        W29159  27.292   9.568   7.793 -0.0031 -0.1257 -0.0363
86144W        W29160  19.781  11.926   6.554  0.1005 -0.2191  0.0430
86145W        W29161  28.378   7.850   2.445 -0.1605  0.1086 -0.2222
86146W        W29162   4.582  22.534  27.308 -0.0956  0.0365 -0.2660
86147W        W29163  19.200   4.330  21.891  0.1173  0.0019 -0.2237
86148W        W29164  17.760  11.659  15.626 -0.0634 -0.1483 -0.0305
86149W        W29165  21.376  24.121   2.244 -0.0198  0.0943  0.1688
86150W        W29166  29.802   9.811   4.595 -0.0681 -0.6200 -0.3346
86151W        W29167  18.912   9.707   3.928 -0.2153  0.2633 -0.0695
86152W        W29168  23.880  17.090  13.857 -0.1241 -0.0281 -0.1738
86153W        W29169  23.051  18.242   6.382 -0.1171 -0.2843 -0.0787
86154W        W29170   9.372   2.725  14.331 -0.1836  0.1034 -0.2816
86155W        W29171  17.550  16.796  27.424 -0.0909  0.0809  0.1856
86156W        W29172  30.190  13.399  24.545 -0.0070  0.0774  0.2319
86157W        W29173  13.980   0.633   7.862 -0.3846  0.1150  0.0965
86158W        W29174  18.957  27.348   0.875  0.2430  0.1042 -0.0686
86159W        W29175  20.262   7.563   1.035  0.1597  0.1946  0.1481
86160W        W29176   9.632   4.108  26.398  0.0273  0.1788  0.0369
86161W        W29177  11.715   3.997   1.009  0.1871 -0.1781  0.1602
86162W        W29178  27.958  16.522  20.468 -0.1091 -0.0567 -0.0487
86163W        W29179   9.905  23.115   8.920 -0.1894  0.1714 -0.0622
86164W        W29180  24.444  15.171   4.186 -0.3034  0.0347 -0.5331
86165W        W29181  30.960  12.678   7.189  0.0005 -0.1979  0.0077
86166W        W29182  10.592   1.036   3.656  0.0226  0.1929 -0.0854
86167W        W29183   0.560  15.711  25.709 -0.0869  0.0566 -0.2160
86168W        W29184  20.657   1.933   4.184 -0.0125  0.0222 -0.2442
86169W        W29185   8.007  34.425  26.496 -0.1557 -0.1680 -0.0304
86170W        W29186  20.834  21.260   2.986  0.0704  0.2549 -0.1516
86171W        W29187  12.196   2.453  28.576 -0.1649  0.0326  0.2263
86172W        W29188  18.599  21.738   2.954 -0.0739  0.4492  0.0225
86173W        W29189  20.083  33.715   4.296  0.1104 -0.0333  0.1394
86174W        W29190  13.014  33.036   4.848 -0.2450  0.0179 -0.1550
86175W        W29191  15.953  15.931  29.093 -0.0088 -0.4051  0.0556
86176W        W29192  16.355  16.216   4.506  0.0389 -0.0958  0.2378
86177W        W29193  17.947  32.364  16.057 -0.0944  0.1548  0.2599
86178W        W29194   7.043   5.365   5.174  0.2086  0.0550  0.3580
86179W        W29195  29.515   8.843  25.652  0.0871 -0.1580 -0.1580
86180W        W29196  18.211   2.279  24.166  0.0263 -0.3549 -0.0597
86181W        W29197  10.287  19.295  27.124  0.1607 -0.1469  0.2680
86182W        W29198  29.745   5.996   4.433  0.1730  0.1170 -0.1567
86183W        W29199  18.839  15.338  24.937  0.0682 -0.1395 -0.0728
86184W        W29200  22.389  32.479   2.177  0.0561  0.1511  0.0490
86185W        W29201  12.619  32.085  20.242  0.3112 -0.0511 -0.0228
86186W        W29202  27.908   4.215   4.539 -0.1811 -0.0097  0.0529
86187W        W29203  13.891   0.366  24.121 -0.2024  0.2280  0.0357
86188W        W29204   4.155  15.679  28.542 -0.2446 -0.1883 -0.1592
86189W        W29205  25.065  22.291   1.573  0.4709 -0.2608  0.1734
86190W        W29206  18.198  32.880   0.229  0.0938  0.1327 -0.3462
86191W        W29207   0.824  27.992  28.105  0.2316 -0.0807  0.1237
86192W        W29208  20.579  23.677  22.928 -0.1295 -0.0709 -0.1861
86193W        W29209  13.801  14.060   5.555 -0.2394  0.0595 -0.4430
86194W        W29210  27.056   6.456   9.747  0.1255  0.1565 -0.2066
86195W        W29211  18.627  12.544   6.501 -0.1155  0.0365 -0.0323
86196W        W29212   8.126  33.783   7.032  0.0060 -0.0201 -0.2419
86197W        W29213  16.590   6.302   9.302 -0.0714 -0.2937 -0.3228
86198W        W29214  32.380  25.541   9.839  0.1685 -0.2503 -0.1646
86199W        W29215   9.664   2.442   6.187  0.4660  0.0571 -0.3987
86200W        W29216  31.554   1.170  10.707 -0.2844 -0.1743  0.1605
86201W        W29217  12.936   9.093   0.697  0.1980 -0.1546 -0.2400
86202W        W29218  16.111   4.516   3.450  0.2252  0.0745  0.1012
86203W        W29219  16.776   8.425   6.424 -0.0171 -0.0761  0.1458
86204W        W29220  17.974  30.349   5.413  0.1688 -0.2060 -0.1931
86205W        W29221  21.928   5.528  27.765 -0.4660  0.0202 -0.0030
86206W        W29222  28.181  13.697  28.504  0.0038 -0.1691  0.2061
86207W        W29223  11.286   3.315   7.483  0.0398 -0.2087 -0.2302
86208W        W29224   8.684   4.218   6.912  0.1432  0.1015  0.0897
86209W        W29225  19.828  23.786  26.064  0.1359 -0.4947 -0.0180
86210W        W29226  14.123  30.810   1.037 -0.0264  0.1368  0.0694
86211W        W29227   0.093  31.422  22.012 -0.1124 -0.0983 -0.1381
86212W        W29228  10.235  19.001  23.095  0.0559  0.2824 -0.3899
86213W        W29229  12.584   6.549   7.442  0.1228 -0.0961  0.0140
86214W        W29230  24.858   0.149  21.214  0.0457 -0.0526  0.1424
86215W        W29231  18.673  30.806  20.237 -0.0138 -0.4948 -0.3106
86216W        W29232  22.589  33.914  19.274  0.0392  0.1236 -0.3485
86217W        W29233  11.562  27.019  27.026  0.1478 -0.0324  0.0029
86218W        W29234  32.166   6.150   4.687 -0.0832  0.1377  0.1802
86219W        W29235  20.785  16.868  21.916  0.1666  0.0187 -0.2972
86220W        W29236  29.081   1.348   2.795  0.0604 -0.2662 -0.0737
86221W        W29237  32.656   8.880   1.657 -0.1766  0.0798 -0.0701
86222W        W29238  29.655  12.426   5.610 -0.1653 -0.0370 -0.0085
86223W        W29239  32.043   5.078   4.085 -0.4055  0.3173  0.1320
86224W        W29240  23.864   5.281  21.790  0.1524  0.0580 -0.4483
86225W        W29241  23.152  17.737   7.099 -0.3146 -0.0608  0.1425
86226W        W29242  12.564  33.771   9.622  0.1519 -0.2795 -0.1821
86227W        W29243  27.719  19.627  19.016 -0.0691 -0.1614  0.0488
86228W        W29244  30.385  32.235   4.322  0.2147 -0.0325  0.1940
86229W        W29245  19.081  21.698   7.962 -0.1836 -0.1174 -0.0443
86230W        W29246  17.892   7.664  24.762  0.1321  0.0027  0.1427
86231W        W29247  20.350   8.219   7.674 -0.1346 -0.2619 -0.0182
86232W        W29248  29.645  15.978   2.605 -0.0633 -0.0480  0.1558
86233W        W29249  22.684  16.950   7.094 -0.2280 -0.2435 -0.0738
86234W        W29250  15.518  10.337   3.429 -0.0012 -0.1296 -0.0164
86235W        W29251  13.426   3.747   4.458 -0.1546 -0.0302  0.0715
86236W        W29252  17.583   6.674   3.672  0.2178 -0.0030  0.2013
86237W        W29253  27.177  13.576  22.728 -0.1311 -0.1595 -0.0388
86238W        W29254  13.925   5.404  22.054  0.0889 -0.2366 -0.1469
86239W        W29255   3.251  25.145   5.801 -0.0978 -0.4666  0.1153
86240W        W29256  14.947   6.332  18.398 -0.4780 -0.0515  0.0599
86241W        W29257  16.952   2.152   7.753 -0.4247  0.1576  0.3267
86242W        W29258  21.532   1.087   8.916 -0.0504  0.0379 -0.0304
86243W        W29259  18.284  14.889   3.423  0.0745 -0.3379 -0.1694
86244W        W29260  13.067  33.818  22.471  0.0293 -0.0913  0.4025
86245W        W29261  16.912   8.439  22.202 -0.1220 -0.0980 -0.0941
86246W        W29262  12.722  31.850  17.689 -0.0106 -0.2523 -0.4009
86247W        W29263  17.107   4.821  18.499  0.4362 -0.1780  0.3200
86248W        W29264  14.622   3.193  20.092 -0.1103  0.2935  0.0082
86249W        W29265  27.596  10.344  19.196  0.2399 -0.1600 -0.3008
86250W        W29266  16.627   6.723  18.549  0.0849 -0.3710 -0.1694
86251W        W29267   2.256  11.718  20.339  0.4660 -0.2010 -0.0124
86252W        W29268   7.352  15.518  18.617 -0.2071  0.3395 -0.0488
86253W        W29269  27.753  15.404  24.688  0.1838 -0.1764  0.2653
86254W        W29270  12.981  14.311  20.765 -0.0723  0.1608  0.0701
86255W        W29271   8.152  20.434  15.335 -0.0821 -0.2156  0.2795
86256W        W29272  24.159  11.115  22.265  0.1523  0.2769  0.0521
86257W        W29273  32.710   7.958  25.548  0.2607 -0.2804 -0.1977
86258W        W29274  32.052  25.426   1.498  0.2833 -0.1693 -0.1517
86259W        W29275  22.403  15.180  20.762  0.1159 -0.0771  0.0925
86260W        W29276  15.942  13.534  12.100  0.2305  0.0450  0.0527
86261W        W29277  31.307   3.361  14.980 -0.2214  0.0122 -0.0795
86262W        W29278  24.203  13.931  21.259 -0.0379  0.1535  0.1454
86263W        W29279   7.093  27.314  14.207 -0.1712  0.0295 -0.1307
86264W        W29280   4.850   0.124  27.580  0.0586 -0.0466  0.1253
86265W        W29281  34.647  10.079  15.257  0.0058  0.0045 -0.3406
86266W        W29282   3.204  23.384  23.212  0.2268 -0.1261  0.2321
86267W        W29283   1.923   1.443  24.090  0.1157 -0.0400  0.2645
86268W        W29284  19.723  24.664  14.582  0.0425  0.1227  0.2265
86269W        W29285  21.402   6.488  19.777 -0.0806 -0.1046  0.0197
86270W        W29286  22.820   9.226  15.536  0.1499  0.2939  0.2364
86271W        W29287  34.457   4.631  15.517 -0.2525  0.0788  0.1304
86272W        W29288  23.684  34.210  16.394 -0.0465 -0.0967  0.0296
86273W        W29289   4.982   9.297  20.082  0.0739 -0.1435  0.0822
86274W        W29290  24.427   5.025  19.077  0.2610 -0.0833  0.0088
86275W        W29291   0.525   6.060   2.879 -0.1633 -0.2222  0.0202
86276W        W29292  12.663  19.891  14.826 -0.1753  0.3146 -0.0385
86277W        W29293  22.368  34.670  26.655 -0.4358 -0.2838  0.3298
86278W        W29294  27.813   3.226   0.276  0.3420  0.2339 -0.0593
86279W        W29295  23.167  16.701  15.041  0.1450  0.0035 -0.2141
86280W        W29296  19.603  11.407  28.491  0.1337  0.2194 -0.0062
86281W        W29297  12.082   4.231  26.973  0.0427 -0.0358 -0.0191
86282W        W29298  17.236   5.027  16.711 -0.0845  0.0868 -0.0433
86283W        W29299  27.553  33.278   2.672 -0.0898 -0.4148  0.3638
86284W        W29300  14.333   5.653  20.945  0.0021 -0.0777 -0.1782
86285W        W29301  14.965   8.389  13.948  0.3083 -0.1928 -0.2389
86286W        W29302  25.841  32.190  10.277  0.1968 -0.1350  0.0492
86287W        W29303   5.642  31.112  22.600 -0.1023 -0.0232  0.0393
86288W        W29304  17.081   5.506  19.716  0.0892 -0.2046  0.1399
86289W        W29305  30.613   6.719  19.449  0.2120 -0.2356 -0.0699
86290W        W29306  16.334  12.110  13.844  0.0166  0.1353 -0.0602
86291W        W29307   0.957  30.377  21.269 -0.1344  0.2295  0.2297
86292W        W29308  27.400   5.523  24.635  0.0795  0.1355  0.0398
86293W        W29309  21.977  19.505  14.869 -0.3024  0.0570  0.1023
86294W        W29310  18.244  14.686   4.714  0.0550 -0.0451  0.2369
86295W        W29311  19.712  15.052  24.414  0.1531 -0.1356  0.0730
86296W        W29312  15.862   6.630  18.091 -0.1558 -0.3535  0.0991
86297W        W29313  26.600   3.613  19.326  0.0541  0.0369  0.2725
86298W        W29314  27.821  14.557  19.097  0.2198 -0.0721 -0.0683
86299W        W29315  22.918  33.504  26.728 -0.0456 -0.4549 -0.1012
86300W        W29316  32.090   8.446  25.090 -0.1366  0.1990  0.2484
86301W        W29317  26.508  33.948  22.176  0.1583  0.3482 -0.0558
86302W        W29318  14.695  19.190  11.942 -0.4054  0.2887 -0.1088
86303W        W29319  27.048  12.573   3.637  0.1606 -0.0329  0.0147
86304W        W29320   8.057   7.651  23.209 -0.2094 -0.0687 -0.0143
86305W        W29321   3.714   3.923  27.763 -0.3550  0.0155  0.0197
86306W        W29322  12.142  31.377   3.394 -0.3444  0.0499 -0.1448
86307W        W29323  28.004   2.035   4.536  0.2215  0.1468  0.0027
86308W        W29324  20.081   0.629  20.662  0.0257 -0.0346 -0.0902
86309W        W29325  28.689   9.222  24.392 -0.2074 -0.1492 -0.2675
86310W        W29326  25.266  28.850  19.145  0.1519 -0.3796  0.1368
86311W        W29327   3.856  34.493  20.307 -0.1582  0.0182  0.0602
86312W        W29328  15.142   5.957  22.632 -0.1331  0.0302 -0.2373
86313W        W29329  25.263  13.246  20.491 -0.3738 -0.4357  0.0182
86314W        W29330  13.171  19.940   4.079  0.1664  0.0361 -0.1303
86315W        W29331  14.716   3.810  23.258  0.0650  0.1537 -0.0051
86316W        W29332   7.490  11.729  17.895 -0.1174  0.2478 -0.5285
86317W        W29333  27.886  12.812  21.302  0.2481 -0.0136  0.1161
86318W        W29334   9.278   8.586  18.897 -0.1372 -0.4637  0.1353
86319W        W29335  10.006   7.425  23.408 -0.0651 -0.1368  0.0935
86320W        W29336  22.172   8.112  26.411 -0.1960 -0.4291  0.3566
86321W        W29337  29.568  20.134  18.201 -0.1249  0.4843 -0.2414
86322W        W29338  13.392  17.980  21.809  0.1364  0.1664 -0.1020
86323W        W29339  33.220  11.987  25.856  0.0306 -0.1784 -0.0184
86324W        W29340  20.374  33.354   0.407  0.1371  0.0685 -0.1504
86325W        W29341  27.769  29.074  20.147  0.1200  0.1841  0.0892
86326W        W29342  21.775  20.651  15.972  0.0478 -0.0209 -0.0759
86327W        W29343  17.094  29.826  23.670  0.0333  0.0805  0.1527
86328W        W29344   9.165  13.762  28.038  0.2770 -0.0640 -0.0227
86329W        W29345  17.756   9.440  19.890 -0.0343 -0.1508  0.2286
86330W        W29346   6.414  16.109  19.853  0.0658  0.1659  0.1231
86331W        W29347  20.521  32.791  26.341 -0.2786  0.1140 -0.0244
86332W        W29348  27.901   9.442  25.576 -0.2560 -0.0541 -0.0830
86333W        W29349  14.422  15.751  27.445  0.3093  0.2668  0.2171
86334W        W29350  20.596  29.384  16.078  0.0530  0.1311 -0.4584
86335W        W29351  10.432  26.194  14.682  0.0782  0.2130  0.3647
86336W        W29352  18.036   9.137  26.760  0.3638  0.0002 -0.2069
86337W        W29353  25.039  10.083  14.061 -0.1073  0.2938 -0.1812
86338W        W29354  13.192  34.746  25.270  0.2879  0.1819  0.0579
86339W        W29355  28.331  17.294  15.507  0.0184  0.0456  0.3119
86340W        W29356   5.934  13.693   0.912 -0.0727  0.1142 -0.0379
86341W        W29357  26.781   7.196  22.662 -0.0030  0.0253  0.1948
86342W        W29358  14.848   6.718   4.964 -0.0826  0.0734 -0.0488
86343W        W29359  12.541   5.879  14.686  0.1779 -0.0179  0.0453
86344W        W29360  19.025   2.648   4.940 -0.0568 -0.2554 -0.0902
86345W        W29361  16.318  32.147  21.652 -0.0003  0.2554  0.2300
86346W        W29362  20.505  19.320  13.554  0.1711 -0.1053 -0.1508
86347W        W29363  10.878   4.780  15.860  0.2066  0.1085  0.0155
86348W        W29364   7.847  18.471  18.880 -0.0821 -0.0993  0.0745
86349W        W29365  32.097  30.482  23.584 -0.0182 -0.2637 -0.0430
86350W        W29366  22.139  10.588  21.107 -0.2847 -0.1290  0.1504
86351W        W29367   0.699  27.631  29.052  0.2348 -0.2139  0.1693
86352W        W29368  24.354  11.738  19.641  0.2582  0.0340  0.2714
86353W        W29369  10.687   6.238  27.200 -0.3325  0.0867 -0.0931
86354W        W29370   5.116  17.246  15.474  0.0050 -0.0113  0.1488
86355W        W29371  32.380  33.924  18.642  0.2351 -0.5364 -0.1970
86356W        W29372  31.728  21.184  26.005 -0.1963 -0.1319 -0.2149
86357W        W29373  15.431   5.975  14.786  0.1963 -0.1221 -0.0169
86358W        W29374  13.631  27.477  15.909 -0.1074 -0.0572  0.0344
86359W        W29375  20.266   3.214  27.364 -0.2467 -0.1715  0.2576
86360W        W29376  30.795  29.895   3.659  0.2631  0.2393 -0.0980
86361W        W29377  18.274  17.176  13.578 -0.0887 -0.0455 -0.1080
86362W        W29378  24.226  19.196  16.395  0.2924 -0.0107  0.0827
86363W        W29379  34.462  29.408  16.747  0.2348 -0.2147 -0.0533
86364W        W29380  30.865   0.827  21.976  0.3406  0.1191  0.0877
86365W        W29381   3.596  12.321  18.337  0.1614  0.0141  0.2381
86366W        W29382   6.742   2.000  20.690 -0.1197  0.1206 -0.2515
86367W        W29383  33.426   8.593  15.630 -0.0543 -0.1775 -0.1798
86368W        W29384  23.110  20.053  22.701 -0.0461  0.2075 -0.0570
86369W        W29385  29.191  32.629  24.362  0.2498 -0.0219 -0.2595
86370W        W29386  24.481  30.368  29.166 -0.2184 -0.1345 -0.0356
86371W        W29387  14.019  11.735  20.445 -0.3782 -0.4829 -0.0006
86372W        W29388  29.905  32.903  16.954 -0.0320 -0.0340  0.0656
86373W        W29389  24.101  33.706  24.726 -0.2212 -0.3487  0.2235
86374W        W29390   8.908  33.307  23.390  0.3971  0.2760  0.0256
86375W        W29391  19.125  31.653   4.615 -0.0580  0.0276 -0.0669
86376W        W29392  22.642  11.173  14.848 -0.0134  0.0237  0.0614
86377W        W29393   9.694  17.501  24.947 -0.2939  0.1811 -0.0140
86378W        W29394  14.942   7.708  17.145 -0.0053 -0.4957  0.1979
86379W        W29395  28.048  16.599  24.037  0.0881 -0.1186 -0.2017
86380W        W29396  12.398  29.176  20.288  0.0089 -0.1795  0.2548
86381W        W29397  10.992  11.468  29.056  0.2553  0.1719  0.0906
86382W        W29398  22.900  20.593  19.581  0.3679 -0.0427 -0.1123
86383W        W29399  11.684   2.379  17.992 -0.1302  0.0070  0.1890
86384W        W29400  25.653  14.338  17.389 -0.1892 -0.1320 -0.0858
86385W        W29401  30.698  21.490  15.190  0.3526  0.2875  0.0016
86386W        W29402  24.018  20.310  21.486  0.4380  0.2181 -0.2283
86387W        W29403  22.119  16.787  13.270 -0.3126 -0.0490 -0.3266
86388W        W29404  33.874  31.833  15.446  0.0291 -0.1017 -0.2303
86389W        W29405  19.957  12.821  13.638 -0.1028 -0.0094 -0.1038
86390W        W29406   2.230   7.010  23.323 -0.3537 -0.0448 -0.1608
86391W        W29407  22.939   7.068  24.280  0.0078  0.2848  0.1755
86392W        W29408   2.499  32.585  16.288  0.0641 -0.0302 -0.0159
86393W        W29409  22.615  15.043  21.170  0.2485  0.1849 -0.2406
86394W        W29410  19.431  34.195  19.443 -0.2863 -0.1726  0.1397
86395W        W29411  29.665  11.939  15.334  0.0496 -0.0807 -0.2873
86396W        W29412  11.014  17.143  14.562  0.0410 -0.1340 -0.0719
86397W        W29413  21.057  12.805  13.603 -0.0225  0.1902 -0.1601
86398W        W29414  26.606  29.576  22.001  0.2004  0.0693  0.1355
86399W        W29415  18.004  22.015   3.403 -0.2610  0.0276 -0.0450
86400W        W29416  16.612  13.863  12.850 -0.0467  0.0071  0.0481
86401W        W29417  16.407  16.551  14.868 -0.1871 -0.0943  0.2873
86402W        W29418  10.235  29.374  19.120 -0.1405  0.5269  0.3920
86403W        W29419  19.312  12.128  13.221  0.1462 -0.0977  0.0299
86404W        W29420  16.410  17.596  13.255  0.1474  0.0286  0.0177
86405W        W29421  22.428   3.426  19.828 -0.0987 -0.1457 -0.0787
86406W        W29422  33.335  30.373  21.758 -0.1343 -0.0871  0.0867
86407W        W29423  21.677  10.332  26.622  0.0882  0.0004  0.0804
86408W        W29424  16.161  22.530  18.369 -0.0024 -0.0454  0.2012
86409W        W29425  14.758  13.002  12.694 -0.0797 -0.1257 -0.2303
86410W        W29426   7.876   6.837  17.887 -0.1628 -0.0444 -0.0315
86411W        W29427  24.306   9.942  22.722  0.0968  0.0590  0.1305
86412W        W29428  20.780   0.192  17.352  0.0208 -0.1421  0.1201
86413W        W29429  23.003  12.972  14.808 -0.1788  0.0637  0.1298
86414W        W29430  13.703  15.144  20.312  0.0828 -0.0409 -0.1391
86415W        W29431  19.098   8.190  24.416 -0.0479  0.2888  0.3514
86416W        W29432   1.735   0.979  14.299 -0.1736 -0.0238 -0.0706
86417W        W29433  12.004  30.168  19.085  0.4172 -0.0287 -0.0276
86418W        W29434  16.863   2.148  19.985  0.0863 -0.1350  0.2502
86419W        W29435   7.936  13.066  20.100  0.4422 -0.0409  0.1112
86420W        W29436  22.982   8.497  15.705 -0.0795  0.1480 -0.0393
86421W        W29437  14.995   4.749   3.091  0.0353 -0.0964 -0.2280
86422W        W29438  13.377  34.770  20.952  0.2172 -0.0521 -0.0984
86423W        W29439   1.746  10.291  14.860 -0.1185  0.2371  0.3899
86424W        W29440  17.021   2.731  17.265  0.0712  0.1390 -0.0281
86425W        W29441  16.835  27.931  20.900 -0.0347  0.2676  0.0747
86426W        W29442  11.054  29.511  26.675 -0.2853 -0.4098 -0.0362
86427W        W29443  17.413  17.427  17.206  0.4357 -0.1299 -0.4232
86428W        W29444   0.911   8.640   2.012 -0.0485 -0.2360 -0.0206
86429W        W29445  28.897  21.062  26.714 -0.0557  0.0220 -0.3533
86430W        W29446  13.775  33.240  19.288 -0.0708  0.2582  0.0332
86431W        W29447  18.441  31.666  19.780 -0.1988  0.0730  0.1545
86432W        W29448  15.245  26.506  22.705  0.1697  0.2219 -0.2837
86433W        W29449  22.447   3.184  24.106  0.1202  0.1605 -0.0875
86434W        W29450  26.524  16.606  18.463  0.1031  0.3076 -0.0255
86435W        W29451  18.498  30.824  18.688  0.0097  0.1761  0.0777
86436W        W29452  18.512  33.911   1.780  0.1361  0.1036 -0.0005
86437W        W29453  31.230  19.391  18.084 -0.1929 -0.3777  0.0781
86438W        W29454  28.167  33.856  22.759  0.1588 -0.1189  0.0416
86439W        W29455  29.756   3.459   8.050  0.1717  0.1719 -0.2605
86440W        W29456  15.522   8.364  22.283 -0.0759  0.3407  0.1972
86441W        W29457  26.070  12.389  20.225 -0.1952 -0.3119  0.0413
86442W        W29458   3.317  11.849  24.113  0.0373  0.0718  0.4784
86443W        W29459  15.913  15.854  14.992  0.3139 -0.1969 -0.0527
86444W        W29460  29.088   2.111  25.466 -0.2166 -0.1579 -0.1324
86445W        W29461  19.651  13.831  22.006 -0.0643  0.0722 -0.1493
86446W        W29462  13.686  27.382  19.001 -0.0982  0.0752  0.0278
86447W        W29463   2.666   2.907  14.898  0.0466 -0.1109  0.0120
86448W        W29464  21.987   4.533  15.604  0.0125  0.1706 -0.3635
86449W        W29465   8.579   2.384  25.752  0.1792 -0.2382  0.3361
86450W        W29466  16.992  32.784  21.897 -0.2159  0.3868  0.2917
86451W        W29467  28.376  19.044  23.788  0.0996  0.0140  0.3625
86452W        W29468  28.336  12.762  20.575  0.1621  0.1877 -0.2378
86453W        W29469  27.267  17.275  14.333  0.0578 -0.1539  0.3026
86454W        W29470  18.732   6.318  26.023 -0.0100 -0.0421  0.3297
86455W        W29471  24.694   3.441  21.645 -0.2566 -0.2028  0.0861
86456W        W29472  32.783  10.924   7.218  0.2062 -0.2649  0.0440
86457W        W29473  13.079   8.709  14.478 -0.3216 -0.0063  0.0898
86458W        W29474  17.186  17.030   8.756  0.4418  0.0053 -0.0277
86459W        W29475  17.323   9.068  25.012  0.1249 -0.1429 -0.0249
86460W        W29476   0.390   2.398  14.560 -0.0201 -0.2407 -0.1212
86461W        W29477  27.674  10.995  23.831 -0.0455  0.0117 -0.0164
86462W        W29478  22.182  30.908  17.330 -0.0326  0.2714 -0.3013
86463W        W29479   0.766  22.455  24.910  0.0259 -0.3489  0.2131
86464W        W29480  25.429  34.603  25.762 -0.2758 -0.1890  0.1243
86465W        W29481  17.810   1.887  14.443 -0.0434  0.1567 -0.0456
86466W        W29482   6.477  14.412   1.826 -0.1248 -0.0510 -0.2540
86467W        W29483  25.364  16.869  19.157  0.4413  0.2404  0.0875
86468W        W29484  19.539  31.488   0.443 -0.2082 -0.2677  0.1651
86469W        W29485   8.627  26.229  18.230 -0.0674 -0.1339  0.0290
86470W        W29486   3.404   0.439  14.220  0.0054  0.0951 -0.1056
86471W        W29487   0.108   8.874  15.413  0.1015 -0.2430 -0.4218
86472W        W29488  22.808  34.480  19.223  0.2781  0.3106 -0.2210
86473W        W29489  22.078  11.923  14.484 -0.3808 -0.1758  0.2955
86474W        W29490  19.980   0.485  15.713 -0.1842 -0.1345 -0.2707
86475W        W29491   5.986  20.936  18.551 -0.0332 -0.5348 -0.3745
86476W        W29492   4.259  23.280  20.213 -0.0328  0.0656  0.3570
86477W        W29493   4.742   9.735  24.342 -0.0316  0.3412 -0.2222
86478W        W29494  13.319   3.970  19.850 -0.3165 -0.0374  0.2318
86479W        W29495  20.296   9.792  20.174 -0.3006 -0.0962 -0.0399
86480W        W29496  23.031   7.694   3.200 -0.1782  0.0732  0.0074
86481W        W29497   8.188  12.866  16.549  0.2074  0.3984  0.5711
86482W        W29498   0.071  23.967  21.330 -0.0644  0.2137  0.3206
86483W        W29499  19.506  11.962  20.025  0.1312 -0.0614  0.0841
86484W        W29500   9.344  14.660  18.277  0.0556 -0.1955 -0.4000
86485W        W29501  15.721  34.761  23.258 -0.1357  0.1009  0.1508
86486W        W29502  15.630   5.788  22.831 -0.0491 -0.0633 -0.1447
86487W        W29503  18.581   7.146  18.344  0.2062  0.0907 -0.6697
86488W        W29504  30.018  16.455  28.730  0.0257  0.0765 -0.1430
86489W        W29505   6.553   8.406  15.136 -0.1950 -0.4906  0.0217
86490W        W29506  29.203   8.751  16.880 -0.4215  0.1512  0.0021
86491W        W29507  18.524   1.123   2.837 -0.0390  0.0888 -0.0146
86492W        W29508  24.893  10.126  24.441  0.0117  0.1672  0.3880
86493W        W29509  26.598   3.788   1.472  0.1261  0.2040 -0.2443
86494W        W29510  25.622  10.840  23.888 -0.3258  0.3243 -0.0388
86495W        W29511   7.754  17.277  20.602  0.0327 -0.0538  0.0181
86496W        W29512  12.026   4.206   0.708  0.0717  0.0851  0.2295
86497W        W29513  11.774   5.407  21.562  0.0024 -0.1546  0.0275
86498W        W29514  21.190   0.727  24.005  0.0770  0.1035  0.0375
86499W        W29515  11.052  32.112  24.934 -0.0562  0.1589 -0.1490
86500W        W29516  19.058  28.429   1.566  0.1377 -0.2782 -0.1031
86501W        W29517  30.110  22.768  15.247 -0.1450 -0.2901  0.0807
86502W        W29518   3.821  16.085  24.039  0.1435  0.1414 -0.0587
86503W        W29519   9.053  12.711  28.931 -0.0751 -0.2634 -0.1190
86504W        W29520  23.562   4.732  14.211 -0.0859 -0.2347  0.2765
86505W        W29521   1.640  15.521  19.324  0.0320 -0.0102  0.1400
86506W        W29522  26.930  16.976  14.159 -0.1096 -0.0947 -0.0918
86507W        W29523   8.455  11.845  17.281 -0.0318 -0.1460 -0.0137
86508W        W29524   0.877  30.363  14.739 -0.0788  0.2207  0.0884
86509W        W29525  13.493  24.316  18.774  0.4497  0.0590 -0.2262
86510W        W29526  25.409  10.812  23.369  0.0696  0.1028 -0.1047
86511W        W29527  25.570   1.591  14.732 -0.1945 -0.1842  0.0840
86512W        W29528   0.449  33.681  21.872  0.1121 -0.1802 -0.2481
86513W        W29529  15.897  16.710  19.682 -0.5707 -0.4347  0.1290
86514W        W29530  14.168   8.581  17.192  0.0251  0.2680 -0.0401
86515W        W29531  19.575  25.612  16.680 -0.0372  0.0178  0.2289
86516W        W29532  24.590  11.663  18.357  0.1002 -0.1782 -0.0758
86517W        W29533  26.132   7.765  27.507 -0.0042 -0.0671 -0.2326
86518W        W29534  28.970   3.783  16.225  0.0247 -0.0857 -0.1207
86519W        W29535   7.380  20.809   2.249  0.1263 -0.1167 -0.0851
86520W        W29536   6.845  18.575  23.364  0.3123 -0.1861  0.5087
86521W        W29537   9.026   7.809  21.067  0.1116 -0.0265  0.0094
86522W        W29538  21.074   6.468  20.179 -0.0020 -0.1379 -0.2365
86523W        W29539  16.532  15.115  13.756  0.1782  0.1904  0.3525
86524W        W29540   8.833   5.175  15.932  0.0340  0.2678 -0.4203
86525W        W29541  11.235  16.949  18.903  0.1225  0.0352 -0.2729
86526W        W29542   5.197   4.096  15.417 -0.1995 -0.0140 -0.0860
86527W        W29543  27.082  31.891  21.523 -0.2780  0.2091  0.3412
86528W        W29544  14.032  14.741  18.178  0.2122  0.1489 -0.0060
86529W        W29545   7.201  32.250  20.222 -0.0638 -0.1222  0.2160
86530W        W29546  30.727  28.778  21.452  0.0443 -0.2122  0.0902
86531W        W29547   4.275  31.743  24.621 -0.0243  0.2640  0.0748
86532W        W29548  19.146  16.871  14.554  0.3887  0.0191 -0.1148
86533W        W29549  24.792   7.593  15.111 -0.1927 -0.1465  0.2120
86534W        W29550   0.996  21.626  14.726 -0.3055 -0.2498 -0.0927
86535W        W29551  25.532  33.927  24.453  0.2150 -0.1501  0.2921
86536W        W29552  32.540  16.112  19.358 -0.1048  0.0164  0.1978
86537W        W29553  23.207  17.969  19.536  0.0265  0.0554 -0.0530
86538W        W29554   9.675  12.115  13.940  0.0772  0.2105 -0.0750
86539W        W29555  27.108  14.804  17.747  0.3132  0.1137 -0.0450
86540W        W29556   6.768  24.235  27.470 -0.0629 -0.0905  0.1615
86541W        W29557  21.951  13.095  26.304 -0.3513 -0.0777  0.0045
86542W        W29558  24.476  10.342  20.780  0.0597  0.0501 -0.0537
86543W        W29559  25.358  20.312  21.983  0.0308 -0.0663  0.0673
86544W        W29560  13.636  32.991  20.231  0.0819  0.0945 -0.2105
86545W        W29561  33.134  20.728  29.187  0.1367  0.1588  0.1041
86546W        W29562   9.384   3.371  17.372  0.0941  0.0304 -0.0472
86547W        W29563  23.362  25.608  29.300 -0.0051  0.1038 -0.0679
86548W        W29564   9.451  30.744  18.987 -0.1416 -0.0375 -0.2703
86549W        W29565  18.239   3.766  18.332  0.0331  0.3270 -0.0832
86550W        W29566  25.926  11.698  22.686  0.1553 -0.0622 -0.2748
86551W        W29567  22.462  28.922  19.020 -0.1272  0.0332  0.0668
86552W        W29568   2.125  17.965  19.497 -0.1605  0.1207 -0.0702
86553W        W29569   5.138  34.446  17.714 -0.0035 -0.1667  0.0378
86554W        W29570   1.276  19.667   1.310 -0.1468 -0.0799  0.0785
86555W        W29571   3.313   7.850  20.290 -0.1001 -0.0008  0.1199
86556W        W29572  17.068   2.773  25.695  0.0217  0.1239  0.1218
86557W        W29573  28.138  18.269   8.979 -0.4851  0.2532 -0.2165
86558W        W29574  11.586   1.566   2.096  0.1032  0.1185 -0.1467
86559W        W29575   0.797  18.078  19.426 -0.1646 -0.0694 -0.0660
86560W        W29576  15.858  11.385  28.094  0.3025 -0.4235  0.0697
86561W        W29577   2.939  33.816  19.349  0.0287  0.0405  0.1134
86562W        W29578  15.524  11.831  18.502  0.2572 -0.1817  0.2483
86563W        W29579  26.046  16.214  20.508 -0.1180  0.2717 -0.1297
86564W        W29580  17.315  23.662  17.634 -0.0068  0.1725  0.1649
86565W        W29581  32.869  28.675  23.690 -0.2854 -0.0177  0.1524
86566W        W29582  14.595  30.470   2.103  0.0735 -0.0078 -0.2171
86567W        W29583  21.021  29.930  14.774  0.1831 -0.1059 -0.0583
86568W        W29584  20.494   6.770  22.085 -0.0883  0.2103  0.1270
86569W        W29585  13.509  29.657  18.305 -0.0441  0.0892  0.1504
86570W        W29586  23.199  31.843  23.708 -0.0880 -0.0992 -0.0520
86571W        W29587  27.284  15.471  25.993  0.1328 -0.2688  0.0666
86572W        W29588  33.037  24.436  16.388 -0.2002 -0.0186  0.0200
86573W        W29589  20.832   4.499  18.646 -0.4057 -0.3162  0.0066
86574W        W29590  12.230   6.141  13.593  0.0262 -0.0282  0.3463
86575W        W29591  24.732   4.577  19.811 -0.0791 -0.1923 -0.2128
86576W        W29592  22.872  10.417   4.702  0.0132  0.4960 -0.0789
86577W        W29593  17.141  26.930  24.239 -0.2557  0.0751 -0.2823
86578W        W29594   5.332   8.665   2.579 -0.0688 -0.0318 -0.1706
86579W        W29595  32.262  14.251  21.623  0.1641  0.1260 -0.0473
86580W        W29596  24.614  10.114  18.081  0.1417 -0.0293 -0.0185
86581W        W29597  32.656  10.254  18.765  0.2238 -0.0808  0.1673
86582W        W29598  29.465  21.974  20.445  0.1065 -0.2156 -0.1456
86583W        W29599  26.412  16.088  25.280 -0.0740 -0.1643 -0.0842
86584W        W29600  17.078   5.168  16.190 -0.1264  0.2226 -0.2340
86585W        W29601  25.476  10.873  28.708  0.0071  0.1662  0.1113
86586W        W29602  30.257   2.964  20.480  0.2222 -0.0140 -0.0830
86587W        W29603  21.583  32.812   2.553  0.2731 -0.3436 -0.0349
86588W        W29604   8.842  17.962  17.410 -0.0266 -0.2292 -0.1310
86589W        W29605  27.344  12.078  20.327  0.4057 -0.0183  0.1989
86590W        W29606  30.603  13.308  26.031  0.1744 -0.2018  0.2909
86591W        W29607  32.765   4.181  14.217 -0.1006  0.0605 -0.4498
86592W        W29608   3.182   2.564  20.903 -0.0292  0.4284  0.1690
86593W        W29609  19.993  19.614  15.717 -0.3358 -0.1675  0.2775
86594W        W29610  10.854   1.131   2.107  0.2067  0.0402 -0.1169
86595W        W29611  21.983  16.185  15.364 -0.2744  0.1734 -0.1276
86596W        W29612  33.671  11.389  22.117 -0.1307  0.1349  0.2687
86597W        W29613  19.587   7.483  18.525 -0.2358  0.2824 -0.0425
86598W        W29614  21.085  29.807  15.318  0.1628  0.0246 -0.2143
86599W        W29615  28.269  27.274  25.664 -0.1801  0.0661  0.1347
86600W        W29616  17.413  26.383  16.604 -0.2919  0.0592  0.1373
86601W        W29617   6.716  16.269  18.656  0.0538 -0.1432  0.0373
86602W        W29618  21.723  14.617  15.389  0.3548 -0.1828  0.1939
86603W        W29619  20.845   3.911  21.230 -0.2239 -0.1652  0.0140
86604W        W29620  21.510   6.358  14.659 -0.1112 -0.0200  0.1240
86605W        W29621  13.469  30.193  22.894 -0.0517 -0.1918 -0.2313
86606W        W29622  27.431   6.350   1.970  0.0205  0.3137 -0.0716
86607W        W29623  18.996   8.082  18.207  0.3382 -0.2413  0.0439
86608W        W29624  22.714   3.089  14.808  0.2700  0.0696  0.2588
86609W        W29625  13.796  26.579  18.291  0.0573  0.0514 -0.0049
86610W        W29626  20.478  12.427  18.840  0.2369 -0.2591 -0.0954
86611W        W29627   1.151   4.027  22.690  0.0639  0.3677  0.1558
86612W        W29628  26.918   9.588   2.513  0.1826  0.0230 -0.1638
86613W        W29629   1.712  29.073  25.818  0.0780  0.2077  0.1200
86614W        W29630  22.920  32.882  28.351 -0.1607  0.1042  0.0644
86615W        W29631  32.961   0.641  16.941 -0.2230 -0.0939 -0.2622
86616W        W29632  18.119  21.759  29.067  0.0478 -0.3721  0.0575
86617W        W29633  18.525  28.384   6.296 -0.4029 -0.1450  0.1451
86618W        W29634   5.360   3.645  15.617 -0.0407 -0.2088 -0.0577
86619W        W29635  28.426  32.572  20.019  0.2672  0.0308  0.0547
86620W        W29636  32.399  13.214  22.672  0.2991 -0.2725 -0.0508
86621W        W29637  12.153   5.106  16.405 -0.2288 -0.1071  0.3292
86622W        W29638  16.897   5.135  15.706 -0.0893 -0.1171 -0.1975
86623W        W29639  29.278  11.538  18.421  0.3404  0.0572 -0.2657
86624W        W29640   8.707  11.514  16.964 -0.1100 -0.2009 -0.0864
86625W        W29641  23.398  26.038   6.479 -0.0738  0.1890  0.0565
86626W        W29642  12.142  34.136  17.709  0.0144 -0.1165 -0.2451
86627W        W29643  20.392  25.953  15.956  0.0749  0.0760  0.2839
86628W        W29644  11.758  12.530  16.488  0.1556  0.2347 -0.4183
86629W        W29645  20.418   5.981  26.541 -0.2513 -0.3169  0.0274
86630W        W29646  24.412  17.272  16.939 -0.2372  0.2482 -0.2111
86631W        W29647   3.688   7.759  16.771  0.0088  0.0268 -0.1820
86632W        W29648  12.316  30.803  20.176  0.1476  0.1436 -0.1126
86633W        W29649  28.550   0.827  18.439 -0.1981  0.3122  0.0623
86634W        W29650  13.593   2.503  19.578  0.2874 -0.0295 -0.1934
86635W        W29651  17.810   8.430  20.015  0.0948  0.0112  0.1914
86636W        W29652  14.869   4.682  15.805  0.1250 -0.2638 -0.0653
86637W        W29653  10.205   3.894  16.157  0.0253  0.1507 -0.2489
86638W        W29654   2.089   3.451  25.220  0.1108  0.2015 -0.3120
86639W        W29655  17.314  19.755  14.162 -0.2581  0.3956  0.0954
86640W        W29656   2.224  31.131  13.908 -0.0412 -0.0007 -0.1051
86641W        W29657  25.962   7.329  21.363 -0.0156 -0.0252  0.2026
86642W        W29658   6.552  17.076  27.865 -0.1301 -0.0910  0.0686
86643W        W29659   9.801   4.271  21.333 -0.4321 -0.2772  0.1024
86644W        W29660  31.423  13.124  24.026  0.0074 -0.2987  0.0035
86645W        W29661  12.776  34.551  23.512  0.0526 -0.2156  0.0778
86646W        W29662  12.377   9.981  19.118  0.1056  0.3712  0.0093
86647W        W29663  14.822  25.237  22.537 -0.0064  0.0178 -0.3284
86648W        W29664  30.312  19.613  21.831 -0.2505  0.4951  0.2370
86649W        W29665   1.093  18.373   8.479 -0.1017 -0.1493  0.0904
86650W        W29666  10.257  15.374  21.250 -0.3621  0.3836 -0.0356
86651W        W29667  34.542  13.215  19.721  0.2078 -0.2996  0.0896
86652W        W29668  14.847  24.596   2.720 -0.1256 -0.0294 -0.0365
86653W        W29669   3.634  30.358  19.359 -0.0169  0.1689 -0.0440
86654W        W29670   2.856   9.676  22.743 -0.4073 -0.2922 -0.1269
86655W        W29671  24.469   3.685  24.828 -0.2161 -0.0507  0.0608
86656W        W29672   2.419  17.235  19.238  0.0037  0.1172 -0.0068
86657W        W29673  26.159   7.120  23.357 -0.0080 -0.0361  0.0426
86658W        W29674  11.706  11.317  23.018  0.1525 -0.0142  0.3202
86659W        W29675  10.434  18.758  25.227  0.3129 -0.1652 -0.0248
86660W        W29676   8.078  28.442   2.236 -0.1723  0.1756 -0.2545
86661W        W29677  23.987  20.200  13.899  0.3953 -0.2098  0.2085
86662W        W29678  25.715  15.818  16.083  0.1217 -0.1329 -0.2515
86663W        W29679  13.888  12.077  15.774 -0.1367  0.1925 -0.0326
86664W        W29680  33.353  10.960  21.187  0.1154  0.0032 -0.1315
86665W        W29681  16.929  12.575   1.393 -0.1030 -0.1604 -0.0800
86666W        W29682  25.193   1.547  28.904  0.0425  0.0215 -0.0964
86667W        W29683  26.756  21.843  25.747  0.1988  0.2421 -0.0939
86668W        W29684  22.078   3.100  22.523 -0.0238  0.3336 -0.2736
86669W        W29685   8.702  12.246  20.985  0.2537  0.2988 -0.1864
86670W        W29686  10.844  20.245  27.105  0.0942  0.1732  0.1479
86671W        W29687   2.222   2.492  21.691 -0.3856 -0.0490  0.1248
86672W        W29688   8.710  17.326  26.901 -0.2846  0.1937  0.1817
86673W        W29689  29.648  23.027  21.393  0.0114 -0.2082 -0.2675
86674W        W29690  20.334  11.899  18.746  0.0128 -0.3867 -0.2660
86675W        W29691  24.846   5.003  20.185  0.2601  0.0284 -0.0600
86676W        W29692  22.550  12.242  22.475  0.0540  0.2325  0.1906
86677W        W29693   0.015  22.413  28.903  0.3957 -0.1283 -0.3274
86678W        W29694  31.057   9.622  27.340 -0.1158  0.2458 -0.0413
86679W        W29695  17.979  15.369  23.584  0.2991  0.0072  0.1221
86680W        W29696  21.560   8.977   1.651  0.4552  0.0222  0.2500
86681W        W29697  10.649  10.243  28.296 -0.0193  0.0854  0.0384
86682W        W29698  10.061  21.781  26.053 -0.0686 -0.1422  0.1109
86683W        W29699  12.703  29.524   3.687  0.2133 -0.0007  0.0641
86684W        W29700  21.098  16.996  13.722 -0.0628 -0.0278 -0.0160
86685W        W29701  24.887  20.316  18.288 -0.0221  0.0418 -0.0087
86686W        W29702  22.757   5.054  19.872 -0.0461  0.4528 -0.2516
86687W        W29703  23.086  17.384  15.143 -0.0803  0.1564  0.1226
86688W        W29704  24.636   1.661  23.898 -0.0493  0.1236  0.0365
86689W        W29705  13.751  10.333  17.866  0.3755 -0.1532 -0.1886
86690W        W29706  28.575  19.717  24.273  0.0078 -0.2250 -0.0397
86691W        W29707  29.599  33.583  25.123  0.2101 -0.0284 -0.0758
86692W        W29708  19.371  13.684  25.049 -0.0242  0.0432  0.2483
86693W        W29709  23.993  33.767  19.770  0.1468  0.2643  0.1340
86694W        W29710  16.968  19.127  13.341 -0.0162 -0.2057 -0.1416
86695W        W29711  20.429  15.158   2.093 -0.0567 -0.1348  0.1087
86696W        W29712  23.521  11.700  20.589 -0.3454 -0.4660 -0.2283
86697W        W29713  18.622   8.112  25.826 -0.3059  0.0934 -0.2261
86698W        W29714  25.880  22.641  23.633 -0.0992  0.0185 -0.2190
86699W        W29715   2.366   2.529  29.049  0.0669 -0.0040  0.1734
86700W        W29716   4.193   4.877  18.456  0.0030 -0.0853 -0.1731
86701W        W29717   5.863   8.424   2.690  0.1228 -0.0390 -0.0773
86702W        W29718  26.311  20.500  18.465 -0.0068  0.5508 -0.0443
86703W        W29719  19.792  16.802   1.165  0.0943 -0.1239 -0.3895
86704W        W29720  14.264   3.832  20.359  0.3616  0.0472 -0.0381
86705W        W29721  17.989  10.046  19.769  0.2470  0.2798  0.3371
86706W        W29722  20.900   5.778  16.136  0.0923  0.0013 -0.1617
86707W        W29723   3.877   1.467  20.377  0.0482  0.4203 -0.1617
86708W        W29724   2.608   7.627  16.260  0.1130  0.0294  0.0523
86709W        W29725  32.201   2.791   6.405  0.0386  0.1075 -0.1554
86710W        W29726  23.111  34.636  24.162  0.0621 -0.1574 -0.0691
86711W        W29727   6.541  29.739  20.099 -0.1657  0.4245  0.1284
86712W        W29728  15.101  34.405  25.768 -0.1860  0.0675  0.1134
86713W        W29729  21.108   2.674  18.541 -0.0354  0.0540 -0.1359
86714W        W29730  34.157  25.887  17.817  0.0867  0.1468 -0.1328
86715W        W29731  21.560   9.472  23.358  0.3037 -0.2761  0.1129
86716W        W29732  13.729   7.847  18.808 -0.4319 -0.2639  0.0285
86717W        W29733  10.969  12.838  15.041  0.2038 -0.3025  0.0763
86718W        W29734  23.118  10.578  21.720  0.1014 -0.2689 -0.4079
86719W        W29735  11.636  29.582  18.943  0.0880  0.0796  0.2038
86720W        W29736  23.311  13.694  26.821  0.1014 -0.3484  0.1431
86721W        W29737  23.912  13.395  17.141  0.3715  0.0469  0.1218
86722W        W29738  19.748   8.987  12.900  0.0780 -0.0072 -0.2036
86723W        W29739   4.072  10.384   0.720 -0.3378 -0.1096 -0.0123
86724W        W29740  30.757  29.402  25.222  0.2063 -0.0731 -0.2876
86725W        W29741  22.296  28.636  25.973 -0.0842 -0.0634  0.0572
86726W        W29742   9.271  16.537  14.549  0.1055 -0.0994  0.0412
86727W        W29743  27.263  32.473  17.054 -0.1468 -0.1190 -0.1873
86728W        W29744  12.047   7.419  27.950 -0.2509  0.0153  0.0098
86729W        W29745  27.505  18.547  26.205 -0.2286 -0.2768 -0.1085
86730W        W29746  23.378  11.054  16.494  0.2656 -0.1085 -0.2585
86731W        W29747  17.544   2.043  17.827 -0.3319  0.1418 -0.1026
86732W        W29748  11.746  10.101  13.589 -0.0782 -0.3316 -0.0329
86733W        W29749  18.229  31.611  24.662 -0.2149  0.2056  0.0144
86734W        W29750  22.766   0.424   0.941 -0.0803 -0.0915 -0.1701
86735W        W29751  26.817  15.153  18.355 -0.0123  0.2581  0.1946
86736W        W29752  28.428   6.079  23.576  0.1227  0.0567 -0.0387
86737W        W29753   7.130   2.773   5.951 -0.2663  0.2887  0.2021
86738W        W29754  20.208   4.723  24.420 -0.1152  0.0569  0.0724
86739W        W29755  19.641   7.639   0.922  0.3207  0.0364  0.3257
86740W        W29756  11.369  16.878  19.389 -0.0461 -0.1826  0.0173
86741W        W29757  27.550   2.434   0.460  0.1544  0.0233 -0.1045
86742W        W29758  23.663  22.938  24.374 -0.1127  0.0467  0.2859
86743W        W29759  33.689   9.669  27.260 -0.1678  0.0968 -0.1045
86744W        W29760  15.984   8.904   1.609  0.2566 -0.4650  0.0513
86745W        W29761  20.221  11.592  14.387  0.0849 -0.2425 -0.1396
86746W        W29762   4.173  11.020  27.590 -0.1767 -0.0443  0.1097
86747W        W29763  27.735  29.197   1.303  0.2442 -0.0413  0.2924
86748W        W29764  29.805  18.645  23.461  0.2627  0.0214 -0.2943
86749W        W29765   5.751   3.961  16.371  0.0413  0.2437 -0.0252
86750W        W29766  18.455  22.036  14.274  0.4459  0.1044 -0.1146
86751W        W29767  30.144   1.199  24.425  0.3402 -0.1224  0.1383
86752W        W29768  28.238  21.556  19.844 -0.1616  0.1439  0.2688
86753W        W29769   6.870   4.620  21.082 -0.1402  0.0308 -0.2481
86754W        W29770  18.183   8.063  16.216  0.5418  0.0414  0.0776
86755W        W29771  18.930  10.058  20.158  0.1706  0.1797  0.3169
86756W        W29772  26.050   8.364  28.177 -0.2065  0.1906  0.3635
86757W        W29773   2.166  25.294  16.988 -0.2128  0.3081  0.1980
86758W        W29774  23.623   6.612  17.158  0.1693 -0.3286 -0.2934
86759W        W29775  19.716   3.875  14.383  0.2529 -0.3201 -0.0379
86760W        W29776  19.504  24.887   1.144  0.0625 -0.1442  0.0871
86761W        W29777  32.126  31.208   0.277 -0.1208  0.1493 -0.1024
86762W        W29778  20.398  26.077   7.112 -0.1068  0.2069 -0.1244
86763W        W29779  29.484  27.031  19.113 -0.1529 -0.1736 -0.0670
86764W        W29780  15.862   8.823   3.421  0.1582 -0.1153  0.1065
86765W        W29781  22.007  20.515  17.369 -0.2249  0.2448 -0.4126
86766W        W29782  24.234   3.238  25.745 -0.4556 -0.0821  0.0940
86767W        W29783   9.334  31.489  21.929  0.0270 -0.2489 -0.1584
86768W        W29784  20.688  11.304  15.833  0.1462 -0.0170 -0.1233
86769W        W29785  29.885  32.830  26.227 -0.0716  0.1147  0.0148
86770W        W29786  23.060  12.577  13.428  0.2765  0.0346  0.0708
86771W        W29787   3.470  17.267   8.612 -0.3277  0.0994 -0.0683
86772W        W29788  21.832  19.563  14.097 -0.1071  0.0835 -0.1804
86773W        W29789  20.731   2.866  18.162  0.1217  0.2350 -0.0744
86774W        W29790  21.053   3.792  16.373  0.1444  0.1975 -0.1961
86775W        W29791   2.226  15.954  15.654 -0.0559 -0.2437 -0.0838
86776W        W29792  10.909   0.933   1.675 -0.3075  0.1943 -0.1645
86777W        W29793  16.738  33.705  28.670 -0.1324  0.0656 -0.1953
86778W        W29794  28.331   4.753  23.227  0.0465 -0.1731  0.1501
86779W        W29795  15.342   5.887  16.356 -0.1240  0.2197 -0.1196
86780W        W29796   7.819  16.766  20.622  0.3748 -0.1821  0.1463
86781W        W29797  23.845   8.572   2.490 -0.1020 -0.0763 -0.1063
86782W        W29798  32.168   9.248  28.428  0.1400  0.2121  0.2508
86783W        W29799  15.597  13.404  28.184 -0.1143  0.0367  0.0264
86784W        W29800  22.241  18.117  22.739  0.0687  0.0123 -0.1808
86785W        W29801  24.729  15.637  28.563  0.1383  0.2894 -0.1018
86786W        W29802  19.510   0.375   2.163  0.1148  0.0581 -0.1276
86787W        W29803  29.110   4.741  17.263  0.1050  0.0917  0.0500
86788W        W29804  15.302  20.111  23.839  0.1458  0.2013 -0.0291
86789W        W29805  13.326   1.776  21.973  0.1060  0.3200  0.3237
86790W        W29806   5.127  28.231  18.616 -0.0232  0.2089 -0.0520
86791W        W29807   8.334   6.721  21.530 -0.0464 -0.0056 -0.1323
86792W        W29808  29.906  15.625  18.579  0.1544  0.1792 -0.1029
86793W        W29809  23.847   5.879  19.925 -0.1751  0.2647 -0.2609
86794W        W29810  27.497  28.153  24.241  0.2391  0.0770 -0.0147
86795W        W29811  27.433   5.458  23.439 -0.2901  0.4025  0.1876
86796W        W29812  18.636   1.053  27.148  0.1898 -0.3013 -0.1314
86797W        W29813  18.298  15.105  28.906 -0.1637 -0.2157 -0.1995
86798W        W29814  18.047  16.296  17.411  0.1562  0.0799 -0.2679
86799W        W29815  12.073  26.449  18.208 -0.1462  0.1954 -0.1213
86800W        W29816  27.885   5.719   8.235 -0.2756  0.1025  0.0222
86801W        W29817  17.840  14.474  24.326  0.1157  0.1294  0.1999
86802W        W29818   8.350  16.107  14.108  0.5253 -0.1782 -0.0098
86803W        W29819  19.814   9.128   1.469  0.0832  0.1719 -0.0824
86804W        W29820  16.688   6.035  16.372  0.0375  0.0530 -0.0934
86805W        W29821  19.770  30.773   3.205 -0.2847  0.0222  0.0294
86806W        W29822  15.842   1.651  16.531 -0.0364  0.0437  0.1421
86807W        W29823  21.267  17.546  22.639  0.2116  0.1155  0.2685
86808W        W29824  22.729  31.740  29.309  0.0203  0.3535  0.0751
86809W        W29825  12.050  33.291  25.552 -0.0101 -0.1201  0.3534
86810W        W29826  20.239  27.856  15.812 -0.1381  0.1045  0.1906
86811W        W29827   5.875  18.905  26.319 -0.2124  0.2203 -0.1767
86812W        W29828   9.391  19.136   6.272  0.0560  0.3040  0.3189
86813W        W29829  14.836  29.932  22.402 -0.1435  0.0836  0.2837
86814W        W29830  31.261  16.208  23.765 -0.0125  0.1458  0.0617
86815W        W29831  17.963  32.139  22.887 -0.0103 -0.2833  0.0746
86816W        W29832  34.071   9.026  14.340  0.0412  0.0849 -0.2742
86817W        W29833  15.653   6.209  15.970 -0.0547 -0.3580  0.1937
86818W        W29834  20.722  11.429  21.498  0.1277 -0.0582  0.0682
86819W        W29835  29.167  30.077  19.357  0.2203 -0.0368  0.2499
86820W        W29836  23.042   6.086  20.453 -0.0058  0.1424  0.0419
86821W        W29837  10.534   5.333   9.964  0.1484  0.1702 -0.1170
86822W        W29838  30.239  14.464  28.735 -0.0346  0.1809  0.0957
86823W        W29839  10.420  24.407   2.132 -0.0062  0.1688  0.0429
86824W        W29840  19.797   5.895  19.109 -0.0320 -0.1929  0.1071
86825W        W29841  15.194  14.175  12.278  0.1386 -0.0232 -0.0736
86826W        W29842  14.243  22.333  26.120 -0.1555  0.1003 -0.1282
86827W        W29843  23.689  11.299  22.508 -0.2420 -0.1613  0.0021
86828W        W29844  17.932   6.127  17.410 -0.2983 -0.2220  0.1026
86829W        W29845  21.562  34.172   2.493 -0.2441  0.0732 -0.2051
86830W        W29846  24.803  17.140  25.125  0.3532 -0.1308 -0.2161
86831W        W29847   1.625   7.822  20.284  0.1140 -0.0907  0.2131
86832W        W29848  10.714   1.015   1.181 -0.1279  0.0617  0.0272
86833W        W29849   4.806  18.090   5.205 -0.3626  0.5107  0.2341
86834W        W29850  14.874  31.712  17.704 -0.1181  0.2335 -0.1186
86835W        W29851  20.965  34.277  25.964  0.1400  0.2022  0.1188
86836W        W29852  18.855  21.217  21.429  0.2682 -0.0446  0.0668
86837W        W29853  24.148   9.847   3.766 -0.3298  0.1081 -0.0390
86838W        W29854  18.060  23.760  19.099 -0.0715  0.0844 -0.0728
86839W        W29855  15.818   5.433   1.296  0.1879 -0.1660 -0.0580
86840W        W29856  27.362  15.378  16.204  0.1687 -0.0228  0.3674
86841W        W29857  16.247  21.533  15.142 -0.0590 -0.3143 -0.0586
86842W        W29858  11.528   5.574  25.324  0.1303 -0.0798  0.0984
86843W        W29859  29.790  29.646  24.030  0.0660 -0.0240  0.0931
86844W        W29860   1.843   9.529  26.019  0.4056 -0.1370 -0.1252
86845W        W29861  19.894  33.484  20.425  0.2067 -0.0659  0.1961
86846W        W29862  29.796  13.842  16.000 -0.1587 -0.0280 -0.0622
86847W        W29863  20.640   5.127  20.543 -0.4116 -0.1664 -0.0762
86848W        W29864   4.541   7.093  21.491 -0.1471  0.1995 -0.0446
86849W        W29865  31.752  29.275  28.166 -0.4002  0.0707  0.2284
86850W        W29866  27.322   6.118  22.715 -0.2327 -0.1618  0.0728
86851W        W29867  27.215   8.406  20.386  0.2390 -0.0712  0.0322
86852W        W29868   7.840  12.029  16.127  0.0431  0.0555  0.0793
86853W        W29869   3.326  10.874   0.896  0.1591 -0.2411 -0.0182
86854W        W29870  34.584   5.244  22.883  0.0121  0.3252  0.0774
86855W        W29871  12.797  19.752  11.794 -0.1096  0.2471  0.1210
86856W        W29872  23.378   2.438  27.038  0.1948  0.3094 -0.2802
86857W        W29873  20.348  13.168  13.745  0.1083  0.1794  0.3207
86858W        W29874  16.332   5.593  20.414  0.0734 -0.2326  0.0988
86859W        W29875  19.239   3.487  19.395  0.1273  0.2120 -0.2136
86860W        W29876  31.963   3.214  10.610 -0.0910 -0.1292  0.1855
86861W        W29877  28.195  33.459   1.885  0.1960  0.0445  0.2035
86862W        W29878  19.428  18.573  25.079  0.1398  0.1640 -0.4403
86863W        W29879  22.861   7.723  17.385 -0.3284  0.0051  0.0639
86864W        W29880  22.843  13.936  17.365 -0.1686  0.0072  0.0190
86865W        W29881  21.134  32.104  16.995 -0.1375 -0.1830 -0.6070
86866W        W29882   8.850  16.586   2.090 -0.2307 -0.2056  0.3586
86867W        W29883  11.064  22.560  15.302  0.0768 -0.0091  0.3791
86868W        W29884  13.151   4.587  23.992  0.2123 -0.0863 -0.1075
86869W        W29885  17.814  27.506  16.595  0.2648  0.1220 -0.0908
86870W        W29886   2.239  28.792  16.061 -0.1658 -0.0312 -0.0002
86871W        W29887  14.349  24.849  21.955 -0.0890  0.2710 -0.1743
86872W        W29888  25.627  16.298  13.982 -0.0295 -0.1609 -0.0181
86873W        W29889  24.074  23.612  28.034 -0.1668 -0.2856  0.2235
86874W        W29890   5.411  10.001  19.784 -0.2586  0.2152  0.2146
86875W        W29891   7.999   4.013  21.989  0.0985  0.0285 -0.1008
86876W        W29892   3.231   7.355  24.676 -0.1000 -0.1217 -0.3015
86877W        W29893  13.190   7.635  21.147 -0.0910 -0.0568  0.3019
86878W        W29894  14.790   5.749  27.628 -0.1654  0.0472  0.3082
86879W        W29895  14.597   9.563   2.819 -0.0861  0.1329 -0.4170
86880W        W29896  15.974   3.466   8.665  0.1208  0.2217  0.1126
86881W        W29897  28.454  11.917  15.767 -0.0849  0.2858 -0.1400
86882W        W29898   6.480   7.117  19.558  0.1198 -0.1885 -0.3359
86883W        W29899   2.848  15.430  18.496 -0.1755 -0.0264  0.2154
86884W        W29900   8.980  11.372   0.951 -0.0010 -0.0476  0.0841
86885W        W29901  18.570   6.216  15.844 -0.2700  0.0256  0.1307
86886W        W29902   5.651  19.986  18.179  0.0682  0.0729 -0.0806
86887W        W29903  24.577  12.590  24.474 -0.1115  0.1731 -0.0634
86888W        W29904   8.920  22.138  13.298  0.0064 -0.3373 -0.2952
86889W        W29905  18.059  13.922  26.146 -0.4032  0.2571 -0.0203
86890W        W29906   9.559   5.551  18.118  0.3424  0.6307  0.2374
86891W        W29907  16.863  11.848  24.433 -0.1680  0.2130  0.0210
86892W        W29908  16.697  26.489  20.896 -0.2071  0.0337 -0.3260
86893W        W29909  26.337  34.240  21.594 -0.1683  0.4992 -0.3570
86894W        W29910  25.683   0.027  18.772  0.4910  0.0335 -0.0637
86895W        W29911  27.104  33.203  16.651  0.0129 -0.2210  0.0380
86896W        W29912  32.015   6.038   6.536  0.0155 -0.4085  0.3361
86897W        W29913  14.380  29.164  23.258  0.0611 -0.0824 -0.0575
86898W        W29914  27.768   9.295  18.470  0.0043  0.1633 -0.2164
86899W        W29915  13.976  15.564  15.303  0.1028  0.0496 -0.4716
86900W        W29916  33.288  18.005  21.818  0.0282  0.0547  0.1648
86901W        W29917   2.086   8.727  22.225  0.3741  0.1227 -0.0752
86902W        W29918  20.276   9.759  14.369 -0.2414 -0.1083  0.2166
86903W        W29919  30.240  19.157  23.551 -0.2519  0.0664 -0.0375
86904W        W29920  31.992  29.353  21.335  0.0433 -0.1315 -0.2022
86905W        W29921  15.436  15.209  26.976  0.1340 -0.0343 -0.1419
86906W        W29922   9.602  13.025  13.672 -0.0017 -0.0531 -0.2965
86907W        W29923  14.193  16.565  15.306  0.1513 -0.1326 -0.0278
86908W        W29924   9.646  33.985  21.585  0.2607  0.0442 -0.2175
86909W        W29925  16.665   5.760  21.183  0.3314 -0.0348 -0.0390
86910W        W29926  27.610  31.766  18.978 -0.1910  0.0483  0.0256
86911W        W29927  27.292  26.511  18.638 -0.2767 -0.1864  0.2734
86912W        W29928  24.934  20.506  17.381 -0.2722 -0.1116 -0.1542
86913W        W29929   8.517  25.868  23.726  0.1316  0.0591 -0.1026
86914W        W29930  22.283  15.121  15.323 -0.1498  0.3822  0.0839
86915W        W29931  13.191  12.962  22.125  0.0869  0.2884  0.0203
86916W        W29932  19.235  18.240  23.503  0.0450 -0.3359  0.0926
86917W        W29933  26.649   3.669  20.270  0.1864 -0.3215  0.1924
86918W        W29934  19.238  27.151  17.064 -0.0731  0.2774  0.2887
86919W        W29935   6.361  15.232  25.929  0.0319  0.0448  0.0453
86920W        W29936   4.898   3.407   1.984 -0.1124  0.0710  0.1190
86921W        W29937  32.527  12.964  24.820 -0.2084  0.1527 -0.2807
86922W        W29938  27.765  17.986  22.795 -0.1992  0.0721  0.0234
86923W        W29939  15.251  19.358  26.332 -0.0930 -0.2238  0.0524
86924W        W29940  18.174   4.072  20.067  0.0365  0.2828  0.1656
86925W        W29941  21.971  26.262  25.799 -0.1043  0.0757 -0.1009
86926W        W29942   8.694  15.637  28.694  0.1722 -0.0502  0.0184
86927W        W29943  22.220  29.660   7.055 -0.2945 -0.0295  0.2723
86928W        W29944  14.134  17.458   7.763 -0.0093 -0.0330  0.0896
86929W        W29945   8.849  26.049  17.795 -0.0549  0.0018 -0.1274
86930W        W29946  25.117   5.691   3.066  0.0982 -0.1911 -0.1392
86931W        W29947  25.530  12.750  17.133 -0.4138 -0.1795 -0.0837
86932W        W29948  19.650  27.808  28.854  0.0425 -0.0941 -0.0476
86933W        W29949  20.332   3.618   7.980 -0.0936  0.1663  0.1633
86934W        W29950  27.285  22.012  15.968 -0.0460 -0.4542  0.0376
86935W        W29951  15.715   9.176  21.304  0.0501 -0.4301 -0.0163
86936W        W29952  28.775  25.460  17.755 -0.2451  0.0069 -0.3226
86937W        W29953  16.276  29.804  22.240 -0.1505 -0.1353  0.4176
86938W        W29954  18.599  15.503  12.381 -0.2531 -0.0389  0.1246
86939W        W29955  18.065  24.109  15.184  0.0727  0.1699  0.0025
86940W        W29956  19.363   7.282  27.223  0.0674  0.1661  0.0988
86941W        W29957  24.944   3.535  26.828  0.0563 -0.2101 -0.1721
86942W        W29958  21.687   8.601  16.350 -0.2294 -0.1540  0.0252
86943W        W29959  16.417   3.949  22.637 -0.1124 -0.0203 -0.2637
86944W        W29960  21.227   6.257  20.675 -0.0311 -0.1150  0.1051
86945W        W29961   1.324  16.080   3.284 -0.3570  0.2332 -0.0917
86946W        W29962   7.030   2.923  17.036  0.0433 -0.0550 -0.0690
86947W        W29963   1.346  28.076  21.828 -0.0998  0.1309 -0.3340
86948W        W29964  25.053  13.924  13.717  0.2712  0.0002 -0.2425
86949W        W29965  11.654   2.686  15.177  0.0451  0.0782 -0.0138
86950W        W29966  17.991  18.738  26.119  0.0005 -0.2244 -0.2958
86951W        W29967  26.780  31.793  18.096  0.1755 -0.0427 -0.1080
86952W        W29968  23.073  13.364   6.603  0.1553 -0.2183 -0.1935
86953W        W29969  26.869  23.414  25.765 -0.0639  0.3499 -0.2390
86954W        W29970  19.405   9.576  14.774  0.0954 -0.4094 -0.2501
86955W        W29971  12.661   8.975  15.690  0.1849  0.0075  0.1408
86956W        W29972  24.480  25.687  16.834 -0.1275  0.0788  0.2643
86957W        W29973  12.146  33.076  25.091 -0.1788 -0.2477 -0.1801
86958W        W29974  20.690  10.370  15.160  0.4375 -0.0526 -0.0267
86959W        W29975  17.541   0.907  27.277 -0.1797 -0.0498  0.0579
86960W        W29976   6.106  20.780   3.244 -0.4164 -0.1120 -0.0380
86961W        W29977  16.148   9.718   3.223  0.1330 -0.1504 -0.0984
86962W        W29978   8.400  34.081  25.823  0.1775 -0.0996 -0.1047
86963W        W29979   4.914   4.791   0.763 -0.2766 -0.3665  0.1696
86964W        W29980  19.919   9.443  13.453 -0.1334  0.1826 -0.1624
86965W        W29981  22.203  14.168  20.759 -0.0244 -0.1906  0.0095
86966W        W29982  24.500   8.716   3.248  0.0914  0.1915 -0.1163
86967W        W29983  28.407   2.544   3.012  0.0690 -0.0259  0.0717
86968W        W29984  22.224  22.175  14.342 -0.1684 -0.0126 -0.1701
86969W        W29985  16.734  27.274  24.183 -0.0068  0.2283 -0.2530
86970W        W29986  19.691  16.129  14.333 -0.1116  0.1139  0.0239
86971W        W29987  12.241  32.496  26.855  0.1858 -0.1555  0.0472
86972W        W29988   3.245  20.532  22.437 -0.0393 -0.0726 -0.0136
86973W        W29989  32.753  11.197  21.977 -0.3140 -0.3145 -0.2052
86974W        W29990  10.594  31.834  24.952  0.1123  0.2698  0.3608
86975W        W29991  15.443   2.613  21.945 -0.2745 -0.3042 -0.0044
86976W        W29992  13.190   4.731  18.863  0.1097  0.0122 -0.1916
86977W        W29993  14.664   0.726  24.024  0.1666 -0.0143 -0.3696
86978W        W29994   4.683  20.023   0.170 -0.0781  0.2231  0.0648
86979W        W29995  15.086   8.880  21.341 -0.0107 -0.1611 -0.0417
86980W        W29996  31.467   7.123  27.394  0.0347  0.1250  0.2165
86981W        W29997  18.383   7.027  16.826  0.3775  0.2135 -0.2195
86982W        W29998  32.489   5.786   3.078 -0.1686 -0.0671  0.3400
86983W        W29999  12.011  31.383  18.282  0.2811  0.2146  0.0965
86984W        W30000  23.591   1.562  19.704  0.1194 -0.0883 -0.1641
86985W        W30001  28.554  13.917  15.400  0.0004 -0.3374 -0.0887
86986W        W30002  21.422   3.070   2.168 -0.2371  0.0477 -0.1516
86987W        W30003  15.629   3.330  18.641 -0.3376 -0.0629  0.0082
86988W        W30004  26.182  20.571  17.494  0.1264 -0.2820  0.3671
86989W        W30005  13.349   2.272  21.761  0.1040  0.1774 -0.6135
86990W        W30006  34.189  29.557  16.386 -0.0834 -0.1686 -0.0245
86991W        W30007   6.144   0.317  25.166 -0.1687 -0.1910  0.1301
86992W        W30008  14.306   4.296  27.115  0.0364  0.1485 -0.0081
86993W        W30009  22.063   1.856  22.068 -0.4267  0.0833  0.1577
86994W        W30010  11.214  15.911  25.843 -0.3384 -0.1007  0.0814
86995W        W30011   2.856  17.232   0.970  0.3099 -0.1169 -0.2890
86996W        W30012  27.398   6.065   0.370  0.0858 -0.3103  0.0235
86997W        W30013  15.385  29.620  15.102 -0.1062 -0.3030  0.0377
86998W        W30014  15.977   8.448  23.413 -0.1168 -0.0798  0.1792
86999W        W30015  29.386  33.410  18.663  0.2503 -0.1706  0.0471
87000W        W30016   9.321  23.269  17.087 -0.1283 -0.0517  0.2310
87001W        W30017   8.453  10.652  22.071  0.3417  0.0369 -0.3630
87002W        W30018  27.116   1.440  23.266  0.4448 -0.1407  0.0852
87003W        W30019  21.627  23.811  18.649 -0.2053  0.2124 -0.0870
87004W        W30020  22.506   1.935   9.806 -0.0217  0.0381  0.0335
87005W        W30021  33.146  14.671  18.260 -0.2543  0.0145  0.0701
87006W        W30022   8.778   2.443  27.557 -0.2111 -0.1636  0.0374
87007W        W30023  23.680  28.207   2.048 -0.0712  0.0384  0.1613
87008W        W30024   6.661   0.515  21.431 -0.0938  0.1288 -0.0830
87009W        W30025  20.226  23.875  22.633  0.1661  0.3366 -0.0671
87010W        W30026  14.881  30.367  25.016 -0.0664 -0.1991 -0.1436
87011W        W30027  10.579   4.271  26.754  0.2817  0.0115 -0.1935
87012W        W30028  30.352  10.814  20.564 -0.0885  0.3827  0.0006
87013W        W30029   0.201   4.565  19.606 -0.1242 -0.3728  0.1854
87014W        W30030  24.386   1.560  23.386  0.0570  0.0275  0.0507
87015W        W30031  16.903  15.607  26.968  0.0811  0.1282  0.3098
87016W        W30032   9.909   6.153  20.999 -0.0592  0.1272  0.0749
87017W        W30033  11.349  12.486  17.515  0.0794  0.0515  0.2485
87018W        W30034  17.688  22.268  16.434  0.3080  0.0861 -0.0205
87019W        W30035   6.049  27.215  24.289  0.2401 -0.0570  0.2219
87020W        W30036  16.301   8.054   7.312 -0.0343  0.0827  0.0359
87021W        W30037  19.137   0.209  18.920  0.1616 -0.1814  0.0874
87022W        W30038  22.651   6.128  21.446  0.0625 -0.2225 -0.0657
87023W        W30039  22.318   6.559  23.533 -0.0268 -0.0416 -0.2046
87024W        W30040  33.510  22.153  28.082 -0.1977 -0.0409  0.0960
87025W        W30041  20.782  31.528  15.534 -0.1808  0.1603 -0.1038
87026W        W30042  26.757  13.518  17.541  0.1731 -0.2099 -0.3489
87027W        W30043  32.786  26.222   6.273  0.2806  0.1000 -0.0844
87028W        W30044   6.256  23.141   0.412  0.0855  0.1732  0.3150
87029W        W30045  10.454  16.982  13.150  0.0837  0.0055  0.2798
87030W        W30046  22.953  14.459  17.667  0.0750 -0.1285 -0.1285
87031W        W30047  29.356  28.147   4.631  0.1621  0.0492  0.0752
87032W        W30048   6.730   7.624  21.583 -0.2714  0.0203  0.5041
87033W        W30049  30.038  30.456  16.629  0.2098  0.0928 -0.0591
87034W        W30050  21.683  11.471  22.041  0.0881 -0.0706  0.3621
87035W        W30051  17.914   6.671  24.276 -0.4617 -0.1289  0.0001
87036W        W30052   4.734  11.502  14.664 -0.2774 -0.3045  0.1889
87037W        W30053  21.834  15.289  22.179 -0.2232 -0.0409  0.0242
87038W        W30054  33.222   3.286   2.690 -0.0035 -0.0927  0.2768
87039W        W30055  12.848   2.679  14.015  0.2079  0.1761 -0.0732
87040W        W30056  24.586  22.221  17.901 -0.0825  0.2382  0.0935
87041W        W30057   5.808  14.230  14.741  0.0737 -0.0597 -0.2395
87042W        W30058  10.404   5.107  20.501 -0.1028  0.0166 -0.0941
87043W        W30059  34.723   5.535   4.313  0.4640  0.1639  0.0556
87044W        W30060  15.163  15.397  24.018 -0.4307 -0.0884 -0.4015
87045W        W30061  23.207  25.402  22.059  0.3009  0.1530  0.2451
87046W        W30062  12.137  14.931  13.651 -0.2397 -0.2297 -0.2290
87047W        W30063   1.195  26.899  23.007  0.0448  0.2531  0.4485
87048W        W30064  11.660  16.762  26.179  0.1024  0.4060  0.0132
87049W        W30065  27.621  10.532  17.491 -0.0465  0.0048  0.2841
87050W        W30066   9.777  30.542  25.540 -0.0890 -0.2811 -0.2958
87051W        W30067  24.149   2.487   2.071  0.1422 -0.2857  0.2744
87052W        W30068  25.764  28.206  16.013 -0.1175  0.1895 -0.1476
87053W        W30069  22.400  27.532   9.919  0.3636 -0.0935  0.1541
87054W        W30070  11.320  27.281  16.206 -0.2099  0.0240 -0.0215
87055W        W30071  21.829  11.347  12.858 -0.0890  0.2715  0.0191
87056W        W30072  33.421  32.861  27.219 -0.2687 -0.4903 -0.2039
87057W        W30073  25.080   2.529   0.585  0.0296  0.0471 -0.1117
87058W        W30074  20.638   5.963   0.241  0.1958 -0.2848  0.3065
87059W        W30075  24.572   4.279  26.527  0.3964  0.0683  0.0645
87060W        W30076  18.676  15.096  26.214 -0.1688 -0.0360 -0.2473
87061W        W30077  28.479   1.007  27.952  0.0917  0.1021 -0.0123
87062W        W30078  22.462  16.501  15.435  0.2898 -0.1425 -0.1535
87063W        W30079   7.464   7.835  27.130 -0.3105 -0.0047  0.3036
87064W        W30080  21.363  20.975  15.779 -0.0112 -0.0055 -0.0921
87065W        W30081   5.712  31.238  14.573 -0.1095 -0.3234  0.2194
87066W        W30082  33.587  13.712  28.056 -0.2797  0.2092 -0.0434
87067W        W30083  19.064   8.505  20.327  0.0786 -0.0752  0.2443
87068W        W30084  19.512  15.849  23.978 -0.1424 -0.1226  0.2136
87069W        W30085  15.355  27.252  27.530 -0.0534 -0.2465 -0.1678
87070W        W30086  16.667   1.676  16.013 -0.4599 -0.1854 -0.3430
87071W        W30087  18.335  31.792  15.396 -0.0305  0.0183 -0.0332
87072W        W30088   8.750  10.671  29.027  0.0212  0.1264 -0.1201
87073W        W30089  11.430  12.450  16.114 -0.0378  0.0569 -0.1375
87074W        W30090  30.078  16.652   5.283  0.1193 -0.0349  0.1611
87075W        W30091  24.081   5.060  27.837  0.2199  0.0001  0.1125
87076W        W30092  29.340  15.117  19.892  0.2255  0.1514  0.2690
87077W        W30093   5.867   6.545  18.711  0.1947  0.0844 -0.1881
87078W        W30094  12.267  16.769  14.654  0.0820 -0.0519 -0.0059
87079W        W30095   3.567   8.917  14.464  0.1267  0.0848  0.2768
87080W        W30096  16.230  32.352  18.280  0.0105  0.0085 -0.3847
87081W        W30097  14.231   4.152  15.069  0.2427  0.2544  0.2112
87082W        W30098  27.817   1.232   1.340  0.1431  0.0030 -0.0098
87083W        W30099  11.313  12.633  21.356 -0.3061  0.0206 -0.0404
87084W        W30100  16.247  19.219   4.745  0.1292  0.1546  0.3726
87085W        W30101  21.444   6.993   5.233 -0.4093 -0.1010 -0.0710
87086W        W30102   0.617  18.516  16.928  0.0270 -0.0175 -0.1406
87087W        W30103   8.371  13.728  28.602  0.0827  0.0199  0.0325
87088W        W30104  20.489  12.783  25.231  0.1979 -0.0288 -0.2153
87089W        W30105  25.536  11.972  20.237 -0.0935  0.4332 -0.3684
87090W        W30106  24.519  21.963  23.030  0.0059  0.0652 -0.1153
87091W        W30107  22.124  23.651  26.351 -0.1109 -0.2244 -0.0973
87092W        W30108  28.517   9.667  27.582 -0.2640  0.2745  0.0468
87093W        W30109  13.524  33.713  18.011  0.0934  0.1006 -0.0003
87094W        W30110   7.120  15.582  21.921  0.2580  0.1729  0.2513
87095W        W30111  17.631  33.849  17.252  0.3426 -0.0229  0.0880
87096W        W30112  31.813  16.931  20.905  0.2074 -0.0478  0.4086
87097W        W30113  16.285  16.634  20.996 -0.1537 -0.2998  0.3043
87098W        W30114  24.492  26.793  24.003 -0.2159  0.3361 -0.1205
87099W        W30115   9.326  10.354  23.674 -0.0853  0.0375  0.0651
87100W        W30116  28.154  23.923  18.190  0.1082  0.0654  0.0843
87101W        W30117  17.504  27.488   9.875  0.1626  0.1415 -0.1949
87102W        W30118   9.657  32.604  26.145 -0.1832 -0.1804  0.1600
87103W        W30119   5.422   3.088  14.246 -0.1356 -0.1525 -0.1749
87104W        W30120  29.370   1.951  17.880 -0.0736 -0.1256  0.1108
87105W        W30121  19.821  14.145  29.217 -0.0205  0.2804  0.1341
87106W        W30122  17.028   3.263  23.008  0.0067  0.1253 -0.2651
87107W        W30123  18.900  16.898   6.785  0.0364  0.0206  0.2213
87108W        W30124  26.988  17.600  28.681  0.4313  0.2373 -0.0578
87109W        W30125   1.469   8.386   5.662  0.1735  0.2917 -0.1682
87110W        W30126  32.174   7.064  29.208 -0.3216  0.1796 -0.3353
87111W        W30127  19.753  27.563  17.103 -0.0202  0.1464 -0.0911
87112W        W30128  22.289  16.641   6.955 -0.0414 -0.0210 -0.0650
87113W        W30129  13.675   7.666  20.838 -0.1653 -0.1176  0.0398
87114W        W30130  33.711   5.995  14.049  0.2014 -0.1024  0.2890
87115W        W30131  24.319  32.239   6.090  0.1191 -0.5022  0.1880
87116W        W30132  22.347  28.099  20.852 -0.0661  0.0951 -0.0311
87117W        W30133  26.788  11.977  18.731  0.2210  0.1980  0.1320
87118W        W30134  23.395  15.564   3.759  0.2292 -0.0055  0.0287
87119W        W30135  11.035   1.287   6.135 -0.0762 -0.1206  0.1539
87120W        W30136   6.460  26.376  27.458  0.0248 -0.4637 -0.0157
87121W        W30137  16.994  33.740  17.847  0.1900  0.0350 -0.3888
87122W        W30138  30.630   5.986  24.849  0.0184  0.2985  0.2608
87123W        W30139  29.186  17.787  17.624 -0.1032 -0.1695  0.2192
87124W        W30140  13.135   6.278  14.002  0.2353  0.1025  0.0447
87125W        W30141  14.036  15.934  12.505  0.3000 -0.3994  0.1844
87126W        W30142   5.484   0.036  16.322  0.3263  0.3057 -0.0656
87127W        W30143  32.218  16.009  23.245  0.4839  0.1867  0.2460
87128W        W30144   1.013   2.559  16.111 -0.0179  0.0729  0.3951
87129W        W30145  15.217   0.228  21.384  0.0143 -0.3581 -0.1948
87130W        W30146  31.129   0.941  24.692 -0.2263  0.1802  0.1726
87131W        W30147  24.760  16.096  19.578 -0.1157 -0.1310  0.0653
87132W        W30148  31.173  15.701   0.920 -0.1405  0.1674 -0.1510
87133W        W30149  11.823  21.097   5.531  0.0157 -0.0421 -0.0814
87134W        W30150  18.558  15.579  22.413 -0.0015 -0.2750 -0.0172
87135W        W30151  15.486   4.806   0.064  0.0031  0.0368  0.3718
87136W        W30152  19.527   4.366  13.666  0.1901  0.1850 -0.1070
87137W        W30153   1.177  11.741   9.275  0.1446  0.0700  0.1002
87138W        W30154  22.671  13.980  22.460 -0.1373  0.0502  0.3477
87139W        W30155  10.074  13.564   2.269 -0.1174 -0.0139 -0.5055
87140W        W30156  17.315  34.006  16.458  0.3432 -0.0210 -0.1368
87141W        W30157  18.645  12.824  13.452 -0.0355 -0.0394  0.0703
87142W        W30158  31.988  12.087   1.637 -0.1435 -0.2574 -0.1948
87143W        W30159  30.113  29.648  23.286 -0.1493 -0.1122  0.1541
87144W        W30160  33.462  16.811   0.044  0.0584 -0.3904  0.0186
87145W        W30161  21.098  13.649  16.916 -0.0067  0.3296 -0.0862
87146W        W30162  11.074   6.088  17.401 -0.2125  0.2827  0.0004
87147W        W30163  22.194   6.482  19.251 -0.2341  0.3096 -0.0323
87148W        W30164  33.885  15.099   2.579  0.0823 -0.0050  0.0534
87149W        W30165  20.207  33.952   3.896 -0.0442  0.1328 -0.0301
87150W        W30166  21.128  25.615  13.674  0.3524  0.0646 -0.0007
87151W        W30167  15.652  13.257  25.068  0.1337  0.0425 -0.1783
87152W        W30168   5.174  23.767  16.225 -0.1396  0.1249  0.1326
87153W        W30169  17.130  21.604   1.696 -0.0514 -0.0456 -0.0030
87154W        W30170  27.711  23.083  15.374 -0.2604  0.0871 -0.0284
87155W        W30171  26.302   4.670  26.238 -0.0427 -0.3691  0.0049
87156W        W30172  20.157  15.701  25.724 -0.1722 -0.1769 -0.0235
87157W        W30173  20.367  31.972  19.737  0.1808  0.1657  0.3965
87158W        W30174  15.543   1.388  26.982  0.1252  0.0664  0.0348
87159W        W30175  16.907  25.583  27.473  0.0733 -0.1218  0.0196
87160W        W30176  24.049  12.971  23.720  0.2373  0.0992  0.1208
87161W        W30177   4.973   9.399  16.738  0.0074 -0.0061  0.2531
87162W        W30178  27.271  23.181  23.805 -0.1072  0.0466  0.2683
87163W        W30179   9.660   7.178  23.641 -0.0728 -0.2910  0.0696
87164W        W30180   2.751  24.190   2.571  0.1134 -0.2768  0.2423
87165W        W30181  14.677  24.737   4.132  0.1110  0.2489  0.0636
87166W        W30182  32.066  18.208   0.221  0.4191  0.0961  0.3979
87167W        W30183  26.419  13.373  15.997 -0.3525  0.1438 -0.2641
87168W        W30184  21.420  33.339  17.351 -0.0768  0.3148 -0.4398
87169W        W30185  28.421  20.294   6.926  0.1670  0.0781 -0.2641
87170W        W30186  13.370  31.036   4.363 -0.1267  0.0942  0.0938
87171W        W30187  28.265  10.183  24.769 -0.3162  0.2080 -0.2875
87172W        W30188  31.843  23.877  17.567 -0.0364  0.0643 -0.0802
87173W        W30189  20.259   4.128  26.380  0.1485 -0.0879  0.0277
87174W        W30190  26.381   7.548  17.462 -0.3357  0.3369  0.1072
87175W        W30191  19.523  10.325   2.176  0.0790  0.0613 -0.3149
87176W        W30192   6.636  34.185   1.613  0.0196 -0.1200  0.0987
87177W        W30193  16.412  11.876   1.781 -0.0493 -0.0232  0.0864
87178W        W30194   5.788  25.764  23.189 -0.1155 -0.0016  0.2425
87179W        W30195  26.395  25.479  25.345  0.3507  0.2414 -0.2885
87180W        W30196  33.079  31.779  25.858  0.1678  0.1084 -0.3364
87181W        W30197  30.355  15.775   1.656 -0.0660  0.1158 -0.1586
87182W        W30198  17.330  18.420  22.662 -0.0902 -0.0565  0.1009
87183W        W30199  19.024  26.602   9.763 -0.0267 -0.0213  0.1354
87184W        W30200  20.542  11.031  24.573  0.1279 -0.0096 -0.2747
87185W        W30201   1.086  16.809  19.617 -0.0299  0.0093 -0.0882
87186W        W30202   0.201  25.104  17.274  0.0429  0.1698 -0.0144
87187W        W30203   4.459   2.873  28.149  0.2411  0.1991  0.0934
87188W        W30204  19.857   1.531  15.405 -0.1727  0.2458 -0.2082
87189W        W30205  20.842   1.969  20.109 -0.0426 -0.1415  0.1166
87190W        W30206  18.628  23.243  22.567  0.0850 -0.1871  0.1287
87191W        W30207  23.335  17.851  20.014 -0.3148  0.0332 -0.2748
87192W        W30208  12.026   3.797   1.546 -0.0081  0.0058  0.1696
87193W        W30209  21.921   3.842  18.541 -0.1556 -0.0943  0.1497
87194W        W30210  31.484   7.668  21.911 -0.0737  0.2011 -0.0754
87195W        W30211  19.094  13.296  25.965  0.0873  0.0484 -0.5496
87196W        W30212  12.817  21.317  26.895  0.0004 -0.3450  0.2439
87197W        W30213  22.228  14.038  27.565  0.1478 -0.0603 -0.1298
87198W        W30214  15.611   5.579  19.105  0.0915  0.3606 -0.0513
87199W        W30215  30.950  21.600  17.291 -0.0159 -0.0078 -0.3225
87200W        W30216   1.633   5.967  22.487  0.1899  0.1570  0.1839
87201W        W30217   5.266   3.164  26.716 -0.0766  0.1227  0.2454
87202W        W30218  25.372   1.623  21.153 -0.0109  0.2205  0.2173
87203W        W30219   0.256  32.309  23.226  0.0802 -0.2807 -0.0248
87204W        W30220   7.182  31.245   5.030  0.0310 -0.0591 -0.1455
87205W        W30221  31.584   6.389   6.611  0.2752  0.1756  0.0214
87206W        W30222  31.414   1.656   1.420  0.0144 -0.1185  0.0772
87207W        W30223  15.700  32.242  20.833 -0.0744 -0.0535  0.2756
87208W        W30224  29.981  11.647  21.573 -0.1109  0.2314  0.0063
87209W        W30225  16.612   0.577  17.850 -0.3339 -0.0062  0.0440
87210W        W30226  22.278  29.371  19.169  0.4076 -0.2044  0.0230
87211W        W30227  17.867  16.715  22.801  0.2264 -0.0182  0.2365
87212W        W30228   2.795   1.683  19.964  0.2126 -0.1451 -0.2191
87213W        W30229   5.711  15.734   5.450 -0.1597 -0.0820 -0.0831
87214W        W30230   0.258  30.813  24.159  0.0875 -0.0399  0.1655
87215W        W30231  11.613   1.382  14.583 -0.0033 -0.1037  0.0095
87216W        W30232  19.954  17.751  21.860 -0.0163  0.1725  0.1226
87217W        W30233  12.179  10.740  18.364 -0.1242 -0.0536 -0.0005
87218W        W30234  26.733  12.924  14.872  0.4498 -0.0269  0.1832
87219W        W30235  16.135  34.138   8.995  0.1727 -0.0703  0.2141
87220W        W30236  30.318  11.067  16.752  0.1318 -0.1885  0.1216
87221W        W30237  30.546   2.669  18.138  0.2452  0.0698  0.0214
87222W        W30238  17.878  13.202  21.612  0.1364  0.0211  0.3159
87223W        W30239  18.623  14.745  14.865  0.0057  0.1947 -0.0358
87224W        W30240  25.896  12.410  27.662 -0.0896  0.0352 -0.1321
87225W        W30241  20.180  13.290   0.314 -0.0376 -0.1094  0.1315
87226W        W30242   7.170   2.159  16.466 -0.2797  0.1482  0.6259
87227W        W30243  12.126   8.070  23.922 -0.0541 -0.0703  0.2650
87228W        W30244  21.138  23.529   4.139 -0.0455  0.2062  0.0214
87229W        W30245  19.321   9.391   5.492  0.1291  0.2271  0.1268
87230W        W30246  18.317  34.022  28.712 -0.2900 -0.2283  0.2407
87231W        W30247  29.999   8.648   1.841 -0.1305 -0.3463 -0.0377
87232W        W30248  26.050  31.100  11.154  0.1958  0.0345  0.0415
87233W        W30249  19.791  28.891  29.264  0.1098 -0.2016  0.0692
87234W        W30250  12.207  29.144   9.439 -0.3789 -0.0006  0.2919
87235W        W30251   4.077  34.435  24.099  0.2937 -0.3081  0.2334
87236W        W30252  34.272   3.245   8.035 -0.3764  0.1170 -0.0390
87237W        W30253   4.797   2.314  24.495 -0.2662  0.0533 -0.1159
87238W        W30254  13.703  16.681   4.986  0.0354 -0.2790 -0.0526
87239W        W30255  27.821   7.843  28.963  0.4639 -0.3036 -0.0881
87240W        W30256  24.401   4.582  27.752 -0.1811  0.0196  0.0371
87241W        W30257  20.886   5.393  17.431 -0.0028 -0.1257  0.0486
87242W        W30258  22.892   4.754   6.365  0.1620 -0.1770  0.2016
87243W        W30259  14.333   3.407  24.443 -0.3791  0.4481  0.1916
87244W        W30260   9.960  13.512  13.708  0.1510 -0.1693 -0.1300
87245W        W30261  19.055   7.652  14.030  0.3305  0.3533 -0.0268
87246W        W30262  15.773   8.318  20.937 -0.0781 -0.3761 -0.2271
87247W        W30263  15.675  31.927  29.196 -0.2631  0.2246 -0.1458
87248W        W30264  23.852   6.556  14.125  0.5271 -0.0990 -0.1290
87249W        W30265  16.945   8.957   5.280  0.0409 -0.0500 -0.0548
87250W        W30266  13.524   2.270   6.368  0.3733 -0.3887 -0.0492
87251W        W30267  23.700   0.154  16.932  0.2638  0.0723  0.1113
87252W        W30268  16.052   6.625  16.690 -0.1958  0.1959  0.1958
87253W        W30269  19.311  33.031   3.447 -0.0553 -0.1162  0.2394
87254W        W30270  29.466   9.963  15.527  0.0758 -0.1658  0.2808
87255W        W30271  13.914   8.567   6.479 -0.1584  0.0666  0.0935
87256W        W30272  13.064  19.433   5.860 -0.4016  0.3995 -0.0896
87257W        W30273   7.321  28.757  16.623  0.1798 -0.4674  0.1777
87258W        W30274  22.783  26.511  23.575 -0.1056  0.1076 -0.0256
87259W        W30275  18.657   2.281   3.114  0.2311  0.1254 -0.2326
87260W        W30276  18.889  24.112  21.164  0.0146 -0.1897 -0.2877
87261W        W30277  23.026   4.520  18.583  0.3372 -0.0470 -0.1838
87262W        W30278  12.491   1.703   3.205  0.0227 -0.0537  0.3254
87263W        W30279   7.831  17.638   8.531  0.1194 -0.2213 -0.0594
87264W        W30280  23.181   8.693  21.969  0.1548  0.2292 -0.0285
87265W        W30281  26.163  30.381  17.938  0.3193  0.1024 -0.0776
87266W        W30282  29.309   7.200  21.309  0.0088 -0.3580 -0.0462
87267W        W30283  12.917   3.478  24.664  0.1785 -0.1134  0.1629
87268W        W30284  18.420  14.974   6.517  0.0070 -0.2095  0.1845
87269W        W30285  29.629   3.828  24.251  0.2101  0.1242  0.1978
87270W        W30286  32.032   6.451   1.187 -0.2115  0.0153 -0.2377
87271W        W30287  17.639   7.769  17.970 -0.3487 -0.1769 -0.2050
87272W        W30288  34.501  10.324  17.504 -0.3159 -0.2150 -0.1970
87273W        W30289   9.924  11.295   7.034  0.1043 -0.1009  0.1077
87274W        W30290  32.397  17.356  22.553  0.2715 -0.0335 -0.0375
87275W        W30291   9.499   3.516  15.719  0.0046 -0.1707 -0.0488
87276W        W30292  19.714  30.547  27.682  0.0821  0.0644  0.0661
87277W        W30293  24.570  10.928  15.139 -0.1400  0.1550 -0.0712
87278W        W30294  20.976  30.820  23.252  0.0832 -0.0316 -0.1683
87279W        W30295  25.039   1.179  25.839  0.1617  0.2385  0.1837
87280W        W30296  11.288  17.557   3.064 -0.3581  0.0596  0.0245
87281W        W30297  16.062   2.349  19.557 -0.0742  0.3107 -0.3242
87282W        W30298  12.268   2.594   0.818 -0.1710 -0.0659  0.1397
87283W        W30299  28.511   6.351  16.698  0.1045  0.0914 -0.0114
87284W        W30300  25.212   7.426  19.598  0.0978  0.1326  0.2135
87285W        W30301  14.068   6.544   3.003 -0.0983 -0.0016 -0.1180
87286W        W30302  22.786  32.265   1.930 -0.3165 -0.0513 -0.0152
87287W        W30303  24.502   8.537  19.104 -0.3181 -0.2231  0.1493
87288W        W30304  23.107  16.436  20.401 -0.0076 -0.0530 -0.1806
87289W        W30305   9.979  15.403   1.470  0.1727 -0.1790 -0.0378
87290W        W30306  21.119   0.088  28.970  0.0101 -0.1129  0.0405
87291W        W30307  16.431  11.426  16.541  0.1818 -0.0454  0.1446
87292W        W30308  25.394   2.375  16.224  0.2589  0.0134 -0.1917
87293W        W30309  31.372   4.961  25.674  0.0701  0.0069  0.2894
87294W        W30310  16.471  12.443  16.693 -0.2617 -0.0521  0.1151
87295W        W30311  17.777   5.985  14.302  0.0206 -0.3043 -0.3097
87296W        W30312   2.674  32.640   2.306 -0.0137 -0.0220 -0.2189
87297W        W30313  19.552   5.966   0.965 -0.1139  0.0865  0.3376
87298W        W30314  26.361  31.873   5.278  0.0382  0.0265 -0.0223
87299W        W30315  21.952  31.660  17.841  0.1582  0.1013 -0.0082
87300W        W30316   9.632  34.699  19.987  0.3199  0.1428  0.2628
87301W        W30317  29.877  29.520  26.327 -0.0872  0.0671  0.0689
87302W        W30318  24.635  11.858  19.250 -0.0853  0.2235 -0.0856
87303W        W30319  29.784  14.250  23.081 -0.1737  0.0642  0.0190
87304W        W30320   9.518   3.226   4.056 -0.0181 -0.1118  0.2351
87305W        W30321  25.341   5.821  24.917  0.0147 -0.1446  0.1556
87306W        W30322  33.074  31.876  18.524 -0.3421  0.1109  0.3089
87307W        W30323  27.546  33.337  20.261 -0.0234 -0.1639  0.0104
87308W        W30324  15.669   6.260  17.708 -0.4932 -0.1351  0.1374
87309W        W30325  10.527  26.011  22.356  0.4252 -0.1599 -0.1103
87310W        W30326  22.196   9.113  24.478  0.3471 -0.1841  0.0222
87311W        W30327  19.467   7.538  28.042  0.0247  0.2950  0.0838
87312W        W30328  11.963   3.820  19.598  0.3994 -0.1504  0.2284
87313W        W30329   5.866  33.600  26.759  0.2613 -0.0738  0.2547
87314W        W30330  29.829  17.480  27.255  0.0453  0.3495  0.0881
87315W        W30331  18.305   3.440  20.731 -0.0390  0.4467  0.1839
87316W        W30332  33.187  18.211  14.452 -0.0697 -0.0679  0.1056
87317W        W30333  19.112   8.078  16.929  0.1824  0.0486 -0.1927
87318W        W30334  31.416  22.524  25.722 -0.2931 -0.3343  0.0004
87319W        W30335   1.079   1.810  15.588 -0.0160  0.0788  0.1544
87320W        W30336  23.177  33.203  16.509 -0.3381  0.1056  0.0080
87321W        W30337  26.033   9.432  19.657 -0.1568 -0.0431 -0.2385
87322W        W30338  20.268  34.448  22.495 -0.0372  0.1562  0.1826
87323W        W30339  28.175   6.475   6.623  0.1477  0.0993 -0.2245
87324W        W30340   4.344  12.800  21.671 -0.0205  0.1213 -0.2063
87325W        W30341  23.001   3.531  20.506  0.2173 -0.4305  0.0179
87326W        W30342   9.564  21.014  18.570 -0.0114 -0.3642  0.0844
87327W        W30343  17.510  33.745   3.104 -0.1394 -0.2013  0.2262
87328W        W30344  16.939  30.345  25.160  0.0167 -0.0390 -0.2289
87329W        W30345   2.437   3.201   5.970  0.2399 -0.2295  0.3224
87330W        W30346  11.062   6.582   7.051 -0.0631 -0.1030 -0.2513
87331W        W30347  14.194   9.497  16.239  0.1460 -0.2029 -0.1463
87332W        W30348  16.627   8.483  22.632 -0.1417  0.2911 -0.4231
87333W        W30349   8.338   0.857   8.960  0.0733  0.2471  0.0957
87334W        W30350  17.285   2.992  24.904  0.2849  0.1439  0.0429
87335W        W30351  13.694  12.916  15.000 -0.0741  0.0055 -0.2137
87336W        W30352  19.628  15.487   1.597 -0.1044 -0.2305 -0.0470
87337W        W30353  22.817   6.941  22.861  0.0941  0.3991  0.3583
87338W        W30354  22.355   5.628   4.123  0.1485 -0.0055  0.2089
87339W        W30355  32.713  30.051  17.085 -0.0019 -0.1214 -0.1956
87340W        W30356  15.283   7.390   9.007 -0.1307 -0.0418  0.0682
87341W        W30357   2.874  34.334  19.192 -0.0346  0.3760 -0.0411
87342W        W30358  32.771  11.189   9.876 -0.3837  0.1530  0.1707
87343W        W30359  22.997  18.002  14.916  0.2540  0.0373 -0.0401
87344W        W30360   9.430  17.716  26.666 -0.0889 -0.1045  0.0277
87345W        W30361  31.075   1.035   6.128  0.0950 -0.0805 -0.1687
87346W        W30362  15.268  21.334  13.133  0.3823 -0.2152  0.4446
87347W        W30363  21.094   4.000  24.620 -0.0792  0.3142  0.0826
87348W        W30364  20.037  10.210  25.576  0.2351 -0.1091 -0.0833
87349W        W30365  16.419   2.469  24.097  0.1138 -0.0870  0.2039
87350W        W30366  27.243   6.845   1.965 -0.2765  0.0720 -0.0869
87351W        W30367  19.318  13.070  24.487  0.2467  0.2127  0.3337
87352W        W30368  32.970   0.210   1.496 -0.0417  0.1001 -0.2221
87353W        W30369  12.978  34.636  20.662 -0.0138 -0.0296 -0.1508
87354W        W30370  17.750  29.076  20.336 -0.3216  0.0743  0.2307
87355W        W30371  16.578   2.940  28.386  0.2588  0.0365 -0.0883
87356W        W30372   6.965   7.461  19.941  0.0832  0.1774 -0.1722
87357W        W30373  10.166  11.755  19.710  0.0587  0.0274 -0.0773
87358W        W30374  28.401  17.348  26.276  0.2471 -0.0446  0.1475
87359W        W30375  21.958  32.418   7.354 -0.0263 -0.3661  0.1402
87360W        W30376  30.072  27.373   4.518 -0.3298  0.2685  0.1865
87361W        W30377  15.250  30.770  26.891 -0.0825  0.0937  0.0061
87362W        W30378  29.684  27.247  24.670  0.2668  0.1349 -0.1089
87363W        W30379  11.578  27.372  27.360 -0.0811 -0.0678  0.0549
87364W        W30380  21.373   6.998   1.656 -0.0293 -0.1395 -0.0575
87365W        W30381  27.107  15.993  17.240  0.1029 -0.3880 -0.0783
87366W        W30382  25.588  12.598  10.046 -0.0639  0.0907  0.0492
87367W        W30383  17.700  30.281  27.778 -0.0339  0.0610 -0.1433
87368W        W30384   1.910  17.089  21.414  0.0669  0.0847 -0.2769
87369W        W30385  22.287   4.072  29.294  0.2246  0.1182  0.0294
87370W        W30386  24.888  30.156  22.018  0.0062  0.3406 -0.1122
87371W        W30387  26.794  32.552  27.815 -0.0295 -0.0939 -0.0420
87372W        W30388  13.135   0.469  28.907  0.0778  0.0721  0.0247
87373W        W30389  12.497  27.957  25.725  0.1241 -0.0003 -0.0659
87374W        W30390  22.911  17.128  23.530  0.1244  0.1109 -0.2218
87375W        W30391  21.270  18.882  24.617 -0.0562 -0.0558 -0.0490
87376W        W30392  17.271   8.364  17.500 -0.3374  0.3751  0.1358
87377W        W30393  28.122  11.427   7.023 -0.0422  0.1409  0.0584
87378W        W30394   0.956  14.698  21.246  0.0079 -0.2412 -0.1512
87379W        W30395  27.000   2.437   3.653  0.2950  0.2969 -0.1228
87380W        W30396  11.913  34.418  21.462  0.2840 -0.2396  0.2924
87381W        W30397  21.285  15.075   1.477  0.1731 -0.1551  0.1847
87382W        W30398  12.107  13.554  15.509  0.1265  0.0546 -0.0195
87383W        W30399  26.344  27.175  24.005  0.2026 -0.2574  0.0667
87384W        W30400   4.397  20.897  24.273 -0.0852  0.1560 -0.0792
87385W        W30401   1.701  15.848  17.382 -0.2206  0.2839 -0.1978
87386W        W30402  25.046   3.295   0.172 -0.0763  0.0950  0.1235
87387W        W30403  22.464  33.839  21.630 -0.0516 -0.3499  0.2146
87388W        W30404  13.981   5.166  27.669  0.1655 -0.1975 -0.0052
87389W        W30405   6.851  24.597  25.919  0.1179 -0.3243 -0.1589
87390W        W30406  16.280   4.523  21.663  0.2334 -0.0700  0.0845
87391W        W30407   2.806   9.133  19.720  0.0997  0.2914  0.0108
87392W        W30408  27.605   5.846  20.708  0.0257 -0.0675  0.1088
87393W        W30409  26.102  12.075  21.470 -0.0702  0.0593 -0.0677
87394W        W30410  11.899   6.773  26.214  0.1679 -0.1163  0.0857
87395W        W30411  23.546   3.786  17.958  0.0783 -0.5277  0.2187
87396W        W30412  17.500   5.974  27.706  0.0547 -0.4400 -0.3481
87397W        W30413  16.217  21.976  28.703 -0.0740  0.1104 -0.0864
87398W        W30414  26.090   1.248  17.358  0.1609  0.0361 -0.1910
87399W        W30415  20.860   6.366   1.469  0.1199 -0.0885  0.0061
87400W        W30416   6.724   5.089  23.796  0.1261 -0.0405  0.0247
87401W        W30417  12.813  12.672  26.453  0.0983  0.1106  0.0677
87402W        W30418  24.429   1.484   7.411  0.0235  0.1735  0.1199
87403W        W30419  17.553   6.575  18.197  0.2269  0.2942  0.2148
87404W        W30420  29.257   2.023  24.128 -0.0176  0.2379 -0.1260
87405W        W30421  34.326  34.177  19.081  0.0923 -0.2692 -0.1712
87406W        W30422  18.499   4.416  20.387 -0.0330 -0.0467 -0.1469
87407W        W30423  13.448   0.443  24.275  0.0449 -0.0787  0.2312
87408W        W30424  19.594   9.151   2.122 -0.2581 -0.3136 -0.1142
87409W        W30425  22.162   6.811   8.407  0.3127  0.2753 -0.0918
87410W        W30426  21.431  34.110   7.767 -0.0913 -0.2128 -0.0133
87411W        W30427  17.513  15.165  23.778  0.1521  0.0413 -0.2868
87412W        W30428  24.795  33.776   5.159  0.1406 -0.4127 -0.1466
87413W        W30429  34.015   8.329   4.936 -0.0090 -0.3038  0.0505
87414W        W30430  16.140   2.752  26.908  0.0291 -0.2008 -0.0552
87415W        W30431  24.422   3.178  26.209 -0.2569 -0.2034 -0.2255
87416W        W30432  18.659  15.489   5.571 -0.0759  0.3527  0.2888
87417W        W30433  30.536   1.063  19.320 -0.1231  0.1176  0.1794
87418W        W30434  17.475   4.602  26.148 -0.0269  0.0571 -0.2252
87419W        W30435   9.807  15.436   7.536 -0.1705 -0.0618  0.1158
87420W        W30436  22.497  13.171   1.376 -0.0355  0.0460 -0.1049
87421W        W30437  16.017   1.919  16.936 -0.0208  0.3191 -0.0931
87422W        W30438  15.827   5.339  23.151  0.1069  0.0118 -0.0449
87423W        W30439   7.778   1.414   0.457 -0.3088 -0.1317  0.0404
87424W        W30440   5.167  12.253  17.348  0.1143  0.1257 -0.5069
87425W        W30441  14.926   0.656  19.226  0.1434 -0.1980 -0.0861
87426W        W30442  30.956   3.866  16.700 -0.2881 -0.1457 -0.1464
87427W        W30443  17.642  23.481  19.857  0.2466  0.3755 -0.1662
87428W        W30444  18.785  26.236   6.139 -0.0654 -0.0505  0.2006
87429W        W30445  25.438  12.173  24.732 -0.0092 -0.0394 -0.3087
87430W        W30446   6.498   8.921   7.921 -0.1721  0.1178 -0.3571
87431W        W30447   2.248  32.216   4.570  0.3367  0.0838  0.3219
87432W        W30448  12.595  14.060   1.247  0.0839  0.1870  0.3033
87433W        W30449  16.165  23.383  18.883  0.2364 -0.2278 -0.3005
87434W        W30450  31.082  27.754  15.992  0.2929 -0.0911  0.2395
87435W        W30451  32.170  29.995  16.843  0.1808  0.1781 -0.3366
87436W        W30452  21.480  10.363   6.640 -0.0718  0.3213 -0.0564
87437W        W30453  13.756  28.925  22.810 -0.1717 -0.1026  0.2418
87438W        W30454  23.140   1.225   0.807  0.0622  0.0873  0.0515
87439W        W30455  10.953   5.869  14.290  0.0536 -0.0721  0.0936
87440W        W30456  19.530   4.894   3.537 -0.1811  0.1411 -0.1468
87441W        W30457  23.304   5.337   9.051  0.2229  0.0108 -0.0819
87442W        W30458  24.610   2.348  25.486  0.0403  0.2742 -0.1402
87443W        W30459   6.940   6.700   6.596  0.2340  0.2188  0.0008
87444W        W30460   7.840  21.705   2.460  0.1746 -0.0032  0.1348
87445W        W30461  27.257  11.115   3.167  0.1942  0.1779  0.0940
87446W        W30462   9.977  16.072  17.840 -0.1453 -0.0467 -0.3405
87447W        W30463   0.956   8.211  24.313 -0.2445 -0.0494 -0.0957
87448W        W30464  11.802  21.472   3.842  0.0811  0.0914  0.0646
87449W        W30465   5.454  12.906  22.133 -0.0776 -0.0553  0.2558
87450W        W30466  15.293  14.101  14.392 -0.0789 -0.0749 -0.0506
87451W        W30467  20.143  16.365  20.335  0.0109 -0.1509  0.0009
87452W        W30468  27.597  33.104  10.093 -0.1232 -0.3985 -0.3246
87453W        W30469  16.230  17.239  23.146  0.1659  0.0330  0.1391
87454W        W30470  28.048  22.902  19.431 -0.1783 -0.2255 -0.1159
87455W        W30471  14.317   1.706  26.923  0.1305  0.1905  0.2613
87456W        W30472   6.819  13.965   9.579 -0.2165 -0.1339  0.3704
87457W        W30473   4.027  12.740  15.227  0.0863 -0.0419  0.2502
87458W        W30474  23.108   9.180  16.869  0.1053 -0.1927 -0.1935
87459W        W30475   8.673  33.259  22.032 -0.0414 -0.0883  0.0117
87460W        W30476  17.877   2.878   8.910 -0.3317 -0.0716  0.4747
87461W        W30477  24.402  15.217   2.729  0.2810  0.0111 -0.2822
87462W        W30478  20.231  14.365  21.162  0.0444 -0.1971  0.1420
87463W        W30479  14.926  13.943  25.577  0.2118 -0.1634  0.0147
87464W        W30480  19.528  13.147  23.977  0.0703 -0.0569 -0.1136
87465W        W30481  22.344   8.382   0.815 -0.0981  0.1497  0.2453
87466W        W30482  16.141  28.515   2.925  0.3178 -0.1662  0.3313
87467W        W30483  19.247  30.710  25.559 -0.2960 -0.2554  0.0291
87468W        W30484   8.101  24.792  14.823  0.0480  0.2942 -0.1307
87469W        W30485   2.168  34.473   0.655 -0.0606 -0.1040 -0.1159
87470W        W30486  23.820   7.790  22.870 -0.1076 -0.3335  0.0671
87471W        W30487  23.027   2.736  22.386  0.1608 -0.1289  0.0720
87472W        W30488  27.470  18.186  16.679  0.0299  0.0046  0.1212
87473W        W30489  11.459  16.003  18.803  0.1872 -0.1556  0.2167
87474W        W30490  23.246   3.143   0.507  0.4558  0.0116  0.0129
87475W        W30491  15.410   3.714  19.805  0.0124  0.2427 -0.0031
87476W        W30492  19.689  13.096  23.500  0.1991 -0.1791  0.1671
87477W        W30493  15.175   3.741   4.205  0.1642 -0.1978 -0.1725
87478W        W30494  19.053   9.443  25.854  0.2479  0.1561 -0.1406
87479W        W30495  12.204  30.667  23.946  0.0565  0.0869  0.0264
87480W        W30496  29.221  12.767  20.626  0.1418  0.0147 -0.0831
87481W        W30497  21.297   9.534  23.751 -0.2357 -0.4280 -0.2335
87482W        W30498  16.885   6.018   6.220 -0.0452 -0.0654  0.2083
87483W        W30499  18.746  23.753  19.635 -0.0494 -0.2292  0.0552
87484W        W30500  17.236  15.591  14.702 -0.0027  0.0693 -0.0914
87485W        W30501  29.259  33.812   5.014 -0.2997  0.1759  0.2882
87486W        W30502   8.297   3.451   6.078  0.0740 -0.0993  0.1045
87487W        W30503  16.711  16.880  14.634 -0.3656 -0.4972  0.0923
87488W        W30504  26.080  14.805   0.224  0.0976  0.4842 -0.0938
87489W        W30505   9.969   5.650  27.685  0.2225  0.1469 -0.0748
87490W        W30506   6.923  28.911  24.204 -0.6290  0.3374  0.1060
87491W        W30507  10.301   4.754  14.115  0.2680 -0.1191 -0.1915
87492W        W30508  14.213  14.504  27.845 -0.1157  0.2655 -0.0993
87493W        W30509  24.048   8.196  28.701  0.0446 -0.1771 -0.0134
87494W        W30510   7.995  18.009  24.385 -0.0560  0.2657 -0.2714
87495W        W30511  20.342  28.026   5.844  0.1501  0.1323 -0.2858
87496W        W30512  29.321   1.030  10.431 -0.0223 -0.0167 -0.0236
87497W        W30513  23.141  32.158  19.800  0.1194  0.1346  0.2135
87498W        W30514   8.867  11.948  27.203 -0.1468  0.0539  0.2045
87499W        W30515   7.533  12.178  17.725  0.1208  0.0481 -0.1222
87500W        W30516   3.636   2.809   2.757 -0.0586  0.0171 -0.4368
87501W        W30517   1.463  13.584  28.632 -0.3048  0.1271 -0.2341
87502W        W30518  18.212   3.316  14.568 -0.0470 -0.2021  0.0102
87503W        W30519  12.998   6.022   3.652  0.0392 -0.0896  0.0033
87504W        W30520   7.853  26.187  14.063 -0.1236  0.0482  0.0508
87505W        W30521  22.422   1.895  27.857 -0.0800 -0.1278  0.1597
87506W        W30522  14.746  33.210   2.828 -0.1963 -0.0205 -0.2691
87507W        W30523  11.031  23.697   5.218 -0.1743  0.0447  0.0854
87508W        W30524   4.851   8.641   2.334 -0.4877 -0.0461  0.3051
87509W        W30525  24.418  13.350   8.160  0.2156 -0.2044 -0.0556
87510W        W30526  18.411   0.709  18.866 -0.1202  0.0461 -0.2708
87511W        W30527   1.755  32.280  25.252 -0.3951 -0.1104 -0.0877
87512W        W30528   6.458   9.543  16.338 -0.1290 -0.0894  0.0008
87513W        W30529  20.736   9.099  15.335 -0.2348 -0.0651  0.1858
87514W        W30530  18.602  12.033  21.925  0.1329 -0.3719  0.0853
87515W        W30531  32.609  21.773  17.222  0.0125  0.1934  0.0036
87516W        W30532  13.555  31.143   4.837 -0.2282 -0.1282 -0.1790
87517W        W30533   6.282   8.718   5.667  0.4086 -0.2082 -0.0653
87518W        W30534  32.131  16.308   5.364 -0.0543 -0.0323  0.1019
87519W        W30535  34.156   1.840   5.175  0.1968 -0.1075 -0.2665
87520W        W30536   1.261  26.319  26.871 -0.1658  0.3096 -0.1210
87521W        W30537  21.712  25.015   2.267 -0.2874  0.2236  0.3494
87522W        W30538  17.036  15.149  25.393 -0.0955 -0.1410 -0.1455
87523W        W30539  14.191   1.224  20.028 -0.1551  0.2232  0.1792
87524W        W30540  19.937   7.979  24.577  0.0012 -0.4199  0.0020
87525W        W30541  15.665  29.680  20.659  0.2570 -0.1565  0.3281
87526W        W30542  14.637   2.646  20.092 -0.2434  0.0842  0.1615
87527W        W30543  30.730  26.413   7.562 -0.0813  0.1177 -0.0653
87528W        W30544   6.159   2.710   3.964 -0.0271 -0.0792 -0.2211
87529W        W30545  18.013  23.249   5.692 -0.1897 -0.0325  0.0227
87530W        W30546   9.830  32.982  25.843 -0.1441 -0.0626  0.0002
87531W        W30547  23.162  13.134   0.166 -0.1629  0.0506 -0.3615
87532W        W30548  30.290   9.094   7.685 -0.1453 -0.1419 -0.3749
87533W        W30549  20.835   9.996  22.250 -0.1369  0.0926  0.3461
87534W        W30550  20.656   4.788   1.706 -0.1042 -0.2271 -0.1494
87535W        W30551  26.206   4.415  21.693 -0.0190  0.2501 -0.1467
87536W        W30552  20.720   0.926  23.058  0.1056 -0.1506  0.3710
87537W        W30553  11.341  24.313   6.323 -0.2254  0.1668 -0.3022
87538W        W30554  18.855  31.916   5.358 -0.0094 -0.2174  0.3385
87539W        W30555  19.894  26.126   2.864  0.1924 -0.0158 -0.0012
87540W        W30556  17.801  22.065  28.403  0.0957 -0.0179  0.1648
87541W        W30557  20.781  12.374  18.412 -0.0435  0.3008  0.1431
87542W        W30558   9.217   6.539  25.351 -0.1360 -0.3771 -0.0854
87543W        W30559  26.073  11.610  18.162  0.1955  0.1925  0.0749
87544W        W30560  18.433   3.698  27.579  0.2231  0.2944  0.0517
87545W        W30561  18.084  29.473  21.083  0.0941 -0.0842 -0.0364
87546W        W30562  14.589   3.258   3.011 -0.0402  0.4141  0.0278
87547W        W30563  18.257   8.777  20.572  0.0958  0.2703 -0.1252
87548W        W30564  23.206  19.687  21.438 -0.3714  0.1257 -0.2155
87549W        W30565  31.704   8.805  18.913 -0.4456 -0.0397  0.2516
87550W        W30566   9.353   2.436  20.537  0.0023 -0.1233  0.1487
87551W        W30567  28.804   5.688  28.190  0.0020  0.1945  0.1446
87552W        W30568  19.715  13.960  13.833  0.2491 -0.1842 -0.1086
87553W        W30569  15.258  11.107  23.110  0.0344  0.0599  0.0915
87554W        W30570  27.168  13.028  18.083 -0.2980  0.1170  0.2293
87555W        W30571  20.059   2.585   0.198  0.1610  0.1104  0.2711
87556W        W30572  13.737  17.788  12.729  0.1523 -0.1014 -0.1254
87557W        W30573  32.962   7.112   8.353  0.4720 -0.1969  0.2384
87558W        W30574  19.403  13.739  12.763 -0.2721 -0.2265 -0.1501
87559W        W30575   5.776  29.892  23.667  0.3822  0.2942 -0.1278
87560W        W30576  32.625  19.559   9.350  0.3813  0.1169 -0.2371
87561W        W30577  17.506   7.149   4.255 -0.0938  0.3256 -0.2088
87562W        W30578   7.773  17.112   8.610  0.1780  0.0517 -0.0547
87563W        W30579   9.432   4.331   6.516 -0.0465 -0.0399  0.0410
87564W        W30580  13.355   1.359  23.824  0.1936  0.0928 -0.1178
87565W        W30581  18.819  23.257  28.211 -0.1807  0.2251  0.1582
87566W        W30582  14.991  10.065  23.651  0.2642  0.0909 -0.4092
87567W        W30583  17.375  10.061  16.721  0.0041 -0.2550 -0.1952
87568W        W30584  23.248  31.606  24.530 -0.0124  0.3998  0.0596
87569W        W30585  12.464  23.412  14.261 -0.1301 -0.0141  0.0353
87570W        W30586   7.388   8.385  26.984 -0.3026  0.4722 -0.2013
87571W        W30587   2.039   4.050   0.250  0.0918  0.2137  0.2385
87572W        W30588  25.663   8.717  28.996 -0.1007 -0.1633 -0.2682
87573W        W30589  25.725  15.423  27.760  0.0008  0.1176  0.1810
87574W        W30590  31.015  34.687   2.155  0.5705 -0.2259  0.7212
87575W        W30591   3.419  11.024  25.927  0.1442  0.4478  0.3303
87576W        W30592  11.119   8.277   7.555  0.1310 -0.1660 -0.2856
87577W        W30593   3.513  17.450  26.856  0.1951 -0.4609 -0.2321
87578W        W30594  17.648  11.717  21.486  0.2930 -0.0966 -0.0246
87579W        W30595  25.004  23.029  21.690 -0.0641 -0.0042 -0.0701
87580W        W30596  18.398  30.000  17.749  0.0573 -0.1033 -0.2242
87581W        W30597  20.794  16.073  28.304  0.1175  0.5698  0.0599
87582W        W30598   4.577  10.220   1.972  0.1687 -0.0857 -0.0470
87583W        W30599  27.274  26.678  26.737  0.1941  0.0811 -0.1630
87584W        W30600  20.719   3.013  26.030  0.1210 -0.0237 -0.0328
87585W        W30601  10.505   9.115  13.795 -0.0891 -0.1289  0.0313
87586W        W30602  21.006   5.564   0.153 -0.3956  0.1509 -0.0139
87587W        W30603  26.365  24.211  24.490  0.0267  0.1298 -0.2511
87588W        W30604   9.199  22.709  20.923  0.3434  0.0032 -0.0622
87589W        W30605   8.996  24.216  27.811  0.0823 -0.0352 -0.3604
87590W        W30606  31.393   8.037  16.841  0.1698 -0.1333  0.4262
87591W        W30607   3.956  13.000   3.763 -0.0927  0.0174  0.0866
87592W        W30608  18.510  33.490   5.050 -0.0639  0.0270  0.1313
87593W        W30609  23.394   2.841  29.317 -0.2171  0.0089 -0.1131
87594W        W30610  14.205  24.731  23.233 -0.1262 -0.3270  0.0699
87595W        W30611  14.768   8.467  19.304 -0.1909  0.0324  0.0242
87596W        W30612   7.942   9.048   3.901 -0.2086 -0.2838 -0.1014
87597W        W30613  18.872  19.615  27.559 -0.1369  0.1265 -0.1872
87598W        W30614  25.916   4.800  14.987  0.0806 -0.1533 -0.0696
87599W        W30615  28.864   1.060   2.010  0.4771 -0.2791  0.1219
87600W        W30616  33.627  28.750   5.027 -0.4436 -0.0287  0.1860
87601W        W30617  16.458   8.550   5.951 -0.1100  0.0553 -0.0908
87602W        W30618   2.168  20.668  22.786  0.0503  0.0388 -0.0941
87603W        W30619   5.202   7.184   3.279 -0.0139 -0.4635  0.0059
87604W        W30620   9.833  33.444  15.778  0.0103 -0.1552 -0.1530
87605W        W30621  13.131  19.259  13.131 -0.1743 -0.2511 -0.0305
87606W        W30622  11.793   1.911   5.144  0.3372  0.2803 -0.2867
87607W        W30623  18.342  20.234   5.129 -0.3264 -0.0704 -0.0678
87608W        W30624  32.674  12.868  26.639  0.0927 -0.1107  0.0451
87609W        W30625  23.804  16.352  26.893  0.1632 -0.0117 -0.2187
87610W        W30626  18.439  14.655  24.161 -0.0369  0.4551  0.0770
87611W        W30627  14.634  11.243  12.958 -0.2948  0.1443  0.2438
87612W        W30628   0.667  16.238  18.513 -0.0497 -0.2192  0.0844
87613W        W30629  25.967   7.729   4.509 -0.3721 -0.0060  0.3168
87614W        W30630  28.440   2.221  19.596 -0.0898  0.1711  0.0782
87615W        W30631   2.369   9.223  29.077  0.0963  0.3422  0.0919
87616W        W30632  21.600  19.560   8.517 -0.0550  0.0959  0.2951
87617W        W30633  22.422   5.421  20.050  0.2390  0.2189 -0.2386
87618W        W30634  11.227   2.396  16.130 -0.2622 -0.3649 -0.1907
87619W        W30635   1.292   4.760   1.994  0.3264  0.0284  0.1247
87620W        W30636  34.456   2.228  26.273 -0.2373  0.0836 -0.0601
87621W        W30637   0.664   5.641  20.280 -0.0570  0.2519  0.1567
87622W        W30638  23.067  19.379  20.529  0.0258  0.0391 -0.1683
87623W        W30639  30.639   4.296   6.752 -0.0507 -0.0635  0.0703
87624W        W30640  14.374   8.242  23.020  0.1532 -0.1238  0.4914
87625W        W30641  17.311   6.869  28.900  0.0525 -0.0976  0.0028
87626W        W30642  11.820  33.812  17.962 -0.1014 -0.2060  0.2704
87627W        W30643  23.349  11.892  24.346  0.4470  0.2442  0.3706
87628W        W30644  19.885   0.506   4.912  0.0068  0.0774 -0.0482
87629W        W30645   0.793  13.167  26.758  0.4604 -0.0487 -0.3899
87630W        W30646  13.357   5.836  17.920 -0.3542 -0.0341  0.1341
87631W        W30647  34.622  10.048   5.918 -0.0583  0.0806 -0.1796
87632W        W30648   9.156   1.501  23.912 -0.1024 -0.1635  0.0559
87633W        W30649  25.170  25.013  10.885 -0.2280  0.0006  0.0134
87634W        W30650  20.147   5.141  10.104  0.0433  0.0545 -0.1008
87635W        W30651   8.392   2.676   6.368 -0.1858 -0.0713  0.1460
87636W        W30652  17.222   1.687  27.606 -0.2944 -0.0225  0.0653
87637W        W30653  13.801   2.856  19.343 -0.3768 -0.2293  0.0692
87638W        W30654  29.730  13.989  24.337 -0.1070  0.0753 -0.4186
87639W        W30655  14.069  12.537  14.329 -0.1658  0.1336 -0.0553
87640W        W30656  16.644  29.991  26.618 -0.0011  0.2181 -0.2546
87641W        W30657  21.686   2.005  27.229 -0.3787  0.0681 -0.1362
87642W        W30658   9.409   1.684  17.714  0.0233  0.0795 -0.0558
87643W        W30659  14.999  20.367  25.147  0.1415  0.4716  0.1728
87644W        W30660  30.017   8.750   9.079 -0.2252  0.0526 -0.0060
87645W        W30661  26.235  16.980  16.865 -0.2301 -0.1036  0.1380
87646W        W30662  17.285   5.644   8.031  0.0188  0.0532 -0.0225
87647W        W30663  25.981  32.913  22.038  0.1299 -0.1274 -0.0518
87648W        W30664  29.809   1.020  19.588  0.1774 -0.1453 -0.0447
87649W        W30665  14.343  22.272   2.169 -0.0043 -0.1532 -0.1641
87650W        W30666  23.691  17.352  23.699 -0.2074 -0.2346  0.0608
87651W        W30667  24.991   9.448   3.973  0.2971  0.0087  0.0838
87652W        W30668  15.274   0.565   5.120  0.4093  0.0459  0.1384
87653W        W30669  23.960   8.577  21.745  0.2486  0.0029  0.1428
87654W        W30670  21.224   3.806   9.778 -0.0678 -0.0427 -0.0749
87655W        W30671  13.516  20.096  27.244  0.0355 -0.0937  0.1818
87656W        W30672  32.105  14.140   1.397  0.3553  0.0238 -0.2053
87657W        W30673  19.112  10.099  18.808 -0.1254  0.0857  0.0683
87658W        W30674  11.975  12.585  23.081 -0.1070 -0.0921 -0.1282
87659W        W30675  11.923  29.540  20.989  0.0189  0.1873 -0.0739
87660W        W30676  31.584  11.490  18.828  0.0456  0.0378  0.1138
87661W        W30677  22.572  14.309   7.465  0.1825  0.2223 -0.3789
87662W        W30678  29.140  25.556  29.019  0.3562 -0.0796 -0.3384
87663W        W30679  14.649  28.258  27.612  0.1255 -0.2061 -0.3573
87664W        W30680  19.513  30.680  20.100  0.0990 -0.0334 -0.0409
87665W        W30681   9.153  33.154  16.440 -0.1161  0.0191 -0.2895
87666W        W30682  15.376   5.596  15.200  0.0840 -0.0504  0.3347
87667W        W30683   6.366  32.915  23.693  0.2694  0.0798 -0.2198
87668W        W30684  26.087  30.376   7.873  0.0828 -0.1228  0.0103
87669W        W30685  19.836   9.534   3.712 -0.2369  0.2926 -0.1809
87670W        W30686  24.177   3.650  18.615 -0.3079 -0.0873  0.3120
87671W        W30687  29.342  30.796   4.014 -0.1146 -0.1219 -0.1103
87672W        W30688   1.567   4.247  29.288 -0.2559 -0.0483  0.1784
87673W        W30689  13.934  14.158  13.858  0.3591  0.0569  0.3778
87674W        W30690  18.924  28.249  19.458 -0.1124 -0.0039  0.0954
87675W        W30691  22.706  30.984  18.210  0.1570 -0.0975 -0.0059
87676W        W30692  26.870   4.669  26.958 -0.0655  0.0891  0.0847
87677W        W30693   3.177  11.245  29.082  0.0123  0.2410  0.1345
87678W        W30694  15.206  34.298  28.846  0.0781  0.0632  0.0591
87679W        W30695  20.858  26.827   2.738  0.1784  0.0245  0.0090
87680W        W30696  15.549   9.897  15.675  0.0493  0.0761 -0.0210
87681W        W30697   6.848  17.195  22.299 -0.2217  0.0676 -0.2316
87682W        W30698  15.212   6.024  28.730 -0.0270 -0.0467 -0.1219
87683W        W30699  23.359  10.439   1.512 -0.2785 -0.0564 -0.1592
87684W        W30700  20.868  32.582  18.742  0.0744 -0.1118 -0.0886
87685W        W30701  16.660   4.746  25.487  0.0733 -0.0472 -0.1283
87686W        W30702  20.141  10.929   2.171 -0.0588 -0.2445 -0.1915
87687W        W30703  18.883  34.663  21.657  0.0033 -0.0432  0.3092
87688W        W30704  29.173   9.977  23.186  0.0823  0.1198 -0.2358
87689W        W30705  21.329   5.089  22.957  0.2291  0.3896  0.0407
87690W        W30706  32.723   1.199  14.307  0.3154  0.3322 -0.0288
87691W        W30707  23.374  27.541  28.768  0.2593 -0.2337 -0.0687
87692W        W30708  27.949  10.964   9.849  0.1554  0.0624  0.1150
87693W        W30709  28.158  15.590  18.614 -0.2674 -0.0856 -0.1240
87694W        W30710  14.317   5.328  15.184  0.1967 -0.1733 -0.1746
87695W        W30711   7.209  12.622   8.568  0.1443  0.0445 -0.2892
87696W        W30712  19.092  18.920   1.040 -0.2445 -0.0184  0.0469
87697W        W30713   4.569  31.566   4.264  0.0947 -0.0977 -0.1423
87698W        W30714  18.048   2.947  27.264 -0.0215  0.2048 -0.0707
87699W        W30715  16.827  32.931   7.653 -0.2921  0.0424  0.1107
87700W        W30716  19.298   3.756  20.406  0.0112  0.2897  0.1264
87701W        W30717  16.912   6.475  21.665  0.0683  0.2416 -0.0147
87702W        W30718  32.448   9.783  25.386 -0.1279  0.0536 -0.1211
87703W        W30719  30.215   0.704   9.459  0.0377 -0.3493 -0.0572
87704W        W30720  24.217   2.513   1.552 -0.1344 -0.0646  0.1065
87705W        W30721  20.175  15.541  25.169 -0.0996 -0.3409 -0.1279
87706W        W30722  31.152  25.600  26.134  0.0166 -0.0397  0.0698
87707W        W30723   6.649  30.516  27.048  0.2669  0.0728  0.1555
87708W        W30724  25.796  18.634   8.425 -0.2730  0.0410 -0.0356
87709W        W30725   1.968  23.269   1.343  0.2478 -0.2268  0.2958
87710W        W30726   4.230   5.280  16.562 -0.1603 -0.1742  0.2231
87711W        W30727  16.884  15.779  15.241 -0.0168 -0.0487  0.1607
87712W        W30728  17.531   3.887  28.621 -0.2173 -0.1105 -0.0201
87713W        W30729  21.611   3.604   0.690  0.3049  0.0366 -0.1631
87714W        W30730  17.342   2.012   7.504 -0.0215  0.1030 -0.0715
87715W        W30731  11.156   1.417  21.665  0.1926 -0.1139  0.0588
87716W        W30732  28.217   8.366  17.508 -0.0162 -0.2538 -0.2893
87717W        W30733  22.376  28.184  14.830  0.1273  0.0174  0.4019
87718W        W30734  19.347   0.683   0.536  0.4301 -0.1530 -0.0277
87719W        W30735  34.289  30.123   5.579  0.3246  0.3596 -0.0382
87720W        W30736  33.365   1.060   5.290  0.0316 -0.1268  0.0823
87721W        W30737   9.943   7.263   9.004 -0.3513  0.0904  0.1974
87722W        W30738  10.361  13.846  29.005  0.3211  0.1791 -0.1543
87723W        W30739  15.433   5.270  16.544  0.0671 -0.0771  0.1447
87724W        W30740  19.960  16.878   6.186 -0.0109 -0.1342  0.1014
87725W        W30741  25.197   5.753   6.622  0.1241  0.2420  0.1742
87726W        W30742  32.128   5.015  26.453  0.3491 -0.6010 -0.0374
87727W        W30743   7.104   7.986   9.758 -0.0455 -0.1155  0.4135
87728W        W30744   3.892  13.264   7.661 -0.1140 -0.1750 -0.0246
87729W        W30745  30.888  17.353   9.776  0.0107  0.0482 -0.0084
87730W        W30746  26.479  10.945  25.398  0.2785  0.2793 -0.0531
87731W        W30747  23.843  30.893  11.439 -0.0676 -0.1050  0.0609
87732W        W30748  23.618   9.104   7.946  0.0880  0.0463 -0.0458
87733W        W30749  13.087   9.767   3.810 -0.3550 -0.0811 -0.2701
87734W        W30750  19.102  15.435  11.986 -0.2718  0.0315  0.2526
87735W        W30751  17.914   2.890  18.048  0.1640 -0.0712 -0.0990
87736W        W30752  15.890  33.698   4.304 -0.1053  0.0546 -0.3210
87737W        W30753  21.384  12.720   8.172  0.0646  0.1439  0.3426
87738W        W30754   8.361  26.852  26.843 -0.0124  0.0068  0.0429
87739W        W30755  22.499   3.216  19.347 -0.1259 -0.0276  0.0463
87740W        W30756   0.377  10.497   3.758 -0.0683 -0.3164  0.1912
87741W        W30757  13.538  12.095   1.045  0.0086 -0.0964 -0.1079
87742W        W30758  25.023  13.287   1.048  0.2686 -0.3182 -0.0605
87743W        W30759  11.567   6.590  22.388  0.0614  0.2088  0.0736
87744W        W30760  15.355   4.561  21.231 -0.0594  0.0497 -0.2137
87745W        W30761  23.938  11.200  25.410 -0.0684  0.0709 -0.1371
87746W        W30762  27.262  18.824   4.168  0.2619  0.0219 -0.3852
87747W        W30763  27.770  15.649  25.807 -0.0912  0.0853 -0.0128
87748W        W30764  34.236   8.640   1.694  0.0579  0.2044 -0.2873
87749W        W30765  23.258  32.431   3.194  0.0540 -0.1114 -0.1537
87750W        W30766  20.925  11.544  24.454 -0.0987 -0.0191  0.1529
87751W        W30767  20.270   9.709   2.257 -0.0062  0.0858  0.2099
87752W        W30768  12.309   9.902  26.775 -0.2471  0.0668 -0.0816
87753W        W30769  25.101  29.935  26.877 -0.2790  0.1610  0.1316
87754W        W30770  20.699  13.789  26.343  0.0098  0.0633  0.1447
87755W        W30771  31.720   7.827  28.232 -0.0368  0.2323 -0.2331
87756W        W30772  11.914   6.118  24.460 -0.2252 -0.1597  0.3570
87757W        W30773  19.906   4.055  16.344 -0.1151 -0.1938 -0.0493
87758W        W30774  21.243   2.667  19.114  0.1158  0.1279 -0.2604
87759W        W30775  16.906  11.387  24.104 -0.2653  0.3895  0.1616
87760W        W30776  21.281   3.422  16.608 -0.1201 -0.1640 -0.0855
87761W        W30777  23.974  15.781  22.955 -0.1715  0.1266  0.2698
87762W        W30778  24.697  17.868   5.413  0.0546  0.1485  0.1772
87763W        W30779  25.739  19.611  10.449 -0.0346 -0.1402  0.1154
87764W        W30780   4.031  21.019  23.044  0.0382 -0.1990 -0.2184
87765W        W30781  23.568  11.972   4.193 -0.3908  0.1658 -0.0328
87766W        W30782  19.115  32.276   8.160  0.0067  0.0384 -0.2877
87767W        W30783  24.924  26.343  20.726 -0.0819  0.0190 -0.1511
87768W        W30784  23.738  11.030   4.009 -0.1112  0.0924  0.0238
87769W        W30785  14.687  20.039  25.487  0.0626  0.1306 -0.2348
87770W        W30786  23.328   6.983  22.728  0.1368 -0.0857  0.0569
87771W        W30787  22.646  33.362   1.533 -0.1990 -0.1111  0.1862
87772W        W30788  14.091  21.413  29.003 -0.0986 -0.2423  0.0667
87773W        W30789  16.346  11.190  23.878  0.0397 -0.1696 -0.0640
87774W        W30790  27.580   2.114   2.901 -0.0918 -0.0130 -0.2685
87775W        W30791   6.539  25.783   6.768  0.4026  0.0904 -0.0115
87776W        W30792  21.151  10.833  14.499  0.0152  0.2507  0.0377
87777W        W30793  22.276  14.444  19.461 -0.1206  0.0174 -0.3217
87778W        W30794  17.432  18.246  26.351 -0.0713 -0.0102  0.0841
87779W        W30795  14.953   3.304   6.314 -0.1189  0.0939 -0.0780
87780W        W30796  25.145  27.732   3.245  0.2463 -0.3741  0.1446
87781W        W30797  33.235  23.311  22.425  0.0053  0.0679  0.0789
87782W        W30798  19.515  16.552  24.100 -0.2302 -0.0946 -0.1200
87783W        W30799  24.810  33.670  24.203 -0.0610 -0.2834  0.1079
87784W        W30800  23.028  29.556   1.316 -0.2320  0.3038  0.0857
87785W        W30801   5.942  13.020  23.184 -0.0050  0.0060  0.0211
87786W        W30802  14.785  14.863  15.745  0.1562 -0.1520  0.1794
87787W        W30803   7.973  24.716   7.266  0.0868  0.1625 -0.0743
87788W        W30804   8.112   7.642  10.143  0.0931  0.0678 -0.3545
87789W        W30805  24.861   3.644  15.314  0.2775 -0.4600  0.1002
87790W        W30806  18.079  14.852  22.804 -0.0675 -0.1201 -0.0497
87791W        W30807  15.768  34.483  15.989  0.1001  0.2021  0.1197
87792W        W30808  24.412  15.570   1.169  0.1524  0.1115 -0.2026
87793W        W30809  17.528   0.662   8.555 -0.1777  0.0894 -0.2045
87794W        W30810  25.327  18.128   9.155 -0.1918  0.0189  0.1138
87795W        W30811  13.968  17.483  28.154  0.0000 -0.2176  0.0715
87796W        W30812  29.302  13.071   7.691  0.3494 -0.1413  0.3506
87797W        W30813   1.616   5.584  14.669  0.5815 -0.0911 -0.0467
87798W        W30814   1.758  10.810  22.996 -0.2939 -0.3368 -0.0745
87799W        W30815  18.453  29.225   2.027  0.0432  0.0148  0.2628
87800W        W30816  25.831  15.842  22.935  0.0161  0.0908 -0.0734
87801W        W30817  19.073   0.191  26.462 -0.1395 -0.4759  0.0067
87802W        W30818  31.635  31.912  27.101  0.1366 -0.1085  0.2871
87803W        W30819  16.956  31.626   4.059  0.1451 -0.2415 -0.0108
87804W        W30820  23.804  34.523  17.271 -0.1191 -0.0775  0.0143
87805W        W30821  30.399  18.180   6.668 -0.1844  0.2614 -0.3012
87806W        W30822  34.258  16.389  22.903  0.1415 -0.2581  0.2657
87807W        W30823  20.343  33.779  22.008 -0.1167 -0.0257  0.0062
87808W        W30824   5.822   0.830   5.018  0.2270 -0.1633 -0.1741
87809W        W30825  22.136  14.354  22.961  0.3157  0.0971  0.4264
87810W        W30826  11.520  34.427   2.792  0.3182 -0.0024 -0.3523
87811W        W30827  11.121   4.336  23.350 -0.1688  0.0585 -0.0162
87812W        W30828  13.607   8.884   0.816  0.1142 -0.1544  0.1385
87813W        W30829  28.456   6.782  10.374 -0.1633 -0.1684  0.1921
87814W        W30830  24.317   6.198  29.209 -0.1629  0.0308 -0.1694
87815W        W30831  31.541  31.732   2.258 -0.5301 -0.0798 -0.1679
87816W        W30832  23.269  15.725  27.193 -0.3134 -0.0822 -0.0411
87817W        W30833  15.874   7.784   0.450 -0.0821  0.1624  0.0081
87818W        W30834  12.507  34.335   2.951 -0.0563  0.1504  0.1529
87819W        W30835  21.651  17.538   1.306  0.1741 -0.1186  0.0519
87820W        W30836  30.073  11.994  28.294  0.0975 -0.0356  0.2539
87821W        W30837  24.467   6.100   9.085 -0.2388 -0.0943 -0.0703
87822W        W30838  13.332   9.575  17.849  0.2784  0.2124 -0.1198
87823W        W30839  33.468  20.290   6.748 -0.1297 -0.1653 -0.0591
87824W        W30840  33.870  31.695  21.767 -0.0268  0.2230  0.2642
87825W        W30841  27.235  10.240   4.530 -0.0418  0.1856  0.0020
87826W        W30842  16.799  18.121  25.946 -0.0338  0.3939  0.2417
87827W        W30843  28.134  25.388   2.820  0.1747 -0.1373  0.0496
87828W        W30844  29.654  25.482  26.698  0.2114  0.0159  0.4212
87829W        W30845   4.960  20.481  25.609 -0.0596 -0.2899 -0.1311
87830W        W30846  25.994  14.019  22.658  0.4173 -0.0836 -0.2562
87831W        W30847   4.155  20.532   4.629 -0.3416 -0.2592  0.2001
87832W        W30848  18.531  11.787   3.297 -0.1922 -0.2985 -0.0685
87833W        W30849  29.719  14.378   5.175  0.0926 -0.1031  0.0019
87834W        W30850  22.777  32.616   3.255 -0.1658  0.2097  0.2235
87835W        W30851  33.981   5.736   5.076 -0.2424  0.1427  0.1878
87836W        W30852  18.079   4.168   8.088 -0.0218 -0.0018  0.3214
87837W        W30853  16.043   4.954   6.438 -0.1450 -0.0346  0.3056
87838W        W30854  20.470  25.809  24.797  0.3778  0.2400 -0.1755
87839W        W30855  10.143   4.682  25.413 -0.3408 -0.2421 -0.1522
87840W        W30856  19.319   8.079  26.551 -0.1468  0.5503 -0.0740
87841W        W30857   4.088  24.018   2.548  0.1812 -0.1000  0.2921
87842W        W30858  14.411  25.877  14.215 -0.4643 -0.1233 -0.0867
87843W        W30859  22.746  16.664   3.054  0.1008  0.1455  0.0060
87844W        W30860  20.253   0.682  29.275  0.1364  0.2967 -0.0830
87845W        W30861  14.260  20.479  13.144 -0.1791  0.0764  0.0348
87846W        W30862  11.406  13.633  16.380 -0.0557  0.0467  0.2242
87847W        W30863   5.470  34.415   9.507 -0.3093 -0.1365  0.1265
87848W        W30864  17.745  13.934  21.008 -0.0407  0.1673  0.0592
87849W        W30865  19.343  17.903   5.386 -0.2494 -0.1738  0.1069
87850W        W30866  28.182  33.231  24.218 -0.0034 -0.0129 -0.0092
87851W        W30867  31.056   1.110  10.772 -0.0705  0.2225 -0.0058
87852W        W30868   5.187  26.162  27.792  0.0250  0.1873 -0.1594
87853W        W30869  28.128  14.441   5.187  0.0831 -0.0229  0.2152
87854W        W30870  30.938   8.782   6.466  0.0511  0.2018  0.0897
87855W        W30871  29.450   8.456   0.557  0.0622 -0.2515  0.2051
87856W        W30872  13.028   9.031   2.491  0.0948  0.0861  0.4851
87857W        W30873  23.892  17.264  14.904  0.1092 -0.1733 -0.0474
87858W        W30874   9.543  15.926   7.260 -0.4265 -0.0386  0.0455
87859W        W30875  19.367   7.635  17.406  0.1030 -0.3563 -0.2079
87860W        W30876   0.532   8.320   6.144  0.1432 -0.1056  0.1044
87861W        W30877  11.499  15.460   2.289 -0.0846 -0.2375  0.0375
87862W        W30878  15.398  18.284  19.087 -0.0414 -0.2924 -0.0642
87863W        W30879   3.102  11.013  28.219 -0.1469  0.2022 -0.1378
87864W        W30880  27.427  17.203  17.725  0.2258 -0.1222 -0.3211
87865W        W30881  16.762  17.897  29.130  0.0068 -0.0787  0.2196
87866W        W30882  28.624  12.683   9.693  0.1952 -0.0433  0.1320
87867W        W30883  22.738   2.143   1.344 -0.0898  0.1411  0.0048
87868W        W30884  34.104  13.883  26.311  0.1554 -0.0291 -0.1786
87869W        W30885  21.720  11.713   2.258  0.3226  0.0906  0.0210
87870W        W30886  30.927  17.315   5.646  0.1764  0.0883 -0.1851
87871W        W30887  30.437  21.451  29.291  0.0903 -0.2753  0.0005
87872W        W30888  13.859  30.433  20.505 -0.0065  0.1048 -0.2762
87873W        W30889  21.965  17.546  29.161 -0.1721 -0.0276  0.0857
87874W        W30890  17.225   2.971  19.303  0.2540  0.3261 -0.2701
87875W        W30891  33.349  18.029   2.100  0.1298 -0.1160  0.1566
87876W        W30892   7.591   7.765  20.708  0.1218  0.1352  0.0006
87877W        W30893   6.691  32.670  24.126 -0.0407  0.2514 -0.1174
87878W        W30894  13.095  24.315  23.162 -0.0707  0.1253 -0.2944
87879W        W30895  16.656  10.449   7.585 -0.0922 -0.1566 -0.0440
87880W        W30896  19.190   0.122   2.458 -0.2931 -0.3633 -0.2712
87881W        W30897   4.679  17.429   8.010 -0.0312 -0.0804 -0.0711
87882W        W30898  11.682   1.221  27.451 -0.2704 -0.1038  0.1404
87883W        W30899  22.827  30.073   1.055  0.3648  0.0237 -0.3142
87884W        W30900  12.460   2.164   7.541 -0.0393  0.4339  0.1129
87885W        W30901  25.304  15.112   1.571  0.0301  0.2141  0.1668
87886W        W30902  16.490   0.071  17.298  0.0671  0.2118 -0.3231
87887W        W30903  19.822  28.084   8.208 -0.1927 -0.2633  0.4220
87888W        W30904  19.479  21.792  26.911  0.0030 -0.2324 -0.0173
87889W        W30905  14.860   2.237  26.814  0.0957  0.2048 -0.0790
87890W        W30906   8.723  13.113   2.592  0.2731  0.0174 -0.2818
87891W        W30907  23.980  10.887  14.164 -0.0861 -0.0114 -0.3172
87892W        W30908  11.609  34.079  20.761 -0.1818 -0.2698  0.0515
87893W        W30909  32.841  24.872  18.306 -0.0603 -0.0651  0.2699
87894W        W30910  18.109   5.162  20.628 -0.2977  0.0714 -0.2621
87895W        W30911   9.228  30.721   5.652 -0.0696 -0.0508  0.1049
87896W        W30912  13.286   6.258   9.208  0.0205 -0.4716  0.1604
87897W        W30913  23.006  21.852  23.523 -0.0046  0.2641 -0.0294
87898W        W30914   1.226   7.393   2.686  0.1436 -0.0545  0.0804
87899W        W30915  25.062  33.687   1.443 -0.2049  0.2258  0.0065
87900W        W30916  19.443  14.556  23.220 -0.1505  0.2526  0.2394
87901W        W30917  18.705   2.599   2.725  0.0849  0.1745  0.1321
87902W        W30918  15.064  15.901  20.756  0.4169 -0.1499  0.0478
87903W        W30919  16.212  12.733  17.547  0.2866  0.3798 -0.0276
87904W        W30920  14.257  15.047  12.391  0.1933 -0.0672  0.1803
87905W        W30921  25.857  15.387  25.963  0.1715 -0.1337  0.1070
87906W        W30922   5.223   5.657  29.181 -0.4812 -0.1294  0.3327
87907W        W30923  20.212  15.432   1.512 -0.4785 -0.2048  0.1765
87908W        W30924  20.629   3.234   1.318 -0.0330 -0.0775 -0.1838
87909W        W30925  24.932   6.977   4.709 -0.2152 -0.3497 -0.1028
87910W        W30926   9.899  15.848   5.018 -0.0860 -0.2982 -0.0905
87911W        W30927   8.983  32.178  20.489  0.1907  0.0075  0.1577
87912W        W30928  33.374  11.183  29.064  0.0128  0.0253  0.0262
87913W        W30929   8.602   3.161  28.744 -0.0204  0.2358  0.2105
87914W        W30930  10.592  13.636  12.912 -0.0887  0.2125  0.2267
87915W        W30931  32.050  28.304  24.945 -0.0894  0.2093  0.1387
87916W        W30932  28.241   9.652  25.163  0.0705 -0.0325  0.1958
87917W        W30933  14.382  34.655  16.792  0.0806 -0.2987 -0.0286
87918W        W30934  10.498  12.927  21.331 -0.1783  0.0463 -0.0179
87919W        W30935  21.724   3.470  15.000  0.0253  0.5342  0.1468
87920W        W30936  11.986  24.929  17.137  0.1332 -0.1044 -0.1161
87921W        W30937  33.590   0.464  26.328 -0.1228  0.0565  0.3883
87922W        W30938  16.389   3.082  25.653  0.0058  0.2664 -0.1367
87923W        W30939  15.991  23.099  12.265  0.0063  0.2790  0.0283
87924W        W30940  25.355  19.161  20.013 -0.2515 -0.1583  0.1334
87925W        W30941  23.115  34.779   0.930 -0.0258  0.1527  0.0082
87926W        W30942  18.488  30.295  15.168  0.1658 -0.1102  0.1028
87927W        W30943  15.376  33.448  17.101  0.3021 -0.2446  0.3131
87928W        W30944  20.886   6.668   2.860 -0.1554  0.0129 -0.0512
87929W        W30945  30.736  20.680  28.224 -0.2090 -0.0164  0.0100
87930W        W30946  20.789  33.180   8.701  0.1788  0.0586 -0.1694
87931W        W30947   9.271  17.591  12.623 -0.2597  0.0484  0.0924
87932W        W30948  11.215   6.710   1.932  0.2333  0.0918 -0.1903
87933W        W30949   5.889  15.971  24.735  0.1670  0.1247 -0.1122
87934W        W30950  30.450   2.062  24.356 -0.2027 -0.0296  0.3020
87935W        W30951  25.158   7.890  25.045 -0.0187 -0.2207 -0.1216
87936W        W30952  12.259  34.670  21.808 -0.2560 -0.1563 -0.0331
87937W        W30953  28.766  20.005  18.816  0.0553 -0.0489 -0.2286
87938W        W30954  26.855   9.852  15.376 -0.0617  0.2870  0.1975
87939W        W30955  27.127   4.187  21.296  0.1236  0.0521 -0.0740
87940W        W30956  21.823  10.605  14.107 -0.1217  0.1718  0.1205
87941W        W30957   7.126  14.047  21.375 -0.0711 -0.2604 -0.0539
87942W        W30958   8.832  33.984  16.268 -0.2184  0.0985  0.2504
87943W        W30959  21.627  28.781  28.126  0.1926 -0.1807 -0.0309
87944W        W30960   6.280   4.637  26.605  0.3786 -0.1591 -0.0488
87945W        W30961  19.191  27.056  24.767  0.0592  0.0981  0.0975
87946W        W30962   6.125  32.072  24.707  0.0442 -0.0967 -0.1364
87947W        W30963   6.452  30.120  26.298 -0.0728  0.0313 -0.0366
87948W        W30964   4.080   3.196  23.067 -0.0078 -0.1349 -0.1007
87949W        W30965  25.986  13.623  19.423  0.1148 -0.2107  0.1475
87950W        W30966  27.005  19.663  16.958 -0.0753 -0.1532  0.0648
87951W        W30967  23.382  10.366  16.182  0.0614  0.1964 -0.0124
87952W        W30968  13.897   0.786  19.324  0.0632 -0.0975 -0.2334
87953W        W30969  28.214  21.618  14.691 -0.1552 -0.1584  0.2506
87954W        W30970  19.629  24.176  14.345  0.0689 -0.0252 -0.0034
87955W        W30971   1.291  14.645   4.061  0.0213  0.0215  0.3644
87956W        W30972  28.283   1.729  19.403  0.0300 -0.0499  0.1071
87957W        W30973  16.113  22.512  14.773  0.1285  0.2885  0.0271
87958W        W30974  20.803  27.350  23.094  0.4358  0.0029  0.0714
87959W        W30975  10.731   0.649  16.773 -0.1291  0.1530 -0.0814
87960W        W30976  33.682  21.374  26.050 -0.0856  0.0735  0.4312
87961W        W30977   3.607  23.707  15.153 -0.3202  0.1824 -0.0048
87962W        W30978  26.099  30.134  28.599  0.3702 -0.1797  0.2025
87963W        W30979  14.079  10.777  15.950 -0.2568  0.2335  0.0747
87964W        W30980  13.188   4.163  22.230  0.0516  0.0022  0.0965
87965W        W30981  10.689  11.566  16.200 -0.1309 -0.0899 -0.1845
87966W        W30982  24.895  20.615  19.700  0.0671  0.0730 -0.2096
87967W        W30983  21.897  27.011  24.831 -0.1437  0.1353  0.2350
87968W        W30984  15.338   6.872   2.511  0.1380 -0.0446 -0.2389
87969W        W30985  17.683   3.624  16.307 -0.0810 -0.1736 -0.0226
87970W        W30986  18.183  17.293   1.051 -0.1213 -0.2589 -0.1759
87971W        W30987  21.528  26.538  21.637  0.1653  0.0823  0.1456
87972W        W30988   5.210   5.114  15.081  0.1087  0.0666 -0.0909
87973W        W30989  23.915   7.618  20.324  0.0462 -0.2085 -0.1211
87974W        W30990  20.411  17.002  14.915  0.1986 -0.4134 -0.2283
87975W        W30991   4.830  17.741  20.096 -0.0122  0.4240 -0.0130
87976W        W30992  23.609  26.663  18.289  0.1918  0.2694  0.2866
87977W        W30993  17.168  24.414  15.535 -0.3206 -0.2216 -0.0842
87978W        W30994   5.848   3.910  21.990  0.2455 -0.0814  0.1813
87979W        W30995   4.828  19.740  16.708  0.0377  0.2309 -0.1882
87980W        W30996  20.267  11.717  12.179 -0.0098  0.1181 -0.0675
87981W        W30997  15.588  11.951  17.978 -0.0362 -0.0864  0.2067
87982W        W30998  31.031   8.099   7.908 -0.1585  0.3868  0.3138
87983W        W30999  20.988  32.528   4.499 -0.0580 -0.1994  0.1403
87984W        W31000  27.244  17.668  28.251 -0.2570 -0.0695 -0.2227
87985W        W31001  18.407  21.416  14.150 -0.2147 -0.0517 -0.1899
87986W        W31002  33.160  14.290  22.507  0.1233 -0.0907 -0.1602
87987W        W31003  31.639  19.057  22.460  0.1261  0.0260 -0.0856
87988W        W31004  22.618   7.290  16.600  0.0606 -0.0988  0.5339
87989W        W31005  22.055  14.436  14.193  0.2015 -0.1086 -0.3711
87990W        W31006  27.986  26.057  19.303  0.0391 -0.2019  0.2190
87991W        W31007  11.767  13.633  13.029 -0.1691  0.3403 -0.3684
87992W        W31008  22.419   9.587  20.237  0.1654 -0.4192  0.0549
87993W        W31009  25.606  11.445   5.523 -0.0143 -0.0390  0.2563
87994W        W31010  21.724  19.749  15.767  0.1880  0.1474 -0.0896
87995W        W31011  29.500  17.143  19.177  0.3235 -0.1307  0.1541
87996W        W31012   7.924  18.486   2.576 -0.1852 -0.0789 -0.1804
87997W        W31013  30.759  23.289  17.060  0.0714 -0.2050 -0.0236
87998W        W31014  15.379  28.517  28.031  0.0008  0.0668  0.0475
87999W        W31015  17.809   7.603  20.111 -0.1432 -0.1772 -0.1315
88000W        W31016   2.751  19.601  16.056 -0.1298 -0.0120  0.0395
88001W        W31017  23.491  14.465  13.174  0.0706 -0.1003 -0.2198
88002W        W31018  16.141  34.687  24.736  0.0150 -0.0369  0.0816
88003W        W31019  12.449  21.645  19.752  0.0294 -0.0608 -0.1133
88004W        W31020  14.047  28.285   6.729  0.2632 -0.0162  0.0700
88005W        W31021  11.324  24.923   7.016  0.0149  0.0655 -0.0726
88006W        W31022   6.566  17.079  18.061 -0.2374  0.0456 -0.2669
88007W        W31023  34.290  13.077  15.773 -0.1414 -0.1432  0.2504
88008W        W31024  21.595  11.349  13.754 -0.2904 -0.1369 -0.1531
88009W        W31025  27.156  30.536  18.226  0.0179 -0.3569 -0.0752
88010W        W31026  33.297  24.666  23.857 -0.0838 -0.2076 -0.3000
88011W        W31027  26.872   7.773  19.082 -0.0920  0.1648  0.0921
88012W        W31028  31.206   7.559  14.467 -0.2423  0.2744  0.3740
88013W        W31029   6.474  10.565  22.357  0.1194 -0.1097  0.2346
88014W        W31030   4.136  14.833  18.586 -0.1992 -0.2630 -0.3352
88015W        W31031  22.394   7.056  26.606 -0.2818 -0.1713 -0.3071
88016W        W31032   9.651  11.442  16.771 -0.2440  0.1111  0.0917
88017W        W31033  17.106   4.171  23.340  0.2446 -0.3340  0.0668
88018W        W31034  28.095  26.158  26.939 -0.0551 -0.4560  0.1003
88019W        W31035  22.097  33.894  19.556 -0.0484 -0.0007 -0.0895
88020W        W31036   9.159  14.938  16.233  0.0430  0.0968  0.1366
88021W        W31037   7.033  33.270  23.700 -0.2040  0.0970 -0.2622
88022W        W31038  13.723   6.960  16.514  0.3141 -0.0850  0.1066
88023W        W31039  21.460  12.613  17.057 -0.4839 -0.0395 -0.0031
88024W        W31040  25.920  13.409  28.400 -0.0480 -0.0570  0.0917
88025W        W31041  23.380   3.715   7.428 -0.0548 -0.2122  0.1360
88026W        W31042  22.646  18.839  19.152  0.1103  0.1753  0.2881
88027W        W31043  25.871   9.539  22.983  0.0907  0.2705 -0.1756
88028W        W31044  31.033  11.850  21.219 -0.0847 -0.1910 -0.0135
88029W        W31045  15.067  11.204  20.334 -0.2132 -0.1577 -0.2347
88030W        W31046  11.051  26.445   0.145 -0.0463 -0.0318  0.0633
88031W        W31047  23.108  32.225  16.192  0.0259 -0.0646  0.2477
88032W        W31048   6.835  15.537  22.356  0.0338  0.1029  0.0380
88033W        W31049  15.759  21.525  13.800  0.0856 -0.2261 -0.3312
88034W        W31050  14.291   9.448  18.849 -0.1433  0.0912  0.1217
88035W        W31051  15.697   9.314  18.745 -0.2392 -0.0299 -0.4247
88036W        W31052  30.761  25.502   3.702 -0.2028  0.1843 -0.1188
88037W        W31053  13.114  33.868  23.702 -0.1795 -0.2000  0.0075
88038W        W31054  12.243  10.577  21.455 -0.0001 -0.3112  0.2790
88039W        W31055  28.784   9.347   0.758 -0.1761  0.2299  0.2201
88040W        W31056  17.318   3.258  23.886  0.2947  0.1974 -0.0210
88041W        W31057   6.606  24.486  20.754 -0.0206  0.0968  0.0925
88042W        W31058  31.693  10.835   4.260 -0.0501 -0.0934 -0.1772
88043W        W31059   7.769   8.475  15.168 -0.0053  0.3692  0.1237
88044W        W31060   6.472   4.368  15.887  0.1768 -0.0871  0.3871
88045W        W31061  22.535   5.768  13.953  0.0099 -0.0673  0.1501
88046W        W31062  21.262  18.716  21.422 -0.0483 -0.0452 -0.1786
88047W        W31063  23.688  23.983   3.104 -0.3416 -0.1552 -0.0609
88048W        W31064  30.189   0.426  23.881 -0.0918  0.1408 -0.1305
88049W        W31065  15.055  25.374  19.251 -0.3685 -0.0871  0.0599
88050W        W31066  10.426  23.757  17.740  0.1754 -0.2459 -0.0077
88051W        W31067  25.879   1.252  19.640 -0.3040  0.1813 -0.0366
88052W        W31068  23.382   6.116  14.401 -0.0962  0.0424 -0.2296
88053W        W31069  27.657   7.517  23.126 -0.0288  0.0636 -0.1347
88054W        W31070  22.901   2.283  17.307 -0.0269  0.2843 -0.3652
88055W        W31071  28.438  27.289  22.896  0.0351 -0.4066  0.1843
88056W        W31072  33.589  32.189  16.464  0.0139 -0.2814 -0.4044
88057W        W31073  30.299  30.943  15.914 -0.3388 -0.3203  0.1976
88058W        W31074  15.230  20.175  15.339  0.2700  0.1779  0.0627
88059W        W31075   2.604   4.180   6.080 -0.0625  0.1141 -0.0245
88060W        W31076  19.288  23.591  15.734 -0.0745  0.0197 -0.2443
88061W        W31077  24.816  25.974  16.490 -0.0996  0.1132  0.2285
88062W        W31078  16.186   2.202  18.881 -0.1949 -0.2966  0.5298
88063W        W31079  22.540  26.073  23.523 -0.0343 -0.3104  0.4203
88064W        W31080  15.813  21.200  15.979 -0.2889 -0.1078 -0.0905
88065W        W31081  18.133   7.225  22.604 -0.1460 -0.0940 -0.2029
88066W        W31082  10.352   2.701  25.801  0.1903 -0.3755 -0.0702
88067W        W31083  26.484  20.156  16.101  0.1759  0.0307 -0.4233
88068W        W31084  33.682  13.606  18.689  0.1795  0.0032 -0.1699
88069W        W31085   6.205  21.157  27.765  0.1441 -0.1968 -0.0976
88070W        W31086  25.975   5.574   5.359 -0.0223 -0.3866  0.0143
88071W        W31087  22.975  21.988  16.747  0.1719 -0.1159  0.1043
88072W        W31088  12.548   8.807  16.459 -0.1149  0.0978 -0.1179
88073W        W31089   6.031   9.221  16.083  0.2175  0.0081  0.1263
88074W        W31090  14.286  22.310  20.351  0.0641 -0.0042 -0.1968
88075W        W31091  23.647  19.297  20.934  0.2003  0.1431  0.5016
88076W        W31092   9.936  18.407  22.840 -0.0560 -0.0088  0.2484
88077W        W31093  22.197   5.453  25.184 -0.2517  0.0770 -0.2034
88078W        W31094  34.209  21.389  15.628 -0.3917 -0.1633  0.1396
88079W        W31095  10.300  14.298  17.842 -0.0333  0.1087  0.0849
88080W        W31096   7.190  10.440  18.234  0.2219 -0.3085  0.0671
88081W        W31097  23.673  34.303  20.958 -0.2892 -0.0412  0.1874
88082W        W31098  21.508   5.917  17.980 -0.0061  0.0938  0.1138
88083W        W31099  26.868  10.909  18.764  0.0146 -0.0892 -0.1349
88084W        W31100  27.335  34.412   3.178  0.2379  0.4006  0.2092
88085W        W31101  20.737  16.270  27.274 -0.0859 -0.0028  0.2852
88086W        W31102   3.082  11.906  20.598 -0.2705  0.0853 -0.1108
88087W        W31103  20.809  26.341  17.030  0.3145  0.1656 -0.1465
88088W        W31104  18.347   9.831   2.578 -0.1166  0.0909 -0.2373
88089W        W31105  21.017  11.630  12.703 -0.1272 -0.0227 -0.0214
88090W        W31106  24.554   6.735  16.136  0.0462  0.0892 -0.2028
88091W        W31107  12.719  15.230  21.324  0.1686  0.1320 -0.0984
88092W        W31108   7.983  31.591  15.150  0.1100 -0.0802 -0.0428
88093W        W31109  19.583   8.491  18.355 -0.2208 -0.0502 -0.0097
88094W        W31110   1.952  16.018  24.360  0.1576  0.3222  0.0474
88095W        W31111   6.794  11.953   4.078 -0.1703 -0.1483  0.1664
88096W        W31112   1.917  27.911  14.233  0.0103  0.1233  0.2870
88097W        W31113   6.148  25.250  17.950 -0.2450  0.1153  0.4590
88098W        W31114  22.913   3.812  15.767 -0.0801  0.0157  0.3330
88099W        W31115  10.453  15.592  19.161 -0.1029  0.2170  0.1696
88100W        W31116  28.534  31.522  22.140 -0.1751 -0.0855 -0.0903
88101W        W31117  17.582  12.404  20.995  0.2565  0.0110 -0.1915
88102W        W31118   9.900  26.809  17.446  0.2781  0.0131 -0.0304
88103W        W31119  14.829   7.886  14.255  0.2843  0.4527 -0.1743
88104W        W31120  34.118  22.934   3.552  0.0986 -0.2827  0.2625
88105W        W31121  28.862   5.348  22.918  0.2781  0.1769  0.0515
88106W        W31122  28.177  25.762  25.425 -0.3240  0.2774  0.3367
88107W        W31123   5.110  28.063  18.138 -0.0703 -0.0279 -0.2112
88108W        W31124  21.744   9.395  19.914  0.2398 -0.0441  0.1280
88109W        W31125   8.023   0.634  16.269  0.1615 -0.0403 -0.1785
88110W        W31126  29.811   7.545  16.951 -0.0842  0.0062 -0.0263
88111W        W31127  17.531  10.309   0.433  0.0666 -0.2275  0.0128
88112W        W31128  31.438   9.565  19.098 -0.1084  0.1990  0.1067
88113W        W31129  23.633   8.188  21.582 -0.0412 -0.1713  0.4118
88114W        W31130  24.834  11.077  15.845 -0.0332 -0.0883 -0.1993
88115W        W31131  15.023  32.755  17.643  0.1110  0.1017  0.1367
88116W        W31132  33.077  20.744  15.932 -0.0794 -0.1084 -0.4963
88117W        W31133   2.369  11.226  26.233 -0.1450  0.2343  0.3246
88118W        W31134  18.596  22.977   3.143 -0.2032  0.1452 -0.1055
88119W        W31135  19.781   5.112  24.438  0.0393 -0.0250  0.1448
88120W        W31136   5.366   4.537  23.032  0.0919  0.3178  0.3097
88121W        W31137  19.465  27.976  15.998  0.2696  0.3407 -0.3592
88122W        W31138  24.442  16.052  13.943 -0.2787 -0.1334  0.3670
88123W        W31139  15.843  32.268  21.329 -0.1189  0.1129  0.1028
88124W        W31140  28.012  13.956  24.717 -0.0047  0.0795 -0.0376
88125W        W31141  25.790  20.132  22.177 -0.0093  0.1700 -0.0720
88126W        W31142  25.546  15.217  22.335 -0.0388 -0.3008 -0.1189
88127W        W31143  21.970   4.215  14.754 -0.0207 -0.0159  0.3148
88128W        W31144  26.463  31.847  21.658  0.2031  0.1194 -0.0309
88129W        W31145  14.786   6.463  15.780 -0.0464 -0.4070  0.0937
88130W        W31146  15.210  15.989  27.856  0.0015 -0.0869  0.1602
88131W        W31147   3.203  15.409  15.277  0.1942 -0.0035 -0.1114
88132W        W31148  17.695   7.644   1.969 -0.1177  0.0403  0.1405
88133W        W31149  22.448  14.233  14.601  0.2400  0.1637  0.0607
88134W        W31150  24.746   3.985  24.572  0.0309 -0.0917 -0.1535
88135W        W31151   3.687  26.865  21.021  0.2832 -0.0885  0.0660
88136W        W31152  18.134  19.482  21.597 -0.1177  0.0345  0.1738
88137W        W31153  12.892  19.087  12.398  0.1459 -0.0618 -0.0798
88138W        W31154  19.152  10.694  19.449 -0.4080 -0.0868  0.1977
88139W        W31155   5.751   4.319  14.657  0.2654  0.0405 -0.0763
88140W        W31156  15.529  25.241  16.509  0.2569  0.0453 -0.0061
88141W        W31157  18.338  29.726  18.189  0.3454 -0.0248  0.0080
88142W        W31158  31.522  14.537  18.420 -0.0053  0.0367  0.3635
88143W        W31159  11.647   8.965  20.545  0.0570 -0.0606 -0.4047
88144W        W31160  20.033  31.596  19.001  0.1079  0.4096  0.2625
88145W        W31161  27.803  21.111  19.112  0.0876 -0.4217 -0.1376
88146W        W31162  28.862  19.384  18.415  0.0204 -0.0070 -0.3909
88147W        W31163  29.784   6.378  20.791 -0.0847  0.1821  0.0111
88148W        W31164   5.105  23.487  17.384 -0.0318 -0.2316 -0.3478
88149W        W31165  16.125  24.505  22.059  0.2108  0.1848  0.3040
88150W        W31166  17.456  27.171   5.368 -0.1001  0.2389  0.1634
88151W        W31167  29.420  12.310  25.120 -0.2216 -0.0238 -0.0733
88152W        W31168  33.094  27.239  25.645  0.2309  0.0729  0.3294
88153W        W31169  17.893  16.903  12.492 -0.3497  0.1924  0.0165
88154W        W31170   9.368   9.334  18.188  0.0789 -0.1683  0.0026
88155W        W31171  12.643   2.964  20.207  0.0516 -0.1565 -0.0853
88156W        W31172  11.616  12.028  18.312  0.1379  0.1542  0.0172
88157W        W31173  21.596  11.940  16.304  0.2044  0.2383 -0.0968
88158W        W31174  28.743   7.267  16.763  0.1301 -0.0059  0.0182
88159W        W31175  20.409   0.586  23.897 -0.0140 -0.0770  0.1888
88160W        W31176  22.232   4.195  27.505 -0.0512  0.1266  0.1039
88161W        W31177  30.916  21.541  26.658 -0.0604 -0.0703  0.1205
88162W        W31178  13.141   4.270  18.503  0.0258  0.2373  0.1032
88163W        W31179  21.348   1.905  17.301  0.1909  0.3831 -0.1781
88164W        W31180  18.070   4.866  18.501  0.0103  0.2709  0.0500
88165W        W31181   6.360   2.087  18.783  0.0362 -0.0046 -0.1031
88166W        W31182   9.618  16.337  17.551  0.1479  0.3088  0.0378
88167W        W31183  26.412  19.599  20.206 -0.0134 -0.2714  0.1761
88168W        W31184  15.700   8.394  13.182 -0.1602 -0.3338 -0.3096
88169W        W31185  19.088  14.591   8.905 -0.1789  0.1288 -0.0757
88170W        W31186  29.991  28.197  28.964  0.0078  0.2700  0.0286
88171W        W31187  28.642  30.801   9.635  0.2850 -0.1664  0.2893
88172W        W31188  14.363  10.633  13.477  0.0993 -0.2509  0.1920
88173W        W31189  26.567  26.337   0.914  0.2194 -0.3019 -0.0120
88174W        W31190  20.816  11.712  17.576  0.0168 -0.0928  0.0828
88175W        W31191  16.098   1.898   0.943  0.0214 -0.1754  0.1513
88176W        W31192  21.113  26.928  20.031 -0.2582 -0.0244 -0.2761
88177W        W31193  25.299  14.726  22.288  0.1610 -0.1718 -0.2677
88178W        W31194   9.661   9.787  19.531  0.2576  0.2044 -0.3396
88179W        W31195  16.794  14.028  20.334  0.1713 -0.3631 -0.2569
88180W        W31196  18.962  25.760   4.346 -0.0706 -0.1262  0.2544
88181W        W31197  21.102  16.514  13.325 -0.3239 -0.1764 -0.0345
88182W        W31198  13.648  23.097  20.317 -0.1738 -0.2851  0.0105
88183W        W31199  22.179  32.074  15.544 -0.1398 -0.2103  0.0046
88184W        W31200  14.423   7.281  22.575  0.1188  0.0093 -0.0874
88185W        W31201  13.676  21.149   7.121  0.1648 -0.0897 -0.0908
88186W        W31202  16.396   7.153  22.032 -0.0551  0.0608  0.4098
88187W        W31203  27.504  15.205  24.315  0.2021 -0.1614  0.4128
88188W        W31204  21.371   0.097   1.458 -0.2059 -0.1366  0.4170
88189W        W31205   2.142  21.617  18.116  0.1896  0.0079 -0.5240
88190W        W31206  32.041   5.441  21.964 -0.2444  0.1668  0.0412
88191W        W31207   3.230   8.676   0.096 -0.0209 -0.0375 -0.0400
88192W        W31208  24.994  14.895   5.149  0.0964  0.2481  0.3913
88193W        W31209  16.705  28.770  18.300 -0.1992  0.0234  0.0870
88194W        W31210  29.097  10.840   0.585 -0.1067  0.1496  0.1983
88195W        W31211   0.749  17.675  13.835  0.0023 -0.1681  0.1171
88196W        W31212  26.151  14.878  28.073  0.1273  0.1747  0.1703
88197W        W31213  27.887  19.545  19.923  0.1193  0.0118  0.1124
88198W        W31214  19.533   4.995  28.498 -0.0858 -0.3356  0.1278
88199W        W31215  24.969  11.827  15.259  0.0545  0.0184 -0.0815
88200W        W31216  24.724  15.756  18.287  0.2691 -0.0243 -0.2511
88201W        W31217  30.753  15.058  21.093  0.1227  0.2082 -0.0866
88202W        W31218  12.301  19.382   0.712  0.2845  0.7771  0.0048
88203W        W31219  26.341   7.852  16.010 -0.2971 -0.1137  0.1766
88204W        W31220  28.571   3.388  20.423 -0.0314 -0.2149 -0.3005
88205W        W31221  17.620  24.663  17.881  0.0006  0.1096  0.1673
88206W        W31222  22.649  17.893  14.503  0.1804 -0.2312 -0.3121
88207W        W31223  14.753   7.869  27.759  0.0233 -0.1730  0.0744
88208W        W31224  19.276   2.073  18.191 -0.1027 -0.0135  0.1075
88209W        W31225  27.390  15.619  25.486 -0.2952  0.1444  0.1249
88210W        W31226  16.576   1.692   1.080  0.0095 -0.0975  0.2688
88211W        W31227   7.533  14.055  19.054 -0.2143  0.1141 -0.0523
88212W        W31228  30.878   2.404  25.077 -0.0039  0.1150 -0.2743
88213W        W31229  19.175   0.893  21.991 -0.0062 -0.3562  0.0340
88214W        W31230  34.479   9.611  21.136  0.1496 -0.1703  0.3779
88215W        W31231   6.060   5.152   6.303  0.3274 -0.0692 -0.0933
88216W        W31232  14.126  22.101  14.021 -0.0888  0.1188 -0.3203
88217W        W31233  15.205   5.775  23.148  0.1144  0.2350 -0.2992
88218W        W31234  20.390   7.514  14.801  0.1866 -0.2371 -0.1523
88219W        W31235  23.439  23.419  20.740 -0.3354  0.0842 -0.0500
88220W        W31236  23.917  18.285  16.992 -0.0544  0.1669  0.2113
88221W        W31237  21.852  20.441   1.522  0.3615 -0.0171 -0.0674
88222W        W31238  20.126   4.791  17.551  0.0937  0.0032 -0.1125
88223W        W31239   6.531  15.438  16.665  0.0778 -0.0227 -0.4145
88224W        W31240  21.092  21.733  20.100 -0.1203 -0.0166 -0.1176
88225W        W31241  18.783  32.573  17.441 -0.1788  0.2745  0.3271
88226W        W31242   4.104   0.396  26.886 -0.0831  0.2146  0.0354
88227W        W31243   5.063  20.301  22.216  0.1633  0.3404  0.1954
88228W        W31244  28.718  14.037  27.455 -0.0393 -0.0506  0.0830
88229W        W31245  23.314  10.827  19.334 -0.0420  0.1662 -0.1676
88230W        W31246  19.073   3.500   3.722  0.2845  0.1325 -0.0879
88231W        W31247  29.145  19.934  17.875  0.0602  0.2012  0.0541
88232W        W31248  14.414  22.582  15.133  0.3113  0.2140 -0.1092
88233W        W31249  23.235   0.777  16.146 -0.0205  0.2592 -0.0344
88234W        W31250  23.681   8.871  23.650 -0.0609  0.1863  0.1701
88235W        W31251  33.519  10.049  19.430  0.0721  0.0941 -0.2517
88236W        W31252  20.003  14.585  14.516 -0.0771  0.0408 -0.0463
88237W        W31253  31.737  17.595  26.892  0.1747  0.3001  0.2342
88238W        W31254   8.006   6.620  24.309  0.2532  0.1666 -0.0760
88239W        W31255   8.574   2.082  20.354 -0.2648  0.0935 -0.0666
88240W        W31256   7.755   3.444   1.016  0.1493 -0.0992 -0.0016
88241W        W31257  17.749  10.362  21.509  0.0115  0.1443  0.1205
88242W        W31258  12.074   0.801  16.634 -0.0772  0.1375 -0.0364
88243W        W31259  33.739  18.009  16.724  0.0217  0.0763  0.1988
88244W        W31260  16.355  32.808  20.514 -0.0237  0.1101  0.1575
88245W        W31261  27.054  28.425  20.469  0.3267 -0.1398  0.1020
88246W        W31262  14.241  19.532  13.760 -0.0978  0.0534 -0.1495
88247W        W31263  26.401   8.495  21.509  0.1819 -0.1546  0.0916
88248W        W31264  26.911  13.603   7.828 -0.2474 -0.0074 -0.1191
88249W        W31265  26.406  21.029  15.865  0.3585  0.1405  0.0006
88250W        W31266   7.160  19.368  23.550 -0.4573  0.2112 -0.0735
88251W        W31267  23.596  27.835  26.841  0.1560  0.0015  0.5118
88252W        W31268  25.558   3.696  18.358 -0.0443 -0.1985  0.0856
88253W        W31269  20.996  33.916  27.735 -0.1307 -0.1680  0.1240
88254W        W31270  31.040  17.713   7.102  0.1691 -0.2587  0.0755
88255W        W31271  16.638  23.708  13.403 -0.0231 -0.1657 -0.0208
88256W        W31272  18.902  20.647  14.416 -0.0233  0.0400  0.2474
88257W        W31273   6.365  30.986  20.786 -0.2922 -0.2431 -0.0393
88258W        W31274  17.120  20.932  12.337 -0.0582 -0.1368 -0.0292
88259W        W31275  15.101  19.094  23.621 -0.3086  0.3601  0.1203
88260W        W31276  13.350   9.742  19.651 -0.0415 -0.1219 -0.1688
88261W        W31277  30.199  20.450  17.223  0.1570 -0.1922  0.1064
88262W        W31278   7.934  12.903   0.932 -0.3010  0.4887  0.0140
88263W        W31279  20.153   2.513  15.758  0.3385 -0.0403 -0.2917
88264W        W31280  18.669   3.071   2.488  0.0242  0.1265  0.1689
88265W        W31281   9.069  21.133  21.843  0.1209  0.0819 -0.1903
88266W        W31282  15.672  18.938   7.883 -0.2019 -0.0290 -0.0361
88267W        W31283  21.769  15.757  14.237  0.4841 -0.2415 -0.3891
88268W        W31284  15.872  12.059  22.096  0.0236  0.3064 -0.1477
88269W        W31285   4.376  13.245   0.608 -0.1728  0.0783  0.1407
88270W        W31286  29.006   3.851   7.676 -0.0463  0.3557 -0.0144
88271W        W31287  27.225  26.265  22.266  0.1432 -0.0060  0.1750
88272W        W31288  20.755  23.982  14.569  0.4343  0.1082  0.1571
88273W        W31289  24.106   9.158  20.200 -0.5040  0.2055  0.0219
88274W        W31290  20.933   8.217  21.465  0.3013  0.0427  0.2837
88275W        W31291  25.194  17.352  25.412 -0.1140 -0.2874 -0.2874
88276W        W31292  23.946  15.162   8.568  0.1178 -0.1356 -0.2034
88277W        W31293   7.637   4.698  26.059  0.1820  0.2649  0.2938
88278W        W31294   7.508   0.001  28.980 -0.2725 -0.1495  0.2656
88279W        W31295  11.067   7.654  17.287 -0.1765 -0.1913 -0.0192
88280W        W31296  34.617   9.820  16.103 -0.0484  0.0530  0.3109
88281W        W31297  19.853  20.768  16.542  0.2390  0.2650  0.1601
88282W        W31298  25.538  16.264  23.699 -0.1030 -0.1220  0.3122
88283W        W31299  24.580   9.046  23.137  0.2533  0.1117  0.2889
88284W        W31300  18.503  23.672  25.860 -0.1693  0.2688  0.1810
88285W        W31301  11.897  10.297  21.349 -0.2112 -0.0607  0.1050
88286W        W31302  15.109  23.167  15.372  0.2046  0.1089 -0.0255
88287W        W31303  31.811  18.323   5.686  0.2465 -0.1133 -0.1686
88288W        W31304  18.996  34.316  15.663  0.1695 -0.1339 -0.3363
88289W        W31305   4.178  21.790  19.764 -0.0719 -0.0577  0.0355
88290W        W31306   3.446  10.934  28.698 -0.2773  0.2920 -0.0380
88291W        W31307  11.960  20.600  14.895 -0.4083 -0.1797 -0.3418
88292W        W31308  11.328   6.085  20.629 -0.2180 -0.1694  0.1531
88293W        W31309  21.849  12.590  19.321 -0.2928  0.1113  0.6106
88294W        W31310  23.557  11.096  24.876 -0.1674  0.2180 -0.0843
88295W        W31311  20.388  23.333  19.496  0.3345 -0.0721 -0.0399
88296W        W31312   7.692  20.676  18.161 -0.3042 -0.0021  0.0876
88297W        W31313  18.112  31.657   2.748 -0.1564 -0.0662 -0.2502
88298W        W31314  25.793  12.097  15.872 -0.1355  0.0883 -0.2094
88299W        W31315  17.085  32.829  21.326 -0.1555 -0.1344  0.1277
88300W        W31316   7.974  19.425  14.793  0.0344 -0.1000 -0.1296
88301W        W31317  21.850   6.673  18.966  0.2454  0.0113 -0.1292
88302W        W31318  34.555  11.653  24.594 -0.4343 -0.2462 -0.0478
88303W        W31319  13.145  15.950  13.812  0.3409 -0.4715 -0.3111
88304W        W31320   5.117  10.703  27.579  0.3531  0.0183 -0.2991
88305W        W31321  30.847  19.702  24.937 -0.3946 -0.0125  0.0416
88306W        W31322   9.569  17.331  13.499 -0.1362 -0.0017 -0.1468
88307W        W31323  25.209  27.599  19.015 -0.2777 -0.0881 -0.2783
88308W        W31324  27.832   0.160  25.919  0.4058  0.2926  0.1552
88309W        W31325  27.648  16.293  20.205 -0.0396 -0.0500 -0.6291
88310W        W31326  29.540   2.799  21.771 -0.1482  0.1191  0.1817
88311W        W31327  31.794  13.533  20.484  0.0251 -0.2138  0.1110
88312W        W31328  20.415  30.051  23.776 -0.0078  0.0150  0.2770
88313W        W31329  23.634  32.032  16.360  0.1146  0.1118  0.2359
88314W        W31330   4.659  18.299  17.126  0.2430 -0.1023 -0.0440
88315W        W31331  31.168   5.035   8.085  0.1431 -0.5872 -0.1065
88316W        W31332  14.909   4.700  26.304  0.3215  0.1355  0.1024
88317W        W31333  28.190  21.877  20.950 -0.0540  0.1487  0.2378
88318W        W31334  18.747   1.725  24.596 -0.1430  0.1439  0.0038
88319W        W31335  17.551  12.894  12.882  0.5758 -0.0026 -0.0097
88320W        W31336  13.433  13.037  18.637 -0.1198 -0.1407  0.0231
88321W        W31337   7.202   9.456  23.353 -0.0031 -0.2865  0.2461
88322W        W31338  28.004  25.650   0.730 -0.0309  0.0665  0.0100
88323W        W31339  14.592  31.257   2.641 -0.1945 -0.0680  0.1193
88324W        W31340  13.552   2.747  16.516  0.1653 -0.0219 -0.1023
88325W        W31341  27.249  14.765  16.521 -0.2147  0.4460  0.1769
88326W        W31342  21.646   6.343  19.336  0.1382  0.0394  0.0840
88327W        W31343   7.405   8.960  22.624  0.0549 -0.0297  0.0099
88328W        W31344  16.482  13.182  16.161  0.2880 -0.1844 -0.0421
88329W        W31345  29.812  13.464  17.089  0.3075 -0.2087  0.1218
88330W        W31346  28.550  30.224  15.671 -0.0784 -0.0975 -0.2245
88331W        W31347  10.438  16.489  12.583  0.1875 -0.0551  0.0283
88332W        W31348  13.884   3.351  27.203  0.1079 -0.0761  0.1240
88333W        W31349  24.123  34.375  17.584 -0.3040  0.0287 -0.1004
88334W        W31350   0.595  11.097  14.860  0.3077  0.0135 -0.1742
88335W        W31351  26.733  11.929  13.878  0.0756  0.0165  0.0458
88336W        W31352  26.247  18.425   2.248 -0.0239  0.0245 -0.0322
88337W        W31353  26.758  25.565   4.591 -0.4830  0.2764  0.0391
88338W        W31354   1.147   0.590  21.765 -0.0103 -0.0499  0.0697
88339W        W31355  30.936  22.970   1.443  0.0191 -0.2586  0.1778
88340W        W31356  31.986  18.440  16.759 -0.0631 -0.0244 -0.1525
88341W        W31357   3.736  22.157  20.034  0.0648  0.0022 -0.2039
88342W        W31358  28.099  10.118  26.057 -0.2756 -0.1315  0.2517
88343W        W31359  20.634  10.337  19.839 -0.2086  0.1591  0.0816
88344W        W31360  16.182   9.309  23.059 -0.0094  0.1298  0.0600
88345W        W31361  21.230  34.233  21.077 -0.3272  0.1229  0.4928
88346W        W31362  26.791  27.610  20.860 -0.1099  0.1825  0.1804
88347W        W31363  30.638  28.564  29.127  0.2136 -0.1586 -0.3055
88348W        W31364  25.730  16.201  21.426 -0.3049  0.1513 -0.1934
88349W        W31365  13.806  19.309  22.012  0.1558 -0.3566 -0.2860
88350W        W31366  32.171  21.348  25.942 -0.0951 -0.1658 -0.3333
88351W        W31367  11.069   0.828  25.765 -0.0610 -0.3549  0.2244
88352W        W31368  24.979  21.608  14.172  0.0545 -0.0973 -0.0902
88353W        W31369  10.873  17.340  16.440  0.0109 -0.2421  0.0555
88354W        W31370  32.266   8.572  28.096  0.3351  0.2559  0.1236
88355W        W31371   2.160  21.213  17.774  0.4169 -0.0625  0.2312
88356W        W31372  16.946  13.054  20.636  0.4539 -0.2086 -0.3047
88357W        W31373  22.050   0.127  17.329 -0.5777 -0.0133 -0.2614
88358W        W31374  19.007   3.271  23.101 -0.1243 -0.0677  0.2984
88359W        W31375  21.627   2.264  14.105 -0.0517 -0.5461 -0.0109
88360W        W31376  16.620  34.649  22.081  0.0865 -0.0608 -0.2305
88361W        W31377   1.295  15.142   3.905 -0.2136  0.0333  0.0171
88362W        W31378  17.421  34.698  16.742 -0.1744 -0.1300 -0.1582
88363W        W31379  15.333  11.500  13.221  0.1236  0.1119  0.0610
88364W        W31380  15.181  13.641  23.305  0.0354  0.0532  0.3931
88365W        W31381  19.034  13.427  13.431  0.0029 -0.3635 -0.2905
88366W        W31382  20.422   9.223   5.063  0.2592  0.1187 -0.0018
88367W        W31383  18.247   8.399  26.059  0.2031 -0.1635  0.2019
88368W        W31384   8.976  18.695  26.982 -0.3678  0.1520  0.2403
88369W        W31385  24.907   5.217   3.320  0.0711 -0.3047 -0.1685
88370W        W31386  19.045  24.804   3.364 -0.0761  0.2202  0.2181
88371W        W31387  19.984   3.874  17.985  0.1053 -0.0000  0.2158
88372W        W31388  33.336   7.587   5.971 -0.3126 -0.0363 -0.1396
88373W        W31389   9.768   5.309   5.688  0.0179 -0.0881 -0.1348
88374W        W31390  17.192   4.708  19.092 -0.0053  0.0767  0.1098
88375W        W31391  17.377  13.338   4.013 -0.2041  0.0309 -0.0024
88376W        W31392  12.798   6.143  24.607 -0.4676  0.0156  0.0998
88377W        W31393  30.257   7.023  11.257 -0.1975  0.0630 -0.1654
88378W        W31394  32.968  23.734  26.216  0.1611 -0.1263  0.0161
88379W        W31395  20.158  22.475  16.719 -0.1952  0.2089 -0.0061
88380W        W31396  32.387  23.717  28.303 -0.0480  0.0869 -0.2539
88381W        W31397  21.753  26.931  16.226  0.1133 -0.0235 -0.1425
88382W        W31398  25.867   2.288  25.208 -0.1798  0.5225  0.0029
88383W        W31399  15.945  23.020  26.202  0.2226 -0.0803 -0.0723
88384W        W31400  29.690   9.318  27.666  0.0125  0.1910  0.1288
88385W        W31401  29.767   7.045   9.873  0.2025  0.1451  0.1080
88386W        W31402  23.512   2.428  25.539 -0.0535  0.1612  0.0630
88387W        W31403   7.289   9.913  18.059 -0.2829 -0.0132 -0.2504
88388W        W31404  26.357   0.948  28.865 -0.1297 -0.0107  0.3263
88389W        W31405  27.548  23.681  20.557 -0.2845 -0.0092 -0.0254
88390W        W31406  26.606  23.894  25.786 -0.1530 -0.0140 -0.1585
88391W        W31407  19.943  33.124  28.642  0.3421 -0.1774 -0.1163
88392W        W31408   2.733  10.811  15.814 -0.0276 -0.0162 -0.0262
88393W        W31409  12.750   1.434  20.145 -0.0156  0.0360  0.3571
88394W        W31410  30.882  10.597   6.036 -0.2399 -0.0517  0.3112
88395W        W31411   0.999  31.129  15.994  0.0631  0.1460 -0.0671
88396W        W31412  18.717  33.234  18.503  0.3327 -0.2388  0.2407
88397W        W31413  18.032  18.826  16.384 -0.1893  0.0772  0.4191
88398W        W31414  32.927  12.624   4.050 -0.2229 -0.2886  0.2226
88399W        W31415  14.506  30.926  16.558 -0.3198 -0.0212 -0.0869
88400W        W31416  12.524   1.654  20.678 -0.3920 -0.1103  0.1012
88401W        W31417  19.393   1.408  26.707 -0.4395  0.4605  0.0795
88402W        W31418  14.974   4.502  16.789  0.1876  0.0615  0.1870
88403W        W31419  19.337   8.478  21.912  0.0186 -0.1714 -0.2673
88404W        W31420  30.941  11.331  26.256  0.2292 -0.0031 -0.0704
88405W        W31421   8.392  10.771  16.346  0.1858  0.2697 -0.2256
88406W        W31422  18.146  31.281  26.534  0.2831  0.0032 -0.2409
88407W        W31423  17.805  13.798   5.222 -0.0506 -0.0529  0.0268
88408W        W31424  28.329  13.755  27.167 -0.2601  0.1727 -0.1684
88409W        W31425  19.832  12.220  23.404  0.2873 -0.1856 -0.1892
88410W        W31426   7.771  15.284  20.000  0.1895 -0.0732  0.0341
88411W        W31427  14.702  19.182  25.966 -0.0444  0.0642 -0.3479
88412W        W31428  18.552  12.100   8.594  0.3137  0.0409  0.0945
88413W        W31429  29.689  10.074  23.592 -0.3721 -0.0305 -0.0051
88414W        W31430  31.864  14.475  23.797  0.1635  0.2720  0.2252
88415W        W31431  24.380  21.946  15.767  0.0352 -0.1077  0.1364
88416W        W31432  22.329  18.017  23.237  0.0296 -0.0166  0.2819
88417W        W31433  18.040  13.829  14.730  0.0339 -0.3370  0.0959
88418W        W31434  25.335  29.558   5.683  0.1220 -0.0913  0.2768
88419W        W31435   4.060  31.548  20.065  0.2892 -0.0495  0.1476
88420W        W31436  13.581  23.900  27.293 -0.0356  0.1301 -0.0252
88421W        W31437  16.362  14.221  15.209 -0.0033 -0.1164  0.3552
88422W        W31438   6.746  20.422  27.067 -0.1314  0.2802  0.1635
88423W        W31439  32.821  14.465  19.703 -0.1286  0.3392 -0.2316
88424W        W31440  17.073  15.948   3.491  0.2745 -0.0624 -0.1588
88425W        W31441  19.489   9.301  13.275  0.1120  0.2090  0.3378
88426W        W31442  11.660   4.278  23.462 -0.3012  0.2974  0.3704
88427W        W31443  30.571  33.253  27.779  0.1007 -0.0219  0.1449
88428W        W31444  14.325  10.023   6.565  0.0507  0.0876 -0.0951
88429W        W31445  11.853  28.007  16.492  0.1372  0.1783  0.0321
88430W        W31446  16.543  13.546  16.554 -0.4671 -0.0181  0.4219
88431W        W31447  19.848  31.330  17.343 -0.2854 -0.1573 -0.3843
88432W        W31448  20.767   3.536  25.974 -0.2195  0.1249  0.0997
88433W        W31449  24.533  12.335  19.068  0.0283  0.0618 -0.0639
88434W        W31450  19.135   3.084  22.487  0.2532 -0.2680 -0.0187
88435W        W31451  31.801  16.635  15.980  0.0000  0.1985  0.0441
88436W        W31452  15.700   8.025  13.532 -0.3730  0.1491  0.1802
88437W        W31453  24.691  21.514  15.863 -0.0391 -0.1081  0.0644
88438W        W31454  20.064  13.969  23.849  0.0885  0.3504 -0.1370
88439W        W31455   5.225  17.499  21.826 -0.5383 -0.1773 -0.0814
88440W        W31456  23.395  18.505  15.534 -0.4478  0.0812 -0.0356
88441W        W31457  19.788   9.738  16.942  0.2580 -0.1381 -0.1404
88442W        W31458  18.183  24.577  15.617 -0.2086 -0.1805  0.2747
88443W        W31459  16.107  34.693  25.279 -0.1834 -0.0426 -0.2006
88444W        W31460  11.898  11.742  13.677  0.0669 -0.1050  0.2241
88445W        W31461   8.343  14.782  24.501  0.0487 -0.1477 -0.4258
88446W        W31462  32.266  28.896  16.306 -0.3617  0.2820 -0.3441
88447W        W31463  31.083   1.628   4.774  0.0528  0.0264 -0.1040
88448W        W31464  18.343  27.529  28.001  0.0260 -0.0262  0.1788
88449W        W31465  13.786  20.626  15.562 -0.0585  0.0418 -0.0053
88450W        W31466  10.713  15.100  13.197 -0.3285 -0.0469  0.1577
88451W        W31467  20.931  18.305  13.495 -0.0656  0.0291 -0.0606
88452W        W31468  15.582  29.112  22.342 -0.1213  0.1572  0.1752
88453W        W31469  12.792   8.748  18.576 -0.0208  0.0623  0.3624
88454W        W31470  15.869   7.824  20.828  0.1346 -0.1002 -0.0732
88455W        W31471  27.682   6.627  23.095  0.3936  0.2243 -0.0437
88456W        W31472   4.111  20.196  17.227 -0.4192 -0.3680 -0.0552
88457W        W31473  11.176  17.594   0.224  0.0443  0.1308 -0.2324
88458W        W31474  17.585  14.501  11.253  0.2753 -0.3073 -0.0844
88459W        W31475  15.122  18.017  21.650 -0.3193 -0.0576 -0.4547
88460W        W31476  10.927  12.576  27.988 -0.2050  0.0612 -0.0591
88461W        W31477  19.750   7.963  13.656  0.1889 -0.2253 -0.0615
88462W        W31478   5.046   9.469  26.815  0.2440 -0.0246  0.1133
88463W        W31479  23.284  28.058  17.294 -0.0087  0.1343  0.1996
88464W        W31480   5.481  19.216  23.287  0.2594  0.3598 -0.2423
88465W        W31481  21.503  21.135  19.795 -0.2465 -0.1374 -0.0566
88466W        W31482  20.185  23.589  21.471  0.0326 -0.0939  0.2559
88467W        W31483  18.157   6.800  25.193 -0.0896 -0.0381  0.2152
88468W        W31484  22.079  23.323  23.733 -0.2446 -0.0971 -0.2861
88469W        W31485  29.271   8.406  18.046  0.2836 -0.2533 -0.0661
88470W        W31486  28.170  29.280  19.757 -0.1525 -0.1847 -0.3228
88471W        W31487  31.380  26.123  21.734  0.0053 -0.0197  0.1110
88472W        W31488  24.689   6.567  20.041 -0.0562  0.3165  0.0996
88473W        W31489  30.975  14.423  15.968 -0.0772  0.3151 -0.0398
88474W        W31490  27.580  13.199  22.714  0.0257 -0.2873 -0.2094
88475W        W31491  23.592   2.132  19.772 -0.0856  0.2442  0.0827
88476W        W31492  15.543   8.535  25.552 -0.4033  0.0541  0.0261
88477W        W31493   0.491   0.065  19.514  0.0120 -0.1805  0.2648
88478W        W31494  29.216  29.193  25.240 -0.1586  0.0643  0.1828
88479W        W31495  23.295   7.830  26.819  0.1333 -0.0388 -0.0888
88480W        W31496  22.775  29.595  16.066  0.1712  0.2302 -0.2020
88481W        W31497  25.403  33.846  21.266 -0.0582  0.2044  0.0428
88482W        W31498  29.960  18.962  18.463  0.5113 -0.3079  0.1371
88483W        W31499  33.980  30.431  26.068  0.0977  0.1892  0.3457
88484W        W31500  18.884  31.774   1.838 -0.0237  0.1535  0.2896
88485W        W31501   6.699  17.455  17.547 -0.0677  0.0936  0.0820
88486W        W31502  12.897  25.835  17.694  0.1121 -0.1621 -0.1706
88487W        W31503  12.577   6.739  22.700 -0.0800 -0.1711  0.1853
88488W        W31504   9.100  16.026  26.548 -0.1854  0.0736  0.0442
88489W        W31505  16.336  34.697  20.448  0.1683 -0.0074  0.1415
88490W        W31506   3.695   8.169  19.017  0.4264  0.2867  0.3611
88491W        W31507   5.969   0.048  20.347  0.3248  0.0570  0.1091
88492W        W31508  31.845  10.019  23.808  0.1816  0.0551  0.0716
88493W        W31509  25.131   6.352  28.518 -0.2418 -0.1130 -0.2719
88494W        W31510  15.692  15.857  14.515  0.2605  0.1428 -0.1874
88495W        W31511  28.422  16.611  21.709  0.1540  0.4411  0.2300
88496W        W31512  24.304  14.724  14.498  0.4629  0.2008 -0.1379
88497W        W31513  22.018  22.600  16.576 -0.1071 -0.0236  0.0186
88498W        W31514  21.749  13.757   4.867 -0.0715 -0.2866  0.0123
88499W        W31515  16.063  18.463  27.649  0.0199 -0.0773  0.0260
88500W        W31516   5.680  11.885  14.659  0.0475  0.0558  0.0679
88501W        W31517  16.299  13.406  12.998 -0.0308 -0.1233 -0.3283
88502W        W31518  19.588  13.178   4.764  0.2543  0.0362  0.1216
88503W        W31519  20.359  16.557  12.370  0.1200  0.2719 -0.0046
88504W        W31520  15.786  12.964  21.785 -0.0612  0.3665  0.1683
88505W        W31521   1.466   8.836  25.126 -0.1249 -0.3824  0.1170
88506W        W31522  26.394  13.546  21.376  0.2960  0.0486 -0.2794
88507W        W31523  15.324  12.657  24.907  0.3076 -0.1743 -0.0537
88508W        W31524  15.275  23.941  20.711  0.1879 -0.1696 -0.2582
88509W        W31525  20.672  15.036  13.677 -0.4353 -0.0659  0.2497
88510W        W31526  14.071  19.774  11.396  0.1892  0.2044 -0.2627
88511W        W31527  22.503   5.594  14.771  0.0118 -0.0930  0.0380
88512W        W31528  19.873   9.135  28.497  0.1526 -0.1616  0.2289
88513W        W31529  14.484   6.884  17.534 -0.1684 -0.2003  0.0612
88514W        W31530  12.927   6.475  27.174  0.1106 -0.0992  0.0562
88515W        W31531  24.144   8.930  20.649  0.1876  0.2760  0.0637
88516W        W31532  31.812  22.501  19.042  0.0540  0.0651  0.0595
88517W        W31533  24.258  17.691  20.951  0.2247 -0.2614  0.1865
88518W        W31534  28.508  18.226  25.699  0.2076 -0.0546 -0.4844
88519W        W31535  11.967   0.562   0.182 -0.0279  0.3208 -0.2099
88520W        W31536  28.695  29.804  15.913  0.0856 -0.4449 -0.4369
88521W        W31537  26.227  27.392  28.752 -0.0256 -0.0377 -0.0247
88522W        W31538  16.085   9.630  14.533  0.0723 -0.2449  0.0490
88523W        W31539  12.435  12.358  24.787  0.2220 -0.1272 -0.0486
88524W        W31540   1.755  14.668  23.300 -0.0612 -0.2379 -0.0770
88525W        W31541   9.641   4.130  20.909 -0.2059 -0.0735  0.2581
88526W        W31542  24.471  22.499  14.675  0.1738  0.0500 -0.1861
88527W        W31543  31.830  22.282  15.977  0.1983  0.1294 -0.0744
88528W        W31544  13.265   0.068  28.007  0.0145 -0.0315  0.1032
88529W        W31545   2.765   9.859   4.687 -0.1118 -0.2075  0.3589
88530W        W31546  12.246  24.413   6.961 -0.3626 -0.0278  0.0744
88531W        W31547  11.658  17.237   0.300 -0.0460  0.0620  0.0221
88532W        W31548  33.422   3.722  10.013  0.2466 -0.0793 -0.0003
88533W        W31549   2.231  15.299  14.220 -0.1934 -0.3655 -0.0067
88534W        W31550  31.128  20.565  15.243  0.1250  0.1629 -0.2364
88535W        W31551  15.517  15.804  13.518  0.0061  0.1813  0.4959
88536W        W31552  15.050  21.362  21.304 -0.1458 -0.0978  0.0726
88537W        W31553  23.436  21.221  20.352 -0.1156 -0.3161  0.3627
88538W        W31554  15.636  16.780  14.518 -0.2993 -0.0901  0.0241
88539W        W31555  21.438  23.978  23.718  0.1694 -0.0528 -0.1909
88540W        W31556  11.858   6.162   2.099  0.3542  0.0985 -0.1728
88541W        W31557   5.431  20.889  21.020  0.0359  0.1648  0.1004
88542W        W31558  18.475   9.409  14.629  0.3643 -0.2063  0.1004
88543W        W31559  29.898   4.363  28.713  0.3852  0.0630 -0.0336
88544W        W31560  27.484  24.372  17.737  0.1026 -0.0382 -0.3350
88545W        W31561  28.429  17.749  24.877 -0.1700  0.1266  0.2811
88546W        W31562  27.966  17.929  18.869  0.1721  0.2979 -0.0476
88547W        W31563   7.502   8.625   2.323  0.4068 -0.0178  0.0974
88548W        W31564  24.680  11.841  23.735  0.0646  0.0705  0.1211
88549W        W31565  27.605  34.025  25.012 -0.2130  0.1259  0.0086
88550W        W31566  15.585  15.166  24.417  0.1383  0.2487 -0.2095
88551W        W31567  31.327  13.504  28.859 -0.0879 -0.1649  0.2106
88552W        W31568  31.540  15.119  25.437  0.3742 -0.2556  0.0154
88553W        W31569  12.934   9.460  20.686  0.3799 -0.0629 -0.1269
88554W        W31570   8.114  12.271  17.581 -0.0991  0.0295 -0.0121
88555W        W31571  14.833   9.984  20.699 -0.3031  0.0373 -0.0788
88556W        W31572  22.777  15.069  20.511 -0.0975  0.3137 -0.1630
88557W        W31573  33.478   5.239  18.133 -0.1866 -0.1389  0.0618
88558W        W31574   2.594   9.512  18.924 -0.2933  0.1354 -0.2928
88559W        W31575  25.174  17.605   2.233 -0.2327  0.3047  0.0706
88560W        W31576  17.299  16.920  26.993 -0.5319 -0.1411 -0.2787
88561W        W31577  26.494  13.675  29.154  0.0045 -0.1286 -0.3487
88562W        W31578   6.109   5.895  27.502  0.1694 -0.0989 -0.1527
88563W        W31579  18.412  29.495  18.597  0.0211  0.1440 -0.4051
88564W        W31580  31.862  12.085  22.075 -0.2020 -0.5068  0.1031
88565W        W31581  15.659  31.746  28.580 -0.1736 -0.4092  0.1344
88566W        W31582  12.951  21.645  15.661 -0.1844 -0.2453 -0.4419
88567W        W31583  21.466   7.613  20.429  0.0921 -0.0206 -0.1304
88568W        W31584  19.685  10.314  18.716 -0.0115  0.1208 -0.4189
88569W        W31585  24.898   4.538   2.142  0.1378  0.1832  0.2055
88570W        W31586  28.247   3.961  22.468 -0.0248 -0.1235 -0.1751
88571W        W31587  16.948   5.519  13.707 -0.3945  0.0783  0.0346
88572W        W31588   0.306  21.784  28.176  0.3211 -0.0343  0.1189
88573W        W31589  28.113   2.478   0.448  0.0415  0.2352 -0.0229
88574W        W31590   8.034  11.336  20.060  0.0832 -0.3537  0.0544
88575W        W31591  25.252   9.643  25.435 -0.0511  0.5998  0.0153
88576W        W31592  27.323  11.985  19.583 -0.2684 -0.2520  0.1971
88577W        W31593  21.108  13.726  27.015  0.2727  0.5173 -0.1642
88578W        W31594   8.812  28.987  16.916  0.0124 -0.0465 -0.2892
88579W        W31595  19.149  20.380  16.446 -0.0700 -0.1095  0.0160
88580W        W31596  25.101  12.563  19.928  0.3042  0.0814 -0.0428
88581W        W31597  21.481   1.086  19.245  0.0657 -0.0923 -0.1329
88582W        W31598  14.962  22.241  19.848 -0.1776  0.0033  0.1996
88583W        W31599  12.428   4.691  22.464  0.3436  0.3349  0.3517
88584W        W31600  24.661  15.803  16.450  0.2086  0.3360 -0.0634
88585W        W31601  29.016  33.008  26.506 -0.1573 -0.0875  0.1476
88586W        W31602   5.957   1.329  18.525  0.0533  0.3066  0.0294
88587W        W31603  28.064   1.806  29.264  0.0933  0.0049 -0.1427
88588W        W31604  23.527  17.879  25.685 -0.0608  0.1338 -0.3652
88589W        W31605  20.840  10.843   0.898  0.2424  0.0038  0.0206
88590W        W31606  21.239  11.479  17.934 -0.1409  0.0951 -0.3275
88591W        W31607  11.467   5.023  18.479  0.0774 -0.3069 -0.0547
88592W        W31608  26.354   5.129  26.384  0.0708 -0.1058  0.1156
88593W        W31609  25.135  27.174  16.740 -0.0678 -0.2081  0.0585
88594W        W31610  18.958   2.753  26.683  0.0762 -0.1755 -0.1276
88595W        W31611  13.244  33.313  18.652  0.1858 -0.2104 -0.2758
88596W        W31612   1.838  14.765  20.636 -0.2781 -0.0562 -0.0355
88597W        W31613   6.479   8.880  15.984  0.2166  0.1948 -0.2279
88598W        W31614  12.495  28.913  22.232  0.1317 -0.0366 -0.4423
88599W        W31615  18.838   8.036  13.889  0.0157 -0.0271  0.4564
88600W        W31616   2.262   8.531  21.762  0.4156 -0.3157  0.1078
88601W        W31617   1.329  26.588  14.369  0.0585 -0.1056  0.2530
88602W        W31618   9.226  16.748  24.532  0.1593  0.1938 -0.1521
88603W        W31619  13.147   6.127  25.670 -0.0997 -0.0306 -0.3502
88604W        W31620  27.824  11.382  27.179  0.4367 -0.6201  0.1790
88605W        W31621  26.829  17.048  23.715  0.1615 -0.0585  0.2379
88606W        W31622  23.368   4.571   0.608 -0.2165  0.0573  0.0402
88607W        W31623  26.254  10.878  19.491 -0.3113  0.3605  0.0707
88608W        W31624  18.074  17.604  14.718  0.0748 -0.1242 -0.2116
88609W        W31625  29.345  15.569  23.933  0.0219 -0.2050 -0.2721
88610W        W31626  23.717  14.801  20.116  0.1892  0.1689  0.1601
88611W        W31627   0.006   9.498  20.628 -0.0565  0.2115 -0.0703
88612W        W31628   8.957  21.613  13.213  0.3706 -0.1044 -0.0570
88613W        W31629  22.799  17.085  25.204  0.4027  0.0291 -0.2775
88614W        W31630   7.893   2.222  26.363  0.0474  0.1753  0.3267
88615W        W31631  32.602   7.002  17.352 -0.3935 -0.2549 -0.2849
88616W        W31632  10.452  13.100  12.792 -0.0390 -0.1250  0.1374
88617W        W31633  20.561   9.780  24.741  0.0982 -0.1413 -0.2231
88618W        W31634  27.060  16.377   5.340  0.1181 -0.3031 -0.1120
88619W        W31635  22.477   2.863  27.437  0.1157 -0.0959 -0.2167
88620W        W31636  25.642   9.606  25.759  0.0814 -0.1586  0.0503
88621W        W31637  16.069  13.285  13.492  0.1067  0.1021 -0.0936
88622W        W31638  30.517   8.466   2.531  0.1299 -0.1177  0.1323
88623W        W31639  27.440   6.221   4.937  0.0506  0.1402  0.0429
88624W        W31640  33.908  33.718  25.746  0.3017  0.2005 -0.1099
88625W        W31641   2.342  12.291   0.373  0.0200 -0.2908 -0.0555
88626W        W31642  20.097  12.289  21.935 -0.1591  0.0634 -0.0800
88627W        W31643  15.646  27.868  22.910 -0.3249 -0.3104  0.0113
88628W        W31644  23.165  29.209   3.957 -0.2235  0.1384  0.2600
88629W        W31645  34.342  13.436   0.632 -0.1140 -0.2664  0.0775
88630W        W31646  15.786  31.055  24.772  0.1307 -0.0429  0.0923
88631W        W31647  11.981   4.102  23.110  0.1171  0.0258  0.0296
88632W        W31648  19.352   8.288  18.784  0.0820  0.0612  0.0381
88633W        W31649  26.996  27.061  25.619  0.0606 -0.0532 -0.5145
88634W        W31650  24.068  31.963  28.998  0.0161 -0.0614 -0.0063
88635W        W31651  10.248  25.980  14.210  0.2588 -0.1304 -0.1861
88636W        W31652  24.837   7.511  15.606  0.0939  0.2273  0.0480
88637W        W31653  15.542  27.922  26.480 -0.3255  0.0651 -0.0731
88638W        W31654  19.991  28.532  21.770  0.1061  0.3067 -0.0652
88639W        W31655   9.355  10.716  14.878 -0.1248  0.0027  0.2530
88640W        W31656   0.074   7.816   6.970  0.3355  0.2249  0.0599
88641W        W31657   2.311  13.169   1.597  0.0187 -0.0630  0.2108
88642W        W31658  23.999  24.541  21.890  0.0473  0.0180 -0.1152
88643W        W31659  17.724  18.533   5.326 -0.0304 -0.0201  0.1728
88644W        W31660   1.039  15.309  27.772  0.0572  0.1625  0.5086
88645W        W31661  17.272   9.841  20.602  0.1576 -0.1622  0.2171
88646W        W31662  13.566   8.361  21.557  0.1544  0.2773  0.1800
88647W        W31663  30.438  14.210  15.405 -0.0405 -0.4060  0.1367
88648W        W31664  10.761   0.211  16.499  0.1046 -0.1707 -0.0448
88649W        W31665   6.328  15.106  13.831 -0.0600 -0.1385 -0.0723
88650W        W31666  27.245  13.197  19.440 -0.2391  0.0138 -0.0743
88651W        W31667  16.051  18.267  12.555  0.0699  0.1877 -0.3098
88652W        W31668  24.758  19.647  18.115 -0.2656 -0.2151 -0.0564
88653W        W31669  15.308  16.398  23.718 -0.2427 -0.0413 -0.2322
88654W        W31670  22.097   9.616   0.571  0.3112  0.3435  0.1782
88655W        W31671  24.600  31.034  18.811  0.1050  0.0911  0.0764
88656W        W31672  34.525  15.927  27.629 -0.1564  0.0019 -0.2733
88657W        W31673   7.725  26.009  16.042  0.0993 -0.2077  0.2192
88658W        W31674  24.527  21.416  16.993  0.0587 -0.0816  0.2577
88659W        W31675  23.230  16.726   2.187 -0.2585  0.2521  0.1542
88660W        W31676   9.790   6.062  17.842 -0.0936 -0.2719  0.1371
88661W        W31677  16.164  23.511  12.401 -0.0183 -0.0004 -0.0936
88662W        W31678  20.630  24.254   0.936 -0.1401 -0.2133 -0.0080
88663W        W31679  23.967  11.710  16.307  0.0990 -0.2148  0.0964
88664W        W31680  23.117  10.150  23.012  0.1736  0.1008  0.1300
88665W        W31681  21.517  21.947   2.562  0.2850 -0.1641 -0.0941
88666W        W31682  18.472   6.112  22.787 -0.0247 -0.2215 -0.0431
88667W        W31683  22.857  30.616   6.888  0.3362 -0.2467  0.0349
88668W        W31684   0.761  20.838  26.490  0.0364 -0.1037 -0.1204
88669W        W31685  24.902  14.298  15.498 -0.2231  0.1366  0.0031
88670W        W31686  14.892  24.390  27.454  0.0723  0.0993  0.1792
88671W        W31687  10.590  24.440  16.936 -0.1917 -0.3256 -0.3663
88672W        W31688  15.455  11.322  15.912 -0.1703  0.0623 -0.3216
88673W        W31689   9.267  17.193  17.309  0.1307 -0.0166  0.0648
88674W        W31690  31.880   9.605  20.277  0.0689  0.2259  0.1614
88675W        W31691   5.726   4.863   2.767  0.1642 -0.2447  0.1017
88676W        W31692  18.928  23.454   2.057 -0.0829 -0.0545  0.1238
88677W        W31693  16.724  11.772   2.736  0.0617  0.2455  0.0143
88678W        W31694  30.752   2.050  15.480  0.2061  0.1972  0.1705
88679W        W31695  18.457  30.011  25.530  0.2006  0.1936 -0.0382
88680W        W31696   7.737  10.451  15.473 -0.4645  0.3300 -0.0645
88681W        W31697  13.556  12.830  18.130 -0.0030  0.0943  0.2139
88682W        W31698  14.482  12.564  27.861  0.0994  0.1601  0.1394
88683W        W31699   9.228   2.081  18.471  0.2540 -0.0765  0.1087
88684W        W31700   4.783  15.579  26.109 -0.1487 -0.1004  0.1242
88685W        W31701  21.163  31.272   2.425 -0.0438 -0.0800 -0.0340
88686W        W31702   9.975  20.249  12.167 -0.0164  0.3821 -0.0056
88687W        W31703  26.446   5.125  24.740 -0.0672  0.1716  0.0698
88688W        W31704  31.225  11.510  26.809  0.1888 -0.0623 -0.3373
88689W        W31705  34.463   5.188  15.640  0.1799  0.3125  0.2035
88690W        W31706  13.165  20.109  12.708 -0.2175  0.0276  0.1451
88691W        W31707  34.090  22.982  14.402 -0.1665  0.0539 -0.0065
88692W        W31708  24.941  13.105   6.338 -0.1344  0.1727 -0.2483
88693W        W31709  19.234  28.703  23.655  0.0304 -0.2015 -0.0584
88694W        W31710   9.491   9.418  20.579  0.1064  0.1090 -0.2273
88695W        W31711  23.724  21.488  20.079 -0.1528 -0.2785 -0.0040
88696W        W31712   0.588  13.314  20.744 -0.0247  0.0038 -0.0338
88697W        W31713  23.916  22.008  24.639 -0.0860  0.4380 -0.0073
88698W        W31714   0.854  24.380  15.366 -0.1575  0.2835 -0.2067
88699W        W31715  14.673   7.023  21.526 -0.4028  0.1242 -0.0770
88700W        W31716  19.382  16.473  23.069 -0.0245 -0.3327  0.1823
88701W        W31717  14.534   4.140   3.352  0.2580 -0.3197 -0.4004
88702W        W31718  31.884  19.815   8.713  0.1588 -0.0561 -0.0784
88703W        W31719  17.171   2.876  27.277 -0.0146 -0.2041 -0.1637
88704W        W31720  15.534  19.359  20.972 -0.0608  0.2572  0.1645
88705W        W31721  28.685  13.158   7.199 -0.0425 -0.0457 -0.0882
88706W        W31722  24.169  19.111  22.717 -0.3210 -0.0593 -0.2087
88707W        W31723  19.180  11.902  14.158  0.1691 -0.1726  0.1368
88708W        W31724  17.872   6.267  15.285  0.0164 -0.1740  0.0834
88709W        W31725  21.119  19.982   6.862 -0.2488  0.0514  0.1657
88710W        W31726  27.514  19.354  22.377  0.1345 -0.2685 -0.0503
88711W        W31727  14.915  22.460  24.833 -0.0137 -0.1286 -0.0671
88712W        W31728   3.844  11.112  10.321 -0.3092 -0.0334  0.0751
88713W        W31729  22.110  12.670  13.709  0.0765 -0.0302  0.3040
88714W        W31730   6.268   9.977   5.856 -0.1629  0.1669  0.0349
88715W        W31731  26.070  22.660  28.424 -0.1608  0.1814 -0.0473
88716W        W31732  10.732   0.633  20.784 -0.2648  0.0047  0.1795
88717W        W31733  16.907   4.891  28.234  0.0788 -0.0353 -0.5952
88718W        W31734  22.105  12.622   4.740 -0.0190  0.1698 -0.0282
88719W        W31735  22.161   8.692  16.555 -0.0524 -0.1535 -0.1271
88720W        W31736  18.997  33.917  20.313  0.1861 -0.3551 -0.1768
88721W        W31737  26.659  16.140  17.003  0.1856 -0.1029  0.1102
88722W        W31738  33.313  18.576  21.331  0.0317 -0.1241  0.0004
88723W        W31739  24.524  29.974  11.354 -0.0547  0.1716  0.1437
88724W        W31740  12.279   7.247  15.684 -0.0817  0.0868  0.0432
88725W        W31741  27.080   4.319  18.569  0.0944  0.0907 -0.1941
88726W        W31742  31.776   4.588   5.183 -0.2819 -0.2444  0.0751
88727W        W31743   1.358  19.877  18.042 -0.0599  0.2077  0.0832
88728W        W31744  32.762  21.825   0.879  0.4215 -0.2008  0.0133
88729W        W31745  19.672   5.160   8.029  0.0553 -0.0791  0.4518
88730W        W31746  12.086   9.341  27.603  0.0091  0.0542 -0.0836
88731W        W31747  19.332  21.691  16.461 -0.0524  0.1160  0.2910
88732W        W31748  26.946  16.762  16.436 -0.0924 -0.0960 -0.1996
88733W        W31749  23.015  29.941  18.912  0.1398  0.1709  0.0219
88734W        W31750   5.216  10.382   8.020  0.2404  0.1722 -0.0533
88735W        W31751   0.299  22.873  16.482 -0.0478  0.1756 -0.1769
88736W        W31752  11.731  22.188   4.372  0.2531  0.4098 -0.0561
88737W        W31753  34.121  29.393   5.016 -0.1282  0.2639 -0.0008
88738W        W31754  34.029   5.877   5.693 -0.1489  0.0278  0.2709
88739W        W31755  19.750   9.236  13.907 -0.2073  0.1873  0.2630
88740W        W31756  13.317   4.415   1.808  0.0921  0.2271  0.1476
88741W        W31757   7.714  11.501  24.891  0.0953 -0.2744 -0.1519
88742W        W31758  22.488   0.859  14.904 -0.1160  0.2576  0.1594
88743W        W31759  22.923  17.172  16.225 -0.0873 -0.1589 -0.3303
88744W        W31760  34.244  32.086  21.739  0.0500  0.3610  0.0984
88745W        W31761  20.623  18.211   1.559 -0.3582  0.1475  0.4527
88746W        W31762  26.945   9.612  24.039  0.1291  0.0126 -0.3373
88747W        W31763  16.744  16.749  16.036 -0.1624  0.0328 -0.1156
88748W        W31764  14.724   8.574   7.689  0.0068  0.0824  0.0016
88749W        W31765   3.186  15.570  28.186 -0.0776  0.1289  0.0365
88750W        W31766  11.867   5.261   5.684  0.2840 -0.0409  0.0571
88751W        W31767  32.236   8.402  16.391 -0.1400  0.1327 -0.0966
88752W        W31768  32.033   0.605   3.800 -0.0838  0.3330 -0.0305
88753W        W31769  12.186   8.512   2.775  0.1307 -0.0127 -0.2940
88754W        W31770  15.548  32.090  24.532 -0.1071 -0.0543 -0.1111
88755W        W31771  17.596  34.498  28.414  0.1828 -0.2148 -0.3426
88756W        W31772   1.059  24.076  26.570 -0.0193 -0.1605  0.0490
88757W        W31773  18.561   4.619  23.103 -0.0324  0.3132  0.1109
88758W        W31774  14.797  25.545   4.994 -0.0894 -0.0918 -0.1812
88759W        W31775  14.607  19.705  15.870  0.2226 -0.0941  0.0437
88760W        W31776  17.167  13.907  28.428 -0.3003 -0.0365 -0.1952
88761W        W31777  16.141   4.363   3.916  0.0144  0.1980  0.2747
88762W        W31778   3.083  22.699  27.358  0.1788 -0.0259 -0.6196
88763W        W31779  22.260  26.462  28.630 -0.1152 -0.0381  0.1558
88764W        W31780  10.992  22.844  23.470  0.0575 -0.0480  0.0990
88765W        W31781  27.698  14.670  23.606  0.0286 -0.1231  0.0415
88766W        W31782  21.648  21.771  21.368 -0.1826 -0.1263  0.3170
88767W        W31783   5.298  16.925   3.729  0.0254 -0.2416  0.1951
88768W        W31784   3.521  19.883   6.376 -0.0535  0.1142  0.1706
88769W        W31785  27.438  28.417  20.992  0.2124 -0.1411 -0.5178
88770W        W31786  18.384  30.706  20.660  0.0860  0.2792 -0.0967
88771W        W31787  23.290  11.288   6.962 -0.2474  0.0393  0.0018
88772W        W31788  27.123  25.882  10.080 -0.2580  0.4249 -0.0932
88773W        W31789  22.953   1.971  20.677  0.2375  0.0078  0.1993
88774W        W31790  32.569   0.277  15.835 -0.1267  0.2196  0.3362
88775W        W31791  26.560  23.727   2.424 -0.1368  0.2007 -0.0781
88776W        W31792  17.147   7.589  12.989  0.1258 -0.5861 -0.1203
88777W        W31793  12.535  14.321  28.140  0.1346 -0.2037 -0.0177
88778W        W31794  25.950  15.145  19.395  0.0969 -0.0434 -0.3250
88779W        W31795  28.247  27.638   1.378  0.1120  0.0053 -0.3488
88780W        W31796  19.687  12.115  20.990 -0.1245 -0.1838 -0.0922
88781W        W31797   2.933   3.488   5.525  0.1488  0.0682 -0.0029
88782W        W31798  34.690  20.399  28.277 -0.2815  0.1391  0.1170
88783W        W31799   0.849   9.237  22.561  0.1440 -0.1209  0.0044
88784W        W31800  14.949  15.877   2.706 -0.0217 -0.0280 -0.0651
88785W        W31801  23.432  11.856  18.114 -0.0126 -0.1853  0.1061
88786W        W31802   2.862  15.658  20.751 -0.0547  0.2307  0.0980
88787W        W31803  30.019   7.494   2.569 -0.0605 -0.0753 -0.3142
88788W        W31804  30.685   9.504   9.027  0.2281 -0.4044  0.3682
88789W        W31805  10.586  11.473  24.307  0.1079  0.0594  0.1674
88790W        W31806  25.266  17.961   3.645 -0.3046 -0.3933  0.1772
88791W        W31807  20.907  31.978  19.900  0.0955  0.0143  0.1093
88792W        W31808  20.343   2.972  16.349  0.0672 -0.0936  0.0769
88793W        W31809  27.411   2.039  10.500 -0.1216  0.0490 -0.0952
88794W        W31810  27.478  25.656   2.656  0.0154  0.4587 -0.4474
88795W        W31811  24.721   9.034   4.622  0.1579 -0.2930  0.0948
88796W        W31812  31.420  11.870   4.743  0.0804  0.0342  0.2513
88797W        W31813  30.743  15.370   1.941  0.0117 -0.1627 -0.1807
88798W        W31814   5.784  25.457   6.204  0.0465 -0.1070  0.4251
88799W        W31815   2.537  10.343  18.526  0.0339  0.3406  0.1734
88800W        W31816  17.131  15.385  12.940  0.0650  0.0364  0.4087
88801W        W31817  12.758  29.823   3.200 -0.0762  0.3248  0.1296
88802W        W31818  21.894  21.291  25.749  0.1393  0.2559 -0.1852
88803W        W31819  22.581  10.298   6.008  0.2735 -0.0464  0.0020
88804W        W31820  25.327  25.462  29.062  0.1155 -0.1434 -0.1220
88805W        W31821  12.563   6.510  27.795 -0.0309  0.1630  0.2030
88806W        W31822  19.557   9.173  24.629 -0.2115  0.1821 -0.2254
88807W        W31823  21.671  12.601  15.479  0.0204 -0.2069  0.2816
88808W        W31824  19.900  14.753  23.055 -0.1995  0.2568  0.0437
88809W        W31825  24.662  11.460   3.460 -0.1485 -0.2416  0.1490
88810W        W31826  17.839   0.181  28.244 -0.2809  0.1246 -0.1293
88811W        W31827  29.873   6.610  10.186 -0.0652  0.0042 -0.4229
88812W        W31828  16.478  12.972  19.760 -0.3079 -0.0405 -0.0461
88813W        W31829   5.151  10.685  18.075  0.2321 -0.0805  0.0580
88814W        W31830  24.768  31.708  21.564 -0.1865  0.0931 -0.1596
88815W        W31831  23.246  25.827  24.897  0.0505 -0.0895 -0.0764
88816W        W31832  13.209  26.838   2.702 -0.3433 -0.0107 -0.0719
88817W        W31833  33.252   6.389  25.602 -0.0241  0.0487 -0.3579
88818W        W31834  22.376  20.465  16.102  0.2951 -0.0883 -0.1331
88819W        W31835  17.773   4.925  27.063  0.1627  0.1472 -0.2175
88820W        W31836  18.398   6.646  24.358  0.0946  0.0272  0.0783
88821W        W31837  23.017   7.811   9.942  0.0775 -0.0819 -0.0361
88822W        W31838  17.501  12.094  15.699 -0.1099  0.0441  0.2279
88823W        W31839  28.373   0.595  16.537 -0.0579  0.0562  0.0930
88824W        W31840  24.302  17.565   0.404 -0.0490 -0.0645  0.2320
88825W        W31841  33.614  22.243  20.962  0.2808 -0.0507 -0.2921
88826W        W31842  27.174  17.074  17.246  0.4732  0.1753 -0.2642
88827W        W31843  32.164  15.695  26.737  0.0269 -0.2297 -0.0462
88828W        W31844  21.452   0.225  23.476 -0.2059  0.1919 -0.1690
88829W        W31845  26.650  11.674  24.140 -0.2301 -0.2402  0.3095
88830W        W31846  24.348   6.849   4.808 -0.0026  0.0249 -0.1411
88831W        W31847  26.026   4.661  26.730  0.4404  0.0125 -0.2015
88832W        W31848  19.856  14.147  16.092  0.2797  0.0931 -0.2095
88833W        W31849   5.918  32.486  28.830  0.1608 -0.2580 -0.0981
88834W        W31850  26.596  28.173  27.709 -0.1390  0.2344  0.2120
88835W        W31851  11.299  16.706   3.106 -0.0596 -0.1143 -0.0537
88836W        W31852  24.070  11.914  19.275 -0.0138  0.1899  0.0485
88837W        W31853  13.627  21.938  14.245 -0.0820 -0.2569 -0.1108
88838W        W31854   0.184   6.504  22.526  0.0409 -0.1632 -0.0423
88839W        W31855  14.816   6.110  24.575  0.0890  0.2854  0.1169
88840W        W31856  27.504  12.638  21.600  0.0864  0.0856  0.3689
88841W        W31857  17.552   3.184  25.772 -0.1652  0.0117  0.1350
88842W        W31858  17.184   5.653  27.898  0.1547  0.2250  0.2331
88843W        W31859  22.678  13.265  26.628  0.5210  0.0695  0.1359
88844W        W31860  29.271  13.801  26.760 -0.3624  0.1651 -0.0270
88845W        W31861  23.320   5.911  27.656 -0.1052 -0.4509  0.0999
88846W        W31862   5.028   3.760  14.868 -0.1837 -0.0335  0.0511
88847W        W31863  12.405  30.522  19.210 -0.2347 -0.4250  0.1193
88848W        W31864  27.763  17.620   7.069  0.2636  0.1654 -0.1600
88849W        W31865  26.542  14.445  14.571  0.2481  0.1741  0.1191
88850W        W31866  14.577   0.981  23.461  0.2343 -0.2060  0.2204
88851W        W31867  26.692  25.418  28.721 -0.1120 -0.2139  0.0136
88852W        W31868  22.740  11.077  24.058 -0.2538  0.1570  0.2871
88853W        W31869  25.931   8.984   3.321 -0.0727 -0.0372  0.0594
88854W        W31870  18.366  29.855   6.545  0.0526  0.2212  0.2804
88855W        W31871   3.811  32.528  27.709 -0.3918  0.0714  0.1421
88856W        W31872   7.407   2.543  20.088 -0.0397  0.1048  0.1628
88857W        W31873  12.583  11.401   3.107  0.4782 -0.1432  0.0254
88858W        W31874  19.166  34.778  18.067 -0.0328 -0.4599 -0.3310
88859W        W31875   3.228   1.664   3.469  0.2004  0.0308 -0.1018
88860W        W31876  23.689   1.912  23.404  0.1251  0.2368 -0.3906
88861W        W31877  21.532  20.150  15.510 -0.0644 -0.2326  0.1376
88862W        W31878  16.882  16.568  26.859 -0.2638  0.0774 -0.1442
88863W        W31879  18.654  13.681  21.641 -0.2323 -0.2032  0.1955
88864W        W31880  16.712   2.501  17.600  0.0401 -0.0105  0.2674
88865W        W31881   0.127   6.656  14.584 -0.1517  0.1040  0.3122
88866W        W31882  28.529   8.056  25.966  0.0146 -0.0727  0.0101
88867W        W31883  23.585   7.443   4.893 -0.0587 -0.0003  0.0385
88868W        W31884  22.059   3.736  14.808  0.1267 -0.0117 -0.0915
88869W        W31885  22.274  19.048  22.348  0.3629 -0.4058 -0.0761
88870W        W31886  25.282  10.395  20.403 -0.1526  0.1640  0.1363
88871W        W31887  11.946  34.488  23.033  0.4228  0.0596 -0.0636
88872W        W31888  22.824  16.632  19.717  0.2221 -0.3280 -0.2384
88873W        W31889  18.819   7.633   2.015 -0.0484 -0.4444  0.3369
88874W        W31890  23.294  34.626   7.772 -0.0425 -0.2470 -0.3172
88875W        W31891  22.546  14.937   1.154 -0.0951 -0.1903  0.0378
88876W        W31892   4.801  19.584   8.900  0.3777  0.3028 -0.1349
88877W        W31893  15.195  30.340  17.843  0.1558  0.3212 -0.1763
88878W        W31894  26.807  12.619  17.347 -0.0231 -0.3554 -0.0242
88879W        W31895   0.056  10.737   9.375 -0.2201  0.1157 -0.4080
88880W        W31896  21.633  12.340  18.873 -0.0879  0.0644 -0.0371
88881W        W31897  31.076  23.844  10.184 -0.1502 -0.1509  0.0200
88882W        W31898  27.561  23.673  25.616 -0.0790  0.0541 -0.3516
88883W        W31899   5.999   2.813   6.024 -0.1171  0.0940 -0.2985
88884W        W31900  23.282   7.159   5.201 -0.1247  0.1700  0.3139
88885W        W31901  10.554   6.264   5.415 -0.0259  0.1756  0.3033
88886W        W31902  26.585   4.964  20.400  0.0587 -0.1750 -0.2150
88887W        W31903  26.962  11.357  20.520 -0.1467 -0.2011 -0.0561
88888W        W31904  15.031   2.859  14.831  0.0927 -0.2935  0.1283
88889W        W31905   9.217  13.622  18.580  0.0595 -0.1092 -0.0211
88890W        W31906   4.204  14.962  19.627 -0.0453  0.2409  0.0572
88891W        W31907  24.249  11.811  28.442 -0.0202  0.1438 -0.0162
88892W        W31908  20.161   7.059  15.933 -0.0046 -0.1550  0.0384
88893W        W31909   6.479  26.056   9.171  0.1070  0.0016  0.0946
88894W        W31910  19.963  20.650   0.349 -0.0944 -0.0067 -0.2914
88895W        W31911  13.932  17.145  11.608  0.0508  0.2001 -0.0685
88896W        W31912  24.877  34.520  17.828  0.1183  0.1836 -0.0689
88897W        W31913  11.539   3.507   1.670 -0.1770 -0.2376  0.0594
88898W        W31914  13.690  12.465  22.306 -0.2857  0.1704  0.2990
88899W        W31915  31.465  28.347  27.049 -0.0325 -0.2438 -0.2823
88900W        W31916  26.390  10.913  15.448 -0.3697 -0.0418  0.0852
88901W        W31917  14.969   5.578  17.628  0.1026  0.1097  0.2837
88902W        W31918  28.849   9.795   6.325  0.2078 -0.2064 -0.1235
88903W        W31919  25.756  13.443  27.594  0.0486  0.1290 -0.1457
88904W        W31920  13.240  25.321   5.664 -0.0779  0.2597  0.0592
88905W        W31921  17.367   4.106  17.855  0.1021  0.0118  0.2502
88906W        W31922  16.007  28.174  18.941  0.0866  0.1642 -0.2522
88907W        W31923  19.748   5.624  23.701 -0.1501 -0.1793 -0.1288
88908W        W31924  32.327  14.719  17.967  0.2032  0.2337 -0.0806
88909W        W31925  23.317  16.884  16.519  0.1256 -0.0321  0.1681
88910W        W31926  25.898   2.602  25.628 -0.0345 -0.2097 -0.0074
88911W        W31927  31.756  17.154   2.442 -0.0340  0.0576  0.0635
88912W        W31928  19.978  12.386  27.208  0.2220 -0.1285 -0.0422
88913W        W31929   7.001  17.627  20.802  0.1515 -0.0144 -0.0892
88914W        W31930   5.356  28.673  22.328  0.3547  0.0401  0.2281
88915W        W31931   1.921   9.944   4.815  0.2621  0.3557 -0.4964
88916W        W31932   9.955   6.788  15.416  0.2938 -0.1048 -0.3384
88917W        W31933  16.625  17.483  17.327 -0.0196 -0.3702  0.1190
88918W        W31934  23.120  15.856  17.078  0.0556  0.2039  0.0288
88919W        W31935   4.151   4.373   2.870 -0.1527 -0.1088 -0.3152
88920W        W31936  22.423  18.787  27.473 -0.2849  0.1985  0.0452
88921W        W31937  10.073  23.890   6.281 -0.2406  0.2504 -0.2307
88922W        W31938  28.733  18.458   6.388  0.3280  0.3442  0.0346
88923W        W31939  27.230  17.705  26.088  0.3700  0.0635 -0.0026
88924W        W31940  17.669  13.901   1.547 -0.0308 -0.0199 -0.1580
88925W        W31941  10.006  25.576   2.131  0.1120 -0.1233 -0.2109
88926W        W31942  20.941  11.911  25.974  0.0438  0.2711 -0.0802
88927W        W31943  24.172  16.564   2.091  0.5479  0.3907  0.0763
88928W        W31944  23.467  14.070   2.820  0.1202 -0.0300  0.1815
88929W        W31945  19.385   5.736   9.503  0.1102 -0.0562  0.3429
88930W        W31946  18.517   6.222   5.753 -0.0236 -0.0975 -0.0474
88931W        W31947  28.629  27.878   2.211  0.1338 -0.1157 -0.1538
88932W        W31948   8.053  16.352   2.062  0.4266  0.1790 -0.0882
88933W        W31949  29.095   8.409   0.884  0.1114 -0.4030  0.2674
88934W        W31950  23.108  12.793  14.362  0.1244 -0.1384  0.3721
88935W        W31951  16.364  27.400   4.052 -0.0560 -0.4937  0.2067
88936W        W31952  33.922  10.744  14.961  0.0237  0.0094  0.1998
88937W        W31953  27.951  21.719  27.409 -0.0889  0.1723 -0.0130
88938W        W31954  17.383  13.269  23.128  0.1282  0.1211  0.2481
88939W        W31955  27.605  20.663  24.847 -0.0064 -0.2143 -0.0695
88940W        W31956  17.352  11.805  12.921  0.1919  0.0383 -0.1009
88941W        W31957  27.446  33.529  17.037 -0.1191 -0.0417  0.0619
88942W        W31958   5.328   1.384  19.262 -0.1304 -0.2455  0.2964
88943W        W31959  23.572  27.691  20.641  0.0828  0.0529  0.0814
88944W        W31960   1.947   6.191   0.643 -0.1580 -0.0485 -0.2301
88945W        W31961  15.848  20.373  27.959  0.0389  0.0950  0.0656
88946W        W31962   9.468  27.916   0.004 -0.2354 -0.0904  0.1491
88947W        W31963  26.982  32.779   4.665 -0.1142 -0.0452  0.1129
88948W        W31964  28.567   5.679   5.189  0.2687  0.1274  0.0376
88949W        W31965  21.163   7.177  14.353 -0.4167 -0.0337  0.1488
88950W        W31966  11.466  17.358  20.671  0.0339  0.2916  0.1915
88951W        W31967   3.553   8.797   9.025 -0.2125 -0.1817  0.1186
88952W        W31968  28.351  12.955   0.383 -0.0406  0.4441  0.1347
88953W        W31969  12.125  23.409  28.237 -0.1960  0.1861 -0.1660
88954W        W31970  22.190   7.998   8.107 -0.0823 -0.0753  0.2822
88955W        W31971  17.955  10.533  28.870 -0.0410  0.1527  0.2454
88956W        W31972  11.835   9.231  15.278 -0.2357  0.4844 -0.1579
88957W        W31973  22.117  13.766  24.728 -0.1794 -0.1167  0.0273
88958W        W31974  17.103   0.570  28.062  0.0936  0.0956 -0.2794
88959W        W31975  29.418  11.005   8.236  0.0876  0.0127 -0.0357
88960W        W31976  24.661  24.766  24.917 -0.0128 -0.0290 -0.1871
88961W        W31977  22.033  23.676  13.977  0.2430 -0.2196 -0.0875
88962W        W31978  25.030  11.716  20.404  0.0584  0.3178  0.0298
88963W        W31979  19.082   8.796  16.562 -0.1878 -0.2600  0.1264
88964W        W31980   2.953   3.226   1.712  0.1706  0.3282 -0.1518
88965W        W31981   5.689  23.057  20.357  0.0096 -0.2630 -0.0801
88966W        W31982  11.892   3.918   9.184  0.1080 -0.2477  0.0103
88967W        W31983  22.760   5.323  24.312  0.0279 -0.1910 -0.6157
88968W        W31984  15.033  17.245  19.625  0.0799 -0.0491  0.0695
88969W        W31985  18.923   6.258  16.531 -0.0929 -0.0705  0.1194
88970W        W31986  27.243  18.638  10.081 -0.0192  0.0158 -0.0815
88971W        W31987  25.559  18.309  23.232 -0.3626  0.0898 -0.2403
88972W        W31988  21.884  11.124  22.304  0.0088  0.0086  0.0769
88973W        W31989  23.766  26.697  24.790 -0.0084  0.1789  0.0502
88974W        W31990  18.282   5.339  28.786  0.0151  0.0148  0.1043
88975W        W31991  21.561   5.922  14.901 -0.0996 -0.1262 -0.0938
88976W        W31992  29.430   8.799  28.052  0.1117  0.1780  0.1683
88977W        W31993  25.236   5.806  16.191  0.0625 -0.1124 -0.1041
88978W        W31994  19.931   7.925  17.095  0.0347  0.0948  0.1371
88979W        W31995   2.732   5.418  19.931 -0.1384 -0.0860  0.1166
88980W        W31996   3.450  11.088  18.946  0.1735 -0.0939 -0.1209
88981W        W31997  10.639  16.381   2.268 -0.0321 -0.1086  0.2568
88982W        W31998  17.045   3.935   3.252  0.2989  0.2822 -0.1718
88983W        W31999  27.361  25.046   2.662  0.1093 -0.1068 -0.2017
88984W        W32000  34.082   2.479  26.923 -0.0538  0.3577  0.0509
88985W        W32001  24.197   1.679   2.631  0.1911 -0.0405  0.1969
88986W        W32002  31.519   2.721  20.148  0.0453 -0.0827  0.0526
88987W        W32003  29.264   9.987   0.862  0.1967 -0.6420  0.1221
88988W        W32004  14.122  24.235  16.429  0.0719 -0.0184 -0.0083
88989W        W32005  18.206  18.256   6.724  0.2002  0.0265 -0.2452
88990W        W32006  30.360  20.902  22.216  0.1124 -0.3477  0.0486
88991W        W32007  31.174  25.210   3.735 -0.0640  0.1136 -0.1822
88992W        W32008  16.009  11.775  27.106  0.1037 -0.1112 -0.2014
88993W        W32009  29.864  23.621   2.516  0.0564  0.4353  0.4059
88994W        W32010  24.653  33.168   4.902  0.0454 -0.3380 -0.2062
88995W        W32011  10.036  33.991   7.370 -0.2098 -0.1574  0.1739
88996W        W32012  34.285   7.861  28.408 -0.0180  0.2088  0.0506
88997W        W32013  24.762  13.656   9.539 -0.0807 -0.2120 -0.0253
88998W        W32014  28.562   8.616  10.600  0.4285  0.0298  0.3940
88999W        W32015  22.366   9.050   6.459 -0.0368  0.1679 -0.0928
89000W        W32016  22.294  30.019  26.834 -0.0324 -0.0084 -0.2040
89001W        W32017  22.119  15.158  24.126  0.1124 -0.2401 -0.0612
89002W        W32018  22.079   7.659  21.281  0.0267 -0.2182 -0.0191
89003W        W32019  21.276  28.194  24.478 -0.0896 -0.0326 -0.0018
89004W        W32020  25.503  21.217  15.859 -0.0460 -0.0472  0.4910
89005W        W32021  20.906   2.775  24.413 -0.0983  0.0454  0.1870
89006W        W32022   5.616   9.316   7.546  0.1787  0.0966 -0.0770
89007W        W32023  30.995   2.415   7.448 -0.0813  0.0592  0.2411
89008W        W32024  14.135  11.915  17.756 -0.2437  0.1972 -0.3125
89009W        W32025  12.807   7.905  13.723 -0.1134  0.0702  0.0890
89010W        W32026  16.178  15.238  12.475 -0.0355 -0.0928 -0.1003
89011W        W32027   3.524   8.054  16.322 -0.0715 -0.3766  0.0875
89012W        W32028  23.729  14.733   8.682  0.1763  0.1368 -0.1869
89013W        W32029  15.380   6.500  18.743  0.2406 -0.1052  0.1073
89014W        W32030  22.907  23.572  18.422  0.3982  0.0810  0.0832
89015W        W32031  25.432  13.851  22.497  0.2072  0.0731 -0.0798
89016W        W32032  23.390   8.635  29.159 -0.1202  0.0831 -0.3153
89017W        W32033   5.454  17.542  21.384  0.0877 -0.2373 -0.5862
89018W        W32034  19.915  29.864  18.656 -0.0022  0.1823  0.1212
89019W        W32035  27.031   5.318  25.759  0.1896 -0.2472  0.2540
89020W        W32036  23.570  21.091   4.011 -0.0740 -0.1300 -0.2501
89021W        W32037   2.554  15.991  22.704 -0.0483 -0.0613  0.2656
89022W        W32038  17.058  33.827   2.092  0.3549  0.0498  0.0288
89023W        W32039  20.938  12.345   1.293 -0.1960 -0.2584  0.2120
89024W        W32040   8.891   1.379  17.868 -0.3528 -0.0170 -0.2311
89025W        W32041  15.267   9.413  14.784  0.1834  0.1119 -0.1292
89026W        W32042  27.077  11.919  28.805  0.0758  0.1076 -0.1794
89027W        W32043  12.157  20.966  22.863  0.3456  0.4627 -0.2472
89028W        W32044  25.909  28.029   5.497 -0.0016  0.1615 -0.1261
89029W        W32045  30.369  10.337  27.646  0.0140 -0.0021  0.1406
89030W        W32046   6.883  23.158  20.167  0.3529 -0.0757 -0.1577
89031W        W32047  24.878  33.506  21.119 -0.1882 -0.1885 -0.1121
89032W        W32048  24.004  11.848  21.651 -0.0281 -0.1889 -0.0812
89033W        W32049  22.888  15.120  13.996  0.0525 -0.0357 -0.1966
89034W        W32050  20.936  33.168  21.904 -0.0391 -0.0469  0.2223
89035W        W32051  30.326  10.208  28.872 -0.1076 -0.1663  0.0268
89036W        W32052  32.183  20.803  25.970 -0.0006  0.0054  0.0034
89037W        W32053  12.588  16.713  27.587  0.0983  0.4775  0.2333
89038W        W32054   2.048  17.986  16.980  0.0743  0.2304  0.0225
89039W        W32055  15.572  13.208  26.982 -0.0966  0.0832  0.0131
89040W        W32056  23.705   3.311   8.632 -0.1128  0.2212 -0.1788
89041W        W32057  29.544   8.266   5.877  0.3686 -0.0193  0.3841
89042W        W32058   0.890  10.457  25.973 -0.0185 -0.3370 -0.2052
89043W        W32059  27.532  11.016  17.967 -0.0703 -0.0991 -0.4098
89044W        W32060  24.170  11.879  26.537 -0.0179 -0.0781  0.0972
89045W        W32061  22.049  10.044  28.166 -0.1378 -0.1017 -0.1017
89046W        W32062  13.856   9.942  28.900 -0.0422 -0.1156 -0.0089
89047W        W32063  32.500   2.226   1.507 -0.1052  0.0170 -0.0242
89048W        W32064  25.490  27.490  17.023  0.0764 -0.2734 -0.1757
89049W        W32065  30.379  33.343   4.513  0.0562 -0.0151  0.0406
89050W        W32066  10.848  11.393   3.560  0.0700 -0.0761 -0.1408
89051W        W32067  11.752  12.804  20.908  0.1396  0.0771  0.0354
89052W        W32068  27.675  22.826  22.487  0.2327 -0.0629 -0.2104
89053W        W32069  16.777  13.855  24.963 -0.1812 -0.1802 -0.0423
89054W        W32070  10.295  16.414  13.823 -0.0235 -0.2022 -0.3842
89055W        W32071  16.235  19.513   3.274 -0.2011 -0.0559  0.2172
89056W        W32072   2.973  29.557   3.503 -0.0118 -0.0928 -0.3067
89057W        W32073  22.687   1.004   8.470 -0.3177 -0.1724  0.0687
89058W        W32074  27.633  11.819  15.404 -0.1416 -0.0925 -0.0276
89059W        W32075  20.555   6.263   5.131  0.2059  0.1719 -0.0389
89060W        W32076  14.020  15.347  22.975  0.0956 -0.0813  0.3241
89061W        W32077  10.639  19.721  16.227  0.1718 -0.1127  0.2309
89062W        W32078  16.794  12.301  18.764  0.0003 -0.3179  0.1947
89063W        W32079  18.310  15.129  22.332  0.0095 -0.2994  0.2501
89064W        W32080  20.308   8.681  21.434  0.2497  0.0300 -0.0452
89065W        W32081  15.139  34.616  23.134  0.1246 -0.4469 -0.1829
89066W        W32082  11.340  10.476  17.282  0.3356 -0.2412  0.2284
89067W        W32083   9.361  10.273   3.249  0.0591  0.3388  0.0608
89068W        W32084   0.662  10.240   4.095  0.0839  0.1492 -0.1363
89069W        W32085  17.786  27.829  27.751  0.1248 -0.2121 -0.0828
89070W        W32086  17.463  18.777   7.878  0.2206  0.3233 -0.4061
89071W        W32087  12.190  19.033   6.725  0.2178  0.1046 -0.0960
89072W        W32088  22.383  31.037   0.115  0.4438  0.0017  0.2635
89073W        W32089   4.624  12.728   8.616  0.0197 -0.2257 -0.0297
89074W        W32090  11.282  10.264  18.016  0.2758  0.0388 -0.2097
89075W        W32091   7.889  21.138   2.754  0.2613  0.0382 -0.1469
89076W        W32092  29.069  12.107   3.312  0.2925 -0.2545 -0.2795
89077W        W32093  25.573   3.904   7.865 -0.1040 -0.2430 -0.2230
89078W        W32094  18.297   2.523   9.700  0.3472 -0.2591 -0.4567
89079W        W32095  18.209   7.882   4.226 -0.1505 -0.1978 -0.1949
89080W        W32096  21.553  24.124   5.933 -0.3077 -0.2306  0.2006
89081W        W32097  14.001  23.689  23.668 -0.3031 -0.1417  0.1060
89082W        W32098  17.598  31.190  25.610  0.0370 -0.2891  0.3782
89083W        W32099  30.363  16.948  16.290 -0.1749  0.1617  0.2062
89084W        W32100  12.980  11.005   3.353 -0.0348 -0.2157  0.2455
89085W        W32101  25.171  12.833  24.913 -0.1888  0.2645  0.1572
89086W        W32102   0.522  25.005  15.166 -0.0434  0.1141 -0.4841
89087W        W32103  27.615  19.184  17.541  0.0867  0.1264  0.0784
89088W        W32104  28.050   0.188  26.483 -0.3739  0.0970  0.3846
89089W        W32105  32.795  29.607   4.450 -0.1165  0.2868 -0.1172
89090W        W32106  30.869  18.304  24.913 -0.2353  0.0579  0.0352
89091W        W32107   0.773  27.322  25.746  0.3314  0.0721  0.0251
89092W        W32108  32.556  30.812   9.619  0.1587 -0.1599 -0.1439
89093W        W32109  22.439  10.154   8.933  0.1645  0.1129 -0.1938
89094W        W32110   9.717  33.253  22.092 -0.1922 -0.0018  0.0274
89095W        W32111   5.532   8.293   4.101  0.2969 -0.3436 -0.0356
89096W        W32112  31.702  12.273   6.187  0.0877  0.0553  0.6458
89097W        W32113  12.981  13.664  15.089 -0.1962 -0.0688  0.0269
89098W        W32114  20.332  23.721  14.768  0.0042 -0.2597  0.2632
89099W        W32115  13.678  34.093  28.435  0.0002  0.0741 -0.0442
89100W        W32116  12.731   8.769   0.314 -0.0216  0.2408 -0.0002
89101W        W32117  33.051  11.871  17.914 -0.0361  0.2060  0.1125
89102W        W32118   1.694   7.517   6.082 -0.1052 -0.2051 -0.2791
89103W        W32119  25.594  20.959  22.548 -0.2601  0.1557 -0.2090
89104W        W32120  12.570   7.373  23.282  0.0802 -0.1663  0.0813
89105W        W32121  16.369  11.187   7.002  0.1421  0.1003 -0.0195
89106W        W32122  19.627   8.790   7.258  0.3065 -0.1507 -0.1787
89107W        W32123  24.555   9.922   1.638  0.0386 -0.1037  0.0090
89108W        W32124  12.813   5.998   5.369  0.1605 -0.3201 -0.3087
89109W        W32125   7.716  33.778  17.589  0.0465 -0.1194  0.2328
89110W        W32126  13.809  33.158   8.656  0.0347 -0.1506 -0.0196
89111W        W32127  17.334  12.013   3.193  0.0525 -0.0468 -0.1426
89112W        W32128  27.778  23.929   0.716 -0.2190  0.3079  0.0100
89113W        W32129  22.988  20.085   8.529 -0.2733  0.1079 -0.1833
89114W        W32130  20.183  10.419   5.604 -0.0761 -0.1550  0.0741
89115W        W32131   2.680  12.017  28.891 -0.2115 -0.1305  0.1492
89116W        W32132  20.557  11.035  28.107  0.2061 -0.1892  0.0154
89117W        W32133  23.303  34.164  26.935 -0.0754  0.1306  0.2188
89118W        W32134  20.130  19.041  20.022 -0.1192 -0.3629 -0.2005
89119W        W32135  25.183   9.231   1.585  0.2463  0.4615 -0.1053
89120W        W32136  25.495  12.156  26.295  0.2268 -0.1662  0.0833
89121W        W32137  10.676  34.042  27.011 -0.0972 -0.4091 -0.2074
89122W        W32138   3.688   9.799  17.448  0.0943 -0.0575 -0.1883
89123W        W32139  14.676   8.442   3.427  0.3249  0.1222  0.0829
89124W        W32140   6.084   0.808   1.815 -0.2078  0.0872 -0.1912
89125W        W32141  24.760  10.650  16.186  0.0338 -0.0054  0.1725
89126W        W32142  21.127  32.633  10.583  0.1148 -0.1179  0.3060
89127W        W32143   0.357  23.331  20.356 -0.0012 -0.1202 -0.0059
89128W        W32144  21.549  21.395  23.549 -0.2907 -0.0688  0.2545
89129W        W32145  18.418  28.951  20.116 -0.2757  0.2361 -0.1914
89130W        W32146  24.315  16.066   3.154 -0.1545 -0.1064  0.2181
89131W        W32147  26.130  10.181  25.143  0.4514 -0.0306  0.0642
89132W        W32148  15.590   5.578  23.541  0.0356 -0.2631  0.1013
89133W        W32149  22.916   6.288   1.186  0.0223 -0.0785 -0.1057
89134W        W32150  21.038   4.154   7.849  0.0649  0.0390  0.0463
89135W        W32151  33.142   0.189  21.462 -0.1078 -0.1100  0.1146
89136W        W32152  29.222   8.349  20.866  0.1172  0.0092  0.3542
89137W        W32153  29.782   9.190  23.203  0.1399  0.1632  0.0473
89138W        W32154   2.190  12.640   4.538  0.5008 -0.2184 -0.0603
89139W        W32155  29.391  16.520  23.381 -0.1634  0.0665 -0.5813
89140W        W32156  16.248  13.901  26.901  0.1423  0.1250  0.1136
89141W        W32157  15.716  12.909  24.682  0.0190  0.0219  0.0444
89142W        W32158  10.136   8.361   6.240  0.0302  0.1342 -0.0913
89143W        W32159  12.678   1.547  18.820 -0.2188  0.0960  0.1475
89144W        W32160  19.284  23.457   8.436 -0.0055  0.1513  0.3177
89145W        W32161  25.352   8.967  27.923 -0.0720 -0.1217 -0.1478
89146W        W32162  27.607   7.375  27.328 -0.2665 -0.0357 -0.0206
89147W        W32163  21.300  24.413  16.418 -0.0054  0.1446 -0.0134
89148W        W32164  16.424  12.145  15.407  0.1190 -0.5585 -0.0926
89149W        W32165  32.067  10.860  28.223  0.0067 -0.0553  0.1616
89150W        W32166  25.765   6.683   4.946  0.2401 -0.0782  0.0482
89151W        W32167   7.357  29.356  27.487 -0.1811 -0.2459  0.0888
89152W        W32168   5.327  34.334   3.205  0.0143  0.0950 -0.0660
89153W        W32169  21.624   4.403   3.166 -0.2761  0.3516  0.2273
89154W        W32170   0.147   3.838   0.826 -0.0587 -0.1240  0.0037
89155W        W32171  15.893  22.258   4.429  0.1237  0.0796 -0.0112
89156W        W32172  27.277  14.750  27.492 -0.1858 -0.1239 -0.0341
89157W        W32173   8.149  24.723  15.740  0.2130  0.1689 -0.1249
89158W        W32174   8.039  30.214   5.603  0.1533 -0.1110  0.1088
89159W        W32175  23.488   5.822   3.107  0.1944  0.1848  0.0112
89160W        W32176  12.265   9.245  19.933  0.0036 -0.2211 -0.3123
89161W        W32177  12.259  22.946  20.815 -0.1386  0.3462  0.4149
89162W        W32178  14.694  32.048   2.978 -0.4147  0.3879  0.2074
89163W        W32179  11.345  17.134  13.337  0.0034 -0.0629 -0.1302
89164W        W32180  25.049  18.029   1.419  0.0330  0.0872 -0.1465
89165W        W32181  30.056   0.520   6.325  0.2088  0.2300  0.1448
89166W        W32182  25.470  20.720  19.484 -0.2059 -0.0810  0.4712
89167W        W32183  23.561  27.790  22.971 -0.4022 -0.1309  0.0428
89168W        W32184  25.391  16.684  16.919 -0.0549 -0.2179 -0.2558
89169W        W32185   2.324  28.615   2.262  0.0818 -0.2275  0.1442
89170W        W32186  24.369  31.311  27.721 -0.3927  0.1155 -0.3302
89171W        W32187  11.536   8.670  18.867 -0.1278 -0.2665 -0.2715
89172W        W32188  20.076  14.006   7.721 -0.0966 -0.3689  0.0571
89173W        W32189  25.350  26.559   3.893 -0.3377 -0.3677  0.0805
89174W        W32190  33.809   4.913   5.413 -0.0189 -0.0435  0.1337
89175W        W32191   0.686  14.793   1.407 -0.0976 -0.0229  0.1887
89176W        W32192  21.147  13.136  12.833  0.1229 -0.0767 -0.3445
89177W        W32193   1.883  34.622  27.701 -0.1053  0.1676 -0.1660
89178W        W32194  21.154  16.548  27.018 -0.1115 -0.3259  0.0290
89179W        W32195  23.184  13.016  16.453  0.0107  0.1540  0.1373
89180W        W32196   2.928  13.405   0.407 -0.0827  0.2236 -0.2386
89181W        W32197  20.662  11.865  12.425  0.0351  0.1487  0.1101
89182W        W32198  14.909   3.869   6.878 -0.1308  0.1224 -0.1979
89183W        W32199  25.763  32.191  29.279 -0.3281 -0.0313 -0.2822
89184W        W32200  20.797   7.779   6.095  0.0887  0.1481 -0.3918
89185W        W32201  26.462   6.834   8.774 -0.0589  0.0707  0.4139
89186W        W32202  19.019  20.021  24.580  0.3009  0.1441 -0.2144
89187W        W32203  11.028  25.661  16.391  0.1003 -0.0876 -0.0914
89188W        W32204  29.349   4.000   9.092 -0.2738 -0.1186  0.0003
89189W        W32205  12.556  19.792  19.870  0.0702  0.0040 -0.2750
89190W        W32206  20.648  21.936   1.501 -0.2651  0.1714 -0.1557
89191W        W32207  29.751  12.735  18.388 -0.1838  0.2487 -0.0908
89192W        W32208  30.733  13.523  25.178 -0.0421 -0.1183  0.1395
89193W        W32209  21.857  13.633   0.330  0.1417 -0.1412 -0.0811
89194W        W32210  18.637  29.175  27.907 -0.1803 -0.0056  0.1825
89195W        W32211  22.816  17.616   5.616 -0.1578  0.3417 -0.0781
89196W        W32212  27.122  24.792  10.493 -0.2626 -0.1867  0.3892
89197W        W32213   2.346  32.832   7.929  0.4077  0.0262 -0.2301
89198W        W32214  19.359   9.469   7.899  0.1470  0.3286  0.3113
89199W        W32215  10.622   2.142  25.753 -0.1969  0.0440 -0.1792
89200W        W32216   9.929  18.472   0.470 -0.1368 -0.1853  0.0647
89201W        W32217   8.545  30.021  26.328  0.0037 -0.0109  0.1038
89202W        W32218  29.211   6.232  27.450  0.2731  0.0308  0.0640
89203W        W32219  18.521  10.972  22.584 -0.3325  0.2608 -0.0982
89204W        W32220  19.865   6.571   8.496 -0.1967  0.1991 -0.0417
89205W        W32221   1.497   4.923   6.227  0.0080 -0.0282  0.2561
89206W        W32222  19.920  27.435  24.264 -0.0806 -0.2714  0.0073
89207W        W32223  34.569   8.706  29.105 -0.2843  0.0191  0.1597
89208W        W32224  23.683  10.170  18.773 -0.2003 -0.2072 -0.1800
89209W        W32225   5.461   5.180   3.081  0.0391 -0.0570 -0.1616
89210W        W32226  30.888  31.445  19.487 -0.1489  0.4625 -0.0655
89211W        W32227  17.050  22.909  20.240  0.1957  0.0114  0.1098
89212W        W32228   6.237  15.053  26.803 -0.0129  0.2436 -0.2133
89213W        W32229  22.258  25.201  23.155 -0.2036 -0.0924  0.1433
89214W        W32230  24.331   1.467  10.272 -0.2291 -0.1304  0.1340
89215W        W32231   4.687   0.285  29.040 -0.0288  0.2737  0.3978
89216W        W32232  34.155  14.476   5.858  0.0728 -0.1045 -0.0120
89217W        W32233  11.482   1.984  23.763  0.0183  0.1114  0.2146
89218W        W32234  30.985  16.712   7.146  0.4450 -0.2335  0.1196
89219W        W32235  10.134   7.034   5.814 -0.0507  0.0594  0.2437
89220W        W32236   8.068   8.461  28.231 -0.1538 -0.1117 -0.1881
89221W        W32237  18.244   7.676   0.364 -0.2452  0.0366 -0.3435
89222W        W32238  25.591   2.809  23.941 -0.2295 -0.0038 -0.2483
89223W        W32239  24.450  15.911   5.455 -0.0099  0.1146 -0.0387
89224W        W32240  18.418  15.156  23.965 -0.2410  0.0413  0.0136
89225W        W32241  31.888  10.046  22.881  0.5074 -0.0930 -0.2083
89226W        W32242  21.678  29.005   0.153  0.1083 -0.0425  0.4088
89227W        W32243  15.199   7.007  21.191  0.2884 -0.0331  0.0028
89228W        W32244  15.636   7.646   5.959 -0.3862 -0.0586  0.0858
89229W        W32245  33.778  21.176   2.731  0.0935  0.0014 -0.2442
89230W        W32246   9.821   0.178   2.321  0.2191  0.1390 -0.4828
89231W        W32247  25.471   7.893   6.802  0.0393  0.1150 -0.2737
89232W        W32248  29.708   4.188  23.836 -0.1536  0.0165  0.1223
89233W        W32249  22.564  20.483   7.604  0.1300  0.1839  0.0121
89234W        W32250   5.948  10.460   4.005  0.0976  0.1413 -0.1823
89235W        W32251  18.879   1.990   1.529  0.2803 -0.0286 -0.0772
89236W        W32252  18.339  25.841   1.388  0.0852 -0.2441  0.0894
89237W        W32253  30.891  16.784   9.645  0.1042  0.0134 -0.1546
89238W        W32254   7.327  11.937  16.261 -0.0297 -0.2170  0.0407
89239W        W32255  26.908  32.192  28.232  0.2626  0.0466 -0.1614
89240W        W32256  21.857   3.792   1.113 -0.0118 -0.2007 -0.0989
89241W        W32257  10.931  30.111  27.454  0.2969 -0.0676 -0.3712
89242W        W32258  19.011  33.513  20.693  0.0241 -0.1241  0.0226
89243W        W32259   9.788  20.551   4.971 -0.1846  0.1370 -0.4297
89244W        W32260  20.156   4.190  25.902  0.2811 -0.1044 -0.0106
89245W        W32261  11.619  18.003  26.170 -0.3303 -0.2815 -0.4043
89246W        W32262  14.105   7.487   6.306 -0.0607  0.1392  0.0159
89247W        W32263  23.316   2.929   8.764  0.2632 -0.3035  0.1443
89248W        W32264  22.525   9.389   0.396  0.0196 -0.2530 -0.3462
89249W        W32265  26.795  18.168  28.427 -0.0181  0.1333 -0.0040
89250W        W32266  14.188  13.624   1.680  0.2421  0.6423 -0.0984
89251W        W32267  19.041  11.040   1.129 -0.2112 -0.1314 -0.0280
89252W        W32268  23.949   8.179  27.161  0.0314  0.1071 -0.0510
89253W        W32269  30.330  30.673  23.044  0.0613  0.3127  0.0531
89254W        W32270  33.254   2.597  15.308  0.1901 -0.0042 -0.0682
89255W        W32271   3.397  25.211   1.231 -0.2518 -0.1799  0.0261
89256W        W32272   0.264  24.381  23.410 -0.0788  0.2423  0.0771
89257W        W32273  17.531  21.633  20.955 -0.0780  0.0983 -0.2624
89258W        W32274  22.096  11.685  27.551 -0.1519 -0.0473  0.1248
89259W        W32275  15.532  29.792   5.032  0.2454  0.3006 -0.3693
89260W        W32276  11.591  28.184  24.910  0.3781 -0.2346 -0.0055
89261W        W32277   5.316  18.756   8.866 -0.1427 -0.0541 -0.0517
89262W        W32278   9.841  22.333  12.719  0.1622 -0.1251 -0.0168
89263W        W32279  24.544  17.896  27.690  0.0308 -0.2725 -0.2256
89264W        W32280  21.426   9.184   7.169 -0.0883 -0.1410 -0.1208
89265W        W32281   6.659  13.635  23.313  0.2443 -0.1669 -0.2650
89266W        W32282  19.189  25.280   3.641 -0.1349  0.3013  0.0696
89267W        W32283  18.966  29.348  20.896 -0.4922  0.1036  0.2553
89268W        W32284   0.373   8.759   2.266 -0.1010  0.1024 -0.0104
89269W        W32285  12.298  14.529  17.167 -0.0827  0.2694  0.0284
89270W        W32286  32.290  31.841  22.684 -0.0521  0.2111  0.1320
89271W        W32287  20.317   6.876  26.690 -0.1807 -0.0647 -0.2514
89272W        W32288   8.037  20.538  27.441  0.0350 -0.1019 -0.1680
89273W        W32289  22.442  29.836   2.203 -0.2569 -0.3505 -0.0400
89274W        W32290  18.282  12.891  21.714  0.0482 -0.3112  0.1438
89275W        W32291  11.469  10.962  24.818 -0.0263  0.2990  0.0881
89276W        W32292  16.395  19.563  27.507  0.2392 -0.2816 -0.2007
89277W        W32293  14.913   3.924  23.796 -0.1878 -0.0583 -0.0645
89278W        W32294  18.793  16.448   2.616 -0.2061 -0.3928 -0.1375
89279W        W32295  18.905  20.479  15.944 -0.1723 -0.1369 -0.0110
89280W        W32296  16.989  17.304   3.388 -0.2272  0.1572  0.2767
89281W        W32297  10.046  10.753   4.591 -0.1365  0.2851  0.3073
89282W        W32298  28.728  15.989  26.031 -0.0583 -0.1756 -0.0145
89283W        W32299  12.915   9.927  25.592 -0.0387  0.2306  0.3345
89284W        W32300  18.641  17.528  13.505 -0.0396 -0.0983  0.3183
89285W        W32301  28.444  30.795   0.220 -0.0040  0.3117  0.0530
89286W        W32302  23.583   5.068  21.404 -0.1841 -0.3173 -0.2342
89287W        W32303  24.963  15.268   2.452  0.3353 -0.2315 -0.1280
89288W        W32304  21.961   3.957  10.110  0.1671  0.1199 -0.0227
89289W        W32305   4.891  10.734   3.624 -0.1273  0.1209  0.1521
89290W        W32306  34.769  14.792  20.191  0.1344 -0.0193 -0.1598
89291W        W32307   0.697  17.337  24.815  0.2984 -0.0246  0.0581
89292W        W32308  19.383  22.714   8.246 -0.1234  0.0231  0.0392
89293W        W32309  23.123  15.134  22.449  0.0929 -0.0956 -0.0470
89294W        W32310   1.937   6.810   2.874 -0.0173  0.0033  0.1992
89295W        W32311  29.912  14.876  18.643 -0.2573 -0.0930  0.0173
89296W        W32312   9.126   7.805  21.957  0.3219 -0.0480  0.1624
89297W        W32313  21.443  26.707  28.389  0.3707 -0.1606  0.1569
89298W        W32314   9.080  14.545   8.378  0.3405  0.1542  0.2692
89299W        W32315   8.204  26.920   4.625 -0.4796 -0.1610 -0.0892
89300W        W32316  34.555  31.066  29.216 -0.0357 -0.1571 -0.2229
89301W        W32317  16.741  19.887  28.035  0.1494 -0.1966  0.0540
89302W        W32318  18.643   9.429   1.365  0.0110  0.1077  0.3449
89303W        W32319   5.878   0.712  23.172  0.2677  0.0041 -0.2078
89304W        W32320   6.853  11.987   8.798 -0.0785 -0.3469 -0.2662
89305W        W32321   9.384  19.656  27.950  0.2747 -0.0090  0.1619
89306W        W32322  14.507  14.780  26.862 -0.2236  0.1213  0.1889
89307W        W32323  12.841  12.616  16.255 -0.1253 -0.0413 -0.2110
89308W        W32324  19.614  12.163  26.358  0.2616  0.0228  0.0977
89309W        W32325  21.370  11.746   2.644  0.0437 -0.0784 -0.0301
89310W        W32326  22.296  27.554  22.255  0.0192 -0.3159 -0.1888
89311W        W32327  32.229  16.194  23.719 -0.0178 -0.0738  0.0594
89312W        W32328  31.740   8.972  18.436 -0.0181 -0.2121  0.2571
89313W        W32329  23.626  10.580  21.098  0.1318 -0.2169  0.1301
89314W        W32330  17.777  18.191  27.526  0.2347 -0.2627  0.0368
89315W        W32331  28.065  23.763   7.347 -0.1162 -0.0771  0.1925
89316W        W32332  20.764   6.622  18.398 -0.3187  0.1189 -0.0294
89317W        W32333  23.725  25.428  20.286  0.0372  0.2828  0.0750
89318W        W32334   5.344  30.836  22.350  0.2162 -0.0129  0.2575
89319W        W32335  18.069  15.944   4.245  0.2991 -0.0488  0.0895
89320W        W32336   9.476  27.222   6.136  0.1287  0.0702  0.2316
89321W        W32337   1.989  13.017   2.076  0.0505 -0.5497 -0.0934
89322W        W32338  27.740   8.713   0.074  0.1461  0.0284  0.5661
89323W        W32339  34.337  12.064  24.633 -0.0955 -0.1416  0.1026
89324W        W32340  24.973  24.011  17.963 -0.0725  0.1153  0.3501
89325W        W32341  19.757   5.444  23.082  0.1369 -0.3203 -0.2223
89326W        W32342  22.319  11.762  23.820  0.1509 -0.0636 -0.0532
89327W        W32343  19.504   4.680   7.986  0.0112 -0.2947 -0.0775
89328W        W32344  17.540  18.714  26.810 -0.1011 -0.3226  0.1095
89329W        W32345  18.449  11.457  16.328 -0.0200 -0.0523  0.1806
89330W        W32346  11.498  15.978  28.433  0.0775  0.0320  0.0576
89331W        W32347  21.620  33.284  21.151  0.0354  0.1522  0.0739
89332W        W32348  34.164  13.331   1.722  0.3183 -0.2052 -0.0345
89333W        W32349  32.195  22.090  24.346  0.0345  0.2283 -0.5449
89334W        W32350  25.289   4.670   8.532 -0.0572 -0.3490  0.1122
89335W        W32351  23.536   9.081   0.339 -0.0937  0.1237  0.1076
89336W        W32352  21.123  32.690  14.286 -0.1406  0.2308 -0.1089
89337W        W32353  32.318  20.385   3.767 -0.1804  0.3014  0.0693
89338W        W32354  21.359  34.402   5.266  0.0490  0.2398 -0.0213
89339W        W32355  18.349  12.102  27.318  0.0237 -0.0374  0.0449
89340W        W32356  15.464   6.244  27.949 -0.1844 -0.1883 -0.1322
89341W        W32357  23.969  28.400  20.684  0.1332 -0.2155  0.2126
89342W        W32358  22.709   3.529  23.840 -0.0217 -0.1693  0.3443
89343W        W32359  27.373   1.424  25.580  0.2449 -0.3552 -0.1615
89344W        W32360  25.279   4.098  19.288  0.0526  0.1172 -0.2046
89345W        W32361  23.476  20.470   3.238  0.0002  0.2964  0.0359
89346W        W32362   5.064  25.200  22.494 -0.0694 -0.1473 -0.0779
89347W        W32363  18.702  16.533   6.486 -0.2838 -0.0865 -0.0113
89348W        W32364  10.343   1.835   7.279  0.1778  0.0704  0.0483
89349W        W32365  31.700   2.339  23.252  0.2822 -0.3732 -0.1451
89350W        W32366   0.035   6.779   1.631  0.0621 -0.0854  0.1681
89351W        W32367  13.940  32.498  28.813 -0.0806  0.1965  0.2584
89352W        W32368  21.149   7.380  14.835 -0.1459  0.3245  0.1063
89353W        W32369  13.788  11.198  23.649 -0.3011  0.1895  0.2733
89354W        W32370   5.410   9.920  29.061  0.0508 -0.0547 -0.0618
89355W        W32371  14.047  27.002   3.262 -0.0093 -0.0751 -0.4356
89356W        W32372   9.515  17.538  27.777  0.1190  0.3016  0.1272
89357W        W32373  24.828  23.114   1.980 -0.2680  0.0974 -0.3579
89358W        W32374  21.971  15.438   0.648 -0.0317 -0.1389 -0.1173
89359W        W32375  13.281   1.877   7.178  0.1068 -0.4828 -0.0053
89360W        W32376  14.863   6.682  22.399 -0.1368 -0.0608  0.1162
89361W        W32377  24.170  14.458   8.977 -0.0995 -0.1767  0.1221
89362W        W32378  20.912  13.467  27.598  0.0709 -0.0736  0.0357
89363W        W32379  16.543  31.667   8.608  0.0363 -0.0816  0.0635
89364W        W32380  17.123  26.841   2.945  0.2240 -0.0612 -0.1108
89365W        W32381  12.903   8.122  26.030 -0.1369 -0.0513  0.0733
89366W        W32382  20.074  28.866  25.395  0.1183  0.0252  0.0617
89367W        W32383  17.435   4.263   5.290 -0.0730  0.2476  0.0806
89368W        W32384  24.354   5.862  15.128  0.2353  0.3212 -0.1183
89369W        W32385  19.321   7.444  23.247 -0.2015 -0.0906 -0.4508
89370W        W32386  21.943  12.620   0.119 -0.0588 -0.1880 -0.2417
89371W        W32387  28.921  16.880   9.258 -0.0344  0.0533 -0.1036
89372W        W32388  17.534  28.017  27.302  0.1792 -0.1043 -0.1445
89373W        W32389  26.042  10.460   5.145  0.1172 -0.0044 -0.0426
89374W        W32390  17.883  19.970   7.352  0.0528 -0.3058 -0.2347
89375W        W32391   5.039   7.832  16.632  0.2936 -0.0664 -0.1411
89376W        W32392  20.594   0.275   7.279 -0.0514  0.0991  0.0059
89377W        W32393  12.445  13.238  16.333 -0.1135  0.2898 -0.1638
89378W        W32394  32.125  17.582   0.612  0.1506 -0.0342 -0.2201
89379W        W32395  24.423  12.432  21.606 -0.2876 -0.3279  0.3105
89380W        W32396  13.653   5.774  23.641  0.0677  0.1438 -0.2330
89381W        W32397  27.604  32.151   0.573 -0.0005 -0.0055 -0.1441
89382W        W32398  17.369  12.771  27.688 -0.1854 -0.0887  0.1596
89383W        W32399  34.176  34.146   4.488 -0.3588  0.5103  0.2545
89384W        W32400  19.925  18.061  24.910  0.0279  0.0972  0.1170
89385W        W32401  11.485  29.796   3.033  0.1274 -0.2394 -0.0526
89386W        W32402   4.935   6.081  19.233  0.1231  0.0604  0.2745
89387W        W32403  26.815  29.201   1.472  0.0136  0.2528  0.2103
89388W        W32404  23.481   1.535   8.736  0.2330 -0.1086 -0.0887
89389W        W32405   2.589  11.152  19.820  0.0421  0.0577 -0.2504
89390W        W32406  26.303   1.104   4.592 -0.1721 -0.1156  0.1634
89391W        W32407  24.605  29.103  28.762  0.1456  0.0302  0.4630
89392W        W32408   9.775  25.658  21.293 -0.1128 -0.1285 -0.2909
89393W        W32409  14.720  14.026   7.472 -0.3042  0.1927 -0.1372
89394W        W32410  21.519  12.943  24.185  0.2306  0.0801 -0.0799
89395W        W32411   5.137   0.784  24.907 -0.1897  0.1604  0.0588
89396W        W32412   0.150   2.988  20.883 -0.1636 -0.1854 -0.1881
89397W        W32413  26.823  10.585  27.385  0.0113 -0.0644  0.0841
89398W        W32414  18.446   8.929   6.466 -0.1583  0.2486  0.0289
89399W        W32415  26.472  13.431   3.452  0.1557  0.2369 -0.1271
89400W        W32416  16.702  17.997   3.722 -0.1461  0.0930  0.2418
89401W        W32417  19.648  25.219   3.859 -0.2276  0.1036  0.1406
89402W        W32418  20.598  12.254  23.188  0.2458 -0.1091  0.3667
89403W        W32419  26.428  12.001  23.183  0.1610 -0.1386 -0.0426
89404W        W32420  27.439  21.620  24.130 -0.1202  0.3828  0.2047
89405W        W32421  18.008  14.600   7.203  0.0506 -0.4351 -0.3352
89406W        W32422  10.140  28.690  24.247  0.0370 -0.0485  0.3846
89407W        W32423  34.037  21.642  19.691 -0.0734  0.1004 -0.1642
89408W        W32424  19.074   3.008   6.693  0.2820 -0.1362  0.2092
89409W        W32425  29.647  17.163   4.433  0.3360 -0.1234 -0.0455
89410W        W32426  19.103   1.767  27.540 -0.1127 -0.0036 -0.0414
89411W        W32427   8.721   1.938   7.911  0.0878 -0.1563 -0.0847
89412W        W32428  17.715   7.258  16.221 -0.0250 -0.1670 -0.3214
89413W        W32429   9.338  12.261  16.853  0.2266  0.2707 -0.2805
89414W        W32430  11.962  31.886   8.006 -0.1355  0.5333 -0.0230
89415W        W32431  17.060  25.881  17.416 -0.1334  0.1583 -0.0652
89416W        W32432  15.614  28.835  25.221 -0.1603 -0.2382 -0.4831
89417W        W32433  25.460   4.134   2.167 -0.1706 -0.3442  0.1372
89418W        W32434  12.353   9.472  12.887 -0.2637  0.0094 -0.0068
89419W        W32435   0.783   6.768  27.534  0.0016 -0.4496 -0.1451
89420W        W32436  33.480   2.811   3.666  0.0455 -0.4049 -0.1951
89421W        W32437   3.406   8.957   4.935  0.2727 -0.0543 -0.3505
89422W        W32438  23.918   2.972   4.858  0.2052 -0.1923 -0.1473
89423W        W32439  22.269  14.413  13.521 -0.0357  0.0766 -0.1020
89424W        W32440  23.335   9.817   4.282  0.2208  0.0795  0.2404
89425W        W32441  24.446  16.245   8.900  0.0039  0.4362 -0.1269
89426W        W32442  19.323   9.972  14.187  0.3139  0.1094  0.0160
89427W        W32443  34.504  25.900   7.531  0.3054 -0.1519 -0.1545
89428W        W32444  13.124   1.473  24.901  0.2683 -0.1979 -0.4475
89429W        W32445  12.518   1.907   0.095 -0.2449  0.3699  0.1727
89430W        W32446  20.038  15.262  22.971  0.0031 -0.1189 -0.2080
89431W        W32447  12.158  31.044  23.033  0.3269 -0.0408  0.1032
89432W        W32448  30.818  19.082  25.651 -0.0341  0.0070  0.3561
89433W        W32449  22.069  19.867  27.031  0.2377  0.1700 -0.0828
89434W        W32450  18.609  18.377  27.128  0.1181  0.1304  0.1611
89435W        W32451  19.298  18.106  29.048 -0.2674  0.3659  0.3404
89436W        W32452  17.212  16.593  19.408  0.0177  0.0348 -0.0172
89437W        W32453  20.493   8.312  18.098  0.4958  0.0350  0.1659
89438W        W32454  24.541  16.928  19.389 -0.2853  0.2410 -0.0592
89439W        W32455  23.925   9.434   1.139 -0.0320 -0.0161  0.1398
89440W        W32456  10.384  21.362   4.590  0.2077 -0.1580  0.3012
89441W        W32457  19.452   6.188  26.321  0.1667 -0.0657  0.1561
89442W        W32458  11.523  18.414   7.846  0.0347  0.1050 -0.1551
89443W        W32459   3.822   7.393  16.431  0.0941 -0.2186 -0.4591
89444W        W32460  19.405   4.529  29.310  0.1902 -0.2732  0.0258
89445W        W32461  34.111  17.481   9.676 -0.0121 -0.3091 -0.1741
89446W        W32462   7.206  11.738   3.596 -0.0207 -0.1431  0.1044
89447W        W32463  14.888  22.958  26.204  0.0029 -0.1069 -0.0232
89448W        W32464  32.222   5.544  26.387 -0.0269 -0.1982 -0.0082
89449W        W32465   8.628  17.333  22.071  0.0920 -0.1514  0.3386
89450W        W32466  23.669  17.732  26.145  0.0597  0.1479 -0.0709
89451W        W32467  13.963  12.432  24.890 -0.0495  0.2051 -0.1087
89452W        W32468  25.735  32.981   5.911 -0.0495  0.0021  0.6242
89453W        W32469  25.663   3.142   8.694  0.2864 -0.1621  0.0267
89454W        W32470  25.557  27.630   2.948  0.2626 -0.0812  0.0418
89455W        W32471   8.179  23.458   2.665  0.2449 -0.1238 -0.0344
89456W        W32472  20.622   9.806   8.541 -0.1439  0.1235 -0.0253
89457W        W32473   8.664  14.769  14.985  0.3274  0.1227  0.2224
89458W        W32474  24.930  31.158  28.069  0.2933 -0.2935 -0.1999
89459W        W32475  25.141  30.850   0.039  0.1186  0.2674 -0.4649
89460W        W32476  26.654   4.358   1.430 -0.1536  0.0382 -0.1703
89461W        W32477  10.268  33.820   0.548 -0.2186  0.2516 -0.1306
89462W        W32478  21.525  16.918   1.435  0.1166 -0.1256  0.0345
89463W        W32479  21.619  30.608   0.993 -0.2386  0.1936 -0.1214
89464W        W32480  24.220   0.329  11.396 -0.2695 -0.0806 -0.0620
89465W        W32481  26.714  17.080  16.724 -0.2284 -0.2427  0.3840
89466W        W32482  26.765  11.111  10.342  0.1626  0.1862 -0.0786
89467W        W32483  24.442   6.105  21.909 -0.3165  0.1280 -0.2829
89468W        W32484  29.458  12.936  27.669  0.0882  0.2030 -0.3567
89469W        W32485  31.347  19.987   2.579  0.2000  0.0565 -0.3359
89470W        W32486   1.069   2.132  21.437 -0.3119 -0.0361  0.1187
89471W        W32487  14.916   6.586   0.300  0.2961  0.0764 -0.3584
89472W        W32488   0.857  10.677  28.301 -0.0853 -0.0470 -0.1965
89473W        W32489  24.464   7.545  16.592 -0.1461  0.0439 -0.0938
89474W        W32490   2.469  26.007  17.487  0.1776 -0.2581 -0.0958
89475W        W32491   0.261   8.951  28.449 -0.2215  0.1642 -0.0573
89476W        W32492  24.603  24.675  27.167 -0.1258  0.0388  0.1185
89477W        W32493  17.035  28.048  27.192  0.0840 -0.1131  0.3831
89478W        W32494  15.539   6.617   6.548 -0.0334 -0.0622 -0.0757
89479W        W32495   4.173  18.711   7.139  0.1290 -0.1198  0.1003
89480W        W32496  23.727  13.582   3.674 -0.0793 -0.2063 -0.1086
89481W        W32497  26.622  26.119  11.104 -0.2417 -0.0132  0.1791
89482W        W32498  17.673  18.261  23.069  0.1875 -0.0852 -0.0561
89483W        W32499  25.755  14.063  29.184 -0.0673  0.1455 -0.1632
89484W        W32500  28.820  17.977  29.283  0.1473  0.0387 -0.0252
89485W        W32501  25.490  12.826  22.376  0.1024  0.1889 -0.1861
89486W        W32502  16.134  13.459   1.243  0.1084  0.0694 -0.2282
89487W        W32503  20.803  19.511  26.142  0.0061  0.1671 -0.0533
89488W        W32504  24.543  18.281  13.822 -0.0926 -0.3313  0.0473
89489W        W32505  34.590  32.584  28.463  0.2021 -0.1953 -0.1444
89490W        W32506   3.186  23.402   2.500 -0.0517 -0.0944 -0.0181
89491W        W32507  20.772  33.802   9.597  0.2405  0.0719 -0.0219
89492W        W32508  24.721   8.081   0.175  0.1621 -0.0833 -0.1598
89493W        W32509  11.909   9.998   7.761  0.1938 -0.2002  0.1543
89494W        W32510  25.432   6.781  10.502  0.1877  0.0086  0.0758
89495W        W32511  27.495  20.367   1.748  0.5054 -0.1826 -0.1465
89496W        W32512  30.934   9.536  22.078 -0.0277  0.0747 -0.1832
89497W        W32513  30.455  10.423  28.442 -0.2159 -0.0986 -0.0810
89498W        W32514  26.377  14.443   6.645 -0.0951 -0.1565 -0.0500
89499W        W32515  30.903  34.636  26.687  0.0260  0.3261 -0.3016
89500W        W32516  21.034   8.200   6.335  0.2634  0.1167  0.1009
89501W        W32517   6.255   8.202   8.761 -0.2043 -0.0825  0.0610
89502W        W32518  28.315  21.465  28.184  0.1740  0.0807  0.0034
89503W        W32519   9.165  15.971   7.618  0.0803  0.1957  0.0213
89504W        W32520  19.995   6.647   5.625  0.0866  0.0603  0.0772
89505W        W32521  27.877  12.044   2.479  0.0507 -0.0910 -0.1606
89506W        W32522  15.259  10.247  29.311  0.0903  0.2170  0.2490
89507W        W32523  24.373  34.571   4.765 -0.0136  0.3088  0.2844
89508W        W32524  29.551   4.770   0.502 -0.0305  0.4604 -0.1021
89509W        W32525  18.387  16.941  23.061 -0.1750 -0.1332  0.2393
89510W        W32526  20.370  21.467   1.207 -0.0193 -0.1182  0.2386
89511W        W32527  21.563  13.576  26.049  0.1657 -0.0577 -0.0490
89512W        W32528  22.847   4.726  23.640  0.2591 -0.0846 -0.0549
89513W        W32529  16.436   9.957   7.622 -0.1815 -0.2611 -0.1367
89514W        W32530  21.782  13.407   5.500  0.0096 -0.0734 -0.1551
89515W        W32531  14.253  16.584  23.288  0.0571 -0.2566  0.1043
89516W        W32532  33.658  17.448  22.570  0.0668 -0.0144  0.0650
89517W        W32533   5.016  15.203  20.432  0.1433 -0.2014  0.0513
89518W        W32534  11.319  15.040  18.069  0.0748  0.1355 -0.0826
89519W        W32535  12.647  17.235  24.713 -0.0548  0.0448  0.3649
89520W        W32536  20.161  19.719   5.740 -0.3819  0.0224  0.0650
89521W        W32537  20.664   9.537   1.458 -0.1977 -0.0840  0.1352
89522W        W32538  15.568  15.886   7.689  0.2897 -0.1209  0.4581
89523W        W32539   1.198   6.800   0.318 -0.2829 -0.0601  0.1333
89524W        W32540  21.705  12.596   3.649 -0.1367 -0.1746  0.0792
89525W        W32541  28.257   2.212   0.874 -0.1556 -0.1815  0.0978
89526W        W32542  27.048  18.513  20.307 -0.1218  0.1979  0.1610
89527W        W32543  29.648  22.109  17.897  0.0544  0.1018 -0.1564
89528W        W32544  26.176  13.075  15.083  0.0140  0.0636  0.3102
89529W        W32545  15.393  29.691   8.236  0.2554 -0.2927 -0.1648
89530W        W32546  23.390  14.775  16.904 -0.0698  0.0302 -0.3197
89531W        W32547  20.416   6.133   2.154  0.1898  0.1118  0.2897
89532W        W32548  26.841   8.083  22.085  0.0124  0.2850 -0.0505
89533W        W32549  17.362   6.762  19.847 -0.0857 -0.1009 -0.0125
89534W        W32550  14.956  26.865   4.441  0.2137  0.3016 -0.0673
89535W        W32551   7.598  33.409  20.019 -0.1307 -0.1063 -0.1493
89536W        W32552  10.643   5.722  21.959  0.0676  0.0780  0.1572
89537W        W32553  16.466  32.312  25.005 -0.0524  0.1331 -0.2984
89538W        W32554  15.847   2.959  22.708 -0.0119  0.0261  0.1559
89539W        W32555  27.319  27.057  26.446 -0.1352 -0.3945  0.1315
89540W        W32556  22.453   5.920  27.615  0.0410 -0.3155 -0.1502
89541W        W32557  17.356  27.606  26.993  0.0895  0.0696 -0.0986
89542W        W32558  24.350  24.151  23.824  0.0645  0.2395 -0.2535
89543W        W32559  20.919  33.797  15.886 -0.2048 -0.1650 -0.2335
89544W        W32560  16.211  25.641  19.928  0.0723  0.0325 -0.1805
89545W        W32561  22.408  12.320  25.676  0.0927  0.2644  0.1776
89546W        W32562  30.617   1.485  14.703  0.0247 -0.1295 -0.0949
89547W        W32563  21.832   1.238  16.434 -0.2043 -0.1809  0.0062
89548W        W32564  12.399  27.065  21.103  0.1263 -0.2878 -0.0784
89549W        W32565   7.104   5.310  15.352  0.2048  0.2011  0.3765
89550W        W32566  13.617  24.117  21.816  0.0102 -0.1089 -0.0946
89551W        W32567  26.889  19.735  18.722  0.0947  0.3471  0.0273
89552W        W32568  31.724  16.408  22.434 -0.0570 -0.1419  0.0338
89553W        W32569  22.065   6.115  20.706  0.1673  0.3001  0.0806
89554W        W32570  14.774   9.798  13.172  0.1700  0.2544 -0.2532
89555W        W32571   5.910  11.421  25.081 -0.3521 -0.1728 -0.0112
89556W        W32572  27.656  10.660  18.767 -0.0663 -0.0081 -0.1540
89557W        W32573  24.836  15.683  13.823 -0.1221  0.1919 -0.1580
89558W        W32574   8.021  17.897  19.828 -0.2607  0.0381  0.0357
89559W        W32575  27.922   7.254  22.272 -0.3568 -0.1180 -0.0220
89560W        W32576  17.105  27.258  26.402 -0.0282  0.0527  0.2485
89561W        W32577  15.507  10.928  17.489  0.1156  0.1717  0.0354
89562W        W32578  28.356  15.084   5.406 -0.0236  0.1265  0.0840
89563W        W32579  23.597  30.426   1.335  0.1465 -0.0019 -0.0733
89564W        W32580  21.677  13.518  13.880 -0.0410 -0.1166 -0.0034
89565W        W32581  23.910  28.939  16.364  0.2603 -0.2661 -0.0711
89566W        W32582   2.710  13.583  27.783 -0.0849  0.0456 -0.3802
89567W        W32583  16.019   6.903  15.318  0.0264 -0.3303  0.3244
89568W        W32584  24.781   5.976  23.616 -0.3418 -0.0516  0.2636
89569W        W32585  21.023  27.759  16.530  0.1893  0.1160  0.0733
89570W        W32586  26.062  25.643  16.863  0.3131  0.1185  0.0231
89571W        W32587  14.250  24.805  14.295 -0.3407 -0.0681 -0.1469
89572W        W32588  12.249  15.659  12.959  0.1181  0.0701  0.1664
89573W        W32589  21.798  28.221   1.588 -0.0971  0.0384  0.3231
89574W        W32590  14.753  32.295  15.956  0.0075 -0.2867  0.3190
89575W        W32591  25.175  21.712  29.127  0.0492  0.0150  0.1955
89576W        W32592  28.507  19.846  19.843  0.1849  0.2104 -0.1369
89577W        W32593  32.664  16.666  21.429 -0.0588 -0.0594  0.2580
89578W        W32594  17.606  32.965  21.276  0.0384  0.1601  0.0095
89579W        W32595  15.872   5.430  21.606  0.1802  0.1275 -0.0755
89580W        W32596  15.932   8.652   8.345 -0.0068 -0.0598  0.0741
89581W        W32597  15.511  17.512  14.843  0.2391 -0.0445 -0.1466
89582W        W32598  11.012   6.376  20.961  0.2659 -0.0427  0.0326
89583W        W32599  18.771  11.799  13.877 -0.0998 -0.0733 -0.0522
89584W        W32600  29.048  10.156  21.702  0.1807  0.4143 -0.0243
89585W        W32601  27.700  18.923  22.623 -0.1278 -0.3485  0.7229
89586W        W32602  21.416  14.937  15.794 -0.1221 -0.1314  0.1702
89587W        W32603   9.250  12.907  14.714 -0.2151  0.1360  0.3246
89588W        W32604  32.490  21.753  16.239  0.0004  0.0356  0.2920
89589W        W32605   6.059  26.800  22.332 -0.1083 -0.5173  0.0232
89590W        W32606   3.034  34.734  21.497  0.1283 -0.2780 -0.2927
89591W        W32607  24.574   9.668   0.264 -0.2384  0.2684  0.1232
89592W        W32608  24.931  16.241  20.204  0.0279  0.1186  0.2975
89593W        W32609   9.850  27.743  14.748  0.0524  0.1266  0.0922
89594W        W32610   5.094  17.264  14.290  0.1443  0.1805  0.1440
89595W        W32611  19.022  31.551  15.182  0.1329  0.0057 -0.0066
89596W        W32612  25.155  16.349  14.182  0.0465  0.3364 -0.1510
89597W        W32613  31.481  13.949  14.575 -0.1078  0.0759  0.1932
89598W        W32614  23.516  21.103  21.552  0.0209  0.1323 -0.0397
89599W        W32615  26.638  26.764   1.223 -0.1346 -0.1941  0.2301
89600W        W32616  24.187  29.806  20.448 -0.1982  0.2003  0.2495
89601W        W32617  19.893  23.555  14.409 -0.1752 -0.1802 -0.0368
89602W        W32618   5.905  18.272  25.195  0.2567  0.0523 -0.2046
89603W        W32619  31.733  13.885  26.616  0.0213 -0.3290  0.0289
89604W        W32620  22.003  13.223  15.438 -0.1910 -0.0989 -0.3660
89605W        W32621  21.963   4.997  23.282 -0.2323  0.2082 -0.1512
89606W        W32622  32.288  33.354  22.991 -0.1882  0.2829 -0.2388
89607W        W32623  16.279   9.807  14.929 -0.0508 -0.1607  0.0587
89608W        W32624  33.575  26.334  23.954  0.0779  0.0051 -0.0485
89609W        W32625  17.586  25.071  19.544 -0.1108  0.0097 -0.0716
89610W        W32626   6.087  24.896   4.564 -0.0883 -0.1939 -0.0499
89611W        W32627  20.731   1.644  22.665 -0.3423  0.0771 -0.2542
89612W        W32628  19.944  27.734  19.496  0.1494  0.1882 -0.1265
89613W        W32629  24.182  30.461  21.288 -0.4440  0.2012  0.1375
89614W        W32630  30.967   7.373  19.230  0.0793  0.0292 -0.0719
89615W        W32631  10.283  16.828  22.359  0.0403 -0.0466 -0.4479
89616W        W32632  27.685  11.816   0.344 -0.0462 -0.0540  0.0458
89617W        W32633  24.930   7.367  24.513  0.2268  0.0407  0.0624
89618W        W32634  12.553   9.472  22.248  0.0562 -0.0951  0.0038
89619W        W32635  19.303   0.948  26.985 -0.0817  0.2237  0.1758
89620W        W32636  27.222   9.138  24.846  0.3560  0.3750  0.0088
89621W        W32637  19.330  10.913  17.274 -0.1609 -0.0699 -0.2982
89622W        W32638  28.625  22.273  25.332 -0.1796  0.0066  0.1576
89623W        W32639  28.169  30.216  26.466 -0.0676 -0.0978  0.1244
89624W        W32640  25.948   7.629  25.514 -0.0740  0.0233  0.0086
89625W        W32641  26.488  14.864  23.652  0.2400 -0.2678 -0.2381
89626W        W32642  21.755  23.131  16.930  0.0507  0.1055 -0.1613
89627W        W32643  22.239  30.263  27.267  0.2222  0.1529 -0.2646
89628W        W32644   1.196  24.238  19.028 -0.0045 -0.1902 -0.1329
89629W        W32645  22.174   8.009   5.027  0.0645 -0.3223 -0.0062
89630W        W32646   0.898  19.059  24.017 -0.2070 -0.0083  0.3172
89631W        W32647   3.952  12.918  20.025 -0.0291 -0.0104  0.0204
89632W        W32648  30.194  17.376  22.715  0.0926  0.0639 -0.0346
89633W        W32649   9.355  26.108  17.802  0.1837 -0.0401 -0.1308
89634W        W32650  23.769  18.742  19.096 -0.1770 -0.0713 -0.1788
89635W        W32651  26.648  18.336  15.684  0.1832 -0.1049  0.0563
89636W        W32652  16.922  18.470  11.414 -0.0740 -0.1191 -0.0817
89637W        W32653  26.346   9.332   7.845 -0.0339 -0.0773  0.0333
89638W        W32654  12.327  11.450  16.849 -0.0718  0.4450  0.0832
89639W        W32655  18.438   1.065   0.904  0.2501  0.2046  0.1280
89640W        W32656  21.998  10.603  19.489  0.0769 -0.1125  0.0118
89641W        W32657  26.441  25.574  21.388  0.0985  0.0558 -0.1001
89642W        W32658   5.153  16.408  15.380  0.2002  0.0126  0.3332
89643W        W32659  23.548   8.774  19.986 -0.4861 -0.1610  0.2631
89644W        W32660  18.600  21.642  14.558  0.0391  0.2767  0.3900
89645W        W32661  16.129  12.082  20.416  0.1700  0.3074 -0.0475
89646W        W32662  10.978   1.490  19.204 -0.1722 -0.3123 -0.0600
89647W        W32663  26.470   6.074  15.873  0.2036 -0.1593  0.1240
89648W        W32664  23.839  15.898  19.241 -0.1364 -0.0641 -0.0428
89649W        W32665  23.994   8.798  19.754 -0.1952  0.0783 -0.0864
89650W        W32666  25.748   6.667  25.349 -0.0409  0.0463 -0.4766
89651W        W32667  26.824  34.295  16.206 -0.3299  0.1709 -0.2989
89652W        W32668  23.170  20.297  20.276  0.1301  0.0035  0.4165
89653W        W32669  11.471   2.345  19.364  0.0986 -0.0921  0.3381
89654W        W32670  33.278  20.285  18.467 -0.1954  0.3559 -0.0086
89655W        W32671  32.044   8.140  26.842  0.1189 -0.3997  0.1024
89656W        W32672   6.188  31.676  17.932 -0.0097  0.1162 -0.0508
89657W        W32673  29.574  23.759  25.342  0.0966 -0.0254  0.1315
89658W        W32674  26.103   9.446  24.266 -0.1527 -0.0905 -0.0960
89659W        W32675  17.125  24.366  14.877 -0.2679  0.2697  0.2335
89660W        W32676   3.687  25.485  20.631  0.1247 -0.3125 -0.0122
89661W        W32677  30.965  12.413  23.690  0.3113  0.0518 -0.0300
89662W        W32678  13.649  26.453  18.771  0.2020  0.2997 -0.0912
89663W        W32679  15.084  15.973  14.293 -0.1245 -0.1130 -0.1692
89664W        W32680  25.405  15.326  15.210  0.2005 -0.0229  0.1163
89665W        W32681   9.545  34.163  29.111  0.0261 -0.1551  0.0564
89666W        W32682  26.050  31.476   7.819  0.0377  0.1239 -0.0993
89667W        W32683  17.118   5.311  17.570  0.1417 -0.2199 -0.3318
89668W        W32684  20.353   3.370  19.958  0.0128  0.2097  0.0217
89669W        W32685  29.578  32.900  20.668  0.3351 -0.2987 -0.0168
89670W        W32686  34.405  12.595  15.381  0.0051 -0.0872  0.2246
89671W        W32687  22.755  18.996  21.808 -0.0966 -0.1802 -0.1378
89672W        W32688  23.608  25.722   1.245  0.1041 -0.1085 -0.0019
89673W        W32689  10.586  29.353  26.471 -0.2636  0.3733  0.4162
89674W        W32690  31.093  13.870  18.109  0.1594  0.0005 -0.2069
89675W        W32691   4.018  32.654  17.450 -0.0462  0.2258  0.1945
89676W        W32692  20.034  16.866  12.228 -0.3149 -0.0968 -0.2546
89677W        W32693  27.328  24.398  27.283 -0.2579 -0.3194  0.2051
89678W        W32694  15.186  27.987  20.974 -0.0976 -0.1894  0.1913
89679W        W32695   5.940  30.710  20.955  0.3508 -0.0940 -0.3015
89680W        W32696   9.378   9.042  15.432 -0.3619 -0.0480 -0.4213
89681W        W32697  21.228   0.376  17.173  0.1730  0.1385  0.0598
89682W        W32698  27.464  14.945  19.080  0.0769 -0.1624  0.0522
89683W        W32699  14.827  13.724  14.441  0.1539 -0.0085 -0.1433
89684W        W32700   9.718   4.243  18.067  0.0112  0.0640  0.3449
89685W        W32701  12.874  25.844   2.101  0.1136 -0.3171 -0.2023
89686W        W32702  21.250  10.314  16.843 -0.0177 -0.0661 -0.1894
89687W        W32703  25.653  23.301  17.425  0.2011 -0.4209 -0.0356
89688W        W32704   2.108   3.275  17.723  0.1168  0.0298 -0.2108
89689W        W32705  29.507  11.629  27.731  0.0749  0.2229  0.3801
89690W        W32706  34.502   8.192  19.917  0.0616 -0.4144 -0.1395
89691W        W32707  16.192  18.166   2.320  0.2570  0.0939 -0.0729
89692W        W32708  14.312  10.431  17.388 -0.0650  0.0716 -0.0142
89693W        W32709  15.168  12.136  14.993 -0.2475  0.0169 -0.0758
89694W        W32710  11.013  16.147  20.325  0.1134  0.2399 -0.0759
89695W        W32711  11.687  14.706  18.359  0.0569  0.0624 -0.3398
89696W        W32712  34.504  34.233   9.163  0.1888 -0.3349  0.0361
89697W        W32713  24.160  19.788  18.756  0.2607 -0.0127  0.2396
89698W        W32714  33.617  12.083  14.867  0.1052 -0.3249 -0.0656
89699W        W32715  29.565  18.527  16.156 -0.1621 -0.0670  0.0040
89700W        W32716  27.006  28.948  16.339 -0.1684 -0.2537 -0.1180
89701W        W32717  16.836  23.570  17.798 -0.1573  0.6295 -0.1914
89702W        W32718  12.526   9.703  21.207 -0.0670 -0.0719 -0.1336
89703W        W32719  17.100  19.356  12.309  0.0949  0.0154  0.2002
89704W        W32720   4.599  24.876  18.685 -0.1690 -0.0529 -0.0233
89705W        W32721  29.204  30.090  28.476  0.4834 -0.0249  0.2370
89706W        W32722  23.239  11.962  26.495 -0.2778 -0.0566 -0.0793
89707W        W32723  22.670  11.643  16.091  0.0704 -0.0773 -0.0233
89708W        W32724  22.983   4.010   5.801  0.0966  0.0234  0.1263
89709W        W32725   1.477  28.452  16.472  0.1037 -0.0486 -0.1115
89710W        W32726   9.006   2.395   5.454  0.0282  0.2422  0.0173
89711W        W32727  19.021  22.342  13.459 -0.2257  0.0767  0.1781
89712W        W32728   4.593  17.814  14.747  0.2900  0.1262  0.0466
89713W        W32729   3.355  11.502  18.522 -0.0338 -0.0310 -0.0508
89714W        W32730  34.460  10.512  19.386  0.0517 -0.0471 -0.2095
89715W        W32731   6.555  24.437  25.271  0.0955 -0.1884 -0.0732
89716W        W32732   7.332   1.791  21.700  0.3470 -0.3219 -0.1687
89717W        W32733  23.173  23.796  15.252  0.0153 -0.0448 -0.0710
89718W        W32734  30.884  31.318  26.684  0.0875  0.2171  0.2787
89719W        W32735  27.956  11.003  28.544  0.0569 -0.2201 -0.1114
89720W        W32736  11.658   2.238  27.289  0.0981  0.0711 -0.0976
89721W        W32737  18.153  24.308  25.461 -0.4401  0.0234 -0.1857
89722W        W32738  19.912  31.982  15.722  0.0280  0.1470 -0.3982
89723W        W32739   4.826  33.959  17.568  0.0141 -0.3337  0.1660
89724W        W32740  24.820  24.045  19.686  0.1260  0.1678 -0.0804
89725W        W32741  22.667   8.734  24.203 -0.2256  0.1258 -0.0135
89726W        W32742  17.848  12.988  14.089 -0.0541  0.0803  0.0847
89727W        W32743  13.167   8.413  18.477 -0.1679  0.1161  0.1110
89728W        W32744  27.306  16.800  28.347 -0.0988 -0.0218 -0.2077
89729W        W32745  10.356  18.106  16.067  0.0170 -0.2021  0.2263
89730W        W32746  27.423  26.407  19.905  0.1011  0.0346  0.0632
89731W        W32747  34.765  29.096  23.460 -0.1347 -0.0623 -0.3216
89732W        W32748   5.711  27.279  17.579 -0.2156 -0.2289 -0.0055
89733W        W32749  17.111  12.179  29.257  0.1503  0.0678  0.0653
89734W        W32750  20.251  30.175  13.895 -0.2510 -0.2517 -0.0243
89735W        W32751  26.429   6.302  19.995  0.0249  0.2746  0.0521
89736W        W32752  23.072  16.599  14.052  0.0317 -0.2248 -0.3184
89737W        W32753   9.594  16.194  15.340  0.1314  0.0620  0.0701
89738W        W32754  23.285  21.418  18.361  0.1052 -0.0733  0.1506
89739W        W32755  25.887  18.162  19.669 -0.0264  0.0099  0.0245
89740W        W32756   1.061  17.697  15.332 -0.0295  0.0064  0.1109
89741W        W32757  26.965  11.789  25.674  0.0899  0.0887  0.0810
89742W        W32758  16.242  11.277  15.285 -0.0792  0.0513  0.1829
89743W        W32759  19.010  11.440  16.341  0.2887 -0.1912 -0.2582
89744W        W32760  18.845  11.514  25.468  0.0858 -0.0077 -0.1244
89745W        W32761  26.761  16.908  26.354  0.0740  0.1073  0.0253
89746W        W32762  12.864   1.406   1.040  0.1934 -0.0836 -0.1131
89747W        W32763  10.152  22.392  15.056  0.2542 -0.0074 -0.4197
89748W        W32764  26.982  21.282  23.125 -0.0658 -0.2432 -0.2913
89749W        W32765  23.633  23.289  23.831  0.2117 -0.2269 -0.0277
89750W        W32766  17.231   6.587  17.831  0.0639  0.1283  0.2165
89751W        W32767  10.371  23.455  14.634 -0.1509 -0.0192  0.0108
89752W        W32768  15.572  13.483  14.136 -0.0678 -0.0868  0.0762
89753W        W32769  24.777  17.837  18.742 -0.0337 -0.1491  0.0358
89754W        W32770  19.463   7.852  15.233 -0.2471 -0.2908  0.0040
89755W        W32771  11.214  23.815  15.462  0.1980  0.2993  0.1148
89756W        W32772  25.013  13.177  17.203  0.1485 -0.3225  0.4335
89757W        W32773  31.333  20.735  21.741 -0.1328 -0.4225  0.1444
89758W        W32774   6.901  20.981  23.401  0.1673 -0.1149  0.2446
89759W        W32775  23.819  27.613  21.093 -0.1144  0.2877 -0.0574
89760W        W32776  26.960   2.197   5.151 -0.0424  0.0684 -0.1100
89761W        W32777  27.733  16.941  18.082  0.0422 -0.0753 -0.0372
89762W        W32778  20.162  21.614  18.249  0.1066  0.1678 -0.1062
89763W        W32779   6.532  13.888   8.331 -0.1013  0.4189  0.0946
89764W        W32780  27.999  12.519  15.737 -0.2830 -0.2612  0.4426
89765W        W32781  26.724  34.669  19.054 -0.1259  0.0423  0.0842
89766W        W32782  23.908  17.517  15.496  0.1338  0.1350  0.2437
89767W        W32783  19.333  11.007  18.517  0.2245 -0.1497  0.0661
89768W        W32784  17.175   4.175   7.624  0.0913 -0.1389  0.1668
89769W        W32785  28.475  14.303  21.809 -0.0452 -0.0818  0.2550
89770W        W32786  10.262   9.443  24.205  0.0131 -0.0605  0.4714
89771W        W32787  10.544  23.437  13.774 -0.0791  0.2721  0.0752
89772W        W32788  28.021  18.246  17.926  0.2869  0.2561 -0.2452
89773W        W32789  32.053  29.479  19.345  0.2465  0.2910  0.1751
89774W        W32790  16.464  15.993  15.732  0.0504 -0.1229 -0.1306
89775W        W32791   2.351  12.799   0.116 -0.1830 -0.1567  0.1859
89776W        W32792  20.350  32.638  19.290  0.1126  0.2085 -0.0546
89777W        W32793  24.946  27.226  20.933 -0.1090  0.0353 -0.0210
89778W        W32794  12.056  23.309  15.412 -0.1182  0.0267  0.1827
89779W        W32795  24.489   6.232   3.179  0.3651  0.0332 -0.0419
89780W        W32796  16.633  16.991   7.561 -0.0952 -0.0921 -0.1156
89781W        W32797   0.978  18.051  24.112  0.2074  0.1588 -0.2540
89782W        W32798  23.266  17.073  14.205 -0.3224  0.0238  0.0399
89783W        W32799  19.576  24.611  16.667 -0.1318 -0.1985  0.2561
89784W        W32800  21.314   3.942  20.673  0.3178 -0.0548 -0.0744
89785W        W32801  17.227  20.190   3.341  0.5655 -0.0015 -0.0094
89786W        W32802  26.508  21.738  15.750 -0.2678  0.2384  0.1885
89787W        W32803  14.265  10.394  24.123 -0.1806 -0.1586  0.2934
89788W        W32804  19.747  26.681  21.220 -0.3044 -0.1193 -0.2507
89789W        W32805  13.576   4.293  21.902  0.0321  0.1762  0.0252
89790W        W32806  32.949  34.377  16.590  0.1321 -0.0277 -0.1757
89791W        W32807  22.651  19.235  27.500  0.0383  0.0308  0.1738
89792W        W32808   7.667  24.545  19.973  0.2652 -0.1130 -0.2125
89793W        W32809   8.188   2.038  25.962  0.3475 -0.4071 -0.1494
89794W        W32810  15.101   3.661  27.602  0.1897 -0.3308  0.1144
89795W        W32811  16.946  31.472  16.765  0.2949 -0.1391  0.0597
89796W        W32812  34.267  28.594  20.318 -0.1173  0.0095 -0.0108
89797W        W32813  11.834  29.065  21.159  0.2095 -0.1617 -0.1561
89798W        W32814   6.017  27.404  20.610  0.0605 -0.1778  0.0884
89799W        W32815   4.115  17.883  21.309  0.1801 -0.1250 -0.1641
89800W        W32816  18.875  23.729  16.218 -0.1369  0.0940  0.0067
89801W        W32817   5.731  16.887  27.077  0.1180 -0.0930 -0.0816
89802W        W32818  22.999  34.697  18.249 -0.2665 -0.0994  0.1329
89803W        W32819  12.785   0.702  20.452 -0.0238  0.2958 -0.3764
89804W        W32820   8.168  15.634  16.465 -0.2312 -0.2203 -0.0353
89805W        W32821  14.579   4.313  23.627  0.2244  0.0115 -0.2302
89806W        W32822  12.983  20.184  15.585  0.0121 -0.0256 -0.0577
89807W        W32823   4.608  17.348  28.837 -0.3372  0.2420  0.0298
89808W        W32824   7.665  24.737  18.613 -0.0565  0.1800  0.3581
89809W        W32825  22.241   1.835  17.906 -0.2419 -0.0816  0.1934
89810W        W32826  27.312  25.046  22.927 -0.1473 -0.1068 -0.2019
89811W        W32827  32.625  19.153  24.812  0.0950 -0.1141  0.0203
89812W        W32828  22.185  16.442  24.948  0.3363  0.1802 -0.0462
89813W        W32829  19.652  22.167  17.843  0.1267  0.1649  0.4170
89814W        W32830   2.006  16.935  17.449 -0.0990 -0.0653 -0.0325
89815W        W32831  20.482  10.794  20.070 -0.1490  0.2269  0.4061
89816W        W32832  13.703   0.910  24.398 -0.0119  0.1691 -0.0764
89817W        W32833  22.449  19.648  12.832 -0.5536 -0.2090 -0.3315
89818W        W32834   6.346  23.343  24.938 -0.1129 -0.2379 -0.0001
89819W        W32835  18.770  24.997  20.327  0.1635  0.0931 -0.0689
89820W        W32836  19.808  25.194  18.938 -0.2846 -0.0463 -0.0435
89821W        W32837   8.229  13.155  14.571  0.2299  0.1154 -0.0165
89822W        W32838  25.770  18.293  22.253 -0.2857 -0.0529  0.1699
89823W        W32839  23.831  12.530  28.757 -0.1409 -0.0079 -0.0173
89824W        W32840  21.875  26.460  20.355  0.1309 -0.2638 -0.1095
89825W        W32841  17.982   4.055  17.904 -0.1750 -0.0403  0.0854
89826W        W32842   4.450   1.514  18.814 -0.3226  0.1604  0.3341
89827W        W32843   0.138   6.561   4.237  0.1637 -0.0494  0.0748
89828W        W32844  23.851   9.207  16.326  0.2443 -0.3033  0.1026
89829W        W32845  18.698  20.410  23.923  0.0306  0.3327  0.1055
89830W        W32846  10.503   3.586  25.843  0.2849 -0.0402 -0.1730
89831W        W32847   4.647  28.045  23.437  0.2729 -0.0360  0.1218
89832W        W32848  19.473   3.380  22.757  0.2904 -0.0017 -0.0847
89833W        W32849  23.876  17.635  18.618 -0.3542  0.2040  0.0052
89834W        W32850  26.961  34.610  10.144 -0.2572  0.0913  0.2168
89835W        W32851  28.713   9.074  20.578  0.0014 -0.1644  0.1026
89836W        W32852  26.890  13.027  23.751  0.0114 -0.1056  0.1371
89837W        W32853   7.423  10.458  23.953  0.4780 -0.3396 -0.2595
89838W        W32854  17.540  23.250  15.048 -0.0761 -0.0483  0.0290
89839W        W32855  19.578   9.398  16.163  0.0199 -0.2898 -0.0414
89840W        W32856  12.390  10.688  23.288 -0.0690 -0.2805 -0.0899
89841W        W32857  15.568  19.879  21.046  0.1719  0.0593  0.0148
89842W        W32858  23.843   1.984  15.562 -0.1606  0.0660  0.2430
89843W        W32859   2.512  23.626  17.114 -0.0062 -0.3900 -0.1131
89844W        W32860  34.033  24.514  19.850 -0.2746 -0.1069 -0.1193
89845W        W32861  18.474  16.436  20.896  0.0260  0.2387  0.1520
89846W        W32862   1.778  27.460  22.556  0.1417 -0.1630 -0.2325
89847W        W32863  18.369  10.283  15.908  0.1619  0.2135  0.4227
89848W        W32864  27.518  30.150  28.129  0.1564  0.3643 -0.0051
89849W        W32865  12.459  14.150  18.699  0.0952 -0.0595  0.0021
89850W        W32866  13.619   5.832  17.385 -0.1417 -0.0215  0.1491
89851W        W32867  16.805  30.895  18.521  0.1215 -0.1057  0.1147
89852W        W32868  10.393   4.664  23.925  0.2747  0.2625  0.1203
89853W        W32869  10.288  19.588  16.693 -0.1216  0.3921 -0.0661
89854W        W32870   6.026   3.447  17.950  0.1977 -0.0312 -0.2122
89855W        W32871   9.311  29.368  21.663 -0.1214  0.1014  0.1433
89856W        W32872   0.351  15.702  19.749  0.2143  0.0599 -0.2507
89857W        W32873  26.673  13.076  22.076 -0.0333  0.0068  0.2386
89858W        W32874   0.764   5.139  14.737 -0.1841  0.1883 -0.3840
89859W        W32875  27.362   4.631  21.433 -0.1881 -0.0275  0.0403
89860W        W32876   5.075  19.980  17.577  0.0767 -0.0083 -0.2754
89861W        W32877  31.495  26.193  19.723  0.5304  0.1099 -0.0360
89862W        W32878   6.990   7.205  28.659 -0.1204 -0.0512 -0.3378
89863W        W32879  12.219  14.651  17.622  0.0447 -0.1343 -0.0391
89864W        W32880  22.490  28.525  17.007  0.0345  0.3105 -0.2885
89865W        W32881   9.828   9.580  18.261 -0.2743  0.0493  0.0308
89866W        W32882  16.939  10.708  23.218  0.1420 -0.3599 -0.0111
89867W        W32883  23.346  24.203  19.511 -0.1200  0.1046 -0.0093
89868W        W32884  18.978  15.181  13.818  0.3902 -0.1057 -0.0350
89869W        W32885  28.427   8.687  27.071  0.1992  0.0019 -0.0051
89870W        W32886  19.982  22.373  27.667 -0.0261 -0.1134  0.0694
89871W        W32887   2.186  12.634  26.452  0.0818  0.0829 -0.0571
89872W        W32888   1.031  30.547  26.038 -0.1656 -0.0699 -0.0771
89873W        W32889  16.641  17.057  17.096 -0.1051 -0.2555  0.2857
89874W        W32890  22.096   7.169  19.832 -0.1455 -0.1259 -0.2709
89875W        W32891  10.729   2.168  24.185  0.2090  0.0836 -0.0509
89876W        W32892  18.615   6.595  16.706 -0.0796 -0.0116  0.2349
89877W        W32893  11.420  22.788  14.922  0.1376 -0.0455  0.4263
89878W        W32894  22.576  14.684  19.013  0.0001  0.1006 -0.0704
89879W        W32895  30.898  27.051  24.101  0.0507  0.0202 -0.1049
89880W        W32896  19.229  10.674  24.977 -0.0569 -0.5423  0.0063
89881W        W32897  23.504  21.501  17.901 -0.1690  0.3820  0.2756
89882W        W32898  30.678  20.221  20.904 -0.1914 -0.2700  0.2959
89883W        W32899  11.349  20.597  14.020 -0.3533  0.0626 -0.2743
89884W        W32900   1.006  13.585  20.890  0.4569 -0.3003 -0.0227
89885W        W32901  27.720  21.172  16.530  0.0612 -0.0857 -0.1473
89886W        W32902  29.884  16.955  21.154 -0.1078 -0.1030  0.0526
89887W        W32903  30.536   7.582  22.152 -0.3008 -0.4566 -0.2997
89888W        W32904  31.502  24.642  28.375  0.2583  0.0360 -0.1516
89889W        W32905  17.550  12.837  22.928 -0.1872  0.2120 -0.1947
89890W        W32906  21.644  33.813  19.371  0.1445 -0.1260  0.0548
89891W        W32907   3.539  20.969  21.180  0.0271 -0.1296  0.0029
89892W        W32908  15.459  28.737  18.350 -0.0922 -0.0627 -0.0711
89893W        W32909   7.961   0.411  19.148 -0.1194 -0.2078 -0.0130
89894W        W32910  28.314  19.317  20.144 -0.1517  0.0336 -0.2930
89895W        W32911  23.481  12.791  15.773 -0.1564  0.2673 -0.4038
89896W        W32912   9.376  10.342  17.596  0.1293 -0.2360  0.0978
89897W        W32913   8.817  20.091  19.646 -0.1372  0.0683 -0.3066
89898W        W32914  31.189  10.698  17.562 -0.0277  0.0418  0.0778
89899W        W32915  30.200   7.027  28.610  0.1577  0.3943 -0.2063
89900W        W32916   8.384   1.509   8.116 -0.1323 -0.2152  0.0538
89901W        W32917  14.435   2.650  15.616 -0.0562  0.1379  0.2212
89902W        W32918  17.006   5.264  14.159 -0.0535 -0.1398 -0.0122
89903W        W32919  28.116  25.972  18.767 -0.0877 -0.0005  0.1345
89904W        W32920  19.451   7.890  13.213 -0.0508 -0.2976 -0.1552
89905W        W32921  14.031  10.984  28.709 -0.1029  0.2919 -0.0616
89906W        W32922  32.387  19.841  24.801  0.1617  0.3094 -0.2866
89907W        W32923  30.219  31.619  18.147 -0.2398  0.0814 -0.0395
89908W        W32924   1.613  32.998  24.676  0.0207 -0.1403  0.1887
89909W        W32925  12.122   3.890  18.368  0.0539  0.2220  0.0659
89910W        W32926  26.735  12.437  18.979 -0.0235 -0.4107  0.3603
89911W        W32927   0.234  28.070  15.178 -0.0225 -0.0537 -0.1459
89912W        W32928  25.714  14.231  22.046  0.1690  0.0610 -0.0336
89913W        W32929   2.630   0.587  16.148  0.2234 -0.0441 -0.1598
89914W        W32930  25.907   7.635  21.831  0.1203 -0.2907 -0.0911
89915W        W32931  16.185  22.130  12.651 -0.1300 -0.0701  0.1530
89916W        W32932   7.775  32.866  26.901  0.1923 -0.0934 -0.0118
89917W        W32933  25.139  33.097  26.832  0.3036  0.3021 -0.0484
89918W        W32934  26.881  21.861  23.122 -0.1413 -0.1353 -0.3852
89919W        W32935  28.838  17.123  24.139 -0.3077 -0.3329  0.1681
89920W        W32936  12.075  13.610  19.414  0.2031  0.1212  0.2260
89921W        W32937  21.692  13.975  19.754  0.1937 -0.2391  0.2070
89922W        W32938  30.606  26.028  17.316 -0.1683  0.2395 -0.3428
89923W        W32939  18.884  32.071   8.638 -0.0788  0.2969  0.2889
89924W        W32940  14.853  14.563  13.188 -0.1939  0.3181  0.1691
89925W        W32941   2.436  25.299  20.789 -0.1535 -0.0063 -0.0398
89926W        W32942  26.433  17.650  27.715  0.0113  0.1338  0.0293
89927W        W32943  26.014  29.132  16.585  0.0964  0.0259  0.1458
89928W        W32944  25.176  15.706  17.804  0.1844 -0.2284 -0.0785
89929W        W32945  23.818  28.042  24.994  0.0368 -0.0064  0.0636
89930W        W32946  24.357  11.493  16.296  0.1143 -0.0325  0.3175
89931W        W32947   0.664   2.232  18.617 -0.1382  0.1005 -0.4244
89932W        W32948  14.754   9.664   3.870  0.1309  0.0982  0.0626
89933W        W32949  12.819   3.790  22.862  0.1671  0.2546  0.2192
89934W        W32950  21.589  23.230  24.449 -0.1521  0.0547  0.1522
89935W        W32951  10.220  22.113  18.411  0.0379  0.0408  0.4465
89936W        W32952  34.697  27.588  27.901 -0.0649 -0.0384 -0.0133
89937W        W32953   1.989  22.070  17.367  0.1615 -0.0689 -0.1353
89938W        W32954  10.625   6.299  17.270 -0.0898 -0.0572 -0.2557
89939W        W32955   6.750  18.818  22.920 -0.1903  0.2458 -0.2744
89940W        W32956  11.634  11.119  17.816 -0.3897  0.4049  0.3950
89941W        W32957  28.238  22.179  16.079 -0.0183 -0.2456 -0.1353
89942W        W32958  28.915  21.165  19.863 -0.3882 -0.0225 -0.0530
89943W        W32959   2.640  27.629   5.492  0.1587  0.1119 -0.1118
89944W        W32960  23.220   8.234   5.559 -0.1198  0.0684 -0.2148
89945W        W32961  19.998  15.700  21.169  0.0734 -0.2672 -0.1246
89946W        W32962  23.372  21.092   4.946  0.0041  0.0760  0.2022
89947W        W32963   1.765   4.220  15.633 -0.3122 -0.0510  0.0022
89948W        W32964  20.297  18.037  14.230  0.1314  0.0461  0.1567
89949W        W32965  26.504  14.070  25.426 -0.0073 -0.3021  0.0296
89950W        W32966  27.133  23.936  27.595  0.1196  0.3609 -0.0724
89951W        W32967  10.458   9.800  16.925 -0.0281 -0.2541  0.0199
89952W        W32968  26.463  12.676  21.631 -0.2620 -0.0695  0.0039
89953W        W32969   0.397  21.224  15.380 -0.1023  0.0947  0.0516
89954W        W32970  21.685  14.470  13.777  0.4023  0.2066  0.0761
89955W        W32971   8.223   9.473   7.731 -0.0455  0.0887  0.0119
89956W        W32972  22.093  17.881  13.485 -0.0999  0.0438 -0.0539
89957W        W32973  16.202  11.512  24.548  0.1804 -0.0479  0.1794
89958W        W32974  15.660  20.658  25.814 -0.2399 -0.3951  0.1532
89959W        W32975  10.719  19.703  23.194  0.0297 -0.2114  0.0554
89960W        W32976  22.759  17.975  21.823  0.2391 -0.2510  0.2464
89961W        W32977   0.415   3.895  20.433 -0.1160 -0.1413  0.0903
89962W        W32978   6.629  17.866  13.272  0.3354  0.0316 -0.4474
89963W        W32979   5.406  32.076  23.106 -0.0196  0.5028  0.0054
89964W        W32980   3.206  16.394   6.259  0.0569 -0.0162  0.1127
89965W        W32981  33.527  13.000  21.352 -0.0698  0.1009  0.2316
89966W        W32982  33.682   2.395  22.431  0.0174  0.0827 -0.0089
89967W        W32983   9.966   2.391  20.365 -0.0936  0.0217  0.2321
89968W        W32984  21.009  10.752  15.349  0.1443 -0.2542 -0.0395
89969W        W32985   9.334  12.479  23.730  0.0729  0.0615  0.0875
89970W        W32986  11.585  15.619  14.076 -0.0706  0.2397  0.2221
89971W        W32987  17.765   9.265  28.354 -0.2097  0.2414  0.0168
89972W        W32988  32.929   6.488  18.736  0.4192 -0.2039  0.0975
89973W        W32989   5.972  32.977  20.959  0.0629  0.0855 -0.0795
89974W        W32990  31.733  10.462  20.733 -0.1834  0.0439  0.4696
89975W        W32991  13.561  15.882  28.994 -0.0013 -0.0120 -0.0083
89976W        W32992  23.223  21.814  25.302 -0.1132 -0.3791 -0.1703
89977W        W32993  26.154  25.596  15.645 -0.0478 -0.3306  0.2241
89978W        W32994  22.474  10.779  19.555 -0.3259  0.0711  0.4282
89979W        W32995  26.071   5.812   3.826 -0.3253 -0.0526  0.0601
89980W        W32996  20.941  26.200  21.660 -0.0657  0.1797 -0.1423
89981W        W32997  16.981  29.817  21.111 -0.2043 -0.4017 -0.0077
89982W        W32998  28.515  32.175  19.522  0.2296 -0.2325 -0.2281
89983W        W32999  27.070  33.144  22.665 -0.0508  0.3796 -0.0721
89984W        W33000   2.505  18.536  20.024  0.1025 -0.2683  0.0953
89985W        W33001  25.836  26.210  17.423  0.0690  0.0495 -0.1679
89986W        W33002  11.672  12.876   1.295 -0.0500  0.1208  0.1697
89987W        W33003  11.957   5.849  14.485  0.1668 -0.1820 -0.0787
89988W        W33004  31.657  11.920   0.015 -0.0323 -0.0469  0.0856
89989W        W33005  16.722   4.915  16.594 -0.0728 -0.0721  0.0379
89990W        W33006  21.910   2.657  20.535 -0.0297  0.1809 -0.0734
89991W        W33007   0.459  16.443  19.043  0.0064  0.0827  0.0176
89992W        W33008   2.983  14.491  14.889 -0.5462 -0.4127  0.2927
89993W        W33009   8.226  18.735  20.385  0.1725 -0.0558  0.1628
89994W        W33010   0.599   1.263  17.596 -0.0049 -0.0824  0.0514
89995W        W33011  24.305  18.919  19.902  0.2219  0.0753  0.1210
89996W        W33012  25.985  15.258  15.741  0.1449 -0.1419  0.0626
89997W        W33013  13.875   5.681   8.318  0.2260  0.1430  0.0308
89998W        W33014  28.141  23.582  17.231 -0.0014  0.0167  0.0313
89999W        W33015  21.061   9.111  23.453 -0.0773 -0.0525  0.1089
90000W        W33016  33.644   0.652  18.634 -0.0948  0.0364  0.0762
90001W        W33017  16.109  13.917  12.870 -0.0548  0.1907  0.0376
90002W        W33018  17.571  14.938  14.061  0.1796  0.0331 -0.2371
90003W        W33019   0.486   7.273   3.378 -0.0827  0.2490  0.2817
90004W        W33020   9.691  11.931  16.731 -0.0331  0.0789  0.0727
90005W        W33021  16.453  24.864  13.754  0.3861 -0.3013  0.0973
90006W        W33022  32.416   8.697  19.538 -0.0387 -0.0447 -0.3504
90007W        W33023  30.098  23.199  20.060 -0.3706 -0.0502  0.0717
90008W        W33024  26.620   4.818  23.718 -0.4049  0.0200  0.0351
90009W        W33025  14.359   5.480   1.325 -0.2834  0.0040 -0.0037
90010W        W33026  20.477   9.136  16.849  0.0956 -0.4308  0.0020
90011W        W33027  12.040  32.705  27.605 -0.0815 -0.0967 -0.1921
90012W        W33028  11.059  12.903  19.444  0.1562  0.3543  0.1905
90013W        W33029  18.248  26.516  25.615  0.1141  0.0828 -0.0356
90014W        W33030  19.145  33.145  24.741  0.1162 -0.1173 -0.0881
90015W        W33031  28.130  23.567  26.473 -0.0361  0.1734  0.1497
90016W        W33032  22.163  28.875  21.848  0.1060  0.2475  0.0796
90017W        W33033  13.570  21.823  17.069  0.2187  0.0318 -0.1112
90018W        W33034  19.697  23.777  19.049 -0.0754  0.1458 -0.0300
90019W        W33035  26.680  23.457  18.468 -0.0770  0.1551  0.3573
90020W        W33036   3.446  29.779  20.892  0.2116  0.0035 -0.1770
90021W        W33037  33.374  22.283  29.116 -0.1263  0.4070  0.1580
90022W        W33038  14.384  29.063  16.477 -0.0376 -0.0379 -0.0685
90023W        W33039  24.866  23.425  27.136  0.0312 -0.0334  0.1106
90024W        W33040  23.763  11.070  19.878  0.1951 -0.0411 -0.1461
90025W        W33041   0.980  18.189  20.357  0.3288 -0.0193 -0.1101
90026W        W33042  13.132   6.051   0.069  0.0307  0.0937 -0.0231
90027W        W33043  24.415  15.517  16.789 -0.1026 -0.2370  0.0658
90028W        W33044   9.904   8.480  15.756 -0.2838  0.0065  0.0687
90029W        W33045  20.191  10.252  14.838 -0.2446  0.0245  0.1514
90030W        W33046  24.082  26.873  23.508  0.0753  0.0817 -0.0689
90031W        W33047  11.108  27.612  22.028  0.2525 -0.0109  0.1420
90032W        W33048  30.877  24.524  16.163 -0.0156 -0.0536  0.2057
90033W        W33049   5.187  22.183  25.664 -0.4255 -0.2306 -0.2787
90034W        W33050  20.984   0.349   5.965  0.0371 -0.2211 -0.3646
90035W        W33051  22.626  12.191  14.479 -0.4411 -0.0470  0.0086
90036W        W33052  18.661  15.396  13.383  0.0669 -0.0132 -0.0612
90037W        W33053  19.077   9.593  16.203 -0.1283 -0.0820  0.1783
90038W        W33054   4.699  33.843  19.312 -0.0349  0.0274 -0.2354
90039W        W33055   6.098  10.844  22.553  0.1013 -0.4395 -0.0580
90040W        W33056  17.521  16.410  16.341 -0.2765  0.3133 -0.0168
90041W        W33057  29.385  26.004  27.252 -0.1283 -0.3258  0.2223
90042W        W33058  21.923  11.857  14.024  0.0544  0.0116 -0.0980
90043W        W33059  16.465  30.890  16.150 -0.0206 -0.3755  0.2054
90044W        W33060  29.174  21.779  15.528 -0.0204  0.1121  0.0000
90045W        W33061  14.488   6.467  16.209  0.1588 -0.2553 -0.1375
90046W        W33062  17.507  23.849  13.539  0.0208 -0.3113  0.0897
90047W        W33063  11.036  26.601  16.755 -0.4761 -0.1674 -0.0617
90048W        W33064  15.079   8.145  21.786  0.2477  0.0038  0.1055
90049W        W33065  14.879  12.906  14.780  0.1298 -0.2613  0.1193
90050W        W33066  24.754  25.705  19.241 -0.0294 -0.0792 -0.0827
90051W        W33067  26.198  18.814  18.189  0.0127  0.1140 -0.0340
90052W        W33068  13.020  19.919   6.079 -0.0237  0.1965  0.0835
90053W        W33069  21.839   1.038   5.378 -0.0881  0.0282  0.0650
90054W        W33070  20.342  11.938  22.350  0.2571  0.0771 -0.0151
90055W        W33071  16.999  32.799  23.213 -0.1820  0.1572 -0.2666
90056W        W33072  16.737  10.009   5.060 -0.1422 -0.0414  0.0349
90057W        W33073  20.973  18.492   5.579 -0.4305 -0.3096 -0.1743
90058W        W33074  29.262  10.302  23.752  0.2754  0.0022  0.0933
90059W        W33075  31.612  24.797  25.871  0.0561 -0.3905 -0.2813
90060W        W33076  20.796  22.631  29.201 -0.0500  0.1922  0.2573
90061W        W33077  31.023  16.312  23.327  0.0597 -0.0303 -0.2157
90062W        W33078  28.705  13.447  19.515  0.2015  0.1355  0.1466
90063W        W33079  24.801   8.303  17.758  0.2761  0.1255  0.3998
90064W        W33080  25.460  10.116  19.370  0.2026 -0.3735  0.2585
90065W        W33081   1.733   1.565   1.841 -0.2431 -0.1057  0.2776
90066W        W33082   0.753  29.231  29.064 -0.2052  0.1030  0.2206
90067W        W33083  31.676  24.360  18.338 -0.1225  0.3497  0.1667
90068W        W33084  14.486   8.938  12.643  0.2350  0.0062  0.0417
90069W        W33085  23.630  12.169  18.949  0.0161 -0.1891 -0.2455
90070W        W33086  11.070  15.745  14.976 -0.0524 -0.0153 -0.0887
90071W        W33087  20.228  25.334   1.616  0.2605 -0.0139 -0.1779
90072W        W33088  11.867  11.923  15.511  0.4928  0.2998 -0.1842
90073W        W33089  19.340  19.212   1.975  0.1010 -0.3829 -0.1366
90074W        W33090  20.110  20.351  15.333 -0.2847  0.2021 -0.1493
90075W        W33091  28.821   7.122  20.733  0.1978  0.3579  0.0173
90076W        W33092  21.852  29.209  24.748 -0.3721  0.1860 -0.0614
90077W        W33093  16.900  25.518  15.511 -0.0130 -0.0143 -0.1498
90078W        W33094   4.548  30.427  15.428  0.1155 -0.1004  0.0927
90079W        W33095  23.765  23.654  18.735  0.0402  0.1078 -0.1819
90080W        W33096   8.738  11.513  24.151 -0.1032 -0.0614  0.1115
90081W        W33097   5.745  17.142  21.271  0.2674 -0.3047  0.0043
90082W        W33098  28.792  34.589  18.129 -0.2085  0.5075 -0.0094
90083W        W33099  25.992  12.539  21.570 -0.0917  0.1897  0.4472
90084W        W33100  27.781   4.146   7.004 -0.2390  0.0042  0.2528
90085W        W33101  30.845  27.292  25.932 -0.3606 -0.3407 -0.1388
90086W        W33102  24.159  14.246  25.875  0.2857  0.1054  0.1751
90087W        W33103  20.196   9.602  16.697 -0.2727  0.3001  0.2275
90088W        W33104  31.009  16.380  18.096 -0.0678  0.0011 -0.2282
90089W        W33105  29.567  15.188  18.367  0.1615  0.0586 -0.2150
90090W        W33106  17.061  28.660  21.113  0.1011 -0.1472  0.0567
90091W        W33107  18.798  12.065  14.744 -0.0435 -0.0356 -0.0192
90092W        W33108   4.302  34.704  21.929  0.0008  0.0832  0.0044
90093W        W33109  12.004  12.198  23.470  0.0644  0.1316 -0.0037
90094W        W33110   7.722  15.188  18.827  0.0895  0.1599  0.1611
90095W        W33111  32.202   1.768  24.777 -0.0511 -0.0216  0.0784
90096W        W33112  20.653   3.024  23.269  0.3451  0.1647  0.2718
90097W        W33113  18.544  23.577  13.115  0.2090 -0.0269  0.0647
90098W        W33114  21.698  18.910  13.242  0.2735  0.0370 -0.0380
90099W        W33115  25.149  19.613  21.615 -0.1191  0.3851  0.1404
90100W        W33116  23.475  21.693   1.500  0.0440 -0.1253 -0.1333
90101W        W33117   6.073  14.829  17.455 -0.0961  0.2669 -0.2771
90102W        W33118  22.492  19.146  15.619 -0.0204 -0.3640 -0.3902
90103W        W33119  32.946  14.780  14.742  0.0948 -0.0485  0.2053
90104W        W33120  32.940  13.239  24.270 -0.2714 -0.1353 -0.2354
90105W        W33121  11.624  16.721   0.438 -0.1302  0.0537 -0.0071
90106W        W33122  11.031  11.114  25.022  0.2043  0.2156 -0.2525
90107W        W33123  33.208   2.708  26.084 -0.0219  0.0852  0.2365
90108W        W33124  18.272  19.545  23.005 -0.0472  0.1215 -0.2557
90109W        W33125  18.901  34.069   2.576  0.2696  0.5405  0.1461
90110W        W33126  17.655  17.868  15.356  0.2117 -0.1800 -0.1501
90111W        W33127  11.957  12.383  25.059  0.1633 -0.2456  0.2876
90112W        W33128  24.133   2.125  18.727 -0.1331  0.0551  0.1358
90113W        W33129  28.428  23.049  25.770  0.0141  0.1122 -0.0373
90114W        W33130  21.631   2.941  18.986  0.0309  0.0167  0.0239
90115W        W33131  24.829   8.960  24.442 -0.1104 -0.1890 -0.2191
90116W        W33132   5.755  17.050  16.612 -0.1025  0.3238 -0.1113
90117W        W33133  30.989  18.843  20.051 -0.1511 -0.1494  0.1270
90118W        W33134  20.435  27.282   5.334 -0.1160 -0.1990 -0.0955
90119W        W33135  20.120   8.730  20.935 -0.0599  0.0138 -0.1696
90120W        W33136  12.056  27.978  22.044  0.2143 -0.2187  0.1084
90121W        W33137  18.338   5.597  20.836 -0.5172  0.2089 -0.0420
90122W        W33138  20.765  34.543  17.596 -0.1728 -0.0135 -0.0218
90123W        W33139  27.787  15.456  21.931 -0.1044 -0.0439  0.0707
90124W        W33140  29.265  34.365  23.174  0.1133 -0.0613  0.1073
90125W        W33141   6.967  22.467   0.938 -0.2586  0.1327 -0.5188
90126W        W33142  14.072  14.837  21.357  0.0765 -0.0340 -0.1360
90127W        W33143  24.313  26.021  18.694 -0.1528  0.2210  0.2119
90128W        W33144  18.761  27.427  23.212  0.1059  0.0718 -0.0108
90129W        W33145  21.149  13.385  18.285  0.0534 -0.1758  0.3889
90130W        W33146  30.558  15.591  15.250  0.0745  0.0842 -0.3017
90131W        W33147  33.047  32.729   3.813 -0.0436 -0.0053  0.4026
90132W        W33148  22.534  10.157  16.841 -0.0615 -0.2702  0.2640
90133W        W33149  17.537   2.680   8.412 -0.0147  0.0925 -0.0365
90134W        W33150  16.465  20.438  27.739  0.1767  0.0393  0.0064
90135W        W33151  23.556  15.705  27.637  0.0422  0.1681  0.3092
90136W        W33152  34.639  12.021   9.364  0.0291  0.0897  0.2023
90137W        W33153   8.623  22.188  18.388 -0.1859  0.0529  0.2914
90138W        W33154  23.636  29.340  18.512 -0.1381  0.1038 -0.3381
90139W        W33155   8.247  16.859  13.403  0.0958 -0.1033  0.1231
90140W        W33156   8.922   3.445  22.109 -0.2479  0.0624  0.1134
90141W        W33157  14.322  13.572  15.203 -0.1304  0.0423  0.3014
90142W        W33158  27.455  13.761  16.933 -0.0685 -0.0167 -0.1572
90143W        W33159  32.890  13.123  22.512  0.4655  0.2598 -0.2227
90144W        W33160   3.900   1.045  29.143 -0.2918  0.0481 -0.1252
90145W        W33161  14.199   5.810  15.357  0.3130 -0.2905  0.2547
90146W        W33162   6.546  25.528  26.224  0.0528 -0.0461  0.2892
90147W        W33163  11.162  23.458  19.391 -0.2408 -0.1322 -0.0158
90148W        W33164  23.161   4.073  24.585 -0.0467  0.0642 -0.0590
90149W        W33165  27.232  12.339  19.146 -0.1022 -0.1067  0.2650
90150W        W33166  18.024  21.369  25.605 -0.0373 -0.4549  0.1929
90151W        W33167  25.666  30.272  26.009 -0.2278 -0.1919 -0.2561
90152W        W33168  26.311  23.637  16.808 -0.2837 -0.0003  0.3597
90153W        W33169  25.449  18.676   2.597  0.0720  0.1354  0.5051
90154W        W33170  18.143  33.173  20.187  0.2025  0.1311  0.0339
90155W        W33171  18.142  33.722  28.345 -0.0207  0.2094  0.0515
90156W        W33172  21.787  17.055  12.955  0.0720  0.1361  0.1446
90157W        W33173  24.260  27.278  22.188 -0.0262 -0.1844 -0.2881
90158W        W33174  24.662   9.825  17.462 -0.0035 -0.1180  0.3659
90159W        W33175   8.880  14.270  25.915  0.0922  0.2512  0.1930
90160W        W33176   4.194   1.840  17.572 -0.3280 -0.1412  0.1212
90161W        W33177  32.738  32.606  23.230  0.0581 -0.0165 -0.1709
90162W        W33178  28.242  33.406  22.313 -0.0455 -0.1896 -0.1364
90163W        W33179  22.344   8.387  17.981  0.0347 -0.4598  0.1909
90164W        W33180   6.853  15.110  20.049 -0.0446  0.2213  0.2394
90165W        W33181  17.583  13.081  24.488  0.0973  0.1197  0.1509
90166W        W33182  21.593   9.297  18.931 -0.1916  0.0953  0.0618
90167W        W33183  22.563  26.899  21.288  0.2410  0.0970  0.1488
90168W        W33184  12.254  21.241  14.597 -0.0825 -0.1605 -0.0496
90169W        W33185   2.358  16.993  22.046 -0.0826  0.1860  0.0376
90170W        W33186  30.955  25.546   5.072  0.0673  0.1289  0.2455
90171W        W33187   7.235  31.806  24.173  0.1519  0.2482  0.0159
90172W        W33188   1.721  20.954  21.059 -0.0658 -0.3386 -0.1002
90173W        W33189  19.991  27.430  14.792  0.0998 -0.0790  0.1712
90174W        W33190  31.761  11.415  29.188  0.1208  0.1340  0.0165
90175W        W33191  22.475  28.606  20.867  0.0029  0.1681  0.2149
90176W        W33192  11.541  19.260  28.906  0.1914  0.0716 -0.2539
90177W        W33193  25.316  13.218  27.610 -0.1183 -0.0800 -0.1200
90178W        W33194  14.021  13.487  12.718 -0.0963 -0.1458 -0.0112
90179W        W33195  22.496  31.598  19.444  0.0041  0.3189  0.0010
90180W        W33196  23.141  28.281  20.025  0.1162  0.0552 -0.1587
90181W        W33197  31.301  29.936  16.939 -0.0511  0.1267 -0.2425
90182W        W33198  25.714  15.712  13.660  0.2167  0.0758 -0.0354
90183W        W33199  20.934   0.195  20.991  0.1901  0.1405 -0.1000
90184W        W33200  30.433   4.819   6.668 -0.1483 -0.1068 -0.0658
90185W        W33201  28.430  18.457  22.194  0.1120  0.1477  0.1029
90186W        W33202  25.352  25.964  15.972  0.0255 -0.1918  0.1153
90187W        W33203  10.147   3.618  20.911 -0.3707  0.3821  0.5423
90188W        W33204  18.382  10.551  12.657  0.1951 -0.0031  0.1819
90189W        W33205   9.087  14.979  15.711 -0.2565  0.1822 -0.3207
90190W        W33206  17.293  20.589  12.033 -0.1709  0.1092 -0.0059
90191W        W33207  20.825  30.610  16.572  0.1647 -0.4139 -0.2358
90192W        W33208  14.621   5.383   2.359 -0.2228  0.1012  0.0307
90193W        W33209  28.637  17.011  25.380 -0.0095  0.4008 -0.2708
90194W        W33210   2.034   5.896  27.731  0.0066  0.1511  0.1911
90195W        W33211  10.626  13.149  14.765  0.0992  0.1803  0.0591
90196W        W33212   7.800  23.058  16.819 -0.0067 -0.1598  0.2390
90197W        W33213  23.272  24.492  18.649 -0.3429 -0.1422 -0.1260
90198W        W33214  10.956   9.847  13.690  0.1184 -0.0972  0.1050
90199W        W33215  33.700  31.835  16.099 -0.0165 -0.1648 -0.0775
90200W        W33216  16.360  10.065  25.708 -0.1450 -0.2078  0.1922
90201W        W33217   8.702   1.796  21.664 -0.0426 -0.1249  0.0865
90202W        W33218  31.097  11.330  21.159  0.2328  0.1170 -0.0710
90203W        W33219  11.398   6.271   6.780  0.1678  0.0972 -0.0601
90204W        W33220  23.646  20.986   1.371 -0.0422  0.0442  0.1699
90205W        W33221   9.351  17.355  18.999 -0.0855 -0.1978  0.0223
90206W        W33222  27.446  17.115  19.804 -0.2481  0.1121 -0.3349
90207W        W33223  20.586  16.754  25.582  0.2457 -0.1064  0.2692
90208W        W33224  19.579  26.365  14.329  0.2264  0.2471  0.2361
90209W        W33225   5.750  22.152   2.930  0.0199  0.1758  0.1944
90210W        W33226  13.950  22.879   3.272 -0.0132 -0.1151 -0.2761
90211W        W33227  22.712   7.696  16.205 -0.1917 -0.0469  0.0761
90212W        W33228  31.724  16.273  16.296  0.1682 -0.0869  0.0474
90213W        W33229  11.595   9.723  22.187 -0.1026  0.0786  0.1205
90214W        W33230  22.261  14.439  16.029  0.1890 -0.2413  0.1130
90215W        W33231  31.413  28.245  19.437  0.5051  0.0492  0.3154
90216W        W33232  31.878  11.701  23.019 -0.2562  0.2385 -0.0715
90217W        W33233  17.148  25.398  24.983 -0.1293 -0.0072 -0.0864
90218W        W33234  17.952  12.786  24.673  0.5235 -0.0464  0.3084
90219W        W33235   7.733  18.448  15.763  0.3556  0.1467  0.0490
90220W        W33236  31.924  24.465   3.729 -0.1919 -0.1600 -0.0115
90221W        W33237  18.556  24.776  19.771 -0.1341 -0.0121 -0.1740
90222W        W33238  27.599  28.099  18.367 -0.4252 -0.0545 -0.0652
90223W        W33239  22.753  27.822  21.397 -0.1715  0.0436 -0.0811
90224W        W33240  34.292   1.374  26.206  0.2093  0.0727  0.1975
90225W        W33241  28.032  31.812  27.794  0.1499  0.1589 -0.2502
90226W        W33242  21.536   8.289  22.901  0.1649 -0.0888 -0.0800
90227W        W33243  33.188  12.523  23.832  0.1625 -0.1064 -0.0199
90228W        W33244  18.871   4.736  29.103 -0.0470  0.1175 -0.1868
90229W        W33245  26.411  20.795  22.626  0.2955  0.3324 -0.0016
90230W        W33246  19.435  24.555  15.536 -0.1574  0.1322  0.3526
90231W        W33247  27.853  11.769   0.850  0.2066  0.2150  0.0906
90232W        W33248  23.712   8.614  17.085  0.1019  0.1611  0.3297
90233W        W33249  26.983   4.762  15.021  0.1905 -0.0478 -0.1668
90234W        W33250  23.764  17.786  24.540 -0.1773 -0.2544 -0.0457
90235W        W33251   1.093  27.209   2.477 -0.0103  0.3267 -0.1039
90236W        W33252  26.826   0.280  16.798  0.1533 -0.2682  0.0289
90237W        W33253  10.924  13.923  16.373 -0.2927  0.4224 -0.2227
90238W        W33254  19.715  30.064  27.936  0.1515  0.0219 -0.0193
90239W        W33255  16.674   9.146  16.901  0.0712  0.0623 -0.2474
90240W        W33256  12.820  16.839  28.458 -0.1203 -0.0191  0.1315
90241W        W33257  14.715  12.593  13.140 -0.0941  0.0115 -0.0359
90242W        W33258  30.121  13.669  20.007  0.0512 -0.1620 -0.2235
90243W        W33259  25.636  24.115  22.850  0.0821 -0.1329  0.0322
90244W        W33260  10.502  30.149  22.764  0.0500 -0.3592  0.1033
90245W        W33261  26.288  15.879  21.434  0.4225  0.0898 -0.1238
90246W        W33262  24.396  18.971  16.873 -0.2239  0.4651  0.0265
90247W        W33263  10.019  18.094  18.213 -0.0746  0.1599  0.0528
90248W        W33264  28.790  22.247  16.873 -0.0174  0.1235  0.2691
90249W        W33265  19.413   5.373  24.196 -0.0753  0.2386 -0.0768
90250W        W33266  25.760  11.204  25.908  0.0315  0.3836  0.4056
90251W        W33267  23.668   1.997  24.393  0.1675  0.4074 -0.1267
90252W        W33268   2.668  24.177  18.386 -0.0984  0.0024 -0.0121
90253W        W33269  17.165   8.933  14.752 -0.0994  0.1360  0.0573
90254W        W33270  33.437  16.086  16.412 -0.2733 -0.2477 -0.0157
90255W        W33271  13.271  10.624  16.231  0.2594 -0.1597 -0.2131
90256W        W33272  21.838  13.199  27.953  0.1928 -0.3825 -0.2573
90257W        W33273  23.362   4.976  19.764  0.2490 -0.0331  0.0597
90258W        W33274  18.525   2.283  21.627 -0.2188  0.1045  0.2466
90259W        W33275  15.949  17.344  15.737  0.0597  0.2802 -0.0457
90260W        W33276  22.377  12.144  18.779  0.0033  0.2188  0.3335
90261W        W33277  18.979  24.476  22.174  0.2550 -0.1940 -0.1237
90262W        W33278  31.025   5.753  16.882 -0.1997 -0.1263 -0.3598
90263W        W33279  23.131  27.240  19.573 -0.4113  0.0198  0.1798
90264W        W33280  15.461  22.871  21.551  0.2864 -0.3057 -0.1026
90265W        W33281  17.776  30.012  24.583  0.3983  0.0326 -0.2814
90266W        W33282  32.699  25.522   5.040  0.2035 -0.0909 -0.0999
90267W        W33283  23.168   4.041   1.720  0.2605 -0.0211  0.1374
90268W        W33284  28.925  30.054   6.482  0.0987  0.1143  0.0953
90269W        W33285  20.684  34.561  16.380  0.1204  0.0551  0.0742
90270W        W33286   7.817  27.492   0.662  0.1008  0.2356 -0.1652
90271W        W33287  29.779  13.619  15.288 -0.1465  0.0129 -0.1167
90272W        W33288  10.112  12.577  16.652 -0.1083  0.1606  0.6153
90273W        W33289  21.620   0.829  23.495  0.1937 -0.2604  0.0679
90274W        W33290  13.691   4.997  19.712 -0.0084  0.0251 -0.2859
90275W        W33291   6.721  19.111  22.100  0.0126  0.1963 -0.0443
90276W        W33292   4.507  27.714  26.289 -0.0826  0.0775  0.1130
90277W        W33293  26.253  12.997  23.753  0.0061  0.1245  0.3214
90278W        W33294  10.640  29.436  22.096 -0.1783 -0.2426 -0.3507
90279W        W33295  11.565   7.867  18.807 -0.5307 -0.0241 -0.1895
90280W        W33296  17.481  21.664  15.863 -0.0100 -0.1554  0.1102
90281W        W33297  11.971   8.185  27.939  0.0676  0.3552  0.1009
90282W        W33298  24.054  23.285  20.063 -0.2472 -0.1893  0.0749
90283W        W33299   4.609  14.742  21.287 -0.2098  0.4693 -0.1569
90284W        W33300  20.319  31.379  27.717  0.1916 -0.4121  0.1679
90285W        W33301  17.623  28.062  23.171 -0.0217  0.2761 -0.2760
90286W        W33302  17.638   8.660  16.598 -0.0942  0.2118  0.0292
90287W        W33303  27.163  21.182  16.918 -0.0816  0.1297 -0.2269
90288W        W33304   9.181   4.913  16.818  0.2813  0.2480  0.0459
90289W        W33305  19.169  12.316  25.543 -0.0658 -0.0481  0.4325
90290W        W33306   4.872   4.232  19.065 -0.1613 -0.0049 -0.3426
90291W        W33307  28.762  20.802  23.416 -0.2577  0.4348  0.2603
90292W        W33308  27.313   8.440  16.331  0.3373  0.1359  0.1150
90293W        W33309  19.112  24.204  19.822 -0.0619 -0.2132  0.2923
90294W        W33310  21.538  13.442  25.546  0.0699  0.1233  0.0644
90295W        W33311  29.319  15.587  21.488 -0.0072 -0.0186 -0.2228
90296W        W33312  28.228  12.513  27.691 -0.0509 -0.1293  0.0700
90297W        W33313  24.077  15.385  26.670 -0.1066  0.1173 -0.0675
90298W        W33314   3.789  14.292  18.647  0.0524 -0.0250  0.2496
90299W        W33315  13.530  24.803  16.799 -0.0151 -0.1252 -0.0360
90300W        W33316  16.097  32.531  19.929  0.0096  0.1114 -0.2120
90301W        W33317  19.695   6.498  22.966 -0.0768 -0.1221  0.0052
90302W        W33318  30.111  17.455   3.759 -0.0815 -0.1154 -0.3863
90303W        W33319  19.754  19.927  23.204 -0.0706 -0.0293  0.0968
90304W        W33320  23.964  18.538  25.761  0.1926  0.0000  0.0563
90305W        W33321  10.541  14.969  17.990  0.0899  0.1792  0.0349
90306W        W33322   4.498  31.536  29.153  0.1881 -0.2117 -0.0915
90307W        W33323  14.279   1.550  14.461 -0.0122  0.0893 -0.1450
90308W        W33324  24.326  34.584   3.224  0.1331 -0.0903 -0.3278
90309W        W33325  30.427  24.864  10.197  0.1596  0.1418  0.0159
90310W        W33326  17.883  31.357  10.100 -0.0855  0.0256  0.1880
90311W        W33327  20.285   0.797  24.740  0.0823  0.0769  0.1168
90312W        W33328  13.198   6.910   3.834  0.0226  0.0244  0.1453
90313W        W33329  30.091  13.122   0.362 -0.1016  0.0599 -0.1139
90314W        W33330  33.419  31.127  20.341  0.0073 -0.2150 -0.2000
90315W        W33331  29.735  11.413   6.849  0.0677 -0.1050  0.1181
90316W        W33332   7.852  15.051  23.733  0.0106 -0.2612  0.0295
90317W        W33333  23.612   8.823  20.668 -0.0027  0.0407 -0.1244
90318W        W33334  17.572  13.831   4.003  0.4240 -0.1019  0.1333
90319W        W33335   5.748  15.055  25.237 -0.1507 -0.2533  0.1488
90320W        W33336  18.291  13.149  12.706  0.2975  0.0851  0.0423
90321W        W33337  27.343  14.453   7.361 -0.1620 -0.1466  0.3139
90322W        W33338  10.318  11.712  22.855 -0.0976  0.0541 -0.0921
90323W        W33339  18.788   6.578  25.174  0.1239  0.3092 -0.1040
90324W        W33340  13.464   2.446  20.683 -0.0094  0.0573  0.1950
90325W        W33341  19.981  31.004  16.741 -0.0540 -0.0336 -0.0250
90326W        W33342  23.378  11.950  16.896 -0.0545  0.4661  0.0006
90327W        W33343   3.645  23.071   2.712 -0.0765  0.1246 -0.2054
90328W        W33344  33.174   5.739  29.253 -0.2169 -0.2867 -0.1521
90329W        W33345   7.965  20.101  24.586 -0.0348 -0.1013  0.1181
90330W        W33346  14.579   7.346  19.424  0.0347 -0.3363 -0.0980
90331W        W33347  26.258  19.771  27.646  0.3782 -0.2644  0.0655
90332W        W33348  11.036  15.625  25.392 -0.0942 -0.0909 -0.2111
90333W        W33349   4.386  24.263  22.736 -0.0881 -0.1798 -0.0770
90334W        W33350  19.531  22.863  21.365 -0.2889  0.1372  0.1974
90335W        W33351  27.079  13.817  28.038 -0.2938 -0.1455  0.0310
90336W        W33352  21.386  19.420   8.036  0.0228  0.3985 -0.1551
90337W        W33353  12.929  19.678   3.094  0.0864 -0.0655 -0.3242
90338W        W33354  23.294  12.539   6.869 -0.2584  0.0656  0.0128
90339W        W33355  28.093  10.029  27.624 -0.1501 -0.0045 -0.1630
90340W        W33356   1.878   4.209   3.465  0.0661  0.0403  0.2531
90341W        W33357  25.106  23.656  23.427  0.0796  0.2559  0.1410
90342W        W33358  29.863  18.596  25.011 -0.1841  0.1883  0.1357
90343W        W33359  15.153  19.408   7.254 -0.0319  0.0991 -0.0822
90344W        W33360  10.026  18.060  17.634  0.0758 -0.0919  0.1000
90345W        W33361  10.712   5.270   8.308  0.0684 -0.0974 -0.0603
90346W        W33362  29.264  20.297  27.671 -0.0701 -0.0928  0.0508
90347W        W33363   8.456  34.605  27.337  0.0575  0.2035  0.1313
90348W        W33364  20.165   0.103  23.840 -0.1703 -0.2053  0.0250
90349W        W33365  28.247  13.244  23.345  0.3743 -0.0462  0.0206
90350W        W33366  10.088   8.626   3.350  0.1774 -0.1939 -0.0029
90351W        W33367  20.935  11.773   1.611 -0.3827  0.1039 -0.2279
90352W        W33368  16.586  28.071   2.271 -0.0354  0.1941  0.0179
90353W        W33369  12.476  24.356   3.226  0.0298  0.1349  0.0671
90354W        W33370  14.257  26.535  15.380  0.3702  0.1012 -0.1225
90355W        W33371  15.574  17.167  29.314  0.3549 -0.1913 -0.0136
90356W        W33372  20.338  30.952   0.832 -0.1599 -0.0362  0.1465
90357W        W33373   4.149  34.655  15.309 -0.1841  0.1026 -0.1838
90358W        W33374  33.658  17.335  19.799  0.0235 -0.0026 -0.2930
90359W        W33375  23.153   7.561  25.564 -0.1440  0.3102 -0.2736
90360W        W33376  26.788  13.552   2.953 -0.0063  0.0260  0.0498
90361W        W33377  29.312  27.062  27.380  0.2018 -0.1293 -0.1930
90362W        W33378  16.085  28.293   5.841 -0.1039 -0.2333 -0.1347
90363W        W33379  20.677  18.703  29.236 -0.1895 -0.0283  0.3718
90364W        W33380  34.180  22.571   4.283 -0.0162  0.0507 -0.1155
90365W        W33381  17.773  34.661   7.175  0.1203  0.0804 -0.1031
90366W        W33382  23.849  13.058  28.848 -0.1634  0.3213 -0.4252
90367W        W33383  10.365  10.569  27.444  0.2919  0.1756  0.1193
90368W        W33384  25.854  21.000  17.401  0.0049 -0.1233 -0.2373
90369W        W33385  24.282  32.421   7.808 -0.3646  0.1031 -0.1977
90370W        W33386  19.607  25.614   6.053 -0.0074  0.0766  0.2018
90371W        W33387   3.738   7.120  25.191  0.0673 -0.0064  0.0380
90372W        W33388  34.455   6.320  18.759  0.1577 -0.2516  0.1007
90373W        W33389   2.268   7.850  15.410  0.1416  0.0406 -0.0381
90374W        W33390  13.863  21.439   5.987 -0.0580  0.1096 -0.1603
90375W        W33391  31.730   4.514  15.538  0.1488  0.1208  0.0447
90376W        W33392  24.530  23.305   0.544  0.3194  0.0558  0.4557
90377W        W33393  20.933  27.305  23.649  0.2059 -0.2935 -0.1539
90378W        W33394  19.610  21.683  22.247 -0.3482  0.1109  0.1027
90379W        W33395  11.016  32.243   7.368  0.1911 -0.0050 -0.0216
90380W        W33396  29.321  12.055   1.479  0.0862  0.1952 -0.3997
90381W        W33397  12.067  20.746   5.090 -0.0644  0.0462 -0.1243
90382W        W33398   7.858   7.130  26.889 -0.0016 -0.1352  0.0649
90383W        W33399  26.574  12.221   2.986 -0.0971 -0.1229  0.1766
90384W        W33400  21.618  20.709  27.941 -0.1114  0.0895  0.1396
90385W        W33401  24.924  33.913  16.531  0.1042  0.3480  0.2024
90386W        W33402  17.538  18.972   7.140 -0.3221 -0.0016 -0.1569
90387W        W33403  25.075  22.245  25.300  0.0014 -0.2956  0.2797
90388W        W33404   7.671  23.702  14.860 -0.0373  0.1162 -0.1918
90389W        W33405  30.904  13.384   3.009  0.2331  0.2339  0.1490
90390W        W33406  23.276  31.331  21.645  0.3647  0.1347  0.2835
90391W        W33407  17.525  26.152  21.287 -0.0585  0.0370 -0.1472
90392W        W33408  28.855  14.443   6.114  0.0080 -0.1231  0.1347
90393W        W33409  22.677  18.956   0.168  0.3955  0.1714  0.1438
90394W        W33410  13.927  22.112  19.971 -0.1458 -0.1699 -0.0291
90395W        W33411  25.006   9.093  18.536 -0.0704 -0.1377  0.0618
90396W        W33412  26.055   6.344  10.512 -0.1528 -0.0570 -0.0162
90397W        W33413  21.686  30.430   8.652  0.0408  0.0520  0.3775
90398W        W33414   0.897  25.445  20.480 -0.1776 -0.4270 -0.0116
90399W        W33415  20.350  28.248   9.530  0.0643  0.2743  0.0366
90400W        W33416  23.525   5.392  20.549 -0.2513 -0.1588 -0.1628
90401W        W33417   6.922  20.528  21.468 -0.0589 -0.0702 -0.0611
90402W        W33418  33.146  10.497  23.582 -0.0172  0.2775 -0.1243
90403W        W33419   9.276  28.583  19.009 -0.1627 -0.1093  0.1107
90404W        W33420  15.368  15.773  14.966 -0.3133  0.0491 -0.3193
90405W        W33421  33.366  16.498   7.010 -0.0744 -0.1334 -0.0302
90406W        W33422   4.580  22.454  19.870  0.0407  0.0995  0.0962
90407W        W33423  26.377  19.694  18.974  0.0129 -0.2947 -0.1879
90408W        W33424  10.983  14.300   7.721  0.1235 -0.0658 -0.0344
90409W        W33425  27.362  12.214  24.331  0.3582 -0.1424 -0.2348
90410W        W33426  33.748  12.929   7.137 -0.0725  0.1233  0.1611
90411W        W33427   7.642   5.284  16.126 -0.2877 -0.3209  0.0283
90412W        W33428  30.116  31.166  25.063 -0.1352 -0.2056  0.0218
90413W        W33429  13.843  18.423  25.114  0.2175  0.0099 -0.0512
90414W        W33430   1.032  20.151   5.854  0.0166  0.3147 -0.1197
90415W        W33431  31.906   3.701   4.599  0.0550  0.3811  0.1223
90416W        W33432  17.387  21.003   0.169  0.1435 -0.1662 -0.3101
90417W        W33433   7.223  34.085  24.390  0.0432 -0.0944  0.0127
90418W        W33434  27.652  11.215   6.408 -0.1330  0.1429 -0.0539
90419W        W33435  31.978  18.547  10.267  0.2247  0.1086 -0.3311
90420W        W33436  27.325  15.520  27.657 -0.1491 -0.2987 -0.1160
90421W        W33437  17.476  20.204   0.997  0.2167 -0.4100  0.2363
90422W        W33438  20.945  22.773   4.226 -0.0793 -0.4063 -0.0875
90423W        W33439  24.496  25.004  20.595  0.2475  0.1077 -0.1000
90424W        W33440  20.901  15.916   1.869  0.1776 -0.1846  0.2899
90425W        W33441  27.458   0.089  26.220 -0.1467 -0.2829  0.1547
90426W        W33442  23.845   6.107   9.754  0.0284  0.2782  0.1198
90427W        W33443   6.588   6.466  25.860 -0.0820  0.2575  0.2342
90428W        W33444  18.484  20.881  13.234  0.0610 -0.1319  0.0449
90429W        W33445   6.522  22.532   3.339  0.1223  0.2736 -0.0879
90430W        W33446  23.720   9.810  17.815 -0.0925  0.2097  0.0056
90431W        W33447  15.912  18.571  23.255 -0.0675  0.4152 -0.1354
90432W        W33448  18.091  27.258  25.445 -0.0264 -0.0622 -0.0743
90433W        W33449  26.599  20.864  16.339 -0.0584 -0.1027 -0.1913
90434W        W33450  12.577  12.866  18.287  0.0607 -0.2873  0.1342
90435W        W33451  18.245  18.766  28.655 -0.2266  0.1390  0.1502
90436W        W33452  18.316  32.874   1.282 -0.0336  0.0764 -0.0252
90437W        W33453  19.443  30.138  20.995  0.2433  0.0637  0.2876
90438W        W33454  24.812  21.226  25.762  0.1829 -0.4948 -0.0542
90439W        W33455  15.064  16.269   0.860 -0.0819 -0.2449  0.1448
90440W        W33456  27.131  21.496   8.332  0.1391 -0.2177 -0.0925
90441W        W33457  19.875  16.376  19.689 -0.1051 -0.0273 -0.0821
90442W        W33458  19.546   0.529  28.237  0.1234 -0.3156  0.0045
90443W        W33459  28.590  13.658   7.785 -0.5912 -0.1939 -0.2162
90444W        W33460  29.745   8.340   9.003 -0.2043  0.2867  0.0805
90445W        W33461  24.891  23.565  18.116 -0.1510  0.2292  0.0087
90446W        W33462  22.999  16.290  24.416  0.2205 -0.1317 -0.1744
90447W        W33463   0.054  20.992  10.648  0.0778 -0.2394 -0.3902
90448W        W33464  29.709  20.099   1.818  0.1563  0.1036 -0.2152
90449W        W33465  18.119  16.660  27.554  0.1848  0.0133  0.2203
90450W        W33466  28.426  21.923  28.904 -0.2658  0.2845  0.1093
90451W        W33467  22.233  33.787  26.474 -0.0098  0.1043 -0.1227
90452W        W33468  23.359   5.891   3.589  0.1811  0.2236 -0.1174
90453W        W33469  22.685  23.736   5.223 -0.2316  0.0209 -0.0398
90454W        W33470  21.633   3.036  18.393 -0.1561  0.5337  0.2483
90455W        W33471  10.946  28.164   1.895 -0.0187 -0.2576  0.1365
90456W        W33472  31.211  21.437  23.522  0.0039  0.0860  0.1051
90457W        W33473  15.474   8.765  24.419  0.1961 -0.1056  0.0659
90458W        W33474   1.800   7.729  16.496  0.1193  0.3526 -0.0936
90459W        W33475  22.615  25.070   8.100 -0.0529 -0.0328  0.2481
90460W        W33476  20.329  22.618   9.045 -0.0151 -0.1036 -0.1647
90461W        W33477  23.925  29.181  24.410  0.1230  0.0508  0.3037
90462W        W33478  23.849  12.719  19.731 -0.1451 -0.1085  0.0433
90463W        W33479  21.594  21.395   3.697  0.2549  0.1414 -0.0733
90464W        W33480  17.641  14.640   6.840  0.1995  0.0332  0.0129
90465W        W33481  19.794  14.204  11.581  0.3677 -0.0773  0.4043
90466W        W33482  13.061  23.259  15.046  0.0312 -0.2221  0.2015
90467W        W33483  11.151  19.090  17.640  0.4367  0.4609 -0.0555
90468W        W33484  27.108  31.912   4.770 -0.0181  0.0015 -0.3141
90469W        W33485  26.350  30.565   1.911  0.1141  0.1415 -0.0391
90470W        W33486   0.020   3.283   7.629  0.1383  0.4425 -0.0638
90471W        W33487   2.679  24.056  23.651  0.2013  0.1431  0.2488
90472W        W33488   2.192   8.939   9.010  0.1597  0.0603 -0.1634
90473W        W33489  16.914   5.554  23.821 -0.0815 -0.0592 -0.1640
90474W        W33490  23.203  12.221  14.397 -0.0298  0.1448  0.1117
90475W        W33491  12.123  26.545  14.451 -0.2612  0.3378 -0.1188
90476W        W33492  25.257  15.618  13.498 -0.4318  0.1117  0.1019
90477W        W33493  23.705   7.015  23.851  0.0512  0.4740 -0.0004
90478W        W33494  18.880  20.884   7.483  0.0848 -0.1098 -0.0056
90479W        W33495  21.018  19.428  13.456  0.0324  0.2702  0.0882
90480W        W33496   7.324  18.910  22.847  0.0487  0.1562  0.2123
90481W        W33497  28.670  25.981   0.227 -0.3006 -0.1051 -0.1071
90482W        W33498   5.933   3.740  19.383  0.0144  0.1129  0.2653
90483W        W33499   0.545  22.077   6.628  0.0976 -0.2748 -0.0077
90484W        W33500  29.919  19.308   3.699  0.1002  0.2200  0.0243
90485W        W33501  12.469  25.930  19.516 -0.1131 -0.1867 -0.0952
90486W        W33502  31.056  33.052   7.191 -0.3243 -0.0562  0.4242
90487W        W33503  17.630  28.731  15.840 -0.1857  0.0129 -0.1980
90488W        W33504  21.248  13.420  13.575  0.0324  0.2006  0.3507
90489W        W33505  22.735  13.571   1.788 -0.0769  0.1163 -0.0773
90490W        W33506  28.762  15.320  15.707 -0.0446  0.0631  0.0298
90491W        W33507  20.842   9.239  17.247 -0.3684  0.2507 -0.1247
90492W        W33508  25.936  19.284  24.131  0.1205 -0.0607  0.1519
90493W        W33509  31.397   3.737  21.781 -0.0160  0.2042 -0.3385
90494W        W33510  24.250  18.464   4.461  0.2204 -0.1325 -0.3412
90495W        W33511  24.271  28.937  17.189 -0.0024 -0.0797 -0.2306
90496W        W33512  24.061   8.224  14.731  0.1917 -0.0580  0.0324
90497W        W33513   3.185   5.890  26.508  0.2204  0.0257 -0.1160
90498W        W33514  26.427  30.065   8.959 -0.2975 -0.0409 -0.1596
90499W        W33515  26.303  11.050   3.148  0.1367  0.1313 -0.1052
90500W        W33516  14.068  12.770  26.401 -0.0862 -0.3069 -0.1071
90501W        W33517  29.960  24.071  25.553 -0.3695  0.1304 -0.0590
90502W        W33518  25.247  11.296   8.487 -0.3068 -0.1558 -0.1545
90503W        W33519  26.233  26.036  19.917  0.1512 -0.1829 -0.2515
90504W        W33520  20.909   1.047  27.531  0.4389 -0.3245  0.0860
90505W        W33521  20.084  33.916  29.196 -0.1482  0.0941  0.1423
90506W        W33522  30.448  33.194  21.379 -0.1721  0.1901  0.3556
90507W        W33523  25.201  21.546  25.454 -0.0575  0.1033 -0.3685
90508W        W33524  20.783  19.400  14.910  0.2660 -0.2084  0.2053
90509W        W33525  13.841  16.530  15.690  0.2685 -0.0893  0.0664
90510W        W33526  30.177  31.801   8.174  0.0709  0.2875 -0.1834
90511W        W33527  17.243   6.500  21.221 -0.0089 -0.1203 -0.0654
90512W        W33528  26.063   0.353  20.729  0.0139 -0.0323  0.2486
90513W        W33529  28.184   4.001  17.718  0.1137  0.0449 -0.1670
90514W        W33530  10.415  18.407  28.322 -0.0580  0.0823  0.1575
90515W        W33531  28.174  24.647  16.499 -0.0007 -0.0707 -0.1824
90516W        W33532  16.056   6.158  17.395 -0.0449  0.2925  0.0746
90517W        W33533  14.574  11.832  26.106  0.1287 -0.2006 -0.2706
90518W        W33534  16.293  23.206  21.244 -0.1231 -0.1085 -0.0215
90519W        W33535  28.609  32.916  16.896 -0.3600 -0.1844 -0.2360
90520W        W33536  19.022   8.164   8.197  0.3272  0.1169  0.4559
90521W        W33537  15.347  20.393  24.716  0.2720 -0.0960  0.0052
90522W        W33538  34.749   7.227  13.747  0.1100  0.0860  0.0808
90523W        W33539  25.116   8.899   5.696  0.0264  0.0671  0.0941
90524W        W33540  24.535  23.699   3.747  0.0812 -0.1357  0.0144
90525W        W33541  23.446   0.831  22.629 -0.0870  0.2216  0.1012
90526W        W33542  10.553  16.459   0.042 -0.1009  0.1336  0.0336
90527W        W33543   0.797  32.288  26.839 -0.1538 -0.0517  0.1349
90528W        W33544  26.926  12.490  16.769 -0.2652 -0.0648  0.1119
90529W        W33545  11.945  31.343  29.046  0.0823  0.0468 -0.2395
90530W        W33546  31.215  20.048  20.386 -0.0667  0.0862 -0.0053
90531W        W33547  11.495  17.708  26.551  0.1714 -0.1064  0.2013
90532W        W33548  13.065  34.126  17.355 -0.1225  0.0788  0.1816
90533W        W33549  31.261   1.163   6.600  0.1652  0.0665 -0.2846
90534W        W33550  11.703  20.269  19.394  0.0333  0.1577  0.0056
90535W        W33551  27.719  29.926  26.845  0.1165  0.0807 -0.0856
90536W        W33552  16.534  30.223   3.109 -0.2295 -0.2207  0.0103
90537W        W33553  30.413  23.878  18.632 -0.1513  0.4231 -0.2036
90538W        W33554  26.346   9.744  22.876 -0.0471  0.4454  0.0172
90539W        W33555  26.242  25.228   7.924  0.2293  0.2342 -0.1637
90540W        W33556  15.630   7.056   4.859  0.1301  0.4557 -0.2867
90541W        W33557  17.296  24.384  13.550 -0.2090 -0.0201  0.1907
90542W        W33558   0.124  23.713  15.880 -0.0925  0.0590 -0.0548
90543W        W33559  30.129  18.593   5.275 -0.0114 -0.1465  0.0254
90544W        W33560  26.415  17.182  20.402  0.0363 -0.4860 -0.3275
90545W        W33561  22.980   6.380   6.150  0.0926 -0.0313 -0.1285
90546W        W33562   4.132  16.270  21.029 -0.1602 -0.1728 -0.0382
90547W        W33563  22.993  10.704  25.334 -0.0028  0.3883 -0.0350
90548W        W33564  18.367  25.201  28.672  0.1429 -0.2797  0.1556
90549W        W33565  27.973  28.219  24.514 -0.0174  0.0492 -0.0247
90550W        W33566  28.378  21.372   2.965  0.0342 -0.1445  0.2909
90551W        W33567   7.297   9.624  28.264  0.2655 -0.1455  0.1579
90552W        W33568   2.703  12.234   6.972  0.4452  0.3499  0.2313
90553W        W33569  29.950   7.557   9.022  0.1749  0.1668 -0.0716
90554W        W33570  15.150   7.928   6.409  0.0527  0.3805  0.3354
90555W        W33571  33.491  33.499  24.273 -0.2110  0.1036  0.0664
90556W        W33572  10.483  21.800   0.427 -0.1836 -0.1241  0.1259
90557W        W33573  18.357   2.214   5.491  0.0588 -0.2475  0.0015
90558W        W33574  21.756  32.473   9.247  0.0309 -0.0221  0.1562
90559W        W33575  18.204  12.054   8.073  0.0758 -0.1745 -0.0934
90560W        W33576  14.428  10.168  21.411 -0.1771 -0.1917  0.2422
90561W        W33577  19.706   2.794   4.813 -0.1663 -0.1302  0.5163
90562W        W33578  18.521  27.666   7.563  0.0703  0.5407  0.0379
90563W        W33579  14.770  31.016   7.913 -0.0374  0.1874 -0.1280
90564W        W33580  30.294  18.980  22.666 -0.0177  0.1577  0.2937
90565W        W33581   4.737   8.899   6.521  0.0626 -0.1380  0.4249
90566W        W33582  19.425  14.461  26.420 -0.2594 -0.2367  0.1023
90567W        W33583  15.879  20.249   1.889 -0.0073  0.0800  0.0843
90568W        W33584  20.516  14.810   7.864 -0.0651 -0.2404 -0.2774
90569W        W33585  25.569  23.213   6.256 -0.0162  0.0741 -0.0731
90570W        W33586   4.028   8.977   5.743 -0.1639  0.2806 -0.1579
90571W        W33587   9.258  13.550  21.534  0.1437  0.0312 -0.2898
90572W        W33588  27.105  13.917   5.712  0.1004 -0.1085  0.2272
90573W        W33589  18.734  14.002   5.004 -0.1415 -0.0948  0.2382
90574W        W33590  17.756  28.973  26.249  0.1462 -0.2009 -0.2770
90575W        W33591  18.845  18.143   6.971  0.0890 -0.0204  0.0162
90576W        W33592  33.641  11.979   8.336  0.1615 -0.0061  0.1431
90577W        W33593  24.122  10.231   1.452  0.1755  0.0911 -0.0229
90578W        W33594  28.472  17.802  17.067  0.0192  0.1220 -0.3376
90579W        W33595   0.003  11.215   3.287  0.1168  0.0677 -0.0902
90580W        W33596  21.933  20.343  25.576 -0.1975  0.0473  0.0643
90581W        W33597  19.165  33.402   8.253 -0.0053  0.3239  0.3444
90582W        W33598  32.152  18.908   1.576  0.2933 -0.1170 -0.0790
90583W        W33599  16.582  19.369  24.737  0.0739  0.3159  0.1183
90584W        W33600   5.021  17.629  29.274  0.0395  0.0943  0.0501
90585W        W33601  20.000  19.631   4.246 -0.1014 -0.1253 -0.0382
90586W        W33602  18.181   9.965  21.795  0.1606 -0.2532 -0.0050
90587W        W33603  29.453  17.693   0.444 -0.1286  0.0082  0.0278
90588W        W33604   9.945  18.391   8.768 -0.1127  0.4289 -0.2685
90589W        W33605  34.525  11.980   0.068 -0.2631 -0.2260  0.1697
90590W        W33606   8.655   4.929  15.436  0.1224  0.3301  0.0277
90591W        W33607  20.578  20.568   4.815 -0.0112 -0.0879  0.2636
90592W        W33608  28.237   5.393   6.013  0.0442 -0.4428  0.0701
90593W        W33609  25.145  25.009   8.737 -0.2909 -0.1721  0.2285
90594W        W33610  25.022   0.171   3.577  0.0470  0.1899  0.0273
90595W        W33611  15.360  17.299  24.506 -0.3917  0.1477  0.2330
90596W        W33612  17.742  17.862  22.757 -0.0209 -0.1418  0.0407
90597W        W33613   6.418  11.659  29.212  0.2871 -0.0307  0.1196
90598W        W33614  18.344  16.091  27.182  0.1035 -0.1416 -0.2227
90599W        W33615  26.420  18.435  28.250 -0.0140 -0.0995 -0.0168
90600W        W33616  24.570  19.272  17.813 -0.0351  0.0979  0.1164
90601W        W33617  19.615  15.030  21.783 -0.4032  0.0742  0.1916
90602W        W33618  24.596  15.722   2.869  0.2918  0.2124 -0.1554
90603W        W33619   4.828  30.032   2.109  0.1787  0.1683 -0.2469
90604W        W33620  14.778  16.565  15.457  0.1909  0.2246  0.0776
90605W        W33621  16.310  19.896  26.201 -0.0532 -0.1444  0.0932
90606W        W33622  22.065   6.465  25.560  0.0450 -0.3807 -0.2015
90607W        W33623  30.182  17.399   7.848  0.0425 -0.2725  0.2989
90608W        W33624  27.895  22.852  19.889 -0.0798 -0.1700  0.0184
90609W        W33625  27.840  28.352   9.389  0.1641  0.0004  0.0966
90610W        W33626  11.943  16.381  16.017  0.0011  0.0722 -0.0838
90611W        W33627  32.427  12.665  20.586 -0.0847  0.4075  0.2831
90612W        W33628  13.688  10.419   2.727  0.0895 -0.3028 -0.0287
90613W        W33629  27.319  23.917  15.712  0.1956 -0.2883  0.0681
90614W        W33630   9.098  12.481   3.831  0.1549  0.0290 -0.1423
90615W        W33631   6.760  18.191  27.135 -0.2002 -0.2549 -0.1480
90616W        W33632  11.530  15.185  25.530 -0.0410  0.1320 -0.3425
90617W        W33633  25.212  11.825   7.522 -0.0269  0.2493 -0.0392
90618W        W33634  21.545  25.077  28.780  0.0175  0.1566 -0.3627
90619W        W33635  30.577  12.260  23.141 -0.1000  0.1994 -0.3129
90620W        W33636  15.544  33.198  27.065  0.0279 -0.1345 -0.1348
90621W        W33637  24.679  14.118  27.879  0.0336  0.2609  0.2449
90622W        W33638  25.282  24.970  17.493  0.0815 -0.0471 -0.0033
90623W        W33639  20.369   5.743  17.393 -0.1349 -0.1719  0.0288
90624W        W33640  33.663  18.685  17.988  0.1909  0.2195 -0.1197
90625W        W33641  10.323   1.971   3.357 -0.0660 -0.2671  0.1942
90626W        W33642  19.499  18.807   8.078 -0.0553  0.3524  0.2203
90627W        W33643  17.168  14.824   5.946  0.1611  0.0171  0.0316
90628W        W33644  21.876  11.045   3.572 -0.2691  0.0904  0.0668
90629W        W33645  32.745  17.566   0.035 -0.4752  0.1663  0.0446
90630W        W33646  21.866   8.345  20.738 -0.2003  0.3933  0.4419
90631W        W33647  17.163   9.926  22.793  0.1656  0.0760 -0.1504
90632W        W33648  17.295  20.376  26.032 -0.0367 -0.2182 -0.0939
90633W        W33649  13.063  13.262   6.136 -0.0409  0.0364 -0.0437
90634W        W33650  20.688  22.108  23.287  0.1049 -0.2488 -0.0097
90635W        W33651  14.052   3.964  17.523 -0.2896  0.0123 -0.1731
90636W        W33652  20.503  28.531  17.445  0.1892 -0.1484  0.4319
90637W        W33653  32.500  11.388  26.398 -0.4073  0.1920  0.3554
90638W        W33654  20.311  29.356  22.363  0.1493 -0.2844  0.2883
90639W        W33655  28.730  29.329  18.112 -0.2293  0.4109 -0.0164
90640W        W33656  28.550  13.157  17.072 -0.1235  0.0238 -0.2078
90641W        W33657   2.569  11.065   3.344  0.2610 -0.2367 -0.0609
90642W        W33658  17.487  26.062   2.562 -0.0135 -0.4641  0.1883
90643W        W33659  20.559   0.443  27.347  0.2983 -0.1405  0.1281
90644W        W33660  13.258  11.661   5.927  0.0699  0.1986 -0.3832
90645W        W33661  11.281  22.692   1.561 -0.3299  0.1763  0.0677
90646W        W33662  19.357  24.093   3.289  0.1515 -0.2258 -0.0809
90647W        W33663  14.425  14.203  25.417  0.1970 -0.0587  0.0516
90648W        W33664  16.631  29.926  25.145 -0.2228 -0.1215 -0.1005
90649W        W33665  21.972  24.286   0.407  0.0149  0.1263  0.0471
90650W        W33666  18.222   7.480   4.845 -0.4104 -0.0784  0.0905
90651W        W33667   1.263  25.532   8.506 -0.3286  0.0406 -0.0372
90652W        W33668  20.615  16.676  21.424 -0.1787 -0.1371 -0.1343
90653W        W33669  29.664   9.174  25.278 -0.1246  0.0548  0.0048
90654W        W33670  18.682  17.491  27.799 -0.1470  0.1071  0.0157
90655W        W33671  23.401   6.137  23.797 -0.2008 -0.0665  0.1639
90656W        W33672  18.787  19.811   0.640  0.0487 -0.4094  0.1732
90657W        W33673  20.232  26.886  22.055  0.0327  0.0343 -0.1608
90658W        W33674  13.231  19.615   3.599  0.1113 -0.0576 -0.0700
90659W        W33675  25.086  25.107  15.067 -0.5090 -0.2328 -0.4176
90660W        W33676  21.395   7.303  28.831  0.0013 -0.0367 -0.1634
90661W        W33677  26.312  11.023  21.137 -0.1885  0.0978 -0.0094
90662W        W33678  18.636  25.982   3.471 -0.1823  0.1487 -0.0190
90663W        W33679  16.610  14.436  15.598  0.0069  0.2600 -0.1547
90664W        W33680   5.951  20.001  25.557 -0.1243 -0.1222  0.3941
90665W        W33681  10.136   7.004   7.206  0.1117 -0.0841 -0.2492
90666W        W33682  30.291  31.963  26.953 -0.1191  0.1168 -0.3958
90667W        W33683  17.108  13.981  12.855  0.0536  0.0892 -0.1677
90668W        W33684  11.299   4.373   4.058 -0.1682 -0.1318  0.0809
90669W        W33685   8.279  15.870  22.036  0.0307  0.0879 -0.1812
90670W        W33686  27.107  10.006   2.228 -0.1770  0.3871  0.0776
90671W        W33687  30.962  33.713  23.427  0.0908  0.0917  0.1818
90672W        W33688  27.107   0.015  11.582  0.2049 -0.3324 -0.1034
90673W        W33689  23.888  11.596  14.730 -0.2390  0.0184 -0.1431
90674W        W33690  14.817  13.763  21.435 -0.2709 -0.1360  0.2025
90675W        W33691  32.993  17.889   9.638  0.1239 -0.0517  0.1110
90676W        W33692  23.989  28.296   5.075  0.0086  0.1600 -0.2492
90677W        W33693  27.116  17.304  18.158  0.0614 -0.0136  0.2942
90678W        W33694  27.759   2.790   8.647 -0.0808 -0.0326 -0.0212
90679W        W33695  33.899  21.587  24.853  0.1556  0.1440 -0.0589
90680W        W33696  30.564  19.337  10.627  0.0508  0.0581  0.2489
90681W        W33697  23.965  33.768   7.356  0.1483 -0.1228  0.1698
90682W        W33698  24.418  20.426   1.729  0.1173  0.0609  0.3532
90683W        W33699   0.918  27.000  24.098  0.0717  0.0680  0.1057
90684W        W33700  22.996  22.823  21.297  0.2754  0.0376  0.2551
90685W        W33701  18.154  15.346  21.204  0.1647  0.1068  0.1019
90686W        W33702  17.214  18.790   5.554  0.0774 -0.1986 -0.0037
90687W        W33703  28.446  23.961   8.183 -0.0346  0.0324 -0.0035
90688W        W33704  24.634  34.309   0.777 -0.1135 -0.2056 -0.1174
90689W        W33705  24.320  15.587   3.352 -0.0062  0.1669 -0.0481
90690W        W33706  16.772  22.671   4.650 -0.0016  0.0980 -0.1355
90691W        W33707  19.891  19.501   0.506  0.1374  0.1802  0.0059
90692W        W33708  22.636  14.514  23.051 -0.0660  0.1505  0.1307
90693W        W33709  10.465  25.911   2.076  0.1343  0.1466 -0.2790
90694W        W33710  21.891  23.058   6.762  0.3037 -0.1004 -0.0149
90695W        W33711  22.179  10.518   5.275  0.0257  0.3350 -0.0574
90696W        W33712  32.071   9.021   0.962 -0.0789  0.0829  0.0818
90697W        W33713  23.082  12.653  21.326  0.1493 -0.1948 -0.0025
90698W        W33714  27.614  11.313   8.330  0.1295 -0.0659  0.1199
90699W        W33715  18.229  12.909   4.680  0.0268  0.1852  0.1565
90700W        W33716  21.367   3.054  24.339 -0.3439  0.2499 -0.0626
90701W        W33717   9.661  25.746  17.506 -0.0660  0.1680  0.0165
90702W        W33718   7.676  10.757  20.407 -0.0065  0.0733  0.0867
90703W        W33719  23.041  13.858   7.249 -0.1806 -0.0350 -0.0468
90704W        W33720  21.497   7.525  25.964  0.2304  0.0105  0.1657
90705W        W33721   2.062  26.146   4.868  0.4837 -0.0579  0.1247
90706W        W33722  29.098  31.277   8.852  0.3168 -0.1548 -0.1552
90707W        W33723  12.604  30.057  17.949  0.1208 -0.0529  0.2704
90708W        W33724  17.333  21.814  13.901 -0.2237  0.0927 -0.2011
90709W        W33725  30.725  13.655   5.074 -0.4521  0.0039  0.0529
90710W        W33726  27.163  30.947  28.076 -0.2160 -0.1436 -0.1246
90711W        W33727  22.819  15.905   6.362  0.1665  0.0151 -0.1406
90712W        W33728  16.943  25.889  19.442  0.1609  0.1609 -0.0318
90713W        W33729   4.099  25.773  10.416 -0.0572 -0.0304 -0.1203
90714W        W33730   9.066   4.547  25.107 -0.1123  0.2092 -0.0524
90715W        W33731  28.376  15.165   2.645 -0.0303 -0.2559 -0.1034
90716W        W33732   2.023  24.948   9.421  0.0547  0.0641  0.1863
90717W        W33733  22.670  22.452  26.709  0.0196  0.0317  0.1466
90718W        W33734  17.963  13.719   4.537  0.1978 -0.1719  0.4427
90719W        W33735  15.643   9.091  28.268  0.1585  0.0239  0.0008
90720W        W33736   2.107  33.254   9.639  0.0082 -0.0657  0.0923
90721W        W33737  33.957  20.339  24.073  0.2243 -0.2163  0.1722
90722W        W33738  24.514  10.405   2.926 -0.0669 -0.2790 -0.0730
90723W        W33739  25.793  24.320  21.797  0.1275  0.0554  0.0118
90724W        W33740  18.026  29.175  19.364 -0.0225 -0.1993  0.0352
90725W        W33741  32.095  29.481  27.741  0.2573 -0.0839  0.1293
90726W        W33742  28.654  32.657  28.660  0.1060  0.1275  0.0197
90727W        W33743  15.970  27.727  14.493 -0.1477  0.2096 -0.0686
90728W        W33744   4.472  17.964   3.553  0.2320 -0.2677  0.3296
90729W        W33745  33.186  29.022   5.035 -0.2803  0.0449 -0.1137
90730W        W33746  21.510  26.674  23.810 -0.2853  0.2133 -0.1036
90731W        W33747  18.821  10.463   0.045  0.0905 -0.0566  0.2157
90732W        W33748  23.102  24.770  23.739  0.0758 -0.0467 -0.0956
90733W        W33749  11.362  14.822   3.628  0.5408  0.1113  0.2851
90734W        W33750  26.274   8.774   5.533 -0.1344  0.4444  0.1615
90735W        W33751   6.862  11.139  24.465  0.1600 -0.2148 -0.1755
90736W        W33752  10.576  20.662   5.467  0.0384 -0.0244 -0.2339
90737W        W33753  15.570  21.500  21.399  0.0055 -0.2222  0.1043
90738W        W33754  15.867  34.631   6.627  0.3069  0.1498 -0.0510
90739W        W33755  21.720  10.772   9.465  0.0372  0.1784  0.0151
90740W        W33756  23.051  13.850  22.846  0.0388  0.1168  0.0518
90741W        W33757  12.866  20.313  20.012 -0.1172 -0.2287  0.1166
90742W        W33758  22.709   9.978  17.344 -0.3025 -0.1937  0.0879
90743W        W33759   0.551   5.802   0.716 -0.2778 -0.0451  0.0755
90744W        W33760  18.795   8.402  25.370 -0.1858 -0.1628  0.1134
90745W        W33761  17.957  12.460  22.509  0.2473 -0.0244 -0.0011
90746W        W33762  17.801   3.848   7.715 -0.0554 -0.0756 -0.1908
90747W        W33763  22.772   0.013  26.345  0.0644 -0.2662  0.4043
90748W        W33764  27.486   4.706   8.091  0.2540 -0.1472 -0.2042
90749W        W33765  10.522  19.248   5.975 -0.1477  0.0544 -0.1742
90750W        W33766  24.398   7.648  19.010 -0.1751  0.2950  0.0820
90751W        W33767  14.761  27.973   7.188  0.1791 -0.3657  0.2765
90752W        W33768   9.752   6.706   7.344  0.0064  0.1763  0.1773
90753W        W33769  26.082  11.445   4.112  0.0054  0.2421  0.3482
90754W        W33770  32.992  14.654  21.447  0.0026  0.0523 -0.1936
90755W        W33771  27.325   1.475  27.406 -0.0211  0.3512  0.0707
90756W        W33772  21.905  15.401   4.899  0.0135 -0.2134  0.3044
90757W        W33773  23.478   7.425   7.380  0.1506 -0.0885 -0.2268
90758W        W33774  12.184   1.700   4.264 -0.3992 -0.0894  0.0142
90759W        W33775  17.082  11.816  23.884  0.1209  0.2063  0.0884
90760W        W33776  17.126  14.562   1.178  0.1824  0.2497  0.2751
90761W        W33777  22.937  25.195  20.827 -0.0141  0.1410  0.3360
90762W        W33778  33.939  13.066   0.605 -0.1522  0.2033 -0.1779
90763W        W33779  33.445  15.870  27.165  0.2833  0.0128  0.0665
90764W        W33780  23.248  10.874   8.917 -0.0770  0.0840  0.0678
90765W        W33781  23.082  26.858   6.242 -0.0435  0.1191 -0.3075
90766W        W33782  20.439  16.475   8.057 -0.0426  0.0269 -0.0554
90767W        W33783  24.024  13.940  27.334  0.0046 -0.2396  0.4990
90768W        W33784  29.407   4.736   2.200  0.0809  0.1511  0.1645
90769W        W33785  19.006  22.378   1.969 -0.0131  0.0564 -0.0135
90770W        W33786   1.149  19.747  24.072  0.2647 -0.2479  0.0762
90771W        W33787  29.849  28.907   1.841 -0.2160 -0.0941  0.1759
90772W        W33788   8.930  25.383  25.751  0.0040  0.0821  0.0237
90773W        W33789  21.770  30.340   3.423  0.0504 -0.2924  0.2435
90774W        W33790   4.776  18.275  27.469 -0.1323  0.0981 -0.3035
90775W        W33791  15.370  33.904  28.134  0.0766  0.0008  0.1137
90776W        W33792  29.516  24.142   4.466 -0.1861 -0.2943 -0.0902
90777W        W33793  24.741  31.236  26.495 -0.2809  0.2201 -0.0992
90778W        W33794  21.581  19.313  15.926  0.1984  0.1364 -0.1324
90779W        W33795  31.892  29.754   9.766 -0.1162 -0.2278 -0.0904
90780W        W33796  14.739  10.245  17.314  0.1172 -0.0811  0.0839
90781W        W33797  14.978   4.666   4.195 -0.1047  0.0879  0.0543
90782W        W33798   2.021  19.869  27.469 -0.1903  0.1648  0.5249
90783W        W33799  18.164   4.906  17.387  0.1166  0.1256 -0.2837
90784W        W33800  25.490  17.774  28.009  0.1812 -0.2776  0.0047
90785W        W33801  24.847  10.092  10.968 -0.0755  0.1079 -0.1926
90786W        W33802  30.511  16.377  19.388  0.0369  0.0223  0.0408
90787W        W33803  17.409  19.963  28.806 -0.1986 -0.1658 -0.2713
90788W        W33804  20.854  33.075  18.041 -0.0747  0.1459  0.0897
90789W        W33805  18.475  28.235  23.571  0.1650  0.3786 -0.1525
90790W        W33806  21.511  11.626   1.822  0.0266  0.1577 -0.1469
90791W        W33807   6.987   4.976   8.200  0.1088 -0.2073 -0.0068
90792W        W33808  22.267   1.797   5.162 -0.0019  0.0934 -0.0674
90793W        W33809  29.713  13.699  26.954 -0.1133 -0.1046 -0.0978
90794W        W33810  27.844  12.489   7.032  0.0779 -0.0782 -0.0869
90795W        W33811  14.878  11.768  24.609 -0.1221 -0.4031 -0.0232
90796W        W33812  10.647  14.820  21.282  0.0210  0.3537 -0.0097
90797W        W33813   0.871  12.627   8.699 -0.2580  0.2678 -0.0781
90798W        W33814  20.058  17.055   5.693  0.0481  0.1759 -0.0383
90799W        W33815  30.667  29.414   8.986  0.1377 -0.2780 -0.4482
90800W        W33816  19.001  19.554   3.406  0.2332 -0.1833  0.3781
90801W        W33817  21.381   1.449  16.446 -0.0864  0.0996  0.0453
90802W        W33818  20.095  11.561  25.407 -0.1951  0.2103  0.0923
90803W        W33819  12.525  26.646  26.095  0.2111 -0.1598  0.3544
90804W        W33820  18.390  15.237   4.740  0.1419  0.3592  0.5730
90805W        W33821   1.190  14.773   5.639 -0.0524  0.2085  0.0757
90806W        W33822   4.133  20.516  29.192 -0.0899 -0.0098  0.0237
90807W        W33823  12.609  21.992  25.372 -0.0052 -0.2159  0.2167
90808W        W33824  23.911  28.947  15.220 -0.2855  0.1397 -0.1325
90809W        W33825  15.255  21.341   8.740 -0.1972  0.1883  0.1730
90810W        W33826  19.919  14.405   5.871  0.1723 -0.1530  0.1275
90811W        W33827  23.255  16.741   6.981  0.4208 -0.1590  0.0891
90812W        W33828   0.504  29.610  25.971  0.3096  0.0694  0.1667
90813W        W33829  32.593  34.363  17.742  0.1133 -0.1247 -0.3666
90814W        W33830  10.601  16.809  17.367 -0.0624  0.0307  0.0971
90815W        W33831   9.207  19.247  16.459 -0.0690 -0.0176  0.3114
90816W        W33832  26.328  13.198   0.676  0.2048  0.3090 -0.0372
90817W        W33833  17.308   8.688  22.037 -0.0612  0.0525  0.0052
90818W        W33834  26.998  17.711   7.727 -0.0731 -0.2908 -0.0518
90819W        W33835  18.942  17.785  25.060  0.0255  0.1419  0.0616
90820W        W33836  13.112   2.080  23.389 -0.2868  0.1077 -0.2941
90821W        W33837  14.154  27.391   1.638 -0.0109 -0.1273 -0.3496
90822W        W33838  24.876  25.022  23.370 -0.0309  0.3772  0.0597
90823W        W33839  15.393   6.938  24.139  0.0709  0.0987  0.0687
90824W        W33840  29.011  14.592  17.204 -0.0824  0.1312  0.2999
90825W        W33841  18.064  23.321   5.064  0.1123 -0.0664  0.0304
90826W        W33842   7.581  33.372  15.017  0.0237  0.1055  0.1142
90827W        W33843  12.120  16.907  26.246 -0.0026 -0.1228  0.1744
90828W        W33844  19.387  20.853  22.105 -0.1082  0.4417 -0.1884
90829W        W33845  14.757  24.073  28.326 -0.1028 -0.0839  0.3099
90830W        W33846  20.828  18.254  25.396  0.4310 -0.0238  0.2856
90831W        W33847   6.542  20.396  29.074  0.3056  0.3596 -0.2251
90832W        W33848   5.884  12.447   7.429 -0.0254  0.1360  0.2428
90833W        W33849  12.247  25.148   0.080  0.1834  0.2234 -0.3057
90834W        W33850  25.757  23.514   4.531  0.0990 -0.0459 -0.1488
90835W        W33851  28.524  15.643  10.147  0.0495 -0.2504  0.0694
90836W        W33852  21.826  10.545  13.246 -0.2764 -0.1176 -0.2652
90837W        W33853  32.845   3.712  10.051  0.1563 -0.0762 -0.1548
90838W        W33854  33.780  16.639   3.647 -0.1249 -0.3243 -0.0119
90839W        W33855   9.613  17.057  24.546  0.1788  0.1179 -0.0655
90840W        W33856  18.250  26.109   3.172  0.2058 -0.0888  0.0911
90841W        W33857  23.937  14.936   2.746  0.2516 -0.1048 -0.2242
90842W        W33858  20.282  24.143   2.308 -0.1276 -0.3485  0.0251
90843W        W33859  20.974  20.211   6.319  0.1325 -0.1258  0.1576
90844W        W33860  24.751  11.644  14.639 -0.2133  0.0188  0.2400
90845W        W33861  34.005   9.188   8.666 -0.2955  0.0085 -0.0827
90846W        W33862  21.752  33.717   7.086  0.1129 -0.2633 -0.1752
90847W        W33863  24.559  15.078   6.603  0.0866  0.0724  0.1873
90848W        W33864   9.390  23.681   5.105 -0.0961 -0.0394  0.0069
90849W        W33865  28.749  23.937  19.398  0.1773  0.1769 -0.0304
90850W        W33866  23.456   1.885   4.151  0.0301 -0.2894 -0.1462
90851W        W33867  21.407  20.065  14.902  0.0458  0.0122 -0.1974
90852W        W33868  13.752   0.624   1.492 -0.0020 -0.2162 -0.0867
90853W        W33869  28.114  15.559   7.929 -0.1220  0.1322  0.4205
90854W        W33870  15.773  17.313  16.240 -0.0104  0.0473 -0.2017
90855W        W33871   9.373  25.371  14.874 -0.0533 -0.1350  0.1976
90856W        W33872  24.829  33.101   7.950  0.3396 -0.3212 -0.2424
90857W        W33873  21.059  22.938   3.061  0.1056  0.2619  0.3651
90858W        W33874  18.264  17.946   1.759 -0.0440  0.0421  0.0807
90859W        W33875  28.165  11.341   1.263  0.1386 -0.2686  0.3124
90860W        W33876  16.744  10.720  15.076 -0.1198 -0.2402 -0.0105
90861W        W33877   6.805  27.687  26.192 -0.4026  0.2423 -0.4537
90862W        W33878  24.060   0.936   4.921  0.1292  0.0612 -0.1582
90863W        W33879   9.386  13.144  27.565  0.0176 -0.0195  0.2080
90864W        W33880  33.876  14.832   7.574  0.1103  0.0384 -0.1931
90865W        W33881  22.498  14.750   4.509 -0.2193  0.2657  0.0192
90866W        W33882  29.931  14.573   2.195 -0.0522  0.1876  0.1838
90867W        W33883  10.956  12.482  25.628  0.2951 -0.1344 -0.1567
90868W        W33884   9.510   6.110   8.557  0.3736 -0.1092 -0.0240
90869W        W33885  16.822   9.159  27.138  0.1867  0.0610 -0.0290
90870W        W33886  25.551  13.366  19.526  0.1057  0.1572 -0.1734
90871W        W33887   7.586   2.617   7.902 -0.0579  0.1142 -0.2018
90872W        W33888  18.887  18.971  13.938 -0.1910  0.2724  0.1144
90873W        W33889  24.827  18.458   0.712  0.0166 -0.4029 -0.2598
90874W        W33890  22.918  32.756   9.322  0.1629 -0.0513 -0.1222
90875W        W33891  24.013   9.499   2.867 -0.4478 -0.1291 -0.0508
90876W        W33892  23.922  12.726   5.691  0.0882  0.2047 -0.0932
90877W        W33893  22.477  18.431   0.320  0.1157 -0.2489  0.2731
90878W        W33894  11.143  23.261  18.078  0.0776 -0.1085  0.3318
90879W        W33895  27.474  13.253  19.915  0.0191 -0.2805  0.1254
90880W        W33896  27.526  10.706   7.362 -0.0158  0.0399  0.1237
90881W        W33897   9.275   8.270   3.876  0.2405  0.1585  0.1644
90882W        W33898  32.369  10.188   9.086 -0.2548  0.2340 -0.1555
90883W        W33899  17.422  14.714  29.049  0.0133  0.1209 -0.0811
90884W        W33900  23.100  27.214  26.101 -0.1349 -0.1652  0.0173
90885W        W33901  21.247  16.077   3.526  0.1276  0.1776  0.1500
90886W        W33902  28.472  16.752  24.900  0.0435 -0.1925 -0.0724
90887W        W33903   0.741  14.479  19.917  0.0851 -0.0979 -0.0889
90888W        W33904   7.883  10.236  20.418  0.0821  0.0340  0.2493
90889W        W33905  16.311  13.141  23.897 -0.1763  0.0819 -0.1850
90890W        W33906  22.177  15.820  22.719  0.1297 -0.0916  0.1761
90891W        W33907  18.906  16.946   1.777  0.2881 -0.1511  0.1236
90892W        W33908  34.774  26.438  21.340  0.0761  0.3437  0.0421
90893W        W33909  33.476  15.591   0.893  0.0835 -0.1922  0.2508
90894W        W33910   3.198  27.620  17.584 -0.1764  0.0883  0.2173
90895W        W33911  23.963  19.657   0.334 -0.0297 -0.0116  0.0335
90896W        W33912  18.796  14.854  25.307  0.0289  0.3294 -0.0423
90897W        W33913  22.324  10.037  17.976 -0.1479  0.0126 -0.0856
90898W        W33914  33.392  16.549  24.152 -0.0730 -0.1241 -0.1725
90899W        W33915  26.512  17.972   7.992 -0.1610  0.1168  0.0592
90900W        W33916   9.420   4.889   4.278 -0.1303 -0.1953 -0.1319
90901W        W33917  28.897  11.153   5.827  0.2351  0.0104  0.2749
90902W        W33918  24.762  11.677   9.231  0.2744 -0.1071  0.0312
90903W        W33919  21.598  16.950  24.459  0.0366 -0.2984 -0.4256
90904W        W33920  13.639  34.568  23.730 -0.0228  0.0746 -0.4160
90905W        W33921  20.370  23.157  20.802  0.1655  0.0183  0.2570
90906W        W33922  12.291  26.368  26.709  0.0010 -0.2553  0.1394
90907W        W33923  24.461  26.670   7.033  0.1745 -0.0681 -0.1044
90908W        W33924  19.684  12.863  27.749  0.2668 -0.0567 -0.1034
90909W        W33925  24.666  13.969   0.211 -0.1779 -0.0546  0.1500
90910W        W33926  32.850  15.435   4.918  0.0386  0.0878  0.0863
90911W        W33927  27.130  14.878  26.936  0.0746  0.2633  0.1602
90912W        W33928  27.031  20.273   5.102 -0.0277 -0.1220 -0.0849
90913W        W33929  17.913  32.304  19.254 -0.0809 -0.1544 -0.1889
90914W        W33930   4.612  18.990   2.116 -0.0677 -0.1254 -0.1225
90915W        W33931  32.373  25.200   9.506  0.0429  0.0403  0.2850
90916W        W33932  33.072  20.436   3.080  0.0694  0.1509 -0.0530
90917W        W33933   4.216  17.177  26.319  0.2234 -0.0517 -0.0135
90918W        W33934  27.974  15.182   0.539  0.2405  0.0060 -0.4632
90919W        W33935  14.744  26.151   2.247  0.1639  0.0667  0.0749
90920W        W33936  18.776  22.236  19.102  0.0181 -0.2782  0.1677
90921W        W33937  28.664  13.852   5.529 -0.3216  0.1330  0.1689
90922W        W33938  26.044  10.734  15.037  0.2245 -0.0769 -0.3200
90923W        W33939  23.993   6.272   1.030 -0.0298 -0.1859  0.2366
90924W        W33940  27.046  25.022   0.505 -0.2728 -0.3414  0.1907
90925W        W33941  19.748  10.316   7.390 -0.2053  0.0605  0.3712
90926W        W33942   6.242  12.591   6.231  0.1150 -0.0728  0.0694
90927W        W33943  12.107  10.707   7.120  0.0645 -0.4109 -0.1398
90928W        W33944  11.192  16.871  12.418  0.2592  0.0047 -0.0163
90929W        W33945  28.488  14.198   7.345  0.0739  0.0820 -0.1031
90930W        W33946   2.930  21.923  20.891 -0.4617 -0.0339 -0.1855
90931W        W33947  18.053   1.307  21.915 -0.4080  0.0606 -0.2744
90932W        W33948  13.020  12.136  26.719 -0.0332 -0.0615 -0.2986
90933W        W33949  26.530   8.404   9.513 -0.3191 -0.0817 -0.1540
90934W        W33950  31.575  15.358  27.886  0.1744  0.1407  0.1979
90935W        W33951  11.309  33.973   5.218 -0.0018  0.1405 -0.1960
90936W        W33952   7.137  19.473   0.171  0.5422  0.1163 -0.2159
90937W        W33953   9.377  11.098  23.595 -0.2936  0.1307  0.3393
90938W        W33954  24.433  33.513   2.288 -0.0858 -0.1865  0.1721
90939W        W33955  17.318  29.182   4.448 -0.2003  0.1812 -0.0955
90940W        W33956  29.759   3.756   5.857  0.2687  0.3963  0.1051
90941W        W33957  13.814   4.997   1.899 -0.0721 -0.0224 -0.0511
90942W        W33958  18.739   4.282   1.481 -0.0639  0.0039 -0.2463
90943W        W33959   2.556   5.875  26.531  0.1884 -0.1546  0.0525
90944W        W33960  17.018  21.541   3.830  0.1631  0.0422  0.1200
90945W        W33961   3.822   2.550   4.383 -0.2401  0.2411  0.2165
90946W        W33962  10.483   6.833   7.639  0.3736 -0.0164 -0.2661
90947W        W33963  24.377  21.192   5.644  0.0557 -0.2435 -0.0822
90948W        W33964   0.720  17.296   3.452 -0.2259  0.2328  0.2098
90949W        W33965   7.815   3.660  10.779  0.0232  0.0350  0.1011
90950W        W33966  23.549  26.332  28.220  0.1544 -0.2637 -0.1124
90951W        W33967  21.568  20.183  28.004  0.2441 -0.2877  0.1274
90952W        W33968  31.176  34.639   2.901  0.0580 -0.3069 -0.0254
90953W        W33969  21.347  28.509  16.221  0.1265 -0.1687  0.3268
90954W        W33970  33.790  33.609   5.324  0.1615  0.0166 -0.3571
90955W        W33971  32.620   1.038  10.792  0.0790 -0.1194 -0.0387
90956W        W33972  10.221   8.859   7.745  0.1541 -0.0200 -0.1204
90957W        W33973   1.810  22.763  26.314 -0.2938  0.2173  0.1719
90958W        W33974   5.672  15.909   4.566  0.2573  0.2488 -0.2503
90959W        W33975  20.535  20.895  13.451 -0.0507  0.2335 -0.1928
90960W        W33976  19.636   9.966  25.639  0.0466  0.2526  0.1664
90961W        W33977  25.217  23.452  23.873 -0.1528 -0.0365  0.2099
90962W        W33978  17.974   8.997  28.019 -0.1769 -0.0871  0.0602
90963W        W33979   5.912  31.592  28.732 -0.2165 -0.2393  0.1548
90964W        W33980  23.632   9.728  26.983 -0.2604  0.2536 -0.2374
90965W        W33981   7.268   4.307   2.287 -0.2326 -0.2407 -0.1271
90966W        W33982  32.083  22.383   9.104  0.1673  0.2945  0.4037
90967W        W33983   2.384  12.757   5.770  0.0651 -0.1569 -0.0648
90968W        W33984  12.588  12.192   4.806  0.0582  0.1078  0.5117
90969W        W33985   0.103  14.961  28.784  0.0243  0.4728 -0.0651
90970W        W33986  15.411  13.467   5.895  0.1105 -0.2935 -0.0154
90971W        W33987  33.292  18.730  20.134 -0.2077 -0.0408 -0.1180
90972W        W33988  20.343  24.903  22.389  0.1675 -0.2512 -0.1158
90973W        W33989  16.711  12.111  17.269 -0.0698 -0.1167 -0.1954
90974W        W33990  15.355  20.771   6.608 -0.1594 -0.3868  0.3251
90975W        W33991  32.891  21.932  26.227  0.1736  0.0017  0.1889
90976W        W33992  11.934  19.744   1.727  0.3478  0.2233  0.3409
90977W        W33993  25.165  15.374   8.534 -0.2503  0.0360  0.1741
90978W        W33994  28.160  19.126  24.264  0.0230  0.1785  0.1177
90979W        W33995  20.796   4.134  10.372  0.0742 -0.2555  0.0648
90980W        W33996   0.552  27.688   2.902 -0.4253  0.2486 -0.0541
90981W        W33997  31.780  23.073  22.767  0.1328 -0.1242 -0.4234
90982W        W33998  11.966  27.979   2.841 -0.0760 -0.1587 -0.0454
90983W        W33999  27.558  27.616   7.813  0.1193  0.0567  0.0779
90984W        W34000   3.535  19.780   9.989  0.1615  0.0139  0.1600
90985W        W34001  27.458  16.713   0.971 -0.1370  0.1872 -0.1162
90986W        W34002  15.009  19.673  22.345 -0.0641 -0.0377  0.1323
90987W        W34003  28.935   7.219   0.326  0.2689 -0.1693 -0.0995
90988W        W34004  21.335  19.102  13.626  0.0540  0.0146  0.2885
90989W        W34005   9.756   6.861  22.122 -0.2611 -0.0873  0.1847
90990W        W34006   8.606  17.799  21.999  0.0959 -0.2666 -0.1145
90991W        W34007  33.820   1.321   6.490 -0.1928 -0.1409 -0.0785
90992W        W34008  14.235  24.080  25.261  0.0817  0.1745  0.0895
90993W        W34009  27.316  13.179   6.474 -0.0125 -0.0002  0.2441
90994W        W34010   8.366  10.733   2.044 -0.0927  0.2376 -0.0600
90995W        W34011   7.676  19.259  24.325  0.0624  0.3271  0.0917
90996W        W34012  28.369  23.082  16.497 -0.3315  0.0971 -0.0345
90997W        W34013  20.669   8.049   4.533  0.1163 -0.0308  0.2661
90998W        W34014  15.602  31.121  17.365 -0.1792  0.1607  0.0448
90999W        W34015   1.470  13.805  26.098  0.0115  0.1109  0.0191
91000W        W34016   1.901  25.124  19.066  0.1204  0.3031  0.1691
91001W        W34017  21.255   0.549  28.809  0.3663 -0.2904 -0.2193
91002W        W34018  13.279   7.207  13.749  0.0976 -0.0694  0.2700
91003W        W34019  25.624  20.008  15.814  0.0126 -0.2307  0.0003
91004W        W34020   9.880  28.197  10.236  0.1820 -0.3604 -0.0475
91005W        W34021   7.870  14.045  15.021 -0.0876  0.0350 -0.0490
91006W        W34022  20.655  28.815  17.926  0.0740 -0.2407 -0.2364
91007W        W34023  32.935  30.336  27.416 -0.3293  0.0428 -0.1403
91008W        W34024  23.821  12.415  21.511 -0.3364  0.2641  0.0063
91009W        W34025  19.661  33.940  16.036 -0.1239 -0.0165  0.3366
91010W        W34026  16.925  12.476  17.717 -0.1595 -0.1713  0.2159
91011W        W34027  18.462  11.647  17.521  0.0129 -0.0969  0.2414
91012W        W34028   3.144   3.739  19.198  0.0340 -0.2268  0.3494
91013W        W34029  20.611   6.091  27.741  0.0436  0.1124 -0.0469
91014W        W34030   4.599  19.504  20.051 -0.0607  0.0243 -0.0931
91015W        W34031  21.741  15.187  15.318 -0.2041  0.1003 -0.0060
91016W        W34032  16.613  32.524   2.015  0.2093  0.1689 -0.0217
91017W        W34033   1.073  16.740  15.466 -0.0051 -0.0565  0.0134
91018W        W34034  30.784  11.007  25.852  0.3512 -0.0043  0.0310
91019W        W34035  19.649  23.441  22.736 -0.0132 -0.0386 -0.3138
91020W        W34036  13.041   9.557  22.157 -0.1093  0.1648 -0.0138
91021W        W34037  10.004   1.941   1.220 -0.0674 -0.2033  0.0194
91022W        W34038   8.325  14.807  16.180 -0.3628 -0.0787 -0.2209
91023W        W34039  27.386  14.989  18.562 -0.0798  0.2102 -0.1035
91024W        W34040   5.863  19.900  19.365 -0.2980  0.2716 -0.0695
91025W        W34041  32.620  29.841   3.705 -0.0610  0.2216  0.2956
91026W        W34042   7.683  30.345  22.043 -0.2621 -0.1339  0.1417
91027W        W34043   2.585  24.587   2.247 -0.1766 -0.0906 -0.0440
91028W        W34044  26.456  31.616  24.249  0.3709 -0.0796  0.3886
91029W        W34045  12.882  28.935  26.774 -0.1522 -0.1457 -0.1437
91030W        W34046  26.565  26.943  20.181  0.1466  0.2416 -0.3900
91031W        W34047  21.902  10.853  16.977 -0.0282  0.0994  0.2138
91032W        W34048  22.861  32.714   2.193  0.0120  0.1557 -0.1584
91033W        W34049  32.268   2.731  22.385  0.1373 -0.0601 -0.0052
91034W        W34050   0.169  29.040  25.762 -0.0949 -0.1069  0.0414
91035W        W34051  15.683  32.063  19.186  0.2320  0.1834  0.1281
91036W        W34052  20.071  13.244  15.513 -0.1617 -0.1311  0.0472
91037W        W34053  16.107  11.609   3.318 -0.1742  0.0836 -0.1982
91038W        W34054  25.161  17.001  22.096  0.2375 -0.3495 -0.3544
91039W        W34055  27.047  10.318  15.299  0.1736 -0.0111  0.1721
91040W        W34056  16.972  28.210  16.739 -0.2519  0.0051  0.0871
91041W        W34057  29.099  25.182  19.359 -0.1037 -0.1129 -0.0739
91042W        W34058  14.772  31.602  20.125  0.1476  0.0624 -0.4234
91043W        W34059  21.852  29.503  15.559 -0.2044  0.0504  0.0352
91044W        W34060   8.139  21.219  15.998 -0.0540  0.0384 -0.1073
91045W        W34061  34.240  24.085   2.904 -0.1335 -0.3989 -0.0181
91046W        W34062   0.378  19.910  19.203  0.1380  0.4254 -0.1005
91047W        W34063  22.597  10.666  23.449 -0.0570 -0.0627 -0.0413
91048W        W34064  33.608  12.432  19.472 -0.0416 -0.1511  0.1901
91049W        W34065   8.019  19.512  15.344  0.1019  0.1383 -0.1600
91050W        W34066  12.573  23.566  21.910  0.1738  0.2642  0.1701
91051W        W34067  33.069  32.563  24.529 -0.0136 -0.3233  0.0810
91052W        W34068  19.793  23.871   1.017 -0.0385 -0.1775  0.1129
91053W        W34069  23.294  17.879  17.329 -0.0523  0.3669 -0.1142
91054W        W34070  24.776   5.828  15.861 -0.0760  0.0826 -0.0290
91055W        W34071  24.754  34.715  25.183 -0.0085  0.0797 -0.2564
91056W        W34072  24.212  25.559  23.594 -0.1620  0.1574  0.1102
91057W        W34073  30.219  14.546  15.999  0.0009  0.3561  0.0844
91058W        W34074  19.130  33.780   3.369  0.3006  0.0966  0.2943
91059W        W34075  23.578   9.788  16.753  0.0981  0.2436  0.2928
91060W        W34076  16.054  28.033   5.425 -0.0341  0.2525 -0.3159
91061W        W34077  34.093   7.856  14.938  0.2580  0.0259  0.0637
91062W        W34078  29.265  13.848  20.488  0.0683 -0.0566  0.2821
91063W        W34079  24.844  33.626  17.269  0.1912 -0.1632  0.0254
91064W        W34080  12.768  15.557  16.247 -0.0889 -0.0484  0.1456
91065W        W34081  29.665  25.649  28.823 -0.2035 -0.0864  0.0239
91066W        W34082  22.344  12.758  16.900 -0.1798 -0.4466 -0.1411
91067W        W34083  16.399  18.083  22.880  0.0321 -0.0445 -0.0867
91068W        W34084  30.509  15.702  19.254 -0.3543  0.2453  0.2494
91069W        W34085  29.326  14.628  15.578 -0.2001 -0.0177 -0.1721
91070W        W34086  12.643  24.479  15.761 -0.2872 -0.0966  0.0769
91071W        W34087  30.456  23.642  28.629 -0.2507  0.1321  0.0710
91072W        W34088  23.190  17.934  26.101 -0.1195 -0.0191 -0.1936
91073W        W34089  19.410  12.354  15.825 -0.5204  0.0341  0.3546
91074W        W34090   0.799  20.290   0.798 -0.1053  0.0969  0.0108
91075W        W34091  20.449  13.982   4.889  0.1548  0.1604 -0.3863
91076W        W34092   8.071  15.938  21.654  0.1663 -0.0353  0.2668
91077W        W34093   7.075  21.740  19.135 -0.2848 -0.1017 -0.1854
91078W        W34094  15.855   8.399  14.445 -0.0241 -0.1395 -0.0112
91079W        W34095  22.846  15.376  13.528 -0.2579 -0.2159 -0.0740
91080W        W34096  27.000   6.090  22.282  0.1749 -0.2092 -0.2319
91081W        W34097  21.852  33.839  27.366 -0.0773 -0.0810  0.3078
91082W        W34098  19.824  19.983   5.372  0.2466 -0.1349 -0.0983
91083W        W34099  27.864  20.902  15.760  0.1654 -0.2234 -0.1462
91084W        W34100  15.353  14.812   2.204  0.0533  0.1116  0.2003
91085W        W34101  26.032   2.061  16.711  0.1525 -0.3627 -0.1317
91086W        W34102  11.985  11.537  25.258 -0.4121  0.1711 -0.0213
91087W        W34103   8.725  24.495  17.264 -0.0495  0.2122 -0.1314
91088W        W34104  19.640  19.828  16.026  0.0582  0.2965 -0.3103
91089W        W34105  17.498  23.124  16.916  0.0856  0.0448  0.1147
91090W        W34106   3.783  11.196  27.347  0.2322  0.2376 -0.1392
91091W        W34107  24.007  27.488  23.099  0.1992  0.2668  0.1302
91092W        W34108  12.850  20.609  14.160 -0.1398 -0.1500 -0.0133
91093W        W34109  21.849  13.088  14.063 -0.0449 -0.0791  0.2754
91094W        W34110  23.789  20.031  15.424  0.1753  0.3970 -0.2779
91095W        W34111  12.909   7.540  22.689  0.0527  0.1077  0.1100
91096W        W34112   7.790  25.562  16.696 -0.3275  0.1118 -0.0869
91097W        W34113  17.608   1.497  22.305 -0.0190  0.2197  0.0630
91098W        W34114  16.310  24.659  17.386 -0.2691  0.1953  0.0861
91099W        W34115  18.928  10.647   2.011 -0.0463  0.0051 -0.1819
91100W        W34116   8.023  30.496  18.101  0.1210 -0.2609  0.3350
91101W        W34117  33.448  10.914  23.419  0.1232 -0.1527 -0.1336
91102W        W34118  23.353  26.122  19.882  0.1477 -0.5965  0.0150
91103W        W34119  27.710  12.521  14.776 -0.3068  0.0402 -0.1136
91104W        W34120  18.488  27.403  15.218  0.0453  0.0003  0.1303
91105W        W34121   5.424   1.481  23.785 -0.1448  0.2073 -0.0607
91106W        W34122  34.004  10.199  22.409 -0.0133 -0.1467  0.0097
91107W        W34123  26.132  19.839  16.454 -0.2082  0.0409 -0.2957
91108W        W34124  20.039  18.238  24.429 -0.0622 -0.1063 -0.1091
91109W        W34125  11.752  10.122  16.374  0.1526 -0.1877  0.0507
91110W        W34126   4.355  30.047  22.782 -0.1512  0.1438  0.2891
91111W        W34127  19.154  25.808  13.752  0.0574 -0.1303  0.2679
91112W        W34128  29.851  26.586  22.680  0.1493  0.0138 -0.1720
91113W        W34129   7.062  18.871  14.845  0.0357  0.0469 -0.1766
91114W        W34130  25.136  17.615  24.985 -0.3348 -0.1950  0.1532
91115W        W34131  22.948  18.252  15.607  0.0420  0.0412 -0.1305
91116W        W34132  29.913  18.686  21.559  0.1929  0.1763 -0.1312
91117W        W34133  12.903   2.946  15.355  0.1634  0.1163  0.5025
91118W        W34134  28.162   8.609  29.025 -0.3645  0.0547  0.1654
91119W        W34135  11.111   8.795  14.595  0.0173 -0.1573 -0.3925
91120W        W34136  13.194   1.090  17.657 -0.1460 -0.1496 -0.0131
91121W        W34137  25.660  17.100  18.155  0.2357 -0.0528  0.0212
91122W        W34138  23.300  22.389  15.464 -0.1767  0.3881  0.1746
91123W        W34139  14.770  17.455  13.710 -0.1860 -0.0225  0.1365
91124W        W34140  16.787  29.946  20.176 -0.2498  0.1549 -0.3268
91125W        W34141  30.957  25.992  24.182 -0.3981  0.3442  0.4690
91126W        W34142  16.364  27.317   5.784  0.6086 -0.1160  0.1169
91127W        W34143   4.553  25.702  28.858  0.1022 -0.2701  0.2439
91128W        W34144  28.315  17.726  24.332 -0.0731  0.2660 -0.0705
91129W        W34145  25.587   3.816  19.030 -0.1988 -0.0355  0.0025
91130W        W34146  24.236  15.064  15.208  0.3820 -0.0051  0.0251
91131W        W34147  24.805  11.051  26.002  0.0925  0.2128  0.0890
91132W        W34148  11.824  24.091  16.822  0.1804 -0.0528 -0.0259
91133W        W34149  27.940  26.158  25.636  0.2625  0.3136  0.0736
91134W        W34150  31.076   7.238  19.732  0.2014  0.0870  0.1030
91135W        W34151  32.208  29.925  20.777 -0.3682 -0.4665 -0.1770
91136W        W34152  14.409  18.522   3.714 -0.2828 -0.4293  0.2998
91137W        W34153  33.486  25.711  23.033  0.0012  0.1952 -0.2344
91138W        W34154  20.494   9.761  15.037 -0.0546  0.0198 -0.1993
91139W        W34155  12.432   2.381  27.712  0.2917 -0.1365  0.0418
91140W        W34156  16.903  27.161  18.210 -0.2742 -0.1762  0.1626
91141W        W34157  21.766  25.288  21.177 -0.0655 -0.0141 -0.2489
91142W        W34158   0.200  16.275  16.523 -0.1862 -0.0184 -0.1322
91143W        W34159  20.361  28.589  25.113 -0.0490  0.0813  0.1049
91144W        W34160  25.808  17.388  21.539  0.0384  0.5596  0.1608
91145W        W34161  19.022  18.620  16.215 -0.6506 -0.0075  0.0139
91146W        W34162  10.770  28.644  22.774  0.4867  0.1094 -0.3687
91147W        W34163  16.117  32.317  16.942  0.0400 -0.3854 -0.0741
91148W        W34164  17.425  10.692  18.934 -0.0905 -0.0455 -0.2434
91149W        W34165  22.982  14.540  14.493 -0.1965 -0.4199  0.1026
91150W        W34166  27.739  18.518   2.558  0.1561  0.0094 -0.2676
91151W        W34167  23.520  24.896  27.403 -0.1278 -0.1558 -0.2152
91152W        W34168  16.944  17.303  12.770  0.0950 -0.2614  0.4196
91153W        W34169  22.933  26.348  17.842  0.0576 -0.3115 -0.1328
91154W        W34170  14.705  22.627  13.150  0.1634  0.1859  0.0893
91155W        W34171  10.948  12.702  27.310 -0.1734 -0.2671 -0.0181
91156W        W34172  11.149  28.134  16.719 -0.1522 -0.1347  0.0910
91157W        W34173  31.342  24.178  23.697 -0.0023  0.2289 -0.0321
91158W        W34174  15.431   5.573  18.468  0.1023 -0.0091 -0.1594
91159W        W34175  11.908  26.909  18.110 -0.0026 -0.2946  0.0198
91160W        W34176  18.733  11.183  12.117  0.1828 -0.2316 -0.2209
91161W        W34177  13.311  34.292  28.719  0.2686 -0.0586 -0.1601
91162W        W34178  21.648  27.790  23.221 -0.4506 -0.1364  0.0126
91163W        W34179  34.033  28.948  25.354 -0.1735  0.1636 -0.5594
91164W        W34180  23.357  25.842  18.509 -0.1447  0.1031 -0.0036
91165W        W34181  12.255  23.940  22.101  0.3422  0.2721 -0.1542
91166W        W34182  14.656  10.523  24.960  0.0163  0.0089 -0.0662
91167W        W34183  12.055  20.057  16.043 -0.1280 -0.2001  0.0923
91168W        W34184  15.024   0.619  20.113  0.1776 -0.1423  0.0062
91169W        W34185  16.373  33.101   7.582 -0.0792  0.0008 -0.0492
91170W        W34186  24.957  10.387  18.667  0.0650  0.0501 -0.1450
91171W        W34187  17.370  16.585  24.972  0.0540  0.0644 -0.0382
91172W        W34188  18.789  20.482  12.522 -0.1753  0.0153  0.0106
91173W        W34189  20.393  13.996  16.573  0.3383 -0.1411 -0.3246
91174W        W34190   9.509  21.510  12.703  0.0175 -0.1109  0.2049
91175W        W34191  24.024  25.644  21.629  0.3470  0.1597 -0.2751
91176W        W34192  29.178  13.997  17.837  0.3127 -0.0943  0.0282
91177W        W34193  11.822  23.540  17.668 -0.1010 -0.2702  0.1188
91178W        W34194   9.501   9.715  25.200  0.1779 -0.0236  0.4376
91179W        W34195   9.731   8.976  19.563 -0.0819  0.1909  0.3145
91180W        W34196  20.201  31.904  28.455 -0.2549 -0.3591 -0.0117
91181W        W34197  13.460  21.342  21.761  0.1831 -0.0161  0.0042
91182W        W34198  17.572  19.832  23.866 -0.0197  0.1786  0.0529
91183W        W34199  30.358  29.209  18.227  0.1063 -0.1827 -0.1271
91184W        W34200   1.909   2.375  24.728 -0.0918  0.0555  0.3649
91185W        W34201   1.403  22.476  19.848  0.1034  0.0290  0.2235
91186W        W34202   3.336  21.341  15.862 -0.2033  0.0174 -0.1649
91187W        W34203  23.160  19.799  13.910 -0.2474 -0.3273  0.2865
91188W        W34204  11.363  10.487  28.283 -0.2789 -0.2026 -0.3202
91189W        W34205  27.414   6.715   5.066  0.2413 -0.2055 -0.0240
91190W        W34206  27.536  32.313  19.823 -0.0146 -0.1068 -0.2268
91191W        W34207  12.683  15.562  12.751  0.0896 -0.0960 -0.0681
91192W        W34208  30.679  21.596  18.050  0.2284  0.0725  0.2089
91193W        W34209  27.792  18.799  17.788  0.2689  0.0575 -0.0723
91194W        W34210  24.667  20.949  18.639 -0.0316 -0.1898  0.3895
91195W        W34211  15.454  15.563  13.097 -0.1919  0.0804  0.1750
91196W        W34212  20.164  33.131  16.650 -0.2069  0.1914 -0.3836
91197W        W34213  11.897   8.707  17.950  0.1997  0.2937 -0.1191
91198W        W34214  30.522  22.971  18.616  0.0409 -0.0209  0.0010
91199W        W34215  11.095  25.346  13.711 -0.2764  0.1318 -0.3214
91200W        W34216  23.475  28.020  19.049 -0.1607 -0.2552  0.1764
91201W        W34217   7.440  26.749  13.414  0.2949  0.1230 -0.1323
91202W        W34218  29.873  29.602  18.759 -0.0508  0.1107  0.1892
91203W        W34219  33.742  30.544  20.260 -0.2618 -0.1495  0.1883
91204W        W34220  19.230  10.542  18.999  0.2499 -0.2032  0.1284
91205W        W34221  32.706  31.836  17.266 -0.2387  0.1485  0.1818
91206W        W34222  23.033  17.474  27.391 -0.2012  0.0381 -0.4082
91207W        W34223  22.173  29.897  15.336 -0.2180 -0.3282  0.2358
91208W        W34224  17.161  16.732  18.448  0.1167 -0.2030 -0.1020
91209W        W34225   7.176   9.754  17.600  0.0299 -0.1475  0.0121
91210W        W34226  21.123  24.864  26.777  0.0521  0.0282  0.2047
91211W        W34227  23.777  10.670  14.991  0.1292  0.1005  0.1396
91212W        W34228  26.001  17.385  22.041 -0.2462 -0.0680  0.2641
91213W        W34229   1.773  30.632   2.773  0.1516  0.2223 -0.2329
91214W        W34230  24.985  31.723   4.547 -0.0580 -0.0456  0.2367
91215W        W34231  17.921   3.315  14.967  0.1922  0.1363  0.2358
91216W        W34232  10.573  21.257  13.833  0.0011  0.2047 -0.2803
91217W        W34233  33.202  32.360  25.190 -0.3826 -0.0512  0.0046
91218W        W34234  17.507  22.188  15.825 -0.3079 -0.2818  0.0591
91219W        W34235  17.111  22.656  18.094 -0.2054 -0.0161  0.2226
91220W        W34236  27.485  16.312  20.743 -0.0949 -0.1115  0.1432
91221W        W34237  11.453  10.329  16.067  0.0191 -0.0900 -0.1771
91222W        W34238  22.128  34.080  20.762  0.2400 -0.0217  0.1167
91223W        W34239   6.295  18.266  19.800 -0.0702  0.0230 -0.0649
91224W        W34240  11.415  24.664  19.026  0.0262  0.1525  0.5578
91225W        W34241   3.939  25.551  24.603 -0.0878  0.0257  0.0483
91226W        W34242  30.222   9.296  19.644  0.1726  0.1785  0.0145
91227W        W34243  20.340  19.922  12.847 -0.0697 -0.0298 -0.2435
91228W        W34244  29.621  19.399  20.488  0.1296  0.4427  0.1203
91229W        W34245  24.390  25.976  24.525  0.0562 -0.2579 -0.0735
91230W        W34246  19.993  17.135  13.073 -0.1902 -0.1002  0.0318
91231W        W34247  12.863  28.556  22.210  0.3847  0.1219 -0.0468
91232W        W34248  21.522  29.479  20.440 -0.0935 -0.0676 -0.0564
91233W        W34249  21.924  31.513  20.880  0.2022  0.2436 -0.2095
91234W        W34250  29.857  11.202   5.609  0.1045 -0.0619  0.1510
91235W        W34251  25.964  17.813  20.595 -0.1585  0.2327  0.1383
91236W        W34252  32.311  30.313  23.193 -0.1721 -0.1123 -0.0186
91237W        W34253  10.907  20.825  21.760  0.0654 -0.0269 -0.1935
91238W        W34254  21.421  22.066  22.859 -0.4581 -0.0491  0.0469
91239W        W34255   5.240  20.212  20.423  0.2080 -0.0672  0.2142
91240W        W34256   3.567  15.408  24.561 -0.2893 -0.1273 -0.1025
91241W        W34257  14.659  23.706  20.615 -0.2553 -0.0762  0.0649
91242W        W34258  15.358   8.204  15.026  0.0899 -0.1578 -0.2913
91243W        W34259  18.149  22.662  20.189 -0.0586  0.1707  0.2050
91244W        W34260  20.696  28.020   2.012  0.1157 -0.2030  0.1765
91245W        W34261  24.843  28.947  15.707  0.1950 -0.0215 -0.1684
91246W        W34262  16.045  12.991   1.091  0.0067  0.1025  0.0561
91247W        W34263  19.811   9.668  15.752  0.0514  0.0685 -0.5059
91248W        W34264  24.040  15.191  16.628  0.0376  0.1329 -0.1709
91249W        W34265  26.449  29.199   0.680  0.0300  0.0803  0.0061
91250W        W34266   9.740  30.382  28.288  0.1586 -0.1212  0.2969
91251W        W34267  10.457  14.318  17.374  0.2732  0.1888 -0.0872
91252W        W34268   0.038  25.211  19.800  0.0981  0.0837 -0.0158
91253W        W34269  30.527  17.085  25.869  0.1536  0.0944 -0.3051
91254W        W34270   6.526   5.128  18.454 -0.1155 -0.0383  0.2025
91255W        W34271  22.837   8.817  19.822 -0.1932  0.0692 -0.1763
91256W        W34272  20.639  27.358  17.218 -0.1981 -0.0824  0.1363
91257W        W34273  10.209  26.505  24.072  0.0898  0.0426  0.2141
91258W        W34274  28.554  18.441  26.189  0.1652  0.0486  0.5047
91259W        W34275  29.512  32.859   8.338  0.2268  0.0055  0.0591
91260W        W34276  11.942  19.420  19.697  0.0750  0.0871  0.0601
91261W        W34277  23.579  15.685  18.712 -0.2551 -0.1658 -0.2438
91262W        W34278  17.233  31.922   1.530 -0.0299 -0.1969  0.0445
91263W        W34279  11.534   6.626  15.483  0.1247  0.0455 -0.1342
91264W        W34280  17.470  15.282  13.333 -0.0667 -0.3282 -0.0262
91265W        W34281  21.736  15.944   3.420  0.0135 -0.2626  0.4009
91266W        W34282  29.898  29.994  19.303 -0.2162  0.3335  0.1099
91267W        W34283  19.412   6.698  19.595 -0.1157 -0.0409  0.1873
91268W        W34284   4.667  23.868  14.018  0.0093  0.3636 -0.0591
91269W        W34285  17.433  29.029  23.541 -0.1042 -0.0685  0.0723
91270W        W34286  29.661  22.049  26.709  0.0554 -0.2530  0.6653
91271W        W34287   6.518  20.094  15.711 -0.2468 -0.0945 -0.4364
91272W        W34288  20.686  30.278  18.548 -0.0171 -0.0109  0.1249
91273W        W34289   3.671  30.095  17.662  0.0973 -0.0494 -0.0080
91274W        W34290  15.941  17.572  19.799 -0.0062 -0.3260 -0.5189
91275W        W34291  16.998  27.331  28.405  0.0592 -0.2175 -0.2436
91276W        W34292  12.355  24.324  27.642  0.1496 -0.1842  0.1650
91277W        W34293  15.919  28.491  18.155 -0.2465 -0.1047  0.2523
91278W        W34294   7.491  11.813   4.271 -0.1907  0.0534  0.2675
91279W        W34295  31.958  34.349  27.505  0.0242 -0.0071 -0.0152
91280W        W34296  27.710  29.224  20.749 -0.1746  0.0239 -0.3285
91281W        W34297  21.201  21.172  17.727  0.1328  0.2501 -0.1950
91282W        W34298   5.974  31.428  15.370  0.1035 -0.0240  0.0269
91283W        W34299  17.780  25.313  19.982  0.2713  0.1070 -0.0028
91284W        W34300  30.028  26.998  19.866  0.1416 -0.4154 -0.1604
91285W        W34301  17.617  25.882  18.339 -0.0658  0.0378  0.0111
91286W        W34302  32.412  22.890  18.558  0.0932  0.0289 -0.0490
91287W        W34303  26.507  19.370  23.351 -0.0802 -0.1120 -0.0322
91288W        W34304   9.166  18.912  22.752 -0.1874  0.0280 -0.1340
91289W        W34305  20.947  13.333  22.611 -0.2121  0.3014  0.2669
91290W        W34306   3.933  27.214  22.631  0.1283 -0.0756 -0.2978
91291W        W34307   5.491  11.351  18.807  0.1123 -0.1931  0.1674
91292W        W34308  33.495  19.924  16.559 -0.0872  0.0475  0.1221
91293W        W34309  12.881  14.358  12.251  0.0651 -0.0479 -0.1910
91294W        W34310  33.904  20.070  16.824 -0.0384 -0.0512 -0.0914
91295W        W34311  28.363  34.055  22.320  0.6301 -0.3350 -0.0593
91296W        W34312  13.842   9.322  19.003  0.0392  0.0835 -0.3106
91297W        W34313  21.884  17.175  25.352  0.1690 -0.0232 -0.1930
91298W        W34314  20.263  20.144  14.898 -0.0057  0.0720  0.0965
91299W        W34315  21.860  23.494  22.605  0.1100 -0.0289 -0.0356
91300W        W34316  31.735   6.520  18.993  0.0175 -0.1328 -0.0515
91301W        W34317  14.530  14.206  12.414 -0.1057 -0.0116  0.4542
91302W        W34318  17.079  23.988  17.015  0.4739 -0.0753 -0.4447
91303W        W34319  22.462   9.596  13.972  0.1372 -0.2440  0.1125
91304W        W34320  16.437   0.584  16.219 -0.0854 -0.1540  0.1448
91305W        W34321  34.293   9.707  15.348 -0.2310 -0.0913  0.0559
91306W        W34322  19.678   3.267   1.116  0.3077 -0.2208  0.5599
91307W        W34323  10.050  33.177  15.251  0.0706  0.1413 -0.0774
91308W        W34324   8.195  27.177   7.476  0.0432 -0.0329  0.0411
91309W        W34325  10.321  26.149  26.323 -0.0967  0.1574 -0.1908
91310W        W34326  18.536  19.574  12.151  0.1433 -0.4328  0.0512
91311W        W34327  28.627  27.604  21.351 -0.1231 -0.3395 -0.0915
91312W        W34328  29.275  29.517  20.474 -0.0065 -0.0404  0.1681
91313W        W34329  22.767  20.936  21.038  0.2728 -0.2549  0.2544
91314W        W34330  25.301  31.046  20.667  0.3642 -0.2195  0.3026
91315W        W34331  23.859  13.556  17.977 -0.0330 -0.2310  0.1577
91316W        W34332   3.678  17.047  25.988 -0.4120  0.2840 -0.3127
91317W        W34333  23.160   7.232  25.153  0.0399  0.0306 -0.1369
91318W        W34334  27.514  30.577  17.706  0.0128  0.0833 -0.0297
91319W        W34335  22.974  16.686  13.553  0.0885  0.1735  0.1312
91320W        W34336  29.320   0.612  16.577 -0.0205  0.0141 -0.1052
91321W        W34337  31.300  31.030  25.526  0.1280 -0.0045 -0.1061
91322W        W34338  23.619  17.563  14.234 -0.0185  0.1012  0.3251
91323W        W34339  31.356  17.580  18.501 -0.0990  0.0057 -0.4487
91324W        W34340   9.415  21.927  14.722 -0.0197 -0.4641  0.1928
91325W        W34341  27.852  19.991  17.127  0.0176 -0.1207 -0.2639
91326W        W34342   9.110  23.220  20.822  0.1858 -0.4477 -0.0619
91327W        W34343  24.151  28.115  15.555  0.4576 -0.1613  0.0482
91328W        W34344  24.788   3.893  22.649 -0.0921 -0.3651  0.1496
91329W        W34345  20.443  13.160  16.853  0.0062 -0.1554 -0.0504
91330W        W34346  25.412   8.753  18.245 -0.1975 -0.1829 -0.1536
91331W        W34347  14.318  30.630  10.988 -0.1664 -0.0957 -0.0270
91332W        W34348  11.043   5.185  17.149 -0.1634  0.4675  0.1227
91333W        W34349  24.093  16.174  14.278 -0.0010  0.0506 -0.0930
91334W        W34350  29.833  14.812  24.378  0.1562  0.2446 -0.0995
91335W        W34351  14.976   6.145   0.578  0.2664 -0.0948 -0.2895
91336W        W34352  14.016   6.792  14.290 -0.1300  0.0029  0.0610
91337W        W34353   2.100  31.446  22.264  0.1154  0.2282  0.3430
91338W        W34354   6.106  26.515  27.836  0.1393 -0.1715 -0.1356
91339W        W34355  23.162  22.329  23.032 -0.1753  0.0302  0.1988
91340W        W34356   9.084  11.768  15.797 -0.2424 -0.1181  0.1025
91341W        W34357  12.890  11.447  13.737 -0.1485 -0.1358  0.1193
91342W        W34358  29.675  10.412  24.766 -0.0680  0.2519  0.0821
91343W        W34359  24.801  27.358  28.325  0.2122  0.0913 -0.0815
91344W        W34360  28.633  28.164  16.230  0.2021  0.0952 -0.1238
91345W        W34361  29.932  25.805  16.843 -0.0403 -0.1568 -0.0599
91346W        W34362  16.721   4.082  23.058 -0.0379 -0.0126 -0.1123
91347W        W34363   1.360  13.419   8.270  0.2380  0.1870 -0.2488
91348W        W34364  22.485  27.711  19.964  0.1076 -0.0474  0.1838
91349W        W34365  32.044  28.348  25.522  0.2615  0.0050  0.2560
91350W        W34366  12.366   4.834  25.444 -0.0249 -0.0547  0.0575
91351W        W34367  17.553  16.859  19.041  0.0317 -0.1759 -0.0714
91352W        W34368  18.572  18.778  13.345  0.2847 -0.2965 -0.1605
91353W        W34369  22.726   3.956  28.822  0.1373  0.1597 -0.0007
91354W        W34370  12.724  16.449  14.462 -0.3956  0.0604 -0.1835
91355W        W34371  21.124  26.297  23.683  0.0529  0.4501 -0.0020
91356W        W34372   8.236   9.371  20.016 -0.0292  0.0653  0.0168
91357W        W34373  28.929  17.066  24.782  0.1592 -0.5029  0.0829
91358W        W34374  16.774  28.125  15.914  0.1498 -0.0050  0.5173
91359W        W34375  28.330  13.030  19.593 -0.0332 -0.1227 -0.0092
91360W        W34376  28.676  18.842  17.842  0.1596 -0.0245 -0.0052
91361W        W34377   6.042  27.716  22.037  0.1557  0.0449  0.0549
91362W        W34378  12.623  20.211  11.865  0.1177  0.2315 -0.2701
91363W        W34379  28.574   4.155  24.860 -0.6291  0.2326 -0.2046
91364W        W34380  27.103  26.549   5.221  0.0301  0.3401  0.0175
91365W        W34381  22.128  23.752  15.100  0.0219 -0.2576  0.1028
91366W        W34382  27.104   4.217  16.152  0.3605 -0.0060  0.0254
91367W        W34383   7.092  17.161   6.029  0.0315  0.0805  0.2968
91368W        W34384  23.186  33.805   8.691 -0.1064  0.0641  0.1036
91369W        W34385  10.152  29.537  22.074 -0.0810 -0.0890  0.0402
91370W        W34386   2.790  24.459  13.810 -0.0198 -0.2085  0.0010
91371W        W34387   4.733  21.302  18.386 -0.4784 -0.0915  0.0059
91372W        W34388  17.910   2.427  27.008 -0.1205  0.0902 -0.0517
91373W        W34389  24.397  20.504   4.699 -0.1802 -0.0735 -0.1368
91374W        W34390  30.173  15.742  27.203  0.1684 -0.2372  0.0162
91375W        W34391  32.514  26.013  23.166  0.4643 -0.0010 -0.0835
91376W        W34392  31.327  17.117   4.702  0.2349 -0.1304  0.1045
91377W        W34393  27.795  11.845  20.229 -0.0568 -0.4116 -0.0026
91378W        W34394  19.659  17.516  15.024  0.4516  0.1809  0.3607
91379W        W34395  15.019   5.248  18.654 -0.1493 -0.2994 -0.0593
91380W        W34396  23.084  12.764  21.801 -0.1350 -0.0604 -0.1108
91381W        W34397   3.970  26.492   4.295  0.0781 -0.0147 -0.1629
91382W        W34398   8.598  21.124  14.513 -0.1212 -0.1508 -0.0574
91383W        W34399  16.904   6.716  28.421  0.1031 -0.0023  0.2967
91384W        W34400  20.213  29.033  24.310 -0.0998  0.1453  0.0270
91385W        W34401  34.089  33.592  15.064  0.1351  0.3034  0.1593
91386W        W34402   2.249  26.858  17.578  0.3085 -0.1723  0.2162
91387W        W34403  11.614  26.600  24.260  0.1911 -0.0754 -0.0819
91388W        W34404  16.343  27.495   3.136 -0.4314  0.1318 -0.0445
91389W        W34405  19.938  22.732  17.033 -0.0173  0.1496 -0.1682
91390W        W34406  21.089  29.412  21.698  0.0227 -0.0222  0.0986
91391W        W34407  17.673   3.709  25.801  0.0738  0.0358 -0.0983
91392W        W34408  21.107  33.005  15.074 -0.2331  0.1322 -0.3435
91393W        W34409  31.555  17.783  24.772  0.3297  0.1282  0.0254
91394W        W34410   8.675  25.908  14.303  0.0647 -0.1737  0.0012
91395W        W34411   0.901  14.828  25.831 -0.0547  0.4402 -0.3500
91396W        W34412  23.616  34.349   5.078  0.3127  0.2213  0.0328
91397W        W34413  15.628  14.002  15.900  0.0526  0.2220 -0.1750
91398W        W34414  28.370  24.823  16.935  0.1200 -0.0520 -0.2966
91399W        W34415  33.523  34.380  19.890  0.1922 -0.0698 -0.0357
91400W        W34416  27.720  21.715   8.902 -0.0306  0.1814 -0.1620
91401W        W34417   6.618  27.303  19.565  0.0445  0.3995  0.2105
91402W        W34418  32.107  27.718  20.612  0.1861  0.0762  0.3453
91403W        W34419  13.267  22.001  16.654 -0.1162  0.2124  0.3869
91404W        W34420  24.424   1.704  26.709 -0.0052 -0.1672  0.1084
91405W        W34421  16.320  29.024  20.585  0.2288  0.2751  0.3311
91406W        W34422  19.900  31.622  26.259  0.2666  0.2395  0.4144
91407W        W34423  10.017  32.114  18.442  0.0748 -0.0154  0.4798
91408W        W34424   3.644  24.157  21.175 -0.2079 -0.0896  0.1489
91409W        W34425  33.810  32.151   4.701  0.1056  0.1898  0.0571
91410W        W34426  11.054  34.121  20.877 -0.3140  0.1155 -0.1721
91411W        W34427  30.026   8.807  16.329 -0.2924  0.0146 -0.2175
91412W        W34428  11.329  29.704  23.892 -0.0238 -0.0639  0.0438
91413W        W34429  28.636  10.731  15.610  0.2550 -0.2276 -0.0020
91414W        W34430  20.336  21.573  14.394  0.1910  0.2703  0.0043
91415W        W34431   7.620  15.953  21.973  0.0423 -0.1201  0.0752
91416W        W34432   6.259  25.417  20.179  0.0956  0.1154 -0.2897
91417W        W34433   9.592  33.389  25.771  0.2952 -0.1873 -0.0877
91418W        W34434  24.965  30.933  20.228  0.3467 -0.1814 -0.1032
91419W        W34435  11.397  18.665  13.625 -0.2130 -0.1331 -0.0122
91420W        W34436  17.062  23.936  16.071  0.0219  0.1469 -0.1967
91421W        W34437  17.760  21.173  23.275  0.1868  0.0284  0.2695
91422W        W34438  19.234  24.123  28.899 -0.0449  0.0201 -0.0606
91423W        W34439   6.825  16.372  19.986 -0.0448 -0.0864  0.1437
91424W        W34440  23.904   8.783  14.797  0.2687  0.1008  0.0741
91425W        W34441  29.353  22.665  16.902  0.2280 -0.3832  0.2332
91426W        W34442  23.659   6.291  23.357  0.0394  0.2585  0.0864
91427W        W34443  11.228  22.361  28.143  0.2433  0.0879  0.0101
91428W        W34444  18.386  28.974  25.702 -0.0591 -0.0224  0.0164
91429W        W34445  24.660  19.732  16.719  0.1426  0.1324  0.4890
91430W        W34446   3.399  30.063  16.487  0.0103  0.1596 -0.1065
91431W        W34447  31.328  20.035  18.581 -0.0086  0.3778  0.0787
91432W        W34448   7.520  27.764  23.772 -0.1304 -0.1884  0.1658
91433W        W34449  26.812  19.092  24.647  0.0802  0.1960 -0.1046
91434W        W34450   9.891   6.401  19.980 -0.1309  0.0853  0.2075
91435W        W34451  19.189  26.542  28.836 -0.3296  0.1288  0.2867
91436W        W34452  25.896  21.691  22.928 -0.2903  0.1321  0.1263
91437W        W34453  10.312   2.771  27.589  0.0933  0.0083  0.1560
91438W        W34454  13.593  11.376  17.378 -0.2569 -0.1494 -0.0474
91439W        W34455  16.466  17.467  16.796  0.2191  0.2421  0.3040
91440W        W34456   9.104  27.385  25.572 -0.1569  0.2762 -0.3089
91441W        W34457  13.318  20.642  14.124 -0.0164  0.0616 -0.0959
91442W        W34458   7.659  24.191  26.566 -0.0940 -0.0121 -0.3463
91443W        W34459  27.192  10.853  16.341  0.0211  0.2302  0.3402
91444W        W34460  17.410  32.494  28.523  0.1091  0.0502  0.0154
91445W        W34461   2.724  11.612  16.169  0.0981  0.0003 -0.0280
91446W        W34462   0.152   7.667  25.130 -0.1345  0.3819  0.2382
91447W        W34463  15.480   2.040  16.765 -0.2107 -0.1080 -0.0748
91448W        W34464  29.910   7.294  24.171  0.0841 -0.0291 -0.0618
91449W        W34465  27.996  30.973   0.346 -0.0703  0.1474 -0.0574
91450W        W34466  20.925   4.227  20.821  0.1562  0.1409  0.0032
91451W        W34467   3.505  15.318  25.229 -0.1752 -0.2724 -0.2525
91452W        W34468   5.440  17.576  13.278 -0.0244 -0.2609  0.0079
91453W        W34469  18.957  26.083  17.722 -0.1682 -0.3254 -0.0541
91454W        W34470   7.734  13.623  13.738  0.0267 -0.2047 -0.2001
91455W        W34471  28.066  25.728  24.095 -0.2353 -0.1113  0.1655
91456W        W34472  21.007  21.010  14.269 -0.1205 -0.2126 -0.1504
91457W        W34473  31.213  21.321  23.985  0.0460 -0.4812 -0.1359
91458W        W34474  17.863  10.641  20.558 -0.1011  0.0494 -0.1578
91459W        W34475  28.379  21.344  10.925 -0.2651 -0.0304  0.1729
91460W        W34476  26.480  23.391  19.209 -0.3145  0.1502 -0.1508
91461W        W34477   1.930  16.565  14.012  0.0211 -0.3259  0.3558
91462W        W34478  11.099   3.406   1.051  0.4102  0.2058 -0.2392
91463W        W34479  11.140  13.124  15.633 -0.0660 -0.0435  0.0361
91464W        W34480  24.746  15.239  14.043  0.0770  0.0358 -0.0438
91465W        W34481  10.200  27.562  28.309  0.1103 -0.0466  0.0309
91466W        W34482  23.536  30.996  28.471  0.1691 -0.0717 -0.1693
91467W        W34483  20.245  25.973  26.505  0.0955  0.0961 -0.2107
91468W        W34484  15.387  18.830  15.773 -0.0557  0.0268 -0.0027
91469W        W34485  12.521  20.800  12.400  0.0551  0.2826 -0.1358
91470W        W34486  26.787  20.905  25.242  0.3364  0.4455 -0.1132
91471W        W34487  23.148   2.100  22.147  0.0745  0.1655  0.2806
91472W        W34488  13.980  30.524  22.966  0.2463  0.1886 -0.1005
91473W        W34489  23.436  11.687  14.515 -0.1354  0.2220 -0.1361
91474W        W34490   1.197  29.496   4.893  0.0049  0.1382 -0.0250
91475W        W34491  22.078   6.141  24.275  0.2261  0.0436 -0.1710
91476W        W34492  17.800  23.896  21.458  0.1577 -0.0651  0.1172
91477W        W34493  26.951  28.810  23.572  0.0053  0.3061  0.0850
91478W        W34494  17.310  23.212   5.110 -0.1686 -0.1534  0.1745
91479W        W34495  12.358  28.060  19.454  0.2988  0.2028 -0.1031
91480W        W34496  10.608  28.328  14.023 -0.1778 -0.0085 -0.0446
91481W        W34497  17.947  25.512  17.568  0.2036 -0.2663  0.1954
91482W        W34498  14.397  31.775  16.683  0.2457 -0.3278 -0.1296
91483W        W34499  28.049  27.825   6.935 -0.3024  0.0927  0.2962
91484W        W34500  16.887  16.275  12.857 -0.2767  0.1183 -0.1074
91485W        W34501  10.925   5.335  23.566 -0.0579 -0.1907 -0.5192
91486W        W34502  26.834  12.997  17.694 -0.2584  0.2322  0.0613
91487W        W34503  26.168  25.919   6.009 -0.0755 -0.0475  0.1647
91488W        W34504  20.760  14.883   4.527  0.1020 -0.0155  0.1014
91489W        W34505  15.712  12.784  12.530  0.2689 -0.2157 -0.0466
91490W        W34506  13.423   0.398  19.150  0.2589  0.2354 -0.2740
91491W        W34507  15.657  18.761  15.303 -0.2926  0.1159 -0.2341
91492W        W34508   4.568  25.028  15.499  0.0180  0.0359 -0.1501
91493W        W34509  31.764  22.196  20.693 -0.0929 -0.0656 -0.1262
91494W        W34510  19.398  10.877   2.228 -0.1509  0.0370  0.0895
91495W        W34511  17.326  12.711  12.449 -0.3333 -0.1725  0.1837
91496W        W34512  27.065   0.595  24.299 -0.3736 -0.0773 -0.2526
91497W        W34513  25.157  33.816  19.139  0.0278 -0.0046  0.0495
91498W        W34514   3.082   3.030   3.921  0.0105 -0.0517 -0.0356
91499W        W34515  17.364  28.475  14.983  0.1660 -0.0967 -0.2161
91500W        W34516  28.506  31.640  26.941  0.1222 -0.1562 -0.3022
91501W        W34517   9.377   2.702  28.496 -0.0995 -0.1678 -0.1723
91502W        W34518   1.730  21.209  17.899 -0.1775  0.2247 -0.2022
91503W        W34519   8.104  16.160  17.392 -0.0433 -0.3492  0.2475
91504W        W34520  21.427  22.993  15.910 -0.2054 -0.1616 -0.1238
91505W        W34521  16.259  19.997  12.383  0.2142  0.0770 -0.2853
91506W        W34522   8.910  19.433  17.554  0.0183 -0.1145 -0.1540
91507W        W34523  22.078  10.369  16.812 -0.1292 -0.1675  0.0375
91508W        W34524  20.909   9.212  26.258  0.0722  0.0094 -0.1671
91509W        W34525  14.463  21.851  23.227  0.0002 -0.0449  0.4456
91510W        W34526   2.413  28.456  15.697  0.1127  0.0678 -0.1490
91511W        W34527  18.086  27.411  28.895 -0.0106 -0.0383  0.0252
91512W        W34528  27.225   9.092  15.718  0.1821 -0.1568 -0.1795
91513W        W34529  16.397  15.182   0.079  0.0443 -0.0281  0.1627
91514W        W34530   3.498   2.984  19.318  0.1703 -0.1307 -0.3296
91515W        W34531  25.928  30.514  27.657  0.2515 -0.2493  0.0282
91516W        W34532  18.249  30.270   0.875 -0.1650  0.2025  0.1657
91517W        W34533  17.142  15.504  27.456 -0.0609 -0.0248  0.2938
91518W        W34534  11.783  13.916  19.807  0.1644  0.0924 -0.0995
91519W        W34535  17.064  29.235  14.730 -0.3435  0.3100 -0.0076
91520W        W34536  19.970  10.564  25.241  0.1040 -0.0139 -0.0955
91521W        W34537  24.404  23.553  15.372  0.0704  0.0276  0.2153
91522W        W34538  21.433  23.240  28.162  0.0624  0.1308 -0.0964
91523W        W34539  19.264   4.622  23.436  0.2347 -0.2464  0.0669
91524W        W34540   6.494  30.454  16.607 -0.0538 -0.3274 -0.1506
91525W        W34541  31.991   0.792   6.618 -0.3909  0.0208 -0.1012
91526W        W34542  21.290  22.946  16.787  0.0472  0.1157  0.1519
91527W        W34543  19.570  19.691  15.426  0.0519  0.0338 -0.0965
91528W        W34544  29.440  29.234  21.399  0.2032 -0.1866  0.0266
91529W        W34545  13.993  31.897  16.347 -0.2738  0.1153 -0.1813
91530W        W34546  23.176  21.174   2.899  0.1102  0.0224 -0.1435
91531W        W34547  18.743  28.821   3.483 -0.0917 -0.0200 -0.1536
91532W        W34548  18.252  33.197  16.845  0.2028  0.1120  0.1494
91533W        W34549  24.502  10.385  25.402  0.0491  0.0318 -0.0861
91534W        W34550   7.838  19.331   5.169 -0.0364 -0.1652 -0.0808
91535W        W34551  12.367  27.809  18.956 -0.0054  0.2369 -0.0352
91536W        W34552  34.557  12.253  16.105  0.0808  0.0087 -0.0066
91537W        W34553   2.325  20.534  17.046 -0.0146  0.0459  0.1913
91538W        W34554   9.083  17.187  13.594 -0.2944  0.1872 -0.2882
91539W        W34555  26.883  13.213  19.905 -0.0095  0.1001  0.0802
91540W        W34556  15.435   6.442  23.073 -0.1645  0.1296 -0.0279
91541W        W34557  16.664  10.255  14.920 -0.2292 -0.2006 -0.0292
91542W        W34558   3.028  33.086  26.207  0.0348  0.1963 -0.0527
91543W        W34559  24.619  25.681  21.915 -0.2371 -0.3153 -0.1144
91544W        W34560  12.073  24.819  13.802  0.1392 -0.0901  0.1228
91545W        W34561  11.217  26.139  15.227 -0.0907 -0.2095 -0.1429
91546W        W34562  23.771  20.571   0.518 -0.2800  0.0067  0.4989
91547W        W34563  18.962  18.638  12.979 -0.1175 -0.1359  0.1635
91548W        W34564  23.785  20.178  26.525  0.3288 -0.2373 -0.5658
91549W        W34565  11.617  18.801  15.055 -0.1364 -0.0257 -0.0651
91550W        W34566  22.821  23.832  24.631  0.0384 -0.2652 -0.1129
91551W        W34567  22.803  11.131   2.866  0.1074 -0.3747 -0.1163
91552W        W34568  17.685  10.899  14.997 -0.1649 -0.0893 -0.1041
91553W        W34569  10.641   5.429  15.208 -0.1747 -0.1119  0.0169
91554W        W34570   7.880  20.299  21.640  0.2395 -0.1691 -0.0510
91555W        W34571  22.993  29.022  22.056 -0.2504  0.2574 -0.0874
91556W        W34572   8.798  25.592  20.208 -0.0533  0.1641 -0.0096
91557W        W34573  16.556  23.293  22.615 -0.2610  0.1947  0.1204
91558W        W34574  22.235  21.559  18.422 -0.1458  0.1285  0.1042
91559W        W34575  26.820   3.791  26.871 -0.0862  0.0757  0.2817
91560W        W34576  17.170  26.826  18.377 -0.2184 -0.0038  0.0214
91561W        W34577  28.800  15.590  20.617 -0.0433  0.2070 -0.0761
91562W        W34578  10.373   9.469  22.741  0.0627  0.1129 -0.3536
91563W        W34579  12.079  22.723  19.834 -0.0563 -0.0158 -0.0557
91564W        W34580  22.766  13.403   3.623 -0.1001  0.1445 -0.1155
91565W        W34581   5.249  28.068  19.686 -0.2077  0.2150  0.3319
91566W        W34582  18.367   6.927  15.893 -0.1334 -0.1271  0.0350
91567W        W34583  17.184  31.431  18.690 -0.0200  0.1702  0.1724
91568W        W34584  21.698  24.861  14.590 -0.1115  0.1228  0.1302
91569W        W34585  10.980  23.260  28.472 -0.1769  0.0291 -0.0614
91570W        W34586   0.081  28.045   1.638  0.3210  0.2358 -0.0699
91571W        W34587   2.837  20.349  21.010 -0.0593  0.0850  0.2227
91572W        W34588  24.256  29.374   0.972  0.1926  0.1687  0.0127
91573W        W34589  14.072  20.714  28.686  0.3235  0.0631  0.0210
91574W        W34590  17.740  25.177  23.558 -0.2497  0.1518 -0.0590
91575W        W34591   7.560   2.410  14.990 -0.1014  0.4023  0.2016
91576W        W34592  20.380  26.366  17.920  0.1238  0.0155 -0.3996
91577W        W34593  30.040  24.708  20.109 -0.3572  0.0258  0.2214
91578W        W34594  28.763  32.345  24.334  0.1205 -0.0081 -0.0225
91579W        W34595  31.352  27.429  24.777  0.1410 -0.2045  0.0671
91580W        W34596  29.754  14.554  26.983  0.0066  0.1709 -0.1473
91581W        W34597  27.520  17.307  24.245 -0.2323  0.0704 -0.0613
91582W        W34598  26.284  22.774  26.525 -0.1387 -0.1309  0.2375
91583W        W34599  18.104  29.079  17.717  0.0343  0.1089  0.1218
91584W        W34600  17.230  11.817  12.005  0.0048 -0.3460  0.0982
91585W        W34601  29.391   5.934  15.684 -0.0168  0.0560 -0.4797
91586W        W34602  13.123   1.994  28.878  0.0121 -0.0122 -0.0201
91587W        W34603   3.010  29.524  24.508 -0.0245  0.0884 -0.0761
91588W        W34604  15.601  19.123  14.096 -0.0193  0.0933 -0.3930
91589W        W34605  17.215   7.055   1.605 -0.0533 -0.4575  0.0532
91590W        W34606  34.705  33.798  14.939  0.0187  0.1101  0.0320
91591W        W34607   3.183  12.257  20.112 -0.0695 -0.2075 -0.0525
91592W        W34608  22.752  22.394  20.797 -0.0701 -0.0844  0.0245
91593W        W34609  22.899  16.363  29.119 -0.1278  0.0740 -0.2088
91594W        W34610  11.953  15.775  13.849  0.1248  0.3765 -0.0267
91595W        W34611  20.658  19.693  20.056 -0.2505 -0.3110 -0.2893
91596W        W34612  13.859  13.166  16.426  0.0363  0.1751 -0.2188
91597W        W34613   0.340  31.160  14.958  0.0431  0.1404 -0.0337
91598W        W34614  29.657  13.177  24.073 -0.0955  0.1887 -0.0922
91599W        W34615  29.550  20.710  20.567 -0.0044 -0.3119 -0.2444
91600W        W34616  20.351   1.152   0.249  0.0803 -0.0280 -0.4205
91601W        W34617  14.908  23.048  20.657 -0.0177 -0.2121 -0.2191
91602W        W34618  17.848  28.749  18.391 -0.2271 -0.3420 -0.0817
91603W        W34619  16.107  19.533  14.891  0.1076 -0.1252  0.2550
91604W        W34620  28.379  25.523  21.479 -0.1715 -0.1827  0.0080
91605W        W34621  17.627  20.307   2.394  0.0947  0.0931 -0.0610
91606W        W34622  22.023   9.098  21.629 -0.0997 -0.0066 -0.0988
91607W        W34623  27.491  25.490  20.589  0.2583  0.0804  0.2143
91608W        W34624  19.480  28.646  20.543  0.0801 -0.3300  0.2232
91609W        W34625  13.630  22.583  27.996  0.2155 -0.3091 -0.3666
91610W        W34626  20.236  16.741  24.620 -0.1378 -0.0632  0.2123
91611W        W34627  31.746  31.891   0.765  0.0695  0.1914  0.0620
91612W        W34628  15.557  32.868  23.187  0.2072  0.0037 -0.0123
91613W        W34629  13.525  20.958  21.365  0.1116  0.0614 -0.2562
91614W        W34630  18.541  33.563  18.848  0.0690 -0.2102 -0.2946
91615W        W34631  22.364  26.982  16.301  0.1532  0.1131  0.1224
91616W        W34632  12.970  19.291  15.585 -0.3025 -0.1786 -0.1260
91617W        W34633  19.910  10.838  13.284  0.1228  0.2381 -0.3895
91618W        W34634  20.094  17.210  11.866 -0.4048  0.1028  0.2156
91619W        W34635  19.252  23.940  25.107  0.1764  0.0940 -0.0299
91620W        W34636  24.320   8.542  17.761 -0.3600 -0.1933  0.3091
91621W        W34637  25.157   0.338  24.148  0.0359  0.2917 -0.0955
91622W        W34638  18.594  31.694  16.394 -0.1629  0.1949 -0.1723
91623W        W34639  27.264  26.500  17.414 -0.2165  0.0287 -0.3761
91624W        W34640   4.239   8.343   1.680  0.3333  0.0441  0.0227
91625W        W34641  13.650  11.701  19.916 -0.0612 -0.3706  0.3014
91626W        W34642  10.457  27.121   1.636  0.0680  0.0650 -0.0104
91627W        W34643  24.008  23.378  24.320  0.1162  0.1143 -0.3651
91628W        W34644   7.265   8.906  16.231  0.0597  0.1482 -0.2092
91629W        W34645  30.959  26.976  26.444 -0.1525  0.0384  0.0484
91630W        W34646  10.251  19.392  14.611  0.2100 -0.1149  0.1482
91631W        W34647  16.470  22.021  28.274  0.0190  0.3296  0.0510
91632W        W34648  20.440  16.520  15.831 -0.0706 -0.0691 -0.0777
91633W        W34649  15.308  34.218   0.503 -0.1844  0.1589 -0.2566
91634W        W34650  12.098  24.245  26.161 -0.0478 -0.1329 -0.3359
91635W        W34651  18.804  16.552  12.624 -0.1462 -0.1055 -0.0886
91636W        W34652  24.792   0.769  20.018  0.2284  0.1364  0.2152
91637W        W34653  15.308  25.694  26.222  0.0322  0.1210 -0.1858
91638W        W34654   3.974  33.520   0.692  0.2079 -0.4475  0.1889
91639W        W34655  17.398  26.021  20.430  0.2261  0.0898 -0.1076
91640W        W34656  19.506  30.505  25.944 -0.0727 -0.0622 -0.1269
91641W        W34657   5.922   8.871   5.212  0.2876  0.4162  0.3220
91642W        W34658  28.851  18.500  27.032 -0.1198  0.2261  0.1196
91643W        W34659  12.648   7.798  17.269  0.1409  0.0814  0.1943
91644W        W34660   6.931  16.828  18.472 -0.0420 -0.0898 -0.0100
91645W        W34661  33.515  23.540  16.683 -0.2949 -0.0027 -0.1295
91646W        W34662  33.028   9.836  17.125 -0.4353  0.0316 -0.0002
91647W        W34663   2.146  27.052  20.355 -0.2496  0.1201  0.1413
91648W        W34664  22.807  14.085  21.391 -0.0127 -0.1026  0.0587
91649W        W34665  14.176  34.217  17.973 -0.1455  0.2184 -0.1884
91650W        W34666   9.473  24.910  20.468 -0.1799  0.1244 -0.1580
91651W        W34667  10.539  29.684  23.953 -0.0706 -0.1167  0.1296
91652W        W34668   6.177  23.422  16.907  0.0901  0.0454 -0.0036
91653W        W34669  21.583  33.336  22.024 -0.1071  0.2648  0.1930
91654W        W34670   6.931  21.240  15.342 -0.0418  0.0737 -0.3803
91655W        W34671  24.916  13.926   9.947  0.4709  0.0948  0.0125
91656W        W34672  18.794  20.506  13.538 -0.2260 -0.0528 -0.2619
91657W        W34673  13.292   9.478  13.908  0.0284  0.1060 -0.3243
91658W        W34674  23.070  20.580  21.951 -0.0377 -0.0090 -0.1001
91659W        W34675  31.862  17.259  20.132  0.1014 -0.0708  0.1241
91660W        W34676  18.091  22.334  23.637 -0.0490 -0.2470  0.0099
91661W        W34677  17.643  20.735  14.157  0.3003 -0.1202  0.1839
91662W        W34678  24.165   9.504  28.196 -0.1209 -0.0742 -0.0034
91663W        W34679  34.336  29.843   1.520  0.1529 -0.1444  0.1266
91664W        W34680  11.256  13.661  15.639 -0.0730  0.1675  0.0841
91665W        W34681  25.360  24.101  19.674  0.1098 -0.0623 -0.1910
91666W        W34682  10.120  14.452  19.991 -0.3100  0.0754 -0.3002
91667W        W34683  24.656   7.882  18.113  0.0349  0.1956 -0.0870
91668W        W34684  11.234  18.900  15.485  0.0414 -0.3623  0.1262
91669W        W34685  27.971  20.680  19.617 -0.3376  0.3655  0.1999
91670W        W34686   1.193  15.600  16.619  0.2308 -0.3217  0.0860
91671W        W34687  29.900   8.700  25.017  0.0391 -0.0599  0.1418
91672W        W34688   0.235  12.148  27.459  0.2133  0.3753  0.4482
91673W        W34689  32.745  27.131  19.930  0.2571 -0.0843  0.3357
91674W        W34690   8.012  13.175  13.819  0.2211 -0.2973 -0.1625
91675W        W34691   1.661  21.560  20.629  0.1864 -0.1475 -0.0289
91676W        W34692  22.244  19.847  14.435  0.1466 -0.1770  0.4723
91677W        W34693  22.905  13.943  25.959 -0.2968 -0.1409  0.3076
91678W        W34694  20.147  31.668  25.337 -0.2129  0.1947  0.1318
91679W        W34695  31.053  27.484  26.291  0.1441  0.0782  0.1061
91680W        W34696   4.700  23.627  15.114  0.2817 -0.1596  0.0034
91681W        W34697  19.840  29.386  17.472  0.0171  0.0753  0.1531
91682W        W34698  23.412  12.972  13.674 -0.0788  0.0174 -0.0149
91683W        W34699  12.080   9.477  24.063  0.1765  0.1070 -0.3053
91684W        W34700  19.847  22.163  13.267  0.0205  0.3801 -0.0630
91685W        W34701  20.855   0.431  19.034 -0.0514  0.0636 -0.2045
91686W        W34702  21.764  34.136  18.298  0.1308 -0.1640 -0.1064
91687W        W34703  21.772  18.807  25.677 -0.0158  0.1855 -0.0708
91688W        W34704  16.460  26.434  20.413  0.0370  0.0131 -0.0442
91689W        W34705   8.644   4.194  16.045  0.0629  0.5134  0.3281
91690W        W34706  24.805  31.054   0.331  0.0230  0.1303 -0.0434
91691W        W34707  22.674  19.820   9.753  0.1587 -0.1742 -0.0456
91692W        W34708  12.766  20.187   6.492  0.0470  0.2044 -0.0658
91693W        W34709  27.366  11.008  19.654  0.1845 -0.0198 -0.0060
91694W        W34710  27.655  32.951  27.559  0.0136  0.0561 -0.4954
91695W        W34711   6.875  12.321  13.403  0.1485  0.1480  0.0364
91696W        W34712  15.044  21.720  13.419  0.0340 -0.0851 -0.0768
91697W        W34713  29.779  10.172  20.879 -0.2766 -0.0523  0.0426
91698W        W34714   3.898  23.336  18.084  0.0612  0.1898  0.2739
91699W        W34715  10.516  23.669   2.491  0.0242  0.1273 -0.1702
91700W        W34716  17.964  25.812  20.444  0.0663 -0.2841 -0.0094
91701W        W34717  13.268  13.496  14.282 -0.1331 -0.2118 -0.1019
91702W        W34718  14.736   9.191  21.024  0.0594 -0.4045 -0.1318
91703W        W34719  33.648  20.998  27.341  0.1513  0.0495  0.0694
91704W        W34720   8.313  11.535  16.644 -0.2016  0.0827 -0.1674
91705W        W34721  18.023  34.242  17.262 -0.4823  0.2671  0.1575
91706W        W34722  26.583  23.212  20.937  0.4734 -0.0340  0.2925
91707W        W34723   6.421  10.195  25.067 -0.2797  0.0132  0.1224
91708W        W34724  16.434  10.473  13.637  0.1804 -0.2111  0.5152
91709W        W34725  11.779  21.714  17.696 -0.1090  0.1557  0.0454
91710W        W34726  16.165  33.333   3.512 -0.0371 -0.0003 -0.1997
91711W        W34727  26.930  17.869  22.771  0.2874 -0.1884  0.1481
91712W        W34728  18.481   8.929  21.041 -0.0208  0.1019  0.1496
91713W        W34729  21.026  25.987  18.617  0.0960 -0.1074  0.2701
91714W        W34730  17.505  25.589  17.313  0.1910  0.0912 -0.1729
91715W        W34731  18.211  32.082  21.055  0.1922  0.1125 -0.1025
91716W        W34732  24.101  25.500  16.021 -0.0283  0.0713  0.0263
91717W        W34733   5.631  17.950  21.193  0.0734 -0.0458 -0.1881
91718W        W34734  15.084  10.908   6.991  0.1191 -0.4251 -0.2225
91719W        W34735   2.576  25.348  20.051  0.3160  0.1044  0.1883
91720W        W34736  24.255  10.709  15.427 -0.0992 -0.2372  0.0957
91721W        W34737   0.040  23.522  28.765  0.5018  0.2631  0.0465
91722W        W34738  11.868  27.632  18.529  0.0554  0.1526 -0.0795
91723W        W34739  18.566   8.716   1.341 -0.1246 -0.0830  0.1163
91724W        W34740  22.109  25.652  22.871  0.0560  0.1801 -0.3107
91725W        W34741  12.701   2.436  28.749 -0.1336  0.0318 -0.2597
91726W        W34742  15.436  24.070   3.225  0.0100 -0.1368 -0.0314
91727W        W34743   4.092  25.034  17.037 -0.4734 -0.2080 -0.0649
91728W        W34744  22.845  19.952  23.638  0.1015  0.0689  0.0771
91729W        W34745  23.278  26.349  17.289 -0.0606 -0.3214  0.0782
91730W        W34746   3.635  19.023  25.663 -0.4418 -0.1380 -0.1179
91731W        W34747  12.567  11.964  19.060  0.0467 -0.0294 -0.0007
91732W        W34748  31.631   7.248  25.593 -0.0443 -0.0195 -0.2975
91733W        W34749   9.584   4.469   7.777  0.2072  0.1771  0.2687
91734W        W34750   0.147  24.290  17.471  0.0894  0.2250 -0.3237
91735W        W34751  20.933  18.699  16.174  0.0172 -0.0422  0.0855
91736W        W34752  28.717  23.499  24.942  0.0448 -0.0757  0.2777
91737W        W34753  13.825  22.849  21.394 -0.0126 -0.0961 -0.2746
91738W        W34754  18.927  19.873  14.943 -0.0737  0.1241 -0.0037
91739W        W34755  22.997   6.798   5.886  0.0004 -0.0434  0.0029
91740W        W34756   8.316  25.220  22.996  0.0166 -0.3212 -0.0740
91741W        W34757  16.571  22.167  22.433 -0.1112 -0.2601  0.3366
91742W        W34758   7.432  10.962  24.117  0.0996  0.2479  0.2048
91743W        W34759   3.547  22.059  21.985 -0.2412 -0.0545 -0.1486
91744W        W34760   6.077  29.270  18.462  0.1110  0.0879  0.2589
91745W        W34761  19.770  11.224  18.725  0.0161 -0.0437 -0.0813
91746W        W34762  19.271  15.731  14.570 -0.2908  0.1953 -0.0748
91747W        W34763  18.052  26.679  24.099 -0.4342 -0.1570  0.1303
91748W        W34764   5.109  34.443  20.565 -0.0261 -0.4335  0.3558
91749W        W34765  19.826   6.741  17.033  0.2710 -0.0738 -0.1288
91750W        W34766  15.618   8.312  16.821 -0.0199  0.1396  0.1352
91751W        W34767   7.134  11.468  16.624 -0.0910 -0.4168 -0.1479
91752W        W34768  11.486  29.954   2.468  0.2170  0.0483 -0.4019
91753W        W34769  23.121  12.220  29.037  0.4178 -0.0148  0.0744
91754W        W34770  23.371  14.597  13.652  0.3033  0.0924  0.2020
91755W        W34771  28.503  16.554  14.457  0.0523  0.3407 -0.0762
91756W        W34772  15.407  17.724  13.484 -0.0852  0.0177  0.2841
91757W        W34773  33.831  21.351  22.418 -0.2354 -0.0902  0.0316
91758W        W34774  17.330   4.480  22.524  0.4853 -0.0346  0.2478
91759W        W34775  17.830  16.845  26.994 -0.0506 -0.0483 -0.0069
91760W        W34776  18.933  11.690  15.015  0.0282  0.1073 -0.1361
91761W        W34777  33.930  26.890   3.536 -0.1639 -0.2644 -0.0230
91762W        W34778  27.086  13.551  20.547 -0.0419  0.0792  0.1884
91763W        W34779   9.826  21.954  15.260 -0.0059 -0.0380 -0.0765
91764W        W34780  22.226  28.549   2.431  0.0222 -0.0212  0.0539
91765W        W34781   1.589  20.995   2.395 -0.1518  0.1580  0.1298
91766W        W34782   4.184  27.435  19.577 -0.0816 -0.2870  0.2024
91767W        W34783  32.405  17.998  20.432 -0.1944  0.1040  0.2225
91768W        W34784   5.347  18.758  18.457 -0.1570 -0.2017 -0.3175
91769W        W34785  26.627  25.961  16.612  0.0124 -0.1747  0.0806
91770W        W34786  10.332  10.104  23.519  0.2267  0.2607 -0.0618
91771W        W34787  19.238  15.533  28.639 -0.2394  0.1402  0.0548
91772W        W34788  12.717   1.396  16.412 -0.1000  0.2107  0.1943
91773W        W34789  24.551  15.797  22.891 -0.0745  0.0364 -0.2152
91774W        W34790  15.252  16.714  28.461  0.1662 -0.1071  0.0281
91775W        W34791  22.442  31.978  16.688 -0.5451 -0.1764  0.1528
91776W        W34792   1.932  12.384  14.395 -0.0692 -0.2115 -0.1983
91777W        W34793   1.993   1.233   1.526 -0.1607  0.0642 -0.1425
91778W        W34794  15.280  15.097  15.483 -0.2838 -0.2187 -0.1516
91779W        W34795  22.002  27.053   1.259  0.0590  0.2006 -0.1738
91780W        W34796  15.408   6.257  19.532 -0.0624 -0.3068 -0.0218
91781W        W34797   9.459   5.066  15.953 -0.1307 -0.0107  0.2319
91782W        W34798  14.839  20.095   2.768  0.1307  0.2869  0.1516
91783W        W34799  30.296  22.538   1.041  0.0362 -0.1954  0.0488
91784W        W34800  27.537  13.272  17.229  0.1900  0.2919  0.0578
91785W        W34801  22.147   0.793   1.594  0.1644  0.0512  0.2144
91786W        W34802  32.538  22.566   3.159 -0.1481 -0.1512  0.0937
91787W        W34803  17.974   5.500   5.887  0.0645  0.1014 -0.1430
91788W        W34804  11.037  15.822  18.945 -0.0950 -0.0684  0.1671
91789W        W34805  18.384  12.968  27.575  0.6308 -0.1738 -0.1634
91790W        W34806  31.209  33.479  28.569  0.0093 -0.1990 -0.0090
91791W        W34807   4.679  17.729  21.861  0.1730  0.2335 -0.0155
91792W        W34808  20.895  13.725  17.360  0.0108 -0.1066 -0.2563
91793W        W34809  16.956  14.908   0.807 -0.2549  0.3392  0.2166
91794W        W34810  19.857  15.905  13.070 -0.0009  0.2842 -0.0137
91795W        W34811  10.608   8.589   6.399  0.1087  0.1738 -0.2732
91796W        W34812  13.798  18.478  12.809 -0.0326  0.0598  0.0087
91797W        W34813  24.335  14.913   8.761  0.0421  0.0760  0.2493
91798W        W34814   0.022  10.101  28.232  0.0347 -0.3054  0.1293
91799W        W34815  32.112  24.944  17.663  0.1978 -0.1503  0.1175
91800W        W34816  26.789  18.299  17.228 -0.4428  0.0387 -0.3834
91801W        W34817  27.929  29.193   0.338  0.2382  0.0503 -0.1174
91802W        W34818  21.663  17.800   7.365  0.0808 -0.0678 -0.1358
91803W        W34819  20.415  32.698  18.500  0.1007  0.0102  0.0918
91804W        W34820  31.357  13.404  28.377 -0.2697  0.3028 -0.0833
91805W        W34821   9.222  18.034  16.118 -0.2576  0.0448  0.2927
91806W        W34822  14.170  21.138   6.221 -0.2188  0.0236  0.0230
91807W        W34823  26.684  24.373  23.195  0.1285  0.5586 -0.2094
91808W        W34824  11.836  31.102  27.196  0.2766 -0.0159  0.2787
91809W        W34825  22.035  18.695  24.603 -0.0955  0.1840  0.0237
91810W        W34826  30.081  24.962  21.446  0.0623  0.0516 -0.1091
91811W        W34827  27.780   5.962  21.611  0.0010  0.2179  0.0221
91812W        W34828  25.963  33.069  20.474  0.0129  0.0576 -0.2284
91813W        W34829  32.474   4.270  22.400 -0.2236  0.3836 -0.1847
91814W        W34830   7.012  20.758  15.616  0.0503  0.2318  0.0237
91815W        W34831  10.439  32.197  22.284  0.0245 -0.0380  0.1350
91816W        W34832  19.836  20.950   8.792 -0.2656  0.0480  0.0310
91817W        W34833  16.993  13.010  21.169 -0.1583  0.0157 -0.2274
91818W        W34834  24.412  32.889  20.189  0.0629  0.2539 -0.0464
91819W        W34835  33.700   3.146  28.590 -0.0584 -0.0659  0.1856
91820W        W34836  16.998  29.418  23.309  0.3755  0.0651 -0.2847
91821W        W34837  20.142  11.210   4.478  0.0942  0.0635  0.0911
91822W        W34838  15.546  24.943  21.002  0.3358  0.0330  0.2188
91823W        W34839  15.722   2.789  19.611  0.3896  0.1520 -0.2155
91824W        W34840  22.791  16.621  24.937 -0.4568  0.2413 -0.2921
91825W        W34841  24.941   7.496   2.031 -0.1004 -0.0638  0.1410
91826W        W34842  28.407  33.350  27.524 -0.0380 -0.3380 -0.0387
91827W        W34843  18.769  17.374   3.376  0.2218  0.1756 -0.2576
91828W        W34844  33.619  26.834   5.842  0.0563  0.2460  0.0310
91829W        W34845  34.135  23.196   2.183 -0.3047 -0.1738 -0.0616
91830W        W34846  32.908  17.415  21.977 -0.0334 -0.2325  0.1548
91831W        W34847  21.672  25.467   4.702 -0.0861 -0.2059 -0.1868
91832W        W34848  15.613  22.385  14.992 -0.1445 -0.3820  0.2183
91833W        W34849   0.257  28.486   6.272 -0.3265 -0.0136 -0.0610
91834W        W34850  19.379  23.239  18.302  0.2779  0.1011 -0.2771
91835W        W34851   2.924  29.586  10.185 -0.0246  0.1139 -0.0198
91836W        W34852  27.450  25.360  16.757 -0.1534  0.2998 -0.4285
91837W        W34853  15.638  21.782  25.303 -0.0764 -0.1643 -0.0947
91838W        W34854  21.603   0.062   9.875  0.2440  0.0904  0.0645
91839W        W34855  16.960   1.166  23.066 -0.3295  0.1242 -0.2017
91840W        W34856   1.482  32.411  23.584 -0.1700 -0.0792 -0.1474
91841W        W34857  23.987  11.132  16.404 -0.0638 -0.2155 -0.1195
91842W        W34858  20.601   0.998  27.945  0.2416  0.0715  0.3088
91843W        W34859   3.835  15.988  25.939  0.2519  0.2291 -0.1316
91844W        W34860  34.059  18.288   1.919  0.1097 -0.2867 -0.0582
91845W        W34861  22.919  23.252   0.572 -0.1884  0.1052 -0.0203
91846W        W34862  31.258  17.882  23.107  0.0227 -0.0983 -0.0240
91847W        W34863  23.092  14.318  15.537  0.0384 -0.3149  0.0178
91848W        W34864   6.970  32.581  26.093 -0.0592  0.0211 -0.1907
91849W        W34865  10.235  27.206  17.471 -0.3140  0.0761 -0.1491
91850W        W34866  16.316  29.773  19.234  0.0240  0.0070  0.0402
91851W        W34867  25.222  19.772  24.779  0.0103 -0.4594 -0.0825
91852W        W34868  25.012  29.197  18.478  0.1426  0.1033 -0.0111
91853W        W34869  16.227  10.932  27.469  0.1167 -0.3452 -0.0635
91854W        W34870  24.923  26.273   3.201 -0.4257  0.0861  0.2843
91855W        W34871  18.665  34.740  27.417  0.2764  0.2283  0.2069
91856W        W34872  31.702  14.522  25.952 -0.1246 -0.1520  0.2118
91857W        W34873  10.476  23.846   6.635 -0.1020 -0.0291  0.3595
91858W        W34874  10.484  15.830  16.516 -0.0511 -0.3134  0.0838
91859W        W34875  21.397   2.699  21.136 -0.0283 -0.0590  0.1322
91860W        W34876  24.295  14.445  22.203  0.3238 -0.0155  0.5088
91861W        W34877   4.281  29.567  18.402 -0.1820 -0.2518 -0.1424
91862W        W34878  14.085  20.994  22.113 -0.0342 -0.0322 -0.0499
91863W        W34879  20.094  31.148  23.478 -0.1242 -0.2667  0.2671
91864W        W34880   4.392  25.438  25.440  0.1047 -0.0898 -0.0612
91865W        W34881  17.758  26.993  14.138 -0.0348 -0.1933  0.3515
91866W        W34882   9.997  17.863  21.454 -0.1145  0.1401 -0.0716
91867W        W34883  11.668   0.666  16.372 -0.0085 -0.0273 -0.1890
91868W        W34884   5.066  13.489   7.036  0.1535 -0.0652  0.0106
91869W        W34885  22.094  11.812  28.585 -0.0253  0.4861  0.0073
91870W        W34886  24.637  28.169   2.445  0.2121  0.4775  0.1154
91871W        W34887   1.212  14.963   1.428  0.1910 -0.0479  0.0979
91872W        W34888  22.225  28.484  16.609 -0.2385 -0.2653 -0.0448
91873W        W34889  17.209  16.593  15.958 -0.2597 -0.1812 -0.2563
91874W        W34890  32.247   2.030  16.952 -0.4360  0.0149 -0.1990
91875W        W34891  22.929   5.194  27.169  0.0874 -0.2928 -0.0806
91876W        W34892  19.240  21.406  21.080  0.0286  0.2017  0.1822
91877W        W34893   4.547  16.996  19.872 -0.3299  0.0550 -0.1847
91878W        W34894  25.625  11.333  19.067 -0.2393 -0.4313 -0.1032
91879W        W34895  11.759  25.922  15.821  0.1853  0.0051  0.0463
91880W        W34896  16.257  12.624   8.753  0.0321  0.0608  0.3174
91881W        W34897  13.059  24.514   1.083  0.0514 -0.1246  0.0964
91882W        W34898  15.679  30.676   7.449 -0.2799  0.2020 -0.0086
91883W        W34899  29.124   5.811  16.722 -0.1921  0.2169 -0.0895
91884W        W34900  11.126   3.132  19.092 -0.0094  0.3112  0.0177
91885W        W34901  20.703  30.435  21.734  0.0627 -0.0391  0.0385
91886W        W34902  24.584  28.602  24.089  0.3663  0.0065  0.1305
91887W        W34903  20.789  33.279   6.445  0.0141  0.0887  0.2372
91888W        W34904  22.352  32.291   0.480  0.2232  0.0541  0.0867
91889W        W34905  26.700  20.881  23.133 -0.0845  0.4239 -0.0800
91890W        W34906  15.736  17.674   0.544 -0.0799 -0.3513 -0.5069
91891W        W34907  13.306  28.947  26.419 -0.0508 -0.0854 -0.4477
91892W        W34908  32.587  30.903   3.967 -0.1760  0.1431  0.0044
91893W        W34909  22.983  29.264  21.175 -0.2239 -0.3736  0.0474
91894W        W34910  24.311  33.869   0.104 -0.0088  0.1242 -0.1512
91895W        W34911  23.493  29.091   3.523  0.0782  0.3516 -0.1267
91896W        W34912  22.418  20.842  28.916  0.2837 -0.0702 -0.0337
91897W        W34913  15.189   8.588  14.626  0.0062 -0.0990 -0.1202
91898W        W34914  26.212  19.976   6.097  0.2046  0.1891 -0.1628
91899W        W34915   9.372  26.627  17.731 -0.0132 -0.0578 -0.2731
91900W        W34916  23.744  15.424  18.289 -0.2088  0.0387  0.1010
91901W        W34917  24.484   8.013  10.122 -0.0837  0.0539 -0.2295
91902W        W34918  20.659  32.607  26.804 -0.0453 -0.0674 -0.0940
91903W        W34919  13.704  27.899   1.501 -0.0725 -0.1194 -0.1095
91904W        W34920  32.069   9.742  16.786 -0.0045  0.0595 -0.1593
91905W        W34921  30.004   8.891   0.158  0.2324 -0.1915 -0.3495
91906W        W34922  16.782  26.266   3.116 -0.1684  0.0819  0.0581
91907W        W34923  11.320  18.232  18.782 -0.1139 -0.1602 -0.1244
91908W        W34924  12.816   9.899  24.663 -0.2105  0.0445  0.3366
91909W        W34925  29.443  11.398  17.490  0.0417  0.0084  0.6894
91910W        W34926  16.757  25.610  19.973 -0.1225  0.0597  0.2319
91911W        W34927  19.336  31.658  23.122  0.1235 -0.1822 -0.0768
91912W        W34928  24.904  17.511  27.660 -0.0846  0.1222 -0.0572
91913W        W34929  28.947  20.651  29.111  0.2922  0.2964 -0.1392
91914W        W34930  31.058  28.475  21.178 -0.1586  0.2089  0.0163
91915W        W34931  20.009   7.279  26.564 -0.0569 -0.0985  0.0574
91916W        W34932  33.539  14.137  25.646 -0.1491 -0.1695  0.0668
91917W        W34933  16.267  30.209  18.966 -0.2069  0.3298 -0.0441
91918W        W34934  21.640  17.736  13.682 -0.0374  0.0432 -0.0638
91919W        W34935   2.492   2.187  28.340 -0.1926 -0.0874  0.3503
91920W        W34936  30.321  32.749  25.469 -0.3118 -0.0366  0.2617
91921W        W34937   8.079  21.849  28.099 -0.0393  0.1899 -0.0057
91922W        W34938  17.640  20.803   5.514  0.0061 -0.1170  0.2229
91923W        W34939  17.144  12.162  28.221 -0.0115 -0.1178  0.1456
91924W        W34940  16.380  24.929  28.244 -0.3270  0.2319  0.1245
91925W        W34941  16.697  21.875   4.708  0.1478  0.2575  0.2131
91926W        W34942  12.038  28.751  14.688  0.1364  0.0190 -0.0894
91927W        W34943  20.328  34.108   2.934  0.2694  0.2700  0.2313
91928W        W34944   6.398   8.294  24.190 -0.1018  0.2359 -0.3915
91929W        W34945   7.824  30.764   1.213  0.2497 -0.1654 -0.0128
91930W        W34946  33.665  16.944   9.846  0.2554 -0.2340 -0.0629
91931W        W34947  10.277  30.017  14.747 -0.1608  0.2109 -0.1617
91932W        W34948  14.931  25.516  15.788 -0.2729  0.0282  0.3712
91933W        W34949   9.049  24.158   1.006 -0.3007 -0.1751 -0.0104
91934W        W34950  18.857   7.378  23.500 -0.3318  0.3534 -0.1344
91935W        W34951  28.181  19.451   0.791  0.2227  0.2224  0.0184
91936W        W34952  13.596  18.556   8.525  0.0405 -0.0450 -0.2421
91937W        W34953   5.539  23.579  26.234 -0.0253  0.0577 -0.2071
91938W        W34954  20.229  28.874   8.181 -0.2982  0.2707  0.0703
91939W        W34955  22.857  11.540   8.804  0.1427 -0.2811  0.1029
91940W        W34956  22.251  26.297  18.982  0.0530  0.2826 -0.0641
91941W        W34957  21.312  34.355  23.513 -0.0799 -0.2869 -0.1799
91942W        W34958  33.272  14.285  15.474  0.0845 -0.0515  0.1478
91943W        W34959  18.459  14.062  23.226  0.0022 -0.0802  0.0363
91944W        W34960  18.549  18.754  22.949  0.0494  0.1888 -0.1501
91945W        W34961  22.303  25.751  21.951 -0.0276  0.1877 -0.1698
91946W        W34962  25.255  16.155  19.770 -0.0750 -0.0108  0.0390
91947W        W34963  14.074  16.355  26.339 -0.1222  0.0527  0.4074
91948W        W34964  30.234  22.823   9.655  0.4355 -0.1967  0.0767
91949W        W34965  22.039  27.784  20.542 -0.3487 -0.0647 -0.1425
91950W        W34966  15.066  27.190  19.380  0.0092  0.1052  0.2975
91951W        W34967   6.877  29.072  25.419 -0.0206 -0.1253  0.1915
91952W        W34968  10.243  29.102   7.336 -0.1416 -0.3324  0.0118
91953W        W34969  19.358  20.087  13.125  0.0533  0.1526 -0.1974
91954W        W34970  27.552  17.874  15.578 -0.0575 -0.1690 -0.1232
91955W        W34971   5.221  13.203  24.785 -0.1404  0.0759  0.1912
91956W        W34972  23.586  33.296  25.344  0.2784 -0.1657 -0.1230
91957W        W34973  16.227  24.653   4.298  0.4794  0.0239  0.0485
91958W        W34974  31.689   7.903  20.232 -0.1187 -0.0944  0.0403
91959W        W34975  22.798  18.856  22.262  0.3261 -0.1776 -0.3484
91960W        W34976   3.462   7.603  22.704 -0.2933  0.3422  0.2656
91961W        W34977  20.049   8.601   6.412  0.3169  0.2050  0.0432
91962W        W34978  25.523  11.816  18.126 -0.1678  0.1118  0.4523
91963W        W34979   2.433  28.590  21.100 -0.1646  0.0370 -0.3631
91964W        W34980  18.370  12.150  18.326  0.0650  0.1087 -0.1118
91965W        W34981   5.304  11.329  28.788  0.2238  0.3063 -0.0369
91966W        W34982  12.824  26.525  17.319  0.1048 -0.0224  0.0174
91967W        W34983  24.096   1.450   5.629  0.2480 -0.3287  0.1023
91968W        W34984  18.384   1.934  16.846  0.1530 -0.0337 -0.0121
91969W        W34985  17.320   4.279  18.489 -0.1216  0.0805  0.1016
91970W        W34986   8.220   1.571   8.757  0.0646  0.3555  0.2067
91971W        W34987   9.480  14.047  25.796  0.0926 -0.1189  0.0287
91972W        W34988  19.780  27.723  19.004  0.1124 -0.1625  0.0071
91973W        W34989  26.781  27.413   8.573  0.0261 -0.0848  0.0177
91974W        W34990  25.175  27.678   3.889 -0.1473 -0.0088 -0.1119
91975W        W34991  28.204  13.584  24.369  0.0846 -0.0388  0.2164
91976W        W34992  26.989  20.893  20.752 -0.3975 -0.0762 -0.0272
91977W        W34993  31.401  11.294  20.683 -0.0004 -0.1996 -0.0138
91978W        W34994  15.280  21.953  27.773  0.1029  0.2241  0.1333
91979W        W34995   3.116  12.119  21.926  0.0605  0.0910  0.1010
91980W        W34996  18.487  13.286  11.827 -0.2381 -0.0546 -0.1163
91981W        W34997   8.220  27.591  18.698  0.1922 -0.0242  0.1676
91982W        W34998   1.278   3.595  20.879  0.0373 -0.0448 -0.1416
91983W        W34999  27.790   4.667  24.603  0.2519  0.0532  0.1226
91984W        W35000  19.652  16.478  14.751 -0.1333 -0.3439 -0.1457
91985W        W35001   6.427  14.128  25.058  0.0507 -0.0300 -0.2998
91986W        W35002  16.587  33.303  25.076  0.2589 -0.1442  0.2293
91987W        W35003  20.477  33.011   9.544  0.1903 -0.1809 -0.0265
91988W        W35004  21.943  21.710   0.813 -0.1905  0.3984 -0.2288
91989W        W35005  31.035  25.221   3.144  0.0824 -0.2091 -0.1466
91990W        W35006  25.581   0.488  18.521  0.0183  0.0141  0.0205
91991W        W35007  30.125  15.603  16.885 -0.1583 -0.3312 -0.1425
91992W        W35008   0.882  18.742   1.831  0.1063  0.0544  0.0989
91993W        W35009  16.251  18.651   1.459 -0.0110  0.1744  0.1130
91994W        W35010   8.083  26.630   7.562  0.0328 -0.5327 -0.3268
91995W        W35011  22.926  31.642   5.153 -0.3084 -0.2557  0.0524
91996W        W35012  28.793   6.217  11.081 -0.2071  0.0916  0.2366
91997W        W35013  18.874  26.252  18.762  0.0764 -0.0768  0.1903
91998W        W35014  17.235   8.422  18.349  0.0235 -0.0392  0.1187
91999W        W35015  22.362  11.049   5.243 -0.1777  0.1589 -0.2018
92000W        W35016  12.139  24.345   1.444 -0.0223 -0.0597 -0.0450
92001W        W35017  21.005  27.150  28.863 -0.1370 -0.2431 -0.3128
92002W        W35018  23.820  21.228  17.594 -0.0557  0.1624  0.5293
92003W        W35019  25.508  32.268   2.557 -0.1246  0.3407 -0.1739
92004W        W35020  32.778  23.725   4.520 -0.1624 -0.2994 -0.0351
92005W        W35021  13.555  34.031  19.615 -0.1391  0.2935 -0.3458
92006W        W35022  23.530  13.593  27.747  0.2322  0.0929 -0.0779
92007W        W35023  28.493  10.334  18.601  0.0033 -0.2252 -0.1957
92008W        W35024   9.419  20.437  15.140  0.2695  0.1049 -0.0766
92009W        W35025   3.722  30.137  28.523 -0.1852  0.0289  0.1131
92010W        W35026  14.426  21.275  25.118 -0.2810  0.1511 -0.0713
92011W        W35027  18.242   6.543  15.494 -0.1133 -0.0819  0.1303
92012W        W35028  17.497  24.606  20.604 -0.2950 -0.1484  0.2657
92013W        W35029  24.519  15.323  16.325 -0.1257  0.0388  0.3362
92014W        W35030  14.776  28.203  29.069 -0.0437  0.0060  0.0832
92015W        W35031  17.883  12.963  12.463 -0.0886 -0.1727  0.2270
92016W        W35032  26.029  14.119  17.721  0.0586 -0.1660 -0.5055
92017W        W35033  12.177  28.927   8.662  0.2075 -0.3835 -0.2190
92018W        W35034  14.806  28.541  26.166  0.1180 -0.1092  0.2947
92019W        W35035  31.781  20.497   2.068 -0.2150  0.0662 -0.1350
92020W        W35036  10.942  25.505   9.445 -0.1841 -0.2009  0.0208
92021W        W35037   8.876  16.044   0.178 -0.1502 -0.1063  0.1483
92022W        W35038  26.411  25.308  25.867  0.0425  0.0676 -0.1222
92023W        W35039  27.386  14.445  16.105  0.4614 -0.2557 -0.1028
92024W        W35040  21.751   0.611  25.168 -0.0366  0.1889  0.1343
92025W        W35041  13.251  12.986  23.358 -0.0292 -0.1098  0.3151
92026W        W35042   7.168  33.789   2.763 -0.0246  0.1285 -0.1335
92027W        W35043   8.404  26.420  16.549 -0.0993 -0.2505  0.0338
92028W        W35044  12.549  26.133  26.255  0.2120  0.0497 -0.0747
92029W        W35045  22.381  23.009   9.109 -0.1787 -0.0679 -0.2217
92030W        W35046   4.918  10.171   8.497 -0.0779 -0.1910  0.0750
92031W        W35047  22.892  34.214  25.165 -0.1109 -0.0303 -0.1865
92032W        W35048  27.560   3.168  24.009 -0.4293  0.0282 -0.2568
92033W        W35049  27.131  28.328  22.046 -0.1008 -0.1632  0.1224
92034W        W35050  26.967  24.987  22.196  0.1235  0.1719 -0.1181
92035W        W35051  20.670  33.614  21.189  0.1699  0.0227  0.0002
92036W        W35052   2.655  22.272  15.793 -0.1208  0.2590  0.1882
92037W        W35053  22.748  30.950  22.883 -0.3248 -0.3134  0.0630
92038W        W35054  22.365  31.625  20.882 -0.1355  0.3579 -0.0361
92039W        W35055  17.182  21.735   6.147 -0.0340 -0.1006 -0.3077
92040W        W35056  20.716   8.552  21.201 -0.0754 -0.0246 -0.0651
92041W        W35057  10.127  20.706  19.080  0.1612  0.1062  0.3230
92042W        W35058  23.984  14.389  26.966 -0.0333  0.1583  0.3076
92043W        W35059   4.742  28.694  21.594 -0.0259 -0.0465  0.1518
92044W        W35060  15.569  31.307  23.468 -0.0749 -0.1415  0.2816
92045W        W35061  15.146   1.228   0.713  0.0416  0.0716 -0.1981
92046W        W35062  18.394  25.837  14.143  0.2402  0.0258 -0.0588
92047W        W35063  19.604  33.236  22.906  0.4096  0.0870  0.1689
92048W        W35064  29.950  26.707   1.383 -0.1082 -0.3365  0.1157
92049W        W35065  23.472   9.108  17.265 -0.4976 -0.2244 -0.0268
92050W        W35066  17.870  20.449   4.268 -0.1505  0.2662 -0.1000
92051W        W35067  10.707  28.236  15.272  0.1250  0.2233  0.0646
92052W        W35068   8.946   5.959  22.640  0.1849 -0.0240  0.2865
92053W        W35069  14.153  13.497  17.671  0.2715  0.1504  0.0667
92054W        W35070  19.400  13.018   4.300 -0.2577  0.1938  0.0791
92055W        W35071   1.301  20.210  22.210  0.0448  0.1609 -0.4611
92056W        W35072  23.697  13.758  17.557 -0.1658  0.3029 -0.2579
92057W        W35073  17.065   3.681  20.067 -0.0447  0.0124  0.2162
92058W        W35074  23.598  15.832  14.751  0.1785 -0.2341  0.0960
92059W        W35075  20.490  25.960  17.235  0.1110 -0.3612 -0.1161
92060W        W35076  24.105  24.969   2.187 -0.2555 -0.1616 -0.2148
92061W        W35077  25.099  11.747  29.269  0.2307  0.1175 -0.3740
92062W        W35078  25.992  22.849  18.697  0.1630  0.0331  0.2107
92063W        W35079  21.869   3.549   1.928  0.1531  0.0563  0.0994
92064W        W35080  30.238  34.425   0.145 -0.1089 -0.1270 -0.2911
92065W        W35081  20.821   7.338   6.446 -0.0546  0.1289 -0.2829
92066W        W35082   0.160  12.580  20.822 -0.0883 -0.2816 -0.0164
92067W        W35083  34.494  23.663  16.695 -0.8517  0.0039 -0.0186
92068W        W35084  29.875  27.050  23.322 -0.0150  0.2285 -0.2506
92069W        W35085  20.108   5.402   1.641  0.0819 -0.1220 -0.0193
92070W        W35086   9.222  34.634  29.180  0.1584  0.0156 -0.1919
92071W        W35087  16.810  32.424   0.935 -0.1711 -0.5225 -0.4845
92072W        W35088  21.917  25.098  15.952  0.1528 -0.1693  0.2052
92073W        W35089   8.041  22.683   8.367  0.0152 -0.0419  0.2096
92074W        W35090  22.936  14.849   4.786  0.0662  0.0421  0.0414
92075W        W35091   4.079  26.557  21.972 -0.1239 -0.1961  0.2069
92076W        W35092  31.665  20.489  29.217 -0.2283 -0.2951  0.2591
92077W        W35093  16.585  31.539  26.120  0.3572  0.0670 -0.0134
92078W        W35094  28.689   4.479   5.737  0.2898  0.0227  0.0841
92079W        W35095  21.430  22.002   0.817  0.1898  0.0426  0.1315
92080W        W35096  20.884  20.476  16.396 -0.2066 -0.1007 -0.2206
92081W        W35097  13.426  28.654  28.040 -0.1622 -0.0941  0.0808
92082W        W35098   9.221  28.737   9.178 -0.1837 -0.2832 -0.2042
92083W        W35099  22.067  11.304   3.119 -0.1505  0.1791  0.0515
92084W        W35100   4.684  25.002   0.401  0.2687  0.1221  0.0484
92085W        W35101   5.801  25.619  29.113  0.0869  0.1963 -0.0584
92086W        W35102   3.562  28.241  19.085 -0.0929  0.0978 -0.1403
92087W        W35103  22.924  12.667  17.114  0.1517  0.0430  0.0287
92088W        W35104  32.012  13.906   6.789 -0.0354  0.3947  0.1085
92089W        W35105  34.509  17.005  19.136 -0.1982 -0.3206  0.0025
92090W        W35106  10.922  23.499   9.039 -0.0565 -0.3079  0.2873
92091W        W35107   5.092  30.481  25.104  0.1210  0.0879 -0.0558
92092W        W35108  22.353  26.173  17.765  0.1591  0.1911  0.0091
92093W        W35109  25.203  25.893  19.068  0.2337  0.1134  0.0282
92094W        W35110  17.722  23.387  19.312 -0.0867 -0.0096  0.2229
92095W        W35111   5.397  31.016  29.197  0.0702  0.0049 -0.1227
92096W        W35112  22.298  27.051  28.497 -0.0302 -0.2463 -0.2253
92097W        W35113   2.401  21.556  26.590 -0.1203 -0.0403  0.1920
92098W        W35114  19.961  26.007  26.075  0.1238 -0.1940 -0.1343
92099W        W35115  22.150   4.545  10.759  0.3414 -0.1389  0.0039
92100W        W35116  18.609  17.030  21.593  0.0475  0.3877 -0.1046
92101W        W35117  24.472  12.952   7.718 -0.1410  0.0501  0.1408
92102W        W35118  17.758  28.721   8.676 -0.2252 -0.0238 -0.0158
92103W        W35119  28.713  24.008   6.064  0.2160 -0.1761 -0.1124
92104W        W35120  22.228   5.776   1.017 -0.1311 -0.0266 -0.1912
92105W        W35121  21.878  15.405   3.500  0.4409 -0.0723 -0.2507
92106W        W35122  17.079  17.820  17.332  0.1400 -0.1091 -0.0299
92107W        W35123  14.101  31.547  23.215  0.0176  0.0245 -0.1329
92108W        W35124   1.565  17.041  28.607 -0.1447  0.0177 -0.0748
92109W        W35125   9.972   6.957  26.329 -0.1692 -0.1730 -0.0985
92110W        W35126  24.770  22.127   9.119 -0.1799  0.1324  0.1582
92111W        W35127  25.980  10.656  27.186 -0.0514 -0.3709 -0.0310
92112W        W35128   0.905  30.253  20.284  0.0495  0.0800  0.0722
92113W        W35129  26.814  16.427  24.566  0.0880  0.0355 -0.3499
92114W        W35130  25.996  29.110  19.447 -0.1009 -0.0954 -0.0462
92115W        W35131  21.807  25.358   0.558  0.0579 -0.0454  0.3397
92116W        W35132  30.079   8.420   6.340 -0.0729 -0.0666  0.0107
92117W        W35133   1.178  27.824  17.142  0.2201 -0.2160 -0.1780
92118W        W35134  29.082  24.343   8.839 -0.2809 -0.1995 -0.1687
92119W        W35135   0.796   3.686  22.876  0.0834 -0.3139 -0.2971
92120W        W35136  14.016  17.284   0.602  0.3377  0.0273  0.1026
92121W        W35137  32.538  20.545   0.974 -0.0974 -0.0519  0.0348
92122W        W35138  25.365  26.976   4.408  0.1704 -0.1829 -0.1617
92123W        W35139   2.430  27.139   7.078  0.0840 -0.2286 -0.3315
92124W        W35140  34.438  18.875   7.786 -0.0106 -0.1015  0.1076
92125W        W35141  32.913   4.067  18.645 -0.0411 -0.6560 -0.0312
92126W        W35142  19.592  18.483   6.166  0.0136 -0.2264  0.0688
92127W        W35143  20.653  17.812   6.127  0.0799  0.0018  0.0981
92128W        W35144  25.201   5.682  17.581 -0.0157  0.1341  0.3405
92129W        W35145  19.771  24.113   1.461 -0.2195  0.0690  0.3423
92130W        W35146   9.362  13.837   0.863 -0.0385  0.0392  0.0059
92131W        W35147  34.175  15.047  21.991 -0.1250  0.1669 -0.0674
92132W        W35148  22.443  19.261  26.274 -0.1324 -0.1772  0.0951
92133W        W35149  33.027  30.751   8.764  0.1274  0.2193  0.1855
92134W        W35150  15.732  15.417   2.194 -0.4279 -0.0814 -0.1301
92135W        W35151  31.881  22.532  10.869  0.0159  0.0045 -0.0759
92136W        W35152  30.525  11.958  25.409  0.0224  0.0249  0.1311
92137W        W35153  16.003   8.954   2.373 -0.2790 -0.1207 -0.2964
92138W        W35154  18.416  19.192  23.333 -0.1890 -0.3683  0.0508
92139W        W35155  29.706  17.940  18.838  0.2673  0.0574 -0.0593
92140W        W35156  28.552  17.300  20.027  0.1039 -0.2579  0.0549
92141W        W35157  28.874  23.574  10.408 -0.0331  0.1155 -0.0084
92142W        W35158  26.891  15.198  23.652  0.3626 -0.2534 -0.0587
92143W        W35159  23.018  17.213   9.942 -0.2276  0.0493 -0.0013
92144W        W35160  32.198  26.443  24.691  0.1053  0.2579  0.1647
92145W        W35161  34.277  21.634  27.545  0.0694  0.0930 -0.0400
92146W        W35162  14.109  18.081  29.179 -0.0107 -0.0889  0.0468
92147W        W35163  26.491  11.703  19.110  0.1117  0.0419 -0.1535
92148W        W35164   1.183   9.548   4.183 -0.4050  0.1428 -0.0441
92149W        W35165  22.945  13.952   9.919  0.3307  0.1001  0.1451
92150W        W35166  16.890   2.244  20.549 -0.0888 -0.3042 -0.0118
92151W        W35167  18.691   2.126  15.766 -0.1656  0.2288 -0.0118
92152W        W35168  19.305  34.752  19.848 -0.0928 -0.2305  0.1469
92153W        W35169  22.277  15.348  23.373 -0.0460  0.0143  0.2982
92154W        W35170  19.402  19.803   7.719  0.0624 -0.0722 -0.0188
92155W        W35171  10.587  22.706  28.516 -0.0272 -0.0885 -0.0597
92156W        W35172  22.988  25.554  23.782 -0.2030 -0.1093  0.3159
92157W        W35173  20.742   5.126   9.421  0.1146 -0.0590 -0.1243
92158W        W35174  30.330  29.348  10.265 -0.0755  0.1679 -0.0577
92159W        W35175  11.434  10.796  15.125 -0.0089 -0.0983 -0.0838
92160W        W35176   2.275  16.827   0.028  0.2182 -0.1083  0.0094
92161W        W35177   0.817  27.536   3.988  0.0210 -0.0215  0.0843
92162W        W35178  26.489   9.129  19.537 -0.0489  0.0604  0.1464
92163W        W35179  23.871   5.060  20.381  0.0403 -0.0511  0.0716
92164W        W35180  18.078  31.694  10.457 -0.0526  0.3646  0.1748
92165W        W35181  33.156  10.762   0.530 -0.1097  0.0259 -0.1477
92166W        W35182  17.417  10.152   0.928 -0.0242  0.0834 -0.0529
92167W        W35183  14.865   4.542  20.793  0.1288 -0.4762  0.3829
92168W        W35184  22.964  18.757   3.137  0.0505  0.4351  0.0946
92169W        W35185  23.253  24.542  15.413  0.0784 -0.1970 -0.3222
92170W        W35186  32.236  30.055  25.170 -0.0433  0.3135 -0.0738
92171W        W35187  25.880  20.990  20.939 -0.2725  0.0987  0.2839
92172W        W35188  24.382  30.058  22.145  0.1596  0.0986 -0.1114
92173W        W35189  13.694  14.623  15.760 -0.2484 -0.0596 -0.2687
92174W        W35190   3.541   0.648  26.590 -0.0733  0.0467 -0.1149
92175W        W35191  11.155  34.650  25.807  0.0510 -0.2225 -0.1103
92176W        W35192  14.611   8.243  17.778  0.3499 -0.1906 -0.2062
92177W        W35193  26.369  25.845   3.279  0.1803  0.0308  0.3949
92178W        W35194  33.949  32.688  23.334  0.0761  0.0559  0.1175
92179W        W35195  27.176  20.117  17.676  0.1034 -0.0771 -0.4523
92180W        W35196  11.029  14.402   4.807  0.1542  0.0592  0.0596
92181W        W35197  29.498  10.266  25.804 -0.2268 -0.1765 -0.0681
92182W        W35198  29.840  24.866   3.151  0.1368  0.2329 -0.1781
92183W        W35199  19.434   0.933   6.734  0.0286 -0.3001 -0.1336
92184W        W35200   8.854  20.699  28.112 -0.2076 -0.2680 -0.1964
92185W        W35201  20.113  15.017  23.964 -0.2857 -0.1390  0.1124
92186W        W35202  25.707  24.291   7.111 -0.0855 -0.0603  0.1271
92187W        W35203  20.305  12.394  15.713  0.0247  0.1854 -0.0207
92188W        W35204  14.677   2.425  23.385 -0.2511 -0.1173  0.1629
92189W        W35205  33.874  28.483  24.402 -0.0548  0.3878  0.2589
92190W        W35206  22.583  11.649   3.806 -0.2410  0.0585  0.2370
92191W        W35207  17.453  11.025   8.693  0.1258  0.0087  0.3031
92192W        W35208   2.774   4.623  26.619  0.1665  0.0163 -0.0636
92193W        W35209   5.827  12.100   4.992  0.0526  0.2401 -0.0887
92194W        W35210  17.811   5.700   9.332  0.4388  0.0448 -0.1373
92195W        W35211  16.168   7.420   9.715 -0.1192 -0.0329  0.0471
92196W        W35212  23.912  17.278  21.287 -0.1136  0.1882  0.0620
92197W        W35213   9.988   2.861   8.330 -0.1286  0.3286  0.2172
92198W        W35214   5.236  15.474  23.341  0.2529 -0.2562 -0.0405
92199W        W35215  33.549  12.267   5.396  0.0278 -0.0540  0.0916
92200W        W35216  26.675  29.028  26.990  0.1004  0.0731  0.1546
92201W        W35217  23.679  29.628  14.778 -0.0514 -0.1104 -0.0578
92202W        W35218   2.686  30.641   1.984 -0.1638  0.0614 -0.1639
92203W        W35219   6.367  14.545   4.021 -0.0446 -0.1687  0.1788
92204W        W35220  15.803  33.967   3.651  0.2130  0.0532  0.1922
92205W        W35221  27.065  31.504   7.273 -0.3896  0.0400 -0.0414
92206W        W35222  25.225  14.385   2.013  0.4438 -0.0871  0.2895
92207W        W35223  17.706  27.570   3.746 -0.1200 -0.0699  0.1769
92208W        W35224  22.609  21.506  28.383  0.0949  0.0001 -0.0987
92209W        W35225  21.594  25.334  26.343 -0.1920  0.0403 -0.2794
92210W        W35226   0.014  16.582   4.236  0.1514  0.0886  0.2420
92211W        W35227   3.923  27.053   2.169  0.1562  0.3113 -0.3454
92212W        W35228  22.279  18.373   6.189  0.1263  0.2399 -0.1663
92213W        W35229  21.562  19.835   9.273  0.2370 -0.0092  0.1182
92214W        W35230  28.576  13.273  27.946  0.3550 -0.1004 -0.0614
92215W        W35231   7.145   2.154  25.660  0.0731  0.0822 -0.2516
92216W        W35232  17.966  25.150  19.160 -0.0844 -0.1026 -0.1442
92217W        W35233   9.072   6.777   9.712  0.1690  0.0215  0.0845
92218W        W35234  12.898  23.775   3.223  0.1926  0.0735  0.4084
92219W        W35235  30.226  22.419   4.915 -0.3073  0.1112  0.0119
92220W        W35236   8.448   7.206  10.359 -0.0324 -0.1355  0.4145
92221W        W35237  29.742  26.522  17.913  0.0087  0.2691  0.2807
92222W        W35238   0.965   9.051  21.619  0.0586 -0.0225  0.3330
92223W        W35239  33.704  10.360   8.217 -0.1528  0.2368  0.1703
92224W        W35240   0.294  21.814  23.298 -0.4017  0.0006 -0.0562
92225W        W35241  26.271  22.770  22.233 -0.0641 -0.2175 -0.1374
92226W        W35242   0.499  12.612   5.275  0.1446  0.2403 -0.0383
92227W        W35243  19.297  20.528  24.350 -0.3534 -0.1170 -0.1954
92228W        W35244  22.895  16.695  25.467  0.0099  0.0712  0.2086
92229W        W35245  21.027  12.064  23.524 -0.1586  0.1274  0.0548
92230W        W35246  22.231  20.772   8.917  0.0142  0.3106 -0.0042
92231W        W35247  23.363  16.188   9.598  0.1079  0.0036 -0.0751
92232W        W35248  25.147  16.905   6.555  0.1072  0.1172  0.1269
92233W        W35249   3.865  19.119   4.854  0.0861  0.1825  0.1108
92234W        W35250   3.971  31.993  18.494  0.0723 -0.1552  0.0301
92235W        W35251   9.576  20.854  27.498 -0.0834 -0.2818 -0.0246
92236W        W35252   5.313  31.753  18.137 -0.1037  0.0829 -0.1493
92237W        W35253  20.818   6.098   1.896  0.2867 -0.0095 -0.2887
92238W        W35254  22.080  19.851  18.070 -0.0140 -0.0514 -0.3381
92239W        W35255  18.867  24.545   9.043  0.0553  0.0547  0.4374
92240W        W35256  24.405  24.217  25.671  0.2321  0.3200  0.1802
92241W        W35257  16.087   9.890   7.156  0.3530  0.1953  0.1259
92242W        W35258   4.278  32.271   8.272  0.1096 -0.0422 -0.3390
92243W        W35259  26.164  22.918  20.825 -0.0613  0.1548 -0.2688
92244W        W35260  24.441  30.096   3.223  0.0861 -0.0541 -0.1916
92245W        W35261  21.837  24.051  21.848  0.1328  0.0220 -0.2964
92246W        W35262  30.521  24.880   7.277 -0.1069 -0.2055  0.1756
92247W        W35263  15.740  32.470   3.595  0.0669 -0.0516  0.2044
92248W        W35264  34.584  11.691  20.289  0.1192 -0.0339 -0.1773
92249W        W35265  22.448  25.093   3.027 -0.0174 -0.0082  0.2436
92250W        W35266  13.964  11.486   6.430 -0.2829 -0.0784 -0.1863
92251W        W35267  23.743  18.206  20.204 -0.1858  0.0492 -0.0613
92252W        W35268  17.353   9.416  22.710 -0.2357  0.0000 -0.1079
92253W        W35269   5.752  28.686  28.584 -0.3898 -0.1887 -0.0343
92254W        W35270  28.437  26.309   7.718 -0.0107 -0.0381 -0.0859
92255W        W35271  21.244   4.092  25.896  0.2258  0.0828  0.2222
92256W        W35272  22.326  31.361  17.699  0.2215 -0.0742 -0.0644
92257W        W35273  33.128  25.253  26.388  0.0082 -0.4242 -0.4162
92258W        W35274  17.511  20.818   2.243 -0.0298  0.0945 -0.0765
92259W        W35275  25.693  29.803   2.970  0.0372 -0.1567 -0.5730
92260W        W35276  22.054  21.467  24.100 -0.0313  0.1085  0.1401
92261W        W35277  14.749  22.622  11.948  0.1172  0.1246 -0.1675
92262W        W35278   2.008  22.184   7.474 -0.1859  0.1162  0.3884
92263W        W35279   3.735   1.910   7.276  0.1124 -0.1937  0.2551
92264W        W35280  30.881  15.334   5.648 -0.1610 -0.1040 -0.1119
92265W        W35281  20.176  32.510  10.821  0.1553 -0.0441 -0.2432
92266W        W35282  14.649  24.150   1.295  0.3400 -0.2891 -0.0016
92267W        W35283  22.473   9.725   9.182  0.1061  0.0140  0.0508
92268W        W35284  16.979  24.684  21.728 -0.0324 -0.2198 -0.0247
92269W        W35285  18.920  17.012   6.298  0.1844 -0.0928 -0.0113
92270W        W35286  22.069  32.949   7.147 -0.0230 -0.1106  0.1093
92271W        W35287  22.417  34.448   2.125  0.0090  0.0774 -0.1508
92272W        W35288  18.524  23.321  19.624 -0.2934 -0.2382 -0.0143
92273W        W35289  19.498  10.587   0.457 -0.1505  0.3149  0.0541
92274W        W35290  10.126  33.676   6.500 -0.0586  0.2602 -0.0315
92275W        W35291  25.948  20.570   4.861 -0.0704  0.1158 -0.4540
92276W        W35292  28.813  24.399  20.532  0.2626 -0.0252  0.0159
92277W        W35293  22.300  24.731   5.607 -0.3940 -0.3110 -0.0860
92278W        W35294  25.172  18.283  19.477 -0.0568 -0.0839  0.2948
92279W        W35295  16.092  33.479  27.136  0.0996  0.1158  0.1420
92280W        W35296  19.211  17.135   0.911 -0.1009  0.2093 -0.2033
92281W        W35297  27.722   6.813   1.921 -0.4236 -0.0948  0.1111
92282W        W35298  31.259   3.188   0.657 -0.4455 -0.0246 -0.3182
92283W        W35299  11.951   2.214   9.479 -0.0875  0.0446  0.1689
92284W        W35300  15.876  19.946  14.407  0.1485 -0.1010  0.1118
92285W        W35301  22.057  12.959   3.790 -0.0101  0.2387  0.1101
92286W        W35302  18.917  10.879  29.067  0.0202  0.2381  0.1281
92287W        W35303  18.750  20.336   1.625 -0.2280  0.0887 -0.2121
92288W        W35304   9.192  25.149   2.443 -0.0629  0.2210 -0.1680
92289W        W35305  19.356   4.807  24.376  0.0777 -0.2485  0.1867
92290W        W35306  14.979  26.300   4.913  0.1280  0.0699 -0.0379
92291W        W35307  12.281  19.490   6.911 -0.1200  0.0054 -0.1664
92292W        W35308  20.508  25.530   7.362 -0.2181 -0.0917 -0.4046
92293W        W35309  30.358   3.064   7.903  0.1447  0.0320  0.0772
92294W        W35310  16.116  28.804   5.548  0.1722  0.0712 -0.0240
92295W        W35311  22.703  21.172  19.619 -0.4089  0.1713 -0.1073
92296W        W35312  23.319   0.163  10.552  0.1862 -0.1061  0.0446
92297W        W35313   8.890  13.266   1.569 -0.1403 -0.1561  0.1199
92298W        W35314  10.705  32.910   0.471  0.1139  0.0098  0.0206
92299W        W35315  15.345   4.750   6.554  0.0423  0.1801  0.1389
92300W        W35316  23.612  20.762  24.885  0.0179 -0.1723  0.0422
92301W        W35317   0.477  18.059   6.493 -0.4576 -0.1849 -0.2768
92302W        W35318  29.724  20.269  17.199  0.1793  0.2414 -0.1832
92303W        W35319  28.815  28.376   5.696 -0.0200 -0.0681 -0.1624
92304W        W35320  25.504  14.747   2.920 -0.1493 -0.3470  0.4450
92305W        W35321   4.578  10.939  22.934  0.1699  0.1302 -0.1218
92306W        W35322  26.794  32.533  18.457 -0.1564 -0.1393  0.1380
92307W        W35323  20.246  25.095  21.406  0.2380 -0.1101 -0.1926
92308W        W35324   1.117  19.840  24.832  0.1166  0.1144 -0.0828
92309W        W35325  28.668  16.493  21.140  0.1941 -0.0277 -0.0866
92310W        W35326  16.575   9.256  14.035  0.4874 -0.3326 -0.4607
92311W        W35327  27.342  25.899  27.319  0.3383 -0.1951 -0.1135
92312W        W35328  30.739  28.044  25.300  0.0560  0.2559  0.1042
92313W        W35329  26.326  16.004  28.723  0.0028 -0.4541  0.3250
92314W        W35330  22.283  22.998  25.644 -0.0295  0.1792  0.0245
92315W        W35331  14.963  25.140   3.573 -0.1799 -0.0545 -0.2291
92316W        W35332   0.104  33.628  22.524  0.2026 -0.1575  0.2859
92317W        W35333   7.827  13.759   7.735  0.2061  0.0654 -0.2029
92318W        W35334  19.316  32.070   3.239  0.0799 -0.2358 -0.3485
92319W        W35335  29.429  30.215   4.800 -0.1184  0.2048  0.0363
92320W        W35336   2.939  18.461  29.034 -0.0291 -0.0254  0.1870
92321W        W35337  22.400  28.007  17.688  0.2454  0.1982  0.2411
92322W        W35338  15.513   1.768   0.170  0.2567  0.0646 -0.2159
92323W        W35339  14.152  25.698  23.611  0.1422 -0.0176  0.2650
92324W        W35340  28.671  29.264  25.958 -0.0227 -0.2222 -0.0933
92325W        W35341  16.236  22.057   2.688 -0.1785 -0.1085  0.0697
92326W        W35342   9.102   1.771   1.252  0.0780 -0.1176  0.1784
92327W        W35343  27.085  26.322  10.297 -0.1246  0.0902  0.1487
92328W        W35344  30.201  12.743  24.907 -0.1262 -0.0115  0.0336
92329W        W35345   6.126  32.928  14.539 -0.1514 -0.0879  0.1104
92330W        W35346  22.647  16.657   4.940  0.1417  0.1792 -0.0271
92331W        W35347  22.910  15.494  21.076 -0.1837  0.0397 -0.0871
92332W        W35348  29.698   6.828  17.037  0.1660  0.1210 -0.0094
92333W        W35349  21.015  29.496  28.310 -0.1869  0.2494  0.2803
92334W        W35350  17.738  19.815  26.506  0.1636 -0.0221  0.1732
92335W        W35351  17.553  14.980  26.196 -0.1634 -0.0911 -0.1159
92336W        W35352   6.687  15.760   9.463 -0.0819 -0.0621  0.0325
92337W        W35353  30.405  16.863  23.347 -0.3360 -0.1413  0.1885
92338W        W35354  26.392  15.980   6.623  0.0534 -0.0212 -0.1400
92339W        W35355  21.002  14.220   0.294  0.0949  0.2337 -0.0501
92340W        W35356  29.303  21.698   0.706  0.1534  0.1576  0.0206
92341W        W35357  16.198  26.465  24.252  0.0705 -0.1838  0.1097
92342W        W35358   1.287  17.051   8.429 -0.0593  0.0602 -0.0074
92343W        W35359  24.107  30.157  15.384 -0.0965 -0.0731 -0.0655
92344W        W35360  12.107  21.670  18.845 -0.0540 -0.0873  0.0951
92345W        W35361  23.007  14.964   8.532  0.0008 -0.3039  0.2635
92346W        W35362  20.031   4.435  18.651  0.1766 -0.0486  0.1683
92347W        W35363  11.505  19.706  25.426 -0.1736  0.2539  0.0294
92348W        W35364  25.969  17.120  24.737  0.1228  0.0481  0.1550
92349W        W35365  24.020  26.926  24.056 -0.1225  0.1137  0.1736
92350W        W35366  15.800  33.805  27.558 -0.0811  0.0399 -0.0378
92351W        W35367  14.807  16.982  13.362 -0.1427  0.0589  0.4392
92352W        W35368  15.019  24.345  18.936  0.0536 -0.1004 -0.0538
92353W        W35369  30.029  24.161   5.498 -0.1279 -0.0350  0.2216
92354W        W35370  17.216  21.761   7.729  0.2504 -0.0496 -0.0111
92355W        W35371  11.376  16.385   0.885  0.0720 -0.0079  0.0841
92356W        W35372  26.030  23.280  28.283  0.3760 -0.3808 -0.0742
92357W        W35373  10.301  25.707  28.932  0.0573  0.3195  0.0725
92358W        W35374  32.008  17.432  28.215 -0.0331  0.0924 -0.2471
92359W        W35375  31.326  14.710  25.635  0.1001 -0.2164  0.1209
92360W        W35376  27.128   3.409  27.993  0.2064  0.1645  0.1776
92361W        W35377  29.092   4.283   2.062  0.0651 -0.0807 -0.4125
92362W        W35378  10.410  22.632  25.115 -0.0756 -0.0512 -0.0189
92363W        W35379  24.426   2.233  20.070 -0.3857  0.1256  0.1180
92364W        W35380  18.952  12.354   3.412  0.0515  0.4659  0.0936
92365W        W35381  27.980  31.784   8.178  0.1953  0.0389 -0.1488
92366W        W35382  22.463  30.881  21.060  0.1541  0.1372 -0.1275
92367W        W35383  31.273  27.245  16.033 -0.1744 -0.3942 -0.1015
92368W        W35384  32.450  17.987   0.034  0.2203 -0.0051  0.1314
92369W        W35385  15.252  19.764  21.796 -0.0858 -0.1940 -0.2389
92370W        W35386  28.320  28.338  17.152 -0.1857  0.1043  0.2056
92371W        W35387  17.294  16.555   6.767  0.0160 -0.0082  0.3327
92372W        W35388  23.412  22.999   8.648  0.1254 -0.2297  0.0188
92373W        W35389  26.483  15.034  19.587 -0.0742  0.2849 -0.1326
92374W        W35390  17.202  31.000  27.702  0.1788  0.2371  0.1854
92375W        W35391  18.996  22.826  20.392  0.0938 -0.0027 -0.0351
92376W        W35392  24.867  22.188   2.465  0.1283  0.0504 -0.0691
92377W        W35393  31.990  17.100   3.385 -0.5272 -0.0369  0.1351
92378W        W35394  10.775   4.060   6.934  0.1239 -0.0916 -0.1288
92379W        W35395  20.513  20.459   6.714  0.1182  0.0981  0.0456
92380W        W35396   2.413  15.920   7.827  0.2305 -0.0509 -0.0543
92381W        W35397  12.426  24.669  26.220  0.1022 -0.3047  0.1053
92382W        W35398  33.493  11.925  10.075 -0.3344  0.2432 -0.2884
92383W        W35399  25.683   8.044   1.941 -0.0018 -0.0011  0.2529
92384W        W35400  21.915  14.883  20.024  0.4786  0.4097 -0.0656
92385W        W35401  28.979  17.830   9.735 -0.1067 -0.4393  0.0865
92386W        W35402   5.521   7.869   0.346  0.0098 -0.2149 -0.3478
92387W        W35403  16.448  15.712  13.362  0.0810  0.2815  0.0320
92388W        W35404  26.382  22.045  17.274 -0.2975 -0.2371 -0.1358
92389W        W35405  32.938   1.559  16.279 -0.1148  0.1691 -0.0749
92390W        W35406  16.347   2.180   6.083  0.1441  0.0619  0.2247
92391W        W35407   9.258   9.505  15.601  0.3533  0.0590 -0.3543
92392W        W35408  24.754  19.656  23.042  0.1310 -0.0723 -0.1711
92393W        W35409  26.290  15.982   4.276  0.1138 -0.0475  0.1510
92394W        W35410  20.853  21.290   1.408  0.0366 -0.1183  0.0789
92395W        W35411  14.337  28.732   8.343  0.1128 -0.1487 -0.3336
92396W        W35412  21.778  28.449  24.537 -0.4582 -0.1760 -0.3340
92397W        W35413  28.722  33.130  22.493  0.1842 -0.0204 -0.0164
92398W        W35414  20.197  11.933  12.610 -0.0052 -0.0925  0.1283
92399W        W35415  27.231  31.261   1.748 -0.0125 -0.2837 -0.1282
92400W        W35416  23.290  25.177   6.174  0.0243 -0.0456  0.2606
92401W        W35417   7.703  22.037   3.698  0.2663 -0.0452 -0.1607
92402W        W35418  18.027  20.940   2.051 -0.0374  0.1096  0.0993
92403W        W35419  31.591  21.079   4.532 -0.2634 -0.0423 -0.3326
92404W        W35420  23.750   0.256  10.911 -0.1316 -0.2299 -0.2325
92405W        W35421  19.936   0.512   1.887  0.4599  0.0151 -0.1385
92406W        W35422  22.287  10.297  23.763  0.0470  0.0011  0.0611
92407W        W35423  23.326  20.871  16.340  0.0802  0.0885  0.2333
92408W        W35424  23.923  26.442   0.730 -0.1880 -0.0091 -0.3436
92409W        W35425  23.242  14.719   3.902  0.1438  0.0335 -0.1096
92410W        W35426   0.665  34.538  28.027  0.3201 -0.0275  0.0474
92411W        W35427  18.604  16.410  20.177  0.0452 -0.3391  0.0410
92412W        W35428  22.612   8.077   6.438  0.3135 -0.2200  0.0205
92413W        W35429  16.792  31.128  17.674  0.1684  0.1066  0.1515
92414W        W35430  17.757  33.091  22.641 -0.2909 -0.2136 -0.3549
92415W        W35431  24.515  29.452   6.511  0.4976  0.1103 -0.0717
92416W        W35432  24.404   1.994  11.601  0.1248 -0.0894  0.0765
92417W        W35433  28.113   7.900   6.280 -0.1699  0.0308 -0.1502
92418W        W35434  18.779   5.313   3.750  0.4518  0.2268 -0.1059
92419W        W35435  15.695  10.522  14.854 -0.0027 -0.2307  0.3294
92420W        W35436  31.833  20.632  24.752  0.1206  0.0744  0.0321
92421W        W35437  13.742  19.717   8.157  0.3991 -0.2465 -0.1161
92422W        W35438   6.637  21.530  24.231  0.0668 -0.2282  0.2377
92423W        W35439  20.959  20.339  22.899  0.1314  0.2008  0.0513
92424W        W35440  24.794  21.668   6.925  0.3517  0.0489  0.0828
92425W        W35441  14.195  31.153  18.351 -0.0305 -0.2284 -0.0487
92426W        W35442  27.123  23.407  11.685 -0.0935  0.1513  0.2307
92427W        W35443  19.153   1.454   5.766 -0.3339  0.3674 -0.2475
92428W        W35444  28.039  10.569  20.251 -0.1910 -0.0312  0.4014
92429W        W35445  33.088  25.276  18.722  0.2204  0.0796 -0.1216
92430W        W35446  33.465  17.878  17.253 -0.0769  0.1259 -0.1290
92431W        W35447  22.902  33.282   8.614  0.0630 -0.2019 -0.1184
92432W        W35448  25.586  30.919  27.579  0.2494 -0.2714 -0.1774
92433W        W35449  12.093  28.695  25.897 -0.0769  0.5914  0.0191
92434W        W35450  24.416  17.355   7.969 -0.1897 -0.2751  0.1082
92435W        W35451  26.442  22.740   2.700 -0.0659 -0.0865 -0.0239
92436W        W35452  15.764  21.659  15.512 -0.0327  0.1154  0.1451
92437W        W35453  30.437  22.388   6.561 -0.0563  0.0986  0.1062
92438W        W35454  23.663  12.056  23.020  0.3412  0.0669  0.2356
92439W        W35455  27.421  18.797   2.202 -0.2690  0.2086 -0.1295
92440W        W35456  31.399  26.527   2.313  0.3395 -0.3757 -0.1605
92441W        W35457  14.095  11.561  15.282  0.0239  0.3819  0.0646
92442W        W35458  26.745   6.574  23.324 -0.1946 -0.0328  0.0536
92443W        W35459  19.696   9.780   4.606 -0.1357 -0.0333 -0.0237
92444W        W35460  21.798  18.503   2.834  0.0790  0.1160 -0.1505
92445W        W35461  19.835  20.024   7.354 -0.2442  0.2385  0.2428
92446W        W35462  12.570  13.395   6.250 -0.2104 -0.1093  0.1213
92447W        W35463  29.024  14.973  22.424 -0.2266 -0.0488 -0.4323
92448W        W35464  24.562   9.268   0.006  0.1827 -0.0469 -0.0108
92449W        W35465  13.307  27.681  26.829 -0.2482 -0.0378 -0.3459
92450W        W35466  23.279  30.123   7.589  0.1381  0.0601  0.3872
92451W        W35467  20.399   9.986   4.236  0.3649 -0.1679  0.3673
92452W        W35468  31.775  31.682   7.649  0.1022  0.0222 -0.2842
92453W        W35469   6.721  19.562   3.090 -0.0507 -0.2908 -0.1356
92454W        W35470  21.931  11.329   1.285 -0.2019  0.3255 -0.1399
92455W        W35471   8.485  20.944  13.475  0.0688  0.0560 -0.0782
92456W        W35472  26.189  16.272   8.881 -0.1170 -0.1483 -0.1784
92457W        W35473   9.500  21.620  23.543  0.2059 -0.1243  0.1820
92458W        W35474  26.823   8.016   6.074  0.2584 -0.1154  0.0241
92459W        W35475  13.988  30.601  17.134  0.2958  0.0076  0.0469
92460W        W35476  24.076  21.493   5.326  0.0208  0.0276  0.2558
92461W        W35477  13.164   0.728  14.876  0.1862  0.0448  0.0233
92462W        W35478   6.494  19.865   5.977 -0.0528  0.1837  0.0192
92463W        W35479  11.702  25.286  24.743 -0.0491  0.1038  0.3079
92464W        W35480  30.270  30.976   9.760  0.0997  0.0070  0.3797
92465W        W35481  22.200  11.666   8.380  0.0316 -0.1705 -0.1191
92466W        W35482   4.126  21.689  19.274  0.0025  0.2248 -0.0186
92467W        W35483  27.647  20.230  19.184  0.1013  0.1764  0.1072
92468W        W35484  33.147  20.579   2.127 -0.2076 -0.3525 -0.2406
92469W        W35485  30.610  19.764   6.978 -0.1555  0.2439  0.0881
92470W        W35486   7.422  23.560  19.448 -0.0227 -0.1530 -0.3186
92471W        W35487  23.583  18.763  22.975 -0.1356  0.0346  0.1591
92472W        W35488  28.531  31.029  16.016  0.1119 -0.0089  0.0657
92473W        W35489  25.551  20.077   2.805 -0.2640  0.1923 -0.3486
92474W        W35490  15.705  11.871  28.237  0.2803  0.2126  0.1627
92475W        W35491  33.693  18.610  24.088 -0.3281 -0.3175 -0.0597
92476W        W35492  23.750   4.556   4.241 -0.2687 -0.3532 -0.1730
92477W        W35493  24.929   8.798  24.966  0.0520 -0.0036 -0.2385
92478W        W35494   7.041  29.081  10.105  0.1082 -0.0527  0.1576
92479W        W35495  14.892  11.993  27.170  0.2797  0.3342  0.0514
92480W        W35496  26.885  15.832   0.190  0.1161  0.0427  0.0199
92481W        W35497  14.051  21.419   8.320  0.3330 -0.1917 -0.1349
92482W        W35498  18.017  18.226  28.637  0.0064  0.3104 -0.2979
92483W        W35499  18.934  18.742  27.159  0.2773 -0.0684  0.2743
92484W        W35500  17.190   6.898   6.537  0.2832  0.0631  0.0028
92485W        W35501   7.301  29.371   0.698  0.3248  0.3937 -0.3995
92486W        W35502  20.518  20.805  27.207  0.2407  0.0209  0.1145
92487W        W35503  20.732   6.291   5.653 -0.0221  0.0269 -0.0903
92488W        W35504  26.652   6.428  24.928  0.2745  0.0659 -0.0552
92489W        W35505  32.573  25.750   2.446 -0.0498  0.1248  0.2010
92490W        W35506  26.376  17.702  23.080  0.1420 -0.1703 -0.1289
92491W        W35507  28.546   8.041  27.814  0.1132 -0.0337 -0.3655
92492W        W35508  22.571   5.642   0.660 -0.1234  0.1936 -0.2075
92493W        W35509  24.891  17.606   5.060  0.2400 -0.1430 -0.2917
92494W        W35510  17.070  14.140  28.005  0.1085 -0.0014 -0.0049
92495W        W35511   7.140  15.384  13.348 -0.2570 -0.0896 -0.1988
92496W        W35512  31.642  24.813   0.719 -0.1403  0.2283 -0.3309
92497W        W35513  26.478  28.425  21.179 -0.2756  0.0591 -0.1311
92498W        W35514  31.032   1.567   1.757 -0.1944  0.0214 -0.2111
92499W        W35515  32.546   0.302  26.988  0.1503 -0.1955  0.2428
92500W        W35516  33.861  18.136   5.719 -0.0322 -0.1493 -0.1892
92501W        W35517  32.981  17.295  10.169 -0.1912 -0.2985 -0.1863
92502W        W35518  18.734  25.478  17.037  0.3924 -0.3803 -0.0177
92503W        W35519   6.540  22.198   6.006  0.2400 -0.2523 -0.2467
92504W        W35520   0.108  17.521   6.768  0.0204 -0.0376 -0.0702
92505W        W35521  12.608  26.187  28.609  0.1077 -0.1969 -0.0937
92506W        W35522  19.411  22.224   4.045  0.0345 -0.1325 -0.1114
92507W        W35523   1.390  34.656  21.784  0.6657  0.0535  0.1543
92508W        W35524  27.499   6.008   1.620 -0.2055  0.4652  0.0008
92509W        W35525  16.015  20.841  23.105  0.1029  0.0146 -0.2119
92510W        W35526  16.622  24.167  18.963  0.0323  0.0524 -0.1446
92511W        W35527  18.988  12.968  23.404 -0.1070  0.1818 -0.0201
92512W        W35528  21.908  20.809  19.845  0.2145  0.0075  0.0715
92513W        W35529  22.355  31.534  26.493 -0.1063 -0.0146  0.1021
92514W        W35530  20.396  10.220   7.180  0.0857 -0.1438  0.0315
92515W        W35531  23.248  19.886   8.004 -0.1881  0.4939 -0.3387
92516W        W35532  15.793  32.804  16.623 -0.1096  0.2731  0.1326
92517W        W35533  13.969  12.983   2.383  0.0270 -0.1248 -0.0076
92518W        W35534  28.717   7.756   7.491  0.4060  0.0141 -0.0191
92519W        W35535  16.896  31.724  15.592 -0.0139  0.2972  0.2343
92520W        W35536  28.532  28.093   5.220  0.4303 -0.0421  0.0243
92521W        W35537  25.288  16.777   7.843  0.0542  0.1649  0.0316
92522W        W35538  21.610  29.254  24.317  0.0712  0.2928 -0.1045
92523W        W35539  31.937  18.673   6.627 -0.2336  0.0876  0.0539
92524W        W35540  14.710  32.726   9.448 -0.2923  0.0609 -0.1670
92525W        W35541  18.568  14.074  20.912  0.0539 -0.1273  0.0215
92526W        W35542   4.112   4.471   1.024  0.2705 -0.2404  0.0613
92527W        W35543  25.167   4.064   8.462  0.0710  0.2031  0.0419
92528W        W35544  29.172  16.551  28.046  0.2065  0.2375  0.4442
92529W        W35545  26.606   8.406  10.663 -0.0432 -0.2320 -0.0938
92530W        W35546   6.212  22.762  25.326 -0.0372 -0.1449  0.2376
92531W        W35547  12.936   6.593  24.374  0.2136  0.3970  0.2079
92532W        W35548  19.145  23.017  13.749  0.2839  0.0176 -0.2445
92533W        W35549   3.120  23.399  21.626 -0.1174  0.0951 -0.2104
92534W        W35550  24.748   4.325  19.203 -0.1128 -0.0040 -0.0167
92535W        W35551  21.304  28.586  25.093 -0.0317  0.0670  0.2971
92536W        W35552   8.776  18.449   5.847  0.1624 -0.2848 -0.0691
92537W        W35553  23.411  28.663  18.772  0.2411  0.1238 -0.1257
92538W        W35554  34.497  18.948  23.460 -0.1921 -0.2280 -0.0174
92539W        W35555  13.949  15.403  13.416 -0.1105 -0.2884 -0.0145
92540W        W35556   0.947  24.499  22.013 -0.0280 -0.1592 -0.1969
92541W        W35557   4.856   0.538  20.329  0.1011 -0.4773 -0.1962
92542W        W35558  27.030  27.090  21.730 -0.0427 -0.0718 -0.1381
92543W        W35559  20.184  29.019  14.341  0.2877 -0.3544 -0.3678
92544W        W35560  15.598  13.033  15.267 -0.0092  0.2752  0.1531
92545W        W35561  23.869   4.199   8.559 -0.1590  0.0281 -0.1099
92546W        W35562  25.101   0.219  16.611  0.0063 -0.0800 -0.0670
92547W        W35563  31.554   9.668  15.328  0.0559  0.2590 -0.1449
92548W        W35564  32.303  27.458  25.791  0.0307  0.1733  0.1321
92549W        W35565  33.282   9.392  20.630  0.2876  0.0514  0.2173
92550W        W35566  15.737  25.696  14.009  0.0193 -0.2021 -0.1083
92551W        W35567  22.866  27.325  23.012  0.2369  0.1673 -0.0663
92552W        W35568  21.976  16.999  15.809 -0.3878 -0.0921  0.0099
92553W        W35569   8.304  12.859  19.332 -0.2437 -0.2020  0.1532
92554W        W35570  14.026   9.023  19.942 -0.2700  0.1065  0.0722
92555W        W35571  28.402   1.771   0.709 -0.1940  0.0651  0.2035
92556W        W35572  18.039  25.637  27.327  0.1478 -0.2164  0.0935
92557W        W35573  21.956  28.182  19.825 -0.1079 -0.0393  0.0534
92558W        W35574  21.715  29.485  18.289  0.0097 -0.1463  0.2370
92559W        W35575  16.594  28.142  23.458  0.1121 -0.0028  0.1748
92560W        W35576  19.641  11.908  13.853 -0.0564  0.0528 -0.0600
92561W        W35577  21.884   2.884   2.443 -0.2050 -0.0085  0.0608
92562W        W35578  25.792  13.427  23.621  0.0000  0.3966 -0.3029
92563W        W35579   7.875  33.699  15.689 -0.0086  0.1647 -0.0243
92564W        W35580  20.631  28.520  19.367 -0.0208 -0.0269 -0.1857
92565W        W35581  19.706   7.956  17.588 -0.0449  0.1423  0.0531
92566W        W35582  23.625  28.530  27.033 -0.0131  0.0016 -0.0564
92567W        W35583  15.001  33.426  23.670 -0.0305 -0.3893 -0.2224
92568W        W35584  15.334  17.459  15.406 -0.2318  0.0163 -0.2338
92569W        W35585   5.324  30.787  17.926  0.2095  0.0286  0.0066
92570W        W35586  26.211  33.498  16.070 -0.0036  0.3232  0.3622
92571W        W35587  19.837  33.001  20.653  0.0299  0.0335 -0.2584
92572W        W35588  18.983  19.961   5.829 -0.2900 -0.0744 -0.1061
92573W        W35589  13.436  32.099  21.062  0.1452 -0.0995  0.0989
92574W        W35590  25.964  25.357  20.599 -0.0227 -0.1337  0.0775
92575W        W35591   8.312  14.370  16.742  0.0123 -0.3150  0.0757
92576W        W35592  22.851  30.326  27.909  0.0942 -0.0442  0.0958
92577W        W35593  23.763  11.716  18.783  0.0931 -0.0826  0.1774
92578W        W35594  11.374  23.829  14.785 -0.1970 -0.0061  0.0491
92579W        W35595   8.423  14.164  19.462 -0.0724 -0.0443 -0.1732
92580W        W35596  20.504  27.569   1.203  0.0526  0.0756 -0.0668
92581W        W35597  25.356  22.871  19.471 -0.1468  0.5501  0.0052
92582W        W35598  30.709  16.214  17.325 -0.1000  0.0244 -0.2216
92583W        W35599  28.841  25.883  18.771 -0.2017 -0.0574 -0.0241
92584W        W35600  14.040   2.597  26.567  0.2907 -0.2284  0.2594
92585W        W35601  15.126  25.845  28.649  0.2458  0.0316 -0.3539
92586W        W35602  30.330  31.689  21.125  0.1879  0.1214  0.2110
92587W        W35603  32.625  19.822  23.288 -0.1421 -0.1668  0.2855
92588W        W35604  28.911  31.585  27.926  0.0087  0.2848  0.2603
92589W        W35605   2.106  25.104  21.951  0.0894 -0.1860 -0.3748
92590W        W35606  18.329  19.690  13.219  0.2053  0.2099  0.0661
92591W        W35607  33.404  20.368  19.448  0.0468 -0.2588  0.1920
92592W        W35608  17.907  10.767  18.931  0.0923 -0.1668 -0.2611
92593W        W35609  13.261  29.210  13.417  0.0445  0.0314 -0.1485
92594W        W35610  13.727  31.513  24.726 -0.0196 -0.0536  0.1992
92595W        W35611  22.312  15.138   2.524  0.0082 -0.0519 -0.2024
92596W        W35612  12.175  16.625   0.225  0.1086 -0.0666  0.0289
92597W        W35613  14.796  17.929  15.299  0.0938 -0.0880 -0.0710
92598W        W35614  10.235  32.002   1.763 -0.2123 -0.1880  0.1544
92599W        W35615  22.446  21.342  16.425 -0.4361  0.0943 -0.0358
92600W        W35616   3.442  19.484   3.353  0.0833  0.0768 -0.3227
92601W        W35617   7.689  19.810  18.172 -0.1106  0.0628  0.2435
92602W        W35618  19.662  14.366  13.574  0.1218 -0.1693 -0.2921
92603W        W35619  19.961  16.600  15.116 -0.0036  0.1609 -0.0164
92604W        W35620  26.870   3.911  24.141 -0.2646  0.2260  0.0207
92605W        W35621  15.251  15.376  12.630 -0.1778 -0.0136  0.0192
92606W        W35622  16.669  27.185  14.751  0.0857  0.1374  0.3271
92607W        W35623   9.592  13.215  19.379 -0.1708 -0.0699 -0.0390
92608W        W35624  16.753  23.426  18.276 -0.2327  0.0984  0.0236
92609W        W35625  11.754  30.750  22.985 -0.0527  0.1382  0.3616
92610W        W35626  20.098   4.229  24.565  0.1907  0.1900 -0.0765
92611W        W35627  21.983  33.564  20.876  0.2400  0.2016  0.0454
92612W        W35628  15.009  31.373  21.817  0.0401 -0.3255 -0.2114
92613W        W35629   6.940   3.834  26.363  0.3381  0.0229  0.2352
92614W        W35630  14.133  22.509  20.973 -0.0566  0.2258 -0.2558
92615W        W35631  17.611  19.832  12.763 -0.0861  0.1407  0.5444
92616W        W35632  22.988  23.803  28.214  0.0395 -0.1871 -0.0650
92617W        W35633  13.317   2.177  22.637 -0.0330  0.0244 -0.0439
92618W        W35634  17.980  11.329  21.640  0.1549 -0.1001 -0.0484
92619W        W35635   1.056  26.735  19.084  0.3827 -0.1137  0.1745
92620W        W35636  21.908  27.022  14.357  0.0252 -0.2606 -0.0562
92621W        W35637  20.167   2.431  14.607 -0.0783  0.1213  0.0821
92622W        W35638  23.594  29.022  19.731 -0.0968 -0.0491  0.0438
92623W        W35639  26.334  20.570  23.073  0.2505  0.2615  0.0771
92624W        W35640   9.246  15.041  13.598  0.0626  0.0580 -0.2889
92625W        W35641  25.506  24.428  20.314 -0.2532 -0.0792 -0.1707
92626W        W35642   8.497  12.598  18.656  0.2269  0.0620 -0.1181
92627W        W35643  14.067  32.109  14.732  0.0716  0.0103  0.1463
92628W        W35644  27.917  22.446  25.897  0.1424  0.2061  0.1563
92629W        W35645  30.209  21.187   0.500  0.1335 -0.0544  0.0843
92630W        W35646  29.796   5.461   0.057  0.0740 -0.3093  0.1522
92631W        W35647  33.584   2.661  17.624  0.0326 -0.1542 -0.0312
92632W        W35648  30.874  18.664  15.841  0.2094 -0.0359  0.1250
92633W        W35649  21.902  12.590  17.986 -0.1181  0.0893  0.0431
92634W        W35650  25.388  14.677  14.685  0.1506  0.1292 -0.3658
92635W        W35651   8.906  23.192  18.366  0.0357 -0.1428  0.2892
92636W        W35652  24.529  23.315  27.574  0.0378 -0.2307  0.0502
92637W        W35653   6.063  19.542  27.923  0.2800  0.1382  0.1658
92638W        W35654  27.518  11.235  28.447  0.1182 -0.2157 -0.0465
92639W        W35655  21.540   7.948  18.367 -0.1481  0.1274 -0.2144
92640W        W35656   6.222  20.980  19.079 -0.1199 -0.1728 -0.0843
92641W        W35657  23.177  12.781  15.327  0.0207  0.1709 -0.2814
92642W        W35658  13.052   8.763  17.504  0.1763  0.1196 -0.1624
92643W        W35659  30.529  15.146  22.053  0.5159 -0.1422  0.1355
92644W        W35660   8.741  30.355  28.080 -0.0805  0.0762  0.1073
92645W        W35661  32.611  33.683  22.684  0.1122 -0.4016  0.2606
92646W        W35662   5.883   8.178  15.588  0.1284  0.2263 -0.1195
92647W        W35663  20.605  26.178  18.518  0.0736  0.0236  0.0263
92648W        W35664  14.662  29.413  25.690 -0.1687 -0.1508 -0.0607
92649W        W35665  28.042   0.695  18.296 -0.0004  0.0485  0.2412
92650W        W35666   4.806  18.528  17.564  0.1940  0.0973  0.2705
92651W        W35667  28.190  27.100  20.450  0.1407  0.1828 -0.0005
92652W        W35668  17.324  23.762   3.106  0.2045 -0.0615  0.1002
92653W        W35669  17.039  30.234  16.832  0.2321 -0.2271 -0.1052
92654W        W35670  21.460  14.884  13.609  0.2721  0.2483 -0.3234
92655W        W35671  19.392   4.239  14.595  0.2812  0.2627  0.0866
92656W        W35672  11.592  31.054  14.156  0.0398 -0.0861  0.2470
92657W        W35673  17.813  15.843  12.125 -0.3062  0.3131 -0.1130
92658W        W35674  13.984  17.187  13.327  0.1634  0.1571  0.0143
92659W        W35675  24.593  28.301  25.537 -0.1316 -0.1108 -0.1571
92660W        W35676  18.413  24.222  20.857  0.2912  0.0001 -0.4182
92661W        W35677   4.177  24.246  26.056 -0.0544  0.0385 -0.1128
92662W        W35678  10.090  22.700   0.783 -0.2932 -0.0073  0.2322
92663W        W35679  24.262  15.446  28.284 -0.1541  0.0472 -0.1939
92664W        W35680  24.435  13.764  17.701  0.0337  0.1618  0.1807
92665W        W35681  20.272  20.074   2.715  0.2436 -0.3562 -0.1195
92666W        W35682  21.704  15.704  15.414 -0.4577  0.0868 -0.0545
92667W        W35683  22.000   7.497  21.796 -0.0570  0.1789  0.0081
92668W        W35684   9.955  30.615   5.105  0.1354 -0.0398 -0.0120
92669W        W35685  21.154   0.537  25.920 -0.1578 -0.0546 -0.0290
92670W        W35686   0.015  18.419  21.640 -0.1051 -0.3157  0.0393
92671W        W35687  23.314  12.636  19.057  0.3927  0.1901 -0.1616
92672W        W35688  31.999  30.929  23.105  0.1351 -0.2935 -0.1963
92673W        W35689  30.927  28.042  18.586 -0.2678 -0.1417 -0.3638
92674W        W35690  17.428  32.460  16.690 -0.1181  0.2775  0.1412
92675W        W35691  29.612  31.432  21.614  0.0022 -0.1510 -0.3017
92676W        W35692  23.830  30.299  25.353 -0.2249 -0.0020 -0.1630
92677W        W35693  18.941  13.045  13.785 -0.1039  0.1117 -0.0180
92678W        W35694  27.172  18.256  15.531 -0.1745 -0.2917 -0.1507
92679W        W35695  26.327  26.218  24.908  0.1027  0.0217 -0.2046
92680W        W35696  11.735  22.556  22.156 -0.1619 -0.3342  0.1953
92681W        W35697  19.901  24.748  24.632 -0.3032  0.0490 -0.0261
92682W        W35698  13.989  26.461  29.098 -0.1926  0.1721 -0.2116
92683W        W35699  16.175  29.377  26.473 -0.0465 -0.0210  0.1372
92684W        W35700  21.125  22.952  19.240 -0.2610  0.1144  0.2452
92685W        W35701  19.316  21.891  14.190  0.0402  0.0026  0.0476
92686W        W35702  14.316  19.919  26.783  0.1946  0.3207 -0.3715
92687W        W35703  17.197  24.724   0.311 -0.0329  0.4366 -0.0242
92688W        W35704   0.055  22.968  18.531 -0.0225 -0.0330 -0.0488
92689W        W35705  29.520  18.993  25.184 -0.4610  0.2395 -0.1393
92690W        W35706  22.082   7.301  26.880 -0.1689  0.1511 -0.3795
92691W        W35707   0.275  19.830  16.595 -0.2130 -0.1095 -0.0895
92692W        W35708  27.952  29.193  22.637 -0.2708  0.0465  0.1739
92693W        W35709  14.397  30.047  26.983 -0.5814  0.0488 -0.0802
92694W        W35710  33.830   8.887  17.267 -0.0059  0.0417  0.0096
92695W        W35711  21.569  30.134  21.418  0.0891  0.1370 -0.1674
92696W        W35712   5.618  21.507  14.679 -0.1741 -0.2147 -0.0553
92697W        W35713  33.691   6.883  22.204  0.0940  0.2154 -0.1445
92698W        W35714   7.924  24.885  15.305  0.1145  0.0563 -0.1164
92699W        W35715  23.386  10.688  14.740 -0.3376 -0.0094 -0.2779
92700W        W35716  11.830   2.953  14.674 -0.0637  0.2775 -0.1711
92701W        W35717  12.952  34.642  19.962  0.1128 -0.0762  0.1741
92702W        W35718  13.824  33.393  25.309  0.2289  0.3808  0.0088
92703W        W35719  24.786  25.917  24.140  0.0038  0.1787 -0.4572
92704W        W35720  22.362   0.823  21.137 -0.0768  0.0121  0.3518
92705W        W35721  26.663  22.988  19.435  0.1705  0.3055  0.2945
92706W        W35722  22.240  23.846  17.102 -0.1378  0.0525  0.2800
92707W        W35723   6.551  13.224  19.083 -0.1868  0.1695 -0.1627
92708W        W35724  17.613  20.038  15.903 -0.1574 -0.0065  0.2921
92709W        W35725  12.755  20.645  18.630 -0.5672  0.1764  0.1036
92710W        W35726  15.260  30.726  19.279 -0.2863 -0.0584  0.0029
92711W        W35727   3.201  32.274  21.017 -0.3924  0.1623 -0.4314
92712W        W35728  11.295  25.212  16.284 -0.0868 -0.0958 -0.0029
92713W        W35729  15.339  27.719  18.460  0.2972  0.2535  0.0585
92714W        W35730  21.138   0.937  22.061  0.4744  0.1709 -0.1954
92715W        W35731  28.513  15.769  23.339  0.1509 -0.1930  0.2324
92716W        W35732  26.539  21.572  19.360 -0.2800  0.1587 -0.0126
92717W        W35733  19.238  14.436  23.733  0.1104 -0.0478 -0.1734
92718W        W35734  22.881  29.564  19.838 -0.2347  0.0204 -0.2504
92719W        W35735  28.313  21.246  19.001 -0.2642  0.2649 -0.1338
92720W        W35736  18.195   3.506  23.839  0.1999 -0.1841 -0.1246
92721W        W35737   4.281  21.571   0.028  0.0174  0.3118 -0.0642
92722W        W35738  29.914   6.001  23.437 -0.0075  0.0256  0.0662
92723W        W35739  17.564  26.196  18.721  0.0305  0.2360 -0.2745
92724W        W35740  32.229  21.128   0.495 -0.0061 -0.4109  0.1385
92725W        W35741  25.509  26.016  15.072  0.0928 -0.0462  0.0528
92726W        W35742  24.232  17.953  15.513 -0.2163  0.0855 -0.3295
92727W        W35743  10.397  16.459  15.779 -0.4174 -0.0963  0.1652
92728W        W35744  21.126  21.289  12.660  0.4891  0.2292 -0.1666
92729W        W35745   3.857  31.758  23.187 -0.2943 -0.0958 -0.0292
92730W        W35746  11.673  31.576  23.671 -0.1095  0.1826  0.2971
92731W        W35747  21.492  32.127  21.310 -0.2647 -0.1120  0.0086
92732W        W35748  33.698   0.700  19.165  0.1566  0.0457 -0.2571
92733W        W35749  19.341  12.989  12.334 -0.0657 -0.0783 -0.3237
92734W        W35750  19.596  20.403   2.682 -0.0676  0.0593  0.1602
92735W        W35751   0.803  23.627  24.566  0.1253  0.2047  0.0507
92736W        W35752  10.676  24.849  22.069  0.1257  0.2053 -0.0194
92737W        W35753  15.814  27.230   3.328  0.0353 -0.0062  0.1647
92738W        W35754  27.121  31.651  22.509 -0.0076  0.0152 -0.2930
92739W        W35755  20.997  24.474  28.340  0.2829 -0.1052  0.0342
92740W        W35756  23.689  27.076   2.150  0.0112 -0.1601 -0.1983
92741W        W35757  29.897  27.919  26.387  0.1463  0.2595  0.2258
92742W        W35758   3.751  23.244  23.358  0.0321  0.1597  0.0881
92743W        W35759   1.179  33.950  13.975 -0.0333 -0.3937  0.1795
92744W        W35760  23.300  22.448  19.388  0.0238  0.5334  0.5493
92745W        W35761  17.634   3.215  19.364  0.1038  0.2362 -0.0581
92746W        W35762  33.072  34.676  18.808 -0.1008 -0.1407  0.0606
92747W        W35763  25.154  12.967  19.547 -0.0441  0.2314 -0.0111
92748W        W35764  29.501  29.879  27.691 -0.3477 -0.0119 -0.2070
92749W        W35765   6.759  31.375  26.759  0.1479 -0.1324  0.1974
92750W        W35766  32.626  20.524  17.315 -0.0486  0.0946  0.0309
92751W        W35767  31.754  33.457  18.088 -0.1459 -0.0249  0.0754
92752W        W35768  25.978  23.297  16.953 -0.0151  0.1219  0.1249
92753W        W35769  18.150  17.942  22.959 -0.1485 -0.1280 -0.0338
92754W        W35770  32.051  17.899  24.796 -0.1543  0.1446 -0.0778
92755W        W35771  24.198  11.560  18.057 -0.1006 -0.0368 -0.0371
92756W        W35772   1.453  18.748  16.961  0.2407  0.1419  0.0625
92757W        W35773  10.611  19.947  18.670  0.1255 -0.0850  0.1253
92758W        W35774  20.805  23.087   2.103 -0.3887 -0.3279 -0.2050
92759W        W35775   0.516  25.826   0.344  0.0708 -0.4421 -0.2073
92760W        W35776  10.305  24.613  23.503 -0.1618  0.0892  0.0512
92761W        W35777  21.090   5.420  23.251  0.2423 -0.3567 -0.0642
92762W        W35778   5.717  26.094  18.182 -0.1073  0.0389  0.2356
92763W        W35779  10.453   9.122  21.597  0.0915  0.1467  0.0768
92764W        W35780  21.209  33.750  18.698 -0.0370 -0.1383 -0.0472
92765W        W35781  22.644  19.062  13.516 -0.2888  0.1539 -0.0038
92766W        W35782  26.176  23.205  16.537  0.1945 -0.2576 -0.1574
92767W        W35783   0.353  29.574  19.522  0.0775 -0.0659  0.1070
92768W        W35784  29.874  22.987   6.306 -0.2985 -0.0936 -0.1186
92769W        W35785  28.443  19.768  23.244 -0.0791 -0.2216 -0.1150
92770W        W35786  32.501   5.234  23.855  0.0231  0.0173  0.1118
92771W        W35787  14.162  22.662  22.561  0.0470  0.1313  0.2832
92772W        W35788  24.647  21.735  22.385 -0.2773 -0.2862 -0.1094
92773W        W35789  11.712  17.442  12.312  0.1972  0.4094 -0.0079
92774W        W35790   8.234  26.483  29.173  0.0071  0.0016  0.4440
92775W        W35791  12.951  26.727  15.688  0.2179 -0.2386 -0.0560
92776W        W35792  17.889  11.183  20.395  0.0125 -0.2228 -0.0877
92777W        W35793   9.790  18.497  24.383 -0.0379  0.1909 -0.1106
92778W        W35794  28.040  26.671  23.795 -0.3676 -0.0324 -0.2749
92779W        W35795  12.453  18.941  12.101 -0.0736 -0.0746  0.1685
92780W        W35796  17.278  30.979  22.766  0.1801 -0.1223 -0.1698
92781W        W35797  22.948  20.539  18.507 -0.1230  0.3809  0.1516
92782W        W35798  21.318   2.860  21.610  0.0469 -0.1483  0.0369
92783W        W35799   6.534  12.489  19.704 -0.3352  0.0911 -0.1638
92784W        W35800  19.808  12.283  13.431 -0.0940 -0.3501 -0.0911
92785W        W35801   5.365  21.211  16.475 -0.0148  0.0117 -0.1530
92786W        W35802  27.383  23.671  18.786 -0.0433  0.1641 -0.1806
92787W        W35803  25.420  11.947   1.823  0.1077  0.0722 -0.0306
92788W        W35804  18.924  18.407  12.449 -0.0936  0.0738 -0.0867
92789W        W35805  13.925   3.971  28.414 -0.0127  0.3764 -0.1187
92790W        W35806  25.033  14.849  16.824  0.0710  0.2368  0.2408
92791W        W35807   9.998  12.261  18.283  0.1840 -0.3304 -0.0022
92792W        W35808  27.569  27.494  24.901  0.2384  0.0203  0.0557
92793W        W35809  19.162   8.905  20.047 -0.1134 -0.0569  0.1665
92794W        W35810  17.272   1.613  16.273  0.1435  0.0623 -0.1673
92795W        W35811  22.493  23.484  20.176 -0.3656 -0.0278 -0.3866
92796W        W35812  22.671  33.812  26.260 -0.0865 -0.1002  0.0945
92797W        W35813   5.368  21.143   4.826  0.0977  0.1299 -0.0547
92798W        W35814  20.764  25.550   8.730  0.1630  0.0886  0.0415
92799W        W35815  13.895  28.023  18.866  0.5193  0.0711 -0.0655
92800W        W35816  13.826  32.923  15.878  0.3406  0.1928  0.0853
92801W        W35817  28.913  22.942  18.846  0.0351 -0.0382 -0.0131
92802W        W35818  13.263  23.511  18.023 -0.0246  0.0219  0.0632
92803W        W35819  19.858  25.240   1.260  0.0039 -0.3387  0.0748
92804W        W35820  19.174  18.164  16.183  0.0689 -0.0901 -0.1836
92805W        W35821  14.796  33.553  24.317  0.2583  0.1417  0.0014
92806W        W35822  18.788  18.306  13.302 -0.1067  0.1386 -0.2478
92807W        W35823   8.255   3.231   0.534  0.0181 -0.1809 -0.2573
92808W        W35824   0.213   9.386  21.195  0.1182 -0.0527 -0.0367
92809W        W35825   2.720  25.732  20.469 -0.0905 -0.1710 -0.1916
92810W        W35826  10.505   8.396  26.701  0.1784 -0.0857 -0.0802
92811W        W35827  24.860   0.490  15.850 -0.2137 -0.0644  0.0321
92812W        W35828  16.475   2.508  22.894 -0.1269 -0.3690 -0.0696
92813W        W35829  20.937   7.164  16.276  0.1576 -0.2896  0.2250
92814W        W35830  22.475  23.356   9.519  0.2923  0.1983 -0.3911
92815W        W35831   3.951   9.120  27.123  0.3031 -0.3028  0.0926
92816W        W35832  22.127  19.419  16.039 -0.1123 -0.0234  0.0688
92817W        W35833  29.548   1.451   5.360  0.4889  0.4296 -0.3663
92818W        W35834  24.906   9.585  14.037  0.1078  0.2166 -0.0229
92819W        W35835  28.830  33.565  19.784  0.0718 -0.3863  0.3755
92820W        W35836   4.933   5.926  14.568  0.1472  0.1901  0.2560
92821W        W35837  28.285   0.235  20.962 -0.0446  0.1252 -0.0756
92822W        W35838  12.722  28.384  15.687 -0.0061 -0.0099  0.0070
92823W        W35839  21.263  20.649  15.363 -0.0296  0.1035 -0.1158
92824W        W35840  10.737  20.026  13.584 -0.0740 -0.0933 -0.0617
92825W        W35841  24.549  32.938  19.128  0.3492 -0.0403 -0.0163
92826W        W35842  21.918  31.295  15.626  0.4102 -0.1156  0.0840
92827W        W35843  23.045  32.573  23.678 -0.0656 -0.1018 -0.0991
92828W        W35844  32.464  31.185  26.152 -0.0056 -0.1375 -0.1581
92829W        W35845   4.018  21.862  14.573 -0.1778 -0.1423 -0.1012
92830W        W35846  26.347  15.325  19.179  0.0873 -0.3116  0.3298
92831W        W35847  29.671  24.816  15.835  0.2713 -0.1542 -0.0291
92832W        W35848  10.327  20.480  20.097 -0.2676 -0.0040  0.1777
92833W        W35849  26.482  20.032  25.799 -0.0146  0.0491 -0.2791
92834W        W35850  22.337  15.627  15.643  0.0065  0.0177  0.0714
92835W        W35851  27.854  29.353  16.991 -0.0003 -0.1575 -0.1753
92836W        W35852   5.453   4.998  25.976  0.0060 -0.0461  0.3142
92837W        W35853  21.602  27.690  18.859  0.0171  0.1290  0.1457
92838W        W35854  20.467  12.258  25.100  0.0859 -0.0194 -0.0059
92839W        W35855  28.486  16.623   8.510  0.3111 -0.4249 -0.0426
92840W        W35856   3.209  18.944  27.121 -0.0285 -0.0605 -0.0288
92841W        W35857  25.474  24.836  20.569 -0.1864  0.0255  0.2628
92842W        W35858  25.281  19.287  18.483 -0.0996 -0.0841  0.0663
92843W        W35859  14.511  30.989  15.041  0.3851 -0.0733 -0.0027
92844W        W35860  22.178  20.808  17.026 -0.0168 -0.0906  0.1502
92845W        W35861  33.628  19.006  24.752  0.0929  0.2236  0.0125
92846W        W35862  25.072  30.868  16.187 -0.2319  0.2452  0.2309
92847W        W35863  20.220  32.667  20.776 -0.2403  0.2915  0.2763
92848W        W35864  16.717  25.957  14.159  0.1403 -0.0590  0.0482
92849W        W35865   2.116  18.841  19.761 -0.1195 -0.0429 -0.0144
92850W        W35866   3.386  21.885  27.829 -0.0743 -0.0330 -0.1824
92851W        W35867  21.443  27.718  14.068 -0.1476  0.0978 -0.0615
92852W        W35868  28.342  32.016  22.287 -0.0070 -0.0713 -0.1416
92853W        W35869   9.127  23.617  22.518  0.2517 -0.3287  0.2071
92854W        W35870  23.805  29.030  27.132 -0.0104 -0.0303 -0.2145
92855W        W35871   0.772  14.436  27.193  0.0672  0.4307  0.2009
92856W        W35872  28.305  19.018  15.786  0.2336 -0.0533 -0.1169
92857W        W35873  26.527  23.510  15.009 -0.0429 -0.1903 -0.1292
92858W        W35874  31.259  30.136  28.050 -0.2603  0.2303 -0.0410
92859W        W35875  27.075   6.176  26.010 -0.1121  0.3913  0.0269
92860W        W35876   8.336  32.974  27.113  0.0482 -0.1408  0.0251
92861W        W35877  23.608  22.016  25.580 -0.1701  0.3043  0.0811
92862W        W35878  24.330  16.010  23.308  0.3434  0.1376 -0.0160
92863W        W35879  13.784  29.271  15.066 -0.1305 -0.0359 -0.2422
92864W        W35880  29.869  23.214  21.807  0.0067  0.1413 -0.1937
92865W        W35881  11.601  24.582  16.866 -0.1970  0.0889  0.0108
92866W        W35882  13.906  20.787  16.258  0.0210 -0.1248 -0.2617
92867W        W35883  23.971  25.227  18.709  0.3024  0.0788  0.2078
92868W        W35884  16.422   5.419   7.759  0.1362 -0.0723  0.1946
92869W        W35885  10.444  34.430  29.152  0.0043  0.2133  0.0799
92870W        W35886  12.613   1.623  16.895  0.4703 -0.1331 -0.0672
92871W        W35887  31.156  19.589   4.239 -0.0227 -0.0336  0.0643
92872W        W35888  24.742  16.998  14.926  0.1896  0.3691 -0.0808
92873W        W35889  20.333  30.448   4.622  0.1280 -0.0856 -0.1358
92874W        W35890  33.226  24.436  23.375 -0.0687 -0.2422  0.1361
92875W        W35891  15.024  22.773  22.500  0.1289  0.0200  0.0016
92876W        W35892   9.641  10.887  18.353 -0.3934  0.1261 -0.1413
92877W        W35893  18.295  23.499  26.417  0.1645  0.2476 -0.1943
92878W        W35894  22.499  26.621  24.041 -0.0152  0.3946  0.1900
92879W        W35895  24.454   3.049   7.716  0.0007  0.2305 -0.1225
92880W        W35896  27.349  14.153   0.900 -0.2675 -0.0919 -0.2446
92881W        W35897  23.711   8.746  17.631 -0.4237  0.0673  0.2372
92882W        W35898  13.479  17.748  14.571 -0.3192 -0.0188  0.0543
92883W        W35899  32.871  34.742  16.254  0.1582  0.0659  0.0657
92884W        W35900  23.757  32.131  18.909 -0.2765  0.1291 -0.1141
92885W        W35901   8.701  12.009  16.513 -0.2818 -0.0557  0.1477
92886W        W35902  26.916  24.044  18.382  0.0752  0.0683 -0.0149
92887W        W35903  26.289  13.592  22.745  0.2186 -0.0356  0.0629
92888W        W35904   2.119   5.046  22.479  0.0940  0.1361  0.0424
92889W        W35905  20.308  34.199  17.723  0.1112 -0.2553  0.0234
92890W        W35906  11.082  25.360  22.487  0.0866 -0.0568  0.0085
92891W        W35907  22.809  31.881  22.605 -0.0154  0.1109 -0.0648
92892W        W35908  18.359  32.762  21.659 -0.1859  0.4035 -0.0398
92893W        W35909  17.967  23.751  13.753 -0.1414  0.1654 -0.1275
92894W        W35910  21.105  23.126  25.847  0.0360  0.2118 -0.0899
92895W        W35911  32.993  18.468  25.503 -0.0818  0.0995 -0.0811
92896W        W35912  10.361  25.508   3.463 -0.3892  0.1600 -0.0642
92897W        W35913   2.929  31.332  17.269 -0.3957  0.1087 -0.1201
92898W        W35914  27.612  14.307  20.076  0.1269 -0.0994  0.1703
92899W        W35915  25.989  33.660  26.705  0.2525 -0.1772  0.2510
92900W        W35916  28.924  26.690  29.182 -0.3981  0.0693 -0.0608
92901W        W35917   5.834  21.393  21.335 -0.0067 -0.0767  0.1950
92902W        W35918  19.054  24.225  15.231  0.1085  0.1623 -0.0947
92903W        W35919  23.459  22.253  21.284  0.1277  0.1076 -0.1529
92904W        W35920  31.562   3.752  23.022  0.0687 -0.1994  0.0691
92905W        W35921   9.527   8.426  19.594  0.0023  0.0637  0.1536
92906W        W35922  33.261  12.920  26.051 -0.1164  0.3650  0.1406
92907W        W35923  30.720  20.271  16.146 -0.2588 -0.2081 -0.1200
92908W        W35924  30.639  29.693  21.326 -0.0392 -0.1153 -0.0164
92909W        W35925  31.212  33.007  18.606  0.2061 -0.3795  0.3080
92910W        W35926  22.809  28.044  15.502 -0.2056 -0.3042 -0.1444
92911W        W35927   8.003  25.744  15.679  0.0157  0.3017  0.0162
92912W        W35928   4.827  28.468  18.912  0.0039 -0.1613  0.2387
92913W        W35929  16.041  22.798  20.023  0.1419  0.1584  0.1394
92914W        W35930  18.336  29.993  24.488  0.2316  0.0097  0.1452
92915W        W35931  29.846   7.895  21.141  0.3633 -0.0317 -0.0293
92916W        W35932   2.178  22.035  18.404  0.1016  0.1820 -0.0368
92917W        W35933  17.170  32.271  15.629 -0.0964  0.2768 -0.0743
92918W        W35934  11.071  10.483  14.961 -0.2364  0.3078 -0.2406
92919W        W35935  17.756  28.591  17.670  0.0853 -0.2125 -0.3320
92920W        W35936   6.255  29.085  14.738  0.1822  0.2590 -0.0216
92921W        W35937  26.159  30.555  18.516  0.0136 -0.0511 -0.0338
92922W        W35938  24.220  29.718  16.198  0.1286  0.1984 -0.0581
92923W        W35939   3.559   0.069  20.023  0.0828  0.0910  0.0510
92924W        W35940   5.818  14.085   4.675  0.0266 -0.1136 -0.2227
92925W        W35941   1.522  11.278   2.379 -0.2775 -0.0393  0.1213
92926W        W35942  22.398  30.395  22.442  0.2650  0.3726 -0.0464
92927W        W35943  29.649  23.589  21.127 -0.1000  0.4942  0.1396
92928W        W35944   9.685  22.071  26.466 -0.2800 -0.1231 -0.2306
92929W        W35945  17.580  20.107  24.992  0.2296  0.1965 -0.1600
92930W        W35946  17.984   5.957  22.179 -0.0069 -0.0039  0.2251
92931W        W35947  18.070  27.389  14.537  0.1058  0.1025 -0.2437
92932W        W35948  27.709  22.143  24.042 -0.1111 -0.0792 -0.1110
92933W        W35949  13.084  22.893  20.897  0.0098  0.0898  0.0700
92934W        W35950  11.960  11.937  19.265  0.1055  0.0941  0.3440
92935W        W35951   2.578  15.514  10.342 -0.0810 -0.1626 -0.4190
92936W        W35952  29.850  25.716  24.294 -0.0079 -0.2961  0.1715
92937W        W35953   5.826  24.015  29.150 -0.2272 -0.2481  0.0034
92938W        W35954  13.567   0.312  23.104  0.2964  0.2064  0.0897
92939W        W35955  21.628  34.083  23.872 -0.0159 -0.0624  0.2360
92940W        W35956  13.290  18.131   5.708 -0.0823  0.1461 -0.0389
92941W        W35957  12.008  33.154   9.206 -0.1076  0.4402 -0.0081
92942W        W35958  28.752  21.997  27.439  0.0137 -0.4757 -0.0842
92943W        W35959  18.924  33.394  17.136 -0.0049  0.0698  0.0543
92944W        W35960  19.466  24.125  13.512  0.0260 -0.0839  0.2564
92945W        W35961  15.244   1.432   6.178  0.0004 -0.2151 -0.0902
92946W        W35962  23.251  32.490  18.137  0.1043 -0.0941 -0.1499
92947W        W35963  21.059   3.538  20.958 -0.0682  0.0972 -0.0749
92948W        W35964   6.293  23.747   1.889  0.0926 -0.2171  0.2189
92949W        W35965  28.284  20.603  20.992  0.3878  0.1500  0.0590
92950W        W35966  10.426  26.713  15.331  0.1347  0.1158 -0.0871
92951W        W35967   7.817  22.876  23.359  0.3260  0.1023  0.2016
92952W        W35968   0.425  11.001  25.211 -0.2893 -0.0281  0.1671
92953W        W35969  10.481  24.561  16.426  0.1641 -0.3559 -0.1315
92954W        W35970  11.692  19.483  28.127 -0.1688  0.3615 -0.1308
92955W        W35971   2.312   3.368   1.034 -0.1170  0.1033 -0.0175
92956W        W35972  13.957  21.343  14.381 -0.2046 -0.0724  0.0353
92957W        W35973  12.595  13.343  15.511  0.0196 -0.0038  0.1818
92958W        W35974  31.492  19.731  26.705 -0.0382  0.0485 -0.0379
92959W        W35975  16.003  14.649  14.909 -0.0387 -0.1612 -0.0250
92960W        W35976  20.849  17.458  21.040 -0.2698 -0.0917  0.0472
92961W        W35977  21.055  22.488  19.445  0.3586 -0.1084 -0.0733
92962W        W35978  33.977  22.664  24.609  0.2619  0.2725  0.3978
92963W        W35979  13.752  31.149   7.096  0.1114 -0.2123 -0.3121
92964W        W35980   9.649  21.788  17.391  0.1090  0.4262 -0.1415
92965W        W35981   1.145   5.284  16.073 -0.1434  0.3581  0.0310
92966W        W35982  32.316  22.399  24.737  0.2592  0.2215 -0.2335
92967W        W35983  20.086  33.299  21.648  0.0619 -0.1605  0.2341
92968W        W35984  24.801  22.890  14.756 -0.0910  0.0007 -0.1339
92969W        W35985  20.450  21.255  18.539 -0.0556  0.0457 -0.0092
92970W        W35986  17.987   2.576  26.470  0.0073 -0.1380 -0.1677
92971W        W35987  16.782  15.759  14.774  0.3120  0.0718  0.0307
92972W        W35988  31.546  20.751  19.399  0.4738 -0.1002 -0.0196
92973W        W35989   6.231  16.750   0.322  0.2968  0.0916 -0.1126
92974W        W35990  10.548  22.864  13.794  0.2599  0.2711  0.0420
92975W        W35991  23.277  16.728  24.438  0.0820  0.2822 -0.0451
92976W        W35992   2.113  18.970  18.741  0.1584  0.2964  0.3148
92977W        W35993  18.393  30.488  23.012  0.1476 -0.0117  0.0120
92978W        W35994  21.798  20.514  21.243 -0.2480 -0.1380  0.2974
92979W        W35995  28.415   8.239  16.076 -0.1468  0.2711  0.0935
92980W        W35996  23.673  12.571  21.962 -0.0908 -0.2464  0.0392
92981W        W35997  20.949  26.112  24.787  0.1268  0.1788 -0.1834
92982W        W35998   9.831  30.705  18.621 -0.1621 -0.1459 -0.1302
92983W        W35999  12.819  27.023  25.250 -0.1640  0.2096  0.2505
92984W        W36000  15.186  25.092  13.144 -0.0629 -0.1526  0.2572
92985W        W36001  28.036  31.469  21.208  0.0980  0.3533 -0.0659
92986W        W36002  22.380  28.758  21.318  0.0486  0.1077 -0.3354
92987W        W36003  24.505  26.099  19.460  0.2042  0.0643  0.0392
92988W        W36004   6.836  11.594  15.511  0.3003 -0.1355 -0.1184
92989W        W36005  21.159  21.887   3.111  0.0512  0.0438 -0.1406
92990W        W36006  25.577   8.852  28.398  0.0544 -0.2062 -0.1758
92991W        W36007  18.075  12.649  25.287 -0.1089 -0.1372  0.0022
92992W        W36008  10.856  32.454  18.950 -0.0939 -0.1295  0.0930
92993W        W36009  13.528  33.955  22.534 -0.2558 -0.0067  0.2117
92994W        W36010  14.020   1.316   0.342  0.1316 -0.0079 -0.2297
92995W        W36011  29.780  25.183  24.802  0.0409 -0.0385  0.1004
92996W        W36012  11.383   7.577  20.393 -0.0981 -0.0170 -0.4108
92997W        W36013  16.460   1.587  25.097  0.2000  0.3296 -0.0327
92998W        W36014  14.731  33.730  14.119  0.6085  0.0325 -0.3329
92999W        W36015  13.411  22.886   1.509 -0.3867  0.1177 -0.0067
93000W        W36016  22.977  15.487  27.625 -0.2716  0.1467  0.1153
93001W        W36017  23.595  29.974   6.255  0.0773  0.1580  0.0452
93002W        W36018  18.878  21.993  25.875 -0.0882 -0.1123  0.0137
93003W        W36019  33.588  26.404   0.980 -0.0100 -0.2406  0.0395
93004W        W36020  11.879   3.927  22.526  0.1691 -0.1457 -0.0044
93005W        W36021  22.482  27.354  15.068 -0.1805 -0.2560  0.0282
93006W        W36022   9.348  31.517   3.681 -0.1401 -0.0995  0.1012
93007W        W36023  26.494  31.315  20.731 -0.2501 -0.1696 -0.0884
93008W        W36024   3.709  34.486  14.682  0.0475 -0.2178  0.1772
93009W        W36025  34.407  30.882  19.318 -0.0159  0.0879  0.2388
93010W        W36026  16.877  25.833  25.160  0.1615  0.0176  0.2624
93011W        W36027  15.899  23.914  19.154 -0.0184 -0.0549  0.2873
93012W        W36028   2.226  32.126  17.974  0.0380  0.2658 -0.2293
93013W        W36029  10.014  22.675  20.816 -0.0300 -0.0251 -0.1442
93014W        W36030  18.647  31.464  22.329 -0.1919 -0.1208  0.0266
93015W        W36031  12.386  26.324   8.882 -0.0258  0.1090  0.0948
93016W        W36032   4.348  12.123  24.769  0.0165  0.1477  0.1430
93017W        W36033   6.188  33.980  20.906  0.0506 -0.1542 -0.1786
93018W        W36034  21.942  14.611  27.879  0.2287  0.1367  0.2661
93019W        W36035  21.810  11.386  15.582  0.3749 -0.0802 -0.1615
93020W        W36036  16.629  17.403  18.127  0.1082 -0.0051 -0.4636
93021W        W36037  20.887   2.158  22.763  0.0835 -0.1291 -0.0415
93022W        W36038  27.470  24.898  20.454 -0.1172  0.2014 -0.2198
93023W        W36039  12.817   0.807  23.791 -0.0703  0.0249  0.0601
93024W        W36040  23.698  15.147  21.442  0.0864  0.4716 -0.1262
93025W        W36041  13.670  26.108  18.292 -0.0624 -0.0191 -0.0019
93026W        W36042  30.785  19.223  22.563  0.1903  0.2895 -0.1452
93027W        W36043  17.011  32.843  15.024  0.1985  0.1905  0.0840
93028W        W36044  19.189  27.325  23.531  0.1996  0.0420  0.0655
93029W        W36045  14.583  34.501   0.164  0.2647  0.2978  0.0289
93030W        W36046   0.294  27.273  25.912 -0.4179 -0.0740  0.1101
93031W        W36047   7.228   4.042   0.616  0.0555  0.0491  0.0912
93032W        W36048  15.294  23.337  19.953  0.1496  0.0159  0.0242
93033W        W36049  32.545   0.407   0.745 -0.0929 -0.1254  0.0359
93034W        W36050  16.580  33.961  25.772 -0.1856  0.0602 -0.0841
93035W        W36051  23.336  17.549  15.531 -0.0143  0.2695 -0.1553
93036W        W36052  20.622  27.507  15.750 -0.0011 -0.3271 -0.0253
93037W        W36053   1.000  13.940  26.176  0.1284  0.0831 -0.0539
93038W        W36054  22.806  17.659  13.567  0.3384 -0.1841 -0.0071
93039W        W36055  22.300  27.670  19.513 -0.0633 -0.0152 -0.0744
93040W        W36056  30.506  17.795  23.728  0.3716  0.0054  0.3356
93041W        W36057  24.615  26.276  28.142  0.0369  0.1331  0.0413
93042W        W36058   8.191  17.426  26.861 -0.0331  0.0739 -0.2291
93043W        W36059  23.020  13.536  26.350 -0.1261  0.0627 -0.2491
93044W        W36060   7.659  21.204  19.250  0.0334  0.1910 -0.0708
93045W        W36061  19.388  12.016  12.569 -0.2679 -0.3320  0.0231
93046W        W36062  10.448  17.387  19.965  0.3263  0.2209 -0.0293
93047W        W36063  33.861  29.525  27.158 -0.0515 -0.0367 -0.2060
93048W        W36064   4.991  22.897  15.225 -0.3128 -0.2132  0.0706
93049W        W36065  25.783  15.493   2.170 -0.0280  0.1561 -0.0929
93050W        W36066  23.105  10.291  27.062 -0.0508  0.1677  0.0530
93051W        W36067  29.396  21.842  22.805  0.0623 -0.1962 -0.1186
93052W        W36068   0.814  22.143  14.764  0.0349 -0.1422 -0.2731
93053W        W36069  24.590  30.206  20.247  0.0177  0.0875  0.2548
93054W        W36070  31.595  13.712   3.681 -0.3564 -0.0490  0.2682
93055W        W36071  14.516  11.799  19.536  0.2273 -0.0990  0.0788
93056W        W36072  17.084  28.895  24.218  0.1263 -0.1344  0.0319
93057W        W36073  10.557  21.590  26.864 -0.1080 -0.0587 -0.1505
93058W        W36074  16.713  27.879  10.754  0.1452 -0.0508 -0.0680
93059W        W36075  25.909  24.925  14.659 -0.0584 -0.0916  0.2273
93060W        W36076  11.189  25.363  24.063 -0.1983  0.2109 -0.0506
93061W        W36077  12.838  28.089  29.114 -0.1412 -0.1685 -0.0294
93062W        W36078  32.418  29.389  18.412  0.1748  0.0203  0.2583
93063W        W36079  19.405  27.504   2.092  0.2237  0.1405  0.2674
93064W        W36080   8.875  10.911  16.171 -0.1738 -0.0021  0.1287
93065W        W36081  21.473  26.759   1.940 -0.1642 -0.2627  0.0443
93066W        W36082  17.051  29.233  27.238  0.0645 -0.1018  0.0765
93067W        W36083  23.176  15.470  25.216  0.2506  0.2723 -0.1458
93068W        W36084  16.672  23.597   2.297 -0.2403  0.0153 -0.3133
93069W        W36085  30.978   9.089  22.507  0.0212 -0.1456  0.1927
93070W        W36086  11.819  22.240  15.709 -0.1137 -0.1297  0.0516
93071W        W36087  14.278  11.321  19.423  0.1505 -0.2716 -0.0187
93072W        W36088  17.220  19.045  11.963 -0.0738 -0.3121 -0.0614
93073W        W36089   5.317  13.485  28.422  0.0050 -0.1472 -0.2305
93074W        W36090  26.328  25.528  19.704  0.0103  0.3605 -0.3259
93075W        W36091  12.573  32.486  28.480 -0.0172 -0.0704 -0.0717
93076W        W36092  25.326  27.350  23.526 -0.2074 -0.1860  0.1546
93077W        W36093  25.644  17.329  25.095  0.1522  0.0824  0.0337
93078W        W36094  27.084  22.918   8.480  0.1192 -0.1469  0.4495
93079W        W36095  19.308  15.555  21.857 -0.1042 -0.0357  0.1156
93080W        W36096  19.089  12.938  13.294  0.3689 -0.0128 -0.0730
93081W        W36097  20.599  19.768  13.775  0.1164  0.2825  0.1180
93082W        W36098   6.730  27.749  27.400  0.0103 -0.4375 -0.1778
93083W        W36099  21.576   3.189  27.401 -0.0337  0.1177  0.1188
93084W        W36100  17.163  25.987  18.021 -0.3028  0.2342  0.0417
93085W        W36101  28.347  32.658  24.404  0.1354 -0.2304 -0.0122
93086W        W36102  13.849  19.312  27.030 -0.1905  0.1244  0.3803
93087W        W36103  31.433  14.922   9.827 -0.0012  0.0935 -0.0861
93088W        W36104  20.498  23.252  15.587 -0.2367 -0.4330 -0.1735
93089W        W36105  30.598  20.741  24.715  0.2773  0.0481  0.2940
93090W        W36106  22.598  25.975  28.654 -0.2786 -0.1322 -0.3547
93091W        W36107  14.664  28.012  28.654  0.1882  0.0987 -0.1469
93092W        W36108  12.226  22.160  14.340 -0.0739 -0.0504  0.2334
93093W        W36109  26.343  22.645   4.788  0.4133  0.4570  0.0691
93094W        W36110   4.216  26.876  19.073 -0.0342 -0.1587 -0.1158
93095W        W36111  28.323  19.899   3.510  0.1800 -0.0182 -0.1610
93096W        W36112   8.958  24.471  21.974 -0.0526  0.0202  0.1534
93097W        W36113  27.620  27.404  18.884  0.1236  0.0596  0.2801
93098W        W36114  17.041  32.162  20.188  0.0194 -0.3547 -0.2600
93099W        W36115  31.613  24.703  21.612  0.0390  0.1867  0.2589
93100W        W36116  24.105  22.791  18.392 -0.2126 -0.0784  0.4419
93101W        W36117  21.313  19.861  12.793 -0.1628  0.1363 -0.0824
93102W        W36118  15.665  28.423  21.034  0.1981 -0.0883  0.3431
93103W        W36119  10.760  19.140  14.756  0.1367  0.0234  0.0772
93104W        W36120  31.758  31.801  24.121  0.1690  0.1899  0.3397
93105W        W36121   0.502  26.573  28.957  0.2203 -0.1009  0.2133
93106W        W36122   6.986  22.908  17.101  0.1879  0.0825  0.0109
93107W        W36123  20.937  31.578  20.960  0.2180  0.0228  0.1327
93108W        W36124  15.736  24.405  15.417 -0.2775  0.0057 -0.0481
93109W        W36125  21.002  27.228  21.999  0.1055 -0.0582 -0.2929
93110W        W36126  22.341  24.483  28.607  0.3817 -0.2883  0.1950
93111W        W36127   1.265  18.944   0.692 -0.0489  0.1815 -0.0680
93112W        W36128  24.686  21.459   4.843 -0.1749  0.2446  0.2138
93113W        W36129   1.890  23.438  27.843 -0.4013  0.1676  0.0888
93114W        W36130  13.932  31.435  16.701  0.0544 -0.0935 -0.0007
93115W        W36131  18.199  33.806  18.504  0.1147  0.3606 -0.0608
93116W        W36132  13.019   9.854  15.610  0.1556 -0.2122  0.0053
93117W        W36133  19.954  10.900  16.378  0.0860 -0.0515  0.2771
93118W        W36134  16.595  28.899  27.304  0.2735 -0.2916  0.4207
93119W        W36135  21.051  19.481  12.891  0.2704  0.1768 -0.0836
93120W        W36136   4.011   0.805  21.370  0.2485  0.0951 -0.2163
93121W        W36137  26.583  13.814  16.213  0.0700 -0.0611 -0.1826
93122W        W36138  27.917  25.920  26.526  0.0154 -0.0207  0.0897
93123W        W36139  21.639  19.020  26.668 -0.1974  0.0194 -0.3621
93124W        W36140  26.624  29.426   7.216  0.1735  0.0080 -0.3174
93125W        W36141  29.947  32.771  21.515 -0.0006  0.2305 -0.3270
93126W        W36142  10.543   4.583  25.757  0.0660 -0.0776 -0.1099
93127W        W36143  25.828  17.426  17.183  0.2916  0.1031  0.1521
93128W        W36144  16.780  28.205  25.064  0.0403  0.1247  0.0543
93129W        W36145  32.414   9.711  26.389  0.0505  0.1420 -0.3879
93130W        W36146  14.537  19.371  12.800 -0.2126 -0.1448  0.1312
93131W        W36147  27.923  22.074   1.131  0.1780  0.1572 -0.2090
93132W        W36148  16.911   5.720  27.386  0.0159 -0.0609  0.0658
93133W        W36149  14.866  27.516  18.643  0.4586  0.2858 -0.0422
93134W        W36150  21.674  31.811  14.838  0.0280 -0.1525  0.0674
93135W        W36151   1.393  27.831  26.084  0.1494  0.2290 -0.1097
93136W        W36152   8.097  22.131   0.537 -0.1501 -0.2956 -0.0799
93137W        W36153  19.347  18.369  12.112  0.1241  0.1747 -0.3517
93138W        W36154  17.418  20.101  21.614  0.1385  0.1206  0.1643
93139W        W36155  34.392  10.708  17.792  0.0484 -0.3134  0.1994
93140W        W36156  15.348  23.553  22.726 -0.0793  0.0833  0.2677
93141W        W36157  17.763  22.570  22.182  0.1288  0.1304 -0.1818
93142W        W36158  20.687  24.624  26.469 -0.4397 -0.1561  0.3456
93143W        W36159  23.695  24.065   9.785  0.0101 -0.1062 -0.0244
93144W        W36160  16.221  10.340  17.480 -0.1670 -0.1605  0.1300
93145W        W36161  15.976   8.549  21.365  0.1564  0.2090  0.3027
93146W        W36162  20.096  20.397  23.249 -0.0378  0.2101 -0.2908
93147W        W36163  18.712  11.098  24.672 -0.3542  0.1544  0.1159
93148W        W36164  19.551  23.953  23.690 -0.2446  0.4804  0.0439
93149W        W36165  11.695  22.447  28.393  0.0168  0.1096 -0.3807
93150W        W36166  19.521  12.336  17.215 -0.3298  0.0221 -0.2721
93151W        W36167  10.394  23.603  27.220 -0.1343  0.2498  0.2913
93152W        W36168  12.406  26.784  23.826  0.2019 -0.3053 -0.0613
93153W        W36169   2.370  29.485  15.427 -0.4606 -0.2024 -0.2593
93154W        W36170  26.416  20.109  20.939  0.2222 -0.2113 -0.0341
93155W        W36171  26.149  26.245  28.105 -0.0736 -0.2401 -0.0136
93156W        W36172  23.952  27.027   3.233  0.4412  0.2802 -0.0152
93157W        W36173  19.259  30.002  23.040  0.0868 -0.0981 -0.0266
93158W        W36174   4.381  21.093  23.743  0.1894 -0.0689  0.2586
93159W        W36175   6.759  26.441  17.971 -0.0982  0.0430 -0.0629
93160W        W36176  22.627   6.379  13.988 -0.0104  0.2994  0.1335
93161W        W36177  31.321   4.782  21.129  0.4475  0.0341 -0.1220
93162W        W36178  26.904  21.745  20.347  0.0611 -0.2205  0.3441
93163W        W36179  32.667  17.092  25.152 -0.0117  0.2634  0.3559
93164W        W36180  23.863  28.350  25.418  0.1104 -0.0244  0.0111
93165W        W36181  26.074  17.908   1.185 -0.3740 -0.1052 -0.0300
93166W        W36182  29.093  18.419  29.269 -0.3076  0.1436  0.0318
93167W        W36183  24.767  24.718  20.914  0.1713 -0.3080 -0.0134
93168W        W36184  17.243   1.767  22.648 -0.0548  0.0686  0.1797
93169W        W36185   7.931  23.878  19.406 -0.2187 -0.2733 -0.2075
93170W        W36186  26.915  24.398  20.364  0.0083  0.1649  0.0909
93171W        W36187  34.184   5.977   6.216  0.1532 -0.1448 -0.3641
93172W        W36188   9.511  16.617  19.335  0.0641 -0.2136  0.0954
93173W        W36189   3.030  22.064  24.133 -0.1638  0.2235  0.0777
93174W        W36190  24.418  29.275  16.368 -0.0223 -0.2143  0.1233
93175W        W36191   9.525  31.213  14.006  0.0529  0.1321  0.1526
93176W        W36192  32.586  27.919  22.402  0.0324 -0.3499  0.1687
93177W        W36193  28.777  29.638  26.668  0.3405 -0.0190  0.0911
93178W        W36194   6.792  25.822  18.685 -0.0329 -0.0353 -0.2061
93179W        W36195  14.691   3.156  24.191 -0.1761  0.0184  0.0936
93180W        W36196  21.542  10.556  15.442  0.0009 -0.2679 -0.1807
93181W        W36197  22.874  16.283  15.826 -0.1528  0.1657  0.2584
93182W        W36198  24.996   0.572  23.148 -0.0060  0.0700 -0.0883
93183W        W36199  23.625  23.777  19.846 -0.1803  0.1055  0.0620
93184W        W36200  30.440  18.765  16.028  0.1772 -0.0493 -0.0273
93185W        W36201  16.424  32.637  21.865 -0.2779 -0.0248  0.1610
93186W        W36202   8.031  24.489  28.030  0.1842  0.0813 -0.0263
93187W        W36203  16.583  26.719  19.001  0.1074 -0.1535 -0.0230
93188W        W36204   8.201  25.666  21.815 -0.1829 -0.3227  0.1678
93189W        W36205   8.299  17.109  16.558 -0.4436  0.0514  0.2235
93190W        W36206  20.425  19.516  14.195 -0.1168 -0.0782  0.0015
93191W        W36207  17.321   3.769   4.372  0.0055 -0.0143  0.0672
93192W        W36208  21.450  19.034   3.061 -0.1668  0.0584 -0.2468
93193W        W36209  20.716  21.199  14.655 -0.0917 -0.3244 -0.2188
93194W        W36210  21.567  31.793  22.320 -0.0676 -0.2127 -0.0883
93195W        W36211  12.208   0.132  29.316  0.2333  0.2678 -0.0255
93196W        W36212   2.488  21.982  18.016 -0.0095  0.0425  0.1337
93197W        W36213  27.147   5.701  20.560  0.1251  0.5367 -0.0375
93198W        W36214  32.536  28.719  23.037 -0.1756  0.1343 -0.1076
93199W        W36215  11.050  24.287  24.130 -0.0425 -0.1406 -0.0869
93200W        W36216  12.416  20.666  25.198 -0.0185 -0.1526  0.1346
93201W        W36217  26.186   0.855  26.443  0.0311  0.0444 -0.0818
93202W        W36218  25.076  23.898  26.887 -0.0551 -0.2082  0.0058
93203W        W36219  21.314  24.832  22.154  0.0266 -0.1916 -0.0912
93204W        W36220   0.062  25.003   2.275  0.0146  0.2539 -0.0241
93205W        W36221  19.880  25.098  17.837 -0.1846 -0.1934 -0.0471
93206W        W36222  15.771   2.297  19.958 -0.0336  0.0222 -0.2531
93207W        W36223  16.483  24.141   3.088 -0.3616 -0.1722 -0.2069
93208W        W36224  13.149  33.209  14.196 -0.1106 -0.1298 -0.0784
93209W        W36225   9.430   1.260   4.602 -0.2978 -0.0857 -0.1117
93210W        W36226  24.619  12.799  21.899  0.5466 -0.1872 -0.1484
93211W        W36227  20.658  24.208  14.119  0.2450 -0.1247  0.0021
93212W        W36228  12.708   1.124   3.445 -0.0791 -0.3730  0.1831
93213W        W36229  21.255   8.451  21.031 -0.2281 -0.1401 -0.2605
93214W        W36230  21.880  17.226  14.339 -0.1724  0.0493 -0.0026
93215W        W36231  19.157  34.530  23.715 -0.4813 -0.1130  0.1295
93216W        W36232  12.790  18.148  22.650  0.1950 -0.4898 -0.0390
93217W        W36233  18.786  32.188  19.148 -0.2369  0.1120 -0.3326
93218W        W36234   9.845  31.529  21.815 -0.3042 -0.2986 -0.0051
93219W        W36235  11.863  16.991  17.631  0.3720  0.0395 -0.0556
93220W        W36236  21.521   4.714   1.046  0.0211 -0.0677  0.0099
93221W        W36237  16.555  33.607  27.081 -0.0813 -0.0533  0.1210
93222W        W36238  11.306  12.421  19.856 -0.1935 -0.0208  0.0437
93223W        W36239  20.626  24.840  20.654 -0.2242  0.1030 -0.1975
93224W        W36240  21.200   9.498  20.473  0.1787  0.1283 -0.2430
93225W        W36241  15.492   8.859  13.203 -0.2666  0.2050  0.1718
93226W        W36242   3.660  30.594  28.806 -0.1713 -0.1289  0.1504
93227W        W36243   3.202  14.910  23.433  0.0200  0.2171 -0.0285
93228W        W36244  14.521  31.336  14.747  0.1369  0.0884  0.1172
93229W        W36245   5.461  33.004  27.081  0.1702  0.3628  0.0192
93230W        W36246   7.308  19.946  13.657  0.0623 -0.0671 -0.0252
93231W        W36247  33.301  29.223  25.967  0.0869 -0.1170 -0.5323
93232W        W36248  21.452  19.010  15.439  0.0277 -0.0731 -0.2559
93233W        W36249  30.169  29.394   1.873 -0.1222  0.1042  0.1287
93234W        W36250  14.404  22.292  14.415 -0.2845 -0.4083  0.0170
93235W        W36251  13.854  11.772  13.579  0.1384 -0.1176 -0.0253
93236W        W36252  23.573  24.851  16.900  0.1470  0.1177  0.4006
93237W        W36253  18.232  33.991  19.175 -0.0732 -0.0982 -0.0370
93238W        W36254  19.472  22.188  23.564 -0.2254 -0.0322  0.0249
93239W        W36255  15.783  10.881   0.432  0.2515  0.0779  0.0507
93240W        W36256  16.504  13.504  13.616 -0.1241 -0.0309  0.1082
93241W        W36257  12.256  17.462   3.310  0.2619 -0.0456 -0.1980
93242W        W36258  24.010  19.573  20.702  0.1569  0.0683  0.1534
93243W        W36259   4.092  18.499  15.919 -0.0597  0.0116 -0.1610
93244W        W36260  25.378  23.117  16.947 -0.0101 -0.0873 -0.1132
93245W        W36261  30.091   3.399  22.980 -0.0100 -0.2537 -0.1898
93246W        W36262   1.660   2.635   1.699 -0.1575 -0.1018  0.0699
93247W        W36263  29.147  25.918  15.537  0.0546  0.0285  0.0489
93248W        W36264  18.346  12.169  14.535 -0.1812  0.4424 -0.3041
93249W        W36265  29.583  29.346  20.842 -0.0105  0.0421 -0.0657
93250W        W36266   1.759  21.739  21.114 -0.2127  0.1106 -0.3164
93251W        W36267  29.171  30.743  18.159 -0.2475 -0.1098  0.1095
93252W        W36268  19.374  29.236  16.807  0.0414  0.1737 -0.0116
93253W        W36269  27.247  25.320   5.807  0.1567  0.1978  0.1161
93254W        W36270  18.282  20.517  28.118  0.1264  0.0044  0.1168
93255W        W36271   7.322  12.533  18.685 -0.4911 -0.2369  0.2412
93256W        W36272  30.213  29.816   1.517  0.0284 -0.1911  0.3995
93257W        W36273  15.395  31.546   0.363  0.0538  0.2721  0.1183
93258W        W36274  25.621  34.057  23.943  0.0265  0.0489 -0.2234
93259W        W36275  21.505   1.442  27.988  0.0240  0.2924 -0.0645
93260W        W36276  30.295  24.464  22.043  0.2792 -0.0835  0.2286
93261W        W36277   0.835  18.321  24.561 -0.0626 -0.2259 -0.0694
93262W        W36278  14.118  17.933  14.672  0.2051 -0.0668  0.0797
93263W        W36279  29.573  30.834  20.561 -0.2480 -0.2017  0.0333
93264W        W36280  26.512  23.500  20.344 -0.0431 -0.0735  0.0319
93265W        W36281  19.040  25.786  17.306  0.3045  0.2850 -0.1246
93266W        W36282   0.858  23.313  17.097  0.0268  0.2270  0.0172
93267W        W36283  25.094   7.912  27.412  0.1453 -0.1208  0.1559
93268W        W36284  12.742  24.731  25.070  0.6733 -0.0351  0.0022
93269W        W36285  22.582  34.083  17.594 -0.3841 -0.1758 -0.2645
93270W        W36286  28.008  34.596  17.006 -0.0028 -0.0683 -0.2054
93271W        W36287   8.669  16.811  18.992 -0.3659 -0.2610 -0.1522
93272W        W36288  22.370  30.904  22.508  0.0078 -0.0996 -0.0619
93273W        W36289  33.632   6.786  15.998 -0.2071 -0.3182 -0.1567
93274W        W36290   8.580  11.754   1.712  0.2697  0.0188  0.0669
93275W        W36291  14.329  23.652  17.200  0.0161  0.1195  0.1413
93276W        W36292  25.531  31.884  20.465  0.0577 -0.1241 -0.4625
93277W        W36293  17.365  25.829  23.490  0.0402  0.2134  0.1282
93278W        W36294  16.287  30.714  26.124 -0.3050 -0.0849  0.0933
93279W        W36295  11.566  25.163  18.296  0.0016 -0.1401 -0.1063
93280W        W36296  27.833  34.713  19.710  0.5017 -0.1256  0.1047
93281W        W36297  22.967  19.906  16.402 -0.2142 -0.3088  0.0705
93282W        W36298   9.210  14.028  15.196 -0.1465  0.2184  0.1049
93283W        W36299  19.607  21.591  16.032  0.0745  0.0625 -0.1707
93284W        W36300  23.388  19.351  15.990 -0.1205  0.0623  0.0132
93285W        W36301  33.405  20.432  22.125 -0.1258  0.3089 -0.3498
93286W        W36302   2.055  13.015  25.061 -0.1131 -0.0691 -0.0269
93287W        W36303  34.200   5.119  18.746 -0.2243  0.0165  0.2136
93288W        W36304  25.209  10.177  27.521 -0.1100 -0.0284 -0.2003
93289W        W36305  26.922  26.201  27.496 -0.1982  0.0972 -0.4575
93290W        W36306  10.916   6.605  16.565  0.1742  0.2898  0.0479
93291W        W36307  19.129   0.775  21.457 -0.1912  0.0273  0.1563
93292W        W36308  11.194  12.846  26.661  0.0990  0.0313 -0.0806
93293W        W36309  16.257  31.440  19.034  0.2336 -0.2153 -0.2306
93294W        W36310  10.487  14.569  19.620  0.0632  0.1127  0.1061
93295W        W36311  15.695  33.683  18.914  0.4586  0.0410  0.3636
93296W        W36312  23.694  21.005  19.908 -0.1030  0.0728 -0.2879
93297W        W36313  17.583  11.866  28.475  0.1576  0.0006 -0.2409
93298W        W36314  14.793  33.141  17.314  0.1479 -0.0636 -0.2177
93299W        W36315   0.490  34.263   1.574 -0.1422 -0.1830 -0.2714
93300W        W36316  34.148  32.022  24.148 -0.2157  0.0001 -0.2369
93301W        W36317  28.918  22.129  10.536 -0.1728  0.1613 -0.0429
93302W        W36318  11.415  15.875  13.081  0.0902 -0.1201  0.2589
93303W        W36319  33.450  20.350  15.759 -0.1802  0.0478  0.1446
93304W        W36320  29.066  11.466  16.638  0.0222  0.0781 -0.2188
93305W        W36321   4.340  24.589  24.058 -0.0305  0.0548 -0.0310
93306W        W36322   0.348  31.052  20.193 -0.0201 -0.2516  0.2997
93307W        W36323  25.774   9.805  19.784  0.1338 -0.2821  0.0688
93308W        W36324  14.223  27.437  15.541 -0.2725  0.0340 -0.0149
93309W        W36325  20.788  23.591  21.997 -0.0425 -0.3406 -0.0978
93310W        W36326  33.887  26.410  15.533  0.1952  0.0798  0.0107
93311W        W36327  16.938  22.127  19.889 -0.0546 -0.1990 -0.0628
93312W        W36328  23.401  14.226  14.292 -0.1839 -0.0546  0.0148
93313W        W36329  19.413  30.568  14.736  0.0855  0.0747 -0.0845
93314W        W36330  13.869   4.425  26.884 -0.1977  0.0892  0.0348
93315W        W36331  13.674   2.735  18.057  0.2735 -0.1178  0.1752
93316W        W36332  22.746  15.579  15.171 -0.1046  0.0747  0.1002
93317W        W36333  32.534  13.095  20.365 -0.0483  0.0714  0.0326
93318W        W36334  13.774   2.991  18.494 -0.1648 -0.0073 -0.2644
93319W        W36335  15.806  23.143  24.839  0.0112  0.1309  0.0193
93320W        W36336   0.091  22.785  20.564 -0.3759  0.2414 -0.2697
93321W        W36337  27.957  17.853   5.369  0.0005  0.2972 -0.0362
93322W        W36338  28.269  13.326  25.986 -0.4401 -0.1023  0.1316
93323W        W36339   8.828  30.953  14.463 -0.1351  0.0489 -0.1743
93324W        W36340  22.665   2.295  17.814  0.3454  0.0289 -0.0539
93325W        W36341   8.730   9.284  19.399 -0.1825  0.0247 -0.2116
93326W        W36342  10.199  11.206  15.124  0.1866 -0.0523 -0.0516
93327W        W36343  28.370  30.121  20.191 -0.0751 -0.1667 -0.1827
93328W        W36344   0.161   7.996  16.158  0.1130 -0.0726  0.3575
93329W        W36345  34.556  26.452  16.893 -0.1658  0.1618 -0.2712
93330W        W36346  20.840  29.711  24.509  0.1133 -0.0585  0.2384
93331W        W36347  32.012  15.606  22.052 -0.0397  0.0355 -0.0997
93332W        W36348  15.122  11.516  23.250  0.3853 -0.3789  0.0783
93333W        W36349  17.987  23.701  18.621 -0.0811 -0.0196 -0.0014
93334W        W36350  24.733   2.641  26.839 -0.1055 -0.1518  0.1171
93335W        W36351  16.044   6.918   0.243  0.0369  0.2516  0.2293
93336W        W36352   1.332  10.129  23.990  0.2196  0.4575  0.0130
93337W        W36353  27.932   1.634   0.873  0.1980  0.2332 -0.0346
93338W        W36354  26.766   1.426   4.874  0.4270 -0.2182  0.0544
93339W        W36355  15.916  31.034  21.421 -0.0339  0.0817 -0.2756
93340W        W36356  20.934  19.050  27.091  0.3276  0.0141  0.0767
93341W        W36357  16.557   0.757   1.553  0.0434  0.2195  0.2164
93342W        W36358  15.229  15.541  26.523  0.0054 -0.2197  0.2875
93343W        W36359  33.910  15.023  23.152  0.2372  0.2445 -0.0868
93344W        W36360   5.984   7.542  25.520 -0.0235  0.0231  0.0226
93345W        W36361   6.825  23.651   5.461  0.0601 -0.0501  0.0521
93346W        W36362  13.943  25.493  18.639  0.1850  0.1511  0.0129
93347W        W36363  20.044  24.343  14.876  0.2880  0.0410  0.1714
93348W        W36364  10.924   7.668  20.749 -0.1104  0.1646  0.0425
93349W        W36365   4.583  32.947   8.780  0.0642 -0.2314 -0.0393
93350W        W36366  23.173  22.847  22.983  0.2983  0.0169  0.0865
93351W        W36367  34.352  23.841   0.989  0.0049 -0.0024 -0.0452
93352W        W36368  27.602   9.928   4.338 -0.2458 -0.2380 -0.1128
93353W        W36369  15.063  23.065  27.925 -0.2620  0.3584  0.2972
93354W        W36370   8.657  17.168  15.028 -0.1132 -0.0086  0.0049
93355W        W36371  31.270  34.420   0.348  0.0575 -0.0830 -0.2206
93356W        W36372  28.433  28.763  22.113  0.0642 -0.1329 -0.0031
93357W        W36373  34.347   3.279  27.416  0.0202  0.1859  0.1512
93358W        W36374   3.753   4.756  21.023 -0.1833 -0.0581 -0.3131
93359W        W36375  33.343  21.179   6.975 -0.1141 -0.2733 -0.0518
93360W        W36376  11.393  24.092  28.401  0.1728 -0.0762  0.2460
93361W        W36377  26.526  31.367  15.384  0.0930  0.2448  0.2240
93362W        W36378  18.094   2.921  23.391  0.0843 -0.0819  0.1508
93363W        W36379  24.662  28.669  10.843 -0.2340  0.3592 -0.0169
93364W        W36380  33.066  32.415  28.389 -0.0059  0.0973 -0.1361
93365W        W36381  21.077  17.414   0.927 -0.2299  0.2216  0.0250
93366W        W36382  18.677  31.038   5.427 -0.0851  0.0771  0.0815
93367W        W36383  24.381  12.289  28.810  0.0393  0.3851  0.1397
93368W        W36384  26.732  27.657  10.040  0.1288 -0.0716 -0.0059
93369W        W36385  24.552  14.886  14.924  0.1333  0.4406 -0.1862
93370W        W36386   2.000  11.094  16.373 -0.1369 -0.1722 -0.1635
93371W        W36387  20.267  21.842  27.600  0.1233  0.3982 -0.3034
93372W        W36388  12.802  20.788  20.686  0.2745  0.1695 -0.0135
93373W        W36389  30.898  17.513  24.029  0.2986 -0.1770  0.2537
93374W        W36390  32.692  32.100  18.724  0.1239 -0.1328 -0.1139
93375W        W36391  20.921  22.389  20.851 -0.0154  0.3188 -0.1196
93376W        W36392  10.441  32.504   0.251  0.3209  0.1121  0.1971
93377W        W36393  16.209  21.931  21.666 -0.0880 -0.2983  0.1511
93378W        W36394  17.138   9.047   0.637  0.0313  0.1094  0.2987
93379W        W36395  30.046  32.583   4.837 -0.4430 -0.1552  0.0284
93380W        W36396   6.428  31.841   2.728 -0.2636 -0.3217 -0.1852
93381W        W36397  21.238  31.479   4.545  0.0134  0.1301 -0.2469
93382W        W36398   0.655   9.739   7.842 -0.0928  0.0258 -0.0011
93383W        W36399   1.449  24.686   0.551  0.1286 -0.2718  0.0513
93384W        W36400  16.223  20.154   0.098 -0.1300 -0.1253  0.2213
93385W        W36401  27.276  13.761  19.416  0.1971  0.1597  0.1298
93386W        W36402  32.582  13.323  22.170  0.1514 -0.0017 -0.3179
93387W        W36403  24.788  22.509  22.128 -0.2227 -0.1192 -0.1787
93388W        W36404  17.605  26.508  19.376 -0.0963 -0.4039 -0.0390
93389W        W36405  34.275  30.321   0.580  0.1161  0.1764 -0.3479
93390W        W36406  22.114  24.731   9.884  0.0938  0.0825 -0.4900
93391W        W36407  25.544  28.517  17.435  0.2008  0.0875 -0.1100
93392W        W36408  22.143  20.010  19.151  0.1091 -0.1250 -0.0168
93393W        W36409  17.118  17.503  19.052  0.0465 -0.0081  0.1788
93394W        W36410  31.385  12.416  17.937  0.0292 -0.2508 -0.2611
93395W        W36411  13.248  31.621  20.924  0.3160 -0.0438 -0.2089
93396W        W36412  19.887  22.402  28.288 -0.1921 -0.0759  0.0704
93397W        W36413  28.824  27.156  27.590 -0.2143 -0.2533  0.1508
93398W        W36414  12.414  29.975  20.739  0.0023  0.2582  0.4242
93399W        W36415   2.058  28.990   2.502  0.1489 -0.0226  0.1658
93400W        W36416  11.129  22.952  20.837  0.0878  0.0938 -0.1566
93401W        W36417  19.689  20.342  22.513 -0.0280  0.0397  0.0981
93402W        W36418   8.947  14.158   3.840 -0.0800 -0.2371  0.0217
93403W        W36419   2.521  31.942  20.683  0.2414 -0.0623 -0.0674
93404W        W36420  24.764  22.420  18.719  0.2545 -0.0076 -0.0710
93405W        W36421  33.229   4.256  24.879 -0.0410 -0.1744 -0.2602
93406W        W36422   4.475  19.927   0.648  0.0896  0.4448  0.0374
93407W        W36423  12.847  22.675   4.685 -0.1413 -0.0689 -0.0034
93408W        W36424  17.819  19.110  14.975  0.0105  0.2326 -0.1517
93409W        W36425  31.205  25.251  26.497  0.1208  0.0521  0.0832
93410W        W36426  23.135  31.530   4.222 -0.1298  0.2568  0.0748
93411W        W36427  28.479  28.073   4.645 -0.1461 -0.0010  0.1190
93412W        W36428  23.274  18.910  20.121 -0.3415 -0.2108  0.1006
93413W        W36429   8.734  21.446  22.877  0.3342  0.1840  0.0034
93414W        W36430  30.312  31.405   4.542  0.3023  0.1146 -0.0883
93415W        W36431  23.109  18.597   6.724  0.1323  0.0976 -0.0930
93416W        W36432   8.293  32.549   7.778 -0.0156  0.1161  0.4055
93417W        W36433  12.913  22.893  25.167  0.2180  0.2081 -0.1021
93418W        W36434   4.460  25.781  21.162  0.2734  0.1776  0.0868
93419W        W36435  26.195  29.421  11.853 -0.0303 -0.0259  0.0233
93420W        W36436  18.029  24.133   0.518  0.0498  0.2416  0.1143
93421W        W36437  19.452  18.504  12.592  0.0895 -0.0200  0.0691
93422W        W36438  26.249  24.492   4.724 -0.0020 -0.0777 -0.1525
93423W        W36439   4.629  32.517   9.085  0.0073  0.1527  0.0790
93424W        W36440  22.482  21.665  19.311 -0.0537 -0.3251 -0.0953
93425W        W36441  11.147  28.334  24.377  0.2688 -0.1365 -0.0996
93426W        W36442  15.387  27.001  24.327  0.3614  0.1239  0.2034
93427W        W36443   3.428  21.725  19.906  0.1920  0.1165  0.0506
93428W        W36444  26.766  25.983  22.353  0.3781 -0.3300  0.0553
93429W        W36445  28.555  11.861   6.053  0.4598  0.0437 -0.0908
93430W        W36446  15.759  32.629  18.369 -0.0711  0.1897  0.0664
93431W        W36447  11.999  23.596  21.902 -0.1709  0.1196  0.1569
93432W        W36448   4.453  17.163  29.255 -0.1497  0.1683 -0.1078
93433W        W36449  25.330  21.897  17.061  0.2529  0.2584 -0.3662
93434W        W36450  20.635   2.639  16.127 -0.2502 -0.0609 -0.0732
93435W        W36451  11.070  31.188   3.653 -0.2119  0.0291 -0.1010
93436W        W36452  16.329   2.449   7.914  0.0696 -0.0603 -0.1873
93437W        W36453   6.366  33.345  22.127 -0.1536  0.2535  0.0462
93438W        W36454  31.807  30.446   3.675  0.2210 -0.5082 -0.1130
93439W        W36455  22.137   1.447  16.781  0.0703  0.1223  0.1070
93440W        W36456  21.516  26.220  27.491  0.2064  0.0785 -0.4759
93441W        W36457  18.404  22.071  21.313 -0.4203  0.1865  0.3669
93442W        W36458  22.016  10.294  14.940  0.0246  0.0013 -0.0291
93443W        W36459  27.647  29.068  23.970  0.2696  0.0167 -0.1748
93444W        W36460   8.575  23.247   6.304  0.1489 -0.1973  0.3311
93445W        W36461  29.705   3.296  26.100  0.1668  0.1924  0.1389
93446W        W36462  30.988  12.743   8.743 -0.0592 -0.2318  0.1435
93447W        W36463  28.181  26.113  20.449  0.2319 -0.1290 -0.0459
93448W        W36464  29.973  17.095  19.208 -0.2655 -0.0277  0.0769
93449W        W36465  11.305  20.420  21.728  0.0662 -0.1694 -0.1732
93450W        W36466  31.201  26.665  21.662  0.1919 -0.0758 -0.0875
93451W        W36467  23.228  21.147  27.239 -0.0364  0.1958 -0.1019
93452W        W36468  21.257  26.156  14.791  0.1209  0.0419  0.0717
93453W        W36469  11.753  12.862  18.281  0.1669  0.2399  0.2428
93454W        W36470  10.132   6.307  14.698  0.0925 -0.1159 -0.1823
93455W        W36471  26.963   0.201  24.558  0.0324  0.1069  0.0567
93456W        W36472  20.182  29.222   5.939 -0.1002 -0.2737 -0.2730
93457W        W36473  27.211  25.956   4.445 -0.1186  0.1931 -0.2990
93458W        W36474   9.119  20.726  21.305  0.0988  0.0652  0.0033
93459W        W36475  24.719  28.498   6.697 -0.3542 -0.1618 -0.3640
93460W        W36476  12.129  15.786  21.915  0.2901  0.0825  0.4124
93461W        W36477  24.871   1.863  17.082 -0.1167 -0.0128  0.3277
93462W        W36478  17.136  23.920  18.135  0.1052  0.1778  0.1804
93463W        W36479  19.860  26.314   5.191 -0.1372 -0.0337 -0.0487
93464W        W36480   7.363  27.849  21.307  0.4344 -0.0881 -0.0955
93465W        W36481  14.476   0.826  19.178 -0.3532 -0.4813  0.1475
93466W        W36482  16.030  26.832  24.838  0.0076 -0.2209 -0.1259
93467W        W36483  31.241  21.716   9.581 -0.3641  0.0607 -0.1002
93468W        W36484  31.121  17.527   9.132  0.3289 -0.1583 -0.0115
93469W        W36485   5.569  26.641  16.271 -0.4881  0.0609  0.1837
93470W        W36486  19.532  22.472  14.980  0.1712 -0.0794 -0.2873
93471W        W36487  28.077  15.493  26.825  0.2384 -0.1607  0.2282
93472W        W36488  19.850  22.928  18.472  0.0259 -0.3035 -0.2249
93473W        W36489  13.751  25.799  14.891 -0.0341  0.0679 -0.3472
93474W        W36490  23.225  15.234  17.977 -0.3113  0.0586 -0.2010
93475W        W36491  25.686  11.019  17.482  0.2250  0.1426  0.2041
93476W        W36492  13.140  30.168   1.516  0.3201  0.2229  0.1825
93477W        W36493  18.324  10.723  26.889 -0.0640 -0.0365 -0.0649
93478W        W36494  31.077  16.961  16.176  0.1440  0.2267  0.1745
93479W        W36495  19.426  27.156  15.002  0.0028  0.2438 -0.1625
93480W        W36496  17.972   4.726  16.545 -0.1880  0.1751  0.0517
93481W        W36497  11.567   5.991  28.593  0.0844 -0.2278 -0.1694
93482W        W36498  19.551  30.998  17.140 -0.1301  0.2113  0.0652
93483W        W36499  33.198  21.519   3.662 -0.2528 -0.0691 -0.0421
93484W        W36500  15.505   2.194   7.605 -0.1156  0.0869 -0.0145
93485W        W36501   8.495  26.258  25.282 -0.0711 -0.0325 -0.0039
93486W        W36502  19.494  19.515  27.968 -0.1300 -0.1080  0.0870
93487W        W36503   9.494  22.377  14.893  0.3245 -0.0775 -0.0941
93488W        W36504   2.490  28.687  14.186  0.0954  0.2488 -0.1031
93489W        W36505  26.144  25.427   6.446  0.2020 -0.3349 -0.2712
93490W        W36506  24.576  16.221  22.154 -0.2606 -0.0214 -0.0097
93491W        W36507  14.531  31.312  19.444  0.2201  0.2249 -0.0172
93492W        W36508  17.572  16.263  19.688 -0.3267  0.0050  0.1052
93493W        W36509  26.907  33.245  21.823 -0.1265 -0.0023  0.4166
93494W        W36510  14.001  34.618   1.524 -0.2500  0.0756 -0.1487
93495W        W36511  28.727  26.133  15.293  0.0437  0.1592 -0.0629
93496W        W36512  34.184  17.085  26.722  0.0310 -0.1597 -0.0013
93497W        W36513   0.357  26.887   6.681  0.0500  0.3627  0.0162
93498W        W36514   1.286  33.919  28.091  0.2403  0.0012  0.2976
93499W        W36515  33.729  28.542  16.520  0.4334 -0.1281  0.0805
93500W        W36516  18.973  28.279   7.089 -0.2799  0.1803 -0.1983
93501W        W36517   7.510  21.079  21.639 -0.0418  0.0417  0.1015
93502W        W36518  21.079  33.266  23.729  0.3206  0.0805 -0.2801
93503W        W36519  15.616  11.753  24.784 -0.2215  0.1913  0.0403
93504W        W36520   6.781  22.984  18.455 -0.0364 -0.1892 -0.1699
93505W        W36521  20.707  26.803  19.585 -0.1003  0.1310  0.0419
93506W        W36522  28.401  25.537  18.672 -0.0750 -0.0829  0.0294
93507W        W36523  16.121  27.957   8.819  0.1379 -0.0940 -0.6030
93508W        W36524  24.639  18.035   8.188  0.1125 -0.2355 -0.1192
93509W        W36525  20.065   9.688  21.478  0.0686 -0.0398  0.0521
93510W        W36526  19.294  27.202   0.170 -0.0355  0.2148  0.0629
93511W        W36527  19.359   4.032   0.194 -0.2768  0.2563 -0.0555
93512W        W36528  25.529  32.544   3.770 -0.0954  0.0836  0.3255
93513W        W36529  29.178  34.398  28.427 -0.1151 -0.3154 -0.1234
93514W        W36530  12.974  29.276  26.158  0.1140  0.2059 -0.2133
93515W        W36531   0.111  15.513   9.426 -0.0186 -0.1502  0.0611
93516W        W36532  15.716  20.808  26.291  0.0258  0.1148 -0.1485
93517W        W36533  16.201  26.934   7.422 -0.2059 -0.0002  0.1841
93518W        W36534  26.843  29.490  11.334 -0.0375 -0.1961  0.2631
93519W        W36535  30.541  33.885   1.029  0.2326 -0.0263 -0.0897
93520W        W36536  13.465   0.313  14.498 -0.4017 -0.0929 -0.1742
93521W        W36537  12.538  13.983   1.837 -0.4270 -0.2260 -0.3327
93522W        W36538   8.107  24.717   0.296  0.0910 -0.3452  0.3334
93523W        W36539   8.637  21.659  25.902 -0.0979 -0.3408  0.2127
93524W        W36540  18.347  20.159   7.162 -0.2604  0.1065 -0.1744
93525W        W36541   8.266  32.296  17.700 -0.2270  0.0495  0.0836
93526W        W36542   6.590  28.024  21.398 -0.3018 -0.3172 -0.0790
93527W        W36543  18.239   2.575  15.320 -0.0208  0.0596  0.2010
93528W        W36544  16.177  18.188  15.929  0.0297 -0.1446 -0.1765
93529W        W36545  15.198  22.830  16.222 -0.0527 -0.0474  0.1975
93530W        W36546  31.248  24.508  17.405 -0.1052  0.3754  0.2168
93531W        W36547  10.578  20.809  14.591 -0.0164 -0.2446  0.0722
93532W        W36548   8.427  15.706  25.174  0.0007  0.0013 -0.0977
93533W        W36549   9.875  30.311  20.682  0.0165 -0.1324  0.1430
93534W        W36550  21.221  16.878  22.653 -0.2141  0.2667  0.0802
93535W        W36551  18.205  26.043   9.534  0.1538  0.0619 -0.1037
93536W        W36552   8.361   3.742   8.997 -0.0860  0.0166  0.1643
93537W        W36553  12.245  31.421  19.727 -0.0705  0.3462  0.2661
93538W        W36554  20.031  34.577  28.166 -0.0264 -0.0308  0.0158
93539W        W36555   4.649  30.692   4.357  0.0253 -0.3432  0.0237
93540W        W36556  12.017  28.524   0.357  0.3769  0.0869 -0.5367
93541W        W36557  27.259  21.281   0.420  0.0822  0.2387 -0.0975
93542W        W36558  28.453  29.771  23.833 -0.1906 -0.3000  0.0876
93543W        W36559  10.243  24.286   6.037  0.1100  0.0133 -0.1769
93544W        W36560   7.646  26.432  15.224 -0.1399 -0.0068 -0.0962
93545W        W36561  25.953  32.268  27.332  0.1002 -0.2464  0.1290
93546W        W36562   2.874  21.417  28.474  0.0387 -0.2365 -0.2145
93547W        W36563  18.185  30.625  21.747 -0.2645 -0.2901  0.1040
93548W        W36564  20.030  16.753  21.423  0.2540 -0.0383 -0.1256
93549W        W36565  22.105   5.413   3.626  0.0781  0.1556  0.0243
93550W        W36566  23.339   2.776  19.183  0.1087  0.2502 -0.2344
93551W        W36567   0.601  27.999  10.351 -0.1255  0.1894 -0.5050
93552W        W36568  11.880  33.858  23.627  0.0079 -0.2672 -0.2810
93553W        W36569  31.064  29.837  25.161 -0.1889 -0.0418 -0.2092
93554W        W36570   3.159  33.212  20.313  0.0458 -0.1954 -0.1353
93555W        W36571  20.503   3.862   5.055 -0.1562 -0.1382 -0.3692
93556W        W36572  15.974   4.231   3.065 -0.1583 -0.0743  0.1580
93557W        W36573  11.971  33.183   4.340  0.2358  0.0089 -0.4055
93558W        W36574  32.838  23.850  17.664  0.2673 -0.0346 -0.0140
93559W        W36575  10.275   2.217  26.638 -0.1764  0.0658  0.0445
93560W        W36576  18.176   0.682   5.599 -0.0694  0.1121  0.1185
93561W        W36577  26.999  29.891  21.947 -0.2722 -0.2049  0.0346
93562W        W36578   4.713  28.279  16.143  0.1610 -0.1677  0.0974
93563W        W36579  22.781  17.924   2.018 -0.0034 -0.0357  0.1430
93564W        W36580  13.088  13.197  15.607 -0.2022 -0.0356 -0.0496
93565W        W36581  14.061  20.665   5.137  0.0252  0.2112 -0.0767
93566W        W36582  21.387  17.193  21.191  0.3502 -0.2351  0.0119
93567W        W36583   7.352  22.470  29.105 -0.4435  0.0630 -0.2051
93568W        W36584  27.800  14.911  27.696 -0.1387 -0.2071  0.0699
93569W        W36585  31.693   1.970  24.263  0.0986 -0.0540  0.2313
93570W        W36586   0.956  30.543  24.206 -0.2517 -0.0270  0.0253
93571W        W36587  19.242  28.741   7.749  0.2441 -0.2259  0.0344
93572W        W36588  29.835  29.171   7.912  0.3218  0.2015  0.0044
93573W        W36589  17.610  26.835  15.831  0.1093  0.2008 -0.1116
93574W        W36590  10.433  20.701  22.568 -0.2885  0.3648 -0.1142
93575W        W36591  30.700  33.863   5.119 -0.0214 -0.1522 -0.2853
93576W        W36592  23.605  31.992  24.688 -0.0817 -0.2333  0.1446
93577W        W36593  13.319  26.985  26.351 -0.2104  0.1166  0.0877
93578W        W36594  27.523  27.661  21.899 -0.1655 -0.0622 -0.1846
93579W        W36595  10.595  23.042  12.383  0.1234  0.1104 -0.0493
93580W        W36596  21.299  30.101  24.784 -0.1066 -0.2254 -0.1611
93581W        W36597  21.556  27.854  25.245  0.2462  0.1460 -0.0215
93582W        W36598   3.078  26.372   1.882 -0.2172 -0.0375 -0.3107
93583W        W36599  24.651  11.477  28.204 -0.1718  0.1537  0.2176
93584W        W36600  24.587  14.902   5.471 -0.0065  0.0456  0.0134
93585W        W36601  17.930  30.352  10.991  0.1884 -0.0850 -0.0624
93586W        W36602   1.318  22.043  16.085  0.0102 -0.1394 -0.1610
93587W        W36603  10.518  27.975  19.500 -0.1689 -0.1587 -0.0309
93588W        W36604  27.732  25.122  24.748 -0.0677  0.0708 -0.0420
93589W        W36605  20.239  22.949  19.897  0.0724 -0.1107  0.2268
93590W        W36606  21.164  27.352  16.863 -0.0017  0.0307 -0.1326
93591W        W36607  30.422  18.369  24.116  0.2477  0.0014  0.0583
93592W        W36608  17.392  18.400  27.246  0.4927 -0.2738  0.1586
93593W        W36609  17.068  31.513  28.778  0.2473 -0.1047  0.0097
93594W        W36610  12.138   1.850  26.668  0.1089  0.3917 -0.1001
93595W        W36611  20.299  20.831  12.927 -0.1410 -0.2941  0.0611
93596W        W36612  23.737  26.417  28.858  0.1867  0.2065 -0.1574
93597W        W36613  12.027   3.559  14.620  0.0768  0.1021  0.0213
93598W        W36614  24.115   9.666   4.290 -0.2114 -0.0347  0.1775
93599W        W36615  23.474  28.899  24.337 -0.1132  0.1242  0.1106
93600W        W36616  10.566  19.466  20.723  0.2816 -0.1794  0.1753
93601W        W36617  15.742  26.353  17.101  0.5185  0.0287  0.0593
93602W        W36618  12.566  27.540  23.096  0.3330 -0.1437  0.0353
93603W        W36619  33.844  28.211  29.125 -0.0152  0.0020 -0.0996
93604W        W36620  15.603  16.343  19.898 -0.2221 -0.2122 -0.0824
93605W        W36621   2.630  31.621  17.119  0.0367 -0.1481  0.1261
93606W        W36622  20.174  25.236   2.149  0.0432 -0.0838 -0.1064
93607W        W36623  25.545  15.225  21.079 -0.0861 -0.0810 -0.4063
93608W        W36624  13.626   6.004   0.509 -0.2493  0.0365 -0.1695
93609W        W36625  13.448  19.263  28.025  0.0295  0.0772 -0.0385
93610W        W36626  20.729  19.509  18.089 -0.1452  0.1581 -0.0828
93611W        W36627  21.030  27.039  20.602 -0.1776 -0.2143  0.0900
93612W        W36628  25.362   0.495   2.030 -0.0389 -0.0166 -0.0175
93613W        W36629  13.972   1.965   2.164 -0.0390  0.1627 -0.0602
93614W        W36630  12.481  26.231  17.820 -0.0750 -0.2646 -0.0602
93615W        W36631  30.572   0.949   5.986  0.0134 -0.1040  0.0577
93616W        W36632  13.976  30.670  27.404 -0.3242 -0.0513 -0.0978
93617W        W36633  33.808  33.556  26.197 -0.0352 -0.0135 -0.1245
93618W        W36634  27.838  25.944   8.753  0.1499 -0.0256  0.1662
93619W        W36635  33.894  18.986   5.554 -0.0056  0.0261 -0.0420
93620W        W36636  13.489  26.780   2.086 -0.1872  0.3052 -0.5010
93621W        W36637  22.270  29.546  15.884 -0.2335  0.0619  0.0701
93622W        W36638  21.521  19.293  21.493 -0.0510 -0.2114  0.0506
93623W        W36639  33.135  19.789   2.748  0.2630 -0.1822  0.2476
93624W        W36640   7.163  28.183   5.938  0.0856 -0.0030  0.2231
93625W        W36641   3.801  18.373   7.379  0.2331 -0.1105 -0.2740
93626W        W36642   9.259  24.044  24.696 -0.1165  0.2922 -0.0941
93627W        W36643  22.481  27.536   2.521 -0.0066  0.1059  0.1929
93628W        W36644   3.701  20.441  15.826  0.5342 -0.2171 -0.1639
93629W        W36645  17.572  23.014  21.821 -0.2280 -0.2392 -0.1302
93630W        W36646  22.803   4.965   3.472 -0.0697 -0.1471 -0.1047
93631W        W36647  18.484  30.307   1.878 -0.2171  0.1118 -0.1463
93632W        W36648  17.199  17.221  19.716  0.0252  0.0229 -0.0972
93633W        W36649  31.733  18.900  20.351  0.0244  0.0095 -0.1044
93634W        W36650  21.548  14.477  16.595 -0.3193 -0.1498  0.2318
93635W        W36651  15.180  21.767  19.446  0.1162  0.0206  0.0520
93636W        W36652  21.492  20.005  18.033 -0.2054 -0.0935 -0.0464
93637W        W36653  31.419  14.889  19.408 -0.5734  0.2700  0.2080
93638W        W36654  27.891  17.145  21.063  0.0420 -0.0257  0.2836
93639W        W36655  16.646  23.121  16.326  0.1116 -0.0532 -0.2546
93640W        W36656   0.823  34.280  24.438  0.0298 -0.0285 -0.1564
93641W        W36657  14.811   8.334  28.032  0.3008 -0.1843 -0.0026
93642W        W36658  26.281  26.534   2.978 -0.0986 -0.1038  0.2723
93643W        W36659  26.951  18.481  28.121 -0.0746  0.0308  0.1736
93644W        W36660  22.205  21.205  14.243  0.2072  0.1521  0.1452
93645W        W36661  20.796  32.358   8.318 -0.0040  0.1261  0.2673
93646W        W36662  12.844  23.819  23.498  0.0418  0.1387 -0.0915
93647W        W36663  20.102   1.347  15.029  0.0329  0.3788  0.0577
93648W        W36664   6.600  16.511   1.629 -0.3197  0.0955  0.2552
93649W        W36665  13.380  22.657  18.122 -0.1226  0.1283 -0.3518
93650W        W36666  19.425  22.437  24.244 -0.3238 -0.1482  0.0582
93651W        W36667   0.656   1.972  26.509 -0.5056  0.2175 -0.0536
93652W        W36668  14.086  29.078  20.806  0.1025 -0.0070 -0.4480
93653W        W36669  29.420  33.582  18.138  0.1095 -0.2430 -0.0054
93654W        W36670   0.402  15.996   5.705 -0.0290  0.0739  0.1696
93655W        W36671  30.687  30.965  19.768  0.2166  0.3713 -0.0298
93656W        W36672  21.059   6.309  14.934 -0.0841 -0.0442  0.1078
93657W        W36673  11.825  25.816  23.857 -0.0113  0.1074  0.2977
93658W        W36674  32.264  25.803   3.061 -0.1459 -0.0242  0.1203
93659W        W36675  24.537   8.516  20.232 -0.2195  0.0398  0.0368
93660W        W36676  22.478   8.485  19.708 -0.2241 -0.0823  0.0300
93661W        W36677  33.508   7.043   5.986 -0.1060 -0.0045 -0.1944
93662W        W36678  34.349  10.304  11.064 -0.0667 -0.2973  0.2503
93663W        W36679  29.819  26.126  25.877  0.0316 -0.0515  0.0562
93664W        W36680   0.878  20.230  22.515  0.2725 -0.1284 -0.1561
93665W        W36681   7.500  28.702   9.154  0.0503  0.1073  0.0911
93666W        W36682   1.943  15.155  24.114  0.0254 -0.0586 -0.1622
93667W        W36683   3.848  19.898  20.045  0.0801 -0.1441 -0.0068
93668W        W36684  10.411  32.241   1.379 -0.0603 -0.2607  0.0689
93669W        W36685  16.737  17.276  24.733 -0.0084  0.0312  0.0044
93670W        W36686   2.114  22.103  21.524  0.0151  0.0726  0.0942
93671W        W36687   4.958  30.551  10.445  0.1703  0.2431  0.4697
93672W        W36688  14.626  20.135  20.154 -0.1358 -0.0789  0.0475
93673W        W36689  20.800   5.223   6.477 -0.4288 -0.2105 -0.0144
93674W        W36690  24.419  27.764   7.958 -0.0139  0.4902 -0.0038
93675W        W36691  12.298  15.224  12.723  0.0084 -0.5572  0.3459
93676W        W36692   6.865  26.689  28.429 -0.0802 -0.1483 -0.2392
93677W        W36693  31.882  25.144  19.860  0.1638  0.1231  0.0641
93678W        W36694  20.481  28.060   4.077 -0.1271  0.0800  0.0572
93679W        W36695  12.123  21.257  20.544 -0.0233  0.3995  0.0356
93680W        W36696  14.808  22.370   5.913  0.0112 -0.0424 -0.0751
93681W        W36697  22.196  24.707  21.583  0.0117 -0.1785  0.2831
93682W        W36698  20.102  22.689  26.061 -0.2954  0.1655  0.5089
93683W        W36699  13.966  25.267   1.327  0.0288  0.1161 -0.0128
93684W        W36700  22.233  32.624  24.197  0.2667 -0.0660  0.5017
93685W        W36701  32.344  25.671  24.437  0.3191 -0.0653  0.0515
93686W        W36702  26.592   0.313   2.993  0.1764  0.2167 -0.1560
93687W        W36703   1.664  24.949  26.633 -0.1783  0.0280 -0.0498
93688W        W36704  14.495  32.738  16.704  0.1165 -0.3979  0.0944
93689W        W36705  34.079  31.231   3.901  0.0573 -0.0330  0.0055
93690W        W36706  32.330  26.974   1.003  0.2528  0.5351 -0.0391
93691W        W36707  31.991  32.276  19.493  0.1100 -0.1151  0.0731
93692W        W36708   2.780  18.298  15.053  0.3177  0.0734  0.0317
93693W        W36709   1.562  25.504   1.971 -0.2728 -0.2753 -0.1877
93694W        W36710  21.804  24.276  23.856  0.1355 -0.1838  0.1805
93695W        W36711  28.856   1.881  26.959 -0.0280  0.1536  0.2960
93696W        W36712  18.349  24.382  24.002  0.0141 -0.2533  0.6426
93697W        W36713  28.068  24.004   5.110  0.0304 -0.3933  0.0740
93698W        W36714  27.629  30.201  19.054 -0.0225 -0.1724  0.1416
93699W        W36715   1.361  30.175  23.848 -0.1203 -0.2144 -0.1921
93700W        W36716  22.717  21.861  25.521  0.0818  0.2056  0.3585
93701W        W36717  33.806  32.319  17.451  0.2263 -0.0358 -0.1737
93702W        W36718  23.502  30.499  17.104 -0.2893  0.2454  0.1000
93703W        W36719  28.337   7.384  23.742  0.0721  0.0105  0.0869
93704W        W36720  15.925  19.282  21.245 -0.1821 -0.0189  0.0308
93705W        W36721  10.298  25.146   6.545 -0.1897  0.1046  0.2098
93706W        W36722   2.440  12.924  23.396 -0.1706 -0.4020  0.2331
93707W        W36723  27.300  24.175  26.726  0.1307 -0.1695  0.1007
93708W        W36724   9.653  31.844  25.199  0.0298  0.0783 -0.1770
93709W        W36725  20.490  28.340  21.009 -0.0659 -0.0549  0.2180
93710W        W36726  20.799  26.554   6.335 -0.0162 -0.1206  0.2363
93711W        W36727  19.806  13.440  29.076 -0.1834  0.2324  0.0645
93712W        W36728   6.502  22.487  19.444 -0.3038  0.2616 -0.2960
93713W        W36729  10.853  31.232  17.702  0.0701  0.0971  0.4102
93714W        W36730   0.619   8.577   0.211 -0.0761 -0.1918 -0.2921
93715W        W36731   5.094  26.302  26.764 -0.2046 -0.2105  0.1064
93716W        W36732  20.151  32.619  22.689  0.0723 -0.2087 -0.0009
93717W        W36733  28.545   3.470  22.180 -0.0829  0.0030 -0.1274
93718W        W36734  32.891  18.014  26.734  0.0647 -0.0979  0.3162
93719W        W36735   9.526  25.727   3.393 -0.1323 -0.2294  0.2824
93720W        W36736  20.321  22.217  21.818 -0.2637 -0.0512  0.1742
93721W        W36737  12.633  16.619  21.935 -0.2419  0.0058  0.3104
93722W        W36738   3.527  16.322   9.076  0.0315 -0.1309  0.0324
93723W        W36739   4.477  24.446  25.689  0.0705  0.2567 -0.5792
93724W        W36740   0.679  28.102  16.995 -0.1417  0.0338 -0.3479
93725W        W36741  21.349  20.394  26.191  0.1100  0.1885 -0.1717
93726W        W36742   1.524  33.918   4.628 -0.0671  0.1832 -0.0052
93727W        W36743  20.933   2.685  19.534 -0.2605 -0.0735 -0.0749
93728W        W36744  18.158  29.322   2.801  0.1482 -0.2392 -0.0603
93729W        W36745  21.035  20.813  21.664 -0.0716 -0.1158  0.0414
93730W        W36746  14.609  27.627   7.893 -0.2324  0.0400 -0.1159
93731W        W36747  18.797   6.515  28.079  0.1464  0.3854  0.1219
93732W        W36748  30.278  22.985   2.055 -0.2129  0.0064 -0.0644
93733W        W36749  20.972  14.359  13.059  0.0624 -0.1716  0.0124
93734W        W36750  16.113  17.359  12.863  0.0833  0.0267 -0.0074
93735W        W36751  20.693  17.825  26.346 -0.0690  0.1068 -0.1866
93736W        W36752   5.961  31.052  25.603  0.1325 -0.1544 -0.1358
93737W        W36753  12.665  32.442  18.715  0.0454  0.2553 -0.1775
93738W        W36754  26.936   1.782  27.264 -0.1610  0.0035 -0.1335
93739W        W36755   3.986   8.863   9.322 -0.2219 -0.0975 -0.0663
93740W        W36756  23.595  17.453  24.229  0.1628  0.2992 -0.3494
93741W        W36757  14.275  16.317  24.381 -0.2182  0.0059 -0.1087
93742W        W36758  15.485  19.652  20.321  0.0975 -0.0088 -0.0289
93743W        W36759  14.184  11.666  27.028 -0.1895  0.1072  0.0448
93744W        W36760  22.239   1.495  21.470 -0.3318 -0.1906  0.0372
93745W        W36761   8.533  24.772   1.579  0.0600 -0.0576  0.0523
93746W        W36762  29.790  29.986   7.326  0.1085 -0.2323 -0.1552
93747W        W36763  12.575  21.259   3.340  0.2377 -0.1325 -0.0900
93748W        W36764  23.084  22.679  25.749  0.3385  0.3186  0.1803
93749W        W36765  25.494  28.547   3.339 -0.1592 -0.1410 -0.2862
93750W        W36766  30.296  32.039   7.656  0.1385 -0.0748  0.3205
93751W        W36767   4.009  12.677  14.279  0.0435  0.2021 -0.1821
93752W        W36768  27.186  14.157  23.699 -0.0506 -0.1797  0.2506
93753W        W36769   5.579  22.493   3.382  0.1544 -0.1940 -0.0174
93754W        W36770  15.364  26.079  20.017 -0.0244 -0.0658  0.0422
93755W        W36771  27.861  24.752  26.587 -0.0430  0.2203  0.0388
93756W        W36772  17.500  33.805   7.719  0.0179 -0.1964  0.2659
93757W        W36773   7.363  19.983  21.847 -0.0238  0.0519  0.1743
93758W        W36774   2.726  17.128  26.246 -0.3510 -0.0174 -0.1613
93759W        W36775  26.623  23.098   3.039 -0.0578  0.1345  0.0770
93760W        W36776  19.472  20.806  26.566 -0.1143 -0.1577  0.0013
93761W        W36777   3.210  27.579   4.762 -0.2008  0.0411  0.2950
93762W        W36778  16.434  25.087  19.355 -0.0535 -0.0913  0.0938
93763W        W36779  27.728   0.038   0.244  0.2090 -0.1549 -0.2846
93764W        W36780  19.336  12.408   4.821 -0.0606 -0.2306 -0.3563
93765W        W36781  16.892  17.173  21.383  0.3575 -0.0028  0.2260
93766W        W36782  17.711  17.323  26.814  0.2836  0.2197  0.0033
93767W        W36783  21.497  19.511  25.439  0.0239  0.2240 -0.1065
93768W        W36784  13.081  31.174   1.209  0.0458 -0.1731  0.4119
93769W        W36785  17.243   9.716   7.282  0.2132  0.1259 -0.0450
93770W        W36786  25.903  30.202   8.821 -0.0653  0.0743 -0.1507
93771W        W36787  19.570  18.241   1.849 -0.1614 -0.1407 -0.1699
93772W        W36788  31.908  28.449  16.104  0.1878  0.1521 -0.0601
93773W        W36789  11.777  10.721  27.288  0.2541 -0.3082 -0.1674
93774W        W36790  13.915   3.563  14.330  0.0835 -0.2912  0.0924
93775W        W36791  18.186  27.443  19.192  0.1008  0.0423 -0.2213
93776W        W36792   1.691  19.816  16.747 -0.2428 -0.2229  0.0508
93777W        W36793  16.015  33.470  23.598  0.0100  0.2193 -0.0447
93778W        W36794  10.257  31.392   9.046  0.2009 -0.2633  0.1788
93779W        W36795   9.832  21.652  27.261 -0.0160 -0.0551 -0.2161
93780W        W36796   8.117  18.070  23.515 -0.0369 -0.1434  0.0129
93781W        W36797  14.262  22.562  19.143  0.1319 -0.1916  0.0768
93782W        W36798  18.708  17.830   2.060 -0.2417 -0.1658  0.3123
93783W        W36799  12.479  27.864   6.626  0.0526  0.1585  0.1193
93784W        W36800  20.365  19.545  23.031  0.1184 -0.2421  0.1463
93785W        W36801  33.899  22.128   9.615  0.2081  0.0120 -0.0127
93786W        W36802  30.148  16.875  26.500 -0.1095  0.2281  0.0480
93787W        W36803  19.514  14.260   6.225 -0.1675  0.0050 -0.0354
93788W        W36804  25.994  18.320  22.804 -0.2594 -0.2859  0.0612
93789W        W36805  26.218  27.054  25.359 -0.0517  0.0769  0.0360
93790W        W36806  10.369  22.659   6.119  0.1961  0.1562  0.1178
93791W        W36807  11.488  30.727  20.239  0.0015 -0.1161  0.1344
93792W        W36808  20.903  10.951  19.794  0.1899 -0.2659  0.0745
93793W        W36809   9.711   0.010  15.536 -0.0556  0.4249 -0.3547
93794W        W36810  30.159  28.822   7.067  0.0782 -0.0144  0.0105
93795W        W36811  28.822  30.861   5.587 -0.1090 -0.5909 -0.1087
93796W        W36812   4.281  29.526  21.938  0.1590  0.1005 -0.2002
93797W        W36813  22.264  24.392  19.434 -0.1801  0.0858 -0.1521
93798W        W36814  16.967   0.615   3.428  0.1944  0.1370  0.1651
93799W        W36815  20.694  28.650  15.312 -0.4107 -0.2554 -0.1207
93800W        W36816  18.916   4.690  25.801  0.1642  0.0312 -0.1269
93801W        W36817  27.160  13.778   6.237  0.3646 -0.1781  0.4697
93802W        W36818  14.773   1.139   1.010 -0.1981 -0.0135  0.1097
93803W        W36819  17.292   9.708   6.448  0.3890  0.0856  0.1230
93804W        W36820   3.534   6.711  25.969 -0.0106  0.3372 -0.1630
93805W        W36821   6.545  27.751  28.757 -0.1642  0.1764 -0.2849
93806W        W36822  28.461  22.459  10.674  0.0929 -0.0036  0.3538
93807W        W36823  26.571   0.185  10.371  0.0638 -0.1594  0.4618
93808W        W36824   7.709  14.182   3.991 -0.3012  0.1047  0.0992
93809W        W36825   8.526  31.242  19.198  0.3208  0.0958  0.2198
93810W        W36826  15.970  33.488  26.216 -0.0398  0.4388  0.1467
93811W        W36827   6.586  10.829   9.449 -0.1012  0.1428 -0.0489
93812W        W36828  29.858  22.052   1.663 -0.3559  0.2429  0.3106
93813W        W36829  15.218  13.921   6.030 -0.0737  0.1502 -0.1889
93814W        W36830  16.950   8.274  21.692 -0.2570  0.0177  0.1528
93815W        W36831  29.396  14.463   1.473  0.1760  0.4315  0.1948
93816W        W36832   7.119  10.050  27.727  0.0219  0.1471 -0.0605
93817W        W36833  13.640  16.601  20.113 -0.1669 -0.2939 -0.2438
93818W        W36834   1.651  31.261   6.419  0.1343  0.4394  0.0739
93819W        W36835   7.347   0.889  14.576  0.0507  0.2144 -0.0676
93820W        W36836  15.250   3.894  15.921  0.4986  0.2246  0.0287
93821W        W36837   5.697   4.347   0.079 -0.0213 -0.0192 -0.0280
93822W        W36838  23.021  26.782   0.586 -0.1479 -0.1656  0.0282
93823W        W36839  17.394   1.032   5.124  0.1645 -0.1549 -0.0792
93824W        W36840  27.839  23.225   0.072  0.2291 -0.2280  0.1454
93825W        W36841  27.094  25.260  28.090 -0.3281 -0.0304 -0.0383
93826W        W36842  14.938  33.766   0.937 -0.0086 -0.2823  0.1637
93827W        W36843  15.515  31.291  28.557 -0.0740 -0.0341  0.0226
93828W        W36844  30.850  28.472  25.043  0.3820 -0.0525 -0.3844
93829W        W36845  14.324  21.415   3.785 -0.0652 -0.1073 -0.1582
93830W        W36846  31.250  17.259   7.388  0.2074  0.1223  0.1460
93831W        W36847  25.132  25.416  19.124 -0.1566  0.3202  0.1269
93832W        W36848  17.461  15.944   4.722  0.1133  0.1884  0.3144
93833W        W36849  25.515  16.085  27.047 -0.2691 -0.1578 -0.0394
93834W        W36850  21.923  24.497   4.739 -0.1233 -0.0164 -0.1087
93835W        W36851  31.187  30.147   8.479  0.0344 -0.2996 -0.1121
93836W        W36852  28.767  28.043   2.756  0.1002  0.0039 -0.1997
93837W        W36853  25.093  32.543  28.253 -0.0147 -0.3165 -0.0408
93838W        W36854  11.929  27.005  16.324  0.0573 -0.0412 -0.0759
93839W        W36855   8.007  18.943  17.752 -0.0846  0.4131 -0.0475
93840W        W36856  22.189  29.160  14.940  0.1563 -0.0809  0.0013
93841W        W36857  18.348  27.753   2.848 -0.0024 -0.3205 -0.1165
93842W        W36858  34.041  22.290   2.446 -0.1131  0.0752  0.1279
93843W        W36859  21.005  21.316  25.216 -0.2068 -0.1334 -0.1464
93844W        W36860  22.512  33.243  18.049  0.1150 -0.3260 -0.1071
93845W        W36861   0.593   7.299  26.785 -0.2130 -0.0613  0.0057
93846W        W36862  27.523  17.684  14.268  0.2923 -0.1615 -0.0365
93847W        W36863  11.862   8.504   0.501 -0.0474  0.1879  0.0671
93848W        W36864  22.707  21.853   1.808 -0.0145  0.0696  0.0732
93849W        W36865  23.046  28.923  22.539  0.0087  0.0333  0.0327
93850W        W36866  22.583  20.981  20.536  0.1996 -0.0885  0.2367
93851W        W36867  30.979  21.212   9.546 -0.1891  0.0883  0.0401
93852W        W36868  27.508  28.125  28.936 -0.0463 -0.0984 -0.1808
93853W        W36869  19.231  23.892   0.954  0.0735  0.2935  0.1212
93854W        W36870  18.535   5.126  27.848  0.2244  0.2972 -0.3391
93855W        W36871  18.667  19.456  14.015  0.1657 -0.1151 -0.2966
93856W        W36872  28.202  14.892   4.868  0.1127  0.3674 -0.3750
93857W        W36873   1.021  20.517  26.758 -0.2758  0.1067 -0.3965
93858W        W36874  23.234  26.029  19.078 -0.0499  0.2036  0.0596
93859W        W36875   4.840  17.153  22.611  0.2116  0.0087  0.1414
93860W        W36876  18.945  23.711  15.263  0.0743  0.1062 -0.0100
93861W        W36877  24.418  16.562  17.894  0.0252  0.1055 -0.0754
93862W        W36878  24.873   3.914  21.488  0.1157  0.2800 -0.1994
93863W        W36879  23.307  30.260  25.378  0.0222  0.1674 -0.1548
93864W        W36880   7.074  34.349   8.102  0.0061  0.3623  0.1637
93865W        W36881  30.490  26.893  18.914 -0.0475 -0.1574  0.0412
93866W        W36882  13.269  21.123  26.701 -0.0750  0.0648  0.2492
93867W        W36883  33.419  17.121   1.102  0.0205  0.2893  0.4666
93868W        W36884  10.505   6.092  21.656 -0.0510 -0.1341  0.0112
93869W        W36885   1.851   2.699   5.352  0.4263  0.0313  0.2607
93870W        W36886  16.732  16.224   7.467  0.2921  0.4684 -0.0060
93871W        W36887  27.313  22.075  22.302 -0.1075  0.0016 -0.0572
93872W        W36888   5.858  31.422  23.396 -0.2659 -0.0391  0.0303
93873W        W36889  33.214  12.622  19.727  0.1450 -0.1060  0.2753
93874W        W36890  24.421  24.749  26.447 -0.1209 -0.3359 -0.1397
93875W        W36891   9.619  16.126   2.117 -0.2698 -0.0510  0.3121
93876W        W36892  20.189  11.568   3.773 -0.0848  0.3150  0.0036
93877W        W36893  23.484  27.998  15.705 -0.0721 -0.0772  0.4981
93878W        W36894  18.656   5.778   3.431  0.1010 -0.2873 -0.0956
93879W        W36895  15.692  26.859  20.955 -0.3676 -0.0801  0.4379
93880W        W36896  11.045  16.226   1.270  0.1973  0.0369  0.1133
93881W        W36897  22.211  19.079   8.258 -0.1819  0.0244 -0.0775
93882W        W36898   5.015  27.192  16.775  0.2024  0.2837  0.1149
93883W        W36899  15.662  32.620   5.299  0.1821 -0.1432  0.0846
93884W        W36900  15.308  32.659  11.309 -0.0484 -0.1103 -0.0712
93885W        W36901   0.151  24.409   1.332  0.2194 -0.1411  0.1132
93886W        W36902  19.132  32.843  28.386  0.3139  0.0383 -0.0129
93887W        W36903   3.790  24.986  21.786  0.3472  0.1649 -0.0571
93888W        W36904  20.995  26.891   1.777  0.0979  0.1530 -0.0202
93889W        W36905  30.749  16.014  25.042  0.1651 -0.2021 -0.0104
93890W        W36906  31.897   7.113   3.126 -0.1821  0.2313 -0.2837
93891W        W36907  21.061   0.639   8.187 -0.4463  0.0562 -0.0281
93892W        W36908  21.426  21.985  18.309 -0.0058  0.1086  0.3703
93893W        W36909  17.770  24.634   0.457 -0.0350  0.2367  0.0201
93894W        W36910  23.131  17.436  17.647 -0.0906  0.1314  0.0808
93895W        W36911   2.506  30.661  26.949  0.1129  0.0100  0.2705
93896W        W36912  16.586  24.000  17.915 -0.0426  0.1606 -0.3160
93897W        W36913  12.555  22.623  15.551  0.2506  0.3534  0.0535
93898W        W36914   9.251  21.264  19.402 -0.4047 -0.0826  0.0700
93899W        W36915  20.934   4.820   5.904 -0.2789 -0.0934 -0.1758
93900W        W36916  16.744  30.090   1.249  0.1815  0.2726 -0.0280
93901W        W36917  17.658   1.207   7.858 -0.4596 -0.1575 -0.0129
93902W        W36918  34.687  18.820   7.308  0.0076  0.2437  0.1746
93903W        W36919  23.232  11.348   5.734  0.0189 -0.0723  0.2307
93904W        W36920  11.168  17.107   4.322 -0.1558  0.1998 -0.1830
93905W        W36921  16.381  19.638   1.446 -0.3112  0.1298  0.2300
93906W        W36922  23.096  22.740  29.188 -0.3422  0.0406 -0.0914
93907W        W36923   7.430   1.001  28.107 -0.0757  0.1417  0.0022
93908W        W36924   6.074  25.260  15.518  0.2081 -0.1474 -0.0386
93909W        W36925   2.115  21.120  27.106  0.3084 -0.3946 -0.0701
93910W        W36926  23.432  30.527  17.959  0.1827 -0.0276  0.1082
93911W        W36927  10.040  24.387   5.374 -0.2946  0.0032 -0.3032
93912W        W36928  19.282  18.856   6.208  0.0531  0.1879 -0.1944
93913W        W36929  16.747  31.253  20.871  0.3681 -0.0231  0.1224
93914W        W36930  18.930  33.475   0.263  0.2665  0.2140  0.0968
93915W        W36931  10.423  22.583   7.729  0.0807 -0.0311 -0.0515
93916W        W36932  17.333  13.230   8.045 -0.3013 -0.4068  0.1247
93917W        W36933  22.588  27.969  22.305 -0.2235  0.0861 -0.2120
93918W        W36934  16.751  21.341  12.351 -0.0148 -0.1333  0.3370
93919W        W36935  23.602  20.605  26.001  0.4210 -0.2186 -0.4476
93920W        W36936  28.643  25.578   5.666  0.0451  0.3521  0.1577
93921W        W36937  28.077   6.200  25.910 -0.2803  0.1146  0.3222
93922W        W36938  15.082   4.406   9.642  0.0624 -0.0192  0.2169
93923W        W36939   7.694  28.647   3.932  0.1502 -0.2245 -0.2678
93924W        W36940  31.594  17.021  22.636  0.1051 -0.1738 -0.2162
93925W        W36941  34.250  10.432  15.152 -0.1114  0.0159  0.3461
93926W        W36942  23.190  12.255   3.250 -0.2105 -0.2154 -0.2820
93927W        W36943   4.669  10.538   4.191  0.1187 -0.4248  0.1238
93928W        W36944  19.532  30.744   4.785 -0.2603 -0.3513 -0.2084
93929W        W36945  23.830   2.386  20.183  0.0444  0.0504 -0.1285
93930W        W36946  34.021   1.005  22.810  0.1216 -0.1143  0.5011
93931W        W36947   6.428  10.669  19.315 -0.2015 -0.1221 -0.2419
93932W        W36948  33.282   1.669   7.265  0.0891  0.0353  0.2731
93933W        W36949  12.757  29.947  19.998 -0.1811 -0.3214 -0.1067
93934W        W36950  29.606  16.479   5.985 -0.3022  0.2663  0.2012
93935W        W36951  31.063  16.094  21.315  0.0678 -0.0508 -0.0580
93936W        W36952  20.158  21.687   7.986  0.0640  0.3818 -0.4538
93937W        W36953  20.012  29.375  23.063  0.1156 -0.1468 -0.0480
93938W        W36954  12.883  12.931   8.176 -0.0226  0.0810  0.1409
93939W        W36955   0.939  34.694   7.922 -0.2216  0.4427  0.0579
93940W        W36956  29.057   2.489  16.836 -0.1845 -0.0642  0.2415
93941W        W36957  21.414   1.959   0.892  0.1301 -0.0708 -0.3511
93942W        W36958  11.043  33.822  19.317  0.0007  0.0497 -0.2883
93943W        W36959  25.798  23.355   0.820  0.1884  0.2648  0.3507
93944W        W36960  16.021  26.165   7.628 -0.1263  0.3110  0.2567
93945W        W36961  19.760  32.389   3.136 -0.4942 -0.0806 -0.3591
93946W        W36962  15.516  24.145  14.966 -0.1117  0.4447  0.1182
93947W        W36963  22.737  22.232  23.303 -0.0475  0.2428  0.2980
93948W        W36964  24.641  14.195  25.685  0.0291 -0.0824 -0.2875
93949W        W36965  33.731  23.794   1.034 -0.0523  0.0096  0.3453
93950W        W36966  22.749  12.592  16.159 -0.0219 -0.0223  0.0554
93951W        W36967  29.250  24.633  29.307 -0.1153  0.1550 -0.0861
93952W        W36968  15.588   3.219   1.217  0.1855 -0.1316 -0.1239
93953W        W36969  29.428  27.786  18.620  0.3159  0.4097  0.1030
93954W        W36970  16.795  16.736   6.100  0.0681 -0.1097 -0.4714
93955W        W36971  18.573  31.891  17.757  0.3291 -0.2292  0.0814
93956W        W36972  13.527  22.361   1.491 -0.2331  0.1084  0.0142
93957W        W36973  23.908   2.477   7.554 -0.0580 -0.1161  0.1899
93958W        W36974  14.410  20.806  26.258  0.2161  0.1015 -0.1043
93959W        W36975  15.338   8.373  20.745  0.2572  0.3786  0.0889
93960W        W36976   9.568  30.057   6.508  0.2821  0.3057 -0.0946
93961W        W36977  27.580  27.310  29.179 -0.1338  0.3350  0.2945
93962W        W36978  24.814  22.351   4.713  0.1161  0.2821 -0.1889
93963W        W36979  11.169  22.554  19.187 -0.2774  0.3301 -0.0260
93964W        W36980  21.696  25.406  29.194  0.0815 -0.2063  0.1265
93965W        W36981  18.981  30.124   3.045  0.2986 -0.2507 -0.4960
93966W        W36982  11.246  19.610   6.027  0.1550 -0.1806  0.0539
93967W        W36983  20.655  17.802  12.871  0.0118 -0.2962  0.2661
93968W        W36984  23.686   3.616  10.404 -0.2446 -0.0029 -0.1965
93969W        W36985  16.228  26.874  20.299  0.4085 -0.0588 -0.1663
93970W        W36986  14.636  31.367   0.031  0.0340 -0.3187 -0.1681
93971W        W36987  26.913   8.798  29.255 -0.0463 -0.0018 -0.1072
93972W        W36988   4.258  25.949  18.049 -0.0431  0.3464  0.2620
93973W        W36989  20.574  30.743  14.590  0.0510  0.2492 -0.2577
93974W        W36990  15.926  15.257   0.072  0.1471 -0.2129  0.2429
93975W        W36991  26.965  25.946   1.550  0.3929  0.1428  0.0081
93976W        W36992  17.072  20.884  23.962  0.2006 -0.0873  0.0815
93977W        W36993  14.140  30.351  20.120  0.3436  0.3175 -0.2595
93978W        W36994   3.342  26.094   8.204 -0.1029  0.2590  0.3199
93979W        W36995   8.099  34.552  25.960  0.2868 -0.1958  0.0923
93980W        W36996   3.571  21.339  26.863 -0.1243  0.1405 -0.0325
93981W        W36997  11.602  22.472   7.534 -0.1247 -0.3310  0.2248
93982W        W36998  27.238  34.578  16.587 -0.2111  0.2278  0.1959
93983W        W36999  11.821  28.963  29.198  0.1723 -0.1013 -0.2556
93984W        W37000   6.825  19.644  27.711  0.0998  0.1738  0.0830
93985W        W37001  21.121  29.850   7.829 -0.0173  0.2295 -0.1991
93986W        W37002  22.869  26.218   1.800  0.0484  0.0237  0.1105
93987W        W37003  19.754  30.183  25.371 -0.3648  0.3278 -0.1991
93988W        W37004  25.840  10.142   1.353  0.1548 -0.1134  0.1135
93989W        W37005  29.166  21.042   4.830 -0.0682  0.2038  0.2131
93990W        W37006  24.549  18.085   8.752  0.1643  0.2469 -0.0571
93991W        W37007  29.792  25.517   0.017  0.3424  0.0921  0.0870
93992W        W37008   3.842  25.858  28.078 -0.0420  0.2979  0.0604
93993W        W37009  27.005   8.842  28.236 -0.1086  0.2474  0.2664
93994W        W37010  26.163  12.936  21.969 -0.2618 -0.0413  0.0911
93995W        W37011  25.724  30.434   6.866 -0.0122  0.1147 -0.1024
93996W        W37012  30.976  28.709  25.745 -0.0512 -0.0628  0.1429
93997W        W37013  20.307  34.639  17.304  0.0259  0.2416  0.4080
93998W        W37014  21.758  31.041  17.874 -0.0548  0.0574 -0.0288
93999W        W37015  32.754  29.780  20.640 -0.1075 -0.3101 -0.0553
94000W        W37016   3.928  21.429  15.783  0.1213  0.0030 -0.2657
94001W        W37017  13.466  33.203  10.495 -0.0558 -0.1035 -0.0121
94002W        W37018  25.593  31.410  25.479 -0.0719  0.2329  0.1243
94003W        W37019  13.906  27.576  15.043  0.1172 -0.3723  0.4100
94004W        W37020  13.910  24.725  26.756 -0.2692  0.2373 -0.1177
94005W        W37021  12.202   5.710   1.977 -0.0061 -0.0847 -0.0197
94006W        W37022  17.480  25.609  21.238  0.3386  0.0645  0.4090
94007W        W37023  13.825  32.552  19.707 -0.3302 -0.0015 -0.0419
94008W        W37024  10.599  19.565   3.733 -0.0276 -0.0829 -0.2004
94009W        W37025  10.522  34.529  28.238  0.2260  0.1900 -0.1811
94010W        W37026  33.510  21.253   9.668 -0.0109  0.0113  0.0580
94011W        W37027  21.026  18.778   3.353 -0.1848 -0.2739  0.0918
94012W        W37028   6.602  17.190  19.712  0.1217  0.0098 -0.0198
94013W        W37029  27.912   7.708   0.671 -0.0932  0.1965  0.0985
94014W        W37030  22.303  16.652  23.178  0.0111 -0.0467  0.2675
94015W        W37031  34.733  32.128  27.265 -0.0980 -0.1506  0.0637
94016W        W37032  18.450  24.216  26.310 -0.3514 -0.0973  0.1184
94017W        W37033  10.122  14.524   3.261 -0.0393  0.0763  0.0645
94018W        W37034  19.218   5.897   5.323 -0.2591 -0.3526  0.2198
94019W        W37035  19.445  29.388   6.536 -0.0734 -0.0147 -0.2832
94020W        W37036  19.862  11.188  22.572  0.0939 -0.4694  0.1549
94021W        W37037  19.218  24.600   6.469 -0.1565  0.0397 -0.2505
94022W        W37038  13.437  24.356  27.604 -0.1472 -0.2732 -0.1247
94023W        W37039  23.437  22.428  28.660 -0.0059 -0.1704 -0.0578
94024W        W37040  33.534  19.314  17.294  0.0541  0.2598 -0.3069
94025W        W37041  14.607  31.336   2.179 -0.1769 -0.4517  0.2218
94026W        W37042  12.492  23.366   5.357 -0.2085  0.3688 -0.0905
94027W        W37043  30.277  19.322  15.872 -0.4494 -0.0342 -0.3325
94028W        W37044   4.200  28.168  26.010 -0.1741  0.1741  0.2276
94029W        W37045   7.341  16.164   4.546  0.1769 -0.0831 -0.2938
94030W        W37046   8.974  16.162   5.610 -0.0441 -0.2576  0.0541
94031W        W37047  25.710  21.683  28.503  0.1091 -0.1384  0.1104
94032W        W37048  31.604   3.040  10.820  0.0242  0.2307  0.0087
94033W        W37049  16.959  20.896  28.813 -0.2681 -0.0978  0.1195
94034W        W37050  29.006  26.832   5.473  0.1241 -0.1034  0.0504
94035W        W37051  20.142  29.050  23.591 -0.1935  0.3702 -0.1713
94036W        W37052  18.165  22.666   2.055 -0.4752  0.1415 -0.2225
94037W        W37053   5.252   8.461   9.047  0.1054 -0.3509  0.3086
94038W        W37054  19.972  30.294  21.048 -0.0713 -0.3622  0.1296
94039W        W37055   5.356  23.012  25.129  0.0306 -0.2830 -0.1477
94040W        W37056  11.347  14.413  27.626  0.0359 -0.0465  0.0964
94041W        W37057  23.876  19.133  23.197 -0.1549 -0.0810  0.1731
94042W        W37058  14.989   0.160  19.376 -0.1354 -0.0627 -0.0142
94043W        W37059  25.893  32.793  27.964  0.0717 -0.0657 -0.1541
94044W        W37060  21.027   0.084  23.153 -0.0554 -0.0801 -0.0305
94045W        W37061  19.158  17.160  26.602 -0.0656 -0.3604  0.1196
94046W        W37062  13.404  29.922  10.425  0.0159  0.0398 -0.0805
94047W        W37063  10.898  28.913  23.185 -0.3767  0.0531  0.2683
94048W        W37064  12.235  24.282  28.877  0.0455 -0.1647 -0.1116
94049W        W37065  30.858  31.768  29.142  0.3981 -0.0148 -0.0231
94050W        W37066  14.623  33.072  21.390  0.1251  0.1774  0.1530
94051W        W37067   8.380  30.695  22.642  0.1204 -0.2558 -0.0872
94052W        W37068   2.521  22.644   4.775 -0.0066 -0.1722  0.1745
94053W        W37069  10.601  31.971  25.473 -0.2677 -0.1504  0.0213
94054W        W37070  22.930  18.994   6.392 -0.4019  0.0786  0.0099
94055W        W37071  15.589   5.295   5.173 -0.4920 -0.4206 -0.0708
94056W        W37072  21.983  20.761  25.890 -0.0846  0.0736 -0.2789
94057W        W37073  20.426   0.330  15.391 -0.0093 -0.0829 -0.0611
94058W        W37074  21.943   2.808  27.473 -0.0979  0.0355 -0.0048
94059W        W37075  18.211  28.706  26.098  0.2655  0.0749  0.0147
94060W        W37076  17.232   0.137  25.182 -0.2317  0.1510  0.1426
94061W        W37077  21.071  13.360  28.747  0.1561 -0.0438 -0.3673
94062W        W37078  20.402  22.897  22.755 -0.0749  0.1539  0.0961
94063W        W37079  16.078  17.647  25.490  0.3566 -0.1220 -0.2258
94064W        W37080   4.247  25.343   4.918  0.0448 -0.0898  0.0934
94065W        W37081  20.601  28.666   5.126  0.2091 -0.0266  0.2092
94066W        W37082  12.027  29.559  26.421 -0.1925  0.1130 -0.0884
94067W        W37083  22.469   4.611  17.284 -0.2324 -0.0981  0.2016
94068W        W37084  15.310  14.766  13.414 -0.1039 -0.1467  0.2018
94069W        W37085  14.787  25.167  16.979  0.1017  0.0984 -0.2012
94070W        W37086   9.388  19.719  26.376 -0.0334  0.0373 -0.1661
94071W        W37087   5.301  17.881   6.305 -0.0197  0.0788  0.0601
94072W        W37088  17.327  24.278  24.101 -0.0454  0.0140 -0.2338
94073W        W37089   0.078   8.373  16.439  0.3015 -0.0012 -0.0116
94074W        W37090  23.745  21.900   5.285 -0.5157  0.0762  0.0628
94075W        W37091  23.247  13.561  18.951  0.1437 -0.2676 -0.0484
94076W        W37092  29.443   8.061  26.107  0.1255 -0.3508 -0.0553
94077W        W37093  14.518   4.729  22.278 -0.0766  0.4706 -0.0888
94078W        W37094  17.751  10.148   7.133  0.0502 -0.3869 -0.0315
94079W        W37095  17.074  18.304   8.032  0.0974 -0.1625 -0.1739
94080W        W37096   4.627  31.081  26.741  0.0485 -0.0358  0.2623
94081W        W37097  19.887  19.932  25.984 -0.0486 -0.0208  0.0496
94082W        W37098  22.747  18.579  16.512  0.3119 -0.2537  0.1299
94083W        W37099  28.412  20.338   1.189  0.1650  0.1926  0.5334
94084W        W37100   3.871  33.535   4.678  0.1697  0.0426  0.0697
94085W        W37101  23.103  16.560  21.951  0.1841  0.2726 -0.2861
94086W        W37102  25.162  18.702   6.637  0.3634  0.2679 -0.0422
94087W        W37103  23.790  19.606  26.725 -0.1748 -0.2005  0.0987
94088W        W37104  10.830  33.526   7.779  0.1380  0.1012 -0.1900
94089W        W37105   2.635   2.415   0.835  0.1392 -0.2954 -0.0485
94090W        W37106  20.700  30.414  23.051 -0.0429 -0.3997  0.2336
94091W        W37107   8.024  19.562   0.420 -0.2287  0.1116  0.0256
94092W        W37108  18.140  15.466   5.147 -0.0386  0.0990  0.3102
94093W        W37109  11.795   3.264   4.082  0.0056  0.1238  0.1870
94094W        W37110  14.328   0.272   1.592  0.0203 -0.0857  0.0362
94095W        W37111  25.213  23.517  19.522 -0.2222  0.0470  0.2438
94096W        W37112   1.880  26.097   8.450  0.4849 -0.1360  0.0240
94097W        W37113  11.251   2.350   6.144  0.0030  0.2581  0.1045
94098W        W37114  26.120  23.927  10.884  0.1286  0.1535 -0.3525
94099W        W37115  32.732  28.663  17.513  0.1424  0.1774  0.2368
94100W        W37116  24.289   1.078   8.710  0.1779  0.1556  0.1063
94101W        W37117   5.887  31.363  18.801 -0.2261  0.1304 -0.3011
94102W        W37118  16.550  18.357  16.845  0.0454 -0.0706  0.4476
94103W        W37119   4.365   4.596  26.031  0.2219  0.0453  0.1671
94104W        W37120  25.796  16.071  18.338  0.1107  0.1539 -0.2516
94105W        W37121  26.137   1.114  28.072  0.2013  0.0458  0.0655
94106W        W37122  34.006  24.629  28.700  0.4200 -0.0808  0.2711
94107W        W37123  25.275  20.984  28.426 -0.0388  0.0702 -0.2795
94108W        W37124  22.386  20.631  25.360 -0.1121 -0.5083 -0.0306
94109W        W37125  23.098  12.451  16.662  0.0824 -0.0872  0.2517
94110W        W37126  15.192  22.589  20.603  0.2209  0.1473  0.1594
94111W        W37127  31.856   9.061  20.181  0.1205 -0.0558 -0.2291
94112W        W37128   9.364  24.563   1.227 -0.0448  0.0138  0.1475
94113W        W37129  29.616  10.022   1.235  0.3142 -0.1634 -0.0992
94114W        W37130  23.116  20.805   3.252  0.0803 -0.1981 -0.1367
94115W        W37131  29.467  27.256  28.702 -0.1562  0.0980  0.0141
94116W        W37132  16.775   4.480   0.941  0.2635  0.0121  0.0381
94117W        W37133   3.263  27.681  26.607  0.0814 -0.1157  0.0880
94118W        W37134  27.983  23.463   0.759  0.1796  0.4018  0.0854
94119W        W37135  17.786  30.206   1.038 -0.0828 -0.3626  0.1430
94120W        W37136  29.123  26.280   4.833 -0.1494 -0.1191  0.0148
94121W        W37137  32.403  15.183  26.630  0.0519 -0.2515  0.0354
94122W        W37138  16.145  20.177  14.822  0.2609  0.1918 -0.0543
94123W        W37139   5.922   4.121  28.991 -0.0092  0.0776  0.3021
94124W        W37140  17.466   8.199  19.568  0.0046  0.5112  0.0861
94125W        W37141   7.544  24.728   1.561  0.4117 -0.0389 -0.0097
94126W        W37142   2.106  17.494   2.750 -0.0756  0.0227 -0.1604
94127W        W37143   5.327  24.161  29.051 -0.2436 -0.1471  0.2847
94128W        W37144  16.501  26.551  17.562  0.1650  0.1529 -0.0224
94129W        W37145  34.646  12.321  24.165  0.0473  0.2774  0.3415
94130W        W37146  27.161  27.772  18.019  0.4978  0.0340  0.1829
94131W        W37147  20.464  16.035   4.007 -0.0658  0.1031  0.0199
94132W        W37148  26.933  22.697  10.500  0.0429 -0.3764  0.2920
94133W        W37149  31.799  18.546   0.726 -0.0863  0.0746  0.0577
94134W        W37150  20.591  24.758   2.809 -0.2692 -0.2425 -0.0418
94135W        W37151  23.814  19.151   1.619  0.2230  0.2142  0.0026
94136W        W37152   0.911  16.110  25.501 -0.1385  0.0173  0.1379
94137W        W37153  28.485  20.425   2.667 -0.2199 -0.1388 -0.5224
94138W        W37154   6.458  14.061  13.882 -0.0734  0.0792  0.0232
94139W        W37155  23.233  16.036  28.255  0.1654 -0.2404  0.0082
94140W        W37156  15.998  26.366  20.014  0.2896 -0.0020 -0.2245
94141W        W37157  26.516  22.689  18.500 -0.2253 -0.0368 -0.1251
94142W        W37158  32.198  24.484  16.047  0.1059 -0.0893 -0.0996
94143W        W37159  28.421  19.665  28.189  0.0103 -0.2723 -0.1439
94144W        W37160  27.178  25.728  20.174 -0.1522 -0.2508 -0.0898
94145W        W37161  30.199  23.635  21.491 -0.0554  0.1564 -0.3421
94146W        W37162  23.534  28.365   5.432  0.3988  0.1068 -0.2377
94147W        W37163  13.366  26.386   0.015 -0.1534 -0.0096 -0.1900
94148W        W37164  24.921  16.651  17.871  0.4267  0.0928 -0.2659
94149W        W37165  24.929  25.277  20.062 -0.0388 -0.1373  0.0394
94150W        W37166  10.478  13.206   8.652  0.2432  0.2256 -0.2675
94151W        W37167  27.338   3.538  25.826  0.1317 -0.0109  0.0963
94152W        W37168   0.058  14.757   7.962  0.2522 -0.3331  0.1500
94153W        W37169  26.525  17.662   4.933 -0.1993 -0.5850  0.0721
94154W        W37170  18.302  28.188   9.338  0.3174 -0.1560 -0.0440
94155W        W37171  19.894  20.729  22.310 -0.2927 -0.3210  0.1252
94156W        W37172  17.868  23.759  25.097  0.0739 -0.0740  0.0890
94157W        W37173  18.431  16.313   7.818 -0.0132 -0.1265 -0.0431
94158W        W37174  13.425  26.330   1.787  0.0021  0.1083 -0.0485
94159W        W37175  15.980   4.020  10.441 -0.1695 -0.0503  0.0994
94160W        W37176  16.783  15.114   1.768  0.1115  0.2068 -0.0110
94161W        W37177  24.252  19.336   4.891  0.3924  0.0805 -0.4378
94162W        W37178  14.750  18.695   7.882 -0.0688  0.1749  0.0700
94163W        W37179  28.662   1.086   5.512  0.1294  0.2979 -0.0302
94164W        W37180  19.005  17.461   5.374  0.1876  0.0110 -0.0779
94165W        W37181  27.032  19.936   1.506 -0.4169  0.1060  0.2473
94166W        W37182  27.393  17.931   2.145  0.1901  0.0060  0.1497
94167W        W37183   0.070   6.919  22.776 -0.1073  0.4621  0.3120
94168W        W37184  29.020  32.535   3.128  0.0362 -0.1145 -0.1439
94169W        W37185   3.704  16.870   2.945  0.2665 -0.3236 -0.3361
94170W        W37186   8.395  21.544   8.792  0.0335 -0.2139  0.1558
94171W        W37187  14.709  10.934   8.194  0.2201  0.1398 -0.4020
94172W        W37188   8.522  29.563  23.213 -0.5134 -0.1143 -0.0181
94173W        W37189  19.874  20.688  15.706  0.4258 -0.1409 -0.0739
94174W        W37190  12.883  28.976   7.191  0.2924  0.0773  0.2560
94175W        W37191  25.431   2.402  25.429 -0.3646 -0.3008  0.0468
94176W        W37192  22.561  27.624  23.667  0.0164 -0.0470 -0.0018
94177W        W37193  24.154  26.347   6.118 -0.3255  0.3570 -0.2618
94178W        W37194  12.019   4.888   0.935  0.1056 -0.0914  0.1581
94179W        W37195  10.282  25.495  25.375 -0.0420  0.3141 -0.0736
94180W        W37196  21.962  28.865   4.649  0.0677  0.2526  0.3136
94181W        W37197  22.351  24.151   5.151 -0.1066  0.0936  0.1300
94182W        W37198  15.249   9.500   2.903  0.0535 -0.2234 -0.3911
94183W        W37199  16.676   3.916  19.782 -0.2246  0.1843 -0.1687
94184W        W37200  17.573  24.313   8.306  0.0603  0.0226 -0.0789
94185W        W37201  22.160  17.319  15.029 -0.1816  0.0628  0.2898
94186W        W37202  23.513  14.969  28.811 -0.0071  0.2301  0.4269
94187W        W37203  22.359  20.250  18.221 -0.4100  0.0461 -0.1353
94188W        W37204  27.350   2.153  11.002  0.0678 -0.1504 -0.2198
94189W        W37205  18.234  25.847  23.849 -0.3057 -0.3732 -0.2763
94190W        W37206   8.932  21.742   7.734  0.1447  0.3528 -0.3061
94191W        W37207  21.291  21.073  27.787  0.0226  0.3075  0.2518
94192W        W37208  18.620  14.475   4.072 -0.0219 -0.1079  0.2411
94193W        W37209  25.364   2.804   5.638 -0.0868 -0.3268  0.0756
94194W        W37210   2.666  18.019   6.546 -0.0309  0.3121 -0.0211
94195W        W37211  14.712  15.590  25.839  0.0096 -0.2958  0.3245
94196W        W37212  13.220  33.639  19.634  0.3488  0.1609 -0.1663
94197W        W37213  15.561   1.595  17.117  0.1070  0.1145  0.0781
94198W        W37214  22.849  30.221  19.317 -0.1057  0.2107 -0.0510
94199W        W37215  19.197   1.156   0.291 -0.3792 -0.1921 -0.0644
94200W        W37216  24.468  28.612  14.805 -0.0493 -0.3401  0.2986
94201W        W37217  21.104  21.408  15.777 -0.1267 -0.0932 -0.3611
94202W        W37218  18.001  30.240   2.585 -0.0912  0.0808  0.0986
94203W        W37219  25.210  24.066  26.000  0.0740  0.1516  0.1515
94204W        W37220  11.188  14.273  16.164  0.1005 -0.1191  0.0116
94205W        W37221  29.042  22.773  20.026 -0.0392  0.0437  0.1312
94206W        W37222   1.682  30.300   7.919  0.1561 -0.0805 -0.4108
94207W        W37223  34.172   2.633  22.628  0.0357 -0.2484  0.1114
94208W        W37224  27.252  34.415  15.369 -0.3484 -0.1528 -0.0279
94209W        W37225  15.047  12.642  11.884 -0.0361  0.0426  0.0764
94210W        W37226   7.167  31.407  20.457 -0.0432  0.0179 -0.1192
94211W        W37227  33.091  30.089   0.205  0.0291  0.0273 -0.2486
94212W        W37228  23.374  32.793   1.835  0.1365  0.3745 -0.0152
94213W        W37229  21.858   0.624  21.835 -0.1528  0.1789  0.0159
94214W        W37230  23.967  28.165  23.562 -0.1930 -0.0792 -0.0953
94215W        W37231  30.998  24.869  24.274 -0.0528  0.1911 -0.0281
94216W        W37232   8.579   8.039  20.019 -0.3704 -0.1305 -0.0044
94217W        W37233   1.386  11.514  21.100  0.2931 -0.0215  0.2460
94218W        W37234  18.809  25.401   6.542 -0.1972  0.1427 -0.0488
94219W        W37235  13.888  24.825  15.502 -0.0082  0.0724  0.0873
94220W        W37236  26.354  16.832   1.603 -0.0213  0.0520  0.5227
94221W        W37237  11.601   1.307  21.091 -0.0216  0.1416  0.0840
94222W        W37238  17.414  20.221  14.140 -0.0448  0.1037  0.0066
94223W        W37239  21.989   0.166   0.634 -0.0515  0.3246  0.0743
94224W        W37240  21.420  28.157  22.987 -0.1128  0.1036  0.3416
94225W        W37241  11.321  25.123  19.646  0.0502  0.0715  0.0542
94226W        W37242  28.884  26.139  20.976 -0.1727  0.0692  0.2447
94227W        W37243  19.635  20.427  14.685 -0.1261 -0.0575 -0.0024
94228W        W37244  22.637  33.095   9.651 -0.2026  0.0555 -0.1077
94229W        W37245  18.861   0.641   2.432  0.1228 -0.3484  0.1835
94230W        W37246  34.120  33.884  16.051  0.3086  0.1175 -0.0968
94231W        W37247  20.450  30.991  26.007  0.1255  0.0946  0.3382
94232W        W37248   6.325  10.466  26.248 -0.0378  0.0992 -0.0995
94233W        W37249  21.971  20.322  14.099  0.0108 -0.3252  0.3134
94234W        W37250  24.870   3.138   1.510 -0.1816  0.0946 -0.1756
94235W        W37251  10.822   5.230  19.594  0.1613  0.3521 -0.1092
94236W        W37252  26.658  30.103  23.035  0.0209 -0.3057 -0.0052
94237W        W37253   5.036   1.826  14.688 -0.0471 -0.0531 -0.2582
94238W        W37254   9.985  25.636  21.743  0.0586 -0.2810 -0.1529
94239W        W37255  28.453  13.139   1.403 -0.2701  0.0596  0.1106
94240W        W37256   3.481  26.722  24.903 -0.1777 -0.1408 -0.1074
94241W        W37257   5.931  12.436   9.471 -0.1379  0.1410  0.0649
94242W        W37258   0.271  17.588  20.635  0.2573 -0.0968  0.3030
94243W        W37259   3.790  18.076  16.068  0.0202  0.2739  0.0618
94244W        W37260  30.834  15.019  27.466  0.0391  0.0586  0.0007
94245W        W37261  10.333  23.462  21.100 -0.2894 -0.0064 -0.0952
94246W        W37262  27.891  26.194  17.375  0.1256 -0.3713  0.0289
94247W        W37263  18.041  29.605  29.186  0.2552 -0.1862 -0.0236
94248W        W37264   4.454  19.078  16.940  0.0042  0.0481 -0.2335
94249W        W37265   8.729   5.386  23.193 -0.1851 -0.0729 -0.2026
94250W        W37266  28.396   3.693  20.751 -0.1255  0.2269  0.2151
94251W        W37267  22.156  21.729  21.504  0.2211  0.4390 -0.2909
94252W        W37268  20.845  26.960  16.886 -0.2676 -0.0728  0.3543
94253W        W37269  29.377  24.993  17.188 -0.0294 -0.1855 -0.0710
94254W        W37270   1.838  21.368  18.404  0.0491  0.0358  0.3557
94255W        W37271  33.205  26.783   5.093  0.1134 -0.1864 -0.5863
94256W        W37272  10.251   3.988  20.499 -0.1091  0.3176 -0.0965
94257W        W37273   6.838  28.738  21.170  0.2095  0.3442  0.1324
94258W        W37274  26.184  30.478  16.424 -0.1515 -0.0064 -0.3602
94259W        W37275  12.109  30.745   5.168  0.0517  0.1745 -0.0330
94260W        W37276  12.453  18.560  15.098 -0.1018  0.3021 -0.1437
94261W        W37277   0.751  28.047  14.627  0.1572 -0.2828 -0.0592
94262W        W37278  24.616  16.228  20.846 -0.0782 -0.0196  0.2234
94263W        W37279  10.252  33.297  19.602 -0.2139  0.0121  0.0678
94264W        W37280  31.354  18.931  21.405 -0.0121  0.0508  0.0850
94265W        W37281  31.686  27.615  28.995 -0.3252  0.0837  0.1687
94266W        W37282   4.143  18.502  16.979  0.0152 -0.0136 -0.0121
94267W        W37283   2.600  26.714  20.468 -0.0841  0.2033 -0.1221
94268W        W37284  17.234  24.749  18.243  0.1716  0.0223 -0.0572
94269W        W37285   3.062  34.635  20.190 -0.0936  0.0592 -0.1864
94270W        W37286   3.931  29.458  19.161 -0.1133  0.3302 -0.1385
94271W        W37287  19.472  25.552  23.090 -0.2741  0.2308 -0.1678
94272W        W37288  21.000   6.350  23.246  0.1583  0.0937 -0.2295
94273W        W37289  27.066   9.356  16.353  0.0425 -0.0667  0.0781
94274W        W37290  22.556  31.770  25.322 -0.2137  0.4222  0.1819
94275W        W37291  27.990  27.972   3.919 -0.3904 -0.1176 -0.0927
94276W        W37292  19.353  11.993  22.625 -0.2262 -0.0342 -0.1683
94277W        W37293  22.421  27.479  18.972 -0.0616  0.4518  0.0929
94278W        W37294  31.367  26.044  24.475 -0.0126 -0.2625 -0.3388
94279W        W37295   6.936  33.952  16.409  0.1378 -0.2687 -0.1214
94280W        W37296  34.260  27.838   1.194 -0.1070  0.0027  0.0520
94281W        W37297  30.222  16.831   7.123  0.1565  0.0396  0.1190
94282W        W37298  12.911  12.756  14.138  0.0188 -0.1134 -0.2871
94283W        W37299  26.889  24.199  16.154 -0.1434  0.0837 -0.1573
94284W        W37300  24.376  11.144   1.371 -0.2418 -0.0201  0.1739
94285W        W37301  26.814   0.494  10.671 -0.4036  0.0826 -0.1090
94286W        W37302  19.553  13.093  19.787 -0.0002  0.1590 -0.1402
94287W        W37303  28.853  12.732  18.342  0.0095 -0.2858  0.2317
94288W        W37304   7.322  22.707  22.480 -0.1552 -0.3311 -0.2636
94289W        W37305  17.616  27.367  22.270  0.2343  0.1929 -0.0500
94290W        W37306   9.420  28.184  21.397  0.2056  0.3168  0.1383
94291W        W37307  25.225  14.209  14.499  0.2804  0.1045 -0.0605
94292W        W37308  21.330  20.989  13.040  0.0989 -0.0289  0.5625
94293W        W37309   8.054  16.430  17.015 -0.0258  0.0427 -0.1840
94294W        W37310   5.068  26.379  19.454  0.0763  0.0709 -0.1905
94295W        W37311   5.655  23.623  24.708 -0.0282  0.3035  0.1340
94296W        W37312   5.385   0.759  24.474  0.0407 -0.1883 -0.0998
94297W        W37313   8.680  26.680  14.686  0.2836 -0.2145  0.1067
94298W        W37314  11.811   4.860  17.430  0.0768 -0.0032  0.0412
94299W        W37315  27.046  17.420  19.690 -0.0742 -0.2396  0.0283
94300W        W37316  31.341  27.250  19.256 -0.1553  0.1530  0.1835
94301W        W37317  18.693   0.898  24.148  0.0749  0.4095 -0.2789
94302W        W37318  24.203  21.619  26.230  0.3460 -0.1572 -0.0646
94303W        W37319   7.526  28.611   7.132  0.1749  0.1738 -0.2056
94304W        W37320  24.108   5.778  25.197 -0.1849 -0.0059 -0.2186
94305W        W37321   2.394  20.210  27.615 -0.3031  0.1577 -0.0264
94306W        W37322  30.767  33.890  24.382 -0.1513  0.0511 -0.0954
94307W        W37323  27.871  28.613  19.444  0.0322  0.2749  0.1403
94308W        W37324  13.730  29.490  21.992 -0.4933  0.2489  0.3204
94309W        W37325  10.697   1.186  20.891 -0.1394  0.0003 -0.1531
94310W        W37326  29.909  25.497  21.486  0.1223 -0.0591 -0.4101
94311W        W37327  16.751  21.107  14.947  0.0383  0.0339  0.2394
94312W        W37328  17.264  25.193  21.287  0.1763  0.1077 -0.1179
94313W        W37329  24.145  27.081  25.874 -0.0173  0.2345 -0.0874
94314W        W37330  27.345   9.001   1.357  0.1029 -0.0784 -0.0301
94315W        W37331   6.219  27.158  23.289  0.1699  0.0987  0.2098
94316W        W37332  29.300  17.465  21.134 -0.0715 -0.0507  0.0182
94317W        W37333  20.201  31.076  20.614  0.0570  0.0646  0.0623
94318W        W37334  18.462   1.277  28.547 -0.2040 -0.2716 -0.1092
94319W        W37335  21.754  22.077  21.770  0.1254  0.2144 -0.0768
94320W        W37336   9.911   4.929  23.968 -0.0432 -0.1269  0.2625
94321W        W37337  34.053  31.277   5.018 -0.0220  0.0638 -0.1937
94322W        W37338  19.309  30.810  22.233  0.0865 -0.0450 -0.0227
94323W        W37339  25.966   8.913  22.833  0.0177  0.0731  0.0292
94324W        W37340   4.524   4.784  24.767  0.2604 -0.0288 -0.5963
94325W        W37341   5.353   7.067  18.372 -0.2209  0.1311  0.1597
94326W        W37342  30.659   3.559  19.239 -0.0844  0.3315 -0.1028
94327W        W37343  11.869  20.977   2.872  0.2242 -0.0857  0.2081
94328W        W37344  12.021  29.199  23.081  0.0733  0.2227 -0.1323
94329W        W37345  34.047  16.728  16.396  0.0577 -0.0589  0.2112
94330W        W37346  28.301  26.066  23.211 -0.1010  0.2394  0.0942
94331W        W37347  26.928  27.275  18.004 -0.0770 -0.0072  0.0693
94332W        W37348  25.981   8.387   0.959 -0.3884 -0.2202  0.0058
94333W        W37349   3.543  24.525  18.260  0.1423  0.0919 -0.0134
94334W        W37350  31.537  18.331  23.099 -0.1491  0.2887  0.1319
94335W        W37351  19.451  25.256  18.024  0.0263 -0.0131 -0.3660
94336W        W37352   3.665  20.550  19.244 -0.3538  0.0117  0.0022
94337W        W37353  14.318   4.667  29.080  0.0434  0.0587  0.0669
94338W        W37354  20.485  12.094  17.350 -0.2599 -0.2176 -0.2178
94339W        W37355  14.680  29.989  25.565  0.0031  0.1194  0.5060
94340W        W37356  15.059   0.339  17.340  0.1102  0.2163  0.2373
94341W        W37357  23.546  20.408  27.790  0.0647 -0.0995  0.1005
94342W        W37358  10.923  22.157  24.583  0.1580 -0.2096  0.0624
94343W        W37359  21.017  18.417  25.818 -0.2043  0.2207  0.0302
94344W        W37360  11.093  31.915  22.331 -0.2036 -0.0016 -0.0272
94345W        W37361  29.885  17.161  23.546 -0.1970  0.0517 -0.0816
94346W        W37362  22.672  25.751   2.914 -0.3047  0.0017 -0.2868
94347W        W37363  25.636  27.407   1.495  0.1585  0.1032  0.0747
94348W        W37364   2.046  33.066  18.355  0.1260  0.0048  0.0056
94349W        W37365  20.086  30.307  20.300  0.1507  0.1440 -0.0618
94350W        W37366  30.156  26.404  25.394  0.1268 -0.0469 -0.1536
94351W        W37367  18.392  34.037  21.911  0.0205  0.0270  0.4224
94352W        W37368  33.650   2.992  20.084  0.0404  0.1445 -0.0425
94353W        W37369  15.459  25.072  19.633  0.1441 -0.0481 -0.1927
94354W        W37370  25.138  24.232  22.701 -0.1563  0.0599  0.0290
94355W        W37371  18.216  31.313   3.666  0.5207  0.0458 -0.0646
94356W        W37372  24.417  16.238  14.710 -0.2771 -0.1041  0.0382
94357W        W37373   6.152  20.756  14.065  0.1223  0.2046  0.1736
94358W        W37374  16.118  23.444  21.664  0.1187 -0.2022 -0.1282
94359W        W37375  22.425  26.415  16.478 -0.1650  0.1078 -0.0625
94360W        W37376  22.833  32.677  24.124 -0.1102 -0.1493  0.3343
94361W        W37377  21.069  20.790  18.018  0.0968  0.3610  0.0381
94362W        W37378  21.822  32.261   9.702 -0.0600  0.2278  0.0550
94363W        W37379  13.228  23.950  17.739  0.0513 -0.4840 -0.2567
94364W        W37380   0.228   1.824  15.835 -0.2563 -0.2496  0.0642
94365W        W37381  32.003  29.865  15.825 -0.0120  0.1302  0.0851
94366W        W37382  15.814  28.021  19.805  0.1242  0.1851 -0.4210
94367W        W37383  19.364  33.829  26.409 -0.2957  0.0055 -0.2802
94368W        W37384  32.069   5.182  18.539  0.1541  0.1237  0.2383
94369W        W37385  20.139  14.324  12.378  0.0970  0.0967 -0.1020
94370W        W37386  34.505  29.735  16.031 -0.2562 -0.1929  0.1177
94371W        W37387   1.557  26.333  15.296 -0.0906  0.2184  0.0999
94372W        W37388  22.113   7.523  14.889  0.1672  0.1449 -0.1541
94373W        W37389  18.968  27.620  24.737  0.0848  0.0478  0.1460
94374W        W37390  33.957  13.648  26.738 -0.0170 -0.0213  0.2450
94375W        W37391  33.278  21.763  16.694 -0.0092  0.2679  0.2324
94376W        W37392   8.906   5.149   5.714  0.0212 -0.1916  0.0008
94377W        W37393  17.836  25.310  20.918  0.0261  0.0493  0.2034
94378W        W37394  17.009  13.226  14.083 -0.0022 -0.1747 -0.0795
94379W        W37395  24.740  30.280  21.439  0.2725  0.1494  0.1613
94380W        W37396  19.336  20.275  16.936  0.3118  0.0912  0.1545
94381W        W37397  19.260  28.373   2.076 -0.0939 -0.1291  0.1389
94382W        W37398   3.419  24.361  22.925 -0.2710  0.0080 -0.0954
94383W        W37399  27.971  15.262  21.032  0.1893 -0.6199  0.3945
94384W        W37400  22.583  10.465  25.586 -0.2372 -0.1559 -0.1404
94385W        W37401  28.284  25.621  16.201 -0.1989  0.1045 -0.0408
94386W        W37402  17.334   4.723  15.958  0.0685  0.1548 -0.1127
94387W        W37403  25.563  21.740  25.159 -0.1573  0.4178 -0.0748
94388W        W37404  27.749  20.431  18.535  0.2882 -0.0036 -0.1240
94389W        W37405  28.421  22.725  18.623 -0.0126 -0.3907 -0.3172
94390W        W37406  10.615   3.605  14.870  0.0053  0.0389  0.0716
94391W        W37407  21.968  15.338  13.908  0.2983 -0.0704 -0.3769
94392W        W37408  24.532   5.794  20.605 -0.0086 -0.2088  0.2082
94393W        W37409  26.172  21.135  23.720 -0.0772 -0.0289  0.1189
94394W        W37410  31.850  20.910   1.101  0.1137  0.4444  0.0585
94395W        W37411   3.407  19.233  17.968 -0.1637 -0.1720 -0.0769
94396W        W37412  21.902  28.793  14.904 -0.0741 -0.0800  0.0490
94397W        W37413  24.711   6.647  15.198  0.0424  0.0870 -0.0100
94398W        W37414  20.106   0.488   1.432 -0.1182  0.2777  0.4823
94399W        W37415  32.720  26.560   1.784 -0.1858 -0.2453 -0.2514
94400W        W37416  26.769   8.311   0.786  0.0106  0.0688 -0.0977
94401W        W37417  25.766  20.434  27.327 -0.0201  0.0969 -0.0731
94402W        W37418  13.018   5.832  14.738  0.1839  0.3076 -0.2866
94403W        W37419  26.813  33.148  27.644  0.0222  0.0211  0.0663
94404W        W37420  23.776   6.246  27.520  0.0248 -0.1539 -0.0813
94405W        W37421   8.244  24.153  18.919  0.0419  0.0841 -0.1456
94406W        W37422  20.612   7.086  15.666  0.2488  0.0612  0.0805
94407W        W37423  11.718  27.236  21.670  0.2347  0.2892  0.1389
94408W        W37424  19.555  29.839  18.278  0.1966  0.3378  0.0974
94409W        W37425  33.566  23.515  21.090 -0.1116  0.0508  0.0230
94410W        W37426  20.827  29.181  21.047 -0.0390  0.2682 -0.1024
94411W        W37427  18.256  31.970  15.951  0.0505 -0.1037  0.0253
94412W        W37428   2.395  28.577  28.385 -0.0296  0.2110 -0.0979
94413W        W37429  21.099  28.384  20.698  0.0931 -0.1499  0.0920
94414W        W37430   1.319  30.664  16.179 -0.2739  0.1742  0.0432
94415W        W37431   2.909  30.359  18.091  0.1872 -0.0524 -0.0094
94416W        W37432  30.410   1.533  27.999 -0.0974 -0.3298 -0.1957
94417W        W37433  17.932   3.383  18.232  0.0136 -0.2354 -0.2053
94418W        W37434  22.358  21.268  15.713 -0.4190 -0.0232 -0.2469
94419W        W37435  24.173   2.553  20.490 -0.0383 -0.0894 -0.0199
94420W        W37436  11.327   7.731   3.548 -0.2808  0.0001 -0.1991
94421W        W37437  26.753  33.594  16.408 -0.0739  0.0054  0.0947
94422W        W37438   4.504  33.494   5.722  0.1989 -0.0339  0.0534
94423W        W37439  27.333  33.985  18.002  0.2084  0.2008  0.0380
94424W        W37440  11.232  30.446  18.994  0.2002  0.1403  0.2906
94425W        W37441  18.318   6.703  19.612  0.0303  0.2784 -0.0848
94426W        W37442  22.266  25.938   1.037  0.3152 -0.0682  0.2140
94427W        W37443  18.612   4.599  18.739  0.1500  0.0897 -0.1030
94428W        W37444  22.116  27.203  16.765  0.1438  0.1832  0.0785
94429W        W37445  13.030   0.497  26.563  0.0941  0.0538 -0.2056
94430W        W37446  29.467  17.756  16.848 -0.0268 -0.1359  0.1401
94431W        W37447   5.146  21.046  19.834 -0.1981  0.2103  0.2455
94432W        W37448  18.316  26.334  20.233  0.0283  0.1171 -0.4154
94433W        W37449   0.634  27.439  15.794 -0.0904  0.4461  0.0351
94434W        W37450  17.529  27.759  17.791 -0.0399 -0.1060 -0.1068
94435W        W37451  24.133   3.294  19.741  0.0349  0.1095 -0.0076
94436W        W37452   6.729   2.396  18.878 -0.0127  0.0966 -0.0929
94437W        W37453  14.608  22.476  22.441 -0.0244 -0.1126 -0.1613
94438W        W37454  23.761  34.081  17.915 -0.0137 -0.1663  0.0813
94439W        W37455  17.120  25.062  14.249  0.0818 -0.2773  0.1125
94440W        W37456  18.570   3.558  28.099  0.1500  0.3647 -0.1787
94441W        W37457  22.868  21.483  26.917  0.0171  0.1779 -0.1259
94442W        W37458  11.514  30.083  18.869  0.3493 -0.0502  0.1883
94443W        W37459  15.981  21.773  12.968 -0.1502 -0.0335  0.1461
94444W        W37460  25.633  16.491  19.638  0.1216 -0.0829  0.1927
94445W        W37461  30.695  22.463  24.507 -0.2877  0.3451  0.2937
94446W        W37462  23.139  33.033  19.421 -0.3404  0.1356  0.3863
94447W        W37463  23.055  18.693  17.398  0.2500 -0.0613  0.4769
94448W        W37464  26.496  19.183  22.852 -0.4196 -0.0103 -0.0298
94449W        W37465  31.066   2.354  15.772 -0.2467  0.2316  0.2761
94450W        W37466   5.655  22.351  17.995  0.1614  0.2507  0.0662
94451W        W37467   9.048  23.005  23.979 -0.2458 -0.2816  0.1956
94452W        W37468  18.213  17.594  12.231 -0.3039 -0.0855  0.2818
94453W        W37469  15.585  32.158  14.943  0.1936 -0.1793 -0.1894
94454W        W37470   6.006  23.432  22.699 -0.1051 -0.2364 -0.0675
94455W        W37471  31.160   9.668   9.695 -0.0139 -0.0090  0.2675
94456W        W37472  27.090  21.700  17.665  0.2781 -0.1780 -0.1415
94457W        W37473  20.262   2.026  21.856  0.1449  0.0089  0.2093
94458W        W37474   2.160  28.190  21.312 -0.0715  0.0390 -0.1246
94459W        W37475  34.233  30.358  28.036 -0.2155  0.2635  0.4204
94460W        W37476  24.149   0.155  22.836 -0.2021 -0.1190  0.1232
94461W        W37477  21.632  31.733  19.830  0.2484  0.0827 -0.3046
94462W        W37478  20.636  28.186  19.843  0.1622  0.1214 -0.1600
94463W        W37479  19.804  33.138  15.440  0.1023 -0.1736 -0.0231
94464W        W37480  12.784  28.102  13.885 -0.0993 -0.3272  0.2418
94465W        W37481  22.363  30.793  16.901  0.0065  0.0549  0.0313
94466W        W37482   9.837  18.459  17.914  0.1473  0.0431  0.0523
94467W        W37483  25.579   6.819  14.839  0.0062 -0.1180 -0.0502
94468W        W37484   4.426  23.035  21.082  0.1500  0.0321  0.0407
94469W        W37485  24.649  28.796  15.270  0.2408  0.3587  0.0401
94470W        W37486  19.384  33.333  22.161 -0.0719 -0.0599 -0.3141
94471W        W37487  29.317   6.528  20.574  0.1630 -0.4314  0.2183
94472W        W37488  10.763  30.758  15.791  0.0783  0.0427 -0.2352
94473W        W37489  11.739  26.335  19.625  0.2159 -0.0398  0.0417
94474W        W37490  20.189  27.550  15.421  0.2921 -0.0099  0.3905
94475W        W37491  17.462  13.716  11.817 -0.3837  0.0476  0.1749
94476W        W37492  23.093  15.486  20.419 -0.1016  0.0633 -0.4777
94477W        W37493  20.508   2.896  22.478  0.3244 -0.2687 -0.3689
94478W        W37494   1.409  34.685   0.530 -0.2750 -0.1532  0.0802
94479W        W37495  27.606  24.799  17.202 -0.2569 -0.3641 -0.2052
94480W        W37496  10.072  25.823  17.089  0.1671 -0.1180 -0.0109
94481W        W37497  24.385  31.451  26.178 -0.1980  0.1571  0.0518
94482W        W37498  25.531  28.685  15.382 -0.0818 -0.1047 -0.0410
94483W        W37499  27.392   2.097  18.468  0.0641 -0.1230 -0.2544
94484W        W37500  22.037  29.111  15.915  0.1257  0.0135  0.2135
94485W        W37501  12.552  27.219  26.343  0.2305 -0.1975  0.1498
94486W        W37502  31.126  27.191  23.186  0.4302  0.2312  0.0003
94487W        W37503  23.944  28.428   1.016  0.1141  0.1537  0.0045
94488W        W37504  22.029  21.194  18.162 -0.0535 -0.0263  0.0119
94489W        W37505  15.039  10.969  17.836  0.0541  0.0627 -0.0519
94490W        W37506  12.838  19.922  12.365  0.0118 -0.0026 -0.0120
94491W        W37507  28.818  34.736   0.059  0.3540 -0.0655  0.0220
94492W        W37508  16.651  17.779   0.320  0.0683  0.1280 -0.1184
94493W        W37509  17.740   8.399  18.062  0.3066  0.2996  0.0087
94494W        W37510   7.748  24.546  13.503 -0.1636  0.0576 -0.0648
94495W        W37511  10.500  20.931  21.140 -0.4361 -0.1291 -0.1511
94496W        W37512  30.363  33.660  25.916  0.0029 -0.3183 -0.1282
94497W        W37513  25.061  10.481  19.286 -0.0273  0.0622  0.2490
94498W        W37514  23.705   8.667  16.186 -0.1477  0.0480 -0.0964
94499W        W37515  14.404  11.888  14.257  0.1053 -0.1966 -0.0501
94500W        W37516  27.593  25.251  26.904  0.0221 -0.2457  0.2503
94501W        W37517  16.221  12.584  26.192 -0.3439  0.0991  0.1587
94502W        W37518  24.635   0.078   0.181  0.2081  0.4445 -0.0709
94503W        W37519  25.717   5.595  29.136 -0.1314 -0.0196 -0.1355
94504W        W37520  31.638  20.654  27.327 -0.0086 -0.0759 -0.1186
94505W        W37521  14.589  25.935  18.036  0.0689 -0.0590 -0.2200
94506W        W37522  11.359  22.282  14.925 -0.3737 -0.1916 -0.0951
94507W        W37523  34.719  27.468  19.147 -0.0330  0.0158 -0.2210
94508W        W37524  25.252  25.808  23.411 -0.1186 -0.1754  0.0341
94509W        W37525   0.185   0.420   0.887 -0.1582 -0.0326  0.0985
94510W        W37526  33.715   0.253  17.884  0.3303  0.1326 -0.4128
94511W        W37527  21.993  19.886  25.725 -0.0073 -0.1029  0.1424
94512W        W37528  20.005  26.994  25.036 -0.0159  0.0140 -0.0145
94513W        W37529  30.677   1.382  27.583 -0.3537 -0.2607  0.1058
94514W        W37530  18.527  17.920  11.960  0.0895 -0.2182  0.0029
94515W        W37531   9.387  24.910  16.219  0.0300  0.0801  0.1358
94516W        W37532  22.484  29.579  21.155  0.0711 -0.3295 -0.0625
94517W        W37533  29.320  28.344  21.524 -0.0098 -0.0130  0.2857
94518W        W37534  32.005  13.827  18.200  0.1603  0.1639 -0.2191
94519W        W37535  12.238  31.922  19.891 -0.1082 -0.1542 -0.3768
94520W        W37536  29.894   9.562  20.660  0.1863 -0.3995  0.0457
94521W        W37537  21.597  33.716  18.347 -0.1196  0.2123  0.1613
94522W        W37538  12.213  20.414  15.465 -0.1268  0.3344 -0.1751
94523W        W37539  13.311  23.375  27.339  0.2729 -0.0071  0.0376
94524W        W37540   9.219   5.133  27.031 -0.0101 -0.3076  0.0333
94525W        W37541  20.442  21.587  23.872  0.0339 -0.0527 -0.1820
94526W        W37542  19.565  28.159  18.571  0.0665  0.1720 -0.1098
94527W        W37543  15.336  15.833  23.365 -0.1144  0.6460  0.3219
94528W        W37544  16.413   0.629   3.501  0.0248  0.1655  0.2682
94529W        W37545  19.742  21.669  28.230 -0.2324 -0.1118 -0.0010
94530W        W37546  14.022  34.611   7.671 -0.1654  0.1318  0.0506
94531W        W37547  31.414  33.286  26.796 -0.0906  0.3897  0.1223
94532W        W37548  17.983  17.242  14.065 -0.1373 -0.1120  0.1867
94533W        W37549  30.468  14.341  28.226  0.0974  0.1948 -0.0815
94534W        W37550  30.047  30.755  26.375  0.1564  0.1539 -0.2632
94535W        W37551   9.103  20.662  24.977  0.3078 -0.0234  0.3545
94536W        W37552  14.932   6.659  14.587 -0.2802 -0.0226 -0.0840
94537W        W37553  27.099  31.224  16.557  0.1242 -0.2136 -0.3701
94538W        W37554  10.434  12.720  13.456 -0.1727 -0.0676 -0.1241
94539W        W37555  15.146  26.347   4.396 -0.1692 -0.0193  0.3392
94540W        W37556  15.182   0.613  24.757 -0.0375 -0.0117 -0.0150
94541W        W37557  22.724   1.363  18.766 -0.0203 -0.2878 -0.0647
94542W        W37558  24.233  28.636  22.607 -0.2305 -0.0471 -0.3371
94543W        W37559  25.219   3.697  22.782 -0.0499  0.2580  0.2098
94544W        W37560  26.608  28.852  15.941  0.0192 -0.2961  0.1087
94545W        W37561  15.509  24.264  13.973  0.1294  0.1795  0.0565
94546W        W37562   9.479  25.028  15.227 -0.0804  0.3570 -0.2578
94547W        W37563  10.148  25.539  16.725  0.2615 -0.1773  0.0987
94548W        W37564  15.410  26.823  17.060 -0.0416  0.1592  0.0772
94549W        W37565  17.311  24.629  22.218  0.0838 -0.1280  0.1962
94550W        W37566  32.861  21.046  15.575 -0.0088 -0.0630 -0.1896
94551W        W37567  20.328   2.189   7.744  0.3730 -0.0428  0.0182
94552W        W37568  31.987  21.915  21.069  0.1732 -0.0983  0.0351
94553W        W37569  17.379   3.398  20.314 -0.0191  0.0006  0.0065
94554W        W37570  31.109   5.039  18.225 -0.1848 -0.2246 -0.0597
94555W        W37571  29.178  28.168  19.264 -0.0009  0.1017  0.2518
94556W        W37572  23.981  33.684   2.932  0.1605  0.3142  0.2477
94557W        W37573  19.937  20.799  14.318 -0.1388 -0.1505 -0.0585
94558W        W37574   3.972   7.997  26.525  0.0002  0.3660 -0.0826
94559W        W37575  12.192  33.031  21.078  0.1807 -0.1369  0.1481
94560W        W37576  19.816  28.491  19.784  0.4292 -0.2383 -0.0424
94561W        W37577  13.380  22.230  24.343  0.3166  0.0414  0.3126
94562W        W37578   2.848  34.747   3.052 -0.0223 -0.0134 -0.0647
94563W        W37579  15.211   8.074  13.516  0.1126 -0.1431 -0.1855
94564W        W37580  28.490  13.831  28.953 -0.0140  0.0156 -0.2388
94565W        W37581   0.213  12.751   0.485 -0.2290  0.0231 -0.1197
94566W        W37582  24.857  25.718  26.923  0.1064  0.2166  0.1047
94567W        W37583   5.923  28.348  16.916  0.1592  0.0193  0.1085
94568W        W37584  30.576   4.359  15.152  0.1507 -0.0851 -0.0460
94569W        W37585  12.365  17.963  19.793  0.2410  0.1045  0.2088
94570W        W37586   9.484  30.109  20.924 -0.1971  0.1386 -0.1602
94571W        W37587  19.594  27.281  20.834  0.0793  0.0758  0.0566
94572W        W37588  24.582   3.802   0.817 -0.2938  0.2210  0.0487
94573W        W37589  17.614  31.975  21.136  0.2174  0.0017 -0.0619
94574W        W37590  13.351  29.706  21.706  0.0350  0.0404 -0.0647
94575W        W37591  17.168  24.596  22.892  0.3309 -0.1191  0.6243
94576W        W37592  22.352  33.318   1.125 -0.0952 -0.2461  0.1951
94577W        W37593  18.979  20.922  16.524 -0.1123  0.0742  0.1930
94578W        W37594  20.131  14.979  14.809  0.2680 -0.1671  0.1899
94579W        W37595   3.304   7.446   3.142  0.2590  0.0182  0.2212
94580W        W37596   2.208  24.055  19.369 -0.1636  0.0367  0.0287
94581W        W37597  32.198  25.803  17.907  0.2111  0.2472 -0.0191
94582W        W37598  23.310  26.280  28.702 -0.0323  0.0769 -0.0515
94583W        W37599  23.427  17.900  16.337  0.0841  0.0430  0.1558
94584W        W37600  23.035  28.661  18.351  0.5534 -0.1780 -0.2204
94585W        W37601  21.613  28.639  27.425 -0.0782  0.0255  0.0609
94586W        W37602   1.119  12.557   1.454 -0.3402 -0.2449 -0.2659
94587W        W37603  30.337  34.714  23.063 -0.1106 -0.2541 -0.1409
94588W        W37604   9.835  22.038  17.826 -0.2618 -0.0138 -0.3511
94589W        W37605  34.778  13.647   0.515 -0.0811 -0.0772  0.0455
94590W        W37606  13.787  32.774  19.156 -0.0407 -0.2298  0.2964
94591W        W37607  10.324   3.080  22.676  0.0528  0.1051 -0.0101
94592W        W37608  14.729  23.894  17.042  0.1762 -0.1775  0.0069
94593W        W37609  34.641  29.798  14.531  0.0727  0.2412  0.0476
94594W        W37610  14.276  23.931  26.682  0.3582  0.0163 -0.0456
94595W        W37611  28.793  30.323  27.761 -0.0988 -0.0335  0.2767
94596W        W37612  17.390  30.085  28.083 -0.2548 -0.1958 -0.2135
94597W        W37613  19.843  20.133  25.262  0.1566 -0.1585  0.1217
94598W        W37614  25.330  32.558   4.647  0.0349 -0.0828  0.1025
94599W        W37615  30.097   9.184  23.664 -0.0026  0.1462  0.0878
94600W        W37616  27.656  18.115  19.744  0.1754  0.0144  0.1459
94601W        W37617   6.848  17.811  16.229  0.0186 -0.1426 -0.0375
94602W        W37618  20.672   8.704  17.209  0.2010  0.1413  0.3893
94603W        W37619  27.124  18.680  14.990  0.0873 -0.0276 -0.0269
94604W        W37620  24.230  21.919   0.810  0.2145  0.0563 -0.0668
94605W        W37621   8.308  26.354  13.963 -0.0657  0.1490  0.0174
94606W        W37622   2.573  26.811   6.101 -0.3973  0.2677  0.0491
94607W        W37623  24.272   6.330  15.364 -0.0484  0.1480 -0.2181
94608W        W37624  13.024  15.749   0.456 -0.1490  0.3870 -0.0852
94609W        W37625  10.964  26.546  21.711 -0.1702 -0.0268 -0.4987
94610W        W37626  29.883  15.510  17.673  0.0488 -0.1850  0.0220
94611W        W37627  13.160  25.258  13.896  0.0740 -0.0008  0.0489
94612W        W37628  19.965  33.520  16.228 -0.0956 -0.0038 -0.0130
94613W        W37629  16.837  20.582  22.561  0.2085 -0.0001  0.0763
94614W        W37630  14.130  27.545  18.032 -0.2787 -0.0831  0.0046
94615W        W37631  17.331  19.484  22.768  0.1838 -0.0199 -0.1268
94616W        W37632  19.045  19.852  27.979  0.0490  0.1309  0.0688
94617W        W37633  26.511  17.399  25.446  0.1378  0.0500 -0.3438
94618W        W37634  26.227  20.697   6.425  0.4624 -0.0640 -0.0964
94619W        W37635   6.584  19.603  13.297 -0.0710 -0.2642  0.0003
94620W        W37636  31.897  31.330   2.149 -0.0594 -0.5729 -0.5134
94621W        W37637  10.336  28.589  17.490  0.0119  0.0377 -0.2121
94622W        W37638  27.875  25.829  19.717 -0.0432  0.1910  0.0858
94623W        W37639  33.970  18.981  23.818  0.2583  0.1679 -0.0512
94624W        W37640  21.890  26.570  19.350  0.1601 -0.1294  0.3399
94625W        W37641  21.836  27.631   1.611  0.4836  0.0066 -0.1606
94626W        W37642   7.835  21.315   6.740 -0.2034 -0.1455  0.0279
94627W        W37643  15.795  16.465  24.491  0.0806  0.2187  0.3043
94628W        W37644  12.256  33.463   0.341 -0.2948  0.0290 -0.3394
94629W        W37645  28.144  25.948   4.803  0.0050  0.0978 -0.1220
94630W        W37646  15.521  26.506  23.197  0.3633  0.0960 -0.1434
94631W        W37647   2.138   0.460  19.972  0.1655 -0.0543 -0.1974
94632W        W37648  19.070  15.035  14.857  0.1395  0.1426  0.0486
94633W        W37649  11.495  33.476  15.926 -0.1092 -0.1281  0.0988
94634W        W37650  15.066  30.981  22.124  0.0729 -0.3175  0.0069
94635W        W37651  14.573   5.821  26.095 -0.2730 -0.1601 -0.1969
94636W        W37652  16.123   3.641  24.888  0.1013  0.0172 -0.2747
94637W        W37653  20.753  27.750  23.608  0.1340 -0.0873 -0.1098
94638W        W37654  13.052  20.896  14.531 -0.1787 -0.3136 -0.0868
94639W        W37655   3.402  20.749  15.590  0.2465  0.2899  0.0967
94640W        W37656  23.226  31.017  22.641  0.3135  0.3421 -0.1354
94641W        W37657  28.653  27.374  16.836  0.0775  0.0373  0.0636
94642W        W37658  17.478  25.066  22.432 -0.0538 -0.1047 -0.0609
94643W        W37659  32.425  24.356  20.225 -0.0263 -0.0478 -0.0381
94644W        W37660  17.916  13.695  26.786 -0.1079  0.0226 -0.0998
94645W        W37661  15.093   8.816  27.719  0.1638 -0.2789  0.0301
94646W        W37662  32.043   1.264  27.452 -0.1542 -0.0637 -0.0690
94647W        W37663  34.398   7.634  18.204 -0.1719 -0.1882 -0.5255
94648W        W37664  24.968   7.061  24.976  0.3431 -0.0861 -0.1698
94649W        W37665   1.910  29.647   0.204  0.0852  0.2067 -0.1227
94650W        W37666  31.550  27.069  15.587 -0.1441 -0.0704 -0.1238
94651W        W37667  14.885  24.992  18.386 -0.0225 -0.5380 -0.2586
94652W        W37668  25.689  17.400  23.532 -0.0949  0.1461  0.1824
94653W        W37669  17.831   4.215  14.641  0.3359 -0.2728 -0.2983
94654W        W37670  26.101   0.886  17.856  0.1067 -0.1133 -0.3017
94655W        W37671  18.191  18.742  14.860  0.1934 -0.1209  0.2978
94656W        W37672  29.560  30.483   1.389  0.1738  0.0635  0.1355
94657W        W37673  14.832  34.645  22.717 -0.0093 -0.1772  0.1562
94658W        W37674   8.849  29.424  17.898 -0.0728  0.0630 -0.0886
94659W        W37675  30.422  16.502  16.560 -0.2982  0.2997 -0.0995
94660W        W37676  15.169  18.685  12.491  0.3914  0.0476  0.2500
94661W        W37677  23.012  31.415   8.379  0.3686 -0.1357  0.0670
94662W        W37678  15.030  20.783  12.551 -0.4407  0.1014  0.1971
94663W        W37679  29.142  12.729   8.242 -0.0406 -0.0336  0.0385
94664W        W37680  21.720   0.652  18.453  0.1234  0.1008  0.5184
94665W        W37681  11.091  23.672   4.720  0.0091  0.0022  0.1649
94666W        W37682  15.912  23.394  17.980 -0.0735 -0.2132 -0.3327
94667W        W37683   3.451   5.396   3.935  0.1411 -0.1440 -0.0150
94668W        W37684  20.964  21.413   0.661  0.0695  0.1197  0.0909
94669W        W37685  34.215   1.383  20.498  0.3336  0.0861  0.2008
94670W        W37686  13.849  22.973  12.208  0.1378 -0.0141 -0.1335
94671W        W37687  27.671  18.630  15.065 -0.0091 -0.0954 -0.0467
94672W        W37688  22.458  12.564  23.306  0.0369 -0.1487 -0.0958
94673W        W37689  28.666  20.061  17.845  0.1345  0.1854 -0.0658
94674W        W37690  22.507  26.780  24.604 -0.1956 -0.1334 -0.1868
94675W        W37691   8.625  10.310  21.400 -0.0896  0.1162 -0.0031
94676W        W37692  12.644  29.903   1.602 -0.2291 -0.0749  0.1650
94677W        W37693  11.800  24.405  18.694 -0.2545 -0.0267 -0.1245
94678W        W37694  25.310  14.169   0.142  0.0947 -0.0717  0.1582
94679W        W37695  32.346   4.388  14.125  0.0895  0.2580 -0.2209
94680W        W37696  25.623  30.629  21.724 -0.0563 -0.2438  0.1102
94681W        W37697  29.340  30.487   0.727 -0.1362  0.2718  0.3202
94682W        W37698   9.563  17.583  14.486 -0.2647 -0.0660 -0.2518
94683W        W37699  33.482  12.492   2.807  0.0823  0.0825 -0.1444
94684W        W37700   8.733  24.719  21.025 -0.0542  0.0098  0.0866
94685W        W37701  33.943  27.113  23.955  0.2488  0.0023  0.0613
94686W        W37702  29.801  10.381  18.986  0.1083 -0.0456  0.4178
94687W        W37703  13.995  28.259  18.407  0.1175 -0.0298 -0.0884
94688W        W37704  18.946  17.371  14.678 -0.2387 -0.1124 -0.1141
94689W        W37705  17.838  22.008   5.645  0.0301  0.3633 -0.1491
94690W        W37706  22.593   0.746  16.157 -0.3206 -0.2487 -0.1184
94691W        W37707   9.196   9.149  20.191  0.0088 -0.2456  0.1059
94692W        W37708  23.212  22.044   1.699  0.2297  0.0244 -0.0450
94693W        W37709   8.490  34.765  27.872  0.0021  0.0623 -0.1101
94694W        W37710  11.092  10.658  27.935  0.1743 -0.0177 -0.3713
94695W        W37711  29.891  30.269   2.215 -0.5635 -0.0187 -0.0186
94696W        W37712  28.227  13.237  18.742  0.1016  0.1953  0.0710
94697W        W37713   8.294  18.303  18.935  0.3567 -0.1022  0.1572
94698W        W37714  26.967  28.935  16.915 -0.0885 -0.2282 -0.3426
94699W        W37715  17.691  16.372  13.203 -0.1416 -0.1435 -0.0389
94700W        W37716  13.222  34.164  25.529  0.0915  0.1195 -0.4236
94701W        W37717   0.307  28.555  15.358 -0.0735  0.1498 -0.2193
94702W        W37718   3.596  18.505  17.268  0.0026  0.1550 -0.0250
94703W        W37719  12.034  21.023   1.248 -0.1048  0.2243  0.4659
94704W        W37720  21.117  19.355  24.535  0.1076  0.1569  0.1321
94705W        W37721  19.125  25.332  23.356 -0.0875  0.0489 -0.0966
94706W        W37722  17.700  26.544  26.079 -0.0182 -0.3975 -0.0819
94707W        W37723   1.969   0.967  21.569  0.2522 -0.2932 -0.0169
94708W        W37724   6.504  23.931  18.558 -0.0648  0.0190 -0.3983
94709W        W37725   2.847  30.881  24.193 -0.1049 -0.1637  0.0269
94710W        W37726  24.450  20.158  16.016  0.1436 -0.0822 -0.1706
94711W        W37727  28.216  15.689  27.785 -0.0757  0.0222 -0.0816
94712W        W37728  18.722  23.443  17.586 -0.0664 -0.0582 -0.0506
94713W        W37729  13.222  16.529  28.608  0.0766  0.2663  0.0541
94714W        W37730   9.520  30.016  28.680  0.1145 -0.1939  0.1414
94715W        W37731   3.987  24.075  25.274  0.2415 -0.1213  0.0635
94716W        W37732  20.852  18.968  26.196 -0.1828 -0.0085 -0.3765
94717W        W37733   0.300  12.717  25.043 -0.1965 -0.2817  0.2902
94718W        W37734  19.211  19.437  23.058 -0.0937 -0.0119  0.0252
94719W        W37735  26.286   1.741   3.991 -0.1573  0.0615 -0.4505
94720W        W37736   8.550  13.095  18.836  0.2414 -0.2410 -0.0096
94721W        W37737   4.803  18.005  20.661 -0.0611  0.2187 -0.1297
94722W        W37738  11.657  24.961  14.591  0.4756 -0.1507  0.2081
94723W        W37739  32.169  30.872   0.791 -0.3123  0.1521  0.1036
94724W        W37740  25.630  28.009  18.818 -0.0747 -0.2359  0.2694
94725W        W37741  10.846   7.603   9.333 -0.1605  0.2202 -0.0773
94726W        W37742  29.777  20.653   2.501  0.2011 -0.0141  0.1526
94727W        W37743  32.042  11.514  16.532 -0.0911 -0.0698  0.1874
94728W        W37744  16.737  22.480  28.450 -0.3162 -0.0666 -0.3202
94729W        W37745  27.379  20.538  27.971  0.1174 -0.1657  0.2706
94730W        W37746  12.543  26.194  29.122  0.2244  0.0944 -0.0833
94731W        W37747  29.096   0.333  26.753 -0.1907 -0.0491  0.2925
94732W        W37748  21.453  23.703  21.398  0.2490 -0.1949 -0.1126
94733W        W37749  27.857  16.152  19.368 -0.2078  0.1904 -0.2102
94734W        W37750  33.249  28.826  19.774  0.0117 -0.0917  0.0256
94735W        W37751  23.534   1.014  15.851 -0.0549 -0.2829  0.1924
94736W        W37752   4.865  28.593  14.299  0.4699  0.1030  0.0891
94737W        W37753   9.022   8.363  28.374 -0.0153  0.1347  0.1137
94738W        W37754  23.769  25.534  14.706  0.0437 -0.0447  0.0771
94739W        W37755  14.982  31.554  17.159 -0.0239  0.0885 -0.2322
94740W        W37756  21.107  30.035  18.629 -0.1832  0.1559  0.3167
94741W        W37757  19.606  34.488  28.549 -0.1557  0.1063 -0.0446
94742W        W37758  16.261  22.497  24.595  0.1129 -0.0770 -0.2349
94743W        W37759  34.171   9.356   4.052  0.0374  0.1134 -0.0450
94744W        W37760  18.752  27.691  22.806 -0.0987  0.1601 -0.2577
94745W        W37761  15.833   6.908   5.286  0.0600  0.2396  0.1018
94746W        W37762  11.553  30.569  18.178 -0.2757 -0.5375  0.0341
94747W        W37763  22.358  10.360  13.278 -0.2116 -0.0167 -0.0359
94748W        W37764  29.282  17.470  17.244 -0.3645  0.0504 -0.0054
94749W        W37765  31.166  28.887  24.640 -0.1799 -0.1131  0.2606
94750W        W37766  33.358  25.124  18.245  0.2342  0.1296  0.1031
94751W        W37767  22.393  24.790  22.356  0.0350  0.0706  0.0034
94752W        W37768  20.541   1.349  29.125  0.0579  0.0705  0.2313
94753W        W37769  13.634   6.717   2.028 -0.3349  0.2314 -0.1133
94754W        W37770  10.965  24.027  17.577 -0.3546  0.0993  0.1153
94755W        W37771  10.805  13.472  15.522  0.1469  0.0836  0.2879
94756W        W37772  23.635  17.176  28.722  0.0621 -0.1155  0.2114
94757W        W37773  30.043  25.047  27.030  0.1376 -0.0529  0.0912
94758W        W37774  18.537  23.628  22.286  0.0315  0.2415 -0.0781
94759W        W37775  20.794  34.727  26.454 -0.0945  0.0503 -0.0391
94760W        W37776  20.937  29.088  23.349 -0.0652  0.1161 -0.1815
94761W        W37777  17.609  29.610  18.116  0.1167 -0.0817 -0.0177
94762W        W37778  30.909  17.312  25.020  0.0579 -0.1018 -0.2590
94763W        W37779  20.305  21.092  23.784 -0.0826 -0.2009  0.0627
94764W        W37780  10.574  17.401  17.043  0.1892 -0.1055 -0.2483
94765W        W37781   9.657  24.384  24.648  0.1324  0.1380  0.1192
94766W        W37782  19.140  20.849  22.811  0.0075 -0.1159 -0.0865
94767W        W37783  34.773  20.927  21.272 -0.1698 -0.1147 -0.1348
94768W        W37784  18.078  13.619  28.870  0.1173  0.0301  0.2408
94769W        W37785  32.115  14.919   6.277 -0.2775  0.1310  0.4397
94770W        W37786  16.435   4.554  24.740  0.3269 -0.0298 -0.3520
94771W        W37787   8.188  31.217  28.482 -0.1458  0.2202 -0.3572
94772W        W37788  27.699   3.698  18.467 -0.1994  0.0116  0.0225
94773W        W37789  11.356  10.682  24.310  0.1217 -0.0893 -0.0973
94774W        W37790  14.611  33.272  23.416 -0.4409 -0.0347 -0.1190
94775W        W37791  18.773  18.400   6.545  0.0021  0.1906 -0.0012
94776W        W37792   7.112  22.858  25.944 -0.1463 -0.0133 -0.1297
94777W        W37793  10.848  32.476  22.562  0.1979 -0.2515  0.1234
94778W        W37794  11.002  30.094  14.212 -0.1327  0.2195  0.1901
94779W        W37795  27.676  32.247   8.002 -0.1403 -0.0306  0.1906
94780W        W37796  34.608  24.316  27.609 -0.0582  0.1877  0.1566
94781W        W37797  21.299   1.299  18.440  0.1320 -0.3054 -0.0992
94782W        W37798  24.913  17.893  26.754 -0.0674  0.1166 -0.0127
94783W        W37799  25.793  11.644   2.103 -0.2250 -0.3322 -0.2792
94784W        W37800  18.997  25.236   1.099  0.0183 -0.1517  0.1396
94785W        W37801   4.640  18.125  13.227  0.1114 -0.0576  0.0291
94786W        W37802  30.768   1.586   2.171  0.1255  0.1130 -0.0081
94787W        W37803  10.036  19.087  16.041  0.1692  0.3100  0.2789
94788W        W37804  15.131  17.735  12.871 -0.0606  0.3261 -0.2796
94789W        W37805  10.519  21.153  21.591  0.0889  0.3267 -0.0754
94790W        W37806  31.843   0.032  28.844  0.0861  0.0354 -0.2890
94791W        W37807  14.634  16.690  14.377  0.0241 -0.3196 -0.2565
94792W        W37808  15.322  28.482  26.200  0.0083  0.1695 -0.1816
94793W        W37809  20.798  16.987  16.186  0.1868 -0.1278 -0.0791
94794W        W37810  17.239   0.607  24.915  0.2838 -0.0241  0.1160
94795W        W37811  14.539  31.380  26.400 -0.0647 -0.2296  0.0386
94796W        W37812  10.531   7.533  24.110  0.0919  0.0964  0.0853
94797W        W37813  25.034   2.504  18.003 -0.0073 -0.1200  0.1307
94798W        W37814  19.876  23.634  15.746  0.2196 -0.0717  0.3181
94799W        W37815  30.132  30.656  24.901 -0.1737  0.1594  0.1050
94800W        W37816  17.734  21.821  15.512 -0.1505  0.1198 -0.3455
94801W        W37817  26.619  24.069   8.205 -0.0007  0.0218  0.2318
94802W        W37818  30.356  24.101  20.654 -0.1963 -0.0688 -0.0484
94803W        W37819  29.407  22.450  26.952 -0.2183  0.2320  0.2533
94804W        W37820   0.646  29.049   8.012 -0.2601  0.1481 -0.0441
94805W        W37821  10.398  29.711  17.238 -0.1499 -0.0385  0.0159
94806W        W37822  17.227   2.361  16.395  0.1249  0.1779 -0.1205
94807W        W37823  10.913  21.167  15.324  0.0888 -0.0285 -0.2276
94808W        W37824  32.045   2.721  25.440 -0.0438 -0.1314 -0.1358
94809W        W37825   4.642   2.734  25.298 -0.1327 -0.0383  0.0407
94810W        W37826  31.378  29.926  20.747 -0.1341  0.0025 -0.2219
94811W        W37827   0.184  24.197  18.710 -0.1124 -0.1790  0.1296
94812W        W37828  19.245  21.354  12.758  0.0827 -0.1007 -0.0128
94813W        W37829  18.606  28.641  20.854 -0.1750  0.1625  0.2483
94814W        W37830  10.624  20.779  14.026  0.1035 -0.0960 -0.1099
94815W        W37831  30.835   0.432  25.837 -0.0362 -0.0238 -0.2826
94816W        W37832   9.417  17.194  16.630 -0.0031 -0.1448  0.0053
94817W        W37833  15.761  22.350  20.500 -0.0020 -0.1709  0.2830
94818W        W37834  29.604  33.766  27.310 -0.0586  0.3824  0.2486
94819W        W37835  28.953  17.977  21.072 -0.1003 -0.0652  0.1870
94820W        W37836  23.427  18.734  17.696 -0.0204  0.2037  0.0623
94821W        W37837  30.547  29.466   3.249  0.2594 -0.3134  0.2369
94822W        W37838   0.544  29.584  27.595  0.0359  0.2387 -0.3122
94823W        W37839  25.455  12.874  18.147 -0.1354  0.0135 -0.2398
94824W        W37840  14.013  25.807   1.190 -0.0477  0.1909  0.1810
94825W        W37841  31.536  27.434   5.292  0.1456 -0.1218  0.0211
94826W        W37842  18.291  33.699  20.981 -0.1069  0.0448  0.0006
94827W        W37843  23.013  29.075  27.306  0.1040  0.1084  0.0970
94828W        W37844  12.635  22.665  16.633  0.0418  0.1196  0.2126
94829W        W37845  15.642  29.452  21.962 -0.0354  0.1159 -0.0597
94830W        W37846  28.847  25.974  17.798 -0.1661  0.0311  0.2251
94831W        W37847  34.716  29.757  27.751 -0.0124  0.0007  0.3030
94832W        W37848  23.773  25.850  16.253  0.3090 -0.1494  0.1109
94833W        W37849  22.088   2.206  20.812 -0.1081  0.3556  0.0244
94834W        W37850  11.045  20.937  13.853 -0.3104 -0.3744 -0.0798
94835W        W37851  22.093  29.082   1.332 -0.2451 -0.3357  0.0869
94836W        W37852  26.253   3.131  22.612 -0.1221  0.2441 -0.3442
94837W        W37853  15.859   6.288  22.655  0.2050  0.0120 -0.0489
94838W        W37854  23.929  11.719  21.076 -0.1291 -0.4760  0.0726
94839W        W37855  15.373  31.699  19.673 -0.2672  0.3952 -0.1314
94840W        W37856   4.100  29.228   5.100 -0.3783  0.0815 -0.3543
94841W        W37857  19.404  21.351  13.296  0.3305  0.0976  0.4983
94842W        W37858  20.619  13.253  21.305 -0.1670 -0.1253  0.3594
94843W        W37859  26.625   9.438  26.675 -0.0353  0.0829  0.3222
94844W        W37860  16.957   0.197  20.995 -0.0832 -0.1597  0.1184
94845W        W37861  19.102   7.259  17.392 -0.1314  0.0236 -0.0690
94846W        W37862  11.240   6.594  16.101 -0.0187 -0.0476 -0.2434
94847W        W37863   3.797  15.366  14.077 -0.2632  0.2683 -0.1472
94848W        W37864  13.281  21.387  24.101 -0.1050  0.3324  0.0891
94849W        W37865   5.130   1.265  22.414 -0.1033  0.2437 -0.0912
94850W        W37866  32.014  17.237  15.794  0.3545  0.0859  0.1824
94851W        W37867  10.186  33.221  23.123 -0.0666  0.0357  0.0236
94852W        W37868  15.164  25.225  27.850  0.0292 -0.1396 -0.0608
94853W        W37869  30.533   3.112  19.230 -0.3798  0.1353 -0.1581
94854W        W37870  22.059  22.569  18.497 -0.1339  0.0908  0.0232
94855W        W37871  12.151  24.402  23.322 -0.0528 -0.5217  0.0664
94856W        W37872  19.338  23.284  15.374  0.0376  0.1957  0.0717
94857W        W37873  32.989  22.494  24.820 -0.3678  0.1769  0.0418
94858W        W37874  22.463  25.221  21.901 -0.2679 -0.0670 -0.1253
94859W        W37875  26.162  29.790  21.642 -0.0031  0.3523 -0.0950
94860W        W37876  21.368  22.929  13.100  0.2019  0.0986  0.3083
94861W        W37877  11.016  28.192  22.051 -0.1855  0.2940 -0.1556
94862W        W37878  13.668  25.261  17.686  0.2930  0.0278  0.1179
94863W        W37879  21.294  34.486  22.760 -0.0364 -0.0455  0.3507
94864W        W37880  20.944  30.730  27.269 -0.0799 -0.0517 -0.1188
94865W        W37881  19.992  34.296  15.511  0.1403  0.0529  0.0694
94866W        W37882  15.442  26.068   1.024 -0.3097  0.1487 -0.0353
94867W        W37883  16.160  18.848  21.150 -0.0936  0.1582 -0.2502
94868W        W37884  25.712  28.986  19.833 -0.1429  0.2792 -0.0380
94869W        W37885  11.290  24.223  18.681  0.0846  0.0494  0.0731
94870W        W37886  25.050  14.344  18.143  0.2631 -0.1024 -0.3990
94871W        W37887  22.075  21.348  22.387  0.1206  0.0583  0.0209
94872W        W37888   9.761  23.790  12.605  0.1930  0.3621  0.1106
94873W        W37889  25.969  19.652   2.943  0.0484 -0.1865 -0.2266
94874W        W37890  18.789  24.171  23.959  0.0748 -0.3233  0.2247
94875W        W37891  26.130   6.750   2.354  0.1646  0.1617  0.1346
94876W        W37892  22.793   9.924  20.483 -0.0987 -0.4760 -0.1696
94877W        W37893  12.575  23.761  22.433  0.0620  0.2898 -0.0230
94878W        W37894  17.268  21.937  22.728 -0.0887  0.6760 -0.0917
94879W        W37895  15.811  14.696  24.255 -0.1696  0.0743 -0.1884
94880W        W37896  23.066  24.814  20.120 -0.0029 -0.0346 -0.1372
94881W        W37897  23.548  30.027  11.718  0.1469  0.0278  0.4355
94882W        W37898  11.984  26.004  27.140 -0.0864 -0.0948 -0.1116
94883W        W37899  20.021  25.247  16.003  0.0080 -0.3414 -0.1837
94884W        W37900  17.946  28.110  17.679  0.0305 -0.4706  0.2488
94885W        W37901  20.356  22.640  16.215 -0.0773 -0.0325  0.0757
94886W        W37902  25.363  24.876  23.581  0.0498  0.0144 -0.0362
94887W        W37903  18.007  25.787  24.354 -0.0599  0.0895 -0.3077
94888W        W37904   5.896  15.660  14.573 -0.0825  0.0001 -0.3912
94889W        W37905  24.423   8.627   2.464  0.0739 -0.0186  0.1471
94890W        W37906  13.389   3.763  18.814  0.0247  0.0902 -0.1682
94891W        W37907  19.440  25.941  19.185  0.3026  0.0884  0.0749
94892W        W37908  27.734  31.130   5.727 -0.0430 -0.1015 -0.1019
94893W        W37909  11.931   3.226  17.970 -0.1237  0.4021  0.0531
94894W        W37910   6.947  30.174  22.648  0.1677 -0.3702 -0.1474
94895W        W37911   4.333  32.260  24.394 -0.3601 -0.0060 -0.1888
94896W        W37912  15.227  21.426  20.840  0.0133 -0.2394 -0.0415
94897W        W37913  26.532   6.256  22.529 -0.0518  0.0149  0.2928
94898W        W37914   4.011  21.242  19.977  0.1020  0.0821 -0.2243
94899W        W37915  32.656  30.769  26.188  0.1023  0.0724  0.2481
94900W        W37916  19.163  27.141  17.559 -0.0475  0.1249  0.1579
94901W        W37917  15.992  11.777  15.175 -0.2240 -0.2968 -0.1824
94902W        W37918  11.861  29.974  19.889 -0.0970 -0.0098 -0.1482
94903W        W37919  10.442   1.504  24.381 -0.1237 -0.0875  0.1667
94904W        W37920   3.440  31.324  25.812 -0.2942 -0.2439 -0.0088
94905W        W37921  13.024   5.383  14.572  0.1260  0.1125  0.2493
94906W        W37922  18.267  20.741  26.841 -0.3122  0.1777 -0.0275
94907W        W37923  23.982  20.550   6.219  0.2798  0.0959 -0.4020
94908W        W37924  22.483  21.546   3.632 -0.0509  0.1795  0.0642
94909W        W37925  30.210  34.578  16.462  0.4705  0.0627 -0.0354
94910W        W37926  22.589  26.227   5.500  0.1356 -0.0121 -0.0990
94911W        W37927  22.444  26.476  23.159 -0.0440 -0.0182 -0.0564
94912W        W37928  26.118  24.116  20.964  0.1204  0.4818 -0.2157
94913W        W37929  21.071  31.971   6.715  0.0826 -0.1531  0.1684
94914W        W37930   6.892  30.480  26.155  0.0399  0.0951 -0.0083
94915W        W37931  21.487  20.381  23.110 -0.1053 -0.0492 -0.1005
94916W        W37932  26.687  29.692  25.239 -0.0443  0.0397 -0.0272
94917W        W37933  28.409  24.346  21.993  0.1514 -0.0452 -0.0050
94918W        W37934   1.541  13.755  23.306 -0.1694  0.0955  0.1116
94919W        W37935  22.150  34.019   6.995  0.0743  0.0130  0.0026
94920W        W37936  26.731  23.793  17.156  0.3107 -0.1176 -0.1331
94921W        W37937  27.275  33.184  24.029  0.1376  0.2798 -0.3237
94922W        W37938  20.466  25.968  28.609  0.1809 -0.1519  0.0509
94923W        W37939   8.376  19.856  16.190  0.0203 -0.0334 -0.1504
94924W        W37940  20.775  33.526  22.463  0.0459  0.2153 -0.0362
94925W        W37941  11.198  31.205  23.254  0.0324 -0.1496  0.0675
94926W        W37942  25.439  22.163  20.447 -0.2921  0.0266 -0.1259
94927W        W37943  23.425  30.418  24.812  0.1101 -0.3387 -0.2485
94928W        W37944  16.145   8.291  20.597 -0.0934 -0.0278 -0.2751
94929W        W37945  26.077  28.427   1.338  0.1192  0.2512  0.0040
94930W        W37946   6.170  25.667  18.943 -0.1710  0.1278 -0.1821
94931W        W37947   8.527   0.468  24.812  0.1086  0.0931 -0.1882
94932W        W37948  13.099  24.544   6.879  0.1770  0.3692 -0.0160
94933W        W37949  15.626  21.071  13.662  0.3300  0.0058 -0.2379
94934W        W37950  27.798  31.481  20.304 -0.0775 -0.0675  0.0869
94935W        W37951  22.763  12.525  18.762  0.2212 -0.1113 -0.3455
94936W        W37952   1.257  31.446  25.783 -0.0989 -0.3170  0.2686
94937W        W37953  25.576  26.956  26.037 -0.2224 -0.1706  0.3369
94938W        W37954  14.216  29.678  17.339  0.2355  0.1658 -0.1234
94939W        W37955  29.297  27.284   2.765  0.0550  0.3495 -0.0262
94940W        W37956  30.166  32.996  24.422 -0.3173 -0.0486 -0.0941
94941W        W37957   3.365  30.980  20.202 -0.0418  0.0300 -0.1628
94942W        W37958  22.114  28.088  14.438  0.1057  0.4517  0.1833
94943W        W37959  22.498  30.928  19.599 -0.2297 -0.2750 -0.2854
94944W        W37960  24.095  25.612  24.304  0.2985 -0.2344 -0.1518
94945W        W37961  31.260  31.481  21.523  0.1069  0.1429 -0.1648
94946W        W37962   8.515  26.944  16.440 -0.2061  0.2711  0.2740
94947W        W37963  22.447   2.332   0.714  0.3825 -0.2174 -0.0450
94948W        W37964  17.531  31.982  22.180 -0.1851 -0.1379  0.0628
94949W        W37965  11.768   0.144  17.735 -0.1504  0.2820  0.0275
94950W        W37966   2.104  23.166  20.860  0.2394  0.1489  0.0519
94951W        W37967   9.190  29.278   8.080  0.0273 -0.3092  0.0979
94952W        W37968   9.062  22.225  20.797 -0.0378 -0.2507 -0.1409
94953W        W37969  25.808  14.456  21.601  0.2361 -0.0310 -0.0779
94954W        W37970  30.236  34.158  21.036 -0.0268 -0.0445 -0.1620
94955W        W37971  24.903   3.950  16.209 -0.3543 -0.0814 -0.0326
94956W        W37972  24.504  23.128  23.610  0.0282 -0.0610 -0.1213
94957W        W37973  20.407  33.827   1.610  0.0702  0.0309 -0.1599
94958W        W37974  30.285  32.152  24.716 -0.3759 -0.1032  0.0500
94959W        W37975  27.236  15.785   8.528  0.0664  0.5923 -0.0302
94960W        W37976  27.938  16.152  17.561 -0.0416  0.0021 -0.1969
94961W        W37977  20.813   2.837  14.063 -0.3576  0.0134  0.0486
94962W        W37978  12.749  28.051  16.055  0.3726  0.3674 -0.1019
94963W        W37979  29.546  18.012  16.345 -0.0191 -0.1859  0.0991
94964W        W37980  15.417   4.431  17.451  0.2385 -0.5003 -0.1843
94965W        W37981  10.308   0.427  22.058 -0.4238 -0.1414 -0.0477
94966W        W37982  24.313  20.481  18.021 -0.0380  0.0128  0.2324
94967W        W37983   6.548  34.456   4.325 -0.2499 -0.2169 -0.2846
94968W        W37984  19.069   7.619  21.615  0.1159  0.1138 -0.1649
94969W        W37985   5.983  13.524   5.152  0.1408  0.1407 -0.0332
94970W        W37986  11.509  18.294  17.052  0.1383 -0.2768  0.0812
94971W        W37987   9.342  18.527  14.789  0.1693  0.1606  0.3398
94972W        W37988  14.657  27.522  21.456  0.0326  0.2428  0.3424
94973W        W37989   0.540  16.350  14.913 -0.0217  0.0938 -0.2734
94974W        W37990   4.977  18.889  16.416 -0.0491 -0.1883 -0.0861
94975W        W37991  22.118  32.862   6.632 -0.1275  0.0660 -0.2819
94976W        W37992  13.010  33.206  22.279 -0.1868 -0.0802 -0.0574
94977W        W37993  30.159  26.813  22.373 -0.0803  0.0035 -0.0263
94978W        W37994  26.288  16.578  20.214 -0.0067  0.0396  0.1364
94979W        W37995  32.113  26.110  26.143  0.0783 -0.0544  0.3422
94980W        W37996  17.539  32.866  15.191 -0.4589 -0.1975  0.0584
94981W        W37997  24.446  31.178  15.002 -0.0989  0.1587  0.0854
94982W        W37998  13.321  31.845  15.084  0.0138 -0.0841  0.0687
94983W        W37999   1.236   4.162  17.294  0.1801 -0.3889 -0.0875
94984W        W38000  12.820  27.574  23.765  0.1034 -0.3306  0.1273
94985W        W38001  28.836  27.398   2.068 -0.1611 -0.0037  0.0710
94986W        W38002  25.110   1.684  24.113  0.3414  0.1645 -0.0620
94987W        W38003  22.124  33.811  20.291  0.0468  0.0347 -0.0385
94988W        W38004  18.790  21.889  22.092 -0.2109  0.1923 -0.2271
94989W        W38005  10.089  20.763  15.312 -0.0105 -0.0874  0.1712
94990W        W38006  13.113  33.925  19.229  0.0160  0.0660 -0.1332
94991W        W38007  31.390  30.689  19.874 -0.2681  0.3128 -0.0203
94992W        W38008  21.060  24.408  14.477  0.0444  0.0325 -0.0287
94993W        W38009  14.101   8.748  15.211  0.2121  0.2644 -0.1959
94994W        W38010  19.238  30.097  17.117 -0.1349  0.0299  0.0711
94995W        W38011  29.390  26.427  22.608  0.4950  0.0177 -0.0827
94996W        W38012   9.797  22.531  16.816  0.0352 -0.2117 -0.1237
94997W        W38013  19.606   8.730  18.830 -0.0159 -0.2064  0.1780
94998W        W38014  24.834  17.042  14.445  0.0379 -0.0516 -0.2666
94999W        W38015  22.697  12.556  14.980 -0.2070  0.1490  0.0403
95000W        W38016  23.686  24.492  17.964 -0.1376 -0.2513  0.1733
95001W        W38017  13.442   0.168  22.434  0.0315 -0.1155 -0.3325
95002W        W38018  23.967  26.270  20.102  0.1669  0.2345  0.1653
95003W        W38019  21.344  17.957  25.775 -0.0354  0.0940 -0.1281
95004W        W38020   8.339  28.370  28.006 -0.1928 -0.0744  0.0873
95005W        W38021  21.656  18.595  15.189 -0.1197 -0.3359  0.3172
95006W        W38022  12.256  16.553   3.610  0.2719 -0.2022 -0.0150
95007W        W38023  32.931  11.735   1.892 -0.0215  0.1657 -0.1111
95008W        W38024  26.635  15.748   3.015  0.1046  0.0419  0.0885
95009W        W38025  33.726  19.843  21.176 -0.0376 -0.1412  0.0184
95010W        W38026  30.544  27.634   7.723  0.1749  0.1119  0.0777
95011W        W38027  27.382  30.899  20.013  0.0172  0.2286  0.0115
95012W        W38028  22.294  23.521  21.589 -0.3853 -0.0555  0.1861
95013W        W38029  16.571  13.878  26.435 -0.0916  0.1209 -0.1180
95014W        W38030  21.767  33.802   3.457  0.1671 -0.1786 -0.1117
95015W        W38031   6.272  33.362  27.074  0.2288  0.2123 -0.2265
95016W        W38032  32.655   4.739  20.971 -0.1847 -0.2919  0.2174
95017W        W38033  10.736  27.274   8.721  0.1139 -0.0268 -0.2325
95018W        W38034  15.216  23.609  17.308 -0.1055 -0.2684  0.0282
95019W        W38035  12.735   1.875  22.778 -0.0984 -0.2085  0.1280
95020W        W38036  10.114  10.030  19.673 -0.4898 -0.3597 -0.1320
95021W        W38037  18.553  30.655  10.942 -0.0951 -0.1870 -0.2625
95022W        W38038  22.695  29.231  25.152 -0.2205  0.0414 -0.3727
95023W        W38039  21.858  34.517  16.493 -0.0371 -0.0594  0.0153
95024W        W38040  28.165   9.571   2.457 -0.3637  0.2742  0.1859
95025W        W38041  23.869  12.941   1.479 -0.0893 -0.1768 -0.0102
95026W        W38042  20.460  30.062   9.185  0.1275  0.0186  0.3403
95027W        W38043   6.022  29.423   9.587 -0.1593  0.0325 -0.2385
95028W        W38044  28.560   6.905  17.257  0.3879 -0.2108 -0.4017
95029W        W38045  20.028  23.015  17.529  0.2291  0.1221  0.0656
95030W        W38046  22.170   7.628  22.719  0.3161  0.1600  0.0324
95031W        W38047  29.742  21.099   1.409  0.2331  0.0069 -0.0796
95032W        W38048  23.892   9.700  27.398  0.0346 -0.1423  0.1739
95033W        W38049  30.436   5.248   2.752  0.2266  0.0278 -0.2534
95034W        W38050  24.402  11.033  18.996  0.2140 -0.0246 -0.1186
95035W        W38051  20.102   1.130  19.064 -0.1197 -0.1524 -0.2027
95036W        W38052   8.745  18.380  14.593 -0.0780  0.1000 -0.0362
95037W        W38053  32.643  22.036  20.330 -0.2681 -0.1532  0.0127
95038W        W38054  23.862  27.348  20.117 -0.2443 -0.0838 -0.2169
95039W        W38055  14.121  25.734   2.208  0.0662  0.1687 -0.4561
95040W        W38056  14.819  12.540  12.349  0.2990 -0.1775 -0.2834
95041W        W38057  24.546  18.863  23.196  0.3162 -0.1770  0.1273
95042W        W38058  21.125  25.574  15.831  0.0664  0.1247  0.1589
95043W        W38059   1.361  29.978  17.341  0.1807 -0.0885  0.1048
95044W        W38060   8.203  29.015  15.372  0.1726  0.1838 -0.1016
95045W        W38061  28.756  22.949  15.709 -0.3159 -0.0849 -0.2976
95046W        W38062  32.846  15.442  21.595 -0.0767 -0.0092  0.1125
95047W        W38063  19.109  24.703  16.410  0.2424 -0.1376 -0.0499
95048W        W38064  24.899  30.043  19.200 -0.2034 -0.2246 -0.1387
95049W        W38065  12.214  32.929  21.961 -0.2718  0.1492  0.1206
95050W        W38066  19.045  31.762   2.726  0.2123 -0.3362 -0.0596
95051W        W38067  34.497   5.416  13.992  0.0386  0.1726  0.2945
95052W        W38068   9.653   1.586  15.874  0.0390 -0.1240 -0.3263
95053W        W38069   9.530  17.932   3.281  0.2218  0.0100  0.2877
95054W        W38070  25.792  26.774  21.003  0.2387  0.0371 -0.1748
95055W        W38071   9.674  33.901  17.193  0.0273  0.0947  0.0068
95056W        W38072  30.332  20.250  15.761 -0.3388 -0.2444  0.2227
95057W        W38073  23.634   6.430   7.925  0.0586  0.2789 -0.1702
95058W        W38074   3.404  26.865  19.260  0.0608 -0.0128  0.2538
95059W        W38075  21.879  22.356   7.747 -0.0034 -0.2474 -0.0754
95060W        W38076  17.451  15.300  28.448 -0.0214 -0.3297 -0.2548
95061W        W38077  18.268  20.766   3.969  0.1680 -0.1968 -0.1413
95062W        W38078   7.222  31.619  16.009 -0.3680 -0.1210  0.1138
95063W        W38079  31.814  20.400   5.710 -0.1677  0.1835  0.0805
95064W        W38080  23.378  29.437  19.987 -0.0548  0.1650  0.2035
95065W        W38081  28.927   4.681   4.681 -0.0556  0.5744 -0.1288
95066W        W38082  25.858   7.635  22.433  0.1629  0.2121  0.0785
95067W        W38083  16.648   7.333  24.760  0.1527  0.1871 -0.1814
95068W        W38084  20.473  23.737  23.960 -0.0285 -0.0517 -0.1201
95069W        W38085  32.660   6.500  19.570 -0.1089  0.3121  0.2194
95070W        W38086  20.822  23.882   2.864 -0.0692 -0.0117 -0.0461
95071W        W38087   1.650   6.180  22.949  0.0547  0.0926 -0.1447
95072W        W38088  15.042  29.622  15.666  0.1229  0.1696 -0.0024
95073W        W38089  16.768  32.464  25.858 -0.0756 -0.0334 -0.2225
95074W        W38090  16.491  30.378  16.735 -0.0082  0.0321 -0.1088
95075W        W38091  12.012  30.982  26.737 -0.1380 -0.1763 -0.0294
95076W        W38092  32.989  32.416  26.526  0.1834 -0.2491  0.0425
95077W        W38093  24.473  28.087   6.489  0.0556 -0.0510 -0.0144
95078W        W38094  29.284  30.102  21.480 -0.1994 -0.1412  0.2869
95079W        W38095  22.043   0.432  22.744  0.1031 -0.0945 -0.3760
95080W        W38096   9.514  25.519   2.919  0.2813  0.4630  0.1231
95081W        W38097  18.572   6.922   2.473 -0.0065 -0.3371  0.0169
95082W        W38098  31.379  20.857  21.216  0.2475  0.0755  0.2046
95083W        W38099   9.529  29.803  14.356  0.1095 -0.1105 -0.1730
95084W        W38100   7.896  22.957  26.143 -0.2067  0.2941 -0.1073
95085W        W38101  18.347  28.485  25.420  0.0238 -0.1709 -0.2077
95086W        W38102   3.356   8.952  19.760  0.1621 -0.1737 -0.1130
95087W        W38103  26.487  32.559  10.853  0.1835 -0.0958  0.0058
95088W        W38104  16.395   5.591   4.300 -0.1410 -0.2232 -0.1577
95089W        W38105  16.510  25.566   8.133 -0.1921  0.2847 -0.0118
95090W        W38106  27.392  26.332  27.511 -0.3230  0.0153 -0.2110
95091W        W38107  17.503   7.540   9.688 -0.8221  0.0434 -0.0160
95092W        W38108  23.465  24.549  21.043 -0.2969 -0.1674  0.0945
95093W        W38109  25.623   2.878  16.719 -0.0377 -0.0901 -0.1255
95094W        W38110  21.721  25.103  19.352 -0.1054 -0.1544 -0.0902
95095W        W38111   8.665  27.841   3.570  0.0468 -0.0003 -0.0800
95096W        W38112   4.294   5.657  24.496 -0.0104 -0.2409  0.0114
95097W        W38113  17.425   2.419   9.390 -0.1484  0.0401  0.1854
95098W        W38114  24.759  27.146  17.957 -0.3140 -0.0782  0.5808
95099W        W38115  18.455   2.678  28.151 -0.1739 -0.1545 -0.1122
95100W        W38116  30.719   5.999  18.200 -0.3165  0.3314  0.3088
95101W        W38117  12.708  29.574  17.876 -0.2209 -0.0466 -0.0099
95102W        W38118  24.070  21.303  21.414 -0.3417 -0.0553 -0.2434
95103W        W38119   9.432  29.414   2.766  0.1469 -0.0485 -0.0078
95104W        W38120  11.182   1.957  20.360  0.6060  0.1220 -0.6328
95105W        W38121  23.545  34.242  23.396  0.3648  0.0490  0.0437
95106W        W38122  19.435  10.485  27.094  0.1841 -0.0572  0.1381
95107W        W38123  17.106  33.449   3.141 -0.4751  0.1437 -0.2276
95108W        W38124  19.196   4.429   3.577 -0.1136  0.2517 -0.1381
95109W        W38125  16.587  22.590  15.548 -0.1000 -0.2171 -0.2652
95110W        W38126   8.701   1.840   2.144  0.2845 -0.0929  0.0612
95111W        W38127  13.336  13.723  28.427 -0.1538  0.2895  0.0061
95112W        W38128  23.197  26.388   3.833  0.0231 -0.1410  0.0158
95113W        W38129   1.069  32.529   1.117  0.4336 -0.1639  0.1583
95114W        W38130  15.498   7.861  25.522 -0.1610  0.1367  0.0666
95115W        W38131  16.652  29.413  17.627 -0.2991  0.1978  0.2358
95116W        W38132  21.527  27.588  20.383  0.2592  0.2496 -0.0348
95117W        W38133  12.121  21.518  25.667  0.0552  0.0136  0.1231
95118W        W38134  17.905  31.406   6.460  0.0242 -0.1661 -0.0672
95119W        W38135   7.997  29.326  23.059 -0.1924  0.3115  0.0651
95120W        W38136  23.625   0.845  21.952 -0.1090 -0.1784 -0.1683
95121W        W38137  28.641   6.884  27.503 -0.0824  0.1750  0.0065
95122W        W38138  32.354  25.556  25.419 -0.1221  0.1550 -0.0632
95123W        W38139  18.190  17.247  21.561 -0.0094  0.0617 -0.0270
95124W        W38140   3.288   2.327  18.582  0.1113 -0.1069 -0.1260
95125W        W38141  30.641   6.458   0.885 -0.1663  0.2965 -0.1168
95126W        W38142  20.085  18.399  13.337 -0.2081 -0.0935  0.1817
95127W        W38143  16.798  26.677  15.958  0.0901  0.4877 -0.2652
95128W        W38144  28.120  18.987  17.389  0.0377  0.1681  0.3347
95129W        W38145  18.450  29.199   8.290 -0.0463 -0.3752  0.1273
95130W        W38146  25.279  19.907  20.706 -0.3380 -0.4036  0.0261
95131W        W38147  30.851  30.622  27.521  0.2079 -0.2953  0.0328
95132W        W38148  11.658  30.120  28.061  0.2183 -0.2641 -0.2051
95133W        W38149  14.696  33.653  16.472 -0.0816  0.2012 -0.1478
95134W        W38150   0.877  23.180   6.276  0.1751  0.4015  0.3792
95135W        W38151  13.857   5.093   2.407  0.1343  0.0438  0.0976
95136W        W38152  17.965  32.238  22.381 -0.0191  0.6153  0.1820
95137W        W38153  33.392  29.261  20.192  0.1224 -0.1045 -0.0180
95138W        W38154  29.479   3.400  22.641 -0.0906 -0.0302 -0.1932
95139W        W38155  12.759  22.131  24.395  0.0859 -0.2412  0.0426
95140W        W38156  20.844   9.589  25.651  0.0641  0.0125 -0.1656
95141W        W38157  19.413  17.399  21.671 -0.1538 -0.0900  0.0553
95142W        W38158  15.044  21.110   7.401  0.0273  0.0194 -0.1949
95143W        W38159   8.913  22.584   0.617 -0.1893  0.0485 -0.0508
95144W        W38160  16.982  34.161  15.181 -0.2819 -0.1988 -0.0705
95145W        W38161   4.278  18.385  27.187  0.0811 -0.2944  0.2807
95146W        W38162  11.261  34.660  16.163  0.3869 -0.0993 -0.1352
95147W        W38163  21.560  23.835  14.191  0.2325 -0.3016  0.3096
95148W        W38164   6.489  33.703  23.975  0.0063  0.0428  0.1986
95149W        W38165  14.507   0.898  20.969 -0.2798  0.0574  0.1347
95150W        W38166   8.460  21.713   0.985  0.0029 -0.2292 -0.2802
95151W        W38167   8.798  24.645  16.083 -0.3478  0.0134  0.1467
95152W        W38168  11.238  31.156   1.082  0.0873  0.0509 -0.3134
95153W        W38169  14.447  29.621  19.701 -0.1205  0.1622  0.1094
95154W        W38170  21.891  12.989   5.828  0.0505 -0.1632 -0.0416
95155W        W38171  10.695  14.867  18.949 -0.3633  0.1495  0.3386
95156W        W38172   7.375  26.871  28.215  0.0164  0.0092  0.0511
95157W        W38173   6.456  29.087   1.104 -0.0523  0.0659  0.0921
95158W        W38174  30.722  26.531  15.450 -0.0726 -0.0537  0.0992
95159W        W38175  24.498  16.928  27.723 -0.0469  0.2464 -0.1500
95160W        W38176  24.706  29.521   2.809 -0.0939 -0.2445  0.1838
95161W        W38177  25.499  15.554  18.795 -0.2013  0.1768 -0.0238
95162W        W38178  16.113  28.042  22.988 -0.3440  0.2559 -0.1778
95163W        W38179   4.154  29.010  22.208  0.0853  0.1528 -0.2070
95164W        W38180  19.654  30.168  17.427  0.1836 -0.2378  0.0699
95165W        W38181  19.482  33.438   0.495  0.2081 -0.2386  0.1527
95166W        W38182  17.987  24.529   0.058  0.2921 -0.0910 -0.0357
95167W        W38183   5.747  13.893  24.742  0.1139 -0.4244 -0.0636
95168W        W38184  32.472  16.496   9.072 -0.1607 -0.0097 -0.1166
95169W        W38185  15.679  24.674  19.485  0.0643  0.0868  0.0828
95170W        W38186  23.714  16.615  16.175 -0.0086  0.0813 -0.3343
95171W        W38187  29.832   5.155  18.980  0.1564 -0.0894  0.2022
95172W        W38188   2.454  19.634  25.816 -0.0306 -0.1078 -0.0849
95173W        W38189  30.235  33.301  15.411 -0.0291  0.0273 -0.0333
95174W        W38190  22.166   4.691  15.000 -0.2077  0.2582 -0.1932
95175W        W38191  11.517  25.869  13.812  0.0221  0.2788  0.2945
95176W        W38192   9.646  17.275   1.232  0.1000  0.4043 -0.0304
95177W        W38193  31.769  33.229  24.009 -0.2417 -0.0249 -0.1219
95178W        W38194  23.681  24.994  26.866 -0.0485 -0.1495  0.2127
95179W        W38195  21.842  33.679   4.828 -0.1936  0.0836 -0.4282
95180W        W38196  25.328  21.644  24.745  0.2016  0.0803 -0.2212
95181W        W38197  28.778  20.043   9.243  0.0190 -0.0859  0.2083
95182W        W38198  19.959   5.055  26.567  0.1013 -0.0889 -0.1587
95183W        W38199  33.441  16.489   1.265  0.4139 -0.0594  0.0227
95184W        W38200   0.425  22.572  18.045 -0.2608  0.1026  0.2392
95185W        W38201  16.864   4.331  24.548  0.1413  0.0699  0.3884
95186W        W38202  22.198  23.819   0.077  0.0491  0.2508 -0.0263
95187W        W38203  18.662  24.826  15.654  0.1138 -0.1852 -0.0067
95188W        W38204  18.287  22.922   9.974  0.0810 -0.0664 -0.1244
95189W        W38205  16.896  28.183  20.391  0.0369 -0.1179  0.0310
95190W        W38206  17.440   1.815  28.746  0.0564  0.0092  0.0540
95191W        W38207  23.571  34.398   0.777 -0.1514  0.0835 -0.0616
95192W        W38208   9.797  33.952   5.564 -0.1544 -0.4629  0.0163
95193W        W38209   9.921  22.279  21.141 -0.2402  0.0612 -0.2263
95194W        W38210  15.502  33.437  16.113  0.0225  0.3247  0.0472
95195W        W38211   8.215  23.979  18.457  0.2056 -0.1322 -0.1017
95196W        W38212  24.559  20.006  27.855  0.0834 -0.0327  0.2392
95197W        W38213  11.570  27.053  18.548 -0.1978 -0.2344  0.0465
95198W        W38214  32.966  26.023  27.864  0.2128 -0.1133  0.0073
95199W        W38215  22.035   2.678  17.461 -0.0087  0.1645 -0.1520
95200W        W38216  34.662   5.950  18.423  0.1534 -0.3576  0.1723
95201W        W38217  13.315  28.225   4.021  0.0451  0.3224 -0.0534
95202W        W38218  27.591  26.830   0.245 -0.3212  0.1922 -0.2301
95203W        W38219   7.205  15.910  20.636  0.1429 -0.1222 -0.2041
95204W        W38220   8.915   5.570   1.864 -0.1545 -0.0628  0.0809
95205W        W38221   9.614  31.741   4.090 -0.1092  0.2200 -0.0168
95206W        W38222   0.140   0.347  20.392  0.3689  0.1899 -0.1186
95207W        W38223  25.002  21.942   4.102 -0.2444  0.0001 -0.0355
95208W        W38224  22.454  24.637   6.582  0.2091  0.0169  0.1722
95209W        W38225  32.121  31.888  19.759  0.1080  0.4024  0.1675
95210W        W38226  21.577  26.739  19.735 -0.3100  0.4056  0.2720
95211W        W38227  14.067  23.160  28.870  0.0373  0.1990  0.0802
95212W        W38228  29.368  28.277  18.828  0.0119  0.1876  0.0651
95213W        W38229  16.690  15.117  22.495  0.1161 -0.1751  0.2861
95214W        W38230  21.799  27.683  25.626  0.1478  0.1634  0.1745
95215W        W38231  34.555  28.131   4.855  0.0937 -0.0984 -0.1188
95216W        W38232  12.372  33.872   0.082  0.3499 -0.2843  0.0192
95217W        W38233  27.370  29.760  19.191  0.0093 -0.2991 -0.0891
95218W        W38234  15.428   1.075  25.315  0.0299 -0.2011  0.1945
95219W        W38235  30.117  14.203  26.861 -0.3159 -0.0194  0.0654
95220W        W38236  22.118  32.887   4.176  0.1307 -0.0160 -0.0724
95221W        W38237  12.616  27.844   1.476 -0.1357  0.4442  0.2315
95222W        W38238   4.061  26.420  16.706  0.0240 -0.4557 -0.0003
95223W        W38239   1.719  30.471   4.083 -0.0297 -0.0998  0.4239
95224W        W38240  32.100   6.067   6.021  0.0263 -0.1048 -0.3068
95225W        W38241  20.381   2.086   9.420  0.2217 -0.1709 -0.0803
95226W        W38242  21.477  29.755  25.561  0.2043  0.2321 -0.0246
95227W        W38243  17.682  31.198  23.020  0.1233  0.0356 -0.2326
95228W        W38244  14.137  22.902   5.869  0.1247 -0.1565 -0.1532
95229W        W38245  29.026  23.842  25.166 -0.2607  0.0020  0.0996
95230W        W38246   1.575  11.401   1.069 -0.1754 -0.3960 -0.2862
95231W        W38247   1.386  24.538  22.905 -0.0694  0.0196  0.1858
95232W        W38248   6.003  32.506  28.184 -0.0741 -0.3065 -0.0962
95233W        W38249  32.804  19.241   6.767  0.0209 -0.1408 -0.1831
95234W        W38250   3.301  23.025  16.752  0.1363  0.0635  0.0493
95235W        W38251  17.175  26.827  15.433  0.1450 -0.1256  0.1522
95236W        W38252  11.794  16.896  16.962 -0.2635 -0.2004  0.1803
95237W        W38253  23.166  27.118  21.474 -0.2014  0.2924  0.0600
95238W        W38254  14.739  18.793   0.433 -0.1161  0.1961 -0.0807
95239W        W38255  16.640  22.490   0.582 -0.0610 -0.0645 -0.0683
95240W        W38256  23.118  33.170  22.513  0.3033 -0.1169  0.1196
95241W        W38257  24.895  19.575  20.169  0.0177 -0.2834  0.0550
95242W        W38258   8.757   5.242   0.030 -0.0327 -0.1346 -0.0434
95243W        W38259  28.695  29.535  10.334  0.0200  0.3135  0.2109
95244W        W38260  21.783   0.644  28.477 -0.1788  0.0798 -0.0345
95245W        W38261   0.508  18.049  27.364  0.0559  0.1469  0.0108
95246W        W38262  15.605  27.576  17.493  0.1589  0.0237  0.1776
95247W        W38263  18.599  15.818  13.788 -0.1341  0.2051 -0.2301
95248W        W38264  24.806  27.588  11.664 -0.1540 -0.1883  0.1579
95249W        W38265  19.911   1.773   8.113 -0.3050 -0.1635  0.0311
95250W        W38266  34.529   4.710  24.434  0.1735  0.0444  0.2720
95251W        W38267  23.294  28.795  28.033 -0.0463 -0.0795 -0.1314
95252W        W38268  24.684   5.548   4.067  0.0510  0.1115  0.1230
95253W        W38269  19.601   1.359   9.433 -0.3192  0.0984 -0.2288
95254W        W38270  17.452   9.550   0.037 -0.4476 -0.1202 -0.0711
95255W        W38271  24.509  19.847   3.173  0.2464  0.0130  0.1444
95256W        W38272   8.216  11.840  15.715 -0.3693  0.1802 -0.2884
95257W        W38273   8.773  34.736   3.179  0.0796  0.2139  0.1131
95258W        W38274  11.273  22.545  18.312  0.0143 -0.1243  0.1142
95259W        W38275  12.890  25.599   1.165  0.0090  0.2344 -0.0215
95260W        W38276  31.088  24.007  20.673  0.1220 -0.0537  0.0064
95261W        W38277  23.745  33.760   1.274  0.0724 -0.3351  0.0244
95262W        W38278  20.733  23.645  16.899  0.0075 -0.0884  0.2382
95263W        W38279  28.293  26.227  10.620  0.2366 -0.1498  0.0523
95264W        W38280  31.762  23.035   6.802  0.2170 -0.5382  0.3342
95265W        W38281   1.144  18.915   3.555  0.1262  0.0028  0.0376
95266W        W38282   2.986   0.433  19.599 -0.0676  0.0461  0.1491
95267W        W38283  23.205   6.335  17.364  0.1196 -0.0074  0.1856
95268W        W38284  24.280  22.526  22.260  0.0864 -0.3053  0.1141
95269W        W38285   6.118  15.401  22.908  0.1385  0.1651 -0.1790
95270W        W38286  32.822  19.789   4.473  0.1328 -0.2585  0.0973
95271W        W38287  17.577   2.261  26.476  0.5499  0.0992  0.2375
95272W        W38288  23.720  32.333   3.523 -0.0260 -0.0179  0.1013
95273W        W38289  11.266  15.531  28.581  0.1238 -0.0829  0.3581
95274W        W38290  11.537  11.095  27.054  0.1658 -0.1828 -0.1626
95275W        W38291  27.580  10.223  24.720 -0.2878  0.1068 -0.1223
95276W        W38292  23.030  21.377  22.847  0.1321 -0.1337  0.1878
95277W        W38293  26.673  33.182   9.228 -0.1783 -0.0465  0.0009
95278W        W38294  28.046  17.197  19.728  0.1509  0.1737 -0.2448
95279W        W38295  14.796  23.967   1.978  0.2533 -0.1383 -0.1607
95280W        W38296  13.817  21.801  29.184 -0.1009  0.0447 -0.0007
95281W        W38297  17.646   1.052  21.215 -0.4212  0.0316  0.0765
95282W        W38298  16.224  33.375   5.688 -0.0614  0.1519  0.0901
95283W        W38299  25.915  11.862  15.343  0.0031  0.0337  0.0296
95284W        W38300  22.917  30.907  20.135  0.0563  0.1116  0.2348
95285W        W38301  16.969  16.243  17.997 -0.2602 -0.0817 -0.0857
95286W        W38302  29.654  17.270  16.347 -0.0307 -0.1804 -0.0346
95287W        W38303   3.020  11.482  23.961  0.0751 -0.0881  0.0781
95288W        W38304  26.492  20.486  21.761  0.2259  0.1044  0.2668
95289W        W38305  22.042  23.238   3.957 -0.0231  0.0046  0.3941
95290W        W38306  29.013  20.662  26.998 -0.0679  0.0274 -0.0710
95291W        W38307  23.722  10.385   4.641 -0.0236  0.0942 -0.1826
95292W        W38308   5.362  20.874  17.753  0.0390 -0.1133 -0.2896
95293W        W38309  32.063  25.213   6.483  0.1754 -0.0299  0.2344
95294W        W38310  13.205  24.249  28.788  0.1321 -0.1630 -0.1534
95295W        W38311  33.046  23.121  19.955  0.4041 -0.0594  0.3212
95296W        W38312  15.197  20.488  26.627  0.2794  0.2430  0.0871
95297W        W38313  16.859  32.710  15.923 -0.0675 -0.2080  0.2562
95298W        W38314  24.666  18.333  23.121 -0.0076  0.0727 -0.0784
95299W        W38315  12.817  29.297  16.108  0.2567 -0.4035  0.0243
95300W        W38316   6.989  12.424   3.012 -0.2813  0.1051  0.2166
95301W        W38317  18.568  23.331  16.170  0.1412  0.1965  0.0589
95302W        W38318  21.927  19.444   8.045 -0.3333 -0.0363  0.0132
95303W        W38319  21.091  24.108   4.434  0.0901 -0.0278  0.0952
95304W        W38320  17.426  30.446  17.855  0.0387  0.1597 -0.1031
95305W        W38321  19.031  30.326  25.784  0.0375  0.0403  0.0101
95306W        W38322  22.956  32.392  26.810  0.0034  0.0900 -0.2456
95307W        W38323  14.433   2.432   1.445  0.2767 -0.0525  0.0272
95308W        W38324  11.679   0.646  20.040  0.0098  0.2379  0.0439
95309W        W38325  22.387   6.829  29.042  0.0979 -0.1511  0.0201
95310W        W38326  13.509   6.583  14.241 -0.0590  0.2328 -0.1567
95311W        W38327  23.602   6.905  18.166 -0.0021 -0.1323  0.0532
95312W        W38328  16.994  22.220   6.133  0.2034  0.0110  0.3413
95313W        W38329  10.524  27.853  16.028  0.2421  0.3197  0.0638
95314W        W38330  12.870  33.030  29.066 -0.1533 -0.0367  0.1308
95315W        W38331  28.807  15.786   1.478  0.0082 -0.3742 -0.2955
95316W        W38332  23.927  19.246   4.023 -0.1250 -0.0421  0.0793
95317W        W38333  28.567  23.378  17.379  0.0088 -0.0398 -0.0483
95318W        W38334  31.927  24.337   1.012 -0.1039 -0.1811 -0.0944
95319W        W38335  24.868  32.032  14.913  0.0521  0.0298 -0.0855
95320W        W38336  20.754  10.653  24.244 -0.4816 -0.2586  0.2970
95321W        W38337  16.880  27.757   0.124 -0.1156 -0.1425  0.1460
95322W        W38338  10.591  19.026   5.547 -0.0429  0.1260  0.2908
95323W        W38339  15.214  32.434  18.069  0.2116  0.1372  0.1267
95324W        W38340  20.384   1.311  22.326 -0.0420  0.3167 -0.0585
95325W        W38341  30.302  25.654  19.266  0.1101  0.0632 -0.2389
95326W        W38342  19.299  13.782   6.269  0.2114 -0.0836  0.0364
95327W        W38343  24.990  19.342   1.380 -0.0846  0.0928  0.0713
95328W        W38344  27.164   0.081  19.134  0.1837  0.0809  0.3259
95329W        W38345  16.026  17.382   1.014 -0.0240 -0.0845 -0.0788
95330W        W38346  12.142  33.816   6.150 -0.2290 -0.1771 -0.2217
95331W        W38347  23.936  25.437  16.951 -0.2405 -0.1634 -0.2356
95332W        W38348   8.265  33.738  23.824 -0.5271  0.2562 -0.1682
95333W        W38349  25.829  26.847  15.425  0.0809  0.0296 -0.4042
95334W        W38350  14.347  25.044   0.767 -0.0829 -0.1601  0.4233
95335W        W38351  24.545  28.533   5.616 -0.3602  0.0571  0.0302
95336W        W38352  24.219   4.290  17.856  0.0247  0.1042 -0.2386
95337W        W38353  11.024  31.881   3.360 -0.0095  0.3821 -0.0044
95338W        W38354  25.071  21.086  18.949  0.1668  0.0291 -0.1566
95339W        W38355  22.511  21.131  26.647 -0.0133 -0.1044 -0.2126
95340W        W38356  17.041  28.317   0.151  0.1167 -0.2377 -0.3950
95341W        W38357   9.955  29.904  18.209 -0.0936  0.2120  0.0023
95342W        W38358   2.153   5.053  26.394 -0.3063 -0.3587 -0.2862
95343W        W38359   3.245  28.067  19.418  0.1110 -0.2760 -0.2015
95344W        W38360  18.765   5.782  15.663  0.1136 -0.1440 -0.1583
95345W        W38361  24.974  22.003  22.102  0.1280  0.3471 -0.2021
95346W        W38362  12.363  33.449  28.528 -0.0351 -0.0680 -0.0551
95347W        W38363  24.770  15.540  28.064  0.0311  0.3568 -0.0109
95348W        W38364  11.180  26.911  14.447 -0.1082  0.2345 -0.0505
95349W        W38365  33.562  12.975  24.768 -0.0819  0.0311  0.0856
95350W        W38366   1.951  19.421  27.224  0.1392 -0.3936  0.2315
95351W        W38367  17.261  34.210  27.629 -0.3632 -0.0103  0.1028
95352W        W38368  26.740  23.080  20.450  0.1769  0.3064  0.3107
95353W        W38369  21.418   5.804  28.150  0.2168  0.4234 -0.1244
95354W        W38370   9.944  33.208   2.376 -0.1287  0.0097 -0.0743
95355W        W38371  17.380  11.336  20.241  0.0380 -0.4448 -0.4328
95356W        W38372   3.512  16.126   5.247  0.1066  0.4172 -0.2173
95357W        W38373  21.466  31.553   8.782 -0.1910  0.2226 -0.1792
95358W        W38374  12.040  23.070   6.255 -0.3504  0.1103 -0.3350
95359W        W38375   0.112   9.081  23.921 -0.0501 -0.1718 -0.1559
95360W        W38376  22.389  22.418  24.681 -0.2086 -0.1141  0.1656
95361W        W38377  24.219  34.200  19.747 -0.1613  0.3676 -0.0712
95362W        W38378  21.035  25.947  27.294 -0.2158 -0.2474  0.2527
95363W        W38379   3.506   3.942  26.837 -0.2033 -0.1590 -0.1748
95364W        W38380  16.606  22.246   3.663  0.0045  0.0583  0.1158
95365W        W38381   9.594  30.870  24.405  0.2412 -0.2623  0.0156
95366W        W38382  16.065   1.816  23.214  0.0856 -0.1941  0.0479
95367W        W38383  26.962   2.620  21.593  0.1444  0.0383  0.7390
95368W        W38384  32.877  15.697   7.987 -0.0531 -0.0014 -0.0920
95369W        W38385  22.102   9.043   8.379  0.0987  0.1308  0.0346
95370W        W38386  34.598  25.928  28.467  0.0798  0.1711 -0.0880
95371W        W38387   6.833  19.457   5.875  0.1697  0.0638 -0.2334
95372W        W38388  32.253  24.735  20.559 -0.4507 -0.3515 -0.1788
95373W        W38389  11.295  13.904  19.722  0.4139  0.3347  0.1941
95374W        W38390  16.986  30.779  15.151  0.2388  0.0322  0.3160
95375W        W38391  22.140  19.372  29.135  0.1968  0.2171 -0.0768
95376W        W38392  14.218  25.776  18.311  0.1473  0.2066  0.0879
95377W        W38393  22.773  10.917   7.818 -0.1498 -0.0252  0.3744
95378W        W38394  21.328  10.008  23.871  0.0895 -0.2226  0.1129
95379W        W38395  24.580  21.250   3.352 -0.0240 -0.0825  0.1311
95380W        W38396  22.924  25.881   9.649 -0.1041  0.0996 -0.2738
95381W        W38397  23.510  27.419  15.488  0.2190 -0.3151  0.0876
95382W        W38398  26.821  17.017   9.833 -0.1563  0.1205 -0.0058
95383W        W38399  17.278  17.145   1.045 -0.2089  0.1588  0.2393
95384W        W38400  14.099  24.958  25.283 -0.0660  0.3008 -0.0547
95385W        W38401   2.723  32.279   7.530 -0.3843 -0.0263 -0.1152
95386W        W38402  13.972  24.333  26.067  0.3519  0.1242  0.0248
95387W        W38403  23.999  21.419   1.597  0.1093  0.2951  0.0410
95388W        W38404   3.296   8.161   9.029 -0.1896  0.1563  0.0616
95389W        W38405  23.653  29.882  25.659  0.1767 -0.3611 -0.2291
95390W        W38406  31.724  24.857  15.863 -0.0249 -0.0815  0.0060
95391W        W38407   8.552  18.363  21.703  0.2373  0.0001  0.0681
95392W        W38408  31.255   4.783   3.911  0.3338  0.0968 -0.2157
95393W        W38409  24.920  29.116  17.887 -0.3693  0.2555 -0.0879
95394W        W38410  17.232  11.598  28.238  0.1539 -0.2272 -0.1147
95395W        W38411  14.500   1.130  16.889 -0.4430 -0.3016 -0.2068
95396W        W38412  14.126  31.797  10.599 -0.0305 -0.2855  0.0827
95397W        W38413  14.564  15.463   1.473  0.4542 -0.0124  0.1723
95398W        W38414   6.902  29.091   1.978  0.0055 -0.1551 -0.1380
95399W        W38415  25.579  19.829   3.242 -0.0025  0.2276 -0.0236
95400W        W38416  17.185   0.013   2.177  0.1055  0.0061 -0.2783
95401W        W38417  29.276  24.511  20.699 -0.0804  0.2031 -0.2076
95402W        W38418  34.444  27.070  16.952  0.1438  0.2155 -0.3164
95403W        W38419   5.676  29.879  25.002  0.2297 -0.1714 -0.1434
95404W        W38420  18.527  33.437   1.557  0.1234 -0.0915  0.0260
95405W        W38421  20.841  23.258  13.979  0.2353  0.3657  0.0248
95406W        W38422   9.752  22.782   1.258 -0.1111 -0.1066  0.1902
95407W        W38423  17.339  31.390  15.846  0.0028  0.1965  0.0409
95408W        W38424  22.141  33.752   6.154 -0.0879 -0.0893  0.1894
95409W        W38425   9.252   1.046  24.046  0.1809  0.1579 -0.0756
95410W        W38426  24.651  22.397  28.639  0.0507 -0.2221 -0.3685
95411W        W38427  23.972  31.263   1.815 -0.2222  0.2392 -0.2686
95412W        W38428  16.562   6.488   2.186 -0.2057 -0.0068 -0.0204
95413W        W38429   6.358  10.678  27.735 -0.3739  0.0837 -0.1042
95414W        W38430   8.901   8.663   8.194  0.1522  0.2233  0.2399
95415W        W38431  28.070  24.354   1.024 -0.0875  0.0508  0.0620
95416W        W38432  11.704   6.692   6.919 -0.1269 -0.0354 -0.0603
95417W        W38433  20.309  22.797  28.675  0.1404 -0.0484  0.0801
95418W        W38434  14.328  10.393   2.526 -0.0403 -0.2390 -0.0186
95419W        W38435  24.043   8.711   5.138  0.0405  0.0944 -0.2304
95420W        W38436  32.831   0.005   3.785  0.2253 -0.2495 -0.1201
95421W        W38437  25.706   8.755   4.772  0.0212 -0.0736  0.2881
95422W        W38438  32.485  27.583   9.459  0.1990 -0.1731  0.3388
95423W        W38439  16.840  28.542   0.610  0.0950  0.1839 -0.3180
95424W        W38440  25.694  23.050  26.828  0.2566 -0.1073 -0.1009
95425W        W38441  13.970  32.149  23.208 -0.0281  0.1290  0.2942
95426W        W38442  33.516  22.169  27.512  0.1079 -0.1636 -0.1680
95427W        W38443  25.672  12.661  24.801 -0.2613  0.1877 -0.1269
95428W        W38444  15.687  32.258  26.165  0.0830 -0.1255 -0.1300
95429W        W38445  26.513  19.528  18.418 -0.1148  0.1855  0.2815
95430W        W38446  11.019  31.302   0.611 -0.1322 -0.2655  0.0437
95431W        W38447  27.678  31.677   0.455  0.0171 -0.0130 -0.0214
95432W        W38448   2.932  20.157  18.254 -0.3051 -0.0517 -0.2819
95433W        W38449  10.791  21.797  28.712 -0.1701 -0.2744 -0.0270
95434W        W38450   8.926  30.608  20.378  0.2074  0.0114 -0.0913
95435W        W38451  15.012  27.290  23.430 -0.1163  0.0832 -0.1045
95436W        W38452  21.112  28.908  18.093 -0.1184 -0.1874  0.0945
95437W        W38453  20.419   3.877  16.269 -0.1932 -0.0175 -0.1923
95438W        W38454   3.030  30.317   9.522 -0.4128  0.1267  0.1846
95439W        W38455  27.687  30.065  24.862  0.1481  0.1574  0.0127
95440W        W38456   6.241  31.167   4.216  0.1840 -0.1105  0.1525
95441W        W38457  13.953  14.499   2.044  0.1167  0.2494  0.2904
95442W        W38458   9.111  24.886  28.721 -0.1918 -0.3099 -0.2440
95443W        W38459  17.166   7.317  21.737 -0.0421 -0.0438  0.2067
95444W        W38460  18.937  16.697   0.876 -0.2028  0.2395 -0.3061
95445W        W38461  29.109  32.627  27.401  0.2699 -0.1973 -0.0266
95446W        W38462  16.726   4.539  21.922 -0.0781  0.2530  0.0802
95447W        W38463  25.181  25.080   0.348  0.2366 -0.1926  0.2074
95448W        W38464  17.816  30.526  14.798  0.1349  0.0159 -0.0952
95449W        W38465  15.095  31.902  10.922 -0.0526  0.2188  0.0626
95450W        W38466  15.928  18.910   3.081 -0.0477 -0.2611 -0.0140
95451W        W38467   2.051  25.962  22.321  0.0543 -0.0091 -0.2224
95452W        W38468  28.583  27.930   9.701 -0.0423  0.3872 -0.1842
95453W        W38469   9.327  27.550  21.808  0.0690 -0.3229 -0.0539
95454W        W38470  10.023  30.784   5.644  0.2912 -0.3611 -0.2243
95455W        W38471  27.926   2.390  22.750  0.1026  0.0006 -0.0923
95456W        W38472   5.961  25.142  18.984 -0.3504 -0.1865  0.0379
95457W        W38473  29.953  33.643  27.000  0.4404 -0.0479 -0.2962
95458W        W38474  19.785   2.176   7.895 -0.3703 -0.1141 -0.2459
95459W        W38475  20.531   2.591   3.044 -0.1906 -0.1933  0.2889
95460W        W38476  21.622   0.572   5.229  0.1518  0.1182 -0.2137
95461W        W38477   0.348  21.293   7.443 -0.2492  0.2977  0.3020
95462W        W38478   7.821   4.384   2.504 -0.0159 -0.0700 -0.0695
95463W        W38479  16.742  18.831  12.963 -0.1196  0.3907  0.1378
95464W        W38480  15.911  31.279  23.049 -0.0308  0.0674 -0.1849
95465W        W38481  17.722  31.581  27.296  0.1028 -0.3274 -0.2098
95466W        W38482  29.706   1.763  16.580 -0.1344  0.3076 -0.2101
95467W        W38483  29.049  10.779  27.095  0.1328 -0.2131  0.1732
95468W        W38484   8.343  29.443  28.274 -0.2654  0.1860  0.2536
95469W        W38485  26.022  23.914  11.637 -0.0249  0.4570 -0.1934
95470W        W38486  18.173  19.199   7.068  0.1827 -0.2798 -0.0337
95471W        W38487  25.838  31.206  16.079  0.1958  0.2816 -0.0622
95472W        W38488  25.064  20.157  25.214  0.2351  0.0047 -0.1812
95473W        W38489  15.786  16.588   2.872 -0.1613  0.0002 -0.1474
95474W        W38490   8.825  33.071   3.198  0.2028  0.0285  0.1374
95475W        W38491  12.011  33.721   9.677  0.0329  0.1163 -0.1618
95476W        W38492  21.271   8.769   4.681 -0.2523  0.2415 -0.1588
95477W        W38493   4.209  32.286  23.849 -0.1943  0.1952  0.0607
95478W        W38494   8.689  33.045   9.436  0.0194  0.3246  0.1255
95479W        W38495  25.690  30.978  26.215 -0.1772 -0.2958 -0.4199
95480W        W38496  10.827  31.474  23.070  0.1166 -0.2903  0.1455
95481W        W38497  24.879   2.064   8.438  0.1888  0.2662 -0.1716
95482W        W38498  26.641   4.000   2.925  0.1969 -0.1711 -0.1382
95483W        W38499  16.920  16.571  25.815 -0.0307  0.0656  0.2483
95484W        W38500  15.353  23.019  27.486 -0.1508  0.4847  0.4373
95485W        W38501   9.550  14.200   1.139  0.0786  0.2924 -0.2439
95486W        W38502  22.605  15.257   6.908 -0.2026  0.0899 -0.1555
95487W        W38503  18.436  11.192  17.448  0.1489  0.4561 -0.2032
95488W        W38504  28.561  18.698  28.417 -0.3329  0.2163  0.1778
95489W        W38505  27.414  15.064   9.495 -0.0590  0.1262 -0.1276
95490W        W38506  32.187  13.423   8.331 -0.0087 -0.1857 -0.2337
95491W        W38507  30.566  27.177   7.951  0.2266  0.1488  0.3176
95492W        W38508  17.759  21.092  28.698  0.2235  0.1552 -0.1684
95493W        W38509  22.527  29.270  22.108  0.0165 -0.0270  0.0867
95494W        W38510  25.671  22.167  19.057  0.0742 -0.0892 -0.1162
95495W        W38511  26.245  21.799  10.657  0.0950 -0.0173  0.0393
95496W        W38512  18.799  26.455  23.692  0.0789  0.1652 -0.0923
95497W        W38513  18.862  25.889  21.971  0.0908 -0.0568 -0.1152
95498W        W38514  14.473  25.044  24.244  0.0566  0.1690 -0.0640
95499W        W38515  25.799  27.971  27.283 -0.2293 -0.5229  0.2844
95500W        W38516  24.719  31.486   4.124 -0.3498  0.2633 -0.2718
95501W        W38517   4.515  28.722  20.668  0.0257  0.0376 -0.1882
95502W        W38518  20.147  24.922  26.654 -0.0460 -0.0298 -0.4190
95503W        W38519  19.670   7.048  16.706  0.0071  0.4610 -0.1477
95504W        W38520   2.639  18.174  28.552  0.2237  0.2034 -0.0300
95505W        W38521  23.949  33.243  29.159  0.0111 -0.0515  0.1231
95506W        W38522  25.814  33.250  18.755  0.2064  0.0629 -0.0744
95507W        W38523  12.893  23.543   0.224  0.1340 -0.1517  0.0174
95508W        W38524  26.392   7.839   9.961  0.2226  0.0140 -0.2292
95509W        W38525  31.779  26.568   1.958  0.0947 -0.1015  0.1619
95510W        W38526  12.102  22.463   7.760 -0.1104 -0.1477 -0.0768
95511W        W38527  20.284  23.967   3.269  0.0808  0.2606 -0.1441
95512W        W38528  15.377  27.176  28.196 -0.2273 -0.2650 -0.0711
95513W        W38529  17.612  34.108  22.608  0.3125 -0.1127  0.0148
95514W        W38530  12.317  13.100  29.062  0.1139 -0.2328  0.1890
95515W        W38531   5.983  12.723   0.747  0.1332 -0.3416  0.0537
95516W        W38532  18.875  31.335   4.995 -0.0877  0.0613 -0.0064
95517W        W38533  21.374  18.432  25.506  0.3735  0.1422 -0.0482
95518W        W38534  27.552   5.498   9.266  0.2473 -0.1455 -0.2515
95519W        W38535  27.177  30.581   4.429  0.2890 -0.0042  0.2385
95520W        W38536  19.408  28.829   4.666 -0.0941 -0.1790  0.2703
95521W        W38537   1.406   7.507   9.568 -0.2044  0.2894  0.0082
95522W        W38538   8.679   2.679   8.514 -0.1687  0.0728  0.0363
95523W        W38539  12.316  27.531  20.794  0.1355  0.2497 -0.1737
95524W        W38540   9.148  34.315   3.206  0.1516 -0.2575  0.1405
95525W        W38541  11.333  32.222  23.208  0.1846 -0.0008  0.2604
95526W        W38542  25.795   4.114  18.627 -0.1762 -0.2182 -0.0361
95527W        W38543  21.679  21.587  28.668  0.0313  0.3670  0.0387
95528W        W38544  23.931  17.003   1.180  0.0290  0.1090  0.1039
95529W        W38545  21.388  22.699  24.323 -0.1574 -0.2530 -0.0862
95530W        W38546  26.650  31.760   3.996  0.1918  0.1720 -0.1948
95531W        W38547  21.416  31.648  17.193  0.2236 -0.1145 -0.0378
95532W        W38548  19.523  12.626  24.294 -0.0754 -0.0950 -0.2319
95533W        W38549  18.398  33.770  15.552  0.0277  0.1563  0.0238
95534W        W38550  13.816  26.799   0.556 -0.0913  0.0411  0.0008
95535W        W38551  10.163  15.904  23.343  0.0719  0.1374  0.3422
95536W        W38552   9.303  21.913  23.874  0.1282  0.3239 -0.0963
95537W        W38553  18.215  30.695  11.680 -0.1850  0.2015 -0.1887
95538W        W38554  26.372  24.102   2.828  0.3145 -0.1148 -0.2197
95539W        W38555  32.973  32.668  29.184 -0.2836 -0.0785 -0.1130
95540W        W38556  29.440  24.889   9.968  0.0359  0.1713  0.2065
95541W        W38557   0.973  29.080   3.682  0.0905  0.1313  0.2212
95542W        W38558  15.539  20.849   1.478 -0.1189 -0.1165  0.0022
95543W        W38559  26.871  29.785   9.017  0.0068  0.1850 -0.1066
95544W        W38560   3.199  16.772  25.199  0.2511  0.2630 -0.1332
95545W        W38561  12.936   7.556   0.646 -0.3062 -0.1312  0.2577
95546W        W38562  34.148  23.540  27.450 -0.0460  0.0613  0.1989
95547W        W38563   2.890  30.962  19.220  0.0007  0.2836  0.2363
95548W        W38564   6.382  28.753  26.576 -0.1602  0.4062  0.0054
95549W        W38565  21.942   4.066   7.873  0.0533 -0.0010  0.0639
95550W        W38566  16.507  14.804   6.730  0.0518 -0.2173 -0.2068
95551W        W38567  12.636  33.940   5.957 -0.1163  0.1460 -0.4997
95552W        W38568  22.867   6.879  26.878  0.1473 -0.5520  0.2162
95553W        W38569  16.913  15.393   7.789  0.1475  0.0067  0.1593
95554W        W38570  25.358  14.747  23.672 -0.1082 -0.2167 -0.1378
95555W        W38571  15.712  11.043   2.679  0.1264  0.1167 -0.2667
95556W        W38572  28.942  19.685  27.070  0.2172  0.1196 -0.2542
95557W        W38573   8.522   8.558  23.016 -0.0071 -0.1225 -0.2880
95558W        W38574  22.252  28.824  19.489 -0.1994 -0.1774  0.1211
95559W        W38575  19.540  26.582   1.804 -0.2124  0.0835 -0.0178
95560W        W38576  31.829  26.793  15.316  0.0582  0.0872  0.2546
95561W        W38577  27.780  32.525  29.030  0.0480  0.0349 -0.0384
95562W        W38578  15.765   5.379  25.362  0.1184  0.0389 -0.1202
95563W        W38579  21.118  15.015  27.978 -0.0153 -0.0888 -0.0087
95564W        W38580  25.890  33.597  25.252  0.0042  0.0553  0.3657
95565W        W38581   0.709  24.868  19.063 -0.0413 -0.3692 -0.2074
95566W        W38582  32.262   6.527  29.127  0.1010 -0.0306 -0.2242
95567W        W38583   2.577  16.358   1.858 -0.3660  0.2472 -0.0859
95568W        W38584  14.232  22.101  22.505 -0.0976 -0.0839  0.0270
95569W        W38585   1.065  27.257   9.407 -0.3340  0.0376  0.0323
95570W        W38586  30.837  28.243  26.667 -0.3671  0.3957  0.0652
95571W        W38587  28.265  27.265   1.951 -0.2461 -0.1832  0.3383
95572W        W38588  16.528  21.472  22.568 -0.0781  0.1306 -0.0242
95573W        W38589   8.780  16.879  19.606 -0.3341  0.0499  0.0826
95574W        W38590  26.154  24.295  23.274 -0.2542  0.2000 -0.1603
95575W        W38591  18.577  27.387   0.377  0.0091 -0.0645 -0.1540
95576W        W38592  30.052  23.857  25.071 -0.2189  0.1755 -0.0452
95577W        W38593  15.665  19.388  22.108  0.1263  0.1563  0.2631
95578W        W38594  24.288  11.271  24.166 -0.0910 -0.0498  0.0619
95579W        W38595  21.049  21.158  15.327 -0.2069  0.1162 -0.0531
95580W        W38596   5.839   2.400   0.595 -0.0962  0.1542 -0.3165
95581W        W38597  33.859  24.386   5.662  0.0098  0.0108 -0.3482
95582W        W38598  25.604   7.232   1.423 -0.1942 -0.1075  0.2731
95583W        W38599   6.354  28.763  29.085 -0.1244 -0.0217 -0.1841
95584W        W38600   8.936  22.258  24.826  0.1481  0.0798  0.1885
95585W        W38601  10.001  31.595   4.465 -0.0144 -0.0176 -0.2280
95586W        W38602   9.733   0.131  10.181  0.1075  0.0691  0.0215
95587W        W38603   2.314   1.417   5.270 -0.2436  0.1917 -0.2861
95588W        W38604  33.766  33.285  28.511  0.2713 -0.3475  0.1133
95589W        W38605  10.799  24.235   6.823  0.2691  0.1244 -0.1326
95590W        W38606  26.383  32.675  14.955  0.0624 -0.0904  0.0077
95591W        W38607   5.258  33.716  24.671  0.0392 -0.3941  0.3199
95592W        W38608  16.785  22.703   1.115  0.0494 -0.1392 -0.0136
95593W        W38609  14.204  34.467  27.331 -0.1892 -0.1607 -0.1878
95594W        W38610   1.425  18.679   4.063 -0.1946  0.1380 -0.1447
95595W        W38611  26.127   0.889   4.108 -0.0847  0.0031 -0.2789
95596W        W38612  21.101  23.142   8.665 -0.1733 -0.4385  0.3173
95597W        W38613  22.509   3.475  14.619  0.1643  0.0123  0.3042
95598W        W38614  17.112   5.691   3.972  0.0040 -0.0534 -0.0123
95599W        W38615  30.957  25.782   0.539  0.1093  0.2904  0.1840
95600W        W38616  28.503  26.444  26.516  0.0740  0.1911 -0.2403
95601W        W38617   0.819   5.219  28.031 -0.0207 -0.2944  0.2597
95602W        W38618  11.018  21.191  12.294  0.2979  0.1628 -0.0425
95603W        W38619  25.861  17.816   0.740  0.2873  0.2037  0.1381
95604W        W38620  12.494  21.117  20.916 -0.0083 -0.1736  0.0984
95605W        W38621  30.481  31.440  25.836  0.1230  0.3404  0.0555
95606W        W38622   8.428  27.912  28.251  0.2594  0.1582 -0.1248
95607W        W38623  18.718  13.045  22.997  0.2337 -0.1696 -0.0935
95608W        W38624  28.205  24.633  24.543 -0.2693  0.0704 -0.0442
95609W        W38625  10.363  27.196   5.769 -0.3412 -0.0702  0.1916
95610W        W38626  19.878  19.690   1.415 -0.1174 -0.0892 -0.0769
95611W        W38627  12.122  31.362   2.115 -0.2500 -0.2002  0.0829
95612W        W38628  10.283  14.846   3.593 -0.1022  0.1057  0.1165
95613W        W38629  12.092  21.525   4.323  0.1314  0.4857 -0.0354
95614W        W38630  17.891  28.383  27.585  0.0677 -0.0954  0.1503
95615W        W38631  27.690  25.294  10.997  0.2043  0.4861 -0.4146
95616W        W38632  29.123  26.983   7.342  0.3742  0.2467 -0.1165
95617W        W38633   4.735  11.586  22.239 -0.0103  0.0582  0.0053
95618W        W38634  23.883  26.923  26.496  0.0110 -0.1569 -0.1679
95619W        W38635  18.275   4.002   9.913 -0.2392 -0.0754  0.1296
95620W        W38636   1.359  29.741  19.514  0.5493  0.3284 -0.0245
95621W        W38637  27.545  26.185   1.342  0.0271 -0.2452 -0.1591
95622W        W38638  18.012  33.438   0.318  0.2547  0.2843 -0.1522
95623W        W38639  25.460  23.596  24.355  0.0351  0.2564  0.2965
95624W        W38640   5.695   7.048  20.140  0.0483 -0.2801 -0.4303
95625W        W38641  13.043  18.143  26.720  0.0863 -0.0042 -0.2210
95626W        W38642   3.572  32.467  19.926 -0.1475 -0.0082  0.1374
95627W        W38643   0.102  34.210   3.074  0.0487  0.1383  0.1993
95628W        W38644  17.238  24.678   0.875 -0.1113 -0.2001 -0.1923
95629W        W38645  16.035  18.065   0.201 -0.1621  0.0990 -0.1344
95630W        W38646  19.586  27.670   6.873 -0.2943  0.2085 -0.0804
95631W        W38647  26.875  28.355  23.292  0.0412  0.1054 -0.0426
95632W        W38648  14.739  24.230  16.180  0.1017 -0.3794  0.1280
95633W        W38649   9.333  30.734  22.350 -0.1414  0.0040  0.1236
95634W        W38650  20.375  20.363  24.525  0.0777 -0.2076 -0.1181
95635W        W38651  33.864  11.777  21.010  0.1420  0.3411  0.0889
95636W        W38652  28.361  18.451  19.149 -0.1366 -0.0184 -0.2563
95637W        W38653   2.053  18.684  20.249  0.1819  0.1449 -0.2317
95638W        W38654   2.267  31.656  19.485 -0.0389 -0.0641  0.1036
95639W        W38655  20.458  32.902  28.010 -0.0963 -0.0760  0.0322
95640W        W38656  16.681  20.900  23.264 -0.2314 -0.0304 -0.2453
95641W        W38657  27.578   3.321   0.734  0.0312 -0.0754  0.1287
95642W        W38658  11.607  29.084  27.196 -0.0071  0.0569  0.1092
95643W        W38659  24.130  30.827   8.648  0.0887 -0.0721  0.2657
95644W        W38660  21.189  20.199  26.643  0.3148 -0.1243  0.1260
95645W        W38661  31.770  24.834   1.655  0.1918  0.0299  0.3668
95646W        W38662  34.655  28.433  22.281 -0.1690  0.1827  0.0430
95647W        W38663  14.316   7.131  19.849 -0.2581  0.2144 -0.1955
95648W        W38664   7.946  20.203   5.034 -0.0783  0.2159  0.0144
95649W        W38665  27.670  21.340   8.580  0.1851 -0.0497  0.0540
95650W        W38666   7.364  25.738   7.349 -0.2467  0.0747 -0.2059
95651W        W38667   5.884   2.542   6.468 -0.3962  0.0225  0.0212
95652W        W38668   1.832  18.155  27.585  0.0090 -0.0033  0.1604
95653W        W38669   1.739  34.562   0.919  0.0344  0.0097  0.0207
95654W        W38670  18.145   1.848  21.939  0.0957  0.0746  0.1791
95655W        W38671  14.927   2.234   8.366 -0.1728 -0.1083  0.1600
95656W        W38672  27.384  21.190  28.335  0.0205 -0.2808  0.1968
95657W        W38673  24.590  32.280  25.614  0.0127  0.1997 -0.2025
95658W        W38674  28.266  10.858  28.945 -0.3303 -0.0234  0.2858
95659W        W38675   9.350  18.611  25.572  0.0942  0.1271 -0.1008
95660W        W38676  17.238   1.424  19.382  0.1637 -0.0462 -0.1689
95661W        W38677  32.977  31.617   9.104 -0.1972 -0.2864 -0.0252
95662W        W38678   1.867  15.237   2.295  0.1168  0.0869 -0.0798
95663W        W38679  18.863  29.108   9.425 -0.0954 -0.2302  0.3089
95664W        W38680  17.740  29.244  24.819 -0.0794  0.1205 -0.0716
95665W        W38681  12.011  16.973   8.242  0.1504 -0.1947 -0.2516
95666W        W38682  17.156  32.444   6.301  0.2452 -0.1027  0.1404
95667W        W38683   7.833   7.117  25.752 -0.0706 -0.1056  0.1312
95668W        W38684   3.975  34.692   6.296  0.0169 -0.1000 -0.1373
95669W        W38685  26.921  25.153   4.178  0.2352  0.0453 -0.2619
95670W        W38686   0.280  17.646   6.307 -0.0102 -0.1440  0.2221
95671W        W38687   4.166   2.557  21.840 -0.1603 -0.0129  0.0120
95672W        W38688  19.914  28.794  28.282  0.0969 -0.1720 -0.2945
95673W        W38689  16.970  24.580   9.522 -0.0319 -0.1440  0.1490
95674W        W38690  28.610  31.705  27.474  0.0352  0.1214 -0.0835
95675W        W38691  18.256   5.997   8.518 -0.0372  0.1302  0.1502
95676W        W38692  29.570  12.217  16.283 -0.0245  0.0948 -0.2118
95677W        W38693  27.084   6.823  28.355 -0.2856 -0.0185  0.2155
95678W        W38694  23.844  23.207   6.296  0.1391  0.6106  0.1521
95679W        W38695  24.365  24.636   9.943  0.0281 -0.1594 -0.0604
95680W        W38696   5.944   2.792   3.111  0.0288  0.2216 -0.2666
95681W        W38697   6.899  28.184   1.432  0.0690  0.1411 -0.1903
95682W        W38698  20.678   8.237  23.278 -0.2067 -0.0015  0.0358
95683W        W38699  28.304  20.198  18.824 -0.1825 -0.1977  0.0311
95684W        W38700   0.575  22.546   4.607 -0.0389 -0.2373 -0.1779
95685W        W38701  19.033  23.859   5.040 -0.0641  0.1703 -0.5188
95686W        W38702  31.560   0.229   4.834 -0.1750  0.0156 -0.1541
95687W        W38703   1.447   1.388   7.063 -0.0613  0.3451  0.3048
95688W        W38704  23.875  10.282   3.719  0.0472  0.2297 -0.1342
95689W        W38705   9.328  18.946   5.132  0.0537  0.0314  0.1082
95690W        W38706  13.021  20.412  25.549  0.0281  0.3066  0.1073
95691W        W38707   6.980  23.570  15.267  0.1311 -0.0075  0.0845
95692W        W38708   3.510  26.414  15.424  0.0689  0.0693 -0.0361
95693W        W38709  11.785   2.627  16.519  0.3221 -0.2662 -0.1102
95694W        W38710  10.719  14.943   1.123  0.1502 -0.2933  0.1390
95695W        W38711  16.043  25.337  21.783 -0.1382 -0.0923 -0.2712
95696W        W38712   7.797  18.955   5.867 -0.0862  0.1917 -0.1110
95697W        W38713  21.049  33.495  15.539  0.1282  0.0725 -0.2057
95698W        W38714  21.099  28.200   1.715  0.3337 -0.1827  0.3835
95699W        W38715   8.120  27.594  25.637  0.1903  0.1534 -0.1211
95700W        W38716  26.231  31.868  16.722  0.0332  0.0884  0.3441
95701W        W38717   0.754  22.923  16.324 -0.2187  0.3011 -0.2236
95702W        W38718  22.749  24.719   6.998 -0.0706 -0.0023 -0.3349
95703W        W38719  33.611  25.584   7.987 -0.0813  0.2650 -0.1325
95704W        W38720   1.750  27.326  23.886  0.0687  0.0643 -0.2437
95705W        W38721  24.210   3.924   8.198 -0.0137  0.0013  0.0792
95706W        W38722  21.968  22.895   1.531 -0.0292 -0.0656  0.0272
95707W        W38723  28.073  26.513  28.332 -0.1841  0.1793 -0.2017
95708W        W38724  13.945  10.113  16.802 -0.1556 -0.3974  0.1289
95709W        W38725  15.918  24.191   6.429  0.1852 -0.0921  0.2166
95710W        W38726  18.408  28.227   8.792  0.4945 -0.0087 -0.0812
95711W        W38727  18.258  34.054   4.361 -0.1727  0.1433 -0.1829
95712W        W38728  24.150   0.061   1.951 -0.0480  0.0768 -0.2046
95713W        W38729   6.624  33.963   1.013 -0.3022  0.3467 -0.3471
95714W        W38730  16.153  19.651   2.420  0.0229  0.1233 -0.1241
95715W        W38731   0.807   7.509  20.133 -0.2887  0.0655  0.1052
95716W        W38732  26.475   2.892   5.345 -0.1630 -0.2832 -0.1344
95717W        W38733  19.700   3.883   7.443  0.0973  0.1793 -0.1185
95718W        W38734  14.899  11.695  22.252 -0.0024 -0.0205  0.1488
95719W        W38735   9.864   8.373   2.959 -0.0551 -0.0196  0.1201
95720W        W38736  17.390   6.387  28.021  0.0055  0.2103 -0.0586
95721W        W38737   8.845  24.540   0.753 -0.1135  0.0197  0.2230
95722W        W38738  10.255  30.698  10.174 -0.0712 -0.1770  0.0948
95723W        W38739  22.970   3.294  25.554  0.3435  0.1345  0.0106
95724W        W38740  13.087  22.013   2.268 -0.0658  0.1216 -0.1740
95725W        W38741  34.212  21.819  18.772 -0.0067 -0.2175  0.0900
95726W        W38742  29.089  18.865  21.431  0.0862 -0.0991 -0.0390
95727W        W38743  15.088  25.393  26.531 -0.3256 -0.2885 -0.1009
95728W        W38744  26.181  29.235   9.517 -0.0578 -0.0751 -0.0175
95729W        W38745  20.926  31.941   9.875 -0.1340 -0.3969 -0.2822
95730W        W38746  21.776  11.199  15.035  0.2792  0.4514  0.0622
95731W        W38747  22.864   5.300  20.384  0.2527 -0.2663 -0.0376
95732W        W38748   5.046   1.151  15.916  0.0083 -0.1806 -0.1580
95733W        W38749  22.659  27.655  15.817 -0.3916  0.1979  0.1527
95734W        W38750  20.979  24.288  26.847  0.3924  0.0865 -0.0553
95735W        W38751  10.673   8.231   0.094  0.0521 -0.0872  0.4248
95736W        W38752  31.517   6.484  29.018 -0.1171 -0.1587  0.1710
95737W        W38753  22.246  21.154  24.547 -0.0911 -0.3273 -0.1963
95738W        W38754   8.932  20.886   1.687  0.0724 -0.0717 -0.1319
95739W        W38755  13.676  21.141  23.435 -0.1820  0.0456 -0.5555
95740W        W38756  32.662   0.658   0.352 -0.1052  0.0835  0.3682
95741W        W38757  12.831   7.068  21.871  0.1553 -0.0138  0.1857
95742W        W38758   3.312  23.364  21.179  0.1340 -0.1439  0.3778
95743W        W38759  31.000  32.749   1.772 -0.1299 -0.2207 -0.0499
95744W        W38760  15.474  31.678   5.515  0.0988 -0.3170 -0.0528
95745W        W38761  29.075  11.291   9.781  0.0884 -0.2250 -0.4761
95746W        W38762  27.907  15.827  23.284 -0.1096  0.1868 -0.0283
95747W        W38763   4.543  20.975  17.487 -0.1507 -0.0469 -0.2852
95748W        W38764  23.816  27.607  19.017 -0.1895  0.2401 -0.0255
95749W        W38765  19.291  23.362   0.554  0.1749 -0.0655  0.0046
95750W        W38766  22.555  25.506  22.890  0.2463 -0.2891  0.1912
95751W        W38767  17.245  23.929   8.102  0.2121 -0.1546 -0.1713
95752W        W38768  11.316  18.241  25.240  0.0338 -0.1678  0.1530
95753W        W38769  11.160   0.263   4.509  0.2371 -0.0256 -0.0381
95754W        W38770  13.747  32.979  23.335 -0.3827 -0.2426 -0.0418
95755W        W38771  20.994   0.941  19.281  0.1257 -0.2083  0.0081
95756W        W38772  25.716  20.786   6.373  0.0229  0.0606  0.1648
95757W        W38773  15.426   7.521   6.450 -0.6054 -0.3329  0.0362
95758W        W38774  20.575  22.087   8.156 -0.0194 -0.2170  0.0772
95759W        W38775  16.346  34.207  26.228  0.2858  0.0555 -0.0130
95760W        W38776  20.365  24.672  24.830  0.2948 -0.0374 -0.1815
95761W        W38777  26.471  23.856  23.315  0.0376  0.0855  0.0802
95762W        W38778  17.497  25.902  13.972 -0.0966  0.0974 -0.0572
95763W        W38779  18.140  27.928  16.166  0.2508 -0.2939  0.2924
95764W        W38780   2.365  28.259  23.556  0.0982 -0.0867  0.1325
95765W        W38781  26.725   6.853  18.616  0.1143 -0.0758 -0.0258
95766W        W38782  18.476  27.164  16.901 -0.0975 -0.2690  0.0493
95767W        W38783  18.137  11.418  24.036 -0.4229 -0.0321  0.0610
95768W        W38784  30.487  27.988  20.339  0.0631  0.0060 -0.1008
95769W        W38785   2.236  14.403   2.761  0.0339  0.2205  0.0443
95770W        W38786  12.958  27.234  26.683 -0.1505  0.0594 -0.0155
95771W        W38787  29.679  30.992  17.297 -0.1877  0.1263 -0.3484
95772W        W38788  15.796  26.893   6.970 -0.0800 -0.1656  0.0983
95773W        W38789   2.601  29.951   5.536  0.0758 -0.0980  0.1449
95774W        W38790  26.754  31.587   5.426 -0.3097  0.0697  0.0958
95775W        W38791  23.556  23.611  25.886 -0.0640 -0.0864  0.0483
95776W        W38792  22.336  31.497   6.729 -0.0635 -0.0241 -0.0523
95777W        W38793  19.441  32.435  28.307  0.1131 -0.0637  0.1649
95778W        W38794  20.165  24.599  24.206  0.3675 -0.0102  0.4242
95779W        W38795   3.327  34.323   5.647 -0.0260  0.1869  0.2507
95780W        W38796  21.718  22.540  21.042  0.2660  0.0389  0.1448
95781W        W38797  24.903  14.873  20.594  0.2224 -0.1586 -0.0535
95782W        W38798  32.095  25.233  25.062 -0.1125 -0.0349  0.0258
95783W        W38799  12.674  31.334   3.251  0.2375 -0.1143  0.2178
95784W        W38800  14.114  32.355  28.355 -0.0134 -0.2669 -0.1858
95785W        W38801   9.014   0.998  28.610 -0.0538 -0.0249 -0.0070
95786W        W38802  20.420   5.743   6.663  0.0376  0.0066 -0.1905
95787W        W38803  32.001  31.356  20.391  0.1273  0.2856 -0.2266
95788W        W38804  31.283  17.271  17.933  0.0958  0.0372 -0.2051
95789W        W38805  22.238  28.266   4.662 -0.1771 -0.3799 -0.2784
95790W        W38806  20.651  14.078   2.370 -0.4656 -0.3913 -0.1385
95791W        W38807  14.668  24.399   0.745  0.0271 -0.0580  0.0962
95792W        W38808   2.058   0.896   8.025  0.0084  0.1017  0.1359
95793W        W38809  16.479  31.128  26.438 -0.2111  0.2432 -0.3502
95794W        W38810  26.801  15.941  28.417 -0.0437  0.1930 -0.1046
95795W        W38811  17.174  25.376  22.612  0.0211  0.0483 -0.1484
95796W        W38812  16.602  21.173   2.498 -0.2033 -0.2053 -0.2861
95797W        W38813   7.342   8.543   1.860 -0.3074 -0.0443 -0.3997
95798W        W38814  34.438  21.359  24.847  0.0868  0.0909 -0.0636
95799W        W38815  19.251  27.679  15.242  0.2999 -0.0373 -0.0335
95800W        W38816  12.208   2.639  22.662  0.1022  0.1337 -0.0812
95801W        W38817  16.025  16.601   1.441  0.0279  0.1274  0.0869
95802W        W38818  11.622  27.195   6.456 -0.0787 -0.1816  0.1287
95803W        W38819  22.346  29.910  10.924  0.4007 -0.3542 -0.0084
95804W        W38820  23.872  19.033  15.335  0.1791  0.0130  0.2745
95805W        W38821  24.118  11.232   6.240 -0.2263  0.1673  0.0188
95806W        W38822  23.082  30.265   2.771 -0.1484 -0.2048  0.3399
95807W        W38823  22.027  25.682  19.580 -0.1159  0.0918  0.2364
95808W        W38824  13.872   5.280   4.340 -0.1592 -0.1133  0.1595
95809W        W38825  26.510  17.327  26.543 -0.1497 -0.0614 -0.0553
95810W        W38826  17.741  21.886  22.018  0.0719  0.1277  0.0927
95811W        W38827   2.049  10.041   0.406 -0.0737 -0.2436 -0.0947
95812W        W38828  21.790   0.323   4.821  0.3648 -0.0920  0.1301
95813W        W38829  25.580  18.299   3.002  0.1335 -0.3520 -0.0616
95814W        W38830  34.453  22.922   6.061  0.4023 -0.1323  0.0918
95815W        W38831  17.967  15.503   6.886 -0.0879 -0.2127  0.0143
95816W        W38832  15.863  19.668  25.428  0.1778 -0.0711  0.2343
95817W        W38833  19.652  24.075   4.366  0.0434 -0.0608  0.2138
95818W        W38834  16.366  22.074   1.464 -0.0656  0.1998  0.2372
95819W        W38835  20.284  30.096   9.729  0.1400  0.6630  0.1877
95820W        W38836   1.155   6.790   3.377  0.0809 -0.0975  0.0748
95821W        W38837  27.689  13.567  14.848  0.2229 -0.2434  0.1719
95822W        W38838  32.466  19.092   9.560  0.0991  0.2509 -0.0583
95823W        W38839  12.786   0.901  16.550 -0.2878 -0.1003 -0.0589
95824W        W38840  10.175  18.862  19.387  0.1540  0.0426 -0.0035
95825W        W38841   9.492   0.109   5.933  0.0898 -0.1568 -0.2084
95826W        W38842  11.890  19.717  24.595 -0.3750 -0.1245 -0.1828
95827W        W38843  15.716   6.651  29.249  0.6740 -0.0082 -0.2801
95828W        W38844   8.774  26.764   8.854  0.2374 -0.1829 -0.1689
95829W        W38845  23.505  30.130   3.903  0.2918  0.2068 -0.1079
95830W        W38846  19.380  19.712  27.394  0.2399  0.3355  0.0949
95831W        W38847  20.557  21.796  22.895  0.0048  0.1322  0.0644
95832W        W38848  14.213  32.152   4.331  0.0206 -0.0245 -0.3247
95833W        W38849   9.874   3.415  21.784  0.2045  0.0601  0.0085
95834W        W38850  25.487  12.303  15.217 -0.0043  0.0621 -0.2098
95835W        W38851  12.905  32.836  28.566 -0.0010 -0.0591  0.0552
95836W        W38852  11.335  33.062  23.609 -0.0228 -0.0698 -0.4464
95837W        W38853   8.675  17.671  27.887  0.1043  0.1657 -0.1028
95838W        W38854  14.858  10.815  20.974  0.1559  0.0555  0.2731
95839W        W38855  33.600   2.431   5.081 -0.2096  0.0356  0.0316
95840W        W38856  20.993  23.559   3.646  0.1296  0.0133 -0.0086
95841W        W38857   7.019  30.432  26.718 -0.0729  0.0337 -0.1761
95842W        W38858  19.751   8.749  23.202  0.3132 -0.1163  0.0304
95843W        W38859   1.142  17.650   9.337  0.2164 -0.1480  0.1044
95844W        W38860  24.226  30.359   5.089  0.1906 -0.1655 -0.2342
95845W        W38861  17.436  22.606  20.449 -0.0347  0.0908 -0.1695
95846W        W38862  12.683  26.479  16.802  0.1174  0.3067 -0.0563
95847W        W38863  22.235  15.324  22.810  0.3906 -0.0671 -0.0678
95848W        W38864   8.257  22.951  17.843  0.0785  0.3146 -0.4689
95849W        W38865  15.804  11.798   1.749 -0.1184 -0.3069 -0.0935
95850W        W38866  23.916  24.178  23.389 -0.0540 -0.1626  0.4725
95851W        W38867  11.731  25.725  29.225 -0.0636  0.4364 -0.1512
95852W        W38868  34.166  21.378   1.445  0.0111  0.1083  0.1052
95853W        W38869  32.422   1.169   1.610  0.0422 -0.1371 -0.2056
95854W        W38870  18.402  12.461  16.765  0.4808 -0.1803 -0.2581
95855W        W38871  17.766  20.215   1.471 -0.1050  0.4091 -0.1543
95856W        W38872  14.275  26.350   9.136  0.0276  0.3559 -0.1201
95857W        W38873  21.524  16.660  28.925 -0.0183  0.1506 -0.1306
95858W        W38874   1.504  32.811  18.256 -0.2984  0.1001  0.2415
95859W        W38875  26.513  13.249   6.984 -0.1721  0.2742  0.1248
95860W        W38876  22.971  16.534   5.820  0.0365  0.3764 -0.0900
95861W        W38877  25.481  14.963   7.846  0.3196 -0.3765 -0.1245
95862W        W38878  25.250  29.532   7.684  0.0276 -0.3297  0.2696
95863W        W38879  29.189  15.129  17.307 -0.0831  0.2907  0.1595
95864W        W38880  18.447  13.048  15.021 -0.0975 -0.2832  0.3166
95865W        W38881  10.970  18.024  15.074 -0.1150  0.0009 -0.1328
95866W        W38882  19.421  29.842  16.177  0.1435 -0.0450 -0.2787
95867W        W38883  34.619   2.618  24.025  0.1227  0.1186  0.0213
95868W        W38884   4.563   0.556  17.285 -0.0624 -0.0431  0.2646
95869W        W38885  22.221  25.717  17.788 -0.3760 -0.1566  0.0421
95870W        W38886  25.585  30.455  17.693 -0.0093  0.2212 -0.0702
95871W        W38887  14.952  27.424  14.131  0.2472 -0.0570  0.0240
95872W        W38888  28.369   2.056  18.145 -0.3086 -0.4695 -0.0171
95873W        W38889  20.187  24.935  18.737 -0.1845  0.0491 -0.0583
95874W        W38890  11.554   7.953  16.320  0.2099 -0.1452  0.1959
95875W        W38891  26.266  32.624  17.598 -0.1471 -0.2414  0.0741
95876W        W38892  11.349  29.008   1.478 -0.1102  0.0792  0.1136
95877W        W38893  18.923  10.414  25.899 -0.2031 -0.0699  0.1715
95878W        W38894   8.783  24.783  25.586 -0.0745 -0.3411  0.0172
95879W        W38895  14.880  19.672  20.367 -0.2540 -0.2291 -0.0039
95880W        W38896   6.717  22.493  18.939  0.0149 -0.0587  0.0085
95881W        W38897  25.968  12.946  18.718 -0.1755 -0.4754 -0.1840
95882W        W38898  28.894   0.976  24.712  0.1124 -0.3397 -0.0293
95883W        W38899  25.030  19.711  14.654 -0.1076 -0.0708  0.0599
95884W        W38900  13.133   6.299  18.059 -0.0396  0.0333 -0.2543
95885W        W38901  29.999  28.519  16.895  0.0510  0.1188  0.1250
95886W        W38902  32.507  19.239  22.345  0.0850 -0.3131 -0.0146
95887W        W38903  19.720   6.148  24.595 -0.0404  0.0425  0.1404
95888W        W38904   7.328  34.106  25.737  0.3137 -0.2526  0.0077
95889W        W38905   8.754  31.958  17.023  0.0472 -0.1090 -0.1798
95890W        W38906   4.867   2.007  20.412  0.2014 -0.1788 -0.1242
95891W        W38907  15.711  30.085  22.130 -0.0417 -0.1772 -0.2667
95892W        W38908  26.032  24.296  23.862  0.0141  0.2514 -0.1699
95893W        W38909   8.910  33.396  24.420  0.3187  0.1168  0.2543
95894W        W38910  12.653  27.035  20.220  0.1533  0.1156  0.0384
95895W        W38911  25.299  24.133  23.164  0.0171  0.2001 -0.2494
95896W        W38912   9.104   4.128  27.335 -0.0340  0.0706  0.1992
95897W        W38913  32.626   3.775   5.895 -0.0024 -0.1745  0.0559
95898W        W38914  22.738  27.263  18.652  0.2410 -0.0882 -0.0296
95899W        W38915  12.217  34.369  18.989  0.1441 -0.0525 -0.0226
95900W        W38916  11.950  24.408   3.366 -0.0155 -0.0040  0.1090
95901W        W38917  25.186  26.295  22.996 -0.1890 -0.2354 -0.0934
95902W        W38918  12.720  18.753  19.941  0.3577 -0.1633  0.1743
95903W        W38919   5.927   1.367  23.811 -0.0561  0.2027 -0.1014
95904W        W38920   6.694   2.865  21.739  0.0257  0.1251  0.0371
95905W        W38921  12.084  32.507  20.706  0.4622  0.2898 -0.2332
95906W        W38922  23.533   7.851  18.449 -0.2895 -0.0891  0.3623
95907W        W38923  12.271   9.168  25.806  0.1863 -0.1205  0.2249
95908W        W38924  28.042  17.586  19.234 -0.0532  0.5469 -0.0224
95909W        W38925  19.065  30.374  20.027  0.0974 -0.4570 -0.2109
95910W        W38926  19.271  26.836  27.948 -0.1291  0.0451  0.0575
95911W        W38927  12.457  13.085  26.100 -0.4920 -0.0478 -0.0533
95912W        W38928   5.442  21.360  25.504  0.0255  0.1198 -0.2085
95913W        W38929  14.923  27.947  18.210  0.4552  0.0754  0.0399
95914W        W38930  28.833  23.002  19.644 -0.0573 -0.0516  0.2452
95915W        W38931  14.920   6.028  14.629 -0.1725 -0.2702  0.1194
95916W        W38932  23.116   2.207   1.713  0.2327 -0.1289  0.0958
95917W        W38933  33.314  34.397  28.531 -0.2356 -0.3774 -0.0374
95918W        W38934  21.955  18.048  27.708 -0.4284 -0.1994 -0.0413
95919W        W38935  11.858  27.271  24.904  0.2086 -0.0769 -0.0181
95920W        W38936  32.621   1.947  26.582  0.1205 -0.0575  0.0820
95921W        W38937  28.080  17.268  15.028  0.1197  0.0749  0.0882
95922W        W38938  14.345  31.889  23.474  0.1566  0.0131  0.0680
95923W        W38939  10.431  29.853  21.888 -0.1229  0.1776  0.1013
95924W        W38940  17.678   4.679   8.544  0.0749 -0.2000 -0.2405
95925W        W38941   1.751  26.088  16.614  0.0146 -0.1787 -0.1690
95926W        W38942  30.827  31.767  18.345 -0.3065  0.1452 -0.0069
95927W        W38943  16.537  27.216  19.968 -0.1517 -0.0256  0.0954
95928W        W38944  22.116  32.741  22.372  0.0897 -0.1327 -0.0012
95929W        W38945   9.398   7.565  26.061 -0.2474 -0.0418 -0.1869
95930W        W38946  20.130  30.240  25.770 -0.1826 -0.0565  0.1713
95931W        W38947  27.838  22.339  22.400 -0.2584  0.2419  0.2231
95932W        W38948  19.121  31.589   8.681  0.1153 -0.4029 -0.2117
95933W        W38949   9.939  24.546  16.456  0.1768  0.1531 -0.0706
95934W        W38950  26.321  34.227  14.801 -0.1460 -0.0510  0.2745
95935W        W38951  29.129  29.062  15.665 -0.3329 -0.0700  0.0346
95936W        W38952  15.266  24.143  15.484  0.2562 -0.3510 -0.0070
95937W        W38953  26.617  23.899  17.618  0.2904 -0.0857  0.0778
95938W        W38954  11.658   4.413  14.509 -0.2372 -0.0009  0.1396
95939W        W38955  30.671  30.930  17.743 -0.2731  0.0904  0.0491
95940W        W38956  26.967  34.651   5.387 -0.0100  0.1266  0.3514
95941W        W38957  13.661   9.827  26.586  0.5126 -0.1547 -0.2845
95942W        W38958   2.506   2.249  23.340 -0.4507 -0.2433  0.3497
95943W        W38959  27.131  27.316  17.506  0.0287 -0.0703 -0.1109
95944W        W38960  30.032  14.208   4.804 -0.2034  0.2099  0.0355
95945W        W38961  10.026  34.747  19.519  0.0352 -0.0884 -0.1573
95946W        W38962   7.239  22.469  14.633  0.2141  0.2043  0.0965
95947W        W38963  24.399  29.081  22.566 -0.2175  0.0504 -0.0606
95948W        W38964  23.583  32.030  20.515 -0.2599 -0.0379 -0.2635
95949W        W38965   5.267  24.641  20.773 -0.0322 -0.0200  0.0409
95950W        W38966  28.867   4.826  24.515  0.1382 -0.0363 -0.0773
95951W        W38967  14.636  11.155  15.953  0.2273 -0.1919  0.0950
95952W        W38968  31.210  13.195   1.958  0.0857 -0.1818  0.0479
95953W        W38969  25.065  18.019  19.942 -0.0105 -0.2498 -0.1249
95954W        W38970  31.393   1.656  19.321  0.1406 -0.0252 -0.0675
95955W        W38971  12.461  25.083  16.291 -0.5174  0.0797  0.1321
95956W        W38972  30.065  28.955  20.493  0.2073 -0.1242  0.2443
95957W        W38973   4.416  26.649  27.439  0.1016  0.3446  0.1409
95958W        W38974  13.152   9.370  15.078  0.3454 -0.0294  0.3226
95959W        W38975  30.075   7.173  19.888  0.0672 -0.1400  0.0371
95960W        W38976   7.831  25.701  28.105 -0.0973 -0.1659 -0.1101
95961W        W38977  10.869  32.865  25.335 -0.2222  0.0989 -0.1743
95962W        W38978  23.574  27.089  16.751 -0.0085  0.1618  0.0435
95963W        W38979  22.608  24.477   2.957 -0.0256 -0.0756 -0.2072
95964W        W38980  20.971   1.328  18.082  0.0332  0.1952 -0.1189
95965W        W38981  18.080  29.590  24.761 -0.0150 -0.1835 -0.0960
95966W        W38982  13.925  15.769  14.426  0.0898  0.1397 -0.1571
95967W        W38983  18.978  31.178  24.267  0.0521  0.4426 -0.2281
95968W        W38984   3.445   2.874  23.617 -0.0773 -0.0997  0.1796
95969W        W38985   0.173   7.056  24.188  0.2327  0.0724  0.0157
95970W        W38986  28.147  24.173  22.840  0.0934 -0.0642 -0.1818
95971W        W38987   9.409  20.804  20.646  0.3240 -0.2208  0.1345
95972W        W38988  16.807  34.027  28.293  0.0446 -0.0748 -0.0402
95973W        W38989   7.139   0.375  22.374 -0.3891  0.2668  0.0175
95974W        W38990  23.938  27.809  16.361  0.1147  0.2633 -0.0469
95975W        W38991  15.860   9.391  23.490  0.2618 -0.1374 -0.0938
95976W        W38992   1.761   6.906  16.808 -0.1882 -0.2154  0.0347
95977W        W38993  13.470   5.190  15.591 -0.1710  0.3937 -0.0396
95978W        W38994  16.729   3.282  22.460 -0.1890 -0.0651 -0.0219
95979W        W38995   2.511  12.097  16.168  0.1211 -0.0512 -0.0048
95980W        W38996  20.950   5.312  28.199  0.1445 -0.2780  0.2828
95981W        W38997  32.447  10.663  29.207  0.0355 -0.0445 -0.0426
95982W        W38998   2.933   5.922   3.678 -0.0741  0.0245 -0.1907
95983W        W38999  27.662   9.872  25.182  0.0703 -0.0714  0.2111
95984W        W39000  17.108   0.980  25.818  0.2125 -0.0789  0.2908
95985W        W39001  34.232  21.790  17.275  0.2001  0.1921  0.0139
95986W        W39002  27.008  25.681  15.529 -0.0385  0.0257 -0.2861
95987W        W39003   7.668   6.076  19.501  0.2339  0.0919  0.3595
95988W        W39004  11.379   2.846  15.858  0.0172 -0.0780  0.0175
95989W        W39005  19.497   0.043  28.085 -0.1026  0.0582  0.2389
95990W        W39006  22.158  28.828  16.269  0.0393  0.0952  0.2669
95991W        W39007  23.533  31.323  26.704 -0.0721  0.2100  0.2288
95992W        W39008  24.678   4.387  17.654 -0.3707 -0.5558 -0.1813
95993W        W39009  32.696   4.176  26.795  0.2672  0.2164 -0.1159
95994W        W39010  24.932  25.181  27.145 -0.1522 -0.1719 -0.0635
95995W        W39011   8.941  34.468  21.505 -0.0117 -0.1136  0.0984
95996W        W39012  16.030  26.761  26.904  0.0062  0.1662 -0.0207
95997W        W39013  19.972  10.465  21.444  0.0823  0.1847  0.1600
95998W        W39014  25.044  31.294   6.577  0.5590  0.0018 -0.0528
95999W        W39015   5.969  30.278  21.302 -0.2070 -0.1831  0.0028
96000W        W39016  29.959  13.835  17.463  0.2562  0.1077 -0.0961
96001W        W39017  17.575  32.294  20.221  0.0115  0.0604 -0.3368
96002W        W39018  13.669   4.470  19.661 -0.0794  0.0299  0.3877
96003W        W39019  20.321  21.870  13.992 -0.0344 -0.1145 -0.2272
96004W        W39020  13.687  12.035  13.044  0.4153 -0.1112 -0.1120
96005W        W39021  18.989  23.974  17.075  0.1594 -0.3632  0.2172
96006W        W39022  17.199  33.384  21.220 -0.1928 -0.3471  0.3383
96007W        W39023  14.777  10.068   0.050  0.3405 -0.1488  0.0299
96008W        W39024  28.307  34.011  19.224  0.0107  0.1002  0.2121
96009W        W39025   0.640   6.027  19.908 -0.2652  0.3528  0.0754
96010W        W39026  32.149  22.429  18.101 -0.1828 -0.4024  0.2060
96011W        W39027  16.522   4.841  14.220 -0.1091  0.0491  0.2045
96012W        W39028  27.389  25.943  19.763  0.0290  0.2555  0.0780
96013W        W39029  14.051   0.988  17.144 -0.2838 -0.0293 -0.0399
96014W        W39030  27.941  10.190  17.318  0.2681  0.0621 -0.1465
96015W        W39031  17.148   3.491  15.235  0.0134  0.0509  0.0469
96016W        W39032  13.747  13.534   1.089  0.0232  0.1078 -0.0301
96017W        W39033  28.898  18.286  24.233  0.0523 -0.1301  0.1861
96018W        W39034  13.203   6.075  16.482 -0.2302 -0.0180  0.0034
96019W        W39035  20.155  13.330   2.692 -0.2354 -0.1489 -0.2146
96020W        W39036  27.527   0.779  15.138  0.1153  0.0422  0.0238
96021W        W39037  16.717   3.176  19.292 -0.0340 -0.1321  0.1280
96022W        W39038  19.238   1.106  17.827 -0.0889 -0.2282 -0.2170
96023W        W39039  27.251  24.918  19.241  0.0378 -0.1170  0.1091
96024W        W39040  27.785  32.194  17.348 -0.2102  0.0245 -0.2726
96025W        W39041   2.329  14.375  26.126 -0.3152  0.2981 -0.1443
96026W        W39042  26.331  29.517  19.367  0.2060  0.2010 -0.0544
96027W        W39043   7.579   1.945  19.188 -0.0269 -0.2669 -0.4127
96028W        W39044  28.439  28.730   4.060 -0.3280  0.2281 -0.3058
96029W        W39045  28.239  10.153  19.015  0.0207 -0.0025  0.0504
96030W        W39046  22.040  32.528  19.019 -0.0786 -0.1459 -0.0966
96031W        W39047  34.347   9.316  14.796  0.0070  0.3370  0.1665
96032W        W39048   5.845  27.501  15.254 -0.0670  0.0231 -0.2644
96033W        W39049  27.439  29.158  17.225  0.0173 -0.2540  0.2102
96034W        W39050  12.341  33.293  17.228 -0.3488  0.1179  0.1606
96035W        W39051  32.319  16.455  15.529  0.1258  0.4802 -0.1105
96036W        W39052  17.602  33.237  19.492  0.3729 -0.2222  0.1901
96037W        W39053   8.516  17.132  26.493 -0.0635  0.1638 -0.1892
96038W        W39054  14.246   4.732  23.739  0.4167 -0.1096 -0.0071
96039W        W39055  10.960   9.746  27.426  0.2408 -0.0381  0.3021
96040W        W39056  27.645  29.995  15.176  0.1331  0.3511  0.1748
96041W        W39057  26.890  29.242  25.316  0.1231  0.1609 -0.2517
96042W        W39058  33.438   3.127  22.318 -0.2183  0.2461  0.1802
96043W        W39059  27.359  34.282   3.925  0.2874 -0.1560  0.2326
96044W        W39060  16.364   7.847  24.497  0.0172 -0.5702  0.1685
96045W        W39061  23.404  28.112  21.828 -0.1588  0.2395 -0.0825
96046W        W39062  24.342  24.213  21.756  0.1422  0.2168  0.2335
96047W        W39063  26.148  33.136  16.458 -0.2327 -0.0266  0.1220
96048W        W39064  19.564   9.793  22.229  0.2459 -0.0794 -0.0738
96049W        W39065  28.205  11.125  17.583 -0.1003  0.1388 -0.1922
96050W        W39066  30.867  30.537  18.915 -0.0458  0.1640 -0.0275
96051W        W39067   9.143  29.050  28.653 -0.0350  0.1834 -0.0317
96052W        W39068  20.651  18.183  23.781 -0.0195 -0.1048  0.0179
96053W        W39069  33.225   3.368  25.170 -0.0321 -0.1158  0.2039
96054W        W39070   8.996   0.363  23.590  0.4944 -0.2951  0.3534
96055W        W39071   1.005   0.128  24.439  0.0028  0.2825 -0.2308
96056W        W39072  31.189  33.437  16.518  0.2352  0.3200 -0.0862
96057W        W39073  18.391   8.551  23.876 -0.1708  0.2350  0.1120
96058W        W39074  33.450   4.356  28.007  0.0332 -0.0038  0.3085
96059W        W39075   6.938   0.486  18.111  0.4538  0.0288 -0.0353
96060W        W39076  19.689   1.679  18.367  0.1839 -0.1637  0.4794
96061W        W39077   9.163  22.213  20.280  0.1194 -0.3207  0.1208
96062W        W39078  13.184  13.977  14.229 -0.2546  0.2837  0.2201
96063W        W39079  19.267  21.880  20.322 -0.2140  0.1221 -0.1821
96064W        W39080  29.657  10.918  15.463  0.2915 -0.3039 -0.3463
96065W        W39081   4.011  14.820  17.356 -0.1816 -0.0680  0.0429
96066W        W39082  20.884  14.135  25.571  0.0076  0.0855  0.1783
96067W        W39083   8.204  33.471  18.422 -0.1879 -0.2763 -0.0362
96068W        W39084  24.818  28.946  24.344  0.1338 -0.2570  0.0230
96069W        W39085  21.850   3.594  28.362 -0.2836 -0.1579 -0.1272
96070W        W39086  29.596  28.471   9.778  0.1938 -0.1815  0.3829
96071W        W39087  25.108   0.049  26.410  0.0023 -0.4106 -0.2292
96072W        W39088  15.702   1.834  15.129  0.2792  0.2530 -0.3173
96073W        W39089  23.151   6.046  18.415 -0.1493 -0.0498 -0.0913
96074W        W39090  33.734  31.520  20.602 -0.1849 -0.0245 -0.1262
96075W        W39091  17.161   8.026  18.024 -0.0866  0.0643  0.2132
96076W        W39092  23.719  22.945  27.983 -0.0817 -0.5139 -0.1684
96077W        W39093  34.450   9.055  19.650 -0.2837  0.0195  0.2409
96078W        W39094  17.591  26.277  22.441  0.2660 -0.2286  0.3871
96079W        W39095   4.119  32.802  20.177  0.0297  0.1037 -0.0506
96080W        W39096  33.177  14.767  19.407 -0.1443  0.3013 -0.1189
96081W        W39097  14.358   3.160  19.697 -0.0551  0.0348 -0.1592
96082W        W39098  24.475  28.347  23.060 -0.1857  0.1952  0.0977
96083W        W39099  20.493  27.359  14.836 -0.0866 -0.1721  0.2136
96084W        W39100  18.882  24.406   0.406 -0.2141 -0.0550 -0.5138
96085W        W39101  14.574  27.054  16.923 -0.0237  0.0493  0.2731
96086W        W39102   7.681   2.443  26.887  0.0057 -0.0408  0.0919
96087W        W39103  30.411  27.543  21.382  0.4295 -0.1257 -0.2249
96088W        W39104  29.871  24.670  24.102 -0.1549  0.0018 -0.0271
96089W        W39105  30.773  29.232  23.771 -0.0640  0.1227 -0.3274
96090W        W39106   5.626  24.304  22.549  0.0784 -0.1070  0.1196
96091W        W39107  22.086  27.742  18.649 -0.1212  0.0025 -0.0397
96092W        W39108  26.690  11.110  17.816  0.0139 -0.3936  0.0438
96093W        W39109  12.017   4.124  20.572 -0.0726  0.0655 -0.3098
96094W        W39110  13.811  11.889  18.953 -0.0634 -0.0020 -0.0619
96095W        W39111  21.822  29.453   0.415 -0.1139 -0.3292 -0.1098
96096W        W39112  18.091   1.474  22.472  0.1530 -0.0491  0.1206
96097W        W39113  16.802  10.653  18.102 -0.2607  0.3557  0.0276
96098W        W39114  21.531  23.924  15.205 -0.0457 -0.1373 -0.2712
96099W        W39115  27.435   8.414  16.867  0.0356 -0.1791 -0.0612
96100W        W39116  24.905  31.157  28.966  0.0778 -0.1040  0.0435
96101W        W39117  32.832  10.977  23.917 -0.1012 -0.1971  0.0252
96102W        W39118  21.294   2.309  25.059  0.0252 -0.3063 -0.1789
96103W        W39119  32.424   1.401  15.005  0.0620 -0.2353  0.1006
96104W        W39120  22.173  22.897  17.255  0.1036 -0.1316 -0.1830
96105W        W39121  22.575  21.005   8.122 -0.1798  0.2007  0.0096
96106W        W39122   4.265   5.729  23.468 -0.1162 -0.3143 -0.3931
96107W        W39123   3.919   5.351   8.188  0.1368  0.1728 -0.0169
96108W        W39124  34.068  10.497   2.358 -0.0664  0.2129 -0.0564
96109W        W39125   8.881  26.425  15.638  0.2237  0.1036 -0.0218
96110W        W39126  27.822  27.083  24.231 -0.3453 -0.1197  0.0189
96111W        W39127  19.300  33.134  20.480  0.3785 -0.1412 -0.1638
96112W        W39128  14.210   6.707  21.429  0.1061 -0.0795  0.0512
96113W        W39129  22.476   4.236   0.417 -0.0655 -0.0868  0.0567
96114W        W39130  29.661  31.235  24.271 -0.0388 -0.1910 -0.2456
96115W        W39131  19.210   0.498  16.139  0.1625 -0.2592  0.1398
96116W        W39132  16.898  34.404   7.468 -0.2360  0.2448 -0.2213
96117W        W39133  23.855  31.645  19.811  0.1863 -0.0335 -0.0546
96118W        W39134   9.911   4.510  21.846  0.1353  0.0130  0.0173
96119W        W39135  15.444  13.247  13.198  0.2365  0.0271 -0.0730
96120W        W39136  17.436  10.336  24.597 -0.0014  0.0295 -0.1404
96121W        W39137  31.935   3.065  20.057  0.2983  0.1667  0.0871
96122W        W39138  21.589  34.412  24.296 -0.3033 -0.1398  0.1702
96123W        W39139  11.568  24.438   0.931  0.1346 -0.1185 -0.0353
96124W        W39140  24.549   1.437  16.793  0.0080  0.2098 -0.1629
96125W        W39141  11.224  12.172  18.642  0.0967 -0.2336 -0.0692
96126W        W39142  30.430  32.918  16.756  0.0960 -0.0163  0.3627
96127W        W39143  14.251   0.562  21.978  0.2501  0.1576 -0.0887
96128W        W39144   8.858  31.160  10.028 -0.1350 -0.0081  0.1502
96129W        W39145  16.549  31.142  25.747 -0.4369 -0.0182 -0.0389
96130W        W39146  15.567  25.090  22.508 -0.1844 -0.1040  0.1697
96131W        W39147  32.366  18.339   3.382  0.0626  0.0439  0.2158
96132W        W39148  31.311  34.625  17.415  0.5272  0.4461 -0.1394
96133W        W39149  27.725  28.465   2.199  0.1104  0.0407  0.0275
96134W        W39150  24.613   2.912  19.137  0.0766 -0.1119  0.1824
96135W        W39151  19.209  23.510  23.913  0.0745  0.1273 -0.1443
96136W        W39152   2.396  26.678   7.933 -0.0527 -0.0825 -0.0349
96137W        W39153  21.532   5.781  21.564  0.0195 -0.1645 -0.4184
96138W        W39154   6.067   5.060  26.874  0.2309  0.2222 -0.0259
96139W        W39155  17.226  24.290  20.168 -0.0153  0.1875  0.0359
96140W        W39156  29.573   3.515   2.415  0.0600 -0.2139  0.1111
96141W        W39157  11.848  21.120  21.108 -0.3397 -0.2322 -0.0794
96142W        W39158   3.047  32.938  19.333 -0.0329  0.0808 -0.2471
96143W        W39159  16.110   7.371  15.597 -0.2184 -0.1287  0.0108
96144W        W39160  21.119  27.977  28.999  0.0394  0.0773  0.0824
96145W        W39161  31.478  34.329  21.823  0.0350  0.1561 -0.1667
96146W        W39162  21.467  29.699  14.651 -0.0661  0.0604 -0.0073
96147W        W39163  18.546  27.834  19.435  0.0840  0.0747 -0.0576
96148W        W39164  27.605   0.077  26.694  0.0663 -0.1225 -0.1078
96149W        W39165   0.791   1.494  26.287  0.0126  0.0030  0.2052
96150W        W39166  26.682   5.603  21.446  0.0523  0.1189 -0.2031
96151W        W39167  11.241  12.560   0.378  0.0355 -0.0910  0.0142
96152W        W39168  12.970  27.321  19.592 -0.1688 -0.1951 -0.5118
96153W        W39169  18.904  31.987  20.261 -0.1564 -0.3321 -0.2671
96154W        W39170   7.839   8.930  15.469 -0.0194  0.1986 -0.2349
96155W        W39171  14.757  20.475  12.851 -0.0401 -0.0260  0.0207
96156W        W39172  29.844   1.954  18.038 -0.1175  0.0846 -0.2292
96157W        W39173  21.879   2.311   8.578  0.0773 -0.2197 -0.1744
96158W        W39174  14.416   0.081  21.937  0.1856  0.0450 -0.0546
96159W        W39175   6.629  29.060  27.547  0.0669  0.2023  0.1773
96160W        W39176  16.202  24.672  19.590 -0.1489  0.1772  0.1301
96161W        W39177  21.674   1.880  28.414 -0.1920 -0.4541  0.0229
96162W        W39178  15.489  34.770  28.723 -0.2308 -0.2104  0.1158
96163W        W39179  30.648  29.027   4.477 -0.0376 -0.0238  0.2955
96164W        W39180  17.625  24.342  26.618  0.0311  0.0014  0.0136
96165W        W39181  19.160  33.326  24.211  0.0686 -0.4719 -0.2814
96166W        W39182  24.022   2.169  19.266  0.0933 -0.0010  0.2198
96167W        W39183  23.506  27.821  17.696 -0.2767 -0.4203 -0.1086
96168W        W39184  30.946   3.525  19.822 -0.0800 -0.0326  0.1177
96169W        W39185   9.598  25.420  17.877  0.0691  0.2818  0.2523
96170W        W39186  17.954  18.252  24.274 -0.0859 -0.0849 -0.2580
96171W        W39187  29.368  32.093  16.579  0.0563  0.1154  0.0800
96172W        W39188  16.210  27.666  16.287 -0.1197 -0.2200  0.0416
96173W        W39189  22.147  27.930  16.523 -0.0055  0.0368 -0.1080
96174W        W39190   2.984  34.333   2.203  0.3903 -0.1307 -0.1561
96175W        W39191  18.602  23.062  13.973 -0.3194 -0.1617 -0.2931
96176W        W39192  22.842  22.646  24.839 -0.1106 -0.2219  0.0271
96177W        W39193  17.776  26.891  25.729  0.1678 -0.2971 -0.1032
96178W        W39194  10.451   9.570  19.508  0.3055 -0.0924 -0.1102
96179W        W39195  25.380  32.513  20.967 -0.1926  0.1711  0.0850
96180W        W39196  27.707  25.339  22.014  0.1212  0.1140 -0.1298
96181W        W39197   1.489  24.945  15.564  0.4609 -0.2142 -0.1786
96182W        W39198  29.868   7.527  17.993 -0.2837 -0.2239  0.0819
96183W        W39199  34.485   1.256  16.533 -0.4184 -0.1310  0.2979
96184W        W39200  19.837  33.224  18.784 -0.1541 -0.0445 -0.0421
96185W        W39201  21.061  14.947  13.943 -0.2819  0.0026  0.4173
96186W        W39202  16.186  30.351  19.534 -0.3293  0.0617  0.1247
96187W        W39203   5.379  19.665  26.283 -0.0088  0.1442 -0.1612
96188W        W39204  23.757   8.213  18.790 -0.1172  0.0704  0.1935
96189W        W39205   0.442  28.423  17.356  0.1351 -0.0386  0.0268
96190W        W39206  20.359   0.324  18.152  0.1636 -0.1520  0.0479
96191W        W39207  29.029   5.903  16.132 -0.1606 -0.0578  0.1005
96192W        W39208  25.318   5.235  16.772 -0.1637  0.0422 -0.3069
96193W        W39209  13.269  34.275  23.452  0.0175  0.3248 -0.0414
96194W        W39210  27.483  23.240   1.634 -0.2772  0.3534  0.2366
96195W        W39211  24.779  25.888   0.219 -0.0537 -0.0948 -0.0505
96196W        W39212  26.112   9.296  20.895  0.0678  0.0762 -0.0713
96197W        W39213  28.133  25.273  11.177 -0.0683  0.0607 -0.1284
96198W        W39214  12.999  21.593  23.157  0.0979 -0.0880 -0.0074
96199W        W39215   3.414  22.879   1.550 -0.0019 -0.0324  0.4088
96200W        W39216  16.604  23.314  19.270 -0.1766  0.0609  0.0780
96201W        W39217  22.018   5.633  21.743 -0.0761 -0.2263  0.0311
96202W        W39218  33.973  28.781  24.770 -0.1535  0.2508  0.2595
96203W        W39219   7.361  21.953  24.726  0.0608  0.0414  0.2795
96204W        W39220  17.083  14.711  14.674  0.3553  0.0826 -0.2534
96205W        W39221  27.609  19.373  16.571 -0.1134  0.0820  0.0517
96206W        W39222  31.392  10.735  25.154 -0.0842  0.1131  0.1371
96207W        W39223  22.633  27.002  23.380 -0.2934 -0.2101 -0.2769
96208W        W39224  17.471  32.640  21.920  0.2101 -0.2707 -0.1001
96209W        W39225  34.029   8.801  20.510 -0.0116  0.2292  0.3467
96210W        W39226  20.243   4.688  25.700  0.0406 -0.0396  0.2163
96211W        W39227  14.634  32.291  16.579  0.1218 -0.0002 -0.2099
96212W        W39228  18.555  21.366  21.022 -0.1903 -0.2822  0.1911
96213W        W39229  16.465  27.806  17.266  0.0958  0.1018  0.0242
96214W        W39230  24.905   0.583   2.240 -0.0067  0.0928 -0.1352
96215W        W39231   1.630  28.992  26.342  0.0513  0.0782  0.0898
96216W        W39232  10.162  16.577  17.996 -0.0258 -0.0866 -0.1861
96217W        W39233  34.698  27.859  24.555 -0.0371 -0.2132 -0.2369
96218W        W39234  21.472  22.894  21.256  0.1452 -0.2138  0.0455
96219W        W39235  11.578   5.487   0.127  0.1740  0.3003  0.0526
96220W        W39236  27.700   9.103  19.758  0.0583 -0.4278 -0.1094
96221W        W39237  12.768   5.637  27.176  0.1868 -0.1208 -0.1805
96222W        W39238  21.216   0.394   2.338 -0.0402  0.1240 -0.2156
96223W        W39239  17.972  28.848  16.243  0.2870 -0.3680  0.2009
96224W        W39240  25.358  29.827  21.936 -0.0380  0.0541 -0.0098
96225W        W39241  23.818   9.005  14.296 -0.0913  0.3171 -0.1689
96226W        W39242  10.640  30.357  21.899  0.1160  0.2367 -0.3967
96227W        W39243  32.608  34.517  19.909  0.1961  0.1898  0.0458
96228W        W39244  22.185  27.963  24.004  0.0479  0.2768  0.1313
96229W        W39245  17.746  25.605  23.346  0.0143 -0.1755  0.2533
96230W        W39246  25.686  20.759  15.496  0.0463 -0.1988 -0.1367
96231W        W39247  19.615   7.144  15.995  0.1527  0.2115  0.0607
96232W        W39248  11.060  34.236   0.387  0.1363  0.2280  0.1356
96233W        W39249  22.279  28.692   1.937  0.1140  0.1225  0.0140
96234W        W39250  29.455  25.506  19.138 -0.0672  0.2441 -0.0911
96235W        W39251   8.287  33.340  15.480  0.2105  0.2484 -0.1474
96236W        W39252  28.771  22.366  17.766 -0.0772  0.0498  0.1398
96237W        W39253  18.704   3.318  14.048 -0.1731  0.1428  0.2545
96238W        W39254  13.292  30.321  21.910 -0.2791 -0.3822  0.0871
96239W        W39255  12.767  25.742  27.836  0.0369  0.0027  0.2950
96240W        W39256  18.086   0.846  20.849 -0.2679  0.1187 -0.0334
96241W        W39257  30.916  30.597  17.459 -0.0420 -0.1468 -0.0816
96242W        W39258  20.681   0.029  22.783 -0.1518  0.0579  0.1150
96243W        W39259  34.656  32.564  10.322  0.1614  0.0500  0.0904
96244W        W39260  16.411  31.339  22.299  0.0241 -0.3895 -0.2188
96245W        W39261  10.769  25.578  22.786 -0.0955  0.2115  0.2292
96246W        W39262  21.626  20.252  17.008  0.2955  0.0146  0.3493
96247W        W39263  21.846  27.323  15.836 -0.1734  0.1126  0.2054
96248W        W39264  28.332   2.049  22.599 -0.2284 -0.2303  0.1261
96249W        W39265  25.100  27.847  16.015 -0.1055 -0.1391 -0.0406
96250W        W39266  17.196   0.725  18.987 -0.1713  0.0695  0.2574
96251W        W39267  22.642   4.154  19.595  0.1263  0.3181 -0.2056
96252W        W39268  31.363  16.750  21.221  0.0703  0.0266  0.0204
96253W        W39269   3.903  15.159  16.060 -0.3759 -0.1112 -0.0097
96254W        W39270  21.222   7.731   2.525  0.1146  0.0002  0.1266
96255W        W39271  26.078  33.525  17.419 -0.0712 -0.0962  0.0495
96256W        W39272  29.110   1.590  26.558 -0.1341  0.0197 -0.0209
96257W        W39273  20.900  29.120  19.488 -0.4538 -0.2197  0.0075
96258W        W39274  17.191   1.097  21.361 -0.0761  0.0027 -0.1845
96259W        W39275   7.895  25.000  17.468 -0.0813 -0.1537  0.0299
96260W        W39276  33.657  25.881  24.353  0.1700 -0.1518 -0.0300
96261W        W39277   1.519  17.302  21.822 -0.1480  0.0470  0.2474
96262W        W39278   1.806  29.944  21.746  0.1216  0.0932 -0.1921
96263W        W39279  21.705  22.960  27.384  0.1032 -0.0842  0.1019
96264W        W39280  32.636  26.423  18.351 -0.0262  0.0623  0.1116
96265W        W39281   8.417  19.187  19.311 -0.0852 -0.1915  0.1700
96266W        W39282  30.305   9.212  24.189 -0.0151  0.1540  0.1364
96267W        W39283  29.375  18.664  24.630  0.0810  0.0051  0.0374
96268W        W39284  20.683  24.717   9.846 -0.0727 -0.2882  0.0805
96269W        W39285  13.105  33.613   6.195  0.1267 -0.1665 -0.0425
96270W        W39286  20.148  33.339  24.217  0.2643 -0.0835  0.1624
96271W        W39287  25.663  27.369  27.907  0.1558  0.2088 -0.0852
96272W        W39288  22.686   8.344   2.812  0.1632 -0.0751  0.0360
96273W        W39289  22.211  22.882  20.121  0.3244 -0.1742  0.0742
96274W        W39290  22.458   8.247  23.424 -0.2452 -0.0459  0.3227
96275W        W39291  16.465  22.141  15.054  0.0667  0.0135  0.3254
96276W        W39292  29.227   2.712   4.661  0.2043  0.0559 -0.1979
96277W        W39293  23.348  32.559   7.632 -0.0847 -0.0923  0.0625
96278W        W39294  18.109  30.889  23.071  0.1789  0.1739  0.0117
96279W        W39295  33.654  23.680  17.976  0.0060 -0.2004 -0.0177
96280W        W39296   6.277  32.491  15.672 -0.0974  0.1208 -0.0600
96281W        W39297  21.317   1.549  15.154 -0.3734 -0.1437 -0.0929
96282W        W39298  28.189  26.603  17.311  0.0468 -0.0228  0.0008
96283W        W39299   0.070   9.182  22.046 -0.0069  0.0242 -0.0037
96284W        W39300  24.031  19.124  18.937 -0.1225  0.0173  0.2586
96285W        W39301  25.477   7.668  15.698  0.1063 -0.0644  0.4345
96286W        W39302  27.371  33.060   5.057  0.0173 -0.0780 -0.2374
96287W        W39303   8.297  29.665  21.406 -0.3671 -0.0253 -0.0803
96288W        W39304   9.618  34.408  17.339 -0.1245 -0.1608  0.1835
96289W        W39305  15.569  33.203   9.182 -0.1093 -0.1446 -0.0248
96290W        W39306  32.964  22.094  15.364  0.0954  0.3316  0.1496
96291W        W39307  30.874  29.437  20.677  0.3624  0.1671 -0.1209
96292W        W39308  18.249  24.031  24.924 -0.1382 -0.0791 -0.0444
96293W        W39309  21.581   1.360  15.662 -0.0426 -0.3632  0.0453
96294W        W39310  15.270   4.013  18.886 -0.3114  0.0049 -0.0076
96295W        W39311  27.538  28.727  20.379 -0.0136 -0.3483  0.0765
96296W        W39312  18.377   9.384  27.065 -0.0292  0.3749 -0.1734
96297W        W39313  29.440  24.885  25.857  0.1192  0.3004 -0.1170
96298W        W39314   9.586   5.294   5.173  0.0949  0.0272  0.1509
96299W        W39315  11.602  27.142  14.849  0.0209 -0.2739 -0.0069
96300W        W39316  13.312  31.357  16.087  0.1891 -0.1473  0.0304
96301W        W39317  30.824  34.219  17.073  0.1326  0.1424  0.1397
96302W        W39318  31.262  32.690  25.500  0.0107  0.1469  0.3602
96303W        W39319  24.273  34.566  18.514  0.1310 -0.3474 -0.2147
96304W        W39320   1.142  24.507   1.708 -0.0178 -0.0368 -0.0326
96305W        W39321  19.152  21.114   0.591  0.0190 -0.2990  0.3929
96306W        W39322  26.641  16.968  26.961  0.0256  0.2518 -0.2641
96307W        W39323  10.142  26.320   0.485 -0.2936  0.1295  0.3076
96308W        W39324  20.551   5.274  18.264  0.0620 -0.3126  0.2089
96309W        W39325  25.451  31.258  27.995  0.3217 -0.0606 -0.1347
96310W        W39326  11.750  33.637   8.475 -0.0056 -0.0321 -0.2432
96311W        W39327  23.720  11.192  27.891  0.1555 -0.2726  0.3848
96312W        W39328  16.261   3.113  14.945  0.3733 -0.0733  0.2707
96313W        W39329   4.662  22.559   4.141  0.3170 -0.1036  0.0286
96314W        W39330  16.933  29.079  23.794 -0.3052  0.0567 -0.2498
96315W        W39331   0.599  34.105  23.456  0.2365  0.1566  0.0474
96316W        W39332  22.363  25.799   6.516 -0.0035 -0.0017  0.0466
96317W        W39333  29.527  14.936   8.455  0.1046 -0.1817  0.2264
96318W        W39334  17.227  12.525  15.418 -0.1572  0.0983  0.2808
96319W        W39335  13.029  29.796  22.105  0.0818  0.0206  0.0912
96320W        W39336   9.274  28.772  15.911  0.1441  0.1423 -0.1940
96321W        W39337  24.535  26.175  17.351  0.0235 -0.0232 -0.1221
96322W        W39338  24.875  27.505  23.259  0.1731 -0.0320 -0.1430
96323W        W39339   5.608  12.234  19.080  0.0282  0.0981 -0.1914
96324W        W39340  25.361   1.980  23.560  0.2564 -0.0999 -0.3134
96325W        W39341  18.526   0.493  25.271  0.2398  0.0881 -0.0828
96326W        W39342   3.441  30.965  27.262  0.0237 -0.3349 -0.0643
96327W        W39343  30.983   0.724  22.994 -0.0534  0.2861 -0.2148
96328W        W39344  15.166  32.970   4.264  0.0817  0.1783  0.1331
96329W        W39345   3.531  27.282  27.485  0.0728 -0.0348 -0.0151
96330W        W39346  27.545  13.489  24.145  0.0219  0.3518  0.2636
96331W        W39347  22.679  27.798  18.654 -0.0228  0.1353  0.1575
96332W        W39348  21.992  25.725  19.062 -0.2081 -0.0723 -0.2592
96333W        W39349  24.934  23.159  19.312 -0.2112 -0.1597 -0.0258
96334W        W39350  29.397  28.491   1.213 -0.2149  0.0091  0.1809
96335W        W39351  30.847   9.692  21.616 -0.0671 -0.0366 -0.1286
96336W        W39352  19.981   3.615  22.701  0.0285 -0.1005 -0.1961
96337W        W39353  27.816  29.419  19.256  0.0318  0.2642  0.0696
96338W        W39354  21.624   0.114  18.432  0.2175  0.1957  0.0447
96339W        W39355  26.436  17.136  14.424  0.2826  0.1476 -0.2334
96340W        W39356  31.099  30.769  19.473  0.0411 -0.1895 -0.0001
96341W        W39357  15.605  25.621   2.161 -0.1218  0.2565  0.0229
96342W        W39358  20.920   8.615  22.220  0.0652 -0.1970  0.1285
96343W        W39359   0.726  17.557  14.299 -0.0393 -0.0117  0.3196
96344W        W39360  27.382  27.190  27.039  0.1168  0.0641  0.2681
96345W        W39361  31.034  30.327  26.428  0.2110 -0.3408  0.1545
96346W        W39362  25.638   0.719  16.233 -0.1160 -0.0623 -0.0098
96347W        W39363  22.491  21.118  18.383 -0.0353  0.0239  0.1794
96348W        W39364  10.584  31.119  27.415  0.0723  0.3712  0.1551
96349W        W39365  24.768  27.015  26.002 -0.2763 -0.0406 -0.0741
96350W        W39366  12.911  24.562  21.958 -0.2919 -0.1899 -0.0867
96351W        W39367  12.490  20.956  14.268 -0.1834 -0.2004 -0.2102
96352W        W39368  31.696  11.117  18.465  0.0714 -0.0226  0.3537
96353W        W39369  10.811   0.586   6.972 -0.1795  0.2375  0.1049
96354W        W39370   9.186   7.736  24.695  0.1294 -0.0176  0.0188
96355W        W39371   6.729  19.535  17.923  0.1662  0.2496  0.0227
96356W        W39372  24.419  34.461  24.246  0.0203 -0.3781 -0.3478
96357W        W39373   8.993   5.910  26.504  0.1272  0.1301 -0.0734
96358W        W39374  10.347   1.605  20.905 -0.1788 -0.1930 -0.0134
96359W        W39375  26.341  25.753  28.629 -0.1464 -0.0914 -0.2114
96360W        W39376   7.585  34.126  21.756  0.1833  0.0708  0.0151
96361W        W39377  26.988  19.691  28.449 -0.1966 -0.1234 -0.3288
96362W        W39378   2.465  33.814  24.209  0.0300 -0.4986  0.0885
96363W        W39379  26.445  29.351  20.517 -0.1218  0.0184  0.0087
96364W        W39380  27.804  25.993  28.935  0.0345  0.2278  0.2132
96365W        W39381  19.965   2.887  14.480  0.0579 -0.1599  0.0195
96366W        W39382  25.833  20.585  19.865 -0.1180 -0.1691 -0.2283
96367W        W39383  13.064  19.964  24.925  0.2121  0.1477  0.0339
96368W        W39384  27.852   7.275  16.321  0.0909 -0.0027 -0.0601
96369W        W39385   0.334  28.446   0.175  0.0774 -0.1420 -0.0233
96370W        W39386   5.800   1.129  27.561  0.0544  0.0585  0.2081
96371W        W39387  17.444   4.191   4.114  0.0524 -0.1506 -0.1917
96372W        W39388  12.829  31.579  27.101 -0.0237  0.1077  0.0959
96373W        W39389   2.782  25.160  28.911 -0.0815 -0.3649  0.0345
96374W        W39390  16.572  27.050   5.400 -0.1330 -0.0950 -0.0275
96375W        W39391  14.992   5.106   2.566 -0.2064  0.0965  0.1302
96376W        W39392   0.566   0.654  14.752  0.2711  0.0898 -0.1675
96377W        W39393  12.097   5.351  25.506 -0.1784 -0.2028  0.1029
96378W        W39394   3.619  31.855  20.092  0.0277 -0.0245 -0.0731
96379W        W39395  19.536   1.685  20.070  0.0778  0.0917  0.0917
96380W        W39396  26.154  22.710   3.647  0.2931  0.0988 -0.1077
96381W        W39397   3.933  17.970  17.921  0.1331  0.0556  0.2338
96382W        W39398  20.460  33.113  27.519 -0.0421 -0.0317 -0.1738
96383W        W39399  25.276  30.015  20.136  0.1163  0.2480 -0.3027
96384W        W39400  31.624   8.660  15.828 -0.0279  0.1361  0.0387
96385W        W39401   8.733  21.938  16.255 -0.0781 -0.0326  0.1292
96386W        W39402  15.278  25.474   7.626  0.1388  0.0736 -0.1835
96387W        W39403  11.919  21.817  13.236 -0.1342 -0.0419  0.1333
96388W        W39404  22.484  17.583  23.137  0.2018  0.2096  0.0629
96389W        W39405  26.893   0.058  22.261 -0.1605 -0.0092 -0.1393
96390W        W39406  23.353  28.059  19.563 -0.0579 -0.2361 -0.0080
96391W        W39407  11.405  34.070  25.189  0.0463 -0.1666  0.0676
96392W        W39408  32.973   3.685  15.502 -0.0002 -0.3177  0.1917
96393W        W39409  17.352  32.412  19.635  0.0061 -0.0136 -0.0377
96394W        W39410  27.474   7.390  19.546  0.2866 -0.0439 -0.0961
96395W        W39411  21.443  14.415  21.787  0.1839  0.1445 -0.2068
96396W        W39412  21.159  33.084  14.587 -0.0679 -0.0804  0.3728
96397W        W39413  23.430  16.964  20.274 -0.0060 -0.2047  0.0645
96398W        W39414  16.329   3.931   5.804 -0.2006 -0.1992 -0.0872
96399W        W39415  14.237   5.615  22.432  0.1168  0.0187  0.3148
96400W        W39416  21.369   1.326   4.079  0.0951  0.2818  0.2224
96401W        W39417  14.613  27.358  20.495  0.0371 -0.3535 -0.1759
96402W        W39418   3.199   6.078   2.083 -0.1073  0.3343 -0.1950
96403W        W39419   8.872  24.617  23.515  0.1287  0.1806  0.2873
96404W        W39420  15.427   4.547  26.114 -0.0888  0.0547 -0.1206
96405W        W39421  32.175  16.827  24.981 -0.0069 -0.2701  0.0338
96406W        W39422   8.942  32.129  28.009 -0.3061  0.3090  0.0392
96407W        W39423   8.480   1.923   3.792  0.1616  0.2912  0.2651
96408W        W39424  26.916  34.680  20.470  0.3216 -0.2288 -0.1959
96409W        W39425  25.044   5.448  24.649  0.0694 -0.0713  0.2216
96410W        W39426  24.616  26.303  23.846 -0.1278  0.3086  0.2336
96411W        W39427  21.062  27.587  20.623  0.0738 -0.0944 -0.2418
96412W        W39428   8.956   0.543  28.510  0.3139 -0.0162  0.1640
96413W        W39429   9.904  29.475  23.862 -0.1465  0.0610  0.2367
96414W        W39430  27.457   4.073  22.817 -0.1704 -0.1458 -0.1272
96415W        W39431  27.090  20.031   3.602 -0.3649 -0.1295 -0.1619
96416W        W39432  13.043  33.923  17.832 -0.1313 -0.0673  0.1385
96417W        W39433  21.356  21.429  24.095  0.0870 -0.3234  0.0744
96418W        W39434  27.545  13.579  27.924 -0.2278  0.0389 -0.0972
96419W        W39435  22.812   8.460  29.210  0.3938 -0.0549 -0.0175
96420W        W39436  18.300  24.073  16.455 -0.1345  0.3387 -0.0863
96421W        W39437   7.339  28.877   0.672  0.0527  0.1862  0.2686
96422W        W39438   6.541   4.723   6.436 -0.1974  0.1330 -0.2861
96423W        W39439   2.462  24.684  22.715 -0.2290 -0.1364 -0.0796
96424W        W39440  29.667  29.361   3.231 -0.2260  0.2228 -0.1331
96425W        W39441   5.503  12.114  28.038  0.2105 -0.0521 -0.1490
96426W        W39442   3.685  23.878  27.579 -0.2209  0.2426  0.3291
96427W        W39443  11.467  31.798  28.596  0.1241 -0.3150  0.0423
96428W        W39444   6.801  25.639   0.453  0.1046  0.0482  0.3481
96429W        W39445  25.790  22.722  25.695  0.0573 -0.3123  0.4569
96430W        W39446  24.455   6.776  27.612  0.2014  0.0368  0.1868
96431W        W39447  17.584  24.851  27.707  0.1633 -0.0638  0.1120
96432W        W39448  15.700   0.527   1.744  0.0410 -0.2171 -0.1407
96433W        W39449  34.713   9.780  17.814 -0.1382  0.0875 -0.2701
96434W        W39450  26.848  29.936   2.634 -0.0498 -0.3094 -0.1325
96435W        W39451   7.072  29.427   0.058 -0.2177  0.0020 -0.3445
96436W        W39452  13.357  24.506  13.189  0.2379 -0.1109 -0.1710
96437W        W39453  26.122   9.894  18.474 -0.0758 -0.2074 -0.1761
96438W        W39454   8.745  33.705  18.995 -0.1559 -0.1972 -0.2019
96439W        W39455  12.877  24.414  18.950 -0.1464 -0.0753  0.1598
96440W        W39456  14.586  29.415  16.844 -0.1463 -0.1354 -0.0165
96441W        W39457  18.380  31.432  26.122  0.2431  0.1604  0.0101
96442W        W39458  14.266   2.009   5.366 -0.1704  0.1408  0.1696
96443W        W39459  21.912   1.041  15.428  0.4427 -0.1045  0.0583
96444W        W39460   6.619  30.879  17.145  0.0582 -0.0107 -0.0172
96445W        W39461  10.505  23.090  17.442  0.1337 -0.0149  0.0733
96446W        W39462  12.191   2.052  17.783  0.1553 -0.1830 -0.1521
96447W        W39463  24.778  27.984  25.870  0.3421 -0.1132 -0.2099
96448W        W39464  26.991  30.514  19.801  0.1225  0.0172  0.2940
96449W        W39465  30.292  16.183  22.470 -0.1294 -0.0066 -0.0281
96450W        W39466  23.439  28.631  23.512  0.1131 -0.2099 -0.2001
96451W        W39467   2.290  19.676  23.034 -0.0898  0.2189  0.2403
96452W        W39468  16.666   1.018  16.587 -0.2216 -0.0399  0.1441
96453W        W39469  11.105   7.261  26.889  0.0923 -0.1879  0.2950
96454W        W39470   4.034  29.490   5.526 -0.2599  0.0008  0.2948
96455W        W39471  14.536   6.144  26.462  0.0018  0.0578 -0.2471
96456W        W39472   5.945  22.809  18.242  0.1522  0.1774  0.1737
96457W        W39473  17.967  32.630  18.904 -0.2890 -0.0182  0.3344
96458W        W39474   2.157  10.666   5.400  0.0094 -0.3102  0.2684
96459W        W39475  26.894  18.782  23.029  0.1329 -0.0518  0.0064
96460W        W39476   9.251  29.276  18.633 -0.1719  0.0679  0.3411
96461W        W39477  20.721  23.916  25.400 -0.2999 -0.2736 -0.1206
96462W        W39478  29.427  24.718  19.914  0.0806 -0.1145 -0.2690
96463W        W39479  19.406   9.885  18.034 -0.0881  0.3238 -0.0744
96464W        W39480  15.844  29.370   8.232 -0.1956  0.0931  0.1818
96465W        W39481  14.514  10.275  20.395 -0.0428  0.1359  0.2210
96466W        W39482  32.180   1.483  17.042  0.3073 -0.1428  0.0117
96467W        W39483  12.175  10.649  17.817  0.4037 -0.2595  0.1363
96468W        W39484   9.282  30.727  22.897  0.0161  0.2860  0.0905
96469W        W39485  18.518   6.921  23.230 -0.0434  0.2780 -0.1842
96470W        W39486  34.099  30.307  15.239  0.1406 -0.2676  0.0931
96471W        W39487   4.289  21.894   8.085  0.0015 -0.0170  0.0185
96472W        W39488   9.299  21.641  17.037 -0.1714  0.1895  0.1364
96473W        W39489  27.762   4.917  20.804  0.0338  0.1184 -0.0312
96474W        W39490  28.012  29.914  11.050 -0.0640 -0.1354 -0.3731
96475W        W39491  31.520  31.865  23.327  0.0545 -0.1156  0.0361
96476W        W39492  20.190  28.201  19.557 -0.1151  0.0421  0.3035
96477W        W39493   9.271   0.765   4.416 -0.0094  0.0989 -0.0004
96478W        W39494   8.852  32.656  21.384  0.1556  0.2323 -0.0716
96479W        W39495   6.198   6.128   9.339  0.1348 -0.5684 -0.2792
96480W        W39496  24.504  23.741  20.058  0.1431 -0.0359  0.1982
96481W        W39497  24.454  25.182   2.574 -0.1799  0.1347 -0.1132
96482W        W39498   1.682  20.428  22.972  0.2165 -0.0025  0.0040
96483W        W39499  23.665   0.553  17.750  0.0060  0.0716 -0.2291
96484W        W39500  16.817   0.914  22.123  0.1076 -0.1305 -0.0093
96485W        W39501  10.804   2.595  25.991  0.2071  0.0313 -0.0793
96486W        W39502   5.352  18.176  17.718  0.1092  0.4099 -0.3604
96487W        W39503  25.453   3.787  27.039 -0.1929  0.0047  0.0719
96488W        W39504   9.457  30.360  27.295 -0.2251 -0.2893  0.0908
96489W        W39505  20.789  20.708  15.481  0.1172  0.1711  0.1498
96490W        W39506  21.730  14.302  23.255 -0.2467 -0.3285  0.2661
96491W        W39507  25.845   7.071   7.582 -0.2885  0.0599 -0.0410
96492W        W39508  20.714  32.785   2.959  0.0499 -0.2438  0.0597
96493W        W39509  16.154   1.062  17.705 -0.1372 -0.0857  0.0087
96494W        W39510  18.755  34.776  15.628  0.0846  0.2771 -0.3016
96495W        W39511  27.582  31.847  25.286 -0.1849 -0.1461 -0.1101
96496W        W39512  26.891   3.292  26.851 -0.2024 -0.2077  0.2709
96497W        W39513  17.747  12.212  21.882  0.2624 -0.1054  0.2527
96498W        W39514  23.434  26.581  24.453  0.2861  0.0461 -0.1085
96499W        W39515  30.273  30.271  28.117  0.2854  0.1193 -0.2762
96500W        W39516  11.142  29.135   0.819 -0.1893 -0.3397 -0.2321
96501W        W39517  10.207  25.205  14.270  0.0636  0.0177 -0.1603
96502W        W39518  28.444  25.411  27.751 -0.0894 -0.3349 -0.1120
96503W        W39519  11.563   5.111   0.844 -0.3095 -0.0698 -0.1088
96504W        W39520  24.034  15.920  20.565 -0.1607 -0.1240  0.0852
96505W        W39521  26.983  13.138   7.146  0.1806  0.0180 -0.2657
96506W        W39522  10.756  33.072  24.352  0.1268 -0.1213  0.2082
96507W        W39523  10.994  31.710  17.733 -0.2463  0.0216  0.0308
96508W        W39524  17.147   0.737  17.640 -0.2863 -0.0157 -0.3370
96509W        W39525  19.056  25.796  19.595 -0.0724 -0.0457  0.2767
96510W        W39526  12.468   4.026  25.422  0.0708 -0.2532  0.3044
96511W        W39527   3.092   8.056  28.874  0.0749  0.2403 -0.4752
96512W        W39528  23.592   4.481  15.522  0.1935  0.1915 -0.0373
96513W        W39529  10.677  13.372  20.555 -0.1572 -0.1467 -0.2347
96514W        W39530  21.257  28.558  28.633  0.0548  0.2527 -0.0504
96515W        W39531  25.254  29.588  24.729 -0.3356 -0.5036  0.2563
96516W        W39532   6.144  12.424  20.520  0.2721  0.0116 -0.0067
96517W        W39533  16.078   3.497  27.545 -0.0083 -0.2875 -0.0400
96518W        W39534  31.858  32.659  27.840  0.0646 -0.5179  0.0975
96519W        W39535  13.321  13.978  12.309  0.1851 -0.0023 -0.2686
96520W        W39536   3.504  24.492  16.381 -0.3278  0.5101  0.0863
96521W        W39537  22.446  33.653   5.720  0.1912 -0.2974 -0.0802
96522W        W39538  10.912  25.953  14.781  0.0254  0.1303 -0.1618
96523W        W39539  10.348  34.381  25.611 -0.0474  0.0968 -0.0609
96524W        W39540  10.587  23.702  16.725  0.1787  0.2777 -0.6247
96525W        W39541  27.718  25.561  24.615 -0.1351 -0.0965 -0.3073
96526W        W39542  27.578   1.589  19.238  0.2966  0.2623 -0.0154
96527W        W39543  22.916  24.493  14.084  0.1761 -0.4244 -0.2143
96528W        W39544  25.851  24.735  18.607 -0.2434 -0.0784  0.0284
96529W        W39545  12.668  32.035  28.273 -0.3166  0.0721 -0.0881
96530W        W39546  19.188   1.088   4.701  0.0986 -0.3462  0.0489
96531W        W39547  22.502   2.721  17.322 -0.0830  0.2098 -0.0688
96532W        W39548  28.337  32.700  26.840  0.3959  0.1701  0.0551
96533W        W39549  31.283   0.542  27.290 -0.0286 -0.1493 -0.0974
96534W        W39550  14.808  33.878  23.766  0.1344 -0.1077  0.0282
96535W        W39551  27.347   3.164  26.713  0.0577  0.0731 -0.1226
96536W        W39552  16.130   1.887  24.691 -0.0695  0.0832  0.2710
96537W        W39553   6.628  32.547  21.580 -0.1688  0.0222 -0.1675
96538W        W39554  16.365  16.248   1.159 -0.0669  0.2112 -0.0959
96539W        W39555  15.958   6.084  18.739 -0.1862  0.1501  0.3955
96540W        W39556  21.613   5.402  24.038 -0.2449 -0.1895 -0.0501
96541W        W39557  17.301  23.059  21.352  0.1361  0.2922 -0.1546
96542W        W39558  12.228   9.648  15.198 -0.0787  0.1851  0.2695
96543W        W39559   8.893  30.740  18.486  0.1503  0.0061  0.1773
96544W        W39560  27.961  25.025  20.561  0.0035  0.1863  0.0708
96545W        W39561   7.887  32.275  20.884 -0.1138 -0.1231 -0.1131
96546W        W39562  30.482  31.631  26.605 -0.2014 -0.0948 -0.1553
96547W        W39563  24.607   2.248  24.339 -0.2526  0.2225  0.0191
96548W        W39564  17.174  33.272  19.139  0.0193  0.1914  0.0081
96549W        W39565  15.854  34.765   2.653 -0.3454  0.3356  0.5657
96550W        W39566  15.185  31.179  23.090  0.1296 -0.1939  0.1494
96551W        W39567  28.106  30.770  16.256 -0.0173  0.2385  0.1179
96552W        W39568  18.612   2.931   4.847  0.0758 -0.1037 -0.0587
96553W        W39569  18.455   1.984  27.401 -0.2602 -0.1023  0.2612
96554W        W39570   7.238  11.332  15.368 -0.1153 -0.2114 -0.1156
96555W        W39571   6.992  29.801  25.565  0.2018  0.1318 -0.2496
96556W        W39572  19.471   2.091  16.717 -0.1633  0.1068 -0.3047
96557W        W39573   4.800  26.173   4.132 -0.2463 -0.0735 -0.2056
96558W        W39574  22.159  25.316  19.227 -0.1292 -0.2096 -0.0157
96559W        W39575  12.399  16.922   5.553  0.0087 -0.1657  0.1426
96560W        W39576  16.384  28.942  21.707 -0.0272  0.1984  0.1060
96561W        W39577   8.840  32.209  18.057  0.3591 -0.0830 -0.1508
96562W        W39578   8.248  25.365  18.286 -0.1254  0.2701 -0.0077
96563W        W39579  12.160  29.573  17.371  0.1788  0.0433  0.0075
96564W        W39580  13.161   4.616   6.736  0.2778 -0.1016  0.0744
96565W        W39581  33.383  19.047   7.418 -0.0075  0.1557 -0.0559
96566W        W39582  16.909  26.462   0.654  0.0620 -0.0215 -0.0121
96567W        W39583  14.024  28.092  17.860  0.1104 -0.3739  0.2544
96568W        W39584  15.499  34.284  24.714 -0.1173 -0.1290 -0.0822
96569W        W39585  29.384  27.686  15.407 -0.2107  0.2113 -0.0761
96570W        W39586  21.980  33.556  27.922 -0.2593 -0.0111 -0.0238
96571W        W39587  24.597  30.243  27.701  0.2864  0.1107  0.1038
96572W        W39588  15.479   3.552  21.118  0.1349 -0.0423  0.1531
96573W        W39589  10.337  25.611  19.501  0.0538  0.0987 -0.0089
96574W        W39590  19.310  22.501  26.551  0.1158 -0.1611 -0.0387
96575W        W39591  23.897  17.127   5.402  0.0152 -0.1624  0.1043
96576W        W39592  16.199   5.209  20.090  0.2300 -0.1763 -0.3140
96577W        W39593   9.294  21.946  12.904 -0.1097  0.0901  0.0136
96578W        W39594  24.284   3.142  17.720 -0.4317 -0.0643  0.0282
96579W        W39595  24.049   5.189  15.235  0.3046  0.0058  0.0086
96580W        W39596   8.352  33.874  15.612 -0.1886 -0.1683 -0.2232
96581W        W39597  23.238  16.893  20.868 -0.0979 -0.1100 -0.1849
96582W        W39598  17.048  17.902  15.492 -0.2400  0.0263  0.1783
96583W        W39599  15.399   9.549  28.342  0.2125 -0.0161  0.4094
96584W        W39600  22.570  23.140  19.685  0.1820 -0.1043  0.0963
96585W        W39601  28.035  30.051  22.374  0.1928 -0.0159 -0.0859
96586W        W39602  20.701  10.674  14.781  0.1321 -0.2027  0.1553
96587W        W39603  14.668   7.191  15.463  0.0476 -0.1674 -0.2723
96588W        W39604  16.609   5.820  27.884 -0.2493  0.2677  0.0919
96589W        W39605  30.157  29.697  17.363 -0.2211  0.0685 -0.1654
96590W        W39606  32.216  31.310  27.447 -0.2016 -0.2089 -0.0229
96591W        W39607  31.173  29.909   7.895  0.1200 -0.0539  0.1583
96592W        W39608  11.984  28.930  23.605 -0.2173  0.0824 -0.3135
96593W        W39609  27.519  17.402  16.369  0.0462 -0.1492  0.5071
96594W        W39610  16.075  26.061  27.406 -0.1916 -0.1240  0.1252
96595W        W39611  20.013   5.652  21.326 -0.5120  0.1931 -0.1796
96596W        W39612  33.973   3.345  22.248  0.0356 -0.2311  0.0646
96597W        W39613  19.576  20.801  23.383 -0.1578 -0.1037  0.1147
96598W        W39614  23.847   8.222   7.588  0.0545 -0.0417  0.1965
96599W        W39615   6.606  13.413   6.047  0.1067  0.1579 -0.2847
96600W        W39616  26.986  33.092  18.794 -0.2825  0.0887 -0.0639
96601W        W39617  31.030   6.680  19.825  0.3121  0.1452  0.3787
96602W        W39618   6.050   6.230  26.866  0.0518  0.4248  0.1180
96603W        W39619  17.526   7.960  20.033 -0.1068 -0.1626 -0.0135
96604W        W39620   5.722  34.302   9.067 -0.1400 -0.0624  0.0379
96605W        W39621  17.012  29.715  27.855  0.1094 -0.0164 -0.0694
96606W        W39622   2.107  25.426  18.091 -0.1158 -0.1365 -0.1818
96607W        W39623  13.588  15.517  14.921  0.1241  0.0625  0.4020
96608W        W39624  14.561   0.163  24.028  0.0583  0.1504  0.0840
96609W        W39625   3.326  30.338  16.098  0.0850 -0.0136 -0.2410
96610W        W39626  21.528  30.310  15.689 -0.1348  0.4743  0.4565
96611W        W39627   8.674  12.054  14.810  0.3760  0.0541 -0.2579
96612W        W39628  26.193  23.440  21.274  0.0640  0.2203 -0.0404
96613W        W39629  29.032   0.782  21.036  0.1732 -0.0437  0.1725
96614W        W39630   8.164  25.656  29.241  0.5342  0.0559 -0.0107
96615W        W39631  24.051  20.123  16.482 -0.0195  0.0984 -0.1686
96616W        W39632  32.164  22.883  15.752  0.1110 -0.0573 -0.1385
96617W        W39633  19.121  28.679  15.271 -0.0251  0.1201  0.0565
96618W        W39634   9.796  19.552  14.738 -0.1781 -0.0078  0.1177
96619W        W39635  27.544  32.647  21.381 -0.1921  0.0587 -0.2466
96620W        W39636   7.668   3.818  17.406 -0.0745  0.2230 -0.3030
96621W        W39637  29.249  31.982   3.594  0.0073 -0.1353 -0.2397
96622W        W39638  19.293   3.191  16.161 -0.1938  0.0835 -0.1816
96623W        W39639   1.716  29.544   1.082  0.0566  0.1165 -0.2647
96624W        W39640   6.150   3.424   4.795 -0.4919  0.0214 -0.1259
96625W        W39641  12.398   0.448  18.878  0.4534 -0.4018 -0.1766
96626W        W39642  31.628  27.652  22.731  0.0224  0.0643 -0.1307
96627W        W39643   8.442  26.355   6.960  0.1547  0.2312 -0.0024
96628W        W39644  31.682  34.381   1.643  0.1467 -0.1104 -0.3622
96629W        W39645  19.504   1.393  25.602  0.2669  0.2172  0.0682
96630W        W39646  24.781  33.030   9.004  0.0385  0.1631  0.1883
96631W        W39647  30.922  29.937   2.126  0.0401 -0.0828  0.1499
96632W        W39648  32.848  18.989  26.847 -0.0655 -0.0530 -0.1045
96633W        W39649  23.173  14.043  15.958 -0.0198 -0.2308  0.1994
96634W        W39650  24.114   2.665  23.401 -0.0027 -0.0977 -0.0686
96635W        W39651  21.801  27.361   4.319  0.3990  0.1707 -0.1621
96636W        W39652  23.855  18.154  28.061 -0.3268 -0.3810 -0.1780
96637W        W39653   1.177   9.341  28.249 -0.2877  0.2525  0.2443
96638W        W39654   8.174  34.027  21.683 -0.2856 -0.2702 -0.1960
96639W        W39655  17.230  26.716  25.653 -0.3911  0.0246 -0.0980
96640W        W39656  11.597   3.441  20.332  0.1029  0.0914  0.0512
96641W        W39657  22.684  24.566  14.578  0.1483  0.0799  0.1826
96642W        W39658  17.916  24.492   0.939 -0.1142  0.0234  0.0270
96643W        W39659  19.242   7.253  24.425 -0.1971  0.4456  0.1447
96644W        W39660   2.719  20.032  19.012 -0.0478 -0.0640 -0.1798
96645W        W39661  29.652  28.558   5.456  0.2556  0.0007  0.1127
96646W        W39662   0.048   1.937   3.338 -0.0831 -0.0947 -0.1459
96647W        W39663   9.058  27.482  13.715 -0.1514 -0.3543 -0.1024
96648W        W39664   9.956   8.076  14.544 -0.2663  0.0539 -0.3606
96649W        W39665  30.863   5.073   6.859  0.0941 -0.0787 -0.1904
96650W        W39666  13.083  11.461   0.225  0.2243 -0.2289 -0.2095
96651W        W39667  17.126  21.693  20.058 -0.0991 -0.3628  0.0172
96652W        W39668  18.689  33.644  14.846 -0.0982  0.2415  0.0697
96653W        W39669  19.496   2.372  16.333  0.2782 -0.0443 -0.0792
96654W        W39670  27.059  27.332  27.363  0.2198  0.2633  0.2022
96655W        W39671  16.357   7.403  18.402  0.3790  0.0184 -0.2458
96656W        W39672  26.560  22.495  18.962 -0.2759 -0.1761 -0.4061
96657W        W39673   5.946  29.277  17.095  0.1832  0.0223 -0.1550
96658W        W39674   7.678  19.706  22.851  0.1305 -0.0671 -0.4615
96659W        W39675  27.609  23.724  16.114 -0.2068 -0.0581 -0.3482
96660W        W39676  17.350   9.811  16.049 -0.2402  0.0767 -0.3829
96661W        W39677  32.490   5.419   0.562 -0.1087 -0.1395  0.1899
96662W        W39678  12.888  29.474   6.393  0.0055 -0.0003  0.0430
96663W        W39679  16.383  16.562   7.461  0.0942 -0.0091 -0.0410
96664W        W39680   4.654  23.085   0.822  0.0210  0.1601 -0.2244
96665W        W39681   5.160  26.068  14.403 -0.2495  0.0447  0.0671
96666W        W39682  26.689   7.847   0.552 -0.2849 -0.0287  0.1015
96667W        W39683  33.020  19.860  28.749  0.0773 -0.1124  0.0788
96668W        W39684  31.049  11.223   5.476 -0.2734 -0.0482 -0.0602
96669W        W39685  34.563   1.492   4.325 -0.0682  0.0198 -0.0767
96670W        W39686   9.910  26.732  22.834 -0.4704 -0.0500  0.1675
96671W        W39687  11.490   6.513  28.659 -0.1063  0.0117  0.1288
96672W        W39688  23.589   5.197   6.884  0.1930 -0.1519 -0.0471
96673W        W39689  10.313   9.030   4.416  0.4427  0.0435 -0.2431
96674W        W39690  14.827  11.511  19.251  0.1877  0.1339 -0.1476
96675W        W39691  22.321   4.998  18.772  0.0854 -0.1541  0.2261
96676W        W39692  14.082  29.287  25.506 -0.2379  0.1423  0.0902
96677W        W39693  24.750  24.928  26.786 -0.5282 -0.2590  0.1683
96678W        W39694   2.471  18.956   3.714  0.2543  0.1922  0.0529
96679W        W39695  29.322  20.944  28.819  0.4356 -0.0560 -0.2554
96680W        W39696  15.911   6.554  27.220 -0.5379  0.3095 -0.3634
96681W        W39697   6.650   2.044   2.140 -0.4109  0.2466 -0.0602
96682W        W39698  12.229   6.850  19.887  0.0620 -0.2331 -0.1935
96683W        W39699   0.150  11.931  25.455 -0.1962 -0.1771  0.3355
96684W        W39700  21.506   1.901  22.009 -0.0505  0.2960 -0.1133
96685W        W39701  10.041  25.703  28.426  0.0290  0.1639 -0.0560
96686W        W39702  25.334  32.375  24.743  0.1495 -0.0678  0.0530
96687W        W39703  15.929   7.458   1.079 -0.2145 -0.2869  0.0676
96688W        W39704  33.259  24.186   0.335 -0.0321  0.1901  0.0317
96689W        W39705  33.949   0.761  15.825 -0.0216 -0.0748 -0.1240
96690W        W39706   5.522  29.331  15.873  0.0566  0.0080  0.0946
96691W        W39707   2.417  26.024  23.681  0.2160  0.2731 -0.2091
96692W        W39708  30.487  22.404  28.498 -0.2228  0.0980  0.0683
96693W        W39709   8.888  15.334  20.133  0.1261 -0.0887  0.1903
96694W        W39710  21.332  24.715   2.572 -0.4316 -0.1976 -0.0298
96695W        W39711  15.156  31.665  28.513  0.0240  0.0633 -0.3108
96696W        W39712  19.109   4.597  20.653 -0.1884  0.0562 -0.0724
96697W        W39713  14.605  21.131   4.571  0.2277  0.2603  0.3311
96698W        W39714  20.267  28.936   0.273  0.4834  0.2478 -0.1569
96699W        W39715  29.689   8.251  28.540  0.2876  0.0572 -0.0314
96700W        W39716  14.430  24.564   2.365  0.3025  0.1587  0.2026
96701W        W39717  22.574  28.637  27.312 -0.3629 -0.2707  0.2282
96702W        W39718   0.436   9.405   2.461 -0.0875  0.2632  0.2789
96703W        W39719  17.153   3.043  19.852 -0.2057  0.3871 -0.0501
96704W        W39720  20.314  29.697  22.845 -0.0962 -0.0436 -0.1264
96705W        W39721   3.595  10.993  23.031  0.1711  0.0665  0.4304
96706W        W39722  21.625  11.702  28.738 -0.0045 -0.1311  0.0262
96707W        W39723  19.209  12.041  19.405  0.0680  0.1868 -0.0907
96708W        W39724  22.890   4.881  14.632 -0.1545  0.0362  0.1665
96709W        W39725   6.842  27.928  18.857  0.0418  0.1981  0.0213
96710W        W39726  10.678  27.381  17.213  0.2567 -0.1213  0.2166
96711W        W39727   2.611   2.895  23.236 -0.1069  0.1512 -0.1216
96712W        W39728  22.054   3.590   8.052  0.0710  0.0873  0.0524
96713W        W39729  26.764  22.369  23.068 -0.1016 -0.2208 -0.0958
96714W        W39730  13.655   6.591   7.586  0.2994 -0.0378  0.0219
96715W        W39731  22.002  17.317  13.853  0.0028  0.0361  0.1799
96716W        W39732  19.825  19.410   5.554  0.0420  0.2052 -0.0272
96717W        W39733   3.129   7.092   5.095 -0.1390 -0.1566  0.1194
96718W        W39734  28.462  19.764  25.532 -0.0455  0.1525 -0.3394
96719W        W39735   0.584   0.470  26.146 -0.2290  0.1228 -0.2252
96720W        W39736  34.560  31.092  21.072  0.1896  0.1145  0.0442
96721W        W39737  18.400   0.450  27.572 -0.0634 -0.0126  0.0477
96722W        W39738  13.565   1.950   0.865 -0.1066  0.3497 -0.1231
96723W        W39739  11.883  20.514  16.209  0.3327 -0.1929 -0.3575
96724W        W39740  34.002   5.042   5.917  0.0416 -0.1978 -0.2492
96725W        W39741   4.225   9.481   1.714  0.0453  0.2438 -0.2735
96726W        W39742   7.163  24.272  25.614  0.2946 -0.2752  0.6533
96727W        W39743  16.345  15.655  29.285 -0.1119  0.1589 -0.2461
96728W        W39744   3.319  27.530   6.910 -0.3456 -0.1981  0.1038
96729W        W39745  22.907  29.876   2.510  0.0144  0.0072 -0.1959
96730W        W39746  18.949   2.020   2.817  0.0382 -0.1162  0.0826
96731W        W39747  11.445  23.928  12.596 -0.0966  0.0888  0.0492
96732W        W39748  31.171   7.157  11.052 -0.0080 -0.0748  0.0294
96733W        W39749  34.121  19.658  18.072 -0.2320  0.1531 -0.1769
96734W        W39750  18.843  17.575  26.531  0.2977 -0.2805 -0.0606
96735W        W39751  12.184  22.544   2.308  0.0489  0.1623  0.1152
96736W        W39752  16.134   1.167   2.246  0.0139 -0.1749  0.1979
96737W        W39753   5.359  20.783  26.818  0.2559  0.4193 -0.0898
96738W        W39754  19.530   4.755   4.892  0.1344 -0.2476 -0.0262
96739W        W39755  23.100   0.727   1.616  0.0129  0.1863 -0.1116
96740W        W39756  16.694   7.751  15.021 -0.0634  0.2839  0.0969
96741W        W39757  32.818  32.039  10.815  0.0259 -0.1265  0.3455
96742W        W39758  29.405  29.716  11.394  0.0105 -0.2509 -0.2169
96743W        W39759  22.581   0.876  25.396 -0.1103 -0.1138 -0.3189
96744W        W39760  19.247  34.370  21.527 -0.0389 -0.1073  0.0931
96745W        W39761  20.927  22.092  19.252  0.1053  0.1886 -0.2311
96746W        W39762   3.195  31.271   4.494 -0.2326  0.0517 -0.0609
96747W        W39763  15.253  20.513  20.537  0.0696  0.1935  0.1321
96748W        W39764  28.372  30.065  24.205 -0.0038 -0.0719  0.1196
96749W        W39765  22.469  30.199  21.350  0.0463  0.1378  0.0152
96750W        W39766  20.042   1.669  17.006 -0.1482  0.2974 -0.1864
96751W        W39767  12.414   7.882  28.730  0.1457  0.1628 -0.2108
96752W        W39768  28.375  21.999  17.222 -0.2499 -0.1267 -0.1666
96753W        W39769  31.412  23.666  23.321 -0.1202  0.2092 -0.1980
96754W        W39770  26.929  33.684  25.544 -0.0607  0.0317  0.0760
96755W        W39771  28.685   0.384   2.635 -0.1477  0.0083 -0.0460
96756W        W39772  16.955   8.026   0.469 -0.2395 -0.1096 -0.3582
96757W        W39773  11.915  31.972  21.469 -0.0032  0.0966 -0.2791
96758W        W39774  27.371   6.803   6.158  0.0374 -0.3480 -0.1792
96759W        W39775  15.495  30.303  24.322 -0.1837  0.1085  0.1481
96760W        W39776  18.511  26.914  15.187  0.1972 -0.0061 -0.0509
96761W        W39777  16.245  24.973  16.920 -0.2445  0.3550 -0.0235
96762W        W39778  29.349  28.281  17.484 -0.1387 -0.2211  0.1644
96763W        W39779  10.040  10.608  14.981 -0.1249 -0.0806  0.1291
96764W        W39780  28.272   9.600   1.544  0.0072  0.1568 -0.0367
96765W        W39781  13.032  11.031  17.689  0.3045  0.1064  0.1119
96766W        W39782  24.962  18.718  15.219 -0.1834  0.1373 -0.5676
96767W        W39783  11.432  33.206   8.281 -0.1732  0.3503  0.1012
96768W        W39784  12.965  26.319   8.884  0.1637 -0.0990  0.1971
96769W        W39785  20.103   8.215  28.185 -0.1003 -0.0902 -0.0567
96770W        W39786  15.233  15.484  24.741  0.1965  0.2710  0.2075
96771W        W39787  14.734  14.026   5.767  0.0921 -0.1059 -0.0924
96772W        W39788  24.381  23.316  27.105 -0.0899 -0.3967  0.0120
96773W        W39789  17.578   3.483  22.337  0.2819 -0.1532  0.0421
96774W        W39790  23.944  29.355  25.325  0.0068 -0.0955  0.1404
96775W        W39791  12.212  17.158  27.115 -0.2194 -0.2542  0.0753
96776W        W39792  20.834   4.199  16.586 -0.3419  0.1063 -0.0320
96777W        W39793  22.471   4.914   1.166  0.3506 -0.0568 -0.1325
96778W        W39794  27.050  31.509   4.004 -0.0647  0.2013 -0.1457
96779W        W39795  12.878   1.980  18.694  0.0544  0.0630 -0.2948
96780W        W39796  19.479  34.642   0.851  0.0586  0.2282  0.1471
96781W        W39797   6.325  24.303  18.245 -0.2444 -0.1578 -0.0771
96782W        W39798  17.778  31.885   5.158  0.1326 -0.0074 -0.1100
96783W        W39799   7.619  21.767   6.891  0.2943  0.0961  0.2923
96784W        W39800   5.838  27.931  14.935  0.1257 -0.0194  0.4734
96785W        W39801  15.949  23.199   6.138 -0.1787 -0.0089  0.0122
96786W        W39802  13.025  20.004  18.122 -0.4249  0.0708  0.1256
96787W        W39803   4.791  24.674  17.738  0.0086 -0.0204  0.2169
96788W        W39804  14.514  16.410  23.806  0.3177 -0.1382  0.0796
96789W        W39805  14.154  32.459  17.491 -0.2505  0.0527  0.1278
96790W        W39806  23.401  18.767  26.077  0.3001 -0.2977 -0.0460
96791W        W39807  16.472  33.469  20.182  0.4425  0.1847 -0.0575
96792W        W39808   6.977   1.794  21.200 -0.0462 -0.3085  0.1808
96793W        W39809  32.900  18.233  23.158 -0.1017 -0.0627  0.1868
96794W        W39810  29.392  29.263  18.553  0.0922 -0.0569 -0.0732
96795W        W39811   3.332   3.458  19.530  0.0670 -0.2883 -0.1365
96796W        W39812  19.609  26.412  15.815  0.3587  0.1706  0.4013
96797W        W39813  32.834  10.311  27.481 -0.0731  0.1648 -0.0685
96798W        W39814  12.521  24.958  14.948  0.1994 -0.1432  0.1180
96799W        W39815  25.857  30.143  26.733 -0.3473 -0.1340 -0.3611
96800W        W39816  20.484  31.805   3.605  0.1392  0.0095 -0.3349
96801W        W39817  15.834  21.341   0.087  0.0624  0.0504 -0.0865
96802W        W39818  24.036  34.339  20.608 -0.0576 -0.2908  0.3001
96803W        W39819  24.135  15.790  29.300  0.3826 -0.0623  0.0095
96804W        W39820  34.250  25.984   3.076  0.1210 -0.1629  0.0173
96805W        W39821   2.339  25.033  16.090 -0.0814  0.3673  0.0919
96806W        W39822  26.056  18.436  23.347  0.2778  0.1569 -0.0525
96807W        W39823   4.069  22.342  19.753  0.1473 -0.1082  0.0266
96808W        W39824  25.187  24.737  15.420 -0.1282 -0.2493  0.1218
96809W        W39825   2.637  29.843   1.152 -0.1622  0.0155 -0.0381
96810W        W39826  27.154  31.756  23.482  0.1011 -0.0823  0.0226
96811W        W39827  12.649  31.363   1.555  0.1546 -0.0435  0.0546
96812W        W39828  12.057  12.582  16.908 -0.0865  0.2233 -0.0179
96813W        W39829  23.115  20.066  18.445 -0.0688  0.0832 -0.1344
96814W        W39830  22.675  24.147  28.423  0.0704 -0.1946  0.1339
96815W        W39831   2.665   9.866   2.971 -0.2144 -0.2529  0.3142
96816W        W39832   2.971  23.594  22.750 -0.0070 -0.0384  0.0528
96817W        W39833  15.443  28.548   4.530 -0.2861 -0.2211  0.0162
96818W        W39834  22.720  33.044  16.682  0.1099 -0.3335 -0.4766
96819W        W39835  18.099   5.662   7.339  0.1274  0.4650  0.0388
96820W        W39836   9.448  21.133  22.656 -0.0371 -0.1519 -0.2403
96821W        W39837  31.848  25.963  21.716  0.2973 -0.0222  0.2635
96822W        W39838  12.135  31.359   5.978  0.0779 -0.1731  0.4129
96823W        W39839   9.277  24.547  15.157 -0.1445  0.1768  0.1420
96824W        W39840  21.096   3.509  17.336 -0.2026 -0.1730  0.2044
96825W        W39841  13.278   6.681  22.272 -0.1401  0.0275  0.4099
96826W        W39842  33.936  26.618   8.593 -0.0478  0.0357 -0.1773
96827W        W39843  32.077   9.314   4.466  0.2327 -0.1693  0.0661
96828W        W39844  18.093  21.877  21.619  0.3185 -0.1611  0.1813
96829W        W39845  14.200  21.807  25.106 -0.0621  0.0558  0.2223
96830W        W39846  20.442  25.060   7.182  0.0703  0.0968 -0.2898
96831W        W39847  18.876   3.777  18.360 -0.2640  0.0563 -0.0738
96832W        W39848  18.491  23.415  21.197  0.0306  0.0139  0.4350
96833W        W39849  26.186   4.167  26.839  0.1783 -0.1486  0.0292
96834W        W39850  15.733   2.518  15.843 -0.0072  0.3340 -0.0743
96835W        W39851  15.422  33.415  21.537  0.3070 -0.3141  0.3625
96836W        W39852  29.991  19.845  18.743  0.0795  0.0422  0.2503
96837W        W39853  26.391  27.995  25.851  0.2138 -0.2234  0.1993
96838W        W39854  26.676  20.596  28.495  0.0701  0.0565 -0.0634
96839W        W39855   5.273   2.594  24.879  0.0472 -0.1526 -0.2929
96840W        W39856   6.595  17.238  17.041  0.1915 -0.1623  0.2235
96841W        W39857  25.377  33.242  24.518 -0.1938  0.0830 -0.3900
96842W        W39858   2.589  28.137  23.972  0.1418 -0.2663 -0.2266
96843W        W39859  21.922   3.164   9.004  0.0264 -0.0016  0.0154
96844W        W39860   7.371   1.863  15.794 -0.0254  0.1725 -0.0531
96845W        W39861  19.192  27.740  22.604  0.0651 -0.0446 -0.2902
96846W        W39862   7.085   7.353   2.622  0.3007 -0.1885  0.1975
96847W        W39863  14.365   6.428  25.403 -0.0278  0.0092 -0.0207
96848W        W39864   3.375  26.063   0.936  0.0854  0.2806  0.0350
96849W        W39865  24.546   0.937  29.024  0.0807  0.1017  0.1420
96850W        W39866  25.069  28.184   2.135 -0.1307  0.0428 -0.0573
96851W        W39867  23.123   5.039  25.048 -0.0910 -0.1899  0.0821
96852W        W39868  13.133  13.290  13.846  0.0901 -0.0329  0.0194
96853W        W39869   5.052  12.465   3.962 -0.2178 -0.0594  0.1896
96854W        W39870  17.170  34.118  17.464 -0.4884 -0.1697 -0.1393
96855W        W39871   7.260  29.990  23.880 -0.0166 -0.0796  0.1322
96856W        W39872  25.300  34.373   6.977 -0.0226 -0.0527  0.1965
96857W        W39873  24.349  28.401  21.470 -0.0074  0.3105  0.0523
96858W        W39874  25.351   3.755   1.606  0.1163 -0.1060  0.3154
96859W        W39875  32.767  25.839  18.349 -0.1614  0.1125 -0.1434
96860W        W39876  13.772   4.778  17.719 -0.1608 -0.0326  0.0845
96861W        W39877  33.826   0.074  26.482 -0.1054 -0.0395 -0.1589
96862W        W39878   3.403  30.581  18.030 -0.0408  0.2875  0.0753
96863W        W39879  11.061   6.179  19.806  0.2108  0.2617  0.1217
96864W        W39880  32.238  26.975  25.818 -0.1395 -0.1273  0.0687
96865W        W39881  34.743   0.416   7.189 -0.0767 -0.1708 -0.1212
96866W        W39882  22.925  22.396  27.869  0.2099  0.0463  0.2604
96867W        W39883  15.799  30.045  18.820 -0.0868  0.0214 -0.0097
96868W        W39884  14.181  23.539   2.024 -0.1329  0.1096 -0.0585
96869W        W39885   5.485  17.141  19.411 -0.2012 -0.1787  0.0872
96870W        W39886  34.165  22.114  22.929 -0.1131  0.2501 -0.0450
96871W        W39887   9.095  27.702  28.035 -0.1945 -0.1288 -0.2800
96872W        W39888   2.748   0.064  22.370  0.2855  0.1218 -0.1148
96873W        W39889  30.126  28.869  17.305 -0.1501  0.0220 -0.0902
96874W        W39890  33.811   5.288  25.321  0.2839  0.1975 -0.0695
96875W        W39891  16.661  24.936  16.486 -0.1468 -0.0755 -0.0888
96876W        W39892   3.282   1.587  15.012  0.1895  0.0917  0.0346
96877W        W39893  21.682   6.853  22.441 -0.1184 -0.2255 -0.1405
96878W        W39894  22.549   8.328  15.812  0.2238  0.1311  0.4022
96879W        W39895  16.976  32.010  19.646  0.2312  0.0041  0.0624
96880W        W39896  29.590   9.413   9.765  0.0495  0.1323  0.0302
96881W        W39897  23.070   1.099  25.450 -0.1113  0.0364  0.1080
96882W        W39898  28.981  31.433  20.340 -0.1329  0.3396  0.0118
96883W        W39899   7.202   0.247   3.900  0.0615 -0.2078 -0.0878
96884W        W39900  21.922   7.270  22.504  0.1060 -0.1128 -0.2952
96885W        W39901  16.239   3.390  17.419  0.0986 -0.2064 -0.1148
96886W        W39902  10.274  31.534  23.036  0.2070 -0.2577 -0.2165
96887W        W39903  12.120   7.323  22.239  0.1873  0.1251 -0.4339
96888W        W39904  25.762  30.932  20.416  0.1283  0.0472  0.1173
96889W        W39905  25.280  11.411  16.478 -0.0177 -0.2428 -0.1280
96890W        W39906  22.891  33.052   3.445  0.0411  0.0286  0.0774
96891W        W39907  23.094   0.069   4.523  0.1431 -0.0368  0.0403
96892W        W39908  12.062  29.378   3.576  0.0591  0.2494 -0.0853
96893W        W39909  25.445  30.251  19.683 -0.0600  0.0174  0.2502
96894W        W39910  31.931  20.961  19.617  0.6007 -0.1942 -0.1187
96895W        W39911   0.750  30.983   1.406 -0.0857 -0.0018 -0.1899
96896W        W39912  10.270  17.633  17.508 -0.1315  0.4687 -0.1886
96897W        W39913  21.010  30.076  16.669  0.1955  0.2638 -0.2969
96898W        W39914   1.083   1.863  29.147 -0.0597  0.1113  0.2981
96899W        W39915  26.979  18.647   1.198  0.1032  0.1845  0.1313
96900W        W39916   9.260  19.608  25.023 -0.1377 -0.2169 -0.0433
96901W        W39917  23.314   6.957  16.138  0.1738  0.0624  0.1047
96902W        W39918  19.571  10.727  21.257  0.0707 -0.0468  0.2534
96903W        W39919  14.614  16.111  27.188 -0.0297  0.0285  0.1434
96904W        W39920   8.505   1.074  16.778 -0.1458 -0.2057 -0.0883
96905W        W39921  27.412  24.762  22.111  0.0084 -0.0182 -0.0133
96906W        W39922  30.639   0.153  25.387  0.1288  0.2300 -0.1917
96907W        W39923  21.455  24.653  25.754 -0.0170 -0.0447  0.0684
96908W        W39924   9.549   3.533  22.114  0.2915 -0.0888 -0.2868
96909W        W39925  28.835  33.658  18.061 -0.0352 -0.0160 -0.2164
96910W        W39926  30.285  24.921  25.569 -0.0056  0.1651 -0.3001
96911W        W39927  25.282  32.526  27.547 -0.2655  0.1165  0.3838
96912W        W39928   4.308   5.317  17.743  0.0950 -0.0410  0.0440
96913W        W39929  16.412  28.680  15.354  0.2689  0.1818 -0.1510
96914W        W39930   8.858  27.798  20.246  0.5079  0.2592 -0.0930
96915W        W39931  26.271  28.259  25.454 -0.0788 -0.0315  0.1224
96916W        W39932  16.810  32.390   8.212  0.1847  0.1080 -0.1276
96917W        W39933  23.293  27.433  17.908  0.3112 -0.0912 -0.1007
96918W        W39934  24.473  34.286   0.303 -0.1241  0.1982 -0.0541
96919W        W39935  26.415  26.747   0.134 -0.3566 -0.0631 -0.3810
96920W        W39936  33.691  12.240  18.907 -0.1865 -0.1016  0.1259
96921W        W39937  23.947  15.425  15.085  0.0070 -0.2170  0.0823
96922W        W39938  26.343  29.663   3.976  0.0645  0.1682  0.1611
96923W        W39939   3.787   4.402  24.366  0.0241 -0.1289 -0.2467
96924W        W39940   9.718  24.404  20.861 -0.0410  0.1819  0.2141
96925W        W39941   0.802  27.075   5.242  0.0982  0.0753 -0.3059
96926W        W39942  28.167  27.124  27.707  0.0655  0.2485 -0.1189
96927W        W39943  12.625  21.581  16.116  0.0905  0.2608  0.1312
96928W        W39944  28.074  33.299   2.940 -0.3767 -0.0241 -0.0662
96929W        W39945  15.978   1.657  14.700  0.1710 -0.3247  0.0824
96930W        W39946  20.269  27.229  24.617  0.0790 -0.2817  0.1483
96931W        W39947  22.751  22.190  17.652 -0.4305 -0.0363  0.4175
96932W        W39948  22.535  21.156  27.884  0.3542 -0.0010 -0.0112
96933W        W39949  15.636  27.322  18.490  0.1103  0.2504 -0.3342
96934W        W39950   6.474  22.511  14.007 -0.2917 -0.0295 -0.4023
96935W        W39951   3.978  31.588  20.993  0.0328 -0.1295 -0.2502
96936W        W39952  11.019   0.567  23.771 -0.2499  0.3398 -0.1955
96937W        W39953  20.736  33.449  18.932 -0.1810  0.1293  0.3296
96938W        W39954  18.453  28.339  26.311 -0.3055 -0.0641 -0.4804
96939W        W39955  11.218   3.793  21.966  0.2824  0.0572  0.2816
96940W        W39956  23.575  33.463   7.149  0.0764  0.1837  0.1270
96941W        W39957  23.469   3.092   8.227  0.1368 -0.0487 -0.2865
96942W        W39958  32.297   4.562  15.271  0.1330 -0.3007  0.1569
96943W        W39959   5.144  33.449   0.230  0.1951  0.0707 -0.3142
96944W        W39960  19.289  31.780   2.201 -0.2377 -0.0295 -0.0389
96945W        W39961  13.621  20.998  19.175 -0.1135 -0.0625 -0.3401
96946W        W39962  20.502  29.052  17.454  0.0808  0.2309 -0.2949
96947W        W39963  22.078   0.179  28.510  0.2817  0.0163 -0.0323
96948W        W39964  20.455  11.173  20.365 -0.0151 -0.0371  0.0389
96949W        W39965   3.151  28.232   0.264 -0.1889 -0.0539 -0.2508
96950W        W39966  12.558  27.755  27.375 -0.1697  0.3908  0.2768
96951W        W39967   3.733   2.582   6.592 -0.0967  0.0176  0.0175
96952W        W39968  25.040  30.605   8.624  0.0196 -0.0314 -0.0435
96953W        W39969  33.938  29.724  25.600  0.3130  0.1750  0.0302
96954W        W39970  22.809  30.075  22.463  0.2377  0.0327 -0.0261
96955W        W39971  14.281   0.566  19.594  0.1951  0.0564  0.0247
96956W        W39972   8.141   7.272   7.226  0.0333  0.1572  0.1331
96957W        W39973  14.546  20.751  23.870  0.3674  0.0726  0.2179
96958W        W39974  18.110  26.430  19.295 -0.0357  0.0684 -0.0763
96959W        W39975   3.721  32.911  13.945  0.3118  0.1638 -0.0402
96960W        W39976   3.967  29.962  22.208  0.2787 -0.2677  0.0184
96961W        W39977   7.662  34.577  16.817 -0.0534 -0.1480 -0.3985
96962W        W39978  14.119  11.619  22.419 -0.0838 -0.1323 -0.1528
96963W        W39979  24.767  16.235  27.008 -0.1387  0.0065  0.2547
96964W        W39980  24.588   3.999  24.057 -0.3089 -0.2181 -0.1919
96965W        W39981   9.925  28.933  26.630  0.0350  0.0792 -0.2929
96966W        W39982  12.989  13.572  20.670  0.1187  0.4472  0.1378
96967W        W39983  20.045  17.731  22.547 -0.0797 -0.0539 -0.3623
96968W        W39984  22.400  29.836  22.749  0.2491 -0.2827 -0.4284
96969W        W39985  20.594  18.505  15.311 -0.0115 -0.1142  0.2019
96970W        W39986  20.971  22.022  18.065  0.0324 -0.1846  0.1741
96971W        W39987  33.779   3.277   4.457 -0.0764 -0.4165  0.1443
96972W        W39988  12.830   0.222  20.312  0.2729 -0.0798  0.1388
96973W        W39989  23.234  26.356  25.872  0.0927  0.1823  0.4260
96974W        W39990  18.739   1.678  23.676 -0.0620 -0.1740 -0.2175
96975W        W39991  12.069   5.791  23.914 -0.0458  0.3954  0.1911
96976W        W39992  24.854   9.801   3.395  0.0327  0.1482  0.0387
96977W        W39993  27.641  29.216   8.998 -0.1194 -0.0133 -0.0346
96978W        W39994  23.455  17.429  21.582  0.1043  0.1182  0.0966
96979W        W39995  27.179  29.127  27.204  0.1135  0.2100 -0.1030
96980W        W39996  16.092  33.307  17.888 -0.0962 -0.1358 -0.0861
96981W        W39997  24.469  30.118  22.676 -0.1041 -0.1027  0.2587
96982W        W39998  26.234   4.682  16.703 -0.0304  0.1810 -0.1390
96983W        W39999  24.597   8.765   0.070 -0.0693  0.1121  0.2038
96984W        W40000  30.508  29.245  21.496  0.0178  0.1280 -0.0953
96985W        W40001  16.802  20.709  12.018 -0.0551 -0.0924  0.2270
96986W        W40002  29.892   1.163  21.073 -0.3694 -0.2070  0.2129
96987W        W40003  33.944   1.181   2.523  0.1185 -0.2210  0.3157
96988W        W40004  31.263   1.083  14.645  0.3120  0.0682 -0.1596
96989W        W40005  11.431  22.800  21.783 -0.1768 -0.1967  0.1486
96990W        W40006  32.905  18.818  10.059 -0.0042  0.1160 -0.0206
96991W        W40007  20.951   5.031  15.985 -0.0707  0.2560 -0.0934
96992W        W40008  21.233  28.567   3.501  0.0124 -0.2979  0.1677
96993W        W40009  15.866  20.905   3.087 -0.1798 -0.2217  0.2567
96994W        W40010  17.407  30.371  23.847  0.1406 -0.2935 -0.0834
96995W        W40011  24.059  32.571  18.909 -0.0094  0.1106  0.1794
96996W        W40012  24.328  22.700  26.418  0.1112 -0.2713  0.2526
96997W        W40013  19.290  31.808  24.927  0.2789  0.1281 -0.0291
96998W        W40014  32.308  27.521  16.380  0.1427 -0.1482 -0.1451
96999W        W40015  19.254  32.761  25.320  0.2007  0.1227 -0.0956
97000W        W40016   6.772  31.742  16.294  0.0926  0.2616 -0.0417
97001W        W40017   0.180   0.284  26.307 -0.0599 -0.0810  0.1745
97002W        W40018  21.697  33.698  19.899  0.2271  0.1387 -0.1595
97003W        W40019  14.257   0.198   2.266 -0.2719 -0.2180 -0.3716
97004W        W40020   4.820   4.745  21.166 -0.0334  0.0361 -0.0913
97005W        W40021  26.700   9.102  15.509  0.1276 -0.0850 -0.2425
97006W        W40022  22.892  24.152   2.692 -0.5205  0.1093 -0.1896
97007W        W40023  12.123  24.674   8.230 -0.1088  0.2113 -0.2551
97008W        W40024  19.686  27.275  24.731  0.2564 -0.0273 -0.3754
97009W        W40025  27.787  18.952  20.890  0.3072  0.2289  0.3984
97010W        W40026  30.808  32.035  27.038  0.0560 -0.0170 -0.2265
97011W        W40027   9.237  33.734  19.087  0.0504  0.1760 -0.0344
97012W        W40028  28.029  19.954   5.777 -0.1760 -0.0682  0.0785
97013W        W40029   9.136  26.597  28.000 -0.3349 -0.2585 -0.0652
97014W        W40030  22.625  22.463   4.581 -0.0633  0.0953  0.2493
97015W        W40031  12.003  24.415  22.825  0.1323 -0.0232  0.2628
97016W        W40032  24.317  13.724  14.406 -0.0600  0.0686 -0.1718
97017W        W40033  12.476  31.616  17.339  0.1594  0.1264 -0.2200
97018W        W40034  18.658  25.117   5.484  0.1030  0.4793  0.0903
97019W        W40035  24.875   5.400   6.824 -0.1428 -0.2947 -0.2597
97020W        W40036  17.340   2.833   4.718  0.0842 -0.2095 -0.1494
97021W        W40037   6.529  11.202  20.826  0.3736 -0.1309  0.1140
97022W        W40038  19.821  18.533   0.852 -0.2956  0.1874 -0.1703
97023W        W40039  31.977  29.016  26.614  0.0108 -0.0296  0.0755
97024W        W40040  16.411  32.762   4.119 -0.2553  0.0444  0.0919
97025W        W40041  30.631  25.522  18.103 -0.1209 -0.1474  0.1708
97026W        W40042  17.441  19.945  15.146  0.4734 -0.4379 -0.0331
97027W        W40043  18.067   2.967  18.968 -0.0734 -0.1691 -0.0381
97028W        W40044  18.724   2.096  24.076  0.2352  0.0421 -0.1258
97029W        W40045  33.165  17.758  14.692  0.0326  0.0124 -0.3646
97030W        W40046  12.125  15.728  23.253 -0.3588 -0.1480  0.0312
97031W        W40047  23.510  30.662   7.068  0.1703  0.2575  0.2493
97032W        W40048  12.556   8.732  19.646  0.1372  0.2870 -0.0696
97033W        W40049  19.628  27.214   9.550 -0.0565 -0.0438  0.0455
97034W        W40050  19.397  33.448  15.350 -0.1989 -0.1755 -0.0212
97035W        W40051  20.701  25.594  28.316 -0.0071 -0.2196 -0.2255
97036W        W40052  30.034  27.734  25.910  0.0480 -0.1297  0.0691
97037W        W40053  27.332  16.569  24.417 -0.0928 -0.0780 -0.0187
97038W        W40054   1.696  13.988  28.404 -0.0026  0.0676 -0.0681
97039W        W40055  20.283  16.498  29.075 -0.0492  0.0575  0.0886
97040W        W40056   7.625  32.250  10.306  0.2370 -0.0668 -0.2370
97041W        W40057  17.182   4.466  10.095  0.4024 -0.1525 -0.1279
97042W        W40058  11.584  27.414  22.867  0.1266  0.0866 -0.0086
97043W        W40059  23.289   4.257   5.236 -0.0103  0.2039 -0.2195
97044W        W40060  19.234   2.659  19.894 -0.0519  0.0276 -0.2267
97045W        W40061  31.020  20.247  28.145  0.1943 -0.1030 -0.0074
97046W        W40062   7.429  25.036  18.269 -0.3261  0.0899  0.1731
97047W        W40063   3.041  26.902  23.145 -0.0837  0.1636  0.0701
97048W        W40064  11.902  18.969  28.744  0.0075 -0.0649 -0.0427
97049W        W40065  34.553  34.051  16.229 -0.0446 -0.0081  0.0644
97050W        W40066  30.123   7.726   7.670 -0.1300 -0.1086 -0.3883
97051W        W40067   5.262  31.711  26.484 -0.1302 -0.1764  0.1156
97052W        W40068  33.496   8.419  14.638 -0.0221  0.3301  0.2795
97053W        W40069  10.459  16.771   8.601  0.1335 -0.0309  0.0923
97054W        W40070   2.452  30.261  28.277 -0.0489  0.1092 -0.0493
97055W        W40071   2.648  33.009  28.162  0.2693  0.3332  0.2863
97056W        W40072  27.537   0.841  23.025 -0.1037  0.0544 -0.0601
97057W        W40073   7.358   6.287  23.052  0.1720 -0.0832 -0.2911
97058W        W40074  20.350  30.142   1.385  0.0278  0.2265 -0.0117
97059W        W40075  15.457  22.748  27.945  0.1940 -0.1388  0.2316
97060W        W40076  32.757  28.254  21.171  0.0914 -0.2948 -0.0009
97061W        W40077  23.667   8.850   5.544 -0.1616 -0.1203  0.2840
97062W        W40078  26.460  20.042  21.474  0.2419 -0.0177 -0.3941
97063W        W40079  24.613  20.865  28.646 -0.0480  0.2365 -0.0069
97064W        W40080  20.555   1.532   2.111 -0.2067  0.1201  0.3047
97065W        W40081  34.127  33.874   1.860 -0.2282 -0.3961 -0.1909
97066W        W40082  29.939  20.651   1.566  0.2403 -0.0681  0.3414
97067W        W40083  32.688  27.185   7.005  0.3827 -0.0119  0.1165
97068W        W40084  21.981  13.168   1.492 -0.1488  0.1098 -0.1986
97069W        W40085  17.202  27.061   1.434  0.0400 -0.2400 -0.1942
97070W        W40086  13.552   0.418   2.574 -0.1482 -0.4010 -0.2507
97071W        W40087   0.237  23.991  28.494  0.1215  0.0534 -0.1460
97072W        W40088  10.477  28.895   7.804 -0.0469 -0.0633  0.2605
97073W        W40089  23.194  32.994  25.106  0.3625 -0.0608 -0.1809
97074W        W40090  14.404   0.315   7.685  0.0539  0.2821 -0.2595
97075W        W40091  13.728   7.027   3.794 -0.0622  0.0557  0.0578
97076W        W40092  15.362  32.363  18.651  0.0687 -0.2816 -0.0706
97077W        W40093  13.965  15.834   4.277 -0.1409 -0.2249 -0.0394
97078W        W40094  26.893  32.252   0.385 -0.0912  0.3088 -0.2777
97079W        W40095   6.057  28.996   4.390  0.0631  0.3429  0.0858
97080W        W40096   7.038  28.185   4.481 -0.1453  0.1398  0.3417
97081W        W40097  27.931  18.722  27.277 -0.1550 -0.1921 -0.2360
97082W        W40098   1.386  15.388   6.968  0.1183  0.0679 -0.3230
97083W        W40099  16.821  17.200   2.399  0.0676  0.1387  0.2128
97084W        W40100  19.373   1.886  26.423 -0.0298  0.2824 -0.1715
97085W        W40101  28.709   5.086   0.593 -0.0784  0.2274 -0.5057
97086W        W40102  17.033  34.702   1.673 -0.1323 -0.1098 -0.0152
97087W        W40103  21.221  20.439  14.071  0.0388  0.2182  0.1703
97088W        W40104  26.720  24.157   5.608  0.0682 -0.1503 -0.0795
97089W        W40105  33.309   3.800  19.049 -0.1291  0.1846 -0.2235
97090W        W40106  22.562  27.525   4.100 -0.2927 -0.1368  0.0981
97091W        W40107  17.151  12.488  28.680  0.1796 -0.2618 -0.0578
97092W        W40108  13.545  32.501   2.666  0.0898 -0.1195 -0.5427
97093W        W40109  14.052  15.637  26.540  0.3542 -0.2740 -0.1933
97094W        W40110  23.049  33.890  27.693 -0.1475  0.1922  0.1044
97095W        W40111  21.044  27.868  15.028 -0.1942 -0.2544 -0.0153
97096W        W40112   7.237   6.455   6.227 -0.0204 -0.1995 -0.1747
97097W        W40113  21.362  21.558  24.920  0.1464 -0.0414  0.0556
97098W        W40114   4.037  10.645  21.339  0.2049 -0.2905 -0.0234
97099W        W40115  18.878  34.739   7.059  0.1321  0.2397 -0.2899
97100W        W40116   0.786  30.207   7.343  0.0773 -0.0043 -0.2009
97101W        W40117   6.933   0.623  28.531  0.1903  0.0313 -0.1061
97102W        W40118  21.646   7.340  14.404 -0.0696  0.1552  0.0312
97103W        W40119  24.129  25.229  23.979  0.0643  0.1246  0.1988
97104W        W40120  27.116   4.063  23.391  0.5290  0.0383 -0.2369
97105W        W40121  22.578  24.440  20.755  0.1442 -0.1060  0.0734
97106W        W40122   5.003   8.221  22.935 -0.1023 -0.1531  0.1121
97107W        W40123  25.584  28.732  27.860 -0.0929  0.1303 -0.2564
97108W        W40124  11.021  34.145   2.422 -0.0815  0.2624  0.2208
97109W        W40125   4.532   7.111  29.021 -0.0787 -0.0921  0.2934
97110W        W40126  15.393   0.134   6.613 -0.1281  0.0127 -0.3806
97111W        W40127  21.142  34.100  23.107 -0.1394  0.1543 -0.0082
97112W        W40128  19.011  22.356  18.283  0.0610 -0.0304 -0.0195
97113W        W40129  25.213  29.381  27.580 -0.0081  0.0845  0.0875
97114W        W40130  10.003  27.859   0.500  0.2553 -0.1679 -0.2260
97115W        W40131  18.794  22.397  27.542 -0.2208 -0.2083  0.1388
97116W        W40132  22.937  27.290   3.752  0.3784 -0.0600 -0.0804
97117W        W40133  17.663   3.490  27.065  0.1886 -0.1005 -0.0640
97118W        W40134  28.754   9.229   4.801  0.0258 -0.0315 -0.0447
97119W        W40135  10.424  31.577   1.945 -0.0024  0.1435  0.1265
97120W        W40136   6.428   1.682   7.456 -0.2325 -0.1197 -0.1283
97121W        W40137  28.535  27.328  27.981 -0.1329 -0.2783  0.1024
97122W        W40138  17.244   6.160  16.760 -0.0656  0.2180 -0.3250
97123W        W40139  33.491  18.341   4.724  0.0059  0.0161 -0.2087
97124W        W40140  15.583  26.841  14.482 -0.0133 -0.0508  0.2288
97125W        W40141  19.415   2.167  15.263  0.0604  0.2163 -0.1865
97126W        W40142  13.693  24.886  19.154  0.0530 -0.0670  0.1746
97127W        W40143  11.846  16.002  19.083 -0.0657 -0.0949  0.1967
97128W        W40144  13.353  28.472   3.112  0.1136 -0.0858  0.0602
97129W        W40145  10.521   0.457  20.189  0.0651 -0.1156  0.1821
97130W        W40146   9.550  31.727  27.500 -0.0091 -0.4097 -0.2975
97131W        W40147  10.239   6.017  27.352  0.0403 -0.0466  0.0154
97132W        W40148  27.632  22.294   2.451 -0.0044 -0.3604  0.1800
97133W        W40149  24.200  27.357   2.950  0.2942  0.0874 -0.4560
97134W        W40150  34.338  15.301  24.967 -0.2509 -0.1600 -0.1011
97135W        W40151  19.081  14.102  27.511  0.1130  0.3324  0.1016
97136W        W40152   7.161   4.046   7.656  0.0345  0.1718 -0.0629
97137W        W40153   7.397   5.230   8.061 -0.2693  0.0584 -0.1301
97138W        W40154  14.036  34.106  19.825  0.0196 -0.0250  0.1739
97139W        W40155  19.865   0.028  26.634 -0.1337 -0.2917  0.1610
97140W        W40156  16.236  18.571  25.921 -0.1305  0.1745 -0.0109
97141W        W40157  28.740  19.600   7.553 -0.2292 -0.1642 -0.1074
97142W        W40158  30.083  33.988  17.220  0.0900  0.0512 -0.0959
97143W        W40159   9.844   0.716  18.880 -0.0151 -0.3793  0.2211
97144W        W40160  30.480  16.036  24.253 -0.0650 -0.1630 -0.0365
97145W        W40161  16.532   5.417  23.532 -0.3079  0.0729 -0.1909
97146W        W40162  17.731   8.458  21.356  0.0101  0.2528  0.0729
97147W        W40163  24.322  29.595  11.017  0.0468  0.0638 -0.1687
97148W        W40164   9.472   1.127  27.594 -0.0524  0.0969  0.1816
97149W        W40165  32.543  32.837  10.481  0.2001 -0.1502 -0.1336
97150W        W40166   8.344  24.161  17.522 -0.0545  0.1147 -0.1620
97151W        W40167   8.339   2.038  23.570  0.1624  0.0965  0.1806
97152W        W40168   6.347   0.164   0.919 -0.0896  0.0336 -0.1010
97153W        W40169  22.558  18.481  14.822 -0.2863 -0.2136 -0.1405
97154W        W40170  24.276  15.717  27.019 -0.1654 -0.2165 -0.3148
97155W        W40171  31.491  14.134  25.598 -0.1445 -0.4808  0.0734
97156W        W40172   7.909   7.555  19.167  0.2251  0.0754  0.0438
97157W        W40173  13.213  19.602  27.664 -0.3054 -0.2826  0.2221
97158W        W40174  30.064  15.640  21.014  0.2952  0.3187  0.3552
97159W        W40175   8.437   0.574   4.993 -0.2242 -0.2635  0.1194
97160W        W40176  29.473   7.504  16.173  0.3061 -0.1690  0.0514
97161W        W40177  14.845  20.892  21.376 -0.0571  0.1594  0.2487
97162W        W40178   6.953  32.054   5.619  0.1014 -0.0687  0.1560
97163W        W40179  19.207   3.054  18.043  0.1694  0.1283  0.0326
97164W        W40180  12.649   6.104  22.024  0.2840  0.0196  0.1389
97165W        W40181   8.889   4.055  20.473  0.0157  0.1589  0.0767
97166W        W40182  26.558  26.761  17.965 -0.2049 -0.1178  0.1030
97167W        W40183  33.154  18.896   7.999  0.0924 -0.0148  0.1255
97168W        W40184  18.393  19.935   6.560 -0.2364  0.1501 -0.1449
97169W        W40185  31.201  30.960  27.257  0.1999 -0.1146  0.2728
97170W        W40186  17.061   7.971   4.412 -0.2045  0.0045 -0.0215
97171W        W40187  12.811   1.860   4.893 -0.1146 -0.1035 -0.2973
97172W        W40188  17.448  32.415  21.403 -0.0419 -0.0721 -0.1066
97173W        W40189  27.419   0.144  28.861  0.4583  0.2018 -0.0382
97174W        W40190  20.451   5.508  28.330  0.0578  0.1232 -0.1423
97175W        W40191   7.060  33.328   3.124  0.0641 -0.1544  0.0519
97176W        W40192  14.221  27.872   1.637  0.0538  0.0438 -0.2682
97177W        W40193  34.295  23.504   5.818 -0.0391 -0.0057  0.2331
97178W        W40194  12.142   0.646  17.963  0.3181  0.1969 -0.0065
97179W        W40195  33.888  27.445  24.828 -0.2321 -0.0031 -0.0628
97180W        W40196   0.907  10.285   1.632 -0.2079  0.1532 -0.0898
97181W        W40197  17.645   2.374  27.860 -0.1351  0.2572 -0.1697
97182W        W40198  25.614   1.906  10.906  0.3471 -0.3133 -0.1085
97183W        W40199  20.366  17.740   5.667  0.0305  0.3801  0.3709
97184W        W40200  20.077  19.073   4.175 -0.4291  0.0096 -0.0166
97185W        W40201  32.567  20.585   0.014  0.3185  0.2871 -0.2420
97186W        W40202  33.243  31.632   7.630  0.0119 -0.0069 -0.1744
97187W        W40203  28.941  12.165  27.465 -0.2415 -0.0990 -0.0565
97188W        W40204  25.652   6.727   9.991  0.0730  0.0090  0.1490
97189W        W40205  16.264  23.797  24.086  0.0994  0.1166 -0.0209
97190W        W40206  19.626  16.493   8.071  0.1772  0.0516  0.0097
97191W        W40207  30.123  22.114   5.327 -0.0898 -0.1756  0.3684
97192W        W40208  24.961  30.712   8.089  0.2810  0.2442 -0.3175
97193W        W40209   2.111  28.514   3.219 -0.2861  0.1854 -0.1804
97194W        W40210  13.843  28.881   1.536  0.1906 -0.0970 -0.1990
97195W        W40211   6.206  28.275  25.164  0.0872  0.0743  0.2093
97196W        W40212  17.809  21.234   4.717  0.3394 -0.1124 -0.0671
97197W        W40213  17.500  33.240  24.483 -0.1275  0.2636 -0.4064
97198W        W40214  16.299   4.504  25.229  0.0617 -0.1185  0.3834
97199W        W40215  19.794  33.272  23.843  0.0218  0.1376  0.2856
97200W        W40216  12.690  25.914  25.632  0.1316  0.0355  0.1032
97201W        W40217  20.346  16.993  25.239 -0.3209 -0.1988 -0.2643
97202W        W40218  29.706  14.595  22.054 -0.1011  0.3450 -0.2444
97203W        W40219  22.303  27.798  26.479 -0.1146 -0.0381 -0.1211
97204W        W40220  15.633   5.053  23.580  0.1986  0.0534 -0.2176
97205W        W40221   9.955   2.163   0.741 -0.3750 -0.0206 -0.1330
97206W        W40222   5.657  25.001  18.244  0.0587 -0.1208 -0.1094
97207W        W40223  24.268  27.762  19.156  0.1700 -0.2205  0.3683
97208W        W40224  29.910  24.994  23.722 -0.2265  0.0963  0.0918
97209W        W40225  10.787  30.676  18.960  0.2113  0.1702 -0.2317
97210W        W40226  18.870  27.034  28.198  0.3157 -0.0384 -0.2740
97211W        W40227   4.933  10.796  19.914  0.3766  0.2631 -0.1298
97212W        W40228  27.688  33.371   1.491  0.2862 -0.5191  0.1301
97213W        W40229  20.472  28.489  25.569  0.0924  0.0121 -0.0068
97214W        W40230  27.900   3.007   4.817 -0.1091 -0.1458 -0.0577
97215W        W40231  12.650   2.238  15.566 -0.0443 -0.0112  0.0059
97216W        W40232  28.836   4.685  15.832  0.0285  0.1957 -0.3124
97217W        W40233  26.520  24.209  26.811  0.1118  0.4355 -0.0118
97218W        W40234  31.548  12.593  20.752 -0.1740 -0.0578 -0.0998
97219W        W40235   4.340  28.656  27.315 -0.2528 -0.2881 -0.0948
97220W        W40236  17.099  18.851  20.221  0.1621 -0.2138 -0.4847
97221W        W40237  14.163   4.620  13.495  0.1223 -0.0172  0.0616
97222W        W40238  20.540  18.165  25.985 -0.0437 -0.1650 -0.3416
97223W        W40239  29.401  30.851  26.988 -0.1320 -0.4012 -0.2143
97224W        W40240  13.192  32.381  26.771  0.1838 -0.1828 -0.0375
97225W        W40241  20.713  27.261  28.449 -0.0342  0.1104 -0.0657
97226W        W40242  24.817  20.446   2.144  0.0463 -0.2272  0.1252
97227W        W40243  33.365  20.502  27.228 -0.0680  0.0642  0.1047
97228W        W40244  15.697  25.481  18.474 -0.1009 -0.0967 -0.1827
97229W        W40245   1.535  15.586  20.886 -0.0743 -0.0060 -0.2186
97230W        W40246  16.150  20.841   6.433  0.0150  0.3009 -0.3508
97231W        W40247   1.988  28.369   7.725  0.1109 -0.1585 -0.1497
97232W        W40248  33.763  33.568  18.202  0.2021 -0.1144 -0.0691
97233W        W40249  30.721   0.571   4.306  0.2248  0.1897  0.2925
97234W        W40250  32.298  30.189  26.894 -0.0032  0.0887  0.0677
97235W        W40251   7.176   2.750   2.976  0.1332 -0.0887  0.0774
97236W        W40252  20.931   3.294   0.221  0.0460  0.0908 -0.2187
97237W        W40253  25.172   5.004   6.693 -0.1160 -0.2352  0.0140
97238W        W40254  27.739  19.929  28.886  0.1828 -0.0987  0.0864
97239W        W40255  27.133   3.520   7.076 -0.2341 -0.2566 -0.0402
97240W        W40256  26.773   4.859  17.240  0.2410  0.0887 -0.0518
97241W        W40257  13.556  31.334  22.908 -0.2900  0.5216 -0.1142
97242W        W40258  20.984  29.748  29.160  0.2213  0.1676 -0.2910
97243W        W40259  23.357  17.435   5.739 -0.4347 -0.0644 -0.2087
97244W        W40260   7.715   4.338   1.346 -0.1740  0.2951 -0.0594
97245W        W40261  24.207  23.676  10.264  0.0170  0.0228 -0.2156
97246W        W40262  29.721  21.549  21.002  0.3171 -0.2049  0.2058
97247W        W40263  33.795  20.383  26.422  0.1853  0.0469  0.4997
97248W        W40264  17.197  27.226   8.290 -0.3239  0.2883 -0.0135
97249W        W40265  24.273  25.845  26.917  0.2898 -0.1165 -0.1598
97250W        W40266   6.892  34.631   3.199  0.0026 -0.0972  0.1346
97251W        W40267  14.839  21.121  16.460 -0.1054  0.0577 -0.1176
97252W        W40268  11.953  13.619   3.999 -0.1075 -0.0425  0.0974
97253W        W40269  20.186   7.229   6.515 -0.3759 -0.1422 -0.0775
97254W        W40270  20.627   8.644   6.053 -0.0482  0.1758 -0.0135
97255W        W40271  12.754   7.091   0.561  0.0770 -0.0077 -0.2303
97256W        W40272  21.380  27.983  20.654 -0.2212 -0.1453 -0.3318
97257W        W40273   1.863  26.451  18.625  0.5172 -0.0857 -0.0103
97258W        W40274  13.136  22.381   5.970 -0.2553 -0.1401 -0.1104
97259W        W40275   3.334  30.663  26.925  0.0420 -0.2291 -0.1389
97260W        W40276  20.495  24.059   4.497  0.1669  0.1663 -0.1307
97261W        W40277  14.487  23.707  28.197 -0.1776  0.0618 -0.0957
97262W        W40278  30.121   2.564  28.008 -0.0686 -0.1336 -0.0419
97263W        W40279  21.056  28.313  26.277  0.4379  0.0866 -0.2311
97264W        W40280  17.335  30.096   4.971  0.1140  0.0702  0.2035
97265W        W40281  19.523  13.213  21.019 -0.2413 -0.0289 -0.0574
97266W        W40282   6.059   5.530   2.215 -0.2516  0.0227  0.1693
97267W        W40283  11.465  24.871  26.150 -0.2448  0.0953  0.2075
97268W        W40284  13.224  28.221  22.207 -0.0452  0.0409  0.0738
97269W        W40285  31.048  10.908  24.372 -0.1884 -0.0588  0.0674
97270W        W40286   7.921  27.538  24.124  0.1180  0.0277 -0.3216
97271W        W40287   6.939   4.527   7.696  0.2154 -0.1020 -0.2527
97272W        W40288  14.679   1.811   7.945 -0.1523 -0.2840  0.0658
97273W        W40289  22.482   2.299  27.383  0.0008  0.2655  0.1956
97274W        W40290  14.324   9.217  28.833 -0.2956  0.0981  0.2375
97275W        W40291  12.539   0.429  23.418  0.1225  0.1136  0.0185
97276W        W40292  12.312  29.922  19.669 -0.1511  0.0329 -0.1301
97277W        W40293  17.683  21.668   6.457  0.3858 -0.0057 -0.1043
97278W        W40294   4.917  17.431   7.515 -0.0519 -0.0445  0.1217
97279W        W40295  11.683  15.146  27.974 -0.0132  0.1442 -0.1029
97280W        W40296  27.368   2.344   7.616  0.1330 -0.0506  0.2965
97281W        W40297  13.301   5.900  27.720  0.0573  0.0789  0.1013
97282W        W40298   4.736  26.226  25.030  0.2135  0.1953  0.1493
97283W        W40299   2.909   2.326   5.212 -0.1789  0.0887  0.0176
97284W        W40300  22.173  19.919  24.801 -0.0780 -0.0379  0.4657
97285W        W40301  21.626   8.121  15.838  0.2273 -0.2590 -0.1179
97286W        W40302  10.207  22.865  14.981  0.0103 -0.2506 -0.2686
97287W        W40303  28.547   2.826  16.710  0.1638  0.0965  0.0638
97288W        W40304  15.475  21.299   3.476  0.2320 -0.1035 -0.0299
97289W        W40305  22.231  27.134  27.799  0.0472  0.3229  0.0129
97290W        W40306   7.265  28.735  28.304 -0.0649  0.1802 -0.0288
97291W        W40307   4.790  31.850  18.321 -0.0629 -0.0905 -0.2015
97292W        W40308   8.538   4.370  25.225 -0.2863 -0.0162 -0.2241
97293W        W40309  11.763  29.542  27.548 -0.0990 -0.2654 -0.1826
97294W        W40310   7.463  29.923  27.296 -0.1141  0.1404  0.1459
97295W        W40311  13.408  11.582  29.119  0.2084  0.0622  0.0591
97296W        W40312   0.449  32.430  11.013 -0.0915 -0.2335  0.2460
97297W        W40313  17.955  30.774  25.687 -0.0609 -0.0319 -0.0531
97298W        W40314  27.689  25.048  17.677  0.0814 -0.1839  0.2541
97299W        W40315  24.427  20.391  23.236  0.1684  0.0488  0.2304
97300W        W40316  33.117  10.399  21.318 -0.0893  0.0013  0.2448
97301W        W40317  22.730  27.839   9.591  0.3919 -0.2005 -0.2000
97302W        W40318  27.075  29.867   0.041  0.1821  0.1510 -0.1863
97303W        W40319  17.002  28.726  28.433 -0.0482 -0.3786 -0.3781
97304W        W40320  29.438  12.373   3.085  0.2334  0.1125  0.0627
97305W        W40321  10.444  32.437  16.707 -0.1462  0.0781  0.5054
97306W        W40322  20.679  25.097  26.024  0.1091  0.0901  0.0500
97307W        W40323  21.824   6.505  23.396 -0.1237 -0.0400 -0.3581
97308W        W40324  12.268  16.971  19.897 -0.2053  0.0395 -0.1860
97309W        W40325  31.155   0.441  25.328 -0.0157  0.3183  0.0620
97310W        W40326  23.817  29.971   7.578 -0.2282  0.0745 -0.1891
97311W        W40327  27.422   3.672   5.110 -0.0599 -0.0172 -0.2051
97312W        W40328  24.128   3.581   0.492  0.2619  0.2201  0.3058
97313W        W40329  20.378  21.338  19.065  0.0663 -0.0744  0.1826
97314W        W40330  15.739  30.898  16.848  0.1850 -0.1512  0.2810
97315W        W40331  23.153   5.759   9.325  0.1407 -0.2468 -0.1500
97316W        W40332   1.596   5.878   0.517 -0.2538 -0.1753  0.0409
97317W        W40333   3.769   2.061   1.433  0.1918  0.3559 -0.3554
97318W        W40334  31.916  30.888  22.424  0.0442 -0.4457  0.1484
97319W        W40335  11.467  20.310  16.315  0.4950 -0.0259 -0.0784
97320W        W40336   4.670  16.691  22.396  0.1576 -0.1992 -0.1516
97321W        W40337  23.543   7.170  26.082  0.2513  0.0819  0.4479
97322W        W40338  16.116  33.270  25.333 -0.0287  0.0532  0.3202
97323W        W40339  12.614  31.196  14.978  0.3567 -0.2497  0.0114
97324W        W40340   7.873  15.446   2.425 -0.0550 -0.0584  0.1899
97325W        W40341  29.916  22.791  22.964  0.0557 -0.0098  0.0559
97326W        W40342  17.553  33.884  27.032  0.0380 -0.0273  0.1365
97327W        W40343   2.843  31.394   5.441 -0.1185 -0.0156  0.4024
97328W        W40344  22.346  21.750  16.152 -0.0451  0.2736 -0.4473
97329W        W40345  17.838  33.742   7.340  0.1170 -0.1621  0.0923
97330W        W40346   4.462  22.128  24.203 -0.4563 -0.0665 -0.0385
97331W        W40347  26.660  13.870   5.467  0.2822 -0.1428  0.1436
97332W        W40348  32.893  30.229  17.958  0.2364 -0.1386  0.2603
97333W        W40349  22.907  19.271  19.152  0.0212  0.3480 -0.0969
97334W        W40350  11.642   2.475   6.442 -0.0295 -0.1825 -0.0349
97335W        W40351   4.142   9.654  27.149 -0.0018 -0.0644 -0.0877
97336W        W40352  21.231  25.954  25.346  0.0653  0.1153  0.3257
97337W        W40353  17.144  27.345   1.027 -0.3188  0.2792 -0.0079
97338W        W40354  28.209   0.659   7.745 -0.1041 -0.2176  0.1862
97339W        W40355  28.261  28.610  15.489  0.3885 -0.1362 -0.2383
97340W        W40356   8.320   1.598   1.169 -0.3456  0.1344 -0.0375
97341W        W40357   3.406  18.302  24.637 -0.0680  0.2194  0.0631
97342W        W40358  23.317  16.442   6.532 -0.0043 -0.3270 -0.0317
97343W        W40359  14.494   5.657   2.810  0.1997 -0.0237 -0.0162
97344W        W40360   0.211  29.232  28.417 -0.1818 -0.0408 -0.0509
97345W        W40361   2.906  26.383   8.711 -0.1227  0.1351 -0.0115
97346W        W40362  27.200   3.562  16.408  0.1274 -0.0082  0.2217
97347W        W40363  16.633   7.992   0.052  0.1236 -0.1729  0.2259
97348W        W40364  25.745  18.860  26.385  0.0756 -0.2342 -0.4419
97349W        W40365  16.264  26.517  25.613  0.0666  0.0083 -0.0912
97350W        W40366  13.592  24.897  22.533  0.0867  0.0692 -0.0464
97351W        W40367  16.000   9.654   5.024  0.0392 -0.2228 -0.2443
97352W        W40368  31.284  29.903  11.012  0.3280 -0.0043  0.3292
97353W        W40369  23.726   1.470  22.007  0.2945 -0.0202  0.4016
97354W        W40370  26.073  29.991  16.405  0.1082 -0.1769  0.0361
97355W        W40371   7.345  27.622   8.675  0.0509 -0.2906  0.2792
97356W        W40372  15.258   1.977  26.510  0.2017  0.0120 -0.0390
97357W        W40373  15.306   0.490   1.435 -0.1497 -0.2433 -0.1587
97358W        W40374  18.441  28.945  24.302  0.0346  0.1122  0.2226
97359W        W40375  22.825   5.138  17.786  0.0833 -0.1722 -0.1756
97360W        W40376  16.387  10.858  29.303  0.1167  0.0658  0.1526
97361W        W40377   6.438   2.415   5.112  0.0555 -0.2203  0.1042
97362W        W40378  15.061   6.841  23.790 -0.0272  0.0084 -0.0252
97363W        W40379  11.598  20.143  24.655 -0.1607 -0.0652  0.0082
97364W        W40380  27.297   4.041  18.047  0.0767  0.1924  0.0399
97365W        W40381  15.403  17.361  22.213  0.2190  0.1421  0.3441
97366W        W40382  11.053  27.796   9.553  0.0082  0.1382 -0.1752
97367W        W40383   8.741  30.362  21.037  0.0068  0.1171  0.0873
97368W        W40384  23.995  18.907   4.575 -0.1751  0.1474 -0.2263
97369W        W40385  13.070  33.460  27.979  0.0014  0.2217  0.0828
97370W        W40386  19.751   0.240  16.226 -0.0584  0.0149  0.0613
97371W        W40387  15.860  13.452  23.507 -0.0441  0.2858 -0.2127
97372W        W40388  11.524  20.129  28.680  0.1964  0.2581 -0.3977
97373W        W40389  25.177  25.261  25.524  0.2871 -0.0281  0.0957
97374W        W40390  34.430   5.766  21.085  0.1286  0.0533 -0.3414
97375W        W40391  27.016   2.171   1.451 -0.4096 -0.0389 -0.1905
97376W        W40392   6.583   7.248   2.666  0.2714 -0.0553 -0.2596
97377W        W40393  15.072  31.996  10.449 -0.0288 -0.2514 -0.1850
97378W        W40394   8.712  26.740   4.473 -0.0745  0.0923  0.2033
97379W        W40395  30.044  15.267   3.824  0.0981 -0.0959 -0.0695
97380W        W40396  28.229  33.842   5.098  0.1220 -0.1281  0.2351
97381W        W40397  22.935   4.669  29.213 -0.1192  0.1641  0.2175
97382W        W40398   2.720   3.481  18.978 -0.1148  0.2428 -0.1591
97383W        W40399  22.741  16.418   4.528  0.0200  0.1368  0.1265
97384W        W40400  15.101  32.567  27.230 -0.1376 -0.0357 -0.0666
97385W        W40401  18.553   7.194  19.722  0.0427  0.0210  0.3611
97386W        W40402  15.454  17.211  28.529 -0.0065  0.1349  0.1527
97387W        W40403  29.492   2.720   4.102 -0.4904 -0.3346  0.0161
97388W        W40404  12.244  19.547  14.174 -0.1058  0.0293 -0.2068
97389W        W40405  18.581  31.438  18.240  0.1255 -0.0088 -0.3175
97390W        W40406  17.043  28.111   1.588  0.1718 -0.0445 -0.0409
97391W        W40407  12.071  29.097   5.972 -0.2236 -0.2041  0.4151
97392W        W40408  17.486  28.889   7.420 -0.0909  0.0764 -0.1874
97393W        W40409  13.095   8.819  28.852 -0.0987  0.1485 -0.0784
97394W        W40410   7.745  33.256   2.362 -0.0613  0.0806 -0.2223
97395W        W40411  20.778  21.321  21.056 -0.1855  0.0362  0.1163
97396W        W40412   2.318  29.612  13.903  0.1472 -0.4080 -0.0979
97397W        W40413  20.382  31.809  21.301 -0.2683 -0.2605  0.0817
97398W        W40414   7.004  21.872  28.413 -0.1829  0.1694 -0.3142
97399W        W40415  22.864   2.085   6.182 -0.0922  0.0684 -0.1690
97400W        W40416  22.427  13.969  26.402  0.3058  0.2833 -0.0242
97401W        W40417  30.554  26.393  21.224  0.1018 -0.0194  0.1266
97402W        W40418  23.694   5.210   2.039  0.1013  0.1929  0.2005
97403W        W40419   3.775   6.006  28.974  0.0279  0.3663  0.1382
97404W        W40420  11.660   6.696   2.687 -0.0225 -0.2558  0.2299
97405W        W40421  21.819  10.785   4.960 -0.2163  0.0208 -0.0036
97406W        W40422   7.182   6.029  20.635  0.1846  0.1078 -0.0846
97407W        W40423  22.100  20.371  18.806  0.2423  0.3203 -0.0372
97408W        W40424  12.057   2.969   4.605  0.0916  0.0326  0.0196
97409W        W40425  20.644  25.600  26.531  0.2830  0.0492 -0.1260
97410W        W40426   2.735   6.064  28.483 -0.5162  0.0045 -0.2808
97411W        W40427  16.295  23.258  13.314  0.2695 -0.0658 -0.1172
97412W        W40428  19.287   5.257  14.484  0.1179 -0.3791  0.1503
97413W        W40429  22.441  22.077   4.833  0.3028 -0.1817  0.3234
97414W        W40430   9.722  24.047  16.455 -0.3531 -0.0730  0.1736
97415W        W40431   5.560  33.246  18.357 -0.1329 -0.3177 -0.1299
97416W        W40432   1.579  24.433   2.403  0.1859 -0.1788 -0.1666
97417W        W40433   6.297  31.955   5.008 -0.2080 -0.1042  0.0319
97418W        W40434   2.865   2.860   5.941  0.1207 -0.0964  0.3485
97419W        W40435  13.746  23.599   3.956 -0.1770 -0.1974  0.0685
97420W        W40436  29.015  23.973   6.426  0.1066 -0.4723 -0.0338
97421W        W40437  18.495   1.514  14.077  0.0706 -0.0034 -0.0057
97422W        W40438  19.461  31.160   8.802  0.1514 -0.0570 -0.0155
97423W        W40439  28.309  15.895   5.810 -0.0763 -0.0456  0.1687
97424W        W40440  26.733  25.628  26.136 -0.1791 -0.0666 -0.1655
97425W        W40441  15.833  29.518  19.100  0.2112  0.1125  0.0447
97426W        W40442  19.397  21.950  15.707  0.3708  0.1248  0.1340
97427W        W40443   4.676  18.319   7.133  0.1400  0.2723  0.0524
97428W        W40444  13.053   1.473   3.543 -0.2720  0.0292 -0.0070
97429W        W40445  18.450   4.665  28.784  0.2310  0.2564  0.1439
97430W        W40446   9.153  20.789  26.424 -0.0483 -0.1633  0.0038
97431W        W40447  10.345   8.817  27.726 -0.1041  0.4585 -0.1146
97432W        W40448   3.612  17.242  13.061 -0.0849 -0.1030  0.0003
97433W        W40449  18.009   1.500   0.039 -0.0396  0.0234 -0.1235
97434W        W40450  10.237   7.732  25.555 -0.4111  0.0840  0.1513
97435W        W40451   0.250  27.928   6.219  0.2819 -0.0966 -0.0864
97436W        W40452  27.637   0.993  20.549 -0.2457 -0.3026  0.0910
97437W        W40453  13.174   1.062  19.313  0.1599 -0.1141 -0.0592
97438W        W40454  28.296  28.075   1.488 -0.2887 -0.1942 -0.1104
97439W        W40455  20.745  22.775  19.859  0.0968  0.0692  0.0407
97440W        W40456  19.257  30.644   9.514  0.1398 -0.1441  0.1387
97441W        W40457  11.235  23.876   6.713  0.0934 -0.2594 -0.2086
97442W        W40458  16.005   5.798  20.795 -0.0152  0.3188 -0.0254
97443W        W40459  21.753  31.017  25.659  0.1232 -0.3506  0.2080
97444W        W40460  10.324  31.739   2.493  0.5249  0.0678 -0.0797
97445W        W40461  18.820  12.415   7.290 -0.1666  0.1842 -0.0351
97446W        W40462  23.901   0.838  20.174  0.2374 -0.3644 -0.1871
97447W        W40463  23.534   7.158   9.093 -0.4326  0.0324 -0.0743
97448W        W40464  19.025  34.554  23.148  0.2235  0.1209  0.4962
97449W        W40465   5.762  31.017  15.026 -0.0230 -0.5102  0.0050
97450W        W40466   6.711  32.536   9.385  0.0549  0.0597 -0.0332
97451W        W40467  26.625  27.360   3.620  0.1935 -0.1476 -0.3282
97452W        W40468  20.076   7.609   8.898  0.1812 -0.2637 -0.0627
97453W        W40469  22.017  31.932  23.227 -0.2673  0.2341 -0.2018
97454W        W40470  15.343   1.641  15.845  0.2794  0.2786  0.0781
97455W        W40471  10.681  20.562   8.340  0.2612  0.1700  0.0766
97456W        W40472  11.240  34.177  26.834 -0.3139 -0.1687 -0.0465
97457W        W40473  15.078  28.891  16.190  0.0075 -0.0090  0.3233
97458W        W40474  10.055  26.230   8.812  0.3557 -0.0066 -0.0064
97459W        W40475  25.857   1.594  22.431  0.0401  0.1701 -0.2481
97460W        W40476  34.132  21.092  21.707 -0.1648  0.1341 -0.1365
97461W        W40477  12.800  30.355   0.035  0.3198  0.0398 -0.2716
97462W        W40478  21.594   9.734   3.448  0.4041  0.0933 -0.0236
97463W        W40479  14.285  21.722   1.952 -0.2446  0.3913  0.1875
97464W        W40480  26.618  26.929   5.878 -0.4398 -0.4102 -0.2247
97465W        W40481   9.646  27.685  26.715 -0.0600 -0.1143 -0.0904
97466W        W40482  20.338  17.086   6.348  0.1371  0.0849  0.0960
97467W        W40483  25.431   0.769   5.631  0.2304  0.0279 -0.0770
97468W        W40484  14.572  27.114   0.374 -0.0437 -0.0168  0.0430
97469W        W40485  25.939   1.280  26.229 -0.1020  0.0461 -0.1028
97470W        W40486  14.208  25.934  17.266  0.0927  0.0047  0.0686
97471W        W40487  11.029  19.680  19.552  0.0422  0.1210  0.0923
97472W        W40488  28.829  22.807   2.867  0.1710 -0.0480  0.1920
97473W        W40489  16.007   7.255  29.068  0.1959 -0.1962 -0.2982
97474W        W40490  28.987  30.553   2.038  0.1453 -0.2050  0.0925
97475W        W40491  14.108  23.415  26.590 -0.0311 -0.2565 -0.1147
97476W        W40492  23.737  23.781   8.686 -0.0969  0.1648 -0.0132
97477W        W40493  32.966  31.697   8.604  0.0959  0.0807  0.2031
97478W        W40494  26.414  31.495   4.563  0.1770 -0.1152 -0.0875
97479W        W40495  33.538  26.737  10.384  0.1023  0.2166 -0.1085
97480W        W40496  13.148   2.783  21.546 -0.1076 -0.2408  0.0850
97481W        W40497  13.921  25.985  20.055 -0.1462  0.0483  0.2191
97482W        W40498  20.830  18.476   4.879 -0.3498 -0.2412  0.0369
97483W        W40499  15.200  16.085  13.809 -0.0779  0.0796  0.1904
97484W        W40500  17.972  32.582   9.476 -0.0754  0.4843  0.1601
97485W        W40501  24.068   7.940   2.346  0.2106  0.1800 -0.1284
97486W        W40502  26.471  13.326   0.206  0.0192  0.0242 -0.3346
97487W        W40503  21.202  22.686   9.574 -0.1102  0.0797  0.0251
97488W        W40504  16.215   0.658   0.826  0.0230 -0.3939  0.0394
97489W        W40505  21.381  32.321   6.127 -0.1718 -0.1562  0.0638
97490W        W40506  26.943   6.575   8.906  0.0458  0.2169  0.3538
97491W        W40507  29.569  33.374  11.438 -0.0778  0.1397 -0.1037
97492W        W40508  20.082  11.964   2.891  0.1495 -0.0875  0.5371
97493W        W40509  13.115  31.628  22.335  0.3939  0.0664 -0.2146
97494W        W40510  10.189  28.415  25.375  0.3193 -0.1981 -0.0019
97495W        W40511  12.192   9.313   3.127 -0.2359  0.1735 -0.0704
97496W        W40512  11.503  30.571   6.753  0.1942  0.2180 -0.4353
97497W        W40513  17.249  23.814  23.783  0.0779 -0.1170 -0.0900
97498W        W40514   6.211  33.441   3.693  0.2947 -0.0789  0.0538
97499W        W40515  33.006  29.183  24.538 -0.0610 -0.1594 -0.1200
97500W        W40516  14.560  30.107  21.248 -0.0901  0.0053  0.3659
97501W        W40517  30.197  26.778   0.155 -0.3553 -0.1508  0.1151
97502W        W40518  32.988  26.165   4.904  0.2284 -0.0082 -0.1017
97503W        W40519  18.427  28.767  27.004  0.3247  0.4077  0.0639
97504W        W40520  10.536  31.759   7.948  0.1770  0.0345 -0.2572
97505W        W40521  22.280  16.996  15.353 -0.1125  0.1645  0.0356
97506W        W40522  24.659   1.681   9.997  0.0354  0.0756  0.2823
97507W        W40523  26.664  29.598   7.724 -0.0461  0.2516  0.0083
97508W        W40524  28.163  22.301   6.896  0.3555  0.0344 -0.2166
97509W        W40525  10.004   1.107  26.966  0.2070  0.1428  0.1794
97510W        W40526  21.769  25.748  18.545 -0.1129 -0.1806  0.3426
97511W        W40527  14.943  24.206   5.825  0.3271 -0.0725  0.1042
97512W        W40528  23.443  20.527  28.239  0.1361 -0.0479 -0.1325
97513W        W40529  12.975   4.914  13.638 -0.0810 -0.0303  0.0103
97514W        W40530  21.955  25.637  24.150  0.0295 -0.1438 -0.2373
97515W        W40531  32.773  27.760  17.901 -0.2337  0.1012 -0.5248
97516W        W40532   4.366  16.866  26.650  0.0133 -0.1112 -0.2699
97517W        W40533   3.185  25.745   6.562 -0.0931  0.0924  0.0230
97518W        W40534  17.923  27.683  23.341 -0.0917  0.0537  0.2830
97519W        W40535  26.674   0.242   5.773 -0.1041  0.3895 -0.0870
97520W        W40536  13.265  30.892   6.945  0.2724 -0.3097  0.1695
97521W        W40537  17.683   5.675   2.909 -0.1502  0.0224 -0.0728
97522W        W40538   8.278   3.784  23.464  0.4408 -0.2309  0.1155
97523W        W40539  20.632  28.188   4.779 -0.1422  0.0270  0.2096
97524W        W40540  16.754  28.227  24.552 -0.0163 -0.0731  0.3266
97525W        W40541  14.991  32.660   3.951 -0.2222  0.2823  0.1147
97526W        W40542  10.151  28.447  10.524 -0.1705 -0.3231 -0.1572
97527W        W40543   5.535  17.602  22.316  0.1284  0.2927  0.1583
97528W        W40544  21.377  15.930  28.407 -0.0601  0.2482  0.0931
97529W        W40545  21.602   3.041  25.495 -0.0593  0.1675 -0.1015
97530W        W40546   4.001  16.042  21.456  0.1057  0.5026 -0.1654
97531W        W40547  33.776   6.124  16.104  0.1753  0.0171  0.1222
97532W        W40548  19.738   1.865   4.666 -0.2016 -0.0057  0.1046
97533W        W40549  11.062   5.031   7.313 -0.0770 -0.2069  0.1573
97534W        W40550  32.539  33.008  24.740  0.1508 -0.1557 -0.3239
97535W        W40551  27.493  11.211  25.852  0.0415  0.1451 -0.0664
97536W        W40552  18.178  10.466  19.913 -0.3309 -0.0966  0.3663
97537W        W40553   0.961  26.999  16.469  0.1708 -0.0690 -0.0783
97538W        W40554   9.788  21.706  27.744  0.1531  0.0054 -0.1299
97539W        W40555  25.389  25.589   1.489  0.0640  0.2320  0.2765
97540W        W40556  34.399  27.301   1.877  0.0938  0.3388 -0.1605
97541W        W40557  24.514   1.058  25.689 -0.2969  0.0428 -0.0636
97542W        W40558   1.509   8.685  23.269  0.2056 -0.1198  0.1087
97543W        W40559  15.326   4.630  20.284  0.2989  0.0971  0.2829
97544W        W40560  20.828  27.636  27.723 -0.0110 -0.2089  0.3044
97545W        W40561  29.934   4.780  17.528  0.1592 -0.1884 -0.1416
97546W        W40562  27.936  29.745   5.923  0.1850 -0.1795 -0.0302
97547W        W40563  21.611  32.999  20.677 -0.1963 -0.3551  0.0110
97548W        W40564  20.472  24.425  17.690  0.1316  0.1718  0.1155
97549W        W40565  12.777   2.368  19.027 -0.0227  0.2159 -0.1741
97550W        W40566  20.804   3.339  27.438  0.1894  0.0193 -0.1301
97551W        W40567  11.025   3.439  16.257  0.1613 -0.1298 -0.0785
97552W        W40568   9.649  29.958  17.328 -0.0086  0.0350  0.0957
97553W        W40569  29.271   7.275  29.064  0.0386  0.2627 -0.2222
97554W        W40570  20.985  28.985  15.637 -0.0618  0.0884 -0.2487
97555W        W40571  11.962  30.919  28.635 -0.0203 -0.4302  0.2028
97556W        W40572  15.106   3.450  25.228  0.1110  0.0945  0.2249
97557W        W40573   7.448  34.757  18.651 -0.3271 -0.3203  0.2147
97558W        W40574  32.942  34.713  24.466  0.0234 -0.2950  0.0136
97559W        W40575  32.374  19.482   1.766 -0.0080 -0.1374  0.2122
97560W        W40576  33.367  28.267  24.328 -0.2723  0.2734 -0.2486
97561W        W40577   0.032   9.515  22.549  0.4619 -0.0410 -0.5466
97562W        W40578  25.709  33.859  15.552  0.1893 -0.0631  0.1676
97563W        W40579  18.272  33.926  16.026 -0.0856 -0.2718 -0.2542
97564W        W40580  25.724   8.477  23.011 -0.1135 -0.1249  0.1084
97565W        W40581  16.000  34.093  24.596  0.0414  0.2630  0.1855
97566W        W40582   9.359   3.125  18.196 -0.0632  0.4352  0.1982
97567W        W40583  16.427   4.467  13.960 -0.0562  0.2837 -0.2725
97568W        W40584  23.779  19.199  26.018  0.0311 -0.2953 -0.0364
97569W        W40585  26.541  21.063  19.675  0.2109  0.0395 -0.1863
97570W        W40586  19.124  12.643  13.985 -0.1335 -0.0390 -0.0548
97571W        W40587  14.835   2.823  15.250 -0.0019  0.1782  0.0361
97572W        W40588  17.169   0.986  20.311  0.2614  0.4038  0.2595
97573W        W40589   9.733  11.881  19.899  0.0968 -0.1904 -0.1850
97574W        W40590   9.445   3.148  14.807 -0.1869  0.0218  0.1966
97575W        W40591   3.446   7.193  21.385  0.3269  0.0161  0.1655
97576W        W40592  17.974   4.699  14.692  0.1589  0.2063 -0.0989
97577W        W40593  13.885  28.450  15.972  0.1005  0.1561 -0.2744
97578W        W40594   2.088   5.639  26.413 -0.2593 -0.2218  0.0309
97579W        W40595  23.333  10.277  23.692  0.0554  0.0169  0.0028
97580W        W40596  14.036  12.558  23.975 -0.3665  0.2930  0.3182
97581W        W40597  17.668   5.509  22.651 -0.2928 -0.0918 -0.0555
97582W        W40598  21.949  30.792   3.137  0.1739 -0.1905  0.0518
97583W        W40599  12.752  19.927  12.909  0.1731  0.2255 -0.3125
97584W        W40600   3.582  14.445  26.580  0.0622 -0.0056  0.0746
97585W        W40601  19.673   7.608  18.052 -0.0471  0.0635  0.0573
97586W        W40602   7.533   5.703  23.727 -0.0165  0.3801  0.0593
97587W        W40603  25.499   0.608  16.757  0.4401 -0.0715 -0.2718
97588W        W40604   1.290   7.316  25.920 -0.0904  0.1753 -0.1809
97589W        W40605  17.701   2.981  18.442  0.1440 -0.1864 -0.1965
97590W        W40606   7.301  13.261  21.481 -0.3685 -0.3043 -0.0468
97591W        W40607  25.579  23.604  19.246  0.0444  0.1299 -0.2652
97592W        W40608   6.598  23.283  20.595 -0.0680  0.1062  0.0528
97593W        W40609  18.276  19.561  13.750  0.3204  0.1248  0.3542
97594W        W40610  26.745   4.534  21.991  0.0724 -0.0742  0.1481
97595W        W40611  26.318   6.488  18.497  0.3733 -0.1322  0.0324
97596W        W40612  13.848  25.172   2.806  0.0307  0.0046 -0.0015
97597W        W40613  26.258   0.088  28.392  0.0891  0.4977 -0.0442
97598W        W40614  19.399   2.089  22.159 -0.1323  0.1456  0.2006
97599W        W40615  13.926  32.917  17.413  0.1101 -0.1105  0.1361
97600W        W40616  21.909  30.572  27.499  0.0344 -0.1541 -0.3092
97601W        W40617  26.138  30.694  20.113 -0.1989  0.1604  0.2490
97602W        W40618  12.431  17.375  14.476  0.2434  0.0757 -0.0277
97603W        W40619  25.218   6.501  17.345  0.0373  0.0947  0.1865
97604W        W40620  18.286   2.491  23.563  0.0651  0.1171  0.0579
97605W        W40621   9.787  31.253  14.444  0.2866  0.0909  0.5472
97606W        W40622  13.865   2.373  22.766 -0.1618 -0.1631  0.0025
97607W        W40623  21.315  32.735  23.274  0.1065  0.0945  0.1617
97608W        W40624  31.232  32.180  28.444  0.2239  0.0750  0.0201
97609W        W40625  16.951   7.052  15.574 -0.2929 -0.3080 -0.0712
97610W        W40626   6.746   1.085  21.132 -0.0989  0.2662  0.2506
97611W        W40627  20.361   0.610  27.765 -0.3891 -0.1584  0.1236
97612W        W40628  26.325  32.447  18.549  0.2565  0.0101  0.1518
97613W        W40629  24.895  18.322  17.639  0.0910  0.0050  0.0360
97614W        W40630  27.568  27.266  17.766 -0.0456  0.1199 -0.0084
97615W        W40631  14.490   1.580  22.162  0.1137 -0.0646 -0.4670
97616W        W40632  30.929  33.737  22.535  0.4540 -0.0305  0.0301
97617W        W40633  13.024   5.737  18.645  0.2128  0.1920 -0.1610
97618W        W40634  12.275   6.309  18.651 -0.0739 -0.4447  0.2164
97619W        W40635   3.193  32.335  17.316 -0.0655 -0.1578  0.2355
97620W        W40636  23.110  32.823  15.770  0.0529  0.1612  0.0307
97621W        W40637  28.967  17.318  21.816  0.3020 -0.1596 -0.0472
97622W        W40638  17.674   7.130  24.367 -0.1273  0.2871 -0.0276
97623W        W40639  10.543   3.347  16.378  0.0072  0.0672 -0.2611
97624W        W40640  11.615  33.722  24.095 -0.1699  0.1301  0.0559
97625W        W40641  21.743  21.267  16.851 -0.1538  0.0270 -0.3344
97626W        W40642   8.111  25.275  14.645  0.1432 -0.4235 -0.0310
97627W        W40643  30.430   3.410  15.898  0.0018 -0.2042 -0.1606
97628W        W40644  19.097   0.217  24.011 -0.1774 -0.0880 -0.0772
97629W        W40645  31.633   0.605  24.783  0.0958  0.2480  0.3294
97630W        W40646  13.988  28.829  25.704 -0.0599  0.4464  0.1493
97631W        W40647   0.351  29.219  27.313  0.0170  0.1513  0.3901
97632W        W40648  20.068  22.564  14.175 -0.0893 -0.0663  0.0812
97633W        W40649   9.856   1.146  20.174 -0.1045  0.0421  0.1486
97634W        W40650   4.682  15.464  17.179 -0.2683 -0.2288 -0.0902
97635W        W40651  24.235  10.997  19.544  0.1303 -0.0367 -0.1750
97636W        W40652  33.694  30.537  25.618 -0.1862  0.0377  0.0449
97637W        W40653  22.585   4.988  13.852 -0.2988  0.0345  0.0321
97638W        W40654  30.740   2.612  22.121  0.1422 -0.0572  0.1306
97639W        W40655  27.307  10.326  16.243  0.3011 -0.2295 -0.1741
97640W        W40656  29.638  21.773  17.079 -0.0854 -0.1202  0.1264
97641W        W40657  25.455  34.026  23.509 -0.1184  0.0274  0.1785
97642W        W40658  10.945   6.268  18.023  0.2020  0.2070  0.0552
97643W        W40659  17.397   5.032  19.456 -0.2238  0.3418  0.2552
97644W        W40660   3.512   7.659   3.693 -0.0895  0.0592 -0.0900
97645W        W40661  15.936  25.874  22.820  0.0788 -0.1118 -0.1463
97646W        W40662  25.244  23.028  20.378 -0.0803 -0.3911 -0.0993
97647W        W40663  19.363   1.651  21.893 -0.0333  0.0339 -0.1946
97648W        W40664  27.740  19.103  17.037  0.0350 -0.1758  0.4252
97649W        W40665  19.048  26.584  15.883 -0.0719 -0.1535 -0.0788
97650W        W40666   6.807  23.984  21.805 -0.1293 -0.2554 -0.2604
97651W        W40667  21.610  32.036  17.886  0.0891 -0.0888  0.0025
97652W        W40668  25.852   1.315  27.696 -0.2251 -0.3070  0.2480
97653W        W40669   9.807  21.717  15.783  0.0170 -0.0442 -0.0084
97654W        W40670  12.867  10.607  12.676 -0.2340  0.0008 -0.1107
97655W        W40671   5.638  24.331  20.552  0.2920  0.3867  0.0817
97656W        W40672  21.922   0.099  25.249 -0.0003 -0.0018 -0.0673
97657W        W40673  20.097  30.325  19.360 -0.3283  0.2349 -0.0158
97658W        W40674  15.989  32.427  25.323  0.1577  0.2952  0.0262
97659W        W40675   0.968  33.499   3.101 -0.3205 -0.0774  0.0110
97660W        W40676  27.572  17.561  18.970  0.1078 -0.1669  0.0157
97661W        W40677   0.316   0.011  20.030 -0.1854 -0.1943 -0.0684
97662W        W40678  22.525  31.300  20.081  0.1864 -0.0549 -0.0036
97663W        W40679  11.491  33.964  17.584  0.0043 -0.0709  0.1548
97664W        W40680  30.209  30.039  24.307  0.3010 -0.2322 -0.0915
97665W        W40681  17.365   7.626  19.727  0.2511 -0.4149 -0.2157
97666W        W40682   6.305  23.104  16.541  0.1811 -0.0369 -0.1888
97667W        W40683  18.884  27.992  28.463 -0.1420  0.3128 -0.0224
97668W        W40684   6.478  14.856  26.409  0.0963 -0.0306 -0.2912
97669W        W40685  12.981   5.962  20.263 -0.3733  0.4440  0.0335
97670W        W40686  21.724  34.258  19.260  0.1271 -0.2042 -0.0896
97671W        W40687  13.958  22.255  17.486  0.0299  0.1090 -0.1270
97672W        W40688  17.281   5.211  22.352 -0.2292  0.1997  0.0375
97673W        W40689   4.093   4.697   7.628  0.3725  0.1247 -0.2297
97674W        W40690  14.495  23.353  28.943  0.0589  0.2465 -0.4633
97675W        W40691  24.862  31.897  17.834 -0.2977  0.1705  0.1425
97676W        W40692   3.726  30.158  24.378  0.0320  0.0171  0.1427
97677W        W40693  26.262   4.614  22.168 -0.2126 -0.0415  0.0089
97678W        W40694  20.010  32.915  26.290 -0.0759 -0.3711 -0.3657
97679W        W40695   4.505   2.317  18.252  0.0532 -0.0878 -0.2345
97680W        W40696  27.969  12.273  28.077  0.1549 -0.2022 -0.2477
97681W        W40697  34.353   3.012  22.367  0.0982 -0.1676 -0.1718
97682W        W40698  31.776  23.973  20.100 -0.0225  0.2456 -0.3629
97683W        W40699   7.505   1.873  26.673 -0.1127 -0.0377 -0.1097
97684W        W40700  26.726   3.008  24.577  0.4479  0.2383 -0.0998
97685W        W40701  23.617  10.637  25.090  0.1712 -0.0410  0.0485
97686W        W40702  18.467  32.419  24.845  0.1040 -0.0041  0.0329
97687W        W40703  26.875  32.827  26.308  0.2008  0.2836  0.1077
97688W        W40704  27.530   8.014  27.114  0.0826 -0.0359 -0.2938
97689W        W40705  33.010   3.692  29.113  0.1122  0.3631 -0.2047
97690W        W40706   7.687   1.200  16.902  0.1361  0.2631  0.4152
97691W        W40707  27.767  33.673  25.547 -0.0727  0.0657 -0.3087
97692W        W40708   6.252  20.885  18.115  0.1222  0.3617 -0.1959
97693W        W40709  12.723   6.827  14.907 -0.0294 -0.0107  0.0258
97694W        W40710  18.575  27.090  22.005 -0.0108 -0.2290 -0.0258
97695W        W40711  19.446   6.632  24.588  0.0809 -0.1279 -0.2493
97696W        W40712  13.094  30.910  23.108  0.2810 -0.1247  0.4556
97697W        W40713   5.475  11.118  15.280 -0.1462 -0.1078 -0.0352
97698W        W40714  31.255   1.988  18.896  0.1369 -0.2460 -0.0231
97699W        W40715  32.015  33.502   5.761 -0.1234 -0.0735  0.0475
97700W        W40716  32.112   7.984   1.095 -0.0980 -0.2617  0.1913
97701W        W40717  11.894  33.759  16.474  0.2196 -0.1757 -0.1293
97702W        W40718  24.891   0.781  23.758 -0.1254  0.3005 -0.2924
97703W        W40719  21.216  22.150  24.097 -0.3188 -0.1020 -0.3699
97704W        W40720  11.431  23.393  14.445  0.2055  0.2858  0.0319
97705W        W40721  25.343   0.648  20.234 -0.1354  0.1269 -0.0791
97706W        W40722   8.241  22.918  21.215 -0.2995 -0.1170  0.2245
97707W        W40723  14.111  34.673  17.261  0.3603  0.0653  0.2407
97708W        W40724   4.997  32.352  17.332  0.2000 -0.0569 -0.3133
97709W        W40725  21.762  11.671  26.841 -0.2681  0.0609  0.2631
97710W        W40726  22.614  33.672   9.331  0.0145  0.5161 -0.1190
97711W        W40727   0.357  30.101  29.020  0.2094  0.0760 -0.0606
97712W        W40728  20.707  14.280  16.263 -0.2551  0.1434  0.1781
97713W        W40729  22.857  24.860  18.444 -0.0496  0.0764 -0.2124
97714W        W40730   9.406   0.578  23.333  0.1031 -0.0565 -0.3420
97715W        W40731  30.848  34.081  15.812  0.1147 -0.0255 -0.3084
97716W        W40732  28.477   8.729  25.301  0.0033  0.0900 -0.0292
97717W        W40733  10.670  33.213  19.939  0.1168  0.1621  0.0590
97718W        W40734  25.401  17.221  23.051 -0.3240  0.1914  0.3150
97719W        W40735  18.088   3.582  16.627  0.1634 -0.4039  0.0883
97720W        W40736  17.927   4.305  19.167  0.1132  0.0910 -0.3131
97721W        W40737  27.147  29.891  22.878  0.0069  0.0173 -0.0189
97722W        W40738  24.845  34.468   4.669 -0.1953 -0.1781  0.0951
97723W        W40739   6.722  30.467  18.242 -0.2589 -0.2575 -0.2139
97724W        W40740  17.067   1.792  20.507  0.0248  0.0458  0.1356
97725W        W40741  30.221  27.325  20.922 -0.3380 -0.0433 -0.1615
97726W        W40742  14.996  26.777  20.219  0.2491  0.0833 -0.2688
97727W        W40743  15.626  23.750  13.160  0.0826  0.0749  0.0767
97728W        W40744  28.427   1.754  22.148 -0.0936  0.1967 -0.0932
97729W        W40745  34.319  22.452   4.829  0.6486 -0.1579  0.0819
97730W        W40746  21.775  31.873  26.097 -0.2842 -0.0631 -0.1425
97731W        W40747  11.693  25.048   2.960 -0.0517  0.1281 -0.1837
97732W        W40748  11.681  26.478  20.072 -0.1228 -0.0698  0.0055
97733W        W40749  27.775  24.772  27.942  0.3549  0.2150 -0.1439
97734W        W40750  27.167   0.779  16.184  0.1911  0.1357 -0.3052
97735W        W40751  16.095  21.193  11.766  0.0948  0.2147  0.1342
97736W        W40752  29.140  34.126   4.587  0.0209 -0.0535 -0.3835
97737W        W40753  21.047   4.224  21.896  0.0232 -0.2604  0.1083
97738W        W40754  25.989   6.232  17.786  0.1008 -0.2501 -0.3997
97739W        W40755  22.235  34.778  19.294 -0.0055  0.0801  0.0191
97740W        W40756  22.068  26.746  16.626 -0.3455 -0.2049  0.1522
97741W        W40757  11.927  27.492  20.288 -0.2617 -0.0235 -0.3425
97742W        W40758  26.781  27.183  22.227 -0.0818 -0.1667 -0.1141
97743W        W40759  27.532  10.792  28.123 -0.2102 -0.1619  0.2893
97744W        W40760  31.787  30.329  22.379  0.0120 -0.2052 -0.0871
97745W        W40761  15.289   1.949  18.653 -0.1100  0.3248  0.2110
97746W        W40762   2.434   3.654  19.935  0.2244 -0.1641 -0.0988
97747W        W40763  34.118  28.974  21.057  0.0854  0.1584  0.2226
97748W        W40764  29.447   6.284  17.682 -0.0008 -0.4828 -0.1300
97749W        W40765  13.202  15.956  13.271  0.1115  0.2042  0.1081
97750W        W40766  23.722  25.906  28.028  0.1176 -0.0561 -0.1384
97751W        W40767  33.107   3.299  24.056  0.2032 -0.0819  0.1467
97752W        W40768   2.390   1.754  16.204 -0.1753 -0.0417 -0.1668
97753W        W40769  12.145  30.211  17.691  0.0787  0.2399  0.0268
97754W        W40770  20.496  10.428  28.691  0.1246  0.0494  0.4775
97755W        W40771  23.092  31.228  17.653 -0.1744  0.2211  0.2116
97756W        W40772  17.728   5.181  23.006 -0.1248 -0.3219  0.3001
97757W        W40773  24.427  27.933  27.799  0.0639 -0.0760 -0.1966
97758W        W40774  17.670  28.515   3.886 -0.1739  0.1169  0.2143
97759W        W40775  17.252   7.268  24.799  0.0219  0.0771  0.0625
97760W        W40776  17.716   4.237  21.074 -0.2677  0.2140  0.0184
97761W        W40777  18.169  27.907  21.612  0.1070  0.2337  0.0257
97762W        W40778  20.092   3.513  16.436  0.1066  0.2521 -0.0571
97763W        W40779  12.783   3.457  23.289 -0.1715 -0.1554  0.2167
97764W        W40780  14.390  15.078  15.559  0.0770  0.0104 -0.1989
97765W        W40781  13.627   5.763  21.599  0.1208  0.2345  0.1689
97766W        W40782  21.361   6.410  23.603  0.0114 -0.0865 -0.2887
97767W        W40783  23.095  34.128  17.857  0.0199  0.2157  0.0903
97768W        W40784  15.312  23.841  18.486  0.0436 -0.0784  0.0477
97769W        W40785  18.925  29.383  26.034  0.1062 -0.0505  0.2501
97770W        W40786  17.091  30.934  21.106  0.2061  0.0151  0.1546
97771W        W40787  19.922  30.746   1.054  0.1517  0.0742  0.1857
97772W        W40788  23.955   0.296  19.550  0.1294  0.1572 -0.2704
97773W        W40789   2.487   4.801  14.674 -0.2646  0.2209  0.2108
97774W        W40790   4.945   5.320  27.955 -0.1509  0.0048 -0.0598
97775W        W40791   5.208   9.810  14.856  0.1825 -0.2064 -0.0721
97776W        W40792  33.281   4.898  27.752  0.3003 -0.0131 -0.1822
97777W        W40793  27.141   0.233  18.316  0.1404 -0.2002  0.1564
97778W        W40794  18.404  24.839  29.021 -0.1431  0.0353  0.3107
97779W        W40795   5.375  32.017  16.737  0.0003  0.2086 -0.0333
97780W        W40796   4.105  14.106  26.672 -0.1285 -0.3131 -0.0979
97781W        W40797  24.812  15.341  17.155  0.0759  0.2146 -0.2313
97782W        W40798  15.909  17.298  23.670 -0.2858 -0.1524 -0.0464
97783W        W40799  25.706  27.701   3.910 -0.0785  0.0891  0.1032
97784W        W40800   8.320  33.806   0.984  0.1784 -0.0312 -0.0568
97785W        W40801  27.460  25.035   1.568  0.0277 -0.0884 -0.2359
97786W        W40802  17.818  21.628   7.046  0.2969  0.0235 -0.2405
97787W        W40803  10.500  13.915  27.467 -0.1146 -0.4452  0.0003
97788W        W40804   7.404   5.935  18.221 -0.0790  0.1543 -0.2021
97789W        W40805  28.321  29.493  28.664 -0.1944 -0.1988 -0.0936
97790W        W40806  23.797   6.070   0.572  0.1521 -0.3327  0.1062
97791W        W40807  22.086  10.243   4.061  0.2074 -0.0897 -0.1767
97792W        W40808  15.812  23.375  19.269 -0.0327  0.4329 -0.1613
97793W        W40809  27.538  17.531  25.390  0.0366  0.1555 -0.0466
97794W        W40810  22.414   9.204  17.403  0.0308  0.2468 -0.2563
97795W        W40811  32.953  32.884  19.064 -0.2450 -0.0843  0.0229
97796W        W40812  15.951   3.625  16.380  0.1497 -0.0755 -0.1647
97797W        W40813  20.462  16.541   4.983  0.3948  0.0568 -0.0220
97798W        W40814  10.028  34.411  19.928 -0.0969  0.0412 -0.2909
97799W        W40815  10.366  32.652  22.463 -0.2171  0.3101 -0.0727
97800W        W40816  16.697  28.172   0.937  0.1202 -0.2814  0.0658
97801W        W40817  18.023  31.438   4.242  0.1137 -0.1593 -0.3426
97802W        W40818   0.261  15.614  23.864 -0.0148  0.1889 -0.1279
97803W        W40819  12.000   5.511  16.634  0.1846  0.0957  0.3796
97804W        W40820  15.790  27.631  26.045  0.0105  0.2258 -0.0036
97805W        W40821  11.640  22.445   0.036  0.0109  0.1276  0.0206
97806W        W40822  15.662   4.685  28.913  0.3436 -0.4926 -0.1199
97807W        W40823  11.437   3.043  24.746  0.2477 -0.1410 -0.1471
97808W        W40824  12.978  12.238   2.727 -0.2129  0.0989 -0.1601
97809W        W40825  32.679   6.095   3.861  0.0317  0.1784  0.1116
97810W        W40826  18.015  33.467   2.320  0.1137 -0.0311  0.0520
97811W        W40827  17.680  26.479  14.154  0.5073 -0.2925  0.0315
97812W        W40828  11.604   4.329   1.587  0.1026  0.1404  0.1586
97813W        W40829   7.952  29.236  19.917  0.0848  0.0310  0.1493
97814W        W40830  30.897  26.413  17.557 -0.3509  0.0252  0.0924
97815W        W40831  13.179  13.720  15.572  0.1081  0.2498  0.1260
97816W        W40832  22.708   1.964  16.059 -0.0275 -0.0598  0.3005
97817W        W40833  12.480  26.950  26.753 -0.0583  0.2817 -0.0966
97818W        W40834  31.592  22.132   2.335  0.0962 -0.2781 -0.0815
97819W        W40835  11.820  25.511  17.674  0.2125  0.1435  0.1607
97820W        W40836   8.691  10.853  28.349  0.0394 -0.1345  0.1696
97821W        W40837  19.897   0.807  27.303 -0.0661  0.1972 -0.0762
97822W        W40838  27.884   0.853  16.209 -0.1376  0.0811 -0.1124
97823W        W40839  26.331  23.731  29.132  0.1306 -0.1610  0.1917
97824W        W40840  25.160  19.230  23.106  0.1544  0.1987  0.1713
97825W        W40841  33.702   7.821  21.160  0.2670  0.0277  0.0635
97826W        W40842   4.657  34.603  14.465 -0.2439 -0.1832 -0.0184
97827W        W40843  29.245  25.156   8.512 -0.4743 -0.0104  0.0951
97828W        W40844  15.731  23.695  17.630 -0.0691 -0.0285 -0.0662
97829W        W40845  29.682  27.747  25.033  0.1441 -0.0292 -0.0535
97830W        W40846  13.385   4.499   0.564 -0.0040  0.0010 -0.2581
97831W        W40847  13.459  28.087  15.276 -0.3702  0.3035 -0.4939
97832W        W40848   2.524  12.086   2.281 -0.2691 -0.2359  0.2154
97833W        W40849  31.752  28.657   2.579 -0.0027 -0.0395 -0.0547
97834W        W40850  24.687   0.980   1.933  0.0070 -0.2362  0.0155
97835W        W40851  14.198   2.937  18.180  0.0013 -0.2326  0.1138
97836W        W40852   9.987  25.771   1.237  0.1570 -0.0787 -0.4070
97837W        W40853  10.453  19.310   0.756 -0.2171 -0.0911  0.3463
97838W        W40854   0.930  22.174  15.874  0.1556  0.1036  0.2319
97839W        W40855  11.055  30.946  26.088  0.1851 -0.0471 -0.0960
97840W        W40856  28.303   8.542  23.280  0.1560  0.1756  0.1532
97841W        W40857  13.997  11.110  12.090  0.2119  0.0170  0.0418
97842W        W40858  24.490  31.117  20.174 -0.0304  0.1478 -0.2820
97843W        W40859  16.339  28.313  28.360  0.4921  0.1766 -0.4078
97844W        W40860  14.094  18.546  15.767  0.3151  0.2825  0.0739
97845W        W40861  14.497  13.346  23.563  0.1761  0.0801 -0.0562
97846W        W40862  17.203   0.120  25.722  0.3727  0.1568 -0.3450
97847W        W40863  15.399   9.137  21.720 -0.4663 -0.1256 -0.2019
97848W        W40864  29.675   0.735  17.415  0.0759  0.0104  0.0935
97849W        W40865  11.085  25.444  25.628  0.2423 -0.0214  0.2328
97850W        W40866   1.859  25.335  27.286  0.0129  0.1170  0.0023
97851W        W40867  28.748  33.540  17.557 -0.2415 -0.2311  0.1081
97852W        W40868  10.791  29.464   7.228 -0.0554  0.0181 -0.0126
97853W        W40869  21.464   3.189   6.301  0.2490 -0.3748  0.2413
97854W        W40870  11.539  32.023  24.649  0.0574 -0.3344 -0.0600
97855W        W40871  19.167  29.366  17.514  0.1175 -0.0409 -0.4377
97856W        W40872  31.405  34.732   5.351 -0.0467 -0.1098 -0.1540
97857W        W40873  22.723  22.399  16.120  0.2781 -0.2405  0.1529
97858W        W40874  15.264   7.581  22.479 -0.2576  0.1052  0.2725
97859W        W40875  13.516   3.494  25.568  0.1561 -0.1160  0.1416
97860W        W40876   5.829  33.178  22.011  0.1326 -0.0295 -0.1400
97861W        W40877  23.687  27.428   5.583 -0.0141 -0.1416  0.2498
97862W        W40878  14.094   1.334  24.391 -0.0263 -0.0890  0.0913
97863W        W40879  20.878  31.825  26.090 -0.2227 -0.2717  0.2455
97864W        W40880  19.307  29.944  15.685 -0.2079 -0.2504 -0.0030
97865W        W40881  21.348   0.317  15.811  0.2681  0.2795  0.1983
97866W        W40882   0.108   7.675  18.051  0.0189  0.2115 -0.1796
97867W        W40883  16.750  27.654  19.658  0.0720  0.0876 -0.0738
97868W        W40884  25.747  31.005  22.608  0.2568  0.0540 -0.0204
97869W        W40885  20.008  26.395  14.590 -0.0906  0.2369  0.1349
97870W        W40886  32.503  22.974  26.021 -0.0407 -0.0663  0.3151
97871W        W40887  20.779  10.636  23.032  0.2508 -0.2027  0.3049
97872W        W40888   9.030   4.481  23.786 -0.3272 -0.1499  0.1951
97873W        W40889  24.145  22.299  15.047  0.0763  0.1185  0.0297
97874W        W40890  28.302  17.747  25.709 -0.0417  0.0167 -0.0562
97875W        W40891  16.806  21.855  22.729 -0.3334 -0.2889 -0.1777
97876W        W40892   7.949  11.767   4.732 -0.1382  0.0448 -0.1289
97877W        W40893  14.465   0.013  26.969  0.2313 -0.0173 -0.0785
97878W        W40894   8.876   7.576   5.608  0.0277  0.0640  0.3171
97879W        W40895  18.975  34.512  18.862  0.0383  0.2597 -0.0008
97880W        W40896  25.490  26.712  22.163  0.0073  0.3817  0.0734
97881W        W40897  32.666  28.704  16.592 -0.1206  0.1690 -0.2598
97882W        W40898  13.039   6.168  15.426 -0.2329  0.1214 -0.1433
97883W        W40899   8.321  22.785  13.783  0.1731  0.2453  0.2615
97884W        W40900  22.258  18.548  14.429  0.2574 -0.4426  0.0409
97885W        W40901  23.199  15.602   6.900 -0.0731 -0.1234  0.1085
97886W        W40902   7.117   2.329   3.706 -0.1877 -0.1026  0.0927
97887W        W40903  18.022  28.357  23.362 -0.0264  0.1442  0.1787
97888W        W40904  15.799  33.711  22.642  0.0225  0.2336  0.0101
97889W        W40905  24.127   2.388  15.558  0.0209 -0.1867  0.1781
97890W        W40906  19.321  26.044  21.068  0.0279  0.0856  0.1953
97891W        W40907  24.567   6.694   2.978  0.2357 -0.1832  0.1720
97892W        W40908   4.254  28.526  15.651 -0.1854  0.1579 -0.1360
97893W        W40909  16.715  19.329  23.827  0.0518 -0.1940  0.0828
97894W        W40910  13.011  25.768  15.605 -0.1597  0.2549  0.1226
97895W        W40911  33.044  30.497  28.686  0.0989 -0.2430 -0.0426
97896W        W40912  20.744  29.477  15.562 -0.0993 -0.0370  0.1365
97897W        W40913  28.752  31.693  17.233 -0.3207  0.0410 -0.0456
97898W        W40914  21.500   3.692   1.482  0.2399  0.0006 -0.2104
97899W        W40915  10.721   8.973  24.077  0.2135  0.1216 -0.2978
97900W        W40916  19.689  30.307   7.762  0.1435  0.0553  0.0622
97901W        W40917   8.170  30.120  25.253  0.0038 -0.2339  0.0092
97902W        W40918  19.220   0.241   3.879 -0.4503  0.1354  0.0551
97903W        W40919  11.499   8.976  21.026  0.1755 -0.1415  0.3039
97904W        W40920  19.435  34.386  14.719  0.0669  0.3530 -0.0644
97905W        W40921   2.276  21.273  23.116  0.2185  0.2535  0.6559
97906W        W40922  23.509   0.639  24.315 -0.0263  0.2813  0.2022
97907W        W40923  27.762  18.642  14.066 -0.0892 -0.3316  0.1293
97908W        W40924   4.234   9.161   1.236  0.1798 -0.2713  0.1135
97909W        W40925  10.038  21.110  18.704 -0.0563  0.0683  0.0031
97910W        W40926  20.572  27.773  22.884 -0.0814 -0.1321  0.0906
97911W        W40927  10.654   2.316  17.126 -0.1987 -0.0738  0.2838
97912W        W40928   1.025  29.774  20.087  0.2078  0.0517  0.1167
97913W        W40929  16.231  23.389  23.785  0.1780  0.1415 -0.2045
97914W        W40930  26.037  34.415  18.573 -0.1005 -0.3635  0.0502
97915W        W40931  30.069  25.847  28.101  0.0283 -0.0204 -0.1145
97916W        W40932   9.670  26.109  25.720  0.0005  0.0262 -0.0411
97917W        W40933  21.302   3.626  17.829  0.0982 -0.3077  0.1208
97918W        W40934  26.581  30.595  23.385  0.1759  0.1304 -0.2849
97919W        W40935  33.999  32.599   1.840  0.0773  0.2886 -0.0508
97920W        W40936  19.581  30.257  17.928  0.1747 -0.1685  0.0152
97921W        W40937  21.654  10.575  19.825  0.1845  0.1961  0.3334
97922W        W40938  28.016  23.714  24.220  0.3789  0.0695 -0.0368
97923W        W40939  20.243  10.118  27.339  0.0932  0.0486 -0.2412
97924W        W40940  29.375  11.124  26.118  0.0942  0.0645  0.1529
97925W        W40941   6.855  16.145  26.950 -0.2455 -0.0327  0.0312
97926W        W40942  21.319  19.935  22.925  0.0653 -0.0601  0.0750
97927W        W40943  29.940  12.055  27.787 -0.3023  0.4968 -0.0404
97928W        W40944  14.410   3.206   5.405  0.2543 -0.2629 -0.0082
97929W        W40945  17.197  26.754   8.121 -0.0226 -0.3909  0.2977
97930W        W40946  13.818   6.354  27.046  0.0329  0.2578  0.1879
97931W        W40947   1.415  26.798  28.525  0.1326 -0.2008 -0.2034
97932W        W40948  11.265   7.265   3.877  0.0103 -0.1812 -0.0928
97933W        W40949  32.448  26.804  27.878  0.1958 -0.1145 -0.0110
97934W        W40950  26.573  31.932  11.179 -0.1494  0.1125  0.2350
97935W        W40951  27.529  29.434  27.758  0.1078  0.1297 -0.1008
97936W        W40952   2.798  26.720  17.148  0.2095 -0.2637  0.1018
97937W        W40953  11.586   4.872   1.878  0.2768 -0.3912  0.1718
97938W        W40954  26.781  26.996  18.675  0.3443 -0.1502 -0.0304
97939W        W40955  20.596   0.099  14.968 -0.0883 -0.1778 -0.1778
97940W        W40956  30.397   9.813  24.228  0.0358  0.2728  0.0260
97941W        W40957  20.434  31.499   1.567 -0.0121  0.1233  0.0796
97942W        W40958  18.838   3.968  15.866 -0.1458  0.2825 -0.0390
97943W        W40959  26.763  21.058   1.988  0.1595 -0.1039  0.2669
97944W        W40960  18.505  33.586  23.671  0.0345 -0.1663  0.1576
97945W        W40961  16.861   8.133  14.248 -0.1364  0.1762 -0.0066
97946W        W40962  20.738   2.677  17.291  0.1299  0.0249  0.2102
97947W        W40963  27.073  28.330   6.350  0.0925  0.0477  0.1721
97948W        W40964  20.749  22.584  15.952 -0.3623 -0.0462 -0.3439
97949W        W40965  10.126   0.158  19.989 -0.1855  0.2331 -0.0466
97950W        W40966   8.888   8.862  18.707  0.1723  0.2692  0.1242
97951W        W40967  32.761   1.900  14.960 -0.2956 -0.0970  0.0545
97952W        W40968  23.132  11.407  20.463  0.1515 -0.3369 -0.1830
97953W        W40969  13.778  29.486  25.848 -0.4565 -0.0004  0.0594
97954W        W40970  26.260   3.953  27.838 -0.0873  0.3300 -0.2743
97955W        W40971  13.600  26.925  17.705  0.1398  0.0547 -0.2232
97956W        W40972  27.416  22.569  18.994  0.2620 -0.1702 -0.0007
97957W        W40973   0.720  31.577  17.781  0.0869  0.0766  0.0400
97958W        W40974   3.756   4.390  25.425  0.0833 -0.0490  0.1318
97959W        W40975  26.595  12.574  20.192  0.1371 -0.1127 -0.0138
97960W        W40976  21.020  23.442   3.093  0.1325 -0.1888  0.1605
97961W        W40977  32.710  14.791   2.372 -0.3055  0.2773 -0.0893
97962W        W40978  25.036   2.717  20.324  0.1050  0.1167  0.1561
97963W        W40979  24.941  14.647  15.136 -0.0131  0.0070  0.1753
97964W        W40980  23.171  20.468  29.003 -0.1671 -0.0668  0.1769
97965W        W40981  24.869  21.689  17.187  0.0364 -0.0142 -0.1566
97966W        W40982  25.951   7.613  20.953  0.4338  0.0658 -0.0698
97967W        W40983  11.597  21.395   2.283 -0.0612  0.2246 -0.0108
97968W        W40984   2.400   2.372   8.249 -0.1293 -0.0792  0.1427
97969W        W40985  28.873  16.032  16.174 -0.2993 -0.2216  0.1853
97970W        W40986   4.410   7.234  21.014 -0.0876  0.0162  0.0734
97971W        W40987  13.380  30.712   0.695  0.0841  0.0153  0.0635
97972W        W40988  12.361   6.640  21.188  0.2283  0.1693 -0.0967
97973W        W40989   7.297  32.732   7.529  0.0262 -0.0401 -0.0751
97974W        W40990  25.700  33.251  27.692  0.0537 -0.4237  0.2978
97975W        W40991  22.341  10.492  18.168 -0.0202  0.3006  0.0552
97976W        W40992   9.683  29.981  23.351 -0.1314 -0.1316 -0.1216
97977W        W40993   4.368  13.783  28.017 -0.3014  0.1684 -0.0820
97978W        W40994  13.716   4.850   0.362 -0.2856  0.0075  0.2214
97979W        W40995   2.117   1.526  23.550 -0.0641  0.1377 -0.0827
97980W        W40996  22.087  32.594  26.803  0.1086 -0.0490  0.0400
97981W        W40997  15.678  29.262   2.371  0.1268 -0.1748 -0.1886
97982W        W40998  14.578  34.198  22.881  0.4115 -0.0185 -0.1765
97983W        W40999  13.675  30.967   2.953 -0.3200 -0.0738 -0.0531
97984W        W41000  13.396  31.512  20.407 -0.3625  0.1975 -0.0419
97985W        W41001  25.879  29.056  18.759  0.1729 -0.0882 -0.0996
97986W        W41002  20.608  32.107  29.247 -0.1459  0.0582 -0.0241
97987W        W41003  23.801  11.556  24.149  0.1356 -0.1487  0.1744
97988W        W41004  23.546   7.263  15.289  0.0670  0.1038 -0.3969
97989W        W41005  19.721  25.215  24.665 -0.2508 -0.0656  0.0772
97990W        W41006  21.528  13.469   4.439  0.3519 -0.2332 -0.0763
97991W        W41007  26.972  32.089  26.901 -0.1392  0.1403 -0.0339
97992W        W41008   4.179   2.113  19.027 -0.0343  0.2311 -0.0821
97993W        W41009  32.287   5.221  25.992 -0.0555  0.1027 -0.2242
97994W        W41010  21.520   9.674  22.310  0.1037  0.1796  0.2119
97995W        W41011  29.325  10.491  20.397  0.3059 -0.3322  0.1806
97996W        W41012  31.429   0.741  22.118  0.1947 -0.0897 -0.1396
97997W        W41013  14.691   8.548  25.387  0.2152  0.2675  0.1198
97998W        W41014  16.114   1.025  19.756  0.2823 -0.0238 -0.2385
97999W        W41015  11.622  13.769  29.003  0.0337 -0.0176  0.0371
98000W        W41016  16.128  34.469  16.949 -0.4432 -0.3048  0.1429
98001W        W41017  14.129   8.132  24.848  0.1024  0.1873 -0.1372
98002W        W41018   9.788  33.879  26.898  0.0365  0.0246 -0.2203
98003W        W41019  11.652  23.360  25.805 -0.0890 -0.2862  0.0664
98004W        W41020  17.223  22.207  27.026  0.2097  0.0623 -0.0783
98005W        W41021  26.288  22.471   0.313  0.0860 -0.2860 -0.1968
98006W        W41022  25.634  28.190  18.376 -0.0134 -0.0396 -0.0747
98007W        W41023  11.084   5.882  18.416 -0.1195  0.3447 -0.2861
98008W        W41024   1.198  11.776  19.256  0.1649  0.3266 -0.1850
98009W        W41025  31.630  27.718   0.971  0.0427 -0.3840  0.1207
98010W        W41026  18.469  24.427  27.525 -0.3850  0.2650 -0.1781
98011W        W41027  16.750  25.865   9.108  0.1877 -0.0055  0.4318
98012W        W41028  28.763   2.888  21.469 -0.1171 -0.0727 -0.0285
98013W        W41029   8.179  31.220  18.659 -0.2508  0.1171 -0.0797
98014W        W41030  13.090  27.447  28.967  0.1421  0.1319 -0.1761
98015W        W41031  23.023  30.149  28.389 -0.0615 -0.0150  0.1500
98016W        W41032   7.158  29.363  17.746  0.1133 -0.1609  0.0651
98017W        W41033   2.857   0.530  21.596  0.0896  0.0139  0.1057
98018W        W41034  15.054  29.522  17.535  0.1641  0.0495  0.2383
98019W        W41035   2.575  33.890   7.982  0.3641  0.0626  0.2433
98020W        W41036  25.186  26.099  21.563 -0.0345  0.3131  0.0578
98021W        W41037   3.762  21.995  25.780  0.0846  0.0981  0.0869
98022W        W41038   0.996  32.782  16.642  0.1671  0.0917  0.0110
98023W        W41039   7.309  27.895  19.031  0.2794 -0.1037 -0.0936
98024W        W41040  21.952  23.283  14.278 -0.0638  0.1362 -0.0320
98025W        W41041  19.186  30.602  17.946 -0.1391 -0.0341  0.1471
98026W        W41042  22.576   9.640  21.350 -0.1370  0.3190  0.1067
98027W        W41043  10.743  29.402   3.745  0.0208  0.3536  0.1507
98028W        W41044   9.242   7.860  23.712  0.2231 -0.0367 -0.3835
98029W        W41045   6.695  32.879   2.923 -0.1596 -0.1338 -0.1881
98030W        W41046  30.606   1.374  20.203  0.0642 -0.0936  0.1661
98031W        W41047  16.161  21.949  22.231  0.5009  0.0818  0.1329
98032W        W41048  12.952  31.558  21.470  0.2280  0.1845 -0.1566
98033W        W41049  18.361   5.140  21.087 -0.0633  0.0318 -0.2152
98034W        W41050  14.913  23.484  24.190  0.0320 -0.0106  0.0205
98035W        W41051   8.406   7.549   0.935  0.1015 -0.0786  0.0548
98036W        W41052  13.946  34.067  27.927  0.2101 -0.1723 -0.3361
98037W        W41053  16.509   8.136   3.727 -0.0821  0.3099 -0.1020
98038W        W41054  22.856  29.117   5.879  0.1276  0.1119  0.0394
98039W        W41055   2.683   0.676  10.086 -0.0734 -0.3331 -0.2248
98040W        W41056   7.774  14.653  18.927  0.2867  0.1815  0.1717
98041W        W41057  15.050  21.640  18.610 -0.2926  0.1309  0.1549
98042W        W41058  24.546  19.354   0.114 -0.3539  0.0623 -0.0561
98043W        W41059  18.862  10.975   3.636 -0.1197  0.0020  0.0975
98044W        W41060  17.963  10.377  23.577 -0.0600 -0.0378 -0.1703
98045W        W41061  12.280  30.940  16.012  0.1733 -0.2031 -0.1667
98046W        W41062  29.488  14.179  22.362  0.0942  0.0627  0.0832
98047W        W41063  17.745   1.434   9.305 -0.1516 -0.0681  0.2869
98048W        W41064  20.153   4.072  14.353  0.0060  0.0727 -0.2645
98049W        W41065  10.302  19.507   7.880  0.0419 -0.1919 -0.0000
98050W        W41066  10.694  33.870  21.753  0.1911  0.0245  0.0446
98051W        W41067  18.736   2.440  17.178  0.1560 -0.1473  0.5624
98052W        W41068  26.866  25.182   3.649  0.0661 -0.2891  0.0071
98053W        W41069  16.882  15.783  24.443  0.2540 -0.0228 -0.0417
98054W        W41070  11.758  32.859  17.620 -0.0850 -0.1321 -0.0498
98055W        W41071  23.319   4.176   8.765  0.0747  0.2944 -0.1208
98056W        W41072  24.403  14.835  18.504 -0.0165  0.1122 -0.1577
98057W        W41073  23.566   3.188   1.991  0.1173  0.0179 -0.1422
98058W        W41074  20.731  21.524   7.243  0.3930 -0.1608  0.2125
98059W        W41075   8.387   1.506   7.560  0.0938 -0.4149  0.3337
98060W        W41076  14.871  23.357  27.305  0.1295 -0.2453  0.1691
98061W        W41077  23.304  30.442  14.570 -0.0371 -0.0217  0.0663
98062W        W41078  20.953  32.628  26.389 -0.1621  0.5652  0.1585
98063W        W41079  16.801  32.524  25.383  0.4112  0.0099 -0.0386
98064W        W41080  21.137   7.853  15.425 -0.0405  0.1935  0.2088
98065W        W41081  30.911  15.758  28.331 -0.0892  0.3007  0.0990
98066W        W41082   8.665  32.550  17.151  0.3580 -0.0768  0.0844
98067W        W41083   5.071   0.489  16.403 -0.3780 -0.0781  0.0508
98068W        W41084  34.690  12.004  17.478  0.0196  0.1348  0.0719
98069W        W41085  14.843  24.755  17.409 -0.0359  0.0059  0.2345
98070W        W41086  21.953  27.395  26.710 -0.0579  0.3685 -0.1252
98071W        W41087  30.463  16.008  28.351  0.0892  0.1680  0.3029
98072W        W41088  18.828  21.365   0.201 -0.0359 -0.2288 -0.2187
98073W        W41089  12.914   1.249   8.237  0.1294  0.0667 -0.3568
98074W        W41090   4.046   0.431  20.796  0.3877 -0.0216 -0.0171
98075W        W41091   9.465   9.839  17.897  0.3252  0.1253 -0.0265
98076W        W41092   0.385  24.110   3.503 -0.0041  0.1581 -0.2078
98077W        W41093  22.950  22.336  21.332 -0.1668  0.3621  0.0678
98078W        W41094  15.083  10.135  19.708 -0.1000  0.0934  0.1208
98079W        W41095  23.871  19.978  27.630  0.2210 -0.2139 -0.3243
98080W        W41096  11.696   0.074   1.557  0.0156 -0.2005  0.0138
98081W        W41097  11.072  27.187  27.186  0.1323  0.0336  0.1812
98082W        W41098   1.068  19.233  23.457  0.1788 -0.1300 -0.1464
98083W        W41099   8.247  23.535  22.462 -0.0997 -0.2355  0.1971
98084W        W41100  20.911   2.215  26.341  0.2014 -0.1766  0.3561
98085W        W41101  15.644  29.534  14.685 -0.1117 -0.0796 -0.0465
98086W        W41102  34.367  31.943  20.930 -0.0024  0.1298 -0.2555
98087W        W41103   7.039  33.139   5.471  0.0036  0.1338  0.2198
98088W        W41104  29.008   3.221  22.516 -0.1126 -0.1154  0.1007
98089W        W41105  18.475   5.545  22.901 -0.0640  0.1021  0.0268
98090W        W41106   0.994  31.841  25.419  0.0913 -0.0585  0.0841
98091W        W41107  28.623   1.678   1.680 -0.0625 -0.0637  0.2887
98092W        W41108  23.131  31.747  11.202 -0.0271  0.1655 -0.0639
98093W        W41109  16.167   3.383  22.609  0.2915 -0.1543 -0.3095
98094W        W41110  17.449  21.190  14.103  0.3534 -0.0419 -0.1394
98095W        W41111   1.476  25.422  10.517 -0.0269  0.0019  0.2327
98096W        W41112  27.071  26.499  25.666  0.0311 -0.0248 -0.0572
98097W        W41113  32.443   6.372  28.263  0.1489  0.1272  0.0632
98098W        W41114  15.336  24.456  20.955  0.0252 -0.0899 -0.2827
98099W        W41115  12.279  21.176   5.782 -0.0461 -0.3271  0.0083
98100W        W41116  15.334   9.356  19.557  0.0720  0.0694 -0.3611
98101W        W41117  13.829   1.676  16.595  0.0980  0.1046  0.0261
98102W        W41118  25.934  26.817  10.862 -0.1360  0.1255  0.2462
98103W        W41119  17.209   7.693  25.801 -0.0097  0.2382  0.2970
98104W        W41120  16.253  22.651   5.433 -0.3349  0.3019  0.0740
98105W        W41121  23.595  32.897  27.106 -0.1071 -0.1778  0.0877
98106W        W41122   9.816   6.513  24.440  0.1651 -0.1008  0.0708
98107W        W41123   3.311  14.958  19.081  0.1041 -0.1216  0.0475
98108W        W41124  16.197   2.313  17.230  0.0298  0.0242  0.0717
98109W        W41125  26.269  28.089  24.468  0.2737 -0.0292 -0.1683
98110W        W41126  12.994   0.455  24.295 -0.3261  0.2252  0.1517
98111W        W41127   4.864   0.748  28.023  0.0111 -0.1284 -0.0253
98112W        W41128  12.858  26.308   0.484  0.1206 -0.1572  0.2480
98113W        W41129  25.857  29.434   5.623 -0.3681 -0.1117 -0.0956
98114W        W41130  31.408  27.694   8.828 -0.0486  0.0686  0.4535
98115W        W41131  12.514   0.890  23.319 -0.1059 -0.3293 -0.1437
98116W        W41132   2.456   9.608  27.195 -0.1256  0.4232 -0.0737
98117W        W41133  15.890  25.148  13.605 -0.0458  0.3229  0.0972
98118W        W41134  16.216  28.712   4.343  0.1851  0.0391 -0.0050
98119W        W41135   6.373  20.122  17.179 -0.0886 -0.0062 -0.0578
98120W        W41136  14.001   7.524   5.092  0.2606 -0.2069  0.2280
98121W        W41137  16.305  30.140  23.418  0.2155 -0.2569  0.2069
98122W        W41138  30.956  32.810  18.198 -0.4196  0.0688 -0.2171
98123W        W41139  34.049   0.313   7.469  0.1942 -0.0233  0.0457
98124W        W41140  22.549  31.867  17.864  0.0711 -0.2269 -0.0067
98125W        W41141  23.613   5.507   8.315 -0.0836 -0.0033  0.3918
98126W        W41142   1.555  29.942  22.564  0.0843 -0.0735 -0.0340
98127W        W41143  18.473  26.701  16.329 -0.1761  0.1458  0.3015
98128W        W41144   6.436  32.799   9.676 -0.1555  0.2737  0.1579
98129W        W41145  16.826  24.542  14.434 -0.1997  0.0208 -0.1258
98130W        W41146  17.065  32.286  24.079  0.0350  0.1171  0.1229
98131W        W41147   9.043  17.390   5.621  0.0333  0.2344 -0.1561
98132W        W41148  23.269  22.566  25.008  0.0359  0.1585  0.1244
98133W        W41149  14.322   1.916  21.783  0.0250 -0.2137 -0.4663
98134W        W41150  10.333   7.818  26.128 -0.0841  0.1102 -0.2683
98135W        W41151   8.730   0.466  22.350 -0.1876  0.0546  0.1977
98136W        W41152  12.668   7.499  18.597  0.1058  0.1261  0.1881
98137W        W41153  32.982  17.686  16.505  0.2747 -0.0394  0.2048
98138W        W41154  15.376  30.047   9.206  0.1770 -0.0254 -0.0078
98139W        W41155  16.439   5.545  27.512  0.1775  0.1710  0.0733
98140W        W41156   7.324  33.960   5.955  0.0335  0.0008  0.0036
98141W        W41157  25.820   9.785   8.556  0.1037 -0.0047  0.0867
98142W        W41158   0.557  30.398  22.259 -0.0163  0.0709  0.0882
98143W        W41159  25.958  23.414  19.994 -0.0093 -0.4900 -0.2062
98144W        W41160   1.166  26.029   0.542 -0.0157 -0.0547 -0.1028
98145W        W41161  32.155  30.537  22.777 -0.3821 -0.0590 -0.0887
98146W        W41162   7.803  20.667   8.838 -0.4182  0.0091  0.2380
98147W        W41163  25.823  34.119  26.900  0.0608 -0.0977  0.3725
98148W        W41164  25.740  32.475  19.186  0.0760 -0.1440 -0.0318
98149W        W41165  28.910  20.836  19.347 -0.1203 -0.1558 -0.1383
98150W        W41166  20.041  27.225  28.715  0.1890 -0.1751  0.2135
98151W        W41167  30.897   4.148  18.562  0.0730  0.1670 -0.0977
98152W        W41168  31.525  33.293  29.052  0.1910 -0.0106  0.1201
98153W        W41169  23.518  20.897  13.838  0.0812 -0.0323 -0.0078
98154W        W41170  23.540   9.509   1.435 -0.0629  0.2150  0.0073
98155W        W41171  21.755   7.449  22.933 -0.2558 -0.3117 -0.2737
98156W        W41172  21.738  30.367   4.403  0.0175 -0.1164  0.2156
98157W        W41173  19.003   3.855  17.576  0.0693 -0.1530  0.0846
98158W        W41174  17.754   7.649  20.999 -0.0107  0.1047 -0.0264
98159W        W41175   6.609  28.723  14.682  0.5338  0.3186  0.1112
98160W        W41176   8.702   2.258  19.489 -0.2695 -0.0883 -0.0582
98161W        W41177   0.938  22.769  18.064  0.1074  0.0992  0.1219
98162W        W41178  10.129  24.571   2.626 -0.0146  0.1005 -0.0848
98163W        W41179  15.794   5.349  27.641  0.0901  0.0209 -0.0843
98164W        W41180  17.867  18.050   5.609 -0.4564  0.1361  0.1552
98165W        W41181  23.312  33.133  20.795 -0.2990  0.1906 -0.0583
98166W        W41182  15.143  24.519   0.520 -0.0981  0.0693  0.0895
98167W        W41183  31.429  32.936   0.925  0.1035  0.3014 -0.0926
98168W        W41184  26.197  23.106  15.937  0.1294 -0.0565  0.0652
98169W        W41185  23.033  14.570  13.974  0.2172  0.1426  0.2120
98170W        W41186   5.870  32.513  26.518  0.2196  0.0200  0.1544
98171W        W41187  21.099   0.118  22.539 -0.1830  0.2111 -0.0045
98172W        W41188  16.652  12.901   5.511  0.0770  0.1680 -0.3730
98173W        W41189  14.372   2.412   7.151  0.1101  0.0479 -0.0953
98174W        W41190   7.601  24.891  21.560  0.0199  0.1589  0.2301
98175W        W41191  23.089  15.073   6.031  0.4357  0.3618 -0.3072
98176W        W41192  15.871  15.783   8.071  0.0091 -0.0244  0.0048
98177W        W41193   4.667  27.655   1.818  0.0723  0.1171  0.0516
98178W        W41194  13.485  32.145  23.085  0.1727 -0.1255 -0.1390
98179W        W41195  29.741  27.280  27.449  0.1111  0.1891 -0.0620
98180W        W41196  23.312  28.916  21.029 -0.1135 -0.0883  0.0036
98181W        W41197  33.470  23.019  26.253  0.2952  0.1356 -0.2475
98182W        W41198   1.423  29.876  15.447 -0.3240  0.2058 -0.0295
98183W        W41199  21.066  23.860   0.315 -0.1369 -0.3808 -0.1917
98184W        W41200  24.126   9.554  20.488  0.0355 -0.3879 -0.0314
98185W        W41201   9.782  23.313   4.741  0.2488  0.0567 -0.3196
98186W        W41202   2.905   5.579   1.880  0.1108  0.1535 -0.2593
98187W        W41203  29.347  20.812  25.748  0.2054  0.0559  0.4361
98188W        W41204   8.246  30.796  26.113  0.1295 -0.1099  0.3314
98189W        W41205  24.166  28.527  25.752  0.2117 -0.1778 -0.0490
98190W        W41206  15.774   1.303  15.070  0.1759  0.0634  0.1427
98191W        W41207  24.046   6.505  14.669  0.1508  0.1002 -0.3712
98192W        W41208  25.415  15.461   5.630  0.1380  0.1094 -0.1989
98193W        W41209  10.843  25.999   2.848  0.1042  0.0130  0.3275
98194W        W41210  21.507   2.994   0.289 -0.1776 -0.2141 -0.1620
98195W        W41211  10.372  12.313  26.805 -0.0631 -0.1594 -0.0378
98196W        W41212  22.380  30.453  20.843  0.0421 -0.2280  0.2220
98197W        W41213  25.908  23.893  21.434  0.0428 -0.0399 -0.0374
98198W        W41214  16.133  15.701  23.687 -0.4722 -0.0834  0.1620
98199W        W41215  21.473  31.749  21.835 -0.2517 -0.2315  0.0487
98200W        W41216  12.885  28.510  21.190 -0.1122 -0.0921  0.0239
98201W        W41217  14.130   6.132   4.640  0.2480 -0.1300 -0.0979
98202W        W41218   7.335   3.252  19.604 -0.2765  0.3196  0.2050
98203W        W41219   7.280   2.070  27.073  0.0811 -0.3004  0.0147
98204W        W41220  24.550  21.396   4.271  0.1557 -0.1069  0.0918
98205W        W41221  26.181  29.250  25.700 -0.4901 -0.2890 -0.3630
98206W        W41222  21.088  31.688  23.720  0.1818  0.0536 -0.1996
98207W        W41223  16.348   0.341   2.900  0.1582  0.3965 -0.3595
98208W        W41224  18.409  25.594   8.024 -0.2896  0.0628 -0.3558
98209W        W41225  22.070  22.950  15.143  0.4422 -0.1812  0.1702
98210W        W41226   2.512  10.314  23.312  0.0533 -0.1354 -0.1230
98211W        W41227   3.118  13.398   5.939 -0.2286 -0.1335 -0.1811
98212W        W41228  13.279   1.212  24.374 -0.0423 -0.1695 -0.1044
98213W        W41229  24.266  13.525  27.061 -0.1138 -0.2134  0.2270
98214W        W41230  13.759  29.430   1.886  0.0116 -0.2277  0.0065
98215W        W41231  17.838   0.831  19.370  0.2895 -0.2097  0.2511
98216W        W41232  31.669  32.861  17.549 -0.2506 -0.0678  0.2200
98217W        W41233  20.985  12.976  22.248 -0.1013 -0.1701 -0.1253
98218W        W41234  22.216  25.681   1.433 -0.1879  0.3187  0.0964
98219W        W41235  31.777  33.123  19.414 -0.3236 -0.1104  0.0564
98220W        W41236  24.279  29.287   1.487  0.1572 -0.1116 -0.0665
98221W        W41237  19.595  30.958  15.686 -0.4152  0.1908  0.1201
98222W        W41238  12.519  31.008   7.181  0.1887  0.1726 -0.0537
98223W        W41239   4.927   2.001   9.209 -0.2752  0.0472  0.0177
98224W        W41240  25.305  12.346   4.544 -0.3187 -0.3190  0.1185
98225W        W41241  22.111  26.534   4.778  0.2538  0.1624 -0.0962
98226W        W41242  32.533  25.124  21.656 -0.0538  0.0241 -0.0773
98227W        W41243  19.453   7.550  20.729 -0.0178 -0.1959 -0.1528
98228W        W41244  16.114  25.418  15.876 -0.2412  0.1003 -0.0979
98229W        W41245  19.892   4.923  19.278 -0.0677  0.0321 -0.0932
98230W        W41246  19.179   3.563   6.667 -0.1056  0.2585 -0.1444
98231W        W41247  20.271  29.380   5.515  0.1335 -0.2928  0.1730
98232W        W41248   6.165  26.980   3.384 -0.1258 -0.2121  0.1054
98233W        W41249   7.879  11.834  29.140  0.0582  0.0728 -0.1397
98234W        W41250  28.816   3.187   5.956 -0.3679  0.0643  0.0142
98235W        W41251  20.134  10.941  22.222 -0.0500  0.0268 -0.1477
98236W        W41252  13.202  30.054  25.404 -0.0250  0.2429 -0.1865
98237W        W41253  30.384  32.176  21.257  0.1785  0.3297 -0.1016
98238W        W41254  14.441   7.526  20.840 -0.2804  0.0024 -0.1351
98239W        W41255  22.502  33.002   4.412 -0.1522  0.0596 -0.1033
98240W        W41256  25.670  10.853  17.921  0.1970 -0.0878  0.0034
98241W        W41257  26.833  27.361   4.585 -0.1473 -0.4633 -0.1517
98242W        W41258   4.197  33.601  25.747  0.1089 -0.1696 -0.1488
98243W        W41259  18.934   3.813   1.246  0.0652  0.1553 -0.3143
98244W        W41260  18.670  19.090   7.987  0.2555 -0.2739 -0.5549
98245W        W41261   1.736  34.679   8.240  0.1529 -0.2427 -0.4143
98246W        W41262  26.495   2.280  29.288 -0.1050 -0.4323  0.0014
98247W        W41263  21.655   8.247  25.910 -0.2436  0.1751 -0.1549
98248W        W41264  31.451  33.719   4.599  0.0125  0.5001 -0.2037
98249W        W41265  22.824  21.619  17.460  0.0711  0.1827  0.1260
98250W        W41266  13.126   9.477   8.343 -0.1791 -0.2443  0.1510
98251W        W41267  34.168  31.960  27.389 -0.2060  0.0417 -0.1265
98252W        W41268  20.845  27.142  10.956  0.1923  0.1395 -0.3967
98253W        W41269  21.094   2.648  23.938  0.1047  0.4100  0.0953
98254W        W41270  26.526   4.688   8.362 -0.0608  0.0666  0.0681
98255W        W41271  34.683   0.192  28.400 -0.1047  0.3314 -0.3889
98256W        W41272  10.683  27.108   2.718 -0.0028 -0.0100 -0.4080
98257W        W41273  14.621   6.568   2.507  0.0759  0.0394 -0.1319
98258W        W41274  20.233  27.972   1.968  0.1018  0.1747 -0.0745
98259W        W41275  20.488   0.389  28.324 -0.0382 -0.2594  0.0244
98260W        W41276  18.294  31.978   3.102 -0.1050 -0.0140 -0.3006
98261W        W41277  34.017  30.361   3.581  0.2188  0.3715  0.2914
98262W        W41278  17.193   5.627  24.665  0.1181 -0.1209  0.3058
98263W        W41279  19.816  28.567   7.041  0.0568  0.0993 -0.1029
98264W        W41280  27.808  33.209   7.863  0.1984  0.1460  0.0516
98265W        W41281  26.474  30.183  16.166  0.0132  0.3208  0.1931
98266W        W41282   7.056  12.429  24.411 -0.2824 -0.1346 -0.2026
98267W        W41283   6.270  27.512   5.128  0.2208 -0.2378 -0.0777
98268W        W41284  14.773  14.858   7.918 -0.1371  0.0954  0.0005
98269W        W41285   3.915  19.854   0.706  0.2647  0.2088  0.2182
98270W        W41286  19.064  12.438  14.531  0.0714 -0.0308 -0.0713
98271W        W41287  17.212  28.035   6.863 -0.4292 -0.1665 -0.2777
98272W        W41288  18.484  20.133  22.924  0.2147 -0.0624 -0.3553
98273W        W41289  14.706  19.580  15.006  0.1560  0.2023 -0.3655
98274W        W41290   5.440   7.065   2.536 -0.0521 -0.1482  0.2542
98275W        W41291  16.972  22.768  21.096 -0.3742 -0.0881 -0.2218
98276W        W41292  17.608   5.310   3.382  0.1782  0.2737  0.0967
98277W        W41293  32.776   5.258  22.599 -0.4455 -0.2765 -0.0938
98278W        W41294  11.804  26.507  27.650 -0.0154  0.0049 -0.0082
98279W        W41295  24.905  33.491   7.101  0.1548  0.1945  0.2486
98280W        W41296  18.968   4.140  20.443  0.1854 -0.1152 -0.2141
98281W        W41297  27.002   8.957  23.655  0.1483  0.2562  0.0729
98282W        W41298  18.924   3.229  19.775 -0.1526  0.4677  0.1416
98283W        W41299  30.480  28.605   7.497 -0.0832  0.0478 -0.4185
98284W        W41300  23.119  28.241  10.776 -0.0623  0.0586  0.0162
98285W        W41301   3.910  26.854  23.313 -0.3164  0.1170 -0.1116
98286W        W41302  17.561  33.795   2.337 -0.0771 -0.0489 -0.2253
98287W        W41303  24.536  17.388   6.163  0.1108 -0.2778  0.0581
98288W        W41304  29.176   1.317   4.347 -0.4444 -0.0078 -0.0094
98289W        W41305  17.601  28.865  29.202 -0.2288  0.1443  0.1274
98290W        W41306  24.123  28.162  22.563  0.2273 -0.1474  0.2028
98291W        W41307  12.631  25.842  21.971 -0.0695 -0.1413 -0.1432
98292W        W41308   7.489  13.052   0.273 -0.2580 -0.1581 -0.0138
98293W        W41309   6.764  21.114  26.368 -0.1130  0.3679  0.0439
98294W        W41310  11.255  14.972  26.741 -0.1147 -0.1064  0.0947
98295W        W41311  26.214  19.109  15.640 -0.2313  0.1326  0.0958
98296W        W41312  31.243  22.855  17.787  0.1388  0.0930 -0.2814
98297W        W41313  11.282   4.695   0.660 -0.0428  0.0293  0.1629
98298W        W41314  16.220  25.556  28.830 -0.1721  0.1175  0.3418
98299W        W41315  14.199   3.291  27.630 -0.0843  0.2387 -0.2599
98300W        W41316  34.310  22.255  25.297 -0.0553 -0.0911  0.1117
98301W        W41317  14.814  28.838  21.991 -0.1771 -0.2004 -0.2583
98302W        W41318  19.795   2.562  28.428  0.2256  0.0866 -0.2751
98303W        W41319  26.958  19.509  23.673  0.2347 -0.2057  0.0092
98304W        W41320  14.518  33.502   3.669  0.0535  0.2361 -0.1629
98305W        W41321  21.751  33.783   1.638  0.1701 -0.1690 -0.1522
98306W        W41322  15.589   7.934  19.707  0.1441 -0.1577 -0.1492
98307W        W41323  18.095  19.621  12.410 -0.3291  0.0477 -0.0433
98308W        W41324  18.065  13.249   2.556 -0.1992  0.1395 -0.0180
98309W        W41325   5.583  16.700   5.749  0.1743 -0.1256  0.0253
98310W        W41326   5.268  22.239  20.815 -0.1516 -0.0620  0.1624
98311W        W41327   7.020  34.330  20.845 -0.2530  0.0147  0.0139
98312W        W41328  15.912   8.620   3.897  0.2484  0.1031  0.3285
98313W        W41329  20.684  22.480  22.491 -0.0914  0.1718 -0.2920
98314W        W41330  15.015  24.319  24.216 -0.2695 -0.3916  0.1256
98315W        W41331  30.963   4.881  24.426 -0.1879 -0.1419  0.0930
98316W        W41332  25.236   6.792   0.505  0.1971  0.1570 -0.0184
98317W        W41333   1.473  32.221   7.804 -0.2576  0.1668 -0.1775
98318W        W41334  14.093   7.441   3.714 -0.2239  0.0998 -0.1411
98319W        W41335   7.579  32.172  18.648  0.1512  0.2724 -0.0641
98320W        W41336   7.175  32.803  27.564  0.0363 -0.0473  0.0042
98321W        W41337   4.681  13.521   9.908  0.0659  0.1637 -0.3129
98322W        W41338  18.618  21.028   5.745 -0.0046 -0.1153 -0.0956
98323W        W41339  18.468  33.086   3.160  0.1020 -0.1196 -0.0674
98324W        W41340   7.822   1.072  26.393 -0.2315  0.3193 -0.2317
98325W        W41341  19.678  34.575  15.150  0.2980 -0.0544  0.1142
98326W        W41342  25.601  16.498   4.828 -0.0194 -0.0954  0.0136
98327W        W41343  32.324  11.331  10.030  0.2624 -0.4278  0.0387
98328W        W41344   7.944  26.632   5.466  0.0492 -0.0790  0.1422
98329W        W41345  14.122  34.263   1.161 -0.2304 -0.1906  0.0649
98330W        W41346  16.004  34.167  18.860  0.0508  0.0421  0.0843
98331W        W41347   8.832  32.591  28.430  0.1650 -0.1454 -0.1609
98332W        W41348  21.306   9.992   0.860  0.0094 -0.0479  0.0917
98333W        W41349  19.261  34.702   3.163 -0.1329 -0.0911  0.1092
98334W        W41350  26.517  23.663  24.554 -0.0977 -0.1339 -0.1207
98335W        W41351  15.608  34.415  29.164  0.2104  0.0739 -0.0831
98336W        W41352  28.934   5.902  25.283  0.0063 -0.3115 -0.1422
98337W        W41353  18.910   1.238  26.772 -0.0143 -0.1410  0.1622
98338W        W41354  17.873  16.832  15.430  0.0199  0.0501  0.0293
98339W        W41355  11.310  32.061  20.819 -0.1014  0.0949  0.1469
98340W        W41356  12.411  27.804   9.873 -0.0005 -0.0436  0.0900
98341W        W41357  15.165  12.939  12.310  0.0317  0.0562  0.2324
98342W        W41358  23.174  31.637  26.978 -0.2027 -0.2015  0.1359
98343W        W41359  21.034  27.351   4.959  0.1193 -0.1301  0.0344
98344W        W41360  18.598   2.033   1.121  0.0850 -0.0213  0.0530
98345W        W41361  26.834  28.615  24.642  0.0480 -0.1216 -0.2291
98346W        W41362  24.178  21.841   3.063 -0.2509 -0.3001  0.0443
98347W        W41363  21.370  33.488   1.969 -0.0855  0.0612  0.1356
98348W        W41364  21.935   1.311  18.967  0.0789 -0.1383  0.1361
98349W        W41365  23.316  14.229  21.358  0.1001  0.2795  0.0365
98350W        W41366  10.703  15.595  17.505  0.1725  0.0378 -0.5060
98351W        W41367   4.113   4.500   0.061  0.2441 -0.0854 -0.1088
98352W        W41368  22.822   5.282   2.387 -0.0075  0.0355  0.1333
98353W        W41369  12.645   7.688  26.394 -0.1415 -0.0513 -0.2897
98354W        W41370   8.467   3.036  24.650  0.1625  0.3159 -0.1326
98355W        W41371   7.358  31.120  19.293 -0.0641  0.2729  0.0999
98356W        W41372  33.157  21.127  18.967  0.2230 -0.2036  0.0636
98357W        W41373  22.274   2.569  18.237  0.3129  0.1631 -0.1166
98358W        W41374  25.345   4.641  16.146  0.1653 -0.0756  0.0003
98359W        W41375  30.310   5.296   8.862  0.0327 -0.0513  0.0870
98360W        W41376  26.307  21.732   9.519 -0.1220 -0.3125  0.3819
98361W        W41377  27.417  11.210  24.192  0.0089  0.1490  0.0925
98362W        W41378  13.229   8.435  26.908  0.1626 -0.1593 -0.1427
98363W        W41379  13.419   0.997   1.086  0.1045 -0.0450  0.4072
98364W        W41380  11.192  29.321   6.983 -0.0093 -0.0826  0.4316
98365W        W41381   4.159  29.724  17.765 -0.3428 -0.0075 -0.0764
98366W        W41382  18.975  33.459   4.281  0.0167 -0.0516 -0.1886
98367W        W41383   3.606   9.907  10.217  0.0030  0.2491  0.1301
98368W        W41384  22.494   0.980  27.435 -0.1299  0.1861 -0.0006
98369W        W41385  25.302  27.862  27.226 -0.5655  0.0997 -0.1439
98370W        W41386   0.915  32.842  26.414  0.1067  0.1630  0.2218
98371W        W41387  24.284  16.921   1.620 -0.0817 -0.0350 -0.2388
98372W        W41388  29.693   4.354  24.354 -0.3134 -0.0694 -0.0601
98373W        W41389  15.742  24.236  13.105 -0.1917  0.1019 -0.1183
98374W        W41390  30.164  32.876   2.177  0.1097  0.1140 -0.1105
98375W        W41391  23.824  23.596  21.179 -0.0352  0.1038 -0.5328
98376W        W41392  20.503   8.701   0.462 -0.3630  0.2325  0.0854
98377W        W41393  17.126  18.220  29.038  0.0075  0.5905 -0.1395
98378W        W41394   0.795  23.191   5.465  0.1414 -0.1783 -0.3655
98379W        W41395  17.665  24.962  27.224  0.1163 -0.1167  0.2151
98380W        W41396   8.113  12.390   5.668 -0.1429  0.1331  0.1496
98381W        W41397  20.989  29.987   6.136  0.0975  0.1616  0.0017
98382W        W41398   2.838  29.512  14.397  0.3109  0.1468  0.1255
98383W        W41399  14.966  17.173   7.798 -0.0907 -0.0063 -0.0638
98384W        W41400  20.465  32.607  15.983  0.2678  0.1453  0.1694
98385W        W41401  10.333  26.248   1.639 -0.1421 -0.3791 -0.0349
98386W        W41402  19.822   0.945  15.147  0.0122 -0.2280 -0.1891
98387W        W41403   4.220   0.709  18.963  0.0107  0.2037  0.0164
98388W        W41404  31.765   3.080  17.858 -0.0333 -0.0805  0.1649
98389W        W41405  10.764   4.281   7.879 -0.3659 -0.2169 -0.2585
98390W        W41406  21.346   5.118   7.057  0.1194 -0.3212 -0.0506
98391W        W41407  14.928   9.487  23.348 -0.1214 -0.0778 -0.0732
98392W        W41408  11.494   4.954   6.858  0.3162 -0.3185 -0.0303
98393W        W41409  29.003  26.869  26.022  0.0018 -0.3194  0.1271
98394W        W41410  22.004  27.168  25.876 -0.0587  0.3869  0.3498
98395W        W41411  13.760  24.729  18.669  0.1161 -0.1017  0.3422
98396W        W41412  29.412  14.468   2.177  0.0498  0.0763  0.3095
98397W        W41413  12.774  27.258   3.465 -0.2085 -0.0845 -0.2125
98398W        W41414  18.186   3.549   6.904  0.0658 -0.0288  0.2602
98399W        W41415  15.093  30.231  25.899 -0.1211 -0.2584 -0.1358
98400W        W41416  12.542  31.817  27.849 -0.4103  0.0075  0.0542
98401W        W41417  13.260   5.910   5.797 -0.1058 -0.1438  0.2055
98402W        W41418  16.316  22.517   4.775 -0.0490  0.2594  0.0457
98403W        W41419  12.475  12.844   3.888  0.3519 -0.2249  0.0692
98404W        W41420  15.561  27.576  28.456 -0.1133 -0.2544  0.0027
98405W        W41421   7.964   1.780  18.036  0.0265 -0.0623 -0.2605
98406W        W41422  12.177   0.651   8.589  0.0455  0.1765  0.1750
98407W        W41423  11.103   8.393  20.342  0.2391 -0.2387  0.2426
98408W        W41424  25.907   2.880   5.640  0.1750 -0.2274 -0.0357
98409W        W41425   2.978  34.508  21.985  0.1308  0.0552  0.2408
98410W        W41426  32.753   5.240   1.004  0.0417 -0.1332  0.1394
98411W        W41427  30.556   2.801  26.262 -0.2758 -0.1422  0.0520
98412W        W41428   2.105   1.106  23.244 -0.2210 -0.1182 -0.1229
98413W        W41429  19.220  19.174   1.456  0.1676  0.2868 -0.1205
98414W        W41430  26.381  15.063  24.543 -0.1014 -0.0405  0.0620
98415W        W41431  17.712  17.398  22.534 -0.4549 -0.0661  0.3099
98416W        W41432  16.588  30.527   9.730  0.0655 -0.2326  0.0709
98417W        W41433  30.973  14.438   7.386  0.2343  0.1052 -0.0661
98418W        W41434   8.500   1.065   1.751  0.1469 -0.3468 -0.0813
98419W        W41435   9.401   2.437  15.957  0.1174  0.1038 -0.0350
98420W        W41436  32.156  25.382   8.383 -0.1425 -0.0751  0.0118
98421W        W41437  21.169  34.334   4.809 -0.2296 -0.2467 -0.0872
98422W        W41438  20.147  23.445  24.960  0.0781  0.0401 -0.0294
98423W        W41439   9.866   7.167  15.065  0.2944  0.1628 -0.1037
98424W        W41440  20.378  16.059   4.528 -0.1007 -0.0115 -0.0543
98425W        W41441  23.973  33.320   6.777  0.1677 -0.1827 -0.1293
98426W        W41442  20.989   9.984   7.898  0.2611  0.1655  0.0326
98427W        W41443   8.447  18.603  17.631  0.2417  0.1973 -0.2248
98428W        W41444   1.592  10.260   1.698 -0.0737 -0.3786  0.3560
98429W        W41445   8.960  33.589  19.780 -0.2949  0.0080  0.4499
98430W        W41446   6.523  26.987  28.774 -0.3081  0.0192  0.1416
98431W        W41447   8.721   4.643  26.001 -0.2487 -0.3685  0.1541
98432W        W41448   5.202   2.328  27.233  0.3087  0.2008  0.2167
98433W        W41449  32.727   3.239  15.193  0.1895  0.2566 -0.0798
98434W        W41450  17.717   1.612   3.356  0.1883 -0.1908  0.2372
98435W        W41451   0.432  30.678  18.931 -0.1886  0.0865  0.0571
98436W        W41452  29.843  14.965  22.696  0.0710 -0.1690  0.4040
98437W        W41453  27.217  11.998  16.990  0.2484  0.3341 -0.2048
98438W        W41454  24.933  30.088  22.528 -0.0236  0.0609 -0.1988
98439W        W41455  21.073  28.144  19.532 -0.2943  0.0574  0.1145
98440W        W41456  22.277  11.464  14.215  0.0726 -0.0597  0.1648
98441W        W41457  25.572  29.801  26.290  0.1227 -0.0163  0.1599
98442W        W41458  22.465   4.152   5.625  0.1967 -0.0787 -0.1265
98443W        W41459  25.163  15.297  21.400 -0.0758 -0.2998 -0.0736
98444W        W41460  10.180  13.242  15.649  0.1769 -0.1698  0.0420
98445W        W41461  14.760  30.825  19.369 -0.0518 -0.0439  0.0769
98446W        W41462  25.588   4.577  14.695  0.0605  0.1913  0.0058
98447W        W41463  11.398  32.120  18.270 -0.1877 -0.1712 -0.0261
98448W        W41464  27.976  29.054  17.381  0.2942 -0.1631  0.0858
98449W        W41465  31.522  23.857  22.300 -0.3484 -0.1967  0.1534
98450W        W41466  28.937   3.540  18.369  0.1462  0.2520  0.1057
98451W        W41467  28.370  23.961  20.007 -0.1026 -0.0568  0.0503
98452W        W41468  23.497   2.916  16.977  0.1137 -0.2529 -0.0293
98453W        W41469  22.053  33.509  18.603 -0.1988 -0.2049 -0.0257
98454W        W41470   5.989  27.715  15.794 -0.2731 -0.0593  0.2895
98455W        W41471  27.011   7.485  23.996  0.0199  0.1660  0.1462
98456W        W41472   7.782  34.157  24.999  0.0561 -0.1928  0.0858
98457W        W41473  30.449  19.306   2.884 -0.0881 -0.0856  0.2260
98458W        W41474  20.891  22.195  22.808 -0.2623  0.1452 -0.0651
98459W        W41475  26.315   6.215  28.915 -0.0054 -0.1061  0.2882
98460W        W41476   0.060   0.984  26.705  0.1499 -0.0679  0.1385
98461W        W41477  17.085  11.341  25.068  0.2716  0.1218  0.0206
98462W        W41478  16.588  33.734  14.151  0.1381  0.1556 -0.1014
98463W        W41479   2.085  22.539  18.657 -0.3717  0.0203  0.0160
98464W        W41480  19.095   9.048  17.191 -0.2377  0.0973  0.0892
98465W        W41481  12.790   4.503  26.317  0.1077  0.1424 -0.2348
98466W        W41482  21.471  16.043  23.388  0.2211  0.2212  0.2572
98467W        W41483   0.759  25.447  25.693 -0.1481  0.1039  0.0768
98468W        W41484  15.932  34.496  22.792 -0.2193 -0.1907  0.5352
98469W        W41485  30.952   6.782  15.494 -0.0381  0.1117 -0.0475
98470W        W41486  21.476   5.785  15.446  0.1796  0.1512 -0.1099
98471W        W41487  26.750  30.300  17.210  0.1050 -0.0782 -0.0041
98472W        W41488  19.152  32.487  20.562  0.1867 -0.0515 -0.0952
98473W        W41489  16.657   2.891  16.583 -0.0039  0.0046 -0.3331
98474W        W41490  31.889  19.834  20.275  0.1001  0.0714  0.2346
98475W        W41491  20.672   8.003  27.590 -0.3170  0.0368 -0.0258
98476W        W41492   9.435   4.470  17.180  0.1651 -0.0262  0.2088
98477W        W41493  15.022  18.232  16.275 -0.0322 -0.3477  0.0982
98478W        W41494  28.080  29.066  21.160 -0.0302  0.1522 -0.0239
98479W        W41495   2.188  10.038  15.034 -0.1053 -0.1955  0.0732
98480W        W41496   1.481  28.976  19.779  0.1811  0.2146 -0.3133
98481W        W41497   7.737  17.925  25.655 -0.1274  0.1499  0.0988
98482W        W41498   0.286  30.111  24.754 -0.0578 -0.2798  0.1398
98483W        W41499  24.382   7.945  28.036  0.0612 -0.0706  0.0251
98484W        W41500  21.905   3.173  19.728 -0.3793  0.0752 -0.0595
98485W        W41501   8.474  14.491  22.475 -0.2099  0.0617 -0.3949
98486W        W41502   1.663  14.828  23.751 -0.0334 -0.0648  0.0959
98487W        W41503   2.447   9.743  23.012  0.0472  0.3679  0.1075
98488W        W41504  20.830  16.531  29.186 -0.0120 -0.1911  0.2040
98489W        W41505  16.964  19.534  15.287 -0.2962 -0.2909 -0.0026
98490W        W41506  18.018   2.242  20.292  0.2786  0.0079  0.1955
98491W        W41507  29.676  11.795  17.748  0.0609 -0.2436 -0.0689
98492W        W41508   5.589   0.455  22.326 -0.0038  0.0305 -0.0654
98493W        W41509   4.823  11.731   0.482 -0.1343  0.1919 -0.2413
98494W        W41510  20.254   4.822  18.292  0.0467 -0.0793 -0.0191
98495W        W41511  29.318   5.377  23.158  0.0958  0.1070  0.1390
98496W        W41512  13.409   3.111  22.787 -0.0187 -0.1630  0.0591
98497W        W41513  20.151  32.848  19.747  0.2203 -0.3540 -0.1477
98498W        W41514   9.660  12.715  19.332 -0.0195  0.0349 -0.1465
98499W        W41515  11.872  18.627  20.974  0.0579 -0.1527 -0.1362
98500W        W41516  29.398   7.467  17.745  0.1855  0.2401 -0.0234
98501W        W41517  18.684  31.754   4.775  0.3305 -0.2418 -0.5184
98502W        W41518  20.217   5.924  16.000  0.1493 -0.1906 -0.1891
98503W        W41519  30.020  24.760  22.865  0.2990  0.0093  0.1525
98504W        W41520  19.630  25.499  18.587  0.0134  0.1750  0.2708
98505W        W41521   0.307  26.798  22.072 -0.1510 -0.1940  0.0339
98506W        W41522  25.399  25.662  21.712 -0.1639  0.1960 -0.0351
98507W        W41523   4.667  30.907  15.543 -0.3210 -0.1604 -0.0083
98508W        W41524  21.319  34.146  15.870 -0.2607 -0.1645  0.1133
98509W        W41525  13.745   5.879  22.225 -0.0113  0.2157  0.1237
98510W        W41526  23.784  30.097  19.553  0.1815  0.0121 -0.0836
98511W        W41527   9.344  19.150  17.706 -0.0513 -0.0816 -0.1409
98512W        W41528  22.445   0.633  28.057 -0.1919  0.0398  0.0368
98513W        W41529  14.231   7.338  17.252 -0.1757 -0.2056  0.2027
98514W        W41530  18.559  17.374  20.069  0.0132 -0.0272 -0.2717
98515W        W41531  14.585  31.689  21.719 -0.0096  0.0092  0.0861
98516W        W41532  18.803  30.272  17.816  0.1396 -0.1336 -0.0358
98517W        W41533  18.516   0.863  18.077  0.0766 -0.2557  0.1414
98518W        W41534  31.170  34.680  23.178  0.1557  0.1932 -0.0361
98519W        W41535  30.519  34.576  26.356 -0.4228 -0.0520  0.1756
98520W        W41536  27.696  25.071  18.940  0.0072 -0.1366  0.1554
98521W        W41537   4.616   9.982   0.379 -0.3396 -0.0044  0.0886
98522W        W41538  12.594   5.514  29.299 -0.0942  0.3873  0.2793
98523W        W41539  34.743  11.500  17.394 -0.1659  0.1451  0.0821
98524W        W41540  17.615   8.169  22.537 -0.1884  0.1977  0.0107
98525W        W41541  22.531   4.337  25.168  0.0416 -0.1906 -0.3424
98526W        W41542  31.218  29.871  24.588  0.2296 -0.0029 -0.3901
98527W        W41543  19.049  27.076  21.807  0.0894 -0.1090  0.2829
98528W        W41544  27.882   9.009  27.712 -0.3262  0.1470  0.0232
98529W        W41545  26.869  19.783   8.037  0.1731  0.4335 -0.2328
98530W        W41546  26.418  18.547  15.186 -0.2905 -0.1395 -0.0889
98531W        W41547  20.431  33.517  16.457  0.0001  0.2888  0.2119
98532W        W41548  20.766   4.830  18.293 -0.1559 -0.1607  0.0570
98533W        W41549  21.484  33.064  22.881 -0.0435 -0.1032 -0.0941
98534W        W41550  21.198  27.889  16.121  0.2607  0.0474  0.2391
98535W        W41551  15.670  31.930  16.142  0.0148 -0.0638 -0.2190
98536W        W41552   8.735  32.861  18.584  0.1551  0.2359  0.3801
98537W        W41553   1.907   1.983  16.124 -0.0013  0.1534  0.0376
98538W        W41554  31.045  18.598  16.527 -0.4685 -0.3053 -0.1023
98539W        W41555  21.339  14.466  21.243  0.0843 -0.0350  0.0282
98540W        W41556  10.614   4.619  24.514  0.1192  0.1660 -0.0300
98541W        W41557  24.355  20.635   2.686 -0.0556 -0.3392  0.2466
98542W        W41558  29.284   1.285  24.611  0.0897  0.0676  0.1415
98543W        W41559  18.066   7.906  27.244 -0.0629  0.0925 -0.0575
98544W        W41560  24.389   1.092  22.740 -0.1517  0.0491 -0.0639
98545W        W41561  24.088  24.973  15.253 -0.0879 -0.0883 -0.3666
98546W        W41562   9.342   2.970  21.351 -0.3132  0.0935 -0.0358
98547W        W41563  26.017   4.284  26.366  0.0451  0.0888  0.0488
98548W        W41564  20.761   2.520  19.980 -0.2198 -0.0371 -0.2873
98549W        W41565  20.567  33.278  24.540  0.0990 -0.0290 -0.1787
98550W        W41566  12.903  12.381  17.216  0.1657 -0.1497  0.1960
98551W        W41567  29.528   4.747  15.223  0.2875 -0.4261  0.0351
98552W        W41568  30.145   5.621  16.857  0.1524 -0.0797 -0.0980
98553W        W41569  23.763  17.072  20.627  0.3607 -0.3592 -0.0418
98554W        W41570  11.623  29.777   3.636  0.0634  0.2133  0.1347
98555W        W41571  34.449   8.595  15.473  0.1474 -0.1629 -0.2989
98556W        W41572  33.675  15.328  18.361  0.3373  0.3971 -0.4764
98557W        W41573  21.538  34.442  25.256  0.0362 -0.0082  0.3200
98558W        W41574  14.583  28.438  20.500  0.0667 -0.1199 -0.2304
98559W        W41575  21.245  10.886  20.722 -0.0896 -0.1112 -0.2648
98560W        W41576  27.060  33.569   7.529  0.0597  0.1422  0.0851
98561W        W41577  34.746  21.345  21.729  0.0800  0.0362 -0.2762
98562W        W41578  11.899  33.454  20.003 -0.1375 -0.0690  0.2948
98563W        W41579  21.771   8.589  26.862 -0.1670 -0.1968 -0.1533
98564W        W41580  23.665  27.324  22.725 -0.0386  0.0974  0.1349
98565W        W41581  16.853   1.360  22.550  0.4762 -0.3780 -0.1822
98566W        W41582  30.224   1.204  27.323  0.1407  0.0586  0.3240
98567W        W41583  27.509  28.972  16.124  0.1968  0.0707 -0.1986
98568W        W41584  22.404  21.885  18.811  0.3008  0.1735  0.0758
98569W        W41585  28.257  22.301  17.691  0.0862  0.2876 -0.3500
98570W        W41586  32.850   0.926  18.923  0.0936  0.0436  0.0376
98571W        W41587   1.917  16.868  19.376  0.2061 -0.2244  0.2655
98572W        W41588  31.235   4.125  17.193 -0.0809 -0.0315  0.1529
98573W        W41589  31.322  23.770  20.281  0.1583  0.1295 -0.0658
98574W        W41590  25.244   8.870   1.144  0.0664 -0.1155 -0.0580
98575W        W41591  20.316  24.275  23.810 -0.0802  0.4387 -0.2448
98576W        W41592  26.914  32.326  23.031  0.3621 -0.0542 -0.0802
98577W        W41593   6.879   4.962  14.564  0.2800 -0.1097  0.1744
98578W        W41594   8.133   5.962  17.454  0.1053 -0.0003  0.0972
98579W        W41595   1.766  30.366  18.779 -0.0608  0.0724  0.2293
98580W        W41596  24.215  14.754  25.796 -0.1201  0.0670 -0.1095
98581W        W41597   5.572  21.533  16.064 -0.0587  0.2664 -0.0360
98582W        W41598  23.786  34.185  26.882 -0.1878 -0.1914  0.1366
98583W        W41599  24.728  15.969  25.700 -0.3099  0.0348  0.3174
98584W        W41600  14.851  12.942  14.115  0.1823 -0.2383  0.0059
98585W        W41601  21.233   7.606  16.303 -0.0034 -0.1672  0.1372
98586W        W41602  24.363  31.480  24.981  0.0830  0.2196  0.1866
98587W        W41603   1.372  34.685   1.209  0.1378 -0.3133 -0.0856
98588W        W41604  10.067   1.394  25.546 -0.3660  0.1488 -0.1947
98589W        W41605  19.085   1.304  19.548  0.3727 -0.1538 -0.1919
98590W        W41606   3.055  24.312  23.228  0.2682 -0.0814  0.3427
98591W        W41607  15.637   5.716  17.376 -0.0258 -0.0260 -0.1883
98592W        W41608  15.484   5.095  20.370  0.0524  0.0774 -0.0996
98593W        W41609  33.532  16.218  16.925 -0.0450 -0.3012  0.3155
98594W        W41610  22.674   8.045  23.016 -0.2086  0.0353  0.0246
98595W        W41611  13.163  26.709  16.183  0.1895  0.2245 -0.2841
98596W        W41612  23.262   6.971  14.748 -0.0359 -0.0723 -0.1841
98597W        W41613   1.480   6.559  17.719 -0.0556  0.0927 -0.1179
98598W        W41614  11.678  10.356  23.906 -0.0173  0.0698 -0.2927
98599W        W41615  25.061  31.693  21.046  0.0807  0.2981 -0.2758
98600W        W41616   5.277  31.483  19.969  0.2499  0.0029 -0.0906
98601W        W41617  22.420  33.472  16.715  0.0189  0.0880  0.1046
98602W        W41618  23.538  22.937  26.609  0.0091  0.0307 -0.1430
98603W        W41619  25.142  16.711  17.421  0.0125  0.2143 -0.0712
98604W        W41620  14.105  17.132  20.647  0.0720 -0.3323 -0.0831
98605W        W41621   0.022  15.010  15.789 -0.1496 -0.1911 -0.3621
98606W        W41622  19.713   5.928  17.702  0.0493 -0.0355 -0.5810
98607W        W41623  18.923   1.379  15.619  0.3977  0.1479 -0.1671
98608W        W41624  30.892  33.091  17.555 -0.2929 -0.1334  0.4127
98609W        W41625  30.895   2.053  16.797  0.3792  0.1260  0.2481
98610W        W41626  23.038   2.534  21.897 -0.2567 -0.2964 -0.1010
98611W        W41627   9.599  34.448  23.567  0.1235  0.0260 -0.0799
98612W        W41628  22.837  25.344  15.108 -0.3396 -0.0083  0.1435
98613W        W41629  33.145  13.511  22.626 -0.2126  0.1188  0.0717
98614W        W41630  18.513  16.849   7.407 -0.2896 -0.1422 -0.2170
98615W        W41631   5.254   9.200  19.226 -0.0218 -0.0719  0.2382
98616W        W41632  15.792   3.948  18.671  0.0991 -0.0884 -0.1607
98617W        W41633  21.965  31.161  28.743  0.0062 -0.0604  0.1267
98618W        W41634   1.289   9.913  14.953  0.0211  0.2711 -0.1343
98619W        W41635  32.452  34.168  25.572 -0.1329  0.2796 -0.0126
98620W        W41636  16.107  33.233  24.853 -0.1307  0.1418  0.2172
98621W        W41637  14.406  26.946  17.365 -0.0498 -0.0563  0.3294
98622W        W41638  27.029   0.422   4.541 -0.2673  0.0376 -0.2649
98623W        W41639   6.846  33.671   2.423  0.0699  0.0296 -0.0783
98624W        W41640  24.281   5.464  28.352  0.1726 -0.0754 -0.0765
98625W        W41641  16.687  33.251  20.691  0.1132  0.2759  0.1880
98626W        W41642   2.929  30.491   3.719 -0.0537 -0.0170  0.1307
98627W        W41643  29.949  13.822  20.930 -0.2440  0.1385  0.1495
98628W        W41644  20.208  30.797  19.428 -0.0215 -0.1077 -0.2179
98629W        W41645   6.052  24.293   0.693 -0.1281  0.0301 -0.0208
98630W        W41646  27.248  34.454  18.188 -0.0016  0.0326 -0.1465
98631W        W41647  21.481   1.787  21.202 -0.2549 -0.2021 -0.0232
98632W        W41648   7.832  18.726  25.030 -0.1873 -0.1346 -0.1105
98633W        W41649  16.664  30.453  18.728 -0.1374  0.2382 -0.0473
98634W        W41650  23.562   2.084  14.845  0.1640  0.2212 -0.2724
98635W        W41651  12.202   8.873  16.029 -0.0039 -0.2875  0.0563
98636W        W41652  22.411  10.397  29.009  0.0946  0.4169  0.0131
98637W        W41653  25.333  23.977  16.737 -0.4016 -0.2614  0.1044
98638W        W41654   2.863   1.670  22.635  0.1839  0.4508  0.0267
98639W        W41655  27.459  27.326  18.333  0.2035 -0.0557 -0.1705
98640W        W41656  21.561  30.552  25.046 -0.1174 -0.4088 -0.4781
98641W        W41657  11.065   1.990  26.178  0.1803 -0.0959 -0.2407
98642W        W41658  22.359   7.869  15.291 -0.1364  0.2390  0.0701
98643W        W41659  18.391  33.926  17.284  0.2493 -0.2465 -0.0316
98644W        W41660  21.100   6.564  26.054  0.1265 -0.0469  0.0450
98645W        W41661  16.871   0.405  18.525 -0.3102 -0.1724 -0.3062
98646W        W41662  17.441   8.501  22.932 -0.1585 -0.0965 -0.0241
98647W        W41663  16.885   0.876  15.179  0.1149  0.1377  0.1786
98648W        W41664  33.490  29.533  25.310  0.1812 -0.2878 -0.0222
98649W        W41665  22.167  33.081  15.805  0.1385 -0.2217  0.1672
98650W        W41666   4.848  25.924  21.590  0.0596 -0.1829  0.1538
98651W        W41667   5.822  28.077  19.946  0.3751  0.0497  0.1141
98652W        W41668  14.013  32.334   2.392  0.0756  0.3782  0.1371
98653W        W41669  20.260   4.383  27.666  0.1987 -0.1768 -0.1615
98654W        W41670  34.733  16.769  21.251  0.0281  0.2137  0.1464
98655W        W41671  17.716  32.381   2.136 -0.1130  0.0814 -0.0536
98656W        W41672   2.642  31.926  18.916 -0.3440 -0.3438 -0.2914
98657W        W41673  27.049  26.105  24.120 -0.2466 -0.1390  0.0807
98658W        W41674  16.793   6.285  18.226  0.2311  0.0898 -0.0513
98659W        W41675  33.706  19.114  20.090 -0.0359 -0.1006 -0.0261
98660W        W41676  10.000  10.426  18.351 -0.1392  0.0111 -0.0150
98661W        W41677  22.157   3.185  14.888 -0.0716  0.1336  0.0036
98662W        W41678  17.036   0.156  23.246 -0.0948 -0.3272 -0.0968
98663W        W41679  29.617   8.504  17.077 -0.0886 -0.1545  0.0725
98664W        W41680  22.216  34.329  29.087  0.0834  0.0776  0.1368
98665W        W41681  24.873  22.299  17.054  0.2064 -0.0284  0.0254
98666W        W41682  32.185  15.403  24.353 -0.2766  0.2110 -0.0969
98667W        W41683  15.148  33.865  14.330 -0.4209  0.0935 -0.0033
98668W        W41684  15.152   8.413  15.961 -0.0202 -0.0773 -0.1541
98669W        W41685  29.338  32.220  22.066  0.0466  0.2704 -0.2759
98670W        W41686  14.832   3.346  17.027 -0.1023 -0.0860  0.1332
98671W        W41687   2.587  14.091  14.697  0.3419 -0.1893 -0.0141
98672W        W41688   3.334   7.404  23.687  0.4029 -0.1794 -0.2188
98673W        W41689  24.881  31.471  17.442  0.0782 -0.1066  0.0769
98674W        W41690  17.154  22.978  20.702  0.0600 -0.2169  0.0220
98675W        W41691  24.777  22.972  16.712  0.0466  0.0494 -0.1249
98676W        W41692  29.265   8.007  22.554 -0.0345 -0.1111 -0.1197
98677W        W41693  32.057  20.773  28.538 -0.2281 -0.1146  0.0889
98678W        W41694  15.907  32.099  25.690  0.3208 -0.3682  0.0384
98679W        W41695  13.330  30.696   1.741  0.1691 -0.4059 -0.1880
98680W        W41696  14.210  33.219  18.998  0.2640 -0.2652  0.0166
98681W        W41697  19.299   7.573  23.768 -0.1866  0.2620 -0.1105
98682W        W41698  17.211   7.101  14.758  0.2049  0.1456  0.1479
98683W        W41699  20.438  19.757   1.390  0.1996 -0.0172  0.2387
98684W        W41700   5.306  22.751  27.317 -0.0335  0.0457 -0.2095
98685W        W41701  20.680  27.084  21.665  0.1161  0.1246 -0.0741
98686W        W41702   4.385   7.569  27.998  0.0218  0.2160 -0.1676
98687W        W41703  13.874  20.384  12.834 -0.0525  0.0333 -0.0275
98688W        W41704  31.375   8.743  18.050  0.0966 -0.1297  0.0019
98689W        W41705  10.729  21.194  20.769 -0.0158  0.2756  0.2952
98690W        W41706  17.020  10.921  17.594 -0.2366 -0.2267 -0.0590
98691W        W41707   7.878  34.699  14.357  0.1419  0.2148 -0.0781
98692W        W41708  23.825   4.207  25.896 -0.0663 -0.0540  0.1530
98693W        W41709   1.742   5.976  14.327  0.3662  0.2788  0.2026
98694W        W41710  23.795   7.327  19.720  0.2562  0.0439  0.1866
98695W        W41711  26.749   9.749  16.110  0.2637  0.1285  0.2599
98696W        W41712  13.014  29.373  23.196 -0.0825  0.1078 -0.0252
98697W        W41713  22.101   3.570  19.496 -0.1027  0.0788 -0.1100
98698W        W41714  25.494   6.226  21.651 -0.1237 -0.3034 -0.1216
98699W        W41715  17.953   4.494  21.693 -0.0999 -0.0210  0.0750
98700W        W41716  29.724  11.975  15.896  0.4158  0.2754 -0.2835
98701W        W41717  28.875  29.264  16.802 -0.1527  0.1003  0.4677
98702W        W41718  20.845  31.668  18.386  0.0280  0.0879  0.2182
98703W        W41719  18.867  22.709  25.706  0.1973  0.1445 -0.1964
98704W        W41720  23.072  12.337  18.387 -0.3150  0.2923 -0.0167
98705W        W41721  23.746  14.101  23.030  0.1949  0.0045 -0.3508
98706W        W41722  24.576   3.491   0.358 -0.3373 -0.2141 -0.2688
98707W        W41723  30.972  26.994  27.454 -0.0456 -0.0674 -0.0925
98708W        W41724  26.977   8.049  27.223  0.1597  0.2085  0.2126
98709W        W41725  34.167  32.884  18.551  0.0038 -0.1468 -0.2033
98710W        W41726  13.462   9.022  19.307  0.1647 -0.3117 -0.0432
98711W        W41727  26.714  16.209  13.867 -0.1859  0.1298  0.2090
98712W        W41728  24.077  24.552   3.519 -0.1579  0.1615  0.1398
98713W        W41729  21.006  13.145  14.379 -0.2106  0.1652  0.1732
98714W        W41730  13.594  31.120  17.034  0.3312  0.0468  0.0612
98715W        W41731  26.002   4.867  15.456 -0.1233  0.0297 -0.0368
98716W        W41732  26.606  34.210  19.410  0.1615  0.4312 -0.1084
98717W        W41733  28.086  32.617  27.658  0.2967  0.2832 -0.1018
98718W        W41734  34.467  22.106  26.043  0.2273 -0.1038  0.2002
98719W        W41735  24.843   8.733  18.161  0.0548  0.2321  0.0272
98720W        W41736  13.550   5.014  14.786  0.0934 -0.0394  0.0957
98721W        W41737  18.728   4.262  19.644  0.1066  0.0619  0.0890
98722W        W41738   7.852  12.416  15.814  0.2330  0.2114  0.1724
98723W        W41739  33.894  33.776  23.015  0.1101 -0.1324  0.1299
98724W        W41740  21.466  10.112  14.866 -0.0467  0.1706 -0.0177
98725W        W41741   9.388   2.573  16.579  0.0562 -0.2344 -0.1208
98726W        W41742  21.023   0.221  19.455 -0.0306 -0.1371 -0.1748
98727W        W41743  23.035  30.772  16.954 -0.0427 -0.0251  0.1639
98728W        W41744  34.699   0.571  20.019  0.0635 -0.0788 -0.0537
98729W        W41745   0.657  19.133  15.515  0.0275  0.1250 -0.0697
98730W        W41746  25.449   5.003  22.593 -0.1867 -0.1854  0.1825
98731W        W41747  29.572  23.958  18.150  0.4140 -0.0256 -0.0831
98732W        W41748  26.751  32.317  25.034  0.2387  0.0110 -0.2209
98733W        W41749  19.421   0.744  18.695  0.1682  0.2864  0.4169
98734W        W41750  21.697   9.955  18.057  0.1724  0.0897  0.2357
98735W        W41751  30.466  33.405  17.415 -0.0480 -0.5355  0.0451
98736W        W41752   5.837  11.567  14.310  0.0339  0.2350 -0.2340
98737W        W41753  21.652  33.526  26.294  0.0486  0.2578 -0.0736
98738W        W41754  10.246   0.290  18.628  0.3929  0.0712  0.1117
98739W        W41755  32.361  14.706  23.206 -0.1604 -0.0611 -0.0359
98740W        W41756  28.817  34.085  16.856 -0.0624  0.1798  0.3607
98741W        W41757   2.496   3.053  16.455 -0.0160  0.1377  0.4017
98742W        W41758  25.167   2.022  22.416 -0.4902  0.3559 -0.0347
98743W        W41759  30.131  11.010  22.414 -0.1258  0.0491  0.1621
98744W        W41760  31.528   8.449   2.293 -0.1453  0.1485 -0.1277
98745W        W41761  15.235  10.902  16.233  0.3233  0.1842  0.0623
98746W        W41762   1.564  11.892  24.707  0.1427 -0.2061  0.1067
98747W        W41763   1.083  15.539  22.135 -0.0841  0.2032  0.1922
98748W        W41764   8.248  29.427  25.399  0.0893  0.2525  0.4531
98749W        W41765  26.455  24.573  15.223 -0.1614 -0.4740  0.2112
98750W        W41766  18.470   2.278  17.797  0.1249  0.1531 -0.1533
98751W        W41767  23.402   0.961   3.305 -0.3543  0.0721  0.2577
98752W        W41768  16.640  10.494  15.939 -0.0832  0.0034  0.1955
98753W        W41769  23.346  33.591  15.732  0.1803 -0.2435  0.0278
98754W        W41770  33.426   1.178  23.612  0.2646  0.2560  0.0125
98755W        W41771   7.111  11.731  18.262  0.0190  0.1322 -0.2131
98756W        W41772  15.169  27.468  14.789 -0.0304  0.1392 -0.0061
98757W        W41773  12.296   5.469  14.378  0.0693 -0.0799  0.0494
98758W        W41774  24.726  20.716  22.265 -0.0285 -0.0884  0.0429
98759W        W41775  15.052   8.806  17.724  0.0147  0.0161  0.0020
98760W        W41776  19.918  31.609  27.583  0.0375 -0.3236 -0.0062
98761W        W41777  22.084   0.348  16.868  0.1141  0.1657 -0.1782
98762W        W41778  27.503  22.379  14.834 -0.1499 -0.1169  0.0047
98763W        W41779  33.754  34.186  16.846 -0.0689 -0.2242 -0.2582
98764W        W41780  28.085  13.214  15.217 -0.1668  0.0797 -0.2016
98765W        W41781  32.737  32.421   0.715 -0.2050 -0.0667 -0.1100
98766W        W41782  14.088  27.784  19.752  0.1356 -0.3231 -0.0239
98767W        W41783  10.898  34.171  15.362 -0.1021 -0.2056 -0.0603
98768W        W41784  28.594  28.967  16.450  0.0468 -0.0984 -0.0170
98769W        W41785  15.025  18.742  20.316 -0.0927 -0.3318 -0.2503
98770W        W41786  25.952   5.253  21.476  0.0548 -0.3877  0.1414
98771W        W41787  33.563  21.924  16.330  0.1558 -0.1224 -0.4438
98772W        W41788  23.089   4.756  28.047  0.2256 -0.0637  0.1511
98773W        W41789  25.124   9.485  17.491 -0.2813 -0.0836 -0.2576
98774W        W41790   9.371  34.053  20.822  0.2546  0.0213  0.0085
98775W        W41791  13.595  34.112  23.914  0.2184 -0.0387  0.1690
98776W        W41792  28.151   3.792  27.084  0.4777 -0.1878  0.0827
98777W        W41793  14.432  32.264  18.327  0.1567  0.1474 -0.0490
98778W        W41794  29.944  20.462  16.783  0.2595  0.0454  0.1533
98779W        W41795  27.103   8.418  21.325  0.2763  0.0744 -0.2370
98780W        W41796  28.899  14.542  28.048  0.0004 -0.1088  0.1489
98781W        W41797  27.511   7.633  22.538  0.0460 -0.1289 -0.0800
98782W        W41798  23.101   7.724   5.704 -0.2336  0.3734  0.2735
98783W        W41799  28.166   4.288  21.494  0.2416  0.2202 -0.0916
98784W        W41800  23.933  29.371  18.034  0.0106 -0.4354  0.0167
98785W        W41801  13.054  25.739  16.516  0.1170  0.1975  0.1597
98786W        W41802   3.592  31.867  20.644 -0.0164 -0.2460  0.1321
98787W        W41803  19.318   9.494  17.478 -0.0193  0.1163 -0.1126
98788W        W41804  13.435   4.019  26.768 -0.4124  0.1109 -0.0471
98789W        W41805  34.375  17.370  20.071  0.2004 -0.2884  0.0021
98790W        W41806  29.415  27.453  27.072 -0.1252 -0.0758 -0.0236
98791W        W41807  15.999  28.780  19.205 -0.3540 -0.1221  0.0154
98792W        W41808  16.388   1.452  14.403  0.0193  0.3331  0.4307
98793W        W41809  20.141  29.297  16.199 -0.1156 -0.0379 -0.0479
98794W        W41810  32.525   1.363   2.516  0.3373 -0.0573 -0.0947
98795W        W41811  17.687  22.963  13.605 -0.3120 -0.0401 -0.0408
98796W        W41812  22.802  32.652  28.795 -0.0849 -0.0695 -0.3372
98797W        W41813   1.897  28.635  21.340 -0.0167 -0.0644  0.2941
98798W        W41814  28.933  30.324  20.138  0.0223 -0.2641  0.0945
98799W        W41815  15.325  24.749  16.389 -0.0493  0.1453 -0.0642
98800W        W41816  23.641   9.258  20.393  0.0629  0.0596  0.2095
98801W        W41817  12.373   8.818  20.855 -0.2369  0.0293  0.2203
98802W        W41818  33.927   8.630  18.016  0.1935  0.0298  0.1013
98803W        W41819  27.970   2.024  23.359  0.0448 -0.0446  0.0732
98804W        W41820  14.702   5.465  19.129 -0.0417  0.0300 -0.2762
98805W        W41821   1.854  13.082  21.640 -0.0470  0.0558  0.1147
98806W        W41822  18.048   7.767  23.837 -0.1516  0.4373  0.0136
98807W        W41823  25.200  28.257  28.039  0.0413  0.0946  0.0160
98808W        W41824  26.191   4.207  16.654  0.0460 -0.0582  0.2418
98809W        W41825  21.060  30.149  19.491 -0.1909  0.1427 -0.0266
98810W        W41826  20.216   5.482  14.745 -0.0122 -0.0504 -0.0970
98811W        W41827  26.007   2.211  21.769 -0.1428  0.1629 -0.2082
98812W        W41828  27.920  23.648  27.123 -0.1824 -0.1160  0.5156
98813W        W41829  14.528  33.027   0.512 -0.1071  0.0224 -0.1607
98814W        W41830  25.246   6.751  16.759  0.0071 -0.2961  0.4808
98815W        W41831  19.984  26.101  21.213  0.0502 -0.0969  0.4308
98816W        W41832  28.369  31.938  21.053 -0.3907  0.2499 -0.1619
98817W        W41833  21.340  33.901  17.983 -0.1288 -0.1203 -0.2047
98818W        W41834  21.389   9.282  27.594 -0.1543  0.1501 -0.1154
98819W        W41835  15.590   7.823  18.765  0.4130  0.0537  0.2358
98820W        W41836  22.413   0.184   1.768 -0.1090 -0.3381 -0.2694
98821W        W41837  17.918  14.751   5.722 -0.1581  0.1712  0.2283
98822W        W41838  25.406  28.690  28.350  0.2213 -0.3972  0.1752
98823W        W41839  32.548  16.472  25.134  0.0277  0.0511 -0.3785
98824W        W41840  26.184  20.308   5.681  0.1192 -0.2144 -0.1963
98825W        W41841  12.963  11.258  18.511 -0.1536 -0.4006  0.0402
98826W        W41842  13.705   2.079  17.447 -0.2227  0.1117 -0.0290
98827W        W41843  32.478   0.970  20.385  0.1403  0.2477  0.1048
98828W        W41844  26.780   5.359  15.845 -0.3072 -0.0141 -0.1432
98829W        W41845  16.587   2.102   8.610  0.0823  0.2004 -0.0202
98830W        W41846  19.213  12.441  16.865  0.1316  0.3275  0.0968
98831W        W41847  28.504   8.200  27.282  0.1167  0.0550  0.1252
98832W        W41848  16.699  34.021  23.589 -0.0292  0.2962  0.0186
98833W        W41849  20.597  31.232  17.413 -0.0421  0.0841  0.0593
98834W        W41850  20.435   4.404  18.349 -0.0752 -0.0775  0.0939
98835W        W41851  24.855   4.947  21.460 -0.0362 -0.5513  0.3094
98836W        W41852  25.891  31.502  22.922 -0.1345 -0.0267  0.3363
98837W        W41853  16.943  20.474  14.801 -0.2417 -0.2235  0.3232
98838W        W41854  20.206  20.446  27.875  0.1611 -0.0089  0.2645
98839W        W41855  15.490  25.394  27.152 -0.0667 -0.4126 -0.1080
98840W        W41856  31.678   3.741  17.934 -0.1258  0.1201 -0.1480
98841W        W41857  21.550  32.700  15.221 -0.2513  0.1333  0.0530
98842W        W41858  29.237  25.587  28.326 -0.2064 -0.0270  0.1107
98843W        W41859  22.773   8.295  17.066 -0.0986 -0.1601 -0.3671
98844W        W41860  23.221  26.735  25.359  0.0695  0.0680  0.3539
98845W        W41861  32.245   5.319  22.479 -0.0391 -0.0078 -0.0285
98846W        W41862  10.676  32.469  25.575  0.1867  0.1159 -0.1005
98847W        W41863  11.505   2.091  25.256  0.0439 -0.3675  0.1908
98848W        W41864  26.229   7.045  17.108  0.2420 -0.1529 -0.0739
98849W        W41865  29.360  14.680  17.690 -0.0038  0.1565  0.3789
98850W        W41866  20.512   5.862  16.870 -0.2558  0.1656 -0.0980
98851W        W41867  18.627  12.718  21.053 -0.1210 -0.1079  0.2443
98852W        W41868  10.323   6.146  19.712 -0.0657 -0.0122 -0.1517
98853W        W41869  10.830   1.960  28.195 -0.0731 -0.1273  0.1587
98854W        W41870  14.352   1.162  23.897  0.0259 -0.1930  0.0676
98855W        W41871  20.103  20.505  24.920 -0.1563 -0.0935 -0.2008
98856W        W41872  25.136  25.962  27.289 -0.2326  0.0588 -0.0744
98857W        W41873  20.948   7.856   2.137  0.1047 -0.1043  0.1399
98858W        W41874   8.980  34.716  17.138  0.0335 -0.1125 -0.2605
98859W        W41875  33.765  29.603  20.052  0.0306 -0.0935  0.3085
98860W        W41876   0.261   0.239  20.835  0.0234  0.2018  0.0871
98861W        W41877  27.665  24.842  19.935 -0.0292 -0.1170 -0.0255
98862W        W41878  27.793   3.439  26.845 -0.0083 -0.2206 -0.0162
98863W        W41879  14.704  12.394  14.903 -0.0668 -0.0262 -0.0809
98864W        W41880  30.654   0.175  20.706  0.0943 -0.0696  0.1192
98865W        W41881  25.722   3.774  24.376 -0.0976  0.2199 -0.0819
98866W        W41882   1.341  13.705   0.631  0.0515  0.3406 -0.3043
98867W        W41883   0.034  33.110   0.381 -0.0868  0.0923 -0.1693
98868W        W41884   9.405   0.855  16.773  0.1318 -0.2544  0.1096
98869W        W41885   3.632   6.592  15.439 -0.1525 -0.1836  0.1530
98870W        W41886  22.919  33.408  23.261  0.3173 -0.2231 -0.0580
98871W        W41887  26.076  32.222   5.578  0.0865 -0.1104  0.0327
98872W        W41888   7.930  20.811  22.942  0.0897 -0.0411 -0.0829
98873W        W41889  33.229  33.936  16.351 -0.2000 -0.1855  0.0729
98874W        W41890  19.374  33.193  14.321 -0.1704  0.0921 -0.3056
98875W        W41891  29.643  31.479  28.013 -0.0362  0.0477 -0.0478
98876W        W41892   2.128   1.129  18.878 -0.0739  0.2517  0.3502
98877W        W41893  19.904  11.442  24.868 -0.1950  0.0797  0.0540
98878W        W41894   6.754  22.747  16.502  0.2640 -0.0379 -0.0538
98879W        W41895  23.793   1.298  15.416  0.1206 -0.0278 -0.3093
98880W        W41896  15.311   0.301  23.474 -0.0910  0.0493 -0.1671
98881W        W41897  16.541  27.629  15.953  0.3375  0.0696 -0.0406
98882W        W41898  17.731   6.477  17.735 -0.0800  0.1030 -0.3834
98883W        W41899   0.968  30.439  23.158 -0.0776 -0.0185 -0.2455
98884W        W41900  11.625  24.944  26.687  0.1856  0.1010  0.0770
98885W        W41901  32.861  11.821   6.959 -0.0477 -0.4113 -0.2366
98886W        W41902  21.428   5.856  15.942 -0.0850 -0.1629 -0.1885
98887W        W41903  33.523  31.560  23.265  0.0449  0.1531  0.2776
98888W        W41904   3.557   8.095  17.195 -0.1150  0.2629  0.3195
98889W        W41905  13.698  27.841  13.883 -0.0311 -0.0085  0.1337
98890W        W41906  34.268  12.541  16.771 -0.1953  0.0325 -0.2641
98891W        W41907  27.739   9.394   0.110  0.0659 -0.0236 -0.0092
98892W        W41908  18.647   0.080  23.766  0.2825  0.0674  0.0392
98893W        W41909  21.184   8.425  26.069 -0.1190  0.4022 -0.2554
98894W        W41910  31.053  24.805  26.146 -0.0736 -0.1475 -0.2218
98895W        W41911   0.057  34.315  18.770  0.1652 -0.2278  0.1706
98896W        W41912   0.281   5.220  20.506 -0.0764  0.1211  0.1451
98897W        W41913  34.190  19.501  24.364 -0.0726 -0.2244  0.3126
98898W        W41914  29.765   1.327  22.005 -0.3256 -0.2884  0.0434
98899W        W41915  13.951  26.052  21.903 -0.2475 -0.2290  0.1325
98900W        W41916  27.309  30.201   0.594 -0.0588  0.3428  0.1639
98901W        W41917  14.394  24.897  27.588  0.3206  0.3792  0.2082
98902W        W41918  33.821  27.651  20.366  0.0397 -0.2184  0.3457
98903W        W41919  32.194  32.341  16.882  0.0833 -0.2388 -0.2078
98904W        W41920  32.319  29.457  17.653  0.2783  0.0920  0.5355
98905W        W41921  18.730   6.244  14.651 -0.0595 -0.0051  0.1118
98906W        W41922  13.814  16.419  24.357  0.2911  0.2543  0.3265
98907W        W41923  32.014  20.227  15.319 -0.2216  0.1617  0.1709
98908W        W41924  18.620   0.016   5.355  0.6402 -0.1862 -0.0656
98909W        W41925  26.566  10.730  17.532 -0.1960  0.0963  0.1053
98910W        W41926   9.233  16.824  12.778 -0.3051  0.2199 -0.1883
98911W        W41927  16.914   6.860  26.066  0.0655 -0.3834  0.3478
98912W        W41928   2.025  13.128   0.860 -0.0134 -0.0460  0.1898
98913W        W41929  16.825   1.501  16.431 -0.5231  0.0242  0.0402
98914W        W41930  19.870  29.353  16.698 -0.0372  0.2277  0.0164
98915W        W41931   9.906   6.855   1.419 -0.0669 -0.0519  0.2136
98916W        W41932  13.270   0.000  24.165  0.1690  0.1265 -0.0226
98917W        W41933  16.479   8.748   5.489  0.0321 -0.2494  0.3780
98918W        W41934  25.537  34.587   9.143 -0.1559 -0.0135 -0.2157
98919W        W41935  26.432  28.093  15.432 -0.5035  0.3464 -0.3933
98920W        W41936   0.227   3.631   8.211 -0.2268 -0.1982 -0.2764
98921W        W41937   9.907   0.036  27.221  0.1891  0.2604  0.0993
98922W        W41938   3.435   0.286  24.302 -0.0164  0.2102  0.1334
98923W        W41939  30.992   9.342  19.036  0.2102  0.0368  0.2681
98924W        W41940  21.140  11.950  16.587  0.2757  0.2171 -0.1952
98925W        W41941  23.931  19.647  20.200 -0.1037  0.1520  0.0682
98926W        W41942   7.817   5.806   3.864 -0.0126  0.1072 -0.1637
98927W        W41943  18.038  30.619  21.245  0.0485 -0.2056  0.0902
98928W        W41944  17.586  33.243  15.516  0.1189  0.0903  0.3648
98929W        W41945  13.826  33.871  17.133 -0.2252  0.0064 -0.0318
98930W        W41946  22.243  20.636  26.937  0.1169  0.2503 -0.1466
98931W        W41947   2.361   7.780  14.779  0.0442 -0.2187 -0.1462
98932W        W41948  29.765  10.741  16.211 -0.1284 -0.1226  0.0857
98933W        W41949  18.078   7.999  25.806  0.2253  0.0787 -0.0249
98934W        W41950  30.316  11.278  17.440  0.1775 -0.1981 -0.1373
98935W        W41951   7.988  33.301  21.438  0.0807  0.1286  0.1756
98936W        W41952  23.050  33.378  27.533 -0.0314 -0.0600 -0.0630
98937W        W41953  12.360  18.371   7.802 -0.1679  0.0003  0.1707
98938W        W41954   6.860  25.818  24.787  0.0654  0.1455  0.3263
98939W        W41955  27.401  29.715   2.510  0.0513  0.1697 -0.2370
98940W        W41956  21.807   0.310  22.213 -0.1518  0.1568 -0.0713
98941W        W41957  22.579  28.792  14.871  0.2224 -0.2489 -0.0103
98942W        W41958  22.049  28.756  17.883 -0.1627 -0.0981  0.2702
98943W        W41959  34.193   0.714  21.224  0.0340 -0.1705  0.1648
98944W        W41960   3.291  12.754  20.997 -0.0218  0.2251 -0.0338
98945W        W41961  28.858   8.022  20.959  0.0151 -0.1526 -0.2410
98946W        W41962  14.760  15.717  26.409  0.2817  0.2343 -0.1636
98947W        W41963   2.260   7.480  22.757 -0.1192 -0.1776 -0.1099
98948W        W41964   8.427  34.020  19.141 -0.1653  0.0022  0.0884
98949W        W41965   2.440   7.006   9.015 -0.0489  0.2325  0.0397
98950W        W41966   0.793   3.637  17.986 -0.1709 -0.1185 -0.0943
98951W        W41967  10.644   7.641  18.145 -0.0588  0.4426 -0.1640
98952W        W41968  15.232   9.278  18.616  0.1395 -0.0771 -0.0930
98953W        W41969  18.960  24.250   2.938 -0.1350 -0.2524  0.0168
98954W        W41970  15.435   4.889  27.605  0.0240 -0.2573 -0.1626
98955W        W41971  26.828  16.034  15.916  0.0926  0.1128 -0.2580
98956W        W41972  15.068  33.539   1.895 -0.2056  0.0660 -0.3362
98957W        W41973  23.788  25.619  20.787  0.1963 -0.1700  0.2737
98958W        W41974  30.440  18.888   4.274 -0.0954 -0.0837  0.1430
98959W        W41975  29.648  20.808  15.493  0.1501 -0.2149  0.0283
98960W        W41976  31.272   5.008  14.769 -0.3372 -0.2138  0.0555
98961W        W41977  23.502  11.912   1.594  0.0174 -0.1236  0.0716
98962W        W41978  32.895   1.801  20.333  0.1636 -0.0798  0.1394
98963W        W41979   0.878   4.203  21.267 -0.1441 -0.1733 -0.1439
98964W        W41980   2.632  28.032   2.853 -0.0689 -0.0832 -0.0738
98965W        W41981  27.142  11.288  16.552 -0.2998  0.0691  0.5186
98966W        W41982   2.971  27.886  22.263 -0.0904 -0.0209  0.0575
98967W        W41983  24.393  11.135  18.210 -0.2275 -0.2300  0.0919
98968W        W41984   5.961  15.311  25.655 -0.1500  0.0346  0.1740
98969W        W41985  25.296  20.810  17.283  0.1693  0.3636 -0.1321
98970W        W41986  17.082   0.998  18.554 -0.0336  0.2046 -0.1614
98971W        W41987  29.729   9.791   0.302 -0.1236  0.0381 -0.2606
98972W        W41988   5.991  15.344  19.631  0.0238  0.1724  0.1623
98973W        W41989  16.056  32.448  14.878  0.0196  0.0709 -0.2792
98974W        W41990   4.236  28.965  14.389  0.2156 -0.1827 -0.1284
98975W        W41991  13.753   8.658  21.241 -0.0105  0.0973  0.2795
98976W        W41992   2.498   9.118  18.580 -0.0588  0.2956 -0.1210
98977W        W41993  25.791   1.348  15.546  0.2240 -0.0705 -0.1546
98978W        W41994  26.282   1.029  24.312  0.0198 -0.0983  0.0699
98979W        W41995  22.407  10.803  18.654 -0.3068 -0.2046  0.2952
98980W        W41996  20.021   4.431   4.012 -0.1322  0.1954  0.0241
98981W        W41997  10.920  34.140   1.664  0.1362 -0.0490  0.2023
98982W        W41998  15.258  29.137   9.616 -0.2623  0.0042 -0.2507
98983W        W41999  25.064  26.862  20.527  0.1693 -0.3613 -0.0392
98984W        W42000  33.117  22.852  22.299  0.2070 -0.0050 -0.1844
98985W        W42001  23.251  32.033  26.588  0.0541  0.1984  0.1155
98986W        W42002  25.824  12.371  19.457 -0.3400  0.0328  0.0406
98987W        W42003  16.545   4.208  26.102  0.2107  0.1119 -0.1755
98988W        W42004   1.763   1.528  15.684  0.1215 -0.2540 -0.1654
98989W        W42005  28.024  12.002  16.449  0.3568 -0.0182 -0.1000
98990W        W42006  25.067  22.334  27.124  0.0283  0.0559  0.2031
98991W        W42007  10.663  15.526  15.393  0.1020 -0.1297  0.1734
98992W        W42008  22.244   3.297  25.056  0.0527 -0.0332  0.3824
98993W        W42009  19.285   7.239  14.153 -0.2787  0.0509  0.1557
98994W        W42010  13.233  19.439  16.028 -0.2216 -0.3951 -0.0698
98995W        W42011   4.682   9.890  25.993 -0.0988 -0.1758  0.0686
98996W        W42012  23.873  16.643  13.484 -0.0585 -0.0312 -0.0820
98997W        W42013  25.974  27.255  16.140  0.2741 -0.1332 -0.0615
98998W        W42014  30.576   8.891  22.717  0.0299 -0.0114 -0.1552
98999W        W42015  23.683  12.001  22.140  0.0200  0.1372 -0.0174
99000W        W42016  16.560  10.152  17.877 -0.0308 -0.1951 -0.1523
99001W        W42017  26.476  33.433  22.009  0.0324 -0.0364  0.1613
99002W        W42018  28.371  15.624  20.156  0.0868  0.0709  0.2417
99003W        W42019  25.870  11.859  27.902 -0.0294 -0.2578  0.1637
99004W        W42020  32.875  33.093  24.416 -0.3158 -0.1898 -0.0407
99005W        W42021  25.163   9.797  16.362  0.1043  0.0761  0.2035
99006W        W42022  23.983  23.060  16.182 -0.0832  0.0360  0.2154
99007W        W42023  30.908   0.693  16.650 -0.1798 -0.0972  0.0515
99008W        W42024  30.459  30.783  24.032 -0.2494 -0.4427 -0.2481
99009W        W42025  21.744   3.516  16.593  0.0589  0.0543 -0.0709
99010W        W42026  13.667  30.943  19.854  0.2797  0.1026 -0.0608
99011W        W42027   1.574  22.788  17.964  0.3057  0.0484 -0.0944
99012W        W42028  25.194  13.291  19.150  0.2803 -0.1726 -0.1491
99013W        W42029  13.824   1.023  21.784  0.1905 -0.1425 -0.1014
99014W        W42030  22.619   0.262  16.826  0.1025 -0.0844 -0.0764
99015W        W42031  25.907   1.566   0.820  0.1492  0.0169 -0.0419
99016W        W42032  16.194  14.823   0.379 -0.0932 -0.0682 -0.1150
99017W        W42033  23.660  32.360  25.756  0.0936  0.1245 -0.0069
99018W        W42034  22.064   7.345   1.366 -0.0448  0.3425  0.3498
99019W        W42035   3.258  23.995  22.491 -0.0504  0.0442 -0.0139
99020W        W42036   3.509   0.056  18.870 -0.0852 -0.1879  0.1290
99021W        W42037  17.974   0.099  24.501 -0.1009 -0.1817  0.3276
99022W        W42038  28.705  19.699  20.323 -0.0988  0.0468  0.2291
99023W        W42039   1.708   2.501  22.259  0.1164 -0.0783 -0.5946
99024W        W42040  11.819  34.421  17.988 -0.4283 -0.0448 -0.0286
99025W        W42041  26.183  34.554  11.243  0.0159 -0.1159 -0.5007
99026W        W42042   7.172  22.658  18.532 -0.0526  0.0067 -0.1973
99027W        W42043  27.670  30.814  18.567  0.2068  0.0122 -0.1189
99028W        W42044   4.867   4.701  27.670 -0.0980  0.1536  0.2685
99029W        W42045  16.806  31.677  26.581  0.1226  0.1288  0.2910
99030W        W42046  23.188  13.518  13.013 -0.1505 -0.2368 -0.0800
99031W        W42047  28.326   6.636   6.182 -0.2468 -0.0858 -0.1766
99032W        W42048  26.496  25.717   4.955 -0.2164  0.1467 -0.1889
99033W        W42049  26.204  26.734   1.628  0.1410 -0.1550 -0.0321
99034W        W42050   3.767  30.165  25.599 -0.1408 -0.0507  0.0001
99035W        W42051  14.169   3.912  25.101 -0.1901  0.1041 -0.4672
99036W        W42052   5.332  10.952  19.565 -0.2169 -0.0477  0.1320
99037W        W42053  11.155  24.061  22.417 -0.1518 -0.0800  0.3525
99038W        W42054  18.332   0.108  16.459 -0.3087 -0.0202  0.0467
99039W        W42055  22.808   4.000  25.537  0.0436  0.1688 -0.3164
99040W        W42056  11.586   6.160  19.086 -0.3009  0.2729 -0.1301
99041W        W42057  33.199  22.190  21.385 -0.1078 -0.1183  0.0539
99042W        W42058  11.857  28.367  22.418 -0.3079  0.2449 -0.1590
99043W        W42059  30.966   6.767   2.824 -0.0300 -0.1465  0.2392
99044W        W42060  23.668   1.248  23.844 -0.0048  0.3326  0.1581
99045W        W42061  31.517   9.746   1.248  0.0758  0.0079 -0.0443
99046W        W42062  28.828   0.866  23.757 -0.5069  0.3562  0.2053
99047W        W42063  21.806  17.115  26.269  0.0037 -0.2126 -0.0131
99048W        W42064   9.993   7.304  24.035 -0.1326 -0.2292 -0.2706
99049W        W42065  27.143  10.919  23.661 -0.1258  0.0867 -0.1259
99050W        W42066  31.189   1.513  16.691 -0.3237 -0.0276  0.1228
99051W        W42067  12.588  10.790  24.233 -0.0391  0.1426 -0.0014
99052W        W42068  16.610   4.644  20.446  0.0572 -0.3085 -0.1518
99053W        W42069   3.920  10.550  16.176 -0.0576  0.0260 -0.3004
99054W        W42070  26.742  31.538  16.789  0.2696  0.3091 -0.0117
99055W        W42071  25.992   2.041  22.323  0.0292  0.1517  0.2049
99056W        W42072  23.866   4.906  26.279  0.1953  0.1046  0.0796
99057W        W42073  25.210  33.525  26.344  0.0685 -0.0367  0.2307
99058W        W42074  28.984  23.022  17.065 -0.1446  0.0320  0.2042
99059W        W42075  26.564  26.720  24.851  0.2436  0.0737  0.0175
99060W        W42076  24.270  34.503  25.367 -0.2128  0.0285  0.0827
99061W        W42077   1.629  13.198  16.245  0.1569  0.2182 -0.1614
99062W        W42078   5.139  31.014   5.732 -0.1627  0.4067  0.0922
99063W        W42079  23.080  10.598  22.781 -0.0443  0.0418 -0.1272
99064W        W42080  27.874  31.504   3.571  0.3261  0.2454 -0.0421
99065W        W42081  29.680  32.175  19.211 -0.0439  0.4750  0.2341
99066W        W42082  23.169   7.980   3.736 -0.0244  0.1787  0.4531
99067W        W42083  23.504   0.521  28.230 -0.2006  0.0242 -0.0325
99068W        W42084  14.343  30.877  29.093 -0.1091  0.0610 -0.0891
99069W        W42085  24.796  30.423  17.691  0.2063 -0.1105  0.1314
99070W        W42086  30.353  31.410  27.522  0.1317 -0.3188 -0.1339
99071W        W42087  14.116  33.340  27.412 -0.1529  0.0446 -0.1629
99072W        W42088  34.070   4.786  21.150  0.0852  0.0437  0.1220
99073W        W42089  22.353  25.836  16.763  0.0762  0.0176 -0.0822
99074W        W42090  15.410  33.048  21.156  0.2573 -0.2634 -0.0129
99075W        W42091  25.896  29.039  24.096  0.0674 -0.0601  0.2029
99076W        W42092  33.715   5.047  27.444  0.2020 -0.0429  0.2196
99077W        W42093  11.888  19.025   6.333 -0.1199  0.2061 -0.0243
99078W        W42094  24.462  33.870  21.901 -0.4344  0.1310 -0.2944
99079W        W42095  25.864  34.773   3.771 -0.1673  0.3841 -0.1134
99080W        W42096   7.380  23.184  19.088 -0.0573  0.0400 -0.1810
99081W        W42097  31.041  20.655  22.787 -0.0775 -0.0956 -0.1628
99082W        W42098   1.840  11.044  17.855 -0.4650 -0.1435 -0.3374
99083W        W42099  11.722  29.555  17.829  0.1320 -0.3809 -0.0624
99084W        W42100  22.301  12.740  19.560 -0.1017  0.2936  0.0731
99085W        W42101  23.878  28.756   2.081  0.0642 -0.1549  0.2231
99086W        W42102  13.866  25.470  21.913 -0.1882  0.0135 -0.0523
99087W        W42103   4.724  23.236  20.203 -0.2970 -0.0935 -0.1175
99088W        W42104   2.424   9.242  23.339  0.1029 -0.4621 -0.1733
99089W        W42105   5.578  14.070  18.908 -0.1943  0.2900  0.1283
99090W        W42106  27.144  13.412  14.449 -0.3458  0.2895 -0.3227
99091W        W42107  31.015  33.780  18.337  0.0485  0.3057  0.1590
99092W        W42108  16.912  34.527  22.915 -0.1095  0.0713  0.3546
99093W        W42109  11.531  11.223  25.279  0.2588 -0.2186  0.0687
99094W        W42110  19.753   5.953  23.200 -0.0993  0.0382  0.0445
99095W        W42111  30.685   2.960  20.866  0.0066 -0.0891 -0.0322
99096W        W42112  16.657  10.373  23.435  0.0460  0.1641  0.1617
99097W        W42113  28.004  13.282  17.450 -0.1880  0.1824  0.0951
99098W        W42114  25.111  26.259  17.645 -0.0918  0.0213 -0.3093
99099W        W42115  20.944  29.909  27.962 -0.0001 -0.0373  0.0292
99100W        W42116  19.935   3.098  19.906  0.6424 -0.1945  0.1431
99101W        W42117   5.201  28.735  18.551  0.0548  0.4958 -0.3026
99102W        W42118  29.392   1.408  28.485  0.1191  0.1115 -0.0546
99103W        W42119  30.813   4.952  27.185 -0.1323  0.0732  0.3967
99104W        W42120  30.078  22.167  15.913 -0.0030 -0.4030 -0.1019
99105W        W42121  26.825   8.712  19.433  0.1215  0.3557 -0.0673
99106W        W42122  27.510  28.901  15.596  0.0421 -0.0186  0.0865
99107W        W42123  11.689   9.113  26.556 -0.0785  0.4099 -0.0980
99108W        W42124  27.979  30.756  18.006 -0.0267 -0.1609  0.1703
99109W        W42125   9.859   5.494  21.723  0.1148 -0.2303 -0.6295
99110W        W42126  15.128  17.937  13.840 -0.0091  0.0181  0.2177
99111W        W42127   5.934  31.819  22.251  0.3378 -0.1313  0.1382
99112W        W42128  27.692  17.849  26.299 -0.3220  0.2259  0.1335
99113W        W42129  12.898   3.278  21.713  0.2840 -0.2568 -0.4259
99114W        W42130   5.184   2.229  23.312  0.1235  0.0757 -0.2418
99115W        W42131   2.313  10.111  19.406  0.3017 -0.2380  0.3318
99116W        W42132  12.985  20.315  20.502  0.2454  0.1521  0.1206
99117W        W42133  22.777  18.480  27.306 -0.0087  0.5492 -0.0896
99118W        W42134  25.741  31.084   7.486  0.1812 -0.1571 -0.1345
99119W        W42135   6.789  25.072  16.345  0.2423 -0.4118 -0.0083
99120W        W42136   1.873  31.903   0.792 -0.3803  0.1935  0.1703
99121W        W42137  33.232   6.568  16.949 -0.1772 -0.1406  0.0989
99122W        W42138   3.709  19.729   8.800  0.0468 -0.1408  0.1094
99123W        W42139  20.464  34.039  21.559 -0.2657  0.2539 -0.1184
99124W        W42140  19.419  24.965  21.037 -0.0052 -0.1516 -0.2365
99125W        W42141  25.617  12.650  17.706  0.1286  0.0928  0.0135
99126W        W42142  21.102  23.284  16.302 -0.0944 -0.0775  0.1136
99127W        W42143   8.599   4.885  23.840  0.2257 -0.2463  0.1161
99128W        W42144  31.888  31.961  23.596  0.0901 -0.1730 -0.1585
99129W        W42145   7.747  10.988  19.277 -0.1154 -0.0252 -0.2899
99130W        W42146  23.167   1.665  29.215 -0.0980 -0.1899  0.2011
99131W        W42147  31.022  32.854  27.416  0.0348  0.1093  0.2516
99132W        W42148  10.201   2.481  21.062  0.1894  0.1263 -0.0433
99133W        W42149   2.326  29.578  22.412  0.1689 -0.2469  0.1895
99134W        W42150  25.422  16.992  18.609 -0.0037  0.0278 -0.2129
99135W        W42151  16.160   1.142  21.633  0.2156 -0.0008 -0.1267
99136W        W42152  18.997   5.487  16.127 -0.0838 -0.0195  0.0282
99137W        W42153   0.980  24.737  17.706  0.2879  0.0523 -0.1042
99138W        W42154  13.547  32.995  16.593 -0.1016  0.2914 -0.3032
99139W        W42155  33.871  29.905  15.478 -0.1879 -0.0034  0.0354
99140W        W42156  11.257  28.161  19.299  0.2568 -0.0557  0.0212
99141W        W42157  31.159  14.183   6.947  0.4343 -0.0155  0.2295
99142W        W42158   2.851   8.540  16.719  0.0788  0.2081  0.0629
99143W        W42159   8.618   3.180  21.795 -0.0826  0.2831  0.2281
99144W        W42160  10.281   1.413   0.378 -0.0902 -0.4118  0.1261
99145W        W42161  25.839   6.674  20.743 -0.2568 -0.3126  0.0247
99146W        W42162  21.742  18.004  23.286 -0.0554 -0.0140  0.0452
99147W        W42163  33.865  34.721  25.092  0.0150  0.0438 -0.1704
99148W        W42164  29.502   4.076   5.377 -0.4432  0.0755 -0.3880
99149W        W42165  27.369   3.464  18.198  0.1344  0.2723 -0.0080
99150W        W42166   1.047   5.145   0.185  0.0691  0.1500  0.0118
99151W        W42167  25.229   7.291  15.412  0.0678  0.3168 -0.3807
99152W        W42168  24.727  31.172  15.531  0.1068 -0.1436  0.0110
99153W        W42169   1.571  15.999  17.976  0.0045  0.1870 -0.1851
99154W        W42170  10.113  20.298  20.596 -0.0636 -0.1382  0.0844
99155W        W42171  18.261  11.790  19.669 -0.3653 -0.1130  0.1754
99156W        W42172  14.965  14.571  22.667 -0.0288  0.2969 -0.0016
99157W        W42173   6.612   3.861  14.211 -0.1714 -0.2241 -0.2139
99158W        W42174  21.353  22.528  15.616 -0.3243 -0.0950  0.2150
99159W        W42175  28.830   6.947  27.020  0.0475  0.2647  0.0461
99160W        W42176   9.577  24.989   1.132  0.3212  0.0985  0.1543
99161W        W42177   4.506  21.451  15.628 -0.2847  0.1309  0.0257
99162W        W42178  17.661   4.708  19.231 -0.0705 -0.2332  0.0975
99163W        W42179  10.856  29.746  29.196  0.1213  0.2779 -0.3682
99164W        W42180  22.250   2.720  22.888 -0.4055 -0.2807 -0.1197
99165W        W42181  21.810   9.597  23.877 -0.2426  0.1385  0.1627
99166W        W42182  19.017   1.388   9.048 -0.1655 -0.2806  0.0948
99167W        W42183  28.366  33.371  22.814 -0.1107 -0.0312  0.2087
99168W        W42184  21.383  21.522   2.827 -0.1176  0.1132 -0.0937
99169W        W42185  16.080   6.324   2.274  0.1433 -0.0878  0.2670
99170W        W42186  26.602   5.739  22.225 -0.2037  0.0204  0.2072
99171W        W42187  27.492   6.618  19.501 -0.3523 -0.1518  0.6281
99172W        W42188  22.650  11.098  15.350  0.1730  0.0102 -0.0077
99173W        W42189  20.496   1.026  20.561 -0.0805 -0.0057  0.2330
99174W        W42190   0.013  23.048  25.996 -0.1091 -0.1368  0.0588
99175W        W42191  28.857  26.423  15.718 -0.0524 -0.2062 -0.0171
99176W        W42192  28.759  32.324  18.911 -0.1170 -0.0718 -0.0003
99177W        W42193   6.960  24.722  13.793  0.0845  0.3970 -0.0667
99178W        W42194  33.544  32.766   1.866  0.0976  0.0467 -0.0164
99179W        W42195  18.627   7.270  21.800  0.1834  0.0990 -0.0519
99180W        W42196  30.200   0.925  22.461 -0.1373 -0.2623  0.1403
99181W        W42197  13.813  21.218   0.060  0.1389 -0.0373  0.2638
99182W        W42198  14.982  24.109  14.157 -0.1046  0.4187  0.1867
99183W        W42199   2.474   5.309  17.850  0.0259  0.0482  0.0040
99184W        W42200  30.849   0.112  15.766  0.0401 -0.1375 -0.0849
99185W        W42201  18.969   7.743  16.072 -0.1041  0.0471 -0.3593
99186W        W42202  20.488  30.418   0.123  0.0439  0.1857  0.2874
99187W        W42203  25.427   2.571  21.815 -0.2620 -0.2082 -0.2265
99188W        W42204  23.428  23.741  29.110 -0.1019 -0.0817  0.0772
99189W        W42205  33.334   2.177  15.590 -0.2038 -0.4004  0.1007
99190W        W42206  20.146  31.338  28.355  0.0031  0.0473 -0.0375
99191W        W42207  27.013  10.463  14.802  0.0822  0.1340 -0.2040
99192W        W42208  22.828  12.777  25.276  0.2035 -0.0517  0.0539
99193W        W42209  23.634   6.299  20.136 -0.4007 -0.2537 -0.3310
99194W        W42210  28.054  33.701  23.238 -0.2375  0.2098  0.2840
99195W        W42211  21.241   9.042   0.928 -0.4182 -0.2271 -0.3321
99196W        W42212  27.454   2.422  28.061 -0.0455  0.0839 -0.1335
99197W        W42213  28.167  29.037   4.334  0.2852 -0.0770 -0.1444
99198W        W42214  29.775  26.718  25.333 -0.2062  0.1667  0.2772
99199W        W42215  14.101   9.973  17.732  0.1313 -0.0063 -0.1008
99200W        W42216  28.400  20.476  16.490  0.1022 -0.1078 -0.1213
99201W        W42217  28.240   8.110  28.843  0.1139 -0.3919  0.2554
99202W        W42218  28.764   6.038   2.000  0.0744 -0.1196 -0.1353
99203W        W42219  11.519   7.084  15.902 -0.2205  0.1337  0.2811
99204W        W42220  31.107  12.000  27.818  0.1000 -0.1526  0.0629
99205W        W42221  20.914   1.811  19.039 -0.0765  0.1225 -0.1875
99206W        W42222  28.267  13.781  19.617  0.0729 -0.3462 -0.1474
99207W        W42223  19.365  10.465  29.301  0.2348  0.1161  0.4578
99208W        W42224  20.501  28.719   7.245 -0.0827 -0.3410  0.1829
99209W        W42225   0.100  14.083  25.029  0.1526  0.0818 -0.3417
99210W        W42226  17.051   9.789  27.569 -0.1057  0.0999 -0.1407
99211W        W42227   2.484  22.739  15.515  0.4624 -0.2047  0.2008
99212W        W42228  28.958  30.412  17.836  0.0043  0.1213 -0.0348
99213W        W42229  16.300  25.315  21.002  0.1841  0.1954  0.2632
99214W        W42230  20.544   3.447  27.825  0.0594 -0.3801  0.1249
99215W        W42231   1.128   4.266  18.612 -0.0928 -0.0312 -0.2701
99216W        W42232  12.951  29.840   8.602 -0.3317 -0.1271  0.0982
99217W        W42233  31.113  15.960  22.971 -0.0665 -0.3952  0.2196
99218W        W42234  34.722  10.765  18.203 -0.1327 -0.1201  0.1737
99219W        W42235  18.352   3.066   8.776  0.1387  0.1298 -0.0805
99220W        W42236  24.422   2.431  17.002 -0.0438  0.0363  0.1369
99221W        W42237  32.175  24.624  26.697 -0.4285  0.0895 -0.0587
99222W        W42238  25.392  29.583  16.170  0.1086 -0.3399 -0.0835
99223W        W42239  11.589  28.664  23.639 -0.1196  0.1543 -0.1313
99224W        W42240  25.963  34.655  20.674 -0.0778  0.0196  0.4295
99225W        W42241  28.853  17.861  28.259  0.0592 -0.2515  0.3380
99226W        W42242  16.853   9.455   2.250  0.2172 -0.0428  0.4591
99227W        W42243  14.698   9.043   1.975  0.3958 -0.1497  0.3225
99228W        W42244  19.164   5.923   8.052 -0.3299  0.2603  0.0616
99229W        W42245   1.676   6.594  21.438 -0.0432 -0.0579  0.1237
99230W        W42246  26.807  15.862   8.057 -0.0691  0.0244  0.1332
99231W        W42247  17.676   6.959  14.779  0.3125 -0.2224  0.0308
99232W        W42248  34.515   2.036  24.928  0.1773 -0.0698 -0.1274
99233W        W42249  27.633  34.538  24.570 -0.1028 -0.0443 -0.1300
99234W        W42250  15.829  27.261   6.145 -0.2528  0.0131 -0.1487
99235W        W42251  16.146  25.965  24.506  0.2639  0.4205  0.0366
99236W        W42252  10.735  10.212  23.153 -0.0065  0.0124 -0.0390
99237W        W42253  31.984   6.131  23.513 -0.0013 -0.1155 -0.1736
99238W        W42254  22.761   2.081   7.965 -0.1910 -0.2011 -0.4448
99239W        W42255   6.655  13.726  19.260 -0.2415 -0.1300  0.1107
99240W        W42256  25.894  34.589   5.437 -0.0673  0.2213 -0.1277
99241W        W42257  16.260  33.332  27.572 -0.2023 -0.2693  0.0006
99242W        W42258  19.086   4.480  15.872 -0.1080  0.2423 -0.1080
99243W        W42259  11.037  32.840   4.299 -0.0075  0.1580  0.3475
99244W        W42260  21.067  20.794  25.246  0.0273  0.2216 -0.2179
99245W        W42261   3.556  27.807   4.034  0.1678  0.0877  0.2596
99246W        W42262  17.083   3.256  20.837  0.1787  0.1506 -0.4578
99247W        W42263  23.318  26.560  23.517  0.1054 -0.4894  0.2440
99248W        W42264  10.511  33.129   9.196  0.1638 -0.0978  0.0981
99249W        W42265  32.095   2.355  28.744 -0.3565 -0.1120 -0.0648
99250W        W42266  21.717  23.780  24.556 -0.2074 -0.4303  0.2501
99251W        W42267   8.414   7.429  19.021  0.2565  0.2242 -0.3181
99252W        W42268  29.820   1.087   1.708 -0.0839 -0.0173 -0.0492
99253W        W42269  15.413  32.005  17.835 -0.0884  0.0073 -0.0403
99254W        W42270  19.102  32.007  18.741 -0.0259 -0.0225  0.4259
99255W        W42271   6.995  17.123  23.380 -0.1825 -0.3369 -0.0188
99256W        W42272  10.124  22.254  12.274  0.1236 -0.0354  0.3107
99257W        W42273   2.176   3.387   9.791  0.2635 -0.2094  0.3580
99258W        W42274  15.268  26.618   1.587  0.2664 -0.1641 -0.5022
99259W        W42275  23.000  20.400  20.749 -0.0300 -0.2871 -0.0372
99260W        W42276  16.005  34.188  21.594  0.0942  0.1328  0.4044
99261W        W42277  22.149  27.866   2.817  0.0282  0.2820  0.3640
99262W        W42278  24.379  14.624  23.048 -0.2744  0.1672 -0.3677
99263W        W42279  24.757  32.799  16.497  0.0441  0.0356 -0.0565
99264W        W42280  26.480   6.311  24.446  0.0547 -0.0087  0.3382
99265W        W42281  19.937  17.384  14.646 -0.0397 -0.1931 -0.1242
99266W        W42282  23.031   8.927  21.364 -0.1818  0.2328 -0.0902
99267W        W42283  18.935   4.764  26.312 -0.0890  0.1484  0.0452
99268W        W42284   7.458  32.835  28.463 -0.0369  0.0246  0.1343
99269W        W42285  19.912   6.245   2.224  0.0381  0.0284  0.0981
99270W        W42286   4.001  11.600  25.578 -0.0200 -0.4815 -0.0110
99271W        W42287  20.875  31.306  27.802 -0.0556 -0.0937 -0.3585
99272W        W42288  24.804  10.905  17.423 -0.3311  0.2035  0.3872
99273W        W42289  29.273  30.513   8.914  0.0415 -0.0401  0.0713
99274W        W42290  28.643   8.205   2.748  0.0047 -0.3492 -0.0201
99275W        W42291  17.214  31.634   2.578 -0.0210  0.1737  0.0241
99276W        W42292  27.235   2.765   2.264 -0.2187  0.0041 -0.0905
99277W        W42293  13.401  31.916  22.617 -0.0114 -0.2040 -0.2236
99278W        W42294  20.976   5.490   2.821  0.1548  0.0136  0.1919
99279W        W42295  25.557  30.679   2.425 -0.3970  0.0252  0.1878
99280W        W42296  12.370  33.362  18.719  0.2360 -0.1392 -0.0976
99281W        W42297  25.367  11.891  14.979  0.1495  0.1309  0.0372
99282W        W42298  13.013  28.752  18.581  0.2075  0.1868 -0.1123
99283W        W42299   8.630  27.885   8.104 -0.1419 -0.0975  0.2396
99284W        W42300  12.496  21.156   1.029 -0.1363  0.3222  0.2063
99285W        W42301   4.637  34.492  19.781  0.2259 -0.0169  0.2122
99286W        W42302  24.503   3.334  16.034  0.1038  0.2121  0.2365
99287W        W42303   5.778  16.971  16.088 -0.2028  0.2057 -0.1332
99288W        W42304  21.565  30.762   9.548 -0.0829 -0.1823 -0.1078
99289W        W42305  34.600  33.859  25.065  0.0032  0.1029 -0.2092
99290W        W42306  21.202   2.463  29.072 -0.2061  0.1061  0.2721
99291W        W42307  22.008   6.233  27.576  0.2095  0.1790  0.1865
99292W        W42308  16.430   1.202   3.883  0.3895 -0.1810 -0.2065
99293W        W42309  22.141  16.445  21.468  0.0969  0.0061  0.1200
99294W        W42310  19.080   5.271  17.549  0.2452  0.0102  0.0607
99295W        W42311   2.019  32.136   5.407 -0.2743  0.1312  0.1479
99296W        W42312   2.092   3.425  22.609  0.0069 -0.0608  0.1270
99297W        W42313  10.706  11.066   1.622  0.2744 -0.0974 -0.4920
99298W        W42314  15.251  23.521  27.613 -0.2033  0.0485 -0.0203
99299W        W42315  27.697  29.596  10.633  0.0376  0.1065  0.2915
99300W        W42316  29.130  17.005  15.599 -0.3980  0.0526  0.1179
99301W        W42317   7.063   2.278   3.197 -0.4601 -0.0201 -0.1133
99302W        W42318  13.292   3.163  25.209  0.1975 -0.0860  0.0818
99303W        W42319   7.805  18.408   0.102 -0.1286 -0.0654 -0.0738
99304W        W42320   5.946  34.605  23.790 -0.0443  0.1085  0.2829
99305W        W42321  30.080  18.942   9.927 -0.0242  0.0440  0.0068
99306W        W42322  29.060   1.621   9.589  0.3152 -0.0374 -0.0983
99307W        W42323  33.248  19.571   0.426 -0.2028  0.3175 -0.1687
99308W        W42324  18.668  21.156  13.801  0.0912 -0.2519  0.0545
99309W        W42325  26.781   3.016   2.258 -0.0758  0.0967 -0.2807
99310W        W42326  12.932  25.285   9.563  0.0306  0.2694  0.2198
99311W        W42327  19.653   6.654  29.155 -0.1006  0.0958 -0.1899
99312W        W42328  29.878   1.083  20.177  0.0534 -0.2569  0.1413
99313W        W42329  25.867  33.849  16.377 -0.1452 -0.2172 -0.2114
99314W        W42330   6.178  32.479   3.752 -0.3681  0.2910  0.0315
99315W        W42331  20.789  32.117  22.796  0.0572 -0.0414  0.1777
99316W        W42332  20.280  14.158  14.646  0.2410  0.0307 -0.1531
99317W        W42333   2.266  34.609  24.716 -0.1292 -0.0123  0.3106
99318W        W42334  32.402  30.031  25.686  0.3345  0.0495 -0.0073
99319W        W42335   7.619   3.201   1.441  0.1045 -0.4704  0.3146
99320W        W42336  15.447  34.028   1.069  0.1893  0.2366  0.0173
99321W        W42337   8.401   7.006  15.402  0.1777 -0.0287 -0.1451
99322W        W42338  26.939  26.036  25.608  0.0706  0.0699  0.3202
99323W        W42339  10.997  12.530  21.768 -0.1159  0.2744  0.1068
99324W        W42340  19.318  31.453  17.534  0.0820  0.1026 -0.0366
99325W        W42341  15.018  32.179  17.519 -0.4535 -0.1439 -0.3213
99326W        W42342   1.040  28.624   1.748 -0.0874  0.0241 -0.1493
99327W        W42343  11.321  33.623  29.264 -0.1615  0.0750 -0.2118
99328W        W42344  17.540  24.240  23.688 -0.0729 -0.3113 -0.1126
99329W        W42345  29.346  27.048  23.449  0.3155  0.1069 -0.1341
99330W        W42346  21.412  10.777   6.283  0.1382 -0.0653  0.0304
99331W        W42347  15.799   1.660   5.797  0.0118  0.2451 -0.2668
99332W        W42348  18.228   0.574  16.550  0.4374  0.0867 -0.0264
99333W        W42349  12.501   4.926  26.506 -0.2497 -0.2938 -0.0301
99334W        W42350  11.998  12.561  19.135 -0.2002 -0.2819  0.0675
99335W        W42351  16.569  31.183  24.395 -0.2501  0.0332  0.4343
99336W        W42352  30.733  18.961  18.186 -0.2277  0.0580 -0.2663
99337W        W42353   2.742  31.967  17.967  0.0659  0.0277 -0.2730
99338W        W42354   8.116   3.740  24.017 -0.0299 -0.0200  0.3712
99339W        W42355  27.417   0.130  17.939  0.2517 -0.1217  0.0628
99340W        W42356  26.614  24.248  27.445  0.1085 -0.2195  0.3865
99341W        W42357  13.815   9.475  27.536  0.2680 -0.2127  0.3820
99342W        W42358  27.650  34.135  24.037 -0.2062  0.3100  0.0360
99343W        W42359  25.333   3.479  15.304 -0.2887 -0.3044  0.3870
99344W        W42360  17.905   0.500  26.182  0.3220  0.0031  0.1420
99345W        W42361  26.142  13.569  23.299  0.1365 -0.0395 -0.0591
99346W        W42362  32.190  32.037  25.914 -0.1408  0.1954 -0.4148
99347W        W42363  19.333  30.469   4.317  0.3389  0.1243  0.2580
99348W        W42364  26.850  32.307   4.551  0.4369  0.0767 -0.3194
99349W        W42365  18.472  31.588  17.331  0.2195 -0.1359 -0.0996
99350W        W42366  26.172  34.165  16.744  0.0135  0.2630  0.0863
99351W        W42367  33.325  32.130   7.464 -0.0457 -0.0367  0.2372
99352W        W42368  24.982  10.124  19.568  0.0156 -0.0246  0.0668
99353W        W42369  32.571  17.899   0.514  0.0441 -0.1043  0.1407
99354W        W42370  28.050  24.055   1.429  0.1484 -0.0780 -0.0837
99355W        W42371  29.023  32.249   6.840  0.1927  0.4210 -0.0967
99356W        W42372  25.943   2.763  28.681 -0.2635  0.0666  0.0716
99357W        W42373  19.055   8.109  19.671 -0.1778 -0.1491  0.2899
99358W        W42374  24.909  26.333   3.731  0.1616 -0.2471  0.0091
99359W        W42375  20.785  16.606  24.273  0.1849 -0.0811  0.0066
99360W        W42376  27.021   0.224   5.014 -0.4400  0.1055  0.0505
99361W        W42377  23.970   2.563  16.048  0.2744  0.1680  0.3400
99362W        W42378  31.983  32.165  24.510  0.1535 -0.2245 -0.0877
99363W        W42379  32.004   1.322  23.130  0.1511  0.0671 -0.0567
99364W        W42380  14.095  32.518  24.300  0.0825  0.1685 -0.0638
99365W        W42381  26.391  22.753  24.909 -0.1849  0.1447  0.1555
99366W        W42382  32.628   0.097   0.347  0.2879  0.1744  0.0567
99367W        W42383  19.166  31.904  19.433 -0.1254 -0.0911  0.1731
99368W        W42384  19.839   9.331  19.813  0.0836 -0.1796 -0.0378
99369W        W42385   3.064  16.676   2.000 -0.0257  0.1964  0.6600
99370W        W42386   7.180   1.005  18.911 -0.0779  0.0751  0.0483
99371W        W42387  16.939  19.447  28.245  0.0183 -0.0049 -0.1358
99372W        W42388  19.614   7.544  24.586 -0.0144  0.0969 -0.2039
99373W        W42389  13.945   0.304   0.164 -0.1745 -0.0487 -0.3880
99374W        W42390  33.216  18.389   4.038  0.2732  0.1928  0.0160
99375W        W42391  11.121   3.318  28.613 -0.0975 -0.0488  0.0345
99376W        W42392  24.167  10.689   3.170 -0.3634 -0.0925  0.3068
99377W        W42393  23.826   0.446   4.184  0.1811 -0.0912  0.1213
99378W        W42394  24.820  31.514  28.445 -0.1408  0.0034  0.2087
99379W        W42395  12.016  25.597  18.871  0.3436 -0.0429  0.1579
99380W        W42396   3.913   7.630  26.946 -0.3523  0.0925  0.1127
99381W        W42397  18.298  20.532   0.552 -0.3293  0.1925 -0.1154
99382W        W42398  23.559   0.933  19.360 -0.1204 -0.0448 -0.1143
99383W        W42399  27.647  28.699  18.218 -0.2068 -0.0206 -0.1695
99384W        W42400   2.138   2.381  15.857 -0.1117 -0.0017  0.1090
99385W        W42401  22.603  26.593   9.511  0.2384 -0.1425  0.2550
99386W        W42402  10.393  19.284  21.221  0.0542 -0.0042 -0.0325
99387W        W42403  15.080   8.600  26.571 -0.5352  0.4043 -0.1776
99388W        W42404   9.741  31.248  20.372 -0.3523  0.0446  0.3778
99389W        W42405  11.546   0.329  22.428 -0.1624  0.0514 -0.1111
99390W        W42406  18.411  26.302  18.515  0.0717 -0.1308  0.2592
99391W        W42407  19.515   2.045  26.886 -0.2347 -0.1280 -0.0291
99392W        W42408  16.520  28.944  26.411  0.2143 -0.1561 -0.0478
99393W        W42409  26.593  22.224   1.548  0.0831 -0.0221  0.2901
99394W        W42410  20.272   5.887  20.156 -0.3705 -0.0840  0.2840
99395W        W42411  13.422   6.743   4.828  0.0351 -0.0320 -0.1538
99396W        W42412  21.913   2.816  25.048  0.4085 -0.0282 -0.2285
99397W        W42413  27.980  28.307  20.891  0.0642  0.0335  0.2634
99398W        W42414   7.345   6.825  18.421 -0.1917  0.1426  0.0565
99399W        W42415  12.215   1.737  16.072 -0.2085 -0.1124  0.1022
99400W        W42416  24.673  29.501   4.119 -0.2959 -0.4249 -0.0519
99401W        W42417   1.472  21.624  26.189 -0.2383 -0.1326  0.0871
99402W        W42418  16.723   5.516  14.434  0.0843 -0.2133 -0.2063
99403W        W42419  16.293  26.132   2.014 -0.2950  0.0451 -0.0936
99404W        W42420  24.197   4.424   3.453  0.0320 -0.1523  0.1137
99405W        W42421   2.541   7.350   0.128 -0.2507 -0.2325  0.0385
99406W        W42422  23.809   1.026  24.276  0.0903 -0.0767  0.0235
99407W        W42423  25.891  21.689  27.513  0.3272 -0.1467 -0.1712
99408W        W42424  15.809  10.764  23.128 -0.0907  0.0748 -0.0951
99409W        W42425  27.743   4.016  20.118  0.2048 -0.1043 -0.0341
99410W        W42426  11.328  34.651  26.930 -0.0259 -0.4361  0.0582
99411W        W42427  22.525  32.961  24.972 -0.0858  0.3918  0.0393
99412W        W42428  15.301  27.169   4.771  0.0359  0.0823  0.1014
99413W        W42429   6.197  12.478   0.343  0.2114  0.1839  0.1331
99414W        W42430  22.399  33.435   2.820 -0.0430  0.2946 -0.1791
99415W        W42431   2.035  13.809  16.759  0.1002  0.1817  0.0585
99416W        W42432  29.688  24.690  15.381  0.1944 -0.0397 -0.1592
99417W        W42433  32.883   5.355   4.456  0.0031  0.0165 -0.0264
99418W        W42434   2.160   0.257   9.444 -0.0870  0.0035 -0.0233
99419W        W42435   4.678  34.122   3.217 -0.1474  0.1129  0.0672
99420W        W42436  28.232  22.461   0.932  0.1315  0.0138 -0.2747
99421W        W42437  27.043  23.755   4.151 -0.0737  0.2462  0.2644
99422W        W42438  21.875  29.680  22.963 -0.2032 -0.1187  0.1438
99423W        W42439  14.968  20.340   1.866 -0.2396  0.0840  0.3332
99424W        W42440  31.601  22.514   1.283 -0.0210 -0.3522 -0.2010
99425W        W42441   0.777  27.591  17.062  0.1737 -0.1602  0.5667
99426W        W42442  30.264  11.837  24.929  0.1707 -0.1410  0.1087
99427W        W42443  19.675   8.932  21.079  0.1079 -0.1669 -0.1807
99428W        W42444  20.354  28.594  16.985 -0.0067  0.0953 -0.0337
99429W        W42445   1.006  24.987  15.424  0.1649  0.0512  0.1307
99430W        W42446  31.055  11.918  15.394  0.0822  0.1510  0.3731
99431W        W42447   7.635  27.082  21.136  0.1449  0.1481  0.1660
99432W        W42448  34.197  29.407  19.229  0.1359 -0.0693  0.0671
99433W        W42449  21.080   4.122  20.259  0.4159  0.1874  0.0450
99434W        W42450  27.249  27.967  28.305  0.2597  0.0023  0.0648
99435W        W42451  12.005  34.432   4.348 -0.0755 -0.2272 -0.0859
99436W        W42452  14.631  25.731  28.764  0.0935 -0.1091  0.3048
99437W        W42453   9.580   5.222  16.592  0.2705  0.3013  0.2157
99438W        W42454  22.358  13.538   0.461 -0.2804 -0.2740  0.0222
99439W        W42455  27.496  32.652  24.881  0.1495  0.2790 -0.0824
99440W        W42456  30.770  31.079   5.832 -0.1550  0.1045 -0.0756
99441W        W42457  28.788  11.448  15.510 -0.1296  0.2538 -0.1195
99442W        W42458  33.317  26.798  25.658 -0.1090  0.1974  0.2629
99443W        W42459  22.274  21.958  28.003 -0.3398 -0.1918  0.1336
99444W        W42460  13.215   1.709  24.448 -0.0281  0.0331  0.0331
99445W        W42461  14.820   1.156  26.142 -0.4598  0.1342  0.0100
99446W        W42462  34.632  27.057  18.786  0.1966 -0.1445 -0.2212
99447W        W42463  20.004  33.570   8.658 -0.2647  0.2039 -0.0969
99448W        W42464  15.577  31.866  21.251  0.2724  0.1862 -0.4276
99449W        W42465   3.763  34.164  21.400 -0.0738 -0.2701 -0.1420
99450W        W42466   9.785  33.985   8.510 -0.2464 -0.1183  0.2792
99451W        W42467  12.848  25.699  20.461  0.2462 -0.0845 -0.0928
99452W        W42468  11.644   5.503  17.769  0.1926 -0.2483  0.2789
99453W        W42469  24.031  12.835  26.139  0.2068  0.4512  0.2604
99454W        W42470  15.244  28.938   0.215 -0.2399  0.1814 -0.1214
99455W        W42471  18.028   9.263   7.668 -0.0751  0.2085  0.2282
99456W        W42472  23.735   2.170  10.625  0.3597  0.2660 -0.2626
99457W        W42473  24.249  33.159  24.614 -0.2510  0.2935  0.1873
99458W        W42474  29.716  31.231  26.222  0.0215  0.1028  0.0511
99459W        W42475  31.304  23.431  26.345  0.3734  0.3163 -0.1354
99460W        W42476  25.277  32.664   5.971 -0.1816 -0.1382 -0.2975
99461W        W42477  13.441   3.435  23.857 -0.0723 -0.0147 -0.0859
99462W        W42478  20.152   6.116  19.637  0.0079  0.0874 -0.0423
99463W        W42479  15.430  33.389  28.244 -0.0675 -0.0458  0.0065
99464W        W42480  17.083  33.315   3.801 -0.2389  0.0863  0.1682
99465W        W42481  30.933   5.165  26.157 -0.0736 -0.1413 -0.2645
99466W        W42482  14.460  11.286  21.183  0.0036  0.2162  0.0258
99467W        W42483  21.791  24.517  29.291  0.1856 -0.0961  0.0788
99468W        W42484  16.295  11.790  22.007  0.1745 -0.2486  0.0530
99469W        W42485  30.065  12.222   2.271 -0.1786  0.0866  0.0261
99470W        W42486   1.056   2.334  28.974 -0.0521  0.0480 -0.1325
99471W        W42487  20.346   2.354  28.566 -0.0674 -0.0481  0.1325
99472W        W42488  29.131   6.848  27.860 -0.0258  0.3242  0.1239
99473W        W42489   2.553  13.739  22.934  0.1786  0.0222  0.0070
99474W        W42490  32.072  31.999  26.753  0.0344  0.1595 -0.0209
99475W        W42491  29.820  10.783  22.096 -0.0162  0.2393 -0.0843
99476W        W42492  19.845   8.492  22.163  0.2106 -0.1486  0.0296
99477W        W42493  12.122  33.682  22.666 -0.2251 -0.1194  0.1605
99478W        W42494  22.079  34.589  27.679  0.0496 -0.0457 -0.0358
99479W        W42495  14.429  33.047  17.699 -0.2270 -0.0796  0.0223
99480W        W42496  20.653  32.964  17.304  0.3882  0.3692  0.2116
99481W        W42497  14.363  28.669  22.215 -0.1388  0.0232 -0.0907
99482W        W42498  25.100  34.359   0.719  0.0184  0.1964 -0.2686
99483W        W42499  20.151   8.193  13.796 -0.0895 -0.0527  0.0682
99484W        W42500  33.863  20.556  21.893 -0.0911  0.5491 -0.0636
99485W        W42501  15.907   2.308  28.381 -0.1585  0.0050  0.0942
99486W        W42502  28.549  19.454   4.300  0.0451  0.4745 -0.0001
99487W        W42503  22.523   7.449   4.506 -0.2176  0.0985 -0.1389
99488W        W42504  10.010  34.280   0.008 -0.1077 -0.2370 -0.1435
99489W        W42505   2.781  30.026  14.612 -0.0398  0.1426 -0.0161
99490W        W42506   1.895  21.664  29.030  0.1258  0.2950  0.1916
99491W        W42507   4.424  32.186  21.187 -0.1401  0.1492 -0.1764
99492W        W42508   6.484   0.663  22.601 -0.0842  0.1155 -0.0299
99493W        W42509  14.479  31.001  26.878 -0.3035  0.0239 -0.1904
99494W        W42510   3.531   7.938   7.983  0.1877  0.2341  0.0606
99495W        W42511  28.818  32.323  16.469  0.5588  0.0162  0.0105
99496W        W42512  15.870   7.632  13.070 -0.3444  0.0816  0.1777
99497W        W42513   3.464  33.505  16.218 -0.0368 -0.1566  0.2924
99498W        W42514  28.081  31.968  25.082 -0.1616 -0.3723  0.0996
99499W        W42515  24.522  27.151  24.930  0.1712  0.1041  0.4012
99500W        W42516   2.631  25.351   0.022 -0.0302 -0.1274 -0.0241
99501W        W42517  15.224  23.378  21.838 -0.2759  0.1246 -0.2290
99502W        W42518  22.294  29.859   8.886 -0.3210 -0.4154  0.1576
99503W        W42519  13.399   3.573   0.510 -0.1061 -0.1796 -0.3312
99504W        W42520   9.553   6.066  23.835 -0.0820 -0.1428 -0.0712
99505W        W42521  15.010  16.170   3.164 -0.2512  0.1565  0.0615
99506W        W42522   8.626  31.414  20.783  0.2151 -0.1143 -0.2398
99507W        W42523  25.292   4.702  23.707  0.2109  0.1384 -0.2039
99508W        W42524  29.441   1.274  27.534  0.1025 -0.0756 -0.1940
99509W        W42525  24.376   7.027  21.430  0.2261 -0.1238 -0.2538
99510W        W42526   2.612   5.843  14.843 -0.3005 -0.2123 -0.0223
99511W        W42527  33.948  28.696  29.100 -0.0138  0.3493 -0.4616
99512W        W42528  29.172   4.598  26.026  0.1102  0.1433 -0.0701
99513W        W42529   5.795   3.005  17.754  0.3531 -0.0566  0.1968
99514W        W42530  29.145  18.634  15.766  0.1962  0.2868 -0.0641
99515W        W42531   5.332   6.703   1.310 -0.0224 -0.2653  0.4776
99516W        W42532  25.099   0.029  10.558 -0.4837 -0.3380 -0.0301
99517W        W42533  29.134  11.731   0.387 -0.0103 -0.1004 -0.1215
99518W        W42534  22.106   3.150  15.869  0.2283  0.2413 -0.0958
99519W        W42535  27.433  12.122  24.857 -0.1468 -0.0565  0.2709
99520W        W42536  15.325  23.651  15.174  0.0080  0.1995  0.0208
99521W        W42537  17.209  21.407  24.647 -0.1355  0.0696  0.2093
99522W        W42538  34.765  10.841  16.296 -0.2945  0.3058 -0.2224
99523W        W42539   3.428  33.485   4.383  0.2322 -0.2559  0.0462
99524W        W42540  29.815   8.489  20.330  0.0642 -0.2096  0.0460
99525W        W42541  22.944   1.632  26.987 -0.1245  0.0255 -0.1308
99526W        W42542  24.493   7.201  26.824 -0.0800 -0.1715  0.0477
99527W        W42543  24.721  19.143  22.724 -0.1323 -0.1173  0.2357
99528W        W42544   5.620   5.136   9.842  0.1458 -0.0501  0.2429
99529W        W42545  24.551  30.302   6.568 -0.1341  0.1045  0.0489
99530W        W42546   7.339   7.666  15.459  0.1557 -0.0487 -0.1889
99531W        W42547   4.072  29.897   1.881  0.3236 -0.0560  0.0615
99532W        W42548  19.560  12.353  15.363  0.1302 -0.3217  0.3454
99533W        W42549  33.533  11.457  19.112 -0.0007 -0.1531  0.2147
99534W        W42550   1.976  26.642  28.241 -0.1175  0.1926  0.2338
99535W        W42551  27.964  30.543   2.969  0.2026 -0.5006 -0.1030
99536W        W42552  24.455   3.666  20.883 -0.0213  0.1975 -0.0888
99537W        W42553  29.660   3.690  26.860  0.0102 -0.1327 -0.2868
99538W        W42554  19.070   0.532  23.117 -0.1870 -0.0620 -0.2357
99539W        W42555  29.329   2.986  20.269 -0.3072  0.1470  0.1967
99540W        W42556  28.839   6.625  17.651 -0.0128  0.1493 -0.3811
99541W        W42557  24.769  29.358  24.016  0.0851 -0.1968  0.0090
99542W        W42558  22.529   6.925  16.180  0.0419  0.0661 -0.1144
99543W        W42559  34.004   5.781  21.987 -0.0976 -0.4101  0.0878
99544W        W42560  14.805  32.361   9.162  0.3989  0.1868  0.3821
99545W        W42561  17.040   3.832   8.447  0.1658 -0.2235 -0.1149
99546W        W42562  15.814   0.949   2.626  0.0467 -0.1474  0.1609
99547W        W42563  30.096  25.090  15.974  0.1993  0.0315  0.1066
99548W        W42564  11.892   3.044  21.741  0.2516  0.1239 -0.0920
99549W        W42565  21.651   6.702  17.048  0.2099 -0.1720 -0.1732
99550W        W42566  16.418  12.905  13.647 -0.0701 -0.1672 -0.3365
99551W        W42567  25.736   9.035  24.251  0.0732 -0.1133  0.0425
99552W        W42568  29.790  22.206   4.306  0.2319 -0.0451  0.2209
99553W        W42569   2.048  10.442  21.869 -0.2094  0.0686  0.2141
99554W        W42570  14.763  21.089   4.014  0.0537 -0.4042 -0.0893
99555W        W42571  24.174  34.647   0.065  0.2588  0.0061 -0.2760
99556W        W42572  29.771  11.241   2.860  0.0763  0.3334 -0.0520
99557W        W42573   1.144  30.587  24.693 -0.2133  0.2197 -0.2931
99558W        W42574  27.954  25.313  16.890  0.0027  0.0015  0.0480
99559W        W42575  20.804  12.373  13.846 -0.0759  0.2819  0.1830
99560W        W42576  17.958  18.511   0.409 -0.0094 -0.1760 -0.1591
99561W        W42577  18.586  20.977  26.459 -0.0733  0.1833  0.2818
99562W        W42578   0.566  34.697  18.682  0.1820  0.3403 -0.3494
99563W        W42579  22.428   6.943  19.514  0.0547  0.0121  0.4877
99564W        W42580   1.801  32.275   1.908  0.0477  0.0802  0.2032
99565W        W42581   2.839  25.741  21.937  0.0059  0.2170 -0.0668
99566W        W42582  16.669  26.705  24.437 -0.1520  0.0350  0.3899
99567W        W42583   4.739  24.311  26.934 -0.0505 -0.2136 -0.3312
99568W        W42584  31.610  13.069   3.894 -0.0709 -0.0799 -0.0192
99569W        W42585  24.442  11.233  19.937  0.0413 -0.0256 -0.1397
99570W        W42586  11.221  12.565  22.278 -0.3070  0.1855 -0.0655
99571W        W42587   4.211   2.363  23.530 -0.2119  0.3407  0.0166
99572W        W42588  12.804  21.983   2.748 -0.1966 -0.0150  0.0553
99573W        W42589  27.587   7.907  25.533  0.1744  0.0467 -0.0641
99574W        W42590  18.199   4.844  29.203 -0.3404 -0.3346 -0.0465
99575W        W42591   4.712  13.924  14.160 -0.2851 -0.1057  0.1031
99576W        W42592   6.921  32.820   3.453 -0.1063  0.0290 -0.2396
99577W        W42593  18.349  12.009  26.458 -0.0868 -0.1244  0.2008
99578W        W42594  13.938   0.108  22.279 -0.1729  0.0775  0.0384
99579W        W42595  18.820  29.543  22.316 -0.3017 -0.3292 -0.1480
99580W        W42596  33.400  17.602  16.788  0.0390  0.2321  0.1078
99581W        W42597  17.416  16.795   5.988 -0.1783  0.0390 -0.0692
99582W        W42598  28.698  23.167  21.088  0.1320 -0.1528  0.0842
99583W        W42599  28.059  16.879  27.576 -0.0175  0.0906 -0.1320
99584W        W42600  18.665  29.323  19.097 -0.0274 -0.3050  0.0713
99585W        W42601  28.672  20.569  18.750  0.0605 -0.1937 -0.0896
99586W        W42602  16.060  27.693  13.877  0.2574  0.0257 -0.1844
99587W        W42603   4.553   3.066  17.229  0.0874  0.0629 -0.0284
99588W        W42604  31.809   0.386   5.671  0.0487  0.3109 -0.4466
99589W        W42605  15.872   3.468  28.011  0.3375 -0.0241 -0.1784
99590W        W42606  20.526  31.958   7.653 -0.4612  0.1175 -0.1080
99591W        W42607  34.081  16.330  21.689 -0.3195 -0.3763 -0.0504
99592W        W42608  12.973  26.562  25.019  0.1729  0.0477  0.0444
99593W        W42609   3.966  32.527  16.089  0.1624  0.2243 -0.1059
99594W        W42610   6.877  13.627  27.452 -0.1655  0.2141 -0.1044
99595W        W42611  25.647  11.518   1.627  0.2617  0.1752  0.2156
99596W        W42612  17.307   0.377  27.206 -0.1739  0.1223  0.1883
99597W        W42613  33.427   0.846  16.870 -0.0724  0.2792  0.1893
99598W        W42614  33.277  28.393  21.320 -0.2273  0.2181 -0.2056
99599W        W42615  11.879   9.354  16.403  0.3062 -0.1440  0.0053
99600W        W42616  28.217   9.122   3.978  0.1788 -0.1384 -0.3226
99601W        W42617  17.002  30.190  18.011 -0.1395  0.1393  0.2235
99602W        W42618  11.759  30.941  15.868  0.1275  0.0635  0.3507
99603W        W42619  29.959  19.419  16.300 -0.2303  0.0802 -0.2936
99604W        W42620   5.281   6.645  16.158  0.1353 -0.0987 -0.2255
99605W        W42621  16.216  31.450  18.240 -0.3138 -0.1721 -0.1510
99606W        W42622  24.450  33.206  19.517 -0.2755 -0.3151  0.2831
99607W        W42623  18.377   3.697  22.089  0.1560 -0.0247  0.0744
99608W        W42624  17.407  30.728   4.284 -0.2290  0.2314  0.0170
99609W        W42625  25.746   8.223   4.493 -0.2129  0.1551 -0.1225
99610W        W42626  32.037   5.200  25.091 -0.0388  0.1083 -0.1902
99611W        W42627  14.150   3.860  16.583  0.3215  0.1567  0.0359
99612W        W42628  23.342   9.165  10.145  0.3809 -0.1765  0.3134
99613W        W42629  21.901  29.881  11.194 -0.0613 -0.0364  0.1481
99614W        W42630  33.527  25.796  14.323  0.0090 -0.3930 -0.3256
99615W        W42631  13.637   8.656  14.985 -0.2241  0.1005  0.3089
99616W        W42632   5.741   1.864   1.484 -0.1799 -0.6351 -0.0120
99617W        W42633   1.765  31.924  17.484  0.0934 -0.0467  0.0334
99618W        W42634  17.736   2.558  20.519 -0.1579 -0.0405 -0.1117
99619W        W42635  27.692  27.316   5.230  0.0370 -0.0322 -0.3767
99620W        W42636  22.438  14.429  22.522  0.1053 -0.1710 -0.0624
99621W        W42637  26.983  15.048   0.556 -0.1003  0.0711 -0.1123
99622W        W42638  16.423  12.479   1.434 -0.1624  0.1401 -0.1315
99623W        W42639  26.733  11.621  15.849 -0.2828 -0.4005 -0.0827
99624W        W42640   1.731   5.602  22.844  0.0784 -0.1088  0.0704
99625W        W42641  19.436  31.347  28.187  0.3326 -0.1943 -0.1346
99626W        W42642   4.706  31.781  16.110  0.0838 -0.2736 -0.1186
99627W        W42643  15.197  13.298  27.325 -0.0852 -0.1765 -0.0678
99628W        W42644  26.215   0.722  17.362 -0.0008 -0.0401 -0.3420
99629W        W42645  23.104  24.761  25.824  0.0224 -0.1259 -0.1218
99630W        W42646  25.042   6.048   3.803 -0.0481  0.1206  0.2610
99631W        W42647  31.416   5.633  19.567 -0.1431  0.0191 -0.3555
99632W        W42648  25.039  12.759  25.455 -0.0921 -0.1949 -0.3353
99633W        W42649  20.390  30.753  16.768  0.0682  0.0031 -0.1849
99634W        W42650  24.158  11.446  18.545  0.1624  0.2815  0.1447
99635W        W42651   3.706   2.297  26.036 -0.0536 -0.2045 -0.1839
99636W        W42652   7.870  10.114  29.072 -0.1897  0.0746  0.0707
99637W        W42653  16.177   7.835  13.781 -0.0857  0.1380  0.1261
99638W        W42654  15.755   0.067  26.886  0.4747 -0.1266 -0.0518
99639W        W42655  30.012  25.620   3.979  0.1018  0.2956  0.1751
99640W        W42656  17.078  24.461   5.413 -0.0006 -0.0243  0.0086
99641W        W42657  32.101  11.421  23.857 -0.3086  0.0048  0.0824
99642W        W42658   9.348  22.744   4.037  0.0943 -0.4290 -0.0180
99643W        W42659  24.192   6.559   3.851  0.1205 -0.0770  0.0345
99644W        W42660  11.731  13.330  19.664 -0.1230  0.2741 -0.0713
99645W        W42661  12.376  29.494   8.691  0.0752  0.0175  0.0538
99646W        W42662   3.039  13.070   0.063  0.1560 -0.2822  0.3074
99647W        W42663  22.413   4.839   8.976  0.1389  0.0205 -0.0840
99648W        W42664   4.768  17.966   2.366  0.1025  0.0460 -0.2105
99649W        W42665  19.024   9.061   8.645  0.0833 -0.3315 -0.1006
99650W        W42666  17.439  30.583   3.698 -0.1041  0.0845 -0.1827
99651W        W42667  16.232  28.394  24.629 -0.1183  0.0186  0.1739
99652W        W42668   8.628  29.057   2.081 -0.0898  0.0430  0.0861
99653W        W42669   9.505  22.960   2.926 -0.0774 -0.2021  0.3270
99654W        W42670  17.444   0.946   7.106 -0.1915 -0.0118  0.2479
99655W        W42671  33.125  31.976  28.669  0.0648 -0.2464  0.1562
99656W        W42672  30.486  22.495  23.025  0.3137  0.2893  0.0038
99657W        W42673  16.651   7.801  24.898 -0.2356  0.4918 -0.1040
99658W        W42674  19.649   6.448  19.199  0.3087  0.1142  0.0566
99659W        W42675  19.370  13.085   2.150 -0.1243  0.0961  0.0592
99660W        W42676  26.884  33.068  18.348 -0.0925 -0.0835  0.3555
99661W        W42677  31.330  17.529   0.088  0.2079  0.0061 -0.2548
99662W        W42678  31.231  31.874  10.144 -0.1230  0.0844 -0.0588
99663W        W42679  18.366  31.182   8.709  0.1174 -0.0206 -0.0033
99664W        W42680  24.408   5.327  21.606 -0.0950  0.3670 -0.2262
99665W        W42681  27.574  33.857  23.318 -0.1348 -0.3259 -0.0451
99666W        W42682  19.564   7.198  15.499 -0.0862 -0.2168 -0.0771
99667W        W42683   0.193   2.841  15.908 -0.0742  0.0716  0.0274
99668W        W42684  28.551  14.533  27.541 -0.2486 -0.2742 -0.2022
99669W        W42685  33.583  18.710  26.801 -0.4306  0.1432  0.1245
99670W        W42686  24.294  17.023   8.427 -0.1777  0.2207 -0.1381
99671W        W42687   3.403  14.438   6.915  0.1152 -0.1375 -0.0820
99672W        W42688  28.901  23.047  24.861  0.0455  0.0710  0.5800
99673W        W42689  29.860  27.674  28.937 -0.1405 -0.1067  0.0322
99674W        W42690  23.097  26.553  24.039  0.3357 -0.2483  0.5784
99675W        W42691  30.650   5.293   9.304 -0.1805 -0.1521 -0.0567
99676W        W42692  19.181   7.863   8.704  0.0500 -0.4825 -0.2769
99677W        W42693  20.726   7.190  25.467  0.1569 -0.1009  0.0758
99678W        W42694  17.956  32.666  26.885  0.1852  0.4564 -0.1577
99679W        W42695   0.753  17.774   3.505  0.0837  0.1125  0.0086
99680W        W42696   4.342  33.742  19.748 -0.0189 -0.0627 -0.3238
99681W        W42697  26.135   4.403  18.828 -0.0013 -0.1418  0.0734
99682W        W42698  17.750  17.713   1.856 -0.1945  0.0271  0.2689
99683W        W42699  12.667   3.250  24.178 -0.2065 -0.2623  0.0523
99684W        W42700  10.324   6.109  20.265  0.2915 -0.1517 -0.0005
99685W        W42701  21.304   0.418  24.916  0.4377 -0.3263  0.4254
99686W        W42702  12.024  32.855  17.218  0.1120  0.0208 -0.1050
99687W        W42703  22.896  32.963   4.068  0.0302  0.3438 -0.3022
99688W        W42704  21.724  12.052   2.777 -0.1842 -0.0198  0.2374
99689W        W42705  14.866  31.220   5.332  0.1214  0.2929  0.1720
99690W        W42706  22.437   1.158   7.575  0.1377  0.1144 -0.1421
99691W        W42707  15.180  25.819  25.681  0.1574 -0.3317  0.3526
99692W        W42708   7.761  31.936   3.999 -0.0106 -0.1500  0.0688
99693W        W42709  13.755  24.254   0.449  0.0729 -0.0033  0.1709
99694W        W42710  20.901  33.749  23.834  0.2396 -0.3456 -0.0178
99695W        W42711   9.193   7.185   7.092 -0.0892 -0.0078 -0.0967
99696W        W42712   5.197   2.426   7.841  0.0739 -0.0871 -0.0436
99697W        W42713  19.886  12.574  16.246 -0.1872  0.1715 -0.0056
99698W        W42714   9.402  27.143  25.150 -0.0695  0.0456 -0.0385
99699W        W42715  15.223  28.039  26.844 -0.0416  0.2862  0.1596
99700W        W42716  13.080  34.716  26.735 -0.0054  0.2718 -0.2594
99701W        W42717  29.359   3.753   2.811 -0.2058  0.0069 -0.1324
99702W        W42718  32.701   8.801   2.198  0.1742 -0.3835  0.2987
99703W        W42719  26.690   1.432  20.187 -0.1955 -0.0544 -0.0401
99704W        W42720  16.101   8.683   0.657 -0.1243 -0.0702  0.0114
99705W        W42721  25.344   9.715   3.338 -0.0562 -0.0493  0.3356
99706W        W42722   9.640   1.589  23.477 -0.0402 -0.4192 -0.2413
99707W        W42723  14.573   7.569  16.085 -0.2288 -0.1846  0.0811
99708W        W42724  18.201   3.323  17.767  0.0801 -0.3347 -0.0705
99709W        W42725  12.470   1.741  23.956  0.3652  0.2462 -0.0844
99710W        W42726  25.611   4.318  23.618 -0.0370 -0.3659  0.4140
99711W        W42727  28.228  33.417  28.742 -0.0198 -0.1424 -0.0826
99712W        W42728  32.536   8.042  22.556  0.1980 -0.1925  0.2688
99713W        W42729  22.490   9.190  28.634  0.0360 -0.1221  0.1162
99714W        W42730  14.748  16.631   4.975  0.2046  0.2513 -0.1412
99715W        W42731  24.402  26.332  29.086  0.3060  0.2138  0.3869
99716W        W42732  12.630  23.882   2.261 -0.2350  0.1589 -0.3985
99717W        W42733  29.548  16.766  16.864 -0.1726  0.0353 -0.1187
99718W        W42734   1.403  11.940   3.662  0.2918 -0.0455 -0.1581
99719W        W42735   1.865  33.312  15.121  0.0342 -0.0017 -0.3061
99720W        W42736  20.955   7.114  28.724 -0.2812  0.1750 -0.1818
99721W        W42737  26.686   9.565  16.599  0.2555 -0.2627 -0.1805
99722W        W42738  28.496   6.685  18.487  0.2645 -0.0879  0.1189
99723W        W42739   4.283  27.960  23.052  0.0324  0.0653 -0.0733
99724W        W42740  11.085  20.849   8.227 -0.1035  0.0454 -0.0828
99725W        W42741  13.635  26.247  26.071  0.1109 -0.3291 -0.2626
99726W        W42742  32.752   3.817  22.330  0.2375 -0.3588 -0.3087
99727W        W42743  17.926   0.787   7.163  0.0787 -0.1465 -0.1682
99728W        W42744  32.457   8.327   1.310  0.0070 -0.0423  0.0072
99729W        W42745  31.967   4.323  28.725 -0.2732  0.1222 -0.1569
99730W        W42746  16.202  33.297  17.346 -0.0525  0.0708  0.3022
99731W        W42747  13.192  27.824   1.506 -0.4310  0.3092 -0.0513
99732W        W42748  16.995   8.090   3.541 -0.2243  0.2053 -0.2678
99733W        W42749  29.662   9.211   3.845 -0.0927  0.0270  0.2199
99734W        W42750  17.853  31.695  28.829 -0.1194  0.0256  0.1146
99735W        W42751  30.237  15.342  26.898  0.0015  0.1382 -0.0709
99736W        W42752  18.832  32.505   9.566  0.2838  0.0567  0.0671
99737W        W42753   8.323   9.119  13.833 -0.1128 -0.0571 -0.1705
99738W        W42754  18.617  27.891   9.581 -0.1479 -0.3664  0.1409
99739W        W42755  27.425   5.116   8.976  0.1565  0.1745  0.4862
99740W        W42756  28.585  11.964   1.417  0.0600 -0.1320 -0.2134
99741W        W42757  31.379  26.631  27.378  0.3466 -0.1331  0.0340
99742W        W42758  17.430  32.021   0.126 -0.1254 -0.1264 -0.4862
99743W        W42759  28.041   3.186  10.165 -0.0103  0.1641 -0.0213
99744W        W42760  15.968   2.927   1.994 -0.1647 -0.0442 -0.2740
99745W        W42761  32.999   0.928  26.510  0.0312 -0.1404 -0.1044
99746W        W42762  16.989  12.272  20.318  0.1538  0.0155  0.0511
99747W        W42763  26.110  30.805   1.403 -0.0680 -0.2895  0.0495
99748W        W42764  12.029  30.681   2.591  0.1066  0.2778 -0.1107
99749W        W42765  29.344   5.038  18.862  0.1681  0.0249 -0.2393
99750W        W42766  33.742   4.834   7.739 -0.0924 -0.0004  0.2403
99751W        W42767  15.081   1.543  23.592 -0.2758 -0.2356 -0.1524
99752W        W42768  23.338  23.758  26.458 -0.1179  0.1113 -0.0144
99753W        W42769  14.310  29.039   4.412  0.1414  0.0206 -0.2033
99754W        W42770  25.304   1.851   6.377  0.1101  0.0189  0.1920
99755W        W42771  29.647  12.017  23.448 -0.0099  0.0276 -0.4020
99756W        W42772  26.215  20.977  21.320  0.0792 -0.1495  0.2349
99757W        W42773   4.483  25.874  20.621  0.0617  0.1900 -0.0188
99758W        W42774  21.128  25.446   3.601  0.3042 -0.1714  0.0559
99759W        W42775  33.722  27.469  26.085  0.2336 -0.0584 -0.2310
99760W        W42776   4.810  12.359  17.023 -0.1347  0.0476 -0.0370
99761W        W42777  28.612  31.617   7.019  0.3067  0.0249  0.1441
99762W        W42778   5.441  13.036   6.336  0.2914  0.3152  0.4774
99763W        W42779  32.649  34.683   0.822 -0.0653  0.1372 -0.1614
99764W        W42780  22.488  26.158  15.338  0.0080  0.0614  0.2696
99765W        W42781  24.041  21.299  14.110  0.1605 -0.1162  0.1467
99766W        W42782  27.979  11.047  18.900  0.1495 -0.2450  0.2858
99767W        W42783   1.053   4.243   2.006  0.1825  0.2752 -0.0815
99768W        W42784  29.499  30.830  16.031  0.3575 -0.0028 -0.1321
99769W        W42785  20.311  32.592  17.450  0.0974 -0.1100  0.2463
99770W        W42786  19.574  34.056   4.668  0.0382  0.1929  0.0855
99771W        W42787  19.355  32.420  27.284  0.1270 -0.0075  0.4473
99772W        W42788  27.923  34.066  24.589 -0.1383 -0.2554 -0.1451
99773W        W42789  15.111  26.245   1.310  0.1326  0.0091 -0.4448
99774W        W42790  21.289  34.304   9.135 -0.0797  0.0655 -0.0023
99775W        W42791  34.359  26.825  20.301 -0.0346 -0.0783  0.3406
99776W        W42792  33.476   8.249  10.006  0.3145  0.0493  0.1373
99777W        W42793   8.284  12.763   5.278 -0.2299 -0.0238 -0.0062
99778W        W42794  23.585  24.791  22.690 -0.0922  0.0195 -0.1275
99779W        W42795  28.882   6.027  15.624 -0.0521 -0.2157 -0.0351
99780W        W42796  28.075  31.276  18.329 -0.2657 -0.1822 -0.0981
99781W        W42797   4.693   8.749  16.974  0.0896 -0.2406  0.0690
99782W        W42798  33.535  22.831  22.643 -0.0972 -0.1006  0.1270
99783W        W42799  27.089   1.295   6.117 -0.1539  0.0740  0.0610
99784W        W42800  16.371   2.290  22.491  0.0575  0.3414  0.0160
99785W        W42801  32.067  12.456   9.156  0.0101  0.1379 -0.3016
99786W        W42802  19.253  30.944  17.560  0.2935 -0.1650  0.1440
99787W        W42803   9.492   0.963   6.339  0.4344 -0.4687  0.0576
99788W        W42804  19.470  29.346  18.528  0.1323  0.0618  0.3415
99789W        W42805   6.258  34.199   1.251 -0.2081  0.0291 -0.0256
99790W        W42806  27.676   0.991   4.792  0.0655  0.0558  0.2248
99791W        W42807  26.899   0.480  26.937 -0.1371 -0.2898 -0.3913
99792W        W42808  19.697   0.562   6.341 -0.0946 -0.0660  0.1373
99793W        W42809  20.617  23.291  21.527 -0.0478 -0.0196  0.2042
99794W        W42810  23.243  30.480  21.790 -0.0601 -0.0810  0.2394
99795W        W42811  32.504   5.939   5.608  0.0588  0.2634  0.1009
99796W        W42812  19.318   5.422  18.363 -0.3131 -0.2954  0.2623
99797W        W42813  10.155  23.067  25.001  0.1399 -0.1988 -0.1355
99798W        W42814  19.196  23.241  16.140 -0.0807 -0.1547 -0.0465
99799W        W42815   6.257  10.861  25.896  0.2276 -0.0967  0.2453
99800W        W42816  15.588   2.783   4.622 -0.2526 -0.3957  0.1114
99801W        W42817  24.177  34.406  16.195  0.1419  0.1089 -0.1321
99802W        W42818  21.460  31.825  16.347  0.3324  0.0962 -0.1661
99803W        W42819  16.654  29.940   9.549 -0.3759  0.1746  0.2763
99804W        W42820  21.640  32.699   3.996  0.2634  0.0987 -0.0814
99805W        W42821  31.816   0.693  21.292 -0.1392 -0.0878  0.3499
99806W        W42822  18.172  34.522  14.970  0.1770 -0.1573  0.0291
99807W        W42823  11.429  25.007  28.660  0.0082  0.0312  0.1655
99808W        W42824  26.660   7.531   6.040  0.1153  0.1077 -0.1036
99809W        W42825  34.489  28.851   2.319 -0.2063  0.0968 -0.0191
99810W        W42826  20.799  32.752   7.718  0.0828  0.2060  0.2166
99811W        W42827   8.680  28.771   5.834  0.0006  0.1157  0.2143
99812W        W42828   2.586  34.272  16.714 -0.1179  0.3886 -0.1310
99813W        W42829  29.672  20.889   4.854  0.1085 -0.2567  0.0462
99814W        W42830   1.604  22.144   8.427 -0.0471  0.0005  0.0013
99815W        W42831   4.905  20.036  26.694 -0.0133  0.1762  0.3116
99816W        W42832  32.007   3.585  17.558  0.0866  0.3642  0.1722
99817W        W42833  23.684  31.066   2.767 -0.0508 -0.1096 -0.3988
99818W        W42834  17.856   6.139  16.853 -0.2392 -0.1066  0.0761
99819W        W42835  16.357   2.270  23.315  0.0155 -0.1006  0.3140
99820W        W42836  32.585   3.452  25.999 -0.0217 -0.0324 -0.0387
99821W        W42837  16.197   9.092  18.760  0.2427  0.0003  0.2776
99822W        W42838   7.266  27.877  24.946 -0.1666  0.0782  0.0362
99823W        W42839  13.930  11.180   4.306  0.2635  0.0132  0.3806
99824W        W42840   8.667   4.759  29.108  0.0038  0.3299  0.2484
99825W        W42841  11.404   3.236   6.956  0.2358 -0.0343 -0.0150
99826W        W42842  34.223  25.152  17.981  0.3374  0.0011  0.0352
99827W        W42843  24.049  31.301  21.169  0.2381 -0.4067 -0.1267
99828W        W42844  27.946   5.539  21.431 -0.0774  0.1750 -0.0034
99829W        W42845  22.169  19.893   5.855 -0.1922  0.1210  0.2334
99830W        W42846  29.783  28.540  25.823  0.0938 -0.3208  0.3095
99831W        W42847  19.460   8.588   5.025 -0.3819 -0.0018 -0.3768
99832W        W42848  23.367  28.267  25.505 -0.0851  0.1685  0.0516
99833W        W42849   6.410  19.954  20.849 -0.1666  0.0986  0.0792
99834W        W42850  21.395   3.594   1.960  0.1638  0.0933 -0.1731
99835W        W42851  17.792  11.775  14.261  0.0085  0.1076 -0.2735
99836W        W42852  23.389  33.059   0.655 -0.1513 -0.2093 -0.2572
99837W        W42853  22.220  17.833  28.336 -0.2050 -0.0399  0.0607
99838W        W42854  31.744  21.934   3.182 -0.1877  0.0542  0.1097
99839W        W42855  29.437  11.600  26.445  0.0951  0.1336  0.3272
99840W        W42856  33.747  12.352  21.776 -0.0027  0.0855 -0.2626
99841W        W42857  32.473  31.886   9.674  0.1057 -0.2666 -0.1815
99842W        W42858  14.024  33.882   9.449  0.4294 -0.6360  0.3350
99843W        W42859  28.183  16.867   2.832 -0.0110  0.0090 -0.1738
99844W        W42860   6.870   3.095  10.029 -0.1871 -0.2551  0.0451
99845W        W42861  23.101   7.419  21.692  0.2196 -0.0356  0.1618
99846W        W42862  33.807  31.141  25.567  0.0555  0.2634  0.1940
99847W        W42863  15.780  31.320  15.578  0.0801  0.3868  0.0678
99848W        W42864  20.342  10.878  25.486 -0.0491  0.0654 -0.1808
99849W        W42865  19.290   7.560  19.747  0.6422 -0.0473  0.1996
99850W        W42866  17.126  23.712  14.358 -0.2084  0.0496  0.1138
99851W        W42867  27.783  32.831  23.476  0.0291  0.3188  0.1260
99852W        W42868  33.055  25.128   8.545  0.0775 -0.2096 -0.0008
99853W        W42869  17.770  30.739  16.543 -0.0236  0.0017  0.1668
99854W        W42870  14.722  32.015  20.520  0.0018  0.2153  0.0101
99855W        W42871  34.668  11.943  23.294  0.0780 -0.2711  0.0812
99856W        W42872  28.233  13.677   2.335 -0.0046 -0.2217  0.2136
99857W        W42873  10.956  33.960   5.786 -0.0622 -0.3849 -0.1466
99858W        W42874  25.445  31.363  15.212 -0.0191  0.4108 -0.1690
99859W        W42875  30.341   1.821   2.298  0.3038 -0.0189 -0.0917
99860W        W42876  30.224  12.643  24.179 -0.0684 -0.1684  0.1848
99861W        W42877  22.006  12.370  23.084  0.2846 -0.0667 -0.2408
99862W        W42878  21.447   1.423  17.361  0.0457 -0.3756  0.1524
99863W        W42879  23.455   8.388   2.703 -0.1437 -0.2808  0.2752
99864W        W42880  23.124   2.015  26.711  0.1665  0.4009  0.1267
99865W        W42881  15.131  31.522  24.508  0.0955 -0.0064 -0.1531
99866W        W42882  23.681  20.947  19.106  0.0167 -0.0308 -0.0747
99867W        W42883  11.988   6.835  24.427  0.0457  0.3173 -0.0599
99868W        W42884  21.957   5.022  15.911  0.0017  0.0644  0.1210
99869W        W42885  30.454  22.351  29.114  0.1066 -0.1700 -0.1953
99870W        W42886  14.068   4.431   1.298 -0.1971 -0.1163 -0.0571
99871W        W42887  18.682  31.117  16.373  0.0460 -0.0409 -0.0796
99872W        W42888  17.655  33.045  26.953  0.3436  0.2122 -0.1678
99873W        W42889   5.628  30.719  20.512  0.0910 -0.0121  0.0006
99874W        W42890  22.785  10.347   3.764  0.2941  0.0918  0.3784
99875W        W42891  32.784  25.416  29.053 -0.2524 -0.1776 -0.1667
99876W        W42892  14.907  15.830   0.547 -0.3176 -0.0293  0.1674
99877W        W42893  12.480   8.471   0.730 -0.1386 -0.0948  0.1711
99878W        W42894  14.467  32.828  25.589  0.0659  0.2286 -0.0879
99879W        W42895  13.858   6.967  21.611  0.2524 -0.1186  0.0372
99880W        W42896  25.488   3.311  24.441  0.0327 -0.1702  0.0432
99881W        W42897  28.833  24.556  11.018  0.6458  0.0580  0.1712
99882W        W42898  13.865  12.536  27.920 -0.0870 -0.1650 -0.2727
99883W        W42899  20.066  31.231   1.853  0.1398 -0.1017  0.2055
99884W        W42900  29.754  17.036   3.717  0.1469  0.0415  0.4664
99885W        W42901  28.039  10.548  23.877  0.0655  0.2584  0.1639
99886W        W42902  32.560   6.939  22.035  0.0180 -0.1459 -0.1252
99887W        W42903  19.445   3.810   1.239 -0.0614  0.0486  0.1099
99888W        W42904  31.919   4.672  26.970  0.0330  0.2127  0.4570
99889W        W42905  22.234  32.736   3.152  0.1675 -0.0341  0.0433
99890W        W42906  29.103  24.416  22.876 -0.0651  0.1099 -0.2810
99891W        W42907   0.454   0.489  26.682  0.2765 -0.1176  0.3006
99892W        W42908  19.311  20.744  16.104  0.0259 -0.0409 -0.1300
99893W        W42909  24.245  21.041   1.179  0.1517  0.2299 -0.1282
99894W        W42910  27.799   9.353   5.428 -0.1504 -0.2379  0.0124
99895W        W42911  25.750  34.037   5.476 -0.2328  0.0288 -0.0605
99896W        W42912  20.353  16.921   1.097  0.2555  0.0952 -0.0379
99897W        W42913  12.010   3.351   0.188  0.0600 -0.0279 -0.3356
99898W        W42914  20.793  31.639   7.442 -0.1596 -0.0271 -0.0768
99899W        W42915  14.797  20.858   7.016 -0.2069  0.1427 -0.2054
99900W        W42916  21.610  11.316  21.537  0.1023 -0.0854 -0.2776
99901W        W42917   5.572   6.531  26.977 -0.3094 -0.1255  0.0794
99902W        W42918  29.639   3.000   7.842  0.4390  0.1178  0.1840
99903W        W42919  12.090   8.315   2.118 -0.0824 -0.2980  0.1718
99904W        W42920  19.871  12.149  18.442 -0.0006  0.0281 -0.1635
99905W        W42921  18.180  33.942  23.600  0.2947 -0.2115 -0.0103
99906W        W42922  25.478  25.117  25.118  0.2594 -0.2011 -0.1122
99907W        W42923  24.922   6.192  24.944 -0.1965 -0.1504  0.0881
99908W        W42924   1.552   8.855  16.927  0.1183 -0.2849 -0.0253
99909W        W42925  23.705  27.112   9.913  0.0821 -0.0157 -0.1301
99910W        W42926  34.359   5.277  19.313  0.0654  0.0066  0.0725
99911W        W42927  20.100  26.137   1.200 -0.0505 -0.0248 -0.2128
99912W        W42928  19.560  10.321  25.270 -0.1722 -0.0114 -0.2434
99913W        W42929  24.759   0.938  26.277  0.0534 -0.1071  0.1383
99914W        W42930  29.986   0.835  22.937  0.0539  0.1562  0.0361
99915W        W42931  26.250  26.926  27.176  0.0289 -0.1393  0.0814
99916W        W42932  15.660  13.067   5.189 -0.0187  0.1230  0.2787
99917W        W42933  33.687  31.836   7.414 -0.0527 -0.1971 -0.1566
99918W        W42934  12.853  18.586  20.441  0.0851  0.0256  0.1130
99919W        W42935  31.430  17.215   3.514  0.2141  0.0670  0.0478
99920W        W42936  26.019  29.708   8.754 -0.0719 -0.2274  0.0910
99921W        W42937  27.088   4.635   5.239  0.1095  0.0079  0.0863
99922W        W42938  24.995   3.482  16.184 -0.1243  0.3184 -0.0438
99923W        W42939  30.487  30.596   1.827 -0.0309  0.1019 -0.0074
99924W        W42940  24.619  33.234  23.612  0.4448 -0.0561 -0.1910
99925W        W42941  13.998  33.718  28.345  0.1073  0.1097 -0.1393
99926W        W42942  23.080  33.833  20.368  0.2024 -0.1659 -0.3007
99927W        W42943   8.029  32.135  26.613 -0.2541  0.1609  0.0323
99928W        W42944  32.463  22.982   0.920  0.0952 -0.1193 -0.0790
99929W        W42945  33.492  34.072  23.126 -0.0562 -0.1269  0.2027
99930W        W42946  30.957   8.253  25.956 -0.3096 -0.0896 -0.0060
99931W        W42947  25.905   7.490  23.066 -0.1840 -0.0394  0.3922
99932W        W42948  18.921   4.949  18.912 -0.2530 -0.2123  0.2090
99933W        W42949  18.018  31.651  23.036 -0.0030 -0.2540 -0.5832
99934W        W42950   6.544  25.011  28.436 -0.2434 -0.1069 -0.2148
99935W        W42951  15.821  31.420   9.979 -0.0447  0.0029  0.0750
99936W        W42952  19.818   9.481   5.415  0.0495  0.3864 -0.2163
99937W        W42953  27.627  28.486   3.484 -0.3134  0.0700  0.1174
99938W        W42954  27.818  27.923  23.114 -0.0173  0.1308 -0.2227
99939W        W42955  24.478   3.760  26.087  0.0809  0.0100 -0.0150
99940W        W42956   4.559  32.045  26.581  0.0036  0.4026  0.2514
99941W        W42957  29.301   3.910  11.180 -0.5529 -0.1393  0.1165
99942W        W42958   0.693   9.509  28.417 -0.2045 -0.1168 -0.0972
99943W        W42959  11.835  29.491  23.703  0.0006  0.1683  0.1066
99944W        W42960  27.771  24.932  21.811 -0.3408  0.0494  0.1116
99945W        W42961  22.430   6.132  18.932  0.2267  0.1296 -0.0032
99946W        W42962   6.769   7.869   1.517 -0.1500  0.2122  0.0095
99947W        W42963  14.757  30.472   3.549  0.2031  0.3055 -0.2064
99948W        W42964  25.161   2.292   6.573 -0.0507  0.2423 -0.0182
99949W        W42965  28.889   7.264  20.132 -0.0856 -0.1787 -0.2012
99950W        W42966  28.247   4.506  28.640  0.0769 -0.0565 -0.0748
99951W        W42967  29.651  33.341  10.218 -0.0061 -0.2193  0.0249
99952W        W42968  20.582  12.118   0.201 -0.3183  0.1279 -0.1243
99953W        W42969  27.870  26.962  16.334 -0.1772  0.1274 -0.2163
99954W        W42970   4.005  12.851  28.312 -0.0288 -0.2323  0.0569
99955W        W42971  24.595   0.986   7.791 -0.2565  0.3245  0.0718
99956W        W42972  30.722  25.590  21.593 -0.4290  0.3543 -0.0491
99957W        W42973  27.600  22.273  26.826 -0.1382  0.2136 -0.1754
99958W        W42974  21.338  29.117  18.548  0.0344  0.1280  0.1455
99959W        W42975  34.322  13.449   7.720  0.2641  0.2554 -0.0059
99960W        W42976  21.749  11.408   0.253  0.1049 -0.0759 -0.0369
99961W        W42977   2.100  14.372   4.743  0.1770  0.0138 -0.3748
99962W        W42978  18.622   4.661  21.181  0.2564  0.0849 -0.4058
99963W        W42979  26.500  28.213   8.959  0.1871  0.0679 -0.3220
99964W        W42980  23.506  30.520   0.238  0.4814  0.0322  0.1986
99965W        W42981  25.821   2.180   0.560  0.6902 -0.0724  0.0426
99966W        W42982  19.279  29.751   5.439  0.0787 -0.0293 -0.3175
99967W        W42983  17.361  30.590  22.417  0.0015  0.2145  0.1874
99968W        W42984  22.623  32.374  15.386  0.2442  0.1233 -0.2056
99969W        W42985   9.699   1.711  25.581 -0.1855  0.1097 -0.1001
99970W        W42986  30.779  27.501   3.173 -0.0263 -0.0357 -0.0959
99971W        W42987   6.477   5.431  26.932 -0.1483 -0.0321  0.2173
99972W        W42988   1.560  25.066   4.958  0.3008  0.0604  0.2894
99973W        W42989  25.807  25.630  18.516 -0.0364 -0.2006 -0.1741
99974W        W42990  21.430  26.192  24.848  0.3856  0.2485  0.0481
99975W        W42991  28.319   5.141  23.537 -0.4589  0.0881  0.0672
99976W        W42992  32.814  33.728   4.167 -0.2065 -0.0842 -0.0855
99977W        W42993   5.226  13.422   3.275 -0.0460 -0.1020 -0.0693
99978W        W42994  34.010  31.689  25.307  0.1870 -0.0895 -0.1718
99979W        W42995  31.451  24.165  26.195  0.0126 -0.1665  0.4489
99980W        W42996  13.982   3.916   5.814 -0.0814 -0.1726  0.0255
99981W        W42997  20.114  28.939   5.096 -0.0609 -0.0103  0.1405
99982W        W42998  17.323  34.028   6.614  0.1493  0.0962  0.0993
99983W        W42999  10.165  30.831   7.692 -0.0994  0.1307 -0.1357
99984W        W43000  11.207  34.262  29.075 -0.3127  0.1217 -0.4081
99985W        W43001  22.704   6.325   4.517 -0.1112  0.1851 -0.2556
99986W        W43002  32.329  23.211  25.579 -0.1372 -0.2777  0.0518
99987W        W43003  32.721   1.762   2.777  0.1120 -0.3455  0.1340
99988W        W43004  13.333  19.098   7.393  0.0019  0.1307 -0.4431
99989W        W43005  18.458  14.084   2.667  0.3951  0.1206  0.1838
99990W        W43006  18.598   6.673  27.048 -0.2966  0.0289  0.1838
99991W        W43007   1.287  26.273   5.159  0.0035 -0.0117 -0.1235
99992W        W43008  25.876  29.857   8.020  0.0032 -0.0231 -0.0207
99993W        W43009  22.332  30.442  19.626  0.0475  0.0287 -0.0634
99994W        W43010  19.254   5.918   4.323  0.2149  0.0610 -0.1488
99995W        W43011  24.330  26.258  16.861  0.0867  0.0421  0.0280
99996W        W43012  21.504  12.210  22.379 -0.0552  0.0179 -0.0184
99997W        W43013  12.273  12.624  16.371 -0.0526  0.3287  0.2200
99998W        W43014  11.841   8.118  17.258  0.1857 -0.1472  0.2319
99999W        W43015  30.547  20.678  26.060 -0.1280  0.2885  0.1701
    0W        W43016  25.773  23.351   8.635 -0.0934 -0.0900  0.4004
    1W        W43017  32.745   7.015   2.841  0.1617  0.0574  0.1808
    2W        W43018  27.936   0.429  18.911  0.3350 -0.0544 -0.1264
    3W        W43019  25.054   1.665   0.893  0.1040  0.1002 -0.0283
    4W        W43020  10.437  34.059  17.875 -0.2749  0.0477 -0.2999
    5W        W43021  26.188  24.228   8.567 -0.0644  0.2691  0.3614
    6W        W43022  24.189   8.775   1.774 -0.0051  0.0386  0.0833
    7W        W43023  18.726  12.001   6.460  0.2170  0.0597  0.1201
    8W        W43024  21.705  14.131   8.017 -0.0317 -0.2532  0.0928
    9W        W43025  31.028   6.871   8.545  0.2349 -0.1368 -0.0305
   10W        W43026   0.084  12.776  26.282  0.0764 -0.0900  0.0315
   11W        W43027  25.276  21.774  28.081 -0.2898 -0.0324 -0.3842
   12W        W43028   8.572  18.101  22.476  0.1535  0.0873 -0.1740
   13W        W43029  30.599  34.278  24.036 -0.1174  0.1369  0.2729
   14W        W43030  18.219  31.311  16.348 -0.1512  0.0828  0.1133
   15W        W43031   2.436  27.269   5.745  0.3544 -0.0241 -0.0564
   16W        W43032  24.424   0.930  10.957 -0.1551  0.0698 -0.0839
   17W        W43033  15.805   8.877   1.093  0.2030  0.1734  0.1431
   18W        W43034   9.434   9.118  18.745 -0.1726  0.0436  0.2148
   19W        W43035  29.299  29.022   7.143 -0.0056 -0.0092  0.0035
   20W        W43036  28.043  26.559  20.499  0.2339  0.2355 -0.1633
   21W        W43037  19.273  28.204  27.997  0.2024 -0.0845 -0.0402
   22W        W43038  29.127  34.396   2.890 -0.0440  0.2146 -0.1770
   23W        W43039   5.320  32.515  19.612 -0.0365  0.0019  0.3938
   24W        W43040  19.675   4.092  18.801  0.0497  0.1839  0.0107
   25W        W43041  22.812  31.777  26.596  0.5905 -0.0892  0.2346
   26W        W43042  19.340  10.853  13.183  0.1946  0.1932  0.1856
   27W        W43043  22.665   0.404  20.264 -0.2265 -0.0381  0.0415
   28W        W43044  14.493  30.404  27.347  0.0338  0.0496  0.5101
   29W        W43045  13.144  28.683  24.281  0.1095  0.1184  0.1174
   30W        W43046  25.646  14.318   8.390  0.0492  0.1579  0.0593
   31W        W43047  30.537   7.297   5.288  0.3199  0.0759 -0.1882
   32W        W43048  30.743  16.516  27.609  0.1861 -0.1566  0.1695
   33W        W43049   8.836  29.618  22.829  0.0571 -0.0068  0.0902
   34W        W43050   3.551   6.783  16.521 -0.0939  0.1457  0.2649
   35W        W43051  24.658   3.269  25.313  0.0137  0.0776 -0.0391
   36W        W43052  12.775  33.876  19.571 -0.1812 -0.1567 -0.3418
   37W        W43053  28.352   0.788   4.236 -0.0993 -0.1870 -0.1806
   38W        W43054  20.192  13.202  27.032 -0.0538  0.3183 -0.0861
   39W        W43055  17.806  22.343  24.553 -0.1326 -0.2511 -0.0905
   40W        W43056   9.929   7.815   2.941  0.4397  0.2525  0.1179
   41W        W43057  27.569   2.637   6.222 -0.2116 -0.1026 -0.0449
   42W        W43058  21.422  30.824   3.178  0.1930  0.1118 -0.0013
   43W        W43059   7.089   6.149   2.828 -0.2881  0.1020 -0.0613
   44W        W43060   9.655  19.485  16.723 -0.2545  0.4322  0.1441
   45W        W43061  31.677  13.292  24.518  0.1536 -0.1823  0.1221
   46W        W43062  30.539   0.706   6.396 -0.4503 -0.1284 -0.1087
   47W        W43063   6.311   5.432  24.239 -0.0099  0.3280 -0.3006
   48W        W43064  12.268  21.186  19.862 -0.0390 -0.0102 -0.2723
   49W        W43065  17.879  16.431  15.047  0.3276 -0.0753 -0.1195
   50W        W43066  25.318  11.200   1.008  0.2646  0.2603  0.1112
   51W        W43067   9.803  12.834   0.632  0.0643  0.4062 -0.0269
   52W        W43068  18.237  22.963  20.996 -0.0036 -0.1984  0.0356
   53W        W43069  22.318  33.624   4.799 -0.0984  0.0528  0.1246
   54W        W43070  30.090   9.579  18.741  0.4202 -0.1294 -0.0353
   55W        W43071  21.323  30.858   6.308 -0.0551 -0.2123  0.0389
   56W        W43072  13.596  30.972   8.906 -0.0131 -0.1430  0.2755
   57W        W43073  10.787   4.322   3.807 -0.3359 -0.0081 -0.3405
   58W        W43074  13.001  30.091   8.128 -0.2788 -0.0385 -0.0220
   59W        W43075  18.724  25.580   4.803 -0.1519  0.1815 -0.1312
   60W        W43076  16.103   3.398  23.097  0.0756 -0.0133  0.2099
   61W        W43077  16.068  12.950  26.643  0.3665 -0.2030  0.1450
   62W        W43078  30.591   1.815  26.129 -0.3422  0.3081  0.1369
   63W        W43079  24.770   9.807  10.062 -0.0471 -0.1448 -0.2171
   64W        W43080  10.817  30.523   8.952 -0.1108 -0.1162  0.1348
   65W        W43081  18.828  12.133  11.855  0.2314 -0.0835  0.0829
   66W        W43082   5.239  30.746   7.979 -0.0700 -0.1437  0.0273
   67W        W43083  24.335   4.692  26.304 -0.2547 -0.0340 -0.2443
   68W        W43084  34.263  13.729  27.991 -0.1082 -0.2424 -0.4014
   69W        W43085  20.080  13.614  26.138 -0.0608 -0.1577  0.1106
   70W        W43086  24.160   6.157   6.068  0.1064 -0.0638 -0.2905
   71W        W43087  23.044   1.514   4.319 -0.1470 -0.2270  0.2379
   72W        W43088   9.266   2.166  22.550 -0.0596 -0.1068  0.0546
   73W        W43089   5.382  12.412  27.609 -0.0708 -0.1763 -0.0473
   74W        W43090  13.166  28.207   9.525 -0.3315 -0.0620 -0.1316
   75W        W43091   0.048  31.250  25.653 -0.2662 -0.2999 -0.2554
   76W        W43092  24.454  29.253   0.352  0.2850  0.1397  0.2664
   77W        W43093  25.268  26.512  26.096 -0.1376  0.0406  0.0480
   78W        W43094  32.446  32.810  11.022  0.2080 -0.3033  0.2461
   79W        W43095  20.891   2.638   3.366  0.1451  0.0219 -0.0745
   80W        W43096  32.345  26.251   7.551  0.1831 -0.2885  0.1369
   81W        W43097  23.700  18.731  17.143 -0.0231  0.3580 -0.1816
   82W        W43098   9.395   3.026   1.026  0.1738 -0.1270 -0.0400
   83W        W43099  10.293  16.209   5.355 -0.0252  0.2046 -0.2702
   84W        W43100  20.951   3.677  10.774 -0.0500 -0.4681 -0.3606
   85W        W43101  26.819  25.093  15.140  0.1484 -0.1100 -0.1010
   86W        W43102  25.234  28.663  22.879  0.0078  0.0542  0.2816
   87W        W43103  20.609   0.541   4.118 -0.3835 -0.2234  0.1637
   88W        W43104  15.338  28.529  27.163 -0.3426  0.0272 -0.0771
   89W        W43105  16.139  34.565   9.252 -0.0235 -0.1109  0.1388
   90W        W43106  21.724  24.263   3.998  0.0150  0.1233  0.1148
   91W        W43107  30.427   9.026  23.322 -0.2880 -0.1293  0.3301
   92W        W43108   6.778  18.916   4.223 -0.0655 -0.1793  0.2106
   93W        W43109  10.831  27.772  26.337  0.0458 -0.0483 -0.2731
   94W        W43110  14.664  30.062   6.813  0.1248  0.1383  0.0932
   95W        W43111   6.616   6.259  27.551  0.2088 -0.1381  0.2858
   96W        W43112  27.866  10.945   3.984 -0.0419  0.1880 -0.1150
   97W        W43113  26.940  31.717   1.722  0.1820  0.0843  0.0029
   98W        W43114  14.465  27.010  28.526 -0.2077 -0.1355 -0.2421
   99W        W43115   3.041  12.435  20.670 -0.3875 -0.4518 -0.0800
  100W        W43116  16.255   6.464  18.328 -0.3489  0.0549 -0.1436
  101W        W43117   0.556  25.362  16.585 -0.2291 -0.1068  0.0453
  102W        W43118  22.494  19.093   3.144  0.0656  0.0940  0.0710
  103W        W43119  14.312  27.489  26.678 -0.0424  0.3366 -0.1194
  104W        W43120  18.958  23.188  19.966 -0.0233 -0.2213  0.2180
  105W        W43121  28.534  33.486   2.717 -0.1066 -0.2441 -0.1218
  106W        W43122  14.395  32.048  16.149 -0.1800  0.1563 -0.1777
  107W        W43123  30.272   5.755  16.144  0.0083 -0.1598 -0.1488
  108W        W43124  26.274  31.121  15.866 -0.1853  0.1263 -0.0235
  109W        W43125   3.518  25.198  22.173 -0.0712  0.4812 -0.0509
  110W        W43126  30.990   0.059  26.211 -0.0174 -0.2232 -0.0235
  111W        W43127  14.265   9.618  22.984  0.1267 -0.2061 -0.4346
  112W        W43128  12.343  13.401  24.009 -0.1752  0.1328 -0.1347
  113W        W43129  16.215  29.217  19.084  0.0232  0.2417 -0.1976
  114W        W43130  10.333  31.025  16.040  0.2371 -0.2715  0.0190
  115W        W43131  11.610  12.090  22.458  0.1011  0.0358  0.1749
  116W        W43132   5.093  28.537  21.885 -0.2824 -0.0297 -0.1937
  117W        W43133  28.784  21.870  21.031  0.2466  0.1136  0.2083
  118W        W43134  24.383  29.250  21.942  0.2155 -0.2244  0.3896
  119W        W43135  26.943  11.106  17.372 -0.3769  0.2247  0.0666
  120W        W43136  20.024  13.000  21.953  0.2174 -0.0221  0.3112
  121W        W43137  19.427   2.963  14.726 -0.0244  0.4286 -0.2093
  122W        W43138   7.780   4.853  18.718  0.0889  0.1211 -0.5194
  123W        W43139  30.341   4.863  27.348  0.0299  0.2232 -0.2876
  124W        W43140  33.863   5.076  26.457  0.0553 -0.2740 -0.3364
  125W        W43141   6.053  33.669  15.816 -0.1715 -0.1346  0.0863
  126W        W43142  10.402  19.296  23.468  0.2279  0.1907  0.1365
  127W        W43143  23.703   3.606  23.821  0.4253 -0.2290  0.2360
  128W        W43144  20.014  10.531  20.898 -0.0341  0.1270  0.1234
  129W        W43145  18.358   3.122  26.346 -0.1413 -0.0516  0.0612
  130W        W43146  23.240   5.957  21.257  0.1604 -0.1385  0.1971
  131W        W43147   5.962   2.992  20.546 -0.0523  0.0501  0.1373
  132W        W43148  14.118  18.277  15.055  0.0164 -0.2407  0.0841
  133W        W43149   3.195  20.066  24.220  0.1179 -0.1306 -0.2452
  134W        W43150  29.257  12.897  18.564 -0.0703 -0.2535  0.0674
  135W        W43151  33.786   2.880  18.885  0.0246  0.1804 -0.1449
  136W        W43152  34.604   9.780   3.923  0.0562  0.1274  0.2054
  137W        W43153  15.234  32.039  17.086  0.0404  0.2721  0.1113
  138W        W43154  21.311  11.283  15.856  0.2075 -0.0510 -0.0182
  139W        W43155  21.863  29.090  26.011  0.1682  0.1423 -0.1254
  140W        W43156  26.198  28.705  18.953  0.0555 -0.0423  0.1490
  141W        W43157  33.485  12.501  26.213  0.0443 -0.0593  0.1626
  142W        W43158  25.241   0.949  22.888 -0.0922 -0.1128  0.1644
  143W        W43159  14.700   9.083  18.710  0.1078  0.0924  0.1228
  144W        W43160   6.345  33.795  26.708  0.0095 -0.0367 -0.1486
  145W        W43161  16.874   7.377  23.308 -0.0882  0.0755  0.0473
  146W        W43162  29.869   8.484  22.617  0.0507  0.1828  0.1300
  147W        W43163  26.679  32.775  19.065  0.1706 -0.1188  0.1404
  148W        W43164   3.998  32.469  13.907 -0.0625 -0.2159  0.2863
  149W        W43165  23.563  10.331  19.291  0.1532  0.1048 -0.0157
  150W        W43166  20.209  25.951  19.171  0.0062  0.2723 -0.2291
  151W        W43167  23.569  11.378  16.074  0.0877  0.1188  0.0721
  152W        W43168  26.990  11.453  14.717  0.4338 -0.2503  0.0433
  153W        W43169  18.250   1.758  24.698 -0.1234 -0.0637  0.1738
  154W        W43170  28.581  12.260  20.330  0.0490  0.0037 -0.0596
  155W        W43171  10.912   3.245  14.993  0.2310 -0.0926 -0.1457
  156W        W43172  22.109   2.908  18.538  0.3488  0.1730 -0.1561
  157W        W43173  31.469   1.336  23.424  0.2533 -0.1543 -0.4672
  158W        W43174  20.618   7.227  17.102  0.1647 -0.0362  0.1210
  159W        W43175  28.681   1.229  19.976 -0.1615  0.1560  0.0243
  160W        W43176  11.035  16.609  17.087 -0.1040 -0.0071 -0.1262
  161W        W43177  16.620  12.980  12.482  0.2135  0.2415  0.0628
  162W        W43178  24.337  33.734  17.453  0.1029  0.0795 -0.0218
  163W        W43179  16.382   2.645  18.721  0.0218 -0.4669  0.2115
  164W        W43180  23.773   4.133  17.436 -0.0928  0.0862 -0.0232
  165W        W43181   1.622  29.353  24.519  0.1678  0.1808  0.1121
  166W        W43182  23.456  31.700  19.032 -0.2313  0.0804  0.0815
  167W        W43183  25.366  14.394  27.496  0.2514 -0.1269 -0.0318
  168W        W43184   9.304  18.359   6.719 -0.3017  0.1649 -0.2087
  169W        W43185  19.438   6.566  18.741  0.2281 -0.2347  0.0578
  170W        W43186  18.599   1.195  16.520  0.2814 -0.3560  0.1369
  171W        W43187  29.437   8.264  25.542  0.1363  0.2179  0.0275
  172W        W43188  31.924  12.090  21.489 -0.1863 -0.1957 -0.3816
  173W        W43189  22.692  29.164  24.638  0.0490  0.2371  0.1808
  174W        W43190  19.928   3.242   0.690  0.2796  0.1972  0.1902
  175W        W43191  11.547  10.067  15.627 -0.0544  0.0859 -0.1885
  176W        W43192  20.532  11.073  17.083 -0.2144  0.1630 -0.1095
  177W        W43193  23.659  32.887  18.737 -0.1989 -0.2360  0.3091
  178W        W43194  22.468  15.602  13.841  0.2429  0.0324 -0.2775
  179W        W43195  25.196  16.490  18.631 -0.0968  0.1327 -0.0219
  180W        W43196  15.242   3.008  26.349 -0.3435  0.0058  0.4223
  181W        W43197  23.726   4.524  23.948 -0.0689  0.1854 -0.0094
  182W        W43198  33.737  32.312  16.018 -0.0417 -0.2111  0.0708
  183W        W43199   1.692  30.895  18.544  0.2473  0.2089 -0.0107
  184W        W43200  24.043   0.647  21.588  0.1169  0.0343 -0.0145
  185W        W43201  33.687  33.310   4.213 -0.0383  0.3248  0.0548
  186W        W43202   5.847   4.012  23.559 -0.4363  0.1705  0.0788
  187W        W43203  17.133   9.819   0.479 -0.1595 -0.1823  0.1567
  188W        W43204  27.668  33.874  22.846 -0.0616 -0.1724  0.1021
  189W        W43205   1.764  31.854  16.057  0.1817 -0.0578  0.2517
  190W        W43206  27.054  10.009  18.127  0.0647 -0.2247  0.0549
  191W        W43207  27.342  20.747   3.583  0.1373  0.1962 -0.2897
  192W        W43208  13.739  17.161  14.455  0.4253 -0.1513 -0.1191
  193W        W43209   0.942  33.197  23.487  0.2365 -0.2533 -0.0820
  194W        W43210   8.745  11.241  15.065 -0.2955 -0.1125  0.0845
  195W        W43211  11.181  25.943  25.914  0.1972 -0.1487  0.0030
  196W        W43212  23.655   0.011  20.893 -0.1794 -0.4232  0.0278
  197W        W43213  11.113  33.293  16.274  0.4656  0.0138  0.2795
  198W        W43214  22.303  26.405  20.168  0.0955  0.0425 -0.0179
  199W        W43215  27.484   1.785  15.501 -0.0495  0.0204 -0.0674
  200W        W43216   6.051  33.735  20.350 -0.0631 -0.0125 -0.0092
  201W        W43217  14.356   3.104  13.688 -0.1112 -0.3183  0.2857
  202W        W43218   1.057   0.082  22.543  0.0309 -0.0172  0.0282
  203W        W43219   4.359  17.534  21.545  0.0173 -0.0917 -0.1101
  204W        W43220   8.339  13.821  16.145 -0.0474  0.0651  0.2654
  205W        W43221   8.148  22.304  15.395  0.0839 -0.2766  0.1748
  206W        W43222  20.915   3.007  16.399 -0.0760 -0.2770  0.0301
  207W        W43223  26.298   2.170  17.686  0.0211 -0.1892 -0.0116
  208W        W43224  20.545  13.833  17.701  0.0146 -0.2137  0.1742
  209W        W43225  28.133   7.951  23.226 -0.2327  0.2096  0.1133
  210W        W43226   8.882  14.448  18.341  0.2525  0.0627  0.2357
  211W        W43227  17.967   4.832  21.175  0.0161  0.1655 -0.0777
  212W        W43228  16.231   5.213  14.443  0.0667 -0.1813 -0.0912
  213W        W43229  18.686  34.132  16.768 -0.2582 -0.0647 -0.1031
  214W        W43230   0.073  18.287  21.140 -0.2068  0.0498  0.2490
  215W        W43231  25.085  29.481   2.344 -0.1552 -0.1269 -0.0720
  216W        W43232   4.819  21.151  17.102  0.1204  0.2653  0.0144
  217W        W43233  13.950   7.344  14.218 -0.0783 -0.2540 -0.3428
  218W        W43234  17.980  16.035  28.079  0.0497  0.2767  0.2258
  219W        W43235  18.497   7.386  22.990  0.0402 -0.1295 -0.1905
  220W        W43236  28.903  10.349  19.420 -0.2533 -0.0053  0.0101
  221W        W43237  21.142   8.484  20.033 -0.3426 -0.0701 -0.2235
  222W        W43238  32.085   3.521  16.932  0.2331  0.1365 -0.2785
  223W        W43239  16.621  34.070  17.790 -0.0123 -0.0470 -0.2965
  224W        W43240  23.467   5.364  15.307 -0.0801 -0.1657  0.3419
  225W        W43241   4.652   0.672   6.331  0.1158  0.0068 -0.1142
  226W        W43242  26.517   7.268  23.669 -0.0332 -0.0224 -0.2568
  227W        W43243   6.480   6.358  19.799  0.0392 -0.2383  0.3139
  228W        W43244  31.773   2.444  24.447 -0.0966  0.2188  0.0628
  229W        W43245  25.681   0.242  16.440 -0.3637 -0.0721 -0.0918
  230W        W43246  31.924  32.758  24.397 -0.2371  0.0988 -0.0430
  231W        W43247  20.312   1.985  17.905 -0.1404  0.1083 -0.0482
  232W        W43248   2.716   1.026  24.309 -0.1563  0.0671  0.2891
  233W        W43249  19.337  28.159  19.678 -0.8021  0.0938 -0.2392
  234W        W43250  19.192  34.698  15.287 -0.0096  0.0461  0.1565
  235W        W43251  17.255  14.364  13.666 -0.1697  0.2453 -0.1445
  236W        W43252  24.460  32.011  19.788  0.0814  0.3349 -0.1540
  237W        W43253  11.008  21.233   0.908  0.2771 -0.0084 -0.1214
  238W        W43254  13.968  32.815  14.165  0.0550  0.0902 -0.0957
  239W        W43255   1.290  18.540  22.116  0.0035 -0.1674  0.0444
  240W        W43256  29.530  32.170  18.035  0.1208 -0.0640 -0.0470
  241W        W43257  14.389   5.495  21.911  0.1264 -0.0508  0.0118
  242W        W43258   7.938  29.504   3.651  0.1141  0.1921 -0.0012
  243W        W43259   9.470   5.108  18.366  0.2098 -0.2189 -0.1186
  244W        W43260  11.120   9.266  27.385 -0.0354 -0.1247 -0.0201
  245W        W43261  18.855  23.064  23.729 -0.0824 -0.1017  0.0138
  246W        W43262  23.559  33.792  20.090 -0.0756  0.0904 -0.0036
  247W        W43263  13.674   8.226  24.629  0.0301  0.1970  0.3140
  248W        W43264   8.695   5.645  19.576  0.2636 -0.0528  0.2382
  249W        W43265  10.521  15.934  17.064  0.2357  0.0729  0.0757
  250W        W43266  29.834  18.495  25.889  0.0994  0.0998 -0.0447
  251W        W43267  32.464   3.126  18.678  0.1972 -0.0282 -0.0839
  252W        W43268   0.010  20.759  25.842 -0.1299 -0.0949  0.0154
  253W        W43269  33.663  20.048  22.574 -0.1880  0.4329  0.0571
  254W        W43270  30.324   6.893  20.279 -0.1921  0.0662 -0.2671
  255W        W43271  13.712  32.286   1.340 -0.0725  0.0817 -0.1508
  256W        W43272   1.407  27.967  15.706 -0.0312  0.0179  0.0552
  257W        W43273  16.791  27.794  22.611 -0.1758 -0.1895  0.1675
  258W        W43274  34.641   8.041  14.875  0.1064  0.0778  0.0932
  259W        W43275  30.190  29.916  23.745  0.0867  0.3099  0.0245
  260W        W43276  23.561  12.866  15.051  0.1171  0.0529  0.0457
  261W        W43277  26.120   6.317   0.727  0.3966  0.2860 -0.0398
  262W        W43278   5.902  10.129  26.331  0.0023 -0.1161 -0.0771
  263W        W43279   1.976   4.594  17.898 -0.0764  0.1182 -0.0928
  264W        W43280  26.222   3.920  18.026  0.1056  0.1751 -0.1555
  265W        W43281  26.354  20.347   4.687  0.0268  0.3129  0.0908
  266W        W43282  11.724  30.048  24.625 -0.1594  0.2154 -0.0986
  267W        W43283  30.511  34.641  24.979 -0.1868 -0.1040  0.1369
  268W        W43284  19.605  33.334   3.159 -0.0891 -0.1490 -0.0634
  269W        W43285  30.557  15.548  14.410  0.0961  0.1879 -0.0846
  270W        W43286  19.922   4.503  26.734  0.0771  0.2458 -0.1494
  271W        W43287  23.988   5.901  16.154 -0.2922 -0.0108  0.2404
  272W        W43288  30.710  32.888  21.765 -0.0222  0.1782  0.2263
  273W        W43289  15.309  26.985  10.303  0.1403 -0.0701  0.0330
  274W        W43290  22.493   7.985  18.559 -0.2930 -0.2625  0.0255
  275W        W43291  17.057   5.768  23.365  0.0832 -0.1122 -0.0971
  276W        W43292   4.337   3.882  17.743  0.1199 -0.0720  0.0311
  277W        W43293  23.060   3.445  21.372 -0.3353  0.4018  0.0980
  278W        W43294  26.542  20.061  18.431  0.0107  0.1301 -0.1482
  279W        W43295  26.030   1.202  21.436 -0.2873  0.2031  0.1805
  280W        W43296   1.427  15.629  15.450  0.0522 -0.1048 -0.0376
  281W        W43297  16.922  10.788   3.921  0.2232  0.1837 -0.0448
  282W        W43298  27.850   4.966  20.257  0.3379  0.1085 -0.2534
  283W        W43299  32.419  27.461  19.080 -0.2535  0.0791  0.0778
  284W        W43300  32.020  10.552  24.055 -0.2151 -0.0315  0.0388
  285W        W43301  10.857  32.581   1.270 -0.4733  0.0397 -0.1314
  286W        W43302  24.769  14.579  28.300 -0.0266 -0.0987 -0.0655
  287W        W43303  29.157  18.472  18.212 -0.0418  0.0998  0.1984
  288W        W43304  15.744  10.452  15.518  0.0083 -0.0356  0.2686
  289W        W43305  13.115  12.130   5.907  0.1119  0.0276  0.2134
  290W        W43306  22.934   2.805   9.061 -0.2352 -0.0457 -0.1615
  291W        W43307  22.624   9.696  15.329 -0.1643  0.2234 -0.1028
  292W        W43308  18.323   7.096  18.831  0.2761  0.0266 -0.0074
  293W        W43309  14.443   7.288  23.095  0.1765  0.2339  0.2624
  294W        W43310  25.843  27.830  17.887 -0.0648  0.0637 -0.0665
  295W        W43311  19.614  12.862  14.077  0.0702  0.2642 -0.1079
  296W        W43312  28.238   5.132   2.987 -0.1281 -0.0354 -0.2142
  297W        W43313  20.083  32.355  19.657 -0.0110  0.1032 -0.0035
  298W        W43314  27.450  31.076  17.124 -0.0012  0.1132  0.2101
  299W        W43315  31.723   9.196  17.898 -0.0844  0.2145 -0.0017
  300W        W43316  23.832  10.162  24.774  0.3521 -0.0170  0.0647
  301W        W43317  13.160  23.388  23.609  0.1588  0.1680  0.4974
  302W        W43318  30.595   6.636  17.166 -0.0415  0.0162  0.2224
  303W        W43319  31.465  10.434  17.125 -0.0601  0.0083  0.1192
  304W        W43320  31.258   2.920   1.981  0.1436 -0.3329 -0.1654
  305W        W43321  34.562   0.124  17.148 -0.2738 -0.0238  0.1578
  306W        W43322  31.713  11.971  24.708 -0.0554 -0.1882  0.1055
  307W        W43323  19.491  32.553  28.817  0.1066  0.0359  0.4388
  308W        W43324  28.497  31.021  20.050 -0.2356  0.2953  0.2228
  309W        W43325   9.710   3.205  17.868  0.1855  0.3921 -0.0684
  310W        W43326  23.416   3.757  20.189  0.1791 -0.0468  0.1265
  311W        W43327  29.660  33.551   5.604  0.0335 -0.0238  0.2675
  312W        W43328  21.013   8.222  22.912 -0.1957  0.2588  0.1102
  313W        W43329  15.385   4.288  19.870  0.2047  0.0818 -0.1891
  314W        W43330  14.614  34.676  23.222 -0.0362  0.0078  0.1746
  315W        W43331  17.816  25.664   1.573  0.1246 -0.2518 -0.2447
  316W        W43332  22.974  30.156  25.007  0.3919 -0.3603  0.0683
  317W        W43333  28.758  14.559  14.379 -0.2022  0.2422  0.1587
  318W        W43334   0.348  14.295  21.837 -0.1089 -0.1519  0.1375
  319W        W43335  21.593  24.143  26.912 -0.0467 -0.1870  0.0606
  320W        W43336  30.906   9.723   3.272 -0.0387  0.2637 -0.2253
  321W        W43337  22.100   4.182  25.346 -0.3807  0.0351 -0.1829
  322W        W43338  27.334  11.293  24.701 -0.1810  0.1495  0.1075
  323W        W43339  11.132   3.431  22.282  0.0047  0.1122 -0.3470
  324W        W43340  17.775  27.122  23.205 -0.0784 -0.1771 -0.4325
  325W        W43341  17.831  17.318  15.352 -0.4261  0.3641 -0.1662
  326W        W43342  34.529  12.931  22.267  0.2104 -0.0440 -0.2849
  327W        W43343  31.836   6.705  24.175  0.3680  0.0250  0.1898
  328W        W43344  20.553  34.615  19.525 -0.0265  0.1849  0.3410
  329W        W43345   2.555  20.563  19.708 -0.3068  0.1041 -0.0062
  330W        W43346   3.843   5.274  16.221  0.1686 -0.0182  0.0365
  331W        W43347  19.597  18.564  26.669 -0.0607 -0.0218  0.1063
  332W        W43348   9.042  30.790  19.318  0.2217  0.0904 -0.0500
  333W        W43349  29.702   2.285  22.018  0.0877 -0.0940  0.0954
  334W        W43350  32.964   6.023  21.360 -0.0242 -0.0114  0.0443
  335W        W43351  25.325  18.066  17.984 -0.0072 -0.1387 -0.1566
  336W        W43352   4.083   0.235  16.335  0.0982 -0.0037  0.2059
  337W        W43353  20.194  11.485  22.255  0.0320  0.1400 -0.0021
  338W        W43354  14.462   6.868  18.618 -0.0083 -0.1799  0.0151
  339W        W43355  28.560   2.158  23.559  0.0187 -0.1515  0.1787
  340W        W43356   0.715   8.776   8.720  0.1286 -0.0910  0.1145
  341W        W43357  28.844   6.822  18.110  0.2711  0.0589  0.0471
  342W        W43358  12.346  34.209  17.263  0.0136 -0.0592 -0.0759
  343W        W43359  11.238  30.421   9.130 -0.0581 -0.0535 -0.1925
  344W        W43360  27.866   1.881  23.923 -0.1144  0.1250  0.3940
  345W        W43361   1.113  26.673  20.478 -0.0368  0.0086 -0.0652
  346W        W43362  15.140   8.115  19.274  0.2135  0.1472 -0.1911
  347W        W43363  16.691  11.726  25.839  0.0109 -0.2925  0.0947
  348W        W43364  12.501   2.487  20.024 -0.0400  0.2178  0.2225
  349W        W43365  28.016  28.689  22.715  0.2775 -0.0236 -0.3244
  350W        W43366  21.686   0.051  15.514  0.1825  0.0756  0.1599
  351W        W43367  26.579   6.952  15.127 -0.0823 -0.0021 -0.3204
  352W        W43368  18.644   7.962   2.660 -0.0253  0.1623  0.2088
  353W        W43369  26.793   1.759   1.589  0.4188  0.0028 -0.1413
  354W        W43370  25.632  32.755  23.744 -0.0515  0.0150 -0.0656
  355W        W43371   2.768   9.990  15.624 -0.1884  0.1992 -0.1902
  356W        W43372  19.024  33.378  22.593 -0.1655 -0.3441 -0.0167
  357W        W43373  27.529   2.616  19.129 -0.3128  0.1422 -0.3931
  358W        W43374  33.133   8.730  19.930 -0.1243 -0.1823  0.0681
  359W        W43375  25.091   7.558  23.705 -0.5175  0.4257  0.3735
  360W        W43376  20.476   1.010  17.554 -0.0582  0.2536  0.1642
  361W        W43377  24.460  25.936  25.394  0.2816 -0.4325 -0.0235
  362W        W43378   6.424   8.399  17.061 -0.1412  0.1151  0.3728
  363W        W43379  32.940  28.277  27.886  0.1582 -0.2125 -0.3502
  364W        W43380  28.111  13.479  28.015  0.0630  0.2660 -0.2228
  365W        W43381   8.569   8.644  17.310  0.1905  0.0714 -0.2523
  366W        W43382  29.529  11.629  19.186  0.1739 -0.3634  0.1343
  367W        W43383  26.060   3.552  19.626 -0.1124  0.1096 -0.1696
  368W        W43384  24.628  10.477  19.721 -0.1663 -0.0520 -0.2920
  369W        W43385  21.863   4.854  29.291  0.0975  0.0284  0.0224
  370W        W43386   3.672  20.063  16.169 -0.0721 -0.0149  0.0843
  371W        W43387  33.650   8.192  18.013 -0.0849  0.1034 -0.1932
  372W        W43388  30.790  12.805  20.068  0.0206 -0.1607  0.1062
  373W        W43389  10.799   4.410  22.288 -0.0517 -0.1684 -0.2023
  374W        W43390  11.373   7.925  13.360  0.1799  0.1429  0.0093
  375W        W43391  17.768  31.517   8.155  0.0534 -0.0371 -0.2570
  376W        W43392  27.324  33.038  19.461 -0.1883  0.3711  0.1245
  377W        W43393   6.661   1.879  22.927  0.0529  0.0065 -0.2237
  378W        W43394   3.236  16.972  14.195 -0.0601 -0.0568 -0.1250
  379W        W43395  23.107   8.006   2.835  0.1759 -0.1459 -0.0443
  380W        W43396  12.286   6.424  20.719 -0.0634  0.1157  0.2046
  381W        W43397  16.783  30.968   8.092 -0.0553 -0.0935 -0.0384
  382W        W43398  29.439  33.327  19.996  0.0610  0.0709  0.5109
  383W        W43399   2.192  26.170  19.543 -0.2189  0.2438 -0.3087
  384W        W43400  20.386   2.650   5.654 -0.1456  0.0921  0.0693
  385W        W43401  16.456   4.978  22.781 -0.1180  0.0762  0.2810
  386W        W43402  27.136  23.671  21.560  0.1205 -0.1511 -0.0119
  387W        W43403  32.125  25.115  28.746 -0.1089  0.1509  0.0280
  388W        W43404  28.318  10.090  26.534  0.0442 -0.1806 -0.4192
  389W        W43405  12.604   1.843  26.723  0.2968  0.1733  0.2016
  390W        W43406  18.218  12.547  14.209  0.3527  0.0400 -0.2662
  391W        W43407  22.989   8.785  15.304  0.2703  0.1508 -0.1232
  392W        W43408  25.524  32.174   1.679  0.1980 -0.1465 -0.2581
  393W        W43409  20.569  24.027  15.147 -0.1354  0.3469  0.2442
  394W        W43410  12.979   6.859  20.787 -0.1959  0.2365 -0.1425
  395W        W43411   1.108   9.747  14.434 -0.0024 -0.2210 -0.1548
  396W        W43412   3.781  34.162   2.358  0.2328 -0.4492  0.1250
  397W        W43413  34.725  12.992  15.475  0.0366  0.0231 -0.3207
  398W        W43414  16.285   9.826  20.383 -0.0288 -0.1181  0.2394
  399W        W43415  24.860   7.127  16.497  0.0257 -0.0687 -0.1954
  400W        W43416  26.292   7.563  22.758 -0.1746 -0.1637 -0.0690
  401W        W43417   6.517  25.704  27.107 -0.0304  0.0291  0.2202
  402W        W43418  14.511   5.025  21.656 -0.0382 -0.0407  0.1144
  403W        W43419  23.674  10.125  23.335  0.2248 -0.0599 -0.1289
  404W        W43420   0.251   6.817   0.921 -0.0472  0.5208  0.1304
  405W        W43421  33.863  14.322  20.758  0.1540 -0.1597  0.4321
  406W        W43422  31.060   2.040   6.540 -0.0170  0.2006  0.3802
  407W        W43423  28.942  12.829  10.090  0.1301 -0.1544  0.0632
  408W        W43424  23.648  14.094  27.657 -0.0020 -0.0782 -0.0466
  409W        W43425  28.332  12.349   7.665 -0.1248 -0.1059  0.0748
  410W        W43426   3.558  19.225  26.267 -0.1163 -0.0121 -0.0320
  411W        W43427   3.526  14.420   5.124  0.0849  0.0368 -0.1031
  412W        W43428  32.209  11.266  21.831 -0.5548 -0.0592  0.1008
  413W        W43429  23.376  34.284  22.961  0.0479  0.0600  0.1715
  414W        W43430  17.797  32.720  24.173  0.0143  0.1884  0.0291
  415W        W43431  16.518  13.057  25.127 -0.0096  0.0873  0.3562
  416W        W43432  21.261  10.791  15.794  0.0692  0.1139  0.0656
  417W        W43433  34.540  15.453  27.822  0.3039  0.3932 -0.1166
  418W        W43434  27.481   1.912  26.471  0.1028 -0.0340  0.0028
  419W        W43435  23.902   8.045  26.277  0.0317  0.0952 -0.2074
  420W        W43436  12.454  26.982  16.532  0.2681 -0.0270  0.0138
  421W        W43437  20.151  22.116  14.347  0.0098 -0.2794  0.1649
  422W        W43438  22.760   3.095  20.287  0.1750  0.2568 -0.0932
  423W        W43439  14.662  29.839  21.693  0.1755 -0.4661  0.3708
  424W        W43440   2.487  31.820   8.361 -0.1471  0.3678 -0.0244
  425W        W43441  19.101   3.603  14.016  0.3949 -0.2619 -0.2946
  426W        W43442  16.255  13.321  23.125  0.0185 -0.1023 -0.0766
  427W        W43443  12.362  12.426  14.070 -0.0843 -0.2630 -0.0649
  428W        W43444  18.319   3.359   6.376 -0.0886 -0.0514  0.2997
  429W        W43445  21.167   3.970  25.151 -0.1869 -0.0877 -0.0433
  430W        W43446  17.126   7.725  14.827 -0.0739  0.1301  0.1075
  431W        W43447  32.552   8.784  28.646 -0.0680  0.1097 -0.0154
  432W        W43448  27.134  16.753  25.043 -0.0411 -0.3981 -0.0037
  433W        W43449  12.242   3.340  23.280  0.0132  0.0026 -0.0358
  434W        W43450   6.102  16.507   4.029  0.1083  0.1867  0.0722
  435W        W43451  23.982   4.739  17.828  0.1966  0.0614  0.0021
  436W        W43452  21.266   7.533  25.493 -0.2095 -0.1304  0.2600
  437W        W43453  17.846  34.552  14.256  0.0908  0.0114  0.1205
  438W        W43454  30.060   8.130  17.857  0.0475  0.2159 -0.0518
  439W        W43455   1.234   1.886  25.771  0.1108 -0.2157 -0.2234
  440W        W43456  34.443   0.709  24.267 -0.1208 -0.2029  0.0629
  441W        W43457  27.137   8.226  23.108 -0.1501 -0.0801 -0.2233
  442W        W43458  27.382   3.412   5.663 -0.1094 -0.1616  0.3989
  443W        W43459  25.268   4.480   2.964  0.0827 -0.5359 -0.0514
  444W        W43460  23.392   3.984   9.587  0.1965 -0.0799  0.1699
  445W        W43461   8.058  32.282  21.891  0.0671  0.0105  0.1418
  446W        W43462  15.266   9.636  21.818  0.4029 -0.0495 -0.1270
  447W        W43463  23.988   1.082  25.545  0.1087 -0.0512 -0.3692
  448W        W43464  30.917   9.193  27.815 -0.0127  0.2322 -0.0353
  449W        W43465  34.440   6.778  14.875 -0.2297 -0.2836 -0.1236
  450W        W43466  12.009  27.718  23.192  0.0823 -0.0993 -0.0386
  451W        W43467  29.994  13.600  24.078  0.3827 -0.0308  0.0571
  452W        W43468  20.056   2.990  13.521  0.0601 -0.1322 -0.1165
  453W        W43469  17.866  31.521  26.037 -0.0987  0.1388 -0.2166
  454W        W43470  11.157  15.523  16.374 -0.0247 -0.1704  0.0249
  455W        W43471  23.879  11.631  15.738  0.0877  0.3134 -0.1438
  456W        W43472  16.694  29.342  20.449 -0.1400 -0.1867 -0.0468
  457W        W43473  28.945  24.114  21.084 -0.2940  0.0379 -0.1221
  458W        W43474   9.469   8.213  15.621  0.1101 -0.0754  0.1381
  459W        W43475  33.172   5.139  16.693  0.0753  0.1417  0.0240
  460W        W43476  20.236   1.064  17.093 -0.2375  0.0902 -0.0197
  461W        W43477  21.861   5.222  17.395 -0.2422  0.1208  0.1166
  462W        W43478  19.502  32.593  19.853 -0.1511 -0.1402  0.0697
  463W        W43479   7.132  33.634   7.516  0.1948  0.0256 -0.1608
  464W        W43480  15.996   6.800  14.837 -0.3775  0.0846  0.5064
  465W        W43481  23.287  10.131  19.746  0.3515 -0.3393 -0.1389
  466W        W43482  20.860  30.692  18.741 -0.2228  0.0054 -0.0019
  467W        W43483  16.805  24.874  17.373  0.0743 -0.0290 -0.0023
  468W        W43484   3.408   8.197  21.222  0.0294 -0.0217 -0.3922
  469W        W43485   7.635  13.842  23.734  0.0373 -0.2589  0.3251
  470W        W43486  22.290  21.080  20.910 -0.3493  0.1187 -0.3138
  471W        W43487  23.183  16.061  17.613  0.0450 -0.3560 -0.0361
  472W        W43488  34.264  30.874  19.872 -0.2029  0.2137 -0.2780
  473W        W43489  25.759   6.940  20.136  0.3747  0.2415  0.2534
  474W        W43490  10.558  26.949  18.545 -0.0909  0.0980 -0.2852
  475W        W43491  21.940   3.752  25.622 -0.2783  0.1659  0.0639
  476W        W43492  17.690   0.029  29.223 -0.5109 -0.1681 -0.0115
  477W        W43493  25.896   4.284   3.567  0.3589 -0.0191  0.0189
  478W        W43494  17.965   1.465  15.275 -0.2488 -0.0960 -0.2437
  479W        W43495  10.663  14.827  20.104 -0.3242  0.3998 -0.2979
  480W        W43496  33.012  32.127  19.564 -0.1187 -0.3509  0.1589
  481W        W43497  26.865  28.703  25.159  0.1143  0.1195 -0.2077
  482W        W43498  23.227  22.670  19.830 -0.0768 -0.0846  0.2529
  483W        W43499  19.740  10.567  19.885  0.0326  0.0652  0.4004
  484W        W43500  23.464   0.354  21.829 -0.0454 -0.0150 -0.0582
  485W        W43501  24.851  13.531  23.571  0.1219  0.1874  0.1320
  486W        W43502  16.509   1.271  22.009 -0.0187 -0.0309  0.0942
  487W        W43503  31.768  14.993  20.619  0.0524  0.1293 -0.0592
  488W        W43504  21.052  14.257  26.450 -0.0204  0.0688  0.0381
  489W        W43505  12.410  25.454  15.971  0.2582 -0.1153 -0.0071
  490W        W43506  32.021  10.820  15.319  0.0456  0.0345 -0.1135
  491W        W43507  16.162  11.825  26.602  0.1616  0.1568 -0.1673
  492W        W43508  12.071  23.260   0.356 -0.0572  0.1841  0.1013
  493W        W43509  31.636  33.952  27.648  0.0661 -0.1275 -0.1361
  494W        W43510  20.467   1.127  10.281 -0.0097  0.4796  0.2463
  495W        W43511  22.921   6.575  17.726  0.1033 -0.1975 -0.1145
  496W        W43512  13.723   7.347  15.727  0.2212 -0.2668  0.3618
  497W        W43513   1.274   1.485  28.754  0.1860 -0.1347  0.0381
  498W        W43514  31.247  12.567   1.794 -0.1494 -0.0516  0.4842
  499W        W43515   4.222  12.088  20.179  0.0971  0.1628 -0.1622
  500W        W43516   7.655   8.017  26.066 -0.1319 -0.1586 -0.2653
  501W        W43517  17.823   2.840  15.080 -0.0617  0.4572  0.1749
  502W        W43518   4.442  28.847  17.852 -0.1781 -0.0099  0.1047
  503W        W43519  26.756   4.517   3.160 -0.2695 -0.0746 -0.0420
  504W        W43520   3.001  13.660   1.317  0.1470 -0.3256 -0.0189
  505W        W43521  17.094  32.911  14.117  0.1635  0.0550 -0.0336
  506W        W43522  29.019   5.084  20.778 -0.0257  0.1532 -0.0325
  507W        W43523  22.094  12.471  21.096 -0.0319  0.2013 -0.2715
  508W        W43524  32.648   7.188  21.573  0.0072 -0.0821 -0.2929
  509W        W43525  23.784   7.110  22.501 -0.1254 -0.0272  0.2020
  510W        W43526  29.771  11.634  22.238 -0.1549  0.1081 -0.1179
  511W        W43527  20.352  25.507  26.133  0.2731 -0.0759 -0.3896
  512W        W43528  25.543  19.232  21.778 -0.0084  0.0066  0.0646
  513W        W43529  20.171   2.970  15.831  0.0517  0.1343 -0.2747
  514W        W43530  26.623  33.221  19.751  0.0246  0.1170 -0.4197
  515W        W43531  27.260   1.932  17.114  0.3174  0.0753  0.2409
  516W        W43532  21.982   3.598  10.571  0.2351  0.0233 -0.1731
  517W        W43533   8.813   6.817  15.157 -0.3917 -0.3535 -0.0955
  518W        W43534  13.667  31.882  20.609 -0.0917 -0.0101 -0.0708
  519W        W43535   7.006   5.101  27.573 -0.0893 -0.1020  0.1594
  520W        W43536  19.381  17.944  21.879  0.0208  0.1523 -0.3379
  521W        W43537  16.040  32.873  27.777 -0.1756 -0.2098 -0.1134
  522W        W43538  15.858   1.484  22.448 -0.0022 -0.1723 -0.1711
  523W        W43539  32.496  16.056   1.749 -0.1704 -0.1098  0.0737
  524W        W43540   7.717  17.204  18.655  0.1112  0.0282 -0.0795
  525W        W43541   8.805  14.128  28.100  0.0085  0.2881  0.1248
  526W        W43542  31.598  24.135  28.785  0.0584 -0.3132  0.2737
  527W        W43543  14.210   5.730   1.759  0.0389 -0.0411  0.1924
  528W        W43544  27.485   6.388  17.802 -0.3293 -0.2755 -0.0326
  529W        W43545  30.873   5.516  20.828  0.1314  0.1522 -0.1882
  530W        W43546  17.547   2.192   4.001 -0.1902 -0.3721 -0.0657
  531W        W43547  15.831   8.325  15.301 -0.3304 -0.0676  0.1465
  532W        W43548   0.382   6.622  26.674 -0.2045 -0.0614 -0.3130
  533W        W43549  28.650  32.863   4.563  0.3017 -0.1869  0.0945
  534W        W43550  26.013  34.527   1.516 -0.1899 -0.5441 -0.0535
  535W        W43551  18.058   7.642  25.351  0.1423  0.0780 -0.1960
  536W        W43552  21.672  33.185   1.039 -0.2222  0.0417 -0.3231
  537W        W43553  33.677  18.527  19.350  0.0476  0.1156  0.0182
  538W        W43554  17.337  15.110  14.823 -0.1158  0.3365  0.4559
  539W        W43555   1.391  28.126   9.363 -0.1209  0.1139  0.2016
  540W        W43556  30.179  33.211  16.167  0.1679 -0.1873  0.0009
  541W        W43557  20.893  10.475  26.248  0.1556  0.1866  0.0069
  542W        W43558  31.395  13.604  21.102 -0.3072  0.1198  0.2179
  543W        W43559  22.265  12.439  27.918  0.2583 -0.0557 -0.0656
  544W        W43560  34.005   6.519  25.027 -0.0264  0.3074 -0.0410
  545W        W43561  19.054  11.973  27.195 -0.2050  0.0952  0.0913
  546W        W43562  18.777   5.263  22.377 -0.1066 -0.0305  0.2548
  547W        W43563  25.657  19.452  22.243  0.4320  0.0357  0.0687
  548W        W43564   9.304   0.135  20.836  0.0795 -0.1032  0.0154
  549W        W43565  31.181  30.752   1.714  0.0519  0.2442 -0.1884
  550W        W43566   9.037  20.098  15.228  0.1822  0.0257 -0.0805
  551W        W43567  26.303  26.589  15.469 -0.1263 -0.3197 -0.0588
  552W        W43568  15.579   3.435  24.380  0.0456  0.3541  0.0653
  553W        W43569  20.863   6.971  18.109  0.2923 -0.0425  0.2639
  554W        W43570  29.816  11.226  21.866 -0.0569 -0.0752 -0.1260
  555W        W43571  25.838  21.335  20.131  0.2121 -0.0316  0.1235
  556W        W43572  17.467  28.546  18.097  0.0082 -0.2557  0.1793
  557W        W43573  34.027   4.753  21.714 -0.0576 -0.0502  0.0176
  558W        W43574  32.946  13.440  19.119 -0.1020 -0.2646  0.0210
  559W        W43575  21.638   0.562  26.716  0.1796 -0.2575  0.0869
  560W        W43576  23.835  11.490   5.149 -0.1205  0.1709 -0.1404
  561W        W43577  17.179  10.404  22.708 -0.4385  0.0652  0.0543
  562W        W43578  25.242   0.075   6.940 -0.2213 -0.3029  0.3554
  563W        W43579  18.641  30.356  23.557 -0.0833  0.2624  0.0435
  564W        W43580  29.149  20.179  24.065  0.3033 -0.0266 -0.1590
  565W        W43581   0.640   7.728  20.651 -0.3001  0.0362  0.1567
  566W        W43582  26.017  12.864  15.615  0.1139  0.0055 -0.1516
  567W        W43583  16.883  22.713  19.780  0.1398  0.2076  0.0960
  568W        W43584  13.062  33.691  24.333 -0.3397  0.1052  0.0091
  569W        W43585  33.585   1.570   3.008  0.0926 -0.3393  0.3821
  570W        W43586  16.254  27.706  18.571  0.2977 -0.1558 -0.0211
  571W        W43587  10.088  22.786  27.099  0.1397  0.1644 -0.1734
  572W        W43588  27.025   8.820  15.271 -0.0364  0.0270  0.1202
  573W        W43589  17.832  34.091  16.345  0.1302 -0.0050 -0.0572
  574W        W43590  20.755   0.960   5.326 -0.0684  0.1060 -0.0274
  575W        W43591  26.724   0.697   5.023  0.1763  0.4100 -0.1187
  576W        W43592  29.203  21.523   0.211  0.2475  0.1689  0.4149
  577W        W43593  12.211   4.238  23.558  0.0221  0.1310 -0.2862
  578W        W43594  17.701   0.882  18.762 -0.1896  0.1124 -0.3068
  579W        W43595  26.772  14.926  17.026 -0.0235  0.3954  0.0857
  580W        W43596   1.662  10.914   8.915 -0.5909 -0.2713 -0.2258
  581W        W43597  12.954   2.223  26.482 -0.1476  0.0591  0.0561
  582W        W43598  26.043  27.250  24.927 -0.0820 -0.1876  0.1278
  583W        W43599  29.466  23.672  26.513  0.3497  0.0119  0.3249
  584W        W43600  29.099   5.229   9.608 -0.3555 -0.0546  0.0005
  585W        W43601  16.381  25.994  20.223 -0.2448 -0.1792 -0.2290
  586W        W43602  24.918   6.118  19.910  0.0481  0.0951  0.2816
  587W        W43603  15.671  31.367   6.052 -0.1603  0.1910  0.0088
  588W        W43604  23.587   8.025  23.235  0.0987 -0.0747 -0.1499
  589W        W43605  16.217   4.557  26.191  0.0891 -0.0974  0.1285
  590W        W43606  18.929   2.310  20.235 -0.1464  0.0020  0.1068
  591W        W43607  34.060   8.201  25.469  0.0602  0.2187 -0.0348
  592W        W43608  15.442  34.491   7.545  0.0518 -0.1315  0.0082
  593W        W43609   2.822  30.997  28.827 -0.3483  0.2041 -0.4693
  594W        W43610  25.300  32.153   2.121  0.2520 -0.0504 -0.3803
  595W        W43611  12.320   0.992  26.398  0.0095 -0.5200 -0.1582
  596W        W43612  26.213  27.262  20.085  0.0656 -0.3707  0.0954
  597W        W43613  31.321  28.560  16.329  0.0182 -0.1723  0.3349
  598W        W43614  29.870  23.144  15.518 -0.0901  0.0210 -0.5148
  599W        W43615  32.368   2.050  15.846 -0.1911 -0.1515  0.0233
  600W        W43616  27.409  32.359   3.608 -0.3334  0.1137 -0.0415
  601W        W43617  32.920  14.849   1.477 -0.3168 -0.0293 -0.1964
  602W        W43618  15.880  23.242  25.774  0.1467 -0.2090 -0.1041
  603W        W43619  24.827   8.609  19.442 -0.3364 -0.1724 -0.1493
  604W        W43620   0.223   2.525   1.200  0.2309 -0.1621 -0.0054
  605W        W43621  22.321  32.554  16.729  0.0243 -0.0151  0.0470
  606W        W43622  21.455  31.811  20.838 -0.1929  0.0656 -0.1760
  607W        W43623  21.810  17.654  22.521 -0.0102  0.0796  0.1231
  608W        W43624  30.262  19.032  28.822  0.1301 -0.1277  0.1658
  609W        W43625  18.848   7.783  23.809  0.0308 -0.1877 -0.0564
  610W        W43626  17.772   7.137  28.967  0.1654 -0.2390  0.1745
  611W        W43627  31.386  22.897  19.275  0.2447 -0.1542  0.0708
  612W        W43628  31.068  10.032  23.332 -0.3676  0.0896 -0.0942
  613W        W43629  25.222  31.222  28.528  0.3550 -0.0535 -0.0540
  614W        W43630  13.922  26.343  21.463  0.2504 -0.1105 -0.0494
  615W        W43631  16.291  17.721  14.260  0.0147  0.0319 -0.2691
  616W        W43632  17.339   2.529  21.213  0.3576  0.2945 -0.2277
  617W        W43633  29.171   7.838  27.826 -0.1661  0.3915 -0.0714
  618W        W43634  23.195   9.398  19.189 -0.1918  0.0444  0.1478
  619W        W43635  26.448  10.008  20.507 -0.3869  0.4188 -0.3576
  620W        W43636   3.766   2.791  17.814  0.0952  0.0365  0.0826
  621W        W43637  22.900  25.903  28.274  0.0271 -0.2576  0.2445
  622W        W43638   4.082  31.814  15.306  0.0454 -0.2904  0.0560
  623W        W43639  15.269  30.031  24.701 -0.3969  0.0006  0.0311
  624W        W43640  26.262   2.366   0.413 -0.0323  0.0191 -0.1159
  625W        W43641  18.175  23.841   4.003  0.1168 -0.2192  0.0129
  626W        W43642   3.064  20.987  24.867  0.2214  0.4339  0.2632
  627W        W43643   7.892  10.682  17.682 -0.0274 -0.0914  0.2216
  628W        W43644  23.688   0.942   1.854  0.0504 -0.3327  0.0215
  629W        W43645  11.464   4.522   7.145 -0.2421  0.0226 -0.1539
  630W        W43646  13.688  11.100  19.078 -0.4073  0.1810 -0.0171
  631W        W43647  20.987  17.291  14.124 -0.2983 -0.1712  0.0852
  632W        W43648  25.532  33.736   4.509 -0.0784 -0.0480 -0.2750
  633W        W43649   2.421  26.783  22.477  0.2544  0.3025 -0.3061
  634W        W43650  34.313   7.600  27.955  0.2542  0.1207 -0.0995
  635W        W43651   6.129  25.301  21.302  0.0012 -0.0373 -0.1870
  636W        W43652   6.132  10.375  14.870 -0.0106 -0.0112 -0.2193
  637W        W43653  21.499   8.022  17.840  0.3025  0.1764 -0.0005
  638W        W43654  15.004  21.873  23.011 -0.3891 -0.0039  0.0050
  639W        W43655  24.813  32.659  22.932 -0.1749  0.2632 -0.2224
  640W        W43656  19.466  31.869  16.664  0.0933 -0.0874 -0.1754
  641W        W43657  26.314  23.057   5.671 -0.1688 -0.3480  0.5126
  642W        W43658  12.960  11.953  13.645  0.1349  0.4016  0.0502
  643W        W43659  23.269   1.938  16.048  0.2248 -0.2043  0.1213
  644W        W43660  22.506   4.521  19.962 -0.4151  0.2032 -0.1413
  645W        W43661  15.129  33.413  16.420 -0.0654  0.0882  0.0840
  646W        W43662  19.247   6.231  17.473 -0.1548  0.3722 -0.2609
  647W        W43663  17.858  22.521  16.824 -0.2747  0.0771 -0.2124
  648W        W43664  32.411  28.352  23.713  0.0363 -0.0088 -0.6356
  649W        W43665  20.852   7.854  23.629  0.1721  0.0135 -0.2765
  650W        W43666  26.610   2.377  16.375 -0.2411  0.1826 -0.1393
  651W        W43667  18.356   5.733  18.578 -0.0908  0.3482  0.1300
  652W        W43668  14.856   1.414  15.711  0.0747 -0.2099  0.0737
  653W        W43669  21.189  29.657  25.139  0.0520  0.0926 -0.1439
  654W        W43670   3.838   4.507  15.103 -0.2663 -0.1831 -0.0073
  655W        W43671  27.982   0.335  29.110 -0.1159  0.1782  0.2479
  656W        W43672   8.580   1.371   2.913 -0.5348  0.1830  0.1698
  657W        W43673   4.731  16.626  22.886 -0.4741 -0.1407 -0.2963
  658W        W43674  25.569  26.833  24.889 -0.0713  0.0163  0.1313
  659W        W43675  24.125  12.965  20.191 -0.0787 -0.0061  0.4286
  660W        W43676  30.176  14.110  21.203  0.0536 -0.2931  0.2238
  661W        W43677  22.239  30.627  22.866 -0.2861  0.0506  0.0801
  662W        W43678   6.471   4.459  28.210 -0.1514  0.1686  0.2585
  663W        W43679  19.806  32.534  22.132 -0.2114  0.0873  0.0422
  664W        W43680  31.841  28.072  28.233 -0.1486  0.0542 -0.3565
  665W        W43681  25.198  30.840  16.979  0.0909  0.1348 -0.0441
  666W        W43682  32.588   7.330  28.533  0.0100  0.3769 -0.1398
  667W        W43683  26.624   2.406  25.578 -0.0653  0.1088 -0.2789
  668W        W43684  31.509   3.051   1.481 -0.0578  0.0161  0.2713
  669W        W43685  16.695  28.664  24.894  0.0505 -0.2466  0.3546
  670W        W43686   7.326   3.461  16.218  0.4775  0.0078 -0.1107
  671W        W43687  23.717  21.857  26.408  0.1175 -0.0544 -0.0442
  672W        W43688  17.386   5.540  13.341 -0.1899 -0.2261 -0.1054
  673W        W43689  21.992   5.239  23.799  0.0205 -0.1631 -0.1039
  674W        W43690  26.069  10.460  19.721 -0.0009  0.1230  0.0757
  675W        W43691  34.687  11.738  27.235  0.1157 -0.1482  0.0247
  676W        W43692  25.307  34.636  19.719 -0.1364 -0.1307 -0.1373
  677W        W43693  31.455  31.511  27.262  0.2914 -0.1067 -0.0705
  678W        W43694  31.686  28.679  25.606  0.1202  0.4194 -0.0939
  679W        W43695  14.549  34.000  16.011  0.1008 -0.3599 -0.0271
  680W        W43696  25.886  16.362  26.739 -0.1307 -0.2573 -0.1411
  681W        W43697  33.311  34.666   3.970 -0.1274  0.4178  0.0837
  682W        W43698   6.790  27.427   5.088 -0.0525 -0.5265 -0.2097
  683W        W43699  21.901  18.269  16.236 -0.1321 -0.0706  0.2856
  684W        W43700  12.379   6.661  26.310 -0.0657 -0.1515  0.1510
  685W        W43701  15.176  10.627  25.709  0.2501  0.0065  0.0497
  686W        W43702  26.219  11.909  22.347  0.0232 -0.2894  0.0865
  687W        W43703  24.625  23.569  22.134 -0.0251  0.0079  0.0668
  688W        W43704  20.225   3.962   8.847  0.0499  0.3679 -0.0665
  689W        W43705   6.103  33.780  19.617 -0.0771 -0.1791 -0.0477
  690W        W43706  12.746   0.770  18.548 -0.0390 -0.1039  0.0983
  691W        W43707  31.852   4.452  14.978 -0.0624 -0.0346 -0.1109
  692W        W43708  29.226  29.141  18.067 -0.0065 -0.3382  0.0044
  693W        W43709  28.109  33.729  17.512 -0.1322 -0.1236 -0.1639
  694W        W43710  31.714   1.998  22.858  0.1385  0.3850  0.0749
  695W        W43711  24.541  11.029   4.409  0.0466 -0.1714 -0.0327
  696W        W43712  30.988  20.454   3.293 -0.0273 -0.1270 -0.0725
  697W        W43713   9.707  11.218  22.925 -0.1119  0.2819  0.2075
  698W        W43714  23.847  28.013  22.061 -0.0393 -0.3357 -0.0338
  699W        W43715  16.205   5.709  19.931 -0.1291  0.0504  0.2661
  700W        W43716  18.503   1.075  22.703 -0.1853  0.2230  0.0974
  701W        W43717   8.766  20.985  19.542 -0.2714  0.2690 -0.1890
  702W        W43718  27.870   7.328  28.869 -0.1283  0.1192 -0.0354
  703W        W43719  10.220   2.003  21.257  0.0712  0.0473  0.1199
  704W        W43720  21.039   6.628  27.951 -0.3341 -0.0961 -0.0527
  705W        W43721  15.140  33.279  18.270 -0.0422 -0.0518 -0.0927
  706W        W43722  24.949  14.840  13.184 -0.1467  0.0273 -0.1489
  707W        W43723  20.637   8.902  16.388  0.1149  0.2139 -0.0130
  708W        W43724   0.470   0.846   1.188  0.1288 -0.0192 -0.2462
  709W        W43725  21.401  16.159  13.112  0.2149 -0.2914 -0.1987
  710W        W43726  25.867   5.308  16.748 -0.1332 -0.3268  0.0588
  711W        W43727  18.901   0.051   5.821 -0.4112 -0.1099 -0.1994
  712W        W43728  11.766  30.758   5.555 -0.4328 -0.2466 -0.3351
  713W        W43729   7.060  11.373   0.414  0.0202  0.0728 -0.3823
  714W        W43730   2.749   7.101  18.776 -0.0723  0.1961  0.2088
  715W        W43731  23.341  34.324  20.098 -0.1509  0.1330  0.0873
  716W        W43732   3.148   6.534  20.540 -0.2518 -0.2987 -0.1393
  717W        W43733  26.070  27.926  20.860  0.3982 -0.0604  0.1043
  718W        W43734   3.738   7.248  14.749  0.0649 -0.0457  0.0414
  719W        W43735  20.688  20.510   2.133  0.0223 -0.0046  0.0096
  720W        W43736  27.326  16.872  21.831  0.0765  0.2686 -0.1488
  721W        W43737  23.787   8.075  25.115 -0.1107 -0.2575  0.4673
  722W        W43738   1.661   6.538  19.791 -0.2138  0.0923  0.0088
  723W        W43739  17.305  25.420   2.055 -0.0750  0.1439  0.0907
  724W        W43740  26.392   9.403  16.163  0.1004  0.0212  0.0893
  725W        W43741  34.647  28.776  17.298 -0.0604 -0.3953 -0.1219
  726W        W43742  23.269  32.950  29.034  0.2038  0.1431  0.0741
  727W        W43743   2.425   6.207   0.441  0.1862 -0.0462  0.0532
  728W        W43744  19.992  18.087  23.368 -0.0052 -0.5091  0.2704
  729W        W43745  10.341  19.567  13.411  0.1070 -0.0135 -0.2168
  730W        W43746  31.347   5.803   0.869 -0.0861 -0.1113  0.0353
  731W        W43747  26.971  27.797  22.956 -0.2224 -0.2665 -0.2215
  732W        W43748  25.682  15.383  14.088 -0.1858  0.0424 -0.0845
  733W        W43749  31.190  14.485  18.046 -0.1349 -0.1097 -0.0662
  734W        W43750   6.210  31.161  25.182 -0.2401 -0.2681 -0.1009
  735W        W43751  17.658  32.414  23.464 -0.0152  0.2095 -0.0111
  736W        W43752  13.703   3.137  20.185 -0.2824  0.0220  0.1286
  737W        W43753  14.693  27.486   3.422 -0.3838 -0.0458 -0.0994
  738W        W43754  22.298  17.173   3.373 -0.1082  0.1709  0.0692
  739W        W43755  23.566  13.744  15.862 -0.2100  0.3030  0.1848
  740W        W43756  16.955   8.773  20.713  0.3666 -0.0731 -0.1664
  741W        W43757  31.204   0.583   4.623 -0.0579 -0.4733 -0.3922
  742W        W43758  15.370   3.982  28.448  0.2096 -0.0953  0.2585
  743W        W43759  32.219   2.617  16.518  0.0729 -0.2445 -0.2739
  744W        W43760  19.791  31.898  23.134  0.0895 -0.2443 -0.2672
  745W        W43761  19.674   9.314  23.931  0.0050  0.1621  0.2079
  746W        W43762  24.327  32.781  24.290 -0.4442  0.0055  0.1009
  747W        W43763  21.570   2.573  18.653 -0.0817 -0.1671  0.2819
  748W        W43764  11.417  26.876  13.795 -0.0090  0.0581  0.1383
  749W        W43765  23.196  23.451  22.107  0.0227  0.0360 -0.1441
  750W        W43766  29.749  21.800  18.303  0.2903 -0.2030 -0.1298
  751W        W43767   0.547  11.622  14.894 -0.1105  0.0230 -0.3193
  752W        W43768  10.469  29.511  16.502  0.2414  0.0924 -0.1738
  753W        W43769  20.268  33.060  25.864  0.0544 -0.2021  0.2693
  754W        W43770   9.976   5.523  15.219  0.1318 -0.0093  0.0196
  755W        W43771  32.587  15.588  19.263 -0.0082  0.2016 -0.1619
  756W        W43772  19.221  25.573   6.791 -0.0308 -0.1508 -0.4347
  757W        W43773  21.318   4.756  16.324  0.2059 -0.1813 -0.1494
  758W        W43774  11.281  32.859  16.500 -0.2242 -0.2840 -0.0649
  759W        W43775  18.508   4.986   2.375  0.0692  0.0487 -0.1136
  760W        W43776  22.631  11.859  16.843  0.6547 -0.0562 -0.1048
  761W        W43777  30.158  10.167  15.488 -0.2638 -0.1067 -0.1690
  762W        W43778  24.069  32.850  22.080  0.3036 -0.0620 -0.0726
  763W        W43779   5.591  13.047  25.141 -0.1743  0.1890 -0.0183
  764W        W43780   9.743  15.881  25.401  0.1448  0.0484 -0.0817
  765W        W43781  14.115   4.650   2.773 -0.0453  0.1287 -0.0174
  766W        W43782  26.291   9.885  25.513 -0.0574 -0.3877 -0.0453
  767W        W43783  13.763  34.767  15.893  0.0006 -0.2665 -0.2092
  768W        W43784  23.195  15.534  21.608 -0.2911  0.0889  0.0330
  769W        W43785  27.266  32.700  18.522 -0.1109 -0.4278 -0.0296
  770W        W43786   6.607  10.237  25.573  0.2078 -0.0574  0.2503
  771W        W43787   9.063  17.593  23.024 -0.1461 -0.1404  0.3769
  772W        W43788  29.996   2.434  21.566  0.1128 -0.1747 -0.2118
  773W        W43789   2.996   1.924  18.834  0.0230  0.2497 -0.5986
  774W        W43790   7.530   8.392   5.564  0.1248  0.1403  0.1167
  775W        W43791  33.290   4.219  27.208  0.2683 -0.1632  0.0081
  776W        W43792  25.937  27.837  26.761 -0.1671  0.3656 -0.1158
  777W        W43793  12.494   8.518  14.661  0.1111 -0.1809 -0.2716
  778W        W43794  25.576  24.645  18.214 -0.0650  0.0230 -0.2932
  779W        W43795  23.945  19.355   2.511  0.0943  0.0811  0.1000
  780W        W43796  18.520   8.702  28.661  0.0399 -0.0080  0.0233
  781W        W43797  22.143   7.242  23.143  0.1548  0.0895 -0.1761
  782W        W43798  30.951  32.913  17.056  0.0336 -0.0091  0.1047
  783W        W43799  11.527  30.230  16.291  0.3110  0.1915 -0.1072
  784W        W43800  22.918  34.074   9.042 -0.0789 -0.1961 -0.0022
  785W        W43801  27.461   3.398  22.260  0.0877  0.2618  0.2721
  786W        W43802  13.863  30.091  15.849  0.1594  0.2037  0.0055
  787W        W43803  23.141  33.066  15.138  0.1461 -0.0666 -0.3172
  788W        W43804  24.523  21.640  19.925  0.2379 -0.0008 -0.2265
  789W        W43805  28.479  11.503  17.447  0.2349  0.1516  0.1899
  790W        W43806  32.848  19.516  15.294 -0.2675  0.0624  0.0112
  791W        W43807  10.320  13.858  15.037 -0.1029 -0.0483 -0.0891
  792W        W43808  21.065  33.067  17.565  0.2461 -0.1267 -0.1615
  793W        W43809  20.750  25.944   3.159  0.1096  0.3584 -0.1925
  794W        W43810  20.734  10.156  16.979  0.0367 -0.0831 -0.2689
  795W        W43811   4.944  32.543  29.265  0.1651  0.2071 -0.0513
  796W        W43812  32.934  13.900  24.788  0.1123 -0.1395 -0.1785
  797W        W43813   9.806   4.140  15.873 -0.0098 -0.0814 -0.1283
  798W        W43814   7.643  33.313  16.401 -0.2454 -0.1103  0.0167
  799W        W43815  22.534  11.731  23.341 -0.1408  0.0805  0.1124
  800W        W43816  25.527   9.124  19.189  0.1277 -0.1749 -0.2839
  801W        W43817  13.408   0.808  15.299 -0.0061  0.2964 -0.3986
  802W        W43818  24.635  23.858  28.501  0.2612  0.1627 -0.1721
  803W        W43819  13.268   0.350  15.208 -0.1103  0.1099 -0.0018
  804W        W43820  34.480  25.953  16.850 -0.3160 -0.3703 -0.1513
  805W        W43821  28.386  13.449  16.697  0.0491  0.5801  0.1777
  806W        W43822  27.369  12.983  28.674 -0.3628  0.0116  0.0654
  807W        W43823  29.499  32.640  17.729  0.1351  0.2087  0.0367
  808W        W43824  14.109   6.622   1.699  0.0847  0.1636 -0.1977
  809W        W43825   0.117  13.766  21.859 -0.2194  0.2386 -0.3343
  810W        W43826  30.232   0.484  29.052 -0.0821  0.2523 -0.1346
  811W        W43827   3.877  28.296  21.843 -0.0512  0.1462 -0.1425
  812W        W43828  24.674  31.762  26.442  0.0322 -0.0160 -0.2431
  813W        W43829  26.356  10.574  24.902  0.2972 -0.1111 -0.0938
  814W        W43830  25.197  33.994   7.868 -0.2089 -0.1674 -0.1909
  815W        W43831  15.292  27.557  13.767  0.3540  0.0034  0.2057
  816W        W43832  34.071  25.174  22.919  0.0421  0.2655  0.0574
  817W        W43833  33.182   5.777  24.887 -0.0013 -0.1429  0.0791
  818W        W43834  21.315   3.966  27.806 -0.4404 -0.2740  0.0989
  819W        W43835  13.616   9.203  15.833 -0.3156  0.0529  0.1837
  820W        W43836  22.227  11.411  22.618  0.1217  0.0500  0.0270
  821W        W43837  21.988  28.418  28.310 -0.1702  0.0224 -0.0215
  822W        W43838  19.371  22.153  16.225  0.0231  0.2974 -0.1300
  823W        W43839  30.049   0.019   3.721  0.0087  0.0988  0.0588
  824W        W43840  12.634   4.048  21.787  0.0008 -0.2226  0.1330
  825W        W43841  18.755   8.706  20.693  0.3203  0.2625 -0.1642
  826W        W43842  29.864   1.634  20.721 -0.0118  0.0389 -0.1938
  827W        W43843  10.808  33.927  26.134 -0.0170 -0.1674  0.1244
  828W        W43844   7.525  32.851  18.185 -0.2164 -0.3097  0.0665
  829W        W43845  12.396  10.501  12.953  0.2575 -0.2183  0.0637
  830W        W43846  22.721   8.634  16.133 -0.1748 -0.2487 -0.2837
  831W        W43847  34.537  32.142  26.755  0.0994 -0.0592  0.0879
  832W        W43848  26.861   8.327  17.690  0.0631 -0.0194  0.1370
  833W        W43849  15.049  18.686   6.482 -0.1168 -0.0747  0.0658
  834W        W43850  11.999   4.562  26.407  0.0053 -0.0012 -0.1969
  835W        W43851  21.355  32.160  15.950  0.2171  0.0064 -0.1845
  836W        W43852  33.058  11.427  18.728  0.0211 -0.1044 -0.1305
  837W        W43853  28.290  11.619  19.498 -0.0116 -0.0540  0.2202
  838W        W43854  30.308  32.940   6.108 -0.1372 -0.3052  0.0144
  839W        W43855  25.616  28.804   6.583  0.2749  0.0639 -0.1484
  840W        W43856   9.825  11.097  26.449 -0.3494 -0.2616 -0.2823
  841W        W43857  22.781   7.654   6.634  0.1738 -0.0134  0.1205
  842W        W43858   4.440  22.812   5.120 -0.3332 -0.3735 -0.0435
  843W        W43859  18.545  31.019  27.325  0.3550 -0.0643 -0.1453
  844W        W43860  28.428  11.553  23.767  0.1153  0.1307  0.0025
  845W        W43861  11.956   2.620  19.571  0.0007 -0.1623  0.2679
  846W        W43862  27.351  22.964   3.044 -0.3043 -0.2243 -0.1647
  847W        W43863  21.946   5.086  27.584  0.1588 -0.0563  0.0424
  848W        W43864  24.246  27.411  25.564 -0.0322 -0.1037  0.0734
  849W        W43865  25.546  31.047   0.599  0.2809 -0.2959  0.1183
  850W        W43866  19.837  12.508  15.751 -0.3725 -0.3240 -0.2778
  851W        W43867  20.383  11.253  17.883  0.1397 -0.0038  0.1782
  852W        W43868  30.892   3.682  16.273  0.1278  0.2492 -0.1381
  853W        W43869   2.520   5.431  16.419  0.1561 -0.1016 -0.0820
  854W        W43870  25.180   9.254  27.015 -0.1147  0.2979 -0.0176
  855W        W43871  23.177   8.104  29.175  0.4345 -0.1085 -0.2786
  856W        W43872  31.673  29.635  16.100  0.1647  0.1965  0.2007
  857W        W43873  24.254  26.453  24.727  0.0658 -0.5065  0.1320
  858W        W43874  24.894   0.703  25.778  0.0290 -0.0809 -0.1089
  859W        W43875  10.210   7.433  24.453  0.1637  0.2541 -0.3246
  860W        W43876  26.865   6.979  28.897  0.0369  0.0081  0.0256
  861W        W43877   5.052   7.837  18.881 -0.5546 -0.1504 -0.0853
  862W        W43878  22.731  27.533  26.531  0.1257  0.0075  0.2355
  863W        W43879  24.946  26.618  25.704  0.1218  0.0850  0.0886
  864W        W43880  25.492   5.375  26.469 -0.0439 -0.4513 -0.0462
  865W        W43881  32.459   2.755  21.261  0.3572  0.0079  0.1083
  866W        W43882  26.238  13.680  28.668 -0.0325 -0.0366  0.1816
  867W        W43883   1.593  14.124  18.721  0.0806  0.3153  0.0427
  868W        W43884   0.805   0.956  29.095 -0.1272 -0.2094  0.0102
  869W        W43885  23.116  13.859  18.372  0.0484  0.0584 -0.2207
  870W        W43886  12.111  13.878  15.166 -0.3957 -0.1427  0.0424
  871W        W43887  32.759   3.856  28.577  0.0468 -0.0146 -0.1212
  872W        W43888  18.945  31.891  22.221 -0.0231  0.0847 -0.0353
  873W        W43889  33.201   0.551  20.783  0.1882 -0.2262 -0.3315
  874W        W43890  22.137  14.230   2.252 -0.3328 -0.1479  0.0610
  875W        W43891  10.421  18.459  20.643  0.0937  0.0051  0.0648
  876W        W43892  32.026   4.965  25.544 -0.2906  0.1327  0.1939
  877W        W43893  34.081  11.115  16.326 -0.0338 -0.1036  0.0759
  878W        W43894  30.337  31.679  24.475 -0.0250 -0.3558  0.0106
  879W        W43895  27.617  26.967  16.821  0.2288  0.2522  0.0619
  880W        W43896  31.129  12.327  15.672 -0.0336  0.1704  0.2963
  881W        W43897  31.122  29.508  25.651 -0.1623  0.5650 -0.2224
  882W        W43898  11.099  21.481  16.472  0.1576  0.1943 -0.2713
  883W        W43899  12.195   4.412  25.608 -0.0034 -0.0926 -0.1356
  884W        W43900  19.876   0.356  18.421 -0.0711 -0.3701  0.0332
  885W        W43901  22.979   9.504  18.313  0.0653  0.0604  0.1087
  886W        W43902  28.122   8.025  21.797  0.1589  0.0302  0.1823
  887W        W43903  16.103  13.210  26.114 -0.3751  0.1987  0.1407
  888W        W43904  16.328  10.655  17.879  0.0782  0.2196  0.2166
  889W        W43905  31.959  10.141  17.020  0.0536 -0.2773  0.2909
  890W        W43906  26.224   0.948  25.932  0.0890  0.0308  0.0678
  891W        W43907   8.248   3.344  14.215  0.1961 -0.1257  0.1768
  892W        W43908  28.632  11.562  26.582  0.3472 -0.1528 -0.0991
  893W        W43909   0.809  13.249  18.561 -0.1282 -0.2573 -0.0129
  894W        W43910  26.028  33.516  19.071  0.1861 -0.2896 -0.2895
  895W        W43911  22.612   6.605   1.012 -0.3439 -0.1657 -0.1496
  896W        W43912  10.301   6.022  24.621 -0.2576  0.1384  0.1126
  897W        W43913  34.508  32.296   6.980  0.1643 -0.2387  0.0818
  898W        W43914  27.554   1.674  18.279 -0.2532  0.2034 -0.2169
  899W        W43915  27.247  27.621  28.754  0.1274  0.1013  0.1126
  900W        W43916  23.732  29.475  17.086  0.0275  0.4332 -0.0188
  901W        W43917   6.792  27.382  15.484 -0.1733  0.1750  0.1720
  902W        W43918  27.075  10.391  24.613 -0.0862  0.2909 -0.3172
  903W        W43919  27.472  20.062  22.058 -0.0110  0.2680 -0.0242
  904W        W43920  25.413   4.865  25.987  0.1555  0.2974 -0.0579
  905W        W43921  15.284  34.626  17.996 -0.2076  0.1368  0.0464
  906W        W43922  18.773   9.235  16.815 -0.0840 -0.0832  0.4762
  907W        W43923  19.312  34.396  24.143  0.0322  0.0621  0.2405
  908W        W43924  15.402  13.118  22.571  0.0752  0.2732 -0.0199
  909W        W43925  14.611   4.346   8.471 -0.0032  0.0142 -0.0986
  910W        W43926  25.879   1.403   7.413 -0.2029  0.0776 -0.0093
  911W        W43927  31.210  32.814   3.492 -0.0304 -0.2414 -0.2406
  912W        W43928  25.996   0.205  15.053 -0.0936 -0.4150  0.0390
  913W        W43929  10.249  14.561  20.995  0.1977 -0.0096  0.0950
  914W        W43930  19.030  10.461   3.433 -0.2403 -0.0878 -0.1244
  915W        W43931  22.348  34.399  19.679  0.1638  0.2004 -0.1945
  916W        W43932   4.715  28.807  16.889  0.1069 -0.1440  0.1293
  917W        W43933  23.095   8.319  26.506 -0.4053 -0.1294 -0.1983
  918W        W43934  18.865   3.171  24.394  0.1835 -0.2197 -0.0765
  919W        W43935  32.114  31.099   7.828 -0.2123 -0.1405 -0.1104
  920W        W43936  32.478   0.158   5.107  0.0572  0.0406 -0.0361
  921W        W43937  15.664   5.450  22.078  0.0818  0.0424  0.0298
  922W        W43938  33.261  14.538  15.035 -0.0303  0.0983 -0.0379
  923W        W43939  26.726  26.526  18.388  0.1264 -0.3273 -0.2289
  924W        W43940  18.321   5.609   1.059  0.1284 -0.2015  0.1087
  925W        W43941   2.752   4.930  17.980  0.0546  0.0481 -0.1401
  926W        W43942  31.122  32.370   5.896  0.1364  0.1663 -0.3563
  927W        W43943   9.411  12.065  21.504 -0.0978 -0.2626  0.1665
  928W        W43944  29.045  28.440  28.169 -0.3298  0.1229  0.1106
  929W        W43945  33.624  20.129   6.292  0.4626  0.3344 -0.1751
  930W        W43946  16.796   8.078  15.390  0.0275 -0.1710 -0.0179
  931W        W43947  34.338   9.439  14.212  0.0926  0.1396  0.0954
  932W        W43948  32.390   6.900  19.408  0.1064  0.1469  0.0574
  933W        W43949   8.072   1.957  19.046  0.0515 -0.0724  0.0578
  934W        W43950  11.875  19.003   0.631 -0.1415  0.1812 -0.0243
  935W        W43951  23.482  20.507  27.026 -0.3232 -0.2898 -0.2143
  936W        W43952  24.239   0.142  10.960  0.0205  0.2682 -0.1742
  937W        W43953  18.030  34.229   7.360 -0.0896 -0.0180 -0.0193
  938W        W43954  27.860   7.956   3.879  0.1355 -0.0172  0.0972
  939W        W43955   1.656   5.169  15.805 -0.1919  0.0063  0.1971
  940W        W43956  34.053  31.567   5.425  0.0800 -0.0925  0.0787
  941W        W43957  29.722   6.283  15.635 -0.2972 -0.0202 -0.1861
  942W        W43958  16.201  11.997  24.461 -0.2761 -0.1737  0.1165
  943W        W43959  16.058   7.321  20.187  0.2371  0.0733 -0.0940
  944W        W43960  17.086   5.407   8.970 -0.0276  0.0413 -0.0303
  945W        W43961  21.337  33.848   4.786  0.0054 -0.2912 -0.3178
  946W        W43962  25.424  30.003   3.659 -0.0771 -0.0112  0.1415
  947W        W43963  34.552  19.617  16.717  0.1202 -0.0892  0.3201
  948W        W43964  12.886   8.427  27.936  0.1877  0.1699 -0.0276
  949W        W43965  23.353  11.916   2.415 -0.0708  0.1813  0.3083
  950W        W43966  32.770  18.153  19.801 -0.0615  0.0973 -0.1375
  951W        W43967  15.867  34.318   0.302 -0.0844  0.0245 -0.2035
  952W        W43968  27.251   5.598   8.697 -0.1773 -0.0496 -0.0639
  953W        W43969  21.998  10.906  15.533  0.1233 -0.0078 -0.1449
  954W        W43970  22.604  24.094  25.134  0.0252 -0.2093 -0.0273
  955W        W43971  15.645  27.164   8.646 -0.2396 -0.0401  0.1076
  956W        W43972  30.746   1.688   6.702 -0.0027  0.0828 -0.1219
  957W        W43973  14.235   6.578  18.928  0.0642 -0.0255  0.0361
  958W        W43974   1.848  23.863  28.095  0.0917  0.4230  0.0496
  959W        W43975  15.137  13.528  25.754 -0.0892 -0.0446  0.0168
  960W        W43976  14.764  16.117  20.250 -0.0388  0.2505 -0.0148
  961W        W43977  22.172  13.875   8.499 -0.0242  0.1899 -0.0813
  962W        W43978   0.713   4.382  19.605 -0.4122 -0.1852  0.0145
  963W        W43979  22.917  29.718  20.883 -0.1127 -0.0324 -0.0486
  964W        W43980  25.499  34.135  16.662  0.1619 -0.2397 -0.4239
  965W        W43981  33.803   7.273  15.923 -0.2186  0.1203 -0.2131
  966W        W43982   1.868   0.643   1.205 -0.2564 -0.2544  0.0556
  967W        W43983  25.417  17.148  15.884  0.2106 -0.0136  0.1664
  968W        W43984  33.250  33.315   1.943 -0.3473 -0.2321 -0.2486
  969W        W43985  21.963  28.622   8.106  0.0867  0.1282  0.3812
  970W        W43986  33.799   3.203  19.272 -0.0447 -0.3059 -0.1928
  971W        W43987  11.462   1.144  24.907 -0.1829  0.1596  0.0755
  972W        W43988   1.387  23.691  15.860  0.2228 -0.3124  0.3485
  973W        W43989  19.711   3.728   0.819 -0.2794 -0.0671  0.1874
  974W        W43990  28.583  32.500  17.796 -0.0461  0.0776 -0.0316
  975W        W43991   3.979  26.046  21.984 -0.0851  0.0367 -0.0917
  976W        W43992  17.278   1.596  14.721 -0.2416 -0.0948 -0.0228
  977W        W43993  19.887  20.668   2.404 -0.2583 -0.0422 -0.0566
  978W        W43994  17.440  11.066  21.416 -0.2093 -0.0836  0.1267
  979W        W43995  28.226  14.573  14.115  0.2453  0.1418 -0.0528
  980W        W43996  15.509  18.267  23.342 -0.0429  0.4511  0.0228
  981W        W43997  21.295   7.749  26.808 -0.1304 -0.4043  0.3284
  982W        W43998  31.422  16.110   4.357  0.3406  0.1045 -0.0154
  983W        W43999  30.686   2.193  21.588  0.0223  0.2014 -0.1191
  984W        W44000  33.688  25.859  25.181  0.1985  0.1349 -0.1130
  985W        W44001  21.330  26.301  22.035  0.2508  0.1481  0.0241
  986W        W44002  26.175  23.869  20.303 -0.1374 -0.3230 -0.2076
  987W        W44003  33.801  15.657   2.804 -0.0687  0.1284  0.0384
  988W        W44004  30.358   9.081   8.791  0.3374 -0.0787 -0.0528
  989W        W44005   0.637   0.556  20.796  0.3516 -0.1114  0.2516
  990W        W44006   3.102   6.505  15.078 -0.1506 -0.0755 -0.2915
  991W        W44007  30.936  18.482   7.687 -0.1241 -0.1094  0.0847
  992W        W44008  19.308   3.316  28.478 -0.2139 -0.1413  0.0868
  993W        W44009  21.222  22.894   0.567  0.0403  0.0621  0.2421
  994W        W44010   8.258  11.674   7.670 -0.0785 -0.1884 -0.4177
  995W        W44011   4.446   8.956  14.347  0.2941 -0.1746 -0.0364
  996W        W44012  21.621  25.552  25.211  0.0499  0.0831  0.0327
  997W        W44013   1.512  32.569  25.563 -0.0956 -0.2928 -0.1841
  998W        W44014  21.342  11.226   7.760  0.1884  0.0902 -0.1402
  999W        W44015  18.510  12.177  16.287 -0.1567 -0.1709  0.0488
 1000W        W44016  32.923   6.090   7.109 -0.0589  0.1324  0.2400
 1001W        W44017  27.378  27.365   1.455 -0.1172  0.1433  0.3795
 1002W        W44018  12.493   2.946  18.141  0.0196  0.3804  0.0387
 1003W        W44019   7.938  28.037  14.570 -0.2696 -0.2961  0.1094
 1004W        W44020  26.515   4.642  25.803 -0.1332 -0.0334  0.1358
 1005W        W44021  15.857  33.253  21.416  0.0597  0.0397  0.0234
 1006W        W44022  24.339  29.855  27.511 -0.1782  0.0059 -0.1781
 1007W        W44023  25.374   1.886  24.552  0.0431 -0.2117  0.0986
 1008W        W44024  21.193  27.330  27.002 -0.0185  0.0239 -0.0943
 1009W        W44025   3.611  13.350  19.746 -0.0924  0.0601  0.0648
 1010W        W44026  18.239  29.885  16.503 -0.0829  0.3126  0.3003
 1011W        W44027   3.254   0.569  21.287 -0.1570 -0.0465 -0.0733
 1012W        W44028  34.540  19.649  22.774 -0.0155 -0.0197  0.2031
 1013W        W44029  31.423   5.712  17.258 -0.1412  0.1157 -0.0915
 1014W        W44030  26.863  34.498   4.016 -0.3534  0.1890  0.0835
 1015W        W44031  32.273   6.469  21.188  0.2540  0.2531 -0.3901
 1016W        W44032  16.417  23.853  25.373  0.0027 -0.2274  0.1151
 1017W        W44033  20.210  14.943  21.888 -0.1605  0.0120 -0.1180
 1018W        W44034  12.901   8.281  26.543  0.2416 -0.2211 -0.0491
 1019W        W44035  13.465   9.339   0.651 -0.1058  0.1216 -0.0359
 1020W        W44036   8.856  14.182   5.505  0.0471 -0.1157  0.3969
 1021W        W44037  15.133  13.050  25.156 -0.0365  0.0952 -0.1150
 1022W        W44038  25.854  16.238   2.485  0.2630 -0.0963  0.0002
 1023W        W44039  34.718  23.640  24.486 -0.1390 -0.1881 -0.0450
 1024W        W44040  15.334   7.265  23.077 -0.0791 -0.2429 -0.1532
 1025W        W44041  18.203   8.833   0.593  0.0211 -0.1893  0.0233
 1026W        W44042  14.583  22.525  21.236  0.1121 -0.4126 -0.0548
 1027W        W44043  31.723   3.094   0.729  0.0070 -0.3990  0.2330
 1028W        W44044   1.987   6.449   5.206 -0.1175  0.0113  0.3149
 1029W        W44045  17.993  15.635   5.596 -0.2638  0.0392  0.1464
 1030W        W44046  23.837   1.528   5.209 -0.0151 -0.0833 -0.1265
 1031W        W44047  21.064  32.467  22.347 -0.0876  0.2085 -0.1266
 1032W        W44048  15.752  22.792   5.424 -0.0146 -0.4548 -0.1951
 1033W        W44049  20.316   8.634   3.764 -0.2827 -0.1150  0.0112
 1034W        W44050  33.836   4.588  15.179  0.0278  0.1659  0.2728
 1035W        W44051   4.860  17.079  12.649  0.1232 -0.3556 -0.2651
 1036W        W44052  22.310   7.289   5.376  0.1127  0.2959  0.0998
 1037W        W44053  33.303  10.109  18.362  0.1483  0.1911 -0.1255
 1038W        W44054  16.148  29.783   8.834 -0.0376  0.1089  0.0298
 1039W        W44055  12.992  13.646  21.148 -0.0299 -0.0577 -0.1058
 1040W        W44056  24.404   5.777   2.991  0.0733 -0.1851 -0.1493
 1041W        W44057  13.662  26.959  14.041 -0.0954  0.1110  0.1180
 1042W        W44058  32.619  13.353  14.423 -0.0754  0.0359 -0.0729
 1043W        W44059  11.171  27.376  27.723 -0.2487 -0.1563  0.1098
 1044W        W44060   2.893  32.267  16.435  0.0811  0.1988 -0.0286
 1045W        W44061   8.469   8.704   1.324 -0.0368 -0.0625 -0.1343
 1046W        W44062   4.287  17.465  17.174  0.1010  0.5021  0.0967
 1047W        W44063   1.103  25.364  24.850  0.1454  0.1215  0.2634
 1048W        W44064  20.781   4.938   1.207  0.2906 -0.2816  0.4027
 1049W        W44065  22.984  11.939  16.500  0.0495 -0.2624 -0.2974
 1050W        W44066  26.082  30.834   5.841  0.1432  0.4419  0.3704
 1051W        W44067   0.916   8.114  28.578  0.0055 -0.2865 -0.2228
 1052W        W44068  12.411  28.405  18.167 -0.2926 -0.1278  0.1231
 1053W        W44069  11.874  10.763   0.443  0.1282  0.1092  0.0570
 1054W        W44070   7.122  11.036  25.662 -0.2754 -0.3605  0.0154
 1055W        W44071  31.099   1.701  10.180 -0.0644 -0.0387  0.0551
 1056W        W44072  31.928   3.358   1.136 -0.1728  0.1274 -0.0340
 1057W        W44073  17.576  18.340   9.001  0.0636 -0.2313 -0.0053
 1058W        W44074  26.006  13.911  25.208  0.0081 -0.1269  0.1685
 1059W        W44075  14.150  34.632  24.670 -0.1496  0.2027  0.1165
 1060W        W44076   8.971   0.903  22.159  0.3247 -0.1129 -0.1033
 1061W        W44077  20.083  13.278  13.347  0.1126 -0.4374  0.0664
 1062W        W44078  16.290   4.632   9.915 -0.1554  0.1029 -0.1807
 1063W        W44079  16.761  29.430  20.934 -0.1157  0.1393  0.3686
 1064W        W44080  30.241   1.524  21.065  0.0743  0.2077  0.0585
 1065W        W44081  15.098  33.194  29.054  0.1970  0.2151  0.0405
 1066W        W44082  21.766  12.468  21.930 -0.1997  0.3095 -0.1026
 1067W        W44083  11.832  30.216   4.080  0.1433 -0.0582 -0.0823
 1068W        W44084  25.366  11.061   4.848  0.1094 -0.1685 -0.0811
 1069W        W44085   3.676  15.895  26.728  0.1535  0.0312  0.2208
 1070W        W44086  20.115  13.405  20.389  0.1215  0.1622 -0.2001
 1071W        W44087  23.488  34.775   9.795 -0.0219 -0.0844  0.1063
 1072W        W44088  33.611   1.568  24.162  0.0730  0.0173  0.0784
 1073W        W44089  29.965  25.722  20.957  0.0231 -0.3362  0.3137
 1074W        W44090   9.792  32.170  25.616  0.0736 -0.1210  0.1242
 1075W        W44091  22.438  20.349  24.872 -0.0879 -0.1693 -0.1266
 1076W        W44092  15.653  31.864  15.614  0.0902  0.2746  0.0648
 1077W        W44093   6.326   0.807  26.205 -0.3509 -0.0992  0.1534
 1078W        W44094  29.721   7.315  20.922  0.0311  0.1036 -0.5427
 1079W        W44095  21.774   0.455  20.589  0.2873 -0.1444 -0.0137
 1080W        W44096  21.420  31.990  26.734 -0.4134  0.1513 -0.2858
 1081W        W44097  26.597  22.715  26.905  0.0500  0.2841  0.0005
 1082W        W44098   0.892  27.608  24.326  0.1844 -0.0502  0.0532
 1083W        W44099  34.309  32.178  25.400  0.1486  0.2009 -0.0427
 1084W        W44100  15.253  12.795   7.996  0.1321  0.0943  0.3108
 1085W        W44101  15.154   9.498   0.671  0.1796  0.1152 -0.0224
 1086W        W44102  33.922  33.061   2.109 -0.2129  0.1594  0.1208
 1087W        W44103  13.019  26.173  21.920 -0.0874 -0.0087 -0.0018
 1088W        W44104  18.209  32.254  18.533 -0.1064 -0.1774  0.1320
 1089W        W44105  33.040  29.547  22.120 -0.1091 -0.1036  0.2304
 1090W        W44106  20.706   8.192  22.468  0.0354 -0.1605 -0.1202
 1091W        W44107  27.782   1.628  27.460  0.1144 -0.2825  0.1734
 1092W        W44108  19.152  15.296   1.400  0.0559  0.0804 -0.0208
 1093W        W44109  17.950  27.546  20.158  0.1117  0.1456  0.4174
 1094W        W44110   9.818  13.869   8.397 -0.1449 -0.0376 -0.1071
 1095W        W44111   5.712   3.467  14.118  0.1751  0.1722 -0.0424
 1096W        W44112  19.574  12.241   7.757 -0.0564  0.4641  0.2842
 1097W        W44113  19.426  30.770  27.282 -0.3446 -0.3332  0.0811
 1098W        W44114  19.144   8.824  28.019  0.2001 -0.1076  0.0308
 1099W        W44115  11.818   7.821  15.270  0.0765 -0.0205 -0.0811
 1100W        W44116  13.329   4.833  20.545 -0.1796  0.1804 -0.1730
 1101W        W44117   8.322   5.088  15.920 -0.2269  0.0856 -0.1156
 1102W        W44118   1.298  11.262  18.510 -0.1838  0.0738  0.0342
 1103W        W44119  13.350  26.213  26.650 -0.0229 -0.4182 -0.4523
 1104W        W44120  16.009  22.676  25.037  0.0195 -0.2724 -0.0747
 1105W        W44121  24.808   5.137  18.348  0.1302  0.1051  0.1639
 1106W        W44122  31.000   8.065   0.634 -0.1258 -0.1917 -0.0996
 1107W        W44123  13.318   1.906   3.781  0.1300  0.2825  0.0241
 1108W        W44124  24.800   3.932  17.424  0.3178  0.2084  0.0533
 1109W        W44125  30.406  14.338   3.534  0.1469 -0.1898 -0.0234
 1110W        W44126  32.867  27.157  23.008  0.1785 -0.2551 -0.0751
 1111W        W44127  27.017  26.551  21.412 -0.0884  0.0861  0.3156
 1112W        W44128  14.722   5.136   1.542 -0.0732  0.3327 -0.1604
 1113W        W44129  33.203  11.588  25.054 -0.0132  0.1024  0.1999
 1114W        W44130  21.472   5.411  17.741  0.1051  0.2272  0.0537
 1115W        W44131  10.963  29.515  16.632 -0.0385  0.0217  0.0120
 1116W        W44132  21.415  32.462   8.777  0.0203  0.0990 -0.0421
 1117W        W44133  23.255  25.436  21.526  0.0572 -0.0252  0.2927
 1118W        W44134  23.832   0.775  23.458 -0.1660 -0.2217  0.1841
 1119W        W44135  18.398   2.712   7.802 -0.2030  0.1903 -0.1340
 1120W        W44136   6.883  31.801  18.832  0.0029  0.0367  0.3269
 1121W        W44137  17.797   9.484  14.144  0.0161 -0.2221 -0.0858
 1122W        W44138  29.075  22.877  14.843  0.0726 -0.0023 -0.0895
 1123W        W44139   1.176   3.632   0.745  0.0447  0.0043  0.0749
 1124W        W44140  30.465  29.458   5.855  0.0490  0.0293 -0.1623
 1125W        W44141  24.160   1.366  20.269  0.1270 -0.0942  0.0898
 1126W        W44142  23.744   1.617  25.460 -0.2777 -0.0000  0.2834
 1127W        W44143  28.380   3.670  28.870  0.1821 -0.3221 -0.0095
 1128W        W44144  26.318  20.226  24.437 -0.1020 -0.0278  0.2850
 1129W        W44145   8.783   3.720  19.606 -0.1239 -0.0625  0.1270
 1130W        W44146  21.925  18.869   0.874  0.1143  0.2064  0.0656
 1131W        W44147  28.133  32.333   8.224  0.1024  0.1794  0.4332
 1132W        W44148  22.043   3.942   8.375 -0.0866  0.5370  0.0870
 1133W        W44149  18.771  11.812   1.453 -0.3982  0.1433  0.1538
 1134W        W44150  15.460  30.013  20.322  0.1666  0.0388 -0.2027
 1135W        W44151  19.427  31.309  15.316 -0.2299 -0.1838  0.2175
 1136W        W44152   5.920   5.189   4.862  0.0531  0.1559 -0.1026
 1137W        W44153  18.543   3.761  16.348  0.0307  0.2135 -0.2034
 1138W        W44154  31.930  32.596  18.535 -0.3604 -0.0537  0.0962
 1139W        W44155  14.601  12.855  25.467 -0.1146  0.2501 -0.1145
 1140W        W44156  28.151   7.728  24.174  0.1235  0.0212  0.1034
 1141W        W44157   4.771   7.467  24.925  0.3748  0.3043  0.2615
 1142W        W44158  30.232   6.347  28.454  0.3048  0.1918  0.1856
 1143W        W44159  26.589  14.425   2.022 -0.0912  0.0289  0.0791
 1144W        W44160  23.236   7.391   3.499  0.0241  0.1412 -0.0230
 1145W        W44161  32.974  26.313  23.156  0.0231 -0.1269 -0.3870
 1146W        W44162  13.919   5.564  14.862  0.2728 -0.0179  0.0417
 1147W        W44163  33.892   4.360  21.420  0.0019  0.0194 -0.0749
 1148W        W44164  30.543   1.745   1.736  0.2010  0.0072  0.2047
 1149W        W44165   9.370  23.852  13.095 -0.0325  0.1209  0.1516
 1150W        W44166  24.797   2.499   6.417  0.0345  0.0525 -0.2777
 1151W        W44167  12.432   4.522  16.246 -0.2145 -0.1188 -0.4399
 1152W        W44168  23.732  14.492   3.761  0.0584 -0.1099 -0.0918
 1153W        W44169  19.545   4.261  17.965 -0.0344  0.1445 -0.3637
 1154W        W44170  16.902  11.649  13.112  0.2649 -0.3427  0.0504
 1155W        W44171  12.258   2.795  24.404 -0.1067  0.2348  0.1776
 1156W        W44172  21.918  18.901  20.436 -0.1493  0.0995 -0.1137
 1157W        W44173  32.109   8.993  19.193  0.0044  0.1371  0.3536
 1158W        W44174  34.566  30.734  26.627 -0.1564 -0.1640 -0.0754
 1159W        W44175   3.566  18.647  15.277 -0.0774  0.0022  0.0798
 1160W        W44176  28.689  17.437  28.539 -0.1158 -0.1913 -0.0216
 1161W        W44177  30.649  10.354   7.450 -0.0553 -0.1519 -0.1466
 1162W        W44178  29.041   3.043  19.293 -0.0356 -0.3597 -0.0890
 1163W        W44179  31.295   4.195  15.111  0.1987  0.0363  0.0061
 1164W        W44180   0.552   6.019  23.276 -0.0571  0.2268 -0.0804
 1165W        W44181  19.691   6.361  22.513 -0.0430  0.1024  0.0586
 1166W        W44182  15.295  10.914   0.508  0.0769  0.1609 -0.3914
 1167W        W44183  18.529  24.406  13.653 -0.1047 -0.3641  0.0365
 1168W        W44184  12.132  15.293  23.475  0.1336 -0.0984 -0.3402
 1169W        W44185  25.298  10.000  25.089 -0.0746  0.2544 -0.0741
 1170W        W44186  11.314  23.714  18.098 -0.1012  0.2448 -0.1291
 1171W        W44187  22.537  13.459  17.455 -0.1928  0.0180  0.0557
 1172W        W44188   0.094  10.288  27.658  0.0101 -0.1366 -0.1761
 1173W        W44189  16.899   0.808  17.130  0.0522 -0.0182  0.1974
 1174W        W44190  18.689  31.597  20.724  0.1057 -0.2937  0.2041
 1175W        W44191  26.957  24.696  27.560  0.3796 -0.1856 -0.0828
 1176W        W44192   3.761  15.571   0.399  0.4228 -0.3787  0.0063
 1177W        W44193   3.471  14.712  20.035  0.0647 -0.1369 -0.3110
 1178W        W44194  13.945  28.197   0.698  0.2348  0.1024  0.0959
 1179W        W44195  10.358   3.341   9.379  0.1728 -0.2266 -0.0471
 1180W        W44196   4.611  18.463   2.478 -0.2046  0.0775  0.0286
 1181W        W44197  10.956   3.473   6.255  0.1611 -0.1530  0.0106
 1182W        W44198  11.499   5.367  16.937 -0.0680 -0.2048  0.1041
 1183W        W44199  20.468  26.565   0.877  0.1076  0.0098 -0.1920
 1184W        W44200  24.203  12.045   8.003  0.1909  0.1598 -0.0889
 1185W        W44201  16.004  13.745  26.328  0.0422 -0.0477 -0.1575
 1186W        W44202  15.097  33.855  19.846 -0.2425  0.3591  0.1726
 1187W        W44203  14.459   8.153  15.230  0.1633  0.2501  0.0057
 1188W        W44204  23.223  13.117   0.730  0.1897 -0.0671  0.0415
 1189W        W44205  18.645   0.229  17.162  0.0398 -0.1832 -0.1617
 1190W        W44206  16.405  31.891  18.156 -0.0140 -0.1347  0.1768
 1191W        W44207  10.878   8.470  25.037 -0.1449  0.1141 -0.0987
 1192W        W44208  20.791  30.001   4.705 -0.2587 -0.1353  0.1867
 1193W        W44209  19.440  12.835  11.851  0.0889 -0.2686  0.3574
 1194W        W44210  15.416   5.568  13.433 -0.1355 -0.0994  0.0169
 1195W        W44211  34.692  15.611  16.491 -0.0259  0.1524 -0.2846
 1196W        W44212  14.517  33.452  21.080  0.2448  0.0516  0.1049
 1197W        W44213  12.236   8.383  20.429  0.2077  0.0694  0.1395
 1198W        W44214  21.275  29.956  23.759 -0.0457 -0.3054 -0.0333
 1199W        W44215  25.307  13.175   4.003  0.2363 -0.0073 -0.2275
 1200W        W44216  29.373   5.022  21.551  0.2928 -0.0807  0.1920
 1201W        W44217  11.837   3.699  16.606 -0.1825  0.1581 -0.1316
 1202W        W44218  27.415  27.396  25.480 -0.2473 -0.1549  0.1657
 1203W        W44219  34.047  30.159  17.694  0.0056 -0.1340 -0.1853
 1204W        W44220  18.686   3.893   0.093 -0.1574  0.0744  0.0013
 1205W        W44221  16.580   7.822  25.585  0.1891  0.0203  0.1442
 1206W        W44222  34.181   6.121  28.071 -0.0595  0.0102 -0.0509
 1207W        W44223  22.146   1.473  22.876  0.2850  0.0091  0.2391
 1208W        W44224   9.316  29.859  19.949  0.2584  0.1069 -0.0156
 1209W        W44225  16.415   9.152  26.690  0.0584 -0.0389 -0.0699
 1210W        W44226   7.623  22.179   7.228  0.1371 -0.0217  0.2828
 1211W        W44227  30.520   6.961  15.344 -0.0877 -0.0858  0.1461
 1212W        W44228  27.488  30.915   1.101  0.1650 -0.0164 -0.0159
 1213W        W44229  32.722  27.462   1.226 -0.0250  0.2618 -0.1386
 1214W        W44230  30.213  23.669  20.967  0.0508 -0.0423 -0.0051
 1215W        W44231  32.275   4.575  26.499 -0.2250  0.1034  0.1045
 1216W        W44232  11.193   4.303  21.983  0.0124 -0.1702 -0.1099
 1217W        W44233  23.840  11.362   1.361  0.0138  0.0795  0.1318
 1218W        W44234  22.409  34.166   3.323 -0.1310 -0.1411 -0.1868
 1219W        W44235  29.853   6.648  17.468 -0.1717  0.0058 -0.0892
 1220W        W44236   0.825  29.673  28.055 -0.1170  0.1338 -0.1288
 1221W        W44237  17.732   1.127   8.328 -0.0781 -0.2096 -0.2333
 1222W        W44238  14.747  26.324  15.787 -0.0926  0.0335 -0.0557
 1223W        W44239  15.868  23.135   1.329  0.1996 -0.0265 -0.4817
 1224W        W44240  19.489   3.074   8.162  0.2132  0.0450 -0.1981
 1225W        W44241  27.118   2.693  28.333  0.5488 -0.0726  0.0895
 1226W        W44242  32.480   8.725  24.947 -0.2003 -0.0350  0.0033
 1227W        W44243  31.362  12.808  24.397  0.0237  0.0654 -0.3869
 1228W        W44244   9.811   3.250  21.259  0.0499  0.1116  0.1035
 1229W        W44245  19.449  26.686  21.891  0.1196  0.1849  0.2592
 1230W        W44246  32.306   0.795   7.803  0.0901 -0.0466  0.1286
 1231W        W44247  31.373   0.074   4.411  0.0059 -0.1176 -0.1620
 1232W        W44248  28.220   9.810  22.847 -0.0975  0.1024 -0.4671
 1233W        W44249  32.691  11.931  29.223  0.3182 -0.0171  0.1379
 1234W        W44250  20.454   2.701  19.636 -0.1563 -0.2785  0.5046
 1235W        W44251  23.319   3.821  27.927 -0.0637  0.1474 -0.1406
 1236W        W44252  27.361  30.960  22.124  0.1117  0.2261  0.0085
 1237W        W44253  29.733   2.059   8.561 -0.3600  0.1675  0.3813
 1238W        W44254  16.329   6.291  21.026  0.2022 -0.2833  0.4422
 1239W        W44255   6.292  19.599   7.101  0.0330 -0.1416 -0.1509
 1240W        W44256  20.341   0.712   9.981  0.1570  0.0489  0.1506
 1241W        W44257  22.398  21.785  23.212 -0.0338 -0.0746  0.0142
 1242W        W44258  30.071  22.734  21.453 -0.1290 -0.4089  0.0739
 1243W        W44259  23.569   9.180  24.068  0.0962  0.2342 -0.0451
 1244W        W44260  18.154   0.963   8.209  0.4513  0.0728  0.0568
 1245W        W44261  19.895  16.782  25.027  0.0869 -0.0579  0.1190
 1246W        W44262  27.448   8.034   1.855 -0.1201 -0.2753 -0.2944
 1247W        W44263  24.121   2.035  22.846  0.1015  0.0589 -0.0101
 1248W        W44264  31.354   0.738  21.639  0.1731  0.1294  0.1607
 1249W        W44265  24.715   2.832   4.869  0.0222 -0.2922  0.0963
 1250W        W44266  15.225  13.382  19.198  0.2098 -0.2696  0.1608
 1251W        W44267  30.387  14.511   2.427  0.0363  0.1164 -0.0430
 1252W        W44268  18.906   0.677  26.127 -0.2888  0.1088  0.3718
 1253W        W44269  17.823  30.671  23.904  0.2349 -0.1657  0.0118
 1254W        W44270  22.273  27.387   2.109  0.0044 -0.1471 -0.1307
 1255W        W44271  22.900  30.453  22.141 -0.3839 -0.0555 -0.3306
 1256W        W44272   9.979  11.369  22.499 -0.2983  0.2556  0.0687
 1257W        W44273  23.148  18.738   2.012  0.1970 -0.0995  0.1728
 1258W        W44274   9.969   1.556   4.635  0.2321  0.0270 -0.3718
 1259W        W44275  18.449   3.168  19.811  0.1551 -0.0231 -0.0870
 1260W        W44276  23.201  30.105  22.767 -0.1263 -0.0836 -0.1233
 1261W        W44277  20.927  12.783  28.157  0.0015  0.0618  0.3060
 1262W        W44278  31.937  15.625  22.570 -0.1939  0.0177  0.1580
 1263W        W44279   7.213   1.181  22.646 -0.2465 -0.0831  0.2754
 1264W        W44280  20.873  32.080  26.632 -0.1785 -0.0085 -0.1776
 1265W        W44281   2.192  23.399   3.143  0.0481  0.2176  0.0314
 1266W        W44282  21.404  10.998   3.788  0.2697  0.1260 -0.1518
 1267W        W44283  25.495  34.477  26.358  0.3036  0.1518 -0.0098
 1268W        W44284  21.975   9.606  26.195  0.0201  0.0256 -0.1299
 1269W        W44285  32.323  22.308  26.607 -0.2051 -0.2255  0.1463
 1270W        W44286  18.913   3.219  25.408  0.2717 -0.2202 -0.3415
 1271W        W44287  24.873   0.421  25.184  0.2994  0.1066  0.3966
 1272W        W44288   8.412   6.692   4.733 -0.1194  0.2128  0.3067
 1273W        W44289  22.728  30.937  29.086 -0.1112  0.2950 -0.3657
 1274W        W44290  18.572  28.509  24.015 -0.0627 -0.0866 -0.0428
 1275W        W44291   3.876  28.960  18.680  0.1765  0.0184  0.3250
 1276W        W44292  33.734   8.760   5.136 -0.1080 -0.0177  0.0640
 1277W        W44293   2.841  10.508  26.920  0.2083  0.3403 -0.1538
 1278W        W44294   8.386  10.913   2.791  0.2109 -0.1273  0.1039
 1279W        W44295  25.272  10.348  25.517 -0.1382 -0.1439 -0.1006
 1280W        W44296   0.655  10.214  15.734 -0.0930 -0.2059 -0.0571
 1281W        W44297   2.064  24.068   7.515  0.2859  0.1824  0.1609
 1282W        W44298  21.263  31.777  18.844  0.1013  0.3089 -0.0465
 1283W        W44299   4.840   3.571  28.319 -0.0560 -0.3264  0.0573
 1284W        W44300  33.918  27.502  19.093 -0.0577  0.2305 -0.0650
 1285W        W44301  10.355  34.703  16.760  0.1714 -0.1290 -0.0187
 1286W        W44302   6.871  11.694  22.370 -0.1792  0.1918  0.0368
 1287W        W44303   1.873  16.168  20.068 -0.0410 -0.4666 -0.1366
 1288W        W44304   8.866   9.939  20.516  0.1648 -0.0172  0.2863
 1289W        W44305  32.713  32.638  28.078 -0.0259 -0.1501 -0.1373
 1290W        W44306  27.507   2.493  18.166 -0.0493 -0.1124 -0.1354
 1291W        W44307   9.527  27.111   8.305 -0.1955  0.3148  0.1692
 1292W        W44308  12.670  31.596  21.983  0.2981 -0.1090 -0.1137
 1293W        W44309   7.238   3.931  15.004 -0.1251 -0.0241  0.1148
 1294W        W44310  19.927  34.415   9.466 -0.1747 -0.6637 -0.2882
 1295W        W44311  22.937  10.914  19.792 -0.1138  0.0588  0.0542
 1296W        W44312  29.439  10.461   1.996  0.2494  0.3500  0.1896
 1297W        W44313   3.003   4.707   5.669 -0.0188  0.0646 -0.5053
 1298W        W44314  19.431   6.166  27.104 -0.0805 -0.0818 -0.4287
 1299W        W44315  24.921  33.744  22.752  0.4697 -0.0213  0.0800
 1300W        W44316  21.365  34.114   0.741 -0.0499  0.2265 -0.1989
 1301W        W44317   6.578   4.590  18.525 -0.2496  0.1117  0.1352
 1302W        W44318   0.013  28.842  19.596 -0.1682  0.0905  0.1730
 1303W        W44319  24.670  12.542  20.265 -0.0927  0.0868  0.1244
 1304W        W44320  27.745  11.842  17.357  0.2193  0.0964 -0.1563
 1305W        W44321  18.100  27.434   3.223 -0.1377 -0.2881  0.2027
 1306W        W44322  16.464   5.294  28.243 -0.2733 -0.1615  0.1214
 1307W        W44323  27.999  30.596  27.788 -0.0563  0.2341 -0.4016
 1308W        W44324  15.509   3.901   0.631  0.1743 -0.0814 -0.0175
 1309W        W44325   3.715   6.674  26.487  0.0089 -0.1401 -0.0122
 1310W        W44326  23.387   5.804   0.716 -0.1038 -0.2007  0.1478
 1311W        W44327  18.320  15.354  26.496  0.0732  0.2559 -0.0467
 1312W        W44328  32.960   5.771  18.871  0.0685 -0.0147 -0.2894
 1313W        W44329   1.659   6.350  23.967  0.4024  0.2361 -0.2353
 1314W        W44330  28.015   8.471   0.741  0.0979 -0.1043 -0.3228
 1315W        W44331  16.643   9.116  17.487  0.0678  0.0840  0.2123
 1316W        W44332  27.572  23.031  18.180 -0.2656  0.0619 -0.0967
 1317W        W44333  16.166   5.772  16.655 -0.1135 -0.0122  0.2518
 1318W        W44334   6.051  17.247   6.442 -0.1885 -0.1642  0.0936
 1319W        W44335  12.074  12.191  27.304 -0.3954 -0.1498 -0.4504
 1320W        W44336  19.828   3.182   3.433  0.3176  0.0624  0.0421
 1321W        W44337  15.826  34.715  16.651  0.0901  0.2158  0.1188
 1322W        W44338  10.368   2.481  24.459  0.0353  0.1860  0.2777
 1323W        W44339  22.140  33.785   3.151 -0.1719 -0.2287 -0.3010
 1324W        W44340  20.636  31.426  28.432 -0.0994 -0.2635 -0.0655
 1325W        W44341  13.431   7.463  25.779 -0.3441  0.1330 -0.1890
 1326W        W44342   0.026   1.674  25.747 -0.2006 -0.4139 -0.0647
 1327W        W44343  27.360   2.613  20.167 -0.0480 -0.0035 -0.0840
 1328W        W44344   3.608   1.194  25.056 -0.2339  0.0695  0.1019
 1329W        W44345  15.835  29.499   0.465 -0.0072 -0.0254 -0.0774
 1330W        W44346  27.237  33.070  28.439  0.1257 -0.0158  0.3809
 1331W        W44347  28.746  14.515   0.214 -0.1999 -0.0365 -0.0379
 1332W        W44348  27.584  19.836   8.614 -0.0690 -0.0832 -0.0204
 1333W        W44349  23.431   3.044   5.173 -0.0226  0.3240 -0.1647
 1334W        W44350  17.869  12.026  18.198 -0.5349  0.3559 -0.0601
 1335W        W44351  31.572  13.588  17.423 -0.1679 -0.0368 -0.2211
 1336W        W44352  19.708   6.330  23.571 -0.1514  0.1259 -0.0893
 1337W        W44353  22.252   2.608  27.092 -0.0105  0.4965  0.1328
 1338W        W44354  16.093  33.162   4.150  0.1243  0.0635 -0.0626
 1339W        W44355  15.692   6.587   9.613  0.0587 -0.1284 -0.2413
 1340W        W44356  10.428  10.476   8.573  0.2302 -0.1252 -0.0115
 1341W        W44357  24.644  10.840  28.377 -0.1198  0.0360  0.0447
 1342W        W44358  10.349  21.604   5.060 -0.0197  0.0372 -0.0032
 1343W        W44359  13.497  16.787  15.043 -0.2196 -0.0292 -0.1305
 1344W        W44360  27.127   8.037   3.119  0.1331 -0.1214  0.1009
 1345W        W44361  11.619   2.510  23.383 -0.2472  0.0805  0.2225
 1346W        W44362  15.117  34.760   6.212 -0.0937  0.0840  0.1323
 1347W        W44363   9.881  14.280   4.264  0.4177 -0.0882  0.0672
 1348W        W44364  11.975  13.115  26.093  0.3171  0.0087  0.2619
 1349W        W44365  27.394   7.797  26.601 -0.0090 -0.3171  0.1151
 1350W        W44366  26.286  27.982  24.996  0.3034  0.0382  0.1327
 1351W        W44367   5.505   7.485   5.074 -0.2036  0.0985 -0.3805
 1352W        W44368  22.851   4.721   9.350  0.1880  0.4184 -0.0183
 1353W        W44369   7.669  11.073  15.378 -0.1148  0.3545 -0.1663
 1354W        W44370  16.227   0.633  24.579 -0.2387 -0.0222  0.1202
 1355W        W44371  24.000   2.704  16.984 -0.0276  0.1876 -0.0792
 1356W        W44372  25.903  21.789  10.262  0.0091 -0.0630  0.3146
 1357W        W44373   2.287  12.793  22.779 -0.1146  0.1367  0.0256
 1358W        W44374   2.380  32.213   5.884  0.2684  0.0802 -0.2303
 1359W        W44375  18.828  28.699   0.135  0.1557 -0.2972 -0.0667
 1360W        W44376  22.304  27.932   5.060 -0.1104  0.1428 -0.1246
 1361W        W44377  12.879   9.666  17.009 -0.0379 -0.0228 -0.1708
 1362W        W44378  24.621   6.848   9.901 -0.1102  0.0824  0.0511
 1363W        W44379   1.399   7.768   5.348 -0.2339 -0.0567 -0.0077
 1364W        W44380  28.534   2.668   0.814  0.3075 -0.1756  0.0847
 1365W        W44381  22.449  15.948   5.200  0.2428 -0.3293  0.0955
 1366W        W44382  24.115  30.367  24.170  0.2320 -0.0165 -0.1356
 1367W        W44383  26.897  32.781   0.775  0.2023  0.0892 -0.1309
 1368W        W44384  20.349  11.578  16.270  0.4752  0.0357 -0.3910
 1369W        W44385  21.329  10.486  16.269 -0.1003  0.0428 -0.0443
 1370W        W44386  26.492  16.722  17.660  0.0884 -0.2043  0.0324
 1371W        W44387  25.360   4.320  26.002  0.0563 -0.0532 -0.1425
 1372W        W44388  16.914  15.867  22.025 -0.0332  0.0789  0.0608
 1373W        W44389  10.301  18.860   1.330  0.0329 -0.0085  0.1777
 1374W        W44390  25.879  14.745  14.838 -0.2192  0.2971  0.3279
 1375W        W44391  30.393   4.005   1.979  0.1444 -0.1714  0.1845
 1376W        W44392  18.731   8.213   3.099  0.2322 -0.2261 -0.1793
 1377W        W44393  13.473   0.256  26.183  0.2595 -0.0637  0.3484
 1378W        W44394  13.135  29.295   2.871 -0.2734  0.3694 -0.0750
 1379W        W44395   2.736  24.435   7.988  0.0364  0.1411 -0.2539
 1380W        W44396  23.684  18.996   6.721  0.3737 -0.0798 -0.0823
 1381W        W44397  22.303  11.838  20.326  0.1173 -0.3051  0.0922
 1382W        W44398  22.914   0.635  26.696  0.2442  0.1524 -0.1447
 1383W        W44399  13.038  20.343  24.544  0.0275  0.0348  0.2989
 1384W        W44400  33.424  18.242   6.645  0.0602 -0.1899  0.0279
 1385W        W44401  19.118   1.618   0.155  0.1497  0.1395 -0.2259
 1386W        W44402  12.406  34.748  20.078 -0.1068 -0.1112 -0.2512
 1387W        W44403  16.159  26.947   0.116 -0.0286  0.1503 -0.0208
 1388W        W44404  31.016   8.012  15.957  0.0327 -0.0647  0.1135
 1389W        W44405  31.549  27.956   3.185  0.3776 -0.1196  0.0641
 1390W        W44406  23.990   1.241   0.049 -0.0905 -0.0196 -0.1246
 1391W        W44407  32.880  30.429  23.116  0.0868  0.0464 -0.3443
 1392W        W44408  20.184  34.736  16.358 -0.0948 -0.0161 -0.3114
 1393W        W44409  16.646   8.925   0.674 -0.3787  0.2878 -0.1404
 1394W        W44410  25.180  30.546  22.525 -0.0784  0.1894  0.1536
 1395W        W44411  28.718  21.416  28.668 -0.2707 -0.1128  0.0719
 1396W        W44412  22.325   8.499  22.292 -0.0195  0.0331  0.0165
 1397W        W44413  28.298   5.193  27.084 -0.0280  0.1379 -0.0588
 1398W        W44414  25.615  15.447  24.317 -0.4242  0.0639  0.0036
 1399W        W44415  18.247   5.679  26.636 -0.0007 -0.1443 -0.1936
 1400W        W44416   4.350   5.900   1.111 -0.2727  0.1060  0.0252
 1401W        W44417  33.649  27.409  24.367  0.0532 -0.5317  0.2005
 1402W        W44418  25.352  25.188   3.793 -0.0539 -0.3137  0.1902
 1403W        W44419  15.716  11.344  26.678 -0.0567 -0.4593  0.0630
 1404W        W44420  22.094  16.056  19.676 -0.2699  0.1575 -0.2443
 1405W        W44421  32.737   2.160   7.086  0.0450  0.2515  0.0178
 1406W        W44422  29.151  10.604  28.001  0.0132  0.0247  0.0400
 1407W        W44423  16.519  22.102   8.741 -0.1477  0.2555  0.2362
 1408W        W44424  18.415  30.584  17.826  0.0888 -0.0773 -0.0299
 1409W        W44425  21.775   4.019   6.666  0.0944 -0.0806 -0.1583
 1410W        W44426   7.733  23.230  15.023  0.1155  0.0461  0.1026
 1411W        W44427  22.558   4.412  15.280  0.0703 -0.1231  0.1748
 1412W        W44428  18.055  12.043   5.372 -0.3255 -0.0185 -0.0928
 1413W        W44429  24.595   0.075   2.198  0.1092 -0.4956 -0.1488
 1414W        W44430  11.185   7.371   7.478  0.1362  0.1961 -0.1848
 1415W        W44431   1.841  16.278   6.428 -0.2776 -0.2296 -0.1293
 1416W        W44432   3.954  29.853   5.961  0.2415  0.3650 -0.2115
 1417W        W44433  19.002  27.168  20.904  0.0196 -0.1125  0.1412
 1418W        W44434  12.997   4.464  29.201  0.4131  0.0878  0.0347
 1419W        W44435  15.701   3.554   0.299  0.2003  0.0357 -0.3089
 1420W        W44436  15.158   8.008  22.294  0.3420  0.1085 -0.0713
 1421W        W44437  30.866  23.911   1.142 -0.1097 -0.4109  0.0618
 1422W        W44438  13.898   4.037  27.836  0.4140 -0.0054 -0.0301
 1423W        W44439  19.669  33.843   6.444  0.1923  0.0285 -0.0973
 1424W        W44440  11.552  11.484   8.812  0.3514 -0.0068 -0.2767
 1425W        W44441  29.453  15.805   3.415 -0.0778 -0.2498  0.4145
 1426W        W44442  18.987   3.405   0.398  0.1934 -0.2377  0.0067
 1427W        W44443  30.214   1.562   0.153 -0.0075  0.3413 -0.1402
 1428W        W44444  26.337   8.810   9.930 -0.1556 -0.2082 -0.1371
 1429W        W44445   8.196  12.740  19.805  0.0815 -0.0254 -0.1010
 1430W        W44446  25.380  22.177   7.916  0.1646 -0.0956  0.0092
 1431W        W44447  16.606  30.404  21.482  0.0057 -0.3198 -0.0988
 1432W        W44448  21.835  29.042  22.826 -0.1973  0.0091 -0.0502
 1433W        W44449   3.692   3.546  24.116  0.0294 -0.1236 -0.0532
 1434W        W44450  32.129  14.290  17.978  0.0235  0.1851 -0.1580
 1435W        W44451  34.694  22.409   2.548  0.0691 -0.2957  0.0075
 1436W        W44452  27.865  22.180  25.494  0.2239 -0.0401  0.1973
 1437W        W44453   1.631   1.258   5.725 -0.1457 -0.3130 -0.1280
 1438W        W44454  17.615  32.348  28.967 -0.3349  0.0199  0.0941
 1439W        W44455  33.438  30.414  24.185 -0.0719  0.1411 -0.3143
 1440W        W44456  10.852   3.927  10.155 -0.3496  0.0938 -0.0182
 1441W        W44457  19.481  30.453   0.964 -0.0460 -0.0739 -0.1303
 1442W        W44458   9.820   5.393   0.559  0.0799 -0.0757  0.2005
 1443W        W44459  31.513   3.721  21.258 -0.0466 -0.3112  0.0707
 1444W        W44460  21.952  27.665   0.163  0.1625  0.0618  0.2511
 1445W        W44461  12.712   3.338  16.862  0.0894  0.2572  0.2174
 1446W        W44462  14.252   4.055  23.192 -0.2660 -0.2082  0.0641
 1447W        W44463   8.951   0.489  21.074 -0.1875  0.0430  0.1525
 1448W        W44464   3.871   3.339   4.766  0.0316  0.3122  0.0341
 1449W        W44465   6.105  31.194   1.833  0.0231 -0.0616 -0.0441
 1450W        W44466  34.465  33.759  26.968  0.0026 -0.0689 -0.2916
 1451W        W44467  10.409  10.686  28.588  0.0190  0.1701  0.0242
 1452W        W44468  13.295  30.334   9.645 -0.0201 -0.0366 -0.0993
 1453W        W44469   2.166  31.181  23.087 -0.1091 -0.0561 -0.1027
 1454W        W44470   6.828  24.593  28.767 -0.3856  0.0072  0.1343
 1455W        W44471  27.871  34.151  18.949 -0.1302  0.1919  0.1000
 1456W        W44472  21.074  22.709   1.270 -0.0328  0.0415 -0.1802
 1457W        W44473   6.764   6.261  22.206  0.1256  0.2955 -0.1485
 1458W        W44474  25.999   3.903  22.988  0.1094 -0.0238  0.0725
 1459W        W44475  27.156   4.935   4.037 -0.1621  0.0173  0.0978
 1460W        W44476  26.193   2.882  15.701  0.0311  0.0017  0.1382
 1461W        W44477  26.155  13.853  20.204  0.0270  0.1038 -0.1021
 1462W        W44478  25.442   2.951  16.248  0.0648 -0.3042  0.2254
 1463W        W44479   2.899   4.136   1.510 -0.1064  0.0341 -0.0501
 1464W        W44480  23.517  33.772   9.840  0.1309 -0.3101  0.4501
 1465W        W44481  28.703   9.744  17.021 -0.1753  0.1786 -0.1976
 1466W        W44482  20.148  15.278  19.420  0.2665 -0.0080 -0.4300
 1467W        W44483  20.770   4.910   4.977  0.1561  0.3512 -0.1284
 1468W        W44484  34.598  31.513  20.471 -0.2187  0.2588 -0.0178
 1469W        W44485  18.652  17.093  12.544  0.1757  0.0280  0.1904
 1470W        W44486  24.054  12.973   6.548  0.3275 -0.2050  0.1230
 1471W        W44487  27.352  16.719   5.068 -0.1010  0.0455  0.1009
 1472W        W44488   5.202  13.575   8.658  0.0069  0.2003  0.0278
 1473W        W44489   2.166  33.156  25.874  0.0123 -0.2331 -0.1213
 1474W        W44490  30.500  28.064   2.437 -0.0639 -0.2673 -0.0232
 1475W        W44491  30.630  28.172  18.091 -0.0016  0.1074  0.1264
 1476W        W44492  26.270   5.121  25.329  0.1181  0.0561  0.2610
 1477W        W44493  21.344  26.640  14.964 -0.3146  0.1007 -0.0236
 1478W        W44494  10.847  31.217   4.803  0.0452  0.0498 -0.0745
 1479W        W44495  16.246  21.746  13.654  0.3451 -0.1206 -0.0270
 1480W        W44496  16.421   7.329  13.769  0.4540  0.2356  0.1573
 1481W        W44497   2.012  20.504   5.527 -0.2297 -0.1476  0.1120
 1482W        W44498  32.334   0.830  18.882  0.5608 -0.1468 -0.2022
 1483W        W44499  25.833  20.703  16.523  0.1503  0.1102  0.1517
 1484W        W44500  24.034   3.323   1.025 -0.0292  0.1717 -0.0476
 1485W        W44501  21.953   8.640   2.991  0.1745  0.2339 -0.2335
 1486W        W44502  19.537  17.212  12.946 -0.0353 -0.1127 -0.1860
 1487W        W44503  17.148  12.470  15.882  0.1167 -0.2837 -0.2090
 1488W        W44504  16.751   1.748  21.994  0.0816  0.0731 -0.0762
 1489W        W44505  11.521  19.401  19.341 -0.3697  0.1144 -0.1055
 1490W        W44506  27.430  19.632   8.055  0.1432 -0.0215 -0.3983
 1491W        W44507  25.655  21.838  14.523  0.2396 -0.2151  0.0736
 1492W        W44508  16.740  33.154  21.144 -0.2866  0.5379  0.2804
 1493W        W44509  11.496   3.564  25.496 -0.0363  0.1022 -0.2583
 1494W        W44510   4.342  29.354  19.412 -0.0212  0.0172  0.1249
 1495W        W44511   4.226  20.727  17.771  0.0074  0.0814  0.0325
 1496W        W44512  30.396   3.998  25.845 -0.1790 -0.2140  0.3522
 1497W        W44513  14.685  10.459  25.532 -0.1938  0.0388 -0.2213
 1498W        W44514  21.767  14.185  27.708 -0.3028  0.1235 -0.1446
 1499W        W44515   4.607   2.693   5.676  0.2168 -0.0091 -0.1710
 1500W        W44516  26.961  33.291  25.893  0.2902  0.0353  0.0425
 1501W        W44517  32.726  20.225   3.462  0.0712  0.1986  0.3769
 1502W        W44518  18.210  34.548  27.494 -0.0782  0.0865  0.2458
 1503W        W44519  15.912  31.269   2.489  0.1177  0.2129  0.1347
 1504W        W44520  16.484  22.018   6.758 -0.2262 -0.0849 -0.5516
 1505W        W44521  33.085   0.210  17.231 -0.1188  0.0700 -0.3967
 1506W        W44522  33.430  20.844  21.787 -0.1499  0.2897 -0.2778
 1507W        W44523  12.248  20.278   3.383  0.0715 -0.3347 -0.4933
 1508W        W44524  33.342  17.757   8.717  0.1943 -0.1036  0.1928
 1509W        W44525  23.119  12.545  24.969  0.2773  0.1979  0.2404
 1510W        W44526  14.535  13.726  26.456 -0.0291  0.2429  0.0316
 1511W        W44527  21.639  30.144   0.536  0.2967  0.2299 -0.0542
 1512W        W44528  21.647  15.958   3.967 -0.0434 -0.1515 -0.2314
 1513W        W44529  23.848   6.462  28.121 -0.0284 -0.1202  0.0964
 1514W        W44530  20.523  26.517  25.656 -0.1852 -0.0195 -0.0071
 1515W        W44531   8.655   3.953  23.780  0.3994 -0.4246  0.1341
 1516W        W44532  33.231  20.023  27.217  0.3809 -0.0441 -0.0432
 1517W        W44533  19.112  29.670   7.452 -0.2053  0.0436  0.1177
 1518W        W44534  20.854   5.225  18.959  0.0745 -0.1747 -0.0635
 1519W        W44535  20.797   9.337  27.549  0.1815  0.0175 -0.2915
 1520W        W44536  14.208  33.175   4.079  0.0010  0.0058 -0.2181
 1521W        W44537  22.316  16.877  22.642  0.5589  0.0965  0.0024
 1522W        W44538  14.021   7.929   1.371 -0.4479 -0.2862  0.0673
 1523W        W44539  12.772  17.612   1.729  0.1631 -0.0626 -0.0532
 1524W        W44540  15.523  31.437  29.077 -0.1154  0.3105  0.1892
 1525W        W44541  22.990  30.743   2.097  0.0182 -0.2330  0.0790
 1526W        W44542  14.364  17.507  27.683 -0.1054 -0.2628 -0.1869
 1527W        W44543   3.513  17.838  25.384  0.1298 -0.0381 -0.2208
 1528W        W44544  16.967  32.818   1.208 -0.1451  0.0064 -0.1592
 1529W        W44545  17.881  22.595  26.663  0.0596  0.3179  0.0658
 1530W        W44546  17.994  15.034  12.899 -0.1348 -0.1456  0.0749
 1531W        W44547  18.443   3.771   1.468 -0.3097 -0.2693 -0.0788
 1532W        W44548  31.436   8.247  28.002  0.0727  0.1148 -0.3467
 1533W        W44549  30.846  19.995   4.393 -0.0297  0.2841 -0.1631
 1534W        W44550  31.101  31.337  10.805 -0.2588 -0.0260 -0.0930
 1535W        W44551  26.875   7.426   4.983  0.1353  0.1383  0.0074
 1536W        W44552  17.038  16.847  15.534  0.1194 -0.0565 -0.1418
 1537W        W44553  20.992   3.395  28.654  0.5097  0.2750 -0.0995
 1538W        W44554   4.589   9.061   2.437  0.0499 -0.3022 -0.1719
 1539W        W44555  28.017  26.579   5.599  0.2001  0.1739 -0.3059
 1540W        W44556  25.951   8.635  21.971  0.0617  0.0628 -0.1893
 1541W        W44557  26.325  20.895  26.148  0.4917 -0.1421 -0.0701
 1542W        W44558  26.303   9.658   8.774  0.1086  0.2046 -0.1065
 1543W        W44559  20.876  29.415   8.087  0.0825 -0.0575 -0.1088
 1544W        W44560  26.101   5.486   9.473 -0.2232  0.0332 -0.2983
 1545W        W44561  18.650  32.215  15.603  0.5339 -0.1405  0.2243
 1546W        W44562  25.633  14.982  24.088  0.1086 -0.0368 -0.0740
 1547W        W44563  27.419   8.491  25.487 -0.2498  0.1011 -0.0394
 1548W        W44564   6.255  14.314  23.731  0.2534 -0.0998  0.2770
 1549W        W44565   3.459  30.079   8.708 -0.0130 -0.0416  0.0569
 1550W        W44566  20.178  13.902  14.136  0.0211  0.2330  0.2212
 1551W        W44567  19.770   9.238   7.750 -0.0548  0.0596 -0.0177
 1552W        W44568  14.642  34.196  22.299  0.1389 -0.1171 -0.5199
 1553W        W44569  26.114  25.822  22.779 -0.0331  0.0344  0.1876
 1554W        W44570  22.810  20.592   9.182 -0.2803 -0.2498  0.0652
 1555W        W44571  29.778  28.581   2.188 -0.0599  0.0699 -0.1123
 1556W        W44572  16.469   5.332   3.111 -0.0138  0.1589  0.0188
 1557W        W44573   0.915  13.251  17.677  0.0526 -0.1194 -0.1261
 1558W        W44574  12.671  14.615   5.368  0.0377  0.0795 -0.0734
 1559W        W44575   7.640   3.918  27.591 -0.1670  0.0704  0.0880
 1560W        W44576  28.253   6.841  20.728  0.0268  0.1852  0.0524
 1561W        W44577  27.525   1.313   9.655  0.4333  0.2705  0.0422
 1562W        W44578  19.425   8.157  20.496 -0.2433 -0.1691  0.2062
 1563W        W44579  10.526  21.974   7.368 -0.0495 -0.0836 -0.1596
 1564W        W44580  23.126   7.338   9.880  0.0920 -0.1889  0.2527
 1565W        W44581   0.440   5.746  17.301 -0.1002 -0.0119  0.1785
 1566W        W44582  21.596   1.937   7.256  0.2039  0.0764 -0.1299
 1567W        W44583  23.431  13.603   6.951  0.0794 -0.0275  0.4952
 1568W        W44584  25.842   1.682  24.441 -0.1012 -0.0969  0.1022
 1569W        W44585   7.041   3.310  25.004 -0.0184  0.0427 -0.1640
 1570W        W44586  17.161  17.970  14.663 -0.0922 -0.3263  0.0746
 1571W        W44587  28.424  24.581  22.660 -0.1584  0.1043  0.3363
 1572W        W44588  18.755  32.856   0.466  0.1767  0.0168  0.1655
 1573W        W44589  17.984  15.710  27.300 -0.2844  0.1291 -0.0231
 1574W        W44590  28.990  33.101   0.052 -0.1517 -0.1683 -0.0700
 1575W        W44591   7.918   8.897   2.366  0.0878  0.0934 -0.1157
 1576W        W44592  33.045  30.063   4.684  0.0448 -0.0749 -0.0004
 1577W        W44593  24.395  19.396  19.939  0.0896 -0.1870  0.2601
 1578W        W44594  14.059  33.832   9.941 -0.2655  0.1986 -0.0954
 1579W        W44595  21.914  22.238   0.716  0.4365  0.0455 -0.3282
 1580W        W44596  18.065  11.238  27.315  0.2433  0.0831 -0.0025
 1581W        W44597  33.394   2.203   1.763  0.1044 -0.0007  0.1239
 1582W        W44598  15.723   5.871   1.077  0.1623  0.2412  0.2395
 1583W        W44599  17.027   0.752   8.895  0.1109 -0.0604  0.0634
 1584W        W44600  16.797   1.620  14.607  0.2694  0.1885 -0.2297
 1585W        W44601  28.458  14.652   2.834 -0.0546  0.0599  0.2623
 1586W        W44602  11.615  13.534  18.090  0.2113 -0.1637 -0.1664
 1587W        W44603  28.591   2.721   6.631  0.2186 -0.0260  0.2857
 1588W        W44604  25.068  11.192   2.289 -0.2470  0.1732 -0.0929
 1589W        W44605  26.127  25.001   6.704  0.1453 -0.0327  0.2851
 1590W        W44606  32.143  32.412   4.529 -0.0615 -0.0072 -0.0742
 1591W        W44607  22.000   8.710   1.107 -0.0143  0.0710  0.3417
 1592W        W44608  24.237  16.900  19.759  0.3015 -0.0375  0.1427
 1593W        W44609  22.225  32.952   5.094  0.2492  0.0727 -0.1094
 1594W        W44610   0.220  15.038  20.929  0.1010 -0.0746 -0.1714
 1595W        W44611  15.983  30.069  18.277 -0.0838 -0.1248  0.2101
 1596W        W44612  29.332  31.018   5.474 -0.0378  0.0290  0.1703
 1597W        W44613  22.613  29.909  15.703 -0.1879 -0.3241  0.0168
 1598W        W44614  21.203   2.186  27.281 -0.1739 -0.0121  0.3451
 1599W        W44615  20.991  34.562   1.311  0.1555 -0.4930 -0.0509
 1600W        W44616  25.434   7.278  17.249  0.2341 -0.0568  0.2427
 1601W        W44617  11.675   0.549  21.964  0.2387 -0.0101  0.1410
 1602W        W44618  34.666  10.483  22.023 -0.2796  0.1862  0.1954
 1603W        W44619  23.893  13.387   2.928 -0.0291 -0.2061 -0.0718
 1604W        W44620  19.632   3.941  14.864 -0.0741 -0.2730 -0.3055
 1605W        W44621  28.936  34.500   4.298  0.0595  0.0024 -0.0582
 1606W        W44622  21.436   3.403  26.615  0.0081 -0.0530  0.2065
 1607W        W44623  22.311  26.475  26.968  0.1122  0.3849 -0.1296
 1608W        W44624   8.361   4.422   2.489  0.1377  0.0327  0.2173
 1609W        W44625  10.132  10.784   3.733  0.2520 -0.1004 -0.2997
 1610W        W44626  23.918   9.657  25.123 -0.1277  0.2573 -0.0742
 1611W        W44627  21.107   5.461  15.792 -0.1891  0.3684  0.3253
 1612W        W44628  16.104  15.682  21.466  0.1564  0.0200 -0.0688
 1613W        W44629  15.904  34.374  26.153 -0.0099  0.1605  0.2404
 1614W        W44630  24.639  27.757  26.304  0.0907  0.2161  0.1434
 1615W        W44631  16.555  13.721  22.906 -0.3911 -0.0566 -0.1422
 1616W        W44632  26.647  34.119  17.719  0.2040  0.1446 -0.0341
 1617W        W44633  23.989  10.559  27.559  0.3969  0.1856 -0.1752
 1618W        W44634  15.053   2.549  14.427  0.5376 -0.0366  0.2505
 1619W        W44635  24.327   6.257  22.674 -0.0119  0.1262  0.0115
 1620W        W44636  22.216   7.885   0.512 -0.1494  0.1087 -0.0002
 1621W        W44637  13.701  10.350  18.424  0.0198 -0.3770  0.1549
 1622W        W44638   9.167  27.761  26.462 -0.0047  0.0205 -0.0392
 1623W        W44639   0.437   0.748   2.684  0.1402 -0.2779 -0.3192
 1624W        W44640  33.862   8.910  27.831  0.3050 -0.0615  0.2843
 1625W        W44641  26.308   0.707  28.414 -0.0007 -0.3709 -0.2102
 1626W        W44642  17.009   6.826  15.078  0.1380  0.0358 -0.0773
 1627W        W44643   1.329  28.226  18.631 -0.1494 -0.1495  0.1492
 1628W        W44644  27.827   1.616  19.670  0.4543  0.1554 -0.1568
 1629W        W44645   4.247   0.766   4.439 -0.0785 -0.1676  0.1482
 1630W        W44646  12.981   1.965  24.902  0.1232 -0.0201 -0.1941
 1631W        W44647  26.795  28.049   0.826  0.0610  0.1660 -0.2275
 1632W        W44648  31.610   0.186  29.256 -0.4147  0.0135 -0.2179
 1633W        W44649  27.178   8.363   7.072  0.0567 -0.0747 -0.1024
 1634W        W44650  18.544   6.132  18.304 -0.0188 -0.2424  0.0009
 1635W        W44651  23.394  26.480   7.680 -0.2581  0.0586 -0.0110
 1636W        W44652  16.331   6.696  15.655  0.0156 -0.0952 -0.2272
 1637W        W44653  28.759   5.449  22.216  0.2473  0.0618 -0.0937
 1638W        W44654  22.707   1.411   2.715  0.0341  0.0698 -0.0485
 1639W        W44655  28.990  29.801  27.607  0.0672  0.2593 -0.0531
 1640W        W44656  19.487  34.194   1.749 -0.0484 -0.0982  0.1653
 1641W        W44657  17.569   0.409  18.965 -0.0820  0.4474 -0.1432
 1642W        W44658  12.743   4.440  15.430  0.0493  0.4203  0.3941
 1643W        W44659  18.016   5.331   4.174  0.0955  0.2363  0.0705
 1644W        W44660  33.766   8.349  27.152  0.0158  0.3112  0.2169
 1645W        W44661  28.142  14.469  24.740  0.0247 -0.2491 -0.0835
 1646W        W44662  16.532  33.049   0.307  0.0691  0.0302  0.2084
 1647W        W44663   1.820  10.297   8.544  0.2436 -0.0772  0.1850
 1648W        W44664  24.909   4.411  24.972  0.0069 -0.0642 -0.1936
 1649W        W44665  25.293  12.462   5.895 -0.1378 -0.0290 -0.1681
 1650W        W44666  14.699   8.020  26.629 -0.3904  0.1055 -0.0895
 1651W        W44667  33.872  28.217   0.622 -0.0431  0.1255 -0.0924
 1652W        W44668  31.956  30.456  26.523 -0.1410  0.0094  0.1721
 1653W        W44669   9.823  28.260   3.908  0.3583 -0.0384  0.4167
 1654W        W44670  29.395  10.683  25.170 -0.1607 -0.1970  0.0765
 1655W        W44671   8.157  19.565  22.722 -0.0719 -0.0975 -0.0287
 1656W        W44672  21.068  34.171   7.383 -0.0589 -0.1063 -0.2416
 1657W        W44673  20.632   3.696   4.283 -0.0489  0.2658 -0.1148
 1658W        W44674  34.003   5.567   6.920  0.0226  0.0141  0.0817
 1659W        W44675  23.000   3.882  28.421  0.0521 -0.2198 -0.2305
 1660W        W44676  30.972  18.214  27.377  0.2274  0.1471 -0.0091
 1661W        W44677  33.421   5.464  19.470  0.1284 -0.1246 -0.1010
 1662W        W44678  11.296  30.578  25.927 -0.0769  0.1846  0.0063
 1663W        W44679  24.323  23.711  14.859  0.0732  0.0231  0.2500
 1664W        W44680  29.307  33.946   0.262 -0.0175 -0.1850 -0.2003
 1665W        W44681  18.984  32.999   9.025 -0.0041 -0.2307  0.1413
 1666W        W44682  19.901  13.263   5.783  0.1241 -0.0824 -0.2718
 1667W        W44683   7.860   5.667   3.115 -0.2459 -0.4789  0.1079
 1668W        W44684   9.284   3.492   2.159  0.1704 -0.2355  0.0627
 1669W        W44685  15.831  32.899   2.438  0.4288  0.2326  0.2946
 1670W        W44686   7.203   4.715  25.919  0.0053  0.2918 -0.0653
 1671W        W44687  27.951   3.459  25.997 -0.1202 -0.0996  0.2880
 1672W        W44688   4.786   2.371  18.659  0.2092 -0.1765 -0.0417
 1673W        W44689  30.246  24.611  18.026 -0.2367  0.0753  0.3816
 1674W        W44690  32.908  14.313   7.905  0.2295  0.0299 -0.1981
 1675W        W44691  28.487   9.619   8.177  0.1198  0.0195 -0.1221
 1676W        W44692  16.598   4.947   2.356  0.0980  0.0464 -0.0124
 1677W        W44693  17.672  23.359  17.875  0.5119  0.2045  0.1608
 1678W        W44694  19.806  21.657   4.810 -0.2347 -0.2134 -0.0332
 1679W        W44695  27.163  10.778  26.674  0.1614 -0.0098 -0.1119
 1680W        W44696  16.056  31.210   5.668 -0.3033  0.3241  0.2400
 1681W        W44697  22.230  10.496  26.536 -0.3341  0.1616 -0.0080
 1682W        W44698  23.464  34.024   9.298  0.0072  0.0969  0.1328
 1683W        W44699  16.725  10.134   5.618 -0.1482  0.1747 -0.0753
 1684W        W44700  18.432  10.471  14.315 -0.0078  0.1107  0.2266
 1685W        W44701  17.795  19.547   2.937  0.4205 -0.2242  0.1074
 1686W        W44702  22.117  11.247  27.273  0.1480 -0.0793 -0.0088
 1687W        W44703  10.864  12.788   0.599 -0.0966 -0.0498 -0.2677
 1688W        W44704  25.784  10.986   5.858  0.0985 -0.2850 -0.0231
 1689W        W44705  21.452  12.728  20.428 -0.0046 -0.0379 -0.0608
 1690W        W44706  26.307  30.549   8.683  0.2129 -0.1795  0.1848
 1691W        W44707  22.088  26.205   5.741 -0.2036 -0.1522 -0.0350
 1692W        W44708   4.256  13.965  25.699 -0.1015 -0.2419 -0.0603
 1693W        W44709   9.227   8.735  21.870 -0.0925 -0.0271  0.6312
 1694W        W44710   2.594  22.842  19.462  0.3956  0.0405 -0.1694
 1695W        W44711  10.956  33.545  28.058  0.1050  0.3026 -0.2613
 1696W        W44712  20.869   8.591  20.708  0.1341  0.0067  0.2145
 1697W        W44713   5.403  27.956  17.700  0.0814 -0.4087  0.2729
 1698W        W44714  12.355  15.113   5.059  0.1369  0.1179 -0.0830
 1699W        W44715  12.697  21.216  23.972 -0.4391  0.1575 -0.3214
 1700W        W44716  22.901  28.407  23.316 -0.2155 -0.0318  0.1442
 1701W        W44717  25.048  20.729   0.725 -0.3700  0.1004 -0.0223
 1702W        W44718  33.344   4.864  28.235  0.1491 -0.2045 -0.0168
 1703W        W44719  17.642  34.584  26.453 -0.1698 -0.2705  0.2080
 1704W        W44720  18.682  11.493  29.287 -0.0162 -0.4749 -0.0178
 1705W        W44721   4.687   3.873  20.276  0.0760 -0.1715 -0.0465
 1706W        W44722  19.751  34.205  18.725 -0.3971 -0.0744 -0.1092
 1707W        W44723  31.549  29.432  28.584  0.0918 -0.1785  0.2519
 1708W        W44724  26.757  15.987  24.318 -0.0975  0.0394 -0.0683
 1709W        W44725  22.904   0.717  24.424 -0.1007  0.1667  0.2004
 1710W        W44726  19.961  20.435  20.578 -0.1574 -0.1867  0.0567
 1711W        W44727  15.116  18.033  23.111 -0.2238  0.3251  0.2030
 1712W        W44728   0.675  34.291   7.972 -0.2805 -0.0491  0.1979
 1713W        W44729  33.458  30.366   0.280 -0.2736  0.2029  0.0480
 1714W        W44730  14.681   3.501  26.182 -0.0369  0.0502  0.1455
 1715W        W44731  18.974  26.047  20.374  0.0884  0.3785  0.0755
 1716W        W44732   4.408  16.327   0.317 -0.1117  0.2331  0.2028
 1717W        W44733   0.189   6.585   0.427  0.1676 -0.1450  0.1139
 1718W        W44734  16.430  17.544  29.292 -0.1397 -0.0696  0.0528
 1719W        W44735  22.739  15.629  25.001 -0.1584  0.1245  0.0517
 1720W        W44736  26.967   9.969  27.735  0.2030 -0.0456  0.1926
 1721W        W44737  34.492   1.547  15.953 -0.0361  0.0406  0.2197
 1722W        W44738  26.679  34.724   7.045  0.0810 -0.1436 -0.1809
 1723W        W44739  20.182   0.252  20.197  0.2009  0.0958 -0.1824
 1724W        W44740  14.713  29.503   1.772 -0.0726  0.3263  0.4210
 1725W        W44741  24.955  10.569  26.024 -0.1068 -0.0939 -0.1194
 1726W        W44742  32.857  17.086   0.588  0.1278  0.1259 -0.0111
 1727W        W44743  24.501  24.969   1.201  0.3061  0.0010  0.2223
 1728W        W44744  16.403  20.487   1.147 -0.1010  0.0248 -0.0137
 1729W        W44745  34.086  15.909   8.042 -0.0579 -0.2436 -0.1787
 1730W        W44746  27.240  13.740   1.599  0.2221  0.0427  0.1787
 1731W        W44747   2.393  18.168   2.731 -0.1129  0.0079  0.0362
 1732W        W44748  27.831   2.743  28.894 -0.1962 -0.0623  0.1413
 1733W        W44749  21.412   6.704   2.842  0.0559  0.0919  0.1091
 1734W        W44750  30.651   0.940  27.375 -0.1458 -0.0321 -0.0147
 1735W        W44751  16.912  22.934  26.511  0.0286 -0.0135 -0.3069
 1736W        W44752   2.483  22.676  22.782 -0.1530  0.6136 -0.0682
 1737W        W44753  14.126   9.177  22.727 -0.0423 -0.1895  0.0770
 1738W        W44754  27.212   7.394  27.613  0.1504 -0.0316 -0.2528
 1739W        W44755  21.656   8.917  13.857 -0.0611  0.4182  0.0101
 1740W        W44756  24.753   2.167   7.861  0.4708  0.4492  0.0895
 1741W        W44757  18.387   9.315  28.004 -0.0899 -0.2151 -0.0565
 1742W        W44758   2.184  31.265  20.638 -0.0681 -0.0717 -0.0312
 1743W        W44759  27.756  29.299  26.150 -0.3370 -0.0574  0.2260
 1744W        W44760   8.255  16.947  27.005 -0.1262 -0.1319 -0.0932
 1745W        W44761  15.172   2.618   8.506 -0.0588 -0.0082  0.0670
 1746W        W44762  17.978  32.355  25.427 -0.1551 -0.0627 -0.1636
 1747W        W44763  32.826  21.838  17.755 -0.1914  0.1560  0.1840
 1748W        W44764  11.572   6.842  14.404  0.2899 -0.0736  0.1161
 1749W        W44765  18.862  20.843  25.754 -0.0097  0.0535 -0.4653
 1750W        W44766   1.203  29.389  23.321  0.1123 -0.0152 -0.0336
 1751W        W44767  24.998   5.069  24.982  0.0585  0.2800  0.3098
 1752W        W44768  17.679  13.627   2.611 -0.0821  0.1782 -0.1135
 1753W        W44769  22.816   6.161   3.523  0.2064  0.1719 -0.0533
 1754W        W44770  25.834  13.597   7.703 -0.1274  0.3706 -0.0152
 1755W        W44771  20.547  33.109   6.892 -0.1031 -0.0795 -0.1653
 1756W        W44772   6.012  29.030  28.842 -0.0054  0.0118 -0.0545
 1757W        W44773   7.498  24.583  22.321  0.1031  0.0243  0.0467
 1758W        W44774  21.126  29.153  10.446  0.0027  0.1879  0.3458
 1759W        W44775  29.627  31.362  16.916  0.1614  0.2697  0.1710
 1760W        W44776  24.216  19.952   8.863  0.1568  0.0035 -0.0380
 1761W        W44777  19.168  10.058  25.551  0.2502  0.2168 -0.0318
 1762W        W44778  26.267  16.484  27.140 -0.3120 -0.0403  0.1674
 1763W        W44779  31.253  30.013  11.712  0.1712 -0.0693  0.1894
 1764W        W44780  21.347  29.562  22.120 -0.1300  0.0098 -0.3233
 1765W        W44781  23.215  29.209  16.893  0.1492  0.0864  0.2168
 1766W        W44782  22.969  33.593  19.515  0.1756  0.0475 -0.2953
 1767W        W44783  26.561   4.865  19.003  0.1469 -0.0221 -0.1113
 1768W        W44784  20.701  13.115  12.638  0.0411 -0.1591 -0.0509
 1769W        W44785  29.352  13.601  18.081 -0.2130 -0.3320  0.2396
 1770W        W44786  32.127   8.478  25.669  0.1344  0.2819  0.2815
 1771W        W44787  21.144   9.996  19.480 -0.2101 -0.2152  0.2086
 1772W        W44788  22.797   7.178   0.139  0.3978  0.0213 -0.1975
 1773W        W44789   4.942  15.578  24.748  0.0311 -0.4737 -0.1207
 1774W        W44790  28.642  13.804   8.584 -0.1100 -0.1654 -0.4654
 1775W        W44791  31.340  11.812  21.874 -0.0966  0.0858 -0.0542
 1776W        W44792  34.297  20.091  20.782  0.1412 -0.2963 -0.0929
 1777W        W44793   6.510  17.941  17.566  0.1652  0.0225 -0.2231
 1778W        W44794  18.563   6.750  21.967 -0.0280 -0.0271  0.3359
 1779W        W44795  29.280   4.902  25.039 -0.0145 -0.0801  0.0152
 1780W        W44796  27.381  23.752  26.421  0.1098  0.0354 -0.2010
 1781W        W44797  21.670   7.493  27.110  0.2569 -0.0830  0.0128
 1782W        W44798   0.005  17.812  17.353 -0.0622  0.0581 -0.5345
 1783W        W44799  10.830  29.370  17.323  0.4061  0.1890  0.0388
 1784W        W44800  29.681   1.335  19.242  0.1807 -0.2700 -0.1087
 1785W        W44801  17.443  34.122  24.394 -0.2448  0.0873  0.0538
 1786W        W44802  12.098  10.107  17.699 -0.4102  0.2479  0.0701
 1787W        W44803  23.529   3.738  14.899  0.0777 -0.1652 -0.0401
 1788W        W44804  29.937  11.771  26.658 -0.0076  0.0464 -0.2926
 1789W        W44805  26.743  20.951  18.298  0.2044  0.1800 -0.0254
 1790W        W44806  25.458   1.467  20.591 -0.0763  0.1033 -0.3762
 1791W        W44807  24.699   4.787  14.832  0.0274 -0.1123  0.1542
 1792W        W44808  20.121  12.623  26.154 -0.1724  0.2605  0.3893
 1793W        W44809  29.011   9.440  20.888 -0.1893  0.0106  0.0589
 1794W        W44810  22.219  30.616  18.852 -0.0185  0.0262  0.4011
 1795W        W44811  22.365  15.990   2.818 -0.0181 -0.2957  0.0723
 1796W        W44812  10.232  20.510  17.123 -0.2038  0.1466 -0.1877
 1797W        W44813  12.475  23.654  13.257 -0.0457 -0.0098  0.1727
 1798W        W44814  30.037  17.588   1.758  0.0344 -0.2084  0.2171
 1799W        W44815  33.701   0.914  16.404 -0.0038  0.1952  0.3604
 1800W        W44816  18.920  14.925  24.068  0.1852  0.0010 -0.0412
 1801W        W44817  32.220   7.654   8.610  0.3567  0.0542 -0.1263
 1802W        W44818  19.753  17.983  14.200 -0.0664  0.1932  0.2107
 1803W        W44819   5.837  20.853  16.666  0.1500  0.1277  0.3068
 1804W        W44820  29.019  29.908   0.771 -0.0234 -0.3132 -0.0194
 1805W        W44821   4.077   6.387  14.749  0.1850  0.1618 -0.3007
 1806W        W44822  24.151   7.195  27.778 -0.0084 -0.3380  0.0874
 1807W        W44823   8.990  31.270  14.051  0.0158  0.0830  0.0550
 1808W        W44824  11.414   0.628  24.731  0.1435 -0.1807  0.0182
 1809W        W44825  25.093   3.972  17.031 -0.0543  0.1154 -0.1901
 1810W        W44826  25.715   4.432  22.206 -0.1631  0.1746  0.5106
 1811W        W44827  22.187   1.903  24.974  0.1076 -0.1515  0.1433
 1812W        W44828  30.789  19.304  18.912 -0.2792 -0.2304  0.1052
 1813W        W44829  25.824  21.419   5.026 -0.1540  0.0566 -0.2482
 1814W        W44830  10.168  10.371  18.842 -0.0796 -0.0773 -0.2435
 1815W        W44831   4.481  34.554  27.212 -0.2498  0.0058  0.1260
 1816W        W44832  32.143   9.646  22.593 -0.0881  0.0572 -0.1082
 1817W        W44833  28.834  34.433  26.418  0.2541  0.0688  0.2134
 1818W        W44834  24.520   7.681  17.601 -0.2741 -0.1083  0.1615
 1819W        W44835   2.377  24.062  25.977  0.1487  0.0029  0.0031
 1820W        W44836  18.015  27.810  18.045  0.2444 -0.1417 -0.0392
 1821W        W44837  28.093   0.657  17.698  0.1176 -0.0731 -0.1555
 1822W        W44838   9.221   2.369  26.002  0.0256 -0.1182  0.3223
 1823W        W44839  33.553  16.716  21.890 -0.1200 -0.0880 -0.1347
 1824W        W44840   2.118  27.944  26.546 -0.2232  0.0379 -0.1283
 1825W        W44841  20.929  16.955  12.560  0.3086  0.2794 -0.0192
 1826W        W44842  28.944  27.395  20.894  0.3785  0.3316 -0.0632
 1827W        W44843  24.493   7.488   1.451  0.1359  0.3730  0.4618
 1828W        W44844   2.018  16.207  17.457  0.2306 -0.2364 -0.0099
 1829W        W44845  28.997  24.045   5.632 -0.1261  0.1770  0.1748
 1830W        W44846  23.426   1.089   1.271 -0.3802 -0.0605 -0.0511
 1831W        W44847  16.907   8.710  22.959  0.0106  0.1846 -0.0622
 1832W        W44848   7.292   4.816  22.878  0.0567 -0.3884 -0.2522
 1833W        W44849  16.673  29.922  18.889  0.1231  0.2229 -0.2110
 1834W        W44850  20.906   3.425  15.252  0.3124 -0.2074  0.0473
 1835W        W44851   5.532   0.465   3.125 -0.0088  0.2497  0.0582
 1836W        W44852  25.387  34.535  20.724  0.2098 -0.1322 -0.2021
 1837W        W44853  24.941  10.244  15.737  0.0133 -0.0104  0.0359
 1838W        W44854  21.657   8.658  28.396 -0.1641  0.0644  0.1449
 1839W        W44855  16.745  34.095  27.548 -0.3113 -0.2086  0.0111
 1840W        W44856  30.594   7.618  26.169  0.1152 -0.0905  0.1429
 1841W        W44857  18.301   7.793  24.950 -0.0947  0.1738 -0.3462
 1842W        W44858  12.182  28.567  19.405  0.0963 -0.2093 -0.2964
 1843W        W44859  32.801   2.987  19.228  0.1342 -0.3087 -0.1986
 1844W        W44860   2.080  14.782   5.204  0.1306 -0.2021 -0.1743
 1845W        W44861  21.094  27.384   1.921 -0.2283 -0.2657  0.1705
 1846W        W44862   5.966   2.174  15.238  0.1015 -0.0411 -0.2864
 1847W        W44863  26.096   9.175  22.114 -0.2132  0.1379  0.0954
 1848W        W44864  23.394  14.665  21.641  0.1409 -0.0251 -0.1924
 1849W        W44865   0.884  24.300  25.173 -0.0571 -0.1907  0.0025
 1850W        W44866  12.772  11.683  16.317 -0.0504  0.1705  0.2022
 1851W        W44867  28.443  34.754  26.107 -0.1382  0.0823  0.1087
 1852W        W44868  10.291  33.852  18.344  0.2288 -0.1908 -0.0108
 1853W        W44869  31.695  17.123  18.221  0.2317  0.1302 -0.1983
 1854W        W44870  13.443   1.285  15.412 -0.0824  0.0131  0.1463
 1855W        W44871  16.984   3.848  27.391 -0.0664 -0.0751  0.0236
 1856W        W44872  32.874   4.409  24.492  0.0404 -0.0704  0.0114
 1857W        W44873  12.429   3.244  27.300  0.5529 -0.0145 -0.0464
 1858W        W44874   6.061  12.837  15.106  0.1490 -0.1586 -0.5359
 1859W        W44875  26.965  32.103  18.566 -0.2858 -0.0898 -0.1394
 1860W        W44876  27.121   8.398  18.530  0.1931 -0.0689 -0.1230
 1861W        W44877  31.174   4.773  16.001  0.1988  0.0417 -0.0402
 1862W        W44878  18.520   8.636   8.035  0.1296  0.4392  0.1937
 1863W        W44879  16.364  24.409  22.937  0.0813 -0.0021 -0.1983
 1864W        W44880  27.715   9.476  23.429  0.1125  0.3478  0.1041
 1865W        W44881  20.385   7.209  15.213  0.1291  0.0766  0.0002
 1866W        W44882  16.778  25.518  29.086 -0.1765  0.0792  0.2185
 1867W        W44883  29.018   2.409  19.090  0.3070 -0.1881  0.0158
 1868W        W44884   1.658  14.449  16.312  0.1130 -0.3887 -0.0478
 1869W        W44885  25.568  32.552  16.559 -0.0172  0.0813 -0.1092
 1870W        W44886   9.683  18.409  17.434  0.2372  0.2243  0.3915
 1871W        W44887  29.799   6.203  28.716  0.2718 -0.3178 -0.1908
 1872W        W44888  28.707  32.104  27.170 -0.1784 -0.0962 -0.0039
 1873W        W44889  16.561  30.372  19.835 -0.3173  0.1325 -0.3174
 1874W        W44890  23.244  16.181  14.859  0.0068 -0.0797  0.1377
 1875W        W44891  26.636  28.197  17.877 -0.2518 -0.2534 -0.1374
 1876W        W44892  19.659  23.833  20.913 -0.2174  0.2002 -0.1590
 1877W        W44893  31.356  20.379  24.686  0.3352 -0.1485 -0.0998
 1878W        W44894  26.061  24.687  28.183 -0.1721  0.2471  0.0791
 1879W        W44895  14.561  19.793   4.587 -0.0171  0.0003  0.0998
 1880W        W44896   7.412   7.387  28.007  0.0753 -0.3242  0.4604
 1881W        W44897  20.097   6.179  17.606  0.2243  0.1198 -0.2213
 1882W        W44898  29.801  16.563  17.486  0.1455 -0.1032  0.1109
 1883W        W44899   9.973  32.956  19.308  0.4397 -0.1415 -0.1751
 1884W        W44900  13.082  22.340  20.293 -0.2026  0.1403 -0.1078
 1885W        W44901  27.181  25.831   3.649 -0.2650 -0.2078 -0.0020
 1886W        W44902   2.978   5.504  25.508 -0.1018  0.0693  0.1786
 1887W        W44903  15.859   5.760   0.606  0.0833 -0.3319  0.2867
 1888W        W44904  23.067  15.188  24.793 -0.0628  0.0614 -0.0100
 1889W        W44905  34.776  18.054  15.292  0.1109  0.0225 -0.0200
 1890W        W44906  21.773  26.682   1.532 -0.1926  0.1471  0.0583
 1891W        W44907  23.057  26.726  22.444  0.2840  0.0621  0.3031
 1892W        W44908  32.574   3.388   0.117 -0.0482  0.0634 -0.5671
 1893W        W44909   1.446  29.530  20.701 -0.0779  0.0510  0.0561
 1894W        W44910  26.066  21.139  15.365 -0.1710  0.0452 -0.0268
 1895W        W44911  27.096  34.285  27.111 -0.1017  0.2343 -0.2270
 1896W        W44912  24.729  28.557  16.913 -0.1338  0.1261 -0.2351
 1897W        W44913  29.071  11.400  22.398  0.0822 -0.0353 -0.0492
 1898W        W44914  28.440  17.866  18.700  0.3189  0.3526 -0.1342
 1899W        W44915   2.491  11.196  16.036  0.0853  0.0469  0.1290
 1900W        W44916  16.783  13.735  16.152  0.0697 -0.3281  0.3901
 1901W        W44917  28.042   4.413  17.419 -0.3231  0.0532 -0.0736
 1902W        W44918  16.283   0.381  28.623  0.0854  0.1664 -0.1936
 1903W        W44919  10.879  18.414  17.928 -0.0508  0.1733 -0.2599
 1904W        W44920  17.594   3.989  13.467  0.0516 -0.2679  0.0925
 1905W        W44921  11.949  13.236  14.973 -0.1700  0.1082  0.1235
 1906W        W44922  21.410   5.250  27.983  0.0300 -0.0852 -0.2772
 1907W        W44923  27.768  34.649  29.101 -0.0683  0.1111  0.1795
 1908W        W44924  28.777  14.159  21.367  0.0168 -0.1356  0.0902
 1909W        W44925  14.125  25.134  18.969 -0.1731  0.1920  0.0889
 1910W        W44926  25.841   2.677  18.306 -0.2571  0.6504  0.3305
 1911W        W44927   0.939  11.214  21.232  0.0622  0.2637  0.1200
 1912W        W44928  22.328   2.384  23.351  0.1094 -0.0572 -0.0887
 1913W        W44929  24.000   7.160  15.194 -0.1065 -0.1199 -0.2005
 1914W        W44930   0.282  14.385  26.305  0.0090 -0.0143 -0.0961
 1915W        W44931  21.006  31.939  23.262  0.4536  0.0139 -0.3705
 1916W        W44932  17.858  28.986   0.353 -0.1707 -0.0354 -0.2174
 1917W        W44933   0.543   6.730  22.251  0.1361  0.1111 -0.5875
 1918W        W44934  20.548  20.705  14.608  0.2106 -0.0017  0.1787
 1919W        W44935  23.050  11.440  22.814 -0.2688  0.1174  0.2808
 1920W        W44936  22.785  32.427  16.552  0.0864 -0.0797  0.0777
 1921W        W44937  25.510   6.335  23.374 -0.2099 -0.1764  0.0569
 1922W        W44938  30.729   3.969  22.928 -0.0158  0.2627 -0.0192
 1923W        W44939  27.576  11.744   7.364 -0.1150 -0.2140 -0.2996
 1924W        W44940  29.857  22.168  16.651 -0.2026  0.1887 -0.0094
 1925W        W44941  20.351   9.289  14.905 -0.1894  0.3215 -0.0049
 1926W        W44942  18.753  17.503  12.165 -0.1216 -0.2150 -0.2330
 1927W        W44943   7.363  32.336  16.484 -0.0324  0.3653  0.1043
 1928W        W44944  23.579  18.700  23.647  0.1424 -0.0159  0.2814
 1929W        W44945  24.621  26.754  16.007 -0.1771 -0.1863 -0.2411
 1930W        W44946  12.826   6.433   0.568 -0.1252 -0.1302 -0.1929
 1931W        W44947  24.419   4.069  22.253 -0.1932 -0.1511  0.3454
 1932W        W44948  29.054  33.186  18.990 -0.0941 -0.2177 -0.2681
 1933W        W44949  31.969   7.877  14.352  0.2045 -0.0788  0.2745
 1934W        W44950  28.562  19.396  27.030 -0.1686  0.2087 -0.0254
 1935W        W44951  29.917  16.390  22.086 -0.3191  0.0461  0.2539
 1936W        W44952  25.091   6.171  24.020 -0.2590 -0.1168 -0.0099
 1937W        W44953  28.276   8.590  16.481 -0.1696 -0.4495  0.0057
 1938W        W44954  23.338  11.377  26.594 -0.0055 -0.1477 -0.1325
 1939W        W44955  16.127   4.303  18.609  0.2090  0.1944  0.0038
 1940W        W44956  20.960  17.927  24.805 -0.2576  0.0855 -0.0806
 1941W        W44957   8.214  16.284  24.598  0.1910 -0.0867 -0.0167
 1942W        W44958  27.691  23.197  28.867 -0.0229  0.0550  0.1230
 1943W        W44959  20.359   1.192  25.029  0.1089  0.0190 -0.0847
 1944W        W44960  28.299   2.352  22.170 -0.2108  0.0403  0.0462
 1945W        W44961  17.137  24.482  26.378 -0.1250 -0.2035 -0.1315
 1946W        W44962  22.633   5.691  20.667  0.1991 -0.1190  0.0101
 1947W        W44963  24.394  10.526  22.279 -0.1615  0.1349  0.0220
 1948W        W44964  22.277   8.097  22.605  0.3809  0.0771  0.0986
 1949W        W44965  30.366   5.182  14.872 -0.2348 -0.0050  0.1665
 1950W        W44966  33.908  34.706  28.265 -0.0733 -0.0454 -0.4029
 1951W        W44967  18.406  32.431  18.083  0.2497 -0.1269 -0.0906
 1952W        W44968   2.252   3.196  26.600  0.0271  0.1131 -0.2663
 1953W        W44969  32.009   7.086   5.004  0.2055 -0.0690  0.1144
 1954W        W44970   5.102  14.376  27.649  0.1579 -0.0780  0.1961
 1955W        W44971  32.139  15.202  23.881  0.0789  0.0328  0.1995
 1956W        W44972  28.248   8.868  24.366  0.1982 -0.1575 -0.1942
 1957W        W44973  28.548   4.790   3.301 -0.1877  0.3864 -0.0218
 1958W        W44974  26.656  17.983  18.189 -0.4867  0.1396 -0.3602
 1959W        W44975  31.354  26.161   3.252 -0.0597  0.2462  0.0712
 1960W        W44976  25.999  32.417  24.510  0.1419 -0.0965  0.0281
 1961W        W44977  14.333  19.992  13.520 -0.2830 -0.1116  0.0528
 1962W        W44978  25.242   9.361  16.710 -0.0924 -0.1880  0.1064
 1963W        W44979  26.987   0.908  28.111  0.1605  0.0341  0.1258
 1964W        W44980  30.115   2.368  19.235 -0.0611 -0.2213 -0.0732
 1965W        W44981  20.424   2.020   0.975  0.0901 -0.0223  0.1011
 1966W        W44982  12.339   7.873  21.915 -0.1006  0.1112  0.1366
 1967W        W44983  32.003   5.881  16.416 -0.2500  0.3120 -0.1093
 1968W        W44984  12.639  30.022  28.932  0.0569 -0.0018  0.1928
 1969W        W44985  31.857  28.483  27.979  0.3000  0.1857  0.1089
 1970W        W44986  19.197  18.117   3.264 -0.1429 -0.0632  0.0743
 1971W        W44987  24.029   4.075   2.225  0.5047 -0.0371 -0.2449
 1972W        W44988  12.745   1.300   4.985  0.1695  0.0840 -0.2955
 1973W        W44989  16.297  21.061  12.199  0.0101  0.3512  0.2162
 1974W        W44990  11.786   5.643  15.167  0.0730  0.0445  0.1196
 1975W        W44991  18.623  15.159  19.758 -0.0557  0.0749 -0.3007
 1976W        W44992  22.384   9.147  21.153  0.2006 -0.3873 -0.0316
 1977W        W44993  16.280   2.254  20.229 -0.2373  0.2548 -0.0314
 1978W        W44994   4.466  10.626  28.603  0.0363 -0.0690 -0.1761
 1979W        W44995  26.651  25.131  18.627 -0.2626 -0.0890  0.1255
 1980W        W44996  29.332  10.811  21.726 -0.1272  0.1708  0.1414
 1981W        W44997  32.354   6.124  14.585  0.0194 -0.1685  0.1375
 1982W        W44998  26.549   0.275   4.779  0.2878  0.0655 -0.2427
 1983W        W44999  23.024  24.666  14.956  0.2293 -0.0871  0.0038
 1984W        W45000   9.477  30.983  17.152 -0.0038  0.0030 -0.1079
 1985W        W45001  13.670   2.889  25.027  0.1716 -0.0633 -0.0248
 1986W        W45002  20.264  33.472  15.459 -0.0689 -0.1191  0.1175
 1987W        W45003   7.808   7.077   3.041 -0.0168 -0.1695  0.0693
 1988W        W45004  31.105   2.741   1.546  0.2760 -0.1186  0.0830
 1989W        W45005  31.731  11.285   0.811  0.1574 -0.2576 -0.1918
 1990W        W45006  21.640   1.127   3.692 -0.3982 -0.1397  0.1372
 1991W        W45007  27.266   2.273  17.795 -0.3293  0.0571 -0.0140
 1992W        W45008  10.663   3.628  24.162  0.2598  0.0605 -0.1243
 1993W        W45009   2.296  33.684  20.717 -0.0819 -0.1497 -0.3326
 1994W        W45010  26.935  34.020  26.301 -0.0792 -0.0022  0.3007
 1995W        W45011  18.873   5.357  18.628 -0.2274 -0.0364 -0.3177
 1996W        W45012  23.863  16.185  21.643  0.1890  0.3980 -0.2357
 1997W        W45013  24.252   4.420  26.888  0.6687  0.2083  0.1647
 1998W        W45014   0.950   9.217  14.174  0.0319 -0.0222 -0.0432
 1999W        W45015  13.137  25.447  23.601  0.2608  0.0431 -0.0419
 2000W        W45016   1.607  10.210  16.432  0.1866  0.0726  0.1584
 2001W        W45017  25.589  24.234  17.929  0.1284  0.1446 -0.4535
 2002W        W45018  32.119  23.828  24.767  0.1374  0.0045 -0.1153
 2003W        W45019  30.376   9.072  18.096 -0.0743 -0.3515 -0.0811
 2004W        W45020   5.367  24.616  16.652  0.0880 -0.0520  0.1295
 2005W        W45021  30.786  31.336  28.614  0.1984 -0.3603  0.0523
 2006W        W45022  16.130  32.542   5.030 -0.0788 -0.1843  0.2780
 2007W        W45023  26.263   1.831  23.127 -0.0966 -0.1866  0.0417
 2008W        W45024  15.880  34.430  19.826 -0.0555 -0.1993  0.0412
 2009W        W45025   3.314  32.659  15.496  0.0393  0.3164  0.0129
 2010W        W45026   8.671   5.965   2.671  0.2426 -0.0697  0.4122
 2011W        W45027  32.521  15.146  23.464  0.3480  0.2209  0.0857
 2012W        W45028  32.657  15.110  19.453  0.2053 -0.0918 -0.0533
 2013W        W45029   2.540  33.561  18.111 -0.0409 -0.1387  0.2200
 2014W        W45030  17.622  27.210  27.839  0.0422 -0.1082 -0.0499
 2015W        W45031  14.684  27.109  18.428 -0.0762 -0.1622  0.2135
 2016W        W45032  28.464   4.536  10.583 -0.0585  0.1319 -0.3638
 2017W        W45033  34.330   9.990  22.055  0.2076  0.0343 -0.0481
 2018W        W45034  30.085  34.051  16.343  0.2209  0.3992  0.2586
 2019W        W45035  16.743  12.467  25.786  0.0243 -0.0247 -0.3619
 2020W        W45036  11.621   9.766  16.043  0.1604  0.0823 -0.0345
 2021W        W45037  31.371   5.132   0.181  0.0890 -0.0097 -0.3621
 2022W        W45038  32.428  31.183  17.563  0.1505 -0.0868 -0.1513
 2023W        W45039   8.035  20.553  16.631 -0.1232  0.0438 -0.0876
 2024W        W45040  26.531   8.147  19.006 -0.0340 -0.3411 -0.1272
 2025W        W45041  29.224   1.873  23.499 -0.1224 -0.1578  0.1805
 2026W        W45042   5.012  30.651  19.959 -0.0615 -0.0530  0.0278
 2027W        W45043   0.133  10.601  22.651 -0.3864 -0.1601  0.3756
 2028W        W45044  33.376  18.829  16.404  0.0367 -0.4158 -0.0218
 2029W        W45045  20.744  31.794  24.710 -0.0920 -0.1171 -0.0111
 2030W        W45046  22.254  15.718  13.419 -0.1195  0.2427  0.0277
 2031W        W45047   7.832   7.540  19.652 -0.0140 -0.0755 -0.2854
 2032W        W45048  14.315  34.155  24.741 -0.1294  0.0224  0.0030
 2033W        W45049  23.914   4.795   1.425  0.2199  0.0554 -0.0254
 2034W        W45050  14.588   2.525  17.984  0.3684 -0.2983 -0.0013
 2035W        W45051  25.468  12.300  14.695 -0.1073  0.2765 -0.0098
 2036W        W45052  15.157  30.369   1.861 -0.1152  0.1913 -0.0446
 2037W        W45053  13.446  22.197  14.689 -0.3652  0.0690  0.2105
 2038W        W45054  24.668  11.141  18.599  0.1040 -0.0399 -0.1414
 2039W        W45055  29.952  14.922  23.883 -0.3079  0.1162  0.0271
 2040W        W45056  23.118  28.705  20.356 -0.0918 -0.0194 -0.2551
 2041W        W45057   0.620  17.489  17.154 -0.1482  0.1324  0.1244
 2042W        W45058  28.493   0.650   1.134 -0.1383 -0.0393  0.0248
 2043W        W45059  21.452  30.379  27.277  0.0693  0.0095  0.0937
 2044W        W45060   9.560  15.476  13.747  0.1963  0.2100  0.1829
 2045W        W45061   9.974  15.123  15.704 -0.1244 -0.0299 -0.1161
 2046W        W45062  22.430   1.527  26.265 -0.2076 -0.1687 -0.1222
 2047W        W45063  19.856   6.832  26.478 -0.0461  0.5174 -0.1973
 2048W        W45064  19.959   4.325  20.141  0.0226 -0.0014  0.0648
 2049W        W45065  22.794  12.253   2.912 -0.3420  0.0143  0.0540
 2050W        W45066  29.874   0.999  14.922  0.1505 -0.3711 -0.0184
 2051W        W45067   3.820   4.316  28.126 -0.0106  0.3534  0.0418
 2052W        W45068  33.422  31.180   3.521 -0.0130  0.0273 -0.0198
 2053W        W45069  29.247  17.258   3.376  0.0567 -0.1012 -0.1537
 2054W        W45070  15.755  32.256   1.696 -0.2744  0.1638 -0.0594
 2055W        W45071  21.691  14.639  14.527 -0.0050 -0.1135 -0.0697
 2056W        W45072  30.492  26.510  22.099  0.1896  0.1131 -0.1442
 2057W        W45073  32.424  20.616   0.484  0.0172  0.2274 -0.0845
 2058W        W45074   2.518  18.015  24.987  0.2909 -0.2993  0.0057
 2059W        W45075   4.016  34.084  20.629  0.0266  0.3026  0.1363
 2060W        W45076   2.035  19.537  22.626  0.1420 -0.1860 -0.1744
 2061W        W45077   1.887  10.923  20.108 -0.0038  0.0003  0.0142
 2062W        W45078  17.084   0.197  24.617 -0.2856 -0.2525  0.2229
 2063W        W45079  25.372  13.575   3.726  0.1706 -0.0023  0.0614
 2064W        W45080  27.234  27.556   1.953  0.1443  0.2343 -0.1366
 2065W        W45081  22.658   3.272  20.757 -0.4027 -0.1038  0.2357
 2066W        W45082  30.702   9.758  27.792  0.2027  0.1026  0.0205
 2067W        W45083  29.467  23.920  19.771  0.0220  0.0815 -0.0688
 2068W        W45084  22.974  16.917  14.632 -0.6686  0.2292  0.0608
 2069W        W45085  20.330  29.604  21.955  0.0491  0.0230  0.0932
 2070W        W45086   7.854   1.305  20.428 -0.1617 -0.3624  0.1223
 2071W        W45087  20.111  10.863  19.289  0.1141 -0.1275 -0.0034
 2072W        W45088  19.930  20.791  17.479  0.2823 -0.0738 -0.2528
 2073W        W45089  17.667   2.352  15.061  0.0014  0.3531  0.2959
 2074W        W45090  28.882  34.260  25.865 -0.0251 -0.1016  0.0348
 2075W        W45091   0.896  21.457  15.492  0.0101 -0.2195 -0.0089
 2076W        W45092  28.122  30.827  25.763  0.2741  0.0726 -0.0513
 2077W        W45093  32.497  27.243  15.388 -0.0074  0.3509  0.0757
 2078W        W45094  17.736  26.907  22.163  0.3490  0.0825  0.3736
 2079W        W45095  19.386   4.059   6.677  0.1138  0.0009  0.0916
 2080W        W45096  22.737   7.739  27.447 -0.0278 -0.1860 -0.2043
 2081W        W45097   0.113  13.108  22.894 -0.3088  0.2912  0.1807
 2082W        W45098   9.793  10.962  23.389  0.3389  0.0329 -0.1229
 2083W        W45099  16.644  19.278  14.304  0.1356 -0.0041  0.1764
 2084W        W45100  22.434  22.171   0.993 -0.1009 -0.0824  0.1300
 2085W        W45101  23.622   7.656  25.971  0.1412 -0.2640 -0.1150
 2086W        W45102  27.077  16.052  26.232 -0.3472  0.2166  0.0634
 2087W        W45103  24.024   8.620  18.622 -0.0050  0.0800 -0.0990
 2088W        W45104  21.418   5.044  21.959  0.3067 -0.1336  0.2279
 2089W        W45105  21.906  32.212  25.072 -0.0432  0.2057 -0.3564
 2090W        W45106  23.961   0.595  16.813 -0.4643 -0.2322 -0.0109
 2091W        W45107   1.373  10.586  16.101  0.1296  0.1341  0.0197
 2092W        W45108  17.524   5.843  17.142  0.3450 -0.1975 -0.0571
 2093W        W45109  10.822  28.302  18.488  0.1310  0.1632 -0.0316
 2094W        W45110   0.420  11.215  27.539 -0.1573 -0.0233  0.1490
 2095W        W45111  20.871   2.117  17.679  0.2188  0.4269 -0.4205
 2096W        W45112  20.652   5.524  16.504  0.0857  0.0296 -0.1410
 2097W        W45113   7.451  12.743  21.796 -0.1766 -0.0184  0.4640
 2098W        W45114  24.329  10.151   5.736  0.3976  0.0713  0.0797
 2099W        W45115  16.087  13.576  14.210  0.5743  0.1499 -0.0407
 2100W        W45116  21.222  30.608  15.911 -0.1724  0.1642  0.1912
 2101W        W45117  10.238   6.226  14.235 -0.0250 -0.1512  0.0098
 2102W        W45118  17.722  14.267  15.016 -0.4283  0.0357  0.0376
 2103W        W45119  19.117  14.871  22.919  0.1759  0.1541  0.2931
 2104W        W45120  13.393  15.554  23.708 -0.1861 -0.0898  0.0650
 2105W        W45121  27.136   9.164  19.033  0.1112  0.0015 -0.0467
 2106W        W45122  24.836  15.942  14.326  0.3307  0.3077 -0.0555
 2107W        W45123   7.466  14.924  24.564 -0.0817 -0.1639  0.0003
 2108W        W45124  13.680   5.358  14.407  0.2521  0.3443  0.0298
 2109W        W45125  27.049   4.670  18.209 -0.3434 -0.1828  0.1281
 2110W        W45126  26.796  12.917  15.402 -0.0786 -0.1196  0.2093
 2111W        W45127  19.277  11.726  23.651 -0.3301  0.1528  0.1231
 2112W        W45128  28.789  18.306  14.208  0.2688 -0.0485  0.0348
 2113W        W45129  28.270  31.251  17.760 -0.2553 -0.0162 -0.3064
 2114W        W45130  21.845  28.254  16.885 -0.2372 -0.1354  0.0294
 2115W        W45131   3.126  33.377  23.013  0.0097  0.0238 -0.0073
 2116W        W45132   4.781   0.661  15.514  0.0948 -0.0167  0.2066
 2117W        W45133   2.311  10.384  29.153 -0.2535 -0.0328 -0.1413
 2118W        W45134   4.956   5.886  21.631 -0.1083  0.4117  0.0099
 2119W        W45135   2.440   9.246  15.311  0.1496 -0.0522  0.0145
 2120W        W45136  21.437  25.680  24.023 -0.1889  0.1361 -0.0204
 2121W        W45137  22.798  10.688  18.227  0.2304  0.0154 -0.0620
 2122W        W45138  23.106  11.583  24.955 -0.1429  0.3636 -0.0800
 2123W        W45139  19.753  28.534   1.196 -0.2931  0.0451  0.3167
 2124W        W45140  21.587  13.151  21.477 -0.3010 -0.1275 -0.2154
 2125W        W45141  22.181  11.420  23.122  0.1444  0.1456 -0.2027
 2126W        W45142  10.452  24.953   4.431 -0.1391 -0.1951  0.1848
 2127W        W45143  11.719  27.140  15.875  0.1531 -0.2684 -0.0275
 2128W        W45144   3.766   0.929  19.037  0.0640 -0.1707 -0.1923
 2129W        W45145   3.999  31.643  16.665  0.3440  0.1697  0.1321
 2130W        W45146  19.263  10.669  16.721  0.0251  0.1681 -0.0257
 2131W        W45147  24.515   3.849  25.604 -0.0138  0.2801 -0.1563
 2132W        W45148  21.873  12.097  17.733  0.2855 -0.0270  0.0777
 2133W        W45149  29.071  16.056  28.189 -0.0273 -0.0750  0.1151
 2134W        W45150  31.453   3.748   3.993  0.1297  0.1681 -0.0924
 2135W        W45151  32.322  34.756  19.484  0.0869 -0.1263  0.0507
 2136W        W45152  33.202  13.591  18.712 -0.2161 -0.0064 -0.1057
 2137W        W45153   7.016  23.561  16.298  0.0153 -0.3567 -0.4363
 2138W        W45154  24.587   7.993  16.355  0.0318  0.2570  0.0260
 2139W        W45155  10.698  19.981  16.641  0.0549 -0.2711 -0.3207
 2140W        W45156   8.006  11.365   3.099  0.0200  0.0138 -0.0659
 2141W        W45157  19.266   1.836  24.701 -0.0946 -0.0848 -0.0383
 2142W        W45158  26.042  33.816  19.770 -0.0358 -0.2911  0.4332
 2143W        W45159  33.627  25.549  24.759  0.0495 -0.1691 -0.0807
 2144W        W45160  16.614  16.160  16.613 -0.0067 -0.0091  0.0066
 2145W        W45161   3.434   8.228   4.977  0.1766 -0.1491  0.1177
 2146W        W45162  26.710   8.379  22.904  0.0013  0.4085 -0.0401
 2147W        W45163   9.007  10.370  14.797  0.2816  0.0680 -0.0723
 2148W        W45164   0.433  19.226  22.368 -0.0202 -0.1426 -0.1538
 2149W        W45165  29.918  32.702  25.089  0.0460  0.2646  0.1346
 2150W        W45166  31.448   7.223  15.467 -0.0596 -0.0597  0.3753
 2151W        W45167  23.628  18.340  16.623 -0.1740  0.1000  0.1540
 2152W        W45168  14.975   0.078  20.464  0.0392 -0.0607 -0.2001
 2153W        W45169  18.969   9.790  17.832  0.2432  0.2888 -0.1988
 2154W        W45170   3.298   6.472  16.205  0.3319 -0.0239 -0.0273
 2155W        W45171  18.810   0.286  19.891 -0.1063 -0.1110  0.1531
 2156W        W45172  17.398   5.946  15.212 -0.1992 -0.1558  0.0955
 2157W        W45173   0.831   6.200  16.693  0.1559 -0.1486  0.0663
 2158W        W45174  19.384  15.105  14.192  0.0306  0.2142 -0.0604
 2159W        W45175   6.417  31.170  21.502  0.1694  0.0427  0.0397
 2160W        W45176   3.033   7.399  24.147  0.0532 -0.1851  0.1932
 2161W        W45177   8.450  34.411  21.499 -0.1886 -0.2990 -0.0784
 2162W        W45178  23.131   3.171  22.665 -0.1182 -0.1897 -0.1002
 2163W        W45179   5.837  16.998  23.863  0.2198  0.1402  0.1459
 2164W        W45180  21.840   1.560  20.081 -0.1170 -0.1567 -0.1194
 2165W        W45181  18.852   4.659  24.593 -0.0727  0.0537  0.2910
 2166W        W45182  20.264   7.607  19.189 -0.0351  0.1896  0.0789
 2167W        W45183  18.971   9.043   1.487 -0.1061 -0.1273  0.0656
 2168W        W45184  13.427  26.944  18.145  0.3512 -0.0671 -0.0602
 2169W        W45185   0.954  20.131  20.908 -0.0993 -0.0744 -0.2052
 2170W        W45186  20.736   4.194  14.916  0.0545 -0.0463 -0.1581
 2171W        W45187  22.765   1.881  22.643  0.2188  0.0449  0.0426
 2172W        W45188  23.072   5.061  15.985 -0.0915  0.2356  0.0018
 2173W        W45189  18.823   1.692  29.002  0.1561 -0.0333  0.0605
 2174W        W45190  32.552   8.333  16.819 -0.6024 -0.1006  0.0703
 2175W        W45191  18.448  23.003  17.481 -0.0259  0.0228  0.2623
 2176W        W45192  33.062  16.025  17.210 -0.1516  0.3593  0.1056
 2177W        W45193  25.328   9.486  21.209  0.2094 -0.0399  0.0964
 2178W        W45194  21.281  19.731  27.904 -0.3304 -0.2414 -0.2255
 2179W        W45195  13.770   1.682  20.255 -0.0892  0.3665 -0.1300
 2180W        W45196  26.536  12.532  24.896  0.1153  0.1157  0.1165
 2181W        W45197  26.980  15.943  15.370 -0.1682 -0.1551 -0.1788
 2182W        W45198  21.754  18.880   6.834  0.0103  0.1508  0.0156
 2183W        W45199  10.415  12.173  19.709  0.0989 -0.0281  0.3015
 2184W        W45200  26.822  17.305  14.688 -0.0926 -0.0203  0.2512
 2185W        W45201  26.188  14.580  24.644  0.0307 -0.0273  0.0227
 2186W        W45202  10.488  24.289  17.908 -0.0656 -0.1044 -0.0452
 2187W        W45203  11.754   3.888  21.995  0.0957 -0.0402 -0.3390
 2188W        W45204  29.271   9.160  19.263 -0.1427 -0.3503 -0.0074
 2189W        W45205  10.246  34.693  15.755 -0.2909 -0.1189  0.0085
 2190W        W45206   0.817  29.831   1.558  0.1415  0.2594  0.0919
 2191W        W45207  26.891  33.507   9.853  0.3086 -0.0153  0.3456
 2192W        W45208  28.794  33.591  21.572  0.2723  0.0846 -0.0328
 2193W        W45209  14.808  16.998  26.407  0.0720  0.0238 -0.1009
 2194W        W45210  18.274  33.328  24.935 -0.2055 -0.0241  0.2541
 2195W        W45211   8.403  19.237  16.009 -0.1280  0.2502  0.0723
 2196W        W45212   9.287   9.784  26.720 -0.0251  0.0988  0.3174
 2197W        W45213  13.263  16.257  15.152 -0.0321  0.2698 -0.0251
 2198W        W45214  26.985  17.023  20.532 -0.2479 -0.1685 -0.2244
 2199W        W45215  28.092  32.442  24.917 -0.2754 -0.1613  0.2664
 2200W        W45216   4.216   7.959   0.417 -0.0834 -0.0373 -0.2042
 2201W        W45217   9.201  24.656   4.865  0.5333  0.2163 -0.1343
 2202W        W45218  33.739   7.538  13.584 -0.0491  0.0891  0.0467
 2203W        W45219  21.339   4.989  26.303  0.1436 -0.0046  0.2360
 2204W        W45220   9.437  14.324  18.779 -0.1992  0.0987  0.0078
 2205W        W45221  31.747   9.915  16.235 -0.0885  0.4241 -0.0239
 2206W        W45222  14.404   9.161  15.394 -0.0870 -0.2874 -0.3120
 2207W        W45223  34.165  12.418  18.216 -0.0322  0.4229  0.0462
 2208W        W45224  25.159  14.258   1.001  0.1494  0.1917 -0.1200
 2209W        W45225  20.560   8.107  16.736  0.1781  0.1192 -0.0311
 2210W        W45226  20.809  33.406  14.420  0.0081  0.0279  0.0791
 2211W        W45227  25.960   9.230   0.361 -0.0349 -0.3414  0.2447
 2212W        W45228   5.265  20.734  19.377 -0.0259 -0.3053 -0.3808
 2213W        W45229  19.829  29.695  21.825 -0.2255  0.0915  0.2982
 2214W        W45230  12.331   6.869   5.647  0.2480  0.2943 -0.0587
 2215W        W45231  26.371  12.845  25.938  0.1631  0.0893 -0.4104
 2216W        W45232   6.933   4.129  15.330  0.1364  0.0260 -0.0852
 2217W        W45233  13.832   1.582  14.772 -0.1492  0.1383  0.1051
 2218W        W45234   6.173  16.390   7.628  0.2614  0.0320 -0.2311
 2219W        W45235  24.842  27.446  23.729  0.0241  0.2404  0.3469
 2220W        W45236  20.817  34.086   3.124 -0.0653  0.4100 -0.0651
 2221W        W45237  28.099  25.104   0.484 -0.0003  0.0230  0.0715
 2222W        W45238  26.568  15.305  14.024 -0.0568 -0.0908  0.1337
 2223W        W45239   4.261  13.014  18.277 -0.0016  0.1534  0.1309
 2224W        W45240   5.925  13.012  20.695  0.0214 -0.2643 -0.2210
 2225W        W45241  23.864   9.718  21.397 -0.0339  0.0057  0.2428
 2226W        W45242  32.306   7.846  20.670  0.0959  0.3277  0.0989
 2227W        W45243  14.459  14.934  14.002 -0.0839 -0.1139 -0.0231
 2228W        W45244  34.076  18.166  24.081 -0.1803 -0.0013  0.1693
 2229W        W45245  10.730   7.891  28.326  0.0683  0.0744 -0.1262
 2230W        W45246  23.906   4.161  15.930  0.2077  0.3004 -0.3305
 2231W        W45247  20.570  11.135   2.067 -0.1429  0.1040  0.0004
 2232W        W45248  27.344   8.363  17.746 -0.1622 -0.5068 -0.1439
 2233W        W45249  21.309  13.900  21.807 -0.1111  0.2887  0.1120
 2234W        W45250  22.710  11.509  22.277 -0.2493  0.2843  0.2679
 2235W        W45251  18.780  18.903  22.383  0.0205 -0.0620  0.0725
 2236W        W45252  20.265   2.946  25.260 -0.0088 -0.1639 -0.3352
 2237W        W45253  23.319   3.242  20.965  0.0557  0.2351  0.4346
 2238W        W45254  20.375   4.320  15.279 -0.1544  0.1288 -0.0618
 2239W        W45255  23.400  10.679  27.186  0.0712  0.0071  0.1377
 2240W        W45256  18.279  17.628   2.278  0.0192 -0.0198  0.2202
 2241W        W45257  33.121  14.790  29.111  0.2538 -0.0325  0.1860
 2242W        W45258   2.706  14.056  29.097 -0.4275  0.2256 -0.2314
 2243W        W45259   6.687  29.665  21.157 -0.0421 -0.2777 -0.0209
 2244W        W45260  12.727  11.968   6.412  0.4403  0.2422 -0.1014
 2245W        W45261  21.987  15.670  24.317 -0.1219 -0.0528 -0.0008
 2246W        W45262  13.513  21.482  14.331  0.1994  0.1868  0.3420
 2247W        W45263  19.537  21.826  15.029 -0.2638 -0.0154 -0.1113
 2248W        W45264  13.110   8.289  22.505  0.0452  0.1256  0.2043
 2249W        W45265  21.160   4.430  24.394  0.0537  0.1720 -0.2112
 2250W        W45266  22.386  22.292  25.201  0.2476  0.2977 -0.0252
 2251W        W45267  33.861  32.662  26.454  0.3812  0.1738 -0.1951
 2252W        W45268  21.031  25.970  24.034 -0.2436 -0.3993 -0.1168
 2253W        W45269   9.942  28.194  14.520 -0.3591  0.0419 -0.1981
 2254W        W45270  16.159   2.446  21.504 -0.0411 -0.2813 -0.1068
 2255W        W45271  31.602  16.357  20.555 -0.1526  0.1054  0.0672
 2256W        W45272  12.324  12.174  23.023  0.2823 -0.0031  0.0525
 2257W        W45273  25.666   0.812   0.026  0.4966  0.3541 -0.0890
 2258W        W45274  26.848   9.518   5.883 -0.0018 -0.1018 -0.3752
 2259W        W45275  19.991  21.243  28.991 -0.2042 -0.1647 -0.2943
 2260W        W45276  17.595   3.164  27.453  0.0119 -0.0717 -0.0968
 2261W        W45277  17.254  31.842  18.149  0.0783 -0.2099  0.0468
 2262W        W45278  21.576  21.626  17.234  0.0345  0.1673 -0.2723
 2263W        W45279   7.529  12.181  26.713 -0.1832 -0.0579  0.2859
 2264W        W45280  22.044  12.368  22.547 -0.2236 -0.1940  0.3348
 2265W        W45281  14.914  33.431  17.788 -0.0190  0.0152  0.0154
 2266W        W45282  25.401  18.807  20.584  0.1132 -0.0405 -0.3897
 2267W        W45283  17.620   4.909   0.082  0.0933 -0.0486  0.1386
 2268W        W45284   9.284   4.134   1.653 -0.0029 -0.0272 -0.3304
 2269W        W45285  29.707  20.890  29.227 -0.2007  0.3264 -0.1123
 2270W        W45286   8.988   1.939  17.690 -0.0288 -0.2520 -0.0088
 2271W        W45287  16.535  31.477  15.869  0.0092 -0.2454  0.0091
 2272W        W45288  27.620  14.200  26.520  0.3015  0.1092  0.1445
 2273W        W45289  16.635  10.881  28.768 -0.1362  0.0860  0.3911
 2274W        W45290  31.215  27.601  21.861  0.0534 -0.0052  0.0325
 2275W        W45291  25.017   2.132   1.102 -0.2978 -0.1403 -0.1610
 2276W        W45292  21.222  19.542  18.204 -0.2270  0.0467 -0.0255
 2277W        W45293  27.996   5.400  19.500 -0.0276 -0.1962  0.2794
 2278W        W45294  19.390  29.160  27.363  0.5532 -0.0911  0.1546
 2279W        W45295  23.636  12.957  20.349  0.0326 -0.1587 -0.2612
 2280W        W45296   4.168   9.349  26.665  0.0808  0.0991  0.0686
 2281W        W45297   0.098  15.891  21.585  0.2029 -0.0449 -0.3015
 2282W        W45298  10.055  29.426  17.971 -0.1192 -0.1411  0.0284
 2283W        W45299  28.114  23.745  25.508  0.4234 -0.3748  0.1216
 2284W        W45300   4.018  26.779  15.362 -0.0958 -0.1595 -0.3424
 2285W        W45301   5.213  21.988  22.409  0.2040  0.0717  0.0919
 2286W        W45302  10.834  13.709  19.876  0.2040 -0.1111 -0.1793
 2287W        W45303  20.116   2.095  18.364 -0.2088  0.0454  0.0113
 2288W        W45304  23.521  33.253   2.169  0.2040 -0.0958  0.1897
 2289W        W45305  10.905  22.983   0.042 -0.0321 -0.0028  0.1248
 2290W        W45306  23.553  16.618  27.546 -0.0971  0.1568  0.3043
 2291W        W45307   4.699  17.018  25.277  0.1974 -0.2114 -0.2759
 2292W        W45308   7.355  18.303  15.437  0.1899  0.0421 -0.1592
 2293W        W45309   3.464  29.356  18.893  0.0093  0.0293 -0.3667
 2294W        W45310  32.809  16.289   0.470  0.1790  0.2615  0.0271
 2295W        W45311  26.441  16.892  15.840  0.4478 -0.1314  0.4686
 2296W        W45312  17.318  26.870  21.467  0.1314 -0.3751 -0.1802
 2297W        W45313  25.859  17.123  23.939 -0.0178  0.3562 -0.0604
 2298W        W45314  20.431  15.708   5.955  0.0311 -0.3271  0.0144
 2299W        W45315  22.704   6.581  19.215 -0.1792  0.1174  0.1352
 2300W        W45316  26.805  21.462  17.158 -0.3630 -0.0361 -0.1709
 2301W        W45317  16.813   8.182  18.640 -0.0504  0.2945 -0.0158
 2302W        W45318  25.064  18.698  16.140 -0.0126 -0.0410 -0.3038
 2303W        W45319  31.340   9.099  18.772 -0.1283 -0.1614  0.4651
 2304W        W45320  18.526   3.487  23.091 -0.0307 -0.0495 -0.1006
 2305W        W45321  18.907  11.955   0.242 -0.0989 -0.2225  0.1198
 2306W        W45322  25.940  11.559  16.507 -0.2771 -0.0179 -0.1334
 2307W        W45323  30.350   1.950  19.378  0.0246 -0.0445  0.3729
 2308W        W45324  26.889  32.824  19.640  0.1029 -0.0397 -0.0965
 2309W        W45325  21.164   8.067   8.122 -0.0319  0.1596 -0.2013
 2310W        W45326  31.535  17.768  18.063  0.1673 -0.1325 -0.0040
 2311W        W45327  33.970   4.212  16.994 -0.0815 -0.0717  0.2604
 2312W        W45328  23.418  13.953  25.108  0.1314  0.3758 -0.3307
 2313W        W45329  26.855  12.420  15.023  0.2580 -0.2721 -0.0012
 2314W        W45330  22.332   4.731  21.275 -0.0876 -0.0877  0.0536
 2315W        W45331   3.391  15.986  28.232 -0.1207  0.0624  0.0009
 2316W        W45332  21.449  29.834  28.993  0.2494  0.3753 -0.2787
 2317W        W45333   2.050  28.461  20.361  0.0156  0.1501  0.3192
 2318W        W45334  15.082   8.999  22.126 -0.1783  0.2219  0.0049
 2319W        W45335  16.284   3.813  18.636 -0.0812  0.2905 -0.1507
 2320W        W45336  16.141   1.794  21.364 -0.0339 -0.0712 -0.0932
 2321W        W45337  28.927   0.064  19.123 -0.1829 -0.0134  0.0134
 2322W        W45338  24.310  10.831  17.594 -0.0957  0.0013 -0.2773
 2323W        W45339  24.004  32.864   5.810 -0.0561  0.1463 -0.3241
 2324W        W45340   8.949  12.457  14.840 -0.3796  0.0381 -0.2724
 2325W        W45341  21.786   3.438  27.010 -0.2400  0.2323 -0.1593
 2326W        W45342  16.444   9.968  16.619  0.1332  0.2565 -0.2365
 2327W        W45343  19.474  34.523  27.384 -0.1302 -0.0078  0.1687
 2328W        W45344  28.488   9.639  19.734  0.1910 -0.2407  0.1288
 2329W        W45345  24.452   7.697  18.546 -0.1230  0.1283 -0.0731
 2330W        W45346  24.427  26.365  27.651 -0.2431  0.1018  0.0700
 2331W        W45347  20.444  34.349  15.775 -0.0044  0.0901  0.0977
 2332W        W45348  10.225  34.426  21.635 -0.1973  0.0655  0.3836
 2333W        W45349  24.302  19.098  21.936  0.0962  0.2473  0.1675
 2334W        W45350  32.535  10.179  14.356 -0.1033 -0.0745  0.2052
 2335W        W45351  22.382  13.746  15.632  0.1475 -0.0798  0.1307
 2336W        W45352  30.004   7.100  29.084 -0.0750  0.1283 -0.1540
 2337W        W45353  15.718  29.156  16.192  0.0768  0.1519  0.0350
 2338W        W45354  28.348   5.174  21.730 -0.0258  0.0884 -0.3065
 2339W        W45355  10.584   3.204  23.946  0.0615 -0.0172  0.1807
 2340W        W45356  33.424  17.041  18.439  0.0109  0.0441 -0.1670
 2341W        W45357  15.739  33.065  26.643  0.0005 -0.0615 -0.0829
 2342W        W45358  30.066  29.545   5.011  0.3106  0.0971 -0.1834
 2343W        W45359  26.442  27.441  11.373 -0.3234  0.0578  0.1306
 2344W        W45360   3.525  32.582  18.147  0.0445  0.2539  0.1669
 2345W        W45361   6.161  20.449  26.134 -0.4330 -0.0017 -0.0208
 2346W        W45362  19.625   8.001  18.434  0.0014  0.2335  0.0888
 2347W        W45363  14.065   4.989  26.002  0.0817  0.0366 -0.2200
 2348W        W45364  24.086  10.809   2.697  0.2423 -0.1066 -0.0150
 2349W        W45365  26.692   5.380  26.689 -0.2397 -0.3618  0.2667
 2350W        W45366   2.194  28.057   0.194  0.1215  0.0973 -0.3303
 2351W        W45367  13.932  16.733  22.907  0.0088  0.0244  0.2223
 2352W        W45368  34.510   3.731  27.224 -0.0034  0.1293 -0.4648
 2353W        W45369  21.826  23.311   2.669  0.0764  0.1148  0.1339
 2354W        W45370  13.389   5.940  26.975  0.0354  0.0172 -0.0343
 2355W        W45371  17.706  14.390  14.056  0.0955 -0.1091  0.0842
 2356W        W45372  29.741  14.667  19.826  0.0266  0.0101 -0.0080
 2357W        W45373  14.328  18.782  13.692 -0.0890 -0.1713 -0.0744
 2358W        W45374  26.106   7.148  26.362 -0.0565  0.0155 -0.2667
 2359W        W45375  13.848  11.117  25.095 -0.0419  0.0743 -0.2223
 2360W        W45376  24.017  33.429  14.985 -0.1600  0.1461 -0.3309
 2361W        W45377  24.759  27.466  22.209  0.0856  0.0829 -0.1857
 2362W        W45378  25.397  18.125  23.981 -0.1470 -0.1836 -0.0001
 2363W        W45379  31.565  11.934   6.836 -0.3905 -0.1132 -0.2134
 2364W        W45380  23.534  19.122  28.028  0.1430  0.2157  0.2982
 2365W        W45381  16.281  13.377  22.380 -0.0218 -0.0095  0.6082
 2366W        W45382  26.313  31.056  25.580  0.2338  0.1567  0.0615
 2367W        W45383  17.597   4.786  18.721  0.1052 -0.2894  0.1444
 2368W        W45384  12.693   6.493  17.762  0.1016 -0.2321 -0.1540
 2369W        W45385  28.676  27.859  25.751  0.1087 -0.0702 -0.1064
 2370W        W45386  21.802   7.537  23.963 -0.1058 -0.1667 -0.0104
 2371W        W45387  28.236   0.341  20.005 -0.1105 -0.0356 -0.2085
 2372W        W45388  18.577   2.400  26.499  0.2156 -0.2004 -0.3065
 2373W        W45389   1.147  34.361  27.892  0.0554 -0.0846  0.1650
 2374W        W45390  23.356  26.270  21.200  0.1064 -0.2471  0.2354
 2375W        W45391  21.146   3.286  16.092  0.1890 -0.1694  0.0364
 2376W        W45392  31.783  22.642  28.969 -0.0406  0.1514  0.1878
 2377W        W45393  29.377  26.412   3.525  0.0412 -0.0417  0.0836
 2378W        W45394  29.463  10.330  21.941 -0.0279  0.1802  0.3125
 2379W        W45395  34.164  27.052  25.104  0.0514 -0.0341 -0.0366
 2380W        W45396  23.678  24.897  24.909  0.2835 -0.0775 -0.0447
 2381W        W45397  20.723  22.310  16.479  0.1222 -0.1646  0.0277
 2382W        W45398  19.152  16.386  11.549 -0.1345  0.2791  0.1344
 2383W        W45399  25.216  20.726  22.241 -0.1546 -0.2904 -0.0549
 2384W        W45400  34.670  18.491  28.158  0.1699 -0.3944 -0.0604
 2385W        W45401  23.890   6.079  24.245 -0.1285 -0.0248  0.0007
 2386W        W45402  20.125  27.361  21.734  0.1447  0.0625  0.1610
 2387W        W45403  21.055  31.284  24.017  0.4060 -0.1008  0.0690
 2388W        W45404  16.372  17.377  15.471 -0.2570  0.2702  0.2267
 2389W        W45405  25.167   5.485  15.770 -0.2697 -0.1545  0.1392
 2390W        W45406  15.940  20.669   4.814 -0.0239  0.1535 -0.2256
 2391W        W45407   6.287  17.944  25.582  0.2014 -0.1265 -0.2341
 2392W        W45408  26.907   2.136  27.990  0.0885 -0.4903  0.2976
 2393W        W45409  25.064   1.500   3.331 -0.0295 -0.4294  0.1202
 2394W        W45410  23.708   5.710  23.897 -0.1611  0.1871 -0.0338
 2395W        W45411   1.886  22.526  26.909  0.1024 -0.1638  0.2578
 2396W        W45412  23.430   5.027  21.881  0.2819 -0.2590 -0.0997
 2397W        W45413  16.453  14.384  25.739 -0.0591 -0.3401  0.2936
 2398W        W45414  20.075  20.368  14.447 -0.2177 -0.0227  0.0473
 2399W        W45415  12.374  33.698  15.634 -0.0172 -0.0183 -0.0733
 2400W        W45416  22.234  27.927  21.434 -0.0395  0.0713  0.0374
 2401W        W45417  16.949   3.107  23.521 -0.0667 -0.2912  0.1849
 2402W        W45418  16.894   2.152  23.304  0.4238  0.1577  0.1854
 2403W        W45419   2.937   4.835  21.605  0.0283 -0.1058  0.0727
 2404W        W45420  14.905  25.688  20.941  0.0312  0.0141  0.2911
 2405W        W45421  27.557   0.984   1.681  0.0832  0.1276 -0.0196
 2406W        W45422  19.898  19.912  14.597 -0.4216 -0.0557  0.1285
 2407W        W45423  28.870   3.108  21.935 -0.0772  0.1334  0.0246
 2408W        W45424  31.269  12.641  16.591  0.0819 -0.0692  0.1190
 2409W        W45425  10.894  25.877  12.960 -0.3542 -0.2216 -0.0309
 2410W        W45426  10.547   9.022  20.563  0.1507  0.4880  0.0663
 2411W        W45427  27.575   5.676  19.637 -0.1115 -0.1382 -0.0713
 2412W        W45428  18.174   2.512  18.253 -0.0418 -0.0108 -0.0014
 2413W        W45429  31.840  11.046   9.496  0.1107 -0.2671 -0.1823
 2414W        W45430  17.386  14.202  23.639  0.1864  0.0428  0.2261
 2415W        W45431  18.375  32.135   5.275 -0.0860  0.0133  0.2463
 2416W        W45432   0.709  13.937   0.152 -0.1368 -0.2563  0.0258
 2417W        W45433  10.529  13.901  18.340  0.1940  0.0067  0.0908
 2418W        W45434  21.262  13.372  21.973  0.0018 -0.0250  0.1537
 2419W        W45435  23.199   9.410   0.556 -0.2735  0.2374 -0.0599
 2420W        W45436  26.128  14.671  19.498  0.2569  0.2612  0.0333
 2421W        W45437  11.098   6.453  20.363  0.0156  0.0481  0.0471
 2422W        W45438  16.076   6.798   1.303 -0.1448 -0.0220 -0.0798
 2423W        W45439  20.518  16.343   8.640  0.2292 -0.1198  0.1151
 2424W        W45440  26.283  10.228  22.805 -0.1044  0.0026 -0.1324
 2425W        W45441  24.787  11.280   0.772  0.0807  0.3426  0.3116
 2426W        W45442  14.368  22.510  25.636  0.1125  0.0396  0.0008
 2427W        W45443   9.839  13.739  17.379  0.2664  0.0170 -0.1428
 2428W        W45444  24.067   6.294   1.909 -0.0765  0.2689  0.0643
 2429W        W45445  10.606   9.019  16.924 -0.2114 -0.0992 -0.1409
 2430W        W45446   8.945  14.658  17.463 -0.0288  0.0092 -0.2249
 2431W        W45447  15.783   7.410  17.599  0.0086 -0.0557  0.1171
 2432W        W45448  11.384  31.922  21.311 -0.0067  0.1699  0.4581
 2433W        W45449  21.977   0.898   3.984  0.2311  0.2404  0.0026
 2434W        W45450  13.733  18.821  15.479  0.2683  0.0752 -0.2161
 2435W        W45451  12.430  24.745  21.382 -0.3196  0.0324 -0.1902
 2436W        W45452  11.349   0.913  23.293 -0.0397 -0.1489 -0.1883
 2437W        W45453  22.597  10.017  24.806 -0.0710  0.0030 -0.2297
 2438W        W45454  27.094  15.450  24.062 -0.1308 -0.1660 -0.2547
 2439W        W45455   0.708   8.418  14.756 -0.1158 -0.0571  0.1885
 2440W        W45456  14.894   4.236   2.678 -0.0382  0.2334 -0.0563
 2441W        W45457  17.971  23.345  24.229 -0.2149  0.2255  0.0381
 2442W        W45458  22.822   5.903  28.020 -0.0648 -0.3003  0.3216
 2443W        W45459  18.067  16.278  12.091  0.2823 -0.0578 -0.1637
 2444W        W45460  11.643  16.300  20.652  0.0460 -0.1761  0.1470
 2445W        W45461  31.383  16.071  18.268 -0.1620 -0.1457 -0.0452
 2446W        W45462  24.094   1.365  19.680  0.3633  0.0848 -0.1789
 2447W        W45463  26.136   6.531  16.992  0.1576  0.0679  0.0697
 2448W        W45464   8.373   0.954  16.307  0.0593  0.2247  0.0290
 2449W        W45465  30.291   1.285  17.649  0.1088 -0.1833  0.1643
 2450W        W45466  17.853  13.093  13.520 -0.4526 -0.0101  0.1570
 2451W        W45467  21.952   5.609  19.937 -0.0647 -0.1070  0.2480
 2452W        W45468  31.728   1.843   9.651 -0.0266  0.1455  0.1713
 2453W        W45469  17.293   4.014  20.402 -0.4723 -0.3199  0.0360
 2454W        W45470  25.327   5.397  14.467 -0.3370 -0.0162  0.1696
 2455W        W45471  34.388  19.117  28.638 -0.1285  0.0176 -0.1031
 2456W        W45472  10.119  22.079  19.987  0.0239  0.0308 -0.1266
 2457W        W45473  17.453  27.620  20.185  0.0427  0.0380  0.6912
 2458W        W45474  14.074   4.289  22.523 -0.0601  0.1453 -0.1635
 2459W        W45475  21.153  31.851  15.663 -0.0228  0.4305 -0.0163
 2460W        W45476   4.260   2.736  18.095 -0.0555  0.0267 -0.2083
 2461W        W45477  17.367  32.952   1.491 -0.0613 -0.0718 -0.0912
 2462W        W45478  23.615  14.104  25.637 -0.0120  0.2552  0.1008
 2463W        W45479  16.368  18.337  21.703 -0.3057 -0.0167  0.0266
 2464W        W45480  12.975  18.628  15.004 -0.1475  0.1142  0.1359
 2465W        W45481  27.190  30.102  22.333 -0.1159 -0.1493  0.1559
 2466W        W45482  27.847   9.213   1.281 -0.5171 -0.2347  0.1340
 2467W        W45483  33.559  11.047  22.601  0.1021 -0.0166  0.0991
 2468W        W45484  18.997   3.576  16.103  0.3328  0.0053 -0.0299
 2469W        W45485  16.559  32.702  23.452 -0.0692 -0.1144 -0.0831
 2470W        W45486  24.901   6.456  23.613 -0.1623  0.4124  0.1481
 2471W        W45487  20.762   5.681  19.310  0.0129 -0.1819  0.1538
 2472W        W45488  17.136   2.459  19.167 -0.2145 -0.1799  0.0342
 2473W        W45489   6.217   9.809  26.076  0.1313 -0.2289  0.1803
 2474W        W45490  19.497   4.591  19.884 -0.1867 -0.1646 -0.1134
 2475W        W45491  33.836  22.288  18.533 -0.0884  0.0127 -0.2479
 2476W        W45492  12.658  28.951  28.127 -0.1089 -0.0616 -0.2210
 2477W        W45493  23.918  20.703  17.671 -0.1936  0.0982 -0.3129
 2478W        W45494  24.846  13.148  20.870  0.1637 -0.1848 -0.3623
 2479W        W45495  12.393   8.408  28.815 -0.0643 -0.3424 -0.1159
 2480W        W45496   2.857  23.282  18.095  0.0026 -0.0051  0.4623
 2481W        W45497  27.204  16.378  16.201  0.3405  0.0898  0.4376
 2482W        W45498  12.558  16.468  19.620 -0.1674 -0.0233  0.0486
 2483W        W45499  15.214   9.944   3.073 -0.0821 -0.0959 -0.0093
 2484W        W45500  13.476  21.745  18.112 -0.4539  0.0410  0.1723
 2485W        W45501   7.422   0.501  18.909  0.0132 -0.4354 -0.2060
 2486W        W45502   9.018  10.304  22.636  0.1181 -0.2721 -0.0904
 2487W        W45503  21.824  31.994  27.601 -0.1962  0.0381  0.1752
 2488W        W45504  22.824  28.754  16.690 -0.1092 -0.2694  0.2639
 2489W        W45505  17.169  16.442  20.123 -0.0543  0.2182 -0.1629
 2490W        W45506  18.970  27.421  19.890  0.0375 -0.0763  0.3129
 2491W        W45507  24.654   8.425  24.442 -0.1202  0.0428  0.2985
 2492W        W45508  28.182  23.410  10.933  0.1106  0.3909 -0.3729
 2493W        W45509  25.878  33.384  10.632  0.0726 -0.2406  0.0331
 2494W        W45510  12.538  27.252  13.453 -0.0547  0.2333 -0.0650
 2495W        W45511  29.900  17.372  21.420 -0.0013  0.0549  0.1946
 2496W        W45512  24.133  12.778  25.280  0.0497 -0.0394  0.2044
 2497W        W45513  11.077  23.801  16.532  0.2446  0.2450  0.1478
 2498W        W45514  14.194  33.101  23.645 -0.3959  0.2087  0.4189
 2499W        W45515  18.292  13.281  28.453  0.1751 -0.3011  0.0665
 2500W        W45516   6.745   1.697  25.771  0.2235  0.0688 -0.1721
 2501W        W45517   3.334   3.659  28.058  0.0054 -0.0032 -0.1843
 2502W        W45518  27.000  26.455  22.863  0.2318  0.2504  0.1439
 2503W        W45519  28.273  18.697  24.499 -0.0667 -0.0154  0.0359
 2504W        W45520  22.678   0.721  22.074 -0.1083 -0.0631  0.0897
 2505W        W45521  20.835  12.364  12.201  0.1075 -0.3134  0.1906
 2506W        W45522  29.169  16.392  20.899  0.1943 -0.1391 -0.0455
 2507W        W45523  24.552  13.842  21.696  0.1506 -0.2869  0.0558
 2508W        W45524  23.074   5.078  18.679 -0.1706  0.0309  0.0655
 2509W        W45525  21.298  31.692  25.856  0.0473 -0.0554  0.1278
 2510W        W45526  29.409   7.105  25.317  0.4537 -0.0177 -0.1975
 2511W        W45527  22.753  31.707  14.848  0.1323  0.1141 -0.2433
 2512W        W45528   7.284   5.845   9.374 -0.1095 -0.1022 -0.0939
 2513W        W45529  26.930   7.227  21.579  0.1886 -0.0052 -0.2292
 2514W        W45530  31.253  31.995  16.683  0.1117 -0.1819  0.0890
 2515W        W45531   1.456  14.601   1.030 -0.2478 -0.0752  0.3724
 2516W        W45532  13.806  15.465  25.251 -0.2452  0.3138  0.0617
 2517W        W45533  17.430  13.905   3.492 -0.0191 -0.2510 -0.1063
 2518W        W45534   1.401  10.971  26.679 -0.1991 -0.0668  0.0672
 2519W        W45535   1.125   7.900  20.008  0.0907  0.1613 -0.2196
 2520W        W45536   9.048   3.414  28.920 -0.0582  0.0833  0.1030
 2521W        W45537   3.766   9.882  16.509 -0.0545 -0.0055 -0.1027
 2522W        W45538  21.010  10.710  18.054 -0.0391  0.1690 -0.1420
 2523W        W45539  17.262  13.236  19.438 -0.1046  0.4774  0.0316
 2524W        W45540   8.625  26.417  27.418 -0.0584  0.4314  0.1855
 2525W        W45541  26.409   1.332  17.842  0.1824  0.2402 -0.0262
 2526W        W45542  28.103   0.813   6.630  0.2400 -0.0451 -0.0723
 2527W        W45543  24.021   3.750  27.377 -0.0441 -0.2069  0.1618
 2528W        W45544  26.722   2.237  19.449  0.1371  0.1659 -0.1619
 2529W        W45545  20.384  27.113  23.443 -0.0035 -0.0409  0.2204
 2530W        W45546   1.562  34.430   4.784  0.1001  0.2018 -0.0308
 2531W        W45547  13.772   2.213  16.465  0.1638  0.1469 -0.0644
 2532W        W45548  17.704  11.404   0.164 -0.1426  0.0906 -0.0684
 2533W        W45549  19.054   8.353  19.240  0.0318 -0.1204 -0.1850
 2534W        W45550  14.071   5.996  26.184 -0.0914 -0.0939 -0.1972
 2535W        W45551  19.380   2.698  20.417 -0.3426 -0.1386 -0.4803
 2536W        W45552  24.391   3.411  15.399 -0.1768  0.2045 -0.2600
 2537W        W45553  29.014  21.281  23.377  0.2285 -0.1460 -0.0915
 2538W        W45554   9.082  31.089  24.332  0.3064 -0.0717  0.1646
 2539W        W45555   2.786  27.044   3.133 -0.3674 -0.0205 -0.2250
 2540W        W45556  18.280   9.441  22.751 -0.1332  0.2704  0.2675
 2541W        W45557  20.330  17.718  20.408  0.2138  0.4027 -0.1216
 2542W        W45558   1.525  14.546  17.845 -0.1196 -0.0470 -0.1797
 2543W        W45559  30.649  18.242  21.154  0.3460 -0.1071  0.1493
 2544W        W45560  14.977   5.934  15.233  0.1321  0.2966  0.2229
 2545W        W45561  26.197  23.066  20.319 -0.2075  0.1467  0.2312
 2546W        W45562  12.990  10.373  22.176 -0.1542  0.4112 -0.1570
 2547W        W45563  17.136  29.768  26.434 -0.0049  0.0367 -0.0551
 2548W        W45564  34.609  16.771   1.741 -0.0588 -0.1328  0.4667
 2549W        W45565  24.487  19.940  20.047 -0.2226 -0.1659 -0.0168
 2550W        W45566   9.860   8.445  24.679 -0.0372 -0.0393 -0.3786
 2551W        W45567  11.284   8.724  16.771 -0.0379  0.0073  0.0568
 2552W        W45568  32.512  12.268  20.907 -0.0592 -0.0078 -0.0061
 2553W        W45569   0.810   6.605  13.784 -0.0910  0.0208  0.1053
 2554W        W45570  30.483   0.013   7.029 -0.1229 -0.1150  0.0543
 2555W        W45571   9.342  14.080  17.322  0.0592  0.0339 -0.0722
 2556W        W45572   2.141  13.227  16.150 -0.0185  0.0407 -0.1060
 2557W        W45573   8.987   6.492   4.737  0.0871  0.0856 -0.1504
 2558W        W45574  16.429  30.016  22.916  0.1068 -0.3506 -0.1330
 2559W        W45575  10.393  21.441  23.832 -0.2020 -0.3783  0.2582
 2560W        W45576  13.564  13.501  20.494 -0.1606  0.2990 -0.0509
 2561W        W45577  15.908  29.772  23.511 -0.1724  0.0586  0.4775
 2562W        W45578  12.875  34.670  17.627  0.0852  0.3855 -0.3011
 2563W        W45579  28.830  23.325  28.532  0.1985  0.0993  0.0037
 2564W        W45580   8.687   8.317  14.874  0.2215 -0.2387 -0.2380
 2565W        W45581  18.340  10.745  28.178  0.0635 -0.2655  0.0868
 2566W        W45582  21.757  10.326   4.629  0.1969  0.1074 -0.2222
 2567W        W45583  29.031   2.044  28.837 -0.2822 -0.3320  0.1602
 2568W        W45584  26.695  27.993  21.233  0.1555  0.0401  0.0354
 2569W        W45585  25.535   2.027  19.080  0.1739  0.1934  0.1567
 2570W        W45586  29.377  12.451   9.134 -0.0224  0.0069  0.0522
 2571W        W45587  20.343   0.905  21.035 -0.1060  0.1319 -0.0130
 2572W        W45588  33.140  19.728  26.832  0.0646 -0.2283 -0.1488
 2573W        W45589  19.878  21.248  27.449  0.1185 -0.0071  0.0022
 2574W        W45590  26.194  13.569  24.802 -0.0801  0.0175  0.2234
 2575W        W45591   3.060   8.961  24.972 -0.2379  0.0401  0.1888
 2576W        W45592  25.037  22.623   1.158 -0.4068 -0.0775  0.0943
 2577W        W45593  21.751  27.362  18.469 -0.1655  0.0392 -0.1490
 2578W        W45594  31.148  19.813  27.743 -0.0879  0.0959 -0.0315
 2579W        W45595  10.504  34.662  24.608  0.1438 -0.0240 -0.0433
 2580W        W45596  22.685  11.354  28.112  0.1774  0.0175  0.0474
 2581W        W45597   6.895  23.134  23.020 -0.0632  0.3238 -0.0923
 2582W        W45598  26.222  15.711   1.225 -0.0050  0.1368  0.3626
 2583W        W45599  19.211  11.110   5.042 -0.1093  0.0223  0.1449
 2584W        W45600  15.608  29.271  23.846  0.1926 -0.0514  0.1307
 2585W        W45601  27.576   7.882  17.674 -0.2235 -0.0495 -0.1119
 2586W        W45602  19.437  34.574   9.204 -0.0282  0.2853  0.1089
 2587W        W45603  23.877  24.034  18.016 -0.1421  0.0144  0.3693
 2588W        W45604  28.779   2.447  20.199 -0.0534  0.3257 -0.2596
 2589W        W45605  12.289  25.857   1.300 -0.2964 -0.1021  0.0771
 2590W        W45606   1.603   2.182   1.577 -0.0275 -0.2438  0.1421
 2591W        W45607  21.828  17.832  15.934  0.2847 -0.1788 -0.0440
 2592W        W45608  28.858   8.554  23.268 -0.3092 -0.1788 -0.0833
 2593W        W45609  13.947  11.773  19.399 -0.1907  0.0923  0.3583
 2594W        W45610  18.850   9.226  27.996 -0.1392 -0.1317  0.2249
 2595W        W45611  28.235   2.975   8.542 -0.2235 -0.0171 -0.0020
 2596W        W45612  23.066  17.784   6.570  0.1461 -0.0959 -0.1772
 2597W        W45613  19.290  23.777  22.363 -0.0903  0.0543  0.5102
 2598W        W45614  27.125  20.852  24.262 -0.0322  0.0294 -0.0711
 2599W        W45615  21.644   5.911  24.372  0.2501  0.1307 -0.1442
 2600W        W45616  18.603  10.212  23.273 -0.0486 -0.0303  0.0599
 2601W        W45617  28.118  14.142  19.232 -0.1713  0.1909  0.3346
 2602W        W45618  24.375  11.437  21.805 -0.1901 -0.0937 -0.2234
 2603W        W45619  16.914  15.745  21.290 -0.0466 -0.1484  0.1297
 2604W        W45620  22.316  24.754  24.376 -0.1150  0.2179 -0.1392
 2605W        W45621  24.900   3.300  23.485  0.0204  0.1848  0.4586
 2606W        W45622   3.015  20.719  23.419  0.2746 -0.1204 -0.3109
 2607W        W45623  24.155   7.992  15.925  0.1666  0.0736  0.1767
 2608W        W45624  32.517  11.374  16.324 -0.1638  0.0995  0.1574
 2609W        W45625  28.057   5.565   3.730 -0.0418  0.1679  0.2091
 2610W        W45626  28.564   7.116  29.160 -0.0266  0.4978  0.1375
 2611W        W45627  31.175  12.515   6.003  0.1493 -0.0511 -0.0533
 2612W        W45628  16.194   4.107  25.738 -0.2222 -0.0539  0.1477
 2613W        W45629  32.177   0.981  26.146  0.1300 -0.0451  0.1685
 2614W        W45630   0.858  11.382  27.796 -0.1086 -0.4079  0.0381
 2615W        W45631  22.569  33.182  21.803 -0.1157  0.0301  0.0977
 2616W        W45632  26.181  21.245  21.765 -0.1865  0.2723 -0.3190
 2617W        W45633   1.626   8.694  27.569  0.1780  0.1105 -0.0718
 2618W        W45634  31.268  10.360  22.315  0.2600  0.1601  0.0877
 2619W        W45635  28.888  31.000  17.902 -0.0957  0.4237 -0.2797
 2620W        W45636  13.492  26.872  22.272  0.0513 -0.1247  0.3207
 2621W        W45637  27.054   1.544  24.999  0.0947  0.0598 -0.0475
 2622W        W45638  24.619  31.648  15.766  0.1332  0.3529  0.0011
 2623W        W45639  31.796   5.766  17.730  0.4432  0.0631  0.1713
 2624W        W45640  31.433  24.867  22.107 -0.1294  0.1284 -0.0625
 2625W        W45641  21.328  32.711  27.793 -0.1260  0.2475  0.1884
 2626W        W45642  28.327  33.996   1.067 -0.2000  0.0555  0.2952
 2627W        W45643  28.366  15.941  15.104 -0.1053 -0.2369 -0.1908
 2628W        W45644  27.585  13.070   4.782 -0.0607 -0.0422  0.3297
 2629W        W45645  14.166  22.827   1.422  0.0419 -0.0263  0.0117
 2630W        W45646  31.385   8.294   1.307 -0.2918 -0.2524  0.1839
 2631W        W45647  19.496   4.598   8.804 -0.0034 -0.0981 -0.1839
 2632W        W45648  19.765  13.705   2.125 -0.0102  0.0108 -0.3041
 2633W        W45649  21.619   1.885  22.464 -0.3065  0.0778  0.0812
 2634W        W45650  22.979   6.731  19.641  0.2044 -0.1811  0.1461
 2635W        W45651  28.058  27.546  17.910 -0.0463 -0.1399  0.2278
 2636W        W45652  14.876  15.149  26.827  0.0793 -0.0145 -0.0500
 2637W        W45653  14.959  32.905   7.683  0.5061 -0.2233  0.2368
 2638W        W45654  27.977  15.363  14.643  0.1407  0.0092 -0.1345
 2639W        W45655  16.646  31.813  23.200  0.1275  0.1929 -0.2951
 2640W        W45656  16.443  18.574  12.650  0.1224  0.1306 -0.0825
 2641W        W45657  11.504   5.050  21.399  0.1126  0.3171 -0.2652
 2642W        W45658  19.787  12.715  12.234 -0.2556 -0.3841  0.1300
 2643W        W45659   3.259  33.107  23.815  0.1716 -0.0087 -0.3109
 2644W        W45660  10.216  24.743  21.735  0.0713 -0.1059 -0.3697
 2645W        W45661  25.724   4.913  22.994 -0.1809 -0.1429  0.1329
 2646W        W45662  23.355  34.495  19.169  0.0556  0.0516 -0.0119
 2647W        W45663  26.663  16.330  16.518  0.1355  0.1677  0.1054
 2648W        W45664  16.321  12.596  24.059  0.0837 -0.1615 -0.1181
 2649W        W45665  20.857  14.321   4.411  0.0904  0.0987  0.0244
 2650W        W45666  24.270  16.750  19.004  0.4557  0.2861 -0.0414
 2651W        W45667  27.542   1.266   3.604 -0.2880 -0.1691  0.1778
 2652W        W45668  10.153  27.279  16.360 -0.2248  0.3234 -0.2394
 2653W        W45669  20.163   6.513  23.891 -0.1961 -0.2059  0.0586
 2654W        W45670  26.675  16.801  22.760  0.2592 -0.1335  0.1153
 2655W        W45671   0.064  33.683   3.610 -0.1773  0.2252 -0.2131
 2656W        W45672  20.929  30.167  27.133 -0.1314  0.0549 -0.3489
 2657W        W45673  19.383  18.985   5.669 -0.2080 -0.0554  0.1407
 2658W        W45674  13.434   2.877   0.118  0.2375 -0.0674 -0.0072
 2659W        W45675  25.440  15.349  15.857 -0.1565 -0.2110  0.4457
 2660W        W45676  24.857  20.080   4.176  0.0134  0.0921 -0.2161
 2661W        W45677  17.741  30.458  21.685 -0.1437  0.0294 -0.1559
 2662W        W45678  19.264  14.111   5.801  0.1446 -0.1999 -0.3250
 2663W        W45679  22.411  19.040  21.447 -0.0769 -0.1307  0.0571
 2664W        W45680  17.211  13.212  11.854  0.0011 -0.1477 -0.0364
 2665W        W45681  16.270  11.292   0.146 -0.1138 -0.1453  0.1289
 2666W        W45682  14.644  10.290  24.467 -0.0406  0.3319 -0.1682
 2667W        W45683  28.630   7.106  15.914  0.1789 -0.3289 -0.0294
 2668W        W45684   1.934  18.766  25.822 -0.1490  0.1006  0.1403
 2669W        W45685  13.565   6.065  24.086 -0.2270  0.2098  0.2758
 2670W        W45686  22.526   8.453  21.820 -0.1075  0.1472 -0.0944
 2671W        W45687  15.785  32.000  23.369 -0.0302 -0.0850  0.1938
 2672W        W45688  29.126   2.848   1.139  0.1308 -0.0663 -0.1404
 2673W        W45689   0.962  15.325  18.560  0.0049 -0.0315 -0.4600
 2674W        W45690  25.601  15.176  14.820  0.1417 -0.1286  0.0724
 2675W        W45691  32.761   9.596  16.741  0.1131  0.0132  0.0951
 2676W        W45692  17.941  13.800   7.659 -0.2240  0.1314  0.1641
 2677W        W45693  33.701  16.229  25.039  0.0214 -0.0185  0.1629
 2678W        W45694  15.583  31.670   4.420  0.5404  0.0429 -0.0115
 2679W        W45695  31.625  17.100  23.962  0.0584 -0.1306  0.1600
 2680W        W45696  26.021  22.261   5.021  0.2157 -0.0539 -0.0944
 2681W        W45697  30.573  25.536  14.691 -0.1658 -0.1883  0.0896
 2682W        W45698  13.132   0.884  28.480  0.0345  0.2248 -0.2228
 2683W        W45699  23.330  14.071   8.615  0.2026  0.5130  0.0166
 2684W        W45700   0.471   2.322  18.133 -0.5320  0.0636  0.0702
 2685W        W45701  30.630  14.431  22.902 -0.0409  0.1425  0.1445
 2686W        W45702  14.100  16.877  24.259  0.1829 -0.0297  0.0682
 2687W        W45703   6.653   1.676  27.884 -0.1360  0.1840  0.2415
 2688W        W45704  22.743  29.454   4.574  0.0173  0.2515 -0.2041
 2689W        W45705  29.480  18.108   0.729 -0.2760 -0.0731  0.1351
 2690W        W45706   2.733   2.712   4.441 -0.1941 -0.1488 -0.0345
 2691W        W45707  19.693  15.097  11.982 -0.3091 -0.1710 -0.1398
 2692W        W45708  22.263  18.563  22.545  0.0536 -0.1568  0.0774
 2693W        W45709   2.158  32.970   0.502 -0.2604  0.0955  0.0209
 2694W        W45710  34.727   8.087  24.174  0.0283 -0.1191  0.0805
 2695W        W45711   9.649  10.695  15.326  0.0397 -0.4520  0.2080
 2696W        W45712  23.938  11.176  23.301  0.1105  0.0689  0.0771
 2697W        W45713   2.964  17.616  19.844 -0.0495  0.1525  0.0582
 2698W        W45714  27.623   6.140  23.815 -0.0078  0.2286 -0.2779
 2699W        W45715  27.853  31.219  16.807 -0.0034 -0.0763 -0.3549
 2700W        W45716   1.901   4.287  16.774 -0.0702 -0.4878  0.2741
 2701W        W45717  18.888  21.591  20.727 -0.1424  0.1351  0.1286
 2702W        W45718  32.869  28.638  24.579  0.0746 -0.2797  0.0596
 2703W        W45719  20.996   1.912  18.147  0.2603  0.0473 -0.1326
 2704W        W45720  16.748  11.318  28.546 -0.0254  0.1020 -0.1050
 2705W        W45721  12.522  11.084  18.150  0.1352 -0.0322 -0.2742
 2706W        W45722  29.869  27.741  21.109 -0.1010  0.1820 -0.3220
 2707W        W45723  29.511   5.349   5.098  0.2333  0.0014 -0.0899
 2708W        W45724  25.636  30.765  17.320  0.1988  0.0363 -0.1968
 2709W        W45725  26.805   4.202  24.996  0.0391  0.2335 -0.2652
 2710W        W45726  34.327  23.118  22.388  0.0487  0.2246  0.2876
 2711W        W45727  11.531  33.008  22.512  0.0758  0.2513  0.1436
 2712W        W45728  21.803   7.155  19.196 -0.1349  0.0142 -0.0676
 2713W        W45729  29.473  22.293  16.345  0.0793  0.0631  0.0549
 2714W        W45730  14.582   2.178  20.310 -0.0978 -0.1287  0.1493
 2715W        W45731   5.255   3.708  20.714 -0.1851  0.2587 -0.0091
 2716W        W45732  33.119  26.263   1.752  0.0441  0.0105  0.1852
 2717W        W45733  26.289   4.595   1.689 -0.1611 -0.4213  0.2711
 2718W        W45734  33.245   8.097  15.691 -0.0721 -0.0027  0.0573
 2719W        W45735  14.134  11.750   3.744 -0.1476 -0.1899 -0.1306
 2720W        W45736  20.839  33.959   6.977 -0.0337  0.3498  0.0401
 2721W        W45737  31.313   5.222  19.148 -0.3703  0.0033  0.2610
 2722W        W45738  21.219  12.334  27.887  0.0681 -0.2499 -0.5568
 2723W        W45739  34.050   6.753  21.846  0.0301  0.3382  0.2741
 2724W        W45740   7.385  14.585  19.278  0.0280 -0.0756 -0.1079
 2725W        W45741  26.300  13.659  20.674 -0.0184 -0.0711 -0.0471
 2726W        W45742  34.689   2.629  21.549  0.3231 -0.0414  0.0966
 2727W        W45743  24.194  32.526  28.374  0.2598  0.0659  0.1526
 2728W        W45744  19.626  13.533  13.410  0.0865  0.2342  0.1282
 2729W        W45745  22.073  18.327  26.040  0.2785  0.1277  0.1315
 2730W        W45746  22.108   7.419  13.973  0.1134  0.0692 -0.2606
 2731W        W45747  14.340   3.469  24.939  0.2560 -0.1894 -0.3078
 2732W        W45748  17.653  17.760  23.299  0.1554 -0.1320 -0.1593
 2733W        W45749  29.987   2.644   7.932 -0.3290  0.0141  0.1248
 2734W        W45750  15.304  14.064   4.913  0.0853 -0.2089  0.2039
 2735W        W45751  28.465   8.793  20.234  0.1323 -0.1514 -0.2467
 2736W        W45752  22.493  32.255  20.134  0.1639 -0.1031  0.1502
 2737W        W45753  29.682   3.242  26.609  0.2939 -0.1108  0.0781
 2738W        W45754  21.374   4.654  23.241  0.0742 -0.3567 -0.0318
 2739W        W45755  31.438  11.907  22.350  0.2815  0.0317  0.0209
 2740W        W45756  17.296  15.353   5.967  0.1983  0.2035 -0.3775
 2741W        W45757  15.186  33.315  18.827  0.2434  0.1179  0.1811
 2742W        W45758  33.722  16.251  22.059  0.0073 -0.2632  0.0281
 2743W        W45759   4.554   2.307  16.565 -0.2041 -0.2088 -0.2191
 2744W        W45760  21.890  31.658   6.328  0.2077 -0.1022  0.0975
 2745W        W45761  32.121   8.994  15.044  0.1943  0.1592  0.1776
 2746W        W45762  20.723  18.171  21.737 -0.0450  0.1162 -0.1844
 2747W        W45763  33.695  26.826   5.354  0.0749  0.2496  0.2559
 2748W        W45764  22.263   3.480  17.972 -0.0941  0.0733  0.0200
 2749W        W45765  14.872   8.653   4.748  0.3858  0.0245 -0.0893
 2750W        W45766  10.699   8.735   4.062 -0.0490 -0.0704 -0.1653
 2751W        W45767  23.713  18.562  27.860 -0.0474 -0.3139 -0.0616
 2752W        W45768  21.295  10.859  19.511  0.2607 -0.1474 -0.0671
 2753W        W45769  22.088  32.276  17.104  0.2882 -0.1287 -0.0362
 2754W        W45770  19.914  11.092   2.550  0.0175  0.1844 -0.0170
 2755W        W45771  14.566  29.162  28.068 -0.1893  0.0942  0.2693
 2756W        W45772  31.880  33.301  25.984  0.0841  0.2639 -0.1017
 2757W        W45773   9.606  21.614  24.941  0.0658 -0.0712 -0.0216
 2758W        W45774  29.941   5.549   1.079  0.0150  0.3006 -0.1827
 2759W        W45775  22.392  28.870   9.555  0.1783  0.0255 -0.0751
 2760W        W45776  24.224   3.253  21.794  0.2073  0.3129 -0.1601
 2761W        W45777  33.894   7.429  22.118  0.0923  0.2588  0.2430
 2762W        W45778  34.298   9.320  27.132  0.2148 -0.0915 -0.0806
 2763W        W45779  11.400  32.512   9.680 -0.2911 -0.0124 -0.0456
 2764W        W45780  19.293  24.559   4.543  0.0533  0.2463 -0.0333
 2765W        W45781  24.205  33.732   6.402  0.1875 -0.1389  0.0506
 2766W        W45782  22.310   3.302   3.874 -0.4456 -0.1835  0.3452
 2767W        W45783  19.899  21.324  13.537 -0.1731 -0.3407  0.0712
 2768W        W45784   1.677   5.049  28.723 -0.1515  0.2134  0.0507
 2769W        W45785  27.088   2.015  20.829 -0.2859  0.3158 -0.2438
 2770W        W45786  28.035  10.332  19.501  0.5107  0.0756 -0.0298
 2771W        W45787  31.648   9.424   0.040 -0.1026  0.0677  0.0692
 2772W        W45788  18.741   5.194  23.598  0.0405  0.1253 -0.2489
 2773W        W45789  26.615  16.227  26.866  0.0773  0.3651 -0.1404
 2774W        W45790  15.898  30.139  16.045 -0.2252 -0.2098 -0.2112
 2775W        W45791  32.089  24.783  29.150 -0.0368  0.0582  0.1911
 2776W        W45792   5.993   6.150   3.992 -0.2238  0.1849 -0.2801
 2777W        W45793  19.583  10.465   3.814 -0.0921  0.0156  0.1223
 2778W        W45794  15.660  12.308   6.603  0.1155 -0.1842  0.0173
 2779W        W45795  22.567   1.665   2.307  0.0562  0.2506  0.2070
 2780W        W45796  33.123  29.476  23.135  0.0723  0.2989 -0.1160
 2781W        W45797  27.793   3.038  10.995  0.0174  0.1353  0.0680
 2782W        W45798  19.757  12.278  12.924 -0.1216 -0.1620 -0.0433
 2783W        W45799  21.743   5.841   9.811  0.1961 -0.0328  0.1600
 2784W        W45800   9.032  10.414  19.565 -0.1684 -0.0160 -0.0568
 2785W        W45801  15.811  24.868  16.618  0.2021  0.0325  0.2243
 2786W        W45802  14.758   7.207   6.715  0.0619 -0.1060  0.1370
 2787W        W45803   3.639   7.661  18.670  0.2037 -0.1473  0.1190
 2788W        W45804  27.964   5.209  22.243 -0.0297 -0.1347 -0.1735
 2789W        W45805  13.126  21.412  17.897 -0.1806 -0.4015  0.0285
 2790W        W45806   8.819   4.374  19.005  0.3073  0.3470  0.1829
 2791W        W45807  20.951  32.500  15.130 -0.0163 -0.0982 -0.1408
 2792W        W45808  10.753   0.154   4.906 -0.0511  0.0311 -0.1638
 2793W        W45809  13.398   7.641  18.273 -0.2881 -0.3737 -0.0205
 2794W        W45810  19.093  17.102  18.408  0.0542 -0.4207  0.0399
 2795W        W45811  10.456  15.994  26.923  0.1643 -0.1360 -0.0136
 2796W        W45812  13.962   1.432  13.947  0.2831  0.1096  0.0214
 2797W        W45813  21.787   2.857  26.125 -0.2024  0.0798 -0.0478
 2798W        W45814   4.713   2.958  19.346 -0.1701  0.2223  0.1396
 2799W        W45815  25.476   9.167  25.376 -0.2131  0.2767  0.0920
 2800W        W45816   0.111   0.481   2.987  0.1938 -0.0915 -0.1733
 2801W        W45817  19.277  32.859  27.912  0.0634  0.3063 -0.0881
 2802W        W45818  14.722   4.258  15.170 -0.1527 -0.1057  0.2086
 2803W        W45819   0.829   3.676   7.547 -0.0525 -0.0342 -0.1966
 2804W        W45820  26.042  19.062  29.131 -0.0561  0.0724 -0.0345
 2805W        W45821  27.114  33.637   0.233  0.0270 -0.3697 -0.0724
 2806W        W45822  20.090   6.015  21.760 -0.0753 -0.1404 -0.0660
 2807W        W45823  19.888   3.056  25.978 -0.0129 -0.0413 -0.2580
 2808W        W45824   7.548  29.287  21.962 -0.1959  0.1642  0.1678
 2809W        W45825  13.154  17.312   2.863  0.2438  0.2397  0.0880
 2810W        W45826  30.997  14.034  20.275 -0.0156  0.2810 -0.0028
 2811W        W45827  13.438  24.198   6.091  0.0941  0.0395 -0.1632
 2812W        W45828  19.246  12.828  21.945 -0.0443  0.1228  0.4173
 2813W        W45829  12.551  13.503  21.715  0.2565 -0.2694  0.1438
 2814W        W45830  27.262   8.261  15.242  0.0560  0.0901  0.0386
 2815W        W45831   8.322   3.476   1.064 -0.1979  0.0365 -0.1070
 2816W        W45832  32.693   1.652  18.495  0.0572 -0.1019  0.0071
 2817W        W45833  16.376  28.790  28.268  0.0394  0.3031 -0.0216
 2818W        W45834   1.942   1.432  14.577  0.0952  0.1741  0.0867
 2819W        W45835  20.202   7.596   5.367 -0.1710  0.0883  0.0508
 2820W        W45836  21.062  19.974  20.288  0.1343 -0.0511 -0.2157
 2821W        W45837   1.934   0.350  22.634 -0.3256 -0.0603  0.0654
 2822W        W45838   0.680  32.328   3.842 -0.1268  0.1158 -0.0234
 2823W        W45839  25.069   9.429  20.365  0.0001 -0.4667 -0.1398
 2824W        W45840   1.444  15.543   2.210 -0.0305  0.1152 -0.1973
 2825W        W45841  30.402  15.980  19.697 -0.1102 -0.0164 -0.1613
 2826W        W45842  24.961  21.836  16.627 -0.1582  0.0001 -0.2312
 2827W        W45843  14.185   4.228  19.438  0.3474  0.2575 -0.1151
 2828W        W45844  25.030  17.562  14.617 -0.2610 -0.0433 -0.0372
 2829W        W45845   0.727   1.639  20.417 -0.2542 -0.0580  0.2188
 2830W        W45846   9.550  10.596   9.144 -0.1813 -0.1380 -0.0259
 2831W        W45847  21.194   8.919  16.415 -0.5939  0.0292  0.0465
 2832W        W45848   9.332   0.687   4.982  0.1331 -0.3229 -0.1479
 2833W        W45849  22.727   2.486  25.274 -0.2175 -0.0979  0.0352
 2834W        W45850  27.862  10.513  14.848  0.0422  0.2773  0.3182
 2835W        W45851  27.214  29.729  28.140 -0.0535 -0.0745  0.1395
 2836W        W45852   4.459  21.912  16.466  0.0992  0.2662 -0.2680
 2837W        W45853  15.941  15.437  27.636  0.2503 -0.0451  0.2742
 2838W        W45854  20.601   9.169   0.242  0.1502 -0.1083 -0.3332
 2839W        W45855  12.078  11.418  27.947 -0.1038 -0.1443  0.2815
 2840W        W45856  21.888   9.874  19.457  0.0807  0.1738 -0.3835
 2841W        W45857  28.540   6.037  24.196  0.0805 -0.2841 -0.1267
 2842W        W45858   8.214   5.249  23.953  0.1503  0.1101  0.0902
 2843W        W45859  32.390   5.012  15.340 -0.1305  0.1210  0.0853
 2844W        W45860   9.124   2.700  14.775 -0.0410 -0.2168 -0.1497
 2845W        W45861   2.620   5.359   9.716 -0.0278  0.0796 -0.1695
 2846W        W45862  24.052  14.280  19.204 -0.1208  0.3818 -0.0178
 2847W        W45863  20.529  13.040  24.376 -0.0609 -0.1478  0.1122
 2848W        W45864  19.679  15.968   1.038  0.0442 -0.0227  0.1539
 2849W        W45865  22.610  19.918  22.015 -0.1165 -0.3338  0.0216
 2850W        W45866  34.239   1.782   0.147 -0.0308  0.2394 -0.0523
 2851W        W45867  30.130  23.368  19.493 -0.1519  0.0549 -0.0256
 2852W        W45868   1.325  29.911  28.031 -0.2586  0.0083  0.1100
 2853W        W45869   2.293  31.553   3.493  0.0219 -0.1531 -0.1421
 2854W        W45870   1.157  10.587  23.866  0.1775  0.1064 -0.5029
 2855W        W45871  28.373  25.272  16.559 -0.1068  0.3440 -0.0502
 2856W        W45872  20.987  11.796  13.226 -0.1270 -0.1342  0.0742
 2857W        W45873  10.636  32.688  26.065  0.2334  0.0203  0.0300
 2858W        W45874  21.737   8.882   2.664 -0.2108 -0.4307 -0.0359
 2859W        W45875  29.597   9.667   3.668 -0.4166 -0.0374  0.0437
 2860W        W45876  24.974   2.258  20.273 -0.1701 -0.0281 -0.1416
 2861W        W45877  22.431  32.508   3.555  0.1502  0.0196 -0.0795
 2862W        W45878  21.424  12.339  18.371 -0.1843 -0.2531  0.0370
 2863W        W45879   7.038  10.674  17.506  0.0992  0.0395  0.0164
 2864W        W45880  15.310   4.051  26.086 -0.4132  0.1176  0.1367
 2865W        W45881  12.435  17.122   6.897  0.3119  0.2331 -0.2397
 2866W        W45882   2.914  18.948  24.008 -0.0329  0.0172  0.1976
 2867W        W45883  17.318   3.987  26.265  0.1779  0.2884 -0.0353
 2868W        W45884   0.692  10.728  21.422 -0.2989 -0.4114  0.0308
 2869W        W45885  26.890  13.435   3.814  0.1449 -0.1391  0.0279
 2870W        W45886  12.328  16.122  24.113  0.1006  0.2257  0.2859
 2871W        W45887  13.273  24.650  17.243  0.0742 -0.3789 -0.1118
 2872W        W45888  24.196  19.521  29.135  0.1880  0.2137  0.0236
 2873W        W45889  18.043  20.234  29.250  0.0507 -0.1488 -0.3027
 2874W        W45890  23.251   4.567  20.196  0.1353 -0.0254 -0.2958
 2875W        W45891  15.873   7.974  24.429 -0.2763 -0.0872 -0.0635
 2876W        W45892  11.867  11.570  17.761  0.1029 -0.0058  0.0230
 2877W        W45893   6.785  12.745  14.657  0.5066  0.3201 -0.2339
 2878W        W45894  27.158  13.070  20.342 -0.1291 -0.1353 -0.1819
 2879W        W45895  15.122  14.510  14.569  0.1816 -0.2171  0.3050
 2880W        W45896  12.456   5.294   7.708  0.0878  0.1750  0.2174
 2881W        W45897  12.263   3.876  28.412  0.2790 -0.0070 -0.1465
 2882W        W45898  12.123  29.624  25.698 -0.2733  0.2331 -0.5430
 2883W        W45899  15.817  18.570   8.217  0.1973 -0.1822  0.0466
 2884W        W45900  21.228  11.372  19.932 -0.0420  0.0937  0.0299
 2885W        W45901  15.261  16.871  15.399  0.0179  0.3533  0.2325
 2886W        W45902  12.767  12.796  15.514 -0.1697  0.1777  0.1203
 2887W        W45903  10.848   4.001  18.833  0.0758 -0.1892  0.3537
 2888W        W45904   1.567  16.510  22.355 -0.1757 -0.3041  0.2792
 2889W        W45905  26.486  33.540   1.259 -0.2458 -0.0429 -0.0205
 2890W        W45906  24.712   6.513  17.235  0.0302  0.2518 -0.0043
 2891W        W45907  25.960  31.341  22.389 -0.2491 -0.3945 -0.3748
 2892W        W45908  18.404  18.734  21.961 -0.2815  0.0863 -0.2609
 2893W        W45909  22.971  33.635   1.784 -0.1436 -0.0365 -0.0277
 2894W        W45910  10.476  13.746   5.381  0.0229 -0.2052  0.0176
 2895W        W45911  24.748  34.681   1.204  0.1112  0.1370 -0.1336
 2896W        W45912  26.399   9.493  28.892  0.3012 -0.1894  0.2565
 2897W        W45913   5.980   5.278  16.656  0.1325  0.2727 -0.0344
 2898W        W45914  14.717   5.849  19.762  0.1504  0.3469  0.0746
 2899W        W45915   2.472  15.285  24.395 -0.1396 -0.5309  0.1406
 2900W        W45916  12.278  16.918  17.216 -0.0777  0.1739  0.1636
 2901W        W45917  30.908  28.154  20.219  0.3184 -0.1741 -0.1536
 2902W        W45918  14.402  10.352  14.492 -0.0097  0.2265 -0.1258
 2903W        W45919  27.958   0.362  26.928 -0.0010 -0.0291  0.0256
 2904W        W45920  21.616  17.102  16.256 -0.1267  0.5458  0.0821
 2905W        W45921  23.037  33.661  19.067 -0.1263 -0.0643 -0.0199
 2906W        W45922  14.894  21.536  26.692 -0.0166 -0.0590 -0.2803
 2907W        W45923  20.560  27.281  17.685  0.0315  0.0271 -0.0324
 2908W        W45924  23.448  12.361  21.178  0.1402 -0.1749 -0.2688
 2909W        W45925  24.510   9.614  16.115 -0.3596 -0.0852 -0.1339
 2910W        W45926  24.902   5.437  27.687 -0.1983  0.2705  0.2813
 2911W        W45927  28.715   4.269   1.164  0.0171  0.0947 -0.0469
 2912W        W45928  24.570  27.813  26.789 -0.1113 -0.0776 -0.1182
 2913W        W45929   2.312  32.231  19.384 -0.2093 -0.1707 -0.1039
 2914W        W45930  16.225  24.322  16.987 -0.0603  0.0747 -0.2234
 2915W        W45931   6.263  22.798  27.745 -0.0895 -0.5366 -0.2024
 2916W        W45932  17.638  10.752  24.374 -0.0781  0.0594  0.0695
 2917W        W45933  33.863  14.257  19.218 -0.0965  0.0405 -0.2037
 2918W        W45934  31.609  16.695  27.719  0.0591 -0.1800 -0.4095
 2919W        W45935   8.290  32.199  20.664  0.1339 -0.1099 -0.3662
 2920W        W45936  28.101   9.167  25.100 -0.2931  0.0122 -0.0263
 2921W        W45937  30.850   9.462  15.105 -0.4957 -0.1904 -0.3173
 2922W        W45938  34.009  16.342  28.974  0.0547 -0.2404 -0.1326
 2923W        W45939  19.950  22.253  13.784 -0.0706 -0.0346 -0.0028
 2924W        W45940  16.647  14.465  12.129  0.4225 -0.1306  0.0769
 2925W        W45941  28.682   7.917  23.874 -0.2076 -0.0520  0.0461
 2926W        W45942  24.514   4.199   1.193 -0.2165  0.2770  0.2172
 2927W        W45943  26.220  10.191  18.866  0.0408 -0.1124  0.1043
 2928W        W45944   4.190  18.809  18.948  0.0626 -0.0166  0.0719
 2929W        W45945  33.449  33.097  27.714  0.0212  0.0098 -0.0653
 2930W        W45946   6.438  26.449  10.067 -0.0433 -0.0773  0.1090
 2931W        W45947  12.614  13.682   6.635 -0.0040 -0.3402 -0.0044
 2932W        W45948  26.788  15.748  20.423  0.0714  0.3544  0.2970
 2933W        W45949  16.035  29.601  19.589 -0.2177  0.0784  0.2404
 2934W        W45950  31.068  24.630  21.701 -0.1302  0.1077 -0.2577
 2935W        W45951  22.252   6.968  17.619 -0.0425  0.1993  0.1252
 2936W        W45952  25.023  25.613  28.630  0.0740  0.0949  0.2393
 2937W        W45953  12.513  32.558   6.879 -0.0199  0.4778 -0.0795
 2938W        W45954  30.908   8.220  21.318 -0.0939  0.2135  0.2334
 2939W        W45955   1.924   9.959   5.970  0.0629  0.2458 -0.0804
 2940W        W45956   5.040  22.419   3.283 -0.1316  0.1731 -0.1968
 2941W        W45957   0.498  22.324   4.997  0.0198 -0.0622 -0.1419
 2942W        W45958  12.260  14.667   4.845 -0.0046 -0.0921 -0.3426
 2943W        W45959   4.392  10.598  13.718  0.0048 -0.1936  0.2241
 2944W        W45960  11.044  12.239  16.789 -0.4054  0.2369 -0.0483
 2945W        W45961  14.285   9.531  14.182  0.0600  0.2652 -0.0504
 2946W        W45962  19.773   1.760  15.001 -0.1493  0.2940 -0.1022
 2947W        W45963  23.210  10.612   1.070  0.0764  0.0181  0.0962
 2948W        W45964  29.860   8.712  19.166 -0.0317 -0.1832 -0.0714
 2949W        W45965  12.040  33.493   7.679  0.2278  0.0039 -0.2568
 2950W        W45966  20.698  22.880  14.844 -0.1268 -0.3673  0.0519
 2951W        W45967  14.978  10.325  17.786 -0.1205 -0.1347 -0.1417
 2952W        W45968  30.823  19.486   6.593  0.1814 -0.3240  0.0350
 2953W        W45969  13.803  16.442  22.266 -0.0953 -0.0514  0.2321
 2954W        W45970  20.652   2.994  27.743  0.1223 -0.0370 -0.3556
 2955W        W45971  21.069  14.993  26.784 -0.1581 -0.2115 -0.1473
 2956W        W45972  18.744  20.199  17.137  0.0040 -0.1903 -0.0938
 2957W        W45973  22.289  15.649   2.275 -0.2771  0.3738  0.3326
 2958W        W45974   5.686  24.216   8.122 -0.1983  0.1324 -0.0534
 2959W        W45975   9.850  11.231  19.004 -0.0805  0.3136 -0.2003
 2960W        W45976  26.040  34.030  21.968  0.3540 -0.0994 -0.2401
 2961W        W45977  17.284  11.215  15.037 -0.2704 -0.1430 -0.1680
 2962W        W45978  28.430   3.895  16.264  0.0685  0.1635 -0.0173
 2963W        W45979  29.914  34.126  22.777 -0.0042 -0.3602  0.0471
 2964W        W45980  34.583  31.816  16.893 -0.0531 -0.0287 -0.2209
 2965W        W45981  23.242  33.421  29.112 -0.1776  0.1711 -0.0694
 2966W        W45982  28.867  12.074   6.946  0.1318 -0.0865  0.1793
 2967W        W45983  28.878  28.550   8.644  0.0745  0.0556  0.5558
 2968W        W45984  34.763  13.172  23.791 -0.1139 -0.0749 -0.1037
 2969W        W45985  22.993  26.699   0.096  0.1290  0.3665 -0.1031
 2970W        W45986  21.081   0.514   5.495  0.1505  0.0087 -0.1243
 2971W        W45987   7.967   3.691  14.422 -0.1175 -0.1208 -0.0140
 2972W        W45988  18.471  34.543   5.773  0.2427  0.2115 -0.1471
 2973W        W45989  14.769   9.222  19.280 -0.1191 -0.0972 -0.0642
 2974W        W45990  16.120   9.494   0.340  0.0915  0.1095 -0.0355
 2975W        W45991   2.067  31.657  23.186 -0.0308 -0.1961  0.2774
 2976W        W45992  16.293  16.983  21.905 -0.0702  0.1066  0.3761
 2977W        W45993  11.019  22.155   4.828  0.1458 -0.0936  0.0354
 2978W        W45994  27.855  33.962  27.582 -0.0581 -0.2672 -0.0453
 2979W        W45995  29.356   6.556   2.565  0.0304  0.0836  0.0075
 2980W        W45996  16.112  14.608   4.677  0.2417 -0.2180 -0.2180
 2981W        W45997  29.617  18.816   1.898  0.1716  0.0312  0.2528
 2982W        W45998  21.507   1.535  28.786  0.2321 -0.2447 -0.0435
 2983W        W45999  16.346   2.670  27.661  0.1868  0.0563 -0.1900
 2984W        W46000  18.307   8.953   5.982 -0.3992 -0.0605  0.2998
 2985W        W46001  32.057  28.967  21.707 -0.1642 -0.2321  0.4338
 2986W        W46002   4.238  19.511  28.217 -0.0932  0.2263 -0.1765
 2987W        W46003  13.662   7.844  21.513 -0.1881 -0.2374 -0.1733
 2988W        W46004  21.432  11.938  20.882  0.1340  0.1107 -0.1758
 2989W        W46005  32.499  32.882  28.569  0.0432 -0.0521 -0.1772
 2990W        W46006  19.460  19.279   4.721  0.0437  0.0665  0.1859
 2991W        W46007  23.530   4.726   2.271  0.1686 -0.1520  0.0298
 2992W        W46008  18.470   4.656   6.821 -0.2185 -0.1450  0.1063
 2993W        W46009  25.852   3.500   0.817 -0.3782  0.0689  0.2994
 2994W        W46010  11.688   2.627   4.598  0.1396 -0.2041 -0.0642
 2995W        W46011  27.385  12.822  21.129 -0.0031  0.1381  0.3045
 2996W        W46012  30.612   1.433   4.883  0.3112 -0.0344  0.0474
 2997W        W46013  11.588  10.476   1.415  0.0023 -0.0649 -0.1274
 2998W        W46014  18.265  19.847  16.073 -0.5479  0.0075  0.1583
 2999W        W46015  27.283   0.242  24.014  0.0447 -0.0643  0.1265
 3000W        W46016  28.973  29.160  24.786 -0.2217  0.0478 -0.2321
 3001W        W46017  23.676  13.864  13.916  0.1162  0.2117  0.2393
 3002W        W46018  23.376   7.925   7.612  0.2571  0.0534 -0.2046
 3003W        W46019  19.278  16.453   2.664 -0.1479  0.0420 -0.0675
 3004W        W46020  25.844   9.457   9.939  0.0969 -0.4557  0.2344
 3005W        W46021  21.012  25.825  17.132  0.2887  0.0506 -0.0507
 3006W        W46022  13.044  14.026   1.023 -0.0720  0.0066  0.0874
 3007W        W46023  17.549  12.079  24.511  0.0333 -0.1965 -0.0511
 3008W        W46024   0.810  13.661  26.630  0.1116 -0.0911 -0.0986
 3009W        W46025  21.946  32.855  23.612 -0.0929 -0.0047 -0.1141
 3010W        W46026  15.227  22.096  28.878 -0.1232 -0.2654  0.1365
 3011W        W46027  17.609  13.402  20.564 -0.1928 -0.1210  0.3501
 3012W        W46028  22.927  16.484  26.086 -0.2500 -0.0935 -0.0041
 3013W        W46029  22.614  32.676  22.840 -0.0448  0.0650 -0.0476
 3014W        W46030  30.689  29.598   9.433  0.1142  0.3558 -0.0552
 3015W        W46031  19.041  16.503  13.330 -0.0484 -0.0008  0.1802
 3016W        W46032  22.446  14.928  18.249  0.0845 -0.2005  0.4372
 3017W        W46033  22.085   1.038  25.436  0.0242  0.0647 -0.3753
 3018W        W46034  23.715   6.781  15.016 -0.0390 -0.2505 -0.0051
 3019W        W46035  26.250  30.827  15.257 -0.0806  0.1859 -0.0323
 3020W        W46036  22.022  29.965   9.908  0.0014 -0.0224  0.3007
 3021W        W46037  26.408  11.729  22.795  0.0882  0.2734  0.1102
 3022W        W46038  10.031  18.091  25.621  0.0586 -0.1425 -0.0254
 3023W        W46039  22.875  24.316   1.782 -0.1165  0.0793 -0.0235
 3024W        W46040  17.051   6.188  15.940  0.0078 -0.0818  0.0237
 3025W        W46041  21.639   0.437   6.374  0.3788 -0.2922  0.0291
 3026W        W46042  20.923  33.810   4.474  0.1614 -0.0510  0.0630
 3027W        W46043  15.333   8.566  13.645 -0.0643  0.2295  0.1589
 3028W        W46044  13.949  10.473  20.454 -0.7127  0.0008 -0.0427
 3029W        W46045  27.527  22.661  27.242 -0.0077  0.1069 -0.0447
 3030W        W46046  18.460  22.649   3.854 -0.1086 -0.0240 -0.0906
 3031W        W46047  28.245  18.554   0.482 -0.0118 -0.0788 -0.0931
 3032W        W46048   9.233   2.218  18.028 -0.0761 -0.0347  0.1983
 3033W        W46049  29.590   0.000  19.913  0.1790 -0.3042  0.0596
 3034W        W46050  18.341  25.412  19.534  0.2954 -0.3636 -0.0002
 3035W        W46051  22.193  24.506  15.979 -0.0555 -0.1811 -0.1639
 3036W        W46052   8.243   5.015   4.723  0.0834  0.2233  0.2066
 3037W        W46053  13.990  26.987  15.139 -0.2446 -0.0898 -0.2269
 3038W        W46054   1.915  28.984   4.017  0.1014 -0.3527  0.2225
 3039W        W46055  20.426  11.563  12.814 -0.2850  0.0248  0.0278
 3040W        W46056  27.560  32.288  28.324 -0.3562 -0.3087 -0.3320
 3041W        W46057  15.264  22.415  22.088 -0.1600  0.1694 -0.0541
 3042W        W46058  11.692   6.362  16.009 -0.1024 -0.1210 -0.2402
 3043W        W46059  32.552   3.478   7.085  0.0640 -0.0979 -0.2590
 3044W        W46060  24.802   4.235   5.582  0.1726  0.3009 -0.1448
 3045W        W46061  22.019  21.460  19.158 -0.1666 -0.0398  0.0655
 3046W        W46062  21.918   7.494  25.039 -0.3460  0.2751 -0.2991
 3047W        W46063  11.831  12.646  26.371 -0.0989 -0.3859 -0.2268
 3048W        W46064  29.835  19.188   5.161  0.4878  0.1118  0.1725
 3049W        W46065  20.479   5.824  21.517  0.1230  0.1020 -0.0271
 3050W        W46066  34.503   5.619   2.793 -0.1741 -0.5281  0.3278
 3051W        W46067  25.613  19.869  25.085  0.0779  0.2499  0.1425
 3052W        W46068  32.817  10.958   8.118  0.3954 -0.0179 -0.0322
 3053W        W46069   0.235  13.242   2.372 -0.2732 -0.0452 -0.2119
 3054W        W46070  22.605  15.049  14.502 -0.0617  0.0229 -0.1188
 3055W        W46071  14.128  26.693   8.763 -0.0234 -0.0366 -0.2467
 3056W        W46072  32.197  33.102  23.689  0.0684  0.0818  0.1373
 3057W        W46073   0.475  17.833   4.836  0.1944  0.1420  0.1229
 3058W        W46074   5.226  29.478  21.120  0.2759  0.0955  0.0765
 3059W        W46075  20.952   8.484  25.084  0.0683 -0.3317 -0.0607
 3060W        W46076  34.282  13.416   8.494 -0.0306  0.2054  0.1847
 3061W        W46077  17.102  28.021  19.493 -0.1513  0.4798 -0.1088
 3062W        W46078   5.061  12.230  23.517  0.1613  0.1965  0.1340
 3063W        W46079  22.412  16.896   1.242  0.1530 -0.0661  0.0236
 3064W        W46080  24.946  21.388   1.932  0.1225  0.1906 -0.3095
 3065W        W46081  21.626  20.798  18.942  0.0919 -0.0136 -0.0945
 3066W        W46082   6.870   4.129  29.106  0.0027 -0.1128 -0.2724
 3067W        W46083  19.961  30.159   7.357 -0.0971 -0.0598  0.0497
 3068W        W46084   0.591   9.303  23.295 -0.0481 -0.0186  0.1608
 3069W        W46085   9.676  26.429  28.660 -0.1205  0.0194  0.3749
 3070W        W46086  16.064   5.727  15.769  0.0171  0.0614 -0.1089
 3071W        W46087  20.499  12.040   3.854  0.0441 -0.1866 -0.0814
 3072W        W46088  12.121  19.077  15.818 -0.0832  0.1709 -0.0204
 3073W        W46089   9.058   1.535  19.944 -0.0208  0.3775  0.0121
 3074W        W46090  22.701  14.265  28.632 -0.0191 -0.0723 -0.0520
 3075W        W46091  24.200  12.693   3.661  0.1289 -0.0320  0.1714
 3076W        W46092  21.157   7.067  28.245 -0.1580  0.0182 -0.0821
 3077W        W46093  10.221  33.741  20.713  0.1480 -0.0737  0.1113
 3078W        W46094  12.067  13.367  16.600  0.2062  0.1871 -0.0250
 3079W        W46095  23.031   4.170  21.823  0.1140  0.0609  0.1839
 3080W        W46096  20.313   0.518  14.613 -0.0359  0.3982  0.0053
 3081W        W46097  24.446   9.580   1.222  0.2928  0.4023  0.0999
 3082W        W46098  24.661  27.466  21.670 -0.0577 -0.0425 -0.1634
 3083W        W46099  29.385  19.257   3.518 -0.1754 -0.0582  0.0299
 3084W        W46100  31.493  33.828   6.299  0.1228 -0.3383 -0.1686
 3085W        W46101  15.754  23.759  20.032 -0.2488  0.2391  0.0876
 3086W        W46102  19.389  31.887  24.172  0.1342  0.3334 -0.1597
 3087W        W46103   0.191   7.783  21.898  0.3604  0.0460 -0.2090
 3088W        W46104   0.226  29.881  22.262 -0.3237 -0.2825  0.0660
 3089W        W46105  24.978  21.006  23.837 -0.0388 -0.0605  0.0494
 3090W        W46106   3.927  11.912  21.611 -0.2463  0.0151  0.1485
 3091W        W46107  32.104  23.984  16.145  0.3458 -0.3563  0.1424
 3092W        W46108  16.876  27.855   5.872  0.0631 -0.0526 -0.1070
 3093W        W46109  29.196  12.349  28.285  0.1473  0.1613 -0.2304
 3094W        W46110  26.353  11.738  21.848 -0.0359 -0.0392 -0.0006
 3095W        W46111  19.308  20.498  27.760  0.0035  0.0738  0.0925
 3096W        W46112  10.518  27.362  27.984  0.5125  0.2452 -0.2399
 3097W        W46113  25.603  13.202  27.161 -0.2677  0.1007  0.3060
 3098W        W46114  22.688  31.207   6.992  0.0867  0.0971 -0.3393
 3099W        W46115  16.853  20.804   2.091 -0.4089  0.1545  0.2483
 3100W        W46116  32.875  30.596   7.773 -0.0881 -0.0428 -0.1243
 3101W        W46117  18.339   6.980  28.767  0.3670 -0.0240 -0.4380
 3102W        W46118  26.449  16.958   6.919  0.2033 -0.4528  0.0147
 3103W        W46119  18.335   7.306  25.040 -0.0771 -0.0132 -0.1922
 3104W        W46120   4.636  30.572  23.954 -0.0741 -0.2159 -0.0229
 3105W        W46121  27.891   8.913  20.683  0.0887  0.1709 -0.2015
 3106W        W46122  16.032   5.648   1.903  0.1564 -0.1828 -0.0238
 3107W        W46123  27.033   9.949  28.344  0.3096 -0.0114  0.0695
 3108W        W46124  26.436  29.200  16.914  0.0576 -0.0400 -0.2684
 3109W        W46125  23.172   1.291  27.836 -0.0451 -0.2612  0.1238
 3110W        W46126  34.033  13.575  28.997  0.0970 -0.1455  0.1154
 3111W        W46127  31.311  12.084  27.377 -0.0576 -0.1595  0.4084
 3112W        W46128  29.612   5.219  25.551  0.3803  0.0634  0.1768
 3113W        W46129  25.096   9.920  25.862 -0.0645  0.1703  0.1518
 3114W        W46130   9.256   9.387  15.024  0.2543  0.0986 -0.0859
 3115W        W46131  15.929  10.007   4.160 -0.2081  0.2590 -0.1121
 3116W        W46132  24.139  11.471  27.793 -0.3560 -0.2117  0.1750
 3117W        W46133  26.055   6.644   5.619  0.3119  0.2190 -0.0333
 3118W        W46134  29.246  12.784   3.983  0.2694 -0.3958  0.2199
 3119W        W46135  34.693   9.289   7.748 -0.2773 -0.1002  0.1400
 3120W        W46136  34.468  10.089  24.598  0.0454 -0.0718  0.1339
 3121W        W46137  31.736  25.089   9.353  0.3954  0.1140  0.0860
 3122W        W46138  12.144  13.379  18.226  0.0381 -0.2060  0.1156
 3123W        W46139  16.053  12.707  23.630 -0.0178  0.3095 -0.0580
 3124W        W46140  32.440  28.356  25.305 -0.2132 -0.2761  0.0711
 3125W        W46141  27.903   7.417  10.861  0.0052 -0.1754  0.1040
 3126W        W46142   8.993  10.856   7.218  0.3619  0.1117  0.3213
 3127W        W46143  31.851   7.081  21.326 -0.0191  0.0167  0.0288
 3128W        W46144  16.403   9.317   2.398  0.1335 -0.1333  0.0883
 3129W        W46145  27.991  30.841   4.885 -0.2593 -0.1099  0.1135
 3130W        W46146   9.143  25.725   7.627 -0.2993 -0.0588 -0.0722
 3131W        W46147  17.750  32.342  28.144  0.0706  0.0087 -0.1565
 3132W        W46148  18.428   4.457  28.148 -0.1684  0.1355 -0.1153
 3133W        W46149  31.036   3.193  19.416 -0.0952 -0.0065 -0.1740
 3134W        W46150  24.454  22.467  21.317  0.0097 -0.0161 -0.2450
 3135W        W46151  17.906  14.570  22.312  0.3381 -0.2400 -0.0974
 3136W        W46152   7.953   7.644  25.696 -0.2274  0.0712  0.1057
 3137W        W46153  10.267  16.016  22.838  0.0650  0.1580  0.1329
 3138W        W46154  10.352  29.648  28.449 -0.0600  0.3234 -0.1094
 3139W        W46155   7.245  24.653   4.605  0.0753  0.3930  0.1118
 3140W        W46156  17.090  12.396  23.604  0.4537 -0.1103  0.2714
 3141W        W46157  15.236   4.947  25.281  0.2515 -0.0050 -0.0059
 3142W        W46158  18.145  24.722   1.964  0.0325 -0.2505 -0.0823
 3143W        W46159   1.283   4.741  18.742  0.1304 -0.1101 -0.0572
 3144W        W46160  24.539   0.880  15.960  0.2432 -0.0558 -0.0576
 3145W        W46161   0.398   5.828  16.793 -0.3369  0.4013  0.0973
 3146W        W46162   3.403   6.322  20.937  0.1065  0.1635 -0.0725
 3147W        W46163  17.568  10.926  28.723 -0.1836  0.2036  0.0402
 3148W        W46164  27.517  15.819   7.105 -0.0198 -0.1577 -0.3440
 3149W        W46165  29.961   4.141  18.838  0.0716  0.4445  0.2334
 3150W        W46166  21.457   1.878  19.663 -0.0880 -0.1534  0.0788
 3151W        W46167  17.852  24.050  14.734 -0.1485  0.3785 -0.2652
 3152W        W46168  21.790  14.872   7.994  0.0591  0.0139  0.3010
 3153W        W46169  19.135  13.993  19.657 -0.3394  0.2601  0.0248
 3154W        W46170   0.897   0.693  18.493  0.1989 -0.1701  0.0177
 3155W        W46171  17.186  15.795   6.192 -0.0046 -0.0848  0.2884
 3156W        W46172  24.017   1.476   4.752 -0.1197  0.2130 -0.2483
 3157W        W46173  18.870  17.747   5.789 -0.3561  0.0141  0.1890
 3158W        W46174  11.343  25.867  23.851  0.2506  0.0742 -0.3765
 3159W        W46175  27.779  34.010  18.454 -0.1702 -0.0820 -0.0331
 3160W        W46176   5.377   5.910  19.918  0.1006 -0.0518  0.1706
 3161W        W46177  27.403  20.101   0.700  0.1367 -0.1599  0.0832
 3162W        W46178  26.861   3.073  20.973  0.1085  0.1356 -0.0491
 3163W        W46179  18.229  13.276   0.313  0.2538  0.1194  0.2550
 3164W        W46180  30.741  31.036   9.592  0.0696 -0.1387  0.4076
 3165W        W46181   8.435   0.604  26.895 -0.2054 -0.1739 -0.0768
 3166W        W46182  15.564   7.501  14.782  0.2630  0.2606  0.0230
 3167W        W46183  21.736   0.119  24.221 -0.2559 -0.3240 -0.0007
 3168W        W46184   9.465  11.797  17.143  0.2278  0.1952 -0.4450
 3169W        W46185  11.196  12.079  17.978 -0.4124  0.0906 -0.1986
 3170W        W46186  21.078  14.079  20.014 -0.2180  0.1662 -0.0018
 3171W        W46187  20.849  12.920   2.073 -0.2656 -0.1537 -0.1517
 3172W        W46188  15.807  11.929   4.712 -0.1536 -0.0296 -0.0167
 3173W        W46189  28.358  13.287   3.068 -0.0391  0.1903 -0.3990
 3174W        W46190   1.779  22.910  22.981  0.2992 -0.1641 -0.0893
 3175W        W46191  16.023   0.574  16.453  0.3705  0.0263  0.4305
 3176W        W46192  11.272   9.272  19.854 -0.2023  0.1744 -0.2761
 3177W        W46193  24.633  34.657  22.485 -0.2156  0.1981  0.2190
 3178W        W46194  33.917   1.503  27.100 -0.0180 -0.2576  0.4315
 3179W        W46195  13.269  25.470   0.726 -0.0176 -0.0119  0.1956
 3180W        W46196  32.156   5.421   4.974  0.2650 -0.0926 -0.4475
 3181W        W46197  22.023  30.151   6.167 -0.0194  0.1130  0.0076
 3182W        W46198  24.258   4.972   0.662  0.0469  0.0368 -0.0519
 3183W        W46199  21.784   4.110   6.122  0.1621 -0.0303  0.2942
 3184W        W46200  21.933  32.515  28.413 -0.1973 -0.1051  0.1488
 3185W        W46201  20.302  12.378   4.229  0.4275  0.1244 -0.1726
 3186W        W46202   8.566  15.581  21.324 -0.2125  0.0172 -0.0603
 3187W        W46203  15.312  33.808  28.884 -0.1772 -0.0657 -0.0762
 3188W        W46204   0.343   3.754  22.065  0.0547 -0.0057  0.2439
 3189W        W46205  19.858  12.398  24.576 -0.0392  0.0253 -0.1833
 3190W        W46206  30.711   7.364  24.595  0.1357 -0.0651  0.0917
 3191W        W46207   2.117   8.793   6.819  0.3502  0.1185  0.1793
 3192W        W46208   9.692   4.575  10.464 -0.2455  0.3097 -0.3076
 3193W        W46209  22.219   2.197   8.091  0.3228  0.1307  0.0436
 3194W        W46210  27.152  30.844  11.216  0.0973  0.0437  0.3106
 3195W        W46211  23.590   7.843  13.704  0.1330  0.0531  0.0650
 3196W        W46212  27.754   5.610   1.391 -0.3704 -0.2021  0.2747
 3197W        W46213  21.023   4.082   4.102  0.1027  0.2522  0.4046
 3198W        W46214  23.439   6.752   0.920 -0.1140 -0.3877 -0.4148
 3199W        W46215  13.220   2.715   4.129  0.1153  0.0060 -0.2283
 3200W        W46216  15.122   4.590   2.288  0.3287 -0.1333 -0.4595
 3201W        W46217  25.483  27.543   8.954  0.0058 -0.3340  0.1401
 3202W        W46218  22.837   5.444  26.646  0.1576 -0.1969  0.0998
 3203W        W46219   0.019   0.236   0.404  0.1653 -0.2769  0.0537
 3204W        W46220  30.505  32.493  24.433 -0.0438 -0.0450  0.0642
 3205W        W46221   1.855  14.323  26.559  0.0476  0.2436  0.1082
 3206W        W46222   6.302  24.258  27.281 -0.1850 -0.1354 -0.4564
 3207W        W46223  28.910   3.065   1.742  0.0584 -0.2119  0.1051
 3208W        W46224  13.024   6.179  19.771  0.2607  0.0173  0.0135
 3209W        W46225   8.475  11.802   2.535  0.0915 -0.1646  0.0028
 3210W        W46226  31.910  10.354  28.051  0.1212 -0.1131 -0.0880
 3211W        W46227  29.799   9.801  25.887  0.1162  0.0317 -0.3439
 3212W        W46228  13.226  23.826  26.377  0.0913 -0.2002  0.0632
 3213W        W46229  18.253   5.224   1.996  0.1369 -0.1394 -0.0931
 3214W        W46230  24.184   7.381  23.735 -0.0846 -0.1305 -0.1865
 3215W        W46231  19.719   9.783  26.370  0.0960  0.0628  0.0108
 3216W        W46232  18.058  32.398   3.103 -0.0195 -0.0134 -0.0095
 3217W        W46233  27.904  12.278   0.135  0.1096 -0.0610  0.0617
 3218W        W46234  27.357  32.536  10.715 -0.3825  0.3846  0.1716
 3219W        W46235  30.726   0.068  22.277  0.2303  0.1230 -0.2340
 3220W        W46236   9.978  12.341   1.194  0.0112  0.1473 -0.5380
 3221W        W46237  21.410   8.171   5.375 -0.0861 -0.3408  0.0000
 3222W        W46238  14.630   3.690  25.264 -0.0069 -0.2024 -0.1886
 3223W        W46239  11.577   5.097  26.787  0.3323 -0.0536 -0.3683
 3224W        W46240  30.345   4.216  17.884 -0.1838 -0.0920 -0.1137
 3225W        W46241  20.051   5.076   0.550 -0.2373  0.1828  0.1757
 3226W        W46242  27.691  10.806   0.978  0.2863 -0.0339  0.1484
 3227W        W46243  20.773  22.619  24.992 -0.0717 -0.0136  0.1108
 3228W        W46244  20.561  10.366  23.419  0.3272 -0.1172 -0.0812
 3229W        W46245  26.328   9.976   3.035 -0.1517 -0.2036 -0.0020
 3230W        W46246  20.797  13.166  13.192 -0.3392  0.0162 -0.3048
 3231W        W46247  25.061  11.056   1.750 -0.1922  0.0891 -0.3807
 3232W        W46248  13.722  34.602  27.495  0.0128 -0.1159  0.1351
 3233W        W46249  30.303   3.285  20.108  0.0883 -0.8000  0.2039
 3234W        W46250  28.236  16.793  21.180 -0.0535  0.3839  0.0382
 3235W        W46251  30.883   5.254   7.433 -0.0589 -0.1683  0.0305
 3236W        W46252  18.711   6.074  25.046 -0.0002 -0.1711 -0.0637
 3237W        W46253  12.379   5.010  27.223 -0.2557  0.0637 -0.1378
 3238W        W46254  22.115   6.526  16.664 -0.0331  0.3119  0.0400
 3239W        W46255  26.879  14.742   1.847 -0.0916 -0.0400 -0.1159
 3240W        W46256  25.779  15.634  24.784 -0.1992 -0.3846  0.1957
 3241W        W46257  12.053   2.555  27.930  0.0875  0.2518  0.2671
 3242W        W46258   7.173  12.848  18.264 -0.0257  0.3911  0.0864
 3243W        W46259  24.846   9.542   7.677 -0.2542 -0.2239 -0.2846
 3244W        W46260  19.995   8.329   3.504 -0.3192  0.0667 -0.5329
 3245W        W46261  33.303   9.949   7.897  0.0070  0.0180 -0.2954
 3246W        W46262  19.936   4.841   2.136 -0.0281 -0.1480 -0.0825
 3247W        W46263   0.526  14.979   0.855 -0.0078  0.0442 -0.0504
 3248W        W46264  16.615  13.555  24.148 -0.0694  0.3504 -0.1152
 3249W        W46265  33.005  12.051  22.360 -0.0864 -0.2838  0.2919
 3250W        W46266  26.795   1.909  21.389 -0.3003 -0.3121 -0.1174
 3251W        W46267  20.035  20.523   8.559 -0.0025 -0.5432 -0.1499
 3252W        W46268  29.821   4.346   7.947  0.0419 -0.3021  0.1480
 3253W        W46269  20.774  15.935  20.950  0.1237  0.1131 -0.2522
 3254W        W46270  23.150   5.768   1.968 -0.1317 -0.1930 -0.0127
 3255W        W46271  16.610  21.734   6.144  0.2314 -0.1108  0.0518
 3256W        W46272   0.017  30.259   8.927 -0.2943 -0.1211 -0.0692
 3257W        W46273  15.362  18.917   3.989  0.3778 -0.0743  0.2059
 3258W        W46274  29.434  24.180   1.723 -0.0636  0.1700 -0.0082
 3259W        W46275  28.458  16.191  24.969  0.1104  0.0483 -0.0570
 3260W        W46276  23.929  25.548   6.624 -0.1846 -0.2667  0.1304
 3261W        W46277  12.535   3.594  23.744 -0.1323  0.1372  0.0968
 3262W        W46278  15.513  10.256  19.997  0.2026 -0.0625 -0.0091
 3263W        W46279  29.801   1.574  28.181  0.1435  0.0063 -0.0522
 3264W        W46280   4.974   8.572  25.195  0.2846  0.0407  0.0801
 3265W        W46281   1.790   3.175   9.534  0.1214  0.3022  0.2489
 3266W        W46282  17.681  11.954  22.356 -0.0538 -0.2906 -0.1220
 3267W        W46283  23.127   4.631  22.097 -0.0849  0.1858 -0.1208
 3268W        W46284   4.962  33.170  26.764  0.1288  0.1610  0.1997
 3269W        W46285  31.550   5.170   2.381  0.3294 -0.2070 -0.3310
 3270W        W46286  18.558   6.067  21.133 -0.1893  0.2144 -0.1260
 3271W        W46287  16.717  12.622  29.197 -0.2133  0.0227  0.1514
 3272W        W46288  22.023  12.361   9.374 -0.0988  0.0902  0.4055
 3273W        W46289  20.239  17.982  26.388  0.1743 -0.2021  0.0236
 3274W        W46290  22.231   0.355   3.367  0.0430 -0.4005 -0.0016
 3275W        W46291  17.168  29.629   0.415  0.1178  0.2547  0.3052
 3276W        W46292   2.519  23.746   3.328  0.1007 -0.1230 -0.0479
 3277W        W46293  26.104  12.125  28.901  0.0065  0.4091  0.0176
 3278W        W46294  18.645  32.736  22.908 -0.1140 -0.2359 -0.2892
 3279W        W46295  33.428   9.319   0.742 -0.3355 -0.1831  0.0089
 3280W        W46296  19.963  10.923  21.744 -0.2543  0.0542  0.3289
 3281W        W46297  32.153  11.688  28.817 -0.0997 -0.1323 -0.1029
 3282W        W46298  24.950   7.895   3.999 -0.0864 -0.2715  0.3977
 3283W        W46299  25.472  11.214  20.877 -0.2048 -0.0093  0.3962
 3284W        W46300   1.442  24.941  27.075  0.1853  0.2848  0.0663
 3285W        W46301   2.558  17.475  24.682  0.0675  0.2044  0.0898
 3286W        W46302  14.430   8.012  29.035 -0.1953 -0.0290 -0.0183
 3287W        W46303  30.403   9.906  21.537  0.1590  0.3746  0.1476
 3288W        W46304   0.988  12.750  18.198  0.1347  0.2187 -0.3340
 3289W        W46305   3.794  32.638   4.432  0.2810  0.0746 -0.1876
 3290W        W46306  28.597   2.340   5.266  0.1178 -0.4140 -0.4504
 3291W        W46307  31.964   0.483   4.853  0.1473 -0.3071  0.1604
 3292W        W46308  16.536  21.707   1.073 -0.1945  0.0634  0.2038
 3293W        W46309  14.135   1.794   9.225  0.3144  0.1784  0.2244
 3294W        W46310  19.940  10.878  27.777  0.0157  0.5424  0.1084
 3295W        W46311  27.508  19.346   3.404  0.0016 -0.0204  0.0820
 3296W        W46312  26.728  28.691  11.249 -0.3438  0.0621  0.0914
 3297W        W46313   5.763   0.775  19.302 -0.3702  0.2063  0.3609
 3298W        W46314  21.770  23.657   4.884 -0.1633 -0.2011 -0.2133
 3299W        W46315  12.243   5.340  21.527 -0.0987  0.1301 -0.0719
 3300W        W46316  22.895  23.924   6.265  0.0923 -0.2560  0.1152
 3301W        W46317  22.374   7.613   9.208 -0.1420 -0.2371  0.0312
 3302W        W46318  29.109  24.954  20.667 -0.1668 -0.0902 -0.2429
 3303W        W46319  18.472  29.870  23.453  0.1605 -0.0481  0.2210
 3304W        W46320   6.783   2.828   6.689  0.1647 -0.1997 -0.2299
 3305W        W46321  10.245  13.621  21.941  0.0252 -0.1200  0.1071
 3306W        W46322  28.278   2.761   5.138  0.3777  0.3603 -0.1699
 3307W        W46323  34.267  20.370  29.147 -0.2337  0.1873  0.2781
 3308W        W46324  24.721   0.820   8.636  0.4649  0.3643  0.0485
 3309W        W46325  31.380   7.144   8.168 -0.2822 -0.0479 -0.0436
 3310W        W46326  31.955  10.966  16.470  0.2095  0.4094  0.1879
 3311W        W46327   3.545  11.379   0.634  0.0467 -0.2993 -0.3491
 3312W        W46328  16.514   0.377  22.183  0.2368 -0.0723 -0.3620
 3313W        W46329  19.191   6.779  17.391  0.2796  0.3889  0.0167
 3314W        W46330   2.414  14.105  15.864  0.0113  0.1799  0.1042
 3315W        W46331   9.783   8.954   2.506  0.0151  0.0451 -0.0432
 3316W        W46332  26.904   2.543  22.517 -0.0588 -0.0779  0.2022
 3317W        W46333  24.513   1.352  10.737  0.0510 -0.0950  0.1027
 3318W        W46334  25.637   4.227  21.752 -0.0332  0.2297 -0.2839
 3319W        W46335  25.799  33.188  27.104 -0.1734 -0.2613 -0.1252
 3320W        W46336  31.782   8.653  10.791  0.1112 -0.0973 -0.2964
 3321W        W46337  20.653  23.247  24.152  0.2469  0.1607  0.1622
 3322W        W46338  14.532  34.090   6.988  0.1332  0.2132 -0.2336
 3323W        W46339  10.269  10.517   4.137 -0.1344  0.0995 -0.1860
 3324W        W46340  20.092   5.331  20.034 -0.2769  0.1521 -0.1182
 3325W        W46341  16.629  33.204   3.141  0.0268 -0.2210 -0.0909
 3326W        W46342  19.944   9.825   0.808 -0.2502  0.0872  0.2743
 3327W        W46343  13.331  23.229   8.877 -0.2275  0.0475 -0.1794
 3328W        W46344  14.820  31.815   0.290  0.1404  0.1332 -0.2763
 3329W        W46345  12.680  31.069  18.614  0.1610  0.1512  0.0625
 3330W        W46346   6.831  15.149   6.783 -0.2180 -0.2160  0.1329
 3331W        W46347  28.409  16.654  26.594 -0.4028 -0.0014  0.0796
 3332W        W46348  22.728  32.556  11.065 -0.2552  0.3137  0.2020
 3333W        W46349  26.547   6.789  29.247 -0.2007  0.1648 -0.0400
 3334W        W46350   6.362  15.710  22.517  0.1334 -0.1988 -0.0902
 3335W        W46351  18.615   9.903  24.651  0.0806 -0.0674  0.1251
 3336W        W46352  21.964  10.495  27.006  0.1734  0.0839 -0.3363
 3337W        W46353  29.289  13.408  20.168  0.0783 -0.0540 -0.0545
 3338W        W46354   4.567  15.583   9.362  0.4070  0.0734 -0.1905
 3339W        W46355   4.143  31.867   0.712  0.3910 -0.3133 -0.0071
 3340W        W46356   1.575   7.501  16.853 -0.4948  0.0171  0.2716
 3341W        W46357  18.037   2.012  17.502 -0.2767 -0.1782  0.2126
 3342W        W46358  24.359  31.105   0.154  0.0954  0.1349  0.0863
 3343W        W46359  18.191   0.849  25.404 -0.1448  0.2230  0.0129
 3344W        W46360  11.137   8.292  13.886  0.1642  0.0912  0.1292
 3345W        W46361  27.569  14.834  24.762  0.2125 -0.0193  0.0919
 3346W        W46362   1.869   0.086   0.405  0.0540 -0.2728 -0.0518
 3347W        W46363  27.619  30.827  26.924  0.1638  0.1594  0.1240
 3348W        W46364  24.111  11.620  17.529  0.3067 -0.1030 -0.3507
 3349W        W46365   9.743   7.351   5.103 -0.2727 -0.1389  0.1823
 3350W        W46366  14.127  14.222  23.521  0.0920 -0.0834 -0.0459
 3351W        W46367  23.597  11.850  29.143  0.0806 -0.0383  0.0565
 3352W        W46368  26.154  14.313   4.757  0.0364  0.2564 -0.2693
 3353W        W46369  15.932  26.645   8.356  0.0227 -0.0518  0.0254
 3354W        W46370  26.293  21.451  25.879  0.2740 -0.2424 -0.1238
 3355W        W46371  28.237  34.438   2.304  0.0400 -0.1701  0.2289
 3356W        W46372  23.075  19.898  20.627 -0.0464 -0.2531  0.1059
 3357W        W46373  31.163   5.487   2.552  0.1213  0.1780 -0.0935
 3358W        W46374  21.269  23.771  28.772  0.2795  0.0835 -0.0873
 3359W        W46375  19.507  25.511   7.611 -0.1818  0.2867  0.2404
 3360W        W46376   0.717   0.765   7.415  0.1893 -0.2043 -0.1385
 3361W        W46377  23.482   9.356  27.376 -0.1363  0.0481  0.0011
 3362W        W46378  27.953  30.035   0.067 -0.1439 -0.0516 -0.1197
 3363W        W46379  21.552  10.337  19.385  0.0871  0.1009 -0.2205
 3364W        W46380  31.110   9.405   4.236  0.2119 -0.1378 -0.2724
 3365W        W46381  27.616  32.839   7.241 -0.1679 -0.0964 -0.1594
 3366W        W46382  26.888   5.670   5.982 -0.2199  0.3457 -0.1015
 3367W        W46383   5.687  11.634  29.107 -0.1512 -0.1846  0.4190
 3368W        W46384  24.361  10.028  22.162  0.5352  0.1728 -0.0438
 3369W        W46385  30.234   0.432  27.730  0.2407 -0.0949 -0.0668
 3370W        W46386  16.373  12.686  24.815 -0.2098  0.0056 -0.0356
 3371W        W46387  16.082   5.390   5.155 -0.1907  0.1417 -0.1936
 3372W        W46388  21.167  13.795  25.819 -0.1480  0.3550  0.2145
 3373W        W46389  13.486   1.586  17.505  0.2212 -0.0870 -0.2918
 3374W        W46390  22.686  34.374   3.729 -0.1055 -0.0334  0.1645
 3375W        W46391  28.408  30.379   8.793  0.0879 -0.3921  0.1857
 3376W        W46392  13.208  11.986  25.843  0.1201 -0.0412  0.2189
 3377W        W46393   9.322  17.608  28.740 -0.1921  0.0360  0.3290
 3378W        W46394  29.431   6.277  23.511 -0.2541 -0.0443 -0.1861
 3379W        W46395   9.159   1.822  19.433  0.0362 -0.0291 -0.1560
 3380W        W46396  22.182   9.120   3.007  0.1190  0.1163 -0.1889
 3381W        W46397  11.240  12.088   6.542  0.3118 -0.1802 -0.0435
 3382W        W46398  34.372   5.136   4.304  0.1315 -0.0352  0.3519
 3383W        W46399  23.334   4.238   3.918 -0.0697  0.0949  0.2018
 3384W        W46400  22.497  32.028  23.031  0.3240  0.1607 -0.1092
 3385W        W46401  18.570  14.931   0.649  0.2025 -0.1481 -0.2131
 3386W        W46402  10.560   5.372  18.835 -0.0861  0.3450 -0.4248
 3387W        W46403  12.123   9.730   6.464  0.0011  0.1288  0.0901
 3388W        W46404  30.657   6.472   1.739  0.0083 -0.2562 -0.1735
 3389W        W46405  20.540  32.254   4.157  0.0874  0.0214 -0.1873
 3390W        W46406  23.501   2.905   1.506 -0.1206 -0.3143  0.0568
 3391W        W46407  24.162  12.912  26.727  0.0883  0.1000 -0.2346
 3392W        W46408  21.538   4.840   3.378  0.1026  0.2091  0.0778
 3393W        W46409  24.242   9.964  10.744  0.0098 -0.1136  0.0193
 3394W        W46410  22.373  16.112   0.088  0.0918  0.1444 -0.1510
 3395W        W46411  25.132  22.499   8.378 -0.1084 -0.0070  0.0018
 3396W        W46412  11.036   5.489  25.822  0.0669 -0.0121  0.0376
 3397W        W46413   4.315  32.297  28.035 -0.0867  0.0823 -0.0668
 3398W        W46414  25.025   1.884  21.420  0.0092  0.2292 -0.1663
 3399W        W46415  10.221   5.508   3.302  0.1531 -0.2824  0.0155
 3400W        W46416  18.523  22.219   4.625  0.0440  0.1482 -0.2017
 3401W        W46417  22.082  31.898   4.982 -0.2734  0.3303  0.1178
 3402W        W46418  13.340  17.894   1.828  0.0241 -0.0597  0.1368
 3403W        W46419  33.267  29.866   1.640  0.0472  0.0788  0.1178
 3404W        W46420  20.673  10.798  23.782 -0.0018  0.0378  0.0067
 3405W        W46421  30.070  26.937   5.443  0.1941  0.3038 -0.2532
 3406W        W46422   3.574   4.938  24.945  0.3145 -0.1878  0.0463
 3407W        W46423  14.489   8.834  22.837  0.1168  0.0396 -0.2625
 3408W        W46424  34.662   3.369  26.922 -0.1230 -0.4235 -0.3879
 3409W        W46425  11.500   3.809  24.562 -0.1077 -0.1632  0.0762
 3410W        W46426  31.556  31.884  19.969  0.1336  0.0905  0.0086
 3411W        W46427   3.420  10.079  23.118 -0.4066  0.3830 -0.1601
 3412W        W46428  18.991  10.172  23.795 -0.0635  0.0767 -0.3258
 3413W        W46429   7.822  29.993   4.430 -0.0139  0.1630  0.0187
 3414W        W46430  28.250  18.819   8.476  0.1824 -0.3152  0.1201
 3415W        W46431   3.019   6.992  21.439  0.3472 -0.3193 -0.1908
 3416W        W46432  32.514   3.115  20.535  0.1432 -0.0354  0.1799
 3417W        W46433  21.900   9.907  27.643  0.1171 -0.0673  0.0996
 3418W        W46434  17.044  20.111   5.513  0.0723  0.0091  0.1630
 3419W        W46435   5.251   2.109  28.345 -0.1923  0.0324  0.1980
 3420W        W46436  19.249   8.685  25.422 -0.0864 -0.1232 -0.1122
 3421W        W46437  19.821  22.856  21.798 -0.5314  0.3599 -0.2513
 3422W        W46438  17.222  12.674   1.963  0.0315  0.4111 -0.0536
 3423W        W46439  21.375  15.398  28.341 -0.1688 -0.1832  0.2056
 3424W        W46440  31.672   1.944  18.192  0.0032 -0.0443 -0.4752
 3425W        W46441   8.937  34.117  26.079  0.0766 -0.1521 -0.1086
 3426W        W46442  17.478   7.670  21.951  0.1390  0.1702  0.3407
 3427W        W46443  21.658  31.139   0.750  0.0930  0.2617 -0.1540
 3428W        W46444  12.498  10.834   0.535  0.2459  0.0962 -0.3144
 3429W        W46445  16.241   4.379   6.148 -0.1186  0.0052  0.0385
 3430W        W46446  16.217   2.520  15.599 -0.1104  0.0224 -0.2567
 3431W        W46447   3.752  11.500  18.920  0.3019  0.1366  0.3511
 3432W        W46448   7.120  31.947  18.380 -0.3365  0.2113 -0.1445
 3433W        W46449  32.232  10.660  20.607  0.5682  0.2004 -0.0855
 3434W        W46450  22.863  23.108  18.196 -0.0921 -0.0551 -0.0866
 3435W        W46451  22.500  16.958  27.377 -0.2348 -0.0463  0.1250
 3436W        W46452  30.558  17.794  17.503 -0.1798  0.0824 -0.1370
 3437W        W46453  24.330   9.428  26.362  0.0123  0.0872 -0.1537
 3438W        W46454   1.358  19.830  25.661  0.3317 -0.0160  0.1130
 3439W        W46455   5.424  32.282  17.798  0.0385 -0.2856  0.4197
 3440W        W46456  19.087  25.573  18.956  0.0825 -0.2692  0.0529
 3441W        W46457   5.225  11.332   1.981  0.0191 -0.3041 -0.0538
 3442W        W46458   4.221   5.683   1.870  0.0674 -0.2031 -0.3123
 3443W        W46459  25.122  12.028  24.344 -0.3403  0.0815  0.2491
 3444W        W46460  22.808   2.747  19.380 -0.3761 -0.1309  0.2034
 3445W        W46461  18.566  26.396  28.183  0.3715  0.2964 -0.0690
 3446W        W46462  14.992  11.153  18.932  0.2326 -0.0732  0.0862
 3447W        W46463  13.248  14.796  20.591 -0.0607  0.3401  0.1705
 3448W        W46464  17.123  34.060  23.305 -0.0935  0.1171  0.1366
 3449W        W46465  20.208   9.470  18.466 -0.0660  0.0591 -0.2146
 3450W        W46466  21.331  17.498  13.312  0.1943  0.3200  0.0842
 3451W        W46467  14.091   4.284  24.721  0.0120  0.2317  0.0288
 3452W        W46468  10.342   8.819  28.231 -0.1807  0.2210  0.3590
 3453W        W46469  23.305  32.326  21.418 -0.0381  0.1858  0.3996
 3454W        W46470  22.618  18.751  20.965 -0.0228 -0.3540  0.0576
 3455W        W46471  10.772  15.844  14.493 -0.0799 -0.2196 -0.2798
 3456W        W46472  26.495   0.456  19.852 -0.1657 -0.1446  0.0555
 3457W        W46473  22.479   6.421  14.470 -0.2398  0.0227 -0.0024
 3458W        W46474  21.146  18.527  12.620 -0.2376 -0.3832 -0.1333
 3459W        W46475  20.925  10.114   1.077 -0.0256  0.2267 -0.1943
 3460W        W46476   3.964   3.543  21.588  0.0390 -0.1287  0.0388
 3461W        W46477   0.754  10.717  24.060 -0.0467  0.1358  0.1646
 3462W        W46478  28.795   1.384  26.274  0.1977  0.1746 -0.3080
 3463W        W46479  30.496  23.913  17.616 -0.1817  0.1144  0.2146
 3464W        W46480  28.404   9.117  16.334 -0.0332  0.0377  0.0100
 3465W        W46481  18.828  28.281  25.332 -0.0753 -0.0276 -0.1631
 3466W        W46482   4.859  14.708  16.281  0.1820 -0.0531 -0.0048
 3467W        W46483  25.472  12.761  20.238  0.0289  0.0823  0.1616
 3468W        W46484   8.560   9.454  15.655 -0.0807  0.2455  0.1125
 3469W        W46485   7.210  17.267  27.725 -0.0167  0.0115 -0.0444
 3470W        W46486  11.667   4.913  24.069  0.1387  0.0581  0.1682
 3471W        W46487  23.671  29.036  28.780 -0.2048 -0.1631  0.0243
 3472W        W46488  24.461  11.357  16.797 -0.3108 -0.0396 -0.1994
 3473W        W46489  22.373  27.402  14.231  0.0431 -0.1560 -0.1202
 3474W        W46490   5.463  14.574   9.298  0.1576  0.0021 -0.1702
 3475W        W46491  22.619   0.610  17.577  0.1796 -0.0798  0.0213
 3476W        W46492  23.585  12.431  15.315 -0.0027  0.0660  0.1628
 3477W        W46493  28.711   1.966  17.210  0.2417 -0.0421 -0.0550
 3478W        W46494   2.983  23.681  20.033  0.2244 -0.0546  0.3443
 3479W        W46495  17.546  23.380  13.802 -0.3821  0.0539  0.3319
 3480W        W46496  29.035  30.576  16.179 -0.0195  0.0743  0.2826
 3481W        W46497  24.527   3.282  20.064  0.0103 -0.0918 -0.0105
 3482W        W46498  11.251   7.161  20.020  0.2243  0.1549 -0.1664
 3483W        W46499  16.600   7.512  28.004  0.3386  0.1593  0.1456
 3484W        W46500  23.957  15.667  15.739 -0.1150 -0.3551  0.0326
 3485W        W46501  11.771  22.658  20.196  0.4536 -0.0310 -0.1909
 3486W        W46502  26.272  14.342  17.312  0.0871 -0.0635  0.0056
 3487W        W46503  33.916  14.865  22.570 -0.1219  0.0683 -0.0219
 3488W        W46504  24.041  17.654  19.075 -0.1121  0.0928 -0.3250
 3489W        W46505  23.847  14.377  17.611  0.1238  0.1352 -0.0234
 3490W        W46506   2.523   7.691  22.366 -0.3393 -0.1264 -0.0002
 3491W        W46507  17.049   8.520  17.892  0.1360 -0.0675  0.1067
 3492W        W46508  15.838  22.877  15.722  0.0201  0.4235 -0.1264
 3493W        W46509  31.463   1.342  27.660  0.0368 -0.0837 -0.0738
 3494W        W46510  13.820   7.428  18.499 -0.1793 -0.1328  0.1577
 3495W        W46511  14.406  15.436  14.275 -0.0883 -0.0644 -0.2154
 3496W        W46512  19.454  23.833  15.241  0.2193 -0.2669  0.0434
 3497W        W46513  31.804  23.484  20.877  0.0368 -0.2876  0.2622
 3498W        W46514  15.043  20.653  15.736  0.0568  0.0432  0.0960
 3499W        W46515  11.272  17.280  12.187 -0.1250 -0.3077  0.0926
 3500W        W46516  24.056   6.013  22.288  0.2810 -0.0994 -0.1509
 3501W        W46517  22.052   5.722   1.558  0.1919 -0.3975  0.1454
 3502W        W46518  34.633  23.833  27.574 -0.0915  0.3165  0.1557
 3503W        W46519  31.324   9.377  16.350 -0.0682  0.0851 -0.0502
 3504W        W46520  20.584   2.589  24.052 -0.0112 -0.0739  0.0121
 3505W        W46521  24.892   9.750  15.821 -0.0842 -0.1815 -0.2655
 3506W        W46522  14.283  26.752  18.876  0.0568  0.1734  0.2280
 3507W        W46523   7.768  25.048  16.092 -0.0526  0.2606  0.0797
 3508W        W46524  24.273  25.894  16.356 -0.0865 -0.1217 -0.2571
 3509W        W46525  22.667   9.432  13.141 -0.2335 -0.3174  0.0440
 3510W        W46526   4.303  18.006  20.785 -0.0531  0.0557 -0.2035
 3511W        W46527  33.042  29.448   8.742  0.0745  0.2202 -0.1104
 3512W        W46528  27.225  24.770  21.294 -0.0152  0.0580  0.0526
 3513W        W46529  16.139  28.133  17.645  0.0409  0.1403 -0.2550
 3514W        W46530  27.517   9.446  16.012 -0.1263 -0.2048 -0.0095
 3515W        W46531   8.471  19.752  21.535 -0.0586  0.1590 -0.0529
 3516W        W46532  31.284   3.626   8.639 -0.2019 -0.2410  0.2242
 3517W        W46533   8.666  25.165  25.340  0.3418  0.2717 -0.1289
 3518W        W46534  11.349  30.398  17.585 -0.3599  0.1069  0.3370
 3519W        W46535  23.466  32.622  24.948  0.0368  0.0069  0.0618
 3520W        W46536  20.290  22.391  26.594 -0.2018  0.0041  0.0036
 3521W        W46537  30.213  16.836  17.586 -0.2274 -0.1058 -0.1813
 3522W        W46538  32.334   2.506  27.404 -0.1613 -0.0072  0.0371
 3523W        W46539  16.936  26.326  25.078  0.4547  0.1182 -0.0248
 3524W        W46540   4.522  20.902  18.703 -0.0490  0.1296 -0.2528
 3525W        W46541   6.077   7.807  24.274 -0.2153  0.0029 -0.1051
 3526W        W46542  26.747  13.157  17.233  0.1171 -0.2681  0.1678
 3527W        W46543  14.777   9.508  20.367  0.4686 -0.0471 -0.1285
 3528W        W46544  25.448  18.327  19.904 -0.3634  0.0197 -0.1869
 3529W        W46545  22.269   7.924  25.885 -0.0818  0.2512 -0.2563
 3530W        W46546  30.107  34.504  28.227 -0.3420  0.0656  0.0902
 3531W        W46547  32.027  13.306  22.361 -0.0534 -0.4134  0.1843
 3532W        W46548  22.963   7.248   2.160  0.3355  0.2791 -0.2239
 3533W        W46549  33.923   1.266  22.392 -0.1824  0.0513 -0.1338
 3534W        W46550  24.177  28.294   2.029  0.2236  0.2158 -0.2309
 3535W        W46551   9.574  26.677  14.720  0.0795  0.2757 -0.1584
 3536W        W46552   9.221  31.319  15.035 -0.2649 -0.0773 -0.2688
 3537W        W46553   4.062   7.143  27.208 -0.0103  0.0831  0.1794
 3538W        W46554  11.337  32.211   6.796  0.1011  0.2358  0.1543
 3539W        W46555  27.973   8.640  25.142  0.2014  0.1748  0.1532
 3540W        W46556  25.545   9.920   0.288  0.0492 -0.1256 -0.2678
 3541W        W46557  10.343  15.198  18.914  0.1528  0.1915 -0.1920
 3542W        W46558   4.811   7.758  23.162  0.0120 -0.1459 -0.1601
 3543W        W46559  24.554  13.201  19.831  0.1913 -0.2891 -0.2753
 3544W        W46560  28.898  21.417  17.679 -0.1765  0.1766  0.0490
 3545W        W46561  16.622  11.359  21.991  0.4090  0.0551  0.2037
 3546W        W46562  28.616   3.829  27.567 -0.0181  0.0430  0.0411
 3547W        W46563   9.083  16.419  18.340 -0.2820 -0.0888 -0.2378
 3548W        W46564  27.640  14.145  20.698 -0.2627 -0.0789 -0.1269
 3549W        W46565  26.934   7.871  26.759  0.0814  0.2707 -0.2166
 3550W        W46566  32.419  29.285  11.333  0.1325 -0.0855 -0.1808
 3551W        W46567  31.035   2.870  17.670  0.3593  0.2592  0.0671
 3552W        W46568  12.953  11.851  19.978  0.0122 -0.1958  0.2283
 3553W        W46569  16.460  28.385   0.276 -0.0872  0.0107 -0.0496
 3554W        W46570  32.926   4.639  18.019  0.3158 -0.2125 -0.0686
 3555W        W46571  21.963  24.128  16.616 -0.0635 -0.1933  0.0925
 3556W        W46572  17.470  14.666   1.936 -0.0997 -0.1416  0.1624
 3557W        W46573  27.929  19.661   1.170  0.2849 -0.1345 -0.1064
 3558W        W46574  13.964  11.877   2.312  0.1647 -0.2009  0.2054
 3559W        W46575  20.894  20.802  14.931 -0.0464  0.0869  0.3513
 3560W        W46576  21.968  16.658  16.372  0.4852 -0.1143  0.2017
 3561W        W46577   7.319  18.479  22.489  0.5668 -0.1186  0.1425
 3562W        W46578  20.029  13.273  23.155 -0.0143 -0.1199 -0.2999
 3563W        W46579  24.009  11.546  20.610 -0.0327 -0.2117  0.4066
 3564W        W46580  18.033   3.992  26.106 -0.1408 -0.1273  0.2154
 3565W        W46581  22.197  26.230  23.996 -0.0715  0.0587 -0.2427
 3566W        W46582  31.155  13.928  26.578  0.0125 -0.1533 -0.0951
 3567W        W46583  18.620  12.188  22.448 -0.0548  0.2201  0.3091
 3568W        W46584  24.126  13.261  22.190  0.1857  0.1243 -0.1477
 3569W        W46585  33.230  31.271  17.990  0.1011 -0.1652 -0.1761
 3570W        W46586  17.517   4.668  14.650  0.1236 -0.0979  0.2463
 3571W        W46587  23.898   2.875  15.438  0.0927 -0.0690 -0.2463
 3572W        W46588  30.003  20.553  18.652 -0.1797  0.0460  0.0708
 3573W        W46589  25.967  11.083  24.216  0.2514 -0.0266  0.1737
 3574W        W46590   1.130  18.000  28.509 -0.1275  0.0825 -0.3673
 3575W        W46591   7.450  18.805  21.050  0.2287 -0.0918 -0.1745
 3576W        W46592  28.595  28.892  19.775 -0.1859 -0.1499  0.2149
 3577W        W46593  34.544  18.404  14.907  0.1506 -0.1979 -0.1734
 3578W        W46594  23.489   6.335   3.456 -0.0004 -0.1482 -0.3160
 3579W        W46595  29.911  18.525  23.891 -0.0137 -0.0361  0.0702
 3580W        W46596  10.863  13.862  19.427 -0.0261 -0.4371  0.3231
 3581W        W46597  11.043  17.499  26.522  0.1946 -0.2965  0.3147
 3582W        W46598  28.111   7.509  21.893 -0.0573 -0.0012  0.1034
 3583W        W46599  22.103  12.874  18.333  0.1207 -0.2444  0.1474
 3584W        W46600  20.984  20.382  18.346  0.4041  0.1672 -0.0853
 3585W        W46601  17.269  16.267  14.069  0.0617  0.1305  0.0282
 3586W        W46602  17.106  29.627  16.619 -0.0065 -0.2129  0.0812
 3587W        W46603  14.119  16.311  14.818 -0.2769 -0.0272  0.0437
 3588W        W46604  27.361  11.200  20.765  0.1946  0.2742 -0.0873
 3589W        W46605  18.850   7.669  24.339 -0.2474  0.0119 -0.2824
 3590W        W46606  14.203  10.800  21.789  0.1099 -0.0387 -0.2709
 3591W        W46607   5.461  30.363   1.152  0.1668 -0.1473  0.0834
 3592W        W46608  30.184   3.734  23.362  0.0850  0.1092 -0.3161
 3593W        W46609  24.825   9.375  21.375 -0.0247 -0.0967 -0.1539
 3594W        W46610  23.819   7.322  26.985  0.0773 -0.0023 -0.0978
 3595W        W46611   3.238  15.321  19.555  0.2093 -0.0157  0.1281
 3596W        W46612  24.441  14.637  25.381  0.3410  0.0501 -0.3966
 3597W        W46613  23.956   7.565  18.347 -0.0426 -0.0244  0.0102
 3598W        W46614  27.887  20.652  15.047 -0.0264  0.1403  0.4082
 3599W        W46615  27.171  19.876  20.417  0.0665 -0.3333 -0.0200
 3600W        W46616  17.133  17.642  13.981 -0.0229 -0.0655 -0.0221
 3601W        W46617  17.246  31.731  20.909  0.2494 -0.1443  0.1881
 3602W        W46618  25.018  26.990  23.857  0.2482  0.1858 -0.1514
 3603W        W46619  20.506  29.114  18.648 -0.1294 -0.2528  0.2318
 3604W        W46620   4.663  11.048  20.699  0.0998  0.3252 -0.4157
 3605W        W46621  13.698  34.656  17.600 -0.0134  0.2409 -0.3544
 3606W        W46622  13.782   3.959  20.558  0.0019  0.0528 -0.1191
 3607W        W46623   1.478  17.518  15.045  0.1473  0.0228 -0.0320
 3608W        W46624  15.673   9.265  16.970  0.1063  0.0341 -0.1069
 3609W        W46625  20.514  14.604  12.489 -0.1053  0.3665 -0.0327
 3610W        W46626   1.031   3.338  16.567  0.5695 -0.0277 -0.0228
 3611W        W46627   6.833  16.860  25.975 -0.1288  0.0817 -0.2225
 3612W        W46628   3.801  21.753  23.614 -0.0153 -0.2437  0.0146
 3613W        W46629   0.867  12.514  24.905  0.0087  0.4112  0.0972
 3614W        W46630   1.938  18.200  17.455 -0.0397  0.1282  0.1394
 3615W        W46631  14.305  26.423  24.473  0.1830 -0.0395 -0.1919
 3616W        W46632  34.573  11.094  24.552 -0.0088  0.1216  0.0138
 3617W        W46633   2.401  13.077  24.276  0.2790 -0.0357 -0.1474
 3618W        W46634  19.610   9.388  20.742 -0.1510  0.0161 -0.0663
 3619W        W46635  27.312  21.458  15.125 -0.1451  0.0814  0.4286
 3620W        W46636   5.519  20.911  23.414  0.0474 -0.1632  0.1291
 3621W        W46637  16.844  29.926  17.511 -0.0565  0.2036 -0.0481
 3622W        W46638  24.363   5.018   6.732  0.0650  0.2323 -0.2845
 3623W        W46639  27.299  10.232  28.052  0.1517  0.0530  0.0220
 3624W        W46640  34.485  17.439  21.431 -0.3209 -0.2552 -0.1564
 3625W        W46641  26.782  32.307  17.016  0.0229  0.1685 -0.2173
 3626W        W46642  27.620   7.011  24.241 -0.1490  0.0159 -0.0886
 3627W        W46643  29.033   8.680  22.491 -0.2513  0.0187 -0.1437
 3628W        W46644  28.016  23.964  22.009 -0.3001  0.0015  0.0632
 3629W        W46645   6.155   9.893  17.495 -0.1878 -0.1502 -0.0643
 3630W        W46646  31.149  13.830  15.714  0.3083  0.2648 -0.1726
 3631W        W46647  15.529  11.406  23.490  0.0534  0.1444  0.1818
 3632W        W46648   7.430   9.020  15.290  0.0470 -0.1101 -0.0972
 3633W        W46649  32.067   5.582  27.430 -0.0603  0.3792  0.3031
 3634W        W46650  31.343  13.861  17.049 -0.0056  0.0839  0.2048
 3635W        W46651  24.753   7.534  19.386  0.1967 -0.0348  0.0936
 3636W        W46652  18.187   9.495  13.141  0.1330 -0.2418 -0.0919
 3637W        W46653  28.619  21.731  25.417 -0.0623 -0.1410  0.0895
 3638W        W46654  17.161  22.150  14.860  0.1302  0.1773 -0.0781
 3639W        W46655  27.861  18.447  18.987 -0.0368  0.4874 -0.0624
 3640W        W46656  22.341  25.914  18.712 -0.0517  0.1224 -0.0179
 3641W        W46657   1.857  10.714  17.409  0.0335 -0.0375  0.1467
 3642W        W46658  27.102  13.562  23.806  0.1368 -0.0454 -0.1883
 3643W        W46659  24.424  12.280  22.524 -0.4434 -0.1509  0.0435
 3644W        W46660  24.170  13.052   9.604  0.1161  0.0931  0.0492
 3645W        W46661  24.019   9.046  28.683 -0.0838  0.4871  0.4098
 3646W        W46662  13.591   0.350   1.107  0.2995  0.2382  0.3378
 3647W        W46663  14.527  14.383  23.832 -0.0986 -0.0812  0.1543
 3648W        W46664  27.304   7.527  15.079  0.1718 -0.1468 -0.1253
 3649W        W46665  24.137   2.161  21.419 -0.2826  0.0232  0.0686
 3650W        W46666  30.625  12.074  26.732 -0.0636 -0.0756 -0.0355
 3651W        W46667   1.534  28.484  15.558  0.1440 -0.0854 -0.0689
 3652W        W46668  18.954  16.022  14.932 -0.1305 -0.0720  0.2695
 3653W        W46669  10.540   7.843  17.628  0.0405  0.3136  0.2398
 3654W        W46670  13.582  20.146  13.179  0.1148 -0.0881 -0.0878
 3655W        W46671  23.652   6.850  22.048 -0.0084 -0.0062 -0.0633
 3656W        W46672  23.880  19.649   1.644  0.1186 -0.0715  0.2748
 3657W        W46673  20.969   6.103  19.129  0.1717  0.4043 -0.2115
 3658W        W46674  28.809   3.471   5.474  0.0480  0.3709 -0.0883
 3659W        W46675  25.720   7.427  19.936  0.1336  0.2862  0.4800
 3660W        W46676   1.226  23.224  20.629  0.0766  0.2882  0.3097
 3661W        W46677  24.849  12.179  22.889 -0.0776 -0.1693  0.1421
 3662W        W46678  25.064  11.461  16.029 -0.0231  0.2036 -0.2668
 3663W        W46679  27.585  24.668  19.501 -0.1503  0.0474 -0.0554
 3664W        W46680  34.760  25.215  20.723  0.1595 -0.0646 -0.0345
 3665W        W46681  20.074  21.993  17.936 -0.0276 -0.3364 -0.0627
 3666W        W46682  24.515  32.059  16.171 -0.3492 -0.1470  0.2254
 3667W        W46683  25.690   1.173  21.014 -0.1097 -0.1082  0.2748
 3668W        W46684   0.217  10.064  20.213 -0.2258  0.0366 -0.1112
 3669W        W46685  26.742  24.835  15.591  0.1994  0.1154  0.1756
 3670W        W46686  29.103  12.014  21.171 -0.1825  0.0142  0.0531
 3671W        W46687  20.260  16.579  19.489  0.1440 -0.2339  0.0161
 3672W        W46688  16.071  13.069  25.400 -0.1579  0.1142  0.0754
 3673W        W46689  19.141  23.471  19.554  0.3186  0.0216 -0.0414
 3674W        W46690  17.121   0.078  20.307  0.0672  0.1013  0.2819
 3675W        W46691  21.039  15.915  15.738  0.0555 -0.2521  0.4853
 3676W        W46692  19.455  22.678  16.925  0.1803  0.0962  0.0941
 3677W        W46693  11.631  16.895  16.080  0.3872 -0.2800  0.0740
 3678W        W46694  24.774   4.386  23.115  0.1084 -0.1678 -0.1411
 3679W        W46695   2.724  13.298  16.988 -0.3895  0.0355  0.1945
 3680W        W46696   2.920   3.202  26.466 -0.0147  0.1334  0.0252
 3681W        W46697  24.280  18.120   5.242  0.0890  0.2061 -0.1320
 3682W        W46698  32.246  15.381  22.899 -0.1061  0.1685 -0.1985
 3683W        W46699  19.106  22.091  27.319  0.0041  0.0250  0.0294
 3684W        W46700  29.419  23.227  23.316  0.0896 -0.0779 -0.0448
 3685W        W46701  23.351   7.382  18.248  0.1085  0.3092  0.0414
 3686W        W46702  25.848  20.328  18.857 -0.1610  0.1156 -0.2173
 3687W        W46703  15.800   1.180  19.264 -0.0346 -0.1188 -0.1306
 3688W        W46704  25.701   3.265  21.268  0.0795 -0.2767 -0.1317
 3689W        W46705  18.091  17.141  19.668  0.2462  0.1887  0.1488
 3690W        W46706  16.415  33.816  26.578 -0.0824 -0.2335 -0.1069
 3691W        W46707  30.440  12.394  17.358  0.2327 -0.2901  0.0370
 3692W        W46708  15.059  27.610  20.125  0.0267 -0.1087 -0.0011
 3693W        W46709  22.169   5.795  20.337 -0.2034  0.0783 -0.2412
 3694W        W46710  29.853  28.437  17.415  0.0746 -0.2095  0.0183
 3695W        W46711  22.221  12.168  13.079 -0.0945  0.1730  0.0885
 3696W        W46712  29.039  12.333  21.782 -0.0284  0.2084  0.3390
 3697W        W46713   2.372  12.202  18.210  0.0685  0.2415 -0.0187
 3698W        W46714   2.645  16.366  14.588 -0.3434  0.3189  0.1223
 3699W        W46715  28.798   7.086  19.585  0.0574 -0.0585 -0.0493
 3700W        W46716  30.867  20.299  18.458  0.1076 -0.1264 -0.1809
 3701W        W46717  20.797   6.885  15.161 -0.0651 -0.4495  0.0237
 3702W        W46718   1.249  12.448   3.657  0.1595  0.4071 -0.2706
 3703W        W46719  17.161   8.356   7.555  0.1047  0.4782 -0.3934
 3704W        W46720   5.889  25.943  13.245 -0.1026 -0.1119  0.1569
 3705W        W46721  17.627  22.094  13.068  0.1963  0.1922  0.4527
 3706W        W46722  31.423  10.302  16.141  0.2323 -0.1019  0.1163
 3707W        W46723  15.853  10.046  23.956 -0.1478  0.0173 -0.2217
 3708W        W46724  31.983  11.540   8.340  0.0774 -0.4964  0.1516
 3709W        W46725  13.659  10.539  19.470  0.0558  0.0100 -0.0578
 3710W        W46726  17.376  31.930  18.731 -0.3040 -0.1711 -0.0453
 3711W        W46727  30.926  15.370   0.572 -0.4895  0.1659 -0.1968
 3712W        W46728  28.381  31.286  27.223  0.2424 -0.3865  0.3257
 3713W        W46729   1.368  13.452  17.282  0.2719 -0.0738 -0.2421
 3714W        W46730  21.522  15.869  16.441 -0.1070  0.0873  0.2077
 3715W        W46731  31.325  12.911  26.318  0.1670  0.3477  0.0944
 3716W        W46732  33.118  17.933  27.686  0.2500 -0.0316 -0.0671
 3717W        W46733   3.990   8.806  19.759 -0.2139 -0.0962  0.3771
 3718W        W46734  28.735  21.216  16.668 -0.0007  0.0886  0.2583
 3719W        W46735  29.142  10.471  24.606 -0.0099  0.1493  0.0404
 3720W        W46736  19.840  25.529  26.080 -0.0720  0.1899  0.1043
 3721W        W46737  23.976  11.440  24.881 -0.0209  0.0526 -0.0298
 3722W        W46738  22.392  29.721  17.421 -0.0532  0.0533 -0.1523
 3723W        W46739  16.553  17.261  11.883  0.0581 -0.0338 -0.0240
 3724W        W46740   8.623  26.972  24.707 -0.1265  0.1420  0.1062
 3725W        W46741  13.271   1.739  28.371  0.0782  0.2457 -0.3578
 3726W        W46742   0.278   9.728  16.407 -0.0267 -0.0187  0.2592
 3727W        W46743  18.816  15.340  12.877  0.1919 -0.2620 -0.1369
 3728W        W46744  31.873  14.167   9.406  0.1462  0.2817 -0.2815
 3729W        W46745  23.606   9.706  24.680 -0.0979  0.0700 -0.0220
 3730W        W46746  26.814  34.361  21.775 -0.1873 -0.0490  0.0586
 3731W        W46747  32.508  19.349  22.928  0.0850 -0.0936  0.0906
 3732W        W46748  20.938   1.332  26.060 -0.2031 -0.0661  0.1163
 3733W        W46749  11.488  20.296  14.587 -0.0093 -0.1305 -0.0196
 3734W        W46750  28.318  13.147   5.063 -0.1680  0.0611  0.2667
 3735W        W46751  28.110   0.789   1.480 -0.2249 -0.1179  0.0254
 3736W        W46752   6.360  16.362  20.354  0.0806  0.2196  0.0097
 3737W        W46753  24.720  10.595  14.012  0.0526  0.2112 -0.2149
 3738W        W46754  15.810  12.690   6.301 -0.2869 -0.0626 -0.1322
 3739W        W46755  18.842  15.843  12.068 -0.1513  0.0175 -0.0512
 3740W        W46756  13.919   5.118  13.419 -0.1987 -0.1541 -0.0282
 3741W        W46757  20.329  20.978  24.887 -0.0842  0.4555  0.2646
 3742W        W46758  18.037  18.392   3.494 -0.0141 -0.1721 -0.0605
 3743W        W46759  26.173  14.270  14.826 -0.0027 -0.1998 -0.0182
 3744W        W46760   7.868   4.084   4.083 -0.0143 -0.0070  0.0203
 3745W        W46761   5.453  10.866  19.096 -0.0983 -0.0253 -0.1447
 3746W        W46762   1.882  19.774  19.440  0.0863  0.0551 -0.1908
 3747W        W46763  33.066  19.119  15.443  0.0394  0.2369  0.1590
 3748W        W46764  32.070  13.650  15.745 -0.0901  0.0717  0.0349
 3749W        W46765  31.223  24.843  25.554  0.3169  0.1266 -0.0838
 3750W        W46766  34.708  20.158  22.727  0.1823  0.4222  0.0010
 3751W        W46767  25.884  22.023  21.314  0.0529 -0.0658  0.0130
 3752W        W46768   3.224   7.976  23.761 -0.2187 -0.1719 -0.0806
 3753W        W46769  25.218  11.261  26.061  0.1848  0.2244 -0.2031
 3754W        W46770  28.159  11.263   8.324  0.2443  0.1793  0.2804
 3755W        W46771  20.763   1.488  19.388  0.0353 -0.1715  0.0150
 3756W        W46772  15.616  22.318  23.318  0.0015  0.1875  0.0965
 3757W        W46773  19.900  28.917  21.331  0.0727 -0.2641 -0.0500
 3758W        W46774  16.106   6.822  19.205 -0.1598 -0.2560  0.1082
 3759W        W46775   4.411   2.903  16.552  0.0780  0.0196  0.1384
 3760W        W46776  13.558  25.168  18.753 -0.2812  0.3053 -0.1621
 3761W        W46777  31.093  25.809  19.398 -0.0208 -0.1318 -0.3019
 3762W        W46778  28.041   1.230  26.640 -0.1478 -0.0721 -0.2001
 3763W        W46779   5.617   7.918  18.452 -0.0987  0.3600 -0.0638
 3764W        W46780  23.506  23.427  15.316  0.2156  0.0590  0.1334
 3765W        W46781   0.356  19.694  21.994 -0.2680  0.3353 -0.1153
 3766W        W46782  16.230   1.660   0.438 -0.2250 -0.2648  0.3545
 3767W        W46783  25.861  19.703  25.504  0.0200  0.0862 -0.0975
 3768W        W46784  24.356   9.245  16.365  0.1737 -0.0432 -0.2276
 3769W        W46785  26.609  32.859  26.717 -0.0705  0.1556  0.0706
 3770W        W46786  27.716  23.969  19.506 -0.1209 -0.2570  0.0541
 3771W        W46787  23.768  10.984  16.878 -0.0105  0.0838 -0.1075
 3772W        W46788   2.775  19.118  21.488 -0.2049  0.2552 -0.0897
 3773W        W46789  16.523  24.640  19.099  0.3047  0.0338 -0.4073
 3774W        W46790   6.527  16.047  24.627  0.5166  0.0725  0.0489
 3775W        W46791  27.369   9.860  15.487  0.2322 -0.4900 -0.4322
 3776W        W46792   1.634  31.494  17.362 -0.0666 -0.0126 -0.1435
 3777W        W46793  14.715  10.566  23.981  0.2050  0.0260 -0.1749
 3778W        W46794  23.867  11.489  22.087  0.1716  0.1943  0.0054
 3779W        W46795  10.754  10.160  18.114 -0.0118  0.1843 -0.1094
 3780W        W46796  15.373  21.131   2.985  0.0106  0.0156  0.1317
 3781W        W46797  16.271   8.045  25.218 -0.3084 -0.2883 -0.4864
 3782W        W46798  31.883  10.536  14.928  0.1525  0.1355 -0.2736
 3783W        W46799  33.686  14.884  17.006  0.2003  0.0155  0.0591
 3784W        W46800  23.381  31.878  15.359 -0.0006 -0.0314  0.0472
 3785W        W46801   2.337  24.542  21.325 -0.3976 -0.4802  0.1065
 3786W        W46802  19.035   7.283  22.637 -0.0564 -0.3155  0.3051
 3787W        W46803  23.032  30.725  23.689 -0.0545  0.1490  0.1314
 3788W        W46804  22.185   8.864  20.077 -0.0006  0.0484 -0.1621
 3789W        W46805  11.340  19.966  20.688  0.2019  0.1049 -0.0517
 3790W        W46806   6.656  18.722  17.834 -0.0771  0.2559  0.2442
 3791W        W46807  23.307  30.977  17.244 -0.0314  0.1008  0.3218
 3792W        W46808  29.563   1.679  20.260  0.0346 -0.0446  0.2507
 3793W        W46809  32.226  14.909  24.332 -0.1091 -0.0934 -0.0650
 3794W        W46810  29.260   8.150  14.995  0.0753  0.2018  0.0063
 3795W        W46811  19.466   8.285  15.500 -0.0200 -0.0402  0.0098
 3796W        W46812  25.068   4.978  15.929  0.1304  0.2049  0.1769
 3797W        W46813  20.528   1.065   4.351 -0.2721  0.2031 -0.2115
 3798W        W46814  25.905  21.707  15.404  0.2892  0.1666 -0.2998
 3799W        W46815  24.193  23.405  23.775 -0.1490 -0.0547 -0.2862
 3800W        W46816  30.409   6.823  16.306  0.3523 -0.1451  0.1422
 3801W        W46817  13.376  22.039  27.261  0.0594 -0.0532  0.2668
 3802W        W46818  32.367   5.838  23.865 -0.2749 -0.0537 -0.0891
 3803W        W46819  29.252  10.775  15.255 -0.2117  0.3198 -0.0151
 3804W        W46820  22.979  23.792  24.161  0.0389  0.1372  0.2727
 3805W        W46821  32.241  10.530  16.684  0.1180  0.2193  0.1001
 3806W        W46822  15.062  28.121  16.814  0.0541 -0.1341 -0.1139
 3807W        W46823  10.610  12.288  20.706  0.0121  0.2544  0.0901
 3808W        W46824  10.067  28.282  24.648 -0.2532  0.1308  0.3644
 3809W        W46825  20.379  32.422  24.636 -0.1077 -0.2231 -0.0728
 3810W        W46826  25.940  18.384  19.128 -0.0219 -0.1099  0.0893
 3811W        W46827   7.144  26.388  16.469  0.1429  0.0756  0.2005
 3812W        W46828   4.167   5.350   2.201  0.3000 -0.1457 -0.1336
 3813W        W46829  17.120   4.023  15.473 -0.0358 -0.0774 -0.1431
 3814W        W46830   2.276  20.162  14.416 -0.0409  0.3938  0.0486
 3815W        W46831  30.587  14.919  20.000 -0.0008 -0.1916  0.0128
 3816W        W46832   2.439  14.697  27.192 -0.2338  0.0656  0.2050
 3817W        W46833  12.698   9.275  18.553  0.0066 -0.0855  0.0882
 3818W        W46834  34.496  16.871  22.195 -0.0596 -0.2702 -0.1728
 3819W        W46835  14.364  12.916  15.540 -0.1287  0.0227 -0.0897
 3820W        W46836  19.786   7.480  16.757 -0.2094 -0.0648  0.0623
 3821W        W46837  19.383   8.969  18.316  0.0056  0.1007  0.1624
 3822W        W46838  23.259  14.741  12.838 -0.1076 -0.2305  0.3734
 3823W        W46839  32.064   9.787  14.508  0.4059  0.0386  0.1028
 3824W        W46840   5.410   2.588  23.004 -0.0089 -0.2106 -0.1124
 3825W        W46841  13.661   5.457  18.844 -0.2232 -0.0811  0.1861
 3826W        W46842  18.833  24.857  18.569  0.1002 -0.2676  0.1762
 3827W        W46843   1.549   1.940  20.652  0.0007  0.0514  0.2308
 3828W        W46844   1.996  34.348  22.492 -0.2451  0.0708  0.0526
 3829W        W46845  30.207  27.217  28.482  0.0009  0.0793 -0.1185
 3830W        W46846  22.365  12.303  19.872  0.0705 -0.1307 -0.1860
 3831W        W46847  22.023  24.532  18.069  0.0606 -0.0135 -0.4733
 3832W        W46848   9.654  10.918  13.421 -0.2356  0.1067  0.1714
 3833W        W46849   2.291   7.207   7.134  0.1575  0.2281 -0.0453
 3834W        W46850  23.031  19.666  18.018 -0.0720 -0.4403  0.0334
 3835W        W46851  28.256  15.288  17.475  0.2143 -0.0107 -0.3625
 3836W        W46852  24.522  34.435  27.204 -0.1323 -0.3372  0.1509
 3837W        W46853  21.808  16.069  12.843  0.0682 -0.2944  0.0374
 3838W        W46854  13.516  16.885  14.021 -0.2616  0.0033  0.0423
 3839W        W46855  12.085   6.768   2.411 -0.2039  0.0615 -0.1224
 3840W        W46856  14.241  17.752  12.956  0.0367  0.1276 -0.1386
 3841W        W46857  20.963   6.130  14.338 -0.1992 -0.0462 -0.3201
 3842W        W46858  22.789  24.684  16.399  0.0695  0.0532 -0.1091
 3843W        W46859   4.798   1.103   3.628 -0.0680 -0.4419  0.0944
 3844W        W46860   6.153  25.710  25.876  0.1827  0.0169  0.1285
 3845W        W46861  22.219  19.403  16.971  0.1625  0.0286  0.0043
 3846W        W46862  13.497  34.666  28.460  0.1058 -0.0777  0.0740
 3847W        W46863  25.111   0.583   4.311  0.0769  0.1295  0.1383
 3848W        W46864  18.648  26.448  16.693  0.0413 -0.0537  0.0900
 3849W        W46865   1.614   8.949   4.767 -0.1545  0.1631 -0.0471
 3850W        W46866  10.543  14.456  16.799  0.1447 -0.2496  0.1467
 3851W        W46867  13.664  28.203  20.933  0.0042  0.1841  0.1497
 3852W        W46868   2.511  24.184  24.536 -0.1130 -0.2248  0.2134
 3853W        W46869   4.595  14.463  29.197 -0.0877 -0.0231  0.1849
 3854W        W46870  28.429  13.198  16.273 -0.2465  0.0827  0.2882
 3855W        W46871  31.000  12.321  20.250  0.0496 -0.0638  0.1236
 3856W        W46872  16.205   3.926   1.860 -0.0438 -0.0068 -0.0295
 3857W        W46873  19.306  14.682  12.672 -0.2713 -0.1120  0.1791
 3858W        W46874  24.366   4.908  28.296  0.0969 -0.1011 -0.0179
 3859W        W46875  29.039   1.592  24.220 -0.0680  0.0374 -0.3986
 3860W        W46876  25.893  26.164  18.711  0.2382 -0.1622 -0.2094
 3861W        W46877  21.907  11.679  21.606  0.2878  0.2402 -0.1720
 3862W        W46878  21.999  15.811  13.817  0.1883 -0.0395  0.0455
 3863W        W46879  15.052  12.895  13.274 -0.0226 -0.0446  0.0718
 3864W        W46880  25.580   4.836  16.633  0.0791 -0.1920 -0.0715
 3865W        W46881  27.333   7.525  19.038  0.1927 -0.1246  0.2843
 3866W        W46882  25.847  34.100   1.714 -0.0614  0.1062 -0.0881
 3867W        W46883  27.605  31.316  21.431  0.2374 -0.0355 -0.4499
 3868W        W46884   3.059  31.155  16.806  0.2657  0.1697 -0.1407
 3869W        W46885  29.826  27.046  17.327 -0.1289  0.0678  0.1290
 3870W        W46886  18.888   9.219  14.850 -0.3737  0.3208 -0.1075
 3871W        W46887  27.791  10.514  18.210 -0.3018 -0.1486 -0.2032
 3872W        W46888  25.279  13.670  23.451  0.4049  0.0679 -0.2616
 3873W        W46889  30.030  33.738   3.142  0.0826 -0.2351  0.1171
 3874W        W46890  12.055   8.846  26.772 -0.0677 -0.0770 -0.1501
 3875W        W46891  29.333  18.386  20.915 -0.0841 -0.1850  0.0931
 3876W        W46892  27.326   4.694   0.517  0.5413 -0.1274  0.1756
 3877W        W46893  28.702  18.157  26.690 -0.0723  0.0762  0.3123
 3878W        W46894  23.291   5.581  23.179 -0.1344  0.2705 -0.4211
 3879W        W46895  26.491  11.824  25.939 -0.3475 -0.0665  0.0544
 3880W        W46896  28.506   5.325  20.815 -0.0583  0.0166  0.2242
 3881W        W46897  16.737  11.808  16.419 -0.1228  0.1584 -0.0379
 3882W        W46898  22.179   6.511  17.199  0.0141 -0.1517  0.1272
 3883W        W46899   8.301  34.271  27.706  0.1396  0.1153  0.0087
 3884W        W46900  31.325   9.969  25.689 -0.2349 -0.1298  0.4971
 3885W        W46901  24.646  17.428  13.434  0.0396 -0.1288 -0.1468
 3886W        W46902  31.524   5.231  15.191 -0.1128 -0.0463  0.4472
 3887W        W46903  24.060  10.916  22.869 -0.1723 -0.0661 -0.2006
 3888W        W46904  29.265  14.133  26.256 -0.3491  0.2659 -0.4488
 3889W        W46905  20.089   1.390  21.904  0.0161  0.2156 -0.0459
 3890W        W46906   6.114  32.527  29.299 -0.1537  0.1342  0.3924
 3891W        W46907  24.724  23.970   1.468 -0.3283 -0.2697 -0.2617
 3892W        W46908  27.743   1.175  27.543 -0.0585 -0.0204  0.2989
 3893W        W46909  27.320   9.978  19.391  0.0323 -0.0791  0.0342
 3894W        W46910  26.212  15.522   0.122 -0.0723  0.2255  0.3150
 3895W        W46911  27.558  26.977  17.328 -0.1630  0.0677 -0.0693
 3896W        W46912  27.712  26.897  18.604 -0.0936 -0.1513  0.2137
 3897W        W46913  24.305   1.528  27.155 -0.0197 -0.0434 -0.2183
 3898W        W46914  26.316   0.973   2.375  0.0779 -0.1611  0.0383
 3899W        W46915  30.243  24.751   3.410  0.3626  0.2299  0.0084
 3900W        W46916  14.680   5.995  23.151 -0.0420  0.1923 -0.1805
 3901W        W46917  20.619  25.873  18.924  0.1224  0.2997  0.1570
 3902W        W46918  23.823  20.051  22.922 -0.1849 -0.0455  0.0446
 3903W        W46919  21.745  15.852  20.936 -0.0046 -0.2095  0.1556
 3904W        W46920  20.635   4.671  16.850 -0.0735  0.2266 -0.4211
 3905W        W46921  12.415   9.177  21.263 -0.1890  0.1335  0.1076
 3906W        W46922  11.961   4.037  14.371  0.1020 -0.1258 -0.3031
 3907W        W46923  31.765  29.361  15.661 -0.1473  0.0064  0.1037
 3908W        W46924  14.672  30.389  17.902  0.2799  0.0779  0.0155
 3909W        W46925  10.326  14.381  14.638 -0.0138 -0.0773 -0.0567
 3910W        W46926   0.680  12.519  16.912 -0.2801 -0.0235  0.3457
 3911W        W46927  22.718  23.033  20.345  0.2191  0.0421  0.1749
 3912W        W46928   0.195  12.080  21.909 -0.0702 -0.1519 -0.2099
 3913W        W46929   7.191   1.102  17.233 -0.2351 -0.1130  0.0698
 3914W        W46930  32.541  23.956   4.117  0.0889  0.0224 -0.1474
 3915W        W46931  17.686   8.285  14.799 -0.2671  0.0949 -0.0840
 3916W        W46932  23.602   0.243   8.698 -0.0687  0.1190  0.0662
 3917W        W46933  10.037  12.316  13.661  0.0779  0.2898 -0.1034
 3918W        W46934   6.862   1.895  20.207 -0.0431 -0.0163 -0.1080
 3919W        W46935  23.138  15.831  16.061  0.0430  0.0959 -0.1417
 3920W        W46936  27.324  15.243  17.662 -0.2839  0.1504 -0.1354
 3921W        W46937  19.947  21.445  22.820 -0.1532 -0.0254 -0.0396
 3922W        W46938  23.920  14.037  23.635 -0.0415  0.0117  0.3222
 3923W        W46939  18.940  20.480  13.069 -0.0318 -0.0615  0.0266
 3924W        W46940  15.253  16.493  11.956 -0.0789 -0.0369  0.1763
 3925W        W46941   4.632   6.646   0.865  0.0827  0.5236 -0.0758
 3926W        W46942  17.083   2.514  14.327  0.0965  0.0921  0.0428
 3927W        W46943  24.631  15.178  23.211 -0.1788  0.0288  0.1413
 3928W        W46944  12.371  15.878  17.691 -0.1001  0.2288 -0.3442
 3929W        W46945   6.867  13.751  22.827 -0.0999 -0.3063  0.2891
 3930W        W46946  30.636  11.841  21.972  0.0860 -0.0458  0.0557
 3931W        W46947  28.100   4.652   1.813 -0.3522 -0.1563  0.2733
 3932W        W46948  28.405  32.031  15.870  0.0949  0.0722  0.0916
 3933W        W46949   6.066  12.643  21.043  0.2510  0.3039 -0.1529
 3934W        W46950  18.770  28.821  26.146  0.0024 -0.3418 -0.1072
 3935W        W46951  11.073   3.751   0.660  0.2500  0.0879  0.0905
 3936W        W46952   8.623  28.809  16.406  0.2271  0.3432  0.1880
 3937W        W46953  31.163  13.238   3.592 -0.0941 -0.0331 -0.1824
 3938W        W46954  23.864   1.497  18.009  0.0509 -0.0603  0.1626
 3939W        W46955  31.821   1.787  22.416 -0.0691  0.4334  0.1672
 3940W        W46956  26.339   7.485  16.445  0.1568  0.2404 -0.0129
 3941W        W46957   9.027   6.785  14.651  0.0631 -0.2857 -0.0557
 3942W        W46958  15.844  31.855  19.579  0.1220  0.1537 -0.4584
 3943W        W46959  27.030  20.534   2.793  0.1286  0.0370  0.0645
 3944W        W46960  31.588  18.063  21.095  0.0432  0.1015  0.1568
 3945W        W46961  28.662   7.598  18.582  0.2237 -0.1315 -0.1565
 3946W        W46962  33.506  21.561  17.145  0.3308 -0.1962  0.1132
 3947W        W46963  20.393  16.477  15.260  0.0200 -0.0618 -0.2731
 3948W        W46964  20.256   2.691  25.742 -0.1387  0.1584 -0.2493
 3949W        W46965  32.191   4.249   1.271  0.0351 -0.0743  0.0185
 3950W        W46966  23.809  24.537  22.372 -0.0406 -0.4530  0.3792
 3951W        W46967  33.734  14.211  15.629  0.2999 -0.2428 -0.1676
 3952W        W46968  22.319   5.625  18.437  0.0977 -0.1126 -0.1468
 3953W        W46969   2.273   7.140  16.049 -0.2113  0.3886 -0.1063
 3954W        W46970  26.686  18.336  21.124 -0.1804  0.0238 -0.0154
 3955W        W46971  11.522  22.553  22.813  0.0770 -0.2565  0.1433
 3956W        W46972   3.594   7.778  22.206 -0.2471 -0.2131 -0.0092
 3957W        W46973  16.503  16.906  22.854 -0.3143  0.0637  0.0533
 3958W        W46974  12.441   2.677  15.584 -0.0192  0.1073  0.1823
 3959W        W46975   7.274  23.344  14.913  0.0611  0.2825 -0.0594
 3960W        W46976   6.596   8.673  25.159 -0.0023  0.1677 -0.3850
 3961W        W46977  17.312   8.981  15.800 -0.1986  0.0360 -0.0844
 3962W        W46978  17.001   5.097  15.212 -0.2732  0.3362  0.1531
 3963W        W46979  25.313  11.383  22.280 -0.1908  0.2922  0.3087
 3964W        W46980  26.293   7.310  27.372  0.2859 -0.0662 -0.4236
 3965W        W46981  24.634   8.909  17.692 -0.0420 -0.0739 -0.1692
 3966W        W46982  30.517   5.951  27.582  0.2748 -0.1635 -0.2047
 3967W        W46983  10.050  12.958  15.285 -0.1753 -0.1194  0.0969
 3968W        W46984   5.277  12.272  15.759 -0.0471 -0.0405  0.1673
 3969W        W46985  17.256  16.254  28.139 -0.2162  0.0473 -0.1744
 3970W        W46986  16.378   7.321  27.450 -0.2904 -0.2765  0.0283
 3971W        W46987  23.255  33.381  26.316 -0.0062 -0.0937 -0.1089
 3972W        W46988  24.670  15.234  15.367 -0.1582  0.0404  0.0878
 3973W        W46989  29.693  13.291  21.256  0.3653  0.1520  0.0094
 3974W        W46990   8.542   1.988  17.716  0.1615 -0.0774 -0.1310
 3975W        W46991  12.137   7.225  18.454  0.3039  0.1168 -0.2371
 3976W        W46992  26.663   3.299  18.244 -0.1355 -0.1480 -0.0671
 3977W        W46993  21.719  29.095  27.692  0.0082 -0.0610  0.1792
 3978W        W46994  27.614   9.799   5.928  0.1951  0.0569 -0.0821
 3979W        W46995  26.341  34.435  20.977 -0.2306  0.0021 -0.3036
 3980W        W46996  17.775  13.940  22.901 -0.1842  0.0197  0.3898
 3981W        W46997   2.353  30.402   4.054 -0.0765  0.0776  0.0823
 3982W        W46998  22.745   9.740  25.237 -0.3743 -0.0962  0.0801
 3983W        W46999  13.623  11.987  17.062 -0.2569 -0.0843 -0.0305
 3984W        W47000  22.577  12.874  14.431  0.0985  0.1118 -0.0445
 3985W        W47001  20.242  17.680  28.078  0.2387  0.0865 -0.4088
 3986W        W47002  14.475  12.183  16.041  0.1320 -0.1880  0.1952
 3987W        W47003  19.571   4.824  26.382  0.1661  0.3066 -0.1297
 3988W        W47004  11.855   6.165  20.552 -0.2290 -0.3678  0.0259
 3989W        W47005   3.031  26.170  24.340  0.3398  0.1276 -0.2661
 3990W        W47006  22.001  32.197  24.581  0.0035 -0.0539 -0.1577
 3991W        W47007  30.334  13.404  16.506  0.1682 -0.1723  0.1101
 3992W        W47008  29.095  21.579  20.404  0.0237  0.1963 -0.0153
 3993W        W47009  31.122   6.019  26.700 -0.1476 -0.4386 -0.0210
 3994W        W47010   6.879  12.270  20.711 -0.2222  0.0347 -0.0492
 3995W        W47011   9.192  25.888  23.174  0.2052 -0.1940  0.1389
 3996W        W47012  24.867  33.163  26.409 -0.1095  0.0376 -0.3828
 3997W        W47013  17.668   7.380  25.720  0.0582  0.2186  0.3731
 3998W        W47014  22.959  20.081  19.326 -0.2546  0.0465 -0.4695
 3999W        W47015  14.643  10.607  14.910 -0.0273 -0.1658  0.2192
 4000W        W47016  11.060  11.540  14.836 -0.0021 -0.3026 -0.1332
 4001W        W47017   2.763  16.738  15.396  0.0785  0.3674  0.0703
 4002W        W47018  26.645  13.655  25.677 -0.3211 -0.2315 -0.3008
 4003W        W47019  28.014   8.805  21.204 -0.1641  0.1070  0.2255
 4004W        W47020  27.792  30.134  11.537  0.3017  0.3470 -0.1241
 4005W        W47021  30.986   5.762  21.603  0.0223 -0.1696 -0.0020
 4006W        W47022  19.426  13.190  26.351  0.2531  0.3137 -0.1742
 4007W        W47023  27.276  13.981  20.422 -0.0701 -0.0656  0.3742
 4008W        W47024  30.430   6.987  16.827  0.1022  0.0704  0.2066
 4009W        W47025  26.451  24.513  16.542  0.1135 -0.1746 -0.2666
 4010W        W47026  23.740  28.419  15.482 -0.2001  0.3193  0.1464
 4011W        W47027  17.904   6.505   3.300 -0.3298  0.0271 -0.1691
 4012W        W47028  26.184  10.800  17.197  0.2239  0.1656  0.0777
 4013W        W47029  16.979  21.511  16.773  0.0451  0.0175 -0.0367
 4014W        W47030  32.518  22.323  16.665 -0.0724 -0.0300  0.0149
 4015W        W47031  20.458  21.266  22.127 -0.3252 -0.3497  0.2039
 4016W        W47032  19.475  10.864  15.212 -0.0228 -0.0003  0.0386
 4017W        W47033  18.590   9.894  14.350 -0.1596 -0.2168  0.1110
 4018W        W47034   1.560  19.908  27.624  0.2120  0.0376 -0.0643
 4019W        W47035  20.020  12.764  25.577 -0.0386 -0.2205 -0.2787
 4020W        W47036  22.851  24.031  19.478 -0.2640 -0.1200  0.1479
 4021W        W47037  24.220  19.273  23.720  0.1713  0.1355 -0.0225
 4022W        W47038  23.401   9.598  19.626 -0.1604 -0.0459  0.1225
 4023W        W47039  12.508   4.874  18.256 -0.1358  0.3961  0.1675
 4024W        W47040  16.756  23.057  12.774 -0.2031 -0.4157 -0.1119
 4025W        W47041  19.575   0.373  26.447  0.2056 -0.1199  0.0537
 4026W        W47042  10.111  14.654  23.856 -0.1227 -0.2008  0.0676
 4027W        W47043  27.521  32.892   1.562 -0.1390  0.0797 -0.0214
 4028W        W47044  18.697   1.610  28.243 -0.0962  0.2849  0.0011
 4029W        W47045  14.653  12.006  15.371  0.2715  0.0489 -0.1003
 4030W        W47046  23.532  10.427   6.346 -0.1490 -0.1540 -0.3015
 4031W        W47047  28.758  23.373  17.873 -0.1293  0.1445  0.0130
 4032W        W47048  11.402  15.865  20.537  0.0896 -0.0561  0.1133
 4033W        W47049  33.200   4.686  15.851  0.1558 -0.0413  0.0754
 4034W        W47050  19.019  28.469  28.387 -0.1486  0.0275  0.1084
 4035W        W47051  14.236   5.099  24.949 -0.0780  0.2676 -0.2423
 4036W        W47052  17.989   2.704   5.521  0.1406 -0.0109  0.1739
 4037W        W47053  25.459  14.940  21.546 -0.0817  0.1269 -0.3727
 4038W        W47054  14.481   4.904  18.680  0.2654  0.0327  0.0353
 4039W        W47055  27.163   7.788  22.866 -0.3202 -0.0670 -0.2428
 4040W        W47056  13.635   5.335  26.819  0.0111  0.1299 -0.0592
 4041W        W47057  30.404   8.657  25.692 -0.2124  0.1203  0.2236
 4042W        W47058   8.783   3.937  18.629 -0.2574  0.0462  0.2342
 4043W        W47059  26.508   3.093  16.752  0.0741  0.1187  0.0707
 4044W        W47060  16.805   6.052  25.661 -0.2474  0.1553 -0.0221
 4045W        W47061  12.775  17.172  26.423 -0.2395  0.2246  0.3414
 4046W        W47062  14.833  16.425  25.715 -0.1406 -0.1406  0.0640
 4047W        W47063   1.753  13.905  17.352 -0.1245 -0.1021 -0.0186
 4048W        W47064  25.581  18.669  16.875 -0.0911  0.1233  0.2142
 4049W        W47065  14.384   7.537  24.518 -0.0665 -0.0584  0.0095
 4050W        W47066  33.035   2.299  22.942 -0.0109  0.3805  0.0050
 4051W        W47067  24.160  22.603  27.929 -0.1462 -0.0983  0.1447
 4052W        W47068  30.673  32.267  19.554 -0.0596 -0.2589  0.0671
 4053W        W47069   8.314  14.664  20.637  0.0131 -0.4154 -0.1023
 4054W        W47070  31.820  23.911  22.997 -0.1554  0.0940 -0.0377
 4055W        W47071   0.580   6.013  21.085 -0.0303  0.0680  0.3334
 4056W        W47072  18.363  22.028  23.241  0.3679 -0.0930  0.0432
 4057W        W47073  34.718  17.008  15.031  0.0829 -0.1706 -0.3192
 4058W        W47074  34.217  18.726  15.543  0.0141 -0.0085  0.2984
 4059W        W47075  32.526  15.938  28.970  0.2534 -0.1396 -0.0469
 4060W        W47076   3.095  15.733  17.179 -0.0584  0.0476  0.1578
 4061W        W47077  25.855  28.289   9.605  0.0825  0.2181  0.3303
 4062W        W47078  24.044   9.475  26.787  0.1115 -0.2701 -0.0532
 4063W        W47079   4.731  13.617  18.952 -0.0078 -0.0684 -0.1061
 4064W        W47080  30.479  29.742  27.389  0.1963  0.4167  0.2567
 4065W        W47081  11.782   6.187  15.547 -0.0140 -0.1917  0.1157
 4066W        W47082  16.085   4.963  25.453  0.0444 -0.1710  0.0519
 4067W        W47083  33.799  31.046  19.928 -0.4088 -0.0745  0.2557
 4068W        W47084   2.150  28.680  19.204  0.0263  0.0338 -0.0234
 4069W        W47085  21.090   8.243   1.612  0.1233 -0.0850 -0.1664
 4070W        W47086  21.009   7.697  23.210 -0.3949 -0.1080 -0.2599
 4071W        W47087   8.875   9.008   1.324  0.3068 -0.0914  0.0229
 4072W        W47088  13.255  33.032  27.605  0.2937  0.2294 -0.0112
 4073W        W47089  12.016  25.096  21.261  0.0560  0.0637 -0.2360
 4074W        W47090   1.166  28.817  26.092  0.1958 -0.0372  0.0836
 4075W        W47091  29.584  16.531  15.051  0.1755 -0.0537  0.0336
 4076W        W47092  23.656  19.258  14.306 -0.2368 -0.0138  0.1941
 4077W        W47093  24.680   8.425  22.537  0.0697  0.3028  0.0396
 4078W        W47094  15.867  33.148  18.285  0.2538 -0.3601  0.2212
 4079W        W47095  17.923   8.228  20.952 -0.1132  0.2053  0.0123
 4080W        W47096  11.685   7.404  15.121  0.1641  0.1931 -0.0644
 4081W        W47097  31.169  12.504  22.512  0.0607  0.2262  0.0475
 4082W        W47098  20.428  30.399  15.728  0.1738  0.0647  0.0131
 4083W        W47099  31.342  15.939  18.724  0.1233 -0.0557 -0.2369
 4084W        W47100   8.813  22.792  13.731  0.4464 -0.0092  0.2252
 4085W        W47101   8.957   5.345   0.474  0.1155  0.2542 -0.4566
 4086W        W47102  28.946  18.236   0.776 -0.1738  0.0289  0.2741
 4087W        W47103  25.525   1.567  21.747 -0.2187  0.1112  0.2152
 4088W        W47104  17.865   0.063  14.639 -0.2137 -0.5607  0.2126
 4089W        W47105  22.913   0.602  23.608  0.0625 -0.0604 -0.3071
 4090W        W47106  16.878  29.796  14.986 -0.2069 -0.1327 -0.0877
 4091W        W47107  22.154  29.597  26.994  0.2172  0.1922  0.0912
 4092W        W47108  25.308  20.389  23.411 -0.1437  0.0699 -0.3940
 4093W        W47109   2.470   6.520   5.411  0.0277 -0.1647 -0.2841
 4094W        W47110  31.507  21.914  15.926 -0.0070  0.1703  0.0978
 4095W        W47111  32.002   7.686  27.018  0.1830 -0.0272  0.2327
 4096W        W47112  19.072   4.469  19.144  0.3766 -0.3706 -0.0423
 4097W        W47113   1.968  19.041  27.642 -0.0662 -0.2461 -0.1811
 4098W        W47114  33.578  13.866   3.810  0.1128  0.0870  0.1268
 4099W        W47115   0.182  13.686  28.983 -0.2105  0.3076 -0.1019
 4100W        W47116  21.380  16.720  15.478  0.0954  0.2059 -0.0753
 4101W        W47117  32.663  16.474  17.058  0.2585 -0.1305 -0.1230
 4102W        W47118   3.403   1.399  18.211 -0.1880 -0.0752  0.0094
 4103W        W47119  24.434  14.644  20.607  0.1731 -0.4706 -0.1832
 4104W        W47120  32.617  13.567  15.814 -0.0867 -0.0289 -0.1647
 4105W        W47121  26.196  18.653  26.488 -0.0609 -0.0188 -0.1915
 4106W        W47122  28.230  17.079  24.401  0.1381 -0.4987  0.3090
 4107W        W47123  30.591   3.441  21.049 -0.0465  0.0648 -0.2274
 4108W        W47124  29.917  12.484  16.643  0.2078  0.1741  0.1305
 4109W        W47125  15.025  16.285  22.298 -0.1194  0.0732  0.1713
 4110W        W47126  20.521   0.594   3.567  0.0811  0.0692 -0.1991
 4111W        W47127  12.410  22.610  19.024  0.0846  0.1682 -0.0411
 4112W        W47128  28.078   4.079  28.797 -0.1799 -0.0973  0.2770
 4113W        W47129  23.392  17.129  27.857 -0.0001 -0.1584  0.3197
 4114W        W47130   1.698   6.044  18.697 -0.0514  0.1504  0.0208
 4115W        W47131  15.526  31.865  18.656  0.0478 -0.1879 -0.4019
 4116W        W47132   6.483  10.056  22.068  0.0001  0.0765  0.0796
 4117W        W47133   1.789  24.126  23.975  0.2294 -0.3083 -0.1329
 4118W        W47134  12.465  33.264  15.880  0.0563  0.1502  0.0510
 4119W        W47135  18.232  33.899  26.466  0.1005  0.0146  0.1364
 4120W        W47136  26.752  10.460  21.747  0.0924 -0.1017  0.1215
 4121W        W47137  12.078   5.372   0.029  0.1972 -0.0324  0.0115
 4122W        W47138  19.091  34.557  19.352  0.0691  0.0419 -0.3087
 4123W        W47139  20.254  18.260  14.989 -0.0119 -0.2101  0.1404
 4124W        W47140  22.162  14.912  22.449  0.0623 -0.2534  0.5471
 4125W        W47141  13.196  17.080   0.833  0.3279 -0.1996  0.0460
 4126W        W47142  23.803  26.899  25.579  0.2546  0.2408  0.2783
 4127W        W47143  26.393  17.686  20.279  0.6497  0.0349  0.0924
 4128W        W47144  25.490  15.102  26.822  0.0112 -0.2414  0.2584
 4129W        W47145  21.354   6.741  24.049 -0.1446  0.3253 -0.1073
 4130W        W47146  19.355   1.809  21.372 -0.1122 -0.1256 -0.1841
 4131W        W47147   8.261  34.364  18.727  0.1984  0.1189 -0.0290
 4132W        W47148  26.185  18.191  20.359  0.0754  0.0103 -0.2095
 4133W        W47149  33.271   4.059  25.902  0.2217 -0.1808  0.1974
 4134W        W47150   7.675   2.361  20.500  0.0006 -0.2053  0.2759
 4135W        W47151  17.298   9.856  18.276  0.0173 -0.2218  0.1206
 4136W        W47152  17.905   1.391  18.645  0.0506 -0.0326 -0.0784
 4137W        W47153  20.294  18.540  12.859 -0.1774  0.0783  0.0882
 4138W        W47154  34.727  25.040  16.236 -0.2603 -0.1228  0.2344
 4139W        W47155  18.798  26.354  15.563 -0.1454 -0.0129  0.0397
 4140W        W47156  18.530  11.375  13.839 -0.0348  0.2067  0.1402
 4141W        W47157  21.692   0.750  15.102  0.0582  0.0401  0.1580
 4142W        W47158   1.987  13.590  22.456  0.4149 -0.1422  0.3435
 4143W        W47159  34.083  14.021  24.384 -0.0777 -0.2016 -0.2172
 4144W        W47160  12.042  27.341  13.873 -0.2410  0.2324  0.0255
 4145W        W47161  30.387  10.706   1.926  0.0845 -0.1123 -0.0224
 4146W        W47162  11.687  25.866  15.351  0.0398 -0.1913  0.2728
 4147W        W47163  22.137  17.658  14.521  0.1038 -0.0937 -0.0881
 4148W        W47164  10.675   1.384  25.153 -0.0121 -0.1327  0.2775
 4149W        W47165  12.025  26.258  18.737 -0.0177  0.0305  0.0843
 4150W        W47166  34.342   7.468  25.877  0.1550  0.1436 -0.0905
 4151W        W47167  32.319  16.189   4.060  0.0239 -0.3028 -0.1067
 4152W        W47168  24.273  34.767  14.885  0.1205  0.0854 -0.3999
 4153W        W47169  33.137  21.512  25.134  0.0055  0.4202  0.2555
 4154W        W47170   5.940  18.601   6.566  0.1071 -0.0222 -0.1066
 4155W        W47171  18.546   2.452  22.401 -0.0193  0.0369  0.1995
 4156W        W47172  27.238  17.034  15.497 -0.0922 -0.2061 -0.0955
 4157W        W47173  18.398  22.639  22.099 -0.0640 -0.0756  0.0050
 4158W        W47174  29.547  10.712  22.753 -0.0258  0.2333  0.2979
 4159W        W47175  32.882   8.142  25.065 -0.0429 -0.0713 -0.1412
 4160W        W47176   9.067  33.520  22.281 -0.2068 -0.1168  0.0148
 4161W        W47177  34.027  12.337  20.344  0.2078 -0.0819  0.0575
 4162W        W47178   0.404   6.580  16.297 -0.1591 -0.0276 -0.0472
 4163W        W47179  19.009  13.495   1.033  0.1436 -0.1907  0.3294
 4164W        W47180   6.048  16.671  17.543 -0.0703 -0.0222 -0.0894
 4165W        W47181   3.995   6.026   6.358  0.0691 -0.1884 -0.3443
 4166W        W47182   3.330  14.692  19.520  0.0689 -0.0884 -0.0550
 4167W        W47183  33.218   2.304   8.255  0.1626  0.1196 -0.2397
 4168W        W47184   0.600  17.594  24.407  0.2027  0.1402 -0.1661
 4169W        W47185  22.781  22.030   3.148 -0.0702 -0.1220 -0.1044
 4170W        W47186  33.750  17.064   4.757  0.2355 -0.2371 -0.2877
 4171W        W47187  30.636  26.123  18.985 -0.1908  0.0055  0.2042
 4172W        W47188  28.257  16.942  18.411 -0.1026 -0.0955  0.3174
 4173W        W47189  23.888   3.203  16.847  0.0564 -0.1466  0.1764
 4174W        W47190  22.807  23.265  24.817 -0.4392  0.2186 -0.2575
 4175W        W47191  20.359   4.309  24.090 -0.1518  0.0015  0.1709
 4176W        W47192  19.349  16.814   3.061  0.0326 -0.0857  0.0777
 4177W        W47193  31.544   2.960  24.636 -0.0838 -0.2443 -0.2096
 4178W        W47194  15.772  32.913  22.358  0.3626  0.2895 -0.0455
 4179W        W47195  22.978  22.597  20.289  0.2032 -0.0718 -0.0213
 4180W        W47196  24.871   3.917  27.189 -0.0496 -0.0732 -0.3960
 4181W        W47197  16.124  22.198  13.347 -0.2257 -0.1463  0.0426
 4182W        W47198  33.578  18.360  25.870  0.0358  0.2255 -0.1013
 4183W        W47199  22.154   7.333  17.985 -0.0770  0.1030 -0.0865
 4184W        W47200  16.194   9.847  17.575  0.0896  0.0402 -0.1155
 4185W        W47201  29.684   8.196  19.218  0.1459  0.3921  0.3352
 4186W        W47202  20.638   5.480  20.240 -0.0739  0.0722 -0.2383
 4187W        W47203  24.522   8.997  26.507  0.0834 -0.1267  0.0773
 4188W        W47204   0.745  26.524  17.608  0.3265  0.1227 -0.1557
 4189W        W47205   6.440  12.618  22.465  0.0287 -0.0607  0.0034
 4190W        W47206   9.698  21.049  15.158  0.0978  0.3138 -0.0228
 4191W        W47207  33.928  25.921  27.755 -0.1874  0.1582 -0.0000
 4192W        W47208  20.337  28.464  18.044  0.1201  0.0875 -0.0494
 4193W        W47209  23.749  31.865  23.793  0.0625  0.2631 -0.1986
 4194W        W47210  17.138   7.918   5.684 -0.2490 -0.2391  0.2570
 4195W        W47211  34.734  11.367  15.073  0.4299 -0.3651 -0.1398
 4196W        W47212  27.165  21.644  19.300  0.3523  0.3488  0.0240
 4197W        W47213  27.929   0.408   3.047 -0.2914  0.1659  0.1871
 4198W        W47214   0.490  10.280   1.307  0.1007 -0.1700 -0.0217
 4199W        W47215  19.537  11.508  19.080  0.0015  0.0612  0.1525
 4200W        W47216  21.321  29.355  18.038  0.0386 -0.2135  0.0213
 4201W        W47217  16.990  26.614   6.832 -0.0052 -0.2668 -0.6460
 4202W        W47218   1.524  20.823   4.805 -0.4720  0.0579 -0.0128
 4203W        W47219  30.287  23.192  27.932 -0.2094  0.0970 -0.3415
 4204W        W47220  29.356  14.258  20.148  0.1576 -0.1648 -0.0242
 4205W        W47221  25.196  11.875   0.883  0.0290 -0.0206 -0.0404
 4206W        W47222   2.840  15.972  26.748  0.1741 -0.2268 -0.2292
 4207W        W47223   6.478  18.253  13.792 -0.1890 -0.2401  0.3294
 4208W        W47224  32.686  25.309  24.453 -0.1572  0.0011  0.3865
 4209W        W47225  21.046   8.527   8.960  0.1426 -0.2148 -0.2785
 4210W        W47226  21.292   5.365   3.642 -0.1783 -0.1372  0.2005
 4211W        W47227  23.558   8.196  15.987  0.1351 -0.1251  0.0894
 4212W        W47228  17.078   7.608  14.306 -0.0493  0.1670  0.2738
 4213W        W47229  29.691   8.859  24.528 -0.0453 -0.1131  0.4768
 4214W        W47230  27.286  18.413  24.808 -0.0985 -0.0805  0.0798
 4215W        W47231  15.079   6.885   2.077  0.1841  0.0541 -0.1255
 4216W        W47232  13.763   4.538  23.324 -0.1649  0.3610 -0.3122
 4217W        W47233  26.105  21.445  15.844 -0.1468 -0.1931 -0.1090
 4218W        W47234  26.563  12.937   9.510  0.2142  0.0870 -0.3296
 4219W        W47235   4.534  30.060  29.218  0.1148 -0.1573 -0.1916
 4220W        W47236  33.153  32.916  26.593  0.1214  0.0537 -0.0385
 4221W        W47237  26.245   4.216  18.375  0.1447 -0.1587  0.2206
 4222W        W47238  20.978  28.634  28.212  0.0082  0.0772 -0.1965
 4223W        W47239   8.579  10.301  16.346  0.3589 -0.1062  0.1047
 4224W        W47240  18.080   4.019  16.360 -0.0433 -0.0494  0.3594
 4225W        W47241  32.015  32.049  21.369 -0.2341  0.0168  0.0227
 4226W        W47242  27.368  10.559   0.115  0.3323  0.1840  0.2046
 4227W        W47243  33.800  20.789  21.473  0.0358  0.3312  0.3063
 4228W        W47244  17.428  20.415  14.896  0.0949  0.0738 -0.0830
 4229W        W47245  25.996   3.738  16.414  0.2394  0.0181  0.1131
 4230W        W47246   3.316   8.707  14.972 -0.0818  0.1827 -0.1294
 4231W        W47247  20.168  10.494  19.615  0.5918  0.2569  0.1016
 4232W        W47248  17.903   9.888   4.384 -0.1220 -0.2134 -0.0697
 4233W        W47249  11.210  15.529   8.514 -0.1926 -0.1360 -0.1644
 4234W        W47250  17.717  13.848  15.773 -0.0859  0.0160 -0.1265
 4235W        W47251   0.680  19.288  21.936  0.2299 -0.2466 -0.5170
 4236W        W47252  26.614  16.887  23.284  0.0454  0.1236  0.1181
 4237W        W47253  11.132  10.140  14.600 -0.0416 -0.1818 -0.1358
 4238W        W47254  23.976  28.023  16.821  0.1812  0.1246 -0.3317
 4239W        W47255  12.668  11.527  14.635  0.3837  0.0961 -0.0603
 4240W        W47256  29.803   9.386  19.355  0.1356 -0.1984 -0.1494
 4241W        W47257  18.211   7.569  18.882  0.0519 -0.0976  0.1615
 4242W        W47258  30.229  15.169  22.403 -0.3730 -0.0146  0.1721
 4243W        W47259   1.316  16.433  22.961 -0.0561 -0.0141 -0.1065
 4244W        W47260  20.029  29.340  18.539  0.3804 -0.0979 -0.0769
 4245W        W47261   7.071   3.531  10.193 -0.4041  0.1212 -0.1165
 4246W        W47262  25.768  14.311  26.659  0.1186 -0.0165 -0.0715
 4247W        W47263  10.292   9.320  25.001 -0.0333 -0.1675  0.0073
 4248W        W47264  31.661  28.124  25.678 -0.0419  0.0918 -0.0582
 4249W        W47265   3.157   3.965   3.868 -0.1358  0.1512 -0.0189
 4250W        W47266  33.528  33.694  24.790  0.1614 -0.0628  0.1961
 4251W        W47267  14.706  31.529   6.420  0.0431 -0.0501  0.0243
 4252W        W47268  30.797  11.402  18.883  0.0715 -0.1501  0.0070
 4253W        W47269  21.612  20.045  13.140  0.0689 -0.0757 -0.1139
 4254W        W47270  19.727  10.705  17.865 -0.2318  0.2699  0.1204
 4255W        W47271  18.982   7.053  23.153 -0.1237 -0.0116 -0.0398
 4256W        W47272   3.073   1.596  17.419 -0.2771 -0.0200  0.1278
 4257W        W47273  26.600  20.183   2.784  0.2607 -0.0669 -0.0090
 4258W        W47274  31.141   9.948   2.681  0.1310  0.0556 -0.0529
 4259W        W47275  31.719  16.596   5.458 -0.1032 -0.2248 -0.0324
 4260W        W47276  34.180   3.002  29.238 -0.0828  0.0954 -0.1571
 4261W        W47277  18.548  27.685  16.028  0.2736 -0.0773 -0.0062
 4262W        W47278  31.197  32.610   2.627  0.1787 -0.5720 -0.0696
 4263W        W47279  26.839   6.492  23.808 -0.0649 -0.0331 -0.3507
 4264W        W47280  27.300   9.336  23.883 -0.0509  0.1938 -0.1945
 4265W        W47281  24.376  24.992  15.733 -0.0028 -0.0649 -0.2356
 4266W        W47282  29.234  10.608  18.032 -0.2362 -0.2429  0.1695
 4267W        W47283   3.385  23.230   3.385  0.0209  0.0457 -0.0631
 4268W        W47284   5.333   8.934   6.266 -0.2247  0.1569  0.0345
 4269W        W47285  28.262   8.476  24.648  0.0772  0.2046  0.1121
 4270W        W47286  10.218  27.565   6.252  0.0557 -0.0092 -0.3426
 4271W        W47287  19.015  25.373  14.586  0.2583 -0.1862 -0.1076
 4272W        W47288  21.834  23.824   2.772 -0.0303 -0.1526  0.1404
 4273W        W47289  12.464  32.340  16.887 -0.0736 -0.0006  0.3372
 4274W        W47290  15.791   7.381  27.058 -0.2231  0.4281 -0.0360
 4275W        W47291  32.546  12.029  21.412 -0.0981  0.2201  0.1326
 4276W        W47292  18.003  16.450   5.179  0.1734  0.2133 -0.0423
 4277W        W47293  32.759   2.635  18.278  0.0081  0.0690 -0.1309
 4278W        W47294  27.322   6.336   7.049 -0.3368 -0.2125 -0.2710
 4279W        W47295   8.250  12.452  16.221  0.2690 -0.2050 -0.0283
 4280W        W47296  21.059   5.044  21.237  0.1575  0.2085 -0.4345
 4281W        W47297  34.625   1.419  22.126 -0.3338  0.0188 -0.0162
 4282W        W47298   9.844  13.070   8.770 -0.3783  0.3378  0.1031
 4283W        W47299  28.496  30.342  16.681  0.0959 -0.1960 -0.1887
 4284W        W47300  28.010  19.470  17.346 -0.0339  0.4002 -0.1483
 4285W        W47301  22.226  11.510  22.120 -0.1773  0.0084 -0.3975
 4286W        W47302   3.537  28.389  27.045 -0.1083 -0.1348  0.4114
 4287W        W47303  16.349  12.593  28.851 -0.2709  0.0090  0.2335
 4288W        W47304   0.571   6.438   2.102  0.3254 -0.0474  0.0226
 4289W        W47305   7.288  30.628  14.643 -0.0856 -0.1455  0.3248
 4290W        W47306  12.731  10.605  21.512  0.0700  0.1267  0.1154
 4291W        W47307  27.144  17.122   8.715  0.0306  0.1676 -0.0060
 4292W        W47308  30.564  11.929  21.450  0.0319 -0.1290  0.1978
 4293W        W47309   6.511  22.337  29.012  0.0513  0.0224 -0.1330
 4294W        W47310  27.215  19.564  16.406  0.5136 -0.2295 -0.2383
 4295W        W47311  26.824   9.700  25.477 -0.2297 -0.0270 -0.0570
 4296W        W47312  31.603  32.859   9.725 -0.4355  0.1012 -0.2432
 4297W        W47313  25.974  31.341  20.754  0.1784 -0.1289 -0.0212
 4298W        W47314  20.867  24.876   7.015 -0.3715 -0.0354  0.2580
 4299W        W47315  24.303  23.712  24.076  0.3413  0.0429 -0.1722
 4300W        W47316   2.655  18.366  27.227 -0.1973 -0.0117 -0.0091
 4301W        W47317  28.077   2.307  17.210 -0.0282 -0.0681 -0.1420
 4302W        W47318  34.161   7.167   9.433  0.0760  0.0886 -0.0232
 4303W        W47319  16.907   6.343  25.101 -0.1172  0.0845 -0.0041
 4304W        W47320  15.962   7.018  14.004  0.3708  0.2228 -0.0479
 4305W        W47321   2.362  15.807  28.745  0.0629 -0.0560 -0.1399
 4306W        W47322  25.872  25.953  23.491 -0.1240 -0.1020  0.0303
 4307W        W47323  34.164  23.773  20.673 -0.5851  0.2285 -0.2969
 4308W        W47324   1.946   5.333  15.466 -0.0564 -0.0205 -0.0273
 4309W        W47325  25.487   6.352  25.706  0.0003  0.0941  0.3028
 4310W        W47326  20.037  16.732  24.093 -0.1349  0.2167 -0.1395
 4311W        W47327  22.365   9.380  13.498  0.1090 -0.3109  0.0669
 4312W        W47328  16.863  22.953   7.049  0.6079  0.1180  0.1429
 4313W        W47329  32.972  14.623  26.550  0.1938  0.1252 -0.0041
 4314W        W47330  20.184  10.494  17.613  0.2197  0.0834  0.0393
 4315W        W47331  14.907  28.009  21.417  0.2147 -0.0597  0.0169
 4316W        W47332  15.651  33.452  25.752  0.1118  0.1546 -0.1735
 4317W        W47333  22.021  29.514  20.896  0.0648 -0.0147 -0.1980
 4318W        W47334  30.507  28.229  26.186 -0.0377  0.0702  0.0246
 4319W        W47335  15.740  15.313  26.448  0.1289 -0.0598 -0.2214
 4320W        W47336  17.067  24.841  16.798 -0.1258 -0.0559 -0.0594
 4321W        W47337  10.811   2.531   7.793  0.2936 -0.2251 -0.1071
 4322W        W47338  29.911  10.989  24.093  0.0892  0.0385 -0.1100
 4323W        W47339  27.140   4.423  28.866  0.2724 -0.3730 -0.0390
 4324W        W47340  28.511  10.569  16.903  0.1596  0.0925  0.0744
 4325W        W47341  20.230  17.815  29.015  0.0689  0.3629 -0.3408
 4326W        W47342   1.799  19.820  15.047 -0.0394 -0.0088 -0.4089
 4327W        W47343  28.909  13.676   4.539 -0.1701 -0.1056 -0.0443
 4328W        W47344  18.545  22.182  11.908  0.2848  0.1995 -0.4199
 4329W        W47345  19.161  15.322   3.825  0.3979 -0.1504  0.1008
 4330W        W47346   8.155   3.937  28.990 -0.1553  0.2484 -0.1082
 4331W        W47347  18.504   2.740  21.834  0.0463  0.2833  0.1592
 4332W        W47348   9.686   5.865   6.355 -0.1651  0.0226  0.2431
 4333W        W47349  13.095  31.134  26.298  0.1870 -0.0361  0.0048
 4334W        W47350  34.664  16.880  19.560  0.2248  0.0649  0.1691
 4335W        W47351  20.996  32.864  22.735 -0.2252 -0.2434  0.1288
 4336W        W47352  22.440  22.496  17.387  0.0257 -0.0015 -0.0170
 4337W        W47353  24.380  16.384   0.616  0.3089 -0.1831 -0.1358
 4338W        W47354   5.909  26.072  19.051 -0.0550  0.0467 -0.2482
 4339W        W47355  18.313  19.022  14.288 -0.3358 -0.1084  0.0455
 4340W        W47356  10.879  23.232  20.400 -0.4828  0.4443 -0.2519
 4341W        W47357  14.066  13.408  13.187  0.2052  0.3515  0.0905
 4342W        W47358  11.794  17.139   7.771 -0.1581  0.2453  0.0129
 4343W        W47359  24.534  30.341  23.718  0.0581  0.1330  0.1423
 4344W        W47360  16.315  22.867  15.938 -0.1188 -0.1414 -0.3573
 4345W        W47361  21.744  27.218  21.348  0.0620 -0.1522  0.2695
 4346W        W47362   5.099   7.633   0.248 -0.0359  0.2962  0.0005
 4347W        W47363   1.322  25.853  15.932 -0.0688  0.1899 -0.0945
 4348W        W47364  27.409  32.050  27.065  0.2164  0.0305 -0.0782
 4349W        W47365  21.053  15.957  26.298 -0.2131 -0.1299  0.0604
 4350W        W47366  30.454  10.685  26.736 -0.1502  0.3542 -0.1497
 4351W        W47367  27.965  13.066  26.777 -0.3700 -0.0632 -0.0230
 4352W        W47368  20.534   6.177  24.037  0.0741 -0.0709  0.1988
 4353W        W47369  16.466  12.010  16.859 -0.2627 -0.2490 -0.0831
 4354W        W47370  25.253  14.873  20.955  0.2157 -0.2820 -0.0953
 4355W        W47371  14.965  18.798   4.244 -0.0066  0.1320 -0.0439
 4356W        W47372   1.548  27.906  20.306 -0.2424 -0.0583  0.3771
 4357W        W47373  11.467  18.791   1.113 -0.2574 -0.2284 -0.0891
 4358W        W47374  29.562  25.867   4.772  0.2653  0.0784 -0.1713
 4359W        W47375  10.169   9.291   4.008 -0.2544 -0.1899  0.0797
 4360W        W47376  20.803  23.244  22.849  0.0534  0.1428 -0.1510
 4361W        W47377  24.380  22.266  24.601  0.1352 -0.0765  0.2086
 4362W        W47378  30.134  19.331  18.638  0.3948  0.2492 -0.0477
 4363W        W47379  26.443  31.575   0.996  0.2928 -0.0404  0.1804
 4364W        W47380  26.618   3.376   6.090  0.2503 -0.1027  0.0545
 4365W        W47381  33.158   9.187  18.949  0.1154  0.1474  0.1347
 4366W        W47382  19.963  11.548  20.811 -0.1493  0.1742 -0.1691
 4367W        W47383  25.252   8.764   2.712 -0.1926  0.5303 -0.3142
 4368W        W47384  14.581  17.462  15.529  0.1742 -0.0245  0.1449
 4369W        W47385   9.778   4.164  24.377 -0.0309 -0.0177 -0.2445
 4370W        W47386  29.011  10.112  25.405  0.0932 -0.0430  0.4925
 4371W        W47387  30.923  16.380  21.711 -0.0422  0.0831 -0.1292
 4372W        W47388  12.290   5.524  19.980  0.2054 -0.1344  0.0447
 4373W        W47389   8.289   7.413  15.670  0.1457 -0.1089  0.2089
 4374W        W47390  26.487  12.360  26.801  0.3322 -0.1859 -0.0865
 4375W        W47391  18.147  33.097  24.064  0.0267  0.2203 -0.0977
 4376W        W47392  14.872   4.857  18.969  0.1972  0.1163  0.0276
 4377W        W47393  21.280  25.556  25.796  0.1479  0.1125  0.1337
 4378W        W47394  22.220   8.774  19.269  0.0140 -0.0897  0.3291
 4379W        W47395   1.240  32.544   0.122  0.1976  0.1367  0.2889
 4380W        W47396  19.678   7.824  24.994 -0.2100 -0.0423  0.0852
 4381W        W47397  28.807   9.342  19.450 -0.0062  0.2270  0.1025
 4382W        W47398  19.574  25.962  19.739  0.0337  0.2614  0.0392
 4383W        W47399  17.535  15.347   2.164  0.0006 -0.0494  0.3928
 4384W        W47400  27.636  30.889  24.453  0.2905 -0.0247  0.2507
 4385W        W47401  14.562  26.413  29.261 -0.0571 -0.0276 -0.1966
 4386W        W47402   2.647  19.811   7.825 -0.2722 -0.1851 -0.1937
 4387W        W47403  20.077   7.366  23.868 -0.1892  0.0150 -0.4566
 4388W        W47404   8.562  30.330  20.589 -0.1288  0.2534  0.0006
 4389W        W47405  18.351   3.843   6.278 -0.0693 -0.1868  0.0330
 4390W        W47406  16.946  32.466  24.806  0.0332  0.2031 -0.2609
 4391W        W47407  27.944   9.660  21.597  0.0910  0.0583 -0.0453
 4392W        W47408  10.799   9.997   5.520 -0.3047 -0.0437 -0.3629
 4393W        W47409   8.107   7.000  24.017 -0.1725  0.4614 -0.0307
 4394W        W47410  14.671   3.378   6.737 -0.0133 -0.3241  0.2059
 4395W        W47411  21.041  15.810  22.030 -0.1216  0.2839  0.3698
 4396W        W47412  28.805   0.375  18.259 -0.0652  0.2788 -0.0547
 4397W        W47413  22.627   9.960  14.318 -0.3267 -0.0211  0.1285
 4398W        W47414  29.735   1.108   7.429  0.0030 -0.0966 -0.1844
 4399W        W47415  13.310   1.705   5.962 -0.1465  0.1097  0.1209
 4400W        W47416  32.854  13.743   9.860 -0.1206 -0.2827 -0.0894
 4401W        W47417  21.445  10.621  17.186  0.3266 -0.2103 -0.2216
 4402W        W47418  30.464   3.034   8.837  0.1369  0.2642  0.1543
 4403W        W47419  34.653  15.505  22.527 -0.0577  0.2075  0.0275
 4404W        W47420  29.456  21.835  16.545  0.1199 -0.1481  0.1336
 4405W        W47421   1.219  34.335  15.952 -0.3140  0.1430  0.2044
 4406W        W47422  33.571   1.630  17.818  0.2686  0.0040 -0.1449
 4407W        W47423   0.879  33.696   7.207 -0.1555 -0.3717  0.0656
 4408W        W47424  19.762   3.437  18.173  0.1497  0.0639 -0.1948
 4409W        W47425  32.867  10.355  15.188  0.3453 -0.0408 -0.0693
 4410W        W47426  15.415  10.303   2.650  0.1501  0.1452  0.1689
 4411W        W47427  34.728  17.461   0.404  0.0132  0.0454  0.0492
 4412W        W47428  16.465  24.812  26.193  0.1690  0.3195  0.0492
 4413W        W47429  20.804  20.209  15.967  0.0322  0.0821  0.3726
 4414W        W47430   7.177  16.120  27.436 -0.1951  0.0067  0.0605
 4415W        W47431  15.314   8.277  22.704 -0.1700  0.0328  0.3478
 4416W        W47432  22.809  26.221  20.962  0.0782 -0.1469  0.1981
 4417W        W47433  28.981  11.340  20.331 -0.0623  0.0827 -0.3368
 4418W        W47434  23.695  12.974  27.416  0.0681 -0.1978 -0.0384
 4419W        W47435  29.846  11.902  14.825 -0.2514  0.0704 -0.1727
 4420W        W47436  16.032   6.059  27.057 -0.2100  0.0149  0.0193
 4421W        W47437  22.347  13.385  24.962  0.1650  0.1868 -0.0009
 4422W        W47438  14.361   5.308   3.873  0.0492 -0.1228  0.2524
 4423W        W47439  25.637  16.624   6.368 -0.0184  0.2413  0.0490
 4424W        W47440  27.947  23.962  25.103 -0.0370 -0.0954 -0.3160
 4425W        W47441  25.138  24.338  18.313  0.0509 -0.1531  0.1941
 4426W        W47442   6.021  15.553  26.666 -0.0422 -0.0257  0.3013
 4427W        W47443  24.717  19.071  15.501  0.2342  0.3759 -0.0300
 4428W        W47444  10.143  12.064  20.857  0.3459  0.0451 -0.1234
 4429W        W47445  18.024  20.066  15.623 -0.1744 -0.1014  0.0212
 4430W        W47446  27.737  16.888  24.352  0.2363  0.0063  0.2003
 4431W        W47447  34.402  16.285   1.881 -0.3243  0.0185 -0.0480
 4432W        W47448   5.668  26.238   1.468 -0.3413  0.2105 -0.1869
 4433W        W47449  22.618   6.731  19.992 -0.2899 -0.2023 -0.0838
 4434W        W47450  33.889   4.214   8.250 -0.0354  0.1341 -0.0221
 4435W        W47451  30.338  12.278  16.872 -0.1171  0.2459 -0.1162
 4436W        W47452  18.203  10.466  24.112  0.2469  0.3669 -0.0421
 4437W        W47453   6.667   6.295   3.035  0.3020  0.0909 -0.2399
 4438W        W47454  26.005  19.845   5.672 -0.0987 -0.0577 -0.3461
 4439W        W47455  30.844  17.892  22.743  0.0926 -0.0473 -0.0652
 4440W        W47456  31.157   8.218  18.166  0.0616 -0.0178  0.2679
 4441W        W47457   4.910  31.857  27.942  0.0390 -0.1606 -0.0366
 4442W        W47458  28.140   3.623  20.309  0.2585  0.1430 -0.3511
 4443W        W47459  12.364  11.728  26.246  0.1289  0.5049  0.2965
 4444W        W47460  27.812  25.262  20.148 -0.0124  0.2552 -0.4336
 4445W        W47461  16.073  11.433   3.926  0.0253 -0.0742  0.0254
 4446W        W47462  21.687   5.437  15.733  0.0109 -0.2792  0.3058
 4447W        W47463  13.747  18.056  21.266  0.2030  0.1824  0.2023
 4448W        W47464  15.540  19.845  15.507 -0.5460 -0.0506 -0.2277
 4449W        W47465  31.028  14.324  23.571 -0.1601  0.0700  0.0944
 4450W        W47466  28.454  14.769  19.801 -0.0486 -0.2070 -0.0885
 4451W        W47467  23.635  10.990   0.759  0.0300 -0.1016  0.3487
 4452W        W47468  12.235   5.272  23.027 -0.2506  0.0313 -0.0235
 4453W        W47469  23.719  13.650  25.532  0.2854  0.0776 -0.5489
 4454W        W47470  22.627   9.298  18.687  0.0926 -0.3670 -0.0386
 4455W        W47471   4.197  21.408  17.787 -0.0149 -0.1638 -0.1811
 4456W        W47472  13.401  34.340  29.240 -0.2382  0.6315  0.0545
 4457W        W47473  27.616   5.070   1.172  0.1418  0.0043 -0.2337
 4458W        W47474  20.575  25.772  24.013 -0.0180 -0.2423  0.0103
 4459W        W47475   8.485  21.550   5.035  0.0511 -0.1351  0.0681
 4460W        W47476  18.815  24.434   1.542 -0.0711  0.1546 -0.0867
 4461W        W47477   3.910   4.514  25.904  0.3169  0.0982  0.0472
 4462W        W47478  19.580   0.471   3.604  0.1583  0.1761 -0.1044
 4463W        W47479  11.980   4.443   1.344  0.0458  0.3447 -0.1916
 4464W        W47480  23.012   3.669  25.903  0.0852 -0.0922 -0.0441
 4465W        W47481   9.188   4.309  20.926 -0.3144  0.1424 -0.0343
 4466W        W47482  27.082  33.789  16.068  0.1623 -0.3197  0.1080
 4467W        W47483  11.609   9.314  27.917  0.2074  0.2188 -0.4622
 4468W        W47484  28.773  29.798  20.280 -0.1076 -0.2952 -0.1893
 4469W        W47485  32.413   2.082  25.265  0.0783 -0.2974  0.2234
 4470W        W47486  31.599   8.714   3.927 -0.2356 -0.5834  0.0330
 4471W        W47487  25.645  14.730  19.876 -0.2851 -0.0188 -0.2413
 4472W        W47488  16.147   3.778  19.917  0.2124  0.2928 -0.0790
 4473W        W47489  21.427  18.850  14.453  0.0962  0.3442 -0.1250
 4474W        W47490  17.294  11.519  15.810  0.1071 -0.2613 -0.0730
 4475W        W47491  31.344  30.340   4.053  0.4162  0.1189  0.0043
 4476W        W47492  20.527  32.876  21.710 -0.0396 -0.0683 -0.0354
 4477W        W47493   0.585  12.218  18.718 -0.0056  0.0632 -0.0998
 4478W        W47494  23.611   7.620   1.023  0.2449 -0.0783 -0.2758
 4479W        W47495  23.680  13.205  17.594 -0.3469  0.2171  0.1360
 4480W        W47496  28.597   7.527  15.572  0.0933 -0.1230  0.3128
 4481W        W47497  17.704  26.690   0.041 -0.1341 -0.0425 -0.0813
 4482W        W47498  18.762   8.183   1.286  0.1116 -0.4551  0.1507
 4483W        W47499  27.092  24.204   1.726  0.0678  0.3116 -0.1429
 4484W        W47500  20.213   7.808  21.082 -0.1754 -0.0632 -0.0398
 4485W        W47501  28.500  25.043  25.798  0.1480  0.0300 -0.0829
 4486W        W47502  23.613  32.896  11.024  0.2541  0.1797  0.0221
 4487W        W47503  19.125  14.022  22.425  0.1065 -0.2042  0.1992
 4488W        W47504  34.622   4.650  26.820 -0.1198  0.1146  0.4801
 4489W        W47505  22.799   2.101  23.199 -0.0904 -0.3134 -0.0245
 4490W        W47506  11.131  16.678  13.374  0.0116  0.0881  0.2228
 4491W        W47507   7.638  11.117   5.623 -0.2298 -0.1393  0.0355
 4492W        W47508  13.321  16.914   2.551  0.1246 -0.1449  0.2122
 4493W        W47509  20.373   5.070   4.639 -0.0280  0.1105  0.1216
 4494W        W47510  25.517  22.118  19.936  0.2532  0.0097  0.1617
 4495W        W47511   1.983  17.458   5.445 -0.1573  0.0855  0.2129
 4496W        W47512  22.410  26.043  25.957  0.1739 -0.0019 -0.1218
 4497W        W47513  11.866  29.637   2.645  0.1835  0.0451 -0.1259
 4498W        W47514  33.453  23.186   4.087 -0.4992  0.1446 -0.1878
 4499W        W47515  30.348   6.025  19.025  0.0313 -0.2595  0.1795
 4500W        W47516  30.993  19.328   6.117 -0.2204 -0.2597 -0.2808
 4501W        W47517  22.329  30.790   8.456  0.1021  0.5797 -0.0697
 4502W        W47518  34.394   2.238  17.124 -0.1628 -0.0766  0.5382
 4503W        W47519  34.142   8.370  15.805  0.1267 -0.2452  0.2503
 4504W        W47520  22.637  14.026  15.978 -0.0894  0.0539  0.0935
 4505W        W47521   0.837  20.550  18.162  0.1464  0.0976  0.0295
 4506W        W47522  18.969  11.852  18.381 -0.1955 -0.2207 -0.3800
 4507W        W47523  21.917   3.465  23.381  0.1898 -0.1637 -0.0387
 4508W        W47524  34.129  10.485  21.147 -0.0335 -0.2267  0.2981
 4509W        W47525   7.826   5.019   7.808 -0.1901 -0.3572 -0.2558
 4510W        W47526  23.804   6.735  26.910 -0.1720  0.0764  0.3204
 4511W        W47527  29.309  19.781  21.769  0.0172 -0.0352  0.4043
 4512W        W47528  16.349   4.197  27.961 -0.0201 -0.1156 -0.1123
 4513W        W47529  22.742  17.606   9.858  0.3045 -0.1171  0.0192
 4514W        W47530  16.744  33.878   5.154 -0.1264 -0.0558 -0.0510
 4515W        W47531  31.166  32.320  27.962  0.3404 -0.2463 -0.3782
 4516W        W47532  23.647  22.098  21.731 -0.0652 -0.0727 -0.0790
 4517W        W47533   4.026   6.719  19.373 -0.0670  0.5249  0.1082
 4518W        W47534  16.887  20.872  13.357  0.1661  0.0361  0.3417
 4519W        W47535  30.111  14.759  25.985 -0.2283 -0.0304 -0.2110
 4520W        W47536  27.688  22.588  24.322 -0.2705  0.1900  0.3554
 4521W        W47537  28.915  19.156  27.701 -0.2533 -0.2668 -0.0799
 4522W        W47538   2.507  12.071   2.798 -0.1338 -0.4511 -0.0226
 4523W        W47539  19.138  33.636  24.693 -0.1772  0.0059 -0.2050
 4524W        W47540  14.917   8.654  21.736  0.1349 -0.0071 -0.2775
 4525W        W47541  20.450  26.866  27.035 -0.0560  0.1616  0.0388
 4526W        W47542  16.171  11.331  22.400  0.0301  0.0639  0.1895
 4527W        W47543  20.371   8.238   4.925  0.2903  0.0198 -0.2498
 4528W        W47544  11.321   7.451  21.367  0.1335  0.1409  0.1624
 4529W        W47545   1.240  29.487   2.885 -0.1758  0.2227  0.0249
 4530W        W47546   8.914   6.893  28.416  0.4254 -0.0401 -0.1098
 4531W        W47547  11.448  14.296  14.090  0.0914  0.0362  0.0798
 4532W        W47548  27.477   7.161   4.413  0.4139 -0.2845 -0.1268
 4533W        W47549  16.695   0.471   2.360  0.2525 -0.2347  0.1319
 4534W        W47550   1.563  21.005  26.934  0.1148  0.0880  0.1915
 4535W        W47551  17.914  13.410  26.429  0.1193  0.0783  0.0123
 4536W        W47552  30.992  15.143  19.509  0.1949  0.0735  0.0694
 4537W        W47553  10.676  18.859  20.991 -0.0154 -0.3020  0.1799
 4538W        W47554  32.129   6.545   0.517 -0.3213 -0.0796 -0.0137
 4539W        W47555   4.067   9.309  24.681  0.3955 -0.1237  0.1566
 4540W        W47556  30.813  10.083  10.443 -0.2375  0.4753 -0.1736
 4541W        W47557  32.290  30.944  27.825  0.0875  0.0613 -0.0876
 4542W        W47558   5.309  22.424  16.998 -0.1535  0.0905  0.1341
 4543W        W47559  15.192  14.995  13.914  0.0744  0.2035 -0.2058
 4544W        W47560  29.235   9.000   3.700  0.0183 -0.2247  0.1993
 4545W        W47561  11.919  23.023   9.042  0.2035 -0.0565  0.1695
 4546W        W47562  22.492   7.218  13.653  0.1129 -0.1503 -0.3974
 4547W        W47563   1.496  13.372  20.976  0.1757  0.0024  0.0365
 4548W        W47564  20.612   1.197  28.395  0.1663 -0.0358  0.1132
 4549W        W47565  26.472  15.057  29.212  0.0945 -0.1656  0.2051
 4550W        W47566  28.655   7.181  11.164  0.0162  0.2092  0.0040
 4551W        W47567  24.929  13.935  17.750 -0.4235  0.3026  0.0291
 4552W        W47568   1.919  32.985   7.846 -0.0094 -0.0829 -0.2164
 4553W        W47569  19.087  23.438   1.124  0.1165  0.4903  0.2894
 4554W        W47570  32.809  17.642   6.823  0.2605  0.3980  0.1296
 4555W        W47571   5.107  23.617  26.568 -0.0036 -0.0678 -0.3474
 4556W        W47572   8.948  13.836  17.038 -0.0538 -0.0607  0.2096
 4557W        W47573  24.928  26.284  26.924  0.1648 -0.0368  0.2871
 4558W        W47574  15.299  28.520   5.308 -0.1505  0.3861 -0.0853
 4559W        W47575  14.222  23.852  16.720  0.0779  0.2953  0.0234
 4560W        W47576  13.693   8.842   2.928  0.1053 -0.1069 -0.3717
 4561W        W47577  15.362   6.810  20.387  0.2285 -0.0087 -0.1241
 4562W        W47578   1.107  14.384  20.829  0.0196  0.0253  0.0707
 4563W        W47579   0.330  11.096   4.425 -0.0375 -0.1810  0.0570
 4564W        W47580   3.714  18.281   1.503  0.1419  0.0484  0.1534
 4565W        W47581  12.140   3.372  20.066  0.0134  0.0515  0.1446
 4566W        W47582   7.855  29.406  22.404  0.1721  0.0967 -0.2280
 4567W        W47583  22.236   3.060  20.649 -0.1457 -0.1497  0.0261
 4568W        W47584  34.748  15.559  28.354  0.0073  0.1981 -0.2947
 4569W        W47585  29.919  22.528   6.819 -0.1456  0.0106  0.1817
 4570W        W47586   3.620  34.681  17.547  0.1527 -0.2052  0.0815
 4571W        W47587  24.676  25.598  26.169 -0.2174  0.1274 -0.3229
 4572W        W47588  28.258  13.125   3.529 -0.0881 -0.4389  0.2514
 4573W        W47589  23.857  11.818  18.320  0.0341  0.1076  0.2140
 4574W        W47590   3.065  25.281   6.963  0.0938  0.1830 -0.3882
 4575W        W47591   0.972  16.638  21.317 -0.1870 -0.1149 -0.1199
 4576W        W47592  16.781  28.579  19.396 -0.0130  0.0896  0.0757
 4577W        W47593  19.423   6.820  24.157  0.2189  0.1433 -0.2904
 4578W        W47594  20.574   6.136  15.627 -0.2506 -0.0120 -0.4292
 4579W        W47595  18.152  12.213  12.559  0.0666 -0.2068  0.1961
 4580W        W47596  30.620   0.960  16.971 -0.1491  0.2661  0.1237
 4581W        W47597  16.642  16.585  23.794  0.2424 -0.1012 -0.2050
 4582W        W47598  33.933  28.539   5.440  0.0387 -0.1928  0.3392
 4583W        W47599  31.615  18.438   2.217  0.0295  0.0154  0.0673
 4584W        W47600  19.681  31.110  14.938 -0.0969 -0.0874 -0.0715
 4585W        W47601  18.178  31.459   9.114  0.1238  0.0005  0.2443
 4586W        W47602  21.727  10.640   0.263 -0.1275 -0.0660  0.2666
 4587W        W47603  22.979  13.230  27.104 -0.1476 -0.0743  0.2324
 4588W        W47604  20.963   3.699   4.966 -0.3780 -0.0003 -0.2793
 4589W        W47605  24.203  16.961  28.206 -0.1596 -0.2539 -0.2675
 4590W        W47606   7.353  16.508  21.499 -0.0816 -0.1621 -0.2558
 4591W        W47607  11.207  23.020   6.511 -0.3261 -0.1204 -0.0231
 4592W        W47608  17.480   9.434  16.422 -0.1951  0.0103 -0.3071
 4593W        W47609  28.889   5.918  18.481  0.0938  0.0171  0.2979
 4594W        W47610  16.390   4.761  18.817  0.0166  0.0556 -0.0382
 4595W        W47611  32.150   3.388  24.203  0.1732 -0.2819 -0.1158
 4596W        W47612  32.686  11.315  14.928 -0.1069  0.0666  0.0289
 4597W        W47613  24.166  18.725  23.582 -0.0612  0.4592 -0.0533
 4598W        W47614  21.072  13.802  14.955 -0.3311  0.0593 -0.0437
 4599W        W47615  21.342  17.911  16.256 -0.1926 -0.1708  0.2707
 4600W        W47616  25.666   4.076  20.393  0.1841  0.1233 -0.0062
 4601W        W47617  33.722  28.685  22.336  0.0307  0.1740 -0.2233
 4602W        W47618   9.976   8.133  10.166 -0.0765  0.5306  0.3013
 4603W        W47619  32.168  26.881   1.743  0.0687 -0.1147  0.0387
 4604W        W47620  24.409  22.491  15.630 -0.1535  0.1893  0.1045
 4605W        W47621  18.444  30.960   2.274 -0.0059 -0.4390 -0.2856
 4606W        W47622  18.250   6.122   7.649 -0.1190 -0.0495  0.0730
 4607W        W47623   5.798  21.154  15.863 -0.0451  0.2821 -0.2097
 4608W        W47624  18.565   7.040  27.553 -0.3658  0.0285  0.1892
 4609W        W47625  28.723   8.866  22.888  0.2166 -0.0878 -0.2320
 4610W        W47626   1.411  32.195   2.616  0.0287  0.1739 -0.0945
 4611W        W47627  26.960   5.224  18.268 -0.0223 -0.1564 -0.0691
 4612W        W47628  23.114  21.513  22.348 -0.1002  0.2792  0.1877
 4613W        W47629  27.482  14.929   0.535 -0.0453 -0.1832 -0.2027
 4614W        W47630  25.527  27.245   7.587 -0.1160 -0.2419  0.0986
 4615W        W47631  27.917  24.602  15.440 -0.2256 -0.2113 -0.3341
 4616W        W47632  20.746   0.508  25.619 -0.2640 -0.0543  0.3005
 4617W        W47633  31.439  10.198  18.711 -0.4537 -0.2810 -0.1428
 4618W        W47634  16.702  29.677   0.223 -0.1598  0.0159 -0.3971
 4619W        W47635   4.417  12.723  25.329 -0.0807  0.1405  0.0484
 4620W        W47636  21.361   9.521   1.025 -0.1871 -0.1680 -0.2068
 4621W        W47637  18.461  30.193  22.570  0.1847  0.1240  0.0311
 4622W        W47638  28.639  20.220  21.140 -0.0623  0.0715  0.2049
 4623W        W47639  19.418   0.254  18.463  0.0263  0.2405 -0.0428
 4624W        W47640  25.079   5.935  24.506 -0.4584  0.2597 -0.1074
 4625W        W47641  23.431  21.779  21.056 -0.0670 -0.0632  0.2409
 4626W        W47642  26.582   4.169   5.638  0.2223 -0.0548  0.1426
 4627W        W47643  11.141  15.137  20.343 -0.0810 -0.1737 -0.0459
 4628W        W47644  22.813  26.290  25.080  0.2239  0.1058 -0.0718
 4629W        W47645   3.403  16.502  20.667 -0.0247  0.0836  0.1241
 4630W        W47646  18.105  34.394   1.217 -0.1275 -0.3607  0.0727
 4631W        W47647   8.436  15.995   3.248  0.1591 -0.1608 -0.1853
 4632W        W47648   9.131  10.786  15.770  0.1478 -0.0893 -0.2956
 4633W        W47649  13.307  20.951   3.210  0.2097  0.2545  0.0028
 4634W        W47650  32.284  16.544  29.229  0.2616 -0.1463  0.2606
 4635W        W47651   3.385  10.170  19.196  0.1594 -0.2615 -0.0843
 4636W        W47652   5.451  31.342   3.485  0.3043 -0.2026 -0.2713
 4637W        W47653  27.370  16.097  14.999 -0.0839 -0.1387 -0.1896
 4638W        W47654  23.486  15.449   8.062  0.2586 -0.1451 -0.1138
 4639W        W47655   8.137  12.974   7.723  0.3859 -0.1142 -0.1941
 4640W        W47656  16.952  31.311  26.305  0.1837  0.3695  0.2583
 4641W        W47657  19.863  17.194  21.296 -0.0922  0.0421  0.2127
 4642W        W47658   9.736  14.475  23.007  0.1955  0.0637 -0.0982
 4643W        W47659  26.542  14.506  25.032 -0.2997  0.0536 -0.1210
 4644W        W47660   1.180  18.912   4.515 -0.4835  0.0193  0.1853
 4645W        W47661  23.078  17.804  16.833 -0.0581  0.3265 -0.2579
 4646W        W47662  22.349  14.842  27.636  0.1895 -0.0268  0.1383
 4647W        W47663  30.840  24.534  10.056  0.2897  0.1787 -0.1186
 4648W        W47664  31.231  21.906  22.187  0.2417  0.3855  0.0018
 4649W        W47665  31.359  28.931   9.440  0.1119 -0.1613  0.1066
 4650W        W47666  33.153  17.783  28.130  0.1790 -0.0067  0.0005
 4651W        W47667  20.624  10.805  22.316  0.4233 -0.0380 -0.2449
 4652W        W47668  19.127   3.793  14.469 -0.0353  0.0109  0.1580
 4653W        W47669  25.112  27.939  24.679 -0.2655 -0.0886  0.1494
 4654W        W47670  15.852  34.737  22.404 -0.1267 -0.0382 -0.1250
 4655W        W47671   9.053  10.524  27.579 -0.0286 -0.1783 -0.0624
 4656W        W47672  16.108   1.100   9.502 -0.0136 -0.3291  0.3650
 4657W        W47673   9.764  25.594   5.274 -0.2043  0.0827 -0.1910
 4658W        W47674   9.735   5.082  15.458  0.2427 -0.1215  0.1590
 4659W        W47675  29.698  24.876  16.378  0.1619 -0.2217  0.0982
 4660W        W47676  24.202  10.450   6.914 -0.0506 -0.1383  0.1296
 4661W        W47677  29.880  17.692  17.886 -0.0526 -0.0786  0.3700
 4662W        W47678  31.970  21.662  26.504 -0.0038  0.0112  0.0738
 4663W        W47679  24.887   9.068   2.487 -0.2288 -0.1604  0.0692
 4664W        W47680  21.482   7.647   4.676 -0.1657  0.1138 -0.0140
 4665W        W47681  21.700  22.495  15.135 -0.4056  0.1140 -0.2436
 4666W        W47682  17.887  22.655  22.692  0.3978 -0.2616 -0.2512
 4667W        W47683  20.821  18.393   6.772  0.0979  0.1864  0.0214
 4668W        W47684  17.760   7.153   4.699 -0.1943  0.1927  0.1000
 4669W        W47685  12.650  23.951   3.602 -0.0044  0.1573  0.0359
 4670W        W47686  26.462  14.388   8.007  0.1440 -0.0979 -0.0190
 4671W        W47687  33.294  16.352  10.941 -0.0991 -0.2306 -0.0539
 4672W        W47688  12.420  18.767   6.093  0.3251  0.2415 -0.0593
 4673W        W47689  17.551   8.102   3.469  0.1529  0.2763  0.2042
 4674W        W47690  31.043  21.979  25.755  0.1172 -0.1994  0.0043
 4675W        W47691  34.104  30.489  26.551 -0.0288 -0.2277  0.0346
 4676W        W47692  23.075   9.290  27.053 -0.1040 -0.2026 -0.2770
 4677W        W47693  11.846   2.975   0.443 -0.0953 -0.0869  0.1483
 4678W        W47694  31.431  29.363   5.047 -0.0378 -0.4796  0.0358
 4679W        W47695  20.267  15.080  20.435  0.1921 -0.4684  0.0816
 4680W        W47696  27.307   6.353  27.048 -0.1816  0.0789 -0.0334
 4681W        W47697  21.780   3.484  22.346 -0.0285 -0.0710  0.3497
 4682W        W47698  21.187  24.716  25.229  0.0591 -0.1130 -0.2372
 4683W        W47699  17.581  12.661  13.806 -0.0312 -0.1848  0.1212
 4684W        W47700   9.935  19.505  16.253  0.0142  0.4799 -0.0776
 4685W        W47701  23.132  16.218  13.302  0.4768 -0.3280  0.0034
 4686W        W47702  18.855  17.689   4.972 -0.0151  0.2700 -0.0993
 4687W        W47703  14.966   2.320  21.106 -0.1116  0.0490  0.2717
 4688W        W47704  33.374  13.402   8.570 -0.3504  0.0952 -0.2389
 4689W        W47705   4.944  16.018   2.401  0.1230 -0.0635  0.0922
 4690W        W47706  29.611  12.552  19.463  0.2415  0.0754  0.0242
 4691W        W47707  24.542  12.881   4.555 -0.1838 -0.1529  0.1068
 4692W        W47708   5.347  32.435  16.095 -0.3437 -0.2544 -0.2148
 4693W        W47709  23.385  14.898  28.173 -0.2545  0.1392  0.1810
 4694W        W47710  15.197  14.534   0.822 -0.2754  0.1235 -0.1034
 4695W        W47711  21.736  17.633  28.352 -0.1328 -0.0187 -0.2090
 4696W        W47712  28.131  33.795  10.334  0.0601  0.1965  0.1707
 4697W        W47713   1.445  16.604   3.647 -0.1083  0.0700 -0.1427
 4698W        W47714  22.706  27.530   5.799  0.1532  0.1634  0.0693
 4699W        W47715  23.178  15.098  21.342 -0.0040  0.0538  0.0806
 4700W        W47716  28.907  19.050  28.221 -0.0124 -0.1589  0.1128
 4701W        W47717  26.937  33.756   7.004 -0.0588  0.0415  0.2049
 4702W        W47718  30.846  30.337  29.085 -0.0627 -0.1048 -0.0687
 4703W        W47719  34.601  27.232   4.554 -0.1981  0.3279  0.1158
 4704W        W47720   0.982  11.056   6.650  0.2803  0.0179  0.2028
 4705W        W47721   3.003  11.698  21.560  0.1625 -0.2295 -0.3665
 4706W        W47722  26.273   2.496  20.836 -0.0639 -0.1900  0.0177
 4707W        W47723  10.431  12.006  26.271 -0.1027  0.0410 -0.0967
 4708W        W47724  32.785  21.932  19.029  0.0358 -0.0518 -0.1012
 4709W        W47725  29.114  20.310  10.924 -0.1095  0.0334 -0.4395
 4710W        W47726   2.359  20.311  20.048  0.0121  0.3529  0.1670
 4711W        W47727   8.768  24.897   3.913 -0.2572 -0.0443 -0.2761
 4712W        W47728  30.352   7.258   2.305  0.0246 -0.3060  0.2477
 4713W        W47729   0.804  26.660  14.248  0.1208 -0.0964 -0.2363
 4714W        W47730  26.282   8.269   0.613 -0.3347 -0.0153  0.0870
 4715W        W47731  21.887  10.893  21.423  0.1548 -0.1418 -0.0404
 4716W        W47732   8.624  16.881   8.414  0.0455 -0.5040  0.2057
 4717W        W47733  31.778  16.769  21.592  0.1591  0.0893  0.0716
 4718W        W47734  31.155   1.648  27.423  0.2057 -0.0125  0.0932
 4719W        W47735  29.751   0.432  25.808 -0.0727 -0.1033 -0.0864
 4720W        W47736  30.819  14.969  22.938  0.0595 -0.0117 -0.1235
 4721W        W47737  24.073   3.710  14.631  0.1576  0.4281  0.1287
 4722W        W47738  32.723  23.019  22.644  0.3418 -0.0817  0.2279
 4723W        W47739  23.679   0.251  21.369 -0.0193 -0.1328  0.0734
 4724W        W47740  32.202   0.487  18.485 -0.1089 -0.0583 -0.0122
 4725W        W47741  25.075  33.914  23.825  0.1863 -0.3055  0.0649
 4726W        W47742  16.646  17.224   0.386 -0.0480 -0.0986 -0.2137
 4727W        W47743   3.845   8.620  27.088 -0.1454  0.0001  0.1386
 4728W        W47744  12.652  12.342   3.096 -0.2127 -0.2111  0.0112
 4729W        W47745  31.187   8.649  27.183  0.0541 -0.0060  0.0976
 4730W        W47746  26.351  18.450   0.309 -0.0411 -0.0860  0.1700
 4731W        W47747  34.559   7.757  23.836  0.1634 -0.1496 -0.0371
 4732W        W47748   3.355  31.765   0.123 -0.0729 -0.1903  0.0975
 4733W        W47749  30.976  16.880   5.358 -0.2248 -0.0782  0.1220
 4734W        W47750  23.860  34.692   3.100 -0.0226 -0.1476 -0.2186
 4735W        W47751  10.936   0.408   0.649  0.1527  0.1399  0.1268
 4736W        W47752  30.991  10.503   9.285 -0.2077 -0.0806 -0.0494
 4737W        W47753  32.462  10.248   9.671  0.2144 -0.2154  0.0954
 4738W        W47754  12.933   0.609   1.833 -0.0240 -0.3979  0.2503
 4739W        W47755  29.255  12.941  26.482 -0.2345  0.0384  0.1057
 4740W        W47756  31.181   8.267  24.208 -0.1319 -0.4498  0.0251
 4741W        W47757  27.939  29.158  18.231 -0.1124  0.2016  0.0002
 4742W        W47758  10.607   7.721   5.087  0.1863  0.1561  0.0956
 4743W        W47759   4.912   5.167  23.176  0.1462  0.3529  0.2912
 4744W        W47760  28.755   7.527   1.248  0.1225  0.0768 -0.0085
 4745W        W47761  16.049   8.582   2.027 -0.0863  0.0730 -0.4063
 4746W        W47762  22.438  17.415  24.670  0.3324  0.1668  0.0377
 4747W        W47763  20.015   8.278  16.731  0.2704  0.0136  0.0575
 4748W        W47764   4.375  18.088  26.619 -0.5237 -0.1215  0.0286
 4749W        W47765  33.132  25.283  27.780 -0.1463 -0.2051 -0.1757
 4750W        W47766  26.142  11.033   7.495 -0.1507  0.4580  0.3769
 4751W        W47767  28.210  17.986  22.472  0.0580  0.3444 -0.0253
 4752W        W47768   9.165   6.523  10.125  0.1876  0.3352  0.0755
 4753W        W47769  24.102  23.680  25.967 -0.0420  0.0197  0.3698
 4754W        W47770  20.367  11.659   9.056  0.2132 -0.0631  0.0165
 4755W        W47771  31.517   1.284   7.652 -0.2282  0.1610  0.2129
 4756W        W47772   9.137  15.076   5.936 -0.1253  0.0432  0.2493
 4757W        W47773  32.987  13.958  22.819  0.1178  0.2627 -0.1609
 4758W        W47774  16.409   9.272   4.469  0.0326  0.0230 -0.2211
 4759W        W47775  20.962  20.138   1.396  0.2511 -0.0762  0.2131
 4760W        W47776  27.798  15.437  17.886  0.1319  0.0755 -0.2051
 4761W        W47777   3.079  27.428   9.905  0.0101  0.2006 -0.0128
 4762W        W47778  33.538   1.804   3.465  0.2677  0.2449 -0.1333
 4763W        W47779  31.367  15.220   0.773 -0.0645 -0.5796  0.3292
 4764W        W47780  31.648   6.812  22.103 -0.1193  0.3395 -0.1395
 4765W        W47781  27.618  30.801  22.690  0.2618  0.0895  0.1081
 4766W        W47782  19.245   0.763   3.843  0.0423 -0.1105 -0.0384
 4767W        W47783  27.243  33.783   8.730  0.0373  0.4052  0.0799
 4768W        W47784  33.134  25.422   3.647  0.1101  0.1477 -0.1559
 4769W        W47785  21.498  27.912  15.203  0.2523  0.1015  0.1565
 4770W        W47786   2.542   8.230  18.515 -0.0984 -0.0901  0.0305
 4771W        W47787  33.637   0.403  28.374 -0.1835  0.1059  0.1202
 4772W        W47788   1.955  17.831  22.535  0.1207 -0.1329 -0.2691
 4773W        W47789  30.729   2.501   9.310 -0.1477  0.1154 -0.2694
 4774W        W47790  14.711  34.486  15.078  0.0684 -0.0226  0.1192
 4775W        W47791  12.788  10.748  20.706 -0.0410  0.2688  0.0297
 4776W        W47792  29.214   1.111   5.701  0.2087 -0.0407 -0.1268
 4777W        W47793  28.601  25.546  26.005  0.1373  0.1599  0.0576
 4778W        W47794  22.373   8.886   6.940  0.2505 -0.0264 -0.2509
 4779W        W47795  19.996   4.209  28.759  0.1684  0.1400  0.2210
 4780W        W47796  29.326   3.913  23.808  0.1459 -0.3495 -0.1827
 4781W        W47797  13.003   3.154  19.838  0.2479 -0.2890  0.1246
 4782W        W47798   4.864  28.243  19.894 -0.0486 -0.2061 -0.4114
 4783W        W47799   8.830  19.189  27.065 -0.0414 -0.2493 -0.1368
 4784W        W47800   3.378  31.692   7.988  0.0828 -0.0029  0.3109
 4785W        W47801  24.146  25.166  19.173  0.0124  0.0039 -0.1512
 4786W        W47802  18.875  14.233  21.422  0.0457 -0.1407  0.0665
 4787W        W47803   7.822   5.902  27.406 -0.0087 -0.4722 -0.1350
 4788W        W47804  24.967  24.579   3.972 -0.0450 -0.1183 -0.1913
 4789W        W47805  16.366   9.701   5.343  0.0263  0.2861  0.0589
 4790W        W47806  25.309  14.303   5.669 -0.2280 -0.0811  0.1691
 4791W        W47807  20.683  10.210   8.256  0.0796 -0.4100  0.2479
 4792W        W47808  12.186  29.465  14.491 -0.3204 -0.2776  0.0319
 4793W        W47809  31.266  23.879  29.109  0.0577 -0.1043  0.0851
 4794W        W47810  23.013  17.158  24.587  0.0993  0.0721 -0.0767
 4795W        W47811  21.276  31.408  16.191 -0.0134  0.2914  0.3953
 4796W        W47812  25.816   2.557  11.749  0.2183  0.1730 -0.1428
 4797W        W47813   5.577   4.930   0.889  0.0545  0.0429 -0.0991
 4798W        W47814  26.904  11.287  23.941 -0.1658 -0.0940 -0.1112
 4799W        W47815  29.683   1.448   6.655 -0.1150 -0.3561 -0.2394
 4800W        W47816  18.543   6.807  25.632  0.1916  0.2437 -0.1457
 4801W        W47817   2.287   5.102  27.800 -0.0505  0.1915  0.1697
 4802W        W47818  28.940  11.503   2.591  0.3031 -0.0446 -0.1455
 4803W        W47819  31.122  12.377  22.990  0.0196  0.0447 -0.1508
 4804W        W47820  24.130  14.198  14.251  0.0268  0.2719  0.0312
 4805W        W47821  27.186  22.280  25.429 -0.4379 -0.5225 -0.2656
 4806W        W47822  27.146   1.298   0.494  0.3551  0.1417  0.1260
 4807W        W47823  28.552   8.763   8.877 -0.1639 -0.1221  0.0356
 4808W        W47824  27.888  20.943   2.868  0.0125  0.3856 -0.1929
 4809W        W47825  27.569  26.555  11.725 -0.2514  0.2697 -0.2170
 4810W        W47826  19.394   2.131  20.274 -0.1082 -0.1230  0.1458
 4811W        W47827  23.228  26.927  27.211 -0.0808  0.1317  0.0873
 4812W        W47828  26.023  29.682  10.835  0.2968 -0.0145 -0.1964
 4813W        W47829  32.658   4.568  19.078 -0.1108  0.2402  0.0099
 4814W        W47830   7.898  16.827  13.900  0.3506 -0.1901 -0.0629
 4815W        W47831   3.348  11.011  19.431 -0.1931 -0.0288 -0.0397
 4816W        W47832   0.359  16.864   5.102  0.0474  0.0699 -0.0000
 4817W        W47833  27.285  33.165  20.726 -0.1930  0.0883 -0.4249
 4818W        W47834  22.152   9.102  25.853  0.0034  0.2878  0.0235
 4819W        W47835   1.155   5.358  16.551 -0.0981  0.1117 -0.0455
 4820W        W47836  30.751   5.470  23.560 -0.1915  0.1882 -0.0325
 4821W        W47837  26.960  10.719   1.001 -0.0706 -0.1798  0.2135
 4822W        W47838  20.377   3.213   0.348 -0.0300  0.0064 -0.3570
 4823W        W47839   2.894  18.048   8.590  0.0244 -0.3861 -0.1632
 4824W        W47840  30.330  27.951   9.437 -0.1840  0.1340  0.1015
 4825W        W47841  33.911  23.906  25.549 -0.2116 -0.0833  0.0746
 4826W        W47842  31.444   1.767  27.034 -0.4138 -0.0512 -0.2162
 4827W        W47843  21.757   3.782   9.654  0.1764 -0.1689 -0.1845
 4828W        W47844   3.536  19.448   5.593  0.0590 -0.1124  0.2669
 4829W        W47845  14.988   7.044   9.160  0.2112 -0.1659 -0.0903
 4830W        W47846  15.802  30.100   4.239 -0.2512  0.1925 -0.2415
 4831W        W47847  27.662   0.485  17.604 -0.2239  0.1022  0.0625
 4832W        W47848  18.183  12.691   1.783 -0.1839 -0.1112  0.5209
 4833W        W47849  28.816  21.664   8.835 -0.0110  0.1197  0.0024
 4834W        W47850  20.681  32.043  23.671 -0.0655  0.0451 -0.0351
 4835W        W47851  29.481  15.924   8.068  0.4059  0.1566 -0.2133
 4836W        W47852  29.489   9.336  21.381 -0.0977 -0.2225  0.3425
 4837W        W47853  26.127   2.915   3.602  0.1241 -0.0787  0.1673
 4838W        W47854  27.613  27.964   3.495  0.3073 -0.0736 -0.1660
 4839W        W47855  32.426   5.824  28.468 -0.1865  0.1820  0.2042
 4840W        W47856  13.897  19.143  25.645 -0.1131  0.0428  0.0110
 4841W        W47857  30.695  12.357  26.265 -0.1197 -0.2723 -0.2304
 4842W        W47858  21.382  11.822   9.281  0.0189  0.1607  0.1726
 4843W        W47859  10.294  19.486  23.020 -0.0665 -0.2878  0.1941
 4844W        W47860  34.485  16.621  24.958 -0.1526 -0.0977  0.2621
 4845W        W47861  19.474  21.950   3.035  0.0429 -0.3270 -0.0887
 4846W        W47862  26.464  22.355   9.741  0.0416  0.1499  0.1818
 4847W        W47863  28.963   7.145  25.596  0.1495 -0.2106  0.1626
 4848W        W47864  23.267  32.815  21.193  0.1637  0.2717 -0.2807
 4849W        W47865  14.489  27.876   3.109  0.3022 -0.1416 -0.0989
 4850W        W47866  21.755   9.583  28.071  0.0530 -0.0362  0.1108
 4851W        W47867   6.856  23.543   4.405 -0.2788  0.1966 -0.1921
 4852W        W47868  30.510   4.691   0.815  0.2803 -0.2213  0.1295
 4853W        W47869  24.105  20.006   3.437  0.2771  0.4041 -0.3918
 4854W        W47870  24.701  20.999  26.938 -0.2355 -0.1259  0.0551
 4855W        W47871  27.647   4.731  22.262  0.0333 -0.1941 -0.2200
 4856W        W47872  27.122   8.099  26.307  0.3380 -0.0677 -0.0099
 4857W        W47873  30.399  11.469   2.021  0.0852  0.1558 -0.1416
 4858W        W47874  16.412   1.476  28.563  0.0756  0.0157 -0.0152
 4859W        W47875  32.822  22.044  27.505 -0.1471  0.1633  0.0915
 4860W        W47876  32.914  21.624   7.928 -0.1181  0.2351 -0.0422
 4861W        W47877  24.563  15.187  25.442  0.1402  0.1712 -0.0494
 4862W        W47878  16.101  34.071   9.991  0.1188  0.1369 -0.4002
 4863W        W47879  13.223  12.571   6.854 -0.0355  0.0034  0.0910
 4864W        W47880  32.617   7.985   7.337 -0.0572  0.2733  0.4344
 4865W        W47881  15.309   4.526  16.460 -0.0117  0.0353 -0.0606
 4866W        W47882  29.412  26.530  28.633  0.0030 -0.2090  0.1894
 4867W        W47883   1.973   4.183   2.956  0.2059 -0.0431 -0.0226
 4868W        W47884  13.886  31.309   6.472  0.0738  0.4054  0.0171
 4869W        W47885  28.029  20.348   1.481 -0.1328 -0.1523  0.0560
 4870W        W47886  22.788  33.970   8.325  0.1919  0.1135  0.2389
 4871W        W47887  26.086  12.677  19.794  0.0761  0.3488  0.3860
 4872W        W47888  33.573  11.178   4.559 -0.0128  0.0573  0.0776
 4873W        W47889  28.469  19.010  22.860  0.1624  0.0545 -0.4851
 4874W        W47890  19.860   1.423   9.006  0.1472  0.0095 -0.0332
 4875W        W47891  34.109   7.573  23.909  0.1347  0.2866 -0.0833
 4876W        W47892  32.240  32.596   6.728  0.1522 -0.2708  0.5681
 4877W        W47893  22.846   5.390  23.095 -0.0542 -0.2573 -0.1392
 4878W        W47894  29.336  12.174   0.858  0.1691 -0.0989  0.2992
 4879W        W47895  20.293  26.812  15.953 -0.0776 -0.0700 -0.2490
 4880W        W47896  26.640   6.210   1.527 -0.1015  0.1099 -0.1435
 4881W        W47897  28.944  21.191   0.957  0.0532  0.0270  0.3565
 4882W        W47898   8.322  31.536  23.228  0.3322  0.0544 -0.0440
 4883W        W47899   2.129  24.589   0.681  0.0924  0.0605 -0.2357
 4884W        W47900  21.501  21.964  26.135 -0.1401  0.1507  0.2192
 4885W        W47901   1.544  15.597  20.320 -0.1713 -0.5175  0.2625
 4886W        W47902  28.509  11.472  24.763 -0.0839  0.2464  0.1155
 4887W        W47903   9.026  10.412   4.401 -0.1004 -0.2680 -0.1519
 4888W        W47904  32.272  12.511  28.176 -0.1914 -0.0676  0.1421
 4889W        W47905  24.965   5.091  21.016 -0.3332  0.0547 -0.2130
 4890W        W47906   3.565  10.688  21.293  0.1155  0.3311 -0.1894
 4891W        W47907   7.195  19.297  26.043  0.1378  0.1143 -0.0030
 4892W        W47908  20.109  16.018  25.324 -0.2980  0.0527  0.1355
 4893W        W47909   4.734  22.243  16.796 -0.3969 -0.0941  0.0391
 4894W        W47910  16.343   3.159  16.912 -0.2455 -0.2091  0.1259
 4895W        W47911  25.847  12.411  18.707  0.0531  0.1365 -0.3883
 4896W        W47912  20.260  32.382  20.121 -0.0182 -0.2791  0.2024
 4897W        W47913  20.060   5.754  15.549 -0.0008  0.1035  0.1798
 4898W        W47914  34.341  31.326   2.803  0.0774  0.2213  0.0576
 4899W        W47915  25.074   3.412  11.902  0.1554 -0.0699 -0.1390
 4900W        W47916  16.783  23.315  20.417 -0.1629  0.1341 -0.0743
 4901W        W47917  10.589  14.575  28.019  0.1524 -0.3268 -0.3166
 4902W        W47918  24.516  29.496   3.247  0.0322 -0.0289  0.1873
 4903W        W47919   2.684  27.603  18.002  0.1189  0.0837 -0.1866
 4904W        W47920  20.041   7.748  18.791  0.1367  0.1207  0.0980
 4905W        W47921  21.728   0.448  18.904  0.0617 -0.0841 -0.1064
 4906W        W47922  20.512   3.430   4.769 -0.1842  0.1668 -0.0060
 4907W        W47923  16.442   6.297  29.034  0.2667  0.2179 -0.4701
 4908W        W47924  24.081  13.480  24.355  0.0966  0.0941  0.3202
 4909W        W47925   9.378  17.073  28.181 -0.3714  0.1984 -0.1940
 4910W        W47926  19.687   0.482   7.250 -0.1317 -0.1557 -0.0848
 4911W        W47927  15.388  14.107   0.612 -0.1587  0.1151 -0.1911
 4912W        W47928  29.666  26.288  26.338  0.1004 -0.1137 -0.3051
 4913W        W47929  16.855   6.938  19.814 -0.0131 -0.1388  0.0547
 4914W        W47930  24.978  28.622   9.553 -0.0269  0.1954  0.2462
 4915W        W47931  29.234   0.716  18.429  0.4207 -0.1765  0.0499
 4916W        W47932   9.475  30.611   8.767  0.1048  0.2525  0.0894
 4917W        W47933  19.378  30.022   5.841 -0.0355 -0.1151  0.3125
 4918W        W47934  19.003  28.717   8.324  0.1429  0.0456 -0.2939
 4919W        W47935  27.271   6.395  28.568  0.0323  0.0035 -0.0086
 4920W        W47936  30.928  17.444   2.057 -0.0442 -0.2189 -0.3204
 4921W        W47937   9.237   9.740  28.584  0.1828 -0.1694  0.1209
 4922W        W47938  19.550  16.427  20.289  0.0786  0.1374 -0.2352
 4923W        W47939  15.525  20.243   5.642  0.0529  0.0463  0.0270
 4924W        W47940  22.462  32.605  23.773  0.3200  0.0840  0.3099
 4925W        W47941   8.231  11.889  20.138  0.1207  0.0074  0.3011
 4926W        W47942  20.768  12.098   0.726  0.0652 -0.1181 -0.0671
 4927W        W47943  26.767  12.933  26.414  0.0728 -0.2250 -0.2898
 4928W        W47944   9.826  18.434   4.387 -0.0291  0.0983 -0.1620
 4929W        W47945  25.716  28.515  18.802 -0.0680 -0.0580  0.0778
 4930W        W47946  16.952  14.036   6.759 -0.1824  0.0281  0.1388
 4931W        W47947  25.946  12.240  22.565  0.2321 -0.2337 -0.1093
 4932W        W47948  22.248   6.951  18.971 -0.2238  0.1388  0.2702
 4933W        W47949  29.471  27.025  20.092 -0.0683  0.3314 -0.2663
 4934W        W47950  19.268  25.423  22.125  0.2362 -0.1019  0.0832
 4935W        W47951   9.694  14.196  24.646 -0.1977  0.1164 -0.1683
 4936W        W47952  10.422  32.189  10.277 -0.1058 -0.0922 -0.1284
 4937W        W47953  14.854  13.774  27.957  0.3065  0.2953  0.0135
 4938W        W47954  17.953  10.305   8.557 -0.1856 -0.0929 -0.4488
 4939W        W47955  22.087  20.305  23.996 -0.1491  0.1533 -0.2151
 4940W        W47956  25.127  27.750   0.271 -0.0925  0.0605  0.2447
 4941W        W47957  25.855  22.797   5.611 -0.0119  0.0980 -0.0985
 4942W        W47958  22.471  11.947  14.102 -0.2341 -0.0699 -0.1474
 4943W        W47959  23.796   8.035  17.113 -0.1053  0.0446 -0.2216
 4944W        W47960  10.185  19.140  26.613 -0.0096  0.0859  0.3724
 4945W        W47961  26.796  17.191  19.148 -0.1325 -0.1972 -0.1003
 4946W        W47962  21.637  22.963   0.169 -0.3608  0.2088  0.0199
 4947W        W47963  24.669  14.001  25.137  0.0029 -0.0125 -0.3319
 4948W        W47964  21.456   8.692  27.632  0.0024  0.1430 -0.0251
 4949W        W47965  23.728  19.745  29.164  0.1867  0.3640 -0.0744
 4950W        W47966  27.329   7.800   2.275  0.3299  0.0438 -0.0404
 4951W        W47967   2.853  15.260   2.491 -0.0538  0.2948 -0.0702
 4952W        W47968   5.159   8.658  19.216 -0.0851 -0.2848 -0.3260
 4953W        W47969  30.754   4.610  28.921 -0.1121 -0.0912  0.2503
 4954W        W47970  22.717   3.507   3.260  0.0645 -0.0014 -0.3960
 4955W        W47971  10.258  26.173  24.421 -0.1694  0.0049 -0.1849
 4956W        W47972  24.181  18.262  16.432  0.2449  0.0736 -0.0562
 4957W        W47973  18.284  21.064   1.620  0.0415  0.0383 -0.0406
 4958W        W47974  16.480  17.366   5.447 -0.3494 -0.0985 -0.0437
 4959W        W47975  11.914  16.914  23.261 -0.2497  0.0665  0.0756
 4960W        W47976   5.584  23.500  22.965 -0.2095  0.1043 -0.5728
 4961W        W47977  23.439   0.657   7.590 -0.0053  0.2403  0.1069
 4962W        W47978  10.183  21.445   1.115  0.1677  0.2109 -0.1220
 4963W        W47979   2.411  13.051  10.250  0.0154  0.1364  0.0469
 4964W        W47980   8.262  10.611  20.445 -0.4576 -0.1658 -0.2476
 4965W        W47981   1.777  20.349   1.706  0.1932  0.1525 -0.1732
 4966W        W47982  32.890   7.096  16.464 -0.0683  0.4180 -0.2201
 4967W        W47983   8.736   5.092   0.868 -0.0005 -0.0253  0.0546
 4968W        W47984   3.726   7.758   9.495  0.1496 -0.1930  0.0543
 4969W        W47985  26.559  20.599   5.952  0.0542 -0.0937 -0.0854
 4970W        W47986  23.804   5.437  27.549 -0.2357 -0.0767  0.2148
 4971W        W47987  15.235   6.371   2.468 -0.0067  0.0206 -0.1738
 4972W        W47988   1.226  13.663  22.522 -0.2097  0.0576 -0.0484
 4973W        W47989   2.150  19.256  25.510 -0.0452 -0.0269  0.0259
 4974W        W47990  27.218   7.557  19.938  0.2621  0.0729 -0.0212
 4975W        W47991   1.843  15.490  22.184 -0.2789 -0.5782 -0.3598
 4976W        W47992  29.512  28.180   5.949  0.0583  0.1088 -0.0105
 4977W        W47993  26.606  18.359  26.699 -0.3000 -0.0754  0.1887
 4978W        W47994   2.787   9.706  27.940 -0.4581  0.0820  0.4152
 4979W        W47995  15.792   5.256   8.686  0.1359 -0.0208 -0.0826
 4980W        W47996  29.239   8.206   1.516 -0.2293 -0.0902 -0.1112
 4981W        W47997  16.310  19.900  20.655  0.0287 -0.0199  0.0634
 4982W        W47998   7.257  33.478  26.340 -0.2075  0.0061  0.2745
 4983W        W47999  11.043  10.030   1.827 -0.5265 -0.3975  0.0332
 4984W        W48000  16.135  23.417   4.803  0.1563  0.0756 -0.1201
 4985W        W48001  17.458  26.060  23.911  0.0519 -0.1532  0.1321
 4986W        W48002  14.711  24.235   4.831  0.0576  0.3537 -0.0463
 4987W        W48003  21.135   8.551  17.316  0.2018  0.0375 -0.0694
 4988W        W48004   3.126  10.287  27.336  0.1070 -0.0558  0.0516
 4989W        W48005  15.138  27.877  15.936  0.0030 -0.0790 -0.3949
 4990W        W48006  26.034   3.404   5.988  0.1685  0.3011 -0.2914
 4991W        W48007   5.541  12.223  25.262  0.0683 -0.0388  0.5167
 4992W        W48008   1.901  23.927   6.147 -0.2696 -0.3493 -0.2596
 4993W        W48009  22.247   5.774  15.132  0.1844  0.1401  0.2094
 4994W        W48010   7.292  23.610   7.531 -0.1516  0.0862  0.0646
 4995W        W48011  34.617  25.576  21.643  0.1980  0.0932  0.0021
 4996W        W48012   7.597  17.327  28.731  0.2181 -0.1094  0.1677
 4997W        W48013  10.873   4.770  26.900 -0.4990 -0.0007 -0.2353
 4998W        W48014  23.214  15.738  13.516  0.1960  0.2742  0.0771
 4999W        W48015  30.716  19.883  20.445  0.0038  0.0467  0.1550
 5000W        W48016  18.733  32.219   7.141 -0.2929  0.1904 -0.0132
 5001W        W48017  22.724  19.073  15.077  0.0421  0.2049 -0.1261
 5002W        W48018  27.641  15.302   9.864 -0.1446  0.0375  0.1917
 5003W        W48019  14.757   0.178  21.215 -0.0162  0.1683 -0.2572
 5004W        W48020  19.256  13.964  28.404  0.0817  0.1395 -0.1641
 5005W        W48021  24.814  12.264   2.912 -0.0028  0.0045  0.1069
 5006W        W48022  25.355   2.791   9.953 -0.2256  0.0825  0.0642
 5007W        W48023  22.385  19.751   3.966 -0.1427 -0.0500  0.1424
 5008W        W48024  24.857  21.089   9.298  0.0269 -0.2127  0.0171
 5009W        W48025  27.079  33.193  25.331  0.1124  0.0089  0.0750
 5010W        W48026  11.670  13.058   6.703  0.4577  0.0265 -0.0910
 5011W        W48027   7.955  26.298  25.460  0.0416 -0.0591 -0.1030
 5012W        W48028  11.538   0.055  19.740  0.3312  0.0120 -0.3512
 5013W        W48029   3.254  19.872  15.930  0.4722 -0.0869 -0.1399
 5014W        W48030  16.224  17.160  19.529  0.0994 -0.1665 -0.1799
 5015W        W48031  26.852   8.544  20.671  0.1009 -0.1780 -0.1088
 5016W        W48032  26.850  24.561  28.864 -0.1873 -0.0228  0.2034
 5017W        W48033  32.279  11.623  25.920 -0.0244  0.0356 -0.1475
 5018W        W48034  23.558  24.362  23.061  0.1037 -0.0987  0.1542
 5019W        W48035  19.507   9.514   4.171 -0.1357 -0.1373 -0.1842
 5020W        W48036   8.473  26.623   8.438 -0.3120 -0.1421 -0.0712
 5021W        W48037   9.154  15.002  19.255 -0.1935 -0.0999  0.0180
 5022W        W48038  22.858   6.448  15.522 -0.1496  0.0926  0.2614
 5023W        W48039  18.189   4.280  21.005  0.0718 -0.1768  0.1766
 5024W        W48040  11.941  15.988  25.490  0.3016  0.1061  0.2980
 5025W        W48041  16.044  13.151  28.648  0.1412 -0.2226 -0.2366
 5026W        W48042  27.569   8.440  10.649 -0.0779  0.2598 -0.1524
 5027W        W48043  20.742  24.273  17.225 -0.3403  0.0849  0.6024
 5028W        W48044  25.418   2.628  25.859  0.0490 -0.3221  0.2324
 5029W        W48045  18.821  27.206  28.670  0.0217  0.1681  0.0437
 5030W        W48046  25.342  11.489   4.590  0.0082  0.2839  0.2481
 5031W        W48047  29.915   3.599  16.443  0.1101  0.1781  0.0700
 5032W        W48048  28.823   7.710  27.494 -0.1575 -0.0954 -0.0447
 5033W        W48049  10.820   9.737  13.044 -0.2201 -0.0921 -0.0763
 5034W        W48050  26.245  13.258  22.363  0.1473 -0.2927 -0.5512
 5035W        W48051   3.544  12.560  19.203  0.0262  0.4643 -0.1403
 5036W        W48052   9.720  12.213   6.026 -0.0748  0.2068  0.1333
 5037W        W48053  26.721   5.850   8.253 -0.1533 -0.0683 -0.1490
 5038W        W48054  27.413  15.116  25.570 -0.1152  0.0625  0.1940
 5039W        W48055  14.230  15.121   2.780  0.0206 -0.4962  0.2606
 5040W        W48056   2.148   0.245   4.367  0.3666  0.3372  0.2197
 5041W        W48057  19.175   7.282   6.504 -0.2491  0.0718  0.1277
 5042W        W48058  34.687  21.000  16.436  0.2026 -0.1286 -0.1628
 5043W        W48059  34.166   9.617  16.340 -0.1125 -0.0583  0.0874
 5044W        W48060  27.797  18.702  25.478  0.0736 -0.1227 -0.0811
 5045W        W48061  25.854  13.974  15.646 -0.1489 -0.0790 -0.0710
 5046W        W48062  27.603   3.272  16.395  0.1641  0.1333 -0.1026
 5047W        W48063   0.477  23.996  19.184 -0.1330  0.0073  0.2550
 5048W        W48064   9.123   1.401  20.928  0.2380 -0.3350  0.4580
 5049W        W48065  29.980  15.941   7.345 -0.0342 -0.0081 -0.1066
 5050W        W48066  29.403  21.110  19.102 -0.3441  0.0440 -0.2506
 5051W        W48067  30.021  12.218   9.727  0.0830 -0.1438 -0.1291
 5052W        W48068  11.668  27.523  25.304 -0.2415 -0.0487 -0.1039
 5053W        W48069  34.717  12.644   3.753  0.1636  0.2672  0.0059
 5054W        W48070  31.424  28.340   2.763  0.0357 -0.0843  0.3173
 5055W        W48071   7.573   9.940  15.597  0.1242 -0.1497 -0.1731
 5056W        W48072   7.241  15.110  25.852  0.2637 -0.0333 -0.0256
 5057W        W48073  19.189  15.217  19.547 -0.2886  0.0997 -0.2128
 5058W        W48074   9.312  20.215  13.334 -0.0599 -0.0367  0.3945
 5059W        W48075   2.135  13.764  28.566 -0.1675 -0.1523  0.1741
 5060W        W48076   1.292  29.474  19.102 -0.0924 -0.0715 -0.0963
 5061W        W48077  20.377  12.493   1.374  0.1254 -0.0800  0.2707
 5062W        W48078  15.644   9.291  16.432 -0.2567  0.0170 -0.1134
 5063W        W48079  22.636  14.750   3.593  0.0458 -0.2523 -0.0125
 5064W        W48080  30.832  11.755  23.044 -0.2362  0.1202  0.0245
 5065W        W48081  21.942  16.172   0.463 -0.0460 -0.2734  0.2021
 5066W        W48082  22.454  16.776   3.944 -0.0700 -0.0397  0.0935
 5067W        W48083  14.056  14.467  27.321  0.0299 -0.0798  0.2259
 5068W        W48084  27.830  12.784  22.499 -0.1896  0.0371 -0.0864
 5069W        W48085  11.086   1.539  27.666 -0.0011 -0.0989  0.2899
 5070W        W48086  30.733  23.509   1.486  0.1556 -0.0527  0.0309
 5071W        W48087  33.759  19.542   0.407  0.1127 -0.1103 -0.1082
 5072W        W48088   7.658   0.825   4.536  0.1456  0.2150  0.0836
 5073W        W48089  33.898  32.036  25.599  0.0531  0.0505 -0.1916
 5074W        W48090  10.580  14.528   3.993 -0.3615 -0.0711  0.0040
 5075W        W48091  21.161  29.929   5.623  0.3441 -0.1348 -0.1300
 5076W        W48092  16.421   8.165  28.955  0.3177 -0.0919  0.2293
 5077W        W48093   7.866  14.356  18.424  0.0585 -0.3839  0.5004
 5078W        W48094  34.694  30.720   8.234 -0.1150  0.2489 -0.0890
 5079W        W48095  21.641   1.865   6.651  0.3085  0.1270  0.0737
 5080W        W48096  32.954  20.391   5.225 -0.4190  0.0812  0.0819
 5081W        W48097  21.281  11.197  18.890 -0.1076  0.2997 -0.0209
 5082W        W48098  12.218  29.231  28.998  0.1018  0.0216  0.0917
 5083W        W48099  19.611  18.231   2.328  0.3396 -0.0548 -0.0549
 5084W        W48100  32.169  16.255  24.241  0.0930 -0.2688 -0.0636
 5085W        W48101  32.041  27.685  24.819  0.0849 -0.2539  0.4445
 5086W        W48102   4.603   9.463   6.393 -0.3603 -0.1436 -0.2228
 5087W        W48103  13.824   8.544   5.406 -0.2972  0.0848 -0.2409
 5088W        W48104   1.872   4.054   7.634  0.0534 -0.4016  0.1140
 5089W        W48105  32.394  15.619  29.272 -0.2022 -0.1474 -0.1011
 5090W        W48106  22.787   7.843  26.635 -0.0272  0.0109 -0.3223
 5091W        W48107  20.129  14.845  25.845  0.0510 -0.0072 -0.2128
 5092W        W48108  31.097   7.591   4.602 -0.3021 -0.0988 -0.1691
 5093W        W48109  11.298  20.953   3.969 -0.0403  0.1364  0.0413
 5094W        W48110  29.740  28.294  26.704 -0.0642  0.0268 -0.2032
 5095W        W48111  30.667  11.497   2.477  0.2766  0.0167 -0.2571
 5096W        W48112  19.557   6.828   1.501  0.2398 -0.0211 -0.0011
 5097W        W48113  34.237  11.417   4.150 -0.1722 -0.1931 -0.3108
 5098W        W48114  27.402  16.767   8.979  0.1892  0.1400 -0.0121
 5099W        W48115  32.510   7.740   3.156  0.2334 -0.0730  0.2994
 5100W        W48116  29.678   3.395  25.631 -0.2565 -0.1037  0.1041
 5101W        W48117   9.599  14.327  16.959  0.1576 -0.4119  0.0539
 5102W        W48118   9.932   9.175  13.841  0.0614  0.1355 -0.0412
 5103W        W48119  32.477  14.349  18.295  0.2272  0.0013 -0.0828
 5104W        W48120  11.293  27.491  18.477 -0.3955  0.0565  0.3052
 5105W        W48121  20.785  21.644  12.620 -0.2523  0.2843 -0.0015
 5106W        W48122  10.027  25.735  15.368  0.1069 -0.0412 -0.0714
 5107W        W48123  21.573  16.110  13.975 -0.1114  0.1332 -0.1244
 5108W        W48124  19.230  30.649  19.631 -0.1052  0.1071  0.2415
 5109W        W48125  24.870  14.006  20.693  0.0286 -0.1893  0.2216
 5110W        W48126  26.375  11.539   0.393  0.1717 -0.1110  0.0286
 5111W        W48127  26.760  10.529  20.235  0.3161 -0.4092  0.2114
 5112W        W48128  32.078   9.278  21.167 -0.0319 -0.0943 -0.0842
 5113W        W48129  27.497  18.186  25.870  0.2180  0.2048  0.0640
 5114W        W48130  28.410  19.149  18.276  0.1441 -0.2137  0.0828
 5115W        W48131   7.362  12.487  22.507  0.1340  0.0005 -0.3268
 5116W        W48132   7.350   1.524  23.646 -0.1732  0.2045  0.1433
 5117W        W48133   2.382  20.457  25.249 -0.1768  0.2213 -0.4303
 5118W        W48134  21.496  14.671   3.725  0.1625 -0.0542 -0.0142
 5119W        W48135  21.386   8.580  16.750 -0.0556  0.3447 -0.1158
 5120W        W48136  20.400  10.025  22.495  0.2876  0.2058  0.2483
 5121W        W48137  16.074  21.822   0.050 -0.0593 -0.0751  0.0942
 5122W        W48138  33.830  26.057  24.784  0.3595  0.0698 -0.1247
 5123W        W48139   3.478  19.880  24.801 -0.1270  0.0811  0.2520
 5124W        W48140   5.269  16.429  14.794  0.1187  0.0630 -0.1197
 5125W        W48141  25.073  22.219  29.019 -0.0207  0.3912 -0.1747
 5126W        W48142   1.012  22.171  17.911  0.0448 -0.1654 -0.0045
 5127W        W48143  23.827  30.558   0.935 -0.2300 -0.2803 -0.0209
 5128W        W48144  28.694  28.439   9.847  0.0442 -0.0025  0.1098
 5129W        W48145   4.101  18.366  21.081 -0.4400  0.0509  0.2967
 5130W        W48146  13.624   8.972  24.162 -0.2708 -0.2357  0.2325
 5131W        W48147   5.245  17.551  19.605 -0.1132 -0.1605  0.0583
 5132W        W48148  17.259  26.569   0.318 -0.1837  0.1038 -0.0556
 5133W        W48149   0.969  30.771   2.148 -0.0037 -0.2969 -0.3047
 5134W        W48150   5.858  27.025  23.812 -0.0613 -0.3650 -0.0058
 5135W        W48151  25.901  12.420  15.494  0.1259  0.0237 -0.1342
 5136W        W48152  28.563   4.779   2.760 -0.0872  0.2332  0.3828
 5137W        W48153   0.294  21.994  21.142 -0.0057  0.1431 -0.1005
 5138W        W48154  25.082   9.248  25.730  0.0790 -0.1848 -0.1146
 5139W        W48155   9.249  12.670  18.120 -0.0928  0.0682 -0.2176
 5140W        W48156  30.555  26.813  27.052  0.1122 -0.0972 -0.3829
 5141W        W48157  30.322   0.899  26.935 -0.0490 -0.0149 -0.2756
 5142W        W48158  17.620  27.052  19.073  0.1280  0.0029  0.2434
 5143W        W48159  23.321  18.474  20.362 -0.0489  0.3438 -0.0040
 5144W        W48160  17.302   5.751  24.211 -0.0403 -0.0863  0.3387
 5145W        W48161  17.287  10.380  25.422 -0.2361  0.1124 -0.0315
 5146W        W48162  24.787  28.947  16.249 -0.0153  0.0572 -0.2683
 5147W        W48163  24.108  10.186  19.821 -0.1314  0.0696  0.1961
 5148W        W48164  19.399  28.093  28.595 -0.3391 -0.2593  0.0504
 5149W        W48165   0.122   4.296  26.134 -0.0064 -0.1576 -0.1006
 5150W        W48166  19.325  13.765  12.166 -0.0227 -0.0311 -0.2943
 5151W        W48167  15.974  28.841  21.293  0.0826  0.0192 -0.1835
 5152W        W48168  27.416  17.612  16.817  0.1714  0.3026  0.0692
 5153W        W48169  11.075  22.318  13.055 -0.1933  0.1461 -0.0302
 5154W        W48170  28.302   9.172   5.701 -0.3455  0.0431  0.1718
 5155W        W48171   6.394  12.862  26.375  0.0320 -0.1192 -0.1378
 5156W        W48172  22.917   8.147  16.116 -0.0417 -0.1408 -0.0981
 5157W        W48173  31.688   8.238  17.250  0.4374  0.1229 -0.2054
 5158W        W48174   0.820   6.636  15.863 -0.0092  0.2519  0.1067
 5159W        W48175   1.136  21.036  22.284 -0.2462 -0.1104 -0.0565
 5160W        W48176  25.766  13.700  19.870 -0.1101 -0.2485 -0.1394
 5161W        W48177  20.470  21.029  15.035 -0.2590 -0.1410  0.1093
 5162W        W48178  29.406  25.982  18.731 -0.0703 -0.0482  0.2137
 5163W        W48179  22.064   3.596  16.236 -0.3212 -0.3976  0.0511
 5164W        W48180  33.724  16.052   0.264  0.0326 -0.3708 -0.2158
 5165W        W48181  23.542  15.892  17.366 -0.0136  0.3140  0.2354
 5166W        W48182   3.456  19.543  15.631 -0.0526  0.1047  0.0106
 5167W        W48183  20.781  20.215  28.567  0.2713 -0.2509 -0.1347
 5168W        W48184  19.809   5.156   5.381 -0.0592  0.0196  0.3381
 5169W        W48185  26.636  22.593  22.651 -0.1498  0.3306 -0.1316
 5170W        W48186  29.157  25.004   0.483 -0.1832  0.0189 -0.0524
 5171W        W48187  10.404   7.042  23.941 -0.0460 -0.1923 -0.3229
 5172W        W48188  11.725  22.340  25.546 -0.1057  0.2457 -0.3090
 5173W        W48189  22.713  13.013  26.169  0.6345  0.1227  0.2664
 5174W        W48190  27.445  22.249  25.853 -0.0584 -0.1136 -0.1328
 5175W        W48191  20.637  21.731  17.084 -0.0012  0.2612  0.0572
 5176W        W48192   0.871  23.560  23.765  0.0135 -0.1658  0.1415
 5177W        W48193  17.062  19.076  15.605 -0.3117  0.0740  0.0174
 5178W        W48194  21.956   6.974  25.341 -0.0383  0.1130 -0.0800
 5179W        W48195  11.985   2.075  21.622 -0.1716  0.1653 -0.1464
 5180W        W48196  16.931  14.296  26.780  0.0757 -0.0856 -0.4152
 5181W        W48197  30.101  14.713  17.428  0.0321 -0.1015  0.0661
 5182W        W48198  18.256  24.937  15.914  0.0739  0.1581 -0.1945
 5183W        W48199   5.405  13.025  23.038  0.1447 -0.1980 -0.4659
 5184W        W48200  23.676   6.199  28.553  0.2255 -0.0004 -0.1012
 5185W        W48201   6.528  16.651  27.599 -0.2316 -0.1171 -0.1777
 5186W        W48202  33.894  17.338  15.115  0.1535 -0.1642 -0.0668
 5187W        W48203  22.171  18.578  17.378 -0.3410  0.0677 -0.2240
 5188W        W48204  25.958  17.765  21.123  0.3827  0.3679 -0.0036
 5189W        W48205  26.635  30.449  18.063  0.2072 -0.2060 -0.3939
 5190W        W48206  32.375   8.807   5.817 -0.0792 -0.2932 -0.0612
 5191W        W48207  15.941   1.292  26.421  0.1659  0.3176  0.1073
 5192W        W48208   1.826  13.016  15.149 -0.0832 -0.0793 -0.0884
 5193W        W48209   1.475  24.844  23.616 -0.0556 -0.1515 -0.0502
 5194W        W48210  16.563   8.784  18.556  0.0668  0.0510 -0.1048
 5195W        W48211   8.543  24.945  15.334 -0.1324 -0.0512 -0.1583
 5196W        W48212  34.736  23.507  14.907 -0.1465  0.0956  0.1997
 5197W        W48213  30.596  19.233  21.819 -0.0074 -0.0361  0.0005
 5198W        W48214  23.999  29.673  18.468  0.0190  0.0312  0.1042
 5199W        W48215  17.974  24.358  18.186  0.0619 -0.1743 -0.4825
 5200W        W48216  29.752  11.426  15.571 -0.2490 -0.0063  0.1046
 5201W        W48217  10.803   4.139  19.322 -0.2107  0.0459  0.0569
 5202W        W48218  19.592  11.765  19.572  0.2195  0.0156  0.2284
 5203W        W48219  23.509  14.667  20.585 -0.2092 -0.1899  0.0084
 5204W        W48220  23.657  10.677  21.601 -0.0759  0.1357  0.0607
 5205W        W48221  27.280   7.594  16.152  0.0755 -0.2977  0.0387
 5206W        W48222  31.886  16.708  19.291 -0.0528  0.0824  0.1890
 5207W        W48223  28.486  21.040  20.939 -0.0616 -0.3126 -0.1473
 5208W        W48224  29.247   9.991  24.828  0.2012 -0.1074  0.0264
 5209W        W48225  23.373  29.473  28.820 -0.0988 -0.0858 -0.0758
 5210W        W48226  10.073  18.760  22.172 -0.0631  0.1803 -0.0096
 5211W        W48227   6.481  29.908  22.402  0.2468 -0.1326  0.0682
 5212W        W48228  21.641  23.749  18.091 -0.1988 -0.0772 -0.0970
 5213W        W48229  14.029   9.541  26.370  0.3007  0.2683 -0.0357
 5214W        W48230  21.450  29.853  19.666  0.1619 -0.0231 -0.2518
 5215W        W48231  18.598  14.301   4.652  0.4596  0.1619 -0.1118
 5216W        W48232  12.697  26.699  17.901  0.0149 -0.1627 -0.1703
 5217W        W48233  16.399  17.260  22.367  0.1678 -0.2396 -0.0037
 5218W        W48234  29.009  15.861  18.445 -0.0275 -0.2517  0.0191
 5219W        W48235  12.847  26.392  15.181 -0.1707  0.1584 -0.0485
 5220W        W48236  25.175  32.084  20.794  0.0383  0.0441 -0.0099
 5221W        W48237  19.793  32.609  27.946 -0.2709 -0.0115 -0.1337
 5222W        W48238  26.247  10.575  20.846 -0.0786 -0.0965  0.2696
 5223W        W48239  24.492   6.084  18.082  0.1568  0.3504 -0.1162
 5224W        W48240  24.788  19.723  17.594 -0.1410 -0.2142 -0.0996
 5225W        W48241  18.381  27.133  15.617 -0.0695 -0.0747  0.0532
 5226W        W48242   3.826  13.847  16.257 -0.0031 -0.0447 -0.0192
 5227W        W48243  17.752   3.056  20.377  0.0812 -0.1542 -0.1401
 5228W        W48244  28.920   7.986  25.135 -0.0129  0.2442 -0.1497
 5229W        W48245  33.461   8.757  24.889  0.1685  0.0215  0.1531
 5230W        W48246  21.089  22.498  16.843  0.0466  0.0942  0.2817
 5231W        W48247  24.313  15.758  25.844  0.0253 -0.2229 -0.0582
 5232W        W48248   2.558  21.196  20.448  0.0150  0.1956 -0.0844
 5233W        W48249  20.400  19.054  21.381  0.2837 -0.0319 -0.0913
 5234W        W48250  19.470  12.295  17.974  0.2598  0.0516  0.0532
 5235W        W48251  26.470  28.592   8.600 -0.1374 -0.2698 -0.0221
 5236W        W48252  32.548   5.478  17.297  0.1784  0.0782  0.0460
 5237W        W48253  26.282   6.330  23.420 -0.0492 -0.0223  0.1809
 5238W        W48254   6.826  14.509  23.734 -0.5166  0.1790  0.2571
 5239W        W48255   8.146  16.618  26.134  0.0401  0.2989 -0.1940
 5240W        W48256  18.518   4.079  22.905  0.1852  0.0241  0.0421
 5241W        W48257  30.133  28.329   5.260  0.0426  0.3768  0.0227
 5242W        W48258  26.036  11.161  16.738  0.0694  0.1087  0.1532
 5243W        W48259   9.553  12.602  21.507  0.2459  0.0076 -0.0398
 5244W        W48260  24.807   0.282  19.809 -0.4423 -0.0563 -0.0459
 5245W        W48261   1.530  22.273  14.393 -0.2775 -0.2609 -0.0388
 5246W        W48262  13.674   6.482  21.317 -0.2491  0.2654  0.0763
 5247W        W48263   0.555  17.056  26.091 -0.0313  0.2582  0.2005
 5248W        W48264  22.645  25.164  19.321 -0.0379 -0.1918  0.0985
 5249W        W48265   8.396   8.328  24.891  0.2297  0.1013 -0.1711
 5250W        W48266  21.118  24.814  14.884  0.1759 -0.1896 -0.0868
 5251W        W48267  27.808  14.349  14.387 -0.0088 -0.1596  0.2075
 5252W        W48268  18.497  27.077   6.268  0.1010  0.0788 -0.2691
 5253W        W48269   3.916  14.890  15.629 -0.1007  0.0159 -0.1370
 5254W        W48270  20.524  11.361  23.115 -0.5054 -0.1991 -0.0488
 5255W        W48271  13.490  13.394  15.148  0.2940 -0.2526 -0.3575
 5256W        W48272  30.618   6.297  17.527 -0.1937 -0.5871 -0.0875
 5257W        W48273   8.127  17.036  20.302  0.0717 -0.0148  0.0041
 5258W        W48274  13.840   5.549  21.043 -0.1689 -0.1801 -0.0599
 5259W        W48275   2.099   6.440   2.588  0.0460 -0.0446 -0.0813
 5260W        W48276  21.786  13.133   8.100  0.0858  0.0523 -0.3387
 5261W        W48277  12.593   1.468  26.362  0.2663  0.0732 -0.2513
 5262W        W48278  11.787  19.794   5.801 -0.0057 -0.2004  0.2292
 5263W        W48279  14.188  22.194  14.920 -0.1566  0.0815 -0.0137
 5264W        W48280  16.427  24.405  12.254 -0.0775 -0.0826  0.2473
 5265W        W48281   5.635  13.338  25.559  0.2206  0.1847  0.1064
 5266W        W48282  27.508  34.072  28.549 -0.0078  0.0655  0.0748
 5267W        W48283  18.929  28.752  20.418 -0.0109  0.1823  0.4829
 5268W        W48284  17.351  24.637  14.295  0.1973  0.2151 -0.3367
 5269W        W48285  25.492  22.639  27.086  0.1347  0.1838 -0.0316
 5270W        W48286  17.882  12.543   4.820 -0.1385  0.2710 -0.2369
 5271W        W48287   1.209  11.062   1.146 -0.4398 -0.1073 -0.1726
 5272W        W48288  25.334   5.752  26.733 -0.1306  0.2840 -0.3364
 5273W        W48289  31.240  19.360   0.391  0.2065  0.1804 -0.4355
 5274W        W48290  16.120   9.560  16.265  0.0225 -0.0481  0.1219
 5275W        W48291  23.281  26.564  16.360  0.0371  0.1382 -0.0061
 5276W        W48292  31.344  11.232  17.584 -0.0765 -0.3017  0.0172
 5277W        W48293  11.537  24.804  29.082 -0.1006 -0.1814 -0.2232
 5278W        W48294  22.148  21.774  15.553  0.4286 -0.0047 -0.1973
 5279W        W48295  26.297  26.238  23.630 -0.3089  0.1002 -0.1721
 5280W        W48296  22.247  21.285  16.935  0.2739 -0.1502 -0.3382
 5281W        W48297  19.230  15.746  19.739  0.0755  0.2712  0.1008
 5282W        W48298  25.257   5.811  18.956 -0.0910 -0.1481  0.1348
 5283W        W48299  10.996   6.332  28.501  0.1061  0.0501 -0.1517
 5284W        W48300   1.497  12.631  23.488 -0.0979  0.0483  0.2507
 5285W        W48301  28.648  17.032  18.679 -0.1075  0.0647  0.2858
 5286W        W48302  13.600  15.672  15.741 -0.3316 -0.3154  0.1770
 5287W        W48303  20.723   4.363  25.123  0.1825 -0.0151 -0.1241
 5288W        W48304   8.437   6.452  15.502  0.3117 -0.2622  0.2236
 5289W        W48305  24.162  10.396  21.860  0.0518  0.2626 -0.2103
 5290W        W48306   1.388  24.612  28.452 -0.0190 -0.2341 -0.0017
 5291W        W48307   8.470  15.568  20.861 -0.1213  0.2688  0.2116
 5292W        W48308  26.951  13.030  20.846 -0.1158  0.1052  0.0399
 5293W        W48309  26.742  23.779  23.726 -0.1261  0.0605  0.2866
 5294W        W48310  27.656  21.368  20.509  0.3285  0.1523 -0.1788
 5295W        W48311   7.843  33.326  17.231 -0.0889  0.1059 -0.3119
 5296W        W48312   8.524  10.993  17.819  0.0688  0.5074  0.0601
 5297W        W48313   2.725   4.784  25.502 -0.1488 -0.1640 -0.0216
 5298W        W48314  30.719  28.963  24.887  0.0718  0.0775  0.2493
 5299W        W48315  28.297  12.786  15.380  0.0525  0.0280  0.0313
 5300W        W48316  13.074  25.736  21.548  0.0861  0.2418  0.0730
 5301W        W48317  30.135  24.762  15.581 -0.0179  0.0397  0.1660
 5302W        W48318  20.580  21.716  16.540 -0.1430 -0.1489  0.0606
 5303W        W48319  21.082   9.561  23.238 -0.3176  0.0594 -0.1077
 5304W        W48320  10.227   8.929  19.622  0.0043 -0.2715  0.2110
 5305W        W48321  19.647   2.177   8.385 -0.0401  0.1129  0.0563
 5306W        W48322   2.546  23.468  26.268  0.1822  0.3200 -0.2595
 5307W        W48323  28.782  15.556  14.505  0.0272  0.2539 -0.0853
 5308W        W48324  32.266   5.469  15.212 -0.1397  0.1258  0.2871
 5309W        W48325  10.545  17.953  20.759  0.0266 -0.1275 -0.1511
 5310W        W48326  21.335   1.921  16.489  0.0448 -0.0681  0.3205
 5311W        W48327  21.830   8.178  16.582 -0.1093 -0.0583  0.1413
 5312W        W48328  10.358  12.324   2.889 -0.0646 -0.0348 -0.3424
 5313W        W48329   5.842  23.485   1.068 -0.1674  0.0598  0.0986
 5314W        W48330  28.061  11.074  24.169 -0.0636  0.0985 -0.2013
 5315W        W48331  27.634  13.099  17.744  0.3058 -0.1461  0.0160
 5316W        W48332   9.701   9.850   0.400  0.1746 -0.1326  0.2629
 5317W        W48333  27.859  34.608  27.026 -0.0619 -0.0159  0.1968
 5318W        W48334  25.789  28.262  25.368 -0.0529  0.0121 -0.0308
 5319W        W48335  30.185  25.786  23.270 -0.1624  0.0390 -0.0332
 5320W        W48336  23.541  31.718  28.164  0.0822 -0.1364 -0.2782
 5321W        W48337  16.776  17.908  20.429 -0.1225 -0.0200  0.0419
 5322W        W48338  11.076   5.114  23.084  0.1621 -0.0918  0.0683
 5323W        W48339  18.017  22.806  21.778 -0.1774  0.0138  0.0708
 5324W        W48340  19.866  20.078  12.997  0.0233  0.0951  0.0386
 5325W        W48341  21.062   5.006   8.855 -0.3071 -0.1491  0.1011
 5326W        W48342  31.953  15.136  28.657  0.0933  0.2034 -0.2689
 5327W        W48343  27.392  17.666  22.125 -0.1495  0.0915  0.1499
 5328W        W48344  20.997   6.570  19.424 -0.0925 -0.1342  0.1637
 5329W        W48345  15.118  33.257   8.976  0.0597  0.2536  0.1539
 5330W        W48346  30.555  27.192  19.908  0.1174 -0.0916 -0.0210
 5331W        W48347  29.236  18.209  21.838 -0.0728 -0.1341  0.3566
 5332W        W48348   6.346  21.844  24.592 -0.3180 -0.2875 -0.0924
 5333W        W48349   0.059  30.061  18.111 -0.0947  0.0257 -0.1728
 5334W        W48350  15.078   8.751  18.938  0.3514  0.0505  0.0473
 5335W        W48351  18.848   9.992  15.441 -0.0777  0.0896  0.1352
 5336W        W48352  17.495   7.983  23.034  0.0223  0.1734 -0.0168
 5337W        W48353  33.979  20.110  17.894  0.5153  0.1733 -0.0913
 5338W        W48354  28.913  17.244  17.565  0.0477 -0.2605  0.1059
 5339W        W48355  30.234  11.397  15.383 -0.1729 -0.2949 -0.1580
 5340W        W48356   2.029  19.986  20.758  0.0949  0.0191 -0.3147
 5341W        W48357  29.858  11.427  14.514 -0.4355  0.0042  0.1509
 5342W        W48358   7.589   8.285  19.865  0.0161  0.1073  0.3185
 5343W        W48359  22.102   6.113  25.912 -0.1181  0.1238  0.0688
 5344W        W48360   7.535  18.909  22.403 -0.0666 -0.2329  0.0320
 5345W        W48361   4.843  33.133   2.744  0.0307  0.3218  0.0520
 5346W        W48362  20.380  23.029  21.905  0.0114 -0.2043 -0.2827
 5347W        W48363  27.635   9.758  17.012 -0.2770  0.0144  0.1083
 5348W        W48364  24.468  33.710  19.820  0.2823 -0.0939  0.1732
 5349W        W48365   4.318  18.892  15.727 -0.1664 -0.3343 -0.1025
 5350W        W48366  33.689  21.497  20.909  0.1984 -0.1513 -0.0043
 5351W        W48367  19.597   5.703  15.761  0.1258 -0.3911 -0.1154
 5352W        W48368  24.571  14.889  18.055 -0.2401  0.1355  0.1268
 5353W        W48369  34.188  28.884  19.548  0.2041 -0.0111 -0.1033
 5354W        W48370   2.174  14.895  25.344  0.0860 -0.1298  0.1815
 5355W        W48371  21.117   1.411  28.492  0.1514  0.1610  0.0366
 5356W        W48372  21.993   9.400   4.199  0.0099  0.0048  0.0013
 5357W        W48373  34.100  20.889  22.149 -0.0508 -0.1504 -0.0846
 5358W        W48374  14.211   1.874  19.356  0.1443  0.0299 -0.2566
 5359W        W48375   2.541  22.358  18.383  0.0560  0.5586 -0.0238
 5360W        W48376   2.663   0.354   0.229  0.0883 -0.0755 -0.0274
 5361W        W48377  17.031  21.639  13.428  0.1686 -0.0206  0.0254
 5362W        W48378  25.249  27.143  25.223 -0.0334 -0.0298  0.1223
 5363W        W48379  34.358  13.123  20.244  0.0549 -0.3406 -0.0073
 5364W        W48380  18.798   2.426   0.597  0.1116 -0.0483  0.1509
 5365W        W48381  12.449   7.066  13.672 -0.1242  0.0985  0.2106
 5366W        W48382  14.260  11.315  12.493  0.0534 -0.0191  0.3026
 5367W        W48383  28.882  17.524  15.458  0.5081  0.0571 -0.2910
 5368W        W48384  17.904  21.568  17.686 -0.0820  0.2775  0.1073
 5369W        W48385  25.458  13.494  27.990  0.1086  0.1554 -0.2506
 5370W        W48386   9.714  11.284  15.966 -0.0562 -0.2559  0.2008
 5371W        W48387  11.810  19.519  14.705 -0.0800 -0.1088 -0.3237
 5372W        W48388   9.734  14.435  25.428 -0.4740  0.0620  0.2130
 5373W        W48389  23.781   1.099  28.090  0.0377  0.1243  0.1148
 5374W        W48390  29.952   9.725  15.314 -0.4678 -0.0656  0.0758
 5375W        W48391   5.447  13.498  24.455 -0.0324 -0.3184 -0.0320
 5376W        W48392  22.694  15.838  18.882 -0.1465  0.2797  0.2121
 5377W        W48393  21.459  12.201  24.918 -0.0372  0.4897 -0.1678
 5378W        W48394   0.984  23.321  18.049  0.0489  0.0706 -0.0469
 5379W        W48395  14.357  12.426  15.427 -0.2966  0.0688 -0.1141
 5380W        W48396  29.013  23.056  23.975 -0.0938 -0.1530 -0.0893
 5381W        W48397  28.512  17.051  17.983  0.1524 -0.0555  0.0480
 5382W        W48398  18.256  21.727   6.541  0.4467  0.0297  0.2390
 5383W        W48399  24.443   8.580  16.490 -0.1261 -0.2395  0.0631
 5384W        W48400  19.690   1.876   0.465  0.1916 -0.3186  0.1742
 5385W        W48401   8.520  29.129  22.953  0.3539 -0.3594  0.1044
 5386W        W48402   5.835   8.414  21.602  0.2512  0.3111 -0.0257
 5387W        W48403  14.351  15.848  14.849  0.1968  0.2917  0.0228
 5388W        W48404  10.199  10.129  21.635 -0.0489  0.0725 -0.1254
 5389W        W48405  21.690  13.432  21.074  0.1739  0.2353  0.1109
 5390W        W48406  20.225  26.623  26.114 -0.0861 -0.2205 -0.1700
 5391W        W48407   4.051  13.625  22.879  0.0407 -0.2489 -0.1324
 5392W        W48408  15.868  18.994  26.070  0.1229 -0.0493  0.1006
 5393W        W48409  33.622  12.061  24.670  0.0116 -0.0101 -0.4736
 5394W        W48410  22.790  16.885  15.267 -0.1051  0.1160  0.1764
 5395W        W48411  28.467  20.258  21.616  0.3725 -0.1554  0.1836
 5396W        W48412  28.982  26.807   4.965  0.1249  0.0394  0.2675
 5397W        W48413  30.459   9.494  21.883  0.2305  0.2881  0.1027
 5398W        W48414  27.424   8.077  28.838 -0.0717  0.0263 -0.0508
 5399W        W48415  27.510  11.665  23.021 -0.0578  0.0588 -0.2299
 5400W        W48416  14.643  11.640  12.164 -0.2167  0.0833 -0.0047
 5401W        W48417  23.868   5.632  15.276  0.0435  0.1222 -0.1397
 5402W        W48418  25.514  23.477  20.138 -0.0127 -0.0543  0.0399
 5403W        W48419  23.447  22.269  14.741  0.2238 -0.0199 -0.0580
 5404W        W48420  23.534  19.968  14.889  0.2002 -0.0223  0.0754
 5405W        W48421  27.601   6.142  19.841  0.2813  0.0170 -0.0155
 5406W        W48422   5.465   2.500  18.548  0.0796 -0.0319 -0.3318
 5407W        W48423  25.758  12.939  23.690  0.0593  0.3242  0.0726
 5408W        W48424  24.725  12.694  23.234 -0.1166  0.1290  0.3090
 5409W        W48425   3.480  15.397  23.128 -0.1257  0.1978 -0.0009
 5410W        W48426  29.558  15.991  25.430  0.0578 -0.0942  0.1190
 5411W        W48427  14.741  22.247  16.919  0.0257  0.3440 -0.2577
 5412W        W48428  16.012  24.996  20.656 -0.1561 -0.0918 -0.0277
 5413W        W48429  27.621  18.914   0.737  0.0683 -0.0427  0.1627
 5414W        W48430  11.435   4.671  19.932  0.5165 -0.1398 -0.1371
 5415W        W48431  22.497   0.493  21.532 -0.2280  0.3653  0.1508
 5416W        W48432   7.230  11.537  14.671  0.0848  0.0425  0.0303
 5417W        W48433  34.012  15.423  25.316 -0.1181  0.0623  0.3282
 5418W        W48434  31.403  28.099  15.533  0.2380 -0.3039  0.1986
 5419W        W48435  29.957   8.675  23.512 -0.1576  0.2724 -0.0622
 5420W        W48436  30.156  11.889  15.516  0.0399 -0.3557  0.0479
 5421W        W48437   6.955  31.292  14.460  0.0379  0.0735 -0.0515
 5422W        W48438  13.829  12.541  15.331 -0.4209 -0.0424 -0.1034
 5423W        W48439  13.899  23.935  19.123  0.0343 -0.0650  0.1318
 5424W        W48440   8.778  16.364  16.315 -0.0202  0.0342  0.3221
 5425W        W48441  24.721   9.627  22.670  0.1400 -0.1785 -0.0351
 5426W        W48442   0.714  12.521  17.772 -0.0410 -0.3764 -0.3949
 5427W        W48443  20.557  25.346  21.779  0.1435 -0.3952  0.0074
 5428W        W48444  11.542  12.970  19.327 -0.3321 -0.2224  0.0905
 5429W        W48445  20.650  12.281  23.856 -0.0806 -0.0588 -0.0299
 5430W        W48446  22.477  22.478  16.807 -0.0032 -0.0088  0.1398
 5431W        W48447  22.279  24.056  21.498  0.2032  0.0873 -0.1520
 5432W        W48448  20.482  20.484  14.140  0.0723  0.0165 -0.1983
 5433W        W48449  24.931  16.395  25.506 -0.0112 -0.1680  0.0643
 5434W        W48450  32.611  23.937  18.510  0.0192  0.4075  0.2460
 5435W        W48451  28.501  26.067  21.358  0.2390  0.1381 -0.2060
 5436W        W48452  23.920  21.662  16.444  0.2712  0.0411 -0.0985
 5437W        W48453  18.472  31.043  21.964 -0.1658 -0.1985  0.2455
 5438W        W48454  20.541  15.704  28.034  0.1418  0.1948  0.1764
 5439W        W48455  30.822   2.738  16.597  0.2210  0.2286 -0.2991
 5440W        W48456  31.185  33.008  25.065  0.0017 -0.0036 -0.1515
 5441W        W48457  29.401  20.337  20.798 -0.0582  0.0441  0.2557
 5442W        W48458  22.993   0.603  21.663  0.0105 -0.3929  0.2923
 5443W        W48459  19.218  11.220  12.869 -0.1358 -0.2841  0.0847
 5444W        W48460  13.335  26.181  14.195  0.1608 -0.1426 -0.1410
 5445W        W48461  16.159  14.384  12.208 -0.0743  0.1648 -0.1050
 5446W        W48462  30.482  25.114  27.239  0.0326  0.1435 -0.0514
 5447W        W48463  21.400  20.541   1.272 -0.0247  0.0116 -0.1691
 5448W        W48464  20.577  18.043  22.587  0.2379  0.0155 -0.0926
 5449W        W48465  18.992   7.091  18.056 -0.0528  0.0717  0.1905
 5450W        W48466   1.909  20.145  16.251  0.1219 -0.1153  0.1321
 5451W        W48467  16.298   3.396  21.561  0.0777 -0.0488  0.2363
 5452W        W48468  34.369  18.354   5.058 -0.0564  0.0577  0.2878
 5453W        W48469  26.096  12.070  16.249  0.0375  0.0056 -0.1728
 5454W        W48470  13.226  24.724  15.801 -0.0838  0.0584 -0.2567
 5455W        W48471  14.295  17.784  15.154  0.1271  0.1862 -0.2441
 5456W        W48472  26.177  20.446  14.672 -0.1301 -0.0333  0.3285
 5457W        W48473  25.681   7.187  15.716  0.4477 -0.0273 -0.2671
 5458W        W48474  24.030   3.153  23.906 -0.1152 -0.0742 -0.1477
 5459W        W48475  13.999  15.885  13.577  0.2571 -0.2752  0.0656
 5460W        W48476  30.902   5.789  23.869 -0.2275  0.2231  0.2358
 5461W        W48477  21.226  22.200  13.638  0.0697 -0.4632 -0.0378
 5462W        W48478   3.425  13.478  17.456 -0.5640  0.1291  0.0508
 5463W        W48479   9.531  20.198  23.601  0.3119  0.3164 -0.1650
 5464W        W48480  17.331  10.708  21.759 -0.1208  0.1373  0.2590
 5465W        W48481  20.604  19.375  15.841  0.1698  0.3959 -0.0367
 5466W        W48482  27.600  23.219  16.277  0.0310 -0.0123  0.1369
 5467W        W48483  25.879   8.638  15.112  0.0247 -0.1862  0.0154
 5468W        W48484  15.858  21.196  19.587  0.1494 -0.0905 -0.1109
 5469W        W48485  24.785  12.757  17.207  0.1580 -0.1723 -0.1247
 5470W        W48486  16.775   4.098  22.156  0.1490  0.1915 -0.0386
 5471W        W48487  33.030  21.701  18.634  0.1022 -0.2659 -0.1339
 5472W        W48488   1.706  15.181  24.557  0.3092 -0.0030 -0.3193
 5473W        W48489  22.469  12.371  17.399  0.0028 -0.1843  0.2497
 5474W        W48490   5.217  20.504  15.962  0.1494  0.2644  0.0601
 5475W        W48491   9.146  11.220  15.499 -0.0110  0.2253  0.1065
 5476W        W48492   0.329  31.999  15.948 -0.2412 -0.1235  0.0903
 5477W        W48493  15.029  17.981  13.354  0.2829 -0.2770  0.2049
 5478W        W48494  32.725  21.472  20.421  0.2769  0.1434  0.1632
 5479W        W48495   1.014  13.663  22.037 -0.3441 -0.0375 -0.1490
 5480W        W48496  33.954   9.229  24.370 -0.4108 -0.1520 -0.1046
 5481W        W48497  20.650  18.384  15.853  0.0296 -0.1299 -0.0564
 5482W        W48498  25.293  18.451   1.724  0.1032 -0.0172 -0.0637
 5483W        W48499  26.115  12.948   0.061 -0.1848 -0.0360  0.0075
 5484W        W48500  11.371  13.269  13.824 -0.0716  0.0427  0.2821
 5485W        W48501   3.458  14.196  22.602 -0.0012 -0.2695 -0.1415
 5486W        W48502  21.213  12.561  25.926 -0.2314 -0.0312 -0.0488
 5487W        W48503  26.746  22.531  16.349  0.1790 -0.0695  0.2054
 5488W        W48504  18.441  16.307  26.758  0.3658  0.0560  0.0438
 5489W        W48505  28.053  15.322  19.728  0.3055  0.4184  0.2747
 5490W        W48506  26.666  25.056  17.139 -0.1576  0.0881 -0.1975
 5491W        W48507   4.610   5.691  13.711  0.0024 -0.0173  0.0731
 5492W        W48508  18.416   3.930  15.567 -0.0594  0.2573  0.1341
 5493W        W48509  24.067  27.832  20.138 -0.0314 -0.4225 -0.1330
 5494W        W48510  28.329  20.437  15.001 -0.0368 -0.2257  0.2859
 5495W        W48511   7.567  24.709  26.382  0.1633  0.1431  0.1095
 5496W        W48512  14.089  14.712  15.404  0.4601 -0.0249 -0.3093
 5497W        W48513  33.941  15.919  26.315  0.0346  0.0354  0.2272
 5498W        W48514  27.274  23.188  22.333 -0.0194  0.0235  0.3440
 5499W        W48515  16.143  10.554   2.222  0.0957  0.1581 -0.0016
 5500W        W48516  31.851   9.660  28.404  0.0443  0.1535 -0.0534
 5501W        W48517  29.269  15.987   1.423 -0.0326 -0.0111 -0.0582
 5502W        W48518  13.061  21.659   5.508 -0.0324  0.2872 -0.3600
 5503W        W48519  29.174  14.397  21.991  0.0953  0.2240 -0.1744
 5504W        W48520  25.728  32.376  27.768  0.1160  0.2710 -0.0699
 5505W        W48521  28.573  15.272  25.082  0.3091  0.0665 -0.1208
 5506W        W48522  13.965   6.366   0.592 -0.0514  0.1004  0.1970
 5507W        W48523   4.891  26.241  25.535 -0.0406 -0.2420  0.1642
 5508W        W48524  23.446  20.480   0.879  0.1527  0.0813  0.3581
 5509W        W48525  17.330  26.436   5.983  0.1620 -0.3148 -0.3989
 5510W        W48526  11.700   8.161   5.957 -0.0945 -0.3911  0.0735
 5511W        W48527  19.290   4.200  23.068 -0.2123 -0.4443 -0.1307
 5512W        W48528  30.347   7.358  16.160  0.2460 -0.5200  0.2361
 5513W        W48529  12.961  31.205  19.050  0.0544  0.2901  0.0442
 5514W        W48530  28.592   7.996   3.277  0.0872 -0.1252 -0.3391
 5515W        W48531  21.832  13.913  12.826 -0.1321 -0.1859 -0.1911
 5516W        W48532  27.648  16.710  27.281  0.1124  0.0296  0.1536
 5517W        W48533  18.948   8.202  20.763  0.0070  0.0317 -0.2399
 5518W        W48534  27.371  27.439  23.931  0.1416  0.0899  0.1240
 5519W        W48535  11.984  10.100   7.272 -0.2961  0.1981 -0.0751
 5520W        W48536  25.562  16.768  26.686  0.0386 -0.0893 -0.1943
 5521W        W48537  29.780  18.000  25.160 -0.0676  0.0222  0.0332
 5522W        W48538  19.158   8.323  26.172 -0.2782  0.1114 -0.0222
 5523W        W48539  16.599  33.216  23.094  0.0684 -0.0864  0.1352
 5524W        W48540  24.213  18.671  17.222 -0.1982 -0.0739 -0.0898
 5525W        W48541  30.779  16.649  18.983  0.0549 -0.1617  0.1245
 5526W        W48542  25.780   2.331  23.739  0.1035 -0.0933  0.1918
 5527W        W48543  33.685  13.912  19.570 -0.1634  0.3348  0.2278
 5528W        W48544  14.132   7.154  27.053  0.1412 -0.0779  0.1014
 5529W        W48545  32.353  19.401  23.473  0.0521  0.2961  0.1008
 5530W        W48546  32.483  32.733  17.138  0.0256  0.0487 -0.0204
 5531W        W48547  28.573  15.880  22.745 -0.0877  0.2111  0.1164
 5532W        W48548  23.893   9.732  18.758 -0.0709 -0.0186  0.0111
 5533W        W48549  22.983  32.265  22.789 -0.2746  0.0011  0.2578
 5534W        W48550  18.203   6.258  17.816  0.0230  0.0094  0.1491
 5535W        W48551  15.731  20.816  24.847 -0.2822 -0.2772 -0.1651
 5536W        W48552  13.522  26.704  14.925  0.0644  0.3498  0.1827
 5537W        W48553  14.572   9.108  13.944 -0.0074  0.2294 -0.1149
 5538W        W48554  28.012  25.755  15.638  0.1832  0.1667  0.2186
 5539W        W48555   6.367  27.147  23.908 -0.1423  0.1114  0.1625
 5540W        W48556  16.844   8.956  16.408 -0.0938  0.1967  0.3198
 5541W        W48557   7.091  18.055  18.365 -0.0393 -0.3116 -0.1369
 5542W        W48558   6.946  22.618   5.843 -0.1620  0.0349 -0.1458
 5543W        W48559  17.222  26.343  26.815 -0.1499 -0.4562 -0.0652
 5544W        W48560  22.442  23.610  26.815  0.1267  0.0994  0.0778
 5545W        W48561   1.410  32.518  21.026  0.2543  0.1101 -0.0268
 5546W        W48562  31.021  22.101  18.598  0.0978  0.0919 -0.1511
 5547W        W48563  17.118  27.347  17.773  0.1348  0.0760  0.2089
 5548W        W48564   0.500   4.967  21.788 -0.1389  0.1232 -0.0762
 5549W        W48565  19.770  11.787  12.849  0.2809  0.2229  0.2582
 5550W        W48566  17.804  28.213  21.340 -0.1557 -0.0944  0.0532
 5551W        W48567  12.296  23.484  13.702 -0.1103 -0.0338  0.2256
 5552W        W48568   5.851  22.323  25.674 -0.2898  0.2054  0.2279
 5553W        W48569   4.236  19.615   1.578 -0.3556  0.0212 -0.0236
 5554W        W48570  31.413  19.066  16.544  0.0688 -0.2302  0.1544
 5555W        W48571  26.536  13.670   1.368 -0.0316 -0.0550 -0.3645
 5556W        W48572  14.233  29.159  17.051 -0.1065  0.1214 -0.1012
 5557W        W48573  14.789  14.781   3.101  0.1986 -0.2092 -0.0488
 5558W        W48574  28.344   9.533  18.281  0.0089  0.1281  0.1583
 5559W        W48575   7.847   7.058  19.679 -0.1366 -0.4357 -0.3458
 5560W        W48576   3.578  18.792  24.569  0.3086 -0.0106  0.1091
 5561W        W48577   8.330   2.183  21.677  0.0030  0.1804  0.0095
 5562W        W48578  20.863  20.273  25.295 -0.1733  0.0028 -0.4965
 5563W        W48579  24.050  11.934  25.944  0.1048  0.0863  0.2686
 5564W        W48580  20.440   8.059  21.437 -0.1635 -0.1488 -0.1150
 5565W        W48581  23.959  22.240  21.301  0.2781 -0.1853  0.1276
 5566W        W48582   3.903  29.212  20.218 -0.1660  0.2591 -0.1648
 5567W        W48583   0.822  25.891  22.342  0.1334 -0.1636  0.1104
 5568W        W48584   2.295  14.715  18.955  0.0418  0.1931  0.1342
 5569W        W48585  14.407  11.524  21.599  0.0411  0.0519 -0.1391
 5570W        W48586  25.078  26.708   5.253  0.0416 -0.1353 -0.1438
 5571W        W48587  27.543   1.741  26.933  0.3476  0.0522 -0.0542
 5572W        W48588  27.708  12.323  19.934 -0.2238 -0.0353 -0.2625
 5573W        W48589  29.940  30.037  27.834  0.0307 -0.3035 -0.1970
 5574W        W48590  33.497  26.350  25.205  0.0808  0.0925  0.0009
 5575W        W48591   4.351   7.236  28.435 -0.5585 -0.0787  0.1553
 5576W        W48592  25.100  10.568  19.952 -0.1967 -0.0013  0.1868
 5577W        W48593  33.534  17.834  20.611 -0.2767 -0.1823  0.0321
 5578W        W48594  30.505  14.422  19.138  0.0329  0.0614 -0.3010
 5579W        W48595  27.365   6.747   3.521  0.0262  0.0430 -0.2359
 5580W        W48596  22.185  26.213   0.592  0.0360  0.0187  0.0435
 5581W        W48597  13.415  30.043  19.551 -0.1560  0.1848  0.2309
 5582W        W48598   9.487  19.717  23.597  0.1128 -0.2768  0.1864
 5583W        W48599  31.775  29.113  23.416  0.4490  0.0223  0.0791
 5584W        W48600  30.402  28.598   0.375 -0.1731  0.0655 -0.2986
 5585W        W48601  15.864  16.851  20.517  0.1859  0.0596 -0.1955
 5586W        W48602  25.434   9.998  16.704  0.0676  0.1175  0.1003
 5587W        W48603   5.338  19.224  13.331  0.1275 -0.3575  0.0908
 5588W        W48604  29.672  27.702  19.711 -0.2232  0.0502  0.1441
 5589W        W48605  27.455  28.502   6.701 -0.0705 -0.0664  0.2514
 5590W        W48606  26.671  14.910  13.675  0.0936 -0.0937 -0.3210
 5591W        W48607  23.316  15.442  26.100  0.1147 -0.1297  0.3098
 5592W        W48608  22.370  28.686  15.813  0.0476 -0.0655  0.0326
 5593W        W48609  12.036  29.549  21.576  0.2605  0.2041 -0.1798
 5594W        W48610  11.600  10.314   0.220 -0.1136  0.1104  0.0049
 5595W        W48611  16.620  10.956  21.170 -0.0164 -0.0833  0.2452
 5596W        W48612  24.241  25.406  14.876  0.1911  0.2219 -0.1468
 5597W        W48613   0.227  25.051  27.373  0.2988 -0.1668 -0.3007
 5598W        W48614  16.879  22.335  13.223 -0.0285  0.2721 -0.1088
 5599W        W48615  11.967  20.651  13.056  0.0335  0.3536  0.1002
 5600W        W48616  24.687  16.162  23.609 -0.0733  0.3375  0.1455
 5601W        W48617  29.930   7.484   1.166 -0.1565 -0.1142  0.1152
 5602W        W48618  19.155  29.485  18.899  0.2272 -0.0425  0.1074
 5603W        W48619   4.875   8.708  23.117  0.0005 -0.2046  0.0777
 5604W        W48620  16.863  20.147  22.137 -0.2341  0.3841 -0.3555
 5605W        W48621   1.194  29.006  21.174 -0.1084  0.2416 -0.3875
 5606W        W48622  10.852  16.131  25.083 -0.0283  0.1013  0.2083
 5607W        W48623  12.015   0.736   4.524  0.3000  0.0829  0.0380
 5608W        W48624  21.462   8.489   0.396  0.3802 -0.1721  0.1622
 5609W        W48625  19.267   9.471  26.347 -0.0958  0.0772  0.0290
 5610W        W48626   8.212  21.770  20.287 -0.1285  0.0003 -0.2699
 5611W        W48627   8.183  10.241  24.836 -0.0585  0.3653 -0.4059
 5612W        W48628  26.706   9.053  18.006 -0.1221 -0.0107 -0.1589
 5613W        W48629  25.322  10.002  21.243 -0.0273 -0.1468  0.1024
 5614W        W48630  15.424  16.875   6.555  0.4603  0.3124 -0.0840
 5615W        W48631  20.729   4.451  26.960  0.0576  0.0841 -0.0574
 5616W        W48632  27.746  22.260  16.006  0.1934  0.1069 -0.1117
 5617W        W48633  33.850  14.326  17.598  0.0912  0.2816  0.2969
 5618W        W48634  20.496  29.018  25.628  0.1696 -0.1539 -0.0063
 5619W        W48635   4.001   6.280  15.325 -0.3047 -0.0878 -0.2062
 5620W        W48636  32.450  19.654  19.113  0.4155 -0.0570  0.1563
 5621W        W48637  32.615  12.996   1.645  0.0009  0.2213 -0.4172
 5622W        W48638  25.617  21.613  17.917 -0.0132  0.0872 -0.1506
 5623W        W48639  21.152  25.819  28.162  0.0191  0.0836 -0.0258
 5624W        W48640   1.893   4.947  18.538 -0.0585 -0.1384  0.0642
 5625W        W48641  21.312   4.205  18.521  0.3083 -0.0256 -0.2343
 5626W        W48642  25.855  34.392   7.293  0.0620  0.3607 -0.0260
 5627W        W48643  22.898   2.708   0.841 -0.1020 -0.1598  0.0416
 5628W        W48644  18.309  24.093  23.048 -0.0786 -0.1653  0.0638
 5629W        W48645  25.041  17.021  22.622  0.3831  0.1468 -0.1131
 5630W        W48646  20.583   9.794  27.468 -0.3157 -0.1630  0.0310
 5631W        W48647  19.053  28.534  24.485  0.0932  0.0116  0.1679
 5632W        W48648  13.096  12.333  14.009 -0.3128  0.3273 -0.0110
 5633W        W48649  17.736  23.702  15.175 -0.1807 -0.0347 -0.0214
 5634W        W48650  22.739   7.555  24.317 -0.0232 -0.2704 -0.1599
 5635W        W48651  25.136  28.781  16.513 -0.0699 -0.0319 -0.0524
 5636W        W48652  14.970   8.818  24.631 -0.1796  0.1669  0.1127
 5637W        W48653   2.384  33.030  14.511 -0.0449  0.2893  0.1763
 5638W        W48654   7.668  19.565  25.295 -0.1168 -0.0174  0.1083
 5639W        W48655  12.573  16.543  11.815  0.0638 -0.2659  0.2096
 5640W        W48656   2.010  11.709  23.721 -0.3284 -0.0475  0.1263
 5641W        W48657  24.521  16.046  16.996 -0.4361  0.1521  0.1493
 5642W        W48658  10.417  11.000  17.193  0.3854 -0.1436 -0.1354
 5643W        W48659  10.689  19.088  18.878 -0.0941 -0.1142 -0.0816
 5644W        W48660  21.906   8.240  27.252  0.4049 -0.0824 -0.1742
 5645W        W48661  26.538  33.466  18.834  0.2136 -0.2862 -0.0690
 5646W        W48662   1.053  23.013   0.958  0.1413  0.0346 -0.0720
 5647W        W48663  26.572  10.486  22.352 -0.0890 -0.1124  0.0628
 5648W        W48664  29.543  16.691  15.550  0.1124  0.1255  0.4767
 5649W        W48665  11.802  28.767  20.625 -0.1545 -0.1657 -0.2206
 5650W        W48666  20.648  34.656  16.903  0.1121 -0.0556 -0.3722
 5651W        W48667  18.930  16.778  21.244  0.1619 -0.1281 -0.0255
 5652W        W48668  30.018   2.517   5.088  0.3079 -0.1834  0.0617
 5653W        W48669  16.635  20.985  13.837 -0.0500 -0.1623 -0.0780
 5654W        W48670  24.189  32.205  18.015  0.2655  0.4033  0.0622
 5655W        W48671  20.141  31.437  17.994 -0.0235 -0.0433  0.2248
 5656W        W48672   8.628  13.441   1.127 -0.2177 -0.0230 -0.1185
 5657W        W48673  20.142   3.305   1.519 -0.1370 -0.1732 -0.1032
 5658W        W48674  14.729   0.364  20.755  0.1314 -0.1408  0.1092
 5659W        W48675  20.954  31.416  22.258  0.2722  0.0242  0.2419
 5660W        W48676  30.716  29.644  17.357  0.4793  0.0203  0.1439
 5661W        W48677  26.845  34.326  20.857 -0.1132 -0.2496 -0.4287
 5662W        W48678  27.651   8.424  24.065  0.1509 -0.0964  0.1519
 5663W        W48679  20.255  25.226  15.196 -0.1027 -0.0123 -0.0124
 5664W        W48680  11.362  15.961  23.757 -0.0969 -0.1732 -0.4135
 5665W        W48681  25.419  22.432  24.971 -0.1815 -0.1469  0.1346
 5666W        W48682  13.457  19.757  22.218 -0.2997 -0.1448  0.2254
 5667W        W48683  24.254  17.329   4.489  0.0426  0.1088 -0.0804
 5668W        W48684  26.644  25.776  22.782 -0.2616 -0.0429  0.0205
 5669W        W48685  32.275   9.149   7.295  0.1497  0.1809 -0.2865
 5670W        W48686  34.464  11.785   4.427 -0.3389 -0.0861 -0.0376
 5671W        W48687  25.817  24.437  28.928 -0.2814 -0.1703 -0.0099
 5672W        W48688  28.761  19.923   3.962 -0.0164 -0.3687  0.1721
 5673W        W48689  20.462  24.522  21.435 -0.0300  0.1114 -0.1257
 5674W        W48690  34.539  19.478  25.408  0.0291  0.2148 -0.1473
 5675W        W48691  32.957   3.627  18.496  0.0869 -0.2427  0.2777
 5676W        W48692   7.414  21.999  19.436 -0.1561  0.2828  0.0172
 5677W        W48693  24.252  17.170  26.572  0.0113 -0.1525 -0.0785
 5678W        W48694  29.275  18.353  23.289  0.2948 -0.0212 -0.0271
 5679W        W48695  31.177  25.410  23.745 -0.2822  0.0551 -0.1593
 5680W        W48696   1.798  21.073  19.776  0.0275 -0.0564  0.2004
 5681W        W48697  34.503  26.866  15.509 -0.0708 -0.1270 -0.0893
 5682W        W48698  12.181  28.442  17.261  0.1311 -0.0441  0.0649
 5683W        W48699   6.109  21.577  13.028 -0.1957  0.3077 -0.0493
 5684W        W48700  29.901   9.718  19.782  0.0478  0.1400  0.3316
 5685W        W48701   2.292  25.736  25.573 -0.3879  0.1369 -0.1141
 5686W        W48702  19.336   2.102  15.955 -0.0070  0.0363  0.0540
 5687W        W48703  31.245  10.603  21.874 -0.0002  0.0783  0.0167
 5688W        W48704  20.790   9.430  13.580  0.1376 -0.0538 -0.0025
 5689W        W48705  15.416  22.502  19.755 -0.1693 -0.2718 -0.1684
 5690W        W48706  14.734  11.582  13.512  0.0336 -0.2498 -0.1272
 5691W        W48707  23.860   8.923   0.678 -0.2059  0.1485 -0.0925
 5692W        W48708  28.620  20.508  20.645 -0.0906  0.2565  0.0644
 5693W        W48709  19.919  16.618  15.753  0.3227 -0.0151 -0.0089
 5694W        W48710  24.565   7.000   1.169  0.0006  0.0998  0.0610
 5695W        W48711  27.409  27.773  29.298  0.2612 -0.2682  0.0825
 5696W        W48712  16.361  11.485  28.289  0.2160  0.0486 -0.3585
 5697W        W48713   9.875  16.463  18.934  0.0750  0.0007  0.1249
 5698W        W48714   9.576  32.295  18.264  0.0737  0.1127  0.1972
 5699W        W48715  17.969  31.815  27.691 -0.2189 -0.0407  0.2301
 5700W        W48716  24.600   7.207  15.925 -0.0923 -0.4586 -0.1423
 5701W        W48717   0.655   5.193  28.514 -0.1509  0.0080 -0.3042
 5702W        W48718  19.888  17.280  12.586  0.1029  0.1447  0.2797
 5703W        W48719  10.344  32.846  17.293 -0.0957  0.1795 -0.0972
 5704W        W48720  20.769  26.568  27.914  0.1740  0.1533  0.0987
 5705W        W48721   8.295   1.808   0.708  0.0929  0.0969 -0.1059
 5706W        W48722  23.501  30.958  17.771 -0.2278 -0.1386  0.0579
 5707W        W48723  20.139   3.469  28.182 -0.1580  0.1227 -0.1101
 5708W        W48724  22.190   9.543  21.689  0.0521  0.1534  0.1690
 5709W        W48725  14.695  14.731   4.153  0.1935 -0.0081  0.1294
 5710W        W48726   5.911  22.163  25.027  0.2646 -0.3651  0.1224
 5711W        W48727  27.436  24.676  22.586 -0.1012 -0.0391  0.2405
 5712W        W48728  27.537  28.408  23.806 -0.0786  0.2195 -0.1496
 5713W        W48729  11.743  20.114  15.137  0.0227 -0.1239  0.2011
 5714W        W48730  20.707  19.128  13.116  0.0531 -0.1579 -0.4086
 5715W        W48731   5.462  20.664  20.383 -0.0375  0.0397  0.0382
 5716W        W48732  19.139   5.871  21.416 -0.0837 -0.0225 -0.3461
 5717W        W48733  22.726  17.243  22.603  0.0948  0.1105  0.1922
 5718W        W48734  15.015  15.710   5.892  0.0463 -0.2103  0.1051
 5719W        W48735   8.970  23.106  19.349 -0.0236  0.2729 -0.1143
 5720W        W48736  24.430  13.601  17.154  0.0419 -0.2292  0.0483
 5721W        W48737  22.706  15.261  21.631  0.1730 -0.0601 -0.1346
 5722W        W48738  24.425  28.820   0.580 -0.2263 -0.2189  0.0268
 5723W        W48739  10.166   3.244  16.764 -0.2756  0.1531 -0.0729
 5724W        W48740  25.625   8.267  18.905 -0.1917 -0.0167  0.0675
 5725W        W48741  21.851  33.680  16.804  0.1427  0.3767  0.2554
 5726W        W48742  23.555  32.918  16.348  0.2954 -0.0819 -0.0041
 5727W        W48743  27.598   4.200  16.088  0.3585  0.1824  0.1225
 5728W        W48744  17.649  12.296  12.759  0.2677 -0.0766 -0.0703
 5729W        W48745   0.253  27.100  29.042  0.3243  0.0805  0.0294
 5730W        W48746  19.820   5.161  23.929 -0.1433 -0.0895 -0.3288
 5731W        W48747  24.540   9.430   6.796 -0.3372 -0.1407  0.0006
 5732W        W48748  22.132   8.363  17.497  0.2087  0.1069  0.1674
 5733W        W48749   2.547  18.642  23.697 -0.2290  0.1779  0.1337
 5734W        W48750   1.977  19.219  18.162 -0.1544 -0.0543 -0.0769
 5735W        W48751  32.376  33.790  15.906 -0.0639 -0.0442 -0.2482
 5736W        W48752   6.579  29.575  27.276 -0.0867 -0.2125 -0.1971
 5737W        W48753  15.987   0.962  16.004 -0.0098  0.0217  0.2877
 5738W        W48754  21.310  10.083  20.468 -0.2079 -0.0411  0.1759
 5739W        W48755  15.079  26.644  19.093 -0.3253  0.0950  0.3620
 5740W        W48756  34.089  18.648  15.064  0.1951  0.0669 -0.0101
 5741W        W48757  27.667  12.923  19.549 -0.0733 -0.0709 -0.0654
 5742W        W48758  17.096  28.816  29.319 -0.1810  0.0502  0.0377
 5743W        W48759  14.525  15.763  15.984  0.0095  0.2838  0.4361
 5744W        W48760  25.859  15.784  26.774 -0.1035  0.4023 -0.1523
 5745W        W48761  28.580  18.860  23.296  0.0210 -0.2971  0.0882
 5746W        W48762   5.589  21.532   4.014 -0.1216 -0.0987 -0.1540
 5747W        W48763  25.436   7.499  25.329 -0.0152 -0.3688 -0.0385
 5748W        W48764  28.153  13.469  28.957  0.0010 -0.0471  0.4811
 5749W        W48765  22.429  17.354  19.588 -0.0667 -0.0238 -0.1088
 5750W        W48766  14.137  30.262  17.878  0.2973 -0.3458  0.2996
 5751W        W48767  23.042   7.087  15.295  0.1991  0.1501  0.5131
 5752W        W48768  14.671  11.839  16.541  0.0208 -0.1673  0.0132
 5753W        W48769  26.379  18.094  14.890 -0.0104  0.2353 -0.1504
 5754W        W48770  22.926   6.834  16.482 -0.0000  0.3082 -0.5634
 5755W        W48771  29.431  21.501  16.182 -0.2185 -0.2012 -0.0571
 5756W        W48772   5.103  15.638  20.171  0.4684 -0.1658  0.0956
 5757W        W48773  20.958  26.268   8.293 -0.2098  0.2336  0.4269
 5758W        W48774  12.194  22.502  28.479 -0.0589 -0.4070 -0.3309
 5759W        W48775  24.258  27.407  21.403 -0.2794  0.2231  0.2035
 5760W        W48776  31.111  21.124  20.371  0.1165  0.2608  0.3707
 5761W        W48777  31.173   6.694  27.443  0.1070 -0.3328 -0.0675
 5762W        W48778  34.014   5.883  18.059  0.1499  0.0619  0.0068
 5763W        W48779  19.270  29.673  21.015  0.0846 -0.1077 -0.1329
 5764W        W48780  16.596  11.327  24.881  0.0434  0.0348 -0.1581
 5765W        W48781   7.652  22.621  16.782  0.0665 -0.1369 -0.1139
 5766W        W48782  10.559   9.121  29.011 -0.2737  0.1063  0.0987
 5767W        W48783  13.300   9.313  16.784  0.1196  0.3807 -0.1191
 5768W        W48784   8.533  20.230  19.190  0.1292 -0.3004  0.0612
 5769W        W48785  24.530  27.887  18.254 -0.2079 -0.0834  0.0301
 5770W        W48786  20.050  20.655  14.866 -0.0458 -0.1702  0.3819
 5771W        W48787  15.455  11.168  18.626  0.0160 -0.0219 -0.3207
 5772W        W48788   0.808  15.408   6.002 -0.0378 -0.2887 -0.0664
 5773W        W48789  12.988  24.058  22.667 -0.1098 -0.2088 -0.0161
 5774W        W48790  14.674   5.233  21.252  0.2769 -0.1677  0.0005
 5775W        W48791  15.025  12.896  27.025  0.1104  0.0713 -0.0898
 5776W        W48792  15.798  15.499  24.715 -0.1874 -0.0240  0.2134
 5777W        W48793  12.557  21.406  15.166  0.2029  0.2241  0.0165
 5778W        W48794   9.259  14.296  22.032 -0.0099 -0.1227 -0.1382
 5779W        W48795  22.901  10.469  29.142 -0.1196 -0.2717 -0.0298
 5780W        W48796   1.444  32.876  26.059  0.0565  0.2292 -0.2866
 5781W        W48797  26.288  18.125  25.754  0.0332  0.2597  0.0408
 5782W        W48798  17.958  11.411  19.422 -0.3465 -0.0469  0.1414
 5783W        W48799  30.597  27.619  18.191  0.1318  0.3238 -0.0108
 5784W        W48800  20.414  18.653   8.555 -0.3659 -0.2772 -0.3558
 5785W        W48801  17.371  32.229  20.677 -0.0708  0.0726 -0.0873
 5786W        W48802  23.524  11.573  24.646  0.3374 -0.0002 -0.3313
 5787W        W48803  23.780   2.909  22.043  0.4076 -0.1028 -0.0021
 5788W        W48804  18.170  20.968  14.042  0.1305  0.0985  0.1604
 5789W        W48805  17.094  10.187  12.445 -0.5582  0.1323  0.2405
 5790W        W48806   0.772  13.954  21.645  0.1916  0.2067 -0.0017
 5791W        W48807  21.932  13.628  19.265 -0.1249 -0.1905  0.2021
 5792W        W48808  21.031  20.700  13.366 -0.1226 -0.0226 -0.4679
 5793W        W48809   3.509  11.166  15.895 -0.2089 -0.0742 -0.0394
 5794W        W48810  10.547   8.659  22.370  0.2756 -0.3216 -0.1964
 5795W        W48811  32.642   8.015   2.775 -0.0488 -0.0259 -0.1873
 5796W        W48812  24.259   7.664  25.010  0.2201 -0.1477 -0.0210
 5797W        W48813  23.248  21.674  20.215  0.1196 -0.1287 -0.2686
 5798W        W48814   8.259  20.614  14.414  0.1940  0.3206 -0.0271
 5799W        W48815  27.558  24.465   0.116 -0.1643  0.0754 -0.0844
 5800W        W48816  19.368   6.789  15.758 -0.2520 -0.0144  0.1248
 5801W        W48817  24.456  28.123  16.476  0.1876  0.1172  0.1728
 5802W        W48818  20.238  11.151  13.024 -0.1633 -0.1062 -0.1662
 5803W        W48819   3.875  30.324  19.932 -0.1009  0.0322 -0.0135
 5804W        W48820  32.453   7.446  16.334 -0.1646  0.0283 -0.1114
 5805W        W48821  23.829  22.632   1.315 -0.0818  0.2594 -0.2199
 5806W        W48822  15.999   0.312  16.941 -0.0739  0.1374  0.0811
 5807W        W48823  18.906  16.350  13.831 -0.1286 -0.0703  0.0347
 5808W        W48824  28.780  27.734  20.033 -0.1186 -0.3787  0.1392
 5809W        W48825  24.758  22.445  25.667 -0.0062 -0.0705  0.3349
 5810W        W48826  31.001  27.651   6.906  0.1153  0.3810  0.0136
 5811W        W48827  22.526  32.208  14.894 -0.1283  0.2805  0.1026
 5812W        W48828   6.923  30.160  17.474 -0.1657  0.1470 -0.0278
 5813W        W48829   9.962   9.495  22.426 -0.2688  0.2246  0.1387
 5814W        W48830  19.106  20.738   1.570 -0.2003 -0.1522  0.2245
 5815W        W48831  28.037  22.005  18.971  0.0048  0.0253  0.2103
 5816W        W48832  22.006  19.238  13.021  0.2749 -0.2908 -0.1861
 5817W        W48833  33.111  21.214  17.357  0.0705  0.2809  0.0316
 5818W        W48834  29.023   4.493  22.555  0.1104 -0.0902 -0.1657
 5819W        W48835   5.634  26.751  20.107 -0.0261 -0.2889  0.2548
 5820W        W48836  17.651   1.733  19.446  0.0168  0.2478 -0.0584
 5821W        W48837  24.697  32.927   2.544 -0.3500 -0.3384  0.2174
 5822W        W48838  24.718   1.394   4.391 -0.1046 -0.2604 -0.0832
 5823W        W48839  15.741   7.688  22.371  0.0203  0.0877  0.2319
 5824W        W48840  15.864  10.668  24.667 -0.1578  0.0422  0.0534
 5825W        W48841  14.336  19.479  13.223 -0.0572 -0.0798  0.1332
 5826W        W48842  14.778  23.428  17.395  0.1204  0.2355 -0.2813
 5827W        W48843  16.837  28.450  14.983  0.1530  0.3200  0.1214
 5828W        W48844  19.950   9.766  16.271 -0.2853 -0.2844  0.1638
 5829W        W48845  19.015  13.126  15.108 -0.2270 -0.1514 -0.0883
 5830W        W48846  26.490  18.899  17.030  0.0218 -0.1985  0.1968
 5831W        W48847  28.291  12.691   4.747 -0.2777 -0.1723 -0.1953
 5832W        W48848  15.548  16.506   2.293  0.3389  0.0722  0.4262
 5833W        W48849   2.424  18.421   3.929 -0.0290  0.1494 -0.1742
 5834W        W48850   9.591  19.960  12.008  0.0519  0.0947 -0.1427
 5835W        W48851  10.253  33.882  14.623  0.0791  0.0707 -0.1154
 5836W        W48852   2.338  21.736  21.301 -0.1126  0.1185  0.3558
 5837W        W48853  13.167   8.918  13.508  0.2968  0.0528  0.1613
 5838W        W48854  18.728  10.428  15.552  0.0847  0.2071 -0.1133
 5839W        W48855  22.513   8.725  21.432 -0.0999  0.1425 -0.1094
 5840W        W48856  33.667   1.205  14.026  0.3891  0.0640  0.1798
 5841W        W48857  19.549   4.503  19.366  0.0380 -0.0527  0.4445
 5842W        W48858  25.477  12.755  15.630  0.1612  0.1498 -0.0924
 5843W        W48859  33.791  10.106  23.557  0.2043  0.1700 -0.2079
 5844W        W48860  27.739  29.899  22.777 -0.0685 -0.2332  0.3750
 5845W        W48861  22.808  10.151  22.038 -0.0952  0.0357  0.0008
 5846W        W48862  26.603   8.426  29.190  0.0043  0.3029  0.0048
 5847W        W48863  13.119  32.080  25.232  0.2204  0.0921  0.1519
 5848W        W48864  24.939   1.635  20.924  0.4394 -0.0859  0.2197
 5849W        W48865  17.790   9.176  15.947  0.2765  0.1356  0.3893
 5850W        W48866  20.620  20.981  19.814 -0.1089  0.4850 -0.2155
 5851W        W48867   9.146  31.956  18.370  0.1452 -0.0687 -0.2299
 5852W        W48868  26.162  25.810   2.730  0.1422 -0.1766  0.2299
 5853W        W48869  16.202  29.036   1.202  0.1339  0.2715  0.1407
 5854W        W48870  21.408   5.713   0.726 -0.0844 -0.0230 -0.1196
 5855W        W48871  28.372  24.007  25.930  0.3337  0.1246  0.1154
 5856W        W48872   6.927  19.630  19.209  0.0054  0.2440  0.1660
 5857W        W48873  32.541   1.996  20.661  0.1981  0.3028 -0.0491
 5858W        W48874  14.798  22.482  18.977 -0.1950  0.0505  0.1999
 5859W        W48875  26.691  22.912  27.482 -0.0945 -0.1813 -0.1202
 5860W        W48876  25.057   0.134   4.892  0.0015  0.1000  0.0118
 5861W        W48877  28.108  29.916   0.528  0.1034 -0.1468 -0.1772
 5862W        W48878  21.096  17.194  23.056  0.0911 -0.0527 -0.0069
 5863W        W48879  30.444  17.935  22.467  0.0703 -0.3588 -0.0268
 5864W        W48880   1.452  32.242  28.786 -0.1893 -0.0034 -0.0890
 5865W        W48881   1.696   8.810   1.464  0.1964 -0.2623 -0.2104
 5866W        W48882   0.042   6.150  14.663 -0.5427  0.1773  0.1891
 5867W        W48883  25.881  11.436  26.504  0.0137 -0.1954 -0.0715
 5868W        W48884  15.453  18.185  14.155 -0.0817  0.0474  0.3559
 5869W        W48885  30.358   8.522  23.745 -0.3986 -0.3208  0.2034
 5870W        W48886  34.542  10.614  18.857  0.1073 -0.0605  0.0313
 5871W        W48887  29.629  17.646  24.476  0.0030  0.3424  0.1355
 5872W        W48888  24.034   2.873  21.560  0.0287 -0.4053 -0.1319
 5873W        W48889  32.483  14.937  15.332  0.0990 -0.0527 -0.1518
 5874W        W48890  26.790  28.305  22.770  0.2016 -0.2955  0.1073
 5875W        W48891   5.625  22.392   5.672  0.1641 -0.0510  0.1352
 5876W        W48892  26.221  16.235  26.381 -0.0584 -0.0922  0.1130
 5877W        W48893  30.174   8.579  18.019  0.2003 -0.1120  0.4006
 5878W        W48894  12.848  10.334  15.428 -0.2331  0.0728  0.0011
 5879W        W48895  21.801  27.649   0.723  0.4134 -0.1666  0.3237
 5880W        W48896   4.280  25.476  17.802 -0.3698 -0.2211  0.2555
 5881W        W48897  22.943  18.005  23.705  0.3598 -0.0923  0.1721
 5882W        W48898  28.786   1.372  15.887 -0.0045  0.1162 -0.0593
 5883W        W48899  20.061   4.278  19.219  0.0361  0.1905 -0.0403
 5884W        W48900   3.827  30.083  22.664  0.2964  0.1439  0.2176
 5885W        W48901  19.351  19.391  13.418  0.3469  0.0703  0.1198
 5886W        W48902  23.123  19.682  15.737 -0.0264 -0.1177 -0.1261
 5887W        W48903  24.345   9.825  15.155 -0.3519 -0.1403 -0.3364
 5888W        W48904  19.789  12.556  20.620  0.0498  0.2876  0.1356
 5889W        W48905   8.626   6.705  18.735 -0.1149  0.0152 -0.1404
 5890W        W48906  23.400  17.057  15.269  0.1139  0.2347 -0.2663
 5891W        W48907  28.781   8.314   8.805 -0.0290  0.1397  0.1577
 5892W        W48908   1.652  30.093   4.482  0.1173 -0.2307 -0.0422
 5893W        W48909  33.852  17.488  20.490 -0.1257 -0.1260 -0.0784
 5894W        W48910  33.591   8.367  25.874 -0.0744  0.1378 -0.0318
 5895W        W48911  24.013  33.910  20.958  0.1364 -0.2659 -0.2369
 5896W        W48912  13.531  28.541  29.089 -0.0802 -0.2033 -0.0186
 5897W        W48913  23.387   5.153  14.566 -0.1160  0.0466 -0.2174
 5898W        W48914  30.632  26.923  28.202 -0.1853 -0.1488  0.0615
 5899W        W48915  21.083  20.472   5.158  0.0130 -0.0268  0.1160
 5900W        W48916  29.021  18.185   8.731 -0.3549 -0.0680 -0.1801
 5901W        W48917  28.556  14.983   1.953  0.2169 -0.0826 -0.0399
 5902W        W48918  23.932   1.566  22.589 -0.0274 -0.1007  0.1923
 5903W        W48919  13.681   1.547  24.159  0.1325  0.1865 -0.3330
 5904W        W48920  30.217  31.528  25.417  0.1737 -0.3514 -0.1703
 5905W        W48921  14.440   6.381  14.971 -0.0481  0.1779 -0.0629
 5906W        W48922  23.748  26.699  16.408  0.1680 -0.1319 -0.0107
 5907W        W48923   7.944  15.977   3.433  0.0308 -0.0726 -0.0231
 5908W        W48924  30.862  19.736  21.244  0.1292  0.1164  0.1246
 5909W        W48925  28.517  19.415  26.288  0.2376 -0.1650  0.0868
 5910W        W48926  21.565  10.989  21.072  0.2801 -0.2807 -0.0445
 5911W        W48927   9.568  17.737  13.930 -0.0220 -0.0767  0.1329
 5912W        W48928   2.000  30.242  22.811  0.3010  0.1485 -0.0540
 5913W        W48929  16.069   2.782  16.659  0.0030 -0.1244 -0.1210
 5914W        W48930  30.694   1.915   5.719  0.1059 -0.0968 -0.2513
 5915W        W48931  14.143   7.402  21.689 -0.2918 -0.0102 -0.0182
 5916W        W48932   2.704  22.244  25.007  0.0140 -0.2178  0.2186
 5917W        W48933  28.873  27.728  19.074 -0.1203  0.1863 -0.2180
 5918W        W48934  19.561  12.654  26.377  0.3804  0.0445  0.0450
 5919W        W48935  29.786   8.398  16.505  0.1423 -0.1425  0.1367
 5920W        W48936  25.601  17.360  28.262  0.3829 -0.1799  0.1122
 5921W        W48937  20.689  34.531  20.174 -0.2090  0.0002  0.0250
 5922W        W48938  27.168  21.642  22.833 -0.0951  0.0387 -0.2196
 5923W        W48939  29.512   8.985   0.514  0.0419 -0.4164 -0.1370
 5924W        W48940  24.499  17.830   0.772  0.1201 -0.0474  0.0646
 5925W        W48941  20.167  14.484   8.123 -0.0885 -0.2450 -0.0734
 5926W        W48942   9.977  21.365  25.804 -0.2356  0.0385  0.0185
 5927W        W48943  10.282  19.242  22.158  0.4141 -0.1919  0.4029
 5928W        W48944  25.778  19.771  22.639  0.2754  0.2005  0.0654
 5929W        W48945  21.961   8.498  19.675 -0.2262 -0.4569  0.0153
 5930W        W48946   0.997  25.382  16.844 -0.3035  0.0610 -0.1682
 5931W        W48947   9.326  19.068  19.733 -0.0483 -0.0900 -0.0701
 5932W        W48948  17.048  30.997   2.545 -0.3009 -0.0968 -0.0551
 5933W        W48949  20.583  27.562  26.146 -0.0081  0.0577 -0.3309
 5934W        W48950   1.165   1.436  21.293  0.3484 -0.0099  0.0680
 5935W        W48951   3.456  14.404  19.111  0.5505  0.0601  0.5325
 5936W        W48952  17.761  29.343  23.679 -0.2246  0.0624 -0.1086
 5937W        W48953  13.023  18.477  16.005 -0.0977 -0.3992 -0.5174
 5938W        W48954  32.621  18.588  23.772 -0.0730  0.1584  0.4269
 5939W        W48955  31.091  12.904  25.382  0.0794  0.0926 -0.0047
 5940W        W48956  21.038  30.040  17.176  0.2637  0.0506 -0.1127
 5941W        W48957  19.177  19.144  22.692  0.2595  0.1145  0.1254
 5942W        W48958   0.980  32.592  14.317  0.0259  0.2611  0.0996
 5943W        W48959  10.555   2.126  18.274  0.0531 -0.1463 -0.0233
 5944W        W48960   8.199  16.356   1.498  0.0412 -0.2272  0.0395
 5945W        W48961  21.839  11.862   1.535 -0.3095 -0.0171  0.1116
 5946W        W48962  29.754  29.347  20.386  0.3497 -0.0317 -0.0728
 5947W        W48963   4.470  33.648   3.440 -0.1538  0.1148 -0.0115
 5948W        W48964  24.660   9.084  25.281 -0.1262  0.1272  0.0055
 5949W        W48965  24.893  12.338  21.657  0.2642 -0.2460 -0.4105
 5950W        W48966  26.231  24.798  19.311 -0.1464  0.1508  0.1692
 5951W        W48967  20.212  31.823  24.868 -0.0996  0.2328 -0.0221
 5952W        W48968   5.401  17.869  20.019  0.0438 -0.0716  0.0511
 5953W        W48969  10.117  10.016   1.286  0.2381  0.1647  0.0568
 5954W        W48970   0.547  15.319  26.555  0.2994  0.1263  0.1323
 5955W        W48971  31.957  23.503  15.966 -0.3170  0.1012  0.0433
 5956W        W48972  31.850  18.308  23.997  0.0949  0.0453 -0.0427
 5957W        W48973   1.077  30.623   3.963 -0.3561 -0.0461 -0.0830
 5958W        W48974  28.795   1.381   4.683 -0.1161  0.1072 -0.3944
 5959W        W48975   6.111  15.194   2.044 -0.2233  0.1034 -0.1719
 5960W        W48976  26.410  15.525  20.051  0.0600  0.0236  0.0137
 5961W        W48977  20.791  29.916  24.038  0.0545  0.4421  0.0744
 5962W        W48978  30.082  30.913   6.360  0.3287 -0.2048 -0.1117
 5963W        W48979  16.278  11.933  14.341  0.4028  0.0043  0.0437
 5964W        W48980  28.715  19.602  27.486 -0.0764 -0.1428 -0.3151
 5965W        W48981  18.993  22.803  16.584 -0.4211  0.3603  0.1751
 5966W        W48982  33.437  28.274   6.556 -0.0065  0.1370 -0.2450
 5967W        W48983  19.713  17.431  15.745  0.0464 -0.1697 -0.0534
 5968W        W48984  32.573  20.590  19.068 -0.1206 -0.2553  0.2253
 5969W        W48985  15.591  19.013   0.911  0.0864  0.1447 -0.2012
 5970W        W48986  12.015   8.223  15.501  0.0659 -0.0362 -0.0923
 5971W        W48987  23.340   7.842  14.806  0.2703  0.0576 -0.1838
 5972W        W48988   6.720   9.310  18.724  0.0010 -0.1906  0.1822
 5973W        W48989  10.795   9.474   1.018 -0.4251  0.3124  0.2455
 5974W        W48990  31.788  12.570  28.118 -0.2165 -0.0219 -0.1129
 5975W        W48991  26.306  24.036  22.312  0.0618 -0.3083  0.0140
 5976W        W48992  22.495  28.026   0.046  0.1480 -0.0056 -0.1805
 5977W        W48993  21.987  23.539   9.582 -0.4840 -0.3193  0.1960
 5978W        W48994   4.443  15.230  17.535  0.1735  0.1742  0.2700
 5979W        W48995  12.148  21.852  15.923 -0.0644  0.1420 -0.1411
 5980W        W48996   5.670  24.577  24.352 -0.1041 -0.0519 -0.0140
 5981W        W48997  21.991  13.129  19.732  0.1772  0.0756  0.1684
 5982W        W48998  16.774  28.370  16.300  0.3645  0.1634 -0.1264
 5983W        W48999  30.236  29.890   4.775  0.1442 -0.2739 -0.1740
 5984W        W49000  17.709  14.825  20.912 -0.1183  0.3170 -0.1021
 5985W        W49001  30.319  18.009  17.871  0.1152  0.3736  0.1071
 5986W        W49002  25.332   4.910  28.401 -0.2926  0.3270  0.2207
 5987W        W49003  19.846  31.608  28.103 -0.3713  0.0172  0.3798
 5988W        W49004  13.803  19.813  26.721  0.2403  0.1266 -0.5308
 5989W        W49005  25.676   7.932   9.657  0.2615  0.0266 -0.0257
 5990W        W49006  12.404  16.800   6.577 -0.1176 -0.1781 -0.0200
 5991W        W49007  32.152   6.623  15.438  0.3073 -0.1441  0.0406
 5992W        W49008  18.732   9.068  28.978 -0.1081  0.2614  0.0801
 5993W        W49009  30.834  20.177  24.801 -0.1985 -0.1785 -0.1437
 5994W        W49010  21.912   2.696   1.510 -0.0977  0.1328 -0.0506
 5995W        W49011   0.049   1.867   4.701 -0.1795 -0.0538 -0.0084
 5996W        W49012  23.267  28.597  21.867 -0.1862 -0.2548  0.0118
 5997W        W49013  30.892  26.912   7.406  0.3054 -0.0283  0.1922
 5998W        W49014  14.925  14.030  24.631  0.0621 -0.4072 -0.1634
 5999W        W49015  21.920  24.270  22.885  0.2164  0.1592 -0.3311
 6000W        W49016  29.223  14.886  21.902  0.2753 -0.0001  0.2434
 6001W        W49017  34.143  13.451   8.980  0.0376 -0.2690 -0.1384
 6002W        W49018  10.680  19.699   1.779 -0.0114 -0.0105  0.0200
 6003W        W49019  23.263  26.895  15.489 -0.0841 -0.0297  0.0887
 6004W        W49020   9.141  10.630  28.207  0.0198  0.0918  0.3325
 6005W        W49021  28.359  28.369  24.183 -0.0256  0.0875 -0.2883
 6006W        W49022  24.499   4.745  18.079 -0.1039  0.0157  0.3088
 6007W        W49023   0.342  11.127  16.072 -0.1221 -0.4458 -0.0296
 6008W        W49024  10.999  21.248   7.857  0.1139  0.2552 -0.1045
 6009W        W49025  31.950   4.078  21.111 -0.0065 -0.1188 -0.0640
 6010W        W49026  10.293  24.382  20.752 -0.0878 -0.1482 -0.1873
 6011W        W49027  22.302  10.655  13.714  0.2258  0.1534 -0.0789
 6012W        W49028   6.067  33.014   0.332  0.4050 -0.0025  0.2542
 6013W        W49029   4.170  17.472  13.630  0.0146  0.0040 -0.0398
 6014W        W49030  23.232  13.110  19.223 -0.2348  0.0032 -0.0415
 6015W        W49031  28.337   7.862   7.160 -0.1914 -0.0207  0.0563
 6016W        W49032  33.947   6.841  17.803  0.0755 -0.3491  0.2311
 6017W        W49033  26.972  16.071  18.908 -0.1372  0.1923 -0.0496
 6018W        W49034  21.957  30.973  21.763 -0.0368 -0.1389 -0.4254
 6019W        W49035   9.523  10.836  19.397  0.1598 -0.2368  0.4603
 6020W        W49036  23.339  12.904  16.913 -0.0409 -0.0275  0.0855
 6021W        W49037  29.798   4.135  20.077 -0.0456  0.0264  0.1082
 6022W        W49038  25.897  21.190  16.926  0.0471  0.2316 -0.1059
 6023W        W49039  30.733  16.554   5.080  0.0102  0.2186  0.0096
 6024W        W49040   7.830  22.425   3.332 -0.4998 -0.2002  0.1496
 6025W        W49041   8.101  19.545  22.147 -0.0425  0.0385 -0.1268
 6026W        W49042  19.872  18.808  14.710  0.4378 -0.1939  0.0988
 6027W        W49043  28.196   6.472   0.755 -0.0637  0.0708  0.2105
 6028W        W49044  24.659   7.064  20.898  0.1147 -0.1814  0.2272
 6029W        W49045  23.197   2.920  26.237 -0.0807  0.0235 -0.0602
 6030W        W49046  19.271  12.897  21.406 -0.0455 -0.2440  0.4217
 6031W        W49047   0.713   9.398  16.140  0.0698  0.2252  0.1772
 6032W        W49048  20.896   3.069   8.712 -0.0067  0.1143 -0.0234
 6033W        W49049   1.347   9.433  27.233  0.0311  0.0692  0.3976
 6034W        W49050  14.453  21.851  15.842  0.1031  0.2208 -0.0588
 6035W        W49051  29.240  15.605   1.745  0.1426 -0.2660  0.1520
 6036W        W49052  22.313   1.104  16.373  0.2949 -0.2387  0.0500
 6037W        W49053  18.394   6.082  19.488 -0.0224 -0.0556 -0.0000
 6038W        W49054  33.547  12.920  14.117 -0.2566  0.1250 -0.1035
 6039W        W49055  15.700  29.657  18.529 -0.2793 -0.0344 -0.0780
 6040W        W49056  26.221  10.010   5.897  0.1056 -0.1598  0.1361
 6041W        W49057  20.989  18.995  24.146 -0.1994 -0.1292  0.2378
 6042W        W49058  12.673  17.503  28.031  0.0770 -0.1197  0.1845
 6043W        W49059  21.813  22.068  16.553 -0.0021 -0.1034 -0.0695
 6044W        W49060  12.406  11.789  23.429  0.3129 -0.3843  0.0224
 6045W        W49061  16.099  19.785   7.316 -0.4327 -0.1802  0.0379
 6046W        W49062  26.433  19.671  27.073  0.0651  0.1127 -0.0494
 6047W        W49063  24.674  16.552  19.911 -0.0263 -0.4755 -0.1462
 6048W        W49064  22.508  14.849  23.652 -0.1049  0.1085  0.0547
 6049W        W49065  16.830   7.082  27.266 -0.0869 -0.0121  0.1316
 6050W        W49066  17.497  32.540  18.724  0.2149  0.1480  0.3418
 6051W        W49067  26.164  25.011  27.822  0.0262 -0.2513  0.0714
 6052W        W49068  21.900  14.087  27.225  0.0784 -0.0770  0.2084
 6053W        W49069   7.475  17.953  15.804  0.1584  0.1339  0.0206
 6054W        W49070  28.716  15.596  25.586  0.1249 -0.3496  0.2494
 6055W        W49071  23.561  10.572  23.042  0.1197  0.1967 -0.0888
 6056W        W49072  20.865  24.890  22.516  0.3634 -0.0622  0.0769
 6057W        W49073  31.051  11.752   0.660  0.4970  0.0853  0.0408
 6058W        W49074   0.247  10.866  24.711  0.2771 -0.3287 -0.0024
 6059W        W49075  25.992   4.089   8.034 -0.1166 -0.1457 -0.1891
 6060W        W49076   3.110  12.870  27.160 -0.0256 -0.0481  0.1300
 6061W        W49077  14.725  12.442   8.071  0.0185  0.1601  0.1316
 6062W        W49078   1.761  31.562   0.410 -0.0965  0.1526 -0.1160
 6063W        W49079  20.372  10.230  23.930  0.0501  0.0170 -0.1047
 6064W        W49080  19.794  11.599   8.765 -0.2119 -0.1769  0.1997
 6065W        W49081  21.149  10.254   1.566  0.0647  0.2942  0.0905
 6066W        W49082  23.615  22.305  17.816 -0.1566  0.0201 -0.2555
 6067W        W49083  27.410  15.886   2.209 -0.1003 -0.4978  0.4154
 6068W        W49084   3.089   2.281  29.183  0.0488 -0.0913 -0.1118
 6069W        W49085   2.242  25.746  23.181 -0.1922 -0.0755 -0.1847
 6070W        W49086   1.499   7.266  12.851 -0.0776 -0.2676 -0.1152
 6071W        W49087  31.933  10.721  23.114 -0.0141  0.0649 -0.0152
 6072W        W49088  22.039   5.751  27.250  0.0343  0.0137  0.0442
 6073W        W49089  14.069  27.638  20.524  0.3795 -0.0707  0.1168
 6074W        W49090  26.156  21.079  18.312  0.3306  0.2219 -0.1478
 6075W        W49091   0.616  23.187   1.742 -0.0877  0.0938  0.0668
 6076W        W49092  17.178  18.843  12.437 -0.1904 -0.0893 -0.0835
 6077W        W49093  25.428  21.172  26.370  0.0332  0.0558  0.0674
 6078W        W49094  32.122  29.205   1.967 -0.3936 -0.0151 -0.1822
 6079W        W49095  21.591  25.263   5.142 -0.0513 -0.4071  0.2160
 6080W        W49096   5.474   4.178  24.639 -0.2011 -0.4261  0.1458
 6081W        W49097  27.385  33.176   7.487  0.0710 -0.2578  0.0033
 6082W        W49098  24.470  34.073   6.772 -0.0057  0.1880 -0.1324
 6083W        W49099  23.920  18.357  23.824  0.0565  0.0541  0.2633
 6084W        W49100  32.136  10.483  19.789 -0.2058 -0.1173 -0.0749
 6085W        W49101  32.937  34.489   2.381 -0.2009  0.1495 -0.2972
 6086W        W49102  26.811  19.647  22.015 -0.1876  0.0052 -0.4011
 6087W        W49103   6.629  31.775  22.839  0.0112 -0.1045  0.1720
 6088W        W49104  25.570   5.412  27.041 -0.2415 -0.1998  0.0323
 6089W        W49105  31.136  14.596  27.531 -0.0355  0.1542  0.0422
 6090W        W49106  16.394  26.562  23.364  0.2636  0.1548 -0.1485
 6091W        W49107  21.310  14.363  14.516  0.1459 -0.1875 -0.1219
 6092W        W49108  18.725  25.339  22.814 -0.0422 -0.3748  0.1492
 6093W        W49109  20.279  13.436   4.386 -0.1828  0.0715  0.3639
 6094W        W49110  18.328   2.607  25.545  0.7111  0.1430 -0.0466
 6095W        W49111  22.405  20.509  27.961  0.0987 -0.1607  0.0333
 6096W        W49112  10.174   3.248   6.567 -0.0315 -0.0696 -0.0720
 6097W        W49113   5.120  17.044   5.938  0.0397 -0.0243  0.1447
 6098W        W49114  10.748  15.843  16.082  0.2237  0.0068 -0.2287
 6099W        W49115  13.382   4.184   0.091 -0.1007 -0.2575 -0.2686
 6100W        W49116  26.284   1.427  26.554  0.0169  0.2817 -0.1891
 6101W        W49117  27.233  27.953   4.346 -0.0788 -0.0529 -0.2401
 6102W        W49118  30.466   6.432  27.506 -0.0513  0.1328  0.3432
 6103W        W49119  32.045  28.822  20.822  0.0154 -0.0275  0.4200
 6104W        W49120  24.936  15.258   1.951  0.0240  0.0660  0.0481
 6105W        W49121   9.821  30.113   4.500 -0.0467 -0.1309  0.1479
 6106W        W49122   2.235  21.354  28.399 -0.0881 -0.0084  0.2911
 6107W        W49123  21.924  20.306  27.702 -0.1975 -0.0988  0.1560
 6108W        W49124  10.281  28.133  24.028 -0.0975  0.0084  0.0327
 6109W        W49125  24.527  33.820  20.789  0.1039 -0.0793 -0.0053
 6110W        W49126  17.361  16.964  21.509 -0.1617 -0.0577 -0.2553
 6111W        W49127   0.060  13.400  16.790  0.2717  0.0033  0.1449
 6112W        W49128  23.282  19.876  26.553 -0.0207  0.1446  0.0834
 6113W        W49129  33.234  14.733   4.474  0.1232 -0.3888 -0.2717
 6114W        W49130   3.554  13.436  16.486 -0.0368  0.0722 -0.2532
 6115W        W49131  20.419  27.315  25.195  0.1631 -0.0842  0.0427
 6116W        W49132  29.138   8.252  19.267  0.0943  0.2599 -0.0960
 6117W        W49133  33.086   1.438   1.433  0.0011  0.0107  0.1019
 6118W        W49134   5.558  14.598  22.843  0.0187  0.0370  0.0981
 6119W        W49135  34.739  26.192  16.409 -0.1081  0.0017  0.3290
 6120W        W49136  25.343   9.960  27.967  0.1539 -0.1607  0.0353
 6121W        W49137  28.107   2.699   2.048  0.3260  0.3558 -0.2314
 6122W        W49138   9.816   3.256  18.914  0.1265 -0.2813 -0.1773
 6123W        W49139  21.642  13.020  26.815  0.0123 -0.2004 -0.1310
 6124W        W49140   9.136  11.389  29.007  0.2122 -0.0140  0.0890
 6125W        W49141  26.076  10.722  21.456 -0.0771  0.0436 -0.1017
 6126W        W49142  22.577  16.338  20.665  0.0837  0.0504 -0.1676
 6127W        W49143   8.910  12.929   4.054 -0.1805 -0.0716 -0.1042
 6128W        W49144  14.965   9.659  27.699 -0.0271 -0.0579  0.2463
 6129W        W49145  12.799  28.323  16.600 -0.0384  0.0150 -0.0643
 6130W        W49146  20.270   8.025  14.220  0.0109 -0.0804 -0.0175
 6131W        W49147  34.438  32.297  28.037  0.0531  0.0609 -0.0318
 6132W        W49148   7.864   4.058   7.119  0.2712  0.2631  0.0722
 6133W        W49149  12.997  33.586   3.440  0.1348 -0.4519  0.3296
 6134W        W49150   2.523  17.654  23.352 -0.0686 -0.3579  0.1439
 6135W        W49151  20.160   8.103  18.526 -0.1767  0.1154 -0.1603
 6136W        W49152  28.566  24.779  25.369 -0.3991  0.1310 -0.4019
 6137W        W49153  14.827  31.710   5.486  0.0991 -0.2191  0.2061
 6138W        W49154  15.076  26.528   5.869 -0.1244 -0.1529  0.1979
 6139W        W49155   2.856  15.487  26.645  0.1008  0.1037  0.0184
 6140W        W49156  23.387  25.655  24.084 -0.2603  0.1009  0.1377
 6141W        W49157  26.024  21.510  23.357 -0.2630 -0.1497 -0.1707
 6142W        W49158  21.741  26.167  23.656  0.0926 -0.1682  0.2680
 6143W        W49159  31.628  14.825   2.801 -0.1624  0.3503 -0.3468
 6144W        W49160  33.806   4.886   8.650 -0.0504  0.2514 -0.0735
 6145W        W49161  29.576  14.915  16.737  0.2821 -0.1919 -0.3480
 6146W        W49162  28.867  21.973   3.052  0.4122 -0.0300  0.0455
 6147W        W49163   5.116  28.051   9.627 -0.1399 -0.1240 -0.0500
 6148W        W49164  22.663   6.902  17.313 -0.1752  0.1247  0.1085
 6149W        W49165  20.480  31.778  20.790 -0.0742  0.2167  0.6267
 6150W        W49166  24.787  27.340  25.340 -0.0960 -0.0580  0.0887
 6151W        W49167  24.116  13.680  28.379 -0.0702  0.0073 -0.2074
 6152W        W49168  15.238  30.083  15.468  0.0204 -0.0176  0.1781
 6153W        W49169   1.689  18.407  21.354  0.2818 -0.0363 -0.0806
 6154W        W49170  30.561   4.765   7.477 -0.0647  0.0221 -0.1691
 6155W        W49171  15.697  13.715  21.078  0.1239  0.2450  0.2438
 6156W        W49172  24.648  17.626   1.338  0.0548  0.0326 -0.2182
 6157W        W49173  34.343  23.415  28.891 -0.2234 -0.0525 -0.0550
 6158W        W49174   0.324  14.342  20.242  0.1659  0.1447 -0.3738
 6159W        W49175  17.434   2.675   7.583 -0.3847 -0.0166 -0.0918
 6160W        W49176  25.894  27.810  27.819  0.2192  0.0384  0.3293
 6161W        W49177   2.470  15.792  18.253 -0.0404  0.1500  0.0178
 6162W        W49178  17.338  18.567   1.681 -0.1912 -0.0525  0.0309
 6163W        W49179  24.159  20.816  27.243 -0.0106  0.1570 -0.0406
 6164W        W49180   5.584  28.767  25.620  0.3414 -0.0211  0.0449
 6165W        W49181  27.676  14.076  16.220 -0.1161 -0.1338 -0.0559
 6166W        W49182  15.816  12.077  14.071 -0.1804  0.0201  0.0922
 6167W        W49183  24.139  10.240  25.779 -0.4375 -0.1512  0.0336
 6168W        W49184  24.176   4.382   1.570  0.0818 -0.0391 -0.0496
 6169W        W49185  29.925  20.923  14.903 -0.0499  0.2371 -0.0005
 6170W        W49186  17.438  21.123   0.977 -0.0533  0.1839  0.0560
 6171W        W49187  19.294   5.387  21.251  0.0915  0.1540 -0.5736
 6172W        W49188  28.809  29.889   7.348  0.1900 -0.1692 -0.0972
 6173W        W49189  31.786  25.762  24.471  0.2231 -0.0053  0.0887
 6174W        W49190  22.121  18.971  14.072  0.3276 -0.0898  0.2588
 6175W        W49191  32.516  18.478  16.074  0.3841  0.1329  0.0219
 6176W        W49192  32.745  31.876  20.535  0.0877  0.0397  0.0049
 6177W        W49193  30.011   8.033   1.032  0.2942 -0.0952 -0.3514
 6178W        W49194  20.669   6.496  16.508 -0.0181 -0.0474 -0.0838
 6179W        W49195   9.106  29.395  29.020  0.0838  0.2503 -0.1267
 6180W        W49196  13.767  18.873  21.700 -0.1577 -0.1385 -0.3241
 6181W        W49197  13.509  31.866  23.898 -0.0068 -0.0399 -0.1090
 6182W        W49198  31.085  29.762   6.778 -0.1750 -0.1039 -0.0515
 6183W        W49199  29.443   7.811  18.864 -0.0846 -0.2657  0.1690
 6184W        W49200   9.347  10.199   4.862  0.3293  0.4492 -0.3197
 6185W        W49201  26.443   8.267   1.156 -0.1440 -0.1884  0.0202
 6186W        W49202   5.847   9.653  18.931  0.2291  0.0374 -0.1355
 6187W        W49203  12.023  22.581  21.130  0.1347 -0.0058  0.1963
 6188W        W49204  25.580   8.164  28.001 -0.2634  0.0121 -0.1485
 6189W        W49205  24.368  23.734  22.882  0.1858 -0.0293  0.0776
 6190W        W49206  19.203  22.369  20.617 -0.2894 -0.3495  0.2380
 6191W        W49207   9.384  26.864  22.716  0.1237 -0.1831 -0.1297
 6192W        W49208  23.884   0.309  20.052  0.4185  0.0258  0.1039
 6193W        W49209  19.551   3.902  20.000 -0.2403  0.1208  0.1297
 6194W        W49210  27.868  17.447  22.853 -0.0962 -0.0000 -0.2302
 6195W        W49211  25.488  22.711   3.530 -0.2463 -0.2826 -0.0910
 6196W        W49212  22.365   2.627  20.234 -0.0628  0.0363  0.4634
 6197W        W49213  22.003  22.147  24.476  0.0244  0.0613  0.1439
 6198W        W49214  33.155  24.684  21.710 -0.1264  0.0791 -0.1686
 6199W        W49215  18.049   8.076  17.704 -0.2583  0.0286  0.0484
 6200W        W49216  26.300  11.130   9.157  0.5523  0.1635  0.2009
 6201W        W49217  18.734  19.328   2.660 -0.0187 -0.2358 -0.1691
 6202W        W49218  24.686  34.314  23.849 -0.3288  0.1258 -0.1646
 6203W        W49219  21.512  17.246  13.912 -0.3487  0.0786 -0.0465
 6204W        W49220  22.611   6.023   0.204 -0.0326 -0.0942  0.2664
 6205W        W49221   4.638  30.747  24.517 -0.1437  0.2571  0.2627
 6206W        W49222  22.280  13.589  22.135 -0.3374 -0.2377 -0.6781
 6207W        W49223  27.806   7.394  27.841  0.1704 -0.1828 -0.0505
 6208W        W49224  28.860  11.479  23.415 -0.1073  0.1092 -0.0019
 6209W        W49225  22.078  20.420   4.700 -0.0263  0.2804  0.0846
 6210W        W49226  17.562  24.471   7.794  0.1845 -0.0275  0.4630
 6211W        W49227  18.252   5.431   3.695 -0.1227  0.0334 -0.0417
 6212W        W49228  25.750  20.198  23.671 -0.5897  0.0482  0.0056
 6213W        W49229  18.525  25.145  21.522  0.1970 -0.0612 -0.0241
 6214W        W49230   0.112  14.791  18.187  0.0992  0.1543  0.0096
 6215W        W49231  23.900   2.853  16.437  0.2522 -0.1298  0.0991
 6216W        W49232  18.699  12.070  28.464 -0.1956 -0.3306  0.2176
 6217W        W49233   0.109   4.499  16.709 -0.1635 -0.0316 -0.2360
 6218W        W49234  24.875  20.532  21.445  0.0333 -0.2515 -0.2089
 6219W        W49235  20.519  13.365  15.334 -0.2811  0.0315  0.0561
 6220W        W49236  32.518   6.881  26.711 -0.2155 -0.0246 -0.3268
 6221W        W49237  30.115  13.729  16.800 -0.0414  0.5290  0.0039
 6222W        W49238  20.477   5.537  29.230  0.1658  0.0139 -0.1551
 6223W        W49239  26.611  19.737  24.595  0.1885 -0.3350  0.3283
 6224W        W49240  27.188   0.315  21.429 -0.0382 -0.1902 -0.2503
 6225W        W49241  18.772  24.218  16.114  0.0767  0.0732  0.2334
 6226W        W49242  14.811  24.737   4.987  0.2878 -0.2095  0.3078
 6227W        W49243  25.519  28.189  28.475 -0.3545 -0.0393 -0.0252
 6228W        W49244   4.503   3.409  24.797  0.0782 -0.3173 -0.0129
 6229W        W49245  25.022   6.549  17.850  0.0134  0.2786 -0.2995
 6230W        W49246  28.548  18.190  24.614 -0.3106 -0.0005  0.0466
 6231W        W49247  26.335  13.791  16.639 -0.1389  0.2305  0.0504
 6232W        W49248   0.389  15.256  28.540 -0.1420 -0.0081 -0.0228
 6233W        W49249   4.336  14.863   0.076 -0.2536 -0.2996  0.7215
 6234W        W49250  24.855   8.585  14.725 -0.0970  0.1489  0.1942
 6235W        W49251  22.612  12.255  20.347  0.1652 -0.1401 -0.1763
 6236W        W49252  12.609  17.039  13.090 -0.0068 -0.0644 -0.0658
 6237W        W49253  17.178   4.574   6.503 -0.0034  0.1307 -0.0000
 6238W        W49254  23.154  30.349   5.363 -0.3858 -0.2323 -0.2555
 6239W        W49255  32.908  20.401   9.580 -0.0406 -0.0194  0.0501
 6240W        W49256  13.192  17.671  14.972 -0.0564  0.1762  0.1896
 6241W        W49257   8.520   0.616   7.952 -0.0366  0.1449  0.0036
 6242W        W49258  19.931  19.226   1.016 -0.0143 -0.2985  0.1717
 6243W        W49259  15.243  16.723  13.175 -0.1457  0.0452  0.1997
 6244W        W49260  22.608  26.781  20.068 -0.1400  0.3613  0.0073
 6245W        W49261  26.958   2.171  21.869 -0.0426 -0.0209  0.0817
 6246W        W49262  18.043   3.083   7.098  0.1822  0.2667  0.0366
 6247W        W49263   5.405  26.108  15.581 -0.2144  0.0812 -0.1853
 6248W        W49264  18.153   8.299  15.255  0.2895 -0.1344 -0.1723
 6249W        W49265  18.160  18.757  20.934  0.1139 -0.2225  0.0166
 6250W        W49266  18.974  19.634   8.007  0.1441 -0.3098 -0.1155
 6251W        W49267  31.368  14.861  20.323  0.2435  0.0193  0.1195
 6252W        W49268  26.207  16.992   4.147  0.1239  0.0559 -0.2477
 6253W        W49269  23.115   7.278  23.064  0.2051 -0.4552 -0.0037
 6254W        W49270  29.156  18.824   1.600  0.3734 -0.3540  0.0583
 6255W        W49271  24.106  26.718  26.903  0.2079 -0.3133  0.1487
 6256W        W49272  29.009  19.030  26.314  0.1032  0.1059  0.0001
 6257W        W49273  28.803  27.459   2.912 -0.0142  0.1849 -0.2261
 6258W        W49274  30.933   7.904  22.034  0.2409 -0.1752 -0.0080
 6259W        W49275   5.654   8.394  26.202 -0.0040  0.2082 -0.2157
 6260W        W49276  22.858  20.228  18.064  0.4917  0.1164 -0.0172
 6261W        W49277  28.187  13.128  28.525  0.3138 -0.0776 -0.0467
 6262W        W49278  31.546  16.704  18.907  0.4407  0.0940 -0.2214
 6263W        W49279  32.352  10.873  17.263  0.0703  0.1246 -0.1087
 6264W        W49280  10.492  12.575   4.900 -0.2858 -0.0121 -0.0818
 6265W        W49281  32.476  13.418  27.907 -0.3450 -0.0894  0.1115
 6266W        W49282  29.810  23.526  26.900  0.0418 -0.0813 -0.0033
 6267W        W49283   6.993  29.987  20.446 -0.1905 -0.0946 -0.1523
 6268W        W49284  28.673  20.867  17.084 -0.0172  0.1015  0.1894
 6269W        W49285  28.869  19.821   6.987  0.0688 -0.2316 -0.1508
 6270W        W49286  28.548  10.827  27.219  0.0807  0.1618 -0.0119
 6271W        W49287  19.760  22.347   3.738 -0.1541 -0.0315  0.1047
 6272W        W49288  19.515  11.074  24.820 -0.0473 -0.0534 -0.0121
 6273W        W49289  34.063  24.316  25.805  0.0755 -0.0692  0.0383
 6274W        W49290   6.715  11.863   0.665  0.1605  0.0095 -0.2158
 6275W        W49291  20.885  16.225   0.276 -0.1539  0.0198  0.1504
 6276W        W49292  22.082   9.533  15.769 -0.1031 -0.1025  0.1261
 6277W        W49293   0.311  30.441  19.983  0.1080  0.2393  0.1076
 6278W        W49294  31.470   5.642  28.216 -0.2743  0.0845  0.1906
 6279W        W49295  21.590  10.069  19.790  0.2021 -0.0167 -0.1692
 6280W        W49296  32.356  10.258  17.755  0.0504 -0.2527  0.0762
 6281W        W49297  22.869   0.344  15.795  0.1518 -0.2165 -0.0132
 6282W        W49298  24.408   7.519  24.430  0.0162 -0.1220 -0.3745
 6283W        W49299  17.630  11.744  23.832  0.2415 -0.1922  0.1393
 6284W        W49300  25.385   0.140  21.057 -0.1215 -0.1089 -0.1294
 6285W        W49301  27.341   4.122  24.760  0.0814 -0.1559  0.1127
 6286W        W49302  22.869   6.307  26.471 -0.0072 -0.0744  0.0229
 6287W        W49303  10.112  32.081   5.046  0.0613  0.0294 -0.1361
 6288W        W49304   2.478  23.739  24.301 -0.4473 -0.2592  0.5367
 6289W        W49305  23.237  25.047  16.591 -0.1719  0.4114 -0.0271
 6290W        W49306   1.044  18.656   9.414 -0.1679  0.1588  0.0651
 6291W        W49307  22.175   0.949  25.964  0.0173 -0.1740 -0.1927
 6292W        W49308  27.125  16.947   7.916  0.0259  0.0024  0.1488
 6293W        W49309  18.506  13.262  27.090  0.4486 -0.0344  0.2006
 6294W        W49310   6.625  15.183   4.791 -0.0003  0.0374  0.0379
 6295W        W49311  23.339  11.686   1.131  0.0007 -0.0868 -0.0846
 6296W        W49312   9.710  18.907  14.504 -0.0346  0.2289  0.6339
 6297W        W49313  29.067  17.050  28.267 -0.0667 -0.0633 -0.1506
 6298W        W49314  30.115  11.569  17.940  0.0176  0.0082 -0.0416
 6299W        W49315  19.326  22.779  16.230 -0.0282 -0.1071 -0.0430
 6300W        W49316  19.793  21.210   7.441  0.3617 -0.0731 -0.0253
 6301W        W49317  19.853  28.048  29.244  0.0029 -0.0295  0.4648
 6302W        W49318  30.784  17.992   7.536 -0.1266 -0.0605 -0.3160
 6303W        W49319   2.077  33.475   5.088 -0.0673  0.0073  0.1837
 6304W        W49320  27.753  10.253   1.674  0.1350 -0.0062  0.0333
 6305W        W49321  23.063  24.417   9.350  0.2605  0.0267 -0.0491
 6306W        W49322  25.503  18.736  21.348 -0.0062 -0.1570 -0.0877
 6307W        W49323  27.325  23.412   3.951  0.0489  0.3024 -0.0083
 6308W        W49324  15.534   7.713   5.497 -0.1043  0.2279  0.0775
 6309W        W49325  12.746   6.487   6.941  0.0536  0.1438 -0.0274
 6310W        W49326  19.235   4.158  19.708  0.0092  0.1098 -0.1390
 6311W        W49327  19.046  19.959  24.105 -0.1830  0.0454 -0.1147
 6312W        W49328  18.686  14.563   3.510  0.1433 -0.3339  0.1474
 6313W        W49329  17.975  12.944   6.034 -0.0657  0.0658  0.3870
 6314W        W49330  19.481  23.980  21.782 -0.1123  0.0538  0.0238
 6315W        W49331  28.540  34.709  25.647 -0.1698 -0.4441 -0.0415
 6316W        W49332  21.666  23.095  23.494  0.1484 -0.1264  0.1099
 6317W        W49333  19.330  30.798  18.929  0.2272 -0.2525 -0.4144
 6318W        W49334   6.458  18.642  25.141  0.0500  0.0253 -0.1113
 6319W        W49335  24.966  13.108  26.430  0.3108  0.2531  0.1815
 6320W        W49336  27.434  16.724   5.834 -0.0429 -0.0977  0.0622
 6321W        W49337  24.161  11.008   7.749  0.0368 -0.3647  0.1806
 6322W        W49338  26.909   6.497  24.384 -0.0748 -0.2312 -0.1185
 6323W        W49339  24.915  13.347   1.861  0.1011 -0.0945 -0.1876
 6324W        W49340  22.972  13.367   7.916 -0.1465 -0.0814 -0.0425
 6325W        W49341   2.716  10.055  26.941  0.1301  0.0490  0.3001
 6326W        W49342   8.877   9.942   4.121  0.1037 -0.0808 -0.2671
 6327W        W49343   6.339  17.445   4.755 -0.3705  0.1602 -0.0122
 6328W        W49344  25.504  20.858  20.059  0.1814 -0.0523  0.1194
 6329W        W49345  21.122   7.983  24.892  0.1793 -0.0155  0.2781
 6330W        W49346  20.450  24.598   9.047 -0.1858  0.2263 -0.0038
 6331W        W49347  32.210  16.414   0.676  0.2543 -0.1143  0.0416
 6332W        W49348  32.264  21.275  24.105  0.1207 -0.0373 -0.0242
 6333W        W49349  14.489  25.530  29.197 -0.3076 -0.3500  0.1359
 6334W        W49350  12.459   7.970   5.406 -0.0273  0.2150  0.4492
 6335W        W49351  16.731  12.072   3.883  0.1002 -0.3431  0.0851
 6336W        W49352   0.391  14.829   0.331 -0.2921 -0.1223  0.0709
 6337W        W49353  21.430  20.321  18.715  0.0691  0.0196  0.1742
 6338W        W49354   5.939  27.180  20.001 -0.0389  0.2833 -0.0041
 6339W        W49355  32.672  15.071  27.674  0.2957 -0.3319 -0.1629
 6340W        W49356  26.689  17.092   8.301  0.0894 -0.2671  0.1211
 6341W        W49357  17.530   7.440   9.217 -0.2235 -0.3177 -0.2893
 6342W        W49358  25.722  17.005  19.489 -0.0511 -0.0331  0.0052
 6343W        W49359   0.747  19.627   3.024 -0.0486 -0.3297  0.0279
 6344W        W49360  33.972   4.606  14.683  0.1253 -0.1378 -0.0072
 6345W        W49361  18.052  25.336  28.330 -0.0817 -0.4729 -0.0138
 6346W        W49362  30.332   9.025   3.072 -0.0938  0.3042 -0.0797
 6347W        W49363  29.665  19.627  24.490  0.0619  0.2089  0.3073
 6348W        W49364  19.418   7.823  14.563  0.0849  0.0323  0.2084
 6349W        W49365  17.639   2.697  19.164 -0.0488 -0.0572 -0.0536
 6350W        W49366  17.649   9.804   0.584 -0.0199  0.0241 -0.1759
 6351W        W49367   8.822  12.277   0.589 -0.0615  0.2097  0.1468
 6352W        W49368  28.906  16.268  29.141  0.1302 -0.2707 -0.1124
 6353W        W49369  25.085  32.517   1.616 -0.2036 -0.0497  0.0508
 6354W        W49370  23.534  23.560  14.419  0.2200 -0.3665  0.1058
 6355W        W49371  17.717  17.528  17.965 -0.1676 -0.0163  0.2252
 6356W        W49372  25.429  16.447  14.593 -0.1358 -0.1197 -0.2272
 6357W        W49373  15.690  16.315   1.854 -0.3252 -0.4147 -0.2845
 6358W        W49374   4.572  18.504  16.201 -0.1176 -0.0445 -0.0458
 6359W        W49375  29.176   8.168  16.814 -0.1159  0.1771  0.0051
 6360W        W49376  28.592   7.653   2.937  0.0875  0.0333  0.0480
 6361W        W49377  28.819  16.230  23.517 -0.0875 -0.1165  0.0192
 6362W        W49378  19.541  14.223  27.698 -0.1622  0.0649  0.0691
 6363W        W49379  24.314  16.776   9.324  0.0765  0.0461 -0.1800
 6364W        W49380  29.239  10.421  17.556  0.0814 -0.0320  0.3257
 6365W        W49381  34.472  30.063   1.977 -0.1942 -0.1953 -0.1538
 6366W        W49382  30.842  10.351  24.439  0.3917 -0.2125  0.1749
 6367W        W49383  25.049   8.770   7.143 -0.2781 -0.0700  0.0726
 6368W        W49384  16.204  21.542  28.549  0.0799  0.2841  0.0617
 6369W        W49385   7.800  11.934   7.980 -0.0041  0.2472 -0.1050
 6370W        W49386  32.544   0.090  23.522  0.0809  0.2931  0.0905
 6371W        W49387   1.272   2.392   0.099  0.1519 -0.0884 -0.2156
 6372W        W49388  18.350  16.702  19.746 -0.0644  0.0421 -0.3765
 6373W        W49389  31.437  33.425  21.897 -0.2978  0.1400  0.0948
 6374W        W49390  24.950  13.649  27.775  0.3272  0.1503  0.1572
 6375W        W49391  29.410  17.014   9.429  0.4168 -0.1090 -0.1075
 6376W        W49392  30.006  12.989  23.053 -0.0969  0.1516  0.1093
 6377W        W49393   0.410   9.731   3.889  0.1079 -0.2092 -0.0576
 6378W        W49394   1.284  33.827  19.030  0.0523 -0.0442  0.0423
 6379W        W49395   3.449  26.439   4.935  0.0709  0.0036 -0.2142
 6380W        W49396  21.037   1.508   1.259 -0.2153 -0.1701 -0.0216
 6381W        W49397  29.469   9.077  17.640  0.0802  0.0036  0.0077
 6382W        W49398   0.816  15.018  17.491 -0.3574 -0.4221  0.0471
 6383W        W49399  22.720  20.230   9.503  0.2303 -0.0367  0.1961
 6384W        W49400  30.966  28.278   6.431  0.1890  0.0532 -0.1212
 6385W        W49401   2.473  25.513   5.886  0.0047 -0.0073  0.1322
 6386W        W49402  13.507  20.705  13.660 -0.0374  0.0264  0.0459
 6387W        W49403  32.429   7.206   9.098  0.0471 -0.0576 -0.1032
 6388W        W49404  33.772   9.841  17.201  0.2962 -0.1340  0.0772
 6389W        W49405   7.679  20.104  28.650 -0.2242  0.4058  0.1334
 6390W        W49406  20.907  14.998  23.402  0.2376  0.2535  0.0024
 6391W        W49407   0.972  28.536  26.887 -0.2166  0.0718  0.1870
 6392W        W49408  27.170  16.824  24.055 -0.0167  0.0131 -0.3569
 6393W        W49409  23.845  28.438   2.432  0.0391 -0.2888 -0.1105
 6394W        W49410  24.374  31.734  26.855 -0.2368  0.5654 -0.2799
 6395W        W49411   2.543  14.212   8.161 -0.2847 -0.1064  0.1955
 6396W        W49412  21.258  32.972   1.211 -0.1876  0.0528 -0.0318
 6397W        W49413  33.494  32.318  10.254 -0.2144  0.1551  0.1881
 6398W        W49414   4.220  10.173  25.138  0.2640 -0.0268  0.2234
 6399W        W49415   7.977  14.229   9.092 -0.2325 -0.2369  0.1809
 6400W        W49416   9.612  22.572   4.407  0.3254  0.0833 -0.3080
 6401W        W49417  20.880   4.692   9.181 -0.1425  0.1116 -0.0076
 6402W        W49418  10.091  15.344   4.905 -0.1507 -0.0717 -0.2354
 6403W        W49419  27.871  21.028   6.048  0.0757  0.3122  0.2267
 6404W        W49420  23.590  24.389   0.333  0.0865  0.2092 -0.0974
 6405W        W49421  17.468  14.378  21.087  0.1968  0.2425 -0.1146
 6406W        W49422  33.795  12.277   9.785  0.1701 -0.1039 -0.0020
 6407W        W49423   4.549   8.289   9.258 -0.3657 -0.2953 -0.0167
 6408W        W49424  31.171  27.061   4.285  0.2267 -0.1645  0.1312
 6409W        W49425  27.226   7.745   5.081 -0.0456  0.2512 -0.1817
 6410W        W49426  19.427  25.441  26.405  0.1218  0.0118  0.4500
 6411W        W49427   2.029  19.809   1.597 -0.0492  0.3091 -0.0359
 6412W        W49428  28.646  18.221   1.606 -0.1475 -0.2975  0.0028
 6413W        W49429  30.640  31.946   8.416 -0.3313  0.1870  0.2057
 6414W        W49430  16.580  16.537  25.467  0.0357 -0.1093 -0.4634
 6415W        W49431  14.619  25.955  23.612 -0.1170  0.2720  0.3156
 6416W        W49432  27.554  10.580   9.519 -0.1409 -0.1125  0.1461
 6417W        W49433  29.082  12.606   6.320 -0.0430 -0.2561  0.0384
 6418W        W49434  20.281   1.896  28.967 -0.1718  0.0620  0.2490
 6419W        W49435  24.228  20.834  14.931  0.2418  0.5559  0.1628
 6420W        W49436   1.454  32.653   4.481 -0.0860 -0.2564  0.1755
 6421W        W49437   0.490  33.424   1.844  0.1743 -0.1080 -0.1994
 6422W        W49438   1.673  30.327   1.702 -0.0556  0.1658 -0.1412
 6423W        W49439  16.764  19.219  27.259  0.1133 -0.2152 -0.4019
 6424W        W49440  31.980  32.005   7.997  0.1941  0.0269 -0.0794
 6425W        W49441  20.850  27.651  28.714  0.1714 -0.0541 -0.1728
 6426W        W49442  34.006   3.683  19.208  0.0384  0.0850 -0.1295
 6427W        W49443  15.701   2.429   8.604  0.2643  0.1179 -0.3884
 6428W        W49444  16.785  17.672   6.433 -0.2261 -0.0311  0.1371
 6429W        W49445  22.628   7.983  29.228  0.1075  0.1019  0.4124
 6430W        W49446  26.305  20.597  19.621 -0.1932 -0.2660 -0.0903
 6431W        W49447  27.630   7.855  15.279 -0.0423  0.0373 -0.0912
 6432W        W49448  26.549   2.518   6.401 -0.2780 -0.1406  0.3685
 6433W        W49449   3.243  16.634   8.840  0.0343 -0.1805  0.2194
 6434W        W49450   4.547   5.443  19.506  0.0851 -0.0281 -0.1051
 6435W        W49451  26.458  14.660  26.151 -0.2535  0.0966  0.0257
 6436W        W49452  24.252  24.050   6.729 -0.1800  0.1180  0.1843
 6437W        W49453  20.487  18.580  24.062  0.0917 -0.1966  0.1285
 6438W        W49454  17.401  12.801   1.097 -0.1884  0.2012 -0.3073
 6439W        W49455  31.892  17.177   8.494 -0.2525  0.0038  0.0415
 6440W        W49456   9.746  27.252  21.922 -0.0175  0.2188  0.0506
 6441W        W49457  10.941  18.916  13.723  0.0568  0.1071  0.4201
 6442W        W49458  19.020  27.107  15.790  0.2220 -0.3375 -0.2250
 6443W        W49459  17.961  16.015  14.630 -0.2371  0.1581  0.0613
 6444W        W49460  33.072  11.490   7.970 -0.0063  0.3001 -0.1281
 6445W        W49461  10.891  27.451   7.441 -0.2663 -0.0806  0.5018
 6446W        W49462   4.030  20.219  25.985  0.1293  0.0879  0.3614
 6447W        W49463  28.461   7.158  20.309  0.0190 -0.2712 -0.2394
 6448W        W49464   6.780  11.813  21.592  0.2089 -0.0479 -0.1996
 6449W        W49465  28.963  31.400  10.654 -0.1626 -0.0426  0.1037
 6450W        W49466  18.719  17.674  13.046  0.1858  0.1300 -0.0749
 6451W        W49467  33.342  24.065  22.290  0.3762  0.1169 -0.4680
 6452W        W49468   3.352  10.733   3.539  0.1348 -0.1173  0.0578
 6453W        W49469   2.023  11.233  14.838 -0.0644 -0.3927  0.1945
 6454W        W49470  26.634  18.664  24.256 -0.2719  0.2851 -0.3036
 6455W        W49471  24.514  29.106  18.231 -0.1246  0.2697 -0.2434
 6456W        W49472  15.840  34.005  28.955 -0.1672  0.2569  0.1711
 6457W        W49473   8.967  14.254  21.574 -0.0154 -0.0927 -0.2786
 6458W        W49474   4.288  21.381  28.855  0.0751 -0.1049 -0.0272
 6459W        W49475  32.699   2.927  26.659 -0.1846 -0.1311 -0.1471
 6460W        W49476  12.986  28.631   6.776 -0.0378 -0.0737  0.0429
 6461W        W49477  33.553  29.574  10.140 -0.0951 -0.1110  0.2320
 6462W        W49478  26.413  17.208  24.300 -0.0684  0.2428  0.0033
 6463W        W49479   8.983  29.446   2.494 -0.0157 -0.1605 -0.1896
 6464W        W49480  21.392  11.420   8.321 -0.0789  0.1927  0.2256
 6465W        W49481  15.061  14.585   1.872 -0.0631 -0.1337 -0.0267
 6466W        W49482  16.387   7.030  13.381  0.3677  0.0584 -0.0127
 6467W        W49483  33.925  29.990  27.532  0.0185  0.2650  0.1109
 6468W        W49484   1.907   9.219   5.685  0.1183 -0.2058 -0.3276
 6469W        W49485  33.600  12.944  17.203 -0.1612  0.0748  0.1302
 6470W        W49486  11.046  24.588  21.719  0.0148 -0.1375  0.1152
 6471W        W49487  23.088   9.528   2.172  0.1064  0.1637 -0.0532
 6472W        W49488  30.046   5.815  10.728  0.2639 -0.4253  0.0607
 6473W        W49489  17.420  23.659  13.074 -0.1695 -0.2091  0.0857
 6474W        W49490  26.955  22.570   0.284 -0.0201  0.0256  0.1528
 6475W        W49491  33.569   6.973  27.083 -0.3091 -0.4330  0.5076
 6476W        W49492   7.337  10.405  22.334  0.2253 -0.3202  0.0052
 6477W        W49493  26.360  24.207  21.413  0.2692 -0.2261 -0.0830
 6478W        W49494  12.679  11.721  20.834  0.3611  0.1448 -0.1962
 6479W        W49495  18.114  27.029  20.077 -0.2678  0.2920  0.1016
 6480W        W49496  16.564  22.757   8.081  0.0470 -0.0821 -0.0886
 6481W        W49497  25.431  16.369   9.642 -0.0731 -0.0965 -0.2735
 6482W        W49498   1.482   8.016   6.720  0.0706  0.1376 -0.0165
 6483W        W49499  24.434  27.163   3.551  0.2135  0.0863  0.2415
 6484W        W49500  28.368  11.842  16.829  0.1205  0.0730  0.3881
 6485W        W49501  23.419  18.087   0.171 -0.2340 -0.2852  0.1514
 6486W        W49502  25.247  21.656  15.677 -0.0975  0.0657  0.4313
 6487W        W49503  13.842  18.176  15.513 -0.4294 -0.0685  0.2173
 6488W        W49504  19.422  14.134   8.572 -0.2521  0.2846  0.2302
 6489W        W49505  21.872  21.016  19.268  0.1325 -0.1582 -0.1051
 6490W        W49506  26.716   9.271  22.445 -0.1872  0.1678 -0.1351
 6491W        W49507   3.526  33.699  25.640 -0.1557  0.2978  0.0354
 6492W        W49508   7.819  10.524   1.857 -0.0434 -0.0122 -0.3509
 6493W        W49509   6.855  13.234  26.210 -0.1436  0.0283 -0.1474
 6494W        W49510  29.863  12.919  23.675  0.2998 -0.3081 -0.1067
 6495W        W49511  21.034  26.018   8.754 -0.4842 -0.1643  0.0941
 6496W        W49512  23.242  15.427  14.297  0.3021 -0.1643  0.1600
 6497W        W49513  28.915   1.380   7.911  0.2358  0.0594 -0.2323
 6498W        W49514   6.317  22.889  19.685  0.2033 -0.1107 -0.0884
 6499W        W49515   7.266  12.860   2.952 -0.1012 -0.0916  0.0170
 6500W        W49516  20.087  30.363  29.103  0.3363 -0.4482  0.5177
 6501W        W49517  21.334  20.705   9.136 -0.0698  0.0834 -0.0973
 6502W        W49518  17.410   0.031   1.406  0.0269  0.1061 -0.3643
 6503W        W49519  22.424   5.827   3.651 -0.2029  0.0401 -0.1573
 6504W        W49520  12.918   9.811   2.361  0.0030 -0.0620 -0.1226
 6505W        W49521  13.421  26.101   4.303  0.0631  0.1616 -0.2745
 6506W        W49522   0.761  27.845  20.037  0.5248 -0.4924 -0.0495
 6507W        W49523  23.319  10.472   0.139  0.2146  0.0368  0.1796
 6508W        W49524  25.638  16.544  20.514  0.0034 -0.0039 -0.0254
 6509W        W49525  30.696   9.850   0.373  0.0305  0.4013 -0.0773
 6510W        W49526  29.799  27.945  17.646  0.1961 -0.3697  0.0729
 6511W        W49527   3.900   1.215   9.969 -0.1821  0.1243 -0.1993
 6512W        W49528  13.773  17.844   7.980 -0.2322  0.3204 -0.0685
 6513W        W49529  22.074   0.357   0.195 -0.1818 -0.2523  0.3062
 6514W        W49530   3.938  22.181   7.706  0.1021  0.0167 -0.0246
 6515W        W49531  27.102  24.090   7.987 -0.1366  0.0316 -0.4124
 6516W        W49532  32.908  23.264  25.551  0.0646  0.2522  0.0098
 6517W        W49533  19.413  19.727   5.452  0.2361 -0.1360 -0.1539
 6518W        W49534   8.386   3.186  26.971  0.1253  0.0056  0.1082
 6519W        W49535  12.816  13.572  28.543  0.2672 -0.1678 -0.2410
 6520W        W49536  20.691  34.154  17.263  0.1563 -0.0014 -0.2361
 6521W        W49537   3.661  27.774  19.149  0.1278  0.2703 -0.2314
 6522W        W49538   2.208  11.255  21.429 -0.0502 -0.0644  0.1022
 6523W        W49539  27.574  19.427   9.751  0.2978  0.0107 -0.0036
 6524W        W49540  34.255  28.888  18.719 -0.0772  0.0219 -0.0273
 6525W        W49541  16.535   9.566   7.259 -0.0353 -0.0233 -0.1711
 6526W        W49542   2.099  27.272  20.985 -0.0943  0.2437  0.3894
 6527W        W49543  21.054  23.130   3.928  0.3879 -0.0008 -0.1096
 6528W        W49544  29.240  23.613  26.102  0.3120  0.0026  0.1434
 6529W        W49545  27.728  17.123  16.734  0.0074 -0.0778  0.1504
 6530W        W49546  29.270  24.575   2.546  0.5147  0.1530  0.1950
 6531W        W49547  25.864   0.570   7.740 -0.1487  0.0167  0.1943
 6532W        W49548  11.829  28.621   7.170  0.3878  0.2897 -0.0293
 6533W        W49549   9.315  17.505  22.574 -0.0944 -0.2376  0.0434
 6534W        W49550   4.390  18.623   0.540  0.0395  0.0369 -0.0880
 6535W        W49551  29.003  24.772  26.041 -0.0543  0.0353  0.1478
 6536W        W49552  24.073  12.450   1.189  0.2507  0.2624 -0.0257
 6537W        W49553  18.201  26.583   0.768 -0.3498  0.0921  0.1573
 6538W        W49554  30.151  27.895  21.574 -0.1299 -0.2268  0.2218
 6539W        W49555  21.529   3.139  22.852  0.2570  0.0714 -0.2882
 6540W        W49556  24.324  22.233  27.566 -0.5066 -0.2715 -0.1853
 6541W        W49557  16.500  15.700  22.236  0.0172  0.0114 -0.0655
 6542W        W49558  15.783  18.765   3.767 -0.0725 -0.1236  0.1957
 6543W        W49559  10.631  15.338  20.898 -0.0081  0.2283  0.2291
 6544W        W49560   0.432   7.487  18.766  0.0094 -0.1416 -0.3015
 6545W        W49561  23.163  20.549  25.323  0.0573  0.0369 -0.1271
 6546W        W49562   9.283  21.436   5.209 -0.1067  0.4654  0.2190
 6547W        W49563   5.771  17.671   8.019  0.1309  0.1920  0.1905
 6548W        W49564   4.582  29.903  27.393 -0.1304  0.0095 -0.0137
 6549W        W49565  29.449   4.151  16.010  0.0244  0.1239  0.0807
 6550W        W49566  28.891  10.744  19.759  0.0321  0.0264 -0.0273
 6551W        W49567  30.550  29.949  10.986  0.2965 -0.0798 -0.3099
 6552W        W49568   5.726  27.908   5.483  0.0540 -0.0849  0.0953
 6553W        W49569  28.369  21.985  18.095  0.0526 -0.0421 -0.0341
 6554W        W49570  20.102  20.025   8.676 -0.2127 -0.4061 -0.4385
 6555W        W49571  14.692  27.491   1.537 -0.3862 -0.1708 -0.3820
 6556W        W49572  21.260   9.827   9.761 -0.2234  0.1286  0.1824
 6557W        W49573  15.835  25.793  17.343  0.0290 -0.1636  0.0928
 6558W        W49574  25.414  11.752  19.192  0.0654 -0.1123  0.3112
 6559W        W49575  29.620  10.377  28.225 -0.0961  0.3884 -0.0825
 6560W        W49576   1.056  10.457   4.759 -0.1011 -0.3472  0.0764
 6561W        W49577  31.557   0.779   4.878  0.1631  0.1005  0.3046
 6562W        W49578   2.328  13.585  15.829 -0.2604 -0.2269 -0.2492
 6563W        W49579  22.008  11.354  13.348 -0.0067 -0.1844 -0.0414
 6564W        W49580  22.376  21.716  21.052 -0.0951  0.1901  0.0806
 6565W        W49581  21.137   0.108  16.707  0.1055 -0.0863  0.1368
 6566W        W49582   9.926   7.556  29.175  0.1176 -0.1387  0.1091
 6567W        W49583  33.256  24.455  28.945 -0.4018  0.1522 -0.1786
 6568W        W49584  32.646   6.161  24.847 -0.1154  0.0830 -0.1311
 6569W        W49585  16.545  24.687   9.370  0.2023  0.0652 -0.2982
 6570W        W49586  16.089  24.791   0.725 -0.0105 -0.3792 -0.1398
 6571W        W49587  30.080  11.856   0.342  0.0776 -0.1386  0.4156
 6572W        W49588   7.070   9.563  25.483  0.2839 -0.1689 -0.2384
 6573W        W49589  31.310  22.519   4.752  0.0625  0.0594  0.4220
 6574W        W49590  25.811  20.494   1.871  0.0374  0.2475 -0.1035
 6575W        W49591  26.651  10.271  10.126 -0.0061  0.2684 -0.0187
 6576W        W49592  18.788   5.674  25.330  0.0662 -0.1934  0.2260
 6577W        W49593  19.168  10.560   2.530 -0.0444 -0.0642 -0.1613
 6578W        W49594  26.490  11.257  22.964 -0.0298  0.0981  0.2513
 6579W        W49595   4.304  19.511  26.777 -0.0911 -0.0563 -0.1228
 6580W        W49596  26.735  32.601   5.870 -0.0811 -0.3160 -0.0852
 6581W        W49597  17.528  22.437  17.939 -0.5088  0.2270  0.0175
 6582W        W49598   4.755  24.637  25.357  0.2464 -0.1948 -0.0801
 6583W        W49599  34.461  25.116  27.011  0.0154  0.1878 -0.1884
 6584W        W49600  25.751  16.243   6.741 -0.1627 -0.0785 -0.1071
 6585W        W49601  23.041  20.740  17.244  0.1183 -0.0352  0.1074
 6586W        W49602  14.753  32.206  17.942 -0.3045 -0.1042 -0.0160
 6587W        W49603  26.279  19.145   8.786 -0.0423  0.1699  0.0586
 6588W        W49604   2.062  10.684   2.737  0.0980  0.0725 -0.0269
 6589W        W49605  18.789   3.661   3.087  0.0391 -0.1035 -0.0484
 6590W        W49606  19.876  21.289  14.086  0.1804 -0.2615 -0.0256
 6591W        W49607  25.823  11.561  19.963  0.2142 -0.2321 -0.3753
 6592W        W49608  30.349  11.484  19.854 -0.2210  0.1163 -0.2817
 6593W        W49609  34.138  18.234  25.957 -0.1534  0.0835  0.0985
 6594W        W49610  17.534  19.437  23.618 -0.1556  0.0896 -0.2151
 6595W        W49611  20.618  12.566   0.948 -0.2156 -0.0121  0.1520
 6596W        W49612  18.944  15.792  20.880  0.3879 -0.3309  0.0779
 6597W        W49613  19.828   9.792   6.212  0.1813 -0.1149  0.0248
 6598W        W49614  15.214   9.749  26.930  0.0238 -0.1276  0.0355
 6599W        W49615   9.246  20.730  18.103  0.2341  0.5564  0.3738
 6600W        W49616  28.651  34.701  18.643  0.0720 -0.3345 -0.0333
 6601W        W49617  33.755  22.105   3.099  0.1735 -0.0932 -0.3606
 6602W        W49618   0.430  16.125   1.603  0.0157 -0.2997 -0.1629
 6603W        W49619  27.024  33.600  18.510 -0.2274  0.2602  0.2321
 6604W        W49620   3.013  27.995   5.356 -0.3449 -0.4173 -0.1110
 6605W        W49621  20.700  15.108  25.187 -0.2935 -0.0082 -0.1374
 6606W        W49622  28.240  20.726  23.336  0.1912  0.2600 -0.0302
 6607W        W49623  31.143  11.077  20.121 -0.1030 -0.1889  0.3334
 6608W        W49624  29.654  32.104  24.223  0.2605 -0.1394 -0.2330
 6609W        W49625  28.130   3.128  16.755  0.1339  0.0572 -0.2205
 6610W        W49626  21.873   7.286  27.774 -0.1378  0.1579 -0.2488
 6611W        W49627  20.382   4.534  14.798  0.1110 -0.0073  0.1400
 6612W        W49628  30.884  13.712   6.861  0.0955  0.0444  0.1079
 6613W        W49629   2.697  34.280  24.711  0.0766 -0.1781 -0.3546
 6614W        W49630   6.772  21.445   4.754  0.0523 -0.2723  0.0351
 6615W        W49631  16.205  30.388   8.573 -0.0254  0.2105 -0.0185
 6616W        W49632   6.117  17.244   7.075  0.0176  0.3875  0.4316
 6617W        W49633  29.994  30.186   9.521  0.1132  0.2654  0.1571
 6618W        W49634  30.103  10.939   3.888 -0.0107  0.0777  0.2017
 6619W        W49635  29.005   8.757  15.478 -0.0224 -0.2584  0.0427
 6620W        W49636   7.067  29.648  14.823 -0.0495 -0.0706  0.0406
 6621W        W49637  10.642  16.890   1.601  0.0488  0.1251  0.0983
 6622W        W49638   2.345   2.069   8.693  0.1587  0.2689 -0.2705
 6623W        W49639  25.969  11.876  26.274  0.1370 -0.3537  0.1458
 6624W        W49640  28.668  10.570   5.113 -0.0686  0.0389 -0.2166
 6625W        W49641   2.760  14.624  21.596 -0.1055  0.0941 -0.0397
 6626W        W49642  20.828  25.255   9.764 -0.1850  0.2419 -0.1212
 6627W        W49643  29.700  18.159  10.205  0.0277 -0.0288  0.4079
 6628W        W49644  30.601  23.431   5.370  0.3849 -0.0037 -0.0078
 6629W        W49645  32.385   2.079   8.007 -0.1898  0.1027 -0.4247
 6630W        W49646   7.826   6.023   5.257 -0.0924  0.1794  0.1713
 6631W        W49647  20.965  22.007  29.015  0.1538  0.1147 -0.2886
 6632W        W49648  11.524  17.090  22.431 -0.0046 -0.0892  0.3100
 6633W        W49649   7.759   9.666   6.592  0.2457  0.2141  0.0240
 6634W        W49650   2.327   4.830  24.569 -0.1944  0.1195  0.3232
 6635W        W49651  17.738  15.772   2.419 -0.0461  0.0842  0.0290
 6636W        W49652  30.074  16.412   4.297 -0.1933 -0.0114  0.2413
 6637W        W49653  25.728  18.825   1.741  0.2250 -0.2305 -0.2059
 6638W        W49654  13.462  27.579  14.591  0.0080  0.0075 -0.2033
 6639W        W49655  16.467  13.996   2.349  0.1737 -0.0555 -0.0766
 6640W        W49656  25.022  26.352   6.958  0.2643  0.0393  0.2175
 6641W        W49657   2.945  30.956   4.057  0.0881 -0.2605  0.3004
 6642W        W49658  33.366  18.597   0.758  0.0971  0.2861 -0.0446
 6643W        W49659  14.942  18.260  21.253 -0.0465  0.0157 -0.1755
 6644W        W49660  10.384  10.049  26.867 -0.1281  0.0306  0.1874
 6645W        W49661   1.177  30.333   5.296  0.0653  0.0220 -0.0563
 6646W        W49662  28.310  22.540  18.166  0.0812  0.2762  0.3092
 6647W        W49663  25.159  30.276   0.789  0.3309 -0.1996 -0.1338
 6648W        W49664  23.918  23.979   4.668  0.1467  0.2840 -0.1973
 6649W        W49665  30.646  15.715   5.128  0.3149  0.2376  0.0314
 6650W        W49666  22.602   9.123  20.151  0.4677  0.1655 -0.1395
 6651W        W49667   1.900  13.493  21.898  0.0877  0.0254 -0.1006
 6652W        W49668  24.059  12.546  27.469  0.0854  0.4887 -0.1192
 6653W        W49669   8.933   5.917   3.502  0.1795  0.1236 -0.0249
 6654W        W49670  27.149  18.549  17.706  0.0768 -0.1977  0.0591
 6655W        W49671  22.507  25.628  16.194 -0.1056 -0.0693 -0.3310
 6656W        W49672  29.043  23.799  19.008  0.0912 -0.0164  0.3882
 6657W        W49673  21.485  17.091   7.042  0.3128  0.0072  0.2351
 6658W        W49674  25.873  15.281   1.419 -0.1800  0.2506 -0.2948
 6659W        W49675  11.647   1.391  20.368 -0.0501  0.0606 -0.1802
 6660W        W49676  12.128   5.850  18.541  0.0051 -0.3728  0.1009
 6661W        W49677  24.992  22.085  17.571 -0.1987  0.2100 -0.1457
 6662W        W49678   3.247   3.455  15.726 -0.1254 -0.0683  0.1309
 6663W        W49679  26.340  32.110   9.119 -0.0766 -0.1343  0.1698
 6664W        W49680  17.076  17.432   5.582 -0.1904 -0.0051  0.2512
 6665W        W49681  27.298   9.440   6.177  0.0096 -0.3133 -0.1113
 6666W        W49682   2.712   4.348   1.073 -0.1691 -0.3624 -0.1472
 6667W        W49683  30.060  20.028   4.828 -0.0312 -0.2117  0.0146
 6668W        W49684  23.770  24.600  14.811  0.1577  0.1770  0.0717
 6669W        W49685  21.221  25.513  20.159  0.1387 -0.1060 -0.0937
 6670W        W49686  25.526  29.083  22.620  0.2566 -0.0028 -0.0045
 6671W        W49687  17.143  33.374   1.279 -0.0145  0.0401  0.2019
 6672W        W49688  18.443   9.668  26.116  0.0974 -0.1580 -0.0005
 6673W        W49689  21.245  24.676  17.711  0.1190  0.4565 -0.1288
 6674W        W49690  22.978  11.362   0.207 -0.2581  0.0624 -0.0788
 6675W        W49691  13.644   4.629  25.928  0.1381  0.3025  0.1552
 6676W        W49692   1.743  15.598   5.665 -0.1094 -0.0156  0.1591
 6677W        W49693  25.620  30.364   4.514  0.0255  0.1679  0.4059
 6678W        W49694  15.022  30.410   6.682 -0.0150 -0.4382  0.1926
 6679W        W49695  31.988  29.255   3.263 -0.0242  0.1200  0.0365
 6680W        W49696  27.297   2.309  28.665 -0.0254  0.3511 -0.1883
 6681W        W49697  18.316   0.438  26.678  0.0709  0.0398  0.0208
 6682W        W49698  32.561  22.336  28.351  0.2527 -0.1925  0.2342
 6683W        W49699  20.993  11.893   1.129  0.1948  0.0664 -0.3786
 6684W        W49700   7.248   5.590  27.317 -0.0391  0.0820 -0.0356
 6685W        W49701   9.329   3.694  20.014 -0.4865  0.0573  0.2059
 6686W        W49702  23.832  15.454   3.562 -0.1181  0.2081  0.2970
 6687W        W49703  27.172  24.539  20.768  0.0603 -0.0610  0.0905
 6688W        W49704  23.134  28.942  10.545 -0.0456  0.3699 -0.0782
 6689W        W49705  19.774  15.349  20.332 -0.2947  0.1816  0.0022
 6690W        W49706  30.990  15.283  28.845 -0.0208 -0.1148 -0.0095
 6691W        W49707  15.076  28.983  27.267 -0.2264 -0.0206 -0.3066
 6692W        W49708  30.590  16.797   3.599 -0.1420  0.1194  0.1906
 6693W        W49709  24.696  24.974  10.866  0.2718 -0.2599  0.0709
 6694W        W49710  33.507   3.446   3.996 -0.3110  0.4515  0.0816
 6695W        W49711  11.273  17.285  28.939 -0.0294 -0.0940  0.0353
 6696W        W49712  20.565  14.920   8.888 -0.1287 -0.1741 -0.0010
 6697W        W49713  16.754  20.088   1.424  0.3177 -0.2446  0.1122
 6698W        W49714  14.604  10.602  22.001  0.0822 -0.2279 -0.1068
 6699W        W49715  23.052  20.614   9.674  0.0497 -0.1761 -0.2164
 6700W        W49716  21.959  14.072   0.520  0.0002  0.0507 -0.0536
 6701W        W49717  29.013  15.344  22.074 -0.0472 -0.3665 -0.1939
 6702W        W49718  24.985  11.618   6.630  0.2524  0.2356 -0.1539
 6703W        W49719  22.938   9.289   3.784 -0.1371  0.0434  0.3247
 6704W        W49720  27.019  27.697  11.815 -0.1286  0.2609  0.0942
 6705W        W49721  19.243  15.159  25.301 -0.0220  0.0184 -0.0161
 6706W        W49722  21.917   7.041  18.588 -0.2152 -0.1988 -0.2063
 6707W        W49723   4.003  23.257   2.319 -0.1184 -0.0141  0.2498
 6708W        W49724   8.876  33.547   9.296 -0.2791  0.0450 -0.0434
 6709W        W49725  31.347  33.816   9.356 -0.0494 -0.0020 -0.0553
 6710W        W49726  34.061   8.877   2.276 -0.0918 -0.3255 -0.1361
 6711W        W49727   2.200  19.612  14.459 -0.0979 -0.0010 -0.2406
 6712W        W49728  18.573  14.347  26.727  0.0240  0.0290  0.0628
 6713W        W49729  19.238   1.413   8.130  0.2860 -0.2148  0.2050
 6714W        W49730  30.074   7.051   8.814  0.0763  0.0044 -0.1331
 6715W        W49731   6.339  11.730  25.214 -0.0421 -0.1340  0.3166
 6716W        W49732  27.754  28.511  10.079  0.1277 -0.1711  0.1161
 6717W        W49733  29.194  13.730   7.025 -0.3582 -0.2586  0.0147
 6718W        W49734  22.471   1.574  28.210  0.0952  0.3659  0.1773
 6719W        W49735  34.624   8.786   7.159  0.3039 -0.3690 -0.1028
 6720W        W49736   1.132  33.886  25.644 -0.2154 -0.1329  0.2051
 6721W        W49737  17.448  13.123  14.942 -0.1424 -0.2084 -0.0296
 6722W        W49738  16.084  29.080  22.552  0.1450 -0.1617  0.3012
 6723W        W49739   8.873   3.075  24.369  0.3062  0.1234 -0.3642
 6724W        W49740  20.288  21.813   1.917 -0.2595  0.3228 -0.1078
 6725W        W49741  19.827  32.568   2.235  0.0822  0.1467 -0.1816
 6726W        W49742  19.371  21.316  28.409 -0.0566  0.1189 -0.0371
 6727W        W49743   9.189   8.992   0.234  0.0515 -0.0205  0.0152
 6728W        W49744   3.106  14.987  25.756 -0.0789 -0.3754  0.1372
 6729W        W49745  33.594   2.039  20.496 -0.1041  0.3577 -0.3617
 6730W        W49746  31.246  11.806   8.420 -0.1017  0.1304 -0.0942
 6731W        W49747  33.808  30.925   2.166 -0.3302  0.1676  0.1868
 6732W        W49748  29.543  22.090   6.723 -0.1474  0.1073 -0.1035
 6733W        W49749  20.497   6.488  23.499 -0.3635  0.2422  0.2315
 6734W        W49750  14.164   6.898   1.197 -0.2472  0.0600 -0.2143
 6735W        W49751  11.197   4.366  16.333 -0.0189  0.1220  0.1183
 6736W        W49752   8.656   4.922  18.606  0.1153  0.1319 -0.1372
 6737W        W49753  28.648  11.904  19.422  0.1793 -0.1438 -0.0604
 6738W        W49754   8.986  23.506   0.728 -0.1257 -0.0139 -0.0412
 6739W        W49755  23.332   3.245  25.873  0.2646  0.1887  0.0212
 6740W        W49756  13.488  23.136  18.268  0.3053 -0.2237 -0.0783
 6741W        W49757  34.040   9.418   1.804 -0.2548  0.0856  0.0612
 6742W        W49758  33.318  27.151   2.356  0.1939 -0.4245 -0.0489
 6743W        W49759  29.388  25.889  25.978  0.0114  0.1368 -0.1976
 6744W        W49760  12.693   8.592  22.771  0.2569 -0.2883 -0.1284
 6745W        W49761  22.708  16.357   2.073 -0.1019  0.1951 -0.2024
 6746W        W49762  25.224  26.549   9.007 -0.2670 -0.3387  0.1569
 6747W        W49763  23.816  22.679  26.197  0.0038 -0.0237 -0.1295
 6748W        W49764  24.352   9.446  22.218  0.0784 -0.1300  0.1968
 6749W        W49765  31.953   6.757  18.582  0.0253  0.0688 -0.0531
 6750W        W49766  15.945   8.302   9.599  0.2469  0.0759  0.0099
 6751W        W49767  22.768  32.127   6.311 -0.2015  0.1201  0.0263
 6752W        W49768  15.040   9.817   2.542 -0.0211  0.0422  0.0279
 6753W        W49769   4.281  16.977   3.800  0.3176  0.2439 -0.2408
 6754W        W49770  32.781  24.314  23.063 -0.1540 -0.0247 -0.0638
 6755W        W49771  30.859  24.942   8.807 -0.2044  0.1811  0.1611
 6756W        W49772  22.492  30.210  17.077  0.3533 -0.0006  0.0641
 6757W        W49773  30.044  33.953  22.314  0.1140 -0.0180  0.0827
 6758W        W49774  24.321  16.962  13.639  0.2662 -0.0281 -0.2027
 6759W        W49775   9.341   1.414  14.943  0.0914 -0.0271  0.0912
 6760W        W49776  31.338  26.516  15.533  0.0827 -0.3085  0.3657
 6761W        W49777  23.151  27.239  15.061 -0.1024 -0.1681  0.0088
 6762W        W49778  10.413  12.643  27.222  0.1474 -0.0155 -0.0134
 6763W        W49779  26.625  28.110  21.824  0.0544 -0.1802  0.0370
 6764W        W49780  12.319  21.738  16.916  0.2418 -0.1506 -0.1774
 6765W        W49781  14.936  22.491  14.588  0.0059  0.0182  0.3984
 6766W        W49782  13.488   2.471   9.457 -0.0633 -0.1176  0.0433
 6767W        W49783  25.628   6.744  21.964 -0.2244 -0.0122 -0.0360
 6768W        W49784   4.885  23.075  28.039  0.1255  0.1620 -0.2830
 6769W        W49785  22.888  24.460  24.928  0.3413 -0.0952  0.1586
 6770W        W49786   9.808  23.592   5.469  0.0985 -0.1577 -0.0459
 6771W        W49787  11.700  25.140  15.913 -0.1438  0.0342  0.1813
 6772W        W49788  23.770  34.603  19.873 -0.1315  0.1387 -0.2825
 6773W        W49789  11.394  19.312  19.851  0.1062  0.3038  0.2321
 6774W        W49790  15.211  20.780  12.019 -0.2030  0.1045 -0.3106
 6775W        W49791  19.506  28.391  17.378  0.1920 -0.0761  0.1986
 6776W        W49792  16.785  22.622  18.481  0.2690 -0.2532 -0.1110
 6777W        W49793  22.389   1.669  22.386  0.0622 -0.4375 -0.1478
 6778W        W49794  26.527  22.637  21.687 -0.0160 -0.3488 -0.3097
 6779W        W49795  12.534  13.742  16.340 -0.0245 -0.2281 -0.0806
 6780W        W49796  24.097  13.021  27.778 -0.0576 -0.0153 -0.0548
 6781W        W49797  17.810   0.969   1.681  0.1283 -0.0892  0.0429
 6782W        W49798  19.826  28.832  28.791 -0.0489 -0.0113  0.0388
 6783W        W49799  32.444  17.351   6.506  0.0248  0.4166  0.0310
 6784W        W49800  21.860  26.760  27.050  0.0068  0.2171  0.2049
 6785W        W49801  26.335   7.205  24.202 -0.2724  0.5058  0.0745
 6786W        W49802  29.075  14.470  16.506 -0.2027  0.0278  0.2528
 6787W        W49803  25.978   6.331  25.098  0.1038 -0.1495  0.1465
 6788W        W49804   1.706  30.076  27.788 -0.0365  0.0947 -0.3801
 6789W        W49805   0.715  27.431  18.436 -0.2901 -0.0287  0.1082
 6790W        W49806  11.017  23.283  15.745 -0.3736  0.0960 -0.1005
 6791W        W49807  19.758  31.176  17.852  0.1768  0.0400 -0.2375
 6792W        W49808  28.790  24.820  19.040  0.2262 -0.0070  0.0900
 6793W        W49809  20.921  24.909  23.459  0.0454  0.0389 -0.1512
 6794W        W49810   3.719  28.939  14.808  0.1104  0.0218 -0.0580
 6795W        W49811  31.697  22.127  25.803  0.0230  0.0662  0.4670
 6796W        W49812   6.368  25.253  19.295 -0.1871  0.2160  0.0572
 6797W        W49813   4.780  23.619  14.528  0.0543  0.0106 -0.1359
 6798W        W49814  22.493  12.028  16.376 -0.0461 -0.1338 -0.0670
 6799W        W49815   2.487  21.778  21.803 -0.0094  0.0801  0.0710
 6800W        W49816  24.808  30.251  16.966  0.0801 -0.1726 -0.2650
 6801W        W49817  20.805  29.785  20.477  0.0611 -0.2190 -0.2041
 6802W        W49818  23.617  25.583  24.551 -0.1149 -0.1039 -0.2368
 6803W        W49819  22.564  21.070   3.944  0.1330  0.1628 -0.1148
 6804W        W49820  23.446  31.562  20.321 -0.1802 -0.0616  0.2496
 6805W        W49821  34.547  15.111  19.307  0.0291  0.0090  0.1916
 6806W        W49822  22.272  19.216  23.882  0.1070 -0.0416 -0.0810
 6807W        W49823   7.957  16.099  14.424  0.1167 -0.2876  0.1587
 6808W        W49824  17.908  28.056  20.208  0.1670 -0.0856  0.1062
 6809W        W49825  32.800  27.010  19.091 -0.1146 -0.0111 -0.0527
 6810W        W49826  28.377   4.031  17.246 -0.2362 -0.0380  0.0659
 6811W        W49827  32.868   5.814  21.834  0.0670 -0.1744 -0.2189
 6812W        W49828  19.591  13.405  15.557 -0.0570 -0.0379 -0.0136
 6813W        W49829  25.318  20.094  26.593  0.2138 -0.0489 -0.0178
 6814W        W49830  33.297  27.245  22.714 -0.0651 -0.1360  0.1695
 6815W        W49831  21.154  27.671  18.595  0.0500  0.0373  0.4078
 6816W        W49832  26.187  23.257  15.356  0.0493 -0.0861  0.0891
 6817W        W49833  15.593  20.347  13.175  0.0826 -0.2000  0.0187
 6818W        W49834  31.727   4.236  15.962 -0.1978  0.1544 -0.4386
 6819W        W49835  24.434  24.040  18.150 -0.4759 -0.4179  0.0774
 6820W        W49836  17.468  10.600  23.222  0.0212 -0.1359 -0.2029
 6821W        W49837  21.752  14.910  14.010  0.1022 -0.1918 -0.2137
 6822W        W49838   7.484  21.195  15.188  0.2010 -0.1946 -0.1413
 6823W        W49839  24.044  33.932  16.563  0.2796  0.0036  0.0128
 6824W        W49840  27.454  19.441  23.867  0.1870  0.0246 -0.0948
 6825W        W49841   5.968  26.344  17.411 -0.0826 -0.1093  0.2956
 6826W        W49842  27.164  12.840  14.655  0.1555  0.1571  0.2669
 6827W        W49843  29.049  23.998   1.382  0.0173  0.1517 -0.1148
 6828W        W49844  28.254  20.588  16.981 -0.0656 -0.2255 -0.0563
 6829W        W49845   2.038  27.996  17.305 -0.1835 -0.4177  0.0691
 6830W        W49846   3.272  32.464  19.413  0.0017  0.2596 -0.0557
 6831W        W49847  19.898   4.291  29.285 -0.1692 -0.2177  0.1545
 6832W        W49848  17.764  24.032  27.038 -0.2692  0.2001  0.0645
 6833W        W49849  28.043  10.552  19.035 -0.1910  0.2308 -0.0595
 6834W        W49850   6.174  20.257  16.025  0.4090 -0.0194  0.0801
 6835W        W49851   1.507  18.427  15.622  0.1316 -0.3936 -0.1755
 6836W        W49852  19.960  33.423  19.290  0.3756  0.2979  0.0361
 6837W        W49853  18.487   9.631   0.479  0.1935 -0.2157  0.2796
 6838W        W49854  18.683  27.419   5.238 -0.2168 -0.0649 -0.0473
 6839W        W49855   3.314  26.370  22.214 -0.0950 -0.1655  0.1713
 6840W        W49856   5.475  23.456  22.478 -0.0098 -0.0557  0.2061
 6841W        W49857  29.723  13.130  13.713  0.2007 -0.2982  0.1614
 6842W        W49858  34.499  12.628  20.479 -0.1948 -0.0094 -0.1796
 6843W        W49859  30.245  19.999  23.988  0.0130  0.0883 -0.1013
 6844W        W49860  16.378  22.893  16.694  0.3407 -0.2116  0.0247
 6845W        W49861  15.147  28.276   1.293  0.2831  0.0847  0.1248
 6846W        W49862  23.737  24.953  19.218 -0.1066  0.2189  0.2589
 6847W        W49863   1.008   1.545   4.190  0.0028  0.4698 -0.3403
 6848W        W49864  24.841  29.351  17.389  0.0774 -0.2156  0.2640
 6849W        W49865  34.399   3.266   1.341  0.0418  0.0650  0.3394
 6850W        W49866  28.800   3.746  17.124 -0.0372 -0.0961  0.0630
 6851W        W49867  24.730  24.658  16.283  0.1163 -0.0965 -0.1715
 6852W        W49868  17.853   7.230  13.491  0.2293 -0.0260  0.0945
 6853W        W49869  33.086  11.453  20.312 -0.2100  0.0402 -0.0347
 6854W        W49870  14.896  26.933  28.363  0.1529  0.4352  0.0623
 6855W        W49871  17.551   9.595  15.276  0.4499  0.0718 -0.0438
 6856W        W49872  28.028  21.798  17.763 -0.1081  0.2649 -0.0773
 6857W        W49873  13.727   6.876  22.096  0.0643 -0.0561 -0.1931
 6858W        W49874  27.661   4.205  22.385  0.1443 -0.0306 -0.1176
 6859W        W49875   2.379  34.280  17.212  0.1500  0.1347 -0.1050
 6860W        W49876  33.787   1.996  24.350 -0.0521  0.0009  0.0143
 6861W        W49877   4.584  11.292  15.081 -0.1123 -0.1983 -0.0160
 6862W        W49878  24.532  19.019  14.674  0.1375 -0.1176 -0.1201
 6863W        W49879  31.296  20.569  18.541  0.2207  0.0598  0.1588
 6864W        W49880  21.500  11.107  16.942  0.0529 -0.1020 -0.1095
 6865W        W49881  15.933  27.729  20.741  0.1173 -0.4462 -0.0157
 6866W        W49882   4.244  25.908  22.402 -0.0124  0.1477 -0.3761
 6867W        W49883   4.839  13.486  16.743 -0.1002  0.2204 -0.1864
 6868W        W49884  28.923  31.923  19.732  0.4106 -0.1565  0.0602
 6869W        W49885  22.325  18.526  18.393 -0.0610 -0.4426 -0.1071
 6870W        W49886  17.198  18.506  12.844  0.0381 -0.2572 -0.2487
 6871W        W49887  28.757  26.548   1.826  0.2357  0.1348  0.2091
 6872W        W49888  24.659  17.782  19.246 -0.1553 -0.3617 -0.3530
 6873W        W49889  17.664  21.341  12.732 -0.1730 -0.1719  0.0480
 6874W        W49890  30.522  16.499  14.893 -0.2074 -0.0809 -0.1461
 6875W        W49891  28.458   6.897   8.692  0.2527  0.0016  0.0043
 6876W        W49892   7.242   2.356  26.647 -0.0454  0.0125  0.0867
 6877W        W49893  26.491  27.394  22.982  0.1070 -0.5093 -0.0416
 6878W        W49894  11.586  25.136  13.705 -0.1846 -0.0090 -0.0093
 6879W        W49895  25.210  21.496   2.377  0.1720  0.0605  0.2145
 6880W        W49896  20.442  12.813  13.424  0.2639 -0.0391 -0.0424
 6881W        W49897  33.508  18.358  28.374 -0.4782  0.0900 -0.0734
 6882W        W49898  18.672   6.085  19.068  0.1211 -0.0117  0.1352
 6883W        W49899  24.074  19.054  28.989 -0.0836 -0.0123  0.1021
 6884W        W49900  10.232  31.674   3.351 -0.1427  0.0242  0.2440
 6885W        W49901  16.535  30.958  19.013 -0.0648  0.0904  0.1415
 6886W        W49902   2.936  14.972  20.889 -0.0681 -0.0574  0.0797
 6887W        W49903  34.653  18.972  27.615 -0.0523  0.0042 -0.2523
 6888W        W49904  18.383   3.477  17.266  0.1953 -0.1248  0.0091
 6889W        W49905  27.781  13.368  16.638  0.0390  0.2944  0.2234
 6890W        W49906  28.125   4.040  16.751  0.3731 -0.1454 -0.0256
 6891W        W49907  16.179  27.065  24.207 -0.0818 -0.3371 -0.1192
 6892W        W49908  27.393  19.232   2.423 -0.3561  0.1453 -0.2385
 6893W        W49909  30.275  31.642  18.684 -0.0510  0.0430  0.0596
 6894W        W49910   6.165  25.673   6.487  0.0633  0.1142 -0.1676
 6895W        W49911  21.414  31.370   0.361  0.1329  0.3539  0.0024
 6896W        W49912  29.782  30.427  19.122 -0.0126  0.0659  0.6434
 6897W        W49913  15.055   9.256  24.371 -0.0779 -0.1169  0.0870
 6898W        W49914   3.210  31.778  18.175  0.0971 -0.2190 -0.2515
 6899W        W49915   0.096  26.329  18.023  0.0351 -0.2190 -0.2621
 6900W        W49916  29.966  27.618  17.329  0.2026 -0.1583 -0.0612
 6901W        W49917  25.212  25.537  18.543  0.2671  0.0945 -0.0507
 6902W        W49918  31.321   8.963  15.649 -0.1953  0.0503  0.0918
 6903W        W49919  26.960  23.169   1.677  0.0819 -0.0628 -0.0147
 6904W        W49920  16.314  18.189  14.962  0.0817  0.0987 -0.3232
 6905W        W49921  24.851   6.734   7.302 -0.1914 -0.0429  0.1538
 6906W        W49922  21.080   8.133  24.007  0.1234 -0.3442 -0.1986
 6907W        W49923   4.158  27.883  28.994 -0.1978 -0.0892  0.3350
 6908W        W49924  22.797  18.644  15.912 -0.1152 -0.1829 -0.2774
 6909W        W49925  19.165  11.699  13.494  0.1939  0.1405  0.0092
 6910W        W49926  25.549  16.232  16.894  0.2012 -0.1415 -0.5585
 6911W        W49927  18.358  27.197  19.584  0.0453 -0.2383 -0.2113
 6912W        W49928  27.165  27.086  25.081 -0.1851 -0.2208 -0.1330
 6913W        W49929  17.443   0.291   0.276 -0.0263 -0.3349 -0.1140
 6914W        W49930  19.853   6.705  14.537 -0.0716  0.1457  0.1592
 6915W        W49931  27.443  22.732  25.615 -0.1787 -0.0149  0.0418
 6916W        W49932  25.518  21.157  18.659 -0.0860 -0.1701 -0.2103
 6917W        W49933  26.362  16.018  23.264  0.2034  0.0418  0.0163
 6918W        W49934  11.480  12.089  16.478  0.0775 -0.1775  0.2398
 6919W        W49935  18.616  14.404  15.280  0.0255  0.1606 -0.1683
 6920W        W49936  10.100   2.045  20.749  0.0215 -0.1634 -0.0914
 6921W        W49937  31.826  31.454   1.312 -0.0697 -0.3022 -0.0379
 6922W        W49938  26.490  25.709  15.323  0.0039  0.1897  0.2355
 6923W        W49939  26.487  23.317  19.851  0.0231 -0.3182  0.0553
 6924W        W49940  31.706  28.524  26.626  0.1256 -0.1003 -0.1060
 6925W        W49941  24.468  12.615  27.878  0.0688 -0.0425  0.2073
 6926W        W49942  13.426  23.959  18.275  0.2411  0.5064  0.0482
 6927W        W49943  10.670  30.726   3.549 -0.1402  0.0865 -0.1251
 6928W        W49944  24.253   7.064  24.773  0.0245 -0.0933 -0.1098
 6929W        W49945  27.836  23.440  18.127  0.0322  0.0313 -0.0585
 6930W        W49946  29.214  25.706   1.296  0.2310  0.0554 -0.1403
 6931W        W49947  13.880   2.710  23.547  0.2344  0.0702  0.2921
 6932W        W49948  29.716  24.440  18.172 -0.0033 -0.0532 -0.2011
 6933W        W49949   0.687  18.707  15.204 -0.4946  0.2931 -0.2080
 6934W        W49950  18.818  16.403  17.055 -0.2832  0.1959 -0.2447
 6935W        W49951  19.719  19.642  24.582  0.0390 -0.0521  0.0580
 6936W        W49952  27.343  22.739  24.800  0.3430  0.1090 -0.0175
 6937W        W49953  21.958  13.983  13.858 -0.2346  0.0506 -0.1895
 6938W        W49954  25.129   0.162  17.582  0.0994 -0.1276  0.1763
 6939W        W49955  32.185  18.944  18.938  0.1305 -0.2619  0.1507
 6940W        W49956   6.405  13.920  13.461  0.3697  0.2421  0.0109
 6941W        W49957  27.728  18.963  27.957  0.3530  0.2962  0.0110
 6942W        W49958  25.915  26.586  18.985  0.1762 -0.3071 -0.1280
 6943W        W49959   3.157  12.553   6.090 -0.0561  0.3941 -0.1482
 6944W        W49960  31.325   0.952  25.122  0.0752 -0.0719 -0.1735
 6945W        W49961  14.405  22.894  16.505  0.1950 -0.0326  0.0827
 6946W        W49962  32.401  25.989  14.359 -0.1351  0.0572 -0.0740
 6947W        W49963   5.657   9.000  20.058  0.5248 -0.1085 -0.1874
 6948W        W49964  34.342  17.600  23.692  0.2336 -0.0635  0.0775
 6949W        W49965  11.800   2.074  22.121 -0.0415  0.1405 -0.0466
 6950W        W49966  27.518  32.947  16.422 -0.0565 -0.0078 -0.0470
 6951W        W49967  14.314  19.546  14.760 -0.2462 -0.3930 -0.2948
 6952W        W49968  19.059  17.662  13.858 -0.2832 -0.2343  0.2197
 6953W        W49969  19.650  22.281  14.244 -0.0730 -0.0887 -0.0501
 6954W        W49970  27.006  28.595  22.467 -0.3978  0.1567 -0.0206
 6955W        W49971  20.483  20.071  15.494  0.2722 -0.0553 -0.1807
 6956W        W49972   0.128  27.796  27.427 -0.1625 -0.1271 -0.1457
 6957W        W49973  20.300   0.868  15.627  0.0274 -0.0832 -0.0413
 6958W        W49974  34.653  25.343  24.497  0.0343 -0.0569  0.0081
 6959W        W49975  33.382  30.514   2.803 -0.3144  0.2821  0.1467
 6960W        W49976  28.125  26.486  21.143  0.0191 -0.2205 -0.1987
 6961W        W49977  19.556  33.125  17.432  0.2958  0.1104  0.1661
 6962W        W49978  27.275  17.787  24.300  0.0185  0.1943  0.5558
 6963W        W49979  32.270  31.571  23.741 -0.4349  0.0783 -0.0168
 6964W        W49980  28.348  26.540  15.497  0.0071 -0.0344 -0.0673
 6965W        W49981  15.614  20.936  14.499  0.0816 -0.3179 -0.1258
 6966W        W49982  28.172  25.387  24.500 -0.1406 -0.0663  0.0061
 6967W        W49983  22.748  24.026  14.329 -0.3183  0.0827 -0.2000
 6968W        W49984  31.006  20.939  24.347  0.1358 -0.1424 -0.0923
 6969W        W49985  14.563  30.870  18.130  0.1779 -0.0388  0.0403
 6970W        W49986  25.049  23.903  19.269 -0.4496 -0.0548  0.0300
 6971W        W49987  34.549   4.604  25.014 -0.0840  0.1132 -0.2486
 6972W        W49988  24.018  31.562  25.386 -0.0186  0.2854  0.1308
 6973W        W49989  27.692   9.941  19.689  0.1465  0.0498 -0.1345
 6974W        W49990  25.332  11.793  15.658  0.1774  0.0573 -0.2805
 6975W        W49991   9.446  24.159  13.642  0.1790 -0.0845  0.2718
 6976W        W49992   1.285  28.176   0.394 -0.3503  0.1070  0.2905
 6977W        W49993   0.778  24.246  17.375 -0.0309 -0.4422  0.3771
 6978W        W49994  14.427   5.958   3.205 -0.0985 -0.0082  0.1081
 6979W        W49995  19.839  19.645  23.702 -0.2661  0.0833  0.0671
 6980W        W49996  22.269  30.396  24.557  0.1311 -0.1191 -0.0083
 6981W        W49997  25.509  23.516  16.631  0.4715  0.0139  0.4587
 6982W        W49998   8.541   3.794  14.271 -0.2159 -0.2268  0.1848
 6983W        W49999  13.345   9.621  17.219 -0.0557  0.0375  0.0693
 6984W        W50000  15.323  12.802  12.866 -0.0071 -0.0161  0.1276
 6985W        W50001  15.193   2.053  25.264 -0.0542  0.0089 -0.1068
 6986W        W50002  26.787  12.236  22.060 -0.1252 -0.1862 -0.0301
 6987W        W50003  30.029  28.416  26.261  0.0603  0.0140  0.0338
 6988W        W50004   2.770  14.695  19.296 -0.0156 -0.0014 -0.1007
 6989W        W50005  34.509  16.674  26.579 -0.0745  0.0930 -0.5392
 6990W        W50006  31.423  18.217  21.582 -0.1434 -0.0025  0.1713
 6991W        W50007  20.354  14.630  23.109 -0.1747 -0.2717 -0.1613
 6992W        W50008  29.080  20.480  28.397  0.2210 -0.0209  0.2007
 6993W        W50009  12.160  14.681  16.180 -0.0692 -0.3803 -0.1647
 6994W        W50010  24.522  21.060  20.126 -0.1270 -0.3423  0.1741
 6995W        W50011   7.031  21.233  18.487 -0.0727  0.0962 -0.0507
 6996W        W50012   8.561  10.709  20.953 -0.0093  0.2121 -0.3483
 6997W        W50013  25.527  10.736  24.781  0.2552 -0.0842  0.1065
 6998W        W50014  17.947  20.758  21.246 -0.1480 -0.2549 -0.1797
 6999W        W50015  14.333  26.889  14.743 -0.0543 -0.1106 -0.0197
 7000W        W50016  18.827  22.100   0.106 -0.1937  0.0955  0.2875
 7001W        W50017  27.124  32.171  22.617 -0.1977 -0.0016 -0.0146
 7002W        W50018  24.079  10.271  21.265  0.2642 -0.0256 -0.0474
 7003W        W50019  26.096  18.564  25.196 -0.1963  0.0378  0.0002
 7004W        W50020  26.723  23.971  16.647  0.1931 -0.3437  0.3899
 7005W        W50021  23.421  30.163  16.083 -0.0029  0.0477  0.4452
 7006W        W50022   1.560  34.552  26.657 -0.0095  0.2455 -0.1093
 7007W        W50023  10.962  14.716  16.525  0.2824 -0.1537  0.0870
 7008W        W50024  21.395  21.892  25.278 -0.1334 -0.0032 -0.0634
 7009W        W50025  10.685  22.334  19.205  0.0893 -0.0504 -0.3023
 7010W        W50026  33.466  20.905  25.153  0.1021  0.2266  0.0162
 7011W        W50027  14.408  16.282  15.804 -0.0980  0.4621  0.0245
 7012W        W50028  19.266   6.251  23.160  0.1120  0.1872  0.1281
 7013W        W50029  29.290  18.140  26.688 -0.0873 -0.0518  0.0318
 7014W        W50030  28.813  21.170  28.254 -0.1330 -0.1364  0.0507
 7015W        W50031   2.149  22.109  27.950 -0.0397 -0.0463  0.0529
 7016W        W50032   8.440  32.563  14.433  0.0302  0.0086 -0.1217
 7017W        W50033  31.181  25.659  18.030 -0.0699  0.0439  0.1618
 7018W        W50034  26.673  11.379   4.470  0.1698 -0.0481  0.2243
 7019W        W50035  21.311  28.596  14.824  0.0707  0.1467 -0.2573
 7020W        W50036  26.726   9.352  29.277  0.2488 -0.2263 -0.0186
 7021W        W50037  11.062  33.285   3.537  0.1156  0.1412 -0.3247
 7022W        W50038  14.731   9.980  25.361  0.0655 -0.0464 -0.1220
 7023W        W50039  25.121  23.429  24.733  0.1430 -0.4571  0.0815
 7024W        W50040  14.469  21.496  12.857 -0.0812 -0.0675 -0.1891
 7025W        W50041  17.645   5.028   7.873 -0.1438  0.3106  0.0575
 7026W        W50042  17.775  25.660  23.898 -0.0328  0.1060  0.2730
 7027W        W50043  26.965   8.935   0.420  0.0059 -0.5039 -0.2982
 7028W        W50044  15.174  26.281  23.625  0.2960 -0.0498  0.0582
 7029W        W50045  11.179  28.951  15.693  0.0246  0.1657 -0.0816
 7030W        W50046  27.224  29.900  27.640 -0.1886 -0.1471 -0.1773
 7031W        W50047  13.120  16.336   3.924 -0.0912 -0.2028 -0.1292
 7032W        W50048  24.948  17.822  29.033  0.0021  0.1675 -0.3113
 7033W        W50049  20.766  20.354  24.012 -0.1962 -0.2722  0.0440
 7034W        W50050  17.765  15.257  11.580 -0.2381  0.0975  0.0112
 7035W        W50051  24.225  22.213  22.671  0.1291  0.3352 -0.0023
 7036W        W50052  29.392  32.158   5.075  0.1545 -0.2376  0.1614
 7037W        W50053  29.464  32.719  24.869  0.0698 -0.0178 -0.2391
 7038W        W50054   3.258  17.361  18.263  0.0760 -0.0348  0.0082
 7039W        W50055  34.015   0.445  20.098 -0.0540  0.0427  0.2239
 7040W        W50056  22.948  16.745   3.932  0.1627 -0.1685  0.3127
 7041W        W50057  13.379  16.850   8.346 -0.0042 -0.1638  0.1960
 7042W        W50058  30.692   9.595  23.215 -0.1119 -0.1744  0.1410
 7043W        W50059  31.743  16.488  24.443 -0.1851 -0.2166  0.0756
 7044W        W50060  23.950  15.014  14.770  0.1446 -0.0142  0.1387
 7045W        W50061  26.898  29.532  23.163  0.1047  0.0946  0.1355
 7046W        W50062  12.010   7.654  17.308 -0.2069  0.1869 -0.2359
 7047W        W50063  26.533  23.430  15.690 -0.0761 -0.1003  0.0542
 7048W        W50064  24.920  29.039   9.863  0.1388 -0.0274  0.2686
 7049W        W50065  10.259  18.769  18.807  0.0314 -0.0754 -0.0790
 7050W        W50066  31.242  21.902  28.719 -0.4420  0.0927 -0.0185
 7051W        W50067  20.176   7.354  28.315  0.1663 -0.1995 -0.0139
 7052W        W50068  23.439  23.604  24.247 -0.1659  0.1167 -0.0585
 7053W        W50069  31.926  28.241  17.866  0.1814 -0.3274  0.2290
 7054W        W50070  15.912   4.034   0.278  0.1356 -0.1289 -0.0786
 7055W        W50071  19.491  29.391  16.351  0.0137  0.1788  0.3282
 7056W        W50072  24.314  27.175  19.130  0.1621  0.0468 -0.0370
 7057W        W50073   5.748  25.158  23.924  0.2068 -0.0437 -0.1333
 7058W        W50074  13.872  24.374  16.927 -0.1779 -0.0888  0.1345
 7059W        W50075  26.840  16.166  14.368  0.3739  0.3253 -0.2962
 7060W        W50076  25.198   5.845  22.450  0.0604 -0.0631 -0.3814
 7061W        W50077  29.361   8.978  21.758  0.3353 -0.2654  0.1767
 7062W        W50078  32.910  28.981  15.254 -0.0976 -0.1354 -0.2770
 7063W        W50079  18.203  23.945  17.592 -0.0940 -0.3447  0.0835
 7064W        W50080  14.456  18.696  20.527 -0.1507  0.0455  0.1747
 7065W        W50081  19.771  28.189  19.300  0.0102 -0.1279 -0.1680
 7066W        W50082  23.913  30.876  21.357  0.0392 -0.0839 -0.2239
 7067W        W50083  27.243  27.282   0.230  0.1400 -0.3197  0.3202
 7068W        W50084  27.195  14.720  22.450  0.2100  0.0420 -0.0000
 7069W        W50085  20.803   7.774  22.759 -0.2174 -0.1902 -0.0580
 7070W        W50086  26.286   7.373  17.944 -0.0170  0.0204  0.1575
 7071W        W50087  28.845  10.521  16.518 -0.0257 -0.0038 -0.0712
 7072W        W50088  30.840  31.406  20.040 -0.0048  0.0494 -0.2570
 7073W        W50089  20.508  34.041  14.520  0.3190  0.1342  0.0545
 7074W        W50090  22.769  18.394  14.363  0.2743 -0.2706  0.0076
 7075W        W50091   0.761  16.658   4.851 -0.4176 -0.2969 -0.3529
 7076W        W50092  28.695  30.576  23.374 -0.2394  0.1762 -0.0913
 7077W        W50093  14.346  26.013  29.068 -0.1571  0.2311  0.0502
 7078W        W50094  15.490  28.886  21.151 -0.0742  0.0871  0.3342
 7079W        W50095  20.198   6.043   0.513 -0.0665 -0.0637  0.4053
 7080W        W50096  17.890  29.750  18.519 -0.2467 -0.1829 -0.2309
 7081W        W50097  22.828   0.010  22.481  0.0233 -0.0942 -0.3930
 7082W        W50098  18.341   2.683  20.931 -0.1185 -0.1361  0.0182
 7083W        W50099   9.289  26.831  20.051  0.2510  0.2558 -0.0078
 7084W        W50100  14.106  22.835  20.536  0.1747  0.1156  0.2779
 7085W        W50101  32.205  19.105  28.754 -0.0787 -0.0209  0.0039
 7086W        W50102  26.061  22.765  16.346 -0.0563  0.0045 -0.2275
 7087W        W50103  27.406  19.339  25.547 -0.1679 -0.0524 -0.0893
 7088W        W50104  27.196   0.599  17.873  0.1055 -0.3626  0.1958
 7089W        W50105  17.839  19.136  13.881 -0.3062 -0.2663  0.0836
 7090W        W50106  20.576  20.893  21.086 -0.1518 -0.0704  0.1444
 7091W        W50107  21.867  33.790  22.237 -0.3849  0.0614 -0.1900
 7092W        W50108  20.783  16.670  11.892 -0.0488 -0.2400 -0.1579
 7093W        W50109  24.629   9.680  24.645 -0.1008  0.1443 -0.2694
 7094W        W50110  28.209  22.571  16.403  0.0978 -0.2891 -0.0326
 7095W        W50111   5.932  20.360  18.027  0.2413  0.0424  0.0285
 7096W        W50112  21.206  12.324  13.468  0.2779 -0.1342  0.0206
 7097W        W50113  30.661  33.239  27.327  0.0898  0.2853 -0.0999
 7098W        W50114  21.998  33.962  15.753  0.0344 -0.3045 -0.0018
 7099W        W50115  33.720  32.196  26.600 -0.2781  0.0408 -0.0536
 7100W        W50116   3.212  23.352  14.852 -0.2627 -0.0404 -0.0075
 7101W        W50117  23.346  32.136  24.205 -0.1692 -0.0844  0.0143
 7102W        W50118  16.998   3.533  22.057 -0.3121 -0.0386  0.3245
 7103W        W50119  19.400   0.519  23.623 -0.0970  0.0300 -0.1404
 7104W        W50120  28.952  25.613  15.109  0.0616 -0.0660 -0.0918
 7105W        W50121  13.230   0.122  24.651 -0.2104  0.1154 -0.0526
 7106W        W50122  12.669   3.002  20.773 -0.1536  0.2143 -0.1125
 7107W        W50123  21.929  19.898  21.358 -0.2853  0.0893 -0.0139
 7108W        W50124  13.216  15.380  15.931 -0.2524  0.0550 -0.2400
 7109W        W50125   8.772  22.004   1.674  0.0780  0.2208 -0.0151
 7110W        W50126  17.984  27.318  20.740 -0.1242 -0.0949 -0.0689
 7111W        W50127  26.990  11.096  18.276  0.0068 -0.0651 -0.2773
 7112W        W50128  21.509  15.527  23.173  0.1975 -0.2008 -0.2035
 7113W        W50129  34.560   1.123  20.854 -0.2832  0.3113  0.0640
 7114W        W50130   1.658   5.216  20.510 -0.0947  0.2167  0.3185
 7115W        W50131  28.991  13.701  26.313 -0.1441  0.0877  0.0528
 7116W        W50132  20.182   4.294  27.179  0.1884 -0.2590 -0.1832
 7117W        W50133   4.497  20.294  15.501  0.0708  0.1012  0.0663
 7118W        W50134  18.212  24.821  25.510 -0.1399 -0.1477 -0.2303
 7119W        W50135  20.729  26.016  15.592  0.1135 -0.1714 -0.3185
 7120W        W50136  30.873  27.178  22.703 -0.1121 -0.2203  0.2474
 7121W        W50137   2.707  26.447  24.004  0.1070 -0.1582  0.1854
 7122W        W50138   9.324  30.357  16.613  0.1060 -0.0593 -0.1106
 7123W        W50139  32.606  30.861  27.164  0.0361  0.0856  0.0954
 7124W        W50140   7.397  31.803   5.705 -0.0027 -0.2598 -0.0630
 7125W        W50141  34.567  18.475  24.676  0.2316 -0.3303 -0.0703
 7126W        W50142  20.556  23.697  16.433 -0.0691 -0.0704 -0.0411
 7127W        W50143   0.644  17.102  19.720  0.1990  0.0134  0.2820
 7128W        W50144  20.038  21.320  21.643  0.0816  0.3686 -0.0924
 7129W        W50145  29.038   9.923  27.299  0.0409 -0.1666  0.0748
 7130W        W50146  28.495  20.711  23.838 -0.0535 -0.2147  0.0813
 7131W        W50147  18.722  20.967   1.831 -0.1175 -0.0227 -0.0198
 7132W        W50148   6.721  23.552   0.001  0.0291 -0.2359 -0.3900
 7133W        W50149  29.176  21.107  17.986 -0.1841  0.3745 -0.1125
 7134W        W50150  31.741  31.036  19.602  0.3103 -0.1204 -0.0457
 7135W        W50151  32.931  28.842  22.632  0.0621 -0.1093  0.3262
 7136W        W50152  19.623  23.781  19.934 -0.1969 -0.0727  0.0295
 7137W        W50153  33.477  17.846  24.161 -0.0446  0.2151  0.3178
 7138W        W50154  25.511  11.842  22.433  0.0396 -0.1447 -0.2566
 7139W        W50155   2.092  10.805  21.594  0.0749 -0.2086 -0.2174
 7140W        W50156  32.071  13.131  20.751 -0.0254 -0.2687 -0.1533
 7141W        W50157  10.205   3.597  22.699  0.0697 -0.2502  0.2099
 7142W        W50158  19.427  31.035  21.350  0.1210  0.0495  0.0872
 7143W        W50159  20.367  20.511  15.734  0.1035 -0.3584 -0.2880
 7144W        W50160  27.425  33.663   4.409  0.2506 -0.3209  0.5215
 7145W        W50161  12.068  11.765  17.100 -0.0324 -0.0111 -0.3475
 7146W        W50162  15.264   4.485  23.066  0.0610  0.0306  0.0580
 7147W        W50163  23.477  30.087  15.582  0.4256  0.1251 -0.0446
 7148W        W50164  20.085   0.330  25.400  0.0431  0.1908 -0.0798
 7149W        W50165  18.470   9.761  17.580  0.0059 -0.1810 -0.0052
 7150W        W50166  22.092  21.728  17.030  0.0276 -0.1245 -0.1596
 7151W        W50167  26.894  25.682  17.497 -0.1791 -0.1173  0.1312
 7152W        W50168   2.634  30.234  27.806 -0.0727  0.1639 -0.0145
 7153W        W50169   3.327  28.450  21.002  0.1136  0.3722  0.0197
 7154W        W50170  25.500  25.657  16.865  0.0557 -0.0923  0.0272
 7155W        W50171  12.000   7.272  13.562  0.0604 -0.2022  0.1095
 7156W        W50172  25.771  22.677   4.717 -0.1001 -0.4118 -0.0681
 7157W        W50173  24.140  28.832  19.702 -0.2159 -0.1903 -0.2241
 7158W        W50174  20.738   2.190  15.837 -0.0995 -0.0624  0.0795
 7159W        W50175  28.303  25.187  25.305  0.0202  0.1712 -0.1184
 7160W        W50176  13.316  26.255  19.096 -0.5797 -0.0576  0.3017
 7161W        W50177  27.113  23.052  16.207  0.2733 -0.0120  0.0814
 7162W        W50178  29.233  32.762   1.761  0.2594 -0.2984 -0.2350
 7163W        W50179   5.139  31.644  23.032  0.2591 -0.2050 -0.0308
 7164W        W50180  30.545  26.529  18.567 -0.4264  0.1159 -0.0224
 7165W        W50181  11.978   5.248  19.550 -0.1572  0.0214 -0.0007
 7166W        W50182  13.580  10.328  21.969  0.2598  0.0544 -0.2616
 7167W        W50183   6.811   9.102  17.055 -0.1179 -0.0116 -0.1100
 7168W        W50184  29.559  15.092  27.572 -0.0962 -0.4025  0.0894
 7169W        W50185   4.853  20.024  24.112 -0.0474  0.2979 -0.1838
 7170W        W50186  14.531  21.335  14.511 -0.0847  0.2361  0.1942
 7171W        W50187  30.269  25.713  26.523 -0.1001 -0.0591  0.1236
 7172W        W50188  30.791  33.165  22.571  0.2298 -0.3620  0.1525
 7173W        W50189  14.764   1.331  20.022 -0.1201 -0.2008 -0.0053
 7174W        W50190  15.423  13.301  12.732 -0.0054 -0.0529 -0.3235
 7175W        W50191  24.119  33.185  15.398  0.0557 -0.0990  0.2199
 7176W        W50192  22.553  20.317  16.577  0.0530  0.0160  0.3285
 7177W        W50193  15.660   7.396  25.220  0.2351  0.1286 -0.0142
 7178W        W50194   7.778  14.803  16.141  0.2839 -0.0240  0.0557
 7179W        W50195  21.316  27.692  23.712  0.2070 -0.0480 -0.0064
 7180W        W50196  20.445  20.072  25.118 -0.1400 -0.1838  0.1920
 7181W        W50197   2.189  12.485  23.375  0.1337  0.2799  0.1967
 7182W        W50198   9.584  14.912  13.999 -0.1651  0.1043 -0.1511
 7183W        W50199  26.874  23.960   2.847 -0.0855  0.1398 -0.1554
 7184W        W50200  20.878  19.829  24.991  0.3544  0.1057  0.0898
 7185W        W50201   5.492  15.152  22.175  0.3938 -0.1030 -0.0989
 7186W        W50202  11.893   3.508  21.182 -0.0005  0.0365  0.1741
 7187W        W50203  16.055   7.610   4.186  0.2086  0.2106  0.0315
 7188W        W50204  30.679  14.107  23.281  0.4943  0.4863  0.0099
 7189W        W50205  18.219  24.705  17.865  0.1628 -0.1722  0.0471
 7190W        W50206  26.198  31.472  19.498 -0.0314  0.0590 -0.2591
 7191W        W50207  22.494   7.678   4.039  0.0209  0.1233 -0.1758
 7192W        W50208   4.902   1.574  20.709 -0.0397 -0.2154 -0.1799
 7193W        W50209  25.085  12.293   4.004  0.1905 -0.1454  0.1897
 7194W        W50210   1.462  30.924   0.923  0.0979 -0.0127  0.1040
 7195W        W50211  19.020  31.724  25.870  0.2875 -0.1355  0.1272
 7196W        W50212   6.665   5.009  17.065  0.0720 -0.3009  0.1493
 7197W        W50213  19.341  31.690  23.614  0.2898  0.0761  0.0187
 7198W        W50214  24.190  18.006   2.361  0.0589 -0.0519 -0.1806
 7199W        W50215  29.384  23.469  22.478  0.0950 -0.0112 -0.1362
 7200W        W50216  21.051  17.765  15.190 -0.0564 -0.0675  0.1413
 7201W        W50217  23.737  19.222   5.072  0.2141  0.2801  0.1515
 7202W        W50218  34.676  16.470  17.154 -0.1692  0.0895  0.2083
 7203W        W50219  23.321  25.428  25.892  0.0098 -0.1943 -0.0679
 7204W        W50220  28.466  13.737  21.781  0.0893 -0.1284 -0.0458
 7205W        W50221  29.309  18.158   5.638 -0.0403  0.1085  0.0339
 7206W        W50222  18.458  22.977   1.368 -0.0955  0.1178 -0.0171
 7207W        W50223  16.165  16.253  22.321 -0.0117  0.0667  0.1218
 7208W        W50224   0.513  21.379   5.445  0.1305  0.2484  0.0214
 7209W        W50225  23.885  12.348   4.420 -0.1432  0.2441 -0.2304
 7210W        W50226  13.429  12.809   1.477  0.0708 -0.0397  0.0699
 7211W        W50227  34.661  19.377  21.381 -0.0654  0.0120 -0.2785
 7212W        W50228   0.456   3.908  25.366 -0.4530 -0.0772 -0.2181
 7213W        W50229  26.714  14.889  14.370 -0.2146  0.2982 -0.3168
 7214W        W50230  33.210  26.993  21.271 -0.1348 -0.2349 -0.1886
 7215W        W50231  17.525  32.674  27.825  0.0561  0.1258 -0.0630
 7216W        W50232  24.134   6.759  17.348  0.1833 -0.1634 -0.1028
 7217W        W50233  12.811  24.939  18.029  0.2126  0.0426  0.1201
 7218W        W50234  13.085  10.391  20.760  0.0180 -0.0381  0.2373
 7219W        W50235  21.734  17.545  27.372  0.2547  0.0807  0.2134
 7220W        W50236  22.247   5.474  19.528 -0.0223  0.0650 -0.4146
 7221W        W50237   1.193  25.332  22.280 -0.1215 -0.0380 -0.2399
 7222W        W50238  26.065  25.077  15.776  0.1161 -0.1172 -0.1108
 7223W        W50239  24.511   9.936  16.569  0.0730 -0.1408 -0.1753
 7224W        W50240  34.009  20.360  22.301  0.1722 -0.1036 -0.1620
 7225W        W50241  24.158  17.316  20.538  0.2941 -0.1066 -0.1381
 7226W        W50242  28.676   5.835  16.541 -0.0310  0.1248  0.0052
 7227W        W50243  23.393  29.646  16.663  0.1025 -0.0150 -0.0091
 7228W        W50244   1.175   7.537  19.347  0.1186 -0.1170  0.0664
 7229W        W50245  28.971  24.506   1.423  0.0660  0.0811  0.1823
 7230W        W50246  11.039  25.162  22.938  0.2280  0.1551  0.0328
 7231W        W50247  23.209  12.976  20.610 -0.2578  0.0408 -0.2103
 7232W        W50248  20.457  20.532  20.765 -0.1598  0.0584 -0.2071
 7233W        W50249  21.128  26.353  17.362 -0.3180 -0.1743 -0.0845
 7234W        W50250   9.571  29.889  19.532  0.2234  0.2548 -0.3322
 7235W        W50251  21.092  21.156  25.780 -0.0688  0.0320 -0.1438
 7236W        W50252  29.037  23.533  17.476  0.1522  0.1959  0.2343
 7237W        W50253  14.995  22.938  23.555 -0.0635 -0.0102 -0.4254
 7238W        W50254  23.270  16.361  16.526 -0.0630  0.0896 -0.0722
 7239W        W50255  23.161  28.294  24.706 -0.2779 -0.1795  0.1136
 7240W        W50256  16.751   7.702  27.555 -0.2310  0.3639  0.1284
 7241W        W50257  25.994   3.823   7.589 -0.0403  0.1688 -0.1131
 7242W        W50258  31.242   7.968  28.386  0.0622  0.0514 -0.0410
 7243W        W50259  32.022  25.131   0.624 -0.1110  0.2914 -0.0130
 7244W        W50260  22.583  34.075  18.759 -0.1858  0.1549 -0.4121
 7245W        W50261  24.723  30.239   7.383  0.0709 -0.0514 -0.1141
 7246W        W50262  19.578   3.067  27.589 -0.0375  0.1514 -0.1248
 7247W        W50263  30.463  26.620  16.597 -0.1345 -0.0185  0.0260
 7248W        W50264  25.123  13.150  14.591  0.2147 -0.0459  0.1668
 7249W        W50265  22.659   5.232   4.808 -0.0484 -0.1705  0.4680
 7250W        W50266  29.892   2.792  14.905 -0.1338  0.3779  0.2052
 7251W        W50267  31.728  32.948  16.249  0.0992 -0.1627 -0.0134
 7252W        W50268  19.998  11.253  17.115  0.4004  0.3382  0.0437
 7253W        W50269  27.912  19.305  23.802 -0.0096  0.0536  0.1381
 7254W        W50270  25.080  16.235  16.627 -0.1459 -0.2005 -0.2082
 7255W        W50271  20.309  23.563  22.196 -0.0237  0.4569 -0.1053
 7256W        W50272  12.746  27.994  10.130 -0.0464  0.0168  0.4421
 7257W        W50273  29.513  28.473  24.188  0.2886  0.1977  0.0518
 7258W        W50274  22.747  23.366  15.811 -0.2902  0.0590  0.1028
 7259W        W50275  23.588  24.211  29.164 -0.3504 -0.0172 -0.4934
 7260W        W50276  25.429   2.379  16.700  0.0805 -0.0628  0.1246
 7261W        W50277  18.533  19.763  27.839  0.2764  0.2382 -0.0324
 7262W        W50278  32.075  31.427  21.833  0.2429  0.2334 -0.0065
 7263W        W50279  27.471  18.628  16.177  0.2144  0.0520 -0.0051
 7264W        W50280  26.372  31.464  18.998  0.2241 -0.0182  0.0286
 7265W        W50281  21.287  21.150   6.363  0.0059 -0.2813  0.3109
 7266W        W50282  33.757   2.588  28.881  0.0030 -0.2800  0.1464
 7267W        W50283  28.338  21.755   1.841  0.1030 -0.3246 -0.0114
 7268W        W50284  21.173  20.409  16.810  0.1068 -0.1551 -0.4410
 7269W        W50285  25.224  30.047  16.485  0.0315  0.0941 -0.1212
 7270W        W50286  18.340  23.899  14.777  0.1788  0.1069 -0.0489
 7271W        W50287  28.017  24.848  23.707 -0.0121  0.1334 -0.0921
 7272W        W50288  22.685  27.244  14.624  0.3144  0.2822  0.0298
 7273W        W50289  31.889  29.456  25.039  0.0485  0.3229  0.4321
 7274W        W50290  19.786  11.654   0.041 -0.3130  0.0173 -0.0936
 7275W        W50291  14.223  24.113  21.761 -0.1418  0.0123  0.1390
 7276W        W50292  15.975  33.898  22.110  0.1540  0.1853  0.1629
 7277W        W50293  24.910  29.826  21.599  0.1198  0.3918 -0.0274
 7278W        W50294  22.644  14.912  22.525  0.1802  0.0391 -0.2318
 7279W        W50295  31.978  25.110  15.167 -0.1312 -0.0039 -0.0639
 7280W        W50296  16.185  24.448   2.776  0.3534 -0.0256 -0.0490
 7281W        W50297  32.624  23.120   2.160  0.0486 -0.2469  0.2492
 7282W        W50298  17.727   1.473  20.459 -0.2997  0.0405  0.2363
 7283W        W50299  30.498  17.436  19.158 -0.1095 -0.0409 -0.0709
 7284W        W50300  19.260  27.015  22.346  0.1769 -0.1113  0.3614
 7285W        W50301  29.497  15.446  14.068  0.0061  0.1214  0.0949
 7286W        W50302   0.875  26.435  16.682 -0.1459  0.2748  0.0782
 7287W        W50303   7.039   7.127  20.366  0.0863 -0.0147 -0.0111
 7288W        W50304  25.707  24.293  15.773  0.0303  0.2851  0.0479
 7289W        W50305   4.338  17.782  20.373 -0.1608 -0.2671 -0.0420
 7290W        W50306  13.016  21.918  17.987 -0.3054  0.1326  0.1068
 7291W        W50307  26.345  33.070  27.113  0.1458  0.0077 -0.2059
 7292W        W50308  34.097  26.483   0.607  0.3176  0.1854  0.1924
 7293W        W50309  19.253   8.839  14.158  0.2359 -0.0257 -0.2451
 7294W        W50310  27.226  27.539  28.191  0.1612  0.0135 -0.0095
 7295W        W50311  23.983  33.708   5.468 -0.0059  0.0863 -0.1191
 7296W        W50312  12.386  24.678  17.121  0.0446  0.1608  0.1069
 7297W        W50313  24.009  25.143  24.554  0.2108  0.0719 -0.0619
 7298W        W50314  29.699  34.011  19.310  0.1205  0.0451  0.0682
 7299W        W50315  13.619   6.288   2.951 -0.1877 -0.0291  0.1277
 7300W        W50316  26.536  17.245  18.479  0.1621  0.0597 -0.1845
 7301W        W50317  23.491   5.039  17.774 -0.0856 -0.2324 -0.1509
 7302W        W50318   1.092  19.088  19.638  0.3083  0.4367 -0.1491
 7303W        W50319  23.234  19.562  14.493 -0.1407  0.0605  0.3542
 7304W        W50320  29.627   5.676  26.365  0.0401  0.5409  0.1430
 7305W        W50321  24.695   9.003  16.657  0.3039  0.2195 -0.2172
 7306W        W50322  21.264  27.897  19.949 -0.0519 -0.0288 -0.0179
 7307W        W50323  24.286   6.566  18.222 -0.0441  0.2067 -0.1827
 7308W        W50324   1.765  19.765  23.031 -0.1875 -0.2866 -0.2213
 7309W        W50325   2.757  16.891  17.262  0.1159 -0.0749  0.2289
 7310W        W50326  15.985   9.735  15.314 -0.1312  0.0481  0.0638
 7311W        W50327  21.414  28.013  21.169 -0.1672  0.0864 -0.0842
 7312W        W50328  32.332  11.449   3.768 -0.1391  0.1299  0.2905
 7313W        W50329  31.133   3.811   6.042  0.3325 -0.0825 -0.1666
 7314W        W50330  22.072  30.141  21.639 -0.0208  0.3300 -0.1534
 7315W        W50331  25.256  15.401  20.365 -0.0503 -0.0092 -0.1165
 7316W        W50332  26.142  19.906  18.633 -0.1259  0.2406  0.2906
 7317W        W50333  16.280   9.004  21.248 -0.1467 -0.4671 -0.2464
 7318W        W50334  14.290  33.715  25.273  0.2523 -0.0553 -0.2270
 7319W        W50335   1.398   2.893   9.925 -0.3175 -0.2381 -0.1449
 7320W        W50336  22.961  18.550   0.011 -0.0469 -0.1807  0.0136
 7321W        W50337  28.968  21.835  24.591  0.0542  0.1646 -0.2197
 7322W        W50338  11.395  19.895  14.871 -0.1766 -0.0695  0.0316
 7323W        W50339  25.555  13.769  18.618 -0.0469 -0.1579 -0.1655
 7324W        W50340  19.056  28.194  22.837 -0.0370 -0.1449 -0.1901
 7325W        W50341  21.832  20.249  18.302  0.1604  0.0111  0.3006
 7326W        W50342  22.479   4.887  27.685  0.0305 -0.1446  0.1759
 7327W        W50343  28.837  18.509  23.074  0.1737 -0.0730  0.2465
 7328W        W50344  11.583  27.984  16.897 -0.2038 -0.1851  0.0683
 7329W        W50345  21.010   1.128  17.542  0.0071 -0.4695  0.1342
 7330W        W50346  28.018  25.325  28.414  0.2292 -0.2293 -0.0753
 7331W        W50347  32.493  30.481  26.538  0.1837 -0.1100  0.1156
 7332W        W50348  18.256  24.418  20.361 -0.0848  0.0305 -0.1426
 7333W        W50349   7.502  16.983  16.723 -0.0371 -0.1278  0.1602
 7334W        W50350  10.338  24.499  27.368  0.1353  0.0426 -0.2797
 7335W        W50351   3.545  28.326  25.626 -0.2018  0.1652 -0.1612
 7336W        W50352   2.601   1.582  19.048  0.2329  0.0442 -0.1237
 7337W        W50353  31.454  32.289  23.861 -0.0760  0.0595  0.1388
 7338W        W50354  21.967   9.879  17.649  0.1267  0.1995 -0.0400
 7339W        W50355  12.183  26.954  13.599 -0.1479 -0.0156 -0.0116
 7340W        W50356   8.625   1.623  15.353 -0.1487  0.2272  0.1257
 7341W        W50357   5.091   7.337  16.638 -0.0495  0.0032 -0.1325
 7342W        W50358  28.241  30.056  19.166 -0.2216  0.2859 -0.1743
 7343W        W50359  28.597  26.131   0.707 -0.3199 -0.1078 -0.1561
 7344W        W50360  10.981   8.071  26.049  0.1053 -0.0439  0.2924
 7345W        W50361  22.226  18.666  19.337  0.1801  0.0083  0.4408
 7346W        W50362  18.749  23.756   4.098  0.0087 -0.0616  0.0196
 7347W        W50363  22.155  25.175  19.706 -0.0836  0.0834 -0.0290
 7348W        W50364  20.270  24.909  13.976  0.2341  0.2212  0.1972
 7349W        W50365  27.053  26.879  18.290  0.0180  0.0093  0.3313
 7350W        W50366   0.384  28.730  27.462  0.0167  0.0264 -0.0352
 7351W        W50367   4.949   8.744   3.274 -0.1721 -0.0007 -0.0682
 7352W        W50368  29.382  27.273  22.977 -0.0624 -0.1453 -0.0336
 7353W        W50369  22.894   6.320  18.846  0.1206  0.2785  0.3065
 7354W        W50370  25.654  15.863  17.930 -0.0507 -0.0372  0.0953
 7355W        W50371  14.346  32.439  26.804  0.2281  0.0951  0.2318
 7356W        W50372  30.530   4.650  22.879 -0.2409 -0.1667  0.2406
 7357W        W50373  12.864  30.409   8.747 -0.3105 -0.1968 -0.1462
 7358W        W50374   7.613   1.359   7.966  0.1712  0.1209 -0.3237
 7359W        W50375   5.960   7.472   2.720 -0.1324 -0.1196  0.0239
 7360W        W50376  26.350  17.416  15.946 -0.1599  0.0543  0.0003
 7361W        W50377  25.356  27.471   6.735  0.3816  0.0061 -0.1354
 7362W        W50378  22.837  16.816  19.247 -0.2004 -0.1340 -0.0722
 7363W        W50379  10.676  31.414   0.975 -0.0357  0.2029  0.0729
 7364W        W50380  18.912   6.653  18.340  0.0205 -0.2428 -0.0029
 7365W        W50381  26.019  21.025  22.237  0.3377 -0.2003  0.0479
 7366W        W50382  21.586  25.452  18.913  0.2947 -0.1053  0.0943
 7367W        W50383   1.504  32.905  23.746  0.2566 -0.1029 -0.1073
 7368W        W50384  20.898  25.503   1.150  0.0149 -0.0522 -0.1989
 7369W        W50385  25.876  28.739  21.839  0.0741 -0.2309  0.1723
 7370W        W50386   8.361  30.191  20.097  0.1639  0.2023 -0.1598
 7371W        W50387  15.620   1.652  21.430  0.0965 -0.1293  0.2073
 7372W        W50388   7.777  18.241  12.520  0.1396 -0.0640  0.1252
 7373W        W50389  11.925  14.313  16.910 -0.0501 -0.2116  0.0166
 7374W        W50390  23.385  31.620  18.047  0.0969 -0.1844 -0.1199
 7375W        W50391  23.204   4.488  24.092 -0.1630 -0.1182  0.1260
 7376W        W50392  23.856  23.330  20.504  0.0451  0.0213 -0.0228
 7377W        W50393  28.012  12.063  17.969 -0.0417 -0.0887 -0.0651
 7378W        W50394  31.762  20.778  26.750 -0.0576 -0.1670  0.5318
 7379W        W50395  26.750   4.169  23.031  0.2215 -0.0277  0.0802
 7380W        W50396  23.105  28.488   4.571  0.1298  0.2547 -0.1243
 7381W        W50397  27.136  20.471  26.508 -0.2737  0.1002  0.0921
 7382W        W50398  18.231   8.703  18.119  0.0806 -0.0199  0.1242
 7383W        W50399  30.311  16.455  19.953  0.2250  0.2403  0.2552
 7384W        W50400  27.383  25.456   8.039 -0.3834 -0.0787  0.3519
 7385W        W50401  12.523   6.668  14.376  0.2182  0.1448 -0.1502
 7386W        W50402   9.427  18.642  17.778  0.0467 -0.1583  0.0038
 7387W        W50403   7.959  20.245  18.169  0.0061 -0.0802 -0.0268
 7388W        W50404  34.775  34.500  27.177 -0.1334  0.0439  0.0201
 7389W        W50405  11.927  30.728  20.995 -0.0327  0.0510 -0.1225
 7390W        W50406  20.161  10.623  23.760  0.2404  0.1225  0.2615
 7391W        W50407  25.103  24.413  24.108  0.2333 -0.1674 -0.1737
 7392W        W50408  31.859   0.089  21.510  0.0702 -0.0446 -0.2042
 7393W        W50409   0.471  15.247  29.058  0.0297 -0.0308  0.0661
 7394W        W50410  28.821   9.144  18.288  0.0085  0.0723 -0.0803
 7395W        W50411  24.937   4.676  18.388 -0.2937 -0.0700 -0.0661
 7396W        W50412  18.139  15.061  15.074  0.0988  0.0567 -0.3190
 7397W        W50413  18.997   5.796  18.506  0.0702  0.0101  0.0690
 7398W        W50414  25.141  12.435  18.774  0.0424 -0.2199 -0.2713
 7399W        W50415  24.257  14.800  13.135  0.4425 -0.2075  0.0315
 7400W        W50416  16.002   0.625  21.968 -0.1632 -0.1400 -0.1013
 7401W        W50417  23.348   7.646  21.029  0.2494 -0.0888 -0.3743
 7402W        W50418  22.510  22.243  22.683  0.0408 -0.2558  0.2340
 7403W        W50419   1.792  32.087  24.425 -0.2636  0.3131 -0.0068
 7404W        W50420   1.790  31.949  21.831 -0.1552  0.1686 -0.2441
 7405W        W50421  27.049  17.925  24.794  0.1263 -0.2137 -0.0693
 7406W        W50422  13.354  28.557   7.139 -0.1949 -0.4327 -0.1004
 7407W        W50423  24.691  23.043  25.607 -0.0301 -0.0622  0.1916
 7408W        W50424  20.588  20.194  23.572 -0.4366  0.1680 -0.1929
 7409W        W50425  17.252  22.232  12.648 -0.0732  0.0321 -0.3585
 7410W        W50426  28.855  16.839  18.257 -0.1567 -0.0336  0.0726
 7411W        W50427  10.020   2.387  21.565  0.0705  0.0644  0.1556
 7412W        W50428   2.107  10.142   4.061 -0.2066  0.1656  0.3149
 7413W        W50429  31.272  20.357   5.466 -0.0257  0.0110  0.0996
 7414W        W50430  20.486  27.976   3.581 -0.0630  0.3831 -0.1652
 7415W        W50431  25.495  27.342   9.469  0.2183 -0.1037  0.0332
 7416W        W50432  17.793  33.458  19.929  0.0594  0.2379  0.1203
 7417W        W50433  14.408  24.856  28.531 -0.1287 -0.0903  0.0792
 7418W        W50434  22.961  25.427   6.439  0.0742 -0.0106  0.0360
 7419W        W50435  21.995  23.455  17.934  0.2659 -0.0106 -0.2354
 7420W        W50436  30.523  26.539   2.192  0.1296 -0.1345  0.1217
 7421W        W50437   4.010  20.182  23.696 -0.0594  0.3394  0.0556
 7422W        W50438  23.082   4.996   2.068  0.0033  0.0016  0.2010
 7423W        W50439   1.029  22.494   3.766 -0.0607  0.0817 -0.0579
 7424W        W50440  13.647  16.218  12.699  0.0787  0.0734 -0.0211
 7425W        W50441  30.312  29.471  26.691  0.2187 -0.0830  0.3705
 7426W        W50442  23.944   1.540  23.139 -0.2132  0.2786 -0.1553
 7427W        W50443  18.125  26.759  27.808  0.0437 -0.1380 -0.1522
 7428W        W50444  28.520   4.316  17.644 -0.1825  0.0140  0.0683
 7429W        W50445  31.345  23.257  24.376 -0.2366  0.1009  0.0425
 7430W        W50446  13.253  25.850  14.676  0.0664 -0.1269  0.2520
 7431W        W50447  14.885  27.410  21.003  0.0596 -0.0951  0.0911
 7432W        W50448   2.508  25.314  21.807  0.1411  0.0752 -0.1153
 7433W        W50449  17.091  30.983  20.226 -0.1333  0.1896  0.1252
 7434W        W50450  22.201  33.817  16.359  0.2845 -0.0399  0.0170
 7435W        W50451  28.667  22.308  15.825  0.2576  0.0402 -0.0229
 7436W        W50452  21.425   3.146  17.676 -0.2244 -0.2824  0.0084
 7437W        W50453  24.174  29.522  24.821 -0.0605 -0.0221  0.3057
 7438W        W50454  12.669  13.343  18.102 -0.0026  0.0248 -0.1774
 7439W        W50455  30.203  18.679  19.425  0.1807 -0.3955  0.0546
 7440W        W50456  13.428   2.728  22.082 -0.0595 -0.1098  0.2622
 7441W        W50457   3.770  28.583  23.918 -0.0838  0.1537 -0.0459
 7442W        W50458  30.488  14.481  25.040 -0.0228 -0.4676 -0.0369
 7443W        W50459   8.318  32.641  18.822 -0.1399 -0.2918  0.0610
 7444W        W50460  29.740  14.819  21.579 -0.2961  0.2524 -0.1686
 7445W        W50461  24.201  21.542  20.291 -0.2702 -0.0628 -0.3727
 7446W        W50462  16.358   4.825  20.859 -0.2034 -0.0605  0.1345
 7447W        W50463  16.733  27.155  27.484 -0.0448  0.0587  0.0842
 7448W        W50464  25.843  10.518  17.445 -0.1338 -0.3099 -0.0451
 7449W        W50465   1.901  15.943  19.419 -0.2014  0.0759 -0.0939
 7450W        W50466  14.538   4.116  29.278  0.1259 -0.4132 -0.0313
 7451W        W50467  18.810  29.751  17.952  0.0178  0.0562 -0.2405
 7452W        W50468  28.045  32.139  16.698 -0.1160 -0.0651  0.1374
 7453W        W50469   3.040  24.555   3.934 -0.1793  0.1726 -0.0201
 7454W        W50470  27.662  12.896   8.176 -0.1248  0.4074 -0.1439
 7455W        W50471   7.850  27.297   0.180 -0.2125 -0.3211  0.1710
 7456W        W50472  16.398  30.812  23.177  0.0707 -0.1330  0.1609
 7457W        W50473  27.206  20.287  19.968  0.2069 -0.0455 -0.4450
 7458W        W50474  32.158  26.562  16.875 -0.0215 -0.0620  0.2081
 7459W        W50475  29.013  18.407   1.349 -0.2602  0.2316 -0.0155
 7460W        W50476  27.105  17.820  17.305 -0.1669  0.0632 -0.0996
 7461W        W50477  14.791  16.555  12.916  0.1877  0.2169 -0.3314
 7462W        W50478  25.383  26.188   0.296 -0.1741  0.1731  0.0324
 7463W        W50479  30.665  20.739  20.431  0.2884  0.2362  0.0976
 7464W        W50480   0.868  12.925  25.962 -0.0106  0.0527  0.0296
 7465W        W50481   8.847  23.586  21.641 -0.1028 -0.0014 -0.2179
 7466W        W50482  33.977  18.582  18.424 -0.2231  0.3270 -0.2971
 7467W        W50483  27.495   9.416  19.361  0.0949 -0.0509  0.0521
 7468W        W50484   8.174   4.587  15.927 -0.0252  0.1073 -0.2833
 7469W        W50485  14.154  29.554  18.366 -0.0618 -0.0569  0.1274
 7470W        W50486   0.030  33.123  16.721  0.1078 -0.0778  0.4225
 7471W        W50487   6.951  25.073  22.572 -0.4802  0.0915 -0.0872
 7472W        W50488  26.983  14.130  18.375 -0.3018 -0.1087  0.0959
 7473W        W50489  19.828  27.264   1.780  0.0725  0.4714 -0.0843
 7474W        W50490  32.049  22.442  16.779  0.0706 -0.3664 -0.0497
 7475W        W50491  27.391  21.114  23.936 -0.0625  0.0618  0.0815
 7476W        W50492  33.863  24.232   4.746 -0.0233 -0.2958  0.1393
 7477W        W50493  32.099   6.725  26.915 -0.0213 -0.2509 -0.3730
 7478W        W50494  27.469  34.683   1.164 -0.0381 -0.1189  0.0025
 7479W        W50495  22.770  24.626  24.155  0.1793  0.4210  0.0932
 7480W        W50496  23.999  12.851  24.219 -0.0395 -0.2217  0.0878
 7481W        W50497  29.224  13.264   8.185 -0.0288 -0.0645  0.0157
 7482W        W50498  28.809   2.877  17.284  0.0547 -0.2013  0.1606
 7483W        W50499  19.696  20.535  13.051 -0.2381  0.0373  0.2214
 7484W        W50500  12.619  24.673  16.681 -0.0555  0.1597  0.1001
 7485W        W50501  12.026  14.400  18.651 -0.1119 -0.2945  0.3402
 7486W        W50502  31.573  17.093  16.009  0.0927 -0.3840  0.1756
 7487W        W50503   1.286   2.406  25.855 -0.0516  0.1188 -0.0031
 7488W        W50504  34.384  25.986  17.330 -0.0443  0.1712  0.0947
 7489W        W50505  30.717  20.115  26.302 -0.2725  0.0285 -0.3770
 7490W        W50506  18.612  25.647  23.193 -0.2010  0.0413 -0.0089
 7491W        W50507   9.606  19.878  28.330 -0.0749 -0.3179  0.0281
 7492W        W50508  19.577  20.189  15.616  0.4512  0.1247  0.0982
 7493W        W50509  12.782  25.602  17.217 -0.1061 -0.0310 -0.0267
 7494W        W50510   8.728  25.295  18.218 -0.1309  0.0906 -0.0669
 7495W        W50511   6.597  21.515  24.970 -0.1659  0.3523 -0.0293
 7496W        W50512  10.298   7.061  21.264  0.0644  0.0405 -0.0452
 7497W        W50513  28.504  12.697   7.173 -0.1367 -0.2570  0.0861
 7498W        W50514   9.363  10.356   6.672 -0.4245 -0.1470  0.2032
 7499W        W50515   3.813  32.326  14.841  0.0658  0.1564 -0.1411
 7500W        W50516  33.974   5.951  21.093 -0.0872 -0.4009  0.0922
 7501W        W50517  29.375  14.942  15.175 -0.3330  0.1345 -0.0207
 7502W        W50518   5.255  18.641  16.752 -0.1347  0.1264  0.2090
 7503W        W50519  22.420   1.227  15.205 -0.0794 -0.2282  0.3210
 7504W        W50520  16.298  17.370  17.758 -0.1886 -0.5467 -0.0405
 7505W        W50521   2.291  10.252  22.827  0.2205 -0.1677 -0.0755
 7506W        W50522   4.054  26.379   8.003 -0.0591  0.1674  0.2350
 7507W        W50523  17.568  18.709  22.258 -0.3650  0.0751  0.2072
 7508W        W50524  20.020  13.649  16.327 -0.0434 -0.1147 -0.3287
 7509W        W50525  26.363   5.558  15.046  0.0054  0.0145 -0.2861
 7510W        W50526  27.795  15.972  20.630 -0.2703 -0.1015 -0.1278
 7511W        W50527   4.908  24.186  13.725  0.1047  0.1658  0.2320
 7512W        W50528  17.216  17.888  12.682  0.3370  0.1495  0.3290
 7513W        W50529  33.356  23.779  17.536  0.0544 -0.0259  0.0466
 7514W        W50530  24.888  26.033  27.748  0.1618 -0.1549 -0.2599
 7515W        W50531  31.808  34.295  24.160  0.0161  0.0019  0.0287
 7516W        W50532  23.807  19.764   5.162 -0.2472  0.0399 -0.0595
 7517W        W50533   4.055  20.700  25.636  0.1153 -0.1942  0.0417
 7518W        W50534  15.698  15.939   7.135  0.1784 -0.0961  0.0287
 7519W        W50535  31.739  31.953  24.942 -0.0750  0.0307 -0.1839
 7520W        W50536   6.162   7.101  17.258  0.2344  0.1517  0.0022
 7521W        W50537   9.520   0.453  17.588 -0.2060  0.1895 -0.1239
 7522W        W50538  25.357  11.379  17.371  0.2308  0.0616 -0.1035
 7523W        W50539  12.689  34.438   2.379  0.1329 -0.2226  0.2392
 7524W        W50540  17.259  23.914  29.204  0.3516 -0.0297 -0.3708
 7525W        W50541  27.246  15.842  16.188  0.0807  0.1019 -0.1150
 7526W        W50542  15.158  19.281  20.596  0.4351  0.1453  0.3809
 7527W        W50543  27.001  31.872  25.277 -0.0450 -0.1445  0.1529
 7528W        W50544  24.811   8.796   0.827 -0.0144  0.0457 -0.2645
 7529W        W50545  20.762  13.701  18.669 -0.1965 -0.0279  0.1249
 7530W        W50546  24.768  31.384  17.915 -0.2067 -0.0913  0.0518
 7531W        W50547  21.056  24.616  19.140  0.1569  0.3406 -0.1550
 7532W        W50548  23.885  19.598  14.656 -0.1829  0.1599  0.1031
 7533W        W50549  33.073  15.126   5.399  0.3127 -0.0263  0.1497
 7534W        W50550   0.263  19.168  27.347 -0.1753  0.4488  0.2897
 7535W        W50551  26.144  11.281  21.772  0.0291 -0.2118  0.0645
 7536W        W50552  31.068  17.378   8.137 -0.0243  0.1246 -0.0345
 7537W        W50553   2.023  27.208  25.213 -0.0079  0.1217 -0.0449
 7538W        W50554  33.734  29.544  24.083  0.1434 -0.3380 -0.1524
 7539W        W50555  26.449  17.650  14.450 -0.0306 -0.0281  0.0331
 7540W        W50556  19.466   9.633  13.735  0.1740  0.0577  0.0431
 7541W        W50557  28.451  30.662   2.175  0.0104  0.1365 -0.0867
 7542W        W50558  26.458  33.479  15.390  0.2863  0.1860 -0.0239
 7543W        W50559  26.089   9.782  16.357  0.1942 -0.0976 -0.1178
 7544W        W50560   6.557  30.514  22.521  0.3660  0.1936  0.2532
 7545W        W50561   6.680  27.821  19.779  0.1025 -0.1812 -0.0297
 7546W        W50562   4.418  26.794  28.952  0.1317  0.0643  0.1473
 7547W        W50563  25.017  14.797  13.743 -0.4403  0.0894  0.1430
 7548W        W50564   8.668   8.823  26.248 -0.1179  0.1952  0.1381
 7549W        W50565  30.302   3.345  23.840  0.2450  0.1680  0.0448
 7550W        W50566  23.574  20.774   1.922 -0.3050 -0.0048 -0.0819
 7551W        W50567   4.476  14.109   3.939  0.0222 -0.1255 -0.1075
 7552W        W50568  12.024  24.596  24.175  0.0924 -0.1819  0.0762
 7553W        W50569  32.360   8.503  15.533 -0.0433 -0.0490 -0.0308
 7554W        W50570  12.081  14.368  12.763 -0.2991 -0.4131  0.0608
 7555W        W50571  17.161  34.625  15.508  0.1011 -0.2853 -0.3403
 7556W        W50572  14.134  18.955   7.276 -0.0312 -0.1398 -0.0080
 7557W        W50573  32.642  30.554  23.565 -0.0550  0.3476 -0.2937
 7558W        W50574   8.160  12.616  21.113  0.3168  0.0110  0.0534
 7559W        W50575  19.243  22.689   3.706 -0.0451  0.3946  0.1665
 7560W        W50576  33.324  26.405  24.368 -0.0894 -0.3633 -0.2720
 7561W        W50577  21.870  18.626   4.502  0.3770 -0.0551  0.3860
 7562W        W50578  21.225  12.308  15.612 -0.1073  0.2998 -0.0079
 7563W        W50579   6.214  24.179   6.032 -0.0124  0.0096 -0.0894
 7564W        W50580  30.446  29.044  24.485  0.1162 -0.0198 -0.2846
 7565W        W50581   8.258   6.079   2.229 -0.0112  0.1170  0.0682
 7566W        W50582  23.994  22.622   7.574  0.0458  0.0149  0.0550
 7567W        W50583  19.887  22.931   0.979 -0.0694 -0.1791  0.1354
 7568W        W50584   6.930  12.096   1.108 -0.1481 -0.2212 -0.2137
 7569W        W50585  11.689  21.275   3.385 -0.0871  0.2225 -0.1365
 7570W        W50586   8.092  29.514  23.489  0.4284 -0.1606  0.0916
 7571W        W50587  20.945   0.805  20.754 -0.0403 -0.1906  0.2581
 7572W        W50588  22.592  32.219  17.058  0.0336  0.2127  0.0562
 7573W        W50589  30.237  24.930   1.242  0.0258  0.3525  0.1579
 7574W        W50590   1.268  18.843  23.216  0.1131  0.2336 -0.2179
 7575W        W50591   6.093  16.386  22.205  0.1452 -0.0276 -0.0896
 7576W        W50592   8.547   7.159   5.597 -0.0189 -0.0002  0.1210
 7577W        W50593  33.431  10.438  28.878  0.0002  0.3200 -0.0499
 7578W        W50594  32.120   2.952  17.520  0.0395 -0.2729  0.1561
 7579W        W50595  18.793  28.761   2.001 -0.0021 -0.0975  0.3417
 7580W        W50596  22.853   4.429   8.865  0.0523  0.2637  0.2597
 7581W        W50597  16.522  24.887  14.763 -0.0796  0.0215 -0.0224
 7582W        W50598  20.614  19.370  26.900  0.0262  0.1768  0.0158
 7583W        W50599  19.216  30.456  17.497  0.1395  0.0387  0.1521
 7584W        W50600   6.451   5.193  29.294 -0.0960 -0.1947  0.1045
 7585W        W50601  33.434  20.020   0.119  0.0047  0.2264  0.1302
 7586W        W50602  18.801  26.084  28.616  0.3023  0.0924  0.1560
 7587W        W50603  25.897  30.603  16.828  0.0438  0.2318 -0.0540
 7588W        W50604   1.677  23.783   7.562  0.1406  0.1623 -0.2366
 7589W        W50605  27.784  28.494  28.841 -0.2389  0.0610 -0.0232
 7590W        W50606  23.417  27.472  11.147  0.4840 -0.0803  0.1131
 7591W        W50607  32.867  26.872  17.261  0.3010 -0.0737 -0.3229
 7592W        W50608  26.472   2.134  18.950 -0.0759  0.1029  0.4165
 7593W        W50609   2.880  19.099  18.457  0.1153  0.2304 -0.0444
 7594W        W50610  16.742  25.003  26.978  0.4993  0.0813 -0.1074
 7595W        W50611  29.562  23.273  10.562  0.1218  0.3606  0.3005
 7596W        W50612  20.018   4.596  19.638 -0.2726  0.1609 -0.0669
 7597W        W50613  20.755  34.459  23.149  0.1795  0.0437  0.1655
 7598W        W50614   3.831  26.406  28.250 -0.1839  0.0092  0.1315
 7599W        W50615   1.036  12.975  21.788  0.2873  0.1210 -0.2193
 7600W        W50616  32.085  22.052  18.439 -0.3643 -0.0305  0.2051
 7601W        W50617  33.088  24.476  28.263  0.1109 -0.0803 -0.0347
 7602W        W50618  23.931   0.796  15.233 -0.0249 -0.2779 -0.0507
 7603W        W50619  26.531  34.523   5.029 -0.0550 -0.1814  0.1916
 7604W        W50620  20.127   6.479  25.358  0.1112  0.0999  0.0404
 7605W        W50621  33.465  11.091  26.415 -0.1506  0.0453 -0.0402
 7606W        W50622  25.163  16.213  19.080  0.0804 -0.0600  0.4309
 7607W        W50623  20.392  25.259   7.736 -0.0668  0.1082  0.0786
 7608W        W50624  15.639  17.446  25.705 -0.1796  0.1211 -0.1045
 7609W        W50625  25.046  11.703  22.647  0.1619 -0.0997 -0.1155
 7610W        W50626  29.929   2.964   9.372 -0.0756  0.0451 -0.1981
 7611W        W50627  29.304  16.014  23.429 -0.0117 -0.2598 -0.4192
 7612W        W50628   4.159  23.265  18.566  0.0897 -0.1142  0.0541
 7613W        W50629  23.673  14.583  25.525  0.2688  0.2482  0.0643
 7614W        W50630  26.142  15.226  25.542 -0.1624  0.2679  0.0355
 7615W        W50631  13.814  29.101  28.542  0.0375 -0.2677  0.1301
 7616W        W50632  24.693  20.327  20.755  0.2108  0.3409  0.1370
 7617W        W50633  23.870  26.482  21.096 -0.1524 -0.0206 -0.1213
 7618W        W50634  10.553  13.000   4.604 -0.0899  0.4603 -0.0847
 7619W        W50635  15.273  25.729   2.901 -0.0350 -0.1138  0.0907
 7620W        W50636  19.812   9.954  20.532 -0.0176 -0.0084 -0.0070
 7621W        W50637  13.699   2.951  24.325  0.3714 -0.2498  0.1794
 7622W        W50638  14.957  18.150  14.280 -0.1940 -0.2336  0.2107
 7623W        W50639  13.949  11.241  20.250 -0.0909  0.0863 -0.1116
 7624W        W50640  17.616  10.586  14.141  0.1150 -0.0741 -0.0442
 7625W        W50641  33.135  22.896  22.958 -0.0517  0.1880  0.0020
 7626W        W50642   5.983   5.562  15.982  0.2199 -0.1898 -0.4557
 7627W        W50643  11.155  26.705  25.286 -0.0898 -0.1297 -0.0846
 7628W        W50644  18.976  16.413  26.171 -0.2648  0.1236 -0.1114
 7629W        W50645  24.439  16.231  24.773  0.1875  0.0871  0.0530
 7630W        W50646  29.433  31.678   6.195 -0.0494  0.0315 -0.0857
 7631W        W50647  23.214  20.723  18.986 -0.0549 -0.1996  0.1742
 7632W        W50648  23.551   9.169   7.073  0.0846 -0.0649 -0.2148
 7633W        W50649  11.404  10.152   8.082 -0.0611  0.1098 -0.0785
 7634W        W50650  23.502  10.534  15.720 -0.0780 -0.2211  0.0591
 7635W        W50651  28.978  13.163   3.781  0.0255  0.1965  0.0571
 7636W        W50652  17.147  17.075  24.967  0.0038 -0.0929  0.2653
 7637W        W50653  23.885  12.539  15.801 -0.0427  0.1647 -0.1905
 7638W        W50654  24.335  15.084  20.821 -0.1001 -0.1687 -0.2578
 7639W        W50655   3.184  20.136  15.506  0.0093  0.0834 -0.3706
 7640W        W50656  34.049  22.985   3.084  0.1967  0.0408 -0.0945
 7641W        W50657   5.901  29.182   8.286 -0.0867 -0.0190  0.0849
 7642W        W50658  23.033  13.546  17.610 -0.0185  0.0002 -0.0842
 7643W        W50659  25.592  22.908   0.520 -0.1552 -0.4323 -0.4855
 7644W        W50660  18.721  25.085  14.042  0.1168 -0.3086  0.1719
 7645W        W50661  29.492  20.910  21.664  0.0520 -0.3316  0.1261
 7646W        W50662  32.682  18.858  24.440  0.0712  0.2216 -0.0201
 7647W        W50663  22.451  21.939  16.616  0.1238  0.2663  0.2230
 7648W        W50664  15.951   2.242  22.240  0.1713  0.1997  0.2017
 7649W        W50665  17.383  22.193  21.867 -0.1271  0.0721  0.2556
 7650W        W50666  16.380  17.476  25.088  0.0752 -0.0163  0.1114
 7651W        W50667   8.561  24.124  21.933 -0.3275 -0.1026 -0.0012
 7652W        W50668  23.443  18.100   6.888  0.0629  0.1048  0.0292
 7653W        W50669   6.927  24.661  21.375  0.0152  0.2409  0.1089
 7654W        W50670  32.043  32.264  22.026 -0.0089  0.2485  0.0032
 7655W        W50671  19.208  13.924  13.321 -0.0053  0.0667 -0.1168
 7656W        W50672  16.786   2.418  27.678 -0.0508  0.1565 -0.2605
 7657W        W50673  20.428  22.868   2.548 -0.2528  0.1516  0.1294
 7658W        W50674   2.587  13.778  22.375  0.2756 -0.0357 -0.1697
 7659W        W50675  15.288  24.186  14.495  0.1080 -0.4048 -0.1225
 7660W        W50676   1.581  10.853  18.210 -0.2613 -0.1266 -0.1952
 7661W        W50677  29.645  23.169  18.611  0.1621  0.1130  0.0063
 7662W        W50678  27.054  11.694  16.176  0.0511  0.0879 -0.2979
 7663W        W50679  17.157   7.918  29.224 -0.3442  0.0435  0.1600
 7664W        W50680  13.614  31.373  15.241 -0.0591  0.1501  0.2493
 7665W        W50681  12.807   8.186  17.700  0.2527 -0.1027 -0.3193
 7666W        W50682  26.396  14.355   3.815 -0.0480  0.0563  0.0955
 7667W        W50683  23.873  25.867  26.588  0.0753 -0.1393  0.0172
 7668W        W50684  31.542  18.022   1.530  0.0172  0.0615  0.1526
 7669W        W50685  18.573   0.256  26.183 -0.1129 -0.1432  0.0686
 7670W        W50686  21.048  32.951   6.841  0.0559  0.0220  0.6824
 7671W        W50687  12.527  20.272  12.513 -0.1740  0.0309 -0.0039
 7672W        W50688  23.924  20.182  15.946 -0.1939 -0.1692  0.4322
 7673W        W50689  10.173  10.095  21.107  0.1294 -0.1897  0.0571
 7674W        W50690  17.182   3.759   5.598 -0.0256 -0.0072 -0.0511
 7675W        W50691  30.232  29.478  25.517  0.2250 -0.3765 -0.1046
 7676W        W50692  31.083  27.814  23.544 -0.1363 -0.0349 -0.0170
 7677W        W50693  10.604  30.451  22.392  0.3921  0.1452 -0.1500
 7678W        W50694  25.697   1.281  15.084  0.0319  0.0360 -0.0843
 7679W        W50695  25.922   4.404  23.066  0.1577 -0.0864  0.0184
 7680W        W50696  17.344  23.971   5.656 -0.1147  0.1071  0.0889
 7681W        W50697  11.938  28.952  15.837 -0.3148 -0.1253 -0.0726
 7682W        W50698  31.849  31.018   5.781  0.1077  0.0306 -0.1373
 7683W        W50699  10.935  27.620  20.362  0.1896 -0.0746 -0.1260
 7684W        W50700  19.959   7.111   3.311  0.0198  0.1708  0.3931
 7685W        W50701  26.448   9.129   4.104  0.4019  0.1577  0.3130
 7686W        W50702  24.100  31.750  21.393 -0.5300  0.1581 -0.1846
 7687W        W50703  29.046   6.504  25.437 -0.0696  0.2299 -0.1804
 7688W        W50704  19.062  17.003  21.906 -0.1497 -0.1485 -0.1351
 7689W        W50705  26.664  24.118   6.442  0.0281 -0.1570  0.0537
 7690W        W50706  25.016  13.738   6.312 -0.0093  0.1943  0.1551
 7691W        W50707  12.862  26.405  18.688 -0.0947  0.3506 -0.0909
 7692W        W50708  20.833   0.547  24.974 -0.1690  0.0521  0.0839
 7693W        W50709  33.683   6.964  27.633  0.4550  0.1101 -0.1978
 7694W        W50710  30.337  18.215   8.234 -0.0022 -0.0702  0.1067
 7695W        W50711  19.181  10.268  15.756  0.1142  0.2605  0.1536
 7696W        W50712  16.087  22.065  12.170 -0.0087  0.2217  0.2011
 7697W        W50713  23.354  11.981  23.385 -0.1447 -0.1036 -0.2129
 7698W        W50714  10.829  33.736  14.662  0.3803 -0.1450 -0.1942
 7699W        W50715  24.741  18.664   7.088 -0.4227 -0.2003  0.1074
 7700W        W50716  23.744   8.179  18.114 -0.0134 -0.0360 -0.0192
 7701W        W50717   7.442  27.544  20.426  0.3481  0.3235  0.1574
 7702W        W50718   2.538  34.653  20.359 -0.0692  0.2173 -0.2080
 7703W        W50719  23.886   4.859   4.630 -0.0888 -0.0448 -0.1058
 7704W        W50720  24.562  16.207   5.858 -0.3433  0.1910  0.1869
 7705W        W50721  18.833  21.243  14.754 -0.4751  0.1675  0.0478
 7706W        W50722  17.131  29.329   6.560 -0.0726  0.0052  0.0297
 7707W        W50723  17.006  20.427  15.779 -0.0897  0.3288  0.2866
 7708W        W50724  23.736  11.123  17.371  0.1774  0.2036  0.2640
 7709W        W50725  16.613  30.075   8.948 -0.2381  0.0354 -0.0568
 7710W        W50726  32.297  25.924  21.388  0.4332  0.2998  0.1969
 7711W        W50727  10.208  25.626  22.653  0.0523 -0.3041 -0.2609
 7712W        W50728  23.295  19.309  29.092  0.1014  0.0945  0.0944
 7713W        W50729  13.435  22.720   8.806  0.2083  0.0524 -0.0449
 7714W        W50730  24.420   8.460  18.222 -0.1568 -0.0977 -0.0487
 7715W        W50731  23.211  24.274  22.738 -0.1350 -0.1414 -0.0459
 7716W        W50732  31.643  10.008   4.778  0.1806 -0.0170 -0.0637
 7717W        W50733  21.627  18.184  14.363  0.1228 -0.2410  0.1490
 7718W        W50734   1.223  17.585  25.625  0.2922  0.3339 -0.0922
 7719W        W50735  30.538  16.578  18.067  0.0117 -0.0112  0.0940
 7720W        W50736  27.519  25.625  16.350 -0.0946 -0.0164  0.2005
 7721W        W50737  27.872  28.673  21.373 -0.3112 -0.0256 -0.3214
 7722W        W50738  29.958  27.817  19.346 -0.2919  0.0156 -0.0692
 7723W        W50739  21.498   6.941  18.784  0.1854  0.0417  0.0912
 7724W        W50740   0.969  20.294  16.988  0.0570  0.0047 -0.1475
 7725W        W50741   2.892  15.927   9.564 -0.0006  0.0955  0.0157
 7726W        W50742  13.414  29.340  23.523 -0.2927  0.2294 -0.0986
 7727W        W50743  23.456  32.849  22.649  0.3615  0.0067  0.1988
 7728W        W50744  19.635  23.309  13.937 -0.0391  0.0206 -0.0514
 7729W        W50745   0.708  17.447  29.177  0.0434  0.3788  0.0299
 7730W        W50746  19.558  14.588  14.045 -0.3144 -0.1422 -0.1339
 7731W        W50747  23.424   9.276  21.353 -0.1079  0.3769  0.0477
 7732W        W50748  26.576  19.650  14.196  0.0242  0.0056 -0.0045
 7733W        W50749  16.682  24.451   2.641  0.3474  0.1353 -0.3079
 7734W        W50750  30.789  17.632   4.300 -0.2055  0.0634  0.2071
 7735W        W50751  29.429  28.906   5.118  0.0054  0.1559 -0.1351
 7736W        W50752  32.281  23.337  27.334  0.1737 -0.0107 -0.0158
 7737W        W50753  11.507  20.606  17.902  0.0657 -0.1144 -0.1453
 7738W        W50754  27.797  22.283  19.289  0.1822 -0.0726  0.4777
 7739W        W50755  16.440  28.433  18.019 -0.2637  0.0684 -0.2346
 7740W        W50756  29.239  19.198   6.471 -0.1837 -0.1509  0.0916
 7741W        W50757  16.815  22.975  27.346  0.1867 -0.0238 -0.2235
 7742W        W50758  22.421  28.133  15.815  0.0253 -0.0215 -0.0196
 7743W        W50759  31.063  15.706  19.109 -0.0399 -0.1515  0.0533
 7744W        W50760  13.353  28.262  16.257 -0.1799 -0.0443  0.4454
 7745W        W50761  22.085  13.257  23.709  0.0421  0.2189  0.2981
 7746W        W50762   0.515  23.400  24.207 -0.0726  0.0704  0.1273
 7747W        W50763  23.564  28.431  23.957  0.1102  0.0347  0.0553
 7748W        W50764   2.411  13.276  16.632  0.0755  0.3461  0.2108
 7749W        W50765  29.944   8.734   7.510 -0.1099 -0.0387 -0.1269
 7750W        W50766  33.160  21.238  24.526  0.4831 -0.0497 -0.0270
 7751W        W50767  11.234   3.970   3.276  0.1033  0.0259 -0.0445
 7752W        W50768  31.579  16.778  25.192 -0.0098 -0.2666  0.0776
 7753W        W50769  18.570   1.354  15.990  0.1707  0.0108 -0.3841
 7754W        W50770  22.794  27.787   3.728  0.0342 -0.0086 -0.2378
 7755W        W50771   6.061   6.840  21.847  0.1319  0.3619 -0.1114
 7756W        W50772  19.756  18.881  25.726 -0.1561 -0.1966  0.1152
 7757W        W50773  28.964  11.201  18.110  0.2487  0.1302 -0.2460
 7758W        W50774  23.026  23.493  26.073 -0.0808  0.0123  0.2922
 7759W        W50775  23.534  20.792  22.028  0.0306  0.1006  0.1063
 7760W        W50776  25.813   7.600  17.122 -0.1080 -0.0272 -0.0315
 7761W        W50777  30.752   6.668  25.340 -0.0046 -0.2148  0.3585
 7762W        W50778  29.561  29.592  19.891 -0.1045 -0.0456 -0.3524
 7763W        W50779  28.552  24.919  18.597 -0.3118  0.1147  0.5377
 7764W        W50780  31.457  17.076  28.625  0.2189 -0.1293  0.1323
 7765W        W50781   6.335   8.327  18.389  0.2723  0.1402  0.2857
 7766W        W50782  22.111  25.289  23.646  0.0157  0.1807 -0.0376
 7767W        W50783  32.893  13.604  21.887  0.0243  0.1532  0.3975
 7768W        W50784  29.946  29.896  25.484 -0.4290 -0.0022 -0.1272
 7769W        W50785  34.698   9.493  18.316  0.0504 -0.1588  0.1695
 7770W        W50786  28.189  11.108  23.628  0.0503 -0.1905  0.0170
 7771W        W50787  16.174  23.079  14.946  0.1607 -0.0596  0.0903
 7772W        W50788   2.938  27.317   8.982 -0.1461 -0.2259  0.2674
 7773W        W50789  31.077  28.319  17.745  0.2096 -0.2184 -0.0252
 7774W        W50790  34.260  23.676  22.449  0.0540 -0.0790 -0.2993
 7775W        W50791   0.251   0.023   4.084 -0.0269  0.0336 -0.2469
 7776W        W50792   5.566  20.738   0.698  0.1747  0.2763  0.1226
 7777W        W50793  32.984  10.971  21.575  0.2609 -0.0810 -0.0353
 7778W        W50794  21.803   0.387  27.202  0.0916  0.4284  0.2388
 7779W        W50795  27.288  19.881  19.077 -0.1630  0.1466  0.0335
 7780W        W50796  34.576   3.854   8.304 -0.1283  0.1568  0.1364
 7781W        W50797  21.034   2.262  10.364  0.2750 -0.1565 -0.1218
 7782W        W50798  28.693   0.396  25.447  0.0595  0.1472  0.1210
 7783W        W50799   2.966  10.793  27.740  0.0324 -0.1399 -0.1919
 7784W        W50800  34.727  19.452   1.010  0.1306 -0.0548  0.2555
 7785W        W50801  31.691  17.863  23.750  0.0092 -0.4890 -0.1761
 7786W        W50802  26.131   0.018  25.838  0.3612 -0.0959  0.0053
 7787W        W50803  18.054  21.339  28.350  0.0076  0.0996 -0.0998
 7788W        W50804  23.539   0.583  28.776 -0.0985 -0.3302 -0.0261
 7789W        W50805  16.750   0.049   9.997  0.0693 -0.0226 -0.3571
 7790W        W50806  15.822   9.880   3.538 -0.1927  0.2967  0.0900
 7791W        W50807  24.908  27.589  18.162 -0.0056 -0.3473 -0.1404
 7792W        W50808  34.519  33.622  28.961  0.2701 -0.3401  0.0759
 7793W        W50809   2.264  17.142  15.017 -0.0192 -0.0715  0.1558
 7794W        W50810   0.268  26.076  20.765 -0.3387  0.2038  0.1376
 7795W        W50811   3.692   9.949  13.867  0.0973 -0.2082  0.0625
 7796W        W50812  22.855   1.194  29.003 -0.0801 -0.2123 -0.0131
 7797W        W50813  25.180  26.985   6.625  0.0612 -0.1062  0.1020
 7798W        W50814   9.219  15.473   3.313 -0.0715 -0.1155  0.0018
 7799W        W50815  19.756  27.580  15.901  0.1290 -0.2406  0.0467
 7800W        W50816  24.093  21.211  15.286  0.1283  0.1576 -0.0387
 7801W        W50817  20.510  15.207  23.057 -0.2312 -0.0000 -0.0603
 7802W        W50818  24.652  34.598  15.759  0.1504 -0.0456 -0.2245
 7803W        W50819  21.504   4.341   2.624 -0.1645  0.0291  0.2493
 7804W        W50820  23.359  19.791  20.237  0.0045  0.4204 -0.0512
 7805W        W50821  14.623  10.662  17.049 -0.0087 -0.1658  0.2397
 7806W        W50822  32.480  19.301  18.692  0.0364 -0.0335  0.3337
 7807W        W50823   9.948  23.906   6.811  0.1875 -0.0738  0.1011
 7808W        W50824  29.743  15.178  20.209 -0.0680 -0.1728 -0.0166
 7809W        W50825  26.972  22.620  19.280 -0.1537 -0.2814 -0.0734
 7810W        W50826  28.636  29.155  24.368 -0.0663  0.1698 -0.1624
 7811W        W50827  25.845  11.856  18.936  0.0041 -0.0255  0.0399
 7812W        W50828  20.551   9.646  17.527  0.0861 -0.0379  0.1755
 7813W        W50829  10.564  26.148   4.163 -0.4020 -0.3308  0.1663
 7814W        W50830  30.835  11.614  27.650  0.1149 -0.0504  0.2525
 7815W        W50831   3.128  30.482   2.169  0.0824 -0.2205 -0.0145
 7816W        W50832  21.816  14.978  25.277 -0.1997  0.0760 -0.0872
 7817W        W50833  30.399  33.195  19.412 -0.1962  0.2368  0.2803
 7818W        W50834  26.130  20.353   7.014  0.2062 -0.5163 -0.0951
 7819W        W50835  22.184  12.106  20.737 -0.1172  0.0683 -0.2051
 7820W        W50836  25.250  16.202  17.660  0.2646  0.0757  0.2875
 7821W        W50837  25.905  15.958  24.296  0.0244  0.2501 -0.2139
 7822W        W50838  25.996  14.673  17.680 -0.1801 -0.0778  0.1308
 7823W        W50839  12.871  10.256  12.999  0.3986 -0.2427 -0.3121
 7824W        W50840   4.328  33.208  17.476 -0.1672  0.4019  0.0485
 7825W        W50841   4.966  22.443   7.227 -0.1862  0.3540 -0.0020
 7826W        W50842  17.997  28.162  26.581  0.2730 -0.1767  0.0979
 7827W        W50843  22.528   9.982  28.083 -0.2084 -0.1039  0.0558
 7828W        W50844  16.126  25.890  28.465  0.0904  0.1779 -0.0896
 7829W        W50845  30.021  27.413  26.420  0.1840  0.0465 -0.2239
 7830W        W50846   3.104  22.519  24.424 -0.0248 -0.2531  0.0792
 7831W        W50847  28.323  22.695  15.790 -0.0862 -0.2683  0.3291
 7832W        W50848  13.147  19.609  12.087  0.2204  0.0830  0.3549
 7833W        W50849  26.588  16.157  17.553  0.2710 -0.2732 -0.0470
 7834W        W50850  22.087  18.735  15.571  0.0055  0.0994 -0.0548
 7835W        W50851  23.828  23.816  24.035 -0.1672 -0.0426  0.0993
 7836W        W50852  21.317  23.224  20.519  0.0913  0.1513  0.3836
 7837W        W50853  33.298  22.542   3.765 -0.0854  0.1129 -0.2160
 7838W        W50854   8.856   2.561  16.898  0.5335  0.0247 -0.0694
 7839W        W50855   0.110  29.406  15.897 -0.2962 -0.1030 -0.0515
 7840W        W50856   1.719  30.480  22.302 -0.2336  0.1111 -0.1397
 7841W        W50857  18.309  29.892  21.303  0.0613 -0.0820 -0.1798
 7842W        W50858  31.467  17.310  24.903 -0.0579 -0.1835  0.1536
 7843W        W50859  24.207   6.484  15.871 -0.1165 -0.2558 -0.0834
 7844W        W50860  17.802   7.800  16.460 -0.3099 -0.0092 -0.3283
 7845W        W50861  11.169  13.556   0.951 -0.1035 -0.1810  0.1418
 7846W        W50862  26.294  17.991   9.314  0.0466 -0.0849  0.0822
 7847W        W50863  16.689  21.882  25.216 -0.0653  0.2642 -0.0652
 7848W        W50864  30.029  19.062  25.071  0.0824 -0.2322  0.3542
 7849W        W50865  29.561  27.579  26.188  0.3588  0.1368 -0.2542
 7850W        W50866  33.345  27.906  19.539  0.3460  0.2089 -0.0920
 7851W        W50867  20.996  21.669  13.653 -0.2190 -0.0269  0.1289
 7852W        W50868  26.983  14.096  16.209  0.0422  0.0041 -0.1414
 7853W        W50869  21.256  12.985  22.837 -0.1999 -0.1865 -0.1337
 7854W        W50870  27.921  15.599   6.682 -0.1355  0.1050 -0.2495
 7855W        W50871  27.325  15.533   4.126 -0.4515 -0.2660  0.0468
 7856W        W50872  21.165  19.010  12.627  0.1385 -0.1882  0.0916
 7857W        W50873  34.165  27.005  27.375 -0.0934  0.1052  0.1518
 7858W        W50874  18.213   1.764   7.411 -0.2445  0.0190 -0.3855
 7859W        W50875  16.893  10.489   5.233 -0.0505  0.2035  0.0875
 7860W        W50876  22.198  23.632  22.124  0.0862 -0.1439 -0.0090
 7861W        W50877  22.963  27.480  15.454  0.1666  0.0905 -0.0124
 7862W        W50878   1.565  24.453  20.993  0.0196  0.1267 -0.1330
 7863W        W50879  25.325  32.491  19.933  0.0519 -0.0188  0.1162
 7864W        W50880  27.309  11.983  22.235  0.1109 -0.1926  0.0743
 7865W        W50881  15.856  29.029  20.814  0.0213  0.0455  0.0517
 7866W        W50882   1.944  29.369  18.857 -0.4162 -0.2033 -0.1369
 7867W        W50883  27.715  12.049   2.005 -0.6041  0.0090 -0.2824
 7868W        W50884  29.751   7.573  21.947 -0.2086  0.0292  0.0789
 7869W        W50885  23.284  31.623  26.285 -0.2619  0.2198 -0.1517
 7870W        W50886  12.676  11.104  21.518  0.1117  0.2479  0.2802
 7871W        W50887  25.195  17.480  22.198 -0.2279 -0.0850  0.1881
 7872W        W50888  30.386  24.732  26.895  0.1772 -0.0074  0.0707
 7873W        W50889  19.608  27.058   1.390 -0.1202 -0.1404 -0.5139
 7874W        W50890  14.616  19.240  13.615 -0.1070  0.0994 -0.1446
 7875W        W50891  28.879  13.960   9.757  0.2319 -0.1695 -0.2801
 7876W        W50892  18.299  26.352   3.676  0.0251 -0.0100 -0.1699
 7877W        W50893  27.574  24.239  17.274  0.2322 -0.1265 -0.2525
 7878W        W50894  20.313   9.423  28.508 -0.2386 -0.0570  0.2877
 7879W        W50895  28.006  13.389  22.876  0.2000 -0.1912 -0.1376
 7880W        W50896  14.671  21.802  21.782  0.0497  0.2341  0.0240
 7881W        W50897  30.478  28.204   4.879  0.0259  0.3145 -0.1164
 7882W        W50898  15.510  28.008  28.182 -0.3472  0.3262  0.1424
 7883W        W50899  16.275  20.115   1.619 -0.2569 -0.2508 -0.0324
 7884W        W50900  24.429  27.227  15.162 -0.1374  0.0632 -0.2473
 7885W        W50901  29.021  10.655   8.267 -0.1155  0.2451 -0.1839
 7886W        W50902  26.816  26.476   5.901 -0.1903  0.0617 -0.1426
 7887W        W50903  10.155  14.321   4.824  0.1336 -0.0776  0.1223
 7888W        W50904  28.108   9.392  23.096  0.2441 -0.1536 -0.0119
 7889W        W50905  29.088  12.020   9.149  0.1991  0.1500 -0.1447
 7890W        W50906  20.177  12.903  15.123 -0.3490 -0.0205  0.0289
 7891W        W50907  32.050  19.521  22.522 -0.0817  0.0196  0.2511
 7892W        W50908  34.427   9.169  20.865 -0.0676  0.1623 -0.2276
 7893W        W50909  31.578  13.820  29.172  0.2282  0.1493  0.4192
 7894W        W50910  26.059  13.505  15.197 -0.3050  0.0331  0.2017
 7895W        W50911  24.646  16.603  23.284 -0.0075  0.1122  0.1556
 7896W        W50912  20.894  11.088  22.688  0.2837 -0.3469  0.0462
 7897W        W50913  26.843  12.021   3.649  0.1256 -0.1694  0.2420
 7898W        W50914  24.457  24.612   0.814  0.0470  0.1225  0.0235
 7899W        W50915  21.519  14.592  26.074  0.1927  0.0151  0.3283
 7900W        W50916   6.787  16.084  19.163 -0.0623 -0.2278 -0.2954
 7901W        W50917  20.044  10.456  13.607 -0.2484 -0.1308 -0.0119
 7902W        W50918   9.234  22.790   1.197  0.2197  0.0635  0.0210
 7903W        W50919  31.518  12.936  21.756  0.0095  0.0352  0.0363
 7904W        W50920  13.220  22.030   1.350 -0.1274 -0.0762 -0.4421
 7905W        W50921  22.105  15.002  19.538 -0.2571  0.0796 -0.2549
 7906W        W50922  14.572  24.003  24.101 -0.1384  0.0859 -0.0646
 7907W        W50923   7.202  18.253  19.870 -0.1293 -0.1437  0.2103
 7908W        W50924  12.241  10.671  19.064  0.0042 -0.2951 -0.3000
 7909W        W50925  10.576  23.648  14.238  0.0693 -0.2818  0.0009
 7910W        W50926  14.698  29.000  24.442  0.2926 -0.1630 -0.0758
 7911W        W50927  32.941  26.377   4.221  0.0840  0.1566  0.1115
 7912W        W50928  14.064  24.989  15.954 -0.0545  0.0366 -0.1400
 7913W        W50929  19.354  12.230  18.557  0.1727  0.3310  0.2602
 7914W        W50930   7.395  31.920  19.850 -0.3267 -0.2012 -0.0398
 7915W        W50931   7.272  16.582  13.160  0.1248 -0.0770  0.2025
 7916W        W50932  29.191  12.650   9.593  0.1302  0.0172 -0.0609
 7917W        W50933  27.483  18.757  17.305  0.3223 -0.0327  0.0072
 7918W        W50934  24.580   2.567  15.885  0.0443 -0.3650 -0.0549
 7919W        W50935  22.634  21.918   9.329  0.0271  0.2590  0.0860
 7920W        W50936  13.070  17.617  13.735 -0.0517  0.3757  0.0498
 7921W        W50937  27.618  22.247   5.173 -0.2408  0.0692  0.0149
 7922W        W50938   2.509  26.086   4.038  0.1543  0.2681  0.0313
 7923W        W50939  24.068  22.632  27.292 -0.0892  0.1490 -0.1404
 7924W        W50940  32.389  14.562  25.509 -0.0954  0.1969 -0.0743
 7925W        W50941  27.218   9.569   8.276  0.0829  0.0499  0.3148
 7926W        W50942  27.623  14.364  24.570 -0.0561  0.0265  0.2774
 7927W        W50943  34.632  24.789  15.802 -0.0591  0.2230 -0.0037
 7928W        W50944  13.132  25.289  15.666 -0.2964 -0.1430  0.1777
 7929W        W50945  10.878   3.224  20.467 -0.1456 -0.0397  0.1053
 7930W        W50946  12.502   4.662  17.745  0.1290  0.0581  0.0841
 7931W        W50947  19.541   7.770  18.947 -0.0024 -0.0192  0.0285
 7932W        W50948  27.213   2.206  19.356  0.0641  0.1182 -0.0576
 7933W        W50949  17.413  20.975  24.281 -0.0020 -0.1035 -0.0150
 7934W        W50950  21.551  33.428  16.526  0.2494  0.4494  0.2369
 7935W        W50951  15.500  16.534  20.764 -0.0944  0.2544 -0.1112
 7936W        W50952   4.463  11.082   3.593 -0.1052 -0.2384 -0.2379
 7937W        W50953  21.270   4.442  25.438  0.1391  0.2708 -0.2140
 7938W        W50954  31.639  27.475   4.797 -0.0109 -0.2708 -0.0143
 7939W        W50955   1.478  16.318  17.470 -0.0767  0.0308 -0.1799
 7940W        W50956  28.116   3.279   3.806 -0.1091  0.2487 -0.0096
 7941W        W50957  21.049  29.398  14.950  0.0076 -0.0276 -0.0367
 7942W        W50958  24.521  23.178   3.677  0.0133 -0.0145 -0.2854
 7943W        W50959  33.841  31.358   4.542  0.0820  0.2408  0.3120
 7944W        W50960   1.573  30.979   5.445 -0.0870 -0.0727 -0.4469
 7945W        W50961  26.926  13.098   8.218 -0.2967 -0.0868 -0.0072
 7946W        W50962   8.017  20.440  20.019 -0.2971 -0.0162  0.3094
 7947W        W50963  19.769  22.224  26.592  0.1162  0.0467  0.4738
 7948W        W50964  21.036  16.417  21.754 -0.0720 -0.0328 -0.1167
 7949W        W50965  28.085  20.375  17.487 -0.2088 -0.0498 -0.0740
 7950W        W50966   4.993  15.938  28.301 -0.2097  0.3577  0.2762
 7951W        W50967  22.768  34.213   0.158 -0.2352 -0.3713 -0.0468
 7952W        W50968  13.715  28.486  19.203  0.3681  0.1198  0.3284
 7953W        W50969  33.895   3.796   0.823 -0.0691  0.2108 -0.4909
 7954W        W50970   2.559  34.683  21.873 -0.1901 -0.2056  0.1302
 7955W        W50971  19.575  27.164   3.083 -0.4548  0.0242 -0.3845
 7956W        W50972  29.620  32.904  26.663  0.4555 -0.0015 -0.2045
 7957W        W50973  12.081  21.595  27.940 -0.0766  0.3309 -0.0776
 7958W        W50974  22.041  24.930  21.985 -0.0633  0.0043 -0.0396
 7959W        W50975   4.077  21.922  29.063  0.0699 -0.1064 -0.0805
 7960W        W50976   2.431  19.206   5.823  0.2088 -0.4297 -0.2619
 7961W        W50977  29.974  24.101  11.201  0.1771  0.0031 -0.4971
 7962W        W50978  19.568  13.795  22.607  0.1267  0.0169  0.0084
 7963W        W50979  15.459  26.517   6.897  0.2265 -0.0277 -0.2149
 7964W        W50980  15.496  18.114   0.204 -0.4122 -0.1007  0.1022
 7965W        W50981  31.654  33.071  22.516  0.1119  0.2047  0.1749
 7966W        W50982  20.013  18.620  29.032 -0.2824 -0.0889  0.1728
 7967W        W50983  31.725  28.195  22.836  0.1433 -0.1224 -0.2466
 7968W        W50984  13.709  19.217   2.847  0.0492 -0.1290  0.0147
 7969W        W50985  13.061  32.781   1.170 -0.1401  0.0695 -0.0452
 7970W        W50986  32.560  21.133   6.621 -0.0856  0.0934 -0.1499
 7971W        W50987   0.685  25.976   7.106 -0.2496  0.0239 -0.1139
 7972W        W50988  27.848  18.549   1.556  0.2653  0.1177 -0.0651
 7973W        W50989  33.879  18.575   8.533  0.1825 -0.0693  0.0475
 7974W        W50990  32.051  11.747  24.327 -0.0926  0.1935  0.2383
 7975W        W50991  28.945  13.395   5.236 -0.2056  0.0970  0.0108
 7976W        W50992   0.431  33.514   5.853  0.0287 -0.0889  0.1830
 7977W        W50993  29.989  21.798  29.198 -0.1450  0.1694  0.1110
 7978W        W50994  26.004   2.110   3.792 -0.1840 -0.1825  0.2179
 7979W        W50995  17.325   9.302   8.857 -0.2099  0.0430 -0.0402
 7980W        W50996  26.986  15.212  15.689 -0.1687  0.0870  0.3943
 7981W        W50997  32.405   1.210  23.620 -0.0846 -0.0168  0.2573
 7982W        W50998  16.767   6.270  18.718  0.1341 -0.0826  0.1219
 7983W        W50999   8.606  23.397  17.854 -0.4570 -0.1557 -0.0893
 7984W        W51000  28.176  19.064  27.066  0.0404 -0.0197 -0.0821
 7985W        W51001  11.309  22.185   5.255  0.2717 -0.1651  0.2361
 7986W        W51002  20.709  20.252  14.624  0.1408 -0.0049 -0.1070
 7987W        W51003  10.944  26.929   6.911 -0.2290 -0.0728 -0.0555
 7988W        W51004  29.602  29.073   2.347  0.1091 -0.1934 -0.1586
 7989W        W51005  20.478  27.308  28.880 -0.1628  0.1633 -0.0031
 7990W        W51006  14.597  26.514   2.719 -0.1495  0.1716 -0.1346
 7991W        W51007  15.012  34.634  17.079 -0.0102 -0.0370 -0.3223
 7992W        W51008   0.774  21.407   4.976  0.3026  0.1256  0.0387
 7993W        W51009   4.920  16.632   3.259  0.0334 -0.1123 -0.1351
 7994W        W51010  22.528   8.168   2.241 -0.1721 -0.0490  0.0104
 7995W        W51011  32.285  15.089  22.203  0.1289  0.3178 -0.0826
 7996W        W51012  21.306   4.807  27.798  0.0647  0.1112 -0.2059
 7997W        W51013  28.955  31.683  20.874 -0.0149  0.2622 -0.1026
 7998W        W51014  21.327  18.710  22.682  0.3928 -0.1888 -0.0535
 7999W        W51015  21.627  15.088  28.032 -0.0444 -0.0361  0.0398
 8000W        W51016  25.669  23.003  18.344  0.2471 -0.1451 -0.3137
 8001W        W51017  11.193  33.270  28.852  0.0132  0.0214  0.0887
 8002W        W51018   3.417  11.234  21.221 -0.1384 -0.0088  0.2226
 8003W        W51019   8.037  24.685  21.681 -0.2297  0.0559 -0.0666
 8004W        W51020  25.843  20.006  10.106 -0.0722 -0.1905  0.0390
 8005W        W51021  20.827   8.879  15.797 -0.0810 -0.0067  0.0930
 8006W        W51022  19.497   8.430  27.350 -0.0129 -0.1631 -0.0280
 8007W        W51023  19.270   3.774  25.574  0.2535 -0.2820  0.3042
 8008W        W51024   0.924  18.082   5.838  0.2500  0.0484  0.1000
 8009W        W51025   0.096   2.836   8.490 -0.1834 -0.0607  0.0424
 8010W        W51026  32.635   3.750   2.611  0.0014  0.1254 -0.5431
 8011W        W51027  22.831  20.503  22.817  0.1790  0.2749  0.3755
 8012W        W51028  28.217  20.159  28.883  0.2861  0.2763 -0.0813
 8013W        W51029  25.812  17.205  26.618  0.1673  0.0965  0.0598
 8014W        W51030  22.907  22.384  25.303  0.0470  0.0670 -0.0612
 8015W        W51031  32.782  29.088  23.952  0.3515 -0.1697 -0.2132
 8016W        W51032  19.994   4.776  27.450  0.2292 -0.0307  0.0427
 8017W        W51033  23.990  20.067  14.400 -0.2141 -0.0909 -0.1100
 8018W        W51034  23.994   4.014  24.073  0.3884 -0.1622  0.1416
 8019W        W51035  12.779  30.991  20.551 -0.0485  0.0515  0.1631
 8020W        W51036  28.896  17.012  21.003 -0.1273 -0.1513 -0.1614
 8021W        W51037  25.649  24.964  16.131  0.1877 -0.0936  0.2687
 8022W        W51038  26.670  25.926  25.199  0.1082  0.0680 -0.1023
 8023W        W51039   9.601   8.196  25.519 -0.1655 -0.0960  0.1115
 8024W        W51040   7.816  13.377  25.554  0.2026 -0.0623  0.2756
 8025W        W51041  25.471  11.036  18.752 -0.1288  0.0723  0.1453
 8026W        W51042  33.225  15.343  28.738  0.4246 -0.2946 -0.1519
 8027W        W51043  33.545  23.665  14.559  0.2012 -0.1450 -0.2299
 8028W        W51044  33.340   0.142   5.747  0.2055 -0.1685 -0.1330
 8029W        W51045   8.230  20.328   0.124 -0.0186 -0.1127  0.0194
 8030W        W51046  26.599  24.266  15.634  0.0444  0.0807  0.0519
 8031W        W51047  29.405   3.612   6.253  0.3212 -0.0897 -0.1518
 8032W        W51048   6.202   7.207  27.206 -0.0162 -0.1312 -0.0929
 8033W        W51049   5.615  15.419   6.364 -0.1425  0.2010 -0.0809
 8034W        W51050  13.412  34.703  27.135  0.0312 -0.0010  0.0673
 8035W        W51051  12.809   9.532  24.294  0.1812 -0.2695  0.2656
 8036W        W51052  26.239  15.694  14.793 -0.2294  0.2494 -0.0021
 8037W        W51053   5.842  22.937   5.310  0.0256  0.1119 -0.0955
 8038W        W51054  25.032  13.743  18.701 -0.2302 -0.0611  0.2094
 8039W        W51055  23.033  18.816   8.650  0.2596  0.0815  0.0918
 8040W        W51056  28.589  12.480  19.182 -0.2893  0.1216  0.1060
 8041W        W51057  13.678  18.298   5.962 -0.1055  0.1025  0.3091
 8042W        W51058  11.168  11.421  15.945  0.1249 -0.3954  0.1217
 8043W        W51059  27.347  26.260  21.691  0.2433 -0.0666  0.1460
 8044W        W51060  24.854  27.249   5.795  0.1204 -0.2245  0.0107
 8045W        W51061  22.449  22.072   5.352  0.0945 -0.0705  0.4547
 8046W        W51062   2.332  30.356  20.781  0.0452  0.1806 -0.1439
 8047W        W51063  14.064  15.458  27.116 -0.3845  0.1377  0.2623
 8048W        W51064  23.909  26.242  26.948 -0.0319  0.1274  0.2292
 8049W        W51065  20.851  13.620  20.019  0.1425  0.1287 -0.3182
 8050W        W51066   4.692  16.671   2.793 -0.2718 -0.1269 -0.2186
 8051W        W51067  24.550  17.955  17.689 -0.4341  0.1317 -0.0363
 8052W        W51068  14.944  28.808  20.910 -0.2705 -0.2036  0.2061
 8053W        W51069  28.367  23.261   4.011  0.2050  0.0707 -0.3243
 8054W        W51070  19.345  25.580  27.261  0.1352  0.2552  0.0189
 8055W        W51071  20.101  18.440  16.019 -0.1124 -0.0290  0.1614
 8056W        W51072  18.366  16.933  20.208  0.0124 -0.1152 -0.3958
 8057W        W51073  20.501  29.356   0.723  0.2123  0.3065  0.1523
 8058W        W51074  28.282  16.606   6.012 -0.2404 -0.1477 -0.2062
 8059W        W51075  23.591  32.225  20.973  0.0287  0.2258 -0.0251
 8060W        W51076   6.648  25.660  28.439  0.1032  0.0724  0.1536
 8061W        W51077  23.745  21.624  25.921  0.0874  0.0219  0.2836
 8062W        W51078  21.892  22.479  14.036  0.2766  0.1064  0.0492
 8063W        W51079  27.148  19.535  26.934 -0.2838 -0.1383 -0.1929
 8064W        W51080  12.531  17.109  12.583 -0.3099  0.2247 -0.0524
 8065W        W51081  22.552   6.509  10.339  0.3702 -0.1181  0.0485
 8066W        W51082  28.013   8.991   5.200 -0.1416 -0.2399  0.4378
 8067W        W51083  13.957  23.104   7.533 -0.0413  0.1087  0.0855
 8068W        W51084  34.298  22.009   3.125  0.1403 -0.3735 -0.0462
 8069W        W51085  22.617  14.652  15.345 -0.2104 -0.1661 -0.2084
 8070W        W51086  28.064   2.521   9.638  0.1386 -0.0103 -0.1494
 8071W        W51087  24.199   8.852  29.114 -0.0718  0.3491  0.1052
 8072W        W51088  24.536  21.871   7.350  0.0473 -0.0234 -0.2588
 8073W        W51089  22.919  25.803  20.103  0.0216  0.2444  0.1265
 8074W        W51090  19.554  13.727   4.522 -0.1038 -0.2559 -0.2666
 8075W        W51091  25.956  11.681  28.702 -0.1048 -0.2702  0.2805
 8076W        W51092  23.514  14.928   4.698  0.2745 -0.1300  0.0945
 8077W        W51093  18.068  14.756   2.471 -0.0768 -0.1421  0.1313
 8078W        W51094  34.255  30.477   4.911  0.1963  0.0359 -0.1086
 8079W        W51095  17.520  31.469  23.512 -0.3189  0.2125 -0.1135
 8080W        W51096  28.847  24.422  21.651  0.0783 -0.0801 -0.2672
 8081W        W51097  28.201  13.825   6.830  0.1331 -0.0200 -0.2083
 8082W        W51098   0.643  10.033  27.597 -0.0145 -0.3857 -0.0477
 8083W        W51099  22.289   2.287  15.893 -0.1953 -0.0745 -0.3456
 8084W        W51100  29.363   4.458  16.405 -0.4442  0.2977  0.2641
 8085W        W51101  30.585  18.781  16.635 -0.0572 -0.1583 -0.2509
 8086W        W51102  25.559  19.292  23.524 -0.0313 -0.2296  0.0806
 8087W        W51103  23.709   4.989   7.377 -0.2962  0.2878 -0.0841
 8088W        W51104  24.039  16.215  29.004 -0.0123  0.1542 -0.0336
 8089W        W51105   6.406   9.159   0.158 -0.1259 -0.0691  0.1812
 8090W        W51106  25.224  26.207  24.920 -0.0201  0.2980 -0.2938
 8091W        W51107   3.714  18.602  25.377  0.0721 -0.0289  0.1245
 8092W        W51108   9.939  23.216   8.449  0.1470  0.3085 -0.1535
 8093W        W51109   1.336  24.388  23.909 -0.0482 -0.2008  0.0012
 8094W        W51110  25.754  16.528  22.345 -0.1057  0.2667  0.1674
 8095W        W51111  20.562  23.094  29.153 -0.0725 -0.2478  0.3824
 8096W        W51112   4.877  18.979   1.199  0.1108  0.2456 -0.2258
 8097W        W51113  34.157  10.968   4.452  0.1852 -0.0859 -0.1852
 8098W        W51114  31.097  26.450  23.911  0.0614 -0.0067  0.0184
 8099W        W51115  25.202  17.340  20.807 -0.4775 -0.0817  0.1379
 8100W        W51116  23.674  22.204   0.383 -0.0676  0.3047  0.2542
 8101W        W51117  23.316  11.194  24.383 -0.0524 -0.2195 -0.1245
 8102W        W51118  30.383   3.575   2.845  0.0172  0.1813  0.1434
 8103W        W51119  25.470  30.000  24.933  0.1173 -0.0518 -0.0063
 8104W        W51120  28.380  19.562   9.826  0.2088 -0.0395 -0.4885
 8105W        W51121  28.469  18.029   5.489 -0.0525 -0.1679 -0.3877
 8106W        W51122  20.678  26.993   3.164 -0.0466 -0.0569 -0.0725
 8107W        W51123  24.797  31.129  17.105  0.2496  0.0763  0.0988
 8108W        W51124  11.419  31.091   8.082 -0.3728  0.0373 -0.1505
 8109W        W51125  22.251  26.730  19.707  0.0794 -0.0446 -0.2914
 8110W        W51126  27.227  15.863  23.890  0.3418 -0.0101  0.0715
 8111W        W51127  16.500  11.702  28.726 -0.0106 -0.1364 -0.0271
 8112W        W51128  25.576  34.079   6.553  0.1341  0.0555 -0.2148
 8113W        W51129  21.768   3.955  28.706 -0.0863 -0.0221  0.2320
 8114W        W51130  23.495  21.612  22.762  0.2066  0.0978 -0.0465
 8115W        W51131  24.599  27.634   1.618  0.0383  0.0880 -0.5413
 8116W        W51132  13.795   9.142  14.986 -0.0512  0.0807 -0.1591
 8117W        W51133  16.507  15.790   7.434  0.1610  0.2374 -0.1169
 8118W        W51134  15.494   9.088   4.386 -0.0746  0.1692 -0.1291
 8119W        W51135  24.375  16.984  20.220  0.1737 -0.0560  0.1913
 8120W        W51136  31.417  18.857  19.291 -0.2099 -0.2917  0.1275
 8121W        W51137  31.516  28.680  20.030 -0.2447  0.2135 -0.1338
 8122W        W51138  20.636  18.446   7.691  0.2031  0.0851  0.0714
 8123W        W51139  21.872  27.573  23.630 -0.0006 -0.0260  0.2496
 8124W        W51140  16.562  17.808  24.123 -0.0692 -0.1231  0.2540
 8125W        W51141  27.991  23.362   6.013 -0.2320  0.3742 -0.0405
 8126W        W51142  15.626   8.203   0.087  0.1186 -0.1819  0.3580
 8127W        W51143  13.733   7.057   0.400  0.3235 -0.1331 -0.1251
 8128W        W51144  23.801  17.610  20.800 -0.0388 -0.2205  0.0977
 8129W        W51145  34.758   5.174  22.394 -0.2158 -0.0303  0.2051
 8130W        W51146  34.331   5.045  19.972 -0.2284  0.0675  0.1754
 8131W        W51147  29.233  20.789   0.736  0.1293 -0.1026  0.1042
 8132W        W51148  19.079  29.822  21.472  0.1865  0.0659 -0.1611
 8133W        W51149  19.069  26.372  18.241 -0.4365 -0.2245 -0.0581
 8134W        W51150  32.162   5.500   5.542  0.1761  0.3330  0.1193
 8135W        W51151   0.571  11.571  17.661  0.0325 -0.4462 -0.1807
 8136W        W51152  27.084   9.400   6.590  0.2735  0.1154  0.0318
 8137W        W51153  23.231   7.826  22.952  0.0542  0.0331 -0.2226
 8138W        W51154  23.378  30.430  15.242  0.3645 -0.1749  0.3147
 8139W        W51155  29.906  26.567   7.460 -0.0913  0.3232  0.0480
 8140W        W51156  10.045   2.637  19.535  0.0605 -0.0036 -0.0050
 8141W        W51157  28.194  10.832   1.661 -0.0061 -0.2288 -0.0321
 8142W        W51158  25.121  23.251  28.606  0.0263  0.1207  0.1657
 8143W        W51159  25.076  24.317  20.035  0.0036 -0.2643  0.2196
 8144W        W51160  28.823  25.400   5.157 -0.0056 -0.0451  0.0113
 8145W        W51161  30.336   2.705   2.723 -0.1317 -0.1460  0.1345
 8146W        W51162   5.109  25.908   3.686 -0.2495 -0.2338  0.0382
 8147W        W51163  26.909  16.920  19.609  0.0054 -0.0618  0.0122
 8148W        W51164  16.788  20.662  25.672  0.0805  0.1133 -0.0358
 8149W        W51165  33.214  28.531   4.815  0.0836  0.0895  0.1678
 8150W        W51166  22.991  23.028  18.895 -0.0112 -0.1394 -0.2405
 8151W        W51167   1.153  27.587   3.601  0.0557 -0.1230 -0.1891
 8152W        W51168  31.062  28.520   8.392 -0.3794 -0.0846  0.0781
 8153W        W51169  19.091  29.365   2.766 -0.1211  0.3631  0.3786
 8154W        W51170  13.261  22.223  16.112  0.0498 -0.3116 -0.0075
 8155W        W51171  26.761  21.604   7.335 -0.3818  0.0355  0.1506
 8156W        W51172  24.094  21.628  16.995  0.0860  0.2369  0.4066
 8157W        W51173  18.267   0.661   6.091 -0.2764  0.3072  0.0707
 8158W        W51174  26.282  10.913  14.243 -0.1697  0.0047 -0.0148
 8159W        W51175  28.013  30.428  22.736 -0.2540  0.4693 -0.2493
 8160W        W51176  32.173  21.760   7.880 -0.1973 -0.0862 -0.0197
 8161W        W51177  30.664   9.263   4.097  0.3879 -0.4429 -0.0279
 8162W        W51178  30.586  16.113  17.791  0.0147 -0.2785 -0.1581
 8163W        W51179  16.867  16.058  20.388  0.0770  0.0964  0.1280
 8164W        W51180  27.922  30.913   8.579 -0.3799  0.3154 -0.0160
 8165W        W51181  15.596   3.338  22.868 -0.0462  0.1856 -0.2675
 8166W        W51182   1.935  31.723  25.887  0.0792 -0.0965 -0.0774
 8167W        W51183  12.004  25.538  27.327  0.0005  0.1871 -0.0536
 8168W        W51184   1.710   5.918  13.744  0.1234 -0.1027 -0.0267
 8169W        W51185  20.881  32.487   9.770 -0.1879  0.4030  0.4171
 8170W        W51186  28.270   5.375  15.487  0.1575 -0.3134 -0.0673
 8171W        W51187  20.076  14.583  22.540  0.1765 -0.1100  0.0784
 8172W        W51188  23.845  22.272   6.641 -0.0272 -0.1059 -0.1241
 8173W        W51189   9.029  17.426   0.438 -0.0252 -0.1675  0.1092
 8174W        W51190  26.068  32.460   0.251 -0.0045 -0.2580 -0.0735
 8175W        W51191  21.106  18.210  14.433 -0.2637  0.1876  0.0598
 8176W        W51192  24.948  10.784   4.686 -0.2015 -0.0060 -0.2265
 8177W        W51193  32.375   3.820  10.215  0.0556  0.0917 -0.2778
 8178W        W51194  27.358  21.179  22.741  0.0870  0.0818  0.1479
 8179W        W51195  22.222  24.528   6.035 -0.0866  0.4594  0.1079
 8180W        W51196  34.031   6.205  16.724  0.3831  0.2484 -0.2719
 8181W        W51197  10.411  20.015   3.449 -0.1469 -0.1682 -0.0708
 8182W        W51198  24.939  21.753   1.033 -0.1305  0.2286 -0.1200
 8183W        W51199  31.233  22.035  23.511  0.1295  0.1596 -0.1004
 8184W        W51200  27.922  24.966   3.018  0.0655 -0.0203  0.2301
 8185W        W51201  19.976  34.567  19.065 -0.0907 -0.2496  0.1425
 8186W        W51202  24.812  13.087  22.313  0.1502 -0.0681 -0.0569
 8187W        W51203  24.718  32.669   8.656 -0.0195 -0.4172  0.1096
 8188W        W51204  24.037  15.407   2.424  0.3929 -0.1096  0.0179
 8189W        W51205  10.701  22.507  18.093  0.2087  0.2447 -0.2980
 8190W        W51206  30.324  15.603  23.366  0.0992  0.2103  0.2978
 8191W        W51207  20.012   8.613  22.690 -0.0772  0.0215 -0.0489
 8192W        W51208   9.444  14.436   7.355  0.0580  0.0269 -0.0281
 8193W        W51209   1.786  11.540  24.261  0.0757  0.0399 -0.1103
 8194W        W51210  29.395  11.931  29.125 -0.0034  0.1838  0.0263
 8195W        W51211  22.616  17.025  23.081 -0.1977 -0.1697  0.2610
 8196W        W51212  13.738  22.324  19.563 -0.0228 -0.2427 -0.0105
 8197W        W51213  15.514  26.888  17.978 -0.3064 -0.3711 -0.2172
 8198W        W51214  22.253  22.497   3.661  0.1189 -0.1263 -0.0535
 8199W        W51215  26.381   9.557   5.692  0.1104  0.0631  0.0374
 8200W        W51216  32.072  10.370   6.800 -0.0885 -0.0399  0.0232
 8201W        W51217  32.036  12.090   5.372 -0.0309 -0.0912 -0.0975
 8202W        W51218  15.598  11.332  24.343 -0.0066 -0.1409 -0.2724
 8203W        W51219   3.517  17.380  27.780 -0.2160 -0.0547  0.1460
 8204W        W51220  21.754   2.592   5.026 -0.1837  0.1350 -0.1317
 8205W        W51221  25.246  17.777   4.758  0.0236  0.2629 -0.1665
 8206W        W51222  19.440  23.226   5.770 -0.1338  0.1135  0.0398
 8207W        W51223  19.068  20.720   3.113 -0.0424 -0.4630  0.2200
 8208W        W51224  34.248  29.337   5.557  0.1764 -0.1186 -0.1404
 8209W        W51225   9.902  31.056   6.455 -0.0726  0.1539  0.0039
 8210W        W51226  18.035  25.444  25.910  0.1136 -0.1374 -0.1314
 8211W        W51227   4.123   4.064   5.330 -0.3492  0.0543 -0.0623
 8212W        W51228  13.363  25.004   1.881 -0.1108 -0.1005  0.1464
 8213W        W51229  11.935  18.256   0.380  0.0906  0.3172  0.1834
 8214W        W51230   0.547  29.531  22.281 -0.3983  0.0026 -0.2703
 8215W        W51231  13.603  30.938  15.925  0.0816  0.1009 -0.1289
 8216W        W51232  24.921  32.908  24.172  0.1134 -0.1514 -0.0566
 8217W        W51233  27.056  23.969  28.808 -0.1631 -0.3428  0.2422
 8218W        W51234  25.143   3.445  21.885 -0.3570  0.0597 -0.0214
 8219W        W51235  14.061  22.245   1.502  0.0943  0.2069 -0.0391
 8220W        W51236  17.508  12.257  17.824  0.0772  0.2279 -0.1644
 8221W        W51237  23.433  21.805  24.325  0.2459 -0.3153  0.0496
 8222W        W51238  30.172  17.716   5.117 -0.0152 -0.0290 -0.0257
 8223W        W51239   8.587  13.347   7.072  0.4106 -0.0431  0.1700
 8224W        W51240  31.273  27.137   1.979 -0.0886 -0.1273  0.2484
 8225W        W51241  15.567  18.693   5.711  0.1241  0.3491 -0.3396
 8226W        W51242  26.994  21.155  21.184  0.5121 -0.1811  0.0093
 8227W        W51243  13.370  30.338  28.219  0.2464 -0.0898 -0.0571
 8228W        W51244  32.768  25.588  17.653  0.1755 -0.1227 -0.2535
 8229W        W51245  18.104  25.877  24.847  0.0027 -0.1154 -0.1294
 8230W        W51246   4.139  12.775   5.862  0.0860 -0.1011 -0.1771
 8231W        W51247   8.386  28.872   9.229  0.1311  0.1421  0.2090
 8232W        W51248  28.070  32.824   6.930 -0.0812  0.3513 -0.2152
 8233W        W51249  22.204  16.497   4.367  0.0446  0.2208 -0.1344
 8234W        W51250   1.088  34.384   9.804  0.4169  0.1498  0.2780
 8235W        W51251   6.709  30.774  15.740  0.2116  0.2548 -0.0418
 8236W        W51252  29.492  17.993   3.853  0.2611  0.1408 -0.1313
 8237W        W51253  25.609  25.726  23.894 -0.5095 -0.1072  0.1456
 8238W        W51254  20.945  18.120  22.247  0.4345 -0.1285  0.1875
 8239W        W51255  28.726  33.729  24.817  0.0252  0.0048 -0.0900
 8240W        W51256  23.594  15.497   2.056 -0.1494 -0.1033  0.1097
 8241W        W51257  10.121  15.334   1.921  0.0416  0.0147  0.0675
 8242W        W51258  14.420  14.312  12.917  0.2046  0.0350 -0.0996
 8243W        W51259  27.578  21.850  27.104  0.0757  0.1135  0.2358
 8244W        W51260  26.335  16.384   0.294 -0.0268 -0.0078 -0.1596
 8245W        W51261  25.672  17.860   4.003 -0.0136 -0.1026  0.1853
 8246W        W51262  28.332  33.034   1.084  0.0585 -0.0129  0.0673
 8247W        W51263  12.831  27.599  14.078  0.2024  0.0118 -0.0099
 8248W        W51264  29.506  19.912   7.811 -0.2376  0.1777 -0.0873
 8249W        W51265  19.713  26.182   8.858 -0.0023  0.1447 -0.0312
 8250W        W51266  27.666  25.213   4.763 -0.1215 -0.0089  0.1147
 8251W        W51267  27.195  31.149  21.667  0.3236 -0.0476 -0.1217
 8252W        W51268  29.526  20.971   6.711  0.1062  0.1436 -0.1429
 8253W        W51269  30.339  32.640   7.006 -0.0163  0.0049 -0.0800
 8254W        W51270  24.214  31.004   0.636 -0.0647 -0.3515  0.2817
 8255W        W51271  33.840  23.649  26.465  0.1410  0.1759 -0.0128
 8256W        W51272   9.117  20.950  16.370 -0.1235 -0.2020  0.0806
 8257W        W51273  18.621  16.162   1.210  0.0390 -0.0062  0.3620
 8258W        W51274  23.738  15.875  22.044 -0.0345  0.1918  0.0426
 8259W        W51275  11.403  23.783  27.311 -0.1226  0.2230 -0.1494
 8260W        W51276  24.846  23.464   4.118  0.0647 -0.1825  0.2659
 8261W        W51277   2.684  15.358  19.444  0.0875 -0.0034  0.1220
 8262W        W51278  16.264  26.135  19.570 -0.3614 -0.0437  0.0171
 8263W        W51279  32.621   8.633  15.075 -0.0182  0.1147  0.0364
 8264W        W51280  21.739  23.272  21.317  0.1631 -0.2759 -0.0439
 8265W        W51281  28.706  14.834   4.211 -0.0766  0.1547  0.2899
 8266W        W51282   7.823  26.802  29.190  0.3352 -0.3781  0.3510
 8267W        W51283  11.852   1.456   6.149 -0.3915  0.2565  0.0627
 8268W        W51284   7.087  26.250  25.583  0.1969  0.1389 -0.1819
 8269W        W51285  24.696  31.782  10.392  0.0309  0.0656  0.0503
 8270W        W51286  30.709  31.631   3.356 -0.0489 -0.1108 -0.0649
 8271W        W51287  23.279  15.709  24.755 -0.0969  0.3009  0.1147
 8272W        W51288   5.027  34.135   8.585 -0.2553 -0.1712  0.1934
 8273W        W51289  14.271   7.856  26.783  0.2801 -0.3933  0.0525
 8274W        W51290  28.279  18.474   1.828  0.0088  0.1387 -0.0994
 8275W        W51291  18.855  29.718   9.055 -0.1274 -0.0751 -0.1355
 8276W        W51292  18.252  32.581   3.567 -0.1168 -0.1268 -0.0693
 8277W        W51293   0.994  22.476  23.199  0.3182 -0.3208  0.1958
 8278W        W51294   5.851  28.849  29.309 -0.1825 -0.1399  0.0835
 8279W        W51295   9.723  14.100  28.055 -0.0297 -0.5060 -0.0838
 8280W        W51296  34.434  21.042   2.282  0.0913 -0.3541 -0.0293
 8281W        W51297  34.087  21.184  19.561 -0.0202 -0.0466 -0.0541
 8282W        W51298  34.768   9.455  19.169 -0.0117  0.1255  0.3979
 8283W        W51299  34.221  28.537  25.169 -0.2291 -0.2731  0.0655
 8284W        W51300   2.702  13.458  20.593  0.0014 -0.2588  0.1972
 8285W        W51301  15.589   7.568  20.096 -0.1209  0.0328 -0.1499
 8286W        W51302  26.154   7.735   0.663 -0.3391 -0.0656 -0.5029
 8287W        W51303   1.854  29.462  21.658 -0.0128 -0.2727 -0.1235
 8288W        W51304  19.430  16.932  11.362 -0.2846 -0.1732 -0.1091
 8289W        W51305  17.295   8.595   6.477  0.0593 -0.0801 -0.1543
 8290W        W51306  33.552  20.997   2.308  0.1946  0.2386  0.0851
 8291W        W51307  21.551  27.374  10.087 -0.2239  0.2514  0.0799
 8292W        W51308   6.137   0.129   0.074 -0.2613  0.0761  0.1764
 8293W        W51309  21.512   5.067   1.776 -0.1719  0.1378 -0.3243
 8294W        W51310   1.462  11.163   7.562 -0.2223  0.2032  0.1094
 8295W        W51311  33.087  25.715  20.200  0.0229  0.0383  0.1845
 8296W        W51312   0.251  16.559  18.632 -0.1847 -0.0522 -0.0545
 8297W        W51313  32.447  20.317  18.618 -0.0326 -0.0240 -0.1301
 8298W        W51314   7.887  19.983   0.202 -0.1484 -0.0910  0.4186
 8299W        W51315  12.916  30.032  15.401 -0.2563 -0.2118 -0.1622
 8300W        W51316   8.905  29.110  27.025  0.1728  0.1947  0.0900
 8301W        W51317  27.910  12.913   3.219  0.2523 -0.1208  0.0614
 8302W        W51318  16.886  25.822  20.414  0.1956  0.0696 -0.1303
 8303W        W51319  22.031  15.899   7.491 -0.0425  0.3630 -0.0046
 8304W        W51320  25.362  20.551   2.107 -0.0280 -0.0649 -0.0411
 8305W        W51321  24.555  32.033   8.367 -0.3476  0.2678  0.1799
 8306W        W51322  13.863  18.595  22.513 -0.4522 -0.1007  0.2526
 8307W        W51323   6.218   7.127   5.582  0.2513  0.1304  0.2583
 8308W        W51324  15.995  20.591  24.408  0.1699 -0.0851 -0.1333
 8309W        W51325  21.851   1.519   3.935  0.0938 -0.2449 -0.2554
 8310W        W51326  13.917  34.454   6.459  0.0152  0.0329 -0.0353
 8311W        W51327  27.692  30.683   9.770 -0.0593  0.0429 -0.1808
 8312W        W51328  18.825  28.213  15.436  0.2836  0.1807  0.1226
 8313W        W51329  27.774  19.020   8.795  0.0750 -0.1659 -0.1797
 8314W        W51330  12.444  31.055   8.217 -0.1027  0.1156  0.1695
 8315W        W51331  25.586  32.883   4.238  0.2939  0.1077  0.2552
 8316W        W51332  23.987  13.607   4.554  0.0449  0.0273 -0.2472
 8317W        W51333  19.357  21.423   4.871  0.0325 -0.1802 -0.2341
 8318W        W51334  23.242  19.995   0.947 -0.1421 -0.0451 -0.1217
 8319W        W51335  33.545   8.583  10.392  0.2429  0.0255 -0.0249
 8320W        W51336   0.087  17.949   2.954 -0.0311  0.1986  0.2596
 8321W        W51337  25.328  30.888  22.851 -0.0164 -0.0062  0.2187
 8322W        W51338  16.689   0.341   3.803 -0.1115  0.3118  0.1325
 8323W        W51339  20.642  23.870   9.156 -0.2146 -0.2892 -0.0962
 8324W        W51340   2.710  15.363   3.325 -0.0502  0.0159 -0.0399
 8325W        W51341  26.048  25.933  24.508  0.0635  0.2984 -0.0602
 8326W        W51342  34.023  15.816   6.042  0.0188 -0.1789 -0.1437
 8327W        W51343   4.187  29.034   1.431 -0.0983  0.0751  0.2730
 8328W        W51344  34.268  11.468  26.726 -0.1434 -0.2070  0.3254
 8329W        W51345  34.525  26.356  26.766 -0.0785 -0.1744 -0.2241
 8330W        W51346  25.285   5.025  18.621 -0.2031 -0.0458 -0.1965
 8331W        W51347  20.677  17.231   7.489  0.0675  0.0640 -0.1372
 8332W        W51348  29.617  28.993  16.168  0.0060 -0.0108  0.4028
 8333W        W51349  18.935   7.930  20.202 -0.1743  0.0069  0.0654
 8334W        W51350   5.312   3.783  16.291  0.3044  0.0897  0.3468
 8335W        W51351  15.689  24.138  20.331 -0.0308 -0.2935  0.2413
 8336W        W51352  22.370  29.904  16.224  0.0060 -0.2947  0.1446
 8337W        W51353  26.116  17.796  16.335 -0.1894  0.1232  0.2209
 8338W        W51354  30.893  13.428   0.707  0.2147  0.1167 -0.1669
 8339W        W51355  11.267   8.982   2.642 -0.2657  0.0581  0.0788
 8340W        W51356  26.042  21.960  17.725  0.2862  0.1100  0.1998
 8341W        W51357  28.873  17.673   6.219  0.0240  0.2816 -0.0862
 8342W        W51358  24.965  18.400  29.004  0.1266 -0.3336  0.1988
 8343W        W51359  27.476  28.756   1.267 -0.1241  0.0673 -0.0538
 8344W        W51360  25.541  10.376  27.184  0.0056  0.1365 -0.0800
 8345W        W51361   7.440  32.746   9.733 -0.1319 -0.0982  0.0189
 8346W        W51362  25.749  23.608  22.819  0.2000 -0.1495  0.0441
 8347W        W51363  16.899   5.692   1.699 -0.3332 -0.0243  0.0591
 8348W        W51364  28.282   6.039   9.193 -0.3156 -0.3538 -0.2030
 8349W        W51365  11.726  23.168   0.724  0.3332 -0.3325  0.2421
 8350W        W51366  29.013  12.636  16.873 -0.0485  0.2492  0.2850
 8351W        W51367   1.804  18.476   2.925  0.0781 -0.0133 -0.0356
 8352W        W51368  28.805   2.129  15.241 -0.1913  0.0771  0.2004
 8353W        W51369  18.365  31.345  17.797  0.2149  0.2921  0.1304
 8354W        W51370  25.860  31.797  25.836  0.1242  0.0245 -0.1646
 8355W        W51371   9.353  13.010   6.488 -0.1437 -0.1927 -0.0440
 8356W        W51372  26.818   9.002  18.465 -0.4074  0.0364  0.2737
 8357W        W51373  12.589  28.792  16.475  0.1092  0.1570 -0.0153
 8358W        W51374   2.762  17.889   6.998 -0.0094 -0.1166  0.3072
 8359W        W51375  17.445  24.113   7.383 -0.2466 -0.2065 -0.0101
 8360W        W51376   9.967  33.560  18.048 -0.0639 -0.0597  0.0375
 8361W        W51377   3.337  16.695  23.394  0.0541 -0.2932  0.0849
 8362W        W51378  23.981  34.132  10.936  0.1808 -0.2051 -0.0900
 8363W        W51379  21.574  13.960   5.393 -0.2519  0.1273  0.0492
 8364W        W51380  17.313  20.484  22.557 -0.0387 -0.1478 -0.3202
 8365W        W51381   8.109  26.081  26.725 -0.1037  0.0656 -0.0878
 8366W        W51382  27.039  20.032   5.577  0.2712  0.1742 -0.0502
 8367W        W51383  28.270  22.993  26.664 -0.2598 -0.1103  0.0930
 8368W        W51384  20.380  18.378  28.249 -0.1268 -0.1301 -0.0945
 8369W        W51385  21.022  19.259  15.411 -0.1224 -0.5826  0.1091
 8370W        W51386  32.841  22.005  24.134  0.2939  0.3204  0.0003
 8371W        W51387  29.437  25.464   6.400 -0.2468 -0.0985 -0.2948
 8372W        W51388  13.678  13.735  23.642  0.0086 -0.0924  0.1136
 8373W        W51389   1.049  29.323  22.362 -0.2204 -0.0176  0.1135
 8374W        W51390  13.480   4.248   6.968 -0.3727 -0.2612  0.1852
 8375W        W51391  18.795   9.737  26.824  0.3684  0.1099 -0.2722
 8376W        W51392  27.355   5.157   2.989 -0.1433  0.1666 -0.2931
 8377W        W51393  31.321  21.634   4.996  0.0389 -0.0534 -0.2884
 8378W        W51394  32.783  24.161  19.480  0.2538  0.3745  0.0541
 8379W        W51395  23.277  22.043  27.835 -0.2183  0.1298 -0.4421
 8380W        W51396  30.948  12.130  21.674 -0.0071 -0.0483  0.2753
 8381W        W51397  20.006  32.158  27.583 -0.2183  0.2644 -0.0769
 8382W        W51398   8.548  22.845  24.090 -0.0883  0.0851 -0.2941
 8383W        W51399  15.960  14.569  25.970 -0.2574  0.0516 -0.1949
 8384W        W51400  20.080  10.251  20.112  0.1302 -0.2957  0.0237
 8385W        W51401  16.428  24.978   1.135 -0.1030  0.0121 -0.2200
 8386W        W51402   6.721   6.321   3.825 -0.2439  0.0404 -0.0010
 8387W        W51403  25.284  12.424  16.476  0.2836  0.0867  0.0956
 8388W        W51404   8.009  12.415  22.976  0.2343 -0.1912  0.0146
 8389W        W51405  12.119  18.840   3.412 -0.1016  0.0862 -0.1979
 8390W        W51406  10.466  15.762   7.667  0.0589 -0.1658  0.0039
 8391W        W51407  33.535  27.067  10.790  0.0214  0.1206  0.0459
 8392W        W51408  30.801  19.831   1.046 -0.1852  0.0097 -0.2947
 8393W        W51409  19.937   5.887   1.834 -0.0331 -0.2194  0.0223
 8394W        W51410  25.059  12.238   5.036 -0.1288 -0.0278  0.2115
 8395W        W51411  24.745  19.639   3.568  0.0458  0.3052  0.0799
 8396W        W51412  20.517  27.484  21.296  0.0091  0.4899  0.0041
 8397W        W51413  18.359  13.743  28.088 -0.0657  0.0345 -0.1096
 8398W        W51414   5.153  18.969   0.739  0.0250 -0.1144  0.0108
 8399W        W51415   2.379   9.755  10.106 -0.0107  0.0662  0.0821
 8400W        W51416  22.702  19.192   8.440  0.0873 -0.2412  0.0751
 8401W        W51417  20.282  28.567   1.396 -0.1613  0.1803 -0.1147
 8402W        W51418   4.632  10.317  19.158 -0.0076 -0.2592 -0.0904
 8403W        W51419  13.107  20.214   6.817  0.0686 -0.0314 -0.1440
 8404W        W51420  25.779  26.229  10.186  0.1758 -0.0652 -0.3688
 8405W        W51421   7.026  11.025   4.528 -0.0772  0.4291  0.0091
 8406W        W51422   4.476   1.583   6.727 -0.0418  0.0215  0.0582
 8407W        W51423  27.769  30.559  28.687  0.4690  0.1384 -0.1980
 8408W        W51424   7.383  30.352  10.366  0.1578  0.2808  0.2735
 8409W        W51425  26.892  16.177   1.531  0.1916 -0.0739 -0.3858
 8410W        W51426  26.519   8.115  26.582 -0.1513 -0.0504 -0.3808
 8411W        W51427  10.913  28.995   4.107 -0.1267 -0.2285  0.1941
 8412W        W51428  30.080  17.916  17.427  0.2090 -0.0448 -0.1407
 8413W        W51429  11.935  21.747  14.132 -0.0872  0.3453  0.1129
 8414W        W51430  22.257  22.765  22.616  0.1431  0.1691 -0.1270
 8415W        W51431   6.614  28.333  20.969  0.2761  0.1194  0.1351
 8416W        W51432   8.092  13.711   3.854  0.2486 -0.0687 -0.4415
 8417W        W51433  32.293  18.048  21.830 -0.0587  0.1709 -0.2403
 8418W        W51434  28.682  13.408  10.386 -0.0118  0.2105 -0.0105
 8419W        W51435  24.364  22.840  26.922 -0.0724 -0.0047 -0.1616
 8420W        W51436  34.146  15.942   2.486 -0.1635 -0.2221 -0.0855
 8421W        W51437  22.076  20.212  23.468  0.0672  0.1012 -0.1411
 8422W        W51438   6.665  26.017  19.637 -0.0334 -0.0230 -0.0170
 8423W        W51439  13.689   8.717  23.265 -0.2324  0.1464 -0.1505
 8424W        W51440  25.011  25.467  26.565 -0.2061 -0.1140  0.3673
 8425W        W51441  22.340  31.459  27.832  0.2448 -0.1200 -0.2808
 8426W        W51442  22.139  13.563  21.256 -0.1224 -0.0677  0.1058
 8427W        W51443  23.851  32.770  20.866 -0.2452 -0.1001 -0.1114
 8428W        W51444  22.322  16.169  16.828  0.1751 -0.0144  0.1323
 8429W        W51445  15.937   3.257  24.623 -0.1954  0.0424 -0.1824
 8430W        W51446  16.022  32.212  24.822 -0.0129  0.1206 -0.5048
 8431W        W51447  25.044  12.886  14.186 -0.2797  0.1886  0.1599
 8432W        W51448  18.418  30.246   9.520  0.1044  0.0513 -0.0046
 8433W        W51449  25.923  23.603  25.031 -0.1357 -0.1550 -0.2403
 8434W        W51450  28.686  20.665  21.287  0.3304 -0.0549 -0.0653
 8435W        W51451   4.837  24.482  26.047 -0.0505  0.1971 -0.1732
 8436W        W51452  34.290  30.754  18.512  0.2607 -0.3279  0.3052
 8437W        W51453  33.988  31.841  28.193  0.0790 -0.2160 -0.2307
 8438W        W51454  34.687   1.030  16.093 -0.0035  0.2999  0.2095
 8439W        W51455  26.592   6.910  15.620  0.0906  0.1110  0.1534
 8440W        W51456  33.628  15.234  19.299 -0.3102  0.2089 -0.2875
 8441W        W51457  25.539  19.388  18.081 -0.1452  0.0557  0.1398
 8442W        W51458  23.975  18.282  19.061  0.1296 -0.0331  0.3151
 8443W        W51459  18.807  22.056  19.792  0.3769 -0.0857 -0.0970
 8444W        W51460  21.088  24.135  19.943 -0.1970  0.1835  0.0114
 8445W        W51461  30.049  31.988  16.121 -0.0204  0.1031 -0.1940
 8446W        W51462   6.525  18.444   2.500  0.0062  0.3075  0.1823
 8447W        W51463   5.388  15.958  20.657 -0.0151 -0.2020  0.0626
 8448W        W51464   3.400  30.834  28.269 -0.1399  0.0362 -0.1299
 8449W        W51465  27.506   0.411  29.266  0.2438 -0.0469  0.0153
 8450W        W51466  11.250   3.045   0.506  0.0254  0.1605  0.1523
 8451W        W51467  33.230  33.551  28.530  0.0516  0.0142  0.1674
 8452W        W51468  26.886  23.375  24.296  0.2422 -0.1951  0.0780
 8453W        W51469  17.540   0.409  27.808  0.3199  0.3271 -0.1296
 8454W        W51470  15.289  27.122   4.212  0.2292  0.0596  0.0679
 8455W        W51471  20.027   0.398  15.084 -0.0898  0.1622 -0.0904
 8456W        W51472  24.773  18.248  22.502 -0.1591  0.2512  0.1147
 8457W        W51473  23.108  31.366  23.625  0.2914  0.2163  0.0730
 8458W        W51474  31.243  26.900  25.622 -0.1835 -0.1620  0.0204
 8459W        W51475  13.660  30.073   6.273 -0.0144 -0.1281 -0.0085
 8460W        W51476  15.954  24.355  14.898  0.2108  0.0490  0.1271
 8461W        W51477   9.383  19.026  14.905  0.0225  0.1225  0.2097
 8462W        W51478  32.819   5.769  14.647 -0.0929  0.1482  0.4560
 8463W        W51479   4.571  30.752  21.596 -0.1274  0.1084 -0.0945
 8464W        W51480  26.079   3.037  22.124 -0.0029  0.0282 -0.0460
 8465W        W51481  29.577  21.301  17.221 -0.1001  0.0818  0.1225
 8466W        W51482  18.257   9.735  14.948  0.1327 -0.2143 -0.1124
 8467W        W51483   6.099  24.921   2.558 -0.0172  0.0269 -0.0577
 8468W        W51484  22.988  28.240  21.661 -0.2707  0.1586  0.3094
 8469W        W51485  24.216  15.727  18.193 -0.0351  0.2297 -0.5155
 8470W        W51486  15.262  24.557  15.259  0.2577  0.1362 -0.1809
 8471W        W51487  29.545  15.656  21.023 -0.0449 -0.1579 -0.1709
 8472W        W51488  13.556  24.095  14.683  0.0371 -0.1164  0.1078
 8473W        W51489   9.385  29.394  16.108 -0.0247  0.2064 -0.0932
 8474W        W51490  20.700  29.084  27.362 -0.0015  0.2006 -0.2309
 8475W        W51491  32.445  22.594  16.102 -0.1528 -0.2673 -0.3597
 8476W        W51492   6.527  19.956   4.974 -0.0300 -0.0948 -0.2884
 8477W        W51493  22.864  23.129  13.831 -0.2985  0.0036  0.2130
 8478W        W51494  17.855  28.485  15.248 -0.0405  0.0974 -0.1077
 8479W        W51495  26.600  34.578  16.602 -0.1145  0.2275  0.1214
 8480W        W51496   0.915  32.233  14.007  0.1116  0.4869 -0.1372
 8481W        W51497   0.218  19.796  18.707 -0.2951 -0.2183  0.1405
 8482W        W51498  32.934  22.163   9.673  0.0736 -0.1528 -0.3470
 8483W        W51499  22.379  19.571  21.449  0.1920  0.2494  0.1503
 8484W        W51500  27.234  27.326   4.957  0.2190 -0.3060  0.2534
 8485W        W51501  23.651  15.055  23.300 -0.2310 -0.1354  0.0392
 8486W        W51502   4.986  20.414  17.789 -0.1709 -0.1553  0.0602
 8487W        W51503  31.682  28.123  17.161 -0.0165  0.2832 -0.2099
 8488W        W51504  15.142  13.267  13.789 -0.1433  0.0267 -0.1483
 8489W        W51505  31.643  21.562  22.275 -0.0693 -0.1925 -0.0797
 8490W        W51506  21.666  22.403  26.258  0.1254  0.3028 -0.0627
 8491W        W51507  20.502   2.449  21.072 -0.0010  0.0859  0.3985
 8492W        W51508  18.206  15.883  13.402 -0.2195 -0.0280  0.2605
 8493W        W51509   1.349  30.618  26.483  0.3308  0.5106  0.5800
 8494W        W51510  14.348  19.133  22.220 -0.0036 -0.0457 -0.1000
 8495W        W51511  22.379  29.151  20.925 -0.1574 -0.1668 -0.1757
 8496W        W51512  28.312  29.322  26.834  0.1737 -0.3331 -0.3371
 8497W        W51513   9.396  23.267  17.545 -0.3712 -0.2673 -0.4243
 8498W        W51514   8.980  22.316  22.184 -0.0644 -0.0275  0.3112
 8499W        W51515  31.864   1.411  22.074 -0.4154  0.1927 -0.2378
 8500W        W51516  24.675  31.730  18.658  0.1601 -0.0082  0.0061
 8501W        W51517  28.856  34.103  25.116  0.2846  0.3739  0.1967
 8502W        W51518  34.173  15.681  23.911 -0.3593  0.3236  0.0724
 8503W        W51519  16.511  18.097  28.118  0.0686 -0.3691 -0.0728
 8504W        W51520   4.348  16.364  22.161  0.3748 -0.0852  0.2268
 8505W        W51521  26.784  17.237  15.737  0.0513  0.0935 -0.3195
 8506W        W51522  18.535  18.136  17.007  0.1447 -0.1636  0.3157
 8507W        W51523   7.828  15.304  16.789 -0.0479 -0.1798 -0.0763
 8508W        W51524  18.201  26.307  23.095 -0.1201 -0.0529 -0.0080
 8509W        W51525  20.021  12.037  15.486 -0.0644 -0.2952  0.0008
 8510W        W51526   8.477  31.227  15.468 -0.1016  0.0427 -0.2824
 8511W        W51527   0.737  30.858  16.377  0.0196 -0.3099 -0.0864
 8512W        W51528   4.080   1.235  18.657  0.2664  0.1315  0.3263
 8513W        W51529  21.747  21.102  22.145 -0.4290  0.2647 -0.0845
 8514W        W51530  24.974   3.945  18.971  0.1322 -0.1573 -0.3221
 8515W        W51531   7.613  20.095  13.159  0.2118 -0.1828 -0.2485
 8516W        W51532   9.444  30.932  14.791  0.2234  0.0603  0.1721
 8517W        W51533  28.801  29.413  27.838 -0.1673 -0.1788  0.1935
 8518W        W51534  18.188  19.297   1.199  0.1585  0.1516  0.1305
 8519W        W51535  19.073  24.891   1.488 -0.0340 -0.1170  0.0093
 8520W        W51536  13.358  24.365  17.922 -0.1143 -0.0378 -0.3429
 8521W        W51537  12.266  27.819  29.299  0.1085 -0.1135  0.0920
 8522W        W51538  16.424  22.829  22.084  0.1380  0.1229  0.3528
 8523W        W51539  15.132  18.417  13.885 -0.2686 -0.1449  0.0897
 8524W        W51540   7.183  33.472  16.360  0.3383 -0.0071 -0.4870
 8525W        W51541  18.616   8.282  20.411 -0.1810  0.2784 -0.1628
 8526W        W51542  17.685   3.854  19.964  0.3053 -0.0700 -0.2167
 8527W        W51543  30.767  24.302   5.774 -0.2500 -0.1409 -0.1108
 8528W        W51544  25.231  27.274  26.759 -0.1283  0.0267  0.2079
 8529W        W51545  16.212  24.156  15.329 -0.0318  0.0698  0.0072
 8530W        W51546  23.529   4.657   8.817  0.2136  0.1088  0.0484
 8531W        W51547  26.934  31.349  21.277  0.2225 -0.0812 -0.0536
 8532W        W51548   1.539  19.998   1.891  0.1831  0.0304  0.1283
 8533W        W51549  26.806  24.000  22.851 -0.0327 -0.2259 -0.1628
 8534W        W51550   3.917  24.655  16.042  0.0157  0.0355 -0.0484
 8535W        W51551  33.098  14.323   9.617 -0.0143  0.1007  0.0959
 8536W        W51552   8.724  27.467  24.538  0.0440  0.1084  0.0447
 8537W        W51553  17.092  28.237  14.390  0.1915 -0.1348  0.0568
 8538W        W51554  21.765  34.609  28.075 -0.0164 -0.1270  0.3517
 8539W        W51555  26.052   3.910  19.271  0.0825  0.1478 -0.0712
 8540W        W51556   1.574  31.800  14.620  0.0674 -0.1677  0.0345
 8541W        W51557  21.547  25.845  14.442  0.0309 -0.1585  0.1585
 8542W        W51558  24.356   6.918  22.534  0.0877 -0.2060  0.0084
 8543W        W51559  29.136  14.496  23.289 -0.0447 -0.0082  0.0701
 8544W        W51560   9.277   5.820  26.940  0.4394 -0.2249 -0.0935
 8545W        W51561   9.548  22.165  16.563  0.1023 -0.1185 -0.0857
 8546W        W51562  16.474  30.380  24.240 -0.0048 -0.0483 -0.0803
 8547W        W51563   1.387  31.889  16.592  0.0537 -0.1378 -0.0111
 8548W        W51564  15.614  13.088  19.014  0.0648  0.2299 -0.0345
 8549W        W51565  16.609   6.010  23.616  0.2051 -0.1163 -0.0884
 8550W        W51566  30.318  13.969   1.242 -0.2532 -0.2317  0.1182
 8551W        W51567   8.806  16.498  21.647  0.1239 -0.1097  0.0867
 8552W        W51568  33.565  32.763  20.278 -0.2215 -0.0875 -0.0872
 8553W        W51569  27.873  28.619  24.253  0.1216  0.1724  0.0031
 8554W        W51570  11.551  14.193  18.846  0.0724  0.4101 -0.1284
 8555W        W51571  32.514  29.929  15.657 -0.0865 -0.0087 -0.1765
 8556W        W51572   8.101  26.189  28.398  0.1709 -0.1295  0.1453
 8557W        W51573  21.135   6.071   0.480  0.0432 -0.1976 -0.1563
 8558W        W51574  26.857  17.843  27.423 -0.2641 -0.0973 -0.3450
 8559W        W51575  24.645  17.119  16.083  0.3072  0.0034 -0.1980
 8560W        W51576   4.271   8.261  16.157  0.1133 -0.0657 -0.0973
 8561W        W51577  33.503  17.595  26.979 -0.1221  0.0988 -0.1915
 8562W        W51578  30.137  20.634  19.612  0.0622  0.3229  0.3364
 8563W        W51579   4.246  11.090  21.495  0.0424  0.0067  0.1857
 8564W        W51580  19.670  23.477  16.176  0.0304 -0.1185 -0.0180
 8565W        W51581   8.392   1.637  27.919 -0.1797  0.2698  0.0774
 8566W        W51582  27.665  20.291  28.292  0.0695  0.0905 -0.2336
 8567W        W51583  15.579  34.462  13.741  0.1443  0.0252 -0.1868
 8568W        W51584  13.995  24.598   0.152  0.1145  0.0397  0.0750
 8569W        W51585  25.978   6.552  21.624  0.1496  0.2970  0.1080
 8570W        W51586  21.869  29.238  26.755  0.3819 -0.2408  0.2375
 8571W        W51587  10.510  22.415  19.953 -0.0291 -0.0182 -0.0536
 8572W        W51588  31.891  24.301  23.338  0.0929 -0.1818  0.1419
 8573W        W51589  33.130  26.260  26.506  0.0862 -0.2018 -0.1597
 8574W        W51590  14.696  23.131  19.925  0.0251  0.2453  0.2010
 8575W        W51591  24.434  29.274  27.344  0.2874  0.0708  0.1054
 8576W        W51592  25.386  19.426   4.079  0.2329 -0.0662  0.0510
 8577W        W51593  16.884  27.684  26.765  0.0241  0.1731  0.1509
 8578W        W51594  24.587  31.983  21.139 -0.0791 -0.1339  0.0752
 8579W        W51595  23.191  24.022   4.142 -0.1901 -0.1205  0.0192
 8580W        W51596  15.132   0.983  16.541 -0.4005  0.1706  0.0912
 8581W        W51597  34.027  26.504  22.133 -0.1738  0.3099  0.1954
 8582W        W51598  24.463   1.016  21.497 -0.1017 -0.4112  0.0104
 8583W        W51599  18.155  33.006  16.119 -0.1371 -0.2011 -0.1657
 8584W        W51600  28.270  20.943  14.825 -0.4917 -0.1705  0.1933
 8585W        W51601   4.278  25.299  21.139 -0.1936 -0.1008  0.0088
 8586W        W51602  30.330  18.423  16.856  0.0963 -0.0559 -0.0797
 8587W        W51603   8.680  30.189  18.233 -0.2219 -0.0327  0.2046
 8588W        W51604  25.788  16.818  27.546 -0.1973  0.2829  0.0315
 8589W        W51605  17.182   8.649  13.362  0.0999 -0.0050 -0.2206
 8590W        W51606  14.775  27.940  17.228 -0.0188 -0.0237 -0.0940
 8591W        W51607   4.404  31.729  19.669 -0.3044 -0.3062  0.2167
 8592W        W51608  16.906  31.432  21.333 -0.1422  0.0605 -0.1451
 8593W        W51609  18.709  26.258  16.060  0.0099 -0.1757  0.1882
 8594W        W51610  12.284  25.840  25.339 -0.2796  0.2738  0.1416
 8595W        W51611  28.574  16.725  24.380 -0.0782  0.0542 -0.1902
 8596W        W51612  27.776   6.486  24.188 -0.1187  0.3163  0.0820
 8597W        W51613  24.065  25.434  17.499  0.0110  0.3486  0.0676
 8598W        W51614  20.755  21.312  28.349 -0.1624  0.0537  0.0525
 8599W        W51615  28.333   9.756  22.394 -0.0515  0.0571  0.2344
 8600W        W51616  13.252  32.631  28.286 -0.1943 -0.1720  0.3212
 8601W        W51617   1.051   8.295  18.677 -0.0739  0.0279 -0.0781
 8602W        W51618  25.688  13.804  24.862 -0.0217 -0.2131 -0.0720
 8603W        W51619  23.988  13.043  15.975 -0.2546  0.0802  0.0330
 8604W        W51620  22.127   0.784  23.206 -0.0089  0.1037 -0.1474
 8605W        W51621  31.292  25.866  21.310  0.2694 -0.2035  0.1682
 8606W        W51622   8.940  32.270  27.171  0.0647  0.0882  0.2275
 8607W        W51623  12.858  25.574  19.356  0.1581 -0.0345  0.1439
 8608W        W51624  12.685   7.104  19.724 -0.2572 -0.0237  0.1892
 8609W        W51625   9.869  18.262  13.669  0.1298 -0.2225 -0.4149
 8610W        W51626   4.364  34.121  21.826 -0.0794 -0.0435 -0.1690
 8611W        W51627   2.562  21.292   0.011  0.0230  0.1328 -0.1560
 8612W        W51628  21.154   0.621  23.474  0.2101  0.2823 -0.4546
 8613W        W51629  33.187  20.909  27.444  0.3275  0.0517 -0.2566
 8614W        W51630  19.487  29.026  21.813  0.0594 -0.0018 -0.1523
 8615W        W51631  17.676   0.890  16.581 -0.1900  0.2480  0.0040
 8616W        W51632  24.128  29.030  27.662  0.0202 -0.0120  0.0280
 8617W        W51633  31.871  16.384   0.306 -0.2130  0.0020 -0.0071
 8618W        W51634  16.677  26.938  13.783 -0.0449 -0.2222  0.0864
 8619W        W51635  14.604  24.599   0.211 -0.1274 -0.2361  0.4924
 8620W        W51636  10.905  10.508  21.436  0.0522  0.2163  0.0879
 8621W        W51637   0.575  26.383  16.314  0.0065 -0.0473  0.1612
 8622W        W51638  18.828  20.014  16.149  0.0272 -0.2642 -0.0711
 8623W        W51639  23.981  23.392  15.163 -0.0706  0.0354  0.0960
 8624W        W51640  22.730  20.483  26.095 -0.1760  0.2134 -0.0836
 8625W        W51641  19.846   0.682  20.084  0.1978  0.0936  0.0786
 8626W        W51642   5.880  29.245  16.265 -0.2561  0.0200  0.0018
 8627W        W51643  22.361  25.497  17.227  0.0458  0.1022 -0.1097
 8628W        W51644  29.921  10.213  27.323 -0.0339  0.1490  0.3223
 8629W        W51645   3.455  29.973  23.927 -0.0003  0.1833  0.1655
 8630W        W51646  19.532  23.754  24.268  0.0605 -0.3730  0.0705
 8631W        W51647  24.326  17.515  16.278 -0.0964  0.1358 -0.3355
 8632W        W51648  27.898  23.307   2.072 -0.2336 -0.1067 -0.0766
 8633W        W51649  23.521  10.127  15.259  0.2832  0.4569  0.0462
 8634W        W51650  13.843  31.101  18.935 -0.0710 -0.4251  0.1604
 8635W        W51651  28.702  20.223  28.807  0.1820  0.1635 -0.1258
 8636W        W51652  22.633  20.472   8.127 -0.1319 -0.0496  0.1601
 8637W        W51653   2.477   4.483  19.504  0.0470 -0.0433  0.0321
 8638W        W51654  30.274  20.498  23.928 -0.2687  0.2760  0.1591
 8639W        W51655   2.250  25.936  15.478 -0.2309  0.0900 -0.0158
 8640W        W51656  23.163  29.414  26.060 -0.0077 -0.0536 -0.0832
 8641W        W51657  11.435  25.878  14.787  0.1155  0.0835  0.0721
 8642W        W51658  26.058  34.208  26.417  0.1394  0.0116  0.2878
 8643W        W51659  25.542  24.884  15.022  0.1192 -0.0955  0.0293
 8644W        W51660  18.895  32.342  27.141  0.0006 -0.3510  0.0161
 8645W        W51661   2.006  21.733   1.263  0.1295  0.0338 -0.0114
 8646W        W51662   1.031  25.620  26.072  0.0034  0.1185 -0.0306
 8647W        W51663   7.049  25.279  16.749 -0.0014 -0.1036 -0.0427
 8648W        W51664  28.164  23.625  18.815 -0.1699  0.0060  0.3413
 8649W        W51665  23.216  17.374  19.907 -0.1577  0.0107  0.0076
 8650W        W51666  15.997  23.115  13.727  0.3416  0.0257  0.0000
 8651W        W51667  23.950  24.919  18.296  0.2001 -0.0501 -0.0091
 8652W        W51668  11.997  13.641  17.308 -0.3267 -0.0396  0.0657
 8653W        W51669   7.469  21.457  24.674  0.1898  0.0263  0.0515
 8654W        W51670  29.198  25.222  26.475  0.1268 -0.2576 -0.0578
 8655W        W51671  17.926  15.545   1.249 -0.0428  0.2708  0.0799
 8656W        W51672  15.406  27.531  20.883  0.0172 -0.1094 -0.0572
 8657W        W51673  23.260  22.908  25.334  0.1396  0.2190  0.1338
 8658W        W51674  31.537  30.309  26.709 -0.1317  0.1429  0.0217
 8659W        W51675  28.266  19.237  23.341  0.1016 -0.2686 -0.0355
 8660W        W51676  20.314  22.518  15.584 -0.2752 -0.3558  0.0393
 8661W        W51677   4.010  15.496   8.787  0.4056  0.0609 -0.3646
 8662W        W51678   2.983  24.141  14.536  0.1038 -0.0992  0.1735
 8663W        W51679  11.738  17.542   1.365 -0.0660  0.0852 -0.2093
 8664W        W51680  10.762  27.248   0.239 -0.0579  0.1612  0.1872
 8665W        W51681  11.657  33.131  25.749  0.2469 -0.1034 -0.2826
 8666W        W51682  22.007  32.925  20.298  0.0487  0.1131  0.1072
 8667W        W51683  34.199  33.694  18.829 -0.0296  0.1884 -0.1011
 8668W        W51684  16.823   6.242   0.209 -0.2202 -0.0617 -0.1478
 8669W        W51685  33.845  12.784  22.447  0.0579  0.3072  0.1766
 8670W        W51686  30.331  19.292  22.261  0.1165 -0.3245 -0.1476
 8671W        W51687   7.890  23.591  23.598 -0.3630  0.2544 -0.0570
 8672W        W51688  23.318  29.178  23.563  0.0304  0.0547  0.1296
 8673W        W51689  22.333  31.961  17.457 -0.1671 -0.0547  0.1627
 8674W        W51690  24.209   1.258  20.911 -0.3065 -0.0917 -0.1268
 8675W        W51691  13.271   2.470  18.705 -0.1128  0.0257  0.0039
 8676W        W51692  13.087  16.484  14.775  0.0825 -0.2326  0.4164
 8677W        W51693  21.705  22.344  24.092  0.0472 -0.0563  0.1341
 8678W        W51694  22.473  20.995  28.343  0.1234  0.0163  0.3073
 8679W        W51695   3.739  22.969  22.369 -0.3337 -0.1484  0.1804
 8680W        W51696   3.187  22.693  26.283 -0.1154 -0.2222 -0.1759
 8681W        W51697  12.049  25.983   9.072 -0.3413 -0.0305  0.0520
 8682W        W51698  20.126  29.615  21.458 -0.2766 -0.1199 -0.0785
 8683W        W51699  22.475   9.026  16.207 -0.2174 -0.0189 -0.0410
 8684W        W51700   3.674  10.555  17.725 -0.1179 -0.3446 -0.0942
 8685W        W51701   2.737  22.833  20.035  0.2551 -0.1751  0.0735
 8686W        W51702  24.444   1.647  22.882  0.1820  0.1166  0.0033
 8687W        W51703  17.749   8.606  23.832 -0.0077 -0.2323 -0.1491
 8688W        W51704   8.142  20.100  25.603  0.0435  0.1882  0.2190
 8689W        W51705  13.852  19.196  12.119  0.1372 -0.1629  0.0282
 8690W        W51706   5.963  20.806  20.698 -0.4472  0.0605 -0.3806
 8691W        W51707  18.715  33.048  17.659 -0.1397  0.1348  0.0610
 8692W        W51708  26.725  25.033  18.140  0.0148  0.1925  0.1134
 8693W        W51709   7.708  19.151  25.692  0.2922 -0.2399  0.1078
 8694W        W51710  11.130  15.252  25.855  0.3072  0.4857  0.1944
 8695W        W51711  10.802  17.206  27.604  0.0725 -0.1247 -0.1347
 8696W        W51712  19.502  29.363  19.349  0.0808  0.1316 -0.0809
 8697W        W51713  22.692  21.668  19.808  0.0962 -0.1982  0.1135
 8698W        W51714  16.139  19.789  22.614 -0.2661 -0.0609  0.0639
 8699W        W51715  17.695  25.130  17.831 -0.0819 -0.0082  0.0031
 8700W        W51716  23.718   7.711  15.118 -0.1728 -0.0113 -0.0326
 8701W        W51717  30.454  23.951  16.603 -0.3407  0.0324 -0.0369
 8702W        W51718  10.256   2.920  16.420  0.4523  0.0782  0.1019
 8703W        W51719  18.882  11.597  19.595 -0.0707  0.2445 -0.1007
 8704W        W51720  14.600   1.221  24.917 -0.0795 -0.4422  0.0070
 8705W        W51721  27.768  19.142  21.344 -0.1445  0.0859 -0.0429
 8706W        W51722  24.896  21.910  21.614 -0.3265 -0.2976  0.0668
 8707W        W51723  30.443  26.519   3.600 -0.0697  0.1336 -0.1379
 8708W        W51724  27.826   6.423  27.647 -0.2650 -0.0273 -0.0255
 8709W        W51725  24.380   9.630  17.946  0.3795 -0.1716  0.1721
 8710W        W51726  26.722  14.247  14.117 -0.2059 -0.2958  0.1958
 8711W        W51727  20.210  29.006  18.207 -0.2779  0.1065 -0.3097
 8712W        W51728   3.800  27.007  14.308  0.0531  0.0404  0.0807
 8713W        W51729  22.290   9.458  28.233  0.3063  0.3072  0.1503
 8714W        W51730  23.250  30.621   1.643 -0.1675  0.0312  0.0418
 8715W        W51731  33.120  19.281  20.023 -0.2820  0.0531 -0.1088
 8716W        W51732   2.385  26.430  17.167  0.0333  0.2490  0.1820
 8717W        W51733  27.089  33.862  22.657 -0.1357 -0.2958 -0.0808
 8718W        W51734  13.598   6.759  17.496 -0.2624  0.2026  0.0182
 8719W        W51735  28.756  27.260   3.399  0.0988  0.1610  0.1298
 8720W        W51736  27.145  30.690  22.513 -0.1969 -0.1620  0.0221
 8721W        W51737   4.667  31.421   2.099 -0.5784  0.2545  0.0320
 8722W        W51738  22.678  17.221  14.869 -0.3510 -0.0076 -0.0416
 8723W        W51739  19.976  23.063  19.460 -0.1249 -0.0065  0.0120
 8724W        W51740  20.603  24.040  26.366  0.0987  0.0507  0.1142
 8725W        W51741  34.320  19.508  22.200  0.2865 -0.0462 -0.1570
 8726W        W51742  21.032  12.899  19.476 -0.0070  0.1664 -0.4052
 8727W        W51743  24.146  24.910   7.125 -0.1830 -0.1185 -0.1053
 8728W        W51744  27.595  28.229   2.635 -0.1990  0.1384 -0.0023
 8729W        W51745  24.704  33.297   1.358 -0.0570 -0.1007  0.1024
 8730W        W51746  23.490  32.232  21.928  0.2131  0.0914  0.1751
 8731W        W51747   6.387  15.907  20.273  0.0106  0.0275 -0.0951
 8732W        W51748   9.962  18.859  12.488 -0.4462 -0.0526 -0.1765
 8733W        W51749  26.123  18.692   0.691  0.0668  0.2575  0.1355
 8734W        W51750  18.004  27.507  21.950 -0.0334  0.0470 -0.0929
 8735W        W51751  24.795  21.781  15.486 -0.3115 -0.0339 -0.2693
 8736W        W51752  34.199   0.427  17.762  0.1867  0.0822  0.0504
 8737W        W51753  26.493  28.213  27.207  0.1503 -0.2364  0.0429
 8738W        W51754  31.171  12.223   7.032  0.2162  0.0215  0.1608
 8739W        W51755  28.787  30.224  23.718 -0.0956 -0.1331  0.0932
 8740W        W51756  34.361  26.560  25.515 -0.0804 -0.0976 -0.2354
 8741W        W51757   0.612  17.065  18.730 -0.2153 -0.0201  0.4608
 8742W        W51758   6.810   5.025  17.940 -0.0163  0.1185  0.1235
 8743W        W51759  22.068  22.320  18.946  0.0868 -0.1744 -0.2473
 8744W        W51760  25.662  10.321  15.103 -0.0797  0.0458  0.2275
 8745W        W51761  27.025  23.480  28.966 -0.0454  0.1549 -0.1554
 8746W        W51762  23.232  21.093  23.454 -0.1857  0.2080  0.1092
 8747W        W51763   1.166  17.277  19.892  0.3880 -0.1876 -0.1047
 8748W        W51764  31.021  18.405  21.446 -0.0342  0.1760  0.1666
 8749W        W51765   0.710  30.450  15.484 -0.1928 -0.2688  0.2317
 8750W        W51766  24.608  23.780   0.314  0.2640  0.1547 -0.0271
 8751W        W51767  32.707   4.733  23.811  0.2534 -0.1128 -0.2096
 8752W        W51768  24.295  13.293  16.740 -0.1243  0.0002 -0.1156
 8753W        W51769   7.234  31.907  22.059  0.0708 -0.1007  0.0599
 8754W        W51770   0.792   7.848  15.405 -0.0593  0.1157  0.2280
 8755W        W51771  15.013  26.061  15.456  0.1839 -0.0861 -0.2963
 8756W        W51772  11.487  22.339  18.771  0.1300  0.1577 -0.1848
 8757W        W51773  15.295   0.245  27.112 -0.2604 -0.2656  0.0750
 8758W        W51774   4.785  19.316  28.316 -0.1020  0.0701  0.1646
 8759W        W51775  26.825  30.580  25.306  0.4739 -0.0131 -0.1196
 8760W        W51776  33.292  11.354  21.637  0.2071  0.2292  0.2847
 8761W        W51777  26.354   3.417  28.685  0.1009  0.1482 -0.1979
 8762W        W51778  18.996  20.912  12.696 -0.0478 -0.0599  0.2488
 8763W        W51779  22.336  18.308  29.164 -0.1279  0.0340  0.2256
 8764W        W51780  34.194  18.060  24.677  0.2452 -0.1114  0.4128
 8765W        W51781  32.703  20.341   2.038 -0.0040 -0.3770  0.0588
 8766W        W51782   9.121  13.315  19.783  0.0840  0.4856 -0.0740
 8767W        W51783   9.241  32.536  24.805 -0.3148  0.0559 -0.1692
 8768W        W51784  26.337  29.974   7.859 -0.1284 -0.1517  0.1141
 8769W        W51785  11.804  32.775   9.521 -0.0846 -0.1785  0.0230
 8770W        W51786  10.250   6.370  15.902 -0.1189 -0.0027 -0.2132
 8771W        W51787  32.945  15.078  15.656  0.0685 -0.0193  0.0626
 8772W        W51788  34.142  27.242  28.756  0.1140 -0.2833  0.1167
 8773W        W51789  26.333   9.807  14.777 -0.2710  0.2108 -0.1121
 8774W        W51790   2.032   2.630  23.214  0.0318 -0.0855 -0.1058
 8775W        W51791  23.508  28.112  16.710 -0.0203  0.0065  0.0239
 8776W        W51792  25.205  24.110  17.334 -0.0571  0.4687 -0.0641
 8777W        W51793  29.072  23.250   1.827  0.1788  0.0539 -0.0428
 8778W        W51794  32.286  23.137   0.296 -0.1921 -0.1442 -0.1278
 8779W        W51795  19.483  25.776  25.092  0.0504 -0.0595  0.3126
 8780W        W51796  27.502  31.598  17.005 -0.4147  0.2592 -0.4439
 8781W        W51797  20.558  11.108   0.586  0.2304 -0.0878  0.2023
 8782W        W51798  27.155  18.950  14.591 -0.0092 -0.1720 -0.1438
 8783W        W51799  28.427  21.236   1.670  0.1733  0.2389  0.2831
 8784W        W51800  28.307   7.025  28.604  0.0258  0.1172  0.1735
 8785W        W51801  12.856  32.753  24.616  0.1876 -0.0594 -0.0625
 8786W        W51802  20.614   1.389  27.202 -0.1931 -0.0060 -0.1728
 8787W        W51803   6.413  17.634  16.128  0.0379 -0.1274  0.0646
 8788W        W51804   7.991   1.317   1.880 -0.6306  0.1615 -0.2823
 8789W        W51805  27.079  32.257  23.480 -0.1173 -0.1266 -0.2001
 8790W        W51806  26.742  16.092   6.938 -0.0330  0.0646  0.1294
 8791W        W51807  23.214   8.932  22.440 -0.0838  0.1719  0.0254
 8792W        W51808  31.487  32.291  22.901  0.0028  0.0108 -0.0594
 8793W        W51809  28.964  23.971  24.261 -0.0250 -0.1007  0.0116
 8794W        W51810  32.676  34.181  15.770  0.0804  0.1940 -0.3352
 8795W        W51811  21.785  22.837  25.854 -0.2779  0.0110  0.0069
 8796W        W51812  27.462  31.327  10.347 -0.1453  0.2173  0.2553
 8797W        W51813   4.722  31.373  25.349 -0.1240  0.3872 -0.4161
 8798W        W51814   0.103   7.577  22.376  0.1764  0.1851 -0.3165
 8799W        W51815  11.878   3.001  27.695  0.1766 -0.2152  0.1320
 8800W        W51816  26.152  25.845  24.001  0.1577  0.3381 -0.1024
 8801W        W51817   8.654  30.769  24.263  0.1246 -0.1234 -0.2214
 8802W        W51818  18.566  34.541  23.402  0.0532  0.0165 -0.0043
 8803W        W51819  16.130  10.770  23.644 -0.2162 -0.0134 -0.0018
 8804W        W51820   2.732  22.323  20.641  0.0831 -0.1196  0.2940
 8805W        W51821  34.716  20.376  26.265 -0.1441  0.0158 -0.3294
 8806W        W51822  27.541  20.646  26.234 -0.1887  0.0680 -0.0309
 8807W        W51823  32.634   9.046  18.375  0.0181  0.1841 -0.0853
 8808W        W51824  23.339  28.478  22.356 -0.0163 -0.1143 -0.2366
 8809W        W51825  29.394  22.889  27.139 -0.2786 -0.0633 -0.0005
 8810W        W51826  11.251  25.775  24.347  0.0615  0.0233 -0.2013
 8811W        W51827  21.657   9.481   1.738  0.3330 -0.0691  0.0965
 8812W        W51828  27.460  29.779  20.304  0.2079  0.1848 -0.0181
 8813W        W51829  26.372   2.719  21.815 -0.1157  0.1583  0.1883
 8814W        W51830  21.293  22.739   5.735 -0.2777 -0.0219 -0.0667
 8815W        W51831  29.398  25.925  20.917  0.0719  0.1230 -0.1279
 8816W        W51832  30.223  16.850  25.015  0.3056  0.4119  0.1123
 8817W        W51833  24.445  17.307  22.768  0.1524 -0.0726 -0.0744
 8818W        W51834   0.058  28.407  19.866  0.1076  0.2100 -0.1587
 8819W        W51835  19.439  12.628  13.106  0.0144  0.5252  0.1709
 8820W        W51836  16.625   4.611  17.888  0.3773 -0.4099 -0.2515
 8821W        W51837  19.377  20.651  15.641 -0.1026 -0.1738  0.0321
 8822W        W51838   4.959  20.872  28.169 -0.0671 -0.0642 -0.0086
 8823W        W51839  21.770  14.280  18.368  0.0578 -0.3325 -0.2740
 8824W        W51840  13.404  16.163  20.158 -0.0488 -0.4307 -0.2787
 8825W        W51841  31.887  18.609  27.023 -0.0647  0.2086 -0.2942
 8826W        W51842   0.022  17.235  20.431 -0.0418  0.0473 -0.0506
 8827W        W51843  21.862  22.150  19.757 -0.0418  0.0924 -0.2165
 8828W        W51844  20.461  25.442  17.496 -0.0565 -0.0453 -0.1726
 8829W        W51845  26.121  13.402   5.082  0.2545  0.0271 -0.2341
 8830W        W51846   8.305  25.829  14.014 -0.0239 -0.0339  0.0969
 8831W        W51847  31.894  21.480  16.714 -0.1393 -0.0613 -0.0597
 8832W        W51848  23.258   1.697  24.340  0.2528  0.2568 -0.0824
 8833W        W51849  23.111  13.975  26.474 -0.0476  0.0270 -0.1649
 8834W        W51850  22.571  14.586  14.225 -0.4194  0.0122  0.0800
 8835W        W51851  21.717   9.647  18.459 -0.0368  0.0382 -0.0790
 8836W        W51852  17.918  23.356  18.289 -0.1311  0.2170  0.0038
 8837W        W51853  22.615  34.552  24.330 -0.0066  0.1330 -0.0268
 8838W        W51854  19.330  26.546  20.275  0.1008 -0.0143 -0.1514
 8839W        W51855  18.166  33.798  19.765 -0.0152  0.0193 -0.0376
 8840W        W51856  27.621  18.722  18.640 -0.1858  0.1950 -0.0572
 8841W        W51857  24.480  12.553  15.649  0.5894 -0.1322  0.0431
 8842W        W51858  11.340   1.269  27.047 -0.6011  0.0197  0.2947
 8843W        W51859   3.130  12.600  22.859 -0.0306 -0.0796  0.1248
 8844W        W51860  27.803   6.671  20.971  0.0150 -0.0530  0.0789
 8845W        W51861  21.635  27.850  26.586  0.1433  0.1537  0.0990
 8846W        W51862  25.098  11.386  15.475 -0.0253  0.0215  0.0079
 8847W        W51863  34.118  17.255   4.131  0.2186 -0.2365  0.1796
 8848W        W51864   6.138  31.518  24.407  0.2092 -0.2021 -0.2097
 8849W        W51865  25.005  29.806  15.342  0.2916 -0.0992  0.0358
 8850W        W51866   6.877   8.392   6.513 -0.4112  0.0141  0.3011
 8851W        W51867   9.728  24.809  25.733  0.0322  0.1403  0.1380
 8852W        W51868  26.719  27.359   0.139 -0.3436 -0.0780  0.2079
 8853W        W51869  12.972   3.714  18.591 -0.1328 -0.0974 -0.0804
 8854W        W51870  30.343  17.389  23.974 -0.3198 -0.1833 -0.1992
 8855W        W51871  24.333  24.571  20.703  0.0775  0.2532  0.3212
 8856W        W51872  14.537  32.515   4.219 -0.0183 -0.1332  0.0659
 8857W        W51873   9.116  32.219   4.349  0.2505 -0.1063 -0.2773
 8858W        W51874  29.713  21.870  27.854 -0.0894 -0.1315 -0.1912
 8859W        W51875  21.967  18.226  15.424 -0.2468 -0.1062 -0.1160
 8860W        W51876  24.856  28.294  21.859 -0.3970 -0.0630  0.4101
 8861W        W51877  21.473   4.986  24.911 -0.0866 -0.0432  0.1562
 8862W        W51878  22.484  24.927  20.765 -0.1932 -0.0341 -0.1071
 8863W        W51879  25.412  17.447  26.319  0.1058 -0.2173 -0.3125
 8864W        W51880   5.272  27.702  28.602 -0.0687 -0.3637 -0.0093
 8865W        W51881  30.797  11.055   1.819 -0.2184  0.1050 -0.0323
 8866W        W51882  10.802  20.701  25.832  0.0077  0.0276 -0.0049
 8867W        W51883  21.313  29.474   8.384 -0.4496  0.2947  0.0419
 8868W        W51884  20.260  29.453   0.306 -0.2572 -0.0459  0.2292
 8869W        W51885  27.086   4.925  18.651 -0.1323 -0.0416 -0.1793
 8870W        W51886  31.971  17.543  16.440  0.0067  0.0393 -0.1545
 8871W        W51887  29.525  24.723  24.840 -0.0401  0.1981 -0.0227
 8872W        W51888  24.112  17.324  24.145  0.0129  0.2080  0.0077
 8873W        W51889  30.003  12.922  19.282 -0.5047  0.1487  0.0696
 8874W        W51890  13.547  29.652  23.867 -0.3911  0.0493 -0.0065
 8875W        W51891  32.053  29.949  10.861  0.0204  0.0005 -0.0903
 8876W        W51892   5.844  17.706  13.795 -0.3101 -0.1467 -0.2598
 8877W        W51893  22.150  32.134  18.768 -0.2062  0.0256  0.0325
 8878W        W51894  33.476  27.517   1.600 -0.1837 -0.3050 -0.1998
 8879W        W51895  15.122  32.131  15.634 -0.3270  0.2228 -0.2953
 8880W        W51896  18.426  27.225  18.752  0.1445 -0.0083 -0.0801
 8881W        W51897  11.161   2.567  27.504 -0.0574  0.2519  0.0956
 8882W        W51898   6.612  34.267  18.391 -0.1978  0.0988  0.0357
 8883W        W51899  18.820  26.701  26.119  0.2981  0.3293 -0.1391
 8884W        W51900  20.118  25.172   3.659 -0.0961 -0.1522 -0.2901
 8885W        W51901  31.236  16.604  16.840 -0.1626 -0.2851 -0.2871
 8886W        W51902   6.074  11.438  19.957 -0.0677  0.0429  0.0205
 8887W        W51903  26.771  30.070  10.479  0.1305  0.1454 -0.0587
 8888W        W51904  14.218  27.814  16.447 -0.0279  0.2926  0.0287
 8889W        W51905   8.187  33.632  25.967 -0.0893  0.0888  0.0052
 8890W        W51906  26.443  27.452  16.141 -0.1574  0.1137 -0.1432
 8891W        W51907  11.481  17.396  28.473 -0.1988 -0.4892 -0.1289
 8892W        W51908  28.421  31.854   7.556  0.1330  0.2090 -0.2530
 8893W        W51909  17.148   8.525  16.450  0.1010  0.0026  0.0688
 8894W        W51910  30.618  28.453  23.095  0.2592 -0.1542  0.0714
 8895W        W51911  16.177  22.831  24.153 -0.1293 -0.0705 -0.0771
 8896W        W51912  11.866  25.485  23.110  0.0245 -0.2648 -0.2529
 8897W        W51913  24.026  30.195  27.226  0.0211  0.2970  0.1075
 8898W        W51914  16.573   0.038  25.050  0.0346  0.1017 -0.0049
 8899W        W51915   0.442  27.812   4.164  0.1711  0.2664  0.1012
 8900W        W51916   1.022  17.016  15.948  0.0682  0.0120  0.3925
 8901W        W51917  16.603  32.630  20.959 -0.3495  0.2693  0.2881
 8902W        W51918   1.953  21.807  16.547  0.0469 -0.0310 -0.2016
 8903W        W51919   6.256  24.553  14.105 -0.2070  0.2638  0.1603
 8904W        W51920   1.014  27.249  22.101 -0.0936  0.0703  0.3225
 8905W        W51921  31.792  17.248  29.256  0.0524  0.1871 -0.2990
 8906W        W51922  24.409  33.100  23.092  0.2019 -0.1314  0.1174
 8907W        W51923  28.229  27.037   1.180  0.2221 -0.1832 -0.1179
 8908W        W51924   1.298   2.414   3.302 -0.3130  0.0859  0.1161
 8909W        W51925  28.181  16.249  20.875  0.4016 -0.0241 -0.0527
 8910W        W51926  31.233  12.561  28.102  0.0183 -0.0243  0.1590
 8911W        W51927  28.105  27.600  21.451 -0.1954  0.1603  0.1789
 8912W        W51928  29.572  25.027  15.060 -0.3444  0.0690 -0.0974
 8913W        W51929  23.740   3.772   2.465  0.0108 -0.0570  0.2910
 8914W        W51930  18.325  26.077  18.978  0.2656 -0.1571  0.1375
 8915W        W51931  22.513   5.372  14.266  0.2360  0.0521  0.1177
 8916W        W51932  24.273  18.352  15.893 -0.0374 -0.0305 -0.2653
 8917W        W51933  34.270  33.210  16.577  0.2305  0.0980  0.2558
 8918W        W51934  17.282  23.248  22.985 -0.0404  0.0490  0.1704
 8919W        W51935  33.411  26.866   6.315  0.1803 -0.1648  0.1486
 8920W        W51936   8.893  18.865  17.752  0.2638 -0.0735 -0.0323
 8921W        W51937  17.896  18.524  13.594  0.0523 -0.1134  0.0138
 8922W        W51938  20.323  23.739  18.200 -0.2164 -0.2057  0.0592
 8923W        W51939   4.988  17.778   3.605  0.0262  0.1985  0.0521
 8924W        W51940  12.824  25.526   3.203 -0.0884  0.1325  0.0788
 8925W        W51941  29.539  33.032  21.775 -0.0957 -0.1198  0.3221
 8926W        W51942  25.085  26.359  18.956  0.3746 -0.1314 -0.1207
 8927W        W51943  31.390  31.703  18.540 -0.6720 -0.2699  0.1167
 8928W        W51944  24.772  17.914  21.213 -0.0456  0.1895 -0.1005
 8929W        W51945  30.559   1.549  23.660  0.0174 -0.0093  0.1140
 8930W        W51946  17.267  17.038  28.445  0.0288  0.2025  0.0656
 8931W        W51947  22.259  12.740  21.635  0.3177  0.3299  0.0774
 8932W        W51948   3.066   6.762  28.072 -0.0796 -0.0523 -0.4727
 8933W        W51949  25.430   0.568  21.984 -0.0417 -0.0706  0.1265
 8934W        W51950  21.405  24.286   8.422 -0.0562  0.1331 -0.0502
 8935W        W51951   9.657  25.064   7.228  0.1346 -0.3636  0.0346
 8936W        W51952  15.958  15.466  14.370 -0.1332  0.1034 -0.0561
 8937W        W51953  10.019  22.524  26.304  0.2965 -0.2734  0.0332
 8938W        W51954   7.907   2.517  16.343  0.5614  0.0664 -0.2156
 8939W        W51955  30.848  16.886  20.370 -0.2172 -0.0742 -0.1875
 8940W        W51956  26.123  33.555  29.056  0.3576 -0.2165 -0.1454
 8941W        W51957  30.314  18.273  26.935 -0.1873  0.1215  0.1282
 8942W        W51958  20.756  19.104  16.871  0.1625 -0.0177 -0.2351
 8943W        W51959  21.554  31.209  19.842 -0.2716 -0.1935 -0.1449
 8944W        W51960  22.660  27.979  16.207  0.0277 -0.1653 -0.0436
 8945W        W51961  17.179  29.680   7.793  0.0107  0.2658  0.0508
 8946W        W51962  27.034  18.285   7.019 -0.1173  0.0992  0.2513
 8947W        W51963  23.398  29.859   1.250  0.0027  0.0945 -0.3294
 8948W        W51964   9.766  28.374  23.072  0.1010 -0.0895 -0.0149
 8949W        W51965  20.612  18.190  12.118 -0.0718  0.3384  0.0034
 8950W        W51966  19.118  34.628  28.535  0.0522 -0.2106  0.1120
 8951W        W51967   7.722  15.691  18.317 -0.1635  0.0488 -0.0280
 8952W        W51968  21.962  31.392  19.576  0.0095  0.2939  0.1473
 8953W        W51969  20.898  23.503  26.367  0.3676 -0.1516 -0.0787
 8954W        W51970  31.712  25.870  26.407  0.2056  0.0544  0.3526
 8955W        W51971  25.016  31.833   7.151  0.0067  0.2899  0.3929
 8956W        W51972  25.782  22.138  21.778  0.0269  0.1867  0.2564
 8957W        W51973  20.756   1.770  26.895  0.0433  0.2511 -0.0903
 8958W        W51974   8.218  25.336  14.125  0.4348  0.1523 -0.0709
 8959W        W51975  17.205  26.484  17.174 -0.3289  0.2154  0.1251
 8960W        W51976   5.546  23.269  23.867  0.3811 -0.4346 -0.1055
 8961W        W51977  18.014  24.546  26.267 -0.0419  0.2025 -0.0036
 8962W        W51978  27.804  27.715  24.498  0.1077 -0.2233 -0.1590
 8963W        W51979  20.387  34.140  19.978 -0.0221  0.0301  0.0057
 8964W        W51980  20.110  30.151  28.503 -0.2556 -0.0401  0.0899
 8965W        W51981  23.880  30.016  28.392 -0.2346 -0.1797 -0.1324
 8966W        W51982  25.627   5.160  27.474  0.1384  0.0832 -0.0855
 8967W        W51983  20.612   3.270  17.322  0.2374 -0.1174 -0.1642
 8968W        W51984  23.270  22.906   7.280  0.1330  0.0623  0.1664
 8969W        W51985   1.009  15.047   0.956 -0.1213 -0.1210 -0.0523
 8970W        W51986  31.227  30.577  22.882  0.1856  0.2021 -0.0011
 8971W        W51987  15.159   5.399  21.177  0.0159  0.2579 -0.0144
 8972W        W51988  31.489  24.610  19.216 -0.0562 -0.1580  0.1606
 8973W        W51989   4.009  30.739  23.291  0.0037  0.1735 -0.1953
 8974W        W51990  12.035  13.841  17.823  0.0224 -0.1801  0.3787
 8975W        W51991  29.028  14.811   1.124 -0.1275  0.0522 -0.1601
 8976W        W51992  11.297  26.844  20.077  0.0225 -0.0965  0.1394
 8977W        W51993  19.796  23.277  17.119  0.1324 -0.0820  0.0453
 8978W        W51994  24.898  14.475  20.228  0.0659  0.0429  0.2372
 8979W        W51995  15.391   3.643  15.057  0.1357 -0.2968 -0.1952
 8980W        W51996   3.680   5.336  16.728 -0.1713 -0.0508 -0.1581
 8981W        W51997  23.693  30.403  10.717 -0.0337 -0.1805  0.0546
 8982W        W51998  22.526   0.679  20.677  0.1282 -0.0601  0.0148
 8983W        W51999  24.317  31.326  18.016 -0.1633  0.2428 -0.1825
 8984W        W52000  25.126  18.963  21.085  0.1041 -0.2231  0.0286
 8985W        W52001  21.352  24.517  24.786  0.2042 -0.2534  0.1903
 8986W        W52002  27.372  28.633   0.238 -0.0167 -0.0271  0.0420
 8987W        W52003  10.250  26.893  13.948 -0.3521 -0.0491  0.0033
 8988W        W52004  23.733  30.510  16.377  0.0091 -0.3087 -0.1350
 8989W        W52005  32.171  22.871  14.707 -0.0339  0.1505  0.1251
 8990W        W52006  21.638   3.080  16.818 -0.1149 -0.0639 -0.0747
 8991W        W52007  23.661  32.389   1.962 -0.0944 -0.1765  0.2352
 8992W        W52008  13.650   2.644  20.165 -0.0679  0.1562 -0.1280
 8993W        W52009  18.327  26.021  20.933 -0.3356  0.0890  0.1418
 8994W        W52010  19.210  22.479  21.133 -0.0587 -0.1107 -0.2448
 8995W        W52011  20.057   9.667  22.927 -0.3177 -0.1140 -0.1019
 8996W        W52012  27.143  24.197  22.393 -0.2779  0.3475  0.1935
 8997W        W52013   0.436  30.872   5.155 -0.0385 -0.1797  0.0302
 8998W        W52014  18.998  28.452  19.982 -0.0184  0.0797  0.0823
 8999W        W52015  20.788  19.526   2.335  0.1270 -0.0919  0.2755
 9000W        W52016  10.847  14.003  18.945 -0.0652  0.0715  0.0349
 9001W        W52017  30.977  25.146  18.253 -0.1667 -0.2670  0.1379
 9002W        W52018  14.208   6.384  13.991 -0.2549 -0.1679  0.0668
 9003W        W52019  12.243  21.657  25.201 -0.3711 -0.1437  0.0009
 9004W        W52020  11.930  18.064  13.724  0.0549  0.1597  0.1509
 9005W        W52021   1.560  32.902  20.115  0.1787 -0.1515  0.1306
 9006W        W52022  14.882  29.792  15.216 -0.3725 -0.1272  0.1377
 9007W        W52023  16.624  23.222   8.288  0.0446  0.2353 -0.3070
 9008W        W52024  34.353   6.209  25.690 -0.1929  0.2183 -0.2208
 9009W        W52025   1.138  19.188  16.898 -0.2933 -0.0642 -0.0685
 9010W        W52026  23.386  29.595  17.625 -0.2723 -0.0255 -0.0052
 9011W        W52027  21.413  23.875  17.639 -0.0132 -0.2445  0.0829
 9012W        W52028  21.435   3.089   7.092 -0.0865  0.2098  0.0722
 9013W        W52029  17.149  22.698  14.105 -0.1500  0.1724 -0.0366
 9014W        W52030  27.599  21.384  27.447  0.1919 -0.0631  0.1807
 9015W        W52031  14.183   0.000  13.948  0.0796 -0.4146  0.2726
 9016W        W52032  19.461   3.125  15.214 -0.3185  0.0895  0.2789
 9017W        W52033   4.867   4.587   5.733  0.1966  0.2942 -0.1166
 9018W        W52034  14.999  20.049  15.828  0.5217 -0.3628  0.2885
 9019W        W52035  12.942  25.949  28.275  0.2163  0.3158  0.0740
 9020W        W52036  30.847  24.711   4.585 -0.0330 -0.3088 -0.0124
 9021W        W52037   7.721  14.342  28.184 -0.0510  0.0581 -0.1684
 9022W        W52038  34.713  26.309  23.335 -0.1953  0.1400  0.2436
 9023W        W52039   9.914   3.255  22.218  0.1803 -0.0389 -0.3116
 9024W        W52040  14.594   3.728  16.867  0.1435  0.1938 -0.0141
 9025W        W52041  26.668  30.020  27.090 -0.1327  0.2379 -0.1493
 9026W        W52042   2.410  21.535   2.617  0.0885 -0.2754 -0.0407
 9027W        W52043  17.253   5.934   4.927  0.1211  0.1855  0.4733
 9028W        W52044   5.457  27.963  24.251  0.4854 -0.0311  0.2184
 9029W        W52045  23.874  12.878  15.464  0.1023  0.4473  0.3268
 9030W        W52046  24.586  13.578  26.660  0.1963 -0.1108  0.0195
 9031W        W52047   1.196  13.233  14.863  0.1025 -0.2939  0.0556
 9032W        W52048   5.522  34.299   2.689  0.1922  0.0556  0.0025
 9033W        W52049  23.837  28.221  21.145 -0.1070  0.0384 -0.0848
 9034W        W52050  21.297   4.584  20.057 -0.1444  0.2125 -0.0755
 9035W        W52051  31.063  26.781  17.264 -0.2578  0.2877 -0.1389
 9036W        W52052   1.003  19.653  29.192 -0.1508  0.0037  0.2263
 9037W        W52053  19.975  27.676   6.038 -0.0314  0.0923 -0.0771
 9038W        W52054  19.079  24.847  14.560  0.1315 -0.0534 -0.2460
 9039W        W52055  25.599  27.436  25.980 -0.1994 -0.2878  0.0512
 9040W        W52056  27.031  10.496  16.656 -0.3224 -0.0318  0.0917
 9041W        W52057  17.065  22.002  16.069 -0.1874 -0.0682 -0.3565
 9042W        W52058  19.078  23.837   2.409 -0.2159 -0.2702 -0.0042
 9043W        W52059  27.557  12.288  27.012  0.1698  0.0571  0.4132
 9044W        W52060  22.289  26.066  16.195 -0.2608  0.1263  0.3453
 9045W        W52061  30.493  27.962   3.466 -0.4191  0.1630  0.0663
 9046W        W52062   6.067  32.758  19.499  0.1938  0.3040 -0.0220
 9047W        W52063  32.790  30.456  28.215  0.3624 -0.0226  0.0703
 9048W        W52064  26.643  22.171  26.446  0.3462  0.1960 -0.0487
 9049W        W52065  13.106  20.748  15.602  0.3235 -0.2256 -0.0075
 9050W        W52066   3.114  11.719   3.357 -0.1353  0.2891 -0.0385
 9051W        W52067  24.440  31.097  28.975 -0.0463  0.0770 -0.1225
 9052W        W52068  31.779  28.579  17.046 -0.1023  0.1962  0.1557
 9053W        W52069  10.577  16.483  25.347 -0.2011 -0.1718  0.0799
 9054W        W52070  31.127  14.358  18.902 -0.1056 -0.0697 -0.0808
 9055W        W52071   8.708  30.897  17.756 -0.2706 -0.2650  0.1083
 9056W        W52072  23.443  19.689  13.472  0.0712  0.1655  0.0245
 9057W        W52073  33.473  29.421  23.599  0.1605  0.0012 -0.0217
 9058W        W52074   7.673  27.769   8.341 -0.0713  0.0010 -0.0425
 9059W        W52075  31.734  24.495  17.236 -0.2366 -0.1908  0.0235
 9060W        W52076  18.160  28.744  21.175 -0.2051 -0.0475 -0.5508
 9061W        W52077  17.676  19.070  16.116  0.2796  0.2247  0.0612
 9062W        W52078  23.998  26.644   2.095  0.3457  0.0183 -0.2166
 9063W        W52079  26.095  30.204  20.043  0.2903  0.1565  0.4208
 9064W        W52080   3.768  28.629  20.863 -0.2567  0.0258  0.1060
 9065W        W52081  22.822  27.370   8.016  0.2504  0.2862 -0.2388
 9066W        W52082  28.614   4.303  24.281  0.0182 -0.0732  0.3040
 9067W        W52083   9.840   1.398  20.582  0.1934 -0.1693  0.1630
 9068W        W52084  17.542  32.151  24.845 -0.1322 -0.2268 -0.4062
 9069W        W52085  34.482  19.011  16.901  0.0870 -0.2235  0.3355
 9070W        W52086  18.914   4.274   6.016 -0.0502  0.0142  0.3200
 9071W        W52087   7.901  19.160  15.984 -0.1116 -0.1093  0.0010
 9072W        W52088   9.177  30.653  19.915  0.2624 -0.2322 -0.0438
 9073W        W52089  24.106  10.535  19.447 -0.1388 -0.2968 -0.0061
 9074W        W52090  21.619  23.366  19.857  0.0501  0.1557  0.3397
 9075W        W52091  17.530   1.486  24.410 -0.2279  0.0536 -0.2357
 9076W        W52092  23.910  28.703  17.390  0.2867 -0.2550 -0.1734
 9077W        W52093  12.135  34.628  17.630  0.0046 -0.0725  0.3591
 9078W        W52094  31.368   3.530   6.456  0.2440 -0.1294  0.2434
 9079W        W52095  14.563  25.226  28.858 -0.1382 -0.0997 -0.0402
 9080W        W52096  26.153  20.021   2.397  0.1115  0.1697 -0.0391
 9081W        W52097  26.987  22.733  23.557  0.0584 -0.1251  0.0426
 9082W        W52098  23.652  26.113  17.661 -0.2501 -0.0281  0.1077
 9083W        W52099  32.448   2.940  28.172  0.1249 -0.0833 -0.1707
 9084W        W52100  22.833  15.281  25.762  0.0474  0.0954 -0.2801
 9085W        W52101   9.130  24.639  13.278 -0.0507  0.2088 -0.0478
 9086W        W52102  10.492  14.951  16.653 -0.3013  0.1503  0.2099
 9087W        W52103  17.333  29.406  23.852  0.0088 -0.3823  0.1428
 9088W        W52104  24.097  14.761   0.501  0.2051 -0.2700  0.1566
 9089W        W52105   7.968  33.612  28.325  0.1273 -0.0386 -0.0090
 9090W        W52106  13.769  23.418  14.228 -0.1643  0.2070  0.4332
 9091W        W52107  14.311   1.289  15.449  0.0522 -0.1749 -0.0548
 9092W        W52108   1.191   5.491  23.076  0.1912  0.3473 -0.1465
 9093W        W52109  19.917  34.057  20.445 -0.2238 -0.0843 -0.2453
 9094W        W52110   3.019   7.948   6.668  0.1902  0.3070  0.0293
 9095W        W52111  30.926  27.707  21.348  0.2242  0.0236  0.0955
 9096W        W52112  26.242  31.246  21.671  0.3436 -0.1399 -0.0897
 9097W        W52113  26.839  27.304  17.049 -0.0484 -0.1239 -0.2430
 9098W        W52114  16.280  20.512  22.275  0.0456  0.1087 -0.2372
 9099W        W52115  10.111  28.251  22.672  0.2066 -0.1340  0.0012
 9100W        W52116  18.278  27.711  20.549 -0.0868 -0.1652  0.0363
 9101W        W52117  21.114  29.693  23.318 -0.0445 -0.2990 -0.0310
 9102W        W52118  24.157   7.317  17.525 -0.1295 -0.0545 -0.1283
 9103W        W52119  14.293  29.229  28.495  0.3782 -0.1336 -0.2628
 9104W        W52120  11.337  25.588  22.079 -0.1997  0.1800 -0.3702
 9105W        W52121   6.520  14.648  13.772  0.0963  0.2870 -0.3447
 9106W        W52122  15.943  32.591  21.728  0.0014  0.1296 -0.0589
 9107W        W52123  21.456  11.093  24.030 -0.1568 -0.0432 -0.0036
 9108W        W52124  25.122  30.298  15.595  0.0791  0.2350 -0.0064
 9109W        W52125  21.002  20.994  16.142 -0.2590  0.2696 -0.1128
 9110W        W52126  20.957  26.115   7.811 -0.1229 -0.0862  0.3032
 9111W        W52127  27.833  17.694  16.013 -0.2739  0.2861  0.2361
 9112W        W52128  27.499  28.213   4.818 -0.1379  0.3333 -0.0515
 9113W        W52129  11.885   1.814  21.111  0.1412 -0.0673 -0.2944
 9114W        W52130  21.805  25.779  25.641 -0.1085  0.0492  0.1013
 9115W        W52131  15.176  21.849  20.545  0.2195  0.0113 -0.2657
 9116W        W52132  24.738  19.165  23.621 -0.3574  0.2801  0.0001
 9117W        W52133  28.673   1.785   0.271 -0.2179  0.0978  0.0078
 9118W        W52134  31.103  25.688  20.755  0.0284 -0.3185 -0.1842
 9119W        W52135  21.408  26.323   4.960 -0.0094  0.3603  0.3187
 9120W        W52136  25.287   7.643  20.111 -0.0234 -0.1224  0.0411
 9121W        W52137  31.834  27.546  15.365  0.1612 -0.2025 -0.2621
 9122W        W52138   0.191  22.002  23.752  0.1418  0.0493  0.2152
 9123W        W52139  22.531  34.685  18.420  0.0071 -0.1175  0.0835
 9124W        W52140  18.902  24.531  16.964  0.0660 -0.1543  0.1045
 9125W        W52141  25.585  27.157   2.966 -0.0709 -0.1803  0.0139
 9126W        W52142  30.505  20.974  19.611 -0.1277  0.2498 -0.0226
 9127W        W52143   3.569   7.869   0.331  0.0354 -0.0767  0.0801
 9128W        W52144  23.880   8.615  24.613  0.0810  0.2288  0.1780
 9129W        W52145  20.703   1.146   1.252 -0.0010 -0.2260 -0.1255
 9130W        W52146  33.379  17.119  28.622 -0.0810 -0.5176 -0.3369
 9131W        W52147  23.012   2.239  24.371  0.1208 -0.0498  0.0136
 9132W        W52148  20.160  10.901  16.810  0.1022  0.2028 -0.0054
 9133W        W52149   1.970  11.365  25.957  0.0964 -0.0950 -0.0039
 9134W        W52150  26.398  25.144  20.440 -0.1191  0.2195  0.0739
 9135W        W52151   5.497  25.992   0.657  0.1017 -0.3852 -0.1878
 9136W        W52152  34.767  16.546  23.129  0.1826 -0.0207  0.1639
 9137W        W52153  28.463  11.042   7.899  0.1045 -0.1654  0.3144
 9138W        W52154  22.124   0.740  20.263 -0.3407 -0.2906 -0.0379
 9139W        W52155  11.428  17.900  13.761 -0.2945 -0.0864 -0.0220
 9140W        W52156  30.346  15.660  15.977 -0.2770  0.2755 -0.2392
 9141W        W52157   4.891  23.033  18.197  0.0255 -0.3938  0.1747
 9142W        W52158  16.992  25.993  18.486  0.0052  0.0955  0.1646
 9143W        W52159  22.893   2.284  18.660  0.0573 -0.2019  0.2104
 9144W        W52160  15.906  30.529  17.990 -0.3049 -0.0243  0.1723
 9145W        W52161  24.084  31.959  27.603 -0.2365  0.0025  0.1402
 9146W        W52162   3.248   0.403   0.339 -0.4163 -0.3288  0.1056
 9147W        W52163  22.047  11.230  18.711  0.3152 -0.1596  0.1498
 9148W        W52164  14.554  26.592  16.483  0.1679 -0.0577 -0.0923
 9149W        W52165  34.617  32.072  23.464  0.3744  0.1812  0.1316
 9150W        W52166  15.541   3.075  23.287 -0.1145  0.2379  0.0908
 9151W        W52167  28.754  31.815  25.809 -0.2299  0.5162 -0.5426
 9152W        W52168  19.847  27.538  20.425 -0.2656 -0.0384 -0.1380
 9153W        W52169   0.915  21.516  25.020  0.2012  0.1608 -0.1010
 9154W        W52170  22.945  34.330   1.035 -0.0113  0.0992  0.1443
 9155W        W52171   8.090   0.624  22.511 -0.1412  0.0371 -0.1756
 9156W        W52172   2.466  27.180  17.197 -0.1423 -0.3189 -0.0340
 9157W        W52173  19.182  25.797  18.052 -0.1442  0.2628  0.0197
 9158W        W52174  21.692  27.579  14.935 -0.3898  0.2558  0.1376
 9159W        W52175   1.063  10.871  27.550  0.0114 -0.0104 -0.3175
 9160W        W52176  19.480  33.865  20.540 -0.1003  0.1650 -0.1890
 9161W        W52177  18.489  21.584  21.511  0.0208 -0.1092 -0.1098
 9162W        W52178  30.104  12.540  17.780 -0.2546 -0.0987  0.0328
 9163W        W52179   6.816  32.610   1.660  0.1897  0.0657 -0.1826
 9164W        W52180   1.479  15.940   0.446  0.0621 -0.1020  0.0123
 9165W        W52181  11.880  23.658  19.773 -0.0769 -0.7244 -0.2045
 9166W        W52182  17.284  22.988  18.980 -0.0208  0.3071  0.2667
 9167W        W52183  26.347  27.544   4.823 -0.2424 -0.0923  0.1838
 9168W        W52184  34.472  17.633  17.091  0.1476  0.1558  0.1650
 9169W        W52185  12.460  21.666  20.715 -0.1225 -0.0148 -0.1765
 9170W        W52186  22.816   6.491  27.805 -0.2494  0.0514  0.0090
 9171W        W52187   2.149  27.621  22.192  0.2942  0.0375 -0.2274
 9172W        W52188  23.516  22.816  23.881 -0.2408 -0.3148 -0.0061
 9173W        W52189  22.301  27.793   3.727  0.0558  0.1924  0.1421
 9174W        W52190  17.793  27.574  28.201 -0.1227  0.2012 -0.3559
 9175W        W52191  13.082  28.474  14.148  0.1801  0.1604 -0.1742
 9176W        W52192  30.520   0.415  19.005 -0.1947 -0.0849 -0.4435
 9177W        W52193  27.186  22.100   2.647 -0.3483  0.3521 -0.4310
 9178W        W52194  29.782  29.231  26.710 -0.0763  0.1145  0.3067
 9179W        W52195   5.359  30.221  27.118  0.0673 -0.1550 -0.1498
 9180W        W52196   6.400  29.227  23.758  0.1300 -0.1308 -0.1561
 9181W        W52197  28.172  25.485  26.257 -0.1866 -0.2309  0.0534
 9182W        W52198  27.647  21.932  16.339 -0.0006 -0.2499 -0.0192
 9183W        W52199  18.675  25.026  23.372 -0.2922 -0.0447  0.0991
 9184W        W52200  27.665  23.953  16.622 -0.1081  0.0598 -0.0841
 9185W        W52201  21.478  34.086  21.445 -0.5530 -0.1984  0.1118
 9186W        W52202   2.641  34.742  17.250 -0.1229  0.0100 -0.0115
 9187W        W52203  29.832   1.947  24.201 -0.3299  0.2628 -0.1839
 9188W        W52204  15.573  30.018   1.074 -0.2340  0.1068  0.0863
 9189W        W52205  32.050   8.037   3.614  0.1221 -0.1636  0.3300
 9190W        W52206  10.947  23.828   8.282 -0.0593 -0.1342  0.0289
 9191W        W52207  24.096  23.706  26.844  0.1355  0.5353 -0.0555
 9192W        W52208   3.303  12.520   0.100 -0.2558  0.0511  0.1765
 9193W        W52209  17.581   0.727  15.407 -0.1208  0.1458  0.1574
 9194W        W52210  31.143  29.285  28.916 -0.0662 -0.0862 -0.0693
 9195W        W52211   0.468  24.584  25.102 -0.0475 -0.1365 -0.0716
 9196W        W52212  31.601  23.673  21.588  0.0315 -0.0076 -0.2009
 9197W        W52213  21.469  26.154   1.782  0.1332 -0.2020 -0.0267
 9198W        W52214  29.008  11.552   6.147 -0.0591  0.2945  0.0585
 9199W        W52215   6.066  28.233  28.553  0.0287 -0.1195  0.3549
 9200W        W52216  28.852  17.519  13.713  0.2427 -0.1202  0.2495
 9201W        W52217  10.955  14.692  18.261  0.1726 -0.1347 -0.2042
 9202W        W52218  32.513  33.156  18.159  0.0522 -0.0336 -0.0603
 9203W        W52219  13.886  33.139  22.842  0.0904  0.1178 -0.3293
 9204W        W52220  25.381  24.669   7.034  0.0941  0.3475 -0.2646
 9205W        W52221  23.450  24.631   1.641 -0.0127 -0.1989  0.1901
 9206W        W52222  14.286  33.028  20.929  0.1437  0.0060  0.2202
 9207W        W52223   0.364  13.291  10.621  0.1133  0.2122 -0.3498
 9208W        W52224  20.702  21.812  28.105 -0.1619 -0.0999  0.2209
 9209W        W52225  18.291  21.550   0.859 -0.1060 -0.1447 -0.1198
 9210W        W52226  13.610  32.266  28.564  0.2006  0.0464 -0.0181
 9211W        W52227   9.481  31.997  20.311 -0.0300  0.0008 -0.1554
 9212W        W52228  24.680  34.110  16.162 -0.2615  0.1334 -0.0813
 9213W        W52229  27.667   7.051  19.154 -0.2102  0.0401 -0.2108
 9214W        W52230  23.412  20.389  14.593 -0.1137 -0.0354 -0.0976
 9215W        W52231  11.633  22.584  24.279 -0.1919  0.0412  0.1716
 9216W        W52232   4.014   1.467  28.917 -0.3514  0.0858 -0.0615
 9217W        W52233  22.810  15.387  28.863 -0.1978  0.0011  0.0371
 9218W        W52234  28.190   8.400  20.401 -0.3001 -0.2138  0.0463
 9219W        W52235  28.349  27.823  23.195 -0.3854  0.0495 -0.0781
 9220W        W52236  29.358  27.895  21.772 -0.2918  0.1153 -0.0294
 9221W        W52237  32.349   7.398  24.686  0.1414  0.3467 -0.2902
 9222W        W52238  24.022  18.045  17.468 -0.0948 -0.0578  0.0867
 9223W        W52239  10.686  30.571  22.998  0.0855 -0.3198 -0.0415
 9224W        W52240  30.013  19.216   1.153  0.0029 -0.0961  0.1019
 9225W        W52241  10.876  34.281  20.169  0.2211  0.3474  0.1235
 9226W        W52242  33.247  31.139  28.956 -0.1668  0.0518  0.0612
 9227W        W52243  21.184  13.014  16.192 -0.2282  0.0405 -0.1353
 9228W        W52244  10.654  11.950  21.127 -0.2656  0.0068  0.0034
 9229W        W52245  24.676  13.879  13.360 -0.2072 -0.0050 -0.1243
 9230W        W52246   1.524  24.903  20.790 -0.2191 -0.2679  0.2520
 9231W        W52247  25.021  30.910  24.753 -0.1124 -0.1662 -0.1468
 9232W        W52248  28.721  19.949   1.133 -0.0806 -0.0414  0.2554
 9233W        W52249  14.009  30.737  24.853 -0.1689 -0.3212  0.0954
 9234W        W52250  20.260   1.641  24.900  0.2816 -0.0887 -0.4020
 9235W        W52251  25.344  19.300  15.477 -0.0926  0.1892  0.0873
 9236W        W52252   2.686  24.974  28.431 -0.1794  0.0053 -0.0303
 9237W        W52253  19.337  12.453  20.372  0.1900 -0.0421  0.0764
 9238W        W52254  31.764  17.439  17.753  0.0921  0.0799  0.1440
 9239W        W52255   3.682  29.951   0.222 -0.0844 -0.1776 -0.2180
 9240W        W52256  23.279  29.758  27.498  0.1901 -0.1237 -0.0882
 9241W        W52257  12.021  33.029   5.938 -0.0165 -0.3022 -0.0790
 9242W        W52258  14.227  28.420  24.062 -0.1896  0.1586  0.3223
 9243W        W52259  23.585   1.624   7.733  0.0223 -0.1815 -0.1960
 9244W        W52260   9.813  20.672  16.517  0.2252 -0.1142  0.0167
 9245W        W52261   2.437  31.064   4.361 -0.0485 -0.0327 -0.3715
 9246W        W52262   3.849  18.492   6.015  0.1613  0.0704  0.0952
 9247W        W52263  20.060  30.610  24.626  0.1304  0.1024 -0.0048
 9248W        W52264  34.361  11.232  17.560 -0.0226  0.1177  0.1280
 9249W        W52265  34.338  19.696   1.887  0.0119  0.0915 -0.4820
 9250W        W52266  28.068  25.355  25.770 -0.2407  0.3101  0.0850
 9251W        W52267  30.882  31.991  25.729  0.2095  0.1205 -0.3521
 9252W        W52268  31.045  26.291  17.097  0.0270 -0.0169  0.0245
 9253W        W52269  17.501  22.707  21.009 -0.1764 -0.0577 -0.0572
 9254W        W52270  24.026  25.747  22.598  0.0421 -0.0193 -0.1233
 9255W        W52271  18.898   8.650  21.708  0.0722 -0.3186  0.0029
 9256W        W52272   3.123  29.643  25.303 -0.0224 -0.0713 -0.3195
 9257W        W52273  11.065  21.736  22.974 -0.1318 -0.2274 -0.0908
 9258W        W52274  27.043  16.316   0.926  0.2974  0.1046  0.1222
 9259W        W52275  28.027  19.356  16.231  0.2649  0.1411  0.0253
 9260W        W52276  28.461  31.666   5.637 -0.2014 -0.2963  0.0462
 9261W        W52277   1.693  20.478  24.790 -0.1577  0.0367 -0.1885
 9262W        W52278  24.924  11.323  18.171 -0.1736  0.1334  0.2520
 9263W        W52279  14.991  22.929  13.584 -0.2696 -0.1021  0.0942
 9264W        W52280  34.499   2.601   1.299 -0.5221 -0.4194 -0.2400
 9265W        W52281  15.056  34.605   1.947  0.1856  0.1321  0.0110
 9266W        W52282   2.275   7.458  24.594 -0.0743 -0.1514 -0.1842
 9267W        W52283  24.153  19.907  28.830  0.0108 -0.1525  0.2905
 9268W        W52284  22.296   5.994  17.439  0.0933  0.0946 -0.4047
 9269W        W52285  21.846  31.514  27.756 -0.3815  0.1729 -0.2570
 9270W        W52286  15.430  21.968  15.298  0.2480 -0.0110 -0.1643
 9271W        W52287  31.076  17.394  21.459 -0.0119  0.2370  0.0053
 9272W        W52288  15.320  25.096   0.419  0.2592  0.0682  0.1002
 9273W        W52289   6.245  27.324   3.024 -0.1104 -0.1257 -0.2146
 9274W        W52290  27.748  27.339   2.714  0.1243  0.0377 -0.0034
 9275W        W52291  25.418  27.010  19.618  0.0258  0.3311 -0.1299
 9276W        W52292  18.893  24.505  26.346  0.0994 -0.0348  0.1631
 9277W        W52293  23.186  19.224  22.455  0.0470 -0.4030 -0.0579
 9278W        W52294   3.275  11.298  21.690 -0.0551 -0.1794 -0.0053
 9279W        W52295  18.385  21.415  17.623  0.2606 -0.1808 -0.0533
 9280W        W52296  18.455  32.510  15.917  0.0998  0.1828 -0.2552
 9281W        W52297  33.965  29.899  10.181  0.0818  0.0389 -0.0475
 9282W        W52298  26.252  24.525  28.746 -0.1397 -0.4175 -0.3418
 9283W        W52299  24.735  18.231  28.527 -0.1346  0.0896 -0.0427
 9284W        W52300   2.125  25.007   7.308 -0.1715 -0.0352  0.0485
 9285W        W52301  25.991  28.452  21.016  0.1190  0.1533  0.2009
 9286W        W52302   8.209   4.738  27.101  0.0846 -0.1402 -0.0437
 9287W        W52303  17.536  24.290   0.694  0.3955 -0.1460  0.0987
 9288W        W52304   3.248  28.409  25.245 -0.1155 -0.3717 -0.0079
 9289W        W52305  34.594  11.926   4.931 -0.1251 -0.0728 -0.0216
 9290W        W52306  15.673  30.529  21.245 -0.0851  0.2145 -0.1031
 9291W        W52307  30.317  25.474  17.208 -0.0923 -0.3340 -0.2519
 9292W        W52308  24.672  32.709  18.517 -0.0614  0.0591 -0.1476
 9293W        W52309  10.928  14.778  28.454 -0.2289 -0.2045 -0.1620
 9294W        W52310   6.676   8.241  22.398  0.2075  0.1783  0.3813
 9295W        W52311  11.356  33.469  20.233 -0.1365 -0.0325 -0.3149
 9296W        W52312  22.615  19.239  18.183 -0.0878 -0.0371  0.1984
 9297W        W52313  31.538  14.082  27.546 -0.1238 -0.2561  0.3397
 9298W        W52314  20.264  32.204  22.404  0.0624 -0.0601 -0.0247
 9299W        W52315  21.249  19.665   1.700  0.0107 -0.1359  0.1609
 9300W        W52316  26.651  13.730  27.724  0.0669  0.3298  0.0369
 9301W        W52317   5.994  25.292   0.804  0.0689  0.2292 -0.0778
 9302W        W52318  16.177  23.140  27.515  0.1355  0.0941  0.4183
 9303W        W52319  22.244   2.251  28.820 -0.4824  0.0947  0.0455
 9304W        W52320  13.523  25.798  15.532  0.2418 -0.1001 -0.2580
 9305W        W52321  21.908  14.303  18.839 -0.1583 -0.1669  0.0932
 9306W        W52322  28.708  19.152  20.400 -0.1411 -0.4680 -0.0465
 9307W        W52323  15.308  17.113  21.680  0.0486 -0.2345  0.0822
 9308W        W52324  20.603  16.481   1.322  0.1381 -0.1163  0.0176
 9309W        W52325  31.193  30.851  27.754  0.1367  0.0722 -0.1089
 9310W        W52326  17.355   9.627  19.594  0.1704  0.0627 -0.0749
 9311W        W52327  23.161  29.232  27.709  0.2487  0.0564 -0.0714
 9312W        W52328  22.625  12.358  26.119  0.2653  0.0138  0.1438
 9313W        W52329   1.159  31.902  26.695  0.0379 -0.1808  0.1006
 9314W        W52330   7.464  14.108   1.202 -0.3268  0.0102 -0.2079
 9315W        W52331  20.602   3.265  14.897  0.1781 -0.1865 -0.2019
 9316W        W52332  10.450   8.196   5.680 -0.0002 -0.1767 -0.1261
 9317W        W52333   5.037  17.322  19.192  0.1131  0.1633  0.1266
 9318W        W52334   7.970  27.132  26.571  0.1666 -0.2265 -0.0884
 9319W        W52335  21.294   2.980  17.232 -0.2833 -0.0827 -0.2301
 9320W        W52336  23.603  31.466  23.501  0.2868 -0.2646 -0.0429
 9321W        W52337  20.321  21.307  27.294 -0.3644 -0.2088  0.4077
 9322W        W52338  21.181  17.507  24.067  0.1028  0.0111  0.1585
 9323W        W52339  22.736  13.258  14.036  0.0793 -0.1331  0.1627
 9324W        W52340   2.598  29.978  29.072  0.0851  0.3048 -0.0890
 9325W        W52341   0.485  22.297  24.362 -0.2258  0.0550  0.0977
 9326W        W52342  10.557  33.496  22.472  0.0658  0.0600  0.3945
 9327W        W52343  24.169  18.289   1.406 -0.0604 -0.0507 -0.1491
 9328W        W52344  32.799  22.716  26.809 -0.3052 -0.2754 -0.0401
 9329W        W52345  10.547   3.937  28.000  0.0795 -0.1287 -0.0714
 9330W        W52346  19.519  28.313  20.949  0.0575  0.1521 -0.0372
 9331W        W52347  24.474  22.665  18.014 -0.1128 -0.0389 -0.0058
 9332W        W52348  19.310  32.092  19.859 -0.1697  0.0057  0.2800
 9333W        W52349  19.928  22.119  14.904 -0.1147 -0.2569  0.1618
 9334W        W52350  24.851   8.307  24.928  0.1311  0.1794  0.0767
 9335W        W52351  25.200  21.543   6.087  0.1234  0.0811  0.0859
 9336W        W52352   1.933  18.303   8.582 -0.5154  0.3293 -0.2478
 9337W        W52353  26.163   7.155   2.726 -0.0554 -0.0215 -0.3160
 9338W        W52354  28.526  14.679  20.862 -0.0207 -0.3011  0.0137
 9339W        W52355   5.226  27.433  23.010 -0.0655 -0.0138 -0.2528
 9340W        W52356   9.440  26.185  27.046  0.1347 -0.3745  0.0058
 9341W        W52357  19.953   7.202  18.859 -0.2335  0.1188  0.1863
 9342W        W52358   6.124   1.699   4.979  0.2394  0.3398 -0.2663
 9343W        W52359  11.194  28.795   7.167  0.1648 -0.4037 -0.1336
 9344W        W52360  22.984  20.396  16.184 -0.1169 -0.1936 -0.2183
 9345W        W52361  25.071  26.587  21.698 -0.1663 -0.0789  0.1773
 9346W        W52362  26.454  10.820   2.188 -0.0033  0.2464  0.1399
 9347W        W52363  14.480   5.261   4.341 -0.0003 -0.0618 -0.1510
 9348W        W52364  32.381  21.142  28.666 -0.2623 -0.0311 -0.0436
 9349W        W52365  33.494   8.667   7.433 -0.0230  0.2167 -0.2357
 9350W        W52366  32.394  27.956  23.441 -0.0703 -0.0760 -0.2653
 9351W        W52367  27.854  21.506   9.412  0.0700 -0.1152 -0.1345
 9352W        W52368  21.650  20.599  23.644 -0.0369 -0.2547 -0.3133
 9353W        W52369   2.298  24.235  20.258 -0.2485 -0.0963 -0.3163
 9354W        W52370  18.606  19.565  21.541 -0.4310 -0.2073  0.3627
 9355W        W52371  24.999  25.865  29.072 -0.2277  0.1750 -0.4638
 9356W        W52372  17.464  31.653   8.617 -0.2316  0.1181 -0.0197
 9357W        W52373   8.650  21.937  20.989 -0.2147 -0.0959  0.1665
 9358W        W52374  27.323  32.888  15.950 -0.0466 -0.1051  0.1555
 9359W        W52375   7.777  25.982   7.158  0.1102 -0.1882 -0.2582
 9360W        W52376  34.130   1.648   6.838  0.0141 -0.1825  0.0896
 9361W        W52377   1.378  28.661   5.994 -0.0808  0.2881 -0.1221
 9362W        W52378  10.133  24.837  14.670  0.3662 -0.0690 -0.0858
 9363W        W52379   9.188  27.484   0.034 -0.0854  0.1700 -0.1071
 9364W        W52380  19.633  19.649   6.602  0.0883 -0.2689  0.0821
 9365W        W52381  19.525   1.860   1.286 -0.1055  0.1226  0.0496
 9366W        W52382  12.613  13.831  15.378 -0.0541  0.1873 -0.0530
 9367W        W52383  22.129  29.817  27.402 -0.0354 -0.3528  0.0957
 9368W        W52384  21.836  25.365  27.031 -0.0623 -0.6552 -0.4806
 9369W        W52385  14.273   6.983   6.581 -0.0132 -0.0598 -0.2738
 9370W        W52386  19.121  20.311  28.230  0.1684  0.6551  0.3369
 9371W        W52387  18.148   8.991  13.294  0.1199 -0.0357 -0.1766
 9372W        W52388  26.931  29.893  17.926  0.0623  0.1965  0.1477
 9373W        W52389  28.082   9.255   3.448 -0.1414 -0.1979  0.0933
 9374W        W52390  21.285  19.106  20.079  0.0823 -0.2002  0.1675
 9375W        W52391  10.971  25.652   2.501 -0.0494 -0.2819  0.1985
 9376W        W52392  33.579  27.504  25.321 -0.0162 -0.2073  0.1644
 9377W        W52393  25.852  30.315   1.055 -0.1496  0.0515  0.1972
 9378W        W52394  33.901  15.252   3.527  0.2375  0.0138 -0.1657
 9379W        W52395  34.025  31.863  14.527 -0.0138 -0.0023  0.0944
 9380W        W52396   3.876  16.664   4.095  0.1475 -0.1809 -0.0021
 9381W        W52397  26.968  12.237  24.774 -0.3343  0.0183 -0.0116
 9382W        W52398  15.781   6.141  24.183  0.0218 -0.2184  0.3053
 9383W        W52399  13.353  32.591  27.227  0.2075 -0.0601 -0.0319
 9384W        W52400  31.170  17.159  23.749  0.1314  0.0320  0.3112
 9385W        W52401   6.557  24.885  17.334 -0.0218 -0.0469 -0.0543
 9386W        W52402   5.934  15.607  17.308 -0.0735  0.1442 -0.0876
 9387W        W52403  19.620  20.317  21.861  0.2511 -0.0714 -0.2868
 9388W        W52404  31.225  24.800   5.849 -0.1199  0.2741  0.0095
 9389W        W52405  23.570  22.768   9.416  0.1008 -0.0957 -0.3925
 9390W        W52406  28.552  24.229  18.276 -0.0141  0.0313 -0.1489
 9391W        W52407  21.328  30.431  20.250  0.0639 -0.4304 -0.2494
 9392W        W52408  25.957   3.239  26.770  0.0647 -0.1592  0.2121
 9393W        W52409  26.270  29.716  28.938 -0.0881  0.2260  0.2307
 9394W        W52410  22.786  28.784   6.790  0.2779  0.3163 -0.1089
 9395W        W52411  27.052   2.878   7.890  0.1138 -0.1708 -0.0744
 9396W        W52412   9.245  20.638   0.715 -0.1930  0.3946 -0.0368
 9397W        W52413  29.198  34.452  25.448 -0.2355  0.3832 -0.2995
 9398W        W52414   8.136  30.584   3.740 -0.3186 -0.0199 -0.2586
 9399W        W52415  31.738  11.534   9.193 -0.1354 -0.1416 -0.1152
 9400W        W52416  19.767  10.887  15.933  0.3597  0.1421 -0.1508
 9401W        W52417  20.335  23.924  17.194 -0.1808  0.0284  0.0374
 9402W        W52418  25.401  28.369  19.125  0.2873  0.0645 -0.1744
 9403W        W52419  17.880   2.775  16.920 -0.0631  0.1121  0.1487
 9404W        W52420   9.577  29.970   8.021  0.2005 -0.0553 -0.0884
 9405W        W52421  27.955   9.700  15.751  0.0150  0.1607 -0.0920
 9406W        W52422  27.278  25.695  18.801  0.0343 -0.3436 -0.4156
 9407W        W52423  27.302  11.632  17.346 -0.0138 -0.0165 -0.2628
 9408W        W52424  25.634  26.905  16.808 -0.3020  0.0222 -0.0660
 9409W        W52425  25.035  21.906  14.566 -0.0220  0.2416  0.0535
 9410W        W52426   3.747  21.313  21.923  0.0282 -0.2847  0.0126
 9411W        W52427   8.081  23.979  21.106  0.0070  0.5190  0.2451
 9412W        W52428  17.845  33.259  17.239  0.0402  0.0131  0.1189
 9413W        W52429   9.968   3.133   4.831 -0.0655  0.1882  0.1471
 9414W        W52430  20.044  15.158  26.898 -0.0660  0.1568 -0.1931
 9415W        W52431  24.212  34.229   7.196 -0.1571 -0.2684 -0.3219
 9416W        W52432  28.885  30.144  16.339 -0.2901  0.2543 -0.4510
 9417W        W52433  28.376  26.237  22.727  0.0821  0.1767  0.0174
 9418W        W52434  34.279  27.520  27.408  0.0456  0.0267 -0.0505
 9419W        W52435  18.947  18.921   2.958 -0.0021 -0.2169 -0.0826
 9420W        W52436  23.754  30.461  21.659  0.1410 -0.1141  0.1890
 9421W        W52437  26.780  18.863  16.464  0.1552  0.0386  0.1767
 9422W        W52438  28.951  31.088  19.875 -0.0550 -0.0520 -0.2391
 9423W        W52439  33.472  27.628  10.133 -0.3226 -0.3354 -0.1673
 9424W        W52440  20.487  28.938   0.979 -0.2829 -0.2877  0.2906
 9425W        W52441  27.142  26.506  16.882  0.0680  0.2412  0.0667
 9426W        W52442   4.899  19.807  23.426 -0.0338 -0.2141  0.1355
 9427W        W52443  25.874  13.738  21.136  0.0205  0.2444 -0.1321
 9428W        W52444  17.396  22.950   2.507 -0.3575 -0.0557  0.1981
 9429W        W52445  23.716   9.995  19.656  0.1702  0.2437 -0.1085
 9430W        W52446  21.619  21.349   0.095  0.1548  0.0888  0.1813
 9431W        W52447  25.488  16.501   3.872 -0.0733  0.0910 -0.0041
 9432W        W52448  28.530  33.590   7.970  0.1787  0.2331  0.0319
 9433W        W52449  30.203  18.160  18.735 -0.1200 -0.1507  0.1396
 9434W        W52450  27.688  27.994   5.303 -0.0780 -0.1309  0.1114
 9435W        W52451  26.440  20.375   7.699  0.1561 -0.4570  0.0011
 9436W        W52452  22.926   2.345  15.893  0.3058  0.2550  0.0558
 9437W        W52453  27.180  24.334  16.569  0.0978 -0.0114  0.5136
 9438W        W52454  18.787  17.801  16.213 -0.0777  0.3447  0.2875
 9439W        W52455  17.799  30.617  15.616  0.0717 -0.0430 -0.1099
 9440W        W52456  29.680  31.879  21.011  0.1628 -0.0334 -0.3605
 9441W        W52457  34.161  19.904  14.789 -0.1318  0.1419 -0.1962
 9442W        W52458  16.776  23.118  24.657  0.2335 -0.1421 -0.0401
 9443W        W52459  27.233   4.326  19.460  0.0561  0.0917  0.1310
 9444W        W52460  31.123  25.183   6.134 -0.2313  0.1318  0.4245
 9445W        W52461  26.774  30.439  11.311 -0.1844  0.1631  0.0598
 9446W        W52462   8.476  28.293  23.047  0.1252  0.1281  0.2324
 9447W        W52463  22.599  29.218  15.756  0.1830 -0.1067 -0.2404
 9448W        W52464  20.289  29.863  15.592 -0.0716  0.0845  0.0031
 9449W        W52465  25.690  27.201  26.453  0.0559 -0.0367  0.1295
 9450W        W52466  13.302   2.435  24.954 -0.0935 -0.0756  0.3321
 9451W        W52467  28.212   0.021   8.757  0.0107 -0.2320  0.1242
 9452W        W52468   4.303  13.418   3.094 -0.1952 -0.2165  0.0484
 9453W        W52469  17.233  28.204  25.297 -0.2830 -0.1553 -0.1959
 9454W        W52470  33.749  32.725  15.749  0.3275  0.1890 -0.0262
 9455W        W52471  28.123  20.869  24.626 -0.1204  0.3699  0.4505
 9456W        W52472  28.801   1.436  29.165 -0.1673  0.1810  0.1775
 9457W        W52473   2.117   9.070   2.659 -0.1241  0.0065  0.1082
 9458W        W52474   7.624   1.706  27.155  0.1400  0.1832  0.1504
 9459W        W52475  14.596  14.400   6.147 -0.0053 -0.1328 -0.0670
 9460W        W52476  25.353  27.000  15.524  0.2272  0.3478 -0.1256
 9461W        W52477  24.844  12.242   6.120  0.1971 -0.0689 -0.1347
 9462W        W52478  30.293   7.082  27.411 -0.0510 -0.0966  0.1094
 9463W        W52479  20.549   0.729  18.376 -0.4815  0.2217  0.1918
 9464W        W52480  17.810  24.455  20.109 -0.0674 -0.0505 -0.5264
 9465W        W52481  15.808  24.496  17.278 -0.0252  0.1972 -0.0726
 9466W        W52482   8.293   8.975  20.360 -0.1355  0.3850 -0.0068
 9467W        W52483  15.682  19.940  22.877 -0.4433  0.0810 -0.3240
 9468W        W52484  17.401   8.443  16.940 -0.0759  0.4937 -0.1915
 9469W        W52485  22.451   6.749  23.126  0.3656  0.1282  0.1263
 9470W        W52486  27.312  27.880   1.544  0.0587 -0.2185 -0.3375
 9471W        W52487  23.455  29.472  15.593 -0.2260 -0.2815 -0.1574
 9472W        W52488  17.398  28.635  10.417  0.0984 -0.0884 -0.2964
 9473W        W52489  21.833   1.769  24.097  0.2951  0.1270 -0.3379
 9474W        W52490  34.170  16.074  19.646 -0.0072 -0.0844 -0.2337
 9475W        W52491  27.473  25.984  17.482 -0.0496 -0.4088 -0.1170
 9476W        W52492  14.593  20.929  12.847  0.1403 -0.0259 -0.0636
 9477W        W52493  27.196  27.916  20.594  0.0856  0.2374 -0.1675
 9478W        W52494  34.091  23.303  19.107  0.1980 -0.0588  0.1791
 9479W        W52495  26.690  13.162  25.473  0.0621  0.2013  0.0000
 9480W        W52496  29.285  21.486   3.296  0.1651 -0.1231 -0.2547
 9481W        W52497  33.772  21.405  14.702 -0.3207  0.2631  0.0754
 9482W        W52498   6.640  16.901  16.476  0.0837 -0.0560 -0.0174
 9483W        W52499  20.578  25.102  26.503  0.0792 -0.0673  0.4498
 9484W        W52500  26.982  23.519  21.092 -0.0543 -0.5335  0.0815
 9485W        W52501   0.523  20.658   5.714 -0.0498  0.1431  0.2399
 9486W        W52502  18.578   6.981  22.717  0.2283  0.0728  0.0991
 9487W        W52503  22.134  32.210  17.930  0.0594  0.0665  0.0993
 9488W        W52504  17.212  26.473  26.290  0.1858 -0.2463 -0.4777
 9489W        W52505  32.792  30.002  19.132  0.2452  0.2236 -0.2396
 9490W        W52506  22.578  26.327  28.244  0.2124  0.0602  0.0917
 9491W        W52507  17.688  31.235   1.884  0.1628  0.0056  0.0432
 9492W        W52508  21.599  16.317  26.712  0.1392  0.4435  0.0648
 9493W        W52509  28.418  20.665  15.858  0.0421 -0.1169  0.2122
 9494W        W52510   6.677   4.969   5.495 -0.0023 -0.0715  0.1686
 9495W        W52511   1.659  24.943   3.613  0.0688  0.1496 -0.1934
 9496W        W52512   0.378  33.281   1.359  0.1984 -0.0117  0.0882
 9497W        W52513  16.071  24.466  24.118  0.2626 -0.1946  0.2346
 9498W        W52514  13.747  23.104  21.993 -0.1755  0.0964 -0.1300
 9499W        W52515  21.636  12.262  21.242  0.2328 -0.2604  0.0799
 9500W        W52516  26.267  24.144   9.095 -0.1310 -0.0647 -0.1665
 9501W        W52517  34.560   2.850  27.728 -0.0262 -0.1738  0.0903
 9502W        W52518   2.159   9.682   1.821 -0.6142  0.0787 -0.1322
 9503W        W52519   8.431   1.965  26.407 -0.1956  0.2339  0.1678
 9504W        W52520  12.838  18.798  16.427  0.2229  0.2187 -0.2563
 9505W        W52521  17.448  15.033  23.095  0.0778  0.1701  0.1956
 9506W        W52522  20.017  26.822   2.558  0.2395  0.0855  0.0522
 9507W        W52523   3.298  17.010  22.492 -0.1325 -0.0895  0.0192
 9508W        W52524  20.167  28.682  25.901 -0.2666  0.3137  0.2245
 9509W        W52525  16.348  10.882  22.649 -0.0433  0.0527  0.0974
 9510W        W52526  23.836  20.901  15.657 -0.0268 -0.1760 -0.3525
 9511W        W52527  11.822  27.090  12.906  0.0299  0.2079  0.1278
 9512W        W52528  19.081  20.250   0.330  0.2501  0.2287  0.1904
 9513W        W52529   1.225  28.364  26.215 -0.5172 -0.2353  0.1782
 9514W        W52530  24.040  22.837  23.767  0.2840 -0.1234 -0.2604
 9515W        W52531  27.672   8.479  21.279 -0.1713 -0.0471 -0.0524
 9516W        W52532  21.210  23.988  24.667  0.0939 -0.1816 -0.2004
 9517W        W52533  17.956  23.368  21.092  0.0796  0.0993 -0.0150
 9518W        W52534  26.564  27.231   5.489 -0.3232 -0.0626 -0.0217
 9519W        W52535  17.504  22.544   2.314 -0.0812  0.3531 -0.0760
 9520W        W52536  32.499  25.089   8.582  0.1214  0.2755  0.0151
 9521W        W52537  32.145  28.772   5.529  0.0109 -0.0292 -0.0555
 9522W        W52538  17.181   7.688   4.849 -0.0575 -0.0458  0.0544
 9523W        W52539  26.202  25.325  19.238  0.0122 -0.1147 -0.0065
 9524W        W52540  31.715  18.487   9.843 -0.0258  0.3164  0.0413
 9525W        W52541   1.044  19.256   2.049 -0.3594 -0.5230 -0.0419
 9526W        W52542  31.085  27.881  28.084 -0.2637 -0.1594  0.0733
 9527W        W52543  32.911  31.872  19.129  0.2269  0.0611 -0.2704
 9528W        W52544  18.719  24.408   9.700  0.1274 -0.3659 -0.1416
 9529W        W52545  28.948   4.046   8.116 -0.0764 -0.4929  0.1542
 9530W        W52546   6.574  26.152   2.358  0.2779  0.1489 -0.3362
 9531W        W52547  11.927  26.659  27.045  0.0106  0.0156 -0.2460
 9532W        W52548  14.473  12.457   3.512  0.0089 -0.1861 -0.1101
 9533W        W52549  29.242  17.595  16.460 -0.2308  0.3034  0.0111
 9534W        W52550  17.213  27.357   3.564 -0.0405  0.2135 -0.3427
 9535W        W52551  20.356  24.473  13.718  0.0287 -0.1431  0.2264
 9536W        W52552  22.196  26.911  23.076  0.1962  0.2052  0.3931
 9537W        W52553  19.532  24.252  22.318 -0.0905  0.2000  0.0127
 9538W        W52554  26.277  19.156   0.907  0.2095  0.0003 -0.0371
 9539W        W52555  23.956  17.608  14.571  0.0412 -0.3117  0.1902
 9540W        W52556  31.009  16.734  23.618 -0.0420  0.1177  0.0902
 9541W        W52557   0.883  21.621   2.251  0.1179  0.0217 -0.0937
 9542W        W52558  29.673   1.346  23.605 -0.0465 -0.2338  0.0671
 9543W        W52559  22.954  28.548  20.889 -0.0958  0.3818 -0.0035
 9544W        W52560  14.533  22.800  14.475  0.3028  0.0933  0.1394
 9545W        W52561   8.131  19.093  23.616 -0.1610  0.0293 -0.0554
 9546W        W52562  25.953  22.870  27.888 -0.3646  0.0605 -0.1344
 9547W        W52563   9.255  21.188  23.798  0.0670 -0.0472 -0.0325
 9548W        W52564  26.333  28.580  17.960 -0.1788 -0.0549 -0.0161
 9549W        W52565  21.805  28.162  18.804  0.2054  0.0641  0.1644
 9550W        W52566  11.849  24.179  19.811  0.2061  0.2522  0.0897
 9551W        W52567  22.627  25.717  15.463  0.0971  0.0259 -0.0935
 9552W        W52568  33.591  30.962  10.763 -0.0318 -0.0377  0.1140
 9553W        W52569  24.096  19.584  24.527 -0.0050 -0.0293  0.1092
 9554W        W52570  13.176  14.001   4.820  0.3404  0.0272 -0.1051
 9555W        W52571  21.683  30.847  18.322 -0.1509 -0.1102  0.0521
 9556W        W52572  26.904   7.277  19.327 -0.0199 -0.1764  0.3711
 9557W        W52573  14.158  33.404  28.723  0.0935 -0.0781 -0.1114
 9558W        W52574  11.596   0.802  15.791  0.1628 -0.0137  0.2147
 9559W        W52575  19.825  27.288  28.293 -0.0730  0.0151 -0.1477
 9560W        W52576  20.900  27.600  26.698 -0.0841  0.0074 -0.3471
 9561W        W52577  30.583  25.443  10.889  0.4868 -0.0687 -0.2441
 9562W        W52578  26.477  12.777   0.380  0.1792  0.1776  0.0581
 9563W        W52579  19.452  11.440  14.985  0.0919 -0.0025  0.2206
 9564W        W52580  30.380  13.946  20.547  0.2534  0.0516 -0.1528
 9565W        W52581  16.435   2.325  20.727  0.3009 -0.0584  0.1341
 9566W        W52582  19.220  15.347  13.386  0.1569  0.1499 -0.0159
 9567W        W52583  24.858  13.647  21.356  0.1861 -0.0817 -0.0361
 9568W        W52584   8.290  22.008  14.094 -0.2048  0.0237 -0.1527
 9569W        W52585  27.692  33.953  16.145  0.1632 -0.2308 -0.0524
 9570W        W52586  20.094  27.108   3.992 -0.3486 -0.3948  0.0409
 9571W        W52587  30.045  18.425   3.171  0.1621 -0.3942  0.1758
 9572W        W52588  18.605  19.302   3.131  0.0919  0.1955  0.0198
 9573W        W52589  16.706  24.070   3.953  0.0684 -0.0991 -0.0539
 9574W        W52590  26.077  24.328  17.420  0.1101 -0.0704 -0.1525
 9575W        W52591  31.353   1.284   4.014 -0.0846  0.3564 -0.0153
 9576W        W52592  21.590  27.428   3.174 -0.0060  0.0868 -0.0289
 9577W        W52593  24.664  23.304  16.286 -0.1705 -0.1639  0.3314
 9578W        W52594   8.497  23.028  16.361  0.0454  0.2364 -0.0275
 9579W        W52595  19.267  26.600  25.083 -0.0796 -0.0255  0.0828
 9580W        W52596   0.751   9.375   6.899  0.2070 -0.2622  0.2225
 9581W        W52597   8.085  18.441  19.953 -0.0490 -0.0042 -0.0367
 9582W        W52598  19.785  20.115  15.020  0.0031  0.2281  0.0739
 9583W        W52599  33.727  20.547  14.845 -0.1835  0.0135 -0.0294
 9584W        W52600  32.853   6.200  23.656 -0.0175  0.0515  0.1424
 9585W        W52601  33.983  22.508  19.389 -0.1365 -0.2220  0.2364
 9586W        W52602  30.114  29.057   2.218 -0.1308  0.0024 -0.0035
 9587W        W52603  17.525  21.515  23.582 -0.1140 -0.3393 -0.0535
 9588W        W52604  30.431   2.010  28.429 -0.0522 -0.0003  0.0464
 9589W        W52605  28.023  28.186   4.814 -0.2829  0.2180 -0.1712
 9590W        W52606   7.009  32.053  27.023  0.1906  0.1546  0.1157
 9591W        W52607  18.326  27.807  17.494  0.0778  0.1772  0.0522
 9592W        W52608   2.456  31.632   2.014 -0.2523 -0.2519  0.3492
 9593W        W52609  25.316  10.091   9.415  0.1298 -0.0135  0.2253
 9594W        W52610   9.666   6.239   0.952  0.0847  0.2343 -0.0379
 9595W        W52611   5.801  21.229   3.049 -0.0833 -0.3392  0.0706
 9596W        W52612  16.640  34.766   2.052 -0.0085 -0.2323 -0.2802
 9597W        W52613   0.335  15.871   3.296  0.0965  0.3149  0.0169
 9598W        W52614  28.005  31.786  24.393  0.0922 -0.1233  0.0625
 9599W        W52615  30.182  30.513  10.550 -0.0335 -0.0653  0.0689
 9600W        W52616  26.558  17.191   3.066 -0.3932  0.0271  0.0937
 9601W        W52617  18.107   0.201  28.931  0.0359 -0.0421  0.2024
 9602W        W52618  19.577  22.558  13.501  0.2498  0.1615 -0.0312
 9603W        W52619  27.212  30.397   4.982 -0.2462  0.0124 -0.4415
 9604W        W52620  21.659  21.922   5.207 -0.0284 -0.0043 -0.0415
 9605W        W52621  24.635  19.804  25.900  0.0264 -0.3699 -0.3071
 9606W        W52622  19.670  24.747  18.757 -0.2554 -0.0291 -0.2851
 9607W        W52623  29.249  19.304   1.465  0.0550  0.3177  0.0924
 9608W        W52624  20.156  32.278  17.057  0.1319  0.0183  0.0600
 9609W        W52625  32.397  28.511  14.814 -0.1133 -0.1033  0.0535
 9610W        W52626  22.341  29.555  28.733 -0.0646 -0.0819 -0.2593
 9611W        W52627  23.230  27.278   1.859 -0.1944 -0.0182  0.0173
 9612W        W52628  24.094  27.254   8.555 -0.1684 -0.1825  0.0923
 9613W        W52629   6.675   2.859  15.306 -0.2071  0.3071 -0.0421
 9614W        W52630  27.945  16.540   3.132  0.0368 -0.0825 -0.0765
 9615W        W52631  26.803  26.565  11.038 -0.1692  0.1281 -0.0325
 9616W        W52632  25.820  16.790   1.768  0.0307 -0.3778  0.0475
 9617W        W52633  29.578   1.326  26.508  0.0539 -0.1443  0.0279
 9618W        W52634  26.731   8.167   7.111  0.0326  0.0489  0.2873
 9619W        W52635  34.496  27.139   1.257  0.1753  0.1233  0.1530
 9620W        W52636  30.590  22.439   0.407  0.0166 -0.0767 -0.0720
 9621W        W52637  28.874  28.190   4.205 -0.2355  0.3498  0.0120
 9622W        W52638  10.528  25.112   7.031  0.1481  0.1470  0.0609
 9623W        W52639  25.733  26.857   0.828  0.1313  0.1111 -0.1075
 9624W        W52640  26.848  22.563   3.002  0.0072  0.1264  0.0477
 9625W        W52641   5.224  32.792   6.430 -0.0173  0.3232  0.1708
 9626W        W52642  11.712  22.565   5.288  0.0216  0.1516 -0.0530
 9627W        W52643  16.942  15.956  24.961  0.1163 -0.0944 -0.0496
 9628W        W52644  11.192  32.514  15.096  0.1176 -0.1606  0.6090
 9629W        W52645  23.541  16.292   3.163 -0.2757  0.2734 -0.2634
 9630W        W52646  23.472   8.282  24.494  0.0123 -0.2722  0.3124
 9631W        W52647  25.590  26.577   8.242  0.1376  0.1754  0.3740
 9632W        W52648  21.549  26.859   8.630 -0.1688  0.2741 -0.1345
 9633W        W52649   4.143  17.495   5.010  0.0312 -0.2417  0.0564
 9634W        W52650  24.223  19.306  14.903  0.0463  0.2579  0.1440
 9635W        W52651   7.497  15.594  19.051 -0.2356  0.2089 -0.0609
 9636W        W52652  16.424  33.851  22.390  0.3054 -0.2202  0.0618
 9637W        W52653  11.866  33.013  23.300  0.0902  0.0591  0.3835
 9638W        W52654  28.295  15.961   2.445 -0.0022 -0.0229 -0.1620
 9639W        W52655  30.882  10.659   3.004 -0.1120  0.0057 -0.1482
 9640W        W52656  12.174   1.461  18.347  0.0543  0.3438  0.0101
 9641W        W52657  31.147  28.883   9.918 -0.2561  0.2052 -0.1868
 9642W        W52658  30.635  28.132   9.041  0.0701  0.2984  0.1715
 9643W        W52659  31.353  33.886  22.760 -0.0273  0.0754  0.0706
 9644W        W52660  21.416   9.949  23.392 -0.0879  0.2640 -0.2882
 9645W        W52661  22.148  20.808   1.806 -0.0441  0.1186  0.1106
 9646W        W52662  11.345  14.210  22.276 -0.0015 -0.1517  0.2325
 9647W        W52663  23.650  14.210  13.548 -0.0908  0.0872  0.0481
 9648W        W52664  12.561  33.770  10.112  0.1685  0.3024 -0.3553
 9649W        W52665  16.897  23.597  16.486 -0.2303  0.1379 -0.1316
 9650W        W52666   3.831  25.119  23.630  0.0652 -0.1388 -0.1285
 9651W        W52667  28.709  17.805  22.490  0.0252 -0.0658 -0.2710
 9652W        W52668  34.576  24.601   0.019 -0.0696  0.0531 -0.1206
 9653W        W52669  22.382  17.381  25.365 -0.4611 -0.3711  0.0694
 9654W        W52670  14.808  22.913  22.064 -0.1230  0.2589  0.4140
 9655W        W52671  19.613   4.930   2.471 -0.3162 -0.0127 -0.0780
 9656W        W52672  27.258  19.059  22.739  0.0898  0.3291 -0.2580
 9657W        W52673  26.934  27.910  17.105 -0.1438  0.1163 -0.3066
 9658W        W52674  27.047   8.510   4.515  0.0495  0.0985 -0.1303
 9659W        W52675  22.340  17.032   5.168 -0.0119 -0.4083 -0.3820
 9660W        W52676  33.014  18.317  18.714 -0.1916  0.0265 -0.0449
 9661W        W52677  25.687  29.641   6.511 -0.2534 -0.0777  0.1565
 9662W        W52678   0.872  33.149  25.024 -0.1720  0.1524 -0.1555
 9663W        W52679   5.657  29.091  18.374 -0.0260 -0.0873  0.1615
 9664W        W52680  10.283   1.815  18.602 -0.4080  0.0106 -0.0174
 9665W        W52681  17.580  32.844  23.182 -0.2514  0.0252 -0.0731
 9666W        W52682  17.559  29.151  27.312 -0.1088  0.1898 -0.1023
 9667W        W52683   6.661   3.174  16.620  0.0054  0.1742 -0.0143
 9668W        W52684  12.389  19.509   7.917  0.1435 -0.0183 -0.0490
 9669W        W52685  34.091  22.752  18.912  0.3357  0.0625  0.1585
 9670W        W52686  28.018  18.094  19.392  0.6087  0.0866 -0.0314
 9671W        W52687  21.880  24.341  25.721  0.3511 -0.0187 -0.0888
 9672W        W52688   7.249   9.544  13.747  0.0771  0.1342  0.0937
 9673W        W52689  19.480   4.682   7.341 -0.0435  0.0232  0.2375
 9674W        W52690  31.954  23.920   6.190  0.1858  0.1008 -0.3375
 9675W        W52691  30.203  19.602  23.737  0.0524  0.2978 -0.5458
 9676W        W52692  30.716  34.584  22.738  0.2248  0.1784  0.3147
 9677W        W52693  27.087   9.213  22.028  0.1255 -0.0401 -0.0139
 9678W        W52694   3.844  27.666  17.577 -0.0534  0.0410 -0.1168
 9679W        W52695  32.345  16.701  11.188 -0.1884  0.1645  0.0436
 9680W        W52696   5.280  26.872   1.237  0.0389 -0.0526 -0.2384
 9681W        W52697  30.091   9.571  10.579 -0.2254  0.0763 -0.0307
 9682W        W52698  22.027  25.123   3.281  0.4777  0.0692  0.1667
 9683W        W52699  25.948  26.171  27.659 -0.0287 -0.1952  0.0626
 9684W        W52700  25.475  25.587  28.413  0.1451  0.1059  0.2568
 9685W        W52701  30.491  18.082  26.114 -0.1949 -0.0163  0.0024
 9686W        W52702  23.596  25.189  17.263 -0.0045  0.0900  0.1699
 9687W        W52703  17.021   2.829  26.812 -0.2029  0.0753 -0.3522
 9688W        W52704  17.776  23.015   7.873 -0.1037  0.1589  0.1871
 9689W        W52705  22.128  13.562   2.963  0.0474 -0.0350  0.1838
 9690W        W52706   3.595  15.379   3.606  0.1684 -0.0938  0.1331
 9691W        W52707  15.720  21.459  13.317 -0.1504  0.0670 -0.0160
 9692W        W52708   7.211  14.010   2.485  0.1190 -0.1210 -0.0969
 9693W        W52709  28.858  21.033   2.008  0.0469  0.1550  0.3494
 9694W        W52710  19.848  13.762   8.153  0.1410 -0.1330  0.0952
 9695W        W52711  25.307  24.803   0.823 -0.2795  0.0342 -0.0946
 9696W        W52712  20.242  30.033  21.734 -0.1575  0.1502 -0.1019
 9697W        W52713   7.192  25.519   8.352  0.2315 -0.1739  0.2081
 9698W        W52714  31.205  21.715  16.856  0.1523 -0.2404 -0.1169
 9699W        W52715  23.782  18.171  29.053  0.0832  0.2273  0.1127
 9700W        W52716  22.346  30.373   9.715 -0.0153 -0.0519  0.0769
 9701W        W52717  20.710  20.252  19.963  0.1597 -0.5364 -0.1236
 9702W        W52718   0.109  29.200  24.775 -0.2113  0.3067 -0.0690
 9703W        W52719  30.143  29.807  25.951  0.3369 -0.2481 -0.0597
 9704W        W52720  13.491  24.237  26.253 -0.0652  0.0400  0.0889
 9705W        W52721  22.034  31.542   8.897  0.1693  0.2251 -0.0839
 9706W        W52722  11.059  24.819  29.002  0.0134  0.1851  0.0661
 9707W        W52723  30.093  32.159   6.037  0.2009  0.3022  0.1275
 9708W        W52724   6.691  15.713  28.819 -0.0906  0.2074  0.1785
 9709W        W52725  17.918  16.094   5.534  0.0844 -0.1100  0.2443
 9710W        W52726  15.462  27.926   9.901 -0.1936 -0.2536 -0.1585
 9711W        W52727  32.725  22.627   4.614  0.0493  0.1689  0.1038
 9712W        W52728  20.507  30.209  25.304  0.0350  0.0247 -0.0001
 9713W        W52729  26.573  13.970  28.429  0.0854 -0.2157  0.2413
 9714W        W52730  18.166  23.076  26.718 -0.3348  0.0949 -0.0421
 9715W        W52731  26.042   4.917  17.871 -0.0443 -0.0047  0.2517
 9716W        W52732   6.903  23.031   6.358  0.0945  0.2391  0.0983
 9717W        W52733  11.866  29.578   1.087  0.3175 -0.3092  0.2008
 9718W        W52734  17.372  22.149   6.994 -0.2956 -0.1791 -0.2602
 9719W        W52735   5.404  28.074  29.089 -0.1826  0.0639  0.0880
 9720W        W52736  14.492  24.919  22.829  0.0226  0.2537  0.0744
 9721W        W52737  20.601  14.784   3.686 -0.1886  0.0946 -0.1305
 9722W        W52738  28.507  20.907  24.923  0.2680 -0.0486 -0.0204
 9723W        W52739  27.975  34.778  11.588  0.1296  0.1014  0.1588
 9724W        W52740  17.134   6.077   3.005  0.0294  0.0015 -0.1766
 9725W        W52741  29.004  22.616   4.172  0.2561  0.1600  0.2955
 9726W        W52742  27.741  28.265  26.136  0.2309  0.2408 -0.0086
 9727W        W52743  17.748  22.957  19.028  0.1796  0.1873 -0.3746
 9728W        W52744  19.653  24.845  16.211 -0.2528 -0.1616 -0.1228
 9729W        W52745   7.032  22.771   5.347  0.0190 -0.0916 -0.2955
 9730W        W52746  33.031  27.351  27.812 -0.1028  0.0954  0.0440
 9731W        W52747   8.125   8.209   0.247  0.2289  0.2840 -0.0007
 9732W        W52748  24.782  10.140  29.118 -0.1202 -0.0197  0.3472
 9733W        W52749  15.058  25.751  23.435  0.2068  0.3804 -0.2057
 9734W        W52750   7.502   2.516   9.899  0.1885 -0.1446 -0.2154
 9735W        W52751  27.330  24.335  21.773  0.1510 -0.1511 -0.1911
 9736W        W52752  31.887   0.586   1.535 -0.0174  0.1075  0.2033
 9737W        W52753  10.773  13.946  12.559 -0.0303 -0.0191  0.1460
 9738W        W52754  26.173   2.178  25.736  0.0448 -0.0827  0.0149
 9739W        W52755   3.216  24.009  16.513 -0.2360  0.2133  0.1115
 9740W        W52756  12.634  19.764  21.973  0.3075  0.0167  0.1754
 9741W        W52757  25.106  20.487  24.183  0.1808 -0.2746 -0.0805
 9742W        W52758  32.944  23.357  22.957  0.3250  0.1236 -0.0469
 9743W        W52759  19.774   5.880   4.148  0.1341  0.3430  0.1464
 9744W        W52760  31.831  14.267  22.782 -0.1822  0.0401  0.1645
 9745W        W52761  33.857  17.756  23.828 -0.0185 -0.0635 -0.0724
 9746W        W52762  31.259  19.347  22.607  0.0762  0.1873 -0.3418
 9747W        W52763  17.089  29.795  28.384  0.0793  0.1457 -0.0773
 9748W        W52764   3.124  29.025  19.235  0.1952  0.3407  0.2623
 9749W        W52765  16.861  10.174  21.259  0.0930  0.0764  0.3570
 9750W        W52766  24.420  19.591  20.395 -0.0707  0.1573 -0.1318
 9751W        W52767  28.922  23.943  26.028 -0.1369 -0.5222 -0.3297
 9752W        W52768   0.009   3.667  15.899  0.1121 -0.1812 -0.0538
 9753W        W52769  10.648  20.227  22.397  0.2600  0.1814  0.0352
 9754W        W52770  31.519  17.634  28.939 -0.3971  0.0292 -0.0043
 9755W        W52771  16.052  15.022   5.362  0.0458  0.2815 -0.3245
 9756W        W52772   8.623  19.668   1.800 -0.3257  0.0302  0.0309
 9757W        W52773  13.063  20.251  13.179  0.2532 -0.1544  0.0306
 9758W        W52774   5.642  17.188   5.896  0.0377  0.1685 -0.1134
 9759W        W52775  17.798  22.441  18.385  0.0194 -0.0420  0.1044
 9760W        W52776  29.843  33.935   3.687  0.2972 -0.0593  0.0517
 9761W        W52777  28.699  20.562   5.376  0.0617  0.1961  0.0467
 9762W        W52778  31.030  20.619  15.865  0.0117  0.0260 -0.3319
 9763W        W52779  21.179  33.858  15.225  0.1131  0.1038  0.0153
 9764W        W52780  16.609  12.188   0.009  0.3887  0.3825  0.3499
 9765W        W52781   9.018  26.344  21.712  0.2907 -0.1540  0.2274
 9766W        W52782  12.853  13.432   2.120  0.0954  0.0307 -0.0253
 9767W        W52783   0.063   6.905   6.220  0.0858  0.1610  0.0471
 9768W        W52784  20.772  31.601  15.050  0.3866  0.2312  0.1113
 9769W        W52785  20.603  34.565   0.454  0.0225  0.1154  0.0497
 9770W        W52786  20.149  16.552  25.423  0.1076  0.0435  0.2322
 9771W        W52787  31.140  25.848  23.112 -0.1358  0.1083 -0.1114
 9772W        W52788  18.713   1.603   4.832  0.2334 -0.0072 -0.1257
 9773W        W52789  15.641  19.746  26.513 -0.1244  0.3431  0.0655
 9774W        W52790  15.802   0.382  23.511  0.0746  0.0469 -0.0871
 9775W        W52791   7.782   6.254   2.082 -0.3772 -0.0759  0.0044
 9776W        W52792   1.047   3.601   4.587  0.1540  0.4154  0.2167
 9777W        W52793  32.690  18.030   6.064 -0.0653  0.1833 -0.1053
 9778W        W52794  24.620   8.568  26.363 -0.1094 -0.0944 -0.0756
 9779W        W52795  19.566  21.854   0.271  0.1301 -0.0228  0.1079
 9780W        W52796  28.669  28.083  19.632 -0.0576  0.3553  0.0841
 9781W        W52797  27.901  15.772  28.825  0.0793 -0.4298  0.3850
 9782W        W52798  19.339  29.552   3.524 -0.2146  0.1955  0.1895
 9783W        W52799   8.585  24.483  21.560  0.0007 -0.2414 -0.1799
 9784W        W52800  14.507  27.901   8.288 -0.1737 -0.2067  0.4453
 9785W        W52801  28.152  28.958   8.824 -0.3314  0.0958 -0.0709
 9786W        W52802  24.318  27.862  27.318 -0.2529  0.1078  0.2187
 9787W        W52803  21.121  31.822  29.126 -0.0760 -0.0566  0.1259
 9788W        W52804   2.558  33.892  15.302 -0.2637  0.0423 -0.1677
 9789W        W52805   1.442  28.790  24.401  0.0104 -0.1867  0.0781
 9790W        W52806  16.419  20.795  26.064  0.0908 -0.0536  0.0565
 9791W        W52807  28.471  33.940  11.056 -0.1430 -0.0700  0.2661
 9792W        W52808  28.753   4.512   8.338 -0.2947  0.1832 -0.2412
 9793W        W52809  34.148  19.198   9.028  0.0513  0.0700  0.2028
 9794W        W52810  21.272  10.344  22.435  0.0632  0.0024  0.0086
 9795W        W52811  27.994   6.700   2.349  0.1586 -0.2359  0.2532
 9796W        W52812  24.725  24.062  21.435 -0.1619 -0.1705  0.2048
 9797W        W52813   0.638  23.608  28.166 -0.3182  0.1699  0.1163
 9798W        W52814  15.414  27.608   0.120  0.2066  0.1880 -0.1737
 9799W        W52815  23.027   6.795   0.326 -0.0284 -0.1153  0.0233
 9800W        W52816  25.718  22.718   7.677  0.0120 -0.1865  0.2305
 9801W        W52817  33.297  28.624   6.853 -0.1665  0.0812 -0.1578
 9802W        W52818  11.539  18.598   6.515  0.0748  0.3840 -0.0953
 9803W        W52819  32.869  32.239   8.396  0.1917 -0.0277  0.0754
 9804W        W52820  28.308  27.769  22.706  0.1416 -0.2616  0.0563
 9805W        W52821  20.257  27.026  21.191  0.2306 -0.2213  0.0290
 9806W        W52822  32.825   6.974   1.481 -0.2940 -0.0778 -0.2848
 9807W        W52823  23.616  25.784  10.218 -0.3151 -0.2071  0.0558
 9808W        W52824  25.288  23.326  20.769 -0.2047  0.0137  0.0937
 9809W        W52825   7.092  10.875  23.713  0.0739 -0.2366 -0.1677
 9810W        W52826  24.816  25.029   9.232 -0.1920 -0.1947  0.2784
 9811W        W52827   1.948  25.270   2.927 -0.0462 -0.2377  0.0340
 9812W        W52828  10.298  20.175  13.348 -0.4891 -0.2789  0.2678
 9813W        W52829  26.065  16.232   6.339 -0.1572 -0.1077  0.0543
 9814W        W52830  20.683  21.293  26.202  0.0226  0.0783 -0.1665
 9815W        W52831  22.277  15.827   8.376  0.0514  0.2593 -0.3116
 9816W        W52832  31.254  25.520  28.763  0.0571  0.0893  0.0669
 9817W        W52833   1.785   7.746  25.315 -0.2328 -0.1005 -0.0325
 9818W        W52834  29.274  16.587   2.238 -0.1790 -0.1668  0.1710
 9819W        W52835  21.278   2.988   5.302  0.1404 -0.1597  0.0911
 9820W        W52836  19.428  19.474   1.119  0.3779  0.2659  0.0148
 9821W        W52837  15.518  16.314  13.452 -0.0445  0.1007 -0.0359
 9822W        W52838  19.654  25.449  19.997 -0.1230  0.1095  0.1104
 9823W        W52839  30.014  25.901  29.104 -0.2069  0.1716 -0.2025
 9824W        W52840   1.490  27.070  20.365 -0.1380  0.1098  0.0497
 9825W        W52841   4.000  25.099   4.116  0.1403  0.0302  0.0084
 9826W        W52842  21.930  21.992   5.604 -0.1106  0.3083 -0.2661
 9827W        W52843  11.741  34.029   6.310 -0.0006 -0.4712  0.1806
 9828W        W52844  26.676  25.174  27.167 -0.0037  0.0317 -0.0529
 9829W        W52845  13.846  13.768   6.513  0.1630 -0.0237  0.0238
 9830W        W52846   2.018   9.332   5.129  0.0561  0.2071  0.0025
 9831W        W52847  22.388  12.742   4.306 -0.3730 -0.0462  0.0220
 9832W        W52848   5.581   9.774  21.890  0.0561  0.0681 -0.2380
 9833W        W52849  24.571  23.456   6.457  0.1388  0.3623 -0.0502
 9834W        W52850  32.176   8.906   1.864 -0.0943  0.2963 -0.0228
 9835W        W52851  27.977  27.169  18.313 -0.1413 -0.0425  0.0639
 9836W        W52852  11.039  18.789  15.036  0.2737  0.0870  0.1258
 9837W        W52853  24.245  11.777  17.084 -0.3403 -0.1387  0.1142
 9838W        W52854  32.884  20.254   4.647  0.3801  0.0951  0.1112
 9839W        W52855  16.067  14.437  21.922 -0.2344 -0.0337  0.0774
 9840W        W52856  12.823   2.713   5.826 -0.2375 -0.1479 -0.0060
 9841W        W52857  25.096  18.071  24.813  0.2632 -0.1779  0.2311
 9842W        W52858  22.607  17.379  15.349  0.1465  0.1408  0.1356
 9843W        W52859  19.671  19.662  28.817  0.0700  0.1915 -0.1527
 9844W        W52860  23.224  26.910  18.083 -0.2023  0.0788 -0.1324
 9845W        W52861  19.668  22.065  27.428 -0.1819  0.2630  0.0320
 9846W        W52862  14.925  27.049   9.335  0.2857 -0.0851 -0.0098
 9847W        W52863  12.146  23.419   0.841 -0.0732  0.0047  0.0019
 9848W        W52864  31.994  22.185  10.151  0.0019  0.0088  0.1829
 9849W        W52865  11.820  34.162  27.573 -0.0549  0.2640  0.1052
 9850W        W52866  19.437   1.045  14.333 -0.2499 -0.0056 -0.2301
 9851W        W52867  22.694  18.540  28.913  0.0524 -0.5018 -0.0264
 9852W        W52868  29.520  26.807  10.140  0.0173  0.0919  0.2688
 9853W        W52869  16.588  23.092  23.984  0.0784  0.0638 -0.0266
 9854W        W52870  23.085  34.432  22.126  0.2613 -0.2930 -0.1632
 9855W        W52871  21.588  24.770  18.999 -0.0969  0.0940  0.2437
 9856W        W52872  27.717  20.633  23.259 -0.1802  0.0676 -0.2672
 9857W        W52873  15.186   4.210   4.077 -0.0847 -0.1307  0.0821
 9858W        W52874  12.998   4.869   0.607 -0.0885 -0.1411  0.5152
 9859W        W52875  29.404  32.427  28.120  0.0305 -0.3540  0.1090
 9860W        W52876  32.055  29.544  23.582  0.2873  0.1058 -0.0305
 9861W        W52877  18.915  18.571   3.308  0.1048 -0.0011  0.2185
 9862W        W52878  26.373  27.642  19.760 -0.1743  0.0311 -0.1115
 9863W        W52879  10.683  29.693   3.302  0.2117 -0.1734 -0.4928
 9864W        W52880  26.486  30.219  28.102  0.0332 -0.0987  0.1887
 9865W        W52881   6.333  27.215   7.450 -0.1078  0.2830 -0.3750
 9866W        W52882  19.485  13.341   1.180 -0.0107 -0.0403  0.1822
 9867W        W52883  19.502   9.708  18.988  0.1681  0.0032 -0.1492
 9868W        W52884  20.973  31.267  19.414 -0.2399 -0.0700  0.1015
 9869W        W52885  12.343  32.462   2.816  0.6234 -0.3040 -0.0695
 9870W        W52886  28.438  26.495   8.259 -0.1448 -0.5653 -0.0928
 9871W        W52887  28.262   8.195  10.115 -0.1432 -0.1546 -0.0120
 9872W        W52888   3.795  15.662  24.964 -0.0277 -0.0572  0.0052
 9873W        W52889  27.139  11.567   3.388  0.1784  0.2124  0.2064
 9874W        W52890  22.270   9.796   6.952  0.0054  0.1198 -0.1129
 9875W        W52891  16.333  20.979   4.987  0.2917  0.0010  0.0258
 9876W        W52892  23.542  14.165  26.788 -0.1954 -0.0323 -0.0633
 9877W        W52893  19.908   5.966  22.707  0.2444 -0.0730  0.0128
 9878W        W52894  30.129  32.000  17.875 -0.0790 -0.2515  0.1426
 9879W        W52895  24.872  27.602   7.817 -0.1690 -0.0671 -0.0519
 9880W        W52896  17.497   1.485  29.156 -0.3069 -0.1897  0.1626
 9881W        W52897   1.479  28.937  22.552 -0.0211  0.0301  0.2080
 9882W        W52898  24.289  33.666  19.317 -0.0334 -0.0701 -0.2715
 9883W        W52899  24.084  20.760   1.575 -0.0608  0.1989 -0.0016
 9884W        W52900  27.598   8.837  14.513  0.1461  0.1385  0.4017
 9885W        W52901  23.280  13.592   4.043 -0.0665 -0.0845  0.3215
 9886W        W52902  22.145  19.480   1.456 -0.1684 -0.1005  0.0742
 9887W        W52903  21.405  21.291  20.780 -0.0374 -0.0443 -0.2284
 9888W        W52904  22.791  18.802  18.353 -0.0538  0.3958 -0.3378
 9889W        W52905  25.742  22.634  23.148  0.1288 -0.3777 -0.1254
 9890W        W52906   8.700  10.115   8.811 -0.0370 -0.1923 -0.1064
 9891W        W52907   8.082  29.265   2.852 -0.0297  0.0846  0.1059
 9892W        W52908  31.370  19.303  18.981 -0.3375  0.1013 -0.1538
 9893W        W52909  17.702   3.251   2.713 -0.0512 -0.1829 -0.2135
 9894W        W52910  13.455  16.995   5.329  0.0301 -0.2297  0.1923
 9895W        W52911  26.052  20.813  10.481 -0.0853  0.1035 -0.1870
 9896W        W52912   9.530  27.208  21.194  0.3121  0.1120  0.1286
 9897W        W52913  29.148  28.192  18.221 -0.1009 -0.0134  0.2206
 9898W        W52914   6.816  33.613  28.648  0.2246  0.2126 -0.0588
 9899W        W52915   8.426  26.328  28.771  0.1811  0.5181 -0.5218
 9900W        W52916  27.470   4.401  11.444 -0.0190  0.0397 -0.1623
 9901W        W52917  27.643  19.545   1.993  0.0852 -0.0292  0.2561
 9902W        W52918  23.807  11.964   3.733  0.0040  0.3469 -0.1766
 9903W        W52919   1.578  18.451  15.022 -0.1003  0.0731 -0.1074
 9904W        W52920   2.575   4.076   4.009 -0.3945 -0.1289 -0.0031
 9905W        W52921  27.854  18.409   0.214  0.0602  0.4064 -0.3910
 9906W        W52922   7.574  31.446   9.788  0.0860  0.3279  0.2444
 9907W        W52923  33.268  25.915   7.802 -0.0760 -0.0340 -0.0463
 9908W        W52924   9.061  27.320  24.877 -0.2048 -0.1281 -0.3252
 9909W        W52925  25.378  21.650   1.938  0.3633  0.0622 -0.0264
 9910W        W52926  33.195  13.688  10.243  0.0240 -0.1580  0.0572
 9911W        W52927  28.072  34.740   2.780 -0.0858 -0.2756 -0.0886
 9912W        W52928  33.683  29.656   2.213 -0.1476 -0.1598 -0.5339
 9913W        W52929   1.064  29.747   7.281 -0.3438  0.0185  0.0519
 9914W        W52930   7.922  13.064   2.369  0.0879 -0.0198 -0.2222
 9915W        W52931  10.361  25.650   1.625 -0.0497 -0.4678 -0.0846
 9916W        W52932  16.779  15.376   4.361 -0.3371 -0.0172 -0.1854
 9917W        W52933   4.886  28.113   6.712 -0.3554  0.1780 -0.0861
 9918W        W52934  23.564  11.197   5.408 -0.0119 -0.1349 -0.2595
 9919W        W52935  26.175  27.626  23.783 -0.0092  0.1020  0.0929
 9920W        W52936  32.646   0.203   7.955 -0.1443  0.0838  0.1232
 9921W        W52937  28.522  27.166  20.034  0.0275  0.1281  0.0302
 9922W        W52938   2.034  26.207   5.356  0.0667 -0.4806  0.1067
 9923W        W52939  22.444  32.411  17.568  0.2524  0.0755  0.0190
 9924W        W52940   3.683  10.816   8.678 -0.2601  0.0049  0.0203
 9925W        W52941  21.000  17.383   3.184  0.0002  0.0536  0.0740
 9926W        W52942  19.528  22.170  24.747 -0.0481  0.1471 -0.1928
 9927W        W52943  33.583  25.774   8.696  0.2014 -0.0763 -0.0295
 9928W        W52944   7.280   6.174   4.815 -0.0406 -0.0933  0.0606
 9929W        W52945  18.927  33.750   3.847 -0.2183 -0.3239  0.2851
 9930W        W52946  24.308  22.520   4.642 -0.2949  0.0457 -0.2814
 9931W        W52947  27.933  17.677  25.088  0.0136 -0.0344 -0.1157
 9932W        W52948  20.246  29.741  24.613  0.1312 -0.2533  0.1175
 9933W        W52949  27.388  18.416  29.210 -0.1199  0.0891  0.0949
 9934W        W52950  24.916  32.172  10.171  0.0715 -0.1510  0.1030
 9935W        W52951  33.575  10.580   6.835 -0.1730  0.0626 -0.2667
 9936W        W52952  24.895  18.215   6.680 -0.0434 -0.1079 -0.0134
 9937W        W52953   2.091  26.871   3.912  0.1204 -0.0117  0.1461
 9938W        W52954  26.738   8.638   5.923 -0.1879 -0.1844  0.0111
 9939W        W52955  14.921  17.559  29.265  0.1135  0.2007  0.4127
 9940W        W52956  21.115  30.845   1.821 -0.2941 -0.2398  0.1645
 9941W        W52957   4.438  24.337  18.576  0.1347 -0.2939 -0.0355
 9942W        W52958  25.420   7.628   8.211  0.0116  0.0127  0.0785
 9943W        W52959  15.197  31.338   5.773  0.1691 -0.2327  0.1477
 9944W        W52960  24.906   8.447  16.305  0.1663 -0.1722 -0.3700
 9945W        W52961   0.267  25.782  27.964 -0.1351 -0.2489 -0.0383
 9946W        W52962  31.662  15.840  26.638  0.2613  0.2661  0.0881
 9947W        W52963   4.675  20.034  17.890 -0.3433 -0.1446  0.1607
 9948W        W52964  20.616  10.775  20.722  0.0754 -0.1647  0.1358
 9949W        W52965  22.042  21.939  20.263 -0.0447 -0.0365 -0.0599
 9950W        W52966  34.688  31.960   1.748 -0.2422 -0.2529  0.2567
 9951W        W52967  22.910  27.256   1.475  0.0600  0.0726  0.0663
 9952W        W52968  30.331   2.792  22.347 -0.0048 -0.0670 -0.1544
 9953W        W52969  20.183  34.098  10.082 -0.0254 -0.1060  0.2291
 9954W        W52970  20.949  25.772  10.531 -0.6126  0.0837  0.1643
 9955W        W52971  23.710  26.644  25.967 -0.2308  0.2965  0.1650
 9956W        W52972  14.359  31.357   8.834 -0.1134 -0.2355 -0.0927
 9957W        W52973  24.924  26.579  24.150 -0.1434 -0.0831 -0.1809
 9958W        W52974  26.424  18.571   6.230  0.0824  0.2158  0.0200
 9959W        W52975  31.302  24.207   1.879 -0.0674  0.0472 -0.0202
 9960W        W52976  18.780  23.403   5.040 -0.3853 -0.1898 -0.0977
 9961W        W52977  27.793  31.412  27.606  0.0450  0.1654  0.1722
 9962W        W52978  25.555  21.272  15.381  0.0682 -0.3067  0.4556
 9963W        W52979  31.451   8.637  26.758  0.3617  0.1716 -0.1802
 9964W        W52980  27.570  30.875   1.876 -0.1406 -0.1807 -0.0870
 9965W        W52981   5.730  19.671   1.561  0.0105  0.0902 -0.3171
 9966W        W52982  23.704  16.826   6.486  0.2214  0.2026 -0.2715
 9967W        W52983  20.014  27.248   5.104  0.2220  0.1551  0.1692
 9968W        W52984  19.685  20.625  25.202  0.0667 -0.1453  0.0370
 9969W        W52985  28.645  16.358  14.940  0.0961  0.0906 -0.1372
 9970W        W52986  24.331  27.994  15.065 -0.2594  0.0023  0.0758
 9971W        W52987  29.778  21.470  18.946  0.2487 -0.0296  0.4713
 9972W        W52988   2.958  23.708   7.136 -0.0246 -0.0831 -0.2232
 9973W        W52989   9.535  29.160  13.403 -0.1141 -0.1183 -0.2377
 9974W        W52990  27.399  28.354   0.654  0.0254 -0.2842 -0.4033
 9975W        W52991  10.055  14.670  15.136 -0.1425 -0.3439  0.0059
 9976W        W52992  29.448  34.650  19.142  0.0593  0.1351 -0.1003
 9977W        W52993  32.774  26.868  28.467 -0.1131  0.1847  0.0192
 9978W        W52994   9.288   3.134  22.339 -0.0973 -0.2360  0.1065
 9979W        W52995  25.246   5.433   7.573 -0.1690 -0.1585 -0.4094
 9980W        W52996   0.426  12.556  21.263 -0.0080  0.2983 -0.2576
 9981W        W52997  23.315  24.431  27.377 -0.1313 -0.2448  0.1456
 9982W        W52998  21.295  23.481  24.739 -0.0070 -0.0039 -0.1229
 9983W        W52999  11.902  21.521  28.877 -0.1579 -0.3527  0.1923
 9984W        W53000  21.871  19.462   2.459 -0.1129  0.0380  0.0995
 9985W        W53001  14.632  30.769   8.727 -0.1328 -0.0102  0.0239
 9986W        W53002  15.898  24.582  21.099  0.2123  0.1681 -0.1204
 9987W        W53003  34.205  23.048   8.715 -0.0312  0.1335  0.0580
 9988W        W53004  24.567  16.124  25.256  0.1561  0.1867 -0.2566
 9989W        W53005  24.035  30.831  28.420  0.0974  0.2099 -0.1437
 9990W        W53006  28.161  14.347   4.667 -0.1756  0.0197  0.1649
 9991W        W53007  26.979  12.027  10.598  0.2429 -0.2908  0.2519
 9992W        W53008  28.477  29.064  18.865  0.2949  0.1071  0.0625
 9993W        W53009  10.867  19.363  18.040  0.3232  0.0438  0.3250
 9994W        W53010  22.649  23.929   4.262 -0.0301 -0.1800  0.0010
 9995W        W53011  17.696   8.915   1.398 -0.2007  0.2668  0.0040
 9996W        W53012   0.492  20.541   3.259  0.0050  0.0280 -0.2965
 9997W        W53013  17.399  15.476  24.266 -0.1606  0.4144  0.1013
 9998W        W53014  11.548   8.770   1.080  0.2430  0.0868  0.1209
 9999W        W53015  25.067   2.731   3.273 -0.1247 -0.2253  0.0546
10000W        W53016  29.054  25.507  23.399  0.2461 -0.1034 -0.1531
10001W        W53017  24.625  21.199   6.875  0.0697 -0.2355 -0.0057
10002W        W53018  34.505   6.273  16.882 -0.1598 -0.3582 -0.1544
10003W        W53019  22.457  13.188  25.580  0.0490  0.0171 -0.2438
10004W        W53020  27.385  18.777  19.104 -0.0435 -0.0098  0.1283
10005W        W53021  15.361   6.736  28.123 -0.0225  0.1852  0.0031
10006W        W53022  21.363  28.232   4.439 -0.0059  0.0665 -0.2028
10007W        W53023  29.128  26.301  24.581  0.3076 -0.0336 -0.2174
10008W        W53024  19.423  17.026  24.203 -0.0846 -0.1833  0.0587
10009W        W53025   3.496   3.816  18.034 -0.0199 -0.5847  0.0664
10010W        W53026   2.004   2.255   6.112  0.4380  0.2875  0.1704
10011W        W53027  14.175  24.221   5.495  0.0556  0.2604  0.1486
10012W        W53028  10.907  31.450  26.148 -0.1487  0.0559  0.0054
10013W        W53029  25.307  22.979  26.538  0.5289 -0.0958  0.2607
10014W        W53030  15.867  12.171   3.201 -0.1925  0.2849 -0.5821
10015W        W53031   0.228  13.906   0.124  0.1313  0.2973 -0.0858
10016W        W53032  19.451  30.576  28.438 -0.0743 -0.0219 -0.0786
10017W        W53033  17.875  25.826  21.481  0.4074 -0.1700  0.0944
10018W        W53034  29.655  28.345   3.806 -0.2457  0.0417  0.1967
10019W        W53035  26.499  30.819   2.813 -0.0515 -0.2374 -0.0821
10020W        W53036  34.636  31.269   1.577  0.0572 -0.2101 -0.1057
10021W        W53037  23.673  25.765  18.030 -0.1027 -0.2627 -0.2227
10022W        W53038  12.925   7.966   3.134  0.0347 -0.1929  0.0616
10023W        W53039  25.553  27.711  10.078 -0.2142 -0.0702  0.3414
10024W        W53040  21.122  29.757   5.103 -0.0206 -0.1628  0.1931
10025W        W53041  20.798  33.027  18.551  0.5254  0.0131 -0.2166
10026W        W53042  25.462  32.962   6.919  0.2769  0.1719  0.0379
10027W        W53043  18.056  24.107  25.942  0.0812 -0.1727  0.0570
10028W        W53044   0.825  16.697   1.101 -0.1617 -0.1163  0.0836
10029W        W53045  24.936   4.041   2.979  0.3010  0.0020 -0.3233
10030W        W53046  15.069  18.735  22.150 -0.0812  0.1888 -0.4575
10031W        W53047  33.921  31.389   2.247  0.1572  0.1960 -0.0919
10032W        W53048  14.160  29.408   4.672 -0.2378 -0.0972 -0.2329
10033W        W53049  18.151  25.156   9.824  0.2079  0.1469  0.0147
10034W        W53050  26.917  30.202  19.447 -0.0041 -0.1112 -0.1239
10035W        W53051  17.910   8.298  26.946  0.1144 -0.0675  0.2531
10036W        W53052  28.147  19.804  20.323 -0.0604 -0.3412 -0.0681
10037W        W53053   3.179  33.593   4.834  0.0557  0.0015  0.0822
10038W        W53054  28.189  25.626  23.324 -0.0511  0.0145  0.0116
10039W        W53055  30.675  10.119  21.981 -0.1518 -0.2917 -0.3229
10040W        W53056  25.636  33.907   8.547 -0.0761  0.2797  0.0668
10041W        W53057  18.906  28.625  16.511  0.0321  0.0029 -0.0390
10042W        W53058  29.947  11.328   7.666  0.0646  0.0839  0.0987
10043W        W53059   9.976  23.849   7.333  0.1627  0.1153 -0.3095
10044W        W53060  27.268  13.246   0.813  0.0680 -0.1938 -0.3576
10045W        W53061   8.601  17.984   6.161  0.0235  0.0288 -0.2727
10046W        W53062  25.234  29.715   6.281  0.1988  0.1038 -0.0183
10047W        W53063  20.065  15.850  26.169  0.0430  0.1233  0.2394
10048W        W53064  25.669  32.504  28.828  0.0328 -0.0515  0.1250
10049W        W53065   1.065  11.869   6.305 -0.1451  0.2079 -0.0852
10050W        W53066  29.833  25.558   4.487 -0.2950  0.0244 -0.1336
10051W        W53067  33.084  32.084  29.212  0.2070 -0.0139  0.1488
10052W        W53068   0.129  16.932  18.329  0.3691 -0.1704  0.0466
10053W        W53069  19.958  20.676  28.273  0.6494  0.1346  0.0056
10054W        W53070  24.158   4.483  17.347  0.0263  0.1021 -0.1322
10055W        W53071  20.513   4.436   4.900  0.1987 -0.0459  0.1659
10056W        W53072  27.693  17.116   9.507  0.1730 -0.0003 -0.1770
10057W        W53073  29.317   4.332   8.196 -0.1740  0.4089  0.0309
10058W        W53074   9.459  27.676   1.348  0.0924 -0.0754  0.0553
10059W        W53075  20.367  11.789  26.648 -0.1681 -0.2017 -0.2030
10060W        W53076  23.747  34.072  11.954  0.1297  0.1354 -0.0218
10061W        W53077  13.064  29.856  26.853 -0.1598  0.0637 -0.0060
10062W        W53078  10.772  21.588  27.835  0.1155 -0.4900 -0.1426
10063W        W53079   2.376  16.244  27.059 -0.1494  0.2568 -0.1874
10064W        W53080  24.251  23.329   4.073  0.1114  0.1681 -0.1705
10065W        W53081  31.909  29.359  18.014 -0.0646 -0.2826 -0.0585
10066W        W53082  29.555  12.568   3.508 -0.0726 -0.1296 -0.2913
10067W        W53083  22.042  26.334   0.072  0.2644 -0.0629 -0.0776
10068W        W53084  17.268  13.640  22.771 -0.1684 -0.1187  0.1168
10069W        W53085  15.398   7.150  23.641  0.3172  0.1431  0.2338
10070W        W53086   4.164  10.793   5.950 -0.2939  0.0663 -0.0424
10071W        W53087  31.603  17.161  26.017 -0.2633  0.0624 -0.0636
10072W        W53088  15.420  21.622  25.757 -0.2841  0.1712  0.0224
10073W        W53089  24.366  18.439  14.418 -0.0626 -0.0247 -0.1867
10074W        W53090  32.295  27.397  20.210  0.0588 -0.0352  0.1469
10075W        W53091  23.257  27.571  27.015 -0.1073  0.3069 -0.2614
10076W        W53092  18.572  25.064  22.055 -0.2224 -0.0536 -0.0176
10077W        W53093   6.180   4.593  27.135  0.0741 -0.1506 -0.1301
10078W        W53094  25.581  14.939  26.305 -0.2407 -0.0731 -0.0366
10079W        W53095  13.348  23.854   8.569  0.2455 -0.0783 -0.0044
10080W        W53096  33.932  23.594   9.299  0.1419  0.0653  0.3140
10081W        W53097  19.700  27.273  19.371 -0.2103  0.0626 -0.0127
10082W        W53098  18.186   2.946  17.265  0.0804  0.1360 -0.2400
10083W        W53099  29.318  31.495   3.620  0.1416  0.2974  0.1167
10084W        W53100   5.890  24.428  16.602  0.1069 -0.1602 -0.1713
10085W        W53101  14.601  27.160  26.972 -0.1472  0.0356 -0.2227
10086W        W53102  13.982  32.245  18.773  0.0926  0.0896  0.0536
10087W        W53103   7.358  24.849   1.984 -0.2528  0.1987 -0.0539
10088W        W53104  34.578  13.281  25.518  0.1177  0.1805  0.0259
10089W        W53105   6.376   2.639   0.110  0.4397 -0.3470  0.1122
10090W        W53106   5.002   5.689  19.578 -0.1433 -0.1984  0.0208
10091W        W53107  13.682  16.624  26.140  0.1466 -0.3164  0.0370
10092W        W53108  29.203  26.523  19.925 -0.1463  0.0668 -0.1330
10093W        W53109  19.066   5.836  17.147  0.2306 -0.0909 -0.0462
10094W        W53110  29.750  20.568  22.760  0.0393  0.0514 -0.1990
10095W        W53111  30.434  16.498  15.430  0.0079  0.1808 -0.1920
10096W        W53112   7.437  27.044  18.952  0.0755 -0.2005  0.0401
10097W        W53113  31.062  19.171  26.345 -0.1230 -0.2919  0.0501
10098W        W53114   2.926  29.490  21.088 -0.1420  0.0120  0.0114
10099W        W53115  27.090  29.552  22.293 -0.1026 -0.1583 -0.1175
10100W        W53116  30.302  26.593  24.201  0.2745 -0.0156 -0.1824
10101W        W53117  16.128  26.303  21.646  0.2880  0.0798 -0.3589
10102W        W53118  12.911  14.261  27.747 -0.1100  0.0955 -0.0857
10103W        W53119  31.618  15.941  17.261 -0.2287 -0.4261  0.2204
10104W        W53120  26.402  24.285  20.526 -0.0265 -0.0601 -0.0596
10105W        W53121  26.491  29.861  26.189  0.1155 -0.1529  0.1856
10106W        W53122  23.160  20.043  21.092 -0.1215 -0.0817 -0.1255
10107W        W53123   2.656  33.350  24.427  0.0274  0.2670  0.0360
10108W        W53124  15.994  15.860  13.521 -0.0188  0.1702 -0.2868
10109W        W53125   8.875  28.467  18.164 -0.0207 -0.4315  0.1824
10110W        W53126  30.982  26.144  25.681 -0.7007 -0.1609  0.0668
10111W        W53127  29.506  16.997  23.221  0.0555 -0.3126  0.1630
10112W        W53128  26.848  34.308  22.363  0.0933  0.1257  0.0236
10113W        W53129  15.267  32.000  23.599  0.1591  0.1651  0.0482
10114W        W53130   9.682  32.378   9.590  0.0033 -0.0794 -0.4137
10115W        W53131  18.893  25.027  16.703  0.0771 -0.0442 -0.1411
10116W        W53132   5.887   0.682  21.242  0.3104  0.1336 -0.2568
10117W        W53133  17.206  24.439   1.356 -0.0959  0.3652  0.1193
10118W        W53134  30.696  29.925  28.003  0.4736 -0.1372 -0.0341
10119W        W53135   1.298  23.470  26.217  0.0695  0.0321 -0.2213
10120W        W53136  25.457   7.525  27.317 -0.2642  0.0461  0.2689
10121W        W53137  16.433  22.463  23.807  0.1484 -0.0290  0.1105
10122W        W53138  11.979  28.985  14.191  0.0395  0.0837  0.0221
10123W        W53139  29.039  26.589  26.908  0.1434 -0.1172  0.2040
10124W        W53140  26.936  27.797  29.209  0.0170 -0.5270  0.1136
10125W        W53141  17.896   9.088  16.529 -0.1326 -0.1720 -0.1250
10126W        W53142  19.835  29.854   2.702 -0.1301 -0.5418  0.1215
10127W        W53143  25.839  31.378   0.943 -0.1774 -0.0021 -0.1672
10128W        W53144  12.618  28.891  19.435  0.2673  0.0851  0.0915
10129W        W53145  19.278  30.076  14.758  0.0938  0.0574 -0.0275
10130W        W53146  17.255  33.422  15.847 -0.3452  0.0864  0.0220
10131W        W53147  22.665  31.849  18.436 -0.0735 -0.0313 -0.2055
10132W        W53148  32.944  18.226  23.631  0.0705 -0.1135 -0.1208
10133W        W53149  23.143  29.592  22.733  0.1521  0.3189  0.1103
10134W        W53150  21.211  30.414  17.450  0.2095  0.1034  0.0016
10135W        W53151  22.672   4.171  22.377  0.1404 -0.2499  0.0001
10136W        W53152   0.839  30.128  23.866  0.2036 -0.2022  0.1513
10137W        W53153  27.921  22.711  22.073  0.2223 -0.0512 -0.1438
10138W        W53154  20.986  30.271  19.013  0.3087  0.0485  0.2307
10139W        W53155  21.407  27.832  27.187 -0.3333 -0.0900  0.0260
10140W        W53156  17.468   0.789  17.186  0.1478  0.1089 -0.1486
10141W        W53157  23.606  24.268  17.476 -0.0919 -0.0963  0.2320
10142W        W53158   3.532  19.623   1.221  0.0385 -0.0997  0.0946
10143W        W53159  11.971   9.359   5.134  0.0870 -0.1702  0.1905
10144W        W53160  19.266  11.924  23.148  0.0147 -0.1804  0.0900
10145W        W53161  34.127  34.739  14.742 -0.1896  0.2544 -0.2697
10146W        W53162  27.593  25.907  20.908  0.0120 -0.3041 -0.0031
10147W        W53163  17.547   2.564  13.722 -0.2646  0.3369  0.1065
10148W        W53164  29.500  18.451   3.879 -0.1496 -0.0803 -0.3104
10149W        W53165  15.181  26.226  21.416 -0.0422 -0.0439 -0.3262
10150W        W53166   5.981  32.079  28.543 -0.2719  0.1033  0.0696
10151W        W53167  10.231  31.754  23.682  0.1556 -0.0676 -0.2879
10152W        W53168   8.240  12.370  20.645 -0.0042 -0.0815  0.1635
10153W        W53169  23.900   6.098  14.416 -0.0092  0.0586  0.0869
10154W        W53170  18.124  21.965  15.002 -0.3387 -0.3768 -0.0895
10155W        W53171  21.394  26.186   4.122 -0.1948  0.0772 -0.5077
10156W        W53172  30.279   2.722  21.190  0.1442  0.1396 -0.0071
10157W        W53173  33.824   7.317  17.859  0.0091 -0.0945  0.0380
10158W        W53174  24.847  15.054  27.335 -0.0400 -0.1879  0.0990
10159W        W53175  15.725  30.994  19.136  0.0502 -0.2894 -0.0081
10160W        W53176  29.241  18.747  23.860  0.1578 -0.5949 -0.1125
10161W        W53177  22.132  27.706  15.832 -0.0952  0.0849  0.0683
10162W        W53178  33.289  24.495  25.172  0.0151  0.0263  0.2472
10163W        W53179  26.384   6.269  28.449 -0.1815 -0.2105  0.0444
10164W        W53180  29.256  23.968  23.827  0.0295  0.1738 -0.1441
10165W        W53181  19.987  26.028   3.962  0.3570 -0.0071  0.1888
10166W        W53182  13.416   9.942   4.238  0.2352  0.2832 -0.2312
10167W        W53183   9.829   3.910  15.149  0.0366  0.0421 -0.0993
10168W        W53184  27.605   5.166  25.421  0.1595 -0.1108 -0.0018
10169W        W53185  23.802   1.912  21.083 -0.0090 -0.4741  0.1339
10170W        W53186  31.673  28.440  27.539  0.2178  0.0037  0.1304
10171W        W53187  29.925  27.796  22.950  0.0851  0.1050  0.0161
10172W        W53188  25.927  16.610  25.092  0.0686  0.0172 -0.2021
10173W        W53189  28.757  28.212  20.446 -0.1608 -0.1347 -0.0916
10174W        W53190   0.500  33.190   0.484  0.1876  0.1279  0.0538
10175W        W53191  20.500  23.653  14.175  0.0518 -0.1328  0.0290
10176W        W53192  16.227  28.192  22.072 -0.1320 -0.3793 -0.0471
10177W        W53193   3.782   2.347  28.464 -0.0971  0.1703 -0.2189
10178W        W53194  22.033  21.500   5.116  0.3492  0.0551  0.0284
10179W        W53195  14.071  27.804   2.532  0.1289 -0.0643  0.1856
10180W        W53196  20.551  28.589  18.815 -0.1449  0.1693  0.1705
10181W        W53197  28.605  16.762  17.031 -0.0921  0.2643  0.1757
10182W        W53198  24.025   1.102  17.770  0.1743 -0.0680  0.2019
10183W        W53199  26.054  21.751   5.381  0.2171  0.0562  0.2116
10184W        W53200  13.381   7.795   7.853 -0.1201  0.0306 -0.1059
10185W        W53201  32.500  19.023  15.393 -0.1298 -0.2460 -0.1170
10186W        W53202  14.991   8.525  23.722 -0.3649  0.0269 -0.1276
10187W        W53203  15.726  23.505  17.175  0.0024 -0.1745 -0.1559
10188W        W53204  22.158  29.402   9.049  0.0639 -0.1369  0.0759
10189W        W53205  33.508  15.504  21.643 -0.0454  0.1809  0.0861
10190W        W53206  11.556  23.945  13.550 -0.4579 -0.0870  0.1105
10191W        W53207  20.808  24.157  16.615  0.0508  0.1336 -0.0840
10192W        W53208  26.047  14.989  16.678 -0.3715  0.1092  0.4478
10193W        W53209  27.207  11.151   6.673 -0.2419 -0.0078  0.3306
10194W        W53210   1.558  12.308   2.450 -0.0403  0.1319 -0.1029
10195W        W53211  14.759  28.960  17.018  0.3850 -0.2950 -0.1870
10196W        W53212   5.129  25.853  17.249 -0.0750  0.0997 -0.0342
10197W        W53213  24.520   0.896  22.224  0.0691  0.1349  0.1281
10198W        W53214  17.476  19.441  13.778 -0.0243 -0.1912 -0.0346
10199W        W53215  10.882  23.156  13.489  0.3562 -0.0223 -0.1149
10200W        W53216  21.916   2.083  19.520  0.2892 -0.0489 -0.2917
10201W        W53217  22.222  10.103   0.480  0.0641  0.1220 -0.0438
10202W        W53218   8.101  22.745   1.301  0.0221 -0.0286  0.0947
10203W        W53219  17.564   6.557  21.631 -0.0565  0.0064 -0.1027
10204W        W53220  34.444  31.403  18.331  0.0498  0.4744  0.0822
10205W        W53221  21.619   4.384  16.082 -0.2073  0.1199  0.0393
10206W        W53222  33.891  21.923  28.343 -0.1190 -0.0124 -0.0555
10207W        W53223  28.284  21.281  27.415  0.1635  0.1708 -0.1326
10208W        W53224  19.680   4.205  23.479 -0.1809  0.1455 -0.0780
10209W        W53225  27.600   5.349  16.572 -0.1204 -0.1912  0.0383
10210W        W53226  10.929  17.193  23.311  0.0279  0.0144 -0.1442
10211W        W53227  28.544  31.345  18.616 -0.0431 -0.0363  0.0672
10212W        W53228  21.260  29.068  28.358  0.2646  0.0619  0.1006
10213W        W53229  23.353   9.801  22.767  0.1499 -0.1477 -0.0759
10214W        W53230  13.838   1.612  19.707  0.0131 -0.2255  0.1848
10215W        W53231  24.002  27.678  14.775 -0.0217 -0.1228 -0.0671
10216W        W53232  24.201  10.510  28.343  0.0126  0.0711  0.3487
10217W        W53233  14.505   7.037   5.683  0.1542 -0.2762  0.1003
10218W        W53234  25.415   0.919  23.907 -0.1332 -0.2288 -0.1745
10219W        W53235  30.848   8.880  17.871  0.0674  0.1456  0.1143
10220W        W53236   0.585   4.914  15.841 -0.2627  0.3748  0.0615
10221W        W53237  16.006  27.290   4.971  0.0350  0.0935 -0.4440
10222W        W53238  32.372  13.551  17.967 -0.1189 -0.1336  0.0071
10223W        W53239  30.364   2.939   7.071  0.1523 -0.3084  0.0912
10224W        W53240  15.926  12.740  13.651  0.1464 -0.0944 -0.1000
10225W        W53241  21.739   8.866  25.912 -0.1621  0.0553  0.0540
10226W        W53242  13.365  33.979  14.671 -0.0797  0.1601 -0.1761
10227W        W53243  24.976  29.309  20.441  0.0739 -0.1923 -0.1272
10228W        W53244  26.089  22.490  19.040  0.1527  0.1352 -0.1030
10229W        W53245  15.973   5.960  20.320 -0.0534 -0.1864 -0.1005
10230W        W53246  29.046  34.550  22.774 -0.4932  0.0294 -0.1622
10231W        W53247  26.449  28.751   1.488  0.3181 -0.3742  0.3313
10232W        W53248   0.044  30.189  16.187 -0.2814 -0.0125 -0.2205
10233W        W53249  18.937  26.017  16.868  0.0785 -0.2075 -0.0523
10234W        W53250   4.308  23.007  22.196  0.3713  0.0531  0.3830
10235W        W53251  26.371   0.144  21.092 -0.0190 -0.0686  0.3297
10236W        W53252  34.597  24.161  24.693 -0.3282 -0.1000 -0.2499
10237W        W53253  29.944  27.074  26.093 -0.0583  0.2402 -0.1288
10238W        W53254  23.567  32.868  20.368  0.1315 -0.1684 -0.0706
10239W        W53255  18.564  25.143  25.074  0.0572 -0.0382  0.0505
10240W        W53256  15.236   9.764  14.313  0.0527 -0.0323 -0.0316
10241W        W53257  19.807   8.446  21.180  0.3166 -0.1483  0.1437
10242W        W53258  21.236  30.560  24.597 -0.0077 -0.1454  0.2477
10243W        W53259   2.280   3.028  21.612  0.5182 -0.3036 -0.0258
10244W        W53260  18.292  24.572  14.135 -0.1530  0.0103  0.0414
10245W        W53261  26.602  16.398  14.991  0.0998 -0.2594 -0.0034
10246W        W53262  33.036   4.670  14.826  0.2742 -0.1732  0.0638
10247W        W53263  17.052  32.644  19.960  0.2533 -0.0116  0.1427
10248W        W53264  33.746  23.776  22.499  0.3054 -0.5518  0.3781
10249W        W53265  12.349   6.300   9.574  0.0766 -0.1355 -0.1543
10250W        W53266  13.784  32.654  22.951 -0.2232  0.0766 -0.3581
10251W        W53267   3.981  23.727  17.552  0.1620 -0.3568  0.1994
10252W        W53268  30.840   3.601  14.592  0.1679 -0.2479 -0.3938
10253W        W53269  14.714  26.395  15.273  0.0935 -0.0577  0.0942
10254W        W53270  26.822  32.311  21.763  0.4215 -0.1751  0.6127
10255W        W53271  19.425  26.874   0.538  0.0958  0.0607  0.0371
10256W        W53272  26.580  27.090  24.489  0.4794 -0.2166 -0.0211
10257W        W53273  16.370  34.182   5.960 -0.1298 -0.0895 -0.2683
10258W        W53274  18.736  27.368  21.407  0.0864  0.2093  0.2944
10259W        W53275  21.515   5.737   1.298  0.1471 -0.1748 -0.0080
10260W        W53276  18.332  28.052   1.822  0.1180  0.0746  0.2682
10261W        W53277   2.965  34.457   1.236 -0.1450 -0.1686  0.1073
10262W        W53278  21.108  25.428  16.778 -0.0932 -0.1168 -0.1921
10263W        W53279  24.292  21.698  17.994 -0.1393  0.0460  0.2618
10264W        W53280  26.790  22.304  17.411 -0.4415  0.1966  0.1400
10265W        W53281  21.594  22.511  28.580  0.2482  0.1090  0.1932
10266W        W53282   7.852  29.743  21.169 -0.0869  0.0744  0.2163
10267W        W53283  18.308   2.465  18.702 -0.0689  0.3999 -0.3284
10268W        W53284  25.013  25.516  15.857 -0.0925 -0.1698 -0.0468
10269W        W53285   6.827   1.636  22.499  0.2525 -0.1176 -0.0816
10270W        W53286  25.314  25.041  16.886 -0.2373 -0.0548  0.1141
10271W        W53287  33.816  32.272  19.030  0.3154  0.1535 -0.1973
10272W        W53288  19.171  17.246  14.162 -0.0971 -0.0314  0.3562
10273W        W53289  27.564  11.685  24.516 -0.0903  0.1504 -0.1279
10274W        W53290  25.854  25.415   2.151  0.0404 -0.2425 -0.1455
10275W        W53291  34.323   1.490  28.980 -0.1340 -0.4027 -0.2613
10276W        W53292  33.806   8.811  15.880  0.3285 -0.0908  0.4003
10277W        W53293  29.933  29.508  22.754  0.0007  0.0207 -0.0054
10278W        W53294  28.216  18.617  16.820  0.2884  0.2357 -0.0968
10279W        W53295  23.962  22.374  25.589 -0.0196 -0.0180 -0.0613
10280W        W53296   0.202  15.969  22.389 -0.0725 -0.2291  0.1856
10281W        W53297  17.660  30.878  20.299  0.0705 -0.2484  0.1082
10282W        W53298  27.320  27.807  18.741  0.0645  0.0971 -0.0649
10283W        W53299  10.444  20.271  14.358  0.4136 -0.1129 -0.1786
10284W        W53300  13.098  28.847   4.529  0.0618  0.0601 -0.1390
10285W        W53301  29.812  23.905  16.605  0.0134 -0.0412 -0.0553
10286W        W53302  22.073   0.873   0.082 -0.2263  0.1241 -0.3028
10287W        W53303   4.592   8.039   5.068  0.0563 -0.1801 -0.0577
10288W        W53304  22.608  32.941   1.224  0.2383 -0.2263  0.0634
10289W        W53305  21.320  31.491   2.003 -0.2712 -0.0314 -0.0970
10290W        W53306  22.848  16.036  16.412  0.3727  0.1631  0.1424
10291W        W53307  25.697  23.830  15.494 -0.0494 -0.3556  0.2610
10292W        W53308   7.117  27.953  16.875  0.0750  0.1883 -0.2472
10293W        W53309  32.748   9.394  20.419  0.0864 -0.1815 -0.0582
10294W        W53310  26.971   5.094  20.627 -0.2127  0.2838  0.1918
10295W        W53311  34.171  24.073  18.478  0.1880 -0.3058  0.0273
10296W        W53312   0.538  24.453  19.262  0.0940  0.1261  0.1439
10297W        W53313   4.488  31.791  25.134  0.1096 -0.0450  0.0825
10298W        W53314  32.839  15.767  18.757 -0.1414 -0.3072  0.0343
10299W        W53315   0.592  25.436  15.583  0.0634 -0.2785  0.2006
10300W        W53316  31.601  17.845  22.728  0.2132  0.1698 -0.2456
10301W        W53317  22.424  23.506  28.904  0.1222 -0.1287 -0.1625
10302W        W53318   1.099  22.537  16.242  0.0421 -0.0017  0.4014
10303W        W53319  27.593  20.492  23.941  0.1366 -0.0212  0.0293
10304W        W53320  34.674  22.037  16.471  0.0860 -0.3414  0.2969
10305W        W53321  23.711   3.747   0.853 -0.0084  0.0644  0.0192
10306W        W53322   7.367  29.002  22.364 -0.0054 -0.2046 -0.2451
10307W        W53323  10.215   4.051  17.114 -0.1419 -0.2179 -0.4485
10308W        W53324  28.117  26.075  18.281  0.4101  0.4126 -0.2569
10309W        W53325  29.281  23.362  14.969 -0.1769  0.0175 -0.2737
10310W        W53326  19.036  34.728  24.447  0.2231 -0.2014  0.2242
10311W        W53327   3.579  31.336  29.202  0.1855 -0.2276 -0.0677
10312W        W53328  14.822   7.579  24.920  0.2371 -0.3753 -0.0008
10313W        W53329   1.693  33.735  18.713  0.1362 -0.1424  0.0489
10314W        W53330   3.158  34.063  24.460 -0.0006  0.3596 -0.0156
10315W        W53331  16.006   5.345  14.046  0.1495  0.1062  0.2246
10316W        W53332  33.210  29.972   5.198 -0.1628  0.0238  0.0166
10317W        W53333  29.715  32.011  20.410  0.0049  0.0865  0.1168
10318W        W53334  16.699  23.685  12.417  0.1007  0.3613  0.1813
10319W        W53335  25.884   8.882  18.508 -0.1381 -0.0575  0.0921
10320W        W53336  25.973  18.660  21.529 -0.2015  0.0970  0.0559
10321W        W53337  15.077  11.234  12.793  0.0259 -0.2133  0.0861
10322W        W53338  24.063  20.284  18.825  0.0217 -0.0344 -0.0327
10323W        W53339  16.315  29.188   5.987  0.5122  0.0676 -0.0500
10324W        W53340  28.850  31.853  22.436 -0.3102  0.1324 -0.3719
10325W        W53341  11.882  30.428  20.241  0.0479  0.0920 -0.2125
10326W        W53342  13.525   0.670  23.484  0.1187 -0.1757  0.0907
10327W        W53343  30.308  20.958  23.228 -0.0861 -0.2850 -0.0787
10328W        W53344  31.693  29.793   0.113 -0.1105 -0.1671 -0.0768
10329W        W53345  28.134  31.204  15.249 -0.2560 -0.2111 -0.1686
10330W        W53346  23.639  10.477  29.058  0.0364 -0.2663  0.0024
10331W        W53347  14.906  17.210   0.855  0.0411  0.0644 -0.1831
10332W        W53348   0.983   5.190  18.762  0.0266  0.2764  0.3634
10333W        W53349   5.463  30.966  24.293  0.3007  0.0849 -0.3263
10334W        W53350  16.291   5.691  14.272  0.3157  0.0140 -0.0798
10335W        W53351   2.498   1.320  18.609 -0.1715 -0.1097  0.4391
10336W        W53352  15.984  30.556  20.524 -0.0150  0.0410  0.2642
10337W        W53353   5.609  20.024  18.917  0.4519  0.1247  0.1598
10338W        W53354  16.207  26.596   1.099 -0.0762 -0.0337  0.2030
10339W        W53355  24.170  31.210  16.218  0.0648 -0.0658 -0.2458
10340W        W53356  22.710  13.677  14.368 -0.3892 -0.1222 -0.3320
10341W        W53357  31.306  13.638  20.543 -0.0670  0.0933  0.3329
10342W        W53358  32.279  28.331  23.146 -0.2223 -0.1369  0.3600
10343W        W53359  28.896  24.494  17.169  0.0614 -0.1776  0.0270
10344W        W53360   8.623  31.334  21.770  0.1252 -0.0577  0.3004
10345W        W53361  17.488   3.179  17.983 -0.3461  0.0981  0.0087
10346W        W53362  22.383   0.786  17.996 -0.1626  0.1142 -0.0791
10347W        W53363  34.714  31.781  25.887  0.2952  0.0980 -0.2361
10348W        W53364  32.274  33.124  26.709  0.3132  0.0112 -0.3668
10349W        W53365  10.654  14.369  18.510  0.3566 -0.1092 -0.1029
10350W        W53366  32.028  19.251  22.103  0.1526 -0.2239 -0.1681
10351W        W53367  21.353  27.000  17.839  0.1020  0.0889 -0.2753
10352W        W53368  25.421  31.581  16.547  0.2100 -0.3863 -0.0123
10353W        W53369  13.640  26.108  29.011  0.1460 -0.1872 -0.3972
10354W        W53370  14.497  30.838  17.095 -0.2042  0.0293  0.0702
10355W        W53371  21.094   5.540  15.171 -0.2831  0.0111 -0.0594
10356W        W53372  18.755  27.375  17.246  0.0961 -0.1210 -0.1826
10357W        W53373  30.961  17.348  26.715  0.0260 -0.0228 -0.1298
10358W        W53374  25.413  29.189  28.171 -0.2526 -0.1699  0.0774
10359W        W53375   2.993  31.169  18.572  0.0713  0.1879 -0.3336
10360W        W53376  24.014  27.135  16.545 -0.2631  0.0384 -0.0018
10361W        W53377  25.171  27.926  17.242 -0.2856 -0.1594  0.4198
10362W        W53378  29.758  29.812  23.550  0.2574  0.1161 -0.4213
10363W        W53379   3.695  22.339   4.387 -0.0322 -0.2028  0.1449
10364W        W53380  15.778  34.484  19.248 -0.1096 -0.0657  0.1606
10365W        W53381  19.243  28.906  18.536  0.0174 -0.0476 -0.0513
10366W        W53382  17.355  32.875  16.035 -0.3594  0.1170  0.0749
10367W        W53383  28.117   0.584  24.111 -0.0428 -0.1201  0.0719
10368W        W53384  20.152  28.296  16.594 -0.0262  0.1609 -0.1162
10369W        W53385  21.115  10.214  13.058 -0.0185  0.0835  0.0489
10370W        W53386  23.437   3.962  24.041  0.2443  0.3092  0.1413
10371W        W53387  34.194  31.426  14.847  0.1009  0.3964  0.1041
10372W        W53388  33.588  22.457  17.376 -0.0336 -0.2120 -0.1684
10373W        W53389  32.129  14.707  17.194 -0.2983 -0.1595 -0.0498
10374W        W53390  30.302  15.029  16.843 -0.0504 -0.0087 -0.0485
10375W        W53391  30.681  10.671  18.328 -0.0971 -0.1627 -0.1278
10376W        W53392   1.480  12.245  25.383  0.0308 -0.0425 -0.0086
10377W        W53393  30.075  29.290  21.917 -0.0213 -0.3326  0.1187
10378W        W53394  26.249  28.278  22.698  0.0313 -0.1306  0.0380
10379W        W53395  22.142  23.021  21.559 -0.1498 -0.3060 -0.0538
10380W        W53396  10.946  29.059  16.942 -0.0527  0.2964 -0.1243
10381W        W53397  15.654  15.409  14.820  0.1464  0.1886 -0.0676
10382W        W53398  15.924   6.353  28.737  0.2400 -0.2479  0.2707
10383W        W53399  18.825  21.911   2.034 -0.0707  0.1243  0.0926
10384W        W53400  30.428  34.249  27.701  0.1008  0.1046  0.0541
10385W        W53401  21.568   0.992  21.118  0.1566  0.1866  0.0348
10386W        W53402  32.045  34.533  16.521  0.1981  0.1610 -0.1589
10387W        W53403  32.031  26.883  21.186  0.0877  0.2799 -0.3967
10388W        W53404  21.751   0.071  20.856  0.1462  0.1728  0.2328
10389W        W53405  29.954  27.340  22.327  0.2098 -0.2466 -0.0643
10390W        W53406   3.201  28.833  18.258  0.1507  0.2745 -0.1377
10391W        W53407  15.615   1.759  22.858  0.0413 -0.0230  0.0810
10392W        W53408  23.593  28.721  14.870 -0.1378 -0.0271 -0.0630
10393W        W53409  24.970  28.818  21.845  0.0246 -0.2972 -0.1915
10394W        W53410   0.567  10.229  22.604 -0.0103  0.0276  0.3265
10395W        W53411  23.806  18.720  20.227  0.0669  0.2912  0.0457
10396W        W53412  30.734   3.206  27.868  0.0207  0.3569  0.0412
10397W        W53413  23.583   7.657  16.780 -0.2764  0.0006 -0.0424
10398W        W53414  14.466  25.696  27.930 -0.1459  0.1314  0.0184
10399W        W53415  13.737  22.192  21.632 -0.0263  0.3744  0.0580
10400W        W53416   4.079  28.407  23.062 -0.1929 -0.3023 -0.2734
10401W        W53417  17.467  26.845  26.684 -0.4911  0.0287  0.2941
10402W        W53418  34.291  18.583  16.995  0.1747  0.0997  0.0931
10403W        W53419  33.051  20.350  23.144 -0.2344  0.0353 -0.0551
10404W        W53420  22.564  30.912  25.302 -0.0467  0.0295 -0.1894
10405W        W53421   0.662   3.396  22.394  0.2541  0.1290 -0.0328
10406W        W53422  11.178  18.171  16.052 -0.0214  0.0125  0.0286
10407W        W53423  24.149   3.663  16.122  0.2246 -0.0576  0.0291
10408W        W53424  17.331  28.621  23.863  0.1541 -0.0329  0.0915
10409W        W53425  24.622   4.196  23.571  0.1531 -0.0327  0.3345
10410W        W53426  28.721  23.952  17.543  0.0225 -0.2328  0.1662
10411W        W53427  19.421  31.939  27.972 -0.1545 -0.2376 -0.1359
10412W        W53428  27.610  20.824  26.698 -0.0002 -0.0797  0.0658
10413W        W53429  31.442  16.538  19.544 -0.1155  0.0528 -0.3548
10414W        W53430  33.829  34.601  21.011  0.1822 -0.1237  0.3259
10415W        W53431   9.292  23.795  26.424  0.1555  0.1434 -0.0001
10416W        W53432  10.720  18.882  16.535  0.0125 -0.1193 -0.0295
10417W        W53433  16.091  23.626  13.629 -0.0481 -0.2787  0.0421
10418W        W53434   7.406  24.904   2.496  0.0604 -0.4266 -0.0441
10419W        W53435   2.048  22.296  16.565 -0.0600 -0.0698 -0.1592
10420W        W53436  32.254   1.386  21.601  0.0859  0.0794  0.4694
10421W        W53437  29.281  27.266  19.639  0.2243 -0.1454  0.0083
10422W        W53438  13.997  32.675  26.540  0.2093  0.3887 -0.0145
10423W        W53439  31.469  26.068  20.765 -0.1390 -0.2650 -0.2492
10424W        W53440  27.764   1.172  25.444 -0.0024 -0.0557  0.1380
10425W        W53441  24.402  12.022  13.507  0.0205  0.1012 -0.0474
10426W        W53442  24.233  27.910  21.188 -0.0427 -0.1792  0.0995
10427W        W53443  16.478   4.950  22.262  0.1524  0.0396  0.1091
10428W        W53444  26.676  14.228   3.427  0.0675 -0.2777 -0.2196
10429W        W53445   2.718  34.533   9.455 -0.0396  0.2446 -0.1691
10430W        W53446  22.356  15.080  15.852 -0.0773  0.1058  0.3919
10431W        W53447  22.329  25.377  20.675  0.3279 -0.2006 -0.2649
10432W        W53448  25.637  26.339  16.957  0.0655  0.2469 -0.0209
10433W        W53449  30.612  24.268   0.412 -0.1053 -0.0344  0.1080
10434W        W53450   5.944  25.732  21.791  0.0508 -0.1377 -0.1137
10435W        W53451  15.204  26.053   3.970  0.1467 -0.0433 -0.0653
10436W        W53452  24.688  26.083   4.864  0.0425 -0.0728  0.2367
10437W        W53453  27.642   2.806   9.449 -0.0118  0.0371 -0.2133
10438W        W53454   1.166  24.256  26.123  0.1796 -0.0113  0.0901
10439W        W53455  28.157  10.328  29.069 -0.2453  0.1358 -0.0934
10440W        W53456  29.186  32.208  24.163  0.1714 -0.1487  0.0837
10441W        W53457  19.636  28.617  15.918  0.0569 -0.3157  0.1870
10442W        W53458  28.872   4.223   0.177  0.0960 -0.0810  0.0947
10443W        W53459  17.246  22.856   5.810 -0.2303  0.1220  0.0780
10444W        W53460  29.447  32.233  24.655 -0.0986  0.1914  0.2489
10445W        W53461   4.338  23.264  28.850  0.2773 -0.1129  0.1078
10446W        W53462  21.578  28.412  15.228  0.0416  0.0180  0.1194
10447W        W53463  34.534  28.806  26.601  0.0486 -0.0593 -0.0713
10448W        W53464  10.167  33.228  21.580 -0.1967  0.2144  0.0402
10449W        W53465   1.604  23.791  19.937 -0.1830 -0.1778 -0.1626
10450W        W53466  22.394  29.538  19.786 -0.1325  0.0898  0.1378
10451W        W53467  31.615  33.460  27.659  0.0453 -0.1811  0.0518
10452W        W53468  23.950   1.599  20.633  0.1263  0.3014  0.2267
10453W        W53469  26.158   0.073  29.105  0.2061 -0.1044 -0.0486
10454W        W53470  30.547   2.856  20.074 -0.0914  0.3870 -0.0584
10455W        W53471  33.498   6.549  18.474  0.3280  0.1905  0.1997
10456W        W53472  19.737  33.891  16.940 -0.3608  0.0664  0.1133
10457W        W53473  22.910  27.985  20.875  0.0531  0.3164  0.0836
10458W        W53474   4.076   2.010  14.484 -0.2997  0.1412 -0.1653
10459W        W53475  31.268   2.333  25.950  0.3183 -0.2871  0.1218
10460W        W53476  22.384  19.841  16.762  0.0200  0.2067 -0.2371
10461W        W53477  28.000  31.662  16.536  0.0019  0.0503 -0.1494
10462W        W53478   1.585  33.515  24.701  0.0779  0.1789 -0.5419
10463W        W53479  24.166  26.971  20.373 -0.0216 -0.2226  0.1097
10464W        W53480  15.301  33.197  17.538  0.0470  0.0501  0.3052
10465W        W53481  25.714  31.978  22.330 -0.4065 -0.1622 -0.0114
10466W        W53482  27.563  16.356  26.262  0.1602 -0.0826 -0.0779
10467W        W53483  27.365  27.565  26.234  0.0089  0.3120  0.0046
10468W        W53484   6.395   0.780   5.404 -0.0105 -0.0333  0.1319
10469W        W53485  26.517  25.864   1.754  0.0156 -0.1135  0.0105
10470W        W53486  20.365  22.277  15.120 -0.2537  0.4559 -0.0219
10471W        W53487  27.929  30.493  19.412  0.1570 -0.3043  0.1905
10472W        W53488  29.090   0.109  26.324 -0.0059 -0.0832  0.0210
10473W        W53489  34.079  17.784  21.344  0.3155 -0.0745  0.1260
10474W        W53490   1.499  19.505  19.881 -0.2291  0.1187  0.0640
10475W        W53491  20.986  21.100  29.218  0.1172 -0.0873 -0.2614
10476W        W53492  33.887  23.502  24.075 -0.0526 -0.1702 -0.0410
10477W        W53493  30.043  10.164  20.017 -0.2642  0.2472 -0.1892
10478W        W53494  20.673   7.837  16.118 -0.2484  0.0551 -0.2056
10479W        W53495   0.366  32.921  20.797 -0.0578  0.0321 -0.2287
10480W        W53496   1.316  17.212  15.455  0.2831  0.1887 -0.4342
10481W        W53497  30.005  29.892  27.305 -0.1259  0.1147  0.1589
10482W        W53498  15.237  22.208  13.290  0.2291  0.2440 -0.1842
10483W        W53499   8.619   0.004  15.651 -0.0341  0.0980 -0.1553
10484W        W53500  15.856  28.308  16.149  0.1568 -0.2712  0.1459
10485W        W53501  25.517  21.843  19.453 -0.0083  0.0347 -0.2093
10486W        W53502  24.256  23.969  21.154  0.1798 -0.1402 -0.0677
10487W        W53503  24.038  24.751  27.340 -0.2310  0.0529  0.2068
10488W        W53504  20.482  24.167  25.868 -0.1674 -0.0778 -0.1652
10489W        W53505  21.180  18.459   0.229 -0.1431 -0.0215  0.2884
10490W        W53506   5.054  33.135  27.826  0.0055  0.1765  0.0166
10491W        W53507  26.269   8.753  22.433  0.4397 -0.0405 -0.2612
10492W        W53508   5.484  23.879  22.712 -0.1717 -0.2687  0.1287
10493W        W53509  22.815   8.503  19.238  0.1325  0.0678 -0.3400
10494W        W53510  19.989   2.244  25.868  0.2858 -0.2389 -0.1491
10495W        W53511  30.373   5.892  25.624  0.1947  0.0122 -0.3207
10496W        W53512  24.515  14.313  16.461 -0.0936 -0.2224 -0.3334
10497W        W53513  25.848  18.953  17.881  0.2125 -0.1411 -0.1371
10498W        W53514  15.064   1.303  28.347 -0.0032 -0.0431  0.0397
10499W        W53515  28.598  23.201  21.625 -0.0368  0.1733 -0.0603
10500W        W53516  14.785   1.136  29.295 -0.0491 -0.4000  0.1948
10501W        W53517  22.107  25.410  16.720 -0.3243 -0.0472  0.0854
10502W        W53518  15.893  12.045   3.803 -0.4052 -0.0169 -0.0064
10503W        W53519  20.675  31.992  17.919  0.0398  0.1623 -0.0056
10504W        W53520  11.660  23.941  14.266  0.1060  0.0016 -0.3345
10505W        W53521   3.304  28.949  16.309 -0.0637  0.1541  0.1591
10506W        W53522  17.998  33.947  29.153  0.2232  0.1122 -0.0245
10507W        W53523  21.780  30.111  27.558  0.0923  0.1296  0.1677
10508W        W53524  13.505  16.350  20.997  0.2651  0.3431  0.3337
10509W        W53525  26.519   7.310   5.316 -0.0664  0.3113  0.2975
10510W        W53526  20.208  30.258  15.242 -0.0538  0.2564  0.1784
10511W        W53527  31.633   0.970  20.800  0.2138  0.0391  0.0393
10512W        W53528  22.891  10.178  23.564  0.1278  0.1802 -0.2461
10513W        W53529   3.844  31.616  27.816 -0.0736 -0.0986 -0.1156
10514W        W53530  18.446   6.820   4.319 -0.1335 -0.1317  0.0007
10515W        W53531  17.922   7.743   1.147 -0.1013  0.2604 -0.3219
10516W        W53532  26.460   3.563  11.160  0.1309  0.0201  0.1966
10517W        W53533  32.307   7.284  14.670  0.0136  0.2150  0.1812
10518W        W53534  26.043  26.831  23.852 -0.1233 -0.0091 -0.0194
10519W        W53535  25.465   6.018  20.995 -0.1171  0.0177 -0.0806
10520W        W53536  14.435  24.742  18.872 -0.2874  0.1647 -0.0925
10521W        W53537  18.587  26.055  17.334 -0.2158  0.0583 -0.0685
10522W        W53538  19.401   3.887  24.652  0.0368  0.1244  0.0579
10523W        W53539  32.177  25.691  24.958  0.2856  0.0210 -0.4683
10524W        W53540   3.193   0.925  15.534 -0.1679 -0.2337  0.2900
10525W        W53541  17.961   0.477  18.593  0.2047 -0.1440  0.2580
10526W        W53542   9.676  33.398  26.882 -0.0431 -0.1050 -0.0309
10527W        W53543  24.464  25.380   2.068 -0.0397 -0.1678  0.0453
10528W        W53544  34.252  26.619  23.530  0.1236 -0.0553  0.1967
10529W        W53545  22.754  11.494  19.100  0.1019  0.0873  0.4701
10530W        W53546  20.778  30.816  17.052 -0.0868 -0.1419  0.0180
10531W        W53547  21.100   5.808  24.061  0.1303 -0.0881  0.1702
10532W        W53548  20.624  11.961  16.025  0.2596 -0.1727  0.0902
10533W        W53549  16.892  23.643  25.871 -0.0356 -0.0338 -0.3401
10534W        W53550   3.879  31.274  23.371  0.0597  0.0224 -0.5022
10535W        W53551   3.090  17.099  16.903 -0.0485 -0.1194 -0.1261
10536W        W53552   5.245  33.460  14.700 -0.1392 -0.4601 -0.0459
10537W        W53553  19.077  30.690  17.049 -0.2379  0.3582  0.2233
10538W        W53554  27.230  19.791  15.036  0.2102 -0.0527 -0.0825
10539W        W53555  28.957  30.503  21.519 -0.0726 -0.0814  0.0469
10540W        W53556  27.676   2.030  17.981  0.1438 -0.3960  0.0432
10541W        W53557  26.172  10.776  17.855  0.1468 -0.0680  0.3422
10542W        W53558  34.370  15.977  26.645 -0.1896 -0.0193 -0.0041
10543W        W53559   5.055  28.862  24.471  0.1144 -0.0601 -0.1067
10544W        W53560  28.220  19.029  20.579 -0.1019  0.1437 -0.1633
10545W        W53561   3.018  24.395  17.294  0.1174 -0.2487  0.0859
10546W        W53562  30.603  10.744  28.040 -0.1284  0.3379 -0.0545
10547W        W53563  20.560  24.066  18.609 -0.0850  0.1645  0.2162
10548W        W53564  21.531  20.086  19.806 -0.1083 -0.0439  0.3300
10549W        W53565   5.382  29.011  17.172  0.0092  0.1163  0.3799
10550W        W53566   7.919  27.977  22.790  0.1799  0.2268  0.0539
10551W        W53567   4.134  28.759  28.951  0.2623  0.2915 -0.2248
10552W        W53568  28.769   4.949  26.938 -0.3793 -0.1395 -0.0955
10553W        W53569  12.485  23.292  19.283  0.0368  0.0118 -0.2330
10554W        W53570  11.700  22.664  13.952  0.0815 -0.4134 -0.1522
10555W        W53571  19.290  17.151  15.219 -0.0877  0.0365  0.1310
10556W        W53572  10.340  25.922  20.427  0.1013 -0.2062  0.3419
10557W        W53573  16.864  27.728  21.759  0.2150  0.0370 -0.0921
10558W        W53574  27.475   1.339  28.897 -0.0312  0.1985 -0.1051
10559W        W53575  12.951   1.759  23.931 -0.3478 -0.2299 -0.2538
10560W        W53576   5.980  10.018   2.354  0.2261 -0.0646 -0.2946
10561W        W53577  24.797  27.075  24.320 -0.2102  0.0832  0.0416
10562W        W53578  23.811  30.037   1.536  0.0610  0.1241  0.0966
10563W        W53579  31.669  22.668  15.627  0.0911 -0.3476  0.1283
10564W        W53580  34.419  23.800   7.804 -0.1045  0.1210 -0.0895
10565W        W53581  24.470  18.402  24.008 -0.1020 -0.1732  0.1455
10566W        W53582  22.323  22.854   4.762  0.0606 -0.1244 -0.0207
10567W        W53583  31.813  11.646  21.798  0.1904  0.0388  0.3298
10568W        W53584  12.669  27.743  26.161 -0.2679 -0.1474 -0.3676
10569W        W53585  24.324  34.451  19.205  0.0783 -0.2855 -0.1547
10570W        W53586  23.199   8.874  26.733 -0.0595  0.0065 -0.0904
10571W        W53587  26.710  20.790  21.318 -0.2741  0.0334 -0.1957
10572W        W53588  23.469  31.467  24.016  0.2924  0.3514  0.0495
10573W        W53589  33.119  31.203  19.426 -0.2576  0.2079 -0.0681
10574W        W53590  12.649  31.910  16.455  0.1848 -0.1491  0.0349
10575W        W53591   8.483  14.568   6.290  0.1805  0.2571  0.1338
10576W        W53592  16.365  28.398   5.433 -0.2923  0.1308 -0.0564
10577W        W53593  17.679  31.838  17.890  0.0749  0.2749  0.0564
10578W        W53594  23.181  34.703  27.093 -0.0256 -0.0735 -0.2996
10579W        W53595  31.421  30.026  17.586  0.0594 -0.1045 -0.2334
10580W        W53596  24.747  13.111  19.313  0.2346 -0.1121  0.0477
10581W        W53597   0.671  33.156  15.221 -0.0526  0.1964  0.3118
10582W        W53598  25.724  18.277   4.313 -0.2853 -0.1252 -0.1932
10583W        W53599  18.774  33.617  21.114 -0.1176 -0.0045 -0.0010
10584W        W53600  20.630  19.259   1.209 -0.3330  0.1412 -0.3520
10585W        W53601  23.660  24.832  16.104 -0.1605 -0.0193  0.3014
10586W        W53602   7.624  26.585  23.157 -0.2633  0.1207 -0.0032
10587W        W53603   6.615  28.430  18.890 -0.0860  0.0663 -0.5031
10588W        W53604  13.691  27.824  18.163 -0.1624 -0.0949 -0.1776
10589W        W53605  17.117  21.684  14.383  0.0198 -0.3817  0.0727
10590W        W53606   5.199  27.678  13.500  0.1105  0.0575 -0.2105
10591W        W53607  32.995  27.091  15.588 -0.1633 -0.1436 -0.0412
10592W        W53608  24.152   1.938   7.005 -0.1204 -0.1606  0.2080
10593W        W53609   7.340  18.237  19.252  0.1721 -0.2615  0.3649
10594W        W53610  17.427  15.646   3.832  0.1463  0.0999 -0.0619
10595W        W53611   8.155  21.498  20.691 -0.4845  0.1437 -0.1415
10596W        W53612  19.722  21.143   2.371 -0.2091  0.0183 -0.1356
10597W        W53613  23.378   6.037  24.289 -0.1932 -0.1366 -0.0392
10598W        W53614   7.219  19.159  20.461 -0.1650  0.3397  0.0734
10599W        W53615  10.707  34.633  18.598  0.2910 -0.1942  0.3534
10600W        W53616  32.056   5.576   0.811 -0.2023 -0.1408 -0.0634
10601W        W53617  30.838  30.291  22.113 -0.1630  0.0559 -0.1945
10602W        W53618  22.984  31.618   6.024 -0.0967 -0.0543  0.2854
10603W        W53619  24.354  17.314  15.281  0.1846 -0.2204  0.1975
10604W        W53620   3.984  13.399  23.460  0.0040 -0.1583 -0.1886
10605W        W53621  22.920  15.795  23.924 -0.1617  0.2416 -0.2010
10606W        W53622  31.278   1.703  17.992  0.0096 -0.1171  0.1457
10607W        W53623  17.837  34.716  19.946  0.1475  0.0239 -0.0707
10608W        W53624  14.149  17.700   2.030 -0.0105 -0.2996 -0.1695
10609W        W53625  26.591  22.865  23.230 -0.0223 -0.0409  0.0104
10610W        W53626  14.660  21.494  22.653 -0.1656 -0.0521 -0.1901
10611W        W53627  27.073   1.025   7.030  0.1822 -0.1886  0.0892
10612W        W53628  19.354  32.449  24.071  0.1732 -0.2186 -0.0958
10613W        W53629  10.014  29.530  20.351  0.5705 -0.1554 -0.1142
10614W        W53630   9.538  10.973   4.623 -0.2082 -0.4879 -0.2624
10615W        W53631   6.289  29.549   1.269 -0.1387  0.2421 -0.2000
10616W        W53632  30.023  19.417  10.071 -0.0525 -0.2051 -0.3190
10617W        W53633  33.015  26.553  21.048 -0.2687  0.3721 -0.0102
10618W        W53634   8.093  17.942  14.309 -0.1994 -0.1298  0.0690
10619W        W53635  23.370  31.149  19.951  0.1633 -0.0800  0.1209
10620W        W53636  28.431  20.387  25.237  0.3188 -0.0919 -0.0844
10621W        W53637  25.115  11.589  24.128  0.0383  0.2917 -0.3580
10622W        W53638  28.712  27.744  11.414 -0.0401 -0.2667  0.0630
10623W        W53639   5.985   0.240  18.572 -0.0986 -0.1678 -0.1855
10624W        W53640  25.174  30.736  23.708 -0.1887  0.0746 -0.1185
10625W        W53641  14.166   2.126  15.508 -0.1018 -0.0224  0.0603
10626W        W53642  21.330   2.381   3.066  0.0048 -0.1429 -0.0440
10627W        W53643  26.681  27.277  15.260  0.0095  0.1583  0.0895
10628W        W53644  18.869  17.797  24.505  0.2331 -0.2852  0.2317
10629W        W53645  33.101  12.062  24.768  0.0034 -0.0767  0.1460
10630W        W53646  20.115  28.531  15.091  0.0381 -0.0975  0.1081
10631W        W53647  31.625  29.779  21.649 -0.1847 -0.1132 -0.1309
10632W        W53648  31.667  17.547   0.949 -0.2340 -0.4794 -0.0870
10633W        W53649  13.050  30.490  18.217  0.0953  0.2103 -0.0479
10634W        W53650   9.789  33.022  17.162 -0.0509 -0.0621  0.2637
10635W        W53651  20.877  25.000   7.483  0.2636 -0.0577  0.0859
10636W        W53652  20.252  26.044  16.743 -0.1588 -0.0473  0.0284
10637W        W53653  28.913  19.413  22.511 -0.0334 -0.0856  0.3470
10638W        W53654  12.152  13.299  13.758 -0.1461 -0.0465  0.3151
10639W        W53655  34.077  27.004   2.299 -0.0967 -0.2637 -0.0618
10640W        W53656  16.262  22.011  14.531  0.0939  0.0351 -0.4474
10641W        W53657  20.299  26.993  28.298  0.1620 -0.0578 -0.4008
10642W        W53658   0.233  31.993  14.680 -0.1249 -0.0901  0.1648
10643W        W53659  21.447  29.811  15.752  0.0768 -0.1573 -0.2408
10644W        W53660  23.590  24.120  26.258  0.1444 -0.0632 -0.2326
10645W        W53661  33.571  29.995   3.930  0.4076  0.0557  0.1654
10646W        W53662  19.793  26.027  27.396 -0.1161  0.0748 -0.1157
10647W        W53663  13.247   0.845  16.741  0.0503 -0.1494  0.3366
10648W        W53664  27.957  24.331  23.670 -0.2657  0.1952  0.2451
10649W        W53665  14.751   1.757  26.678  0.2569 -0.0408 -0.0826
10650W        W53666   0.706   0.857  19.856 -0.0964 -0.2357  0.2898
10651W        W53667  20.668  34.364  27.819 -0.0058  0.4815 -0.1609
10652W        W53668   7.004  25.530  22.696  0.1268  0.1045 -0.1911
10653W        W53669  16.423  34.528  23.019 -0.0107  0.2216  0.1405
10654W        W53670  22.779  22.757  19.394 -0.2875 -0.3770 -0.0244
10655W        W53671  16.862   2.633  23.180  0.1001 -0.0982  0.3947
10656W        W53672   3.272   4.617  14.225  0.1534 -0.0648  0.0995
10657W        W53673  25.700  25.729  18.979 -0.1391  0.1109  0.0036
10658W        W53674  22.374  27.425  20.495  0.1815 -0.0549 -0.3359
10659W        W53675  27.151  28.141  15.801  0.0091 -0.2038 -0.3965
10660W        W53676  20.093   2.451  25.354 -0.1235 -0.1140 -0.0719
10661W        W53677  27.336  18.086  20.531 -0.0074  0.0848  0.0080
10662W        W53678  28.980   6.709  28.343 -0.0158  0.0480  0.0246
10663W        W53679   3.635  30.206  18.199 -0.2126 -0.0223  0.2410
10664W        W53680   0.513  30.972  16.801 -0.0215  0.0109 -0.0007
10665W        W53681   5.021   5.172  16.939 -0.1535 -0.0855  0.0818
10666W        W53682   9.519  29.405  20.568  0.0357  0.2500 -0.2937
10667W        W53683  16.847   7.198   5.068 -0.1333 -0.0003  0.0629
10668W        W53684  27.745  28.765  20.880  0.4504 -0.1948  0.4652
10669W        W53685  30.422  24.328  15.724 -0.0361 -0.0498 -0.1091
10670W        W53686  19.249  25.065  13.944  0.2486 -0.0680 -0.0590
10671W        W53687  28.572  16.536   3.647  0.2235 -0.1987  0.1321
10672W        W53688  17.814   3.883  19.527  0.0161 -0.3320  0.2415
10673W        W53689   9.862  21.733   4.186  0.2012  0.3254 -0.2300
10674W        W53690  28.372   6.334   4.392 -0.1221 -0.1022 -0.0813
10675W        W53691   6.861  26.922  19.733 -0.0090 -0.3240 -0.2686
10676W        W53692  22.665  31.878   5.793 -0.1543 -0.0416  0.0633
10677W        W53693   4.664  31.974  28.403 -0.2080  0.0564 -0.3882
10678W        W53694  16.588  29.407   5.021 -0.3706  0.2043 -0.3740
10679W        W53695   9.394  34.650  20.420 -0.2182 -0.0421  0.1441
10680W        W53696  26.313  33.761  21.659  0.1466 -0.0759 -0.0364
10681W        W53697  24.539  31.668  28.058 -0.1612 -0.0860  0.2186
10682W        W53698   8.171  10.387  16.630  0.0818 -0.0547 -0.1988
10683W        W53699   3.629  22.869  25.091  0.4265 -0.0985 -0.4750
10684W        W53700   3.659  32.166  23.598  0.1722 -0.0068 -0.0147
10685W        W53701  31.294   8.761  21.468 -0.0660  0.0395 -0.3091
10686W        W53702  12.688  30.138  21.182 -0.4324 -0.3140  0.4361
10687W        W53703  19.871  33.612  15.108 -0.1586 -0.1074 -0.1952
10688W        W53704  21.367  27.594  19.517  0.1453  0.0997  0.0653
10689W        W53705  33.110   4.319  16.477  0.1454  0.1573  0.0072
10690W        W53706  23.193  27.202  22.182  0.1801 -0.3436 -0.1014
10691W        W53707  23.590  27.740  18.583 -0.1493  0.0556 -0.1222
10692W        W53708  20.601  22.709   3.233  0.0452  0.2645  0.1407
10693W        W53709  24.692  31.184  20.635 -0.4122 -0.0688  0.1555
10694W        W53710   7.375  30.320  28.830 -0.0894 -0.1680  0.0431
10695W        W53711  19.821  24.187  28.914  0.1593  0.2423  0.0654
10696W        W53712  31.977  23.970   1.392  0.1218  0.2508  0.1328
10697W        W53713  16.215  29.515  22.825  0.0009  0.1103  0.0356
10698W        W53714  19.002  29.659  18.412  0.2387  0.0744 -0.1554
10699W        W53715  20.040  33.378  18.036 -0.0189  0.1066 -0.0148
10700W        W53716  30.025  26.849   6.429 -0.2270 -0.4428  0.0103
10701W        W53717  23.990  17.793   3.704  0.1306  0.0590 -0.2146
10702W        W53718  19.510  14.244  21.842  0.0539  0.0942 -0.1024
10703W        W53719  27.345  14.198  16.604 -0.3280  0.0262  0.3098
10704W        W53720   5.484   4.624  16.439 -0.2302 -0.1694 -0.2736
10705W        W53721   3.079   1.786   0.364 -0.2122 -0.5793  0.3577
10706W        W53722  25.793  25.668   9.274  0.0263 -0.1930  0.1103
10707W        W53723  19.835  33.625   3.876  0.2469 -0.0749 -0.0746
10708W        W53724  10.228  22.039   5.958 -0.1982  0.3133 -0.3265
10709W        W53725  24.589  27.432  25.973  0.2404 -0.2158 -0.0318
10710W        W53726  14.515  31.468  27.788 -0.0406  0.0565 -0.1613
10711W        W53727   0.278   4.376  25.663 -0.0461  0.0256  0.2830
10712W        W53728  24.864  28.733  26.343  0.1729 -0.2973  0.3430
10713W        W53729  17.250   2.052  15.350 -0.0803  0.2251 -0.2792
10714W        W53730  27.084  25.519  26.504 -0.2045 -0.4365  0.2155
10715W        W53731  24.745  19.438   3.140 -0.0939  0.2624 -0.0962
10716W        W53732  14.380  32.438  23.778 -0.1052  0.2098  0.0588
10717W        W53733  17.404  28.332  22.208  0.0122 -0.1045 -0.0211
10718W        W53734  12.961  32.216   9.121  0.0294  0.3704  0.1916
10719W        W53735  29.842  25.491  27.168 -0.1104  0.1917  0.0579
10720W        W53736  20.294  25.658  22.821 -0.3938  0.5076 -0.1310
10721W        W53737   8.894   0.020  27.401 -0.1771 -0.1153 -0.0752
10722W        W53738  24.901  32.938  22.347  0.0807 -0.1091  0.2977
10723W        W53739  17.947   4.303  23.082 -0.0480  0.0254 -0.0125
10724W        W53740  21.867  17.707  14.129  0.1685 -0.4924 -0.1299
10725W        W53741  26.485  24.151  17.010 -0.3299  0.0740  0.0008
10726W        W53742   0.284  28.819  17.020 -0.2491  0.2268  0.0301
10727W        W53743   0.576  20.469  17.283  0.0045 -0.3654  0.1728
10728W        W53744  13.541  25.161  21.080  0.0616  0.2970 -0.4418
10729W        W53745  19.479  34.127  16.532  0.0205  0.5154 -0.0382
10730W        W53746  33.710  33.717  25.252 -0.0121  0.0597  0.1531
10731W        W53747   6.366  31.632  28.899 -0.1181  0.2435  0.1113
10732W        W53748   7.444  20.414  27.861  0.0362  0.1132 -0.1231
10733W        W53749  12.284  34.451  15.863  0.1711  0.2076 -0.2678
10734W        W53750  12.881   0.971  17.250  0.0132 -0.1396  0.1973
10735W        W53751  20.573  31.824  15.896 -0.1139 -0.0687  0.2549
10736W        W53752   9.031  18.672  27.925  0.0663 -0.0833 -0.0716
10737W        W53753  20.281   3.180   7.116 -0.0662  0.0961 -0.0406
10738W        W53754  26.430   5.607  28.191  0.2846 -0.0028  0.0538
10739W        W53755  26.123   7.127  22.769  0.1750  0.1587  0.1768
10740W        W53756  16.664  33.272   1.254  0.2413  0.0106  0.1329
10741W        W53757  19.662   2.490  14.373 -0.0244  0.1080  0.1626
10742W        W53758   1.324  13.459   6.357 -0.1603  0.2084  0.0571
10743W        W53759  21.290  27.600   4.000  0.2256 -0.1508 -0.1008
10744W        W53760   4.976  33.812  22.967 -0.1608 -0.3911  0.0123
10745W        W53761  11.367   4.184   0.679  0.0427 -0.0052  0.3159
10746W        W53762  28.722  32.565  26.436 -0.1622 -0.2898 -0.3104
10747W        W53763  29.292  21.418  28.634  0.0304  0.1077 -0.1104
10748W        W53764  29.020   5.433  25.080  0.2877 -0.2008  0.3608
10749W        W53765  24.663   0.470  18.352 -0.2824 -0.2132 -0.1468
10750W        W53766  22.251   0.730  22.367 -0.0992 -0.2748  0.0987
10751W        W53767  13.586   6.119  16.072  0.1229  0.0426 -0.0335
10752W        W53768   9.243  26.659  24.267  0.1924 -0.4661  0.1217
10753W        W53769  30.909   3.304  16.797  0.1017  0.3046  0.0387
10754W        W53770  26.031  28.335  17.224  0.3784 -0.0195  0.0314
10755W        W53771  27.545  15.994  27.939 -0.1302  0.2212 -0.0669
10756W        W53772   7.325  25.673  16.097  0.2662 -0.2468  0.0386
10757W        W53773  13.916  13.128  18.391 -0.0767 -0.2853  0.0180
10758W        W53774  10.057  23.643  16.427  0.2260  0.1060  0.0893
10759W        W53775  21.239   6.157  29.263 -0.0258  0.3636  0.0215
10760W        W53776  30.507  22.515  17.375  0.0200 -0.1581 -0.0296
10761W        W53777   7.174  26.733  27.485 -0.2097 -0.2211  0.2379
10762W        W53778  24.684  34.489  21.911  0.0767  0.0865 -0.1994
10763W        W53779  22.941  11.794   0.453 -0.2891 -0.0141  0.2019
10764W        W53780  28.930  32.405  21.662  0.0106  0.1983 -0.1642
10765W        W53781  23.220  28.608   0.233 -0.3193  0.1596 -0.1832
10766W        W53782  27.918  18.531  17.273 -0.1196  0.0045 -0.2497
10767W        W53783   9.952  23.981  22.231  0.2016  0.0161  0.2514
10768W        W53784  23.493  19.477   1.280 -0.0204  0.2103 -0.1871
10769W        W53785  27.619  28.709  23.417  0.1603  0.1174 -0.2611
10770W        W53786  24.129   1.488  24.534  0.0482  0.0381 -0.1297
10771W        W53787   3.768  25.334  22.693 -0.3940  0.2469 -0.2600
10772W        W53788  31.300   4.089  19.254  0.0117  0.2698  0.1023
10773W        W53789  22.143  18.451  17.855  0.1302  0.0253 -0.1923
10774W        W53790  28.141  27.817   1.928 -0.0295  0.0565  0.0564
10775W        W53791  17.177  28.168  28.253 -0.1227 -0.0866 -0.1906
10776W        W53792  30.620  18.616  20.806  0.2842  0.1657  0.2103
10777W        W53793  21.523  24.654  27.043  0.1339 -0.4405  0.2232
10778W        W53794  30.400  22.818  19.893 -0.4937 -0.1092 -0.0859
10779W        W53795  30.255  20.078  26.702  0.0458 -0.0655 -0.0634
10780W        W53796  33.297  31.390  24.303 -0.1374 -0.1841  0.1016
10781W        W53797  27.521  26.599  22.601 -0.0971  0.5704 -0.2950
10782W        W53798  13.249  24.921  23.417  0.1989 -0.1406 -0.2147
10783W        W53799  21.332  23.290  21.056 -0.1031  0.1074  0.2022
10784W        W53800  33.115  28.240  19.214  0.0585  0.4198 -0.0967
10785W        W53801  23.907  24.776  16.514  0.2633  0.2842  0.1504
10786W        W53802  29.110  20.434  23.397  0.0438  0.1359  0.1573
10787W        W53803  10.863  18.195  12.512 -0.0571 -0.0956 -0.1547
10788W        W53804  19.785  31.667  24.096 -0.0686 -0.2029  0.1149
10789W        W53805   8.773  24.745   4.521  0.2518 -0.1567  0.0282
10790W        W53806  30.961  26.218  21.432 -0.0585 -0.1290  0.3342
10791W        W53807  24.265  21.268  15.780  0.0760 -0.0615 -0.0987
10792W        W53808   7.522  32.257  20.595  0.1725 -0.2413  0.1868
10793W        W53809  12.727  29.771  18.936 -0.0928  0.0762  0.0616
10794W        W53810  22.103  32.567  21.824  0.1054  0.1596 -0.0181
10795W        W53811  32.590  12.608  15.169 -0.0747  0.3028 -0.0106
10796W        W53812  13.869  24.805  20.156  0.1809  0.1205 -0.1429
10797W        W53813  11.610  25.990  18.671 -0.0315  0.1352  0.1680
10798W        W53814  21.650  29.001  23.313  0.2205 -0.1786  0.1060
10799W        W53815   8.242  16.320  12.875  0.0695 -0.2216  0.3555
10800W        W53816  15.284  32.863  18.487 -0.1026  0.2046 -0.0654
10801W        W53817  22.613  27.007   1.979  0.0669  0.3395 -0.0910
10802W        W53818  21.869   5.189  25.507  0.0962 -0.0252  0.0395
10803W        W53819  21.900  34.596  19.640  0.2318  0.0126 -0.4619
10804W        W53820   3.275   2.733  22.737 -0.2276 -0.1399 -0.0811
10805W        W53821  20.950  25.200   4.817 -0.4637 -0.0906 -0.0777
10806W        W53822  23.340   3.107  22.161  0.0167  0.2477 -0.0257
10807W        W53823  13.861  20.345  15.977  0.3513 -0.1955 -0.3351
10808W        W53824  13.109  30.659  21.183  0.1223 -0.0555  0.0658
10809W        W53825  19.673  14.779  22.184 -0.3261  0.0806  0.0671
10810W        W53826  29.668  16.997  28.184 -0.0249  0.0322  0.2062
10811W        W53827  21.495  28.402   1.936  0.0814  0.1097 -0.0197
10812W        W53828  27.472  15.346   8.391  0.2752 -0.2608 -0.0212
10813W        W53829  25.743   3.740  19.935 -0.1919  0.0332  0.5065
10814W        W53830  10.379  30.671   8.734  0.1103  0.1724  0.1059
10815W        W53831  10.656  24.845  17.700  0.0488  0.3412  0.1635
10816W        W53832  17.903   0.445  27.426 -0.1236 -0.2589 -0.1779
10817W        W53833  31.921  30.842  12.040 -0.1946 -0.2129 -0.1394
10818W        W53834  25.698  20.118  20.947 -0.0824  0.3060 -0.1628
10819W        W53835  29.624  28.624  20.569  0.0284 -0.1531 -0.0914
10820W        W53836  28.807  22.564  15.372 -0.1325 -0.2359  0.5602
10821W        W53837   2.823  33.582  15.800  0.0171 -0.2557  0.4946
10822W        W53838   6.900  33.859  13.906  0.0015  0.2046 -0.2314
10823W        W53839  22.984  21.994  14.675  0.2158 -0.0322 -0.0905
10824W        W53840  18.008   5.294  15.513 -0.1566 -0.0633  0.0696
10825W        W53841  21.292   6.245  24.216  0.0926 -0.1491  0.4284
10826W        W53842  20.357  26.187   4.935 -0.2386 -0.4030 -0.0758
10827W        W53843  29.635   3.267  16.124 -0.0336 -0.0019  0.0326
10828W        W53844  20.195  26.034  22.486 -0.3116 -0.1479 -0.1890
10829W        W53845  27.537  14.724  28.520  0.0033 -0.2579 -0.0570
10830W        W53846  18.949  22.681  25.145 -0.2432 -0.4482  0.1051
10831W        W53847  23.343   2.109  23.126 -0.3444 -0.2418 -0.1816
10832W        W53848   1.005  28.743   2.240  0.0184 -0.0562  0.0273
10833W        W53849  14.000  26.561  13.853  0.0980 -0.0386 -0.0299
10834W        W53850  28.865  16.605  22.559  0.0450 -0.0874 -0.0121
10835W        W53851  12.351  20.264  20.563 -0.0646  0.0978 -0.0717
10836W        W53852  17.760  15.171   5.945  0.2506 -0.0380 -0.0518
10837W        W53853   8.483  31.357   4.865  0.1867  0.1939  0.1199
10838W        W53854   9.131  19.673   1.775 -0.2266 -0.0739  0.3046
10839W        W53855  27.305  25.898  11.482  0.3213  0.1320 -0.0461
10840W        W53856  28.264  32.379   8.851 -0.0142 -0.2246 -0.0760
10841W        W53857  10.026  31.138   0.393  0.0609  0.0102  0.0928
10842W        W53858  21.876   4.845  22.210  0.0073 -0.1878  0.1397
10843W        W53859   6.573  24.583   5.175 -0.1840  0.2633 -0.0245
10844W        W53860  28.828   7.946   2.383 -0.0726  0.1273 -0.2637
10845W        W53861   6.972  31.685  17.686  0.1339 -0.1358 -0.2489
10846W        W53862  27.793  33.919  20.784  0.3240 -0.2738  0.1762
10847W        W53863  17.696   3.275  19.877  0.3501 -0.0056 -0.0308
10848W        W53864  29.809  19.522   7.582  0.3455 -0.1053 -0.0326
10849W        W53865  17.333  32.242  26.530 -0.1135 -0.0450  0.0433
10850W        W53866  21.327  14.142  24.695  0.0308  0.0512 -0.0855
10851W        W53867  21.508  14.934  12.621 -0.0844 -0.3102 -0.0683
10852W        W53868  28.320   5.507   1.475  0.0377 -0.0414 -0.1566
10853W        W53869   6.602  33.627  19.644  0.0987 -0.1130  0.1614
10854W        W53870   9.409  25.920  25.060 -0.4208  0.2104 -0.1586
10855W        W53871  31.957   7.257  19.499 -0.1503  0.1124  0.0867
10856W        W53872  30.235   7.944  23.059 -0.0629 -0.2267  0.0315
10857W        W53873  15.909  13.254   4.685 -0.1120  0.3654 -0.0527
10858W        W53874   2.185  27.949   6.399  0.0245 -0.0322 -0.2555
10859W        W53875  18.834   3.896  24.799 -0.3011 -0.0888 -0.0730
10860W        W53876   1.596  20.714   6.259  0.1605 -0.0182  0.2780
10861W        W53877  26.975   1.967  15.382 -0.1983 -0.1445  0.0430
10862W        W53878  31.777  34.147  28.803 -0.1797  0.1995 -0.0704
10863W        W53879  14.772  22.993  13.995  0.0605  0.0459  0.0880
10864W        W53880  27.313  25.374   5.263  0.2934  0.1311  0.0733
10865W        W53881  29.611   9.423  14.743  0.1294  0.0808  0.0568
10866W        W53882   6.570  28.500  21.561  0.1143  0.3003  0.0115
10867W        W53883  15.177  31.959  18.310  0.0220  0.1409 -0.0426
10868W        W53884  22.639  34.219  20.838  0.2214 -0.1557 -0.2042
10869W        W53885  24.439  32.552  16.156  0.0991 -0.0284 -0.2479
10870W        W53886  33.203  16.824  10.148  0.1350 -0.0806  0.1389
10871W        W53887  11.117  27.502  16.792  0.1567  0.0039 -0.1016
10872W        W53888  24.588  32.237  20.687 -0.0926  0.1891 -0.1546
10873W        W53889  18.494  24.946   8.904 -0.2324  0.0581 -0.2953
10874W        W53890  11.384  32.535   7.689 -0.0110  0.1485  0.1910
10875W        W53891   7.040   4.330  21.959 -0.2069 -0.4031 -0.0451
10876W        W53892  21.846  20.398  17.810 -0.0260  0.0147  0.1287
10877W        W53893  10.470   4.973  19.966 -0.2286 -0.2346  0.0138
10878W        W53894  28.850  28.157   0.211 -0.1111 -0.2699 -0.5373
10879W        W53895  19.835   1.602  26.742  0.0652  0.1289 -0.0170
10880W        W53896  10.989   7.863  18.512 -0.1884  0.1856 -0.1486
10881W        W53897  34.777  32.780   2.976 -0.0637 -0.0207  0.1257
10882W        W53898  21.045  10.482  25.292 -0.1562 -0.0861 -0.0920
10883W        W53899  29.792  34.428  15.608 -0.3657 -0.0873 -0.0651
10884W        W53900  20.201  32.831  14.538 -0.1105  0.1133  0.1196
10885W        W53901  30.976  31.984   3.040  0.1135  0.1312 -0.1406
10886W        W53902   7.697  26.415  28.862  0.1910 -0.0981  0.0143
10887W        W53903  27.494   2.639  25.855  0.0754  0.2472 -0.1123
10888W        W53904  15.806  14.184  22.775  0.0735  0.0930  0.0398
10889W        W53905  31.252   1.944   3.071  0.3434 -0.2160 -0.2275
10890W        W53906  25.508   6.340   3.584 -0.0846 -0.4169  0.0081
10891W        W53907  25.505   2.981  22.108 -0.1413  0.1774  0.1403
10892W        W53908   9.328  21.977  15.205  0.1777 -0.0206 -0.0348
10893W        W53909  21.581  22.955  19.457 -0.0686 -0.0167  0.2431
10894W        W53910   5.928  28.810  28.111  0.2118 -0.1223  0.0984
10895W        W53911  29.713  17.893   3.065  0.0129 -0.0919  0.2352
10896W        W53912  22.301  17.604  22.652  0.0982 -0.0470 -0.0256
10897W        W53913  26.996  23.187   4.221  0.2549 -0.1009  0.0571
10898W        W53914  30.558  27.550   0.367 -0.3320 -0.0960  0.0719
10899W        W53915  32.495  28.792  22.410  0.0324  0.0172 -0.1127
10900W        W53916   8.279  26.780  22.673  0.3177 -0.1988 -0.3661
10901W        W53917   6.949  27.147  17.487  0.1606 -0.1020  0.1947
10902W        W53918  22.715  34.376   2.822  0.1528 -0.1788 -0.1971
10903W        W53919   8.673  11.203   7.405  0.0145  0.2274 -0.0578
10904W        W53920  30.127  23.576  24.529 -0.1875 -0.1605 -0.1377
10905W        W53921  13.739   3.066  27.613 -0.4388 -0.2062  0.1150
10906W        W53922  25.572  29.436  23.229  0.0694 -0.2847 -0.0632
10907W        W53923  27.120   1.134  15.155  0.2507 -0.0317  0.2300
10908W        W53924  28.581  27.170   4.743 -0.2092 -0.0679 -0.1453
10909W        W53925  25.261  17.552   9.084 -0.2626  0.0175 -0.0459
10910W        W53926  20.577  30.118  14.724  0.2622 -0.3065 -0.2389
10911W        W53927  31.138  25.052  28.683 -0.2210  0.3327  0.1050
10912W        W53928  21.187   7.339   3.687  0.0978 -0.0449 -0.0650
10913W        W53929  33.600  24.639  20.422  0.1576 -0.0214 -0.3792
10914W        W53930   8.971  23.310  19.792 -0.2035  0.0639 -0.1319
10915W        W53931   4.941  32.920   6.002 -0.0693 -0.2076 -0.2594
10916W        W53932  31.158   0.020  25.652 -0.0579  0.1421 -0.2987
10917W        W53933  25.793  10.630  23.097 -0.2567  0.0822 -0.1521
10918W        W53934  33.867   2.284   9.019  0.2586 -0.1243 -0.0763
10919W        W53935  16.930  27.078  19.714 -0.0634 -0.0714  0.0288
10920W        W53936  12.850  18.333  14.159  0.0461 -0.0428 -0.0478
10921W        W53937  14.139   0.426  17.244  0.2126  0.2090 -0.0043
10922W        W53938  29.329  18.015   1.157 -0.2660 -0.1066  0.0929
10923W        W53939  25.996  32.262   7.053  0.0517 -0.0479  0.4174
10924W        W53940  20.790   1.610  21.723 -0.2736 -0.0656 -0.0605
10925W        W53941  22.531  26.974   5.626  0.0103 -0.0255  0.0590
10926W        W53942  17.525  27.849  25.074  0.0127 -0.0373  0.2782
10927W        W53943  16.940   0.114  14.703 -0.1765  0.0349  0.2370
10928W        W53944  29.065  31.908  27.510  0.2959  0.0457  0.1302
10929W        W53945  17.709  16.518  20.093  0.1050 -0.3626 -0.0551
10930W        W53946   1.095   4.633  15.301  0.0450 -0.1977  0.1398
10931W        W53947  27.145   3.508  23.948  0.0057 -0.1915 -0.1796
10932W        W53948   7.385  12.732  20.771  0.1306 -0.0916 -0.4594
10933W        W53949   5.192  10.907  16.183  0.0072  0.1242  0.2019
10934W        W53950  16.677  22.851  13.267  0.0378  0.0385 -0.1689
10935W        W53951  18.970  34.048  19.260  0.2746 -0.1926  0.0117
10936W        W53952   5.543  19.644  15.915 -0.1552 -0.0896 -0.0168
10937W        W53953  19.516  22.733  20.504 -0.0883  0.2839 -0.0628
10938W        W53954  21.253   4.699   4.363 -0.1678 -0.0303  0.3160
10939W        W53955  21.784  10.528  29.045  0.0051 -0.1521  0.4090
10940W        W53956  31.357  29.767  16.455  0.2104  0.2658  0.2436
10941W        W53957  23.208   2.230   6.520 -0.2216 -0.1169 -0.3109
10942W        W53958  32.882  20.974   0.891  0.3718 -0.3961  0.3029
10943W        W53959  25.600   1.450  19.153  0.1110 -0.1034 -0.1271
10944W        W53960  17.502  11.184  20.699  0.1052 -0.2184  0.0746
10945W        W53961  20.197  33.023  15.715 -0.0350  0.0034  0.0713
10946W        W53962  24.997  15.287  26.964 -0.0245 -0.1341  0.0778
10947W        W53963  28.122   8.167   1.173  0.0418  0.3250  0.1516
10948W        W53964  18.928  31.079   1.122 -0.0226 -0.2445 -0.2491
10949W        W53965  16.728  23.521  23.722  0.0630  0.1612  0.3533
10950W        W53966  22.991   4.344  25.841  0.2897  0.1811  0.3879
10951W        W53967  20.514   1.020   2.118  0.0112 -0.0443  0.3001
10952W        W53968  21.975  24.446  27.335 -0.2062  0.0980 -0.1413
10953W        W53969   4.055  34.226  15.829 -0.0243 -0.0284 -0.1262
10954W        W53970  22.205  32.330  10.345  0.2823 -0.1281  0.1695
10955W        W53971  29.429  18.745  26.645  0.0920  0.2771 -0.0856
10956W        W53972  24.210  15.513  23.301 -0.2050  0.2493  0.0143
10957W        W53973   5.595   0.438  23.511 -0.2354  0.0483 -0.0315
10958W        W53974   0.168  29.823  21.700 -0.2124 -0.2925 -0.0278
10959W        W53975  22.739   1.625   8.362  0.0737 -0.1762 -0.0253
10960W        W53976  11.809  21.005  21.633  0.2822  0.0381 -0.1971
10961W        W53977  26.050  16.002  15.551  0.1536 -0.0124 -0.3167
10962W        W53978  27.261   3.214  28.982 -0.0718 -0.3123  0.2388
10963W        W53979  32.916  32.072  25.489  0.2532 -0.0541  0.3923
10964W        W53980  27.295   9.690  27.968  0.0018 -0.0480 -0.2548
10965W        W53981  12.040  19.755   6.186 -0.0784  0.1634  0.1543
10966W        W53982   1.741  17.562  18.189 -0.0478 -0.2105 -0.1312
10967W        W53983  32.567  13.288   6.871 -0.1111  0.1478 -0.0429
10968W        W53984   0.254  13.523  15.081 -0.2778 -0.2095  0.0200
10969W        W53985   3.559   1.554  23.822 -0.0364 -0.0887 -0.0991
10970W        W53986  30.112  19.946  17.501 -0.0849 -0.2619 -0.0706
10971W        W53987  26.001  30.543  21.391 -0.1138  0.1259  0.1411
10972W        W53988   1.540  29.307   6.700  0.0246  0.0871  0.2586
10973W        W53989  22.103   3.709   3.660 -0.0806  0.0228 -0.0528
10974W        W53990  25.221  32.302  26.571  0.1690  0.1960  0.0543
10975W        W53991  14.641  18.599   1.311 -0.1088  0.1581  0.1207
10976W        W53992  26.684  32.767  22.910  0.0096  0.0294  0.0854
10977W        W53993  23.084  24.300  23.887  0.2098  0.2904 -0.1679
10978W        W53994  27.264  15.726  21.188 -0.1078  0.2390  0.1446
10979W        W53995  32.589   1.385  19.426 -0.2120 -0.1210 -0.5183
10980W        W53996  21.948   6.432   6.385  0.2391  0.0574 -0.0948
10981W        W53997  13.213   7.136  16.369 -0.0393 -0.4017  0.0735
10982W        W53998  20.726  22.728  27.789 -0.0743 -0.2881 -0.0921
10983W        W53999  23.763  20.203  16.942  0.0784  0.0980  0.1229
10984W        W54000  30.478  11.013  20.127  0.2621  0.0727  0.0143
10985W        W54001  29.230  30.832   2.468  0.1384 -0.1081 -0.0407
10986W        W54002   1.468  26.345  18.282  0.1309 -0.0840 -0.0234
10987W        W54003  29.686  17.263  28.615 -0.0927  0.0292  0.0213
10988W        W54004  15.490  24.129   1.653  0.1207  0.1426  0.2371
10989W        W54005   8.292  23.478  24.669  0.5143 -0.0520  0.2529
10990W        W54006  15.613  24.742   7.335  0.1048  0.1378 -0.3022
10991W        W54007  10.631   9.565  21.883  0.1726 -0.0365 -0.1341
10992W        W54008   1.385  17.851   2.653 -0.4467  0.0252 -0.3591
10993W        W54009  30.837  21.866  15.541 -0.1537 -0.0607 -0.4682
10994W        W54010  22.795  22.255   1.383 -0.4598  0.2549  0.0887
10995W        W54011  24.805  18.924  16.590  0.0553  0.0890  0.0371
10996W        W54012   7.495   0.530   2.591 -0.1784  0.2965 -0.0722
10997W        W54013  19.857  21.821  21.799  0.1255 -0.2763 -0.3905
10998W        W54014   0.466   7.470   5.659 -0.0650  0.0693  0.0163
10999W        W54015  18.165  24.309   3.541  0.1285  0.0505 -0.2160
11000W        W54016  22.399  25.400  14.787  0.1241 -0.5011  0.0162
11001W        W54017  22.290   8.735  28.962  0.0917 -0.1256  0.1609
11002W        W54018  32.636  31.114  15.938  0.2605 -0.1705 -0.2080
11003W        W54019  34.334  21.570   2.422 -0.0516  0.0790 -0.0920
11004W        W54020  29.064  20.384  17.276 -0.3018 -0.5079 -0.1449
11005W        W54021  18.726  14.668  11.804  0.1617  0.1701  0.4723
11006W        W54022  22.148  27.607  22.812 -0.1270 -0.0916  0.1718
11007W        W54023  34.024  20.559  16.880  0.0209  0.2004  0.2097
11008W        W54024  18.700  13.570   8.666 -0.0170  0.0331 -0.0050
11009W        W54025  22.946   1.716   1.693  0.2754 -0.0767  0.0279
11010W        W54026  24.782   6.161  22.466  0.1163 -0.1713 -0.0321
11011W        W54027  20.140  24.374  29.282 -0.1566 -0.0345  0.0762
11012W        W54028   1.990  21.614  26.099  0.0889 -0.0737  0.2725
11013W        W54029  26.592  27.628   3.128  0.3004  0.3227 -0.0986
11014W        W54030  24.133  10.691   4.020  0.0107  0.0948  0.0990
11015W        W54031  27.392  30.322  22.791 -0.1764 -0.1115 -0.2115
11016W        W54032  31.335  18.877  22.823 -0.0915  0.2799 -0.0722
11017W        W54033  32.429   3.562  28.990  0.0160  0.3059 -0.0795
11018W        W54034  14.223  28.658  17.201 -0.3580 -0.2794  0.1795
11019W        W54035  12.869   1.290  23.811 -0.1576 -0.2156  0.2757
11020W        W54036   6.742  20.031   2.974  0.0214  0.1891 -0.1213
11021W        W54037  33.260   5.659   3.783  0.0022  0.0284 -0.3951
11022W        W54038  30.924  28.067  23.033  0.0856 -0.0065  0.1200
11023W        W54039   7.292  28.530  22.273  0.0601 -0.1034  0.1953
11024W        W54040  21.510  24.107   0.518  0.0844 -0.0391 -0.1232
11025W        W54041  25.492  33.916   1.168 -0.2624  0.0308 -0.0475
11026W        W54042  14.063  30.710  15.017 -0.0977 -0.0984 -0.2631
11027W        W54043  21.367   1.776   3.716  0.0413 -0.0436 -0.0507
11028W        W54044  22.838  31.436   4.600 -0.1177  0.0285  0.2692
11029W        W54045   8.578   6.550   1.677  0.0397  0.2283  0.0770
11030W        W54046  26.108  31.760  29.179  0.1246  0.1968  0.0411
11031W        W54047  20.209   0.753   7.752 -0.2648  0.1226  0.0692
11032W        W54048   7.534   9.832  16.402 -0.1592  0.1797  0.2223
11033W        W54049   0.081  25.261  26.390 -0.1801 -0.0555  0.0070
11034W        W54050  27.106   7.660  28.926 -0.2343 -0.0301 -0.1374
11035W        W54051  30.138  29.164  28.069 -0.2401  0.3096 -0.2215
11036W        W54052   4.289   6.344  28.180 -0.2407 -0.2083  0.0875
11037W        W54053  20.671  25.268  18.775 -0.3485 -0.0761 -0.0467
11038W        W54054  27.238   7.731  20.434  0.0609  0.0177 -0.1840
11039W        W54055  31.351  34.071  18.541 -0.5564 -0.0254 -0.0578
11040W        W54056  22.652  30.651  17.295 -0.0774  0.2005 -0.1502
11041W        W54057  10.143  31.874   8.997 -0.1465  0.1927 -0.0180
11042W        W54058  22.076   3.428  25.956 -0.0888  0.1055 -0.0788
11043W        W54059  23.750  31.961   1.581 -0.1905  0.2493  0.4379
11044W        W54060  26.647  32.313   2.427 -0.0770 -0.1708 -0.5165
11045W        W54061  25.896  28.528   3.045 -0.0678 -0.0283 -0.2464
11046W        W54062  18.140   1.845  20.649  0.1747 -0.0361 -0.2824
11047W        W54063  20.118  26.112  24.601  0.1063 -0.0132 -0.2314
11048W        W54064  11.433  29.204  22.306  0.3021 -0.3035  0.1018
11049W        W54065   4.183   4.103   4.308 -0.1096 -0.2492 -0.0891
11050W        W54066  31.544  22.712  27.588 -0.0834 -0.0183  0.0409
11051W        W54067  16.815  30.541  24.678 -0.2076  0.1561 -0.3110
11052W        W54068  23.474  30.098  17.710 -0.0064  0.1529 -0.1491
11053W        W54069  33.084  33.572  21.712  0.0563 -0.2886 -0.0709
11054W        W54070  22.263  30.093   3.627  0.0895  0.0565 -0.2195
11055W        W54071  11.827  11.584  19.597 -0.0804  0.2975 -0.1771
11056W        W54072  14.781   9.664   4.755  0.0849  0.1471  0.0602
11057W        W54073  13.621   9.581  22.111 -0.0588  0.1719 -0.2095
11058W        W54074   2.450  22.834  15.979 -0.1385 -0.4254  0.1668
11059W        W54075  24.131  19.924  25.692  0.2870  0.0074 -0.0503
11060W        W54076  28.232   2.195  28.336  0.1027 -0.2076 -0.3332
11061W        W54077  10.461  21.882  19.074 -0.0445 -0.6259 -0.1834
11062W        W54078   0.627  28.010  28.614 -0.1746  0.1215  0.1643
11063W        W54079  11.484  10.921   8.726  0.4281  0.1619  0.0185
11064W        W54080  29.110  11.972   2.836 -0.1241 -0.3866  0.0553
11065W        W54081  18.945  33.701  19.709  0.5211 -0.1060  0.1237
11066W        W54082  27.258  26.488  15.768  0.2359 -0.3793  0.0351
11067W        W54083  25.131  17.773   5.928 -0.2073  0.2855 -0.1478
11068W        W54084  28.925   8.113  28.220  0.0704 -0.1163  0.0778
11069W        W54085   3.132   6.442  21.368 -0.1095  0.0710 -0.0081
11070W        W54086  17.565   4.064  13.973 -0.2073 -0.0815  0.3153
11071W        W54087  18.571  30.254   2.792 -0.0773 -0.1124 -0.0185
11072W        W54088  25.307  10.699  20.908 -0.0273  0.1026  0.3039
11073W        W54089  23.786  24.850   9.980  0.1154 -0.1133  0.0817
11074W        W54090  28.792  26.449  16.504  0.0209  0.0604  0.1562
11075W        W54091  17.139   7.408   1.070  0.2110  0.1188 -0.2339
11076W        W54092  13.611  28.636   0.710  0.0431 -0.3986  0.1739
11077W        W54093  30.734  24.255   1.647  0.3066  0.0587 -0.4089
11078W        W54094  32.477  12.668  25.846 -0.0476 -0.0500  0.0135
11079W        W54095   1.573  22.854  19.482 -0.0652  0.3453 -0.2134
11080W        W54096  33.749  33.873   7.459 -0.1333  0.2970 -0.3191
11081W        W54097   5.240  17.592   8.033 -0.1271 -0.0364 -0.1519
11082W        W54098  17.223  20.513   0.321  0.0347 -0.0093 -0.1367
11083W        W54099  29.560   0.135   3.818  0.3057 -0.0564  0.1477
11084W        W54100  20.408  34.588   8.130 -0.0041  0.4030 -0.2143
11085W        W54101  25.626  33.083  28.272  0.1449  0.2446  0.1519
11086W        W54102  15.849  29.098  17.417  0.0568  0.2251 -0.0333
11087W        W54103  14.140  22.683  14.190 -0.5372  0.1149  0.0112
11088W        W54104  18.749  23.577  12.632  0.0744 -0.0987 -0.0442
11089W        W54105  19.734   2.873  25.592  0.2452  0.1610 -0.0586
11090W        W54106  10.219   6.056  27.904 -0.1263 -0.2450 -0.0192
11091W        W54107   0.375   0.877  17.157 -0.0854 -0.1590 -0.1792
11092W        W54108  27.536   3.231  23.427  0.1268 -0.1050 -0.2947
11093W        W54109   5.560  32.708   7.868 -0.2660 -0.1398 -0.0717
11094W        W54110  29.102  29.855  22.262  0.2245  0.1700 -0.0454
11095W        W54111   4.291  16.108  20.588 -0.2649 -0.1073 -0.0550
11096W        W54112  33.436  24.020   6.328  0.0026  0.0703  0.3774
11097W        W54113  19.196  27.315  19.136 -0.0870  0.0140  0.1524
11098W        W54114  13.114   2.580  15.616  0.2798 -0.3288  0.1911
11099W        W54115  28.729  16.499   7.566  0.4899 -0.2253  0.0199
11100W        W54116  24.973  30.180   8.327  0.1235 -0.1270 -0.1664
11101W        W54117  27.431  27.878  25.794 -0.1341  0.1666  0.0890
11102W        W54118  33.455   4.192   5.934 -0.0794  0.1215  0.2033
11103W        W54119  14.890  33.015  24.303  0.2629 -0.0889  0.1571
11104W        W54120  15.572  23.658  15.838 -0.2284  0.0464 -0.1833
11105W        W54121  24.370  15.613  15.374  0.1432 -0.1892  0.2346
11106W        W54122  25.926  25.601  25.550 -0.3421 -0.3910 -0.0231
11107W        W54123  20.889  18.239  14.989 -0.0510  0.0235 -0.0145
11108W        W54124  24.198  14.320   6.568 -0.0613  0.4736  0.1360
11109W        W54125  32.497  26.736  24.084  0.3247 -0.2158  0.0429
11110W        W54126  24.854  19.770   0.310  0.1637  0.0145 -0.2579
11111W        W54127  27.971  27.440  19.245 -0.0427 -0.4531  0.0713
11112W        W54128  28.581   2.835  14.550 -0.1096 -0.0175 -0.0366
11113W        W54129  29.755  23.023   3.192  0.2719  0.1759  0.0367
11114W        W54130  17.193  31.795  17.059  0.1338 -0.4048  0.1493
11115W        W54131  13.565  20.777  28.505 -0.0357  0.3353 -0.2955
11116W        W54132  32.997  16.059  19.216  0.0155  0.0261  0.1824
11117W        W54133  34.324  34.707  16.614  0.2219 -0.0671  0.0630
11118W        W54134   0.047  26.390   2.828 -0.0606 -0.0532  0.0126
11119W        W54135  32.734  32.022  11.360 -0.2175  0.2980  0.1989
11120W        W54136  18.261  12.922  22.283  0.1164  0.4443  0.1861
11121W        W54137  23.786  26.236   7.434 -0.0229 -0.1445  0.1792
11122W        W54138  28.604  17.972  21.979 -0.1574  0.0805  0.5512
11123W        W54139  28.440  27.062   2.983 -0.1824 -0.2966 -0.1801
11124W        W54140   6.153   7.793  15.866 -0.1481 -0.0764  0.0192
11125W        W54141   0.743  33.455  17.888 -0.1059  0.1185  0.1054
11126W        W54142  30.287  32.865   7.766 -0.2572 -0.0131 -0.2365
11127W        W54143  25.851  16.396  27.904 -0.1967 -0.3126 -0.0170
11128W        W54144  25.705  33.371  21.467 -0.1038  0.2207 -0.3247
11129W        W54145  33.485  31.143  16.666 -0.1159 -0.0561  0.0449
11130W        W54146  27.318  28.064  26.330  0.0558 -0.0236 -0.1948
11131W        W54147  28.296  13.746   3.190  0.1290  0.1434  0.1379
11132W        W54148  26.017  18.388   3.263 -0.3474  0.1163  0.1637
11133W        W54149  18.477  30.872  26.687 -0.0967  0.3313  0.1569
11134W        W54150  28.145  13.558   5.294 -0.1302  0.0482  0.1154
11135W        W54151  22.936  30.531  10.661 -0.0358 -0.2704  0.0974
11136W        W54152  25.061  21.418  15.216 -0.1889 -0.0278 -0.2447
11137W        W54153  13.854   9.054  26.870 -0.0873  0.0240  0.1002
11138W        W54154  28.090  27.446  21.934  0.1430 -0.0190 -0.1272
11139W        W54155  29.300   6.548   6.375 -0.3724 -0.2852  0.1421
11140W        W54156  20.909  25.326  17.325  0.2505  0.0563  0.0910
11141W        W54157  29.691  29.652  16.722  0.2195  0.3079  0.1403
11142W        W54158   6.863  15.131  21.940 -0.1567  0.1342  0.1536
11143W        W54159  30.113  10.334  25.036 -0.0034 -0.1598  0.2983
11144W        W54160  13.893   3.375  24.151 -0.0585 -0.0994  0.1913
11145W        W54161   5.716  17.240   1.442  0.0826 -0.2017  0.3464
11146W        W54162   5.744  30.113   4.399 -0.4164 -0.2334 -0.2493
11147W        W54163  32.117   9.085  23.523 -0.0077  0.0915  0.2400
11148W        W54164  19.404  29.436   2.036  0.1821  0.1630  0.3802
11149W        W54165   4.888   5.072  26.866 -0.2029  0.0632 -0.0457
11150W        W54166  32.648  14.460  21.798  0.0992 -0.3758 -0.0421
11151W        W54167  28.095  21.300   5.656  0.0020 -0.4520 -0.1611
11152W        W54168  30.023   1.486   2.313 -0.3254 -0.3066 -0.0667
11153W        W54169  22.387   7.093  18.456 -0.1579 -0.2745  0.0050
11154W        W54170  34.223  32.963   8.125 -0.0082  0.0156  0.0862
11155W        W54171  22.343  25.845  10.557 -0.1090  0.1971 -0.0811
11156W        W54172  30.451  22.037  23.187 -0.0280 -0.0934 -0.3079
11157W        W54173  16.938  14.041   4.573  0.2039 -0.1527 -0.0875
11158W        W54174  29.834  25.631  17.648 -0.0047  0.0724 -0.1550
11159W        W54175  23.573  18.478   2.353 -0.0474 -0.0063  0.1662
11160W        W54176  27.142  20.236  22.514  0.2327 -0.0169 -0.0464
11161W        W54177  23.476  34.047   6.430  0.3683 -0.1129 -0.0559
11162W        W54178  27.649  34.775  21.376  0.1300  0.1154 -0.1328
11163W        W54179  19.397   6.045  18.417  0.0073 -0.1215  0.0370
11164W        W54180  32.350  12.965   6.552  0.1886 -0.2071 -0.1571
11165W        W54181  25.179  30.896  17.498  0.3172  0.1571  0.5325
11166W        W54182  12.620  25.375   1.948 -0.0791  0.2345 -0.2746
11167W        W54183  27.668  25.446   0.298 -0.1367  0.1321 -0.1339
11168W        W54184  33.922  29.128  28.783 -0.0026  0.0699 -0.4627
11169W        W54185  23.555  28.981  17.200  0.1331  0.2031  0.0330
11170W        W54186  22.133  24.848  20.276 -0.1346 -0.2496  0.0926
11171W        W54187  32.127  19.351  20.127 -0.3863 -0.1240  0.0738
11172W        W54188  20.221   1.385   2.961  0.0412 -0.1844 -0.4184
11173W        W54189  17.497  19.270   0.616  0.2196 -0.1003 -0.1292
11174W        W54190  25.999  32.648   2.590  0.0275  0.0209 -0.0326
11175W        W54191  28.815  17.282   7.007  0.0069  0.1297 -0.1979
11176W        W54192  26.563   3.167  21.939 -0.2644 -0.4258 -0.0477
11177W        W54193  20.920   9.720  21.371 -0.0572  0.3435 -0.0781
11178W        W54194  33.072   1.549  23.900  0.0936  0.1066  0.1447
11179W        W54195  15.409  26.220  24.907 -0.0898 -0.1386 -0.1200
11180W        W54196  21.513   2.290  21.638 -0.2622  0.0909  0.1198
11181W        W54197   0.868  32.654  20.820  0.0859  0.1533  0.1539
11182W        W54198  22.282  29.502  24.684 -0.0929 -0.0652 -0.1651
11183W        W54199  10.899  18.651  12.763  0.1239  0.3305 -0.1448
11184W        W54200  31.298  29.405  26.531  0.0997 -0.1169  0.0468
11185W        W54201  34.762   0.203  26.721 -0.1751  0.0243  0.0835
11186W        W54202  22.037  16.794  28.040  0.0694  0.2631 -0.2334
11187W        W54203  24.162  21.059  19.405 -0.0247  0.0849  0.0249
11188W        W54204  27.296   1.826  18.907  0.2193  0.1640 -0.0152
11189W        W54205  12.958   1.198  25.916  0.0885 -0.1372  0.2344
11190W        W54206  30.292  26.973  26.594  0.0292  0.0889  0.0346
11191W        W54207   1.032  14.165  29.122  0.2484  0.1659  0.0901
11192W        W54208  18.654   5.401  14.774 -0.0885 -0.3071  0.2985
11193W        W54209  27.709   3.945  17.485  0.2275  0.1219 -0.1388
11194W        W54210  22.584  19.606  15.917 -0.1092  0.0432 -0.1187
11195W        W54211  12.384  29.098  16.041 -0.0754 -0.1394 -0.1842
11196W        W54212  25.843  25.355   8.274 -0.4024 -0.4150 -0.0044
11197W        W54213  11.038  22.270   1.533  0.4938 -0.0607 -0.1863
11198W        W54214  21.339   8.660  23.199  0.1553 -0.0866  0.1612
11199W        W54215  20.260   5.290  24.302 -0.1057 -0.0363 -0.1854
11200W        W54216  20.511  20.647   5.786 -0.3887 -0.0128 -0.0304
11201W        W54217  10.550  15.274  20.259  0.0290  0.0899  0.0247
11202W        W54218  13.455  15.820   6.701  0.2129 -0.1739 -0.1219
11203W        W54219  29.668  17.943  15.419 -0.0040  0.1019  0.0763
11204W        W54220  22.029  24.255  25.285  0.0113  0.2316  0.1700
11205W        W54221  21.138  25.469  25.333 -0.2531  0.0352  0.3094
11206W        W54222   7.088  16.868  21.126 -0.2500  0.1502 -0.4056
11207W        W54223  31.202   3.287  16.389  0.1633  0.0410  0.0214
11208W        W54224  20.855   2.531  25.985 -0.3128  0.3146  0.0269
11209W        W54225  21.292  23.249   5.594  0.0017 -0.3283  0.0793
11210W        W54226  31.279  32.858  17.807  0.0316  0.2453 -0.5403
11211W        W54227  28.644   2.775   9.032 -0.1453 -0.0196 -0.3706
11212W        W54228   9.631   1.871  24.533  0.0568 -0.0185 -0.0398
11213W        W54229  14.325  18.207  20.621  0.3594  0.1111 -0.0217
11214W        W54230  27.148  12.220   4.307 -0.1119 -0.1708  0.2392
11215W        W54231  28.580  21.852  17.644  0.1038  0.0808  0.3381
11216W        W54232  34.644  13.793   1.491 -0.1113 -0.1407  0.1552
11217W        W54233  28.159  32.745  20.473 -0.1423  0.1055  0.0759
11218W        W54234  25.386  32.607  15.300  0.2359 -0.1172  0.2487
11219W        W54235   1.920   6.492  26.789 -0.4514 -0.1068  0.1987
11220W        W54236  20.946   9.223  14.066  0.0896  0.2193 -0.1871
11221W        W54237  27.010  18.780   7.006  0.0767 -0.2197 -0.1038
11222W        W54238   5.026  28.847  23.311 -0.1015  0.1007  0.0370
11223W        W54239  10.494  10.946  21.725 -0.1483  0.0347  0.5727
11224W        W54240  28.546  31.817  22.863  0.0068  0.2507  0.0354
11225W        W54241   0.746   1.627  23.304 -0.1931 -0.0865 -0.2584
11226W        W54242  30.200  14.525  20.077  0.2160  0.1886 -0.0963
11227W        W54243  23.879  31.534  17.065 -0.1177 -0.2088  0.1175
11228W        W54244  27.146  23.310  26.205  0.1829 -0.0311 -0.2652
11229W        W54245  22.571  24.563  21.888 -0.1832  0.2438  0.2088
11230W        W54246  24.048   0.611  23.066  0.0643  0.0341  0.0856
11231W        W54247   5.692  16.223   4.147 -0.3094  0.1036 -0.0222
11232W        W54248  16.314   4.267  14.981  0.0913 -0.1781 -0.1180
11233W        W54249  24.874  24.112  28.880 -0.3427 -0.1188  0.0350
11234W        W54250   7.134   1.408  22.063  0.2898 -0.0516  0.3581
11235W        W54251  21.488   4.538   0.206 -0.0870  0.3178 -0.0185
11236W        W54252  32.619   9.701   1.460 -0.2844 -0.0602 -0.0988
11237W        W54253   1.579  29.302  24.045 -0.0877  0.1049 -0.0961
11238W        W54254  30.116  32.042   6.847 -0.1840 -0.1258  0.0252
11239W        W54255  13.654  26.905   0.074 -0.3549 -0.2795  0.2042
11240W        W54256  25.545  24.289   3.404 -0.0525 -0.1375 -0.2440
11241W        W54257   8.435  30.435  27.274  0.0945 -0.1604 -0.0066
11242W        W54258  23.099   5.197  21.311  0.2284  0.2122 -0.1643
11243W        W54259   0.382  26.245   3.654  0.2891 -0.0864  0.1081
11244W        W54260  16.856  22.440  20.289  0.1704 -0.1346 -0.1468
11245W        W54261   6.957  18.901  26.245 -0.1286  0.0994  0.0499
11246W        W54262  24.819  24.652  18.866 -0.1617 -0.0985  0.2394
11247W        W54263  26.361  31.074  23.402 -0.1336  0.0892  0.1863
11248W        W54264   2.224  32.928   7.435 -0.2047  0.1501  0.1092
11249W        W54265  22.952  11.922  22.478 -0.1864  0.2984  0.3259
11250W        W54266  22.647  19.356  29.204 -0.1244  0.2246 -0.0721
11251W        W54267  30.618  19.777  19.623  0.1347 -0.2368 -0.0579
11252W        W54268  27.933  17.312  27.750 -0.1517  0.1021  0.1365
11253W        W54269  32.704  12.310  19.834 -0.3392 -0.0396  0.2418
11254W        W54270  23.594  15.615  20.664 -0.3227 -0.1962 -0.0406
11255W        W54271  22.243  25.594   3.192 -0.0831  0.4160  0.2373
11256W        W54272  20.067  24.505  15.896 -0.3535  0.0725  0.1247
11257W        W54273  17.232  22.422   1.305  0.0109  0.3193  0.0677
11258W        W54274  20.905  18.642   3.956  0.0958 -0.0570  0.2843
11259W        W54275  30.689  23.671  22.016 -0.0808 -0.1899  0.0030
11260W        W54276  15.299  17.437   3.843  0.1202  0.0503  0.3689
11261W        W54277  10.029  24.370   0.193 -0.1925 -0.0171 -0.1037
11262W        W54278  24.032  22.717   6.474  0.0051 -0.1390 -0.2142
11263W        W54279  32.340  33.174   0.513 -0.2454 -0.2040 -0.5749
11264W        W54280   8.647   3.779   0.514  0.1116 -0.1633  0.0213
11265W        W54281  25.005   6.887   1.996  0.0350 -0.0808 -0.2031
11266W        W54282  15.949  30.736   0.415 -0.0643 -0.0590 -0.2944
11267W        W54283  10.862  33.415   0.691  0.2282  0.2300  0.1057
11268W        W54284  32.055  25.603  21.090  0.1945  0.1568 -0.0701
11269W        W54285   4.530  22.493  17.187 -0.3222 -0.3299 -0.0126
11270W        W54286  31.727  29.752  28.907 -0.1199  0.0070  0.1984
11271W        W54287   2.984  10.514  22.012  0.3229 -0.1640  0.1830
11272W        W54288   6.563  26.873   2.179 -0.1922 -0.0662 -0.2019
11273W        W54289  25.748   1.713  10.430 -0.1470  0.0491  0.0251
11274W        W54290  26.729   1.562   2.114 -0.0191  0.2735  0.3117
11275W        W54291  17.390   2.203  22.490 -0.3284  0.1540 -0.0274
11276W        W54292   9.738   1.081  19.255  0.2266  0.0041 -0.0665
11277W        W54293  23.180  29.321  24.992  0.1449 -0.1176  0.3878
11278W        W54294   0.552   2.554   8.703  0.0112 -0.0359 -0.1627
11279W        W54295  23.075  24.601   2.993  0.0471 -0.0815 -0.1585
11280W        W54296  29.293  30.535  19.204  0.1070 -0.0136 -0.0269
11281W        W54297  22.246  22.497  20.931  0.1387  0.0923 -0.0262
11282W        W54298  10.988   9.628  21.258  0.3449 -0.0569  0.1938
11283W        W54299  14.332  27.251  22.692 -0.1006  0.4440 -0.0100
11284W        W54300  29.280   5.806   5.257  0.0059  0.3568 -0.0653
11285W        W54301  27.271   9.905  21.399  0.0893 -0.2276 -0.1251
11286W        W54302   0.071  21.661  16.138 -0.2131  0.0324  0.1551
11287W        W54303  32.543  10.819  18.623  0.1074  0.0838  0.2485
11288W        W54304  11.114  22.773  25.840  0.1004  0.0778  0.1334
11289W        W54305  14.710  32.939   4.605 -0.3714 -0.1805  0.0755
11290W        W54306  22.241  19.149   1.848 -0.2445  0.0964 -0.0178
11291W        W54307   0.381  19.848  10.815 -0.1236  0.1532 -0.2073
11292W        W54308   9.882  22.142  25.752 -0.0906  0.3357 -0.0884
11293W        W54309  18.427   6.573  18.773 -0.1216 -0.1404  0.2550
11294W        W54310  31.441  31.215  16.901 -0.4661 -0.1505  0.2467
11295W        W54311  28.549  23.125  11.131  0.0260  0.1848  0.0831
11296W        W54312  23.891  34.194   5.512 -0.0161  0.0685  0.1006
11297W        W54313  31.324  19.889  25.673 -0.3231  0.1725  0.0287
11298W        W54314  25.141   0.843   7.868  0.1511  0.1727  0.0678
11299W        W54315  31.050  29.131  16.481  0.3082  0.0321  0.1723
11300W        W54316  28.333   8.257  11.729 -0.2751 -0.2147 -0.1814
11301W        W54317  25.820  20.663   9.699  0.2513 -0.0376  0.2998
11302W        W54318   0.723   1.648  22.241  0.2657 -0.0053 -0.1134
11303W        W54319  18.771   5.052  27.288 -0.1206  0.2239  0.1908
11304W        W54320   9.211   5.554  27.365 -0.0421 -0.1691  0.0476
11305W        W54321  20.789  31.314   9.179 -0.1593 -0.3294 -0.2934
11306W        W54322  31.767   1.437  26.214 -0.0267  0.0518 -0.0434
11307W        W54323  21.731  17.030  24.944 -0.3862 -0.0202  0.1159
11308W        W54324  19.590  29.087  23.478  0.1378 -0.0839 -0.3406
11309W        W54325  21.671  29.344   2.148  0.3810  0.0641 -0.1022
11310W        W54326  25.729  10.640  20.512  0.0827  0.0551  0.2021
11311W        W54327  23.943  30.031  18.832 -0.0480 -0.2846  0.2568
11312W        W54328  29.716  18.167   7.444  0.2907  0.2093 -0.0384
11313W        W54329  31.403  33.363   9.784  0.0375 -0.0250  0.3023
11314W        W54330  29.884  28.848   3.473  0.1561 -0.1005 -0.2611
11315W        W54331  19.809  18.500  20.563  0.1535 -0.3032  0.2217
11316W        W54332   7.032  16.617  16.462  0.1668 -0.1059  0.0662
11317W        W54333  10.389  31.046  28.178 -0.1332  0.2458  0.3614
11318W        W54334  32.080  22.068   3.923  0.0317  0.1210 -0.0117
11319W        W54335  19.009  10.395  27.969  0.1273 -0.0063 -0.0454
11320W        W54336  13.447  33.993  13.783 -0.0776 -0.1362 -0.0048
11321W        W54337   8.025  32.200  24.615 -0.1244 -0.0437  0.1904
11322W        W54338  20.181  31.671   8.502 -0.0232 -0.2906  0.0107
11323W        W54339  13.801  30.693  21.874  0.1112  0.1658  0.1440
11324W        W54340  12.522  16.707  20.737  0.1247  0.3955  0.1509
11325W        W54341  23.266   7.507   3.981 -0.0641  0.0237  0.0563
11326W        W54342  20.366  21.308  24.292 -0.1635  0.0209 -0.0236
11327W        W54343  18.672   0.562  27.096  0.0094 -0.2772 -0.1110
11328W        W54344  32.629  30.196   4.281  0.2664  0.1001 -0.1897
11329W        W54345  17.147  26.843   3.719 -0.0826  0.0957 -0.0568
11330W        W54346  25.391   8.356  27.613  0.0371  0.1247  0.2279
11331W        W54347  19.028  14.234   8.269 -0.4346 -0.1055 -0.1028
11332W        W54348  32.486  27.764   2.045  0.0018  0.1287  0.0150
11333W        W54349  13.372  28.701   8.108  0.2570  0.0754 -0.1075
11334W        W54350  22.730   0.092  28.851 -0.0872  0.0908  0.0769
11335W        W54351  11.413  20.758   5.619  0.1878  0.0345  0.0468
11336W        W54352  17.459   9.699  22.302  0.3855 -0.1788  0.2575
11337W        W54353   1.860   7.005  28.807  0.1280 -0.1769  0.1936
11338W        W54354  11.114   3.257  23.976  0.0665 -0.0636 -0.1949
11339W        W54355  16.960  12.099  15.567  0.0908  0.1266 -0.3261
11340W        W54356  20.789  28.738   0.486  0.0354  0.0602 -0.2947
11341W        W54357  20.245   2.008  17.422  0.0578 -0.4384 -0.3852
11342W        W54358  28.107  27.128  24.733 -0.1307  0.1402 -0.3497
11343W        W54359  32.927  12.240   9.097  0.2483 -0.0786  0.0373
11344W        W54360   3.688   2.661  27.169 -0.1410  0.1063  0.1764
11345W        W54361  18.551  33.915   3.376  0.2504  0.1483 -0.3215
11346W        W54362  14.248  14.939  22.233  0.2377  0.4281  0.1174
11347W        W54363  28.264  29.455  25.271  0.0790  0.2325 -0.0107
11348W        W54364  19.958   3.240  22.371 -0.1444 -0.2009  0.1599
11349W        W54365  24.469  24.181   0.551  0.0302 -0.3291 -0.0925
11350W        W54366  29.846  24.582  17.411  0.1325 -0.4545 -0.1029
11351W        W54367  30.669  31.241   2.494  0.2309  0.3898 -0.1268
11352W        W54368  13.688  17.204   0.983 -0.1431  0.1729  0.0182
11353W        W54369  18.311  29.617  19.615 -0.1181 -0.1318 -0.0356
11354W        W54370  17.265  28.787  20.691 -0.0693  0.2071  0.0218
11355W        W54371  23.308  26.378   1.989  0.1124  0.0218  0.3292
11356W        W54372  30.683  29.388  27.087 -0.0473 -0.0730  0.0796
11357W        W54373  25.038  16.448  13.276  0.0748 -0.0237  0.3020
11358W        W54374   1.123   9.733   7.138 -0.1243  0.0460 -0.3193
11359W        W54375  26.602   8.536   4.868 -0.1372  0.1941 -0.2017
11360W        W54376  23.163  27.945  10.317  0.1601 -0.2229 -0.3602
11361W        W54377  28.102  17.154   9.760 -0.1517 -0.3535  0.1213
11362W        W54378  10.567  32.715   2.304  0.2890  0.2916  0.0271
11363W        W54379  29.290  27.074  21.012 -0.0492  0.0212 -0.1948
11364W        W54380  22.521  17.395  14.416 -0.0323  0.0675 -0.0818
11365W        W54381  12.952  25.232  26.375  0.3939  0.1000 -0.0027
11366W        W54382  25.470   1.457  23.699  0.0726  0.3226  0.0849
11367W        W54383  18.242  26.008   5.353  0.1197 -0.0501  0.0761
11368W        W54384  30.738  16.939  29.079  0.0227  0.0663  0.3168
11369W        W54385  13.846   9.574  14.014 -0.0173  0.1118  0.3669
11370W        W54386  14.024  28.591   4.366 -0.1469 -0.0244 -0.3870
11371W        W54387  24.840  28.302   3.272  0.1623 -0.0699 -0.0740
11372W        W54388  21.263  25.675  24.876  0.3622 -0.1510 -0.0648
11373W        W54389  18.857  26.279  26.392 -0.0508 -0.1593  0.4919
11374W        W54390   8.691  17.169  20.139  0.0582  0.3387 -0.0632
11375W        W54391  19.487  26.600   2.329  0.3089  0.0527  0.1091
11376W        W54392  33.165  27.259   1.360 -0.1942  0.1993  0.0290
11377W        W54393  23.683  32.468   8.561  0.1997 -0.2777  0.0329
11378W        W54394  25.187  32.404   9.540 -0.1876  0.1237 -0.3676
11379W        W54395  31.268  16.305  27.294  0.1818 -0.1015 -0.0689
11380W        W54396   7.319  21.635  22.895  0.1095 -0.4535 -0.1789
11381W        W54397  30.579  28.306   3.002 -0.0328  0.0165  0.0444
11382W        W54398   8.053  31.663  27.185  0.2631 -0.1716 -0.1228
11383W        W54399   9.237  34.551   9.010  0.0615  0.1079  0.0171
11384W        W54400  24.301  28.776  28.995 -0.0123 -0.2616 -0.2047
11385W        W54401  21.412  30.887  26.940 -0.1838  0.0213  0.0171
11386W        W54402  18.528  23.542   6.223 -0.0477 -0.0914 -0.2572
11387W        W54403  25.407  19.461   2.973 -0.0440  0.2993 -0.2722
11388W        W54404   4.910  27.425  26.158  0.0246  0.0460  0.0234
11389W        W54405  20.817   0.320  23.974  0.0272  0.0878 -0.0757
11390W        W54406   2.742  29.479   4.145  0.0110  0.1663  0.0430
11391W        W54407  31.069  28.725   4.255  0.0935 -0.0819 -0.0918
11392W        W54408  31.633  15.809   2.405  0.0600  0.1126 -0.0690
11393W        W54409  27.922  27.302   0.899  0.2518 -0.1013 -0.1070
11394W        W54410   6.141  24.514   1.747  0.1038 -0.1086 -0.1162
11395W        W54411  18.422   0.713  17.260  0.1848  0.0611 -0.0573
11396W        W54412   5.929  21.113   7.232  0.2384 -0.1660 -0.1595
11397W        W54413  29.417   8.506  22.784  0.0882  0.0249  0.0119
11398W        W54414  25.960  29.316  29.136  0.0244 -0.5874 -0.1868
11399W        W54415  33.825  34.552  18.653  0.0624  0.3910 -0.1830
11400W        W54416  19.477  34.148  23.365  0.1780  0.1073 -0.0753
11401W        W54417  15.390   0.539  19.015  0.5739  0.1485  0.2921
11402W        W54418  21.960  25.391  22.164  0.1044 -0.1158  0.1362
11403W        W54419  27.683  23.333  26.215  0.0317 -0.0189  0.1252
11404W        W54420  12.158  23.599  18.015 -0.1851 -0.0869 -0.1837
11405W        W54421  25.413  26.738   4.878  0.2389  0.1202 -0.0451
11406W        W54422  29.466  21.104  22.162  0.1318  0.0476 -0.1729
11407W        W54423   3.769  20.543   7.869 -0.0820  0.0641  0.2570
11408W        W54424  27.898  25.470  23.691  0.0381  0.1193 -0.1035
11409W        W54425  12.986  21.912  26.310 -0.1059  0.0018  0.0443
11410W        W54426   6.488  32.523   2.011 -0.0559  0.0405 -0.1136
11411W        W54427  13.111  25.494  28.080  0.1738 -0.0012  0.0540
11412W        W54428  23.269   8.935   3.786  0.1745  0.3455  0.0544
11413W        W54429   9.570  31.742  21.162 -0.1298  0.3025  0.1830
11414W        W54430  20.793  17.284   2.364 -0.0972  0.5361  0.0530
11415W        W54431  14.237  12.099  18.270  0.0354  0.2391  0.1633
11416W        W54432  15.522  18.969  22.392  0.3565  0.0415  0.2384
11417W        W54433  21.511  30.999   7.669  0.2421 -0.2846  0.0209
11418W        W54434  13.486   4.509  25.192  0.1658  0.0273 -0.0318
11419W        W54435   0.206  11.400  15.631 -0.0084  0.3902 -0.3243
11420W        W54436  17.540  27.314   4.377  0.3055  0.1011  0.1084
11421W        W54437  10.817  11.950   7.565 -0.3781  0.3429  0.1176
11422W        W54438  14.684   4.496   0.263 -0.0019 -0.0520  0.2664
11423W        W54439  18.222  17.642   7.522  0.1076  0.0737  0.0014
11424W        W54440  28.797  22.093   7.038  0.0066  0.1370  0.0205
11425W        W54441  28.538  32.716  10.835 -0.0321 -0.2604 -0.1063
11426W        W54442  23.070  12.635   7.426 -0.1599 -0.0759  0.1702
11427W        W54443  29.574  18.810  19.985  0.0158  0.0277  0.0265
11428W        W54444  17.825  15.588  25.071  0.0526  0.0194  0.0306
11429W        W54445  28.158  29.988  25.073 -0.1159  0.1213  0.1828
11430W        W54446  21.239  16.744  12.248 -0.0001  0.1408 -0.4364
11431W        W54447  17.799  28.992  26.791  0.0544 -0.2693  0.4491
11432W        W54448   6.438  22.505  13.507  0.2670 -0.2195 -0.2075
11433W        W54449  19.344  32.671  24.558  0.1241  0.1630 -0.1371
11434W        W54450   1.064  21.669  29.230 -0.1391  0.0453  0.2014
11435W        W54451  20.836   1.332   0.244 -0.3634  0.0137  0.0817
11436W        W54452  32.572  10.377  26.233 -0.1373  0.0269 -0.1953
11437W        W54453  11.205  22.374  24.966  0.2929  0.0262  0.0799
11438W        W54454  22.487  29.951  24.503  0.1586  0.2550 -0.0807
11439W        W54455  12.780  30.753  24.091 -0.0293  0.0417  0.0636
11440W        W54456  24.491  10.298   7.286 -0.1602 -0.1126 -0.1915
11441W        W54457  29.111  19.016  17.408  0.1477  0.2143  0.1660
11442W        W54458  29.847  29.469   7.491 -0.0281  0.0110 -0.1583
11443W        W54459   4.323  15.022   6.461  0.0003  0.0126  0.2620
11444W        W54460   2.853  14.637  18.195  0.1861  0.1434 -0.0573
11445W        W54461  15.377   2.875   5.571 -0.0038 -0.0469  0.1297
11446W        W54462  10.662  26.920  17.421  0.1883 -0.2400  0.1756
11447W        W54463  24.906  24.985  17.839 -0.0900 -0.2996 -0.1092
11448W        W54464  32.394   1.489   0.989  0.1388  0.7039  0.2575
11449W        W54465   9.637  34.136  24.530  0.1192  0.0372 -0.0410
11450W        W54466   8.692  27.951  16.976  0.0481 -0.0092  0.2090
11451W        W54467  30.167  25.309  23.440  0.3596 -0.0896  0.0110
11452W        W54468  31.966  27.879   5.957  0.0839  0.0814 -0.2055
11453W        W54469  30.952  29.436   5.879 -0.0310  0.1533 -0.2883
11454W        W54470  14.058  29.978   2.210  0.1748 -0.1075 -0.4383
11455W        W54471  14.788  19.208   2.021  0.2519  0.1232  0.3189
11456W        W54472  26.538  27.918   8.447 -0.2048 -0.3352 -0.0430
11457W        W54473   0.327  23.982  27.555  0.1394  0.0953  0.0313
11458W        W54474  27.086  17.129  28.625 -0.0399  0.2647 -0.0043
11459W        W54475  24.247   8.688   6.630  0.3063  0.0966 -0.1061
11460W        W54476  12.927   3.831  25.322  0.0950  0.2538  0.0669
11461W        W54477  11.394  33.072  22.954  0.1343 -0.0050 -0.0565
11462W        W54478  14.069   6.513  23.400  0.3198 -0.2996 -0.0158
11463W        W54479   6.169  24.885   3.097  0.0045  0.0017 -0.2186
11464W        W54480  29.734   9.613   3.181 -0.0694  0.0032  0.2352
11465W        W54481  18.518  34.620  28.859 -0.1129  0.1387 -0.2008
11466W        W54482  11.484  32.191  26.036 -0.3393 -0.0911  0.2547
11467W        W54483  32.974  20.082  21.772 -0.3011 -0.5268 -0.0514
11468W        W54484   9.207  22.136   6.598  0.0115  0.0563 -0.2331
11469W        W54485  22.478  21.426  22.848 -0.1822 -0.0397  0.1515
11470W        W54486  18.909  25.423  26.281  0.2342 -0.1631  0.2169
11471W        W54487  29.849  30.921   7.698  0.1318  0.6151  0.0580
11472W        W54488   3.025  24.705  28.183 -0.3802  0.2697 -0.0190
11473W        W54489  13.201  30.103  22.421 -0.0429  0.0273 -0.0487
11474W        W54490  27.158  26.927   8.786  0.2307  0.3430 -0.3746
11475W        W54491  23.628  16.309  28.532 -0.2832  0.3603 -0.1581
11476W        W54492   1.925  29.973   4.017 -0.0938  0.1104 -0.2366
11477W        W54493  19.865  24.985   1.786  0.1563 -0.1695  0.0673
11478W        W54494  11.987   5.055   8.681  0.1963  0.1705 -0.1629
11479W        W54495  11.646   6.315   6.382 -0.1860 -0.1897 -0.3014
11480W        W54496  15.990  31.697  24.772 -0.5838  0.0655 -0.0608
11481W        W54497  23.019  32.335   8.855  0.2261 -0.2165  0.1222
11482W        W54498  25.547  19.020   8.604  0.2441 -0.0669  0.2554
11483W        W54499  24.004  21.192  22.651 -0.3267 -0.0640 -0.0014
11484W        W54500   2.229  30.099   7.546  0.0084 -0.0099 -0.2559
11485W        W54501  15.112  25.255  21.640 -0.3537 -0.1106  0.1908
11486W        W54502  18.474   7.880  15.342  0.1145 -0.2620  0.4032
11487W        W54503  32.096  22.856   5.309  0.0679 -0.0336  0.2981
11488W        W54504  20.819  30.101   5.198  0.0699 -0.2629  0.1464
11489W        W54505  13.099   2.604  27.265  0.0282 -0.0825 -0.1222
11490W        W54506   5.152  22.380   5.438  0.2463 -0.2760  0.0833
11491W        W54507  20.941  17.058  21.337 -0.0528 -0.3157  0.2203
11492W        W54508  24.158  23.759  28.639  0.1682 -0.1041 -0.2547
11493W        W54509  19.588   7.816   0.396 -0.1898  0.0086 -0.0731
11494W        W54510  28.385  31.482  11.356  0.0495 -0.1078  0.0603
11495W        W54511   2.184  25.682   4.065 -0.0442  0.0314  0.2154
11496W        W54512  19.868   8.007  15.538 -0.0906  0.1082  0.0873
11497W        W54513  10.512  23.808   5.412 -0.2865 -0.3134  0.1683
11498W        W54514   7.041   3.746   8.141 -0.0678 -0.3306 -0.0389
11499W        W54515  30.470  31.150  23.734  0.3196  0.1833 -0.1792
11500W        W54516  27.282  24.897   6.176 -0.2304  0.0269  0.1383
11501W        W54517  30.088   0.986  28.993 -0.0963  0.0716  0.2677
11502W        W54518  10.548   0.802   4.597 -0.1109 -0.4021 -0.2497
11503W        W54519   3.890  23.609  25.496  0.0830  0.1288 -0.1523
11504W        W54520  24.299  34.411   9.664  0.0616  0.0317  0.4553
11505W        W54521  24.796  18.847  24.402 -0.4538  0.1083  0.0724
11506W        W54522  32.399  19.532  17.457  0.0995  0.4741  0.0731
11507W        W54523  13.522  24.296  16.393 -0.0656  0.0244  0.0426
11508W        W54524  30.752  34.245   9.913 -0.2127 -0.0670  0.1001
11509W        W54525  19.704   0.497  16.653  0.0022  0.2902  0.0554
11510W        W54526   5.115  31.594  16.588 -0.2816 -0.1000  0.0039
11511W        W54527  21.287  32.841  18.622 -0.0545 -0.5689 -0.2134
11512W        W54528  12.182  32.626  15.253  0.2487 -0.1662 -0.1815
11513W        W54529  20.388  17.671   7.477  0.2147  0.0134 -0.0687
11514W        W54530  18.123  24.026   4.541  0.1967  0.0462  0.1466
11515W        W54531  26.789  27.027  27.747  0.1507 -0.3384 -0.4984
11516W        W54532  24.204   3.081  27.961  0.1710  0.1577 -0.2176
11517W        W54533  32.529  23.591  23.851 -0.0259  0.0021 -0.0835
11518W        W54534  16.500  34.271   6.655 -0.2356 -0.1712  0.2161
11519W        W54535  28.259  10.996   6.835 -0.0346 -0.0742 -0.1782
11520W        W54536  19.705  32.098  28.673  0.0024 -0.0886  0.1518
11521W        W54537  24.696  33.716  18.974 -0.0884 -0.2257  0.2180
11522W        W54538  28.030   6.101  16.935  0.1349  0.0614  0.0557
11523W        W54539   9.180  11.623   0.581  0.1064 -0.1644  0.1436
11524W        W54540  24.124   0.372  15.489  0.4163  0.4366  0.3302
11525W        W54541  18.285  17.069  15.293 -0.3884 -0.1363  0.2552
11526W        W54542   1.598  23.350   8.146 -0.5919 -0.3701 -0.1492
11527W        W54543  19.477  22.967  27.526  0.1746 -0.1277  0.1593
11528W        W54544  12.609  30.581  18.373 -0.2575  0.1887 -0.2252
11529W        W54545   8.192  29.994  18.157  0.0531  0.1441  0.1190
11530W        W54546  18.930  22.372  15.986  0.0590  0.1304  0.2901
11531W        W54547   8.595  31.580  26.243  0.0967 -0.2376 -0.3193
11532W        W54548  24.310  21.250  23.598  0.1256  0.2647  0.1207
11533W        W54549  20.644  26.386  15.999  0.0318  0.2453 -0.1483
11534W        W54550  30.268  12.119   8.782  0.0072  0.1126 -0.1873
11535W        W54551   0.535  34.267  27.220 -0.0457  0.0752  0.1375
11536W        W54552  32.514   1.058   1.161  0.0623  0.3426 -0.0612
11537W        W54553  15.837   5.994   3.054  0.2893 -0.2584 -0.1139
11538W        W54554  33.854  33.830   9.448 -0.1353  0.0009 -0.0425
11539W        W54555  32.597  34.564   4.154 -0.0619  0.2408 -0.0436
11540W        W54556  18.895  31.282  26.114 -0.1179  0.1500 -0.2293
11541W        W54557   5.468  14.278   7.613  0.1684 -0.0653 -0.0055
11542W        W54558  23.407   9.663  21.756  0.1272 -0.0717 -0.0248
11543W        W54559  12.868  34.080  24.137 -0.1329 -0.2434  0.1594
11544W        W54560  24.746   3.157  10.592  0.1517 -0.0519  0.3254
11545W        W54561  15.342  31.718   6.991  0.1184  0.0372 -0.0303
11546W        W54562  33.585  20.992  17.950  0.1432  0.0581  0.1531
11547W        W54563  33.208  14.763  23.893 -0.0259 -0.1966 -0.1059
11548W        W54564   6.601  18.738   0.531  0.2022  0.0276  0.0114
11549W        W54565  22.874   3.559  21.829  0.0930  0.4587  0.5088
11550W        W54566  17.881  22.030  21.132 -0.0151 -0.0727  0.2469
11551W        W54567   6.317   6.826  10.155 -0.0048  0.0703 -0.0194
11552W        W54568  28.439   8.074  22.704  0.1770  0.4602  0.1244
11553W        W54569   0.002  12.650   0.903  0.1139 -0.0799  0.3242
11554W        W54570   1.787  18.528  20.894  0.1553 -0.1454 -0.1363
11555W        W54571  12.537  22.819   5.952 -0.1398  0.0056  0.1190
11556W        W54572  12.490   6.435   4.272  0.1945  0.0068  0.1783
11557W        W54573  23.030   6.659  27.329  0.0032 -0.1309  0.4536
11558W        W54574  27.945   2.775  27.247 -0.0480  0.2859 -0.1563
11559W        W54575  25.187  34.551   8.719  0.0359  0.0661  0.3775
11560W        W54576  24.675   7.932   6.159 -0.2478 -0.1721 -0.0451
11561W        W54577  25.062  32.824   8.290  0.0558 -0.0014  0.0742
11562W        W54578  33.280   9.462  15.487  0.2649  0.0174  0.0878
11563W        W54579  30.492  21.458  11.443 -0.0769 -0.1815  0.0251
11564W        W54580   1.101  32.855  16.136  0.0936 -0.2483  0.0287
11565W        W54581  23.072  17.284   0.756  0.2549  0.0291  0.0671
11566W        W54582  16.672  30.181   6.410  0.0309 -0.3128 -0.3238
11567W        W54583  25.707   9.576  19.346 -0.1565 -0.0470 -0.0201
11568W        W54584  29.266   1.383   7.489 -0.0374 -0.1169 -0.1207
11569W        W54585  12.233  25.843   9.515 -0.0163 -0.0785  0.1832
11570W        W54586  19.045   1.444  26.369 -0.0639  0.1571  0.0606
11571W        W54587   1.803  19.659  26.456  0.4427  0.1944  0.1290
11572W        W54588  32.354  24.966  18.448 -0.0707  0.0659  0.0128
11573W        W54589  25.378  31.440  26.835  0.2470  0.2174 -0.2305
11574W        W54590  27.575  28.859  22.718  0.2045 -0.1040 -0.1389
11575W        W54591   3.695  32.965   6.719  0.5283 -0.3035 -0.1509
11576W        W54592  18.068  32.104  23.372  0.0118  0.2190  0.2444
11577W        W54593  25.325   7.681  27.827  0.1531 -0.1494 -0.2462
11578W        W54594  25.912   0.674   5.857 -0.1753 -0.2239 -0.1367
11579W        W54595  29.900  18.315  27.262  0.2549 -0.2419  0.1206
11580W        W54596  27.842  28.686   0.439  0.1158 -0.3060  0.0876
11581W        W54597  20.232  24.779   9.456 -0.3728  0.1417  0.0361
11582W        W54598   0.362   7.875   8.510  0.0369  0.0762  0.1679
11583W        W54599  27.772  24.507   7.525  0.0022 -0.0140 -0.1575
11584W        W54600  23.625  31.774  25.613  0.2017  0.2698 -0.1264
11585W        W54601  18.656  18.950  26.770 -0.0057  0.0160 -0.3483
11586W        W54602  25.763   6.651  16.648  0.2521  0.2360 -0.1997
11587W        W54603  21.792   3.444  15.611  0.1212 -0.0356 -0.1027
11588W        W54604  15.275  27.144  20.002 -0.3732  0.0260 -0.2240
11589W        W54605  29.758  23.030  17.103  0.0048  0.0662 -0.1055
11590W        W54606  17.668   1.027  24.626 -0.0458 -0.1692  0.0530
11591W        W54607  19.327   3.466  25.965  0.0842 -0.0346  0.0165
11592W        W54608   7.908  20.886  15.121  0.1440 -0.0117  0.0562
11593W        W54609  18.759  16.093  25.395  0.0162  0.2334 -0.0792
11594W        W54610  17.765  20.298  22.345  0.0142 -0.0966 -0.1524
11595W        W54611  22.497  15.971  12.560  0.0128 -0.1421  0.0344
11596W        W54612  13.261   9.862  21.796 -0.0491  0.1460  0.0111
11597W        W54613  25.986   7.484  28.306 -0.0783  0.3591 -0.2269
11598W        W54614  22.531  22.159  21.244 -0.0459 -0.2052  0.1970
11599W        W54615  33.459  30.732  24.699 -0.1640 -0.0712  0.3075
11600W        W54616  23.281  19.747   5.071 -0.0580  0.2225 -0.1072
11601W        W54617   0.707  13.782   1.759 -0.0917 -0.0301  0.0579
11602W        W54618   0.157  23.632   3.546 -0.0844  0.3184  0.0084
11603W        W54619  27.371   0.994  26.377  0.0320 -0.0010  0.1194
11604W        W54620  22.737  24.450  28.879 -0.4535 -0.1213  0.3137
11605W        W54621  19.739  29.439  18.904 -0.0271  0.1586 -0.0138
11606W        W54622  12.356   1.185   1.698 -0.1865 -0.0696 -0.0746
11607W        W54623   0.464  30.854   8.163  0.2239 -0.2323 -0.3656
11608W        W54624   4.147  28.754  23.480 -0.0168  0.1118  0.0997
11609W        W54625  21.312  20.993  23.786 -0.0996 -0.2421  0.3028
11610W        W54626  22.004  29.849  20.459 -0.0378  0.2296  0.1503
11611W        W54627   5.904  27.411  10.736 -0.0925  0.0561  0.3408
11612W        W54628  17.294  29.441  22.817 -0.2589 -0.4164  0.0185
11613W        W54629  24.347  19.165   3.286  0.2911  0.0407  0.0870
11614W        W54630  27.949   9.461   4.395 -0.0349  0.5202 -0.0515
11615W        W54631  15.604   1.443   8.270  0.1780 -0.0674 -0.1323
11616W        W54632   8.760  27.744  26.887  0.1849  0.3259  0.0753
11617W        W54633  19.637  23.798   3.921  0.0049 -0.0061 -0.2201
11618W        W54634  19.733  22.325  21.216  0.2411  0.0701  0.0400
11619W        W54635  26.209   4.460  29.255 -0.4138 -0.2099  0.0317
11620W        W54636  27.111  17.235  16.108 -0.1621  0.2544 -0.0156
11621W        W54637  20.380   6.114  28.366  0.0628  0.2335 -0.1754
11622W        W54638  25.101  33.655   4.190  0.0793  0.1647 -0.1409
11623W        W54639  34.011  30.020   4.166 -0.0044 -0.0828 -0.1759
11624W        W54640  29.223   1.071  19.417  0.0408 -0.0648  0.3992
11625W        W54641   9.539  11.088  29.069  0.1588 -0.0114  0.0411
11626W        W54642  25.133   7.379   9.644 -0.2653 -0.2241 -0.2131
11627W        W54643  23.197  23.665   0.518  0.3001 -0.0711 -0.3388
11628W        W54644   1.532   4.895  24.322  0.0940 -0.0911 -0.0154
11629W        W54645  29.123   9.081  28.696  0.0934 -0.0170  0.2649
11630W        W54646  30.947  28.200  27.137  0.1567 -0.1768 -0.3124
11631W        W54647  18.496  27.632  23.656  0.1301  0.1670  0.2404
11632W        W54648   8.743  21.922  19.955 -0.2013  0.0640 -0.1494
11633W        W54649  16.414  25.384   9.864 -0.2534 -0.1667 -0.2483
11634W        W54650  31.601  32.372   9.603  0.1000 -0.0905 -0.2426
11635W        W54651  11.498  30.384  19.862  0.2878  0.1858 -0.2860
11636W        W54652  24.672   1.774   7.092 -0.0071 -0.3695  0.3399
11637W        W54653  22.602  29.778  27.183  0.0938  0.2260  0.0260
11638W        W54654  21.343   9.391   6.328 -0.1234  0.1636  0.2276
11639W        W54655  26.685  26.994   2.806  0.0142  0.1517 -0.2566
11640W        W54656   8.460  27.066   4.032  0.1339  0.1149  0.0352
11641W        W54657  31.982  13.970  14.343  0.0832 -0.0591 -0.2237
11642W        W54658  14.927   1.607  18.729 -0.2904 -0.2854 -0.0228
11643W        W54659  20.859  12.021   3.381  0.2023  0.1917 -0.1186
11644W        W54660   0.652  29.537   8.573  0.1340  0.2851 -0.0228
11645W        W54661  13.805  29.475   9.763  0.0956 -0.1185  0.0030
11646W        W54662  25.939  33.595   8.826  0.0873 -0.0216 -0.1089
11647W        W54663  11.265   6.716   6.641  0.0208 -0.1446  0.3217
11648W        W54664  20.519  15.794   6.445  0.0434  0.1111  0.0172
11649W        W54665  12.794  34.329  26.915 -0.3161  0.3164  0.3344
11650W        W54666  27.050  24.854  24.153 -0.2777 -0.0919 -0.2270
11651W        W54667  19.543  20.350   0.297 -0.1545  0.1408 -0.0399
11652W        W54668   5.707   3.535  18.921 -0.1152 -0.0824  0.0248
11653W        W54669   9.851  22.575  22.066  0.3183  0.2739 -0.2698
11654W        W54670  26.344   3.059  21.007  0.2551  0.0745  0.0597
11655W        W54671  30.964  22.683  15.988  0.0986 -0.0966 -0.0579
11656W        W54672  24.335  29.768  28.385 -0.3763  0.2797  0.1768
11657W        W54673   8.603  18.357   6.855  0.0924 -0.1193 -0.3034
11658W        W54674  22.075  15.630   7.941 -0.0714 -0.2135  0.0935
11659W        W54675   7.913  21.387   7.842  0.0373 -0.0522  0.1007
11660W        W54676  33.767  24.160  20.413  0.1713 -0.0463  0.0118
11661W        W54677  25.032  22.287  15.391  0.0632  0.1126  0.1841
11662W        W54678  27.252  17.204   9.271  0.1271  0.1486 -0.0222
11663W        W54679  29.019   2.070  20.655 -0.1267 -0.0300 -0.1871
11664W        W54680  23.173  32.108   0.653 -0.0598 -0.0380  0.1833
11665W        W54681  18.884  19.009  25.844 -0.0182 -0.1007 -0.2304
11666W        W54682  17.310   0.897   3.155  0.2815 -0.0812 -0.2280
11667W        W54683   6.494  16.131  27.959  0.0025  0.1972  0.0029
11668W        W54684  12.734  26.586   3.191  0.0476 -0.1603 -0.0885
11669W        W54685   2.833  27.909  14.775  0.1262  0.0314 -0.2368
11670W        W54686  26.625  20.999  10.261  0.1096  0.1205  0.3479
11671W        W54687   3.266  27.564  29.009 -0.1616 -0.0295  0.0186
11672W        W54688  17.356  29.516  21.455  0.2159  0.3715 -0.3332
11673W        W54689  13.391   1.854   9.136 -0.1080 -0.2731 -0.3087
11674W        W54690  11.011  21.832  24.962 -0.0409 -0.1586  0.1676
11675W        W54691  22.606  28.798   1.172 -0.0162  0.2593  0.0615
11676W        W54692   9.156  30.407   6.201 -0.1972 -0.1808 -0.1780
11677W        W54693  17.383  31.804  29.033 -0.2337 -0.0444  0.1012
11678W        W54694  28.481  19.328  25.742  0.1006 -0.1098  0.1308
11679W        W54695  23.231  33.808   1.309  0.0629 -0.0824  0.0232
11680W        W54696  12.357   9.212   0.761  0.1850 -0.1567 -0.1834
11681W        W54697  16.929  31.976   0.094  0.0288  0.0554  0.2192
11682W        W54698  20.721   7.721  21.827  0.3175 -0.0678 -0.0158
11683W        W54699  25.247  19.395   8.706  0.2062  0.1236  0.0591
11684W        W54700  29.805  32.324  12.228 -0.1699 -0.0726 -0.1420
11685W        W54701  10.667  30.009   2.928  0.1648 -0.1490  0.0241
11686W        W54702  17.597   3.297   0.255  0.0978  0.0293 -0.0345
11687W        W54703  14.327  23.733   5.531 -0.0496  0.2119 -0.3723
11688W        W54704  17.705  26.116  24.626 -0.0844  0.1975  0.1830
11689W        W54705  20.150   7.072   7.004  0.1898 -0.2155  0.1492
11690W        W54706   2.010  10.938  19.194 -0.0364 -0.0949 -0.0938
11691W        W54707   9.455  28.181  26.609  0.1218  0.0773 -0.1753
11692W        W54708  13.455   0.856   5.889  0.1521  0.2816 -0.0559
11693W        W54709  30.855  18.475   0.500 -0.0199  0.0526 -0.3503
11694W        W54710  18.109  28.594   4.651  0.2069  0.1812  0.0148
11695W        W54711  32.833   0.716   8.719 -0.0973  0.3577  0.3256
11696W        W54712  16.421  25.468   2.691 -0.1034 -0.0340 -0.2217
11697W        W54713  16.993   9.275   3.628  0.1514  0.2020  0.0351
11698W        W54714  18.707   5.301   7.907 -0.0949  0.1459  0.0036
11699W        W54715  29.547  23.542  29.292  0.2255 -0.0198 -0.1682
11700W        W54716  15.799  24.182   2.451  0.2336 -0.3862  0.0442
11701W        W54717  34.056  11.355   2.723 -0.2775  0.0217  0.1036
11702W        W54718  13.968  22.714   2.803  0.1431  0.2393 -0.1834
11703W        W54719  22.385  19.370   4.989  0.1175  0.0750 -0.0766
11704W        W54720  26.104  25.066   3.485  0.2791  0.1515  0.0254
11705W        W54721  13.485  25.768   5.906 -0.4328  0.0235  0.2537
11706W        W54722  17.089  15.132  22.746 -0.0677 -0.3420 -0.2157
11707W        W54723  17.179   7.973   3.036  0.0977 -0.2146  0.0091
11708W        W54724  23.706  30.077  16.878 -0.0889  0.0634  0.1164
11709W        W54725  11.457  28.862  18.326  0.1316 -0.0915 -0.1497
11710W        W54726  23.606   0.306  23.997  0.5704  0.0642 -0.2408
11711W        W54727   1.456  22.097   2.775 -0.1269  0.0012  0.1106
11712W        W54728   6.845  13.457  21.675 -0.1900 -0.0294 -0.1965
11713W        W54729  27.600  21.222   0.858 -0.0995 -0.2849  0.2860
11714W        W54730   5.683  19.149   0.250  0.0784 -0.1254 -0.1157
11715W        W54731  22.464  16.165  26.863  0.0131 -0.4242  0.0316
11716W        W54732   4.966  24.720   8.566  0.2614 -0.2001 -0.1501
11717W        W54733  29.549   4.041  24.760  0.3393 -0.0912 -0.1500
11718W        W54734  11.736  22.696  12.774 -0.0341 -0.1845  0.0123
11719W        W54735  30.348   5.637  20.736  0.0857  0.0418  0.7055
11720W        W54736  16.071  29.696  10.726 -0.3838 -0.0487  0.1624
11721W        W54737  31.638   7.165   5.927  0.2201 -0.0293 -0.2861
11722W        W54738  21.975  12.044  19.044  0.1057  0.1684 -0.1470
11723W        W54739  33.233  14.206  21.589 -0.0970  0.0782 -0.0263
11724W        W54740  25.518  25.922  26.193 -0.0809  0.0729 -0.0316
11725W        W54741   9.261   8.267  26.464 -0.0621 -0.2566 -0.0063
11726W        W54742  12.508  25.131  26.145  0.1287 -0.1114  0.0355
11727W        W54743  21.965  34.546  17.053  0.2430  0.2147 -0.3443
11728W        W54744  33.515  16.282   5.027 -0.3028 -0.0115  0.1517
11729W        W54745  15.510  30.420   5.691 -0.3093 -0.0077 -0.1118
11730W        W54746  26.648   1.497  23.447  0.0227  0.2194  0.0858
11731W        W54747  25.579   9.112  10.271 -0.0581  0.3521 -0.0993
11732W        W54748  24.850  24.161  10.506 -0.0630  0.1943  0.1735
11733W        W54749  20.366  17.058  21.200  0.1712  0.2140 -0.0627
11734W        W54750  13.903  27.340   3.756  0.0887 -0.1346  0.4405
11735W        W54751  32.261  16.754  15.903 -0.1509 -0.2530  0.2851
11736W        W54752  18.355   6.836   9.740 -0.1418  0.0264 -0.1260
11737W        W54753  13.090  32.313   0.013 -0.0962 -0.0288 -0.0278
11738W        W54754  14.100   6.704   7.171  0.0251 -0.2539 -0.0722
11739W        W54755   0.692  17.460  19.322  0.0854  0.1340  0.3046
11740W        W54756  25.958  33.280  11.345  0.0278 -0.0237 -0.0895
11741W        W54757  28.393  30.295   1.299 -0.1234 -0.0158 -0.2149
11742W        W54758  24.614   0.903  26.832  0.2476  0.1692  0.1895
11743W        W54759  20.259  28.921   2.297 -0.0280  0.0066  0.2801
11744W        W54760  18.567  30.481  19.842  0.1176  0.1760 -0.0225
11745W        W54761  24.958   1.892  11.537 -0.0474 -0.1526  0.0251
11746W        W54762  25.684  29.485   3.693 -0.1941 -0.2764 -0.4161
11747W        W54763   5.500  24.684   8.800  0.0683 -0.0042 -0.1227
11748W        W54764   8.312   2.472  26.151 -0.0330  0.0326  0.0248
11749W        W54765  20.825  13.178  20.861  0.1108 -0.2958 -0.0449
11750W        W54766  14.108  22.062  16.098  0.0333  0.1470 -0.4018
11751W        W54767  15.172   0.704  18.590  0.0688 -0.0641  0.0886
11752W        W54768  16.795  17.583  26.678 -0.1251  0.1528 -0.3173
11753W        W54769   9.872  16.023   5.496  0.2794  0.0934 -0.3110
11754W        W54770   9.898  28.383   0.381 -0.1603  0.1096 -0.0238
11755W        W54771  12.450  27.380  17.206  0.0466  0.1524  0.1945
11756W        W54772  12.518  22.755   1.421  0.1819  0.2462 -0.0528
11757W        W54773  24.572  12.212  24.048 -0.0080 -0.3609 -0.0041
11758W        W54774  21.686  34.581   0.595  0.1815  0.1287 -0.0271
11759W        W54775  31.791  14.299  17.105  0.0470  0.1747 -0.1082
11760W        W54776  13.095  17.159  26.853  0.0644  0.0734 -0.2482
11761W        W54777  25.181   6.991  21.980  0.2291 -0.6043 -0.0681
11762W        W54778  20.699   1.349  19.919  0.0894 -0.1084  0.1487
11763W        W54779  12.085   0.886  28.635 -0.0097 -0.1326  0.0824
11764W        W54780  29.628  27.085  22.001 -0.1580  0.0457  0.2457
11765W        W54781   3.730  31.434   3.940  0.2584  0.0896 -0.1265
11766W        W54782  21.742   2.147  16.833 -0.0502  0.0207 -0.3678
11767W        W54783  23.608   2.798  17.810  0.1031 -0.1141 -0.1190
11768W        W54784   9.415  29.135  13.872  0.1810  0.2372  0.3432
11769W        W54785  21.973  20.902  25.329  0.2512  0.0594 -0.0596
11770W        W54786   6.577   0.013  18.125  0.0325  0.1523  0.0350
11771W        W54787  15.570   4.459  13.998  0.0380  0.0549 -0.5302
11772W        W54788  15.737   4.532  26.494  0.2970  0.2525  0.0967
11773W        W54789   6.218   7.719  20.821 -0.0698  0.3803  0.3318
11774W        W54790   6.261  10.829  21.546  0.0967  0.1151 -0.4657
11775W        W54791  30.801  22.766  19.336 -0.3167 -0.3123  0.1850
11776W        W54792   5.927  15.836  18.207  0.1429 -0.1899 -0.2230
11777W        W54793   9.865  29.271  16.065  0.1275 -0.0659 -0.1897
11778W        W54794  13.960   0.807  19.881 -0.0550  0.2685 -0.4435
11779W        W54795  29.126  28.333   1.977 -0.0383  0.3480 -0.2159
11780W        W54796  28.770  32.263  20.845  0.0306 -0.3017  0.1758
11781W        W54797  26.312  29.327  25.191 -0.0116  0.3610 -0.0710
11782W        W54798  26.207  30.485  17.360 -0.1772 -0.0471  0.1066
11783W        W54799   6.180  23.332   2.096 -0.2129 -0.0690 -0.0039
11784W        W54800   0.679  24.749   0.260 -0.2660  0.3958 -0.0858
11785W        W54801  24.411  15.385  13.704  0.2708 -0.2672  0.1569
11786W        W54802  16.251  27.974  18.169 -0.0889 -0.0590  0.1101
11787W        W54803  16.154   7.628  14.689  0.2383 -0.1484  0.3179
11788W        W54804  27.875  29.303  18.730 -0.2285  0.2280  0.2566
11789W        W54805  28.384  22.880  15.313  0.1714  0.0123 -0.3048
11790W        W54806  21.360   4.448  19.050  0.2430 -0.2002  0.1033
11791W        W54807  31.873   1.132  27.942 -0.0317  0.1988 -0.0639
11792W        W54808  22.521  28.219  21.760 -0.2660  0.1621  0.0239
11793W        W54809  25.230  31.690  26.462 -0.1395  0.1620  0.0039
11794W        W54810  25.991  29.535  19.712  0.0887  0.0077 -0.2787
11795W        W54811  25.533  23.193  28.137 -0.0348  0.3714 -0.1365
11796W        W54812  20.626  29.820  26.773 -0.3270  0.0704  0.0072
11797W        W54813  27.343  15.297  18.154  0.1033  0.2072 -0.3404
11798W        W54814   2.421  27.459  25.463  0.1885 -0.3142 -0.2333
11799W        W54815  19.865  30.994  26.945 -0.1914 -0.0492  0.0350
11800W        W54816  24.344   3.316  20.559 -0.2799  0.3032  0.0076
11801W        W54817  33.770  18.277  15.032  0.4512 -0.1317 -0.0606
11802W        W54818  11.674  13.511  13.464 -0.3265  0.0822 -0.2968
11803W        W54819  27.816   0.159  20.253  0.0473  0.1984  0.4005
11804W        W54820  28.777   5.141  17.630 -0.0898 -0.1094 -0.2106
11805W        W54821   7.566   2.078  16.777 -0.0714 -0.0609 -0.2284
11806W        W54822  34.753   5.492  27.549  0.2474  0.0094  0.0171
11807W        W54823   2.908  26.182  17.277 -0.4242 -0.1312 -0.3134
11808W        W54824  21.423  24.523  21.109 -0.0196  0.0365 -0.1080
11809W        W54825  31.999  14.914  22.872 -0.2922  0.0307 -0.2124
11810W        W54826  27.146  22.047  26.629 -0.2813 -0.0452 -0.1058
11811W        W54827  10.082  28.693  29.284 -0.1367 -0.0529  0.0993
11812W        W54828   6.650  31.348  16.882 -0.2837  0.1178  0.1020
11813W        W54829  19.431   1.225  15.406 -0.2904 -0.0356  0.1106
11814W        W54830  21.939  26.953  21.745 -0.2155  0.1459  0.0115
11815W        W54831  34.240   2.500  20.910 -0.1919  0.2310  0.1060
11816W        W54832   3.098  26.131  26.299 -0.0487  0.1744  0.2275
11817W        W54833  25.798  30.624  25.016  0.2694 -0.0613  0.1475
11818W        W54834  11.317  26.299  15.971  0.2148  0.0258 -0.1838
11819W        W54835  31.593   5.509  18.182  0.0942 -0.2996 -0.1625
11820W        W54836  26.758  25.657  18.503  0.0618  0.1451  0.3878
11821W        W54837  31.570   9.513  24.938  0.1639 -0.1780 -0.5131
11822W        W54838  26.093  15.089  20.833 -0.1039  0.2003  0.4123
11823W        W54839  34.056  33.574  15.614 -0.0011 -0.0673 -0.1064
11824W        W54840  17.791  34.274  27.747 -0.2577  0.3016 -0.1241
11825W        W54841  28.978  32.761  25.150  0.2302 -0.0133  0.0075
11826W        W54842  31.038  23.245  25.368 -0.0042 -0.0769 -0.0561
11827W        W54843   9.335  34.367  23.161 -0.0570  0.1123 -0.0133
11828W        W54844  16.122   6.615  21.351 -0.0067 -0.1415 -0.1719
11829W        W54845   2.967   7.606  15.934 -0.4323  0.2547 -0.0339
11830W        W54846  16.308   2.191  25.088 -0.3166 -0.1212 -0.0447
11831W        W54847  20.031  30.915  27.463  0.1961 -0.1430 -0.4978
11832W        W54848  12.212   1.437  15.357  0.1031 -0.1159 -0.2216
11833W        W54849  24.234  11.804  24.006  0.0669  0.2984  0.1293
11834W        W54850  28.572  11.510  16.456 -0.0367 -0.1525  0.2202
11835W        W54851  13.208  26.087  22.344 -0.0413 -0.1839  0.2162
11836W        W54852  23.616  28.457  24.562  0.0583  0.0460 -0.2038
11837W        W54853  28.974  10.733  23.541 -0.1023 -0.1155  0.1982
11838W        W54854  20.870  12.525  21.727 -0.0359 -0.0477  0.0613
11839W        W54855  22.059  29.179  21.343  0.0846 -0.2817 -0.0563
11840W        W54856  30.562  23.818  22.445 -0.2413  0.0490  0.1483
11841W        W54857  29.805  26.520  15.742 -0.0825 -0.0241  0.0581
11842W        W54858  24.832  32.796  15.491 -0.1312  0.0107  0.1460
11843W        W54859  21.886  25.925  15.481 -0.0146  0.0062  0.0074
11844W        W54860  28.101  19.884  19.439 -0.0576 -0.0518  0.1206
11845W        W54861  28.265  28.622  24.630  0.0482 -0.0761 -0.3168
11846W        W54862  23.884  31.605  18.856  0.2290 -0.1359 -0.3052
11847W        W54863  25.986  22.750   7.013  0.2851  0.0162 -0.1108
11848W        W54864   8.105  31.520  15.654 -0.1906  0.1204  0.6865
11849W        W54865  32.356  24.417   4.148  0.1154  0.1767  0.3103
11850W        W54866  19.933   9.503  19.090  0.1409  0.0834 -0.1210
11851W        W54867  16.065  29.647  15.672  0.0242  0.1619  0.1195
11852W        W54868   2.782  33.832  14.676 -0.2003  0.0941  0.1079
11853W        W54869  25.960   7.147  21.834  0.1357  0.2902 -0.2353
11854W        W54870   0.121  23.826  23.155  0.2080  0.0201  0.0517
11855W        W54871  34.629   1.931  18.277 -0.0677  0.2816  0.0104
11856W        W54872  15.458   3.200  28.344 -0.3023 -0.1117 -0.1637
11857W        W54873  32.342   6.826  24.059 -0.1851  0.0263  0.1021
11858W        W54874   6.692   2.498  20.640 -0.1549  0.0973 -0.1105
11859W        W54875  20.886  28.173  22.864 -0.0023 -0.0923  0.0074
11860W        W54876   0.548  29.938  19.847 -0.1853 -0.3173 -0.1073
11861W        W54877  16.023  31.266  24.374 -0.3379 -0.0060  0.2562
11862W        W54878  23.097  22.174  22.546 -0.0956  0.2133 -0.0516
11863W        W54879  33.514  28.187  22.282 -0.3141  0.2248 -0.0289
11864W        W54880   9.676   6.647  24.917 -0.1656 -0.2297 -0.1209
11865W        W54881  23.385  29.853  28.496  0.3331 -0.1180 -0.2799
11866W        W54882  27.121   0.338   5.519  0.0417  0.0340 -0.2858
11867W        W54883  24.457   2.846   1.227  0.2096 -0.2209 -0.0960
11868W        W54884  27.789  29.895  19.411 -0.0964 -0.2369  0.0718
11869W        W54885  33.178  28.581  25.585  0.3051  0.1174  0.4179
11870W        W54886  15.242   3.407  15.685 -0.1285 -0.2068  0.3223
11871W        W54887  17.996  27.659  15.144  0.1021 -0.1315 -0.1237
11872W        W54888  26.684  33.029  29.274 -0.2891 -0.0446  0.0852
11873W        W54889  21.964  13.840  15.105 -0.1691  0.0052 -0.0794
11874W        W54890  25.217  30.838  18.560  0.2089 -0.2656  0.0034
11875W        W54891  24.418   9.328  17.564 -0.2351 -0.0935 -0.0778
11876W        W54892  26.050  17.359  28.937 -0.4195  0.0224  0.1930
11877W        W54893  16.925   7.552  27.127  0.3556  0.2643  0.0412
11878W        W54894  22.089  26.064  23.191  0.0164 -0.0255 -0.2520
11879W        W54895  24.145   2.078  23.353 -0.0554 -0.1374  0.3458
11880W        W54896  11.624   0.973  20.648 -0.0464 -0.1266  0.1042
11881W        W54897  30.328  16.313  24.741 -0.2944 -0.0425  0.0970
11882W        W54898   8.625  28.325  16.059 -0.0497  0.1352 -0.1091
11883W        W54899  32.090   2.159  20.510 -0.0519 -0.0550  0.4849
11884W        W54900  25.071   8.510  29.190  0.1580 -0.1972  0.0410
11885W        W54901  15.847   0.988  28.026  0.0844  0.0806  0.0890
11886W        W54902  25.307  24.640  19.714  0.1868 -0.1374  0.1193
11887W        W54903   1.931  21.480  14.317  0.2559 -0.3660  0.0758
11888W        W54904  12.177  14.261  14.798 -0.0308 -0.1417 -0.0011
11889W        W54905  30.826  21.644  18.811  0.0176  0.0638 -0.1708
11890W        W54906  25.243  29.158  23.027  0.0590 -0.2106 -0.0106
11891W        W54907  21.585  26.513  16.449 -0.0148  0.2364 -0.1430
11892W        W54908  25.981  26.363   6.227 -0.0377  0.1413  0.2380
11893W        W54909  19.068   6.250  19.798 -0.1765 -0.3059 -0.2399
11894W        W54910  29.182  20.645  21.358 -0.1562  0.0139 -0.1340
11895W        W54911  19.806  29.067  23.969  0.0072 -0.4071 -0.2012
11896W        W54912  13.808   4.992  17.130 -0.1235 -0.2218 -0.2958
11897W        W54913  20.045  30.724   5.921 -0.2046  0.1407  0.2216
11898W        W54914  21.266   8.840  15.540  0.0983 -0.0740  0.0620
11899W        W54915  24.333  32.407  19.332 -0.1995  0.0258  0.2191
11900W        W54916  20.390  10.322   2.791 -0.4438 -0.1035  0.2961
11901W        W54917  32.398  32.197  17.486  0.3051 -0.1143 -0.4372
11902W        W54918  34.735  34.507  17.973 -0.1132 -0.3123  0.2232
11903W        W54919   2.779  28.804  21.861 -0.1982  0.0176 -0.1555
11904W        W54920  27.154   9.717  27.281 -0.2162  0.0508  0.0738
11905W        W54921   7.152   1.103  19.522  0.2338 -0.3501 -0.1020
11906W        W54922  25.610  33.805  17.856 -0.0399 -0.0562 -0.1360
11907W        W54923  24.659  14.117  21.310 -0.0971  0.2428  0.2735
11908W        W54924  26.296  18.286  22.379  0.1022  0.0075 -0.1929
11909W        W54925  25.235  18.768  24.816  0.2781  0.1689  0.0718
11910W        W54926  23.672   0.954  24.813 -0.0637  0.2369 -0.2116
11911W        W54927  27.849  27.538  23.992  0.1992 -0.1380  0.0853
11912W        W54928  24.327  20.390  14.117  0.0560 -0.1342  0.0521
11913W        W54929  29.411  18.750  21.812  0.1482 -0.1610 -0.0807
11914W        W54930  25.827  25.607  19.791  0.1023 -0.1430  0.2365
11915W        W54931  22.342  30.217   1.704  0.1990  0.2590  0.2383
11916W        W54932  15.235  27.832  16.425 -0.1103 -0.1417 -0.1349
11917W        W54933  23.455   1.498  19.141 -0.1719 -0.0635 -0.0667
11918W        W54934  18.199  16.342  13.649  0.0730 -0.0988 -0.4020
11919W        W54935  17.680  31.508  20.888  0.0947  0.2587 -0.0864
11920W        W54936  31.657   6.870  24.667 -0.1572 -0.1465  0.1979
11921W        W54937  21.906   6.718  28.894 -0.0992  0.0905 -0.3108
11922W        W54938  13.292  28.463  15.641  0.0787  0.0309  0.0692
11923W        W54939  18.821  26.963   3.442  0.0753  0.1693 -0.0896
11924W        W54940   9.208   8.182  15.175 -0.2141 -0.1236 -0.2203
11925W        W54941  28.657  25.667  29.156  0.0856 -0.0830  0.2274
11926W        W54942  31.053  18.376  19.165  0.0902  0.1008 -0.0943
11927W        W54943  24.873   1.126  16.882 -0.0886 -0.0479  0.0119
11928W        W54944  18.214   1.916  22.789  0.0515 -0.1726 -0.2279
11929W        W54945  30.614   4.918  18.303 -0.0346  0.0423  0.2012
11930W        W54946  24.763   4.900   0.407 -0.0640  0.1589  0.2665
11931W        W54947  30.622  29.042  17.347 -0.3116  0.1798 -0.1626
11932W        W54948  32.538  32.007  15.657 -0.0230  0.3054  0.0754
11933W        W54949  27.902  25.991  23.503  0.3621  0.1188  0.1276
11934W        W54950  34.066  22.191   0.172 -0.1091 -0.1662 -0.2186
11935W        W54951  31.077  30.982  21.450  0.1066  0.0777 -0.0819
11936W        W54952  33.158  24.495  14.645 -0.0787 -0.1948 -0.1052
11937W        W54953   2.152  29.024  15.289 -0.1196  0.0844 -0.0969
11938W        W54954  27.891   0.689  15.708  0.0302 -0.1294  0.0538
11939W        W54955   7.732  29.569  20.587 -0.1876  0.0416  0.3778
11940W        W54956  33.464  23.241  25.691 -0.0870  0.1591  0.0227
11941W        W54957  15.210  32.625   1.752  0.4324 -0.0834 -0.0798
11942W        W54958  24.059  14.949  19.472  0.1389 -0.1184 -0.2560
11943W        W54959  16.627  24.987  14.253 -0.0287  0.1348 -0.0105
11944W        W54960   3.246  27.463  25.608  0.0444 -0.1342 -0.2498
11945W        W54961  19.256   7.521  20.256  0.0978 -0.2338  0.1783
11946W        W54962  23.901  28.884   0.759 -0.0017  0.0889 -0.0748
11947W        W54963  18.091  10.555  25.288 -0.1345 -0.0377 -0.0809
11948W        W54964  17.573   3.041  16.270 -0.2126  0.0970 -0.0037
11949W        W54965  21.865  27.522  16.525 -0.4026  0.0877 -0.3081
11950W        W54966  16.821   5.718  18.808  0.0350  0.0237 -0.1908
11951W        W54967  30.297   1.181  16.625 -0.1290 -0.0117 -0.2328
11952W        W54968   9.965   8.466  25.135 -0.4295  0.1646  0.0203
11953W        W54969  30.126   0.720  23.369  0.0190  0.0609 -0.4641
11954W        W54970  19.583  25.433   2.455 -0.2382  0.1158  0.0427
11955W        W54971  21.996  28.820  22.384  0.0353 -0.0989  0.1301
11956W        W54972  17.107   0.042  21.609 -0.3181  0.1054  0.2505
11957W        W54973  29.659   2.273  19.462 -0.0118  0.3237 -0.0392
11958W        W54974  34.413   2.771  28.176  0.1161 -0.0816  0.0392
11959W        W54975   0.182   1.241  24.169 -0.4512 -0.3027 -0.0786
11960W        W54976  26.091  33.663  18.526  0.2499 -0.3380 -0.2808
11961W        W54977  23.183  30.659   9.816 -0.2293  0.2218  0.0245
11962W        W54978  17.851  33.651  15.775 -0.3798  0.0393 -0.1336
11963W        W54979  32.674  12.963  15.632 -0.1950 -0.0653 -0.3325
11964W        W54980  25.194  24.845  19.222 -0.3190  0.0269  0.1838
11965W        W54981  33.790  18.152  16.125  0.1191 -0.2056 -0.0063
11966W        W54982   7.607  14.768  27.898 -0.1713  0.0350 -0.1291
11967W        W54983  32.194  33.986  22.051  0.3489 -0.0998  0.2107
11968W        W54984  15.921   5.851  23.778 -0.2518 -0.1109  0.0529
11969W        W54985  15.022  12.429   3.586  0.0838 -0.0424  0.0055
11970W        W54986  19.221  26.302  15.314 -0.2854 -0.0256  0.2059
11971W        W54987  20.265  23.024  25.425 -0.1894  0.0768 -0.1466
11972W        W54988   1.004  29.224  16.863 -0.1322  0.0766 -0.4631
11973W        W54989   4.982  32.256  15.145 -0.0034  0.4731  0.0882
11974W        W54990  26.134  23.400  20.736 -0.1044  0.2620 -0.1877
11975W        W54991  11.489  32.736  14.244  0.0654  0.0096 -0.0552
11976W        W54992  15.897  11.113  14.129 -0.2958  0.1034  0.4939
11977W        W54993  23.590   4.167  19.907  0.0692  0.1977  0.1515
11978W        W54994  22.588  30.079  15.112  0.1040 -0.1998 -0.0777
11979W        W54995  27.963  32.738  19.919  0.0026  0.0145  0.0969
11980W        W54996  26.955  33.753  18.979  0.0181  0.1006 -0.0267
11981W        W54997   8.939   6.145  21.280 -0.1317 -0.0775 -0.0597
11982W        W54998  18.440  20.322   2.303 -0.1545 -0.0638 -0.0597
11983W        W54999  22.642  27.281  19.697  0.1385  0.2056  0.1946
11984W        W55000  15.059  17.436  13.271 -0.0030  0.3398 -0.0489
11985W        W55001  34.030   0.727  27.780 -0.1914  0.0712  0.0202
11986W        W55002  10.700   4.831  21.999 -0.1677 -0.2271 -0.3273
11987W        W55003  28.063   0.870  15.216  0.0369  0.1515 -0.1412
11988W        W55004   8.271  26.438  20.007  0.1836 -0.0926  0.3195
11989W        W55005  20.725  34.451  21.298 -0.0886  0.0602 -0.0048
11990W        W55006  17.760  11.410  15.162  0.0586 -0.2728 -0.3818
11991W        W55007   3.086  11.073  17.318 -0.0916 -0.3709  0.1369
11992W        W55008   1.950  20.647  14.392 -0.0227 -0.1403  0.1601
11993W        W55009  30.315  33.643  16.567 -0.0563 -0.3839  0.3368
11994W        W55010  23.146  21.875  18.233 -0.1715 -0.1527 -0.2936
11995W        W55011  18.680  30.658   5.815  0.3587  0.2041  0.1948
11996W        W55012  30.215  10.641  19.177 -0.1958  0.0451  0.4531
11997W        W55013  24.142  15.298  17.234 -0.1139 -0.0254 -0.0399
11998W        W55014  13.443  26.543  16.519 -0.2673  0.0105 -0.0539
11999W        W55015  28.349  29.784  29.204 -0.0815 -0.0087 -0.1066
12000W        W55016  22.566  32.727  19.373 -0.2211 -0.0799  0.3737
12001W        W55017  25.996   7.042  23.896 -0.1271 -0.2840 -0.1653
12002W        W55018  20.754  30.409   4.002  0.0839  0.2375  0.1569
12003W        W55019   6.956  12.834  20.500 -0.0710 -0.1395  0.0850
12004W        W55020  23.313   6.610  26.822 -0.1724 -0.1641  0.0909
12005W        W55021  21.983  14.250  14.762  0.1286 -0.0751  0.4837
12006W        W55022  28.181   5.677  16.635 -0.0181 -0.1675  0.0528
12007W        W55023  24.854   6.549  20.797  0.0656 -0.0743 -0.3166
12008W        W55024  10.492  31.896  14.541  0.0647 -0.1755  0.1669
12009W        W55025  24.580   2.352  21.664  0.1116 -0.2172 -0.0109
12010W        W55026  20.897  21.130   1.969 -0.0380 -0.2962  0.0257
12011W        W55027  19.987  18.699  15.166  0.2999 -0.3206 -0.3539
12012W        W55028  23.080  34.684  21.700  0.1909 -0.3314  0.3120
12013W        W55029  20.076  30.053  10.268 -0.2155  0.1600 -0.1641
12014W        W55030  21.409  26.137  18.952  0.0017  0.2881  0.1232
12015W        W55031  32.040  28.035  24.463  0.2293 -0.0260 -0.1547
12016W        W55032  27.122  24.240  23.536  0.0446  0.0583 -0.0480
12017W        W55033  23.542  27.983  26.323 -0.2598 -0.3819 -0.1481
12018W        W55034   1.982  10.481   1.015  0.1434 -0.0809  0.0186
12019W        W55035  29.677  31.696  18.023 -0.2541 -0.0834  0.1725
12020W        W55036  22.477  24.034  23.202 -0.3142  0.1167 -0.2088
12021W        W55037   7.250  27.946  22.757  0.5176 -0.0184  0.1627
12022W        W55038  15.339  34.223  14.632  0.2843 -0.1450 -0.1209
12023W        W55039  18.578   7.945  27.166 -0.0390 -0.3482 -0.2530
12024W        W55040   6.881  24.723   2.430 -0.1832  0.0259 -0.2700
12025W        W55041  11.031  18.677  22.006  0.0706  0.0062 -0.2969
12026W        W55042  24.330  12.661  17.503  0.3388 -0.1886  0.2697
12027W        W55043  24.977   8.429  15.688  0.0551  0.2420  0.2081
12028W        W55044   6.303   2.688  22.298 -0.0295  0.2427  0.3562
12029W        W55045  21.690  22.176  29.245  0.3917 -0.1750 -0.2647
12030W        W55046  29.645   8.618  17.805 -0.1807  0.1184  0.1112
12031W        W55047  25.529   8.422  19.679  0.3326 -0.0675  0.3331
12032W        W55048   9.970  21.745  26.737  0.3736 -0.1163  0.0076
12033W        W55049  22.740  25.359  17.550  0.0996 -0.2163 -0.1965
12034W        W55050  16.393   2.276  16.782 -0.0969 -0.3584  0.0062
12035W        W55051  20.189   7.263  22.280  0.0230 -0.1817  0.0303
12036W        W55052  16.486   0.424  16.914 -0.2024  0.0751  0.3615
12037W        W55053   6.203   1.824  18.326  0.4376  0.0493  0.1390
12038W        W55054   2.242  27.278  22.577 -0.2260  0.1941  0.0827
12039W        W55055  14.148   1.711  18.897  0.1936  0.0150 -0.1075
12040W        W55056  23.790   3.869  25.415 -0.0445  0.2322 -0.1765
12041W        W55057  20.684  11.095  15.126  0.1849 -0.1825 -0.1227
12042W        W55058  18.643  25.858  15.646  0.1527 -0.4615  0.0853
12043W        W55059   0.228  25.521  18.461  0.2191  0.0458 -0.0358
12044W        W55060  26.715  15.629  17.092  0.2587  0.2650  0.3688
12045W        W55061  17.078  26.218   1.053 -0.1397 -0.2581 -0.2086
12046W        W55062  27.375  15.887  19.983  0.0711  0.1614  0.0184
12047W        W55063   8.483  24.034  16.640 -0.0310 -0.0837 -0.1464
12048W        W55064  30.819  28.941  27.486  0.3446  0.0655 -0.0740
12049W        W55065  25.728  32.848  25.598  0.3656  0.1833 -0.0482
12050W        W55066  28.195  17.950  26.551 -0.4172 -0.0648  0.2072
12051W        W55067  29.508   2.191  19.016 -0.1239  0.0096 -0.0223
12052W        W55068   5.532   8.707  18.945 -0.1803  0.4453 -0.0433
12053W        W55069   4.138  27.129  25.505 -0.1585  0.0103 -0.2464
12054W        W55070  16.958   6.781  24.786 -0.1205  0.0958  0.0123
12055W        W55071  32.963   2.765  20.428 -0.0544 -0.0085 -0.1967
12056W        W55072  20.114   6.093  21.177 -0.0545  0.3564  0.0750
12057W        W55073  14.545  32.227  22.435  0.3567  0.0916  0.3206
12058W        W55074  16.515  30.782  17.558  0.1929  0.1618 -0.0804
12059W        W55075  27.453  31.314   7.593 -0.0955  0.2876 -0.2152
12060W        W55076   8.631  29.521   0.593  0.1699  0.0344 -0.1294
12061W        W55077  20.959  31.753  16.665  0.0104  0.0295  0.0109
12062W        W55078  19.625   2.141  24.328  0.0902 -0.0403  0.2759
12063W        W55079  15.993   5.595  18.592 -0.2399 -0.1322 -0.0428
12064W        W55080   6.210   3.147  20.961 -0.0838  0.0953 -0.1841
12065W        W55081  24.817  24.760  21.422  0.1119 -0.0722 -0.3154
12066W        W55082  27.260  30.062   7.151 -0.2073  0.1883 -0.0585
12067W        W55083  24.548  28.648  28.510  0.2514 -0.1018  0.2264
12068W        W55084  30.327  28.902  21.148 -0.0535 -0.1866 -0.1176
12069W        W55085  30.609  27.568   4.571  0.2418  0.0378 -0.1645
12070W        W55086  20.104   4.041  17.208 -0.0198 -0.0562  0.2088
12071W        W55087  13.008  24.037  14.090  0.5802  0.1082  0.1514
12072W        W55088  28.379  32.561   1.392 -0.1124  0.1415 -0.2807
12073W        W55089  32.928   0.143  16.756 -0.0252  0.0641  0.1610
12074W        W55090  26.329   3.617  26.986  0.1923  0.2015 -0.1047
12075W        W55091  29.945  26.123  15.531 -0.1744 -0.1278 -0.0169
12076W        W55092   2.490   1.390  22.149 -0.0684 -0.0123 -0.2722
12077W        W55093   0.529  25.245  28.786  0.1583  0.1039  0.1307
12078W        W55094   7.677   4.794  15.094 -0.1549 -0.0347 -0.3485
12079W        W55095  27.090   1.053  17.053  0.1073 -0.0973 -0.0129
12080W        W55096   3.188  28.784  28.853  0.1148 -0.0016 -0.2725
12081W        W55097  23.749  30.519  15.628  0.3481  0.0069  0.2149
12082W        W55098  32.223   4.006  14.369  0.5136 -0.0220 -0.0084
12083W        W55099  34.527  28.899  25.397  0.0651  0.0331  0.1516
12084W        W55100  21.974  22.768  20.563  0.0112 -0.0140 -0.2105
12085W        W55101   3.143  22.227  27.063 -0.0845 -0.2767 -0.2035
12086W        W55102  29.368  20.022  17.441  0.0632 -0.0505 -0.0662
12087W        W55103  23.560   1.294   0.350 -0.2848  0.2031 -0.2705
12088W        W55104  23.944   9.455  17.177 -0.0393 -0.0451  0.1760
12089W        W55105  23.655   0.325   5.283 -0.3995 -0.0373  0.1516
12090W        W55106  21.353   2.915  22.129 -0.4666  0.0374 -0.0704
12091W        W55107  15.556   5.977  22.306 -0.0153 -0.0094 -0.2209
12092W        W55108  19.208  22.054  22.376 -0.0894  0.0362  0.3326
12093W        W55109  23.837  30.561  22.145  0.0385 -0.0395 -0.1009
12094W        W55110  24.659  25.745  19.791 -0.1064  0.2918  0.0980
12095W        W55111  22.968   0.122  25.880 -0.2318 -0.1075 -0.0418
12096W        W55112  18.686  33.767  18.382 -0.0267  0.1345  0.2918
12097W        W55113  30.940  23.953   0.215  0.1259  0.1661 -0.2733
12098W        W55114  22.815  18.636  20.077 -0.0615 -0.0925 -0.1486
12099W        W55115  26.732   0.741  17.730 -0.1529  0.2044  0.1531
12100W        W55116  33.347  30.255  21.203  0.0363 -0.2343  0.1740
12101W        W55117  33.340  31.795   0.260 -0.0464  0.0273  0.0686
12102W        W55118  18.123   0.663  20.260 -0.4341 -0.0278 -0.0090
12103W        W55119   2.299  27.694  18.978 -0.2264 -0.0950 -0.1067
12104W        W55120  22.207  22.392  13.576 -0.0802 -0.2797  0.0545
12105W        W55121  23.763  32.566   1.494  0.2192  0.0963 -0.3054
12106W        W55122   8.001  31.218  16.138 -0.1034 -0.0416 -0.4632
12107W        W55123  12.556  10.167  23.117 -0.0647 -0.3426  0.4498
12108W        W55124  17.956  31.463  18.122 -0.5089  0.1045  0.0710
12109W        W55125   9.167  31.497   1.091  0.0736 -0.1431 -0.2836
12110W        W55126   9.901  33.953  16.720 -0.0720 -0.2589 -0.0387
12111W        W55127  23.332   4.378  17.210 -0.3749  0.0982 -0.1501
12112W        W55128  31.566  20.261  15.800  0.0652  0.0146 -0.0336
12113W        W55129  30.940  23.313  21.694  0.0382 -0.0722 -0.1339
12114W        W55130  23.120  25.369  16.997 -0.0738 -0.1474 -0.3093
12115W        W55131  19.190   4.783  17.555  0.0107 -0.0244 -0.2405
12116W        W55132  29.362   8.023  16.337 -0.0390  0.0752  0.0035
12117W        W55133  14.282  13.465  21.459 -0.3044 -0.0624  0.0800
12118W        W55134  12.984  23.182  24.719 -0.0885  0.0940  0.0810
12119W        W55135   1.489   7.996  20.791  0.3104  0.2118 -0.0402
12120W        W55136  21.033  20.161  23.331  0.1754 -0.1831 -0.0661
12121W        W55137  25.587   0.606  20.939 -0.1239  0.0566  0.1827
12122W        W55138  24.800  26.608  18.070 -0.4576 -0.0505  0.3778
12123W        W55139  16.105   8.402  16.517 -0.0851 -0.3524  0.0485
12124W        W55140  28.973   3.288  18.784 -0.0521  0.0531  0.2372
12125W        W55141  11.697   2.492  19.943  0.2548  0.0996  0.1238
12126W        W55142  18.185   2.734  20.432  0.1231  0.1468 -0.1019
12127W        W55143  22.218  28.453  22.145  0.0730  0.0231 -0.1336
12128W        W55144  30.068  32.596   8.140  0.1783 -0.2064 -0.0761
12129W        W55145  23.955  32.304  15.870  0.4418  0.2493 -0.3089
12130W        W55146  27.550  28.036  22.199 -0.2609  0.0319 -0.3016
12131W        W55147  21.619  31.859  23.716 -0.0547  0.1388 -0.0014
12132W        W55148  19.079   2.975  19.318  0.0464 -0.0756 -0.0863
12133W        W55149  27.447  13.975  17.882  0.1680  0.0345 -0.4599
12134W        W55150   9.969  23.869  15.803  0.0160 -0.1050 -0.1984
12135W        W55151  26.928  11.437  27.766 -0.0936 -0.2851 -0.1157
12136W        W55152  30.709   4.552  26.870  0.0036  0.2693 -0.1048
12137W        W55153  25.108  17.937  20.797  0.2921  0.0724  0.1808
12138W        W55154  23.061   0.615  19.348 -0.2277  0.0107  0.0894
12139W        W55155  32.179   4.825  27.853 -0.1288  0.0556 -0.1566
12140W        W55156   6.609  21.659  28.764  0.2360  0.0490 -0.0231
12141W        W55157  33.882  31.000  20.625  0.0859 -0.1856 -0.3485
12142W        W55158  25.345  30.373  29.116 -0.1262  0.2131  0.0259
12143W        W55159  18.389  33.859   1.259  0.0242  0.2766  0.2919
12144W        W55160  18.554   8.174  23.621  0.0510  0.2630 -0.2140
12145W        W55161  21.005   4.415  21.394 -0.1036 -0.0889 -0.0411
12146W        W55162  16.636  13.543   4.290  0.1968 -0.2116  0.0243
12147W        W55163  12.773   2.228  18.112 -0.1076  0.1023 -0.1051
12148W        W55164  29.581  22.304  22.821 -0.1234 -0.0129 -0.0155
12149W        W55165  29.979   2.631  16.727  0.0290 -0.3147 -0.2143
12150W        W55166   1.985  31.255  27.952 -0.1733 -0.2410  0.2743
12151W        W55167  19.087  10.634  24.010  0.2926 -0.2808 -0.0325
12152W        W55168  10.883   7.496  24.846  0.3548 -0.0590  0.0152
12153W        W55169   5.100  15.207  22.487 -0.7170  0.1625 -0.1745
12154W        W55170  15.590   0.443  16.707  0.1834  0.0240  0.2108
12155W        W55171  29.797  26.395   0.989  0.0250 -0.2366 -0.1673
12156W        W55172  26.838   0.270  18.763  0.1076 -0.1259 -0.0493
12157W        W55173  32.418   0.644  15.451 -0.1824  0.3013 -0.1713
12158W        W55174  16.141  10.746  15.071  0.1937 -0.0471 -0.1054
12159W        W55175   1.278  30.751  22.044  0.1161  0.1054  0.1585
12160W        W55176  22.689   7.006  20.794  0.0830  0.1689 -0.1172
12161W        W55177   3.331  22.959  15.582  0.1936 -0.0649  0.2505
12162W        W55178  30.685  13.614  24.672 -0.3586  0.1832 -0.0175
12163W        W55179  32.309  27.565  21.671  0.0120  0.0414 -0.1613
12164W        W55180   0.589  24.943  14.549  0.0624 -0.0684 -0.1455
12165W        W55181   3.329   4.442  15.728  0.0093 -0.1660 -0.0679
12166W        W55182  16.254  32.482  14.421  0.1413 -0.1160 -0.1147
12167W        W55183  20.303  29.440  17.730 -0.0921  0.4454  0.0563
12168W        W55184  21.526  31.588  21.293  0.1543 -0.1448  0.2209
12169W        W55185  15.203  22.578   3.124 -0.0168 -0.4974  0.0857
12170W        W55186   8.675   5.552   8.744  0.0440 -0.2943 -0.1936
12171W        W55187  28.283  30.582  22.266  0.0382 -0.1551 -0.1139
12172W        W55188   7.519  18.094  24.682  0.2267  0.0260  0.1673
12173W        W55189  20.308  26.441  23.274 -0.0466  0.2370 -0.0443
12174W        W55190  30.301  26.468  27.340  0.0762 -0.1314  0.1243
12175W        W55191  16.603  23.541  14.410  0.3318  0.0709 -0.2992
12176W        W55192  33.281  31.279   0.146  0.3853  0.3128  0.3350
12177W        W55193  17.723  31.303  16.406  0.3401  0.2906  0.1103
12178W        W55194  17.214  26.502  21.144 -0.1008  0.1233 -0.0234
12179W        W55195   5.119  29.095  16.667 -0.1548 -0.0067  0.0217
12180W        W55196  11.933  25.250   4.422  0.2036 -0.1983 -0.1607
12181W        W55197  29.662   8.987  20.382 -0.0782  0.1051 -0.1595
12182W        W55198  25.514  32.692  20.362  0.0554 -0.3400  0.0227
12183W        W55199   9.128  26.219  25.815 -0.1822 -0.2617 -0.0351
12184W        W55200  24.651  31.537   0.012 -0.1254 -0.0617  0.0371
12185W        W55201  33.520  19.730  20.682 -0.2124 -0.1482 -0.1678
12186W        W55202  29.322  23.163  20.382 -0.0127  0.2514  0.0874
12187W        W55203  14.469   2.526   3.435 -0.0032 -0.0738 -0.0344
12188W        W55204  15.655   2.115  17.349 -0.1513  0.1551  0.1386
12189W        W55205   6.389   3.118  25.599 -0.3499 -0.1916 -0.0269
12190W        W55206  20.186   6.892  21.615 -0.0446 -0.1374 -0.2072
12191W        W55207  29.534  24.816  20.988  0.4151  0.0799 -0.2643
12192W        W55208  24.116  24.016  19.199 -0.2236  0.1839 -0.1408
12193W        W55209  16.897   8.209  27.411 -0.1669  0.1479 -0.1648
12194W        W55210  12.348  34.016   3.379 -0.2071 -0.0099 -0.0244
12195W        W55211  20.354  25.644  16.365 -0.0259  0.1280  0.2460
12196W        W55212  17.072  29.650  20.624  0.3244 -0.1310 -0.2666
12197W        W55213  12.152   2.841  20.088  0.3486 -0.0477  0.0222
12198W        W55214   0.472  20.027  27.385 -0.2031 -0.0596 -0.1841
12199W        W55215  22.357  32.957  23.219 -0.2657  0.2758  0.0279
12200W        W55216  19.861   5.656   3.637  0.1154  0.2643 -0.0144
12201W        W55217  21.420  32.550  17.698 -0.0773 -0.1000 -0.1078
12202W        W55218  22.574  21.929  15.246  0.1227  0.0048 -0.1386
12203W        W55219  23.607  12.885  29.209  0.3124 -0.1698  0.4322
12204W        W55220   0.946  28.478  25.800 -0.0263  0.1656  0.2247
12205W        W55221  25.153  27.993   8.984  0.1071  0.1358 -0.0487
12206W        W55222  15.604  29.762  10.022  0.0812  0.1515  0.2019
12207W        W55223  23.810  16.016  24.577  0.0142 -0.1005  0.2691
12208W        W55224  11.002   2.325  27.872  0.2480  0.2660  0.1501
12209W        W55225  23.712  27.555  27.300 -0.4323 -0.0106 -0.1377
12210W        W55226  10.339  29.141  15.714 -0.2578 -0.1552 -0.2060
12211W        W55227  15.190   5.316  25.673  0.0076  0.0786  0.1337
12212W        W55228  22.572  21.309  22.117 -0.1696  0.2905 -0.0175
12213W        W55229   7.365   9.219  20.544 -0.0387  0.0135 -0.1421
12214W        W55230  11.558  33.267  15.251  0.0104 -0.1774  0.1536
12215W        W55231  26.678  17.947  26.145 -0.0277  0.1593  0.2483
12216W        W55232  25.785  29.680  17.318 -0.3975 -0.3000 -0.1403
12217W        W55233   0.486  33.260  29.318  0.1484  0.1426 -0.1397
12218W        W55234  18.118   6.364  21.888  0.1427 -0.0351  0.1403
12219W        W55235  30.157  28.355  23.371 -0.0878  0.0404  0.0059
12220W        W55236  28.049  14.951  13.696  0.1523 -0.1754  0.0187
12221W        W55237   8.745  18.113  19.079 -0.0936  0.2427  0.0535
12222W        W55238   9.107  21.725  20.655  0.1110  0.1755  0.1090
12223W        W55239  15.505  25.920  15.182  0.1758 -0.2636 -0.1326
12224W        W55240  23.470  29.822  18.707 -0.1071  0.1038 -0.0168
12225W        W55241   5.843  22.715  16.362  0.1274  0.0443 -0.1862
12226W        W55242  25.880   7.075  17.432 -0.0616  0.1544 -0.2416
12227W        W55243  32.920  32.495  10.327 -0.0123  0.0836  0.0756
12228W        W55244  21.049  13.090  19.006  0.0072 -0.0975 -0.0327
12229W        W55245  25.298  29.016  17.511 -0.0667  0.0539 -0.0971
12230W        W55246  24.986  18.161  15.372 -0.0317 -0.0673  0.0144
12231W        W55247  26.473  28.871  19.349 -0.0069 -0.0573 -0.1587
12232W        W55248  33.276   0.531   8.505 -0.1055 -0.3509 -0.1153
12233W        W55249  31.549   2.432  22.600 -0.0459  0.2342  0.0745
12234W        W55250  24.656   4.109  15.333 -0.2833 -0.0943  0.2178
12235W        W55251  20.808  12.459  15.848  0.0711 -0.0765  0.0245
12236W        W55252  18.502   1.281  24.700  0.1344  0.0209  0.0318
12237W        W55253   6.444   5.766  15.748  0.1649  0.2948  0.1608
12238W        W55254  30.925   2.997  20.379  0.1685 -0.0387  0.2282
12239W        W55255   7.393  11.336  26.064  0.0754 -0.0175 -0.2171
12240W        W55256  21.497   1.703  18.319 -0.1248 -0.1439 -0.1818
12241W        W55257  23.175  25.627  17.954  0.0748 -0.1354  0.1111
12242W        W55258  20.162   0.717  19.340 -0.1078 -0.3004 -0.1187
12243W        W55259  22.463  32.129  24.986 -0.0094 -0.1162 -0.1622
12244W        W55260  14.076   2.451   2.181 -0.0075 -0.2698  0.2520
12245W        W55261  13.819   5.270  24.561  0.1682 -0.2786  0.1796
12246W        W55262  24.518   0.933  10.377 -0.2326 -0.0608 -0.0574
12247W        W55263  27.191  23.074  27.533 -0.1735 -0.1642 -0.1575
12248W        W55264  20.735  32.023  28.348 -0.0813  0.1970  0.0951
12249W        W55265   4.432   9.623  23.470 -0.0063  0.1728 -0.1426
12250W        W55266  29.817  22.906  17.994  0.0182  0.1616 -0.2290
12251W        W55267  14.827  14.553  12.634  0.0426  0.0339 -0.0470
12252W        W55268  22.803  10.521  14.084 -0.0017  0.0174 -0.2159
12253W        W55269  14.783  30.057  23.616 -0.1252  0.2187  0.1786
12254W        W55270  17.144  31.200  17.261  0.0130 -0.1876 -0.0660
12255W        W55271  34.003  33.118  23.947  0.1168  0.0522 -0.3281
12256W        W55272  14.821  11.220  27.677  0.3946 -0.2230  0.1429
12257W        W55273  10.053  22.632  14.546  0.0712  0.0505  0.2572
12258W        W55274  26.538   4.704  24.491 -0.4232  0.1478  0.1166
12259W        W55275  25.643  34.272  19.525 -0.0194 -0.1235 -0.0673
12260W        W55276  25.344  31.216  23.793 -0.4368  0.6507  0.3436
12261W        W55277  27.541  14.240  27.363 -0.0886  0.0229  0.2953
12262W        W55278  11.624  23.817  19.381  0.1609 -0.0863 -0.0395
12263W        W55279  17.043  20.052  29.135  0.2111 -0.0907 -0.3940
12264W        W55280   1.660  18.628  22.488 -0.0685  0.2526  0.0332
12265W        W55281  29.394  32.957  19.254 -0.1403 -0.0543 -0.0126
12266W        W55282  25.642  30.215  19.169  0.3185  0.1971 -0.1264
12267W        W55283  29.265   0.707  15.669 -0.5935  0.1273 -0.1833
12268W        W55284  31.910   1.463   2.334 -0.2606 -0.0341 -0.0757
12269W        W55285  22.184  30.399  16.019 -0.0884 -0.2979  0.0066
12270W        W55286   7.530   1.454  15.975  0.2174 -0.1896 -0.0820
12271W        W55287  30.109  32.158  21.727  0.0975  0.1785 -0.0364
12272W        W55288  30.803  24.711  20.017  0.0651 -0.3356  0.2134
12273W        W55289  21.373   9.385   2.434 -0.2382  0.1259 -0.0898
12274W        W55290  22.240  21.125  27.354 -0.0542 -0.4523  0.1799
12275W        W55291  16.229   3.457  15.461 -0.4341  0.0179  0.0762
12276W        W55292  32.802  33.178  26.300  0.0036  0.2360 -0.0469
12277W        W55293  28.016   5.897  21.141  0.1658  0.0526 -0.1231
12278W        W55294   1.256  24.666   5.933 -0.0232  0.0121 -0.0106
12279W        W55295  21.340   5.566  21.964 -0.1183 -0.0822  0.1165
12280W        W55296  16.450  32.117  14.834 -0.0385 -0.0287 -0.0024
12281W        W55297  24.380  24.649  16.663  0.2671  0.5199  0.2190
12282W        W55298  15.552  10.680  18.665  0.1034 -0.3048 -0.1307
12283W        W55299   1.526   8.633  28.157 -0.1062  0.0387 -0.0742
12284W        W55300  22.259  27.380   0.762 -0.3756 -0.1395  0.0002
12285W        W55301  10.342  28.992  28.987 -0.0477 -0.2193 -0.0210
12286W        W55302  25.765  32.245  24.980  0.0267 -0.1303 -0.4121
12287W        W55303  22.336  14.335  28.061 -0.1282 -0.0638 -0.1133
12288W        W55304  15.979  31.477  28.925  0.1933  0.0176  0.0740
12289W        W55305  22.009   2.037  25.412 -0.3346  0.2466  0.0243
12290W        W55306  25.548   2.841  19.553  0.1091 -0.1824 -0.0911
12291W        W55307  26.433  32.912  27.846 -0.1544  0.1152  0.0559
12292W        W55308  14.599  34.177   2.637 -0.1308  0.0548 -0.0090
12293W        W55309  22.778  32.122   0.953  0.2622  0.1544 -0.3134
12294W        W55310  17.618  26.932  27.461  0.1541 -0.1407 -0.1269
12295W        W55311   0.200  15.498  18.047  0.1466 -0.0813 -0.1526
12296W        W55312  18.134  34.606  21.876 -0.3797  0.1194 -0.0624
12297W        W55313   2.891   8.694  22.537 -0.1809 -0.4882 -0.3525
12298W        W55314   6.402   4.898  23.419 -0.3462  0.0597  0.2837
12299W        W55315  30.573  29.884  25.190 -0.1848 -0.1635 -0.1880
12300W        W55316  27.880  20.237   0.386  0.0359 -0.1583  0.0304
12301W        W55317  17.999  34.208  17.753  0.0902 -0.0665  0.1793
12302W        W55318  29.137  34.504   0.928 -0.1383  0.3194  0.1105
12303W        W55319   0.474   1.703  21.292  0.1124 -0.0073 -0.0776
12304W        W55320  20.981  15.379  23.115 -0.0545  0.1341 -0.0978
12305W        W55321   3.770  32.577  21.883  0.1654  0.0579 -0.0646
12306W        W55322   8.045  21.666   0.389  0.0283  0.0701 -0.0916
12307W        W55323  13.058   4.611   4.228  0.1826  0.0818  0.0487
12308W        W55324  22.000  29.940  25.485 -0.2740  0.0918  0.0569
12309W        W55325   0.007  25.107   7.246 -0.0997 -0.0967  0.3074
12310W        W55326  10.992  34.413  17.283 -0.0467  0.0121 -0.0887
12311W        W55327  14.659  34.065  13.600  0.4834 -0.0079 -0.1035
12312W        W55328   9.510   3.542  21.526 -0.0571  0.1446  0.1653
12313W        W55329   9.037  19.835  17.824 -0.0471  0.1559 -0.2424
12314W        W55330  12.735   3.420  26.619 -0.4060  0.1210  0.2999
12315W        W55331   1.604  30.608  19.202 -0.2384 -0.2767 -0.2313
12316W        W55332  20.471  28.504  21.472  0.1952 -0.1781  0.0885
12317W        W55333  29.187   9.533  25.025 -0.0766  0.2203  0.2880
12318W        W55334  26.563   1.150  17.357 -0.1102 -0.3391  0.0622
12319W        W55335  21.914  22.117  25.294 -0.3579 -0.0609  0.1748
12320W        W55336  22.778   9.328  17.811  0.0076  0.2020 -0.3111
12321W        W55337  19.825  32.782  17.873  0.3157  0.1065  0.0347
12322W        W55338  15.422  10.881  14.418 -0.1806  0.1738  0.1391
12323W        W55339  20.314  29.835  21.059 -0.0651 -0.0417 -0.3944
12324W        W55340  19.000  34.707  17.604 -0.0916  0.0262 -0.0826
12325W        W55341  24.895  32.531   3.336  0.2505  0.3810 -0.2252
12326W        W55342  21.534  25.269   7.070  0.2347 -0.2789 -0.1791
12327W        W55343  27.671  30.306   4.545 -0.0062 -0.0786  0.1830
12328W        W55344  29.529  28.207  15.102 -0.1471  0.0045  0.3116
12329W        W55345  18.108   6.165   2.941 -0.0844  0.1536 -0.2378
12330W        W55346  25.898  28.807  23.620  0.0126  0.1348 -0.2727
12331W        W55347   0.735  28.073  17.555 -0.1521 -0.1371  0.0034
12332W        W55348   3.377  27.868  24.920  0.2472  0.1238  0.1282
12333W        W55349  15.966  23.782  23.432 -0.4146  0.0183 -0.4220
12334W        W55350  20.312  25.668   1.136  0.1915  0.0166 -0.0719
12335W        W55351  13.944   0.496  16.389 -0.1244  0.0695  0.3634
12336W        W55352  21.630   0.469  17.984 -0.2718 -0.3009  0.1750
12337W        W55353  13.208   3.074  17.304 -0.2011 -0.1378  0.1947
12338W        W55354  17.804  31.289   0.418 -0.0013 -0.0955  0.0692
12339W        W55355   3.487  19.165  27.933 -0.0932  0.1944 -0.0188
12340W        W55356  22.638   9.014  22.362 -0.0638  0.3442 -0.1984
12341W        W55357  26.883  12.131  17.381 -0.1073 -0.0064  0.2774
12342W        W55358  21.682  20.293  22.109  0.1004  0.0277  0.0424
12343W        W55359  31.210  32.858  26.620 -0.0318  0.1646 -0.3508
12344W        W55360  31.485   4.970  15.660  0.0316  0.1303  0.0681
12345W        W55361  27.953   5.372  17.754  0.0281 -0.1637  0.2126
12346W        W55362   7.898   6.210  24.674  0.1652  0.0840  0.1981
12347W        W55363   3.370   5.431   4.836 -0.3429 -0.2343 -0.1910
12348W        W55364  16.922  32.319  22.701 -0.0426  0.1983 -0.0553
12349W        W55365  19.434   0.760  25.246  0.1362  0.0851 -0.1009
12350W        W55366  29.878   0.319  20.186 -0.3181 -0.0537 -0.0685
12351W        W55367  31.554  27.998  24.697  0.3118 -0.1182  0.0300
12352W        W55368  13.492  32.394  18.874 -0.3448  0.3513  0.2658
12353W        W55369  33.102  30.416  16.987  0.0976 -0.3276  0.0890
12354W        W55370   6.937  26.533   2.507  0.0765  0.0018  0.2010
12355W        W55371  25.934  25.514   0.635  0.1588  0.2901  0.2290
12356W        W55372  25.209  33.869  20.812  0.0031 -0.0363 -0.0361
12357W        W55373  30.067   1.142   3.630  0.3231  0.3813  0.1331
12358W        W55374   1.076  26.863  25.656  0.2119 -0.0699  0.0380
12359W        W55375   1.618  33.019  19.606 -0.1311 -0.1189  0.2222
12360W        W55376  17.956   4.141  15.142 -0.0643 -0.1890  0.1538
12361W        W55377  29.810   0.560  16.664  0.1399 -0.0881  0.1663
12362W        W55378   5.732  15.079  17.193  0.0347  0.0756 -0.1180
12363W        W55379  24.237  10.910  16.789  0.1951  0.0904 -0.0991
12364W        W55380  26.263   3.598  16.809 -0.1442 -0.1081 -0.2505
12365W        W55381  30.447  16.593  24.335  0.0776  0.0890 -0.0357
12366W        W55382  13.085  30.678  27.273 -0.3939  0.3806  0.3375
12367W        W55383   1.009   3.527  17.356 -0.1972 -0.2384  0.1517
12368W        W55384  34.684  32.507  19.752  0.2044 -0.1537 -0.1063
12369W        W55385  13.951  27.374  16.316 -0.0085 -0.0573 -0.2350
12370W        W55386  12.930  28.787  26.117 -0.0453  0.2672  0.0957
12371W        W55387   1.592  33.290  19.073  0.0489  0.0832  0.0674
12372W        W55388  29.232  30.583  17.505  0.0290  0.5494  0.2204
12373W        W55389   1.788  21.872   6.501  0.1660  0.0256 -0.0722
12374W        W55390  17.672  30.853  23.469  0.0241  0.1215 -0.0776
12375W        W55391  15.055   7.683  26.923  0.0665 -0.0153 -0.0800
12376W        W55392  28.131  30.125  19.689  0.1137 -0.0406  0.1559
12377W        W55393  32.099  32.743  19.286  0.0058 -0.1496 -0.0864
12378W        W55394  24.254  24.915  26.854 -0.3298 -0.1280 -0.4424
12379W        W55395  11.731  31.543   3.116 -0.1183  0.1199 -0.1264
12380W        W55396  13.192   0.028  29.207 -0.1810  0.1904 -0.0074
12381W        W55397   8.296   4.302  19.581 -0.0906  0.1084  0.2817
12382W        W55398  18.938  28.662   6.279 -0.1453 -0.1841  0.1711
12383W        W55399  32.341   9.166  20.349  0.0687 -0.2429 -0.0715
12384W        W55400  22.909  23.330  27.325 -0.0073 -0.4266 -0.1592
12385W        W55401  16.185   4.156  26.469 -0.1430  0.2337 -0.1013
12386W        W55402  23.857  34.140  28.138  0.1006  0.3400 -0.0865
12387W        W55403  27.517  31.715   9.899  0.2537  0.0274 -0.0539
12388W        W55404   5.082  23.947  18.871 -0.1484  0.0482  0.0511
12389W        W55405  21.288   3.224  14.831  0.0526  0.3042  0.0227
12390W        W55406  10.010  27.805  18.036  0.2626  0.1586 -0.0722
12391W        W55407   9.014  29.300  15.280  0.2323 -0.3110  0.4401
12392W        W55408  28.191  34.194  23.874  0.0315  0.0004 -0.1143
12393W        W55409  27.986  16.533  15.599 -0.2209 -0.0803  0.0149
12394W        W55410  22.334   0.172   8.223 -0.0181  0.2258  0.1566
12395W        W55411   6.359  33.448  17.799  0.0158 -0.0502  0.1099
12396W        W55412  19.337  13.445  23.515  0.1009  0.0782 -0.1102
12397W        W55413  30.467  30.199  18.607  0.1683  0.1625  0.1591
12398W        W55414  29.813   1.586  25.386  0.0508 -0.3208  0.1151
12399W        W55415  17.205  25.265  16.554 -0.0687  0.2341  0.0522
12400W        W55416  19.910  18.103   0.566  0.0685  0.0063  0.2162
12401W        W55417  13.622  22.751  14.474 -0.2259  0.3048 -0.1307
12402W        W55418   0.515  33.808  22.810  0.0944 -0.1685 -0.0306
12403W        W55419  29.087  15.866  21.881 -0.3321 -0.0702 -0.0977
12404W        W55420  26.672  29.224  20.988  0.2413  0.1057 -0.0010
12405W        W55421   3.637  29.443  14.778 -0.1452  0.5156 -0.2209
12406W        W55422  18.896  30.272  15.565 -0.0629  0.1833  0.0570
12407W        W55423  27.135   6.950  27.847  0.2355  0.0220  0.0304
12408W        W55424   8.008   8.712  23.206  0.0409  0.2244 -0.0020
12409W        W55425   6.370  31.138   6.131 -0.0604  0.0321  0.0950
12410W        W55426  17.217  19.755  21.876 -0.2227 -0.0598 -0.3193
12411W        W55427  27.123  16.404  19.831  0.0477  0.2766  0.1966
12412W        W55428  15.588   0.478  21.625  0.1522  0.3588 -0.1201
12413W        W55429  28.086  17.968  17.355  0.0515  0.0323 -0.2398
12414W        W55430  24.591  25.210  22.125 -0.2710  0.3219 -0.1670
12415W        W55431  19.572   4.337  24.408 -0.0378  0.0166 -0.3922
12416W        W55432  22.255  25.149  24.064  0.4957  0.0539 -0.2659
12417W        W55433  12.421  28.376  22.000 -0.1277  0.1924  0.1123
12418W        W55434  34.503   4.159  19.624 -0.1250 -0.0987 -0.2481
12419W        W55435  31.696  25.034  26.896  0.0609  0.0016  0.0194
12420W        W55436  13.004  17.937   7.440  0.1487 -0.2262 -0.2468
12421W        W55437  27.823  31.162  16.171  0.1577 -0.0509 -0.3144
12422W        W55438  30.976  28.646   2.122 -0.1077  0.0368  0.3570
12423W        W55439  28.381  31.386  24.920 -0.3573  0.2641 -0.3884
12424W        W55440  29.309  26.236  16.616  0.0800 -0.0878  0.0114
12425W        W55441  18.193  11.294  13.356  0.2036  0.1910  0.2081
12426W        W55442  31.297  26.652  19.647  0.2709  0.3135  0.0318
12427W        W55443  33.925  28.889  17.523  0.0726 -0.0884 -0.0660
12428W        W55444  30.054   7.485  23.358  0.0754  0.0166 -0.2832
12429W        W55445  14.921  28.262  16.238 -0.1199  0.1160  0.1682
12430W        W55446  29.237  25.513  18.654 -0.0819  0.2360  0.1718
12431W        W55447   2.171  17.171  28.628 -0.1702  0.3431  0.2241
12432W        W55448   9.628  23.329  14.510  0.2069 -0.2251 -0.2114
12433W        W55449  15.940  22.646  27.171 -0.1337 -0.0900 -0.1484
12434W        W55450  13.676   3.991  25.114  0.1804  0.2424  0.0613
12435W        W55451  24.935   4.161  29.275 -0.0996 -0.1955  0.0651
12436W        W55452  25.544   9.490  14.668 -0.0843 -0.0851 -0.0331
12437W        W55453  33.538  28.683   1.768 -0.2392  0.0446  0.1608
12438W        W55454  21.345  29.067  17.108 -0.2836  0.1614  0.0514
12439W        W55455  23.497   1.732   4.704  0.1832  0.1535 -0.0628
12440W        W55456  27.777  32.286  27.892  0.1517 -0.0399 -0.0469
12441W        W55457   5.158   8.748  22.261  0.0902  0.1301 -0.3433
12442W        W55458  20.735   3.369  21.373  0.0223 -0.3143 -0.2239
12443W        W55459  33.968  20.002  24.528  0.1388 -0.0433  0.0471
12444W        W55460  31.894  12.433  23.724 -0.0396  0.0757  0.0543
12445W        W55461  28.901  30.453   0.067  0.1358  0.3892  0.0590
12446W        W55462   4.822  14.713  20.474  0.1622 -0.0665  0.4694
12447W        W55463  26.290  11.545  15.363 -0.0589  0.0953 -0.2260
12448W        W55464  22.848  11.682  23.736 -0.0223  0.0573  0.3704
12449W        W55465  23.217  31.151  18.199 -0.1994 -0.2860 -0.2231
12450W        W55466  15.566  30.466  22.419  0.2651 -0.0063 -0.1520
12451W        W55467  28.298  28.147  16.690 -0.0042 -0.1353  0.0541
12452W        W55468  16.544   4.480  26.609 -0.2513 -0.2320  0.0951
12453W        W55469   5.757   2.722  21.619  0.0438 -0.1329  0.2634
12454W        W55470  16.840   1.107  18.019 -0.3502 -0.1213  0.1026
12455W        W55471  34.496  28.422   0.017 -0.2938 -0.0394  0.1181
12456W        W55472   3.838  19.007   6.845  0.0075 -0.2608 -0.1327
12457W        W55473  30.217   3.100  16.302  0.1140 -0.2394  0.0967
12458W        W55474  16.646  32.340  19.884 -0.0550 -0.3783  0.2569
12459W        W55475  14.583  25.544  15.326 -0.1530  0.2912  0.0750
12460W        W55476  33.939   8.605  22.446  0.1781 -0.1268  0.0789
12461W        W55477  13.272   3.567  23.093  0.3015 -0.0753  0.1218
12462W        W55478   2.424  31.714   0.986  0.0767  0.0321 -0.0634
12463W        W55479  34.700  23.366  23.520 -0.0499 -0.0181  0.0646
12464W        W55480  24.457  17.588  24.946 -0.0129  0.1275  0.0568
12465W        W55481  28.536  23.952   5.187  0.0447  0.1624 -0.4025
12466W        W55482  33.505  23.422  17.183 -0.0267 -0.0400 -0.0440
12467W        W55483  16.791   4.326  14.848  0.0730 -0.0011  0.1918
12468W        W55484  27.066  32.497  18.977  0.1962 -0.1318  0.2206
12469W        W55485  16.150  28.789  18.689  0.0503  0.0118 -0.1307
12470W        W55486  19.398  31.777  21.862 -0.1936  0.1953  0.1884
12471W        W55487  16.321  26.356  26.438 -0.0391  0.1266  0.3011
12472W        W55488  18.940   4.209  24.021 -0.0081 -0.0436  0.1596
12473W        W55489  14.746   3.091  26.461  0.3789 -0.0590 -0.2663
12474W        W55490  23.507  14.223  21.806  0.0200 -0.2013  0.1061
12475W        W55491  13.232  30.194   7.662  0.1317 -0.3430 -0.1858
12476W        W55492  17.799  20.346  14.537 -0.0329 -0.1669 -0.1431
12477W        W55493   7.943  25.707  22.816 -0.1617  0.1271 -0.4902
12478W        W55494   9.272  34.509  28.237 -0.1301  0.1303  0.1478
12479W        W55495   1.215  30.701  28.399 -0.0787  0.0279 -0.1320
12480W        W55496  33.615  33.546  22.618  0.0744 -0.1037  0.0378
12481W        W55497  33.782   1.277  18.066  0.3099 -0.0039 -0.0646
12482W        W55498   2.258  30.305  25.258  0.2216 -0.0941 -0.1318
12483W        W55499  13.065  33.993  18.675 -0.0802  0.0285 -0.1783
12484W        W55500  28.855  26.272  20.460  0.2624  0.3008  0.1713
12485W        W55501  29.619  31.342  29.011 -0.0106  0.2605 -0.2687
12486W        W55502  22.769  19.493  15.405 -0.3041  0.0508 -0.4424
12487W        W55503  26.215  21.968  23.256  0.4959  0.2020 -0.1776
12488W        W55504  25.428  27.479  20.242  0.0767  0.0471  0.1258
12489W        W55505  16.955   3.086  24.457  0.2835 -0.3080  0.3161
12490W        W55506  18.078   8.595  19.408  0.0965  0.0093 -0.1116
12491W        W55507  27.885   1.879   5.019 -0.0653  0.0406  0.0101
12492W        W55508  30.838  24.687  16.687 -0.3089 -0.1290 -0.1440
12493W        W55509  21.352  23.772  19.667  0.2103 -0.1740 -0.3439
12494W        W55510  19.007  32.998  18.066 -0.2626  0.1257 -0.1495
12495W        W55511  29.256   3.970  16.638  0.0506  0.0284 -0.1463
12496W        W55512  15.175  34.405  15.108 -0.1453 -0.1950 -0.1179
12497W        W55513  25.979  14.369  23.421 -0.0723 -0.2486  0.2311
12498W        W55514  32.464   4.668  21.971  0.4658 -0.2840  0.0678
12499W        W55515  18.911  27.311  20.386  0.0399  0.0028 -0.1800
12500W        W55516  26.683   6.010  21.116 -0.2048  0.1456  0.0472
12501W        W55517   2.845  31.719  19.882 -0.0650 -0.0202  0.1426
12502W        W55518  27.892   3.640  27.456 -0.0719  0.0124  0.0016
12503W        W55519  19.912   1.673  28.268 -0.0642 -0.0224  0.0963
12504W        W55520  14.990  13.628   5.650  0.2006 -0.0494  0.2603
12505W        W55521   3.564  26.003  15.135 -0.4108  0.0143 -0.0672
12506W        W55522  23.906  30.640  26.063  0.2416  0.2008  0.3267
12507W        W55523  18.511  18.578  12.168  0.2256  0.2579  0.0718
12508W        W55524  26.835  29.919  16.371 -0.1235  0.1257 -0.0853
12509W        W55525  21.552   4.612  17.618 -0.0632 -0.0109 -0.2984
12510W        W55526  15.314  32.521  19.333  0.1735 -0.1271  0.2219
12511W        W55527  30.380  11.118  17.915 -0.1599 -0.0963  0.0672
12512W        W55528   0.314  29.742  16.197 -0.2225  0.5151 -0.0364
12513W        W55529  14.972  27.223  25.989  0.2560 -0.1082 -0.1995
12514W        W55530  29.210  23.836  28.385  0.2248  0.2976 -0.0204
12515W        W55531  30.834   0.449  16.125  0.0855  0.3109  0.2184
12516W        W55532  24.385   1.425  22.360  0.2031 -0.2033 -0.2150
12517W        W55533  16.981  26.771  26.636 -0.2073 -0.2777  0.3018
12518W        W55534  10.745  27.958  24.224 -0.2845 -0.1173  0.0613
12519W        W55535  25.930  24.059   1.892  0.0336 -0.0949  0.2622
12520W        W55536   7.358  29.261  18.620 -0.0877  0.0188  0.1014
12521W        W55537  14.748  22.002  13.715 -0.0420 -0.0963 -0.0191
12522W        W55538  27.007  29.420  17.084  0.0555  0.1423 -0.0838
12523W        W55539   4.852  31.706   1.118 -0.2465 -0.3855  0.1127
12524W        W55540  14.092  30.587   1.869  0.0108 -0.3387 -0.3324
12525W        W55541  24.331  23.414  15.840  0.2124 -0.0867 -0.2289
12526W        W55542  26.890  18.823  25.547 -0.1144  0.0468  0.0463
12527W        W55543  13.441  27.306   4.817 -0.1586 -0.1664 -0.1445
12528W        W55544  29.917  23.116  28.319 -0.0341  0.2214  0.1036
12529W        W55545  32.006   1.448  16.507 -0.0221 -0.0886  0.1178
12530W        W55546  26.942  23.438  18.942  0.2084 -0.3652  0.2006
12531W        W55547  17.555  17.971   1.459  0.1221  0.1216 -0.2086
12532W        W55548  23.695  30.220   2.202 -0.0380  0.1952 -0.2280
12533W        W55549   3.262  25.783   0.516 -0.0523  0.4284  0.0584
12534W        W55550  13.840   0.777  23.094 -0.0354  0.0812 -0.2586
12535W        W55551   7.391  21.043  16.536 -0.2084  0.2625 -0.1448
12536W        W55552  18.855  32.682  25.028  0.1225  0.0523 -0.0575
12537W        W55553  25.724   8.667  17.728 -0.0952  0.2594  0.0631
12538W        W55554  29.045   2.386  26.776 -0.0590 -0.0130  0.1421
12539W        W55555  27.605  25.832  27.731  0.1992  0.1940 -0.0753
12540W        W55556  30.783   7.773  15.587 -0.3040 -0.2244  0.1494
12541W        W55557  25.092  34.669  21.600 -0.0999 -0.3516 -0.2346
12542W        W55558  31.395   2.293   0.826 -0.0443 -0.1408  0.2126
12543W        W55559  22.796  21.332  23.311 -0.1830  0.1125 -0.2251
12544W        W55560  20.242  29.995  28.024  0.0706  0.2408 -0.0075
12545W        W55561   0.654   6.473  20.066  0.1066 -0.1346 -0.0550
12546W        W55562  22.450   5.403   7.386  0.0242  0.2135  0.0696
12547W        W55563  34.552   8.369  16.869  0.4292 -0.2671 -0.0995
12548W        W55564  30.672  30.221  24.037  0.1148 -0.1595 -0.4650
12549W        W55565  25.558  12.351  19.887 -0.0964 -0.0488 -0.1499
12550W        W55566  19.930  33.412  25.588  0.1973  0.1286 -0.0889
12551W        W55567  26.692   5.157  24.069 -0.1053 -0.1196  0.1987
12552W        W55568  26.520  30.453  20.543  0.4554 -0.3615  0.1485
12553W        W55569   2.983  15.602  17.943 -0.3272  0.1556  0.0136
12554W        W55570  14.247  12.435  20.245  0.5068 -0.3900 -0.0648
12555W        W55571  24.426  13.284  18.973 -0.0691  0.1188 -0.2334
12556W        W55572   2.262  26.227   9.208  0.1817  0.0692  0.3041
12557W        W55573  25.291   1.723  19.492  0.1341  0.3742 -0.0045
12558W        W55574  20.983  32.089   1.406 -0.0358 -0.1430  0.0651
12559W        W55575   6.822  21.305   2.772  0.2080  0.5114 -0.1517
12560W        W55576  12.887  16.299  15.484 -0.2135  0.1036  0.2787
12561W        W55577  30.650  19.954  14.781  0.2048 -0.2276  0.2204
12562W        W55578  29.883  34.677   4.202 -0.0671 -0.1583 -0.2241
12563W        W55579  25.203  21.598  17.523 -0.0189 -0.0460  0.2131
12564W        W55580  28.215  15.645  21.486  0.2977 -0.3546 -0.3438
12565W        W55581  32.108  27.844  25.492 -0.2145  0.2563 -0.2425
12566W        W55582  17.320  25.395   6.126  0.0712  0.1970 -0.3335
12567W        W55583  22.603  19.154   2.569 -0.1044 -0.0145  0.2162
12568W        W55584  30.248  25.317   8.085  0.0344  0.1058 -0.2218
12569W        W55585  11.463  15.444   9.004  0.3566 -0.2083 -0.0844
12570W        W55586  12.418   0.054  27.468 -0.3139 -0.0667  0.0263
12571W        W55587  31.422  31.085  23.746  0.5062  0.2208  0.0972
12572W        W55588  17.498  30.170  26.052 -0.0847 -0.4071 -0.1672
12573W        W55589  28.949   9.692  15.291 -0.0968  0.0584 -0.2941
12574W        W55590  16.666  31.290   4.984  0.0458  0.0602  0.1367
12575W        W55591  32.018  27.492   7.521 -0.0188 -0.2649 -0.0124
12576W        W55592  27.253  22.201  24.869  0.0668  0.1396 -0.0465
12577W        W55593  26.951  22.075  21.315 -0.0411 -0.2576 -0.2423
12578W        W55594  26.546  32.244  16.503 -0.3259 -0.1361 -0.2448
12579W        W55595  16.905   5.131   1.973 -0.0220  0.0275 -0.0145
12580W        W55596  23.852  24.623   8.053  0.2590  0.1901 -0.2028
12581W        W55597  25.653  28.014  17.288 -0.3114 -0.0158  0.0379
12582W        W55598  17.860   9.320  18.946 -0.1164 -0.2096 -0.2769
12583W        W55599  30.504  13.149  19.302 -0.2152  0.1241  0.3038
12584W        W55600  27.033  29.458  27.698 -0.3682 -0.2020 -0.0234
12585W        W55601  21.235   1.305  23.897 -0.2197 -0.3951  0.2712
12586W        W55602  19.079   3.657  23.890 -0.1266  0.2472  0.2004
12587W        W55603  18.084  30.805  27.141 -0.2907 -0.1639  0.1958
12588W        W55604  32.170  28.368  17.328 -0.0722 -0.3609 -0.2905
12589W        W55605   4.708  28.154  14.057 -0.1675 -0.0049  0.3139
12590W        W55606   8.091  32.869  17.439 -0.0865 -0.0688 -0.1390
12591W        W55607  22.796  23.881   0.326  0.0770  0.1462  0.1035
12592W        W55608  14.792   8.749  15.728  0.1783  0.3131  0.2751
12593W        W55609   6.092   8.705  28.064 -0.0772  0.1672 -0.4231
12594W        W55610  34.733  22.962  28.944 -0.3795 -0.3673  0.1684
12595W        W55611  13.017  29.443   7.322 -0.0040 -0.0078 -0.1490
12596W        W55612   8.669  23.186  20.507 -0.1628 -0.0936 -0.1269
12597W        W55613  30.705  12.458  24.080  0.0082  0.0310 -0.0981
12598W        W55614  32.543  29.479  19.248 -0.1194  0.1838 -0.0702
12599W        W55615  34.546  27.326  17.874  0.0603 -0.0905 -0.1346
12600W        W55616  12.071   0.890  17.152 -0.0158  0.3360  0.1827
12601W        W55617  13.277   5.686  22.120  0.1519  0.1887  0.0761
12602W        W55618  10.720  22.234  25.092  0.0091 -0.0124 -0.1757
12603W        W55619  31.197  29.456  16.096  0.1454 -0.1401 -0.0652
12604W        W55620  19.446  11.587  24.756 -0.3136  0.4958  0.3958
12605W        W55621  32.017  13.697  22.051  0.0761  0.2864  0.0997
12606W        W55622  19.739   1.840  27.254  0.0687  0.0966 -0.0997
12607W        W55623  34.520  32.240   1.259  0.1647  0.2721 -0.1493
12608W        W55624   2.321  17.305   0.993 -0.2116 -0.1441  0.0534
12609W        W55625   6.971  25.651  17.686  0.1831 -0.0681 -0.1074
12610W        W55626  21.366  33.805  29.115  0.3594  0.0484  0.1595
12611W        W55627  28.187  21.952   3.781  0.0168 -0.0174 -0.2063
12612W        W55628  34.082  33.152  17.053  0.2982 -0.2613  0.1027
12613W        W55629  22.793   9.359   4.786 -0.1626 -0.1106 -0.1591
12614W        W55630  24.732  33.573  17.776 -0.0358  0.0450  0.0104
12615W        W55631  11.148   3.702  17.700 -0.2701 -0.3008 -0.1419
12616W        W55632  30.217  34.071  11.229 -0.2222  0.1606 -0.0176
12617W        W55633  17.709  31.054  19.372 -0.0246  0.1142 -0.1478
12618W        W55634  31.988  26.155   7.971 -0.1289 -0.1216  0.0246
12619W        W55635  11.105  27.121  17.531  0.2321 -0.2959 -0.2174
12620W        W55636  23.673  22.489  24.165 -0.0954 -0.0312  0.2874
12621W        W55637   2.327  23.733   7.249  0.0975  0.1507 -0.0289
12622W        W55638  24.042  26.985  23.037  0.1661 -0.0746  0.0584
12623W        W55639  20.860  32.798  23.671  0.0059 -0.1715 -0.0386
12624W        W55640  31.532  24.986  15.369 -0.1514 -0.1401 -0.2863
12625W        W55641  27.805   2.585  23.239 -0.0167 -0.1454  0.1990
12626W        W55642  23.788   7.834  29.063  0.2348  0.1139 -0.3150
12627W        W55643   4.341  32.837  19.455 -0.0783  0.1089 -0.1027
12628W        W55644  23.122  29.729  22.219 -0.1983  0.2388  0.0944
12629W        W55645  19.650  24.960  26.638 -0.1794  0.1405 -0.1308
12630W        W55646  24.509  32.644  17.237 -0.0985  0.0890  0.2803
12631W        W55647   0.034  25.662  22.158  0.2941 -0.3891  0.0439
12632W        W55648  16.087  25.044   7.850 -0.0219 -0.0210 -0.1802
12633W        W55649  19.976  30.410   3.538  0.3511 -0.1186 -0.1305
12634W        W55650  28.384  17.967  28.967 -0.0903  0.0627  0.2361
12635W        W55651  24.417  28.542   5.017 -0.0450  0.0818  0.0310
12636W        W55652  26.974  31.944  20.401  0.1910 -0.1373 -0.3121
12637W        W55653  26.778  18.141   6.138 -0.2076  0.0923  0.1311
12638W        W55654   5.501   6.226  22.449 -0.0740 -0.3278  0.2899
12639W        W55655  19.763  26.996  14.680  0.1489 -0.2021 -0.0261
12640W        W55656  31.953  32.037   2.874 -0.0796  0.3050  0.2082
12641W        W55657  26.873  18.521   2.843  0.3964 -0.2708 -0.2584
12642W        W55658  15.346   2.334  26.107 -0.0039 -0.1202  0.1449
12643W        W55659  15.853  24.145  23.776  0.2287  0.0138 -0.0559
12644W        W55660  29.222   2.155  22.155 -0.0953  0.0849 -0.3669
12645W        W55661  20.955   4.316  17.667  0.1118 -0.3593 -0.0651
12646W        W55662  20.307  12.480  23.533  0.2921 -0.3462 -0.2278
12647W        W55663  21.830  17.346  13.385  0.0427  0.1084 -0.1642
12648W        W55664   1.955  27.564   1.441  0.2820 -0.0577 -0.3030
12649W        W55665  34.287  30.241  10.610  0.2371  0.0297 -0.1503
12650W        W55666  14.534  26.639   9.418 -0.4259  0.1548  0.4767
12651W        W55667  26.689  28.988  17.841 -0.1454 -0.0762  0.1988
12652W        W55668  21.644  33.967  18.845  0.1325  0.0785 -0.1923
12653W        W55669   8.058   2.396   8.087  0.0730 -0.2132 -0.0315
12654W        W55670  23.883  27.472  19.580 -0.0025 -0.0375 -0.0054
12655W        W55671  10.458   3.880   4.480 -0.1460  0.4744 -0.0192
12656W        W55672  14.594   2.631  19.003  0.0381  0.4102 -0.0604
12657W        W55673   2.622  31.742  16.611  0.0032 -0.0223  0.0119
12658W        W55674  21.860  10.209  28.599  0.2292 -0.1804 -0.1662
12659W        W55675  25.454  30.442  27.485  0.0184  0.3623 -0.0742
12660W        W55676   5.145   7.310  28.787 -0.0404  0.0077 -0.1848
12661W        W55677  29.018  11.316  24.436  0.0854 -0.0376 -0.1233
12662W        W55678  23.041  28.524  16.345 -0.2509 -0.0259  0.4350
12663W        W55679  22.381  31.741  22.330  0.4748 -0.0902 -0.1985
12664W        W55680  30.309  32.031   0.498  0.0532 -0.2315 -0.0164
12665W        W55681  10.563  12.192  14.284  0.0118 -0.0589  0.0763
12666W        W55682   7.045   1.299  29.124 -0.2452 -0.0957 -0.0309
12667W        W55683  30.235  34.599  17.775 -0.1962  0.0143  0.1638
12668W        W55684  20.037  28.551  18.472 -0.1620  0.0317 -0.0452
12669W        W55685  28.209  28.533  27.518  0.0165 -0.0701 -0.2211
12670W        W55686  18.737  25.457  18.046 -0.1714  0.1746  0.1311
12671W        W55687  34.281   6.135  15.389 -0.0503  0.2490 -0.0172
12672W        W55688  19.126  29.205   4.890 -0.0951  0.1340  0.4054
12673W        W55689   2.187  22.573   4.394  0.2035 -0.0676  0.0405
12674W        W55690  23.701  30.700   9.121 -0.0400 -0.0938 -0.1394
12675W        W55691  33.765   2.528  23.498  0.2356 -0.1465 -0.1293
12676W        W55692  17.616  17.455   3.822  0.1538  0.0927  0.3097
12677W        W55693  25.960   3.227   6.828 -0.1710  0.1193  0.1219
12678W        W55694  29.963  18.113   6.380  0.0519  0.2659  0.1336
12679W        W55695  22.187  30.797   1.581  0.1476  0.2458 -0.1435
12680W        W55696  23.749  19.714  18.556 -0.0858 -0.0017  0.0397
12681W        W55697  22.327   1.004  22.793  0.1699 -0.0396 -0.1026
12682W        W55698  13.834  30.527   3.170 -0.1650  0.0065 -0.0629
12683W        W55699  28.929   0.007  16.154 -0.3208  0.3985  0.2383
12684W        W55700  12.484  18.270  20.754  0.1951  0.0746  0.0552
12685W        W55701  27.780   0.982  23.859 -0.0676 -0.0575  0.3917
12686W        W55702  24.226   2.373  16.508 -0.0264  0.4081 -0.4906
12687W        W55703  15.370   3.621  28.075 -0.0698 -0.0449 -0.0869
12688W        W55704   8.517   2.344   8.179  0.1861  0.0594 -0.1168
12689W        W55705  16.984  18.552  26.245 -0.0626 -0.0085 -0.0811
12690W        W55706  12.272   4.804  17.260 -0.1764 -0.0616 -0.3991
12691W        W55707  23.838  20.124  19.539  0.0728  0.0378  0.3414
12692W        W55708   3.241  31.577   0.578 -0.1184 -0.0652  0.3371
12693W        W55709  14.732  18.259   3.007 -0.3394  0.0898  0.0712
12694W        W55710  22.637  29.020  27.711  0.1391 -0.1216 -0.0110
12695W        W55711  13.886  11.490   7.190 -0.0677  0.1498 -0.0708
12696W        W55712  29.678   0.928  22.277  0.3296 -0.1038  0.0614
12697W        W55713  26.277  32.127  20.316  0.1086  0.1947  0.1032
12698W        W55714  25.897  21.436   1.130 -0.0194  0.2709 -0.1842
12699W        W55715  20.269  27.797  14.918  0.5383  0.0020  0.2402
12700W        W55716  11.381  16.874  23.136  0.0587 -0.0926 -0.0404
12701W        W55717   7.324  25.840  22.426  0.0821  0.2177 -0.0296
12702W        W55718  31.956  22.082   2.675 -0.0741 -0.1840  0.0782
12703W        W55719   7.919  15.086  20.714  0.1808 -0.0153  0.3123
12704W        W55720  15.235   6.784  21.638 -0.3069 -0.0361 -0.0019
12705W        W55721  29.573  11.091  15.929 -0.2001 -0.0153  0.2245
12706W        W55722  25.399  33.052  20.696  0.2193 -0.2267 -0.2462
12707W        W55723  27.145  25.797  20.722 -0.1709  0.0873  0.2618
12708W        W55724  25.056  22.761  28.177 -0.0250  0.0510  0.2130
12709W        W55725  17.657   6.103  27.247  0.0107 -0.2415  0.2921
12710W        W55726  27.008  30.491  25.887 -0.2268 -0.0327  0.0093
12711W        W55727  31.098  27.619  22.660 -0.1459 -0.1819 -0.0959
12712W        W55728   2.837  28.413  29.082 -0.0070 -0.3654  0.0677
12713W        W55729  22.757  24.680   0.915 -0.1033  0.0920  0.2267
12714W        W55730  21.299   4.096   0.063  0.2759 -0.3045  0.1572
12715W        W55731   2.920  22.914   3.266  0.1929  0.0821  0.1030
12716W        W55732   4.366  29.597  26.521  0.1371 -0.3390 -0.3203
12717W        W55733  22.974  19.691  14.925 -0.1412  0.0838  0.0191
12718W        W55734   9.005  22.911  28.884 -0.1444  0.1141 -0.0108
12719W        W55735  29.511  26.989   4.112 -0.0795 -0.0155 -0.1459
12720W        W55736  22.509  10.777   0.519  0.1089  0.1657  0.2685
12721W        W55737   3.659   3.356  14.830 -0.0090 -0.1002  0.1384
12722W        W55738  20.057   8.890  21.955  0.3024 -0.0533  0.0103
12723W        W55739  33.583   1.856   2.156 -0.2179  0.0260 -0.0918
12724W        W55740  25.690  22.855  22.290 -0.1846  0.4057  0.2660
12725W        W55741   4.632   9.470  13.672  0.1646  0.0411 -0.2801
12726W        W55742   9.790  28.486  21.648  0.0021  0.1963  0.4193
12727W        W55743  25.269  16.936  14.830  0.2146  0.3892  0.3081
12728W        W55744  32.440  12.591  16.057  0.3472  0.1501 -0.4561
12729W        W55745   8.860   7.820   7.075  0.0094  0.3404 -0.0459
12730W        W55746  34.324  29.431   0.523  0.0255  0.2356 -0.3767
12731W        W55747  22.580  24.400  18.859 -0.1353 -0.3277  0.0761
12732W        W55748   1.029  13.416  26.283 -0.0290  0.0331  0.1868
12733W        W55749  29.778  29.897   1.866  0.1823  0.2277 -0.0468
12734W        W55750  20.358  11.005  22.813  0.1158  0.1393  0.0876
12735W        W55751  14.669  20.836  24.340  0.1317  0.0204  0.0707
12736W        W55752   6.702  29.870   2.916 -0.1611  0.0624 -0.2120
12737W        W55753  25.594  27.847  21.585  0.2489 -0.0542  0.1805
12738W        W55754  27.943  33.635  27.986  0.0783  0.0330  0.4260
12739W        W55755  22.990  24.541  18.091 -0.0289  0.0655 -0.0963
12740W        W55756  28.562  18.966   3.191 -0.2710  0.0002  0.0011
12741W        W55757   8.055  34.385  22.637  0.3152 -0.4582 -0.2253
12742W        W55758  16.474   4.908   7.452  0.2511 -0.0869 -0.0735
12743W        W55759   1.922  27.277  15.428  0.2383  0.0632  0.0275
12744W        W55760  32.526  31.328   9.557  0.0616 -0.0418  0.0452
12745W        W55761  27.915  32.804  24.616  0.1775  0.0719 -0.2254
12746W        W55762  29.840  32.657  18.989  0.4222  0.2919 -0.0422
12747W        W55763  31.309  30.502   9.352 -0.2344 -0.2002  0.0788
12748W        W55764  22.740  24.806  25.316 -0.2273  0.2826  0.1185
12749W        W55765   8.053   1.028   5.891  0.0007  0.1040 -0.0203
12750W        W55766  21.143  10.777  16.706 -0.1692  0.1469  0.0824
12751W        W55767   6.939  28.098  28.841  0.1174  0.0876 -0.0252
12752W        W55768  10.933  27.026  16.019 -0.1328  0.1507  0.0065
12753W        W55769  12.087  25.505  20.271  0.2957 -0.2034  0.0323
12754W        W55770  34.038  32.434   0.433  0.0565 -0.6905  0.0611
12755W        W55771  20.069  34.103  24.947 -0.1190 -0.0303  0.0728
12756W        W55772  23.434  31.570  28.615 -0.1159  0.0674 -0.1053
12757W        W55773  21.077  14.488  20.345  0.1824 -0.2705  0.0141
12758W        W55774  22.808  34.003  26.893 -0.0557 -0.0959  0.0002
12759W        W55775   1.839   7.592  21.535 -0.3258  0.0002  0.1678
12760W        W55776  12.925  27.882   1.934 -0.0799 -0.3439  0.1036
12761W        W55777  11.597  34.608  28.409  0.0185  0.2221 -0.1047
12762W        W55778  25.056   8.461   9.241  0.1649  0.2526 -0.3315
12763W        W55779  31.035  20.381   9.342  0.0228 -0.0002  0.4021
12764W        W55780   4.950   5.344   7.822 -0.0058  0.1018  0.3363
12765W        W55781  23.620  34.528  29.096  0.0717 -0.0054  0.2040
12766W        W55782  16.248  27.775  25.855  0.1565  0.2745  0.0952
12767W        W55783  18.413  15.331  22.890 -0.1510 -0.3406 -0.0435
12768W        W55784  34.557  19.712  19.524 -0.2146  0.0931 -0.1408
12769W        W55785   6.724  20.942  21.375 -0.0889 -0.1106  0.1775
12770W        W55786  12.838  33.581  18.805 -0.1699 -0.1165 -0.3076
12771W        W55787  21.206  11.317   2.912  0.2120 -0.1388  0.3675
12772W        W55788  14.662   7.151  28.596  0.0060  0.1746  0.1958
12773W        W55789  26.644   3.772  27.448 -0.0357  0.1611  0.0404
12774W        W55790  27.814   1.383   5.165  0.2674 -0.0190 -0.2913
12775W        W55791  19.762   2.240  23.061 -0.2034 -0.0879  0.1279
12776W        W55792  25.508  31.234  19.476  0.3823  0.2908  0.1062
12777W        W55793  26.666  13.595  20.164  0.4935 -0.3694 -0.0257
12778W        W55794  17.095  13.537  26.192 -0.3666 -0.2181  0.3065
12779W        W55795   7.397  21.041  20.223 -0.4810 -0.0756 -0.0706
12780W        W55796  31.928  28.115   7.433  0.0988  0.1120 -0.0066
12781W        W55797   5.608  34.754   4.834 -0.4125  0.0561 -0.0612
12782W        W55798  26.776  27.651   5.187 -0.2440  0.1039  0.0067
12783W        W55799   3.830  25.641  16.007  0.1420  0.1948 -0.1651
12784W        W55800  16.174  15.960  21.904 -0.2762  0.1631 -0.1615
12785W        W55801  27.574   0.422   8.118 -0.0123 -0.3618 -0.1148
12786W        W55802   3.216  28.934  27.900  0.1039 -0.0630  0.1227
12787W        W55803  24.628  11.723  29.116  0.0269 -0.1870 -0.0640
12788W        W55804  21.800  33.363  19.522  0.0297  0.0074 -0.2652
12789W        W55805  30.941  26.269  29.070  0.2695  0.2791  0.0809
12790W        W55806  22.538  28.742  25.347 -0.2322 -0.0922 -0.0873
12791W        W55807  29.980  18.947  16.043  0.2214 -0.0245  0.1865
12792W        W55808  24.092  30.006  22.965 -0.0658  0.0980 -0.2600
12793W        W55809  28.147  34.302  27.395 -0.1791 -0.1574 -0.1606
12794W        W55810  16.494  29.311  22.392  0.1249 -0.0150  0.0016
12795W        W55811  27.808  33.384  20.682  0.5161  0.2027  0.1626
12796W        W55812   8.683  34.119  20.708  0.0860 -0.1060 -0.1715
12797W        W55813  34.270  20.125  21.267  0.0673 -0.0043 -0.3765
12798W        W55814  23.920   3.230  29.068  0.2574 -0.1303 -0.2177
12799W        W55815  25.788  24.531   4.947 -0.1330 -0.0697 -0.2259
12800W        W55816   3.997   2.445  14.246  0.4845  0.0141  0.0372
12801W        W55817  29.274  13.755  25.334  0.1699  0.2875  0.1285
12802W        W55818  23.698   4.733  17.398  0.2325  0.0279  0.1911
12803W        W55819  28.796   0.202  27.216 -0.3724  0.1268  0.0062
12804W        W55820  31.370  27.256  22.747 -0.0710 -0.0267 -0.3255
12805W        W55821  30.157   1.354   9.740  0.0974 -0.0164  0.1871
12806W        W55822  10.821  33.202  18.039  0.1019 -0.0724  0.0593
12807W        W55823  12.702  32.350  24.069  0.0092  0.1234  0.0116
12808W        W55824  31.838   2.896  19.623  0.3289 -0.3188 -0.2581
12809W        W55825  30.584  13.557   5.637  0.1447  0.0468  0.2150
12810W        W55826  13.471  32.150  19.669 -0.1832  0.4059 -0.1585
12811W        W55827  22.878   1.702   3.129  0.1796  0.1650 -0.1598
12812W        W55828  16.888   3.018   6.585 -0.3182 -0.1580 -0.2248
12813W        W55829  27.692  23.378  19.471  0.2347  0.1083 -0.3106
12814W        W55830  31.230  15.007  18.064  0.0730  0.2364 -0.1670
12815W        W55831  26.526   3.931  17.019  0.1834  0.1957 -0.1816
12816W        W55832  29.970  31.720  22.003 -0.3827 -0.0935  0.4477
12817W        W55833  25.512   1.047  21.459 -0.0199 -0.3626 -0.0153
12818W        W55834  24.113  23.145   0.088  0.0813  0.2697 -0.1527
12819W        W55835  13.061   7.567  14.028  0.2341  0.5099  0.1650
12820W        W55836  29.477  10.990  18.477 -0.0973  0.2360 -0.1270
12821W        W55837  25.065   8.584  21.509  0.0501 -0.2166  0.2574
12822W        W55838  18.733   6.229  25.535 -0.0090 -0.1080 -0.0623
12823W        W55839  16.013   1.897  29.310  0.2272 -0.0543 -0.1476
12824W        W55840  17.620   9.129  14.956  0.0709  0.0092  0.3350
12825W        W55841   5.038  28.710  16.370  0.1305 -0.0789  0.0530
12826W        W55842  18.744  31.689  19.324 -0.1439  0.1108  0.2182
12827W        W55843  17.589  12.181  25.525  0.1703  0.0475  0.3765
12828W        W55844   1.817  30.303  24.894  0.0924 -0.3296  0.2032
12829W        W55845  28.047  20.520  24.213 -0.2519 -0.5180 -0.3067
12830W        W55846   7.464   5.462  15.675 -0.1580  0.1634 -0.1267
12831W        W55847   1.667  33.050   3.755 -0.2930 -0.4635  0.3550
12832W        W55848  32.973   8.362   2.888  0.1748 -0.0910 -0.0451
12833W        W55849   3.764  32.251  20.354 -0.0851  0.1905  0.1862
12834W        W55850  23.971  30.507  16.907 -0.1900 -0.0721 -0.3391
12835W        W55851  31.692  28.028  26.746  0.2051  0.3907 -0.0580
12836W        W55852  21.611  34.219  27.685  0.0495 -0.1823 -0.0515
12837W        W55853  25.331  16.897   4.845 -0.2052 -0.1004  0.0934
12838W        W55854  29.469  23.487  17.296  0.0151  0.1261  0.1289
12839W        W55855  29.963  18.696  17.024 -0.2102  0.2828  0.0302
12840W        W55856   7.668  30.680  28.702  0.3596  0.0152  0.1427
12841W        W55857  33.731   6.464  25.736  0.4772 -0.1853  0.1574
12842W        W55858   8.885  31.273   6.511  0.1178  0.1617  0.0249
12843W        W55859  19.824   5.571  27.601  0.0618  0.2203 -0.1827
12844W        W55860   7.643   5.402  21.970  0.2387  0.1300 -0.1780
12845W        W55861  18.676   9.814   7.022 -0.3142 -0.1178 -0.0655
12846W        W55862  27.338  26.169  16.263 -0.2606  0.0520 -0.2238
12847W        W55863  21.857  24.820  28.079 -0.0233 -0.6267  0.2116
12848W        W55864  16.372   9.347   8.302  0.0257 -0.2532 -0.3293
12849W        W55865  27.768  30.136  16.896 -0.1587  0.1412  0.3524
12850W        W55866  13.008  27.903  24.666  0.1184  0.0029  0.0809
12851W        W55867  27.660  25.123  28.785 -0.1852  0.0889  0.0384
12852W        W55868  18.442  22.578  25.017  0.0831 -0.1501 -0.3010
12853W        W55869  21.464  30.180  25.869 -0.0339  0.2088  0.2597
12854W        W55870  34.279  31.902   6.559  0.0004  0.1469  0.1226
12855W        W55871  20.292   3.283  28.708  0.2708 -0.2771  0.2042
12856W        W55872  20.678  33.407   3.183 -0.0401  0.2675 -0.2688
12857W        W55873  17.577  25.206  24.179  0.1238 -0.1176 -0.0897
12858W        W55874  25.795  28.075   2.857 -0.1308 -0.2632  0.0128
12859W        W55875   8.681   6.207  19.553  0.4916  0.1630 -0.1583
12860W        W55876  12.047  27.719  14.208  0.0449 -0.1083  0.0231
12861W        W55877  25.015  21.890  10.314 -0.0172  0.0976  0.0537
12862W        W55878   4.163  25.525  23.705 -0.0567  0.0441  0.3637
12863W        W55879  25.979   5.023  27.103  0.0054 -0.0653  0.0688
12864W        W55880  25.064   6.745  16.237 -0.3351 -0.2628 -0.1245
12865W        W55881  29.087  33.247  25.891 -0.3347  0.2511  0.2746
12866W        W55882  14.656  16.904   1.175  0.2121  0.1050  0.2014
12867W        W55883  27.564  27.287   5.725 -0.2714  0.0225 -0.1274
12868W        W55884  16.714  10.215  22.481  0.1967  0.0321 -0.4556
12869W        W55885  26.161  33.245   6.137 -0.0369  0.1752  0.3752
12870W        W55886   2.105  30.857  20.940 -0.0994 -0.1195  0.1787
12871W        W55887  20.424   8.611  19.558  0.0717 -0.0933 -0.0262
12872W        W55888  31.555  31.447  16.045  0.5409 -0.1372  0.1828
12873W        W55889  24.077  29.106  18.496  0.0447  0.0236  0.4217
12874W        W55890  30.020  30.779  18.879  0.0019 -0.0105 -0.2254
12875W        W55891   5.890  11.865  23.914  0.1957 -0.0199  0.2691
12876W        W55892  26.520   2.360  15.510 -0.3145 -0.2427  0.3407
12877W        W55893  23.677  19.127  19.967 -0.2030  0.0103  0.1599
12878W        W55894  14.029   3.881  26.829 -0.0517 -0.0805  0.1925
12879W        W55895  14.805   7.909   6.023 -0.0324 -0.1834 -0.1854
12880W        W55896  22.480  29.925   6.244 -0.2115  0.0076 -0.3096
12881W        W55897   1.981   8.121   6.713  0.2422  0.0399 -0.0023
12882W        W55898  20.117   5.626  23.377 -0.1879 -0.3409 -0.0271
12883W        W55899  23.398  27.140   5.386 -0.2838  0.0024  0.1075
12884W        W55900  28.525   4.397  22.303  0.0175  0.3964  0.0434
12885W        W55901  27.892  12.398  22.898 -0.0612 -0.1163 -0.3966
12886W        W55902  21.193  19.275  17.081 -0.2095  0.0323 -0.0060
12887W        W55903  27.603   5.227   4.416 -0.4434  0.4353  0.3694
12888W        W55904  34.723  22.481  27.184 -0.0928  0.2975  0.0229
12889W        W55905  19.124  21.710  14.670 -0.0002 -0.2569 -0.3166
12890W        W55906  10.475  34.688   4.460  0.2790 -0.1250  0.2346
12891W        W55907  30.460   7.594  14.562  0.2935 -0.2177 -0.0840
12892W        W55908   8.186   7.623  24.606 -0.2713  0.0369  0.2872
12893W        W55909  19.216  29.152  23.076 -0.3205  0.2306  0.1928
12894W        W55910  19.305  29.745  15.196 -0.1571 -0.1794 -0.1739
12895W        W55911  34.607  21.692   4.029  0.1491  0.3681 -0.4381
12896W        W55912   6.287  16.522  23.212 -0.2472  0.0156 -0.0309
12897W        W55913  13.277  27.924  28.711 -0.1919 -0.0093  0.0000
12898W        W55914   6.066  26.992   9.409  0.1775 -0.3063 -0.1508
12899W        W55915  12.367   0.922  15.208 -0.0751 -0.0678  0.0788
12900W        W55916  15.542  22.510  14.453 -0.0263  0.1224  0.2640
12901W        W55917  16.417  28.706  25.978  0.2680 -0.0540  0.0205
12902W        W55918  32.275   2.577   1.814  0.1437 -0.0907 -0.1830
12903W        W55919  31.916  24.782  21.999  0.0542  0.2824 -0.1610
12904W        W55920  18.862   0.333   0.230 -0.0458  0.1940  0.0394
12905W        W55921  21.520  28.585   9.656 -0.1315 -0.1716  0.1210
12906W        W55922  18.655  26.555  23.237  0.2694  0.1863 -0.2653
12907W        W55923  26.813   3.640  16.811 -0.2960 -0.1616 -0.1437
12908W        W55924  23.502  10.541   3.403 -0.3448  0.1404 -0.1201
12909W        W55925  30.237  33.316  16.980  0.1981 -0.2437 -0.1803
12910W        W55926  21.714  33.093  27.970 -0.1293  0.0849  0.1003
12911W        W55927  17.365  25.627   0.503 -0.0739  0.3020 -0.0538
12912W        W55928  19.793  29.365  18.098  0.0632  0.2330 -0.0700
12913W        W55929  32.430  15.145  25.279  0.1903 -0.3995 -0.1134
12914W        W55930   7.350  26.590   2.905 -0.4598 -0.2373  0.1550
12915W        W55931   0.339  27.955   9.547  0.3220 -0.0628 -0.0589
12916W        W55932  20.629  29.818  16.924 -0.2139 -0.0278  0.3678
12917W        W55933  30.474  25.984  15.895  0.0789  0.2213 -0.2475
12918W        W55934  27.603  13.647   6.111 -0.1603  0.0332 -0.0388
12919W        W55935  15.280  12.820   3.678 -0.0940  0.1368 -0.0840
12920W        W55936  20.598  30.255  16.183 -0.0468  0.1453  0.2014
12921W        W55937  19.650  15.999  21.691 -0.2961 -0.0546 -0.2768
12922W        W55938  20.040   8.951  26.740  0.2405  0.1797 -0.1361
12923W        W55939  30.900  34.304  18.800 -0.2814 -0.0236 -0.1337
12924W        W55940  20.121   7.791   4.908 -0.2018 -0.4362 -0.0523
12925W        W55941  18.669   7.012  16.405  0.1446 -0.1373 -0.0247
12926W        W55942  13.645  33.072  15.406  0.0040 -0.0028 -0.1631
12927W        W55943  14.524  17.380  15.019  0.2379  0.1362  0.0452
12928W        W55944  23.822  21.858   3.484 -0.0863 -0.1186  0.3151
12929W        W55945   1.205   3.877   5.437 -0.2223  0.1316 -0.3360
12930W        W55946  22.955  16.382  28.570 -0.2613 -0.0420  0.0168
12931W        W55947  13.875  33.209  10.112  0.3122 -0.0544 -0.1642
12932W        W55948  32.619  26.385  28.150 -0.0309  0.0067  0.0687
12933W        W55949  12.526  16.025  20.057 -0.1514 -0.4408 -0.0390
12934W        W55950  33.310  25.152   9.499 -0.1936  0.1295 -0.0417
12935W        W55951  30.782  16.510  14.440 -0.1242  0.2914  0.0191
12936W        W55952  33.121  23.625  26.688  0.0602 -0.1390 -0.3005
12937W        W55953  15.275   0.417  28.505  0.4435 -0.0892 -0.0646
12938W        W55954  27.279  29.806  15.737  0.2404 -0.0941  0.2619
12939W        W55955  22.225  33.549  24.391 -0.2212 -0.2915 -0.2093
12940W        W55956   4.848   1.353  14.772  0.1958  0.2360  0.0566
12941W        W55957   7.492   8.772   3.522 -0.2124  0.1283 -0.0637
12942W        W55958  33.893  19.367   2.213 -0.1669 -0.0733  0.1974
12943W        W55959  22.723   4.737  16.316 -0.3574  0.0540 -0.0894
12944W        W55960  17.500  21.718  25.625  0.0086  0.0859 -0.1666
12945W        W55961   5.897   0.842   2.353 -0.0649 -0.2392 -0.2347
12946W        W55962  24.554  27.031  20.039 -0.1398 -0.0252 -0.0551
12947W        W55963  13.420  12.408  17.208 -0.0944 -0.0971 -0.0901
12948W        W55964   7.353  17.011   6.830  0.1068 -0.0092 -0.1905
12949W        W55965   5.007   0.792  17.250  0.0047  0.0068 -0.0363
12950W        W55966   6.508  27.402  17.249  0.0689 -0.2423  0.3441
12951W        W55967  15.628  26.521  15.281 -0.0292  0.1292  0.0338
12952W        W55968  18.515   1.674   7.012 -0.0254 -0.2182 -0.0204
12953W        W55969  23.073   0.850  19.824  0.0614  0.2784 -0.2745
12954W        W55970  23.847  24.637  20.582  0.3387 -0.0205 -0.2935
12955W        W55971  29.048   4.114   5.814 -0.1179  0.1625 -0.3819
12956W        W55972  25.914  30.307   5.398  0.3024 -0.0492 -0.0963
12957W        W55973  30.835   2.717  23.615 -0.4566 -0.0390  0.2422
12958W        W55974  16.023  32.007  24.372 -0.1743  0.1523  0.0263
12959W        W55975  25.248  16.940  20.502 -0.2021  0.1903  0.1843
12960W        W55976  10.752  15.849   1.061 -0.1700 -0.2710 -0.0175
12961W        W55977   0.169  33.539  10.198  0.2292  0.0991  0.2145
12962W        W55978  20.906  12.053  18.766 -0.1083 -0.1152 -0.0574
12963W        W55979  18.540  20.963  23.624  0.3330  0.0636  0.2830
12964W        W55980  18.930   0.889   4.307  0.0051  0.0554 -0.1822
12965W        W55981  11.240   0.077   1.948  0.0395  0.1524 -0.0857
12966W        W55982   9.527  30.013   5.592  0.2056 -0.1672  0.2129
12967W        W55983  15.397  34.249   1.601 -0.1104  0.0924  0.3179
12968W        W55984  15.280   5.519  22.467 -0.0698 -0.3085  0.2235
12969W        W55985   7.369  19.118  17.741 -0.4281 -0.1941 -0.0681
12970W        W55986   8.136  29.889  28.302  0.0958  0.1453 -0.0846
12971W        W55987  19.251  34.492   5.937  0.1817  0.2808  0.0960
12972W        W55988  31.010  27.286  23.646  0.1083  0.3449  0.2627
12973W        W55989  26.741  23.910  27.863  0.0014 -0.3696 -0.0737
12974W        W55990  16.752   3.742   0.196 -0.2517 -0.0329  0.2425
12975W        W55991  21.046  20.899   9.499  0.3113 -0.2036  0.0957
12976W        W55992  18.109  33.734   8.373 -0.0081 -0.0891  0.1232
12977W        W55993   6.712   4.067  22.321 -0.0565  0.1605 -0.1112
12978W        W55994  19.329  32.190  26.783  0.1873  0.3766 -0.0433
12979W        W55995  25.371  25.342   2.915 -0.0625 -0.1165  0.0978
12980W        W55996  32.076  29.000   6.707  0.3252  0.2087  0.4959
12981W        W55997  12.920  30.083  24.215 -0.2009  0.0409 -0.2405
12982W        W55998  16.005  12.948  17.102  0.5003 -0.0810  0.0009
12983W        W55999  22.369   6.070  28.352  0.0993  0.1892  0.0993
12984W        W56000  31.457  27.874   5.021  0.1162 -0.0703 -0.0105
12985W        W56001  14.187  33.546   2.164 -0.0565  0.1244  0.1105
12986W        W56002  32.226  18.191  22.324  0.0600  0.1640  0.1238
12987W        W56003  23.728  33.798  18.378 -0.0952 -0.0280  0.2023
12988W        W56004  23.669  28.150  20.317 -0.0837  0.0674  0.0269
12989W        W56005  24.595  26.910  19.528 -0.0333  0.0030 -0.1162
12990W        W56006  19.684  11.002  23.051 -0.1104  0.0466  0.3909
12991W        W56007   7.872  31.789  17.211  0.1336 -0.1165  0.1966
12992W        W56008   9.902  20.502  18.622 -0.2927 -0.0699 -0.0817
12993W        W56009  33.847  25.950   0.106  0.1493  0.3249 -0.0331
12994W        W56010  23.725   9.138   9.885  0.2829 -0.0043 -0.0565
12995W        W56011  18.550   9.353   4.299 -0.2773  0.0728 -0.0770
12996W        W56012  16.569   0.175  18.157 -0.1565 -0.0712 -0.1706
12997W        W56013   0.990  18.033   0.940 -0.2014 -0.1593 -0.0609
12998W        W56014  20.342   6.611  21.168  0.0656  0.0728  0.0312
12999W        W56015  30.778   8.728  27.833  0.0798 -0.1438 -0.1141
13000W        W56016  32.369  32.515  24.390  0.2752 -0.2406  0.2717
13001W        W56017  30.487  27.203  22.176  0.2068 -0.0322  0.1540
13002W        W56018  25.764   1.750  20.850  0.0199  0.0550  0.0844
13003W        W56019   4.186  15.882   8.383  0.6317  0.0129  0.0914
13004W        W56020   4.683  17.397  16.799  0.0467  0.0107  0.2794
13005W        W56021   4.340  27.938  24.498 -0.0502 -0.2729 -0.0764
13006W        W56022  15.360  26.079  22.896 -0.0743  0.1113 -0.0282
13007W        W56023  22.543   0.875  18.461 -0.1208  0.1644 -0.0342
13008W        W56024  26.150  13.527   2.814 -0.1914  0.2267 -0.0419
13009W        W56025  15.383   7.149  17.436  0.1568  0.1288 -0.2968
13010W        W56026  20.918   0.175   2.870 -0.0389  0.1226  0.2245
13011W        W56027  25.499  17.419  14.829 -0.0635 -0.1119  0.1944
13012W        W56028  33.024   3.891  25.268 -0.2489 -0.0812 -0.2610
13013W        W56029  30.370  24.573   5.518  0.1658 -0.0113  0.1138
13014W        W56030  31.383  27.562  16.410 -0.0201 -0.1154  0.2013
13015W        W56031  24.271  10.432  22.827  0.0865 -0.1202  0.0601
13016W        W56032  20.095  30.389  17.719 -0.1116  0.0106  0.0972
13017W        W56033  23.929  20.752   2.320  0.3324 -0.3518  0.0981
13018W        W56034  10.807  26.863   6.185 -0.1459  0.1677 -0.3967
13019W        W56035  22.950  31.701  15.487  0.0268 -0.0739 -0.0510
13020W        W56036  19.512  21.297   4.292  0.0182 -0.2251  0.0156
13021W        W56037   2.862  28.144  16.247 -0.0342 -0.0907  0.0738
13022W        W56038   2.063  11.754   1.653 -0.0985  0.3134  0.0237
13023W        W56039  11.044   2.548  14.147  0.0405 -0.3422 -0.2932
13024W        W56040  21.744   3.099  21.730  0.2030 -0.0208 -0.0375
13025W        W56041   8.597  13.542  26.746  0.2041  0.2528  0.1749
13026W        W56042  25.940  25.875   5.101 -0.2061 -0.3877 -0.2044
13027W        W56043   2.423   3.715  23.494  0.0121  0.1366  0.1548
13028W        W56044  10.488  25.354   2.068 -0.0689  0.1958 -0.2340
13029W        W56045  29.434  28.273  25.103  0.2779  0.0631 -0.3217
13030W        W56046  26.916   2.627  25.985 -0.0378 -0.1399  0.0659
13031W        W56047   4.195  19.398   0.659 -0.0085  0.2327  0.1736
13032W        W56048   7.405  28.930  17.074  0.1529  0.1806 -0.1812
13033W        W56049  21.720   3.612  26.241 -0.0939 -0.3044  0.1978
13034W        W56050   6.338   5.911  28.975  0.2576 -0.1990 -0.1326
13035W        W56051  16.315  25.462  22.832  0.0763 -0.0330  0.3423
13036W        W56052  27.799  29.880  17.992  0.2000 -0.0953  0.1259
13037W        W56053  30.396   2.964  16.819 -0.2045  0.0289  0.1809
13038W        W56054  22.554  14.212  23.901 -0.1146  0.2058  0.2133
13039W        W56055  23.610  22.532  22.038  0.0053  0.0105  0.0570
13040W        W56056   6.782   3.226   7.517 -0.0040 -0.1936  0.0847
13041W        W56057  16.848  32.142  15.283 -0.3105 -0.0399 -0.1381
13042W        W56058  23.801  28.378   9.613  0.0129 -0.1952 -0.1143
13043W        W56059  20.645   2.621   9.307  0.0179 -0.1210 -0.3282
13044W        W56060  22.035   3.406  23.968  0.0666 -0.0283  0.1758
13045W        W56061  10.078  17.721  24.683  0.1410 -0.0765  0.2198
13046W        W56062  23.215   8.825  23.082  0.1013  0.2888  0.3365
13047W        W56063  24.008  15.879   1.266 -0.0432 -0.1361 -0.0342
13048W        W56064  30.887  22.325   0.077  0.2321 -0.3185  0.0214
13049W        W56065  14.687  17.131  28.836 -0.2941 -0.0208  0.1710
13050W        W56066  29.222  30.202  27.965 -0.1365  0.2411  0.1069
13051W        W56067  26.254  19.953   7.403 -0.1226 -0.1149  0.0659
13052W        W56068  16.842  19.703  27.098 -0.1670  0.1371 -0.0777
13053W        W56069  24.856  11.240   4.826 -0.1726  0.1216 -0.3421
13054W        W56070  22.193  33.254  28.253 -0.1004  0.2288  0.0943
13055W        W56071  10.867  30.065   2.196 -0.1977  0.1593 -0.0134
13056W        W56072  30.830  14.376  22.119  0.0364  0.1936  0.0036
13057W        W56073  14.853   0.002  21.719  0.3921  0.1429 -0.2043
13058W        W56074   1.476  11.298  17.079 -0.1384 -0.5046 -0.2105
13059W        W56075  22.002  24.543  18.914  0.1457  0.1641  0.1395
13060W        W56076   4.294  11.298  27.087  0.0094  0.0803  0.1554
13061W        W56077  23.263  28.705   8.906  0.2946 -0.3131 -0.1312
13062W        W56078  17.182  22.797  24.903 -0.0535 -0.1783 -0.6334
13063W        W56079   1.737   0.000  19.131 -0.2623  0.2094 -0.1949
13064W        W56080  30.750   7.988   3.811 -0.2504  0.0655 -0.0397
13065W        W56081  28.216  28.348   2.357 -0.3213  0.0826 -0.0547
13066W        W56082  18.316   0.460   3.865  0.2391  0.0362 -0.0645
13067W        W56083  32.577   3.283   9.850 -0.0463  0.1464 -0.0517
13068W        W56084   9.988   6.179   2.182  0.3661  0.0513  0.0962
13069W        W56085  28.162  27.616   8.727  0.0717 -0.0374 -0.2170
13070W        W56086  20.033  25.165   9.198 -0.0827  0.0355 -0.2080
13071W        W56087  21.120   1.168  19.714 -0.1827 -0.1102  0.2279
13072W        W56088  20.484   5.874  22.529  0.0483 -0.1988  0.3449
13073W        W56089   9.676  23.557   7.561  0.1057  0.0173  0.2478
13074W        W56090  26.590  24.857   5.036  0.2869  0.0188  0.2064
13075W        W56091  20.920  15.415  19.788  0.0654 -0.5043  0.1258
13076W        W56092  13.925  20.555  20.288  0.2792 -0.2293 -0.1962
13077W        W56093   2.837  13.356  28.696  0.0333  0.2486 -0.2097
13078W        W56094  23.279  20.579   7.516 -0.5395  0.2143 -0.0583
13079W        W56095  27.219  19.663  25.891 -0.2202 -0.2408 -0.1083
13080W        W56096  34.607  22.553   7.265 -0.0972 -0.2072  0.1955
13081W        W56097  27.932  19.409  26.811 -0.0592  0.0521  0.2460
13082W        W56098   4.227  32.724  18.879 -0.0644  0.2833  0.1944
13083W        W56099   9.824  10.965  27.943 -0.0714 -0.1933 -0.2552
13084W        W56100  34.178   4.711   5.103  0.2012  0.2425 -0.1393
13085W        W56101  16.036  30.369  25.745 -0.0265 -0.0920  0.1246
13086W        W56102   0.269  30.180   2.517  0.1331 -0.0251  0.0904
13087W        W56103  27.689   1.560  22.336 -0.1123  0.2428 -0.1075
13088W        W56104  24.896  20.846   6.437 -0.0648 -0.2323  0.4409
13089W        W56105  18.648  18.021  27.873  0.2942  0.0403  0.3684
13090W        W56106  17.989  34.355  24.921 -0.0277  0.2187 -0.2139
13091W        W56107  15.835   5.161  24.625 -0.0639 -0.2135  0.0245
13092W        W56108   9.515   7.057  17.177 -0.0448 -0.0934 -0.1247
13093W        W56109   5.848  23.471   2.471 -0.3404  0.2345  0.0629
13094W        W56110  19.477  27.725  13.839 -0.1095 -0.0796 -0.4212
13095W        W56111  26.818   2.142  16.790  0.0337 -0.1340 -0.1642
13096W        W56112  14.614  30.231  26.162 -0.1014  0.1977 -0.0318
13097W        W56113  26.614  33.176  16.608  0.2567 -0.0268 -0.2095
13098W        W56114   4.633  14.201  27.596  0.0629  0.1090 -0.2919
13099W        W56115  17.573  19.832  27.063  0.4759 -0.0785 -0.0671
13100W        W56116  30.119   2.240  10.012  0.0854 -0.0896  0.2044
13101W        W56117  23.216  27.560   7.192  0.4872 -0.0916  0.0633
13102W        W56118  34.479  26.908   5.192  0.3872  0.1370  0.1760
13103W        W56119  11.147  22.265  21.497  0.1915  0.0559 -0.1670
13104W        W56120  29.824  24.553   1.655  0.1574  0.1134  0.1738
13105W        W56121  29.258   3.112  15.752 -0.0140  0.2474 -0.1438
13106W        W56122   5.820  28.941   6.196 -0.6865 -0.0377 -0.2490
13107W        W56123   1.185  25.553   0.700 -0.7104 -0.2927  0.1848
13108W        W56124  29.998  34.131   9.002 -0.0288 -0.0733  0.1170
13109W        W56125  23.673  15.103  26.436 -0.0008 -0.2207  0.0739
13110W        W56126  21.783   9.421   4.651  0.0487  0.2804  0.2035
13111W        W56127  23.249  24.759   1.147 -0.2049  0.3145  0.2231
13112W        W56128  12.334  31.064  28.960  0.0414  0.1945  0.0152
13113W        W56129  11.450  27.842   7.409  0.0992  0.0798  0.2144
13114W        W56130  22.934   2.685  22.919 -0.0855  0.3530 -0.1587
13115W        W56131  15.199   6.825   4.577 -0.2975  0.0650 -0.2522
13116W        W56132  22.079  29.512  22.537 -0.0065 -0.3649  0.2421
13117W        W56133  23.952  28.308  26.203 -0.0565 -0.0078 -0.0042
13118W        W56134  31.604  21.045   1.892  0.1323 -0.2617 -0.0552
13119W        W56135  10.299  29.504   6.989 -0.0533 -0.3118 -0.4187
13120W        W56136  18.856  32.428  23.297 -0.0882 -0.1299 -0.0296
13121W        W56137   4.871  33.464  22.403 -0.0694  0.0855 -0.1076
13122W        W56138   2.876  29.016  17.538 -0.0991  0.1092 -0.1457
13123W        W56139  20.114  33.357   5.174 -0.0327 -0.1973 -0.1174
13124W        W56140  31.710   5.093   5.150  0.1920 -0.0939  0.2474
13125W        W56141  20.021  32.682   5.795  0.0969 -0.1079  0.0467
13126W        W56142  13.971   2.430  28.446 -0.0516  0.0560  0.4935
13127W        W56143  24.738  23.393  18.531  0.0201  0.2317 -0.3215
13128W        W56144  29.034  27.669   2.454 -0.1724 -0.0564 -0.2060
13129W        W56145  27.381   7.480  10.837  0.1716  0.0304 -0.2136
13130W        W56146  26.474  30.753  18.923 -0.3574  0.0557 -0.0152
13131W        W56147  23.812  27.257  29.315 -0.1862 -0.0255  0.4186
13132W        W56148   8.498   1.286   9.135  0.1485 -0.0898 -0.0154
13133W        W56149  14.557   7.844  18.029  0.0369 -0.0226 -0.2493
13134W        W56150   9.841  24.896  20.821 -0.1015  0.0306  0.0749
13135W        W56151  11.433  19.712   0.863 -0.1581 -0.0017  0.0606
13136W        W56152  24.738  26.468  16.660 -0.1407 -0.0521 -0.1443
13137W        W56153  23.614  16.388   8.266 -0.0798  0.1984  0.2833
13138W        W56154  17.924   6.290   3.758  0.2348  0.0797 -0.0230
13139W        W56155  28.964  21.542   6.985  0.1166  0.1906  0.0853
13140W        W56156   2.254   3.830   6.450  0.0510 -0.2121  0.2859
13141W        W56157  12.066   7.578   4.744 -0.2130 -0.4086 -0.1323
13142W        W56158  20.371   7.216   2.842  0.0918 -0.0769  0.0462
13143W        W56159  25.554   2.836   3.367  0.0799  0.1945  0.1217
13144W        W56160  19.091  19.362  22.204  0.3810  0.1098  0.2006
13145W        W56161  27.101  24.056  20.674 -0.0801 -0.1190  0.1850
13146W        W56162  24.318  34.702  19.675  0.1863  0.0965 -0.0289
13147W        W56163  24.965  27.825   6.441 -0.1297  0.1618  0.0243
13148W        W56164  22.200  30.496  25.397 -0.0876 -0.0318  0.0746
13149W        W56165  22.499  18.010  17.729 -0.3001 -0.2904  0.1444
13150W        W56166  14.981   4.419  14.788  0.1378 -0.1196 -0.2763
13151W        W56167   7.686   0.840  10.121 -0.0519 -0.3425 -0.1387
13152W        W56168  18.411  29.300   5.179 -0.3187 -0.0510 -0.0240
13153W        W56169   5.648  25.158   4.676  0.1382  0.0830  0.3346
13154W        W56170  32.559   0.605   9.793 -0.1140 -0.2373  0.2432
13155W        W56171  22.532  31.667   3.505 -0.0786  0.1656  0.1994
13156W        W56172  16.169  32.899  23.767 -0.0478 -0.0673  0.1946
13157W        W56173  19.065  16.198   0.977 -0.0859 -0.1185  0.1266
13158W        W56174   9.818  29.219  25.760 -0.0804 -0.1260 -0.0215
13159W        W56175  24.227   4.935  15.715 -0.1528  0.3513  0.0107
13160W        W56176  11.789  25.055  25.274 -0.0650  0.0087 -0.0089
13161W        W56177  22.508  28.246  26.358 -0.0917 -0.2559  0.0129
13162W        W56178  16.755  30.046   2.659  0.0836 -0.1329 -0.4025
13163W        W56179  26.494  24.562   6.012  0.2376  0.1398  0.1258
13164W        W56180  13.146   1.104   0.676  0.3763  0.0318  0.0203
13165W        W56181  27.289   1.322   6.717 -0.2715  0.1175 -0.0502
13166W        W56182   5.209   3.349  28.873 -0.1204 -0.0622 -0.2962
13167W        W56183  26.644   8.642   6.897  0.0192  0.1175  0.1199
13168W        W56184  23.041   4.117  25.147 -0.1396  0.3127 -0.1637
13169W        W56185  12.588  23.212   0.440 -0.0220  0.2190  0.0536
13170W        W56186   4.434  22.308  29.130  0.1568 -0.0850  0.1168
13171W        W56187  22.596  28.605   4.853  0.1204  0.0755  0.1348
13172W        W56188  31.844  23.127   2.489 -0.1131  0.1056 -0.3742
13173W        W56189  18.369  24.015   9.122 -0.1222  0.0600 -0.2798
13174W        W56190  33.570  20.911  20.924  0.4581 -0.1321 -0.0997
13175W        W56191  23.002   7.111  14.346 -0.1732 -0.1528  0.1882
13176W        W56192  26.935   0.117   2.501  0.2077  0.2443 -0.1225
13177W        W56193  13.118  12.573  23.093 -0.0934 -0.1191 -0.2276
13178W        W56194  13.711   6.933  26.861 -0.2989  0.1763  0.0347
13179W        W56195  14.457  19.964  22.543 -0.2932 -0.0027  0.0012
13180W        W56196   8.583  24.130  18.189 -0.0125 -0.0015 -0.0250
13181W        W56197  27.137   2.783  11.653 -0.3365 -0.2528 -0.1341
13182W        W56198  28.649   1.358  24.483 -0.0825 -0.1860  0.0871
13183W        W56199   7.436   1.725   7.184 -0.0678  0.2298 -0.0433
13184W        W56200   9.654  21.450  18.757 -0.0766 -0.0578 -0.0697
13185W        W56201  19.345  31.282   4.957 -0.0411 -0.0486 -0.0405
13186W        W56202  17.840  20.485   6.343 -0.4169  0.2170  0.1745
13187W        W56203  24.565  30.678   5.495 -0.1197  0.2549  0.0940
13188W        W56204  27.458  21.645  18.008  0.0592  0.1018  0.1164
13189W        W56205  19.450  33.511   4.625 -0.0815  0.1725 -0.0210
13190W        W56206  33.015   4.203  19.171  0.1478 -0.1429  0.0760
13191W        W56207   6.443  14.605   0.215 -0.0027 -0.2473 -0.0474
13192W        W56208  14.254  27.095  25.464 -0.1709 -0.3196 -0.0336
13193W        W56209  33.986  34.125   9.807  0.0778 -0.0559 -0.1418
13194W        W56210   1.191  20.134  18.421 -0.1554  0.1149 -0.0024
13195W        W56211   6.618  34.114   6.789 -0.3394 -0.2007  0.0075
13196W        W56212  22.892  32.044  28.827  0.0614 -0.1032  0.3719
13197W        W56213  26.780  19.718  15.956 -0.1292  0.2779  0.0915
13198W        W56214   7.609  11.216  27.492  0.3549  0.0793  0.3003
13199W        W56215  27.726  27.388   8.246 -0.3356  0.1628 -0.0994
13200W        W56216  16.035  30.376  17.225  0.0024  0.0446  0.0466
13201W        W56217  33.883  30.674  27.138 -0.3029 -0.2930 -0.2738
13202W        W56218   3.242  17.655   7.171 -0.2907  0.0731  0.2021
13203W        W56219  10.223   9.279   2.449 -0.0759 -0.1383 -0.1963
13204W        W56220  24.792  32.156   8.807 -0.2927  0.0662 -0.0594
13205W        W56221  23.883  18.037   6.727  0.0742  0.2831 -0.1781
13206W        W56222  16.394  30.341  24.755  0.0719 -0.1799 -0.2680
13207W        W56223   9.200   3.689  27.071  0.1633  0.0837 -0.0004
13208W        W56224  31.144  10.641  19.062 -0.2911 -0.0419 -0.0006
13209W        W56225  14.102   2.554  22.284  0.0249 -0.1504 -0.1097
13210W        W56226  28.525  31.328   1.385 -0.0695  0.0678 -0.3007
13211W        W56227  22.783   5.115   0.574 -0.0373  0.1215  0.3481
13212W        W56228  24.480   7.924  14.739 -0.1205 -0.0305 -0.2481
13213W        W56229  10.195  28.084  27.502  0.0573  0.3302 -0.2107
13214W        W56230  27.893   2.320   0.002 -0.0161 -0.0610  0.1831
13215W        W56231  28.531   3.786   0.484  0.2272  0.0544 -0.0574
13216W        W56232  18.539  30.825  15.409 -0.0127 -0.1409 -0.0012
13217W        W56233  13.986  31.512   2.954 -0.0704  0.0016  0.1622
13218W        W56234  14.784  16.117  25.108 -0.0309 -0.1421 -0.0215
13219W        W56235  12.245  22.254  21.413 -0.0348 -0.1102 -0.0724
13220W        W56236  16.769   8.692  24.559 -0.0657 -0.2993  0.0785
13221W        W56237  13.350  17.522  21.999 -0.1060 -0.3605  0.1925
13222W        W56238   9.780   5.426  28.461  0.0167  0.0497  0.1589
13223W        W56239  18.947   5.585  29.071 -0.0738 -0.0908  0.3190
13224W        W56240  27.589  21.829  26.623  0.1756  0.1899 -0.0461
13225W        W56241  25.095  33.119  23.251 -0.2268 -0.4696 -0.1882
13226W        W56242  27.705  28.973  17.773  0.0223 -0.1172  0.1135
13227W        W56243   9.644  31.952   9.860 -0.1109  0.0661  0.1983
13228W        W56244  29.823   2.778  26.314 -0.1084 -0.0900 -0.1905
13229W        W56245  27.720  21.867   3.912 -0.0924  0.0433  0.1312
13230W        W56246   9.607  33.461  21.626 -0.4545  0.0528  0.1133
13231W        W56247  32.386   3.446  16.093 -0.1465  0.4419 -0.3613
13232W        W56248  19.907  34.312  23.185  0.3204 -0.1537 -0.3063
13233W        W56249   2.004   9.021  24.675 -0.0134  0.0883  0.0743
13234W        W56250  22.587  13.347  20.999 -0.2639  0.4510  0.0933
13235W        W56251  19.183  30.472  21.774  0.1696  0.2269 -0.3300
13236W        W56252  12.667  22.022   1.011  0.0255  0.0796 -0.0529
13237W        W56253  27.370  11.713  20.723 -0.3244 -0.1091 -0.0512
13238W        W56254  26.543  14.622  25.529 -0.3113 -0.0413 -0.3223
13239W        W56255  23.415  15.931   8.649 -0.3288 -0.0630  0.2765
13240W        W56256  33.246  19.999  21.114 -0.0164 -0.0221  0.0568
13241W        W56257   9.931  31.512   2.202 -0.2046  0.1226  0.0939
13242W        W56258   4.289  27.462   2.986 -0.0712 -0.3710  0.0533
13243W        W56259  30.120   1.768  24.563  0.0524  0.1181  0.0600
13244W        W56260  20.245  31.745   5.455  0.0290  0.1181  0.0671
13245W        W56261  26.951  32.760   2.372  0.1513  0.1660 -0.3608
13246W        W56262  20.514   4.776   9.706 -0.0631  0.0892 -0.0235
13247W        W56263  23.073   4.643   5.931 -0.1026  0.0439  0.2705
13248W        W56264  19.127   8.493   1.076  0.0654 -0.1875 -0.0508
13249W        W56265  13.425  24.104  15.867  0.0784  0.1787 -0.1032
13250W        W56266  24.645  29.084   2.297 -0.2637  0.1843  0.2506
13251W        W56267  25.898  32.398  23.947  0.2903 -0.0274  0.0169
13252W        W56268  26.377   3.198  19.657  0.2310  0.2112 -0.2986
13253W        W56269   0.098  29.794  26.753 -0.2304 -0.1347  0.0650
13254W        W56270  30.254  31.563   9.458 -0.0437 -0.2111  0.0637
13255W        W56271  21.845  18.796  22.246  0.0287  0.0426  0.1032
13256W        W56272  20.640  28.776  14.319 -0.1618  0.2372 -0.0783
13257W        W56273  21.898  24.687  15.004  0.1865 -0.0306  0.3308
13258W        W56274   4.431  27.304  15.071 -0.0790  0.0835  0.0413
13259W        W56275  18.058  32.237  11.331  0.2598  0.2783 -0.0698
13260W        W56276  14.073  24.082  28.638 -0.1509 -0.0952  0.1530
13261W        W56277   6.644  21.989  19.100  0.4820 -0.1642  0.0360
13262W        W56278  19.612   6.295   6.477 -0.2700  0.0522 -0.1708
13263W        W56279  28.974  25.659   6.983  0.1152 -0.1298 -0.0390
13264W        W56280  25.001  30.159  27.309 -0.2240  0.0394 -0.1296
13265W        W56281  21.292  28.505   3.988 -0.0189  0.0944 -0.0920
13266W        W56282  34.080  12.048   7.597 -0.1590 -0.1555  0.0323
13267W        W56283  33.149  29.640   2.126 -0.0274 -0.2953  0.2853
13268W        W56284  28.487  17.676   4.373 -0.2009  0.0486  0.0527
13269W        W56285  17.812  24.501  21.587 -0.0180 -0.2283  0.1439
13270W        W56286  30.135  32.834  10.824  0.0218 -0.6416 -0.0170
13271W        W56287  13.134  32.843  21.871 -0.4224  0.0558 -0.0698
13272W        W56288   9.261  31.328   9.029  0.1008  0.0255  0.2679
13273W        W56289  33.299  17.132  21.791 -0.1660  0.0200 -0.2345
13274W        W56290  11.194  14.162  15.643  0.1488 -0.0207  0.2282
13275W        W56291  20.003   1.195   6.037  0.2040  0.2032  0.0589
13276W        W56292  32.529   0.538  14.994  0.0114 -0.0829 -0.0711
13277W        W56293  18.807  10.780  26.782 -0.0467 -0.1584  0.2200
13278W        W56294  28.632   3.194  19.570 -0.0557 -0.0581 -0.1652
13279W        W56295  31.955  24.946   3.512 -0.0848 -0.2880  0.1686
13280W        W56296  19.865   5.305  16.453  0.1478  0.3210 -0.5026
13281W        W56297  24.860  11.066  27.452  0.2487  0.1155  0.0212
13282W        W56298  30.640   1.788  18.726 -0.1344  0.1975  0.0825
13283W        W56299  15.499  28.488  24.812  0.0936 -0.3940 -0.0858
13284W        W56300  28.044   0.678  17.225 -0.1763  0.1380 -0.1938
13285W        W56301   2.252   3.085   7.797  0.1333  0.1458 -0.0570
13286W        W56302  10.938  34.105  17.759  0.1115 -0.0738  0.1385
13287W        W56303  28.821  33.930  26.228 -0.1675 -0.2049 -0.1438
13288W        W56304   3.129   7.039  27.620 -0.0471 -0.0587  0.0004
13289W        W56305  20.012  23.934   7.917  0.3535  0.2547 -0.4270
13290W        W56306   3.824  29.263   2.554 -0.2459 -0.1942  0.2712
13291W        W56307  23.413  18.081  27.812  0.0529 -0.0552 -0.0284
13292W        W56308  31.767   7.441   8.443 -0.0939  0.0915  0.2455
13293W        W56309  25.161   4.220   5.226  0.2930 -0.1170  0.0106
13294W        W56310   6.319  32.614  18.367 -0.0250  0.1005 -0.1588
13295W        W56311  30.049  17.554  22.185 -0.0041  0.1175 -0.1706
13296W        W56312  16.039   8.262  26.325  0.0548 -0.1167  0.0580
13297W        W56313   8.300  26.336   5.257  0.0720 -0.1204 -0.1626
13298W        W56314  17.423  20.317   1.973 -0.0464 -0.2488  0.2835
13299W        W56315  33.388   3.901  18.552 -0.0223  0.1202  0.0071
13300W        W56316  25.899  23.520   6.608  0.0110  0.2515 -0.2044
13301W        W56317   6.097  25.673  23.671  0.2216 -0.2293 -0.2012
13302W        W56318   3.462  21.421   9.206  0.1041  0.1036 -0.0440
13303W        W56319  25.439  20.395  16.544 -0.0317  0.2479 -0.3333
13304W        W56320  27.015  21.393   6.944 -0.1228 -0.2245  0.1118
13305W        W56321  23.664  29.675  27.998  0.3137 -0.0014  0.2469
13306W        W56322  15.884  32.592  23.515  0.0200  0.1252  0.0995
13307W        W56323  25.750  15.762  14.995  0.1136  0.0742  0.0451
13308W        W56324  20.243  31.099  14.449  0.4185  0.0456  0.0253
13309W        W56325  32.850  23.407   3.833 -0.0400  0.2815  0.0688
13310W        W56326  16.308  25.414  28.331 -0.0872  0.0294 -0.2664
13311W        W56327  12.954  16.468  28.970  0.0634  0.0926 -0.0945
13312W        W56328  25.449  25.169   2.389  0.2243  0.1221 -0.1048
13313W        W56329  18.059  33.158  25.360 -0.1127  0.1168  0.1104
13314W        W56330   6.314  19.811   2.792 -0.0193  0.0680  0.2859
13315W        W56331  25.398  27.089   7.075  0.0076  0.4081  0.1293
13316W        W56332  18.904  32.045  15.168  0.0486 -0.2449  0.0294
13317W        W56333  26.182   0.631   4.882 -0.1655 -0.0891  0.3612
13318W        W56334  28.524   0.354  27.762  0.1347 -0.0057  0.0854
13319W        W56335  31.662  31.299  18.634 -0.0935 -0.1897  0.1257
13320W        W56336  30.183   8.272   8.169 -0.1610  0.0499 -0.1227
13321W        W56337  29.096  18.497  28.387  0.2922 -0.2111  0.2081
13322W        W56338  23.204  32.298   9.907  0.2427  0.1264 -0.1800
13323W        W56339  29.114  32.953   3.312  0.0536 -0.1676 -0.0918
13324W        W56340  10.447   1.041  27.973 -0.1370  0.1119 -0.0621
13325W        W56341  22.408   2.857  25.289 -0.1540 -0.1419  0.0523
13326W        W56342  18.758  19.560  26.642 -0.1430 -0.2989  0.1720
13327W        W56343   1.170  27.688  21.223 -0.0690 -0.0234  0.1190
13328W        W56344  30.211   2.463  20.291  0.0802  0.1878 -0.1209
13329W        W56345  20.091  10.947   6.798  0.1058  0.3071  0.2631
13330W        W56346  34.294  19.463   0.374 -0.0246  0.0303 -0.1075
13331W        W56347  32.979  27.301  26.889 -0.0119 -0.4363  0.2259
13332W        W56348  20.695  22.108  24.695  0.3653  0.4082  0.2167
13333W        W56349   8.002   2.213  23.136 -0.2177 -0.3426  0.3094
13334W        W56350  17.992  29.497   5.047 -0.4927 -0.1088 -0.1142
13335W        W56351   8.362   0.887   3.146  0.3674  0.0301 -0.3189
13336W        W56352  16.660  27.458   3.627 -0.0480 -0.1858  0.2702
13337W        W56353  19.585  21.049  22.962  0.1471  0.0518 -0.1855
13338W        W56354   1.934   8.237  22.559  0.0150 -0.0654 -0.1943
13339W        W56355  13.270   3.965  20.669 -0.0027 -0.1245 -0.2865
13340W        W56356  23.962  33.854   9.421  0.1913  0.1946 -0.2099
13341W        W56357   4.555  17.491   6.535  0.2801 -0.0245  0.2512
13342W        W56358  12.407   3.811  26.826  0.0862 -0.1503  0.3168
13343W        W56359  28.356   2.542  22.742  0.0392  0.0161  0.1744
13344W        W56360  27.554   6.532  28.152 -0.0798  0.0835 -0.1143
13345W        W56361  24.407  27.810  16.103 -0.2084  0.1524 -0.0158
13346W        W56362   8.443  32.562  29.255  0.1152  0.0160 -0.2203
13347W        W56363  17.722  31.216   0.927 -0.1541 -0.2885  0.1164
13348W        W56364  19.195  31.691   7.599 -0.1674  0.1761  0.0429
13349W        W56365   2.774   4.238  22.694 -0.0624 -0.0010  0.0112
13350W        W56366   6.491  30.956  25.619 -0.0842  0.0917 -0.0800
13351W        W56367  17.597   1.097   8.878  0.2893  0.1716  0.0027
13352W        W56368  22.139   2.110  26.850  0.1457  0.0367 -0.1495
13353W        W56369  19.165   8.542  24.011 -0.2671 -0.2511 -0.1385
13354W        W56370  22.178  10.412   1.086 -0.1322  0.1689 -0.1697
13355W        W56371   7.592  22.742   1.133  0.2405  0.0044 -0.1097
13356W        W56372  30.469   0.325   5.258  0.2266 -0.0813 -0.0281
13357W        W56373  32.511  14.387  20.699 -0.0843  0.2401  0.0548
13358W        W56374  20.583   2.827   0.155 -0.0018 -0.3271  0.1327
13359W        W56375  14.869   3.046   7.056 -0.1346  0.2642  0.0910
13360W        W56376  26.384  26.390  16.324  0.1985  0.1304  0.2163
13361W        W56377  19.292  28.407  25.404  0.1572  0.3509 -0.2005
13362W        W56378  12.146   1.430   5.024  0.3103 -0.1432 -0.0348
13363W        W56379  14.695  33.640   5.364 -0.3223  0.1293  0.3888
13364W        W56380  27.185  29.794  23.468 -0.4317  0.1464 -0.2612
13365W        W56381  10.537  29.585  20.009 -0.2506 -0.0144  0.2661
13366W        W56382   7.090  26.908   3.372 -0.0782 -0.1094  0.2223
13367W        W56383  10.468  20.947  22.985 -0.1020  0.0128  0.2600
13368W        W56384   9.282   1.538  16.168  0.1884 -0.0805 -0.2984
13369W        W56385   8.230  34.659  15.964  0.1661 -0.3522  0.0206
13370W        W56386  31.742  25.657  10.512  0.0515 -0.0665 -0.0316
13371W        W56387   5.739  15.740   3.966  0.2304  0.1284 -0.0969
13372W        W56388  14.545   1.203   4.556 -0.1077  0.2906  0.2692
13373W        W56389   8.085  20.008  19.023 -0.2910 -0.3389 -0.1470
13374W        W56390  30.200  28.054  24.824 -0.1001  0.2910  0.1830
13375W        W56391   7.797  17.322   7.587 -0.1137  0.0124 -0.1836
13376W        W56392  27.717  24.730  22.978 -0.1487 -0.2253  0.0363
13377W        W56393  27.403  29.444  10.264 -0.1430 -0.0353  0.1184
13378W        W56394  28.801   8.545  11.070  0.0050 -0.6072  0.0970
13379W        W56395  10.895  22.602  26.772  0.2063  0.1252  0.1095
13380W        W56396  23.703  28.485  10.257 -0.2540 -0.0151 -0.1369
13381W        W56397  28.791  16.874  21.460  0.5109 -0.0895 -0.3591
13382W        W56398  28.760  25.959   5.198  0.1148  0.1642 -0.1407
13383W        W56399  14.180  19.264  29.265  0.0436  0.1749 -0.1433
13384W        W56400  29.360  21.872  10.542  0.0771  0.3052 -0.0198
13385W        W56401  18.054  28.888  25.308 -0.2639  0.4334  0.0055
13386W        W56402   5.641   3.889   7.398  0.1765  0.4040 -0.2456
13387W        W56403  22.539  21.400  24.127 -0.0159  0.2914 -0.0608
13388W        W56404   9.301   6.233   0.096 -0.0071 -0.2510 -0.1666
13389W        W56405  20.463  33.776   0.163 -0.0495  0.0554  0.0331
13390W        W56406  23.518   3.651   5.020 -0.0289 -0.2806 -0.0982
13391W        W56407  29.343   1.729   4.122  0.0194  0.0628  0.0980
13392W        W56408   3.543  25.961   1.610 -0.1217  0.3284  0.2408
13393W        W56409  22.867  31.441  27.392 -0.2577  0.1864  0.0619
13394W        W56410  23.601   6.758   3.172  0.0002  0.5083 -0.1480
13395W        W56411  24.117  20.290  24.094  0.2379 -0.0668 -0.2711
13396W        W56412  29.333  27.581   8.388  0.1849  0.2019  0.0939
13397W        W56413  25.820  32.251  20.472 -0.2927 -0.2589 -0.2229
13398W        W56414  30.159  16.285  18.332  0.1388  0.0734  0.0085
13399W        W56415  30.610  33.594   6.914 -0.1176 -0.0837 -0.0142
13400W        W56416  34.126  30.454   2.096  0.0857  0.3093  0.2458
13401W        W56417  27.802   9.459  28.840  0.0695  0.0333 -0.1894
13402W        W56418   4.875   3.648  25.662  0.2376  0.1220  0.0219
13403W        W56419  30.757  27.446  27.625  0.0641  0.1939 -0.1246
13404W        W56420   1.270  16.562   5.447 -0.0665 -0.0956 -0.1514
13405W        W56421  20.709  26.896  24.781 -0.0242 -0.1432 -0.0661
13406W        W56422  25.705  30.225   2.677 -0.2616  0.1687  0.2774
13407W        W56423   9.875  28.715  26.105 -0.0299 -0.1208  0.0605
13408W        W56424  34.561  20.273  11.055 -0.1157  0.0491 -0.3807
13409W        W56425  13.461  33.948   4.904 -0.0029 -0.1675  0.2370
13410W        W56426  23.202  21.885  26.845  0.0065  0.1148 -0.0353
13411W        W56427  24.709  18.643  23.624  0.1374  0.0522  0.0790
13412W        W56428  24.134  30.276   8.076  0.3632  0.0997 -0.1069
13413W        W56429  24.777   3.570   5.646 -0.0689 -0.1600  0.1016
13414W        W56430  18.946  34.126  17.472 -0.0524 -0.0978  0.0676
13415W        W56431  15.158  30.617  21.334 -0.1071  0.0204 -0.0441
13416W        W56432  30.631  21.209   9.218  0.5126  0.1759  0.1941
13417W        W56433  16.313   3.642  14.997 -0.0809  0.0142  0.0581
13418W        W56434  21.084  13.359   3.822 -0.5088  0.2492 -0.1149
13419W        W56435  31.038   4.892   8.860 -0.1542 -0.0036 -0.0957
13420W        W56436  23.013  25.550  10.032  0.0276 -0.0652 -0.0626
13421W        W56437  15.820  32.902  25.343  0.1714  0.1791  0.1311
13422W        W56438  23.267   8.714   9.484 -0.1453  0.0789 -0.2606
13423W        W56439  28.160  28.043  17.596 -0.2792 -0.1724  0.2509
13424W        W56440   7.957   3.130  17.414  0.0702  0.1593  0.2210
13425W        W56441  27.774  29.290  22.169  0.2091  0.0277 -0.0226
13426W        W56442  20.597  14.200  24.065 -0.1224  0.4172 -0.4112
13427W        W56443  26.352   8.141  20.209  0.0959 -0.1323  0.1079
13428W        W56444  29.861  33.497  17.334  0.2143  0.0121  0.0313
13429W        W56445  31.774  25.502  17.131 -0.2169 -0.0490  0.2436
13430W        W56446   9.498   4.492  15.410 -0.0416  0.0876  0.0200
13431W        W56447  13.854   5.868  14.455  0.0625 -0.1905 -0.1026
13432W        W56448  21.247  21.794  24.472  0.1397 -0.2716  0.1696
13433W        W56449  17.106  28.899  15.188  0.1142 -0.0697 -0.1507
13434W        W56450  15.084   5.421  15.547  0.0179  0.0643  0.3428
13435W        W56451  19.924   0.920  14.539 -0.0881  0.1259  0.1093
13436W        W56452  31.835   5.455  14.889  0.0770 -0.0630  0.1605
13437W        W56453  23.574  24.797  21.577 -0.2786 -0.3322  0.1865
13438W        W56454  22.067  33.068  21.102  0.0382 -0.1716 -0.0784
13439W        W56455  10.010  32.802  20.374 -0.0168 -0.2232  0.0491
13440W        W56456  25.422  22.392  19.442  0.0280 -0.0015 -0.1385
13441W        W56457  24.048   2.013  25.728 -0.1384 -0.0908  0.1971
13442W        W56458  17.564   8.226  25.949  0.0549 -0.1900  0.2629
13443W        W56459  10.456  21.020  22.059 -0.1115 -0.0513  0.1635
13444W        W56460  26.656  20.406  22.389 -0.1130 -0.0915  0.0132
13445W        W56461  34.018   1.126  16.714  0.0711 -0.0112  0.2513
13446W        W56462  24.461  32.552  19.794 -0.0751 -0.2734  0.0863
13447W        W56463  34.483   2.208  20.094 -0.2739  0.0635 -0.0443
13448W        W56464   3.574  23.891  14.162 -0.0786  0.1036 -0.0774
13449W        W56465   2.027  34.103  16.232 -0.0264  0.1115 -0.0881
13450W        W56466  19.316  23.437  13.490  0.1685  0.1084 -0.0440
13451W        W56467  10.977   3.399  18.700  0.0635  0.0255 -0.1776
13452W        W56468  12.425   1.973  19.280  0.2605  0.0040 -0.1012
13453W        W56469  11.344  32.282  21.987  0.3000  0.0390 -0.2184
13454W        W56470  13.311  32.245  21.523 -0.1318  0.3507 -0.0920
13455W        W56471  15.078  31.619  27.342  0.2600 -0.1747  0.2233
13456W        W56472  14.460   6.131  20.029 -0.0786  0.2766  0.0973
13457W        W56473   5.407  34.236  15.772  0.1930 -0.0164  0.1051
13458W        W56474   7.350  23.170  22.722 -0.4013  0.1568 -0.1355
13459W        W56475   2.391  26.817  24.800 -0.1705 -0.2891  0.0881
13460W        W56476  33.825   1.126  23.292  0.0639  0.2077 -0.0261
13461W        W56477  29.612   8.178  27.689  0.3476 -0.0449  0.2247
13462W        W56478  24.378   4.549  22.131  0.0791  0.1006  0.2396
13463W        W56479   2.059  34.355  14.486  0.0016  0.0492  0.0419
13464W        W56480  27.100  30.179  21.524 -0.1539 -0.0189  0.0076
13465W        W56481  30.450  33.774  27.182 -0.2429 -0.1974  0.1948
13466W        W56482  28.947   3.983  25.485 -0.0684 -0.1959  0.1313
13467W        W56483  27.009  27.259  29.080 -0.1396  0.0847 -0.2634
13468W        W56484   5.838   0.224  19.303  0.2636 -0.3751 -0.0930
13469W        W56485  23.937  28.008  27.921 -0.3964 -0.3561  0.3954
13470W        W56486  22.708  31.610  16.933  0.1584  0.0739  0.0573
13471W        W56487  23.904   2.244  16.849  0.1002  0.0172  0.0624
13472W        W56488   3.929  27.201  28.498  0.1217 -0.1023 -0.1755
13473W        W56489  24.159  22.856  21.390  0.1921 -0.1352  0.2735
13474W        W56490  18.709   4.916  17.813  0.0922  0.3684 -0.0513
13475W        W56491   3.273   1.722  25.600  0.2680  0.0870 -0.4196
13476W        W56492  22.091  30.023  24.946 -0.0078 -0.1893  0.1914
13477W        W56493  25.487  29.117  20.430  0.1357  0.2104  0.1429
13478W        W56494  28.495  28.549  22.523 -0.1000 -0.1471 -0.0923
13479W        W56495  27.093  33.498  24.616 -0.4274  0.0622  0.1104
13480W        W56496  16.109  14.863  14.440  0.0194 -0.1179 -0.1137
13481W        W56497  13.806   8.951  16.996  0.1594 -0.2314 -0.0520
13482W        W56498  26.532  13.164  22.969 -0.3712 -0.2606  0.0374
13483W        W56499   3.166   0.964   2.046  0.1044  0.0352 -0.0648
13484W        W56500   6.467   2.049  25.118 -0.0554  0.1668 -0.1959
13485W        W56501  32.955  28.721  17.008  0.0848 -0.1333  0.2161
13486W        W56502  17.501  30.088  18.301  0.3092  0.0953 -0.0901
13487W        W56503   3.638  29.298  18.351 -0.1447  0.3639  0.0239
13488W        W56504  32.035  28.590  21.242  0.0631 -0.0788 -0.1175
13489W        W56505   3.870   5.566  17.816  0.0749 -0.0611 -0.0198
13490W        W56506  20.906   3.997  19.640  0.3556  0.1172  0.1277
13491W        W56507  19.635  34.149   1.228  0.0643 -0.0520 -0.0854
13492W        W56508  20.511  33.926  16.190  0.0235 -0.4031  0.0116
13493W        W56509  27.879  33.900  21.725  0.1342 -0.0330 -0.3980
13494W        W56510  12.895  29.250  14.533 -0.0860  0.0420  0.1048
13495W        W56511  19.151   0.152  17.033 -0.0162  0.0270 -0.2553
13496W        W56512  16.248  28.613   0.858 -0.2272 -0.0064  0.1894
13497W        W56513  14.628   4.533  14.336  0.1453  0.0955  0.0261
13498W        W56514   0.582   4.291  16.152 -0.3237 -0.1914 -0.0273
13499W        W56515   5.178  31.424  25.089 -0.1917 -0.3731 -0.1225
13500W        W56516  29.048  21.946   7.485  0.0053  0.3010 -0.0862
13501W        W56517  29.088  24.669  15.216 -0.0824 -0.0482  0.1785
13502W        W56518   2.647  30.722  25.075 -0.0563  0.0058  0.3716
13503W        W56519  22.496   8.362  15.273  0.1679 -0.1162 -0.2399
13504W        W56520  23.883  28.578  18.726  0.0787  0.0240  0.1470
13505W        W56521   5.775  33.334   2.473  0.1673 -0.1159  0.1372
13506W        W56522  25.216  18.642  14.827 -0.0795  0.0678  0.2312
13507W        W56523  27.976  32.622  22.960  0.2329 -0.0955  0.2295
13508W        W56524  25.702  27.689   2.484  0.0416 -0.0529  0.0145
13509W        W56525  29.852  33.674  16.684 -0.1437  0.0075  0.0017
13510W        W56526  16.865   8.940  13.769  0.0906  0.2935  0.1245
13511W        W56527  32.342  18.880  28.297  0.0324  0.0701  0.0951
13512W        W56528  18.532   2.967   1.432  0.0711  0.2116  0.2013
13513W        W56529  21.614  28.150  16.470 -0.0712 -0.0673  0.0831
13514W        W56530   0.252   9.233  26.330  0.1509 -0.1727  0.1416
13515W        W56531  12.014   6.522   7.581 -0.2566  0.1763  0.0276
13516W        W56532  25.613  25.227  28.139  0.1391 -0.2358 -0.3546
13517W        W56533  18.383  30.942  18.178  0.0604  0.2467  0.1842
13518W        W56534  18.616   7.301  20.548 -0.1025  0.1799  0.1702
13519W        W56535  31.326   4.574  22.663 -0.2489  0.0869 -0.4918
13520W        W56536  15.061   1.053  24.929 -0.0748  0.0270 -0.1693
13521W        W56537   8.829   6.885  24.577 -0.4752  0.0928  0.5462
13522W        W56538  30.959  18.208  20.128 -0.0177 -0.2933  0.1482
13523W        W56539   7.243   4.303  14.673  0.0698 -0.1134  0.0690
13524W        W56540  13.345   7.077  18.952  0.1214 -0.0252  0.0392
13525W        W56541  24.643   2.445  23.534  0.2303  0.0141 -0.0722
13526W        W56542   3.520   8.869  17.510 -0.1095 -0.1669 -0.1033
13527W        W56543  15.093   0.335  22.584 -0.5033  0.3738 -0.1021
13528W        W56544  34.188  28.984  16.588  0.2513  0.0733 -0.1118
13529W        W56545  30.836   2.775  19.560 -0.2146  0.0789  0.1162
13530W        W56546   4.471  26.235  27.118  0.0660  0.1417 -0.1885
13531W        W56547  21.657  32.970  17.585 -0.0074 -0.0501 -0.1534
13532W        W56548   0.285   0.754  23.798 -0.0495 -0.0261  0.1536
13533W        W56549   8.141  29.512  24.468  0.2442 -0.1392 -0.1012
13534W        W56550  28.528  14.381  16.418 -0.1138  0.0721 -0.0806
13535W        W56551  22.397  25.042  15.150 -0.0627  0.4121  0.0743
13536W        W56552  20.979  22.498  23.261 -0.3096 -0.2434  0.2019
13537W        W56553  22.860  17.787  15.396 -0.0830  0.0258 -0.0176
13538W        W56554  28.863  30.592  17.121  0.0549  0.0777  0.0036
13539W        W56555  27.543  13.149  21.653 -0.1940  0.0592  0.2515
13540W        W56556  28.424   0.852  22.024 -0.7522 -0.1560  0.0658
13541W        W56557  14.160   2.534  18.498  0.3317  0.0890  0.0537
13542W        W56558   9.413  28.421  15.288  0.2325  0.0189 -0.2193
13543W        W56559  17.155  32.936  15.602 -0.0335  0.1418 -0.2486
13544W        W56560   2.208  32.691  21.629  0.2318 -0.1930 -0.0479
13545W        W56561   1.803  12.737  18.633  0.0887  0.0642 -0.4514
13546W        W56562  21.876  32.794  16.131  0.1043  0.2554 -0.0200
13547W        W56563  12.216   0.150  17.987 -0.0225 -0.1125 -0.1892
13548W        W56564   0.275  14.923  19.254 -0.1044  0.0170 -0.2404
13549W        W56565   8.791  26.798  18.806 -0.2692  0.0091  0.0679
13550W        W56566  23.493  26.692  21.428  0.1830  0.2857  0.1539
13551W        W56567   4.879  12.397  14.628 -0.3949 -0.2082  0.0035
13552W        W56568  13.773  32.340  17.239 -0.0680  0.0784 -0.1423
13553W        W56569  17.867  32.297  19.740 -0.3110 -0.1421 -0.1771
13554W        W56570  17.372  19.974  13.685  0.1378  0.1614 -0.1441
13555W        W56571   4.897  34.154  15.937 -0.0485 -0.1073 -0.1055
13556W        W56572  16.016  33.756   8.647  0.0323  0.0492 -0.3291
13557W        W56573  15.586  26.055  26.992  0.1508 -0.0112  0.0995
13558W        W56574  23.555   6.169  16.962 -0.0803  0.1854  0.0983
13559W        W56575   9.551  11.323  27.719  0.1220  0.1000  0.0154
13560W        W56576  13.443  26.613  22.722  0.0980 -0.1165 -0.0586
13561W        W56577  13.375   3.162  22.282 -0.0845 -0.0921  0.4558
13562W        W56578  18.223   0.447  25.800 -0.4958 -0.1742  0.0807
13563W        W56579  10.814  21.876  21.539 -0.0431  0.0070  0.2656
13564W        W56580  13.003  32.225  23.295  0.1122  0.2131 -0.2002
13565W        W56581  33.539   0.582  16.010 -0.0696  0.2993  0.3879
13566W        W56582  28.123  32.164   1.270 -0.1686  0.1538  0.0691
13567W        W56583   4.692  11.148  26.672  0.2395 -0.2516  0.2628
13568W        W56584  20.560  34.265   0.037 -0.0422 -0.1858  0.1310
13569W        W56585   6.386  26.172  27.024 -0.0434 -0.2335  0.2812
13570W        W56586  19.077  11.135  13.569  0.0173 -0.2501  0.1150
13571W        W56587  29.563  29.224  24.791  0.2020 -0.0435 -0.3367
13572W        W56588  21.809   2.051   2.275 -0.0103  0.1506  0.0339
13573W        W56589  28.475  10.747  24.094 -0.0606 -0.3031  0.0710
13574W        W56590  33.765   0.390  16.392 -0.1487  0.1931 -0.2439
13575W        W56591  19.886  30.509  27.191  0.1185 -0.4448 -0.0917
13576W        W56592  29.048  27.904   1.576  0.0918  0.1757  0.2189
13577W        W56593  10.110  24.759  28.237 -0.0086 -0.1848  0.0167
13578W        W56594   3.774  13.195  29.138 -0.0518 -0.1826 -0.3957
13579W        W56595   5.179   6.459  14.213 -0.0134 -0.2092  0.1800
13580W        W56596   3.202  14.574  16.354 -0.1629  0.4274  0.0586
13581W        W56597  18.152  34.050  15.194 -0.0333 -0.0577 -0.0607
13582W        W56598  26.791  29.947  15.879  0.1363  0.2726  0.0314
13583W        W56599  14.579  20.749  27.752 -0.0866  0.2336  0.2024
13584W        W56600  19.338   9.138  14.565 -0.4576 -0.0768  0.0853
13585W        W56601  10.438  16.240  14.605 -0.1272  0.0929  0.0095
13586W        W56602  27.550   2.173  23.054  0.2696  0.1856 -0.0056
13587W        W56603  28.653  22.083  26.818  0.0371 -0.0128  0.0654
13588W        W56604  25.899   6.027  21.308  0.2132  0.0899 -0.1352
13589W        W56605  29.267  33.827  24.844  0.2470  0.0202 -0.3103
13590W        W56606  29.750  28.628  28.747  0.1235 -0.3863 -0.0089
13591W        W56607  26.180   6.148  26.126  0.0420 -0.0503  0.0151
13592W        W56608  26.596  12.013   0.583  0.0240  0.2810  0.0094
13593W        W56609  34.413  20.395  25.858 -0.0011 -0.1045 -0.1009
13594W        W56610  32.680  12.463  15.639 -0.0443  0.2507 -0.0722
13595W        W56611  11.067   3.881  15.657  0.0563 -0.2211  0.0495
13596W        W56612  20.959  28.090  21.987  0.1447 -0.2861  0.1433
13597W        W56613  21.808  16.768  12.543  0.0679  0.1908  0.2636
13598W        W56614  16.694  31.202  19.665  0.1983  0.1507  0.2762
13599W        W56615  30.526   5.635  22.645 -0.2197 -0.2062 -0.0203
13600W        W56616  32.225  30.735  23.958  0.1233  0.0930 -0.0982
13601W        W56617   1.526  28.122  14.441  0.4928 -0.0328  0.0595
13602W        W56618  30.614  21.897  25.964  0.1469  0.0188 -0.0775
13603W        W56619  30.669  14.583  27.241  0.0577 -0.0657 -0.2646
13604W        W56620  13.931  34.282  16.484  0.0065  0.0280 -0.2057
13605W        W56621  12.396  29.647  21.126  0.0183 -0.3361  0.0682
13606W        W56622  24.330  29.240  26.854 -0.2292  0.2265 -0.3545
13607W        W56623  16.164  24.384  27.307 -0.1141  0.1071  0.0002
13608W        W56624  34.035   6.018   0.234 -0.2013 -0.0557  0.0591
13609W        W56625  21.117  33.488  14.875  0.0598  0.2543  0.0130
13610W        W56626  13.718  10.358  15.134  0.2602  0.1355 -0.0262
13611W        W56627  14.891  34.055  21.183 -0.1195  0.0960 -0.2253
13612W        W56628  31.279  30.021   3.658 -0.2030  0.2431  0.4046
13613W        W56629  27.103  30.323   5.952 -0.0576  0.5139 -0.0051
13614W        W56630  17.153   8.449  14.590 -0.0426 -0.0051 -0.0538
13615W        W56631  18.988   7.196  23.992  0.3517  0.3298 -0.4357
13616W        W56632  13.526   7.204  24.696 -0.1625 -0.0804 -0.0836
13617W        W56633  20.344   3.220  22.858 -0.4122  0.1393  0.2423
13618W        W56634  27.426   9.453  21.382  0.3078  0.1865  0.1234
13619W        W56635   2.066  31.003  16.767 -0.1332 -0.1123  0.0828
13620W        W56636  28.691  29.803  18.949 -0.0769  0.2279  0.2811
13621W        W56637  32.403   7.122  16.706  0.4105  0.0011 -0.0718
13622W        W56638  23.398  29.132  18.023  0.0931 -0.1805 -0.0325
13623W        W56639  16.396   1.246  26.746 -0.0255  0.1710 -0.0087
13624W        W56640  20.027  32.621  24.941 -0.0543  0.0630  0.0189
13625W        W56641   1.392  22.951  18.858  0.0021 -0.2041  0.2337
13626W        W56642  20.375  23.336  23.175 -0.2298 -0.0827  0.1151
13627W        W56643  30.135  34.440  24.748  0.0305  0.1650 -0.4298
13628W        W56644  13.024   1.065  23.410  0.0818  0.2155  0.0332
13629W        W56645  12.311  29.143  25.065  0.0588 -0.2803  0.0195
13630W        W56646  21.730  21.545  26.262 -0.1757 -0.1251  0.2293
13631W        W56647  28.234  20.740  20.331 -0.2567 -0.0607  0.0053
13632W        W56648  11.426  27.217  21.120 -0.5263  0.0651  0.2439
13633W        W56649  22.122  33.947  23.763  0.1716  0.1604  0.0022
13634W        W56650  26.360  17.535  18.940  0.1171 -0.0929  0.0754
13635W        W56651  31.482   2.661  28.177  0.1781 -0.0947  0.1527
13636W        W56652  30.042   7.386  22.833  0.0815 -0.1652 -0.1114
13637W        W56653   3.097   2.754  16.791  0.0713  0.0443  0.0634
13638W        W56654   5.503  30.799   8.620 -0.0023 -0.1999  0.1788
13639W        W56655  33.294  30.395  20.185 -0.1876  0.2084  0.3436
13640W        W56656  10.090  31.750   9.944 -0.2057  0.3354 -0.0323
13641W        W56657  19.859  24.409  13.959 -0.2866 -0.3000 -0.0891
13642W        W56658  29.949   1.923  15.160  0.0589  0.1293  0.2071
13643W        W56659  18.597  30.762  27.852 -0.3983  0.0959  0.2384
13644W        W56660  22.124  29.387  16.934  0.1284  0.0208  0.1680
13645W        W56661  14.951  28.107   0.696 -0.1510 -0.0337  0.0135
13646W        W56662  18.023   0.807  23.878  0.1899  0.1873  0.1811
13647W        W56663  26.468  29.798  18.879  0.2236 -0.0934 -0.1300
13648W        W56664  23.980  31.093  27.553  0.2453  0.0229  0.1730
13649W        W56665  27.391  18.495  25.505  0.1544 -0.0430  0.0095
13650W        W56666  18.330   1.102  28.038 -0.0897 -0.0938 -0.3341
13651W        W56667  27.459  14.907  15.968 -0.1700 -0.3251  0.1638
13652W        W56668   3.060  32.682  25.670 -0.0189 -0.2705 -0.0392
13653W        W56669  19.181  30.484  25.060  0.3048  0.2113 -0.3394
13654W        W56670  23.371  21.253  18.855  0.1355 -0.2731  0.0267
13655W        W56671   9.983  30.425  19.652  0.0600 -0.1678 -0.1144
13656W        W56672  26.077  26.892  18.146  0.4604 -0.1673 -0.3123
13657W        W56673  32.936  20.108   1.695  0.0852  0.3257 -0.0966
13658W        W56674  27.200  33.298  21.322 -0.1534  0.1632 -0.1411
13659W        W56675  21.931  28.359  24.085  0.4143  0.0437 -0.0908
13660W        W56676  34.665   7.983  26.632 -0.0554  0.0149 -0.1381
13661W        W56677  23.644   0.066  18.933  0.0268  0.0130  0.0753
13662W        W56678   1.704  32.954   9.483  0.1164 -0.1210  0.0151
13663W        W56679  21.994  20.321  26.130  0.0142 -0.2833  0.1833
13664W        W56680  23.360  34.717  22.668 -0.0097 -0.0473  0.0419
13665W        W56681  17.938  10.482  24.715 -0.1719 -0.1052  0.1687
13666W        W56682   7.832   7.076  16.637  0.1432  0.1440 -0.2835
13667W        W56683  26.086  28.202   8.414  0.1779  0.0458  0.2511
13668W        W56684  12.737   6.426  25.417  0.1369  0.2877 -0.1843
13669W        W56685  24.305  29.498  24.206  0.2589  0.0851  0.0319
13670W        W56686  13.686   1.164  26.480  0.0885 -0.3865 -0.0401
13671W        W56687  27.434   1.768  28.598  0.0904 -0.1221  0.0518
13672W        W56688  29.175   8.974  27.085 -0.1384  0.1509  0.0255
13673W        W56689  28.005  19.640   5.383  0.0493  0.0969  0.0052
13674W        W56690  13.188   4.497  10.162 -0.1279 -0.4372 -0.0254
13675W        W56691  13.429  25.266  22.198  0.2184 -0.1003 -0.1318
13676W        W56692   6.950  28.857  18.548 -0.0700  0.1503 -0.0256
13677W        W56693  21.635  25.088  20.266 -0.3602  0.3261 -0.1756
13678W        W56694   9.829  32.260   2.622 -0.2395  0.1598  0.3028
13679W        W56695  17.198  27.292  18.776 -0.0117 -0.3024  0.2557
13680W        W56696  10.167  17.428   2.223 -0.2369  0.2421 -0.0785
13681W        W56697  23.050   3.742  18.160  0.2440 -0.0724 -0.0885
13682W        W56698  15.040   7.575  16.499 -0.2846  0.0554 -0.1173
13683W        W56699  19.539  33.372  20.833  0.0971  0.0777  0.0330
13684W        W56700  28.401  27.560  26.992 -0.4514 -0.4200  0.2673
13685W        W56701  28.282   9.723  17.797 -0.0968  0.2831  0.0427
13686W        W56702   7.789  30.769  17.446 -0.0794  0.1799 -0.0772
13687W        W56703  24.075  26.399  17.427 -0.2661  0.0790  0.1977
13688W        W56704   0.977   4.464  22.804  0.2055 -0.0119 -0.0344
13689W        W56705  25.400  25.954  17.241 -0.1448 -0.3496  0.2105
13690W        W56706  17.711  28.054   7.147 -0.2651  0.1749  0.2612
13691W        W56707  27.195  29.126   1.067 -0.2746 -0.0408 -0.0537
13692W        W56708  33.298   7.723  24.309  0.2153 -0.3310  0.0155
13693W        W56709  18.116   5.192  26.800  0.0090  0.1589  0.0840
13694W        W56710  22.965   0.973  23.962 -0.3476 -0.3634  0.3208
13695W        W56711  31.808  10.892   5.912  0.2493 -0.2412  0.0081
13696W        W56712  18.501  31.276  23.169  0.2492  0.0973  0.1323
13697W        W56713  31.573  28.002  21.822 -0.1294  0.2927 -0.0226
13698W        W56714  31.278  30.348  18.670 -0.3522  0.0829 -0.1554
13699W        W56715  22.639   3.601  21.146  0.1692 -0.1751  0.0854
13700W        W56716   9.916  31.333  23.499  0.1495  0.0354  0.2019
13701W        W56717   1.927  32.754  26.061  0.2430 -0.1162  0.1465
13702W        W56718  16.067  32.067  26.398 -0.1946  0.0923  0.0322
13703W        W56719  33.271   7.185  15.997 -0.1380 -0.3756  0.1694
13704W        W56720   1.903   5.135  19.511 -0.0224 -0.3321 -0.1122
13705W        W56721  23.837  33.972  17.375 -0.1371  0.1296  0.1051
13706W        W56722   3.082   3.723   1.740  0.1304 -0.2923  0.0652
13707W        W56723  26.578  25.833  19.420 -0.2727  0.0545 -0.1960
13708W        W56724  22.047  30.645  28.550  0.0040 -0.1538  0.1380
13709W        W56725  18.724   2.315  16.649  0.1551 -0.0708  0.2388
13710W        W56726  26.097  28.241  23.813  0.0331 -0.1637 -0.0047
13711W        W56727  22.207  11.155  17.737  0.1154  0.2572 -0.2641
13712W        W56728  13.882  26.042  14.433  0.0474  0.0680  0.4319
13713W        W56729  16.086  32.247   5.379 -0.0066  0.1263  0.0754
13714W        W56730  31.685   2.502  15.139 -0.0802 -0.0477 -0.0250
13715W        W56731  10.087  30.008  17.693  0.1100  0.0173 -0.0632
13716W        W56732  23.756  22.665  25.208 -0.0070  0.4613  0.0435
13717W        W56733  27.046  29.468  17.675 -0.1050 -0.0841  0.0174
13718W        W56734  22.111   2.059  23.753  0.0297 -0.1690  0.1373
13719W        W56735  30.077   4.822  23.059  0.0244 -0.1701  0.2232
13720W        W56736  30.283   7.973  16.938 -0.0440  0.1153  0.1028
13721W        W56737  12.539  31.909  18.591  0.1239  0.2057 -0.1598
13722W        W56738  25.566   9.504  15.338 -0.0618  0.1493 -0.3135
13723W        W56739  21.748  34.654  23.237  0.1045  0.0539  0.1995
13724W        W56740  11.682  30.594  19.248  0.1706  0.3348  0.2267
13725W        W56741  30.075  32.782  27.343 -0.2374 -0.0320  0.1680
13726W        W56742  16.020  30.541  20.036  0.0489  0.1814  0.0981
13727W        W56743  33.652  34.100  15.047 -0.4287 -0.2874  0.0890
13728W        W56744  26.785   1.331  18.788  0.0427 -0.0111 -0.1174
13729W        W56745  13.246   8.680  21.149 -0.4526 -0.1246  0.1489
13730W        W56746  11.508   3.362  21.962  0.1938  0.0238 -0.0871
13731W        W56747  28.812   6.446  17.095  0.1042 -0.1246 -0.1120
13732W        W56748  22.087  27.609   3.316  0.0684  0.0449  0.0142
13733W        W56749  26.564  28.726   0.545 -0.2329 -0.1193  0.2595
13734W        W56750  15.811   7.060  23.850 -0.3097  0.3826 -0.1496
13735W        W56751  18.742  21.518  23.194  0.2342 -0.0986  0.0313
13736W        W56752   7.197   3.059  23.620 -0.1584  0.0371 -0.0250
13737W        W56753  14.396  22.219  22.015 -0.0790  0.3455 -0.4168
13738W        W56754  28.054   1.517  16.675 -0.0159  0.3640 -0.1093
13739W        W56755   5.034  28.015   8.608  0.1059 -0.1352  0.0138
13740W        W56756  21.736  33.451  19.008 -0.0127 -0.0129  0.1313
13741W        W56757  21.130  34.465   6.020 -0.0397 -0.0326 -0.0647
13742W        W56758  23.124   8.066  22.519 -0.1635  0.3233  0.3039
13743W        W56759  29.045  20.904  26.151  0.2623  0.2463  0.1680
13744W        W56760  19.968   1.670  17.698 -0.0138 -0.0075  0.0457
13745W        W56761  30.144   8.511  20.757 -0.1553  0.1488 -0.0756
13746W        W56762  26.728   6.341  19.521  0.1250 -0.1044  0.0985
13747W        W56763  26.760   3.169  28.361  0.0741  0.3108 -0.0191
13748W        W56764  21.785  24.392   9.965  0.0684 -0.1237 -0.0839
13749W        W56765  29.723  18.301  20.609  0.0998 -0.1227 -0.0235
13750W        W56766  16.176  21.875   3.474  0.0785  0.1293 -0.0368
13751W        W56767  18.420  29.335  22.092  0.0423  0.0283  0.1400
13752W        W56768  30.613   4.008  29.312 -0.0702 -0.0262  0.2807
13753W        W56769  17.320  33.959   0.219  0.1208  0.0345  0.2184
13754W        W56770   8.129  19.529  12.846  0.2726 -0.0345  0.1102
13755W        W56771  22.742   9.171   0.794  0.2913 -0.0933 -0.1565
13756W        W56772  34.647   4.397  23.436 -0.3153  0.0288 -0.2877
13757W        W56773  30.628  23.357  18.290  0.0495 -0.2002  0.1033
13758W        W56774  32.921  30.438  21.470  0.1614 -0.0476 -0.0396
13759W        W56775   0.804  34.034  21.439  0.2248 -0.1888  0.4772
13760W        W56776  12.141  29.934  16.709 -0.3716  0.2814  0.2467
13761W        W56777  24.426   6.349  23.595  0.1567  0.0086  0.2957
13762W        W56778  31.276   4.874  24.817  0.3083 -0.0882  0.0188
13763W        W56779  25.459  19.736  25.976  0.1137 -0.1714  0.5178
13764W        W56780  12.870   0.915  22.825  0.2443 -0.2064 -0.0231
13765W        W56781  26.358  32.964  24.462  0.0508 -0.1726  0.0432
13766W        W56782  30.103   2.726  25.419 -0.0242  0.3201  0.1239
13767W        W56783  18.420  29.621  15.796  0.1076  0.0564  0.0978
13768W        W56784  25.661  29.374  26.596  0.3291 -0.1868  0.2823
13769W        W56785  16.732  22.075   2.483  0.0596 -0.1821 -0.0590
13770W        W56786  10.198  29.890   2.595  0.1914 -0.2537 -0.2290
13771W        W56787  11.291  31.325  25.844 -0.1759 -0.2175  0.1589
13772W        W56788  25.099   4.072   2.512 -0.3451  0.0264 -0.0856
13773W        W56789  30.606  34.531   6.459 -0.1560 -0.0474  0.4352
13774W        W56790  17.607  33.518   0.650 -0.1724  0.3717  0.4220
13775W        W56791  18.819   9.907  21.046 -0.1109  0.1694  0.0922
13776W        W56792  13.204  31.875  14.576  0.0551  0.1148  0.1712
13777W        W56793  26.088  28.993  17.179 -0.4467 -0.1430 -0.3442
13778W        W56794  13.747   7.971  26.622  0.0825  0.0038  0.3355
13779W        W56795  32.215   0.972  16.696  0.2442 -0.1319 -0.1151
13780W        W56796  15.850   4.419  27.779 -0.0689 -0.1545 -0.3025
13781W        W56797  23.820  20.257  24.773  0.1395 -0.1845  0.3167
13782W        W56798  33.943  32.406  27.049  0.0095  0.1052  0.0949
13783W        W56799  27.339  21.529  16.418  0.2192 -0.0088  0.0594
13784W        W56800   9.896  25.934  16.413 -0.0625 -0.4061 -0.1542
13785W        W56801  30.445   0.346  23.365  0.1447 -0.0601 -0.2407
13786W        W56802   5.737  26.612   4.067 -0.1469 -0.3330 -0.2117
13787W        W56803  25.498   5.066  21.048  0.0148 -0.3531  0.0676
13788W        W56804  24.169  20.839  18.873  0.1614  0.0474 -0.3234
13789W        W56805  29.825   0.668  24.527  0.0519 -0.1675 -0.1980
13790W        W56806  17.940   2.255   0.550  0.2555 -0.1470 -0.1627
13791W        W56807  26.236  25.358   1.514  0.0703  0.0228  0.0716
13792W        W56808  29.789   9.173  19.941  0.1553 -0.1512  0.0240
13793W        W56809  23.311   3.130  18.824  0.1036 -0.0936 -0.1482
13794W        W56810  26.970  12.778  19.288 -0.3960 -0.2253 -0.0179
13795W        W56811  20.624  32.153  16.840  0.2693 -0.3587 -0.1492
13796W        W56812  25.215   2.494  28.936  0.1882  0.1955 -0.2295
13797W        W56813  27.683   1.021  29.197 -0.0429 -0.3871 -0.0664
13798W        W56814  13.505  28.022   4.876  0.0297  0.1368  0.1022
13799W        W56815  10.209  10.968  16.108 -0.1652 -0.1251 -0.1793
13800W        W56816  10.700   6.962  14.228  0.0785 -0.1672  0.0482
13801W        W56817  22.177  32.887  17.397  0.0501  0.3046 -0.1095
13802W        W56818  25.299  13.267  22.263  0.0500 -0.1937 -0.1340
13803W        W56819  14.171   8.106  16.894  0.0149 -0.0072  0.0062
13804W        W56820  26.939   0.690  27.690 -0.0461  0.0314 -0.1364
13805W        W56821  23.521  15.338  14.806  0.1425  0.0092 -0.2775
13806W        W56822  32.997  21.849  28.972  0.0063  0.0781  0.0182
13807W        W56823  27.048  28.209  23.824 -0.1170 -0.0502  0.0895
13808W        W56824   7.644   8.202  18.968  0.1743 -0.0084  0.1101
13809W        W56825   0.232   3.846  24.915 -0.0957  0.0736 -0.0252
13810W        W56826  14.270  31.596  27.381 -0.1001 -0.0618  0.0235
13811W        W56827  26.031   3.364  24.437 -0.2222  0.0619  0.1055
13812W        W56828  19.121  10.038  29.236 -0.1228 -0.5095 -0.0570
13813W        W56829  16.397   2.209   6.591 -0.0022  0.0231 -0.2904
13814W        W56830  31.754  26.324  15.715  0.1012  0.2060 -0.2156
13815W        W56831  11.053  23.645   1.679 -0.3755 -0.0659 -0.0610
13816W        W56832  31.434   3.493  27.353  0.0943  0.1489 -0.1399
13817W        W56833  19.684  29.259  20.807  0.1251  0.2352  0.2579
13818W        W56834   6.795  29.414  14.404  0.0888 -0.5194 -0.1930
13819W        W56835  20.437  31.959  21.800  0.0283  0.3495 -0.1214
13820W        W56836  31.616   6.773  15.248 -0.1040 -0.1177 -0.0501
13821W        W56837  22.953  18.801  20.546  0.2734  0.2650  0.1254
13822W        W56838  11.266  27.860  24.011  0.0913  0.4243  0.1717
13823W        W56839  12.503   4.209   0.512 -0.0194 -0.1376 -0.2458
13824W        W56840  16.572  32.785  18.451  0.2400  0.0156 -0.3571
13825W        W56841  11.432   0.055  20.282 -0.1548 -0.1810  0.0464
13826W        W56842  34.014  26.202  26.447 -0.2366  0.2428  0.0540
13827W        W56843  20.047   0.471  21.137 -0.1725 -0.0350  0.1134
13828W        W56844  13.164  31.055  20.220  0.2669 -0.1627 -0.2557
13829W        W56845  30.767  32.393  17.230 -0.1233 -0.0202 -0.2236
13830W        W56846  28.974  20.222  16.474 -0.2785  0.1039 -0.2133
13831W        W56847   6.585  22.762  27.346 -0.1539  0.1181 -0.0285
13832W        W56848  13.622   6.660  16.900 -0.1259  0.0903  0.0351
13833W        W56849  26.097   4.368  17.733 -0.3682 -0.0901 -0.0883
13834W        W56850  12.378  22.678  23.123 -0.0958 -0.2128 -0.2173
13835W        W56851  17.833   7.006  16.657  0.0187  0.0079  0.1815
13836W        W56852  11.962  25.490  16.239  0.1419  0.1227  0.1189
13837W        W56853  11.946  29.457  16.847 -0.0942 -0.1271  0.0534
13838W        W56854   4.198  33.264  28.367 -0.3769 -0.0100  0.0862
13839W        W56855  28.964   1.648  25.397 -0.0154  0.0410  0.3549
13840W        W56856  26.782  16.674  14.544  0.1908  0.0572  0.0877
13841W        W56857  29.786  31.389  18.389 -0.3233 -0.0553 -0.3369
13842W        W56858  26.620  14.651  22.424 -0.1360 -0.2649  0.0541
13843W        W56859   7.937  21.914  16.194 -0.4106 -0.0636  0.1140
13844W        W56860   0.930  29.376   9.590  0.1099  0.1654  0.1067
13845W        W56861   4.364   3.029  25.130 -0.2850  0.2518  0.0375
13846W        W56862  32.150  32.662   9.335 -0.1214 -0.0271  0.0327
13847W        W56863   1.066  26.812   7.430 -0.0325  0.2355 -0.2163
13848W        W56864  25.757  34.081  25.618 -0.1161 -0.3437  0.0647
13849W        W56865  18.437  34.175  14.770 -0.3419 -0.1076 -0.1530
13850W        W56866   7.213   6.763  28.720 -0.1887  0.0525  0.0823
13851W        W56867  20.140   0.071  27.078  0.0795  0.0006 -0.1386
13852W        W56868   4.764   4.194  24.670 -0.1493  0.1286  0.0405
13853W        W56869  12.908  15.577  26.243  0.0195  0.0104  0.0141
13854W        W56870  29.575  23.297  19.560 -0.0609  0.1611 -0.0749
13855W        W56871  17.070  29.754  17.056  0.0769 -0.0425  0.1749
13856W        W56872  25.080  28.664  25.163  0.0140  0.0112 -0.1043
13857W        W56873  31.934  23.186   8.386  0.2188  0.4349 -0.0196
13858W        W56874  22.416  33.516  19.731 -0.0172 -0.0228 -0.0550
13859W        W56875  15.879  33.849  21.174  0.2261 -0.0529  0.5380
13860W        W56876  31.754   4.866  18.233 -0.4233 -0.2288  0.0961
13861W        W56877  27.649  31.819  10.339 -0.0564  0.0831 -0.2313
13862W        W56878   6.163   8.318   7.206  0.0457  0.2444  0.1005
13863W        W56879  24.549  27.729  12.100 -0.2104 -0.3587  0.2522
13864W        W56880  18.532  23.028  20.330  0.3218 -0.1779 -0.0996
13865W        W56881  24.497  12.685   2.842 -0.0614  0.1071  0.1123
13866W        W56882  20.608   4.294  17.300  0.0725  0.1320 -0.3293
13867W        W56883  14.068   6.401   9.551  0.2422 -0.3611 -0.1084
13868W        W56884  19.842  32.815   8.106  0.0344  0.0370  0.0917
13869W        W56885  27.116  25.206  19.611 -0.1238 -0.0716 -0.2028
13870W        W56886  26.644  14.431   4.811  0.2211  0.1215  0.0526
13871W        W56887  22.588  15.683   4.789 -0.0760 -0.2580  0.0156
13872W        W56888  32.131  10.258  20.309  0.1691 -0.1893 -0.0510
13873W        W56889  31.770  20.596  22.376 -0.4307 -0.4402 -0.2487
13874W        W56890  31.570  26.383   6.934  0.0098 -0.0786  0.0537
13875W        W56891  24.265  31.467  18.540 -0.3310 -0.0622 -0.2911
13876W        W56892   5.637  10.479  15.405  0.1052  0.2737  0.1001
13877W        W56893  18.127  19.919  11.985 -0.4009  0.0062  0.1114
13878W        W56894  25.561  27.637  22.574 -0.0681  0.4853 -0.2435
13879W        W56895  31.915  23.157   4.929  0.0303  0.0154  0.1474
13880W        W56896  21.844  30.321  28.938  0.0947  0.0038 -0.1524
13881W        W56897  13.724  32.941  27.356 -0.0107  0.3079  0.0306
13882W        W56898  20.732  28.688  26.062  0.0254  0.2985 -0.0288
13883W        W56899  17.883   4.652  23.653 -0.3202 -0.1990  0.0369
13884W        W56900  16.288  30.467  16.339 -0.2913 -0.1823  0.2187
13885W        W56901  29.091  27.338  20.108 -0.0535  0.0097  0.0812
13886W        W56902  15.353   2.928  17.963 -0.4406 -0.1876  0.1425
13887W        W56903   5.011   2.704   2.446 -0.3667 -0.2009 -0.3264
13888W        W56904  13.333   4.368  23.591  0.1434  0.1927 -0.0873
13889W        W56905  21.339   0.889  25.016 -0.3370  0.0482 -0.1692
13890W        W56906  22.258   7.064   2.816 -0.1406  0.0290 -0.1695
13891W        W56907  14.391  23.188  15.063  0.1188 -0.2393  0.0562
13892W        W56908  22.386   3.259  16.518  0.0256 -0.2316  0.0904
13893W        W56909  30.483  29.135  22.899 -0.0824  0.1927  0.0345
13894W        W56910   0.012  33.422  27.255 -0.0404  0.3006  0.1927
13895W        W56911  15.363  26.372  18.052 -0.0890 -0.2000 -0.1750
13896W        W56912  29.789  31.651   2.751  0.2268  0.0975  0.1154
13897W        W56913  27.158  21.101  24.876  0.2119 -0.0358 -0.0975
13898W        W56914  21.687  24.618  21.836 -0.0171 -0.1548  0.1335
13899W        W56915  18.836   7.652  17.167  0.0622 -0.1533  0.0821
13900W        W56916  24.409  26.219   1.407 -0.1167  0.2030  0.0928
13901W        W56917  15.591  34.451   3.223 -0.1566  0.3427  0.3060
13902W        W56918  28.995   6.281  16.558 -0.0248  0.1542 -0.0664
13903W        W56919  20.417  26.637   0.348  0.0892 -0.1916 -0.0913
13904W        W56920  17.553   0.181  24.150 -0.2178  0.2337  0.1584
13905W        W56921  30.514  30.394   2.914 -0.1963  0.0313 -0.2536
13906W        W56922  25.173   1.368   6.525 -0.1000  0.1166  0.0772
13907W        W56923  26.264  25.318  22.760  0.3503 -0.0452 -0.0710
13908W        W56924  16.233  25.186  24.965 -0.1438 -0.2308  0.0853
13909W        W56925  18.295   6.018  24.772 -0.1586  0.1356 -0.3934
13910W        W56926  28.092   8.634  26.150 -0.1034  0.3403  0.2260
13911W        W56927  29.454   9.104  17.139 -0.1261 -0.1505  0.0032
13912W        W56928  29.297   2.889  17.418  0.2550  0.0550  0.2264
13913W        W56929  29.953  30.926  16.309 -0.5374 -0.1527  0.3931
13914W        W56930  24.092   1.987  24.608 -0.0604 -0.2277 -0.1459
13915W        W56931  10.589  34.068  17.386  0.3193  0.0413 -0.2637
13916W        W56932  27.848  30.251   8.657 -0.2317 -0.0342  0.1472
13917W        W56933  25.852  10.010   4.325 -0.1180  0.1932  0.0166
13918W        W56934  28.495  14.468  13.693  0.0748 -0.0486 -0.1130
13919W        W56935  14.741  14.032  28.779 -0.0583 -0.1027 -0.1563
13920W        W56936  20.837  29.463  27.630  0.2744 -0.2674  0.0473
13921W        W56937  23.083   1.762   9.470  0.5765 -0.1034  0.2322
13922W        W56938  18.450  20.856   2.263  0.0046  0.5736 -0.1082
13923W        W56939  22.700  26.130  15.906 -0.0728  0.2385  0.0540
13924W        W56940  26.821  10.385  26.848  0.1529 -0.1370 -0.1536
13925W        W56941   6.902  31.199  19.525 -0.1837 -0.0288 -0.0318
13926W        W56942  29.459  33.616   0.642  0.2162 -0.2519 -0.1038
13927W        W56943  20.437   3.830   0.754 -0.2159  0.0666 -0.1422
13928W        W56944  26.188  26.747   6.580 -0.1424 -0.1079  0.2911
13929W        W56945  19.997  32.989  23.515 -0.0047  0.2414  0.3246
13930W        W56946  28.222   2.079  19.072  0.2106  0.4228  0.0926
13931W        W56947  28.569   0.028   6.411  0.3027 -0.0055 -0.0188
13932W        W56948  26.230   8.821   7.860  0.0021  0.1473  0.2400
13933W        W56949  30.421  23.974   1.464 -0.1417  0.0464  0.2085
13934W        W56950   8.145  28.991  22.679  0.1111 -0.0139 -0.0990
13935W        W56951  20.739  32.623  20.992  0.0969 -0.0401 -0.0116
13936W        W56952  20.852   1.486   4.262  0.0264 -0.2384  0.0581
13937W        W56953  28.184   4.709  26.033  0.0227 -0.1232 -0.1398
13938W        W56954  33.080  33.549  27.985 -0.3891 -0.1268 -0.2404
13939W        W56955  23.975   6.693  26.278 -0.1051  0.1519 -0.0235
13940W        W56956  23.039  19.384   7.072 -0.0109  0.2838  0.0284
13941W        W56957  23.237   4.919  15.533  0.2474  0.1941 -0.1044
13942W        W56958  33.055   8.126  28.894  0.1267  0.0763  0.2342
13943W        W56959  19.048  20.523  23.274 -0.0743  0.0503  0.1200
13944W        W56960  20.771  18.907  15.101  0.1117  0.3179  0.0564
13945W        W56961  17.317  27.944   0.249 -0.1696  0.2926 -0.1912
13946W        W56962  24.053   0.792  19.439  0.0235 -0.1322 -0.1655
13947W        W56963  15.344   5.198   2.885  0.1416  0.1449 -0.1556
13948W        W56964  13.845   8.624  19.171  0.0494 -0.3054 -0.0602
13949W        W56965   0.420   4.488   0.395 -0.1352  0.1860 -0.2337
13950W        W56966   0.668   5.810  18.307 -0.0916 -0.1813 -0.0135
13951W        W56967  11.964   6.043  22.684 -0.2482  0.1912  0.2203
13952W        W56968  31.125   4.423  18.883  0.0751 -0.3294  0.0230
13953W        W56969  21.916   8.823  20.637  0.0941 -0.4534 -0.4221
13954W        W56970  11.103  31.578  19.876  0.0531  0.0915  0.0394
13955W        W56971   1.088  13.556   0.239  0.2810 -0.4625  0.0616
13956W        W56972  10.682   2.589  19.689  0.0630 -0.0170 -0.2309
13957W        W56973  22.272   1.666   3.184  0.0556 -0.0892 -0.2182
13958W        W56974   2.013  23.085  17.750 -0.0302 -0.1744  0.0311
13959W        W56975  14.120   3.058   0.852  0.2033  0.1086  0.0798
13960W        W56976  24.933  31.714   8.234 -0.2296  0.1370  0.1806
13961W        W56977  24.532  31.021  19.353  0.0087 -0.0304 -0.0069
13962W        W56978  26.503  32.661  21.412  0.0716  0.0237  0.0043
13963W        W56979  21.227  10.288  26.591  0.2594  0.2816 -0.1673
13964W        W56980  32.457  34.382  16.153 -0.2546  0.4757 -0.0060
13965W        W56981  32.633  29.709   0.888  0.3020  0.0519 -0.0049
13966W        W56982  22.934  28.787  21.438 -0.1279  0.1015  0.0906
13967W        W56983  20.056  33.452  23.369  0.1576  0.1487  0.0975
13968W        W56984  15.444  32.902  22.733 -0.1088 -0.1165  0.2295
13969W        W56985  31.327  10.527   8.878  0.0211  0.0002  0.0842
13970W        W56986  22.101   7.259   2.313 -0.3056  0.2542 -0.0225
13971W        W56987  28.662   3.522  25.177 -0.0259  0.2394 -0.1127
13972W        W56988  26.680  32.229  18.983 -0.1875  0.0410 -0.2695
13973W        W56989  22.174   1.913   6.852  0.1115 -0.3134  0.3096
13974W        W56990  23.311  33.447  19.820 -0.0494 -0.0100 -0.1648
13975W        W56991  22.187  23.684  20.624  0.1572 -0.2223  0.1701
13976W        W56992  32.629  29.729   2.722  0.2490 -0.1192 -0.1845
13977W        W56993   6.382  27.348  25.356 -0.1254 -0.0455 -0.0897
13978W        W56994  23.760  10.437   2.810  0.0687  0.0034 -0.2007
13979W        W56995  17.291   0.777  18.131  0.0537  0.2887 -0.2932
13980W        W56996  32.457  29.702   2.160  0.0997 -0.0042  0.0578
13981W        W56997  13.350  21.269  18.347  0.0100 -0.2410  0.3036
13982W        W56998  13.056  13.091   1.049 -0.1634 -0.1796  0.2088
13983W        W56999  21.453  31.785   3.969 -0.0933 -0.0625  0.0520
13984W        W57000  26.110  26.373   5.095 -0.1817  0.0042  0.1750
13985W        W57001  26.438   2.750   0.121 -0.2797 -0.0228  0.0033
13986W        W57002  18.173   0.831  19.800  0.1766  0.0840 -0.1657
13987W        W57003  20.721  34.639  23.719  0.2058  0.0541  0.1268
13988W        W57004   5.948  28.172  25.633  0.0363  0.0287 -0.0461
13989W        W57005   3.232  24.803  16.066 -0.0746  0.1510  0.4900
13990W        W57006  19.058  19.818  17.268 -0.0355  0.0783  0.0128
13991W        W57007  19.776  15.958  20.367  0.1222 -0.0484 -0.0392
13992W        W57008  34.580   0.029   2.348  0.1441 -0.0906 -0.1678
13993W        W57009  19.826   7.261  25.809  0.0323 -0.1791  0.3588
13994W        W57010  30.841  31.388  18.052 -0.0503 -0.1618 -0.1500
13995W        W57011  14.921  23.613  15.508 -0.0337 -0.2153  0.2931
13996W        W57012  20.393   7.542  15.634 -0.1938  0.0230 -0.0133
13997W        W57013  31.301  32.015   0.506  0.2745 -0.5235 -0.3696
13998W        W57014  20.745  32.401  23.240  0.1186 -0.3765 -0.0137
13999W        W57015  30.466   3.437  26.170 -0.0962  0.6087  0.1549
14000W        W57016  16.177  34.705  19.460 -0.0775  0.0515 -0.1061
14001W        W57017  20.669  23.930  20.701 -0.2039  0.3860 -0.1426
14002W        W57018  31.396   1.205  23.908  0.0684 -0.0623  0.1912
14003W        W57019   1.962   8.085  23.923  0.1160  0.1520 -0.1819
14004W        W57020  23.824  33.551  18.942 -0.0155 -0.1260 -0.1433
14005W        W57021  33.787  34.540  23.107  0.1116 -0.0029  0.0860
14006W        W57022  27.891  28.594  17.416 -0.3276  0.2029 -0.1778
14007W        W57023  28.324   1.261   6.550 -0.3727 -0.1705  0.0425
14008W        W57024  21.465  22.096  16.943  0.2197  0.0122  0.0382
14009W        W57025  22.876   9.755  18.820  0.1128 -0.1748 -0.2423
14010W        W57026   4.853   2.521  22.954  0.1349 -0.1649  0.0537
14011W        W57027   4.129  30.863  29.066 -0.0769 -0.2362 -0.1663
14012W        W57028  10.366  10.982   1.259  0.1563 -0.1159  0.1279
14013W        W57029  22.538   0.117  17.348 -0.1473  0.3188  0.0363
14014W        W57030   6.346  16.594  15.782  0.0726 -0.3513 -0.1844
14015W        W57031   6.931  16.552  26.648 -0.1694  0.0453  0.0220
14016W        W57032   9.690   6.457  18.621 -0.3262 -0.0314  0.0147
14017W        W57033  28.642   1.609  18.982 -0.1752  0.0270 -0.0786
14018W        W57034  27.386   6.474  22.098 -0.0129 -0.0232 -0.1619
14019W        W57035  20.281  32.059  22.962 -0.1750 -0.0294  0.0524
14020W        W57036  23.211   5.307   0.745 -0.0377 -0.0627  0.0853
14021W        W57037  27.990   1.035  22.326  0.3287 -0.3361 -0.0705
14022W        W57038  17.159  18.281  16.090  0.3232 -0.0881 -0.0793
14023W        W57039   1.243  28.954  19.297 -0.2178  0.0416  0.0537
14024W        W57040  18.412  28.649  21.631 -0.1929 -0.3379  0.3812
14025W        W57041  23.713  34.481   7.317 -0.1462 -0.1041  0.0225
14026W        W57042  29.422   4.716  20.890 -0.1174  0.1884  0.0700
14027W        W57043  31.630  25.119  28.981 -0.1449  0.0763 -0.1555
14028W        W57044  22.036   2.350  17.836 -0.0986  0.2494 -0.0513
14029W        W57045   1.383  31.426  20.914  0.3037 -0.2901  0.1648
14030W        W57046  13.757  34.238   7.333  0.0083  0.2347  0.4734
14031W        W57047  25.255  15.206  18.973  0.4355 -0.4275  0.2079
14032W        W57048  20.294  32.387  27.247  0.1631  0.0001 -0.0394
14033W        W57049  22.544  19.737  27.244  0.1328 -0.0599 -0.1044
14034W        W57050  19.365  29.071   0.259  0.2011  0.1373  0.2187
14035W        W57051  23.666  29.615  26.267  0.0619  0.2702  0.1384
14036W        W57052   9.920   3.645  26.090 -0.2050 -0.0483 -0.0371
14037W        W57053  24.385  31.901   7.538  0.0137 -0.0799  0.2991
14038W        W57054  30.147  13.313   8.134 -0.2381 -0.0557 -0.4110
14039W        W57055  25.484  19.663   0.412  0.2019 -0.1675  0.0778
14040W        W57056  30.426   6.350  27.948  0.0017 -0.0509  0.0213
14041W        W57057  25.413   9.055  17.520 -0.0741  0.1913 -0.2455
14042W        W57058  25.118   7.106  26.973  0.2120 -0.0259  0.2814
14043W        W57059   4.300  15.000  15.299  0.3414 -0.1482  0.1519
14044W        W57060  12.374  25.965   4.527  0.1700 -0.0353 -0.2323
14045W        W57061  12.413   3.443  15.003  0.1605  0.1029 -0.2911
14046W        W57062  29.479  34.375   0.088  0.1317  0.1031 -0.0230
14047W        W57063  15.657  27.236  19.419 -0.1279  0.1133  0.1003
14048W        W57064  25.473   8.953  15.936  0.0468 -0.0822  0.1192
14049W        W57065  21.820  24.484  16.293 -0.0095 -0.0819  0.0630
14050W        W57066   1.114  17.258  18.910 -0.2045  0.1351 -0.2589
14051W        W57067  17.793   2.236  16.846 -0.0788  0.3821  0.2606
14052W        W57068  30.614  10.467  10.246  0.3903  0.2520 -0.1068
14053W        W57069  25.311  26.779  27.742 -0.2440 -0.0089  0.1201
14054W        W57070  27.580  33.004   6.742  0.2154 -0.0010 -0.0351
14055W        W57071  19.551   7.483  14.946  0.2607  0.2179 -0.1146
14056W        W57072  19.378  26.121   3.013 -0.2242 -0.0282 -0.0662
14057W        W57073  16.694  14.034  23.679 -0.4900  0.1082  0.4109
14058W        W57074   8.935   1.768   6.116 -0.2650  0.0418  0.3141
14059W        W57075  26.546  19.164  18.004 -0.1524  0.1223 -0.1427
14060W        W57076   7.913  21.263   3.221 -0.2154  0.2321 -0.1838
14061W        W57077  11.467   5.921   5.242 -0.1328  0.1781 -0.2362
14062W        W57078  30.568  29.845  20.432 -0.3014  0.0934  0.0583
14063W        W57079  11.845   5.961  17.675 -0.0956 -0.2804 -0.0217
14064W        W57080   8.765   2.017   5.161 -0.3060  0.1631 -0.0975
14065W        W57081  22.818   0.661   5.850  0.1910 -0.0081 -0.1158
14066W        W57082  23.617  23.666  16.734 -0.2252  0.1179 -0.0820
14067W        W57083   4.345  16.674  18.405  0.0769  0.1554 -0.0690
14068W        W57084  24.534  25.857   0.633 -0.2651  0.2683  0.0047
14069W        W57085   7.336  10.146  26.772 -0.4339  0.0076 -0.1022
14070W        W57086  14.040   4.923  13.897 -0.3072  0.2584 -0.1619
14071W        W57087  21.690   0.931  15.969 -0.3052 -0.1062 -0.1403
14072W        W57088  22.643   9.080  16.919 -0.3126  0.0074 -0.0018
14073W        W57089   9.660  29.552  22.211 -0.2003  0.0766 -0.2211
14074W        W57090  20.713  15.213  14.140 -0.1994  0.2911  0.2188
14075W        W57091   4.096   3.379  10.486  0.1176 -0.1788 -0.0858
14076W        W57092  27.464  30.155  28.719 -0.2471 -0.2344  0.0251
14077W        W57093  17.421  29.135   1.217  0.1139 -0.0685  0.1110
14078W        W57094  23.110  16.835  26.636 -0.0644  0.0116  0.0213
14079W        W57095  20.599   5.405  22.605 -0.1201 -0.1155  0.2343
14080W        W57096  22.205  18.532  25.055 -0.4643 -0.4422  0.1200
14081W        W57097  10.386  34.707   2.054  0.1570 -0.0374 -0.0186
14082W        W57098  27.614   3.021   5.278  0.1593 -0.1543 -0.0666
14083W        W57099  23.361  33.518  18.720  0.2121 -0.1376 -0.1327
14084W        W57100   6.426  23.816   8.017 -0.4047 -0.0417 -0.0306
14085W        W57101  11.503  14.774   2.078 -0.1937  0.0273 -0.0399
14086W        W57102  16.660   0.400   9.628 -0.0576  0.3006 -0.2181
14087W        W57103  14.810  19.294   0.773 -0.2666 -0.0603 -0.1812
14088W        W57104  14.356  34.042   0.058  0.1864  0.2497  0.0148
14089W        W57105   3.312   2.829  16.091  0.2293  0.2295  0.2654
14090W        W57106  17.522   3.490   7.904 -0.1847  0.2651 -0.1489
14091W        W57107  11.550   7.168   6.099  0.4300 -0.3963  0.0380
14092W        W57108   5.729   3.213  25.791  0.1497  0.0260 -0.4508
14093W        W57109  12.413   5.332   5.725  0.2897 -0.0951 -0.3273
14094W        W57110  20.334  10.832   1.730  0.2383 -0.2134 -0.0387
14095W        W57111   3.632  10.283   2.592  0.0777 -0.3671  0.0827
14096W        W57112  13.952  31.368   2.195  0.1199  0.1441  0.0727
14097W        W57113  15.588   6.292  21.477  0.1042  0.0767  0.1369
14098W        W57114  31.688   5.325   5.697 -0.1246 -0.1318  0.1579
14099W        W57115  33.776  33.284  27.459 -0.1213 -0.1024 -0.0685
14100W        W57116  25.005   5.385   8.682  0.1546  0.2212  0.3229
14101W        W57117  32.573   1.358  23.103  0.2652 -0.0379  0.2868
14102W        W57118  31.622  19.599   1.110  0.0753  0.1199 -0.1803
14103W        W57119  16.117   5.241  25.013  0.1913  0.3539 -0.3065
14104W        W57120  33.568   8.874  28.805  0.0962  0.2899  0.1521
14105W        W57121   2.605  14.810   2.669 -0.3564  0.1707  0.4681
14106W        W57122  10.874   1.744   9.289  0.1392 -0.0594 -0.0210
14107W        W57123  18.806  21.216  17.627 -0.2620 -0.1466  0.1748
14108W        W57124  13.599  30.493   8.150  0.0874 -0.1999  0.2846
14109W        W57125  26.856   9.792  22.689  0.1244 -0.1513  0.1218
14110W        W57126   4.283   3.005  21.521  0.2064 -0.0199  0.0691
14111W        W57127   6.731  29.560  20.619 -0.2414 -0.2400 -0.2379
14112W        W57128  20.633  11.324  27.211 -0.2997  0.0932 -0.2585
14113W        W57129  26.933  22.384   4.893 -0.0782 -0.2317  0.1889
14114W        W57130  17.272   7.877  27.485  0.3133  0.0042 -0.2533
14115W        W57131  12.777   4.440   3.853  0.2225  0.0904  0.1822
14116W        W57132  22.340  26.957   4.906 -0.1803 -0.0758  0.0579
14117W        W57133   5.557  10.878   7.297  0.2765 -0.0297 -0.2219
14118W        W57134  16.574   9.652  26.763 -0.1574 -0.1569 -0.1170
14119W        W57135  21.570  34.292   3.865 -0.1718  0.0254  0.1232
14120W        W57136  26.137   1.211  25.436 -0.0184 -0.3146  0.1187
14121W        W57137  25.950  34.641  10.777  0.1180  0.0146 -0.0342
14122W        W57138  18.836  18.513  23.274 -0.0798  0.2252 -0.0119
14123W        W57139  15.612   3.352  23.722 -0.0672 -0.1194 -0.0462
14124W        W57140  22.509  29.673   3.323 -0.1213 -0.1385  0.1848
14125W        W57141  20.237  10.710   8.618 -0.0170  0.1596  0.2206
14126W        W57142   3.845  23.409   6.474 -0.0054  0.1344  0.4278
14127W        W57143  21.936  33.141  24.880 -0.2147  0.2420 -0.0987
14128W        W57144  19.291  34.509   2.154  0.2213 -0.4762  0.2068
14129W        W57145  27.587  27.588  27.212 -0.1009  0.0506  0.1041
14130W        W57146  10.169  27.447  20.098  0.1044 -0.0589  0.1953
14131W        W57147  13.947   9.530  26.855 -0.4654 -0.1654 -0.0612
14132W        W57148   7.493   4.167  19.990 -0.2589 -0.2542  0.2100
14133W        W57149   5.801   8.924   2.763  0.1603  0.2704  0.2307
14134W        W57150  22.531  30.116   4.182 -0.1230  0.1166  0.1426
14135W        W57151  21.495  18.672   7.456  0.0304  0.1745  0.1261
14136W        W57152  13.408   3.686  21.508  0.1357  0.0363 -0.1027
14137W        W57153  16.257  20.420   4.295  0.1976  0.2496 -0.0662
14138W        W57154  20.667  30.546   5.177 -0.2821  0.0420 -0.1627
14139W        W57155  27.419   9.794  28.896 -0.0887 -0.1683  0.2611
14140W        W57156  21.091  28.655  26.695  0.1958 -0.0794 -0.0447
14141W        W57157  30.679  31.096   1.645 -0.4710 -0.0197  0.1397
14142W        W57158   0.515   9.419  22.194 -0.0188 -0.0824 -0.4230
14143W        W57159  19.911  23.729  24.553 -0.1981 -0.1211  0.2857
14144W        W57160  20.155  24.014  16.144 -0.0038  0.0394 -0.1308
14145W        W57161   5.749  17.154  14.850  0.0735 -0.1633 -0.0560
14146W        W57162  26.963  26.115   3.154  0.1229 -0.0795  0.1065
14147W        W57163  17.790  33.395  28.446  0.0089  0.0698 -0.3744
14148W        W57164  23.788   6.027   5.711 -0.3102 -0.1711 -0.2160
14149W        W57165   9.907   8.649   7.096  0.0596  0.2576 -0.1005
14150W        W57166  33.738  31.177  24.583 -0.1472 -0.1196 -0.1901
14151W        W57167  16.312   0.220   4.812 -0.1128 -0.1622  0.1021
14152W        W57168  10.942  34.618   9.738 -0.2607  0.2895 -0.0070
14153W        W57169  22.295   8.383  21.131  0.1651 -0.0179 -0.0066
14154W        W57170  29.292  30.671  28.280 -0.0452 -0.0407 -0.4584
14155W        W57171  26.775  33.590   0.582 -0.1678  0.1868 -0.0254
14156W        W57172  26.952  29.861  10.951 -0.0010  0.0244  0.2710
14157W        W57173  28.776   1.284  25.742  0.0707  0.1725  0.0830
14158W        W57174   5.846  29.199  25.458 -0.0424 -0.2961 -0.0201
14159W        W57175  22.457   3.978   2.960 -0.1210  0.2343  0.1326
14160W        W57176   4.595  32.578  22.906  0.1094 -0.0958 -0.2148
14161W        W57177  25.780  32.531  17.283 -0.1583 -0.0961  0.1729
14162W        W57178  29.091  16.427   9.314 -0.2368 -0.2334  0.0515
14163W        W57179  15.482  31.591  28.139  0.0013  0.1098  0.1731
14164W        W57180  13.458  32.510   3.629 -0.2523 -0.0728  0.2514
14165W        W57181  32.034  29.220   6.294 -0.0266  0.2806  0.2403
14166W        W57182  10.229   1.872   9.569 -0.0893  0.0232  0.1296
14167W        W57183  20.224  33.344  26.347 -0.0591  0.0185 -0.0319
14168W        W57184  26.218   5.414  19.675 -0.2208 -0.0737  0.0422
14169W        W57185  20.974  33.259  25.691  0.1037 -0.1977 -0.0328
14170W        W57186   7.106   1.619   3.898  0.0741 -0.2652 -0.2369
14171W        W57187  16.392   3.009  23.886 -0.0107  0.0892  0.2646
14172W        W57188   8.153  30.771   9.056 -0.1738  0.2228  0.0451
14173W        W57189  19.821   1.798  19.617  0.2048 -0.1153 -0.0728
14174W        W57190  22.510  30.815  10.592 -0.4173 -0.2522 -0.2132
14175W        W57191  11.787   5.111  15.981  0.1403 -0.0059 -0.1478
14176W        W57192  25.681   2.248  11.353  0.1310  0.0046 -0.1566
14177W        W57193  34.068   7.455   1.549 -0.1851  0.1132 -0.0376
14178W        W57194   7.635   1.209   7.101 -0.1223  0.0204  0.2149
14179W        W57195  17.234  15.460  21.726  0.0001  0.0005  0.1506
14180W        W57196  23.522  14.094  15.197 -0.2226 -0.0660  0.0275
14181W        W57197  16.679  32.454   1.452 -0.1432  0.0393 -0.0824
14182W        W57198  23.674  28.571   0.408  0.2132  0.0520  0.2278
14183W        W57199  28.044   6.813   1.402  0.1688  0.0952  0.1139
14184W        W57200  16.482  29.213   3.169 -0.2130 -0.0815  0.1224
14185W        W57201  29.403   5.276   5.591 -0.2320  0.0280  0.0437
14186W        W57202  10.307  30.528  18.702  0.3421 -0.2648  0.1426
14187W        W57203  27.501  27.949   2.126 -0.1921  0.2912 -0.0575
14188W        W57204  11.240  14.173  14.633  0.2059 -0.0866  0.1709
14189W        W57205  30.863   6.905   5.487  0.1169 -0.2202 -0.2050
14190W        W57206   6.937   2.353   4.640  0.2086  0.0532 -0.0001
14191W        W57207  30.853   3.298   3.299  0.0765  0.1695  0.1850
14192W        W57208  18.864   5.477   6.529 -0.2976 -0.2827  0.5735
14193W        W57209  24.055   2.835  27.561  0.0428 -0.0148  0.2533
14194W        W57210  25.696  34.268  22.239  0.0136  0.2957 -0.2896
14195W        W57211  24.895  25.562  27.567 -0.0305 -0.2522  0.1695
14196W        W57212  21.283  29.316   0.465  0.1114 -0.1992 -0.1728
14197W        W57213   5.695  21.995  18.801 -0.0592  0.2141 -0.1357
14198W        W57214  15.469   5.519   6.124  0.2284 -0.2460 -0.0551
14199W        W57215  28.828   2.541   9.884 -0.0187 -0.0545 -0.5178
14200W        W57216  14.275  23.031  21.960  0.1917  0.2697  0.1270
14201W        W57217  23.826  31.129   7.833 -0.0217  0.0196  0.1982
14202W        W57218  28.334  27.791  20.916 -0.0138  0.1540  0.0243
14203W        W57219  23.697  31.104  24.370  0.3087 -0.0102 -0.0748
14204W        W57220  20.034  31.549   2.732 -0.4305  0.0106 -0.0109
14205W        W57221  19.118  30.172  10.318 -0.3095 -0.0097  0.0489
14206W        W57222  13.131   0.767   3.456 -0.1234  0.1256 -0.1073
14207W        W57223   1.487  19.185   4.191 -0.0120  0.2659  0.3663
14208W        W57224   9.286   3.134   7.838  0.0486 -0.2246  0.0489
14209W        W57225  11.334  21.821  21.682  0.2555  0.0707 -0.1841
14210W        W57226  34.401  15.535  26.132  0.0845  0.0931 -0.3353
14211W        W57227   3.853  16.971  26.702 -0.0372 -0.2342  0.1053
14212W        W57228  13.859   2.235   0.375  0.1829 -0.3217 -0.1609
14213W        W57229  28.032   3.588   7.991  0.1513 -0.3177  0.0185
14214W        W57230   7.556   2.906   6.223 -0.1241  0.1211  0.3680
14215W        W57231  18.682  28.950  22.248 -0.3671  0.2923  0.1646
14216W        W57232  13.197   1.815  22.951 -0.0444  0.0978  0.0868
14217W        W57233  21.565   5.017   3.891 -0.1128  0.0687  0.4415
14218W        W57234  14.360   6.390   6.789  0.1856 -0.0044 -0.0023
14219W        W57235  13.163  29.044  28.319  0.0273 -0.0308 -0.1253
14220W        W57236   6.803   4.926   1.346 -0.0377  0.0996 -0.1434
14221W        W57237  26.050  30.302  24.006 -0.1390  0.3119  0.0956
14222W        W57238  24.503  13.651  29.180  0.2466 -0.2019  0.2306
14223W        W57239  18.139  31.306  25.674  0.1923  0.0564  0.0297
14224W        W57240  25.659   9.129   1.407  0.1188 -0.0920 -0.3111
14225W        W57241  20.086  31.113   7.720 -0.1844  0.6336  0.3113
14226W        W57242  32.264  30.702   3.692 -0.2304 -0.0946  0.2030
14227W        W57243   3.937   2.661  25.063  0.2453 -0.1753 -0.3087
14228W        W57244   0.830  26.612   2.058 -0.1270 -0.1487 -0.1211
14229W        W57245  24.077   5.323  17.048  0.3597 -0.0105  0.1431
14230W        W57246   2.734  22.336   1.961  0.0322 -0.2068  0.0189
14231W        W57247  34.094  13.178  22.321  0.0856  0.1372 -0.2382
14232W        W57248  29.181  24.043  17.331  0.4465 -0.0262 -0.0724
14233W        W57249   5.040  27.282   5.689 -0.0583  0.2163  0.1283
14234W        W57250  27.874  28.769   5.735  0.2145 -0.2510  0.0214
14235W        W57251  27.715   3.346   6.884  0.0686 -0.0226  0.2953
14236W        W57252  12.101  29.691   1.630  0.2186 -0.0845 -0.1060
14237W        W57253  18.434  33.624  24.397 -0.3783  0.0254  0.1453
14238W        W57254  22.946   2.760   1.553 -0.3106  0.2938  0.2200
14239W        W57255  22.829  17.369   1.168  0.4548 -0.2161 -0.0997
14240W        W57256   5.032   4.702  16.695  0.0433  0.0769  0.0398
14241W        W57257  22.280  28.522  22.679  0.1541 -0.1319 -0.1241
14242W        W57258  27.183  27.775   8.702 -0.1170  0.2888 -0.1267
14243W        W57259  25.072   9.177   0.755 -0.2194 -0.2405 -0.1139
14244W        W57260  25.330  27.775   7.685  0.1123 -0.0859 -0.0472
14245W        W57261  25.473   5.453   0.629 -0.3455  0.2508 -0.0837
14246W        W57262   5.346  26.569  18.300  0.1984  0.1246 -0.0854
14247W        W57263  20.364   3.729  27.337  0.0208 -0.1403  0.2014
14248W        W57264  25.358  24.518   0.404 -0.0955 -0.1349  0.1239
14249W        W57265  15.722  34.579   0.843 -0.1351  0.0400  0.3590
14250W        W57266  20.487  30.302  22.560  0.1467  0.2209  0.2694
14251W        W57267  10.334  31.904  24.171 -0.2799 -0.1459 -0.0967
14252W        W57268  12.490  22.514  21.766  0.2150  0.0583  0.0723
14253W        W57269  21.356  15.912  20.101  0.0101 -0.0788  0.1575
14254W        W57270  15.458  30.909   0.550 -0.0158  0.0547 -0.2527
14255W        W57271  23.503   6.023   8.283 -0.0874  0.1443 -0.0652
14256W        W57272  31.506  15.583   7.998 -0.0973  0.0455  0.0945
14257W        W57273   9.306   3.721  23.059  0.0689  0.0081 -0.1543
14258W        W57274  26.075  29.760  25.422  0.1420  0.0235 -0.2964
14259W        W57275  23.808  30.917   4.196  0.1019 -0.2218 -0.0917
14260W        W57276  14.774   0.757   2.998 -0.2127 -0.3125  0.0368
14261W        W57277  29.607   2.660   6.151  0.0186  0.1929  0.0298
14262W        W57278  16.929  13.596  13.151  0.0419 -0.0378  0.0553
14263W        W57279  12.715   2.443  20.514 -0.2342 -0.0665 -0.0063
14264W        W57280  21.194   1.074   1.073 -0.2018 -0.0940 -0.4989
14265W        W57281  19.060   7.671   2.445  0.0517 -0.1167  0.2403
14266W        W57282  12.461   4.652  24.076 -0.2374  0.1012  0.0209
14267W        W57283   3.188  17.775  14.286  0.2028 -0.0048 -0.0035
14268W        W57284  17.122  15.908  18.819 -0.3319  0.0873 -0.0858
14269W        W57285  26.218  33.306   5.633  0.2593 -0.0898  0.0222
14270W        W57286  23.605  24.368  28.073 -0.2021  0.0917 -0.0455
14271W        W57287   9.731  29.658  19.918  0.1919  0.0934 -0.3139
14272W        W57288  21.679   7.588   6.165 -0.0067  0.2479 -0.0800
14273W        W57289  21.244  28.511  27.799  0.0664 -0.2074 -0.1789
14274W        W57290  14.501   6.802   3.101 -0.0480  0.2616  0.1919
14275W        W57291   6.887  26.197  19.059 -0.4633 -0.1249 -0.0952
14276W        W57292  26.263  28.049  16.910 -0.0834  0.0544 -0.1443
14277W        W57293  18.736   3.884   4.689 -0.0922  0.1004  0.1523
14278W        W57294  31.965  25.506  19.498 -0.1783  0.1203 -0.1949
14279W        W57295  32.188   3.768   2.239 -0.1448 -0.2881 -0.0073
14280W        W57296  27.380  33.498  19.313 -0.0495 -0.2189  0.0772
14281W        W57297  24.090  15.908   9.077 -0.0985  0.1068  0.1706
14282W        W57298  24.434  11.301  24.685  0.0500  0.1060 -0.2795
14283W        W57299   2.926   9.847  21.721  0.2086  0.2506 -0.1583
14284W        W57300  23.533  27.796   8.410  0.1255  0.1135  0.3100
14285W        W57301  16.440  12.066  21.155  0.1631  0.0519  0.0077
14286W        W57302  10.611  34.567  10.120  0.1412  0.1208  0.0591
14287W        W57303   9.294   8.124   5.006 -0.1133  0.0881  0.3578
14288W        W57304   3.091  19.958   6.631  0.2064 -0.2007 -0.4233
14289W        W57305  21.940   3.140  27.897  0.2463 -0.2082 -0.2337
14290W        W57306  20.464  24.249   6.586 -0.1335 -0.2333  0.0593
14291W        W57307  18.223  33.055   4.298 -0.0817  0.2251 -0.3401
14292W        W57308  22.113  15.645  15.142 -0.3929 -0.1912 -0.1538
14293W        W57309  18.535  19.161  24.468 -0.0463  0.1171  0.0246
14294W        W57310  25.297  23.526   5.279  0.2603 -0.0342  0.3584
14295W        W57311  16.239   5.819   8.074 -0.0585 -0.1310 -0.0265
14296W        W57312  12.756  10.251  28.771  0.0577 -0.0270 -0.1579
14297W        W57313  32.202  32.955  27.583  0.2212 -0.5094  0.0537
14298W        W57314  32.102  31.736   8.766 -0.0074  0.1011 -0.2515
14299W        W57315  20.173   3.873   5.441 -0.1414  0.2328 -0.3847
14300W        W57316  26.361  32.339  28.643  0.0277  0.1896 -0.1310
14301W        W57317   2.408   5.755   0.078  0.1294 -0.0153 -0.0338
14302W        W57318  26.066  33.114   7.395  0.2679  0.0290 -0.0292
14303W        W57319  28.946   2.194   4.861 -0.0702  0.2653  0.0725
14304W        W57320  19.454  11.472  17.282  0.2573  0.1537 -0.0595
14305W        W57321  29.410  19.130  27.541  0.1331 -0.0962 -0.0112
14306W        W57322  28.690  24.716  20.968 -0.2620 -0.0480 -0.0893
14307W        W57323  12.175   4.024  26.429  0.3543  0.1457  0.0709
14308W        W57324   8.354  17.940   6.856 -0.0981  0.0096  0.0296
14309W        W57325  20.605  32.812   1.683  0.0077 -0.1415 -0.1267
14310W        W57326   2.454  32.694   0.839 -0.0308  0.1627 -0.2501
14311W        W57327   6.356  12.149  21.107 -0.0418 -0.4967 -0.1632
14312W        W57328  26.544  25.323  28.223  0.0385 -0.0850  0.1753
14313W        W57329  15.725   8.573  27.906 -0.1161  0.1524 -0.2583
14314W        W57330  14.348  13.681  24.670 -0.1237 -0.1200 -0.4614
14315W        W57331  17.834  19.191  23.271 -0.1777 -0.0375  0.2401
14316W        W57332  20.588  34.321   1.393 -0.1262 -0.1652 -0.2212
14317W        W57333   9.387   5.478   2.086  0.0264 -0.3487 -0.2682
14318W        W57334  30.627   7.112   3.599 -0.0415 -0.1704 -0.0820
14319W        W57335  22.289   9.033  24.973  0.1764  0.0787 -0.1742
14320W        W57336  31.318  28.480   6.711 -0.0606  0.1689 -0.0142
14321W        W57337  24.597  22.104  15.138 -0.1161  0.1730 -0.0365
14322W        W57338  32.358  34.727   6.850  0.0136 -0.3849  0.2230
14323W        W57339  15.656   0.284  25.893 -0.1003  0.1075 -0.4680
14324W        W57340  19.968  31.033   2.826 -0.0180  0.3917 -0.0658
14325W        W57341  14.601  27.377  17.957 -0.0134 -0.2855  0.0834
14326W        W57342  20.325  33.992  15.266 -0.2927 -0.3160 -0.0065
14327W        W57343  10.286   2.099  22.996 -0.1033  0.1511 -0.0609
14328W        W57344   4.692   2.787  24.771 -0.5392 -0.0464 -0.0988
14329W        W57345  33.667   5.704   9.907  0.0903  0.3824  0.0146
14330W        W57346  28.990  34.351  18.637 -0.1899  0.3015 -0.2414
14331W        W57347  19.936  30.564  15.691 -0.1211  0.1160 -0.0069
14332W        W57348  18.223  13.170  24.475  0.0218 -0.3610 -0.1878
14333W        W57349  18.380   8.306  27.465  0.3743  0.4859 -0.0169
14334W        W57350   6.420  16.569  24.334 -0.2911  0.1700 -0.0327
14335W        W57351  27.885   1.108  17.539 -0.1740  0.1110  0.0931
14336W        W57352  16.190   2.005  26.440  0.0227  0.1081  0.1203
14337W        W57353  27.392  22.796  16.520 -0.1203  0.0023  0.0965
14338W        W57354  15.499   2.932  20.553  0.2332 -0.0326 -0.0448
14339W        W57355  22.329   6.834  21.904  0.0451  0.0895  0.1157
14340W        W57356  27.420  13.500  27.401 -0.2489 -0.1720  0.0543
14341W        W57357  20.584  33.329  16.952 -0.0120 -0.0394 -0.0151
14342W        W57358  26.426   7.553  26.474  0.2992 -0.0284 -0.2430
14343W        W57359  22.095   9.880  16.700  0.0813 -0.2853 -0.0174
14344W        W57360  27.262  32.209  27.893 -0.0358 -0.1277 -0.4101
14345W        W57361   4.264  27.656  17.220 -0.3986  0.1827 -0.2193
14346W        W57362  34.370   6.531   5.499  0.2212 -0.0090  0.2417
14347W        W57363  30.010  12.863  25.681  0.0274  0.0549  0.2149
14348W        W57364  19.917  31.772  25.779 -0.0639  0.1817  0.0738
14349W        W57365  32.522  33.424  24.508  0.2018 -0.3313  0.2163
14350W        W57366  28.792   1.290  21.366 -0.1630  0.2168 -0.3165
14351W        W57367  32.410   2.524  15.654  0.2672  0.0457  0.1748
14352W        W57368  21.248   7.805  24.450  0.0654  0.1137  0.0413
14353W        W57369  26.996   7.249  24.863 -0.0489  0.0213 -0.0300
14354W        W57370  19.367  29.162  24.407  0.3546 -0.0325  0.0069
14355W        W57371  28.086   1.146  18.512  0.1407 -0.0501 -0.2086
14356W        W57372  24.083   0.850  14.731  0.4846 -0.2043  0.0751
14357W        W57373   5.398  24.654  28.989 -0.1172 -0.2498  0.2126
14358W        W57374  34.300  11.824  23.589 -0.0223  0.0965 -0.2224
14359W        W57375   1.767   2.692  21.661 -0.1242 -0.0111 -0.0049
14360W        W57376  22.724  10.272  16.175 -0.1295 -0.2739 -0.1506
14361W        W57377  23.212  17.093  13.332 -0.2666 -0.3955  0.4279
14362W        W57378  31.861  29.914   0.530 -0.2802  0.0429  0.1442
14363W        W57379  22.074   9.821  14.143 -0.0568 -0.3522  0.1425
14364W        W57380  31.813   5.963   1.065 -0.2484  0.1934  0.3670
14365W        W57381  29.999   0.476  17.104  0.3611  0.1118  0.0100
14366W        W57382   2.046  30.627  15.256  0.0355 -0.1462 -0.1849
14367W        W57383   9.741  22.587  15.347  0.2562 -0.0471 -0.1980
14368W        W57384  28.559  18.204   7.720  0.0752  0.0320 -0.0049
14369W        W57385   6.931  19.468  18.407  0.3212  0.1827  0.0550
14370W        W57386  34.480   7.720  15.377  0.0214  0.1990 -0.0909
14371W        W57387  34.077   5.533  16.069  0.0352 -0.0705  0.0222
14372W        W57388  12.663  27.518  16.363  0.0906 -0.3034 -0.1971
14373W        W57389  26.035  24.636   8.816 -0.0654  0.0221  0.1613
14374W        W57390   4.030  23.360  20.968  0.1372 -0.3807  0.1458
14375W        W57391  30.931   4.470  23.119  0.0428  0.0186  0.1557
14376W        W57392  13.731   4.697  27.342 -0.4200  0.2180 -0.2570
14377W        W57393  24.934  14.591  27.581  0.0446  0.5817 -0.0344
14378W        W57394   7.192   7.041  16.105 -0.1648 -0.2803 -0.2529
14379W        W57395   0.733   0.172  14.776 -0.1353  0.0651 -0.0312
14380W        W57396  34.003  28.414  19.432 -0.2731 -0.1575 -0.0036
14381W        W57397  34.009  29.308  24.686 -0.0709  0.1507 -0.1683
14382W        W57398  29.019  32.624  22.517  0.1102  0.2364 -0.0518
14383W        W57399  24.474   4.222  19.627  0.0856  0.0250 -0.1595
14384W        W57400  12.309  28.133  22.426  0.0925 -0.0643  0.0295
14385W        W57401  34.669   3.211  22.763 -0.0536  0.0260 -0.3260
14386W        W57402  10.597  32.837  23.935 -0.0415 -0.0035 -0.3707
14387W        W57403   0.295   4.376  17.245  0.0522  0.0900 -0.0314
14388W        W57404  11.859   0.421  28.043 -0.1978 -0.1176  0.3086
14389W        W57405   0.266  27.736  15.672 -0.1065  0.1009  0.2839
14390W        W57406   1.368  15.002  18.930  0.0780 -0.2221 -0.1236
14391W        W57407  28.873  31.031  26.958 -0.4335 -0.4737 -0.1363
14392W        W57408   6.180   5.509  20.210 -0.1576 -0.0677 -0.1684
14393W        W57409  27.590  21.806  19.113 -0.1093  0.0559 -0.2443
14394W        W57410  20.975  21.287  27.481 -0.3676  0.0225  0.0044
14395W        W57411   2.072   1.252   3.671  0.2109  0.2603 -0.1762
14396W        W57412  17.526  24.297   2.726 -0.0838 -0.0309  0.0942
14397W        W57413  32.064   7.111  18.198 -0.0567 -0.1723  0.1129
14398W        W57414  32.060  16.348  28.847 -0.2700 -0.0752  0.1272
14399W        W57415  11.863  34.660  22.462  0.3270 -0.0382 -0.4177
14400W        W57416   8.942  14.844  24.998  0.0470 -0.0330  0.0046
14401W        W57417  25.853   5.609  20.228 -0.1559  0.0736 -0.2070
14402W        W57418  20.119  26.182   5.690 -0.1211 -0.3832  0.1502
14403W        W57419  25.642   1.808  17.008  0.1325  0.0781  0.2648
14404W        W57420  14.164  22.090  23.541 -0.0544  0.0579 -0.0643
14405W        W57421  13.702   5.105  16.641  0.1263  0.0709 -0.2683
14406W        W57422  34.655   4.516  16.186  0.1041 -0.1618  0.0630
14407W        W57423  33.385   3.916  16.139  0.3277  0.1035 -0.2891
14408W        W57424  31.543  29.396  20.538  0.4390 -0.0752  0.1805
14409W        W57425  25.295  11.033  19.974  0.1778 -0.0108  0.0251
14410W        W57426  26.125   2.479  18.801  0.0681 -0.0491 -0.1293
14411W        W57427  12.730  24.822  20.933  0.1932  0.2302 -0.0040
14412W        W57428  28.004  27.932  17.101  0.0108  0.0813  0.1554
14413W        W57429  17.598  22.203  22.466  0.1846 -0.0308 -0.0498
14414W        W57430  15.439  13.642  12.323 -0.3020  0.2600 -0.1657
14415W        W57431  31.575   0.613  19.536  0.0079 -0.1463 -0.1201
14416W        W57432  25.147  12.296  20.395  0.0335  0.0200  0.1213
14417W        W57433  23.069   6.943  27.771  0.0952 -0.0867 -0.3157
14418W        W57434  29.393  31.188  20.210  0.1200 -0.0147  0.1303
14419W        W57435  22.961   7.133  18.368 -0.0450  0.3400 -0.1675
14420W        W57436   5.010   3.409  17.705 -0.0935  0.1837 -0.2380
14421W        W57437  25.438  12.351  22.944  0.1005 -0.1258  0.0694
14422W        W57438  33.400   1.115  22.075 -0.0254  0.0900  0.0820
14423W        W57439  26.172  34.150  22.545  0.1386  0.3804  0.0081
14424W        W57440  15.658  13.042  21.340 -0.0533  0.0483  0.1568
14425W        W57441  26.948   6.716  26.729  0.0066  0.2910 -0.1397
14426W        W57442  29.477  29.827  15.741  0.0117 -0.1194  0.1000
14427W        W57443  32.947  27.731  18.387 -0.1575  0.0993  0.0655
14428W        W57444  31.817   7.624   9.744  0.1465 -0.0423  0.0608
14429W        W57445  33.343   3.267  27.383 -0.0024 -0.4593  0.3045
14430W        W57446   6.743  15.331  14.634  0.0197  0.1678  0.0482
14431W        W57447  30.054  27.873  18.055 -0.1814  0.2695  0.0362
14432W        W57448   3.564  13.775  21.588  0.2054  0.0248 -0.0058
14433W        W57449   4.798  32.349  27.839 -0.1253  0.0088 -0.0961
14434W        W57450  25.911   6.207  23.047  0.2067 -0.1104  0.1155
14435W        W57451   5.404   0.941  23.038 -0.1118 -0.0976  0.1258
14436W        W57452  30.958   0.631  20.100 -0.1496 -0.2383  0.0957
14437W        W57453   6.172   1.069  28.941  0.3637 -0.1044 -0.1702
14438W        W57454  26.694  27.522  28.683 -0.0276 -0.1573  0.0060
14439W        W57455  31.975  26.050  10.346 -0.1504 -0.1177  0.1023
14440W        W57456  28.735   7.771  26.657 -0.2500 -0.0679  0.2016
14441W        W57457   1.696   0.684  29.033 -0.0225  0.0332  0.1514
14442W        W57458  16.453   6.348  24.829 -0.1089 -0.1708 -0.1547
14443W        W57459  32.625  22.809  24.701  0.4913  0.1246 -0.4001
14444W        W57460   3.213  28.168   8.430 -0.0225  0.1001  0.0327
14445W        W57461  19.978  28.570  24.285  0.0788 -0.1050 -0.1789
14446W        W57462   5.347  33.238  25.966 -0.0844  0.0053 -0.2511
14447W        W57463   0.484   5.217  24.674  0.0466  0.0286  0.0322
14448W        W57464  12.027  30.902  17.940  0.3250 -0.1989 -0.2141
14449W        W57465  24.777   8.210  23.712  0.2297  0.3007  0.3373
14450W        W57466  23.873  22.652   2.373 -0.4510  0.2855 -0.1064
14451W        W57467  17.872  30.926   2.228  0.1005  0.2142 -0.2396
14452W        W57468  34.763   7.235  16.113  0.1130 -0.0872 -0.0816
14453W        W57469  30.487  31.611  17.724 -0.1663 -0.0598  0.0071
14454W        W57470  19.914   1.014  16.560 -0.0182  0.2712 -0.0791
14455W        W57471  12.759  11.234  20.964 -0.0597 -0.0676  0.2336
14456W        W57472   1.463  18.408  18.487 -0.1717  0.0143  0.0958
14457W        W57473  31.272  19.621  20.658  0.2270  0.2427 -0.0607
14458W        W57474   6.391  19.252   1.252  0.1117  0.1065  0.1259
14459W        W57475  26.693   6.440  20.385 -0.0391  0.1547 -0.1081
14460W        W57476  26.490  13.503  26.766  0.1206 -0.2917  0.1713
14461W        W57477  26.412  23.197   1.773 -0.1407 -0.0142 -0.0748
14462W        W57478  28.871  31.846  23.964  0.1857 -0.0731  0.0967
14463W        W57479  27.168   1.894  15.878  0.1174 -0.0744  0.3126
14464W        W57480  18.062   5.923  18.229 -0.1459 -0.2430 -0.1159
14465W        W57481   0.000  23.661  20.135  0.1043  0.0414 -0.2869
14466W        W57482   0.160   5.682  21.715  0.0484 -0.3271 -0.1406
14467W        W57483  11.340  29.047  20.409 -0.1359  0.0640  0.0120
14468W        W57484  30.357   9.919  25.140 -0.0601 -0.0339  0.3257
14469W        W57485  18.964   7.012  15.386 -0.2004 -0.0672  0.4345
14470W        W57486  20.202  33.543  27.471 -0.1538 -0.0401  0.2174
14471W        W57487  32.449  32.422  18.498  0.0496 -0.2289  0.1587
14472W        W57488  29.157  12.316  17.230  0.0873  0.2252  0.1440
14473W        W57489  27.907   4.549  15.066 -0.0701 -0.2045  0.1564
14474W        W57490  27.263   5.437  20.147 -0.1390  0.0939  0.1550
14475W        W57491  30.815  13.695  28.600  0.0971  0.1275  0.2270
14476W        W57492  12.737   3.225  19.391 -0.2103  0.3239  0.0667
14477W        W57493  13.732  10.887  20.578 -0.0544  0.2582  0.0159
14478W        W57494   7.333  10.571  14.722 -0.2564  0.0032  0.0266
14479W        W57495   5.721  24.719  22.248 -0.0221  0.0876  0.0555
14480W        W57496  30.407   2.751  14.611 -0.0462 -0.2316  0.0304
14481W        W57497  22.951   2.518  15.425  0.0900  0.1237 -0.0462
14482W        W57498  19.855   9.998   2.031 -0.0090 -0.1980 -0.0867
14483W        W57499  20.850  19.580  17.290  0.2613  0.1144  0.0126
14484W        W57500  26.671  30.980  15.651  0.0266 -0.0775  0.0510
14485W        W57501  34.126  33.655  17.866 -0.1791 -0.0611  0.0516
14486W        W57502  17.493   9.888  25.297 -0.2637 -0.0599 -0.1936
14487W        W57503   2.347  26.662   4.283 -0.3059  0.0122 -0.1805
14488W        W57504  25.337   3.831  20.695  0.0473  0.2456  0.2068
14489W        W57505  30.191   4.327  21.147  0.0455  0.0334 -0.1543
14490W        W57506   3.063  11.863  24.623 -0.0030 -0.0242  0.2851
14491W        W57507  29.895   3.622  17.390 -0.0769 -0.4956 -0.2418
14492W        W57508  27.390  32.789  19.872 -0.0018  0.5904  0.1336
14493W        W57509  19.783   5.898  14.759 -0.0343 -0.1008 -0.3564
14494W        W57510  29.714   0.807  21.769  0.3047 -0.0635 -0.1001
14495W        W57511  26.257  27.782  20.292  0.0383 -0.1044 -0.0524
14496W        W57512  19.935   1.956  23.928  0.0968 -0.2354  0.0182
14497W        W57513  29.783  28.403   8.606  0.0285  0.1529 -0.1435
14498W        W57514  22.238   3.760  27.118  0.3342 -0.1801  0.0826
14499W        W57515  29.622   1.014  16.154 -0.1675  0.3731  0.0202
14500W        W57516  22.935  30.696  23.214 -0.0404 -0.1963  0.1638
14501W        W57517  26.732   6.598   9.359 -0.0259  0.3416 -0.0011
14502W        W57518   2.905  12.851  19.567 -0.3029 -0.0369  0.3424
14503W        W57519   1.922  28.906  16.453  0.2919 -0.1406 -0.0448
14504W        W57520  33.322  16.644  27.297 -0.1979  0.0598  0.0966
14505W        W57521  25.474  32.935  15.855  0.2082 -0.1994  0.2021
14506W        W57522  28.831  11.400  20.819  0.3995  0.0257  0.2726
14507W        W57523   1.495  33.187  14.062  0.0419  0.0954  0.0124
14508W        W57524   0.570   7.936  16.803  0.2287 -0.2153  0.0083
14509W        W57525  29.537   3.728  19.778  0.2128 -0.0908 -0.1297
14510W        W57526  18.951   0.748  19.687  0.0918  0.2733 -0.1219
14511W        W57527   6.278  25.938  17.353 -0.1192  0.0499  0.1417
14512W        W57528  25.009  26.277  22.512  0.3096  0.1863 -0.0484
14513W        W57529  19.215   9.971  27.136  0.0426  0.2812 -0.1312
14514W        W57530   8.096  17.521  13.562 -0.1311  0.2598 -0.2287
14515W        W57531   2.755  21.906  19.751 -0.3410 -0.0526  0.1518
14516W        W57532   6.749   3.600  17.745 -0.1680  0.1172  0.2642
14517W        W57533  32.829   4.835  16.445 -0.2238  0.1569 -0.3199
14518W        W57534  21.428  30.431  19.755  0.1371 -0.0209 -0.3946
14519W        W57535  26.178   3.522  27.455  0.0365  0.0052 -0.0159
14520W        W57536  23.704  30.909  27.901  0.0738  0.2536 -0.2027
14521W        W57537   6.513  34.232   7.358  0.0028 -0.0280 -0.2661
14522W        W57538   1.021   4.182  23.684 -0.4202  0.3927  0.0773
14523W        W57539  23.895   8.088  21.111 -0.1284 -0.1863 -0.1345
14524W        W57540  10.574  20.881  20.299 -0.1764 -0.1854 -0.1130
14525W        W57541  18.568   7.543  18.042 -0.0927 -0.2774  0.0413
14526W        W57542  13.926   0.766  15.274 -0.0779  0.1326 -0.0488
14527W        W57543  16.223   8.406  20.109 -0.2549  0.0248 -0.2329
14528W        W57544  23.520  16.126  27.316 -0.2287  0.2417  0.0187
14529W        W57545  29.952  28.101   2.384 -0.0253 -0.0240 -0.1140
14530W        W57546  32.833   5.894  15.616  0.2826  0.0514  0.1542
14531W        W57547   1.548   5.540  16.298  0.0479  0.0382  0.2425
14532W        W57548  17.598  34.374  18.029  0.0243  0.0183  0.0257
14533W        W57549  28.583  26.507   9.822  0.1632  0.0627  0.1646
14534W        W57550  21.695  33.216   7.821  0.0667  0.0282 -0.1519
14535W        W57551  31.019  26.773  23.515 -0.0444 -0.1088  0.1215
14536W        W57552  26.247  24.926  18.307 -0.0640  0.0307  0.0852
14537W        W57553  29.346   1.253  21.047  0.0617 -0.0103 -0.2087
14538W        W57554  11.306   5.546  20.725 -0.1175  0.2694  0.2534
14539W        W57555  27.732  34.265  22.038 -0.1717  0.1072 -0.0392
14540W        W57556  28.482   3.601  24.085  0.0767 -0.3234 -0.3430
14541W        W57557  17.103   2.395  17.854 -0.2242  0.1769  0.4552
14542W        W57558  22.751  12.630   1.373  0.2472 -0.1412  0.0517
14543W        W57559  22.832  25.267  14.142 -0.0762 -0.2053  0.1344
14544W        W57560   1.845   0.345  18.276 -0.0748  0.2759 -0.2371
14545W        W57561   1.676  21.989  18.585  0.1561 -0.2732  0.2754
14546W        W57562  16.942  19.704  16.492 -0.1440 -0.0332 -0.1021
14547W        W57563  31.371   4.150  15.610 -0.1618 -0.2812 -0.3036
14548W        W57564  21.083  10.165  27.250 -0.0058  0.2777 -0.0813
14549W        W57565  26.168  32.106  23.489  0.5025 -0.6769  0.0668
14550W        W57566  27.470   6.359  20.549  0.1553 -0.0491  0.1811
14551W        W57567  29.860   4.242   5.055  0.0889 -0.0485 -0.3969
14552W        W57568  19.619  26.546   2.816  0.1664  0.0056  0.1658
14553W        W57569   8.891  11.664  20.546  0.1130 -0.1832  0.0319
14554W        W57570  27.654   0.709  22.538 -0.0507  0.2285  0.0011
14555W        W57571  18.323   9.918  19.425  0.1358  0.2673 -0.0400
14556W        W57572  19.210  28.056  21.250  0.1357  0.1446  0.1008
14557W        W57573  24.642  30.474  25.745  0.1499  0.4061 -0.0908
14558W        W57574  18.957   9.579  28.386  0.3623 -0.0259  0.0295
14559W        W57575  21.969   4.675  17.243  0.2063  0.1501 -0.1224
14560W        W57576  11.125   7.184  20.607 -0.1147 -0.2224 -0.3000
14561W        W57577  18.241   9.943  26.618 -0.0155  0.1067  0.0728
14562W        W57578  23.912  32.543  16.393  0.3227 -0.2541 -0.2933
14563W        W57579  31.641   9.871  22.460  0.0058 -0.3459  0.1151
14564W        W57580  27.029  29.052  26.212  0.3921 -0.1418 -0.0341
14565W        W57581  23.886  24.004  27.251 -0.0569  0.0506  0.0198
14566W        W57582  24.633   6.846  14.716  0.0148 -0.0626  0.3144
14567W        W57583  32.790   0.685  16.277 -0.0398 -0.1305  0.0390
14568W        W57584  29.833   6.925  18.374  0.0288  0.1692 -0.1405
14569W        W57585  34.175  18.597  22.732  0.1179 -0.0049 -0.0707
14570W        W57586  22.314  11.489  25.558  0.2856  0.0905 -0.0847
14571W        W57587  11.658  22.727  17.990  0.0110  0.0578  0.1579
14572W        W57588  16.747  11.123  26.995 -0.1119  0.1799 -0.3479
14573W        W57589  31.551  30.813  18.603  0.2729 -0.1125 -0.0876
14574W        W57590   5.922  27.645  25.428 -0.2182 -0.1833 -0.1564
14575W        W57591  30.153  20.873  19.141  0.2984 -0.0889  0.0623
14576W        W57592   1.136  24.809  22.354 -0.1217 -0.0106  0.3150
14577W        W57593  30.840  26.145  21.898  0.0214  0.0678  0.3870
14578W        W57594  33.633   0.337  25.818  0.0983  0.1917  0.1699
14579W        W57595  27.234  29.196  19.912 -0.0333 -0.4069  0.2835
14580W        W57596  17.942   1.630  21.523  0.2186  0.0547 -0.1400
14581W        W57597  22.518  31.820  15.258 -0.0257 -0.0625 -0.2047
14582W        W57598  26.258   2.785  16.413  0.3070  0.0220  0.1443
14583W        W57599   7.261   5.155   2.001 -0.1032 -0.0796  0.0662
14584W        W57600  12.755  25.227  16.668  0.1628  0.0764 -0.0294
14585W        W57601  27.697  32.805  20.654  0.1283 -0.2756 -0.0137
14586W        W57602  20.624   9.653  14.011  0.1363 -0.4291 -0.1468
14587W        W57603  29.602  11.612  27.007 -0.0609  0.0533 -0.2131
14588W        W57604   6.633  11.820  23.710 -0.2143  0.0599  0.0584
14589W        W57605  31.958   7.303  10.523 -0.0611  0.2248 -0.0436
14590W        W57606  28.174   4.913  15.720 -0.1421  0.2227 -0.5335
14591W        W57607  25.559  27.650  26.515 -0.0668  0.4346  0.1418
14592W        W57608   0.813   4.317  14.292 -0.3614  0.1315  0.0687
14593W        W57609  21.351  11.668  14.030  0.1436  0.2947  0.1768
14594W        W57610  16.413  13.554  15.335 -0.1059  0.2565 -0.2009
14595W        W57611   1.979  17.161  18.950 -0.0492  0.2205 -0.2446
14596W        W57612  22.810   7.494  15.510 -0.2117 -0.1945 -0.2145
14597W        W57613  30.581  21.955  18.517  0.0526  0.3799  0.0527
14598W        W57614  23.050  10.822  20.786 -0.3107 -0.0771  0.0282
14599W        W57615  18.188   7.504  15.562 -0.1232  0.3167  0.0654
14600W        W57616  13.427  24.705  22.027  0.1805  0.2330 -0.2086
14601W        W57617  18.888  25.454  24.265  0.1136  0.2224  0.1800
14602W        W57618  14.417   2.372  25.483 -0.0329  0.1544 -0.0931
14603W        W57619   0.520  10.535  17.412 -0.0069  0.0735  0.0674
14604W        W57620  22.203  34.532  24.029  0.0618  0.2085  0.1459
14605W        W57621   4.341   6.271  17.467 -0.1925  0.0726 -0.0527
14606W        W57622  32.230  29.746  16.385 -0.5207 -0.1938  0.0582
14607W        W57623  24.155  25.811  17.210 -0.0021  0.1599  0.0383
14608W        W57624  29.330   7.677  16.700  0.2576  0.2969  0.1065
14609W        W57625  16.744  32.305  23.157 -0.2053 -0.1933 -0.0401
14610W        W57626   7.279   5.604  24.585 -0.0509  0.0610  0.1549
14611W        W57627  27.459   9.436  27.607  0.0267 -0.0926 -0.1874
14612W        W57628  28.072  33.818  28.468 -0.0538  0.2101 -0.2002
14613W        W57629  20.215   0.827  21.731  0.0996 -0.0938 -0.2962
14614W        W57630  30.772  29.153  19.298 -0.0509 -0.1670  0.0429
14615W        W57631  31.681   1.201  20.372  0.2807 -0.1930  0.1385
14616W        W57632   2.591  19.701  24.414  0.0870 -0.4069  0.3644
14617W        W57633   8.451   4.256  29.316 -0.2308 -0.1048 -0.1319
14618W        W57634  31.773   3.191  25.104 -0.0270  0.0737  0.1338
14619W        W57635  19.988  29.371  28.937  0.3125 -0.0209  0.1118
14620W        W57636  31.019  31.090  17.288  0.2121 -0.1469 -0.2548
14621W        W57637  13.705   2.200  28.130 -0.0811  0.4298  0.0302
14622W        W57638  13.851   5.641  16.078  0.1665  0.1182 -0.0209
14623W        W57639  26.936  33.190  23.132  0.1791  0.0530  0.0638
14624W        W57640  32.764  22.310  21.560  0.4128 -0.3484 -0.1532
14625W        W57641  17.440  17.478  15.614 -0.0755  0.0124 -0.1183
14626W        W57642   1.151  24.886   0.098 -0.0479 -0.0816 -0.1554
14627W        W57643  16.548  11.816  26.862 -0.1343  0.0564  0.0571
14628W        W57644  33.976  31.234  17.624 -0.0615  0.0521 -0.1376
14629W        W57645   1.126   9.216  17.108 -0.1436 -0.2612 -0.2571
14630W        W57646  26.364  30.836  18.123  0.0220 -0.1414 -0.0137
14631W        W57647  27.387   5.681   5.854 -0.1271 -0.0868 -0.1478
14632W        W57648  22.566  26.131  21.814  0.2319 -0.1819  0.2338
14633W        W57649  27.247  29.078  22.241 -0.0822  0.1827 -0.3358
14634W        W57650  20.115   8.268  14.643  0.1253  0.3379 -0.1462
14635W        W57651  33.062  13.177  20.251 -0.0941  0.0803  0.4255
14636W        W57652  25.416   6.871  22.428 -0.1115 -0.0165  0.0906
14637W        W57653  14.680   8.100  20.700  0.2594 -0.2227  0.0851
14638W        W57654  13.896  34.715  20.164  0.2686  0.2878  0.0775
14639W        W57655  30.652  26.379  16.182  0.1038  0.0852  0.0006
14640W        W57656  18.733  29.122  27.038  0.0634  0.0194 -0.2058
14641W        W57657   1.181  32.807  25.084 -0.3155  0.2078 -0.0331
14642W        W57658   6.943   0.973  26.999 -0.0333  0.5269 -0.0877
14643W        W57659   5.146   9.665  21.243 -0.0361 -0.1932 -0.5415
14644W        W57660   1.504  32.361  24.770  0.1774 -0.0191  0.0333
14645W        W57661  21.487   8.166  26.726 -0.0970 -0.0510 -0.0247
14646W        W57662   5.708  13.552  23.833  0.0778 -0.0395 -0.1498
14647W        W57663  16.383   1.744  27.155  0.2933 -0.0668  0.3179
14648W        W57664  26.188   6.697  17.640  0.0149 -0.1134 -0.0995
14649W        W57665  18.597   2.914   9.780 -0.0242  0.0099  0.2474
14650W        W57666   0.978   3.721  18.867  0.1619 -0.2466 -0.1590
14651W        W57667  16.812  19.219  20.330 -0.1768  0.0458  0.1120
14652W        W57668  17.847   5.171  19.391 -0.0788 -0.2556  0.0339
14653W        W57669  33.591  28.919  14.794 -0.0960 -0.0104  0.2937
14654W        W57670   0.981  30.864  22.493  0.1484  0.2627 -0.1398
14655W        W57671  24.338   5.829  18.634  0.1488  0.1018 -0.1611
14656W        W57672  25.235  23.649   1.610  0.0837 -0.0276 -0.0457
14657W        W57673   1.431  34.521  16.845 -0.1272  0.0909  0.0086
14658W        W57674  21.347   0.285  15.249  0.0460 -0.1383 -0.0076
14659W        W57675  23.648  10.529  19.747 -0.1329  0.0359  0.1324
14660W        W57676  29.561   2.092  20.663  0.0707 -0.1612  0.2058
14661W        W57677  33.989  11.303  14.912 -0.0533 -0.0619  0.1169
14662W        W57678  21.273  29.348  15.467  0.0059 -0.0634 -0.2681
14663W        W57679  25.079   3.886  18.173  0.2038 -0.4363 -0.0938
14664W        W57680  30.655  14.154  18.084 -0.3082  0.0134 -0.3058
14665W        W57681  28.524  32.307  15.516 -0.0628  0.0798 -0.0737
14666W        W57682  30.727  34.475  23.283 -0.2720  0.2048 -0.1536
14667W        W57683   6.888   5.109  19.019 -0.2011 -0.0759  0.3054
14668W        W57684  26.588  30.930  20.181 -0.1110 -0.0879 -0.0370
14669W        W57685   4.865  32.686  19.476  0.0614 -0.2669  0.1522
14670W        W57686   7.805  19.978  14.572  0.0067  0.2478  0.1492
14671W        W57687  27.160   5.098  27.493 -0.0195  0.1610 -0.0914
14672W        W57688   6.043   9.716  15.802 -0.1168  0.2004  0.1619
14673W        W57689  10.286   5.521  22.253 -0.4314 -0.2173  0.0280
14674W        W57690  32.750  18.009  20.930  0.4357 -0.1171 -0.0282
14675W        W57691  24.269  11.862  14.491 -0.1029  0.5424  0.2458
14676W        W57692  14.697  29.073  28.665 -0.1389 -0.1251  0.2417
14677W        W57693  18.541   6.555  21.046 -0.1005 -0.0870 -0.3948
14678W        W57694  20.037   5.770   0.067 -0.0732 -0.0634 -0.0536
14679W        W57695  16.014  26.120  20.600  0.2023  0.1496  0.0317
14680W        W57696  21.841  31.543   4.734 -0.0088 -0.1159 -0.1461
14681W        W57697  22.830  12.668  20.393  0.1008  0.0679 -0.3233
14682W        W57698  29.998   3.639  20.054 -0.0549  0.1807  0.1213
14683W        W57699  30.827  14.581  21.352 -0.4939  0.1167  0.1641
14684W        W57700   1.540  25.666  23.885  0.0516  0.1872 -0.3179
14685W        W57701  19.956   1.337   1.926  0.0664 -0.0216  0.1170
14686W        W57702   0.192  30.980  21.314 -0.0416  0.0436 -0.2898
14687W        W57703  28.500  31.736  24.464  0.1438 -0.0839  0.0227
14688W        W57704  31.641  34.091  19.393  0.0492  0.0725  0.1028
14689W        W57705  34.438  28.114   6.193 -0.1253 -0.1086 -0.1594
14690W        W57706   9.502   9.980  18.959  0.0757  0.0381 -0.0614
14691W        W57707  24.407  33.996  21.439 -0.2787 -0.1604  0.0228
14692W        W57708  30.019  11.098   6.136 -0.2855  0.0290  0.2614
14693W        W57709  29.142  27.313  22.470 -0.1622  0.1499 -0.1776
14694W        W57710  26.421  26.000   0.492 -0.0004  0.4338  0.1635
14695W        W57711  24.103   5.709  18.235 -0.0371  0.0152 -0.1999
14696W        W57712   4.163  34.234  26.877 -0.2078 -0.1949 -0.0617
14697W        W57713  34.321  19.190  16.472  0.1778 -0.0066 -0.2128
14698W        W57714  31.323   7.208  21.966  0.3480  0.1356 -0.2002
14699W        W57715   6.056  32.644  26.025  0.2255  0.2050 -0.0826
14700W        W57716  16.026   1.586  21.846 -0.0073  0.1058  0.1789
14701W        W57717  28.525   0.040   7.686 -0.0858  0.0758 -0.0160
14702W        W57718  25.188  32.367  19.367 -0.0731 -0.0204  0.0649
14703W        W57719  30.354  29.305   5.398  0.0526 -0.1607  0.3712
14704W        W57720  32.592  12.501  18.150 -0.3885 -0.1233 -0.1689
14705W        W57721  28.404  30.426  27.477 -0.3179  0.0963 -0.0523
14706W        W57722   0.781   9.852  25.778 -0.0076 -0.0039 -0.1266
14707W        W57723  27.833  20.266  26.031  0.0026 -0.3804 -0.1295
14708W        W57724  34.703  33.185  24.543  0.3244 -0.0445 -0.3613
14709W        W57725  17.341  17.522  23.976  0.0033 -0.0416  0.1821
14710W        W57726  19.942  33.832  22.981 -0.1083  0.2680 -0.1475
14711W        W57727  12.698   2.162  19.666  0.1275 -0.2199 -0.1048
14712W        W57728  13.842  13.300  22.347  0.0694  0.1705  0.0568
14713W        W57729   4.422   0.977  17.535  0.1266  0.1051 -0.0248
14714W        W57730  25.922  33.821  24.710  0.0733  0.1869  0.3405
14715W        W57731   2.528  14.203  21.807  0.1709  0.0258  0.1822
14716W        W57732  30.699  32.811  22.225  0.0427  0.1356  0.0951
14717W        W57733  34.515  24.243  14.600 -0.1193  0.0791  0.0502
14718W        W57734   6.082   6.572  26.065  0.1066 -0.0055 -0.2472
14719W        W57735  18.592  28.354  16.192 -0.1746  0.1361 -0.0457
14720W        W57736  30.216  23.213  17.064  0.0318 -0.0671 -0.4327
14721W        W57737  28.745   2.200  21.908 -0.2201 -0.3510  0.0568
14722W        W57738  28.612   1.486  17.329  0.0171  0.1885 -0.0393
14723W        W57739  13.977  26.432   7.254 -0.1334 -0.1474 -0.2494
14724W        W57740  30.680   1.974  18.035 -0.0792  0.0851  0.2882
14725W        W57741  24.825   9.213  17.177  0.3356  0.1248  0.0596
14726W        W57742  30.434  25.613  18.747  0.3877 -0.1761  0.0748
14727W        W57743  31.414  29.477  24.930  0.3992  0.3169  0.0905
14728W        W57744  20.221   2.424  28.138  0.0731  0.4216  0.0984
14729W        W57745  18.374   4.968  13.778 -0.1200  0.1086 -0.3222
14730W        W57746  14.509  29.514  25.219 -0.0099 -0.1216 -0.2565
14731W        W57747  28.186   2.262  15.451 -0.5333  0.1596  0.1785
14732W        W57748  23.252  33.416  18.190 -0.0908  0.0784 -0.0743
14733W        W57749   0.028   1.047  25.176 -0.3169  0.2264  0.2535
14734W        W57750  32.721   6.234  19.133 -0.0261 -0.0395  0.2621
14735W        W57751  23.407   7.489  17.759 -0.1527 -0.0938  0.0039
14736W        W57752   9.170  14.540  25.603  0.0989  0.0658  0.0228
14737W        W57753  28.100   5.223  24.137 -0.2828  0.0760  0.1147
14738W        W57754   3.532   4.088  23.960  0.1534  0.6697 -0.1392
14739W        W57755  21.331   8.809  24.451 -0.0435 -0.0506  0.2757
14740W        W57756  23.811   7.044  21.359  0.1043 -0.3390 -0.0045
14741W        W57757   0.659  13.321  25.766 -0.2870 -0.1762  0.2135
14742W        W57758  28.401   0.833  20.181 -0.0543  0.0940 -0.1517
14743W        W57759  12.053  25.870  26.601  0.1811 -0.0225  0.1577
14744W        W57760  30.588  34.235  18.408 -0.0376  0.0776  0.1626
14745W        W57761  12.477  20.064  28.285 -0.0485 -0.4887 -0.0927
14746W        W57762  20.515  26.889  22.984 -0.0604 -0.2345  0.1017
14747W        W57763  30.299  11.577  16.441 -0.1010  0.2645 -0.0749
14748W        W57764  28.877   9.971  23.651  0.3516  0.0412  0.0184
14749W        W57765   9.731  28.602   4.626 -0.0001  0.3530  0.1413
14750W        W57766  34.397  22.884  20.277 -0.0960  0.0420 -0.0328
14751W        W57767  29.568  33.868   7.474  0.0244 -0.1140 -0.0480
14752W        W57768  29.010   8.294  16.084 -0.0537  0.0931  0.0192
14753W        W57769   3.169   2.513  17.804 -0.5053 -0.1367 -0.0617
14754W        W57770  34.302  32.189  17.843  0.0729 -0.0076 -0.4150
14755W        W57771  17.636   4.939  16.312  0.3582  0.0640 -0.0290
14756W        W57772  24.507  14.890  13.587  0.0441  0.2563 -0.0907
14757W        W57773  21.309   8.316   5.907 -0.2151 -0.0228 -0.4202
14758W        W57774  22.954  20.590  15.357  0.0291 -0.0336  0.2004
14759W        W57775  10.752  24.116  22.759 -0.0097  0.0172 -0.0440
14760W        W57776  32.087  32.627  21.567 -0.0184 -0.0744  0.0276
14761W        W57777  23.960  18.841  20.751 -0.3439 -0.3158  0.2400
14762W        W57778  24.871   0.258   1.813 -0.2308 -0.2001 -0.1170
14763W        W57779  22.804  28.509  22.738 -0.1736  0.0575 -0.1284
14764W        W57780  32.693  26.094  18.769  0.0520 -0.1442 -0.0241
14765W        W57781  32.529  24.953  16.073 -0.1942  0.1000  0.1575
14766W        W57782   5.515  10.630  26.840 -0.1579 -0.2250 -0.0451
14767W        W57783  19.185  13.240  14.196 -0.2425  0.1360 -0.0217
14768W        W57784  11.269  13.350  28.919 -0.1494  0.0681  0.0740
14769W        W57785  21.501   7.984  14.556 -0.0956  0.2951  0.0268
14770W        W57786  33.778  16.741  15.933  0.0456 -0.1472 -0.0053
14771W        W57787  22.745   9.366  14.410 -0.0148  0.3088 -0.1292
14772W        W57788  33.942  34.775   6.652  0.0178 -0.0036  0.1774
14773W        W57789   0.577  12.795  17.330 -0.2250  0.2153  0.0737
14774W        W57790  24.466  11.596   2.067  0.0050 -0.0566 -0.0382
14775W        W57791  29.376  23.240   3.985 -0.2631 -0.1041  0.1427
14776W        W57792  10.458  31.678  21.203 -0.3221  0.4022  0.1357
14777W        W57793  32.579  34.605   2.716 -0.0505 -0.4024  0.2891
14778W        W57794   1.471   4.800  21.469 -0.0236 -0.2009  0.0679
14779W        W57795  25.433   9.118  20.264  0.2761 -0.0196  0.0379
14780W        W57796  27.474  19.416  17.989 -0.0242 -0.1109  0.0071
14781W        W57797  28.570   9.244  25.221 -0.0696  0.1900 -0.1996
14782W        W57798   5.001  30.617   4.038  0.2883  0.3236 -0.1969
14783W        W57799  32.143  29.584  20.371  0.0588 -0.0643 -0.1623
14784W        W57800  20.037   3.978  21.426 -0.0113  0.1304 -0.0628
14785W        W57801  32.143  30.094  24.678  0.1817 -0.0361  0.0646
14786W        W57802  15.022  27.419  25.505  0.1768 -0.0653  0.2170
14787W        W57803  19.832  22.571  14.610  0.2697  0.0114 -0.2483
14788W        W57804  32.997   3.020  24.716 -0.2606 -0.4442 -0.1165
14789W        W57805  30.585   0.078  27.527  0.2129  0.1818 -0.1319
14790W        W57806   1.859  31.354   1.934 -0.2113  0.0590  0.0479
14791W        W57807   7.042   6.491   9.502  0.0027 -0.2057  0.3364
14792W        W57808  33.100  28.205  16.904 -0.0703  0.1540 -0.0827
14793W        W57809   4.398  31.598  26.678 -0.0841  0.3997  0.0032
14794W        W57810   5.576  13.793  20.080  0.0326  0.0329 -0.0431
14795W        W57811  22.569  30.214  18.829 -0.2760  0.3370  0.2943
14796W        W57812  26.709  32.850  20.116 -0.0707 -0.1923 -0.0745
14797W        W57813  34.484  27.937  29.199 -0.0515  0.3202  0.0158
14798W        W57814  22.666   0.231  18.777 -0.2497  0.1372  0.2568
14799W        W57815  34.510   2.402  19.604  0.2447 -0.1533  0.1392
14800W        W57816   0.127  30.816  26.135 -0.0928  0.2330  0.2477
14801W        W57817  26.839  27.501  27.832 -0.0765 -0.0271  0.1124
14802W        W57818   0.392  17.608  14.664 -0.2679  0.0891 -0.0208
14803W        W57819   6.795   4.697   0.047  0.1989 -0.2514  0.2747
14804W        W57820  26.200  31.727  16.205  0.0945  0.0799  0.0140
14805W        W57821  16.289   6.237  16.950  0.1057  0.0542  0.2277
14806W        W57822   6.227  14.349  13.511  0.3166 -0.0098 -0.0077
14807W        W57823   1.667  11.526  19.494  0.0407  0.1340  0.2524
14808W        W57824  25.364   2.148   2.705 -0.0370 -0.3840  0.2105
14809W        W57825   5.365  29.614  14.237 -0.0687 -0.1961 -0.2237
14810W        W57826  30.871  34.322  25.973  0.0599  0.1750 -0.1359
14811W        W57827  23.689  15.681  25.100 -0.1517  0.2216  0.1376
14812W        W57828  26.061  24.756   6.294  0.1393  0.1731  0.0432
14813W        W57829   2.196  34.035  24.956 -0.2100  0.3995 -0.0362
14814W        W57830   1.003   9.257  19.486 -0.0258  0.0591 -0.1702
14815W        W57831  30.271  15.800   3.113  0.0055  0.1297 -0.0770
14816W        W57832  31.689  15.494  25.738 -0.0964 -0.0814 -0.0678
14817W        W57833  20.049  24.265  22.345 -0.3078  0.0686  0.1046
14818W        W57834  22.340  29.004  16.706 -0.0655  0.0717 -0.2257
14819W        W57835  34.472  33.821  22.343 -0.0054  0.6666 -0.0737
14820W        W57836   5.521  20.495   4.385  0.3795 -0.0611  0.1451
14821W        W57837  26.604  34.021  22.744  0.2097  0.0571  0.0430
14822W        W57838  21.884   3.384  20.439  0.5487 -0.1560 -0.0226
14823W        W57839  18.062   1.119   9.132 -0.1573 -0.1696 -0.1727
14824W        W57840  21.216   0.911   5.135  0.3668  0.1776  0.0227
14825W        W57841  16.658  10.227   6.105 -0.3727  0.1612 -0.1255
14826W        W57842  29.828  22.468  23.580  0.2119 -0.2184  0.0438
14827W        W57843  27.630  33.878  20.302  0.3109  0.1335 -0.1364
14828W        W57844  30.647  12.097  16.399  0.2352  0.0086 -0.0660
14829W        W57845  26.091  28.934  27.729 -0.0954 -0.2962  0.1613
14830W        W57846   4.942   1.594   3.773  0.0670 -0.0251  0.0987
14831W        W57847  28.483   5.189  24.465  0.1388 -0.1492 -0.1044
14832W        W57848  26.025   7.600  15.729  0.0446 -0.1318 -0.1373
14833W        W57849  20.816  32.154   0.561  0.0328  0.0156  0.0119
14834W        W57850  32.528   0.035  20.724 -0.3685  0.3350  0.0802
14835W        W57851   3.761  27.373  20.811  0.0232  0.1447  0.1475
14836W        W57852  28.293   3.515  15.847 -0.1512 -0.1675 -0.0242
14837W        W57853  17.169  26.321  21.645 -0.0388  0.0128  0.0903
14838W        W57854  34.492  31.217  23.105  0.1763 -0.0543  0.2608
14839W        W57855  19.144  20.155  21.631 -0.2370 -0.1565  0.1197
14840W        W57856  23.589   6.952   0.427  0.0536 -0.1067 -0.1267
14841W        W57857  19.999  30.860  20.227 -0.0237  0.0572 -0.0210
14842W        W57858  20.301  31.608  17.519  0.0452 -0.1031  0.1194
14843W        W57859  25.896  31.700  17.669  0.0601 -0.2160  0.1618
14844W        W57860  19.259   5.104   1.213  0.1136 -0.2594 -0.1251
14845W        W57861  12.764  10.775   8.317  0.6491  0.0666 -0.2230
14846W        W57862  26.602  13.674  17.092  0.0282  0.3043 -0.0384
14847W        W57863  10.887  33.663  22.195 -0.3296  0.0615  0.3694
14848W        W57864  20.081  30.751   2.409 -0.3422 -0.3874  0.0615
14849W        W57865  10.349   2.715  14.652 -0.0391  0.1626 -0.0223
14850W        W57866   9.616  25.486  28.530 -0.0829 -0.3966  0.1255
14851W        W57867  29.087  34.395  16.444 -0.0861  0.2696  0.2876
14852W        W57868  26.912   2.678  19.219  0.0418  0.1988  0.1680
14853W        W57869  27.601  14.628  20.680  0.0358 -0.1483  0.0906
14854W        W57870  33.257  29.697  28.087 -0.2779 -0.0265 -0.3452
14855W        W57871  12.344  19.783  13.141 -0.0188  0.1927 -0.2219
14856W        W57872  34.136  23.905  16.965 -0.2031 -0.0235 -0.1051
14857W        W57873   2.785  29.465  27.084 -0.0062 -0.3073 -0.0819
14858W        W57874   0.007   5.197  23.835  0.1800  0.0234 -0.3004
14859W        W57875   5.354   1.480  14.733 -0.0583  0.2916 -0.1331
14860W        W57876  29.679   3.035  24.836  0.0917  0.0011  0.2290
14861W        W57877   5.797  21.478  15.155 -0.1918 -0.0453  0.1567
14862W        W57878  30.762  25.244  20.780 -0.4885  0.2319 -0.0603
14863W        W57879  14.755  24.747  24.590 -0.2763 -0.0232  0.1956
14864W        W57880  21.748  34.023  16.155  0.0167  0.2454 -0.2867
14865W        W57881  20.371   4.528  21.731  0.3199 -0.4984 -0.0080
14866W        W57882  14.157  33.115  14.541 -0.0211  0.0783 -0.2989
14867W        W57883  29.202  30.969  22.568 -0.0599  0.2807  0.0483
14868W        W57884  31.509   8.089  21.117  0.1475  0.0667  0.2078
14869W        W57885   6.447   9.811  15.454 -0.2144 -0.3040  0.0932
14870W        W57886   7.591  29.580  23.211  0.1027  0.1081  0.3569
14871W        W57887  26.547  31.570  20.278  0.0185  0.0327 -0.3092
14872W        W57888  22.403  29.629  14.912 -0.0260  0.2020  0.1411
14873W        W57889  31.477  34.414  27.801  0.1883 -0.0194 -0.0253
14874W        W57890  25.062  32.295  17.181  0.1881 -0.0447  0.1337
14875W        W57891  24.323  29.917  23.873  0.0684  0.3112 -0.3008
14876W        W57892  23.766   9.429  27.817  0.1752 -0.1171 -0.3869
14877W        W57893  27.717  10.979  18.386  0.0511 -0.1451 -0.0000
14878W        W57894  30.019  16.558  19.162 -0.2133 -0.4161  0.2887
14879W        W57895  16.443   8.445   9.604 -0.2587 -0.1328 -0.2381
14880W        W57896  30.670  33.157  23.404  0.4193 -0.1606  0.1555
14881W        W57897  31.284   0.446  16.948  0.2229 -0.4066 -0.2794
14882W        W57898  15.785  34.290  27.413 -0.0348 -0.2609  0.0434
14883W        W57899  27.144  28.273  26.727 -0.1466  0.0798 -0.0249
14884W        W57900   5.865  30.440  16.225 -0.0874 -0.4485  0.0513
14885W        W57901   1.868  29.371  18.141  0.1220 -0.0794 -0.3171
14886W        W57902  23.559  34.343  24.215  0.1187 -0.1349  0.0477
14887W        W57903   5.196  27.225   9.571 -0.0391 -0.1372 -0.0112
14888W        W57904  24.209  30.744  23.606 -0.2248  0.1177 -0.0865
14889W        W57905  21.100   2.189  19.376 -0.4955 -0.1465  0.2314
14890W        W57906  20.630   0.250  20.436  0.0958 -0.0261  0.1785
14891W        W57907  17.822  31.982  18.871  0.0443 -0.0597  0.0398
14892W        W57908  26.270   6.570  16.385 -0.3105  0.2167 -0.1274
14893W        W57909  32.788  33.647  28.836  0.2299 -0.1205 -0.2572
14894W        W57910  22.006  20.277  19.596  0.4664  0.0798 -0.0408
14895W        W57911  18.362   2.434  13.950  0.3163 -0.3860  0.2754
14896W        W57912   1.503  28.188  15.155 -0.1034 -0.1908  0.4035
14897W        W57913  15.295  30.137  25.365 -0.1052  0.0035 -0.2282
14898W        W57914  22.989  11.074  21.850  0.0239  0.0836  0.1296
14899W        W57915  26.687   4.390  16.780  0.1814  0.2753  0.2102
14900W        W57916  23.940  30.283  17.845  0.3043  0.0462  0.0021
14901W        W57917  27.351  16.148  22.554  0.2547 -0.0759 -0.0115
14902W        W57918  16.400   0.029  20.922  0.1272 -0.3049 -0.2752
14903W        W57919  20.481   0.625  22.560  0.5412 -0.0562  0.0687
14904W        W57920  31.951  25.807  27.898  0.1138 -0.0361 -0.1488
14905W        W57921   4.401   6.586  24.288  0.0976  0.1156 -0.1538
14906W        W57922  29.535   0.823  20.879 -0.0398  0.1032 -0.1695
14907W        W57923  29.982  15.646   8.246  0.0746 -0.0007  0.3911
14908W        W57924  19.943  25.768  23.271 -0.3194  0.1445  0.1065
14909W        W57925   1.766   3.629  17.909 -0.0927  0.0970 -0.1072
14910W        W57926   3.621   6.118  25.401 -0.0119 -0.0507 -0.0324
14911W        W57927  27.465  12.289  16.682 -0.1888 -0.0677 -0.0748
14912W        W57928   4.727  30.818  28.518 -0.1666 -0.2021  0.2509
14913W        W57929  26.399  17.005   2.093  0.3965 -0.0618 -0.1046
14914W        W57930  22.133   5.746  24.689  0.2422  0.1342 -0.0691
14915W        W57931  15.226  34.726   1.499 -0.1618  0.2766 -0.2456
14916W        W57932  16.129   5.507  24.308 -0.1052  0.1617 -0.1207
14917W        W57933  34.581   8.414  14.509 -0.0967 -0.1677 -0.0752
14918W        W57934   8.066  29.539  17.250 -0.0526 -0.5621 -0.0332
14919W        W57935   8.209   9.152  17.373  0.0419 -0.1439 -0.0816
14920W        W57936  32.778   1.319  15.875 -0.0949 -0.1925 -0.2555
14921W        W57937  25.717   1.573  29.012 -0.0282  0.0280  0.2307
14922W        W57938  29.147  25.694  18.240  0.1302 -0.2599 -0.2981
14923W        W57939  30.082  22.351  18.226  0.0473 -0.2799 -0.0852
14924W        W57940  22.193  32.476  29.315 -0.1408  0.0587 -0.4572
14925W        W57941  33.019  19.488  21.103 -0.1281  0.2398 -0.0472
14926W        W57942  21.947   8.279   0.455  0.3118  0.1279 -0.0843
14927W        W57943  19.127   7.914  18.649 -0.3127 -0.3078 -0.0584
14928W        W57944  34.309  25.257   4.514  0.2557 -0.0771  0.1058
14929W        W57945  31.308   1.863  27.957 -0.0215 -0.0141  0.2746
14930W        W57946  24.588  19.640  23.566 -0.1389 -0.2009  0.1129
14931W        W57947  23.301   3.436   3.354 -0.0159 -0.1710  0.1586
14932W        W57948   9.733   0.268  29.001 -0.2154 -0.1797  0.3766
14933W        W57949  26.986  28.260   1.375  0.0404  0.3343  0.1727
14934W        W57950  16.009   5.287  21.182  0.1766  0.2796  0.0080
14935W        W57951  25.061  33.228  17.156 -0.4333  0.2887  0.2923
14936W        W57952  26.001  29.550  16.880  0.3810 -0.1731  0.0242
14937W        W57953  29.165   2.517   7.958  0.0883  0.1923 -0.0556
14938W        W57954   1.254   0.963  22.686  0.2904  0.0691  0.0064
14939W        W57955  14.455  11.511  25.555 -0.3023  0.2453 -0.2180
14940W        W57956   2.563  23.364   0.083  0.0484 -0.2257 -0.1586
14941W        W57957  32.631  14.999  20.773 -0.0962  0.2655 -0.0128
14942W        W57958  30.097   3.538  25.873 -0.3551 -0.2184  0.0449
14943W        W57959  12.356  30.853  15.174 -0.2236 -0.2632 -0.0054
14944W        W57960  33.198   1.629  17.262 -0.2000 -0.0347  0.1499
14945W        W57961   1.760  10.885   0.418 -0.3383  0.1286 -0.2541
14946W        W57962   9.755   5.219  17.386 -0.1701 -0.1550  0.4518
14947W        W57963   9.888   9.383  25.439  0.0885  0.0941  0.0159
14948W        W57964  26.029   1.455   4.378 -0.2282  0.3625 -0.1429
14949W        W57965  21.257  24.052  18.365 -0.2551  0.0725 -0.1177
14950W        W57966  10.171   2.278  25.692  0.0363 -0.0893 -0.0355
14951W        W57967  34.243  31.320  16.693 -0.3570 -0.0181 -0.0747
14952W        W57968  32.282   2.321  24.769  0.2871  0.1536 -0.0061
14953W        W57969   5.397  22.622  19.850  0.2538 -0.0250 -0.1788
14954W        W57970  23.945   9.459  18.124 -0.1161  0.0298 -0.2529
14955W        W57971  20.410  17.816  12.412  0.0325  0.1687 -0.2018
14956W        W57972  16.136  23.577  27.740  0.2167  0.0702  0.1438
14957W        W57973  14.983  26.088  17.689 -0.1236 -0.3830  0.0037
14958W        W57974  23.144   0.526  20.175  0.2302  0.2825  0.1223
14959W        W57975  27.092  29.180  21.333  0.1246 -0.0477 -0.1144
14960W        W57976  21.828  28.450  27.826  0.2515  0.0296 -0.1027
14961W        W57977  21.848   5.745  26.199 -0.2350 -0.2047  0.2064
14962W        W57978  28.700  22.286  18.294  0.2868 -0.1879 -0.0498
14963W        W57979  23.963  25.968  16.770  0.0902 -0.0339 -0.0267
14964W        W57980  30.918   9.407  15.614  0.0765  0.1085 -0.0742
14965W        W57981  17.938  30.526  22.575  0.1156 -0.3873 -0.0718
14966W        W57982  23.736  14.849  15.835 -0.0886 -0.1227 -0.3017
14967W        W57983   0.888  28.882  18.884  0.1952 -0.0881 -0.1616
14968W        W57984  25.605  10.727  28.214  0.2599 -0.0495  0.0105
14969W        W57985  12.949  29.331  18.923 -0.2540  0.2068  0.0298
14970W        W57986  28.790   2.408  26.338  0.2912 -0.0417 -0.0201
14971W        W57987  24.637   7.899  15.827  0.2145  0.0939 -0.0006
14972W        W57988  32.856   2.951  16.849  0.0791  0.0543  0.0561
14973W        W57989  10.468  25.759   8.224  0.1061 -0.0455  0.2264
14974W        W57990  32.468   3.349  19.148  0.1240  0.1767 -0.2419
14975W        W57991  28.081   5.803  18.822  0.4940 -0.0258 -0.3618
14976W        W57992  12.550   4.664  14.558  0.1991 -0.1077  0.0529
14977W        W57993  24.278  34.043  18.890  0.2913 -0.1115 -0.2735
14978W        W57994  21.836  14.990  18.422  0.4631 -0.1541  0.0831
14979W        W57995  31.236  28.490  22.919  0.0144  0.2272  0.1936
14980W        W57996  13.775   2.480  26.113  0.0322  0.1495 -0.0834
14981W        W57997  28.351  32.015  17.156 -0.1704 -0.0080 -0.0423
14982W        W57998  26.796   3.766   9.292  0.2940 -0.0989  0.2490
14983W        W57999   4.767   5.462  17.520  0.0299 -0.0724  0.0145
14984W        W58000   2.630  11.385  29.172 -0.1091 -0.0249  0.0798
14985W        W58001  11.439  20.693  21.347 -0.0988 -0.0058 -0.1966
14986W        W58002  16.635   7.684  14.047  0.0176 -0.0145  0.0396
14987W        W58003  31.533   6.001  25.590  0.1203  0.0542  0.0319
14988W        W58004   5.185  13.786  19.785 -0.2754  0.1465 -0.1208
14989W        W58005  10.820   4.638  19.427 -0.1018  0.3430  0.2144
14990W        W58006  17.822  30.218  16.561  0.0539  0.0990  0.0005
14991W        W58007  25.769  31.051  21.491 -0.2175  0.2183  0.1105
14992W        W58008   4.206   0.770   9.949 -0.0493  0.0188 -0.0715
14993W        W58009  28.708  26.884  16.748 -0.0194 -0.2165  0.1080
14994W        W58010  12.451   4.850   0.637 -0.3489 -0.1835 -0.3058
14995W        W58011  28.691   9.410  18.825  0.0970  0.4265  0.3312
14996W        W58012  17.239  28.439  24.759 -0.2902  0.1877 -0.1662
14997W        W58013  21.379  17.728  14.271  0.0553 -0.1023 -0.2240
14998W        W58014  28.451   4.963  16.170  0.3220 -0.2446  0.1936
14999W        W58015  26.236   1.290  22.567 -0.1026 -0.2753 -0.0576
15000W        W58016  28.350   9.872  27.988 -0.1268 -0.1465  0.3597
15001W        W58017  20.733   0.834  15.394  0.1033  0.2726  0.1898
15002W        W58018  18.385   7.873  24.279  0.1675 -0.0674 -0.2136
15003W        W58019  31.079  15.897  26.023 -0.1849  0.1307 -0.1672
15004W        W58020  26.853  25.347   5.044 -0.2226  0.0614  0.0461
15005W        W58021  22.497   1.876  18.830 -0.1198  0.1442 -0.1508
15006W        W58022  34.198   4.946  22.758 -0.1372  0.0295  0.1822
15007W        W58023  31.637   5.399  25.487  0.0683 -0.1434  0.0839
15008W        W58024   9.929   6.445  26.460 -0.0207  0.1292 -0.1007
15009W        W58025  17.326   7.878  20.511 -0.2883  0.4623  0.0813
15010W        W58026   5.762  22.300  19.681 -0.1522  0.0585 -0.0247
15011W        W58027  24.093  29.678  16.790 -0.4194 -0.1533  0.2337
15012W        W58028  17.747   0.188  16.183  0.1482 -0.1738  0.0921
15013W        W58029  29.611  24.051   2.545  0.0686 -0.3192  0.0809
15014W        W58030   8.211   0.022  19.810 -0.2624 -0.3296 -0.1261
15015W        W58031  17.503  29.750  22.372  0.0569 -0.1075 -0.2400
15016W        W58032  26.726  26.845   4.343  0.0486 -0.2760  0.0498
15017W        W58033   6.426   2.212  21.030 -0.2239 -0.1006 -0.1588
15018W        W58034  19.676  13.839   1.529 -0.0403 -0.1094 -0.1418
15019W        W58035  32.687  26.990  20.934 -0.0003  0.0454 -0.2757
15020W        W58036  28.614  24.947  20.445 -0.0722 -0.0293  0.0902
15021W        W58037  24.397  33.300   2.721 -0.2190  0.1153  0.0719
15022W        W58038   3.352  18.065  22.949  0.3371  0.2795 -0.1675
15023W        W58039  31.133  15.402  26.869 -0.1590  0.1859  0.1082
15024W        W58040  28.397  14.136  14.314  0.1894  0.0319 -0.0917
15025W        W58041  33.752  30.651  21.069 -0.0390 -0.2090 -0.1370
15026W        W58042  16.633   0.310  23.524 -0.0561 -0.0593  0.0801
15027W        W58043  14.820   7.260  17.338  0.2654 -0.2275 -0.1376
15028W        W58044   9.490  26.720  16.034 -0.1257 -0.1583  0.2850
15029W        W58045  24.263  30.941  18.394  0.2463  0.0259  0.2390
15030W        W58046  31.308  16.451  15.983 -0.1098 -0.1685 -0.0138
15031W        W58047  28.967  31.612  25.024  0.1824  0.0088  0.3454
15032W        W58048   1.856  31.972  28.111  0.0349  0.1017  0.0509
15033W        W58049   5.193   9.840  20.761  0.2676 -0.0938  0.2151
15034W        W58050   2.744   2.653  17.953 -0.0599  0.3399  0.0575
15035W        W58051  23.422  30.351   5.968 -0.0636  0.3510  0.0968
15036W        W58052  27.924  10.313  14.325  0.1541  0.0725  0.0006
15037W        W58053  13.237  29.588  16.555  0.0665 -0.2281  0.0420
15038W        W58054  15.888  31.986   1.339  0.0797 -0.3162 -0.1104
15039W        W58055  15.132   0.457  26.684  0.0258 -0.1032  0.2953
15040W        W58056  33.536   5.461  21.841  0.0396 -0.3261 -0.0262
15041W        W58057  33.508  28.266  18.559 -0.0855  0.1851  0.2393
15042W        W58058   2.340  28.849  17.319  0.1851  0.0695 -0.1329
15043W        W58059   2.212   5.525  18.264  0.0319  0.2244 -0.3049
15044W        W58060  17.635  26.230  28.391  0.0185 -0.2607 -0.3375
15045W        W58061  21.700   1.868  14.971  0.1776  0.0375  0.1355
15046W        W58062  24.404   2.893   2.605  0.2685  0.1414  0.0321
15047W        W58063  17.275   7.425   5.343 -0.2463  0.0335 -0.0836
15048W        W58064  33.092  29.444  25.012 -0.0477  0.4101 -0.2467
15049W        W58065  31.437   0.949  26.341 -0.1210  0.0588  0.1915
15050W        W58066  20.083   4.607  17.083  0.1373  0.0775  0.0454
15051W        W58067   1.061  25.075  26.742  0.1433 -0.1978 -0.0569
15052W        W58068  29.802  17.033   2.902  0.1455 -0.1649  0.1434
15053W        W58069  31.254  28.579  28.539 -0.0488 -0.0802  0.1067
15054W        W58070   3.826   9.782  28.010 -0.1623 -0.0603 -0.0730
15055W        W58071  31.107   1.859  18.449  0.0443 -0.0263 -0.0608
15056W        W58072  34.572  12.787  24.173 -0.1346  0.2140 -0.1131
15057W        W58073  31.232  26.018   7.021 -0.1846 -0.0296  0.2107
15058W        W58074  23.945   5.455  19.001 -0.2147  0.1931 -0.0313
15059W        W58075  27.321  16.552  21.227  0.1954 -0.1688  0.2544
15060W        W58076   0.930   3.103  22.782 -0.3143 -0.0565  0.0089
15061W        W58077  23.516   5.165  19.338 -0.1773 -0.0890  0.1951
15062W        W58078   4.634  29.820  20.159 -0.3038  0.3744  0.0449
15063W        W58079  19.965  24.148  23.363 -0.1215 -0.0333  0.1257
15064W        W58080  18.911  31.505  10.459  0.1630 -0.1648  0.0806
15065W        W58081  33.036  17.281   1.524 -0.0680 -0.0730 -0.0463
15066W        W58082  17.065  18.475  15.387  0.1475  0.0260  0.0715
15067W        W58083   2.088  25.749  23.963  0.1853  0.0183  0.1404
15068W        W58084   9.541  27.561  20.825 -0.3151 -0.2324 -0.0114
15069W        W58085  30.726  19.564  20.082 -0.0713  0.0414 -0.0017
15070W        W58086  29.263  30.238  18.205 -0.4259  0.3132 -0.0227
15071W        W58087  33.174   2.270  22.395  0.2968 -0.2008  0.1102
15072W        W58088  19.075  34.022  22.552 -0.1326  0.4038  0.0716
15073W        W58089   3.931  33.452   6.536  0.0253 -0.1807  0.0564
15074W        W58090   0.667   4.808  21.134  0.0919  0.3913  0.0580
15075W        W58091  12.076   3.985  29.194  0.0419 -0.2360 -0.0445
15076W        W58092   1.453  26.549  17.010 -0.1425  0.2466 -0.0344
15077W        W58093   3.987  25.288  22.200 -0.1438 -0.2651 -0.1939
15078W        W58094  22.904  13.407  16.574 -0.2628  0.4764  0.1264
15079W        W58095  19.019  28.298  16.970 -0.0256 -0.1270  0.0773
15080W        W58096   5.135  14.887   0.807  0.2218 -0.0108  0.0020
15081W        W58097  22.700   5.331  16.360  0.1105  0.1151  0.1754
15082W        W58098  32.366   1.833  21.850  0.0861 -0.2227 -0.4228
15083W        W58099   5.522  32.291  20.520  0.2114 -0.0159 -0.0537
15084W        W58100  22.505   5.655  21.670 -0.2225 -0.0290 -0.2699
15085W        W58101  34.434  29.642  28.891 -0.0051  0.2459 -0.1625
15086W        W58102   6.416  28.236  23.846  0.1078 -0.0648  0.1883
15087W        W58103  22.681   2.560   3.085  0.0048  0.3040 -0.0413
15088W        W58104  15.436  34.129  18.989 -0.3171  0.2662 -0.0705
15089W        W58105  12.426   5.167  25.073 -0.2917  0.3073  0.1656
15090W        W58106  14.415   9.853   3.211 -0.2610  0.2184 -0.0737
15091W        W58107   5.110  21.394   7.276 -0.0556 -0.0299  0.2880
15092W        W58108  17.153  12.327  24.785 -0.0585  0.0892 -0.1799
15093W        W58109  25.107  10.542  24.983 -0.0773  0.1153  0.1303
15094W        W58110   1.626  26.862  18.999 -0.1241  0.1543 -0.1726
15095W        W58111  21.938   0.556   1.972 -0.0203  0.3863  0.1832
15096W        W58112  17.165  31.506  19.399 -0.0861  0.0323 -0.0352
15097W        W58113  30.455   3.059  17.757  0.0662 -0.0419 -0.0201
15098W        W58114   3.720   1.072  27.277 -0.1468 -0.1682 -0.3880
15099W        W58115  19.182  11.436   0.142 -0.1608  0.2627 -0.0456
15100W        W58116  29.693  10.389  15.517  0.1605  0.3395  0.1259
15101W        W58117  11.396   4.619  22.586 -0.0140 -0.0143 -0.0168
15102W        W58118   5.812  17.952  26.676  0.1102  0.0469  0.2788
15103W        W58119  18.930  33.704  29.132  0.2439 -0.0590  0.0105
15104W        W58120  30.264  33.867   0.106  0.1412  0.0511 -0.2183
15105W        W58121   3.681   1.998  21.513  0.0574  0.1823  0.1415
15106W        W58122  32.818   1.910  19.343 -0.1368 -0.2619 -0.2767
15107W        W58123   1.697   3.101   2.479  0.2271  0.1738  0.0774
15108W        W58124  33.406   7.688  20.235  0.1083  0.1324 -0.2330
15109W        W58125   6.718  22.594  14.512 -0.3579 -0.0373 -0.0301
15110W        W58126  32.394  12.109  16.406 -0.0417 -0.3863  0.2102
15111W        W58127  21.550   7.925  18.892  0.0732  0.0773 -0.0051
15112W        W58128   8.822  14.632  27.317  0.0817  0.1576 -0.1799
15113W        W58129  34.065  30.090  27.027 -0.0340 -0.1522  0.0177
15114W        W58130  11.755   1.636  15.101 -0.1568 -0.0118 -0.2621
15115W        W58131  27.342   8.087  20.051 -0.2939 -0.0802  0.0119
15116W        W58132  32.693  11.021   0.108  0.1375  0.2124 -0.0398
15117W        W58133  14.608  32.840  23.667 -0.0889 -0.1144 -0.0975
15118W        W58134  31.672  29.590  18.947 -0.0148  0.1158 -0.1520
15119W        W58135  18.578   0.720  20.038  0.0980  0.0223 -0.4755
15120W        W58136  19.207  13.472  20.712  0.1304 -0.1874  0.0596
15121W        W58137  22.686  10.584  21.039 -0.2321 -0.0740  0.1259
15122W        W58138  18.504  31.751  23.096  0.0914  0.1097 -0.1447
15123W        W58139  27.549  21.181   9.116  0.0790 -0.0371  0.0042
15124W        W58140  23.739   2.892  18.891  0.1067  0.0462 -0.0461
15125W        W58141  24.514  32.467   0.310  0.0383 -0.0675 -0.2233
15126W        W58142   5.061  32.384  10.358  0.1969  0.0845 -0.3445
15127W        W58143  33.421   3.520  15.122 -0.3097 -0.1275 -0.2307
15128W        W58144  27.723  29.678   1.541 -0.1405 -0.4164 -0.1582
15129W        W58145  16.314   3.907   4.790  0.1345 -0.0283 -0.0775
15130W        W58146  30.119  15.161  21.381 -0.0361  0.0720  0.0008
15131W        W58147  31.828  21.477   0.517  0.2224  0.1249  0.2952
15132W        W58148  32.169   2.096   7.116  0.1894  0.2175  0.0977
15133W        W58149  25.258   8.551  23.244  0.1027 -0.1477 -0.3240
15134W        W58150   3.410  24.443   7.393  0.2949 -0.0017  0.2002
15135W        W58151  15.590  33.807  20.052 -0.2284 -0.1190 -0.3826
15136W        W58152  19.167  19.649   4.907 -0.6575 -0.0660  0.2464
15137W        W58153  30.922   3.898  19.519  0.0304  0.1990 -0.1448
15138W        W58154  29.450   3.162   2.118  0.1914 -0.0924 -0.1809
15139W        W58155  26.641   6.017   0.591 -0.1752  0.4483 -0.1917
15140W        W58156  24.322   2.318  27.487  0.0116  0.0551 -0.2070
15141W        W58157  11.297  12.809  25.435  0.0473 -0.0700  0.6104
15142W        W58158  29.882   5.317  17.265  0.2906 -0.1456 -0.0115
15143W        W58159   7.299   0.554  15.378 -0.1052  0.0967  0.0606
15144W        W58160  27.464   3.782   1.490 -0.2741  0.0697  0.2290
15145W        W58161   2.657  31.858   4.481  0.0007 -0.1940 -0.3216
15146W        W58162  29.791  33.674  22.586 -0.0552 -0.1478  0.0992
15147W        W58163  28.365  32.691   0.719  0.1417 -0.1464  0.0286
15148W        W58164  29.944  23.693  26.181 -0.2268 -0.0563  0.0598
15149W        W58165  27.463  13.797  22.358  0.2722 -0.1840 -0.1000
15150W        W58166  27.599  29.683  21.490  0.0497  0.0672  0.0722
15151W        W58167  25.754   2.030  15.675 -0.0242  0.5513 -0.0972
15152W        W58168  21.381  30.885  21.945 -0.0255  0.4130  0.0539
15153W        W58169  33.712   7.285  20.311 -0.1347  0.0104  0.2395
15154W        W58170  14.720  19.558  23.841  0.1539  0.1319 -0.1369
15155W        W58171  30.906  17.691  19.816 -0.1339 -0.1845 -0.0705
15156W        W58172  23.054  26.061   2.242  0.1604 -0.3619 -0.2476
15157W        W58173  28.419  32.074  25.597  0.0266  0.1229 -0.1326
15158W        W58174  17.414  11.388  14.568 -0.2610 -0.0088  0.1772
15159W        W58175  30.157   8.047   2.653  0.0401 -0.1393  0.2344
15160W        W58176  21.842  15.759  22.016 -0.3415 -0.0388  0.2884
15161W        W58177  33.303   5.517  16.976 -0.2716  0.0949 -0.0096
15162W        W58178  32.895  27.574   5.632  0.3112  0.4593 -0.4259
15163W        W58179  25.824  27.176  19.828 -0.1150 -0.1365 -0.2049
15164W        W58180  27.110   1.227  10.557  0.0709  0.2521 -0.0749
15165W        W58181  22.462   8.206  16.331 -0.0651  0.1263 -0.0398
15166W        W58182  34.505  20.851  28.148 -0.1463  0.1359  0.0092
15167W        W58183   5.670   6.650  18.163 -0.1180  0.2138 -0.4218
15168W        W58184  33.933  11.673  19.324 -0.4022 -0.0711 -0.3582
15169W        W58185  34.337   2.269  25.768  0.0507  0.3120 -0.1828
15170W        W58186   4.100  17.636   5.621 -0.1303 -0.1102 -0.0891
15171W        W58187  26.746  10.786   3.282 -0.2069  0.1356  0.0931
15172W        W58188   8.310   5.208  14.086 -0.4870 -0.3150  0.2869
15173W        W58189   5.038  27.930   7.913 -0.1998 -0.3610 -0.0691
15174W        W58190  22.414  23.445  24.678 -0.0407 -0.0856 -0.2111
15175W        W58191  17.101   0.482  22.822  0.1499 -0.2269 -0.1709
15176W        W58192  21.523  14.397  27.329  0.0084 -0.1152  0.0053
15177W        W58193  25.504   3.213  27.519  0.0613 -0.1573 -0.2253
15178W        W58194  25.241   2.671  17.051  0.1923 -0.2597 -0.0381
15179W        W58195  10.135  32.301  13.781 -0.0981  0.0402  0.0462
15180W        W58196  22.796   0.858  20.322 -0.2857 -0.0569 -0.3709
15181W        W58197  19.364  24.496   2.618 -0.0101 -0.1267  0.0128
15182W        W58198  10.109  12.933   4.899 -0.0327  0.2673  0.3020
15183W        W58199  28.778  33.319  27.972 -0.2422  0.1182  0.0051
15184W        W58200  24.901  31.614   1.107 -0.0064 -0.2036 -0.0187
15185W        W58201   4.400  15.705  19.814 -0.1351  0.1465 -0.0228
15186W        W58202  14.476   1.153  25.640  0.1913  0.2034  0.1299
15187W        W58203  34.432  14.552  21.958  0.1463  0.1756 -0.1788
15188W        W58204  21.709   2.780  22.515 -0.0568 -0.3324 -0.0592
15189W        W58205  33.246   9.798  25.148 -0.1172  0.2861 -0.2070
15190W        W58206  26.833   1.149   6.600  0.5009  0.1049 -0.2046
15191W        W58207  16.037   2.709  19.992 -0.1298 -0.1501  0.1797
15192W        W58208  19.855  11.923  24.636  0.0444 -0.5178  0.2110
15193W        W58209  23.216  32.001  27.891  0.0796  0.1309 -0.1072
15194W        W58210   5.374  34.631  29.206 -0.3971 -0.2513 -0.1491
15195W        W58211  29.738   5.739  19.834  0.1767  0.2244  0.3385
15196W        W58212  11.575  12.066  18.996  0.3066  0.1223 -0.1810
15197W        W58213  27.100  16.134  22.115 -0.0009  0.1538 -0.2571
15198W        W58214  34.550  31.651  25.400 -0.0001  0.0029  0.1569
15199W        W58215  22.798   7.397   7.055 -0.0868 -0.2109  0.2503
15200W        W58216  16.668  21.676  16.394  0.2055  0.1201  0.3686
15201W        W58217  22.019  29.089  20.566  0.1223  0.1285 -0.2921
15202W        W58218  25.513  26.540   1.182 -0.1533  0.3219  0.3000
15203W        W58219  28.456  29.976   1.655 -0.0276  0.1479  0.0466
15204W        W58220  21.277  28.756  23.590 -0.1816 -0.1156 -0.0790
15205W        W58221  17.534  34.607   1.863 -0.2959 -0.1091 -0.1613
15206W        W58222  20.065  26.308  15.983  0.3278 -0.2500  0.2055
15207W        W58223  22.498   4.767  20.771  0.0685  0.0448  0.0046
15208W        W58224  27.976   0.537   0.733 -0.2469  0.2002  0.1783
15209W        W58225   6.522   5.565  20.574 -0.0979 -0.1614 -0.0231
15210W        W58226   3.211   8.936   8.128  0.2014  0.2214 -0.0798
15211W        W58227  21.466  28.592  24.111  0.0731 -0.0686  0.1962
15212W        W58228  32.474  27.547   3.878  0.0666  0.3842  0.0968
15213W        W58229  32.320  33.443  26.237 -0.0412  0.1301  0.1744
15214W        W58230  30.757  32.309   5.420 -0.0101 -0.3415  0.0122
15215W        W58231   0.532  30.066  21.316  0.2594 -0.1827 -0.0430
15216W        W58232  29.224  31.607   2.710  0.0434 -0.0942  0.1677
15217W        W58233  21.384   2.473  26.266 -0.0764 -0.1199 -0.2804
15218W        W58234  29.732  12.399   1.092  0.0570 -0.0476  0.2944
15219W        W58235   9.146  22.262  26.485  0.6180 -0.0192 -0.2006
15220W        W58236  23.637   9.238  19.857 -0.1971  0.0684 -0.1300
15221W        W58237  33.801  32.506  18.251  0.0989 -0.0239 -0.3176
15222W        W58238   6.388   7.511  22.010 -0.0358 -0.3707  0.2167
15223W        W58239  19.450  27.599  14.757  0.0448  0.2597 -0.2113
15224W        W58240  10.200   3.819  21.803  0.0810 -0.1065 -0.0014
15225W        W58241  18.848  28.621  15.878 -0.4331 -0.1187 -0.3456
15226W        W58242  25.206  19.390  16.295 -0.2077  0.1421  0.1531
15227W        W58243  24.898   6.029  28.929 -0.0581 -0.2802  0.3652
15228W        W58244  25.364  30.688   4.806 -0.3936  0.2729 -0.2262
15229W        W58245  20.374  15.407   0.757 -0.2334 -0.1197  0.0424
15230W        W58246  25.867  19.289  23.163 -0.0512  0.0279 -0.0276
15231W        W58247  21.625  22.898  14.319 -0.1725  0.1507  0.0667
15232W        W58248  30.872  28.580  20.634 -0.2730 -0.0495  0.2154
15233W        W58249   1.106   8.371   6.817 -0.2104 -0.0550  0.3241
15234W        W58250  29.188  33.517   7.445  0.3701  0.0096  0.3547
15235W        W58251  16.688   2.972   2.911  0.1969 -0.1296 -0.1211
15236W        W58252  11.168   0.390  29.185  0.1687 -0.0313  0.1137
15237W        W58253  29.600  32.092  28.927 -0.1404  0.0932 -0.1436
15238W        W58254  19.399  32.730  21.891  0.1245  0.3198  0.3363
15239W        W58255  11.901  29.466  22.653 -0.0878 -0.2307 -0.1821
15240W        W58256   6.592  27.371  20.940  0.0068  0.2150  0.2122
15241W        W58257   0.208  24.665  17.034 -0.0871 -0.2338 -0.3497
15242W        W58258  31.366   6.005  19.992  0.1018 -0.2554 -0.1891
15243W        W58259  26.539  33.611  17.684 -0.3120 -0.2704 -0.3462
15244W        W58260  21.194   7.674  17.903  0.0334  0.3364  0.0830
15245W        W58261  20.127  32.139  23.476 -0.2102  0.1956 -0.2880
15246W        W58262  32.216   3.539  21.955  0.1387  0.0970 -0.3372
15247W        W58263  26.368   6.425  25.329 -0.2664  0.2582 -0.1136
15248W        W58264   1.028  32.390  20.008 -0.3375 -0.0029  0.3233
15249W        W58265   1.921  27.791  18.079  0.1406  0.0099 -0.1267
15250W        W58266  13.686  27.955  20.487  0.2793  0.4073 -0.3023
15251W        W58267  20.869  31.673  17.461  0.3582  0.0399  0.1601
15252W        W58268  26.510   6.212  10.600  0.0401  0.1030 -0.3303
15253W        W58269  14.826  33.047  18.656  0.0484 -0.0705 -0.2505
15254W        W58270  20.605   9.848  26.946  0.0804 -0.0522  0.2442
15255W        W58271  30.611   2.027   9.751  0.1458  0.0559 -0.2489
15256W        W58272  17.593  32.018  16.833 -0.1562 -0.0613 -0.0006
15257W        W58273  15.366   0.282  18.463  0.1067 -0.1089  0.1801
15258W        W58274  21.684   8.460  14.801  0.0856 -0.1622  0.1865
15259W        W58275  29.292   9.442  16.593  0.0710 -0.2964  0.0511
15260W        W58276   1.621  16.785  17.103  0.0463  0.3089  0.1460
15261W        W58277  14.314   6.237  26.880 -0.1244  0.1883 -0.3710
15262W        W58278  27.207   1.158  16.441 -0.3065  0.5715 -0.1978
15263W        W58279  12.328  26.450  16.033  0.1228  0.1191 -0.2290
15264W        W58280  23.222  24.567  15.925  0.0259  0.2601  0.0302
15265W        W58281  22.758  22.199   7.405  0.3097 -0.1584 -0.0113
15266W        W58282  22.090  31.781  25.143 -0.0046  0.0406 -0.4710
15267W        W58283  27.000   8.089  25.628 -0.2353 -0.0282  0.1093
15268W        W58284  28.646  26.139  24.087 -0.0983  0.0270  0.1940
15269W        W58285  21.544  30.973  23.297 -0.2765 -0.2653 -0.2687
15270W        W58286  16.961  32.847   2.368  0.1003  0.0763  0.0697
15271W        W58287  10.466  21.181  18.409 -0.1599  0.4376 -0.0320
15272W        W58288  34.513  34.669  22.445 -0.1726 -0.0199  0.0550
15273W        W58289  25.806   1.822  24.998 -0.2051  0.0970 -0.0145
15274W        W58290  27.456   5.282  18.359  0.1100 -0.1911 -0.2759
15275W        W58291  33.537   6.160  15.085 -0.2038  0.2891  0.2231
15276W        W58292   7.534   3.374  22.835 -0.2193  0.1200 -0.0501
15277W        W58293  19.723  33.604   2.418  0.2067  0.0560  0.1776
15278W        W58294  21.221   7.896  26.252  0.0817 -0.2489  0.2212
15279W        W58295  27.165   6.314   9.247  0.0791 -0.1536  0.1251
15280W        W58296  23.829  11.660   8.903  0.0057  0.0067 -0.3352
15281W        W58297  25.404  34.066  18.171 -0.2000  0.0503 -0.2974
15282W        W58298  23.112   8.036   0.530 -0.2659  0.2304 -0.0504
15283W        W58299   2.509  26.764  15.361 -0.0917  0.0118  0.1362
15284W        W58300  31.269  31.969   4.679 -0.0222 -0.3964 -0.0628
15285W        W58301  22.074  32.609  24.880  0.1520 -0.0411  0.1195
15286W        W58302   1.383  28.706  28.744 -0.2261  0.1035 -0.1657
15287W        W58303  10.422  33.395  28.144  0.1530 -0.1539  0.0384
15288W        W58304  31.749  18.249  15.882 -0.1232 -0.0480 -0.3117
15289W        W58305  23.242   1.314  15.488 -0.0208  0.1184  0.1390
15290W        W58306  25.013  32.085  26.186 -0.0710  0.0972  0.0869
15291W        W58307  32.225   1.568  19.816 -0.2213  0.0417  0.0137
15292W        W58308   2.780  16.586   2.390 -0.1577 -0.2845 -0.2469
15293W        W58309  30.465   7.788  18.559 -0.1487  0.1901  0.0895
15294W        W58310  16.361  23.859  22.182 -0.2120  0.1891  0.1532
15295W        W58311  23.274  26.304  22.334  0.0090 -0.0924  0.4266
15296W        W58312  14.305  29.922  16.856  0.0372 -0.1341  0.2913
15297W        W58313  30.967   5.893  22.710  0.0928 -0.1984 -0.0546
15298W        W58314  26.112   9.350  14.835  0.2035  0.1306  0.0419
15299W        W58315  29.833  17.659  25.615  0.5719 -0.0437 -0.1366
15300W        W58316  12.201   7.453   2.439 -0.1900  0.0267 -0.2305
15301W        W58317  25.866  18.048  28.249  0.0515  0.1268  0.3198
15302W        W58318  16.523  28.415  16.904  0.2087 -0.0157 -0.3864
15303W        W58319  22.401  15.110  26.109 -0.0120 -0.1760  0.1748
15304W        W58320  29.962   7.286   4.948 -0.0783  0.0543  0.0365
15305W        W58321  22.410  33.739  21.056  0.1726  0.1434 -0.2152
15306W        W58322  28.182  12.228  29.040 -0.0964 -0.1661  0.2196
15307W        W58323  24.576   1.362   2.712 -0.0742 -0.0244 -0.0582
15308W        W58324  20.587   2.354  25.199 -0.0944 -0.0650 -0.0271
15309W        W58325  29.433  32.510   5.474  0.0009 -0.0974  0.2336
15310W        W58326   0.846  31.150  15.040  0.2687 -0.2723  0.0405
15311W        W58327  34.550  27.724  15.749 -0.0996  0.0132  0.1316
15312W        W58328  32.082   2.836  24.406  0.0096  0.0572  0.0395
15313W        W58329  26.952  22.848  18.341 -0.5028  0.4400  0.0763
15314W        W58330  23.434  33.915   7.991  0.4344 -0.3061 -0.2582
15315W        W58331  32.773   6.913  22.711 -0.0253  0.0496  0.2662
15316W        W58332   4.477  30.621  20.012  0.5121  0.1814 -0.2221
15317W        W58333  26.370  19.285  19.679 -0.2153  0.1135  0.1971
15318W        W58334  30.108   1.573   0.905 -0.3427  0.1427 -0.0128
15319W        W58335  25.398  30.918  22.258 -0.1563  0.1559  0.0546
15320W        W58336  21.645  11.685   6.237  0.0365  0.1649 -0.0928
15321W        W58337   4.327  13.758  22.384 -0.0103  0.3360 -0.0116
15322W        W58338  19.236   9.169  27.637  0.2532 -0.0741 -0.1274
15323W        W58339  26.254   5.091   6.243 -0.0138 -0.1882 -0.0667
15324W        W58340  10.273  33.335  17.382  0.1189 -0.0086  0.1140
15325W        W58341  33.502  30.105   3.419  0.3423  0.0047  0.1037
15326W        W58342  30.073  32.615   0.840 -0.3396 -0.4127  0.0972
15327W        W58343   0.926  34.501  14.814  0.1976  0.1375  0.1710
15328W        W58344  26.516  10.769  15.945 -0.1186  0.3199  0.0739
15329W        W58345  30.313  25.368  20.723  0.4216 -0.3552  0.1208
15330W        W58346   5.703   5.487  19.946 -0.0042 -0.0856 -0.3088
15331W        W58347  24.580  30.926   6.753  0.2165 -0.1030 -0.2460
15332W        W58348  17.389   2.182  24.699 -0.0939 -0.2716  0.0625
15333W        W58349  19.242   7.928  28.117 -0.2808 -0.1927 -0.1588
15334W        W58350  14.734   1.677  16.155 -0.1728  0.3835 -0.0942
15335W        W58351  19.031   1.971  20.645 -0.3000  0.2321  0.0136
15336W        W58352  32.374  31.192  21.040 -0.1722  0.0877 -0.1405
15337W        W58353   1.795   2.715  14.908 -0.1260 -0.0141  0.1230
15338W        W58354  29.364   2.157  15.455 -0.4002  0.0747  0.1412
15339W        W58355  25.037   4.382  24.396 -0.2150  0.0388 -0.0617
15340W        W58356  34.284   3.161  15.554  0.2730  0.0245 -0.1346
15341W        W58357  19.994  11.865   4.142  0.2558 -0.0881 -0.1419
15342W        W58358  28.657  12.941  23.923 -0.0406  0.1984  0.2119
15343W        W58359   2.237   7.598  16.696 -0.1924 -0.0976  0.0304
15344W        W58360   1.006   2.669  21.269 -0.1692  0.1617 -0.1239
15345W        W58361  17.956  32.994   8.612 -0.1526  0.1496 -0.2709
15346W        W58362  27.344  33.982   7.299  0.2996 -0.0247  0.0912
15347W        W58363   2.640  34.290  14.606 -0.1245  0.2077 -0.0880
15348W        W58364  15.165  30.333  23.351 -0.1627 -0.0820 -0.2924
15349W        W58365  22.742  27.856  28.233 -0.2974  0.0243 -0.1444
15350W        W58366  32.752  27.961  15.466 -0.2520 -0.0438  0.2344
15351W        W58367   9.054   2.262   3.719 -0.3905 -0.1582  0.2021
15352W        W58368  29.647   2.974  20.767 -0.0461 -0.0098 -0.0746
15353W        W58369  16.154  31.661   1.730 -0.1327 -0.0228 -0.1886
15354W        W58370  22.972  33.022  18.024 -0.1339 -0.0371  0.0074
15355W        W58371  19.946  14.706   3.709  0.2581  0.0214 -0.3123
15356W        W58372  32.428  14.397  17.518 -0.0882  0.0761  0.2475
15357W        W58373  25.379  23.798  18.305 -0.3729 -0.1137  0.2438
15358W        W58374  29.391  18.246  17.800 -0.0904 -0.0613  0.1408
15359W        W58375  23.696  31.002  24.897 -0.2209  0.1593  0.3039
15360W        W58376  24.169   0.325  18.597 -0.3240 -0.0233  0.0133
15361W        W58377  14.247   3.049  14.546  0.0755  0.3563 -0.1997
15362W        W58378  32.274   1.965  14.203 -0.0545 -0.0348 -0.1655
15363W        W58379   4.220   5.750  29.231 -0.2880  0.3338  0.1097
15364W        W58380   3.996  30.032  27.185 -0.1073  0.3201 -0.2649
15365W        W58381  13.645  27.412  20.500 -0.2407 -0.1068 -0.2091
15366W        W58382   5.899   8.721  14.171  0.2563 -0.1214  0.1313
15367W        W58383  23.887  32.360  25.099 -0.2119 -0.2678  0.1480
15368W        W58384  18.273  11.989  11.931 -0.0742 -0.1458 -0.1451
15369W        W58385  20.344   0.287   1.966  0.1191  0.2415 -0.2162
15370W        W58386  15.253  12.217  26.838 -0.2282 -0.1931  0.1492
15371W        W58387  24.877   8.703   9.692 -0.0521 -0.0170 -0.1165
15372W        W58388  17.965  31.017  17.703  0.1363 -0.0477 -0.2801
15373W        W58389  25.910  15.429  23.906 -0.1523 -0.0613 -0.0893
15374W        W58390  19.171  32.957  22.761  0.0838 -0.2329 -0.3228
15375W        W58391  16.626  31.716  27.245  0.0234  0.2402  0.1449
15376W        W58392  26.013   2.002   8.127  0.0921 -0.1111 -0.0453
15377W        W58393  30.715   2.298  19.467  0.1521 -0.2412  0.2685
15378W        W58394   6.458  34.639  14.975 -0.1059 -0.0181 -0.1547
15379W        W58395  31.796  16.172  18.025 -0.0457  0.0998  0.1536
15380W        W58396  27.219  30.983   2.650  0.0630  0.2983  0.1911
15381W        W58397  34.190  33.064  15.153 -0.0342 -0.0940 -0.4494
15382W        W58398  17.205  29.545  10.151 -0.1586 -0.1686  0.0840
15383W        W58399  26.425   2.613   7.218  0.3346  0.1201  0.2007
15384W        W58400  21.383  12.712  15.883  0.0622 -0.0195  0.0426
15385W        W58401  20.510   2.545  23.427 -0.2338 -0.4428  0.2420
15386W        W58402  13.042  32.249  28.683  0.3329 -0.3237  0.2952
15387W        W58403  30.269  26.365   0.428  0.2976  0.2307 -0.2345
15388W        W58404  13.125   3.877   6.089 -0.3392 -0.1011 -0.0461
15389W        W58405   2.352   3.772  25.965 -0.2840  0.1905  0.1832
15390W        W58406  30.364   6.084  26.091 -0.2664 -0.2620  0.1813
15391W        W58407  25.934  26.731  16.360  0.0797 -0.1050 -0.3579
15392W        W58408  21.489  31.325  28.363  0.0182 -0.1256 -0.1915
15393W        W58409  22.463  33.090   1.946  0.0414 -0.4155 -0.2270
15394W        W58410  26.342  31.220   3.927  0.3884  0.3108  0.0117
15395W        W58411  28.478   3.186  28.186  0.2618 -0.0804 -0.2251
15396W        W58412   0.652   8.958  25.114  0.1745 -0.2757  0.2987
15397W        W58413  31.206   3.637  18.120 -0.3622  0.2253  0.4041
15398W        W58414  33.010  34.236  19.022 -0.1567  0.2446 -0.0908
15399W        W58415  20.471  14.442  21.729  0.1134  0.0632 -0.0464
15400W        W58416  32.821  21.595  19.328  0.2018  0.0756  0.2940
15401W        W58417  34.174   4.560  17.384  0.0841  0.0965 -0.0852
15402W        W58418  29.539  31.754  29.284 -0.1789 -0.2447 -0.1670
15403W        W58419  25.308  18.094  17.443  0.0108 -0.0673  0.0919
15404W        W58420  34.352   5.759  27.270 -0.3193  0.3803  0.0366
15405W        W58421  13.718  22.676  22.948 -0.0341 -0.0209 -0.1231
15406W        W58422  28.311  28.757  29.035 -0.0794  0.0532 -0.1297
15407W        W58423   7.683  28.452   5.343  0.0969  0.1223  0.5021
15408W        W58424  25.584   5.691   1.025 -0.0648  0.0329  0.2601
15409W        W58425   0.807   9.389  18.138 -0.0216 -0.2360  0.0171
15410W        W58426  31.498   0.487  26.451  0.0558  0.0056 -0.1705
15411W        W58427  27.521   6.012  22.102 -0.2763  0.1629  0.3738
15412W        W58428  34.672   8.056  23.130  0.3434 -0.0444  0.0176
15413W        W58429  33.938  25.388   0.144  0.1132  0.0920  0.2144
15414W        W58430  27.913  27.031   3.094  0.1118  0.1006  0.1785
15415W        W58431  25.785  33.524  25.709  0.3466 -0.0855  0.2263
15416W        W58432  19.999   3.208  17.768 -0.1962 -0.2393  0.0534
15417W        W58433  23.428  12.273  15.797  0.2190 -0.4967  0.0417
15418W        W58434  18.678  27.461   6.605  0.0662 -0.0777  0.1047
15419W        W58435  28.449  26.224  20.025 -0.1465 -0.0716 -0.1907
15420W        W58436  33.281   6.738   1.779  0.0155  0.1450  0.3683
15421W        W58437  21.775   0.043  10.772  0.1671  0.0555  0.2430
15422W        W58438  25.328  10.933  20.452  0.1739 -0.0523  0.2545
15423W        W58439  13.470  17.418   3.301 -0.1055 -0.0821  0.2387
15424W        W58440   0.027   5.143  21.807  0.0317  0.1202  0.1608
15425W        W58441  34.182   4.267  17.761 -0.1267 -0.2479  0.0856
15426W        W58442  32.680  22.352   6.000 -0.3917  0.2272  0.0653
15427W        W58443  29.044  25.675  16.367  0.0592 -0.0798  0.4603
15428W        W58444  24.813  24.044  20.396 -0.0633 -0.1389  0.1984
15429W        W58445  15.336   0.261  10.206  0.1942  0.0608 -0.1938
15430W        W58446   5.449  11.047  29.222  0.0475 -0.0531  0.3630
15431W        W58447  27.994  34.017  26.283  0.0010 -0.3895 -0.0097
15432W        W58448   8.288  20.841  23.455 -0.1872  0.2549 -0.2646
15433W        W58449  29.903  30.868  22.990  0.1210 -0.3804 -0.1788
15434W        W58450   4.782  13.233  26.782 -0.4967  0.2952  0.0386
15435W        W58451  30.292   2.121  15.542  0.0577 -0.0888  0.0295
15436W        W58452  23.213   7.752  27.536 -0.2455  0.2162  0.0644
15437W        W58453  31.319   2.763  19.613 -0.1911  0.1888  0.0145
15438W        W58454  28.513  23.015  19.174  0.0559  0.3532  0.0957
15439W        W58455  25.791  31.033  19.861 -0.3063 -0.1789 -0.1109
15440W        W58456  22.721  34.077  22.425  0.0620  0.3136  0.0374
15441W        W58457  27.157   1.684  21.172 -0.2096 -0.2189  0.0157
15442W        W58458  15.752  22.532  19.370 -0.0381  0.1505  0.2288
15443W        W58459  27.709  15.885   8.767 -0.1742  0.3721  0.0026
15444W        W58460  32.651  34.749  19.055 -0.0154 -0.0499  0.0241
15445W        W58461   4.569   1.942  20.031  0.0601 -0.4211  0.1996
15446W        W58462  27.981  11.917  13.800 -0.1620 -0.0915 -0.1184
15447W        W58463  30.136  14.361  20.789  0.3508 -0.2121 -0.0294
15448W        W58464   4.139   0.387  15.603 -0.0803 -0.1104  0.0381
15449W        W58465  22.856  30.057   5.118 -0.2057 -0.1968  0.1450
15450W        W58466  22.071   8.462  28.463 -0.1366  0.1182  0.0754
15451W        W58467  17.635  33.984  26.464  0.1188  0.2438  0.2478
15452W        W58468  23.578  15.171  20.405 -0.1988 -0.3009  0.0484
15453W        W58469   0.931   6.632  28.187  0.0774  0.1330  0.0407
15454W        W58470  28.044  31.879  20.413  0.0097  0.0614  0.2370
15455W        W58471  14.266  28.837  23.628  0.1536  0.1703  0.2008
15456W        W58472   9.124  33.569  22.846 -0.1144  0.0554  0.1002
15457W        W58473  22.126  30.831  19.311 -0.3240 -0.0745 -0.0582
15458W        W58474  34.676  12.210   0.639  0.0752 -0.0867  0.1613
15459W        W58475  21.787  10.043  23.691 -0.1296  0.2002  0.0699
15460W        W58476   2.392  27.935  19.942 -0.0665 -0.0038 -0.0594
15461W        W58477  24.843  33.011  21.006  0.3411 -0.3410  0.0237
15462W        W58478   5.023  28.562   1.209  0.0414  0.0672  0.0366
15463W        W58479  22.374  23.325   6.828  0.2312  0.0220  0.0045
15464W        W58480  30.773  26.347  27.045 -0.1463 -0.0006  0.2343
15465W        W58481  22.086  28.609  18.903 -0.2400  0.2366  0.1950
15466W        W58482  30.964  32.261  18.277 -0.2406  0.1292 -0.0144
15467W        W58483  15.028  25.124  16.571 -0.1130  0.3227 -0.2828
15468W        W58484   5.642   8.322  17.417  0.4852  0.0904 -0.0557
15469W        W58485  22.724   1.088   1.824 -0.0031  0.4154  0.1767
15470W        W58486  29.103  26.923  16.448 -0.0331  0.1027  0.1348
15471W        W58487  27.015  33.251   0.823  0.1439 -0.0896 -0.2472
15472W        W58488  20.059   4.879   2.823 -0.1713 -0.3553  0.1039
15473W        W58489  13.474   0.730  27.467  0.0273 -0.0375 -0.3191
15474W        W58490  30.938   6.461  24.860 -0.0346  0.2230  0.0192
15475W        W58491   7.401  32.897  19.169 -0.3345 -0.1927 -0.0257
15476W        W58492  26.205  32.453   9.428 -0.0914 -0.0845  0.0081
15477W        W58493  18.891   1.728  19.048 -0.0430  0.0096  0.1872
15478W        W58494  19.815  29.726  15.912 -0.1612  0.2175 -0.2334
15479W        W58495  27.618  12.375  21.206 -0.2315 -0.1466  0.2769
15480W        W58496  22.185  15.763  26.032  0.2397  0.0260 -0.0565
15481W        W58497  13.998   1.490  22.498 -0.1201  0.0163  0.0890
15482W        W58498  21.890   7.576  15.310  0.0929 -0.0628 -0.0713
15483W        W58499  31.278  29.033   1.693 -0.2103 -0.3349  0.0378
15484W        W58500  14.921   2.914  29.232 -0.1690  0.0840  0.0716
15485W        W58501  17.881  33.830   3.620  0.0799 -0.2399  0.2447
15486W        W58502   5.695  26.102   2.505  0.2297 -0.2221 -0.0818
15487W        W58503  21.531  22.192  24.520  0.2067  0.0458  0.1280
15488W        W58504  20.862  11.014  13.529 -0.0595  0.0828  0.0215
15489W        W58505  12.255  30.742  27.084  0.1901  0.1580 -0.2818
15490W        W58506  19.666   6.471   1.887  0.0828 -0.1276 -0.0953
15491W        W58507  29.504   5.110  19.673 -0.1863  0.0502  0.2070
15492W        W58508  20.415  28.987   3.736 -0.2118  0.0155  0.0116
15493W        W58509  19.872   1.442  25.958 -0.2568  0.2283  0.0028
15494W        W58510   9.455  30.776  28.349  0.2969 -0.4621 -0.3487
15495W        W58511  34.012   3.481  24.243 -0.0373 -0.1073 -0.2063
15496W        W58512  33.771   7.953  24.249 -0.2303 -0.1611  0.0468
15497W        W58513  13.444  31.177  26.682  0.4056  0.1111  0.0773
15498W        W58514  12.304   0.140  24.629  0.2541  0.1412 -0.1312
15499W        W58515  12.711   6.404  22.399 -0.0546  0.1334 -0.1759
15500W        W58516  30.619   1.510   9.388 -0.1899  0.1058  0.0486
15501W        W58517  27.758   5.847  26.790  0.2175 -0.0095  0.2879
15502W        W58518  26.742  12.955   3.736  0.3077  0.2031  0.1147
15503W        W58519  23.722  32.630  16.847  0.1457 -0.0254  0.1721
15504W        W58520   1.288   5.790  14.336 -0.3508 -0.0306  0.0829
15505W        W58521  26.232   6.986  19.930 -0.3417 -0.0658  0.2672
15506W        W58522  23.496  32.002  19.518  0.0941  0.1738 -0.2135
15507W        W58523  17.792   4.039   3.280  0.0655 -0.0726  0.0698
15508W        W58524  25.135  29.038  24.701 -0.1520  0.0458 -0.1882
15509W        W58525  22.233  32.096  25.544 -0.0256 -0.0540 -0.3729
15510W        W58526  25.321  13.790   0.517 -0.1758 -0.0086 -0.1142
15511W        W58527  24.670  33.960   4.637  0.4563  0.1028 -0.1964
15512W        W58528  31.104  30.687   0.998  0.1944 -0.1286 -0.2019
15513W        W58529  21.770   1.386  21.381 -0.2514  0.0959  0.1390
15514W        W58530  30.975  31.292  28.111 -0.1529  0.2249  0.0341
15515W        W58531  31.265  28.436  24.792 -0.1312 -0.0334  0.0335
15516W        W58532  25.713  30.049  21.536 -0.1967  0.3451 -0.2032
15517W        W58533  26.041  23.298   2.847  0.0308  0.1262 -0.2597
15518W        W58534  11.104   9.562   0.536  0.0107  0.4738  0.0548
15519W        W58535  29.321   1.496  27.985 -0.3794 -0.1921 -0.0779
15520W        W58536  26.835  20.375   6.813 -0.1769  0.0745  0.0711
15521W        W58537  28.818  34.569  25.116  0.1534 -0.0186 -0.1189
15522W        W58538  29.040  32.559  23.843 -0.3002 -0.0249 -0.2153
15523W        W58539  26.751  32.459  22.401 -0.2725  0.1868  0.2731
15524W        W58540  26.591   3.466   2.459 -0.0164  0.3480 -0.1298
15525W        W58541  29.892  34.762  22.729 -0.0274  0.1094 -0.1989
15526W        W58542  23.133   7.995  20.614  0.2336 -0.1806  0.1615
15527W        W58543  32.964  31.170   9.341 -0.2473  0.4093  0.0567
15528W        W58544  20.469  24.895  23.227  0.1313 -0.0054 -0.2076
15529W        W58545  21.300  23.996   8.057  0.3824  0.0582 -0.3855
15530W        W58546   3.411  27.434  25.150  0.2423  0.3208  0.0490
15531W        W58547   0.131  24.426  22.497  0.1018 -0.1647 -0.0580
15532W        W58548  11.269   1.358  16.780  0.0380  0.0025  0.0397
15533W        W58549   1.528  30.260  16.504  0.1149  0.1970  0.0322
15534W        W58550  30.123   4.491  24.850 -0.1116  0.2748  0.1173
15535W        W58551  24.721  32.473  26.308 -0.0036 -0.2141  0.1773
15536W        W58552   2.711  30.233  19.422 -0.2791  0.1348  0.0171
15537W        W58553   0.831  17.256   0.392  0.0281  0.0669  0.1719
15538W        W58554  12.664  25.861   4.109 -0.2201  0.0424 -0.2007
15539W        W58555  30.428  11.460  21.445  0.1815  0.0833 -0.3999
15540W        W58556  17.288  25.764  19.089 -0.2430  0.1026 -0.0591
15541W        W58557  28.394   9.741   3.390 -0.0459 -0.1711  0.1662
15542W        W58558  11.994  26.672  22.512  0.0236 -0.0719  0.3835
15543W        W58559  10.560   5.076  22.861 -0.4467  0.1227 -0.1173
15544W        W58560  32.827  27.487   7.624 -0.0167  0.0891 -0.1078
15545W        W58561  23.173  27.676   2.346  0.0485 -0.0149  0.2670
15546W        W58562  10.563  10.853   0.293  0.2561  0.3559  0.2981
15547W        W58563   2.428  31.680  26.728 -0.0934 -0.3344 -0.0867
15548W        W58564   9.999   3.662  15.642  0.0767  0.4861  0.2604
15549W        W58565  25.066  34.102  21.572  0.0384 -0.1790  0.0659
15550W        W58566  31.237  28.576  15.777 -0.1093 -0.0809  0.2182
15551W        W58567   8.214  22.939   2.557  0.2883  0.2841 -0.2304
15552W        W58568   4.228   5.941  15.037  0.3169 -0.1909  0.0745
15553W        W58569  21.810  10.028  14.513 -0.2240  0.3344  0.1336
15554W        W58570  13.907   4.528  15.420 -0.3426 -0.0214  0.0899
15555W        W58571   8.293  14.374   2.694  0.1655  0.0286 -0.1242
15556W        W58572  25.257   4.779  19.885  0.3846  0.0878  0.1600
15557W        W58573  26.065   1.352  19.214 -0.1601 -0.1820 -0.2678
15558W        W58574  15.189  28.685  22.810 -0.2941 -0.0153  0.0473
15559W        W58575  33.755   2.655   6.269  0.3938 -0.4632 -0.0389
15560W        W58576  30.234  29.091   4.820  0.1786 -0.1884 -0.1503
15561W        W58577   5.303  17.780  15.013 -0.2521 -0.0132 -0.1123
15562W        W58578  31.469   2.457   5.875 -0.0581 -0.0083 -0.1454
15563W        W58579  32.665  13.537   8.390 -0.2520 -0.3085  0.0537
15564W        W58580  27.442   4.247   4.361  0.1528  0.0748 -0.2793
15565W        W58581  24.761   8.257  15.251 -0.0119 -0.2750 -0.0594
15566W        W58582  26.099  25.427   3.117  0.1426 -0.1525  0.0216
15567W        W58583  28.835   2.114  18.300 -0.1429 -0.0068 -0.0443
15568W        W58584  25.335   7.661  16.940 -0.1140 -0.1060  0.2057
15569W        W58585  27.874  25.765  10.529  0.2875 -0.1218  0.3240
15570W        W58586  22.348  29.151   6.888  0.1451  0.2860  0.0645
15571W        W58587  20.077   3.031  27.843 -0.1012  0.1185 -0.0422
15572W        W58588   6.960   2.815  26.722 -0.0200 -0.1511  0.1746
15573W        W58589  11.148   0.423  24.256 -0.0671  0.0384 -0.0517
15574W        W58590  14.474  20.315   0.154 -0.0374  0.1618  0.2758
15575W        W58591  24.398  26.496   2.388 -0.0907 -0.0870 -0.1356
15576W        W58592  15.005  16.294  28.290  0.1001  0.2777  0.0757
15577W        W58593  17.665  30.485   4.604  0.0753 -0.3519 -0.0202
15578W        W58594   3.269  27.407   4.151 -0.3163  0.0240 -0.0383
15579W        W58595  28.185  24.208  24.088  0.0954 -0.1581  0.1140
15580W        W58596   0.229  27.911   0.680 -0.0095 -0.1170 -0.1454
15581W        W58597  19.583   8.829  27.653 -0.0459  0.1069 -0.0032
15582W        W58598  23.579  32.508   8.082 -0.0979  0.3964  0.2056
15583W        W58599   1.559   8.333  20.406  0.0693  0.1205 -0.0575
15584W        W58600  27.952   0.252  16.321 -0.3251 -0.0412  0.3247
15585W        W58601  10.448   5.673  29.268  0.1314 -0.5847  0.0311
15586W        W58602  19.956   3.857   1.312 -0.0041  0.0597 -0.1874
15587W        W58603  34.525  26.783  27.102 -0.3357 -0.2074 -0.2442
15588W        W58604  32.098  27.569  26.547  0.3287  0.0120 -0.1248
15589W        W58605  29.632  28.727  21.541  0.2501  0.1415 -0.0677
15590W        W58606  30.522  33.539  10.580 -0.2810 -0.0412 -0.0198
15591W        W58607  32.623   5.347   9.882 -0.2241 -0.2170 -0.0361
15592W        W58608   4.258   1.077   3.537 -0.2766 -0.0863 -0.0595
15593W        W58609  34.487   8.342   6.788 -0.0172 -0.2307 -0.0344
15594W        W58610   3.763  17.518   4.754 -0.3674 -0.1636  0.1256
15595W        W58611  31.115   4.847   3.324  0.2361  0.1429  0.1020
15596W        W58612  33.092   3.894   5.955 -0.0665 -0.1202 -0.2592
15597W        W58613   3.376  12.451  27.141  0.0677  0.5855 -0.1435
15598W        W58614  25.996  34.213   2.826  0.1851  0.3097  0.2389
15599W        W58615  19.519   4.070  28.443  0.0900 -0.1973  0.2948
15600W        W58616  22.101   0.816  23.711  0.0584 -0.0730 -0.1186
15601W        W58617   2.888  23.030  22.891 -0.2147  0.0453 -0.0012
15602W        W58618   7.820  30.517  16.534 -0.2610  0.1921 -0.1807
15603W        W58619  24.834  22.075  23.514 -0.1735  0.0729  0.3381
15604W        W58620   0.056  28.798  27.101  0.4882 -0.5336 -0.4444
15605W        W58621   9.657  30.278  26.682  0.1469  0.1444 -0.0401
15606W        W58622  31.824  12.511   5.196 -0.1315 -0.0609  0.2160
15607W        W58623   6.880  30.430  27.720  0.1229 -0.0176  0.0650
15608W        W58624   0.012  29.119   1.339 -0.1414 -0.0559  0.0482
15609W        W58625  11.410  19.102   4.007  0.0567 -0.2756  0.1737
15610W        W58626  22.459  14.231  20.345 -0.0226 -0.5457  0.0183
15611W        W58627   3.789  22.221   5.656 -0.1335 -0.1066 -0.2295
15612W        W58628  23.449   1.885  28.877  0.2083  0.3726 -0.0351
15613W        W58629  22.611  15.289   8.492  0.2398 -0.1019 -0.4146
15614W        W58630  26.804  10.041  16.604 -0.0871  0.1251  0.1762
15615W        W58631  34.449  30.745  28.558  0.1762  0.3128  0.1457
15616W        W58632   0.458  19.010   1.636  0.0707  0.0911 -0.0134
15617W        W58633  21.914  15.326  26.986  0.1267  0.0884 -0.2916
15618W        W58634  30.528   5.093  16.781 -0.2332  0.2080  0.1288
15619W        W58635  18.662   4.418  26.571  0.1797 -0.1720 -0.2238
15620W        W58636  15.708  12.054  24.359 -0.2072  0.2049 -0.2942
15621W        W58637   4.716  33.133  24.950 -0.1735 -0.0584  0.3777
15622W        W58638   4.577  24.181  25.255  0.4097 -0.1566  0.0686
15623W        W58639  21.011   0.037  10.022 -0.2765  0.0863 -0.2056
15624W        W58640  17.556  29.016  24.073 -0.0622  0.0918 -0.0720
15625W        W58641  21.760   3.086   5.214  0.2126 -0.1946 -0.0726
15626W        W58642  17.124  30.499  18.395 -0.1266 -0.0699 -0.1960
15627W        W58643  25.717  33.477  16.136 -0.0673 -0.2812 -0.3141
15628W        W58644  30.121   7.489  26.432 -0.1038 -0.0917  0.0682
15629W        W58645  34.519   4.817  19.029  0.0141  0.2111 -0.0774
15630W        W58646   1.585  30.982   4.224  0.0633  0.0523 -0.4564
15631W        W58647  27.251  13.295   1.308  0.0306  0.0028  0.0133
15632W        W58648  26.549  18.992  25.238 -0.2439  0.0963 -0.3095
15633W        W58649   6.638  31.456   5.798  0.0707  0.0666  0.1300
15634W        W58650  20.968  34.262  16.660 -0.1413  0.1521  0.1560
15635W        W58651   8.358   6.645  14.028  0.3457 -0.1489 -0.1087
15636W        W58652  30.816  13.953  23.950  0.1385 -0.1086 -0.1261
15637W        W58653   1.578   3.346   1.735 -0.1192 -0.0371 -0.2933
15638W        W58654  33.330   1.602  19.496  0.2494  0.0480  0.2165
15639W        W58655  19.657  31.792  20.363 -0.2263 -0.0707  0.1416
15640W        W58656  19.100  34.613  27.724  0.0864 -0.3893  0.2673
15641W        W58657   1.398  16.070   5.462 -0.0788  0.2887  0.0577
15642W        W58658  17.196  12.715  20.225  0.0793 -0.1530  0.2428
15643W        W58659  24.019  33.069  26.318 -0.1359 -0.1153 -0.2566
15644W        W58660  31.043  26.649   9.266 -0.2609  0.0940 -0.0436
15645W        W58661  21.675  12.943  25.747  0.3268  0.0125  0.0188
15646W        W58662  24.504  27.712  28.266  0.1872  0.2331 -0.0603
15647W        W58663  25.924  21.975   4.022  0.0632  0.1943 -0.2412
15648W        W58664  29.983  32.747  19.972 -0.0473  0.1044 -0.0364
15649W        W58665  23.285  32.718  17.678 -0.2311  0.2383  0.1331
15650W        W58666  27.292  34.653   1.632 -0.0778  0.2315  0.1144
15651W        W58667  25.748  29.822   4.335 -0.0324 -0.2292 -0.0134
15652W        W58668  20.814  32.090  15.374 -0.0537  0.0333  0.2393
15653W        W58669  25.717  18.021   7.002 -0.0984 -0.1036 -0.2220
15654W        W58670   5.442   0.567  20.044  0.2276  0.1694 -0.0172
15655W        W58671   4.390  14.319   2.837  0.0862 -0.0810 -0.3444
15656W        W58672  34.578  27.368  23.361 -0.1985  0.2438 -0.3393
15657W        W58673  23.534  33.665  14.816  0.2644 -0.0464 -0.0430
15658W        W58674  11.758  20.950  12.627 -0.0429 -0.0185  0.0754
15659W        W58675  11.568  25.734   3.909 -0.0095 -0.2977  0.2709
15660W        W58676  29.302   6.082   4.204  0.0627  0.0822  0.5203
15661W        W58677  17.775   8.619  26.376  0.2867 -0.0400 -0.1030
15662W        W58678  32.172  30.415  16.468  0.1533 -0.1835 -0.1474
15663W        W58679  13.148  23.915  16.316  0.4107  0.0506  0.2189
15664W        W58680   2.297   3.802  15.579  0.1080 -0.1778  0.2665
15665W        W58681  27.901  17.814   0.897 -0.0671  0.3651  0.1067
15666W        W58682  25.436   9.557  18.927 -0.0215  0.1361  0.0898
15667W        W58683  28.220   3.317  28.554 -0.1526 -0.1676  0.3157
15668W        W58684   0.303  22.678  22.538 -0.1504  0.1002  0.0091
15669W        W58685  29.537  33.330   5.164  0.2054  0.1735 -0.2596
15670W        W58686  17.860   2.775  25.767  0.1427  0.5411  0.2897
15671W        W58687   0.657  30.624   1.772 -0.2227  0.3760 -0.0990
15672W        W58688  26.854   4.067   1.932 -0.4932 -0.0435  0.0266
15673W        W58689  30.177  20.386   7.274  0.3334 -0.1791  0.2481
15674W        W58690  34.533  32.959  11.043  0.1139 -0.0896 -0.0645
15675W        W58691   5.190  13.675   0.206 -0.2233  0.2456 -0.0974
15676W        W58692   3.999  22.600  27.948 -0.0577 -0.1199  0.1114
15677W        W58693  19.572  26.798  17.841 -0.2292 -0.3113  0.0421
15678W        W58694  30.524  11.796  28.606  0.2892 -0.0250  0.0402
15679W        W58695  19.699  17.929  24.492 -0.1886 -0.0744 -0.1170
15680W        W58696  33.475   1.506   5.563  0.1518  0.1639  0.2797
15681W        W58697  13.240   4.032  22.770  0.0182  0.0905 -0.0313
15682W        W58698  20.042  25.769   2.506 -0.0920  0.2114  0.2977
15683W        W58699  29.971   2.200  28.795  0.2284  0.2116 -0.0483
15684W        W58700   1.679  29.852  18.213  0.1413  0.1673  0.0134
15685W        W58701  28.115  20.670   0.314  0.0249 -0.0559 -0.3943
15686W        W58702   4.291  17.460  20.766  0.0777 -0.0247  0.0386
15687W        W58703  32.158   8.525   0.890 -0.1730 -0.0789 -0.0487
15688W        W58704  28.523  26.881   2.125 -0.2302  0.1071  0.1901
15689W        W58705  34.608  31.131   3.841  0.0796  0.2789  0.0466
15690W        W58706  31.967   5.677  18.508  0.1619  0.0295 -0.1033
15691W        W58707  23.173  27.660   4.760  0.1852  0.0431 -0.1630
15692W        W58708  21.458  30.411   0.140 -0.2053  0.3056 -0.2117
15693W        W58709  28.710  11.460  18.448  0.0424  0.1140 -0.1907
15694W        W58710  19.136   6.298   3.873  0.0144 -0.0616 -0.2044
15695W        W58711  24.577   6.790   0.626 -0.0708 -0.1367 -0.5464
15696W        W58712   8.318  24.469   6.267  0.2266  0.0027 -0.2029
15697W        W58713   2.521  22.849  25.442 -0.1095  0.0120 -0.1478
15698W        W58714  24.646  20.183  28.288  0.1705  0.2238 -0.0396
15699W        W58715  29.406  30.673  20.118  0.0652 -0.0701 -0.2290
15700W        W58716  13.549  31.867  15.531 -0.2225 -0.2169 -0.0024
15701W        W58717  21.127  31.911   9.028 -0.0411 -0.1489  0.2335
15702W        W58718  33.632   4.261   4.333  0.2446  0.0366  0.1539
15703W        W58719  21.662  20.728  16.805  0.0362  0.1445 -0.1873
15704W        W58720  19.978  10.533  28.602  0.0387  0.0191 -0.1283
15705W        W58721  21.980  30.701   2.039  0.1508 -0.2025  0.3093
15706W        W58722  27.087  24.767   3.444 -0.0566  0.1100  0.1576
15707W        W58723  30.774  11.962  23.960  0.1132  0.1026 -0.0337
15708W        W58724  25.903  17.452  18.532 -0.0190  0.0477 -0.0139
15709W        W58725  20.838  25.125   8.460 -0.2562  0.0900  0.1417
15710W        W58726  22.278   0.225   4.277  0.0582 -0.0861 -0.1225
15711W        W58727  33.791   6.275  28.258  0.3332 -0.1233 -0.0005
15712W        W58728  26.379   2.076   7.807  0.1243 -0.0368 -0.2562
15713W        W58729  19.454  22.616  28.927 -0.1355  0.1748 -0.0712
15714W        W58730   5.619  34.652  26.953  0.0000 -0.0800  0.0713
15715W        W58731   0.679   8.311  15.285  0.2696  0.1808  0.0866
15716W        W58732  27.357  27.702  17.365 -0.1074  0.0171  0.1946
15717W        W58733  33.747   8.491  26.307 -0.0603  0.0127 -0.1503
15718W        W58734   0.833   4.571   8.655 -0.2151  0.0810  0.0708
15719W        W58735  22.770   1.175  28.146  0.1365  0.0047  0.0802
15720W        W58736   8.834  33.183  18.081  0.2163  0.1921  0.0208
15721W        W58737  26.318  33.592  16.535 -0.2231  0.1976  0.0158
15722W        W58738   0.897  29.159   3.081 -0.0823  0.1910  0.2220
15723W        W58739  10.348   3.693  28.605 -0.2222 -0.3800 -0.0059
15724W        W58740  11.580  26.278   1.957  0.0869  0.2342 -0.1440
15725W        W58741  13.589  34.588   1.227 -0.2242  0.0653 -0.1500
15726W        W58742  27.286  28.913  20.880 -0.1790 -0.0325 -0.0579
15727W        W58743  32.294  28.380   7.720  0.0353 -0.4098 -0.0750
15728W        W58744   1.826  32.559   7.134  0.0263 -0.0290 -0.2732
15729W        W58745  16.058  31.049  23.518 -0.1605  0.1941  0.1372
15730W        W58746  15.664  30.799  27.120 -0.1033 -0.0690 -0.2224
15731W        W58747  34.172  19.829   2.373 -0.1506  0.0065  0.1755
15732W        W58748  18.696   4.885  17.297  0.3969  0.0351  0.2449
15733W        W58749  27.958  34.301   4.946  0.2446  0.1419 -0.0155
15734W        W58750  10.144   0.265   2.985  0.1858 -0.3725  0.2740
15735W        W58751  34.072  25.722  17.053 -0.0438 -0.1115  0.0541
15736W        W58752  26.382  15.690   7.748 -0.3451 -0.0898  0.2116
15737W        W58753   4.159  26.292   9.950 -0.0751  0.1360  0.0142
15738W        W58754  19.031  31.781   3.677  0.3373  0.1007 -0.1436
15739W        W58755  20.370   3.890  16.776 -0.0239 -0.0427 -0.0458
15740W        W58756   9.008  19.852   4.383 -0.2811 -0.1936  0.0263
15741W        W58757  18.426  16.663  21.306 -0.2425  0.0588 -0.0831
15742W        W58758  10.663  26.881  27.397  0.0350 -0.0086 -0.1517
15743W        W58759  24.961   2.872  18.340 -0.1265  0.1263 -0.1536
15744W        W58760  18.720   3.195  21.022  0.0610 -0.1114  0.0669
15745W        W58761  26.405   8.562  24.763 -0.0497 -0.1341 -0.1218
15746W        W58762   8.654   9.163  23.849 -0.2332 -0.1777  0.1670
15747W        W58763  26.083  19.766  19.697  0.0442  0.2181  0.3497
15748W        W58764  12.774  13.830   3.737  0.1262 -0.1422 -0.1184
15749W        W58765  20.390  20.619  23.946 -0.2595  0.2335 -0.0932
15750W        W58766   1.930  34.471  27.205  0.3102 -0.3649 -0.1928
15751W        W58767  17.908   1.318  23.568  0.5111  0.0906  0.0598
15752W        W58768   2.999  32.775   2.825 -0.0956 -0.0129 -0.1082
15753W        W58769  27.937   4.113   4.018 -0.4101  0.1678 -0.0095
15754W        W58770  27.732  22.701   2.781  0.1984 -0.0975 -0.2149
15755W        W58771  29.216   1.439  19.116  0.2459 -0.1446  0.3700
15756W        W58772  13.884  33.217   1.814  0.0701  0.0605  0.2254
15757W        W58773  19.087   0.140  27.317  0.0896 -0.3567  0.0615
15758W        W58774  23.389  27.515  17.085 -0.0355 -0.2887 -0.0483
15759W        W58775  31.972  26.124  23.244 -0.0104  0.0716  0.2542
15760W        W58776  32.445  19.040  16.715  0.0518 -0.1252  0.0863
15761W        W58777  14.290   6.216   5.891  0.0307 -0.1787 -0.1761
15762W        W58778  20.224   6.743   2.796 -0.0061 -0.1735  0.0036
15763W        W58779  25.179  26.949  22.610 -0.2927  0.0221 -0.2329
15764W        W58780  15.337   2.234  15.787 -0.0088 -0.0046  0.1108
15765W        W58781  32.956  29.438   1.584  0.1808  0.4734 -0.1383
15766W        W58782  26.378   8.633  15.568 -0.0578  0.0785 -0.2442
15767W        W58783  23.455   0.576  17.014  0.2593  0.2034  0.0042
15768W        W58784  13.682  23.891  26.741 -0.0575 -0.1956  0.1000
15769W        W58785   1.040  11.474   7.550 -0.1538  0.3101  0.0739
15770W        W58786  11.114  17.921  13.376  0.1683  0.2778  0.1350
15771W        W58787  24.991  32.743  21.895  0.1415 -0.2016 -0.0653
15772W        W58788  25.604  15.929   7.413  0.2176 -0.0509 -0.0807
15773W        W58789  28.974  21.262   5.948  0.0810  0.2097 -0.3128
15774W        W58790  19.358  26.999   2.630  0.3931  0.0640 -0.0202
15775W        W58791  18.869  30.743  28.601 -0.0956  0.0024  0.0696
15776W        W58792  19.124  23.072   4.829 -0.1999  0.0374 -0.0706
15777W        W58793   8.446   9.319  18.970 -0.2720 -0.2619 -0.0961
15778W        W58794  20.261   4.232   0.379  0.2426 -0.0480 -0.0471
15779W        W58795  24.114  24.761   6.010  0.2584 -0.1761 -0.1007
15780W        W58796   4.802  33.570  15.162  0.2086  0.1929 -0.2102
15781W        W58797  15.995   8.845  13.265  0.0636  0.2343 -0.1653
15782W        W58798  20.572   5.278  19.768  0.0294  0.0812 -0.2372
15783W        W58799   8.012   7.110  21.811 -0.2686 -0.0233  0.4205
15784W        W58800  25.810  33.061   1.477 -0.0019 -0.1110  0.0917
15785W        W58801  33.719  24.274   6.697  0.0672  0.2193 -0.1496
15786W        W58802  32.584  21.552  25.027 -0.1554  0.0756  0.0762
15787W        W58803  21.009  32.169  25.037 -0.0429 -0.2164  0.1737
15788W        W58804  28.439   4.977  15.104 -0.0813 -0.0756  0.0505
15789W        W58805  17.049  32.338  21.014 -0.0526 -0.1164 -0.0360
15790W        W58806  31.645  28.497  25.087 -0.0170  0.1237 -0.0071
15791W        W58807  34.090  12.056  16.056 -0.1816 -0.3583  0.0272
15792W        W58808  29.590  11.888  21.308  0.0599  0.1967 -0.0873
15793W        W58809  30.305   8.285  18.483  0.0725 -0.0403  0.1335
15794W        W58810  24.797   4.388  21.385 -0.0506  0.0777 -0.0268
15795W        W58811  22.341   6.605   4.314 -0.0116 -0.1246 -0.0865
15796W        W58812   3.445  19.760  28.525 -0.1063 -0.4982 -0.1331
15797W        W58813  31.030   5.977  17.814  0.0897 -0.2607  0.3148
15798W        W58814  16.925  23.708   8.399 -0.0207 -0.0653 -0.4211
15799W        W58815  16.588   8.261  27.001 -0.1710 -0.0560  0.0524
15800W        W58816  27.107  33.234   2.451  0.1199  0.0569 -0.1096
15801W        W58817   2.181   2.195   5.617  0.1374  0.0724  0.0668
15802W        W58818  28.338  10.792  22.042  0.0445  0.1114 -0.2549
15803W        W58819  13.353   0.099  19.665 -0.2172  0.4376  0.0954
15804W        W58820  28.412   3.261   5.707  0.1066  0.0562  0.1877
15805W        W58821  25.512  31.556  23.423  0.0634 -0.0049  0.1333
15806W        W58822   3.083  15.432   3.703 -0.1210  0.1070  0.1047
15807W        W58823  29.411  34.587   3.362 -0.2410 -0.0818 -0.0986
15808W        W58824  21.482   7.919  27.236 -0.2803  0.1178  0.5226
15809W        W58825  32.089  31.323   3.612  0.0995 -0.0486 -0.0113
15810W        W58826  24.251  20.132   8.022  0.0378 -0.1015  0.3876
15811W        W58827   6.888   5.416  22.374  0.1326 -0.0014  0.2224
15812W        W58828  26.954   8.753  19.926  0.0291 -0.0699 -0.1239
15813W        W58829  17.493  10.876  23.899  0.3090 -0.3537  0.0452
15814W        W58830  21.451  11.372  29.078 -0.1949 -0.0057  0.4617
15815W        W58831  11.981  30.064   2.403  0.1386  0.2689  0.1410
15816W        W58832  30.141  26.134  19.295  0.0193  0.3464 -0.2964
15817W        W58833  21.152   1.263  16.020 -0.1018  0.0522 -0.0390
15818W        W58834  25.081  24.451  27.112  0.0084  0.1776  0.0675
15819W        W58835  21.119  30.686   2.513 -0.2125 -0.2281  0.0078
15820W        W58836  27.543   3.508  28.286 -0.0724 -0.1699 -0.2046
15821W        W58837  18.651  28.003   6.755  0.0390  0.1072  0.0105
15822W        W58838  12.412  28.816  19.960 -0.1155 -0.5946  0.2465
15823W        W58839  28.497  34.626   5.856  0.0397  0.0013 -0.4989
15824W        W58840  20.442   2.022  16.761 -0.0653  0.0486 -0.2974
15825W        W58841  12.849   4.274  17.116  0.0679 -0.1928 -0.1686
15826W        W58842  26.858   3.092  19.527 -0.0470  0.2664  0.1581
15827W        W58843  29.736  28.959  21.090  0.0329  0.1654 -0.1116
15828W        W58844  27.789  12.537   6.027 -0.0674  0.0746  0.4631
15829W        W58845  32.562  12.157   2.355  0.1317 -0.1476 -0.3680
15830W        W58846  24.946  31.762   2.705 -0.2788  0.3047 -0.2296
15831W        W58847  31.028  30.019  20.422 -0.0938  0.2880 -0.1961
15832W        W58848  32.711   5.340  14.941  0.0216 -0.0120  0.3808
15833W        W58849  30.464  31.844  19.452 -0.0336  0.0921 -0.1248
15834W        W58850   2.018   4.049   2.453 -0.0923  0.1361 -0.0427
15835W        W58851  22.998  34.176  23.272 -0.0533 -0.0989 -0.1639
15836W        W58852   4.593  34.472   7.981 -0.0544 -0.2233  0.0706
15837W        W58853  20.435   6.015  27.042  0.0991  0.0566  0.3163
15838W        W58854   0.047   3.192  24.095  0.1521  0.0874 -0.2615
15839W        W58855  21.238  17.695  28.334 -0.1180  0.3973 -0.1356
15840W        W58856  29.297  26.115   2.541 -0.2348 -0.0557 -0.0381
15841W        W58857  24.022   0.301  27.953 -0.2458  0.1184 -0.0352
15842W        W58858  14.582  25.293   1.806  0.1053 -0.3098 -0.2299
15843W        W58859  24.938  29.966  11.827 -0.2919 -0.3223  0.0972
15844W        W58860  17.901  10.576  17.165 -0.2821  0.1089  0.0918
15845W        W58861  34.667   6.224  26.621  0.0744  0.2006  0.1473
15846W        W58862  13.867   5.869   1.391  0.0057 -0.2172 -0.2209
15847W        W58863  29.971  10.034  23.178 -0.1259  0.2060 -0.2008
15848W        W58864  18.168  19.591  16.556  0.2144 -0.1863  0.0715
15849W        W58865  16.260  29.597  26.037  0.2654 -0.0884  0.2028
15850W        W58866   1.403  14.578  22.453  0.1340 -0.1184  0.0983
15851W        W58867  27.278  14.024  22.896 -0.1881 -0.3776 -0.1635
15852W        W58868  13.930  23.940   0.807 -0.3439  0.1689  0.0661
15853W        W58869   5.042   7.312   2.737  0.3833 -0.2797  0.1934
15854W        W58870   0.419  21.087  16.262  0.2585 -0.0728  0.0730
15855W        W58871  13.226  19.016  28.754  0.0656 -0.1553  0.0698
15856W        W58872   5.986  27.836  24.330 -0.3413 -0.1159 -0.0324
15857W        W58873  31.537  11.579  19.329 -0.0787  0.1700  0.2742
15858W        W58874  30.246   2.658  18.594  0.2014 -0.2688 -0.2325
15859W        W58875   4.620  27.519  26.728  0.3343  0.0626  0.0857
15860W        W58876  28.264   2.082  21.284 -0.0374 -0.2242  0.1075
15861W        W58877  28.982  10.288  19.898 -0.0137 -0.3748  0.1258
15862W        W58878  30.293  32.636   2.992  0.4146 -0.3463  0.0333
15863W        W58879  19.436   8.459  26.852 -0.0317  0.4298  0.1990
15864W        W58880  29.181   4.366  19.520  0.1909 -0.1486 -0.2292
15865W        W58881  27.874   1.880  22.811 -0.2245 -0.0583 -0.0223
15866W        W58882  31.738  17.874  24.337 -0.3002  0.0690  0.1873
15867W        W58883   0.604  31.368  24.329  0.0802  0.0756  0.2280
15868W        W58884   6.228   1.019   9.322  0.0380  0.0699  0.1143
15869W        W58885  18.961   8.602  26.610  0.2419  0.2174  0.0464
15870W        W58886   3.661  13.027  22.133 -0.0978 -0.0789 -0.3271
15871W        W58887  22.390  21.732   0.515 -0.1706  0.0502 -0.0232
15872W        W58888  22.035   8.884  17.476 -0.2253  0.2182 -0.1788
15873W        W58889   1.418   5.499  19.577  0.4432 -0.1298  0.4320
15874W        W58890   0.241  29.083   8.816 -0.0854  0.2485 -0.2446
15875W        W58891   1.743  25.124   5.373  0.0514 -0.1152 -0.1211
15876W        W58892  24.425   0.403  24.777  0.0773  0.0288 -0.0967
15877W        W58893  34.552   6.666  23.907 -0.1513  0.1846  0.3358
15878W        W58894  21.131   7.931   4.405 -0.0152 -0.0638 -0.2624
15879W        W58895  13.936   6.243  27.518 -0.1628 -0.1634  0.1705
15880W        W58896   4.153  29.941  28.801  0.1076 -0.3263 -0.0914
15881W        W58897  22.539   6.387  24.044  0.2926 -0.0406 -0.0473
15882W        W58898  29.924   3.861  25.043 -0.0759  0.3040  0.1574
15883W        W58899  27.102  17.245  28.094  0.1733 -0.1511 -0.3642
15884W        W58900  29.359  19.672  25.695 -0.3023 -0.2374 -0.4847
15885W        W58901  30.322   2.154   5.468  0.4130  0.1669 -0.1034
15886W        W58902  20.523   9.054  22.015  0.0631 -0.1245  0.3112
15887W        W58903   8.531  26.749  26.033 -0.1261 -0.0330  0.1501
15888W        W58904  17.198  30.395  10.521 -0.1888  0.0237  0.2287
15889W        W58905  26.772  31.435  23.462  0.1778 -0.1818  0.0222
15890W        W58906  22.903  10.389   1.710  0.0215  0.0055  0.3327
15891W        W58907   3.934   8.237   1.284 -0.1309  0.2510 -0.2689
15892W        W58908  21.425   9.140  19.434 -0.1684 -0.0983  0.3440
15893W        W58909  20.324   7.170  16.645  0.1166  0.2138  0.2466
15894W        W58910   1.233  23.315  19.158 -0.0202 -0.2329  0.0917
15895W        W58911   2.304  29.471   1.562 -0.1010  0.2501  0.1970
15896W        W58912  21.397   2.486   8.451  0.3762  0.0389  0.1780
15897W        W58913  28.235  11.991  17.302 -0.0860 -0.0805  0.0401
15898W        W58914  28.402   2.896  23.622 -0.2320 -0.3461 -0.2768
15899W        W58915   1.781   3.973  22.657  0.1283 -0.0163  0.0564
15900W        W58916  21.134  31.329  27.358 -0.2213  0.0501  0.0264
15901W        W58917  15.231  11.593   2.706 -0.2756  0.2164 -0.3101
15902W        W58918  23.952  17.514  25.698 -0.0398 -0.0158 -0.1586
15903W        W58919   6.035   3.511  21.652 -0.1195  0.1240  0.0135
15904W        W58920  32.505  13.097   9.313 -0.0502  0.2414 -0.0554
15905W        W58921  27.851   4.715  21.308 -0.3277 -0.0323  0.2475
15906W        W58922  29.875  22.706   4.522 -0.0982 -0.0339 -0.1253
15907W        W58923  31.651   3.383  20.355 -0.1624  0.2740  0.0386
15908W        W58924  31.142   5.760  23.434 -0.1044 -0.0775 -0.0041
15909W        W58925   1.004   0.816   0.839 -0.3644 -0.1487  0.0782
15910W        W58926  25.935   0.897  18.554  0.1404 -0.3641  0.3521
15911W        W58927  19.302   3.389  27.236  0.2014 -0.0725  0.0296
15912W        W58928  15.505  32.569  22.165 -0.6434 -0.3477 -0.3300
15913W        W58929  19.807   3.710  25.862  0.0667  0.0870  0.0900
15914W        W58930   5.157  32.948   4.527  0.0715  0.1196 -0.1494
15915W        W58931  26.727  24.422   7.849  0.2668  0.2901 -0.1664
15916W        W58932  16.924  10.244   4.674  0.1413  0.0486 -0.0545
15917W        W58933  32.752   1.444  21.776  0.2693 -0.1182  0.0403
15918W        W58934  32.098   7.069  18.976 -0.0279  0.1769 -0.0774
15919W        W58935  13.033  32.335   8.011 -0.0065 -0.0786  0.0787
15920W        W58936  25.577  27.281   5.165 -0.0399 -0.4364  0.0658
15921W        W58937  16.104   5.702  22.855 -0.1996  0.2461 -0.0257
15922W        W58938  25.117   4.951   4.356 -0.1809 -0.1102 -0.1113
15923W        W58939  20.346  20.591  20.195  0.3053 -0.1895  0.1331
15924W        W58940  21.467  18.577  28.740 -0.0090 -0.0668 -0.0158
15925W        W58941  26.635   3.141  23.899 -0.0343  0.1683  0.1595
15926W        W58942  20.218   8.966  23.112  0.0628 -0.1112  0.0409
15927W        W58943  28.197   2.854   5.610  0.2228 -0.1397  0.0183
15928W        W58944  25.671   7.143  26.894 -0.1225  0.3100  0.3419
15929W        W58945  26.189  22.005  28.288 -0.2072 -0.0425 -0.2358
15930W        W58946  24.543   0.732   5.018  0.2979  0.2530  0.5451
15931W        W58947  21.938   9.336  20.919 -0.2863 -0.0973 -0.1962
15932W        W58948  16.658   4.807  24.289  0.0307  0.0782  0.0358
15933W        W58949   2.593   8.117   6.306  0.0921 -0.2095  0.2338
15934W        W58950   8.905   0.909  15.979  0.0932 -0.0349 -0.0353
15935W        W58951  12.399  12.483   6.592  0.1819 -0.4048  0.0213
15936W        W58952   2.815  10.237   2.076 -0.0446 -0.1351 -0.2140
15937W        W58953  25.085  33.258   3.928 -0.1224 -0.1967  0.0787
15938W        W58954   7.467  15.310   4.089 -0.0042  0.1011  0.2717
15939W        W58955  33.605   5.958  26.883 -0.1904 -0.0793 -0.1089
15940W        W58956   4.983  23.708  25.522  0.1691  0.1507 -0.1409
15941W        W58957   5.068  15.204   2.065  0.1394 -0.0451 -0.0115
15942W        W58958  33.014   5.049  17.805  0.1720  0.1687 -0.1737
15943W        W58959   0.804  26.649   5.526  0.0973  0.1208  0.1169
15944W        W58960   8.430   0.780   6.929  0.0764  0.1944 -0.0218
15945W        W58961  10.000   1.637  16.362 -0.3571 -0.0784 -0.0252
15946W        W58962   7.676   0.303  27.415  0.3509  0.2081 -0.1042
15947W        W58963  26.471  32.036  27.601  0.0641  0.1404  0.2498
15948W        W58964   4.403  26.454  25.888 -0.2899  0.3322  0.1259
15949W        W58965  24.911   5.399   6.202 -0.0458 -0.0816  0.2285
15950W        W58966  28.803   0.137   4.604 -0.0030 -0.0532 -0.1899
15951W        W58967  26.232   1.623  28.207 -0.2912  0.0198  0.2002
15952W        W58968   6.155  17.034   8.149 -0.0880 -0.2194 -0.1492
15953W        W58969   9.904  15.370  23.308 -0.1718 -0.1850  0.2327
15954W        W58970  28.386   2.707  21.106  0.1836  0.0180 -0.2446
15955W        W58971  17.409  27.859  17.200  0.3608 -0.1923 -0.2314
15956W        W58972  21.036  31.973  25.503 -0.5895 -0.0885 -0.0295
15957W        W58973  24.942  17.542  16.952  0.0502 -0.1523 -0.0096
15958W        W58974  19.967  29.229  26.547 -0.0246  0.1443  0.0286
15959W        W58975  14.535  27.897  25.023  0.1494  0.0947 -0.0348
15960W        W58976   9.159  10.779  22.419  0.2063 -0.0814  0.3389
15961W        W58977   3.612  26.005  21.533 -0.1636 -0.0649 -0.0963
15962W        W58978  24.741   6.670  21.268 -0.0273 -0.0414  0.0876
15963W        W58979   8.226  17.226   2.954 -0.1808 -0.0129 -0.2068
15964W        W58980  34.217   2.502  17.651 -0.0945  0.1420  0.1909
15965W        W58981  23.754  31.118   6.028 -0.1700  0.1785  0.1517
15966W        W58982  20.220  21.983  15.543  0.0648  0.0553  0.0632
15967W        W58983  23.376   2.806   0.956 -0.0639  0.0229 -0.0761
15968W        W58984  17.880   5.226   7.505 -0.0909  0.1886  0.1514
15969W        W58985  23.185  29.729   3.802  0.2018  0.1062 -0.2658
15970W        W58986   9.269  34.709   0.440  0.4014  0.1151  0.0569
15971W        W58987  23.450   5.983   7.030  0.0419 -0.0237  0.0760
15972W        W58988  19.396   8.767  15.417  0.0201  0.1162 -0.2241
15973W        W58989  19.224  30.248   9.802  0.0132  0.0288  0.1352
15974W        W58990   8.786  30.541  26.567  0.0042  0.0183  0.1233
15975W        W58991   5.017  10.197   7.486  0.2709 -0.2134 -0.3461
15976W        W58992  30.134  26.839  17.695  0.0435 -0.2251 -0.0791
15977W        W58993  17.885   5.916   4.170  0.0691  0.2864  0.1539
15978W        W58994  29.347   6.528  21.156 -0.1246  0.0615  0.3316
15979W        W58995   4.002   3.918  24.071  0.0104 -0.1187 -0.2335
15980W        W58996  34.440   7.077  15.702 -0.2572  0.0630  0.0428
15981W        W58997  27.174   5.249  15.613  0.4480  0.0602  0.1570
15982W        W58998  13.954   5.838   0.112  0.1852 -0.4240  0.1593
15983W        W58999   6.098   3.070   3.534 -0.0326  0.0614  0.0846
15984W        W59000  19.476  27.462  26.960 -0.1279  0.1366 -0.0226
15985W        W59001   2.032  15.198   1.663 -0.0233 -0.0582 -0.0489
15986W        W59002  16.642   8.709  10.073  0.1668 -0.1333 -0.0316
15987W        W59003  34.661  10.392  20.955  0.1770  0.1432  0.0622
15988W        W59004   9.751  33.261   8.988  0.3102 -0.2628  0.0051
15989W        W59005  10.811  11.709   1.142  0.1042  0.2246 -0.2879
15990W        W59006  20.827  29.630   6.583  0.3309 -0.0747 -0.3918
15991W        W59007  20.599  24.401  20.881  0.0008 -0.1064 -0.2208
15992W        W59008  19.805   3.116  18.621 -0.0115  0.1539  0.0848
15993W        W59009  15.654   2.598  17.588 -0.0132  0.0360 -0.3189
15994W        W59010  22.555   0.057  21.838 -0.0699 -0.3079 -0.4551
15995W        W59011  33.684   4.783  19.027 -0.2399  0.4439 -0.2214
15996W        W59012  16.387   1.947  19.818  0.0427  0.2455 -0.3327
15997W        W59013  25.342  23.609  27.287  0.1131 -0.1118  0.2149
15998W        W59014  22.385  34.564  16.735 -0.2417  0.5338 -0.0324
15999W        W59015  33.430   1.091  15.074  0.2465  0.0107  0.0576
16000W        W59016   9.717   1.766  15.117  0.2547 -0.1963 -0.2466
16001W        W59017  28.075   4.123   8.006  0.3324 -0.2130 -0.1754
16002W        W59018  15.997  31.403  17.312 -0.1300  0.0264 -0.0057
16003W        W59019  24.632  30.259  15.345  0.0565 -0.0586  0.1653
16004W        W59020   9.032  12.600  14.383 -0.3361  0.2549 -0.1991
16005W        W59021  19.119   1.095  25.420 -0.1366  0.0111 -0.1377
16006W        W59022  28.691   6.638  22.881  0.0259  0.0034 -0.1972
16007W        W59023  26.120  34.518  28.024  0.1057 -0.2490  0.2610
16008W        W59024  15.583   0.997  27.309  0.0041 -0.1577  0.0276
16009W        W59025  34.512  11.727  16.290 -0.0824 -0.1980  0.0698
16010W        W59026   6.386   6.337  17.888 -0.0437 -0.1668  0.2460
16011W        W59027  13.212   1.962   3.318  0.2066 -0.1378  0.2557
16012W        W59028  19.116  11.361  24.461  0.0551  0.1556 -0.1474
16013W        W59029  18.328  16.718  14.920  0.3039  0.0592  0.2647
16014W        W59030  17.230  34.228  28.143  0.0190 -0.2309  0.0254
16015W        W59031  32.060  23.961  27.561 -0.4676  0.2133  0.1044
16016W        W59032   9.598   1.706  16.630  0.0259  0.1432 -0.0052
16017W        W59033  12.462   2.946  19.681  0.0830 -0.2578  0.1697
16018W        W59034  31.318  16.621  24.094  0.1468 -0.1148  0.1561
16019W        W59035   9.464  29.571  25.990  0.1843 -0.0792 -0.1750
16020W        W59036  31.269  29.619  17.362  0.1147 -0.2625 -0.0641
16021W        W59037  31.602  10.240  16.646  0.0446  0.3572  0.3250
16022W        W59038  27.860   5.309  23.681  0.0153 -0.1729 -0.0376
16023W        W59039  30.005   5.903   5.840 -0.0326  0.1299 -0.0746
16024W        W59040  18.604   3.972  15.068  0.1398  0.1320 -0.1492
16025W        W59041  25.816  16.217  14.776  0.0405  0.0984 -0.2066
16026W        W59042  20.812  30.563   2.115  0.1414  0.0561  0.1805
16027W        W59043  20.106  12.928  15.946 -0.1313  0.1511  0.0449
16028W        W59044  21.718   8.956  23.265  0.1242 -0.0151  0.1834
16029W        W59045  23.958  19.172  20.383 -0.0360  0.2412 -0.0862
16030W        W59046  11.554   9.437  24.734 -0.3592 -0.1915 -0.2717
16031W        W59047  31.374   6.123  16.889 -0.0441 -0.2326  0.0513
16032W        W59048  29.755   1.716  21.195 -0.0647  0.4517 -0.4841
16033W        W59049   6.928  28.276  23.037 -0.0107  0.1645 -0.2614
16034W        W59050   5.385  32.471   0.975  0.1743  0.0443  0.0128
16035W        W59051  32.027  32.162  20.743 -0.3174 -0.3408  0.0226
16036W        W59052  20.139   0.895  24.305 -0.0243  0.2986  0.0157
16037W        W59053   2.360   1.528   4.778 -0.2484  0.1259 -0.2254
16038W        W59054   2.625   2.840  18.936 -0.0122 -0.1516 -0.0916
16039W        W59055  32.296  31.634  18.559 -0.0327  0.0761 -0.1166
16040W        W59056  18.759   2.690  19.590 -0.2177 -0.3347 -0.2184
16041W        W59057  31.812   7.854  21.499 -0.2892  0.1477 -0.0829
16042W        W59058  24.453  30.516  16.791  0.0999 -0.0125 -0.4324
16043W        W59059   1.509   4.790  18.313  0.1756  0.0011 -0.2074
16044W        W59060  19.088   5.537   3.245 -0.1168 -0.0195 -0.4229
16045W        W59061  27.334  30.032  18.165  0.0049 -0.1701 -0.2071
16046W        W59062   1.574  34.731   9.380  0.2601 -0.1960 -0.0365
16047W        W59063   3.324   9.231  19.088  0.2255 -0.0227  0.1458
16048W        W59064  25.076   6.088  22.032 -0.1665 -0.5880 -0.1205
16049W        W59065  31.938  31.677  19.314 -0.4289 -0.1107 -0.1114
16050W        W59066   1.137  16.787  16.915 -0.1124 -0.6071  0.0197
16051W        W59067  31.449   4.247   2.621 -0.2490 -0.1503  0.2899
16052W        W59068  34.671  18.602  15.322 -0.1213 -0.2645 -0.0022
16053W        W59069  15.203  29.425   4.994 -0.2736  0.3158 -0.1160
16054W        W59070  30.331   4.786  21.405  0.1627  0.3263 -0.0245
16055W        W59071   9.688   8.694  20.011  0.1091  0.1817 -0.1938
16056W        W59072  25.033   8.314  25.544  0.2303  0.1063  0.1971
16057W        W59073  30.995   8.604  28.740 -0.1707  0.1269 -0.0575
16058W        W59074   8.342   8.638  16.371  0.4266 -0.0055  0.2557
16059W        W59075  28.313   4.671  24.631 -0.1791  0.1998  0.1941
16060W        W59076  22.669  28.438  18.687 -0.2686 -0.0754 -0.0732
16061W        W59077   3.314  24.108  27.166 -0.0923  0.0585  0.0484
16062W        W59078  34.302  32.654  15.386 -0.1277  0.0844  0.1702
16063W        W59079  21.548  34.415  19.971  0.0569 -0.2633 -0.1897
16064W        W59080  34.599  30.821  24.404 -0.1162 -0.2859 -0.0152
16065W        W59081   3.995   3.771  28.203 -0.1259  0.0555 -0.3645
16066W        W59082  12.142  14.301  13.810  0.0174  0.2352 -0.3314
16067W        W59083  27.491   3.019  17.430  0.1469  0.2198 -0.0837
16068W        W59084  19.382   2.940  24.690  0.1539  0.1774 -0.0362
16069W        W59085   4.384   4.294  20.451  0.0084 -0.1031 -0.1454
16070W        W59086  19.490  24.907  23.788 -0.1980 -0.1658 -0.1038
16071W        W59087  21.428   2.554   2.153 -0.1883 -0.4235  0.1490
16072W        W59088  28.091  11.480  16.656 -0.2143  0.2349  0.0579
16073W        W59089  23.434  25.839  15.756 -0.0901  0.0223  0.0115
16074W        W59090  27.156  11.760   2.416  0.2334 -0.2311  0.1128
16075W        W59091  34.391   2.786  15.941 -0.1301  0.0357 -0.3291
16076W        W59092   7.709   0.196  22.399  0.0061 -0.2159  0.0014
16077W        W59093  26.324  13.729  19.747  0.1098  0.2546  0.3002
16078W        W59094  20.683   2.381  13.943  0.0353 -0.1158  0.1224
16079W        W59095  19.943   8.439  19.458 -0.0491  0.0993  0.0488
16080W        W59096   1.598  34.450  17.606 -0.2490  0.0463  0.0170
16081W        W59097   2.939   9.480   6.306 -0.1526  0.0790  0.1021
16082W        W59098   8.007  30.733  14.769  0.2466 -0.1018  0.2690
16083W        W59099  34.576  16.982  17.093 -0.1937  0.1051 -0.0296
16084W        W59100  30.652  25.909  23.279 -0.1828 -0.2173  0.0867
16085W        W59101  32.651   7.791  17.474 -0.0069 -0.1868  0.1423
16086W        W59102  10.969  27.735   0.155 -0.0563 -0.2887  0.2223
16087W        W59103  32.626  12.730  19.519  0.0043 -0.1063  0.1074
16088W        W59104  24.209   7.900  14.326 -0.4156 -0.0627 -0.1205
16089W        W59105  10.340   6.659  16.302 -0.0048 -0.0322 -0.0511
16090W        W59106  24.038  30.794  15.902 -0.1632  0.0844  0.2059
16091W        W59107   1.724  11.279  23.255 -0.1778 -0.2414  0.1942
16092W        W59108  14.602   0.318  22.866 -0.0367  0.2244 -0.4354
16093W        W59109  15.942  27.626  25.032  0.0176  0.0043  0.0252
16094W        W59110   8.164   3.421  17.814 -0.1555 -0.2170  0.1947
16095W        W59111   3.785  34.231   5.517 -0.1832 -0.2813  0.2765
16096W        W59112   1.174   9.511  24.854  0.1600  0.1457  0.1655
16097W        W59113  31.355   8.283  21.666  0.1194  0.1851 -0.1433
16098W        W59114   2.813  26.356  18.718  0.1115 -0.0870 -0.1363
16099W        W59115   6.642  31.333   3.304 -0.2204 -0.0703  0.3669
16100W        W59116  18.914  32.682  21.713 -0.1765 -0.1868 -0.0101
16101W        W59117  16.144  17.880  16.934 -0.1508 -0.0005  0.0058
16102W        W59118   7.849  24.695  23.121 -0.2450  0.4595  0.0091
16103W        W59119  29.369  15.743  16.531  0.0407 -0.0066  0.0921
16104W        W59120  24.890  34.091  28.193 -0.3955  0.2079  0.0418
16105W        W59121  25.698   4.151  16.481 -0.1299 -0.0295 -0.4249
16106W        W59122  22.459  10.621  20.108  0.0360 -0.1327 -0.0353
16107W        W59123   6.501  30.978   8.699 -0.2039  0.0205 -0.1388
16108W        W59124  29.356   0.621  27.840 -0.0014  0.1841  0.2782
16109W        W59125  19.038  18.520  13.635 -0.0698 -0.3175  0.0599
16110W        W59126  26.639   0.744  16.996 -0.0091 -0.0088  0.1159
16111W        W59127  28.230  14.870  17.035  0.1638 -0.2232 -0.2555
16112W        W59128  12.473   6.876  23.172  0.0425  0.0056 -0.1668
16113W        W59129  29.967  25.190  17.891  0.1830  0.0123  0.2068
16114W        W59130  10.843   5.728  18.011 -0.4011 -0.0273 -0.0673
16115W        W59131   3.348   2.864  15.508  0.1487  0.0115 -0.0519
16116W        W59132  17.917   3.614  18.684  0.0136  0.1213 -0.1713
16117W        W59133  17.686   1.741   5.557 -0.1723  0.1898  0.0647
16118W        W59134  18.623   2.876  18.166  0.2080  0.0306 -0.1731
16119W        W59135   5.861  20.463  28.287  0.1805  0.0110 -0.2241
16120W        W59136  28.378  18.371  16.370  0.3358  0.0796  0.2596
16121W        W59137   0.090  23.860  14.616  0.2287 -0.0099  0.1170
16122W        W59138  29.312   8.151  23.052 -0.4383  0.0298 -0.1226
16123W        W59139   8.900  13.197  14.054  0.1604 -0.4020  0.0209
16124W        W59140  16.649  15.018  23.501  0.2678  0.1326 -0.1588
16125W        W59141  26.651   6.066   9.179 -0.1155 -0.1675 -0.2071
16126W        W59142  23.381   7.008  16.711 -0.3288 -0.1232  0.1463
16127W        W59143  28.204   8.523   0.260  0.1000  0.1100  0.0312
16128W        W59144   4.728  11.416  17.439  0.0910 -0.0555  0.0361
16129W        W59145  34.392  14.230  25.080  0.2279 -0.0506 -0.2781
16130W        W59146  24.678  32.127  16.698 -0.1257  0.1218  0.1377
16131W        W59147  27.918  16.996  22.561  0.1979 -0.1806 -0.0195
16132W        W59148   2.450  25.495  16.287 -0.2388  0.1346  0.0869
16133W        W59149  21.373   5.090  16.697  0.0152  0.2855  0.0504
16134W        W59150  27.068   9.022  21.040 -0.0737 -0.0026  0.2230
16135W        W59151  24.029   7.334  19.249  0.1186  0.1015  0.1758
16136W        W59152  34.703  16.383  27.011  0.0154  0.0213 -0.3136
16137W        W59153  29.692   3.882  16.968 -0.1352 -0.1156  0.0625
16138W        W59154  25.144  31.159  18.196  0.2443 -0.0134  0.0599
16139W        W59155  33.981  12.228   8.533  0.1807  0.3150 -0.0074
16140W        W59156  16.864  33.322  14.283  0.0430  0.3122 -0.1072
16141W        W59157  26.298   6.605  15.901  0.0603  0.2055  0.0424
16142W        W59158  16.140   3.262  19.985  0.1608  0.2332  0.4192
16143W        W59159  19.103  29.338  21.492 -0.0634 -0.2092  0.1192
16144W        W59160   1.276  33.861  16.987 -0.0384 -0.0288 -0.0094
16145W        W59161  13.615   9.179  13.759  0.0964  0.2918  0.0272
16146W        W59162  30.863  11.579  17.258 -0.1893 -0.1389  0.1630
16147W        W59163  27.106   8.738  22.122 -0.0504  0.4594  0.3538
16148W        W59164   7.218  24.352  21.060  0.1024  0.0187 -0.0036
16149W        W59165  27.316   0.734  23.826  0.1969 -0.4181  0.3827
16150W        W59166  17.672  33.703  16.732  0.5325  0.2752  0.0173
16151W        W59167   9.412  16.165  13.508  0.0320  0.0620 -0.0068
16152W        W59168  17.807   3.291  15.839 -0.3851  0.0788  0.0388
16153W        W59169  11.175   5.629  21.736 -0.2200  0.2626 -0.0404
16154W        W59170   0.790   4.131   2.441  0.4328  0.0361 -0.2554
16155W        W59171  34.355  11.004  18.416  0.2154  0.0001 -0.1890
16156W        W59172  27.366  20.150  24.799  0.1154 -0.1567 -0.1355
16157W        W59173   4.567  29.177  20.411  0.1575 -0.1575  0.2842
16158W        W59174  30.032  20.061  18.127 -0.2083 -0.1518 -0.2421
16159W        W59175  13.883  31.633  23.660  0.0888 -0.0843 -0.2131
16160W        W59176  25.554   6.632   4.143  0.1494 -0.0375 -0.1657
16161W        W59177   5.111  19.289  12.886  0.0206  0.1813 -0.4196
16162W        W59178  33.910   2.901  15.689 -0.4141 -0.3268 -0.2258
16163W        W59179  15.897   1.900  19.756 -0.2775 -0.0123 -0.3734
16164W        W59180  25.902   1.398  18.743  0.1656 -0.1816  0.1934
16165W        W59181  21.346   0.943  23.043  0.0300  0.2626 -0.0918
16166W        W59182  29.976  30.229  26.897 -0.0145  0.0781 -0.0066
16167W        W59183  22.881  34.572  25.533  0.3056  0.2190 -0.1158
16168W        W59184  24.337   7.956  29.050  0.2738  0.0616 -0.1372
16169W        W59185  28.633  26.313  18.061 -0.2945 -0.1046  0.1895
16170W        W59186  23.114  31.051  25.482 -0.1310 -0.0367  0.0687
16171W        W59187   3.694  31.998  17.360  0.2172  0.1662 -0.0354
16172W        W59188  29.902  16.309  15.394 -0.0133  0.0069  0.0817
16173W        W59189   9.152  32.415  20.051 -0.0522 -0.2088  0.4449
16174W        W59190  31.749   8.140  21.906  0.0223  0.0216 -0.0568
16175W        W59191  20.700  20.712  19.332 -0.0166  0.0289  0.1790
16176W        W59192  21.271  11.118  24.576  0.1044 -0.0607  0.1391
16177W        W59193  21.817  14.599  13.309 -0.3139  0.0714  0.2158
16178W        W59194   1.795   3.946   4.678  0.1162  0.0002  0.3063
16179W        W59195  27.558   7.389  18.605  0.1796  0.1188  0.0966
16180W        W59196  16.844   3.930  24.993 -0.0575  0.4527 -0.3853
16181W        W59197   1.195   8.943  27.836 -0.1440 -0.0701 -0.1606
16182W        W59198  24.148  12.044  18.725  0.0892 -0.0163 -0.0617
16183W        W59199  23.598  13.548  28.223 -0.0685  0.2952  0.2350
16184W        W59200  28.817   1.369  16.392 -0.1214  0.1276  0.4630
16185W        W59201  18.853  12.280  18.714 -0.0497 -0.0567  0.5068
16186W        W59202  16.604  22.868  18.099 -0.0692 -0.1261 -0.1684
16187W        W59203  25.483   7.796   8.887 -0.2804 -0.1159  0.1490
16188W        W59204  27.776   2.405  22.024  0.2677  0.0044  0.0668
16189W        W59205  29.706   8.435  25.989  0.1666 -0.0332  0.0344
16190W        W59206  27.633   8.472  27.011 -0.0900 -0.1213  0.4927
16191W        W59207  32.850  10.359  25.820  0.1959  0.2069 -0.1801
16192W        W59208  23.833  15.957  23.406 -0.0818  0.2871 -0.2149
16193W        W59209   1.140  15.876  18.621  0.2657  0.3667 -0.1009
16194W        W59210  21.778   9.042  24.267  0.2033 -0.1732  0.1631
16195W        W59211   2.263  18.847  17.263  0.0870  0.1956 -0.0487
16196W        W59212  24.643   2.546  20.634  0.2728  0.0655 -0.1905
16197W        W59213  30.925   1.648  20.540 -0.2839 -0.0059  0.3583
16198W        W59214  27.497  15.056  13.960 -0.2540 -0.2206  0.1678
16199W        W59215  26.783  16.486  18.018 -0.1273 -0.2272 -0.4259
16200W        W59216   6.525   7.666  25.521  0.0980  0.2324  0.0784
16201W        W59217  34.067  28.936   5.174 -0.1947 -0.0427 -0.0943
16202W        W59218  32.478  18.154  17.858 -0.2004 -0.2629  0.0794
16203W        W59219   4.087  15.428  19.581  0.1064  0.2302  0.0913
16204W        W59220   6.349   5.576  18.534 -0.0595 -0.1306  0.0193
16205W        W59221  19.040   4.533  28.690 -0.0992  0.0340  0.1058
16206W        W59222  23.738   5.016   4.014  0.4229  0.1332  0.3960
16207W        W59223  23.017   5.575  16.028  0.1591 -0.1236 -0.2196
16208W        W59224   7.375  16.961  18.415 -0.2504 -0.1399  0.0178
16209W        W59225  14.364   9.045  14.905  0.1457 -0.2720  0.3009
16210W        W59226  12.876  15.139  15.482  0.3222 -0.0472 -0.0764
16211W        W59227   3.833  29.172  15.282  0.1207  0.0655 -0.2001
16212W        W59228   0.994   8.464  29.129 -0.3160 -0.1398  0.0466
16213W        W59229  23.935  13.959  20.114 -0.1257  0.1059  0.0171
16214W        W59230   3.566  33.723   2.367 -0.2287 -0.3629  0.4233
16215W        W59231  34.306  31.665  23.336  0.1352  0.0384 -0.0820
16216W        W59232  22.212  14.131  19.883  0.3708 -0.6000 -0.1356
16217W        W59233  15.696  16.580  24.038 -0.0512  0.1027  0.1460
16218W        W59234  24.626   4.177  16.607  0.1075 -0.2817  0.0599
16219W        W59235  28.584   4.696  17.304 -0.2047 -0.1870 -0.2241
16220W        W59236  24.836   2.148  19.738 -0.0059  0.1384 -0.1609
16221W        W59237  33.548   2.243  29.213 -0.2854 -0.3191 -0.0833
16222W        W59238  31.243   4.416  21.527 -0.0652 -0.2161  0.0208
16223W        W59239  22.721   9.996  18.351  0.0177  0.0904  0.0527
16224W        W59240  34.133  20.229   1.062  0.2904  0.2503 -0.1260
16225W        W59241  29.245   5.979  17.207 -0.4210  0.3766 -0.0285
16226W        W59242  32.419  26.624   0.114  0.2338 -0.2680  0.4622
16227W        W59243  26.614  26.085  18.155  0.3985 -0.2378 -0.0384
16228W        W59244  30.210  10.945  26.028 -0.2852  0.1735  0.1630
16229W        W59245   3.185   4.829  23.299 -0.0530  0.0444 -0.3561
16230W        W59246  22.544   3.797  16.625  0.0005 -0.1525  0.0697
16231W        W59247  10.967   4.009   1.073 -0.0854  0.3174  0.0320
16232W        W59248  20.470  20.202  16.348 -0.0071  0.4497 -0.2880
16233W        W59249   0.249   5.910   8.684 -0.0129  0.1624  0.0741
16234W        W59250   2.181   4.487   7.919 -0.1864 -0.1486 -0.1437
16235W        W59251   2.580   1.611  17.060 -0.1333 -0.0717 -0.1111
16236W        W59252  24.000   5.467  21.299  0.0556  0.1039  0.1813
16237W        W59253  19.494  30.831  26.355 -0.0003  0.1771  0.1931
16238W        W59254  13.864  16.638  21.100  0.0802 -0.1455  0.0230
16239W        W59255  15.981   9.408  17.944  0.0526  0.0701 -0.0417
16240W        W59256   1.742   7.142  26.122  0.4059 -0.1708 -0.0570
16241W        W59257  30.858  34.439  25.413 -0.4463  0.1063  0.5649
16242W        W59258   0.438   7.495   1.518  0.5609 -0.3432 -0.1904
16243W        W59259   4.154  19.145  15.294  0.0970  0.0994 -0.2709
16244W        W59260  26.511  30.775  17.662 -0.3631  0.0894  0.2862
16245W        W59261   9.677   2.389  23.556  0.1307  0.0105  0.1509
16246W        W59262  34.408  10.133  22.984  0.4121  0.2751  0.1099
16247W        W59263  15.201   1.964  16.212  0.2793  0.1706 -0.1076
16248W        W59264  19.447   0.900  16.424  0.0491  0.1077  0.0289
16249W        W59265  11.930  28.426  16.168  0.1249  0.0834 -0.0740
16250W        W59266  15.078   6.407  20.203  0.1173  0.0953 -0.0149
16251W        W59267  27.263  10.473  19.594  0.0495 -0.0901  0.2030
16252W        W59268  29.679   7.826  23.191 -0.3108 -0.0706  0.0010
16253W        W59269  33.618   9.730  15.117 -0.0837  0.2031 -0.3933
16254W        W59270  23.749   9.404   9.184 -0.1802 -0.0497 -0.1783
16255W        W59271  19.285   7.028  14.723 -0.3197 -0.0461 -0.0791
16256W        W59272   5.056   5.116   3.491 -0.0561  0.0910  0.4316
16257W        W59273  21.588   0.061   9.375 -0.0025  0.2134  0.3169
16258W        W59274  25.361   7.989   7.654  0.1129  0.0487 -0.0867
16259W        W59275   8.089  19.412  17.449  0.2186 -0.0533 -0.5007
16260W        W59276  34.699  24.790   4.309  0.1071  0.1077 -0.2134
16261W        W59277  23.484  25.272  27.970  0.2247  0.0137 -0.0660
16262W        W59278   3.489  33.921  15.218 -0.0767  0.1072  0.0563
16263W        W59279  24.863   7.482  19.979  0.3424  0.1446 -0.0491
16264W        W59280  30.889   1.621  22.238  0.1780 -0.2589 -0.1523
16265W        W59281  19.949   6.165  18.620  0.4714 -0.2658 -0.4031
16266W        W59282  34.510  17.053  16.579  0.0158 -0.0726  0.0661
16267W        W59283  30.389   2.673  21.775  0.1203  0.3050  0.0899
16268W        W59284  34.406  15.221  25.492  0.1802 -0.2016 -0.2488
16269W        W59285  15.890   8.556  17.885  0.1674  0.3558 -0.1010
16270W        W59286  30.426  30.128  29.198 -0.0629 -0.0973  0.3529
16271W        W59287  22.596   4.679  14.221  0.1720 -0.0230 -0.1896
16272W        W59288   7.318  11.278  18.160 -0.2315 -0.0639 -0.3214
16273W        W59289  21.805  23.094  22.261  0.0346 -0.2587  0.0672
16274W        W59290   0.035  11.733   0.770  0.2727  0.1785 -0.1265
16275W        W59291  11.960   1.260  26.038  0.2464 -0.1067  0.0250
16276W        W59292  18.660   4.547  27.305  0.1303  0.0389  0.0920
16277W        W59293  16.103   0.518  14.118 -0.2476 -0.1648  0.0848
16278W        W59294  13.102  10.053  28.404 -0.1539  0.0440  0.0555
16279W        W59295  18.434  30.890  16.008  0.0628 -0.2471 -0.0245
16280W        W59296  30.231   8.270  28.245 -0.0207  0.0402  0.2462
16281W        W59297   1.187  32.295  25.182  0.0290 -0.2027 -0.2760
16282W        W59298  26.673   3.708  15.654 -0.0288  0.2663  0.2993
16283W        W59299   5.922  10.316  15.766  0.0327  0.1848  0.1861
16284W        W59300  16.371  34.499  21.654 -0.3421 -0.0420  0.0416
16285W        W59301  18.643  11.375  24.193  0.1230 -0.1425 -0.0480
16286W        W59302  26.862   6.851  20.644 -0.0920 -0.0937  0.2397
16287W        W59303  16.073   9.886  27.871 -0.1407  0.1271 -0.0397
16288W        W59304  21.261   3.501  15.671  0.1993  0.1030  0.1609
16289W        W59305  27.719  24.819  18.489 -0.0912  0.0395  0.0153
16290W        W59306   7.451  28.215  20.231 -0.0199  0.1479 -0.2853
16291W        W59307  24.199   5.076   9.164  0.0077  0.0764  0.3279
16292W        W59308  31.463  17.604   4.076 -0.4015 -0.2702  0.1894
16293W        W59309  33.545   6.610   2.168  0.1859  0.4676 -0.0670
16294W        W59310  17.265  26.637  14.499  0.1517 -0.2184 -0.0156
16295W        W59311  26.419   0.382  24.978  0.0956  0.0449  0.0650
16296W        W59312  29.710   2.912  17.706  0.1042 -0.0333 -0.3548
16297W        W59313  31.272  16.166  19.803  0.0822  0.1897  0.0686
16298W        W59314   5.458  15.248   3.988 -0.2654 -0.2047  0.0230
16299W        W59315   0.535   8.724  21.639  0.4680 -0.1204 -0.1413
16300W        W59316  26.000   8.336  25.885 -0.2109 -0.0574  0.1456
16301W        W59317  11.875  15.977  23.636  0.0156 -0.0696 -0.0862
16302W        W59318  18.429   5.119  18.829 -0.0347 -0.3470 -0.1618
16303W        W59319  22.582  32.977   6.881 -0.0284  0.2046 -0.1090
16304W        W59320   2.548   4.837  16.212 -0.0886 -0.4586  0.2875
16305W        W59321  24.265  31.013  19.754  0.0394 -0.0129 -0.1379
16306W        W59322  30.395  19.591  22.753  0.0893  0.2925 -0.0608
16307W        W59323   4.031   9.280  22.510  0.1314 -0.0521  0.0596
16308W        W59324  29.595  16.945  29.161 -0.1976 -0.0280 -0.0746
16309W        W59325  34.682   7.822  25.875  0.1383 -0.0969  0.0567
16310W        W59326  31.579   6.690  25.719  0.2296 -0.0139 -0.0472
16311W        W59327  24.918   5.468  18.718  0.0219  0.2058  0.1907
16312W        W59328  24.832   0.315  23.565 -0.0626 -0.0333 -0.2228
16313W        W59329  17.972  21.446  20.482 -0.1255  0.3820  0.1976
16314W        W59330   9.683   3.178  27.975 -0.1797  0.1871 -0.2131
16315W        W59331  14.893   2.104   4.060 -0.0223  0.1588 -0.1620
16316W        W59332  25.375  12.045   3.650  0.0735  0.0509 -0.2052
16317W        W59333  26.822  11.513   9.366  0.3515 -0.1603 -0.1680
16318W        W59334  11.878   8.732  15.483  0.0178 -0.0157  0.0412
16319W        W59335  14.886   7.417  24.411 -0.1493 -0.0735  0.3208
16320W        W59336   4.889  12.370  27.492  0.1172 -0.1662  0.0388
16321W        W59337  26.967  29.579  27.223 -0.0087  0.2161  0.0596
16322W        W59338  24.382   2.020  19.578 -0.1825 -0.1317  0.2644
16323W        W59339  23.985  17.430  19.634 -0.2042 -0.1565 -0.2170
16324W        W59340  14.498  25.676  13.673 -0.2068 -0.0809 -0.0529
16325W        W59341  12.865   8.155   8.772  0.0884 -0.1594 -0.1484
16326W        W59342  31.459  11.306  23.648  0.1473 -0.3277  0.0831
16327W        W59343  23.305   4.874   9.459  0.0749 -0.2140  0.1704
16328W        W59344  17.400   8.974  16.324 -0.0579 -0.3346  0.1831
16329W        W59345  30.798  14.907  15.978  0.1806 -0.1415 -0.1505
16330W        W59346   2.940  32.024  27.141 -0.0269  0.2732 -0.0415
16331W        W59347  31.813  14.166  21.828 -0.2977  0.0645  0.0560
16332W        W59348  15.890  26.060  15.401  0.0742 -0.0860  0.0025
16333W        W59349   2.267  31.612  18.102 -0.0066  0.0258 -0.2071
16334W        W59350   0.916   9.719  17.662  0.2032 -0.1200 -0.0615
16335W        W59351  16.121  34.387  15.030  0.5668 -0.2231 -0.0336
16336W        W59352   1.321   5.546  25.870  0.1767 -0.3376  0.0677
16337W        W59353  34.667   9.895  25.987  0.1941 -0.2381 -0.4321
16338W        W59354  20.021   9.056  18.287  0.1211  0.0804  0.3102
16339W        W59355  25.612  21.585  16.666 -0.2910  0.2447  0.3103
16340W        W59356  26.988   1.630  16.525  0.3822  0.2471  0.0345
16341W        W59357   1.311   4.166   4.454  0.0083  0.0251  0.1046
16342W        W59358  31.582  33.978  25.440  0.2595 -0.0167 -0.1868
16343W        W59359   7.287  11.405  17.063 -0.0590  0.1679 -0.2475
16344W        W59360  22.319  15.657  17.082  0.0928 -0.0221 -0.1313
16345W        W59361  29.651  29.666  17.323 -0.1880 -0.1917 -0.0008
16346W        W59362   6.513  19.572  25.388 -0.3189 -0.3899  0.1206
16347W        W59363   9.240  20.694  15.960 -0.2255 -0.0512  0.1325
16348W        W59364  32.819  14.491  26.126 -0.1272  0.0036 -0.3013
16349W        W59365  17.152  10.085  22.190  0.2246 -0.3138  0.0135
16350W        W59366  17.311  13.617  13.806  0.0733 -0.2454 -0.1069
16351W        W59367  19.973  28.398  20.615  0.0233 -0.0852 -0.0690
16352W        W59368  26.181  10.537   1.213  0.0816 -0.0260 -0.2055
16353W        W59369  18.193  14.545  24.804 -0.0519  0.2312 -0.1137
16354W        W59370  20.414  30.874  23.110 -0.1047 -0.2428 -0.2946
16355W        W59371  19.632   4.792  20.714  0.2555  0.3088 -0.3749
16356W        W59372   7.322  15.583  16.886  0.1229 -0.1505  0.3830
16357W        W59373  23.483  23.692   6.316 -0.1132  0.0985 -0.2901
16358W        W59374   0.437  22.264  15.132 -0.1421  0.3268  0.2742
16359W        W59375  18.725  11.131  22.061  0.2825  0.0465 -0.1439
16360W        W59376  14.688  31.281   5.843 -0.1361  0.4441  0.1052
16361W        W59377  22.911  24.842  22.193  0.0178 -0.0469 -0.1632
16362W        W59378  26.060  34.761  24.744 -0.1956  0.1719 -0.0821
16363W        W59379   2.113  29.663   8.628 -0.1922  0.2516 -0.0792
16364W        W59380  32.875   7.992  16.581 -0.2039  0.1883  0.0977
16365W        W59381   1.319   3.373  18.949 -0.1066 -0.2322 -0.2452
16366W        W59382  34.149  11.917  26.355 -0.0735 -0.5569 -0.0453
16367W        W59383   6.547   3.657  20.185  0.3938  0.0856  0.0727
16368W        W59384  10.988   7.146  27.863  0.1792 -0.0604  0.2842
16369W        W59385   9.249  34.266  19.901 -0.1982 -0.0395 -0.0757
16370W        W59386  25.165  29.709  20.750  0.3846 -0.1204 -0.2264
16371W        W59387  24.121   3.216  22.317 -0.0519  0.0870 -0.0779
16372W        W59388   1.626  10.528  17.810  0.0599 -0.0108  0.1351
16373W        W59389  19.144  30.375  27.153 -0.1055  0.2622 -0.0843
16374W        W59390  17.306   4.787  25.122 -0.0434  0.1550  0.0343
16375W        W59391  28.185  25.331  22.531 -0.0467  0.0889 -0.0637
16376W        W59392  33.231  30.639  19.366 -0.0623 -0.0471  0.1534
16377W        W59393   0.074  26.058  17.578 -0.0571 -0.0371 -0.1519
16378W        W59394  32.653   2.160  18.525  0.1833 -0.1309 -0.0431
16379W        W59395  23.278   1.334  16.710 -0.2399  0.0177 -0.1851
16380W        W59396   8.636   5.579  24.635  0.0512  0.1204  0.0671
16381W        W59397  19.652  15.507  15.007  0.1550  0.3158  0.1457
16382W        W59398   9.152   9.355  23.550  0.1999  0.2008 -0.2310
16383W        W59399  21.800  26.730  23.360  0.1480 -0.1106 -0.1382
16384W        W59400   7.848   0.280  24.056  0.1556  0.1941  0.1235
16385W        W59401   6.570   9.032   2.186 -0.3281  0.0236 -0.0056
16386W        W59402  32.597   8.946  15.547  0.2020  0.0400 -0.0202
16387W        W59403  19.486  16.226  19.384  0.1968 -0.0757  0.1566
16388W        W59404  11.917  31.049   3.756  0.3866  0.0289  0.1799
16389W        W59405   8.041  30.153  23.454 -0.1149 -0.0142  0.3478
16390W        W59406   0.868  20.381   1.817  0.1404 -0.1720 -0.0493
16391W        W59407  18.537  33.503  18.011 -0.0940  0.1672  0.1785
16392W        W59408  19.476   2.459  24.748 -0.1783 -0.2435  0.0631
16393W        W59409  22.262  33.876   2.475 -0.0243  0.2123  0.0750
16394W        W59410   6.542  26.045   7.771 -0.2247 -0.0469  0.3034
16395W        W59411  28.864  27.134  23.706  0.3282  0.0328  0.2208
16396W        W59412  32.447  32.792  25.770 -0.1528 -0.0717 -0.2760
16397W        W59413  24.480  26.021   6.282 -0.1980 -0.0422 -0.1031
16398W        W59414  24.022  24.003  22.077 -0.0155  0.0003 -0.1241
16399W        W59415  28.760  13.669  19.982 -0.1465  0.0388  0.3187
16400W        W59416   0.499   0.338  18.314 -0.4138 -0.0308  0.2303
16401W        W59417  19.006  13.761  28.744  0.3873  0.0342  0.1388
16402W        W59418  24.152  34.362  22.126 -0.1161  0.1774 -0.4300
16403W        W59419  23.986  15.014  18.370  0.1513  0.1578 -0.1462
16404W        W59420  29.335  10.096  27.928 -0.0843  0.2416  0.2435
16405W        W59421  25.122   6.388  15.435  0.0052  0.1407 -0.1867
16406W        W59422  28.857   6.469  27.762 -0.1947  0.1263  0.0336
16407W        W59423  33.506   7.428  17.232 -0.0086 -0.1451  0.0841
16408W        W59424  17.043   0.068   4.585 -0.0225  0.3583  0.3858
16409W        W59425  11.212   0.615  14.941 -0.2253 -0.2171 -0.0902
16410W        W59426  25.239  14.399   8.717 -0.0755  0.1307 -0.3111
16411W        W59427   3.800  15.905  23.315  0.1130 -0.3508 -0.0593
16412W        W59428  29.571  30.199  21.074 -0.0035 -0.0246 -0.4044
16413W        W59429  25.226   9.476  21.719 -0.1876 -0.0212 -0.1939
16414W        W59430  31.264  13.227  18.806  0.1306 -0.0157 -0.0327
16415W        W59431  29.068  31.023  16.333  0.1100 -0.2895 -0.1521
16416W        W59432  26.108  19.066  24.890 -0.2349  0.3929 -0.0575
16417W        W59433   5.914  26.873  21.793 -0.0917  0.1685  0.1124
16418W        W59434   9.579  14.216  15.624 -0.0174 -0.1724 -0.0711
16419W        W59435  33.684  27.738  23.256  0.3529 -0.1627  0.0485
16420W        W59436  20.467  33.152  21.040  0.2322 -0.2166 -0.2221
16421W        W59437  19.101   7.041  26.346 -0.1987  0.2337  0.2728
16422W        W59438  21.154  29.053  14.145 -0.1570 -0.1144  0.1028
16423W        W59439  18.104   7.962  27.725 -0.1357  0.2024  0.2764
16424W        W59440  23.913   6.460  17.661 -0.0643  0.1608 -0.0184
16425W        W59441  16.696  34.486  29.057  0.1415 -0.0150  0.3401
16426W        W59442   1.564   3.188  24.435  0.0436 -0.2398 -0.0095
16427W        W59443  24.153  34.501  22.591 -0.1650  0.0364  0.1445
16428W        W59444  14.705   2.639  16.220  0.3131  0.0580  0.1068
16429W        W59445  31.691  13.673   7.128  0.1712  0.0920 -0.2509
16430W        W59446  27.133   6.373   0.719 -0.1812 -0.1511 -0.1810
16431W        W59447  28.270  15.785  25.933  0.0069  0.1392  0.3634
16432W        W59448   7.957   9.255  18.813 -0.1168 -0.0749 -0.0677
16433W        W59449  21.494   1.853  27.699 -0.3033  0.2837 -0.1361
16434W        W59450  29.916  12.050  22.525 -0.1380  0.0554  0.1475
16435W        W59451  12.716  33.035  22.694  0.0689  0.2533 -0.0709
16436W        W59452   9.708  26.764  24.161 -0.4239 -0.0177  0.3041
16437W        W59453   0.202   1.415  17.137  0.2177  0.2520  0.0571
16438W        W59454  26.399  11.556  25.439  0.1988  0.2236 -0.0130
16439W        W59455  22.991   3.208  19.167 -0.2325  0.1082  0.2858
16440W        W59456  34.377  19.623  10.360 -0.0469  0.0100  0.1058
16441W        W59457  18.123   1.793  13.990  0.0297  0.0410 -0.5307
16442W        W59458  27.551  16.234  27.231 -0.2870  0.2223 -0.0810
16443W        W59459  21.362  29.296  25.625  0.1407 -0.0846  0.1513
16444W        W59460  28.269  19.905  16.077 -0.4122 -0.1390  0.0826
16445W        W59461   1.151  12.600  24.161  0.0646 -0.0986 -0.0153
16446W        W59462  20.739  16.582  12.931 -0.0336  0.0568  0.0458
16447W        W59463  29.170   3.267  17.093 -0.0977 -0.1526  0.0972
16448W        W59464  17.674  18.538  14.788 -0.0809  0.1791 -0.0757
16449W        W59465   2.749  27.189   2.631 -0.1093  0.1331  0.0878
16450W        W59466  23.086  14.865  22.869  0.0340  0.4990  0.0651
16451W        W59467  31.908   9.341   0.433  0.0514 -0.1744  0.0360
16452W        W59468  25.381   6.698  21.517  0.2328 -0.2219 -0.0887
16453W        W59469  18.980   9.620  27.396 -0.1965 -0.0708  0.0742
16454W        W59470  28.419  20.627  28.941  0.2992 -0.1269  0.1523
16455W        W59471   6.564   3.962  18.109 -0.0503 -0.1584  0.1019
16456W        W59472  31.726  14.127  19.980  0.1483  0.0953  0.4107
16457W        W59473  28.861   5.733  20.646  0.0978 -0.1710 -0.1734
16458W        W59474  19.192   4.108  23.571 -0.0153 -0.0684  0.0486
16459W        W59475  29.935  17.415  15.469 -0.0889  0.1479 -0.1108
16460W        W59476  20.775  12.686  21.165  0.0357 -0.1356 -0.1684
16461W        W59477  30.011   5.307  25.339  0.1293  0.4525 -0.0520
16462W        W59478   8.978  31.959  20.021  0.0543 -0.1563  0.1960
16463W        W59479  33.756  34.126  22.674  0.0508 -0.1941  0.0431
16464W        W59480   5.353   8.056  25.906 -0.0430  0.2819  0.0711
16465W        W59481  10.034  15.324  19.321 -0.0307  0.4605 -0.0813
16466W        W59482  32.085  17.560  14.659 -0.1514 -0.0044  0.1681
16467W        W59483  24.087  23.477  19.144 -0.1910 -0.0262 -0.1317
16468W        W59484  24.521  25.338  20.963 -0.1186  0.3491  0.1228
16469W        W59485  20.856  14.714  14.313  0.3846 -0.0186  0.2783
16470W        W59486  31.189  27.895  25.508 -0.0791  0.4247  0.0213
16471W        W59487   2.697  29.340   1.857  0.3914 -0.3065 -0.1216
16472W        W59488  28.330  11.539   5.177 -0.0452  0.0945  0.1194
16473W        W59489  24.036  31.031  15.322 -0.1981  0.1295 -0.0544
16474W        W59490  19.197   2.628  15.111  0.0684  0.1804  0.2628
16475W        W59491  19.481   5.425  17.772 -0.0156 -0.3170 -0.1241
16476W        W59492  21.721  29.598  27.596  0.0895  0.0505 -0.1076
16477W        W59493  26.140  33.943  17.693  0.0266 -0.1353  0.0505
16478W        W59494  21.013  10.514  23.504  0.0900  0.4055  0.0000
16479W        W59495  33.054  19.919  17.572  0.0345 -0.2252 -0.0780
16480W        W59496   8.578  23.624  25.064 -0.1819 -0.2642  0.1898
16481W        W59497  25.788  29.774  24.614  0.2640 -0.0694  0.0678
16482W        W59498  29.674  10.021  20.380 -0.0452 -0.0548 -0.1475
16483W        W59499  34.365  17.991   2.125  0.1753  0.0609 -0.0710
16484W        W59500  17.853   5.326  17.448  0.0628  0.1581 -0.2167
16485W        W59501  26.793  18.098  17.698  0.1474  0.1037  0.1102
16486W        W59502  27.585  22.998  25.205 -0.1568 -0.0272  0.1879
16487W        W59503  20.141   3.373  26.889  0.1785 -0.2431 -0.1925
16488W        W59504  29.959  10.335   0.329 -0.0426 -0.0017  0.0258
16489W        W59505  32.430  28.860  18.544 -0.1917  0.0670  0.1540
16490W        W59506  15.015   5.959  23.906 -0.2840  0.3364 -0.0048
16491W        W59507   2.886   8.358  21.246  0.1939 -0.1111 -0.1666
16492W        W59508  30.558  33.645  28.111  0.2290  0.2078 -0.2980
16493W        W59509  34.256  14.798  28.347  0.1314 -0.4349 -0.0212
16494W        W59510  27.932  10.985  20.798 -0.1494  0.1678  0.1624
16495W        W59511   9.022   1.654  26.306 -0.0765 -0.0609 -0.3931
16496W        W59512  27.867  16.917  23.183 -0.0353 -0.0708 -0.1082
16497W        W59513  28.070   4.093  20.510  0.2023 -0.3734  0.1536
16498W        W59514  23.209  31.236  16.789  0.1274  0.2404  0.0607
16499W        W59515  24.178  12.836  14.957  0.0109 -0.1732 -0.1158
16500W        W59516  31.845   0.076  15.523  0.0711 -0.2131  0.0739
16501W        W59517  32.907   9.419  18.142 -0.3680  0.0540  0.1074
16502W        W59518   1.284  16.755  21.972  0.0772  0.1174  0.0899
16503W        W59519  24.670   1.272  21.106 -0.1823 -0.1719  0.2940
16504W        W59520  31.622  12.768  25.322  0.1484  0.1006  0.1017
16505W        W59521  21.035  32.839  24.119 -0.0554  0.2063  0.0428
16506W        W59522  19.810  31.192  23.901  0.1349  0.1433 -0.0919
16507W        W59523  20.514   6.016  18.865  0.0106  0.1981 -0.0577
16508W        W59524   3.207  29.000   1.902  0.2415  0.0791  0.2610
16509W        W59525  31.788  31.300   7.252 -0.0748  0.1635  0.1219
16510W        W59526  12.580  12.998   0.871 -0.1261  0.2845  0.0052
16511W        W59527  22.828   6.237  21.917 -0.1107  0.3697  0.2967
16512W        W59528  34.097  17.664  22.301  0.0642 -0.1790  0.3292
16513W        W59529  24.144   9.119   4.735  0.1106  0.0676 -0.3644
16514W        W59530  19.718  30.865  25.313  0.0732  0.1592 -0.0667
16515W        W59531  16.243  31.862   8.201  0.2344  0.1154  0.0731
16516W        W59532  23.061   2.171  16.429  0.0296 -0.0461 -0.0826
16517W        W59533  33.100   0.820   2.022  0.2361  0.1079  0.0670
16518W        W59534   0.437  34.033  22.326  0.3792 -0.0397  0.0214
16519W        W59535  27.383  11.763  16.530 -0.0120  0.1777 -0.1485
16520W        W59536   3.041   3.282  14.861 -0.2483 -0.1759 -0.0317
16521W        W59537  21.293  18.088  13.888 -0.1190 -0.1862  0.0061
16522W        W59538  13.747   6.576  15.611 -0.0734 -0.0608 -0.2031
16523W        W59539  20.758  32.620  15.574 -0.0745  0.1548 -0.1725
16524W        W59540  31.311  27.514  17.830  0.1010 -0.0405  0.1302
16525W        W59541  29.794   9.534   1.808  0.1208 -0.0566 -0.0913
16526W        W59542   1.676  14.041   2.717 -0.3915  0.0004  0.2143
16527W        W59543  27.785  24.814   6.863  0.2615  0.1840 -0.2510
16528W        W59544  22.236  26.323  27.857  0.0203  0.0260 -0.3244
16529W        W59545  23.168   9.222  18.685 -0.0850  0.2459 -0.2180
16530W        W59546  10.146   1.410  15.837  0.0103 -0.0451  0.2257
16531W        W59547   5.769  33.603  21.634 -0.1351 -0.0882 -0.0368
16532W        W59548  23.412  12.969   7.254 -0.0683  0.1090 -0.5724
16533W        W59549  23.972  33.342  22.941 -0.4244 -0.1249  0.2907
16534W        W59550  29.361  31.608  25.468  0.0647  0.1438 -0.0017
16535W        W59551  11.861  33.918  21.188  0.0899  0.0747 -0.0666
16536W        W59552  32.364  34.357  14.931 -0.3010 -0.0641 -0.0719
16537W        W59553  26.906   0.433  25.525 -0.0901  0.1926  0.0463
16538W        W59554   8.133  30.154   9.748 -0.2323  0.0972 -0.4285
16539W        W59555   4.695   8.899  24.777 -0.2986  0.3199 -0.1119
16540W        W59556  30.837  12.371  21.248  0.1068  0.0680  0.1482
16541W        W59557  32.690   1.767  22.821  0.0026  0.3370 -0.3481
16542W        W59558  23.213  29.970  19.721  0.0025 -0.1113  0.0562
16543W        W59559   3.740   6.406  21.851  0.2795 -0.0410 -0.1242
16544W        W59560  16.936  18.635  22.466  0.2980 -0.0886 -0.0092
16545W        W59561  22.373   2.806  18.998 -0.2735  0.2310 -0.3712
16546W        W59562  25.249  32.798   0.749 -0.0907  0.1734 -0.1590
16547W        W59563   4.674  17.642  13.470  0.0929  0.1856  0.1099
16548W        W59564  23.722  33.131  21.216 -0.0223  0.0551  0.2699
16549W        W59565  23.637   8.296  19.947  0.0350 -0.0864 -0.0530
16550W        W59566  20.515  12.124   2.991 -0.3873  0.2328 -0.1411
16551W        W59567   8.230  10.459  14.871 -0.1758  0.0513  0.2655
16552W        W59568   4.841  13.728   3.761  0.1239  0.0150 -0.2064
16553W        W59569  20.017   6.253  14.267 -0.1180 -0.0778  0.1260
16554W        W59570  34.634   9.033  21.345 -0.3606  0.0535 -0.1653
16555W        W59571  26.146  20.761  28.067 -0.1132  0.1018  0.3999
16556W        W59572  21.799  12.552  27.129 -0.0297 -0.1776  0.2029
16557W        W59573  24.459  23.354  20.338 -0.1080 -0.1131 -0.2053
16558W        W59574   3.640   5.552  18.728 -0.2315  0.1176  0.1738
16559W        W59575  23.133  15.684  25.724 -0.0126 -0.1675 -0.0129
16560W        W59576   0.821   6.886  21.183 -0.0064 -0.0759 -0.0630
16561W        W59577  25.210  19.585  16.746 -0.1884 -0.1043 -0.2087
16562W        W59578  21.168  34.441  20.358 -0.4232 -0.1367  0.0431
16563W        W59579   5.613   1.303  14.246  0.2119 -0.0843 -0.0217
16564W        W59580  28.250  10.651  17.358 -0.3082 -0.2343 -0.0738
16565W        W59581  24.116  13.610  23.235  0.1638 -0.0125  0.0233
16566W        W59582  20.025  33.930  16.469 -0.2543  0.0316 -0.0774
16567W        W59583  26.639   8.119  21.060  0.1447 -0.2973 -0.0839
16568W        W59584  29.768  33.217  27.141  0.3523 -0.0632 -0.0410
16569W        W59585  24.437   3.029  24.176 -0.0708  0.1062 -0.3002
16570W        W59586  21.410  17.248  14.467  0.0782 -0.2096 -0.0791
16571W        W59587  20.873  25.223  17.791 -0.0238  0.3835 -0.1099
16572W        W59588  17.858   2.521  22.446  0.0946  0.0403  0.1102
16573W        W59589  32.176  30.731  17.488  0.1433 -0.0260  0.0220
16574W        W59590   3.004  28.032  20.663  0.1924  0.0644 -0.5987
16575W        W59591  23.105  31.781  17.633  0.2763  0.0759  0.2802
16576W        W59592  22.662  32.445  23.307 -0.0396 -0.4134 -0.1258
16577W        W59593  22.670   4.327  20.453 -0.0122 -0.7237  0.3277
16578W        W59594  32.965   0.894  28.727  0.2845  0.1253 -0.3414
16579W        W59595  29.467   7.165  24.408  0.2366  0.0853  0.2135
16580W        W59596   8.079   7.327  16.167  0.0661 -0.1348  0.2775
16581W        W59597  21.692  10.707  14.988  0.0685  0.1104 -0.1047
16582W        W59598   1.529  29.460   2.186  0.0660  0.1059 -0.0641
16583W        W59599  10.038  13.986  21.623  0.0041  0.0876  0.3874
16584W        W59600  32.986  15.843  18.236  0.1052 -0.3282 -0.0881
16585W        W59601  27.171  12.174  15.307  0.1356 -0.2415  0.3578
16586W        W59602   4.965   0.244  21.990  0.0467  0.1883 -0.2582
16587W        W59603  26.084  17.587  17.593  0.1870 -0.1439  0.1601
16588W        W59604  28.351  31.560  23.894  0.0180  0.0632  0.1336
16589W        W59605  21.207   6.911  16.949  0.3412  0.0193 -0.0488
16590W        W59606  34.170   5.708   8.160  0.2290  0.2140 -0.0882
16591W        W59607  30.681  17.749   8.070 -0.4029 -0.2394 -0.0458
16592W        W59608  12.280   6.877  28.059 -0.0583 -0.1512  0.2977
16593W        W59609   3.355   3.892  24.910 -0.2640  0.2125  0.1873
16594W        W59610  34.691   3.541  17.676  0.2140  0.1688 -0.1329
16595W        W59611  23.553  11.531  25.232  0.1266  0.0918 -0.1821
16596W        W59612  10.848   4.685  23.009  0.2757 -0.2997 -0.0684
16597W        W59613  32.838   6.323  25.319 -0.2078  0.0768  0.0171
16598W        W59614  33.043   0.218   0.944  0.0763  0.1985 -0.1357
16599W        W59615   9.591   4.579  20.809  0.1667 -0.0450  0.0833
16600W        W59616  25.258  11.377  14.876 -0.0211 -0.1347 -0.0597
16601W        W59617  13.882   1.241  15.276 -0.3669  0.0013  0.2508
16602W        W59618  14.921  33.938  26.322  0.2186  0.3677  0.1403
16603W        W59619  21.105   0.076  21.962 -0.0219  0.3345  0.3870
16604W        W59620  16.771  19.640  14.803 -0.1564  0.3331 -0.0551
16605W        W59621  18.062   3.639  15.403 -0.1882  0.0853 -0.0177
16606W        W59622   6.217   3.323  23.795 -0.0469  0.2149 -0.0112
16607W        W59623  20.263   7.900  20.040  0.1749 -0.1029 -0.0808
16608W        W59624  26.479  21.884  22.269  0.1299 -0.0798 -0.4029
16609W        W59625  22.062   0.984  18.565 -0.2066 -0.1094  0.1334
16610W        W59626  29.921  33.021  22.319 -0.0032  0.1629  0.0718
16611W        W59627  15.671   1.079  17.399  0.1348  0.2355 -0.1574
16612W        W59628  29.504  27.372  23.797  0.2724  0.2440  0.5638
16613W        W59629  28.200  12.278  14.735  0.1137  0.1610 -0.1238
16614W        W59630  26.584   2.118  17.241  0.3180 -0.1773  0.0922
16615W        W59631  13.540   3.642  17.862  0.2335 -0.0035 -0.0415
16616W        W59632  24.855  25.866   4.234 -0.1786 -0.1305  0.2295
16617W        W59633  13.845   4.115  22.930  0.0716 -0.1388  0.1168
16618W        W59634  19.174  25.222  19.962 -0.0356 -0.1066  0.0794
16619W        W59635  12.475   4.053   7.686  0.5413 -0.1122 -0.5604
16620W        W59636   9.504   1.951  19.768 -0.0709  0.0939 -0.0483
16621W        W59637   5.080  30.972  28.085  0.2044 -0.3836 -0.1186
16622W        W59638  15.680  14.040  13.195  0.0701  0.2087  0.2440
16623W        W59639  27.842  12.482  16.277  0.0820  0.0753  0.3811
16624W        W59640  17.989  11.207  16.246  0.1112  0.2679 -0.0120
16625W        W59641  23.270  10.021  29.181  0.0830 -0.1294 -0.0353
16626W        W59642  33.583  11.260  23.056 -0.0852  0.3046  0.1248
16627W        W59643  20.262  33.263  20.052  0.0266  0.1587  0.0353
16628W        W59644  18.614   9.456  21.052 -0.0011  0.3455  0.2899
16629W        W59645  30.610  24.063  16.098 -0.1406 -0.3422  0.0348
16630W        W59646  11.146  31.692  17.183 -0.0697 -0.0418 -0.2058
16631W        W59647   2.682   4.256  14.350 -0.1712  0.1096 -0.0182
16632W        W59648  26.604   0.885  20.092 -0.0436  0.1641  0.1127
16633W        W59649  22.994   2.772   2.827 -0.0872 -0.0235  0.3770
16634W        W59650  16.161  12.105  14.869  0.0030 -0.0306  0.0599
16635W        W59651   5.687  19.642  24.755 -0.0163  0.3151  0.0808
16636W        W59652  21.600   1.781  26.807  0.1213 -0.0841  0.4618
16637W        W59653  30.053   3.413  24.828  0.0718  0.2138  0.4270
16638W        W59654  24.607   8.707  18.624  0.0263  0.1273 -0.1643
16639W        W59655   0.651  10.069  26.227 -0.1629  0.1873  0.2083
16640W        W59656  17.241   5.348  20.273  0.1834  0.2275 -0.0784
16641W        W59657  33.610   5.526  16.196  0.0138 -0.1266 -0.0748
16642W        W59658  12.622  24.281  18.585  0.3742 -0.1446 -0.0286
16643W        W59659   9.114  26.951  18.031  0.1899  0.0589 -0.0180
16644W        W59660  13.137   9.018   8.149  0.2220  0.0449 -0.2752
16645W        W59661  16.902   1.532  21.109  0.0630 -0.1753 -0.0913
16646W        W59662  34.736   6.683  15.881 -0.1866  0.0562 -0.2879
16647W        W59663  26.554   4.336   0.911  0.1349 -0.2155  0.1724
16648W        W59664  18.130   2.389   8.704  0.0005  0.0424  0.0510
16649W        W59665  23.827  15.394  21.917 -0.0062 -0.0806 -0.1012
16650W        W59666  10.912   2.643  16.846  0.0047  0.2633 -0.3530
16651W        W59667  29.942   0.608  21.036 -0.7387  0.1063  0.0325
16652W        W59668  25.325   5.105  24.248 -0.0405  0.0885  0.2989
16653W        W59669  28.680   5.883   5.637  0.5790 -0.1634  0.2091
16654W        W59670  31.245  30.095   2.502 -0.2275  0.0091  0.0599
16655W        W59671  32.709   0.260  21.744 -0.1578  0.2782 -0.1372
16656W        W59672   3.541  16.474  20.205 -0.4894 -0.0521  0.0160
16657W        W59673   1.919  22.847   6.020 -0.1753 -0.1964  0.0494
16658W        W59674  14.320  24.594  16.774  0.1558 -0.5135 -0.1127
16659W        W59675  30.648  24.257  16.932  0.2785 -0.2218  0.1148
16660W        W59676   0.974  24.878  27.994  0.1008 -0.1516 -0.1081
16661W        W59677  32.480  11.465  17.275 -0.0456  0.1446 -0.0142
16662W        W59678  34.190  34.092   1.406 -0.1321 -0.0589  0.2245
16663W        W59679  31.102   6.858  19.247  0.1647 -0.0037  0.2804
16664W        W59680  13.357   6.988   4.341  0.2253  0.0542 -0.0018
16665W        W59681  32.841  14.172  15.196 -0.0270 -0.1801  0.0186
16666W        W59682   0.337  10.247   0.178  0.1724 -0.0343 -0.1730
16667W        W59683  27.089   5.109   0.504 -0.0891  0.3815  0.0070
16668W        W59684   4.194  15.621   5.267 -0.3161 -0.2510 -0.0043
16669W        W59685  29.879   4.732  19.591 -0.0660 -0.1022 -0.0380
16670W        W59686  26.018   2.275  22.814 -0.0394 -0.1221  0.0325
16671W        W59687  28.274   2.116  24.086  0.0319 -0.2082  0.3491
16672W        W59688  24.910  29.060  11.140 -0.1884 -0.1282 -0.0376
16673W        W59689  33.581   4.788  16.944  0.1017  0.1771 -0.0680
16674W        W59690  13.042   8.459  13.790 -0.0325 -0.1139 -0.0944
16675W        W59691  18.815   5.586  21.117 -0.0281  0.1117 -0.0453
16676W        W59692  33.878   6.799  18.369 -0.1544 -0.5127  0.2062
16677W        W59693  31.569   7.315  27.953  0.2977 -0.3080  0.0908
16678W        W59694  13.055   7.468  19.776  0.1939  0.0679 -0.2268
16679W        W59695   0.674   3.607  18.470 -0.0086  0.0500  0.0728
16680W        W59696  18.614   3.010  15.421 -0.1905 -0.1635 -0.0007
16681W        W59697  24.411  31.611   4.952  0.3494  0.1313 -0.1222
16682W        W59698  14.995  32.299  25.621 -0.2849  0.0526 -0.2462
16683W        W59699  33.546   9.935  22.374  0.3584 -0.1645  0.1780
16684W        W59700  13.261   5.548  27.364 -0.3256 -0.3701  0.2886
16685W        W59701  34.013   2.065  29.037  0.2594 -0.1410  0.0805
16686W        W59702  32.422  29.063  28.665  0.0324  0.0365  0.0804
16687W        W59703  31.516   7.063  16.268 -0.0824 -0.0072 -0.0890
16688W        W59704   8.662   9.794  21.274 -0.0862 -0.0465 -0.3181
16689W        W59705  32.037   8.620  26.872  0.2333 -0.1463  0.0128
16690W        W59706  25.651   2.718  26.883  0.0186  0.2130 -0.3795
16691W        W59707  34.291  14.736  20.058 -0.0888  0.4559 -0.0170
16692W        W59708   5.136  28.170  13.731  0.0923  0.1571  0.2528
16693W        W59709   5.791  26.995  19.114 -0.2058  0.2642 -0.0319
16694W        W59710  20.128  28.480  19.176  0.2231  0.0809  0.2079
16695W        W59711  25.176  16.366  22.216  0.3117 -0.1540  0.3637
16696W        W59712  20.279   7.214  21.089  0.4333 -0.0468  0.1761
16697W        W59713  29.970   8.308  24.007 -0.0401 -0.0776 -0.3309
16698W        W59714  21.127  31.239  22.926 -0.1167 -0.0735  0.0589
16699W        W59715  22.406   0.623  24.582  0.1166 -0.3829 -0.1659
16700W        W59716  23.024  34.202  26.119  0.4486 -0.1218 -0.1469
16701W        W59717  25.125   7.303   3.396 -0.2545  0.1554 -0.2914
16702W        W59718  20.594   7.907  17.827  0.1364 -0.0438 -0.0566
16703W        W59719   8.511  15.548  19.176  0.0561  0.3140  0.0510
16704W        W59720  22.846   3.642  25.112 -0.0518  0.3995  0.1207
16705W        W59721  23.541   7.793  21.917 -0.2862 -0.2088  0.3969
16706W        W59722  30.327  33.411  20.381  0.2959  0.0357 -0.3198
16707W        W59723  30.760   0.337  17.722  0.2549  0.1461 -0.0585
16708W        W59724  16.965  14.998   4.632  0.0070 -0.3022 -0.0238
16709W        W59725  31.244  15.241   8.813 -0.0759  0.1248  0.0616
16710W        W59726  29.478  26.899  17.042  0.2122  0.0236 -0.2011
16711W        W59727  24.947   3.382  19.731  0.0273 -0.0150 -0.2794
16712W        W59728  23.464  30.029  19.142  0.0325 -0.2732 -0.4140
16713W        W59729  27.471  29.465  22.615 -0.0920 -0.1165 -0.1227
16714W        W59730  15.130   2.423  16.528 -0.2195 -0.1514 -0.0331
16715W        W59731   3.289  33.040  21.338  0.0861  0.0114  0.0301
16716W        W59732  10.974   5.494  18.606  0.0594 -0.3306  0.1595
16717W        W59733  32.246   0.236  19.953  0.0399 -0.0181  0.0964
16718W        W59734  24.383   0.445  17.073 -0.1292  0.1722  0.2618
16719W        W59735  17.640   9.502  24.907 -0.1989  0.0963  0.1818
16720W        W59736   2.877   4.886  20.723  0.0783  0.1579  0.3467
16721W        W59737  19.478   0.819  17.513 -0.0843 -0.3957  0.1360
16722W        W59738  16.360  23.762  18.361 -0.0768 -0.1557  0.2111
16723W        W59739   2.218  28.745  14.823  0.3371 -0.4474 -0.2558
16724W        W59740   2.940  16.350  15.708  0.1253 -0.1816  0.2915
16725W        W59741  32.111  11.950   3.747 -0.1404 -0.0106 -0.0457
16726W        W59742  26.621  24.244   1.009 -0.2284 -0.2585 -0.0277
16727W        W59743  26.651  15.487   2.579 -0.2295  0.0909  0.0531
16728W        W59744  19.072   7.532  21.036 -0.0757  0.0946  0.1578
16729W        W59745  20.572  26.516  21.884  0.1852  0.1997  0.1320
16730W        W59746   8.143   1.946  24.040 -0.1756  0.6348 -0.1186
16731W        W59747  21.827   7.327  17.558  0.1354  0.0747  0.3397
16732W        W59748  32.907   3.032  28.371 -0.0970 -0.0696  0.0087
16733W        W59749   7.551   8.551  21.451  0.1401 -0.1298  0.2330
16734W        W59750  26.710  27.441  20.104  0.0838  0.0189 -0.2977
16735W        W59751  26.756  11.327  21.200 -0.1077 -0.0135 -0.2115
16736W        W59752  33.433   8.402  23.609 -0.1283 -0.1275 -0.3208
16737W        W59753  16.204  14.224  27.898  0.3264 -0.0910 -0.1503
16738W        W59754  12.326   7.569  14.400  0.1069  0.0391 -0.1810
16739W        W59755   0.699  30.370  27.626 -0.0542 -0.0912 -0.3072
16740W        W59756  33.247  22.319  11.099 -0.0437  0.0442 -0.1783
16741W        W59757  27.682  13.091   1.184  0.3368 -0.2641  0.3078
16742W        W59758   2.217   4.778   1.701  0.2509  0.1337 -0.1980
16743W        W59759  24.106  25.235  28.668 -0.0641  0.0777 -0.2644
16744W        W59760  24.923   7.977   5.065  0.0895 -0.2361 -0.2000
16745W        W59761  22.861   1.423  24.201  0.2052 -0.3643 -0.0784
16746W        W59762  25.073  25.870   0.641 -0.0495 -0.1922 -0.0266
16747W        W59763   8.798   2.144  22.663 -0.0965 -0.0620 -0.0776
16748W        W59764  18.538  33.017  27.244 -0.1173  0.0061  0.0348
16749W        W59765  26.187   2.307  20.180  0.0490 -0.2971  0.3095
16750W        W59766  11.197  26.471  20.385 -0.1834 -0.3306  0.1028
16751W        W59767  22.053   8.097  18.215  0.1596 -0.2188 -0.1408
16752W        W59768  20.330   9.798  19.102  0.2585 -0.1214  0.0354
16753W        W59769  25.113  22.184   2.968 -0.5045 -0.0129  0.2423
16754W        W59770   2.612   6.099   1.352 -0.1495 -0.1240  0.0108
16755W        W59771   6.417   1.609  18.822  0.2481  0.0770 -0.0810
16756W        W59772   8.719  18.258  18.590 -0.3000 -0.1516 -0.0022
16757W        W59773  32.987   7.696  18.863  0.0481 -0.2400  0.1753
16758W        W59774  20.164   2.999  17.279  0.1874  0.1274  0.0994
16759W        W59775  20.200  12.262   0.771 -0.1804 -0.3226 -0.1892
16760W        W59776  30.526   4.383  28.145 -0.0075 -0.0439  0.1366
16761W        W59777  31.912   8.538  20.165  0.3926  0.4945 -0.2366
16762W        W59778  16.393  25.804  24.935 -0.1337  0.2476 -0.0557
16763W        W59779   9.404  12.060  14.384 -0.2283 -0.0302 -0.1298
16764W        W59780  33.143  31.480  20.721 -0.0410 -0.0378 -0.1034
16765W        W59781  30.915   3.402  17.746 -0.2302  0.1091 -0.0316
16766W        W59782   9.416  30.437  20.343 -0.0035 -0.1146 -0.1464
16767W        W59783  34.201  24.404  24.898 -0.1519  0.1143  0.4474
16768W        W59784  26.734  31.043   2.441 -0.0235  0.1260 -0.0504
16769W        W59785  15.304  32.212   1.415  0.0548 -0.4572 -0.2278
16770W        W59786  31.560  31.216  19.107 -0.1453 -0.1031 -0.0221
16771W        W59787  28.432   0.490  20.503  0.0044  0.0026  0.4220
16772W        W59788  21.928  10.451  18.541 -0.0061 -0.4292  0.0569
16773W        W59789  30.451  12.526  16.017  0.3126 -0.0673 -0.0356
16774W        W59790   3.958   6.475  23.568 -0.0513  0.0584 -0.2480
16775W        W59791  28.380  26.740  16.371  0.1285  0.1552  0.0096
16776W        W59792   5.198  30.844  27.598 -0.0314 -0.1254 -0.0104
16777W        W59793  25.943  11.399  20.850  0.1308  0.2076 -0.0043
16778W        W59794  14.874   2.997  15.732 -0.3645  0.1518  0.1368
16779W        W59795  22.898   7.596  17.876  0.0209  0.0867 -0.0991
16780W        W59796  25.410  18.126  13.985  0.2663 -0.1428 -0.3195
16781W        W59797  22.988   9.051  27.613  0.2181 -0.2848 -0.1447
16782W        W59798  27.950  18.337  18.403  0.3306  0.3544  0.3184
16783W        W59799  14.531   1.772  18.470  0.2710  0.2140  0.2530
16784W        W59800  11.580  18.478  15.542 -0.0272  0.0141  0.3135
16785W        W59801  29.733  10.904  27.153 -0.1305 -0.0042  0.2594
16786W        W59802  29.354  16.241  27.219  0.0995 -0.0592  0.1304
16787W        W59803  20.134  10.581  23.179 -0.0492 -0.0430 -0.1859
16788W        W59804  31.411  28.959  26.140 -0.1504 -0.1125 -0.0928
16789W        W59805  31.971  21.027  25.550  0.1760  0.1115 -0.0039
16790W        W59806  21.262  15.024  22.924  0.3451  0.0716  0.0542
16791W        W59807  18.473  24.947  18.204  0.1450  0.0817  0.0930
16792W        W59808  23.613  34.074  19.689  0.2839  0.0047 -0.0368
16793W        W59809   6.629   6.692  15.467  0.0046  0.2246  0.0455
16794W        W59810  29.822  23.389   4.088 -0.0550  0.1646 -0.0001
16795W        W59811  12.333  13.437   1.880  0.0303 -0.1597 -0.2657
16796W        W59812  20.833   1.523  28.102  0.2930 -0.0162  0.2173
16797W        W59813  31.902   6.103  21.216 -0.0800 -0.1334 -0.0129
16798W        W59814  34.709   1.329  15.058 -0.3065  0.0552 -0.0676
16799W        W59815  14.430  29.813   3.934  0.0225 -0.0465  0.0556
16800W        W59816   0.544  23.272  15.792  0.6379  0.1864 -0.1000
16801W        W59817  31.069   9.746  20.676  0.2578 -0.0901 -0.2198
16802W        W59818   1.377  32.415   2.164  0.4230 -0.0881 -0.1138
16803W        W59819  25.435  12.472  25.259 -0.0740 -0.1593 -0.0620
16804W        W59820  27.500   9.297  25.823 -0.1750  0.1671  0.2472
16805W        W59821  25.296  33.625  24.179 -0.0209  0.2806 -0.2143
16806W        W59822  23.304  30.461   2.363  0.2081  0.0907  0.0128
16807W        W59823  31.835   4.954  14.097  0.0439 -0.0208  0.0805
16808W        W59824   2.090   9.868  24.955  0.1231 -0.2065 -0.0815
16809W        W59825  23.919  29.696   6.427  0.1314  0.2696 -0.1098
16810W        W59826  20.212  27.969  20.443 -0.1951 -0.0365  0.1917
16811W        W59827  24.523   3.104  19.593  0.0459 -0.0607 -0.0754
16812W        W59828  25.467   5.079  17.646  0.2305  0.1205 -0.0730
16813W        W59829  17.323  29.186  21.057 -0.1353 -0.2166  0.2528
16814W        W59830  29.180   0.673  17.475 -0.3956  0.0830 -0.1343
16815W        W59831   7.825  32.463  16.782 -0.1179  0.0574  0.3336
16816W        W59832  34.086  33.701   0.033  0.1949 -0.0345 -0.0228
16817W        W59833  28.297  33.329  17.831 -0.0919  0.0438  0.4424
16818W        W59834   1.633  21.674  18.056 -0.1986  0.1546  0.1326
16819W        W59835  18.705   0.133  23.023 -0.0451 -0.0478  0.3236
16820W        W59836  30.716  15.910  22.650 -0.1715  0.4383  0.1743
16821W        W59837  23.331  34.492  16.239 -0.2646 -0.1278  0.0530
16822W        W59838  31.264  32.494   2.171  0.1418 -0.0111  0.2196
16823W        W59839  27.290  14.868  14.418  0.1234  0.0308  0.0366
16824W        W59840  31.060   0.457  22.326  0.1123  0.1367  0.1269
16825W        W59841  18.544   9.558  15.369 -0.1209 -0.3966 -0.0366
16826W        W59842  25.749   8.687  27.856 -0.0954 -0.0015 -0.2622
16827W        W59843  20.239   3.570  24.818  0.0036 -0.1353  0.1761
16828W        W59844  28.941   4.354  26.466  0.2108  0.0848 -0.1083
16829W        W59845  33.919   8.270   6.377 -0.0133 -0.3613 -0.0102
16830W        W59846   3.809   8.860  21.445 -0.3358 -0.2424 -0.1559
16831W        W59847  25.146   5.014  26.393 -0.3694 -0.4200 -0.3255
16832W        W59848  21.412  33.840  17.427 -0.1865  0.2515  0.0784
16833W        W59849  31.726   5.135   6.900  0.2475  0.1805 -0.3870
16834W        W59850  26.071  29.953  19.055  0.0667  0.1528 -0.0024
16835W        W59851  20.618  20.015  22.056  0.3003 -0.0563 -0.1221
16836W        W59852  15.563   7.012  14.899 -0.1828  0.2223  0.0014
16837W        W59853  24.056  22.409   0.686  0.2674 -0.1221  0.0828
16838W        W59854  32.102  18.099  17.271 -0.0175  0.0810 -0.2721
16839W        W59855  29.388   4.457  28.939 -0.0800 -0.0891  0.1743
16840W        W59856   5.738  16.511  24.126  0.0707  0.1434  0.1747
16841W        W59857  25.719  23.062  22.885 -0.2037 -0.0851  0.2268
16842W        W59858  26.171  15.536  16.116 -0.2512 -0.1616 -0.1255
16843W        W59859  34.521  13.649  23.112 -0.0700 -0.2151  0.1389
16844W        W59860   5.878   7.967  14.574 -0.0755 -0.1019  0.1909
16845W        W59861  19.274  11.805  26.753  0.1477  0.1528 -0.1236
16846W        W59862  19.178  10.621  27.578 -0.3032 -0.0450  0.1637
16847W        W59863  22.629  21.949  14.348  0.3656 -0.0531 -0.4907
16848W        W59864  17.961  32.782  25.617 -0.1610  0.0638  0.3048
16849W        W59865  27.772   5.037   9.506 -0.0264  0.2406  0.1835
16850W        W59866  21.268  12.392  14.586 -0.1358 -0.1663 -0.4503
16851W        W59867  33.424   7.808  18.539  0.7254  0.2116 -0.0922
16852W        W59868  27.718  29.867   6.951 -0.1669  0.1460 -0.2305
16853W        W59869  13.124   2.048  27.528 -0.0748 -0.1354 -0.0201
16854W        W59870  12.623   4.501  19.109  0.0787 -0.2296 -0.1720
16855W        W59871  24.821   2.790  17.593  0.0569  0.1452  0.0255
16856W        W59872  27.191   5.675  26.133 -0.1399  0.2129  0.0775
16857W        W59873  33.001  10.587  18.887  0.5204 -0.2323  0.2744
16858W        W59874  16.921  18.349   4.838 -0.0767 -0.0685 -0.2944
16859W        W59875  32.030   3.562  18.816 -0.2005  0.0329 -0.2368
16860W        W59876  17.804  16.074  21.822 -0.1006  0.1125 -0.0784
16861W        W59877  29.436  31.877  25.045 -0.0181  0.3320 -0.3415
16862W        W59878   3.656  33.602   8.040 -0.4399  0.1380  0.1637
16863W        W59879  29.805   7.958  25.577  0.1244  0.2394  0.2533
16864W        W59880   5.694   7.891  27.500  0.2733  0.0927  0.0350
16865W        W59881  26.185   9.000  15.225  0.2060  0.0191  0.2050
16866W        W59882  30.979  15.719  15.078 -0.1017 -0.0889 -0.0019
16867W        W59883   0.578  24.598  20.576  0.0161  0.1252  0.2317
16868W        W59884  21.274   1.731  23.636  0.1090  0.0556  0.1211
16869W        W59885   9.713  33.451  23.742  0.3773  0.0703  0.0366
16870W        W59886  28.052  33.200  21.599 -0.1496  0.4210 -0.0942
16871W        W59887   8.299  15.622  23.313 -0.1764  0.2283  0.1418
16872W        W59888  15.270  11.286  15.231  0.1023  0.2990  0.2316
16873W        W59889  26.655   6.309  26.404  0.2207 -0.1754 -0.1703
16874W        W59890  16.698   2.203  17.219  0.0073  0.1995  0.0223
16875W        W59891  17.263  33.317  24.974  0.0463  0.2770 -0.0013
16876W        W59892   1.437   9.043  22.381  0.0000 -0.0836 -0.0337
16877W        W59893  30.910  14.578  25.290  0.1690 -0.1856  0.1411
16878W        W59894  34.100  30.722  17.052 -0.2964  0.1933 -0.2507
16879W        W59895  12.687  21.999  27.327  0.2324  0.1807 -0.0011
16880W        W59896  18.547  19.542  16.906  0.2409 -0.0497  0.2094
16881W        W59897   3.983   8.458   2.837 -0.0033  0.1178 -0.0636
16882W        W59898  29.197  11.517  21.294  0.3317  0.0028  0.2337
16883W        W59899  34.150  23.239   5.021 -0.0283  0.0158 -0.0467
16884W        W59900  25.916  28.835  10.726 -0.0885  0.0682 -0.4180
16885W        W59901  14.212  30.370  25.105 -0.0725 -0.0234  0.2536
16886W        W59902  26.476  28.982   3.545  0.0543  0.2467 -0.0143
16887W        W59903   7.669   3.808  20.992 -0.0561 -0.0639 -0.1318
16888W        W59904  21.324   7.317  23.130  0.1266 -0.0518 -0.0127
16889W        W59905  10.128  18.950  14.347  0.1792  0.0130 -0.2424
16890W        W59906  29.230   9.114  27.684  0.0255  0.0605  0.2859
16891W        W59907  28.566   2.717  21.899 -0.2644 -0.3918 -0.0461
16892W        W59908  21.518   4.040  24.830 -0.1882 -0.0282  0.4075
16893W        W59909  24.448   0.010  28.990  0.0373 -0.1871 -0.4179
16894W        W59910   4.189  32.801  23.574  0.1420  0.0372 -0.1846
16895W        W59911  25.448  10.357  23.998  0.2966  0.3678  0.0380
16896W        W59912  21.888   4.575  21.143  0.0226  0.3588  0.0603
16897W        W59913  26.531  15.193  23.285  0.0012 -0.1024  0.0784
16898W        W59914  15.601   6.176  23.594 -0.1134  0.1118 -0.0128
16899W        W59915  20.972   6.099  10.168 -0.0837  0.2237 -0.0610
16900W        W59916  22.594   6.147   0.797  0.0456  0.1074  0.0222
16901W        W59917   9.945  31.328  16.247 -0.2066  0.1369  0.0923
16902W        W59918  12.350  30.343  21.791 -0.0294 -0.1662  0.1972
16903W        W59919  18.816  27.115  19.523 -0.0913 -0.0414  0.3938
16904W        W59920  12.560  33.288  16.376  0.2015 -0.0001 -0.1622
16905W        W59921  23.843  17.235  27.760  0.1642  0.0060 -0.2014
16906W        W59922  31.781  20.670  16.767  0.1094  0.2279 -0.0579
16907W        W59923  24.139  29.260  15.957 -0.0478  0.0846 -0.5166
16908W        W59924  28.917   7.782  16.957 -0.3611 -0.1525 -0.3030
16909W        W59925  21.397   5.629  16.594 -0.0019 -0.0542 -0.2689
16910W        W59926  26.303  34.734   2.672 -0.2284  0.1823 -0.2449
16911W        W59927  32.633   5.643  18.015  0.2439 -0.0032 -0.0130
16912W        W59928  29.925   4.723  20.943 -0.0289 -0.2095 -0.0070
16913W        W59929  34.117   5.235  20.471 -0.0219  0.1332 -0.0326
16914W        W59930  21.190  29.867  22.462 -0.2701  0.2390  0.1537
16915W        W59931  25.909   3.372  24.910  0.3066  0.1085  0.0576
16916W        W59932  34.094  10.638   7.023  0.1124  0.4275  0.0732
16917W        W59933  17.387   4.740  26.800 -0.1010 -0.0161 -0.0399
16918W        W59934   1.720  10.694  15.675 -0.1713  0.1297  0.0070
16919W        W59935  31.887   6.231  28.423  0.3363  0.0439  0.2207
16920W        W59936   3.222   5.091  18.255  0.2246  0.2837 -0.0452
16921W        W59937   0.913   1.057  18.873 -0.1764  0.1400 -0.1652
16922W        W59938   9.115  12.254  13.938 -0.1840  0.0033  0.0476
16923W        W59939   9.414   4.138  15.019  0.1061 -0.2877 -0.1630
16924W        W59940  20.940   1.696  21.267 -0.4068  0.1750 -0.0439
16925W        W59941  22.363  32.333   1.619 -0.0807  0.2051  0.1122
16926W        W59942  16.377  14.665  28.382  0.0122  0.1159  0.0466
16927W        W59943  25.564  13.765   1.602 -0.1355 -0.0954 -0.1865
16928W        W59944  23.781   6.911  29.308  0.0015 -0.0502 -0.0272
16929W        W59945  16.941  26.140   8.721 -0.3012  0.0478  0.0261
16930W        W59946  23.765  20.745   7.270 -0.0924  0.0765  0.0669
16931W        W59947   1.437  32.292  18.016 -0.1496 -0.2571  0.3473
16932W        W59948  28.920  19.432  26.633  0.0821 -0.4074  0.2185
16933W        W59949  32.571  26.136  24.664 -0.1870 -0.3923  0.1415
16934W        W59950  14.868  12.874  17.058  0.0829 -0.3276  0.1339
16935W        W59951  15.758   8.875  23.530  0.0688 -0.1869  0.2057
16936W        W59952  19.663   2.619  26.026  0.1352  0.1819 -0.3866
16937W        W59953   5.777  10.995  21.986 -0.1181  0.2255 -0.0449
16938W        W59954  28.720  23.880   0.654  0.1159 -0.3421  0.1012
16939W        W59955  20.245  30.170   7.896  0.2325 -0.1932  0.1732
16940W        W59956  32.313  31.419  28.002 -0.0884  0.1607  0.2941
16941W        W59957  23.292   5.345   1.722  0.1633  0.1461  0.0788
16942W        W59958  22.951  31.355  20.312  0.1209 -0.0868  0.0322
16943W        W59959  24.865  29.021   4.015  0.0622 -0.2392  0.2889
16944W        W59960  32.357  10.695  14.925  0.1171 -0.2990 -0.0251
16945W        W59961  26.685  11.904  17.000  0.1413  0.0244 -0.1510
16946W        W59962  27.672   8.514  27.800 -0.2060  0.1234  0.1275
16947W        W59963  22.882   7.752  18.813 -0.2286  0.1103  0.2068
16948W        W59964  12.890  12.266  19.552 -0.2539 -0.2273  0.0436
16949W        W59965  26.472   7.670  18.685 -0.2848 -0.2774 -0.0811
16950W        W59966  15.250  33.184  20.704 -0.1928  0.2482  0.2199
16951W        W59967  19.345   3.726  17.950  0.2163 -0.0232 -0.0531
16952W        W59968  23.082   0.945  18.609 -0.0190 -0.2629 -0.1796
16953W        W59969  23.666   1.220  25.932  0.1009 -0.0096  0.2626
16954W        W59970  30.062   3.737   1.013  0.2354  0.0392  0.1067
16955W        W59971   2.535  30.358  14.355  0.3418  0.1622 -0.0091
16956W        W59972  20.129  27.495  20.968 -0.1668  0.1283 -0.3789
16957W        W59973  30.891  24.154  16.520  0.0985 -0.0588 -0.2363
16958W        W59974  27.639  20.733  17.592  0.3319  0.1310 -0.0954
16959W        W59975   4.248  26.538  22.473  0.1614 -0.0004  0.6136
16960W        W59976  27.891   9.801  19.218  0.0168 -0.2241 -0.3635
16961W        W59977  28.695  32.789   3.568 -0.1018  0.0099  0.2476
16962W        W59978  28.808  13.899  24.483 -0.0716 -0.2701  0.1743
16963W        W59979  20.861  26.030  21.153 -0.0076 -0.1305  0.0678
16964W        W59980  17.801  18.340  22.472  0.2135 -0.1365  0.0269
16965W        W59981   1.261  10.278  26.291  0.2813 -0.1782 -0.1916
16966W        W59982  30.205   8.219  25.716 -0.2996 -0.0475 -0.1885
16967W        W59983  32.738  16.417  23.990  0.0075  0.0465  0.2053
16968W        W59984  25.487  32.055  11.490  0.0675 -0.0794  0.2055
16969W        W59985  26.143  10.438  16.113 -0.3676 -0.1979  0.2154
16970W        W59986  25.468  30.066  25.505  0.0816  0.0358  0.1539
16971W        W59987   4.028  14.603  26.685  0.1304  0.0341 -0.2030
16972W        W59988  31.164  31.570  25.635  0.3354  0.0494 -0.1468
16973W        W59989  25.768   3.803   5.942 -0.0086 -0.1949 -0.1531
16974W        W59990   0.547   3.826  23.483 -0.2767 -0.3405 -0.2596
16975W        W59991  13.422   0.377   3.463  0.1305  0.1779 -0.1307
16976W        W59992  23.888   2.943   6.274  0.0798 -0.3331  0.1354
16977W        W59993  21.552  13.269  13.129 -0.0375 -0.2255 -0.0473
16978W        W59994  13.231  29.532  15.981 -0.0375 -0.1710 -0.1622
16979W        W59995  26.899  23.509   5.071 -0.2663  0.0046 -0.1007
16980W        W59996  17.765   2.141  22.875  0.0213 -0.0080 -0.1910
16981W        W59997  10.194  26.674  18.858 -0.0813  0.0340 -0.1613
16982W        W59998   5.533   1.312   3.658 -0.0643 -0.0124 -0.0798
16983W        W59999  14.474   0.634  15.557  0.0911 -0.0405 -0.0521
16984W        W60000  30.684  13.724  27.615 -0.0057 -0.3543  0.1432
16985W        W60001  25.737   8.419   0.495 -0.0161  0.0745  0.3001
16986W        W60002  14.284   9.928  15.932 -0.1398  0.2267 -0.0661
16987W        W60003  19.760   4.203  27.556  0.3344 -0.3209  0.0135
16988W        W60004  15.971  33.707   2.183 -0.0369 -0.4885  0.2883
16989W        W60005  23.048   2.263  14.684 -0.1373 -0.2810  0.1467
16990W        W60006  25.308   5.615  18.032  0.3164 -0.0671 -0.1214
16991W        W60007  32.544  28.925  15.722 -0.1738 -0.0159 -0.1361
16992W        W60008  17.961   5.956  26.261  0.1904 -0.0791  0.1543
16993W        W60009  19.576   2.940  22.288 -0.0209  0.1983  0.3121
16994W        W60010  31.655   6.956   6.795 -0.0312 -0.1732 -0.0401
16995W        W60011   0.823  18.490  21.913  0.3433 -0.0012  0.1086
16996W        W60012  25.359  34.251  18.994 -0.1123 -0.1467 -0.1136
16997W        W60013  24.763   0.025   0.655  0.2288  0.0678  0.2590
16998W        W60014  25.677  32.774  24.670  0.1493 -0.0737  0.2111
16999W        W60015  31.043  29.295  26.066  0.0297 -0.0272  0.1524
17000W        W60016  21.488   1.101  16.871  0.0323  0.2221 -0.0655
17001W        W60017  31.631   8.544  20.905 -0.0744 -0.0170  0.0444
17002W        W60018  13.259  29.025  22.359 -0.1344 -0.1526 -0.1098
17003W        W60019  21.897  15.545  21.257 -0.0885 -0.1920 -0.2553
17004W        W60020   8.958  13.212  26.019  0.1011  0.0538 -0.0402
17005W        W60021  23.311   9.752  21.231 -0.3040  0.3244  0.2729
17006W        W60022  27.714  11.117  20.024 -0.0327  0.0917  0.0105
17007W        W60023   8.322   0.370  15.852 -0.2178 -0.1274 -0.3192
17008W        W60024  10.332   7.544  21.641 -0.2406  0.3594  0.0537
17009W        W60025  14.272  17.550  13.847 -0.2082  0.0402 -0.0502
17010W        W60026  22.942  26.965  24.366 -0.0042  0.4838  0.1857
17011W        W60027  11.168  34.332  28.204 -0.0537  0.0454 -0.1350
17012W        W60028  22.765  26.097  18.961 -0.0415 -0.0045  0.0370
17013W        W60029  20.322  27.772  19.817 -0.0871  0.2042  0.1253
17014W        W60030  10.947   4.043  14.668 -0.3511 -0.1900  0.2730
17015W        W60031  32.907   0.378  23.229 -0.0886 -0.0006 -0.1096
17016W        W60032  33.051  31.590  10.509  0.0656 -0.0585  0.1650
17017W        W60033   4.745  20.629   6.794 -0.0127  0.3076 -0.0414
17018W        W60034  27.046   2.177  22.820  0.1394  0.2041  0.1587
17019W        W60035   2.798   0.035   2.215 -0.0989  0.0574 -0.2578
17020W        W60036  14.566   2.066  27.231  0.1360 -0.1782  0.1271
17021W        W60037  16.821  34.545  28.297 -0.0397 -0.1480  0.0013
17022W        W60038  17.059   1.090   2.850 -0.1284 -0.0925 -0.3247
17023W        W60039  19.641  32.244  15.407 -0.0963 -0.1488  0.0148
17024W        W60040   5.483   5.911  22.092  0.1388  0.2473  0.4073
17025W        W60041   0.606   6.725  26.258  0.3625  0.1183 -0.0663
17026W        W60042   1.657  23.082  20.926  0.1146  0.0759  0.0731
17027W        W60043  33.392   5.904  22.146 -0.0322  0.3732 -0.1191
17028W        W60044   1.841  26.224  15.761  0.0398 -0.2299  0.2125
17029W        W60045  31.656  11.875   2.671 -0.2178  0.0292  0.4598
17030W        W60046  21.821  15.564  17.179 -0.3118  0.0731  0.0938
17031W        W60047  28.604  31.867   1.470 -0.0969  0.2411  0.0770
17032W        W60048  19.090   4.483  17.198 -0.1392  0.1367  0.0215
17033W        W60049  18.447   9.098  18.468  0.0272 -0.2171  0.3320
17034W        W60050   2.568  18.147  23.481  0.0135 -0.2406  0.0927
17035W        W60051  23.997   2.781  22.832 -0.0228 -0.2535 -0.0581
17036W        W60052  32.070  14.089  19.093  0.2012 -0.1403 -0.4945
17037W        W60053  24.070  31.202   6.815 -0.2021  0.0999  0.1371
17038W        W60054  28.305  15.306  26.062  0.2492  0.0265 -0.0759
17039W        W60055  20.157   2.617   2.210  0.1950  0.3685  0.0859
17040W        W60056   3.353  27.001  28.658 -0.0186 -0.1169  0.2861
17041W        W60057  29.552  13.907  19.404 -0.0830  0.2910  0.0667
17042W        W60058   3.058   0.987  19.485  0.0488  0.0290  0.0803
17043W        W60059  20.131   6.834  23.423  0.1665  0.2504 -0.0793
17044W        W60060  29.305  13.789   0.492 -0.3081 -0.1297  0.0295
17045W        W60061   4.931  25.950  21.016 -0.0471  0.2977  0.0872
17046W        W60062   8.206   4.636  23.463  0.1610 -0.0121 -0.3722
17047W        W60063   6.741  22.129   3.081  0.0234  0.1361  0.4843
17048W        W60064   2.009  18.925  27.148  0.0498  0.0781  0.4445
17049W        W60065  29.954  14.610  15.072  0.0281  0.0748 -0.3126
17050W        W60066  20.606   8.758  18.890  0.3546 -0.1306  0.0169
17051W        W60067  14.663  16.690  13.795  0.1004  0.6518 -0.0094
17052W        W60068  26.660   4.951   0.319 -0.0262 -0.0528  0.2078
17053W        W60069  33.732   9.665  21.514 -0.0256 -0.4947  0.0604
17054W        W60070  26.848  15.463   5.729  0.0730 -0.1430 -0.1028
17055W        W60071  28.414  15.318  16.234 -0.0048 -0.1432 -0.3038
17056W        W60072   1.885  11.991   2.957 -0.1044 -0.0205 -0.0744
17057W        W60073  24.391  29.089   4.235 -0.3413  0.1929  0.0337
17058W        W60074  12.987  26.931  22.993 -0.1439  0.1691  0.1820
17059W        W60075  18.779  10.379  19.120 -0.1672 -0.1881 -0.3004
17060W        W60076  21.446  11.014   1.157  0.0087 -0.0683  0.2053
17061W        W60077  32.289   7.709  23.017 -0.2066  0.2096 -0.1866
17062W        W60078  10.160  19.233  18.982 -0.0951  0.1872  0.0124
17063W        W60079  25.733   0.869  25.115 -0.4083 -0.0466  0.2712
17064W        W60080  23.704   5.574   3.713 -0.0053  0.4484  0.1029
17065W        W60081  19.834  14.048  25.200 -0.2105 -0.0019  0.0350
17066W        W60082   0.723  26.710   3.851 -0.0859  0.1948 -0.0307
17067W        W60083   9.068   1.273   6.121  0.1950  0.2638 -0.1325
17068W        W60084  20.851   3.998   4.603 -0.4090 -0.1559 -0.0088
17069W        W60085  29.752   1.819  19.314 -0.1328 -0.3083 -0.0007
17070W        W60086  28.069   4.507  20.938  0.2188 -0.0032 -0.2929
17071W        W60087  20.506   7.259  26.419 -0.0018 -0.0623 -0.0190
17072W        W60088  28.871   5.847  24.555  0.5803 -0.0627 -0.0143
17073W        W60089  28.476   1.515  26.659  0.2279  0.1537  0.1477
17074W        W60090   2.328   6.304  22.039  0.0443 -0.2788 -0.3133
17075W        W60091  17.966  32.982  24.530  0.0956  0.1310  0.1114
17076W        W60092  34.397  23.687  18.718  0.1751 -0.0618 -0.2639
17077W        W60093  27.056   0.336  20.913  0.0157 -0.2170  0.0886
17078W        W60094  28.525   6.588  23.403 -0.2467  0.0471 -0.0643
17079W        W60095   9.621  22.423  21.547 -0.1129 -0.0931 -0.0714
17080W        W60096  23.133   1.360   8.355  0.0726 -0.0212 -0.2388
17081W        W60097  10.260   5.501  26.740 -0.1469  0.2017 -0.0027
17082W        W60098  26.907   2.813  25.043 -0.0169 -0.0691  0.2587
17083W        W60099  10.449   8.811  17.879 -0.3012  0.0112  0.2234
17084W        W60100  22.981  30.881  16.443 -0.1922 -0.0921  0.0757
17085W        W60101  27.997  31.413  26.865 -0.0455  0.2794  0.0225
17086W        W60102  27.104   3.509  19.683  0.0566 -0.2355  0.2898
17087W        W60103  29.586   3.603  18.909 -0.0964 -0.0459  0.2166
17088W        W60104  31.317  20.031  25.000 -0.0408  0.1346  0.0926
17089W        W60105   2.076  26.576   8.813 -0.1429  0.1494 -0.1069
17090W        W60106  23.260   2.270  19.167 -0.0890  0.0293 -0.0978
17091W        W60107   7.779   0.063  17.323 -0.0553 -0.1234  0.2955
17092W        W60108  32.270   9.356  25.302  0.0269  0.0259 -0.3762
17093W        W60109  11.088  12.034  17.480  0.0925  0.3529  0.1528
17094W        W60110  11.895   9.268  15.875  0.0131  0.0003 -0.0811
17095W        W60111  31.979  26.770  28.205 -0.0749 -0.0257  0.1781
17096W        W60112   3.060  23.450   0.876 -0.0056 -0.0212  0.0604
17097W        W60113  23.116  34.729  27.616  0.0429 -0.2683 -0.1562
17098W        W60114  21.754  15.258  15.843  0.2506 -0.2002 -0.0066
17099W        W60115   0.322  30.697   4.623  0.1925 -0.1916 -0.1825
17100W        W60116  21.858  25.250  17.104  0.1735  0.0021  0.1547
17101W        W60117  29.863   0.645   1.360 -0.1586  0.1553  0.0341
17102W        W60118   8.424   0.861  22.212 -0.2636 -0.0231 -0.0342
17103W        W60119   0.067   1.550  17.584  0.0626  0.0733 -0.1003
17104W        W60120  30.959  21.470  24.826 -0.0277 -0.0706  0.0717
17105W        W60121  13.741   9.999  24.325 -0.1655  0.2492 -0.1249
17106W        W60122  24.978   0.020  16.057 -0.0715 -0.0864  0.1570
17107W        W60123  33.983  33.524  17.358  0.0821  0.0442 -0.1233
17108W        W60124  11.520   6.739   4.585 -0.4233  0.0126  0.1547
17109W        W60125   0.486   4.395   1.946  0.2043  0.0441  0.2033
17110W        W60126  30.204  10.765  18.223 -0.1712  0.1046  0.0926
17111W        W60127  31.340   0.463  16.447  0.5200 -0.3658 -0.0292
17112W        W60128  25.048   5.765   0.983 -0.1829 -0.0246 -0.0370
17113W        W60129  32.366  31.556   9.169  0.1162 -0.0280  0.0738
17114W        W60130  22.305   3.775   0.525  0.0881  0.4940 -0.1043
17115W        W60131   4.287  14.047  25.053 -0.1947  0.0031  0.1277
17116W        W60132  16.735   8.074  15.876 -0.0316  0.2333  0.3043
17117W        W60133  21.776  31.389  16.940  0.1434 -0.2813  0.0667
17118W        W60134  27.042   3.470  22.586  0.1246 -0.4096  0.1141
17119W        W60135  21.367   5.120  18.139  0.0313 -0.1142  0.0874
17120W        W60136  33.102  10.831  24.449 -0.1073  0.2516 -0.2747
17121W        W60137  29.242  22.058  18.355 -0.1719  0.1015  0.4658
17122W        W60138  28.506  31.722  19.512 -0.1492 -0.1071 -0.1400
17123W        W60139  26.817   5.060  22.114 -0.4252 -0.3169  0.2422
17124W        W60140  16.703  26.221  14.896 -0.0522 -0.4060 -0.1814
17125W        W60141  23.985  27.204  25.001  0.0308 -0.0063  0.1630
17126W        W60142  27.602   6.284  10.107  0.1436 -0.0902 -0.3089
17127W        W60143  23.035  29.896   4.318 -0.3311  0.1162 -0.3731
17128W        W60144  29.902  15.023  27.211 -0.2222  0.1486 -0.0347
17129W        W60145  23.147  24.724  20.589 -0.0892  0.0166  0.0428
17130W        W60146  33.393  26.109  17.574 -0.0240  0.3420 -0.1018
17131W        W60147   6.479   8.490   2.668  0.0760 -0.1553 -0.4035
17132W        W60148   6.939   7.201  25.752 -0.0571  0.3665 -0.3255
17133W        W60149  34.298  17.827  16.334 -0.0987 -0.0538  0.0858
17134W        W60150   3.743   2.943  25.894  0.1182  0.0389 -0.1749
17135W        W60151   5.716   0.888  16.840  0.1258 -0.3324  0.0504
17136W        W60152  29.282  34.198  26.222 -0.3765  0.1435  0.0617
17137W        W60153  26.231  15.765  20.530  0.1839 -0.2968  0.1836
17138W        W60154  20.099  26.238  28.257  0.0112  0.0924  0.2828
17139W        W60155  23.355   5.597  14.807  0.2671 -0.0953  0.1111
17140W        W60156  32.856   2.004  16.397 -0.0119  0.1500  0.3284
17141W        W60157   7.882  25.044  19.539  0.0146  0.1549  0.0786
17142W        W60158   9.733  21.003   3.900  0.0530  0.2157 -0.1366
17143W        W60159  30.110   3.048  25.851 -0.0431 -0.3932 -0.0203
17144W        W60160  17.312  22.103   8.163 -0.0559  0.0632  0.0564
17145W        W60161  22.836  27.161  17.743 -0.3829 -0.0718  0.2556
17146W        W60162  33.291  33.441  22.204  0.1467 -0.1068  0.3354
17147W        W60163  31.505  33.558  18.506  0.2245 -0.0590  0.1222
17148W        W60164   6.879  26.909  18.832  0.0399  0.0437  0.0855
17149W        W60165  15.147   7.090   0.176  0.1393 -0.0604 -0.1894
17150W        W60166  24.098   2.926  28.636  0.0988 -0.1452  0.3183
17151W        W60167   1.702   8.091  22.093  0.2494 -0.2278 -0.0201
17152W        W60168  15.789  10.968  27.007 -0.0977 -0.1854  0.1341
17153W        W60169   4.058   0.715   5.672  0.0095  0.2048 -0.1035
17154W        W60170   2.495  17.117  18.164  0.1155 -0.2731 -0.0295
17155W        W60171  27.562   8.973  18.813 -0.1966 -0.1273 -0.1477
17156W        W60172   5.052  28.772   2.711 -0.1506 -0.1390 -0.1989
17157W        W60173  14.137  29.537   6.429  0.0719 -0.2553  0.1054
17158W        W60174   2.022   5.527  14.449  0.0769  0.0789 -0.3498
17159W        W60175  22.777   4.312  15.775 -0.0939  0.2314 -0.0824
17160W        W60176  13.697  28.468  20.456 -0.0683 -0.1362  0.0731
17161W        W60177  12.433   2.889  27.709 -0.0597  0.0621  0.1736
17162W        W60178  22.750  19.150  20.115 -0.4444  0.1108  0.1315
17163W        W60179  30.700  34.629  16.207  0.2719 -0.1157  0.0131
17164W        W60180  14.714  30.400  16.653  0.1990 -0.0658 -0.0026
17165W        W60181  20.761  30.592   3.027 -0.3117 -0.1363  0.0024
17166W        W60182  31.436  33.652  11.135  0.2052  0.1151 -0.0545
17167W        W60183  30.689  25.501   0.120 -0.1063  0.1060  0.1917
17168W        W60184  13.751  12.654  16.869  0.0473 -0.1959  0.0698
17169W        W60185  24.086   6.827   1.016 -0.1069  0.2075  0.0013
17170W        W60186  21.729   7.762  27.953  0.2758 -0.1555 -0.5578
17171W        W60187  31.041  14.189  16.604 -0.2324  0.0157 -0.1380
17172W        W60188  23.354  28.677  15.940 -0.0950 -0.1193  0.5101
17173W        W60189   0.451  33.393  16.797  0.2301  0.0116  0.0445
17174W        W60190  31.332   5.174   6.059  0.0734 -0.1114  0.2775
17175W        W60191  26.368   8.390  22.079  0.1595 -0.4433 -0.2281
17176W        W60192   6.914   1.786  14.810  0.3431 -0.1340  0.2243
17177W        W60193  28.863   4.251  17.167 -0.2004 -0.0638  0.0347
17178W        W60194   2.337   3.680  18.074  0.0869 -0.0675  0.5192
17179W        W60195   2.738   4.568  23.389 -0.1233 -0.1062 -0.2440
17180W        W60196   2.213   6.522  24.703  0.1071  0.0028  0.1953
17181W        W60197  29.553  26.920   3.618 -0.2478  0.0961  0.1051
17182W        W60198  27.049   6.753   7.032 -0.1028 -0.0631 -0.2438
17183W        W60199  29.007  17.951  26.278 -0.1259 -0.2435  0.4672
17184W        W60200  10.524   1.408   5.318 -0.1635 -0.1727 -0.0117
17185W        W60201  17.045  32.880  20.754  0.1901  0.2440  0.1547
17186W        W60202  13.370  34.545  14.619 -0.0097 -0.4463 -0.0291
17187W        W60203   5.785  28.019  14.345  0.2238  0.2166 -0.0796
17188W        W60204  21.979  16.769  25.898  0.1418 -0.1485 -0.3443
17189W        W60205  19.824  11.838  22.142 -0.1881 -0.1759 -0.1063
17190W        W60206  24.727  10.609  22.840 -0.2160 -0.1407 -0.0156
17191W        W60207  30.598   0.771  15.506  0.0520  0.3362  0.2230
17192W        W60208  29.965  30.879  19.373 -0.0872 -0.0932  0.1733
17193W        W60209  12.403  28.451  28.505  0.0032  0.0574  0.1515
17194W        W60210  15.619  25.975  25.944 -0.0186 -0.2145 -0.1315
17195W        W60211  34.183  27.541  20.013 -0.2078  0.0267 -0.2281
17196W        W60212  29.146  16.843   5.519  0.2168  0.0588 -0.1099
17197W        W60213   8.870  32.258   1.691  0.0017 -0.0681  0.0185
17198W        W60214  30.945  30.140  25.627  0.1987  0.0754  0.2054
17199W        W60215  19.233   9.853  19.801 -0.0173 -0.1262  0.2716
17200W        W60216  16.458   1.592  29.303  0.1262 -0.1469  0.0604
17201W        W60217   6.569  18.046   8.915 -0.0679 -0.0046  0.2503
17202W        W60218  30.222  33.643  20.945  0.2071  0.0326  0.0891
17203W        W60219  21.815   4.004  27.130  0.0523  0.0610  0.0330
17204W        W60220   2.574  11.692  23.805  0.3596  0.0557  0.0725
17205W        W60221  31.356  10.689  16.665  0.3524  0.1415  0.0190
17206W        W60222  25.509   8.553  21.238  0.1760 -0.2595  0.0706
17207W        W60223  21.582   2.254   1.340 -0.0960  0.0419  0.1922
17208W        W60224  10.416   1.628   2.890 -0.1073  0.1733 -0.2666
17209W        W60225  15.089   7.373   2.546 -0.0376 -0.1262  0.1794
17210W        W60226  23.757   0.692  16.058  0.0453 -0.1697  0.2728
17211W        W60227  22.132  26.886   1.998 -0.2142 -0.1763  0.0702
17212W        W60228  28.249  28.252  22.920 -0.0853 -0.0148 -0.0082
17213W        W60229  10.778   0.592  16.135 -0.0256  0.1007 -0.3319
17214W        W60230  31.139   6.132  19.446  0.0530  0.0599  0.0361
17215W        W60231  25.625   5.124  15.842 -0.0110 -0.1154 -0.3933
17216W        W60232   9.286   8.997  13.311  0.3287 -0.3314 -0.2395
17217W        W60233  19.466   4.402  23.879  0.1042  0.1089  0.0735
17218W        W60234  30.243   1.291  25.302  0.0801  0.0116 -0.2889
17219W        W60235  26.678  15.202   3.122  0.4515 -0.0584 -0.1914
17220W        W60236  22.046   6.578  26.130  0.0136 -0.2581 -0.0886
17221W        W60237   8.596  29.830   2.637  0.1359  0.1691 -0.1567
17222W        W60238  26.426  31.620   1.848  0.1867 -0.2627 -0.0037
17223W        W60239  16.277   7.667   9.200 -0.0134 -0.2107  0.4711
17224W        W60240  32.147   4.727  29.083 -0.1474 -0.0648 -0.0028
17225W        W60241  22.235  34.179   6.487  0.1733  0.0944  0.0989
17226W        W60242  26.280  30.036  24.439  0.2470 -0.1299 -0.0188
17227W        W60243   4.292  17.084   5.391  0.0380 -0.0186  0.1085
17228W        W60244   9.018  29.036  19.572 -0.1375  0.1596  0.0660
17229W        W60245  19.742  32.557  26.106  0.1297 -0.0187 -0.1145
17230W        W60246  26.679   4.284  28.868  0.1425  0.1863  0.2104
17231W        W60247  19.151  12.905   0.309  0.3078  0.2963 -0.2681
17232W        W60248  24.329  12.062  18.224  0.1327 -0.1461  0.0313
17233W        W60249  34.242  28.852  22.454 -0.0765  0.2147 -0.1443
17234W        W60250   4.112  13.371  28.689 -0.3743 -0.1554  0.1948
17235W        W60251   6.418  11.757   8.513 -0.0363  0.2041  0.0447
17236W        W60252  22.889   8.209   4.554  0.2333 -0.1373 -0.2781
17237W        W60253   1.199   8.331  23.276  0.1074  0.3273 -0.2623
17238W        W60254  31.724  33.805   3.689 -0.2760 -0.0514  0.1412
17239W        W60255  14.594  10.097   2.791  0.0857  0.0977  0.1145
17240W        W60256  20.964  16.126  24.305 -0.1316 -0.1636  0.1550
17241W        W60257   5.932  26.569  15.863 -0.0655 -0.0233  0.1258
17242W        W60258  15.105  28.302   4.760  0.0889 -0.1563  0.0990
17243W        W60259  17.894  22.271  15.355 -0.0603 -0.1431  0.0362
17244W        W60260   0.290  24.416  23.924  0.0739  0.0719 -0.0164
17245W        W60261  13.750  32.409   4.469 -0.0079  0.1752 -0.2607
17246W        W60262  23.887  10.183  26.216  0.0541  0.1440 -0.0740
17247W        W60263   3.093  16.377   5.221  0.1762 -0.1040  0.1207
17248W        W60264   6.517   7.621   6.662  0.1038  0.0865  0.1667
17249W        W60265  24.808   5.380   2.756 -0.0531 -0.0454  0.2791
17250W        W60266  15.960  19.108  23.290 -0.1709 -0.2897  0.1493
17251W        W60267  23.931   3.253  22.985  0.0594 -0.0069 -0.1124
17252W        W60268  10.596  34.001  19.151  0.0413 -0.1297 -0.1879
17253W        W60269  19.124   7.097  21.833 -0.3951  0.4562  0.1892
17254W        W60270  15.383  12.889   1.533 -0.3226 -0.1459  0.0586
17255W        W60271  32.228  30.520  22.101 -0.2505 -0.3142 -0.0045
17256W        W60272  24.222  18.451  20.831 -0.2680 -0.1347 -0.1264
17257W        W60273   9.485   5.280  22.576  0.4928  0.2219  0.3070
17258W        W60274  21.929   9.358   2.628  0.1023  0.0264 -0.1310
17259W        W60275   6.068  25.819   2.396 -0.0189  0.2670 -0.3345
17260W        W60276   0.227  16.219   7.289 -0.3625  0.2828 -0.0592
17261W        W60277  27.873   2.009  18.727 -0.0227 -0.1072 -0.0451
17262W        W60278  33.075  11.171   2.008  0.1903 -0.1556 -0.2010
17263W        W60279   6.705  17.621  20.385 -0.3584 -0.1563  0.2879
17264W        W60280  11.934  29.205  26.826  0.0283 -0.4320  0.1874
17265W        W60281  26.417  32.756   9.003 -0.1510  0.0213 -0.2761
17266W        W60282  20.684   5.149  24.509 -0.5009 -0.0938  0.0823
17267W        W60283  18.821   3.434  28.525  0.2258 -0.1741  0.3239
17268W        W60284  17.192   2.983  20.421 -0.0651 -0.0925  0.2027
17269W        W60285  30.903  19.817   9.749  0.2907  0.2806  0.1623
17270W        W60286  19.272   0.036  20.345  0.2724  0.0311 -0.1270
17271W        W60287  29.151  28.746   3.399 -0.0782 -0.0144 -0.0527
17272W        W60288  18.828  13.565  13.905 -0.3516  0.1888  0.1881
17273W        W60289  26.481   2.038  24.465  0.0454 -0.0395 -0.2556
17274W        W60290  17.853   7.740  19.605 -0.0623 -0.2032 -0.0322
17275W        W60291  32.642  20.444  26.865 -0.1480 -0.0912 -0.1897
17276W        W60292  19.385   4.470  26.667  0.1643 -0.0684  0.1485
17277W        W60293  30.250   5.990  23.067 -0.0935  0.2859  0.0924
17278W        W60294   7.610  30.603  21.138  0.0520 -0.4866  0.0329
17279W        W60295  29.911  10.581  25.854  0.0862  0.0414 -0.2659
17280W        W60296   6.944  15.395  28.557  0.0653 -0.2375 -0.1538
17281W        W60297  27.411  17.881   3.315  0.0632 -0.1198  0.1275
17282W        W60298  24.906  16.490  21.238 -0.1054  0.0272 -0.0769
17283W        W60299  21.854   0.617   2.972 -0.0442 -0.3700 -0.1062
17284W        W60300   1.372  18.279  27.717  0.2313  0.1614  0.0851
17285W        W60301  33.548  29.456  15.837  0.1585 -0.2001  0.1148
17286W        W60302  27.998  13.484   4.238  0.1695 -0.3382 -0.0241
17287W        W60303  27.965  29.795   4.992 -0.2646 -0.0398 -0.0018
17288W        W60304  25.907   7.041  24.546  0.0034 -0.3941  0.2310
17289W        W60305   1.590   1.936   6.281  0.0622 -0.3045 -0.1968
17290W        W60306   4.227  33.068  29.250 -0.3680 -0.0583 -0.2062
17291W        W60307   5.867   4.476   3.541  0.0546  0.0280 -0.2713
17292W        W60308  18.982  33.185  23.720 -0.4251  0.0346  0.0111
17293W        W60309   5.222   8.729   3.685  0.0982 -0.1472  0.0137
17294W        W60310   4.523   0.966  15.835 -0.0586 -0.1457 -0.1525
17295W        W60311  30.845  34.724  19.007  0.1312 -0.4713 -0.1327
17296W        W60312   5.103  25.767  18.588  0.1305 -0.0721 -0.2763
17297W        W60313  21.836  25.801   0.242  0.0503  0.0167  0.1526
17298W        W60314  23.313   8.283  18.480  0.1141  0.0310 -0.0318
17299W        W60315  17.615  11.896   4.530  0.2850 -0.0352 -0.0843
17300W        W60316   2.698  10.142  28.645  0.1097  0.3386  0.0154
17301W        W60317  23.200  15.266  15.214 -0.1831  0.2258 -0.1888
17302W        W60318  32.025  16.671  22.771  0.1616  0.0128  0.0518
17303W        W60319   3.003   9.949   6.984  0.2272  0.0399 -0.0678
17304W        W60320  25.113   4.754  27.917 -0.1482  0.2631 -0.0141
17305W        W60321  30.953  31.320  21.965  0.0478 -0.0934  0.1161
17306W        W60322  30.850   0.807  21.143 -0.2523 -0.1313 -0.0583
17307W        W60323   1.705  10.077   0.082 -0.1352  0.4625 -0.3262
17308W        W60324  34.114  34.533  21.591 -0.0610 -0.0131  0.1373
17309W        W60325  28.399  11.262  15.904 -0.0890  0.1149 -0.0406
17310W        W60326  26.466  33.466  26.804  0.2137  0.0706 -0.1583
17311W        W60327  22.102   1.473   0.976  0.1144  0.2118 -0.0005
17312W        W60328  25.653   7.008   0.274  0.1458  0.2887 -0.4382
17313W        W60329  24.637   7.217  27.868 -0.1675 -0.3777 -0.3054
17314W        W60330   1.240   1.676  23.004 -0.0772  0.0177  0.3029
17315W        W60331  19.494  11.803   4.077  0.0794 -0.1808  0.0850
17316W        W60332  15.434  24.607  29.028  0.0691 -0.0455 -0.0182
17317W        W60333  29.407  12.161  19.152  0.1789 -0.2706  0.0907
17318W        W60334  22.348  11.501   7.918 -0.2478 -0.3407 -0.0926
17319W        W60335  18.220   9.302  15.671 -0.0220  0.0125  0.1056
17320W        W60336  17.317   7.034  18.140  0.0901  0.0576 -0.0519
17321W        W60337  15.381  13.346  29.218  0.1169 -0.1676 -0.3427
17322W        W60338  18.707  33.983  15.279 -0.2540 -0.1603  0.0152
17323W        W60339  29.209   2.214   3.817 -0.2705 -0.2269  0.4074
17324W        W60340   6.128   5.046   9.911 -0.0280 -0.1004 -0.3043
17325W        W60341  25.952   6.617   8.740  0.2804  0.2191  0.0433
17326W        W60342  33.929   5.844  15.171  0.0402  0.2840  0.1278
17327W        W60343  31.456  32.431  19.904 -0.0478 -0.0956  0.0188
17328W        W60344   2.380  16.150   5.191  0.1879  0.0273  0.0589
17329W        W60345  11.857  27.036   1.350 -0.1896 -0.3382  0.1759
17330W        W60346  31.425   1.168  19.507 -0.0970  0.1841  0.2129
17331W        W60347  14.096  20.095   2.746 -0.0192  0.0379 -0.0537
17332W        W60348   2.977   2.378  27.720  0.0801 -0.2442 -0.0861
17333W        W60349  33.591   6.198  23.813 -0.0145  0.1459  0.0189
17334W        W60350  28.204  33.453  15.691 -0.2200 -0.0431 -0.0712
17335W        W60351  15.281   4.183  15.183 -0.2801  0.0863 -0.1158
17336W        W60352  26.564  28.337  11.632 -0.0072  0.2436  0.0912
17337W        W60353  26.198   0.879   9.588  0.0678 -0.1158 -0.0326
17338W        W60354   1.940  33.162  26.384  0.1500  0.1482  0.3378
17339W        W60355  22.012  22.125  21.178  0.4422 -0.1790  0.3005
17340W        W60356  28.249  11.948  20.495 -0.3149 -0.3992 -0.0238
17341W        W60357  27.070   9.206  17.276 -0.1760  0.3777 -0.2470
17342W        W60358  16.378   7.329  15.048 -0.1421 -0.1249  0.1142
17343W        W60359  27.755  30.042  24.170  0.2753  0.1697 -0.0677
17344W        W60360  16.981  14.478  25.752 -0.0127  0.2156 -0.0738
17345W        W60361  29.814  13.731  20.393 -0.3293  0.0532  0.1042
17346W        W60362  13.836   3.465  16.757  0.0947 -0.0952 -0.0773
17347W        W60363  27.770   0.830  26.641 -0.1347 -0.0514 -0.0079
17348W        W60364  28.481  24.125  11.034  0.1153  0.1579 -0.0346
17349W        W60365  28.359  14.064  24.374 -0.0095 -0.1529 -0.1145
17350W        W60366   9.896   0.914  20.620 -0.0886 -0.0608 -0.0988
17351W        W60367  28.236  10.695   3.467 -0.3205 -0.0440  0.6498
17352W        W60368  28.466   1.365  27.642 -0.3333  0.2899  0.0133
17353W        W60369  27.440   6.946  22.294 -0.2104 -0.1205  0.2161
17354W        W60370  27.043   4.793  15.544  0.0021 -0.1761  0.0858
17355W        W60371  30.964  10.201   2.259  0.0647  0.1787  0.0612
17356W        W60372  29.756  10.364  17.666 -0.0027 -0.0897 -0.2487
17357W        W60373  13.898  32.484  20.211 -0.5231 -0.0405  0.2603
17358W        W60374   1.583  25.073  29.233  0.3769  0.1608  0.0961
17359W        W60375  29.087  21.073   3.622 -0.2512 -0.2450  0.2384
17360W        W60376  30.018   2.660   2.328 -0.0061  0.0525 -0.3671
17361W        W60377  25.597   0.100   1.291 -0.0935  0.1556 -0.0563
17362W        W60378  15.591   3.808  10.221 -0.2839  0.0530  0.0693
17363W        W60379  17.536  10.983  27.182 -0.2355 -0.1802  0.1906
17364W        W60380  32.943   7.493  28.232  0.4513  0.0994  0.2092
17365W        W60381  21.043   1.742  26.522 -0.1954  0.0644  0.2806
17366W        W60382  29.964  28.635  25.352 -0.2075  0.0843 -0.0316
17367W        W60383  31.172  33.912  24.688  0.2660 -0.2773  0.0114
17368W        W60384   3.153   3.869  21.911 -0.1574  0.2965  0.2142
17369W        W60385  29.319  29.373   2.768  0.2201  0.2315 -0.2072
17370W        W60386  24.732   7.216  19.032  0.0742  0.1192  0.0130
17371W        W60387  22.777   1.591   9.106 -0.1554 -0.0667 -0.0526
17372W        W60388  19.880  32.676  16.626 -0.1073  0.2478  0.1795
17373W        W60389  15.346   9.808  19.433  0.3603 -0.0636  0.4567
17374W        W60390   9.182  18.238   5.713  0.1326 -0.0598 -0.0384
17375W        W60391  25.302  31.483  16.071  0.1504  0.1167 -0.0745
17376W        W60392  28.390  28.522   5.934  0.0875 -0.4158  0.2265
17377W        W60393  32.743   4.572  13.912  0.1648  0.0980 -0.0433
17378W        W60394  34.721  11.486  22.106 -0.0475  0.0709 -0.1553
17379W        W60395  22.366  23.410  25.930 -0.1858 -0.4756 -0.1911
17380W        W60396  25.071   5.869  18.423  0.2166 -0.0035 -0.1625
17381W        W60397  16.125  14.268   0.826 -0.0272 -0.1590  0.3890
17382W        W60398   1.975  18.623  27.870 -0.0559  0.1310  0.0034
17383W        W60399  25.191  19.957  22.376 -0.3287  0.0571  0.0006
17384W        W60400  24.806   3.152  11.408 -0.2506  0.1915 -0.0942
17385W        W60401  10.574  16.012  28.584  0.2697  0.1237 -0.0162
17386W        W60402  29.664   2.484  10.191 -0.4105 -0.2400 -0.0150
17387W        W60403  27.060  14.258   6.299  0.1470 -0.1286 -0.2323
17388W        W60404  22.029  17.409  25.787  0.0243  0.2952 -0.1967
17389W        W60405  22.107   5.243   9.133  0.0165 -0.2276  0.0578
17390W        W60406  10.645  11.311  28.071  0.0612 -0.0691  0.1647
17391W        W60407  22.981   1.604  16.415  0.1014  0.2849  0.1151
17392W        W60408   0.310  30.967   1.620  0.0477  0.0137 -0.0566
17393W        W60409  31.306  14.598   1.187 -0.3979 -0.0723 -0.2791
17394W        W60410  23.904   1.732  19.387  0.0245  0.0024 -0.1900
17395W        W60411   0.114  17.883  16.273 -0.0933  0.2045 -0.2654
17396W        W60412  27.614  15.290  16.660 -0.4269  0.1127  0.0882
17397W        W60413  13.733   7.520   4.645 -0.0319  0.4093  0.0927
17398W        W60414  34.058  11.079   0.903 -0.0946  0.1361  0.3507
17399W        W60415  14.599   7.080  26.610  0.0813  0.0019  0.1924
17400W        W60416  21.003  12.573  18.987 -0.1198  0.0419  0.1238
17401W        W60417  21.398   1.165  17.802 -0.0193  0.0895 -0.0297
17402W        W60418  32.358  25.482   4.675  0.1833  0.2336 -0.0610
17403W        W60419   1.950  26.325   1.802 -0.2052 -0.0566 -0.0021
17404W        W60420  13.193   4.359  25.884 -0.0805 -0.0262  0.2784
17405W        W60421  25.675  10.342   0.391  0.1853  0.1669  0.3334
17406W        W60422  24.174  10.415   7.805  0.3167  0.0263 -0.2374
17407W        W60423  17.324   0.922  19.386  0.1089 -0.1600 -0.4482
17408W        W60424  20.798  11.605   5.607  0.0260  0.1932  0.1865
17409W        W60425  27.486   8.177   8.316 -0.0047  0.0788  0.2564
17410W        W60426  27.357   3.263  21.045 -0.0299  0.2289 -0.1364
17411W        W60427   7.832  16.694  22.781  0.0759  0.2185  0.0616
17412W        W60428   0.938   6.827   6.798 -0.0617  0.1011 -0.0774
17413W        W60429   6.565   3.790   6.981 -0.0288 -0.1401  0.2053
17414W        W60430  18.783  22.025  14.929  0.0218  0.4037 -0.0568
17415W        W60431  15.568   6.458  17.199 -0.0728  0.2526 -0.2429
17416W        W60432  14.397  21.737  26.597 -0.2833 -0.0078 -0.0396
17417W        W60433  31.547  13.806  22.010  0.0905  0.0144 -0.0280
17418W        W60434  14.974  27.978  24.459  0.1829 -0.0026 -0.1080
17419W        W60435  28.752  14.870  18.256 -0.0807  0.0859 -0.0791
17420W        W60436  32.186  31.404   5.866 -0.5031 -0.1602 -0.0545
17421W        W60437  24.517  29.296   7.559 -0.1624 -0.0768 -0.5122
17422W        W60438  20.971   3.783  27.463  0.0473  0.0965 -0.1083
17423W        W60439  24.684  34.716  18.921 -0.0371 -0.3835 -0.0538
17424W        W60440  27.887   1.795  20.144 -0.0156 -0.2907 -0.1354
17425W        W60441  27.920  31.194   9.106 -0.2596  0.1819 -0.2103
17426W        W60442  15.425   5.302  24.954  0.1872  0.2174  0.0009
17427W        W60443  21.373   5.003  14.514  0.0128 -0.0072 -0.0462
17428W        W60444  32.948  31.675  27.802 -0.0927 -0.0572 -0.3052
17429W        W60445  29.798   3.651   8.553  0.2819 -0.0738 -0.0616
17430W        W60446  12.938   1.770  26.269 -0.0082  0.1408 -0.0673
17431W        W60447  19.017   5.976  20.855 -0.1537 -0.1057 -0.1029
17432W        W60448   1.022   8.779  17.929 -0.0457 -0.0762 -0.0373
17433W        W60449  25.081  29.361   1.591 -0.0568  0.0866  0.2216
17434W        W60450  19.244   7.489  28.569  0.1291  0.0219  0.1312
17435W        W60451  26.914   9.384   5.434  0.0924 -0.1314  0.3233
17436W        W60452  24.939   9.197  23.818 -0.0570  0.1919 -0.0818
17437W        W60453   3.507   7.768   1.176  0.0821 -0.3458  0.0285
17438W        W60454  16.561   5.158  16.221  0.1639 -0.0261  0.2690
17439W        W60455  34.681  10.662  28.402  0.0043  0.2166  0.0200
17440W        W60456  23.859  17.630   8.297  0.3295  0.0677  0.1488
17441W        W60457  18.875  29.186  10.141 -0.2815 -0.1364  0.2556
17442W        W60458  28.687   8.792   0.003 -0.1151 -0.1431 -0.1971
17443W        W60459   2.997   1.237  20.089 -0.2646  0.1521  0.1400
17444W        W60460  23.694  20.623  28.659  0.0283  0.1421  0.0196
17445W        W60461  31.880  15.986  20.813 -0.1249 -0.1710 -0.1299
17446W        W60462  31.288  16.530   7.853 -0.2482  0.2839 -0.2350
17447W        W60463  28.755  10.466  17.367 -0.0492  0.0572  0.0801
17448W        W60464  33.297  26.305  29.197  0.1370  0.0324  0.0567
17449W        W60465  23.699   2.407  18.892  0.0979 -0.0312 -0.2605
17450W        W60466  10.220  27.508   8.725 -0.1668  0.0530 -0.3532
17451W        W60467  25.600  10.443  16.512 -0.2665  0.0633 -0.1427
17452W        W60468  33.435  20.746  28.524  0.1705  0.2724  0.0823
17453W        W60469   9.843  31.049   9.699 -0.0603 -0.3256  0.2104
17454W        W60470   7.371  13.390  27.201  0.0630  0.3215 -0.0890
17455W        W60471  28.099   5.874  23.065  0.0095 -0.3554  0.1581
17456W        W60472   4.764   2.946   3.827 -0.2826 -0.0289 -0.3247
17457W        W60473  21.041   1.426   2.101 -0.0537 -0.0098  0.3761
17458W        W60474  30.240  30.542   7.751  0.1483 -0.0444 -0.0704
17459W        W60475  27.514  32.891  18.948 -0.1843 -0.0698 -0.0648
17460W        W60476  20.120   5.774  16.516 -0.3554  0.1763  0.0135
17461W        W60477  10.848  17.541  22.924  0.0243 -0.0569  0.1295
17462W        W60478  34.252   3.773   4.617  0.0356  0.0440  0.2107
17463W        W60479   1.778   1.791   9.215 -0.0733 -0.0835  0.1393
17464W        W60480  16.642  17.395  25.951 -0.1998 -0.1352  0.0711
17465W        W60481  18.750  26.515  15.051 -0.0271 -0.3243 -0.1006
17466W        W60482  33.801  27.193   1.924  0.0330  0.0993  0.2487
17467W        W60483   4.540   2.136  19.548 -0.1291 -0.0673 -0.1285
17468W        W60484  21.416  19.930  19.083 -0.3675  0.1379  0.1006
17469W        W60485  33.799  32.700   5.334  0.1964  0.1654 -0.1549
17470W        W60486  26.471  29.191  27.943 -0.2608  0.4069  0.1971
17471W        W60487   4.003  13.674  26.316 -0.0964  0.2168 -0.0209
17472W        W60488  20.870   9.697   4.767 -0.1302  0.1452  0.4271
17473W        W60489  31.414  19.137  23.915  0.0662  0.0946 -0.2941
17474W        W60490  30.129  25.111  19.401 -0.0481  0.0158  0.2384
17475W        W60491  18.298  10.384  13.101  0.3708 -0.0379 -0.0611
17476W        W60492   9.507   5.204   1.661  0.0777  0.0177 -0.1396
17477W        W60493  25.087  29.283  10.321  0.1226 -0.0006  0.1468
17478W        W60494   2.375   5.308  24.820  0.0619 -0.3277 -0.0511
17479W        W60495  12.215  30.066  24.779  0.0357 -0.0368 -0.2725
17480W        W60496   6.049   3.574   8.857 -0.3791  0.1562 -0.0413
17481W        W60497  28.190  14.792  13.253  0.0977 -0.2632  0.3744
17482W        W60498  21.117  15.825   2.320  0.0274  0.0370 -0.0743
17483W        W60499  24.036  31.695   8.568  0.0078 -0.1917 -0.1689
17484W        W60500  24.990  27.302  20.213  0.2229  0.3035  0.0126
17485W        W60501   2.711   6.842  23.614  0.1426  0.0540 -0.1366
17486W        W60502  15.815   9.119  24.011 -0.0417  0.0666  0.0324
17487W        W60503  28.542  28.218  22.069  0.1680  0.0674  0.0407
17488W        W60504  21.323   7.601   0.977 -0.2476  0.0944 -0.1658
17489W        W60505  19.889   8.317  18.925  0.2668 -0.1836  0.0062
17490W        W60506  22.256  18.764   2.696  0.0197 -0.1083  0.2688
17491W        W60507  20.964   0.325   0.420 -0.0502  0.1368 -0.1997
17492W        W60508  24.320   4.155  20.543  0.0395  0.1071  0.0128
17493W        W60509   0.196  18.469   3.774  0.2049  0.0974  0.0704
17494W        W60510  31.470   0.357  27.787 -0.0721  0.1737  0.1283
17495W        W60511  32.899  29.113   4.321 -0.3523  0.1860  0.0847
17496W        W60512  27.610  10.356   2.142  0.0612 -0.1608 -0.1585
17497W        W60513  34.605   0.454  29.229 -0.2128 -0.3444  0.1883
17498W        W60514  30.653  16.999  24.784 -0.2254 -0.1150  0.1302
17499W        W60515  33.573   7.288  28.946 -0.2737 -0.1951 -0.1025
17500W        W60516  16.057  22.320  11.761 -0.3053  0.3589 -0.4359
17501W        W60517   0.170  34.064   0.702  0.0650  0.2023 -0.2557
17502W        W60518   4.100  15.680  27.999  0.1090 -0.0867  0.1923
17503W        W60519   1.671   0.684   8.259  0.1873  0.5290 -0.1481
17504W        W60520   0.528  16.201  20.076  0.3908 -0.1174 -0.0993
17505W        W60521  27.362   9.443   1.220  0.0460 -0.2201 -0.2272
17506W        W60522  15.595  10.521   0.902  0.1674  0.1149 -0.2649
17507W        W60523   3.262   1.047  19.077  0.2160  0.1147 -0.3464
17508W        W60524  27.904  21.329   1.630 -0.2692 -0.2120  0.1012
17509W        W60525   8.002  28.436  17.455 -0.0662  0.1696  0.0198
17510W        W60526  26.755  28.148  19.551  0.0015  0.0051  0.0041
17511W        W60527  27.198  28.743   3.296 -0.2319 -0.0752  0.2621
17512W        W60528  25.617  32.771   6.348 -0.1576  0.3274 -0.0730
17513W        W60529  23.284   4.121  14.757  0.0193 -0.1970  0.2176
17514W        W60530  34.682  25.488  23.706 -0.0159 -0.0864 -0.1910
17515W        W60531  24.936  13.286  16.293  0.0982 -0.0582 -0.2392
17516W        W60532  32.018  25.227  29.307 -0.1972 -0.3899 -0.1569
17517W        W60533  31.129   8.015  22.555 -0.2696 -0.2204  0.4325
17518W        W60534   4.332   7.177  22.879  0.2368  0.3295 -0.0092
17519W        W60535   6.956  34.116  14.750  0.2031  0.2173  0.1363
17520W        W60536   0.248  18.464  14.983 -0.0961 -0.0170 -0.0412
17521W        W60537  26.121   1.368  10.527  0.2437  0.0132 -0.0463
17522W        W60538  18.758  10.871  13.961 -0.1170 -0.0815  0.0915
17523W        W60539   3.393  10.035  16.935  0.3479 -0.0395  0.0649
17524W        W60540  22.718  29.260  16.984 -0.1580  0.1232  0.2127
17525W        W60541  16.986  27.183  26.911  0.0146  0.1080 -0.0656
17526W        W60542  26.131   3.195  20.548  0.1115  0.3561  0.0090
17527W        W60543  19.417  22.794   7.147  0.1702 -0.0626 -0.0865
17528W        W60544  30.988   8.133   4.330  0.1046 -0.1983  0.0001
17529W        W60545   4.078  32.207   0.283 -0.1538  0.2720  0.1286
17530W        W60546   1.998  21.654  22.571  0.0131  0.0234  0.1585
17531W        W60547  22.594  27.574  17.593 -0.1927 -0.3700 -0.0318
17532W        W60548  20.043  13.186   0.889  0.0423  0.0460  0.1233
17533W        W60549   3.501  34.561   0.951 -0.2169  0.2326 -0.3315
17534W        W60550  30.465  13.965  14.820  0.2736  0.0375 -0.2270
17535W        W60551  22.579   0.472  10.754  0.1150  0.0789 -0.2349
17536W        W60552  32.171  33.909   3.376  0.1070 -0.0361 -0.3705
17537W        W60553  22.555  11.500  17.171 -0.2133  0.0575 -0.1152
17538W        W60554   1.431  27.268  16.428 -0.1623 -0.4308  0.2387
17539W        W60555  18.650  27.041  17.755 -0.0019  0.1372 -0.2406
17540W        W60556  18.826  22.127   1.487  0.1330 -0.3949 -0.1765
17541W        W60557  33.928  14.450  24.983  0.2590 -0.2967 -0.1236
17542W        W60558  14.005  32.121  23.765  0.1399 -0.0639 -0.2605
17543W        W60559  25.202   1.462  26.470  0.0141  0.1028  0.1332
17544W        W60560  22.048  33.763  23.103  0.1905 -0.1072 -0.0754
17545W        W60561  26.758  10.872  16.510  0.1433  0.2341 -0.1115
17546W        W60562  31.908  33.046   7.782  0.1945  0.0674 -0.0597
17547W        W60563  11.909   8.371  25.292 -0.0066 -0.2054  0.2487
17548W        W60564  24.664  10.333  20.276 -0.2147 -0.3493 -0.4205
17549W        W60565   7.362   0.500  23.238 -0.0317  0.3380 -0.1607
17550W        W60566  30.026   0.177  28.609  0.1477  0.0509 -0.2829
17551W        W60567  28.638  34.412  16.123  0.3313 -0.0626  0.0353
17552W        W60568   5.109  30.452  26.188  0.3042 -0.5489 -0.0469
17553W        W60569   6.995   0.149  23.085 -0.0235  0.0663 -0.2541
17554W        W60570  13.564   9.387  26.493  0.0640  0.2100  0.1521
17555W        W60571  21.669   8.528   5.060 -0.0697  0.1141 -0.1174
17556W        W60572  22.245   0.960  15.795 -0.0272 -0.2201  0.0670
17557W        W60573  31.667   0.334   2.799 -0.1364 -0.0720 -0.1444
17558W        W60574  19.313  18.945   0.221  0.3626 -0.0397  0.2137
17559W        W60575  12.923   6.159   2.233  0.0258  0.1480 -0.1350
17560W        W60576  13.963  24.446   6.353 -0.1579 -0.1503  0.0308
17561W        W60577  28.165  16.275  23.593  0.0790 -0.0936  0.1603
17562W        W60578  21.735  27.153  27.685 -0.2943  0.1558 -0.0253
17563W        W60579  31.055   7.237   4.288  0.1372  0.2937  0.1840
17564W        W60580  28.442   1.146  28.925  0.2805 -0.0563 -0.2001
17565W        W60581  25.502   7.698  28.323  0.1266 -0.4457  0.0357
17566W        W60582  22.038  30.657   4.638  0.1313 -0.3099  0.2659
17567W        W60583  22.116  30.244  19.231  0.2505 -0.0800 -0.2203
17568W        W60584  31.485  30.351  27.646  0.0661 -0.1574 -0.1435
17569W        W60585  21.395  31.427  26.835  0.2597 -0.3415  0.4132
17570W        W60586  27.840   6.841  24.994 -0.1408  0.0438 -0.3221
17571W        W60587  20.121   6.322   7.646  0.3508  0.2676 -0.0400
17572W        W60588  20.943   8.099   2.686  0.0083  0.0077 -0.0875
17573W        W60589   4.984   6.289  21.160 -0.0982  0.1777 -0.1207
17574W        W60590  28.797  16.869  19.939 -0.2988 -0.1250 -0.0622
17575W        W60591  27.274   3.632  20.155 -0.3387 -0.0161  0.4287
17576W        W60592   0.535  33.897  28.724 -0.1505 -0.1931 -0.0967
17577W        W60593   7.543   0.893   7.980 -0.1062 -0.0732  0.1580
17578W        W60594  33.922   3.250  23.747  0.3346 -0.0531  0.0212
17579W        W60595  18.121  34.513   4.627  0.3744  0.2237 -0.2575
17580W        W60596  32.292  22.007  29.295  0.0866  0.1064 -0.1015
17581W        W60597  31.016   2.414   9.736  0.2016 -0.3613 -0.0137
17582W        W60598   9.569   4.136   7.338 -0.4779 -0.1483 -0.3362
17583W        W60599  14.601  11.339   2.084  0.1266  0.2677  0.2378
17584W        W60600   5.564   3.637  25.898  0.0551 -0.0567 -0.0264
17585W        W60601  27.555  16.558  14.825  0.1005  0.2612  0.0528
17586W        W60602  29.416  32.541  22.952 -0.2828  0.0630  0.2784
17587W        W60603  21.786  18.735  13.750 -0.3064 -0.0052  0.2599
17588W        W60604  34.166  18.018   0.790 -0.1911 -0.1419 -0.0199
17589W        W60605  17.874  17.583  17.141 -0.0627  0.1439  0.3370
17590W        W60606  23.635   1.744   9.222  0.1359  0.0517  0.0422
17591W        W60607  14.980   5.442   1.920  0.0898 -0.0487  0.1249
17592W        W60608  26.597   5.033   7.752  0.2299 -0.3468  0.0812
17593W        W60609  26.167   7.613   2.698  0.2949 -0.0357 -0.1323
17594W        W60610   9.158  33.420   3.131 -0.0755 -0.1802  0.1550
17595W        W60611  20.945  11.454   5.169 -0.0528  0.1592  0.1026
17596W        W60612  29.777   3.039  10.163 -0.0241  0.1056  0.3542
17597W        W60613  28.965   8.895   4.150 -0.2000  0.1411  0.1210
17598W        W60614  32.944  31.896  26.460 -0.2226  0.1700 -0.1958
17599W        W60615  27.069   6.330  10.648  0.2499  0.1292  0.1504
17600W        W60616  12.950   7.730   9.034 -0.2066 -0.0494 -0.2283
17601W        W60617  33.933  14.825  28.820  0.0730 -0.1337 -0.1254
17602W        W60618   4.970  12.462  24.270 -0.0372 -0.1575 -0.1385
17603W        W60619  27.385   7.842  29.305  0.0269 -0.2252  0.0993
17604W        W60620  25.713   0.545   1.003 -0.1604 -0.3136  0.0326
17605W        W60621   8.682  31.570  21.305  0.2480  0.2185 -0.2257
17606W        W60622  30.745   0.557  27.734 -0.2117 -0.1110 -0.2562
17607W        W60623  19.545   9.251   2.840 -0.3852 -0.0812  0.1711
17608W        W60624   3.306   3.639   6.831  0.0094 -0.4343 -0.1363
17609W        W60625   2.327  23.965   3.918  0.1370 -0.1064 -0.1302
17610W        W60626  22.452  25.803  19.208 -0.1100 -0.1870 -0.1372
17611W        W60627  25.069   5.169  17.337 -0.0461  0.1956  0.1377
17612W        W60628  19.082  13.760  14.296  0.0232 -0.0098 -0.0644
17613W        W60629  28.694   9.531  28.073  0.0162  0.0970  0.0413
17614W        W60630  22.777   3.654  10.284  0.0339 -0.1007  0.0291
17615W        W60631   6.281  30.425   3.935  0.1478 -0.1114 -0.1885
17616W        W60632   0.989   7.589  17.503  0.1645  0.0629  0.2263
17617W        W60633   7.673  18.725  28.938 -0.0005  0.4296 -0.1007
17618W        W60634  29.870   1.551   8.948 -0.2409 -0.1364  0.1861
17619W        W60635   0.024  28.533   4.704  0.0892 -0.4152 -0.3157
17620W        W60636  14.856   9.609   1.143 -0.2367  0.2694  0.0280
17621W        W60637  29.418   3.075   8.689 -0.2265 -0.0521 -0.0625
17622W        W60638  27.960  13.529  18.439  0.0534  0.3217 -0.0021
17623W        W60639   1.917   3.792  24.866  0.1511 -0.0008 -0.1915
17624W        W60640  27.069  34.492  26.109  0.2243  0.1247 -0.1676
17625W        W60641  25.883  34.683   4.351 -0.0175 -0.1699 -0.2779
17626W        W60642   2.408   8.166  24.696 -0.0628 -0.3679 -0.2089
17627W        W60643  27.080  29.981   0.951  0.3708  0.2243  0.2798
17628W        W60644  23.328   8.142  15.449 -0.0581  0.4261 -0.2504
17629W        W60645  31.568  21.201   6.669  0.1309  0.1708 -0.4365
17630W        W60646  22.963  32.613  29.276  0.0915  0.1175 -0.1481
17631W        W60647   9.799  25.838  27.216 -0.0343 -0.1089  0.0330
17632W        W60648  29.867  33.488   1.807 -0.3826  0.2859  0.1577
17633W        W60649   0.429  10.767   9.727 -0.3941 -0.1506  0.0898
17634W        W60650  11.569  20.953  28.221 -0.0572 -0.1702  0.1036
17635W        W60651   0.211  31.944  25.096 -0.1668 -0.1611 -0.0389
17636W        W60652  32.668  32.712   5.764  0.1797 -0.0564  0.1543
17637W        W60653  22.078   5.746  29.129 -0.0496 -0.2613  0.1462
17638W        W60654   4.716  34.431   9.455  0.0867  0.0063 -0.1638
17639W        W60655  34.769   2.504   7.490 -0.3444 -0.0193  0.2676
17640W        W60656  14.465  20.298   1.059  0.0294 -0.2751  0.0148
17641W        W60657  24.367  10.390   3.522 -0.2048 -0.1171 -0.4244
17642W        W60658  30.929  15.803   1.767 -0.1168 -0.1303  0.1000
17643W        W60659  21.772   5.627  18.754  0.2610  0.3556  0.0447
17644W        W60660  30.793  13.845  16.135 -0.0381  0.0348 -0.0277
17645W        W60661   0.795  32.976   5.176 -0.2013 -0.0051 -0.2431
17646W        W60662  23.804   5.494  19.493 -0.0197  0.0505 -0.2029
17647W        W60663   6.344   9.612  14.012  0.0685 -0.0060 -0.0936
17648W        W60664  14.070  29.441  16.648  0.2875  0.2728 -0.0096
17649W        W60665  22.342  11.929  26.060  0.0468 -0.0647  0.2008
17650W        W60666  33.248  24.109  21.692  0.0052  0.1437  0.1340
17651W        W60667  28.895  30.820  23.808 -0.3755 -0.1555  0.3673
17652W        W60668   5.586   4.485   7.232  0.1375 -0.0077  0.0763
17653W        W60669  28.711  26.952  27.053  0.0359  0.2445  0.0654
17654W        W60670   9.424  27.342   7.796 -0.3341  0.1497 -0.0018
17655W        W60671  29.405   9.395  19.732  0.0569  0.0602  0.1056
17656W        W60672   0.427  26.884  23.723 -0.1725  0.2150  0.0343
17657W        W60673  27.306   4.297  25.228  0.2852  0.0490 -0.1080
17658W        W60674   5.730  15.202  26.337 -0.0465  0.2107  0.0915
17659W        W60675  10.250  11.606  19.046  0.2428  0.3235  0.0666
17660W        W60676  13.993  17.553  12.291  0.4029  0.1947 -0.1689
17661W        W60677  25.990   1.704  15.175 -0.1705 -0.2849 -0.0108
17662W        W60678  21.560   4.371  17.154  0.0085 -0.2466 -0.0609
17663W        W60679  15.468  29.747  21.439  0.3114  0.3561 -0.3225
17664W        W60680   8.942  11.091  13.881  0.2216 -0.2514  0.0057
17665W        W60681  14.961  12.551  13.621  0.1306  0.1273 -0.0496
17666W        W60682  28.442  33.196  17.281  0.0366 -0.1009  0.0580
17667W        W60683   0.890  32.158  17.630 -0.0558 -0.3684  0.2015
17668W        W60684   3.125   9.858  19.567  0.1094  0.1846  0.1594
17669W        W60685  33.537   0.623  24.239 -0.0227 -0.1466  0.0350
17670W        W60686  19.714  10.048  13.854 -0.0445 -0.2346 -0.0432
17671W        W60687   8.788   8.102  14.460 -0.2287  0.0122 -0.2129
17672W        W60688  25.265   8.022  26.997  0.0712 -0.0849  0.1950
17673W        W60689  30.863  16.770  16.582 -0.1450  0.2521  0.0184
17674W        W60690  31.415   4.346  23.102  0.1473 -0.3223 -0.2715
17675W        W60691  29.486  24.394  17.126  0.1408  0.0238  0.0757
17676W        W60692  30.396   3.120  21.983  0.0190  0.1154 -0.1329
17677W        W60693  33.525   5.156  17.675 -0.1053  0.2071 -0.0615
17678W        W60694  11.396  23.948   1.420  0.1675 -0.1692 -0.2484
17679W        W60695  21.411  22.941  15.320 -0.0539 -0.0233 -0.1698
17680W        W60696  26.565  27.264  25.685  0.3528 -0.1371  0.1295
17681W        W60697  15.930   4.305  19.916 -0.0467 -0.1718 -0.0540
17682W        W60698  23.059  31.255   7.304 -0.2232  0.1126 -0.0135
17683W        W60699  24.766  13.456  13.579 -0.0525  0.0046 -0.2929
17684W        W60700  26.919  15.126  19.274 -0.0913  0.4208  0.5036
17685W        W60701  17.737  13.231  19.590  0.1974  0.2234  0.0591
17686W        W60702  23.127  14.266  20.672  0.0735  0.0300  0.1503
17687W        W60703  18.544  16.279  12.225 -0.2086 -0.0304 -0.0471
17688W        W60704  27.011  15.134  14.776 -0.4291  0.1628 -0.3248
17689W        W60705  28.911   3.369  17.499 -0.0207 -0.1443  0.0692
17690W        W60706  14.608  26.028  20.595  0.2091  0.0280  0.2142
17691W        W60707  22.508   8.877  14.585  0.1626 -0.2882  0.2622
17692W        W60708  31.161   1.637   6.942  0.1950  0.0518  0.3181
17693W        W60709  19.623  15.101  22.714  0.2532  0.2234 -0.0466
17694W        W60710   2.107   9.662  22.178 -0.1180  0.0912  0.2163
17695W        W60711  19.900   0.828  18.562  0.1620 -0.1616 -0.0615
17696W        W60712  19.428  10.410  17.160 -0.2037 -0.2829 -0.2071
17697W        W60713  29.100   2.668  28.800 -0.1028 -0.0953 -0.1659
17698W        W60714   3.609  21.445  19.075 -0.1814 -0.1481  0.2336
17699W        W60715   0.294   1.965   2.033  0.0563  0.0784 -0.1196
17700W        W60716   5.470  20.768  16.314  0.2964 -0.0443 -0.0056
17701W        W60717   1.177  12.343  27.672  0.0657 -0.0638  0.1537
17702W        W60718  25.631   3.986  22.593  0.1886  0.3402 -0.1203
17703W        W60719  27.443  20.448  21.373 -0.0698 -0.1121 -0.0736
17704W        W60720  29.548   8.133  23.566 -0.1534  0.1356 -0.2090
17705W        W60721  26.121  24.104  17.825  0.1541 -0.0382  0.0823
17706W        W60722   1.061  34.395  17.723 -0.3070  0.1436 -0.2581
17707W        W60723  12.436  14.039  12.320  0.2565  0.1319  0.0983
17708W        W60724  17.187   9.129  28.537  0.1656  0.0088 -0.0506
17709W        W60725  20.766   9.029  22.475 -0.3438 -0.2218 -0.1003
17710W        W60726  29.291  19.240  16.628  0.3815 -0.0404 -0.4308
17711W        W60727  26.854  10.705   0.204  0.1061 -0.1078  0.1294
17712W        W60728  29.026  34.488  10.726 -0.3432  0.2193  0.1950
17713W        W60729  25.437  14.705  17.048 -0.0418  0.0385  0.1140
17714W        W60730  24.322  11.155  29.179  0.1486 -0.0552 -0.0572
17715W        W60731  17.191   1.868  14.233  0.2374 -0.1444  0.1265
17716W        W60732  22.325  32.132   9.864  0.1740  0.0960  0.2583
17717W        W60733  21.167  28.257  16.704  0.1149 -0.0886  0.2508
17718W        W60734  13.242   8.837  15.729 -0.0719  0.4261 -0.3956
17719W        W60735  27.891   6.024  24.568 -0.0484 -0.0318 -0.2825
17720W        W60736  31.585  12.712  19.569 -0.2235 -0.3394 -0.2532
17721W        W60737  14.810  29.657  21.219  0.0394  0.1679  0.0720
17722W        W60738  26.634   5.492   2.012 -0.2544 -0.2100  0.3970
17723W        W60739  21.207  19.557  24.088  0.0671 -0.2706  0.2539
17724W        W60740   0.535  12.549  15.356 -0.0454  0.0211  0.2116
17725W        W60741  26.857   8.555  21.740 -0.0844 -0.4687  0.0897
17726W        W60742  26.430  32.271  18.044  0.0315  0.0245  0.2401
17727W        W60743  30.354   8.646  24.362  0.2854  0.1888  0.1605
17728W        W60744  24.811   3.608  20.498 -0.0261 -0.2187 -0.0075
17729W        W60745  16.382   2.000  17.628 -0.1494 -0.0442 -0.1913
17730W        W60746   0.324   3.870  26.936  0.0239  0.0906 -0.1250
17731W        W60747  17.244   5.971  19.535 -0.0697 -0.2581  0.0016
17732W        W60748  10.423  23.191  24.235 -0.2571  0.0024  0.2503
17733W        W60749   3.001  21.838  17.471 -0.0420  0.0431  0.0631
17734W        W60750  19.784   7.525  15.724 -0.1633  0.0090 -0.0684
17735W        W60751  28.784   6.309  16.054 -0.0007  0.2651 -0.1076
17736W        W60752  26.440  17.231  17.692  0.1167 -0.0250  0.2694
17737W        W60753  26.174  31.781  26.268  0.0182  0.0439  0.2422
17738W        W60754  29.334   7.306   1.552 -0.0612  0.1334 -0.0548
17739W        W60755  21.646  32.340  20.864 -0.0117 -0.1379 -0.0841
17740W        W60756  14.931  13.997  19.939  0.0261  0.2902 -0.3281
17741W        W60757  26.479  12.811  16.784  0.1589 -0.1585  0.0493
17742W        W60758  29.698  13.106   6.851 -0.0297  0.2360  0.4055
17743W        W60759  33.728  10.823  17.215 -0.0074  0.1680 -0.0165
17744W        W60760  34.140   4.155  23.450 -0.3209  0.0744 -0.0110
17745W        W60761  25.075  12.762  16.806  0.1192 -0.1467  0.0643
17746W        W60762  15.014  27.678  20.580  0.2728 -0.1515 -0.0286
17747W        W60763  24.023  34.122  26.368  0.0709 -0.0824 -0.0238
17748W        W60764  17.143  24.457  27.789 -0.0169  0.2845  0.0355
17749W        W60765   4.950  17.947  27.067 -0.5821 -0.2091 -0.0259
17750W        W60766  28.898   5.532  18.105  0.0667  0.1622  0.2242
17751W        W60767  30.584  11.297  24.677 -0.3780 -0.0036 -0.2332
17752W        W60768  22.346  20.432  13.203 -0.1834 -0.0068 -0.2084
17753W        W60769   0.033  30.775  14.930  0.3611  0.1329  0.1548
17754W        W60770   6.219   9.821  14.907 -0.3398  0.0165 -0.2720
17755W        W60771  27.189  11.323  17.720 -0.3973  0.2196 -0.0249
17756W        W60772  16.544   5.972  13.547  0.1010  0.1499  0.0430
17757W        W60773  13.249   9.961  18.551 -0.1422  0.0673 -0.1190
17758W        W60774  22.762  17.566  22.137 -0.0335 -0.0705  0.0197
17759W        W60775  17.030  12.864  26.275 -0.1241  0.0105 -0.1303
17760W        W60776  32.554  10.103  24.905 -0.2085  0.0142  0.4554
17761W        W60777  11.224  33.902  22.570  0.2446 -0.1265  0.0408
17762W        W60778  30.850   8.649  19.392 -0.0978  0.0325  0.1214
17763W        W60779  22.378  13.868  13.102  0.2151 -0.1593  0.0806
17764W        W60780  25.687   6.685  22.884  0.1746 -0.2566  0.1110
17765W        W60781  18.618  20.077  20.796 -0.3255 -0.2560  0.1690
17766W        W60782  17.072  29.885  19.821 -0.0292  0.0992 -0.3524
17767W        W60783   0.480   8.096  24.124 -0.2647 -0.0750  0.0047
17768W        W60784   3.319  18.923  14.276  0.2517 -0.1094 -0.0891
17769W        W60785  17.571   5.590  19.229 -0.1566 -0.0675  0.0449
17770W        W60786  29.127  30.504  28.816  0.3178  0.0306  0.1260
17771W        W60787  31.019   9.904  24.240 -0.0964  0.2179 -0.2595
17772W        W60788  29.240   1.908   8.688 -0.1381  0.3884 -0.1537
17773W        W60789   4.175  18.304  16.436  0.1233 -0.2328 -0.0729
17774W        W60790   4.495   3.561  16.871 -0.1205 -0.0829 -0.1401
17775W        W60791  26.503  14.177  25.915  0.1308 -0.3199 -0.3273
17776W        W60792   1.803  17.488  24.919 -0.0525 -0.0097 -0.1116
17777W        W60793   2.854  10.360  20.566  0.0184 -0.1879 -0.1435
17778W        W60794   1.858  19.196  20.045  0.1217 -0.3556 -0.0751
17779W        W60795  10.391  33.116  24.748 -0.0227 -0.0395  0.0582
17780W        W60796  24.258   3.765  19.639  0.0489 -0.4459  0.2089
17781W        W60797  33.657  20.075   1.187  0.0396  0.1428 -0.1464
17782W        W60798  19.638  24.125  15.800 -0.0491  0.2693  0.0375
17783W        W60799   6.682  19.865  26.726 -0.1798  0.0963  0.2681
17784W        W60800  26.951   9.888  17.555  0.0183 -0.2814  0.2862
17785W        W60801   5.235  21.504  15.071  0.5178 -0.3260  0.0295
17786W        W60802  29.991   3.905  20.489  0.1940  0.1782  0.0087
17787W        W60803  23.842   8.112  20.425  0.3605  0.2437 -0.2030
17788W        W60804  27.440  29.181  16.719 -0.0669 -0.0303  0.1390
17789W        W60805   4.717   3.022  17.926  0.0620  0.0691 -0.1698
17790W        W60806  20.746   6.891  26.930  0.4485 -0.1060 -0.2175
17791W        W60807  22.479   3.943  16.157 -0.2115 -0.1141  0.1185
17792W        W60808   0.391  11.682  21.658 -0.1660  0.1735  0.0100
17793W        W60809  23.325   7.556   6.592  0.2477 -0.0769  0.0759
17794W        W60810  19.194  11.155  12.372 -0.0819 -0.0152  0.2765
17795W        W60811  33.886   4.079  16.284  0.4805  0.3260 -0.0870
17796W        W60812  17.452  32.856   2.020 -0.1393  0.0507  0.2929
17797W        W60813  13.537  12.037   4.550  0.3882 -0.1000  0.0101
17798W        W60814  21.480  34.491  16.883  0.1446  0.0156  0.2334
17799W        W60815   5.842  18.996  16.604 -0.1020 -0.0529  0.4359
17800W        W60816  12.893  12.342  15.718  0.0657 -0.2684  0.0479
17801W        W60817  15.767   3.485  15.862 -0.0182  0.0947  0.0491
17802W        W60818  28.414  10.166  17.117  0.0457  0.1572  0.2377
17803W        W60819  32.595  14.441  20.195 -0.2837 -0.0270  0.0411
17804W        W60820   3.785   3.722  15.660  0.3270  0.1030  0.1227
17805W        W60821  27.683   1.169  15.486 -0.3947 -0.0553 -0.0794
17806W        W60822   4.599   5.587  16.617  0.0854 -0.3060 -0.1433
17807W        W60823  21.541  12.977  19.633  0.1402 -0.1100 -0.0542
17808W        W60824  33.684  12.307  23.884 -0.0999 -0.3112  0.2687
17809W        W60825  19.970  11.505  17.772  0.1224  0.0276  0.0692
17810W        W60826  33.380   6.393  15.748 -0.2107  0.2088 -0.1372
17811W        W60827  34.209   2.491   1.959 -0.4196  0.1130 -0.1265
17812W        W60828  30.566   2.222   0.310 -0.2481  0.1058  0.0189
17813W        W60829  24.664   6.221  20.405 -0.3913  0.0084 -0.0633
17814W        W60830   3.602   2.941  28.685  0.0592 -0.3915  0.1627
17815W        W60831  31.340   5.739  25.121  0.1630 -0.3446  0.2858
17816W        W60832  33.927   9.433  14.617 -0.1444 -0.0317  0.1609
17817W        W60833  23.386  16.376  19.976 -0.1655  0.1648  0.0930
17818W        W60834  19.797   5.765  20.891 -0.3407 -0.0419  0.1674
17819W        W60835  28.263  10.542  15.894  0.1661 -0.1119  0.2148
17820W        W60836  27.243  14.252  29.131  0.1786 -0.3181 -0.1377
17821W        W60837  32.373   1.554   1.992 -0.2079  0.2099  0.4050
17822W        W60838   5.197   5.420  24.566  0.1395 -0.1417 -0.1957
17823W        W60839  23.225   7.684  15.311  0.1537  0.3782  0.2770
17824W        W60840  27.638  34.189   3.544 -0.1107 -0.1956 -0.1694
17825W        W60841  25.530  19.753  15.319 -0.0600 -0.0038 -0.0703
17826W        W60842  26.690  33.234   4.414 -0.4552 -0.2204 -0.1275
17827W        W60843  19.826  30.804  14.522  0.1382  0.2616  0.1759
17828W        W60844  24.364   0.466  22.401  0.0647  0.1201  0.1569
17829W        W60845   8.781   1.253  16.305  0.2346 -0.1661  0.1353
17830W        W60846  23.557   9.851  22.306  0.0651  0.1694  0.4751
17831W        W60847   4.315  13.100  20.777  0.0308 -0.1111 -0.1212
17832W        W60848  23.142  10.566  20.226 -0.0400  0.0943  0.3004
17833W        W60849   3.742   1.638   1.121  0.0688  0.0963 -0.0786
17834W        W60850  30.750  24.701  24.696 -0.1174  0.1482 -0.0153
17835W        W60851  31.951  13.553  17.720  0.3975 -0.0039 -0.0643
17836W        W60852  24.773  13.572  20.292  0.0534  0.2111  0.2023
17837W        W60853  27.596  12.067  22.682  0.0738  0.0445 -0.1250
17838W        W60854  22.584   1.697  15.268  0.3808  0.1334  0.2088
17839W        W60855  24.896  24.582  17.472  0.0196 -0.0374 -0.1293
17840W        W60856  33.032   7.802  25.924 -0.0312  0.1038  0.0086
17841W        W60857  31.393   2.635  17.938  0.1428  0.0489  0.1592
17842W        W60858  16.330   4.013  21.623 -0.0313 -0.1237 -0.1747
17843W        W60859  17.744  27.243  19.819 -0.0788 -0.1898 -0.1185
17844W        W60860  33.767  11.433  26.837  0.2558  0.3259 -0.0083
17845W        W60861  28.702  11.461  14.978 -0.0201 -0.0856  0.0509
17846W        W60862  31.855  24.482  25.555 -0.0522  0.2246  0.4108
17847W        W60863  17.497  22.795  16.486 -0.2383  0.1094 -0.1372
17848W        W60864  24.664   6.240  24.530 -0.1730 -0.2201  0.0059
17849W        W60865   0.523   7.298  16.867  0.1128  0.1722 -0.0195
17850W        W60866   4.564  14.085  22.121 -0.2983 -0.2150 -0.1340
17851W        W60867  23.668   4.773  11.269 -0.3487  0.1705 -0.1888
17852W        W60868  25.818  31.053  16.990 -0.0453  0.1812  0.0572
17853W        W60869  30.673  25.046  16.235 -0.0656  0.0088  0.0231
17854W        W60870  22.943  34.103  17.086  0.1496 -0.0761 -0.4563
17855W        W60871  21.390  17.602  20.815 -0.1558 -0.0651  0.0299
17856W        W60872   9.825  13.882  16.860  0.4614 -0.1054 -0.2290
17857W        W60873  25.766   2.259  27.088  0.0921  0.2045 -0.0264
17858W        W60874  25.885   2.487  22.153  0.1777 -0.1217 -0.2696
17859W        W60875  27.888   2.576   0.942  0.0437 -0.1218  0.1248
17860W        W60876  27.939  33.200  17.401 -0.1745  0.0865 -0.1776
17861W        W60877  24.899  22.329  14.814 -0.4549 -0.0796 -0.0183
17862W        W60878   9.045  11.889   7.032 -0.1260 -0.0769  0.0687
17863W        W60879   1.913   7.253  16.494  0.2149 -0.3444 -0.5112
17864W        W60880  13.551  13.529  13.057  0.1034  0.0922  0.0686
17865W        W60881  17.998  10.426  13.753 -0.3321 -0.0417  0.1680
17866W        W60882  26.275  29.545  22.428  0.0560 -0.0588  0.2852
17867W        W60883  16.514  17.958  21.403  0.4524  0.1587  0.0173
17868W        W60884  31.081   3.548   1.521 -0.0762  0.1948  0.2420
17869W        W60885  32.698   4.826  17.406  0.0837  0.2600 -0.4068
17870W        W60886  27.948  31.784  17.036 -0.0980  0.0038 -0.1939
17871W        W60887  23.112  12.772  26.560 -0.0426 -0.1942 -0.2707
17872W        W60888  24.287   4.068  18.286 -0.0436  0.1637 -0.2475
17873W        W60889  29.743  31.006   0.050  0.1080  0.1925  0.1077
17874W        W60890   0.714  17.298  16.263  0.2516  0.0402 -0.1200
17875W        W60891  20.591   8.195  24.165 -0.1038 -0.2933  0.1237
17876W        W60892  31.593  28.871  20.528 -0.0449  0.3710 -0.0278
17877W        W60893  19.541  33.830  28.158 -0.2057  0.0181 -0.0603
17878W        W60894   2.294   8.591  20.452 -0.1861  0.0145  0.3631
17879W        W60895  22.815  19.814   7.147  0.2514 -0.0895 -0.1000
17880W        W60896  28.618  13.424  29.302  0.1506  0.0920 -0.1111
17881W        W60897  26.637  10.595  21.257 -0.1442  0.1699 -0.0337
17882W        W60898  26.704  21.873  18.651 -0.1775 -0.0266  0.0497
17883W        W60899   0.045   4.813   0.683 -0.0119  0.1800  0.0039
17884W        W60900  33.053  31.792  18.047  0.0260 -0.1326 -0.1327
17885W        W60901   3.208  20.238   0.024  0.0736  0.0756 -0.3004
17886W        W60902  27.101  11.315   8.647 -0.1304 -0.4826 -0.2843
17887W        W60903  18.184   0.798  14.334 -0.1954  0.2727 -0.5708
17888W        W60904   3.029  16.191   2.122  0.2014 -0.0020 -0.1034
17889W        W60905  30.744  19.062  15.334 -0.1137 -0.0355 -0.1185
17890W        W60906  30.131   9.871  23.712 -0.1654  0.1170 -0.0358
17891W        W60907   3.517   1.320  15.529  0.0028 -0.2024  0.3790
17892W        W60908  17.916   6.198  29.161 -0.0776 -0.0040  0.2658
17893W        W60909   4.877  33.722  18.548 -0.0384 -0.0650  0.1840
17894W        W60910   4.961  26.244  15.338  0.1706 -0.1988 -0.2259
17895W        W60911  20.941  21.212  13.300 -0.4943  0.0311  0.0904
17896W        W60912  24.801   2.358  17.309 -0.2415 -0.2627  0.0158
17897W        W60913  27.709  14.699  22.364 -0.1474 -0.0812  0.1141
17898W        W60914  23.952  32.659  15.289  0.1131 -0.1090  0.1158
17899W        W60915  29.189  11.751  28.703 -0.0028 -0.0658 -0.1533
17900W        W60916  23.649   8.834  22.733  0.1180  0.1375  0.2412
17901W        W60917  19.777   1.102  15.707  0.1105 -0.1423  0.2773
17902W        W60918  30.687  17.029  14.380 -0.2724  0.0256 -0.1316
17903W        W60919  32.341   4.371  18.735 -0.2450 -0.2149 -0.0160
17904W        W60920  23.324   3.076  19.597 -0.0641 -0.1882 -0.0197
17905W        W60921  25.537  13.800  21.937 -0.3192  0.0534 -0.2813
17906W        W60922   4.569  26.303  16.844  0.0299  0.2066  0.2194
17907W        W60923   0.630   5.824  17.802  0.1127 -0.0194  0.2543
17908W        W60924   0.975  31.664   1.671  0.3343 -0.1007 -0.0394
17909W        W60925  22.692  12.631  28.020  0.1179  0.2329 -0.1470
17910W        W60926  27.201   9.475  16.918 -0.2989  0.0382  0.0812
17911W        W60927  30.130  15.563  20.481 -0.0121  0.0573  0.1114
17912W        W60928  18.201   6.303  20.774  0.0031 -0.0113  0.1482
17913W        W60929  24.167  14.204   7.901  0.5307 -0.0800  0.0518
17914W        W60930  24.826   7.930  22.558  0.0749 -0.2791 -0.1116
17915W        W60931  25.060  32.592  25.100 -0.1015 -0.1017 -0.1068
17916W        W60932  26.659  16.990  17.231  0.1812 -0.0621 -0.0004
17917W        W60933  11.056  29.341  23.306  0.0416 -0.1269  0.3514
17918W        W60934  24.527  30.044  26.044 -0.0840 -0.2244  0.3264
17919W        W60935  29.513  32.456   4.665  0.0967  0.0121  0.0345
17920W        W60936   1.768  22.505  17.625 -0.1239  0.1412 -0.1251
17921W        W60937   8.101  26.944  18.175  0.0367  0.0059 -0.1427
17922W        W60938  16.651   3.492  27.562 -0.0460 -0.0338  0.0495
17923W        W60939  16.605   5.976  20.210  0.0702  0.1819 -0.1794
17924W        W60940  19.909  32.509  21.165  0.0951 -0.1651 -0.2901
17925W        W60941  31.304  11.155   4.061 -0.1141 -0.0819 -0.1012
17926W        W60942  29.096  33.967  20.517 -0.1959  0.2604  0.1101
17927W        W60943  31.076   5.180  20.443  0.1180 -0.0343 -0.0866
17928W        W60944  15.570  12.819  25.345 -0.0008  0.1118  0.2054
17929W        W60945  29.606  31.766  16.196 -0.0079 -0.2424 -0.1619
17930W        W60946  24.203   9.885  18.432 -0.2925 -0.2414  0.2863
17931W        W60947  27.383  33.986  25.548  0.0764  0.0730 -0.1457
17932W        W60948   4.599   7.976  16.516  0.1945 -0.0883 -0.0016
17933W        W60949   7.793  16.440  27.866 -0.1275  0.0746 -0.0906
17934W        W60950   0.696   7.950  14.501 -0.2782 -0.1025  0.0207
17935W        W60951  27.152  18.622  22.174  0.0973 -0.0620  0.0436
17936W        W60952  22.508  16.861  26.853  0.0006  0.1648 -0.2026
17937W        W60953  22.304  20.149  17.341 -0.3605 -0.0831 -0.1081
17938W        W60954  30.911   7.822  18.876  0.3442  0.1115  0.1402
17939W        W60955  15.129  12.524  14.175 -0.0479  0.1256  0.1213
17940W        W60956  25.896   2.933  23.483 -0.1717  0.3186  0.2110
17941W        W60957   5.647  32.467  15.294 -0.3022 -0.1075 -0.1089
17942W        W60958   1.146  24.906  21.782  0.1611 -0.2077 -0.4402
17943W        W60959  30.774   3.114  22.270 -0.3820  0.2045 -0.1645
17944W        W60960  33.441  28.957  28.374 -0.0090 -0.1910 -0.1891
17945W        W60961  12.837   5.309  17.169 -0.2246 -0.0389  0.2819
17946W        W60962  33.026   2.166  20.666 -0.2196 -0.4770  0.1327
17947W        W60963   9.053  14.019  18.831 -0.3332  0.1108 -0.0460
17948W        W60964  24.946   8.688  15.229 -0.2788  0.2718 -0.2296
17949W        W60965   4.395  10.297  16.427  0.2970 -0.1167 -0.0547
17950W        W60966  13.901   5.021  15.642  0.2178  0.0197 -0.2794
17951W        W60967  28.467  21.849   8.290  0.0652 -0.2607 -0.3108
17952W        W60968   0.496  21.732  26.515 -0.0873  0.1818 -0.1588
17953W        W60969  33.225  15.811  20.000 -0.3655 -0.0182  0.0546
17954W        W60970   1.585   4.696  15.551 -0.1071 -0.0785 -0.0630
17955W        W60971  20.489   5.709  24.169 -0.0232 -0.0948 -0.3487
17956W        W60972  34.432  15.549  17.808  0.2743 -0.0393  0.2190
17957W        W60973   4.974   4.070   1.387  0.1420 -0.0282 -0.1451
17958W        W60974  19.842   1.658  25.232  0.0179 -0.0596 -0.1364
17959W        W60975  16.936   1.269  15.971 -0.3301 -0.1699 -0.0848
17960W        W60976  30.632   8.270  17.213 -0.2996 -0.2497  0.0804
17961W        W60977  20.243  32.159  16.129  0.2195  0.2582  0.0467
17962W        W60978  26.112  10.197  14.977 -0.4007  0.2469  0.0292
17963W        W60979   4.242  14.945  20.519  0.0905 -0.2499  0.2527
17964W        W60980  32.206   9.650  27.465  0.0069  0.0134 -0.1451
17965W        W60981  31.993  29.390  20.799 -0.0761  0.1348  0.0818
17966W        W60982  20.658  13.461  20.503 -0.1516  0.0377  0.0511
17967W        W60983  22.170   6.155  23.273  0.2005 -0.0815  0.2657
17968W        W60984   4.602   4.432   0.662 -0.1466  0.1063  0.0725
17969W        W60985  30.796   7.233  14.831  0.4087 -0.2619  0.1724
17970W        W60986  27.006   6.163  20.722  0.4254 -0.0566 -0.1534
17971W        W60987  20.894   8.628   0.810 -0.1033  0.0160  0.0856
17972W        W60988  29.615   4.209  17.942  0.1518  0.2316  0.2162
17973W        W60989  23.024  10.224  16.590 -0.1554 -0.2210 -0.4057
17974W        W60990  19.163  18.875  12.129 -0.1119 -0.1959 -0.0767
17975W        W60991  33.557   6.307  20.251  0.0706  0.3259  0.0635
17976W        W60992   1.877   7.442  24.867 -0.1176  0.0786  0.1626
17977W        W60993  27.125   3.984  17.048 -0.0912  0.0042 -0.0683
17978W        W60994  23.206   7.265  18.834 -0.3031 -0.1442  0.0763
17979W        W60995  30.078  30.190  23.242 -0.2964 -0.0836 -0.0908
17980W        W60996  16.084  34.184  25.669  0.1195  0.1077 -0.2866
17981W        W60997  10.126  13.427  16.583  0.0615  0.1411 -0.3049
17982W        W60998  28.206  34.603  20.127  0.1398  0.0495  0.1871
17983W        W60999  24.488  11.577   0.454  0.1963 -0.2532 -0.1857
17984W        W61000  26.075   0.850  19.322 -0.2912  0.0201 -0.0178
17985W        W61001  19.234  22.660  15.636 -0.1098  0.0078 -0.2573
17986W        W61002   0.186   5.713  18.111 -0.0509 -0.2262  0.2214
17987W        W61003  16.520  16.583  13.624 -0.1524 -0.2255  0.1569
17988W        W61004  26.743  32.941  28.665  0.0172 -0.2858 -0.3856
17989W        W61005  31.575   7.300  22.387 -0.1271 -0.1845 -0.0212
17990W        W61006  29.777  32.222  25.038  0.2081 -0.2467  0.1921
17991W        W61007  32.171   9.400  17.820  0.1397  0.0063  0.0742
17992W        W61008  24.663  21.459  18.942 -0.0363 -0.0465  0.0429
17993W        W61009  22.916   6.910  20.345  0.0870 -0.1068  0.0341
17994W        W61010  20.739  10.150   0.222  0.0918 -0.1969 -0.2849
17995W        W61011   9.054  13.503  16.553 -0.3274  0.0565  0.2568
17996W        W61012  24.886   9.590  27.822 -0.1352  0.1669  0.1308
17997W        W61013  23.217   4.601  16.516 -0.3990  0.2495 -0.2104
17998W        W61014   1.880  15.348  14.622  0.1233 -0.1152 -0.0178
17999W        W61015   9.855   6.671  17.154  0.0695 -0.2928  0.2989
18000W        W61016  26.692  13.651  14.490 -0.1950 -0.1279 -0.1211
18001W        W61017  24.140   1.936  17.996  0.1417  0.0877  0.4143
18002W        W61018   1.518   4.544  17.525  0.3228 -0.0116 -0.2325
18003W        W61019  29.227  12.787  25.232  0.0106 -0.0697  0.1839
18004W        W61020  33.158  22.223  25.637  0.0745 -0.0333  0.1627
18005W        W61021  24.911  22.283  20.672 -0.0313  0.4954 -0.3872
18006W        W61022  25.068  33.318   9.586  0.0903 -0.0705 -0.3249
18007W        W61023   1.732   8.581  21.818 -0.0309  0.2753  0.0446
18008W        W61024  21.842  23.782   0.580 -0.1017  0.1050  0.2828
18009W        W61025   4.222  32.640  15.630 -0.5513 -0.0506  0.0333
18010W        W61026  13.133   5.374  17.980 -0.2947 -0.0463  0.0397
18011W        W61027   5.469  20.090  16.323  0.4741 -0.0972  0.0981
18012W        W61028  28.915  22.680  23.624 -0.0263  0.5188 -0.1120
18013W        W61029  23.121  32.209  15.611 -0.1823  0.1806 -0.2231
18014W        W61030  22.427  17.155  17.339 -0.1156  0.0275  0.1362
18015W        W61031  23.557  33.025  18.097 -0.0195 -0.0481  0.1013
18016W        W61032   1.278  34.118  25.225  0.1578 -0.1731  0.1207
18017W        W61033  27.492  13.147  16.178 -0.2577  0.0989  0.1143
18018W        W61034  21.152  10.969  23.631 -0.0860  0.2489 -0.0373
18019W        W61035  28.937   4.669  23.990  0.2186  0.1148  0.1126
18020W        W61036  17.179   6.819   0.883 -0.2378 -0.1528 -0.2719
18021W        W61037   6.575   1.767   1.280  0.1701 -0.0695 -0.2453
18022W        W61038   9.660   7.555  17.222  0.0423 -0.1379  0.1673
18023W        W61039  28.262  27.876  19.211  0.1211 -0.0649  0.0513
18024W        W61040   2.615  20.672  18.368  0.2633 -0.0233 -0.1189
18025W        W61041   0.175  11.456  18.395 -0.2667 -0.2374  0.0063
18026W        W61042  28.914  14.358  22.781  0.1049 -0.2962 -0.0129
18027W        W61043  33.495   1.672  14.787 -0.0292 -0.1388 -0.0116
18028W        W61044  17.294   3.319   1.955  0.0622  0.2106  0.2345
18029W        W61045  27.916  14.913  15.548 -0.3088 -0.3063 -0.2557
18030W        W61046  23.671   5.692   2.111 -0.3447 -0.1370  0.0529
18031W        W61047   1.198   8.235  21.953 -0.1632  0.3770  0.1448
18032W        W61048  27.854  10.252  20.872 -0.0502  0.2489 -0.1087
18033W        W61049  28.207  17.014   7.285  0.2324 -0.1804 -0.2594
18034W        W61050   2.313  13.327   5.684 -0.2588  0.0811 -0.3704
18035W        W61051  19.635  27.729  21.580 -0.3314  0.0352  0.0843
18036W        W61052  27.131  10.574  22.066 -0.0465  0.0406 -0.3560
18037W        W61053  13.733  23.220  20.937  0.0639 -0.4696  0.0255
18038W        W61054  27.376  17.868  20.949  0.1291 -0.0508 -0.0518
18039W        W61055  24.331  19.912   1.842 -0.1620 -0.0197  0.3087
18040W        W61056  11.533   5.745  24.744 -0.2469 -0.1363  0.0791
18041W        W61057  31.121  13.996  28.916 -0.0270 -0.1123 -0.0568
18042W        W61058  24.130  15.672   3.917  0.0381 -0.2772  0.3307
18043W        W61059   0.436  30.882  28.524  0.1082 -0.5016 -0.2991
18044W        W61060  34.029  26.190  25.233  0.0017  0.3122 -0.0917
18045W        W61061  31.731   0.382  20.148 -0.1226 -0.2618 -0.1046
18046W        W61062  15.747   5.017  14.621 -0.0956  0.0512 -0.1830
18047W        W61063  22.724   8.518  14.766  0.2160  0.1157  0.1905
18048W        W61064  33.217  13.073  22.998  0.0646 -0.0373  0.0948
18049W        W61065  30.601  10.952  19.201 -0.0661  0.0036  0.2384
18050W        W61066  33.989  24.439  20.766 -0.2877 -0.1683 -0.1597
18051W        W61067  23.525  14.870  19.021  0.1237  0.0313  0.3538
18052W        W61068  26.521  31.354   7.069  0.1349 -0.0376  0.0409
18053W        W61069  13.237  21.350  25.177 -0.0328 -0.2722  0.3369
18054W        W61070  14.569  30.478  25.527 -0.1459  0.2702 -0.3234
18055W        W61071  27.276   9.396  26.745  0.1529  0.1677  0.0634
18056W        W61072  21.653  10.099  15.368 -0.0028  0.1049 -0.2086
18057W        W61073  27.979  17.295  27.204  0.0025 -0.2709  0.4722
18058W        W61074  29.036   1.659  17.574  0.2387  0.2715  0.1510
18059W        W61075  29.830   2.085   8.044 -0.0798  0.0410 -0.2084
18060W        W61076  30.998  29.397   4.181  0.2788 -0.2737  0.1377
18061W        W61077  27.448  29.251  28.763  0.0309  0.1573  0.1068
18062W        W61078   3.120  27.987   3.042 -0.1032  0.1504  0.1801
18063W        W61079  22.663  14.802  13.683  0.2414  0.1891 -0.0967
18064W        W61080  16.254  12.051  23.967 -0.0969  0.0878 -0.0717
18065W        W61081  10.073  17.071  24.076 -0.1392 -0.4138  0.1978
18066W        W61082  16.445  34.025  24.328  0.1222 -0.0617 -0.0609
18067W        W61083   2.559  22.906  27.486  0.0222  0.3062  0.0510
18068W        W61084   2.714   1.728  21.582  0.0467 -0.1157 -0.2494
18069W        W61085  25.084  10.130  22.209 -0.1889 -0.2230 -0.0516
18070W        W61086   7.322  12.157  13.139 -0.0773  0.0735  0.1096
18071W        W61087  10.702   7.389  22.454  0.1599  0.1492 -0.0934
18072W        W61088  25.128   3.052  17.310  0.0972 -0.1370 -0.0639
18073W        W61089  20.118   1.486  16.446  0.1933 -0.0722  0.1914
18074W        W61090  24.727  11.851  26.332  0.3863 -0.0614 -0.0911
18075W        W61091   5.825  14.834   1.422  0.0617  0.2159 -0.0653
18076W        W61092   6.198   3.932  15.501 -0.1232 -0.2000 -0.4217
18077W        W61093   4.444  25.514  14.815 -0.0963 -0.3192 -0.2692
18078W        W61094   3.413   8.463  23.476  0.2979  0.1872 -0.0253
18079W        W61095  29.829  19.025  24.575 -0.2931  0.0677 -0.2521
18080W        W61096  26.918   8.678  16.262  0.0163 -0.0176 -0.1769
18081W        W61097  21.618  32.945   0.589 -0.0339  0.2541 -0.1827
18082W        W61098  22.592   9.825   4.722  0.1987 -0.2101 -0.0975
18083W        W61099  21.615   0.787   1.486 -0.1290 -0.0009 -0.0252
18084W        W61100  20.162   3.404  25.707  0.2023 -0.2480  0.3177
18085W        W61101  20.436   0.959  27.294 -0.0407  0.3571 -0.3542
18086W        W61102  29.379  17.530  15.490  0.0867  0.0957  0.2323
18087W        W61103  32.562  26.582  26.600  0.2586  0.1058 -0.0865
18088W        W61104  30.748   0.744  23.466  0.1808 -0.0140  0.2931
18089W        W61105  26.613  16.070  18.456 -0.2654 -0.1464 -0.0491
18090W        W61106  12.805  20.292   1.526 -0.2468  0.3777 -0.1793
18091W        W61107  16.389  34.262  19.742  0.1148 -0.1400 -0.1660
18092W        W61108  11.858   7.382  27.067 -0.3164 -0.0367  0.1853
18093W        W61109  20.285  20.291   0.167  0.0280  0.0241 -0.0624
18094W        W61110  16.024  16.743  23.071  0.0869  0.1482 -0.2520
18095W        W61111   3.895  14.667  19.038 -0.2062 -0.0923  0.2698
18096W        W61112   4.454  11.829   8.432 -0.1186  0.1814 -0.1505
18097W        W61113   2.780  18.907  28.277 -0.1857  0.0416  0.0420
18098W        W61114   0.256   6.440  22.014  0.1152  0.0869  0.0068
18099W        W61115  18.606  29.704  27.242 -0.1987  0.2167 -0.1822
18100W        W61116  32.691   8.535  19.980  0.1477 -0.0224 -0.2951
18101W        W61117  20.468  10.247  14.419  0.1006  0.4013  0.0279
18102W        W61118  17.135   4.874  17.155  0.0022  0.0109 -0.0720
18103W        W61119  20.097  19.222  14.486 -0.0990 -0.2555 -0.1044
18104W        W61120  23.202  23.834  14.705  0.2961  0.0529 -0.2823
18105W        W61121  28.597  28.152   3.730  0.2392  0.2313  0.3195
18106W        W61122  22.669  10.274   0.205 -0.1572 -0.1870 -0.2721
18107W        W61123  21.959  33.216  26.658 -0.3224 -0.3039  0.1661
18108W        W61124  24.231  15.560  19.220  0.2628 -0.0880 -0.0432
18109W        W61125  19.444  25.477   1.041  0.0276  0.0205  0.1300
18110W        W61126  28.362  16.935   6.700 -0.2896  0.1653  0.2173
18111W        W61127  26.586   2.373   3.422  0.0617 -0.2218 -0.0715
18112W        W61128   0.250   9.523  15.952  0.3488 -0.2669 -0.1361
18113W        W61129   7.305  22.080  19.897 -0.1366  0.1225  0.0993
18114W        W61130  25.377  16.942  28.082  0.4024  0.0765  0.1429
18115W        W61131   4.832  21.309  16.567 -0.1346 -0.3720 -0.1990
18116W        W61132   2.677  12.468  15.642  0.1513  0.0360 -0.2175
18117W        W61133   3.244  33.893  13.764 -0.1941  0.0661 -0.2374
18118W        W61134  29.268   1.934  19.362 -0.0961  0.0555 -0.1128
18119W        W61135  21.576  16.859   8.296  0.5054 -0.0150  0.0773
18120W        W61136  33.071  11.949  28.753  0.1107 -0.0766  0.4714
18121W        W61137  18.437   4.756  16.436  0.0375  0.2825  0.3921
18122W        W61138  23.571  28.244  18.564 -0.2335 -0.0152  0.0496
18123W        W61139  19.596   1.055  23.809  0.0246  0.1055  0.1441
18124W        W61140  22.512   1.468   7.041  0.2989  0.0281 -0.0197
18125W        W61141  12.303  34.382  18.092 -0.1422 -0.3122 -0.1093
18126W        W61142  27.159   3.990  17.561 -0.2009  0.0712  0.0500
18127W        W61143   1.284   8.192   8.110 -0.0793  0.0844  0.0666
18128W        W61144   4.230  27.800   2.549 -0.1486  0.2889 -0.1484
18129W        W61145  32.777  12.073  21.914 -0.1224 -0.2499  0.0324
18130W        W61146   4.641   5.222  25.059  0.1228  0.0175  0.4446
18131W        W61147  26.532  10.714  28.155 -0.0351  0.4067  0.1243
18132W        W61148   3.712  19.246  18.984 -0.1303  0.3035  0.0318
18133W        W61149  24.964  28.083  18.987  0.2333  0.1116  0.0583
18134W        W61150   4.868   1.900  16.507  0.0748 -0.0137 -0.1104
18135W        W61151  12.456   6.363  20.067 -0.2603 -0.1037 -0.4540
18136W        W61152   4.644  13.546   0.061 -0.3392  0.0676  0.1040
18137W        W61153  29.012  19.094  14.616  0.0787 -0.1609 -0.1681
18138W        W61154   9.043  11.412  25.867 -0.2419  0.0024 -0.1487
18139W        W61155  34.502   5.507  14.483 -0.1110  0.0449 -0.1472
18140W        W61156  21.400  25.740  16.283  0.1457  0.0632 -0.1027
18141W        W61157  19.855  12.319   3.861 -0.1544 -0.2985 -0.3369
18142W        W61158  17.615  17.305  16.629 -0.0087  0.1165 -0.1092
18143W        W61159  16.440   4.045   6.445  0.4064 -0.1902  0.0236
18144W        W61160  25.008  14.066  27.409 -0.0854 -0.1497 -0.1662
18145W        W61161  22.104  12.898  23.312  0.3414 -0.5355  0.1711
18146W        W61162  25.640  30.358  23.686  0.3667  0.0161 -0.0120
18147W        W61163  23.096   2.837  18.168  0.1105  0.1612  0.4430
18148W        W61164  22.038  10.722  16.412  0.0087  0.1743  0.0084
18149W        W61165  23.018   8.239  25.031 -0.2002  0.0997 -0.1852
18150W        W61166  14.237  16.245   1.911  0.1481  0.1050 -0.1367
18151W        W61167  28.385   8.435  19.879 -0.0203  0.3403  0.1679
18152W        W61168  32.405   6.536  20.740  0.0615 -0.2655 -0.0331
18153W        W61169  18.114  11.883  21.051  0.0211 -0.0374 -0.1898
18154W        W61170  15.246  33.344  24.751  0.2544  0.0316 -0.0298
18155W        W61171  22.815   4.251  16.756  0.1066  0.1303  0.2335
18156W        W61172  23.641   4.869  15.224 -0.1195  0.1018  0.0774
18157W        W61173  16.417   3.795  16.255 -0.2445  0.1314 -0.0624
18158W        W61174  13.532   3.617  29.304 -0.0840 -0.0628  0.0380
18159W        W61175  25.359  15.276  16.880  0.1508  0.1458  0.1592
18160W        W61176  26.772   6.544  21.032 -0.3319 -0.0460  0.1548
18161W        W61177  17.892  14.942  22.017  0.0548  0.2237 -0.4191
18162W        W61178  24.041   3.600  28.327  0.1090  0.0604 -0.2160
18163W        W61179   0.894  24.984  28.513  0.0044  0.0357 -0.2435
18164W        W61180  28.525   7.496  19.395  0.1444 -0.1549 -0.0323
18165W        W61181   2.319   7.895  28.319 -0.0533 -0.3363  0.0202
18166W        W61182  10.909  17.621  17.413  0.2273  0.3521  0.1382
18167W        W61183  23.763  14.611  26.026 -0.1296  0.5466  0.0366
18168W        W61184  32.896  26.573   2.251  0.1646  0.0790  0.4950
18169W        W61185  31.737  24.404  16.237  0.2024  0.0440  0.1990
18170W        W61186  24.883   8.437   3.323  0.0527 -0.0332 -0.3081
18171W        W61187   0.329  34.572  26.709 -0.2724 -0.3288 -0.0336
18172W        W61188  25.346  14.151   6.230  0.0068 -0.1799  0.2811
18173W        W61189  18.123   3.811   7.370  0.3086  0.1659 -0.1119
18174W        W61190  15.916  23.636  22.629 -0.2424 -0.0683  0.0222
18175W        W61191  33.222  16.198  23.841  0.0386 -0.2582  0.0910
18176W        W61192  26.796  31.357   1.986  0.0659  0.3294 -0.2427
18177W        W61193  18.883  17.279   1.350  0.0381  0.2214  0.2692
18178W        W61194  22.600  20.445  21.742  0.0927  0.4745 -0.1125
18179W        W61195  31.299  18.160  17.805 -0.1919  0.0356 -0.1197
18180W        W61196   9.518   9.231  16.743  0.1534 -0.1254 -0.0310
18181W        W61197  13.919  10.936  13.429 -0.2361 -0.2651 -0.2787
18182W        W61198  18.217  27.829  26.296 -0.1482 -0.1924  0.0140
18183W        W61199  21.438   3.323   4.888  0.3871 -0.0078  0.0836
18184W        W61200  27.236  24.396   3.156  0.0132  0.1339  0.0051
18185W        W61201  19.322  29.232   5.320 -0.2102 -0.0261  0.0334
18186W        W61202  32.789  20.496  23.947  0.1526  0.0218  0.0549
18187W        W61203   2.959  16.307  23.434  0.4256  0.0260  0.3212
18188W        W61204   1.276  17.619  26.116 -0.0559  0.1811  0.0675
18189W        W61205   0.687  13.873  25.666 -0.3686 -0.2257  0.2271
18190W        W61206   5.606  27.198  20.376  0.0740  0.0446  0.1384
18191W        W61207  33.930   1.582  25.729  0.2738  0.0945  0.0343
18192W        W61208  30.996  29.905  26.160  0.1600  0.1120  0.2898
18193W        W61209  28.919  24.777  22.217  0.4273 -0.3342  0.2892
18194W        W61210  32.420  18.384  17.005 -0.0759  0.0896 -0.0650
18195W        W61211   8.807   7.243  15.591  0.1418  0.1412  0.1555
18196W        W61212  13.024  32.470  16.299  0.1633 -0.1748  0.1575
18197W        W61213  30.582  13.868  14.345  0.0189  0.2274 -0.1144
18198W        W61214   8.529   5.125  26.025 -0.2540 -0.0780  0.2499
18199W        W61215  28.193   3.300  27.146 -0.1034 -0.1929 -0.1040
18200W        W61216  31.314  34.412  27.292 -0.1798 -0.2211 -0.1321
18201W        W61217  34.071   5.416  19.724 -0.1426  0.0085  0.0989
18202W        W61218  32.808   6.909  16.940  0.1024 -0.1599 -0.1705
18203W        W61219   7.643   3.921  16.379 -0.1111  0.0519  0.0652
18204W        W61220  20.149   6.526  26.055 -0.1888 -0.1039  0.5962
18205W        W61221  27.228   8.965  20.503  0.0013 -0.1359 -0.1158
18206W        W61222  29.201   3.661  28.210  0.1409 -0.0821 -0.2564
18207W        W61223  27.201   7.771  21.824  0.2822  0.0830 -0.3919
18208W        W61224  25.352  33.122  16.720  0.2813 -0.0941 -0.1112
18209W        W61225  32.510  23.072   4.647  0.2795  0.0110 -0.2839
18210W        W61226  30.413  32.067  29.182  0.2448  0.0893 -0.0656
18211W        W61227  10.575  12.742  23.393 -0.0876 -0.2094 -0.0922
18212W        W61228  22.284  18.030  14.096  0.2311 -0.0586  0.1323
18213W        W61229   2.166  16.356  22.689  0.1883 -0.1786 -0.1726
18214W        W61230  28.337  32.050  23.987 -0.0220 -0.2977  0.0644
18215W        W61231  22.449  15.950  24.250 -0.1570 -0.2179  0.2615
18216W        W61232  14.815  27.939   1.222 -0.0856  0.1261  0.1427
18217W        W61233  28.237  31.522  16.100 -0.3454  0.1472 -0.1875
18218W        W61234  24.668   0.506  16.407  0.1194  0.0718 -0.2516
18219W        W61235  16.226   6.434  17.786 -0.1046 -0.1692  0.1538
18220W        W61236  23.657  12.781  16.235 -0.1542 -0.0587 -0.2857
18221W        W61237  13.279  29.996  15.786 -0.0683 -0.1204 -0.0841
18222W        W61238   2.559  14.609  15.575  0.1184  0.0748  0.1602
18223W        W61239  33.924  28.958   4.668  0.0656 -0.2515  0.1040
18224W        W61240  18.939  30.473   8.281  0.0153 -0.2124  0.2466
18225W        W61241   9.176   7.339  23.705 -0.1025  0.0268  0.2148
18226W        W61242  32.971  23.633  28.462  0.0383  0.0162  0.3153
18227W        W61243   2.085   2.111  23.596  0.0621  0.0324  0.2089
18228W        W61244  11.293  33.660  20.762  0.1349 -0.0615 -0.1289
18229W        W61245   0.405  32.683  22.302 -0.0534 -0.0402 -0.2827
18230W        W61246  31.992   4.532  22.559 -0.1889  0.1389  0.1180
18231W        W61247  32.514  12.044  17.058 -0.1736 -0.0966 -0.0235
18232W        W61248  15.739   0.418   0.528 -0.2649 -0.0565 -0.0733
18233W        W61249  12.515  13.558  21.221  0.1502  0.2749 -0.1310
18234W        W61250  10.288  14.894  14.729  0.0678 -0.0246  0.1900
18235W        W61251  26.421  23.052  17.065  0.0046 -0.3438 -0.1024
18236W        W61252  28.011  33.684   7.925 -0.2069  0.2257  0.0905
18237W        W61253  32.983   0.560  19.758  0.0665  0.0585 -0.0257
18238W        W61254   2.318   4.242  28.696  0.0315 -0.1027  0.1087
18239W        W61255  29.638  28.949  16.689 -0.1495 -0.1614  0.1960
18240W        W61256  17.952  17.995   3.160 -0.3793  0.2524  0.1047
18241W        W61257   3.322  33.915  28.059 -0.2879  0.1757  0.2255
18242W        W61258  23.663  10.333  17.057  0.2116  0.1618  0.0297
18243W        W61259  22.063  32.797   7.733  0.1626 -0.2103  0.1929
18244W        W61260  27.677   0.078  16.719 -0.0763  0.0547 -0.0592
18245W        W61261  28.548   8.064  24.623 -0.1929  0.3709 -0.1227
18246W        W61262  13.320  24.567  19.489  0.2178  0.1038  0.0650
18247W        W61263  23.208   7.895  21.559  0.2866  0.0046  0.1542
18248W        W61264  30.943   9.227  17.409 -0.5106  0.2527 -0.1516
18249W        W61265  11.522  34.496  21.102  0.0465 -0.0344 -0.1602
18250W        W61266  25.102  10.445   0.312 -0.0997 -0.0904 -0.1319
18251W        W61267  33.770  14.517  23.069  0.1228  0.1185  0.2332
18252W        W61268   9.422   9.203  26.349  0.1583 -0.0590 -0.0890
18253W        W61269   3.562  30.210  15.232  0.2394 -0.0449  0.3368
18254W        W61270  30.552  11.503  19.331  0.1268  0.1571 -0.3484
18255W        W61271  29.140   1.000   0.567 -0.0498 -0.0103  0.0174
18256W        W61272  24.439  13.599   7.136 -0.1217 -0.2579  0.1366
18257W        W61273  12.627  34.167  17.685 -0.1490 -0.1027  0.0692
18258W        W61274  24.583   8.550  20.742  0.1795 -0.1196 -0.2399
18259W        W61275  33.588   8.781  18.806 -0.2116 -0.1039  0.0864
18260W        W61276  16.410  27.707  15.219  0.1502 -0.0840 -0.3423
18261W        W61277  25.140  24.786  20.197 -0.0451  0.1845 -0.1946
18262W        W61278   3.906  29.726  17.372 -0.2550  0.2647  0.0312
18263W        W61279   7.472   3.328  17.446 -0.2261  0.7069 -0.1146
18264W        W61280   3.719  17.058  15.477 -0.5368 -0.2186  0.2705
18265W        W61281  15.604  32.342  15.745  0.2297 -0.3442 -0.0270
18266W        W61282  31.212  14.896  28.566  0.1283 -0.2198 -0.2216
18267W        W61283  23.381  11.329  29.064 -0.1945 -0.2030 -0.2576
18268W        W61284  31.684   8.855   1.717  0.0447 -0.1997 -0.1359
18269W        W61285  10.887  29.857  25.280  0.0461  0.4192 -0.0568
18270W        W61286  17.575   1.094  13.984  0.1574 -0.0050 -0.1292
18271W        W61287   1.670  29.454  26.592 -0.1421 -0.0729 -0.5094
18272W        W61288  31.307  17.637   0.605  0.0464  0.1931 -0.2604
18273W        W61289  22.314   1.662  16.276  0.3704 -0.2801 -0.0483
18274W        W61290  11.842  20.313  16.650  0.1239  0.1546 -0.1169
18275W        W61291  30.159   2.864  23.129 -0.1114  0.0151  0.1836
18276W        W61292  29.917  29.533  24.566 -0.1519  0.0085  0.1345
18277W        W61293  13.153  22.274  13.916  0.0788  0.3676  0.0230
18278W        W61294  17.839  32.195  17.598  0.0717 -0.2235 -0.0449
18279W        W61295  27.630   5.557   0.269 -0.0986  0.2591  0.0193
18280W        W61296  33.223  29.146  20.715 -0.2311  0.2680 -0.1644
18281W        W61297   1.215   3.833  21.563  0.1925  0.4876 -0.0175
18282W        W61298  32.633  11.662  21.072  0.0639 -0.1161 -0.0647
18283W        W61299   5.328  26.539   4.340  0.0512 -0.2542 -0.1091
18284W        W61300  30.070  13.321  19.067  0.0870 -0.3655 -0.2313
18285W        W61301  27.958  15.051  23.720 -0.1238 -0.4119 -0.0757
18286W        W61302  27.017  10.995  14.847 -0.0597 -0.3965 -0.2350
18287W        W61303  17.372   6.870  15.866 -0.1395 -0.0377  0.3817
18288W        W61304   8.498   7.396  17.735  0.3149  0.1107 -0.1691
18289W        W61305  28.135  23.081  18.848 -0.2101  0.0443 -0.0431
18290W        W61306  33.428   7.321  24.613  0.2801 -0.1332  0.0189
18291W        W61307  26.564   9.051  28.069 -0.0200  0.1670  0.1662
18292W        W61308  33.483  15.618   0.384 -0.0277  0.0078  0.0057
18293W        W61309  10.802  22.719  22.343 -0.1340  0.1933 -0.1773
18294W        W61310  23.060  31.854  25.320  0.2221  0.1363 -0.1461
18295W        W61311  29.862  19.019   7.528  0.1646 -0.2569  0.2765
18296W        W61312   6.571   5.578  13.906  0.2187 -0.1287 -0.2068
18297W        W61313  27.562   3.279  18.763 -0.0951  0.1257  0.1539
18298W        W61314  16.862   3.525  15.654 -0.1003  0.0985  0.5500
18299W        W61315  21.139  17.442  29.044 -0.2602 -0.1692  0.2167
18300W        W61316  33.875   5.452  18.496  0.5474 -0.0860  0.0358
18301W        W61317  15.351   9.058  17.393  0.1286 -0.0148  0.1092
18302W        W61318   4.327   6.784   2.631  0.1306 -0.0552 -0.1633
18303W        W61319  28.838   7.895  19.609 -0.1680 -0.2139  0.2685
18304W        W61320   9.386   7.502  17.937 -0.0344 -0.0750 -0.0532
18305W        W61321   9.010  19.039  25.600  0.0496 -0.2466 -0.2400
18306W        W61322  24.236  19.876  15.222 -0.2193  0.2378 -0.1109
18307W        W61323  31.875   5.015  28.730 -0.0666  0.2563 -0.1611
18308W        W61324   1.973  11.298  17.321  0.0822  0.1631  0.0727
18309W        W61325  33.068  14.106  10.653 -0.0635 -0.3452 -0.1822
18310W        W61326   2.511   6.749  21.607  0.0147  0.1375  0.2291
18311W        W61327   4.122  16.243  16.041  0.0439  0.0304 -0.1112
18312W        W61328  34.275  14.575  21.500 -0.2270  0.1067  0.0916
18313W        W61329  23.754   4.829  25.107  0.1812 -0.2098 -0.0845
18314W        W61330  22.695  14.403  22.118 -0.2084 -0.0946  0.0977
18315W        W61331  13.585  19.309  27.580  0.0297  0.3517  0.1139
18316W        W61332  33.018  21.235  15.101 -0.0116  0.0368  0.1923
18317W        W61333  29.747   7.054   0.956  0.1556 -0.4434 -0.0247
18318W        W61334  23.777   3.294  27.443  0.1311  0.2115 -0.2528
18319W        W61335  20.627  16.805   2.155  0.2227 -0.0336  0.0745
18320W        W61336   2.433  11.493   3.596  0.2282  0.1380  0.1318
18321W        W61337  16.834  15.565  27.817  0.0436 -0.2745  0.0014
18322W        W61338  10.024  26.374   1.150 -0.2387 -0.1874 -0.2224
18323W        W61339  12.139  27.094  14.400 -0.0897  0.0101  0.1849
18324W        W61340   9.751  13.327   0.091  0.1526 -0.0368  0.1196
18325W        W61341  12.874  10.733  18.343  0.3596  0.3108 -0.2519
18326W        W61342  27.490   2.897  25.164 -0.0054  0.2780  0.0174
18327W        W61343  24.639  21.920  26.940  0.1581  0.0465 -0.0676
18328W        W61344  19.690  17.322  29.188  0.2169  0.1271 -0.2727
18329W        W61345  20.022  28.011   0.433  0.1630 -0.2891 -0.2550
18330W        W61346   8.057   7.728  20.440  0.1241  0.0263 -0.0100
18331W        W61347  23.963  20.413  20.850 -0.0725 -0.0865 -0.0036
18332W        W61348  11.028   6.759  14.592 -0.0684  0.1399 -0.2803
18333W        W61349  29.422   3.731  25.889 -0.0186  0.1101 -0.0339
18334W        W61350   7.218   4.933  23.814 -0.0879 -0.0083  0.2568
18335W        W61351  23.460  25.882  14.590 -0.2575 -0.2884 -0.2206
18336W        W61352  34.777  11.217  16.622 -0.0479 -0.2149 -0.1417
18337W        W61353  16.425  26.941  20.969  0.2174  0.1053 -0.0138
18338W        W61354  23.796  32.436  20.287  0.0310  0.1486 -0.1363
18339W        W61355  34.121   2.888  28.767  0.1040 -0.2242 -0.0131
18340W        W61356  23.900  26.468  22.947  0.0020 -0.0397 -0.5374
18341W        W61357  32.243  15.323  27.758  0.0163  0.2630  0.0481
18342W        W61358  17.439  23.451   2.279  0.0065 -0.1364  0.0506
18343W        W61359  19.540  10.022  12.860 -0.0505 -0.0748  0.1151
18344W        W61360  23.658  16.245   4.021 -0.1118 -0.0955 -0.2679
18345W        W61361  19.015  30.809  15.979  0.0887  0.0819 -0.1372
18346W        W61362  29.329   6.998  20.783  0.1472 -0.2341 -0.0728
18347W        W61363  17.699  10.184  18.170 -0.1849 -0.1738 -0.0098
18348W        W61364   2.366   5.564  26.877 -0.0496 -0.0655  0.0377
18349W        W61365  16.694  16.206  22.311 -0.0723 -0.1467  0.0314
18350W        W61366  31.512   5.902  18.721  0.1237  0.0838  0.1297
18351W        W61367  24.750  12.805  13.741  0.3260  0.0457 -0.0524
18352W        W61368  16.082  12.283   5.033 -0.3910 -0.0117  0.2213
18353W        W61369   2.823  31.485  16.201  0.1069 -0.0441  0.3698
18354W        W61370  20.476   9.523  21.201 -0.0241  0.0238  0.0566
18355W        W61371  25.727   3.871  22.089  0.1745 -0.1202  0.2452
18356W        W61372  20.296   7.478  14.311 -0.2425 -0.1176 -0.1883
18357W        W61373   3.508  10.671  25.415  0.3118  0.5127 -0.1054
18358W        W61374  15.976  17.754   3.143  0.0580 -0.0984  0.0119
18359W        W61375  20.269  13.375  15.973 -0.1051  0.3594 -0.0255
18360W        W61376  11.738   9.766  15.175 -0.1628 -0.0587 -0.1592
18361W        W61377  33.180   9.750   1.754 -0.0914  0.0124  0.2170
18362W        W61378  24.538   3.712  26.696 -0.1365 -0.2074 -0.2523
18363W        W61379  33.212   4.141  22.973 -0.3647  0.1248  0.0620
18364W        W61380  27.303   3.055  16.006  0.0916  0.1323  0.0917
18365W        W61381  32.101  31.763  26.337  0.5842  0.0803 -0.0553
18366W        W61382   1.858  15.565  23.189 -0.1851 -0.1084 -0.0812
18367W        W61383   5.968  17.557  28.301 -0.2208 -0.2642 -0.0777
18368W        W61384  33.136  12.023  23.916 -0.3116 -0.0732  0.0996
18369W        W61385  22.005  16.325  20.616  0.1465 -0.2066  0.2409
18370W        W61386  18.159  17.679  13.040  0.1411  0.1449 -0.0701
18371W        W61387  33.963  14.991  21.056 -0.1775  0.1122 -0.1608
18372W        W61388  23.120  20.923  21.384 -0.2166  0.1856  0.2413
18373W        W61389   3.345  21.776  21.177 -0.0940 -0.0218 -0.0955
18374W        W61390  19.656  12.603  18.544 -0.2893  0.1523 -0.0106
18375W        W61391   6.279  28.046  14.614 -0.1771  0.0278 -0.0874
18376W        W61392  23.217   8.198   5.059  0.2531 -0.0008 -0.3345
18377W        W61393  28.168  10.913  23.127  0.1407 -0.0183 -0.0653
18378W        W61394  18.859  21.541  14.125 -0.2373  0.0863 -0.1439
18379W        W61395  22.582  11.585  28.534 -0.1781  0.2008  0.0435
18380W        W61396  19.409  29.274   1.522 -0.1017  0.0279  0.0784
18381W        W61397  22.121   6.957  15.905  0.0842 -0.1412  0.1233
18382W        W61398  15.682   6.983  25.523  0.1387 -0.0367  0.2877
18383W        W61399  28.865  17.189   2.792  0.0736 -0.1565  0.1280
18384W        W61400  21.580  20.698  21.760 -0.1041 -0.0868  0.1481
18385W        W61401  25.101  34.381  16.372 -0.0437  0.1743  0.0480
18386W        W61402  28.693  34.675  16.612  0.2162  0.2303 -0.1482
18387W        W61403  11.643  14.176  24.561  0.0267 -0.3310 -0.3580
18388W        W61404   2.623   5.103  22.489 -0.1088  0.1150 -0.0133
18389W        W61405   0.661  13.846  20.684 -0.1051  0.2014 -0.2400
18390W        W61406  21.487  34.052  16.604 -0.0676  0.1345  0.1549
18391W        W61407   2.876  10.785  19.544 -0.1924  0.1849  0.2211
18392W        W61408  25.054   4.851  16.464  0.0422  0.1972 -0.0432
18393W        W61409   1.913  22.196  21.030 -0.0091 -0.0688  0.2032
18394W        W61410  10.570  19.883  12.977 -0.0007 -0.1367  0.0718
18395W        W61411  23.766  13.798  16.604 -0.2559 -0.0272 -0.0478
18396W        W61412  22.829   9.999  21.109  0.0393 -0.2189 -0.1561
18397W        W61413  34.631  12.893  25.028 -0.1314  0.0743  0.1026
18398W        W61414  11.556   7.457  15.584  0.1115  0.1721  0.1132
18399W        W61415   0.107   3.471  16.847  0.1020  0.0943 -0.0953
18400W        W61416  25.335  33.377  21.058  0.0113  0.0415 -0.1264
18401W        W61417  32.112   1.011  17.234  0.0136  0.0002  0.1398
18402W        W61418  28.755   2.485  18.625 -0.0459  0.0221 -0.0792
18403W        W61419  18.352  11.038  18.808  0.1056  0.2353 -0.1070
18404W        W61420   7.844   8.467  25.886  0.1223 -0.1068  0.1936
18405W        W61421  24.743   0.003  27.575 -0.1471 -0.0451  0.3816
18406W        W61422  34.771   8.392  18.977 -0.1029 -0.0433 -0.0864
18407W        W61423  28.300  13.890  23.919  0.0671  0.0671 -0.0183
18408W        W61424  24.290  12.606  23.484  0.1183 -0.1684 -0.3098
18409W        W61425  20.903   9.682  28.345 -0.0972  0.0809 -0.0864
18410W        W61426  16.204  25.426  17.253 -0.0070 -0.1011  0.1551
18411W        W61427  18.535  29.763   1.511 -0.3669 -0.0246  0.0610
18412W        W61428  25.428  30.884   5.520  0.0529 -0.4326 -0.1235
18413W        W61429  12.028  21.883  20.006 -0.1190 -0.1209 -0.1080
18414W        W61430  17.103   5.563  21.239  0.1674 -0.1561 -0.0867
18415W        W61431  19.543   9.069   0.160  0.4089  0.0437 -0.0243
18416W        W61432  22.642  14.252  25.541 -0.1362 -0.1080  0.0340
18417W        W61433   0.141  17.249  17.492  0.1011 -0.1526  0.2172
18418W        W61434  31.891  34.171  28.048 -0.4524 -0.3048 -0.1863
18419W        W61435  15.018   7.109  19.342  0.1497  0.0258 -0.1592
18420W        W61436  24.371   2.128   2.897 -0.0741 -0.1523  0.0101
18421W        W61437  26.635  18.084  21.790 -0.1947 -0.0679 -0.0157
18422W        W61438  33.013  14.116  20.670 -0.1988 -0.0817  0.0596
18423W        W61439  19.575  10.244  21.041 -0.3325  0.1020  0.3396
18424W        W61440  13.278  14.604  14.607  0.3178  0.1489  0.1417
18425W        W61441  19.944  21.890  29.229 -0.1706  0.1601  0.1083
18426W        W61442   1.017  16.491  23.363  0.0210  0.0768 -0.0762
18427W        W61443   3.080  18.724  15.167  0.0694  0.0482  0.0624
18428W        W61444  18.223  33.250   5.463 -0.1864  0.1140  0.0999
18429W        W61445  22.335  25.804  27.620  0.0018 -0.0692  0.0578
18430W        W61446  13.066   1.533  20.935  0.2732 -0.0024 -0.0621
18431W        W61447  16.647  14.370  14.821 -0.1495  0.1142  0.2580
18432W        W61448  30.049  11.819  23.690  0.0135 -0.3397 -0.1838
18433W        W61449  29.699   6.751  22.997 -0.3267  0.1167 -0.0119
18434W        W61450   3.018  29.038  26.566  0.0831 -0.3223 -0.1725
18435W        W61451  25.602   9.540  17.553 -0.3654  0.1322 -0.0528
18436W        W61452  18.307   8.919  13.775  0.0136  0.2419  0.1069
18437W        W61453  10.945  30.219  23.264  0.0066 -0.1014  0.5281
18438W        W61454  13.637  10.928  25.521  0.1536  0.1661 -0.0709
18439W        W61455  27.533   4.736  18.380  0.0971  0.1723  0.0746
18440W        W61456  17.805  11.565  22.028 -0.1958  0.1950  0.2607
18441W        W61457  16.789  18.224  12.924  0.1782  0.3334 -0.0224
18442W        W61458  21.789  19.232  16.401  0.1972  0.2679 -0.1250
18443W        W61459  29.292  17.362  22.705  0.0743 -0.0910  0.1813
18444W        W61460  33.717   3.480  18.396 -0.1808  0.0563 -0.0275
18445W        W61461  30.828  10.086  26.975  0.2896  0.0265  0.1773
18446W        W61462   5.958  16.294  19.579 -0.5695 -0.1254 -0.0378
18447W        W61463  26.060   9.422  25.337  0.3610 -0.0698 -0.0049
18448W        W61464  25.484  17.843  15.296  0.1395  0.4070 -0.0028
18449W        W61465  23.652   6.074  25.986  0.1341  0.2357 -0.1199
18450W        W61466  32.327  23.050  23.153 -0.3748  0.0139  0.1480
18451W        W61467   7.373  22.157  16.110 -0.0634 -0.0178 -0.1919
18452W        W61468  27.070  19.878  19.671  0.2314 -0.1770 -0.2041
18453W        W61469  26.744   1.622  17.125  0.5234  0.0453  0.0661
18454W        W61470   8.998   5.700  20.561 -0.2487 -0.0499 -0.0603
18455W        W61471  22.864  25.915  24.497 -0.2441 -0.3253 -0.2781
18456W        W61472   1.552  30.339  23.103 -0.0539  0.1642 -0.1718
18457W        W61473   1.222   8.135  19.502 -0.3329  0.0959 -0.2387
18458W        W61474  21.585   9.092  14.645 -0.1523 -0.0032  0.0932
18459W        W61475   9.387   2.161   5.252  0.0817  0.2373 -0.4103
18460W        W61476  29.101  30.474  19.701 -0.1659  0.0098  0.2048
18461W        W61477  19.159   7.361  29.066 -0.3781  0.0907  0.0451
18462W        W61478  12.376  10.872  21.910 -0.1766  0.0024  0.1183
18463W        W61479   6.846  14.464  15.164  0.1320  0.2839  0.0763
18464W        W61480  25.909  21.902  18.702 -0.2826 -0.2633 -0.2131
18465W        W61481  25.688   7.935  25.003  0.1776 -0.0490  0.3599
18466W        W61482  34.574   4.608  14.604  0.0411  0.1340 -0.3433
18467W        W61483  15.188  13.170   1.160 -0.0585 -0.1469  0.0161
18468W        W61484   0.070  12.274  22.439 -0.1867  0.3420 -0.0186
18469W        W61485  34.521  30.652   8.692 -0.0461  0.2081  0.0892
18470W        W61486  33.270   9.254  20.003  0.0938  0.3123  0.2814
18471W        W61487   9.934  20.918  22.866  0.0437 -0.0702 -0.1873
18472W        W61488  26.010  34.773  26.320 -0.3738  0.0783  0.0172
18473W        W61489  28.592   8.909  22.345  0.2624 -0.2682  0.0550
18474W        W61490  34.160  10.329   0.292  0.2500 -0.4623  0.0073
18475W        W61491  28.338  22.358   8.402  0.0758 -0.3048 -0.1260
18476W        W61492  18.309   9.839  15.668 -0.0789 -0.4329 -0.1196
18477W        W61493  33.580   2.259  22.896 -0.2874 -0.1987 -0.0382
18478W        W61494  20.567  11.407  22.552 -0.1456 -0.1254 -0.3072
18479W        W61495  24.412   0.426  27.523  0.1252  0.2118 -0.0730
18480W        W61496  24.796   6.866  26.608  0.1491 -0.0602 -0.0755
18481W        W61497  25.705  23.002  21.393 -0.0902 -0.3795  0.0665
18482W        W61498  33.039   3.453   5.684  0.0046  0.3107 -0.0419
18483W        W61499  19.445   0.411  21.125  0.3081  0.1720  0.2449
18484W        W61500  14.915   8.780  14.282  0.0074 -0.3127  0.1806
18485W        W61501   3.850   8.576  14.709 -0.0504 -0.0235  0.2514
18486W        W61502  21.388   4.047  19.820  0.0055 -0.0511 -0.1750
18487W        W61503   1.447  10.591   3.968  0.1771 -0.3232 -0.0686
18488W        W61504  31.817   3.561  19.808 -0.3811 -0.2634 -0.0956
18489W        W61505  28.566   7.564  19.982 -0.3133  0.1059 -0.1616
18490W        W61506  14.964   5.575  24.324 -0.1374  0.1025 -0.0065
18491W        W61507  17.938  17.503  25.203  0.0893  0.0334  0.1363
18492W        W61508  24.097   1.656  15.865 -0.0082  0.1830  0.1360
18493W        W61509  10.106  16.161  26.185 -0.4289  0.2482 -0.0847
18494W        W61510  18.255  23.156  27.337  0.2266  0.2539 -0.1261
18495W        W61511  23.928   2.643  17.468 -0.2717 -0.2119 -0.1004
18496W        W61512  14.865  30.994  29.087  0.0035  0.3275 -0.0646
18497W        W61513  17.808  15.148  27.984 -0.0139 -0.2228 -0.1966
18498W        W61514  28.791  28.014  25.327 -0.4883 -0.2475  0.0206
18499W        W61515   0.764  12.439  20.010  0.0756  0.3385  0.0725
18500W        W61516   0.646   8.699   1.521  0.1034 -0.0853 -0.0762
18501W        W61517  27.509   1.952  19.755  0.0421  0.2339 -0.2263
18502W        W61518   4.029  10.947   1.384 -0.0799 -0.0223 -0.0753
18503W        W61519  25.461  32.648   1.335 -0.0600  0.0134 -0.0318
18504W        W61520  29.763  33.098  24.705  0.3840  0.0795 -0.4118
18505W        W61521  19.087   4.978  27.690  0.0994  0.0715  0.2846
18506W        W61522   5.664  11.585   4.863 -0.2590 -0.2191 -0.1142
18507W        W61523  19.447  15.749  28.224  0.2094  0.1514  0.2651
18508W        W61524   0.662   1.008  15.733  0.1237 -0.2934  0.2091
18509W        W61525  32.099   8.413  15.935  0.0888 -0.0448 -0.1017
18510W        W61526   3.646   8.557  25.167 -0.0003  0.0941 -0.0439
18511W        W61527  27.386  34.217   5.927  0.0262  0.0865  0.2220
18512W        W61528  15.704  10.513   7.699  0.2145 -0.0815 -0.2425
18513W        W61529  34.764  13.689   8.624  0.0010  0.1301  0.1200
18514W        W61530  20.656   1.404   6.954  0.1407 -0.2683 -0.1343
18515W        W61531  15.015  33.531  26.978 -0.0388 -0.2575 -0.0805
18516W        W61532   0.604   9.855   8.381 -0.1842  0.3299  0.1035
18517W        W61533   3.039  13.501  16.540  0.0012 -0.1376  0.2386
18518W        W61534   1.171  13.983  20.522  0.0685  0.1524  0.0144
18519W        W61535  25.599  14.361  22.515 -0.0781  0.2110 -0.0845
18520W        W61536  32.621  24.642  20.899 -0.3078  0.1087  0.0122
18521W        W61537  12.322  32.533  20.072  0.1474 -0.1252  0.3407
18522W        W61538  26.525  11.138   4.949  0.1611 -0.1828 -0.1610
18523W        W61539  26.935   4.577  22.750  0.0161 -0.1498 -0.0658
18524W        W61540  32.636  33.642  17.377  0.0240 -0.4486 -0.0067
18525W        W61541  24.302  24.266  10.370 -0.1213  0.0797  0.2635
18526W        W61542  24.556   5.081  27.633 -0.0250  0.0992 -0.1915
18527W        W61543  28.857  25.609  27.277 -0.0153  0.1101 -0.4500
18528W        W61544  29.596  29.906  25.964 -0.1188  0.3032 -0.0260
18529W        W61545  30.172   9.071   5.587 -0.3584 -0.0835  0.1870
18530W        W61546  32.632  32.228   6.033  0.1180  0.2863  0.0219
18531W        W61547  25.426   9.228   9.067 -0.0117 -0.1343 -0.0613
18532W        W61548  26.343   7.829  21.735 -0.3247 -0.4352  0.2254
18533W        W61549  14.754   8.857   5.212 -0.3058 -0.1699  0.1917
18534W        W61550   4.662   1.864  24.690 -0.1252  0.0666  0.1403
18535W        W61551  30.421  15.961  26.315  0.1219  0.1493  0.0036
18536W        W61552  18.005  24.701  26.928 -0.0952  0.0726 -0.4165
18537W        W61553   1.745   0.300   9.077 -0.1800 -0.1905  0.1692
18538W        W61554  19.628  26.757  24.783  0.2958 -0.0517 -0.2289
18539W        W61555  29.459  26.169  18.183  0.0571 -0.1297 -0.1354
18540W        W61556   8.714   6.961  25.878  0.1213  0.1434  0.2774
18541W        W61557  28.612   5.956   7.104  0.1410 -0.2526  0.1214
18542W        W61558  26.231  25.352  28.948 -0.0515 -0.5016  0.0353
18543W        W61559  12.996  24.828   0.686  0.0213  0.0456 -0.0758
18544W        W61560  19.708  10.497   7.880  0.2022 -0.2402  0.0221
18545W        W61561  25.719  13.818  17.565 -0.3392 -0.0265  0.1103
18546W        W61562  28.707   8.658  21.145  0.0591  0.2059  0.3188
18547W        W61563   8.725  19.194  16.355  0.1385 -0.2276 -0.0020
18548W        W61564   2.356  11.857  17.902  0.0820 -0.1835 -0.1097
18549W        W61565  26.864   3.656  28.327  0.1989  0.1461 -0.0638
18550W        W61566   4.712  11.500  21.655  0.0026 -0.0937 -0.0436
18551W        W61567  19.619  26.087  24.094  0.0544 -0.0892 -0.0858
18552W        W61568  18.862   1.500  16.923 -0.0133  0.0086  0.0802
18553W        W61569  32.563   6.467   2.128 -0.1237 -0.0621  0.2922
18554W        W61570  21.515   1.846  15.565  0.0360  0.0869  0.1577
18555W        W61571   5.365  12.644   6.908 -0.1107 -0.2622 -0.3229
18556W        W61572   1.160  14.583  15.562  0.0052 -0.2653  0.3852
18557W        W61573   3.989  14.331  17.604 -0.0287 -0.3327  0.1265
18558W        W61574  30.147  10.690  17.690 -0.0689 -0.3292 -0.0120
18559W        W61575  18.252   8.919  19.032 -0.0197  0.0239  0.1442
18560W        W61576  31.885   4.396   8.323  0.0730 -0.3349 -0.1532
18561W        W61577  23.918  13.469  27.435 -0.1284 -0.0008  0.2493
18562W        W61578  19.723  14.534  12.201 -0.1907  0.4655 -0.0699
18563W        W61579  15.582  12.923  16.727  0.0801 -0.2948  0.1405
18564W        W61580  25.367   7.360  14.629  0.1155  0.0019  0.0717
18565W        W61581  18.605  34.061  22.419  0.0290 -0.4589  0.1490
18566W        W61582  28.493  11.158  19.546  0.0082 -0.1558 -0.2200
18567W        W61583  34.493   1.281  24.876 -0.1081  0.0503 -0.3033
18568W        W61584   1.952  16.023  23.068 -0.0968  0.1345 -0.0460
18569W        W61585  29.876  27.937  18.840  0.1631 -0.0293  0.1764
18570W        W61586  30.173   8.749  18.502 -0.2906  0.3606 -0.1890
18571W        W61587  23.322   5.363   2.357 -0.1862  0.1551  0.2522
18572W        W61588  29.572  13.253  18.328 -0.2199 -0.1894  0.2815
18573W        W61589  31.941  14.101   2.256  0.0503 -0.2828 -0.1134
18574W        W61590  26.702   4.730  10.071 -0.1301  0.1064  0.1575
18575W        W61591  19.526   6.882  13.644 -0.2398 -0.1128 -0.0303
18576W        W61592  32.842   9.361  18.657 -0.4196  0.0810 -0.2480
18577W        W61593  27.896   9.787  26.438  0.0791  0.0486 -0.1225
18578W        W61594  22.437  34.190  25.486  0.0827 -0.3885 -0.1712
18579W        W61595  23.943  20.439   1.021 -0.0520  0.0497 -0.0015
18580W        W61596  26.278   2.951  20.078 -0.0795 -0.4882  0.2617
18581W        W61597  17.381   4.167   3.574  0.0864  0.1906  0.0499
18582W        W61598  13.825  31.882   0.168  0.1722  0.0094  0.2567
18583W        W61599  16.275  34.212   1.489 -0.1767 -0.1370 -0.0519
18584W        W61600  24.720   2.655  10.588 -0.0128 -0.0431  0.0305
18585W        W61601  28.972   6.739  15.908 -0.0599  0.0753 -0.0975
18586W        W61602  27.640   1.524  17.671  0.3025  0.2815  0.4245
18587W        W61603  30.098  10.166  26.031  0.3443 -0.1406  0.2214
18588W        W61604  22.380  17.824  20.659  0.0431 -0.2537 -0.0387
18589W        W61605  10.020  16.711  24.431 -0.0749  0.1020 -0.4563
18590W        W61606  16.052   5.758  25.451 -0.0636  0.0480  0.2463
18591W        W61607  26.610   9.055   5.756  0.1164 -0.1861  0.1101
18592W        W61608  25.231  12.315  21.980 -0.0393  0.0605  0.0589
18593W        W61609  32.508  17.321  27.454 -0.1095  0.0560 -0.1162
18594W        W61610  30.085  31.072  27.203 -0.1269  0.1106  0.1650
18595W        W61611  14.970  31.998   8.789  0.0209 -0.0917 -0.1987
18596W        W61612   6.913   1.551   7.529 -0.3397  0.2611 -0.3009
18597W        W61613   4.528   5.886  14.223  0.1141  0.2626 -0.1918
18598W        W61614  33.505  28.951  22.665 -0.0803  0.3067  0.1239
18599W        W61615  16.752  19.312   1.922  0.0193 -0.0168  0.1681
18600W        W61616  27.087  15.316  18.721 -0.1568  0.0413  0.0952
18601W        W61617  27.342  11.191  21.256  0.0775  0.0850 -0.1732
18602W        W61618  30.944  16.609  24.440  0.0793 -0.2341  0.0471
18603W        W61619  21.444  34.452  28.974 -0.0895  0.0544 -0.0302
18604W        W61620  34.228  10.484   0.882  0.2591  0.0386 -0.2697
18605W        W61621  15.614   3.607  23.281  0.1238 -0.0426  0.0967
18606W        W61622  10.152   2.954  28.056  0.0218  0.1378  0.3407
18607W        W61623   8.362  11.474   4.109  0.2171 -0.1250  0.0445
18608W        W61624  28.392  14.814   9.754  0.0178 -0.1312 -0.0309
18609W        W61625  26.155   7.477   6.134 -0.1766 -0.3598  0.0116
18610W        W61626  14.210   4.644   0.221 -0.2747 -0.4538  0.2102
18611W        W61627  24.449  13.126  17.230 -0.1402  0.1304 -0.2713
18612W        W61628  18.230  10.395  19.093  0.1803 -0.2579  0.0039
18613W        W61629   3.103  12.159   5.811  0.1467 -0.2371 -0.1125
18614W        W61630   8.012   2.264  17.060  0.2108 -0.1142 -0.0768
18615W        W61631  34.203   4.449  18.261  0.3259 -0.2225 -0.0935
18616W        W61632  33.186  20.911  16.447  0.2948 -0.0064  0.0312
18617W        W61633  32.762   0.287  27.895 -0.3329  0.2500  0.1802
18618W        W61634  19.890  21.228  15.084  0.3340 -0.1969  0.2739
18619W        W61635  28.433  34.305  22.796  0.0581 -0.1670  0.0096
18620W        W61636  15.148   7.197  14.555  0.2349 -0.1768  0.1068
18621W        W61637  15.129   6.628   0.757 -0.0427  0.1345 -0.0927
18622W        W61638  25.514  26.496  27.355 -0.2279 -0.3484  0.2407
18623W        W61639  20.060   4.419  23.137  0.0105  0.0387  0.1368
18624W        W61640  25.274  14.485  21.776 -0.1315  0.1662 -0.1118
18625W        W61641  31.277  14.742  24.429  0.2211  0.2821 -0.3466
18626W        W61642  10.816   1.670  20.098  0.1958  0.1836  0.1519
18627W        W61643  22.939  23.364  15.178 -0.2298 -0.0301  0.4337
18628W        W61644  22.697   9.471  27.895 -0.2986 -0.0608  0.1110
18629W        W61645  29.423   7.168  18.146  0.0727 -0.1480 -0.0667
18630W        W61646  26.996  15.429   8.261 -0.1891  0.0831 -0.1532
18631W        W61647   2.330  17.086  15.508 -0.3037  0.2370  0.1311
18632W        W61648  31.998   2.668  27.766 -0.0680 -0.0204  0.0382
18633W        W61649   0.494   2.934  19.201 -0.1104  0.1259 -0.0387
18634W        W61650  29.440  19.103  25.771  0.2326 -0.2773 -0.0576
18635W        W61651  25.596   5.086  10.920 -0.0839 -0.0116 -0.0555
18636W        W61652  16.963  32.597  17.745  0.3421 -0.2871  0.1000
18637W        W61653  21.615  10.122  16.521  0.1189  0.1482 -0.2338
18638W        W61654  25.002  20.240  15.328 -0.0937  0.1306  0.1094
18639W        W61655   0.240  12.867  23.382 -0.3265 -0.0944  0.0627
18640W        W61656  21.390  11.976  26.753  0.0689 -0.0170  0.1800
18641W        W61657  17.757  13.158  14.584  0.0593 -0.1432 -0.2566
18642W        W61658  31.231  26.757   0.616 -0.1529  0.2022  0.1112
18643W        W61659  10.137  17.922  27.026 -0.5268 -0.2257 -0.1086
18644W        W61660  17.766  10.106   4.853  0.2041  0.3090 -0.0080
18645W        W61661  34.518  14.159  21.429  0.0259 -0.1197 -0.0075
18646W        W61662  32.085  24.440  17.656 -0.1230 -0.0526 -0.3721
18647W        W61663  27.385   1.406  17.238 -0.0059  0.1956 -0.0948
18648W        W61664  34.404  25.938  23.639 -0.0323  0.1277  0.0378
18649W        W61665  19.243  16.108  21.222 -0.1994  0.1386 -0.0186
18650W        W61666  27.678   6.972  25.967  0.4203  0.2428 -0.1534
18651W        W61667  24.767   1.405   5.399  0.0731  0.0468  0.1097
18652W        W61668  25.461  21.742   4.218 -0.1455  0.2252  0.0456
18653W        W61669  28.871  26.592  23.478 -0.2031  0.0281 -0.0221
18654W        W61670   2.947   8.075   1.120  0.1847  0.2776 -0.2776
18655W        W61671  33.846   9.871   5.787  0.1609 -0.0636 -0.1286
18656W        W61672  23.734   3.364  28.648  0.3164 -0.0665  0.2868
18657W        W61673  32.753  31.338  25.732 -0.0011 -0.1492  0.3840
18658W        W61674  23.477   2.452  18.200 -0.5174 -0.3827 -0.0912
18659W        W61675  25.620   8.623  26.697 -0.1526 -0.0979 -0.1011
18660W        W61676  14.914   7.888  22.795  0.0617  0.0061 -0.0509
18661W        W61677  23.649  33.010  19.637 -0.2272 -0.0145  0.0074
18662W        W61678  29.901  25.166  25.335  0.1381  0.0945 -0.1333
18663W        W61679  16.714  15.502  11.676 -0.0075 -0.0135 -0.0722
18664W        W61680  24.353   3.092   1.686 -0.1258  0.1431  0.1974
18665W        W61681   1.411  19.456  14.521 -0.0450 -0.1793  0.3817
18666W        W61682  34.042   6.119  19.098 -0.0422  0.3257 -0.1455
18667W        W61683  26.527  12.025  23.708 -0.3298  0.1769 -0.0518
18668W        W61684  22.429  12.972  24.613 -0.3489 -0.1643  0.1282
18669W        W61685  25.630  11.810  23.452  0.0900 -0.0907  0.2806
18670W        W61686  22.588  34.411  26.985  0.0833 -0.2188 -0.1936
18671W        W61687   8.845   6.800   0.898  0.3682  0.2403 -0.0982
18672W        W61688  15.403  11.167  14.016  0.0866 -0.4801  0.2018
18673W        W61689  25.047   4.679   5.360  0.1134  0.0242  0.3438
18674W        W61690  13.867  32.183  26.691 -0.1239 -0.3017  0.0033
18675W        W61691  24.948  18.093   1.955 -0.0445  0.2314 -0.1410
18676W        W61692  18.748   6.933  17.655  0.1005  0.2613  0.0989
18677W        W61693  20.327  28.870  21.082 -0.2922  0.2546  0.1043
18678W        W61694  34.753  14.262  29.055 -0.0833  0.3342 -0.1163
18679W        W61695  18.979   3.681  26.243  0.0767 -0.2015  0.0174
18680W        W61696  14.730  10.071  26.862  0.0067  0.1120 -0.2438
18681W        W61697   2.365   5.469  23.852 -0.1616 -0.2163  0.1801
18682W        W61698  33.088  28.185  17.860 -0.1038 -0.1337  0.2971
18683W        W61699  15.116   4.759   3.603  0.0264  0.0103 -0.2446
18684W        W61700   6.712  30.513  17.735  0.1501 -0.1556 -0.1887
18685W        W61701  25.604  15.202  23.585  0.3427 -0.1230  0.1797
18686W        W61702  31.944   2.291  25.175  0.1036 -0.0467 -0.1419
18687W        W61703  22.452   4.938  10.754  0.0272  0.4873 -0.0004
18688W        W61704  27.246  14.515  25.270  0.0991  0.0193 -0.1940
18689W        W61705   9.942  17.492  27.470  0.0976 -0.1777  0.2503
18690W        W61706  33.751  12.045   5.878 -0.0177 -0.0164  0.1439
18691W        W61707   9.865  29.087  22.025 -0.1268 -0.1806 -0.1115
18692W        W61708  21.611  12.066   1.921 -0.2727 -0.0288 -0.0256
18693W        W61709  32.152  14.507  16.766 -0.0856  0.2883 -0.1034
18694W        W61710  14.682   9.620   6.731  0.0362 -0.0039  0.1618
18695W        W61711  18.980  27.276  18.587  0.0517  0.3164 -0.0570
18696W        W61712  23.047  34.272   6.618 -0.1265  0.2646 -0.1861
18697W        W61713  30.971  22.169  17.534 -0.0429 -0.0382 -0.1858
18698W        W61714  25.466   3.069   5.241 -0.3036  0.1768 -0.0724
18699W        W61715  23.054  15.590  14.784 -0.0667 -0.2328 -0.3282
18700W        W61716  25.228   1.035   8.679  0.0412 -0.1265  0.0704
18701W        W61717  11.712  27.269  17.611  0.0536  0.0501 -0.2293
18702W        W61718  17.271   3.934  16.388  0.0685 -0.2421  0.2209
18703W        W61719  25.005  15.864   4.853 -0.0014 -0.3290 -0.4364
18704W        W61720  34.701  34.722  24.507  0.0873  0.1233 -0.0814
18705W        W61721   7.622   7.551  26.737 -0.0231 -0.1661  0.3930
18706W        W61722   7.544  15.043  28.319 -0.1548 -0.1684 -0.0557
18707W        W61723  22.344  11.060  16.781 -0.4349 -0.2365  0.0070
18708W        W61724  33.033   8.473  16.605  0.0747  0.2503 -0.2419
18709W        W61725  22.419   2.758  23.839  0.1094  0.3003 -0.0465
18710W        W61726  18.497  10.299  16.374  0.4232  0.1698  0.0523
18711W        W61727  28.748   6.239  29.130 -0.3930  0.0164 -0.1665
18712W        W61728  32.566   6.730   0.615  0.0735 -0.0812 -0.2067
18713W        W61729  13.310  33.800  17.031 -0.3195  0.1149  0.0908
18714W        W61730  30.272   0.834   1.607  0.0603 -0.1768  0.2857
18715W        W61731  31.433   5.602  28.675  0.0179 -0.1173  0.0232
18716W        W61732  18.312  34.297   0.732  0.2836  0.0254  0.0734
18717W        W61733  14.472   5.730  27.130  0.0237 -0.1710 -0.0188
18718W        W61734   2.669  15.893   1.883  0.0955 -0.0339  0.1303
18719W        W61735   7.917  15.883   0.557  0.0186 -0.1776  0.0106
18720W        W61736  20.072   1.303  26.416  0.2801  0.3570  0.2215
18721W        W61737   9.354  28.780  21.848  0.0972 -0.3864  0.3647
18722W        W61738  27.603   6.505  26.228  0.2248  0.0309  0.1189
18723W        W61739  11.448  11.435  24.827 -0.0977 -0.4281 -0.3286
18724W        W61740  18.471  32.603  20.899  0.2363 -0.0020 -0.1032
18725W        W61741  22.404   1.434   8.694 -0.0629  0.0563  0.0969
18726W        W61742  19.471   4.099  29.032 -0.1903 -0.3012  0.1832
18727W        W61743  17.963   8.727  20.968  0.1049  0.0052  0.0122
18728W        W61744  29.705  11.773  16.514 -0.0486  0.0737 -0.0227
18729W        W61745  34.531  24.669  17.666 -0.0572 -0.1145  0.0091
18730W        W61746  21.903   2.494   7.831 -0.3748  0.3084  0.1591
18731W        W61747  12.620   2.631   1.901  0.3645  0.0810  0.2318
18732W        W61748   1.837   2.841   7.860  0.4139  0.1108  0.1565
18733W        W61749  23.374  10.460   8.650  0.2694  0.1788  0.0978
18734W        W61750  27.433  18.640  18.183 -0.1375 -0.2047 -0.0526
18735W        W61751  20.817  25.959   0.198  0.0139  0.0294  0.0641
18736W        W61752  19.507  32.265   2.679  0.2745 -0.0693 -0.0891
18737W        W61753   4.290   8.239  14.934 -0.1044 -0.0935  0.4341
18738W        W61754  21.736  19.639  26.633  0.4867 -0.0955  0.2405
18739W        W61755  23.731  16.071  26.470 -0.0879 -0.2081  0.3012
18740W        W61756   1.942   2.139  22.564 -0.2331 -0.2201 -0.3360
18741W        W61757  23.736  19.945  19.001  0.0296 -0.3983 -0.0441
18742W        W61758  18.192  14.193  24.164 -0.1794  0.1209  0.2455
18743W        W61759  32.957  15.067  26.219 -0.1215 -0.2027 -0.1396
18744W        W61760   0.839   4.476  15.784  0.1186  0.3218  0.1458
18745W        W61761  12.802   9.230  28.845  0.2606 -0.1594 -0.4838
18746W        W61762  17.613   4.859  17.413 -0.1202  0.5557 -0.0601
18747W        W61763   8.143  20.264   6.891 -0.1331  0.1899  0.0512
18748W        W61764  25.883  34.308   3.987  0.0307 -0.0229  0.0453
18749W        W61765  30.079  21.785  25.375  0.0947  0.2284  0.0188
18750W        W61766  29.787  29.133   7.001  0.0990 -0.2371 -0.2614
18751W        W61767  27.555  15.956   4.786  0.0031 -0.0976  0.2877
18752W        W61768  17.539   9.741  26.164  0.0862  0.3191  0.2155
18753W        W61769  34.207  12.518  25.333  0.1991 -0.0823  0.2610
18754W        W61770  25.469   3.492  22.338 -0.0865  0.0116  0.0519
18755W        W61771   4.673  31.462   3.405  0.0569 -0.1415 -0.2034
18756W        W61772  32.369  14.853   9.866  0.1789 -0.3206  0.0533
18757W        W61773  31.978  12.342  16.138 -0.0952 -0.0664 -0.3684
18758W        W61774  15.028  14.889   0.544  0.1608 -0.0941  0.0260
18759W        W61775   6.462   5.744  23.188 -0.0442 -0.0883 -0.0806
18760W        W61776   6.140   0.002  14.629 -0.0273 -0.4912 -0.2499
18761W        W61777  19.739  34.152   7.467 -0.2604 -0.0242 -0.0687
18762W        W61778  27.000   1.432  28.742  0.0940  0.1478 -0.1878
18763W        W61779   2.778  11.309   9.288  0.0678 -0.0070  0.2068
18764W        W61780  16.916   3.113   9.217 -0.0127  0.1726 -0.1086
18765W        W61781   7.271  23.515  26.540  0.0166 -0.1523 -0.0247
18766W        W61782  16.930   6.400  10.192 -0.1043  0.2116 -0.0606
18767W        W61783  25.835  21.804  24.575 -0.4155  0.4280 -0.3446
18768W        W61784   0.506  29.161  15.165 -0.0019  0.0166  0.0037
18769W        W61785   1.480   0.413  25.617  0.0152  0.1051  0.3205
18770W        W61786  27.104   3.540   6.054 -0.0349  0.1702 -0.0935
18771W        W61787  14.122  32.444   1.089 -0.0132 -0.1847 -0.2292
18772W        W61788   6.901  20.375  21.936  0.0495  0.0685  0.1201
18773W        W61789  10.685   6.375  18.770  0.1851 -0.0911 -0.1531
18774W        W61790   4.250  21.609   0.561 -0.2762  0.0486  0.1395
18775W        W61791  33.878  18.626  23.508 -0.0009 -0.1821  0.0907
18776W        W61792   6.473   6.598  23.473 -0.0031 -0.0676  0.2163
18777W        W61793  10.018  13.903  17.997  0.2509 -0.2111 -0.2798
18778W        W61794  19.007   9.265  20.304  0.0783 -0.0709 -0.3575
18779W        W61795  26.003  21.941  15.848  0.1099  0.1623  0.0273
18780W        W61796   4.936  20.415  18.306  0.1595  0.1914 -0.2133
18781W        W61797  26.825  33.101  24.680 -0.1800 -0.3311  0.2587
18782W        W61798  34.187  16.468   7.341 -0.1778  0.0907  0.0607
18783W        W61799   3.176  13.819  22.449  0.1779 -0.4746  0.1265
18784W        W61800  16.791  19.026  17.407 -0.2092 -0.2163  0.0951
18785W        W61801  23.768   2.361  23.192 -0.0057 -0.3519  0.0464
18786W        W61802   1.331   3.610  22.833  0.0386  0.0146  0.2503
18787W        W61803   0.320   2.584  28.483 -0.0544  0.0148 -0.0230
18788W        W61804  26.100  10.249  24.173 -0.0287 -0.0822  0.0164
18789W        W61805  29.776   2.651  27.130 -0.0045 -0.2098  0.1416
18790W        W61806  26.095   2.311  19.327 -0.1934 -0.1317  0.1037
18791W        W61807   4.497  18.002   1.565  0.3043  0.2116 -0.0868
18792W        W61808  28.762   9.657  25.358 -0.1035  0.3149  0.0265
18793W        W61809  30.085   8.107  23.554  0.1572  0.3663 -0.0995
18794W        W61810   0.028  22.689  23.145 -0.1405 -0.0502  0.2667
18795W        W61811  23.271   9.630   7.952 -0.2592  0.1071 -0.0627
18796W        W61812   7.093  27.397  26.461 -0.0521  0.2694  0.2396
18797W        W61813   0.900   2.524  26.793  0.1563  0.1175  0.0775
18798W        W61814  19.347  26.581  16.886  0.0557  0.0483  0.0977
18799W        W61815  12.103   0.324  17.400  0.1160  0.0862 -0.5542
18800W        W61816  22.239   4.202   1.929  0.0633 -0.1555 -0.1014
18801W        W61817   4.849   4.391   8.029 -0.0952  0.0378  0.1339
18802W        W61818  17.958  15.225   3.693 -0.0658  0.0460 -0.0557
18803W        W61819  33.880  23.103  21.120  0.2545  0.0486 -0.1802
18804W        W61820  26.508  21.522  20.588 -0.0200 -0.1360 -0.1231
18805W        W61821   4.540  25.279  29.226  0.0856 -0.0954 -0.4266
18806W        W61822  32.890  12.426  21.578 -0.2565 -0.0540 -0.2292
18807W        W61823  17.292   4.208  14.654 -0.3979 -0.0976 -0.1094
18808W        W61824  22.439  11.021  22.217 -0.1609 -0.0101  0.1060
18809W        W61825   6.873   9.815  14.973  0.3847 -0.5217 -0.1613
18810W        W61826  13.360  25.042  28.293 -0.0761 -0.2944  0.0752
18811W        W61827  28.850   3.320  26.436  0.1254  0.2583 -0.1195
18812W        W61828   7.139   4.877   5.094 -0.0730  0.1794  0.2655
18813W        W61829  33.312  10.217  18.850  0.0604 -0.2605  0.2237
18814W        W61830   6.994   5.284  13.941  0.0317  0.0746 -0.2762
18815W        W61831  23.949  23.926  17.084  0.2071 -0.2539 -0.0927
18816W        W61832  34.241   4.815   0.385 -0.0631 -0.1367  0.2933
18817W        W61833  23.035  24.210  17.600  0.0494 -0.2048  0.2813
18818W        W61834   6.917   7.943  16.274 -0.2998  0.0026 -0.0423
18819W        W61835  32.874  25.350  14.814 -0.0513  0.0214  0.2678
18820W        W61836  20.567  14.137  13.644  0.0032 -0.1571  0.1266
18821W        W61837  34.716   9.837   8.009  0.1089  0.3048 -0.0535
18822W        W61838   8.882  25.101  16.333  0.0058 -0.0334  0.1844
18823W        W61839  34.226   7.841   7.102 -0.0137  0.1211 -0.0973
18824W        W61840   3.604  13.871  27.574  0.0904 -0.1668 -0.1285
18825W        W61841   9.836   4.290  25.391  0.0200 -0.1090 -0.1619
18826W        W61842  25.128   9.181   6.945  0.2041  0.1444  0.0262
18827W        W61843  27.140  11.870  15.704  0.2031 -0.0679 -0.1402
18828W        W61844   9.461   3.831  28.345  0.1200  0.2878  0.2228
18829W        W61845   4.392  19.215  17.950  0.0598 -0.1385 -0.0602
18830W        W61846  22.463   4.062  14.925  0.0625  0.1555  0.2860
18831W        W61847  15.700   2.446   4.109 -0.2115  0.1116  0.0176
18832W        W61848  28.451  30.070   7.682  0.2102 -0.0744  0.1072
18833W        W61849  20.728   8.045  26.080 -0.1065 -0.2264 -0.1699
18834W        W61850  20.588  21.719  19.409 -0.2728 -0.0225  0.2308
18835W        W61851  32.127  14.056  19.653 -0.1930 -0.0414 -0.1134
18836W        W61852  28.577  31.251  28.245 -0.1431 -0.1744 -0.2320
18837W        W61853  18.936  24.739  27.465 -0.0354 -0.0364 -0.2298
18838W        W61854  24.613  22.647   3.760  0.3060 -0.1639  0.5360
18839W        W61855  26.021  19.321  27.708 -0.2523 -0.1997 -0.0772
18840W        W61856   2.962   4.316  21.931  0.2015 -0.0239 -0.0639
18841W        W61857  15.434   7.318  12.849  0.2912  0.1340  0.2479
18842W        W61858   8.451  12.259  13.500 -0.2815 -0.0978 -0.1418
18843W        W61859  19.226  16.346  14.603  0.2408  0.2401 -0.2070
18844W        W61860  33.873  27.366  27.238  0.0107 -0.0679 -0.1060
18845W        W61861  19.781  25.223  16.984 -0.1393 -0.1423 -0.0019
18846W        W61862  33.754  26.157  28.945  0.1111  0.0500  0.3539
18847W        W61863  28.985  31.857   3.135  0.1561 -0.0279 -0.1680
18848W        W61864  10.152   5.041  26.976  0.3720  0.1920 -0.0466
18849W        W61865  28.815   6.466  27.269 -0.1232 -0.0970  0.1988
18850W        W61866  33.177   6.883  17.379 -0.1097 -0.0331  0.0706
18851W        W61867  17.993  24.193   2.531 -0.0270  0.0382  0.1890
18852W        W61868  30.564  13.565  23.173 -0.1800 -0.0922 -0.2120
18853W        W61869  32.486   5.712  22.417 -0.1476  0.2542  0.2526
18854W        W61870  30.373  12.618  15.092  0.3467 -0.1020  0.2305
18855W        W61871  24.542  11.056  22.643  0.4711  0.2349 -0.1832
18856W        W61872  22.423  16.069  13.734 -0.2261 -0.1216 -0.0995
18857W        W61873  20.955  17.903  12.470  0.0980  0.1394 -0.2752
18858W        W61874  15.835   4.858  20.963  0.3125 -0.0229 -0.1224
18859W        W61875  24.540  31.432  21.070  0.1198  0.1354  0.1814
18860W        W61876  33.198   3.273  15.473  0.0793  0.0949 -0.3007
18861W        W61877  33.645   8.951  17.702  0.2230  0.4199  0.0500
18862W        W61878  33.990  19.613  22.599 -0.2289  0.0635 -0.0682
18863W        W61879  33.440   6.835   7.002  0.0136  0.1906  0.0557
18864W        W61880  25.219   9.875   3.779  0.1979  0.1002 -0.0755
18865W        W61881   4.855  14.092  18.943 -0.0164 -0.2660  0.0232
18866W        W61882  30.833  22.964  27.983  0.2003 -0.2751  0.1519
18867W        W61883  27.013   5.016  20.127 -0.0296  0.2778  0.1299
18868W        W61884  21.871   8.536  27.984  0.1431 -0.0517  0.0270
18869W        W61885  24.364  32.498  22.530 -0.1394 -0.3088 -0.0433
18870W        W61886  20.636   0.838  26.844  0.0744 -0.0141 -0.0638
18871W        W61887  21.671   8.717  25.256 -0.0570  0.3384  0.0618
18872W        W61888  11.344  10.935  23.139 -0.1936  0.2294  0.4266
18873W        W61889  18.781  21.963   0.967 -0.1627 -0.0962  0.0596
18874W        W61890  26.370  19.271  25.595  0.0117 -0.1718 -0.0571
18875W        W61891   3.787  19.204   7.659 -0.1920  0.1983 -0.2818
18876W        W61892  12.118  30.263   0.781  0.1189 -0.1642 -0.0875
18877W        W61893  27.026  20.131  16.116 -0.2964 -0.1544  0.3039
18878W        W61894  15.853  26.608  29.093 -0.1285  0.0145  0.0037
18879W        W61895  21.615  19.259  20.777 -0.0804 -0.0033  0.1138
18880W        W61896  21.844  18.085   7.805 -0.1602 -0.1945  0.0935
18881W        W61897  19.705  33.125  16.477 -0.1271 -0.0408  0.1106
18882W        W61898  15.777  23.393  15.039 -0.2555 -0.1262  0.1612
18883W        W61899  11.258  27.113  22.147 -0.1028  0.2971  0.2686
18884W        W61900  26.938  32.240   6.699 -0.0487 -0.2711 -0.0543
18885W        W61901  29.869   6.623   2.900  0.1761 -0.2005  0.1473
18886W        W61902  14.332   8.036  20.113 -0.0259 -0.0532  0.0801
18887W        W61903  12.937   6.496  25.921 -0.1592 -0.2268 -0.0773
18888W        W61904   5.120   0.157   4.735  0.0380  0.1173  0.0852
18889W        W61905  12.714  26.332  27.975 -0.1063  0.2102  0.0688
18890W        W61906   0.387  34.491  21.423 -0.0165  0.0579 -0.2394
18891W        W61907   7.243  11.874  15.702 -0.0411 -0.0930  0.1090
18892W        W61908  11.297   7.253   3.380 -0.1290 -0.0722 -0.0292
18893W        W61909  11.425   5.689  26.679 -0.2201 -0.2556 -0.2251
18894W        W61910  34.192  20.008  27.638 -0.4001 -0.2382  0.0756
18895W        W61911  15.225  27.109   0.278 -0.1578  0.2257  0.1187
18896W        W61912  31.171  18.894  22.285  0.1466  0.0218  0.2514
18897W        W61913  17.701   4.151  17.463 -0.1605  0.1158  0.0148
18898W        W61914  23.021  21.282  15.044  0.3646 -0.0069  0.2354
18899W        W61915  27.587   5.363  29.027 -0.0687  0.1499 -0.1294
18900W        W61916  18.539   7.932  22.395  0.0429  0.1459 -0.1831
18901W        W61917  15.652  34.182  28.502  0.0231  0.0779 -0.1323
18902W        W61918  22.734  11.418  26.450 -0.0553 -0.2898  0.0443
18903W        W61919  14.733  27.002  18.990  0.0093 -0.0956 -0.0047
18904W        W61920  10.662  20.171   8.011  0.3600 -0.3076  0.3204
18905W        W61921   6.629   1.739  18.031  0.0538  0.1614  0.2226
18906W        W61922  29.109  29.229  26.588  0.2482 -0.1726 -0.2836
18907W        W61923   2.749  18.688  22.686  0.1993  0.3265 -0.0639
18908W        W61924  20.206  17.760  11.858 -0.7629  0.0848  0.0087
18909W        W61925  29.687  27.058   0.262 -0.0585  0.0572  0.0441
18910W        W61926  19.305   9.914  26.074 -0.2861 -0.0846 -0.0948
18911W        W61927  21.870  11.690  15.140 -0.0135  0.2674 -0.2414
18912W        W61928  23.860  10.371  23.710 -0.1203  0.1214  0.1622
18913W        W61929  29.853  12.263   6.765  0.1289  0.0218 -0.2472
18914W        W61930   0.669  20.145  22.000  0.0644  0.0151  0.3546
18915W        W61931  16.096  17.823  21.172  0.1014 -0.0255 -0.2833
18916W        W61932  26.330  17.410   1.365 -0.0336 -0.0646 -0.1697
18917W        W61933  22.984  12.875  13.898  0.4363  0.1820  0.1429
18918W        W61934  27.909   9.610  20.017 -0.2569  0.1752 -0.0764
18919W        W61935  31.882  19.389   9.963  0.0560  0.2992  0.1572
18920W        W61936   3.993   6.171  24.612 -0.3143  0.0433  0.1308
18921W        W61937  27.877  32.585  26.995  0.1405  0.0023  0.0569
18922W        W61938  27.435   2.260   2.231 -0.2878 -0.1079 -0.0612
18923W        W61939  22.573  19.348  23.097  0.2113 -0.2977  0.3209
18924W        W61940  28.307   7.898   9.092  0.0981 -0.1538 -0.1083
18925W        W61941  24.481  12.786   2.377 -0.2368  0.0474 -0.1722
18926W        W61942   3.318  21.159  21.605  0.0985 -0.2314 -0.2635
18927W        W61943   0.643  13.638  17.853 -0.0341 -0.0517  0.1338
18928W        W61944   1.119  27.765   8.412 -0.1161 -0.1192 -0.0068
18929W        W61945  34.541  29.509  24.368 -0.1011 -0.0025 -0.0927
18930W        W61946   2.231  18.824   7.814  0.0703 -0.0128  0.1591
18931W        W61947  25.196  18.183  14.496  0.1525 -0.0865  0.1454
18932W        W61948  29.277  14.189  16.912 -0.2098 -0.1448 -0.2093
18933W        W61949  26.868  34.117   9.657 -0.2472  0.0353  0.0231
18934W        W61950  32.618   3.594   4.310 -0.2355 -0.2160  0.0012
18935W        W61951  26.116  27.807  15.933  0.0887 -0.0477  0.2031
18936W        W61952  18.406   3.665  28.661 -0.1282  0.0171  0.0470
18937W        W61953  30.110   4.588  21.784 -0.0875 -0.1816  0.0436
18938W        W61954  24.870  17.958  17.212 -0.1392 -0.1063  0.3383
18939W        W61955  19.052  33.578  16.676  0.1396  0.1384 -0.1198
18940W        W61956  27.587  30.529  20.916 -0.3284  0.2583  0.1304
18941W        W61957  29.027   9.292   1.182 -0.1485 -0.0183  0.0387
18942W        W61958   2.601  32.250   0.661 -0.1010  0.3013 -0.0451
18943W        W61959  32.109  29.819   3.019  0.2696 -0.2665  0.2493
18944W        W61960  30.026  24.985   0.676 -0.1025 -0.2906  0.1833
18945W        W61961  18.147   0.009  23.319 -0.0641 -0.2130  0.0799
18946W        W61962  24.619  12.146  24.746  0.1284 -0.1723  0.0421
18947W        W61963  23.461  34.002   1.705 -0.2121 -0.0284 -0.1591
18948W        W61964  24.566   1.988   0.923 -0.1518  0.1868  0.1444
18949W        W61965  19.880  26.301  19.140 -0.1851 -0.3675 -0.5718
18950W        W61966  32.329  28.542  26.642 -0.2152 -0.4292  0.2023
18951W        W61967   8.743  13.004  16.550  0.1558  0.1015 -0.1258
18952W        W61968  31.493  14.177   2.153 -0.1250  0.0043  0.0211
18953W        W61969  23.933   3.109   4.348 -0.2235 -0.1550 -0.0817
18954W        W61970   0.325   0.821  26.331 -0.0123  0.0334 -0.2644
18955W        W61971  20.736  11.158  18.789 -0.1732  0.0898  0.3174
18956W        W61972  29.951   6.023   6.606 -0.0169 -0.0517  0.2101
18957W        W61973  33.890   5.216   3.374 -0.0395  0.0321  0.1954
18958W        W61974  13.577  14.377  25.990  0.1453 -0.3310  0.0880
18959W        W61975  24.984  31.004   3.334  0.2282  0.1794 -0.0764
18960W        W61976  22.263  28.018  10.608  0.2872  0.0608 -0.2679
18961W        W61977   5.885  33.400  19.909 -0.3148 -0.1508 -0.0097
18962W        W61978   5.711  17.347  17.150  0.0154  0.2892 -0.0096
18963W        W61979  27.683  24.321  26.409  0.1707 -0.0465  0.0670
18964W        W61980   5.951  26.917  28.977  0.0284  0.1440  0.0505
18965W        W61981  32.630   4.318   0.732 -0.2147  0.2138 -0.0103
18966W        W61982  28.842  15.925  25.201 -0.0998  0.2419 -0.1693
18967W        W61983  33.404  19.064   2.260  0.1100  0.1057  0.1426
18968W        W61984  20.032  11.401  12.548  0.0293 -0.0884  0.1638
18969W        W61985  20.612   9.776   8.054  0.3988  0.1079  0.1811
18970W        W61986  19.968  13.244  25.639  0.1548  0.2215 -0.1369
18971W        W61987  25.012  19.688   6.381 -0.1935 -0.1868  0.1560
18972W        W61988  33.008  17.335   0.981  0.0609 -0.1617 -0.2015
18973W        W61989  24.592  34.622   7.799 -0.1925 -0.0786  0.0330
18974W        W61990  32.464   3.390   0.976  0.0664  0.0431  0.2073
18975W        W61991  27.137   8.654  27.239  0.1809 -0.1159  0.1700
18976W        W61992  32.989  11.353  28.269  0.0018 -0.2299 -0.0031
18977W        W61993  32.013   1.166   7.556 -0.0457  0.2250  0.1777
18978W        W61994  30.795  32.103   4.756 -0.0490  0.0807 -0.2266
18979W        W61995  32.789  20.758  10.802  0.3247 -0.0850  0.0291
18980W        W61996  23.351  10.286  28.185 -0.0157  0.0368  0.2320
18981W        W61997  34.624  19.722   7.987 -0.0409  0.0545  0.3229
18982W        W61998  28.081   7.060  22.988  0.2171 -0.2851  0.1626
18983W        W61999  10.239  15.621  16.016  0.0084 -0.2101  0.2780
18984W        W62000  13.265  24.244   1.534  0.0812 -0.0582 -0.2243
18985W        W62001  30.060  15.881  14.622 -0.0310  0.0102  0.2232
18986W        W62002  33.689   5.088  27.977 -0.0663 -0.5161  0.2416
18987W        W62003  14.782   3.429   5.559  0.2580 -0.0419 -0.0124
18988W        W62004  28.080   6.793  18.144 -0.1252 -0.4525 -0.1382
18989W        W62005  14.070  14.638   7.541 -0.0909  0.1983  0.1789
18990W        W62006  17.590  29.441  26.912 -0.1864 -0.0774  0.3393
18991W        W62007  10.840  11.716   2.754  0.0568 -0.1918 -0.2379
18992W        W62008  23.298   7.591  22.459 -0.0686  0.2041  0.0927
18993W        W62009  21.163  14.303  23.956  0.3565 -0.2397 -0.0105
18994W        W62010  26.428   8.207  27.491 -0.1514 -0.1636 -0.1832
18995W        W62011  22.321   1.491   5.511 -0.2088 -0.0477 -0.2145
18996W        W62012  20.646  14.508  23.554  0.2986  0.1262  0.3586
18997W        W62013  31.442  12.937  16.163  0.0345  0.0010  0.2335
18998W        W62014   9.345  10.424  20.572  0.0411  0.3149 -0.2164
18999W        W62015   7.070  14.960  17.250 -0.3174 -0.2699 -0.2677
19000W        W62016  15.991   8.943  27.543 -0.1111  0.0149 -0.1115
19001W        W62017   3.282  31.105  25.254  0.0804 -0.0696  0.0250
19002W        W62018  29.073   1.026  27.841  0.4420 -0.1183  0.1523
19003W        W62019  30.050  15.474  27.658 -0.1411  0.3205 -0.2079
19004W        W62020   0.378  29.012   2.900 -0.1164  0.3462  0.0759
19005W        W62021   1.367  12.082   8.134 -0.2334 -0.0351  0.0201
19006W        W62022  27.175  13.688  23.263 -0.1341  0.2654 -0.2012
19007W        W62023  25.023  33.446  20.594  0.1634  0.0824  0.0373
19008W        W62024   4.432  32.908  13.955 -0.0441  0.1169 -0.3422
19009W        W62025  32.386  18.490  28.004 -0.1172 -0.2087  0.0489
19010W        W62026  30.171   5.526  26.133 -0.0816  0.1108  0.0736
19011W        W62027  20.397   5.837   2.956 -0.1048  0.2150  0.1624
19012W        W62028  16.691  11.564  19.412 -0.0701 -0.0490 -0.0255
19013W        W62029  22.414  20.131  27.566 -0.1897 -0.0844  0.0206
19014W        W62030  11.117  32.134  25.445 -0.1876 -0.0861  0.2578
19015W        W62031  15.437   9.938  27.905 -0.0061 -0.1191 -0.1070
19016W        W62032  32.626  14.412   1.577  0.1370 -0.0019  0.5704
19017W        W62033  22.062  24.658   5.194  0.0394 -0.1764  0.1467
19018W        W62034  15.160   5.188   5.897 -0.0501 -0.1036 -0.1019
19019W        W62035  33.935  22.759   5.985 -0.0862  0.2687  0.1084
19020W        W62036  24.766   9.026  26.073 -0.0719 -0.5050 -0.0047
19021W        W62037  25.545  30.700  19.228  0.1918 -0.0496 -0.4238
19022W        W62038  33.089   8.164   5.653 -0.0321  0.1100  0.0460
19023W        W62039  13.830  19.203   1.420  0.0469 -0.1179 -0.0904
19024W        W62040  20.622  24.751  14.562  0.1937  0.1288 -0.2747
19025W        W62041  21.729  16.622   8.738 -0.3162  0.1513 -0.0154
19026W        W62042  18.492   0.856  20.551 -0.0405  0.1467  0.0513
19027W        W62043  21.056  11.959   7.547 -0.1015 -0.2656  0.0380
19028W        W62044  15.594  11.601  27.747  0.0054 -0.2060 -0.1842
19029W        W62045  32.481   4.914   3.925  0.1624  0.2306  0.0616
19030W        W62046  18.327   4.577  26.933  0.0930 -0.0104 -0.0038
19031W        W62047  31.789   8.088   9.406 -0.0905  0.0480 -0.2130
19032W        W62048  17.625   6.472  16.561  0.2642 -0.4878 -0.1270
19033W        W62049  26.941   6.027   0.161 -0.0274  0.2377 -0.0769
19034W        W62050  22.737  14.400   4.850 -0.1137  0.2689  0.0516
19035W        W62051  24.269  31.224   7.628 -0.1380 -0.1695  0.1099
19036W        W62052  23.015   9.188  22.070  0.0275 -0.2244  0.0393
19037W        W62053  11.086  10.189  21.053  0.2193  0.0898 -0.1031
19038W        W62054  24.552  32.551   1.375  0.4182  0.1839 -0.2642
19039W        W62055  26.819   9.943  20.998 -0.2825  0.0305 -0.1168
19040W        W62056   6.992  10.437   7.510 -0.0317 -0.0812  0.1521
19041W        W62057  23.667  34.057  25.954 -0.1727 -0.0493 -0.2717
19042W        W62058   6.463   1.024  16.228  0.0624  0.0825  0.0990
19043W        W62059  30.166   6.796   0.924  0.3466 -0.0186  0.2375
19044W        W62060  23.273   3.751  28.854  0.0368 -0.1105 -0.0895
19045W        W62061  25.697   7.527  28.773  0.0622  0.0336  0.0402
19046W        W62062  13.772  10.347  27.260  0.0726 -0.3646 -0.3246
19047W        W62063  21.131   1.945  21.747 -0.1766  0.1025 -0.0315
19048W        W62064  29.728  16.794   6.936 -0.4212 -0.0306  0.0119
19049W        W62065  21.657   4.447  24.152 -0.2109 -0.0835  0.0946
19050W        W62066  11.066   2.001  29.226  0.2305 -0.0420  0.0378
19051W        W62067  12.979   1.087  15.241  0.2384 -0.2243  0.3181
19052W        W62068  26.673   6.768   3.279  0.1145  0.0067 -0.0300
19053W        W62069   9.151  10.326   8.332  0.0220 -0.3067 -0.1800
19054W        W62070  22.730   8.031  26.133  0.1813  0.0089  0.2915
19055W        W62071  25.866   7.632   5.106 -0.0638  0.2333 -0.0590
19056W        W62072  23.018   5.449  26.076 -0.2622  0.0310 -0.2234
19057W        W62073  20.474  22.495  13.840  0.0990 -0.2426  0.0280
19058W        W62074  34.132   0.419  26.147  0.1589 -0.3238  0.1825
19059W        W62075   8.359   3.616   9.914 -0.2039 -0.0075 -0.4405
19060W        W62076  21.928   8.715  23.766  0.1436  0.0956  0.1410
19061W        W62077  14.888  12.558   6.048 -0.2585  0.0547 -0.0852
19062W        W62078  22.889   4.622   0.378  0.3385 -0.1526 -0.0332
19063W        W62079  22.460   7.309  17.119  0.1646  0.0268  0.2094
19064W        W62080  29.980  31.332  23.710 -0.0677 -0.0538 -0.0584
19065W        W62081  33.338   1.543   8.735 -0.3080  0.2215 -0.2914
19066W        W62082  16.148  33.694  18.588 -0.3208 -0.3346  0.0442
19067W        W62083  32.475  22.251  20.754 -0.1981 -0.2471  0.0959
19068W        W62084  34.637   5.112  18.357 -0.2527  0.1186  0.1732
19069W        W62085  26.615  13.909   1.957  0.0871 -0.1679  0.5841
19070W        W62086  22.521   5.684  15.680 -0.0799 -0.1126  0.1756
19071W        W62087  28.453   8.904   0.460 -0.2116 -0.0849  0.1325
19072W        W62088  19.074  26.856  23.897 -0.0141  0.2156  0.3894
19073W        W62089  14.214  10.234  18.711  0.1545 -0.0502  0.0772
19074W        W62090  33.174  33.575   6.946  0.0631 -0.0632  0.1107
19075W        W62091   7.326  11.159  19.040 -0.0616 -0.1037  0.0573
19076W        W62092   2.078   3.031   4.217 -0.0714 -0.0468 -0.0267
19077W        W62093  17.663  28.388  28.957 -0.2366 -0.1101 -0.0771
19078W        W62094   1.762   4.402   7.082  0.2136  0.0808  0.0980
19079W        W62095   2.730  28.825   2.511 -0.1761  0.0441  0.0146
19080W        W62096  28.523  32.675  15.137  0.0555 -0.1678 -0.0393
19081W        W62097  25.032   6.009  27.527 -0.2845 -0.1491 -0.1162
19082W        W62098   3.569  16.217   7.226 -0.0366  0.0379 -0.1326
19083W        W62099  30.141   5.365   2.146 -0.1025 -0.1145 -0.1702
19084W        W62100  17.155  33.196  17.911 -0.0187  0.0405 -0.0556
19085W        W62101  19.134  10.585  14.092  0.2723  0.0211 -0.2445
19086W        W62102  26.371  29.622  20.928 -0.0090 -0.3287 -0.1077
19087W        W62103   4.358   4.596   9.792  0.2033 -0.0346 -0.1307
19088W        W62104  18.064   5.563  18.996 -0.0457 -0.2494 -0.0146
19089W        W62105  14.170  14.982   1.572  0.1027  0.1126  0.1480
19090W        W62106  19.693   2.746  17.003 -0.1649 -0.2189  0.2492
19091W        W62107  28.756  17.753  20.250  0.0175 -0.0688 -0.1890
19092W        W62108   1.085   0.895  27.167 -0.1236  0.0355 -0.1928
19093W        W62109  21.435  21.351  23.035  0.0963  0.1085 -0.1906
19094W        W62110  21.800   5.787  22.186 -0.2070 -0.1743 -0.0383
19095W        W62111   1.503  23.066   1.278  0.1263 -0.0119 -0.1280
19096W        W62112   3.057   3.036  17.833  0.1948 -0.0748 -0.2610
19097W        W62113  31.704  28.590   0.665  0.0754  0.1370 -0.1737
19098W        W62114   6.777   9.035  14.532 -0.0254  0.2224  0.1863
19099W        W62115   9.161  29.029   5.156 -0.1419 -0.2955  0.0148
19100W        W62116  33.816  30.469  22.794  0.1102 -0.2668 -0.0416
19101W        W62117  26.707  10.131  23.026 -0.1541 -0.1730 -0.0149
19102W        W62118  28.486  32.233   0.939  0.2631 -0.0802 -0.1288
19103W        W62119  21.409  21.851  13.364  0.1143 -0.1537 -0.1592
19104W        W62120  28.681  22.559   6.966  0.0489 -0.3015  0.1584
19105W        W62121  19.595  29.954   4.333  0.0695  0.2040  0.4203
19106W        W62122  19.229  33.351  26.717  0.3896 -0.1639  0.0702
19107W        W62123   6.930  25.296   5.401 -0.0246 -0.1420 -0.0261
19108W        W62124  27.092  21.427  18.478 -0.2537  0.0881 -0.0703
19109W        W62125   5.728   7.539   9.049 -0.0258  0.1844  0.2421
19110W        W62126   1.236   2.921  25.587 -0.0083 -0.1450  0.1483
19111W        W62127  27.546   6.098  10.923 -0.1996  0.1559 -0.0229
19112W        W62128  22.614  11.744  20.855 -0.0915 -0.1203  0.1894
19113W        W62129  19.143  24.013   3.863  0.3459  0.1081  0.0152
19114W        W62130  34.417  13.521   2.446 -0.2159  0.4324  0.2115
19115W        W62131  32.161  20.256  19.025 -0.1094 -0.4297 -0.1843
19116W        W62132  23.477   3.939  29.281  0.3833 -0.1509  0.3844
19117W        W62133  34.371   0.830  19.827  0.0194  0.0069 -0.1078
19118W        W62134  19.969   3.690  22.110  0.0644  0.2199 -0.1318
19119W        W62135   2.081  14.375   8.127 -0.1811 -0.0230  0.1781
19120W        W62136  19.849  13.165  27.386  0.2081  0.0977 -0.0907
19121W        W62137   2.425  10.843   4.308  0.1821  0.0410  0.2402
19122W        W62138  28.216  32.498  15.866 -0.0409 -0.2124 -0.1568
19123W        W62139   9.318  10.176   9.300 -0.1439  0.2412  0.1028
19124W        W62140  30.030   9.175   2.069 -0.0270  0.0424  0.0437
19125W        W62141  24.762  31.371  21.943 -0.0154 -0.1783  0.2526
19126W        W62142  10.202   5.441  17.326  0.2673  0.0740  0.6957
19127W        W62143   1.882  12.417  26.898  0.1469  0.0620  0.0175
19128W        W62144  32.381   2.655  18.576 -0.0222  0.1127 -0.3238
19129W        W62145  32.064  34.123  16.144 -0.0103 -0.1060 -0.0854
19130W        W62146  22.186   5.252   7.857 -0.1188  0.0743  0.1724
19131W        W62147  13.059   2.695   7.603 -0.3201  0.1003  0.1724
19132W        W62148  26.713  14.869   5.094 -0.0220 -0.0178  0.0617
19133W        W62149   6.905  22.252   5.122  0.1602 -0.1476 -0.0293
19134W        W62150  27.298  12.380   1.881 -0.4055 -0.4577 -0.0434
19135W        W62151  28.658   6.520   5.361  0.2059  0.0883 -0.0417
19136W        W62152  18.526   4.030   7.086  0.2617  0.0791 -0.0567
19137W        W62153   3.019  30.604  14.389 -0.0454 -0.1118  0.2231
19138W        W62154  19.469   8.643  26.412 -0.1432  0.3018 -0.1229
19139W        W62155  28.537   4.608  19.910  0.2319 -0.0060 -0.0285
19140W        W62156  26.488  12.274  22.710  0.2405  0.0796 -0.0363
19141W        W62157  10.895  29.788  17.023  0.1328 -0.1789 -0.0062
19142W        W62158  23.304  32.440  26.200  0.3264 -0.0469  0.0788
19143W        W62159   9.077   4.564  21.396  0.1366 -0.1097 -0.1491
19144W        W62160  30.265   9.928   9.560 -0.0808 -0.0853 -0.0464
19145W        W62161   3.320  17.182  26.374 -0.3347 -0.2972 -0.3041
19146W        W62162  12.083  17.195  14.801  0.1862 -0.1471  0.0945
19147W        W62163  23.423   9.668  20.167  0.1534 -0.0251 -0.1456
19148W        W62164   1.262   0.749  19.559  0.3480  0.0939  0.0044
19149W        W62165  22.194   9.141   4.568 -0.0887 -0.1771  0.0874
19150W        W62166  19.600  11.874  17.023 -0.2403 -0.1057  0.1426
19151W        W62167  11.955   0.600   5.002 -0.0941 -0.0492 -0.2193
19152W        W62168  32.842  15.087  17.109 -0.1704  0.0378 -0.1587
19153W        W62169  20.641  25.399  27.425 -0.1311  0.0332  0.2667
19154W        W62170  16.334   0.023  22.576  0.0072  0.2146  0.0791
19155W        W62171  26.467  11.162  18.949  0.1151 -0.0582 -0.0535
19156W        W62172  24.553  26.311   5.820 -0.0526 -0.0719 -0.0799
19157W        W62173  20.319  17.121   3.071  0.4207 -0.0789 -0.2280
19158W        W62174  34.483   0.243   2.849 -0.0905  0.1298  0.0159
19159W        W62175  12.755  16.300  21.553  0.0146 -0.5034 -0.0973
19160W        W62176  19.194  23.081   0.141 -0.0769  0.0401 -0.1193
19161W        W62177  21.876   3.206   4.069 -0.2409 -0.1626  0.3399
19162W        W62178  23.551  24.320  21.865  0.1638  0.2407 -0.3044
19163W        W62179   3.463  14.212   8.720  0.0292 -0.1207 -0.0733
19164W        W62180   8.826   9.007  23.137 -0.1754 -0.0844 -0.1712
19165W        W62181   2.054  13.468   4.991  0.0290 -0.1746 -0.0775
19166W        W62182  32.009   4.606   4.660 -0.1183  0.0667  0.1188
19167W        W62183  11.436  23.098  14.008 -0.0716 -0.2385  0.1968
19168W        W62184  31.701  15.573  28.459 -0.1536 -0.1104 -0.1228
19169W        W62185   0.500   4.454  21.950  0.3509 -0.1198  0.0036
19170W        W62186   3.294  19.385  24.902  0.0466  0.1195  0.5206
19171W        W62187  33.442   9.970  15.509 -0.1909  0.0614  0.2777
19172W        W62188  27.529   7.986  19.127 -0.1218  0.0212 -0.2448
19173W        W62189  33.002  34.667  23.628  0.0340  0.0202  0.0006
19174W        W62190  16.342  33.028   5.069  0.3342  0.2370  0.0159
19175W        W62191  25.923   2.070   2.616 -0.0422  0.0334 -0.0736
19176W        W62192   0.169   5.752   3.086 -0.2844  0.0235 -0.0624
19177W        W62193  28.370  18.238  15.390  0.2952  0.1447 -0.2020
19178W        W62194   8.977  19.188  27.832  0.1068 -0.2266  0.0655
19179W        W62195  22.785  15.157  16.079  0.0373 -0.2387  0.3387
19180W        W62196   1.680  12.292  20.537 -0.1276 -0.0219  0.1661
19181W        W62197   0.410   8.673  19.294 -0.0608  0.2867  0.3078
19182W        W62198  14.580  34.521  24.935 -0.0602  0.0263 -0.3512
19183W        W62199  13.514  23.061  27.691 -0.0872  0.2143 -0.1745
19184W        W62200  33.568   6.506  24.723  0.1411  0.1028 -0.3087
19185W        W62201   4.942   4.073  25.352 -0.1700 -0.0779 -0.1105
19186W        W62202   1.462  12.848   3.365  0.1429  0.1679  0.0883
19187W        W62203  16.241  30.888  13.172 -0.1025  0.2852  0.1269
19188W        W62204  22.161   9.258  27.241  0.0202  0.0977  0.0150
19189W        W62205   5.733   3.071   1.743 -0.1626  0.0639 -0.0436
19190W        W62206   9.586   6.880   4.171  0.1400  0.1109 -0.2616
19191W        W62207  26.404  15.204   5.745  0.0756 -0.0048  0.3394
19192W        W62208   9.369   4.298   3.826  0.1536  0.0707  0.1593
19193W        W62209  20.383   0.225   3.094 -0.0219 -0.1011  0.0074
19194W        W62210  28.750  10.096   8.256 -0.0091 -0.1724 -0.0203
19195W        W62211  28.803   9.893  10.007 -0.1200 -0.0325  0.1726
19196W        W62212  14.324   4.682   3.229  0.2438 -0.0354  0.0699
19197W        W62213  23.336  26.138  10.105 -0.0011 -0.0634 -0.1566
19198W        W62214  26.834   2.649  16.730 -0.1279 -0.1334 -0.1924
19199W        W62215  24.783  33.145  18.737  0.1712  0.0346 -0.0633
19200W        W62216  27.161   6.477   0.201  0.2195 -0.1352 -0.3512
19201W        W62217  15.064  34.418   0.043 -0.0348  0.1391 -0.3003
19202W        W62218   7.227   6.618   7.932 -0.0128  0.0639 -0.2038
19203W        W62219  20.981  34.257  29.034 -0.2783  0.2632  0.1156
19204W        W62220   7.986  12.156  27.119 -0.1247 -0.3579  0.2295
19205W        W62221  21.679   6.501  24.361 -0.1112 -0.0534 -0.1791
19206W        W62222  22.394  12.670  17.911 -0.2048  0.1067  0.1206
19207W        W62223  12.050   8.682  19.034  0.1797  0.0292  0.1448
19208W        W62224  30.390  32.112  28.343  0.0275 -0.0913 -0.0567
19209W        W62225   2.552  27.368   3.538 -0.0840 -0.2931  0.0850
19210W        W62226  26.246  10.587   1.787 -0.2323 -0.2876 -0.4783
19211W        W62227  33.332   3.463  28.194 -0.0646 -0.1915 -0.0882
19212W        W62228   2.541   7.673  18.968 -0.1349  0.0029 -0.1174
19213W        W62229   8.884  21.387  26.902  0.3355 -0.0477  0.2177
19214W        W62230  29.988  30.514   2.865 -0.3091 -0.0418  0.0774
19215W        W62231  16.675   9.578  20.657  0.1519  0.1404  0.2618
19216W        W62232  24.736  15.414   4.991 -0.0323  0.0109  0.0849
19217W        W62233  16.195  17.921   6.445  0.0532 -0.2630  0.0218
19218W        W62234  24.483  30.918  20.960  0.1609  0.1918 -0.1333
19219W        W62235   4.408  20.110  16.800 -0.1232  0.0346  0.0905
19220W        W62236  28.369  25.886   8.967  0.1470 -0.0382 -0.1976
19221W        W62237  13.104  25.572  24.633 -0.1249  0.3453 -0.3383
19222W        W62238  13.560   0.353  18.228  0.1025  0.0753 -0.1056
19223W        W62239   8.666   1.858   8.518  0.0088 -0.2630  0.2366
19224W        W62240   1.335  15.589  18.200  0.0047  0.1283  0.4641
19225W        W62241  22.829   8.012  15.458 -0.0621 -0.1208  0.0723
19226W        W62242  26.534  23.527   4.139  0.0204  0.2104 -0.1051
19227W        W62243   1.020  13.278   6.828  0.1375 -0.1540  0.0610
19228W        W62244   2.092  22.166   3.668  0.0785  0.2542  0.1178
19229W        W62245   4.073  15.992  27.033 -0.0563 -0.1418 -0.2309
19230W        W62246  26.092   3.932  11.060  0.0163 -0.0282  0.1934
19231W        W62247  29.613  17.258  16.947  0.1231  0.0284 -0.0109
19232W        W62248  23.242  11.034  13.515  0.1582 -0.2271  0.0529
19233W        W62249   3.598  18.861   7.386  0.2860  0.0106 -0.0146
19234W        W62250   2.615  21.698  20.544  0.1626 -0.2892 -0.3016
19235W        W62251  27.754  18.120  27.040  0.0971 -0.3809  0.1811
19236W        W62252  33.620  14.817   1.593  0.1531  0.0916 -0.0195
19237W        W62253  26.870  23.302   0.083 -0.0071 -0.2832 -0.0644
19238W        W62254   1.072   4.247  19.921 -0.0080 -0.3312  0.0083
19239W        W62255  24.804  12.872  15.415  0.1290  0.2042  0.1554
19240W        W62256  20.141  10.953  19.801 -0.1914 -0.0709 -0.1130
19241W        W62257  24.850  31.156   7.551  0.2772 -0.2206 -0.1793
19242W        W62258  19.205  12.115   2.963  0.2190 -0.0091  0.0994
19243W        W62259   4.852  18.058  17.933  0.0353 -0.0615 -0.0813
19244W        W62260  28.454   2.025  26.756  0.0490 -0.3051  0.0770
19245W        W62261  22.836   8.671  17.941  0.0323 -0.0053  0.1437
19246W        W62262   4.356  16.590  24.338 -0.1421  0.2197 -0.2155
19247W        W62263  24.704  18.377  16.337  0.1838 -0.0357  0.0371
19248W        W62264  11.122  30.063   5.522 -0.3584 -0.2230  0.0598
19249W        W62265  27.754   1.406   7.407 -0.2250  0.2121 -0.1334
19250W        W62266  27.497  29.152   3.236  0.0268 -0.1862 -0.3267
19251W        W62267  33.478  29.269   1.703 -0.1519  0.1052 -0.2482
19252W        W62268  34.655   4.668  25.898  0.2399 -0.1346 -0.0303
19253W        W62269  14.755   1.090   9.367  0.0246  0.0368  0.1825
19254W        W62270  20.908  12.134  29.113 -0.1462 -0.1005 -0.1277
19255W        W62271  29.210  12.840   1.687  0.1173  0.1627 -0.2645
19256W        W62272  22.063  18.596  27.756  0.0476 -0.2890  0.1386
19257W        W62273  16.744   5.288   4.036  0.1184 -0.2800 -0.1989
19258W        W62274   4.542  18.313  26.072  0.1781 -0.2037  0.2773
19259W        W62275   0.127  16.843  25.730  0.1259  0.3392  0.1208
19260W        W62276  29.008  13.852  17.248 -0.0659  0.0008 -0.1663
19261W        W62277  11.842  21.132  17.584  0.0288 -0.2533  0.0117
19262W        W62278   1.983   6.049   2.264 -0.0061  0.0156 -0.1888
19263W        W62279  22.770  12.476  14.117  0.0433  0.1204 -0.2975
19264W        W62280  31.623  14.609  10.874  0.2148  0.0825 -0.2056
19265W        W62281  33.292  20.422  16.231  0.0716  0.1579 -0.0619
19266W        W62282  24.426  31.616  28.847 -0.2258 -0.0317  0.0948
19267W        W62283  16.393  15.183  27.612  0.3557  0.0608 -0.2309
19268W        W62284  29.351  11.129  22.814  0.2021  0.0153 -0.1648
19269W        W62285  19.768   8.041  22.001 -0.1905  0.3715 -0.1965
19270W        W62286   1.190  17.388  27.601 -0.1446 -0.3107  0.2856
19271W        W62287  34.689  34.654  27.646  0.0066 -0.0834 -0.4642
19272W        W62288   3.202   3.052  18.304 -0.3235  0.4616  0.1809
19273W        W62289   6.796  31.982   3.122  0.1351 -0.0372 -0.0157
19274W        W62290  31.609  27.803   5.671 -0.0456  0.2234 -0.1844
19275W        W62291  27.438   8.990   6.379  0.0368  0.0282  0.0259
19276W        W62292  23.155  14.049  19.305  0.1316  0.2467  0.0771
19277W        W62293  19.799  21.789  16.449  0.1119  0.1803  0.1198
19278W        W62294  32.594   9.878   5.149 -0.2071 -0.1810 -0.3498
19279W        W62295   3.745  28.099   4.507 -0.2557  0.2149 -0.1272
19280W        W62296  28.147  10.907   5.271  0.0707  0.1255 -0.0344
19281W        W62297  14.806   1.984  15.810  0.0639 -0.2678  0.3526
19282W        W62298  32.138  19.943   9.913 -0.0745 -0.2479 -0.1741
19283W        W62299   6.731  14.137   8.735 -0.1232  0.2064 -0.1920
19284W        W62300  18.506   3.883   8.253  0.1409 -0.0882 -0.1575
19285W        W62301  19.630   4.825  14.138  0.0305  0.0229 -0.1403
19286W        W62302  31.742  11.914   3.416  0.0018 -0.3426  0.0403
19287W        W62303  26.725   5.072   5.332  0.1681  0.0518  0.2616
19288W        W62304  28.506   7.355   4.814  0.0468 -0.2508 -0.1378
19289W        W62305  16.021   4.491   5.186  0.0222  0.0614  0.1645
19290W        W62306  15.767   1.382   1.901  0.0841  0.1271  0.2682
19291W        W62307  17.509  10.949   1.778  0.2168  0.0356  0.2061
19292W        W62308  19.778   6.092   5.354 -0.0395  0.2117 -0.3168
19293W        W62309  29.466  13.639  17.414  0.2475  0.2342 -0.2028
19294W        W62310  26.620  16.469  19.741 -0.1543  0.0469 -0.0870
19295W        W62311  30.027  33.488  19.383  0.1539  0.1785 -0.0879
19296W        W62312  16.368   8.797  16.645 -0.2355 -0.1474 -0.0266
19297W        W62313  13.523   8.195   4.692 -0.1780 -0.1973 -0.1298
19298W        W62314  24.268   6.086  25.961 -0.2272  0.0532 -0.2591
19299W        W62315   7.732   6.221   7.874  0.0910  0.0314 -0.3477
19300W        W62316  27.395   8.012   6.031 -0.4317  0.4353 -0.1807
19301W        W62317  24.149  25.966   3.344 -0.0166  0.0489  0.3380
19302W        W62318   7.382  34.319  17.897  0.1814 -0.3082 -0.1960
19303W        W62319  18.963   5.280   2.382 -0.0877 -0.3474  0.0319
19304W        W62320   4.927  12.676  27.908  0.0847  0.0045 -0.0227
19305W        W62321  23.074   5.328   8.209 -0.0562  0.0479  0.0507
19306W        W62322  16.543  12.597  22.719 -0.3015 -0.2341 -0.1420
19307W        W62323   0.733  28.047   0.938  0.0277 -0.0553 -0.3218
19308W        W62324  21.103  13.139  15.725 -0.2114 -0.0258  0.0543
19309W        W62325  14.841  28.502  28.041 -0.3154  0.2806 -0.0010
19310W        W62326  28.488  28.476  11.069 -0.4603  0.1878  0.3502
19311W        W62327  28.460   5.961  15.856 -0.1521 -0.0748 -0.0289
19312W        W62328   1.866  31.551  24.222 -0.1739  0.1364  0.1253
19313W        W62329   9.814  10.364   3.930 -0.3350 -0.1826  0.0530
19314W        W62330  30.537  10.246  22.488  0.1119 -0.2344 -0.0658
19315W        W62331  18.985   1.097  22.903 -0.0715 -0.4105  0.0900
19316W        W62332  13.952  33.310  29.155 -0.2031  0.0406  0.0126
19317W        W62333  32.175  27.604  18.668  0.0721 -0.2825 -0.0093
19318W        W62334   2.067  17.305  22.491  0.4121 -0.0882  0.2478
19319W        W62335   8.009  24.865   4.263 -0.0043  0.0642  0.0638
19320W        W62336  25.139  19.471   9.187  0.0073  0.2710 -0.0088
19321W        W62337  31.406   7.965  15.696 -0.1298 -0.1088  0.0257
19322W        W62338  25.524  13.920  27.657 -0.1099 -0.1994  0.2059
19323W        W62339  32.099  19.294   9.234  0.1604 -0.4261  0.4131
19324W        W62340  28.695   3.879  14.954  0.1973  0.2223 -0.0443
19325W        W62341  32.436  12.104  22.456 -0.1340 -0.1237 -0.0001
19326W        W62342   0.810  30.842  22.020  0.0890  0.2095  0.0338
19327W        W62343  16.293   4.749  14.679 -0.0962 -0.2434 -0.0912
19328W        W62344   3.184  15.017  17.184 -0.2891  0.0621 -0.2537
19329W        W62345   9.900   8.931  14.258 -0.0180  0.1780  0.0957
19330W        W62346  33.750   3.425   1.229  0.0331  0.4675 -0.0687
19331W        W62347  26.724  23.772  19.890  0.3955  0.0892 -0.2186
19332W        W62348  30.976   9.959  22.390  0.1398  0.0722  0.3223
19333W        W62349   2.301  11.832  22.666  0.1130  0.3080 -0.0382
19334W        W62350   6.636  12.027  28.871  0.2527 -0.5555 -0.2007
19335W        W62351  16.277  23.071  12.840  0.3951  0.0704  0.0032
19336W        W62352   5.150   5.780   2.442 -0.3341  0.0031  0.1379
19337W        W62353  27.762  11.333  15.252 -0.0147  0.1842 -0.2717
19338W        W62354  28.168  19.996  17.775  0.1296 -0.2277 -0.0413
19339W        W62355  32.589   7.932  18.025 -0.0708  0.3307 -0.0489
19340W        W62356  34.601  13.742  14.264 -0.2415  0.3203 -0.2278
19341W        W62357  15.302   5.154   1.136  0.1314  0.0378 -0.1419
19342W        W62358   5.725  10.590   1.121 -0.1852 -0.2566  0.4529
19343W        W62359  32.632  25.975  23.956 -0.0418 -0.2019  0.0139
19344W        W62360  26.105  17.890  22.188  0.3414  0.1401 -0.1805
19345W        W62361  33.363   7.000  19.366 -0.0775 -0.3793  0.0591
19346W        W62362   0.309  17.775  25.891  0.5383 -0.0566 -0.1600
19347W        W62363   3.394   8.496   9.411  0.1569  0.2305 -0.1112
19348W        W62364   3.456   8.139  24.820  0.0619 -0.0222 -0.0977
19349W        W62365  12.631  15.200  14.962  0.1831  0.0209 -0.1397
19350W        W62366  31.672   9.385  24.294 -0.3132 -0.1794 -0.0531
19351W        W62367   3.543   9.788   2.458  0.1120 -0.1190  0.0431
19352W        W62368  34.203  19.291  19.515 -0.0098 -0.0437 -0.0191
19353W        W62369  32.104   8.532   9.357 -0.0067  0.2866  0.0080
19354W        W62370   2.310  30.698   1.263  0.1664 -0.1372  0.1424
19355W        W62371  34.753  15.284  24.226 -0.0160  0.0316  0.2557
19356W        W62372  33.310  33.616  17.883  0.1825  0.2304  0.0951
19357W        W62373  26.679  16.422  23.104  0.2944 -0.1369 -0.2318
19358W        W62374  18.095   7.518  20.632  0.1579  0.1206 -0.0289
19359W        W62375   1.185  30.498  19.482  0.4814 -0.0580 -0.0751
19360W        W62376  27.859  19.667  22.135  0.2269  0.0229  0.2592
19361W        W62377   6.942  23.435  24.790  0.0434  0.1801 -0.0020
19362W        W62378   7.635  27.910  18.234  0.0631  0.1500  0.0729
19363W        W62379  20.658  12.808  14.096  0.1998 -0.0862  0.2359
19364W        W62380  27.671  22.483  16.983 -0.1731 -0.0882  0.2621
19365W        W62381  16.961  10.511  24.519 -0.1126  0.0614 -0.1680
19366W        W62382  28.989  34.559   1.670  0.1086  0.3420  0.0772
19367W        W62383  17.001   9.152  18.761 -0.0097  0.1246  0.0421
19368W        W62384  24.526  14.097  18.096  0.4322 -0.0554 -0.1397
19369W        W62385  20.210  19.481  16.241  0.0484  0.2410  0.3479
19370W        W62386   7.370  16.480  19.832 -0.0318 -0.2372  0.0473
19371W        W62387  26.454  13.718   0.841 -0.2036 -0.3272 -0.3305
19372W        W62388   5.416   8.017  28.012  0.3019  0.2227 -0.0769
19373W        W62389  14.290  10.411  13.027  0.2033 -0.1698  0.3178
19374W        W62390  17.571   3.133  18.902 -0.0002 -0.0267 -0.0427
19375W        W62391  32.598  28.724  27.799  0.0296  0.1297 -0.1213
19376W        W62392  31.758   4.889  14.786 -0.0593 -0.0646 -0.1443
19377W        W62393  28.877   9.412   2.912 -0.0716 -0.4638  0.1261
19378W        W62394  31.226  13.709  18.782 -0.0444  0.4036 -0.4610
19379W        W62395  32.429  17.338  17.515 -0.1085 -0.1307  0.0124
19380W        W62396  23.563   8.325  10.284  0.0107  0.2021  0.3237
19381W        W62397  29.091   5.678  18.995 -0.2106  0.0895 -0.2391
19382W        W62398  28.197  14.848  26.098 -0.2323 -0.0496  0.3412
19383W        W62399  26.634  12.787  22.675  0.0865 -0.0640  0.1262
19384W        W62400   3.147   9.908  29.269  0.0606 -0.1175 -0.1398
19385W        W62401  27.068  30.289   3.945  0.1167 -0.3319 -0.5631
19386W        W62402  31.838  33.780  21.785 -0.2933  0.0855 -0.1270
19387W        W62403   4.717   7.764   1.222  0.3609  0.0560 -0.0323
19388W        W62404  30.580  13.605  21.796  0.1269 -0.0659  0.0122
19389W        W62405  32.557   2.615  28.661  0.0071  0.2497  0.0468
19390W        W62406  27.147   7.847  28.363 -0.2395 -0.2539 -0.1711
19391W        W62407   0.750  18.033  20.875  0.1958  0.2403  0.2943
19392W        W62408  32.580  32.379  15.294  0.1050 -0.1522  0.1429
19393W        W62409  29.343  13.081  24.471  0.2761 -0.0464 -0.0001
19394W        W62410  15.095  18.564  23.265 -0.0772 -0.2676  0.2748
19395W        W62411  32.028  17.095  25.801  0.2557 -0.0740 -0.2528
19396W        W62412  28.720   0.478  17.468 -0.0961 -0.2930 -0.1148
19397W        W62413   5.575  33.240  21.168  0.0129  0.1691  0.2654
19398W        W62414   9.648   2.302   3.714  0.1232  0.0647  0.1421
19399W        W62415  28.422  32.278  20.458 -0.2715  0.2277 -0.0697
19400W        W62416  31.698  10.727  14.475 -0.1992 -0.1145 -0.1833
19401W        W62417  29.713  33.486  16.111  0.2117 -0.0149  0.0651
19402W        W62418   1.792   5.507  26.023  0.1725  0.2259  0.1647
19403W        W62419  10.723  13.426  17.657 -0.0726  0.1234  0.1082
19404W        W62420  27.366  15.730  28.691  0.1611  0.1398  0.4305
19405W        W62421  25.076   1.386  21.482 -0.0386 -0.0612  0.0069
19406W        W62422  21.529   3.447  28.682 -0.2773  0.0674 -0.0038
19407W        W62423  15.131  11.473  27.378 -0.2814  0.1952  0.0878
19408W        W62424  24.701   4.281  27.442 -0.2371 -0.2587 -0.0926
19409W        W62425  22.962   7.237  17.036 -0.2047 -0.0251 -0.1909
19410W        W62426  22.229  13.100  19.214 -0.3449 -0.0004 -0.0821
19411W        W62427  25.079  14.670  19.591  0.1975  0.0218 -0.0844
19412W        W62428   2.972   7.592  26.369 -0.2545  0.1891  0.0637
19413W        W62429   8.238  11.686  18.422 -0.3116  0.0728 -0.0053
19414W        W62430   7.514  10.681  15.870 -0.0372  0.2742  0.2973
19415W        W62431   7.013  22.602  19.879 -0.1294  0.4765 -0.1473
19416W        W62432  26.370   5.633  20.241 -0.1481  0.0986 -0.1196
19417W        W62433   0.386   1.283  26.006 -0.0578  0.1643  0.0382
19418W        W62434  21.452  13.580  12.745  0.0245  0.0428  0.0399
19419W        W62435   4.333  22.315  16.248 -0.0241  0.0598 -0.0335
19420W        W62436   5.860   9.853   4.804 -0.0557 -0.1526  0.4328
19421W        W62437  22.347  18.787   7.309 -0.5315  0.1478 -0.1068
19422W        W62438  34.328  26.182  15.462 -0.1942  0.2085 -0.0671
19423W        W62439  20.749   7.282  22.436 -0.0043  0.2397 -0.4001
19424W        W62440  21.430   9.346  16.400  0.1815 -0.0011  0.1799
19425W        W62441   1.736  27.867  21.256 -0.1353  0.3287 -0.0394
19426W        W62442  25.489   4.038  26.435  0.0657 -0.0245 -0.0301
19427W        W62443   0.934  12.173  25.948  0.0383 -0.0211 -0.0928
19428W        W62444  23.110   6.478  20.075  0.1956  0.0191  0.4132
19429W        W62445  11.428  16.659  24.493  0.0972 -0.0599  0.0517
19430W        W62446  21.511   3.488  17.024 -0.0998 -0.3201 -0.2582
19431W        W62447  26.737  29.723  24.270 -0.1473 -0.0824 -0.0737
19432W        W62448  14.676  30.154   0.115 -0.4711  0.2257 -0.0462
19433W        W62449  18.622   5.364  19.767 -0.0213  0.0679  0.2310
19434W        W62450  28.194  19.209  21.056 -0.1075  0.1620 -0.2692
19435W        W62451   1.424  20.760  21.983 -0.0170  0.2413 -0.0789
19436W        W62452   7.036  24.860  17.620 -0.0515  0.1581  0.1475
19437W        W62453  12.048  18.124  26.430  0.0669  0.1187 -0.2047
19438W        W62454   0.674  11.472  25.079  0.0652  0.1538  0.0352
19439W        W62455  30.042   9.085  18.893 -0.0395  0.0117  0.2305
19440W        W62456  24.628   4.352  18.662  0.3233 -0.1279 -0.0037
19441W        W62457  16.304  26.295  18.384 -0.2875 -0.0506 -0.4123
19442W        W62458  20.939  33.527  28.067 -0.0637  0.1016 -0.3385
19443W        W62459  25.889   6.350  27.158  0.2581 -0.4151  0.6429
19444W        W62460   6.980  31.404  19.104  0.0821 -0.1126  0.0772
19445W        W62461  20.928  26.402   1.164 -0.0851 -0.2998 -0.0800
19446W        W62462   2.676  13.897  14.202 -0.0577 -0.0810  0.2392
19447W        W62463  33.301   0.161  16.386  0.3492  0.0971  0.1624
19448W        W62464   7.697  15.099  26.806 -0.7035  0.2273  0.0309
19449W        W62465  27.144  13.295  21.870  0.2135 -0.1592  0.1581
19450W        W62466  25.369  15.331  21.857 -0.2662  0.3204 -0.0487
19451W        W62467  10.600  12.502  24.977 -0.0913 -0.0095 -0.1922
19452W        W62468   0.818  15.941  16.627 -0.2205 -0.0446 -0.0109
19453W        W62469  25.565   2.671   0.601  0.3739  0.0527  0.0709
19454W        W62470  25.852  29.324  26.160  0.0679  0.1829 -0.0999
19455W        W62471  34.419   7.840  15.997  0.1851 -0.2207  0.2437
19456W        W62472   4.419  28.919  17.375  0.2754 -0.0294 -0.0250
19457W        W62473  21.106  10.590  14.026 -0.0283 -0.1115 -0.0963
19458W        W62474  20.819   6.935  17.592 -0.3397  0.1683 -0.2065
19459W        W62475  18.981  14.161  21.904 -0.1138  0.2468 -0.4483
19460W        W62476  14.785   9.840  23.035 -0.0354  0.0492  0.0688
19461W        W62477  22.234   4.646  21.788  0.2704 -0.0658  0.3881
19462W        W62478  32.447  15.585  22.316  0.1507 -0.1112 -0.0318
19463W        W62479  20.889  11.834  14.566  0.0416 -0.1107  0.1027
19464W        W62480   1.050  21.294  27.603  0.0282  0.1120  0.0741
19465W        W62481   6.987  26.981   0.692 -0.1989 -0.0286  0.0724
19466W        W62482  30.356  13.694  18.199  0.1348 -0.3593 -0.0647
19467W        W62483  18.474   8.900  16.588 -0.0138  0.0725  0.2391
19468W        W62484   0.060  33.113  25.639  0.0212  0.1239 -0.1905
19469W        W62485  18.577  12.419  13.749  0.0809 -0.0002  0.1336
19470W        W62486   1.214   4.699  17.941  0.0071  0.1307  0.1486
19471W        W62487  27.231  13.834  15.383 -0.0457  0.1877  0.1694
19472W        W62488   4.204   7.770   5.287 -0.1334  0.3391  0.1146
19473W        W62489   0.427  18.348  26.615 -0.3261 -0.0637  0.1680
19474W        W62490   1.256  14.086  15.119 -0.0153 -0.1314 -0.2718
19475W        W62491  16.722   5.152  28.670 -0.0325 -0.1585 -0.3037
19476W        W62492  27.088  32.485  26.633 -0.0740  0.0764  0.0847
19477W        W62493   3.722  13.732  14.383  0.1428  0.0888  0.0320
19478W        W62494  31.781  20.154  16.736 -0.0197  0.1008  0.1123
19479W        W62495  23.096  18.204  16.537  0.2125 -0.3203 -0.0002
19480W        W62496   2.195  22.799  18.256  0.0758  0.1686  0.0249
19481W        W62497  34.267  20.158  21.842 -0.1486 -0.1491  0.2075
19482W        W62498   9.733  16.387  20.181  0.2187  0.0728 -0.0285
19483W        W62499  27.783   6.902  17.584 -0.0369  0.0683 -0.0547
19484W        W62500  33.853  20.911   0.532 -0.1057  0.1735 -0.0332
19485W        W62501  21.128  14.756  29.019  0.0324 -0.0533 -0.3964
19486W        W62502   2.485  18.391  26.702 -0.1373 -0.0018 -0.0428
19487W        W62503   1.352  14.844  16.498 -0.2589  0.2375 -0.0420
19488W        W62504  20.644  19.139  14.455  0.2701  0.1355  0.0716
19489W        W62505   0.185  29.284  14.842 -0.1539 -0.3967 -0.0951
19490W        W62506  15.419  34.676  18.793 -0.0914 -0.0822  0.1435
19491W        W62507   6.800  22.654  15.048 -0.1597  0.1639  0.3617
19492W        W62508  30.376  23.996  15.333 -0.1258  0.3935  0.0962
19493W        W62509  24.269   3.953  17.433  0.0219 -0.0383  0.0115
19494W        W62510  22.744   5.246  20.934  0.0259  0.1020  0.3326
19495W        W62511  31.122  31.847  17.970  0.4758 -0.1279  0.1351
19496W        W62512  32.215   1.017  21.948  0.1582  0.0510  0.0030
19497W        W62513  29.979   3.849  18.015  0.0449 -0.4331 -0.2242
19498W        W62514  20.072  11.986  23.056 -0.0508  0.3613  0.2052
19499W        W62515  30.303  16.507  21.168 -0.0459  0.0062 -0.2208
19500W        W62516   0.312  27.596  10.103 -0.0908  0.0683 -0.1987
19501W        W62517  28.208   2.878  19.383  0.5261  0.1184 -0.1498
19502W        W62518  22.642  19.332  19.608 -0.2200 -0.0891 -0.2677
19503W        W62519  22.268   2.362  18.736  0.4001  0.1057  0.0373
19504W        W62520   7.883   8.972   4.385 -0.0043 -0.2890  0.2269
19505W        W62521  17.522  31.369  18.075  0.2138  0.0982  0.1323
19506W        W62522   9.217  18.014  19.755  0.0930  0.0241  0.2435
19507W        W62523   0.852  16.392   3.138 -0.0003 -0.2446  0.0515
19508W        W62524   0.143  15.283  15.108  0.1529  0.2883  0.1234
19509W        W62525  28.745   6.856  21.334 -0.4086  0.0984  0.2239
19510W        W62526  33.145  23.800  20.736  0.0422  0.2531 -0.4458
19511W        W62527  25.500  11.756  21.937 -0.0594  0.0254  0.0382
19512W        W62528  29.667  12.836  27.255  0.1064  0.0027  0.1806
19513W        W62529  16.198  18.464   0.937 -0.0067 -0.1538  0.0742
19514W        W62530  30.133  10.030   1.311  0.2167 -0.0532  0.1380
19515W        W62531  16.865   2.681  19.483 -0.5380  0.3604 -0.2063
19516W        W62532  13.684  22.976  12.932  0.2148  0.0235  0.0905
19517W        W62533  23.731   9.434  22.741  0.0199 -0.1421 -0.3514
19518W        W62534  29.425  14.569  25.972  0.1182 -0.2188  0.3080
19519W        W62535   3.230   7.548  14.583 -0.2529 -0.2901 -0.3315
19520W        W62536  15.595  13.670   6.476  0.1787  0.0074 -0.3056
19521W        W62537  23.190   1.412  23.808 -0.4312  0.0430 -0.0003
19522W        W62538   6.518   1.466  14.693 -0.1450  0.0716 -0.0611
19523W        W62539  32.583  21.233  19.824  0.3094  0.1634 -0.0150
19524W        W62540   9.969  18.366  14.634  0.0431 -0.2616 -0.2351
19525W        W62541  16.484  24.229  19.517  0.1152 -0.0845  0.2130
19526W        W62542  10.045   9.789  28.695 -0.0036 -0.1723  0.3874
19527W        W62543  32.065  22.892  21.882 -0.2136 -0.3175 -0.3797
19528W        W62544  31.074  13.379  17.866 -0.3717  0.0529 -0.1979
19529W        W62545  28.451  33.238  15.211  0.1233 -0.0086 -0.3187
19530W        W62546  28.245  31.878   3.595 -0.0538 -0.3888 -0.0473
19531W        W62547  10.202   0.280  19.138  0.1510  0.1006 -0.1487
19532W        W62548  15.101   9.228  14.314  0.1194 -0.1019  0.1989
19533W        W62549  31.184   9.906  17.882  0.1093  0.1093 -0.1702
19534W        W62550  20.324   3.992  17.641 -0.0989  0.1206  0.0600
19535W        W62551  34.124   6.381  28.666  0.2041  0.1900 -0.1480
19536W        W62552   6.789  24.334  20.281 -0.0803 -0.1912  0.2041
19537W        W62553  29.930  10.866  24.904 -0.2987  0.0651  0.1505
19538W        W62554  20.838   6.877   1.670  0.1576 -0.0283  0.1399
19539W        W62555  31.058  13.042  14.584  0.1819  0.1412  0.0069
19540W        W62556   2.897   9.591  16.718  0.0978  0.0583 -0.1145
19541W        W62557   5.827   6.887  16.944  0.2793 -0.1753  0.2164
19542W        W62558  20.222  10.341   1.609 -0.0073 -0.2592  0.1717
19543W        W62559   1.960  14.718  27.361 -0.0171 -0.2211  0.1962
19544W        W62560   9.216  15.765  25.220 -0.3392  0.1020 -0.1197
19545W        W62561  30.121  24.209  16.860 -0.3701 -0.0680 -0.1866
19546W        W62562   9.264  15.422  18.474 -0.0871  0.3930  0.0302
19547W        W62563  24.856   9.205  21.991 -0.2428  0.0241  0.0464
19548W        W62564  25.860   2.990  17.761  0.2117  0.3261  0.0072
19549W        W62565   0.982   3.604  23.765  0.0510 -0.2513  0.0079
19550W        W62566  26.813  14.056  24.634  0.4584  0.0346  0.0780
19551W        W62567  28.893  19.689   1.539  0.3910  0.1360 -0.3214
19552W        W62568  32.146   3.702  21.428 -0.1539  0.1453 -0.0369
19553W        W62569  17.969   0.970  27.500  0.1572 -0.0789 -0.2188
19554W        W62570  25.384  11.133  18.263 -0.0928 -0.1269 -0.0592
19555W        W62571  28.901   4.836  16.345 -0.0081 -0.0087 -0.0318
19556W        W62572  25.588  32.524   5.043 -0.3269 -0.1236 -0.0843
19557W        W62573  24.103  16.033  25.503 -0.2384  0.0819 -0.0157
19558W        W62574   0.979   3.727  25.800 -0.3463 -0.1453 -0.2043
19559W        W62575   5.339   2.060  25.065 -0.0878  0.2426  0.2443
19560W        W62576  24.064  10.196  15.373  0.3727  0.0011  0.1159
19561W        W62577  28.030   4.970  22.764 -0.3205  0.0374  0.1082
19562W        W62578  31.901  24.739  19.477  0.4192 -0.0991  0.1998
19563W        W62579  10.519  12.100  16.461 -0.0104 -0.2271 -0.3724
19564W        W62580   0.834  21.137  18.193  0.2242  0.0841 -0.3076
19565W        W62581  24.714  21.748  19.409 -0.2382 -0.1494 -0.0953
19566W        W62582   1.574  12.255  16.443 -0.2446 -0.3619  0.1584
19567W        W62583  24.409  31.581  19.022  0.1402 -0.1725 -0.0408
19568W        W62584  34.197   7.381  13.901  0.0328 -0.0491  0.0256
19569W        W62585  28.067  11.121  20.340  0.1049  0.0332  0.0888
19570W        W62586  16.428  33.578  21.967 -0.0966 -0.1096  0.4061
19571W        W62587  27.095  27.621  16.672  0.1744  0.2281 -0.0076
19572W        W62588   2.216  15.062  15.410  0.0797 -0.2375  0.1059
19573W        W62589  34.707   5.774  15.451 -0.1028  0.2496  0.0540
19574W        W62590   7.594  12.596  18.208  0.5036 -0.2712 -0.0352
19575W        W62591   6.950  16.950  21.669 -0.1691  0.0858 -0.0556
19576W        W62592  31.437  12.579  23.430 -0.1921 -0.1675  0.0441
19577W        W62593  16.359  18.626  15.850 -0.0843 -0.0914  0.0228
19578W        W62594   5.867  11.513  16.762 -0.0488  0.1707 -0.2522
19579W        W62595   1.542   9.730  16.438  0.2125 -0.1038  0.0722
19580W        W62596   9.900   7.909  25.272  0.0143 -0.0012 -0.3335
19581W        W62597  34.032   1.552  15.631 -0.1804 -0.1012  0.0473
19582W        W62598   9.239   4.784  16.243 -0.1916  0.0129 -0.1460
19583W        W62599  28.460  16.955  28.345  0.5119 -0.0785 -0.0281
19584W        W62600   0.133  20.468  17.065 -0.1538 -0.2802 -0.1535
19585W        W62601   2.661  12.348  16.580  0.3557 -0.2702  0.2478
19586W        W62602  33.907   5.183  21.515  0.1578 -0.0944  0.1690
19587W        W62603   8.786  20.229  22.261 -0.1161 -0.4196  0.0462
19588W        W62604  22.535  21.699  23.714 -0.3778  0.0752 -0.2185
19589W        W62605  24.327  13.107  13.833  0.3875  0.3649 -0.0065
19590W        W62606  20.733   4.279  27.497  0.2127 -0.1923  0.1864
19591W        W62607   1.762   2.374  19.928  0.3076 -0.1233 -0.3783
19592W        W62608   9.778  31.917  17.387 -0.2780 -0.1571  0.2299
19593W        W62609   0.752  14.123  16.225 -0.1103 -0.2386 -0.1542
19594W        W62610  16.155  26.696  18.553  0.0232 -0.0190 -0.3838
19595W        W62611   0.602  22.913  25.125 -0.1658 -0.0861 -0.4641
19596W        W62612  14.102  15.103  15.123 -0.2736 -0.2920 -0.0170
19597W        W62613  25.065   2.225  21.870  0.3000 -0.4775 -0.0600
19598W        W62614  25.678   1.061  20.111  0.1043 -0.1816 -0.0471
19599W        W62615  28.679   6.413   1.731 -0.1091  0.2595 -0.0019
19600W        W62616  14.907  20.557   6.443 -0.2646  0.1882 -0.2938
19601W        W62617   8.062   8.208  18.073  0.0014 -0.1360  0.0844
19602W        W62618  33.586  17.332   4.308 -0.0262 -0.0580  0.0836
19603W        W62619  18.624   6.509   1.051  0.1622 -0.0793  0.3892
19604W        W62620  28.719  13.734  14.148  0.1471 -0.1971  0.0896
19605W        W62621  24.955  27.171  15.912 -0.1431  0.2661 -0.1829
19606W        W62622   5.217   1.094  21.021  0.0825  0.1195  0.0899
19607W        W62623  24.949   7.335   1.552 -0.5617 -0.1788 -0.0728
19608W        W62624  24.334  20.410  25.064  0.1951 -0.1532  0.0014
19609W        W62625   2.439   4.409  25.602 -0.0399 -0.2297  0.0427
19610W        W62626  30.469  16.752  21.953 -0.2021 -0.0297 -0.1159
19611W        W62627  33.037  10.463  28.525 -0.0846 -0.2796 -0.0043
19612W        W62628  24.909   2.401  16.835 -0.0030 -0.1969  0.0285
19613W        W62629  13.535  32.120  20.195 -0.0601 -0.0403 -0.1281
19614W        W62630  22.958   7.275  17.515  0.1763  0.0214  0.0139
19615W        W62631  14.208   5.852  14.077 -0.1173 -0.3277  0.2624
19616W        W62632  15.108  19.323  13.749  0.0433 -0.1381  0.1225
19617W        W62633  26.041  21.331  17.879  0.1087 -0.2979 -0.0117
19618W        W62634   3.789   1.831  19.432 -0.3241 -0.2818 -0.1572
19619W        W62635  30.431  21.068  28.073  0.1907  0.0764 -0.1429
19620W        W62636   1.952  14.453  23.787 -0.4657  0.0946 -0.3014
19621W        W62637  33.693  20.956  16.858  0.0043  0.0363  0.1978
19622W        W62638  34.029  19.972  26.694  0.2134  0.1337  0.3796
19623W        W62639  22.160   3.740  17.544  0.2873 -0.3683  0.3373
19624W        W62640  25.549  20.164   3.717 -0.0408 -0.3690 -0.1252
19625W        W62641  15.755  15.387  19.461  0.0818 -0.0121 -0.0477
19626W        W62642  28.387   5.621  23.762  0.4693 -0.3008  0.1080
19627W        W62643  31.011   9.565  23.612 -0.1707 -0.1647  0.2922
19628W        W62644  34.342  16.622  16.786 -0.1601 -0.1994 -0.0550
19629W        W62645   1.870  13.386  15.774  0.0931 -0.1614 -0.1155
19630W        W62646  33.534   2.723  19.558 -0.3029 -0.1249 -0.0303
19631W        W62647  34.085  13.602  16.117  0.0610  0.2752  0.0982
19632W        W62648   3.814  10.923  22.341  0.2957 -0.3007  0.0400
19633W        W62649  34.643  15.736  15.114  0.2573  0.0092  0.2458
19634W        W62650  18.383  25.771  14.640  0.3406 -0.1413 -0.2324
19635W        W62651   6.007  33.584  18.094 -0.0434  0.3437  0.0347
19636W        W62652  29.716  17.255  20.774  0.3810  0.0297 -0.1535
19637W        W62653  19.788  23.624  13.503 -0.1796 -0.0387  0.0597
19638W        W62654  28.690  27.546  22.426 -0.3462 -0.1533 -0.0823
19639W        W62655  20.686   5.516  27.739 -0.1260  0.0011 -0.3073
19640W        W62656  28.169  12.030  14.284 -0.0790  0.1426  0.0106
19641W        W62657  16.276  19.449   1.940  0.1228  0.1513 -0.1442
19642W        W62658  28.004  17.366  25.531  0.2015  0.0205 -0.0839
19643W        W62659  19.169   5.747  15.374 -0.5083  0.0062  0.2450
19644W        W62660  18.102   8.668  24.274  0.0454  0.3787  0.1893
19645W        W62661  31.122  15.531  17.975 -0.1295  0.2839 -0.1096
19646W        W62662  24.079  21.256  16.690 -0.0851  0.1396  0.0151
19647W        W62663  11.428   8.078  27.566 -0.0108  0.0030  0.1766
19648W        W62664  12.783  11.778  22.249 -0.2658  0.2956 -0.0254
19649W        W62665   6.593  15.950  17.496  0.0410 -0.2487  0.0593
19650W        W62666   2.434  18.630   1.949 -0.1217  0.3215 -0.0242
19651W        W62667   5.295  22.817  13.838  0.0526  0.1313  0.2412
19652W        W62668  27.555   8.611  22.216 -0.4020 -0.1459 -0.0234
19653W        W62669  12.057  33.723  14.327 -0.2586  0.2130 -0.0425
19654W        W62670  22.919   1.157   1.286  0.0443 -0.0611 -0.1104
19655W        W62671  24.030  13.847  16.104 -0.3318 -0.2755 -0.0393
19656W        W62672  24.551  27.873  22.835 -0.2201  0.0244  0.4586
19657W        W62673  15.856  12.759  14.699  0.2211 -0.0883  0.0940
19658W        W62674  28.339   6.251  19.593  0.1892 -0.0746  0.0497
19659W        W62675   4.968  27.415  14.833 -0.0419  0.0544  0.2188
19660W        W62676  33.744  28.881  18.270 -0.1167 -0.0999  0.0172
19661W        W62677  28.896   7.079   1.201 -0.0403  0.0222  0.2435
19662W        W62678   4.805  30.910   1.248 -0.0901 -0.1202 -0.0033
19663W        W62679  31.607  25.028   0.235 -0.0778  0.0370  0.0037
19664W        W62680  11.580   6.112  21.703 -0.1738  0.1938  0.0158
19665W        W62681   1.461  21.789  14.546  0.0549 -0.4115 -0.0526
19666W        W62682   1.403  23.452  17.362  0.2461  0.1153  0.0378
19667W        W62683  20.475  13.502   0.780 -0.0097 -0.4215  0.0544
19668W        W62684   2.275  23.624  13.890  0.1312  0.2651  0.0010
19669W        W62685  24.071  16.197   1.744 -0.1462  0.0053  0.0772
19670W        W62686  26.849   4.970  10.521  0.2978  0.0976  0.0324
19671W        W62687  28.723  17.930  15.228 -0.1445 -0.3118 -0.2117
19672W        W62688  24.411  12.490  18.546  0.2515  0.0463  0.1895
19673W        W62689  18.112  23.858  24.018 -0.0183  0.0255 -0.2811
19674W        W62690  31.613  20.974  28.321 -0.2071  0.1792 -0.0775
19675W        W62691  28.611   4.912  22.088  0.4388  0.2146  0.3572
19676W        W62692  18.533   4.048  26.141  0.1048 -0.1070 -0.2310
19677W        W62693  20.706  22.347  14.295 -0.1350 -0.2779  0.4200
19678W        W62694  23.639  14.275  24.802  0.0282  0.1819 -0.0414
19679W        W62695  10.668  27.403  21.835  0.1820  0.3037 -0.2114
19680W        W62696  20.907  10.399  19.370  0.3910 -0.0664  0.1755
19681W        W62697  21.260   2.744  16.836 -0.0794  0.1902  0.1747
19682W        W62698  31.744   5.620  16.042 -0.2868  0.0514  0.1805
19683W        W62699  26.841  26.801  28.241 -0.0300  0.2586  0.2181
19684W        W62700   4.904  25.574  14.377  0.0019  0.1622  0.3994
19685W        W62701  22.304   4.571   5.400 -0.1731  0.1134  0.0232
19686W        W62702   2.891   5.840   0.549 -0.3798 -0.5307  0.0897
19687W        W62703  27.711   0.117  20.828 -0.1787  0.3794  0.1730
19688W        W62704  17.405   3.754  15.835  0.1992  0.1237  0.4112
19689W        W62705  14.375  14.449  13.913 -0.1578  0.2240 -0.0240
19690W        W62706   3.677   0.280   1.027 -0.0537 -0.0944 -0.1380
19691W        W62707   2.371  19.757  19.263 -0.1818  0.0162 -0.3459
19692W        W62708   1.761  17.403  27.837 -0.0078  0.0529  0.2175
19693W        W62709   6.447   1.339  18.305 -0.0056  0.1399  0.3375
19694W        W62710  15.590  17.211  13.914 -0.0097  0.1290  0.3583
19695W        W62711   2.597  21.099  15.484  0.1509  0.2930  0.0323
19696W        W62712  25.390  15.395  16.353  0.0365  0.1131  0.1239
19697W        W62713   7.077   8.326  17.959  0.1222  0.2117 -0.0592
19698W        W62714  27.604  17.337  25.847  0.0627  0.0386  0.0193
19699W        W62715   2.726  13.294  16.233 -0.1135  0.0167  0.0034
19700W        W62716  29.442  13.641  15.693  0.1583 -0.0942 -0.1724
19701W        W62717  24.722  13.092  16.715  0.0489 -0.0502  0.1037
19702W        W62718  15.327   2.485   9.537 -0.1533  0.0747 -0.1242
19703W        W62719  25.362  18.677  26.767  0.1782 -0.0784  0.0036
19704W        W62720  17.704   1.579  27.240  0.1393  0.1736 -0.1592
19705W        W62721  20.139   3.971  25.016 -0.0770  0.1191  0.2146
19706W        W62722  14.375  26.253  25.659 -0.1297 -0.1527  0.1127
19707W        W62723  22.703  10.560   2.771 -0.0156  0.0186 -0.1289
19708W        W62724  21.391  25.755  27.696 -0.1983 -0.1113  0.0929
19709W        W62725  34.743   8.647  17.253 -0.0880 -0.0875  0.2538
19710W        W62726  18.719   5.238   0.526 -0.3547 -0.0841 -0.0263
19711W        W62727  34.082  12.075  28.359 -0.0792 -0.0078 -0.1985
19712W        W62728   8.967  13.421  22.365  0.2327  0.0847 -0.1600
19713W        W62729  23.139   3.334  15.869  0.1002 -0.4854  0.0417
19714W        W62730   4.748   7.450  14.997 -0.0924  0.0631 -0.2629
19715W        W62731  23.491  23.977  21.145  0.0255 -0.3742 -0.0701
19716W        W62732  18.476  32.163   9.695 -0.1761 -0.0259  0.2304
19717W        W62733  32.969   4.506  27.446 -0.1646  0.0563 -0.0748
19718W        W62734   4.691  26.814  20.266  0.1302  0.1636  0.2441
19719W        W62735  23.406  21.423  26.759  0.0137  0.1852  0.1544
19720W        W62736  23.353  24.617  24.154 -0.2052  0.0729  0.1349
19721W        W62737   1.687   6.853   3.415 -0.3166 -0.1071  0.0026
19722W        W62738  22.310  17.147  29.108  0.1400  0.0152 -0.2150
19723W        W62739   4.403  18.930  20.425 -0.3206 -0.0163 -0.0573
19724W        W62740  31.766  21.554  20.020 -0.1819  0.0755  0.2099
19725W        W62741  26.931  19.308  18.271  0.0271 -0.0052  0.0854
19726W        W62742  22.953  29.977  16.544  0.2577  0.5113 -0.1107
19727W        W62743  19.467   3.180   0.033 -0.0013  0.1916  0.1367
19728W        W62744  14.882   8.511   5.554 -0.3161 -0.3565  0.2065
19729W        W62745  20.907  13.622  21.484 -0.2259 -0.4643 -0.3553
19730W        W62746  20.466   7.637  25.327  0.1390  0.1203 -0.2667
19731W        W62747  24.210  32.078  23.120  0.0436 -0.0101 -0.1702
19732W        W62748  16.775   0.763  23.790  0.3330  0.0241  0.0552
19733W        W62749  31.399  16.264   8.548 -0.1070  0.3908  0.0366
19734W        W62750  26.521   2.253  23.114 -0.3469 -0.1935 -0.2973
19735W        W62751  17.553   6.385  19.413 -0.3058 -0.0173 -0.1828
19736W        W62752  26.407   5.250  11.698 -0.0377 -0.1102 -0.0478
19737W        W62753  11.271  27.886  20.664  0.1815 -0.1441  0.0384
19738W        W62754  26.086  14.888  22.181  0.3968 -0.0977 -0.2235
19739W        W62755  22.408   5.442  25.655  0.1003  0.1195 -0.1328
19740W        W62756  15.023   0.213  18.810  0.2622  0.1701 -0.0084
19741W        W62757  26.705   3.984  16.041  0.0903  0.0764  0.0952
19742W        W62758  10.551  18.161  25.065  0.1305  0.0264  0.1803
19743W        W62759  33.538   4.088  22.542 -0.2630 -0.0251 -0.0933
19744W        W62760  21.610   2.815  15.522 -0.1530 -0.0032 -0.0950
19745W        W62761  26.636  13.657   5.018 -0.2803  0.2525  0.0207
19746W        W62762   6.144   5.623  17.055 -0.3492  0.1057  0.0107
19747W        W62763  20.740  31.050   2.437  0.1341  0.1480  0.0489
19748W        W62764  26.934  29.582  10.425 -0.0326  0.1985 -0.0790
19749W        W62765   0.198  21.323   4.257 -0.2199  0.0737  0.1883
19750W        W62766  29.645  31.589  11.951  0.0614  0.0128  0.4126
19751W        W62767  25.826  17.952  18.757  0.0733 -0.5490  0.0774
19752W        W62768  31.814  18.378  14.821  0.1790  0.1370  0.1299
19753W        W62769  12.049  14.535  15.706 -0.1109  0.0579 -0.1424
19754W        W62770  22.598  18.471  22.930 -0.1424  0.2918  0.0217
19755W        W62771  25.394  25.737  19.994  0.1153 -0.0366 -0.0981
19756W        W62772  29.725   2.249  17.611 -0.0335 -0.4321  0.0095
19757W        W62773  28.684   9.602  26.741  0.0646 -0.2599 -0.0748
19758W        W62774  34.238  25.994  28.125 -0.1346 -0.1993  0.0074
19759W        W62775  24.212  15.184  15.697 -0.2224 -0.4686 -0.1987
19760W        W62776  22.487  13.204  17.872  0.0062 -0.2693  0.1617
19761W        W62777  22.541   4.945  28.983 -0.0505  0.1379 -0.2955
19762W        W62778   4.120  30.105  13.857  0.0125 -0.1360  0.0663
19763W        W62779  15.775  10.999  19.418 -0.2559 -0.1061  0.3254
19764W        W62780  23.081   9.901  24.715  0.2227  0.0057 -0.1344
19765W        W62781  10.909  15.145  17.658  0.0900  0.0723 -0.0675
19766W        W62782   1.139  17.305   4.555  0.0461  0.2664  0.0316
19767W        W62783  20.699  16.359  24.679  0.1371  0.1294 -0.0821
19768W        W62784  32.083   0.512  17.050  0.1821 -0.2757 -0.2073
19769W        W62785  24.384  22.285  23.521  0.1093 -0.0718 -0.1333
19770W        W62786  26.832  13.957  19.696 -0.0670 -0.0547  0.0977
19771W        W62787  31.708  13.136  19.898  0.1679 -0.0686  0.5956
19772W        W62788   2.836  18.319  25.707  0.1135 -0.1096 -0.2538
19773W        W62789  19.903  25.141  27.090  0.0520  0.0633 -0.3006
19774W        W62790  28.942  22.827  24.425  0.0305 -0.1128  0.3025
19775W        W62791  31.549  26.499  22.602 -0.2378 -0.1930  0.1045
19776W        W62792  23.905  20.746  17.012  0.4269 -0.1203 -0.3183
19777W        W62793  23.451  29.355  24.493 -0.0907 -0.2513  0.2043
19778W        W62794  33.263  29.820  19.234  0.0405  0.3442  0.1256
19779W        W62795  29.645   9.222  24.211 -0.1620  0.1115  0.2019
19780W        W62796  14.017   4.079  15.633  0.0117  0.0877  0.0410
19781W        W62797   7.424   4.358  15.173  0.0521  0.2858 -0.1458
19782W        W62798   3.831  31.667  17.793  0.0398 -0.1258  0.1561
19783W        W62799  15.363  23.331  28.265 -0.2934  0.0621  0.1179
19784W        W62800  22.720  32.478  11.551  0.0302  0.1045 -0.0229
19785W        W62801   0.712  22.583  17.615  0.5242 -0.0378 -0.0142
19786W        W62802   0.067   3.918  19.120  0.0818  0.0696 -0.1283
19787W        W62803  20.109   3.988  18.497 -0.2667 -0.0872  0.3400
19788W        W62804   0.162   1.104  22.694 -0.2808 -0.1543 -0.1063
19789W        W62805  29.878   7.520   9.573  0.0439  0.4507 -0.3187
19790W        W62806  20.453  15.166  12.447  0.0800  0.1912  0.2392
19791W        W62807  27.350  28.648  24.348  0.4386  0.1710  0.1818
19792W        W62808   4.572  10.602  16.818 -0.0094 -0.5943 -0.1173
19793W        W62809  16.929  17.563  11.915 -0.0321 -0.2391  0.1886
19794W        W62810  24.923  33.935   5.881  0.2770 -0.2426 -0.1903
19795W        W62811  21.682  20.351  19.145  0.2637  0.2757 -0.0864
19796W        W62812  11.581   6.451  25.886 -0.0518  0.1405  0.2310
19797W        W62813  29.190  24.337  26.157  0.0566 -0.4519  0.0224
19798W        W62814  30.382  14.882  18.270  0.1443  0.0533 -0.0109
19799W        W62815  18.355  12.407  19.740 -0.0660  0.2546 -0.1391
19800W        W62816  22.162   3.409   0.890  0.0664  0.0728 -0.2209
19801W        W62817  26.905   8.017   0.026  0.1394 -0.0991 -0.3541
19802W        W62818  34.054   8.788  25.104  0.2529  0.0478  0.0440
19803W        W62819   5.020  31.092   4.193 -0.1312  0.1581  0.0372
19804W        W62820  32.828   2.864  25.152 -0.2902  0.0601  0.4075
19805W        W62821  29.919  18.207  21.235 -0.1774 -0.0778  0.0655
19806W        W62822  18.989  23.653  25.683 -0.2524  0.1113  0.4899
19807W        W62823  29.612  25.991  20.460 -0.3232  0.0557  0.0182
19808W        W62824  11.908  19.611  23.288  0.0555 -0.2378  0.0528
19809W        W62825  23.968   1.642  23.710 -0.0490 -0.2802  0.3153
19810W        W62826  20.934   8.781  14.414  0.0176 -0.3805  0.1905
19811W        W62827  20.119  21.714  19.217  0.2475  0.0084 -0.0191
19812W        W62828  24.064  16.532   3.113  0.0234  0.0023 -0.1254
19813W        W62829  20.120  24.078  26.327  0.1878  0.0059 -0.1863
19814W        W62830   2.826  21.540  14.236  0.1140  0.2299  0.1171
19815W        W62831   7.470  28.319  19.289  0.1631  0.1094  0.4013
19816W        W62832   2.388  24.175  22.446  0.3761 -0.1865 -0.3546
19817W        W62833  31.251  32.740  20.516 -0.1472  0.1274  0.1087
19818W        W62834  27.477   7.599  18.056  0.0002  0.4151  0.1351
19819W        W62835  28.129  19.574  14.993 -0.1160  0.0132 -0.3308
19820W        W62836   3.219   0.256  23.860 -0.2609 -0.2760 -0.2555
19821W        W62837  20.266   5.268  17.471  0.0828  0.0428  0.2556
19822W        W62838  26.929  29.005  20.488 -0.0399  0.0684 -0.0046
19823W        W62839  34.749   7.949  14.397 -0.2718 -0.1929 -0.1545
19824W        W62840  22.955  30.396  14.939 -0.1768 -0.1253  0.0821
19825W        W62841  26.611  28.574  19.845  0.1777  0.0533 -0.0697
19826W        W62842  13.448   9.060   8.607 -0.2534 -0.0038  0.1656
19827W        W62843  17.766  13.430  18.819  0.0083  0.4409  0.2511
19828W        W62844   8.091  11.543  21.886 -0.0152  0.1829  0.1374
19829W        W62845  23.272  13.234  26.677 -0.1758  0.3301  0.0436
19830W        W62846  33.613   4.121   2.195 -0.0805 -0.0149  0.0613
19831W        W62847  27.812  33.213   3.778 -0.1071  0.3454 -0.2186
19832W        W62848  14.545   2.610  27.127  0.0553 -0.2253 -0.2403
19833W        W62849  12.434   2.395  14.034 -0.0954 -0.1549  0.2042
19834W        W62850  21.830  22.696  19.098 -0.3375  0.2189 -0.1013
19835W        W62851   6.134  32.629  22.667 -0.2518 -0.1352  0.3130
19836W        W62852  23.378  20.630  21.051  0.0811 -0.1423 -0.0071
19837W        W62853  20.811   4.650  16.368 -0.2706  0.1128 -0.0765
19838W        W62854  25.754  24.335  19.816  0.1757  0.2064 -0.2739
19839W        W62855  34.544  20.623  16.741 -0.3994 -0.0345 -0.1862
19840W        W62856  26.778   9.015  26.965  0.1578  0.0381  0.3112
19841W        W62857   1.130  14.152   0.306  0.0838 -0.0818  0.2192
19842W        W62858  11.307  24.204  20.574  0.0195 -0.1856  0.2788
19843W        W62859  25.152  11.733   5.289  0.2210  0.1287 -0.0066
19844W        W62860  25.718  15.606  22.085  0.0696 -0.2270  0.0837
19845W        W62861  30.200  18.047   8.902  0.2670 -0.3247  0.1732
19846W        W62862   5.052  22.201  19.870  0.0071  0.0614 -0.1632
19847W        W62863  34.673  15.102  28.394 -0.3298 -0.1091 -0.0643
19848W        W62864   2.396  22.514  17.902  0.2462  0.1540  0.0562
19849W        W62865   3.023   7.788  25.916  0.2805  0.0888  0.0874
19850W        W62866  33.455   4.148  19.431  0.0632  0.0588  0.0070
19851W        W62867  28.461  11.896  27.512 -0.0967 -0.1776  0.3693
19852W        W62868  29.751   1.082  17.831  0.1074  0.1859  0.0167
19853W        W62869  34.261  16.406  22.134  0.1285  0.0686  0.1833
19854W        W62870  25.711   0.305  29.260  0.3290  0.0317 -0.0197
19855W        W62871   4.460  10.330  26.223 -0.1532  0.0692 -0.0940
19856W        W62872  22.189  26.304  16.908 -0.2957 -0.0865 -0.1562
19857W        W62873  27.401  26.783  25.462  0.1258  0.0410 -0.1750
19858W        W62874  31.747   3.867  17.249  0.1775  0.0669 -0.0724
19859W        W62875  22.805   5.215  28.073 -0.0490  0.2779 -0.2309
19860W        W62876  28.239  33.657   6.815  0.0226  0.0746 -0.4106
19861W        W62877  22.627  15.703  23.090 -0.1552  0.5160 -0.2601
19862W        W62878  31.902  23.819  28.504  0.1808 -0.2239  0.0781
19863W        W62879  28.469  23.921  27.885  0.1160  0.4179 -0.1365
19864W        W62880  29.078   6.275   5.710  0.1049 -0.0116 -0.4654
19865W        W62881   3.269  16.562  25.893 -0.0112 -0.1903  0.0432
19866W        W62882  29.443   9.808  15.048 -0.0451 -0.0396 -0.0912
19867W        W62883   8.093  19.510  27.915 -0.0566  0.0397  0.1904
19868W        W62884  31.395  12.852  14.903  0.0070  0.2093 -0.3404
19869W        W62885  25.167   6.993  19.990  0.0253 -0.0822  0.0427
19870W        W62886  10.737   5.472   3.086 -0.1860  0.2659 -0.1575
19871W        W62887  25.241  10.368  21.808  0.0236  0.0284  0.0128
19872W        W62888  23.820   7.633  14.111  0.0698 -0.1696 -0.1241
19873W        W62889   4.773  12.298  18.911  0.0159  0.0081 -0.2168
19874W        W62890   6.513  23.017  19.285 -0.1518 -0.1298  0.0745
19875W        W62891  17.910  34.156  15.630 -0.1434 -0.2833 -0.0547
19876W        W62892  32.771  17.687  25.101 -0.0071  0.2085  0.0901
19877W        W62893   2.480  22.843  24.347 -0.1307 -0.0978  0.0766
19878W        W62894   9.689  32.961  23.990  0.0221 -0.1772  0.0783
19879W        W62895  31.855   2.882  26.932 -0.0708 -0.1454  0.0165
19880W        W62896   0.318   6.049  18.636  0.1508  0.2356  0.2341
19881W        W62897  11.090  17.777  18.046 -0.0687  0.0741  0.0213
19882W        W62898   5.886  30.453  14.974  0.2025  0.0275  0.1392
19883W        W62899   2.649  31.501  17.633 -0.1664 -0.1027  0.2105
19884W        W62900  18.223   5.880  13.907 -0.3180 -0.2597  0.0886
19885W        W62901  16.572   0.926  17.530 -0.1579  0.0676  0.1239
19886W        W62902  15.651   4.423   4.113  0.1738 -0.0350 -0.0222
19887W        W62903   7.969  16.019   2.621 -0.2374  0.1135 -0.0680
19888W        W62904  30.830   5.236   1.581  0.3844 -0.0567  0.2108
19889W        W62905  17.407   2.765  26.025  0.0527 -0.2974  0.0760
19890W        W62906  23.822  12.237  16.184  0.2782  0.2507 -0.3179
19891W        W62907  33.419  12.098  20.873 -0.1004 -0.1069 -0.0176
19892W        W62908  15.501  16.887   3.100 -0.0634 -0.0892 -0.0992
19893W        W62909  29.594  12.871  14.760 -0.1699  0.1725  0.0918
19894W        W62910  24.725   1.551   1.319 -0.0084  0.0482 -0.3538
19895W        W62911  25.036  13.546  14.848 -0.0674 -0.1305  0.0704
19896W        W62912  26.601  28.475  22.187 -0.1378 -0.0063  0.1709
19897W        W62913  28.855  13.479   6.731 -0.0894  0.1024 -0.4825
19898W        W62914  25.043  33.370  25.500 -0.0500 -0.3879 -0.2459
19899W        W62915  14.348   7.527   8.191 -0.0454 -0.0660  0.1627
19900W        W62916   0.517  30.681  14.835 -0.0544  0.2332  0.3105
19901W        W62917  26.514  15.209  22.229 -0.0128 -0.1334  0.1170
19902W        W62918  31.084   8.011  20.835  0.0935 -0.0821  0.0362
19903W        W62919  34.368  28.166   0.860 -0.1007 -0.2340 -0.1238
19904W        W62920  28.234  31.049  26.264  0.0317  0.3812  0.0661
19905W        W62921  22.001  23.453  25.532  0.0440 -0.1722  0.0522
19906W        W62922  20.238  27.559   1.674  0.0138  0.2256 -0.0033
19907W        W62923  30.390  19.036  14.528  0.0708 -0.0337  0.2320
19908W        W62924  11.641   2.901  17.385 -0.2114  0.0821  0.1106
19909W        W62925  19.350  31.922  18.012  0.2500  0.0754  0.1017
19910W        W62926  21.809   5.327  22.039  0.5733 -0.1928  0.1179
19911W        W62927  10.167  13.814   4.965 -0.4714  0.0157 -0.1130
19912W        W62928  13.964   2.605  21.210 -0.3657  0.0392 -0.2215
19913W        W62929  15.475  30.544  25.807 -0.0086 -0.1829  0.2209
19914W        W62930  20.139  14.772  12.233  0.0850  0.0064  0.1929
19915W        W62931  27.538   8.178  28.195 -0.2978 -0.5080  0.0419
19916W        W62932  25.099  21.873  15.064  0.1335  0.3156  0.2159
19917W        W62933   6.579   4.475   5.679  0.1264  0.1909  0.2101
19918W        W62934   1.473  12.509   1.992 -0.0328  0.0332 -0.0157
19919W        W62935   9.731   7.870  22.562 -0.0866  0.4769 -0.0183
19920W        W62936  16.430  25.524  22.082  0.2005 -0.1833  0.2869
19921W        W62937  30.850   6.318  15.281 -0.1151  0.3747 -0.0602
19922W        W62938  29.712  34.152  18.389  0.0170 -0.1931 -0.0803
19923W        W62939  10.782   5.356  20.093 -0.0487 -0.1378  0.0699
19924W        W62940  17.226  28.766   3.071 -0.1004 -0.3328 -0.2102
19925W        W62941  26.093  14.404  14.317 -0.0006  0.0824  0.0790
19926W        W62942  26.816   9.983  19.587  0.3132  0.0960  0.1602
19927W        W62943  30.046   2.875  20.005 -0.1878 -0.1221 -0.0607
19928W        W62944   3.977  15.081  26.364  0.0918  0.3705 -0.2124
19929W        W62945  28.455  15.248  28.494  0.1620  0.1991  0.3184
19930W        W62946  21.352   8.970  26.167  0.1938  0.0211  0.2466
19931W        W62947  28.322  21.165  23.682 -0.1852 -0.0153 -0.1674
19932W        W62948  18.134   3.795  14.296 -0.1534 -0.2239  0.2380
19933W        W62949  20.522   4.974  17.862  0.1618  0.1631 -0.2930
19934W        W62950  10.668  18.699  22.657  0.1363 -0.2549  0.0820
19935W        W62951  25.001  34.025  27.522 -0.3063 -0.1122  0.2263
19936W        W62952   3.144   8.615   2.739 -0.2788 -0.0636  0.0209
19937W        W62953  24.015   6.147  18.073 -0.0917  0.0461  0.1063
19938W        W62954  34.369  15.059  16.688 -0.1629 -0.1263  0.0445
19939W        W62955  18.628   9.279  17.364  0.1842 -0.0104  0.1748
19940W        W62956   5.255  19.405  20.739 -0.2536  0.0454 -0.1668
19941W        W62957  22.055   6.524   8.881  0.1243 -0.0163  0.0547
19942W        W62958  21.515  20.562  13.238 -0.0097  0.0824  0.2467
19943W        W62959   0.769   2.513  16.932 -0.0765 -0.0055  0.3116
19944W        W62960  12.435  13.611  23.026  0.2555  0.4162  0.1788
19945W        W62961   5.098  17.369  14.828 -0.1364  0.1101  0.1742
19946W        W62962  24.014  14.969   4.473 -0.0397 -0.0067 -0.0644
19947W        W62963  29.311  14.771   3.037  0.0603 -0.2530  0.0682
19948W        W62964  20.035  24.722  25.707 -0.1256 -0.0885  0.1237
19949W        W62965  24.703  28.707  22.748  0.0375 -0.3225 -0.1402
19950W        W62966  24.626  32.401  18.960  0.1131 -0.2540  0.4274
19951W        W62967  22.944   8.071  14.627 -0.2922 -0.3230  0.1174
19952W        W62968  13.961  12.670  21.091  0.0724  0.0550 -0.2335
19953W        W62969  27.740   8.163  16.514 -0.1287  0.3349 -0.1405
19954W        W62970   3.879  10.918  14.810 -0.3172  0.1449  0.0510
19955W        W62971  27.192  34.766  23.233  0.0611  0.1120 -0.0371
19956W        W62972  17.163  10.437  25.985 -0.0994 -0.5798  0.0979
19957W        W62973  25.395  23.496  25.143 -0.1949  0.1620 -0.1067
19958W        W62974  23.893  34.222  18.411  0.1063  0.2362 -0.1739
19959W        W62975  26.619  19.293  16.757 -0.1701  0.2004  0.4234
19960W        W62976   5.463   5.759  24.302  0.1811  0.1967  0.0053
19961W        W62977   6.611  13.116  19.582 -0.2308 -0.3009  0.2823
19962W        W62978  32.261  13.699  19.978 -0.1021  0.3517 -0.0250
19963W        W62979  30.630  16.804  15.797  0.3586 -0.0249  0.1246
19964W        W62980  27.509  16.862  27.822 -0.0305 -0.2196  0.0998
19965W        W62981   5.458  19.600  14.998 -0.2067 -0.0322 -0.0010
19966W        W62982  25.450   6.253  26.900 -0.1586 -0.2582  0.0196
19967W        W62983  24.342  33.308  18.237  0.0069 -0.2452  0.0609
19968W        W62984  18.042   0.028  18.919 -0.0813  0.3899  0.0147
19969W        W62985  15.491  31.278  27.807  0.1534  0.4052 -0.1506
19970W        W62986  30.157   9.600  17.962  0.0903 -0.0036  0.0702
19971W        W62987  16.404  17.169  14.271 -0.1362 -0.2387 -0.2130
19972W        W62988   8.129   1.457  18.486  0.0891  0.1269 -0.0286
19973W        W62989  26.863  28.331  28.151 -0.0028 -0.2592 -0.0927
19974W        W62990  30.061   2.089   0.038  0.1062  0.1120 -0.0302
19975W        W62991  15.896   5.785  14.924  0.0719  0.0131 -0.1313
19976W        W62992  32.579  23.639  15.895  0.1417 -0.0612  0.0046
19977W        W62993  26.458  23.627  21.805  0.0713 -0.1445  0.0059
19978W        W62994   4.962   8.112  21.136  0.0509  0.1098  0.0367
19979W        W62995  17.439   4.022   8.033 -0.2562 -0.2069 -0.3385
19980W        W62996  24.371  33.062  22.534  0.4730 -0.1863  0.1324
19981W        W62997  27.851  21.061  27.176  0.1472  0.0566  0.0186
19982W        W62998  12.533  10.753  18.687  0.1495 -0.3635 -0.1164
19983W        W62999  25.656  14.497  20.818  0.2763  0.0095 -0.2576
19984W        W63000  11.834  23.805  23.663  0.2633 -0.0855  0.2986
19985W        W63001  31.871  30.072  16.359  0.1221  0.2039  0.2186
19986W        W63002  33.661  29.945  20.907  0.4011 -0.0339  0.0305
19987W        W63003   0.055  24.871  23.250 -0.2373 -0.0345  0.1939
19988W        W63004  26.279  12.019  24.887  0.1602  0.3360 -0.0090
19989W        W63005  27.799  29.676  25.255  0.1625  0.0771 -0.1617
19990W        W63006  23.172   1.291  16.040  0.1302  0.1538  0.1488
19991W        W63007  30.837   5.602   1.238 -0.2353 -0.0914 -0.0063
19992W        W63008  25.055  16.846  27.024 -0.0660  0.0770 -0.0141
19993W        W63009  30.727  22.883  25.686  0.2997 -0.4452 -0.0271
19994W        W63010   1.598   2.327  17.801 -0.2411 -0.0948  0.0698
19995W        W63011  22.811  13.182  21.915  0.0925  0.1224 -0.0358
19996W        W63012  23.139   3.125  23.242  0.0737  0.2281 -0.2950
19997W        W63013  20.221   7.793  28.555  0.2898 -0.1425 -0.1356
19998W        W63014  28.676   9.763  23.244 -0.0068  0.2085 -0.1384
19999W        W63015  23.451  31.442  19.472  0.0057 -0.1184  0.1127
20000W        W63016  15.396  32.934  17.987  0.5579  0.1425  0.2446
20001W        W63017  23.577  32.094  18.095  0.0689 -0.1005  0.0037
20002W        W63018  24.014  11.281   0.413  0.1121 -0.0953 -0.0672
20003W        W63019  11.397   6.314  18.226  0.4248  0.1774  0.1946
20004W        W63020   8.408  19.560  28.833 -0.0709 -0.1691  0.2008
20005W        W63021  21.176  27.905  18.131 -0.1096  0.0865 -0.0428
20006W        W63022  24.473  16.343   2.737 -0.0304  0.0687  0.0604
20007W        W63023  21.557   7.967  22.150  0.2060  0.0251  0.0437
20008W        W63024  28.158   5.584  14.903  0.2434 -0.0679 -0.0349
20009W        W63025  28.779  18.681  24.535  0.0760 -0.3206  0.1410
20010W        W63026   2.470  29.137   8.058 -0.1272 -0.2148 -0.1350
20011W        W63027  34.773   5.950  29.142 -0.0438 -0.2459  0.1220
20012W        W63028  26.391  13.207  17.624 -0.0027  0.1602 -0.0974
20013W        W63029  23.526   0.781  25.658 -0.1483 -0.0043  0.0854
20014W        W63030  25.394   5.648  25.563  0.0053  0.1997  0.3838
20015W        W63031  22.452   7.695  21.797 -0.1737 -0.0657  0.0257
20016W        W63032  19.007   6.503  15.999 -0.1373 -0.0615  0.3472
20017W        W63033  24.304  32.347  26.648  0.0713 -0.0480 -0.0077
20018W        W63034  25.750  33.905  17.371  0.0856 -0.2039 -0.2318
20019W        W63035   3.654  21.435  14.819 -0.1695 -0.1712 -0.1083
20020W        W63036  29.803  16.017  16.799  0.0100  0.1072  0.1846
20021W        W63037  13.100   6.489  29.157  0.1405  0.1101 -0.1582
20022W        W63038  11.015  19.817  16.990  0.3040 -0.1006 -0.6601
20023W        W63039  32.070  14.990  19.014  0.3356  0.0529  0.0693
20024W        W63040   3.829  20.550   3.503  0.1782 -0.0829 -0.0954
20025W        W63041   9.031  30.648  23.910  0.0859  0.1525 -0.2759
20026W        W63042  30.913   6.207  20.204 -0.0913  0.0828  0.3526
20027W        W63043  21.712  32.843   3.132 -0.3176 -0.1730 -0.2463
20028W        W63044   5.139   2.809  15.629 -0.0364 -0.0936  0.1707
20029W        W63045  22.539  21.447  15.225  0.0213  0.0975  0.0064
20030W        W63046  26.810   5.452   3.304  0.1316  0.1336  0.0737
20031W        W63047  24.336   3.248  27.520 -0.1333 -0.1248  0.4211
20032W        W63048   9.208   8.461   0.253  0.1915 -0.1891  0.1779
20033W        W63049  19.677  11.763  18.694  0.0782  0.2341 -0.1510
20034W        W63050   0.372  15.982  15.802 -0.0168  0.1022  0.0340
20035W        W63051  21.192  34.050   8.280  0.1203 -0.3251 -0.0122
20036W        W63052   2.965   1.332   3.031 -0.1083  0.1201  0.4511
20037W        W63053  31.213  23.712   6.053 -0.3552 -0.1956  0.0593
20038W        W63054  14.446  32.190   8.603  0.0454  0.0754  0.1298
20039W        W63055  18.327   2.998  14.923 -0.0174  0.0543  0.1860
20040W        W63056  25.377  11.984  18.660  0.1475 -0.1093 -0.4999
20041W        W63057  22.299   3.660  15.725 -0.0418  0.3275  0.0780
20042W        W63058  18.392   8.442  20.911 -0.1705 -0.1634  0.0875
20043W        W63059   4.510  31.795  17.583  0.0277  0.0436  0.1391
20044W        W63060  21.782   5.752  17.571  0.1628 -0.1969 -0.6171
20045W        W63061  34.013   4.610  26.789  0.1604  0.0261  0.2751
20046W        W63062  20.870  20.664  23.425 -0.1428  0.0534  0.1497
20047W        W63063  21.959   6.741  27.642 -0.0879 -0.0690 -0.0538
20048W        W63064   3.770   7.388  29.241 -0.0079  0.1639  0.2820
20049W        W63065  27.483  13.172  18.665  0.1986  0.1500 -0.0156
20050W        W63066  30.813  31.804  22.242  0.0655  0.1282  0.0166
20051W        W63067  34.723  19.878  21.359  0.1486 -0.0009  0.0560
20052W        W63068   3.821  10.251  25.470 -0.1974 -0.0449  0.1439
20053W        W63069  28.694  15.715   0.129  0.1615  0.3225 -0.2645
20054W        W63070  32.456  18.623  15.058 -0.0578  0.1862  0.3662
20055W        W63071  24.709  12.946   3.527  0.2840 -0.1727 -0.0316
20056W        W63072  18.447   7.273  17.410 -0.1146  0.2506 -0.1880
20057W        W63073  25.423   3.326  19.805  0.0281  0.1212  0.0448
20058W        W63074  17.111   1.667  28.208 -0.1294 -0.4954  0.1467
20059W        W63075  33.355  13.426  19.463  0.3368 -0.1028  0.2124
20060W        W63076  25.356   5.573   8.146  0.2847  0.0214 -0.1438
20061W        W63077  18.855  26.875  21.329  0.0193 -0.1690  0.1768
20062W        W63078  23.417  19.949  19.374  0.1326  0.1019 -0.0117
20063W        W63079  33.619  32.936  19.517 -0.0042  0.2317 -0.0066
20064W        W63080   0.128  15.109  16.761 -0.3244  0.0593  0.0423
20065W        W63081  22.018   5.509  20.727  0.1977  0.0042  0.1798
20066W        W63082  33.090   1.548  16.755 -0.1853 -0.2189 -0.1580
20067W        W63083  15.228  17.926  15.630  0.1265 -0.2085  0.2331
20068W        W63084  17.881   7.128  20.970 -0.0124 -0.1361 -0.1564
20069W        W63085  29.910  32.360   3.183 -0.0849  0.1204  0.0152
20070W        W63086  24.712   9.869  18.503 -0.6376  0.1231  0.0058
20071W        W63087  28.237  19.790   3.970 -0.1061  0.2586  0.1531
20072W        W63088   6.497   9.833  17.096 -0.1401  0.2421  0.0625
20073W        W63089  20.830  15.697  22.480 -0.0946  0.0270 -0.1046
20074W        W63090  21.827   6.684  15.032  0.2952  0.0516  0.1969
20075W        W63091  27.104  14.998   3.407 -0.0491 -0.4128 -0.1058
20076W        W63092  23.321  10.905   6.623 -0.0898 -0.0797 -0.2278
20077W        W63093  20.123   3.026   5.954  0.0805 -0.2425  0.0178
20078W        W63094  24.939  12.754  25.957 -0.2572  0.2100 -0.1060
20079W        W63095  16.747  20.857  14.475  0.0687 -0.3012  0.2270
20080W        W63096  28.464  33.341  16.722 -0.1389  0.1159 -0.0052
20081W        W63097   5.250  20.330  24.234 -0.1806 -0.3376  0.0278
20082W        W63098  20.048   6.428  24.799  0.1780 -0.0198 -0.1642
20083W        W63099  31.709  30.842  27.930  0.2132  0.0087  0.4717
20084W        W63100  10.474  16.680   5.642  0.1213 -0.2155  0.2180
20085W        W63101  17.144  34.768   0.010  0.0677  0.0752 -0.2486
20086W        W63102  31.618   2.805  21.664 -0.4562  0.1870 -0.2666
20087W        W63103  31.182  13.614  25.853 -0.1364 -0.4168  0.0579
20088W        W63104  21.691   4.373  16.642  0.2079 -0.2860 -0.1431
20089W        W63105  25.978  12.456  17.322  0.2325 -0.2054  0.1335
20090W        W63106  22.676  30.551  16.101 -0.2453  0.0922 -0.0428
20091W        W63107  14.138   4.401  16.687  0.3352 -0.0516 -0.2218
20092W        W63108  28.884  22.092   8.008 -0.3773  0.2432 -0.0773
20093W        W63109  32.215  30.172   3.349 -0.1172  0.1454 -0.1058
20094W        W63110  32.378   0.014  26.199  0.1639  0.1246 -0.1648
20095W        W63111  17.570  13.172   2.705  0.1289  0.2374 -0.3315
20096W        W63112  21.504  17.380   1.782 -0.0261 -0.0388 -0.0486
20097W        W63113  17.075  21.848  13.012  0.1592 -0.1377  0.1330
20098W        W63114  28.378  21.518  22.239 -0.0037  0.0213  0.0895
20099W        W63115   2.879  14.371  16.803  0.1395  0.1965  0.0001
20100W        W63116  20.990  17.417  20.523 -0.1001  0.0328  0.1027
20101W        W63117   3.456  24.899  25.898  0.0313 -0.2006 -0.0191
20102W        W63118  32.507  32.721   4.858  0.0894  0.1043  0.2434
20103W        W63119  22.069   9.739   1.362  0.0648 -0.3267 -0.0463
20104W        W63120   4.046  20.005   7.047 -0.0009 -0.0285  0.1811
20105W        W63121  32.391   0.635   1.601 -0.0053 -0.1825 -0.0134
20106W        W63122  16.974  33.845  22.424  0.1139 -0.1620 -0.0506
20107W        W63123  18.093  22.428  11.938  0.1241  0.0904  0.0074
20108W        W63124  14.633   6.647  20.018 -0.0146  0.0355  0.2199
20109W        W63125  16.492   6.493  14.794  0.0711  0.1440 -0.0469
20110W        W63126  30.067   8.780  22.978 -0.0077  0.1727  0.5573
20111W        W63127  28.499  33.723  24.288 -0.0326  0.0049  0.1271
20112W        W63128   3.000   1.112  18.344  0.0860 -0.2424  0.5230
20113W        W63129  31.133  17.142  18.547 -0.0419 -0.0640  0.0136
20114W        W63130  34.554  16.092  23.325  0.2899 -0.0800  0.3296
20115W        W63131  26.514  23.873  15.393  0.0693 -0.0412  0.0402
20116W        W63132   8.002  15.350   1.906 -0.1911 -0.1064  0.1243
20117W        W63133  26.637   9.249  18.974  0.1278 -0.1778  0.1449
20118W        W63134  10.830  22.768  13.171 -0.4139  0.2937 -0.0955
20119W        W63135   8.067  15.109  26.392  0.0682  0.3191 -0.1190
20120W        W63136  25.187   9.164  28.421  0.0732  0.0004 -0.1369
20121W        W63137  10.396  18.801  23.643 -0.2378  0.1440 -0.2994
20122W        W63138  17.968  34.182  22.204 -0.2353 -0.5626  0.3188
20123W        W63139  27.251  18.789  15.504  0.1141 -0.2406 -0.0378
20124W        W63140  26.645  25.273  19.443  0.1091 -0.3306 -0.1239
20125W        W63141  26.625   9.543  20.674  0.2083  0.1063  0.2272
20126W        W63142   6.265  11.207  24.419  0.0169 -0.0766 -0.0093
20127W        W63143  34.207  15.913  16.030 -0.0902  0.1686  0.0661
20128W        W63144  34.001   0.672  24.080 -0.0564 -0.0059 -0.0058
20129W        W63145  23.200  13.414  22.046  0.0033  0.1775  0.1898
20130W        W63146  26.243   8.492  22.937  0.2001 -0.1654  0.1064
20131W        W63147   1.977  15.832   4.770 -0.0285 -0.1625 -0.1016
20132W        W63148   3.883  20.611   9.155 -0.2275 -0.1275 -0.0060
20133W        W63149  25.989  14.173  24.535  0.2092 -0.0449 -0.0226
20134W        W63150  20.793   2.790  22.060 -0.2118 -0.0301  0.1418
20135W        W63151  20.301   8.032  22.908 -0.0238  0.0949 -0.1955
20136W        W63152  27.910  17.713  28.841  0.0598 -0.0827 -0.0909
20137W        W63153  33.980  11.205  22.783  0.0816  0.1143 -0.0599
20138W        W63154  19.785  25.657   2.982  0.2839  0.0618  0.0415
20139W        W63155  14.891   0.831  16.062 -0.3323 -0.0043  0.1331
20140W        W63156  31.818   4.943  24.751 -0.0004 -0.1341  0.1775
20141W        W63157  14.331  29.797  10.319 -0.0775 -0.0850 -0.0313
20142W        W63158  24.158  32.838  24.998  0.2028  0.1765  0.1292
20143W        W63159  34.514  13.113  27.902 -0.2575 -0.0953  0.0968
20144W        W63160   1.291   1.539  20.243 -0.0737  0.0694  0.2719
20145W        W63161  12.669  14.483  19.119  0.2302  0.0541 -0.0169
20146W        W63162  12.880  29.430  23.711  0.1956 -0.1270 -0.2772
20147W        W63163  25.980  17.495  26.224 -0.2049  0.0300 -0.2061
20148W        W63164  34.482   8.282   6.142 -0.0909 -0.2396  0.0604
20149W        W63165  30.820  24.200  17.372 -0.0707  0.1811  0.3193
20150W        W63166  16.147   6.467   9.086  0.2437  0.0363  0.1775
20151W        W63167   1.910   7.324  27.198  0.1336 -0.1301 -0.2192
20152W        W63168   7.688  11.035   4.644  0.3710 -0.0224  0.1482
20153W        W63169  32.141  34.142  25.220  0.0666  0.0142  0.3171
20154W        W63170   4.484  14.154  26.241 -0.1835 -0.0886  0.0337
20155W        W63171  27.438  15.526  19.065 -0.1082  0.0299  0.0478
20156W        W63172  24.746  17.164  26.307  0.0293  0.1033  0.3155
20157W        W63173  31.112   5.443  24.499  0.0965  0.0726  0.2001
20158W        W63174  18.838  20.509  21.445  0.2134  0.1635  0.0304
20159W        W63175  27.137   4.951  23.058  0.1153  0.3540  0.2990
20160W        W63176   4.964   9.745  18.458  0.1199 -0.2313  0.0243
20161W        W63177   3.201  15.290  20.596 -0.2652  0.1702  0.0303
20162W        W63178  32.345   2.207   2.131 -0.1556 -0.0972 -0.2849
20163W        W63179   5.348  28.240   9.982  0.2803  0.0524  0.1285
20164W        W63180  16.077   6.823   1.860 -0.0646  0.2127 -0.0493
20165W        W63181  22.590  22.883  18.631  0.2098  0.0847  0.1151
20166W        W63182  27.102  10.791  17.824 -0.1451  0.0210 -0.1814
20167W        W63183  22.647  14.466  27.467  0.2648  0.0768 -0.1433
20168W        W63184  23.738  32.959   5.331  0.1979 -0.1339  0.0308
20169W        W63185  21.778  17.843  21.959 -0.3119 -0.1431  0.1670
20170W        W63186  26.996   9.212  14.266 -0.1012 -0.0335 -0.2219
20171W        W63187   9.053  34.242   1.177  0.1448  0.1611  0.0163
20172W        W63188  24.931  15.704  16.831 -0.0581 -0.0850  0.1671
20173W        W63189  33.892  21.295  23.395 -0.0634  0.0142 -0.0507
20174W        W63190  23.389  16.492  25.323  0.4128  0.0828  0.4297
20175W        W63191  31.658  16.690   2.735 -0.0989  0.1480 -0.1594
20176W        W63192  14.378  12.534  16.346  0.2086 -0.1269  0.2068
20177W        W63193   5.622  11.127  28.465  0.0784  0.1361 -0.1469
20178W        W63194  22.305  16.199  20.173 -0.1499  0.1305  0.0872
20179W        W63195  11.965  11.699   3.406  0.1116  0.0294  0.2139
20180W        W63196  22.211  14.187  24.296  0.0234 -0.0772 -0.2484
20181W        W63197  23.208  31.399   2.558  0.1110 -0.0903 -0.3531
20182W        W63198   7.192   3.787  29.307  0.2797  0.1287  0.2137
20183W        W63199  31.292  26.240  27.070 -0.1281  0.4744  0.0085
20184W        W63200  28.018  20.633  10.510  0.0551 -0.1301 -0.3340
20185W        W63201   1.425  30.659   5.024  0.3037 -0.2095 -0.2759
20186W        W63202  27.306  29.948  10.582  0.0895 -0.0737  0.3608
20187W        W63203  26.636  10.446  18.839  0.2818 -0.2572  0.1699
20188W        W63204  10.933   5.709   4.796  0.1119 -0.1828  0.0826
20189W        W63205   4.514   5.097  20.428  0.0296  0.3115  0.0752
20190W        W63206  17.189  25.937  16.505 -0.2468  0.0494  0.1288
20191W        W63207  28.356  16.682  19.787 -0.0131  0.0552  0.2640
20192W        W63208  23.566  11.916  27.279  0.0381  0.0296 -0.2226
20193W        W63209  31.945  16.950  24.376 -0.2253  0.4387  0.1211
20194W        W63210  18.695   8.136  17.205  0.0259 -0.0310 -0.1295
20195W        W63211  33.168  20.619  23.533  0.0115 -0.0351 -0.2061
20196W        W63212  19.179   7.531  18.172  0.3177 -0.4369 -0.0406
20197W        W63213  18.466  32.586  19.047 -0.2120  0.0948  0.2173
20198W        W63214   5.300   0.625   4.605  0.0305  0.0370 -0.1492
20199W        W63215   0.237   1.824  24.068 -0.1639  0.1248 -0.2219
20200W        W63216  32.829  11.433  17.683  0.0228 -0.1528 -0.0688
20201W        W63217   7.369  17.517   8.706 -0.2141 -0.0505  0.0382
20202W        W63218  13.273   9.091  26.217  0.5819  0.2918 -0.1883
20203W        W63219  21.475   2.820   6.627 -0.1055 -0.1243 -0.1591
20204W        W63220  14.328  18.666  14.829  0.0384  0.0331 -0.1107
20205W        W63221  25.036   1.955   3.601 -0.1575  0.0120  0.4027
20206W        W63222   1.077   7.154   1.106  0.1011  0.0984 -0.0766
20207W        W63223  22.050  10.734   8.294  0.0587  0.0880 -0.3724
20208W        W63224   3.721  18.915  13.341  0.2531 -0.2067  0.3940
20209W        W63225  28.268   5.839  19.284 -0.2622 -0.0278  0.0687
20210W        W63226   0.566   2.092  22.362  0.1679 -0.0710 -0.4529
20211W        W63227  29.724  33.598  28.286  0.1225 -0.1254  0.5279
20212W        W63228  23.018  13.471  27.798  0.1959  0.0621  0.0428
20213W        W63229  30.846  34.306  22.367 -0.2287  0.3212  0.0320
20214W        W63230  24.938   5.600  17.118 -0.3331 -0.0169  0.0754
20215W        W63231  27.388  14.796   2.722 -0.3421 -0.0297 -0.2220
20216W        W63232  25.027   1.147   2.749  0.1507  0.1422  0.1876
20217W        W63233  21.759  12.088  19.492 -0.1607  0.0198  0.0836
20218W        W63234  28.258   8.177   3.592 -0.0514  0.0957 -0.0802
20219W        W63235   3.485  25.828   4.958  0.2024 -0.2787  0.1225
20220W        W63236  34.413   5.867  17.644 -0.1930 -0.0399 -0.0000
20221W        W63237  25.736  15.503  20.707  0.1992  0.3928 -0.2500
20222W        W63238  20.259   2.870  24.304  0.1264 -0.1920 -0.0543
20223W        W63239  22.490  34.321  27.511 -0.0555 -0.3456 -0.0724
20224W        W63240  24.869  10.345  14.443  0.0094 -0.1946  0.0772
20225W        W63241  26.990  34.115   2.980  0.3778 -0.1638 -0.2009
20226W        W63242   6.223   9.943  22.551  0.2925  0.3813 -0.0183
20227W        W63243  22.151   8.683  24.196 -0.0128  0.1526 -0.2228
20228W        W63244  28.275   2.225  25.916  0.1529  0.1812  0.0491
20229W        W63245  25.419  16.719  23.990  0.0782 -0.0173 -0.0570
20230W        W63246  20.663  32.417   2.640 -0.1010 -0.2799  0.0318
20231W        W63247  10.898   7.615  29.203 -0.0623 -0.0373 -0.1466
20232W        W63248  33.719  22.698   3.360 -0.2358 -0.1296 -0.1708
20233W        W63249  22.769  31.583  21.674 -0.1373  0.2712 -0.2336
20234W        W63250   0.240  22.061  18.319 -0.1000  0.0394 -0.1728
20235W        W63251  32.649  13.649  22.598 -0.0723  0.1647  0.3105
20236W        W63252  31.589  25.829  28.409 -0.1484 -0.2765 -0.1393
20237W        W63253   8.190  28.310  23.560 -0.1838  0.0232 -0.3088
20238W        W63254  18.374  17.733  13.897  0.2397 -0.0777  0.0812
20239W        W63255  22.322   3.236  23.633  0.0744 -0.0620  0.2230
20240W        W63256   8.016  30.366  20.893 -0.1545  0.0286  0.0829
20241W        W63257   7.439   6.594  26.557 -0.0636  0.3141  0.0591
20242W        W63258  23.986  18.725  16.661  0.0812  0.1446  0.0496
20243W        W63259  25.545   4.058  21.142  0.2809  0.0878 -0.1317
20244W        W63260  31.257  12.076   2.935 -0.0238  0.0010  0.2929
20245W        W63261  17.030   3.545  19.205  0.1843  0.2749 -0.2044
20246W        W63262  34.564   6.357  17.477  0.2742  0.0451 -0.0231
20247W        W63263  33.240   6.987  15.099 -0.0517  0.0405  0.0266
20248W        W63264  14.090   4.773  24.529  0.1248 -0.0325 -0.0335
20249W        W63265  20.718  12.399  13.361  0.0524 -0.1755 -0.1834
20250W        W63266   8.331  14.618  26.284 -0.3416  0.3482 -0.0519
20251W        W63267  28.175  10.220  21.320 -0.1872 -0.0703 -0.1056
20252W        W63268  30.403  22.548  27.981  0.2675 -0.0475  0.1899
20253W        W63269  29.955   6.364  18.955 -0.2645  0.2564  0.0615
20254W        W63270  20.520   1.494  14.807 -0.0336  0.2930  0.1653
20255W        W63271  23.424  10.619  27.691  0.0508  0.0955 -0.1052
20256W        W63272  23.597   7.330  21.762 -0.1262 -0.0744  0.0820
20257W        W63273   7.298   7.262   2.138  0.0931 -0.1551 -0.0730
20258W        W63274  20.410  28.121   6.833  0.1152 -0.0123  0.1703
20259W        W63275  31.203   2.454  17.483  0.0743 -0.0968  0.1286
20260W        W63276  17.278   4.795  21.107 -0.0026 -0.1919 -0.2884
20261W        W63277   9.244  26.721  21.065 -0.0092  0.1643 -0.0724
20262W        W63278  31.559  20.950  20.143 -0.0462 -0.2352 -0.0204
20263W        W63279  27.075  20.601  24.699  0.0025  0.1104 -0.0749
20264W        W63280  24.733  14.274  23.062  0.0117  0.1303 -0.0745
20265W        W63281  33.741   0.396  20.514  0.0912 -0.3240  0.4853
20266W        W63282  31.765   4.612  21.457  0.0799  0.1541 -0.0294
20267W        W63283  34.631  20.958  24.040  0.4071 -0.1440  0.2248
20268W        W63284   7.679   5.872  27.933  0.2655 -0.1092  0.1476
20269W        W63285  22.902  12.705  25.832  0.1005  0.0052 -0.0415
20270W        W63286  13.657  22.916  13.976  0.2734  0.1459  0.0883
20271W        W63287  24.389  32.764  25.983 -0.1841 -0.1976  0.1751
20272W        W63288   9.999  34.226  15.542  0.2071  0.1330 -0.3512
20273W        W63289  34.048  10.873  16.782  0.0470 -0.1471  0.1903
20274W        W63290  28.851   8.630  17.209 -0.0281  0.0516  0.1838
20275W        W63291  32.358  25.999  20.875  0.1297  0.3238  0.3357
20276W        W63292  21.202   5.700  20.736  0.1866 -0.0188 -0.1000
20277W        W63293  18.835  33.343   3.389 -0.0235 -0.0470  0.2599
20278W        W63294  26.552   4.264  22.477  0.0752 -0.1398  0.2241
20279W        W63295  20.806  28.115   9.383 -0.0618  0.2352 -0.4001
20280W        W63296   4.439  14.352   9.419  0.0573 -0.2890  0.0869
20281W        W63297  33.821  34.672  26.044 -0.3387  0.0816 -0.0691
20282W        W63298  25.897  32.585   1.686 -0.1540  0.0256  0.0493
20283W        W63299  31.302  15.046   5.679  0.2877  0.0345 -0.0012
20284W        W63300  30.812   8.417   1.646 -0.1546 -0.1209 -0.1660
20285W        W63301  16.876  13.822  13.658  0.0093  0.2392  0.0743
20286W        W63302  29.687  33.049  23.175 -0.0227  0.2418  0.2005
20287W        W63303  20.749   5.634  23.718  0.0725 -0.1834  0.0318
20288W        W63304  17.022   8.462  13.928  0.0215 -0.1736 -0.5225
20289W        W63305   2.054  23.637  18.428 -0.0252 -0.3807 -0.0935
20290W        W63306  26.050   8.591  20.376 -0.1248 -0.1064  0.2218
20291W        W63307  30.847  20.563  21.837 -0.2151  0.0018 -0.2386
20292W        W63308  33.022  11.946  25.333  0.1731  0.0456 -0.1568
20293W        W63309   0.991  20.686   6.023 -0.0064  0.1149 -0.0318
20294W        W63310  17.323  11.936  20.450  0.0459 -0.0602  0.0911
20295W        W63311  32.044  26.621  18.477 -0.0230 -0.1339 -0.2270
20296W        W63312  18.339  26.925  14.174  0.0457 -0.0324  0.0789
20297W        W63313  25.171   4.461  18.843  0.0386 -0.1430 -0.2037
20298W        W63314   1.500   8.252   3.431 -0.0749  0.1242 -0.2513
20299W        W63315  14.267  13.399   7.102 -0.1554 -0.1470 -0.1601
20300W        W63316  15.494  26.700  25.278 -0.4174 -0.5713  0.1828
20301W        W63317  13.743  16.378  15.192  0.0039 -0.2217 -0.1683
20302W        W63318  30.258  23.603   4.273  0.1255 -0.3072  0.1576
20303W        W63319  17.216   5.527  14.996 -0.0803 -0.1179  0.0636
20304W        W63320   9.736   4.094  16.931  0.0447  0.0191 -0.0155
20305W        W63321   5.766  28.129  20.946 -0.0983 -0.1640  0.3130
20306W        W63322  13.600   7.080   8.854  0.1731 -0.1316  0.0112
20307W        W63323   7.858  24.712  29.122 -0.2322  0.0198  0.1962
20308W        W63324   2.237   7.709  21.911 -0.3688 -0.0871 -0.1306
20309W        W63325  27.464  26.851  20.820 -0.2155 -0.0882  0.2461
20310W        W63326  16.257  17.018  16.800 -0.0247 -0.1862 -0.1288
20311W        W63327   8.839  34.678  26.563  0.0559  0.2108 -0.3182
20312W        W63328   2.385   0.543   1.346 -0.0777  0.1998 -0.1094
20313W        W63329  25.423   3.504  26.599  0.0590  0.0586  0.3632
20314W        W63330  11.766  27.853  29.098 -0.4436 -0.2023  0.2339
20315W        W63331  26.302  14.793   4.699  0.0340  0.1082 -0.1991
20316W        W63332  22.671  15.190  17.818  0.0377  0.0117 -0.1941
20317W        W63333  33.028  11.536   3.309 -0.0131 -0.1037  0.1276
20318W        W63334  20.892  11.046  19.260  0.2031 -0.1819  0.3882
20319W        W63335  16.645   6.186  27.293 -0.4038 -0.3328  0.1839
20320W        W63336  27.400  16.746  20.377 -0.0183 -0.0457  0.0409
20321W        W63337  18.864   2.975  16.059 -0.1319 -0.0409 -0.0694
20322W        W63338  17.808  26.613  23.274  0.2100  0.2994  0.1319
20323W        W63339  27.326  32.863  24.433 -0.1545  0.0011 -0.0002
20324W        W63340  27.873  22.287  26.417  0.1272 -0.0016 -0.0372
20325W        W63341  10.311  12.501   6.312 -0.2437  0.0644  0.1628
20326W        W63342  30.778   6.175  25.281  0.1111  0.3972 -0.1191
20327W        W63343  12.466   9.203  27.302 -0.2376 -0.0095  0.0305
20328W        W63344   3.041   0.787  15.973  0.2439  0.0448  0.1722
20329W        W63345  32.426   6.185  15.446 -0.1152 -0.2640 -0.1826
20330W        W63346   4.856  14.275  18.140 -0.0157  0.0304  0.0411
20331W        W63347  22.800   8.578  26.859  0.2258 -0.3115 -0.1626
20332W        W63348   0.099   9.422  23.389  0.0901  0.2653  0.0323
20333W        W63349  10.474  25.356  20.329 -0.1717  0.0281  0.0344
20334W        W63350  33.372  32.671  26.250 -0.0685 -0.2571 -0.2714
20335W        W63351  29.243   4.184  20.034  0.1724  0.0339 -0.0394
20336W        W63352   6.414  13.138  18.567  0.2632  0.2036  0.1588
20337W        W63353  29.267  30.141  23.040 -0.0085  0.0470 -0.1894
20338W        W63354  29.518  30.630  16.489  0.0622 -0.0537 -0.0098
20339W        W63355  27.137   6.317  18.143  0.0587 -0.2948 -0.1267
20340W        W63356  28.460   8.500   0.983 -0.0964 -0.0843 -0.1039
20341W        W63357  27.675  20.024  20.526 -0.3106  0.1020  0.1521
20342W        W63358  32.528   5.404   8.547 -0.1391  0.0679 -0.4216
20343W        W63359   4.660  11.860  27.487 -0.0320  0.3458  0.0675
20344W        W63360  21.417   4.971  19.278  0.1452  0.3372  0.3040
20345W        W63361   7.469  12.683  26.658 -0.1581 -0.3188  0.3119
20346W        W63362  19.933   5.289  29.243 -0.2052  0.0210  0.3136
20347W        W63363   5.672  13.640   0.405  0.1884  0.1075  0.5210
20348W        W63364   9.764  34.558   8.835  0.0391  0.0454  0.1908
20349W        W63365  28.518   5.726  25.889 -0.0882  0.1527  0.2044
20350W        W63366  21.988  18.990  17.692 -0.2738  0.1513 -0.1867
20351W        W63367  13.954   7.331   0.006  0.2385  0.1560  0.0300
20352W        W63368  21.549   7.268  17.093  0.2901  0.1136  0.2334
20353W        W63369  28.374  24.721  24.051  0.2698 -0.0635 -0.0907
20354W        W63370  30.413  31.659  20.374 -0.0804  0.0247 -0.3138
20355W        W63371  13.697   8.248  25.179 -0.1386  0.0418 -0.1488
20356W        W63372  13.684   2.700   1.023 -0.2842  0.0432  0.1897
20357W        W63373  26.189   6.735  24.269  0.0780 -0.0839 -0.1244
20358W        W63374  24.773  10.521  23.404 -0.0406  0.0622  0.2437
20359W        W63375  19.643  20.660  15.255 -0.1094  0.0446  0.1457
20360W        W63376   2.720   7.693  27.392 -0.1893 -0.1669 -0.0306
20361W        W63377  30.567   4.627   4.483  0.4400 -0.0891  0.1926
20362W        W63378  21.148   1.900  28.686  0.0126 -0.1203 -0.1438
20363W        W63379  27.592  20.114   5.880  0.0521 -0.0170 -0.0555
20364W        W63380  26.345  11.535  29.044 -0.1365 -0.1988 -0.1699
20365W        W63381  15.830   8.301   2.356 -0.3231 -0.0479 -0.1655
20366W        W63382   2.659  24.183   3.614 -0.2188 -0.2051 -0.4390
20367W        W63383  26.822   7.507  16.363 -0.0971  0.0361  0.1587
20368W        W63384  17.443  27.633   0.652 -0.4459  0.1372 -0.1147
20369W        W63385  24.010  33.555   1.956 -0.0632  0.0864  0.2457
20370W        W63386  32.153  28.118  18.701 -0.1580 -0.1476 -0.0172
20371W        W63387  15.657   1.405   6.963  0.3416  0.1644  0.2001
20372W        W63388  10.574   5.055  10.430 -0.1728 -0.3222 -0.1736
20373W        W63389  29.499  32.595   0.745 -0.5248  0.0208  0.0884
20374W        W63390  16.312  34.724  28.102  0.0031  0.1206 -0.0851
20375W        W63391  26.633  10.712  23.551  0.2880 -0.0310 -0.3794
20376W        W63392  23.389  11.866  28.316  0.0243  0.2710  0.0186
20377W        W63393  31.532  10.214  17.729 -0.2542  0.0785 -0.1321
20378W        W63394  32.137  30.656   3.199 -0.0330  0.1451  0.0645
20379W        W63395  16.062  26.336  26.004 -0.0879 -0.0414 -0.1520
20380W        W63396   0.632   0.319  22.952  0.0482 -0.1939  0.0154
20381W        W63397   8.215  32.721  15.732  0.3244 -0.3644  0.1111
20382W        W63398   3.365  15.422  28.691 -0.3299 -0.3520  0.0812
20383W        W63399   0.843  22.822  28.758  0.2023 -0.1995 -0.3038
20384W        W63400  20.348  29.056   1.614 -0.0125 -0.2757 -0.2116
20385W        W63401  33.259   7.326  26.682 -0.1758 -0.2164 -0.0089
20386W        W63402  10.400  14.332  21.458 -0.2964 -0.0117  0.0531
20387W        W63403  12.898  34.036  21.821 -0.0385 -0.1824 -0.1723
20388W        W63404  34.489   9.675   1.845 -0.0335 -0.1046  0.2381
20389W        W63405  34.241  22.603   9.013 -0.2031  0.3390 -0.3507
20390W        W63406  34.036  16.054  14.639  0.2699  0.0637 -0.2101
20391W        W63407  22.786  12.972  22.834 -0.1976  0.2131 -0.1106
20392W        W63408  33.024  33.140  27.068 -0.0184  0.2412 -0.0985
20393W        W63409  24.567  34.452  26.332  0.0091 -0.2338 -0.1747
20394W        W63410  15.141   7.524   5.766  0.2095 -0.0308  0.0649
20395W        W63411   0.698  17.925  22.249  0.0493 -0.2859  0.0335
20396W        W63412   0.380  17.681   8.158 -0.0016 -0.0943 -0.0826
20397W        W63413  15.930   2.106   0.499  0.0328 -0.1972  0.0581
20398W        W63414  25.145  17.529  18.993  0.1946 -0.1958 -0.1841
20399W        W63415  33.764  13.742  20.155  0.2769  0.1877  0.0680
20400W        W63416   3.427  16.632  21.979  0.2534  0.1217  0.0828
20401W        W63417  29.104   9.112  16.227  0.1060  0.1150 -0.3429
20402W        W63418  21.804  10.014  15.849  0.2273  0.1762 -0.0543
20403W        W63419  19.479   2.432  17.858 -0.0936 -0.1781 -0.0550
20404W        W63420  12.958   5.792  19.439  0.1612 -0.1361  0.1705
20405W        W63421  21.094  11.482   3.739  0.0827 -0.1228  0.1879
20406W        W63422  25.936  23.391  21.768  0.0024 -0.4056  0.0746
20407W        W63423  30.900  13.640  16.539  0.0286 -0.3692  0.0960
20408W        W63424  24.343  22.682  28.931 -0.0609  0.1452  0.0165
20409W        W63425  28.886   6.402  21.450  0.2245  0.2385  0.3325
20410W        W63426  34.167   2.697  15.303  0.1947  0.0048 -0.0277
20411W        W63427  25.883  32.929  24.135 -0.0587 -0.1676 -0.0409
20412W        W63428  13.913   4.016  14.152 -0.2040 -0.0399 -0.1499
20413W        W63429  32.426  15.871  22.774  0.0662  0.4786 -0.0524
20414W        W63430   1.676  33.641  15.445 -0.1002 -0.1657  0.2498
20415W        W63431  10.114  10.103   0.299 -0.1411  0.0433  0.0428
20416W        W63432  14.899  15.038   5.033  0.1635 -0.1731  0.1028
20417W        W63433  33.439   9.555  19.591 -0.4155 -0.1154  0.0804
20418W        W63434  30.832   2.271  29.187 -0.1228 -0.0819  0.1155
20419W        W63435  19.826   0.181  28.481  0.1453  0.1469  0.1199
20420W        W63436  19.621   4.950  22.502 -0.3364  0.1580 -0.0853
20421W        W63437   9.800   6.433   6.384  0.2069  0.0216 -0.0354
20422W        W63438  23.976   2.501   8.129 -0.1721 -0.4309  0.1272
20423W        W63439  29.339   3.423  23.180 -0.0710  0.0377  0.5292
20424W        W63440   7.362  10.049  28.574  0.1338  0.0142 -0.2167
20425W        W63441  19.256  34.349   4.417  0.3320 -0.1319 -0.0477
20426W        W63442  29.793   2.244  15.572  0.0529 -0.0183 -0.0962
20427W        W63443  21.493  14.808  20.458  0.0594 -0.2309 -0.0238
20428W        W63444  18.407  13.208  26.508 -0.0774 -0.1696  0.0213
20429W        W63445   4.380  25.745  22.870  0.3984 -0.1676 -0.3698
20430W        W63446   5.877  26.450  22.036  0.1637  0.2379 -0.2501
20431W        W63447  20.038  16.349   4.216 -0.0320  0.4521  0.1221
20432W        W63448  27.430  13.104   2.916  0.1025 -0.0722 -0.2527
20433W        W63449  11.896  28.411   3.096  0.1523 -0.3056 -0.2844
20434W        W63450  32.863   1.411  17.586  0.0952  0.1217 -0.1263
20435W        W63451  31.713  22.755   2.135 -0.1501  0.0956 -0.3449
20436W        W63452   5.683   4.137  19.032  0.1353 -0.2333 -0.2075
20437W        W63453  23.322  18.998  19.134 -0.1236 -0.1424 -0.0615
20438W        W63454   9.007  17.767  27.087 -0.0185  0.0437 -0.2455
20439W        W63455  28.204  17.967  16.198  0.1421 -0.0290  0.1881
20440W        W63456  20.437  14.347  19.610  0.1478 -0.0256  0.1827
20441W        W63457  22.746   6.319  16.211 -0.1709  0.0023  0.0147
20442W        W63458  27.735  26.612  17.538 -0.1282 -0.0151 -0.0118
20443W        W63459  13.662   2.440  24.537 -0.1319  0.1614  0.1581
20444W        W63460  31.975  27.808   1.342  0.2270 -0.1138  0.3903
20445W        W63461   7.658  12.715  15.317  0.0812 -0.0833  0.2952
20446W        W63462  12.723  21.778  14.664 -0.0843  0.2263 -0.0755
20447W        W63463  27.657  13.594   5.094  0.0931 -0.0470 -0.2066
20448W        W63464  18.852   8.904   0.990  0.2332 -0.3251  0.1101
20449W        W63465  34.406  23.713  19.219 -0.1137 -0.2855 -0.2249
20450W        W63466  34.056  28.185  15.366 -0.0963 -0.0913 -0.1832
20451W        W63467  23.964   2.979  18.068  0.2398 -0.2062  0.3582
20452W        W63468   1.028  18.240   1.942 -0.2516 -0.1481  0.1170
20453W        W63469  24.807  14.511  22.295  0.0055  0.2724  0.0860
20454W        W63470  12.690  24.256  25.433 -0.1157 -0.0589 -0.1820
20455W        W63471  23.645  10.418   8.203 -0.2805 -0.0020 -0.0974
20456W        W63472  23.736  11.414   5.872  0.1218 -0.1298 -0.0020
20457W        W63473  29.428  12.262  14.243  0.4144  0.3779 -0.3900
20458W        W63474  33.270  28.711  10.023  0.0908  0.0020  0.0472
20459W        W63475  17.838  10.549   0.732 -0.0183 -0.2404  0.1150
20460W        W63476  10.113  24.118  23.554  0.1911  0.0641  0.1326
20461W        W63477  28.988  22.675  19.293  0.0457  0.2807 -0.1455
20462W        W63478  26.208  13.771   4.730 -0.3241 -0.0399 -0.1336
20463W        W63479   0.292  10.759   4.766  0.1734  0.0440  0.3350
20464W        W63480  20.830   4.135  26.563 -0.0483 -0.1170 -0.0541
20465W        W63481  27.510   1.509  23.962 -0.3802  0.1036  0.1333
20466W        W63482  22.179   4.439  19.566 -0.3655  0.2622  0.1092
20467W        W63483  10.678  33.438  19.213 -0.0017 -0.0289 -0.1188
20468W        W63484  24.323  34.721   0.552 -0.2109 -0.1468  0.3203
20469W        W63485  11.031  34.698  19.846  0.0231  0.1006 -0.0136
20470W        W63486  15.972  27.984  21.690  0.1898 -0.1544 -0.0725
20471W        W63487  32.531  12.731  20.071 -0.2532  0.0847 -0.0794
20472W        W63488  24.289  16.665  28.675 -0.1356  0.2315  0.2405
20473W        W63489   9.424  11.383  22.511 -0.1296  0.4269  0.1223
20474W        W63490   0.547  11.733  28.473 -0.0614  0.1132  0.0491
20475W        W63491   5.896  32.737  25.261  0.0236  0.0485 -0.2329
20476W        W63492  30.963   7.765   2.869  0.2123 -0.2236 -0.1889
20477W        W63493  30.995  12.309  20.783 -0.2108 -0.1081 -0.0718
20478W        W63494  16.325  33.356  10.872 -0.0001 -0.4654 -0.0205
20479W        W63495  16.527   8.472   8.147 -0.3234 -0.1915  0.0861
20480W        W63496  21.641  11.568  23.886 -0.3223 -0.0999  0.0811
20481W        W63497  14.092  29.730  21.753  0.1020 -0.1848  0.1098
20482W        W63498  13.156  21.677  18.533 -0.1047 -0.1293  0.4986
20483W        W63499  29.148   9.305  18.608  0.1744  0.1621 -0.2940
20484W        W63500  26.589   7.868   2.568 -0.1490  0.2162 -0.2471
20485W        W63501  24.759  16.946  17.240  0.1822 -0.0101  0.0712
20486W        W63502  29.840   6.807  15.716 -0.0647 -0.3721  0.1628
20487W        W63503  31.179  12.947  23.614 -0.1851  0.0569 -0.1121
20488W        W63504   4.825   2.855  26.708  0.0621 -0.2518 -0.2226
20489W        W63505  34.654  15.830  24.084  0.0459  0.4234  0.1443
20490W        W63506  24.436  27.980  20.444  0.1064  0.1356 -0.1274
20491W        W63507  27.261  18.356   6.142  0.0888  0.0195 -0.0031
20492W        W63508   3.313  28.776  26.201 -0.0696 -0.1332 -0.0975
20493W        W63509  20.469  24.592  19.499  0.1698 -0.3255  0.3530
20494W        W63510  29.337   4.235  25.200 -0.0424  0.1256  0.0202
20495W        W63511  13.735  29.083  26.135 -0.1592  0.3133  0.0755
20496W        W63512   0.717  18.593  25.369 -0.3133 -0.1550  0.0768
20497W        W63513  17.537   4.351  15.638 -0.0347 -0.1124 -0.3988
20498W        W63514   1.900  17.292  19.855 -0.0547 -0.3249 -0.2778
20499W        W63515  30.142  24.056  24.116 -0.2733  0.0943 -0.1846
20500W        W63516  24.801  12.318  15.976  0.0737  0.0347 -0.1606
20501W        W63517  29.959  24.821   9.934  0.0728 -0.1302 -0.0610
20502W        W63518  23.279   1.583  25.120  0.4979 -0.2128 -0.0696
20503W        W63519  30.491  33.850  23.186 -0.1722  0.3478 -0.0367
20504W        W63520  19.977  16.152  15.031 -0.0369 -0.1786  0.0413
20505W        W63521  29.749   5.125  23.725  0.2122 -0.1772  0.0632
20506W        W63522  15.699   2.809  26.128 -0.0520  0.1823 -0.3040
20507W        W63523  33.628  15.624  14.967  0.0410 -0.2751  0.1522
20508W        W63524  29.325  11.221  20.761  0.1279  0.0461  0.1578
20509W        W63525  14.775   7.073  25.219  0.0634  0.0331  0.1031
20510W        W63526  24.012  30.063  20.906  0.3232 -0.0512  0.3761
20511W        W63527   5.133  20.623   0.866 -0.0772 -0.3490  0.0576
20512W        W63528   8.961   2.367  20.812 -0.2606  0.0773 -0.1610
20513W        W63529   4.780   9.581   0.579  0.1730  0.0538 -0.0915
20514W        W63530  14.915   1.054  14.928 -0.1458  0.2074  0.0418
20515W        W63531  24.304  29.977  14.881  0.4747  0.1325 -0.0374
20516W        W63532  23.748   4.589  21.442 -0.0911  0.2057  0.2495
20517W        W63533  21.165  19.688  23.349  0.0465  0.3015 -0.2689
20518W        W63534  19.218  14.778  26.086 -0.1195  0.1498 -0.3591
20519W        W63535  19.842  17.536  20.335 -0.0750  0.2230  0.1493
20520W        W63536   2.532  14.384  18.597 -0.1688  0.1100 -0.1249
20521W        W63537  12.971  12.054  18.808 -0.1818 -0.2736 -0.3472
20522W        W63538  15.844  34.657  20.681  0.2000 -0.0440  0.0697
20523W        W63539   3.997   3.055  20.641 -0.3146 -0.1520 -0.2156
20524W        W63540  29.231  17.228  27.846 -0.0976 -0.0745 -0.1558
20525W        W63541  11.815  13.754   0.180  0.2340 -0.0250 -0.0314
20526W        W63542   0.604   9.222  24.024 -0.1504  0.1846 -0.0901
20527W        W63543  25.297  27.358  17.855 -0.0614  0.3129  0.1622
20528W        W63544  18.872  24.299   4.101 -0.1768 -0.1265 -0.2362
20529W        W63545  27.378   8.957  16.200 -0.1107 -0.4613  0.0888
20530W        W63546  20.656  18.488  22.232 -0.0003  0.0237  0.2047
20531W        W63547  31.407  17.861  17.153  0.0836  0.0417 -0.4250
20532W        W63548  27.285  20.884  23.116 -0.0335  0.3863  0.6193
20533W        W63549  23.645  22.955  27.473 -0.4667  0.3406  0.1387
20534W        W63550  34.608  29.503   6.887  0.1140 -0.0105 -0.1400
20535W        W63551  25.171  19.842  17.299  0.1928  0.3613  0.2138
20536W        W63552   1.985  14.398  21.853 -0.2321 -0.0382 -0.1070
20537W        W63553  27.258  34.766   0.050  0.0604 -0.1127 -0.1803
20538W        W63554  12.793  27.456   2.041 -0.0739  0.0783  0.3723
20539W        W63555  23.399  27.603  25.984  0.1822 -0.0984 -0.4040
20540W        W63556  25.251  18.094   9.828  0.2967  0.0028  0.1017
20541W        W63557  21.167  24.241   1.159 -0.0715 -0.0628  0.2526
20542W        W63558  24.116  20.094  18.355 -0.2153  0.1775 -0.0091
20543W        W63559  25.931  20.527  22.769  0.0032 -0.0001  0.2231
20544W        W63560  29.941  34.487  17.098 -0.1575 -0.0278 -0.0796
20545W        W63561  23.740   3.756   6.507 -0.1624 -0.2899 -0.1200
20546W        W63562  18.139   9.506   1.779  0.0528 -0.0288  0.0387
20547W        W63563  15.978  22.071  24.584 -0.2812  0.2036 -0.0888
20548W        W63564  26.188  17.142   8.480  0.2246  0.1815  0.1521
20549W        W63565  28.938  15.694   0.596 -0.0441  0.2033 -0.0007
20550W        W63566  21.755   7.830  22.587  0.2695  0.4532  0.0001
20551W        W63567  33.645  10.475   0.275  0.1836  0.0558 -0.2199
20552W        W63568  15.799  11.151  27.660 -0.0091  0.0387  0.2537
20553W        W63569  34.042  30.043   8.036 -0.0482 -0.0044 -0.0588
20554W        W63570  13.061  20.609  16.105 -0.0218 -0.4660 -0.0842
20555W        W63571  10.549  22.655   8.283 -0.0210  0.1937 -0.1407
20556W        W63572   7.656   8.805  25.581  0.0394  0.1377  0.3440
20557W        W63573  23.287  31.443   7.744 -0.2330 -0.2772  0.1499
20558W        W63574  34.621  11.725  14.368 -0.1395  0.0194 -0.1068
20559W        W63575  22.684  24.236  16.256 -0.0936 -0.1690  0.3519
20560W        W63576   9.198   8.736   3.546  0.3887 -0.1879 -0.1695
20561W        W63577  28.321  28.824  20.815  0.2075 -0.0772  0.1326
20562W        W63578  29.554  15.977  24.188 -0.0547 -0.1841 -0.0673
20563W        W63579  32.727  19.580   3.595  0.4488 -0.1379  0.2614
20564W        W63580  32.440   2.887  10.436 -0.0689 -0.1289 -0.1313
20565W        W63581  24.831  12.987  23.817  0.1536 -0.0556  0.2607
20566W        W63582  23.274  21.561  24.793 -0.1181  0.0683  0.1764
20567W        W63583   9.332  33.244   5.730 -0.0863  0.3202  0.4228
20568W        W63584  32.397  18.047  16.352 -0.3631 -0.1655 -0.0747
20569W        W63585  18.736  15.923  23.313 -0.2072 -0.2055  0.2440
20570W        W63586   5.535   9.728   4.467  0.1797 -0.3394  0.1132
20571W        W63587   1.701  28.545   9.137 -0.0670  0.1185  0.0158
20572W        W63588  32.977  24.062  25.175 -0.4158 -0.2471  0.3261
20573W        W63589   2.767  33.846  20.709 -0.0399  0.2789  0.2943
20574W        W63590  16.189  16.101  28.096  0.0106  0.0638 -0.2955
20575W        W63591  19.855  25.224   6.174 -0.4291 -0.2017 -0.0843
20576W        W63592  20.075   2.487  18.035  0.1610  0.2411 -0.3103
20577W        W63593   4.525  12.216  24.275  0.2315 -0.4203  0.0568
20578W        W63594  28.536   2.310   4.486 -0.1148 -0.2625  0.0291
20579W        W63595  28.340   3.013  18.037  0.4153 -0.0027  0.1280
20580W        W63596  25.423  30.632   1.859  0.1640 -0.0246  0.1143
20581W        W63597  17.599   7.293  22.749 -0.2690  0.0051 -0.0574
20582W        W63598  15.629  25.242   6.501 -0.1907 -0.0554  0.1091
20583W        W63599  30.988  23.181  19.142 -0.2403  0.2148 -0.3221
20584W        W63600   7.876  29.005   0.158 -0.0265 -0.1552  0.2297
20585W        W63601  28.862  25.014  16.972 -0.1868 -0.2780 -0.3022
20586W        W63602  33.371  14.147  24.661  0.1513  0.1914 -0.2944
20587W        W63603   6.358  13.400   4.452 -0.1722  0.1133 -0.1400
20588W        W63604  30.921  10.223   5.097 -0.2286  0.0973  0.2461
20589W        W63605  16.336  17.150  26.246  0.0869 -0.0491 -0.3289
20590W        W63606   9.480   0.412  24.963  0.2535 -0.2121  0.0987
20591W        W63607   2.335  22.653  22.258  0.1955  0.1931 -0.0385
20592W        W63608  19.765  34.384  29.283 -0.1776 -0.1185  0.0660
20593W        W63609   3.413  21.065   4.327 -0.2218 -0.3302  0.1228
20594W        W63610  16.498  22.142  26.214  0.2245  0.1572 -0.4019
20595W        W63611   2.300   1.820   3.448 -0.1124 -0.1729  0.0236
20596W        W63612  27.131  22.573  16.042 -0.0587  0.0098  0.1104
20597W        W63613  27.881  13.679  19.247 -0.2249  0.0948 -0.2462
20598W        W63614   2.106  10.183   5.332  0.0519  0.0900  0.3510
20599W        W63615  14.790   7.997  16.706  0.2275 -0.0179 -0.1506
20600W        W63616   9.249  24.355   7.596  0.2364  0.0986 -0.1685
20601W        W63617  28.247   5.272   8.132  0.3837 -0.4319 -0.0440
20602W        W63618  25.512  11.737  24.431 -0.1869 -0.0502  0.1055
20603W        W63619  34.237  12.111   8.925 -0.0221 -0.1565 -0.3525
20604W        W63620  29.707  13.818  21.414  0.1173  0.1560  0.0386
20605W        W63621  33.064  12.773  15.901 -0.3858 -0.1199 -0.0274
20606W        W63622  12.411  16.291  15.829  0.0511 -0.1247 -0.1315
20607W        W63623  29.573  14.701  14.768  0.1512 -0.2905 -0.0443
20608W        W63624  27.027  30.654  19.249 -0.0746 -0.1012 -0.2123
20609W        W63625  30.341   2.797   2.021 -0.0292 -0.1317  0.0199
20610W        W63626  33.423  15.798  20.508 -0.1003  0.1597 -0.0760
20611W        W63627   5.885  15.179  14.884  0.0321  0.0780 -0.3186
20612W        W63628  32.947  15.771   7.502 -0.0433  0.0588 -0.1117
20613W        W63629  32.236  20.772   5.703  0.3913  0.0030  0.0090
20614W        W63630  19.667  17.475   3.258 -0.0769 -0.0876  0.0659
20615W        W63631  34.671  17.039  15.650 -0.0606 -0.0096  0.1339
20616W        W63632  27.968   5.214  29.298 -0.1628  0.0543 -0.0364
20617W        W63633  27.370  19.080  18.378 -0.0285 -0.3088 -0.0035
20618W        W63634  18.406  10.671  17.359  0.1137  0.0507  0.0168
20619W        W63635  32.110  19.124  25.919  0.1016 -0.0643  0.0294
20620W        W63636  33.082  23.839   2.773 -0.0572 -0.2556 -0.0329
20621W        W63637  33.160  14.101  27.945  0.2724  0.2112  0.2106
20622W        W63638  17.867  12.654   8.697 -0.0345  0.1433 -0.0429
20623W        W63639  30.848  18.038  23.953 -0.0171 -0.1497 -0.1839
20624W        W63640  13.839  11.685  23.739  0.3805  0.1510  0.0345
20625W        W63641  13.906  13.309   7.678 -0.2014 -0.0009 -0.2353
20626W        W63642  30.921  25.749  11.136  0.0803  0.2774 -0.3835
20627W        W63643  20.573   8.855   4.684 -0.1784 -0.2215  0.2240
20628W        W63644   7.988  12.465  28.569 -0.0348  0.5448  0.0064
20629W        W63645  24.530  15.885  20.490 -0.1862 -0.1976 -0.3413
20630W        W63646   3.938  10.037   6.759 -0.0026 -0.1219 -0.0335
20631W        W63647   0.304  18.240   5.190 -0.2432  0.2602  0.2062
20632W        W63648  27.630  24.458   9.663  0.5070 -0.0558  0.1356
20633W        W63649  30.290  21.262   8.844 -0.0943  0.1775  0.1102
20634W        W63650  32.277  12.923  22.011 -0.0308  0.3181 -0.0060
20635W        W63651  25.604   8.074  15.376 -0.2219 -0.1951 -0.0854
20636W        W63652  30.734   9.342  28.265  0.1179  0.2366 -0.1675
20637W        W63653  30.978  14.356   2.122 -0.1782 -0.1227 -0.2084
20638W        W63654  17.653   6.785  22.753 -0.0989  0.1536 -0.3892
20639W        W63655   7.208  21.108   3.829 -0.0707  0.0108  0.2369
20640W        W63656  22.243  11.983  17.168  0.1096  0.0730  0.1049
20641W        W63657  25.873   7.398  25.954  0.0444 -0.2083  0.0545
20642W        W63658   1.477  31.221   6.857 -0.1078 -0.0989 -0.1720
20643W        W63659   7.467  17.363  23.514 -0.1805 -0.0326  0.1462
20644W        W63660  21.188  12.444  16.216  0.1435  0.2868  0.4599
20645W        W63661  15.818   0.459  28.643 -0.1043 -0.0615  0.0074
20646W        W63662   6.402   6.654  18.821 -0.3646  0.3084 -0.0072
20647W        W63663   3.229  29.404  21.973 -0.1147  0.2251  0.0932
20648W        W63664   3.213  24.771  23.240  0.0274  0.0029  0.0730
20649W        W63665  23.091  29.599  18.484 -0.0455  0.4735 -0.3486
20650W        W63666  22.273  15.563  21.838  0.2225  0.0017  0.0225
20651W        W63667  31.409   8.779   9.246 -0.1382  0.3814  0.1830
20652W        W63668   7.321  19.492  18.033 -0.2155  0.0637  0.3700
20653W        W63669  33.135  19.099  16.862  0.0776  0.0432  0.2011
20654W        W63670   3.913   8.743  14.158  0.3069  0.0195 -0.1346
20655W        W63671  20.704  16.236   7.606  0.2787 -0.1470 -0.0084
20656W        W63672  20.521  12.483  15.261  0.1322 -0.1103 -0.1175
20657W        W63673   6.751  18.567  26.813  0.0534  0.0307 -0.2603
20658W        W63674  32.023   4.976   8.380 -0.0919  0.1605  0.0460
20659W        W63675  29.435   4.129  20.475 -0.0143  0.5015 -0.1646
20660W        W63676  29.786   7.574  19.759 -0.1102  0.2301  0.1609
20661W        W63677  22.639   5.871  26.650  0.0406 -0.1059  0.0936
20662W        W63678   4.959  10.673  28.301 -0.1252 -0.1741 -0.0407
20663W        W63679  34.426  21.829  26.455 -0.0059 -0.1294  0.1422
20664W        W63680  30.211  18.924   7.911 -0.0696 -0.0641 -0.1869
20665W        W63681  23.996   4.789  27.299 -0.1916 -0.0826 -0.2201
20666W        W63682  13.157   9.837  13.495 -0.2636  0.3475  0.0315
20667W        W63683  11.360  21.125  28.617 -0.0997 -0.2145 -0.0528
20668W        W63684  19.332  24.631   0.372 -0.1092 -0.1155 -0.0437
20669W        W63685  30.123   9.819  21.033  0.1285  0.2386 -0.0373
20670W        W63686  22.542  11.742  27.308  0.2741 -0.0801 -0.1096
20671W        W63687  11.340  15.713  18.416  0.1340  0.1534 -0.2449
20672W        W63688  21.596  31.991   2.038  0.1177  0.2317 -0.1131
20673W        W63689   2.354   9.444   2.957  0.0367 -0.0523  0.0082
20674W        W63690   1.986   7.448  15.532  0.1897  0.0784  0.1362
20675W        W63691  30.929  30.562   7.674 -0.1773 -0.0939  0.1992
20676W        W63692  25.899   4.509   9.665  0.2641  0.1440 -0.2716
20677W        W63693  21.732  24.448   6.235  0.1639 -0.0881 -0.0948
20678W        W63694  11.912  24.053  21.255  0.1389  0.0427  0.0784
20679W        W63695   6.502  14.186   3.491 -0.0497  0.3155  0.1930
20680W        W63696   3.244  19.342   9.167 -0.2700  0.1381 -0.4609
20681W        W63697  22.008  24.874  27.071 -0.3305  0.3094  0.1803
20682W        W63698   6.586  11.517   1.380  0.2139 -0.1659 -0.1162
20683W        W63699   0.942   8.859   1.155 -0.2468  0.1013  0.0888
20684W        W63700  25.662  25.788   2.937 -0.0036  0.1998  0.2889
20685W        W63701   2.963  26.534   5.931  0.0592 -0.2582 -0.4200
20686W        W63702  27.210  11.483   2.821 -0.1310  0.1596  0.0181
20687W        W63703  29.909  20.261  27.182  0.1098 -0.0145  0.3502
20688W        W63704  19.473  24.312  14.877  0.0280 -0.0144 -0.2374
20689W        W63705  25.995   5.557  28.385  0.0248  0.0757 -0.2499
20690W        W63706  22.053   5.089  21.437  0.0495 -0.2626  0.0392
20691W        W63707  23.016  10.364  15.698 -0.2178  0.0268 -0.1024
20692W        W63708  21.962  20.686  22.327 -0.1582 -0.0212 -0.1152
20693W        W63709  32.613  18.482   7.336 -0.3703 -0.2114 -0.0850
20694W        W63710   5.549  15.367  18.880 -0.1161  0.0435  0.2819
20695W        W63711   2.198  11.963   8.227  0.0521 -0.1891  0.0426
20696W        W63712  19.332  29.066  25.965  0.0335 -0.0210 -0.1500
20697W        W63713  13.859  15.767  23.666  0.0265 -0.0080 -0.2823
20698W        W63714  26.398   5.805  24.453  0.0222  0.1014  0.2003
20699W        W63715  18.523   4.792   9.748 -0.1052 -0.1782 -0.2647
20700W        W63716  30.207   3.137  20.948  0.1189  0.0280  0.1532
20701W        W63717  29.305   5.673  27.581 -0.0435 -0.1784 -0.0466
20702W        W63718  24.737  18.748   2.026  0.2124  0.1378  0.1207
20703W        W63719  20.294  34.757  28.611 -0.2409 -0.2176  0.1113
20704W        W63720  24.813   3.118  20.700  0.0068  0.0015  0.0263
20705W        W63721  32.257  19.581  26.211 -0.1729 -0.3029  0.0756
20706W        W63722  10.763  28.093  19.068  0.2099  0.0959 -0.1385
20707W        W63723   4.505  30.076  17.609 -0.1403  0.1255  0.0531
20708W        W63724   3.244  24.026  25.960 -0.0723 -0.0733 -0.0624
20709W        W63725  25.743   5.763  17.619 -0.1670  0.1149 -0.1155
20710W        W63726   4.239  26.704  23.849 -0.2509  0.1626  0.1402
20711W        W63727  15.192   3.567  19.292 -0.1447 -0.0358 -0.0190
20712W        W63728  23.745  15.096   0.636  0.1432  0.1854 -0.1827
20713W        W63729  10.136  16.672   7.572 -0.3094  0.5081  0.3170
20714W        W63730  16.058  11.133  20.102  0.1334 -0.1743  0.0030
20715W        W63731  20.029   9.885  18.705  0.0508  0.2456  0.2278
20716W        W63732  31.222  15.956  25.127 -0.0657  0.0153  0.1484
20717W        W63733  24.762   2.423  24.920  0.0854 -0.0639  0.0428
20718W        W63734  25.950  31.538   1.903  0.1207  0.1370  0.3098
20719W        W63735  15.916   7.547  27.708  0.1752 -0.0426 -0.2508
20720W        W63736   9.885  10.982  16.977 -0.1665  0.0160  0.1360
20721W        W63737   8.348  13.000   6.830 -0.0588  0.0798 -0.0688
20722W        W63738  25.721  17.213   7.583  0.3444  0.0813  0.0359
20723W        W63739  29.919  12.551   5.154 -0.1220 -0.1515 -0.1612
20724W        W63740  21.223  22.123  23.438 -0.0776  0.1697  0.0212
20725W        W63741  21.600  33.293   9.440  0.1847 -0.0384  0.0384
20726W        W63742  28.864  21.079  10.760  0.1278  0.0759 -0.0901
20727W        W63743  26.287  23.646   9.460  0.2166  0.2634 -0.1466
20728W        W63744   0.450   7.866  27.666  0.0842  0.1891 -0.2796
20729W        W63745  28.112  11.674  22.293 -0.2333 -0.1722  0.1573
20730W        W63746  15.735  18.769   0.401 -0.0037 -0.1692  0.3548
20731W        W63747  20.627   7.563  16.568 -0.1179  0.2148  0.0359
20732W        W63748  16.919  10.579   1.374 -0.2443  0.1932  0.0484
20733W        W63749   2.375  10.358   1.234  0.0198 -0.2234 -0.0222
20734W        W63750  21.722   7.385  23.482 -0.2674 -0.0063  0.0083
20735W        W63751  32.434  29.358   3.174  0.0795  0.1184  0.4029
20736W        W63752  29.213  10.717   2.651  0.1651 -0.0506  0.1994
20737W        W63753   4.680  27.250  25.212  0.0065  0.2443 -0.0586
20738W        W63754   7.246  24.993   5.725  0.3602  0.2033  0.2318
20739W        W63755  29.261  12.163   9.644 -0.4332  0.1301 -0.0033
20740W        W63756  31.546   0.741   9.141 -0.1775 -0.0436  0.0761
20741W        W63757  21.297  25.131   3.224  0.3386  0.0268  0.1635
20742W        W63758   6.495  19.459   6.336 -0.0264 -0.0198  0.3038
20743W        W63759  14.772  21.324   1.212 -0.0715  0.2424 -0.1469
20744W        W63760   2.488  17.869   5.579 -0.0539 -0.2105 -0.0432
20745W        W63761   1.393  13.104  22.750  0.3932 -0.0436  0.0065
20746W        W63762  15.045   6.258  23.446  0.2417  0.0378  0.0581
20747W        W63763   6.617  15.413   2.590 -0.3514  0.1922  0.0065
20748W        W63764  21.332  13.854  28.886 -0.2140  0.0287 -0.0059
20749W        W63765   0.663   2.484   4.373  0.0681  0.1210  0.1026
20750W        W63766  30.651   9.416   5.515  0.1385 -0.1486  0.0537
20751W        W63767   2.855   0.053  18.093  0.2519  0.2675 -0.0480
20752W        W63768   4.995   4.300  26.453  0.1101 -0.0919 -0.0958
20753W        W63769  13.125  14.483  14.151 -0.0092 -0.2685 -0.1992
20754W        W63770   7.253  13.744  13.613  0.0306  0.0413  0.1668
20755W        W63771  18.227  28.586  15.848 -0.1521 -0.0097  0.1158
20756W        W63772  26.351  31.283  23.898  0.1189  0.1959  0.1258
20757W        W63773  29.797  14.163  14.642 -0.2601  0.1746  0.1822
20758W        W63774   8.561   3.955  24.269 -0.0872 -0.2317 -0.0453
20759W        W63775   4.322   5.139  28.616  0.2398 -0.0902  0.1101
20760W        W63776  22.974  27.455   2.777  0.1955 -0.0242 -0.0749
20761W        W63777  29.677  24.339  20.931  0.2623  0.1330  0.1886
20762W        W63778  23.631   1.749   0.711  0.2452  0.3541  0.1533
20763W        W63779  24.662  13.613  14.032  0.0321 -0.3333 -0.0931
20764W        W63780  19.900   1.645  15.929 -0.0867 -0.0633  0.2786
20765W        W63781   4.113   8.680  16.443 -0.0728  0.1541 -0.0749
20766W        W63782  17.610  19.496  28.064 -0.0897  0.4564 -0.1455
20767W        W63783   0.812   9.643  27.913 -0.2967 -0.1343  0.2269
20768W        W63784   3.353   9.016   1.560 -0.2578  0.0097 -0.0148
20769W        W63785  15.153  10.952   1.032  0.2447  0.2151 -0.0351
20770W        W63786  25.783  14.309   7.497  0.0221  0.2398 -0.0810
20771W        W63787  20.576   4.102  23.192  0.5524 -0.1757 -0.2314
20772W        W63788  18.007   7.027   6.928 -0.1028 -0.0336 -0.2349
20773W        W63789   4.954  13.134  20.580  0.0807 -0.0670 -0.0603
20774W        W63790  18.466  10.740  15.255  0.1571 -0.1230 -0.0164
20775W        W63791  30.229  11.109  19.552  0.0217 -0.0213 -0.0689
20776W        W63792  23.813  22.202  22.364  0.1120 -0.1218  0.0039
20777W        W63793   3.141   7.465  20.682 -0.2523 -0.3340 -0.3202
20778W        W63794  30.035   1.755  23.423  0.0331  0.1358 -0.2027
20779W        W63795  24.989   5.194  22.669 -0.0141 -0.1768  0.0593
20780W        W63796  30.170   4.636   7.000  0.1344  0.1981  0.1987
20781W        W63797  30.931  13.628   1.837 -0.0491 -0.1440  0.2125
20782W        W63798  24.358   5.543   1.542 -0.3175  0.1524 -0.0426
20783W        W63799  15.990  12.265  16.640 -0.1308  0.0532  0.0376
20784W        W63800  12.223  29.016   4.249  0.1057 -0.2509  0.0515
20785W        W63801  17.548  21.670   8.223 -0.2564 -0.2630  0.5406
20786W        W63802   6.179  29.671  26.912 -0.1271 -0.3085  0.1780
20787W        W63803  21.787   6.935   2.579 -0.2190 -0.0217 -0.0305
20788W        W63804   7.244  17.248   7.754  0.1488 -0.2070 -0.0455
20789W        W63805  31.761  19.931   2.901  0.4557 -0.1082  0.1968
20790W        W63806  15.509  14.869   5.952 -0.1911 -0.0062 -0.0118
20791W        W63807   7.411   9.122  21.465  0.0509  0.2784 -0.3201
20792W        W63808  19.962  17.564  25.545 -0.1493 -0.3461 -0.0771
20793W        W63809  33.355   5.791  23.940  0.1364 -0.0191 -0.1715
20794W        W63810  34.366  19.272  17.835 -0.1274 -0.2002  0.0688
20795W        W63811  21.939  14.398  20.280  0.0370  0.0139  0.0120
20796W        W63812  31.324   0.853   0.336  0.1096 -0.1327 -0.6917
20797W        W63813  29.535   7.010   4.587 -0.1926 -0.0737 -0.0245
20798W        W63814  26.012  18.220  16.084  0.1731  0.1594 -0.0208
20799W        W63815   4.777   2.400   2.094 -0.1044 -0.1252 -0.1633
20800W        W63816  12.600   8.270   4.055 -0.0909  0.3214 -0.1180
20801W        W63817  17.687   4.165   5.824 -0.1693 -0.3522  0.5384
20802W        W63818  27.753  16.212  14.542 -0.0124 -0.3443  0.0428
20803W        W63819  10.371  33.883   3.464 -0.1668 -0.4447  0.0451
20804W        W63820  23.189   9.593  15.464  0.1739  0.0273  0.0861
20805W        W63821   6.135  18.733  16.192 -0.3102 -0.0983  0.0002
20806W        W63822   7.173  14.290  25.483  0.0149  0.1359 -0.1654
20807W        W63823  31.508   1.976   2.608 -0.1613 -0.2822  0.0902
20808W        W63824  27.561  18.153  18.055 -0.1364 -0.0473  0.2112
20809W        W63825  34.174  13.331  25.136 -0.0176 -0.0478 -0.1956
20810W        W63826  28.715  26.685  22.008  0.0140  0.1255  0.0364
20811W        W63827   6.221  26.179   3.815 -0.1348 -0.1142 -0.1240
20812W        W63828  17.436   1.929   8.021  0.0887  0.0003 -0.1122
20813W        W63829  24.280   9.203  16.847  0.0363  0.0738 -0.2577
20814W        W63830   8.032   3.769   6.326  0.1541 -0.1998 -0.0066
20815W        W63831  22.093   4.922   5.669  0.0329 -0.0690  0.1957
20816W        W63832  28.791  30.143  21.920  0.2957 -0.2130 -0.1599
20817W        W63833   0.217  15.574   1.605  0.2087  0.0936  0.1225
20818W        W63834  25.303  20.569  25.451 -0.4560  0.0705  0.0036
20819W        W63835  13.223  29.411   5.856  0.2246 -0.1240 -0.0788
20820W        W63836   6.299  18.412   1.658  0.1830 -0.0895  0.1802
20821W        W63837  31.032  14.471  24.816 -0.1762  0.3616  0.1315
20822W        W63838  30.650   8.152  20.601 -0.2134  0.2444  0.1464
20823W        W63839  22.674  18.372  22.149  0.2644 -0.2125  0.0630
20824W        W63840  30.284  23.789   0.311 -0.0796 -0.1103  0.1930
20825W        W63841  22.218   9.343  23.990 -0.5100  0.0300 -0.4099
20826W        W63842  20.744  25.110  15.545 -0.0562 -0.1419  0.0169
20827W        W63843  30.524  10.830   0.885 -0.0624 -0.0320  0.0706
20828W        W63844   9.481   7.498   1.337  0.1534 -0.2071  0.1241
20829W        W63845  28.881  13.285  18.229  0.2918  0.1065 -0.1453
20830W        W63846  28.068   4.617   3.456  0.0031 -0.2499 -0.0288
20831W        W63847  27.422  14.404  18.595  0.0169 -0.1607 -0.0406
20832W        W63848  15.536   5.049  18.118  0.0830  0.1219 -0.0986
20833W        W63849   3.686  16.404  22.612  0.0370 -0.2172  0.1717
20834W        W63850   2.186   9.304   0.778 -0.2365 -0.0917 -0.0498
20835W        W63851   0.719   5.488  25.680  0.0617  0.0503  0.2115
20836W        W63852   0.409  26.690  27.664  0.2524 -0.0485 -0.2130
20837W        W63853   3.676  30.323   2.001  0.1084 -0.0407 -0.3509
20838W        W63854  27.620   7.014  10.765  0.0760  0.2819  0.0141
20839W        W63855   0.087  19.748  27.528 -0.1262  0.0157 -0.0171
20840W        W63856   8.263  20.740  21.677  0.0481  0.0515 -0.0046
20841W        W63857   5.157  16.300   1.860 -0.3484  0.1084  0.2189
20842W        W63858   1.292  25.906  22.394  0.0490 -0.1709  0.0066
20843W        W63859  19.346  20.669  26.089 -0.1418 -0.0634 -0.2077
20844W        W63860   2.312  11.151   7.843  0.0787 -0.1318 -0.5013
20845W        W63861  20.078  16.183  15.516  0.0808 -0.0811  0.0727
20846W        W63862  25.728   9.696  21.046  0.2411  0.1982 -0.3453
20847W        W63863  12.381  25.448   4.531  0.1258 -0.3073  0.0773
20848W        W63864  32.824  23.245  10.244  0.0974  0.2166  0.1586
20849W        W63865  13.653   8.779   8.210  0.2699 -0.1684 -0.0168
20850W        W63866  15.802  14.700  21.527  0.2388 -0.0054  0.1507
20851W        W63867   4.574  21.851   2.753 -0.3261 -0.1131 -0.0947
20852W        W63868   6.804   3.080   8.754 -0.1667  0.4269  0.0149
20853W        W63869  33.281  34.435  18.405  0.2008 -0.6251 -0.1474
20854W        W63870   3.232   8.601  20.317  0.1769 -0.1211  0.1746
20855W        W63871  27.530  14.567  27.940  0.2961  0.4042 -0.3241
20856W        W63872  20.478  12.801  23.946 -0.0169 -0.1133 -0.0621
20857W        W63873  33.723  33.022  18.281  0.0117  0.1692 -0.1446
20858W        W63874  34.609   7.211   8.803 -0.0512 -0.2497 -0.0827
20859W        W63875  21.983   9.087  25.383  0.1843  0.1285  0.0522
20860W        W63876  29.813  30.477   0.348  0.0688 -0.0968  0.0406
20861W        W63877   6.309   9.333  17.379  0.1264  0.2553  0.3854
20862W        W63878  24.833  27.548  16.900  0.2285  0.1884 -0.0572
20863W        W63879  24.210   4.323  25.537 -0.1007  0.1946 -0.2773
20864W        W63880  33.129  23.660   0.119 -0.2336  0.0927  0.0329
20865W        W63881  31.963   6.765   1.669  0.3429 -0.4076  0.2961
20866W        W63882  21.074  19.747  27.337  0.0873 -0.1825 -0.1645
20867W        W63883  26.074   4.300  22.586 -0.1138  0.2471  0.0643
20868W        W63884  18.128  32.416  20.310  0.5249  0.0147  0.5116
20869W        W63885  30.128   4.143  24.125 -0.1664  0.0611 -0.1753
20870W        W63886  10.376  13.675  24.854 -0.1617 -0.2935  0.0194
20871W        W63887   9.699   2.612   8.937 -0.0207 -0.0568 -0.3202
20872W        W63888  33.195   3.949  28.274 -0.2171 -0.0802 -0.1053
20873W        W63889  27.206   4.677  26.374  0.1220  0.0113  0.1159
20874W        W63890  29.870  12.247  18.117  0.0373 -0.2283  0.0700
20875W        W63891   2.943  15.118  16.176  0.0754  0.0371  0.1424
20876W        W63892  15.316   0.780  22.726 -0.2743 -0.0419  0.3719
20877W        W63893   5.606   7.038  27.597 -0.0001 -0.1552  0.1688
20878W        W63894  21.607  24.197  23.289 -0.2883 -0.0997  0.0863
20879W        W63895  33.908  30.916   5.355 -0.0340  0.1405 -0.1587
20880W        W63896  23.378  31.953   7.873 -0.1184  0.1151 -0.2029
20881W        W63897  16.749  17.937  27.614  0.1307 -0.0659 -0.0258
20882W        W63898  15.002   6.779  20.730 -0.0521  0.0238 -0.1318
20883W        W63899  34.095  13.309   1.179 -0.2611  0.2033 -0.0472
20884W        W63900  29.762   9.024  22.160 -0.1085  0.3147  0.0433
20885W        W63901  10.096  11.396  21.680 -0.0713 -0.1533 -0.0539
20886W        W63902  26.205   9.766  28.292 -0.1477 -0.1026  0.1407
20887W        W63903  33.178   8.599  16.163 -0.0347  0.2896 -0.1344
20888W        W63904  14.709  27.019  22.456  0.4480 -0.3887 -0.1577
20889W        W63905  25.092   4.720  22.843  0.3658  0.1803 -0.0181
20890W        W63906  27.604  34.213   8.834  0.0833  0.1136  0.1604
20891W        W63907  27.385  15.711  21.921 -0.0510  0.1475  0.1834
20892W        W63908  16.656   7.222  20.358  0.0163 -0.5611 -0.0155
20893W        W63909  16.290   3.351  28.443 -0.2662  0.1278  0.1566
20894W        W63910  15.298  11.311  14.501 -0.0243 -0.1933  0.3909
20895W        W63911  22.971  20.327   3.022 -0.1746 -0.0023 -0.0236
20896W        W63912  29.600  13.645  18.801  0.1789  0.1163 -0.1333
20897W        W63913   4.495  17.954   5.749  0.0992 -0.1704 -0.2670
20898W        W63914  33.482   4.732  24.812  0.0071  0.4652 -0.0973
20899W        W63915  27.881   7.837  23.705  0.0542  0.3326 -0.2490
20900W        W63916  31.336  26.836  15.080  0.1531  0.0026 -0.5591
20901W        W63917  32.998   4.814  22.070 -0.2084 -0.0290 -0.3025
20902W        W63918   2.089  11.527   0.044  0.0163  0.0848 -0.0049
20903W        W63919  25.562  17.401   1.910  0.3054 -0.1191 -0.1953
20904W        W63920  17.283  13.389  28.541 -0.0585  0.2342 -0.1208
20905W        W63921   6.961  14.559   0.338  0.1236 -0.2392 -0.0599
20906W        W63922   3.128  14.739  28.003 -0.0175  0.0762 -0.1720
20907W        W63923  30.941   6.317   6.839 -0.2095 -0.2034 -0.2087
20908W        W63924  22.243   6.303  25.103 -0.0534 -0.0591  0.3194
20909W        W63925  30.712  12.574  22.785 -0.0174  0.3595 -0.0147
20910W        W63926  27.323  30.854  25.440 -0.0705 -0.0486 -0.2135
20911W        W63927  25.908  12.156   8.336 -0.1925  0.0712  0.0643
20912W        W63928  30.136  14.636   6.761 -0.1635  0.1028 -0.0329
20913W        W63929   6.217   6.250   5.393  0.1583 -0.0212 -0.1521
20914W        W63930  12.512  15.315  29.131  0.1926 -0.1656  0.0330
20915W        W63931  19.889   8.530  26.648 -0.1790  0.1246  0.1796
20916W        W63932   0.008  12.617  23.750 -0.1219  0.3355  0.1924
20917W        W63933  33.503   9.517   2.797 -0.2628 -0.1587 -0.1565
20918W        W63934  31.493  28.921  28.816 -0.2026 -0.1218  0.2138
20919W        W63935  25.489   5.056  29.017 -0.0841 -0.1408  0.3351
20920W        W63936  12.339  21.599  20.209 -0.0471 -0.3085  0.1224
20921W        W63937  25.022  32.461  24.320 -0.3112  0.1421 -0.2064
20922W        W63938  14.925   4.358  18.991  0.3160  0.1316 -0.0667
20923W        W63939   3.959   5.648  27.669 -0.2655 -0.2088 -0.2061
20924W        W63940  33.283  24.617  24.414  0.0291 -0.1673 -0.3843
20925W        W63941  28.263  18.191  21.044  0.3193 -0.1524 -0.0099
20926W        W63942   1.074  25.042  20.754 -0.0464  0.1309 -0.0328
20927W        W63943  16.684   3.465  10.361 -0.1126 -0.2884 -0.2168
20928W        W63944  22.920   9.827  26.215 -0.1768 -0.1470  0.0916
20929W        W63945   2.350   8.486  10.380 -0.2096 -0.1855  0.0104
20930W        W63946  16.102  22.385  19.675  0.3329 -0.4394  0.0786
20931W        W63947  18.728  14.337  23.586  0.2297 -0.4431 -0.0083
20932W        W63948  14.505   1.210  15.936 -0.1930 -0.0093 -0.1999
20933W        W63949   0.490  25.666  29.144  0.2785 -0.3151  0.0777
20934W        W63950  25.028   4.613   4.830 -0.1548  0.2124 -0.0792
20935W        W63951  16.238  12.396  17.166  0.1250 -0.1610  0.0483
20936W        W63952  33.640   3.045   2.987  0.0534 -0.1231 -0.2409
20937W        W63953   3.704  11.677   7.107  0.2683  0.3054 -0.0834
20938W        W63954  21.092  19.265  16.014  0.0853 -0.0336 -0.1575
20939W        W63955   9.284  25.325   7.932 -0.1302  0.3101 -0.2167
20940W        W63956  31.600  20.100   0.749  0.0739  0.0183  0.7366
20941W        W63957   6.303  19.138  25.515 -0.0051 -0.0698  0.1549
20942W        W63958   8.663  16.073   7.945  0.0021  0.4079  0.0785
20943W        W63959  23.899   4.965   7.981 -0.1621  0.1538  0.2352
20944W        W63960  12.972  34.455  18.506  0.0773 -0.1269  0.1850
20945W        W63961  25.499   5.471   3.273 -0.1243  0.1780  0.1298
20946W        W63962  21.719  16.317   4.503 -0.2977 -0.0419  0.1164
20947W        W63963  31.588  12.766  21.213 -0.1859  0.1767  0.1510
20948W        W63964  27.705   5.935  29.247  0.1349  0.2437  0.0803
20949W        W63965   7.418   3.653   2.029  0.0423  0.0058  0.0173
20950W        W63966  23.329  13.858  13.319 -0.1176  0.1681  0.2262
20951W        W63967  32.749   2.843  22.122  0.0176 -0.1539 -0.0157
20952W        W63968  29.968  16.452  16.906  0.2084 -0.1328 -0.2724
20953W        W63969  25.397  24.661  22.087 -0.2868  0.0247 -0.1272
20954W        W63970   1.102  20.335  24.794 -0.2508 -0.1989 -0.4637
20955W        W63971  30.631  14.076   7.121  0.0655  0.1082  0.0982
20956W        W63972   0.563  24.290   0.987 -0.1689 -0.0345  0.1546
20957W        W63973   0.463  28.521  25.561 -0.1857 -0.1179 -0.0973
20958W        W63974  32.425  31.418   3.926 -0.2592 -0.0509  0.0626
20959W        W63975  32.818  17.619   4.193 -0.2752  0.2413 -0.0783
20960W        W63976  19.358  18.560   3.530 -0.1067 -0.0140  0.0084
20961W        W63977  26.605   5.113  10.891 -0.1770 -0.0093 -0.1609
20962W        W63978  26.062  16.684  13.356  0.0726  0.0457  0.1134
20963W        W63979   5.351   6.220  19.475 -0.3714  0.1041 -0.0217
20964W        W63980  17.768   7.155  25.242  0.3096 -0.1061  0.1830
20965W        W63981  32.041  26.693   9.106 -0.2556  0.3102 -0.0210
20966W        W63982  18.765   3.310  24.931  0.2381 -0.0421 -0.2829
20967W        W63983  13.193  10.814   5.488 -0.2568  0.1648 -0.0538
20968W        W63984  25.984  16.076  25.059 -0.0126  0.1313 -0.3894
20969W        W63985  28.030  19.419  26.270  0.0759  0.0485 -0.0487
20970W        W63986  23.015  10.045  28.619 -0.1423  0.1315 -0.2619
20971W        W63987  10.368  17.306   4.907  0.2621 -0.1185 -0.0032
20972W        W63988  32.767  12.357  25.360 -0.2079  0.0207 -0.0285
20973W        W63989  20.715  13.186  28.404 -0.2325  0.2808  0.2993
20974W        W63990  21.060  15.889   8.384  0.0093  0.3499 -0.2892
20975W        W63991  22.279  12.401   8.899 -0.1343 -0.1029 -0.0882
20976W        W63992  20.611  29.297   7.702 -0.2015  0.2422  0.3153
20977W        W63993  28.402   5.303  18.024  0.2814  0.2837 -0.1674
20978W        W63994  16.589  31.451  28.669  0.3976  0.1397 -0.0416
20979W        W63995  21.198  11.122  18.380 -0.0205 -0.1036  0.0637
20980W        W63996  14.618  23.112   1.209  0.0236  0.0386 -0.1356
20981W        W63997  26.974   4.121  20.840  0.1794  0.2166  0.0719
20982W        W63998  23.383  14.048   4.955  0.0447 -0.1357 -0.3133
20983W        W63999   0.227  17.092   7.793 -0.0025  0.0986  0.0803
20984W        W64000  10.065  12.341   5.008  0.1941  0.2167 -0.0844
20985W        W64001  28.087   8.287  10.630 -0.3690  0.1654  0.0584
20986W        W64002  10.856   3.033   4.233 -0.1117 -0.0849  0.3195
20987W        W64003  30.832  31.606   1.042  0.0002  0.1376  0.1258
20988W        W64004  21.643  27.890   2.004  0.1462  0.0340  0.1171
20989W        W64005  31.794  28.796   6.254  0.1518  0.2984  0.1071
20990W        W64006  19.885  32.311  17.514 -0.1025 -0.0880  0.3622
20991W        W64007  33.569  11.249   3.529 -0.0457  0.3822  0.1791
20992W        W64008  29.437  20.751  27.869 -0.2210  0.2971 -0.1164
20993W        W64009  29.480  23.200   6.510  0.1552 -0.1690 -0.0132
20994W        W64010  19.856   6.561  17.804  0.0840  0.0869  0.0336
20995W        W64011   8.035  23.769  26.292 -0.2363  0.2782  0.0104
20996W        W64012  13.073   9.563  18.776  0.0782 -0.2668 -0.0692
20997W        W64013  15.552   4.690  22.561 -0.2370 -0.2148 -0.1581
20998W        W64014   3.777   5.180  29.111  0.2450  0.1184  0.0227
20999W        W64015  28.343  34.715  24.051  0.1586 -0.1715 -0.2056
21000W        W64016  23.331  21.778  18.696  0.1948 -0.1145 -0.0565
21001W        W64017  22.498   0.321   0.509 -0.0694 -0.1161  0.0364
21002W        W64018  24.202  22.903  24.487 -0.0033  0.0925  0.1363
21003W        W64019  28.766  15.430  17.932  0.0366 -0.1243 -0.2382
21004W        W64020   9.754  22.105  16.112 -0.2281  0.2628  0.0176
21005W        W64021   4.392  11.436  15.866  0.1165 -0.2065  0.1072
21006W        W64022  34.256  13.720  25.439  0.3705  0.3385  0.1480
21007W        W64023   2.945   5.593  15.090 -0.2201  0.1105 -0.0808
21008W        W64024  26.662   4.943  16.756  0.0699 -0.1540 -0.1390
21009W        W64025   1.165  24.116  18.505  0.1082  0.1391  0.4536
21010W        W64026  11.561  15.448  15.984 -0.0351 -0.2315 -0.0584
21011W        W64027  10.188  10.269  16.117  0.0954 -0.2618 -0.1741
21012W        W64028  30.941  16.740  17.192  0.2401  0.0944 -0.2132
21013W        W64029   0.928   3.110  17.015 -0.1824  0.1321 -0.2192
21014W        W64030  26.639  16.417  21.252 -0.2624  0.2635  0.2907
21015W        W64031  13.330  30.963  15.519 -0.2061 -0.1194  0.1480
21016W        W64032   0.941   5.129  21.382 -0.1706 -0.1909  0.1063
21017W        W64033   8.266  17.784  28.184  0.3307  0.0843 -0.1193
21018W        W64034  31.424   7.418  24.187  0.0587 -0.1265 -0.0926
21019W        W64035  31.915  24.447  19.030 -0.4498 -0.1176 -0.0086
21020W        W64036   4.086  25.773  26.542  0.2014 -0.1628 -0.1008
21021W        W64037  29.006  22.777  27.897 -0.0419  0.0512  0.0911
21022W        W64038  25.119   5.926  21.382  0.3379 -0.0910 -0.3449
21023W        W64039  21.183  19.990  16.516  0.0451  0.1604  0.1888
21024W        W64040  26.989  25.672  23.606 -0.1686 -0.1174  0.4816
21025W        W64041  25.449   4.827  19.072 -0.0072  0.0669 -0.4514
21026W        W64042  15.053  21.036  11.593 -0.7586  0.0696  0.1747
21027W        W64043   8.380  14.649  25.551  0.0848 -0.0665 -0.0892
21028W        W64044   9.402  12.051  24.755 -0.1131 -0.0315 -0.3190
21029W        W64045  21.270  26.166  14.194  0.3046 -0.0124  0.2090
21030W        W64046   4.341  26.712  17.055  0.0760  0.0064 -0.2215
21031W        W64047  19.537   9.201  20.193  0.1747  0.2564 -0.2006
21032W        W64048   1.210  15.722  17.238 -0.1709 -0.1920  0.1760
21033W        W64049  28.473   6.024  17.080 -0.1665  0.0539 -0.3297
21034W        W64050   6.574  22.833  26.227 -0.0132  0.1478 -0.0341
21035W        W64051   0.732  27.032  29.074  0.3465 -0.1772 -0.0026
21036W        W64052   2.460  13.019  25.332  0.2295 -0.1816  0.2567
21037W        W64053  20.685  10.129  17.538  0.4132 -0.3416 -0.2369
21038W        W64054  31.481  19.606  28.585  0.1040 -0.0828  0.0300
21039W        W64055  23.317   9.674  24.262 -0.0804 -0.2738 -0.0084
21040W        W64056  26.451  27.212   2.130  0.1737 -0.1734  0.2113
21041W        W64057  22.953   3.905  24.087 -0.1515  0.2268 -0.0904
21042W        W64058  14.920   3.038  28.154  0.0693 -0.2507 -0.1010
21043W        W64059   1.670  26.067  20.615  0.1805  0.2512  0.0083
21044W        W64060  25.356  33.511  22.889 -0.1193 -0.2148  0.1016
21045W        W64061  19.740   5.259  15.554  0.1832 -0.0584 -0.2428
21046W        W64062  30.678  21.238  23.909 -0.4796  0.1290  0.2858
21047W        W64063  13.418  25.097  28.863  0.0345 -0.0059 -0.1828
21048W        W64064  13.650   7.329  17.909 -0.1061 -0.3266 -0.0409
21049W        W64065  30.561  27.676   5.054 -0.0370 -0.0487  0.0132
21050W        W64066   9.139   8.958  21.055  0.1849 -0.1003 -0.2199
21051W        W64067   6.976  13.790  17.897 -0.1274  0.1205  0.2622
21052W        W64068  32.151  20.214   0.622 -0.2851  0.1975 -0.1019
21053W        W64069  32.011  26.655  23.224  0.1983  0.0372  0.0342
21054W        W64070  26.013   0.579  19.827  0.0553 -0.3228  0.1490
21055W        W64071   1.755  33.193  20.473  0.1979  0.0615  0.3698
21056W        W64072   8.897  20.436  18.940 -0.1754  0.1200  0.2096
21057W        W64073  20.988   8.935  17.707  0.1510 -0.4098  0.0142
21058W        W64074   3.681  23.995  22.180 -0.4266  0.4568 -0.0839
21059W        W64075  27.823  13.449  26.309  0.1288  0.0577 -0.0212
21060W        W64076   5.635  20.658   1.202  0.1243 -0.0338 -0.0067
21061W        W64077   3.598  17.994  23.357 -0.2500 -0.1923  0.0696
21062W        W64078   0.873  25.561  21.930 -0.0393  0.2026 -0.1750
21063W        W64079  21.333   7.445   0.464  0.0589  0.0864 -0.1426
21064W        W64080  10.068   8.622  26.794  0.1698 -0.0555 -0.0003
21065W        W64081  33.055  15.892  21.573  0.2563 -0.3293 -0.4048
21066W        W64082  23.820  20.855  21.176  0.2804  0.0994  0.1998
21067W        W64083  30.499  11.817  23.423  0.0655 -0.0164  0.0197
21068W        W64084  27.484  26.952  21.676 -0.0395 -0.0884  0.0701
21069W        W64085  34.311  11.586  21.684 -0.0361  0.0592  0.1290
21070W        W64086  26.531  13.539  22.034 -0.0841 -0.1441 -0.0414
21071W        W64087  21.503  28.997  27.111  0.3684  0.1190 -0.3763
21072W        W64088  11.610  26.689  23.754  0.0213 -0.1339 -0.3247
21073W        W64089  18.657  15.845  24.817 -0.0360 -0.0275 -0.1463
21074W        W64090  22.847  17.980  14.018  0.0445  0.1768  0.0460
21075W        W64091  34.112  15.274  19.428  0.2057  0.0207  0.1122
21076W        W64092  29.570  14.809  23.546 -0.2116  0.0313  0.3332
21077W        W64093  20.557  11.964  27.996 -0.2251  0.0981  0.2602
21078W        W64094  22.807  23.779  28.715  0.0839  0.4407  0.2380
21079W        W64095  29.864   3.547  15.743  0.1466 -0.4356  0.2237
21080W        W64096  31.251  18.031  14.955  0.0386  0.2101  0.0023
21081W        W64097   0.391  28.232  25.991 -0.0851  0.1018 -0.2085
21082W        W64098  13.776   8.679  19.693  0.4392 -0.2500 -0.0202
21083W        W64099  32.198  21.571  15.384  0.0817  0.2116 -0.1477
21084W        W64100  30.222  28.811  21.670 -0.1027 -0.2196 -0.2363
21085W        W64101   1.036  20.798  15.425  0.2311  0.5217 -0.2298
21086W        W64102   6.843  14.765  21.339  0.3047 -0.1012 -0.0732
21087W        W64103  28.376   0.817  19.638 -0.0797  0.0372  0.0512
21088W        W64104  27.527  13.501  20.382 -0.0195  0.0041  0.1271
21089W        W64105  13.873  22.111  12.539  0.0115 -0.0422  0.1972
21090W        W64106  20.835  18.759  25.368 -0.5024  0.0441  0.2006
21091W        W64107  26.164   5.939   6.532  0.1698  0.1513 -0.1633
21092W        W64108  33.874  22.735  14.031  0.4786  0.0503 -0.1954
21093W        W64109  25.205   4.968  20.527 -0.2496  0.3116 -0.6540
21094W        W64110  18.684  16.022  20.488 -0.2497 -0.0975 -0.1274
21095W        W64111  20.828  13.249  13.876 -0.0187 -0.2505  0.0480
21096W        W64112   6.123   9.131  26.715 -0.2941  0.1286 -0.1596
21097W        W64113  23.220  28.397  15.504  0.1724  0.2013  0.0186
21098W        W64114  27.743  21.997  18.282 -0.1357  0.0317  0.0647
21099W        W64115  29.071  13.055  14.756 -0.0989  0.1854 -0.2938
21100W        W64116  12.793  25.259  20.683 -0.0912  0.0807 -0.1145
21101W        W64117  20.445  10.783  21.696  0.2502 -0.0402 -0.0709
21102W        W64118  15.868   1.064  23.572 -0.0537  0.1488  0.0167
21103W        W64119  10.578  30.942  22.294  0.0175  0.3198 -0.0244
21104W        W64120  21.847  29.630  17.337 -0.0186  0.0145 -0.1244
21105W        W64121  11.810  27.494   5.547  0.0571  0.0488 -0.0690
21106W        W64122   6.315  11.851  16.756  0.1564  0.1698 -0.0165
21107W        W64123  16.826  27.782  16.349  0.0155  0.1272 -0.0759
21108W        W64124  31.967  21.475  21.359 -0.1603  0.2655  0.0741
21109W        W64125  30.340   6.481  18.056  0.0080 -0.2485 -0.2040
21110W        W64126  22.695   7.282  18.839  0.1907  0.0166 -0.1702
21111W        W64127  26.920  22.533  27.989  0.1423 -0.0615 -0.1194
21112W        W64128   9.305  27.230   1.665 -0.2010 -0.3102 -0.2320
21113W        W64129  11.734  11.374  23.990 -0.2655 -0.2618 -0.0973
21114W        W64130  31.385  22.407  22.477 -0.0390 -0.1637 -0.4074
21115W        W64131  12.687  23.518  24.425 -0.2908 -0.1546  0.0219
21116W        W64132  13.833  10.137  17.325  0.1372 -0.1206  0.0771
21117W        W64133   5.430  16.839  13.799  0.0067  0.0018 -0.2557
21118W        W64134   2.345   1.411  24.427  0.0133 -0.1986  0.2649
21119W        W64135   0.181   5.518  18.555  0.2350 -0.1138  0.0074
21120W        W64136   4.451   5.844  15.906 -0.0314 -0.0707 -0.1009
21121W        W64137  31.842  29.986   1.315  0.3335 -0.0665  0.1744
21122W        W64138   3.856   4.204  27.374  0.0729 -0.1233 -0.0288
21123W        W64139  15.972   5.871  26.058 -0.0371 -0.0860 -0.0107
21124W        W64140  22.695  12.802  21.029 -0.2780  0.0403  0.0043
21125W        W64141  27.070  19.528   3.122  0.0997  0.1752  0.0788
21126W        W64142  23.676  18.241  22.791 -0.5485  0.1445  0.0167
21127W        W64143  27.303   7.856  18.679  0.1517 -0.1656  0.0489
21128W        W64144  32.539  21.401  18.106  0.0706  0.0125 -0.1216
21129W        W64145  31.305   6.759   0.794  0.2280 -0.5357 -0.1455
21130W        W64146   3.373  31.314   1.541  0.0094  0.4011  0.1543
21131W        W64147  32.182  30.189  28.714 -0.3281  0.2605 -0.1956
21132W        W64148  21.267  10.693  19.051 -0.1519  0.3306 -0.0781
21133W        W64149   6.349   3.697   9.250 -0.0157 -0.0063 -0.0227
21134W        W64150  12.494   4.324  20.527 -0.1472 -0.1579  0.0062
21135W        W64151  33.081  32.560  17.803 -0.2432 -0.2535  0.2455
21136W        W64152   9.988   1.545  23.106  0.3774 -0.0371  0.1755
21137W        W64153  27.434  28.985  21.752 -0.0892 -0.0000 -0.1514
21138W        W64154  28.935   8.347  19.760  0.0819 -0.1828 -0.2149
21139W        W64155  23.394  30.229  24.129 -0.0795 -0.0252 -0.0189
21140W        W64156   0.500  16.121   0.230  0.0479 -0.1571  0.1974
21141W        W64157  21.370  13.174  14.017  0.3148  0.2778  0.2213
21142W        W64158  34.288  11.755   1.859  0.0361  0.0126  0.2680
21143W        W64159  29.110   1.278  16.775  0.1054  0.1435  0.2952
21144W        W64160  24.002  34.076  19.299 -0.2550  0.1379 -0.1293
21145W        W64161  27.829  23.950   2.660  0.0913 -0.2654 -0.1434
21146W        W64162  33.066  18.419  28.658 -0.1165  0.1732 -0.0415
21147W        W64163  19.802  22.958  24.181  0.2643 -0.1144  0.4577
21148W        W64164  23.728  24.742  17.379 -0.1867  0.1103 -0.1663
21149W        W64165  20.573  22.180  17.550  0.1598 -0.0443 -0.0982
21150W        W64166  24.100   6.133  23.194 -0.2871  0.2658  0.1650
21151W        W64167  13.009  10.009  16.557  0.1310 -0.2583  0.0455
21152W        W64168  15.181  23.952  13.209 -0.2664 -0.2566 -0.0342
21153W        W64169  11.656  10.241  28.607  0.1712 -0.1622  0.4612
21154W        W64170  33.518  29.002  23.167 -0.3962 -0.0352 -0.2517
21155W        W64171  24.280  21.611  16.178  0.1612  0.2496 -0.1728
21156W        W64172  22.370   4.403  26.467 -0.0849 -0.0399  0.2006
21157W        W64173  11.173  14.384  18.596 -0.2049  0.0597  0.1488
21158W        W64174  31.266  18.939  15.557  0.0109 -0.1221 -0.0119
21159W        W64175  23.530  15.633   0.776 -0.0454  0.1695 -0.1255
21160W        W64176  29.763  27.355  20.792  0.0038  0.1969 -0.0600
21161W        W64177  23.226  15.590  18.408  0.0080 -0.0977  0.1523
21162W        W64178  26.842  29.208  19.177  0.2341 -0.0351  0.0645
21163W        W64179  33.790  23.467  25.098 -0.1237  0.2475 -0.0554
21164W        W64180  32.805  27.343  24.990 -0.1899 -0.2565 -0.0137
21165W        W64181  32.120  21.423  19.675 -0.0769  0.2032  0.0512
21166W        W64182  23.245   9.070  17.734  0.0860 -0.1150  0.0572
21167W        W64183   5.555  16.979  17.967 -0.1096  0.1317  0.1471
21168W        W64184  22.941   6.511  22.479 -0.1196 -0.0343  0.3279
21169W        W64185  26.301   4.667  24.919 -0.0655 -0.0156  0.2139
21170W        W64186   3.229  12.404  18.780  0.0469 -0.2218  0.2156
21171W        W64187  33.313  32.359  22.280 -0.0220  0.0693  0.2805
21172W        W64188  19.317  10.827  28.001 -0.2148  0.0136  0.0586
21173W        W64189  21.036   8.068  13.900  0.0010  0.1038 -0.1555
21174W        W64190  27.087   1.689   6.434 -0.1935  0.1121 -0.0748
21175W        W64191  12.380  20.911  18.430 -0.2230 -0.1845  0.0423
21176W        W64192  34.409  30.849  23.548  0.3429  0.0094 -0.1948
21177W        W64193  12.852  29.120  18.201 -0.0422 -0.1481 -0.0452
21178W        W64194  15.882   5.285  17.435 -0.1804  0.1326  0.2420
21179W        W64195  23.947  15.662  17.607 -0.0499  0.0764 -0.1836
21180W        W64196   8.391  18.023  12.851 -0.0569  0.1534  0.2204
21181W        W64197  27.570  24.297  21.075  0.1406 -0.1740  0.1727
21182W        W64198  28.074  19.295  18.657  0.2551 -0.4484  0.0375
21183W        W64199  24.881  27.115   4.812  0.0070 -0.1176  0.3227
21184W        W64200  22.612  18.067   6.444 -0.2756 -0.0357 -0.1153
21185W        W64201  25.033  18.514  16.807 -0.0251 -0.1471  0.2444
21186W        W64202  13.977  21.065  11.649  0.2219  0.1458  0.3426
21187W        W64203   2.430  17.084   4.307 -0.1319 -0.4164  0.0868
21188W        W64204   0.063  14.830  14.267  0.0349 -0.1804 -0.2225
21189W        W64205  32.127   9.150  24.150 -0.2016 -0.0647  0.0877
21190W        W64206  22.257  16.601  20.967  0.3414 -0.1546  0.2531
21191W        W64207   5.574  18.481  19.150 -0.2357  0.1641 -0.2073
21192W        W64208  22.925  16.296  15.272 -0.0750  0.0894 -0.0930
21193W        W64209  23.055  21.836  15.231 -0.0509  0.0654 -0.0892
21194W        W64210  19.685  18.111  26.370 -0.1594 -0.0886  0.2210
21195W        W64211  32.131  17.932  16.780  0.1884  0.1944 -0.0534
21196W        W64212  23.330  13.761  16.405 -0.0032  0.3513  0.0235
21197W        W64213  26.888  25.188  16.663  0.1589  0.1452  0.0334
21198W        W64214  24.567  21.323  16.467  0.0992 -0.1958  0.0977
21199W        W64215  18.385   7.808  28.747  0.0347  0.1803  0.0053
21200W        W64216   4.396  30.373   5.607  0.0603 -0.0497 -0.1464
21201W        W64217  34.383  11.763   0.526  0.4307  0.0945 -0.0556
21202W        W64218  22.462  11.063  18.173  0.1699 -0.3299  0.0276
21203W        W64219  23.359  13.502  13.808 -0.0256  0.4317  0.2597
21204W        W64220  19.643  10.549  27.582  0.0341 -0.2762  0.2013
21205W        W64221  16.066  23.273  16.972 -0.2269  0.2124  0.1038
21206W        W64222  33.708   1.184   2.104  0.2802  0.0468 -0.2659
21207W        W64223  27.232  10.728   2.215 -0.1236  0.3263  0.2610
21208W        W64224  30.182  12.779  15.564 -0.1137 -0.1800  0.0521
21209W        W64225  28.153  22.251  21.234 -0.1600 -0.0690 -0.1537
21210W        W64226  24.557  12.976  24.870  0.0178 -0.0146  0.1400
21211W        W64227  23.344  28.082  21.238 -0.1436 -0.0385 -0.1293
21212W        W64228  30.884  18.698  14.551 -0.0165 -0.0960 -0.1299
21213W        W64229  26.486   8.915  23.665  0.0112  0.1039 -0.1572
21214W        W64230   6.596   3.245  27.539 -0.2593 -0.0299 -0.1985
21215W        W64231  29.550  20.942  17.598  0.3606 -0.2008 -0.1452
21216W        W64232  22.042  28.624  17.258  0.0688  0.2819  0.0807
21217W        W64233  22.674  14.312  13.155 -0.1935  0.1218 -0.0165
21218W        W64234   9.740  24.211  19.007  0.1021 -0.2757 -0.0536
21219W        W64235   0.657   4.853  20.639 -0.4297 -0.1326 -0.1201
21220W        W64236   4.587  11.825  23.544  0.0761 -0.0933 -0.1616
21221W        W64237  30.447  17.776  13.932  0.2816  0.0300 -0.2012
21222W        W64238  32.993  10.600   2.277  0.2947  0.4124  0.2037
21223W        W64239  11.114  20.495  12.866 -0.2668  0.0598 -0.1632
21224W        W64240  26.280  28.092   4.561 -0.3427 -0.3248 -0.0160
21225W        W64241  34.657  20.908  23.488 -0.0547 -0.3477 -0.2410
21226W        W64242  24.085   3.828  17.891  0.0212 -0.0424 -0.2181
21227W        W64243   4.829  13.372  19.867 -0.0470 -0.1556  0.2322
21228W        W64244  20.236  29.539  19.661 -0.1697 -0.2866 -0.0697
21229W        W64245  26.742  12.528  23.172  0.0408 -0.0592 -0.0218
21230W        W64246   1.385   4.715  29.238  0.3173  0.2222  0.0012
21231W        W64247  26.243   0.944  15.550  0.1347  0.2229 -0.0054
21232W        W64248  23.340  11.972  17.521  0.1047 -0.2853  0.1909
21233W        W64249  12.103   0.977   0.811  0.0301 -0.0029 -0.4824
21234W        W64250  33.705   3.370  25.036 -0.0462 -0.2917  0.3372
21235W        W64251   2.965  19.594  17.897  0.1492  0.0047 -0.1319
21236W        W64252  25.468  28.642  25.446  0.0477  0.1278 -0.0332
21237W        W64253  26.724  15.954   1.106  0.2295  0.2473  0.1304
21238W        W64254  32.658  11.468  19.531  0.0386 -0.2406 -0.0081
21239W        W64255   8.878  20.985  17.985 -0.0874 -0.3123 -0.2096
21240W        W64256   4.600  20.079  22.294 -0.0147  0.2986 -0.0895
21241W        W64257  16.224  17.888  13.771  0.1114  0.1218  0.1943
21242W        W64258  20.011  30.037  24.091 -0.0537 -0.4192 -0.1415
21243W        W64259  34.467  25.429  21.057  0.0550 -0.1401 -0.0015
21244W        W64260  29.402  22.376  22.103 -0.0043 -0.0745  0.0340
21245W        W64261  31.475  12.468  26.704  0.2211 -0.0827  0.1549
21246W        W64262  18.202  25.392  20.394 -0.0914 -0.1919 -0.1007
21247W        W64263   2.809   2.294  23.794 -0.2881  0.2280 -0.0048
21248W        W64264  28.271  24.182  24.815 -0.4055  0.1922  0.0796
21249W        W64265  26.307  32.885  16.869  0.1397 -0.1180  0.1917
21250W        W64266  21.457  30.905   0.177  0.3588 -0.1866 -0.0011
21251W        W64267   8.381  18.779  23.905 -0.1747 -0.0304 -0.0003
21252W        W64268   3.365  18.247  18.142  0.0609  0.1333 -0.0043
21253W        W64269  23.235  13.512  25.411  0.3107  0.0344 -0.0976
21254W        W64270  30.745  22.913   2.319  0.1434 -0.1520 -0.0126
21255W        W64271  29.791  21.906  16.184 -0.2315 -0.0377 -0.0212
21256W        W64272  23.437   6.306  20.699  0.1335 -0.1047  0.2037
21257W        W64273  23.326  10.476  18.463 -0.2329  0.0337  0.3931
21258W        W64274  16.384   3.824   0.494 -0.1232 -0.2895  0.1030
21259W        W64275  34.439  34.068  19.542 -0.0309  0.3434 -0.1852
21260W        W64276   1.238  28.908  15.934 -0.1136  0.3464 -0.0782
21261W        W64277  31.937  10.383  17.943  0.3259 -0.2359 -0.2317
21262W        W64278  33.922  21.669  21.943  0.0781  0.1917  0.1338
21263W        W64279  17.190  27.026  28.793  0.2462  0.1143 -0.1436
21264W        W64280  19.436  24.522  17.849 -0.0800  0.1174  0.0912
21265W        W64281  24.839  24.495  25.699 -0.0599  0.0344 -0.3189
21266W        W64282  12.124  19.835  19.569  0.1012  0.2565 -0.0677
21267W        W64283  20.218   8.442  17.167  0.0048  0.1475 -0.0158
21268W        W64284   8.152   9.245  24.311 -0.2867 -0.1964 -0.0583
21269W        W64285   7.318  21.069  25.103  0.0580 -0.0199 -0.0077
21270W        W64286  26.529  16.619  13.655 -0.2858  0.1819  0.0391
21271W        W64287   3.475  26.231  19.321  0.1020  0.1411  0.1420
21272W        W64288   0.381  21.468  18.074 -0.2913  0.1109  0.1269
21273W        W64289  13.447   5.715  20.170  0.2490  0.0041  0.0504
21274W        W64290  26.052  11.186  25.531  0.1877 -0.2929  0.3436
21275W        W64291  27.018  29.002  17.432  0.1950 -0.3286  0.3010
21276W        W64292  34.596  23.764  25.029  0.2315  0.3729 -0.0477
21277W        W64293  33.294  11.956  16.051 -0.1005  0.0959 -0.1806
21278W        W64294  10.566  26.439  21.170  0.1450  0.1162 -0.0099
21279W        W64295   0.590  15.419  17.726  0.0082  0.0293  0.0791
21280W        W64296  28.915   6.503  20.885  0.0554  0.1180  0.0523
21281W        W64297  16.600   9.620  16.978 -0.0582  0.4221  0.1167
21282W        W64298  22.475   6.658   4.811  0.0202  0.1778  0.1059
21283W        W64299  14.051  22.655  25.324 -0.2829 -0.5522 -0.0310
21284W        W64300  30.779  32.893  20.788  0.1947  0.2120  0.0387
21285W        W64301  23.252   9.278  25.711  0.1000 -0.0633  0.0028
21286W        W64302  21.464   5.979  19.058  0.4099 -0.2228  0.1815
21287W        W64303   0.763  21.271  17.174 -0.1524  0.0046  0.0703
21288W        W64304  30.873  32.339  29.170 -0.0607  0.0488 -0.0613
21289W        W64305  26.381   9.802  17.348 -0.0160  0.1905 -0.0079
21290W        W64306  23.850  18.120  27.530 -0.0683  0.0527  0.0420
21291W        W64307  15.724  19.074   6.018  0.1833  0.0957 -0.3510
21292W        W64308  13.199  15.486  16.505 -0.0886  0.0323  0.1992
21293W        W64309  17.020   1.995  24.439 -0.1921 -0.0220 -0.2518
21294W        W64310   7.365  18.074  20.750  0.2531 -0.0591  0.4744
21295W        W64311  28.887  13.787  24.964 -0.1424 -0.1385 -0.1657
21296W        W64312  18.983  21.870  18.655  0.0888 -0.2008  0.2850
21297W        W64313  18.635  19.585  16.415  0.0693 -0.0155  0.0339
21298W        W64314   1.270   1.560  26.224  0.1878 -0.0948 -0.2924
21299W        W64315  21.798  12.388  14.446  0.1155 -0.0304  0.0751
21300W        W64316  21.399  27.190  23.534  0.1604 -0.2639 -0.3636
21301W        W64317  12.769  12.410  13.693 -0.0310 -0.0195 -0.0200
21302W        W64318   8.111  19.626   6.446  0.1151  0.0027  0.1262
21303W        W64319   9.710  14.819  21.115  0.3294 -0.1035 -0.2327
21304W        W64320  22.323  29.497   0.529 -0.3606  0.2509 -0.0487
21305W        W64321   2.553   9.915  21.419 -0.1946 -0.1538  0.0387
21306W        W64322  21.980   0.392  23.472  0.0799  0.1193  0.0143
21307W        W64323   5.158   1.296   0.966 -0.1210 -0.3476  0.0974
21308W        W64324  32.915  29.629  26.732  0.0648 -0.2525  0.2091
21309W        W64325  27.990   7.893  17.364 -0.1994 -0.2210  0.2154
21310W        W64326  30.562  15.526  27.592 -0.0528  0.1427 -0.1122
21311W        W64327  32.576  34.641  28.640 -0.0403  0.1316 -0.1315
21312W        W64328  26.584  11.433   6.786  0.1131  0.0587  0.3334
21313W        W64329  30.663  32.021  24.286 -0.0805 -0.1978  0.0384
21314W        W64330  23.418   9.936  25.165 -0.0152  0.0122  0.0640
21315W        W64331  31.952   8.355  16.772 -0.4683 -0.2443  0.1859
21316W        W64332  27.557  15.065  27.232  0.0164  0.0117 -0.0494
21317W        W64333   1.631  17.827  21.016 -0.7067 -0.2540 -0.0735
21318W        W64334   3.523  12.280  19.706 -0.1997 -0.0207 -0.1454
21319W        W64335  32.418  17.861   3.933 -0.1565 -0.0179 -0.0279
21320W        W64336  10.143  14.341  16.448 -0.2560  0.3281  0.1374
21321W        W64337  34.461  27.759  22.117 -0.3614  0.1563  0.2991
21322W        W64338  23.038  18.660  18.901  0.2845  0.3367 -0.0585
21323W        W64339   4.400  16.753  17.870  0.0871  0.2929 -0.0855
21324W        W64340  10.595   2.107  18.904 -0.1315  0.1448  0.0222
21325W        W64341  16.027  10.542   4.220 -0.3608 -0.0138 -0.0371
21326W        W64342  12.121  23.199  14.911  0.2020 -0.0937 -0.0355
21327W        W64343  27.626   3.362  25.038  0.2161 -0.2753 -0.2017
21328W        W64344  11.563  13.420  20.140  0.4093  0.0636 -0.2009
21329W        W64345  26.652  34.272  25.271 -0.0945  0.0986  0.0420
21330W        W64346  10.591  34.165  18.675  0.0298 -0.0954 -0.0783
21331W        W64347  15.627  18.438   4.775 -0.0149  0.0061  0.2193
21332W        W64348  24.432   5.872  16.359 -0.2754 -0.1678 -0.1376
21333W        W64349   3.964  21.944  21.215 -0.0676  0.3985 -0.1260
21334W        W64350  28.890  27.700  16.087 -0.0936 -0.0626  0.2506
21335W        W64351  28.290  12.173  22.446 -0.0771  0.4139 -0.0637
21336W        W64352  31.163  21.334  16.548  0.0069 -0.0731 -0.3583
21337W        W64353   5.212   1.197  17.006  0.2516 -0.2494 -0.1025
21338W        W64354  26.569  15.279  20.650  0.4011 -0.1175  0.0029
21339W        W64355  22.216  13.465  14.287 -0.1230  0.0188  0.2675
21340W        W64356  29.057   2.679  20.546 -0.1630  0.1083  0.0768
21341W        W64357  25.857  22.739  19.533  0.1909 -0.1538  0.0169
21342W        W64358   0.695   1.533   6.378  0.0980  0.2732  0.0659
21343W        W64359  15.297  20.380  12.797 -0.1776 -0.0162 -0.0810
21344W        W64360  23.723  15.589  25.784  0.0542  0.0081 -0.0836
21345W        W64361  19.363  12.333  21.480 -0.1734 -0.2967  0.0571
21346W        W64362   8.830  31.284  25.901  0.1419  0.0340  0.0896
21347W        W64363  28.499   1.089   3.646 -0.0302 -0.0255  0.0720
21348W        W64364  27.756   1.064   0.628  0.1612  0.1949 -0.0886
21349W        W64365   6.020   9.263   1.769  0.1011  0.1394 -0.4509
21350W        W64366  19.698   6.640  27.866 -0.0456 -0.3779  0.2858
21351W        W64367  11.583  24.473  24.413  0.0055 -0.1033  0.0718
21352W        W64368  23.518  30.693  25.244  0.3112  0.0222 -0.0477
21353W        W64369   1.971  14.164  24.276 -0.0712  0.1432  0.3323
21354W        W64370  26.095   6.197  19.522  0.0289 -0.4071  0.3206
21355W        W64371  32.129  14.005  16.387 -0.0368 -0.3644 -0.0660
21356W        W64372  21.101  10.445  27.743  0.3561 -0.4296 -0.2553
21357W        W64373  19.714  28.551  18.833  0.3128 -0.0416  0.0360
21358W        W64374   5.343   4.867  18.762 -0.0706 -0.2320  0.3152
21359W        W64375   6.455  28.237  29.020 -0.5041 -0.0858 -0.0170
21360W        W64376   9.477  22.218  22.076  0.0824 -0.0656 -0.0502
21361W        W64377  25.344  18.915  18.072 -0.0033  0.1895  0.0629
21362W        W64378  34.671  24.629  26.901 -0.1701 -0.0402 -0.0853
21363W        W64379   6.384   3.690  22.481 -0.0731  0.2970  0.0707
21364W        W64380  12.606  21.999   0.532  0.3157  0.0608  0.3656
21365W        W64381   6.376  25.867  24.510 -0.1538 -0.0709  0.1622
21366W        W64382  29.137  18.413  22.740  0.1403  0.1650  0.1901
21367W        W64383  29.681   2.505  22.948 -0.1154 -0.1518 -0.3429
21368W        W64384  20.121  26.180   8.452  0.0689 -0.0773 -0.1552
21369W        W64385  18.071  12.346  14.937 -0.2159 -0.0091  0.0214
21370W        W64386  28.387  24.268  18.753 -0.0966  0.3012  0.0000
21371W        W64387  27.538  17.923  17.146 -0.4956  0.2676 -0.2032
21372W        W64388  28.634  10.223  22.785  0.2605 -0.0579  0.0815
21373W        W64389  25.926  28.016  19.653  0.0296 -0.0578  0.0028
21374W        W64390  16.718   1.203  20.171 -0.0684  0.1265  0.1575
21375W        W64391  23.696  13.316  21.743 -0.0061  0.0764 -0.0681
21376W        W64392  15.551  18.266  13.654  0.0032  0.4061  0.0748
21377W        W64393  33.068  12.858  19.193 -0.4786  0.3260  0.1236
21378W        W64394  28.380   4.500  16.439 -0.1080 -0.1089  0.0552
21379W        W64395  31.712   6.872  22.726  0.0958 -0.1714  0.0594
21380W        W64396   2.279  21.306  21.687 -0.0060  0.5832  0.1540
21381W        W64397  20.040   7.704  22.488  0.0066 -0.1833 -0.2465
21382W        W64398   3.778  18.929  27.350 -0.2379 -0.2173  0.0652
21383W        W64399  26.690  21.997  21.822  0.3291  0.1220 -0.0134
21384W        W64400  31.969  10.003  17.519  0.0102  0.1448  0.0543
21385W        W64401   6.130  16.586  20.776 -0.0626  0.3078  0.1282
21386W        W64402   7.076  15.211  20.481  0.1129 -0.0551 -0.0239
21387W        W64403   7.575  26.642  16.508 -0.1185  0.0516 -0.1985
21388W        W64404  23.796   6.839  22.955  0.0936  0.1245 -0.0018
21389W        W64405  34.151   8.100  28.870 -0.3560  0.0814  0.3643
21390W        W64406  34.600  32.563   0.924  0.0340  0.0423  0.4687
21391W        W64407  32.978   9.299   1.561  0.1199 -0.1563  0.1214
21392W        W64408  31.261  28.423  24.307  0.1685  0.0300  0.1115
21393W        W64409  25.106  18.973  18.822 -0.0446 -0.3814 -0.0384
21394W        W64410  25.422  14.127  17.815  0.1416 -0.1482  0.0236
21395W        W64411  32.199  34.186  26.073 -0.0721 -0.1455 -0.0392
21396W        W64412  16.772   9.917   6.466 -0.1677 -0.2109  0.2904
21397W        W64413  22.072   2.951  25.738  0.1891 -0.0696 -0.0060
21398W        W64414  12.008   6.329  23.951  0.1546 -0.1595  0.0725
21399W        W64415  20.391   1.889  19.226 -0.0181 -0.3525  0.0442
21400W        W64416   4.570  21.018   3.506  0.3278  0.1292 -0.1040
21401W        W64417  32.978  27.287  24.548 -0.2183  0.0015  0.1065
21402W        W64418  28.085   7.050  19.335 -0.1351  0.0101 -0.1446
21403W        W64419  16.257  12.715  16.060 -0.2899  0.1402  0.0124
21404W        W64420  24.309   5.973  15.722  0.0494  0.2187 -0.2857
21405W        W64421  23.403  12.157  19.798 -0.0734  0.1325  0.2704
21406W        W64422   5.461  19.171  25.128 -0.0834  0.1393  0.1973
21407W        W64423  12.097   7.929  22.365 -0.2241  0.1068 -0.1015
21408W        W64424   1.914  30.484   3.638  0.0288 -0.0465  0.0158
21409W        W64425  23.168  28.752  29.047  0.1247  0.2427 -0.0996
21410W        W64426  25.745  23.355   2.448  0.1517 -0.1815  0.2912
21411W        W64427  23.273  29.686  15.187  0.1958  0.3283 -0.0833
21412W        W64428  20.212   6.650  18.203  0.1555 -0.1922 -0.0248
21413W        W64429  30.361  21.540  17.648  0.0020  0.2289 -0.3526
21414W        W64430  33.098  24.846  20.074  0.0595 -0.0369 -0.0198
21415W        W64431  21.257   9.548  19.252  0.5808 -0.3951 -0.0704
21416W        W64432  24.203   2.668  19.375 -0.2635  0.0573 -0.1365
21417W        W64433  28.231  13.178  15.694 -0.0178 -0.0615  0.2439
21418W        W64434  28.037  11.407   2.852 -0.0714 -0.0085  0.0217
21419W        W64435  24.864  24.678   9.729  0.0728 -0.0761  0.0809
21420W        W64436  32.304   5.748  17.658  0.1026 -0.1713 -0.2783
21421W        W64437  22.242  28.437   1.361 -0.2206  0.0447  0.0308
21422W        W64438   3.686  27.232  25.816  0.2421 -0.1326 -0.1625
21423W        W64439  21.234  28.917  20.854  0.0295 -0.0026 -0.2970
21424W        W64440  20.697   1.567  14.347  0.3544  0.0924  0.0150
21425W        W64441   5.206  26.555  25.880  0.0834  0.0130 -0.1104
21426W        W64442   0.359  15.018  17.842  0.0515  0.3594 -0.0084
21427W        W64443  21.437  25.049   0.171  0.0667 -0.0722  0.0739
21428W        W64444  33.989  28.660  27.707  0.0099 -0.1082  0.1253
21429W        W64445  33.196  22.408  22.898  0.1293 -0.5005  0.0325
21430W        W64446  29.268  16.813  20.181  0.0968  0.0549 -0.0974
21431W        W64447  19.327  11.980  20.497 -0.0514 -0.0984 -0.0546
21432W        W64448  16.177   5.523  15.324 -0.1526 -0.0015  0.2396
21433W        W64449  29.701  15.086  26.785  0.5705  0.3116 -0.3597
21434W        W64450  24.003  12.385  24.017  0.1115 -0.4220  0.4230
21435W        W64451  23.909  16.068   0.713  0.0894  0.0310 -0.0662
21436W        W64452  31.209  30.650  16.845 -0.2247  0.2332  0.5867
21437W        W64453  25.484  19.283  21.308 -0.1099  0.1575  0.2060
21438W        W64454  31.148  13.554  22.498  0.0741 -0.1580 -0.0067
21439W        W64455  24.339  13.835   6.669 -0.1918 -0.0619  0.1411
21440W        W64456  31.761  16.383  21.076  0.1912 -0.0583  0.0265
21441W        W64457  27.648  31.406  19.327  0.1815 -0.0165 -0.1788
21442W        W64458  24.600  12.011  20.340 -0.2063  0.2379 -0.2202
21443W        W64459  13.805   3.248  23.595 -0.2476 -0.2904 -0.1581
21444W        W64460  21.193   9.183   1.922  0.0694 -0.1164 -0.1646
21445W        W64461   3.223  15.203  27.787 -0.0622  0.1018 -0.0647
21446W        W64462  18.867   7.866  26.191 -0.1951 -0.1666  0.0613
21447W        W64463  10.921   5.040  19.155  0.0534  0.4123  0.0490
21448W        W64464  24.834   6.289   0.655 -0.2595 -0.2689 -0.0900
21449W        W64465  15.165  30.582  15.553  0.0744 -0.0664  0.1451
21450W        W64466  17.451   9.996  15.021  0.2497  0.1684  0.0116
21451W        W64467   6.128  22.495  17.858  0.2388  0.2576 -0.3163
21452W        W64468  28.875  18.417  15.370 -0.0066  0.2801 -0.3380
21453W        W64469  34.113  17.299  18.346  0.3964 -0.2055 -0.2666
21454W        W64470  23.661   8.874  26.530  0.1519  0.0763 -0.2172
21455W        W64471  18.847   0.143  18.454 -0.2105  0.1928 -0.0210
21456W        W64472  21.492  13.431  29.182  0.3241  0.0328 -0.0301
21457W        W64473  29.456  10.899  23.203  0.1130 -0.4613  0.0482
21458W        W64474  33.456   0.978  18.300  0.0581  0.0725 -0.0333
21459W        W64475   9.836  13.516  25.074 -0.0613 -0.2818  0.2037
21460W        W64476  32.611   8.082   6.435  0.1536 -0.0180  0.0022
21461W        W64477  31.348   2.801   0.053 -0.1015  0.1436 -0.0170
21462W        W64478  24.716  34.496  28.646  0.2195  0.1845 -0.0925
21463W        W64479  11.014  11.530  19.394  0.3488  0.0112 -0.3777
21464W        W64480   0.430  20.998  21.033 -0.3430  0.1774 -0.3845
21465W        W64481  11.194   0.391  19.975 -0.3778 -0.0432 -0.0706
21466W        W64482  26.519  10.912  21.655  0.0743 -0.1841 -0.2190
21467W        W64483  23.879  22.391  19.277  0.2252 -0.1871 -0.0878
21468W        W64484  26.366  17.829  25.255 -0.0371  0.3797  0.1685
21469W        W64485  24.536  15.523  19.739 -0.2501  0.0196 -0.0506
21470W        W64486  20.882  23.481  23.322 -0.0386 -0.0682 -0.0527
21471W        W64487   4.516  16.481  19.081 -0.1642  0.3156 -0.1426
21472W        W64488   7.277  11.374  23.086 -0.0341  0.0778  0.0931
21473W        W64489  16.955  24.065  28.264 -0.3314 -0.0627 -0.0928
21474W        W64490  28.846  19.818  18.257  0.3202  0.0930  0.1886
21475W        W64491  22.664  30.735  18.776  0.0389  0.0703  0.3884
21476W        W64492   7.854  19.445  20.508 -0.0897  0.0845  0.2391
21477W        W64493  30.129  13.260  22.132  0.1060  0.1614  0.1033
21478W        W64494   2.426  18.212  14.430 -0.2013  0.0172  0.2009
21479W        W64495  15.843   6.240  14.553  0.2492  0.2434 -0.2327
21480W        W64496  32.954   2.515   7.539  0.3637  0.0113 -0.0707
21481W        W64497  10.476  12.621  15.070  0.2072  0.0192  0.0545
21482W        W64498  20.183  27.461   0.825 -0.1676 -0.0186  0.1268
21483W        W64499  19.173  12.203  13.766 -0.0035 -0.0931 -0.2069
21484W        W64500  23.299   8.284  17.134  0.1687  0.0552  0.2327
21485W        W64501   1.942  15.458   8.765  0.3170 -0.1419  0.2235
21486W        W64502  23.681  15.861  29.050  0.0855 -0.4731  0.1941
21487W        W64503   7.053  31.465   0.956  0.1362 -0.1527 -0.0387
21488W        W64504  15.129  30.574   0.267 -0.3079 -0.0570 -0.1221
21489W        W64505  25.991  22.601  16.862  0.3395 -0.0055 -0.0136
21490W        W64506  33.453  16.267  21.639 -0.0326  0.1703  0.1173
21491W        W64507  13.642  25.777   4.962 -0.0041  0.1219  0.1906
21492W        W64508  29.641   8.024  22.145 -0.4448 -0.0893  0.0614
21493W        W64509  11.685  28.162   8.297  0.0384 -0.0417 -0.3843
21494W        W64510  21.759  23.287  18.468  0.1291 -0.2294 -0.3082
21495W        W64511  25.194  11.935  28.749 -0.2010 -0.0831 -0.1260
21496W        W64512  10.594  24.912  24.292 -0.0168  0.3776  0.0513
21497W        W64513  25.480   6.216  16.372 -0.1031 -0.0136  0.0077
21498W        W64514  26.709   3.011  22.398 -0.0388  0.0267  0.1875
21499W        W64515  24.822   9.659  15.277 -0.0006 -0.1568 -0.0293
21500W        W64516  18.485  19.836  12.736  0.0242  0.0515 -0.4134
21501W        W64517  25.693  14.891  20.537  0.0377  0.2033 -0.0909
21502W        W64518  10.633   6.109  18.364  0.5032  0.1168 -0.1251
21503W        W64519  23.183  13.417  23.956  0.1288  0.2864 -0.3837
21504W        W64520  16.560  14.569  14.349  0.2441 -0.1724 -0.3005
21505W        W64521  22.374  24.018   0.620 -0.0865 -0.1729 -0.1504
21506W        W64522  26.057   8.767  14.199 -0.3562 -0.1504  0.0108
21507W        W64523  11.604  28.785  24.968  0.1953  0.1450 -0.2415
21508W        W64524  25.317  34.493  26.842 -0.1422 -0.0646  0.0986
21509W        W64525  23.263  19.272  17.622  0.0963 -0.1974  0.2217
21510W        W64526  32.864  10.430  16.329  0.0500 -0.0367  0.2298
21511W        W64527  25.679  16.673  25.774  0.1292 -0.2226  0.0642
21512W        W64528  33.118  16.151  18.633  0.1991  0.2175 -0.1206
21513W        W64529   0.810  10.238  17.756  0.1553  0.2402  0.1158
21514W        W64530  17.948  22.970  17.196  0.1069 -0.1169  0.1996
21515W        W64531  19.308   3.270  23.557  0.0382 -0.1850 -0.0770
21516W        W64532  21.463  15.930  21.419  0.1053  0.0656 -0.2235
21517W        W64533  33.277  23.537  15.348  0.0380 -0.1123  0.0333
21518W        W64534  15.832  26.454  22.103 -0.1759 -0.2217  0.0642
21519W        W64535  27.645  15.474   4.555  0.0296 -0.0341 -0.0613
21520W        W64536  12.380  22.803  26.978 -0.2012 -0.2042  0.0460
21521W        W64537  23.812   0.753  26.662  0.0277  0.1542  0.0280
21522W        W64538  32.111   4.083  17.627 -0.0951  0.1585 -0.1769
21523W        W64539  18.330  26.312   1.580 -0.2227  0.0323  0.0452
21524W        W64540  17.868   4.264  22.602 -0.0265  0.1151  0.1619
21525W        W64541  30.334  14.223   9.308 -0.1524  0.0622 -0.3191
21526W        W64542   0.990  22.105  20.744 -0.1356 -0.0417 -0.2204
21527W        W64543  23.228  12.735  24.486  0.1120  0.0478  0.0865
21528W        W64544   7.365  14.623  26.031 -0.0872 -0.1874 -0.0113
21529W        W64545  12.973  27.121  18.019  0.4402 -0.3772 -0.0449
21530W        W64546  33.634  24.238  17.467  0.0195 -0.0389  0.0211
21531W        W64547  32.641   6.649  20.256  0.1397 -0.0745 -0.0482
21532W        W64548  24.959   9.953  26.319  0.2110 -0.1098  0.0655
21533W        W64549  13.580  16.505  25.141  0.3129  0.0320 -0.3520
21534W        W64550  27.352  30.281  20.184  0.0311 -0.2171 -0.1034
21535W        W64551  27.887   1.557  15.835  0.0767 -0.4278  0.3118
21536W        W64552  11.890   3.015  24.085 -0.1510 -0.4214 -0.1516
21537W        W64553   6.048  25.976  24.083  0.2358  0.1769  0.1687
21538W        W64554  24.453  19.122  21.386  0.0942  0.0926  0.0762
21539W        W64555  32.204  22.995  17.540 -0.0318 -0.2270 -0.0050
21540W        W64556  23.386  13.252  15.593  0.0851  0.2370 -0.1143
21541W        W64557  30.827  11.080  17.299 -0.3982 -0.0270 -0.0833
21542W        W64558  27.735  23.635   9.096  0.2614 -0.1979 -0.0051
21543W        W64559  21.616  26.749  15.375 -0.1581  0.0224 -0.0674
21544W        W64560   5.573  34.403  22.085 -0.0013  0.2359  0.2870
21545W        W64561  13.964  32.265  22.702  0.1595 -0.0287 -0.1134
21546W        W64562  11.006   9.335  15.706 -0.1095 -0.3920 -0.1911
21547W        W64563  24.337   7.481  18.041 -0.0335 -0.2104  0.0589
21548W        W64564  20.109  16.812   0.672  0.3825  0.1409  0.0348
21549W        W64565  19.407  30.732  23.246  0.1698  0.2093  0.0351
21550W        W64566  33.421   7.566  28.508  0.2759  0.3066  0.1416
21551W        W64567  25.973  19.139  15.181  0.3113 -0.2455  0.3194
21552W        W64568  22.926  26.215  18.521 -0.0778  0.0894 -0.1345
21553W        W64569  32.732   6.040  27.074 -0.0745 -0.2554 -0.0633
21554W        W64570  16.908   5.038  19.443  0.0385  0.0347  0.0549
21555W        W64571  13.766  22.202  25.263  0.1990 -0.1098 -0.0423
21556W        W64572  15.915  19.853   5.407 -0.3369  0.0824 -0.0852
21557W        W64573  23.225  34.347   0.017  0.1927  0.0044  0.2977
21558W        W64574  30.279  11.293  23.719  0.0261 -0.1066 -0.0242
21559W        W64575  24.335   0.729  26.492  0.0108  0.0786  0.1138
21560W        W64576  23.832  10.449  14.377  0.0781  0.0610 -0.0463
21561W        W64577  16.289  27.133  21.888  0.2130  0.1619  0.0396
21562W        W64578  12.002   6.230   4.023  0.2515  0.0970  0.2413
21563W        W64579  19.746  27.459  15.220 -0.0141  0.0761  0.0318
21564W        W64580  24.398  23.373   8.092 -0.1379 -0.0974 -0.0311
21565W        W64581  31.395  21.719  16.380  0.0490 -0.2299  0.0882
21566W        W64582   2.989  14.095  21.461 -0.2419  0.0677 -0.3097
21567W        W64583  24.460  12.640  17.989  0.3441 -0.1773 -0.1061
21568W        W64584  20.213   9.176  21.476  0.0540  0.0994  0.0515
21569W        W64585  16.941  13.032  22.642  0.1851  0.2402  0.0599
21570W        W64586  30.679  15.087  26.832 -0.1050 -0.1255 -0.2340
21571W        W64587  23.690  13.328   2.332 -0.3608  0.3485  0.1062
21572W        W64588   8.040   7.907  28.632  0.1879 -0.2938 -0.0835
21573W        W64589  12.004   5.811  19.565 -0.0373  0.0871 -0.0957
21574W        W64590  33.060   3.076  26.993  0.0183  0.0816 -0.4259
21575W        W64591   8.196  25.142   0.726 -0.0272 -0.0227 -0.2423
21576W        W64592  26.882  16.098  23.455  0.0298 -0.1435  0.1862
21577W        W64593  28.242  27.598  18.809 -0.1439 -0.4510  0.2893
21578W        W64594   1.350  13.052  26.080  0.0268  0.0633  0.2186
21579W        W64595  18.980  11.818  28.016  0.2694 -0.0725  0.1731
21580W        W64596  33.726  22.590  26.030 -0.3132 -0.0047  0.1280
21581W        W64597  26.204  25.742  18.820 -0.0863 -0.0666 -0.2949
21582W        W64598  17.682   3.950  25.267  0.0049  0.1678  0.2272
21583W        W64599   0.783  10.464  18.793 -0.0675  0.1975 -0.0192
21584W        W64600  20.297  24.813  16.234 -0.1743 -0.1361  0.0412
21585W        W64601  10.939  26.877   2.244  0.1033  0.0291  0.1976
21586W        W64602   0.162   8.295  20.210  0.3614 -0.0231  0.0495
21587W        W64603  24.001  11.475  25.817  0.4109  0.2498 -0.4215
21588W        W64604  19.165   8.534  17.989  0.1359 -0.0480 -0.2059
21589W        W64605  19.871   4.304  15.669  0.2019  0.0672 -0.3321
21590W        W64606  30.050  18.887  15.564  0.0659  0.1979  0.3463
21591W        W64607  19.053  10.271  16.398  0.0700  0.0609 -0.1158
21592W        W64608  18.846   2.721  29.176 -0.1298 -0.1498 -0.2067
21593W        W64609  16.814   8.736  21.838 -0.4310  0.0024  0.2551
21594W        W64610   7.981  16.323  13.878  0.2451  0.0034 -0.2006
21595W        W64611  11.471  22.055  17.268  0.1437  0.0844 -0.3357
21596W        W64612  18.109   3.784  14.810  0.2895  0.1427 -0.0746
21597W        W64613  17.474   8.865  18.482 -0.2994 -0.3088 -0.3863
21598W        W64614  30.625  11.705   0.906 -0.1764  0.1472 -0.2032
21599W        W64615  25.904  16.891   7.226 -0.1274  0.0236  0.3244
21600W        W64616  24.691  17.611  23.685 -0.2319  0.1969 -0.0126
21601W        W64617   1.044  14.497   7.231  0.0098  0.0599  0.3016
21602W        W64618   2.145  13.701  17.750 -0.2668  0.1704 -0.0954
21603W        W64619  26.126  23.820  17.346  0.1658  0.0540  0.3470
21604W        W64620  33.911   5.395  17.917  0.0282  0.6759 -0.2796
21605W        W64621  22.873  31.552  18.061 -0.0397  0.0885  0.5605
21606W        W64622   0.416  10.737  19.672 -0.4435  0.0801 -0.2575
21607W        W64623   2.922  33.165  21.625 -0.1489  0.0626  0.0372
21608W        W64624   5.692  32.983  22.771 -0.0596 -0.0666  0.0368
21609W        W64625  23.496  17.826  14.625 -0.1908  0.0389 -0.1091
21610W        W64626  21.361  13.144  24.686 -0.5515  0.0938 -0.0202
21611W        W64627  28.048  24.558  19.737 -0.1258 -0.2257  0.2595
21612W        W64628  30.726   6.018  15.871 -0.0689 -0.1919 -0.1930
21613W        W64629  33.275  27.689  17.799 -0.0306  0.0796  0.0023
21614W        W64630  26.156  21.919  24.151  0.2293 -0.1125 -0.0367
21615W        W64631  17.395   1.318  22.780  0.0066  0.1431  0.0938
21616W        W64632  31.349  15.725  15.417 -0.1929 -0.0191 -0.1045
21617W        W64633  33.998  22.703   1.408 -0.1774 -0.0093 -0.2960
21618W        W64634   9.401  19.667  18.097  0.1766 -0.0407  0.2381
21619W        W64635  27.183  22.104  24.101 -0.1494  0.2271 -0.1813
21620W        W64636  25.648   7.261  24.199 -0.0797  0.0168  0.1495
21621W        W64637  34.512   4.445   0.208  0.3670  0.1258 -0.0344
21622W        W64638  32.711  24.424  24.941 -0.1818  0.0126  0.0644
21623W        W64639  27.604  14.414   0.582  0.2430  0.2838 -0.2499
21624W        W64640  30.777  16.417  24.029 -0.2581 -0.0382  0.1645
21625W        W64641  19.551  33.417  28.457 -0.4161 -0.0464  0.1971
21626W        W64642   1.675  11.131  15.488 -0.3026  0.0986  0.0230
21627W        W64643   8.517  13.486  16.878 -0.2106  0.3822 -0.5119
21628W        W64644   2.846  32.386  19.172  0.2861 -0.0121 -0.1248
21629W        W64645  17.787  28.222  24.859 -0.2182 -0.2021  0.1230
21630W        W64646   2.722  12.817  22.459  0.0256  0.0430 -0.1955
21631W        W64647  19.349   5.850   4.843  0.0177 -0.0770 -0.1994
21632W        W64648  25.808  18.122  18.216 -0.0247  0.2789  0.0421
21633W        W64649  31.680  13.238  29.060  0.2164 -0.0169 -0.1558
21634W        W64650  14.608  12.887  18.099 -0.3652  0.3850 -0.0667
21635W        W64651  20.007  10.765  26.755 -0.1257  0.3109 -0.1194
21636W        W64652  31.683  15.995  14.385 -0.1724 -0.2314 -0.1343
21637W        W64653  24.674  15.021  14.456  0.0292 -0.0260 -0.0484
21638W        W64654  14.112   3.787  22.626  0.2397 -0.1741 -0.2134
21639W        W64655  13.910  23.634   6.917  0.0772 -0.0676  0.0581
21640W        W64656  33.424  21.053  23.362  0.0172  0.1730 -0.2732
21641W        W64657  29.276   6.155  24.560  0.0215  0.1513 -0.0506
21642W        W64658  27.780  10.060  22.585 -0.1827 -0.2025  0.2686
21643W        W64659  21.763  25.536  15.791 -0.0487 -0.0146 -0.3506
21644W        W64660  30.883  31.599   0.502  0.1776 -0.3839 -0.2997
21645W        W64661   1.917  10.019  16.131 -0.1983 -0.0626 -0.1908
21646W        W64662   0.459  16.299   3.480  0.1055 -0.1912  0.1608
21647W        W64663   3.020  11.713   1.402 -0.2363  0.0947  0.1545
21648W        W64664   3.461   5.472  18.071 -0.0098  0.1002 -0.2767
21649W        W64665   0.593  20.313  14.675 -0.0572 -0.4381  0.0124
21650W        W64666  17.707   1.117  17.563  0.0996  0.1307  0.0085
21651W        W64667  14.039  25.631   4.523  0.0385  0.1208  0.2436
21652W        W64668  19.832   2.051  17.940 -0.2873  0.2009 -0.2419
21653W        W64669  18.811   1.745   9.432  0.2326  0.0668 -0.0527
21654W        W64670   9.274   1.988  23.741 -0.0585  0.1093 -0.0893
21655W        W64671   4.996  26.688  20.688 -0.1893 -0.1798 -0.1208
21656W        W64672  30.513   8.481  21.141 -0.0071  0.1813 -0.0303
21657W        W64673  21.249   4.264  16.398  0.0532 -0.1352  0.0378
21658W        W64674  31.054  22.707  21.699 -0.2259  0.0538  0.0827
21659W        W64675  16.907  26.038  15.827 -0.0120 -0.1097  0.2409
21660W        W64676  25.872  25.726  26.559 -0.2042 -0.0494 -0.3271
21661W        W64677  25.274  16.491  15.113  0.0635 -0.0423 -0.1626
21662W        W64678   1.819  11.339  21.826  0.2374  0.1396 -0.0998
21663W        W64679  15.058   9.775  17.751 -0.2698 -0.1275  0.1180
21664W        W64680  24.919  25.919  22.880  0.0768 -0.2168 -0.2061
21665W        W64681  32.483  30.143  22.797 -0.2262  0.0585 -0.0584
21666W        W64682  27.561  20.597  21.882 -0.1357 -0.1287 -0.0078
21667W        W64683  24.500  18.666   1.286  0.3152  0.1455 -0.1666
21668W        W64684  25.330  13.368  18.402 -0.2428 -0.1727  0.0553
21669W        W64685  24.420   2.571  23.000  0.1044  0.3813  0.3487
21670W        W64686  22.739  19.336  22.251  0.0546  0.1537 -0.2528
21671W        W64687  28.677  17.272   3.312 -0.3400 -0.1462 -0.1684
21672W        W64688  22.405  14.315  29.290 -0.0499 -0.1063 -0.1104
21673W        W64689  30.071  23.232   3.525  0.0581  0.0481 -0.3348
21674W        W64690  16.910  32.006  24.571  0.1427  0.2837 -0.0599
21675W        W64691  33.793  32.351  25.285 -0.4619  0.1532  0.2288
21676W        W64692  22.758  13.682  13.785 -0.3428  0.3437  0.2394
21677W        W64693  29.227  18.023  19.641 -0.1770  0.0371 -0.0853
21678W        W64694  31.710  25.346  26.237  0.1491 -0.2046 -0.1189
21679W        W64695  20.603  23.179  25.825 -0.1345 -0.1061  0.1565
21680W        W64696   1.266  16.972   5.058  0.0200  0.0745 -0.1536
21681W        W64697  20.887  32.566   0.269 -0.0994  0.2491  0.1569
21682W        W64698  30.508  13.449  26.616  0.0011 -0.0231  0.2334
21683W        W64699  27.241  22.600  22.552  0.2270  0.0283  0.0700
21684W        W64700  13.708   7.896  16.643 -0.0468  0.1499  0.3902
21685W        W64701  23.310   4.121   3.420  0.3455  0.0821 -0.2109
21686W        W64702   8.624  23.459  19.425  0.0129  0.0795  0.0387
21687W        W64703  31.249   9.357  16.847 -0.0594 -0.0710  0.2114
21688W        W64704  26.253  13.281  26.391  0.0100 -0.0443 -0.1266
21689W        W64705  27.916   5.923  15.766 -0.1629  0.1326  0.1252
21690W        W64706  10.926  25.508  15.961 -0.0067  0.2669 -0.0900
21691W        W64707  27.153  30.038   2.169  0.0674 -0.1043  0.1020
21692W        W64708  16.579  27.917  23.910  0.2673  0.0211  0.2117
21693W        W64709  24.794  26.312   9.750  0.0077  0.0441 -0.3599
21694W        W64710  32.632  14.545  24.159  0.2764  0.3483  0.0667
21695W        W64711   6.374   8.298  27.913  0.0222 -0.0921  0.0180
21696W        W64712  11.382  16.432  12.311 -0.0635  0.1094 -0.0080
21697W        W64713  29.842   8.003  26.472  0.0913  0.2219  0.0618
21698W        W64714  26.717  21.990  15.378  0.0295 -0.0777  0.1555
21699W        W64715  28.428  17.348  19.053 -0.0352 -0.0542  0.0348
21700W        W64716  31.420  17.967  16.122 -0.1302  0.1413  0.1099
21701W        W64717  28.379  17.986   0.200 -0.1889 -0.0854 -0.2011
21702W        W64718  34.316  24.189  23.850 -0.2656 -0.4020 -0.0136
21703W        W64719  13.398  11.719  12.706  0.2778 -0.0184 -0.0549
21704W        W64720  20.709  26.206  17.578  0.2083  0.2036  0.1820
21705W        W64721  14.782  12.301  24.463 -0.1060  0.1388 -0.0123
21706W        W64722  34.624  13.633  23.579 -0.1595 -0.4926  0.0467
21707W        W64723  31.527  14.626  20.858  0.0570 -0.2079  0.0769
21708W        W64724  29.688   3.451  29.184  0.3076  0.0466 -0.4441
21709W        W64725  27.542  32.100  16.916  0.1785 -0.3911  0.1421
21710W        W64726  28.605  32.628  27.472  0.0958 -0.1607  0.2313
21711W        W64727  26.702  19.762  23.154  0.1671  0.4657  0.2348
21712W        W64728   2.505  16.918  13.521 -0.0469 -0.0040  0.1266
21713W        W64729  10.276  23.290   4.080 -0.2068  0.2429  0.0311
21714W        W64730  29.161   9.661  16.132 -0.0955 -0.2860 -0.2884
21715W        W64731   3.847  21.720  27.685  0.0667  0.1314  0.3515
21716W        W64732  25.064  20.644  18.692 -0.1362  0.1855  0.3171
21717W        W64733  27.527  13.839  24.541  0.1773 -0.0933  0.2316
21718W        W64734  13.763  14.324  15.321  0.2227  0.4511  0.0280
21719W        W64735  24.412   0.001  21.066 -0.0002 -0.1797 -0.0609
21720W        W64736  27.671  18.211  16.025  0.0023  0.2868 -0.0329
21721W        W64737  20.417  19.808   0.391 -0.0688  0.0907  0.0850
21722W        W64738  24.790  26.166  21.841 -0.1081 -0.0168 -0.1047
21723W        W64739   4.860   4.580  23.260  0.1302 -0.0216 -0.0449
21724W        W64740   6.450  18.840  14.042 -0.1799 -0.1810 -0.1350
21725W        W64741  25.523  21.195  21.973  0.0929 -0.0494 -0.2103
21726W        W64742  25.392   8.765  18.749 -0.3211 -0.1263  0.0519
21727W        W64743  26.828  34.618   7.805 -0.1153  0.0809 -0.2610
21728W        W64744   9.987   6.788  14.809  0.0815 -0.0640 -0.0236
21729W        W64745  18.506  22.501  16.258 -0.0219  0.2023 -0.0899
21730W        W64746  26.957  15.282  21.949  0.2966 -0.1046 -0.2681
21731W        W64747  17.929  21.846  16.798 -0.1933 -0.2523 -0.0479
21732W        W64748   2.274  13.030  18.419  0.2421  0.3456  0.0957
21733W        W64749  23.323  20.335   8.801  0.0057 -0.1209  0.0209
21734W        W64750  33.888  15.027  21.539 -0.0906  0.0983  0.1021
21735W        W64751  23.236  22.152   0.115  0.0200 -0.0949  0.3518
21736W        W64752  19.902   3.928   6.257  0.2596 -0.0480 -0.0353
21737W        W64753  27.046  12.843  25.373 -0.1571 -0.0462 -0.1522
21738W        W64754  27.492  11.392   0.549 -0.0140 -0.0069  0.1212
21739W        W64755   1.822  20.391  26.192  0.2131  0.1444  0.0296
21740W        W64756  28.078  32.966  16.997  0.1930  0.0802 -0.1216
21741W        W64757  30.228  17.342   4.830 -0.0434 -0.1847  0.0009
21742W        W64758  20.226  26.629  27.932 -0.0794  0.1205 -0.1163
21743W        W64759   0.977  11.558   4.972  0.0729  0.0089 -0.0493
21744W        W64760  28.556   8.926  19.654 -0.0211  0.0963  0.1065
21745W        W64761  23.082   4.119  20.059 -0.5269 -0.1379  0.0052
21746W        W64762  23.895  15.366  12.949 -0.1192 -0.1752  0.0400
21747W        W64763  28.537  26.705  20.347  0.2030 -0.0416  0.0505
21748W        W64764  19.374   8.680  24.599  0.0831  0.0412  0.2129
21749W        W64765  33.822  17.677   0.942 -0.0540  0.0079 -0.1096
21750W        W64766  25.935   3.732  26.669 -0.1085  0.0106  0.0971
21751W        W64767  22.526  18.042  28.683  0.1895  0.3043 -0.3240
21752W        W64768  10.365  15.958  13.654 -0.0554 -0.2263  0.1091
21753W        W64769  28.638  18.890  27.321  0.0242 -0.0333 -0.0136
21754W        W64770  17.939   8.096  25.118 -0.1207  0.1531  0.1412
21755W        W64771  20.920  14.284  23.166  0.0404  0.1245  0.0447
21756W        W64772  21.269  15.283  22.288  0.0432 -0.0029  0.1213
21757W        W64773  33.002  29.608  26.099 -0.2653 -0.3040 -0.2717
21758W        W64774  11.132  12.192   2.076 -0.1879 -0.1837  0.0858
21759W        W64775   4.845   8.560  22.591  0.1701  0.2017 -0.1287
21760W        W64776  18.809   2.675  17.665 -0.0263 -0.4759 -0.3417
21761W        W64777  18.540  20.888  21.207 -0.1098  0.2716  0.0839
21762W        W64778   3.242  20.978  28.657 -0.0884 -0.3219  0.1099
21763W        W64779  24.672  11.436  22.382  0.0407  0.1699 -0.0307
21764W        W64780  30.409  26.605   7.152 -0.3787  0.3044 -0.0742
21765W        W64781  22.588   8.392  26.445  0.0150 -0.1329 -0.0187
21766W        W64782   3.945  16.236  22.991 -0.1661 -0.2986  0.0030
21767W        W64783  23.320   9.784  14.910  0.3372  0.4414 -0.1574
21768W        W64784  24.364   8.676  28.602  0.0212 -0.0092 -0.1861
21769W        W64785  34.583  18.485   1.323 -0.0077  0.2005  0.2208
21770W        W64786  34.646   4.350  17.621  0.1914  0.0298  0.1763
21771W        W64787   1.737  23.574  22.134  0.3022 -0.0349  0.2728
21772W        W64788  33.215  14.215  21.097  0.1462 -0.2394 -0.4302
21773W        W64789  20.560  17.747  15.097 -0.2467 -0.1264  0.1644
21774W        W64790   2.549  27.005  23.213 -0.3838 -0.2398  0.2800
21775W        W64791  24.485   7.732   2.864 -0.2116  0.0115 -0.3488
21776W        W64792  18.545   7.936  25.383  0.0206  0.1124 -0.0989
21777W        W64793  14.921  14.526  26.711  0.1670  0.0048  0.2341
21778W        W64794   1.366  30.163   3.850  0.4078 -0.0815  0.2463
21779W        W64795  21.759  15.269  13.474 -0.1591  0.1268  0.2155
21780W        W64796  18.555   3.502  24.523 -0.0315  0.0229 -0.1793
21781W        W64797  26.574  24.152  28.906 -0.2652  0.1402  0.4296
21782W        W64798  24.666  19.570  24.645 -0.1172 -0.2515 -0.0274
21783W        W64799  26.646  27.160  15.732 -0.0245 -0.0842  0.2366
21784W        W64800   1.115  21.345  13.804  0.1899  0.1571  0.0450
21785W        W64801  23.530  17.517  16.591  0.0500 -0.0037 -0.1530
21786W        W64802  20.984  23.605  17.834  0.0634  0.1929 -0.1056
21787W        W64803  13.247  22.286  15.184  0.3137  0.0183  0.0449
21788W        W64804  13.347   2.101  19.061 -0.0433 -0.1556  0.3116
21789W        W64805  21.420   8.706  22.280  0.2063  0.1847  0.2029
21790W        W64806  19.248   5.766  22.304  0.2769  0.0236  0.0585
21791W        W64807  21.044  25.249  26.320 -0.1783  0.1065 -0.1947
21792W        W64808  13.680  22.431  14.090  0.1402  0.0251  0.1601
21793W        W64809  24.635  22.890  20.410 -0.0767  0.0750 -0.3033
21794W        W64810  22.145   9.255   9.407 -0.1961 -0.0643  0.0311
21795W        W64811  30.684  11.302  14.712 -0.1528  0.2360 -0.2948
21796W        W64812  22.741  26.225  25.607 -0.1682  0.4049  0.1535
21797W        W64813  13.529  22.712  24.569 -0.2157  0.1110 -0.2144
21798W        W64814  15.821  19.291  14.539 -0.1558  0.1285  0.2269
21799W        W64815  25.351  20.061  20.186 -0.0490  0.1848 -0.1502
21800W        W64816  18.687  30.049  23.022 -0.0590  0.1918 -0.1840
21801W        W64817  26.215  22.485   7.967 -0.3717  0.3133 -0.2650
21802W        W64818   8.964  23.722  15.158  0.2641 -0.2201  0.0893
21803W        W64819  25.848  19.078  28.569 -0.6371  0.1498 -0.3271
21804W        W64820  31.033  11.343   2.112  0.0766 -0.0790 -0.0352
21805W        W64821  18.985  31.294  24.820 -0.0781 -0.0662  0.2194
21806W        W64822  14.566   7.181  16.847 -0.1057  0.0880  0.0994
21807W        W64823   5.909  22.064  24.474  0.0489 -0.0340 -0.1546
21808W        W64824  13.578   9.168  14.258  0.0426  0.0803 -0.1731
21809W        W64825  32.449   8.152  14.967  0.1843  0.2709  0.2130
21810W        W64826  34.465  10.625  15.574  0.1590  0.0727 -0.0417
21811W        W64827  25.321  31.847  20.056 -0.0048 -0.2047  0.4982
21812W        W64828  14.365  22.793   3.563  0.4067 -0.0793  0.0444
21813W        W64829  24.700  17.652   4.525  0.2905 -0.0147 -0.0511
21814W        W64830  31.725  32.059   0.256  0.0766 -0.3465  0.0627
21815W        W64831  24.675   1.485  17.339  0.3072  0.0612  0.0139
21816W        W64832  10.027  19.073  18.426 -0.1497  0.1366  0.0628
21817W        W64833  21.087  24.036  15.023 -0.0414 -0.1296 -0.0739
21818W        W64834  31.907  22.784  10.380 -0.0046 -0.0675 -0.0908
21819W        W64835  23.404  20.113  15.955  0.1025 -0.4628  0.1092
21820W        W64836  16.555   8.945  14.404 -0.1024 -0.0163  0.1254
21821W        W64837  11.110   6.450  24.495 -0.1515  0.0932  0.0968
21822W        W64838  31.153  16.357  16.457  0.2112 -0.0907  0.1796
21823W        W64839  32.173   4.598   4.188  0.0985  0.2161 -0.0565
21824W        W64840   8.731  13.461  17.371 -0.2792  0.3463  0.2862
21825W        W64841   1.231  20.080  26.883  0.1279 -0.3037 -0.1807
21826W        W64842  25.439  19.073  14.593 -0.1764  0.1934  0.3212
21827W        W64843   5.779  32.290   4.048 -0.0067  0.0228  0.2296
21828W        W64844  21.510  13.703   1.428  0.1395 -0.1645  0.3471
21829W        W64845  16.342   8.316  15.288  0.0868  0.0453 -0.3586
21830W        W64846  27.048  16.806  15.910 -0.0533  0.2071  0.2460
21831W        W64847  18.105  17.220  20.529  0.1171  0.0583 -0.3133
21832W        W64848  13.708  19.513  13.956 -0.0563  0.0166 -0.0959
21833W        W64849  33.272  31.272  28.362 -0.1829  0.1113 -0.1667
21834W        W64850  25.391  23.106  24.172  0.2889 -0.1826  0.0417
21835W        W64851  33.194  33.104  23.306  0.1828 -0.0883 -0.1374
21836W        W64852  29.789  14.957  15.581  0.0129  0.1917  0.1081
21837W        W64853  31.751  12.180  23.139  0.2052 -0.0096 -0.0180
21838W        W64854   2.026  12.741   2.632  0.0241  0.0458  0.2416
21839W        W64855  29.827  34.083   0.293  0.0743 -0.0088  0.0420
21840W        W64856  18.502  13.214  28.004  0.0445  0.2619  0.0106
21841W        W64857   3.285   7.605  19.770  0.0624 -0.1829  0.0765
21842W        W64858  23.148  32.767  16.856 -0.0318  0.2454  0.0989
21843W        W64859  26.121  12.743  17.767  0.0407  0.1577  0.1190
21844W        W64860  15.081  25.264  28.552 -0.0511  0.2417 -0.1191
21845W        W64861  24.430  15.647  17.348 -0.0356  0.1525 -0.2176
21846W        W64862  30.639  20.759   3.028 -0.0262  0.3433 -0.1319
21847W        W64863  20.919  34.366  18.008  0.1189 -0.0397 -0.2679
21848W        W64864   5.447  18.978  20.812  0.1556  0.2231  0.1790
21849W        W64865   8.864  10.537  23.033 -0.0420 -0.2601  0.0712
21850W        W64866  15.701  15.926   2.125 -0.2106 -0.0168 -0.0514
21851W        W64867   0.256   2.286  16.340 -0.3593  0.0346 -0.2130
21852W        W64868  32.940  34.500   0.154 -0.3782 -0.1270  0.2454
21853W        W64869   5.643  28.132  16.380  0.1110 -0.0666 -0.0504
21854W        W64870  15.987  34.228  25.165 -0.2772 -0.0935  0.0587
21855W        W64871  26.625  18.397  20.589 -0.0560  0.2730  0.0053
21856W        W64872  11.199  10.527   2.389 -0.1260  0.2506 -0.1243
21857W        W64873  32.442   5.778   3.580 -0.0484  0.0714 -0.0754
21858W        W64874  15.535  18.599  27.771  0.0619  0.3946  0.2553
21859W        W64875  24.578   9.200  18.798  0.0050  0.3584 -0.1122
21860W        W64876  31.350  24.810  16.896  0.1994 -0.0031 -0.0276
21861W        W64877  22.719  11.591  25.863  0.2000 -0.1161  0.1957
21862W        W64878  21.467  19.038   1.023  0.2397 -0.4239  0.0405
21863W        W64879  21.024  14.463   3.702  0.1488  0.0656  0.1748
21864W        W64880   4.294  18.047   2.358 -0.0378 -0.2109  0.0599
21865W        W64881   3.956  14.098   0.412 -0.7611 -0.1259 -0.0278
21866W        W64882  14.941   4.962  19.470 -0.1680 -0.1522 -0.2144
21867W        W64883  16.762   1.840  28.590  0.2481  0.0333 -0.0605
21868W        W64884  23.346  17.450  18.503  0.1251 -0.1821 -0.1967
21869W        W64885   1.677   1.797  18.927 -0.0141  0.2105 -0.1111
21870W        W64886  22.281  30.947  24.839 -0.2867 -0.1034  0.0350
21871W        W64887  22.194   4.973   9.888 -0.0767 -0.0488  0.0302
21872W        W64888   4.561  19.812   8.419 -0.1096  0.1050 -0.0955
21873W        W64889  20.212  25.755  25.690 -0.4547 -0.0167 -0.3177
21874W        W64890  28.440  27.693   3.171  0.0591 -0.2338 -0.0262
21875W        W64891  19.346  10.287  24.235 -0.0986 -0.0331  0.0433
21876W        W64892  23.957  20.089   9.323 -0.4348 -0.2580 -0.0165
21877W        W64893  32.317   3.552  26.495  0.1835  0.2452  0.1191
21878W        W64894   0.905  12.987  19.914 -0.0956  0.0931  0.1020
21879W        W64895  23.100  16.586   5.278  0.0549  0.2066 -0.1399
21880W        W64896   2.363  30.766  24.063  0.0412 -0.0412 -0.1556
21881W        W64897  24.480  10.541  18.942  0.5281 -0.1756  0.0500
21882W        W64898   3.789  23.677  20.249  0.3065 -0.2929 -0.0891
21883W        W64899  24.000  10.677   0.648  0.1004  0.1060 -0.5310
21884W        W64900  21.479  21.618   6.520  0.3047  0.1545 -0.1555
21885W        W64901  21.617  17.726   5.852  0.3447 -0.1333 -0.0943
21886W        W64902  19.852  11.477  21.641  0.0845  0.0458  0.2525
21887W        W64903  31.605  27.094  24.354  0.1220 -0.2499  0.0469
21888W        W64904  30.023  25.736  25.632  0.1593  0.0620  0.1120
21889W        W64905  16.576  17.638  28.089  0.1082 -0.0011 -0.2084
21890W        W64906  10.887   1.908  21.773  0.2488 -0.0268  0.2393
21891W        W64907  20.561  22.977  18.530  0.1302 -0.1436  0.5603
21892W        W64908  34.417  15.622  27.055  0.0038  0.2637  0.1004
21893W        W64909   0.281  29.946   9.275  0.0918 -0.0599 -0.0717
21894W        W64910  25.737  12.421  23.862  0.2656  0.3631 -0.2599
21895W        W64911   0.077  20.155  25.854 -0.3678  0.0869  0.0119
21896W        W64912   1.113  24.515  17.162 -0.1120  0.2972  0.1126
21897W        W64913  32.585  14.309  26.633 -0.0608  0.0713 -0.2565
21898W        W64914  22.619  10.476  28.198  0.1410 -0.0635  0.0334
21899W        W64915  16.874  12.779  12.024 -0.0343 -0.0537  0.1359
21900W        W64916  23.243   9.232  15.096  0.0083 -0.2688 -0.0032
21901W        W64917  23.771   4.547  19.052 -0.1810 -0.3227  0.2191
21902W        W64918  22.375   5.989  21.074  0.1450  0.3057 -0.0355
21903W        W64919  24.252  28.920  23.049 -0.1019  0.3113 -0.0998
21904W        W64920  14.569  14.579   1.316  0.2785  0.1583 -0.0318
21905W        W64921  21.627  11.547  14.771 -0.0317  0.0183  0.1511
21906W        W64922   6.459  22.811  15.409  0.2109  0.0792 -0.1551
21907W        W64923  16.943  20.737  28.266 -0.0383  0.0349 -0.0060
21908W        W64924  25.688  14.777   2.333 -0.2267 -0.1841 -0.0726
21909W        W64925  20.014  16.264  27.851 -0.0932 -0.2339  0.1059
21910W        W64926  23.444  19.023   6.277  0.0355  0.1745 -0.3385
21911W        W64927  17.603   2.362  15.572 -0.2151 -0.1116 -0.0365
21912W        W64928  19.425  28.066   3.290  0.2265 -0.2639 -0.2368
21913W        W64929  30.982  13.892  14.699 -0.2335  0.2236 -0.2109
21914W        W64930  31.088   7.288  25.919 -0.2193 -0.2039  0.0027
21915W        W64931  13.672  28.769  20.888  0.0476  0.3395  0.1914
21916W        W64932  19.776  29.741  20.997 -0.2821 -0.2204  0.1210
21917W        W64933  27.380  18.863  21.635  0.1447  0.0735  0.4543
21918W        W64934  13.204  34.387   1.485  0.0558 -0.2229  0.2154
21919W        W64935   5.347  11.775  24.150  0.1874 -0.0895  0.2634
21920W        W64936  29.620  14.160   0.434  0.1362 -0.0232 -0.2072
21921W        W64937  30.549  24.818  15.835  0.2271 -0.0481  0.0458
21922W        W64938   9.601  26.167   8.801  0.0468 -0.2712  0.1005
21923W        W64939   3.258   1.665  26.621 -0.1329  0.1764 -0.0388
21924W        W64940  21.381   9.252  26.603 -0.3410  0.1289  0.2031
21925W        W64941  29.616  26.746  27.686  0.3777 -0.0509  0.0956
21926W        W64942   6.052   4.175   7.567  0.3326 -0.1377  0.0730
21927W        W64943   9.524  13.329  14.623  0.0674 -0.1923  0.5210
21928W        W64944  23.424   5.630  25.833 -0.2164  0.2007 -0.0656
21929W        W64945  15.727  20.733  25.343  0.0163 -0.2792 -0.2827
21930W        W64946  34.111  17.161  22.397 -0.2178 -0.0004 -0.4192
21931W        W64947  20.261   3.913   2.321  0.2227 -0.1099  0.3176
21932W        W64948  31.242  23.139  23.596 -0.1205 -0.2319 -0.0381
21933W        W64949  16.647   7.448  20.874  0.3030  0.1121  0.4663
21934W        W64950   1.290  23.629  23.414 -0.1678 -0.2156 -0.5510
21935W        W64951  31.675  22.921  25.762 -0.6074 -0.1768 -0.1758
21936W        W64952   0.771  27.486  21.425  0.2965  0.0599  0.1322
21937W        W64953   1.073  28.118  23.525 -0.4653  0.0016 -0.1493
21938W        W64954  34.420   7.932  17.655 -0.4169  0.1015 -0.1873
21939W        W64955   9.024  13.223  18.917  0.1111  0.1212  0.1526
21940W        W64956   3.003   9.086   0.226  0.3209  0.1242 -0.0131
21941W        W64957   8.366  21.946  23.625 -0.0247 -0.1037 -0.2071
21942W        W64958  30.791  19.995  26.892  0.1307  0.3211  0.1015
21943W        W64959  23.194   6.665   5.318  0.2769  0.2010  0.0456
21944W        W64960  31.475   4.533  25.518 -0.0673  0.1626 -0.1427
21945W        W64961  25.230  15.697  24.716  0.0341  0.3276  0.3428
21946W        W64962   7.197  20.513   8.147  0.1260  0.0675 -0.4486
21947W        W64963  27.074  20.232  18.134  0.0156  0.4385 -0.2538
21948W        W64964   6.884  24.585  23.297  0.1182 -0.0567 -0.0956
21949W        W64965  31.899  27.984  18.302 -0.1218 -0.0202 -0.2260
21950W        W64966  26.839  14.447  17.295  0.0118  0.1643 -0.3517
21951W        W64967  28.550   6.686  24.786  0.0472 -0.0125  0.2302
21952W        W64968   5.509  29.981  18.948  0.4070  0.4657  0.0907
21953W        W64969   4.663  22.706  28.297 -0.2233 -0.1585 -0.1187
21954W        W64970  21.279  21.240  24.526 -0.1524  0.0592 -0.0258
21955W        W64971  19.788  23.919  14.699 -0.0836  0.2497 -0.2355
21956W        W64972   5.649  14.740  27.513  0.1552 -0.0350 -0.1798
21957W        W64973  27.810  12.792   0.140  0.1573 -0.1458 -0.0136
21958W        W64974  11.657  28.421  17.237 -0.2059  0.1073 -0.0370
21959W        W64975  12.278  12.989  16.792 -0.0486 -0.0997 -0.1730
21960W        W64976  24.529  13.783   3.646 -0.2395  0.2218 -0.1008
21961W        W64977  19.458  23.208  26.547 -0.2899  0.0612  0.0674
21962W        W64978  25.646  23.305  19.602 -0.0883  0.0020  0.2028
21963W        W64979  30.391  30.212  20.154  0.2075  0.3399  0.1270
21964W        W64980  25.494  12.686   4.181 -0.4152  0.0927  0.2633
21965W        W64981  24.931  26.863   3.670  0.0209  0.0424  0.0680
21966W        W64982  23.672  34.631  20.338 -0.1791  0.2144 -0.0893
21967W        W64983  32.481  17.042   1.320  0.0034 -0.2105  0.1237
21968W        W64984  32.743   6.522  23.187  0.2305  0.0345  0.0097
21969W        W64985   6.651  22.285  13.100 -0.2798 -0.0994  0.0252
21970W        W64986  25.609   5.668   2.234  0.2015 -0.2564 -0.2281
21971W        W64987  23.517  21.418  14.194  0.0681  0.0870  0.0394
21972W        W64988  16.187  10.746  20.942 -0.2063 -0.2705  0.1843
21973W        W64989  30.543   9.508  27.365  0.1133 -0.1225 -0.0673
21974W        W64990  21.825   4.169  17.612 -0.1324  0.1345  0.3519
21975W        W64991   3.535  20.750  27.866  0.0562 -0.0452 -0.0214
21976W        W64992   3.972  14.386  24.838  0.0804 -0.1532 -0.1661
21977W        W64993   0.964   6.686  18.634  0.1060  0.0698  0.0342
21978W        W64994  27.572   1.729   6.545  0.0179  0.0525 -0.0041
21979W        W64995  22.748  15.873   2.040  0.0288 -0.0123  0.2339
21980W        W64996  26.335  33.138  19.167  0.0043  0.0029 -0.0262
21981W        W64997  18.875  33.988  17.953  0.0683  0.0781  0.1432
21982W        W64998   2.027  33.458  25.491  0.2081 -0.0779 -0.0512
21983W        W64999  28.092  21.361  20.776  0.0358 -0.0720  0.2279
21984W        W65000  19.438  10.096   3.327 -0.0811 -0.2748  0.1898
21985W        W65001  32.177  19.873   4.792 -0.1346 -0.1611  0.3432
21986W        W65002  13.595   3.809   8.381  0.1945 -0.0175 -0.2829
21987W        W65003  15.507  11.055  19.853  0.1018 -0.2551  0.0773
21988W        W65004  23.295  17.343   8.516 -0.0716 -0.1898 -0.0989
21989W        W65005   7.510  11.126  13.570 -0.1950  0.0758  0.0108
21990W        W65006   2.955   2.478  23.143 -0.1109  0.1438 -0.0201
21991W        W65007   4.375  20.172  24.465  0.1021 -0.0677  0.0063
21992W        W65008  16.154   5.620   0.978 -0.1502 -0.1802  0.1115
21993W        W65009  27.248  10.098  22.904  0.0607  0.0366  0.3810
21994W        W65010  29.362  15.226  22.695  0.0273  0.1475 -0.3189
21995W        W65011  18.916  12.636  15.074  0.0724  0.3161  0.0044
21996W        W65012  24.153  16.798  20.658 -0.0713  0.2326  0.0999
21997W        W65013  13.600  17.502  13.151  0.0621 -0.0572  0.2412
21998W        W65014  21.057  16.095  27.725  0.2307 -0.0259  0.1411
21999W        W65015  29.792  10.875  16.737 -0.2282  0.1035  0.0466
22000W        W65016  23.400  28.774  25.535 -0.0003 -0.0328  0.1463
22001W        W65017  10.427  13.254   5.133  0.0158  0.0802 -0.1294
22002W        W65018   8.221  12.812   9.258  0.2305  0.1319 -0.4098
22003W        W65019  19.365  13.243  27.778 -0.1165  0.3958 -0.2819
22004W        W65020  21.158   8.361  14.315 -0.3755  0.0693 -0.0972
22005W        W65021  27.290   9.798   1.548 -0.3133  0.3433 -0.1354
22006W        W65022  19.975  30.545  16.596 -0.1225 -0.0847  0.3293
22007W        W65023  26.725  13.793  23.532  0.0109  0.1831  0.1619
22008W        W65024  31.149   7.183   5.913  0.1374 -0.0627 -0.1687
22009W        W65025  29.787  10.148   7.014 -0.1647  0.2923  0.1935
22010W        W65026   4.669  20.652  22.333 -0.1437 -0.0971 -0.0437
22011W        W65027   5.562  15.511  16.221 -0.0320  0.0927  0.0469
22012W        W65028  23.144  23.700   2.916  0.2748  0.2519  0.1370
22013W        W65029  24.495   2.392   0.439 -0.1253 -0.1197  0.3097
22014W        W65030  30.576  27.838  27.347 -0.1666 -0.1940 -0.2204
22015W        W65031  21.270   6.068   2.128  0.0971  0.3780 -0.0067
22016W        W65032   3.713  22.033  19.557  0.1724 -0.3047 -0.2437
22017W        W65033  21.567  30.916   4.108  0.1203  0.0526 -0.2344
22018W        W65034  28.952  14.205  25.264  0.2258  0.2673 -0.2640
22019W        W65035  33.562   8.550  17.045  0.0183  0.1861  0.0143
22020W        W65036  23.040  11.766  19.548  0.1767  0.2172  0.0613
22021W        W65037  12.170   2.655  26.502 -0.0801  0.0802 -0.0564
22022W        W65038   6.139  12.585   7.980  0.0531 -0.1456 -0.2055
22023W        W65039  18.547   6.383  21.538  0.1969 -0.1017  0.1627
22024W        W65040   8.434  21.552  27.088  0.0887  0.0247 -0.2792
22025W        W65041  19.837  29.511  26.003 -0.0482  0.0038 -0.1341
22026W        W65042  14.265  19.428  11.923  0.0509 -0.0359 -0.0291
22027W        W65043  24.548  22.179  25.300  0.2026  0.0124  0.2546
22028W        W65044  15.452   6.561  15.051  0.2431  0.1931  0.2371
22029W        W65045  25.757  13.311  26.550 -0.0828 -0.2573  0.0103
22030W        W65046   0.055  10.974  27.980  0.3550 -0.0123 -0.0542
22031W        W65047  24.721  19.266  28.942  0.2795 -0.1362  0.1578
22032W        W65048   4.779  12.479   4.694  0.0116  0.2167 -0.1337
22033W        W65049  23.553   7.444  19.208  0.2717  0.1233 -0.0029
22034W        W65050  30.899  12.979  22.540  0.0714  0.1278  0.1576
22035W        W65051  12.454  20.771   8.360  0.1943 -0.1004  0.0769
22036W        W65052  24.977  19.842  24.309 -0.3637 -0.1799 -0.2528
22037W        W65053  28.544  28.787   2.731 -0.3722  0.5024 -0.2658
22038W        W65054  22.543   8.226  24.097 -0.0098  0.0799 -0.0510
22039W        W65055  24.043  25.756  20.155  0.0030 -0.1392 -0.3043
22040W        W65056  10.758  15.886   0.192  0.0332 -0.1231  0.0161
22041W        W65057  20.061   9.535   3.218 -0.3765 -0.1888  0.0940
22042W        W65058  25.453   9.743  20.211 -0.1259  0.3011 -0.5289
22043W        W65059   2.414  16.482  15.729  0.1035  0.4155  0.0909
22044W        W65060  26.678  34.400  19.886  0.1967 -0.0735 -0.2280
22045W        W65061  31.343  17.311  19.712 -0.0250 -0.2609 -0.1775
22046W        W65062  28.957  11.158  26.401  0.2529 -0.1413 -0.0019
22047W        W65063   5.251  31.488   2.035 -0.1478  0.1819  0.0279
22048W        W65064   8.034  10.349  14.370 -0.0769  0.0341 -0.2308
22049W        W65065  12.361  34.492  28.178 -0.0955 -0.2438  0.0924
22050W        W65066  31.684  25.117  28.492 -0.1435  0.4059 -0.0246
22051W        W65067  22.664  18.932   1.934 -0.0414  0.0429 -0.0560
22052W        W65068  27.016  20.025   3.103 -0.0699  0.1155  0.0014
22053W        W65069  27.316  13.758  27.006 -0.0770  0.0328  0.0501
22054W        W65070  24.642   6.297  28.194  0.1015 -0.4038  0.2073
22055W        W65071  33.231  19.082  18.349 -0.0127 -0.0391  0.1587
22056W        W65072  24.909  17.298  19.379 -0.1120  0.1160 -0.2521
22057W        W65073  27.829  17.715  14.988  0.0106 -0.0206  0.2383
22058W        W65074  16.866  10.080  18.365 -0.1907 -0.2568 -0.1587
22059W        W65075  30.257  10.253  17.156 -0.0564  0.1599  0.1163
22060W        W65076  33.842  11.483  21.453 -0.1796 -0.2741  0.1294
22061W        W65077  16.237  11.721  19.173 -0.3608 -0.0003  0.0653
22062W        W65078  20.986   5.229  17.909 -0.1172  0.2886  0.3527
22063W        W65079  34.412  20.044  24.255 -0.0067 -0.0588 -0.1382
22064W        W65080  30.139  11.822  21.130  0.1888  0.0718  0.0631
22065W        W65081   1.012  14.837  19.158 -0.3818  0.3000  0.0205
22066W        W65082  17.826   6.021  28.060 -0.2413  0.0330  0.1957
22067W        W65083  29.952  30.759  23.495 -0.0508 -0.0640  0.2952
22068W        W65084   7.814  18.866  23.213 -0.3514  0.1938  0.0032
22069W        W65085   6.716   9.394   9.430  0.2725  0.1985 -0.1667
22070W        W65086  24.381  16.440   4.287 -0.0175  0.0813 -0.2610
22071W        W65087   7.914  15.887  23.259  0.0579  0.1887  0.1760
22072W        W65088   0.253  21.373   5.025 -0.0727  0.2836 -0.0073
22073W        W65089  21.386   0.484  22.072 -0.1108 -0.0495  0.2341
22074W        W65090  32.909   6.352   1.770 -0.0077 -0.1850 -0.0306
22075W        W65091  15.731   8.583  14.863  0.0523 -0.2698 -0.1780
22076W        W65092  33.689  19.877   8.006 -0.0647 -0.2300 -0.3327
22077W        W65093  29.767  19.132  23.682  0.3957 -0.1575 -0.0738
22078W        W65094   7.300  19.155  24.023 -0.3305  0.4429  0.2013
22079W        W65095  24.189  21.633   2.141 -0.1450 -0.1031  0.1514
22080W        W65096   7.473  21.471  18.211  0.1649 -0.1309  0.2116
22081W        W65097  33.729  19.673  16.052  0.1063  0.0640  0.1855
22082W        W65098  31.425  30.264  12.130  0.1078 -0.0297  0.1127
22083W        W65099  27.671  14.261  22.110  0.2720 -0.3309  0.2393
22084W        W65100  28.958  31.974  25.380 -0.1557  0.3898 -0.5483
22085W        W65101  21.572   3.284   5.635  0.1002  0.2306 -0.3590
22086W        W65102  34.460  25.785  15.726  0.0565  0.1149 -0.1526
22087W        W65103  29.370  17.533  18.856  0.2080 -0.0421  0.1544
22088W        W65104  18.622  17.428  26.026  0.0690  0.1167 -0.4370
22089W        W65105  13.199  16.297  22.072 -0.1860 -0.2183 -0.1289
22090W        W65106  20.876  17.435  28.051  0.2069  0.1913 -0.0117
22091W        W65107  22.692   8.264  10.057  0.1412  0.3201  0.0151
22092W        W65108  17.645  20.184  12.093 -0.0818 -0.4151  0.0225
22093W        W65109  22.666  22.453   0.649  0.0094  0.4038 -0.2716
22094W        W65110   0.709  20.227  23.206 -0.1236 -0.0707  0.3298
22095W        W65111  26.319  12.445  15.961 -0.4943  0.2283  0.0815
22096W        W65112   5.389  16.331  26.373 -0.3289 -0.2748 -0.2048
22097W        W65113  27.108  23.774  28.199 -0.0798  0.0753 -0.0886
22098W        W65114   2.942  14.695  23.893 -0.2319 -0.0580  0.0484
22099W        W65115   4.823  15.740  22.950 -0.0303 -0.0001 -0.1062
22100W        W65116  20.364  23.511   2.823  0.0767 -0.1706  0.0972
22101W        W65117  32.200   1.306  19.114 -0.1778 -0.3077  0.2213
22102W        W65118  23.649  13.577  15.319 -0.0857 -0.0807 -0.1652
22103W        W65119  23.924  16.639  17.708  0.0600  0.2037 -0.2179
22104W        W65120   3.166  13.575  20.637  0.0322  0.1772 -0.1860
22105W        W65121   7.962   4.293  24.842 -0.2451  0.4467 -0.1554
22106W        W65122  18.767  20.892   3.782 -0.0984 -0.0085 -0.1834
22107W        W65123  27.948  11.389   7.514 -0.1145 -0.1235  0.1849
22108W        W65124  30.679  14.153  28.717 -0.0168 -0.0131  0.1623
22109W        W65125  33.437   4.381   0.215  0.1722 -0.3216 -0.1826
22110W        W65126   1.551  17.147   7.256  0.3542 -0.0290  0.0310
22111W        W65127  29.274  22.895  25.396 -0.0886 -0.0922  0.3053
22112W        W65128   6.437  33.798  18.187  0.1709 -0.1388  0.0609
22113W        W65129  28.991  30.023  18.570  0.0422 -0.2845 -0.1182
22114W        W65130  28.570  21.042   3.578 -0.1358 -0.1322 -0.0112
22115W        W65131  33.532  29.978  27.159  0.0325  0.0649 -0.2231
22116W        W65132  34.164   6.359   0.954  0.2444 -0.2479 -0.1337
22117W        W65133  31.747   7.456   0.427  0.1600 -0.3652  0.1401
22118W        W65134  32.725  14.301  27.848 -0.1959  0.0033 -0.0562
22119W        W65135   9.016  25.991  20.645 -0.0047 -0.1687  0.2130
22120W        W65136  24.117  22.259  25.095  0.0045  0.4111 -0.2138
22121W        W65137  13.558  12.109  21.706  0.3020  0.1764  0.2430
22122W        W65138   4.056   3.786   9.574  0.2737 -0.0696 -0.0715
22123W        W65139  22.288  31.457  23.297 -0.0515  0.1488 -0.4048
22124W        W65140  18.531  18.401   1.666 -0.5153 -0.4985  0.0317
22125W        W65141  23.700  17.286  22.358 -0.1664 -0.0996 -0.0053
22126W        W65142   1.628  25.914  18.784 -0.0978  0.2158  0.1789
22127W        W65143  12.580  30.410  22.561 -0.1638 -0.0187  0.0427
22128W        W65144  32.380  14.210  26.030 -0.1437  0.0888  0.2092
22129W        W65145  16.155   8.093   1.855 -0.2639 -0.1192 -0.2776
22130W        W65146  31.865  12.114  19.813  0.0192  0.1823 -0.1780
22131W        W65147  16.672  27.210  20.504  0.0393  0.1741  0.1098
22132W        W65148  15.595  23.683  25.862 -0.1655  0.0481 -0.2494
22133W        W65149   8.265  30.370   0.198  0.0957 -0.0754  0.1476
22134W        W65150  31.061   4.732   4.527 -0.0477 -0.1779 -0.1160
22135W        W65151  33.514  28.554   1.216  0.0261  0.0870 -0.0865
22136W        W65152  25.815  18.640  16.458  0.3421  0.3270  0.0363
22137W        W65153   9.211  23.065   0.747  0.2024 -0.2358 -0.0184
22138W        W65154  20.765  15.805  13.461  0.2474 -0.1265 -0.0513
22139W        W65155   2.040  24.537   2.084  0.0631 -0.2163 -0.0081
22140W        W65156  22.949  20.171  25.041 -0.2302  0.1464  0.3684
22141W        W65157  28.767  16.724  28.683 -0.0294 -0.3662  0.0613
22142W        W65158  23.887  12.498   0.671  0.0254 -0.0254 -0.1297
22143W        W65159   7.103  18.101   4.621 -0.0113 -0.0297 -0.0682
22144W        W65160  28.415  11.875   0.927  0.1613 -0.2578  0.2901
22145W        W65161  30.959  17.112   3.502  0.0216  0.0338  0.3916
22146W        W65162  19.895  15.903  29.248 -0.1638  0.0712 -0.1583
22147W        W65163  28.505  21.869  21.492  0.0546 -0.0511 -0.0182
22148W        W65164  25.922  31.326  25.927 -0.0444  0.0345 -0.2585
22149W        W65165  30.887  26.405   2.519  0.1172 -0.1925 -0.0171
22150W        W65166  29.885  18.764  27.050 -0.0290 -0.0555 -0.0380
22151W        W65167  19.905   1.081  19.535  0.3849  0.1646  0.0135
22152W        W65168  31.604  18.790   3.334 -0.1215  0.0227  0.1882
22153W        W65169  27.725   0.092   0.716  0.0542 -0.0027 -0.0486
22154W        W65170  10.092   4.361  27.525  0.0855 -0.2266  0.0969
22155W        W65171  12.425  26.308  13.696  0.1491  0.0350 -0.3194
22156W        W65172  32.324  12.678   1.452 -0.0061  0.4679  0.2740
22157W        W65173  23.575  18.695   4.533  0.1440 -0.0880 -0.0910
22158W        W65174  12.855  20.717   8.030  0.0067  0.1283 -0.1416
22159W        W65175   2.092  15.390  19.527 -0.1929  0.1481  0.1147
22160W        W65176  23.266  28.648  16.888  0.0327 -0.0797 -0.1694
22161W        W65177  23.480   9.802  23.699 -0.2647 -0.1025 -0.0232
22162W        W65178  13.916  16.986  21.977 -0.1134  0.2768  0.1140
22163W        W65179  30.201  27.296   6.382  0.0173  0.4489 -0.2276
22164W        W65180  17.929   9.049  17.808  0.1305  0.1060 -0.0418
22165W        W65181  29.543  31.612   2.210  0.1356  0.1080  0.1228
22166W        W65182   7.506  14.592   4.468 -0.0389  0.0683 -0.1588
22167W        W65183  23.489   3.976  24.996  0.1861 -0.0070 -0.0818
22168W        W65184  32.437  10.811  23.142  0.2375 -0.0190  0.1345
22169W        W65185  23.154  22.642  22.201  0.1612 -0.0803  0.1984
22170W        W65186  11.876  24.073  20.326 -0.0490 -0.2224 -0.3438
22171W        W65187  26.714   7.547  21.904 -0.0782 -0.1180 -0.0636
22172W        W65188  21.451   2.325   4.081  0.0921 -0.1145  0.0063
22173W        W65189  23.614  25.004   4.298  0.0448  0.1230  0.1311
22174W        W65190  34.657  34.551  19.203  0.0438 -0.1376 -0.0187
22175W        W65191  19.963  19.209  15.382 -0.0355  0.0144  0.5167
22176W        W65192  15.081  17.801   3.565  0.2060 -0.0124 -0.1588
22177W        W65193  32.292  16.918  18.174  0.1100  0.4405 -0.1324
22178W        W65194  17.143  24.424  17.723 -0.2670  0.2104  0.0081
22179W        W65195  25.930   0.294  28.718  0.0742 -0.1576  0.3141
22180W        W65196  11.065   6.268   7.741  0.1106 -0.0037  0.1677
22181W        W65197  29.580   6.527  27.661  0.1448  0.2059 -0.1083
22182W        W65198   2.843  17.830  16.922  0.2170  0.2210  0.2659
22183W        W65199  26.485   5.305   1.105  0.2807  0.3177  0.0821
22184W        W65200   0.561  28.937  28.248  0.3217  0.0347 -0.1542
22185W        W65201  28.623  18.704  21.318 -0.0972  0.0598  0.0380
22186W        W65202  33.188  22.206  23.932  0.1272 -0.0248 -0.0232
22187W        W65203  27.505  29.558  19.645  0.0173  0.3212 -0.2123
22188W        W65204  29.008  17.654  20.728  0.2226 -0.0281  0.2044
22189W        W65205  14.687  17.911  14.747  0.0717  0.0321  0.1129
22190W        W65206   6.678  32.983   5.103 -0.1687  0.0232 -0.0231
22191W        W65207  32.450   5.602   1.217  0.1522 -0.2249  0.1470
22192W        W65208  20.358   3.221   4.330  0.1732 -0.0312 -0.0483
22193W        W65209   0.498   9.260  28.830 -0.2148 -0.0055 -0.0981
22194W        W65210  31.212  15.202  22.740  0.2869 -0.0631  0.1695
22195W        W65211  12.627  14.675  19.597 -0.1929 -0.2298 -0.1871
22196W        W65212  14.092  15.149   6.709 -0.2757 -0.0695  0.1400
22197W        W65213  28.372  32.500  21.019 -0.0671 -0.0810 -0.2261
22198W        W65214  23.964  27.887   1.073 -0.0021 -0.0165  0.1862
22199W        W65215   8.317  23.774  19.718  0.0464 -0.1311 -0.2644
22200W        W65216  22.269  15.506  22.342 -0.2036 -0.3561  0.2288
22201W        W65217  13.265  28.933  23.005 -0.3113  0.2685 -0.0301
22202W        W65218  18.015  29.970  20.655 -0.0012  0.2130  0.0023
22203W        W65219   8.929  14.056  26.697 -0.0942 -0.3018  0.1933
22204W        W65220  17.163  22.881  28.916 -0.0897  0.1713  0.1658
22205W        W65221  29.117  12.384  22.813  0.0283 -0.0380  0.0668
22206W        W65222  23.821  10.364  28.011 -0.1700  0.0645 -0.0669
22207W        W65223  28.833   6.217  28.191 -0.0528  0.0888 -0.0691
22208W        W65224  26.592   1.828  25.588  0.2020 -0.0376  0.0846
22209W        W65225  33.920  25.221  14.797 -0.1759  0.1858 -0.1064
22210W        W65226  28.531  18.924  26.113  0.1960 -0.1912  0.0141
22211W        W65227  29.418  14.644   8.022  0.1486 -0.0655  0.0516
22212W        W65228  31.321   7.311  23.687  0.2650  0.0305  0.1288
22213W        W65229  11.134   7.164   8.223 -0.2009 -0.2135  0.0422
22214W        W65230  10.206   2.010  24.317 -0.0049  0.0958  0.1563
22215W        W65231  20.987  12.570  23.135 -0.0944  0.0513 -0.2532
22216W        W65232  28.606   8.573   8.396 -0.0908 -0.1514 -0.0246
22217W        W65233  28.514  12.320  16.670  0.4228  0.0663  0.0310
22218W        W65234   3.064  16.621  28.865 -0.2301  0.1151  0.0184
22219W        W65235  31.966  12.379  29.271  0.2195  0.1713  0.2560
22220W        W65236  19.749  14.256  26.888  0.0029 -0.1863 -0.1608
22221W        W65237  25.097  13.339  13.875  0.2307 -0.1315 -0.2465
22222W        W65238  30.793   9.921   1.874  0.1371 -0.1641 -0.0230
22223W        W65239  19.520   8.031  22.516  0.0846  0.2398  0.2118
22224W        W65240  30.113  20.771  21.344 -0.0560  0.0032 -0.0660
22225W        W65241  22.628  29.772  22.138 -0.0037 -0.0802  0.2826
22226W        W65242  29.789   8.259  25.163 -0.0985 -0.2025 -0.0627
22227W        W65243  27.610  10.666   2.566  0.2899 -0.0773 -0.2361
22228W        W65244  34.554   6.639   1.085 -0.2943 -0.0515 -0.2566
22229W        W65245  14.930  34.355   9.704  0.2711  0.0219 -0.1307
22230W        W65246   6.118  18.802   4.360  0.2002 -0.2418 -0.0132
22231W        W65247  20.583   6.074  24.682  0.0248 -0.2844  0.0740
22232W        W65248   2.236   9.530  17.230  0.4220  0.0507  0.0926
22233W        W65249  28.937  26.026  22.797  0.3807 -0.0817 -0.4818
22234W        W65250  23.315   5.658  23.648  0.0410  0.0383  0.1260
22235W        W65251   0.224   6.687   9.349 -0.3387 -0.1409  0.3639
22236W        W65252  24.118   0.767  15.723 -0.0897 -0.0087  0.2468
22237W        W65253  23.130  23.099   4.113  0.1278 -0.0573  0.0590
22238W        W65254  32.724  29.153   4.827 -0.0806 -0.0104 -0.2235
22239W        W65255   5.952  14.364  24.125  0.2228  0.1893  0.1895
22240W        W65256   8.402   3.012  22.911 -0.0169  0.0458 -0.0277
22241W        W65257   8.366  13.621  18.254  0.1257  0.1543 -0.1404
22242W        W65258  27.794   5.781   3.336 -0.2023 -0.3584  0.3306
22243W        W65259  33.426  28.173   0.946 -0.2836 -0.0517 -0.0213
22244W        W65260  28.771  20.938  24.263  0.2616  0.3434 -0.1065
22245W        W65261  15.432  20.096  14.443  0.1215  0.1807  0.2978
22246W        W65262  29.485  22.632  23.173  0.1454 -0.0584  0.2456
22247W        W65263  19.564  26.378  25.641  0.0217 -0.2137 -0.0506
22248W        W65264   8.779   5.077   8.987 -0.0497  0.1225 -0.1571
22249W        W65265  25.272  12.483   2.384  0.3450 -0.0942 -0.1824
22250W        W65266  28.259  13.643  21.220 -0.1147  0.0278  0.0665
22251W        W65267   8.363  19.545  14.588 -0.0149  0.1420  0.2924
22252W        W65268   6.574  18.066  24.512 -0.0894  0.2515 -0.3225
22253W        W65269   2.154  13.986  22.731 -0.0785 -0.0249  0.0218
22254W        W65270  25.989  19.007   9.255 -0.1764 -0.0370  0.3915
22255W        W65271  12.908  25.816   8.548  0.0353 -0.1126 -0.0463
22256W        W65272  33.124  26.418   0.846  0.2640 -0.0607 -0.1593
22257W        W65273   9.102  33.965  27.456  0.0211 -0.1657  0.2043
22258W        W65274   1.218  20.146   7.238 -0.0930 -0.0958  0.2418
22259W        W65275  25.462  31.201   3.382 -0.1153 -0.0855 -0.1715
22260W        W65276   8.969   3.672  28.476  0.0665 -0.0463 -0.0199
22261W        W65277  26.257   6.699  20.348  0.1398  0.0503 -0.2188
22262W        W65278  24.866   7.030  19.542 -0.1220 -0.0605  0.0005
22263W        W65279  23.072  19.870   5.711  0.4735  0.1656  0.2933
22264W        W65280   5.218  32.455  14.514 -0.0884 -0.0866  0.2765
22265W        W65281  31.710  10.177  22.020  0.1132  0.0179 -0.0436
22266W        W65282  18.082  18.768  15.409  0.0714 -0.1831  0.1492
22267W        W65283  22.736  17.795  15.885  0.1658 -0.2234 -0.1384
22268W        W65284   9.180  25.665  17.903 -0.0268 -0.0144  0.0892
22269W        W65285  26.186  23.822  27.702  0.2097  0.1382  0.3572
22270W        W65286  18.141  20.731  23.410 -0.2439  0.3098 -0.2116
22271W        W65287  19.863  25.012   3.200 -0.0226  0.1356 -0.1568
22272W        W65288  28.736  22.094  23.731  0.1538  0.1663 -0.0440
22273W        W65289  29.718  19.986  24.919  0.2420 -0.0132 -0.1851
22274W        W65290  12.044   4.886   0.046 -0.1615  0.2385 -0.0542
22275W        W65291  24.379  13.231  23.476 -0.0985 -0.0099 -0.0960
22276W        W65292  18.157   2.760  10.228  0.1116  0.1667  0.0342
22277W        W65293  19.126   0.689  25.675 -0.2576  0.1587  0.1679
22278W        W65294  30.845  20.238  19.990 -0.4479  0.2563  0.1302
22279W        W65295  20.346  29.723   3.012  0.3581 -0.1718 -0.0910
22280W        W65296   2.478  12.569   2.463  0.0766  0.0595 -0.1594
22281W        W65297  34.550  29.886  22.550  0.0075  0.2659 -0.0520
22282W        W65298  26.744  32.367   8.780  0.1804  0.1346 -0.1150
22283W        W65299  20.874  19.068  24.924 -0.1996 -0.2475  0.3454
22284W        W65300  18.199  11.061  14.933  0.5038 -0.0756 -0.2690
22285W        W65301  23.575  29.472  26.790  0.2271  0.1254  0.2120
22286W        W65302  12.572   6.572   2.282 -0.0088  0.1798  0.2062
22287W        W65303  30.803  10.486   8.790  0.1252  0.0695  0.1604
22288W        W65304  31.478  18.590  23.675  0.0559 -0.2068  0.0559
22289W        W65305  20.644  18.568   4.435 -0.1992  0.2019 -0.2384
22290W        W65306   2.613   7.108  22.628 -0.2103 -0.0831  0.0943
22291W        W65307  23.982  10.028  28.391 -0.2485  0.1128 -0.0002
22292W        W65308   0.454  22.032  20.695  0.2612  0.0436  0.0868
22293W        W65309  19.598  21.156  26.176 -0.1160  0.0990  0.0257
22294W        W65310  19.021  14.155   0.318 -0.0405  0.0060 -0.0668
22295W        W65311   2.592  23.367  22.969 -0.2622 -0.5294  0.1811
22296W        W65312  28.628  10.673   8.924  0.1746 -0.1640  0.0028
22297W        W65313   7.443  25.033  24.766  0.0622 -0.0684 -0.0830
22298W        W65314  23.341   2.036  18.602  0.2680  0.2848 -0.2558
22299W        W65315   4.112   8.646  29.081  0.0761  0.2529 -0.0978
22300W        W65316  24.093  23.456  21.989 -0.2468 -0.0913  0.1076
22301W        W65317  25.060   5.569  24.095  0.0470 -0.2619 -0.2505
22302W        W65318   7.593  33.282  20.647  0.0402  0.0224 -0.0429
22303W        W65319  32.393  25.725   1.917  0.1923 -0.0792 -0.1320
22304W        W65320  28.372  27.560  18.298 -0.0351  0.1704  0.2571
22305W        W65321   5.282  33.747  25.174  0.3619 -0.0238  0.2694
22306W        W65322  22.420   2.888   3.620  0.2182 -0.0533  0.2507
22307W        W65323  25.742  26.355   9.574 -0.4062 -0.1945  0.0508
22308W        W65324   2.747  15.483  21.723  0.1647  0.0156 -0.2371
22309W        W65325  33.705   7.807  22.934  0.1095 -0.0814 -0.1456
22310W        W65326  14.031   6.839  22.500 -0.0552 -0.2043 -0.1018
22311W        W65327  28.157  17.053   9.226 -0.1222 -0.4347 -0.0116
22312W        W65328  32.251   1.762  19.389  0.3215  0.2312 -0.3332
22313W        W65329  29.554  22.714   7.849  0.0304 -0.0991 -0.2972
22314W        W65330  12.604  20.495  22.374  0.3214  0.0521 -0.1573
22315W        W65331  22.051   3.364  20.957  0.1613 -0.0468 -0.0788
22316W        W65332   1.560   3.548  21.290  0.0158 -0.2401 -0.2051
22317W        W65333  21.078   9.548   2.768  0.3058 -0.2800 -0.2381
22318W        W65334  22.144   9.055  22.403 -0.2207 -0.2227 -0.1383
22319W        W65335  28.064  11.662  25.393  0.1543 -0.2313 -0.0105
22320W        W65336  25.133  16.253  15.545 -0.1516  0.0826  0.2547
22321W        W65337  32.871  13.762  20.989 -0.0822  0.6709 -0.0350
22322W        W65338   0.243   7.794   0.981  0.3542  0.2150  0.0006
22323W        W65339  31.398   6.543   0.364  0.0912  0.0313  0.2452
22324W        W65340   5.096   9.807  15.592 -0.1882 -0.0058 -0.1731
22325W        W65341  27.183  17.592  15.743  0.1494 -0.1143 -0.0765
22326W        W65342  28.786  15.451  23.028 -0.3149  0.0242 -0.0422
22327W        W65343  31.028  17.993   0.386 -0.0416  0.0037  0.0002
22328W        W65344  18.056  21.627   1.383  0.1660 -0.1627  0.0986
22329W        W65345  23.462  22.446  25.480 -0.1879  0.2586 -0.3838
22330W        W65346   8.427  11.189  21.187  0.1154  0.3553  0.2159
22331W        W65347  15.820  32.761  28.507  0.3038 -0.1217  0.0848
22332W        W65348  17.805  20.524   2.957 -0.3294  0.0689  0.2554
22333W        W65349  29.757   4.184  16.520 -0.0796 -0.1160  0.0817
22334W        W65350   3.828  16.633  15.849 -0.2289 -0.2844  0.2001
22335W        W65351  28.968  10.629  21.376 -0.0825 -0.1462 -0.0547
22336W        W65352  29.255  15.848  28.626 -0.3566  0.3736  0.3401
22337W        W65353  17.321   4.172  16.852 -0.1632 -0.2089 -0.1565
22338W        W65354   8.404  32.437   1.643  0.0372  0.1124  0.0142
22339W        W65355  33.665   0.840   9.240 -0.1356  0.0006 -0.1388
22340W        W65356   6.839  19.223  27.952  0.1170  0.2643 -0.0532
22341W        W65357   6.896  30.442  21.304  0.4054  0.3411 -0.0766
22342W        W65358  13.115  27.075  20.384 -0.3337 -0.0288  0.3520
22343W        W65359  28.840  23.834   2.583  0.2080 -0.0276 -0.2951
22344W        W65360  29.909   1.910   1.750 -0.2010 -0.0335  0.3454
22345W        W65361  26.472  10.715   9.511 -0.0233 -0.1050  0.2570
22346W        W65362  24.414  24.851  20.077 -0.2237  0.0063 -0.1540
22347W        W65363  31.221   9.699  26.110 -0.1678 -0.0624 -0.2251
22348W        W65364  20.260   6.227  29.290 -0.0556 -0.2526 -0.5884
22349W        W65365  26.940  26.145   3.983 -0.0658 -0.1021 -0.0035
22350W        W65366  16.337  26.308  14.142 -0.1414 -0.1028  0.1221
22351W        W65367  21.907  29.680   3.524 -0.0512 -0.1526 -0.1780
22352W        W65368  18.980  19.697  27.115  0.0458 -0.2571  0.0656
22353W        W65369  26.255  29.052   8.009 -0.1174  0.3362 -0.0040
22354W        W65370  27.952  24.430  17.560 -0.2872  0.1101 -0.2330
22355W        W65371  30.067  20.858  10.751  0.1798  0.2619  0.2375
22356W        W65372  20.148  10.365  27.786  0.1660 -0.2589  0.1552
22357W        W65373  27.417  17.387   5.180 -0.1094  0.4728  0.3630
22358W        W65374  15.531  16.658  15.018  0.1042  0.3069  0.1217
22359W        W65375  31.919  25.277   1.921 -0.3253 -0.2085 -0.3077
22360W        W65376  24.555  16.739  24.646 -0.0151 -0.0381 -0.1100
22361W        W65377  15.998   8.094  16.991  0.0186 -0.0029 -0.2352
22362W        W65378  27.409   5.365  11.214 -0.1450 -0.1516  0.0306
22363W        W65379  27.338  19.317  24.420  0.2076  0.0788  0.3005
22364W        W65380  24.131  29.082  28.596 -0.1868  0.0974 -0.0550
22365W        W65381   0.271  28.898  20.793 -0.0507  0.1014  0.2292
22366W        W65382  19.952  28.817   4.066 -0.1191 -0.0283 -0.0401
22367W        W65383  31.044  11.629  18.530  0.3132 -0.1652 -0.0419
22368W        W65384   2.217  12.068  26.556 -0.1439 -0.2265 -0.5309
22369W        W65385  30.527  16.393  23.488  0.2817 -0.0567  0.2079
22370W        W65386  29.152   3.401   0.910  0.2038 -0.0782 -0.0698
22371W        W65387  26.488   9.467  24.610 -0.0682 -0.0341  0.0798
22372W        W65388  33.954   9.238  22.963 -0.0736 -0.0305  0.2173
22373W        W65389  24.879  20.379   1.065  0.1688 -0.0358  0.1418
22374W        W65390   3.825  16.973  14.744 -0.0363  0.0271  0.0354
22375W        W65391  29.656  22.059  28.383 -0.0726 -0.3007  0.3238
22376W        W65392  23.090   9.645  27.568 -0.2015  0.0832 -0.1177
22377W        W65393   5.108  12.850  19.441  0.0516 -0.0090  0.2407
22378W        W65394  15.521  11.645  14.976  0.0621  0.2549 -0.0371
22379W        W65395   3.507  20.743   7.474  0.1002 -0.1681  0.1329
22380W        W65396  27.713  12.187   5.631 -0.0788 -0.1589 -0.2149
22381W        W65397  13.238  11.429  19.626  0.1067 -0.0254  0.2756
22382W        W65398   2.058   7.366  26.410 -0.0194 -0.1857 -0.2342
22383W        W65399  22.308   6.317  29.240  0.0215 -0.2668  0.0158
22384W        W65400  33.665   7.047  14.590 -0.1852  0.1637 -0.0865
22385W        W65401   6.068   1.788  19.467 -0.0077 -0.0387  0.2771
22386W        W65402  27.958  17.361  18.782  0.0525  0.0051  0.0717
22387W        W65403  29.869  17.144  17.904  0.3119 -0.1462 -0.3129
22388W        W65404  27.723  27.483  25.903 -0.1210 -0.1867 -0.1073
22389W        W65405  10.842  11.611  17.753  0.1017 -0.1011  0.1611
22390W        W65406  30.445  18.605  15.544  0.0908 -0.1118  0.2390
22391W        W65407   3.430  12.853  19.983 -0.0286  0.3953 -0.1161
22392W        W65408  21.579  16.416   1.457 -0.1649  0.0427  0.2289
22393W        W65409  31.628  14.630   4.715  0.1479  0.1152  0.5920
22394W        W65410   9.907  27.780   4.057 -0.0594 -0.1132 -0.2890
22395W        W65411   2.885  19.670  28.429  0.0993  0.0403  0.1907
22396W        W65412  30.433   0.699  20.694  0.1361 -0.1093 -0.0299
22397W        W65413  17.453   1.968  21.561  0.0319  0.1854  0.0917
22398W        W65414  25.938   3.059  27.848  0.1254 -0.2438  0.0767
22399W        W65415  12.037  11.896  14.624  0.1376 -0.0664  0.0785
22400W        W65416  17.289  26.227  29.270  0.0287  0.2898  0.2041
22401W        W65417  20.806  18.263  26.516  0.1554 -0.1202  0.2069
22402W        W65418  26.212   3.210   0.748  0.1371  0.0924 -0.4516
22403W        W65419  13.468  29.962  27.833  0.0527  0.1024 -0.1048
22404W        W65420   0.895  15.570  27.311  0.1285 -0.5433  0.2452
22405W        W65421  23.311  31.015  23.986 -0.0300  0.2973  0.3604
22406W        W65422   7.519  12.899   8.271  0.0904  0.0757  0.1165
22407W        W65423  22.707  17.758  19.806  0.1293 -0.0551 -0.1995
22408W        W65424  13.725  14.285   6.475  0.1115 -0.1804 -0.0757
22409W        W65425  30.672  18.126   4.220  0.0039 -0.1376  0.0366
22410W        W65426  18.305  10.244   3.298  0.1096 -0.0646  0.0365
22411W        W65427  13.732  23.901   5.351  0.1790 -0.0674  0.3278
22412W        W65428  27.961  20.542  18.987  0.0252 -0.0725  0.0443
22413W        W65429  31.166  34.098  16.184  0.1828  0.0751 -0.1301
22414W        W65430   8.499  25.008  24.867  0.2244 -0.1117 -0.0764
22415W        W65431  22.407  18.000  21.364  0.0417 -0.2642  0.1012
22416W        W65432   4.615  18.933   4.747  0.0701 -0.4355 -0.0023
22417W        W65433  10.563  33.311  16.328 -0.0132  0.0843  0.1952
22418W        W65434  30.915   5.125  26.664 -0.3327  0.0079 -0.1277
22419W        W65435  17.065  26.401   2.696  0.0717 -0.3421 -0.1549
22420W        W65436   2.010  19.349   0.758 -0.1090 -0.0917 -0.4879
22421W        W65437  28.052  16.392  21.897  0.1727 -0.1670 -0.0744
22422W        W65438  24.374   5.345  20.349 -0.0370 -0.2550  0.2146
22423W        W65439   7.492   4.532   7.787 -0.1252 -0.0551 -0.1676
22424W        W65440  33.627  16.143   2.052  0.1544 -0.3007 -0.1904
22425W        W65441  26.157   7.767   3.954 -0.2488  0.2717 -0.1919
22426W        W65442  26.779  19.862  26.793  0.1700 -0.1643  0.0227
22427W        W65443  34.498  21.403  25.854  0.0897 -0.3923 -0.1501
22428W        W65444  34.059  12.920  23.289  0.0073 -0.2258 -0.3981
22429W        W65445  34.127  12.001  23.106 -0.0063  0.0965 -0.0661
22430W        W65446  17.331  16.694  28.745 -0.3398 -0.0329  0.0842
22431W        W65447   6.069  24.840   4.024  0.2368 -0.2616  0.0570
22432W        W65448  24.868   5.036   7.587  0.0716 -0.0900 -0.2641
22433W        W65449   2.846  26.182   8.187 -0.0436  0.1077 -0.3101
22434W        W65450  26.962   0.245  27.953  0.1127 -0.0497  0.1617
22435W        W65451  19.550  19.730   4.517  0.3461 -0.0346  0.1466
22436W        W65452  19.833  27.694  17.943  0.1484  0.3236  0.3647
22437W        W65453  22.394   8.742  25.466 -0.0310 -0.2488 -0.2007
22438W        W65454  19.300   1.621  10.483 -0.3077 -0.0084 -0.2223
22439W        W65455  29.285  10.631  22.325  0.1351 -0.2226 -0.0068
22440W        W65456  25.017  20.671   7.568 -0.1548 -0.0599  0.1261
22441W        W65457  23.991  20.033  25.217  0.2693  0.1183 -0.0769
22442W        W65458  26.539   1.313  19.385 -0.1373  0.1998 -0.1439
22443W        W65459  17.124  24.390   6.018 -0.1139 -0.1028 -0.2506
22444W        W65460  16.187   9.372  21.981 -0.2193 -0.3669 -0.0249
22445W        W65461   4.975   1.108  28.344 -0.0223 -0.0639 -0.1062
22446W        W65462  13.362   7.255   4.852  0.0377 -0.1536  0.0978
22447W        W65463   3.661   9.366  26.544 -0.0637  0.0380 -0.0567
22448W        W65464  17.579   6.932  21.346 -0.2735 -0.0814 -0.1417
22449W        W65465  19.836  26.275   6.644  0.0832 -0.0974  0.0156
22450W        W65466  31.640  17.491  27.420  0.0605  0.0787  0.0727
22451W        W65467  30.672  23.813   0.604  0.1333 -0.0250  0.0755
22452W        W65468  28.091   2.200   7.340  0.1426  0.1669 -0.2983
22453W        W65469  26.971  13.746  22.207  0.3423 -0.0593 -0.2155
22454W        W65470   7.604  24.023  22.481  0.1275  0.0476 -0.0008
22455W        W65471  15.586  16.108  12.275  0.1675  0.1792  0.1630
22456W        W65472   8.256  31.604   2.337  0.0698 -0.2363  0.0935
22457W        W65473  29.491  28.939  23.769 -0.3160  0.3463 -0.0189
22458W        W65474  23.840  15.533  24.615 -0.0917 -0.1687 -0.3366
22459W        W65475  20.436  11.925  26.194  0.1110 -0.1310 -0.1788
22460W        W65476  27.104  15.277   5.279 -0.1662  0.0608 -0.0088
22461W        W65477  25.295  16.834   7.304  0.1920 -0.1941 -0.0003
22462W        W65478   8.128  22.292  17.162  0.3032 -0.0282 -0.1395
22463W        W65479  33.808  15.370   5.663  0.1906  0.3119  0.0489
22464W        W65480  33.761  13.245  15.923  0.0339  0.2042  0.0986
22465W        W65481  18.661  16.923   3.733 -0.2487 -0.0014  0.2913
22466W        W65482   4.856  28.449   0.378 -0.0089  0.3044  0.0656
22467W        W65483  30.408  19.347   1.458 -0.0745  0.1561  0.0640
22468W        W65484  14.243  19.534  19.592 -0.3556  0.0099  0.2020
22469W        W65485  24.292  15.851  23.796 -0.2297 -0.1893 -0.4570
22470W        W65486  14.354  21.361  19.761 -0.1900 -0.2494  0.0186
22471W        W65487   4.761  18.327   6.027 -0.1203 -0.0054  0.3269
22472W        W65488   4.537  14.541   1.903  0.2532 -0.1065  0.0893
22473W        W65489   0.619  14.146   8.902  0.0674 -0.1755  0.2795
22474W        W65490   4.024  16.639   7.070  0.2830 -0.0685 -0.2170
22475W        W65491   3.917  14.017  27.943 -0.2795  0.2613 -0.1397
22476W        W65492  29.421  21.759   1.715  0.3357 -0.2752 -0.2137
22477W        W65493  24.275  30.969  17.137 -0.0227  0.3069 -0.0678
22478W        W65494   3.257  18.106   2.285 -0.0095  0.2286 -0.3157
22479W        W65495  17.090  20.632   7.044  0.0250  0.1738 -0.1075
22480W        W65496  12.856  10.964   2.335  0.1118 -0.0925 -0.0837
22481W        W65497  30.667  13.453  22.723  0.3880 -0.1788  0.1647
22482W        W65498  33.741   8.423  17.564 -0.0038  0.0712 -0.0095
22483W        W65499  23.499  28.516   3.396  0.0132 -0.1571 -0.1817
22484W        W65500  21.522  18.094  27.503  0.1688  0.2330  0.1510
22485W        W65501  10.791  25.040  15.058 -0.1089  0.1365  0.2005
22486W        W65502  20.773  32.611  17.728  0.1203 -0.1196  0.1758
22487W        W65503   5.475  19.938  27.284 -0.1249  0.0322 -0.0903
22488W        W65504  10.027  17.921   7.169  0.0863 -0.1350 -0.1634
22489W        W65505   1.306   4.692   7.918 -0.2305 -0.1600  0.2556
22490W        W65506   1.610  23.225  26.521  0.0391 -0.1121  0.2886
22491W        W65507  10.819  13.335   6.635 -0.3002  0.2297 -0.0486
22492W        W65508  25.096  24.019  22.100  0.2067 -0.2377 -0.1180
22493W        W65509  28.573   2.359  20.670  0.1483 -0.1148 -0.1194
22494W        W65510   3.199  16.213   4.254 -0.1324  0.2118 -0.0999
22495W        W65511   4.027  22.938  15.192 -0.1458  0.1366 -0.2106
22496W        W65512  21.190   8.747  13.949  0.2853 -0.1633  0.0022
22497W        W65513  33.867  14.121  18.763 -0.1194  0.1474  0.3857
22498W        W65514  13.854  16.235  21.821  0.2397 -0.1026 -0.0527
22499W        W65515  26.739  14.891  22.824 -0.2560 -0.0863 -0.0017
22500W        W65516   4.027   3.162  16.976 -0.0261 -0.1095  0.0869
22501W        W65517  29.916   3.671  23.890  0.0719 -0.0049  0.0231
22502W        W65518   5.783  22.563   2.590  0.1724 -0.2744  0.0561
22503W        W65519  33.212  12.296  21.932  0.4326 -0.2586  0.1123
22504W        W65520  30.459  14.946   4.206  0.0525 -0.1852  0.1548
22505W        W65521  24.044  28.568  23.899 -0.0097  0.0948  0.1465
22506W        W65522  10.106   6.425  25.932 -0.0859  0.1302 -0.0071
22507W        W65523  26.582  34.424   9.875  0.2241 -0.1940 -0.0023
22508W        W65524  18.402   4.215  14.244  0.0434  0.4496  0.0013
22509W        W65525  28.755  18.789  19.123  0.0688 -0.2884  0.1422
22510W        W65526   3.781   0.412  10.146 -0.0628  0.0117  0.0840
22511W        W65527   0.493  14.492   2.484 -0.4426  0.1213 -0.0459
22512W        W65528  34.072  10.931  15.346 -0.2050 -0.1319 -0.1992
22513W        W65529  12.659  31.431   7.489 -0.1626 -0.3532  0.1529
22514W        W65530  31.704  24.331  22.063 -0.0177 -0.2500  0.2111
22515W        W65531  25.366   2.076   5.892  0.0373  0.1410 -0.0312
22516W        W65532   5.988  10.878  23.108  0.2308 -0.0907 -0.1873
22517W        W65533   6.624  20.062   6.904  0.1628 -0.1209 -0.1908
22518W        W65534  32.848  28.192   0.342 -0.1518  0.2677  0.2074
22519W        W65535  29.829  27.857  21.979 -0.0866  0.0896 -0.3141
22520W        W65536  23.511   4.218  22.403 -0.1110  0.0718 -0.1386
22521W        W65537  25.068  23.578  25.758 -0.1370  0.0271 -0.3377
22522W        W65538  20.624  16.933   0.628 -0.0129 -0.1422  0.1190
22523W        W65539  30.939   0.541   0.523  0.2239  0.0791 -0.1821
22524W        W65540  24.358  28.315   7.961 -0.0690  0.0386 -0.0351
22525W        W65541  13.027   5.108   8.612 -0.3075  0.1368 -0.0355
22526W        W65542  29.055  30.635   4.803 -0.1503  0.1639  0.3470
22527W        W65543   1.069  16.280  24.222  0.1241 -0.1117  0.0358
22528W        W65544  28.830  29.646  26.178 -0.1950 -0.1311 -0.0257
22529W        W65545  22.940  21.401   7.212 -0.1694  0.2406 -0.0949
22530W        W65546  25.906  10.123  16.699  0.2009 -0.2531 -0.0623
22531W        W65547  15.064  25.810  20.455 -0.1794  0.1961 -0.2126
22532W        W65548  33.377  13.952  23.525 -0.2791 -0.2085 -0.1442
22533W        W65549   7.800  27.857   5.082  0.0879  0.1294  0.1477
22534W        W65550  29.357  23.639   8.208 -0.1433 -0.2987 -0.1675
22535W        W65551  17.491   6.880  20.841 -0.0940  0.1476 -0.0158
22536W        W65552   2.959  19.106  26.164  0.2929  0.0362 -0.1622
22537W        W65553   4.516  19.093   1.609  0.0003  0.1058 -0.0553
22538W        W65554  10.114  25.484  23.188  0.0130  0.2143 -0.0298
22539W        W65555  23.692  22.912  23.399  0.0234  0.0624  0.3560
22540W        W65556  27.965  30.027  21.562  0.0996 -0.3676 -0.1103
22541W        W65557  32.904  14.933   6.575  0.1944 -0.0532  0.2856
22542W        W65558  28.887   9.705   6.941  0.2631  0.2509 -0.0943
22543W        W65559  12.579  20.740   6.565  0.2208  0.1078 -0.4423
22544W        W65560  25.989  13.811  13.651  0.3760  0.0861 -0.2053
22545W        W65561  30.263   5.010   6.243 -0.1322 -0.2618  0.0762
22546W        W65562  11.048   8.575   0.207 -0.0207  0.1535  0.0149
22547W        W65563  20.578   6.316   7.364 -0.1427 -0.3392  0.1027
22548W        W65564  33.280  14.524  22.926 -0.0767 -0.1979 -0.1359
22549W        W65565  17.345  21.193  26.898  0.2910  0.2933 -0.1226
22550W        W65566   0.269  14.688   4.273 -0.2209 -0.2632 -0.0143
22551W        W65567   5.762   4.787  27.709  0.1962  0.2972  0.1431
22552W        W65568  22.476  15.439   9.047  0.0138  0.0553 -0.2656
22553W        W65569   1.442  12.996   4.511  0.4194  0.0010  0.2159
22554W        W65570  29.492  13.470  28.996  0.1887  0.2244 -0.2366
22555W        W65571  33.852  13.761  23.299 -0.1157 -0.2977 -0.2542
22556W        W65572   9.135  21.491  26.085 -0.0325 -0.0587 -0.0446
22557W        W65573  34.420  20.915  14.414  0.0791  0.0694  0.1717
22558W        W65574  21.606  15.360  20.866 -0.2354  0.0588  0.1010
22559W        W65575  34.474  16.782  23.965 -0.2258  0.1698  0.1294
22560W        W65576  31.279   3.889  18.526  0.1242  0.0569 -0.1513
22561W        W65577  27.113  10.195   9.091 -0.0023  0.4329 -0.2408
22562W        W65578  26.418  15.355  16.533  0.1106  0.0462  0.2712
22563W        W65579   2.581  18.413  16.302  0.5141 -0.0253 -0.0074
22564W        W65580  28.459  13.601  15.980  0.2114  0.0145  0.1983
22565W        W65581  28.069  15.767  21.039  0.2788  0.0420  0.0770
22566W        W65582   8.621  20.389  24.862  0.1658 -0.2086  0.0361
22567W        W65583  27.624   3.424  27.794 -0.1126 -0.1408 -0.2994
22568W        W65584  32.612  29.913  27.112 -0.1354  0.3713 -0.2121
22569W        W65585   0.820  21.873   7.898  0.1658  0.1624  0.0357
22570W        W65586  34.341  23.023   7.140  0.0613  0.2802  0.1565
22571W        W65587  26.599  27.968  16.446  0.2659  0.1482  0.0926
22572W        W65588  25.690  13.545  25.324  0.0942  0.2162  0.1086
22573W        W65589  18.082  15.409  11.976  0.1266 -0.0243  0.1660
22574W        W65590   9.554  16.648  23.373 -0.1699  0.0506 -0.4528
22575W        W65591  21.542  22.866  18.613  0.0934  0.3691 -0.2293
22576W        W65592  29.811  11.134  20.675 -0.0550  0.0628 -0.1740
22577W        W65593  23.531  17.570  15.034 -0.5465 -0.0572  0.0303
22578W        W65594  18.741  10.694  16.574  0.0616  0.1217 -0.0250
22579W        W65595   8.071  11.477   2.615 -0.2973  0.1778  0.0813
22580W        W65596   5.737  23.602  17.171  0.1839  0.1223 -0.1226
22581W        W65597  18.537  14.799  23.650 -0.1026  0.2376  0.1065
22582W        W65598  16.097   7.168  27.910  0.2682  0.2043 -0.0126
22583W        W65599  20.487  19.145   7.134  0.0458  0.1491  0.1100
22584W        W65600  23.971  13.957   1.424 -0.2424 -0.1065  0.0411
22585W        W65601  28.889   9.824  19.309  0.0442 -0.0672  0.2220
22586W        W65602  32.391  15.841  20.207 -0.0799 -0.2486 -0.0608
22587W        W65603  29.127  11.965  19.469 -0.2891  0.2107 -0.0352
22588W        W65604  29.685   6.148  29.287 -0.1764  0.3577  0.2452
22589W        W65605  25.639  17.529  20.801 -0.2977  0.1238 -0.2468
22590W        W65606  25.545  17.840  24.843  0.1026  0.0755  0.2737
22591W        W65607  28.123  12.093   8.028 -0.3899 -0.2698  0.0163
22592W        W65608  29.544  15.280   5.603  0.2667 -0.0264  0.3977
22593W        W65609   2.762  14.008   1.870 -0.0434  0.3342  0.0772
22594W        W65610  27.711  21.996  27.715  0.1746 -0.0445 -0.0259
22595W        W65611  27.896  16.748  18.730  0.2567  0.0396  0.2908
22596W        W65612  23.854  16.805   6.002 -0.0910  0.1653 -0.1173
22597W        W65613   8.146  33.689  27.614 -0.0534  0.1999  0.4533
22598W        W65614  19.094   5.973  16.042  0.0372 -0.2138  0.1853
22599W        W65615  17.441   4.905  20.333 -0.1379  0.2991  0.1172
22600W        W65616  33.592   5.133   1.007  0.0351 -0.0850  0.3081
22601W        W65617   7.909  15.472   7.459 -0.2031  0.0367 -0.2291
22602W        W65618   2.803   8.993  23.499  0.0296  0.1061  0.1215
22603W        W65619  24.468  12.708  21.159 -0.3659  0.4183 -0.0246
22604W        W65620  27.091   2.766  10.264  0.2555 -0.2345 -0.0901
22605W        W65621  23.459  21.608   4.145  0.0321 -0.3019 -0.0334
22606W        W65622  31.426  23.325   0.005 -0.0063  0.2224 -0.2591
22607W        W65623   4.851  11.154   9.311  0.1409 -0.2519  0.1121
22608W        W65624  11.177   8.832  16.279  0.0022  0.0801  0.1597
22609W        W65625  19.108  12.204   2.019 -0.1688  0.1174  0.2217
22610W        W65626   3.737   7.070  27.652  0.1290 -0.2276  0.0316
22611W        W65627  31.590   9.333   5.625 -0.0573  0.1738  0.0936
22612W        W65628  33.721  27.790   1.267 -0.1171  0.1642 -0.1641
22613W        W65629  22.332  19.332  21.873  0.1681  0.1429  0.1484
22614W        W65630  34.753  21.050  16.946  0.0689  0.1596  0.0495
22615W        W65631   2.994  15.600   7.834  0.0271  0.2889 -0.1204
22616W        W65632  16.749  14.213   1.913  0.2674 -0.1364 -0.1781
22617W        W65633  32.877  24.140  10.460  0.0840 -0.0682  0.2243
22618W        W65634  31.468  21.252  24.949 -0.2643 -0.0555 -0.0066
22619W        W65635  17.954  23.017   7.004  0.4765  0.0253 -0.0872
22620W        W65636  27.937  19.756  23.512  0.1790 -0.1295 -0.2322
22621W        W65637  22.261  32.622  15.029 -0.1289 -0.2800 -0.0391
22622W        W65638  22.234  23.970  25.603 -0.3076 -0.0636  0.1168
22623W        W65639  22.162  10.391  22.842  0.1210 -0.0421  0.1591
22624W        W65640  22.559   5.582   0.060 -0.1868  0.0477 -0.2271
22625W        W65641   2.447   6.359   2.249 -0.4165  0.0640  0.0092
22626W        W65642   1.664   9.538   8.706  0.1147  0.3119 -0.0267
22627W        W65643  15.247  18.238  27.486 -0.1618 -0.3369  0.1638
22628W        W65644  12.991  33.933   1.842 -0.2101  0.2488 -0.1665
22629W        W65645  26.985  26.188   6.268  0.1260 -0.0135 -0.1543
22630W        W65646  19.547  10.602  28.778 -0.2453 -0.0876  0.3213
22631W        W65647  18.982  23.734  27.090 -0.4116 -0.1552  0.1147
22632W        W65648   1.847  23.786   2.424 -0.0036  0.0749  0.2128
22633W        W65649  31.810  22.597  25.411 -0.0303 -0.0463  0.1797
22634W        W65650  22.743   6.809  18.777 -0.0376  0.2313  0.2143
22635W        W65651  20.791  18.928   6.791  0.0366  0.1451  0.2852
22636W        W65652  18.055  15.168  27.102  0.0438  0.1177  0.1339
22637W        W65653  27.047   7.468  17.745 -0.0091  0.0598 -0.1963
22638W        W65654   2.142   2.267  10.029 -0.0858  0.0203  0.0300
22639W        W65655  32.784  25.968  28.370  0.1548 -0.0282  0.0260
22640W        W65656  29.440  13.066  17.467 -0.2037 -0.1702  0.2561
22641W        W65657  22.438  24.388   4.662  0.0849 -0.0757 -0.0416
22642W        W65658  26.934  11.369  24.456  0.2280  0.1630 -0.1402
22643W        W65659   0.406  20.239   1.362 -0.1434  0.1257 -0.1242
22644W        W65660  20.481  12.904  15.532 -0.2030 -0.2096 -0.3581
22645W        W65661  33.660  21.875  23.142  0.0087 -0.3121  0.0707
22646W        W65662  17.267  17.741   6.709  0.4284  0.1219  0.0505
22647W        W65663  21.887  28.169  26.882 -0.4564  0.2667 -0.2008
22648W        W65664   2.292   8.591   3.905  0.1324  0.0860 -0.2475
22649W        W65665  33.940  29.818  28.836  0.1333  0.1247  0.0709
22650W        W65666  27.012  18.245  25.907 -0.0395 -0.4755  0.0751
22651W        W65667   4.494  18.249  24.790 -0.0369  0.2122 -0.0214
22652W        W65668  27.429  17.603  22.634 -0.0542  0.2539  0.2230
22653W        W65669  30.926  11.685   9.547 -0.3988 -0.0668  0.0027
22654W        W65670  31.381  13.103   9.146 -0.1335 -0.1502 -0.1771
22655W        W65671   7.897  26.853  25.166 -0.2217  0.1647 -0.0081
22656W        W65672  25.730   7.049   8.920 -0.1802 -0.1354 -0.1079
22657W        W65673  30.782  20.604  17.001  0.1097 -0.2373  0.0562
22658W        W65674  26.992  23.398   9.772 -0.2325  0.0262  0.0547
22659W        W65675   4.699  23.958   8.036 -0.5190 -0.1736 -0.1325
22660W        W65676  23.217   5.017  15.006  0.0256 -0.1714 -0.3229
22661W        W65677  23.099  21.185  14.035  0.1859  0.0631 -0.4983
22662W        W65678  33.461  17.225  21.367  0.1248 -0.0510  0.0194
22663W        W65679  27.879  31.210  23.094 -0.1543  0.2403 -0.2397
22664W        W65680  18.644  31.153   0.415  0.3543  0.0404 -0.5234
22665W        W65681  33.060  31.977  23.959 -0.1286  0.0187 -0.0706
22666W        W65682  24.964  28.633  27.246  0.0859  0.2866 -0.1916
22667W        W65683  31.736  14.316  14.891  0.1014 -0.1323 -0.2291
22668W        W65684  31.091  23.962  24.136 -0.0405  0.2381 -0.1010
22669W        W65685  33.568  25.718  16.968  0.1676 -0.0235 -0.4699
22670W        W65686  33.767  30.755  24.063 -0.0261  0.0602  0.1669
22671W        W65687   6.728  24.872  18.831 -0.0757  0.0764 -0.3124
22672W        W65688  25.539  23.173   4.985  0.0672  0.0208 -0.3487
22673W        W65689  20.830   4.756  20.912 -0.1619 -0.2738 -0.2858
22674W        W65690  28.207  34.576  16.489  0.2969  0.0840  0.0762
22675W        W65691  31.325  23.038  17.006 -0.0681 -0.3816  0.1914
22676W        W65692  26.590   6.822  24.563 -0.1489 -0.0498  0.0427
22677W        W65693  16.196  24.169  20.964 -0.0715  0.1080 -0.0876
22678W        W65694  22.278  26.295  22.175 -0.1109  0.1565 -0.1314
22679W        W65695  26.261  32.819  28.939 -0.1281 -0.2968 -0.0392
22680W        W65696   1.240  27.363  23.955 -0.0991 -0.2032  0.3381
22681W        W65697  13.512  12.426  22.820  0.0620 -0.2143  0.0258
22682W        W65698  28.000  23.636  19.836 -0.1346 -0.2750 -0.2315
22683W        W65699  29.690  15.704  19.148  0.0247 -0.1274 -0.2714
22684W        W65700  29.487  22.098  15.382  0.1394  0.4344  0.0510
22685W        W65701  25.157  10.702  27.292 -0.1540 -0.0124 -0.4133
22686W        W65702  24.668  23.332  22.660 -0.0714 -0.1392 -0.0185
22687W        W65703  24.442   4.159  21.049  0.0550  0.1284  0.2574
22688W        W65704  19.611  11.149   0.296 -0.1795 -0.2610  0.2571
22689W        W65705  26.836  15.207  17.451 -0.3335 -0.4183 -0.3657
22690W        W65706  16.270  19.078  12.744  0.1271  0.0650 -0.1120
22691W        W65707  15.094  32.297   7.683  0.0569 -0.2066 -0.2259
22692W        W65708  14.868  23.729   5.539  0.0373  0.0393  0.1667
22693W        W65709  11.679   8.274   0.897  0.0252 -0.1321  0.3277
22694W        W65710   1.357  31.502  16.136  0.1381 -0.1220 -0.0444
22695W        W65711   3.825  16.632  15.198  0.3031 -0.1077 -0.0831
22696W        W65712  29.973  21.692  21.560  0.0951 -0.0249  0.0280
22697W        W65713  28.713   8.947  16.709  0.2061  0.2544  0.0845
22698W        W65714  31.602   8.275  23.889 -0.0022  0.1346 -0.0598
22699W        W65715   3.350   4.748  26.915  0.1404 -0.2107 -0.1057
22700W        W65716  13.251   8.002  25.117 -0.0887 -0.2215  0.0554
22701W        W65717  22.351  14.424  24.762 -0.0206  0.1249 -0.0671
22702W        W65718  28.375  23.065  19.729  0.0154 -0.1692 -0.3056
22703W        W65719  16.718  25.337  24.776  0.0904  0.4100 -0.2081
22704W        W65720  20.974   1.203  14.944 -0.1882 -0.1039  0.4726
22705W        W65721  23.277  20.178  17.274 -0.0295  0.1776  0.0655
22706W        W65722  12.785   4.627  24.992 -0.1872  0.1370  0.0682
22707W        W65723  32.185  22.172  17.191  0.0234  0.2089  0.5160
22708W        W65724  27.599  16.739  23.834  0.1085  0.3790  0.0391
22709W        W65725  33.501  20.220  17.690  0.2466  0.2070  0.3800
22710W        W65726  30.837  15.231   2.430  0.0099  0.0574  0.0059
22711W        W65727  22.578   5.146  23.435 -0.2185 -0.0999 -0.0477
22712W        W65728  17.687  15.395  13.824 -0.1526  0.1051  0.3336
22713W        W65729  30.855  24.429  26.770  0.0722  0.1205  0.0261
22714W        W65730  19.540  22.504   0.849  0.2694  0.1191  0.0051
22715W        W65731  15.658  27.235  14.753 -0.1142 -0.0217 -0.1853
22716W        W65732  25.495  24.120  16.272  0.0552 -0.1454  0.0137
22717W        W65733  29.194  29.181  28.496  0.0521 -0.2716 -0.1047
22718W        W65734  15.329   4.581  14.483  0.0916 -0.0385  0.1094
22719W        W65735  31.912  22.998  20.679 -0.0904  0.0427 -0.1326
22720W        W65736   3.452  32.966  21.799 -0.1764 -0.3340 -0.1926
22721W        W65737  18.942   3.602  14.955  0.0425 -0.2409 -0.0540
22722W        W65738  22.412  22.964  23.958  0.0856  0.1126  0.0667
22723W        W65739  24.606  11.819  17.449  0.2618  0.1062 -0.0407
22724W        W65740  25.230  17.728  24.371 -0.0151 -0.0769  0.2453
22725W        W65741  24.582   6.874  21.960 -0.0109  0.1665  0.2552
22726W        W65742  19.757  25.976  18.797 -0.3194  0.3786 -0.1222
22727W        W65743  22.365  17.677  24.271  0.0314 -0.1755  0.1001
22728W        W65744  31.231  19.697  26.295  0.3432  0.1924  0.0508
22729W        W65745   7.674   3.540   3.644 -0.1015  0.0746  0.0185
22730W        W65746  29.134  10.367  15.519 -0.3240  0.0162  0.5521
22731W        W65747  32.727  19.977  27.041 -0.1719  0.3196  0.0704
22732W        W65748  25.563   8.154  24.278 -0.1641  0.0012 -0.0269
22733W        W65749  26.696  25.392  15.790 -0.2202 -0.4010 -0.1410
22734W        W65750  27.697  30.806  15.879 -0.0930  0.2150  0.1499
22735W        W65751  30.105  15.463  19.047 -0.0718  0.0201  0.1272
22736W        W65752  29.629  19.963  24.032 -0.3412  0.0664  0.1207
22737W        W65753  34.695  13.368  10.332 -0.3000  0.1866 -0.1433
22738W        W65754  33.638   5.298  16.671 -0.2324  0.0551  0.1121
22739W        W65755  20.126  28.922  17.714 -0.0251 -0.4379  0.1138
22740W        W65756  11.523  24.022   4.936 -0.0226 -0.2263 -0.2262
22741W        W65757  14.073  26.496  19.367  0.2046  0.1901 -0.1102
22742W        W65758  23.530  21.389  13.698  0.1618  0.2473  0.1999
22743W        W65759  14.790  23.863  18.864 -0.1026 -0.2466  0.0775
22744W        W65760  31.291  33.469  22.412 -0.0720  0.0090 -0.3013
22745W        W65761  24.820   3.903  23.163 -0.1882 -0.1223 -0.2394
22746W        W65762   8.033  10.699  25.727  0.1172  0.2053 -0.0091
22747W        W65763  20.894  29.153  29.140  0.1002  0.2588  0.0748
22748W        W65764  29.010  22.521   1.554  0.0341  0.1677 -0.2488
22749W        W65765   4.972  19.014  14.744  0.2994  0.0320 -0.0348
22750W        W65766   3.538  19.402  28.882 -0.0803 -0.1833  0.2077
22751W        W65767  32.636  23.216  24.181 -0.0402 -0.0765 -0.0649
22752W        W65768  20.049  28.524   1.819  0.1144  0.2828  0.3659
22753W        W65769  23.474  23.353  19.059 -0.1817 -0.0610 -0.1170
22754W        W65770  28.885  23.865  19.859  0.1569 -0.2581  0.0476
22755W        W65771  19.053  29.445  26.959 -0.2410 -0.0594 -0.0861
22756W        W65772  24.189  27.021  27.682  0.1384 -0.0952  0.2306
22757W        W65773  28.147   9.253  17.555  0.1023  0.0481 -0.1382
22758W        W65774  29.833  15.175  17.140  0.0354 -0.0149 -0.3353
22759W        W65775  25.407  30.964  25.210 -0.1711 -0.2081  0.0798
22760W        W65776  25.282   5.201  27.928 -0.0045 -0.0739 -0.1122
22761W        W65777   0.328  17.791  19.370 -0.2524 -0.0223  0.0073
22762W        W65778  32.975  17.670  19.448  0.0499 -0.1211 -0.1883
22763W        W65779   3.806  32.119  24.086  0.2893  0.0809  0.3000
22764W        W65780  18.646  24.786  17.693 -0.0035  0.0324 -0.0223
22765W        W65781  10.323  12.648   1.344  0.0646 -0.1189 -0.1964
22766W        W65782   6.653  22.194  19.975 -0.1551  0.0332 -0.1690
22767W        W65783  25.718   3.001  17.217 -0.0827 -0.0945 -0.0929
22768W        W65784  28.091  27.946  24.975 -0.0465  0.1052 -0.1169
22769W        W65785  13.209   8.243  24.469 -0.0397  0.0035 -0.1765
22770W        W65786  21.940  28.851  24.153 -0.0692 -0.4812  0.0921
22771W        W65787   1.793  15.995   7.906  0.1853 -0.2059  0.2035
22772W        W65788  21.212  30.899  19.624 -0.0077  0.4472  0.2835
22773W        W65789  27.950  14.915   0.961 -0.0629 -0.1446 -0.0002
22774W        W65790  19.559  10.173  24.814 -0.1498 -0.2404 -0.1679
22775W        W65791  15.041  15.891  15.423  0.0714 -0.3324 -0.1723
22776W        W65792  28.986  33.458  20.230  0.0990  0.0335 -0.0854
22777W        W65793  29.415  19.357   9.323 -0.2586  0.1370  0.0817
22778W        W65794  23.278  12.372  21.636  0.2001  0.0209  0.3471
22779W        W65795  22.116  18.017  26.573 -0.3249 -0.3416 -0.0771
22780W        W65796  33.406  13.864  27.598  0.0214 -0.0185 -0.3675
22781W        W65797  30.396  26.561  20.753  0.3746 -0.1083 -0.1414
22782W        W65798  24.134  30.902  26.495 -0.0458 -0.0570  0.2761
22783W        W65799   5.217  18.514  23.714  0.0524  0.1699 -0.0991
22784W        W65800  26.796   8.083  21.545  0.1772 -0.1120 -0.0223
22785W        W65801   5.707  26.507   4.634  0.2367  0.1611  0.2119
22786W        W65802  26.089  19.701  22.236 -0.2181  0.0088  0.2988
22787W        W65803  27.324  22.971  16.965  0.0869  0.0265 -0.0262
22788W        W65804  17.984  11.644  28.244 -0.1722  0.0532  0.1533
22789W        W65805  32.176  33.019  22.483  0.0027 -0.0862 -0.1886
22790W        W65806  24.878  19.976  23.822 -0.0862  0.1012 -0.0444
22791W        W65807  32.196  15.998  15.629 -0.3998 -0.0388 -0.1550
22792W        W65808  15.917  30.710   8.809  0.2773 -0.0559 -0.0654
22793W        W65809   9.555  25.487  23.111 -0.0855  0.2968 -0.2240
22794W        W65810  22.591  19.553  13.280 -0.0530  0.0165 -0.0902
22795W        W65811  14.064  31.934  15.602 -0.2864 -0.2270 -0.0008
22796W        W65812  29.162  17.950  15.545 -0.2325  0.2167  0.0954
22797W        W65813  25.657  26.958  18.467  0.0960  0.4861 -0.1872
22798W        W65814   0.217  24.771  19.917  0.2161  0.1243  0.3437
22799W        W65815   9.109   0.466  18.350  0.2234 -0.1676 -0.1852
22800W        W65816  22.228  20.348  20.486  0.5907 -0.1955 -0.0358
22801W        W65817  26.292  16.078  13.620 -0.1436 -0.1559 -0.1715
22802W        W65818  17.917  19.240  26.155 -0.2448  0.0406 -0.0183
22803W        W65819  14.032  13.655  13.601  0.1074  0.0335 -0.2285
22804W        W65820   2.622  19.305  18.110  0.1317  0.3798  0.1670
22805W        W65821   4.678  32.876  28.048 -0.2512 -0.0841 -0.0342
22806W        W65822   9.020   1.936  29.278  0.0650  0.6553 -0.0754
22807W        W65823  32.624  25.396  20.215 -0.0604  0.2415  0.0267
22808W        W65824   7.194  23.654  20.727  0.0149 -0.0712  0.0043
22809W        W65825  22.381   5.791  22.986 -0.0687 -0.0515 -0.2608
22810W        W65826  34.164  29.679  22.416 -0.0228  0.0152 -0.1490
22811W        W65827  29.413  12.568  26.792 -0.0693  0.0949 -0.0481
22812W        W65828  18.987  31.651   1.245  0.0376  0.0353  0.0246
22813W        W65829   4.358  10.306  27.131  0.5118  0.6288 -0.1802
22814W        W65830   2.935  31.795  15.237  0.4223  0.2088  0.2895
22815W        W65831  28.729  33.630  25.831  0.2305  0.4434  0.0076
22816W        W65832   0.346  32.400  19.538 -0.2355 -0.1503 -0.2203
22817W        W65833  15.760   7.790  14.372  0.2497  0.1142  0.2461
22818W        W65834  25.237   0.597  17.804 -0.1460  0.0943 -0.3107
22819W        W65835  32.284  21.618   0.326 -0.4334 -0.2644 -0.2739
22820W        W65836  13.452   2.416  15.224 -0.1258 -0.3096 -0.0077
22821W        W65837  21.415   2.209  18.243  0.0504 -0.2383 -0.1104
22822W        W65838  32.639  21.417  21.807  0.0929  0.1180  0.4072
22823W        W65839   1.576  21.010  22.714 -0.4129 -0.0576 -0.1603
22824W        W65840  25.953   1.645  16.465  0.2578 -0.1202 -0.3226
22825W        W65841   3.937  22.362  21.782  0.0386  0.1233  0.1639
22826W        W65842   2.557   0.154  24.410  0.0029  0.0999 -0.0719
22827W        W65843   9.666  25.386  15.544  0.2586  0.0213  0.2568
22828W        W65844   9.339  27.520  18.436  0.0941 -0.0269 -0.0736
22829W        W65845   4.617  34.696  15.153  0.0343 -0.1342 -0.0597
22830W        W65846  27.993  34.633  19.198 -0.2930  0.0388 -0.2655
22831W        W65847  30.607  17.478  27.110  0.0206 -0.0628  0.0479
22832W        W65848   5.329  19.018   7.764  0.1683  0.1762 -0.1792
22833W        W65849  23.872  20.603  14.617 -0.1058  0.3200  0.0960
22834W        W65850   4.960  21.064  21.376  0.3003 -0.0076 -0.0879
22835W        W65851   2.147  27.055  29.202 -0.1499  0.2751  0.0040
22836W        W65852  24.660  26.798  22.966 -0.1339 -0.0426  0.2740
22837W        W65853  22.754  23.605  23.078  0.0931  0.2823  0.1823
22838W        W65854  28.851  30.308  19.125 -0.2587  0.1650  0.3281
22839W        W65855  23.441   0.064  28.583 -0.0038 -0.1293  0.0567
22840W        W65856  15.643  26.291  13.284 -0.2842  0.0343  0.4795
22841W        W65857  31.597  31.520   1.787 -0.1332 -0.0338  0.2425
22842W        W65858   2.485  34.085  19.072 -0.2263 -0.0966 -0.0702
22843W        W65859  34.548  13.198  28.377 -0.0451 -0.1512 -0.2248
22844W        W65860   5.616   7.575  23.779  0.1329  0.1339 -0.2359
22845W        W65861  24.404  22.609  17.040  0.2652 -0.0293  0.0375
22846W        W65862  14.998  19.130  14.305  0.0895  0.2130  0.4329
22847W        W65863  20.803  22.265  26.590  0.0530  0.1945 -0.1720
22848W        W65864  22.399  21.804  22.031 -0.0307  0.0313 -0.1344
22849W        W65865  23.111  19.166  18.188  0.2010 -0.1064 -0.0491
22850W        W65866  24.456  14.120   1.233 -0.0180  0.3510  0.0776
22851W        W65867   7.141  17.767  22.809  0.2452  0.2127 -0.0389
22852W        W65868  29.057   3.819  25.007 -0.3237  0.2206 -0.1109
22853W        W65869  17.688  22.704  29.019  0.2654 -0.1116  0.0463
22854W        W65870  32.747  27.679  25.672 -0.0746  0.0748  0.2530
22855W        W65871   3.854  32.380  25.918 -0.1946 -0.4415  0.0616
22856W        W65872   3.211  19.120  13.845 -0.1833  0.2321  0.3063
22857W        W65873  22.352  29.078  19.982  0.3797  0.4817 -0.2414
22858W        W65874  29.291  21.607  18.171  0.1448  0.0925  0.0288
22859W        W65875  31.195  26.986  18.605  0.2147  0.0624  0.4167
22860W        W65876  27.967  28.942  21.764 -0.2376  0.0317 -0.1746
22861W        W65877   7.223  27.035   4.052 -0.0201  0.0994 -0.1739
22862W        W65878  24.390  17.326  25.430 -0.1502 -0.0053 -0.1488
22863W        W65879  23.528  19.594  28.481  0.1677  0.0267  0.2503
22864W        W65880   4.321  18.613  26.689 -0.2528  0.1709  0.1739
22865W        W65881  14.597   6.950  27.130  0.2085  0.0007 -0.2103
22866W        W65882  29.534  18.126  22.794  0.0855  0.1164 -0.4221
22867W        W65883  25.420  10.430  25.963  0.0110 -0.0313 -0.0502
22868W        W65884  26.351  31.273  16.859  0.2266 -0.0352  0.1341
22869W        W65885   2.119  18.089  22.096  0.0827 -0.4051  0.4270
22870W        W65886   5.471  27.209  21.699  0.1029  0.1140  0.0376
22871W        W65887  27.355  24.175  19.188  0.4114  0.1569 -0.0974
22872W        W65888  19.878  12.041  22.562  0.6317 -0.3062 -0.0785
22873W        W65889   7.580  25.764  24.217  0.1777 -0.1309  0.0352
22874W        W65890  29.421  19.672  28.913  0.4143 -0.3318 -0.1028
22875W        W65891  26.719  29.456  18.021 -0.0694  0.1932 -0.1288
22876W        W65892  14.376  27.679  17.112  0.4583  0.1469 -0.0951
22877W        W65893  31.010  19.078  16.254  0.0309  0.1481 -0.0671
22878W        W65894  21.092  22.116  14.125 -0.0809 -0.1372 -0.0542
22879W        W65895  27.331  22.638  21.127  0.0541 -0.2387  0.2125
22880W        W65896  15.566  31.374  16.025  0.2263 -0.0171 -0.2785
22881W        W65897  34.279  19.344  14.858  0.2385  0.0186  0.0551
22882W        W65898  26.395  23.934  19.148 -0.2010 -0.0253 -0.0569
22883W        W65899  22.306  12.573  19.036 -0.0285 -0.0048 -0.1099
22884W        W65900   5.887  13.693  18.615  0.1477 -0.1096 -0.3089
22885W        W65901  33.462  14.400  17.271 -0.0116  0.1171  0.1350
22886W        W65902  29.338  12.002  26.006  0.0037 -0.0014  0.0357
22887W        W65903  18.331   5.187  23.910 -0.0805  0.1078 -0.0438
22888W        W65904  29.435  29.732   0.076  0.3086  0.0481  0.0582
22889W        W65905  23.498  29.185  14.528  0.0714  0.1321  0.0751
22890W        W65906  21.932   3.801  26.670  0.1571  0.0792  0.0613
22891W        W65907   7.756  13.871  15.667  0.0886  0.2100  0.0253
22892W        W65908  23.035  34.461  26.609  0.2100 -0.1010 -0.0407
22893W        W65909  17.521  32.490  25.566 -0.0464  0.1101 -0.0670
22894W        W65910   1.221  12.711  15.865  0.0208  0.2578  0.0471
22895W        W65911  24.485   7.427  27.288 -0.2528 -0.0941 -0.1084
22896W        W65912  25.968  32.008  22.754 -0.0939  0.0576 -0.0339
22897W        W65913  26.739  30.463  15.794  0.0666 -0.2503 -0.0313
22898W        W65914   2.693  14.024  19.969  0.0440 -0.1290 -0.1351
22899W        W65915  17.900  12.567  23.219 -0.1290 -0.0230  0.2101
22900W        W65916  33.411  28.941  23.656 -0.0941 -0.0970 -0.2688
22901W        W65917  21.709  22.346  16.098 -0.0048  0.1504  0.2386
22902W        W65918   2.962   8.837   1.735  0.1166  0.2005  0.2472
22903W        W65919  18.081  22.984  29.240  0.1325 -0.0807  0.0836
22904W        W65920   7.346  22.384  17.739 -0.0006 -0.3399 -0.1645
22905W        W65921  25.121  15.872  16.342  0.1743  0.2307  0.2148
22906W        W65922  24.698   0.337  24.357 -0.1372 -0.1165  0.2157
22907W        W65923   4.625  19.642   7.472  0.0417  0.1828 -0.0162
22908W        W65924  29.009   1.778  25.990 -0.0811 -0.4578 -0.1986
22909W        W65925  25.709   6.320  20.360  0.2170  0.2485 -0.2344
22910W        W65926   1.075  22.679  20.663 -0.3384 -0.0434  0.1962
22911W        W65927  25.335  22.001  26.129  0.1646 -0.1563 -0.0484
22912W        W65928   6.830  19.031   1.020  0.1857 -0.2845  0.0258
22913W        W65929  29.597  17.386   1.378  0.0664  0.2498  0.0688
22914W        W65930  24.132  21.249  19.873 -0.3999 -0.1046  0.0085
22915W        W65931  26.418  12.278  19.823 -0.1295  0.0651 -0.3017
22916W        W65932  29.138  34.731   2.535  0.0702  0.0367 -0.3303
22917W        W65933   4.010  20.346  20.085 -0.1365 -0.1593  0.1099
22918W        W65934  26.693  11.069  26.222 -0.0452 -0.0702 -0.1168
22919W        W65935  24.527  13.883  27.452  0.0406  0.1699  0.2029
22920W        W65936   1.996  23.838  23.070  0.0333  0.2280  0.1094
22921W        W65937  10.266  24.219   0.760  0.0224 -0.4606 -0.2461
22922W        W65938  19.749  28.753  20.916  0.5065 -0.0623 -0.2200
22923W        W65939  28.443  32.022  26.140  0.1227 -0.6112 -0.0464
22924W        W65940  21.837  11.169  24.342 -0.0119  0.0561  0.3438
22925W        W65941  30.457   2.035  22.926  0.1038  0.0998  0.0054
22926W        W65942   3.452  16.396   1.951  0.0397  0.1422 -0.1025
22927W        W65943  20.017  21.132  20.111  0.0330 -0.3350  0.2542
22928W        W65944  30.516  15.397  26.428  0.2470  0.0938  0.0230
22929W        W65945  33.105  34.174   5.934 -0.4309  0.0574 -0.0400
22930W        W65946  33.953  10.685  19.459 -0.4233  0.1529 -0.0718
22931W        W65947  24.852  33.394   0.655  0.1662  0.1113  0.0702
22932W        W65948  20.957  10.422  20.659  0.3961 -0.0708  0.4760
22933W        W65949  24.053  16.374  22.104  0.2883 -0.1615  0.2480
22934W        W65950  26.410  20.489   1.101 -0.0159 -0.1046  0.3349
22935W        W65951  28.398  12.690  16.291  0.5904  0.2750 -0.4027
22936W        W65952  29.475  14.135  17.445 -0.0488  0.3753 -0.0801
22937W        W65953  28.489  32.900  18.140 -0.0080 -0.1951 -0.1279
22938W        W65954  32.245  27.072  19.354 -0.1100 -0.0111 -0.1096
22939W        W65955  17.295  30.589  20.652 -0.2288  0.1363  0.4390
22940W        W65956  26.104  24.583  15.700 -0.3737 -0.0299  0.1959
22941W        W65957  23.026   5.853  23.985  0.0189  0.1799 -0.4049
22942W        W65958   2.999  27.060  16.819  0.0417  0.1630 -0.0389
22943W        W65959   4.297  17.336  16.534 -0.3427  0.0825 -0.3491
22944W        W65960  31.119  29.827   1.564  0.0501 -0.2195  0.0135
22945W        W65961   1.540  30.075  20.793  0.0554  0.1006  0.0209
22946W        W65962  24.953  24.201  15.927  0.3111 -0.2888 -0.0789
22947W        W65963   1.099  11.904  29.115 -0.4057  0.0028 -0.1480
22948W        W65964   9.472  12.505  14.906  0.2322  0.3227  0.1428
22949W        W65965  28.941  20.878  17.593  0.1458  0.1556  0.0758
22950W        W65966  31.752  15.456  17.262  0.2194 -0.2021  0.1152
22951W        W65967   4.081  17.629  18.904  0.2369 -0.1927 -0.2371
22952W        W65968   5.700  12.132  23.359  0.2720 -0.2612 -0.1587
22953W        W65969  24.933  17.562  20.308 -0.1762  0.0292  0.0068
22954W        W65970  17.366   6.225  24.251 -0.3083 -0.1525 -0.1081
22955W        W65971  32.200  16.576  16.392  0.0911  0.1129 -0.2428
22956W        W65972  29.109  16.038  17.527 -0.0312  0.0596 -0.0378
22957W        W65973   3.087  22.256   8.390  0.2370  0.2591  0.0494
22958W        W65974  24.942  27.734  20.975 -0.1246  0.2100 -0.0686
22959W        W65975   8.023   8.716  22.159 -0.0322 -0.1621 -0.2165
22960W        W65976   4.042  15.802  15.468 -0.0406  0.0384  0.0000
22961W        W65977  15.972  34.320  17.442 -0.0632  0.2696 -0.0786
22962W        W65978  15.630  25.051  23.372 -0.0245  0.0451  0.2365
22963W        W65979  26.520  15.795  14.251  0.1454 -0.2666 -0.3024
22964W        W65980  26.708   8.013  10.394 -0.0272  0.0221 -0.1450
22965W        W65981  24.122  22.548  20.865 -0.0422  0.0334  0.1965
22966W        W65982   0.306  24.242  19.627 -0.1769  0.0025  0.1022
22967W        W65983  25.471  20.329  17.289 -0.2006  0.2334  0.2015
22968W        W65984   2.547  17.205  16.921  0.0356 -0.1014  0.0207
22969W        W65985  33.567   7.492  23.918  0.2296  0.2322  0.0631
22970W        W65986  22.430   3.839  21.631  0.2182  0.0038 -0.2163
22971W        W65987  18.095  10.074  24.467  0.0613 -0.0670 -0.0316
22972W        W65988  27.910  10.040  14.787  0.2411  0.0241  0.1672
22973W        W65989  32.353  24.870  16.497  0.3491 -0.1360  0.0156
22974W        W65990  19.960  26.674  27.103 -0.1319 -0.0893  0.1420
22975W        W65991  19.977  34.745  24.607 -0.0548  0.0758 -0.3149
22976W        W65992  24.863   2.378  26.471  0.1696  0.3550  0.0112
22977W        W65993  32.396  22.721  21.329 -0.1155  0.1295 -0.3152
22978W        W65994  16.025  25.848  23.706 -0.1456  0.0069 -0.1880
22979W        W65995   5.766  10.765  15.031 -0.1752  0.2260  0.0922
22980W        W65996  30.721  26.308  22.926  0.1067 -0.2882  0.3231
22981W        W65997  32.410  18.214  19.444  0.2421  0.0968 -0.4474
22982W        W65998  18.784  32.932  23.334 -0.4807  0.1047 -0.3599
22983W        W65999  24.846  20.955  21.863 -0.0851  0.1048  0.2005
22984W        W66000  32.185   7.964  15.324 -0.1534  0.0479  0.1153
22985W        W66001  22.375  23.931  19.673  0.0383 -0.2761 -0.2063
22986W        W66002  26.608  32.775   4.298 -0.0286 -0.0208 -0.2711
22987W        W66003   7.526  19.264   0.390  0.2035  0.0290 -0.1863
22988W        W66004   6.168  21.458  16.002  0.1411  0.0428 -0.0503
22989W        W66005  25.671  17.431  19.037  0.0793 -0.0656  0.1520
22990W        W66006   2.233  20.951  25.486 -0.1759 -0.0789 -0.3042
22991W        W66007  25.869  19.798  18.000  0.1274  0.1078 -0.1491
22992W        W66008  30.654   7.385  18.377  0.2822 -0.0427 -0.0102
22993W        W66009  23.199  10.395  14.307 -0.0863  0.3517 -0.0062
22994W        W66010   8.991  24.137  14.952  0.1430  0.1199 -0.2511
22995W        W66011   0.159  24.001  18.061 -0.0735 -0.1745  0.1053
22996W        W66012   3.542  18.829  28.384 -0.1274  0.0693 -0.1041
22997W        W66013  19.190  18.170  20.620  0.3104 -0.0735  0.3230
22998W        W66014  18.910   2.097   6.409  0.3344  0.1599 -0.1173
22999W        W66015  22.365  17.469  21.249  0.0741 -0.0828  0.0428
23000W        W66016   6.414  33.219  17.040  0.0192  0.0930 -0.0238
23001W        W66017   2.281  26.085  20.026 -0.1155  0.2801 -0.1992
23002W        W66018  18.793  30.640  17.409 -0.1911 -0.0873  0.0945
23003W        W66019  13.123  28.945   3.160 -0.2181 -0.3238  0.1293
23004W        W66020  26.306  22.457  14.843 -0.0430 -0.0464 -0.1334
23005W        W66021  27.671  22.335  19.856  0.1316  0.1350 -0.1555
23006W        W66022  20.258  17.227  13.543 -0.0929 -0.0736 -0.1437
23007W        W66023  20.308  14.898  14.171  0.1043 -0.3945  0.2729
23008W        W66024  30.128  12.546  22.854  0.0198  0.0530 -0.1364
23009W        W66025  21.962  18.928  16.013  0.0541  0.2990  0.1983
23010W        W66026   4.727  22.473  25.629 -0.1566  0.1141 -0.0547
23011W        W66027  25.455  24.676   9.855 -0.3187 -0.5235  0.1435
23012W        W66028  29.722  17.345   3.284 -0.1421  0.0738  0.0576
23013W        W66029  31.623  21.507  17.765 -0.0933 -0.0903  0.0955
23014W        W66030  21.407  25.465  17.154 -0.1900  0.1012 -0.3155
23015W        W66031  19.049  18.408  14.835  0.1553 -0.0680  0.0311
23016W        W66032  20.320  30.757  16.234 -0.2361 -0.1171  0.0951
23017W        W66033  27.472  31.631   8.101 -0.0246 -0.1198 -0.2933
23018W        W66034  23.589  33.666  21.127  0.2068 -0.1928 -0.0716
23019W        W66035  19.492  23.533   2.486  0.2058 -0.1947 -0.0397
23020W        W66036  18.949  13.706  19.312 -0.1093  0.0484 -0.0975
23021W        W66037   5.779  18.409  22.433  0.0219  0.2694  0.0373
23022W        W66038  31.557  17.538  28.460  0.2963 -0.1517  0.2169
23023W        W66039  25.057  22.796  25.844 -0.0708  0.0728 -0.2864
23024W        W66040  21.681   9.452  22.774 -0.1887  0.1134 -0.1316
23025W        W66041  16.393  12.905  28.408  0.1453  0.3859 -0.2798
23026W        W66042   5.845  16.792   6.791  0.1745 -0.1510 -0.1832
23027W        W66043  32.948   8.283  22.356 -0.2938  0.2853  0.3162
23028W        W66044   0.878   8.384  22.972 -0.0806  0.3020  0.4847
23029W        W66045   8.761  20.336   7.628 -0.2553  0.1156  0.1358
23030W        W66046   8.166  22.351  18.744 -0.3006 -0.0305 -0.0578
23031W        W66047   9.309  16.925  13.972  0.0633  0.1812 -0.1930
23032W        W66048  32.069  22.852  24.841 -0.1878 -0.0386 -0.1518
23033W        W66049  25.582  23.434  18.681 -0.2078  0.0005 -0.2357
23034W        W66050  29.611  13.320  19.736 -0.5834  0.1978 -0.0792
23035W        W66051  24.576  32.106   0.665  0.0685 -0.0926 -0.0351
23036W        W66052   1.829   2.959   4.788  0.1559 -0.1457  0.0597
23037W        W66053  23.882  22.713  28.953 -0.0527  0.1344 -0.2220
23038W        W66054   2.959  23.371  26.006 -0.0768  0.1395 -0.2945
23039W        W66055  25.653  28.006  16.724  0.1513  0.1636  0.1624
23040W        W66056  12.518  10.833  21.119  0.0979  0.0619  0.0080
23041W        W66057  31.680  27.252  21.041  0.4019 -0.1114 -0.0325
23042W        W66058   0.509  12.754  20.301 -0.0297  0.4861  0.1685
23043W        W66059  27.097   7.184   0.510  0.1261 -0.0097  0.0904
23044W        W66060  15.719  33.328  27.531 -0.1357  0.2433  0.0691
23045W        W66061  18.401  32.671  25.341 -0.2878 -0.0237  0.1529
23046W        W66062   0.577  26.375  28.508 -0.3362 -0.1825  0.3194
23047W        W66063  29.392  17.554  21.698  0.1218 -0.1633 -0.1688
23048W        W66064   5.570   6.407  25.573 -0.3537 -0.4262 -0.1008
23049W        W66065  16.073  13.685  14.747 -0.2475  0.0894 -0.2100
23050W        W66066  29.632  20.238  18.844  0.0185 -0.1110  0.0783
23051W        W66067  20.190  27.877  25.974  0.2562 -0.1133 -0.2743
23052W        W66068   1.748  26.157  26.218  0.0634  0.1539 -0.0868
23053W        W66069   0.568  18.318  28.918  0.1026  0.1781 -0.1472
23054W        W66070  24.798  25.067  16.010  0.0317  0.1345 -0.0189
23055W        W66071  24.889  13.125  18.196 -0.3153 -0.0293 -0.1365
23056W        W66072   2.697  14.991  22.444  0.0528  0.0620 -0.1144
23057W        W66073  28.157  28.401  19.091 -0.4426 -0.2311  0.0495
23058W        W66074  19.786  29.309  22.206  0.1872 -0.0217 -0.0162
23059W        W66075  29.854   1.171   0.145  0.0228 -0.2115 -0.2735
23060W        W66076  17.047  33.579  20.487  0.2655 -0.0842 -0.0971
23061W        W66077  22.983  27.808  23.739  0.0782  0.1484  0.2000
23062W        W66078  21.376  21.294  14.199  0.2602  0.0494  0.3339
23063W        W66079  20.604  24.249  19.922 -0.3081  0.0639  0.1487
23064W        W66080   2.139  15.986  22.248 -0.2621 -0.1781 -0.3085
23065W        W66081   5.255   5.957  16.860  0.2947  0.2079  0.4446
23066W        W66082  21.228  30.942  19.108  0.3631 -0.0465  0.0350
23067W        W66083  28.826   5.515   7.149  0.0479 -0.2088  0.0173
23068W        W66084  31.729  11.183  28.111  0.0216 -0.0505  0.1095
23069W        W66085  33.679  17.104  16.539  0.0248  0.1985  0.1526
23070W        W66086   5.180  11.297   0.596  0.2952 -0.0213  0.0965
23071W        W66087  13.008   4.253   5.084 -0.2905 -0.0306  0.1590
23072W        W66088   6.661  22.717  20.718  0.0187 -0.0341  0.2505
23073W        W66089  23.684  27.187  26.896 -0.1765 -0.2309  0.1412
23074W        W66090  30.920   7.457  22.864  0.2537  0.0759 -0.1816
23075W        W66091  15.519  17.196  20.731 -0.0304 -0.2041 -0.1100
23076W        W66092  26.197  16.715  21.097  0.1240 -0.2045  0.1147
23077W        W66093   5.414   5.324  23.632  0.0796  0.0177  0.0085
23078W        W66094  21.108  23.677  22.871  0.2234 -0.1574  0.0138
23079W        W66095  22.664  20.052  16.000 -0.1317  0.0155  0.1994
23080W        W66096  27.144  30.212  24.948 -0.0383 -0.1828  0.0143
23081W        W66097  25.360   6.780   8.144  0.2723 -0.0996 -0.2178
23082W        W66098   1.136   6.234  18.926 -0.0384 -0.1565  0.2680
23083W        W66099   5.603  29.241   7.129  0.0634  0.1477 -0.0059
23084W        W66100   3.673  23.676   2.439 -0.0378  0.0840  0.0035
23085W        W66101  10.983  12.371  15.829  0.2885  0.1733  0.1440
23086W        W66102  28.118  24.825   0.917  0.1949  0.0199  0.2011
23087W        W66103  29.956  19.164  21.715 -0.1571 -0.2378 -0.2747
23088W        W66104  27.708  20.175  15.262  0.1251 -0.4156  0.3049
23089W        W66105  10.398  28.429  25.828  0.0032 -0.1292  0.0837
23090W        W66106  25.126   2.839  27.352 -0.2663 -0.0910  0.0500
23091W        W66107  24.690  30.531  22.336  0.4048 -0.0311  0.1884
23092W        W66108  27.118  21.523  26.451 -0.2086 -0.1259  0.4242
23093W        W66109  25.167  22.015  19.128 -0.0351 -0.0836 -0.2779
23094W        W66110  23.834  23.574  17.828 -0.0415 -0.1211  0.1195
23095W        W66111  23.869  33.684  16.978  0.0447  0.3001 -0.0387
23096W        W66112  20.086   9.515  24.879 -0.1428  0.3725 -0.0316
23097W        W66113  31.292  16.316  20.911  0.0887  0.0647  0.0446
23098W        W66114  25.741  23.695  18.010  0.1683 -0.3025  0.0224
23099W        W66115  16.657  22.124  12.845 -0.1422 -0.1232 -0.3020
23100W        W66116  22.545  22.008  15.796 -0.1165 -0.0276 -0.2862
23101W        W66117   5.166  23.357  13.933 -0.2867 -0.2244 -0.1661
23102W        W66118  32.007   1.234   6.092 -0.3199 -0.4623  0.1380
23103W        W66119  14.789   0.672  16.532 -0.1411 -0.0290 -0.0770
23104W        W66120  22.406   4.374  18.996 -0.0617  0.1745  0.0308
23105W        W66121  31.425  20.560  24.138 -0.0866  0.0065 -0.2573
23106W        W66122  24.915  30.568  16.576  0.2345 -0.1402 -0.3467
23107W        W66123   1.706   2.126  16.545  0.2209  0.5145 -0.0752
23108W        W66124  13.780  12.968   3.337 -0.1866 -0.1570 -0.0352
23109W        W66125  32.395  24.826  15.615 -0.0577 -0.0100  0.3218
23110W        W66126  33.967  19.767  23.520 -0.1853  0.0107 -0.0747
23111W        W66127  26.624  13.044  27.327  0.1801  0.0418  0.0873
23112W        W66128   1.865  14.949  27.809  0.0569  0.1587 -0.0813
23113W        W66129  25.002   1.180  16.122 -0.0627 -0.2018 -0.2933
23114W        W66130  34.375   9.109  17.202 -0.0379 -0.2469 -0.1324
23115W        W66131   1.618  28.431  24.668 -0.1694  0.1382 -0.2409
23116W        W66132  21.455   0.504  10.009 -0.2689  0.0132  0.0841
23117W        W66133  33.056   6.961  18.418 -0.0041 -0.0240  0.0218
23118W        W66134   0.870  31.274  25.504  0.0725  0.1583  0.0607
23119W        W66135  28.013  32.119   7.573  0.1073  0.0361 -0.2487
23120W        W66136  12.494  31.499  18.287 -0.3781  0.1407 -0.2456
23121W        W66137  26.219   7.840  25.071  0.1440 -0.1999  0.0818
23122W        W66138  21.021  18.959   2.664 -0.2425  0.0277 -0.0976
23123W        W66139  27.287  28.362  18.824  0.0957 -0.2500  0.1351
23124W        W66140  25.692  13.718   2.512 -0.0810 -0.0387 -0.0781
23125W        W66141  20.474  19.776  22.560 -0.0387  0.1135 -0.1648
23126W        W66142  12.446  32.492  24.739 -0.2872  0.2278  0.2039
23127W        W66143  31.892   7.064  16.625 -0.2432 -0.0872  0.0772
23128W        W66144  31.746  17.567  21.047  0.2601  0.0451  0.0158
23129W        W66145  29.243  28.095  21.082 -0.1713  0.2275  0.0096
23130W        W66146  18.537  25.843  21.437 -0.2981 -0.2934 -0.0483
23131W        W66147  28.403  10.936  20.655 -0.1990  0.2523  0.0703
23132W        W66148   7.835  10.102  19.562  0.5103 -0.2935  0.2141
23133W        W66149   8.180  32.798   4.754  0.2651 -0.0916  0.0306
23134W        W66150  32.877   6.792  19.156 -0.1713 -0.1110  0.2159
23135W        W66151  33.979  13.705  17.835 -0.1213 -0.3019  0.2813
23136W        W66152   2.374   3.778  27.500 -0.1034 -0.0446  0.3098
23137W        W66153  32.155  24.219  19.772  0.0780 -0.0789  0.1056
23138W        W66154  11.006  20.813  19.108  0.2148  0.0190 -0.2784
23139W        W66155  22.285  34.014  27.165  0.1279 -0.2938  0.0133
23140W        W66156  18.333   1.817  27.882  0.0220  0.4297 -0.2181
23141W        W66157  25.737  12.161  17.699 -0.0821  0.1368  0.1312
23142W        W66158  25.483  28.587  24.911  0.4009 -0.0367 -0.2303
23143W        W66159  21.526  20.228  17.504  0.1224  0.1924  0.1633
23144W        W66160  12.096  27.934  21.103  0.0552 -0.1558  0.1583
23145W        W66161  17.481   3.365  28.801 -0.1571 -0.1047  0.0623
23146W        W66162  16.863  25.030  28.297  0.0016 -0.1237 -0.1162
23147W        W66163   2.365  23.906  27.310 -0.2230 -0.3042 -0.1583
23148W        W66164  19.056   9.196   3.127  0.2498  0.0604 -0.2081
23149W        W66165  22.336   5.275  23.023 -0.1181 -0.0899 -0.0219
23150W        W66166  16.133  16.226  19.614  0.0851 -0.2093  0.1065
23151W        W66167  31.606  31.860   3.616 -0.1220  0.0725  0.0872
23152W        W66168  23.940  10.050  14.918 -0.3036 -0.1540  0.2408
23153W        W66169  30.582  12.174  15.574 -0.1529 -0.0191  0.1194
23154W        W66170  12.700   8.970  25.596 -0.0753  0.1483  0.0591
23155W        W66171  14.415  24.128  15.784 -0.0694 -0.0418 -0.3969
23156W        W66172  21.671  26.568  25.078 -0.0065 -0.0863 -0.1549
23157W        W66173  27.925  17.543  15.534 -0.0842  0.1878  0.2895
23158W        W66174  16.908   8.100  23.829 -0.2322  0.0494  0.2078
23159W        W66175  34.155  17.017   2.418  0.1105  0.1065  0.5381
23160W        W66176  23.633   6.361   8.931 -0.3380 -0.1093 -0.1974
23161W        W66177  31.326  10.254  20.926 -0.0771 -0.2729  0.2019
23162W        W66178  27.736  10.711  24.207 -0.2175 -0.2547  0.2077
23163W        W66179  23.770  15.259  22.423 -0.1158 -0.1089 -0.1804
23164W        W66180  29.052  15.752  14.149 -0.1489  0.2796 -0.1181
23165W        W66181  30.644  21.033   0.355  0.1072 -0.1583 -0.1740
23166W        W66182  10.663  12.345  27.563 -0.3445 -0.1553 -0.0409
23167W        W66183  19.799  31.969  18.183  0.2465  0.0425 -0.3160
23168W        W66184  23.368  23.896  27.666  0.1494  0.0345  0.0622
23169W        W66185  31.764   8.921  17.237  0.0853 -0.0525 -0.0158
23170W        W66186  23.525  33.829   5.259  0.2280 -0.1199 -0.1972
23171W        W66187   7.006  20.825   2.910 -0.0781 -0.1669  0.0424
23172W        W66188  22.932  33.135  18.938  0.1027 -0.1439 -0.0255
23173W        W66189  25.934  31.420  21.214 -0.0185  0.1130  0.0130
23174W        W66190   0.228  15.670  21.993 -0.1249 -0.3575  0.3101
23175W        W66191  28.070   3.355  18.831 -0.0054  0.1519  0.2024
23176W        W66192  29.008  14.032  14.987  0.0452 -0.0697  0.0991
23177W        W66193  26.570  33.368  28.362 -0.0076  0.2874 -0.0979
23178W        W66194   9.006  29.626  24.534 -0.1959  0.1049 -0.2172
23179W        W66195  30.632  24.090  23.854 -0.2047 -0.0465 -0.0410
23180W        W66196  27.913   4.098  25.458 -0.0405  0.0459 -0.2511
23181W        W66197   0.690  31.994  23.362 -0.0792  0.1379 -0.0702
23182W        W66198  20.300   5.170  28.809 -0.1324 -0.2746  0.0235
23183W        W66199  34.381  24.069  20.987  0.3601  0.0778  0.0714
23184W        W66200  25.284  31.519  17.864 -0.1012 -0.1090  0.1838
23185W        W66201  30.258   5.112  19.883  0.1297 -0.2575 -0.2231
23186W        W66202  26.881  11.565  18.084  0.0374  0.3310 -0.1844
23187W        W66203  15.492  25.031  20.344  0.1622 -0.0157  0.1882
23188W        W66204   1.236  16.569   1.978  0.0980  0.0689  0.0262
23189W        W66205  22.980  18.175   4.395 -0.0570  0.2712  0.2595
23190W        W66206   5.170   7.473  17.922 -0.1855  0.2466 -0.1929
23191W        W66207  18.730  21.942  15.453  0.3715  0.1718 -0.0495
23192W        W66208  21.451  11.898  18.650  0.1062 -0.0915  0.1705
23193W        W66209  27.902  24.322  18.416 -0.0250 -0.2925  0.1605
23194W        W66210  26.678  11.156   1.129 -0.0944 -0.0225  0.1088
23195W        W66211  27.104  18.455   8.936  0.1532 -0.0460  0.0196
23196W        W66212  27.773  15.500  22.587  0.2149  0.2772  0.0924
23197W        W66213  20.382  20.455  25.402 -0.2029 -0.0958  0.1426
23198W        W66214  24.993  33.276  15.746 -0.4904  0.1073  0.3497
23199W        W66215  30.039  20.929   5.187  0.0056  0.0655  0.0336
23200W        W66216  17.869  31.058  14.980 -0.1902  0.0005 -0.3535
23201W        W66217  29.659  23.401  16.285  0.1033 -0.3716  0.4743
23202W        W66218   0.597  18.073   7.062  0.1497 -0.2525  0.0930
23203W        W66219   8.286  17.890  13.813 -0.0571 -0.0400 -0.0648
23204W        W66220  30.787  25.840  21.143  0.2491  0.0254 -0.1745
23205W        W66221  34.622  29.419  18.015 -0.0065  0.1108  0.0270
23206W        W66222  16.673  29.489  26.396  0.0753 -0.1967 -0.2241
23207W        W66223   4.036  25.059  19.780 -0.2209 -0.2549 -0.3299
23208W        W66224   4.625  12.433  13.722  0.0707 -0.1584 -0.0270
23209W        W66225   9.954   9.089  18.233  0.0795  0.1027 -0.0429
23210W        W66226  33.488  31.712  16.762 -0.2414  0.3693 -0.1229
23211W        W66227  19.415  19.790  14.907 -0.1395  0.2976  0.0856
23212W        W66228  12.250  11.640  25.740  0.2503 -0.2870 -0.0684
23213W        W66229  21.234  10.380   0.254  0.2343  0.1549  0.0606
23214W        W66230  24.717  19.840  22.438  0.1635  0.1625 -0.2308
23215W        W66231  19.550  17.580   1.739 -0.2736  0.3765  0.2451
23216W        W66232  31.625  23.945   4.187 -0.2910 -0.0725  0.0196
23217W        W66233  18.493  15.701  21.259  0.3293  0.1289 -0.0632
23218W        W66234   4.620  32.951   0.820  0.1376  0.2000 -0.0082
23219W        W66235  15.675   3.668   6.586 -0.4478 -0.0399  0.4612
23220W        W66236  24.261   9.929  24.933 -0.1549  0.1780  0.1576
23221W        W66237  22.067  27.595   1.147  0.0367  0.1016 -0.1643
23222W        W66238  32.958  32.311  21.398  0.1691 -0.0652 -0.0464
23223W        W66239  33.434  10.735  18.599 -0.1717 -0.1351 -0.1669
23224W        W66240  29.336   4.609  20.376  0.0288  0.2642 -0.6368
23225W        W66241  27.677  16.066  21.149 -0.2377  0.1675 -0.0891
23226W        W66242  22.201  15.299  25.136 -0.0688 -0.1130  0.0539
23227W        W66243  19.204  28.802  16.951  0.2348 -0.1949  0.0045
23228W        W66244  31.170   8.710   2.530 -0.2379 -0.4278  0.3021
23229W        W66245  26.872   3.646  23.014 -0.3008 -0.0681 -0.1033
23230W        W66246  22.765  23.290  25.655 -0.2348  0.0683 -0.1287
23231W        W66247  10.149  15.231  18.227 -0.4274 -0.1915 -0.2272
23232W        W66248  25.762  16.867  22.971  0.1792  0.1279 -0.3363
23233W        W66249  17.081  33.453   7.736  0.0808 -0.4510 -0.3225
23234W        W66250  21.102  19.891  13.820  0.0603 -0.1544 -0.1379
23235W        W66251  33.356  19.669   0.882  0.3035 -0.1111 -0.1433
23236W        W66252   3.291   9.030  23.462  0.0412 -0.0638  0.4561
23237W        W66253  19.855   7.166  17.946  0.0162 -0.0120 -0.1356
23238W        W66254  25.964  30.800  17.736 -0.1589 -0.1255  0.1089
23239W        W66255  10.681   4.925  16.695 -0.0460 -0.1080  0.1004
23240W        W66256   8.157  10.963  27.460 -0.2426  0.1016 -0.1223
23241W        W66257  22.866  18.104  23.117 -0.0171  0.0297  0.0575
23242W        W66258  13.237   8.486  26.248 -0.0404 -0.4063  0.1893
23243W        W66259  18.717  19.303  16.005  0.2050  0.2162  0.3601
23244W        W66260  19.597  31.479   6.125  0.0683  0.0791 -0.0934
23245W        W66261  16.521  23.152  12.370 -0.0855  0.1908  0.0292
23246W        W66262   3.376  32.718  25.209  0.0812  0.2132  0.2817
23247W        W66263  19.495  31.770  15.481  0.2292  0.3637 -0.0147
23248W        W66264  30.704   9.119  19.937  0.3678  0.0099 -0.0023
23249W        W66265  13.849  22.584   7.360  0.1443  0.1530 -0.2584
23250W        W66266  18.115   8.483  16.513 -0.1061  0.0471 -0.0685
23251W        W66267   2.194  17.157  27.079  0.1187  0.0915  0.0142
23252W        W66268   8.895  14.262  16.822 -0.1421  0.0654 -0.0677
23253W        W66269  21.074  23.171  15.043 -0.2778  0.0532  0.2160
23254W        W66270   6.912   2.588  23.697  0.0336 -0.1049  0.1323
23255W        W66271   1.521  23.385  19.597  0.0342 -0.4076  0.0063
23256W        W66272  26.160  15.972  18.686  0.0468  0.0365  0.2303
23257W        W66273  23.008  14.659  28.425 -0.0203  0.0818 -0.0272
23258W        W66274  28.079  23.043  21.677  0.0217 -0.0949 -0.0871
23259W        W66275  15.751  28.484  29.137 -0.0421  0.0376 -0.0026
23260W        W66276  24.982  15.297  17.930 -0.3935  0.1687  0.0294
23261W        W66277  30.786   1.231  17.396 -0.3294 -0.1549  0.1451
23262W        W66278  19.337  25.615  24.634  0.0639  0.4055 -0.0156
23263W        W66279  17.383  23.165  22.269 -0.0553 -0.2373  0.2408
23264W        W66280  28.746   8.252  28.674  0.2744 -0.1761  0.2520
23265W        W66281  21.746  23.709  15.588  0.0583  0.0300  0.2143
23266W        W66282   4.189  16.744  13.635  0.0443 -0.2131 -0.2555
23267W        W66283  24.027  14.328  21.724  0.0757 -0.1127  0.1441
23268W        W66284  26.215  31.679  19.931  0.1718  0.3776 -0.0164
23269W        W66285  20.977  12.876  27.139  0.1356  0.1391  0.1958
23270W        W66286  34.116  32.342  28.533 -0.4652 -0.3636 -0.3210
23271W        W66287  27.241  23.776   7.599 -0.1462  0.0604  0.3769
23272W        W66288  28.128  32.888  23.852  0.1439  0.1236 -0.0008
23273W        W66289  25.301  13.016  24.241  0.3482 -0.0001  0.0783
23274W        W66290  25.413  23.913  18.823  0.1340 -0.0958  0.1555
23275W        W66291  12.263   9.042   7.508 -0.1646  0.2232  0.0941
23276W        W66292  21.557  19.506  23.730 -0.1793  0.1535 -0.0384
23277W        W66293   9.904  27.188  17.132 -0.0783  0.0916 -0.2535
23278W        W66294  16.858  19.328  20.853  0.4292  0.0491  0.1376
23279W        W66295  28.613  29.910   5.470 -0.0677  0.3563 -0.3114
23280W        W66296  21.880  25.515  20.037 -0.2642  0.0455 -0.0354
23281W        W66297  23.079  17.451   1.734  0.1739 -0.1378 -0.0913
23282W        W66298  31.861  23.500  18.083  0.2370 -0.2439 -0.1851
23283W        W66299  23.220   4.289   6.247 -0.1846 -0.1503 -0.0869
23284W        W66300  18.142  29.731   1.945 -0.0125  0.2241 -0.0386
23285W        W66301  30.544  10.123  18.342  0.4909  0.0445  0.1645
23286W        W66302  19.676  30.687  21.772  0.0755  0.1260 -0.1060
23287W        W66303  30.246  18.656   0.438  0.1966 -0.0906 -0.0689
23288W        W66304  31.551   5.392  18.673  0.1866  0.0393  0.0170
23289W        W66305  34.318  15.934   1.434 -0.5225 -0.0359 -0.2711
23290W        W66306  23.649  14.921  13.858 -0.1939  0.0508  0.3214
23291W        W66307  23.477  29.339  27.297  0.1843  0.0453  0.0446
23292W        W66308   3.841  15.386  18.334  0.0061 -0.3230  0.0582
23293W        W66309  20.144   8.418  17.655  0.1295 -0.0019 -0.1374
23294W        W66310  22.092   4.221  21.528 -0.2993 -0.3348 -0.2616
23295W        W66311  31.668  16.369  18.540  0.0335  0.1896  0.0002
23296W        W66312  28.147  22.513  25.180  0.1470 -0.1218 -0.0185
23297W        W66313   4.791  23.409  21.220 -0.0365  0.1455 -0.1203
23298W        W66314  23.920   1.389  25.051  0.1809 -0.1958 -0.0689
23299W        W66315  20.124   8.652  18.609 -0.4432 -0.2756 -0.0885
23300W        W66316  13.172  13.510  19.690 -0.1135  0.1014 -0.2430
23301W        W66317  26.284  12.104  18.867 -0.1911 -0.2393 -0.1501
23302W        W66318  27.282  12.840  17.441  0.0816  0.1313  0.2552
23303W        W66319  26.729  29.787  22.618 -0.1278 -0.2480  0.2340
23304W        W66320  19.531  31.946  27.458  0.0122 -0.0910 -0.1452
23305W        W66321  12.658  18.390  21.346  0.0701 -0.0330 -0.0906
23306W        W66322  32.253  25.452  22.545 -0.1297  0.1845  0.1733
23307W        W66323  15.605  23.740  21.614  0.3204 -0.0131  0.0814
23308W        W66324  28.292  18.363  23.147  0.0190 -0.1795  0.2287
23309W        W66325  12.707  18.660  22.694 -0.0669 -0.3423 -0.1102
23310W        W66326  32.550  18.773  20.873  0.1198  0.2913 -0.2052
23311W        W66327   1.387  16.707  28.138 -0.1477 -0.0038  0.2359
23312W        W66328   6.522  23.501   3.796  0.3258  0.2244  0.1141
23313W        W66329  28.478  11.322  19.033 -0.3560 -0.0063 -0.1309
23314W        W66330  32.036  33.491  21.400 -0.0675  0.0945 -0.0411
23315W        W66331  28.902  31.439  17.679 -0.0600  0.3354  0.0619
23316W        W66332  22.803   8.943  25.662  0.4387  0.2918 -0.4249
23317W        W66333   4.988  21.324  13.104 -0.2820 -0.0178  0.1232
23318W        W66334   5.421  29.642  15.421  0.0910  0.1301 -0.1778
23319W        W66335  25.726  11.699   8.350  0.2276  0.1666 -0.0141
23320W        W66336  27.124   0.075  25.798  0.0558 -0.3213 -0.1964
23321W        W66337   7.750   6.564  18.288  0.1829 -0.0730  0.2875
23322W        W66338  25.546  26.525  29.006 -0.2241 -0.0064  0.0246
23323W        W66339  33.985  10.742  27.297  0.0867 -0.0911  0.0192
23324W        W66340   5.243  15.438  14.043 -0.0851 -0.3334  0.0673
23325W        W66341  16.163  32.006  23.047  0.0825 -0.0922  0.1336
23326W        W66342  19.238  11.532  15.897  0.2293  0.0069 -0.1043
23327W        W66343  24.067  21.707  27.560  0.3480 -0.3488  0.1463
23328W        W66344  26.844   3.670  17.473 -0.0175  0.0604  0.0694
23329W        W66345  24.981  24.771   1.335 -0.0306 -0.0620  0.2670
23330W        W66346  14.552  17.279   6.780  0.0838  0.0837 -0.0461
23331W        W66347  21.526  19.069  17.435  0.1041  0.1016  0.1810
23332W        W66348   5.092  13.586  16.242  0.1223  0.1038 -0.1712
23333W        W66349   7.135  29.616  19.460  0.0902 -0.0436 -0.2871
23334W        W66350  21.983  18.665  21.409  0.0080 -0.0541  0.1247
23335W        W66351  21.930  32.457  15.405 -0.0866  0.2790  0.1335
23336W        W66352   2.068  22.465  14.903 -0.0843  0.3864  0.2828
23337W        W66353   7.803   3.401  26.857 -0.1995 -0.0040 -0.1908
23338W        W66354  26.886  19.235  24.141 -0.1767  0.0949 -0.0567
23339W        W66355  32.737  23.485  20.767 -0.0940 -0.2711 -0.1605
23340W        W66356  18.482   0.545  13.958 -0.1726  0.1825  0.2336
23341W        W66357  24.479  20.168  21.662  0.2360  0.0147  0.0149
23342W        W66358   9.477   5.420  13.781  0.0785  0.1854  0.3189
23343W        W66359  31.542  15.249  15.534  0.3920  0.0898 -0.2594
23344W        W66360  20.142  13.019  22.726 -0.2080  0.0828  0.4642
23345W        W66361  29.738   8.018  21.648  0.1152 -0.1914  0.1121
23346W        W66362  32.785  22.474  22.573 -0.1413  0.0099 -0.0382
23347W        W66363  14.072   3.440  17.665 -0.0102  0.1239 -0.1052
23348W        W66364  13.389  17.094   3.683 -0.2798  0.0366  0.0453
23349W        W66365  26.078   2.054  17.212  0.1260 -0.0759  0.2547
23350W        W66366  20.740  28.004  20.506 -0.1468 -0.1219 -0.0200
23351W        W66367   6.279  20.564  18.707  0.0811 -0.1069  0.0254
23352W        W66368  14.084  21.878  20.386  0.1415  0.1107  0.1709
23353W        W66369  15.782  30.037  15.311  0.0089 -0.2226 -0.3076
23354W        W66370   3.769  31.024  28.598  0.0601 -0.2484 -0.0819
23355W        W66371  29.276  33.123  23.827  0.0777 -0.2240 -0.0775
23356W        W66372  32.397  19.241  18.052  0.1061  0.0438 -0.1339
23357W        W66373  13.513   4.784   4.872 -0.0994 -0.0710  0.1462
23358W        W66374  30.801  24.689  17.155  0.1491 -0.2644 -0.0963
23359W        W66375  20.779   9.051   1.160  0.3686 -0.0014 -0.1132
23360W        W66376  12.973  28.112  18.503 -0.0439  0.2572  0.1173
23361W        W66377   3.617  31.461  19.331  0.2484  0.2589 -0.3495
23362W        W66378  33.904  18.816   2.360 -0.2199  0.0137  0.0757
23363W        W66379  14.362  33.942  14.313 -0.1884  0.0116  0.0666
23364W        W66380  29.394  19.755  20.210  0.0126  0.0283 -0.2144
23365W        W66381  20.170   6.997  19.849  0.2810  0.0910  0.2313
23366W        W66382  18.627  26.977  20.060 -0.2103 -0.2337  0.1306
23367W        W66383  18.749  23.790   2.865 -0.0726  0.1803  0.0709
23368W        W66384   0.637   5.062  25.200 -0.1775  0.1478  0.0800
23369W        W66385  25.348  20.924  24.274  0.1813 -0.0780  0.2778
23370W        W66386  17.977  27.660  22.433 -0.0499 -0.1235 -0.0977
23371W        W66387  31.263  23.191  22.976  0.0073  0.2021  0.2677
23372W        W66388  17.011  25.799  21.226  0.1585 -0.0206 -0.0961
23373W        W66389  26.395  23.260  29.238 -0.0789 -0.0500  0.2806
23374W        W66390  27.410  20.628  27.098 -0.1902 -0.0643 -0.2278
23375W        W66391  32.868   5.909  18.415  0.3172  0.2469 -0.3381
23376W        W66392  29.617  30.311  20.514  0.2114 -0.0599 -0.1919
23377W        W66393  20.536   8.550   8.922  0.1642 -0.1455  0.0787
23378W        W66394   2.330  16.101  24.908  0.2720  0.0484  0.2175
23379W        W66395  32.379  33.796   4.400 -0.1892  0.0884 -0.0328
23380W        W66396  33.475  24.366   5.076  0.4313  0.0602 -0.1275
23381W        W66397  21.933  18.079  17.593  0.1492  0.0546  0.2539
23382W        W66398  20.650  22.028  13.701 -0.1480 -0.0463 -0.0072
23383W        W66399   2.094  23.194  14.281  0.0268 -0.0275 -0.0045
23384W        W66400  23.288  22.537  20.893  0.3805  0.0579 -0.1490
23385W        W66401  23.094  30.224  27.370  0.0710  0.0869  0.3405
23386W        W66402   4.333   7.465  18.227  0.0435  0.1569 -0.1859
23387W        W66403  30.131  27.727   0.500 -0.3037 -0.1710  0.0381
23388W        W66404  17.364  15.707  20.620 -0.3059 -0.1286  0.0670
23389W        W66405  30.443  16.351  25.259 -0.1710  0.1175 -0.2528
23390W        W66406  26.732  12.005  28.125  0.1923  0.1723 -0.1709
23391W        W66407   8.566  24.488  15.666  0.0428  0.2202  0.0406
23392W        W66408  16.712   8.373  26.514 -0.0449 -0.2005 -0.0904
23393W        W66409  33.206  25.930  25.198  0.1185 -0.0234  0.2344
23394W        W66410  27.132   6.541  16.964  0.1154 -0.1885 -0.0458
23395W        W66411  24.286  24.543  19.052  0.1845  0.0353  0.2561
23396W        W66412  32.241  16.701  22.242  0.2608 -0.0536 -0.1083
23397W        W66413  26.879  21.887  28.993  0.2106 -0.0612  0.1484
23398W        W66414  15.843  14.452  19.967  0.1018 -0.1502  0.0763
23399W        W66415  20.144  11.764  16.887 -0.1060  0.1459  0.0380
23400W        W66416  23.665   1.861  28.432 -0.0533 -0.2501 -0.0486
23401W        W66417  22.048  33.258  17.710 -0.2040  0.0862 -0.1237
23402W        W66418  15.717   9.933  27.015  0.1242 -0.2523  0.2782
23403W        W66419  26.958  18.825  19.836  0.0495  0.1035  0.2240
23404W        W66420   2.872  29.915  14.127  0.0805 -0.1894  0.0527
23405W        W66421  18.069  20.328  16.065  0.1374 -0.0837  0.0901
23406W        W66422  33.422  21.657  24.665  0.0314 -0.3986  0.0021
23407W        W66423  20.806  24.521  23.866  0.1097 -0.3004  0.0849
23408W        W66424  34.765  30.599   7.721  0.1900  0.0265  0.2351
23409W        W66425   3.094   4.692  15.396 -0.2097 -0.1692 -0.1403
23410W        W66426  23.378   7.038  23.411 -0.0440  0.0261  0.0786
23411W        W66427  21.108   5.355  24.317  0.2327  0.0544 -0.0505
23412W        W66428  25.053  23.908  24.496  0.2664  0.2573 -0.2303
23413W        W66429   5.839  18.766  12.760 -0.0520  0.0229  0.2021
23414W        W66430  25.327  26.315  25.625  0.0192 -0.0234 -0.3736
23415W        W66431  31.278  14.858  15.770 -0.0931 -0.0019 -0.0986
23416W        W66432  22.218  26.171  22.709  0.0346  0.0662 -0.2544
23417W        W66433  29.837  32.638  22.003 -0.1369 -0.2383  0.0693
23418W        W66434   3.011  23.867  27.824 -0.1456  0.0020  0.0156
23419W        W66435  24.575  18.901  16.149  0.3167  0.0639  0.0520
23420W        W66436  20.795  21.202  19.400  0.0850  0.1280  0.1908
23421W        W66437   2.539  21.910  23.987 -0.3110  0.0479  0.1771
23422W        W66438  25.868  27.638  19.991 -0.0594 -0.3479  0.2137
23423W        W66439  19.133  28.627  25.859  0.1481 -0.0774 -0.0314
23424W        W66440  33.024  12.245   2.042 -0.3345  0.2106 -0.0711
23425W        W66441  32.517  15.777  16.443 -0.0962  0.0753 -0.2672
23426W        W66442   2.948  19.708  15.606  0.1901 -0.0229  0.0839
23427W        W66443  30.237  22.853  22.238  0.0847 -0.0803 -0.1685
23428W        W66444  28.027  31.886  22.645 -0.1652  0.1963  0.0828
23429W        W66445  22.794  25.566  21.760 -0.3477 -0.2224 -0.0925
23430W        W66446  31.220  13.214   5.002 -0.1306  0.0665  0.2791
23431W        W66447  26.136  20.267  16.706  0.0394  0.2597 -0.0825
23432W        W66448  23.337  15.447  19.369 -0.2078  0.1579 -0.2156
23433W        W66449  30.785   9.832  16.473  0.1347  0.0621 -0.1121
23434W        W66450   5.571  10.879  17.673 -0.0676  0.0445  0.0875
23435W        W66451   2.717  19.175  16.372  0.0189  0.0711  0.0004
23436W        W66452  21.844   5.546  15.295 -0.1367 -0.2697 -0.0870
23437W        W66453  32.673  29.260  24.970 -0.0466  0.1106  0.3271
23438W        W66454  30.498  33.728  17.030 -0.2268  0.0012  0.1424
23439W        W66455  11.832  22.471  18.394  0.1335 -0.0711 -0.3485
23440W        W66456   4.658  27.804  25.068 -0.2128 -0.2900  0.1485
23441W        W66457  26.668  21.691  21.040 -0.1544  0.1832  0.1916
23442W        W66458  19.218  30.304   7.896  0.1974  0.2626  0.2581
23443W        W66459  28.390  25.818  28.191  0.2471 -0.2469 -0.0250
23444W        W66460  15.229  32.178  26.232 -0.0650 -0.0510 -0.2597
23445W        W66461  30.063  16.043  15.957 -0.1111 -0.0988 -0.0305
23446W        W66462  22.066  20.727  14.353  0.2399 -0.1227  0.2886
23447W        W66463  22.492  14.291  17.460  0.1955  0.2748  0.0189
23448W        W66464  29.373  25.731  19.591 -0.2759 -0.2726 -0.1226
23449W        W66465   1.246  12.651  25.274 -0.1634 -0.1705  0.0118
23450W        W66466  29.091   8.839  20.837 -0.1573  0.0718 -0.0595
23451W        W66467  29.398  17.960  21.405 -0.2957  0.2753 -0.0576
23452W        W66468  26.694  32.767  17.272 -0.0342  0.0082 -0.2068
23453W        W66469   7.326  24.375  17.377  0.0298 -0.2255  0.0436
23454W        W66470  21.049   8.117  18.063 -0.3784  0.0718 -0.4489
23455W        W66471  32.518  18.106  21.355  0.1459 -0.0177 -0.1095
23456W        W66472  18.149  30.427  24.798 -0.1336  0.3202 -0.0429
23457W        W66473   1.338  25.622  28.420  0.0048 -0.1181  0.0030
23458W        W66474  13.557  32.479   6.809  0.1006  0.1987 -0.4422
23459W        W66475   7.490  13.201  13.919  0.1203 -0.0221 -0.0299
23460W        W66476  15.256  15.945  25.033 -0.1700  0.1052 -0.0076
23461W        W66477   1.315  19.731   2.764  0.0305  0.2963 -0.1479
23462W        W66478  17.362  12.876  13.416  0.0645 -0.1098 -0.0559
23463W        W66479  26.250   3.036  28.279 -0.1033  0.1596  0.2189
23464W        W66480  14.752  20.612  20.799 -0.2047  0.1372 -0.3822
23465W        W66481  20.972   2.027   1.211  0.1261 -0.0122 -0.0261
23466W        W66482  27.290  13.138   2.050 -0.0382 -0.1918  0.1641
23467W        W66483  28.944   9.992  17.416  0.1953  0.4387  0.0882
23468W        W66484  18.897  22.013  21.601 -0.2035 -0.2089  0.1840
23469W        W66485  16.210  15.246   2.571 -0.1477 -0.1440  0.0102
23470W        W66486   6.108  27.218  22.685 -0.2379  0.0163 -0.0603
23471W        W66487  25.424  27.078  20.718  0.0342  0.0931  0.0794
23472W        W66488  23.027  23.519  16.233  0.0274 -0.1428  0.2049
23473W        W66489  22.194  31.987  19.801  0.1022  0.0123  0.1695
23474W        W66490  23.817  19.971  24.312  0.0922 -0.0057 -0.0335
23475W        W66491  11.116   0.872  15.955  0.0902  0.2321 -0.1804
23476W        W66492  22.416  22.717  16.362 -0.0120  0.2276 -0.1978
23477W        W66493   1.168  18.283  16.856 -0.1257 -0.1084 -0.2164
23478W        W66494  19.152  19.231  20.483 -0.1949  0.0849 -0.2618
23479W        W66495   2.168   1.416   3.101 -0.0656  0.0050 -0.4299
23480W        W66496   6.357  23.812  22.735 -0.1983  0.1228 -0.0437
23481W        W66497  19.272  23.207   6.910  0.1010 -0.0585  0.1960
23482W        W66498  25.747  16.921  20.041  0.1033  0.0014 -0.0233
23483W        W66499   3.900  23.865  15.542 -0.3168 -0.3839 -0.0251
23484W        W66500  13.924  12.226  16.734  0.0363  0.2687  0.0064
23485W        W66501  24.750  22.347  26.707 -0.0592 -0.0893  0.2866
23486W        W66502  15.443  15.871   0.383 -0.1019  0.1036 -0.2293
23487W        W66503   9.129  32.733  19.668  0.2323 -0.0580 -0.1257
23488W        W66504  32.876  22.869  15.937 -0.0354 -0.0009  0.2390
23489W        W66505  21.710  23.020   5.912 -0.3941 -0.1120  0.0257
23490W        W66506  34.412  29.803   3.114  0.1629 -0.2083 -0.2963
23491W        W66507  21.497  28.920  22.377  0.0004  0.1429 -0.0718
23492W        W66508  24.342  22.679  25.412 -0.2420 -0.1278  0.0530
23493W        W66509  33.418  20.661  22.962 -0.1849  0.0406 -0.1160
23494W        W66510  26.559  17.718  21.222 -0.0494  0.1120  0.1926
23495W        W66511  17.256  22.730   4.870  0.1589  0.1061 -0.1364
23496W        W66512   0.063  23.049   7.291 -0.0143 -0.0340 -0.1145
23497W        W66513  24.446  25.833  21.425  0.0863  0.1358  0.3194
23498W        W66514  22.521  20.803  17.455  0.2361 -0.1573  0.0542
23499W        W66515  20.273  20.052  13.298  0.0766 -0.2527 -0.1333
23500W        W66516  22.228  28.899  23.078  0.0573  0.0551 -0.1170
23501W        W66517   7.348  15.738  25.111 -0.0393  0.3143 -0.1571
23502W        W66518  22.014  12.996  24.269 -0.4892 -0.0187  0.1725
23503W        W66519  30.533   7.880  24.779  0.0392 -0.1935  0.1384
23504W        W66520   7.951  23.820   2.984  0.1823  0.2244  0.1558
23505W        W66521  30.588   8.118   2.929  0.2340 -0.1744 -0.0461
23506W        W66522  12.625  30.568  10.162 -0.4602 -0.2023  0.1104
23507W        W66523  27.686   5.988  17.413  0.0113 -0.0033  0.1095
23508W        W66524  27.867  22.305  27.319 -0.1279 -0.2452 -0.2123
23509W        W66525  10.129  31.177  26.453  0.0372  0.0033  0.1953
23510W        W66526  17.247  26.987   2.451 -0.2689  0.0983 -0.0664
23511W        W66527  29.572  33.608  21.512  0.0392  0.1936 -0.1189
23512W        W66528  25.304  18.559  28.600 -0.0960 -0.0324  0.0545
23513W        W66529   4.903   9.827   2.370 -0.1933 -0.1293  0.0728
23514W        W66530   0.335  11.959  26.845 -0.0925  0.1011 -0.0871
23515W        W66531  26.150  17.317  18.090 -0.0490  0.1955 -0.3398
23516W        W66532  16.377  22.580   2.685 -0.0619 -0.0266  0.3332
23517W        W66533  31.440   5.355  20.957 -0.0347 -0.0744  0.0054
23518W        W66534   1.821  20.166  23.855 -0.3449  0.4204 -0.1228
23519W        W66535  14.410  16.184  25.587 -0.3597  0.1245 -0.0921
23520W        W66536  13.885  23.175  25.101 -0.2879 -0.1647  0.0175
23521W        W66537  27.242  20.328  15.168 -0.0500  0.2356 -0.2471
23522W        W66538  19.625  15.309  22.225  0.0286 -0.1040 -0.2261
23523W        W66539  27.331  26.666  15.215 -0.2004  0.0338 -0.3893
23524W        W66540   4.630  13.716  25.505 -0.0020 -0.1947 -0.2277
23525W        W66541  29.476  22.737  20.671  0.1783  0.0519  0.0263
23526W        W66542  34.471  32.359  25.945 -0.1945  0.1307 -0.0033
23527W        W66543  34.635   4.967   5.391 -0.0589  0.0081  0.1584
23528W        W66544  31.588  20.145  20.066  0.1256 -0.2087 -0.0315
23529W        W66545   6.201  18.103   6.518  0.0938 -0.0048 -0.2834
23530W        W66546  31.965  10.768  24.666  0.1795 -0.0798  0.1043
23531W        W66547  19.558  19.954  29.225 -0.2362 -0.2127  0.2495
23532W        W66548  27.821  31.749  21.555 -0.2643 -0.0955  0.1134
23533W        W66549  18.929  30.164  19.582  0.1109  0.0860  0.0556
23534W        W66550   6.920  22.984  22.547  0.1783 -0.0867  0.0880
23535W        W66551  15.317  26.886   7.318 -0.0936  0.1813 -0.0253
23536W        W66552  13.758  23.857  12.575 -0.1484 -0.0706 -0.0156
23537W        W66553  24.815  15.508  25.843  0.1598  0.0368  0.0506
23538W        W66554  22.153  22.940  21.069  0.3727  0.0325  0.1120
23539W        W66555  27.287  23.663  22.484 -0.3239  0.1100  0.0102
23540W        W66556  16.589  18.898  16.464 -0.0592  0.1554  0.2064
23541W        W66557  29.202   9.497  17.468  0.1028  0.1684  0.3830
23542W        W66558  16.603  19.056   3.309  0.2796  0.0027 -0.1626
23543W        W66559  29.370  10.955   1.436 -0.1993 -0.0272 -0.1371
23544W        W66560   0.134  21.642  20.754 -0.0087 -0.1088  0.3332
23545W        W66561  30.406  23.064  24.084  0.4018  0.2056 -0.1224
23546W        W66562  29.351  23.175  24.476  0.0517  0.0050 -0.0607
23547W        W66563  12.765  13.607  14.122 -0.0791  0.0542 -0.1095
23548W        W66564  19.398  21.337  15.013  0.4065  0.1263 -0.1658
23549W        W66565  34.304  34.422  23.692 -0.1142 -0.1269 -0.0901
23550W        W66566  28.014  26.500  22.734  0.3270  0.1907 -0.2767
23551W        W66567  28.566  22.722  21.813 -0.2286  0.2390  0.1128
23552W        W66568  34.444  20.410  17.189 -0.1507  0.3251 -0.4812
23553W        W66569  27.066  19.121   7.681 -0.0108 -0.1039  0.3553
23554W        W66570  22.378  22.826  24.993  0.0711  0.1286  0.0847
23555W        W66571  21.299  20.751  18.588 -0.1539 -0.1712 -0.2970
23556W        W66572  10.440  26.221   8.427 -0.0261 -0.1809 -0.1910
23557W        W66573  33.989   9.449  17.532 -0.2807 -0.0281  0.0503
23558W        W66574  14.920   4.869   1.067  0.2281  0.0405  0.1852
23559W        W66575  20.926  14.206  14.077 -0.0583 -0.1892  0.1833
23560W        W66576  23.149  19.675  13.079  0.0567  0.0972 -0.1597
23561W        W66577   2.779  10.492  26.288 -0.1479 -0.0394  0.1973
23562W        W66578   8.592  13.521  14.360  0.1003 -0.2248 -0.0769
23563W        W66579  30.727   8.801  27.050 -0.0029  0.0696  0.0733
23564W        W66580  13.929  23.340  18.466  0.0928  0.2986 -0.3376
23565W        W66581  15.926  14.393  12.694 -0.1264  0.2072 -0.2534
23566W        W66582  32.720  14.930  20.319 -0.1057  0.0873  0.0519
23567W        W66583  27.736  14.819  16.848  0.0738  0.1335  0.1845
23568W        W66584  25.706   1.075   4.297  0.0698  0.0353 -0.2018
23569W        W66585   3.732  14.231  28.894  0.1434 -0.1753  0.1241
23570W        W66586   6.034  17.197  22.750 -0.0297 -0.0989 -0.2020
23571W        W66587  34.468  26.423   3.146 -0.0774  0.0382 -0.1536
23572W        W66588  31.591  14.089  28.754 -0.2298  0.0316  0.1600
23573W        W66589  32.457  16.643  27.864 -0.1545  0.2924 -0.1077
23574W        W66590  21.764  21.780  24.760  0.2658  0.3923 -0.0080
23575W        W66591   7.840  26.536   3.038  0.0604  0.1731  0.0436
23576W        W66592  30.980  29.663  27.557  0.1318 -0.0785  0.1221
23577W        W66593  11.503  29.006  21.876 -0.2002  0.2432 -0.0977
23578W        W66594   0.199  17.198  22.134 -0.0093 -0.1359  0.1563
23579W        W66595   3.811  17.887  19.536  0.1672 -0.0263  0.3308
23580W        W66596  20.594  33.551  18.154 -0.3227 -0.1157 -0.1686
23581W        W66597   9.543  25.577  20.282  0.1184 -0.2777 -0.0899
23582W        W66598  33.903   5.608  24.543 -0.1354 -0.0603  0.4201
23583W        W66599  30.377  19.398   4.003 -0.1772 -0.0594 -0.0293
23584W        W66600  16.391  25.076  17.623 -0.1039 -0.2892  0.1331
23585W        W66601   0.176  11.008  26.916  0.1691 -0.0970  0.3795
23586W        W66602  30.016  27.009  19.064 -0.2682  0.0311  0.2724
23587W        W66603  26.110  17.888   5.110 -0.1117  0.0753 -0.2115
23588W        W66604  27.634  21.191  17.081  0.0753  0.0904  0.2241
23589W        W66605   0.613  12.262  22.196  0.2885 -0.0417 -0.2300
23590W        W66606  21.335  18.440  16.235  0.1261  0.3231  0.3784
23591W        W66607  26.232  21.605   6.230 -0.1192  0.0693 -0.2704
23592W        W66608  33.209   3.698  20.266 -0.1483 -0.1117 -0.1024
23593W        W66609  24.193  13.849  25.608 -0.2851  0.1917 -0.0693
23594W        W66610  24.836  27.226  10.384 -0.1137 -0.0714  0.2814
23595W        W66611   8.971   8.500  16.966 -0.0884 -0.1316 -0.0719
23596W        W66612  29.165  24.978  16.214  0.0282 -0.1672 -0.0184
23597W        W66613  30.942  24.343  25.308 -0.1947  0.3921 -0.0258
23598W        W66614  16.573  33.499  26.141  0.3430  0.1239 -0.0697
23599W        W66615  34.466  15.120   3.331  0.0243 -0.1057  0.1419
23600W        W66616  29.309   1.016   5.196 -0.1786 -0.0978  0.0812
23601W        W66617  16.871  17.677  13.062 -0.2597  0.2635 -0.0503
23602W        W66618  30.637  34.344  24.564 -0.0090 -0.1525  0.1880
23603W        W66619  21.508  19.712  16.243  0.0997  0.0698 -0.0701
23604W        W66620   2.538  15.247  18.127 -0.3216  0.0115 -0.3474
23605W        W66621  23.554  22.276  19.810  0.0990  0.0174 -0.0923
23606W        W66622  23.638   9.633   9.619 -0.2078  0.1260 -0.1340
23607W        W66623  27.402  25.721  21.599 -0.0125  0.3601  0.0923
23608W        W66624  18.308  32.880  28.991  0.1918 -0.0325  0.0021
23609W        W66625  18.739  15.079  11.496  0.4562  0.2083 -0.1277
23610W        W66626   1.450   0.463  20.413  0.2309 -0.1702  0.0221
23611W        W66627  20.780  34.586  20.718 -0.1196 -0.1152 -0.1147
23612W        W66628   4.117  28.579  18.050 -0.1487 -0.1630  0.2535
23613W        W66629   1.882  20.845   3.921  0.0834 -0.5123  0.2190
23614W        W66630  28.491   5.751  21.905 -0.5085 -0.0369  0.0656
23615W        W66631  21.088  28.947   4.333 -0.2789 -0.2273  0.0932
23616W        W66632  11.805   9.709  22.755 -0.1487 -0.0126 -0.2519
23617W        W66633   3.024  19.967  15.020  0.3648  0.1627  0.1987
23618W        W66634  23.239  15.191  20.817  0.1445 -0.1795  0.0536
23619W        W66635  22.733  20.509  19.119 -0.1906  0.1699  0.1112
23620W        W66636   2.954  16.931  26.724  0.4115 -0.2362 -0.2815
23621W        W66637  22.261  22.241  16.252  0.0366  0.0394 -0.3406
23622W        W66638   5.539   7.640   3.268 -0.0456  0.1041 -0.0476
23623W        W66639   2.914  20.442  26.036  0.0648  0.1504 -0.1443
23624W        W66640  29.674  29.347   8.520 -0.0461 -0.3028  0.0825
23625W        W66641   6.196  16.903   4.583 -0.0129 -0.1292  0.1461
23626W        W66642  29.352   4.369  16.973  0.0199 -0.2025 -0.0773
23627W        W66643  25.914  15.865   3.333  0.2927  0.0683  0.1909
23628W        W66644   0.366   1.467   1.963  0.0150  0.2264  0.2694
23629W        W66645   1.425  22.846  24.618  0.0899  0.1020  0.0493
23630W        W66646  27.716  27.922   0.754 -0.0935 -0.0412 -0.3550
23631W        W66647  24.663   7.886  21.389 -0.0320  0.0357 -0.0330
23632W        W66648  29.589  26.248  27.695 -0.1070  0.0007  0.2296
23633W        W66649  21.046  31.624  28.084  0.1548  0.0349 -0.2176
23634W        W66650  29.744   1.048   5.567 -0.1171  0.1405 -0.1130
23635W        W66651  14.572  21.053  14.020  0.1428 -0.1890 -0.1512
23636W        W66652  22.582  16.148   3.305 -0.2187  0.1103  0.1626
23637W        W66653   0.610   8.141   5.026 -0.2064 -0.1593  0.2708
23638W        W66654  26.850  11.652  17.537 -0.0765 -0.2696 -0.1353
23639W        W66655  32.247  11.935  21.819  0.0297  0.2560  0.1485
23640W        W66656  28.600  26.337   6.311  0.0753 -0.0353 -0.0882
23641W        W66657   5.017  17.504  26.218 -0.1444 -0.3503  0.1113
23642W        W66658  29.151  14.530   4.431  0.0127  0.2438  0.0874
23643W        W66659   6.102  10.302  21.291  0.0793  0.3508  0.1925
23644W        W66660  31.496  21.660  25.230  0.2262  0.2981 -0.1351
23645W        W66661   2.150  26.189  16.218  0.0338 -0.2918 -0.0363
23646W        W66662  13.811  32.615   7.322  0.4635  0.0118 -0.4084
23647W        W66663  31.834  17.164  25.305  0.0131  0.0524  0.0553
23648W        W66664  17.784  21.492  27.700 -0.3355  0.1686  0.0401
23649W        W66665  24.009  29.196  23.456  0.0316  0.1600 -0.2323
23650W        W66666  32.920   7.254   0.516 -0.0964 -0.2002 -0.0751
23651W        W66667  32.564  22.563  19.073  0.3780 -0.0005  0.2178
23652W        W66668  28.662  20.284  19.738  0.0246 -0.1835  0.1366
23653W        W66669  28.343  27.571  29.015 -0.1614  0.0513 -0.1968
23654W        W66670  18.762  28.678  18.059  0.1385 -0.5084  0.4872
23655W        W66671  30.525  27.119   4.263 -0.1394 -0.2924  0.0443
23656W        W66672  14.139   0.425  14.870 -0.0142  0.0349  0.0102
23657W        W66673  26.150   0.734  22.740 -0.1659 -0.0426 -0.2170
23658W        W66674  33.704   3.810  26.725 -0.0413  0.3510  0.0452
23659W        W66675  25.662  18.945   6.548  0.0912  0.2373  0.0518
23660W        W66676  34.390  18.954  17.468  0.2749 -0.3608  0.0397
23661W        W66677  25.499  22.520  16.326 -0.3187  0.1449  0.0260
23662W        W66678   2.700  21.796  14.933  0.0139 -0.0526 -0.1567
23663W        W66679  27.522  32.405   9.405  0.2438  0.3411 -0.1226
23664W        W66680  26.533  11.650  24.719  0.4114 -0.1026 -0.1032
23665W        W66681   6.343   7.047   4.139  0.1744  0.4398  0.1028
23666W        W66682  24.436  32.273  29.018  0.1474  0.1121 -0.0281
23667W        W66683  31.480  22.013  14.493  0.2054 -0.0732 -0.0867
23668W        W66684  20.335   2.661  24.836  0.0694  0.1917 -0.0576
23669W        W66685  30.084   8.748  14.836  0.2602  0.0874 -0.1585
23670W        W66686  16.896  17.358  15.610 -0.0138  0.1430  0.1164
23671W        W66687  26.522   1.188  23.092 -0.0728 -0.0286 -0.2098
23672W        W66688   8.866  10.642   8.689 -0.0830  0.0703 -0.2181
23673W        W66689  29.521  13.908  14.975 -0.0747  0.1410 -0.0804
23674W        W66690   1.153  18.861  15.428  0.3030 -0.0069  0.3171
23675W        W66691  22.578  23.230   3.135  0.3104  0.0402 -0.0522
23676W        W66692   3.021  17.333  28.988 -0.0190 -0.0509 -0.2491
23677W        W66693  31.810  19.841   1.735 -0.0468 -0.3888 -0.0360
23678W        W66694  27.424   2.353   9.714 -0.4382  0.2126  0.1076
23679W        W66695  22.195  11.868  22.500  0.3495 -0.1530  0.0266
23680W        W66696  29.201  23.622  19.457  0.1659 -0.4413  0.2021
23681W        W66697  32.857  12.854   6.679 -0.2276 -0.0488 -0.4008
23682W        W66698  22.638  29.258  23.321 -0.0733  0.0694  0.2804
23683W        W66699  24.616  30.622   1.415  0.1293 -0.0308 -0.4129
23684W        W66700  32.323  20.136  26.590  0.0865  0.1518 -0.1064
23685W        W66701   7.366  28.897  19.355 -0.0614 -0.0038  0.4545
23686W        W66702  19.136   1.410   3.494 -0.4272 -0.6065  0.0535
23687W        W66703  16.893  28.516   5.553  0.0435  0.3821 -0.1935
23688W        W66704  21.421  24.777  16.125  0.2050 -0.2793 -0.0794
23689W        W66705  30.023  23.560  19.025  0.2401  0.2580  0.1152
23690W        W66706   3.940  16.492  20.535  0.1651  0.1380  0.1136
23691W        W66707  28.907  15.573  20.149  0.0131  0.0757 -0.0304
23692W        W66708  30.655  19.215  17.276 -0.0477  0.2545 -0.0591
23693W        W66709  25.637  22.850  20.934 -0.0101 -0.0227 -0.0493
23694W        W66710  34.193  19.005  20.159 -0.0845 -0.0619 -0.2330
23695W        W66711  19.831  16.663  25.938 -0.2454  0.1645 -0.3674
23696W        W66712  26.853  23.718  17.996 -0.3355  0.1209 -0.1394
23697W        W66713  10.412  18.271  18.821 -0.1256  0.1466 -0.0978
23698W        W66714  11.050  34.188  18.425  0.1444  0.2777 -0.3308
23699W        W66715   0.878  11.257   3.114 -0.1154 -0.2042  0.0549
23700W        W66716  31.401  22.245  21.170 -0.0002  0.0663 -0.2373
23701W        W66717  11.531  22.067   7.842  0.3165 -0.0863  0.3062
23702W        W66718   2.832   7.309  23.637 -0.0190  0.0250  0.1126
23703W        W66719  23.805  30.347  28.789 -0.1612  0.0696  0.0371
23704W        W66720  22.028  21.368  17.409  0.1426  0.3099 -0.1336
23705W        W66721  23.334  22.116   8.765  0.0025 -0.1793 -0.3979
23706W        W66722  15.508  25.001  18.568 -0.1106  0.0051  0.0839
23707W        W66723  30.141  20.294  19.090  0.2084 -0.1027 -0.0288
23708W        W66724  21.115  13.564  20.640 -0.2721  0.1150  0.1232
23709W        W66725  30.297   3.052   3.665  0.0088  0.2809 -0.3498
23710W        W66726  33.942   6.854  15.588 -0.2806  0.2680 -0.1041
23711W        W66727  30.731  22.481  18.813 -0.1882 -0.0228 -0.1532
23712W        W66728  13.713  29.185  18.040 -0.1303  0.3623 -0.0200
23713W        W66729  16.710  33.648  21.468  0.2182 -0.3277 -0.2383
23714W        W66730  11.880  33.059  28.049  0.1895 -0.1034  0.1328
23715W        W66731  19.009  27.939   9.894  0.0085 -0.3998 -0.1633
23716W        W66732  27.808   7.526  19.252 -0.0105 -0.1769  0.2990
23717W        W66733  33.751   6.141  18.420  0.2270  0.1503  0.2654
23718W        W66734   3.617  18.131   4.225 -0.2348  0.3821 -0.2057
23719W        W66735  19.893  16.318   3.649 -0.2596 -0.1801 -0.0481
23720W        W66736  23.159   3.559  24.502  0.0036  0.2721 -0.0639
23721W        W66737  22.790  23.114  28.057  0.2614 -0.0699  0.0717
23722W        W66738   5.835  29.322   0.017 -0.1771 -0.0110 -0.3389
23723W        W66739  25.055  30.290   4.661 -0.0066  0.1432 -0.1888
23724W        W66740  30.438  22.196  19.101 -0.1000 -0.0792 -0.1771
23725W        W66741   0.204  32.706   4.903  0.3973 -0.1487 -0.0509
23726W        W66742   2.814   2.800   1.062 -0.1180 -0.1142 -0.2145
23727W        W66743  21.881  23.890  14.623  0.0159  0.3006 -0.0510
23728W        W66744  20.158  27.941  21.414  0.2111  0.1481  0.1274
23729W        W66745  26.188  30.979  22.877 -0.1305 -0.0097 -0.0661
23730W        W66746  28.995  20.039  19.974  0.1140  0.0709  0.2059
23731W        W66747   5.315   6.203  21.615 -0.2368 -0.3620  0.0749
23732W        W66748  32.845  21.614  23.107 -0.0187 -0.0575  0.1137
23733W        W66749   1.632  23.944  17.468  0.1081 -0.0987  0.1754
23734W        W66750  33.635  11.058  24.455  0.2945 -0.1620 -0.1104
23735W        W66751   9.436  17.073  21.940 -0.3922  0.0827 -0.1235
23736W        W66752  31.534  21.776  20.824 -0.0717 -0.2543 -0.2225
23737W        W66753  15.911  24.566  28.972  0.1452 -0.1822  0.1329
23738W        W66754  19.370   0.365   4.948  0.0336  0.1706  0.0512
23739W        W66755  33.822   4.203  18.466 -0.0178 -0.1516  0.1197
23740W        W66756  17.474   9.269  17.646 -0.0926 -0.0760 -0.0792
23741W        W66757  12.617  27.428  22.242 -0.2229  0.0419 -0.0118
23742W        W66758  24.160  21.516  23.992  0.1197 -0.0650 -0.1782
23743W        W66759  23.371  17.488   5.243 -0.2176  0.3534 -0.1380
23744W        W66760  29.287  33.499  17.582  0.2044  0.1055  0.1553
23745W        W66761   4.283  25.494  17.280 -0.0007 -0.5388 -0.1977
23746W        W66762   4.620  16.835  21.870  0.4234  0.1089 -0.3288
23747W        W66763   8.891  24.197  12.284  0.1410 -0.1772  0.0974
23748W        W66764  24.077  18.858   1.043 -0.1390  0.2414  0.1299
23749W        W66765  15.915  26.454  25.081 -0.2228 -0.0323  0.0394
23750W        W66766  31.946   8.220  10.520 -0.0102  0.0577  0.0010
23751W        W66767  25.684  26.933   3.679 -0.0171  0.0553  0.2237
23752W        W66768  31.028   7.244  23.290  0.2154 -0.1967 -0.2668
23753W        W66769   5.915  34.194  21.861 -0.0622 -0.1024  0.0202
23754W        W66770  34.268  19.576  20.052 -0.0490 -0.0453  0.1750
23755W        W66771   1.729  33.972  25.841  0.2739 -0.0705  0.1592
23756W        W66772  32.239  24.456  24.728  0.0202  0.0279  0.4153
23757W        W66773   2.177  20.922  24.940  0.1229 -0.2375  0.0302
23758W        W66774   1.708  18.324  16.804 -0.0510 -0.3725 -0.1844
23759W        W66775  16.846  24.621   4.053 -0.0760  0.0679  0.2780
23760W        W66776  19.612  17.933  12.087 -0.0782  0.3287  0.3255
23761W        W66777  23.032   2.760  24.733 -0.0702  0.0111  0.1647
23762W        W66778  31.569  13.164   7.670  0.1163 -0.0296 -0.6390
23763W        W66779  33.660  15.772  27.871  0.4159  0.0087 -0.4974
23764W        W66780  32.236  21.227  19.269 -0.1852  0.1898  0.0007
23765W        W66781   4.118  13.931  24.571  0.0823  0.2653  0.0536
23766W        W66782  28.749  27.925  26.767 -0.1434  0.0592  0.0989
23767W        W66783  27.099  12.123  23.863 -0.0999 -0.2015 -0.0624
23768W        W66784  23.008   0.103  20.452  0.1646 -0.0531 -0.0676
23769W        W66785  32.375  24.610  18.888  0.1591 -0.1097 -0.2148
23770W        W66786  20.332  13.379  14.865 -0.0171  0.0638 -0.0229
23771W        W66787  32.947  11.016  16.357  0.0419 -0.2553 -0.2492
23772W        W66788  15.322  10.299  28.840 -0.0736 -0.0247  0.1259
23773W        W66789  17.516  13.069  26.715 -0.2248  0.3777  0.4184
23774W        W66790  29.482  20.523  24.020 -0.0477 -0.0437 -0.0586
23775W        W66791  29.242   2.683  24.861 -0.1733  0.0662 -0.0416
23776W        W66792   0.018  27.110  10.085 -0.2332  0.0360  0.0285
23777W        W66793  19.195  31.033  19.988  0.0626 -0.0473  0.0118
23778W        W66794  24.375   8.347  15.525 -0.2094 -0.0095 -0.2538
23779W        W66795   0.245  29.370  17.165  0.2436 -0.0328  0.0616
23780W        W66796  22.630  29.226  21.602 -0.0581  0.0369  0.2446
23781W        W66797  33.893  33.479  16.236  0.1935 -0.1017  0.0011
23782W        W66798  19.218   2.836  23.242 -0.0183  0.0387  0.3132
23783W        W66799  22.160  10.852  27.710 -0.2853 -0.0505  0.0558
23784W        W66800  28.613  17.488   0.119 -0.0217 -0.1769 -0.1546
23785W        W66801  10.607  32.945   5.060  0.1728  0.3936 -0.0095
23786W        W66802  24.014   4.514  19.726 -0.2222 -0.3055  0.3610
23787W        W66803  31.048  13.002   2.656  0.0130  0.1047 -0.0778
23788W        W66804  24.048  13.328  22.657  0.2196  0.1943 -0.0829
23789W        W66805  30.583   8.967  23.821 -0.2048  0.2022 -0.1804
23790W        W66806  14.485  19.024   8.130  0.0895  0.1283 -0.1658
23791W        W66807  19.559   4.536  28.808 -0.1360 -0.3455 -0.2236
23792W        W66808   5.668   8.229  19.204  0.0604  0.2377 -0.0848
23793W        W66809  26.297  21.610  24.567  0.2396  0.1241  0.1009
23794W        W66810  15.447  27.861   0.525  0.1610 -0.1969  0.2637
23795W        W66811  11.717  29.954  25.483 -0.0207  0.1958 -0.1798
23796W        W66812  24.435  22.150  18.372  0.0853 -0.0040  0.0787
23797W        W66813   4.628  11.743  20.691  0.2605  0.0780  0.0073
23798W        W66814  20.568  27.833  10.427  0.0378  0.0457  0.1103
23799W        W66815  13.603  11.363  14.298 -0.2098  0.2103 -0.1578
23800W        W66816  30.191  17.061   3.438  0.2657 -0.1512 -0.3275
23801W        W66817  10.077  21.010   0.185 -0.1827 -0.3585  0.1183
23802W        W66818   1.464  14.101  24.279 -0.0147 -0.0330  0.2659
23803W        W66819  12.701   8.708  25.123 -0.0532 -0.0788  0.2752
23804W        W66820  12.748  21.251   5.225  0.1717  0.0662 -0.0651
23805W        W66821  17.071  29.259  28.538 -0.2437  0.1730 -0.0295
23806W        W66822  22.468   9.315  25.406  0.1364 -0.2402 -0.2383
23807W        W66823  29.152  33.760  17.164 -0.0505  0.0944  0.1104
23808W        W66824  28.394  17.247  24.892 -0.4218  0.1269  0.2361
23809W        W66825  11.057  26.486   0.796 -0.0717 -0.0034 -0.1292
23810W        W66826  26.844  32.132  24.217 -0.4891 -0.0233 -0.2599
23811W        W66827  24.959   4.192   3.514 -0.0992  0.0897  0.2311
23812W        W66828  16.536  23.369   6.324 -0.1036 -0.1227  0.0606
23813W        W66829  24.882  20.763  20.915  0.2336 -0.0042 -0.0016
23814W        W66830  22.581  25.838  21.397 -0.0235 -0.0301  0.0818
23815W        W66831  21.095  29.912   0.830  0.1115 -0.3599  0.1336
23816W        W66832  26.198  27.067  21.098 -0.0850  0.2394 -0.2115
23817W        W66833  22.680  25.868  22.431 -0.0285  0.1007 -0.0956
23818W        W66834  19.584  13.673  25.514  0.2256 -0.1803 -0.1533
23819W        W66835  27.241  22.215  29.231 -0.0097  0.4918 -0.1970
23820W        W66836  27.664   9.240  20.381  0.4098 -0.1624  0.1510
23821W        W66837  26.744  28.954   0.087  0.0541  0.0688 -0.2665
23822W        W66838   5.442  20.167  28.238  0.0840  0.2462  0.0408
23823W        W66839  25.148  19.895  19.352 -0.2844 -0.1155 -0.1626
23824W        W66840  29.040  29.623  23.063  0.1142 -0.0409  0.4174
23825W        W66841  18.159  17.942  25.126 -0.0305 -0.0745  0.3693
23826W        W66842  16.524  13.946  15.753 -0.0364  0.2187  0.0996
23827W        W66843  22.736  15.248  15.548 -0.0685 -0.0257  0.0482
23828W        W66844  13.679  22.774  22.434 -0.2671  0.1875  0.0508
23829W        W66845  29.812  12.716  15.197  0.0409  0.1717  0.5642
23830W        W66846  23.725   7.507  23.842 -0.1839  0.0419  0.0272
23831W        W66847   1.445  23.571  16.368  0.0858  0.0997 -0.0058
23832W        W66848  29.889  29.099  10.080  0.1107 -0.3704 -0.1326
23833W        W66849   1.635  29.561  15.833  0.3318  0.0508  0.2698
23834W        W66850  19.347  34.298  17.814 -0.0391 -0.2744 -0.0633
23835W        W66851  29.006  19.380   9.749 -0.4627  0.0937  0.0328
23836W        W66852  30.976  33.750  26.159  0.1730 -0.0541 -0.1579
23837W        W66853  29.571   7.716  18.348  0.2992  0.0443  0.1189
23838W        W66854  24.010   8.027  21.931  0.0323  0.1634  0.0901
23839W        W66855  32.011  15.007  15.482  0.0966 -0.0958 -0.0809
23840W        W66856  26.189  18.000  26.282  0.1022 -0.1497 -0.1406
23841W        W66857   4.079  23.188  21.434  0.1751 -0.1401 -0.2814
23842W        W66858  15.492   3.031  25.317  0.0761  0.0177 -0.1349
23843W        W66859  32.480  26.269   8.073  0.0207  0.1987 -0.0838
23844W        W66860   6.725  26.717  19.321 -0.2597 -0.0306 -0.0718
23845W        W66861  26.604  26.709  17.342  0.0473  0.1850  0.2297
23846W        W66862   2.938  13.784  21.908  0.3675 -0.1002  0.2764
23847W        W66863  18.905  16.191  16.190 -0.0942 -0.1893 -0.1240
23848W        W66864  31.121  31.099   0.666  0.1466 -0.2781  0.1431
23849W        W66865  11.031  22.547   3.278 -0.0177 -0.0955 -0.0807
23850W        W66866   2.675  26.437   6.985 -0.1074  0.2005  0.0174
23851W        W66867  16.863  14.535  29.223  0.3930  0.1232  0.1756
23852W        W66868  32.560  33.306   4.370  0.1857  0.1981  0.3789
23853W        W66869  20.196   2.999  29.112 -0.2612  0.1849 -0.0805
23854W        W66870   5.491  29.312  24.334  0.1417 -0.0134  0.3805
23855W        W66871  19.265  20.108   0.793 -0.1082  0.0667  0.1940
23856W        W66872  16.687   0.679   1.042  0.0919  0.3121  0.0774
23857W        W66873  23.283  12.182   7.704  0.3893 -0.0929  0.2079
23858W        W66874   4.868  19.135  25.206 -0.0526  0.0088  0.0270
23859W        W66875   7.136  13.275  25.768 -0.0100  0.0653 -0.0141
23860W        W66876   7.694  25.211  23.099 -0.1526 -0.4096 -0.1917
23861W        W66877  31.353  21.713   6.533 -0.0900 -0.0866  0.1797
23862W        W66878  14.511  24.242   7.666  0.0529 -0.1651 -0.0561
23863W        W66879  20.457  12.373  29.046  0.3973  0.2555 -0.1476
23864W        W66880  21.082  16.194  22.576  0.0274  0.0142 -0.3139
23865W        W66881  32.405  17.634   2.128 -0.0332  0.3696 -0.0825
23866W        W66882  22.360  17.453  20.255  0.2527  0.3137 -0.2371
23867W        W66883  30.912  30.850   9.157  0.0651 -0.2924 -0.1009
23868W        W66884  29.992  16.956  16.641  0.2695  0.0316 -0.1063
23869W        W66885  22.609  26.325  19.774  0.0306 -0.1332 -0.0507
23870W        W66886  26.017  29.856   2.565  0.0670 -0.1654 -0.1090
23871W        W66887  15.981  19.154   8.227 -0.0479  0.0668  0.4521
23872W        W66888  26.045  20.485  15.175 -0.0749 -0.0726 -0.3057
23873W        W66889   4.834  31.832   2.418 -0.2331 -0.0402 -0.0001
23874W        W66890   0.625   8.841  20.787 -0.1565  0.1763  0.1171
23875W        W66891  32.557  18.142   9.566 -0.0512  0.1636 -0.1526
23876W        W66892  17.217  13.261  14.488  0.0047 -0.0955  0.0890
23877W        W66893  32.091  11.476  28.327 -0.0489 -0.1252 -0.2343
23878W        W66894  34.660  26.590  21.763 -0.1212  0.2910  0.0598
23879W        W66895  25.826  26.505  18.349 -0.2282  0.1155  0.1069
23880W        W66896  14.686   3.091   5.943 -0.0250  0.0979  0.0142
23881W        W66897  12.917  14.341  18.723  0.1590  0.0803  0.1380
23882W        W66898  23.871  23.020  27.035 -0.0582  0.2762 -0.1244
23883W        W66899   9.413  26.144  14.812 -0.0732  0.1232  0.0338
23884W        W66900  29.764   3.682   5.267  0.2894 -0.3218 -0.0475
23885W        W66901  26.236  17.117  25.114 -0.0946 -0.4209 -0.2215
23886W        W66902  27.165   0.682  10.362 -0.0471  0.0882 -0.1966
23887W        W66903  20.353  24.865   1.655 -0.0513 -0.0165 -0.0303
23888W        W66904   2.076   4.927  20.514  0.0457  0.1041 -0.1150
23889W        W66905  31.146  27.163   3.579 -0.1315  0.0625  0.0301
23890W        W66906  24.040  27.010   0.860  0.0414  0.1470  0.0438
23891W        W66907   7.942  22.564  24.468 -0.0750  0.1469  0.1714
23892W        W66908  25.744  12.522   0.919  0.1838  0.3030  0.5292
23893W        W66909  34.332  33.436  10.283  0.1283 -0.2032  0.2723
23894W        W66910  26.383  25.959  17.110  0.3265 -0.1063 -0.1343
23895W        W66911  29.859  16.205  24.944 -0.0626  0.2000 -0.2422
23896W        W66912  19.277   2.927   4.452  0.0404 -0.2352  0.0720
23897W        W66913  30.787  21.539   5.112  0.3705 -0.2841  0.1783
23898W        W66914  12.163   0.970   6.964 -0.0711 -0.3732  0.0678
23899W        W66915   6.531  29.409   2.068 -0.0997 -0.4476  0.2253
23900W        W66916  28.525  29.615  24.384  0.0683 -0.0423 -0.0244
23901W        W66917  31.097  14.131   2.977 -0.0133  0.0032 -0.0165
23902W        W66918   2.301   1.316   7.846 -0.2953  0.1685  0.1384
23903W        W66919  17.868   6.597  27.193 -0.0946 -0.0652 -0.0224
23904W        W66920  28.916   9.873   4.257  0.0317  0.1803  0.1959
23905W        W66921   2.157  13.540  26.243  0.0215 -0.1868  0.1249
23906W        W66922  32.418   1.563  20.945 -0.1389 -0.0139  0.2926
23907W        W66923  26.023  17.412   5.026  0.1235 -0.0713  0.0329
23908W        W66924  25.888  15.786  26.244 -0.2129 -0.3478 -0.0966
23909W        W66925  25.926  27.803  18.421  0.2737  0.0542 -0.4493
23910W        W66926  22.994   8.732  16.970 -0.3201 -0.0816  0.0564
23911W        W66927  18.010  20.674  23.908  0.1794  0.2172  0.0395
23912W        W66928  21.230  18.517  20.950  0.3320 -0.0475 -0.2066
23913W        W66929  19.686  24.001  26.567  0.0641  0.1918 -0.5421
23914W        W66930  29.063   4.349  23.613 -0.0153 -0.0349 -0.2917
23915W        W66931  29.047   5.522   6.363  0.1577 -0.0649 -0.1091
23916W        W66932  10.559   1.663  22.178 -0.2130 -0.0347  0.0767
23917W        W66933   3.347  25.110  27.337 -0.1188 -0.1989  0.1086
23918W        W66934   0.699   0.058  20.755 -0.1063 -0.1134 -0.2058
23919W        W66935  25.687   5.195  28.152  0.4051  0.0043  0.0756
23920W        W66936   6.811  15.766  16.893  0.1138  0.1554  0.0407
23921W        W66937  32.302   9.238  19.571 -0.2618  0.0871  0.0487
23922W        W66938  25.045  21.417   4.429 -0.1341 -0.2138 -0.0426
23923W        W66939   8.739  19.973  18.771 -0.0605  0.1707  0.1759
23924W        W66940  24.420  11.160  15.601 -0.1485  0.3437 -0.0280
23925W        W66941  16.282   3.025   8.628  0.0470 -0.1379 -0.0002
23926W        W66942  23.861  21.829  17.788 -0.0036  0.0577  0.0492
23927W        W66943   2.623   1.938  20.666  0.3446  0.0804 -0.2327
23928W        W66944  32.121  34.223   9.301 -0.1147  0.0249  0.1865
23929W        W66945   1.476  33.900   7.875  0.0032  0.0907  0.0285
23930W        W66946  33.986  21.177  10.803  0.1685 -0.2672  0.2546
23931W        W66947  20.315  18.078  15.542 -0.0707 -0.1209 -0.3252
23932W        W66948   0.048  14.433  25.839 -0.1193  0.0004  0.1054
23933W        W66949  30.706  23.463  10.398 -0.2167  0.1216  0.1321
23934W        W66950  20.620  15.163   7.090 -0.0567 -0.0083 -0.1780
23935W        W66951  11.025  26.218  21.209 -0.1367  0.1083 -0.2323
23936W        W66952  26.002  11.811  19.422  0.2989  0.0354 -0.0785
23937W        W66953  25.705  28.541   0.844 -0.1408 -0.0575 -0.1986
23938W        W66954  17.327  31.445  24.031  0.0739  0.1223 -0.1008
23939W        W66955   1.191  20.646   7.543 -0.0232 -0.4010 -0.0898
23940W        W66956  25.666  25.495   6.715  0.1207  0.3894 -0.0014
23941W        W66957   3.829  17.469  24.843  0.0639 -0.2885  0.3468
23942W        W66958   2.977  29.827  16.517  0.1238  0.2148  0.1269
23943W        W66959  21.653  13.462  14.352  0.1418  0.0374 -0.1902
23944W        W66960  19.704  20.433  16.078  0.1221  0.2503  0.2887
23945W        W66961  27.025  12.458  26.465  0.0906 -0.3736 -0.0039
23946W        W66962  19.829  15.229   6.616 -0.0945  0.3164  0.2698
23947W        W66963  29.299  24.434   7.305 -0.2071 -0.0664 -0.5170
23948W        W66964  26.701  34.669  11.287  0.1621  0.2472  0.0166
23949W        W66965  21.750  12.890  20.994  0.1108 -0.0898  0.0662
23950W        W66966  32.911  15.443   6.685 -0.0597 -0.3614 -0.0369
23951W        W66967   3.401  22.171  18.650  0.1521  0.1317 -0.0298
23952W        W66968  16.859  23.885  22.497  0.0552 -0.0490 -0.0220
23953W        W66969   0.476  19.937   0.553 -0.1426  0.0010  0.2826
23954W        W66970  21.556  17.610  26.166 -0.2364 -0.4669 -0.0630
23955W        W66971  28.629  20.007   0.458 -0.0461 -0.2962  0.1517
23956W        W66972   2.106  18.509  22.288 -0.0003 -0.1635  0.2008
23957W        W66973   2.744   0.149  24.890  0.0594 -0.3103  0.0404
23958W        W66974  31.834  29.686  17.653 -0.2010  0.0853 -0.0721
23959W        W66975  22.788  18.673  26.773 -0.2104  0.0784  0.0155
23960W        W66976  34.133  24.284   0.172 -0.1238 -0.0972 -0.1768
23961W        W66977   8.201  22.592  19.203 -0.0913  0.0231 -0.1516
23962W        W66978  26.315  21.469   2.712  0.1752  0.1358 -0.5465
23963W        W66979  12.919  24.905   4.817  0.1263 -0.1876 -0.4662
23964W        W66980  15.757  22.343  27.881 -0.1939  0.1847  0.0319
23965W        W66981  15.875  33.479   3.881  0.0438 -0.0621 -0.1028
23966W        W66982  26.089  28.251   2.432 -0.1542  0.0216 -0.2809
23967W        W66983  16.279  24.004  26.409  0.0939 -0.0824  0.1448
23968W        W66984  22.449   2.543  20.722 -0.0780  0.1673  0.0656
23969W        W66985  15.971  15.055   4.372  0.0027 -0.1114 -0.0027
23970W        W66986  24.158  30.747  29.153  0.2054  0.1163 -0.0071
23971W        W66987  20.345   7.690  26.231  0.0526 -0.1809  0.0512
23972W        W66988  20.238  16.952  26.324  0.2399  0.2236  0.1765
23973W        W66989  22.374  21.837   6.906 -0.1490  0.1671 -0.1690
23974W        W66990   1.157  16.774  17.410 -0.2776 -0.1315  0.0038
23975W        W66991  30.098  20.491   5.634 -0.1457  0.0414  0.1295
23976W        W66992  20.333  16.775  23.118 -0.1516 -0.2143 -0.0108
23977W        W66993  22.748  21.304  27.445  0.1063  0.3322 -0.3312
23978W        W66994  30.590  31.598   2.875 -0.1676  0.0244  0.0597
23979W        W66995  24.923  24.539  22.295 -0.0225 -0.2415 -0.4577
23980W        W66996   1.049   1.859   5.094  0.0550  0.1745  0.0193
23981W        W66997  26.050  11.251  17.822  0.0811 -0.3465 -0.2783
23982W        W66998  26.312  13.240   3.966 -0.0259  0.1847 -0.1315
23983W        W66999   4.350  31.004  25.412  0.2353  0.0541  0.0640
23984W        W67000  22.527  32.577   8.022 -0.0333 -0.1753 -0.1312
23985W        W67001   2.245  14.654   0.472 -0.0234  0.0716 -0.0835
23986W        W67002  29.291  14.047   5.247 -0.1282  0.0892  0.0770
23987W        W67003   7.276  28.759  23.798  0.0080 -0.1285 -0.1921
23988W        W67004  25.199   2.501   4.668  0.0920 -0.0694 -0.4663
23989W        W67005  11.118  27.047  29.236  0.0956 -0.0497  0.0285
23990W        W67006  28.774  22.417  24.170 -0.1429  0.0600 -0.1701
23991W        W67007   4.151   2.720  23.861 -0.1158 -0.1340 -0.0121
23992W        W67008   0.619  12.093  21.115 -0.1872 -0.0623  0.1071
23993W        W67009  12.906  31.639   1.220 -0.0918 -0.1698  0.1442
23994W        W67010  23.077  27.611  20.090 -0.1086 -0.0643 -0.1825
23995W        W67011  33.764  14.889   5.827 -0.2903 -0.2582 -0.0609
23996W        W67012   7.548  20.649  23.854 -0.1530 -0.0119  0.2713
23997W        W67013  31.942   9.133  27.485  0.2126  0.1641  0.0925
23998W        W67014  21.552   8.919  21.732  0.3242  0.0366  0.4279
23999W        W67015  28.529  28.568  10.297 -0.5000  0.2098  0.0226
24000W        W67016  23.507  27.027  25.085  0.2486 -0.1898  0.5305
24001W        W67017  30.371  19.500  20.435 -0.0022  0.0034  0.1442
24002W        W67018  29.503  16.194  16.148 -0.3511  0.5403 -0.2230
24003W        W67019   3.783  28.555  16.248  0.1838 -0.0988 -0.1392
24004W        W67020  13.110  25.093  19.345  0.1534 -0.0580  0.0624
24005W        W67021  21.509  34.464   8.101 -0.1327 -0.0156  0.0505
24006W        W67022  24.530  28.595  18.158  0.0539  0.0283 -0.1828
24007W        W67023  21.264  16.508  23.435  0.0131 -0.0556 -0.0507
24008W        W67024  22.913  18.608   7.254  0.4689  0.1322 -0.0409
24009W        W67025  18.579  20.136  13.225 -0.1560 -0.1497 -0.2211
24010W        W67026  19.575   4.027  17.224 -0.2574  0.1324 -0.0477
24011W        W67027  12.959  15.797  27.654  0.0340  0.1212  0.1101
24012W        W67028  28.274  24.977  11.538  0.2756 -0.0051 -0.1886
24013W        W67029   7.600  31.347   4.786 -0.2446 -0.1584 -0.2525
24014W        W67030  15.192   8.294   1.380  0.1133  0.0864 -0.0904
24015W        W67031  29.210   7.306  26.617  0.0400 -0.1227 -0.0017
24016W        W67032   5.149   3.823  26.119  0.0931 -0.0484 -0.0279
24017W        W67033  33.077   4.277  24.070  0.1601 -0.0623  0.3585
24018W        W67034  17.330  28.551  15.452  0.0627 -0.0597 -0.0868
24019W        W67035  27.812  23.550   6.431  0.0393  0.1524 -0.3454
24020W        W67036   3.767  27.507   2.394 -0.1381 -0.3019 -0.1508
24021W        W67037  20.644  33.882   1.131 -0.1956 -0.0942 -0.0132
24022W        W67038  24.855  14.839  17.317 -0.1250  0.0874  0.2507
24023W        W67039  29.060   2.740   8.802 -0.1800  0.0464  0.1106
24024W        W67040  21.601  18.092   8.687  0.0651 -0.1821 -0.1473
24025W        W67041  30.111  11.383  20.284  0.4769 -0.1035 -0.0262
24026W        W67042  28.785   0.621   9.358  0.1970  0.2977  0.1163
24027W        W67043  17.217  30.855  25.247 -0.1714  0.4251 -0.0236
24028W        W67044  18.109  24.673  20.820  0.1342  0.2264 -0.1222
24029W        W67045  27.554  24.617  25.841  0.0970  0.1893  0.1021
24030W        W67046  18.884  23.253  24.211 -0.1145  0.0821 -0.0733
24031W        W67047  19.507  32.881   1.296 -0.0401  0.2334 -0.1156
24032W        W67048  28.955  21.731  21.487 -0.3303 -0.0043 -0.0717
24033W        W67049  21.477  11.052  15.404 -0.0028 -0.2087 -0.0914
24034W        W67050  26.510  10.356  28.595 -0.2128  0.2287  0.1496
24035W        W67051  17.991  20.927  21.832  0.0765  0.1774  0.3067
24036W        W67052  21.002  29.934  10.545  0.0351 -0.2724  0.0229
24037W        W67053  22.555  15.774   1.190  0.3897  0.2876  0.1732
24038W        W67054  29.261  22.240   0.804  0.3324 -0.3204 -0.1522
24039W        W67055  17.022  18.250  17.029 -0.3448 -0.1190  0.0649
24040W        W67056  22.091  28.230  28.741  0.2046 -0.1938 -0.0137
24041W        W67057  20.050  20.113  15.759  0.0181 -0.2146  0.2914
24042W        W67058  25.090   0.972   6.929 -0.1052  0.1537 -0.2278
24043W        W67059  28.440  19.399  17.062  0.1195 -0.0160  0.4503
24044W        W67060   2.862  14.359  14.003  0.3010 -0.0490 -0.1102
24045W        W67061  33.052   4.624  23.005  0.0672  0.1509 -0.0857
24046W        W67062   8.994  19.362  22.806 -0.2429 -0.1835 -0.2581
24047W        W67063  26.234  26.391  20.863  0.0035  0.0801  0.1401
24048W        W67064   2.589   7.624  25.473  0.0372  0.3168 -0.2826
24049W        W67065  22.381  15.127  14.024  0.0464  0.1513 -0.0583
24050W        W67066  18.094  17.453  16.716 -0.1146 -0.0614 -0.0299
24051W        W67067  30.772  27.740  23.950  0.1472  0.1303  0.0657
24052W        W67068  30.332  20.541  28.514 -0.0211 -0.2919  0.2227
24053W        W67069  17.659   5.986  20.412  0.0645 -0.3680 -0.4145
24054W        W67070  21.574  10.381  18.857 -0.0122  0.3720  0.0041
24055W        W67071  30.631  28.625  17.768  0.0602  0.2618  0.0620
24056W        W67072  34.333  25.477   2.928 -0.2014  0.1411 -0.1586
24057W        W67073  20.832  18.846  22.617  0.1112  0.2349  0.2484
24058W        W67074   7.656   9.678  26.710  0.0911  0.1506 -0.1814
24059W        W67075   6.324  14.040  28.391 -0.1298  0.1481  0.0600
24060W        W67076   4.179  30.749  15.737  0.0394 -0.1734 -0.0020
24061W        W67077  23.763  18.126  15.585 -0.0619  0.3415  0.1207
24062W        W67078  33.078  20.070  18.065 -0.3747 -0.0786  0.1834
24063W        W67079  33.447  24.949  22.392 -0.0636 -0.1023 -0.0375
24064W        W67080  10.412  20.406  27.181 -0.2482 -0.1301 -0.0473
24065W        W67081  25.191  10.531  26.431 -0.0400 -0.1561  0.1239
24066W        W67082  19.687  10.450  19.259  0.1214 -0.1978  0.0435
24067W        W67083  22.622   1.222   3.256 -0.0907  0.1006 -0.1350
24068W        W67084   2.824  26.733   3.577  0.1265 -0.1192  0.4826
24069W        W67085  28.791   5.878  10.320 -0.4795 -0.1108  0.0063
24070W        W67086  33.199   0.490   2.400 -0.2898  0.0028  0.1976
24071W        W67087  27.212  15.431   0.368  0.2419 -0.0721 -0.1116
24072W        W67088  25.278  27.190   3.931 -0.2867 -0.1458 -0.0191
24073W        W67089   9.344  22.658  19.984 -0.1132  0.0940  0.1122
24074W        W67090  32.569  26.722   7.275 -0.0641 -0.2722 -0.0487
24075W        W67091  20.745  18.157  27.462 -0.1263  0.0189 -0.0704
24076W        W67092  28.945  19.640   4.796  0.2575 -0.0546 -0.0826
24077W        W67093  25.874  12.288  24.345 -0.5465  0.5746 -0.1751
24078W        W67094  18.660  12.771  14.142 -0.0004  0.3299  0.5616
24079W        W67095  30.913  25.967  24.676 -0.1797  0.3158 -0.0029
24080W        W67096  23.407   5.073   5.810  0.4769  0.3604 -0.2136
24081W        W67097   2.770  25.737  28.982  0.2260  0.1184 -0.0899
24082W        W67098   4.764  21.176   0.754  0.2013  0.2530  0.3929
24083W        W67099  18.316  27.361  28.470  0.1979 -0.1653 -0.0358
24084W        W67100  27.900   7.229   9.081 -0.0176 -0.1604  0.0981
24085W        W67101  24.038  28.920  21.805 -0.0615  0.3934  0.1197
24086W        W67102  30.640   6.833  21.179 -0.1809  0.0933 -0.3547
24087W        W67103  24.944  26.959   9.017  0.0540  0.0711  0.1762
24088W        W67104   7.920  20.855   4.412 -0.1690  0.1558  0.3233
24089W        W67105  26.826  25.186  11.717 -0.2448  0.1154  0.2976
24090W        W67106  23.689  18.516   2.978  0.2426  0.1636 -0.0081
24091W        W67107   7.945  34.672  10.085  0.0990  0.0785  0.2423
24092W        W67108   3.530   2.464  28.903  0.2385 -0.1323 -0.0937
24093W        W67109  15.582  19.462   0.285  0.0047  0.1571 -0.1137
24094W        W67110  15.221  16.649  13.670 -0.1680  0.0836 -0.1188
24095W        W67111  26.502  34.656  22.618 -0.4174  0.3907  0.1342
24096W        W67112   7.705   9.488   2.181 -0.1175  0.0968 -0.2341
24097W        W67113  22.306  20.675  21.311 -0.0804  0.1969 -0.0762
24098W        W67114  30.911   6.669   3.299  0.0033  0.2744  0.2588
24099W        W67115   7.034  18.427  13.112 -0.0675 -0.0474 -0.0626
24100W        W67116  31.795  10.113   5.359 -0.2048  0.0909  0.1571
24101W        W67117  21.101  25.292  28.985  0.2363 -0.0081 -0.0118
24102W        W67118  18.309  28.519  16.696  0.2440 -0.1868  0.0791
24103W        W67119  30.022  26.375  21.419 -0.0548  0.1088  0.2826
24104W        W67120   2.072  29.400  14.382 -0.1678 -0.0855  0.0839
24105W        W67121  27.425  11.668  19.920  0.1210  0.2198  0.0758
24106W        W67122  16.358  34.512   0.397  0.0544  0.0241 -0.0270
24107W        W67123  22.351  29.911  23.985 -0.0217 -0.1341  0.0403
24108W        W67124   1.620  11.066  24.338  0.0490  0.0126  0.1595
24109W        W67125  11.863  28.297   2.109  0.1676  0.2001  0.1642
24110W        W67126  32.549  12.988   2.189 -0.1850  0.1441  0.1053
24111W        W67127  16.206  26.229  16.229  0.0467  0.1026  0.0640
24112W        W67128  27.992   6.589  16.862  0.0080 -0.1174  0.0855
24113W        W67129  17.525  11.071   7.219  0.1906 -0.1851  0.1386
24114W        W67130  20.433  25.201  16.573 -0.2091  0.1819 -0.3158
24115W        W67131  19.676  11.811  13.351 -0.2356  0.1702  0.0191
24116W        W67132  23.926  12.183  28.276 -0.1397  0.2488  0.1125
24117W        W67133  26.819  12.576   6.407  0.2780  0.3942 -0.1623
24118W        W67134  30.773  11.135  21.547  0.0351 -0.0835 -0.1357
24119W        W67135  32.763  25.751   7.208 -0.2203  0.0059 -0.1463
24120W        W67136   7.155  10.914   6.382  0.0075  0.1041 -0.0453
24121W        W67137  33.362   8.833   1.638 -0.0925 -0.2127  0.0983
24122W        W67138   0.198   7.113   2.944 -0.1719 -0.1190 -0.1231
24123W        W67139  32.704  22.002  23.506  0.0174 -0.1894 -0.2485
24124W        W67140   5.218   7.974   3.067  0.0926  0.1901  0.1790
24125W        W67141  33.943  23.214   2.654  0.1351  0.0583  0.1083
24126W        W67142  18.630  12.767   6.972 -0.0933  0.0158 -0.4654
24127W        W67143  20.189  13.702  18.554 -0.0843  0.3522  0.1178
24128W        W67144  25.562  15.975  20.571  0.0401  0.2321 -0.0944
24129W        W67145   1.104  29.860  14.883  0.0876 -0.0821  0.0468
24130W        W67146  23.623  15.092   7.339 -0.0010  0.1336  0.0643
24131W        W67147  22.041  17.822  25.389  0.0112  0.1982  0.1347
24132W        W67148  13.404  20.934   6.779 -0.0441 -0.4557 -0.0711
24133W        W67149  18.485  13.778  28.666 -0.2758 -0.0880 -0.0487
24134W        W67150  29.370  29.269   0.677 -0.0689 -0.1976 -0.4346
24135W        W67151   1.723  26.159  26.789  0.0596 -0.2894  0.3374
24136W        W67152  21.165  26.139   6.178  0.4020 -0.0150  0.0842
24137W        W67153  33.390  10.571   5.026 -0.2712 -0.0116  0.0426
24138W        W67154   5.272  21.943   8.000  0.0742 -0.1280 -0.1585
24139W        W67155  19.449  22.975   5.342  0.0452  0.0741 -0.1822
24140W        W67156  31.949  23.004  21.263 -0.2550 -0.0485  0.2171
24141W        W67157  20.847  25.446   4.397  0.1307  0.1259  0.0114
24142W        W67158  18.886  13.515  23.175 -0.0154 -0.6558 -0.2095
24143W        W67159   1.829  20.709   3.159 -0.1000 -0.3224  0.1009
24144W        W67160  28.391  26.894  23.477  0.1072 -0.0804 -0.2060
24145W        W67161  17.922  27.223  15.638  0.0876  0.1091 -0.0203
24146W        W67162  20.150  11.094  27.258  0.3596 -0.0596 -0.0953
24147W        W67163  27.609   0.559  10.092 -0.1507  0.2446  0.2242
24148W        W67164  26.041  30.912  27.393 -0.2077  0.1243 -0.0408
24149W        W67165   4.433  26.746   9.986 -0.2016 -0.0537  0.1692
24150W        W67166   6.226  19.658   0.653 -0.0988  0.1266 -0.0053
24151W        W67167   2.004  15.546  27.586 -0.1982  0.2702 -0.0487
24152W        W67168  14.850  22.164  27.463 -0.3018  0.0377  0.0532
24153W        W67169  27.388  20.406   7.335  0.0626 -0.0831 -0.2243
24154W        W67170  33.022  23.686  16.439 -0.1223  0.2905  0.4833
24155W        W67171  14.365  21.696   0.497 -0.0285  0.0320  0.0701
24156W        W67172   2.562  27.143   0.133  0.0618  0.2063 -0.1491
24157W        W67173   6.855   3.636  15.173 -0.2462 -0.4255  0.0534
24158W        W67174  19.002  27.743  26.172  0.0832  0.0708 -0.2735
24159W        W67175  31.603  27.884  23.615 -0.1693  0.1516  0.4188
24160W        W67176  20.316  32.865   3.282 -0.0644  0.0909 -0.2752
24161W        W67177  24.258  32.854   0.582  0.0112  0.2303  0.0411
24162W        W67178   6.495  18.368   8.550  0.1155 -0.1787 -0.1212
24163W        W67179  34.067  12.965  16.257  0.1237 -0.3810  0.0459
24164W        W67180  21.645  15.844   8.106  0.0307 -0.1638 -0.3210
24165W        W67181  21.980  14.409  21.607 -0.1333 -0.0284 -0.1273
24166W        W67182  28.986   3.194   8.973 -0.1054 -0.1543 -0.0849
24167W        W67183  10.788  22.947  25.109  0.2093  0.0995  0.1468
24168W        W67184  32.243  12.097   6.566  0.2324  0.1106 -0.0958
24169W        W67185  31.577   8.552   5.413  0.1433  0.3418  0.0586
24170W        W67186   1.424   8.940  17.482 -0.1752  0.1320 -0.0755
24171W        W67187  28.545  30.396   2.772  0.3447 -0.0885 -0.0205
24172W        W67188  23.269   6.088  14.910  0.0252  0.0398  0.0387
24173W        W67189  20.972  22.484  17.749 -0.1600  0.1153  0.2206
24174W        W67190  19.166  19.470  25.282  0.1723 -0.1419  0.1964
24175W        W67191  22.779   9.058  18.228 -0.3817  0.2353 -0.2801
24176W        W67192  30.654  33.389   6.111  0.0564  0.1931 -0.0342
24177W        W67193  21.715   9.232   1.179  0.3814  0.0011  0.1235
24178W        W67194  31.571   0.059  22.446 -0.1409  0.2509 -0.1024
24179W        W67195  12.621  25.005  13.950 -0.1551  0.0706 -0.2915
24180W        W67196  31.346  30.513   3.444 -0.0764 -0.1109  0.2487
24181W        W67197  17.605  13.319  27.665  0.1645 -0.1198  0.3511
24182W        W67198  32.425  18.981  16.062  0.0745 -0.1428 -0.0787
24183W        W67199  26.974  18.998   2.227 -0.1275 -0.1127 -0.1429
24184W        W67200   3.709  21.025  13.954 -0.1815  0.0645  0.0940
24185W        W67201  30.090  16.858  21.653 -0.0111 -0.3021 -0.4162
24186W        W67202  14.098  10.381  20.907  0.1139  0.4110 -0.2275
24187W        W67203  17.251   6.182  18.152 -0.0735 -0.0684 -0.2345
24188W        W67204  16.495  27.643   0.433  0.1319 -0.1465  0.2124
24189W        W67205  31.604  14.102  18.894 -0.2933  0.1630  0.0966
24190W        W67206   2.528  30.754  24.542  0.3264  0.0154 -0.1434
24191W        W67207  33.480  33.881  26.096 -0.2020  0.2446 -0.2503
24192W        W67208  18.105  29.174   3.248 -0.1200  0.0200 -0.0135
24193W        W67209   1.120  15.179   0.140  0.0592 -0.0014  0.1544
24194W        W67210   3.902  17.336   2.851 -0.0896 -0.0642  0.5059
24195W        W67211  29.643   9.554  17.806 -0.1459  0.2055  0.1385
24196W        W67212  24.390  12.338  14.633 -0.0381 -0.1461 -0.3626
24197W        W67213  34.281  34.768   4.028  0.1259  0.0644 -0.1370
24198W        W67214  30.457  18.277  17.465 -0.4397  0.0482  0.1100
24199W        W67215   4.637  21.994  19.731 -0.1914  0.1043  0.1095
24200W        W67216   4.036  24.851   5.435 -0.0695  0.2459 -0.2099
24201W        W67217   2.010  11.596  26.502 -0.2742 -0.0192  0.3726
24202W        W67218  25.671  21.071   6.756  0.4855 -0.2404  0.2305
24203W        W67219  27.773   2.225  25.829 -0.2101 -0.4572 -0.1189
24204W        W67220  22.999  20.651   0.798 -0.2450 -0.0546  0.1025
24205W        W67221  17.223  17.759  23.438 -0.1584  0.0524  0.0979
24206W        W67222  25.813  32.219  12.358 -0.0827  0.2788  0.3035
24207W        W67223  30.717  27.331   6.534  0.1835  0.4053  0.3249
24208W        W67224  21.241  25.981   0.506 -0.2236  0.1273 -0.2780
24209W        W67225  32.125  28.879  27.953 -0.0179 -0.0460  0.3569
24210W        W67226  24.548  11.369   6.060  0.1350 -0.1805  0.1549
24211W        W67227   2.654  32.813  23.167 -0.1689 -0.0156 -0.2659
24212W        W67228  16.972  24.784   8.588  0.2738 -0.3078 -0.0467
24213W        W67229  18.216  13.440  12.219  0.0012 -0.2218  0.1699
24214W        W67230  19.903  19.505  21.934  0.1839 -0.1512  0.4165
24215W        W67231   0.723  20.936   1.715  0.0888 -0.0166  0.1857
24216W        W67232   0.838   1.236   8.109  0.1819  0.1980  0.3271
24217W        W67233  14.765  26.324   9.104  0.0256 -0.0667  0.1140
24218W        W67234  20.461  21.469  13.803  0.3236 -0.1431  0.1363
24219W        W67235  20.516  27.062  20.335  0.3007  0.1239 -0.0275
24220W        W67236  22.406   9.418  22.690 -0.2506 -0.2146  0.0826
24221W        W67237  33.002  21.500  14.162  0.0252 -0.0477 -0.2386
24222W        W67238   0.952  33.677  28.599 -0.0882  0.1831 -0.1086
24223W        W67239  21.884   1.911  15.916  0.2917  0.3846  0.0120
24224W        W67240  18.598  17.261  22.174 -0.0551  0.0702  0.0198
24225W        W67241  24.422   2.268   8.400 -0.1257  0.2101  0.0534
24226W        W67242  24.577  12.493   0.205  0.2259  0.0573  0.1495
24227W        W67243  12.051   3.991  25.153  0.2436  0.1714 -0.0431
24228W        W67244  19.610  20.361  28.114 -0.0109 -0.0491 -0.2371
24229W        W67245  22.841  32.258   8.384  0.0380  0.0341  0.2990
24230W        W67246  24.525  22.252   2.053 -0.2503  0.2553 -0.3433
24231W        W67247  28.176  26.755  26.991 -0.4816  0.1464 -0.0408
24232W        W67248  25.628  25.108   9.495  0.0096 -0.1299 -0.2242
24233W        W67249   7.300   4.457  20.396 -0.0221 -0.0876 -0.3498
24234W        W67250  25.742  10.863  16.989 -0.0264  0.1964  0.2091
24235W        W67251  33.042  11.723  20.759  0.1443  0.0762  0.0680
24236W        W67252  31.838  28.115  20.529 -0.2971  0.0045  0.0303
24237W        W67253  29.671  20.640  16.179 -0.0038 -0.2320  0.1184
24238W        W67254  11.013   5.611   5.281  0.1714  0.1302  0.1564
24239W        W67255   5.835  11.498  25.633  0.1724  0.0079 -0.0604
24240W        W67256  33.469  24.888  26.169 -0.1094 -0.2673  0.0367
24241W        W67257  15.465  19.105   5.437  0.0940  0.0474 -0.0928
24242W        W67258  25.774  16.935   0.958  0.4843 -0.0531 -0.1331
24243W        W67259   6.748  19.288   7.998 -0.1026  0.1988  0.0185
24244W        W67260  22.565  26.379  18.210  0.0113  0.0658  0.1632
24245W        W67261   5.138  21.565   5.718  0.0472  0.3148 -0.1056
24246W        W67262  15.087   4.707   6.072 -0.1274  0.1086  0.0784
24247W        W67263   4.293   8.828   7.169 -0.1127 -0.0367  0.0702
24248W        W67264  13.483  24.196  14.191  0.0883 -0.2128  0.1291
24249W        W67265   1.782  16.236   0.780  0.2928  0.0843 -0.0405
24250W        W67266   8.765  12.892  28.214  0.2110 -0.2112 -0.0830
24251W        W67267  13.864  10.574   5.793  0.1179 -0.0847  0.1371
24252W        W67268  18.634  20.749  28.518 -0.0427 -0.1532  0.2383
24253W        W67269  33.326  30.013  18.216 -0.1387  0.1322 -0.5158
24254W        W67270  31.501  27.080  16.479 -0.1359 -0.3158  0.4775
24255W        W67271  13.683  30.861  18.516  0.1037  0.2613 -0.1266
24256W        W67272  24.329   1.321   8.261 -0.0494  0.1011  0.2177
24257W        W67273  31.875  13.795   8.456 -0.5281 -0.0294 -0.0415
24258W        W67274  22.501  19.046  20.554 -0.0261  0.0418 -0.3695
24259W        W67275  34.745  12.412  17.710 -0.2293  0.2095  0.0521
24260W        W67276  21.999  32.516  19.958  0.3819 -0.0844  0.1645
24261W        W67277  24.386  12.176   7.051  0.1772 -0.2476 -0.2461
24262W        W67278  26.287  12.630  27.159  0.0089 -0.1387  0.0162
24263W        W67279   3.091  29.603   3.044 -0.1629  0.2656 -0.0867
24264W        W67280  27.254  18.738   2.686 -0.1799 -0.0795  0.1629
24265W        W67281  29.355  21.383  25.872  0.0366 -0.5455 -0.0458
24266W        W67282  23.661   0.809  29.288  0.2098  0.2186  0.2392
24267W        W67283  31.933  26.893  22.787  0.1340  0.0986 -0.0537
24268W        W67284  26.174  19.902  17.536 -0.0251  0.0257  0.1651
24269W        W67285  32.139  21.091  18.411  0.1552 -0.1936 -0.0518
24270W        W67286   0.928  18.313  17.319  0.1000 -0.5282  0.0741
24271W        W67287  34.262  12.072   9.690 -0.0383  0.0143 -0.1578
24272W        W67288  21.275  34.100   3.457  0.0802 -0.0099  0.1483
24273W        W67289   9.487  22.011   3.491  0.0941 -0.1168 -0.1052
24274W        W67290  13.662  20.166   1.717  0.2566  0.0569 -0.1250
24275W        W67291  20.413  13.209   3.141 -0.3028 -0.0418  0.2608
24276W        W67292   0.891   1.459   5.347 -0.0482  0.2249  0.0349
24277W        W67293  30.474   3.911  27.966 -0.2684 -0.0949  0.0119
24278W        W67294   0.643  19.772   8.008  0.1570 -0.2380  0.1837
24279W        W67295  28.508  26.164   3.859 -0.0798 -0.0483 -0.1159
24280W        W67296  10.500  22.553  27.932  0.0404  0.0094 -0.0083
24281W        W67297  19.546  21.258  21.865  0.4664  0.0954  0.3724
24282W        W67298  13.923  12.907   4.771 -0.0006  0.0709  0.0800
24283W        W67299  33.973   9.373  27.521  0.1577  0.2897 -0.1609
24284W        W67300  23.539  22.419  28.173  0.3681 -0.2274  0.1397
24285W        W67301  24.330  28.092   5.448  0.3490  0.0412  0.2115
24286W        W67302  28.420  19.652   7.142  0.2574 -0.2181 -0.1262
24287W        W67303  10.312  27.180  15.411  0.1306  0.2788  0.4955
24288W        W67304  27.224  14.006  21.802 -0.1123 -0.1708  0.3980
24289W        W67305  29.535  16.874   1.467  0.1908  0.4342  0.2321
24290W        W67306  32.351  14.823   4.223  0.1812  0.2263 -0.1773
24291W        W67307   3.048  16.280   1.146 -0.3647  0.1194 -0.1840
24292W        W67308  23.741  21.979  20.231 -0.1827 -0.2851  0.0064
24293W        W67309   1.112  14.128  10.306 -0.1535 -0.2147 -0.0714
24294W        W67310  31.448  12.368  22.020 -0.1784  0.0544  0.1798
24295W        W67311  13.384  29.755  23.200  0.1690  0.0702  0.0346
24296W        W67312  22.832  17.078  27.720  0.3711 -0.3648  0.2702
24297W        W67313  18.908  21.990  13.923 -0.0237 -0.0015  0.0060
24298W        W67314   8.123  20.374  20.562  0.1229 -0.1274 -0.4263
24299W        W67315  29.524  27.748   2.474 -0.0195  0.0606  0.0804
24300W        W67316  23.866  10.206   5.585  0.0651  0.0375  0.0073
24301W        W67317  21.475  31.509  17.709  0.0957  0.1959 -0.1587
24302W        W67318  11.561  13.361   2.431 -0.0056  0.0945  0.5746
24303W        W67319  24.923  16.738  27.987  0.2564  0.1219 -0.1079
24304W        W67320  23.497  20.203  16.444  0.0450  0.0905  0.2641
24305W        W67321  27.087  17.233  18.684  0.0386  0.1322  0.0396
24306W        W67322   3.279  23.910   7.539  0.0305 -0.0981  0.2145
24307W        W67323  10.004  20.660   6.743  0.4310 -0.0761  0.2901
24308W        W67324  31.443   9.709   3.737 -0.1430  0.0027  0.0174
24309W        W67325   4.183  24.964   3.206 -0.2206  0.4469  0.1662
24310W        W67326  31.612  17.664  27.881  0.0925  0.0024 -0.0948
24311W        W67327  26.588  33.482   7.302  0.1443 -0.0446  0.0422
24312W        W67328  18.476  14.215  26.255 -0.0022 -0.2244  0.0062
24313W        W67329  15.107  15.059  14.461  0.0734 -0.1246  0.0509
24314W        W67330   0.255  20.072   2.339  0.1897  0.1361 -0.0648
24315W        W67331  27.593  25.350   9.050  0.1067  0.1214 -0.0109
24316W        W67332  23.598  30.267   8.971 -0.2483  0.0813 -0.3010
24317W        W67333  14.494   2.286   1.888 -0.2387  0.3316 -0.2523
24318W        W67334  27.496  25.221  26.378  0.0929 -0.0934  0.0681
24319W        W67335  20.126  17.024  19.405 -0.1700  0.0138  0.0684
24320W        W67336   9.390  13.832  26.676 -0.1133  0.2423 -0.0396
24321W        W67337  25.700  13.911   4.444  0.1447  0.2475  0.0039
24322W        W67338  23.047   8.615   5.230  0.4369  0.2751 -0.0582
24323W        W67339  11.805  29.094  28.686 -0.3603  0.0642  0.2935
24324W        W67340  29.803  24.360   7.519 -0.2466 -0.2757  0.0684
24325W        W67341  22.092   5.164  15.078 -0.0680  0.3789  0.1197
24326W        W67342  17.991  25.597  25.398 -0.3975 -0.1958  0.1034
24327W        W67343  33.121  11.429  18.108  0.0502  0.2556  0.0276
24328W        W67344  11.689  14.365  13.581 -0.0864 -0.0369 -0.0152
24329W        W67345  26.040  10.167   3.503  0.0537  0.0999 -0.1156
24330W        W67346  24.132  26.413  23.834  0.0630  0.1967  0.0481
24331W        W67347  27.313  10.578  25.119  0.1390  0.3272 -0.0453
24332W        W67348  30.525  21.814  20.661  0.1082 -0.1664  0.1785
24333W        W67349  15.823  18.853  14.774 -0.1660  0.2862  0.3187
24334W        W67350   4.157   0.012  14.721 -0.0002  0.0003 -0.0763
24335W        W67351  28.787  32.781  24.655  0.2498 -0.1703 -0.2101
24336W        W67352  20.051  26.857  25.691  0.1308 -0.1686 -0.1179
24337W        W67353   4.053   1.515  14.455  0.0207 -0.1222  0.0003
24338W        W67354  14.575  33.491  16.017 -0.1704 -0.1630  0.0709
24339W        W67355  22.346  31.988  26.210 -0.0314  0.1514 -0.0446
24340W        W67356  14.412   5.224  28.555  0.0960  0.3369 -0.0583
24341W        W67357  17.217  26.563  27.654  0.0963 -0.1267  0.1896
24342W        W67358  26.523  14.559  28.727  0.2417  0.2566  0.2122
24343W        W67359   3.562   9.951   0.244 -0.1937  0.1161 -0.3050
24344W        W67360  16.497   2.652  17.029  0.1523  0.0188  0.0454
24345W        W67361   7.592  31.504  16.294  0.0107 -0.0688 -0.1606
24346W        W67362  25.087  32.059  27.791 -0.2630  0.3779  0.1087
24347W        W67363  27.382  10.686   1.704  0.0088  0.1689 -0.0720
24348W        W67364  16.041  22.941  19.285  0.3573 -0.0692  0.2052
24349W        W67365  28.235  24.678   0.286 -0.3403 -0.1262 -0.5769
24350W        W67366  25.072   2.734  18.944  0.0019  0.0562  0.1753
24351W        W67367  23.080   2.867  20.615  0.2120  0.0654  0.2598
24352W        W67368  28.595  32.809  22.917  0.1781 -0.4638 -0.1493
24353W        W67369  33.386  27.341  23.169  0.0635  0.1279 -0.0826
24354W        W67370  19.575  26.904  20.483  0.0023  0.0990  0.0518
24355W        W67371  13.590  23.276   6.114  0.0537  0.1013 -0.0840
24356W        W67372  21.138  33.382   6.189  0.1808 -0.1097  0.0262
24357W        W67373  23.425  10.682  17.365  0.0139  0.1251 -0.2778
24358W        W67374  33.699  19.243  19.345 -0.3001 -0.0381 -0.1113
24359W        W67375  23.243  27.342  27.498  0.0267 -0.2758  0.1505
24360W        W67376  31.136  20.066  21.735  0.1188 -0.0318 -0.0324
24361W        W67377  23.109  29.190  26.540 -0.0230 -0.1166  0.1679
24362W        W67378  22.250   0.590  18.832  0.2612 -0.1921 -0.1218
24363W        W67379  25.443   1.061  26.204 -0.1149  0.2458  0.0603
24364W        W67380  24.145  14.159  13.517  0.0379  0.0744 -0.0206
24365W        W67381  31.389  34.423  25.221 -0.1514  0.0610 -0.1302
24366W        W67382  16.484  28.131  21.588 -0.3153  0.2031 -0.1094
24367W        W67383   3.480  25.233  23.102  0.0422 -0.4613  0.1551
24368W        W67384  14.528  26.097  19.160 -0.0679  0.1315  0.1981
24369W        W67385  27.222  31.421  18.065 -0.0717 -0.1209 -0.2462
24370W        W67386   2.692  22.778  17.077 -0.0216 -0.1085  0.0392
24371W        W67387  34.070  13.937  17.309  0.0141  0.0509 -0.0547
24372W        W67388  34.295  32.379  18.770 -0.1352 -0.0797 -0.0829
24373W        W67389  19.766  18.212  14.969  0.1336 -0.1007  0.1370
24374W        W67390  28.703  20.687  22.428  0.0196  0.4178 -0.0522
24375W        W67391   2.660  16.773   3.032 -0.0924  0.2315 -0.0862
24376W        W67392  31.954  25.882  20.507  0.0949  0.1296 -0.3559
24377W        W67393  30.376  27.795  17.656  0.2495  0.3798 -0.1117
24378W        W67394  15.222  26.999   1.994 -0.1073 -0.2045 -0.2507
24379W        W67395  23.526  23.526  21.646  0.0158  0.0237  0.1074
24380W        W67396  23.436   1.472  27.230 -0.0821 -0.0392 -0.2183
24381W        W67397  27.738   8.404  24.695  0.0215 -0.0430  0.2804
24382W        W67398   2.230  27.400  15.039  0.2014  0.2363  0.2160
24383W        W67399  20.000  22.615  15.149 -0.2112 -0.0232 -0.0385
24384W        W67400  25.706  17.612  18.107 -0.2753 -0.0254 -0.4679
24385W        W67401  20.743  13.281   2.402  0.4926 -0.0413  0.3495
24386W        W67402   0.891  30.906  25.013 -0.2042  0.1128 -0.4629
24387W        W67403  27.603  16.372  18.962  0.2241  0.0985 -0.1740
24388W        W67404   4.980  27.789  21.362 -0.1359  0.0231  0.1350
24389W        W67405  27.157  31.675  16.120 -0.0193  0.0187 -0.1405
24390W        W67406   7.906   0.922  20.057 -0.2427  0.2102 -0.0804
24391W        W67407   6.943  28.301  22.513  0.0103  0.1822 -0.0923
24392W        W67408  29.097  21.882  17.788  0.2115 -0.1242 -0.0783
24393W        W67409  19.405  31.781  22.370 -0.4862  0.0889 -0.0426
24394W        W67410   0.632  23.791  17.065 -0.1890 -0.1016 -0.2191
24395W        W67411  12.496  19.694   2.128 -0.2231  0.1114  0.0604
24396W        W67412  25.929  16.728  26.280  0.2007 -0.1421 -0.2868
24397W        W67413  17.150  12.355  24.266  0.0529  0.2371  0.2977
24398W        W67414   8.498  15.473   5.520 -0.0952 -0.1356 -0.4526
24399W        W67415  32.257  18.973  17.288 -0.1192 -0.3906  0.0034
24400W        W67416  19.465  21.940  12.739 -0.0996  0.1490  0.1333
24401W        W67417  29.543  32.618  21.203  0.2162 -0.0031  0.2557
24402W        W67418   2.769  34.380  19.847  0.0608  0.1771 -0.0505
24403W        W67419   9.243  25.221  27.810 -0.1585 -0.2394 -0.0271
24404W        W67420  20.063   4.931  21.500 -0.4030 -0.2222  0.1398
24405W        W67421  31.363  12.057  19.890 -0.0978  0.0120 -0.0731
24406W        W67422  27.448  17.768   7.448  0.2083 -0.0855  0.0179
24407W        W67423  29.517   0.993  18.901  0.0387 -0.1701  0.1379
24408W        W67424  20.166  22.980  15.830  0.1560  0.0958  0.1671
24409W        W67425  21.984  32.291  23.830  0.1060 -0.2341  0.0438
24410W        W67426  16.520  18.353  13.721  0.0062 -0.2126  0.0506
24411W        W67427   6.711   8.454  21.866  0.2996 -0.1138 -0.5360
24412W        W67428  21.847  15.326  19.864  0.0904  0.1155 -0.1629
24413W        W67429  33.413  18.400  17.545  0.0529  0.2636  0.0908
24414W        W67430   4.976  26.271   5.815  0.0575  0.0475  0.1700
24415W        W67431  17.083   7.928  13.854 -0.0986  0.0958  0.1055
24416W        W67432  28.311  34.078  20.053 -0.0854  0.2430  0.3461
24417W        W67433  25.367  20.819  16.177 -0.1732  0.2010 -0.2869
24418W        W67434  27.748  12.051  25.332  0.4252 -0.0578 -0.1452
24419W        W67435  16.749  27.337  27.991  0.1756 -0.0933  0.1462
24420W        W67436  32.942  26.495  19.155 -0.1798  0.1054  0.1760
24421W        W67437  24.089  26.220  28.308 -0.1105  0.1930 -0.4233
24422W        W67438  32.328  22.507  23.540 -0.0194 -0.0745 -0.0813
24423W        W67439   4.353  13.531  19.353 -0.2236  0.1579 -0.0596
24424W        W67440  11.432  28.244  27.029  0.1355  0.1039  0.2910
24425W        W67441  27.646   6.419  25.135 -0.1178 -0.1575 -0.2303
24426W        W67442  24.946  25.093  19.583  0.4183 -0.0934  0.0540
24427W        W67443  27.024  28.788  21.915 -0.4371 -0.2243 -0.2658
24428W        W67444   1.710  27.015  22.889  0.2161 -0.1260  0.1357
24429W        W67445  19.894  25.889  16.442  0.3335  0.0424  0.1117
24430W        W67446  19.608  31.573  14.892  0.0031 -0.0155  0.1149
24431W        W67447   4.751  21.070   0.092 -0.0356 -0.1161  0.0299
24432W        W67448  29.292  34.013  16.602 -0.0161  0.1289  0.0888
24433W        W67449  29.977  24.133  21.807 -0.0993 -0.1347  0.1939
24434W        W67450  12.052  34.097  18.422  0.0963  0.1495  0.0358
24435W        W67451  27.421  20.804  16.704  0.1346  0.0203  0.1655
24436W        W67452  28.033   7.970   5.478 -0.2230 -0.0369  0.0842
24437W        W67453  30.827   3.502   0.789 -0.0059 -0.1358  0.0648
24438W        W67454  12.704  21.007  18.944 -0.0661  0.3211  0.1968
24439W        W67455  25.936  25.057  19.648  0.4170 -0.0382  0.0824
24440W        W67456  23.753  22.767  17.793 -0.2284  0.3867 -0.0647
24441W        W67457  30.121  15.981  19.176 -0.2167 -0.1432  0.2072
24442W        W67458  20.471  25.181  14.311 -0.1917 -0.2264 -0.1628
24443W        W67459  20.099  32.110  26.134  0.4846  0.0279  0.4682
24444W        W67460  31.550  28.377  23.806 -0.1064 -0.1681  0.1325
24445W        W67461  24.102  23.955  19.828 -0.0933 -0.0856 -0.0772
24446W        W67462  27.810  22.924  25.863  0.1736 -0.0782 -0.0549
24447W        W67463  25.699   1.796  18.180 -0.1016 -0.1042 -0.1876
24448W        W67464   2.234  21.982  25.682 -0.0974  0.1042  0.3590
24449W        W67465  25.246  27.584  28.730  0.1367 -0.3756 -0.0739
24450W        W67466  31.528  22.031   1.408  0.3721  0.1428  0.0266
24451W        W67467  34.704  10.069   2.478 -0.1010  0.0389  0.0376
24452W        W67468  32.999  25.701  22.874  0.2783  0.1758  0.0907
24453W        W67469  32.718  23.443  15.447 -0.0386  0.0870 -0.0478
24454W        W67470  29.374  34.189   1.751 -0.1676 -0.0563 -0.0141
24455W        W67471  28.509  32.149  27.658  0.1905  0.2032 -0.0300
24456W        W67472  27.633  27.963  20.865  0.0760 -0.0339 -0.0201
24457W        W67473  29.049   8.841  26.507 -0.0445  0.0349  0.0376
24458W        W67474  29.579  28.461  16.573  0.2634  0.3050  0.4294
24459W        W67475  11.960  23.064  17.728  0.0897  0.0487  0.0215
24460W        W67476  28.926  17.074   0.961  0.0374 -0.1763  0.1232
24461W        W67477  27.899  21.317  22.093 -0.0930 -0.0193 -0.0037
24462W        W67478  19.974  29.531  28.064  0.0793  0.1179 -0.2994
24463W        W67479  20.048  33.293  24.716 -0.1528 -0.2468  0.0585
24464W        W67480   4.752  13.483  22.158  0.0439  0.3285 -0.1829
24465W        W67481  20.145  25.145  28.277 -0.1095  0.1394  0.2155
24466W        W67482   0.632  24.605  22.388 -0.0189  0.2453  0.1324
24467W        W67483   4.404  14.985  17.066  0.0287  0.0185 -0.0126
24468W        W67484  25.537  11.523  20.462  0.3852  0.0193 -0.2840
24469W        W67485  28.975   6.837   0.643  0.2997  0.0729 -0.0927
24470W        W67486  24.743   8.299  28.225  0.1398  0.0371 -0.1121
24471W        W67487  31.030   1.055  21.557  0.0846  0.0295  0.0948
24472W        W67488  21.770  28.469   5.632 -0.0592  0.0656  0.1164
24473W        W67489   5.784  30.548  19.269 -0.2804 -0.1521 -0.1929
24474W        W67490  33.075  13.215  16.778 -0.0548  0.2259  0.0871
24475W        W67491  19.383  18.925  12.851 -0.3458 -0.2338  0.0913
24476W        W67492  17.148  24.588   3.533 -0.3332  0.1973  0.2668
24477W        W67493  17.821   6.377   8.368 -0.2456  0.1750  0.3306
24478W        W67494  23.513  17.914  20.510  0.0852  0.1895  0.0677
24479W        W67495  14.365  29.142  18.554 -0.1090  0.2562 -0.2992
24480W        W67496  27.685   4.851  16.657 -0.0270 -0.4137  0.0673
24481W        W67497  33.089  26.716  15.930  0.0349  0.0001  0.0260
24482W        W67498  25.194  23.426  14.660  0.1096 -0.2275 -0.1890
24483W        W67499  20.010  28.827  24.752  0.3038  0.0474 -0.1914
24484W        W67500  25.864  13.951  14.177  0.0749 -0.2056 -0.0131
24485W        W67501  30.940   1.571  15.422  0.0868  0.0260 -0.0866
24486W        W67502  19.057  15.961  15.783 -0.0147 -0.2237  0.1683
24487W        W67503   8.527  27.145  18.002  0.0723 -0.1198 -0.3393
24488W        W67504  23.078  17.469  13.013 -0.2406 -0.0499 -0.1532
24489W        W67505  24.832  12.234  17.569  0.0675 -0.4235 -0.0648
24490W        W67506  19.328   1.589   0.624  0.2919 -0.1113 -0.1734
24491W        W67507   9.766  30.799   2.806 -0.0205 -0.1164  0.1631
24492W        W67508  32.611  20.584  26.259 -0.0540  0.1034 -0.0448
24493W        W67509  17.349  21.928  23.948 -0.1256 -0.0215  0.1009
24494W        W67510  29.391  13.248  20.591 -0.1760 -0.1487  0.1077
24495W        W67511  19.688   5.668  16.771  0.0401 -0.2201  0.1199
24496W        W67512  32.972  31.531  29.190 -0.0131 -0.3244 -0.2463
24497W        W67513  26.924  20.652  16.768  0.0378 -0.1336 -0.0110
24498W        W67514  14.945  24.284  17.242  0.0832 -0.0402  0.1075
24499W        W67515  23.382  33.186  16.001 -0.2157  0.0350  0.2993
24500W        W67516  25.565  31.252  17.489 -0.0652  0.0584  0.1997
24501W        W67517   8.236  13.272  20.700 -0.0395  0.1306 -0.2167
24502W        W67518  20.488   3.590  15.551 -0.4198 -0.2120 -0.0610
24503W        W67519  26.169  25.394   7.019  0.0178  0.0119 -0.1805
24504W        W67520  14.375   6.197  17.209 -0.0502  0.0652  0.0394
24505W        W67521  23.122  31.775   6.494 -0.0640 -0.3150  0.2813
24506W        W67522   4.387  19.985  24.911 -0.1492 -0.1188  0.0832
24507W        W67523  30.722  11.894  16.881 -0.0168 -0.0237 -0.3788
24508W        W67524  19.977  20.985  18.005  0.0616 -0.0774  0.3847
24509W        W67525  21.615  28.728  21.872  0.0867 -0.4321  0.0666
24510W        W67526  18.005  20.093  13.086 -0.0539 -0.1791  0.2456
24511W        W67527  13.733   7.889  17.974  0.3177  0.0274 -0.5400
24512W        W67528   9.712  32.286  27.416 -0.0271 -0.0303 -0.4272
24513W        W67529  24.352   7.515  20.182 -0.1081 -0.3850 -0.3432
24514W        W67530  19.772  33.008  26.756 -0.0637  0.0707  0.2133
24515W        W67531   4.746  26.898   1.604 -0.2026 -0.1615  0.2614
24516W        W67532  23.744  26.282  15.914  0.2002 -0.1852  0.0089
24517W        W67533   0.961  16.323   0.438  0.0548  0.1762  0.1453
24518W        W67534  26.051  26.569  10.414 -0.0814 -0.2319  0.3712
24519W        W67535  30.067  27.293  16.855 -0.1423 -0.1958  0.0310
24520W        W67536  28.107  12.132   6.049  0.1254 -0.1961 -0.0079
24521W        W67537  28.779   0.631   4.470  0.3044 -0.0473  0.0092
24522W        W67538  19.072  29.392  20.317  0.0040 -0.1633 -0.0875
24523W        W67539   6.330  23.306  20.061 -0.1731  0.0453  0.0138
24524W        W67540  22.867  13.125  23.703  0.2917 -0.2146 -0.1332
24525W        W67541  24.366   4.103  23.146  0.3871  0.1031  0.2225
24526W        W67542  31.985  23.550  22.457 -0.1446 -0.0129  0.2858
24527W        W67543  16.134  22.253  24.163 -0.0909 -0.1953 -0.1003
24528W        W67544   0.047  31.876   4.144 -0.2000 -0.0718 -0.4496
24529W        W67545   6.267   4.757  25.559 -0.0081 -0.1629 -0.0001
24530W        W67546  19.101  14.211   7.774  0.2960 -0.3233 -0.2572
24531W        W67547  34.063  31.429  22.209  0.0011  0.0349  0.1473
24532W        W67548   6.788  20.464  18.559  0.0370 -0.1663 -0.0152
24533W        W67549  10.571   3.769  17.923 -0.0702  0.1354  0.0079
24534W        W67550  32.305  31.181  23.465  0.0255  0.2103  0.0927
24535W        W67551  30.907  16.941  18.040 -0.1016 -0.0204 -0.0139
24536W        W67552  29.469  34.472  22.470 -0.0406  0.0861  0.5651
24537W        W67553   5.928   2.227  16.217 -0.0953  0.0448 -0.1235
24538W        W67554   9.084  22.602  21.759 -0.2498  0.3307  0.0615
24539W        W67555  30.802  23.397  23.807 -0.1194 -0.0593  0.1584
24540W        W67556  19.460   5.683  13.592  0.2071  0.0932  0.1476
24541W        W67557   1.290  14.746  20.501 -0.0140 -0.2662 -0.2494
24542W        W67558  31.839  34.693  20.018  0.0238  0.1888 -0.0518
24543W        W67559  22.028  33.504  15.487 -0.0782  0.1115 -0.1441
24544W        W67560  25.831  12.430  18.148 -0.0457 -0.0978 -0.3322
24545W        W67561  17.147  24.164  14.007 -0.0698 -0.4461 -0.1309
24546W        W67562  23.583  17.825  22.380  0.0242 -0.1743 -0.3054
24547W        W67563  28.497  16.499  20.314  0.2937 -0.0415 -0.0882
24548W        W67564  23.368  29.832  17.123  0.1545  0.2864  0.0392
24549W        W67565   9.029  30.882   8.638  0.0147 -0.4063  0.0725
24550W        W67566  33.769  26.853  18.186 -0.1147  0.0246  0.2375
24551W        W67567  10.091  29.716  18.756  0.2331  0.2428  0.1383
24552W        W67568  15.971  33.232  28.369  0.0803 -0.1188 -0.0356
24553W        W67569  13.430  29.268  24.903 -0.0504  0.2256 -0.0745
24554W        W67570  25.177  23.253  21.215  0.1355  0.3263 -0.4818
24555W        W67571   5.782  34.252  25.997  0.1895 -0.0023  0.0500
24556W        W67572   1.990  19.464  25.959 -0.1025 -0.4621  0.0395
24557W        W67573  15.074  19.848   0.037  0.2560 -0.0290 -0.2373
24558W        W67574  11.902  18.968  15.414  0.1931 -0.1352  0.3098
24559W        W67575  31.290  16.811  21.778  0.0689 -0.1529 -0.0179
24560W        W67576  28.434  19.733  18.526 -0.1318  0.0939 -0.4875
24561W        W67577  24.004  22.594  16.373  0.1103  0.1622 -0.1653
24562W        W67578  23.411  32.770  25.806 -0.4981 -0.1125  0.1245
24563W        W67579  11.320  33.712  18.290 -0.1530  0.0993 -0.1621
24564W        W67580  25.437   8.168  15.815 -0.0517  0.1685  0.1948
24565W        W67581  19.633  25.493  26.866 -0.1846 -0.2497 -0.3348
24566W        W67582   6.568  24.172  22.378  0.1284  0.0442 -0.2730
24567W        W67583   7.043  18.224  15.868 -0.4043 -0.0614  0.1621
24568W        W67584   4.928  31.981  27.276  0.0881  0.0439 -0.0059
24569W        W67585  18.626  17.048  25.632 -0.0491 -0.3965  0.2654
24570W        W67586  13.789  23.628  20.609  0.1965  0.1025 -0.3335
24571W        W67587  19.800  21.846  21.046  0.1171 -0.0564  0.0987
24572W        W67588  10.574  20.219  17.889  0.0523 -0.3325 -0.0165
24573W        W67589  22.226  28.199  18.362 -0.2634 -0.0986 -0.1065
24574W        W67590  32.706  10.456  23.885 -0.1036 -0.0275 -0.1791
24575W        W67591  20.126   6.979  14.200  0.1656 -0.0331 -0.0354
24576W        W67592  29.723  17.593   7.002  0.2562 -0.0100  0.3747
24577W        W67593  33.904  15.143  20.037 -0.0594  0.3318 -0.0944
24578W        W67594  34.305  27.888  27.816 -0.2603 -0.1033 -0.1077
24579W        W67595  17.679  26.544  17.523 -0.1472 -0.3250 -0.0500
24580W        W67596  34.474  25.357  14.065 -0.1197 -0.0731  0.2738
24581W        W67597  32.880  20.435  19.394  0.1620  0.1680 -0.2864
24582W        W67598  12.591  26.833  22.287 -0.0949 -0.0701 -0.3544
24583W        W67599   1.590  28.327  21.058 -0.0626 -0.0806  0.1679
24584W        W67600  11.568   2.064  15.954 -0.0117 -0.2191  0.1321
24585W        W67601   1.517  11.362  25.679 -0.1082 -0.3890  0.1311
24586W        W67602   0.996  19.227  15.928  0.2450 -0.0961 -0.2856
24587W        W67603  34.263  24.955  16.609 -0.4024 -0.0791  0.1090
24588W        W67604  26.169  26.447   4.368  0.1188 -0.0627  0.1893
24589W        W67605  28.749   0.401  21.028  0.1272  0.0219 -0.1960
24590W        W67606   1.553   5.182  23.337 -0.2829 -0.0707  0.1159
24591W        W67607  30.525   7.164  19.326 -0.0472 -0.3187  0.0073
24592W        W67608  22.668  31.216   5.118  0.1028  0.2233  0.1820
24593W        W67609   6.270  21.738   2.299  0.2353  0.0294 -0.2512
24594W        W67610  24.352   2.745  26.441 -0.0602  0.0151 -0.1346
24595W        W67611  30.730  32.630  17.678 -0.1023  0.0328  0.4739
24596W        W67612  25.060  32.026  22.401  0.3880 -0.1397  0.0200
24597W        W67613  33.504  13.259   5.699 -0.0768 -0.2089  0.0377
24598W        W67614  25.463  32.521   8.089 -0.1829 -0.1271 -0.1095
24599W        W67615  20.565   4.287  19.394  0.2966 -0.0011 -0.1377
24600W        W67616  27.513  34.537  25.794  0.2435  0.3144  0.4014
24601W        W67617  24.814  27.603  16.378  0.0638  0.2203  0.0762
24602W        W67618  24.532  32.940  21.935 -0.0726 -0.0209  0.1569
24603W        W67619   2.169  34.546  25.634 -0.1556 -0.0087 -0.0483
24604W        W67620  29.951  33.306  21.184  0.2660 -0.3393 -0.1625
24605W        W67621  22.531  26.665  15.776 -0.0580  0.0911 -0.1051
24606W        W67622  14.816  27.797  27.710 -0.0764 -0.2869  0.1116
24607W        W67623  24.597  21.409  22.891  0.0548  0.3376 -0.1728
24608W        W67624   1.454  13.207  15.453 -0.1685 -0.4220  0.0570
24609W        W67625  17.018  22.939  14.974 -0.0921  0.0746  0.4302
24610W        W67626  12.045  24.389  15.730  0.0644  0.1509  0.2323
24611W        W67627  15.688   7.438  17.127 -0.2102  0.3153  0.0240
24612W        W67628  29.114  26.536  16.139  0.2048 -0.1273  0.0761
24613W        W67629  18.103  30.644  15.204 -0.1439 -0.2164  0.1641
24614W        W67630  15.970  25.349  22.346  0.2719  0.0372 -0.2366
24615W        W67631  30.012  14.899  23.240  0.0656  0.0548  0.0098
24616W        W67632  34.041  16.563  15.582 -0.1597  0.1929  0.1063
24617W        W67633  30.068  34.514  18.405  0.1181 -0.1434  0.1934
24618W        W67634  31.516   3.973  20.839 -0.1408 -0.1620  0.2246
24619W        W67635   1.432  12.028  15.513  0.1639 -0.1920  0.0808
24620W        W67636  26.205  32.425  27.809  0.1013  0.0592 -0.2424
24621W        W67637   1.260  18.109  16.290 -0.0501  0.2630  0.1157
24622W        W67638  21.412  29.673  16.413  0.0901 -0.0569  0.0690
24623W        W67639   8.430  17.536  21.620 -0.0303  0.0098  0.2584
24624W        W67640  21.071   7.350  16.726  0.1616  0.3919  0.2398
24625W        W67641  30.953  30.141  22.650  0.1442  0.0061 -0.1727
24626W        W67642  20.598  32.147   5.678  0.2189  0.0858  0.0407
24627W        W67643  20.824  24.957  19.459  0.0383 -0.1470 -0.2318
24628W        W67644  25.077  27.589  26.047 -0.2569 -0.3538  0.1470
24629W        W67645  22.726  28.762   2.189  0.2860 -0.2482  0.0843
24630W        W67646  24.750   1.355  15.292 -0.0917 -0.2191  0.1974
24631W        W67647  25.686  13.489   4.183  0.1791  0.0713  0.0543
24632W        W67648  26.685  20.191  22.849  0.1687  0.0012 -0.0798
24633W        W67649  29.388  30.172  16.602  0.0616  0.1866  0.0628
24634W        W67650  24.588  30.465  19.006 -0.0358 -0.0688 -0.1758
24635W        W67651  17.087   3.886  14.927  0.3750  0.1472  0.0072
24636W        W67652  20.699  23.994  15.676  0.0520  0.0123  0.0577
24637W        W67653  27.288  23.953  23.108  0.0513 -0.0565  0.1278
24638W        W67654   3.360  26.359   4.410  0.1111  0.3165 -0.4174
24639W        W67655  12.621  32.532  20.600  0.1764  0.0936  0.2393
24640W        W67656   0.347  28.161  17.891  0.1002  0.0447  0.0433
24641W        W67657  23.281  21.679  25.884  0.1115 -0.0599 -0.0821
24642W        W67658  30.593  17.699  20.968 -0.2171  0.1448  0.0092
24643W        W67659  32.325  27.563  22.160 -0.2004 -0.0037  0.0387
24644W        W67660  30.313   8.357  19.413  0.1279  0.3743  0.0223
24645W        W67661  29.218  28.482   0.248 -0.2820  0.1079  0.0594
24646W        W67662   9.659  15.392  25.363  0.0146  0.4163  0.0793
24647W        W67663  32.152  25.621  15.127 -0.0082 -0.2998  0.0754
24648W        W67664   4.751  21.644   0.833 -0.0387 -0.0917  0.1009
24649W        W67665  24.857  26.521  19.377 -0.0474  0.0233  0.1479
24650W        W67666  34.211  31.095   6.785  0.2082 -0.1120  0.0511
24651W        W67667  30.288  12.088  24.054 -0.0777  0.0846  0.2105
24652W        W67668  27.882   2.076   3.340 -0.0954 -0.1477  0.1455
24653W        W67669  28.215  23.965  19.239  0.2779  0.0250 -0.0831
24654W        W67670  23.396  28.562  21.349  0.2451  0.0380 -0.0059
24655W        W67671   6.101  23.056  27.354  0.0539 -0.0320 -0.0269
24656W        W67672  28.535  14.045  14.890  0.0734  0.2039 -0.0964
24657W        W67673  19.412  22.339  13.070 -0.0021 -0.0321  0.2022
24658W        W67674  22.871  27.777  19.657  0.0117 -0.1985  0.1763
24659W        W67675  17.505  32.793   6.119 -0.0246 -0.4108 -0.0154
24660W        W67676  30.062   3.295   7.558  0.1735  0.2337  0.1355
24661W        W67677  20.085  22.111  26.153 -0.4991 -0.0357  0.1153
24662W        W67678   0.226  21.095  24.319  0.1412  0.0128  0.4606
24663W        W67679  28.135  27.668   4.593  0.0994  0.1552  0.1237
24664W        W67680   2.772  27.156  19.857 -0.0299  0.0951 -0.3264
24665W        W67681   3.684  31.504   9.736 -0.0637  0.1084 -0.1220
24666W        W67682  27.327  21.343  21.884 -0.3153 -0.1223  0.0593
24667W        W67683  34.730   7.684  13.962  0.2038 -0.1091  0.3167
24668W        W67684  31.027  32.071   1.297  0.1402  0.2449 -0.1484
24669W        W67685  13.439   2.380   1.770 -0.1035 -0.3262 -0.2286
24670W        W67686  25.510  29.590  20.445  0.1621  0.0738  0.0608
24671W        W67687  29.901  23.270  16.676  0.0506 -0.3633  0.1092
24672W        W67688  12.315  16.449  16.363  0.0603  0.0321 -0.0950
24673W        W67689  32.262  20.366  24.744  0.2712 -0.0426 -0.1095
24674W        W67690  21.851  18.687   1.760  0.0930  0.4406 -0.1269
24675W        W67691  21.031  25.539  18.119  0.0133 -0.3060 -0.1613
24676W        W67692  28.195  30.487   6.529  0.2243 -0.1632 -0.2562
24677W        W67693  32.313   9.854  17.221  0.0048 -0.1075 -0.2247
24678W        W67694  29.553  24.231  24.228  0.1147 -0.1365 -0.1542
24679W        W67695  18.687  17.581  15.718  0.2113  0.0791  0.1709
24680W        W67696  28.860  10.336  17.918 -0.0499 -0.4071  0.1111
24681W        W67697   7.341  22.979  26.402  0.1386 -0.1760 -0.1484
24682W        W67698  27.221  13.741  19.989  0.2911  0.1849  0.0129
24683W        W67699   2.152  12.223  28.733 -0.2698 -0.3186  0.1139
24684W        W67700  29.999  31.678  17.494 -0.1888 -0.2090  0.0909
24685W        W67701  31.308   0.863  17.499  0.1161  0.1233  0.0227
24686W        W67702   3.705  29.522  13.988 -0.1707  0.0615  0.1543
24687W        W67703  12.270  33.034  17.648 -0.1905 -0.2905  0.4676
24688W        W67704  12.159  29.872  22.543  0.0408 -0.2132  0.3783
24689W        W67705  25.462  27.138  21.784 -0.1435  0.2769  0.0356
24690W        W67706  26.993  30.504  23.077 -0.1636 -0.0568 -0.1667
24691W        W67707   1.429  12.578  21.098 -0.0234 -0.3426  0.0870
24692W        W67708  22.096   4.740  27.249  0.0512 -0.0278  0.0914
24693W        W67709  26.347  20.275  18.890 -0.0799  0.2617  0.2980
24694W        W67710  25.383  28.891  21.358 -0.0701  0.0203 -0.1611
24695W        W67711  21.275  34.631  20.750 -0.1504  0.2080  0.0161
24696W        W67712   9.445  26.955  17.350  0.1407  0.1134  0.0861
24697W        W67713  26.923  12.537  26.917  0.0908  0.2920  0.0553
24698W        W67714  32.938  27.623  19.107  0.0004  0.2338  0.0034
24699W        W67715   4.063   6.267  27.124  0.0267 -0.0242 -0.0992
24700W        W67716  21.790  19.934  18.786  0.2185 -0.1024  0.2895
24701W        W67717   2.039  28.990  26.681 -0.1193  0.1079  0.1335
24702W        W67718  31.005  25.118  19.783 -0.0078 -0.0717  0.0797
24703W        W67719  24.072   5.525   5.738 -0.2545 -0.4284  0.1760
24704W        W67720  20.288  33.085  18.952  0.0960  0.0661  0.0376
24705W        W67721  31.444   5.986  18.234  0.0604  0.4431  0.0260
24706W        W67722  28.508   9.250   2.619  0.0370  0.1451  0.0738
24707W        W67723  18.861  18.021  15.327 -0.0836 -0.0869 -0.0395
24708W        W67724  27.041  26.057   5.514  0.1859 -0.0494  0.1591
24709W        W67725  26.816   7.212  19.909 -0.3114 -0.0828  0.0807
24710W        W67726   0.473   1.842  16.334  0.0808  0.0727  0.1270
24711W        W67727   0.387  32.749   0.188 -0.1914  0.3583 -0.0414
24712W        W67728  31.019  25.256  18.729  0.1260 -0.1936  0.1085
24713W        W67729  16.078   1.553  15.937  0.0546 -0.0848  0.2157
24714W        W67730  17.837  28.662  16.675  0.1981  0.1161  0.1621
24715W        W67731  24.712  15.460  20.696  0.1475 -0.0019  0.3605
24716W        W67732  10.568   4.825  17.938 -0.0447 -0.0692  0.3794
24717W        W67733  25.951  10.168   0.029 -0.1753  0.0401 -0.2703
24718W        W67734  33.684  32.566   3.151 -0.1496  0.0277 -0.2902
24719W        W67735  16.147  32.773  18.697 -0.0506  0.1774  0.1813
24720W        W67736  26.582   9.856  14.357 -0.0810 -0.1297 -0.1635
24721W        W67737  31.511  33.831  17.413 -0.0671 -0.0733 -0.1261
24722W        W67738  22.990  26.054  15.501  0.0641 -0.1001 -0.0962
24723W        W67739  26.111   6.053  18.492 -0.0528  0.0304  0.2160
24724W        W67740  31.791   5.086  16.114 -0.0422  0.0791 -0.0557
24725W        W67741  14.688  24.907  27.183  0.0251  0.4592  0.2250
24726W        W67742   0.427  19.755  24.160 -0.0852  0.2701  0.0022
24727W        W67743  26.817  15.032  21.519  0.1171  0.0356 -0.2398
24728W        W67744  29.322  26.204  19.454  0.0838 -0.2532 -0.0403
24729W        W67745  17.814  31.209  21.741 -0.1472  0.0633 -0.2233
24730W        W67746   0.635  32.299  22.028 -0.1915  0.0135 -0.1558
24731W        W67747  16.862  15.243  14.737 -0.3690 -0.0464  0.0250
24732W        W67748  27.282  14.931  17.224 -0.1268  0.1262 -0.0322
24733W        W67749  27.803  29.744   1.005 -0.4006 -0.0916 -0.0183
24734W        W67750  26.931  16.857  18.357  0.1691 -0.1370 -0.2246
24735W        W67751  10.037  24.710   6.539  0.1112 -0.2248  0.0929
24736W        W67752  26.325  22.138  26.947  0.1036 -0.1063  0.0401
24737W        W67753  27.185   6.982  24.425 -0.0271  0.2074  0.0928
24738W        W67754  23.609  21.123  23.077 -0.0900  0.0431 -0.3592
24739W        W67755  26.681   5.194   5.905  0.0048 -0.0091  0.1149
24740W        W67756  26.470  18.200   5.719 -0.0534  0.2357 -0.0556
24741W        W67757  31.237  20.782   9.461 -0.2261 -0.0545  0.0688
24742W        W67758  15.097   3.234  20.495  0.1134  0.1909  0.1620
24743W        W67759  28.132  12.799  14.908  0.2277  0.0233  0.1810
24744W        W67760  20.904   1.738  16.580  0.1152  0.4945 -0.2471
24745W        W67761  23.011  23.495  22.600 -0.1702  0.0685 -0.0964
24746W        W67762  24.127  24.382   7.181 -0.3175 -0.5351 -0.1149
24747W        W67763  19.775  21.857   3.930  0.5732 -0.0017  0.1690
24748W        W67764  31.118   4.341  16.671  0.0642 -0.1048 -0.0454
24749W        W67765  33.644   5.756  25.569  0.2556 -0.4479 -0.5235
24750W        W67766   1.433  22.955  24.147  0.2020  0.0466  0.0754
24751W        W67767  21.443   4.102  23.436  0.0391 -0.0819  0.1792
24752W        W67768  20.228  25.658  24.405  0.0032  0.1037 -0.1103
24753W        W67769  24.406  31.903   8.841  0.0302  0.1368  0.1966
24754W        W67770  21.031  31.084  15.919 -0.2185 -0.1308 -0.0491
24755W        W67771  26.222  22.807  19.901 -0.1350  0.0640  0.0124
24756W        W67772   0.950  20.171  20.419 -0.6017  0.0780 -0.0847
24757W        W67773  27.203  25.712  24.411 -0.1421 -0.0873 -0.2255
24758W        W67774   5.710  29.231  15.352  0.2447 -0.0531  0.2249
24759W        W67775  29.557  32.350  17.028 -0.1246  0.0381  0.0322
24760W        W67776  33.115  31.962   7.975  0.2314  0.0562 -0.2813
24761W        W67777  29.282  15.721   2.956  0.0331 -0.2299 -0.1546
24762W        W67778  25.130  33.607   3.493 -0.4623 -0.2057  0.1109
24763W        W67779   0.697   1.664   8.344  0.3340  0.1341 -0.1114
24764W        W67780  32.541  24.506  16.760  0.1323  0.3295  0.0245
24765W        W67781  30.605  16.072  15.938 -0.2423 -0.0368 -0.0914
24766W        W67782   7.886  17.920  26.217  0.0003 -0.2096 -0.1861
24767W        W67783   5.165  17.642  22.770 -0.1212  0.2194  0.0088
24768W        W67784  31.243  30.518   0.064 -0.1053  0.2460 -0.1495
24769W        W67785  21.420  24.300  25.424 -0.0349  0.3793  0.2164
24770W        W67786  32.651  32.817  26.623  0.0746 -0.1815  0.1062
24771W        W67787  25.615  24.374  15.299 -0.2456  0.2837 -0.1733
24772W        W67788  25.191  26.156  16.767  0.0155 -0.1881  0.1070
24773W        W67789  12.466   2.792   2.347  0.1223 -0.0215  0.1463
24774W        W67790   1.061  32.306  15.284  0.2855  0.1186  0.1972
24775W        W67791   1.024  23.250   2.681 -0.1247 -0.1069 -0.2640
24776W        W67792  25.558   4.875  26.757 -0.1419  0.1592 -0.3076
24777W        W67793  28.558   6.838  24.297  0.2562  0.0691  0.1700
24778W        W67794  27.228  15.807   3.529  0.1440 -0.2035 -0.1254
24779W        W67795  18.063   5.441   9.683 -0.0425  0.1168 -0.0544
24780W        W67796  10.384  11.431   1.073 -0.2306  0.0583  0.0517
24781W        W67797  25.623  11.769   6.880 -0.1372  0.1222 -0.0744
24782W        W67798  25.872  14.428  15.293 -0.0245 -0.0296 -0.1522
24783W        W67799  28.492  32.671   8.186 -0.1590 -0.1157 -0.2250
24784W        W67800   1.149   7.049   9.759 -0.1821  0.0081 -0.0747
24785W        W67801  25.546  19.508  27.138 -0.2522 -0.0410 -0.1901
24786W        W67802   3.817  26.468  23.635  0.0394  0.3280 -0.2476
24787W        W67803  23.565  27.941  22.455 -0.3036  0.0378 -0.0986
24788W        W67804   2.530  29.523  28.746 -0.1438 -0.3988  0.0940
24789W        W67805  33.077  27.041  21.801  0.2462  0.0265 -0.1094
24790W        W67806   6.992  32.680  18.079  0.1022  0.0319 -0.3811
24791W        W67807  27.466  17.187  22.332  0.0719  0.1189 -0.1162
24792W        W67808   6.263   5.009   4.060 -0.0365  0.0697  0.2501
24793W        W67809  30.992  15.426  23.093 -0.1886  0.3055  0.1648
24794W        W67810  32.185  13.241  18.939 -0.1869  0.2851  0.2130
24795W        W67811  21.714  30.585  16.120 -0.1049  0.0363 -0.0867
24796W        W67812  31.929  28.679   1.156 -0.1035 -0.0981 -0.1606
24797W        W67813   5.462   1.833  19.089  0.1908  0.2258  0.2589
24798W        W67814  26.862  24.680  25.216  0.1935  0.3085  0.0774
24799W        W67815  17.036   5.880  22.357 -0.0287  0.1074  0.0933
24800W        W67816  15.656  28.696  16.516 -0.1513  0.2777 -0.3214
24801W        W67817  30.469  18.398   0.781  0.2149 -0.3200 -0.0485
24802W        W67818  26.728  17.588  28.237  0.3552  0.3424 -0.1130
24803W        W67819  25.278  11.343  21.711  0.1658 -0.1382  0.2081
24804W        W67820  23.665  11.524  13.702 -0.5383 -0.1208  0.2235
24805W        W67821   3.019   0.483   4.333 -0.1553 -0.0143  0.2268
24806W        W67822  26.419  29.720  16.010 -0.0840 -0.4839 -0.4385
24807W        W67823  29.540  21.702  25.358 -0.2438 -0.2164  0.1766
24808W        W67824  32.222  30.888  19.493  0.1259 -0.2541 -0.1343
24809W        W67825  27.716  21.045  21.194 -0.1152  0.2220 -0.4234
24810W        W67826  32.335  30.420  24.360  0.1093 -0.1498 -0.0797
24811W        W67827  31.226  30.300  19.236 -0.0755  0.1168 -0.0953
24812W        W67828  18.766  22.635   0.099 -0.2992  0.2560  0.2641
24813W        W67829  28.456  14.539  21.346 -0.0007  0.0130 -0.1101
24814W        W67830   1.121  29.908  21.157 -0.0314 -0.4115 -0.4139
24815W        W67831   6.335  26.553   5.365  0.0053 -0.2479 -0.0098
24816W        W67832  30.836  28.413  28.239  0.2349  0.0935  0.2223
24817W        W67833  34.250  17.616   1.813 -0.0977  0.0341  0.5454
24818W        W67834  12.641  13.280   4.600  0.3518  0.0985  0.0420
24819W        W67835  17.452  23.301  12.244  0.2645 -0.0889 -0.0696
24820W        W67836  16.921  17.109  26.681 -0.0040 -0.4824 -0.0198
24821W        W67837  28.174  23.239  28.674  0.1208 -0.1566  0.0555
24822W        W67838  33.002  30.000  21.802  0.0029 -0.0879  0.2004
24823W        W67839  25.235  32.387  23.828  0.2000 -0.1581  0.1559
24824W        W67840  10.621  16.268  16.277 -0.0580 -0.2226 -0.1534
24825W        W67841  15.634   7.313  22.664  0.3740  0.1294 -0.3331
24826W        W67842  24.048  12.801  18.366  0.2635 -0.2751 -0.0812
24827W        W67843  29.583  25.272   8.817 -0.2951  0.0571 -0.0541
24828W        W67844  22.225  27.198  18.355  0.0659 -0.3685 -0.3966
24829W        W67845   0.869  16.696   1.642 -0.1413  0.2213 -0.1620
24830W        W67846  16.999  11.460  26.594  0.0675  0.0066  0.1702
24831W        W67847  18.783  34.014  14.370 -0.0567 -0.1002  0.4493
24832W        W67848   4.209  27.951  17.684  0.2972  0.2308 -0.0479
24833W        W67849  29.758  17.743  20.515  0.0078 -0.1056  0.0527
24834W        W67850  22.212  25.044   8.955 -0.2357 -0.0778  0.1271
24835W        W67851  28.885  27.145   0.627 -0.0775 -0.0985  0.2504
24836W        W67852  26.836   6.039  19.170 -0.1433  0.2737 -0.1897
24837W        W67853  13.344  27.400  16.424  0.0151 -0.1358  0.1165
24838W        W67854  18.541  16.824  14.024  0.0339 -0.1227 -0.2663
24839W        W67855  16.089  24.450   1.073 -0.0103 -0.0565 -0.2886
24840W        W67856   1.762  21.632   2.721  0.1346 -0.1653  0.3711
24841W        W67857   7.948  22.258  23.464 -0.3176 -0.3548  0.0744
24842W        W67858   6.369  22.328  20.364 -0.0968  0.1303  0.0926
24843W        W67859  25.787  27.041  23.308  0.2185 -0.0189 -0.0795
24844W        W67860  21.377  23.856  21.892  0.0599 -0.1742  0.2590
24845W        W67861   1.635  27.742  26.567  0.0678 -0.0471  0.0145
24846W        W67862   0.062  22.212  22.309  0.3745  0.2655 -0.3064
24847W        W67863   5.753  23.918   0.853  0.3807 -0.0980 -0.0577
24848W        W67864   0.660  29.072  27.768 -0.1310 -0.4608 -0.2396
24849W        W67865  33.142  33.811  14.676 -0.0802  0.0611 -0.1168
24850W        W67866  28.089  29.134   5.414 -0.0415  0.7715 -0.0126
24851W        W67867  26.737  30.417   3.542  0.2208  0.0765  0.1785
24852W        W67868   9.770   4.820  16.320  0.4148 -0.1462  0.2503
24853W        W67869  24.063  29.354   7.343  0.3454 -0.2553 -0.3142
24854W        W67870  21.336   0.283  27.463  0.1523 -0.2211 -0.1838
24855W        W67871   1.766   2.831   5.842 -0.2848 -0.1561  0.1498
24856W        W67872  30.153  33.362   5.909 -0.1366 -0.0991 -0.0053
24857W        W67873  24.763   8.129  18.484  0.0821  0.0631 -0.0470
24858W        W67874  12.225  24.895  15.818  0.0189 -0.1828 -0.4322
24859W        W67875  21.558  33.616   6.511  0.2166 -0.0725  0.1025
24860W        W67876  17.144  10.360  19.289 -0.1002 -0.1320 -0.1733
24861W        W67877  27.553  17.456  17.328  0.4652 -0.2042 -0.2765
24862W        W67878  24.489   3.988   2.187  0.3891 -0.1193 -0.1155
24863W        W67879   0.787  19.532  23.752  0.4742  0.4884  0.2604
24864W        W67880   1.479  32.340  17.486 -0.2231 -0.0471 -0.0776
24865W        W67881   1.585   3.434  16.387  0.0048  0.1367 -0.1862
24866W        W67882  20.375  21.700  20.989 -0.2554  0.1010  0.3475
24867W        W67883  19.701  20.379  13.540 -0.2850  0.0864  0.0364
24868W        W67884   8.865  23.618  20.658  0.1436 -0.0044 -0.3850
24869W        W67885  14.440  25.810  26.173  0.1005  0.1661 -0.0222
24870W        W67886  27.820  26.141  21.896  0.0137  0.1343 -0.1074
24871W        W67887  34.033  33.816   3.317  0.2430  0.2217  0.3613
24872W        W67888  20.732  11.430  18.161 -0.3125  0.1570 -0.2004
24873W        W67889   0.836  19.508  26.544 -0.2298 -0.2918 -0.1353
24874W        W67890  25.487  12.606  25.827  0.2140 -0.1439 -0.1693
24875W        W67891  34.618  20.799  18.217 -0.2108  0.0444 -0.0132
24876W        W67892  30.050  18.854  17.927  0.0456  0.0553 -0.0056
24877W        W67893   2.850  12.012  18.063 -0.0370 -0.4388 -0.4217
24878W        W67894   0.166  30.043  20.298  0.1095 -0.1034  0.0827
24879W        W67895  15.310  15.222  19.655 -0.1042 -0.1483 -0.0522
24880W        W67896  10.170  18.393  15.132  0.2761 -0.0586 -0.0564
24881W        W67897  28.067  30.236  15.381 -0.0275 -0.1082  0.0094
24882W        W67898  25.476  23.541  21.505  0.1528 -0.1674 -0.0123
24883W        W67899   8.370  25.026  13.634 -0.1215 -0.3175  0.0113
24884W        W67900  33.875  22.305  19.852  0.3143  0.2065  0.0786
24885W        W67901  29.272   2.083   7.343 -0.2657 -0.0135  0.0297
24886W        W67902  22.431   0.039   1.030 -0.0390  0.2921 -0.2129
24887W        W67903  34.334  33.438  24.158  0.0651  0.1485 -0.1846
24888W        W67904  30.691   3.883  15.032 -0.1026  0.2141 -0.0735
24889W        W67905  17.976  29.945  28.023 -0.1616 -0.0794  0.2263
24890W        W67906  33.438  31.405  25.207  0.0962  0.0584  0.0547
24891W        W67907  33.301  23.587  25.250  0.1359  0.1663  0.0274
24892W        W67908  24.033  21.491  24.508 -0.2579  0.2232 -0.2115
24893W        W67909  21.866  20.710  18.527  0.1016  0.1923 -0.0539
24894W        W67910  16.710  27.910  14.280 -0.0591  0.0048  0.0530
24895W        W67911  24.046  12.449  18.982  0.0178  0.1763  0.0433
24896W        W67912   4.377   1.180  20.488  0.3029 -0.1391  0.2441
24897W        W67913   1.442  18.515  25.872  0.0649 -0.1117 -0.0767
24898W        W67914  20.197  29.808  14.933 -0.0877 -0.1803 -0.2408
24899W        W67915  10.945  30.790  24.719 -0.1124 -0.3710 -0.4492
24900W        W67916  25.146  27.147  24.752  0.6566  0.1529  0.0380
24901W        W67917   1.211  16.526  17.921 -0.0568 -0.3260  0.0879
24902W        W67918   6.953  20.071  15.939 -0.2873 -0.4205 -0.4795
24903W        W67919  22.994  28.913  23.344  0.2664 -0.1183  0.3079
24904W        W67920  26.318  27.233  19.376 -0.2712 -0.3433 -0.3405
24905W        W67921  24.574  32.949   4.085 -0.3497  0.0915  0.0238
24906W        W67922  26.479  14.151  16.907  0.2411 -0.4355  0.1658
24907W        W67923  27.595  30.911  27.694  0.0336  0.1560  0.1165
24908W        W67924   4.769   2.464  21.027 -0.1725 -0.1088  0.1574
24909W        W67925  22.727  34.717  20.044  0.0915  0.1281 -0.3119
24910W        W67926  33.386  20.662   5.523  0.0514  0.2756  0.1676
24911W        W67927  19.905  20.063  24.796  0.0748  0.3864  0.1000
24912W        W67928  27.737  13.304  21.225  0.1322 -0.0672 -0.0163
24913W        W67929  33.947  15.497   1.695 -0.1763  0.0003  0.0792
24914W        W67930  24.911  29.210   3.197  0.0617 -0.3625  0.0418
24915W        W67931   4.989  26.378  16.554  0.0254 -0.0721  0.1595
24916W        W67932  26.844  34.137  27.684  0.0140  0.0259  0.0339
24917W        W67933   7.197  26.248  28.087  0.0439 -0.0628 -0.1686
24918W        W67934   2.864   4.179  19.296  0.1197  0.0739  0.0852
24919W        W67935  30.300  25.402  20.050  0.3228 -0.0738 -0.1043
24920W        W67936  22.271  24.672  22.837 -0.2759 -0.0215 -0.1054
24921W        W67937  23.806  22.557  18.783  0.2475  0.0226  0.1041
24922W        W67938  30.516  18.816  23.798  0.0288  0.1384  0.1947
24923W        W67939   0.287  16.437  22.747 -0.4895  0.1743  0.0186
24924W        W67940  21.104  16.691  14.720  0.2480  0.2511 -0.1622
24925W        W67941  25.708  21.685  23.718 -0.1570  0.2860 -0.0567
24926W        W67942  29.448  17.156  19.729 -0.2041  0.1145  0.1831
24927W        W67943   5.257  22.388   8.210  0.2249  0.1346  0.2031
24928W        W67944   3.548   0.871  18.034  0.3198 -0.1827 -0.2166
24929W        W67945  26.230  30.955  29.019  0.0525  0.2674  0.0879
24930W        W67946  32.553  10.316  17.176 -0.0862  0.1710  0.0256
24931W        W67947  34.196  27.277  21.182 -0.2819 -0.0213  0.0034
24932W        W67948  24.249   7.587  16.140  0.1507 -0.1843 -0.1751
24933W        W67949  28.982  24.541  16.414  0.2134  0.2394 -0.2422
24934W        W67950  27.061  11.327  19.069  0.1695 -0.0397 -0.0744
24935W        W67951  28.421  22.534  25.747 -0.1215  0.3428  0.0341
24936W        W67952  24.827  29.914  21.081 -0.0160 -0.1105 -0.3265
24937W        W67953  25.338  12.729  23.849 -0.1176  0.3761  0.3860
24938W        W67954  25.936  22.627  22.665 -0.2842 -0.1362  0.2851
24939W        W67955   6.931  27.741  28.426  0.0014  0.0126 -0.1265
24940W        W67956  22.032   0.788  14.780 -0.2008 -0.1974  0.1974
24941W        W67957  16.497  21.483  28.135 -0.1950  0.2649 -0.0920
24942W        W67958  18.414  28.122  17.963  0.2185  0.1434 -0.0296
24943W        W67959  25.659  30.141  24.245 -0.1340 -0.0967  0.0549
24944W        W67960   8.279   0.188  17.256 -0.1215 -0.0631  0.2651
24945W        W67961  10.446  19.811  28.634 -0.1673  0.0541 -0.1149
24946W        W67962  24.879   7.829  17.203 -0.0011 -0.0400  0.1193
24947W        W67963   5.241  33.288   5.374  0.2192 -0.0143 -0.1832
24948W        W67964  31.124  20.888  14.802 -0.0780  0.0716  0.0102
24949W        W67965  13.580  12.927  26.651  0.1234  0.1500 -0.1055
24950W        W67966  24.903  23.972   5.027  0.0680  0.1827 -0.0958
24951W        W67967  32.884   9.109  16.737 -0.2930  0.3460 -0.1002
24952W        W67968  24.801  18.359  14.867 -0.0317  0.0082 -0.0689
24953W        W67969  18.895  21.012  23.242 -0.0884 -0.1426  0.0464
24954W        W67970   9.857   6.525  18.117 -0.2610 -0.1458 -0.3720
24955W        W67971  30.124   2.885  18.990 -0.1095 -0.0892  0.1171
24956W        W67972   1.444  26.865  21.362  0.0059 -0.0110 -0.0567
24957W        W67973  25.980  30.696  16.035 -0.0757  0.2111  0.0641
24958W        W67974  10.699  26.796   0.001 -0.0453 -0.0825 -0.0273
24959W        W67975  34.439  22.449  15.802 -0.1396  0.1387 -0.0373
24960W        W67976  23.267  33.213  22.969  0.0482  0.1431 -0.0834
24961W        W67977  11.008  20.877  25.023  0.1274 -0.1807 -0.0435
24962W        W67978  28.237  34.398  19.653  0.1153  0.0782  0.0406
24963W        W67979  27.278  24.774  23.496  0.1527 -0.1072  0.0447
24964W        W67980  26.830  33.446  24.093 -0.1663  0.0627  0.0516
24965W        W67981  19.923  20.723  19.864  0.2513 -0.1349 -0.0132
24966W        W67982  18.994  22.831  29.032  0.1664 -0.2154  0.1114
24967W        W67983  14.359  27.899  14.767 -0.3028  0.2091  0.2926
24968W        W67984   5.047  12.049   8.569  0.0679  0.0048  0.5220
24969W        W67985   0.801  24.649  24.742 -0.2079  0.2045  0.1231
24970W        W67986  10.045  28.628  22.088 -0.0866 -0.0473 -0.3277
24971W        W67987  26.542  22.142  27.954  0.1844 -0.0975  0.0140
24972W        W67988  27.336  25.218  22.440  0.0285 -0.3632 -0.4992
24973W        W67989  14.435  24.139  26.240  0.0999 -0.0129 -0.2416
24974W        W67990  15.777  25.375  20.893  0.1171 -0.1553 -0.1214
24975W        W67991  33.007   4.931   3.879  0.1513 -0.1591 -0.0800
24976W        W67992  20.469  29.326   6.348 -0.0513 -0.3001 -0.5049
24977W        W67993  26.836  21.255  15.932  0.0413 -0.2775  0.0395
24978W        W67994  28.116  14.900  20.724  0.1685  0.0344 -0.1956
24979W        W67995  31.880  22.254  23.484 -0.1511 -0.3337  0.4493
24980W        W67996   9.699  23.392  20.320  0.1627 -0.0109 -0.1631
24981W        W67997   4.279  19.005  13.152 -0.1751  0.0730 -0.3027
24982W        W67998  21.568   7.348  28.189 -0.1022 -0.0051  0.1218
24983W        W67999  24.933  23.157  15.186 -0.0873 -0.1312  0.1787
24984W        W68000  34.047  23.216  15.892  0.0224  0.0207 -0.0020
24985W        W68001  20.083   1.025  27.740  0.1676  0.1888  0.0047
24986W        W68002  11.679  34.237   2.313 -0.2985 -0.1530 -0.0820
24987W        W68003   9.783  16.984   4.856 -0.3381  0.1164  0.3379
24988W        W68004  29.915  22.518  21.893  0.1667 -0.1252  0.0786
24989W        W68005  33.169  25.083   8.982 -0.0075  0.2280  0.2452
24990W        W68006   4.206   4.566  19.813 -0.0058 -0.0379  0.1392
24991W        W68007  13.921  32.314  20.710 -0.0092 -0.0281  0.2653
24992W        W68008  12.620  27.101  15.293 -0.1758 -0.0406 -0.0865
24993W        W68009  12.245  32.521   2.323  0.1552  0.0174  0.1443
24994W        W68010   7.567  12.292  25.728  0.2468  0.1558 -0.4011
24995W        W68011  20.253  22.596  20.722 -0.4418 -0.0582  0.2497
24996W        W68012  24.377  17.908  26.808  0.1265 -0.0816  0.0005
24997W        W68013  34.483   0.664  15.841  0.1749 -0.1152  0.1811
24998W        W68014   5.436  14.245  24.523 -0.0977 -0.1437 -0.2097
24999W        W68015   6.002   7.549  15.414  0.2129  0.1177 -0.3239
25000W        W68016  27.129   9.614  26.184 -0.0133  0.0068  0.0424
25001W        W68017  29.967  28.998  24.601  0.0570 -0.1305  0.2829
25002W        W68018  10.012  20.538   7.235 -0.1106  0.2273  0.3387
25003W        W68019  13.550  14.618  16.366  0.2726  0.4143 -0.0495
25004W        W68020   4.650   6.934  28.083 -0.2013 -0.0288  0.0457
25005W        W68021   7.700  29.135  26.098 -0.1495 -0.1196  0.3200
25006W        W68022  23.609  23.132  22.008  0.0358 -0.3210  0.0694
25007W        W68023  34.141  24.559   1.735  0.1050 -0.0321 -0.1118
25008W        W68024   7.981  16.553   7.830  0.0864  0.1187  0.0494
25009W        W68025   5.694  32.267  14.281 -0.0116  0.0322  0.1282
25010W        W68026  24.612   1.350  20.061  0.1278 -0.1507 -0.2424
25011W        W68027  23.197  20.547  22.500  0.0853  0.1404  0.3153
25012W        W68028  26.085  23.785   3.208 -0.3090 -0.1823  0.4323
25013W        W68029  21.686  22.339  25.766  0.0129  0.2032 -0.0935
25014W        W68030  11.531  22.102  21.140 -0.0044  0.1777 -0.0317
25015W        W68031   1.171  32.792  28.724  0.0471 -0.2037  0.0501
25016W        W68032   8.245  23.262  24.256  0.2880 -0.0236  0.1268
25017W        W68033   1.261   1.712   7.438  0.0424 -0.0422  0.0648
25018W        W68034  18.499  27.042  26.353  0.0669  0.1047  0.2165
25019W        W68035  27.775  24.914  16.711 -0.0129 -0.0479  0.2271
25020W        W68036  17.956  26.213  24.060 -0.0390  0.2768 -0.0082
25021W        W68037   2.483  15.760  23.500  0.2061  0.2278  0.1818
25022W        W68038  26.281  16.950  28.967  0.3070 -0.0121  0.0036
25023W        W68039  18.040  22.679  16.408  0.2768  0.1243 -0.0236
25024W        W68040  27.385  25.690  14.976 -0.3007  0.2498 -0.0226
25025W        W68041  15.633  22.107  12.613  0.1590 -0.0721  0.1163
25026W        W68042  26.403  17.852   1.651  0.0956  0.0631  0.0378
25027W        W68043  14.987  15.591  25.205 -0.0717 -0.0577 -0.1038
25028W        W68044  27.781  18.358   3.069 -0.1960 -0.0177  0.1452
25029W        W68045  17.593  23.281  17.415 -0.0151 -0.0234  0.0074
25030W        W68046   6.079  24.469  17.472 -0.1196 -0.2758  0.0188
25031W        W68047  25.547  27.878  19.297  0.0430 -0.0280 -0.3646
25032W        W68048  33.001  26.396  25.386 -0.0266  0.1147  0.0436
25033W        W68049   5.440   4.132  21.821 -0.3242  0.1354  0.1339
25034W        W68050  14.802   2.236  14.718 -0.0967 -0.0508  0.0509
25035W        W68051  32.258  19.152  20.672 -0.1501  0.0142  0.0020
25036W        W68052  22.330  28.137  18.955 -0.0579 -0.1452  0.2344
25037W        W68053  21.158  27.745  14.484 -0.2348  0.1493 -0.0676
25038W        W68054  28.263  13.525   4.649  0.0136 -0.1518 -0.0972
25039W        W68055  21.864  32.186  15.940 -0.0610  0.0023  0.1053
25040W        W68056  25.825   0.907  17.089 -0.1427  0.0798  0.1707
25041W        W68057  24.482  19.108   7.129 -0.0402  0.0828 -0.0809
25042W        W68058  28.620   2.685  24.851 -0.1709 -0.0026 -0.1029
25043W        W68059   3.712   5.409  14.342  0.0486  0.0475  0.0278
25044W        W68060  27.296   8.245  23.639 -0.2719 -0.3343 -0.1144
25045W        W68061  31.810  26.462  27.213 -0.0087  0.1626 -0.1329
25046W        W68062  26.789  28.775  23.021 -0.0386  0.1633  0.2053
25047W        W68063  20.120  24.736  20.539  0.0962  0.2336 -0.1000
25048W        W68064  18.959  33.167   3.838 -0.1120 -0.1337 -0.0149
25049W        W68065   8.485  34.175   7.467 -0.1821  0.0207 -0.2045
25050W        W68066  28.377   6.060  21.529 -0.0608  0.1180  0.0785
25051W        W68067  26.824  22.777  28.496 -0.1721 -0.0288  0.0564
25052W        W68068   1.649  17.274  26.208  0.3237  0.0278  0.1066
25053W        W68069  20.462   2.103  23.837 -0.3486  0.0431 -0.0941
25054W        W68070  16.934  24.397  22.523  0.1773  0.3343  0.2280
25055W        W68071  16.981  28.135  19.026 -0.0075 -0.3379  0.0923
25056W        W68072  10.731  28.814   6.317  0.1062  0.0742  0.1041
25057W        W68073   4.201  21.899  17.555  0.1391  0.0836  0.0918
25058W        W68074  18.559  25.582  20.858 -0.1222 -0.2851 -0.3446
25059W        W68075   8.989  23.529  19.114 -0.0296 -0.0153  0.1176
25060W        W68076  22.748  13.578  24.135 -0.0879  0.4418 -0.0196
25061W        W68077  11.778  33.400  17.612 -0.1301  0.0414 -0.0573
25062W        W68078  27.767  17.971  20.179 -0.0310  0.2448  0.4411
25063W        W68079  11.849  30.456  15.985  0.0785 -0.1239 -0.2856
25064W        W68080  32.022   6.845  23.550 -0.2989 -0.0250  0.1845
25065W        W68081  30.452   5.586  19.738  0.3048  0.0164  0.0260
25066W        W68082  30.507  20.572   5.965  0.1720 -0.0517  0.1604
25067W        W68083  30.612  14.230  14.011  0.0106  0.0881 -0.1246
25068W        W68084  15.170   1.975  17.319  0.1689 -0.0765 -0.3627
25069W        W68085  16.617  23.797  21.790  0.2421 -0.0691 -0.0549
25070W        W68086  25.324  12.911  16.245  0.1282 -0.1084  0.1560
25071W        W68087  15.252  28.961  17.979 -0.1416 -0.1318 -0.2763
25072W        W68088  23.744  22.415  23.311  0.3905 -0.1634  0.3392
25073W        W68089  30.316   8.432  15.620  0.1395 -0.0279 -0.2484
25074W        W68090  21.867  31.846  19.397  0.0904  0.2962 -0.2011
25075W        W68091  20.253  17.686  13.283 -0.1585  0.0693  0.1447
25076W        W68092  15.173  28.098  28.700  0.0117  0.1487  0.2884
25077W        W68093  31.076  33.928  10.276  0.0299  0.0260 -0.1349
25078W        W68094  22.792  11.436  21.255  0.0388  0.1310  0.1000
25079W        W68095  17.247  10.649  15.085  0.0958  0.0876 -0.0630
25080W        W68096  32.756  25.720  15.108  0.3187  0.5376  0.0132
25081W        W68097  10.165  34.163  17.093  0.2148  0.4131  0.0559
25082W        W68098  11.909  32.821  27.111  0.2641  0.2161 -0.0440
25083W        W68099  20.292  25.474   0.689 -0.1449 -0.0892 -0.2581
25084W        W68100  23.257  24.001  22.329 -0.1323 -0.2156  0.1579
25085W        W68101   2.007  24.088  14.956 -0.0276 -0.2762 -0.3144
25086W        W68102  20.694   2.219  20.672  0.0813 -0.0044  0.0736
25087W        W68103  32.692  12.846  14.212 -0.3303  0.3210  0.0224
25088W        W68104   1.358  19.801  21.738  0.1660 -0.1255 -0.0896
25089W        W68105   7.529  11.449  16.237  0.1799  0.0609  0.2776
25090W        W68106  27.573   7.996  17.044 -0.1077 -0.0339 -0.0073
25091W        W68107  33.451  22.093  15.337 -0.0275  0.1768 -0.0892
25092W        W68108  21.753  14.603  24.846 -0.0377  0.1035  0.0722
25093W        W68109  25.099  31.739  25.548 -0.0547 -0.1710  0.0476
25094W        W68110  30.790  22.964  24.482  0.1017 -0.2091  0.1134
25095W        W68111   1.631  31.170   2.830  0.2388 -0.0495 -0.0359
25096W        W68112  28.463  14.648   1.563  0.2227  0.3850  0.1352
25097W        W68113   3.001  25.236  16.711  0.2076  0.2760  0.0841
25098W        W68114  26.764  25.193  24.416  0.0982  0.2725 -0.5590
25099W        W68115  13.207  25.460  17.465  0.1989 -0.1494 -0.0370
25100W        W68116  23.316   1.097  24.406 -0.1158  0.1886  0.2791
25101W        W68117  20.237   0.573  26.993  0.0799  0.0543 -0.0834
25102W        W68118  29.769  21.296  15.791  0.2818  0.2191  0.0295
25103W        W68119  22.725  24.757  26.265  0.1251  0.2498  0.3081
25104W        W68120   9.746  19.171  19.235 -0.1831  0.0281 -0.2230
25105W        W68121  17.845  28.937   2.642  0.1243 -0.3192  0.0650
25106W        W68122  24.624  28.281  15.268  0.1024  0.1744  0.0668
25107W        W68123  18.440  19.262   1.790 -0.4210 -0.0121 -0.0086
25108W        W68124  30.049  10.480  15.869 -0.2366 -0.1323  0.2150
25109W        W68125  21.464   7.976   0.314  0.1392 -0.1883  0.2280
25110W        W68126  26.126  15.637  17.258  0.3079  0.1297 -0.2122
25111W        W68127  32.971  30.124   1.986  0.0295 -0.2362  0.0270
25112W        W68128  31.386   4.340   8.088  0.0105 -0.2869  0.1408
25113W        W68129  25.894   1.374  17.754  0.1042 -0.1733  0.3022
25114W        W68130  11.388  28.572  22.268 -0.0042 -0.3187 -0.2219
25115W        W68131  21.152  24.972  20.405 -0.0209  0.1502  0.0346
25116W        W68132   0.456   1.892  20.761 -0.1737  0.0786 -0.1072
25117W        W68133  30.404   3.774  17.385  0.2718 -0.1539  0.0316
25118W        W68134   0.525  11.447   6.106  0.0347 -0.0265  0.2386
25119W        W68135   3.241   5.520   2.202  0.3393 -0.0735 -0.2101
25120W        W68136  20.874  12.167  17.775 -0.1702  0.1072  0.1201
25121W        W68137   5.691  20.436  17.503 -0.0380 -0.0793  0.1375
25122W        W68138  20.667  11.590  15.266 -0.1658 -0.3620  0.1461
25123W        W68139  34.413  25.285   5.524  0.2242 -0.0585 -0.1235
25124W        W68140  27.967  24.280  10.941 -0.1796 -0.2006 -0.6690
25125W        W68141  17.060  23.302   5.531 -0.0072 -0.0384 -0.0028
25126W        W68142  14.065  21.543  16.167 -0.0273  0.1209 -0.1881
25127W        W68143  26.800  24.463  22.057  0.2251 -0.1104 -0.3203
25128W        W68144  10.261  10.218  17.428 -0.0904 -0.2991 -0.2576
25129W        W68145  25.751  25.065   0.377 -0.1780 -0.0867  0.2718
25130W        W68146  29.062  18.955  24.977 -0.0945  0.0699 -0.0719
25131W        W68147  21.304  25.521  23.042  0.1000 -0.2008 -0.0913
25132W        W68148  13.167  10.119  17.217 -0.2342 -0.1972 -0.0746
25133W        W68149  26.208  25.937  21.180  0.1805 -0.3960 -0.1383
25134W        W68150  23.194  26.958  23.756 -0.2918 -0.0306 -0.0389
25135W        W68151  18.471  29.716  22.715 -0.1606  0.0676 -0.1893
25136W        W68152  16.638  29.282  25.941  0.2721  0.0065 -0.0443
25137W        W68153  28.962  27.166  29.300  0.1549  0.0642  0.0026
25138W        W68154   3.725  28.436   9.503  0.0931  0.0609  0.0167
25139W        W68155  21.162  23.026  24.630 -0.0231  0.0196  0.0820
25140W        W68156  34.752  16.491  19.240 -0.1214  0.1384  0.1393
25141W        W68157   4.886  23.069   9.142 -0.1275 -0.3873  0.3585
25142W        W68158  21.636  30.596  14.205  0.1540 -0.0316  0.0840
25143W        W68159  24.362  27.406  18.674  0.3541  0.0292  0.1717
25144W        W68160   3.486  31.143  17.190  0.1145 -0.0076 -0.0268
25145W        W68161  18.558  23.847  17.296  0.0369 -0.0598 -0.2115
25146W        W68162  24.492   3.770   5.222  0.1511  0.2654 -0.1220
25147W        W68163  29.148  28.343  26.743 -0.4860 -0.3263 -0.0431
25148W        W68164  30.167  25.051   8.973  0.0661  0.1615 -0.2420
25149W        W68165  29.536  30.783  19.645 -0.2361  0.0632 -0.0941
25150W        W68166  31.993  18.860   0.076 -0.2683  0.4106  0.2031
25151W        W68167   6.255   7.482  28.157 -0.1564  0.1372 -0.3492
25152W        W68168   3.702  23.294  14.831  0.1447 -0.1409 -0.1984
25153W        W68169  29.978  29.069  25.685  0.0427 -0.0796  0.0873
25154W        W68170  20.926  29.230  17.347 -0.1102  0.0979  0.0200
25155W        W68171  21.608  33.422  17.888  0.2007  0.1485  0.0717
25156W        W68172  29.826  18.835   3.878 -0.3538  0.0752 -0.1073
25157W        W68173  17.212  27.365   2.848  0.0437  0.3191 -0.0510
25158W        W68174   0.404  23.354   6.641  0.2114 -0.0544 -0.0901
25159W        W68175  16.449  11.535  16.056  0.6935 -0.2493  0.1302
25160W        W68176  15.006  29.435  24.648 -0.2151 -0.0696  0.0435
25161W        W68177  19.014   8.251   6.686  0.3284  0.1462 -0.3133
25162W        W68178  29.605  30.492  18.616 -0.0349  0.1656 -0.2673
25163W        W68179  21.412  11.170  22.635  0.1546 -0.1714 -0.1615
25164W        W68180  13.663   2.999  28.590 -0.1355 -0.1775 -0.0769
25165W        W68181   3.747  28.545   4.072 -0.0752 -0.0197  0.5124
25166W        W68182   5.221  30.422   2.195 -0.2014 -0.0528  0.0363
25167W        W68183  26.477  33.220  22.885 -0.0454 -0.1256  0.1551
25168W        W68184  27.512  14.080  27.903  0.0484  0.5201  0.0937
25169W        W68185  31.087  18.464   4.461 -0.0364 -0.0669  0.3042
25170W        W68186  23.927  28.008   8.122  0.1559 -0.0346  0.1139
25171W        W68187  20.814   7.937  20.748  0.1343  0.1719 -0.3544
25172W        W68188   0.185  28.870  21.358  0.1681  0.1246  0.2862
25173W        W68189   5.871  23.883   2.128  0.2686 -0.2796 -0.1610
25174W        W68190  22.584  12.441  18.336 -0.0080 -0.3003  0.1666
25175W        W68191   0.094   3.311  22.092  0.3492 -0.3189  0.0864
25176W        W68192  21.808  24.812  23.759  0.0814  0.0323  0.1216
25177W        W68193  26.225  22.312  21.935 -0.1195  0.0928  0.1142
25178W        W68194  29.740   0.162   1.208 -0.0440  0.2454  0.0202
25179W        W68195  29.369  12.218   0.245 -0.1549 -0.0377  0.0614
25180W        W68196   8.133  26.023  21.455  0.1340 -0.2850  0.1573
25181W        W68197  13.428  23.715   6.516  0.2484  0.1473  0.4357
25182W        W68198  32.009  21.518  18.218 -0.2581 -0.1138  0.1638
25183W        W68199  19.149  18.509  24.117 -0.0925 -0.0360  0.1792
25184W        W68200  34.530   7.400  25.110  0.1835 -0.2854 -0.0681
25185W        W68201  13.799  11.970   8.633 -0.1648  0.1214  0.0528
25186W        W68202  33.201  21.865  22.683  0.0359 -0.0674  0.0612
25187W        W68203  20.272  32.159   9.338 -0.0332 -0.0712 -0.0577
25188W        W68204   0.629  33.741  26.172 -0.0447  0.2028 -0.2173
25189W        W68205  17.739  32.602   3.548 -0.1084  0.0833  0.0211
25190W        W68206  22.729  13.960  27.661  0.2608 -0.1464 -0.0306
25191W        W68207  23.701  21.191   8.595  0.2204 -0.0342  0.2631
25192W        W68208  33.908   9.388   5.734 -0.3555  0.3966 -0.0845
25193W        W68209   3.227  27.740   0.212  0.4322  0.2332  0.2496
25194W        W68210   9.373   2.051  16.366  0.2757  0.0532 -0.2905
25195W        W68211  14.034  29.943   0.099  0.3974  0.1319 -0.2146
25196W        W68212   9.297  27.443   9.895  0.2450 -0.3206 -0.2277
25197W        W68213  25.003  14.099   9.370  0.2404  0.2022  0.0123
25198W        W68214  15.757   2.258  15.407  0.0187 -0.1634  0.0173
25199W        W68215  26.333   7.721   7.050 -0.0578  0.0521 -0.1795
25200W        W68216  28.394  21.160  15.766  0.1037  0.0852  0.2345
25201W        W68217  21.672  29.212  21.671  0.1791  0.0882  0.0771
25202W        W68218  10.281  15.649  20.753 -0.0838 -0.0463 -0.1296
25203W        W68219   7.633   5.616  28.858  0.3497 -0.0299 -0.0234
25204W        W68220  20.099  26.008  21.713  0.0573 -0.0504 -0.0908
25205W        W68221  26.999  22.901   7.743 -0.2114 -0.0506 -0.0129
25206W        W68222  28.852  30.978   6.637 -0.2766 -0.0679 -0.2876
25207W        W68223   5.738  25.272  28.733  0.2320  0.1633  0.0204
25208W        W68224  26.631   0.224   6.540 -0.1901 -0.0674  0.0106
25209W        W68225  31.401  20.275  22.558  0.2404  0.1108  0.1164
25210W        W68226  24.593  34.241  27.711  0.0503 -0.0862  0.0182
25211W        W68227  27.302  34.590  22.212 -0.0994 -0.1974  0.1097
25212W        W68228  29.764  31.586  25.761 -0.0131 -0.0392  0.1605
25213W        W68229  20.679  23.526   0.116  0.3062 -0.0289  0.0838
25214W        W68230  19.512  24.813  25.536  0.0518 -0.1901  0.2639
25215W        W68231  24.538  26.348  18.946  0.0961  0.0996  0.0326
25216W        W68232  29.123   3.308  16.215  0.0432 -0.1935 -0.1373
25217W        W68233  20.983  27.599   8.726  0.0646  0.2042 -0.2087
25218W        W68234  18.043  28.766   8.221 -0.0322  0.1941 -0.1756
25219W        W68235  26.235  25.046  17.334  0.0780  0.0299  0.1633
25220W        W68236  12.843  23.568  15.373  0.0446 -0.0072  0.0879
25221W        W68237  11.995  28.771  22.735  0.0487 -0.0840 -0.1692
25222W        W68238  28.238   3.253   9.352  0.0184 -0.1228  0.0686
25223W        W68239  20.771  32.957  16.143 -0.1664  0.0386  0.0379
25224W        W68240  12.034  16.941  12.809  0.0534  0.2633  0.1871
25225W        W68241  28.515  28.511  25.085  0.0820  0.4605 -0.0229
25226W        W68242  30.865  26.899  16.704 -0.2397 -0.3412 -0.1256
25227W        W68243  14.628  23.803   5.978 -0.1609  0.1251 -0.4466
25228W        W68244   5.706  24.065  24.430 -0.0015 -0.1132  0.1131
25229W        W68245   6.791  27.697   8.043 -0.0555 -0.1582 -0.0617
25230W        W68246  32.801   8.342  19.321 -0.0828  0.1439 -0.1647
25231W        W68247  32.412  17.160  10.029  0.2665 -0.1028  0.0803
25232W        W68248  25.971  17.847  14.750  0.1689  0.0787  0.2103
25233W        W68249  24.013  22.655  15.341  0.0545 -0.1972 -0.1317
25234W        W68250  22.627  16.371  21.278 -0.0153  0.2394 -0.0590
25235W        W68251  26.293  22.864  25.892 -0.3967  0.1373 -0.0575
25236W        W68252   7.835  28.406  16.219  0.1769 -0.2560 -0.0779
25237W        W68253  32.324  23.344   2.508  0.1190  0.1849  0.0904
25238W        W68254  31.218  22.248  24.477  0.0973  0.0652  0.3075
25239W        W68255   3.917   7.331  22.330 -0.0413 -0.0341 -0.0505
25240W        W68256  26.029  12.142  23.488  0.0558 -0.0441  0.1810
25241W        W68257  34.412  32.871  25.537 -0.0218 -0.0678 -0.0078
25242W        W68258  25.321  28.150  20.311 -0.0729  0.4672  0.1296
25243W        W68259  11.482  12.545  17.011 -0.0137  0.0377 -0.1786
25244W        W68260  33.228  27.202   9.256  0.4720 -0.0505 -0.1291
25245W        W68261  23.076   0.611  20.670  0.1672  0.2989 -0.0431
25246W        W68262  29.913  12.459  22.284  0.1769 -0.2992 -0.1504
25247W        W68263   3.843  25.319  16.583 -0.0087  0.2200  0.3187
25248W        W68264  32.285  24.148  22.992  0.0146 -0.0771  0.1050
25249W        W68265  28.003  25.521  19.219 -0.1809  0.0077  0.0566
25250W        W68266  17.546   3.716  14.863  0.0823  0.3356 -0.1932
25251W        W68267  20.332  30.217  24.452 -0.0850  0.0253  0.0811
25252W        W68268  14.958   9.654   8.121 -0.1190 -0.1300 -0.0554
25253W        W68269  23.098  20.980  22.244 -0.3513 -0.0932 -0.4316
25254W        W68270  30.682  18.128   2.923 -0.3004 -0.2646  0.1926
25255W        W68271  32.753  22.500  21.054  0.0983 -0.1250  0.2131
25256W        W68272  13.077  23.793   8.149 -0.0494 -0.1619  0.1105
25257W        W68273  21.790  28.641  29.155  0.1614  0.0973  0.1183
25258W        W68274   9.926  24.369   7.076 -0.1337 -0.0998  0.0743
25259W        W68275  25.985  21.421  18.632 -0.0760  0.2741  0.3977
25260W        W68276  30.502  34.545   3.541  0.2978  0.3098 -0.1131
25261W        W68277  21.826  21.183  15.623 -0.1772 -0.2617 -0.1769
25262W        W68278  19.161  20.735  12.287 -0.2465  0.0949 -0.1115
25263W        W68279  27.692   0.985  28.096 -0.0948 -0.3611 -0.2047
25264W        W68280   5.673  16.320   7.778 -0.1949  0.3535  0.0971
25265W        W68281  34.023  15.242  27.991  0.3029 -0.0894  0.2049
25266W        W68282  31.638  24.653  22.464  0.2831  0.1015  0.4523
25267W        W68283   9.702  16.459   2.455 -0.0335 -0.1175  0.2319
25268W        W68284  24.896  22.279  21.196 -0.2386  0.1123 -0.0725
25269W        W68285  17.595  25.036   9.008 -0.0976  0.2108  0.0463
25270W        W68286   2.204  28.186   5.875 -0.0871 -0.1816  0.2115
25271W        W68287   4.074  14.049  20.693 -0.0063  0.0511 -0.0462
25272W        W68288   9.539  17.087  22.490  0.1304  0.0082  0.2186
25273W        W68289  23.902  22.522  24.648 -0.0281  0.0841 -0.1030
25274W        W68290  13.634  32.282  28.095 -0.3576 -0.0292  0.2355
25275W        W68291   0.408  29.961   8.734  0.0487  0.2201  0.3213
25276W        W68292  21.744   0.742  27.571  0.0123  0.2280  0.1679
25277W        W68293  26.144  18.907  24.398 -0.0253 -0.0166 -0.0750
25278W        W68294  14.687  25.876  16.290 -0.1067 -0.1454  0.0486
25279W        W68295  19.836   8.830  24.351  0.1821  0.0607  0.2264
25280W        W68296  30.080  25.393   8.602  0.1718 -0.2302  0.2396
25281W        W68297   8.262  18.947   3.789  0.0344  0.1652 -0.3743
25282W        W68298  29.693  31.173  23.358  0.1151  0.1280 -0.3620
25283W        W68299   2.829  15.236   6.042  0.2565 -0.0727  0.2828
25284W        W68300  16.180  24.571   0.210  0.0088 -0.0741 -0.1711
25285W        W68301  28.014  24.223   5.653 -0.1613  0.0395  0.1745
25286W        W68302  26.734  24.976   5.925  0.3511  0.1517 -0.0888
25287W        W68303  30.517  27.847  24.344 -0.1231 -0.0332 -0.0432
25288W        W68304   9.290  21.758  26.532  0.2390 -0.0583 -0.3379
25289W        W68305  32.813  10.467   8.172  0.1427  0.2079  0.1908
25290W        W68306   9.208   2.051  27.540  0.2204 -0.1781  0.0268
25291W        W68307  17.199  31.634  21.869 -0.3223 -0.1248 -0.0776
25292W        W68308  22.633  27.831  20.453 -0.2779 -0.5828  0.1358
25293W        W68309  33.108  25.047  24.288  0.0437  0.0268 -0.0613
25294W        W68310  33.139  28.554   2.023  0.1235  0.1743  0.1456
25295W        W68311  28.500  31.070   0.624 -0.2235  0.4782 -0.3002
25296W        W68312  19.558  24.769   3.608  0.0155 -0.3711  0.0956
25297W        W68313  34.381  29.579  20.113  0.2798  0.0344  0.1503
25298W        W68314  12.142  34.137   9.444  0.0068 -0.1727  0.1313
25299W        W68315  19.206   4.054  27.772 -0.1569  0.2339  0.0382
25300W        W68316  29.900   5.692  23.955 -0.0704 -0.0904 -0.0990
25301W        W68317  23.620  22.463  14.185 -0.2446 -0.0626  0.0813
25302W        W68318  32.282  23.410  22.021  0.2629  0.4391  0.0132
25303W        W68319  18.852  29.847  17.415  0.1837 -0.2007 -0.0319
25304W        W68320  23.727   6.385   1.452  0.0888  0.0664  0.0394
25305W        W68321  27.631  27.635  28.404  0.2539 -0.3590 -0.2108
25306W        W68322   7.728  22.801  28.208 -0.2841  0.0152  0.0157
25307W        W68323  30.503  14.849  13.881 -0.1464  0.1540  0.0208
25308W        W68324  29.801  18.274  26.729  0.1366  0.0441  0.1867
25309W        W68325  25.579  24.271  17.002 -0.2288 -0.1423 -0.1154
25310W        W68326  13.675   0.966  25.478 -0.4913 -0.1425 -0.0445
25311W        W68327  17.386  24.111  16.484 -0.3523  0.1569  0.0149
25312W        W68328  34.060  18.638  26.372  0.1817  0.2337  0.0071
25313W        W68329   9.646  24.951  18.155 -0.0859  0.0194 -0.0409
25314W        W68330  25.373  26.549  20.696  0.0865 -0.2055  0.2189
25315W        W68331   6.691  21.793  18.288  0.1336 -0.0131 -0.3292
25316W        W68332  17.755  29.493   7.405 -0.0096  0.0397  0.2934
25317W        W68333  17.244  29.117  18.875 -0.0307 -0.1956  0.1402
25318W        W68334  15.873  17.120  17.681 -0.1863  0.4091 -0.1059
25319W        W68335  23.702  26.465   5.153 -0.1767 -0.0933  0.0900
25320W        W68336   9.873   7.387  22.287 -0.0836  0.2723  0.2895
25321W        W68337  10.942  27.602  16.128  0.1458  0.0361  0.0368
25322W        W68338  22.209  25.371   0.226  0.1717 -0.0762 -0.0131
25323W        W68339  25.818  32.310  25.806 -0.1944  0.1995 -0.4027
25324W        W68340  15.282  19.309   4.286  0.0707 -0.1583  0.0982
25325W        W68341  21.653   3.405  18.782  0.0571 -0.0151  0.1887
25326W        W68342   9.651  23.336  19.076 -0.0444 -0.0904 -0.0182
25327W        W68343  30.443   1.740  15.137  0.0442  0.2013 -0.0768
25328W        W68344  30.669  33.456  28.582 -0.0365 -0.2395 -0.0337
25329W        W68345  27.162  28.172  10.518 -0.1022  0.0509 -0.0457
25330W        W68346  24.791  29.243  26.410 -0.2029  0.3953  0.0883
25331W        W68347  16.813  29.533  24.803  0.1035 -0.4428 -0.0616
25332W        W68348  21.681  26.179   6.563  0.1370  0.0836 -0.2252
25333W        W68349  22.720  27.136  28.159 -0.0229  0.0960  0.0534
25334W        W68350   0.312  27.282  18.050  0.2917 -0.3946 -0.1431
25335W        W68351  31.967  23.845  22.025  0.1091 -0.2000  0.1580
25336W        W68352  28.578  10.271   0.963  0.2172  0.3040 -0.1455
25337W        W68353  18.744  24.907  16.133 -0.2854 -0.1356  0.5902
25338W        W68354  26.176  11.690  27.506 -0.1672  0.0468  0.2151
25339W        W68355  16.205  16.476   5.483 -0.0701  0.0484 -0.0095
25340W        W68356  23.077  29.297   8.662 -0.0223  0.0883  0.0893
25341W        W68357  24.238  24.654   9.072 -0.1445 -0.0922 -0.1294
25342W        W68358  22.893  21.186  15.572  0.1375  0.1767 -0.1168
25343W        W68359   0.816  16.352  22.839  0.1667 -0.0649  0.0397
25344W        W68360   6.043  18.483  26.083  0.2556  0.2133  0.0202
25345W        W68361  12.891  30.713  14.257 -0.2892  0.2243 -0.2285
25346W        W68362  24.629   4.938  16.148  0.0670  0.1316  0.1253
25347W        W68363  11.831  24.486  27.590  0.0425 -0.2569 -0.3297
25348W        W68364  25.482  16.670  16.052  0.0197  0.5081 -0.0571
25349W        W68365   6.111  17.740  27.028  0.2781  0.1478 -0.0383
25350W        W68366  33.789  16.524  17.495  0.0522 -0.2067 -0.0618
25351W        W68367  32.551  33.983   6.528  0.3900  0.0038  0.2636
25352W        W68368  16.600  29.229  18.077  0.1470  0.0760 -0.0585
25353W        W68369  27.862  19.056   7.718 -0.2824  0.1926  0.2090
25354W        W68370  24.504  30.230   8.592  0.0054  0.1247 -0.1475
25355W        W68371  20.887  28.632  21.119 -0.3662 -0.4095 -0.3262
25356W        W68372   4.586  19.111   0.799 -0.0049  0.0976 -0.1027
25357W        W68373  14.482  33.891   1.278  0.1900  0.0174  0.2120
25358W        W68374  28.951  20.327  15.754 -0.2047 -0.4557  0.0839
25359W        W68375   1.565  12.242   4.032  0.1413  0.3055 -0.1063
25360W        W68376  17.303  25.544  14.727 -0.3010 -0.0935 -0.3126
25361W        W68377   4.710   0.252   2.767  0.1141  0.1732  0.3987
25362W        W68378  21.213  29.583  24.209 -0.2209  0.1563  0.0030
25363W        W68379  26.585  19.762  19.578 -0.0653  0.2365  0.4450
25364W        W68380  32.785   2.170  17.311 -0.2934  0.0134 -0.1699
25365W        W68381  22.757  22.700  17.778  0.1365 -0.4763  0.1928
25366W        W68382  21.116  28.112  26.727  0.1513 -0.0288  0.1159
25367W        W68383  32.768  27.212  16.897  0.0873  0.2454 -0.4923
25368W        W68384  30.192  30.238  28.725  0.2305 -0.3826  0.1005
25369W        W68385  33.512  28.978  15.814 -0.2133  0.0796  0.4336
25370W        W68386   7.336  23.814  15.820 -0.1815 -0.1097  0.0879
25371W        W68387  10.972  33.945   8.646 -0.1155 -0.0979 -0.1472
25372W        W68388   1.014  25.655  15.209  0.1504  0.0865  0.0485
25373W        W68389  32.435  20.620   8.211  0.0344 -0.2211  0.2291
25374W        W68390   3.703  23.419  27.830  0.1398 -0.1563 -0.0495
25375W        W68391  28.388  24.085  26.881 -0.1182 -0.0400 -0.0676
25376W        W68392   5.362  32.247  21.243  0.0143  0.1999  0.0041
25377W        W68393   9.463  28.476   4.208  0.0434 -0.0949 -0.1299
25378W        W68394  14.178  32.921  27.009 -0.0892  0.3536  0.0922
25379W        W68395  17.897   2.510  28.212 -0.2378 -0.2334 -0.0851
25380W        W68396  32.409   7.765   9.060  0.4100 -0.1062 -0.0019
25381W        W68397  19.172   3.596   0.890 -0.0105  0.0298 -0.1635
25382W        W68398   2.873  12.840   2.095 -0.1380  0.2525  0.0241
25383W        W68399  29.629   6.621   5.371  0.3412 -0.4336  0.0254
25384W        W68400  13.497  30.618  15.146 -0.1981 -0.0292 -0.1759
25385W        W68401  24.915  28.398  23.786  0.1138 -0.0389 -0.1306
25386W        W68402  16.618  19.881   4.996  0.0527  0.0185 -0.0562
25387W        W68403  34.142  17.439  20.966 -0.1944  0.0449  0.3262
25388W        W68404   6.031  20.266  29.090 -0.0949 -0.1278  0.4966
25389W        W68405   0.935  30.032   0.961  0.2588  0.1621 -0.2098
25390W        W68406  26.963  20.965  23.562 -0.1931 -0.0254 -0.0124
25391W        W68407   2.140  18.075   1.205  0.3855 -0.1739 -0.0503
25392W        W68408   1.959  17.135  18.283 -0.1483  0.0270 -0.1666
25393W        W68409  24.861  31.509  24.648  0.1567 -0.3487  0.3557
25394W        W68410   1.851  34.477  26.104  0.1382 -0.0952 -0.2843
25395W        W68411  30.293  30.093   1.921 -0.0500  0.0076  0.0082
25396W        W68412   5.729  27.646  21.094 -0.0458  0.1645  0.0435
25397W        W68413  23.579  18.787  25.617 -0.1137 -0.0913  0.3262
25398W        W68414  32.591  24.007  15.059 -0.0481 -0.2356 -0.0497
25399W        W68415  29.880  21.401   5.079 -0.0424  0.0544 -0.0992
25400W        W68416  34.176   6.068   9.316  0.1826  0.0983 -0.0604
25401W        W68417  21.220  12.662  21.397  0.0553 -0.2005  0.0410
25402W        W68418  13.033  14.522  15.975  0.4597 -0.0966  0.0694
25403W        W68419  28.742   5.230  19.013 -0.0348 -0.0404 -0.1384
25404W        W68420  11.738  23.099  24.434  0.1467 -0.0380  0.0491
25405W        W68421  20.791   0.915  23.747  0.0837 -0.0231 -0.0655
25406W        W68422  33.764  21.024  28.290 -0.0384  0.0467 -0.2842
25407W        W68423  34.037  14.906   4.120  0.0192 -0.2063 -0.0676
25408W        W68424  22.352   1.671   8.064 -0.0177 -0.0502 -0.1552
25409W        W68425  10.372  14.034  16.041  0.2282  0.1372  0.0508
25410W        W68426   1.647   5.787   6.037  0.0293 -0.2401 -0.1513
25411W        W68427  28.050  16.577  16.114  0.1208 -0.1099 -0.3020
25412W        W68428  21.827  13.853  26.718  0.0255  0.1387  0.1355
25413W        W68429  28.032  17.986  21.444 -0.1596 -0.0412 -0.1946
25414W        W68430  21.372  23.588  23.408 -0.1697 -0.0421  0.0296
25415W        W68431   1.278  12.892  10.543 -0.0542 -0.4339 -0.0602
25416W        W68432  33.587  25.112   1.416 -0.0513  0.1796 -0.1921
25417W        W68433  23.167  20.177   3.484 -0.3110  0.0021  0.0703
25418W        W68434  33.820  31.471   3.492  0.0719  0.3474 -0.2150
25419W        W68435  22.500   8.172  14.417 -0.0922  0.0115 -0.2873
25420W        W68436  23.898  33.767  22.232  0.5337  0.1490  0.5059
25421W        W68437  24.346  25.484  25.370 -0.0189 -0.2036 -0.0219
25422W        W68438  34.652  33.025   5.150 -0.2665 -0.0204 -0.0413
25423W        W68439  17.811   7.692  17.402  0.1054  0.2014  0.0884
25424W        W68440  21.063  11.564  22.727  0.3393  0.1580  0.0280
25425W        W68441  18.965  24.910  22.934 -0.0244 -0.1633  0.0706
25426W        W68442  27.185  20.847   1.204 -0.0167 -0.1833 -0.1212
25427W        W68443  25.008  28.509  20.005 -0.1272  0.2786 -0.0871
25428W        W68444  30.083  26.281   2.169 -0.0937  0.2136  0.1866
25429W        W68445  34.622   4.840   2.928  0.2758 -0.0677 -0.0218
25430W        W68446  28.662  15.700   1.013  0.2356  0.1907 -0.0986
25431W        W68447  31.656  26.376  26.725 -0.0718  0.1659 -0.0703
25432W        W68448   8.905   4.218   0.668 -0.2199  0.0284 -0.2036
25433W        W68449  23.480  17.235  22.861  0.1452  0.0266 -0.2026
25434W        W68450   8.292  18.213  22.115  0.1583 -0.0549 -0.2698
25435W        W68451  11.741  13.948  25.361 -0.2010 -0.1012  0.1794
25436W        W68452  21.368  24.808   6.767 -0.0261  0.0597  0.1188
25437W        W68453  32.695  28.548   9.055  0.0171 -0.0402 -0.1644
25438W        W68454  30.792  15.723  18.673 -0.2796  0.1816 -0.1133
25439W        W68455   5.372  17.698  18.628 -0.0391 -0.1999 -0.0782
25440W        W68456  28.186  29.155  20.428  0.1972  0.2315  0.3560
25441W        W68457  20.402   7.721   6.488  0.3688  0.2064 -0.0925
25442W        W68458  26.382   7.489  27.887  0.1407  0.1215  0.1739
25443W        W68459   4.882  31.439  14.883 -0.1511  0.2238  0.0107
25444W        W68460  25.362  30.088  16.000  0.0586 -0.0714 -0.1974
25445W        W68461   0.823  19.468  24.302 -0.0244 -0.0517 -0.0894
25446W        W68462  24.659  18.764  28.170 -0.1268  0.2133 -0.1085
25447W        W68463  31.716  27.492  21.995 -0.4019 -0.1489  0.1248
25448W        W68464  29.514   7.859  24.492 -0.1056 -0.2095 -0.0556
25449W        W68465  10.687  23.199  19.216 -0.0368  0.0233 -0.2901
25450W        W68466  15.259  10.834  20.705 -0.0981  0.1106 -0.0506
25451W        W68467   8.513  24.074  15.295  0.0157 -0.1358 -0.0731
25452W        W68468   0.922  33.415  21.958 -0.0126  0.2798 -0.0523
25453W        W68469  31.260  21.003  19.747  0.1923 -0.2287  0.2533
25454W        W68470  20.588  20.493  21.736 -0.2224 -0.1544 -0.2860
25455W        W68471  25.061  23.102  27.721  0.1972  0.2062  0.0461
25456W        W68472   9.810  27.832  22.799  0.2752 -0.0953 -0.1678
25457W        W68473   0.694  34.060  25.045 -0.1295  0.3376 -0.1807
25458W        W68474  21.482  17.489  21.711  0.0818 -0.0310 -0.4738
25459W        W68475  25.574  24.406   7.915 -0.2240 -0.2850 -0.4167
25460W        W68476   6.815   3.622   0.922  0.2525  0.0725 -0.0414
25461W        W68477   4.415  22.035   0.351  0.3234 -0.0055  0.1773
25462W        W68478  18.349  23.496  15.731 -0.1713  0.0563  0.0003
25463W        W68479   0.042   9.168  22.902 -0.1862 -0.1822 -0.0765
25464W        W68480  16.498  25.969   3.634 -0.1902 -0.0203 -0.1549
25465W        W68481  24.849  24.733  29.318 -0.0711 -0.2487  0.0644
25466W        W68482  19.794  30.984   1.521  0.2867  0.2525 -0.1849
25467W        W68483  20.828   2.523   4.808  0.1398 -0.0344  0.5130
25468W        W68484  30.458   9.017  15.069  0.0391  0.1874 -0.3470
25469W        W68485  19.967  33.077  27.867 -0.1699 -0.1641  0.3795
25470W        W68486   9.187  19.699  24.058  0.0432 -0.0572  0.1877
25471W        W68487  27.957  27.125  20.005  0.0469 -0.2471  0.1428
25472W        W68488  12.724  14.105  12.693  0.1727  0.0695  0.0332
25473W        W68489   6.681  27.907  14.323 -0.1240 -0.0881  0.0829
25474W        W68490  22.000  19.874   2.786 -0.1434  0.2273  0.0052
25475W        W68491  17.448  26.938   5.825  0.0734  0.0345  0.0831
25476W        W68492  23.620  27.347  28.386  0.1199  0.0394 -0.1812
25477W        W68493  32.420  11.708   6.846  0.2070 -0.1122 -0.0653
25478W        W68494  27.948  24.112   3.499 -0.0860  0.0758 -0.0369
25479W        W68495  12.103  16.573  15.193 -0.1771 -0.0224  0.2270
25480W        W68496   8.460  12.692   8.017  0.3939  0.2929 -0.0041
25481W        W68497  22.199  27.749  14.959 -0.0797 -0.1093 -0.0531
25482W        W68498  29.340  20.382  22.975 -0.1953  0.1709  0.0153
25483W        W68499   7.488   2.567  25.343 -0.3505 -0.0150 -0.2913
25484W        W68500  15.765  18.395  25.542 -0.1015 -0.2510 -0.1908
25485W        W68501  31.998  32.751  27.169  0.2747 -0.0329 -0.2186
25486W        W68502   6.202  30.273   4.868 -0.3171  0.3717  0.0323
25487W        W68503  27.941   4.660  29.147 -0.3348 -0.2194 -0.0802
25488W        W68504  33.814  22.200   5.089  0.1162 -0.0049 -0.0715
25489W        W68505   3.212  30.451  24.126  0.2156  0.3583 -0.0070
25490W        W68506  28.365  28.134  18.696 -0.0516 -0.1368  0.4044
25491W        W68507  28.469  10.710  23.605 -0.2127  0.1177  0.3675
25492W        W68508  14.268   0.023  19.751 -0.1053 -0.2661  0.0454
25493W        W68509  24.779  26.581  22.189  0.3726  0.0324 -0.1429
25494W        W68510   5.345  20.597   0.311 -0.1255 -0.0845  0.1942
25495W        W68511  12.112  20.495  18.406 -0.1588 -0.0736 -0.0327
25496W        W68512  28.378  16.617  25.710 -0.0058 -0.0107  0.1431
25497W        W68513  26.603  21.705  26.245 -0.0580 -0.1467 -0.0106
25498W        W68514  33.612  21.204   1.060 -0.1188 -0.1347  0.1151
25499W        W68515   4.947  20.556  26.085  0.0995 -0.3053  0.0011
25500W        W68516   9.893  16.544  21.812  0.0809  0.0067  0.1798
25501W        W68517  25.682  10.679   4.732  0.0716  0.0737 -0.4077
25502W        W68518  28.296  22.892   2.887  0.1541  0.0764  0.3814
25503W        W68519  28.453   9.114  21.102  0.0823  0.0109 -0.0049
25504W        W68520  31.579  10.674  21.141 -0.3764 -0.0185  0.0659
25505W        W68521  16.579   5.919  15.833  0.0301  0.1015  0.1921
25506W        W68522  29.151  31.821  18.009 -0.3003 -0.0351  0.1919
25507W        W68523  28.392  22.162  21.879  0.1472  0.2654  0.1612
25508W        W68524   1.662  29.213  21.037  0.1082  0.3091 -0.0479
25509W        W68525  29.676  23.518  24.926 -0.2391  0.4501 -0.1743
25510W        W68526   7.301  29.428  14.371  0.0396  0.1382  0.1844
25511W        W68527  16.084  30.906   7.412  0.3400 -0.0715  0.2327
25512W        W68528  25.426  14.774  15.272  0.0407  0.1564  0.0386
25513W        W68529  31.393  20.865   3.858  0.2655  0.0144 -0.0255
25514W        W68530  22.363  17.633  21.762 -0.3557  0.1104  0.2374
25515W        W68531   2.460  25.864  15.930  0.0705  0.0262 -0.1474
25516W        W68532  18.173  25.036  27.984  0.1069  0.3102 -0.0234
25517W        W68533   0.731   5.450  21.859 -0.0268 -0.2387 -0.3084
25518W        W68534   1.642  28.913  18.279  0.1388 -0.0729  0.1949
25519W        W68535   9.962  21.629  25.263  0.0358 -0.2887 -0.1754
25520W        W68536  28.711  14.618  16.803 -0.3092 -0.1680 -0.1497
25521W        W68537  28.972  10.750  20.728 -0.0239  0.1229  0.0259
25522W        W68538  10.709  25.721  16.767  0.0112 -0.0965 -0.1141
25523W        W68539  11.752   3.896  27.740  0.0421 -0.1274 -0.0604
25524W        W68540  16.083  34.328   3.360  0.2392  0.0692  0.2322
25525W        W68541   1.209  29.256  28.796 -0.2318  0.0588  0.0979
25526W        W68542  17.806  21.601  28.728 -0.2146  0.0042 -0.1351
25527W        W68543  18.160  18.913  27.719 -0.2359 -0.2464  0.3260
25528W        W68544  19.976  33.005   1.580 -0.0774 -0.0954 -0.0171
25529W        W68545  18.003   9.418  15.171  0.0836  0.5267  0.0161
25530W        W68546  26.618  22.708   1.625 -0.1574  0.0684  0.1554
25531W        W68547  23.699  16.851   3.280  0.3639 -0.2928 -0.0665
25532W        W68548  24.682  27.742   3.584 -0.2115  0.1716  0.2703
25533W        W68549  26.493   5.599  16.200 -0.1113  0.0603 -0.0171
25534W        W68550  15.877  25.711   0.050 -0.0313 -0.0895  0.1385
25535W        W68551  29.716  20.542   8.167 -0.0703  0.2064  0.3800
25536W        W68552  30.184  12.979   2.975  0.1173 -0.1495 -0.1018
25537W        W68553  31.088   6.368  21.627  0.2000 -0.3895 -0.2601
25538W        W68554  28.742  33.495  22.121  0.2184 -0.1029 -0.2261
25539W        W68555  30.236  18.141  20.740  0.0367  0.0087  0.0977
25540W        W68556   3.739  19.728  29.269  0.1030  0.0979  0.1635
25541W        W68557   0.778  21.056   9.331  0.0382 -0.1270  0.2684
25542W        W68558  29.764  23.677  21.930  0.1687 -0.1256 -0.0355
25543W        W68559  31.964  26.963   3.082  0.3092 -0.0274 -0.0453
25544W        W68560   2.409   8.704  18.889 -0.0825 -0.0877 -0.1148
25545W        W68561  25.153  28.192  25.188  0.3675 -0.1566 -0.0624
25546W        W68562  13.613   3.810   6.202 -0.0127 -0.0285 -0.0261
25547W        W68563  22.172  30.670   2.529 -0.3296  0.2487 -0.0299
25548W        W68564  14.938  32.978  20.338  0.0843  0.1025 -0.1250
25549W        W68565  10.481  19.918  20.348  0.3025  0.3103 -0.0801
25550W        W68566  28.929  20.718  27.883  0.0369  0.1083 -0.0438
25551W        W68567  28.894  34.083  22.891 -0.0373 -0.0310  0.2818
25552W        W68568  24.842   2.189   3.207  0.5451  0.4771  0.1587
25553W        W68569  10.305  26.438  28.281 -0.2266 -0.0083 -0.1702
25554W        W68570  23.690   1.020  11.107 -0.0651  0.0108 -0.0957
25555W        W68571   5.116  33.292  20.340  0.1375 -0.1945  0.4997
25556W        W68572  34.581  21.946  23.149 -0.2609 -0.1172 -0.5162
25557W        W68573  32.975  32.346  19.043  0.0945  0.0342  0.0226
25558W        W68574  21.010   5.136  27.656 -0.3197 -0.1904 -0.0008
25559W        W68575  33.549  29.216  27.373 -0.3382 -0.0055  0.1545
25560W        W68576  10.684  16.518  28.825  0.1212  0.2621  0.1092
25561W        W68577  32.814  14.012  26.345 -0.2068  0.0812  0.2630
25562W        W68578   1.672  30.328   2.242 -0.0646  0.0242 -0.1843
25563W        W68579   0.828  20.563   1.334  0.1564 -0.1105 -0.2003
25564W        W68580  22.689  24.425   2.275 -0.0918  0.2320  0.0537
25565W        W68581  11.452  21.432  17.427  0.0688 -0.3089 -0.2337
25566W        W68582  24.490  30.201   1.575 -0.1484  0.0668 -0.0740
25567W        W68583   0.314  28.831  21.942  0.1835  0.4150 -0.1906
25568W        W68584  12.410  34.426   0.015 -0.5101  0.2653  0.0265
25569W        W68585  10.898  32.638   4.804  0.5024  0.0445 -0.3621
25570W        W68586  28.548  25.163  27.329 -0.1051 -0.0506  0.2288
25571W        W68587  24.444  21.492  21.178 -0.1241  0.1486 -0.0548
25572W        W68588  16.922  13.813  23.219 -0.0378 -0.1247  0.2104
25573W        W68589  28.800  31.370   0.992  0.1073  0.1492 -0.2926
25574W        W68590   2.017  32.776   6.694  0.0093 -0.2702 -0.0507
25575W        W68591  16.121   2.919   3.029 -0.1999  0.0897 -0.3700
25576W        W68592  22.192  20.194  21.060 -0.1372  0.2054 -0.0923
25577W        W68593  29.243   1.995  21.699 -0.0005 -0.1883  0.0328
25578W        W68594  24.993   6.468  10.672 -0.2708  0.1488  0.3060
25579W        W68595  33.788  27.872   0.204  0.3121 -0.0393 -0.1372
25580W        W68596  16.319  14.790  20.648 -0.0015 -0.0389  0.3140
25581W        W68597  30.250   7.190  22.389  0.2671 -0.0603 -0.1839
25582W        W68598   5.250  28.368   8.123 -0.2193 -0.1912 -0.2544
25583W        W68599  31.093  16.471  18.577 -0.0004  0.1841 -0.0752
25584W        W68600  13.460  28.767  27.473 -0.0239  0.2524 -0.5355
25585W        W68601  30.587  32.034  18.895  0.2136 -0.0569  0.0182
25586W        W68602   8.764  25.727   0.561 -0.1613 -0.0979  0.2003
25587W        W68603   6.552  31.654  21.575  0.0827 -0.0083  0.2190
25588W        W68604  33.813  28.919  16.199 -0.1388 -0.2697  0.0826
25589W        W68605   4.023  10.917   3.073  0.1786  0.0183 -0.4212
25590W        W68606  17.325  22.478  19.903  0.1569 -0.1930 -0.0657
25591W        W68607  24.286  27.606  25.033 -0.1540 -0.1149  0.0176
25592W        W68608  17.388   9.573  13.194 -0.1481  0.1493  0.0834
25593W        W68609  24.429   9.077   2.786 -0.2424 -0.1497  0.0800
25594W        W68610   3.221   0.220   8.612  0.2698 -0.0438 -0.2897
25595W        W68611  24.314  25.895  23.974  0.0845 -0.0510  0.2360
25596W        W68612  28.281  17.817  22.933 -0.0368  0.2953  0.0041
25597W        W68613  25.482  20.682  18.923 -0.4308 -0.3301  0.2074
25598W        W68614  30.933  14.321   8.721 -0.0820  0.0030  0.0309
25599W        W68615  18.878  27.934  14.985 -0.1019 -0.1317  0.0048
25600W        W68616  22.016  24.076  26.622 -0.0054 -0.0150 -0.1438
25601W        W68617  18.446  24.259  28.231 -0.0090 -0.0674  0.2476
25602W        W68618  33.471  27.767  25.735 -0.2749  0.4699  0.1866
25603W        W68619  34.734  23.758   8.949 -0.6542  0.0066 -0.2118
25604W        W68620  22.195  20.810  13.836 -0.0532 -0.1784  0.1109
25605W        W68621   9.903  18.881   8.624  0.0268 -0.2315 -0.4138
25606W        W68622  33.456   8.151   3.050  0.0274  0.2338 -0.0512
25607W        W68623   7.553  27.489  24.496  0.2096 -0.0780  0.1987
25608W        W68624  21.204  20.781  26.559 -0.2539  0.0022 -0.1753
25609W        W68625   8.733  23.378  22.669 -0.2039  0.1735  0.1351
25610W        W68626   8.153  19.840   5.972 -0.1502  0.0877 -0.0204
25611W        W68627  23.333  30.078  27.932  0.0634 -0.2961  0.0797
25612W        W68628  24.764  29.668  22.057  0.0715  0.2687  0.3849
25613W        W68629  30.743  20.264  17.384  0.1159 -0.1680  0.0340
25614W        W68630  12.560  18.891  21.388  0.1170  0.0051 -0.2038
25615W        W68631  11.333  21.241  22.767  0.2036 -0.4137  0.0637
25616W        W68632  25.987  32.269  17.761  0.2014 -0.3736 -0.1041
25617W        W68633   9.329  32.167   8.295  0.1216  0.2247 -0.1806
25618W        W68634  29.742  20.233  26.395 -0.1143  0.0246  0.1372
25619W        W68635  15.309  23.262  25.629  0.0892 -0.0050 -0.1154
25620W        W68636  27.732  19.839  25.305  0.0607 -0.3368  0.2551
25621W        W68637  28.248  19.366   0.019  0.0050  0.0108 -0.0011
25622W        W68638  11.540  23.624   1.876 -0.1977  0.2581  0.0723
25623W        W68639  18.685  31.301   9.171 -0.2725 -0.0755 -0.1389
25624W        W68640   0.609  22.124   2.216  0.1416 -0.1882  0.0059
25625W        W68641  25.356  16.600  20.102  0.1136  0.1397 -0.1688
25626W        W68642  31.154  15.027  21.390 -0.4027 -0.1917  0.1144
25627W        W68643  29.272  24.016  27.776 -0.0396  0.0019 -0.0021
25628W        W68644  32.737  11.674   2.979 -0.1302  0.0117  0.0302
25629W        W68645  32.670  25.304   9.109 -0.1370 -0.1075 -0.1818
25630W        W68646   2.923  31.864   1.880  0.1664 -0.1970 -0.1492
25631W        W68647  12.832  34.746   5.462 -0.3304 -0.1187  0.1635
25632W        W68648  18.205  28.676   3.390 -0.1051  0.0520 -0.2842
25633W        W68649  24.470  21.400   7.286  0.0282 -0.2586 -0.1884
25634W        W68650  30.139   1.222  16.137 -0.0728  0.0294  0.0528
25635W        W68651  28.214  33.293   8.756  0.0767  0.1307  0.0932
25636W        W68652   6.612  28.905   3.799 -0.0841 -0.0423 -0.0843
25637W        W68653  23.559  17.738  28.693  0.0506  0.3921  0.1853
25638W        W68654   3.037  24.675  23.709  0.1526  0.0250  0.0213
25639W        W68655  24.211  17.168  17.356  0.2873 -0.0318  0.0112
25640W        W68656  20.250  15.496  27.384 -0.1519 -0.3767 -0.0774
25641W        W68657  14.392  25.316  26.223 -0.0224 -0.1695  0.1217
25642W        W68658  27.752  19.273  23.294  0.0616  0.0697 -0.2687
25643W        W68659  23.789  19.777   7.141 -0.3907  0.1150  0.0086
25644W        W68660  17.980   0.814  17.013  0.1957  0.0893  0.0174
25645W        W68661  28.377   0.362  18.510  0.1896  0.0894 -0.0590
25646W        W68662  14.097   2.700  25.811  0.0076  0.0640 -0.3280
25647W        W68663   4.067  18.771   5.132 -0.3374  0.3520 -0.4545
25648W        W68664  29.541  10.229  28.761 -0.0255  0.0494 -0.4511
25649W        W68665  20.200  13.700  28.829  0.0665  0.2103  0.1683
25650W        W68666  20.640  34.183  10.419  0.1258  0.0986 -0.0783
25651W        W68667  17.680   9.093  26.406  0.0587  0.0429  0.2261
25652W        W68668   6.322  18.861  27.894  0.3025 -0.0432 -0.4451
25653W        W68669  24.942  24.388  25.176  0.1463  0.0305 -0.1094
25654W        W68670  31.409  24.453  15.761 -0.4700  0.2984  0.0733
25655W        W68671  19.052  26.691  22.796 -0.2292 -0.0478  0.3607
25656W        W68672  25.595  19.334  17.125 -0.2434  0.2544 -0.0210
25657W        W68673  34.526  26.186   0.308  0.1492  0.3096 -0.1623
25658W        W68674  34.712   1.063  19.117 -0.1576  0.4041 -0.3783
25659W        W68675  25.816  20.205  18.347  0.1766  0.0639  0.0381
25660W        W68676  28.536  12.386   0.864  0.0464  0.0862  0.0158
25661W        W68677  17.967  23.450   6.178  0.3202 -0.0962 -0.2323
25662W        W68678  34.228   1.717  22.233 -0.1624  0.2277  0.1527
25663W        W68679  27.338  30.479   0.966  0.3081  0.2955  0.1294
25664W        W68680   2.618  23.271  14.862  0.4347 -0.1218 -0.1773
25665W        W68681   9.420  20.401  27.262 -0.2047  0.3444 -0.0920
25666W        W68682   6.154  19.071  19.286 -0.0403  0.0562  0.2307
25667W        W68683   4.738  19.749  10.019  0.1636 -0.0606  0.0500
25668W        W68684   1.409  21.032  27.427 -0.0512 -0.1821  0.2409
25669W        W68685  28.639  21.225  25.237 -0.0698  0.1100  0.1120
25670W        W68686  34.589  14.942  15.084 -0.1465 -0.0782 -0.2731
25671W        W68687  12.033  33.207   5.446  0.0690 -0.0359 -0.1039
25672W        W68688   9.983   6.348   8.328 -0.1378  0.0948  0.0734
25673W        W68689  19.345  27.703   7.869 -0.1169 -0.0865  0.2432
25674W        W68690  16.224   4.697  20.159 -0.3653 -0.4804 -0.1883
25675W        W68691   4.388  18.167   4.301  0.1581 -0.1559  0.0337
25676W        W68692  24.225  23.093  27.982 -0.0748 -0.3269 -0.1212
25677W        W68693  27.793  25.664   8.310 -0.0342  0.2480  0.0187
25678W        W68694  23.587  11.170  20.484  0.1916  0.3106  0.0645
25679W        W68695  26.169  17.776  21.708 -0.0524  0.0808  0.0567
25680W        W68696   9.155  16.531  16.646  0.0337  0.1934 -0.1619
25681W        W68697  34.565  18.827  22.968  0.0711  0.0363 -0.0003
25682W        W68698  14.060  27.893  25.283 -0.2134  0.1100  0.2262
25683W        W68699  29.630  27.691   6.586 -0.2174 -0.0154 -0.4888
25684W        W68700   0.000  31.069   0.666 -0.2620 -0.1376  0.0331
25685W        W68701  10.919  18.446  15.401  0.0347 -0.0131  0.1666
25686W        W68702  21.552  19.973  24.023 -0.0851 -0.1488  0.0925
25687W        W68703  25.766  28.929   3.421 -0.1174  0.1562  0.1924
25688W        W68704  10.796  28.158   0.407  0.1160  0.1088  0.1854
25689W        W68705  34.757  32.907  23.098 -0.2297  0.0203 -0.0804
25690W        W68706  28.916  28.833  28.713 -0.1998  0.0383 -0.2387
25691W        W68707  18.855  10.492  27.218 -0.0755  0.1757  0.2249
25692W        W68708  27.995  31.442  10.096 -0.1647  0.2267 -0.2744
25693W        W68709  13.717  27.490  17.787  0.3065  0.1565 -0.3288
25694W        W68710  21.407  14.292  20.755 -0.0188  0.4241 -0.3859
25695W        W68711  33.430  26.239  27.889  0.0063 -0.0854  0.1060
25696W        W68712  30.733  16.373   5.568  0.4741 -0.0738 -0.2647
25697W        W68713   9.858  25.497  19.316  0.0134  0.2257 -0.1095
25698W        W68714   2.886  21.498  23.574  0.2195  0.0570 -0.1851
25699W        W68715  24.224  12.223  25.529  0.0008 -0.0502  0.1730
25700W        W68716  17.825  24.240  17.691  0.2740 -0.0137  0.2847
25701W        W68717  33.133  27.649   5.143 -0.1871 -0.2026 -0.1020
25702W        W68718  28.893  29.454  22.531  0.2214 -0.1736 -0.1367
25703W        W68719   5.195   0.088  21.577  0.1929 -0.1155  0.3355
25704W        W68720  17.613  17.507   7.353  0.0803  0.0718  0.3566
25705W        W68721  25.321  15.667  18.339  0.1434  0.2543  0.1592
25706W        W68722  32.086  16.621   2.979  0.0210  0.1522 -0.1193
25707W        W68723  34.779  21.607   9.761 -0.0492  0.2741  0.0176
25708W        W68724  19.194  18.868   4.545  0.0941  0.0909  0.2114
25709W        W68725  25.070  25.737   3.191  0.0163 -0.0595  0.1290
25710W        W68726  17.637   1.330   0.382  0.1733 -0.1590 -0.1287
25711W        W68727  24.540   8.447  15.966 -0.1354 -0.0546  0.0096
25712W        W68728  32.882  10.875  28.398  0.1229 -0.1535  0.4567
25713W        W68729   4.071  11.475  28.235  0.2164 -0.3679  0.0604
25714W        W68730  32.933  19.935   2.284  0.4078  0.0875  0.0447
25715W        W68731  28.860  20.332  26.107 -0.0624 -0.2596 -0.0090
25716W        W68732  19.135  28.741   9.937  0.1359  0.0650 -0.0826
25717W        W68733   9.222   0.182  10.232  0.0569 -0.0452  0.0968
25718W        W68734   3.899  28.194  27.462  0.1583  0.0877  0.1356
25719W        W68735  33.097  25.793  27.150 -0.0670 -0.1671  0.0965
25720W        W68736  11.325  17.299   7.083 -0.0792 -0.1027  0.0120
25721W        W68737  22.375  18.236  25.488  0.1968 -0.0539 -0.1317
25722W        W68738   4.646   4.637  16.242  0.0669 -0.1367 -0.1453
25723W        W68739  29.429   0.043   5.829 -0.3367 -0.0631  0.1412
25724W        W68740  27.169  23.930   7.068  0.2606 -0.0080  0.0042
25725W        W68741   4.850  29.066  17.702  0.1713  0.0193  0.2248
25726W        W68742  16.614  29.719   3.152  0.0716 -0.0949  0.1143
25727W        W68743  24.848  30.375  28.110 -0.0385 -0.2046  0.0040
25728W        W68744  20.898  21.226  22.333 -0.1283 -0.0084 -0.2180
25729W        W68745  16.689   0.259   3.259 -0.0409 -0.0175 -0.2899
25730W        W68746  14.816   2.107  28.388 -0.3198 -0.4922 -0.0311
25731W        W68747   3.243   2.617  24.029  0.0448  0.3937  0.1078
25732W        W68748  15.042  19.222  14.861 -0.0042 -0.1592  0.0734
25733W        W68749  26.306  34.657   4.112  0.0437  0.2777  0.1748
25734W        W68750  26.228  28.627  15.605 -0.0292 -0.1509  0.0400
25735W        W68751  13.031  24.296  25.012  0.0884  0.2505 -0.1173
25736W        W68752  25.006  23.802   6.384 -0.1740  0.0813  0.2639
25737W        W68753   8.610  32.181  14.798 -0.0279 -0.1197  0.1994
25738W        W68754  23.490  30.714   3.106 -0.1163 -0.1887 -0.1731
25739W        W68755   7.382   4.214  29.044  0.1384  0.3507 -0.3470
25740W        W68756  22.152  20.990   9.932 -0.0643  0.0713 -0.3093
25741W        W68757   5.714  14.922   6.079  0.1730 -0.0405  0.2058
25742W        W68758  13.804   8.399   9.794  0.2843  0.0004 -0.3581
25743W        W68759   9.819  34.462   5.492  0.3407 -0.0621 -0.1926
25744W        W68760  26.083   3.985   6.357  0.1479 -0.4428 -0.0219
25745W        W68761   0.222  12.972  21.093  0.2448 -0.2908  0.3872
25746W        W68762   0.514  25.737  28.411 -0.0757 -0.1630 -0.0665
25747W        W68763  34.252  26.855   1.763 -0.0778  0.0981 -0.0062
25748W        W68764  34.598  17.294   3.857 -0.3681 -0.2057  0.2205
25749W        W68765   4.305  19.924  16.211  0.0283  0.3146  0.2716
25750W        W68766  28.132  25.882  24.587 -0.0320 -0.2938  0.1730
25751W        W68767  34.072  25.816   7.910 -0.0795 -0.1131 -0.3867
25752W        W68768   4.865  18.701  27.706 -0.1586 -0.2160  0.0515
25753W        W68769   2.490  24.118  25.474 -0.0429  0.0834  0.1199
25754W        W68770  22.358  15.355   9.662 -0.0693 -0.2338 -0.0106
25755W        W68771  32.099  31.287  26.546 -0.2828 -0.1046  0.0903
25756W        W68772   3.818   0.412   2.627  0.3477 -0.1676  0.2219
25757W        W68773   0.392  31.290  19.059  0.0438 -0.0651 -0.0756
25758W        W68774   4.837   3.790  22.666 -0.0209  0.0648 -0.1408
25759W        W68775   4.158  18.537  20.177 -0.0133 -0.1980 -0.1799
25760W        W68776  29.524  34.248   4.248  0.3075 -0.0358  0.1318
25761W        W68777  33.840  13.725   8.687  0.1309 -0.1747  0.1646
25762W        W68778   2.902  29.894   4.353 -0.0212 -0.0944 -0.3431
25763W        W68779  32.115  10.815   6.301  0.1060  0.0710  0.0858
25764W        W68780  24.913   3.881  25.008 -0.0553  0.1596 -0.0634
25765W        W68781   5.301  20.812  15.486 -0.0018  0.0786  0.1935
25766W        W68782  34.576  18.519   1.943  0.0358 -0.0497 -0.0809
25767W        W68783  21.441  19.130  24.056 -0.2985  0.0934  0.3396
25768W        W68784  22.006  32.733  10.484  0.2182 -0.0327 -0.2145
25769W        W68785   6.343  32.914  15.364 -0.1663  0.0207 -0.2211
25770W        W68786  11.842  16.042  12.305  0.0991  0.2063  0.0237
25771W        W68787  27.326  19.600   5.440  0.2479 -0.1592 -0.0434
25772W        W68788  31.415  23.602  28.122  0.2798 -0.3329 -0.0570
25773W        W68789  14.671  18.329   1.732  0.0653  0.1023 -0.0369
25774W        W68790   4.198  20.549   2.312 -0.1071 -0.1855  0.3694
25775W        W68791  32.160  12.066  14.948  0.2810 -0.1804  0.0430
25776W        W68792   6.768  11.177   6.266  0.1724  0.4037  0.3220
25777W        W68793  22.900  29.123  18.144 -0.3336 -0.1632  0.0933
25778W        W68794  14.456  10.899  19.642 -0.1497  0.1193  0.4474
25779W        W68795  23.637   5.925  24.780  0.1458 -0.0624 -0.2433
25780W        W68796  32.825  32.650  20.310 -0.1877  0.2691  0.0826
25781W        W68797  31.847  26.495   2.526  0.2935 -0.0566 -0.2451
25782W        W68798  24.299  14.709  16.606 -0.1183  0.3303 -0.3204
25783W        W68799  33.400  18.744  15.114  0.4415  0.0648 -0.0565
25784W        W68800  34.438  12.522   1.392  0.0655 -0.3887  0.0979
25785W        W68801  26.135  26.708  22.110  0.1624 -0.0800  0.1428
25786W        W68802  23.450  29.719  21.790 -0.0043 -0.1376  0.1569
25787W        W68803  11.908  26.075   1.026  0.0111  0.3016  0.1651
25788W        W68804  26.537  32.449   5.438 -0.1711 -0.2582  0.0182
25789W        W68805  21.856  26.876  18.501 -0.0201 -0.2372 -0.0841
25790W        W68806  32.929   1.022   3.447  0.1966  0.0038 -0.1830
25791W        W68807  32.392  17.086  15.540  0.0346 -0.0655  0.1089
25792W        W68808  18.094  24.729   4.224  0.0458  0.0938  0.0376
25793W        W68809  14.091  25.233  19.455  0.2560  0.1999 -0.1778
25794W        W68810  27.572  24.862   5.282 -0.0750 -0.0945 -0.1285
25795W        W68811  27.915  30.370   5.026 -0.0220  0.2293 -0.0445
25796W        W68812  30.907  29.679   2.606 -0.0170  0.1152  0.3119
25797W        W68813  20.808  29.392  24.982  0.0959  0.0983 -0.2143
25798W        W68814  17.527  23.878  20.300  0.1443 -0.0862  0.1060
25799W        W68815  18.919   1.412   3.012  0.0905  0.0323  0.3927
25800W        W68816  27.583  22.825   3.984  0.0578 -0.0520 -0.1063
25801W        W68817  21.969  27.556  27.814 -0.3091 -0.1947  0.1156
25802W        W68818  22.091  23.360  19.884 -0.2407 -0.1013 -0.1736
25803W        W68819  20.054  19.860  22.800 -0.0337  0.0285 -0.0537
25804W        W68820  24.718  21.866   0.598  0.0089 -0.0278 -0.2368
25805W        W68821  24.035  31.315  22.834 -0.1717  0.0983 -0.1872
25806W        W68822  11.221  14.780  22.100  0.1934 -0.1143  0.1387
25807W        W68823  26.540  28.410   1.121 -0.1857 -0.1167  0.2881
25808W        W68824   7.035  24.915   0.906  0.0170 -0.1449 -0.1952
25809W        W68825   9.801  16.223  20.701  0.0819  0.1701 -0.0384
25810W        W68826   8.401  13.830  17.703  0.1320  0.0420  0.3081
25811W        W68827  29.316  15.905   4.751 -0.1219  0.0126 -0.2446
25812W        W68828  29.942   8.202   7.606 -0.0048 -0.1190 -0.0228
25813W        W68829  24.766  27.850   2.045 -0.0803 -0.0325 -0.2183
25814W        W68830  25.253  32.737  28.686  0.1311  0.0165 -0.0382
25815W        W68831  21.409  31.643   7.292  0.0660 -0.1204  0.2438
25816W        W68832   8.893  22.740  26.585 -0.1348  0.3938  0.0704
25817W        W68833  27.862  25.347   6.382 -0.2341  0.0073 -0.0742
25818W        W68834   0.375   4.725  26.047  0.2861  0.1665  0.2372
25819W        W68835  25.468  25.276  20.837  0.1891 -0.2758  0.1045
25820W        W68836  25.995  20.576   6.017 -0.0560  0.1873 -0.2210
25821W        W68837  23.406  16.953  23.690  0.1935 -0.0493  0.0635
25822W        W68838  32.525  20.305  23.171 -0.2100 -0.2596 -0.3288
25823W        W68839  30.490  28.641   2.340  0.2109 -0.1968  0.1092
25824W        W68840  22.384  16.969  14.593  0.1001 -0.0739 -0.2550
25825W        W68841  19.225   3.869  21.982  0.0370  0.0717  0.2725
25826W        W68842  26.625  32.149  10.365  0.0751  0.0200  0.2630
25827W        W68843  32.246  21.580  25.471 -0.3147 -0.3519  0.1400
25828W        W68844  21.377  19.313  27.415 -0.1554  0.0470 -0.1737
25829W        W68845  34.156   5.030   2.583  0.0107  0.2556  0.2732
25830W        W68846  34.689  11.068   9.735  0.2408  0.0171 -0.0157
25831W        W68847  19.057   7.488  22.093 -0.1829 -0.3154 -0.0848
25832W        W68848  20.159  22.904  24.566  0.0295  0.0634 -0.1789
25833W        W68849  34.258  18.733   8.241 -0.1434  0.0374 -0.0877
25834W        W68850  17.300  19.500   2.266  0.1284  0.0885  0.4612
25835W        W68851   4.716  18.448  28.944  0.2755 -0.0820  0.1188
25836W        W68852  30.186  31.909   2.608 -0.2659 -0.0192  0.1601
25837W        W68853  17.402  15.092   1.739 -0.0310  0.1108 -0.1821
25838W        W68854   3.050  19.882  25.093  0.0470 -0.2605 -0.1926
25839W        W68855  29.828   1.938  24.972  0.1906  0.1445  0.1132
25840W        W68856  21.276  15.719   8.867  0.0067 -0.2019 -0.2553
25841W        W68857  32.828  20.610  28.128  0.2396  0.0271 -0.2101
25842W        W68858  29.312  30.036   3.106  0.1082  0.1033  0.0754
25843W        W68859  23.937  31.304  23.919  0.0660 -0.0697 -0.0592
25844W        W68860  27.971  30.989  19.350 -0.3171  0.1273 -0.0865
25845W        W68861  11.839   1.672  17.401  0.1418  0.2563  0.2907
25846W        W68862   5.656  27.867  24.665  0.2744 -0.1591 -0.2316
25847W        W68863  18.673  25.161   6.005 -0.0237  0.1332  0.0745
25848W        W68864  22.305  27.610  29.120  0.0809 -0.2812 -0.0579
25849W        W68865  15.784  22.838  22.931 -0.1499  0.1222 -0.3738
25850W        W68866  34.325  28.399  17.092  0.3865 -0.1624 -0.0383
25851W        W68867   9.395  14.348   2.836 -0.1338  0.1491 -0.1642
25852W        W68868   7.828  27.482   3.357 -0.0099 -0.0214 -0.0843
25853W        W68869   1.476  18.355  23.367 -0.0159 -0.0613 -0.2283
25854W        W68870  19.109  25.676   1.320 -0.0997  0.2073 -0.3100
25855W        W68871  21.767  26.089  21.947  0.1057  0.1549  0.3243
25856W        W68872  32.004   2.767  24.927  0.2602 -0.1273  0.0656
25857W        W68873  33.926  14.197   2.643  0.1050  0.0518  0.0601
25858W        W68874   4.322   3.014  27.687 -0.1364 -0.1154 -0.2798
25859W        W68875  16.924  31.823  22.779 -0.0603 -0.0957  0.2811
25860W        W68876  31.784  29.405   8.090  0.0257 -0.0757 -0.0413
25861W        W68877   7.058  24.192   3.098 -0.1353  0.2311  0.2898
25862W        W68878  27.239  26.966   3.525 -0.0177 -0.2735  0.0519
25863W        W68879   1.253  26.688   0.619  0.3158 -0.1686 -0.0718
25864W        W68880  33.698  18.755   7.241 -0.4705  0.3706 -0.0126
25865W        W68881  33.054  10.823  26.975  0.0264 -0.2233 -0.0090
25866W        W68882  24.788  19.143   3.960  0.2352  0.1112  0.1593
25867W        W68883  18.622  23.125  29.168  0.0254  0.0131 -0.0462
25868W        W68884  29.420  28.531  23.449 -0.1992  0.0253  0.1685
25869W        W68885   2.263   0.315  16.080 -0.2270 -0.0219 -0.2351
25870W        W68886  21.525  32.549  21.622 -0.0454 -0.2490  0.1032
25871W        W68887  25.939  14.661  27.653 -0.1357  0.3918  0.0262
25872W        W68888   1.172   7.145  28.144 -0.0521  0.0467 -0.2834
25873W        W68889  13.800  18.173  12.354  0.1047 -0.1178 -0.4384
25874W        W68890   2.795  25.137  18.569  0.0815  0.0862  0.0133
25875W        W68891   7.122  23.291  25.213 -0.1200 -0.2163 -0.3658
25876W        W68892   4.585  20.808   4.489 -0.0757 -0.0217 -0.1861
25877W        W68893  28.873  26.012   7.661  0.2955  0.0882  0.2533
25878W        W68894   0.491  26.173  29.299  0.0816 -0.0129 -0.1834
25879W        W68895  21.986  11.125   9.042  0.0122  0.1221  0.0223
25880W        W68896  19.558  23.470   0.974 -0.0175  0.0385 -0.1105
25881W        W68897  12.416  20.673  13.348  0.0038 -0.0905  0.0693
25882W        W68898  23.977  22.084  10.091  0.3906 -0.1179 -0.2091
25883W        W68899  17.574  11.331  25.133 -0.0450 -0.2616 -0.1402
25884W        W68900  27.132  26.739   1.350 -0.2564 -0.2715  0.0877
25885W        W68901  21.805  17.984   6.795 -0.0556 -0.2410  0.0039
25886W        W68902  34.566  17.301   9.487  0.1873 -0.3617 -0.2005
25887W        W68903  32.071  14.614   5.278 -0.1413 -0.5968 -0.1230
25888W        W68904  13.207  21.185  20.349 -0.0529 -0.0331  0.2626
25889W        W68905  23.057  22.480   4.372  0.1114  0.0460  0.0747
25890W        W68906  33.231  27.773   1.241 -0.2035  0.1043 -0.0108
25891W        W68907   3.452  25.669  26.408 -0.0011  0.2495 -0.1043
25892W        W68908  25.203  29.449  23.760 -0.1594 -0.1381 -0.1140
25893W        W68909  24.528  16.814  21.461  0.0086 -0.2906 -0.0865
25894W        W68910  27.469  22.932   9.181  0.1848  0.1791 -0.1386
25895W        W68911  25.488   5.782   0.216  0.0217 -0.1879  0.0317
25896W        W68912  20.075  29.866  29.125 -0.0571 -0.1359  0.2208
25897W        W68913  33.105   4.425   6.160 -0.3335 -0.1476 -0.0039
25898W        W68914  28.342  21.878   3.045 -0.1123 -0.0867 -0.1960
25899W        W68915  25.741  19.110  16.524 -0.0594  0.1233  0.1686
25900W        W68916  15.496  30.966  21.149  0.0049 -0.0512 -0.1274
25901W        W68917   2.812  23.393   4.482  0.0925  0.3675 -0.2596
25902W        W68918   3.549  34.693   3.823 -0.1437 -0.1567 -0.1912
25903W        W68919  32.317  32.384   1.204 -0.0887  0.0785  0.0441
25904W        W68920  33.188   6.895   9.768 -0.2530  0.0043 -0.0427
25905W        W68921   4.835   2.946   0.748 -0.3633 -0.1284 -0.0390
25906W        W68922  25.823  29.834   7.036 -0.0316  0.0802  0.1001
25907W        W68923  14.473  14.354  26.466 -0.1687 -0.0657 -0.0679
25908W        W68924  11.910  27.236  25.668 -0.3078 -0.1204  0.1506
25909W        W68925  23.244   0.265   4.021 -0.1270  0.0048 -0.0557
25910W        W68926  16.833  31.262  22.969 -0.1351  0.1417 -0.0018
25911W        W68927  26.073  15.184  17.470  0.3469 -0.1250  0.1962
25912W        W68928  24.900  25.974   8.847 -0.1409  0.1895  0.1186
25913W        W68929  19.803   4.233   5.494  0.2942 -0.2117  0.1199
25914W        W68930  24.055   2.753  19.976  0.0973 -0.1679  0.5505
25915W        W68931  19.861  24.052  27.952 -0.3935  0.0001  0.3590
25916W        W68932   3.029  19.244  23.016  0.0471  0.0344 -0.0464
25917W        W68933   0.472  27.803  25.722  0.0401 -0.1810  0.1741
25918W        W68934  21.636  32.617   6.498  0.1873  0.1491  0.0154
25919W        W68935  18.223   8.417   3.021 -0.0602 -0.4120  0.0206
25920W        W68936   4.841  17.408  13.888  0.1869 -0.3843 -0.0657
25921W        W68937  18.492  26.250  22.158  0.0438 -0.0933 -0.3465
25922W        W68938   6.610  29.404  19.606 -0.1292 -0.0637 -0.1261
25923W        W68939   0.097  23.743  15.386  0.2221  0.1493  0.1131
25924W        W68940  24.549  26.862   2.094 -0.1261 -0.1006  0.2165
25925W        W68941  10.271  25.847   0.357  0.2415 -0.1208 -0.1923
25926W        W68942   4.055  33.682  22.040 -0.5007 -0.0182  0.1469
25927W        W68943   3.466  27.420   7.866 -0.0932 -0.4166  0.1473
25928W        W68944  24.296  23.134  22.310 -0.2237  0.0636  0.0401
25929W        W68945  22.472  16.716   7.483 -0.2361 -0.1238  0.3034
25930W        W68946  28.113   1.336  28.039  0.1022  0.0136 -0.2465
25931W        W68947  28.603  22.327  20.987  0.0447  0.1631  0.0056
25932W        W68948  13.459  31.141   1.619 -0.0035 -0.4046 -0.2531
25933W        W68949  17.645  15.843  22.562  0.0720 -0.2381 -0.1881
25934W        W68950  19.772  22.641   9.310 -0.3135 -0.0245 -0.0817
25935W        W68951  22.772  27.017   8.615 -0.0320  0.4683  0.0586
25936W        W68952  17.273  31.731  24.832 -0.1719  0.1606  0.1880
25937W        W68953  18.437  18.639   0.484 -0.1810  0.1755  0.1782
25938W        W68954  20.759  28.698  19.853  0.1794  0.2722 -0.0920
25939W        W68955  18.361   1.395  29.031 -0.3748 -0.2075  0.2591
25940W        W68956  34.143  32.023   7.819 -0.2836  0.1385 -0.1477
25941W        W68957   2.191  11.102  27.152  0.1472 -0.1848 -0.1477
25942W        W68958  22.942  23.205  17.681  0.1701  0.5245  0.0808
25943W        W68959  15.472  13.966  25.628 -0.0156 -0.2449 -0.2151
25944W        W68960   1.079  13.909  25.288 -0.2249  0.0382 -0.1535
25945W        W68961  25.147  20.452  20.615 -0.0919  0.0614  0.0189
25946W        W68962  25.969  19.209   5.607  0.2084  0.0378  0.1518
25947W        W68963  25.196  31.721  10.561  0.0060  0.0191  0.1029
25948W        W68964   0.934   9.196  27.148 -0.0074 -0.0814  0.2887
25949W        W68965   5.153  16.627   8.513  0.1167 -0.0000 -0.0979
25950W        W68966  20.603  13.682  24.606  0.2003  0.0981 -0.1841
25951W        W68967   6.263  12.113   6.014  0.1645  0.2361  0.4875
25952W        W68968  21.510  22.869   7.019  0.1185 -0.0096  0.2177
25953W        W68969  12.691  17.014  14.632  0.0834  0.0578  0.1151
25954W        W68970  27.287  24.235  10.400 -0.0674 -0.2080  0.1586
25955W        W68971  21.377   5.299   3.104  0.3400 -0.2040  0.4084
25956W        W68972   8.564  30.544  13.701  0.0594  0.0062 -0.3839
25957W        W68973  10.513  12.121   5.144 -0.4092  0.0157 -0.1172
25958W        W68974  17.565   4.947   4.303  0.3590  0.1036  0.1983
25959W        W68975  33.119  16.810  14.756 -0.0023  0.1355 -0.1430
25960W        W68976  24.654  25.057   5.324  0.0814 -0.2719  0.1009
25961W        W68977  20.658  14.331  25.015  0.0619 -0.1471  0.0980
25962W        W68978  18.231  18.240   0.742 -0.2471  0.1760 -0.1399
25963W        W68979  26.439   4.872  19.517  0.1746  0.1323 -0.2913
25964W        W68980  23.099  31.198  23.116 -0.0141  0.2261  0.4063
25965W        W68981  26.050  14.090  26.265 -0.2021  0.0474 -0.2419
25966W        W68982  20.721  13.923   7.476  0.0250  0.0896  0.0527
25967W        W68983  33.394  19.332   5.100  0.0954  0.0213 -0.0003
25968W        W68984  25.131  30.454   7.677  0.1440  0.1092  0.0530
25969W        W68985  19.934   2.048  22.652  0.0270  0.0001  0.1726
25970W        W68986  30.603  23.372   8.792  0.2533  0.0757  0.1356
25971W        W68987  20.317  12.900  18.188 -0.1944 -0.0073  0.0648
25972W        W68988   0.763  18.288   7.625 -0.2633  0.0039  0.1555
25973W        W68989  19.862  14.670  27.738  0.2722 -0.2472 -0.0868
25974W        W68990  21.885  32.925  21.522 -0.1429 -0.0345  0.3671
25975W        W68991   3.871  12.513   9.116  0.1582  0.1645  0.0598
25976W        W68992  17.884  28.885  17.219  0.0761 -0.0651 -0.0897
25977W        W68993  17.353  22.921   8.865 -0.1403 -0.1210 -0.5192
25978W        W68994  32.278  12.840   7.081 -0.2808  0.2864  0.0978
25979W        W68995  24.406  22.162  25.854 -0.1906 -0.0145  0.0959
25980W        W68996  16.216  32.933  26.319  0.1403 -0.0565 -0.1261
25981W        W68997  23.090  26.920  23.279  0.5062  0.2948  0.1378
25982W        W68998  28.242   1.871  17.037  0.2841  0.0662  0.0843
25983W        W68999  11.997   2.444   6.048  0.0190 -0.0648  0.0054
25984W        W69000  30.819   2.963   0.713  0.1406 -0.0912  0.1897
25985W        W69001  21.630  26.585   4.581 -0.0504  0.1119  0.1074
25986W        W69002  30.100  20.667   7.658  0.2071  0.1376  0.1904
25987W        W69003   8.360  16.133   8.460 -0.1346 -0.2536  0.3481
25988W        W69004  28.317  22.023  25.717 -0.0092 -0.3884 -0.0214
25989W        W69005   7.273  17.012   5.192  0.2295 -0.0821  0.1207
25990W        W69006  24.826   7.377   9.189 -0.0432  0.3519 -0.0095
25991W        W69007  30.181  30.939   3.120 -0.2899 -0.2884 -0.1370
25992W        W69008  24.041  22.492   8.214  0.0770  0.0649 -0.3615
25993W        W69009  26.799  29.706  20.508 -0.1313  0.0128 -0.2514
25994W        W69010  33.582  26.563  21.760 -0.0873 -0.1950 -0.1119
25995W        W69011  27.917   6.344  16.044 -0.1713 -0.2509 -0.1273
25996W        W69012  20.656  23.247  16.587  0.1064 -0.1749  0.1898
25997W        W69013  34.117  30.045  24.939  0.0333 -0.3403 -0.0549
25998W        W69014  22.950  30.719  24.208  0.0391  0.2371 -0.0207
25999W        W69015  33.735  25.831   3.094 -0.0044 -0.0796 -0.0215
26000W        W69016  20.787  10.629  17.128 -0.0394  0.4410  0.2354
26001W        W69017  27.912   5.019  18.244 -0.0743 -0.1555 -0.0911
26002W        W69018   2.233  26.640  19.860 -0.0089  0.0386  0.0648
26003W        W69019   7.950  28.000  29.118 -0.3835 -0.1866  0.2957
26004W        W69020  28.259  31.108  16.543 -0.0043 -0.0144  0.2506
26005W        W69021  26.403  16.581  23.593  0.0691  0.1452 -0.0586
26006W        W69022   3.636  34.554  18.392 -0.1523  0.1617  0.1499
26007W        W69023  26.089  19.771  17.020  0.1621 -0.1811  0.0983
26008W        W69024  27.986  30.885   2.180  0.0851  0.1723 -0.1580
26009W        W69025  22.299  28.510  26.759  0.2776  0.5124  0.0475
26010W        W69026  20.341   3.111  15.393  0.1486 -0.0387 -0.1087
26011W        W69027   3.654  23.445  23.806 -0.3874 -0.0952 -0.1881
26012W        W69028  19.633  29.743  17.157  0.0596 -0.1794 -0.1006
26013W        W69029  33.355  25.159  14.904  0.1894 -0.1843 -0.0271
26014W        W69030  25.527  13.982  24.309 -0.0569 -0.0142 -0.0396
26015W        W69031  22.793  18.935  23.938 -0.3662  0.2454 -0.1143
26016W        W69032  31.981  17.553  22.905  0.2263  0.0780  0.1000
26017W        W69033  19.841  28.753   2.633  0.3942  0.2456  0.0185
26018W        W69034  31.309  18.061  27.774  0.1263 -0.1713  0.1041
26019W        W69035  32.574  13.437  24.548 -0.1266 -0.2001  0.0813
26020W        W69036  23.972  23.546   3.752  0.0696 -0.0697 -0.2076
26021W        W69037  26.721  24.538   1.384  0.1433 -0.1885 -0.2683
26022W        W69038  25.830  26.609  26.972  0.0188  0.0990 -0.1876
26023W        W69039  23.521  11.948  26.107  0.3889  0.0219 -0.3988
26024W        W69040   3.870  13.731  24.060  0.1969 -0.2824 -0.0668
26025W        W69041  32.624  14.165  23.593 -0.1778 -0.2339 -0.2400
26026W        W69042   3.136   0.021  19.225 -0.1883 -0.0623 -0.3462
26027W        W69043  32.284  21.692  23.142  0.2393  0.4755  0.1125
26028W        W69044  34.330  14.302  22.470 -0.3076  0.2310  0.1363
26029W        W69045  29.752  26.613  20.075 -0.4163 -0.0305 -0.0941
26030W        W69046  32.020  33.913  19.111  0.1113  0.0135  0.1849
26031W        W69047   6.226  27.181  22.023  0.0623 -0.0367  0.0029
26032W        W69048  28.716  32.831  16.411  0.1323  0.1122  0.0159
26033W        W69049  18.821   3.077   3.992 -0.1356 -0.0914 -0.2187
26034W        W69050  33.423   3.506  16.536  0.0336 -0.0251 -0.0585
26035W        W69051  18.363   5.301  17.207  0.0254 -0.0069 -0.1756
26036W        W69052  29.598  21.214  27.950  0.1042  0.1694  0.0417
26037W        W69053   3.364  28.828  25.032 -0.0914  0.0792 -0.1076
26038W        W69054  10.809  21.905  13.046  0.0311 -0.1053 -0.0248
26039W        W69055  15.466  32.495  25.635  0.0380 -0.1990  0.1614
26040W        W69056   0.454  31.937  19.313  0.1172 -0.1555 -0.2133
26041W        W69057  25.519   2.587  22.850  0.2610 -0.0642 -0.1494
26042W        W69058  33.533  26.800  15.647  0.3886 -0.1575  0.2904
26043W        W69059  19.002  30.728  27.529  0.1997  0.1988  0.3459
26044W        W69060   4.960  10.329  27.921 -0.2526 -0.1321  0.1888
26045W        W69061  34.106  31.197  21.736  0.2066 -0.2035  0.0209
26046W        W69062  21.222   0.456  16.389  0.0917  0.0171 -0.0865
26047W        W69063   3.414  34.178  20.441 -0.2845  0.2244  0.4348
26048W        W69064  19.214  24.668  28.204  0.1509  0.2852 -0.3745
26049W        W69065   3.413  33.407  13.947 -0.0717 -0.0378 -0.0679
26050W        W69066  17.377  17.163  15.240 -0.1931 -0.1638  0.3697
26051W        W69067  11.262  17.699  19.598 -0.0591  0.1362  0.2308
26052W        W69068  30.190   7.103  18.891  0.1509 -0.2223  0.2280
26053W        W69069   7.309  32.489   3.370  0.2545  0.1210 -0.1265
26054W        W69070  34.737  11.767  21.410  0.2336 -0.1601  0.1239
26055W        W69071  28.794  18.999  15.950 -0.0091  0.0302  0.2292
26056W        W69072  13.573  30.516  26.178  0.1149  0.2706  0.1140
26057W        W69073  28.024  31.628  10.644  0.1110 -0.4026 -0.1746
26058W        W69074  24.309  28.586  15.571  0.0266  0.1573  0.2401
26059W        W69075   0.186  33.673  20.891  0.0760 -0.0906 -0.0120
26060W        W69076  19.375  11.314  25.267 -0.0192  0.3022  0.1953
26061W        W69077  23.871  26.169   1.151  0.4570 -0.0696 -0.2318
26062W        W69078  19.401  12.373   1.690  0.1078  0.2466  0.1049
26063W        W69079   5.304   8.833  13.716  0.1759  0.0929 -0.0363
26064W        W69080  28.450  30.289  10.167  0.1513  0.1719  0.0433
26065W        W69081  28.818  27.385   7.601 -0.2420 -0.2337  0.2228
26066W        W69082  26.541  28.487   0.101  0.1340  0.0905  0.3599
26067W        W69083  16.404   0.923  18.884 -0.1433  0.1785  0.0584
26068W        W69084  30.890  16.381  15.669 -0.1377 -0.0394 -0.1372
26069W        W69085  28.737  29.260  26.997 -0.2979  0.0451 -0.2143
26070W        W69086  22.190  32.298  22.757 -0.2885 -0.1431  0.0442
26071W        W69087  13.752   0.206   4.526 -0.1623 -0.2577 -0.0968
26072W        W69088   3.035   5.816  16.949  0.4412  0.2441 -0.1083
26073W        W69089  25.430  25.282  15.371 -0.1124  0.0224 -0.1630
26074W        W69090  17.862  31.778   0.392  0.1932  0.2140  0.0374
26075W        W69091  10.942   6.132  16.264  0.0665  0.0165 -0.2134
26076W        W69092   5.918  17.086  28.238 -0.1838  0.1447 -0.3605
26077W        W69093  29.805  28.963  28.391  0.0717  0.0178 -0.3232
26078W        W69094  22.958  24.187  21.085  0.0224  0.1300 -0.1844
26079W        W69095  33.359   2.152  21.929  0.1458  0.1097  0.3415
26080W        W69096  30.645  23.865   4.530 -0.2214 -0.2942 -0.1026
26081W        W69097  29.912  17.878   3.588 -0.0154 -0.2308 -0.2034
26082W        W69098   5.962   0.851  14.869 -0.2250  0.1586 -0.0154
26083W        W69099   2.499  31.494  25.202  0.3758 -0.0209  0.1591
26084W        W69100  25.228   4.310  20.667  0.2206 -0.3651 -0.0332
26085W        W69101   0.932  23.707  18.455 -0.1872  0.1480 -0.0005
26086W        W69102  28.556  31.127  21.803  0.1033 -0.2582  0.0020
26087W        W69103  29.764  23.872   0.345 -0.3520  0.2984 -0.1460
26088W        W69104  18.686  13.130   0.497 -0.0709 -0.0545 -0.0868
26089W        W69105  27.246  22.586  23.109  0.1503 -0.1407 -0.2176
26090W        W69106  14.267  23.572  14.328 -0.1551  0.2675  0.1439
26091W        W69107  16.862   2.458  16.692 -0.2607 -0.3127 -0.2028
26092W        W69108   0.635  31.774  15.535 -0.0948 -0.0018 -0.1921
26093W        W69109  11.839  32.287  24.100 -0.0962 -0.0817  0.2339
26094W        W69110  29.009  33.187  17.131  0.0449 -0.3108 -0.2413
26095W        W69111  34.143  20.915  24.060 -0.0435  0.0739  0.2374
26096W        W69112  12.474  33.726  16.129  0.1163 -0.0862  0.0852
26097W        W69113  33.613  29.435   5.971 -0.0083  0.0078 -0.3254
26098W        W69114  21.269   6.077  25.934 -0.0682  0.1584  0.3559
26099W        W69115  13.212  10.447   4.604  0.1246  0.1251 -0.2184
26100W        W69116  31.546  33.166  15.862  0.1970  0.1645 -0.0325
26101W        W69117   8.828  16.898  24.871 -0.0214 -0.0513  0.3793
26102W        W69118  23.759  26.133  21.504 -0.0412 -0.0591 -0.2746
26103W        W69119  31.880  23.599   7.036 -0.1217  0.1695  0.1356
26104W        W69120  31.568  26.483  18.722  0.6067 -0.3810  0.2241
26105W        W69121   1.179  30.202  28.431  0.1024 -0.1455 -0.0905
26106W        W69122   3.355  29.977   2.178 -0.0361 -0.0415 -0.2955
26107W        W69123   1.630  29.122  27.490  0.1390 -0.2594 -0.0421
26108W        W69124  32.987   2.442  21.907 -0.2469 -0.1496 -0.1988
26109W        W69125  20.294  27.534  18.160  0.3524 -0.1335  0.3466
26110W        W69126   3.408   0.797  22.605 -0.2008  0.0118 -0.2342
26111W        W69127   6.743   1.933  17.562 -0.2339  0.0232 -0.2108
26112W        W69128  26.549  21.401  18.061 -0.2719 -0.0229 -0.0461
26113W        W69129  19.648  33.825  24.784  0.1760  0.2640 -0.1911
26114W        W69130  32.437  34.060  16.552  0.0006  0.0719  0.5184
26115W        W69131  23.056  14.578  19.937  0.1170 -0.0366 -0.1212
26116W        W69132  22.014  25.653  26.219  0.1242 -0.1570 -0.2412
26117W        W69133   6.862  28.239  18.474 -0.2404 -0.1273 -0.2117
26118W        W69134   3.973  32.429   3.588 -0.1807  0.2503 -0.1717
26119W        W69135  25.186  10.439   8.702 -0.2268  0.1088 -0.0351
26120W        W69136  12.230  24.434  17.946  0.1821 -0.0768 -0.3157
26121W        W69137  14.196  29.360  26.057 -0.0229  0.2696 -0.0108
26122W        W69138   7.306  18.150  25.342 -0.1121  0.2573  0.0428
26123W        W69139  12.523   0.734   4.439 -0.1644 -0.4849 -0.2521
26124W        W69140  30.430  17.097  17.949  0.1519 -0.1258 -0.3163
26125W        W69141  17.487   8.004  21.140  0.2125 -0.1333 -0.0775
26126W        W69142   1.373  10.638  15.304  0.4389  0.0509  0.0245
26127W        W69143  31.791   2.742   4.280 -0.1933  0.1407  0.0784
26128W        W69144  33.216  32.873  22.549 -0.2743  0.4732 -0.1544
26129W        W69145  29.677  34.738  18.611  0.1398 -0.0419 -0.0001
26130W        W69146  33.112  32.867  19.952 -0.1996  0.1252 -0.3793
26131W        W69147   1.574  23.934  22.862 -0.1228 -0.0563  0.0788
26132W        W69148   7.276  10.695  21.452 -0.0674  0.1706 -0.3579
26133W        W69149  27.255  18.347  17.095  0.1030  0.5386  0.1478
26134W        W69150   7.431  24.687  25.259  0.3319  0.1080 -0.1772
26135W        W69151  19.814  18.553  23.536  0.0044  0.0356 -0.0369
26136W        W69152  26.998  29.710  18.842  0.2201 -0.0348  0.3330
26137W        W69153  14.066  21.595  26.960 -0.0933 -0.0591  0.1055
26138W        W69154  24.421  25.890  15.286  0.0959 -0.0531  0.1895
26139W        W69155  29.437  21.708  24.788  0.1104  0.1631  0.4013
26140W        W69156  21.784  24.799  21.277 -0.1460  0.0584  0.0303
26141W        W69157  18.538  10.620  24.530  0.0925  0.0135 -0.3468
26142W        W69158  27.265   3.918  22.196 -0.1589  0.2794  0.2062
26143W        W69159  33.157  21.969  19.407 -0.1193  0.3115  0.2310
26144W        W69160   5.254   1.593  15.638 -0.1155 -0.0267 -0.2077
26145W        W69161  21.270  33.248   0.729  0.0685  0.0042 -0.1495
26146W        W69162  34.240  34.638  17.920 -0.1695  0.3273 -0.0813
26147W        W69163  27.959  18.911  23.081  0.0466  0.2651 -0.0046
26148W        W69164  16.531  28.609  19.918 -0.1863 -0.1910 -0.0861
26149W        W69165  22.742   3.458  15.262  0.3355  0.1348  0.1454
26150W        W69166  15.873  28.324   4.136  0.1749  0.1502 -0.0199
26151W        W69167   0.806  20.017  17.354  0.0541 -0.4784 -0.2756
26152W        W69168  23.103  27.491  28.346 -0.0600 -0.1809 -0.0469
26153W        W69169  23.740  34.465   7.850  0.0636  0.3760  0.3004
26154W        W69170   0.957   7.442   5.506  0.0667  0.0504 -0.0676
26155W        W69171  21.107  26.457  16.099 -0.0935  0.0263 -0.0158
26156W        W69172  18.216  24.365  14.709  0.0764 -0.0839  0.2636
26157W        W69173  31.555   8.749  19.909  0.0383  0.1454  0.1369
26158W        W69174   1.391  33.268  15.279 -0.3428  0.0549  0.1917
26159W        W69175  32.350  21.289   4.076 -0.2189 -0.0442  0.0141
26160W        W69176  32.624  31.056  20.277 -0.0208 -0.1612  0.0906
26161W        W69177   4.286  26.122  29.021  0.1270 -0.1388 -0.0317
26162W        W69178  26.815   9.384  23.454  0.3909 -0.0589  0.0609
26163W        W69179  10.016   0.789  17.288  0.1235 -0.1048  0.1589
26164W        W69180   9.282  25.980  21.516  0.2171 -0.2997  0.2609
26165W        W69181  20.446  23.782  19.741 -0.0626 -0.0884 -0.2245
26166W        W69182  31.691   3.010  27.543  0.3611 -0.1267 -0.2495
26167W        W69183  27.403  27.066   0.646  0.3076 -0.3029 -0.3520
26168W        W69184  26.543  27.348  27.396 -0.1600 -0.0116 -0.1525
26169W        W69185  19.844   5.156  25.325 -0.2629  0.2758 -0.0116
26170W        W69186  31.404  21.648   0.482  0.2319 -0.1239  0.1160
26171W        W69187  31.220  30.951  20.303  0.0062 -0.0438 -0.1509
26172W        W69188   6.121  21.988  14.205 -0.0981 -0.1857  0.1893
26173W        W69189  27.524  27.589  19.353 -0.2792  0.0571  0.3273
26174W        W69190  34.593  18.825  16.395  0.1402  0.2651  0.0059
26175W        W69191  20.109  25.004  27.681  0.3279  0.3107 -0.1910
26176W        W69192   5.082   0.374  22.907 -0.0867  0.0090 -0.0437
26177W        W69193  22.395   9.869  27.525 -0.2845 -0.2194 -0.1080
26178W        W69194  30.048  18.049  24.397 -0.0704 -0.0037  0.4005
26179W        W69195  17.355  33.152  18.646  0.1394  0.1130  0.2832
26180W        W69196   2.424  26.379  19.074 -0.0173  0.2320 -0.1171
26181W        W69197  29.284  10.851  27.508  0.1576  0.3063 -0.0855
26182W        W69198  22.948  19.695  19.665 -0.0333  0.0656  0.1227
26183W        W69199  30.706  19.763  22.351  0.0876  0.2270  0.1325
26184W        W69200  24.114  16.480  18.610 -0.0417 -0.2156  0.0978
26185W        W69201  31.846  25.376  17.623 -0.1927  0.2887  0.0583
26186W        W69202  20.716  33.712  19.947 -0.4287 -0.1170  0.2452
26187W        W69203  26.578  21.804  25.282  0.0898 -0.0801 -0.1334
26188W        W69204   8.474  34.167  17.077  0.0956 -0.1956 -0.2294
26189W        W69205  22.824  25.279  16.372  0.0254  0.1686 -0.0708
26190W        W69206  31.041  27.565  18.457 -0.0371  0.2593  0.1468
26191W        W69207  19.803   2.566  22.598 -0.4390 -0.1757 -0.0459
26192W        W69208  28.375  30.970  20.992  0.3181  0.0749 -0.2407
26193W        W69209  29.056   0.555  20.587 -0.0458 -0.3423 -0.0471
26194W        W69210  27.596   2.741  15.125 -0.3534  0.0518  0.1048
26195W        W69211  30.570   9.913  17.889 -0.2907  0.0819  0.0651
26196W        W69212  32.660   2.408  19.029 -0.2981  0.1106  0.0326
26197W        W69213  22.206  10.896  26.835  0.1247  0.0885  0.1432
26198W        W69214  26.241  12.221  25.914  0.0337 -0.1112 -0.0866
26199W        W69215   8.008   9.448  25.872 -0.1972  0.0979  0.0811
26200W        W69216  23.558   7.399  16.139  0.2640 -0.0924  0.2323
26201W        W69217  23.695  20.591   3.998 -0.1198 -0.0831  0.1021
26202W        W69218  30.649  32.721  22.691  0.0160 -0.1227 -0.0865
26203W        W69219  24.256  28.148  25.104 -0.1247 -0.2406  0.2499
26204W        W69220  32.751  31.081   0.112  0.1587 -0.2230  0.1450
26205W        W69221  21.376  33.016  16.166 -0.1333 -0.0538 -0.0257
26206W        W69222   1.966  24.306  27.839  0.1297 -0.1013  0.3059
26207W        W69223  22.626  28.694  24.863 -0.1154 -0.1109  0.0128
26208W        W69224  18.480  26.664  15.808  0.1616  0.0973 -0.1231
26209W        W69225  32.396  20.043  21.648 -0.0131  0.1454  0.2721
26210W        W69226   5.925  34.478  24.491 -0.1002 -0.1796 -0.1508
26211W        W69227  19.125  27.333  22.916 -0.2242 -0.1047  0.2686
26212W        W69228   9.109  22.265  25.687 -0.1067 -0.1819 -0.2142
26213W        W69229  33.443  34.319  24.369  0.0790  0.1214 -0.1364
26214W        W69230  28.811  18.129   2.977  0.2927  0.0877 -0.1295
26215W        W69231  25.681   1.384  26.682  0.2604 -0.0882 -0.1000
26216W        W69232  33.001  12.296  15.264 -0.4771 -0.1242 -0.0879
26217W        W69233  32.730  33.223  16.883 -0.2042 -0.1441  0.1837
26218W        W69234  23.716   7.262  20.955 -0.1251 -0.1003 -0.0175
26219W        W69235  26.356   8.811   1.092  0.3976  0.0204 -0.1227
26220W        W69236   9.686  15.420  26.548  0.1758 -0.4730 -0.0604
26221W        W69237   1.707   0.735   2.967 -0.1281 -0.1445 -0.4083
26222W        W69238   1.886  28.417  22.495  0.0303 -0.1302  0.2764
26223W        W69239  27.653  20.791  28.303 -0.0686 -0.1289  0.1763
26224W        W69240  24.947  26.412  28.844 -0.0920 -0.1590 -0.2904
26225W        W69241  23.298  29.606  24.072 -0.0098  0.0139  0.2582
26226W        W69242  27.800  33.163  22.130  0.1665  0.0969 -0.4543
26227W        W69243  25.436  33.676   0.749  0.0135 -0.1931 -0.4117
26228W        W69244  11.948  25.972  19.382  0.3808 -0.0075  0.1025
26229W        W69245   3.868  25.219  18.450 -0.3093 -0.2757  0.2213
26230W        W69246  27.929  34.420  24.973  0.1755 -0.0374  0.2427
26231W        W69247  26.880  10.779  19.738  0.1348  0.0332  0.0589
26232W        W69248  32.918  30.269  18.460 -0.2068 -0.0325 -0.0263
26233W        W69249  14.826  33.382  26.480 -0.3384 -0.2744 -0.0737
26234W        W69250   9.378  19.030  16.881  0.3017 -0.0938  0.4290
26235W        W69251  30.231  28.820  18.543  0.1074  0.4365  0.0807
26236W        W69252  30.261  25.895  22.774  0.2002  0.0715  0.2277
26237W        W69253  16.450   1.857  16.505 -0.0633 -0.0524  0.0800
26238W        W69254   8.919  15.729  21.040 -0.0440 -0.1879 -0.1137
26239W        W69255   6.888  31.641   1.412  0.1077  0.2148  0.0985
26240W        W69256  22.407  16.853  19.551 -0.1021  0.1672  0.0694
26241W        W69257  25.800  21.649  26.043 -0.0031  0.2274 -0.2241
26242W        W69258   0.961  29.746  17.197  0.1671 -0.3022 -0.1906
26243W        W69259  31.378  30.309  25.874 -0.4696  0.0634 -0.1909
26244W        W69260  32.023  25.110  16.169 -0.1181 -0.0313 -0.3849
26245W        W69261  27.452  33.445  26.734  0.0224 -0.0448 -0.1216
26246W        W69262  17.664  32.375  15.397 -0.4163  0.1189 -0.0394
26247W        W69263  22.258   2.475  25.033  0.1030 -0.1324  0.0452
26248W        W69264  17.586  31.744   3.556  0.1247  0.0468 -0.2244
26249W        W69265  30.178  24.600  16.069 -0.2958 -0.1358 -0.0320
26250W        W69266  24.489  18.498  16.796  0.0633  0.1944  0.1146
26251W        W69267   2.881  27.926   0.525  0.1759  0.0586 -0.3372
26252W        W69268  23.085  30.646  18.452 -0.1468  0.1047 -0.0474
26253W        W69269  26.600   2.200  20.509 -0.0047 -0.2205  0.0122
26254W        W69270  33.165  33.962  18.304  0.2352  0.0969 -0.2099
26255W        W69271  13.780  23.451  18.922  0.3145  0.1429 -0.0049
26256W        W69272  25.618  19.623  28.559  0.0095  0.1063  0.2459
26257W        W69273   5.614  34.484  20.685  0.3329 -0.1784 -0.3794
26258W        W69274   3.474   9.605  20.827  0.1086 -0.0508  0.1222
26259W        W69275   1.232  19.819  18.811  0.0042 -0.1200  0.1408
26260W        W69276  21.175  21.664  18.705  0.2692 -0.2960  0.3628
26261W        W69277  28.980  27.598  23.920  0.3724  0.1889  0.1846
26262W        W69278   1.309  31.224  15.203  0.1847  0.1513 -0.0372
26263W        W69279   3.666   1.393  19.247  0.1060  0.2564  0.2312
26264W        W69280   8.877  15.221  17.628 -0.0747 -0.5130  0.0094
26265W        W69281  31.409  19.115  19.885  0.0860  0.2837  0.1398
26266W        W69282  15.718  34.285  20.289 -0.0423 -0.1633  0.0134
26267W        W69283  28.375  27.349  20.839  0.0700  0.0300  0.1891
26268W        W69284   1.722  16.307  14.989  0.2694  0.2535  0.0232
26269W        W69285   3.184  26.347  15.850 -0.0971 -0.3112 -0.1225
26270W        W69286  34.276  29.078  17.144  0.2334 -0.3695  0.0746
26271W        W69287  24.289  32.307  24.738 -0.1684  0.2900 -0.0064
26272W        W69288  19.078  23.450  26.689 -0.2685  0.1470 -0.1663
26273W        W69289  28.870  26.218  21.823 -0.0110 -0.0492 -0.0438
26274W        W69290   5.488   2.002  17.522  0.2885 -0.0615  0.1152
26275W        W69291  24.472  20.125  27.385  0.0383 -0.0936 -0.0281
26276W        W69292   3.455  19.835  13.389  0.0300  0.1173  0.3894
26277W        W69293  26.571   4.862  22.508 -0.2356  0.1733 -0.2240
26278W        W69294  24.173  22.220  28.813  0.1207 -0.0343 -0.1937
26279W        W69295   7.984   2.688  24.930  0.1080 -0.2464  0.0367
26280W        W69296  24.311   9.930   3.298 -0.0884 -0.0288  0.2008
26281W        W69297  14.614  32.657  26.030 -0.5537 -0.1894  0.1099
26282W        W69298   9.740  24.861  24.539 -0.0593 -0.3119 -0.2391
26283W        W69299  20.737  24.257   1.451  0.0280 -0.0714 -0.1716
26284W        W69300  30.766   6.438   7.561  0.0811  0.0078 -0.1137
26285W        W69301  10.171  29.088  14.420  0.0814  0.2256  0.2237
26286W        W69302  30.403  32.126  26.119 -0.0571 -0.0304 -0.0895
26287W        W69303  31.850  34.322  22.208  0.1381 -0.0754  0.1469
26288W        W69304  18.137  21.131   0.580 -0.0680  0.1122  0.1214
26289W        W69305   8.080  29.987  20.536 -0.0372 -0.3948  0.3060
26290W        W69306  19.396  28.588  18.173 -0.1123 -0.1172 -0.0395
26291W        W69307  13.200  22.466  26.870 -0.3439  0.1377 -0.1241
26292W        W69308   2.240  18.526  16.834  0.3849 -0.1894  0.0752
26293W        W69309  29.540   8.967  16.563 -0.0583 -0.0120  0.1216
26294W        W69310   3.316  33.003  18.895 -0.0829 -0.4515 -0.3606
26295W        W69311  28.178   5.729   0.039  0.3576 -0.0528 -0.1428
26296W        W69312   9.953  16.173   2.813 -0.2957 -0.0897 -0.0255
26297W        W69313  31.368  25.160   2.792  0.2568 -0.2631  0.1466
26298W        W69314  11.251  27.497  17.862 -0.0257  0.3483  0.2137
26299W        W69315  19.632  33.103  24.494 -0.0098  0.0496 -0.1239
26300W        W69316   8.843  30.538  22.936  0.0147  0.2457 -0.4390
26301W        W69317  19.922  31.977  14.996 -0.2771 -0.2375  0.1944
26302W        W69318  33.453  31.504  22.780  0.0171 -0.3113  0.3478
26303W        W69319  27.338   3.042  19.711 -0.2845  0.0309 -0.1184
26304W        W69320  33.564  26.099  14.766 -0.1598  0.1882 -0.0363
26305W        W69321  27.151  21.654   4.652  0.2889  0.2522 -0.1373
26306W        W69322  29.654  18.877  20.552  0.2376 -0.3824  0.1901
26307W        W69323  26.406  28.638  16.936  0.0218  0.0256 -0.0058
26308W        W69324  23.240  26.515   4.905 -0.2765 -0.0189 -0.0421
26309W        W69325   9.932  24.123  13.634 -0.1520 -0.3180  0.1132
26310W        W69326  31.970   2.247  22.375  0.0269  0.1925  0.1189
26311W        W69327   9.232  24.584  13.777 -0.1068 -0.4492  0.0892
26312W        W69328  23.661  17.689  28.058  0.0429 -0.0631 -0.2403
26313W        W69329  30.637  25.376  19.566 -0.2885 -0.0737 -0.2752
26314W        W69330  28.643  22.165  24.763  0.0222 -0.0622 -0.0959
26315W        W69331   5.035   3.995  26.847 -0.1368  0.2903 -0.2239
26316W        W69332  28.964   4.292  16.204 -0.1985 -0.1301 -0.0515
26317W        W69333  15.954  28.047  15.273  0.1603  0.0038 -0.1291
26318W        W69334  19.166   0.577  16.662 -0.1282 -0.1303 -0.0966
26319W        W69335  16.258   0.112  26.835  0.3261  0.0806 -0.2320
26320W        W69336  23.098   5.354  19.947  0.2632  0.0015  0.0288
26321W        W69337  16.372  26.889  16.814  0.0305 -0.0689 -0.1991
26322W        W69338  10.358  32.016   0.952 -0.0056 -0.0026 -0.0347
26323W        W69339  25.303  15.129  24.680 -0.0284  0.1092 -0.0495
26324W        W69340  26.630  31.570  27.515  0.3781  0.1619  0.0962
26325W        W69341  11.753   1.109  25.444  0.0996  0.0642  0.2927
26326W        W69342  17.912  34.642  16.549  0.0859  0.1886 -0.0265
26327W        W69343  25.489  30.542  15.822 -0.0820 -0.2225 -0.3209
26328W        W69344  19.710   7.416  14.383  0.0540 -0.0591 -0.0843
26329W        W69345  10.917   1.065  17.002 -0.1874 -0.1748 -0.2203
26330W        W69346  30.374   8.051  19.820 -0.0098  0.1101  0.0037
26331W        W69347  30.095  15.321   2.903  0.4419  0.2914 -0.2525
26332W        W69348  29.408  25.925  22.257  0.0343  0.3642 -0.1878
26333W        W69349   2.114  26.311  20.936 -0.2190 -0.0215 -0.1278
26334W        W69350  21.948  17.874  20.943 -0.1411 -0.1591 -0.0752
26335W        W69351   1.196  28.566  19.642 -0.3188  0.1057 -0.0198
26336W        W69352   4.740  22.020  26.564 -0.1524  0.1783 -0.1381
26337W        W69353  28.600  21.645  24.886  0.0346  0.0657 -0.0256
26338W        W69354  10.864  23.989  15.180  0.0088  0.3900  0.1394
26339W        W69355  19.374  31.190  20.434 -0.3015  0.1927 -0.0287
26340W        W69356   7.672  31.288  18.906  0.3198  0.0860  0.1077
26341W        W69357   9.670   1.618  19.332  0.1584  0.0425  0.1003
26342W        W69358  22.667   2.079  15.599 -0.1147 -0.0525 -0.0605
26343W        W69359  28.569  32.212   7.209 -0.2490  0.0893 -0.1553
26344W        W69360  12.791  10.257   6.648 -0.0303  0.0972 -0.2561
26345W        W69361   8.218   0.228  20.948 -0.2640 -0.0346  0.3816
26346W        W69362  26.740  18.841  27.458 -0.0593  0.0733  0.3787
26347W        W69363  34.393  25.729   0.126  0.2117 -0.2214  0.1861
26348W        W69364  17.886  33.516  27.109  0.3303 -0.1008 -0.1289
26349W        W69365  31.746  33.039  21.646  0.1244 -0.0959 -0.1589
26350W        W69366  30.310  33.108  22.646  0.1423 -0.1565 -0.1809
26351W        W69367  34.058  24.648  22.344 -0.3108  0.3543  0.0782
26352W        W69368  23.516  31.500   1.914 -0.3451 -0.1711 -0.1183
26353W        W69369   2.417  26.511  27.697 -0.1400 -0.1062 -0.3848
26354W        W69370  22.236  18.719  21.876  0.2616 -0.3129  0.3631
26355W        W69371   3.692   2.250  20.064 -0.0981 -0.2614  0.1074
26356W        W69372  32.769  21.947  10.922 -0.0078 -0.0937  0.2645
26357W        W69373  14.056  19.195  12.977  0.0456 -0.2459 -0.0065
26358W        W69374  29.003  28.748  27.784  0.1677  0.0268  0.0141
26359W        W69375   4.565  14.832  20.086 -0.0258  0.1705  0.1616
26360W        W69376  22.924  25.716  18.659 -0.1823 -0.3162 -0.0756
26361W        W69377  33.582   1.952  22.375 -0.0128  0.1006 -0.1275
26362W        W69378  31.926  26.305   8.792 -0.1179 -0.2856  0.0375
26363W        W69379   0.161  14.167   4.336 -0.1854  0.0840 -0.3163
26364W        W69380   2.869  22.494  28.612  0.1427 -0.0507  0.0668
26365W        W69381   6.047  23.990  24.810 -0.0551 -0.1260 -0.1035
26366W        W69382  10.585  29.563  21.513 -0.0704 -0.3482  0.1059
26367W        W69383  28.494  28.953  27.731 -0.0984  0.3319  0.0039
26368W        W69384   0.932  31.851  27.619  0.2988 -0.0198 -0.0900
26369W        W69385  20.449  33.357  10.361  0.2524 -0.4816  0.2730
26370W        W69386  33.380  19.698  22.816 -0.1462  0.0767  0.5394
26371W        W69387  30.096  25.721  20.384  0.3020 -0.1040 -0.2643
26372W        W69388  28.123  20.127  18.246  0.1612  0.0842  0.0292
26373W        W69389  18.432  27.981  25.507 -0.2206  0.1910  0.0363
26374W        W69390  28.287   7.273  28.032 -0.0325 -0.1991  0.2402
26375W        W69391   2.551   9.506   3.403  0.1298 -0.2031 -0.3672
26376W        W69392  29.063   1.477   2.331 -0.2099  0.1361  0.1277
26377W        W69393  25.268  18.263  20.519 -0.4135 -0.1243  0.0662
26378W        W69394  14.848  27.187  24.335 -0.2737 -0.0012  0.2318
26379W        W69395  34.657  19.519  26.562  0.1292 -0.1693  0.0767
26380W        W69396   8.757  14.113  19.814 -0.2389 -0.2138 -0.1030
26381W        W69397   9.561  19.540  24.349  0.1837  0.1112  0.0181
26382W        W69398  26.948  18.199   0.904  0.2265  0.1035  0.0632
26383W        W69399   6.309  28.995  16.177 -0.1332 -0.0888 -0.2015
26384W        W69400  23.667   3.355  28.024 -0.1262  0.0502 -0.0168
26385W        W69401  17.500  20.057  13.236 -0.1402 -0.0085 -0.3327
26386W        W69402  20.266   5.762  19.256 -0.0273 -0.2574  0.2247
26387W        W69403  29.081  17.243  18.475 -0.0604 -0.0080  0.0080
26388W        W69404  16.598  25.262  22.517 -0.0415 -0.1931 -0.2531
26389W        W69405  23.159  23.128  15.586 -0.1729 -0.3498  0.1625
26390W        W69406  22.813  29.340  19.089 -0.1353 -0.1584 -0.4227
26391W        W69407  33.774  10.817  17.691 -0.1041  0.1075 -0.1742
26392W        W69408   1.482   2.034  20.127  0.1528  0.1521  0.2066
26393W        W69409   1.818  25.979   9.884  0.0747 -0.3658 -0.3580
26394W        W69410  29.105  27.425  16.539  0.1199 -0.2025  0.2141
26395W        W69411  11.670  19.643  15.264 -0.1700  0.1526  0.1295
26396W        W69412  28.476   0.246  24.458  0.0677 -0.2073 -0.1179
26397W        W69413  30.300  15.315  18.591  0.0868  0.1274 -0.0861
26398W        W69414  23.808   2.490  21.250 -0.0106  0.3224  0.0754
26399W        W69415  16.553  27.894  27.116 -0.2111  0.1268 -0.1191
26400W        W69416  18.601  12.855   7.577 -0.1039 -0.1048  0.1342
26401W        W69417  17.497  15.393  22.809  0.0139 -0.0274 -0.0497
26402W        W69418   1.621  23.196  23.373 -0.2269 -0.3036  0.0604
26403W        W69419  33.203  24.685  15.139  0.0755 -0.1194 -0.0500
26404W        W69420  25.587   4.599  18.663 -0.2191  0.3091 -0.0274
26405W        W69421  32.642   3.120  24.290  0.0407 -0.3126 -0.3398
26406W        W69422  16.697  24.388  23.877  0.1287 -0.2384 -0.0984
26407W        W69423  21.073  14.406  28.636 -0.0264 -0.1905 -0.2835
26408W        W69424  21.495   9.605  20.921 -0.0197 -0.2639  0.2094
26409W        W69425  27.929   2.274  18.291 -0.1258 -0.0627  0.0219
26410W        W69426  34.139  24.626  20.359  0.0151 -0.2721 -0.0156
26411W        W69427  26.522  16.735  20.711  0.2612  0.2023  0.1685
26412W        W69428  26.632   9.224  21.197 -0.2881 -0.1308 -0.0137
26413W        W69429  28.507  21.091  27.854  0.1610 -0.0025 -0.0857
26414W        W69430  11.186   9.212   1.842 -0.3106  0.1971  0.2547
26415W        W69431  21.226   0.406  26.435 -0.0679  0.1284  0.0690
26416W        W69432   3.616   4.869  20.475  0.1582 -0.0907  0.0708
26417W        W69433  31.166   2.440   1.911 -0.2155 -0.2278 -0.3139
26418W        W69434   2.480  14.146  17.848  0.0788  0.0881  0.0742
26419W        W69435  24.113  32.751   2.760  0.0585  0.4521  0.2187
26420W        W69436  34.056  27.878  21.865 -0.1484 -0.1231  0.1139
26421W        W69437  34.640  17.137  23.118  0.0705  0.5205  0.1255
26422W        W69438  14.994  29.571  22.717 -0.0048  0.0178  0.2434
26423W        W69439   2.596  32.820  25.676  0.1366  0.2836  0.1512
26424W        W69440  18.506  29.684  20.790  0.1392  0.0994  0.3023
26425W        W69441   6.842  33.951   2.000 -0.0198  0.1514  0.2231
26426W        W69442  27.718   4.480  28.631  0.0813  0.0239  0.1459
26427W        W69443   2.122   5.046   5.888 -0.1718 -0.3582 -0.0421
26428W        W69444  29.657  19.656   6.572  0.1959 -0.0254 -0.0409
26429W        W69445  21.759  32.030   5.353 -0.2385 -0.1957 -0.0335
26430W        W69446   3.514  15.618  13.811  0.0961 -0.2796  0.1333
26431W        W69447  25.445  18.165  16.935 -0.3309 -0.0002 -0.2177
26432W        W69448  23.904  25.794  18.494  0.1218  0.1108  0.3489
26433W        W69449  33.046  26.273  23.858 -0.0434  0.1514  0.1891
26434W        W69450   8.421  20.565  19.541  0.1425 -0.0870 -0.3442
26435W        W69451  27.873  22.729  24.805  0.1315 -0.3203 -0.2163
26436W        W69452  20.929  25.694  21.510  0.1758 -0.3501  0.0088
26437W        W69453   3.090  28.060  24.466  0.1076  0.0385 -0.2029
26438W        W69454  16.419  28.506  19.069 -0.1528  0.2839 -0.1322
26439W        W69455  29.034  10.858  20.173  0.1020  0.1304  0.3766
26440W        W69456   1.832   9.798  15.707  0.2670 -0.2136 -0.2550
26441W        W69457  28.476  25.972  26.433  0.2900  0.0575  0.1685
26442W        W69458  12.753  22.718  12.746  0.2598 -0.1039  0.0417
26443W        W69459  27.136  18.357  16.414 -0.1700 -0.1780 -0.0960
26444W        W69460  14.071  27.162  23.289 -0.0858 -0.2012 -0.3444
26445W        W69461  33.511  12.765   0.154  0.3346 -0.0975  0.1521
26446W        W69462  26.362  16.268   1.539 -0.0765 -0.2503  0.1324
26447W        W69463  28.827  26.416  18.960  0.1721  0.1547 -0.1476
26448W        W69464   8.168   1.437  16.669  0.1981 -0.0455  0.2481
26449W        W69465  31.838   8.469   6.721 -0.0380  0.2499 -0.2111
26450W        W69466  29.875  14.739  16.392 -0.1119 -0.3570 -0.2237
26451W        W69467  30.990  17.500  22.451 -0.0360  0.2346 -0.1458
26452W        W69468  28.222  21.526  21.778 -0.0567  0.3060  0.0871
26453W        W69469  28.353  23.037  22.116 -0.3670  0.0884 -0.4548
26454W        W69470  18.412  25.260  25.649  0.2561  0.0031  0.1897
26455W        W69471  15.069   8.411  13.101  0.1439 -0.2572  0.1334
26456W        W69472   2.378   2.788  20.232  0.1035 -0.0231  0.0364
26457W        W69473  29.027  24.984  24.668 -0.2407 -0.1179  0.0426
26458W        W69474  15.765  16.801   3.628  0.1266  0.0747  0.1351
26459W        W69475  29.289  24.392  27.401  0.2400 -0.0167  0.1640
26460W        W69476  27.140  33.768  20.513  0.1668  0.0113  0.1386
26461W        W69477  28.524   5.797  20.166  0.0345 -0.2552  0.1349
26462W        W69478   5.126  19.841  14.049  0.0269 -0.0550 -0.2213
26463W        W69479   5.046   4.251  14.939 -0.1666  0.0269  0.2090
26464W        W69480  27.890  31.883  20.886  0.3043  0.0979 -0.3290
26465W        W69481   3.792   7.066  28.471  0.1408 -0.1164  0.1000
26466W        W69482  18.301  25.163  16.904 -0.0915 -0.1297 -0.0322
26467W        W69483  25.755  21.146  28.329  0.0151 -0.0832 -0.1074
26468W        W69484  19.561  30.284  24.014  0.0160 -0.1434 -0.3998
26469W        W69485  21.981   0.841  16.733 -0.1370 -0.1839 -0.1356
26470W        W69486  33.801   2.830   5.265 -0.0617 -0.2515 -0.2167
26471W        W69487  16.749   1.646  18.235  0.3469 -0.1127 -0.0398
26472W        W69488  30.837  17.969   3.341 -0.0558  0.3308 -0.1122
26473W        W69489  33.772   4.279  24.894  0.2228  0.0217  0.0000
26474W        W69490  20.185  25.466  19.989  0.1206 -0.0688  0.0578
26475W        W69491  14.089  19.839   0.962  0.1203 -0.0178  0.2801
26476W        W69492  16.814  21.498   6.958  0.2418 -0.0069 -0.0107
26477W        W69493  22.911  16.550  16.253 -0.1392 -0.1760  0.0854
26478W        W69494   9.633   0.459  22.817 -0.1801 -0.2883 -0.0655
26479W        W69495  11.788  21.646  18.171 -0.2977  0.2219 -0.4893
26480W        W69496   2.101   9.125  18.916 -0.0207 -0.3146 -0.0876
26481W        W69497  25.726   5.402  22.447  0.2197 -0.2521  0.1924
26482W        W69498  18.721  16.172  21.284 -0.1138 -0.0402 -0.2998
26483W        W69499   0.649  24.527  19.871  0.0489 -0.2312  0.4954
26484W        W69500  32.929  33.974  25.651 -0.1759  0.4633 -0.0980
26485W        W69501  12.960  33.477  16.047  0.1381  0.0906 -0.1834
26486W        W69502  17.051  11.295  15.462  0.4194  0.0631 -0.3154
26487W        W69503  23.114  19.647   4.554  0.3791  0.0403 -0.0245
26488W        W69504  15.143  17.405   2.738 -0.2070  0.3419  0.2381
26489W        W69505   8.999  27.488  22.449  0.1352  0.0879 -0.1606
26490W        W69506  10.884  16.265  14.793  0.1833  0.1386  0.0763
26491W        W69507  27.701   8.459  20.366  0.1518 -0.0172 -0.0373
26492W        W69508   0.110  16.381  24.601  0.2148  0.0326 -0.1661
26493W        W69509  12.979   6.288  19.290  0.0989 -0.3057  0.1542
26494W        W69510   6.125  24.951  23.201 -0.0676 -0.0117 -0.2271
26495W        W69511  34.639  30.629  17.253  0.4395  0.2335  0.0630
26496W        W69512  25.130   0.318  19.407 -0.0496 -0.2686  0.0143
26497W        W69513  17.295  32.393  24.493 -0.2171 -0.0546 -0.0394
26498W        W69514   3.372   2.464  24.940 -0.2273 -0.0055 -0.2991
26499W        W69515  21.012   3.834   0.885 -0.1727 -0.0521 -0.0003
26500W        W69516  20.902   2.265  23.664 -0.1779 -0.1929  0.0352
26501W        W69517   2.746   3.732  25.117  0.1200 -0.0471 -0.2900
26502W        W69518  25.296  14.752  20.263 -0.2368  0.1761 -0.2369
26503W        W69519  26.391  14.035  24.884 -0.2498 -0.0838 -0.0555
26504W        W69520   1.080  17.737  17.212 -0.1321  0.0942  0.2501
26505W        W69521  17.450   2.869  25.376  0.1090 -0.5761 -0.0193
26506W        W69522  33.934  26.588  16.086 -0.2182  0.0154  0.1592
26507W        W69523  33.819  28.017  18.206  0.2364  0.2171  0.0304
26508W        W69524  19.975  15.910   3.903 -0.3169 -0.2401  0.1663
26509W        W69525  23.541   4.003   4.282 -0.0371  0.2945  0.4809
26510W        W69526  26.802  21.187  24.538  0.1630 -0.0238 -0.0152
26511W        W69527   9.078  33.025  28.027  0.1836 -0.1341  0.2354
26512W        W69528   7.605  26.063  28.404  0.0261 -0.0469  0.3009
26513W        W69529   6.469  23.302   0.980 -0.1794 -0.0748  0.1009
26514W        W69530  34.077   3.781  27.788  0.1110 -0.2033  0.4020
26515W        W69531  34.669   3.182  19.893  0.1725 -0.0217  0.0022
26516W        W69532  28.627  27.205  22.091  0.1247  0.1479  0.0479
26517W        W69533  23.609   1.184   5.765  0.1362  0.0116 -0.1335
26518W        W69534  15.042  19.536   6.394  0.1338 -0.0588  0.1891
26519W        W69535  18.326  30.434  14.705 -0.2988 -0.1715  0.2603
26520W        W69536  29.485  31.748  22.097  0.0484 -0.2316 -0.0557
26521W        W69537  26.920  26.036  26.157  0.2359 -0.1791 -0.2273
26522W        W69538  26.337  34.392  18.945 -0.1350 -0.0967  0.4142
26523W        W69539  32.964  33.261  18.678 -0.2253 -0.0398  0.1157
26524W        W69540   0.117  34.635  25.319  0.1459  0.0386 -0.2008
26525W        W69541  21.309  25.155   4.344  0.1013  0.2472 -0.0144
26526W        W69542   9.671   9.875  13.737  0.2231  0.4062 -0.0860
26527W        W69543   6.605  18.542  24.648  0.2630 -0.1063  0.0649
26528W        W69544  22.079   0.792  27.106 -0.0928 -0.0291  0.1782
26529W        W69545   8.274  16.273  22.490  0.3005 -0.1790 -0.2786
26530W        W69546   8.638  25.862   2.792 -0.1156 -0.1236 -0.0163
26531W        W69547  20.829  30.509  19.793 -0.0952  0.2291 -0.1546
26532W        W69548  19.626   8.358  25.267 -0.0649  0.0585 -0.0009
26533W        W69549  19.630  22.095  16.834 -0.2213  0.0209  0.0276
26534W        W69550  22.800  34.526  16.368 -0.1216  0.0502 -0.0871
26535W        W69551   1.244   0.845  22.192  0.0607  0.0534  0.1921
26536W        W69552  19.374   5.219  22.915 -0.0985  0.0272  0.0214
26537W        W69553  29.646  26.260  22.978 -0.0292 -0.1879  0.3338
26538W        W69554   2.677  28.054  23.207  0.4192  0.1030 -0.0761
26539W        W69555  19.206  22.342  18.789  0.0412  0.0334  0.0297
26540W        W69556   4.216   5.394  15.047 -0.1808  0.1046  0.0173
26541W        W69557  10.593   9.891  20.258  0.1589  0.1207 -0.0883
26542W        W69558   1.979   1.185  18.374 -0.0141 -0.1099 -0.0724
26543W        W69559  22.527  33.766   1.298  0.2759 -0.1309  0.2130
26544W        W69560  33.025  28.874  23.084 -0.2399 -0.4439  0.2934
26545W        W69561  13.280  13.002  12.778  0.0127  0.1102 -0.0509
26546W        W69562  14.891  29.779   8.385  0.2577 -0.1342  0.0719
26547W        W69563  11.279  24.222  16.692 -0.3610  0.1286  0.1132
26548W        W69564  24.654  29.481  21.406  0.1627 -0.0128 -0.0141
26549W        W69565  31.537  31.813  17.041  0.1156 -0.1126  0.1211
26550W        W69566  12.834  31.962  25.686 -0.1514 -0.1652 -0.2951
26551W        W69567   9.656  16.834  21.432 -0.3623 -0.3531 -0.0335
26552W        W69568  26.082  23.754  15.180  0.1094  0.1182  0.0839
26553W        W69569  27.340   7.634   8.126  0.0088 -0.2402  0.2156
26554W        W69570  21.778  21.076  16.385  0.2858 -0.2700 -0.1391
26555W        W69571  10.726  16.620   1.095  0.0438  0.0215  0.1209
26556W        W69572  24.066   4.464  24.425 -0.0759 -0.0135  0.2177
26557W        W69573  33.770  28.752  19.790  0.2000  0.2765  0.1124
26558W        W69574  26.418  20.002  21.953 -0.1329  0.0720  0.0625
26559W        W69575  25.744   8.261   7.450  0.4090  0.4581 -0.0084
26560W        W69576   6.395  16.591  17.885 -0.0877  0.2706  0.2409
26561W        W69577  20.614  28.142  23.248 -0.0909  0.1923 -0.2298
26562W        W69578  19.043  25.568  16.673 -0.1547  0.3428  0.3129
26563W        W69579  26.418  27.227  18.882 -0.1480  0.1628 -0.2769
26564W        W69580  15.576  30.629   0.937 -0.1248  0.0742 -0.0769
26565W        W69581  20.935   2.782  26.473 -0.0420  0.0505 -0.3849
26566W        W69582  21.093  31.290  18.531  0.0456 -0.0813 -0.0225
26567W        W69583  15.649  26.991  27.253  0.2003  0.4136  0.1708
26568W        W69584   6.020  26.558  10.357  0.0371 -0.0727 -0.1814
26569W        W69585  33.328  29.420  17.519  0.2002  0.4772  0.0598
26570W        W69586  33.930  19.956   3.350 -0.0796  0.1217  0.0686
26571W        W69587   1.908  28.328  17.879  0.0443  0.0450 -0.2941
26572W        W69588  30.421  27.325  26.934  0.0867  0.3779  0.0394
26573W        W69589  21.293  15.595   3.613  0.0756  0.0914 -0.3877
26574W        W69590  30.382  31.128  18.115  0.1104  0.0559 -0.0094
26575W        W69591  23.422  33.242   3.533  0.0657 -0.0894  0.1318
26576W        W69592  28.830   2.601  22.374  0.1599 -0.0564  0.0760
26577W        W69593  34.020  28.077   2.923 -0.1545 -0.4121  0.3123
26578W        W69594   7.653  33.118  17.624 -0.3347 -0.1639 -0.2163
26579W        W69595  29.833  22.665   0.894  0.2421 -0.2497  0.0005
26580W        W69596   6.065  26.513  23.839  0.2833 -0.0545 -0.0252
26581W        W69597  32.654  28.001  21.878 -0.1263 -0.0610 -0.2210
26582W        W69598  26.197  31.449  28.747  0.1393 -0.2982  0.0681
26583W        W69599   1.177  15.768  19.415  0.0942 -0.1144  0.0280
26584W        W69600   2.584  30.897  20.668  0.1077 -0.2569  0.1024
26585W        W69601  19.065   4.214   4.975 -0.0293  0.0300  0.2794
26586W        W69602  21.188  15.574   4.145  0.1662  0.3637  0.0843
26587W        W69603  33.632  29.982  20.355  0.0195 -0.1177 -0.3610
26588W        W69604   2.921  34.074  21.225  0.1156 -0.0705  0.0615
26589W        W69605   8.614   9.886  23.537 -0.0573 -0.1139  0.0053
26590W        W69606  25.833  33.629  23.773  0.1239 -0.0194 -0.3344
26591W        W69607   3.829  12.217   3.086  0.0515  0.1234 -0.0845
26592W        W69608  19.706  28.994   5.987  0.1696  0.3125  0.0319
26593W        W69609   7.045  27.303   8.352 -0.0800  0.1748  0.0334
26594W        W69610  31.973  20.555   9.538 -0.0439 -0.1444 -0.2201
26595W        W69611  31.792  17.620  19.760  0.2704  0.1134  0.0277
26596W        W69612  28.682  22.554  28.171  0.2031 -0.0611  0.1877
26597W        W69613  31.842  32.714   4.753 -0.1435 -0.4716 -0.1182
26598W        W69614  28.297   0.671  26.575 -0.0513  0.0818 -0.2359
26599W        W69615  22.500  32.292  18.226  0.3072 -0.1471 -0.2532
26600W        W69616  32.008  29.107  20.335 -0.1347  0.1282 -0.0660
26601W        W69617  12.104  25.876  18.415 -0.0379 -0.4564  0.0790
26602W        W69618  19.084  20.547   3.636  0.1093  0.1481 -0.1869
26603W        W69619  32.620  33.000  14.691 -0.2264 -0.3234  0.0689
26604W        W69620  28.780   2.615   1.508 -0.1200  0.0189 -0.0818
26605W        W69621  14.613  23.901  14.542 -0.0956 -0.1229 -0.6208
26606W        W69622  27.514  31.652  10.781 -0.0788  0.3396  0.0083
26607W        W69623  11.413  15.513  23.103  0.2078 -0.2702  0.2710
26608W        W69624  28.892   2.743  20.988 -0.0791  0.1647  0.1914
26609W        W69625  18.960  20.021  22.740  0.1499  0.1765 -0.1847
26610W        W69626   2.103  27.274  19.060 -0.0031  0.3920 -0.0011
26611W        W69627  24.026  21.751   8.653 -0.1698  0.1806 -0.0544
26612W        W69628  17.613   4.294  19.747 -0.0192  0.2915 -0.1139
26613W        W69629  27.730  25.773  17.022  0.0455  0.4543  0.1343
26614W        W69630  23.569  18.045  17.722  0.1097  0.1948  0.2514
26615W        W69631  34.367  32.256  20.042 -0.2525 -0.0233  0.0298
26616W        W69632  19.654   6.315  25.096 -0.1127  0.0286  0.0840
26617W        W69633  20.296  10.783  16.015  0.1866 -0.1649 -0.1016
26618W        W69634   7.916  23.345  25.795  0.0970 -0.3959 -0.0203
26619W        W69635   8.305   1.050  20.391 -0.0027 -0.0021  0.0434
26620W        W69636  25.357   2.650  26.460 -0.0613  0.1029 -0.2278
26621W        W69637  24.892  28.192  26.386 -0.0874 -0.1927  0.1724
26622W        W69638  22.477  21.616   6.105 -0.0602  0.2252  0.1588
26623W        W69639  23.582  18.771  19.591 -0.2336 -0.1005  0.0638
26624W        W69640  29.275   1.642  20.686  0.3371 -0.0801  0.0341
26625W        W69641  25.084  30.859   2.175  0.0231 -0.0907  0.1763
26626W        W69642   2.097  30.065  17.024 -0.0249  0.0284  0.3656
26627W        W69643  31.964   2.855  15.784  0.1096  0.1889 -0.1590
26628W        W69644  23.120   0.434  15.387  0.1530 -0.1121  0.1427
26629W        W69645  29.814   8.287  23.074  0.1192  0.1715  0.1488
26630W        W69646   2.345  27.483  25.953 -0.3679 -0.3991 -0.3275
26631W        W69647  24.320   0.486   3.025 -0.3085  0.0407 -0.3151
26632W        W69648  10.031  14.792  16.708 -0.3506  0.0470 -0.1071
26633W        W69649  31.231  31.663  26.830  0.2210 -0.3767 -0.2174
26634W        W69650   3.918  29.462  16.886 -0.2749  0.1411  0.1745
26635W        W69651  23.345  20.365  26.492 -0.0988  0.1192  0.3113
26636W        W69652   3.268  16.064  20.445 -0.0583 -0.3721 -0.2798
26637W        W69653  10.691  31.897  26.500 -0.0227 -0.0159 -0.2751
26638W        W69654  17.836  24.978  13.250  0.6013 -0.1008  0.2357
26639W        W69655  21.054   4.829  15.534 -0.0927  0.2835 -0.0844
26640W        W69656   3.211  31.782  24.731 -0.2980  0.0180 -0.4151
26641W        W69657  29.442  22.466  14.604 -0.0238  0.4512 -0.0422
26642W        W69658  26.532  22.251  20.901 -0.2095 -0.0157 -0.0002
26643W        W69659   0.867  10.534  22.068  0.1106  0.3123  0.1300
26644W        W69660  33.457  14.343  18.993 -0.0909  0.1236 -0.1448
26645W        W69661  22.867  26.721  17.242  0.1894  0.3722  0.0139
26646W        W69662  26.490  25.050  23.996 -0.0484 -0.1077 -0.1387
26647W        W69663  26.645   2.929  15.369  0.1582 -0.0927 -0.2020
26648W        W69664   6.804  22.372   1.549 -0.0167  0.0682  0.0547
26649W        W69665  23.063  15.086  18.515  0.1778 -0.2572 -0.0933
26650W        W69666   7.934  31.251  14.007 -0.0386 -0.2986  0.1309
26651W        W69667   0.326  14.433  18.481  0.0851 -0.0162  0.1768
26652W        W69668  21.203  24.373  27.336  0.1185  0.0776  0.0216
26653W        W69669   4.564  22.543   2.149 -0.3717 -0.0144 -0.0667
26654W        W69670  22.961   1.938  16.883  0.0032  0.1131 -0.0229
26655W        W69671   3.168  24.493   8.752 -0.0907  0.0991  0.0757
26656W        W69672  13.483  24.465  15.452  0.1320 -0.0123 -0.1914
26657W        W69673  32.275   0.939   0.717  0.0223  0.2379 -0.1373
26658W        W69674  24.431  31.197  21.568 -0.1527  0.2612  0.0575
26659W        W69675   3.242   3.566  17.519  0.1974  0.1784  0.0268
26660W        W69676  16.710  12.654   0.548  0.2884 -0.2888 -0.0652
26661W        W69677  32.118  12.386   3.296 -0.3017 -0.2098 -0.0924
26662W        W69678  21.329   5.964  17.020 -0.2384 -0.1313  0.2266
26663W        W69679   4.131  33.140  25.097 -0.1004  0.0273  0.0736
26664W        W69680  21.107  33.331  29.183  0.0380  0.0022 -0.1956
26665W        W69681  29.635  23.652   7.793  0.0921  0.2073 -0.1987
26666W        W69682   4.563  34.280  21.388 -0.0399  0.2563 -0.1207
26667W        W69683  23.674  25.227  24.144  0.1271  0.1284 -0.0569
26668W        W69684  24.500  31.292   0.910  0.2803 -0.0039 -0.0388
26669W        W69685  32.736  31.541   7.636  0.3105 -0.0262 -0.2050
26670W        W69686  22.272  29.599   0.039  0.2197  0.0503  0.2310
26671W        W69687   4.442  32.536  19.821  0.0245 -0.1851  0.2654
26672W        W69688  23.262  22.533   0.474  0.0851  0.0134  0.1357
26673W        W69689   4.903  34.723   0.031 -0.2711 -0.2662 -0.2543
26674W        W69690  31.853  21.668   1.479  0.1623 -0.0952  0.2561
26675W        W69691  31.109  18.897   0.589  0.2849 -0.2126 -0.0198
26676W        W69692  28.774  20.053   6.565 -0.1272  0.2958 -0.0929
26677W        W69693  32.561  31.272  15.436  0.3548 -0.2760  0.2528
26678W        W69694   6.590  20.398  27.555 -0.1771  0.0715  0.0375
26679W        W69695  13.665  13.259  23.442  0.0652  0.0230 -0.0585
26680W        W69696  19.103  23.978   8.299 -0.1199  0.1018  0.3310
26681W        W69697  20.931  27.381   9.569  0.1531  0.2775  0.0107
26682W        W69698  23.703  22.656  21.124 -0.1231  0.0260  0.3105
26683W        W69699  26.900  21.132   7.317  0.0771 -0.2732 -0.0161
26684W        W69700   0.684  28.433  26.340 -0.1533  0.1076  0.2267
26685W        W69701  11.580  31.851  26.965 -0.1000 -0.1664  0.3340
26686W        W69702   9.041   0.871  19.289  0.1411 -0.0908  0.1097
26687W        W69703   1.463  26.528   6.532  0.7372 -0.0975  0.0343
26688W        W69704   2.432  29.500  22.954 -0.2879 -0.0060 -0.1895
26689W        W69705  22.902  32.606  25.005 -0.0275 -0.2145 -0.0176
26690W        W69706  31.989  31.047  25.920 -0.2132  0.1680 -0.0730
26691W        W69707   2.360   5.534   2.382 -0.1510 -0.1354  0.0517
26692W        W69708  26.192  31.270  17.658  0.0110 -0.1615 -0.0811
26693W        W69709  26.154   7.944  16.460 -0.4888 -0.0607  0.2759
26694W        W69710   1.975  34.230  23.015  0.1479  0.1513  0.1616
26695W        W69711  29.399  24.700  19.415  0.1792 -0.0009 -0.0278
26696W        W69712   7.168  12.680  27.490 -0.2302 -0.2858  0.0496
26697W        W69713   8.615  30.755  20.712 -0.0309  0.0795  0.1307
26698W        W69714  18.435  32.304  22.539 -0.1136  0.5325  0.2329
26699W        W69715  19.548  32.389  17.852 -0.0184 -0.1668 -0.3627
26700W        W69716  28.911  28.184  24.901 -0.0070  0.2359 -0.0046
26701W        W69717  33.250  10.087  16.242 -0.5394 -0.0098  0.1000
26702W        W69718  27.127  28.790  18.559 -0.0924 -0.1468 -0.2291
26703W        W69719  13.070  24.383  16.595 -0.1170  0.0017  0.3168
26704W        W69720   3.066  25.170  15.061  0.2677  0.1551 -0.1027
26705W        W69721  33.397  24.154  26.435  0.1665 -0.0360 -0.2095
26706W        W69722  29.465   4.515  23.264  0.1525 -0.1478 -0.2496
26707W        W69723  27.840  13.725  14.316  0.1468  0.0809 -0.1532
26708W        W69724  21.035  19.215   1.463  0.0381  0.1691  0.0486
26709W        W69725  30.939  23.403   3.629  0.1095  0.0377  0.0129
26710W        W69726   1.005  17.708  14.848 -0.2987  0.5598  0.0812
26711W        W69727  33.641  15.565   3.250  0.2648  0.1935  0.0955
26712W        W69728  19.669  34.712   1.331 -0.1145  0.2229 -0.0723
26713W        W69729  21.001  34.090   3.851 -0.0022  0.1641 -0.3410
26714W        W69730  31.167  21.233  19.004  0.1690  0.0510 -0.2739
26715W        W69731  32.662  29.183  22.886  0.0728  0.1125  0.2406
26716W        W69732   3.966   1.261  18.160  0.3140 -0.1897 -0.1575
26717W        W69733  14.347  15.095  13.412  0.4693 -0.0141 -0.0833
26718W        W69734  24.173  17.880  15.995 -0.0943  0.0752 -0.0970
26719W        W69735  21.281   0.411  20.597  0.0023  0.1901 -0.2355
26720W        W69736  14.184  24.448  19.939 -0.0787 -0.3114  0.0700
26721W        W69737  26.447  34.641   3.658 -0.2280 -0.1687  0.0208
26722W        W69738  19.640  24.829  20.465  0.0032 -0.0084 -0.0116
26723W        W69739  20.570   3.715  26.494  0.2281 -0.0186 -0.0751
26724W        W69740   2.781  25.731  15.480 -0.0275 -0.0338  0.0026
26725W        W69741  17.826  29.702  21.484 -0.2302 -0.1113  0.1034
26726W        W69742   0.394  23.893  24.392  0.2467  0.1632  0.1692
26727W        W69743  28.404  19.565  21.782  0.2452  0.0330 -0.1128
26728W        W69744   3.437  25.168   0.297  0.3109 -0.1773 -0.0622
26729W        W69745  20.821   3.541  24.601  0.1858 -0.0623 -0.0371
26730W        W69746  27.940  19.354  19.362  0.0307 -0.1354  0.1106
26731W        W69747  26.913  33.534  28.001 -0.1061  0.0246  0.1206
26732W        W69748   1.699  26.586  26.454  0.0282  0.0102 -0.0099
26733W        W69749  28.082  32.965  26.142  0.0687 -0.3838  0.0835
26734W        W69750  24.008   0.546  24.190  0.3362  0.0112  0.2069
26735W        W69751   1.653  26.709   7.421  0.0774 -0.2810 -0.0192
26736W        W69752  19.380  28.954  15.654  0.2227  0.0361 -0.1687
26737W        W69753   3.151  14.586  21.221  0.2694  0.1251  0.2419
26738W        W69754   0.436  29.509  20.990  0.3117 -0.0437  0.0940
26739W        W69755   4.478  15.904  17.082 -0.1515 -0.3513 -0.0246
26740W        W69756  28.480  30.078   0.815 -0.0600  0.1033  0.1475
26741W        W69757  31.730  15.475  21.490 -0.1071 -0.0438  0.0482
26742W        W69758  30.195   3.691  25.410 -0.2474  0.2935  0.2462
26743W        W69759  18.972  21.910  22.932 -0.0527  0.1256  0.0505
26744W        W69760  15.365  20.054  22.294 -0.1701 -0.1735 -0.0840
26745W        W69761  18.035   0.929  15.190  0.0189  0.2847 -0.0063
26746W        W69762  34.766   1.596  24.548  0.2626  0.1554  0.1686
26747W        W69763   2.881  26.140   6.663  0.0646 -0.2248  0.0798
26748W        W69764   9.559  26.963  24.550  0.3218 -0.0937 -0.3110
26749W        W69765  17.258  22.523  25.744  0.1781  0.0579 -0.2199
26750W        W69766   0.715  15.713   1.534 -0.0577 -0.0073  0.0708
26751W        W69767  32.585  27.406  22.689 -0.0355  0.1857  0.2119
26752W        W69768   7.717  26.229  18.158 -0.0378 -0.2225 -0.1364
26753W        W69769  33.525  10.413   0.792  0.0817 -0.0042 -0.3189
26754W        W69770  26.710   0.495  18.316  0.0091  0.1317 -0.0590
26755W        W69771  31.436  25.255  20.096  0.3058  0.4133  0.1857
26756W        W69772  23.082  20.686  13.984 -0.1757 -0.0707  0.0857
26757W        W69773  20.270  21.013  27.701  0.1621  0.0110 -0.0316
26758W        W69774  25.898  18.664  15.251 -0.3037  0.0397 -0.5726
26759W        W69775   4.006  32.979  15.337 -0.2039 -0.0086  0.0787
26760W        W69776  17.661  26.763  28.026 -0.3391 -0.1691 -0.1722
26761W        W69777   6.198  20.363   8.223 -0.3582 -0.3103 -0.1620
26762W        W69778  26.362  32.178   4.907  0.0469  0.3551  0.2261
26763W        W69779   0.082  19.225  17.519  0.0543 -0.0325  0.1382
26764W        W69780  27.150  28.866  25.536  0.1540  0.1061 -0.0068
26765W        W69781  22.261  19.699  20.936  0.1675  0.2273  0.1716
26766W        W69782   3.048  34.588   0.713 -0.0710 -0.2896 -0.1111
26767W        W69783  26.725  20.353  20.662  0.2721  0.1918 -0.1542
26768W        W69784  24.528  18.249  24.525 -0.1632 -0.3164 -0.6265
26769W        W69785  22.525  34.363  17.170  0.1516 -0.1267  0.0010
26770W        W69786   0.629  20.781   0.787  0.0205  0.2933  0.5538
26771W        W69787   7.310  32.632  16.875 -0.0337 -0.3042 -0.0015
26772W        W69788  20.493   4.778  27.500 -0.0726 -0.0698 -0.1438
26773W        W69789  34.122  16.027  21.235 -0.2562 -0.1288  0.1870
26774W        W69790   4.054   2.285  21.273 -0.4069  0.1583  0.0572
26775W        W69791  16.226  17.461  24.081 -0.2908  0.3082 -0.0041
26776W        W69792  26.487  29.985  21.320  0.0359 -0.0618 -0.0279
26777W        W69793  16.904   3.323   1.634  0.1827 -0.0518 -0.1828
26778W        W69794  28.729   8.675  16.236 -0.1025  0.0856  0.1361
26779W        W69795  21.015  24.560   2.117  0.0086  0.1340 -0.2804
26780W        W69796  24.113  22.846  19.788 -0.0176  0.0367 -0.1805
26781W        W69797  26.349  34.744  19.936 -0.3646 -0.2019  0.1575
26782W        W69798   7.161  28.732  23.320  0.2277 -0.1605 -0.0278
26783W        W69799  21.351  25.160  24.926 -0.3157  0.0208  0.0691
26784W        W69800  17.720   5.019  26.520 -0.0670 -0.2459  0.2476
26785W        W69801  13.686  25.932  26.895  0.0041  0.1162 -0.0831
26786W        W69802  19.256  28.203  15.174  0.2578 -0.0281 -0.0080
26787W        W69803  12.648  22.923  27.825  0.0577 -0.3604 -0.0205
26788W        W69804   6.201  33.691  22.610 -0.0797 -0.2080 -0.3538
26789W        W69805   3.902  24.913  17.992  0.0367  0.2566 -0.1714
26790W        W69806  26.844  31.213   4.686 -0.1502 -0.0493  0.2425
26791W        W69807   9.903  23.322  25.362 -0.3657 -0.1721 -0.5619
26792W        W69808   3.214  31.387  15.932 -0.0583 -0.2555 -0.0071
26793W        W69809  34.351  30.375  24.213  0.0269 -0.0209 -0.1907
26794W        W69810  23.654  31.605   8.189 -0.0164 -0.1895  0.0240
26795W        W69811  19.828  25.750  28.714 -0.1721  0.5172  0.0159
26796W        W69812   6.224  23.006  14.318 -0.2721 -0.1220 -0.2080
26797W        W69813  33.335  12.673  21.662 -0.0537  0.0190 -0.1480
26798W        W69814  19.909  26.933  24.416  0.0343  0.2069  0.1612
26799W        W69815  31.269  28.276  16.882 -0.2612 -0.0218  0.0227
26800W        W69816  28.169   1.281   2.856 -0.1374  0.2170  0.1387
26801W        W69817  30.185  19.529  24.248 -0.0902 -0.5326  0.2522
26802W        W69818  33.948  17.975  18.475  0.1715  0.2388 -0.2497
26803W        W69819  29.256   7.384  27.901 -0.1255 -0.1402  0.0971
26804W        W69820  29.117  28.104   8.348  0.0670 -0.2189  0.1351
26805W        W69821  33.255   1.878  22.756  0.2904  0.0735 -0.0300
26806W        W69822  21.950  30.350  25.837  0.1330  0.1111  0.0816
26807W        W69823  27.714  31.465  17.948  0.2173  0.1012  0.1803
26808W        W69824  27.190  16.478   2.639 -0.0755  0.0336  0.0314
26809W        W69825  33.253  12.024  26.345 -0.3920  0.0606  0.0496
26810W        W69826  18.163  29.035   1.695  0.0538  0.1877 -0.2577
26811W        W69827  15.312  29.613   4.468  0.1055  0.3638  0.1648
26812W        W69828  25.623  34.106  25.108  0.2463 -0.1557  0.2010
26813W        W69829   6.847  29.315  18.556 -0.3212  0.1807  0.0903
26814W        W69830  23.875   9.125  21.016 -0.1547 -0.0180  0.1375
26815W        W69831   4.109  27.114  26.722 -0.0364  0.2523 -0.5015
26816W        W69832  32.989   5.157  24.033 -0.1211 -0.3185 -0.0755
26817W        W69833  28.086  31.334  25.372  0.2891  0.0468 -0.0383
26818W        W69834  25.189  30.899   1.520 -0.1171  0.1156 -0.1215
26819W        W69835  13.210  10.447  24.876  0.3343  0.0117 -0.1010
26820W        W69836  28.145  26.221  24.215 -0.0822 -0.4339  0.0110
26821W        W69837  11.555  23.661  27.748 -0.1755 -0.1417 -0.0030
26822W        W69838   9.126  11.469  27.446  0.3076 -0.1007  0.1533
26823W        W69839  25.042  11.666  26.827 -0.2067  0.1776 -0.2580
26824W        W69840  14.828  23.501  14.122 -0.0386 -0.0253 -0.0392
26825W        W69841  22.014  16.196  27.025  0.3282  0.0354  0.0632
26826W        W69842  29.619   1.254   2.449 -0.1041  0.2257 -0.1159
26827W        W69843  24.928  12.145  14.839  0.0483 -0.0065  0.1762
26828W        W69844  19.233  23.586   4.674 -0.2520 -0.0412  0.1460
26829W        W69845  26.235  33.708  28.327  0.2303  0.1607  0.1994
26830W        W69846  30.150  24.414   5.076  0.1757  0.0787 -0.2017
26831W        W69847  31.614   6.888   7.652  0.1935  0.2542  0.1014
26832W        W69848  29.670  16.628   3.973 -0.1242  0.0253  0.0226
26833W        W69849  33.458  27.929   4.138  0.3485 -0.1104 -0.3196
26834W        W69850  11.474  18.309  21.038  0.2498 -0.1134  0.2556
26835W        W69851  32.066  23.236   0.834 -0.0301 -0.1085 -0.1895
26836W        W69852   6.754  29.329  15.999  0.0074  0.1606 -0.1395
26837W        W69853  19.500  26.087  20.349  0.1213  0.0650 -0.2141
26838W        W69854  10.747  25.900  26.106 -0.0074 -0.2393  0.1019
26839W        W69855  19.220  22.948  19.528  0.0045 -0.0304 -0.1278
26840W        W69856  18.255  28.500  22.274 -0.3729  0.0197  0.1238
26841W        W69857  23.703  28.654  26.493  0.2613 -0.0198  0.2218
26842W        W69858   8.737  22.266   0.274 -0.3109 -0.0950  0.0023
26843W        W69859  28.688   9.349   0.163 -0.0730 -0.1314  0.0012
26844W        W69860   9.699  12.935  22.581  0.1803 -0.2193 -0.3774
26845W        W69861  17.919  26.786  26.441 -0.1013  0.0596  0.1333
26846W        W69862   1.367  28.547   0.786 -0.1047  0.0592  0.1626
26847W        W69863   7.483  20.137  26.564  0.0937 -0.0089  0.2096
26848W        W69864  18.527  16.114   6.869  0.0024  0.3420 -0.0632
26849W        W69865  25.842  23.210  27.361 -0.0385  0.0160 -0.1366
26850W        W69866  17.005  17.774  25.613  0.2877  0.0230  0.3985
26851W        W69867  19.654  21.111  15.490 -0.0441  0.1235 -0.2161
26852W        W69868  26.711  22.599   7.468  0.4014 -0.0318 -0.0234
26853W        W69869  29.891  25.298  20.449 -0.0052 -0.1480 -0.1881
26854W        W69870   5.016  11.109  14.495  0.0463  0.1642 -0.1037
26855W        W69871  28.493  12.115  26.888  0.2380  0.3106  0.3016
26856W        W69872  24.942   3.092   5.653  0.2759  0.2548 -0.2317
26857W        W69873  28.764   5.131  23.849 -0.1252 -0.0095 -0.0706
26858W        W69874  15.793  10.115  21.535  0.0258  0.1145  0.0762
26859W        W69875  31.366   7.336   9.714 -0.0619  0.0011 -0.1960
26860W        W69876  28.920   0.932   8.990  0.0730  0.1159  0.1144
26861W        W69877  26.601  10.331  15.659 -0.0306 -0.0204  0.0463
26862W        W69878  19.840  23.193   1.418  0.0825  0.0364 -0.1461
26863W        W69879  18.379   0.858  16.194  0.0872  0.0275 -0.0316
26864W        W69880  29.981  31.271  19.022 -0.1236  0.2588 -0.0471
26865W        W69881   1.674  22.430  24.787  0.3056  0.0664 -0.1834
26866W        W69882  31.606   0.828   8.618  0.1517 -0.1529 -0.0535
26867W        W69883   4.779  29.763  28.773 -0.2896 -0.0759  0.1520
26868W        W69884  24.885  27.406  18.679 -0.1854 -0.1279 -0.2775
26869W        W69885  31.651  32.580  22.485 -0.1555 -0.1795  0.1268
26870W        W69886  29.555   6.454  18.649 -0.2418  0.0920  0.2461
26871W        W69887  20.666  14.901  21.729  0.0562  0.1088 -0.4045
26872W        W69888   4.119  25.244  15.746 -0.0330  0.0417  0.4570
26873W        W69889  34.194  24.585  18.588  0.2099  0.4328  0.0260
26874W        W69890  24.576   0.944   2.477 -0.1312  0.0827 -0.0386
26875W        W69891  33.790  34.253  15.972 -0.1814 -0.0450  0.0575
26876W        W69892  32.868  23.061  15.117  0.0229 -0.0341 -0.1778
26877W        W69893   4.784  23.598  28.720  0.1390  0.0409 -0.0345
26878W        W69894   0.595   4.243  24.629  0.1236  0.0005 -0.1745
26879W        W69895  33.529  14.665  21.682  0.0394  0.0749 -0.1761
26880W        W69896  10.518  33.049  20.437  0.0773 -0.2072 -0.0664
26881W        W69897  29.926  29.954   0.181  0.1899 -0.1124  0.0075
26882W        W69898   8.266  18.196   0.168 -0.3459  0.0286  0.0223
26883W        W69899  25.567   2.047  21.991 -0.1154  0.2058  0.1346
26884W        W69900  25.719  28.717  15.820 -0.0435  0.2319 -0.1138
26885W        W69901   1.532   1.189  14.699  0.0224 -0.2983 -0.1506
26886W        W69902   6.020  12.520  23.256  0.1585  0.1290  0.2710
26887W        W69903  32.156  18.624  23.676 -0.2647  0.0373  0.0827
26888W        W69904  24.336   4.422  10.628  0.0461 -0.1452  0.3346
26889W        W69905  20.649  33.405  26.196 -0.1554  0.0342  0.1463
26890W        W69906  19.807  31.904   3.053 -0.1797  0.1341 -0.0397
26891W        W69907  23.960  19.394  28.180  0.0143 -0.2150  0.3888
26892W        W69908   9.798   1.158   4.954  0.3569 -0.3016  0.0924
26893W        W69909  32.404  32.140   4.133  0.2540  0.3758  0.0485
26894W        W69910   6.136   7.544  23.582  0.0428 -0.0845  0.1822
26895W        W69911  32.681  12.448   5.769 -0.0487  0.0862  0.0071
26896W        W69912  27.687  25.791  20.146 -0.0602  0.2176  0.2347
26897W        W69913  29.355  25.345  10.827 -0.1324  0.0266 -0.1384
26898W        W69914  13.299   9.861  28.898 -0.1115  0.1386 -0.0530
26899W        W69915  11.919  30.564  29.066 -0.0948  0.1479  0.0299
26900W        W69916  31.949   7.828  16.504  0.0019  0.1614 -0.3510
26901W        W69917  33.620   6.935   0.362 -0.1026  0.1419  0.0118
26902W        W69918  31.173  25.652  19.935  0.0414  0.0963 -0.0824
26903W        W69919  26.135  34.071  23.667  0.0001  0.2097 -0.0703
26904W        W69920   1.401   7.716  15.167 -0.1824  0.3353  0.3110
26905W        W69921  13.957  29.596   3.015 -0.0773  0.2227 -0.1234
26906W        W69922  26.876   4.519  23.355  0.0200 -0.1728  0.0277
26907W        W69923  20.686  34.250  24.017  0.0397  0.0263  0.1825
26908W        W69924  27.507  18.559  20.078 -0.1432 -0.3221  0.0516
26909W        W69925   2.999  34.598  17.671  0.0745 -0.0838  0.2861
26910W        W69926  22.924  26.303  20.194  0.1644  0.0613 -0.1575
26911W        W69927   3.522   4.981   5.496 -0.0778 -0.2220  0.0056
26912W        W69928  10.014  34.481  28.189 -0.3070  0.0625 -0.1804
26913W        W69929  22.696  22.003  26.849  0.1710 -0.4056  0.0650
26914W        W69930  16.826   1.259   1.305 -0.2544  0.0814 -0.0344
26915W        W69931  19.150  22.289   5.846 -0.1581  0.2077  0.0798
26916W        W69932  15.841  29.482  16.645 -0.0924 -0.4625 -0.1874
26917W        W69933  15.013  31.133  24.175  0.4483 -0.2592  0.0713
26918W        W69934   0.077  15.305  17.595 -0.1485  0.0939  0.0126
26919W        W69935  29.732   0.541  22.623  0.0222 -0.0110 -0.4468
26920W        W69936  20.196  28.779  19.599 -0.0610  0.0653  0.4838
26921W        W69937  17.852  23.401  13.427 -0.1689  0.3944  0.0600
26922W        W69938  21.262   6.578   1.941  0.1579 -0.0939  0.1879
26923W        W69939  27.733  28.412  23.056 -0.0862 -0.1194  0.1006
26924W        W69940  32.578  14.648  14.357 -0.0351  0.1985 -0.1106
26925W        W69941  19.766  31.302   9.172 -0.2387 -0.1655 -0.0782
26926W        W69942  20.630  29.646  14.814  0.0649 -0.0271 -0.1276
26927W        W69943  22.469   0.014   5.949 -0.2172  0.2806 -0.0834
26928W        W69944  21.098   3.236  23.286 -0.4366  0.0566 -0.1622
26929W        W69945  24.201  27.235  17.025  0.1320  0.0271 -0.2635
26930W        W69946   1.809  23.085  28.789  0.0942  0.0373 -0.2016
26931W        W69947   6.362  30.996  21.960  0.0144 -0.0679  0.1650
26932W        W69948   7.638   5.446  27.579 -0.1709 -0.1672  0.6068
26933W        W69949  21.972   2.346  27.481  0.2170 -0.0799  0.2795
26934W        W69950  28.996  11.098  21.507 -0.2557  0.1223  0.2683
26935W        W69951   9.004  20.529  16.527  0.0883  0.3304  0.1109
26936W        W69952   0.071  13.527  19.965  0.1478  0.3771 -0.1762
26937W        W69953  21.297   1.152   1.583  0.0855 -0.1163  0.4156
26938W        W69954   2.555  27.014   3.837  0.0465 -0.2034 -0.3115
26939W        W69955  24.867  14.454  19.204  0.2692  0.2923  0.1306
26940W        W69956  34.461   8.834   7.657 -0.1040 -0.2823  0.2690
26941W        W69957  33.555  29.017  17.819  0.1070 -0.0929 -0.3556
26942W        W69958   1.456  21.044  16.296  0.2421  0.0220  0.2699
26943W        W69959  26.949  24.759  22.625  0.0716 -0.2107 -0.0695
26944W        W69960  18.343   2.411  19.684  0.1195  0.0684  0.0725
26945W        W69961  17.684  32.070  15.774  0.0380  0.0805  0.0779
26946W        W69962  33.084   4.365  20.888 -0.1771 -0.1401 -0.1022
26947W        W69963   5.882  24.303   4.568 -0.0810 -0.1995  0.0936
26948W        W69964  10.132  32.003   4.149 -0.0808  0.0317  0.2077
26949W        W69965  20.196  30.148  22.904  0.2619 -0.3827  0.1238
26950W        W69966  33.958  34.123  19.809  0.0549 -0.1322 -0.1391
26951W        W69967  11.450  31.859  25.697 -0.4502 -0.0092 -0.1329
26952W        W69968  23.963   5.556  15.816  0.0386 -0.2185  0.0460
26953W        W69969  34.659  24.648  16.641 -0.0149  0.2108 -0.1841
26954W        W69970  22.533  19.534   4.442 -0.0732  0.0647 -0.0940
26955W        W69971  29.646  18.535   0.433 -0.1457 -0.2475 -0.2580
26956W        W69972  25.858  26.538  22.930 -0.0812  0.1291 -0.3978
26957W        W69973  25.097  15.192   4.607 -0.0740  0.2417  0.0518
26958W        W69974  30.195  20.966  18.354  0.0454  0.2204  0.1051
26959W        W69975   6.226  32.827   0.947 -0.1493  0.1627 -0.2832
26960W        W69976  34.578  12.269  25.575  0.2010 -0.2606 -0.2374
26961W        W69977  32.325   6.306  17.717  0.3924  0.0888  0.1320
26962W        W69978   0.878  32.664   5.705 -0.0083  0.2851 -0.0201
26963W        W69979   3.120  12.485   9.185 -0.0211  0.0057  0.0339
26964W        W69980  19.961  26.720  28.525  0.0133  0.0661 -0.2208
26965W        W69981   2.551   7.169  21.233  0.2358 -0.2442  0.0394
26966W        W69982  23.642  18.318  18.114  0.1331 -0.2507 -0.0069
26967W        W69983  24.822  24.966   1.842 -0.1022 -0.0639  0.2782
26968W        W69984  32.201   7.192  22.247  0.3870 -0.1783 -0.1931
26969W        W69985   1.086   7.699  20.865  0.4442  0.1390  0.0004
26970W        W69986  32.445  28.732  24.046 -0.2268  0.1123 -0.1761
26971W        W69987  29.711   0.858  27.592  0.0992  0.1026 -0.1016
26972W        W69988  17.075  25.296  25.568  0.0583  0.2456  0.1258
26973W        W69989   4.344  25.356   2.384  0.1419  0.0720 -0.1807
26974W        W69990  23.239  32.210   3.697  0.0469  0.3252 -0.1455
26975W        W69991   6.309   2.339   6.022  0.2176 -0.0795 -0.1132
26976W        W69992  33.731   5.648  15.744  0.0404 -0.1728 -0.3210
26977W        W69993  30.937   3.955  21.819  0.0160 -0.0824  0.0991
26978W        W69994   0.671  26.733   1.150 -0.1385 -0.2756  0.0911
26979W        W69995  23.923  23.175   0.599 -0.0368 -0.0368  0.1830
26980W        W69996   2.777  27.502  16.994  0.0456  0.2057 -0.0894
26981W        W69997   1.459  15.979   6.333  0.0098 -0.1562  0.2740
26982W        W69998  10.422  27.042   8.312 -0.0405 -0.1407 -0.2238
26983W        W69999  32.716  13.759  28.166 -0.1292 -0.0469 -0.1601
26984W        W70000  27.756  33.301  23.849 -0.1043  0.0240 -0.2281
26985W        W70001  24.538  17.920  25.781 -0.2176 -0.1737 -0.0774
26986W        W70002  26.448  18.272   2.893  0.1602  0.1342 -0.2981
26987W        W70003  19.607  20.845  29.194  0.0427 -0.3422  0.4067
26988W        W70004  33.207  11.699   8.406 -0.1844 -0.2374 -0.2021
26989W        W70005   9.999  23.283  25.883  0.3534 -0.0808  0.0176
26990W        W70006  13.566  22.456  18.626 -0.0307  0.0989 -0.0299
26991W        W70007  25.243  29.138  25.509  0.1354  0.0218  0.0113
26992W        W70008  17.323  24.839   6.401  0.0275  0.3812  0.0810
26993W        W70009  19.821  21.298   5.128 -0.1726 -0.2581  0.0098
26994W        W70010  23.737  21.941  29.118 -0.1206 -0.1260 -0.1959
26995W        W70011  30.257  22.169   3.609  0.2837 -0.2905  0.2293
26996W        W70012   8.256  32.819  25.425  0.1924 -0.4465 -0.0030
26997W        W70013  28.905  13.254  26.131 -0.0578  0.1618  0.4989
26998W        W70014  31.188  26.781  17.776 -0.2253 -0.0225  0.1372
26999W        W70015   8.569  19.115   5.665 -0.0662  0.0423 -0.0752
27000W        W70016  28.532  34.593   2.966 -0.2660 -0.0188  0.0915
27001W        W70017  29.171  20.175   3.722 -0.1516  0.1155 -0.1642
27002W        W70018  17.466  14.604  25.902 -0.2708  0.1287  0.1759
27003W        W70019  20.195  13.734  13.578 -0.0267  0.0442 -0.2546
27004W        W70020  28.478   7.881  17.653  0.2685  0.2926  0.1044
27005W        W70021   3.008   0.322   6.703  0.0801 -0.1808  0.1785
27006W        W70022  31.447  27.041   4.883  0.1920  0.0654  0.0276
27007W        W70023  23.345  34.691  25.638  0.0637 -0.0704 -0.1509
27008W        W70024  20.876   3.197  22.316  0.0156  0.1074 -0.3049
27009W        W70025  21.032  11.985   3.917 -0.0670 -0.1450  0.0297
27010W        W70026   2.681  28.063   5.763 -0.0555  0.2789  0.0729
27011W        W70027   5.850  16.031  27.749  0.1989 -0.2439  0.2407
27012W        W70028  25.606  11.331  19.587  0.0987  0.0194 -0.0926
27013W        W70029  22.472  33.313  17.199  0.1457 -0.0016 -0.2095
27014W        W70030  12.614   3.488   5.375 -0.0042  0.0764 -0.1530
27015W        W70031  26.588   1.174  28.435  0.0255  0.2413 -0.2029
27016W        W70032   0.409  11.277  20.800  0.2922  0.2323 -0.1875
27017W        W70033   1.274   0.942  28.967  0.3520 -0.1205  0.1119
27018W        W70034   3.620   9.953   2.988  0.1008  0.3842  0.1768
27019W        W70035  24.487   7.672  22.296 -0.1367 -0.1900 -0.2243
27020W        W70036  18.253  31.578   0.145  0.1162 -0.1276 -0.1157
27021W        W70037  30.811  29.903   5.555 -0.0688 -0.1715  0.2604
27022W        W70038  32.546  27.783  21.294  0.0680  0.1441 -0.2953
27023W        W70039  19.914  32.963   1.049  0.1339 -0.0022  0.0525
27024W        W70040  31.846  26.837   0.881  0.0288  0.0435  0.0971
27025W        W70041  28.695  33.789  21.079  0.0836  0.0616  0.0951
27026W        W70042  19.918  19.370  24.129 -0.2271 -0.0851 -0.1394
27027W        W70043   0.525   4.631  26.554  0.0717  0.2178 -0.0245
27028W        W70044  32.105  21.188  26.417  0.0804  0.1354 -0.1904
27029W        W70045  33.518  34.707  15.933 -0.0278  0.1727  0.0303
27030W        W70046   0.400  31.223   7.019  0.2853 -0.0372 -0.2180
27031W        W70047  21.563  32.261   2.748  0.2189 -0.1753  0.2017
27032W        W70048   1.212   1.399  14.298  0.0559 -0.2883  0.0831
27033W        W70049  21.279  33.260  26.968  0.2218  0.0300 -0.0432
27034W        W70050  10.250   3.146  29.127  0.3939 -0.0491 -0.2782
27035W        W70051  14.078  13.554  20.466 -0.1258 -0.1862 -0.2406
27036W        W70052   3.455  26.081  23.486  0.2932  0.1837 -0.0242
27037W        W70053  30.306  29.246  18.792 -0.1220 -0.1246  0.0748
27038W        W70054   3.326  24.863  21.055 -0.2335 -0.0640  0.4151
27039W        W70055  23.170  20.815  25.801  0.0338 -0.1700 -0.2789
27040W        W70056  34.061   3.392  28.937 -0.1678  0.1277  0.0760
27041W        W70057  10.993  21.227   3.525  0.0109  0.0726 -0.0348
27042W        W70058  21.206  34.284  17.594  0.0208 -0.0894  0.0337
27043W        W70059  31.315   4.117  22.222  0.0803 -0.0110  0.0023
27044W        W70060   9.049  17.003  14.493 -0.2288  0.0832  0.1744
27045W        W70061  25.094  17.777  19.460  0.1156 -0.2174 -0.2582
27046W        W70062  31.559   4.428  27.614  0.0739  0.2508 -0.1634
27047W        W70063   0.382  32.413  27.137 -0.0433  0.1959 -0.0545
27048W        W70064   0.037  25.403   2.027  0.1550 -0.0667 -0.0464
27049W        W70065  26.460  27.395   2.695  0.0527 -0.0832 -0.0412
27050W        W70066   0.455  13.317   3.129  0.1111 -0.0617  0.0062
27051W        W70067  33.634  24.024  18.382 -0.5220  0.1380  0.1791
27052W        W70068   9.796  22.956   0.271  0.0874 -0.0273 -0.4002
27053W        W70069  16.910  34.137  28.825 -0.2264  0.4538  0.0453
27054W        W70070  25.811  30.243  10.921 -0.3794  0.0774  0.2961
27055W        W70071  32.306  27.349   2.162 -0.3394 -0.2102 -0.2768
27056W        W70072  18.928  24.752   2.842 -0.1930 -0.1196  0.2577
27057W        W70073   8.483  28.584   0.850 -0.0740 -0.0797 -0.2280
27058W        W70074  24.606  29.838   0.151 -0.1908  0.1169 -0.0154
27059W        W70075  20.520  25.699   9.599  0.2403 -0.2480  0.0878
27060W        W70076  17.276  31.563  25.504  0.4448  0.0927 -0.0592
27061W        W70077  31.533   9.939  18.221  0.0389 -0.1122 -0.0575
27062W        W70078  15.757  10.288  13.797  0.1796  0.1472  0.0892
27063W        W70079  27.385  30.404  27.706  0.0883  0.0701 -0.1560
27064W        W70080  31.308  16.409  22.925  0.0725 -0.0271  0.1450
27065W        W70081  13.625  28.742  21.560 -0.0788 -0.3586 -0.3256
27066W        W70082  20.483  11.534  13.751 -0.0714 -0.1527 -0.0013
27067W        W70083   1.175  22.577  15.314 -0.0004  0.0154  0.0146
27068W        W70084  33.374  17.779  19.101 -0.0851 -0.4783  0.2342
27069W        W70085  19.772  26.991  22.355 -0.0722  0.2240 -0.1928
27070W        W70086  26.855   5.861   6.574  0.1029 -0.3478 -0.1104
27071W        W70087  27.379  13.178   9.091  0.0222  0.2764 -0.3712
27072W        W70088  18.101  31.104  20.454  0.1730  0.1688  0.1153
27073W        W70089   3.461  13.775   6.789 -0.2080 -0.1699 -0.0405
27074W        W70090  33.618   7.068   4.923  0.0843 -0.1190  0.2549
27075W        W70091   2.902  24.339   7.501 -0.0765  0.0605  0.2217
27076W        W70092  23.339  23.321   0.960  0.2462 -0.2272  0.1254
27077W        W70093  30.582  31.488   9.825 -0.1066 -0.3597 -0.0261
27078W        W70094   7.534  27.205  18.105  0.2193  0.1126  0.1603
27079W        W70095  24.378  27.938  21.811 -0.0103  0.0985  0.1528
27080W        W70096   5.949  31.673  27.640 -0.1280 -0.1538  0.0336
27081W        W70097   1.239  25.614  19.632  0.0608  0.2113 -0.0196
27082W        W70098   5.938  27.919  23.582  0.2448  0.4599 -0.3822
27083W        W70099   6.852  33.147  26.325  0.0572 -0.1008  0.1245
27084W        W70100  25.728  31.770  26.913 -0.2179  0.0175 -0.1276
27085W        W70101  29.835   1.127   1.179  0.3652  0.0765  0.0666
27086W        W70102  18.803  29.923  16.874 -0.2454 -0.2482 -0.1224
27087W        W70103   2.400  32.508   6.339 -0.0073 -0.0636  0.1817
27088W        W70104  32.701  32.757   3.007  0.2373 -0.2698  0.1821
27089W        W70105  31.769  23.685  15.487 -0.1453  0.2033 -0.0219
27090W        W70106  17.864  30.738  22.083  0.0418  0.1949  0.0373
27091W        W70107   7.291  19.095  19.227 -0.0410 -0.2828 -0.0736
27092W        W70108   0.938  28.387  28.849  0.1809 -0.1352  0.0806
27093W        W70109   8.091   6.018  23.689  0.1056  0.1765  0.4494
27094W        W70110  24.134  23.413  17.483 -0.1557 -0.0007  0.3252
27095W        W70111  34.459  33.093   3.839 -0.0453  0.2661 -0.0361
27096W        W70112  32.683  21.335  18.874  0.0359 -0.1479 -0.3818
27097W        W70113  24.033  23.533   7.797 -0.2412 -0.0305 -0.0161
27098W        W70114   5.018  32.453   2.305  0.1165  0.0009  0.1680
27099W        W70115  31.190  20.176  26.042 -0.1045  0.0051  0.1327
27100W        W70116  24.569  19.286  25.775 -0.0065 -0.2826  0.1047
27101W        W70117  19.787  30.015  24.545 -0.1484 -0.0102  0.3980
27102W        W70118  29.810   5.817  15.935 -0.1112  0.0527 -0.0765
27103W        W70119   6.851  25.259   3.604  0.0706  0.1026 -0.1212
27104W        W70120  34.329  22.301  27.465  0.2961 -0.0955 -0.2860
27105W        W70121  29.676  21.738  10.969  0.0190  0.0826  0.0066
27106W        W70122  20.452  14.776  15.882 -0.0512 -0.2278 -0.2203
27107W        W70123  21.957   1.960  14.428  0.1779 -0.0342  0.1800
27108W        W70124  31.404   1.939  16.571  0.0314 -0.1350 -0.1494
27109W        W70125  30.043  20.097  21.758  0.2617 -0.1086  0.1063
27110W        W70126   3.961  32.028   6.286  0.2307 -0.4312 -0.2925
27111W        W70127  22.048  34.268  23.102  0.2185  0.3195  0.0884
27112W        W70128  33.381   3.625  25.647  0.0246 -0.1998 -0.0859
27113W        W70129  24.097  28.355  20.206  0.0118 -0.2656  0.1487
27114W        W70130   1.002  28.867  21.604 -0.3037 -0.3494  0.0410
27115W        W70131  20.594  14.787  24.834 -0.2743  0.2427 -0.2650
27116W        W70132   1.833  11.132  29.302  0.1423  0.0963 -0.1851
27117W        W70133  34.001  33.730  20.602 -0.1431 -0.4115 -0.1498
27118W        W70134   0.516   7.886  28.232 -0.4036 -0.2019  0.2219
27119W        W70135  28.215  27.265  22.456 -0.3532 -0.3532 -0.0486
27120W        W70136  31.928  33.595  15.857 -0.4854  0.1877  0.0959
27121W        W70137   1.883  28.795  20.083 -0.1567  0.0136  0.2085
27122W        W70138   5.376   5.989  22.910  0.1754 -0.2361  0.1666
27123W        W70139   0.042  30.360  21.224  0.1999  0.0794  0.1572
27124W        W70140  20.610  30.580   5.715 -0.0268 -0.0339  0.0079
27125W        W70141  24.536  30.616  26.665 -0.2018 -0.1446  0.0786
27126W        W70142  32.738  31.650  24.143 -0.1384 -0.0879 -0.0424
27127W        W70143  10.927  32.217  18.501  0.0207  0.1015  0.0292
27128W        W70144   6.949  20.251  12.825  0.0320  0.0240 -0.2128
27129W        W70145  23.513  21.162  26.354 -0.0796 -0.2732  0.2773
27130W        W70146  23.932  15.233   4.025  0.1057  0.0248 -0.2208
27131W        W70147   8.201  33.498  28.793  0.0032  0.0155 -0.1746
27132W        W70148   0.818   9.757  27.126  0.0083 -0.3767 -0.3308
27133W        W70149  33.325  25.424  22.473  0.0651 -0.0424 -0.3239
27134W        W70150   5.946  30.234   3.594  0.2106  0.0657  0.0272
27135W        W70151  28.515  33.388  18.260  0.1677  0.2870  0.0503
27136W        W70152  17.966   3.476  25.366 -0.1307 -0.0666 -0.1157
27137W        W70153  18.825  22.216  21.023 -0.3206 -0.0731 -0.1109
27138W        W70154  26.935  25.625   3.303 -0.0155 -0.1570  0.0589
27139W        W70155  20.994  32.456   5.868  0.1204 -0.1920  0.1515
27140W        W70156   3.277  24.007  17.132 -0.1532 -0.2784  0.0399
27141W        W70157  32.554  16.386  20.075  0.1275  0.3983 -0.2242
27142W        W70158  27.057  11.127  28.735  0.0777  0.2839  0.1036
27143W        W70159  25.599  24.571   2.229 -0.0796  0.0777 -0.3215
27144W        W70160   2.076  19.746  18.324 -0.0536  0.2558 -0.0468
27145W        W70161  31.430   3.677   0.736 -0.0248 -0.0776 -0.1737
27146W        W70162  14.612  20.828  21.834  0.0746 -0.1130 -0.1844
27147W        W70163   4.100  22.710  25.114 -0.2193 -0.0813 -0.0610
27148W        W70164  15.085  29.622  21.696 -0.0115 -0.0140  0.0467
27149W        W70165  24.186  32.939   5.025 -0.1125 -0.1589  0.1208
27150W        W70166   1.833  30.122  28.700  0.1517  0.0537  0.1227
27151W        W70167  10.355  31.575  19.000 -0.1136  0.1885 -0.0696
27152W        W70168  15.248   2.473   2.707 -0.2168  0.0594  0.0021
27153W        W70169  24.468  27.383  19.597  0.0749  0.2678  0.0725
27154W        W70170   8.083  26.421   0.791 -0.1750  0.0824  0.0373
27155W        W70171   6.419  25.344  22.697  0.2598 -0.0652 -0.1263
27156W        W70172  25.219  32.655   7.412 -0.3033  0.1310 -0.0473
27157W        W70173  26.087  25.230  18.707  0.0252 -0.0759  0.0077
27158W        W70174   3.097   2.446  21.920  0.2371 -0.2390  0.1145
27159W        W70175  19.070   9.136  17.697 -0.1213  0.2214  0.0205
27160W        W70176  13.440  28.817   1.272 -0.1062  0.1041  0.2342
27161W        W70177  30.307  30.405   2.350 -0.0908 -0.0879 -0.1984
27162W        W70178  26.291  15.889  24.630 -0.0211  0.2401 -0.2266
27163W        W70179  12.301  11.355  20.921 -0.1410 -0.0925  0.2583
27164W        W70180  26.019  28.617  19.950 -0.1840 -0.0987 -0.1403
27165W        W70181  31.519   3.475  10.553 -0.1949 -0.2405 -0.0775
27166W        W70182   6.714  16.115  26.016 -0.1337  0.0159  0.1239
27167W        W70183  19.277  29.474  23.453  0.0805  0.1342 -0.3028
27168W        W70184  31.768   3.406  14.776 -0.3263 -0.0754  0.2203
27169W        W70185  21.961  19.886  19.998  0.0430 -0.0911  0.2229
27170W        W70186  12.718  30.601   8.029 -0.3996  0.2197 -0.0601
27171W        W70187  26.711   3.651  26.131  0.2609  0.2408  0.2631
27172W        W70188  31.737  27.448   3.028 -0.1740 -0.2069 -0.4436
27173W        W70189  10.223   3.961  27.188  0.0806 -0.1785  0.1599
27174W        W70190   2.171  21.119  20.170 -0.1967  0.3642  0.0534
27175W        W70191  22.857  32.098   3.403  0.3781  0.0935 -0.0709
27176W        W70192  33.427  32.910  18.699  0.1302 -0.2282 -0.1766
27177W        W70193  28.003  26.330  25.168  0.1453  0.1034 -0.2033
27178W        W70194   3.771  25.831  16.506  0.1204  0.0918 -0.0963
27179W        W70195  22.504  29.824  19.287  0.5469 -0.0420 -0.3531
27180W        W70196  14.029   6.564  20.029  0.1437 -0.0838 -0.2101
27181W        W70197  28.386  24.054   1.854 -0.0264 -0.2596 -0.4204
27182W        W70198  10.580  27.674   7.103 -0.3232 -0.0790 -0.1771
27183W        W70199   1.616  10.134   4.032  0.2251  0.1882 -0.1256
27184W        W70200  32.551  16.901  23.777  0.0567  0.2274  0.1422
27185W        W70201  28.704   3.695  22.641  0.2536  0.0202 -0.0965
27186W        W70202  26.758  21.848  27.611  0.1074 -0.1876  0.1975
27187W        W70203  30.002  24.225   4.574  0.0576 -0.0927 -0.3462
27188W        W70204   0.301   8.568  29.178  0.1635 -0.0670 -0.0598
27189W        W70205  26.489  25.094  22.374 -0.1852  0.0853  0.3442
27190W        W70206  24.707  31.253  18.424 -0.0376 -0.4346  0.0050
27191W        W70207  23.567  29.276  25.721  0.0162 -0.0238 -0.0119
27192W        W70208   5.743  24.397  25.867  0.0468 -0.0229 -0.1370
27193W        W70209   1.283  26.589  25.231 -0.1745 -0.0099  0.3004
27194W        W70210  14.176  29.606   3.482 -0.3942  0.3296 -0.0218
27195W        W70211  29.916  22.554   1.845  0.0977 -0.1050  0.1724
27196W        W70212  21.152   2.754   5.796 -0.0008 -0.0571 -0.0073
27197W        W70213  17.483  24.698  26.181 -0.0005  0.1469 -0.0330
27198W        W70214  24.410  24.757  21.748 -0.4229  0.2106  0.1512
27199W        W70215  21.637  22.918  14.831 -0.4213  0.1101 -0.1387
27200W        W70216  32.665  13.908   4.688  0.0005 -0.3919 -0.0103
27201W        W70217  25.506  33.125   3.718  0.2335 -0.2646  0.0170
27202W        W70218   0.958  25.222  14.944  0.1055 -0.1310 -0.1050
27203W        W70219  19.224  21.634  26.001 -0.3643  0.2909 -0.2098
27204W        W70220  33.228  20.525  14.726  0.1074 -0.3050 -0.0490
27205W        W70221  25.590  30.505   7.362 -0.0988  0.0985 -0.2104
27206W        W70222   1.189  24.770   7.087  0.0466 -0.1156  0.2956
27207W        W70223  29.068   3.790   0.458  0.2910  0.3557  0.0676
27208W        W70224   2.491  32.424  21.211 -0.2068  0.0712 -0.1963
27209W        W70225  15.359  27.039  28.695  0.1535 -0.1566  0.2138
27210W        W70226  14.804   9.641  19.463 -0.0950  0.2361 -0.0076
27211W        W70227  31.804  32.249   6.606  0.1426 -0.1182 -0.1236
27212W        W70228  27.530   2.566  15.751  0.1500  0.0123 -0.0712
27213W        W70229  27.870   5.739  11.257 -0.1004  0.1563  0.0397
27214W        W70230  32.036  19.892  17.419 -0.2857  0.0662 -0.1435
27215W        W70231  18.269  20.830   0.943 -0.1904 -0.0192  0.0771
27216W        W70232   2.558   7.647   3.713 -0.2229 -0.0048  0.1522
27217W        W70233  22.425   4.394   9.082  0.1806 -0.0296  0.1109
27218W        W70234   3.562  22.127  21.488  0.1360  0.1496 -0.4031
27219W        W70235  25.336  30.204   0.329 -0.0861  0.1192 -0.2344
27220W        W70236  20.514  12.742  19.273 -0.2175  0.4713 -0.0306
27221W        W70237  12.389  10.425  26.827  0.0215 -0.0088  0.1598
27222W        W70238  33.420  11.282   2.871  0.0276 -0.0376 -0.1905
27223W        W70239  26.126  14.764  15.701  0.0391  0.0461 -0.0312
27224W        W70240  18.419   7.415  15.092  0.3022 -0.0930 -0.3250
27225W        W70241  21.667  30.542  19.223 -0.0257  0.0386  0.2731
27226W        W70242   5.858  25.294   3.872 -0.3050  0.2574  0.3572
27227W        W70243  12.401  18.175  14.518  0.4102 -0.2669 -0.1730
27228W        W70244  30.011   3.481   3.769 -0.2866 -0.2511  0.2284
27229W        W70245  12.899  14.529   2.553  0.1116 -0.3348  0.3632
27230W        W70246  17.971  13.129  28.946  0.1550 -0.1252  0.1573
27231W        W70247  18.050  25.013   5.469  0.1004 -0.0106  0.1215
27232W        W70248  16.643  29.578   7.645  0.1803 -0.0691  0.1266
27233W        W70249   8.978  31.133  22.070  0.3032  0.0624 -0.0194
27234W        W70250   0.945  28.659  25.268 -0.4991 -0.1608  0.2505
27235W        W70251  21.773  12.170  28.447  0.1225 -0.1021  0.0216
27236W        W70252  28.065  22.826  25.493  0.2636 -0.0801  0.2650
27237W        W70253   0.898  34.403  25.470  0.1550  0.1901  0.1236
27238W        W70254  31.676  31.204   4.335  0.1032  0.1184 -0.1358
27239W        W70255   1.109  16.520  24.707 -0.1819 -0.0172 -0.0628
27240W        W70256  10.423  32.242   7.223 -0.0495  0.1418  0.0993
27241W        W70257  21.084  24.957  27.301  0.4341 -0.4459 -0.0196
27242W        W70258  32.321  29.803   4.109 -0.1131 -0.1683  0.1311
27243W        W70259   4.016  11.092  15.683 -0.0665  0.1690 -0.1703
27244W        W70260  18.964  29.459  22.768 -0.0020  0.1459  0.1224
27245W        W70261  29.908   3.633  26.391 -0.0378 -0.0976  0.0518
27246W        W70262  33.783  12.327   4.281  0.0560  0.1517  0.1297
27247W        W70263  17.535  29.373   0.739 -0.0836 -0.0803  0.0735
27248W        W70264  27.580  34.338  17.622  0.1962  0.0190 -0.0451
27249W        W70265  32.253  24.468   3.313 -0.1495 -0.0814  0.2807
27250W        W70266  30.666  23.182   6.552  0.2248 -0.0246  0.2412
27251W        W70267  22.279  32.310   1.043 -0.0006  0.3050  0.0110
27252W        W70268  22.163  23.177  26.671 -0.1285  0.0428  0.0443
27253W        W70269  10.028  33.311  20.500  0.2424 -0.1966  0.3063
27254W        W70270   1.856  27.258   0.313  0.0909  0.0167  0.1869
27255W        W70271  19.151  28.935  26.883 -0.0920 -0.2383  0.2580
27256W        W70272  33.498  22.803  27.793  0.0275 -0.1098  0.0291
27257W        W70273  26.769  24.511   4.701 -0.4155  0.1370 -0.0528
27258W        W70274  31.535   8.432  10.369  0.4203 -0.0349  0.0028
27259W        W70275   8.879   5.545   9.283  0.0570 -0.0054  0.2641
27260W        W70276  23.244   1.851  19.452  0.4110 -0.4216 -0.2138
27261W        W70277  27.003  25.925   8.872  0.3821  0.1105  0.1780
27262W        W70278   2.929  27.037  19.364  0.1443  0.2420 -0.0447
27263W        W70279   0.213   1.357   7.107  0.1220  0.1874  0.0528
27264W        W70280  32.861  13.529   5.145  0.0589 -0.0538 -0.1360
27265W        W70281   7.149  32.409  10.161  0.1158  0.0301 -0.4369
27266W        W70282  17.249  28.831   6.146  0.1864 -0.4298  0.0509
27267W        W70283  17.734   2.093  19.139 -0.4419  0.4705  0.0431
27268W        W70284   6.159  34.088   4.282  0.0381  0.1282  0.0157
27269W        W70285  22.261  16.755   7.928  0.1617 -0.0177  0.1821
27270W        W70286  33.032   9.546  23.525  0.0491  0.2999 -0.1882
27271W        W70287  21.090  15.944  23.081  0.1181  0.0992  0.1295
27272W        W70288   7.120  34.521  25.978 -0.2016 -0.0905 -0.0165
27273W        W70289  22.200  21.397   7.940 -0.0261 -0.2405 -0.1065
27274W        W70290  28.015  16.057   6.205 -0.2870  0.2849 -0.3232
27275W        W70291  23.841  28.461   3.832  0.3356 -0.1734  0.2238
27276W        W70292  30.464   1.432   6.048 -0.1196  0.3559 -0.2240
27277W        W70293  25.735  32.084   3.834 -0.1074 -0.1361  0.1803
27278W        W70294   4.541  26.910   6.428  0.1854  0.4375 -0.3525
27279W        W70295  25.361  11.703  27.816  0.0342  0.2271 -0.1005
27280W        W70296   0.813   3.943  28.964  0.1422 -0.0209  0.0211
27281W        W70297   5.632  11.526  26.137  0.0211  0.1057 -0.1574
27282W        W70298  15.533  23.552   8.272 -0.1864  0.1964  0.1143
27283W        W70299   4.335  27.948   8.047 -0.0051  0.1210 -0.2672
27284W        W70300  23.955  19.534  27.230  0.2715  0.1329 -0.0199
27285W        W70301  10.871  32.629  21.351 -0.0805  0.1622  0.3076
27286W        W70302  12.156  28.577   1.306 -0.1037 -0.0754 -0.0424
27287W        W70303  30.904  28.581  18.778 -0.3081  0.4885  0.0675
27288W        W70304  19.633  20.346  23.553 -0.1994  0.1334  0.1136
27289W        W70305  17.711   1.013   4.743 -0.1911 -0.0943  0.1803
27290W        W70306  16.953  14.938  21.606  0.2707 -0.0591 -0.0828
27291W        W70307   9.792  18.707  14.987 -0.0891  0.1535  0.0844
27292W        W70308   8.300  23.942   4.103 -0.0356  0.2297  0.1515
27293W        W70309  27.599  30.351  22.239 -0.2166  0.0774  0.0978
27294W        W70310  31.707  29.530  11.040 -0.0910 -0.0559  0.2087
27295W        W70311  11.211   4.355  18.471  0.1051  0.1714  0.0006
27296W        W70312  33.526  20.174  25.896 -0.0772  0.1042 -0.1598
27297W        W70313   1.225  28.046   0.951 -0.0795 -0.1353  0.0891
27298W        W70314   2.711  23.699   2.662  0.3874 -0.0736  0.0781
27299W        W70315   3.275  17.956  15.868  0.0072  0.2990  0.1856
27300W        W70316  34.317  29.632   6.468  0.0768  0.1217 -0.1554
27301W        W70317  20.316  27.011  22.569  0.0606  0.0268 -0.1075
27302W        W70318   1.853  10.909  16.913 -0.2551 -0.1257  0.2485
27303W        W70319   6.452  27.704  20.486  0.0138  0.2570 -0.3767
27304W        W70320  29.358  20.313   2.212 -0.0988  0.1464 -0.2983
27305W        W70321   8.935  10.809   1.212  0.0634 -0.1050  0.3478
27306W        W70322  25.496  34.425  22.650  0.0506  0.0189 -0.1003
27307W        W70323  10.077  21.189  26.275 -0.3886  0.0635  0.2942
27308W        W70324  22.788  14.992  19.994 -0.2001  0.0836  0.3610
27309W        W70325  29.376  28.285  11.033 -0.3883 -0.3495 -0.3709
27310W        W70326  14.779   3.252   1.620  0.1897 -0.1978 -0.1745
27311W        W70327  33.687  17.974  28.900 -0.3267 -0.2368 -0.0627
27312W        W70328  17.851  30.238   3.663 -0.2509 -0.2783  0.0684
27313W        W70329   5.643  14.466  19.291  0.0383  0.2991  0.0686
27314W        W70330  29.930  33.268  19.871  0.0463  0.0115  0.1529
27315W        W70331  27.973  34.395   3.217 -0.2399  0.3226 -0.1758
27316W        W70332  27.678  24.533   8.009 -0.1316  0.3758 -0.1608
27317W        W70333  18.063  19.399   3.837 -0.2433 -0.2031  0.2036
27318W        W70334  24.742  32.043  21.917 -0.1073 -0.0443 -0.1008
27319W        W70335  28.190  27.317   5.024  0.3275  0.0881  0.0939
27320W        W70336  34.312  26.558  22.774  0.3432  0.2150 -0.1572
27321W        W70337   5.743  32.636   2.940  0.0683 -0.0923  0.0904
27322W        W70338   0.584  29.399   9.043  0.1501 -0.0249 -0.1033
27323W        W70339  32.415  23.753  19.454  0.0211 -0.0493  0.0860
27324W        W70340   9.707   3.692  22.697  0.1153 -0.1880  0.0007
27325W        W70341   5.608   3.346  19.596  0.1573 -0.0283 -0.0556
27326W        W70342  22.759  19.803  24.474 -0.1301 -0.1535  0.1897
27327W        W70343  27.122   1.638  22.400 -0.2193 -0.1470  0.0089
27328W        W70344   2.657  22.412  27.383  0.2408 -0.0063 -0.0917
27329W        W70345  31.381  28.412  10.746  0.1290 -0.2392 -0.0493
27330W        W70346  24.817  30.461  14.228 -0.0481  0.0318  0.2401
27331W        W70347  16.452  34.058   8.259 -0.2956  0.1348  0.2401
27332W        W70348   5.489  21.435  23.444 -0.0680  0.0229 -0.1175
27333W        W70349  22.700   5.734  17.132  0.1393 -0.2453 -0.1882
27334W        W70350  27.912  26.558   8.555  0.2893  0.1770 -0.3529
27335W        W70351  29.255   3.467   3.204  0.0270  0.0141 -0.1462
27336W        W70352  27.484   2.180  27.258 -0.0349  0.0080  0.1249
27337W        W70353  26.317  17.032   5.069  0.0483 -0.1459  0.0089
27338W        W70354  34.272  24.856   7.685 -0.2473  0.2953 -0.0877
27339W        W70355  14.854  27.590  22.714 -0.0412  0.2424 -0.3055
27340W        W70356  13.970  27.436  25.674  0.2092 -0.4275  0.3134
27341W        W70357  32.910  18.017   7.486 -0.2284 -0.0866  0.2079
27342W        W70358   0.323  30.122  27.325  0.1668 -0.0436  0.1000
27343W        W70359  10.810  22.406   2.360 -0.0742 -0.2857 -0.2912
27344W        W70360  16.296  32.734  29.280  0.2335 -0.2612 -0.2711
27345W        W70361  22.883  26.576   5.792 -0.0694  0.2079 -0.0218
27346W        W70362  22.096  20.882  27.968 -0.2110 -0.0071 -0.2137
27347W        W70363  23.222  18.510   2.713 -0.0003  0.0025 -0.3057
27348W        W70364   1.021   0.900  15.381  0.3476 -0.5014  0.2571
27349W        W70365  16.138  23.543   1.598  0.0229 -0.0797  0.0595
27350W        W70366  18.490  27.815  14.747  0.3532 -0.0393 -0.0848
27351W        W70367   6.561  15.211  28.946 -0.0665 -0.0125 -0.1099
27352W        W70368  13.563  16.183   3.286  0.3858 -0.1967 -0.1684
27353W        W70369  17.663  34.287  28.833 -0.0605 -0.1075 -0.5071
27354W        W70370  18.256  19.947  23.325  0.1175 -0.0729  0.1652
27355W        W70371  30.796  24.041   9.814 -0.0040  0.2964  0.2316
27356W        W70372  26.785  20.636   4.680  0.0562  0.2430  0.1528
27357W        W70373   9.988  18.977   0.697  0.2717  0.3276 -0.4459
27358W        W70374  30.320  11.335  28.753  0.0860  0.1053 -0.0049
27359W        W70375   1.604  27.814   3.663  0.1989  0.0225 -0.1214
27360W        W70376  30.191  33.511   7.309  0.0188  0.1379 -0.1726
27361W        W70377  25.837  18.055  25.541  0.0400 -0.1262 -0.3481
27362W        W70378   4.978  26.107   6.799  0.3644  0.1611  0.2322
27363W        W70379  29.213   9.381  24.070 -0.0574  0.1646 -0.0294
27364W        W70380  28.140  17.705   3.934 -0.0780 -0.0240 -0.0650
27365W        W70381  28.780  21.928  22.792  0.3374 -0.2048  0.0089
27366W        W70382   1.072  18.868  27.044 -0.0958 -0.2948 -0.0068
27367W        W70383  22.225  12.781  25.896 -0.2863  0.2526 -0.0161
27368W        W70384  19.017  28.221   8.123 -0.0100 -0.0509  0.1639
27369W        W70385  28.625  21.666   7.370  0.2702  0.1098  0.1831
27370W        W70386  14.816   8.879  27.319 -0.1921  0.0062  0.0680
27371W        W70387  17.248  32.229   1.115  0.0833 -0.0595  0.1274
27372W        W70388  18.583  29.158   5.769  0.1157  0.0613  0.1900
27373W        W70389   2.514   4.007   9.392  0.2854 -0.0552 -0.0689
27374W        W70390  32.718   9.440   4.551 -0.2674 -0.1836  0.0791
27375W        W70391  14.867   2.263   9.429 -0.0940  0.2745 -0.2583
27376W        W70392  30.442  24.679  28.759 -0.0158 -0.2822  0.0723
27377W        W70393  14.009   1.223   7.408  0.0307 -0.1973 -0.1279
27378W        W70394   5.399  24.957   3.866 -0.1818 -0.0748 -0.2129
27379W        W70395   9.677  15.744  18.572 -0.2864 -0.0253  0.2510
27380W        W70396  25.882   1.990   3.227  0.0573  0.1505  0.1652
27381W        W70397  18.808  22.066   8.372 -0.2743 -0.2203  0.0863
27382W        W70398  19.566   2.853  20.900  0.4588 -0.0904 -0.3393
27383W        W70399  12.168  27.482   6.512  0.0277  0.1781  0.0583
27384W        W70400  12.850  12.138   0.866 -0.0475  0.0693  0.0716
27385W        W70401   3.787  32.513  15.388  0.0818 -0.1859 -0.1122
27386W        W70402  27.998   2.088  27.211  0.0231 -0.1687 -0.0296
27387W        W70403   2.223  14.291  18.230 -0.0606 -0.3284  0.1372
27388W        W70404   1.004   1.298  22.033  0.1255 -0.1686 -0.0027
27389W        W70405  33.720  33.393   6.143  0.0846  0.0647 -0.0985
27390W        W70406  23.949  34.273   4.600  0.0299 -0.0153  0.2634
27391W        W70407  30.584  16.864   1.806  0.0991  0.3436  0.0896
27392W        W70408  19.294   1.026  20.883  0.0011  0.2995 -0.0707
27393W        W70409  11.921  18.004  20.654  0.3608 -0.1593 -0.4315
27394W        W70410  14.530  28.758   4.074 -0.0995  0.0838 -0.0276
27395W        W70411  10.642  34.499   2.465 -0.1981 -0.1978  0.0003
27396W        W70412  27.526  15.219  14.923 -0.0131 -0.1590  0.3509
27397W        W70413  31.701  28.672  19.292  0.0461  0.0341  0.0383
27398W        W70414  21.642  23.339  26.452  0.3187 -0.0455 -0.1341
27399W        W70415   5.042  31.729  28.676 -0.1481  0.1136  0.2551
27400W        W70416  31.710  32.631   3.275 -0.1677  0.2980  0.3528
27401W        W70417   5.329  25.913  16.397  0.0561  0.1891 -0.1212
27402W        W70418  22.398  11.318   4.745 -0.0099 -0.2338  0.2031
27403W        W70419  17.934  26.752   3.398 -0.2781  0.4850  0.0725
27404W        W70420  32.316  27.053  28.435  0.1797 -0.0396 -0.3815
27405W        W70421  24.434  24.789  23.112 -0.1308  0.1542 -0.3220
27406W        W70422  16.891  25.189   3.973 -0.3280  0.1600 -0.3882
27407W        W70423  26.299  19.700   4.725  0.3293  0.2565  0.0333
27408W        W70424  29.955  29.963  15.881 -0.1092 -0.0094 -0.0433
27409W        W70425  22.276   8.778   2.597 -0.0507  0.1385  0.1081
27410W        W70426   1.190  30.553   8.926 -0.2748  0.5502  0.1220
27411W        W70427   8.960  31.481   5.899 -0.0151  0.2654  0.0469
27412W        W70428  28.046  13.123   7.159 -0.2178  0.3444 -0.1929
27413W        W70429  29.113  33.890  21.336 -0.0822  0.2741  0.1684
27414W        W70430  20.463  21.031   7.995 -0.1034 -0.0828  0.5185
27415W        W70431  28.814   1.814  10.979 -0.0207  0.2363 -0.2825
27416W        W70432  33.027  34.388  22.323  0.1887 -0.0874 -0.1177
27417W        W70433  26.952  27.789  26.424 -0.1136  0.1085 -0.1024
27418W        W70434   8.362  23.127  18.325 -0.4391 -0.0144 -0.1162
27419W        W70435  11.688  32.621   0.059  0.1388  0.2393  0.0560
27420W        W70436  20.137  31.114  19.793  0.3479  0.0382  0.4578
27421W        W70437  22.077  31.081  19.964 -0.2108  0.1840 -0.0726
27422W        W70438   0.220  30.639  22.555  0.0995  0.0408  0.4396
27423W        W70439  29.819  28.362   6.952  0.5080  0.1840 -0.2753
27424W        W70440  34.122  17.950   5.314 -0.1587  0.0534 -0.0675
27425W        W70441  28.230   7.074   5.419 -0.2918  0.1627  0.1070
27426W        W70442  28.092  21.074   9.405  0.1970  0.0619  0.2604
27427W        W70443   3.555  28.764   8.869 -0.5138  0.3494  0.0493
27428W        W70444   3.973  31.220   8.730  0.1374  0.6521 -0.0669
27429W        W70445  23.795  19.453  27.659 -0.1757 -0.2223  0.0070
27430W        W70446   3.146  33.835   5.906 -0.1205 -0.0086  0.1313
27431W        W70447  21.458  19.725   3.054 -0.0193 -0.0510 -0.4024
27432W        W70448  32.687   1.859   0.015 -0.1454 -0.1925  0.0141
27433W        W70449  25.554  24.050  21.020 -0.1794  0.0902 -0.0668
27434W        W70450  29.689  29.904   6.095  0.0421 -0.0106  0.0960
27435W        W70451  25.082  29.372  16.958 -0.2619 -0.2873  0.0156
27436W        W70452   9.000  18.496   8.507  0.1420  0.2657  0.1472
27437W        W70453  23.039   2.868  27.654  0.1180  0.1692 -0.2435
27438W        W70454  14.448  30.262   9.913 -0.0037 -0.1067 -0.0647
27439W        W70455  13.171   0.367  20.727 -0.3950  0.0532  0.0406
27440W        W70456  29.852  27.103  29.135 -0.2032 -0.0581  0.2284
27441W        W70457  20.335  20.379  26.219  0.3307 -0.1653 -0.1477
27442W        W70458  10.482  20.375  23.816 -0.0818 -0.0521 -0.3160
27443W        W70459   3.145  28.948  28.399  0.1825  0.0524  0.0696
27444W        W70460  19.588  33.771  22.618  0.0449 -0.1501 -0.3514
27445W        W70461  14.369   1.781  26.278 -0.0528  0.0207 -0.1020
27446W        W70462  27.023  24.252  29.316 -0.2144 -0.1208  0.0009
27447W        W70463  23.847  29.374   0.747 -0.2650  0.0342 -0.1471
27448W        W70464   4.965  33.996   1.529  0.0745  0.0016 -0.0289
27449W        W70465  34.698   3.357   1.799 -0.1645  0.0159  0.2125
27450W        W70466  13.556  25.864   7.616 -0.1257 -0.0489  0.3225
27451W        W70467  20.706   2.897  28.596 -0.1389 -0.1966  0.1429
27452W        W70468   3.219  31.439  17.682 -0.1510 -0.0196  0.0124
27453W        W70469  18.546   8.155   5.934  0.0726  0.0292 -0.2245
27454W        W70470  21.268  19.513  20.461 -0.2936  0.0269  0.0212
27455W        W70471   9.591  28.031  25.759 -0.0182  0.0204  0.1847
27456W        W70472  22.320   9.190   1.059 -0.0942 -0.0228  0.1198
27457W        W70473  26.173   2.528  29.046 -0.0563 -0.1186 -0.1896
27458W        W70474   9.474   2.416   2.360 -0.0188  0.0872  0.0562
27459W        W70475  27.839   0.974  24.456  0.4337  0.1640  0.1722
27460W        W70476  26.062  26.169   1.733  0.0709  0.1232 -0.2439
27461W        W70477  20.619   5.217  25.005  0.0631  0.0128  0.1437
27462W        W70478  28.380  29.617   7.056  0.1238 -0.2914  0.0293
27463W        W70479  25.465  11.403   2.960  0.0946  0.0972 -0.1074
27464W        W70480  31.891  19.098  23.714 -0.1460  0.0256  0.1695
27465W        W70481  28.685   4.061   9.864 -0.0159  0.1889 -0.1984
27466W        W70482  27.394  26.665   7.684  0.1092  0.1482  0.0169
27467W        W70483   1.940   4.391   8.352  0.1084 -0.0407 -0.1871
27468W        W70484  22.693  30.542  27.514  0.4617 -0.1637  0.0422
27469W        W70485  28.524  28.671   9.057 -0.1947  0.2572 -0.1839
27470W        W70486  22.785  23.833   8.363 -0.1190 -0.0998 -0.0214
27471W        W70487   0.182  17.778  27.969 -0.1033 -0.1052 -0.1866
27472W        W70488  11.730  32.614  16.380 -0.3952  0.0983  0.1556
27473W        W70489  29.207  30.485  23.400  0.3844  0.2230 -0.0583
27474W        W70490  17.636  26.647   9.968  0.3862  0.3436 -0.0779
27475W        W70491  24.155  27.622  26.874  0.0292  0.0347 -0.1702
27476W        W70492  13.992  34.741  28.566  0.0036  0.0850 -0.0243
27477W        W70493  24.036  20.927   0.084 -0.3656  0.2283 -0.0935
27478W        W70494   6.109  29.195   3.454  0.0998  0.1527  0.0953
27479W        W70495  29.043  29.607   0.363  0.1657  0.0145  0.1934
27480W        W70496  23.567  14.851  27.028  0.2278  0.1427  0.0101
27481W        W70497   0.530  26.916   7.560  0.0485 -0.2981  0.1564
27482W        W70498   9.504  17.708  15.895  0.2456 -0.0849  0.0697
27483W        W70499  20.162  26.367   3.216  0.0417  0.3571  0.1027
27484W        W70500  14.514  12.915  26.764  0.0495  0.0089 -0.0892
27485W        W70501  21.588   0.500  21.048  0.1627  0.4371 -0.0227
27486W        W70502  31.553  20.831  20.742 -0.1762  0.0864  0.1896
27487W        W70503  11.651   2.865  10.061 -0.1209  0.0606 -0.1160
27488W        W70504  27.033  12.402   4.853  0.2096  0.0470  0.0647
27489W        W70505  21.260  13.315   2.503 -0.0455 -0.0793  0.3527
27490W        W70506   4.758  19.778  28.013 -0.1049 -0.0685  0.1144
27491W        W70507  29.206  15.846   9.383 -0.1638 -0.1630 -0.2705
27492W        W70508  21.549  11.260  23.484  0.2228 -0.0871  0.1193
27493W        W70509  34.514  31.356  17.793 -0.2729  0.1310  0.0377
27494W        W70510  18.865  26.171   1.287 -0.1380 -0.0754 -0.3158
27495W        W70511   6.068  20.891  28.510 -0.0612 -0.2913 -0.2479
27496W        W70512  24.185   0.753  16.333 -0.3490  0.2177 -0.0560
27497W        W70513  31.323  19.592   3.761  0.1247 -0.1788 -0.1419
27498W        W70514  11.230   0.721   7.951 -0.1259 -0.0383 -0.0557
27499W        W70515  15.302  26.721  29.007 -0.0022  0.1934  0.1173
27500W        W70516  22.594   6.124   5.948  0.0704 -0.1943 -0.0051
27501W        W70517  32.917  23.036  20.508  0.0777  0.2823  0.0381
27502W        W70518   4.557  28.528  23.190  0.0026 -0.0938  0.1332
27503W        W70519  22.043   3.274   8.514  0.1016  0.3305 -0.0875
27504W        W70520  15.519  28.619  25.615  0.2989  0.0517 -0.0538
27505W        W70521  22.097  23.904   1.558  0.3943 -0.0262 -0.0353
27506W        W70522  20.038  16.241  25.912  0.1574 -0.1751  0.2399
27507W        W70523  20.704  33.744  15.350 -0.2409 -0.0619  0.2797
27508W        W70524   6.171  28.858  15.243  0.3466  0.0520 -0.0653
27509W        W70525  17.398  22.474   3.070 -0.1532 -0.1530 -0.0363
27510W        W70526  33.661   0.212  27.844 -0.0717  0.0873 -0.3109
27511W        W70527  30.164  17.829  15.656 -0.3032 -0.2392 -0.3082
27512W        W70528  23.701  31.886  27.262  0.1204  0.0192  0.3770
27513W        W70529   1.421  13.320  27.522  0.0661 -0.0802  0.3385
27514W        W70530  29.107   7.298   4.699  0.2038  0.0631  0.1700
27515W        W70531  25.302  33.776  19.656  0.0400 -0.0202  0.0434
27516W        W70532  31.493  25.954   6.098  0.5662 -0.3533 -0.2259
27517W        W70533  32.288  23.817  15.522  0.2772  0.2410 -0.3433
27518W        W70534  26.262  25.506  11.826  0.0472  0.0292 -0.2603
27519W        W70535  26.309  34.740   1.114 -0.3626 -0.2547  0.3273
27520W        W70536  17.533  14.239  28.788 -0.3278 -0.2106  0.1575
27521W        W70537  31.560  15.722   3.453 -0.2400  0.1332  0.0328
27522W        W70538  12.397  17.469   2.305  0.0173 -0.1399  0.0348
27523W        W70539  12.610   0.998   0.722  0.0210 -0.2341  0.1792
27524W        W70540  21.032  34.050   2.677 -0.1705 -0.4450  0.0121
27525W        W70541  29.109  34.004  17.652 -0.2813 -0.1708 -0.0793
27526W        W70542   1.288  28.379  16.047 -0.1905 -0.0183 -0.2918
27527W        W70543  28.487  26.416  25.300  0.0227 -0.1788 -0.1210
27528W        W70544   9.694  22.451   3.637  0.1271 -0.0224 -0.3056
27529W        W70545  27.498  29.199   3.837 -0.1476 -0.2823  0.1462
27530W        W70546  29.880  17.093   8.802 -0.0823  0.0339 -0.0058
27531W        W70547  16.488  18.370  22.438  0.1914  0.3431  0.0592
27532W        W70548  20.649  33.628   5.199 -0.0175  0.1856  0.0403
27533W        W70549  17.799  34.527  15.239 -0.3701 -0.1155 -0.0144
27534W        W70550  33.454  25.264   0.950 -0.1224 -0.1078  0.2559
27535W        W70551  27.977   8.831   7.692  0.0961 -0.1492 -0.3243
27536W        W70552  21.091  15.041  24.832 -0.0770 -0.0177  0.0861
27537W        W70553  30.280  28.175   7.676 -0.1923 -0.0693  0.0904
27538W        W70554  25.603  27.549  27.018 -0.0856  0.2123  0.0950
27539W        W70555  19.611  25.351  29.264 -0.1151  0.0330  0.2376
27540W        W70556   8.745  34.507   7.812  0.0252  0.3000 -0.2321
27541W        W70557  24.682  31.884   5.939  0.0155 -0.1914  0.1979
27542W        W70558  28.146  30.001   4.595  0.1205  0.0003  0.2347
27543W        W70559  20.410   3.514  22.416  0.0583  0.1917 -0.2486
27544W        W70560  17.339  31.654   7.273 -0.0974  0.1463  0.1673
27545W        W70561  23.097  20.556  17.693 -0.2375  0.1520  0.0912
27546W        W70562  20.405  30.715  18.999 -0.1786  0.1039  0.1363
27547W        W70563  19.492  23.598   7.165  0.3616 -0.1854 -0.0371
27548W        W70564  30.510   8.452  26.166 -0.0824  0.2498  0.0232
27549W        W70565  19.102  27.713   0.369  0.2232 -0.0467  0.0370
27550W        W70566  13.188  21.728   7.362 -0.2156  0.2878 -0.1086
27551W        W70567  24.331  31.516  15.356 -0.1110  0.0463 -0.2623
27552W        W70568  21.304  29.420  27.388 -0.2026  0.0062 -0.5404
27553W        W70569  29.265  19.475   6.894  0.0658  0.0550  0.2963
27554W        W70570   5.196  25.832  25.580  0.1429 -0.2503  0.0239
27555W        W70571   0.875   8.753   6.148  0.0209 -0.1885 -0.1269
27556W        W70572  21.168  30.352  10.848 -0.0693 -0.1538 -0.0240
27557W        W70573  32.778  33.942  24.181  0.3465  0.0368  0.1679
27558W        W70574  15.324  25.430  21.238  0.2114  0.2479  0.0436
27559W        W70575   5.598  30.340  10.286 -0.2263 -0.0060 -0.1598
27560W        W70576   0.146  11.781   3.163  0.1114 -0.5317 -0.2217
27561W        W70577  19.923  32.806  24.008  0.1032 -0.0555  0.1316
27562W        W70578  31.903  24.455  26.171 -0.1418  0.0831  0.1322
27563W        W70579  14.177   3.046  20.317 -0.0811  0.4719  0.0180
27564W        W70580  14.271  24.898  19.799  0.0012 -0.2287 -0.0242
27565W        W70581  33.169  26.375  19.573 -0.0673 -0.0155  0.0124
27566W        W70582  24.173   9.047   4.240 -0.2807  0.3247 -0.1314
27567W        W70583  24.385  29.090  21.109 -0.0226 -0.0137 -0.1557
27568W        W70584   0.052  31.077  17.503 -0.0589  0.0236  0.1849
27569W        W70585  26.928   2.267  27.325  0.0630 -0.3121 -0.0031
27570W        W70586  33.191  31.023   0.974  0.0091  0.0228 -0.1820
27571W        W70587  19.865  29.724   6.670  0.0406  0.2508 -0.2525
27572W        W70588  33.542  27.973  28.267 -0.0865 -0.1385 -0.1500
27573W        W70589  18.931  34.039   1.408  0.1407  0.3934 -0.0620
27574W        W70590  27.863  15.958   3.074  0.1178  0.2870  0.0640
27575W        W70591  13.690   9.862  27.079  0.1349  0.0292 -0.0226
27576W        W70592  30.372  10.046   7.216  0.3020 -0.3032  0.2655
27577W        W70593  20.900  19.068  25.741 -0.3475  0.0715  0.1787
27578W        W70594  12.727  25.767   1.637 -0.1723  0.1123  0.0907
27579W        W70595   1.585  32.388  26.117  0.4064 -0.2724  0.0543
27580W        W70596  11.363   1.662  28.132  0.2008 -0.0150  0.1374
27581W        W70597  22.523   1.826  17.089  0.0281 -0.3135  0.1862
27582W        W70598  31.913   5.402   3.544 -0.0036  0.0697 -0.1346
27583W        W70599  22.735  12.663  27.029  0.0680  0.0258 -0.0937
27584W        W70600  20.043  23.039   7.394  0.0519  0.2702 -0.1745
27585W        W70601   2.509  33.015   2.665 -0.2085  0.0511 -0.0477
27586W        W70602   6.876  20.991   4.952 -0.0327 -0.2754 -0.5586
27587W        W70603  20.613  31.511  27.279  0.4204  0.2230  0.1082
27588W        W70604  33.287   0.274   0.374 -0.1817 -0.4710  0.2576
27589W        W70605   5.148  30.193  18.542 -0.0888  0.1393 -0.0170
27590W        W70606  16.527  30.012  28.242  0.2788  0.0701 -0.2078
27591W        W70607  29.579   2.842  18.223 -0.1786 -0.1027 -0.0226
27592W        W70608  17.112  24.514  23.627 -0.2637  0.1468 -0.0160
27593W        W70609   7.212  18.381  25.780 -0.0144 -0.0418 -0.0005
27594W        W70610   4.956  25.553  28.581 -0.3981  0.2071 -0.0815
27595W        W70611   7.450  29.744   3.434 -0.1087  0.0272  0.2853
27596W        W70612   5.184  10.444   5.534  0.1270 -0.0863 -0.0572
27597W        W70613  20.914  17.921  28.775  0.2275  0.0024 -0.1311
27598W        W70614  14.117  27.159  26.314 -0.2794 -0.1230  0.1377
27599W        W70615  14.474  28.049   3.792  0.0722 -0.1455 -0.1342
27600W        W70616   0.114  25.430   6.751 -0.0499 -0.1035 -0.1041
27601W        W70617   9.409  26.547   6.628 -0.0637 -0.0604  0.0332
27602W        W70618  28.434  28.771   7.621 -0.0181 -0.5292  0.1202
27603W        W70619  23.432   5.042   8.092 -0.3345  0.1038  0.2859
27604W        W70620  27.006   4.009   3.735 -0.0651 -0.0781 -0.1908
27605W        W70621  24.630  23.160  17.507  0.2316 -0.2299 -0.0450
27606W        W70622   3.588  29.842  10.817  0.1374 -0.0359 -0.2359
27607W        W70623  17.229  16.452  21.525 -0.0701 -0.1418  0.4094
27608W        W70624  12.587  19.411  25.962 -0.0494  0.1542 -0.3306
27609W        W70625  15.690   0.199  22.001  0.1479  0.0250 -0.1723
27610W        W70626  28.492   2.305  10.193  0.1680  0.0075  0.1082
27611W        W70627  34.406  31.145  25.878  0.1573 -0.0646  0.0463
27612W        W70628  20.169  27.055  29.279  0.1058  0.1865  0.3078
27613W        W70629  11.515  14.928  21.702 -0.1522  0.5068 -0.3670
27614W        W70630   2.320  32.855   5.897 -0.2864  0.5204 -0.2877
27615W        W70631  32.917   9.036  29.145  0.3771 -0.0442  0.0487
27616W        W70632  34.700  32.866   1.687 -0.1454  0.0751 -0.2178
27617W        W70633   8.548  34.622  16.911 -0.1174 -0.0141 -0.0032
27618W        W70634  29.766  19.908  26.827 -0.1237  0.0208  0.1621
27619W        W70635  30.734  33.491  25.351 -0.1969 -0.2181  0.1846
27620W        W70636   6.037  28.562   3.530 -0.1187 -0.0528  0.1606
27621W        W70637  30.639  31.884   2.453 -0.0137  0.0121 -0.4587
27622W        W70638  25.275   4.222  27.070  0.0716 -0.1784 -0.0297
27623W        W70639  24.079   2.050   5.033 -0.2879 -0.0463  0.0726
27624W        W70640  26.107  23.570  26.626 -0.1064  0.0851  0.1283
27625W        W70641  24.119  32.378   0.622  0.1993  0.2160  0.1362
27626W        W70642  24.375  30.074  17.184 -0.2897 -0.1895 -0.2485
27627W        W70643  18.223  27.959   5.311  0.2148 -0.1438  0.1024
27628W        W70644  24.024   2.475   4.180 -0.1957  0.1423 -0.0101
27629W        W70645  28.358  27.705   3.682 -0.3802 -0.0127 -0.2393
27630W        W70646  30.056  22.268   0.627  0.0291  0.0461  0.3315
27631W        W70647   6.545  24.745  22.533 -0.2444  0.1940 -0.4442
27632W        W70648  21.113  26.891   2.297 -0.1763 -0.1720  0.2197
27633W        W70649  15.096  25.760   2.416 -0.0362 -0.2119 -0.0524
27634W        W70650  18.343  30.733  29.087 -0.0789  0.2046  0.2361
27635W        W70651  25.559   6.231  24.146  0.0058 -0.2109  0.0515
27636W        W70652  21.273  13.964   4.518  0.1300 -0.3150 -0.0040
27637W        W70653  21.858  19.214   6.486  0.0941 -0.1428 -0.1029
27638W        W70654  33.477  23.491  27.992 -0.0519  0.2831  0.1984
27639W        W70655  14.907  31.466   8.827 -0.0708  0.3350  0.1830
27640W        W70656  25.572   5.925   9.511 -0.1579  0.2578 -0.1476
27641W        W70657  18.959  31.473  17.875  0.1492 -0.4062  0.3256
27642W        W70658   5.841  13.595  27.789  0.2890  0.2348  0.5437
27643W        W70659  28.171  27.231   6.676 -0.0357 -0.0465 -0.0531
27644W        W70660  23.768  16.166  19.678  0.0122 -0.0726  0.1866
27645W        W70661  25.699  25.831  28.033  0.2732  0.0666  0.1480
27646W        W70662   9.814  27.767  17.102 -0.0803 -0.1331 -0.0768
27647W        W70663   2.517  19.852  27.285  0.2871  0.0409 -0.0230
27648W        W70664  24.296  19.335   7.551 -0.0925 -0.2079  0.2503
27649W        W70665  28.623  25.426  23.584  0.0355 -0.0160  0.1889
27650W        W70666   0.878  23.369   6.726 -0.0013 -0.2334 -0.3135
27651W        W70667  21.941  17.720  21.484 -0.4583  0.0295  0.1224
27652W        W70668   6.398  21.981   5.214 -0.1296 -0.1851 -0.1342
27653W        W70669  17.293  15.534  26.622  0.2932  0.4034  0.3746
27654W        W70670  27.017   0.032  28.396 -0.0517 -0.0534  0.0229
27655W        W70671  29.401  20.106  27.168  0.3030 -0.1571  0.0965
27656W        W70672  34.742  20.151   0.563 -0.1917 -0.4003 -0.3584
27657W        W70673  28.916  13.893  22.637  0.1179 -0.0809  0.2040
27658W        W70674  20.647   5.780   4.278  0.1003 -0.3623  0.0886
27659W        W70675  33.589  32.046  11.610  0.0116  0.1761  0.0274
27660W        W70676   0.860  10.194  10.152  0.3927  0.1962  0.0821
27661W        W70677  17.563  34.670  15.791  0.1991 -0.0112  0.4493
27662W        W70678  11.500   7.660  14.748  0.1423  0.0458  0.0420
27663W        W70679  30.856  15.964  16.355 -0.1941 -0.1144  0.4268
27664W        W70680  28.979   4.669   0.506 -0.0341 -0.1717  0.2252
27665W        W70681   3.830  20.174  27.767 -0.0299 -0.1347  0.0930
27666W        W70682  22.771  27.234  20.196  0.1572 -0.1210  0.1994
27667W        W70683   2.324  32.774  27.687 -0.1741 -0.0432  0.2380
27668W        W70684  26.035  32.354  28.252 -0.1713  0.1819 -0.2013
27669W        W70685  17.783  12.508  20.002  0.4096 -0.1186 -0.0806
27670W        W70686   0.359  14.157  17.652  0.0603 -0.0159 -0.2823
27671W        W70687  21.486   2.863  19.583  0.0058  0.2739 -0.0175
27672W        W70688  34.660  27.441  20.996 -0.0840  0.0710  0.1650
27673W        W70689  27.107  26.497  20.334  0.0171 -0.1551 -0.0016
27674W        W70690  23.083  27.175  16.874  0.1273 -0.1492  0.3090
27675W        W70691  31.325  21.172  27.429 -0.0720  0.2235  0.1183
27676W        W70692  15.747   0.671  17.746 -0.0493  0.0092  0.0316
27677W        W70693  27.791   6.294  16.521 -0.0926  0.0970  0.1464
27678W        W70694   6.500  29.496  18.182  0.2600 -0.1256  0.2122
27679W        W70695   2.144  22.851   2.511 -0.2943 -0.0070  0.0661
27680W        W70696  27.960  14.377   6.202 -0.0307  0.2087 -0.0702
27681W        W70697  31.702  21.926  24.623 -0.2993 -0.0483 -0.4086
27682W        W70698  27.956   8.825  17.734  0.2497  0.1720 -0.1711
27683W        W70699  34.470  31.265  26.530  0.0410  0.0765 -0.3239
27684W        W70700  21.976  23.415  14.770  0.2477  0.2798 -0.0894
27685W        W70701  30.951  20.553   5.756 -0.0893  0.0935 -0.1558
27686W        W70702  27.659   7.091  16.746  0.1329 -0.2596  0.2016
27687W        W70703  11.019   5.002  20.412 -0.2985 -0.0554  0.0370
27688W        W70704  31.939  22.685  16.362 -0.0094  0.0037 -0.0985
27689W        W70705   7.162  21.914  15.327  0.4306  0.1241 -0.1546
27690W        W70706   7.996  23.434  21.202 -0.4111 -0.0584  0.2561
27691W        W70707  20.899   0.400  15.484 -0.1074  0.2151 -0.2404
27692W        W70708   7.690   1.407  21.600  0.0804  0.4774  0.4682
27693W        W70709  27.428  21.254  24.489 -0.0587 -0.1006 -0.0150
27694W        W70710   2.447   4.078  18.462  0.0394  0.0586  0.1042
27695W        W70711  32.164   1.575  18.047 -0.0667 -0.4917  0.0439
27696W        W70712   3.510  19.533  25.876 -0.0347 -0.1322  0.0096
27697W        W70713  33.518  21.005  26.369 -0.2662 -0.2512 -0.2796
27698W        W70714   7.415  20.480  21.728 -0.0602 -0.0417 -0.1319
27699W        W70715   4.819  34.587  18.128 -0.1760  0.0730 -0.1722
27700W        W70716  32.063  28.025  21.173 -0.1082 -0.1497  0.0307
27701W        W70717   5.853   0.450  14.559 -0.0791 -0.0846  0.2216
27702W        W70718  28.398  28.897  25.533  0.0692 -0.1798 -0.0750
27703W        W70719  34.606  31.323  21.511 -0.0328  0.0034 -0.5028
27704W        W70720  10.428   5.051  14.897 -0.0058 -0.0425 -0.0808
27705W        W70721  26.105  32.015  25.328  0.2705  0.1376 -0.0429
27706W        W70722  32.464  25.139  14.905  0.0696  0.0496 -0.3525
27707W        W70723   2.733  30.539  19.089  0.0120  0.2148  0.1411
27708W        W70724  23.978   4.687  25.840 -0.0409  0.0436 -0.1809
27709W        W70725  22.909  16.174  13.740 -0.0435 -0.1256 -0.0686
27710W        W70726   3.349  26.157  14.614 -0.1790 -0.0287  0.0401
27711W        W70727  27.938   1.385  29.002  0.1790 -0.0805 -0.2369
27712W        W70728  25.389  30.420  16.785  0.1487  0.0388 -0.2178
27713W        W70729  21.298  20.976  16.577  0.0159  0.1696 -0.0325
27714W        W70730  12.199  13.572  13.321  0.1350  0.1833 -0.3593
27715W        W70731   1.730  31.379  25.033  0.0149  0.0417  0.1394
27716W        W70732  29.573  30.657  26.466  0.1138  0.1091  0.1575
27717W        W70733  14.172  26.836  16.757  0.1731  0.0001  0.1076
27718W        W70734  14.459  28.204  24.541 -0.3225 -0.1042 -0.0418
27719W        W70735   8.591  31.493  18.739 -0.0073  0.0347 -0.0852
27720W        W70736  19.664   4.749  17.806 -0.1506  0.2375 -0.1872
27721W        W70737  19.242  29.510  17.976 -0.3472  0.5223  0.1214
27722W        W70738  23.567  31.385  18.574 -0.2904  0.2766 -0.0631
27723W        W70739  18.834   3.104  21.692 -0.0427  0.0093  0.0089
27724W        W70740  31.070  32.009  21.778  0.1278  0.0957 -0.2155
27725W        W70741  22.876  22.451  17.074  0.1248 -0.2541  0.1155
27726W        W70742   5.208  21.943  17.290 -0.0345 -0.1401  0.1783
27727W        W70743  25.918   7.435  16.204 -0.1369  0.0956  0.0727
27728W        W70744  17.245  25.445  18.699  0.1337 -0.0526 -0.0826
27729W        W70745   7.557  25.138  28.863 -0.2351  0.0473 -0.1028
27730W        W70746   0.308  25.974   2.618 -0.1839 -0.1036  0.1644
27731W        W70747  23.389  15.407  28.014  0.0746 -0.1298  0.0366
27732W        W70748  18.160   2.267   3.071 -0.2417  0.2388  0.0689
27733W        W70749   9.831  14.068  15.242 -0.1410 -0.0156  0.2147
27734W        W70750  34.059  11.303  28.021 -0.1937 -0.0465 -0.0840
27735W        W70751  34.079   2.206  24.723  0.2050  0.1251 -0.0088
27736W        W70752  25.155  30.567  18.040 -0.0622  0.1751  0.0508
27737W        W70753  30.682  19.083  15.802  0.0100 -0.2867 -0.0921
27738W        W70754  23.667   3.112  22.542  0.0934  0.1445  0.0138
27739W        W70755  24.109  33.253  19.919 -0.3411  0.1283  0.0848
27740W        W70756  16.400  30.333  27.908  0.1940  0.0755 -0.1709
27741W        W70757  32.628   5.405  28.577  0.1865  0.1871 -0.2476
27742W        W70758  22.761  28.626   0.117  0.2974 -0.3768  0.1054
27743W        W70759   8.055  23.527  18.647 -0.1740 -0.2121  0.0190
27744W        W70760  14.205   0.210  25.750  0.4268  0.1553 -0.3238
27745W        W70761   0.517  34.557  16.007 -0.1586 -0.0129 -0.2428
27746W        W70762  22.435  32.851  21.325  0.2353  0.3259  0.4541
27747W        W70763  19.096  30.699  24.628  0.3842 -0.0635  0.0405
27748W        W70764   0.924  25.300  27.650  0.2491 -0.3110 -0.0424
27749W        W70765   8.730  20.479  26.573  0.2075  0.1899 -0.0259
27750W        W70766  34.145  34.264  16.418 -0.1868 -0.0835 -0.0170
27751W        W70767   6.680  20.939  19.482  0.2600 -0.1216 -0.1498
27752W        W70768  12.215  32.703  26.388  0.0289 -0.1747 -0.0027
27753W        W70769   6.341   7.098  18.593 -0.2113  0.3036 -0.1085
27754W        W70770  31.176  18.848  27.756 -0.0257  0.1594 -0.2067
27755W        W70771  18.798  24.763  24.267 -0.0977  0.2346 -0.2133
27756W        W70772  16.082   7.884   6.033 -0.4382  0.0876 -0.1726
27757W        W70773  25.001   7.006  21.519  0.1349 -0.0747  0.1606
27758W        W70774  26.884  27.970  20.250  0.2874  0.0660  0.4555
27759W        W70775  14.309   9.986  17.162  0.0303 -0.2562 -0.1673
27760W        W70776   6.990   9.599  16.926  0.1780  0.1270  0.3251
27761W        W70777  25.597  34.728  22.252  0.1330 -0.3437 -0.0861
27762W        W70778  23.935  25.479  23.153  0.3457 -0.0022  0.0742
27763W        W70779  11.071   2.760  17.976  0.1268  0.0532 -0.2187
27764W        W70780   0.293   0.177  27.875  0.0268 -0.1222 -0.2033
27765W        W70781   3.040  19.396  17.321  0.0075 -0.0009 -0.0059
27766W        W70782  30.606   8.665  14.688 -0.1259 -0.0122 -0.0040
27767W        W70783  17.048  27.802  18.073 -0.0345  0.2010  0.1701
27768W        W70784  25.799  26.736   3.087 -0.1241 -0.0782 -0.0640
27769W        W70785  28.553   0.660  17.045 -0.1624  0.2334  0.0783
27770W        W70786  12.675  30.571  20.867 -0.2099 -0.0106  0.2759
27771W        W70787   0.387  26.390  23.710 -0.1949 -0.2328  0.0484
27772W        W70788  28.227   7.897  20.338  0.0141 -0.0011  0.1352
27773W        W70789   3.972  27.483  14.791  0.1250 -0.1963  0.2533
27774W        W70790  19.204  33.351   2.154 -0.1143  0.5257  0.0700
27775W        W70791  31.285  33.227  17.228 -0.0323 -0.1571 -0.3186
27776W        W70792  15.574   3.912  17.350 -0.2544  0.0098 -0.2178
27777W        W70793  20.059  23.064  14.326  0.0840 -0.2519 -0.2114
27778W        W70794  33.225   6.506  22.927 -0.0437  0.0710 -0.0791
27779W        W70795  18.034   2.712  13.510  0.0286  0.0982 -0.0444
27780W        W70796  33.195  18.655  24.414 -0.1678 -0.1160 -0.1541
27781W        W70797  14.284   3.722  18.307 -0.3108 -0.0823 -0.1060
27782W        W70798  31.472  22.661  21.467  0.0593 -0.3306  0.2104
27783W        W70799  26.394  19.436  25.045  0.2658 -0.0995 -0.1099
27784W        W70800  21.415  26.463  27.038  0.0764  0.1219 -0.2082
27785W        W70801  21.748  19.076  15.029 -0.2259 -0.1976  0.3605
27786W        W70802   3.006   3.172  16.271 -0.0246 -0.2830 -0.2813
27787W        W70803   6.006  24.478  19.398 -0.1694 -0.2488  0.0107
27788W        W70804   4.725  27.583  15.999  0.2121 -0.2479  0.2580
27789W        W70805  27.154  30.403   0.098 -0.0417 -0.1569 -0.0454
27790W        W70806  22.549  24.950  25.733 -0.0344  0.2327 -0.0661
27791W        W70807  24.702  22.525  17.539 -0.1511  0.3801 -0.1601
27792W        W70808  25.888  34.588  22.897 -0.1597 -0.2796  0.0499
27793W        W70809   2.426   6.252  25.058  0.2478 -0.0374 -0.0618
27794W        W70810  23.714  26.208  17.159  0.0769 -0.2428 -0.1230
27795W        W70811  29.991  29.150  23.080 -0.0988  0.0936  0.1080
27796W        W70812  24.413  25.289  17.094  0.0780 -0.2056  0.2851
27797W        W70813  29.844   2.151  20.218 -0.0012 -0.0283 -0.2254
27798W        W70814  21.007  29.740  25.768 -0.1593  0.1453  0.2471
27799W        W70815   5.860  21.639  13.935 -0.1064  0.0996  0.2653
27800W        W70816  32.292   7.615  23.987  0.0720  0.0328  0.1484
27801W        W70817   3.345  23.737   0.496 -0.1334 -0.2391 -0.1729
27802W        W70818   3.713   7.352  25.771  0.3788 -0.1698  0.0212
27803W        W70819  20.220  17.617  15.554  0.0276  0.0077  0.1609
27804W        W70820  21.767   3.347  17.911  0.0332 -0.1447  0.1800
27805W        W70821   3.657  32.098  18.072 -0.1142  0.2624  0.0377
27806W        W70822   7.387  23.830   1.670 -0.0844 -0.2917 -0.2722
27807W        W70823  24.495  17.719  20.454  0.2412 -0.0030  0.1364
27808W        W70824  22.252  25.122  17.656 -0.0972 -0.1008  0.1032
27809W        W70825  30.948   7.210  23.984  0.0469 -0.1772 -0.1421
27810W        W70826  14.322  26.602   1.213  0.2876  0.2525  0.0068
27811W        W70827   1.373  32.245  16.991  0.0651 -0.1664  0.0053
27812W        W70828  17.401  15.081  12.623  0.0434 -0.0183  0.0124
27813W        W70829  18.908   5.690  16.552 -0.1194  0.1082 -0.1180
27814W        W70830   9.278   1.217  15.763 -0.1022 -0.0672 -0.2040
27815W        W70831  27.206  33.765  19.999  0.2607 -0.2854 -0.3626
27816W        W70832  28.303  29.672  23.363  0.1893  0.1180 -0.1549
27817W        W70833  30.125   0.423  26.834 -0.1217 -0.1223  0.0257
27818W        W70834  20.806  16.850  15.694 -0.0654  0.3214 -0.1837
27819W        W70835   5.968  20.853  29.086 -0.3495 -0.0277  0.2158
27820W        W70836  14.232  30.087  19.668  0.1536  0.1853  0.0308
27821W        W70837  31.034   0.200  20.349 -0.2465 -0.1040  0.1973
27822W        W70838  33.735   8.332   2.199 -0.4421  0.0726  0.0863
27823W        W70839  26.926   1.223   1.625  0.0891 -0.1285 -0.2287
27824W        W70840  21.309   6.953  21.201 -0.0260  0.1817  0.0689
27825W        W70841  26.348  34.420  18.150 -0.0886 -0.1069 -0.1041
27826W        W70842  23.516  14.190  22.567 -0.0626  0.0357 -0.0577
27827W        W70843  28.125   5.132  21.139  0.0839  0.3865 -0.3381
27828W        W70844  33.612  27.876  22.776  0.2007 -0.3334  0.1086
27829W        W70845  27.876   1.874  16.320  0.2022  0.2473 -0.1343
27830W        W70846  28.930  13.510  20.536  0.1503 -0.0463  0.0354
27831W        W70847  33.336  28.772  20.345  0.1175 -0.0587 -0.2358
27832W        W70848  27.771  27.066  28.204  0.0582 -0.0059  0.0942
27833W        W70849  30.329   4.887  26.719 -0.2725 -0.0151  0.0985
27834W        W70850  27.050   0.475  15.846  0.1541  0.1229  0.2700
27835W        W70851  24.273  32.479  27.475 -0.0009  0.2050 -0.1383
27836W        W70852  22.636  34.047  16.694 -0.0821 -0.1003  0.1692
27837W        W70853  17.575  27.461   1.449 -0.2279 -0.2508 -0.0695
27838W        W70854   7.535   8.350  25.138 -0.0769 -0.0544  0.1023
27839W        W70855  21.576   3.169  24.948 -0.0828 -0.1616  0.1418
27840W        W70856  20.979   1.753  23.194  0.4414 -0.2540  0.0699
27841W        W70857  23.765   6.942   1.418 -0.0219  0.4235 -0.2702
27842W        W70858   6.350  26.119   3.316  0.1399 -0.2110  0.1769
27843W        W70859  23.940   0.472  17.313 -0.0842  0.2652  0.1458
27844W        W70860  33.058  28.327  27.007 -0.2116 -0.0001 -0.4267
27845W        W70861  26.683   2.934  25.601  0.1570  0.1053 -0.0442
27846W        W70862  27.809  26.439  19.522  0.1388  0.1702 -0.2388
27847W        W70863   3.516  24.422  22.436  0.0167 -0.0382 -0.1450
27848W        W70864  30.998   9.693  24.968 -0.0770 -0.5073 -0.2064
27849W        W70865  21.360   3.540  24.676 -0.2029 -0.3087 -0.1194
27850W        W70866  32.469  34.592  18.178 -0.3367  0.0683 -0.0209
27851W        W70867  27.818   7.742   1.425  0.2233  0.0363 -0.2055
27852W        W70868   0.403  30.851  15.335  0.1255  0.0366  0.1420
27853W        W70869   0.840  31.880  20.314 -0.0490 -0.1954  0.1581
27854W        W70870   1.169   3.778  26.367 -0.3421  0.1234 -0.3577
27855W        W70871   1.142  11.030  28.067 -0.0044  0.1954 -0.0479
27856W        W70872  27.224  31.903  25.874  0.1026 -0.3188 -0.0653
27857W        W70873   1.388  22.663   2.255 -0.0145 -0.0027 -0.1570
27858W        W70874   0.062  26.872  18.056 -0.0767 -0.1222  0.0282
27859W        W70875  30.438  32.772  24.832 -0.0307  0.1588 -0.0181
27860W        W70876  15.750   4.538  25.271 -0.0374 -0.1680 -0.1025
27861W        W70877  23.897  25.862  15.626 -0.0939  0.0049 -0.1079
27862W        W70878  23.932  34.402  18.893 -0.1403  0.0326 -0.0695
27863W        W70879   1.348  30.335  14.720  0.0960 -0.1216 -0.2243
27864W        W70880   0.590  24.219   4.375 -0.0150  0.0432 -0.2242
27865W        W70881  28.535  21.685   9.999  0.0435 -0.2009 -0.2323
27866W        W70882  31.525  27.717  19.215  0.0977  0.0570  0.1423
27867W        W70883   8.093  16.082  16.634  0.5485 -0.1443  0.0840
27868W        W70884  29.581  14.107  15.504 -0.1131  0.3526  0.0987
27869W        W70885  23.500  24.175   4.771 -0.0546 -0.1891  0.0908
27870W        W70886  18.595  27.525  27.512 -0.0410 -0.1619 -0.0044
27871W        W70887  31.301  17.115  20.277 -0.0044  0.1570 -0.1752
27872W        W70888  24.351   0.083  22.046  0.1543  0.2872 -0.4637
27873W        W70889  18.889  24.882   2.393  0.1948 -0.0218  0.2037
27874W        W70890   5.439  22.446  17.527  0.1493  0.0652  0.1660
27875W        W70891  28.094  25.792  27.778 -0.5090 -0.0711  0.0484
27876W        W70892   9.865  30.665   0.437 -0.1997 -0.2500 -0.0503
27877W        W70893   0.606  11.269  25.645  0.1855 -0.4220 -0.0837
27878W        W70894  32.471   9.278  20.859 -0.2247 -0.1249  0.5061
27879W        W70895  31.485  13.158  20.340  0.0004 -0.1836 -0.1828
27880W        W70896  13.060  22.567  24.118 -0.2138  0.1085  0.3279
27881W        W70897  33.296   1.122  25.146  0.2887 -0.0020 -0.3024
27882W        W70898  21.649  25.156  23.321  0.1934  0.0887  0.1062
27883W        W70899   6.060  33.740   2.341  0.0916  0.1019 -0.1170
27884W        W70900  23.656  33.007   2.724 -0.3146 -0.3406  0.1843
27885W        W70901  19.914   1.949  16.488  0.0895  0.0135 -0.1331
27886W        W70902   6.705  33.111  17.493 -0.0132  0.0334 -0.0195
27887W        W70903  24.363  23.179  25.216 -0.0225  0.1301  0.1973
27888W        W70904   5.041  17.641  20.908  0.0776 -0.0430  0.1431
27889W        W70905  27.190  10.728  24.120 -0.1488 -0.0758 -0.1509
27890W        W70906   2.945   0.938  17.849  0.0734  0.0540 -0.3053
27891W        W70907  34.272  18.788  19.687 -0.3532  0.1572  0.0216
27892W        W70908  23.928  33.301  27.790  0.2475 -0.3181  0.1425
27893W        W70909  23.200  24.541  26.237 -0.0513  0.2475 -0.2883
27894W        W70910  15.311  29.562  17.983  0.0595 -0.2932 -0.1035
27895W        W70911   2.850  19.249   1.878  0.2878  0.1376 -0.1053
27896W        W70912   6.345  19.097  17.859 -0.1949 -0.1341  0.3014
27897W        W70913  25.322   1.364  17.740  0.2733 -0.1505  0.0709
27898W        W70914  25.752  26.231  26.579 -0.1016 -0.1876 -0.1673
27899W        W70915  27.838  30.087  21.018 -0.0562 -0.1593 -0.1011
27900W        W70916  31.878  28.229  29.149  0.0578 -0.2047 -0.1486
27901W        W70917  24.806   1.296  17.777 -0.1569  0.2852  0.2183
27902W        W70918   7.861  12.927  20.804 -0.2869 -0.2748  0.2269
27903W        W70919  28.190  17.250  15.952 -0.0885  0.1286  0.0317
27904W        W70920   2.120  26.511  22.787 -0.1371  0.2287 -0.0386
27905W        W70921  24.837   6.961  20.425  0.2833 -0.1785  0.0664
27906W        W70922  31.818  29.941  20.441 -0.2045  0.0124  0.0483
27907W        W70923  28.249   6.891  17.628 -0.2719 -0.2491  0.1327
27908W        W70924   0.196  14.380  15.693  0.1471 -0.1791 -0.0194
27909W        W70925  18.442   1.389  21.166 -0.1870  0.3304  0.1135
27910W        W70926  28.606  25.603   2.884 -0.1803  0.3314  0.1625
27911W        W70927  26.072   8.115  23.908  0.2603 -0.0420  0.2415
27912W        W70928  29.362  20.528  29.294 -0.2692  0.0037 -0.2996
27913W        W70929  30.679  33.140  15.253 -0.1542  0.3250 -0.3700
27914W        W70930  13.204   3.197  24.238  0.0439 -0.4767  0.1837
27915W        W70931  26.125   5.101  20.983  0.2601 -0.0033 -0.1133
27916W        W70932  18.489   4.848  24.286 -0.1709  0.3195 -0.1255
27917W        W70933  23.780  12.401  23.459 -0.1853 -0.1245  0.0082
27918W        W70934  30.572   9.795  24.704 -0.2927  0.0409 -0.2425
27919W        W70935  12.379  18.280  21.797 -0.0983 -0.0335  0.4238
27920W        W70936  23.789  33.437  17.410  0.0408  0.1697  0.3153
27921W        W70937   0.773  28.582  16.960 -0.0598  0.1474 -0.0947
27922W        W70938   1.247  29.067  17.377 -0.0923  0.2514  0.0033
27923W        W70939   6.564   2.770  21.061 -0.0718  0.3522 -0.2011
27924W        W70940  23.021  17.573  14.619 -0.0619  0.0224 -0.0529
27925W        W70941  28.020  28.830  18.640 -0.1344  0.2549 -0.1096
27926W        W70942  34.510  23.338  20.408 -0.0309  0.0939 -0.2297
27927W        W70943  29.459  31.848  18.498  0.0089  0.0987  0.0898
27928W        W70944  22.547   2.135  18.300  0.0466 -0.2627 -0.0342
27929W        W70945  23.112  33.948  21.902 -0.0490  0.0809 -0.0801
27930W        W70946  33.036   7.539  16.395 -0.1131 -0.0886  0.0279
27931W        W70947  15.096  29.289  21.230 -0.1793  0.0424 -0.0826
27932W        W70948   4.875  21.856  24.228  0.0665 -0.0498  0.1594
27933W        W70949  19.499  29.863   0.901  0.1034  0.0095 -0.1794
27934W        W70950   0.707  12.145  24.035  0.1573 -0.0725 -0.0953
27935W        W70951  31.179  12.366  17.014 -0.1425  0.1726 -0.0083
27936W        W70952  31.668   0.258   2.034 -0.2443  0.2643 -0.1033
27937W        W70953  17.662   2.584  21.687  0.1733  0.1618  0.1900
27938W        W70954  20.519   8.009  14.759  0.4338 -0.1490  0.1125
27939W        W70955  33.435  33.684  21.297 -0.2129 -0.0023  0.3159
27940W        W70956  26.240   8.165  18.428 -0.0808 -0.0064  0.3207
27941W        W70957  34.280   4.231  14.562  0.0566 -0.3925  0.0774
27942W        W70958  30.447   4.561  24.478  0.1812  0.0874  0.0995
27943W        W70959  28.286   3.594  15.143 -0.1876 -0.0840 -0.1383
27944W        W70960  15.052  22.417  15.876  0.3821 -0.1804  0.0773
27945W        W70961  28.752  24.695  18.161  0.0829  0.4883  0.0772
27946W        W70962  34.271   7.425  27.522  0.1462  0.1277  0.0068
27947W        W70963   0.219  33.221  18.106  0.0720  0.0636  0.1683
27948W        W70964  16.340  27.216   1.745  0.0298  0.0569  0.2689
27949W        W70965  20.903  33.604  24.740  0.1270  0.0649 -0.0353
27950W        W70966  25.658  28.550  26.754  0.1248  0.2190  0.0807
27951W        W70967  32.141   5.520   0.183  0.0258 -0.0157  0.2957
27952W        W70968  33.154   6.236  26.882 -0.1446 -0.3488  0.1499
27953W        W70969  24.795  33.643  19.452 -0.0210  0.0952  0.0867
27954W        W70970   0.207   3.343  20.511 -0.0098 -0.2367 -0.0935
27955W        W70971  30.788  16.237  19.964  0.2329 -0.0221 -0.1525
27956W        W70972  34.099  29.421   1.932  0.0472 -0.2548 -0.2062
27957W        W70973  33.842  19.341  21.094 -0.0095  0.1208 -0.1065
27958W        W70974   3.714  33.633  16.776 -0.0567 -0.1196 -0.0397
27959W        W70975  19.472  24.762  22.797 -0.3890 -0.1812  0.1821
27960W        W70976  13.207  15.104  13.285  0.0699 -0.3234 -0.4341
27961W        W70977   4.761   1.488  20.233  0.0716 -0.0454  0.0324
27962W        W70978  26.830  33.186  19.288 -0.0989  0.1318 -0.0593
27963W        W70979  21.835  25.840   7.806  0.3804 -0.3160  0.2116
27964W        W70980   6.927   5.782   3.103 -0.3182  0.0454 -0.0160
27965W        W70981  27.973  26.485  12.000  0.1342  0.3944 -0.1655
27966W        W70982   4.514  30.369  22.005  0.0098  0.1028  0.0027
27967W        W70983  24.317  33.576   1.363 -0.2241  0.0471 -0.0271
27968W        W70984  28.637  33.024  18.671 -0.1134 -0.3259 -0.1801
27969W        W70985  31.432  31.671  24.579  0.1595 -0.0955  0.2448
27970W        W70986  16.554   1.270  19.584  0.1242 -0.0029 -0.0694
27971W        W70987   2.412  12.440  25.972 -0.1627 -0.1970  0.3758
27972W        W70988   1.188  27.282  18.617 -0.1786 -0.0540  0.1111
27973W        W70989  25.329  27.676  27.739  0.1913 -0.0599  0.0370
27974W        W70990   1.378  13.211  17.715 -0.0326  0.0025  0.0120
27975W        W70991   2.566  30.778  15.911 -0.0464 -0.1174 -0.4242
27976W        W70992  29.067  30.092  26.805  0.0320 -0.0352  0.0716
27977W        W70993   5.453  20.479  24.700 -0.1160  0.1175 -0.3937
27978W        W70994  31.598  21.606  27.536 -0.2818  0.1708 -0.3692
27979W        W70995  31.738  29.004   0.351 -0.2308 -0.1814 -0.0828
27980W        W70996  31.911  30.054  22.785 -0.2202  0.0802  0.2387
27981W        W70997  22.627   3.199  21.606  0.0974 -0.1308  0.3205
27982W        W70998  14.882  11.656  26.470 -0.0232  0.0735 -0.1601
27983W        W70999  23.955  32.397  22.137  0.1714 -0.0542  0.1594
27984W        W71000  32.909  31.436  18.822  0.2141 -0.0938 -0.2556
27985W        W71001  29.283   1.583  21.366  0.1563  0.2827 -0.1097
27986W        W71002  33.735   1.648  15.985 -0.1995  0.1813 -0.2220
27987W        W71003  11.281  13.434  14.259 -0.5503  0.5722 -0.1258
27988W        W71004  23.166  16.732  23.306  0.4690 -0.0630  0.1727
27989W        W71005  17.036   3.446  17.973 -0.1073 -0.2821 -0.1423
27990W        W71006   0.098  18.078  22.047 -0.0129 -0.3084 -0.1136
27991W        W71007  31.917   2.278  16.709  0.0523  0.1939 -0.1802
27992W        W71008  27.218   7.153  16.374  0.1063  0.1628 -0.2227
27993W        W71009  25.721  34.630  27.248 -0.3524 -0.4155 -0.2123
27994W        W71010  14.590  22.999  26.816 -0.4322 -0.0146 -0.0812
27995W        W71011  11.476   6.584  19.258  0.0091 -0.1966  0.0724
27996W        W71012  28.538   7.138  23.279 -0.0042 -0.1273 -0.0223
27997W        W71013  21.281   5.390   6.594  0.3005  0.0905 -0.5032
27998W        W71014  31.332  27.973  28.469 -0.0020 -0.0052  0.0691
27999W        W71015  21.876  34.379  20.438 -0.2321  0.2439  0.0339
28000W        W71016  25.455  19.508  19.276  0.1430 -0.0372  0.2669
28001W        W71017   7.047   8.188  26.437  0.1030  0.1693  0.0630
28002W        W71018  15.919  24.058  25.988 -0.2751 -0.1866  0.2941
28003W        W71019  24.169  23.033  22.867  0.0745  0.0203 -0.1790
28004W        W71020  24.843  32.461  22.373 -0.0412  0.0958 -0.4556
28005W        W71021  29.158   0.282  20.187  0.0573  0.4169  0.0309
28006W        W71022  24.096   4.206  19.306 -0.0116  0.2733  0.1413
28007W        W71023   0.592   2.021  14.310 -0.0598 -0.0335 -0.0841
28008W        W71024  14.772   2.531   8.884  0.1610  0.0279  0.3111
28009W        W71025  26.072  18.931  28.131  0.0507 -0.1623  0.1719
28010W        W71026   9.992  31.442  28.232 -0.0154  0.0341 -0.0521
28011W        W71027  19.769   3.330  17.049  0.0384  0.2781  0.0240
28012W        W71028  21.508  32.574   1.001  0.1987  0.0138  0.1764
28013W        W71029   1.761  25.832  25.467  0.0045 -0.0650 -0.2554
28014W        W71030  25.260   8.363  22.708  0.1317  0.2095  0.0780
28015W        W71031  11.690  24.587  25.404 -0.0270  0.0156 -0.3009
28016W        W71032  20.017   6.595  19.585  0.3648  0.0946  0.1313
28017W        W71033   3.460  12.990  15.664 -0.4349 -0.0262  0.0176
28018W        W71034   2.923  22.025  14.411  0.0770 -0.0230  0.1238
28019W        W71035  16.453  12.909   3.714 -0.3073 -0.0168 -0.0352
28020W        W71036   3.298  30.453  20.071 -0.1020 -0.0156 -0.3192
28021W        W71037  30.416  30.549  22.185 -0.0403  0.1810  0.1444
28022W        W71038  15.584  29.480  26.180  0.1516 -0.0959 -0.1423
28023W        W71039  30.771  28.592  24.560  0.0769 -0.2623  0.1543
28024W        W71040  25.955   4.749  19.143 -0.0716  0.0881  0.1240
28025W        W71041  17.485  26.099  25.961 -0.0462 -0.2068  0.1326
28026W        W71042  29.176  28.221  16.391  0.0382  0.0436 -0.1997
28027W        W71043   4.812   3.943  16.125 -0.2426 -0.1006  0.1082
28028W        W71044  20.954   4.275   7.058 -0.0699 -0.0798  0.0991
28029W        W71045  28.564  30.802  21.416  0.0898 -0.1279 -0.2997
28030W        W71046   2.521  28.435   8.501  0.2374  0.0371 -0.1589
28031W        W71047  33.749  30.078  22.505  0.2119  0.0188  0.0250
28032W        W71048  16.755  14.413  12.794  0.2001  0.0617 -0.0075
28033W        W71049  31.059  31.776  19.796  0.2961  0.1648 -0.1101
28034W        W71050   8.695   3.331  28.241 -0.1964 -0.3243 -0.0911
28035W        W71051  25.333   8.654  19.233 -0.1072  0.0243 -0.2620
28036W        W71052  13.437  30.564  17.160  0.0446  0.2162  0.4550
28037W        W71053  27.022  23.954  19.525  0.0714  0.1226  0.1671
28038W        W71054  23.113  24.494  21.538  0.2940 -0.2583  0.0014
28039W        W71055  25.042  21.767  16.139 -0.3036 -0.1936 -0.2338
28040W        W71056  25.717  15.614  15.536  0.0874  0.0564 -0.1679
28041W        W71057  30.941  30.395  21.521  0.2013  0.1215 -0.3290
28042W        W71058  24.414  21.830  24.291 -0.0658 -0.1829 -0.0369
28043W        W71059  26.919  15.522  28.119 -0.0616 -0.0666 -0.1120
28044W        W71060  19.966  24.533   9.801 -0.0753  0.1537 -0.2816
28045W        W71061   3.939   3.688  26.178 -0.0260  0.4259 -0.4760
28046W        W71062  24.471  27.346  22.674 -0.1710 -0.0655  0.1590
28047W        W71063  28.992  34.530  16.966  0.0689 -0.3398 -0.1087
28048W        W71064   1.574  18.893  18.673  0.3333  0.1178 -0.1769
28049W        W71065   1.274   5.897   2.322 -0.2360 -0.0394 -0.0996
28050W        W71066  23.683  31.254  16.639  0.0733 -0.1973 -0.0677
28051W        W71067  33.776   1.020  15.464  0.1321 -0.3133 -0.1642
28052W        W71068  29.949  19.332  17.697 -0.3195 -0.1730 -0.0266
28053W        W71069  13.414   6.144  14.527  0.1552 -0.0856  0.0372
28054W        W71070  14.057  16.070  15.459  0.0284  0.2527 -0.0774
28055W        W71071  15.271  21.042   1.150  0.1880  0.0520  0.2370
28056W        W71072  25.850  30.835  20.906 -0.0021 -0.2003  0.1715
28057W        W71073   2.840  17.697   0.962  0.0628 -0.3508  0.1721
28058W        W71074  25.472  25.887  19.499  0.1384 -0.0320  0.1071
28059W        W71075  32.261   1.423  17.567 -0.0428  0.0346  0.1711
28060W        W71076  23.830  32.578  27.653 -0.0199 -0.3596 -0.1416
28061W        W71077  32.431  24.684  21.890 -0.0974 -0.1516 -0.0356
28062W        W71078  23.932  10.548  24.430  0.0279 -0.1342  0.0561
28063W        W71079  29.702   4.999  15.705 -0.1016  0.0503 -0.0932
28064W        W71080   5.988   9.024  22.214 -0.1090 -0.2239 -0.1970
28065W        W71081  23.998  34.514  16.770 -0.1191  0.2514 -0.1358
28066W        W71082  21.312  20.973  21.284  0.3614 -0.0050 -0.1082
28067W        W71083  32.148  30.208  21.191 -0.0274 -0.1186  0.4142
28068W        W71084  33.317  12.402  22.599  0.0979 -0.1173 -0.0039
28069W        W71085   9.767  13.272  19.923 -0.0001  0.1471  0.1389
28070W        W71086  24.223  25.487   0.711 -0.0315  0.3940 -0.0857
28071W        W71087  19.208  25.925   3.431 -0.0816 -0.1300  0.0421
28072W        W71088  23.669  19.402   3.641 -0.3205  0.1585 -0.0394
28073W        W71089   2.903   0.202  20.518  0.1701  0.2475 -0.1301
28074W        W71090  31.073  13.279  20.164  0.1772  0.0850 -0.0446
28075W        W71091  30.311  28.496  16.072 -0.2142 -0.1855  0.4587
28076W        W71092  19.327  28.186  23.347 -0.2600 -0.0011  0.0411
28077W        W71093  24.810  24.363  21.830  0.2861 -0.0313  0.0466
28078W        W71094  26.766   1.609  18.138  0.0729  0.1214  0.1003
28079W        W71095  24.855   1.107   9.089 -0.1512 -0.0807  0.0211
28080W        W71096  14.871  23.524  15.034  0.2846  0.1378  0.1315
28081W        W71097  32.779  21.886   1.855 -0.0300  0.0489  0.1378
28082W        W71098  33.989   1.845  19.131 -0.3009 -0.1768 -0.0979
28083W        W71099   2.261  26.231  23.242 -0.3141 -0.2910 -0.1969
28084W        W71100  30.650  29.697  25.830  0.0180  0.1840 -0.5111
28085W        W71101   5.948   2.216  15.726 -0.1243  0.1088  0.2116
28086W        W71102   0.438  18.664   3.366 -0.0735  0.1897 -0.1820
28087W        W71103  17.459   9.970  15.596  0.0706 -0.0139 -0.1792
28088W        W71104  16.719   6.991  27.787 -0.2663 -0.1350  0.0271
28089W        W71105  21.350   4.123  17.513  0.3200  0.1622 -0.1757
28090W        W71106   1.661  21.991   2.269  0.0064 -0.2430 -0.4353
28091W        W71107  20.087  33.637  14.236  0.0816  0.3085 -0.0774
28092W        W71108  32.827   3.000  20.954  0.0510 -0.2608 -0.2463
28093W        W71109  23.022  33.179   2.056 -0.1622 -0.0286  0.0125
28094W        W71110   4.712  34.509   2.361  0.0109  0.0460  0.1187
28095W        W71111  18.816  21.485  22.584  0.2949 -0.0667  0.1060
28096W        W71112  15.866   2.805  15.316 -0.0654  0.1633  0.0279
28097W        W71113  32.297   4.671  20.597  0.0778  0.1963 -0.3003
28098W        W71114   4.637  31.546  27.444  0.4288 -0.4372  0.3217
28099W        W71115  26.365  34.655  19.432  0.1194  0.0719 -0.0142
28100W        W71116   5.166   7.614  18.431 -0.2071  0.1446  0.0148
28101W        W71117   4.347  26.211  22.837 -0.0494  0.0000  0.1399
28102W        W71118  13.945  30.207  23.805 -0.0959 -0.3734 -0.0990
28103W        W71119   1.107  33.223  21.529  0.1194  0.0383 -0.3924
28104W        W71120   2.365  10.907   5.865 -0.1695  0.2232  0.1969
28105W        W71121  13.424  30.834  28.104  0.2808  0.0504  0.0174
28106W        W71122  33.813   0.130   4.040  0.1866 -0.1030 -0.1694
28107W        W71123  33.982  27.736   3.380 -0.0889 -0.0220  0.0860
28108W        W71124  31.500  24.979  18.269  0.1936 -0.0455 -0.1706
28109W        W71125  22.977   7.684  18.350 -0.2713  0.1232  0.1468
28110W        W71126   8.479  27.460  27.555 -0.0391  0.1065  0.1325
28111W        W71127  22.064  25.909  28.563  0.0531 -0.3292 -0.1472
28112W        W71128   1.085   1.233  24.726 -0.4263 -0.0944  0.1296
28113W        W71129  34.229  29.151  26.447  0.0321 -0.2727  0.0799
28114W        W71130   5.963  25.761  14.175  0.0384 -0.0179 -0.0390
28115W        W71131  15.490  19.948  24.341  0.3347  0.0364  0.0124
28116W        W71132  34.692  28.116  26.455  0.1075 -0.2347  0.5739
28117W        W71133  24.345  28.190  26.945  0.1088 -0.0500  0.0980
28118W        W71134   6.488  22.401  23.498  0.0384  0.2310  0.1551
28119W        W71135  12.789  21.405   7.494  0.2360  0.0308  0.0506
28120W        W71136  14.544  21.589  27.212  0.1738  0.2929  0.3193
28121W        W71137  32.404  20.548  10.595  0.2506 -0.1103 -0.0691
28122W        W71138  24.018  28.718  14.607 -0.2470 -0.1160  0.1899
28123W        W71139  30.040  18.224   0.620  0.0045 -0.1005  0.2609
28124W        W71140   3.490  33.791  25.160  0.1296 -0.1325 -0.1651
28125W        W71141   1.058  19.534  28.626 -0.4016  0.3240 -0.0386
28126W        W71142  21.885  12.323  13.405 -0.3165 -0.0122 -0.0325
28127W        W71143  25.905  18.478  18.644 -0.3355 -0.0051 -0.0656
28128W        W71144  26.657  30.280   4.239  0.1443 -0.1623  0.2661
28129W        W71145  10.715  10.748  16.839 -0.1092 -0.0388  0.0909
28130W        W71146  24.061  27.942  23.030 -0.2201 -0.0757  0.2532
28131W        W71147  30.364   4.141  25.244  0.0524  0.2132 -0.2627
28132W        W71148  22.079  30.732  16.480  0.0013 -0.0994 -0.1808
28133W        W71149  22.391  29.924  20.807 -0.0737 -0.0453 -0.0384
28134W        W71150  26.017   9.684  26.939  0.0174  0.1039 -0.1536
28135W        W71151   1.765  20.216  15.375  0.3007  0.1483 -0.0136
28136W        W71152  28.820   3.675  26.823  0.3245 -0.0788  0.1813
28137W        W71153  33.073  33.778   3.626  0.1154 -0.1925 -0.2887
28138W        W71154  33.566  31.309   5.455 -0.0168 -0.3416 -0.1497
28139W        W71155  21.508  27.285  15.425  0.1453 -0.4062  0.1198
28140W        W71156  26.427  27.917  28.612 -0.0104  0.2936  0.0586
28141W        W71157  32.450   8.466   1.815  0.1304 -0.1117  0.1720
28142W        W71158  26.868  30.880  22.061 -0.1430 -0.0881 -0.1062
28143W        W71159   3.300  32.793  27.528  0.0389  0.3532  0.0370
28144W        W71160   1.617  31.523  15.654 -0.3224  0.1774 -0.0398
28145W        W71161   8.751   5.638  29.018  0.2789  0.1265  0.0835
28146W        W71162   0.330  28.756  23.702 -0.0400 -0.0156 -0.0160
28147W        W71163  27.196   0.032  27.039 -0.0951  0.0154  0.1370
28148W        W71164  25.737   7.650  17.700 -0.0235  0.1509 -0.0521
28149W        W71165  10.188  27.478  22.003  0.0318  0.0463 -0.0632
28150W        W71166  34.295  24.776  21.728 -0.0398  0.1241  0.1909
28151W        W71167  32.698  13.439   1.265  0.2510  0.0837  0.1976
28152W        W71168  23.716  25.451  19.197 -0.2628 -0.0385  0.0648
28153W        W71169  25.887  24.772  17.167  0.2268 -0.5032  0.0780
28154W        W71170  10.191  30.513  16.333  0.2952 -0.1328 -0.0851
28155W        W71171  23.096  22.327   0.944 -0.1391 -0.2194 -0.1353
28156W        W71172  25.065   3.142   2.007  0.4531 -0.0214  0.1392
28157W        W71173   4.342  27.462   3.708 -0.3589 -0.2663 -0.0966
28158W        W71174   3.244  30.644  20.567 -0.2841  0.0841  0.0086
28159W        W71175  18.916   0.374  21.872 -0.0073  0.1523 -0.0953
28160W        W71176  19.621  30.125  10.180  0.2237 -0.0239  0.4134
28161W        W71177  17.282   0.647  14.983 -0.0313  0.1329 -0.1168
28162W        W71178   7.055  12.507  25.449  0.1478  0.3016 -0.0594
28163W        W71179  15.080   6.533  24.360  0.1167 -0.0193 -0.0745
28164W        W71180  25.965  28.565   7.908 -0.1866 -0.1591  0.0808
28165W        W71181  24.371  25.538  27.601  0.0767 -0.2706  0.1623
28166W        W71182  12.542  29.575  25.919 -0.0423  0.0270 -0.2205
28167W        W71183  28.504  32.146  28.668 -0.1802 -0.0605  0.1266
28168W        W71184  25.765   1.091  23.599 -0.1481 -0.0480  0.2735
28169W        W71185   5.411  33.366   0.940  0.1637  0.1470 -0.0185
28170W        W71186  25.633  34.178   0.684  0.3915  0.1707  0.4080
28171W        W71187  23.887  10.168  16.551  0.3129 -0.1080  0.0282
28172W        W71188  17.785  29.512   0.334  0.0836 -0.2289  0.3116
28173W        W71189  22.878  28.831  17.295  0.0285  0.2865  0.1586
28174W        W71190  29.446  10.917  25.693 -0.0854  0.2385 -0.0407
28175W        W71191   9.101  32.791  18.971 -0.0180 -0.2221 -0.3056
28176W        W71192  33.498  26.330  22.294 -0.1802  0.0475 -0.0248
28177W        W71193  19.473  25.195  25.224  0.0630 -0.0922  0.4033
28178W        W71194   0.364  19.303  23.977 -0.0970  0.0450 -0.1062
28179W        W71195  32.878  16.704  20.991 -0.2141  0.4799  0.0727
28180W        W71196   3.953   2.449  16.537 -0.1982 -0.2719  0.0554
28181W        W71197  21.852   1.765  16.423 -0.1389  0.1401  0.0100
28182W        W71198  32.401  32.759  20.106 -0.0587 -0.0965  0.2344
28183W        W71199  20.847  30.855  15.534  0.1677  0.1203 -0.1990
28184W        W71200   0.083  19.563   2.091 -0.3011  0.1731  0.1700
28185W        W71201  32.587  10.852  24.394 -0.1169  0.1487 -0.1798
28186W        W71202  17.804  30.447   1.992 -0.2863 -0.0667  0.0416
28187W        W71203  32.169  19.308  21.176  0.0517  0.0536  0.0785
28188W        W71204  17.421   2.493  26.905 -0.1546  0.2743 -0.3243
28189W        W71205   5.113  31.450  16.137  0.0350  0.1588  0.3093
28190W        W71206   0.574  19.545  15.828 -0.3476 -0.2452 -0.1347
28191W        W71207  20.447  22.339  28.686  0.1069  0.1137  0.2124
28192W        W71208  28.502  18.306  17.199 -0.0845  0.1707  0.1334
28193W        W71209  18.385  24.568   0.306  0.0861 -0.1424 -0.2473
28194W        W71210  20.023  31.035  15.887  0.0748 -0.0063  0.0085
28195W        W71211   9.045  27.927  21.605  0.3009  0.2113  0.1736
28196W        W71212  15.780  32.470  17.874 -0.0284 -0.0583 -0.0892
28197W        W71213  19.993  10.357  14.146  0.0100 -0.2615  0.0420
28198W        W71214   2.038  12.660  21.954 -0.2130  0.0287 -0.1850
28199W        W71215  17.985  29.734   8.841 -0.1388 -0.0985  0.1505
28200W        W71216  29.891  27.632   2.050  0.0732  0.1878 -0.0966
28201W        W71217   3.546  31.164  18.060  0.0500  0.1789  0.1359
28202W        W71218   6.463   6.436  24.587  0.3618 -0.0679 -0.0468
28203W        W71219   3.430  26.081  22.657  0.0959 -0.0569  0.0120
28204W        W71220  26.994  32.342  18.078  0.3946  0.0281  0.2319
28205W        W71221  24.819  10.105  22.973 -0.0630  0.1928  0.0976
28206W        W71222  28.801  34.564  10.290  0.2273 -0.0459 -0.0885
28207W        W71223  21.812  17.144   0.225 -0.3771 -0.0849 -0.0577
28208W        W71224  26.467   6.003  15.288  0.1281 -0.0977  0.0680
28209W        W71225  30.492  27.725  16.663 -0.2490  0.0625 -0.0052
28210W        W71226  23.616  27.017  19.639  0.2901 -0.2186 -0.1657
28211W        W71227  19.828   6.915  27.010  0.0158  0.1914 -0.2300
28212W        W71228   2.150  25.553  17.467  0.1073  0.1739 -0.1007
28213W        W71229  20.438   6.349   1.254  0.0751 -0.1768  0.0225
28214W        W71230  32.514   9.286  27.394  0.1852 -0.1541 -0.2354
28215W        W71231  33.562   3.394  20.484 -0.3516 -0.0449 -0.3776
28216W        W71232  20.333  30.135  16.619 -0.0180  0.4486 -0.2520
28217W        W71233  17.127   9.134  26.186  0.0195  0.0402 -0.1048
28218W        W71234  17.047  20.832  27.703  0.0871 -0.2681 -0.0521
28219W        W71235  28.616  25.556   2.027  0.1378 -0.1110  0.2637
28220W        W71236  23.144  32.475  24.556 -0.2824  0.3102  0.0726
28221W        W71237  30.742  18.361  29.291  0.1843  0.1999 -0.0731
28222W        W71238   6.495   2.224  19.835  0.1173  0.1236 -0.2378
28223W        W71239  24.948   3.565  10.263  0.0591 -0.0617  0.0458
28224W        W71240  33.166   1.002  14.638  0.2684 -0.0490  0.0187
28225W        W71241  20.106  31.728   9.059 -0.0638  0.0653 -0.0916
28226W        W71242  12.082  30.671  15.574  0.0453  0.1925  0.1237
28227W        W71243  30.284  31.303  28.592 -0.1002  0.0310 -0.1666
28228W        W71244  14.526  30.331  17.129  0.0202  0.0200  0.0145
28229W        W71245  24.692   2.909  28.242 -0.0823 -0.2727 -0.3356
28230W        W71246  32.198   0.020   9.247  0.3152  0.0694  0.0380
28231W        W71247  32.971   8.645  25.067  0.1975 -0.1141  0.0050
28232W        W71248  18.086   2.471  19.217 -0.0223  0.1541  0.2255
28233W        W71249  34.653  32.663  20.410 -0.1535  0.0032  0.0344
28234W        W71250  30.610  30.596  16.853  0.0747 -0.3558  0.1342
28235W        W71251  15.762   1.387  27.668 -0.3431 -0.1810 -0.0568
28236W        W71252  31.697  19.333   7.458 -0.1644  0.0830  0.2322
28237W        W71253  25.450  29.126  16.669  0.0940  0.1041 -0.3918
28238W        W71254  20.012  23.189   2.782 -0.0199 -0.0903 -0.0295
28239W        W71255   9.380  10.984  17.184  0.1573 -0.0838 -0.0547
28240W        W71256  28.991  21.602  16.419  0.5522 -0.0276  0.1237
28241W        W71257   0.366  15.746  24.309 -0.0276  0.0493 -0.1954
28242W        W71258  13.136   9.896  20.815 -0.1059 -0.0550 -0.0004
28243W        W71259  20.017  24.071  25.751 -0.0725 -0.0169 -0.0687
28244W        W71260   4.740  28.836  26.302 -0.4266 -0.1054 -0.0576
28245W        W71261  34.171  25.227  17.101 -0.1816  0.1409  0.5681
28246W        W71262  31.416   3.446  20.784  0.0331  0.1345  0.0209
28247W        W71263  21.716   5.292  28.943  0.1795 -0.1435 -0.0153
28248W        W71264   4.808  34.114  16.447 -0.1630  0.1072  0.1789
28249W        W71265   0.927  34.440  21.698  0.0487 -0.1223 -0.1109
28250W        W71266  31.127  33.306  15.567  0.4736  0.0889  0.2142
28251W        W71267   2.050   9.684  29.159 -0.0247 -0.1125 -0.0476
28252W        W71268  22.775   2.576  23.407  0.2117  0.0876 -0.0818
28253W        W71269  19.956   5.651  24.355  0.0976  0.0381 -0.0044
28254W        W71270   1.907  21.571  23.453 -0.4324  0.5111  0.2115
28255W        W71271  24.322  29.867   1.237  0.2317 -0.0290  0.1902
28256W        W71272   2.428   5.414  28.929 -0.1351 -0.1138 -0.1947
28257W        W71273  25.932  34.482  15.806 -0.1002 -0.2843  0.0023
28258W        W71274  20.893  22.060  13.246 -0.1633 -0.0729 -0.1770
28259W        W71275  28.887   7.207  28.258  0.1389  0.1641  0.0596
28260W        W71276   1.562  33.399   1.044  0.1490  0.2356 -0.2286
28261W        W71277   3.424  33.006   0.034  0.0598 -0.0225  0.1714
28262W        W71278  26.084  17.104  15.004 -0.0019  0.5831 -0.1922
28263W        W71279   6.568  29.952  14.506  0.3190  0.0856  0.2559
28264W        W71280  34.252   3.083   0.407  0.1205  0.1434  0.1282
28265W        W71281  28.980  29.997  17.423 -0.0504  0.0250 -0.0285
28266W        W71282   1.456  21.725  23.664  0.1012 -0.0660  0.0450
28267W        W71283  30.385  15.168  25.966  0.1502  0.1169 -0.2136
28268W        W71284  25.644  12.565  28.530  0.1197  0.2376  0.0489
28269W        W71285   0.217  28.005  26.982 -0.2526  0.0437  0.2056
28270W        W71286  31.500  30.659   2.911  0.2354  0.1364 -0.1246
28271W        W71287  22.263  12.481  14.699 -0.1253 -0.2675  0.1375
28272W        W71288   8.619  30.889  27.261  0.1764 -0.1115 -0.0545
28273W        W71289  26.782  24.518  11.024  0.0275  0.1744 -0.1841
28274W        W71290  23.951  31.849  15.598  0.0168 -0.0072  0.4136
28275W        W71291  33.978   2.775  17.187 -0.2525  0.2003  0.1657
28276W        W71292  21.312  34.473  25.689 -0.1861  0.2293  0.0105
28277W        W71293  29.351  29.499  23.674 -0.1837 -0.0615  0.0968
28278W        W71294  32.584   2.343   3.983  0.1672 -0.0485  0.1288
28279W        W71295  24.624  32.725  28.076 -0.2177  0.0292 -0.0955
28280W        W71296  17.277  28.979  21.510  0.0973  0.1002  0.0706
28281W        W71297  33.173   6.422  17.684 -0.2709 -0.3534  0.2542
28282W        W71298  29.781  28.773  18.282  0.0551  0.0581 -0.2165
28283W        W71299  28.999   4.740  19.095 -0.0934  0.1763  0.3195
28284W        W71300  13.719  28.573  14.553  0.3938 -0.0262 -0.0330
28285W        W71301   6.854   7.371  23.914 -0.0691 -0.1713  0.1793
28286W        W71302  27.909   4.721  17.779 -0.0387  0.1477 -0.1000
28287W        W71303  21.617  32.566  20.353  0.1173  0.1840 -0.0070
28288W        W71304  16.231  22.986  15.421  0.1784  0.2152  0.0699
28289W        W71305  10.943  22.466  18.660  0.1975  0.1538 -0.0858
28290W        W71306  26.204  24.519   2.195  0.1067 -0.2775  0.0700
28291W        W71307   5.220   0.588  14.558 -0.0585  0.1157  0.3199
28292W        W71308  13.265   9.919  15.187 -0.0111  0.0522 -0.0352
28293W        W71309  25.941  23.026   3.272 -0.0196 -0.0766 -0.3131
28294W        W71310   3.640  18.310  19.382  0.0852 -0.0927  0.0349
28295W        W71311  28.633  34.765  17.602 -0.1208  0.0007  0.1734
28296W        W71312   5.502  22.916   0.188 -0.1649 -0.0397 -0.0781
28297W        W71313  27.101  31.446  20.336 -0.0107  0.0937 -0.3873
28298W        W71314  27.135   9.001  17.702 -0.0151  0.3579  0.1408
28299W        W71315  20.938  17.142  22.340 -0.0946  0.2016  0.0477
28300W        W71316  25.392  17.075  24.771  0.0173  0.0356  0.0113
28301W        W71317  20.839   5.093  16.615 -0.0420  0.1444  0.1685
28302W        W71318  31.895  14.863  20.023  0.1115  0.1881 -0.0378
28303W        W71319  26.303  29.193  28.749  0.0169  0.0786 -0.0406
28304W        W71320  30.489  27.010  21.350 -0.1014  0.0122 -0.0865
28305W        W71321  22.278  24.900   0.847  0.0755 -0.1736  0.1059
28306W        W71322  28.830  21.285  18.298 -0.1140 -0.2754 -0.1632
28307W        W71323   1.813  27.536  13.885  0.2223 -0.1442 -0.1595
28308W        W71324   7.344  26.227  15.641 -0.0207 -0.0655 -0.1201
28309W        W71325  28.404   0.128  19.056 -0.5271  0.1878  0.0192
28310W        W71326  26.299  26.885   3.959  0.2204 -0.2792  0.2855
28311W        W71327  25.952  28.434  16.766  0.0465  0.3018 -0.0695
28312W        W71328   2.122  23.038   0.392 -0.1667 -0.2025 -0.1720
28313W        W71329  17.409  32.766  17.988 -0.1344  0.1576 -0.1929
28314W        W71330  34.576  33.554  16.311 -0.0733  0.1093  0.4170
28315W        W71331  24.967  25.385  16.847  0.0024 -0.0800 -0.0308
28316W        W71332  29.033  25.947  26.917 -0.3300 -0.0529  0.1421
28317W        W71333  14.836  29.264  15.950  0.0722 -0.1479 -0.1584
28318W        W71334  26.103  20.567  25.807  0.1495 -0.3253 -0.1427
28319W        W71335  10.435  24.769  21.300  0.2642 -0.3959 -0.0600
28320W        W71336  12.364  33.370   2.753 -0.0725  0.0509 -0.1250
28321W        W71337  18.943   8.536  15.570 -0.1833 -0.1261 -0.1460
28322W        W71338  33.971  34.655  22.318  0.0423  0.2571  0.0740
28323W        W71339  26.638   7.724  18.192  0.2779  0.0516 -0.1207
28324W        W71340  30.676  23.656  20.699 -0.1520 -0.0947 -0.1537
28325W        W71341  11.139  30.616  26.478 -0.0122  0.3302  0.0866
28326W        W71342  19.618   1.272  16.144  0.4719  0.2960  0.3882
28327W        W71343   3.158  32.485  14.333 -0.0092 -0.4692  0.0694
28328W        W71344  34.198   8.846   4.002 -0.2922  0.0785 -0.3288
28329W        W71345  10.018  10.983  27.415  0.3046 -0.3470 -0.0001
28330W        W71346  22.766  27.899  23.185 -0.4143 -0.1664 -0.0702
28331W        W71347  34.634   2.752  17.703 -0.1685 -0.0323  0.0029
28332W        W71348  29.825  28.423  16.078 -0.0522 -0.1350 -0.0060
28333W        W71349  31.404   0.576  21.054 -0.1510  0.2046 -0.3692
28334W        W71350  19.916   2.118  20.295 -0.3046 -0.3863  0.1162
28335W        W71351  22.244   5.093  17.096 -0.0430 -0.0278 -0.1781
28336W        W71352  23.209  20.608  24.199  0.1437 -0.0088  0.2494
28337W        W71353  26.675   1.060  26.267  0.2362  0.1262  0.0730
28338W        W71354  30.957  32.383  22.953 -0.0416 -0.0376 -0.2340
28339W        W71355  22.419   8.143  20.429 -0.1522 -0.2682  0.1366
28340W        W71356  22.733  23.280  21.321  0.1545  0.1506  0.2411
28341W        W71357   9.071  33.136  13.882  0.0889  0.0940 -0.5893
28342W        W71358  29.703  16.114  18.308 -0.3441 -0.0966 -0.0622
28343W        W71359  28.210  19.605  27.468 -0.1117  0.0474 -0.1616
28344W        W71360  23.643  18.378  24.709 -0.1373 -0.2370  0.1006
28345W        W71361   2.253  16.228   2.921  0.0581 -0.2831 -0.0205
28346W        W71362   3.621  23.529  22.391 -0.3359  0.0813 -0.4832
28347W        W71363  24.089   8.978  22.956  0.0369 -0.2353  0.0225
28348W        W71364   2.750  16.229  20.491 -0.0570 -0.1343 -0.2706
28349W        W71365  33.301  31.621  26.261  0.0361  0.2821  0.0754
28350W        W71366  24.306  19.617  21.361  0.2519 -0.0273 -0.0543
28351W        W71367  15.713  31.294   8.731  0.2191  0.0776 -0.0904
28352W        W71368  31.777  30.762  25.575  0.3530 -0.0465 -0.0663
28353W        W71369  27.243  22.076  17.419  0.0504 -0.3613  0.0735
28354W        W71370   0.006   3.633  15.071 -0.2846  0.1550 -0.0729
28355W        W71371   0.796   0.381  17.170 -0.0907  0.1043 -0.0505
28356W        W71372  31.582   1.750  19.793  0.3408 -0.4492 -0.2321
28357W        W71373  16.701   1.401  27.340  0.0128  0.2214 -0.2207
28358W        W71374  15.680  27.445  24.579  0.1754 -0.1180  0.1891
28359W        W71375  23.189   1.278  19.606  0.3773  0.0408  0.3207
28360W        W71376   8.574  19.385   6.525  0.3768  0.1531 -0.3604
28361W        W71377  25.682   2.473   2.965 -0.2027  0.1017 -0.3239
28362W        W71378  26.209   1.566  29.163 -0.0923  0.0057 -0.0280
28363W        W71379  14.903   7.870  15.176 -0.1844  0.3098  0.0800
28364W        W71380   0.663  23.303  19.933  0.1680 -0.3294 -0.1409
28365W        W71381   8.703  30.107  17.261 -0.2409 -0.2861 -0.0777
28366W        W71382  25.962  17.133  21.138  0.1567 -0.0779 -0.1131
28367W        W71383  25.413   6.696  19.083  0.2526 -0.1272  0.0576
28368W        W71384  11.098   2.695  19.364 -0.1087  0.2700 -0.0218
28369W        W71385   8.959  19.040  14.022  0.2793  0.0194 -0.0279
28370W        W71386  30.139   1.898  21.441 -0.1749 -0.0716 -0.2034
28371W        W71387  34.078   8.516   0.524 -0.2945 -0.3634  0.3853
28372W        W71388  16.410  25.342  26.159  0.2240 -0.0995  0.1547
28373W        W71389  31.770  12.293   2.957  0.1176  0.2479  0.1051
28374W        W71390  25.704  29.390   2.597 -0.0099 -0.0013 -0.1140
28375W        W71391  13.723   0.135  14.926 -0.3079 -0.0982  0.0094
28376W        W71392  26.367   1.608  18.851 -0.1278  0.0422  0.2947
28377W        W71393  29.681  31.964   4.701 -0.0580 -0.0785 -0.0857
28378W        W71394  29.685  32.850  16.115  0.0731 -0.1615  0.1923
28379W        W71395  31.319   4.072  23.516 -0.0445  0.1344  0.1736
28380W        W71396  30.431  24.938  20.995 -0.1096  0.0073 -0.0720
28381W        W71397  30.303  34.688  18.883  0.2825 -0.2104 -0.0493
28382W        W71398  29.263  26.524   2.748  0.3693 -0.0931 -0.2570
28383W        W71399   9.642  24.449  24.036  0.1028 -0.0598 -0.1141
28384W        W71400  13.603   4.399  20.509  0.1074 -0.1553  0.1626
28385W        W71401   4.011  14.469  23.307  0.2231  0.1095  0.0207
28386W        W71402  25.544  18.933   0.104  0.3204 -0.0670  0.3110
28387W        W71403  31.212   2.988  21.939  0.0028  0.2869  0.1420
28388W        W71404  15.085  31.153   2.243 -0.2635  0.1584  0.1920
28389W        W71405  27.693  26.930  23.284 -0.1594 -0.2839  0.0261
28390W        W71406  33.623  30.671  19.045 -0.0691 -0.3302  0.1050
28391W        W71407  25.901  24.923  21.009  0.1192 -0.1839  0.0130
28392W        W71408  20.732  26.662  15.488 -0.2001 -0.1211 -0.0907
28393W        W71409  31.257  19.173  11.260 -0.0344  0.1793 -0.3575
28394W        W71410  24.816  32.153   2.368 -0.2744  0.0946  0.2610
28395W        W71411  19.085   4.088  13.623  0.0121  0.1169 -0.3962
28396W        W71412  27.797  16.469   0.536  0.0294 -0.3490 -0.2390
28397W        W71413  33.236  23.477  23.371  0.0278 -0.1454 -0.2851
28398W        W71414  28.217   6.382  24.420  0.0899 -0.3656 -0.0767
28399W        W71415   4.714  14.740  14.575  0.0559 -0.1277  0.2313
28400W        W71416  24.159  30.983   5.713  0.1487  0.1961  0.0039
28401W        W71417   1.797  34.085  14.791  0.0165 -0.0176  0.3454
28402W        W71418  14.851  34.729  25.323 -0.0131  0.2640  0.1121
28403W        W71419  22.909  18.712  27.752 -0.2739 -0.0443 -0.1265
28404W        W71420  20.265   5.826  15.115 -0.2959  0.1107  0.0335
28405W        W71421  14.736  28.661  18.767  0.1638 -0.0387  0.0381
28406W        W71422  29.133   5.735   2.115  0.0403  0.0381 -0.1110
28407W        W71423  13.276  30.243  19.013  0.0600 -0.1193 -0.2481
28408W        W71424  32.134   9.150  18.275 -0.1377 -0.1075  0.0844
28409W        W71425  20.337  25.103  19.315 -0.0147  0.3639  0.0953
28410W        W71426   8.661   3.086  16.119 -0.0473  0.0327  0.1615
28411W        W71427  32.877  22.490  19.521  0.0028 -0.2837  0.0363
28412W        W71428  12.889  30.839  17.887  0.0161 -0.1052 -0.3129
28413W        W71429  33.528  14.009  20.484 -0.0821 -0.1619 -0.4799
28414W        W71430  28.508  19.944  16.577 -0.2778 -0.2448  0.0134
28415W        W71431  21.120  34.379  26.914 -0.0001 -0.1436 -0.0507
28416W        W71432  18.752  23.834  15.656  0.0478  0.0885  0.0993
28417W        W71433  27.756  33.475  16.188  0.1882  0.1815 -0.5108
28418W        W71434  33.061  23.479  21.165 -0.2545 -0.1320  0.0441
28419W        W71435   3.497   9.587  19.461  0.0058  0.0780 -0.2283
28420W        W71436  32.625   7.761  23.606  0.3419  0.0113 -0.0414
28421W        W71437  29.635   6.160   5.017 -0.5021 -0.1413 -0.0345
28422W        W71438  12.256  15.377  25.581 -0.2308  0.3680 -0.0938
28423W        W71439  31.902  12.463  24.643  0.1740  0.0899  0.0978
28424W        W71440  21.105  29.367  23.735  0.1473  0.0425 -0.0402
28425W        W71441  15.693  27.316  24.086  0.0780  0.2469  0.3849
28426W        W71442  23.131  31.247   3.560 -0.1896  0.0542  0.0473
28427W        W71443   8.502  31.772  17.879 -0.1512  0.3841 -0.1544
28428W        W71444  24.545  34.598   4.206  0.0560 -0.0159  0.1341
28429W        W71445   6.143  28.149  24.672 -0.1624 -0.1471 -0.1309
28430W        W71446  29.671  24.408   6.196  0.0924 -0.0834  0.0503
28431W        W71447  23.993  16.683  21.621  0.1770 -0.0559  0.1872
28432W        W71448  22.779  30.202  25.462  0.0757  0.1338 -0.0261
28433W        W71449  19.288  32.005  22.762  0.1325  0.1772  0.0512
28434W        W71450   1.665   2.173  18.569  0.1352 -0.0971  0.2807
28435W        W71451  28.892  33.098  27.499 -0.4064  0.0560  0.0657
28436W        W71452  18.753  26.261  25.840 -0.1730  0.2561  0.0488
28437W        W71453  33.204  30.375  22.239  0.1478 -0.0872  0.3034
28438W        W71454   9.916  26.937  27.454 -0.0502  0.1302  0.1340
28439W        W71455   5.336   5.472   3.514  0.0462 -0.2393 -0.1684
28440W        W71456   0.691  15.832  20.760  0.1166  0.1785 -0.0008
28441W        W71457   1.925  24.208   1.033  0.0838  0.2693  0.4761
28442W        W71458   1.005   1.716  21.747  0.0375 -0.3941  0.4820
28443W        W71459   4.524   0.728   5.840  0.1869 -0.4047 -0.4262
28444W        W71460  28.270  23.057   3.431 -0.0403  0.2860 -0.1417
28445W        W71461   6.478   7.932   9.118 -0.0542  0.0984  0.1888
28446W        W71462  23.617  33.743  26.329  0.2443  0.0331  0.0960
28447W        W71463  30.946  27.441   4.093 -0.2829 -0.2886  0.0966
28448W        W71464  32.429   2.362  25.677 -0.1573 -0.0710  0.2216
28449W        W71465  33.371   2.858  18.595  0.0660  0.0870 -0.0782
28450W        W71466  29.919  34.306  17.550  0.2629 -0.0325 -0.2182
28451W        W71467  29.151  31.583  17.026 -0.1633  0.1755  0.0643
28452W        W71468  17.685  31.095  18.864  0.2181 -0.2259 -0.1251
28453W        W71469  19.000   6.644  25.616  0.1984 -0.0565 -0.0722
28454W        W71470  16.763   3.999  20.299 -0.1456  0.3721  0.3501
28455W        W71471   5.372  25.116  13.477  0.0613 -0.0835  0.3058
28456W        W71472  31.791  28.791  29.246 -0.0340  0.0794  0.0174
28457W        W71473  33.485  27.790  27.251 -0.0247 -0.2263 -0.4043
28458W        W71474  12.280  12.637  19.941  0.1569 -0.2232  0.0478
28459W        W71475  23.282  30.580  19.929 -0.4816  0.2261 -0.0598
28460W        W71476  21.343  23.759  24.211 -0.0360 -0.1960  0.0957
28461W        W71477  25.011  16.471  27.476  0.1367  0.2753  0.2014
28462W        W71478   4.198  21.406  24.053  0.1083 -0.0510  0.0048
28463W        W71479  33.490  22.226  24.763  0.1992  0.2602 -0.0149
28464W        W71480  24.770   5.816   1.400 -0.0581 -0.0300  0.1259
28465W        W71481   6.445  31.952  20.101 -0.1005  0.3314 -0.0099
28466W        W71482  20.099   1.430  27.406 -0.0212 -0.0757  0.3692
28467W        W71483  23.395   4.287  23.211 -0.2230  0.1253 -0.1094
28468W        W71484   1.433  24.109  27.740 -0.2426 -0.2596 -0.0722
28469W        W71485  32.673   5.237  19.803 -0.2696  0.1761  0.0727
28470W        W71486   0.568  14.509  19.266  0.4212 -0.1213 -0.1086
28471W        W71487  15.631  31.372   6.811 -0.2211 -0.0484  0.2846
28472W        W71488  19.847  33.346  17.026 -0.2113  0.0930 -0.1215
28473W        W71489  27.708  14.487  21.188 -0.1150  0.0128  0.1148
28474W        W71490  29.045  26.802  24.040  0.1963  0.1956  0.1663
28475W        W71491   9.259  11.768  24.410  0.2175  0.1605  0.3085
28476W        W71492  25.709   9.935   2.666 -0.0941  0.2428  0.0057
28477W        W71493  12.438  23.240   1.610  0.1135  0.1206 -0.0729
28478W        W71494  14.195  31.017  21.641 -0.1877 -0.0590  0.3466
28479W        W71495   6.204   0.222  27.628 -0.0354 -0.2826  0.0241
28480W        W71496  19.043   1.365  28.631 -0.0933 -0.0919 -0.1108
28481W        W71497  30.146  28.133   3.876 -0.1450  0.1022 -0.0975
28482W        W71498  24.123   6.260   4.289  0.1366 -0.4061  0.3467
28483W        W71499  20.393  32.277  18.850 -0.1949 -0.1016  0.2278
28484W        W71500  27.888  24.963  26.175 -0.1042  0.1741  0.0727
28485W        W71501  33.382  26.578  26.985 -0.0157 -0.1885  0.0329
28486W        W71502  26.294  29.521   8.255  0.1726 -0.1274  0.1591
28487W        W71503  22.571  22.575  14.515  0.2469  0.0867 -0.0635
28488W        W71504  13.950  34.419  18.790 -0.1394  0.0663 -0.2676
28489W        W71505   2.235  22.745  17.494  0.1858  0.0045 -0.3094
28490W        W71506  27.712   7.460  25.737  0.1214  0.1800 -0.2383
28491W        W71507   8.942  29.099  14.716 -0.1243 -0.0691 -0.0653
28492W        W71508  26.511  30.082  23.985 -0.1149 -0.3653 -0.1970
28493W        W71509  21.849  22.673  19.776 -0.1973 -0.0977  0.0368
28494W        W71510  33.149   5.417  23.037  0.0030 -0.0847  0.1683
28495W        W71511  28.503  23.197  24.583 -0.1110  0.1777  0.1526
28496W        W71512  29.456  27.833  16.623  0.2026 -0.0285  0.1522
28497W        W71513  30.095  19.366  20.092  0.0596 -0.2147 -0.2342
28498W        W71514  20.058  29.663  26.804  0.0935 -0.1556 -0.0606
28499W        W71515  11.460   5.312   6.007 -0.1259  0.0515 -0.0338
28500W        W71516  33.706  11.710  25.059  0.0968 -0.0514  0.1184
28501W        W71517  30.281  26.899  21.839  0.0159  0.0325 -0.0780
28502W        W71518  12.417   1.096  16.902 -0.3597  0.3065 -0.0286
28503W        W71519   4.223  29.907  16.834  0.3161  0.1016 -0.0680
28504W        W71520   2.108  30.467  24.372 -0.2227 -0.1988 -0.1597
28505W        W71521  12.304  27.102  27.831 -0.0070 -0.1250 -0.2765
28506W        W71522  18.015  27.837   8.149 -0.1616 -0.0989  0.2723
28507W        W71523  14.033   4.961  28.134 -0.2350  0.1161 -0.0408
28508W        W71524  29.791  16.142  22.739 -0.0046 -0.2393 -0.0168
28509W        W71525  14.589  22.150  28.047 -0.0826 -0.1465  0.0690
28510W        W71526  27.260   8.284  21.823  0.0678  0.4003  0.2727
28511W        W71527  19.762  30.878   4.325 -0.0276 -0.4739 -0.0392
28512W        W71528  29.967  27.748  16.796 -0.0644  0.1261 -0.1272
28513W        W71529  23.221  13.827  21.676 -0.1474  0.0891 -0.4150
28514W        W71530   6.198  32.449  21.866  0.0495 -0.0206  0.1313
28515W        W71531  26.189  29.442  17.317  0.0498  0.2422 -0.1726
28516W        W71532   3.546  18.297  26.328  0.0348 -0.0844  0.0656
28517W        W71533   2.759  26.773  21.303 -0.0288  0.3595  0.2370
28518W        W71534  29.863  27.960   6.223  0.1763 -0.1184  0.0230
28519W        W71535  28.851   0.460  15.931 -0.0139  0.2378  0.1206
28520W        W71536  30.938  28.683  24.000 -0.0565  0.1270 -0.3803
28521W        W71537  31.294  15.537  19.529  0.3417 -0.0705  0.4389
28522W        W71538  26.361   5.585   4.391  0.1151  0.0745 -0.0709
28523W        W71539  31.613  22.999  17.389 -0.1056  0.1218  0.0499
28524W        W71540  11.080  22.090  18.942 -0.1710 -0.0555  0.0852
28525W        W71541  24.258  22.806  17.549  0.0313  0.2195  0.1727
28526W        W71542  17.284   2.033  26.048  0.0939 -0.0302 -0.0171
28527W        W71543  21.036  32.308  11.315  0.0464 -0.1437  0.1788
28528W        W71544  16.629   7.120   2.786  0.1060 -0.2650 -0.1622
28529W        W71545  22.268   2.213   1.127 -0.2357 -0.2700  0.1143
28530W        W71546  30.267   2.651   7.526  0.1487  0.0353 -0.2551
28531W        W71547  28.820  26.869  26.485 -0.0792 -0.2987 -0.0774
28532W        W71548  13.144   5.435  26.885 -0.0841  0.1863 -0.4387
28533W        W71549  19.998   1.079  20.506  0.3307 -0.1944 -0.2771
28534W        W71550  25.095   1.047  18.108 -0.1466 -0.1131 -0.0847
28535W        W71551   0.701   4.931  24.282  0.2539  0.0596  0.1176
28536W        W71552  16.010   8.713  25.307  0.1394  0.0474 -0.3390
28537W        W71553  33.718   9.178  20.390  0.0618  0.0822  0.2004
28538W        W71554  20.447  32.919  23.995 -0.0370  0.0670 -0.0729
28539W        W71555  18.870  17.005  26.183 -0.1112  0.3285  0.1242
28540W        W71556  14.686   9.432  14.927 -0.1272  0.0502 -0.0932
28541W        W71557   8.307  11.228  28.269 -0.3151 -0.0222 -0.2429
28542W        W71558  22.010  25.483   8.918 -0.0402  0.1122 -0.0528
28543W        W71559  12.748   9.793   1.861 -0.3157 -0.0196 -0.1546
28544W        W71560  20.615  34.575   3.206  0.4911  0.2046  0.0437
28545W        W71561  26.623  20.454  25.560 -0.1240 -0.0899  0.2908
28546W        W71562   4.193  29.769  26.019 -0.1120  0.0610 -0.1068
28547W        W71563  18.584  22.469   8.205 -0.2976 -0.2010  0.0754
28548W        W71564  23.747   5.804  21.838  0.0795  0.1307  0.0824
28549W        W71565  14.167  27.272  19.715  0.2006 -0.1044  0.2263
28550W        W71566  29.666  31.342  21.120  0.1165 -0.1051  0.2413
28551W        W71567   4.380  22.426  23.172  0.2956  0.0631 -0.3116
28552W        W71568  31.284  34.171   8.584  0.1356 -0.1371 -0.1800
28553W        W71569  22.546   2.083  29.192 -0.0529  0.1143 -0.1009
28554W        W71570  25.843  34.500  19.147  0.1505  0.0439  0.1361
28555W        W71571   4.963   2.904  27.961  0.1849 -0.0244 -0.1009
28556W        W71572   3.175  24.114   5.606  0.0529 -0.2451 -0.0148
28557W        W71573  18.433  34.323  15.611 -0.0888 -0.0954  0.0730
28558W        W71574   6.013  13.371   5.682 -0.0987  0.1047  0.0669
28559W        W71575   0.969   2.881  24.145  0.0685  0.1112 -0.3556
28560W        W71576  13.506  29.471  19.503  0.2647 -0.5006 -0.3152
28561W        W71577  22.862   8.396  22.203 -0.1434 -0.2355  0.0009
28562W        W71578   0.194   7.625  24.225  0.1283 -0.0449  0.1644
28563W        W71579  23.217  10.014  18.209  0.0128 -0.1062  0.2556
28564W        W71580  27.900  31.180  17.361  0.1594 -0.2116 -0.0496
28565W        W71581   3.921  27.287  18.368 -0.1773  0.1932  0.1662
28566W        W71582  19.531  31.225  24.505 -0.0170 -0.5203  0.3307
28567W        W71583   4.681  10.154  24.902 -0.0631  0.2011 -0.1376
28568W        W71584  34.112  22.003   5.474 -0.1353  0.0407  0.2090
28569W        W71585   6.911   1.519  21.616  0.0700  0.0666  0.1351
28570W        W71586  12.435   9.547  24.757  0.0876  0.2134 -0.0746
28571W        W71587  24.443   0.739  15.387 -0.1352  0.0960  0.3513
28572W        W71588  27.599  34.451  18.556  0.0129 -0.1880  0.2061
28573W        W71589  28.505  31.465  26.250 -0.0761  0.1207  0.0535
28574W        W71590   1.621  31.116  25.523  0.2068  0.1519 -0.3195
28575W        W71591   9.706   4.716  14.859  0.2278  0.0234  0.3934
28576W        W71592  17.199  18.308  12.392 -0.0339  0.2921  0.0537
28577W        W71593  29.159  33.308  19.559 -0.2548  0.0716  0.0982
28578W        W71594  30.808  34.437   3.132 -0.1300  0.0734 -0.1496
28579W        W71595   6.954  15.440  23.286  0.2836  0.1354  0.2054
28580W        W71596  33.477  28.737  28.832 -0.1470  0.0267 -0.2527
28581W        W71597  28.573  28.776  24.008  0.0384  0.2004  0.2101
28582W        W71598  31.495  34.098  26.393  0.0589 -0.1548  0.0388
28583W        W71599  33.117  30.191  23.549  0.0401 -0.0198  0.2744
28584W        W71600  19.510   6.267  14.432 -0.1131 -0.0842  0.2608
28585W        W71601  19.572   7.947  16.706  0.0551 -0.0902  0.0344
28586W        W71602  17.859   5.136  23.510  0.0895  0.3178  0.0333
28587W        W71603  30.563  19.797  29.029 -0.3845  0.0584  0.0853
28588W        W71604   2.303  31.243  16.367 -0.0281 -0.0685 -0.0373
28589W        W71605  21.231   6.654   1.298 -0.1159  0.2820 -0.0736
28590W        W71606  28.994  34.152  22.419 -0.1789  0.2936 -0.0643
28591W        W71607  23.162  17.700  21.240  0.2356  0.0531 -0.2021
28592W        W71608  19.983  30.596  24.090  0.1701 -0.1871 -0.1381
28593W        W71609  24.113  28.909  20.740  0.1163  0.0986 -0.1748
28594W        W71610  26.029   6.955  16.173  0.4900  0.0249  0.0870
28595W        W71611  27.064  32.014   7.407 -0.2393  0.1446  0.0206
28596W        W71612  31.200  18.419   1.331  0.3465 -0.0644  0.0432
28597W        W71613  16.738  27.670  21.290 -0.3253 -0.1182 -0.0570
28598W        W71614  20.394  11.521  17.329  0.3014  0.1329 -0.3497
28599W        W71615  21.947  27.267  19.006 -0.2545 -0.2217  0.4819
28600W        W71616   2.710  31.792  22.170 -0.1457  0.1666  0.1359
28601W        W71617  26.005  11.826   9.559 -0.1373  0.2376  0.2846
28602W        W71618   7.481  33.889   1.207 -0.2070 -0.0389 -0.0563
28603W        W71619  24.332  31.681  19.466 -0.3287  0.0126  0.0252
28604W        W71620   7.308  32.502  14.592  0.1851 -0.0152  0.1930
28605W        W71621  19.558  17.676  13.829  0.0248  0.4234 -0.1567
28606W        W71622  23.233   0.514  27.798  0.0522 -0.0372 -0.3107
28607W        W71623  24.881  34.161   8.316 -0.1081  0.2780  0.0024
28608W        W71624  11.173  33.938   3.553 -0.1663  0.0190  0.1640
28609W        W71625  22.716  29.171   0.478  0.0592  0.1695  0.0549
28610W        W71626   6.377  24.801  15.531 -0.0516  0.2955  0.2393
28611W        W71627  34.684   4.829  17.484  0.1308 -0.2591  0.0581
28612W        W71628  13.357   7.419  24.146 -0.0674 -0.0498 -0.0306
28613W        W71629  23.726  27.388   0.994 -0.2166 -0.2501  0.3380
28614W        W71630  31.121  34.088   6.578  0.0008 -0.1578  0.1766
28615W        W71631  16.329  32.712  17.645 -0.4247 -0.0419 -0.1209
28616W        W71632  17.178   4.325  17.338  0.1256  0.1850 -0.0217
28617W        W71633   8.502  29.366  24.870  0.0650 -0.0083  0.0371
28618W        W71634  11.520  31.373   6.083 -0.0737 -0.1809  0.1520
28619W        W71635  22.885   7.190  26.555  0.1672 -0.1857 -0.3077
28620W        W71636   9.542  33.743   6.538 -0.3325  0.3562 -0.0698
28621W        W71637   1.173  31.131  16.521 -0.1194  0.2468 -0.0118
28622W        W71638   6.181  22.003  23.511 -0.2548 -0.1390 -0.0411
28623W        W71639  15.267  24.320  13.531  0.0029  0.1254  0.1013
28624W        W71640  20.000   4.529   8.678 -0.0902  0.2333  0.1234
28625W        W71641  25.798  33.159   6.596  0.2052 -0.0366 -0.1561
28626W        W71642  12.525  33.846   2.712  0.1459  0.1007 -0.0464
28627W        W71643  28.281  30.254  27.942 -0.0290 -0.0161 -0.0896
28628W        W71644  21.393   3.786  22.583 -0.0550  0.1726 -0.0711
28629W        W71645  15.282  24.597  21.433 -0.0662 -0.0506  0.2579
28630W        W71646  24.068  22.071  16.142 -0.2084  0.1142  0.1532
28631W        W71647  27.021  33.104  17.173  0.2021  0.3624 -0.1400
28632W        W71648  12.454  29.310  19.106 -0.1145  0.1201  0.0497
28633W        W71649  24.205  28.259   8.532 -0.2586 -0.0566 -0.0930
28634W        W71650  29.508   2.529  15.891 -0.2067 -0.0989  0.1354
28635W        W71651  32.843  16.303   9.469  0.1383 -0.0744 -0.0630
28636W        W71652   3.293  15.587  24.889 -0.1295  0.2162 -0.2394
28637W        W71653   7.044  33.631   6.193  0.0958 -0.2591  0.0297
28638W        W71654  16.097   3.916  20.435  0.2568  0.3787  0.3216
28639W        W71655  30.568  12.176  27.905 -0.0012 -0.1735 -0.3474
28640W        W71656  26.444  34.206   3.891  0.1664  0.0230  0.1069
28641W        W71657   6.561  26.122   4.313 -0.0070  0.1713 -0.0174
28642W        W71658  27.183   1.813  17.570  0.1321 -0.0177  0.1117
28643W        W71659  24.779  19.423   7.809 -0.3185  0.0682 -0.1766
28644W        W71660  22.592  25.984   8.195  0.1627  0.2502 -0.0948
28645W        W71661  24.505   3.916  18.990  0.3558  0.0341  0.0842
28646W        W71662  32.881   2.082  27.078  0.2407  0.2554 -0.1198
28647W        W71663   1.588  10.604  24.239 -0.0943  0.2993 -0.2182
28648W        W71664  20.024  28.052  10.237  0.2729  0.2801 -0.0785
28649W        W71665  26.396  34.528  23.066 -0.0125 -0.0925 -0.1241
28650W        W71666  20.781  24.806  29.027  0.3276 -0.0168 -0.2144
28651W        W71667  21.060  17.912   5.802 -0.0366 -0.0459 -0.0976
28652W        W71668  22.810  29.231  20.209 -0.1146 -0.0340 -0.1531
28653W        W71669  16.659  12.351   3.472  0.0828 -0.0109  0.1412
28654W        W71670   1.758  14.366  18.281  0.0229  0.4919 -0.1172
28655W        W71671   9.694  32.464  20.059  0.1349  0.0204 -0.2191
28656W        W71672  34.220  21.423  26.700  0.3022  0.0958  0.1740
28657W        W71673  20.124   2.218  23.502 -0.2358 -0.1333  0.1155
28658W        W71674  33.285  23.999  20.274 -0.6759  0.3331  0.0826
28659W        W71675  32.819   1.577  25.927 -0.1681 -0.1148 -0.0350
28660W        W71676  24.951   0.577  22.174 -0.1391 -0.1384  0.1116
28661W        W71677  19.174  12.331  19.897  0.1502  0.2135 -0.0626
28662W        W71678  21.626  32.412  22.120 -0.0576 -0.5278 -0.0012
28663W        W71679  30.029  21.422  23.716  0.1770 -0.2465  0.2016
28664W        W71680  28.285  12.847  22.206  0.2671  0.3605 -0.0795
28665W        W71681  17.522  27.144  15.286 -0.1262  0.0596 -0.1456
28666W        W71682   0.894  26.183  20.509 -0.3443  0.3248  0.1001
28667W        W71683  27.890  34.054   5.979 -0.0344 -0.0831  0.2271
28668W        W71684  26.199  17.658  23.985  0.0867  0.1852 -0.1466
28669W        W71685  22.722  21.307   8.492 -0.2058 -0.0588 -0.1233
28670W        W71686  20.243   4.450  23.627  0.1945 -0.1362 -0.0962
28671W        W71687  23.031  14.150  12.913  0.1965 -0.1959 -0.0027
28672W        W71688   2.086  32.858   1.653 -0.0183 -0.1967  0.4098
28673W        W71689   7.864  24.655  16.926  0.4079 -0.0708  0.2514
28674W        W71690  28.666  22.287   6.551  0.3011  0.1250  0.1875
28675W        W71691  27.128  14.347  15.300  0.0351 -0.0222 -0.1325
28676W        W71692   3.927  33.869   6.773 -0.1904  0.2512 -0.0173
28677W        W71693  30.414  21.057   3.916  0.1570 -0.0052  0.4781
28678W        W71694  17.768   0.551  23.432 -0.0269  0.0050 -0.1982
28679W        W71695  29.435   6.077  25.076 -0.1495  0.0497 -0.0609
28680W        W71696  28.908   7.288  24.471  0.2321  0.1998  0.1962
28681W        W71697  29.119  27.500   0.900 -0.1710  0.0345 -0.2575
28682W        W71698  14.987  29.644  19.966  0.1822 -0.1811 -0.1507
28683W        W71699   3.839  21.822  17.947 -0.1144 -0.2714 -0.0673
28684W        W71700  29.239  32.833  20.112 -0.0194 -0.1060  0.2424
28685W        W71701  18.535   3.290   7.881 -0.1711 -0.1341 -0.0843
28686W        W71702   2.661  31.700  27.385 -0.0139 -0.0170 -0.1531
28687W        W71703  25.537   9.495   5.939 -0.3280 -0.2186 -0.0711
28688W        W71704  29.819   8.772  28.490  0.0407  0.1140 -0.0441
28689W        W71705  27.740   3.731  17.946  0.0457  0.1764  0.0918
28690W        W71706  20.993   4.348  23.351 -0.0370 -0.1085  0.2243
28691W        W71707  23.690  30.246   3.071 -0.0216 -0.1483 -0.0467
28692W        W71708  22.485  23.151  28.584  0.2354 -0.5270 -0.2119
28693W        W71709  31.915  13.409  22.828 -0.0015  0.0256  0.3578
28694W        W71710  18.865  19.180  16.505  0.3045 -0.0304  0.1290
28695W        W71711  25.392  20.973  16.712 -0.1516  0.0475 -0.0885
28696W        W71712  31.899   3.146  26.101  0.0571 -0.0733  0.0018
28697W        W71713  23.711  31.387   2.370  0.3806  0.1583 -0.1791
28698W        W71714  18.146   2.582  24.944  0.0918  0.0065  0.2551
28699W        W71715  20.952  24.909   0.154 -0.2779  0.2378  0.0578
28700W        W71716  25.618  17.085   6.552 -0.1925 -0.1157  0.5391
28701W        W71717   3.785   5.621  23.227  0.1148 -0.1613 -0.2092
28702W        W71718  22.324   0.930   4.668  0.1157  0.1381  0.2907
28703W        W71719  30.207  28.085  25.343  0.2097  0.3326  0.0379
28704W        W71720  12.166  25.577  14.451  0.1938  0.2141  0.1113
28705W        W71721  18.446   3.763   9.391  0.0568  0.2335  0.0166
28706W        W71722  20.059  26.578  22.801  0.0264 -0.1801 -0.0478
28707W        W71723  17.013   0.033   0.581 -0.1782  0.1702  0.0336
28708W        W71724  24.862   2.550   8.876  0.1859  0.2720  0.2726
28709W        W71725  30.752  30.098  24.730 -0.0901 -0.1042 -0.2355
28710W        W71726  13.997  28.329  25.445 -0.5215  0.1727 -0.4589
28711W        W71727  27.542  18.957  27.437  0.1167 -0.4518  0.0710
28712W        W71728   2.476  32.832   1.300 -0.0087 -0.0401  0.0411
28713W        W71729  17.781   2.396  23.297  0.0479  0.0276 -0.1737
28714W        W71730  32.749  34.372   9.014 -0.2100  0.0258 -0.3830
28715W        W71731  30.202  21.794   7.697  0.1638  0.0719 -0.1329
28716W        W71732   3.887  23.907   6.349  0.0768 -0.0005 -0.1508
28717W        W71733  30.427  33.363   9.046  0.1297 -0.0149 -0.1221
28718W        W71734  21.085   7.665  21.102  0.3487 -0.0545  0.2164
28719W        W71735  20.654  24.259  19.088 -0.1035 -0.1425 -0.0466
28720W        W71736  33.536  19.064  21.388  0.1546  0.1725  0.0877
28721W        W71737  29.393   8.311  28.117  0.2129 -0.0984  0.5143
28722W        W71738  28.381   1.468  21.067  0.1781  0.0301 -0.2062
28723W        W71739  18.861  32.434  16.213  0.1293  0.1408  0.1220
28724W        W71740  32.080  30.004  27.854  0.1921  0.0454 -0.1297
28725W        W71741  27.763   5.733  22.469 -0.0625 -0.2575  0.0143
28726W        W71742  23.107   0.389  24.030  0.1957 -0.3897 -0.1445
28727W        W71743   5.257  20.112   4.239  0.0740  0.3532  0.2205
28728W        W71744   7.678   8.307  28.498 -0.0372  0.0557 -0.1422
28729W        W71745  25.489  27.804  24.455  0.0143 -0.1142  0.2198
28730W        W71746  27.352  12.218  17.562 -0.1184  0.0935  0.0087
28731W        W71747   0.838   1.269   1.094  0.1681  0.0408 -0.3259
28732W        W71748  26.785  19.712  27.486 -0.0780  0.0305 -0.3453
28733W        W71749  27.473  21.180   1.420  0.0230 -0.0970  0.2281
28734W        W71750  14.555   1.836  14.884 -0.0708  0.0387 -0.0402
28735W        W71751  25.773  24.359   0.176  0.0373 -0.2829  0.0242
28736W        W71752   4.602  26.887  19.591  0.1617 -0.2106 -0.1462
28737W        W71753  25.543  28.598  20.117  0.1200 -0.1822 -0.0251
28738W        W71754  31.328   3.957  27.429  0.2538 -0.1255 -0.1233
28739W        W71755  24.738  25.819   5.919  0.0037  0.0297  0.0146
28740W        W71756  24.259   1.399  24.049 -0.1520  0.1631  0.0142
28741W        W71757  16.080  29.353  14.804 -0.2035  0.1444  0.0389
28742W        W71758   7.908   7.847  16.050  0.1321  0.0164  0.0396
28743W        W71759  33.730  29.597  26.127  0.1205 -0.2400  0.0635
28744W        W71760   2.112  24.158  28.774 -0.1004  0.0363 -0.2195
28745W        W71761  23.153  10.342   2.988 -0.0444 -0.0009 -0.0875
28746W        W71762  25.187   9.410  14.988 -0.0271  0.0376  0.1261
28747W        W71763  28.858   2.834   5.619  0.1943 -0.2613 -0.0412
28748W        W71764  15.906  17.160  14.280 -0.2006  0.1338 -0.5372
28749W        W71765  29.076   4.807  21.237  0.1716 -0.0765 -0.0713
28750W        W71766  21.055  20.374  14.968  0.1691 -0.1264  0.1908
28751W        W71767  27.001  21.872   2.295  0.4321  0.1343  0.2219
28752W        W71768  26.554   5.187  19.952 -0.1006  0.0945  0.0240
28753W        W71769  11.736  31.761  15.225 -0.2584 -0.4664 -0.1810
28754W        W71770   6.636  12.444  17.395  0.1567 -0.0502 -0.1234
28755W        W71771  30.227   6.133  15.804  0.1403  0.3266 -0.1480
28756W        W71772  18.231   6.510  29.046  0.1822 -0.1956  0.3254
28757W        W71773  15.289  32.934  24.019 -0.1849 -0.1403  0.0781
28758W        W71774  33.665  14.770  19.100  0.0195 -0.1208 -0.1116
28759W        W71775  12.127  23.979   8.541 -0.1422  0.1673 -0.2603
28760W        W71776  30.551  17.989  14.435  0.1235 -0.0781  0.1609
28761W        W71777  24.802  31.308  27.241 -0.2459 -0.1988 -0.0599
28762W        W71778  26.566  29.680  17.555 -0.2639 -0.2885 -0.0461
28763W        W71779   5.997   6.480  19.711  0.2040 -0.1256  0.1682
28764W        W71780  26.620   5.279  28.880  0.1152 -0.1679 -0.2287
28765W        W71781  29.031  31.162  18.441 -0.0018 -0.2092 -0.4373
28766W        W71782  22.809  19.792  14.249 -0.0110  0.4209  0.0066
28767W        W71783  27.134   0.007  12.133 -0.2980  0.3958 -0.2659
28768W        W71784   3.668   1.261   0.711 -0.2478 -0.2309 -0.3449
28769W        W71785  23.832  32.933  17.709  0.0088  0.0793 -0.4455
28770W        W71786  33.460  32.548   4.943  0.1457  0.0201  0.2494
28771W        W71787  14.407   2.300  24.119  0.2087 -0.1251  0.0043
28772W        W71788  22.904  11.882   1.575  0.1279  0.3011 -0.0473
28773W        W71789  33.465   0.558  29.031  0.0572 -0.2198 -0.1249
28774W        W71790  24.221  32.633  21.606  0.1381  0.2116 -0.2245
28775W        W71791   1.816   7.928   1.052  0.2713  0.1398 -0.0257
28776W        W71792  23.828   7.962   2.810  0.0630 -0.1843  0.4391
28777W        W71793  21.244  25.475  27.289  0.1744  0.0351  0.0389
28778W        W71794  20.777  21.609  25.642  0.0840  0.0964 -0.2411
28779W        W71795  29.578   5.573  22.813 -0.1060 -0.0116  0.3012
28780W        W71796  19.243  28.592   6.715 -0.0400 -0.0409 -0.1017
28781W        W71797  22.969  25.135  23.381  0.0848  0.0091  0.0490
28782W        W71798  24.604  33.220  26.879  0.3689 -0.2031  0.0328
28783W        W71799  16.922   2.974  14.946 -0.0645 -0.2080  0.0979
28784W        W71800  24.049  25.162  20.817  0.0334 -0.0803 -0.1680
28785W        W71801  16.349  27.951  24.812  0.0049 -0.0764  0.0812
28786W        W71802  21.375   0.791   4.686 -0.2055 -0.0107  0.2920
28787W        W71803  31.077   5.309  28.239  0.1852 -0.3433 -0.1447
28788W        W71804  28.094   2.499  26.842 -0.1187 -0.0084 -0.1750
28789W        W71805  23.284  15.017   0.831 -0.0259  0.0089 -0.0294
28790W        W71806  29.571  13.254   2.985 -0.3053  0.0767 -0.1457
28791W        W71807  13.866  31.535  27.121  0.0872 -0.2831  0.2399
28792W        W71808  27.268   8.792  10.386  0.5272 -0.2021 -0.0676
28793W        W71809   4.728  24.227   2.994  0.0024 -0.2167 -0.0788
28794W        W71810  30.757  31.846  16.147  0.2055  0.3307 -0.2970
28795W        W71811  19.475  32.774  18.798  0.0978 -0.3180  0.0248
28796W        W71812  12.540  24.737   0.737 -0.1605 -0.1996  0.0595
28797W        W71813  32.033  19.266   0.408  0.0719 -0.1399  0.1067
28798W        W71814  24.773  29.574   1.920  0.0140 -0.0722  0.2222
28799W        W71815  30.907  25.121  22.791 -0.2810 -0.0351  0.2870
28800W        W71816  19.629  10.474  15.637  0.3571  0.1362 -0.0267
28801W        W71817  28.515   6.787  10.885  0.0581  0.5882  0.0338
28802W        W71818   3.913  32.907  19.684 -0.1507  0.2618  0.0429
28803W        W71819  25.760  25.924   3.776  0.1091 -0.2389  0.1864
28804W        W71820   4.627   7.248  15.907 -0.2881 -0.1211 -0.1273
28805W        W71821  31.745   2.269  21.551  0.4966 -0.0255  0.1937
28806W        W71822  18.031  33.982  26.927  0.0516 -0.1018 -0.1402
28807W        W71823  32.008  14.082  24.714  0.0054  0.1667 -0.2069
28808W        W71824  20.503   2.227   0.021 -0.1184 -0.3715 -0.1102
28809W        W71825  10.096   7.888   8.972  0.1324  0.2271  0.0728
28810W        W71826  26.058  28.506   8.935 -0.0068 -0.2638  0.1008
28811W        W71827   1.137   0.550   7.177 -0.0389  0.2154  0.0819
28812W        W71828  14.901  32.423   0.351  0.0251  0.0867  0.0438
28813W        W71829  29.495  29.203  21.872 -0.1013  0.1409  0.0620
28814W        W71830  29.806   5.691  16.446 -0.4594 -0.3070  0.0823
28815W        W71831  10.193   1.175  22.800 -0.0098  0.1467 -0.0227
28816W        W71832  26.575  11.724  28.566 -0.2141  0.2022  0.2866
28817W        W71833  34.549   8.319   9.769 -0.1487  0.5174 -0.0208
28818W        W71834  23.684  18.361  26.702  0.2230  0.0510  0.1399
28819W        W71835  32.163   4.929  22.826 -0.0131  0.0895 -0.1150
28820W        W71836  26.248   4.638  15.850  0.0085 -0.1067 -0.2245
28821W        W71837  23.841  11.954  17.869 -0.0857 -0.0684  0.2696
28822W        W71838  16.916   6.357   1.689 -0.0842  0.2659  0.1654
28823W        W71839  25.652  33.639  28.378 -0.4244  0.1494 -0.0690
28824W        W71840   1.827   7.795  28.254  0.2353  0.0883  0.0994
28825W        W71841  33.178  27.984   7.612  0.0259  0.0750 -0.2770
28826W        W71842   7.013   6.195   1.352  0.0330  0.3421  0.1113
28827W        W71843  18.247   3.893  24.769 -0.0609 -0.1181 -0.0377
28828W        W71844  14.249  23.095   6.730 -0.1797 -0.3806 -0.0956
28829W        W71845  15.349  29.729  23.705  0.3590 -0.2163 -0.1755
28830W        W71846  34.489  26.857  10.434  0.1160 -0.1100  0.0951
28831W        W71847   4.867   4.288  22.872  0.0743 -0.1671  0.1094
28832W        W71848   6.057  24.686  27.530  0.1916 -0.1483 -0.0104
28833W        W71849   1.083  34.668  19.465 -0.3002  0.2187 -0.0665
28834W        W71850  22.082   3.789  11.027 -0.0247 -0.1543  0.2044
28835W        W71851  15.739  12.250  19.426  0.1640  0.3133 -0.1768
28836W        W71852  34.424  26.276  24.969  0.1726 -0.1926 -0.0454
28837W        W71853  10.294  30.515  25.566 -0.0348 -0.1103 -0.3420
28838W        W71854   7.253  24.368  24.116 -0.3770 -0.0089 -0.1696
28839W        W71855   1.407  22.331   0.367  0.1869  0.2790  0.1042
28840W        W71856  34.350  20.857  25.654  0.1481 -0.0824  0.0519
28841W        W71857  20.638   7.033  14.254 -0.1368  0.1415  0.0807
28842W        W71858   8.091  18.339  23.977  0.1144  0.0723 -0.1102
28843W        W71859  28.597  10.502   1.393 -0.1976 -0.0803 -0.3035
28844W        W71860   3.873  19.317   1.559  0.0673  0.0705  0.1405
28845W        W71861  12.790   0.877   2.264 -0.2533 -0.1574 -0.0614
28846W        W71862  23.252  23.775   7.966 -0.0545 -0.0534 -0.0543
28847W        W71863  18.981   2.173  17.757 -0.1263 -0.0003  0.3386
28848W        W71864  29.572  27.161  26.535 -0.0822  0.0120 -0.1333
28849W        W71865   3.383  30.787   0.468  0.3340 -0.2607  0.1077
28850W        W71866  20.700  20.296  27.323 -0.2345  0.1451 -0.4200
28851W        W71867   7.091  27.419  19.725  0.0079  0.0240 -0.1121
28852W        W71868  30.498  24.490  20.344 -0.0756 -0.0890  0.1865
28853W        W71869   5.740  25.559  20.974 -0.1440  0.0748  0.1296
28854W        W71870  31.111   4.138  10.007 -0.0161 -0.1459  0.1358
28855W        W71871  28.036  10.656  24.896  0.0263 -0.0913  0.1890
28856W        W71872  24.493  16.792  22.840 -0.3511  0.2745  0.1555
28857W        W71873   8.281   0.547  18.661  0.1012  0.1719 -0.0631
28858W        W71874  16.506   0.171  24.557 -0.3619  0.0153 -0.2186
28859W        W71875  25.288   3.702  26.118 -0.0476  0.0848 -0.1716
28860W        W71876   4.721  19.230  24.739 -0.0108  0.1548  0.0395
28861W        W71877  23.437  17.517  24.906 -0.1461  0.2395 -0.2066
28862W        W71878  19.596  26.570   7.120  0.0327 -0.1719 -0.0013
28863W        W71879  30.553   3.343  25.153  0.2242  0.0127  0.0088
28864W        W71880  15.466  34.116  25.674 -0.0042 -0.2233  0.0164
28865W        W71881  31.170  33.659   1.278  0.3496  0.0003 -0.1882
28866W        W71882  16.783  12.072  14.224 -0.2161 -0.0797  0.3184
28867W        W71883  18.061   3.590   9.750 -0.0687 -0.2560 -0.1408
28868W        W71884  31.820  31.782  10.521  0.2186 -0.1324 -0.1991
28869W        W71885  10.278   1.651  17.363  0.0639 -0.2910  0.0532
28870W        W71886  23.496  16.980  21.987  0.1735  0.0074  0.1406
28871W        W71887  32.032  22.065  10.690  0.0272 -0.2266  0.0193
28872W        W71888  20.898  31.338   3.635  0.1021 -0.2682 -0.1608
28873W        W71889  28.227  33.512   0.213  0.2474 -0.0814 -0.1011
28874W        W71890  22.116   4.576  24.801 -0.0644  0.2506  0.2592
28875W        W71891  33.221   4.166   8.253 -0.2476 -0.0195 -0.1367
28876W        W71892  27.313  33.588  10.222  0.0786  0.1995 -0.2643
28877W        W71893  29.361  25.473  27.388 -0.0147 -0.0106 -0.2302
28878W        W71894  21.259  22.957  27.121 -0.1369  0.0383 -0.1194
28879W        W71895  22.713   0.127   5.081 -0.1337  0.0905 -0.1912
28880W        W71896   2.677   7.930   8.364  0.0779 -0.0964 -0.0253
28881W        W71897  26.267  32.120  19.690 -0.2517 -0.1291  0.2931
28882W        W71898  24.132  31.390  26.646  0.0156  0.3480  0.0997
28883W        W71899  13.301   0.625  17.334  0.0363 -0.2468  0.2690
28884W        W71900  28.664   3.628  10.690  0.1395  0.1261 -0.2653
28885W        W71901   2.898   5.607   8.290  0.2661  0.0459  0.4583
28886W        W71902  11.114  23.888  27.807 -0.2817 -0.3680 -0.1689
28887W        W71903  17.901  32.784  25.066 -0.3669  0.0643  0.0989
28888W        W71904  33.964  21.539   0.994 -0.1095 -0.1231 -0.2594
28889W        W71905   2.448  33.886  18.569 -0.0850 -0.1080 -0.1109
28890W        W71906  10.937  27.405  19.430 -0.0386 -0.0162 -0.2333
28891W        W71907   3.723  18.667   2.821  0.3928 -0.1192  0.2619
28892W        W71908   2.752  15.938  10.056  0.0117  0.1874 -0.2095
28893W        W71909   1.696  25.216   6.338 -0.0973  0.3898 -0.0192
28894W        W71910   1.442  27.575   0.301 -0.1026  0.1598  0.0776
28895W        W71911   9.193  28.701   3.204 -0.0472 -0.1897 -0.2394
28896W        W71912  12.912  34.456   6.686  0.0997  0.0362  0.0070
28897W        W71913  14.467  33.098   5.946 -0.4631 -0.2131  0.1911
28898W        W71914  14.922  32.703  25.332 -0.0823 -0.1182  0.4775
28899W        W71915   9.656  28.916   8.999  0.0256 -0.1213  0.3392
28900W        W71916  34.367  14.910   6.836 -0.1416  0.0753 -0.3210
28901W        W71917  15.735   7.038  18.885 -0.1945 -0.1322  0.4161
28902W        W71918   1.916  23.186   9.989 -0.2705  0.2171  0.0673
28903W        W71919   0.770  25.692   2.281 -0.2892 -0.0420  0.2826
28904W        W71920  20.638   2.388  24.561 -0.1786 -0.0974 -0.1085
28905W        W71921   0.538   0.811  16.638  0.0564  0.2778  0.0609
28906W        W71922  28.640  29.224  29.005  0.1183  0.2290  0.1507
28907W        W71923   3.380  18.666  19.570 -0.0855 -0.0761 -0.2849
28908W        W71924  34.208  14.642  22.875 -0.1423  0.1977 -0.0168
28909W        W71925  31.656  26.997   0.419 -0.0020  0.1625  0.0459
28910W        W71926   1.369  34.422   3.300 -0.0263  0.2585  0.0858
28911W        W71927  31.613  29.346   1.896  0.0819 -0.2672 -0.2267
28912W        W71928   4.777   4.447  17.661 -0.0351  0.5644 -0.2706
28913W        W71929   0.585   2.764  10.481  0.0735 -0.1259 -0.1411
28914W        W71930  21.376  31.821   1.622 -0.0956  0.1304 -0.0040
28915W        W71931  33.976   2.974   3.419 -0.4696 -0.1018 -0.1271
28916W        W71932  33.812  22.720  23.101  0.1675  0.2491 -0.3249
28917W        W71933  12.329  28.937   1.624 -0.0039  0.0472  0.1435
28918W        W71934  20.632  30.005  24.879  0.3246 -0.1001 -0.1561
28919W        W71935  32.350  20.801   7.772 -0.3292 -0.1633  0.1131
28920W        W71936  25.840  34.027  18.808 -0.2383  0.0677 -0.3605
28921W        W71937   1.252  20.565  28.644  0.1771 -0.1024  0.0075
28922W        W71938  30.682   5.869  24.329 -0.1257 -0.0290  0.4174
28923W        W71939  21.655   8.572  26.339 -0.1114 -0.0252 -0.0985
28924W        W71940  13.644  31.583   0.505  0.2991 -0.2436 -0.1627
28925W        W71941  27.842   6.824   3.311  0.4959  0.3085 -0.2104
28926W        W71942  30.824  24.436  27.936  0.0396 -0.1310 -0.0967
28927W        W71943   9.230  10.629  18.492 -0.1879 -0.1905 -0.1787
28928W        W71944  12.858  27.374  16.781  0.0478 -0.1439 -0.0206
28929W        W71945  21.036   0.652  21.202 -0.2108 -0.2346  0.2306
28930W        W71946  23.824  29.542  18.933  0.1817 -0.1582 -0.0426
28931W        W71947  22.668   4.701  22.325  0.2314  0.1700 -0.2120
28932W        W71948  27.526  10.091  22.214 -0.0896  0.2132 -0.1588
28933W        W71949   5.927  30.306   0.084 -0.1638 -0.0153 -0.1524
28934W        W71950  26.866  34.434  23.442  0.3065  0.1952 -0.0771
28935W        W71951  30.213  19.795   8.807  0.1588  0.0946  0.1011
28936W        W71952   5.382  10.829  28.006  0.2340 -0.1387 -0.0602
28937W        W71953  23.954  22.986  24.868 -0.2026 -0.0753  0.1129
28938W        W71954  28.912  12.437   2.994  0.0059 -0.0171 -0.1362
28939W        W71955  30.016   1.799  22.127 -0.2175  0.1308  0.2032
28940W        W71956  33.929  15.508  21.278  0.0702 -0.2993  0.6334
28941W        W71957  34.553  20.491  21.080  0.2914 -0.2956  0.4287
28942W        W71958  11.986  26.815  29.109 -0.3152  0.0326  0.2469
28943W        W71959   2.106   3.409  21.151 -0.1261 -0.0066  0.1199
28944W        W71960   3.623  11.823  24.631 -0.0805 -0.1199 -0.0968
28945W        W71961  27.107  28.329  25.882  0.5587  0.0693  0.2337
28946W        W71962  30.153  30.195  18.101 -0.0139  0.0784 -0.0229
28947W        W71963  27.668  29.306   0.818 -0.2061  0.2998  0.1242
28948W        W71964  25.924  20.892  18.714 -0.1044  0.1376  0.2594
28949W        W71965  25.575   4.593   0.630 -0.0732 -0.0715  0.1624
28950W        W71966  21.016  32.612   3.924  0.0051 -0.0690  0.0588
28951W        W71967  19.151  18.830  14.478 -0.1458  0.1955  0.1133
28952W        W71968  29.689  24.952  27.965 -0.0753  0.3823 -0.1491
28953W        W71969  23.813  30.658  17.482 -0.1399 -0.1522 -0.1697
28954W        W71970  30.696   8.281  21.825 -0.2645  0.0199  0.0758
28955W        W71971  22.945  22.302  28.335 -0.1620  0.1341  0.1839
28956W        W71972  15.483  28.848  19.915  0.0206 -0.0952 -0.0662
28957W        W71973  23.106  23.691  25.561 -0.2240 -0.0602  0.3986
28958W        W71974   0.337  26.751   4.370  0.0318 -0.0977  0.3591
28959W        W71975   8.770  26.159   5.306 -0.2529 -0.1211  0.0610
28960W        W71976  24.188  25.965   5.699 -0.1116 -0.0048 -0.1987
28961W        W71977  19.415  25.201   1.541 -0.1792  0.1754 -0.2407
28962W        W71978   0.205  20.056   8.968  0.0177 -0.0435 -0.0282
28963W        W71979  19.815  21.143  28.496  0.0661 -0.1280 -0.0259
28964W        W71980  26.145   9.898  23.836 -0.0021  0.1082 -0.2535
28965W        W71981  34.087  23.758   1.414  0.1105  0.0672  0.2726
28966W        W71982   0.325   4.867  18.292 -0.2856  0.2362 -0.1064
28967W        W71983  18.112   8.779   7.768 -0.1080 -0.2339  0.2312
28968W        W71984  27.447  30.124   3.632 -0.0481  0.2042  0.0136
28969W        W71985   8.599  26.452   9.293 -0.1620  0.2317  0.1170
28970W        W71986  34.382  28.808   4.768 -0.0028  0.4122 -0.0602
28971W        W71987  31.495  24.041   6.393 -0.0816  0.0909 -0.0238
28972W        W71988  19.723  22.747  27.903  0.1742  0.4056  0.1086
28973W        W71989  19.206  27.444   5.448  0.0148 -0.0706  0.3256
28974W        W71990  27.345  22.645  23.945 -0.0629 -0.3249 -0.0657
28975W        W71991  18.597  26.493  17.594 -0.0579  0.1174 -0.0105
28976W        W71992  13.822   1.346  27.206  0.0923  0.0366 -0.0821
28977W        W71993  33.375  31.898  10.033 -0.0014  0.2234  0.2534
28978W        W71994   9.147  26.762   0.325  0.4271 -0.0198 -0.1006
28979W        W71995  28.633  33.672  22.591  0.0714 -0.0438  0.1580
28980W        W71996   8.325  29.887  15.344 -0.0732  0.1009 -0.1917
28981W        W71997  30.055   1.307   5.819 -0.2741 -0.0230  0.0132
28982W        W71998  24.925  27.505  22.723  0.3041 -0.1691  0.0276
28983W        W71999  22.162  20.216   3.793 -0.0611  0.2470  0.2089
28984W        W72000  29.961   6.507  20.349  0.1010  0.1176  0.0421
28985W        W72001  33.308  30.689   8.299  0.1138  0.0678  0.2788
28986W        W72002  29.609   4.335   8.758  0.0146 -0.1891  0.0919
28987W        W72003   7.589  21.675  19.152 -0.2690  0.0479  0.1826
28988W        W72004  34.355  29.960  26.566 -0.2682 -0.0234 -0.1739
28989W        W72005  31.979  18.527  14.320 -0.0487  0.2907  0.2838
28990W        W72006  30.628   8.303   8.463 -0.0757  0.0179  0.2097
28991W        W72007  27.996  30.657  18.946 -0.3766  0.2673  0.0942
28992W        W72008   5.410  26.802  17.399  0.2038  0.1381  0.3444
28993W        W72009  25.432   4.136   0.631 -0.3802  0.1545  0.1729
28994W        W72010  26.816  33.474  24.985  0.0324  0.2435 -0.0243
28995W        W72011  17.130  10.912  19.330  0.0168 -0.2460  0.0767
28996W        W72012   2.084  30.290  26.370 -0.2280 -0.3938  0.0070
28997W        W72013  19.871  34.387  20.848  0.0881 -0.1085  0.0305
28998W        W72014   9.913  14.553   2.643  0.2247 -0.1680  0.1792
28999W        W72015  29.661  32.203   3.861  0.0104 -0.0360  0.0281
29000W        W72016   7.391  23.041   5.684  0.2568 -0.4344 -0.1163
29001W        W72017  28.959  20.739  16.655 -0.3642  0.2064 -0.1154
29002W        W72018  23.008  17.358  23.037  0.5976 -0.0680 -0.0220
29003W        W72019  16.672  25.589   7.312  0.1154 -0.0112  0.0274
29004W        W72020  27.108   8.410   6.131  0.1124 -0.1256  0.0650
29005W        W72021  23.650  26.583  23.944 -0.1795 -0.2915 -0.1554
29006W        W72022  32.847   1.369  28.866  0.0946  0.1766 -0.1229
29007W        W72023   2.643   2.134  19.892  0.0510 -0.0606 -0.0571
29008W        W72024  14.832  27.495   2.900  0.1981 -0.3396 -0.5644
29009W        W72025  25.865  28.023   6.896  0.2905  0.2493  0.0793
29010W        W72026  12.169  31.335   6.800 -0.0793 -0.1900  0.1402
29011W        W72027   0.975   4.888  26.694  0.0074  0.0183 -0.0364
29012W        W72028  12.579  23.252  26.150  0.1258 -0.1871 -0.3350
29013W        W72029  14.572  30.467  23.507 -0.3115 -0.0899 -0.0132
29014W        W72030  17.636   1.190  26.230  0.0542  0.4450 -0.3318
29015W        W72031  29.355   1.593  22.656  0.3050 -0.2070  0.1280
29016W        W72032  31.882  21.200  28.707 -0.1945 -0.1553  0.1818
29017W        W72033  28.706  12.937  27.539  0.1440 -0.1041  0.4022
29018W        W72034  33.541  20.145  23.130 -0.0152  0.0253  0.1303
29019W        W72035  19.099   1.506   8.568 -0.0873  0.0560  0.0872
29020W        W72036  20.060  30.414   9.286  0.0619 -0.2584 -0.4843
29021W        W72037  31.787  17.915  14.926 -0.1456 -0.2575 -0.0497
29022W        W72038  15.428   6.072  19.028 -0.0076  0.0199 -0.0899
29023W        W72039  26.123   9.382  26.557 -0.0465  0.0416  0.2798
29024W        W72040  25.477  31.889  22.769  0.0078 -0.1573 -0.1705
29025W        W72041   4.601  23.100  17.262 -0.1227  0.2538 -0.1972
29026W        W72042  18.798   3.879   1.805 -0.1127 -0.0181 -0.0238
29027W        W72043  10.697  31.213  20.564  0.2212 -0.0515 -0.0621
29028W        W72044   7.735   1.403  18.179 -0.1182 -0.0598 -0.1368
29029W        W72045  26.919   8.436  10.231  0.2482  0.0624  0.0336
29030W        W72046  21.069   2.726  23.404  0.0895  0.0783 -0.0304
29031W        W72047  18.022   4.256  10.336 -0.2758 -0.0105 -0.1083
29032W        W72048  19.491   1.063   5.786  0.0010 -0.0257  0.2822
29033W        W72049  17.698  20.039  27.958  0.3994 -0.1292  0.1008
29034W        W72050   3.775   6.130   8.167  0.2823  0.1940  0.2231
29035W        W72051   0.746   1.266   5.956 -0.0027 -0.0284  0.0871
29036W        W72052  31.866  33.330  16.651  0.1439  0.2108 -0.1187
29037W        W72053   3.175  21.007  28.155 -0.1527 -0.0814 -0.2280
29038W        W72054  28.796  24.830   6.447 -0.0302 -0.0479 -0.1567
29039W        W72055  14.093  26.242   1.434 -0.2248  0.2626  0.1681
29040W        W72056  27.936   9.167  16.234  0.0673  0.1036 -0.3511
29041W        W72057   8.765  22.053  23.939 -0.1244  0.0539  0.3099
29042W        W72058   3.041  14.592  22.617 -0.2924 -0.0956  0.1554
29043W        W72059  28.408  22.809   4.728  0.0447  0.0763  0.1091
29044W        W72060  34.098  26.918   6.172  0.1788 -0.0618  0.1848
29045W        W72061  20.412   0.345   9.181  0.2298  0.0668 -0.1537
29046W        W72062  26.179  22.552   7.476  0.1145  0.1439 -0.3215
29047W        W72063  26.453  34.215  11.540 -0.5061  0.1046  0.2055
29048W        W72064  33.033  27.604  19.958  0.0201  0.1508 -0.2506
29049W        W72065  19.224   1.881   1.841  0.0753  0.1641 -0.1061
29050W        W72066  19.668  27.741   1.672  0.2200  0.0508 -0.0706
29051W        W72067  31.538  30.220   0.345  0.3528  0.2258 -0.3033
29052W        W72068  12.560  19.514  24.638  0.2714 -0.3517  0.1557
29053W        W72069  31.495  12.152  23.587  0.2131 -0.0290  0.1912
29054W        W72070  28.542  29.541  22.862 -0.0030  0.4412  0.2533
29055W        W72071  33.110  27.643   2.536 -0.1731  0.2076 -0.0681
29056W        W72072  26.947  15.330   7.702  0.1613  0.1118 -0.2247
29057W        W72073  16.581   8.055  20.836  0.3337  0.0080  0.2288
29058W        W72074  22.006  23.902   6.070 -0.2148  0.1673  0.2339
29059W        W72075  26.702  22.437   3.817  0.5755  0.0722  0.0078
29060W        W72076  26.580  14.987  28.370  0.0203 -0.0244  0.2639
29061W        W72077  27.713  15.529  21.420 -0.0860  0.2549  0.2934
29062W        W72078   6.588   5.149  27.843  0.3133 -0.3463  0.1180
29063W        W72079  14.938  33.177   8.090  0.2626  0.1097  0.2933
29064W        W72080   1.766   0.122   1.341  0.0359 -0.0679  0.0465
29065W        W72081  19.819  24.532   4.622  0.0129 -0.2190  0.1453
29066W        W72082  29.839  29.734  26.848  0.0678 -0.0348  0.0394
29067W        W72083  18.647   0.403  17.596  0.1063 -0.1763  0.0804
29068W        W72084  34.537  31.632  22.375  0.1682 -0.0129  0.2711
29069W        W72085   6.708  23.738  23.119 -0.1618  0.1479  0.0176
29070W        W72086   0.276  29.282   0.188 -0.1766  0.1487  0.0652
29071W        W72087  17.383  24.797  15.775 -0.0426 -0.0704  0.1546
29072W        W72088  17.930  16.672  21.443 -0.2226 -0.1202  0.2740
29073W        W72089  26.634  25.056  10.497  0.1560 -0.3507 -0.3372
29074W        W72090  20.214   0.480  28.836  0.1188 -0.1106  0.1661
29075W        W72091  32.330  28.429  29.181 -0.2594 -0.1513  0.0994
29076W        W72092   8.088  13.896  25.881  0.0484 -0.0368 -0.0967
29077W        W72093  28.970   0.182   6.758  0.0835 -0.2985 -0.0538
29078W        W72094  11.031   5.701   8.409  0.1982 -0.0763 -0.1229
29079W        W72095   4.484  24.887  14.790 -0.0030  0.0981  0.0416
29080W        W72096  10.007  19.482   3.822  0.3030  0.0691  0.1934
29081W        W72097   6.548   7.767   1.969  0.0292 -0.0353 -0.3953
29082W        W72098  12.237  29.595   6.033 -0.1328 -0.1774  0.0451
29083W        W72099  27.963  25.356  27.935  0.0328 -0.2859 -0.0361
29084W        W72100   2.123   0.401   7.921  0.1828  0.2013 -0.0566
29085W        W72101  30.195   9.465   0.887  0.1583 -0.0274  0.1199
29086W        W72102  31.344  34.214   9.117  0.0197  0.0908 -0.3320
29087W        W72103   6.211  34.461  14.225  0.0182 -0.1962  0.4153
29088W        W72104  22.697   2.108  26.878  0.2395 -0.1023  0.1243
29089W        W72105  11.506  18.987  27.894 -0.1785 -0.2258 -0.2876
29090W        W72106   6.184  24.932  24.132  0.0004 -0.0939 -0.2585
29091W        W72107  26.799  28.825  28.021  0.0245 -0.0218 -0.0100
29092W        W72108  19.899   3.034  22.824  0.2030 -0.0534  0.4961
29093W        W72109   5.448  25.059  21.257  0.2882  0.1657  0.0074
29094W        W72110  33.099  27.978  21.522  0.0237 -0.1344  0.0744
29095W        W72111  17.039   4.762   6.030 -0.0125 -0.1498 -0.2702
29096W        W72112  28.171  12.816  23.663  0.1039 -0.1804 -0.2283
29097W        W72113  17.864   8.982  14.037 -0.2012 -0.1391  0.0936
29098W        W72114  21.880  25.750  17.048 -0.1571 -0.4627 -0.0527
29099W        W72115  30.093  23.539  25.503 -0.2256  0.2169 -0.1674
29100W        W72116  33.441  28.406  19.516  0.1855 -0.0786  0.0900
29101W        W72117   5.267  24.747  19.408  0.2153 -0.2345  0.1584
29102W        W72118  23.840   4.133   1.155  0.4208 -0.1777 -0.2422
29103W        W72119  30.562  20.357   7.599  0.4222 -0.0967  0.3545
29104W        W72120  28.512  17.227   1.466  0.3671  0.2014 -0.1577
29105W        W72121  20.076   0.210   7.332 -0.1581  0.3225 -0.2530
29106W        W72122  18.238  25.492  21.240 -0.1391 -0.1297  0.3412
29107W        W72123  28.214  29.194   7.830 -0.1141  0.0307 -0.3856
29108W        W72124  15.697   5.983   0.171 -0.1741 -0.0602  0.3254
29109W        W72125  33.849  22.576  25.157 -0.1645  0.0919  0.1827
29110W        W72126  24.968  34.423   2.163 -0.3669  0.3252 -0.1092
29111W        W72127  28.785   1.035   5.057 -0.1242  0.0373 -0.0545
29112W        W72128  28.764   0.621  26.996  0.0118 -0.2988  0.2623
29113W        W72129  25.200  30.257  21.611  0.0676  0.1857 -0.2549
29114W        W72130  29.140   5.048  25.638 -0.0308  0.1453  0.1776
29115W        W72131  30.085   5.566   9.250  0.3547  0.6930  0.1415
29116W        W72132  22.628  34.282  10.642 -0.0437  0.2652  0.4988
29117W        W72133  20.319  20.141   7.220 -0.0812  0.3801 -0.1496
29118W        W72134  10.719  33.915  27.493  0.1331  0.1256 -0.2829
29119W        W72135  32.125  12.595   6.278 -0.0517 -0.1542  0.1191
29120W        W72136  21.872  18.027   1.168  0.1568  0.1022  0.1613
29121W        W72137   1.734  29.620   9.524  0.0764 -0.0274 -0.1584
29122W        W72138  23.961  14.323  19.817  0.1397  0.1495 -0.0787
29123W        W72139  22.238  20.950   7.705  0.3561  0.0399 -0.2828
29124W        W72140  26.633   7.247  16.851 -0.0365  0.1790 -0.0222
29125W        W72141  31.551  32.250  25.685  0.0771  0.0008  0.1058
29126W        W72142  31.750   3.108  15.174 -0.1715  0.0483  0.0854
29127W        W72143  13.422  29.257   1.524  0.1120  0.0722  0.0559
29128W        W72144  22.216  26.182  19.495  0.0543 -0.1571 -0.3759
29129W        W72145   9.778  26.651  28.219  0.1370 -0.3867  0.2027
29130W        W72146  23.696  25.623  19.803  0.1910  0.1435 -0.3268
29131W        W72147  34.497  11.974  25.965  0.1096  0.0549 -0.1703
29132W        W72148  22.833  22.899  17.285  0.1228 -0.1158 -0.1523
29133W        W72149  18.445   6.209  22.227 -0.3505  0.1315  0.1050
29134W        W72150  32.978  30.486  24.457 -0.1195 -0.1671  0.1964
29135W        W72151  30.181   3.638  15.141  0.0603  0.0962 -0.4663
29136W        W72152  27.019   1.385  26.452  0.0555  0.0502  0.2031
29137W        W72153  27.208   2.821   0.489 -0.5708 -0.0991  0.1760
29138W        W72154  32.042  23.945  28.969  0.2026  0.0407  0.0382
29139W        W72155  27.291  32.593   6.977  0.2538 -0.3552  0.1258
29140W        W72156   8.480  25.596  15.972 -0.2420  0.1988 -0.1583
29141W        W72157  32.063   0.191  25.813  0.0582 -0.4737 -0.1340
29142W        W72158  28.179  33.028   4.627 -0.0312 -0.2424  0.0684
29143W        W72159  16.773  27.067  18.678  0.1879 -0.0096  0.1804
29144W        W72160  21.160  33.245  24.379 -0.0636  0.1567 -0.1843
29145W        W72161  29.579  30.479  10.515 -0.1565  0.0789 -0.2851
29146W        W72162   8.315   1.376   5.512 -0.3164  0.3407 -0.2271
29147W        W72163  24.792   5.755   2.466  0.0403 -0.0666 -0.0711
29148W        W72164  17.966   5.789   2.483 -0.0346  0.1757 -0.3212
29149W        W72165  20.010  22.711  26.879 -0.0975 -0.0118  0.0530
29150W        W72166  10.460  34.438   1.622 -0.3869 -0.0052  0.1131
29151W        W72167  25.149  28.618  11.144 -0.2917  0.2906 -0.0731
29152W        W72168  25.361  28.615   1.221  0.2998  0.2901  0.1370
29153W        W72169  25.688  29.341  17.667  0.1199  0.1423 -0.4365
29154W        W72170  18.068   2.001  27.086 -0.0846  0.1711 -0.1927
29155W        W72171   0.696  31.823  17.306 -0.1233  0.0472 -0.0216
29156W        W72172  15.801   3.608  18.270  0.1422 -0.2398  0.1228
29157W        W72173   1.754  25.806  18.213 -0.0509  0.5669 -0.1379
29158W        W72174  21.945  16.857  28.993  0.0603  0.0966  0.1999
29159W        W72175  32.062  32.626  21.006 -0.0186 -0.0590 -0.0960
29160W        W72176  31.574  22.434  26.221 -0.1228 -0.2972 -0.2050
29161W        W72177  27.763  22.671   0.027 -0.0763  0.1484 -0.0787
29162W        W72178   6.422   2.641   8.240 -0.2881  0.2841  0.2551
29163W        W72179  18.948   1.902   8.916  0.2534  0.2355 -0.0552
29164W        W72180  30.353  28.744   3.103  0.1661  0.2607 -0.1385
29165W        W72181   1.474   9.363  23.793 -0.1367  0.2676  0.0300
29166W        W72182   3.184  27.133   1.551 -0.2663 -0.3414  0.0604
29167W        W72183  26.676   1.943  10.594  0.2503  0.1418  0.2911
29168W        W72184  22.785  29.722  23.760 -0.2849  0.1512 -0.0008
29169W        W72185  28.728   6.540   7.040 -0.3263  0.2486  0.0941
29170W        W72186  29.895   7.036  25.632 -0.4523 -0.1224 -0.0205
29171W        W72187  16.879   2.338  21.061  0.2475 -0.2144 -0.4923
29172W        W72188  16.974  27.698  25.272  0.1753 -0.0296 -0.3201
29173W        W72189  23.737   4.447  25.461  0.0981  0.1025  0.0524
29174W        W72190  24.364   7.065   3.979  0.0288  0.3270  0.1837
29175W        W72191  26.695   7.523  27.048 -0.0694  0.2284 -0.0865
29176W        W72192   8.012  23.802  25.344  0.0458  0.1204  0.0690
29177W        W72193  29.095  27.977   7.046  0.1114  0.0455  0.0174
29178W        W72194  31.384  27.015   1.206 -0.0512 -0.1153 -0.3777
29179W        W72195  11.491  26.554  27.285  0.0059 -0.1734 -0.1120
29180W        W72196   0.659  24.715  26.537  0.0168 -0.2984 -0.0748
29181W        W72197  25.213  31.971  25.005  0.0858  0.3856  0.1315
29182W        W72198  19.338  18.270  15.323 -0.0929 -0.1210  0.2358
29183W        W72199   6.255  30.329  14.548  0.4419 -0.2718 -0.2060
29184W        W72200  32.883  34.772  18.392 -0.3060  0.0490 -0.1055
29185W        W72201  27.529  32.311  21.024 -0.0376  0.0473 -0.2530
29186W        W72202  12.955   2.251   2.009  0.2207  0.2991  0.4455
29187W        W72203  33.808   0.437  24.698  0.0228 -0.1645  0.0139
29188W        W72204  25.538  32.264  17.007 -0.2070 -0.1645 -0.1343
29189W        W72205   7.038  27.968   2.943 -0.1671  0.1442  0.0592
29190W        W72206   2.666   8.266  28.149 -0.3229  0.1475  0.1000
29191W        W72207  29.111  27.633  26.566 -0.1856 -0.4620  0.1550
29192W        W72208  28.664   0.194  23.387 -0.0306  0.4191 -0.0827
29193W        W72209  25.280  21.421  21.487 -0.1182 -0.3455  0.0093
29194W        W72210  30.552  27.091  29.259 -0.1162 -0.0789 -0.0676
29195W        W72211  28.610  34.753  22.668  0.1975 -0.2853 -0.2100
29196W        W72212  32.312  24.617  24.074 -0.1111  0.0857  0.1157
29197W        W72213   8.334  29.279   7.742  0.2290 -0.0558 -0.0233
29198W        W72214  33.659  22.663  21.404 -0.0584 -0.0785 -0.4059
29199W        W72215  21.935   5.847   5.361  0.1485  0.1405  0.0081
29200W        W72216  20.109   6.312  23.223  0.1358 -0.1098 -0.2741
29201W        W72217  24.841  21.326   0.428  0.0375 -0.1418  0.1532
29202W        W72218  27.011  34.349  28.403  0.1594  0.0197 -0.3808
29203W        W72219   4.944   4.817   9.077  0.1951  0.1279 -0.0670
29204W        W72220   0.084  22.956  20.093  0.2251 -0.0117  0.0126
29205W        W72221  14.403   2.245  15.990 -0.2916 -0.0371  0.0527
29206W        W72222  19.568  33.732   8.287 -0.5016  0.1332 -0.0033
29207W        W72223  19.677  32.096  23.777 -0.0740 -0.0188  0.1182
29208W        W72224  21.207   1.720  27.098 -0.1939  0.0031  0.3240
29209W        W72225  28.280  26.761   6.897  0.0324 -0.0657 -0.1332
29210W        W72226   9.448  21.656   2.943 -0.2588  0.0113 -0.1008
29211W        W72227  26.717  29.346  16.087 -0.1150 -0.0424  0.0230
29212W        W72228  34.726  29.473  25.859 -0.0276 -0.2787  0.3033
29213W        W72229  24.823  18.375  25.453  0.0763 -0.1560  0.1074
29214W        W72230  33.552  15.342  23.383  0.0359 -0.3133 -0.0714
29215W        W72231   4.908   1.015   5.695 -0.0678 -0.3906  0.1048
29216W        W72232  29.324  27.929   0.184  0.2016  0.0021 -0.0908
29217W        W72233  19.384  28.946   8.622  0.1005 -0.2035 -0.1926
29218W        W72234  24.134   6.980   0.454 -0.2700  0.1156 -0.1681
29219W        W72235  21.633  27.884   1.167 -0.0460 -0.1105 -0.1958
29220W        W72236  30.817  25.198   0.465  0.2679  0.0586 -0.0619
29221W        W72237  13.457   0.694   0.432 -0.1768 -0.1073 -0.0768
29222W        W72238   1.352   6.167  28.909  0.2218 -0.1370 -0.1476
29223W        W72239  21.185   8.108   9.126  0.2212 -0.1920  0.1169
29224W        W72240  23.376   3.981  10.463 -0.3013 -0.3448  0.0711
29225W        W72241   5.075   9.504  26.221 -0.0106 -0.1440  0.1690
29226W        W72242  27.590  24.751  10.673  0.0093  0.1062 -0.0949
29227W        W72243  24.764  15.318   0.204 -0.4621  0.0220  0.2057
29228W        W72244  19.018  11.898  20.038  0.0539 -0.0015  0.1038
29229W        W72245  32.952  16.753   0.212  0.0344  0.3628  0.2596
29230W        W72246  31.221   0.304  26.801  0.1927  0.1238 -0.2084
29231W        W72247  24.764   0.874  20.868 -0.2963  0.2213 -0.1812
29232W        W72248  13.911  32.074   7.955  0.0209 -0.1090  0.2130
29233W        W72249  23.028  23.908   9.244  0.2664  0.1256  0.0408
29234W        W72250  21.199   3.324  27.745  0.1570  0.0635 -0.0554
29235W        W72251  12.631   2.495   7.862 -0.0026  0.0504 -0.2333
29236W        W72252  16.084  15.208   1.105 -0.2066  0.2133 -0.0518
29237W        W72253  18.444  32.002  24.039  0.0521  0.0112  0.2731
29238W        W72254  21.757  28.687   3.693  0.0316  0.0560  0.2415
29239W        W72255  26.259  27.120  22.534  0.2725  0.1819  0.2143
29240W        W72256  11.178  23.586  21.485 -0.1833  0.2771 -0.1143
29241W        W72257  17.716  29.982  27.277  0.0599 -0.1619  0.0153
29242W        W72258  23.012  27.054   5.729  0.0032 -0.2233  0.1096
29243W        W72259  22.723   5.047  22.689  0.0239  0.0734 -0.1908
29244W        W72260  16.808  31.117  28.921  0.0946  0.3154 -0.1221
29245W        W72261  15.359   4.803  24.002  0.4025 -0.3276  0.0489
29246W        W72262  28.728  23.637  16.430  0.1057 -0.0976 -0.0617
29247W        W72263   1.946   0.524  19.523 -0.1334  0.1110  0.2387
29248W        W72264   0.136   9.000  19.553 -0.4261 -0.6837 -0.0989
29249W        W72265  31.506   4.690   3.038  0.1972  0.1060 -0.0370
29250W        W72266  22.985  21.856   4.219 -0.0352  0.0731  0.0509
29251W        W72267  32.222   6.032   0.058  0.0737  0.1679 -0.0154
29252W        W72268  13.661  29.338  23.044  0.0976 -0.0915 -0.0971
29253W        W72269  10.088  20.659  26.182 -0.0262  0.0875 -0.0122
29254W        W72270   6.294   4.673  24.444  0.0143 -0.1060  0.0058
29255W        W72271  29.240  14.714  28.352  0.1283  0.0574  0.0511
29256W        W72272  28.654  26.647   3.926 -0.0174  0.0756 -0.0209
29257W        W72273  25.338  14.644  19.032  0.0327 -0.2904 -0.1614
29258W        W72274  16.145  26.016  27.950  0.1122 -0.0389 -0.1599
29259W        W72275  17.823  14.207   6.998 -0.0647  0.5280  0.0328
29260W        W72276  22.585  33.591   2.139 -0.0596 -0.1446 -0.0270
29261W        W72277  22.686  12.284   7.349  0.4146  0.1017 -0.1659
29262W        W72278  27.504   2.014  25.379  0.0293 -0.1065  0.2964
29263W        W72279  18.680  21.968  13.439 -0.2997 -0.4648  0.1219
29264W        W72280  24.500  21.706   8.637  0.1311 -0.1884  0.2781
29265W        W72281  25.449  21.881  11.110  0.1891  0.1741 -0.0626
29266W        W72282  25.741  25.520   0.035  0.2409 -0.1676 -0.0940
29267W        W72283  24.510   2.134   3.976 -0.1872  0.0290  0.1996
29268W        W72284  14.351   1.003   5.609 -0.0856  0.1011 -0.0087
29269W        W72285  29.555  24.699   7.918 -0.1328  0.1511 -0.0235
29270W        W72286  20.028   3.469  13.616  0.1113  0.1330  0.1691
29271W        W72287  31.461  20.800  16.063  0.3822  0.0510  0.0602
29272W        W72288  22.791  24.340   0.586  0.0547 -0.1388 -0.1026
29273W        W72289  13.083  27.714   5.225  0.0392  0.0017  0.1194
29274W        W72290  23.481   2.058  25.211 -0.3411  0.0299  0.0196
29275W        W72291  23.417   4.687  24.683  0.0318 -0.1526  0.1076
29276W        W72292  33.697  10.631   7.781 -0.1960 -0.1834 -0.0588
29277W        W72293  11.095  29.565  26.173 -0.2663  0.0556 -0.0096
29278W        W72294  29.306   0.154  27.195  0.2295  0.1728  0.1710
29279W        W72295  29.252  18.680  19.168 -0.1682  0.1093  0.0582
29280W        W72296  19.472  20.608  28.491 -0.1930 -0.0335  0.1370
29281W        W72297  29.746  25.141   4.089  0.0636  0.0127 -0.2144
29282W        W72298   1.208   7.976  22.873  0.0343  0.2430  0.3323
29283W        W72299   9.647  12.904  27.930  0.4612  0.0970  0.2548
29284W        W72300  10.237  25.635   5.107  0.0646  0.3741 -0.3441
29285W        W72301  28.700  24.439   4.379 -0.3243  0.2411 -0.3303
29286W        W72302  28.801  25.967  10.611 -0.1459 -0.0242  0.0312
29287W        W72303   3.001  26.140  25.345 -0.0726  0.4574 -0.1251
29288W        W72304  30.297  30.841  11.248  0.1887  0.1086  0.0231
29289W        W72305   9.626  32.441   0.799  0.1184 -0.0563 -0.1327
29290W        W72306  22.055   4.741  23.756 -0.1951  0.1857  0.1457
29291W        W72307  30.723  23.333  28.269  0.1163 -0.0163 -0.0153
29292W        W72308   0.575  24.368  17.839 -0.2578  0.0105  0.1278
29293W        W72309  15.494  15.789   4.947 -0.3257 -0.1133 -0.1269
29294W        W72310   5.565  31.562  29.094  0.0800 -0.4218 -0.0691
29295W        W72311   2.871   2.144   2.302  0.3021  0.3507  0.1132
29296W        W72312   7.805   7.962  27.580 -0.0630  0.0100  0.0920
29297W        W72313  28.645   5.487  26.812  0.0007 -0.0431 -0.2100
29298W        W72314   8.592  29.021   0.192 -0.2904  0.1162  0.2171
29299W        W72315  23.085   3.003  21.713  0.2418 -0.1077  0.1035
29300W        W72316  30.782   7.194   6.313  0.0250 -0.1789  0.0326
29301W        W72317   5.538   2.216  22.359  0.1758  0.1442  0.0333
29302W        W72318  22.208  31.665  25.821 -0.2056 -0.0989 -0.0754
29303W        W72319  28.707  30.255   2.306 -0.0328  0.0698  0.0983
29304W        W72320   2.294   0.694  10.875  0.0623  0.2286 -0.3288
29305W        W72321  29.716  33.961  23.234 -0.1431 -0.1362 -0.0018
29306W        W72322  23.476   4.460  17.694 -0.1270  0.0045 -0.3819
29307W        W72323  25.839  16.106  28.846  0.1503  0.1280  0.2333
29308W        W72324  34.258   3.318  28.455  0.1351 -0.0288 -0.1225
29309W        W72325  22.734  22.988   4.489  0.0839  0.1278  0.1915
29310W        W72326  26.879   2.637   8.368  0.3086 -0.3155 -0.0087
29311W        W72327  32.506   7.509  26.396  0.1705 -0.0174 -0.1435
29312W        W72328  30.432  33.273  10.950  0.0513 -0.2481  0.1919
29313W        W72329  27.658  33.241  25.322  0.4678  0.1989  0.1516
29314W        W72330  29.772  15.686   7.734  0.0385  0.0763 -0.0555
29315W        W72331  33.341  29.750  25.725 -0.0071 -0.1164  0.1644
29316W        W72332  31.690  11.587  25.036 -0.5473 -0.0157 -0.1033
29317W        W72333  34.172  23.945   3.361  0.0197 -0.0076 -0.0723
29318W        W72334  26.118  26.365  21.436 -0.0936 -0.1118 -0.1139
29319W        W72335  28.098  17.402   1.117 -0.0484 -0.2265 -0.0183
29320W        W72336  28.126  32.658   5.875 -0.0916  0.0019  0.0655
29321W        W72337   3.723   3.049   4.340 -0.2094  0.1136 -0.1947
29322W        W72338  31.081   3.917  28.791 -0.2397  0.0021 -0.1749
29323W        W72339  20.457  13.626  21.607  0.2066 -0.2573 -0.0106
29324W        W72340   7.175   5.594   6.674  0.0162  0.2585 -0.1639
29325W        W72341   9.362  18.075  24.310  0.2106  0.2886  0.2093
29326W        W72342  25.364  19.017   6.973 -0.1395  0.1138 -0.1907
29327W        W72343  18.779   0.277   8.683  0.0649 -0.2776  0.2455
29328W        W72344  21.156   7.402  26.372 -0.0507  0.3934  0.0355
29329W        W72345  21.893  24.353  17.651 -0.0930 -0.1162  0.2187
29330W        W72346  15.263   5.124  15.119 -0.1144 -0.1521 -0.1607
29331W        W72347   1.806  18.784  22.010 -0.2558 -0.0421 -0.3166
29332W        W72348  25.247  34.573  18.168 -0.0560  0.1150  0.0990
29333W        W72349  13.884  29.879  19.324 -0.3157 -0.0135  0.3057
29334W        W72350  24.872  34.177  29.290  0.0900  0.0296  0.1033
29335W        W72351  17.552  28.573  18.846 -0.0944 -0.3855  0.0182
29336W        W72352  14.884   4.106  22.840 -0.1534 -0.1826 -0.1521
29337W        W72353  21.358  30.587  18.834  0.0872  0.1558 -0.0086
29338W        W72354  18.012   6.989  24.727 -0.2087  0.0957 -0.1898
29339W        W72355  22.594   3.043  23.106 -0.2856 -0.1613  0.3246
29340W        W72356  26.750   5.783  23.901 -0.1962  0.3330  0.1091
29341W        W72357  23.018  27.698   0.247  0.3778  0.0090 -0.0651
29342W        W72358   0.491  24.906  27.842 -0.4080 -0.1636 -0.1449
29343W        W72359  22.872   3.094  27.090  0.1390  0.3013  0.3262
29344W        W72360  29.476  19.341  16.129  0.0871 -0.0820  0.1927
29345W        W72361  17.204   5.649  16.836  0.0466  0.1541  0.1227
29346W        W72362  16.739   4.658  28.834 -0.4102  0.1096 -0.2332
29347W        W72363  24.753  30.691  17.260 -0.1709 -0.2438  0.0359
29348W        W72364  21.972  28.151  17.883 -0.1623 -0.0167  0.0420
29349W        W72365  29.392  31.451  24.786  0.1189 -0.0605  0.1413
29350W        W72366  25.136   8.018  24.516 -0.0785  0.2138 -0.2020
29351W        W72367  23.663   0.748  27.222  0.1107 -0.0436 -0.0448
29352W        W72368  33.253  32.377  20.056 -0.1068  0.0988 -0.1439
29353W        W72369  10.725  10.678  17.970  0.0880 -0.1113 -0.1961
29354W        W72370   3.429  25.027  16.486 -0.1350 -0.0816  0.0442
29355W        W72371   0.592   8.428  24.919  0.1813  0.2042 -0.0872
29356W        W72372  26.674  27.169  20.992  0.2809 -0.1700 -0.1496
29357W        W72373   4.246  12.870   7.665  0.0909  0.2064  0.1164
29358W        W72374  29.333  34.054  28.124  0.0199  0.2220 -0.0766
29359W        W72375  34.062  32.709  17.839  0.1480 -0.0704  0.0232
29360W        W72376  29.454   0.027  23.915 -0.0697 -0.0199  0.1897
29361W        W72377   6.063  31.027  20.345  0.1309  0.1769 -0.0367
29362W        W72378  20.613  21.459  19.983 -0.2877 -0.2367 -0.1608
29363W        W72379   9.462  28.858  25.838  0.1773 -0.3286 -0.1549
29364W        W72380  24.706   3.782  18.529  0.0242  0.0768  0.0353
29365W        W72381  19.592   5.821  21.633 -0.3578 -0.5299 -0.1883
29366W        W72382  12.984  23.479  25.972  0.3776 -0.0116  0.1839
29367W        W72383   5.001   1.367  24.135 -0.3054  0.0520  0.0434
29368W        W72384  24.962  34.354  22.914 -0.2833 -0.4758  0.0206
29369W        W72385  33.249  26.884  19.013 -0.3284 -0.1437  0.2389
29370W        W72386  25.775  29.721  18.086  0.3917 -0.1526  0.3439
29371W        W72387  26.241  30.579  25.239  0.1534  0.1696  0.1072
29372W        W72388  34.750   9.967  17.166 -0.0295 -0.1802 -0.1537
29373W        W72389  34.196  31.892  25.949  0.0166 -0.2099 -0.0489
29374W        W72390   1.132  11.398  17.450  0.4142 -0.0948  0.1096
29375W        W72391  23.609  20.529  16.095 -0.1352 -0.0703 -0.0018
29376W        W72392   6.821  22.989  14.089  0.0467 -0.1443 -0.2779
29377W        W72393   8.763   0.609  25.285  0.1547  0.0417 -0.1464
29378W        W72394  15.949   2.223  28.884  0.1810  0.0573  0.4494
29379W        W72395  15.459  29.938  28.946  0.2045 -0.1226  0.1147
29380W        W72396  16.689  24.504  15.566 -0.2753 -0.1164 -0.2174
29381W        W72397  17.279  13.461  12.751  0.0907  0.0791 -0.3345
29382W        W72398  25.289   0.190  27.104 -0.0446  0.0934 -0.4005
29383W        W72399  26.616  32.182  23.782 -0.0931  0.0198 -0.1207
29384W        W72400  30.688  24.331   5.282 -0.2073 -0.3194 -0.2914
29385W        W72401  25.388   3.855  16.234 -0.1961 -0.0443  0.1272
29386W        W72402  23.561   4.066  27.579 -0.1808  0.2505 -0.0317
29387W        W72403   2.868  21.637  21.391  0.0257  0.1294 -0.2431
29388W        W72404  10.953   2.828  23.780 -0.3219  0.2524  0.0209
29389W        W72405  22.229  29.108  26.374 -0.1408 -0.4340 -0.3004
29390W        W72406  18.266  26.326   8.238 -0.1361 -0.1362  0.4311
29391W        W72407  17.443  10.850  17.329 -0.0331  0.1266  0.2796
29392W        W72408  22.045   7.426  20.347 -0.3343 -0.0331  0.0646
29393W        W72409  25.865   8.062  22.148 -0.2902  0.2057 -0.1000
29394W        W72410  18.777  26.251  27.570 -0.2887 -0.2528 -0.0718
29395W        W72411  32.518   3.691   0.509  0.1312  0.1994 -0.3457
29396W        W72412  32.892  15.569   9.960 -0.0665  0.0067 -0.0136
29397W        W72413  28.864  24.117  25.575 -0.0171  0.2421  0.2062
29398W        W72414  15.011  22.823  26.657  0.2366 -0.1000  0.0760
29399W        W72415  26.878  15.990  19.412  0.2434  0.1190 -0.0343
29400W        W72416  29.934  34.388  20.711  0.1078  0.2644  0.0915
29401W        W72417  31.695  21.339  18.580  0.2903  0.1183 -0.1145
29402W        W72418  21.971  11.618  23.511 -0.3722  0.0714  0.3466
29403W        W72419  29.646  28.941  17.800  0.2279 -0.0785 -0.3030
29404W        W72420  25.792   8.165  20.064 -0.2555 -0.3943  0.0733
29405W        W72421  33.108  24.941  25.203 -0.1419  0.0494  0.1353
29406W        W72422  33.927   5.509   6.050 -0.0327  0.2214  0.5780
29407W        W72423  21.891   4.301  22.014 -0.0741 -0.0716  0.0009
29408W        W72424   0.485  26.158  15.835 -0.2849  0.0883  0.0574
29409W        W72425   2.512  21.486  15.747 -0.0173 -0.1321  0.1326
29410W        W72426  31.632  10.670   0.693  0.0044  0.0581  0.3298
29411W        W72427   7.935  27.565  20.498 -0.0799  0.0633  0.2400
29412W        W72428  32.449  29.411  21.587 -0.4109  0.0746 -0.1074
29413W        W72429  23.752   7.191  25.639  0.0194 -0.0945 -0.2331
29414W        W72430  29.494  31.010  15.537  0.2183 -0.0126 -0.0650
29415W        W72431  26.578  33.966   7.460 -0.1873  0.0925 -0.1144
29416W        W72432  20.226  27.370  15.971 -0.1738 -0.0587 -0.2786
29417W        W72433  21.642  24.311  24.398  0.2070  0.1937  0.1399
29418W        W72434   7.993  34.516  27.160  0.1527 -0.0239  0.0550
29419W        W72435  33.749  24.760  22.918 -0.0772 -0.0699 -0.1063
29420W        W72436  14.775   0.512  19.697  0.0471 -0.1593  0.1344
29421W        W72437  25.024  29.091  22.631 -0.0969  0.2857  0.2122
29422W        W72438   8.302   8.886  16.845 -0.0056 -0.0906 -0.0034
29423W        W72439  25.495  30.617   0.865  0.1196 -0.1780 -0.0001
29424W        W72440   2.340  19.558  15.091  0.3016  0.0688 -0.0754
29425W        W72441  29.086  24.595  21.163 -0.0551  0.0554  0.1607
29426W        W72442  24.370  31.467  17.264  0.2042  0.1141  0.4210
29427W        W72443   3.539  33.570  23.890  0.1540 -0.0795  0.2352
29428W        W72444  19.849  30.874  22.211 -0.1544 -0.0947 -0.2186
29429W        W72445  18.816   3.683  21.228 -0.0660  0.0707  0.0955
29430W        W72446  22.049  33.801  15.055 -0.0005 -0.0078  0.2529
29431W        W72447  27.498   1.765  23.483  0.1491  0.1782  0.3546
29432W        W72448  31.825  10.141   3.105 -0.0429  0.0938  0.0206
29433W        W72449  29.461   9.941  21.556 -0.0734  0.0641  0.1829
29434W        W72450   8.022  34.167  16.826 -0.0415  0.0388  0.2606
29435W        W72451  26.197  24.228  29.223  0.2059 -0.5540  0.2050
29436W        W72452   8.613  25.595  28.887 -0.1089 -0.0992  0.0261
29437W        W72453  33.248  25.759   0.721 -0.2967  0.1863  0.2862
29438W        W72454  25.230  30.415  17.347  0.0772  0.0428  0.0498
29439W        W72455  23.878   3.328  14.362  0.0596  0.0186 -0.3014
29440W        W72456  17.518  31.402  22.180 -0.5937 -0.0618  0.2794
29441W        W72457  24.623   3.836   1.519 -0.2152 -0.2952  0.2737
29442W        W72458  34.533  34.037  26.443  0.3074 -0.2639 -0.0372
29443W        W72459  33.337   1.034  29.054  0.0335  0.1009 -0.1607
29444W        W72460  11.352  18.377  15.091  0.1436 -0.3987 -0.1120
29445W        W72461   2.431  33.564  19.842  0.0139  0.1703 -0.0744
29446W        W72462  11.711  28.954  18.733 -0.1910  0.2205 -0.3795
29447W        W72463   3.995   5.990  17.204  0.1370 -0.2049  0.3760
29448W        W72464  28.707  12.754  24.413 -0.0018  0.0318  0.2806
29449W        W72465  22.242  31.141  22.880  0.1571  0.1955 -0.0199
29450W        W72466  32.906  24.474  20.430 -0.3162  0.1830  0.0468
29451W        W72467  22.741  29.417  22.572  0.3693  0.1847 -0.1009
29452W        W72468  32.675  17.591  21.177  0.0977 -0.1674  0.1483
29453W        W72469  22.391  22.763  13.802  0.1017 -0.2284  0.1300
29454W        W72470   0.124  19.617  28.771  0.0750 -0.3948  0.0637
29455W        W72471  34.437  10.600  27.975  0.2158  0.0884 -0.0901
29456W        W72472   7.624  30.618  23.383 -0.3774  0.0560 -0.1886
29457W        W72473  11.177  27.184   6.042  0.0005 -0.1241  0.3177
29458W        W72474  14.045  12.644  19.472 -0.0040 -0.0222  0.0414
29459W        W72475  26.198   5.022  23.188 -0.0544  0.0606 -0.1716
29460W        W72476  34.754  17.517  15.522  0.2155  0.0130  0.3302
29461W        W72477  27.835  15.683   2.361  0.0453 -0.1358 -0.0016
29462W        W72478  27.465  30.365  26.878  0.0018 -0.0735  0.0956
29463W        W72479  29.637  29.812  20.627  0.0673  0.2278 -0.0646
29464W        W72480  25.579  23.692  21.997  0.1374 -0.2112  0.0846
29465W        W72481  19.793   0.208  20.746  0.1420 -0.1205 -0.1790
29466W        W72482  17.572  10.565  13.531 -0.0086 -0.0086  0.1602
29467W        W72483   0.198  18.698  16.129  0.0200  0.0721  0.1077
29468W        W72484  21.381  25.212  14.646 -0.2144 -0.1666  0.1183
29469W        W72485  34.768   2.343  18.518 -0.1987  0.0419  0.1157
29470W        W72486  23.331   0.602  18.893 -0.1619  0.2033 -0.0334
29471W        W72487   9.956  32.278  14.441  0.3775  0.4051  0.3982
29472W        W72488   0.719  26.309   0.388 -0.1168  0.1776  0.1587
29473W        W72489  17.065  31.328   3.342  0.4265  0.1542 -0.3671
29474W        W72490  29.456   7.260  15.624  0.1473 -0.1629  0.4283
29475W        W72491  25.624  29.918  22.963 -0.0118  0.0482  0.0586
29476W        W72492  19.347  18.026  12.532  0.2877 -0.1638  0.0832
29477W        W72493  25.621  29.879   5.911 -0.0724 -0.4405  0.2381
29478W        W72494   6.903  10.527  19.334 -0.1120  0.0660 -0.0464
29479W        W72495   2.604   6.839  26.532 -0.1137  0.1530  0.0001
29480W        W72496  18.816  10.975  25.224 -0.0156 -0.0313 -0.0652
29481W        W72497  18.198   8.715   6.901  0.1760  0.2213 -0.3146
29482W        W72498  10.864  21.872  19.332 -0.0378  0.1079  0.2585
29483W        W72499  31.036  22.020  18.092 -0.1656 -0.4407 -0.0732
29484W        W72500  32.636  33.187  20.536  0.4091 -0.0956 -0.1062
29485W        W72501  23.223   8.128  21.110  0.0360  0.2580  0.0227
29486W        W72502  29.032  25.227  28.666  0.2060 -0.0757  0.0410
29487W        W72503  25.926  32.083  15.833  0.1370 -0.2228  0.3112
29488W        W72504  24.526   0.425  28.032  0.1756  0.0989 -0.0763
29489W        W72505  28.505   1.590   3.177 -0.2256 -0.0481 -0.3136
29490W        W72506  19.452  27.316  26.207  0.1956  0.2020  0.0606
29491W        W72507  13.641  21.080  22.451 -0.1030  0.2235  0.2870
29492W        W72508  32.756  17.171  18.361 -0.0522 -0.2581  0.2307
29493W        W72509  30.590  11.671  21.001 -0.2768 -0.0325  0.0392
29494W        W72510  26.481  14.062  18.749 -0.1965 -0.0124 -0.1515
29495W        W72511  31.257   6.586  23.290 -0.1622  0.1402  0.1753
29496W        W72512   0.956   5.385  17.961 -0.0626  0.0930  0.1833
29497W        W72513   2.711  31.882  26.212  0.0401  0.1783  0.2301
29498W        W72514  21.143  27.115  24.456 -0.3377  0.1725 -0.0815
29499W        W72515  20.204  31.118  18.845  0.2312  0.1968  0.1202
29500W        W72516  30.117   3.921  14.755  0.2827 -0.2924 -0.1167
29501W        W72517  34.452   8.798  18.604 -0.1433  0.4555  0.1588
29502W        W72518  29.847  28.837  19.222  0.0072 -0.3325  0.0357
29503W        W72519   6.554  30.185  20.233 -0.0522 -0.1595 -0.1373
29504W        W72520   4.079  23.984  16.015  0.1207  0.1406 -0.1417
29505W        W72521  28.403  14.180  25.567  0.1058  0.0263 -0.3525
29506W        W72522   4.810  10.175  16.187 -0.0124 -0.0797 -0.1144
29507W        W72523  29.373   7.772   3.838 -0.0151  0.0174 -0.0206
29508W        W72524   5.376   1.858  21.712 -0.1054  0.1023 -0.0289
29509W        W72525  30.914  21.488   0.106  0.0744  0.3797 -0.1745
29510W        W72526  19.863  14.555  10.679 -0.0074  0.0237 -0.1648
29511W        W72527  25.413   8.263  25.227  0.2222  0.0879  0.5538
29512W        W72528  20.640  24.066  21.235 -0.1233 -0.2945 -0.0775
29513W        W72529  34.751   4.014  20.080 -0.3554 -0.1083  0.6152
29514W        W72530  15.612  33.358  20.441  0.1196  0.0797  0.3004
29515W        W72531  31.286  33.323  18.057  0.3360 -0.3964 -0.2899
29516W        W72532  32.524  30.706  21.724  0.0645  0.0551 -0.1771
29517W        W72533  21.750  16.380  21.083  0.0714  0.2138  0.2523
29518W        W72534  13.615   7.897  28.392  0.1486  0.1343 -0.0223
29519W        W72535  18.228   1.192  18.966  0.0552 -0.2809 -0.2596
29520W        W72536   3.060  18.408  23.698  0.1186  0.0184  0.1521
29521W        W72537   3.464  34.296  16.162  0.1100 -0.2080  0.0829
29522W        W72538  22.282  27.006   6.756 -0.0705 -0.3090 -0.2671
29523W        W72539  25.319  29.579  17.393  0.0884 -0.0129  0.2134
29524W        W72540  33.142  23.290   2.938  0.2111 -0.1037 -0.0147
29525W        W72541  15.147  28.418  18.885 -0.1100 -0.1859 -0.0626
29526W        W72542  20.293   7.224  27.030  0.0530 -0.1529 -0.0042
29527W        W72543  18.795  32.121  20.801 -0.0145 -0.0604  0.1195
29528W        W72544  30.756  34.123  28.132 -0.0734  0.0161 -0.2396
29529W        W72545  26.353  22.204  15.638 -0.0631 -0.0870 -0.0236
29530W        W72546  19.036   6.522  17.845 -0.1931 -0.3043 -0.1220
29531W        W72547   4.442  18.214  17.689  0.0509 -0.0597  0.0432
29532W        W72548  28.787  20.788   2.552  0.2550 -0.1782  0.0502
29533W        W72549  16.872  25.763  14.608  0.4631 -0.0085 -0.2831
29534W        W72550  29.889  10.057  14.967 -0.1278  0.0152  0.1228
29535W        W72551  25.201   2.192  24.910  0.3570 -0.0258 -0.0044
29536W        W72552  27.068  21.574  25.918 -0.1721  0.0210 -0.1224
29537W        W72553   5.317   1.677  14.251 -0.0511  0.1565  0.1039
29538W        W72554   0.964  31.333  23.929  0.0532 -0.0843  0.2156
29539W        W72555  16.635  23.596  26.369 -0.1173 -0.2212 -0.0864
29540W        W72556  15.026  32.892  14.511 -0.0613  0.4058  0.3635
29541W        W72557  29.330  26.664  17.449  0.0780  0.1050  0.1783
29542W        W72558  34.308  29.313   9.035 -0.2151 -0.1323 -0.4064
29543W        W72559  20.644   2.099  21.535  0.3431  0.2041 -0.3224
29544W        W72560   0.106   9.131  17.212 -0.1295 -0.0710  0.1434
29545W        W72561   0.490  24.786  24.202  0.0763 -0.2248 -0.2387
29546W        W72562  19.343  19.790   0.394 -0.1417 -0.0484  0.0196
29547W        W72563  34.283  20.908  21.186  0.1468 -0.1920  0.0319
29548W        W72564  34.644  24.116  24.194 -0.3086 -0.1820  0.0503
29549W        W72565  26.744   1.917  24.916  0.0618  0.3480 -0.0017
29550W        W72566  22.650  20.384  15.061 -0.1081  0.1465 -0.0250
29551W        W72567  22.591  27.521  18.083 -0.2410 -0.1430  0.1277
29552W        W72568  20.256  24.571  26.212  0.1982 -0.0262 -0.0532
29553W        W72569  26.843  31.180  18.832  0.0079 -0.1149  0.1121
29554W        W72570   8.156  28.282  16.967  0.1709  0.1773  0.4358
29555W        W72571  30.340  27.765  26.271 -0.2730 -0.2761 -0.1400
29556W        W72572   7.452  28.033  28.988  0.2108 -0.1589 -0.0425
29557W        W72573  26.463  30.342  26.749  0.1882  0.0113 -0.0800
29558W        W72574   9.607  12.426  16.419 -0.2122 -0.1100  0.0003
29559W        W72575   6.003   4.291  15.140 -0.1379 -0.0489 -0.1093
29560W        W72576   0.920  22.238   5.226 -0.0785  0.0891 -0.0447
29561W        W72577  23.464   3.687  20.654  0.0746 -0.0416 -0.4192
29562W        W72578  14.068   5.597  13.598  0.1370 -0.0140 -0.1098
29563W        W72579   0.328  31.848  20.889 -0.1945 -0.1802 -0.0596
29564W        W72580  19.872  33.646  27.829 -0.0421  0.0665  0.2023
29565W        W72581  21.560  14.039   0.254  0.1789 -0.2149 -0.2484
29566W        W72582  13.076   2.990  18.452 -0.1443 -0.0081 -0.3134
29567W        W72583  34.012  24.606  21.313 -0.0318 -0.0503  0.0597
29568W        W72584  10.617  23.607  28.705 -0.1467  0.1073  0.5127
29569W        W72585   0.702  24.467  25.951 -0.2250  0.0931 -0.0235
29570W        W72586  23.466   0.381  23.470  0.4346  0.0283 -0.0300
29571W        W72587  20.439   3.843  22.762  0.4828 -0.0200 -0.0909
29572W        W72588  33.079  17.512  24.282  0.0370 -0.2113 -0.2225
29573W        W72589   3.238   0.349  22.426  0.0709  0.0546  0.3466
29574W        W72590  29.215  34.310  23.665  0.1049  0.1776 -0.3925
29575W        W72591  30.984  31.054  19.139 -0.0713  0.0858 -0.1222
29576W        W72592  27.197  33.292  17.986 -0.0033  0.0516 -0.2303
29577W        W72593  14.761  26.456  14.133  0.0160 -0.1523  0.3025
29578W        W72594  19.907   5.469  19.442  0.2518 -0.2836 -0.5067
29579W        W72595  29.663  19.260  21.002 -0.1350  0.0719 -0.1200
29580W        W72596   5.950   3.015  22.388 -0.3501  0.0221 -0.1179
29581W        W72597  24.376   9.715  23.921 -0.2140  0.0866  0.0253
29582W        W72598  32.130  32.824   3.446  0.1458 -0.1207  0.0125
29583W        W72599  22.438  20.694   0.861 -0.0080  0.0800 -0.2548
29584W        W72600  32.065  28.717  23.396 -0.1288  0.0416  0.1530
29585W        W72601  16.444  32.569  27.805 -0.2894  0.1092 -0.1245
29586W        W72602   9.245  33.632  15.961 -0.2989 -0.2851  0.0342
29587W        W72603  18.398  14.840  26.568 -0.1547  0.0944  0.0297
29588W        W72604   1.235  14.031  28.661  0.1879 -0.2447  0.1604
29589W        W72605  23.136   1.179  26.425 -0.0489  0.2816 -0.0623
29590W        W72606  31.807   1.457  16.006  0.1707 -0.0193  0.1937
29591W        W72607   2.697  28.660   7.093  0.0866 -0.1290 -0.0003
29592W        W72608  19.664   3.572  27.694  0.3524 -0.1895  0.0153
29593W        W72609   3.259  30.302   1.671 -0.0729  0.4127 -0.0297
29594W        W72610  33.474   5.671  17.438 -0.1512  0.3311  0.0290
29595W        W72611  21.848  34.607  26.716 -0.0675 -0.2858 -0.0062
29596W        W72612   1.263  28.754  16.985  0.1618  0.0876  0.0533
29597W        W72613  29.324  17.757  25.820  0.1302 -0.0917  0.3021
29598W        W72614  26.113   1.592  16.930  0.1487 -0.0497 -0.1235
29599W        W72615  26.766  24.695  23.735  0.1394 -0.0553 -0.0175
29600W        W72616  34.762   4.156  14.874 -0.0169  0.0532 -0.0606
29601W        W72617  19.259  30.345  27.822  0.0392  0.0019 -0.0648
29602W        W72618  21.468   7.426   7.244  0.3067 -0.2661 -0.2095
29603W        W72619   7.694  31.172  17.168  0.1183 -0.0404 -0.1294
29604W        W72620  28.533  13.458  15.276 -0.0943 -0.0463 -0.2889
29605W        W72621   6.325  32.114  22.247  0.4354  0.2120 -0.0004
29606W        W72622  23.496  25.263  17.789  0.0761  0.2939 -0.1237
29607W        W72623  33.499  10.937   1.590  0.1611  0.1908  0.1724
29608W        W72624  17.391   0.054  22.673 -0.4715  0.0360  0.0343
29609W        W72625  34.728  10.450   1.183  0.2399  0.1845  0.0259
29610W        W72626  32.442  30.429  27.841 -0.1768  0.1897 -0.0264
29611W        W72627  33.025  26.552   0.241 -0.2293  0.0332 -0.0767
29612W        W72628  30.048  32.006  18.948 -0.1946 -0.1730  0.0639
29613W        W72629  24.658   9.723   0.714 -0.1236  0.2401 -0.1204
29614W        W72630  31.040  34.462  18.265  0.1038  0.1013 -0.2346
29615W        W72631   5.516  25.065   8.035 -0.1092 -0.1241 -0.0793
29616W        W72632  31.625  20.573  15.422 -0.0271  0.1115 -0.1657
29617W        W72633  28.259  23.078  20.805 -0.2410  0.0831 -0.3581
29618W        W72634  32.860   7.617  28.868  0.1051  0.0858 -0.1295
29619W        W72635  24.787  16.917   6.019 -0.0381  0.2402  0.0042
29620W        W72636  15.271  33.545  15.551 -0.0948 -0.1088 -0.2350
29621W        W72637  22.658  27.748   1.716 -0.1015  0.4253 -0.0337
29622W        W72638  32.988  14.351  19.230 -0.1434 -0.1688 -0.1857
29623W        W72639   8.236   0.212  15.296  0.0611 -0.2894 -0.0433
29624W        W72640  20.064   8.499  14.183  0.2790 -0.0462  0.3146
29625W        W72641  15.352  23.304  19.418 -0.1213 -0.1354  0.0253
29626W        W72642   1.977   8.975  15.347  0.2484  0.0376 -0.0159
29627W        W72643  33.821   2.294  14.082  0.2220  0.0931 -0.1230
29628W        W72644  21.633   3.767  29.214 -0.2159  0.0780  0.0800
29629W        W72645  20.855  30.033  20.931  0.1327 -0.0532 -0.2394
29630W        W72646  34.067   2.145  20.649  0.0004  0.3940  0.1725
29631W        W72647  27.952   4.584  27.642 -0.2616 -0.1710  0.0890
29632W        W72648  12.158   6.232  15.979  0.1573 -0.0195  0.0604
29633W        W72649   2.488  10.316  20.245  0.0577  0.0011  0.1001
29634W        W72650  20.065  22.551  19.224 -0.0407 -0.0481  0.0239
29635W        W72651  25.030  23.622  22.856 -0.2867  0.1607 -0.2286
29636W        W72652  22.628  27.383   6.964 -0.0066 -0.1295 -0.0373
29637W        W72653   7.775   9.401  20.924  0.0050 -0.3369 -0.1764
29638W        W72654  27.025  24.023  21.177 -0.1843  0.3085 -0.2189
29639W        W72655   1.607  25.851  15.545 -0.0478 -0.0407  0.3496
29640W        W72656  23.150  18.662  14.693 -0.1407  0.1245 -0.0453
29641W        W72657   9.950  23.666  23.297  0.0630  0.5155 -0.0525
29642W        W72658  31.534   7.692  25.158 -0.1400 -0.1436 -0.0217
29643W        W72659  30.445  16.902  22.854 -0.2979  0.0439 -0.0168
29644W        W72660   6.663   5.227  15.861  0.2212  0.0706  0.2883
29645W        W72661  31.757   9.653  17.828 -0.2135 -0.1560  0.1413
29646W        W72662  11.776   0.376  16.910 -0.0699 -0.1839  0.2515
29647W        W72663  21.488  11.090   9.798  0.2413  0.1017  0.3412
29648W        W72664  17.450  28.769  21.938 -0.1338  0.0255  0.1383
29649W        W72665  23.663   3.894  16.442 -0.2580 -0.3267 -0.1345
29650W        W72666  18.979   7.976  23.362 -0.0466 -0.1213 -0.0547
29651W        W72667  33.001  28.416   1.120 -0.1643  0.0511 -0.1314
29652W        W72668  22.155   5.712  28.629 -0.1818  0.1108 -0.0352
29653W        W72669  29.609   1.794  26.268 -0.1752 -0.0055  0.0757
29654W        W72670  23.184   3.695  16.262 -0.1369  0.1327  0.3252
29655W        W72671   7.373  15.284  15.140 -0.1753  0.2834  0.0769
29656W        W72672  31.572  26.693  18.170  0.0285  0.0610  0.1168
29657W        W72673  13.983  10.133  14.780  0.3178  0.0527 -0.0925
29658W        W72674  14.017  25.211  23.867 -0.1091 -0.1749 -0.1254
29659W        W72675   1.196  28.606   9.244 -0.1961 -0.3128 -0.1109
29660W        W72676   3.908  14.117  17.125 -0.1233  0.0122  0.3287
29661W        W72677  29.400  11.813   2.424 -0.3068  0.2164  0.2720
29662W        W72678  24.959  12.307  15.460 -0.0494  0.1469  0.1940
29663W        W72679  24.468  33.316  27.871 -0.0575  0.2422  0.1866
29664W        W72680  10.479  29.389  15.317 -0.2169 -0.2100 -0.0959
29665W        W72681  33.473   7.250  21.744  0.0074  0.1001 -0.1419
29666W        W72682  26.221  24.056   2.336 -0.2471 -0.2552  0.1398
29667W        W72683  17.635  30.969   2.984 -0.2371  0.1785 -0.1145
29668W        W72684  27.345  21.114  27.062  0.0194 -0.0496 -0.0551
29669W        W72685   0.559  27.617   0.190  0.2737 -0.2408  0.1537
29670W        W72686  18.110  23.639   2.965 -0.0314 -0.0870  0.2098
29671W        W72687  23.096  24.024  25.943  0.3493 -0.0462  0.1557
29672W        W72688  24.229  20.900  22.198 -0.1128  0.2015  0.3501
29673W        W72689  24.481   0.548   1.881  0.0815  0.0389 -0.0863
29674W        W72690   1.962   2.239  16.918 -0.0201  0.3876  0.0778
29675W        W72691  25.688  28.793  16.958  0.0194  0.2410 -0.0171
29676W        W72692   2.042  26.806  21.879  0.3322 -0.0241  0.0347
29677W        W72693  29.239  21.685  17.391 -0.1333 -0.3138 -0.3184
29678W        W72694  27.630  14.534   1.676  0.0100 -0.0129 -0.0137
29679W        W72695  21.930   9.742  16.253 -0.1141 -0.0845 -0.2034
29680W        W72696   7.460  29.288  22.768 -0.0139  0.1063 -0.1768
29681W        W72697  25.714   2.458   9.956 -0.0485  0.1100  0.3689
29682W        W72698  33.917  22.939  15.446 -0.0341  0.0763  0.0149
29683W        W72699   7.128  25.939  28.495 -0.1054 -0.4985  0.0961
29684W        W72700   8.894  18.366  19.639  0.0172  0.0110  0.3688
29685W        W72701  20.436   9.331  18.941 -0.1310  0.1951  0.4040
29686W        W72702  24.244  25.192  26.150  0.1309  0.0482  0.1192
29687W        W72703  21.489  28.907  24.660  0.2763 -0.1419  0.0147
29688W        W72704  13.716   9.383  28.670 -0.0577 -0.1313 -0.2964
29689W        W72705   3.738   1.969  25.671 -0.0390 -0.1466  0.0263
29690W        W72706  15.210  19.840  28.844  0.2334 -0.1025  0.2825
29691W        W72707  18.256   8.941  21.886  0.3802 -0.1247  0.0693
29692W        W72708  24.994   3.570  25.382 -0.0625 -0.1418 -0.0187
29693W        W72709  30.408   1.791  27.463 -0.1577 -0.0611 -0.2074
29694W        W72710  28.230  25.821   7.007 -0.1464 -0.0875 -0.0297
29695W        W72711  28.231  30.739  19.699  0.0450 -0.2525  0.1089
29696W        W72712   0.974  17.708  16.268  0.0953 -0.0769 -0.1546
29697W        W72713   5.484  33.270  24.504 -0.0574  0.2122  0.3163
29698W        W72714  14.690  24.742  22.317 -0.0390  0.1453  0.1309
29699W        W72715  18.166   1.149  17.388 -0.3689 -0.3169  0.0325
29700W        W72716  25.371   9.261   2.634  0.0518  0.0494  0.0418
29701W        W72717  27.014  25.168  27.603  0.0894  0.0489  0.0415
29702W        W72718  34.597  25.610   6.333 -0.1109 -0.0619  0.2129
29703W        W72719  30.519   0.696   6.998 -0.1244 -0.1346 -0.1696
29704W        W72720  21.896   3.783  25.119  0.1263 -0.2052 -0.1711
29705W        W72721  23.371   1.737   0.316  0.1694  0.3069  0.3029
29706W        W72722  22.868   8.405  20.587  0.1838 -0.3368 -0.0795
29707W        W72723  33.656  28.203   3.359  0.1894  0.1592 -0.2037
29708W        W72724  17.349   2.742  14.744 -0.2300 -0.2370 -0.0113
29709W        W72725  27.449  32.965  16.959 -0.1084 -0.4785 -0.0290
29710W        W72726  25.117  23.494  22.233 -0.4802  0.1101 -0.1621
29711W        W72727  16.879   7.503  22.320 -0.2662  0.1206 -0.0651
29712W        W72728   6.733  25.826  21.092 -0.3229  0.2530  0.2035
29713W        W72729  21.066  28.521  23.212 -0.0695  0.0476  0.1167
29714W        W72730  30.471  30.107  21.816  0.1200  0.0424 -0.0195
29715W        W72731   2.158  17.459   2.134 -0.3343  0.2389  0.3471
29716W        W72732  34.721  33.669  27.707  0.0189  0.0689 -0.0879
29717W        W72733   8.378  33.239  16.013 -0.0213  0.1187 -0.0200
29718W        W72734  12.309  16.756  24.953  0.0002  0.0985 -0.1555
29719W        W72735  18.632  33.775   6.914  0.0310 -0.4354  0.0433
29720W        W72736  27.224   2.900  20.651  0.0303  0.3467  0.0169
29721W        W72737  30.397   1.613  19.796 -0.2199 -0.3389 -0.1933
29722W        W72738  24.713   0.846  28.405 -0.1443 -0.1324  0.0101
29723W        W72739  31.311  33.961  24.165 -0.0044 -0.0842 -0.0110
29724W        W72740  24.390   4.214  28.107  0.1577 -0.0024 -0.1408
29725W        W72741   0.336   7.589  14.508  0.0337  0.2405 -0.1426
29726W        W72742  34.405  13.133   2.131  0.0477 -0.1033 -0.2923
29727W        W72743  18.188   5.080  19.838  0.3396  0.1119  0.0890
29728W        W72744  23.748   0.101  10.374  0.0988 -0.1040  0.1398
29729W        W72745  20.377   9.941  18.394  0.3667 -0.0674  0.1213
29730W        W72746  30.682  28.968  10.295  0.1220  0.2386 -0.0898
29731W        W72747  14.353   6.965  20.800 -0.0436 -0.1550 -0.0197
29732W        W72748  27.317   5.558  28.384 -0.0030 -0.0541 -0.0456
29733W        W72749  22.239   1.254  14.736  0.3104 -0.1484 -0.2349
29734W        W72750  26.644  27.599  23.456 -0.1104  0.2345  0.0671
29735W        W72751   1.193  30.615  15.587  0.1717  0.3277  0.1953
29736W        W72752  21.804  11.020  29.301 -0.1681  0.0601 -0.0195
29737W        W72753   0.210   4.895  21.382  0.2635  0.0615  0.1582
29738W        W72754  27.030  29.828  17.367 -0.0844  0.0669  0.0680
29739W        W72755  19.406  11.948  16.171 -0.0300 -0.1298  0.0556
29740W        W72756   1.122  33.221  25.418 -0.1092  0.2396 -0.1102
29741W        W72757  24.595   0.518  21.352  0.1164  0.1099  0.2302
29742W        W72758   5.278  32.247  27.796  0.3385 -0.1760 -0.0746
29743W        W72759  13.638  34.140  20.775  0.0500  0.1102  0.2587
29744W        W72760   1.493  17.797  17.608 -0.2757  0.1379  0.4500
29745W        W72761  28.051  27.871  27.209  0.0641 -0.0165 -0.2554
29746W        W72762  21.514   2.200   1.848  0.3260 -0.1508  0.0666
29747W        W72763  11.393   8.354  24.971  0.0466  0.2300  0.1050
29748W        W72764  12.205  25.724  29.225  0.1331  0.2777  0.2594
29749W        W72765   5.539  32.769  15.676  0.0958 -0.1520  0.2502
29750W        W72766   5.666  29.305  21.016 -0.0155  0.0216 -0.1792
29751W        W72767  31.469  26.053   4.181 -0.1109  0.1665 -0.1726
29752W        W72768  17.632  23.029   7.412 -0.0997  0.2984  0.1306
29753W        W72769  20.133  32.879  20.283 -0.0699 -0.2580  0.0237
29754W        W72770  24.302   2.991  15.717  0.1269  0.1538  0.1447
29755W        W72771  12.231  29.725  27.528  0.1439  0.0424 -0.2249
29756W        W72772  29.355  17.246  26.014  0.1029 -0.0507  0.0397
29757W        W72773  11.439  28.247   3.984  0.0819  0.0825 -0.0532
29758W        W72774  15.306  11.081  26.930 -0.1557  0.0612  0.1413
29759W        W72775  24.824  32.293  24.751 -0.0872  0.1441 -0.3328
29760W        W72776   4.663   8.076  22.616 -0.3365 -0.0169 -0.0829
29761W        W72777  25.031   2.144  14.779 -0.0700  0.1593 -0.0607
29762W        W72778  31.031   0.030   3.444 -0.2067 -0.1208 -0.0544
29763W        W72779  30.173  28.051  27.595 -0.3503 -0.2959  0.0368
29764W        W72780   8.400   8.120  23.969  0.3117  0.0333  0.3275
29765W        W72781  27.371  33.490  25.733  0.0589 -0.2265 -0.1764
29766W        W72782  32.262  10.181  14.829  0.0299  0.3177 -0.0864
29767W        W72783  26.787  33.537  21.344  0.0015 -0.1941  0.1145
29768W        W72784  22.863  25.570   2.273 -0.1390  0.1794  0.3045
29769W        W72785  25.724  12.342  21.112 -0.1243 -0.0153  0.0455
29770W        W72786  31.172  34.583  22.134  0.3732  0.0904  0.1897
29771W        W72787  24.974   4.971   1.925 -0.4203  0.1026 -0.1212
29772W        W72788   8.144   3.902  17.756  0.0488  0.0319  0.1908
29773W        W72789  21.565  25.228  19.792  0.1352  0.0590  0.2126
29774W        W72790  26.811   6.650  18.196  0.1219  0.1181 -0.0586
29775W        W72791  29.113  22.521  18.572  0.2335 -0.0759  0.0797
29776W        W72792  21.166  31.284  20.609 -0.0315  0.1751  0.0524
29777W        W72793  21.404  29.885   7.428 -0.2659 -0.0608 -0.0945
29778W        W72794  33.599  10.049  26.900 -0.0672  0.0351  0.3688
29779W        W72795  22.811   9.622  28.358 -0.1819  0.2265 -0.0696
29780W        W72796  23.781   7.436  10.664  0.1575  0.1443 -0.0639
29781W        W72797  17.518  29.759  17.316  0.1622 -0.0427 -0.2470
29782W        W72798  25.318  27.772  23.199 -0.1858  0.1234  0.2027
29783W        W72799  23.762  34.692  28.156  0.0072 -0.1048 -0.0522
29784W        W72800   7.653  28.339  25.766  0.2787  0.3981  0.1953
29785W        W72801   8.454   6.431  19.129  0.2504 -0.1131  0.0850
29786W        W72802   2.780  28.234  15.172  0.4100 -0.0346 -0.2423
29787W        W72803  21.740   2.231  17.390 -0.2906 -0.0725 -0.2027
29788W        W72804  12.036  33.937  27.006  0.0612  0.1478  0.0339
29789W        W72805  28.511  33.769  23.780 -0.2713  0.2501  0.4450
29790W        W72806  26.254  11.661  10.145 -0.2256 -0.0431 -0.1951
29791W        W72807  24.279  34.636   9.136 -0.0794  0.0273  0.1628
29792W        W72808  28.085  30.402  15.860 -0.0503  0.2466  0.1967
29793W        W72809  11.672  34.144  22.280 -0.1640  0.2997  0.0648
29794W        W72810   4.392   5.596  27.262  0.1008 -0.2461 -0.0035
29795W        W72811  29.919  21.284   9.314  0.0617  0.2144 -0.1939
29796W        W72812   9.096  15.278  21.976  0.0846 -0.0464  0.3309
29797W        W72813  28.184  29.898  17.624 -0.2371 -0.0489 -0.0434
29798W        W72814  25.985  25.288  23.907  0.0391 -0.0185  0.0940
29799W        W72815  34.735  26.285  22.783 -0.0226  0.0482  0.0776
29800W        W72816  14.295   9.649  23.959  0.2438 -0.0033  0.0633
29801W        W72817  10.103  31.496   3.955  0.3400 -0.5095  0.0338
29802W        W72818  23.354   1.782   7.300  0.1886 -0.0284 -0.0921
29803W        W72819   2.179   5.152   6.774  0.1759  0.0100 -0.0328
29804W        W72820  17.710   9.719  17.357 -0.2024  0.0517  0.0099
29805W        W72821  21.819  15.236  21.692 -0.0677  0.0885 -0.2418
29806W        W72822  26.383  32.817  18.060 -0.1580 -0.2265  0.0369
29807W        W72823  13.578  27.712  13.388 -0.4693 -0.2575 -0.0882
29808W        W72824   6.645  20.049  17.713 -0.1161 -0.3715 -0.1295
29809W        W72825  21.073  28.829  17.567 -0.3154  0.0685 -0.3875
29810W        W72826  26.204  23.397   1.213 -0.3663  0.3061  0.3003
29811W        W72827  22.447  12.507   3.853 -0.0903 -0.3852  0.2865
29812W        W72828  33.025   9.627  15.059  0.3308  0.1843 -0.3510
29813W        W72829   0.136   4.786  27.656  0.0544  0.0534  0.1356
29814W        W72830  23.832  28.227  15.967 -0.0797  0.0794  0.0338
29815W        W72831  21.799  23.615  13.498  0.2294 -0.1491 -0.0162
29816W        W72832   7.164  12.352  19.096  0.3369  0.0753 -0.1068
29817W        W72833  28.706   0.860   7.540  0.0130 -0.1701  0.1007
29818W        W72834  10.006  32.606  18.521  0.1830 -0.0031  0.1927
29819W        W72835  34.753  25.766  22.760  0.1233  0.0082  0.2471
29820W        W72836  18.194  19.036   6.306  0.0138 -0.1500  0.0037
29821W        W72837  27.146  18.782  27.749  0.0652  0.2400 -0.0633
29822W        W72838  34.394  26.370   4.429  0.0270 -0.0168  0.0900
29823W        W72839  23.005  12.390  17.522  0.2192 -0.1705  0.3653
29824W        W72840  17.522  23.090  24.089 -0.1791 -0.1102  0.3446
29825W        W72841   0.834   6.360  23.013  0.0100  0.0442 -0.1105
29826W        W72842  34.486  27.230  15.880  0.0473  0.2181  0.6186
29827W        W72843   8.962  34.497   3.608  0.1829  0.3573  0.1327
29828W        W72844   0.347   1.625   4.306  0.3094  0.1931 -0.2443
29829W        W72845   5.229  26.225  27.277 -0.2568  0.2079 -0.0847
29830W        W72846  13.935   6.817  19.598 -0.0685 -0.2066  0.0682
29831W        W72847  33.027  30.735  15.969  0.0473 -0.0036 -0.1105
29832W        W72848  23.264  34.627  26.173 -0.3431 -0.4445  0.0966
29833W        W72849  17.233   3.579  25.871  0.1159  0.1276  0.0145
29834W        W72850  21.359  22.119  27.584  0.1031 -0.1038  0.2942
29835W        W72851  32.290  22.063   3.222 -0.1708  0.1797  0.0275
29836W        W72852  28.934  29.845   8.199  0.0184 -0.1621 -0.0753
29837W        W72853  30.311   4.060  22.429 -0.0966 -0.1969 -0.1167
29838W        W72854  34.713  25.967  19.736 -0.1985 -0.2103  0.1334
29839W        W72855  30.988   4.853   1.005 -0.2331 -0.1936  0.3791
29840W        W72856   6.221   4.679  19.411 -0.0055 -0.0440 -0.1383
29841W        W72857  20.924  14.861  13.280  0.1018  0.0396 -0.0029
29842W        W72858   0.230  32.946  19.495 -0.0121  0.1500  0.0214
29843W        W72859  27.992  22.845  20.381 -0.2553  0.1533  0.1618
29844W        W72860  21.868  20.601  22.886 -0.1581  0.2243 -0.3852
29845W        W72861   8.045   5.912  14.575  0.1725 -0.1757 -0.1460
29846W        W72862   6.480   9.973   1.070 -0.0074 -0.0053  0.4737
29847W        W72863  25.388   4.390   9.688 -0.0557  0.0207  0.0096
29848W        W72864  21.349  15.398  23.848  0.1337 -0.1473 -0.0208
29849W        W72865  10.948  24.386   0.016  0.1192  0.0424  0.0469
29850W        W72866  14.083  32.892  21.396  0.0034  0.1913  0.2822
29851W        W72867  18.307  30.795  22.420  0.3746  0.0934 -0.0524
29852W        W72868  27.176  31.284   5.838  0.2960 -0.0621 -0.1707
29853W        W72869   3.380   9.976  20.363  0.1414 -0.0296 -0.1351
29854W        W72870   3.787  31.165  14.197  0.2283 -0.1941 -0.0460
29855W        W72871  28.391   6.011   0.504  0.1885  0.1170 -0.1107
29856W        W72872  23.899  29.388   3.574 -0.0239  0.4164  0.0308
29857W        W72873   2.652  20.368  20.476 -0.0572 -0.0784 -0.0792
29858W        W72874   5.288  26.926  23.860  0.1242  0.0183  0.1490
29859W        W72875  26.233  28.779  26.911 -0.0240 -0.0001  0.4338
29860W        W72876  10.962  28.559   3.170 -0.0246 -0.0814  0.0439
29861W        W72877   4.430  31.566   3.827 -0.0621  0.0397  0.0810
29862W        W72878  31.530   6.153  17.729  0.1000 -0.2300  0.1049
29863W        W72879   4.641  26.744   8.711 -0.1462 -0.1157 -0.0197
29864W        W72880  10.426  23.197  16.431  0.2518 -0.2449 -0.0960
29865W        W72881  25.661  30.215  18.136  0.0073  0.1875 -0.0759
29866W        W72882   7.058  13.906  20.682  0.0986  0.0913  0.2712
29867W        W72883   1.544  28.694   4.852  0.0282  0.2288  0.2336
29868W        W72884   5.050  12.821  26.564  0.1562  0.0886 -0.1687
29869W        W72885  29.192   0.515  19.573 -0.0392 -0.3250  0.0198
29870W        W72886  32.414  30.737  11.285 -0.3547  0.2523  0.0532
29871W        W72887  32.943  17.181  21.328 -0.0103 -0.1144 -0.0327
29872W        W72888  26.778  30.446   2.213  0.2265  0.2249 -0.0223
29873W        W72889  18.545  30.536  27.398  0.0658 -0.0469  0.0913
29874W        W72890  29.001  25.035  25.551  0.1730  0.1123  0.0056
29875W        W72891  25.320   7.298  17.921 -0.4947  0.2469  0.1368
29876W        W72892  20.602  29.137  23.748 -0.3638 -0.0052 -0.0474
29877W        W72893  28.416  18.627  21.741 -0.1768 -0.0732  0.0360
29878W        W72894  25.257   1.552  22.714 -0.0943 -0.2346  0.1720
29879W        W72895  30.459   0.800  25.903  0.2838  0.1951  0.1572
29880W        W72896  21.208   5.830  23.541 -0.0125  0.0792  0.1047
29881W        W72897  13.118   2.760  16.242  0.1724  0.0246  0.2291
29882W        W72898  21.756   2.018  18.682 -0.1110 -0.3740 -0.0346
29883W        W72899  28.144   4.724  21.907  0.2849 -0.0655 -0.1915
29884W        W72900  28.489  27.250   8.748  0.2218  0.0037  0.0505
29885W        W72901   6.953  22.743   3.792 -0.2194 -0.1065  0.0779
29886W        W72902  24.248  26.318  21.369 -0.2302 -0.2414  0.1615
29887W        W72903  18.563   4.384  25.497 -0.1539 -0.2247  0.1720
29888W        W72904  11.808  25.618   2.097  0.2176 -0.0401  0.2866
29889W        W72905  26.069  30.276  21.869 -0.1913  0.1142  0.0709
29890W        W72906   9.718  23.174  27.092 -0.3538 -0.0650  0.1380
29891W        W72907   3.776   4.221   5.771  0.0004  0.1542  0.0354
29892W        W72908  24.951  27.698  20.479 -0.0021 -0.1552  0.2539
29893W        W72909  33.850   5.946  22.939  0.1760 -0.1606  0.0348
29894W        W72910  21.372   3.454  23.603 -0.0954 -0.3252 -0.0209
29895W        W72911  30.673  30.818   5.213 -0.0884  0.2906  0.0556
29896W        W72912   1.214  17.007   9.807  0.3043 -0.4245 -0.1556
29897W        W72913   7.192  26.993  18.482  0.0141  0.0899  0.1913
29898W        W72914  14.353  18.258  13.198  0.2940 -0.0328  0.1618
29899W        W72915  28.707   4.043  16.692  0.2244 -0.2254  0.2634
29900W        W72916  23.275  13.124  24.979 -0.2570 -0.0733 -0.0415
29901W        W72917   9.629  18.521   1.996  0.0165  0.2195  0.2473
29902W        W72918  33.303   0.441  22.326  0.2105  0.0286  0.1478
29903W        W72919  22.159  23.019  28.943 -0.3197  0.1530 -0.2230
29904W        W72920  30.856  29.907  18.631  0.0259  0.0250 -0.0842
29905W        W72921  25.217   0.080  25.318  0.0727  0.2245 -0.3813
29906W        W72922   5.638  18.850  21.239  0.0560  0.1895  0.0983
29907W        W72923  26.628   4.024   9.771 -0.2945  0.1643  0.1116
29908W        W72924  32.149  29.796  21.476 -0.0529 -0.3294 -0.1547
29909W        W72925  11.091  28.894  24.468  0.0710  0.6849  0.1402
29910W        W72926  21.074   8.336   3.726  0.1143 -0.1614 -0.3631
29911W        W72927  18.868   0.587  18.747  0.2220 -0.2837  0.3342
29912W        W72928   2.727   7.008  24.160  0.0035  0.4108  0.1602
29913W        W72929  26.372  34.410  22.060  0.3612  0.1998 -0.0649
29914W        W72930  20.894  29.502   1.025  0.2572 -0.1988  0.2243
29915W        W72931  28.707  10.788  26.147  0.2941 -0.1266  0.1045
29916W        W72932  32.653  10.101  18.204  0.2597  0.1064 -0.1057
29917W        W72933  19.052  31.292   7.936 -0.3362 -0.1100  0.1113
29918W        W72934   6.307  28.878  14.285 -0.2200 -0.2304  0.1842
29919W        W72935  18.702  34.551  15.189  0.2678 -0.0699 -0.1203
29920W        W72936  21.223  29.410   1.424  0.1083  0.0862 -0.0311
29921W        W72937   1.494  28.453   8.584  0.0541  0.2603  0.1727
29922W        W72938  30.764  14.606  26.754  0.1446 -0.0432 -0.0498
29923W        W72939  17.206   7.192  23.677  0.0297  0.0235  0.0493
29924W        W72940  16.904  22.457   2.888 -0.1092 -0.0367 -0.0909
29925W        W72941  29.879  28.779   5.055  0.1137  0.2117 -0.1688
29926W        W72942  34.673  32.609  22.707 -0.3692  0.0520 -0.1271
29927W        W72943  24.790  24.063   4.034  0.0890  0.0349 -0.0480
29928W        W72944   5.355  24.841  23.732 -0.1450 -0.1828 -0.1780
29929W        W72945  31.596  11.349  16.242 -0.1898 -0.1433  0.0722
29930W        W72946  29.957  27.082  10.098  0.2637  0.0091 -0.2387
29931W        W72947  24.503  22.692  22.639  0.1175 -0.1626 -0.2515
29932W        W72948   1.912  18.675   8.988 -0.1883 -0.0743 -0.3079
29933W        W72949  25.613  33.245  26.567 -0.1687  0.0960  0.0380
29934W        W72950  20.124   2.782  28.686  0.1218 -0.1470 -0.2488
29935W        W72951  20.880   0.059  24.929 -0.1723 -0.3516 -0.2892
29936W        W72952  30.535  34.142  20.153  0.2393 -0.2313  0.0572
29937W        W72953  13.070   2.087  15.847 -0.0100  0.0133  0.0440
29938W        W72954  17.727   5.512  16.787 -0.2856 -0.2930 -0.0320
29939W        W72955   1.567   5.564  28.813 -0.3967 -0.1020 -0.1135
29940W        W72956   9.322  29.123  22.207 -0.2083  0.0136 -0.0240
29941W        W72957  12.281  20.348  22.753 -0.4331 -0.0510 -0.3570
29942W        W72958  31.171  29.611   0.135  0.1550 -0.1309  0.0069
29943W        W72959  32.683  20.961  22.131  0.3109 -0.1581  0.1950
29944W        W72960  18.040  10.943  28.537  0.1127 -0.0348 -0.0551
29945W        W72961  13.190  11.522  16.022  0.0519  0.1865  0.3826
29946W        W72962  34.087  27.698  15.272  0.1009  0.2044 -0.1314
29947W        W72963  33.703   3.858   3.519  0.4171 -0.0819  0.1325
29948W        W72964  28.348   5.125  25.887 -0.0189  0.0451 -0.0221
29949W        W72965  12.656  32.527  17.619  0.1558  0.0733  0.4799
29950W        W72966   1.453  28.350  23.760  0.1563 -0.0768 -0.1329
29951W        W72967  20.168   0.727   5.955  0.1280  0.1310  0.0811
29952W        W72968  29.075  18.650  14.402  0.2619 -0.2222  0.2364
29953W        W72969  27.999   9.465  27.498 -0.3170  0.3944 -0.2565
29954W        W72970  19.562   0.012  19.426  0.0793 -0.2551 -0.2773
29955W        W72971  20.787  21.737  22.365 -0.2041 -0.1740 -0.0075
29956W        W72972  22.379  26.460  25.005 -0.1830 -0.1584  0.0584
29957W        W72973  10.826  26.520  19.462  0.1032  0.0094  0.0134
29958W        W72974  23.562  22.776  21.600  0.0004  0.0552 -0.1022
29959W        W72975   8.404  11.720   4.541 -0.3391 -0.1558 -0.1142
29960W        W72976  19.736   4.356   7.637  0.1093 -0.1498  0.2306
29961W        W72977  19.764   3.579  23.506 -0.2024  0.2968 -0.0416
29962W        W72978  16.993   3.778  21.232 -0.1756 -0.3024 -0.0597
29963W        W72979  18.636  18.519  21.592  0.0176  0.2732  0.1767
29964W        W72980   3.563  19.009  17.548 -0.0031  0.1433 -0.0086
29965W        W72981  14.448  21.133  28.069 -0.1389  0.1958 -0.1056
29966W        W72982  31.453   2.262  22.124 -0.1529  0.1733  0.1293
29967W        W72983  20.481  22.580  23.630  0.3446 -0.1676 -0.2667
29968W        W72984  20.961  33.093  10.422  0.3485 -0.1504  0.1172
29969W        W72985  29.019   6.414  24.952  0.0184 -0.1275 -0.1585
29970W        W72986  18.571   1.131   2.247 -0.2418  0.0961  0.1226
29971W        W72987   0.173   4.470   1.514 -0.0201  0.0196  0.2819
29972W        W72988  31.747  16.503  16.991 -0.3065 -0.1977  0.0313
29973W        W72989  29.078   3.312  28.520  0.0148  0.1072 -0.1721
29974W        W72990  18.387  33.251  14.704 -0.2005  0.0636  0.1037
29975W        W72991  26.943   0.600   2.333 -0.0820 -0.4304 -0.0095
29976W        W72992  31.800   0.534  21.761  0.1437  0.0140 -0.2394
29977W        W72993  16.622  27.613  28.485 -0.1551 -0.3471  0.3378
29978W        W72994  27.061  12.750   4.132 -0.2529  0.0993 -0.0791
29979W        W72995  24.257  33.781  18.389  0.1060  0.1710 -0.1900
29980W        W72996  26.332   2.402  16.893 -0.1047  0.1885  0.0105
29981W        W72997  31.494   1.000  15.849  0.1239 -0.0878  0.0364
29982W        W72998  30.483  34.672  20.105 -0.2270  0.0770 -0.2451
29983W        W72999  19.188  16.894  22.796  0.1786  0.1250 -0.0804
29984W        W73000  25.780  24.515  20.806 -0.0571 -0.0039  0.1725
29985W        W73001  17.958  32.947   2.157  0.2665  0.1086 -0.1437
29986W        W73002  16.520   1.944   8.141 -0.0328 -0.0013 -0.0849
29987W        W73003  27.840  24.978   4.098 -0.4489  0.0448  0.2537
29988W        W73004   0.737  33.115   5.839  0.1489 -0.1268 -0.2370
29989W        W73005  11.486  31.866  20.039  0.2343  0.0599  0.2200
29990W        W73006   6.004  34.397   4.787 -0.2335  0.2048  0.1789
29991W        W73007  24.727  24.670  10.342 -0.0323  0.0292 -0.1610
29992W        W73008   1.360  29.539   5.827 -0.2952 -0.0034  0.1251
29993W        W73009  23.572  32.517   1.035 -0.0458 -0.1058 -0.0740
29994W        W73010  29.534  15.386  15.444  0.2409  0.1391  0.2995
29995W        W73011   8.663  29.133  22.488  0.1411  0.1022 -0.4467
29996W        W73012  23.111   5.760  10.913 -0.1733 -0.0001 -0.0708
29997W        W73013   0.312  21.981   1.366  0.0446  0.1106 -0.3237
29998W        W73014  28.708  32.884   1.732  0.1740 -0.2183  0.0342
29999W        W73015   1.001  22.739   0.526  0.0678  0.0150  0.1340
30000W        W73016  23.423   0.202  17.515  0.2404  0.1981  0.0070
30001W        W73017  21.560  32.024  29.016 -0.0860  0.2089  0.1641
30002W        W73018  33.362  10.052  10.065 -0.0861 -0.0331 -0.0169
30003W        W73019  21.017   2.768   2.861  0.0591 -0.1193  0.3579
30004W        W73020  23.391  21.739  14.800  0.1367 -0.1677 -0.1142
30005W        W73021  16.596   8.881  25.457  0.0894  0.1394 -0.1180
30006W        W73022  12.848  29.527  15.554  0.2677 -0.1143  0.0374
30007W        W73023  29.265  24.451  18.932  0.1840  0.0724 -0.0319
30008W        W73024  32.516   9.501  21.370  0.0628 -0.0060 -0.0678
30009W        W73025  12.258  26.548  21.088 -0.0568 -0.1940  0.3446
30010W        W73026  15.894  12.502   0.907 -0.3398 -0.3348  0.3014
30011W        W73027   5.729  29.567  28.329  0.0787 -0.1260 -0.0099
30012W        W73028  10.150  18.654  13.488 -0.0682 -0.1775 -0.0459
30013W        W73029  30.834  27.669  20.438 -0.1869  0.2258 -0.0131
30014W        W73030  30.159   1.354   4.652 -0.3273  0.1439  0.2995
30015W        W73031  15.482  23.272  26.111  0.0364  0.0558 -0.1738
30016W        W73032  34.572   3.629   7.861 -0.0308 -0.2422  0.0869
30017W        W73033  22.003  24.441  14.569 -0.1594  0.0834  0.2746
30018W        W73034  31.791  33.913   9.756  0.0034  0.3720 -0.0970
30019W        W73035   6.276   3.186  17.534  0.1744  0.0168 -0.1050
30020W        W73036   5.101  32.683  24.714  0.1158  0.1180 -0.1940
30021W        W73037  31.767  26.273   1.567 -0.1896 -0.0598 -0.0237
30022W        W73038  19.723  10.523   3.321  0.0723 -0.0356 -0.0186
30023W        W73039   4.649  33.045  19.729 -0.0602  0.5272  0.0788
30024W        W73040  28.330  30.504   4.746  0.0645 -0.1719  0.0296
30025W        W73041  28.589  33.307  25.126 -0.2472 -0.3178 -0.0086
30026W        W73042  17.521  18.321  15.580 -0.2836  0.0805 -0.2487
30027W        W73043  27.628  34.724   7.155  0.0702  0.3301  0.2556
30028W        W73044  25.320  24.150   6.629 -0.0998  0.1892 -0.3367
30029W        W73045   7.410  25.335  19.371 -0.1024  0.0264 -0.1019
30030W        W73046  21.582  19.107  24.946 -0.2998 -0.0404 -0.1982
30031W        W73047  23.835  24.283   8.840 -0.0521  0.4140 -0.0574
30032W        W73048  24.656  29.921  25.567  0.0777  0.0182  0.2665
30033W        W73049  20.652  29.692  17.469  0.1267 -0.0986 -0.1682
30034W        W73050  31.250   3.848   4.434  0.1300  0.2868 -0.0426
30035W        W73051   6.363  27.431  10.356  0.0616 -0.1570 -0.1101
30036W        W73052  10.002  31.663   0.260 -0.4061 -0.5336 -0.0624
30037W        W73053  26.067   0.199   8.876  0.1549 -0.1606  0.0080
30038W        W73054  24.296  33.647  10.170 -0.0154  0.0167 -0.3373
30039W        W73055  32.649  16.955  29.226  0.0588  0.2283 -0.1233
30040W        W73056  23.398   9.784   3.103  0.2578  0.0805 -0.1179
30041W        W73057  28.156  13.931   4.373 -0.1903 -0.3868  0.0525
30042W        W73058  11.795  24.833   0.209  0.0784  0.0099  0.2504
30043W        W73059  24.385  22.840   0.598  0.2512 -0.0357 -0.2995
30044W        W73060   5.337  10.120  15.257 -0.2547  0.0927  0.0936
30045W        W73061  33.305   1.203  20.975  0.1719 -0.0804  0.1549
30046W        W73062  19.616   5.731   8.770 -0.0979 -0.0332 -0.2410
30047W        W73063  32.186  10.547  14.466 -0.0894 -0.2842  0.4276
30048W        W73064  23.318   6.928  24.777 -0.3615  0.1981 -0.2969
30049W        W73065  34.163  33.238   4.204  0.0354  0.3268  0.0103
30050W        W73066  10.780  28.812  27.191  0.0090  0.0720  0.0190
30051W        W73067  26.661  33.288  26.354  0.3127 -0.3425 -0.1805
30052W        W73068  14.287  29.045  18.032  0.4139 -0.0789  0.1927
30053W        W73069  18.911  28.710   3.995  0.0812  0.1671  0.0010
30054W        W73070  10.004  23.508   2.613  0.2340 -0.2605 -0.1035
30055W        W73071  16.312  25.612   5.958  0.1120  0.1066  0.2093
30056W        W73072   3.630  13.720  25.629 -0.0999  0.1990  0.0533
30057W        W73073  16.815   3.446   2.091  0.1367 -0.2489 -0.0341
30058W        W73074  22.687   7.054  17.913 -0.1235 -0.0160  0.1266
30059W        W73075  21.298  12.480   7.765  0.1687 -0.0595  0.1741
30060W        W73076  24.130  27.880  17.810 -0.0207 -0.0186 -0.0838
30061W        W73077   9.843  33.447  27.389  0.0656 -0.1832  0.0400
30062W        W73078  28.929  14.518  26.141  0.0194  0.1630  0.1198
30063W        W73079  15.661  33.913   8.293 -0.0634 -0.0789 -0.0705
30064W        W73080  28.182   9.576  28.382 -0.0731  0.1656  0.0066
30065W        W73081  28.281  34.668  23.078  0.0743 -0.1934 -0.1393
30066W        W73082  27.110  11.415   2.041  0.0341  0.0763 -0.1111
30067W        W73083   4.918   8.059   8.956  0.4806  0.0774  0.1424
30068W        W73084  28.123  29.423   4.636 -0.2131  0.0250 -0.2512
30069W        W73085  28.802   1.896  10.259  0.0918  0.2833  0.1593
30070W        W73086  23.019   2.545  29.191 -0.2151 -0.1870 -0.2814
30071W        W73087  20.522   0.102  25.330  0.0588 -0.0526 -0.1833
30072W        W73088   8.138   6.921   2.688 -0.3148  0.0638 -0.0980
30073W        W73089  12.634   4.398  16.691  0.1825 -0.0013  0.2118
30074W        W73090   1.131  31.058  24.316 -0.0187 -0.0307  0.1037
30075W        W73091  22.141  21.034   6.743  0.3789  0.2360  0.1122
30076W        W73092   2.293  34.562  19.099 -0.0135 -0.0120  0.0751
30077W        W73093  15.440  17.457   4.914  0.1295  0.1380 -0.1034
30078W        W73094  26.456  26.311  19.590 -0.0936 -0.1732 -0.2826
30079W        W73095  16.339  26.600   9.370  0.0662  0.0252  0.0995
30080W        W73096   7.374   8.937   7.696  0.0797  0.2170 -0.2753
30081W        W73097  31.187  20.208   9.802 -0.2780  0.0470  0.0255
30082W        W73098  14.185  34.330   9.234  0.3145  0.1005 -0.1930
30083W        W73099  23.412   2.191   0.504  0.4242  0.1071 -0.0220
30084W        W73100   7.005  34.211   4.161 -0.0128  0.1011 -0.1518
30085W        W73101  29.698   3.827   0.706  0.2477 -0.2376  0.1497
30086W        W73102  31.570   1.534  21.673 -0.3297 -0.0722  0.0296
30087W        W73103  25.692   6.398   5.318  0.1952  0.0711 -0.0526
30088W        W73104   9.807  20.432  23.967  0.0909 -0.4086 -0.4190
30089W        W73105  25.470   2.916  29.056  0.2977  0.0362 -0.1947
30090W        W73106  15.678   1.694  29.020  0.1352 -0.2294  0.3830
30091W        W73107  29.859   6.351   9.481  0.0279  0.2237 -0.2093
30092W        W73108   8.994  28.804   1.843 -0.3314  0.1671 -0.2151
30093W        W73109  16.178  26.695   2.471 -0.0056 -0.1977 -0.0641
30094W        W73110  27.161  30.309   2.615  0.1109  0.0908  0.2861
30095W        W73111  23.004   6.548  21.480  0.1559  0.0415  0.2512
30096W        W73112  21.946  16.201  24.151  0.1814 -0.3463  0.2013
30097W        W73113  23.232  13.278  24.517  0.2115 -0.3726 -0.0577
30098W        W73114  15.252  22.212   6.143 -0.1040  0.1541  0.1865
30099W        W73115  26.442   6.067   3.603  0.0466 -0.1366 -0.2779
30100W        W73116  34.321  26.330  21.180 -0.0728 -0.0233  0.2067
30101W        W73117  21.970  25.993   8.675 -0.1313  0.1314 -0.1283
30102W        W73118   5.913  16.031   1.943 -0.1414 -0.1825 -0.3445
30103W        W73119  31.037   9.235   2.283  0.1615  0.2908 -0.0053
30104W        W73120   7.031   4.022  25.796 -0.0950 -0.2465 -0.1044
30105W        W73121  17.763   4.242  16.735  0.0123 -0.1580 -0.0414
30106W        W73122   2.111   1.837   0.823 -0.1683 -0.0547 -0.0929
30107W        W73123  25.227   3.012  26.105  0.1216  0.1359  0.0007
30108W        W73124  34.050  30.390  20.737 -0.1307 -0.1525  0.2533
30109W        W73125  13.912   4.176   8.609 -0.1904 -0.2143 -0.1078
30110W        W73126  32.996  17.271  20.846 -0.0496  0.0304  0.1319
30111W        W73127  25.383  28.210  25.678 -0.0202  0.0582  0.1551
30112W        W73128  22.278   0.218   9.535 -0.2409  0.1199 -0.1265
30113W        W73129  12.806  29.572   6.848  0.2242 -0.0762 -0.0186
30114W        W73130   0.992  28.848  22.528  0.0960 -0.0536  0.0446
30115W        W73131  25.769  26.667  21.463  0.0390  0.2012  0.1636
30116W        W73132  24.314  26.911  24.508 -0.2718  0.1999  0.2025
30117W        W73133  14.416   5.266  26.954  0.0886  0.0025 -0.0147
30118W        W73134   6.520   3.383   5.384  0.0204  0.2434  0.0815
30119W        W73135  29.627   3.844  15.150  0.0085  0.0406  0.0275
30120W        W73136  23.725  28.947  23.871 -0.0116 -0.0073 -0.1418
30121W        W73137  24.253  23.026  16.584 -0.2436 -0.1187  0.0559
30122W        W73138  31.870  12.976  15.960  0.3047 -0.2151  0.1192
30123W        W73139  14.118  25.194  26.641  0.1157 -0.1087 -0.0844
30124W        W73140  27.219  30.089  26.417  0.1234  0.1228  0.0726
30125W        W73141  33.829  11.732  18.778  0.1307 -0.0454 -0.1417
30126W        W73142  24.677  33.769  29.053  0.2907 -0.1229 -0.0122
30127W        W73143   9.441  32.261  26.971  0.2562  0.0779 -0.0853
30128W        W73144   7.770  30.883   1.998  0.3006  0.4703 -0.3418
30129W        W73145  26.957  13.448  16.246 -0.0708  0.0577  0.3026
30130W        W73146   1.596  16.849  17.738  0.0279  0.0538  0.0594
30131W        W73147   4.636  28.823   1.395  0.1309 -0.1624 -0.0274
30132W        W73148  20.362  28.940  28.950  0.0844 -0.3406  0.1941
30133W        W73149  20.174  23.289  18.492  0.0855  0.0628 -0.0699
30134W        W73150  27.518  26.801   9.709  0.2365  0.0630  0.0908
30135W        W73151  19.064   4.676  19.623  0.1566  0.0507  0.0105
30136W        W73152  28.996  29.150  23.742 -0.0705  0.1615 -0.1048
30137W        W73153   4.661  23.846  19.681  0.0071  0.0207  0.0325
30138W        W73154   8.986  11.011  23.244  0.3288 -0.3080 -0.0846
30139W        W73155  12.111  33.778   0.789 -0.1304  0.1516 -0.1442
30140W        W73156   5.623   5.791   4.317  0.1890 -0.0485 -0.0548
30141W        W73157   2.477  27.639   6.117 -0.0635  0.1158  0.0710
30142W        W73158  19.784  26.919   9.146  0.0210  0.0593 -0.1221
30143W        W73159  24.787  22.797   2.380 -0.2036  0.1303  0.0181
30144W        W73160  16.500  16.230  27.092 -0.1205 -0.2916  0.0714
30145W        W73161   0.813  34.119  16.149 -0.0263 -0.0420  0.0962
30146W        W73162  14.837  25.113  22.028 -0.1152  0.2048 -0.0933
30147W        W73163  29.231  21.383   6.647  0.0585 -0.2640  0.1083
30148W        W73164   1.407   2.732  27.885  0.1200 -0.2114 -0.1297
30149W        W73165  19.289  34.490   6.761  0.4070  0.0251 -0.1242
30150W        W73166  18.495  27.111  27.839 -0.2819  0.0139  0.1505
30151W        W73167  27.087   4.190   2.460 -0.1380  0.1024 -0.3561
30152W        W73168  25.019  18.536   1.258  0.0133 -0.1177  0.0932
30153W        W73169  23.158  14.300  24.264 -0.1966  0.0011  0.0334
30154W        W73170  24.286  32.021  22.259 -0.0324  0.3225 -0.4638
30155W        W73171  14.236   2.038   7.969  0.3001  0.5372 -0.0435
30156W        W73172   5.063   0.040  28.103 -0.2311 -0.2372 -0.1376
30157W        W73173  28.773  26.571   4.409  0.1956 -0.2090 -0.0397
30158W        W73174  30.620  14.091   8.332  0.0431 -0.2704 -0.0050
30159W        W73175  34.258  16.843   6.661 -0.2191  0.1297  0.1367
30160W        W73176  31.530  33.588   1.650  0.0104  0.1233  0.1605
30161W        W73177  29.965  31.957  23.805 -0.3693  0.1759  0.0879
30162W        W73178  27.672  32.334   5.538 -0.1544 -0.1540  0.0789
30163W        W73179   4.795  27.801   1.309  0.0635  0.2743 -0.3622
30164W        W73180  21.854  27.157  17.568 -0.1614 -0.2363 -0.0278
30165W        W73181  23.644  27.067  28.855 -0.3653  0.0287 -0.3787
30166W        W73182   6.833  12.223   0.276 -0.2211 -0.1310 -0.1763
30167W        W73183  22.938  25.358  18.313  0.0964 -0.1513  0.1873
30168W        W73184  22.042  32.177  28.835 -0.1720 -0.4676  0.0061
30169W        W73185  10.403  27.894  16.927 -0.1490 -0.1189 -0.4114
30170W        W73186  21.470  34.529   1.055 -0.1141 -0.2434 -0.0325
30171W        W73187   2.529   9.489   5.440 -0.2104  0.1533  0.4788
30172W        W73188  16.196  32.777  28.216  0.0929  0.2305  0.1033
30173W        W73189  21.880   1.220  28.569  0.0506  0.0225 -0.1051
30174W        W73190  28.032  31.603  22.164 -0.0908  0.0311  0.0553
30175W        W73191   5.030   2.609  17.328 -0.0358 -0.1317 -0.1252
30176W        W73192  11.742  10.725   0.951 -0.0134 -0.0568  0.5397
30177W        W73193  19.033  13.971  20.784 -0.0617  0.0208  0.1504
30178W        W73194   6.499  26.235  23.650  0.0551 -0.0510 -0.0041
30179W        W73195  33.681  20.866  22.378 -0.2597 -0.0534 -0.0284
30180W        W73196  32.109  25.383   2.747 -0.2229  0.0369 -0.1988
30181W        W73197  22.011   5.559   8.741  0.2537  0.3489 -0.2478
30182W        W73198  33.735  12.690   9.311 -0.0718 -0.3191  0.0447
30183W        W73199  29.807  32.951   7.728  0.0996 -0.0462  0.1806
30184W        W73200  15.228  21.053   7.878 -0.2046  0.1684  0.1084
30185W        W73201  28.963   4.014   4.864 -0.4418  0.0620  0.2720
30186W        W73202  25.600   5.389   4.955  0.2481  0.0159  0.0339
30187W        W73203  31.861  24.561  14.515  0.2380  0.0568 -0.1659
30188W        W73204  23.042  25.087  17.906 -0.1999  0.2719 -0.3021
30189W        W73205   9.196  21.720   2.154  0.0862  0.0528 -0.1227
30190W        W73206  27.513  14.666  29.032 -0.4296 -0.0942  0.0078
30191W        W73207  16.877   5.887   0.594  0.1428 -0.0853 -0.4258
30192W        W73208  19.087  11.670  28.492  0.0745  0.1803 -0.0107
30193W        W73209  26.914  26.201   7.227  0.3429 -0.0340  0.0123
30194W        W73210  14.894  22.266   4.764 -0.0792  0.1323 -0.3011
30195W        W73211  31.558  31.343  23.285  0.0793 -0.4796 -0.1206
30196W        W73212  33.633  18.067  21.296 -0.0403  0.0141 -0.0059
30197W        W73213  23.579  27.015   8.485 -0.3397  0.0118 -0.1068
30198W        W73214   3.030  20.287   3.046 -0.0515  0.1620  0.0142
30199W        W73215  12.702   1.336  23.131 -0.1617 -0.0166 -0.4389
30200W        W73216  19.638  22.260  22.582 -0.2717 -0.1643 -0.3563
30201W        W73217  34.319  30.462  21.477  0.3476  0.4260 -0.0556
30202W        W73218  23.573   7.015   2.768  0.2821  0.0730  0.3450
30203W        W73219  10.113  27.805   9.770  0.2457  0.5952 -0.0444
30204W        W73220  31.786   4.596   7.071  0.1528 -0.2749  0.0484
30205W        W73221  13.879   4.942  26.925 -0.2725 -0.0457 -0.0658
30206W        W73222  13.444   1.524   1.176  0.0594  0.0287  0.2069
30207W        W73223  29.365  14.811  19.514 -0.5518 -0.2736 -0.0815
30208W        W73224   1.007  33.082  17.593 -0.2821 -0.1304 -0.1676
30209W        W73225  30.840   8.642  25.441  0.1632 -0.2567 -0.2649
30210W        W73226  16.686  31.764   7.175 -0.0074  0.0997  0.0567
30211W        W73227  25.835  34.198   2.253  0.1702  0.1639  0.0278
30212W        W73228  31.900  13.232  21.799  0.1235  0.2282 -0.1134
30213W        W73229  13.993  21.574  24.390 -0.0523 -0.5188  0.0803
30214W        W73230  25.941  32.297   0.659  0.0655  0.1465  0.3147
30215W        W73231  22.859  12.988  29.041  0.0506 -0.1893  0.0049
30216W        W73232  34.593   8.931  22.391  0.0251  0.0595 -0.0477
30217W        W73233  26.959  31.408   2.755 -0.2052  0.0344  0.0560
30218W        W73234  12.948   1.118  21.244 -0.1417  0.1992  0.1310
30219W        W73235  28.379  25.869  17.853 -0.3724 -0.1746  0.0644
30220W        W73236  14.595   1.609  23.670  0.4071 -0.1051  0.4453
30221W        W73237   1.604   7.605   2.902  0.2541 -0.3223 -0.3842
30222W        W73238  31.299  29.879  26.569  0.3632  0.0010  0.2486
30223W        W73239  27.892   2.242   9.016 -0.2498  0.2865  0.1140
30224W        W73240  33.291  32.321  10.720 -0.1974  0.0295 -0.3074
30225W        W73241   2.872  12.475  27.322 -0.1463 -0.1253 -0.3214
30226W        W73242   8.655   7.581   7.603 -0.2373 -0.0225  0.0465
30227W        W73243  19.763  26.853  28.081  0.1277 -0.0041 -0.3006
30228W        W73244  13.408  28.261  26.271 -0.1071  0.1825  0.2580
30229W        W73245  25.445  25.907  22.641 -0.1725 -0.0233  0.0393
30230W        W73246  25.884  23.797  18.871 -0.1638  0.0115  0.0256
30231W        W73247  24.793  23.999  23.078 -0.2645 -0.0641  0.0613
30232W        W73248  21.332  24.685  13.871  0.0402  0.4203  0.0140
30233W        W73249  23.445  31.315   0.067  0.4986 -0.1413  0.1868
30234W        W73250   4.880   0.172  15.453 -0.0686 -0.1988  0.3380
30235W        W73251  20.633  30.925   8.969  0.0124  0.1648 -0.0015
30236W        W73252  29.255   3.165  18.030  0.0787 -0.3799  0.2961
30237W        W73253  14.955   8.648  18.486  0.0381 -0.0937  0.1037
30238W        W73254   9.078  17.201  24.396 -0.0100  0.1898  0.1931
30239W        W73255   1.846  30.438  14.800 -0.0742 -0.3227  0.0062
30240W        W73256   6.606  14.011  16.471  0.0398 -0.1103  0.1733
30241W        W73257  31.983   1.788  25.223 -0.1794 -0.2078  0.0412
30242W        W73258   5.229  26.505  13.887 -0.1583 -0.1473  0.1269
30243W        W73259  32.214  12.997  23.757 -0.2159  0.3642  0.0988
30244W        W73260  28.541  11.781  18.866 -0.1438 -0.0682 -0.0557
30245W        W73261  31.505   8.137  10.793 -0.2905  0.0944 -0.0737
30246W        W73262   3.304  17.461  18.944  0.2509  0.2111  0.1428
30247W        W73263   4.490  24.285  23.688  0.0633 -0.2899 -0.2713
30248W        W73264  29.382   4.215  25.783 -0.1273 -0.1382  0.0854
30249W        W73265  33.829  25.847  18.800 -0.1431 -0.3853  0.0502
30250W        W73266   2.336  29.017  28.053 -0.1110  0.0913 -0.0148
30251W        W73267  10.455   0.279  15.422  0.1622  0.1202  0.0128
30252W        W73268  29.498   3.856  17.650 -0.1148  0.2884  0.2151
30253W        W73269  32.035   4.757   1.196  0.0685 -0.2769 -0.3270
30254W        W73270  21.938  34.621  22.756  0.2360  0.0190 -0.1590
30255W        W73271  26.089  30.933  16.431 -0.0548  0.1545 -0.1614
30256W        W73272  18.918   7.228  16.877 -0.1129  0.1406 -0.1323
30257W        W73273   5.177  34.098  17.278  0.2078  0.0721  0.1235
30258W        W73274   0.941   4.312   6.196 -0.1684 -0.1290  0.0953
30259W        W73275  21.208   0.026  17.729  0.1069  0.1407 -0.1747
30260W        W73276  24.318  12.206  17.709 -0.2217  0.2830  0.2479
30261W        W73277   6.180   7.010  15.176  0.0072 -0.1331  0.1608
30262W        W73278   2.422  33.294  21.746  0.1864  0.1044 -0.2261
30263W        W73279  18.042   1.629  19.122 -0.2830  0.2967 -0.0481
30264W        W73280  31.968  34.610  20.694  0.1675 -0.5581  0.0264
30265W        W73281  34.230  29.810  17.316 -0.0920 -0.1495  0.0475
30266W        W73282  13.035  25.630  22.304  0.2097 -0.2674 -0.0156
30267W        W73283   4.008  18.325  17.524  0.0399 -0.2874  0.0926
30268W        W73284   0.435  28.275  16.577  0.0631  0.1903  0.1351
30269W        W73285  29.196   0.109  16.620 -0.1825  0.1243  0.0707
30270W        W73286  17.166  28.998  24.754 -0.2908 -0.1358  0.0236
30271W        W73287  33.617   1.260  14.523  0.2039  0.0920 -0.2636
30272W        W73288  30.774   8.756  21.532  0.0019  0.0921  0.1937
30273W        W73289  24.986  30.324   1.692 -0.0446 -0.1812  0.3007
30274W        W73290   6.375  20.938  20.400 -0.0144 -0.0499  0.2001
30275W        W73291  29.382  20.683  16.879 -0.1567  0.0334 -0.3814
30276W        W73292  20.487  31.815  18.714  0.0907  0.2081 -0.2780
30277W        W73293  23.116   0.126  10.033 -0.0693 -0.0158 -0.4196
30278W        W73294   6.158   9.904  16.671 -0.1666  0.0576 -0.1225
30279W        W73295  24.749   6.898  17.562  0.2331  0.0200  0.0839
30280W        W73296   7.239  30.555  15.723 -0.1827  0.1778  0.2024
30281W        W73297  14.211   5.747  26.669 -0.1901 -0.2790  0.1228
30282W        W73298   4.850  29.657  26.088 -0.0044  0.1840 -0.0033
30283W        W73299  14.462  27.801  19.492  0.1212 -0.3861 -0.0405
30284W        W73300   7.845   6.576  21.819 -0.0449 -0.0595  0.1657
30285W        W73301   1.306  29.518  18.126 -0.0012 -0.0115 -0.1971
30286W        W73302   1.373  26.563  19.951  0.4195 -0.0109 -0.1159
30287W        W73303  28.502   2.926  25.313 -0.0721 -0.2435 -0.1702
30288W        W73304  34.212  33.938  23.756 -0.1713 -0.1264 -0.0481
30289W        W73305  14.723  20.574  13.800  0.2158 -0.0536  0.4007
30290W        W73306   1.104   4.384   4.908  0.0248  0.0662 -0.3083
30291W        W73307  33.431  10.301  23.263  0.0469 -0.0197  0.2085
30292W        W73308   4.156  30.804  25.959  0.0607  0.2777 -0.1792
30293W        W73309  26.948   5.491   2.763  0.0344 -0.1322  0.0060
30294W        W73310   7.269   9.343  17.246  0.1430  0.4903  0.0213
30295W        W73311   1.784  21.729  17.030  0.0004  0.0776 -0.1862
30296W        W73312  12.154   3.419  25.771 -0.0937  0.0624  0.2102
30297W        W73313  32.313   8.358  18.708 -0.1742  0.0197 -0.1614
30298W        W73314  18.446  33.623  14.304  0.0994 -0.0821 -0.0560
30299W        W73315  23.185   5.920  26.244  0.0544  0.0021  0.1110
30300W        W73316   5.554   7.614  20.082 -0.1122 -0.2620 -0.0450
30301W        W73317  29.843   2.483   0.089  0.1509  0.0235 -0.2041
30302W        W73318   1.846  17.146  15.275  0.0560  0.2511  0.1034
30303W        W73319  23.673   3.390  19.392  0.2322 -0.0811  0.4322
30304W        W73320  26.780  28.644  18.213 -0.1323 -0.0594 -0.1003
30305W        W73321  28.042  14.447  24.222 -0.0194  0.1488 -0.1567
30306W        W73322  10.948  11.708  20.852  0.2338 -0.0494  0.2728
30307W        W73323  33.508   2.469  16.877 -0.2372  0.3091  0.1071
30308W        W73324   7.703   1.106  19.639 -0.3546 -0.3479 -0.1260
30309W        W73325  22.234   3.727  23.649 -0.0943  0.2323 -0.0544
30310W        W73326  27.481  24.939  23.983 -0.1860 -0.0239  0.0160
30311W        W73327   5.341  17.208  22.520 -0.2567 -0.2154  0.0551
30312W        W73328   4.350  19.592  15.046  0.0964  0.1225  0.3565
30313W        W73329  33.846  29.105  23.781  0.2070  0.3283 -0.2734
30314W        W73330   2.674  13.265  15.681 -0.1344 -0.0885  0.1388
30315W        W73331  11.489   7.109  19.572  0.1610  0.2250 -0.1109
30316W        W73332   8.487  26.764  24.177  0.2772 -0.1425  0.1356
30317W        W73333  16.091  10.367  19.420  0.1229 -0.3381 -0.1128
30318W        W73334  18.161   8.365  28.898 -0.2230  0.0275 -0.2337
30319W        W73335  29.221  10.827  16.609  0.1641 -0.0588  0.0455
30320W        W73336  31.294  28.134  10.320  0.1338 -0.1831  0.0519
30321W        W73337   2.859   4.666  19.753  0.2926  0.0724  0.0392
30322W        W73338   5.113  29.321  22.365 -0.1109  0.0516 -0.1921
30323W        W73339   5.249  10.323  28.765 -0.3800 -0.4724 -0.1255
30324W        W73340  26.939  34.600  19.499  0.2669 -0.3313 -0.1031
30325W        W73341  22.524  30.347  21.838  0.0723 -0.1831 -0.1294
30326W        W73342  21.216  34.468  24.818  0.0829 -0.4044 -0.0386
30327W        W73343  19.172  31.385  22.120  0.0160  0.2438 -0.2285
30328W        W73344  22.375   0.197  19.820  0.3850  0.0980  0.1378
30329W        W73345   0.676  24.761   7.747 -0.0884  0.0792  0.0094
30330W        W73346  30.603  10.054   7.953 -0.2911  0.3495 -0.2654
30331W        W73347  20.218  10.693  18.023  0.1692 -0.2122 -0.1868
30332W        W73348  20.424  11.148  14.103 -0.0925 -0.2798 -0.0302
30333W        W73349  19.409  28.154  26.193 -0.1657 -0.4188 -0.3738
30334W        W73350   1.980  24.013   2.002  0.1399 -0.1237 -0.1485
30335W        W73351   6.083  33.137  18.167 -0.0824  0.0036 -0.1004
30336W        W73352  32.178  30.389  17.956  0.2008  0.1204  0.0324
30337W        W73353  26.226  12.951  24.631  0.1844 -0.1969 -0.4048
30338W        W73354  28.186  31.443  20.714 -0.1948  0.1763 -0.3999
30339W        W73355   9.209  12.017  14.856 -0.0036 -0.1453 -0.0208
30340W        W73356  27.632   3.013   3.929 -0.1128 -0.0475 -0.1233
30341W        W73357   2.353  32.297  24.510  0.2705 -0.0458  0.2001
30342W        W73358   0.368  20.985  22.920  0.3646  0.2328 -0.2681
30343W        W73359   2.941  29.704  25.808  0.4266  0.0977  0.2528
30344W        W73360  19.827  22.701  27.349  0.3104 -0.2891  0.2042
30345W        W73361  31.556   5.718  21.327 -0.2987  0.2151 -0.1034
30346W        W73362   8.244  21.596  18.107 -0.1083 -0.0777 -0.1102
30347W        W73363  17.998  20.661   2.456 -0.0040  0.1418 -0.1029
30348W        W73364   5.842  21.268  21.813 -0.1805  0.0727  0.0173
30349W        W73365  15.852  34.022  23.618 -0.3117  0.1098  0.1787
30350W        W73366   4.625  25.892  18.537 -0.3236 -0.1558 -0.2260
30351W        W73367   1.787  12.585  25.202 -0.4406 -0.2172  0.1231
30352W        W73368  30.885  10.606  17.178  0.2919  0.2625 -0.0439
30353W        W73369  18.485   3.276  16.306  0.0309  0.1796  0.1928
30354W        W73370  32.040   5.992  14.926  0.1699 -0.0904  0.0769
30355W        W73371  29.711  30.506  24.681 -0.0968 -0.2239 -0.2467
30356W        W73372  29.704  30.435  17.949  0.2617  0.1701  0.2067
30357W        W73373   3.712  27.085   1.631 -0.0835 -0.0601  0.2445
30358W        W73374  32.277   5.065   0.869 -0.6818  0.0410 -0.0924
30359W        W73375  25.857   8.516  16.963  0.4052 -0.3541 -0.0498
30360W        W73376  21.160   4.224  15.185 -0.1862 -0.1942 -0.0603
30361W        W73377  27.122   8.016  18.094  0.0743 -0.0511 -0.3230
30362W        W73378  32.992  18.003  25.636 -0.0698  0.3320  0.1798
30363W        W73379  21.420   5.924  22.562  0.2279  0.0151 -0.0021
30364W        W73380  28.834   8.984  26.101  0.0446  0.4266 -0.2538
30365W        W73381   9.983  15.738  16.654 -0.0791  0.2285  0.0450
30366W        W73382  30.074   9.409  21.312  0.0413 -0.1187 -0.0964
30367W        W73383  31.217   1.391  22.487  0.0621 -0.3301  0.0349
30368W        W73384  16.968   7.634  15.794 -0.3347  0.2162 -0.1482
30369W        W73385  13.055  15.749  22.564  0.1159 -0.1884 -0.1333
30370W        W73386  32.204   4.771  17.302  0.0669 -0.0297 -0.0158
30371W        W73387   6.814   1.518  17.138 -0.0204 -0.1182 -0.0504
30372W        W73388  21.227  29.393  28.791 -0.2091  0.0602 -0.1231
30373W        W73389  28.793  32.091  21.314  0.4041 -0.2206 -0.1460
30374W        W73390   7.075  10.148  23.997 -0.1349 -0.1190 -0.1251
30375W        W73391  29.852   5.822  18.960 -0.1537  0.0892 -0.1627
30376W        W73392  28.876   1.856  23.847  0.1539  0.1398 -0.1479
30377W        W73393   9.531   9.609  23.837  0.7088  0.2029 -0.0339
30378W        W73394  32.245  10.279  21.230 -0.2574 -0.3782 -0.0484
30379W        W73395  15.988   2.531  27.347 -0.2226  0.1072  0.1576
30380W        W73396  25.329   6.042  17.206 -0.2068  0.2891 -0.0995
30381W        W73397  30.641  31.130   3.000 -0.1192  0.1854 -0.2651
30382W        W73398  33.123  31.437  27.381 -0.1696 -0.1223  0.2183
30383W        W73399   5.010  16.683  23.293 -0.0509  0.2374 -0.2080
30384W        W73400  29.217  30.531  20.665  0.0821  0.0704 -0.0370
30385W        W73401  18.588  33.245  27.688  0.1126 -0.0289  0.2393
30386W        W73402   2.144  34.072  28.664  0.0723  0.5075 -0.1990
30387W        W73403  16.733  21.917  14.629 -0.1191 -0.0873  0.2279
30388W        W73404  26.323  18.025  19.864  0.3263 -0.2233 -0.0877
30389W        W73405   2.367  23.450  21.145 -0.1193  0.1462 -0.1680
30390W        W73406  27.788   3.128   7.429 -0.0156 -0.0097 -0.2360
30391W        W73407   4.240  15.685  22.888 -0.2899  0.2535 -0.3396
30392W        W73408  27.983  30.216  28.337 -0.0099  0.0922 -0.1491
30393W        W73409   0.556  25.551  23.545  0.0615  0.0002  0.1660
30394W        W73410   6.974  32.930  23.214 -0.1571 -0.1340 -0.1230
30395W        W73411  32.093   6.955  26.493  0.0284 -0.1891  0.0378
30396W        W73412  30.475  12.337  25.760 -0.1250 -0.1325  0.0292
30397W        W73413  19.283  24.205   0.196 -0.1009 -0.2309 -0.1490
30398W        W73414  25.106  33.781  24.627  0.0188  0.1747 -0.1021
30399W        W73415  23.559   1.533   2.903  0.2033 -0.1311  0.1684
30400W        W73416   1.890  14.894  16.409  0.1285 -0.1601  0.0407
30401W        W73417  34.317  32.451  27.410 -0.1053 -0.3037 -0.2659
30402W        W73418  17.670  29.780  25.045 -0.1565 -0.2132  0.0268
30403W        W73419  14.841  31.147  20.382 -0.3327  0.2552  0.0362
30404W        W73420  19.554  11.424  12.582  0.0459  0.2335  0.0482
30405W        W73421   2.706  30.419  20.492 -0.0537 -0.0194 -0.0786
30406W        W73422  25.060  11.412  16.918  0.1571 -0.0959 -0.1843
30407W        W73423  34.405  32.836  14.760  0.0072  0.2350  0.1297
30408W        W73424  30.870   1.920  27.149 -0.2749  0.0453 -0.1904
30409W        W73425   1.938  25.412  14.171 -0.2061 -0.1588 -0.2097
30410W        W73426   2.685  24.026  19.928  0.1360 -0.3273  0.0743
30411W        W73427  11.420  26.295  27.826 -0.2205  0.1448 -0.1455
30412W        W73428  25.521  24.042  27.062 -0.1113  0.2047 -0.1055
30413W        W73429  31.090   9.142  24.766 -0.0599  0.1324  0.0133
30414W        W73430  15.352   2.784  27.476  0.0572  0.0767 -0.0102
30415W        W73431   8.048   2.641  28.419  0.0955  0.1387 -0.3378
30416W        W73432   0.338   8.194  28.886 -0.0957  0.2625 -0.2024
30417W        W73433  25.671  10.083  16.087 -0.0087  0.2167 -0.2550
30418W        W73434  24.878   7.963  20.158  0.1603  0.4554  0.0924
30419W        W73435   5.537   1.409  16.087  0.0812 -0.0572  0.1934
30420W        W73436  30.274  12.468  21.349 -0.0519 -0.1177  0.0352
30421W        W73437  30.076   6.480  18.482  0.4745 -0.1913 -0.0248
30422W        W73438   7.719  11.494   5.190  0.1574 -0.0019  0.0394
30423W        W73439  30.803  23.977  15.631 -0.1058  0.0351 -0.1726
30424W        W73440  25.972  12.838  13.831  0.0869 -0.1063 -0.4346
30425W        W73441  30.579   7.502  26.694  0.3035  0.2922 -0.0896
30426W        W73442  29.244  22.226  26.491  0.3189  0.2905 -0.1791
30427W        W73443   8.651  29.461  19.434  0.0677  0.1712  0.3284
30428W        W73444  29.164  15.586   0.117 -0.0431  0.4583 -0.0167
30429W        W73445  32.496  22.340  18.461  0.0423 -0.1428 -0.0957
30430W        W73446  30.713   5.522  14.450 -0.2522 -0.2079 -0.0223
30431W        W73447  20.223  33.725  25.913 -0.0206  0.2735 -0.2019
30432W        W73448  30.105   0.841  21.451  0.2854 -0.1060  0.1238
30433W        W73449   8.779  10.032  25.876 -0.1387 -0.0117 -0.1911
30434W        W73450   3.282   1.729  21.171  0.3842 -0.1216  0.0472
30435W        W73451  27.117  18.296  22.926  0.0394  0.1884  0.1419
30436W        W73452  31.591  28.215  21.337 -0.1584 -0.0601  0.0395
30437W        W73453  25.887  31.913  19.418  0.0261 -0.1104  0.2881
30438W        W73454   1.362  21.216  15.390 -0.2872 -0.1666  0.1375
30439W        W73455   1.635   9.925  14.551  0.0177  0.1491  0.0031
30440W        W73456   6.585   0.375  18.458  0.2461 -0.1574 -0.0220
30441W        W73457  33.852  29.778  18.433 -0.1126 -0.5457  0.0127
30442W        W73458  30.332  12.704  16.463 -0.2598 -0.1991 -0.1314
30443W        W73459  16.857   3.905  16.644  0.2068 -0.0223  0.1161
30444W        W73460  19.569   9.359  23.134  0.2224 -0.1075 -0.0563
30445W        W73461  13.021   1.097  18.142  0.1327 -0.1101  0.2227
30446W        W73462  18.738   6.517  28.685  0.0322  0.2213  0.2100
30447W        W73463  28.102   8.783   5.950  0.2836 -0.0193  0.1158
30448W        W73464   4.751  25.713  18.022 -0.0406  0.0409 -0.0541
30449W        W73465  34.534  25.956  21.396  0.0188 -0.2272 -0.1121
30450W        W73466  21.909  20.954  21.453 -0.1478 -0.0260 -0.0944
30451W        W73467  30.156  15.418  25.105  0.1318 -0.1471  0.3223
30452W        W73468  34.058   1.591  18.449 -0.0166 -0.2867  0.3575
30453W        W73469  25.164   0.099  22.031 -0.1034 -0.0870  0.2347
30454W        W73470   0.463  25.490  27.528  0.1811 -0.1473 -0.0500
30455W        W73471   2.589  27.842  22.764  0.0542  0.1359  0.3041
30456W        W73472  32.304  29.678   0.303 -0.1700  0.2832 -0.0502
30457W        W73473   4.548   8.462   5.554 -0.1021  0.1968 -0.1210
30458W        W73474  10.904  10.481   4.250 -0.1017 -0.1027 -0.0779
30459W        W73475  21.142  25.283  21.706 -0.2499  0.2734 -0.1163
30460W        W73476  23.171   0.426  29.091 -0.0367 -0.0689  0.1599
30461W        W73477  22.210   5.981  16.900 -0.0979  0.2786  0.4735
30462W        W73478  33.539   8.817   2.224 -0.0193  0.4132 -0.0679
30463W        W73479  32.060   0.434  15.095  0.2780 -0.2064  0.1802
30464W        W73480  33.854   7.676  23.408 -0.4041 -0.1237  0.3471
30465W        W73481  29.408  31.952  19.543  0.0501  0.0248 -0.0751
30466W        W73482  15.190   0.602  20.642 -0.0265  0.1735  0.0795
30467W        W73483  33.792   7.751  24.756 -0.1345  0.0591 -0.2930
30468W        W73484   1.879   4.568  24.426  0.0922 -0.0787  0.1074
30469W        W73485  34.186   3.988  21.570  0.2032  0.0110 -0.0100
30470W        W73486  33.116   8.807  14.718  0.1749 -0.2461 -0.0073
30471W        W73487  18.680   1.148  18.584  0.0426  0.1762 -0.3255
30472W        W73488  26.365  12.383  17.018 -0.0843 -0.1238  0.3846
30473W        W73489  21.976  30.346  15.495 -0.2946 -0.5224  0.3422
30474W        W73490  22.943  31.446  19.064 -0.0115 -0.1358 -0.0648
30475W        W73491   3.448   4.646  28.438 -0.0307  0.2300 -0.0665
30476W        W73492   5.404  16.554  16.094  0.2361 -0.0437 -0.0898
30477W        W73493  30.987  13.270  15.572 -0.3229  0.0373 -0.0487
30478W        W73494  30.462  28.358  18.696  0.1800  0.0646  0.4022
30479W        W73495  19.184  24.617  20.575  0.2178  0.1064  0.1927
30480W        W73496  31.291  31.961  22.519  0.2494 -0.0370  0.1026
30481W        W73497  24.230  20.635  24.425 -0.0692  0.1069 -0.0597
30482W        W73498  25.914  28.329  24.744 -0.0807 -0.3232  0.1497
30483W        W73499   0.302  11.825  22.309 -0.3082  0.3368 -0.1082
30484W        W73500  15.795  13.041  12.956  0.1490 -0.2713 -0.2331
30485W        W73501  23.618  15.047  19.695 -0.1273  0.3326 -0.1512
30486W        W73502  25.649   5.010  17.083  0.4968 -0.0451 -0.1514
30487W        W73503  34.017   3.934  25.161  0.2595  0.0493  0.0462
30488W        W73504  30.781  27.199  17.133  0.0911  0.2252 -0.1752
30489W        W73505  18.158   2.615  21.468  0.2641  0.0748 -0.0282
30490W        W73506  33.327  34.437  22.730 -0.1447  0.0475 -0.1724
30491W        W73507  10.549  23.110  14.214  0.1475 -0.0136  0.0472
30492W        W73508   3.340  29.779  18.604 -0.2299  0.0635 -0.6319
30493W        W73509   6.176  27.816  18.135  0.3790 -0.0166 -0.1097
30494W        W73510  23.437  27.809  25.440  0.0654 -0.0481 -0.2299
30495W        W73511  22.550  11.904  21.992  0.1278  0.2694 -0.1287
30496W        W73512  13.882   3.328  19.667 -0.0222  0.1017 -0.0601
30497W        W73513  24.849   1.715   4.981 -0.1828 -0.0269  0.2216
30498W        W73514  24.558   3.691  16.430  0.1101  0.2840 -0.0156
30499W        W73515  33.206  17.759  21.015  0.3589  0.0823  0.2353
30500W        W73516   7.727  12.114  22.660 -0.0546  0.1907  0.0327
30501W        W73517  27.182   2.866  18.747 -0.1505 -0.2528 -0.0644
30502W        W73518  31.406  29.059  22.572  0.3479  0.0032 -0.0201
30503W        W73519  28.111  22.061  15.628  0.1529 -0.2276  0.0740
30504W        W73520  33.658  30.583  27.991 -0.2112 -0.1677  0.0649
30505W        W73521   8.574   1.005  19.352 -0.3817 -0.1932 -0.1754
30506W        W73522  27.067  32.333  21.285  0.1386  0.0433 -0.1724
30507W        W73523  28.260   1.054  18.026  0.0856 -0.0956  0.2847
30508W        W73524   8.706   1.615  25.127  0.1539  0.3588 -0.0032
30509W        W73525  34.707  12.941  18.856  0.0210 -0.3676 -0.0205
30510W        W73526  20.211   2.682  21.386 -0.2217 -0.1109 -0.0259
30511W        W73527  27.902   8.959   0.454  0.1232  0.0012  0.0718
30512W        W73528   8.933  25.268  19.662 -0.1082  0.0586  0.3428
30513W        W73529   5.673  18.336  21.858  0.2545  0.3980  0.0373
30514W        W73530  17.679  33.714  19.427  0.0169 -0.2028 -0.2733
30515W        W73531  20.670   6.874  21.449 -0.0544 -0.2171  0.0455
30516W        W73532  19.301  25.934  26.838 -0.2809  0.1515  0.2050
30517W        W73533  33.368  27.745  27.759 -0.1830 -0.0723 -0.0518
30518W        W73534  32.225  28.432  19.137  0.0988  0.0895  0.1199
30519W        W73535  17.475  28.075  26.765 -0.1781  0.0268  0.0156
30520W        W73536  22.689  15.061  23.072  0.0706  0.1385 -0.1968
30521W        W73537  25.729   7.950  16.130 -0.0126  0.0591  0.3997
30522W        W73538   9.045  12.398  19.410  0.0998 -0.0650  0.0922
30523W        W73539  14.451   6.054  15.898  0.1482 -0.0162 -0.0543
30524W        W73540   1.319   9.615  19.662 -0.1420 -0.1274  0.0060
30525W        W73541  28.801   8.619  19.248 -0.2818 -0.0581 -0.2367
30526W        W73542  31.055  12.905  17.831  0.1429 -0.1458 -0.1101
30527W        W73543  32.810   8.405  14.670 -0.3282 -0.0523  0.1302
30528W        W73544   2.271  10.564  15.026  0.0429  0.0067 -0.1290
30529W        W73545   6.600  10.951  23.999  0.1608 -0.4536  0.1235
30530W        W73546   4.822   6.589   5.556  0.2190 -0.0416  0.1731
30531W        W73547   5.443  22.287   1.652 -0.1221 -0.0379 -0.4556
30532W        W73548  21.778  31.816  18.747  0.0352 -0.0552  0.0781
30533W        W73549  31.976  18.168  20.615 -0.1356  0.3395  0.0824
30534W        W73550   9.857  22.089   2.755 -0.1698 -0.1062 -0.2848
30535W        W73551   2.564  31.098  25.859 -0.2745 -0.0716  0.0718
30536W        W73552  30.402  11.983   1.722  0.1456 -0.2547 -0.0267
30537W        W73553   0.651   2.006  22.897 -0.2568 -0.0197 -0.0505
30538W        W73554  32.725  12.622   2.444 -0.0654  0.0189 -0.2335
30539W        W73555   0.265  14.031  19.895 -0.0854  0.2601  0.1990
30540W        W73556  30.640   1.337  21.908 -0.0619  0.0873 -0.1741
30541W        W73557  29.128  26.799  24.542  0.1113  0.2653  0.0740
30542W        W73558  16.593  23.525  28.740 -0.0762 -0.1821  0.1405
30543W        W73559  27.789   8.369  28.689 -0.2088 -0.1796 -0.1492
30544W        W73560  23.633   2.682  23.627 -0.0867 -0.2434  0.3877
30545W        W73561  26.228   0.372  19.401  0.2356  0.0136 -0.1358
30546W        W73562   5.460  15.123  18.439  0.0855  0.0639  0.0969
30547W        W73563  27.154   0.456  23.058  0.1667 -0.2318  0.1672
30548W        W73564   9.905  10.208  19.248 -0.3186  0.0620 -0.1434
30549W        W73565  29.309   2.533  26.284  0.0251 -0.0659 -0.0872
30550W        W73566  21.836  10.927  22.910  0.3300  0.0979  0.1107
30551W        W73567  29.987   1.755  18.489 -0.3611  0.1537  0.1072
30552W        W73568  27.492   5.106  24.360  0.2478  0.1277 -0.3316
30553W        W73569  15.146  30.985  23.655 -0.3024  0.1640  0.0733
30554W        W73570   0.813  10.809  20.887  0.0793 -0.0430 -0.2303
30555W        W73571  29.570   5.949  10.748  0.2877  0.0120  0.0998
30556W        W73572   0.734  21.693  18.291  0.1786  0.0787 -0.2411
30557W        W73573  33.817   2.316  17.322 -0.1958 -0.1193 -0.1507
30558W        W73574   2.730   6.393  18.582  0.0581  0.2362  0.1045
30559W        W73575  19.216  23.600  16.598  0.0006  0.1650 -0.2016
30560W        W73576  19.973   3.431  20.252  0.0109  0.1259  0.0222
30561W        W73577  32.793  34.012  20.639  0.1664 -0.2527 -0.0492
30562W        W73578   1.828  24.354   2.852 -0.2460  0.1149  0.1351
30563W        W73579  14.131   0.407  20.593  0.0204  0.3369 -0.0652
30564W        W73580  20.765   6.246  21.431  0.2277  0.0291 -0.0497
30565W        W73581  24.092  12.387  15.376  0.0551 -0.1009 -0.0966
30566W        W73582  30.876  26.820  22.102  0.3107 -0.0666  0.1141
30567W        W73583  25.509   1.235  23.141 -0.0401 -0.0106 -0.0145
30568W        W73584  10.935  14.194  18.165 -0.0051  0.0144 -0.1777
30569W        W73585  12.318   8.715  22.317  0.1067 -0.2577  0.0092
30570W        W73586   8.680  15.657  22.882  0.5080  0.0924  0.1147
30571W        W73587   1.646   2.953   3.937  0.0590  0.0998  0.0605
30572W        W73588  32.519  26.419  25.193  0.1593  0.1866 -0.2079
30573W        W73589  25.877  12.274  13.896  0.3009 -0.0600  0.1589
30574W        W73590  14.921  26.147  16.713  0.2349  0.0480  0.3431
30575W        W73591  20.827   7.284   0.249  0.0786  0.0278 -0.1643
30576W        W73592  26.381   5.144  18.220  0.0732 -0.0816 -0.1342
30577W        W73593   9.159  31.496  20.951  0.3545 -0.1732  0.0831
30578W        W73594  10.353   9.999  18.373  0.1970 -0.2676  0.2956
30579W        W73595   5.649  34.769  14.804 -0.2512 -0.1774 -0.1320
30580W        W73596  24.248   8.845  23.436  0.0983  0.1950  0.1232
30581W        W73597  32.163  16.441  18.876 -0.0076 -0.1653 -0.1493
30582W        W73598  33.784   7.041  17.319 -0.1394  0.0681  0.0055
30583W        W73599   5.929  11.972  19.756  0.1932 -0.3758  0.0084
30584W        W73600   5.339  16.938  14.700 -0.0495  0.0922  0.0061
30585W        W73601  25.841   8.819  18.986 -0.1752 -0.0225 -0.0471
30586W        W73602  20.390   6.654  15.508  0.0566 -0.0799  0.1436
30587W        W73603  34.641  17.142   7.453  0.0504  0.0746 -0.1656
30588W        W73604  31.408  11.047  15.658  0.1681  0.1319  0.2739
30589W        W73605  11.830  25.989  19.965 -0.1222  0.0315  0.0576
30590W        W73606  30.827  19.402  24.326  0.1373 -0.0253  0.1990
30591W        W73607  17.992  33.886  27.400  0.2496  0.0483  0.3558
30592W        W73608  26.082  29.069  26.545  0.3322 -0.1053 -0.2708
30593W        W73609   1.925   8.250  28.211  0.0768 -0.1078 -0.0371
30594W        W73610  24.866  33.693  15.018  0.3729 -0.1007 -0.0645
30595W        W73611   2.004  11.503  25.115 -0.0708  0.2257 -0.2642
30596W        W73612   7.651   6.661  23.941 -0.1262  0.0624 -0.1826
30597W        W73613   9.414   2.845  25.946  0.1275 -0.0797 -0.0661
30598W        W73614  23.904   9.275   1.682  0.2302 -0.0780  0.3111
30599W        W73615  18.992  19.734  13.272  0.2879  0.1156 -0.4661
30600W        W73616  29.412  27.696  17.405  0.0030 -0.0972  0.0817
30601W        W73617  12.432   8.715  24.597  0.0567  0.0334  0.0425
30602W        W73618   4.652  30.003  14.686 -0.1734  0.1166  0.3076
30603W        W73619  22.609   1.302  16.068  0.3354  0.4475 -0.1886
30604W        W73620   3.288  20.613  19.658  0.0358  0.0041 -0.3657
30605W        W73621  32.616  11.818  24.592  0.1102  0.1108 -0.0472
30606W        W73622  23.439   0.846  20.366 -0.1910 -0.2316  0.0677
30607W        W73623   7.018  11.004  15.655  0.3055  0.1437 -0.0057
30608W        W73624   1.458   8.491  17.223  0.3441  0.1492  0.1252
30609W        W73625  26.428  22.151  21.381 -0.5153  0.1873 -0.2007
30610W        W73626   8.442  12.218  26.391  0.0502  0.4720  0.0479
30611W        W73627  32.969   6.864  25.337  0.2868  0.0815 -0.1553
30612W        W73628  25.374   1.144  19.582 -0.2488  0.1678 -0.2475
30613W        W73629   0.186  32.912  21.845  0.0716  0.0502 -0.0850
30614W        W73630  16.395  26.233   0.804 -0.0052  0.0057  0.3280
30615W        W73631  14.312  33.063  16.007  0.0366 -0.0171 -0.3495
30616W        W73632  30.335   2.288   1.538  0.0947  0.1405 -0.0513
30617W        W73633   6.055  33.399  14.388  0.1219 -0.1881 -0.3288
30618W        W73634  34.413   5.505  18.568 -0.1806  0.2307  0.2175
30619W        W73635  29.566  14.634   0.388  0.1348 -0.0319  0.0280
30620W        W73636  12.655  11.492   2.083 -0.0531 -0.0254 -0.1104
30621W        W73637  17.868  11.226  23.637 -0.2588  0.0327  0.0064
30622W        W73638  17.442  19.251  15.348 -0.0051  0.0643 -0.0732
30623W        W73639   3.119  27.420  14.093 -0.0424  0.2084 -0.1921
30624W        W73640  31.776   1.634  17.757  0.3662 -0.1328  0.2853
30625W        W73641  26.384  23.870  24.123  0.1048 -0.3870 -0.0338
30626W        W73642  27.742   6.148  18.914 -0.2048 -0.2057 -0.1540
30627W        W73643  27.800  18.524  19.571  0.1186  0.1670  0.0278
30628W        W73644   3.073  10.457  15.845 -0.0932  0.1612  0.1335
30629W        W73645  21.479   6.176  20.233 -0.1323 -0.0297 -0.1470
30630W        W73646  30.540   3.292   7.474  0.0220 -0.3351 -0.0612
30631W        W73647  26.951  34.202  20.211 -0.4699  0.3614 -0.0536
30632W        W73648  31.519  30.437  10.464 -0.0091  0.1914 -0.1151
30633W        W73649   2.677   8.821  14.918 -0.0095 -0.1128  0.1597
30634W        W73650  14.985  31.587  25.015 -0.1157  0.4451  0.2081
30635W        W73651  18.988  13.116  28.046 -0.0436  0.0839 -0.0083
30636W        W73652  30.494  25.952   1.379 -0.0463  0.0338  0.2123
30637W        W73653  13.529  10.902  16.601  0.1492  0.1360  0.0075
30638W        W73654   1.817   5.059  19.010  0.0541  0.1962  0.1131
30639W        W73655   8.965   8.561  14.327 -0.1275  0.0064  0.0005
30640W        W73656  26.564  20.109   7.077  0.1165  0.2170 -0.0885
30641W        W73657  29.647  14.143  26.696 -0.1802 -0.2180  0.1072
30642W        W73658  32.930  33.142   2.306 -0.0455  0.1453  0.2592
30643W        W73659  28.918  14.955  17.742  0.0772 -0.0095 -0.0757
30644W        W73660   3.764   2.824  22.797  0.3449 -0.2495 -0.1035
30645W        W73661  31.455  32.100  19.547 -0.0880 -0.2410 -0.1586
30646W        W73662  30.263  25.422  16.702  0.1696 -0.0251  0.2010
30647W        W73663  33.088  14.921  25.653 -0.2078 -0.2932  0.2303
30648W        W73664   0.412   5.990  16.351 -0.0236 -0.1433  0.0400
30649W        W73665  26.341  26.191  18.583 -0.0926  0.0488  0.3129
30650W        W73666   1.747  28.556  26.752 -0.0273  0.1907 -0.0423
30651W        W73667  20.737  10.598   0.009  0.0226 -0.0436  0.1192
30652W        W73668  18.637   4.062  28.421  0.1359 -0.0323  0.0600
30653W        W73669  30.758  17.443  17.792  0.0481 -0.2589  0.0176
30654W        W73670  31.524  27.508  17.286 -0.1043 -0.1093 -0.0761
30655W        W73671  18.103  10.657   3.430 -0.3695 -0.0748  0.0118
30656W        W73672  32.857  32.008  20.048  0.0339  0.2912  0.0220
30657W        W73673   2.232   6.991   8.045 -0.2846 -0.6564  0.2896
30658W        W73674  21.388   8.415  27.160  0.0612  0.1401  0.0919
30659W        W73675  30.689   8.002   2.457 -0.0211  0.3459  0.0044
30660W        W73676  19.390   3.182  25.141 -0.0886 -0.2320 -0.1087
30661W        W73677  23.504  23.352  20.054 -0.0207  0.0126  0.2624
30662W        W73678  17.496   6.718  24.648 -0.2961  0.5377 -0.3531
30663W        W73679  19.785   8.383  23.482 -0.2751 -0.2972 -0.1022
30664W        W73680  29.835   3.152  24.368 -0.1380 -0.0229  0.1860
30665W        W73681   9.823   3.418  23.170  0.0208  0.0715  0.0812
30666W        W73682  19.591   0.199  14.090  0.1207  0.2463  0.2855
30667W        W73683  24.533  29.680  18.547 -0.1570 -0.0867  0.1290
30668W        W73684   8.886  17.694  14.160  0.0095 -0.0586 -0.1868
30669W        W73685  22.847  13.847  13.309  0.0269 -0.4530  0.2454
30670W        W73686   1.493  33.176  28.772 -0.1065 -0.0594  0.0938
30671W        W73687  25.228   6.699  23.266 -0.0695  0.1260 -0.3001
30672W        W73688   1.813   3.074  19.579  0.1324  0.4079 -0.2411
30673W        W73689  11.704  34.233   7.889 -0.2378  0.1664 -0.0353
30674W        W73690  16.843  29.402  24.272  0.2145  0.0383  0.0541
30675W        W73691  31.811   6.562  23.123 -0.0794 -0.0107  0.0009
30676W        W73692  17.907  18.668  11.532 -0.1441 -0.1014  0.1366
30677W        W73693  31.271  11.022   4.621 -0.2545 -0.2741  0.2799
30678W        W73694  29.804  26.287  19.583 -0.1566 -0.2757 -0.0830
30679W        W73695   9.485   6.169  24.337 -0.2858  0.1037  0.1711
30680W        W73696  33.754   2.765   0.773  0.0227  0.1529  0.1679
30681W        W73697  26.740   5.355  25.069  0.0596 -0.0932 -0.4895
30682W        W73698   1.249  27.411  25.466 -0.2876  0.2542  0.2937
30683W        W73699   0.050  29.719  24.869 -0.1908  0.0888 -0.2057
30684W        W73700  28.611  14.152  26.196  0.0909  0.0296 -0.1274
30685W        W73701   1.987  24.740  20.725 -0.1978  0.0174  0.2889
30686W        W73702  24.118   0.945  18.821 -0.5104 -0.0404  0.1513
30687W        W73703  26.692   6.726  27.747  0.1694  0.0638  0.2828
30688W        W73704  27.381  31.817  28.172  0.2167  0.0397 -0.0216
30689W        W73705  26.580   4.273   3.927 -0.1515 -0.0486  0.5162
30690W        W73706  14.559  26.585  19.397  0.1238 -0.0316 -0.0058
30691W        W73707   8.271   0.332  24.299  0.0962  0.0961 -0.0359
30692W        W73708  29.301  30.139  21.977 -0.2379 -0.0180  0.5839
30693W        W73709   3.695  31.968   1.158  0.0055 -0.1501 -0.0879
30694W        W73710  18.745  22.310  25.458 -0.2368  0.0357 -0.0293
30695W        W73711   9.445  17.283  17.917 -0.0755 -0.0548 -0.4389
30696W        W73712  26.409  22.081  16.215 -0.0812 -0.0118  0.3059
30697W        W73713   8.614  30.858  15.776 -0.0337  0.1542 -0.0338
30698W        W73714   2.431   1.578  18.109  0.0656 -0.1434 -0.1642
30699W        W73715  23.940  31.100  18.727 -0.1727 -0.0029  0.1372
30700W        W73716  13.131   3.649  21.025 -0.1916 -0.3171 -0.2109
30701W        W73717  29.671  30.464  23.258  0.0763  0.3377 -0.3384
30702W        W73718  25.198   4.241  17.759 -0.0299  0.3122 -0.1202
30703W        W73719  20.823  23.721   4.629  0.0237 -0.2856  0.1941
30704W        W73720  12.339  29.268  18.180 -0.0376 -0.1952 -0.0612
30705W        W73721  30.296   5.437  27.698  0.2906  0.0360 -0.0707
30706W        W73722   4.056   4.007  21.837 -0.2665  0.0417 -0.2165
30707W        W73723   8.467  25.038  24.349 -0.3293  0.1302 -0.2262
30708W        W73724  20.192   2.206  21.348 -0.0054 -0.2744  0.2108
30709W        W73725  25.365  30.711  19.926  0.0567 -0.1394 -0.3785
30710W        W73726  12.905   5.546  23.398  0.0961  0.1625  0.2455
30711W        W73727   5.088   6.259  23.663  0.2763  0.3122  0.0482
30712W        W73728  21.563  31.533  15.305  0.3117 -0.2890 -0.0673
30713W        W73729   1.868   1.166   1.040 -0.1683 -0.0500  0.1373
30714W        W73730  15.350  29.220  25.065  0.3366 -0.1941  0.0376
30715W        W73731  24.546  27.596  20.072 -0.1287 -0.3376 -0.1016
30716W        W73732  16.127  11.252  15.804  0.2170 -0.0047  0.0447
30717W        W73733  14.042  34.225   2.618 -0.1273 -0.1763  0.2562
30718W        W73734  23.984  15.097   5.989 -0.2055 -0.1170 -0.1116
30719W        W73735  22.584   5.167  21.450  0.1261 -0.5312 -0.0122
30720W        W73736  33.535   9.349   1.518 -0.1724 -0.2237  0.1629
30721W        W73737  30.934  11.535  25.816 -0.0921 -0.1701  0.5892
30722W        W73738  21.443  26.029  21.503 -0.0187 -0.0503  0.1639
30723W        W73739  27.474  33.606  18.817  0.0507 -0.1220 -0.0256
30724W        W73740  29.670   7.920  14.828  0.3171  0.3061  0.1582
30725W        W73741   2.334  23.921  16.697 -0.0676  0.0375  0.0998
30726W        W73742  23.115   2.792  14.924 -0.1879  0.0524 -0.0480
30727W        W73743  17.846  10.647  26.734 -0.0239  0.1176 -0.0913
30728W        W73744  27.300   3.779  21.672 -0.1186 -0.2451 -0.2724
30729W        W73745  30.622  27.193  25.537  0.2280 -0.2249 -0.0001
30730W        W73746   8.889  31.739   0.307  0.3122  0.1508 -0.1511
30731W        W73747  32.552  26.298  27.666 -0.0772  0.0733  0.1536
30732W        W73748   4.641   4.140  18.118  0.1350 -0.4216 -0.1503
30733W        W73749  24.275   6.340  16.433 -0.1325  0.1843 -0.2875
30734W        W73750   7.928  33.851  19.936 -0.0263 -0.1390  0.1123
30735W        W73751  31.348   2.438  16.617  0.0912  0.1709 -0.1409
30736W        W73752  27.381   0.203  25.363  0.0867 -0.0427 -0.2795
30737W        W73753  22.130   0.232  23.890  0.1197  0.1022  0.1512
30738W        W73754  24.373  34.452  23.040  0.0204  0.0270 -0.3254
30739W        W73755  31.428  28.637  18.802 -0.2198 -0.1628  0.3645
30740W        W73756  32.677   4.424  25.065 -0.0459 -0.0884  0.1053
30741W        W73757   0.902  26.047   1.985 -0.1755 -0.4540  0.0237
30742W        W73758  27.929  15.354  24.114  0.1875 -0.2380  0.1451
30743W        W73759  32.870   5.773  22.687 -0.2392  0.0725 -0.3193
30744W        W73760   1.103   0.914  24.334  0.2902 -0.0404 -0.1592
30745W        W73761  27.105  30.746  16.853 -0.0323  0.0416  0.4770
30746W        W73762   9.345  22.680  22.212 -0.0731  0.2191 -0.0297
30747W        W73763  22.144  28.095   3.321 -0.3294 -0.2193  0.0335
30748W        W73764   8.770   4.968  24.651  0.1170 -0.0015  0.2505
30749W        W73765   7.644   5.497   4.272  0.1732  0.1754  0.0018
30750W        W73766  10.751   4.148   5.725 -0.1615 -0.3161 -0.2948
30751W        W73767  28.114  30.011  27.437 -0.0275  0.0870  0.1203
30752W        W73768   0.343   7.700  19.432 -0.1420 -0.1372  0.0644
30753W        W73769   0.545   1.942  16.862 -0.1193 -0.0912 -0.1452
30754W        W73770  16.300   0.975  17.023  0.1527 -0.0178  0.0474
30755W        W73771   0.514  14.923  15.794 -0.0698 -0.0245 -0.3081
30756W        W73772  10.640   3.958  19.767 -0.0157  0.2916 -0.2068
30757W        W73773   9.555  31.225  27.421  0.1732 -0.0514 -0.0221
30758W        W73774   4.241   9.388  25.717 -0.2744  0.2005 -0.0237
30759W        W73775   4.855  11.153  19.570 -0.0348 -0.0058  0.3703
30760W        W73776  21.340  18.629  13.963 -0.1968 -0.2649  0.1994
30761W        W73777  26.980  31.964   2.782  0.1263  0.0683 -0.0811
30762W        W73778   2.983   1.972  19.545  0.0340 -0.0484  0.0550
30763W        W73779  14.392  30.043   5.945  0.0513  0.0823  0.1295
30764W        W73780   4.046  21.452  21.043 -0.0466 -0.0529  0.2353
30765W        W73781  13.582  18.777  25.378 -0.0108  0.2414 -0.0425
30766W        W73782  17.259   6.622  14.655 -0.1108 -0.1931  0.0362
30767W        W73783  29.028  18.889  22.732 -0.3117  0.1603  0.0399
30768W        W73784  20.367  33.692  19.174 -0.1337 -0.1383 -0.0241
30769W        W73785  32.380   7.818  14.598  0.3229 -0.1133  0.0787
30770W        W73786   5.548   1.391  22.681  0.1719  0.0757 -0.1339
30771W        W73787   5.407  23.862  22.157 -0.1536  0.0312  0.0288
30772W        W73788  15.646  24.213  21.987 -0.1841 -0.0465 -0.1172
30773W        W73789  29.373  10.463  19.562  0.1275  0.1714  0.4441
30774W        W73790  29.602   3.861   0.238 -0.1000 -0.1211 -0.0735
30775W        W73791  19.948  23.506  26.507  0.1830  0.0713 -0.0034
30776W        W73792  28.592   4.035  27.069  0.1340 -0.2061 -0.0019
30777W        W73793  25.296   0.648  25.361  0.0626 -0.2136 -0.0518
30778W        W73794  34.691  34.213  21.371  0.1723 -0.2034  0.5263
30779W        W73795  31.426   9.010  25.142 -0.2431  0.0273 -0.2947
30780W        W73796  19.131  22.861  13.251 -0.0771 -0.2093  0.0544
30781W        W73797   6.409  31.849  16.724  0.1459  0.3735  0.1107
30782W        W73798   3.968   5.604  19.108 -0.2437 -0.2877  0.1699
30783W        W73799  33.719   2.907   7.142  0.1175 -0.0018 -0.0905
30784W        W73800  18.193  12.644  15.457  0.0886 -0.0707 -0.1485
30785W        W73801   8.444  33.702  16.117 -0.2279  0.0425  0.4377
30786W        W73802  26.152   3.441  19.135 -0.1375 -0.0287  0.0681
30787W        W73803  25.759   2.146  28.222 -0.1825 -0.0759  0.0904
30788W        W73804  26.489  17.540  16.502 -0.3127  0.2476 -0.4756
30789W        W73805  34.377   1.212  15.534  0.1084 -0.0169  0.3267
30790W        W73806  24.505  20.086   6.966 -0.2371 -0.0294 -0.2149
30791W        W73807   9.919  26.184  14.744 -0.2596  0.1066 -0.0497
30792W        W73808  24.660   4.996   4.097 -0.0403  0.1564  0.0975
30793W        W73809  20.453  29.895  18.696 -0.1635  0.0313 -0.1349
30794W        W73810  31.063  33.432  27.654  0.2830 -0.3103 -0.0504
30795W        W73811  26.603  12.686  25.455  0.1379 -0.1046  0.0592
30796W        W73812  21.763   4.085  26.028 -0.0338 -0.0982  0.0147
30797W        W73813  24.525   1.463  20.597  0.1203 -0.0509  0.0115
30798W        W73814  31.773  27.673  16.850  0.1176 -0.3717  0.2443
30799W        W73815  10.801  25.771  23.259 -0.0298  0.0587  0.3300
30800W        W73816   5.500  27.667  21.886  0.3441  0.0542 -0.1817
30801W        W73817   3.517   7.326   8.922  0.3143  0.0391  0.0681
30802W        W73818  16.232  33.967   0.504  0.2254 -0.1713 -0.1757
30803W        W73819   1.854  33.596  20.875 -0.0493 -0.0926 -0.2134
30804W        W73820   8.024   5.818  20.222  0.1547  0.1294 -0.0081
30805W        W73821  30.819  22.877  18.201  0.0510  0.2334 -0.2872
30806W        W73822   0.514  22.851  23.196 -0.4994 -0.0248  0.4339
30807W        W73823  18.800   0.658   1.045  0.1269  0.3067  0.0280
30808W        W73824  30.501   2.490  20.768 -0.0888  0.2646 -0.1757
30809W        W73825   9.404  21.857  13.413 -0.2518 -0.1901  0.2104
30810W        W73826  24.623  27.288  20.552 -0.0958  0.0267  0.0632
30811W        W73827  18.117  27.969  27.130 -0.1359  0.2034  0.2738
30812W        W73828   3.088  29.459  18.126  0.0426  0.0933  0.2710
30813W        W73829  28.090   3.543   9.757 -0.0506 -0.0752  0.2080
30814W        W73830  10.421   1.481  20.378  0.0150 -0.1959 -0.0707
30815W        W73831   4.015   5.106  21.372  0.1594 -0.1261 -0.1132
30816W        W73832  13.164  12.100  12.966 -0.3034  0.1225  0.1394
30817W        W73833  30.424  25.909   0.676  0.1376 -0.1916 -0.1028
30818W        W73834   1.453   3.760  24.536  0.1591 -0.0827 -0.1792
30819W        W73835   3.895  23.119   0.108 -0.0719 -0.1656 -0.0839
30820W        W73836  26.197  27.884  17.459 -0.2501  0.0987 -0.1011
30821W        W73837  27.821  34.191  22.497 -0.1398  0.0053  0.1139
30822W        W73838  29.041  33.557  20.787 -0.1730  0.5583 -0.1570
30823W        W73839  31.977   2.670   9.613  0.0779 -0.0945  0.0796
30824W        W73840  27.178   0.725  22.481 -0.0684  0.1874  0.2254
30825W        W73841  15.887   9.519  19.617 -0.0277  0.0764 -0.0811
30826W        W73842  23.493   1.983  16.601  0.2905  0.0410  0.1658
30827W        W73843   1.266  33.817  15.720  0.0897  0.0304  0.0785
30828W        W73844  25.625   9.771  27.537 -0.3531  0.1256  0.1659
30829W        W73845  20.460  13.124  21.753 -0.0795 -0.3880 -0.3567
30830W        W73846   9.548  15.954   6.320  0.2136  0.1510  0.2976
30831W        W73847   6.796  33.969  19.977 -0.1026 -0.1275  0.1526
30832W        W73848  22.376   7.511  24.714  0.0287 -0.1673  0.2509
30833W        W73849   8.068  14.225  20.402  0.2852 -0.0862 -0.2360
30834W        W73850  26.997   2.015  24.537  0.0673 -0.0506  0.2278
30835W        W73851   7.107  24.580  20.625  0.2024  0.1632  0.0713
30836W        W73852  11.107  10.894  16.022  0.1423 -0.0981 -0.0415
30837W        W73853  30.094  18.676  20.710 -0.1899  0.2776 -0.0801
30838W        W73854  19.410   6.420   3.491  0.3091 -0.0084  0.2628
30839W        W73855  27.777  19.202  15.378 -0.2641 -0.1250 -0.0426
30840W        W73856  21.390  18.739  29.187 -0.0960 -0.0378  0.3264
30841W        W73857   4.619  17.025   6.178 -0.3374 -0.1828 -0.1467
30842W        W73858   0.813   3.603   1.567 -0.0751 -0.0402  0.3192
30843W        W73859   0.870   1.833  18.474  0.1012  0.1729  0.0729
30844W        W73860  19.015  25.589  13.243 -0.0849 -0.2078 -0.1859
30845W        W73861   1.254  31.419  18.950 -0.0269  0.3156 -0.2216
30846W        W73862   1.424   0.295  22.066 -0.2210 -0.2420  0.0032
30847W        W73863  34.500   0.621  26.999 -0.2104 -0.3285 -0.2421
30848W        W73864   4.310  25.345  19.476  0.1360 -0.2640  0.1366
30849W        W73865   9.981  18.369  18.687 -0.2019  0.0689  0.1496
30850W        W73866  21.588  11.025  13.220 -0.1860  0.6290  0.0574
30851W        W73867  27.980   6.817  22.578  0.2713  0.3892  0.0438
30852W        W73868  30.991  12.169  22.147 -0.1697 -0.0663 -0.0209
30853W        W73869   0.073   7.189  19.611  0.0364 -0.1439 -0.1922
30854W        W73870  27.533  32.224  19.192 -0.1345 -0.2078 -0.0222
30855W        W73871   4.317   8.009  26.099 -0.0745 -0.4545  0.0998
30856W        W73872  27.268   2.016  27.653  0.0652  0.0631 -0.1979
30857W        W73873   3.715  28.712  24.457  0.0676 -0.0743 -0.0445
30858W        W73874  31.193  24.239  18.377  0.1111  0.1750  0.4926
30859W        W73875  23.553  29.089  26.260 -0.0385 -0.2271  0.1552
30860W        W73876  26.639   5.571  17.815  0.1577  0.2914 -0.1293
30861W        W73877   7.472  25.346  16.423  0.0829  0.0409  0.0195
30862W        W73878   7.354  12.806  16.751 -0.0276 -0.0619 -0.0303
30863W        W73879  19.546  30.793  16.624  0.1881  0.4351  0.2040
30864W        W73880   1.188  12.420  16.689 -0.1400 -0.1963 -0.1102
30865W        W73881  27.279  32.540  21.865 -0.1024 -0.1999  0.3775
30866W        W73882  17.546  33.706  27.585  0.2060 -0.1185 -0.1190
30867W        W73883  23.885  29.174  19.351  0.1428 -0.1301  0.1055
30868W        W73884  34.589   5.732  25.030 -0.1248 -0.0921 -0.1372
30869W        W73885  31.312   1.663  23.074 -0.1696  0.0707 -0.7164
30870W        W73886  34.171  34.619  14.148 -0.2677  0.2273 -0.1765
30871W        W73887   2.468  32.064  24.989  0.0358  0.0894 -0.0526
30872W        W73888  16.019   0.684  20.135 -0.4254  0.1136  0.0031
30873W        W73889  25.204   1.759  27.744  0.1049 -0.2387  0.2905
30874W        W73890  17.113   6.618  18.364 -0.1754 -0.1438 -0.0634
30875W        W73891  34.704  28.908  17.947 -0.3426  0.3225  0.1971
30876W        W73892   3.894   8.143  18.142 -0.0581  0.0904  0.3115
30877W        W73893  20.778   7.477  14.444  0.1943 -0.0253 -0.1122
30878W        W73894  25.568  32.125  17.499 -0.3842 -0.1447  0.3685
30879W        W73895   0.874  24.655  22.846 -0.2200  0.2271 -0.2311
30880W        W73896  31.293   1.780  25.476 -0.2126 -0.0596 -0.1966
30881W        W73897   1.635  12.046  21.705 -0.2385  0.3468  0.1443
30882W        W73898  30.398  29.749  20.905 -0.1225  0.0909 -0.0416
30883W        W73899  25.158  32.575   2.346  0.0011 -0.0693 -0.2571
30884W        W73900  24.540  13.624  24.074  0.3710  0.0142  0.0940
30885W        W73901   1.412  12.386  19.799 -0.0467  0.0402  0.1953
30886W        W73902  29.696  28.090  20.164  0.0722 -0.4484 -0.3292
30887W        W73903   3.173   6.172   1.006  0.2411 -0.0762  0.1751
30888W        W73904  22.761  20.416  25.569 -0.2800  0.0998 -0.1783
30889W        W73905  17.791   9.094   2.444  0.1662  0.2557  0.1012
30890W        W73906  32.536  19.651  16.559  0.0706  0.0331  0.1068
30891W        W73907  22.012   3.034   1.977 -0.0656 -0.0703 -0.1134
30892W        W73908   8.388  17.358  18.836  0.0624 -0.2380  0.0064
30893W        W73909  30.976  30.268  19.656  0.0738  0.1391  0.0808
30894W        W73910  10.600  25.169   0.788  0.1543  0.0856 -0.0762
30895W        W73911   0.930  31.313  27.302 -0.2691  0.0170  0.2981
30896W        W73912  31.583  31.153   8.580  0.1617 -0.0488 -0.1077
30897W        W73913   8.632  15.960  17.404  0.1396 -0.0577  0.0123
30898W        W73914  21.127   6.630  27.395  0.1294  0.1043  0.3162
30899W        W73915  24.347   5.527  15.497 -0.2432 -0.0629  0.0829
30900W        W73916  26.391  27.102   3.255  0.0125 -0.1771  0.2752
30901W        W73917  31.111   3.574  23.191  0.2253  0.0474  0.2318
30902W        W73918   0.327   7.071  20.331 -0.1183  0.3657  0.0950
30903W        W73919  29.094  33.715  23.702 -0.2059 -0.2934 -0.1795
30904W        W73920  30.140   6.284  22.449  0.1068  0.1209  0.0121
30905W        W73921  20.914   2.629  24.904  0.2253  0.0226  0.0833
30906W        W73922  17.731  25.860  26.858  0.5268 -0.1198  0.1840
30907W        W73923  12.498  30.190  16.390 -0.0472 -0.1723  0.1913
30908W        W73924   7.174  27.920  26.570  0.0800  0.2859  0.1650
30909W        W73925  14.439  34.496  14.508  0.0240  0.0365 -0.0965
30910W        W73926  28.009  13.800  16.580  0.3006  0.0141 -0.0108
30911W        W73927  20.215   1.343  28.099 -0.0459 -0.3469  0.0043
30912W        W73928  25.162   6.639  24.836  0.2402  0.0174 -0.0755
30913W        W73929   5.745   7.685  20.961  0.0812  0.1386  0.3334
30914W        W73930  16.147   5.038  15.494 -0.0929  0.2936 -0.2985
30915W        W73931  23.016  26.798   3.704 -0.1676 -0.0758  0.0094
30916W        W73932  25.009  11.759  18.918  0.0205 -0.0138  0.1461
30917W        W73933  22.336  26.010  17.261 -0.0830  0.0861  0.1108
30918W        W73934  26.360   8.450  20.744  0.2988 -0.1649  0.0285
30919W        W73935  24.563   4.293  25.931  0.1684  0.0945 -0.2410
30920W        W73936  21.816  11.399  25.632 -0.2941  0.1327 -0.0159
30921W        W73937  23.539   8.327  20.761 -0.0080  0.1721  0.0900
30922W        W73938  27.228  11.677  24.141 -0.3216  0.1254  0.1032
30923W        W73939  30.555  12.827  21.045  0.0592  0.0752 -0.0076
30924W        W73940  20.927   6.408  17.623  0.2894 -0.0073  0.0053
30925W        W73941  23.416   1.269  15.006 -0.0881 -0.1747  0.1701
30926W        W73942  20.209   3.638   3.435  0.0189 -0.2909 -0.1196
30927W        W73943  21.585  32.740   7.470  0.3686 -0.0968  0.0681
30928W        W73944  10.279   3.426  20.408  0.0651  0.0730 -0.3151
30929W        W73945  19.835  30.371   5.071 -0.1542 -0.0916 -0.0520
30930W        W73946  25.571  11.692  16.161 -0.2293  0.1526 -0.0681
30931W        W73947   2.244   7.076  19.212  0.0814 -0.0535 -0.0935
30932W        W73948  27.556  19.924  20.024 -0.0972  0.1083  0.2753
30933W        W73949  26.118  16.261  23.818  0.0124 -0.2174 -0.0197
30934W        W73950  14.643  31.933  15.587  0.0771 -0.3525  0.0051
30935W        W73951  12.109  33.441   8.783 -0.3040  0.0093 -0.2081
30936W        W73952  24.427   8.172  22.178  0.1491  0.0464  0.3483
30937W        W73953  24.018   3.145  18.576  0.0813 -0.0031 -0.2775
30938W        W73954   0.304   3.006  17.800  0.1057  0.0180  0.0880
30939W        W73955  24.683  14.547  16.863 -0.2651 -0.3702  0.0751
30940W        W73956  28.271  32.412  16.350  0.0015  0.1709 -0.2770
30941W        W73957  33.649   5.586  21.023  0.0104  0.0295  0.0891
30942W        W73958  16.639   6.508  14.301  0.3365 -0.0924  0.4029
30943W        W73959  29.202  31.209  24.214  0.0339  0.1034  0.4692
30944W        W73960  11.165   3.274  15.772 -0.0726  0.0662  0.1028
30945W        W73961   9.960  12.477  15.046  0.0453 -0.0098 -0.1300
30946W        W73962  34.103  13.365  23.130 -0.1046 -0.2672 -0.0068
30947W        W73963  23.221  28.605  22.999 -0.0438  0.0913 -0.0673
30948W        W73964  32.648   6.605  15.312  0.0973 -0.1078 -0.1057
30949W        W73965  25.885   6.595  27.721 -0.1933 -0.2405 -0.2234
30950W        W73966  22.831  18.668  12.866  0.2702 -0.1451 -0.1193
30951W        W73967  30.520  33.491  26.338  0.3980 -0.3371 -0.0078
30952W        W73968  12.571  11.840  17.234  0.1791  0.1106  0.2715
30953W        W73969  27.034  24.010   1.217  0.2440 -0.2737 -0.2151
30954W        W73970   9.337   5.775  17.719 -0.1602 -0.1925  0.3529
30955W        W73971   2.064  26.977   0.756  0.2649  0.1709  0.1674
30956W        W73972   1.602  32.428  15.577 -0.2652  0.3466  0.2034
30957W        W73973   1.054   7.902  21.487  0.1281  0.1718 -0.2043
30958W        W73974  15.763  27.394   1.130  0.1918 -0.1154 -0.1352
30959W        W73975   4.863  32.801   6.879  0.0047  0.0905 -0.1342
30960W        W73976  26.118  28.005  16.394 -0.0180  0.2684  0.1146
30961W        W73977   9.360  33.865  19.620 -0.0213  0.0414  0.2695
30962W        W73978   6.868  33.343  21.560  0.0665  0.1970 -0.3496
30963W        W73979  31.688  32.754   2.373  0.3610 -0.2831 -0.0773
30964W        W73980  27.322   8.488  28.593  0.1592 -0.2475 -0.0584
30965W        W73981  27.785  32.698  18.506 -0.2965  0.0775 -0.0919
30966W        W73982   7.838   9.587   8.010  0.0755  0.0750 -0.1722
30967W        W73983  13.774  33.502  20.204 -0.0142 -0.1280 -0.0386
30968W        W73984  16.793   1.204  25.167  0.0293 -0.1321  0.1899
30969W        W73985  12.284   9.705  27.264  0.1378 -0.0586  0.0460
30970W        W73986  22.833   9.773  14.765 -0.1949  0.1599  0.2010
30971W        W73987   4.229  12.675  23.652 -0.2899 -0.2064  0.2692
30972W        W73988  21.833  32.604   5.254 -0.1519  0.1537 -0.2670
30973W        W73989   2.324  13.294  14.955  0.2970  0.1993  0.1403
30974W        W73990   5.532  18.294  18.632 -0.1180  0.0896  0.2355
30975W        W73991  24.114   5.101  18.347  0.0293  0.1459  0.1066
30976W        W73992  22.882   6.188  26.960  0.2770  0.0491  0.0547
30977W        W73993  29.438  27.905  18.002 -0.1336 -0.1365 -0.3897
30978W        W73994   2.358   4.282  14.786 -0.3011 -0.0762 -0.0556
30979W        W73995   2.690   3.468  24.619 -0.2220  0.0678 -0.1592
30980W        W73996  19.927   3.072   0.226  0.1686  0.1129 -0.2421
30981W        W73997  22.574  28.812  22.358  0.0371 -0.1356  0.2065
30982W        W73998  32.209  28.540   1.632 -0.2481  0.1328  0.0743
30983W        W73999  31.881  12.341  26.474 -0.0360 -0.4756  0.0606
30984W        W74000  16.127   5.604  19.429  0.2216  0.1578 -0.0020
30985W        W74001  23.749  13.754  22.617  0.0643  0.0564  0.4103
30986W        W74002  22.732  28.957   3.787  0.0224 -0.3302  0.1562
30987W        W74003  27.847   6.430  17.442 -0.2691  0.0637 -0.0859
30988W        W74004   6.690   9.838  15.929  0.1055 -0.1669 -0.1672
30989W        W74005  32.858  27.713  17.116 -0.1026  0.0481  0.0999
30990W        W74006  28.826  23.175  23.551  0.0972 -0.4073  0.2409
30991W        W74007  33.462   7.611  15.810 -0.1839  0.1591  0.1070
30992W        W74008  20.654  31.061   1.305 -0.3029 -0.2084 -0.0243
30993W        W74009   3.941   8.514  22.639 -0.0126 -0.1762 -0.0559
30994W        W74010   2.663   6.497  24.399 -0.0478  0.1354  0.1031
30995W        W74011   4.385  26.467  24.776  0.0216  0.2359  0.1998
30996W        W74012  22.901   5.336  14.788  0.0729  0.0445  0.1083
30997W        W74013  22.288  19.956   2.351  0.1049 -0.2398  0.2436
30998W        W74014  31.205  31.159   9.401 -0.0416 -0.3972 -0.1536
30999W        W74015  33.577  28.114  16.783  0.2714  0.0146  0.0362
31000W        W74016  29.766  33.380  27.669 -0.1722  0.3190  0.0036
31001W        W74017  34.079  34.307   2.151 -0.0785  0.0537 -0.2508
31002W        W74018  31.537  12.090  28.367 -0.1574 -0.0354 -0.0648
31003W        W74019  27.950   0.530  24.660  0.2157 -0.1654 -0.2735
31004W        W74020  17.823  25.557  19.392  0.1313 -0.0068  0.0861
31005W        W74021   6.154  13.172  19.755  0.1548 -0.1573  0.2628
31006W        W74022  18.234   5.622   7.872 -0.2656 -0.3203  0.2999
31007W        W74023   0.795   7.631  22.529  0.2231 -0.1551  0.0478
31008W        W74024  26.858   1.383  25.496 -0.0367  0.5018 -0.1740
31009W        W74025  29.177  34.495   3.861 -0.1058 -0.2135  0.1432
31010W        W74026  34.579   5.916  14.265 -0.1333  0.0355  0.1321
31011W        W74027   4.469  14.278  22.567 -0.1320 -0.1347  0.0543
31012W        W74028  19.051   0.694  14.148 -0.0934 -0.0210 -0.0089
31013W        W74029   8.354   7.958  22.804  0.1756 -0.0247 -0.3577
31014W        W74030  31.729  33.034  27.432 -0.1469 -0.0092  0.0186
31015W        W74031  31.812   4.939  19.931  0.1239 -0.0323 -0.2431
31016W        W74032  21.970   5.172  14.540 -0.1170 -0.3371 -0.0610
31017W        W74033  17.330  34.729  17.771 -0.1659  0.2087  0.4334
31018W        W74034   7.422  31.088  25.226  0.1691 -0.2257 -0.0478
31019W        W74035  27.067  29.588  20.073  0.1247  0.2206  0.0757
31020W        W74036  22.622  14.673  14.821  0.2643 -0.2112 -0.0573
31021W        W74037  26.006  28.753  25.607 -0.0322 -0.2292  0.1518
31022W        W74038  27.724  32.539   6.675 -0.1360  0.0035  0.2248
31023W        W74039  33.531   0.714  14.151  0.0820  0.3704  0.1718
31024W        W74040  25.202  26.566  24.627 -0.0049  0.4055 -0.0724
31025W        W74041   1.683  29.152  16.121  0.2823 -0.0551  0.3067
31026W        W74042   6.473   4.778  10.132  0.2482  0.2962  0.2825
31027W        W74043  28.159  12.031  26.526  0.1651 -0.0415  0.0448
31028W        W74044  26.019   4.843   3.247  0.1782 -0.2525 -0.1758
31029W        W74045  11.099  33.034  15.225  0.0878 -0.2129  0.1056
31030W        W74046  31.152  27.863  29.003  0.0231  0.1454 -0.0765
31031W        W74047  33.517  32.289   5.367  0.2279 -0.1931  0.1331
31032W        W74048  17.965  27.957  23.764 -0.3114 -0.1058 -0.4058
31033W        W74049  19.392   8.967  24.138  0.3326  0.3798 -0.2155
31034W        W74050  32.472  15.946   7.036  0.0266  0.1305 -0.0957
31035W        W74051  24.402  34.030  28.116  0.1521 -0.1891  0.0970
31036W        W74052  14.103  23.452  24.087  0.0204 -0.4971  0.3563
31037W        W74053   1.422  24.218  14.508  0.0245 -0.2439 -0.1517
31038W        W74054  26.621  29.727   4.455 -0.2931  0.1792  0.2850
31039W        W74055   4.866   0.526  18.824 -0.5194  0.2421  0.0860
31040W        W74056   0.998   8.477  28.202 -0.1826 -0.2186 -0.2877
31041W        W74057  32.112  20.271  17.063 -0.1905  0.0685  0.1949
31042W        W74058  29.605   0.888   3.744  0.3469  0.1569 -0.4373
31043W        W74059  22.328  21.716  25.348 -0.2153  0.0582 -0.2234
31044W        W74060  32.247  23.700  20.945  0.1210 -0.0637 -0.0178
31045W        W74061  20.106   2.141  20.751 -0.0708  0.2910  0.0540
31046W        W74062  34.537  25.222  24.996 -0.0223 -0.0156  0.2598
31047W        W74063   0.696   8.868   5.556 -0.1889 -0.0483 -0.1550
31048W        W74064   9.721  28.390  18.356  0.1466  0.4047 -0.4078
31049W        W74065  27.949  15.504  19.292 -0.2787  0.2383  0.1953
31050W        W74066  12.825   2.449  24.877  0.2157 -0.1478  0.0214
31051W        W74067  22.414   8.698  17.152 -0.1163 -0.1503  0.1650
31052W        W74068  26.619  31.425   5.862  0.2393 -0.0786  0.0420
31053W        W74069  26.526  24.830  26.116 -0.1223 -0.2041  0.1744
31054W        W74070  24.987   5.030  19.381 -0.1780 -0.2242  0.1052
31055W        W74071   4.388  29.720   1.310  0.1023 -0.0086 -0.1572
31056W        W74072   6.650   0.757  17.541  0.2224  0.0663 -0.3922
31057W        W74073  29.193  15.882  26.911 -0.2333 -0.5065  0.1870
31058W        W74074   0.578  34.538  22.700 -0.3240 -0.0325 -0.1789
31059W        W74075  27.836  13.877  27.558  0.2958  0.2479  0.2991
31060W        W74076  12.589  28.888   9.765  0.2843 -0.1403 -0.2547
31061W        W74077  27.542  14.050  15.067  0.4193 -0.4599  0.0576
31062W        W74078   4.854   1.149  16.600 -0.2472  0.0758 -0.1326
31063W        W74079   7.659  12.044   1.434 -0.0928  0.3127  0.2740
31064W        W74080   1.569   9.731  18.783 -0.1129  0.0614 -0.0473
31065W        W74081  17.233   4.933  22.797 -0.2225  0.0253  0.0242
31066W        W74082  28.191   6.326   7.985  0.0560 -0.0279  0.1039
31067W        W74083   8.957   7.959   3.689 -0.4893 -0.0558  0.2519
31068W        W74084  21.523  26.602  10.504  0.0083  0.1419 -0.1152
31069W        W74085   8.072  10.255  19.131 -0.0170  0.0893 -0.0062
31070W        W74086  33.961  29.114   9.361  0.2542 -0.3161 -0.3870
31071W        W74087   1.903  23.331   2.167 -0.1564  0.1307  0.0027
31072W        W74088   5.515  27.277  19.440 -0.1110 -0.1484 -0.1871
31073W        W74089   1.566  20.154  21.413 -0.1213 -0.0758 -0.0670
31074W        W74090   5.311  26.017   9.487 -0.1443 -0.1308  0.3458
31075W        W74091  31.652  32.513  21.803 -0.2071 -0.1384 -0.5416
31076W        W74092   0.430  28.473  28.637  0.5425  0.1257  0.0791
31077W        W74093  26.987   0.160  26.373 -0.0134  0.0808 -0.1158
31078W        W74094  34.667   1.334   1.897 -0.0920 -0.0353 -0.2318
31079W        W74095  28.448  19.775  21.294 -0.1080 -0.1213  0.1080
31080W        W74096   1.708  22.318  24.189 -0.0200  0.2583  0.3799
31081W        W74097   8.804   6.416   1.253 -0.2661  0.0854  0.2536
31082W        W74098  24.664  25.544   5.174  0.0501 -0.0583  0.2130
31083W        W74099   3.813  14.882  24.392 -0.2375 -0.3765 -0.3289
31084W        W74100  28.206  25.579   0.132  0.0605  0.0692 -0.2255
31085W        W74101   0.532  30.307   6.904  0.0336  0.2379 -0.2476
31086W        W74102  21.390   5.335  25.657 -0.2262  0.1881  0.1244
31087W        W74103   4.330   7.477  17.274  0.3226  0.1167  0.0635
31088W        W74104   5.472  19.619  25.278 -0.1610 -0.0780 -0.0545
31089W        W74105   1.864   2.810  21.104  0.1054 -0.1333  0.0427
31090W        W74106  34.770  34.418   6.236 -0.2102  0.1721 -0.1172
31091W        W74107   2.049  15.786  18.869  0.0320 -0.0166 -0.2975
31092W        W74108  33.872  12.518   5.714  0.1513  0.0029 -0.0621
31093W        W74109  28.432  20.794  19.111 -0.0535 -0.2162  0.0759
31094W        W74110  11.968  16.233  20.164  0.0209  0.2430  0.0231
31095W        W74111  11.945  15.327  19.832  0.1563  0.1745  0.4645
31096W        W74112  21.880   7.987  20.365  0.2024 -0.2521 -0.0823
31097W        W74113   6.857  29.812   3.384  0.0089 -0.0301  0.6719
31098W        W74114   7.549   2.135  23.481  0.0092  0.1565 -0.0685
31099W        W74115  33.362  33.767   5.007  0.2925  0.0506  0.0310
31100W        W74116  19.360  32.356  15.914 -0.0458  0.1873  0.1354
31101W        W74117  20.209  18.776   5.645 -0.1838 -0.0570  0.2154
31102W        W74118  22.679  33.383  29.095  0.1038 -0.0730  0.2053
31103W        W74119  28.519   3.517  23.090  0.0993  0.2190  0.0686
31104W        W74120  32.416   6.161   6.818  0.1617 -0.0141  0.1100
31105W        W74121  28.062   8.967   2.882 -0.1042 -0.0638  0.0813
31106W        W74122  32.627  22.814   2.669  0.3020  0.0290 -0.1762
31107W        W74123   7.047   2.962   1.255  0.1875 -0.0481  0.0914
31108W        W74124   4.949   3.397  26.320  0.1779  0.0715 -0.1358
31109W        W74125   8.787   3.642  24.614  0.3753  0.3332  0.2632
31110W        W74126   0.668   2.453   3.878  0.1003 -0.2989  0.3614
31111W        W74127   2.940  12.944  25.376 -0.0117  0.1525 -0.3166
31112W        W74128  26.385  31.998   6.477 -0.3092 -0.2856 -0.2358
31113W        W74129  15.229   0.084   4.342  0.0767 -0.1698  0.4251
31114W        W74130   8.682  25.179   2.509 -0.1951  0.0824 -0.1076
31115W        W74131  14.439  23.707   8.513 -0.1276  0.2228  0.1125
31116W        W74132   2.223  30.369  23.295  0.2148  0.4523  0.1167
31117W        W74133  19.808   7.674   1.371  0.1653 -0.2138  0.2335
31118W        W74134   5.022  30.080  19.818  0.2317 -0.1672 -0.1521
31119W        W74135  10.662   1.001   6.202 -0.2750 -0.1613 -0.1834
31120W        W74136  25.160  34.003   8.757  0.1605  0.0160 -0.0965
31121W        W74137   0.992   5.287  24.891  0.1367 -0.0434 -0.2178
31122W        W74138   3.588  28.127   3.193 -0.1014 -0.1663 -0.1988
31123W        W74139   3.160  21.639  13.378 -0.1412  0.2777 -0.0226
31124W        W74140   9.365   6.375   3.916 -0.1260 -0.3836 -0.0378
31125W        W74141   0.811  33.505  17.359  0.4105  0.2453 -0.0344
31126W        W74142   9.131   2.948  27.676  0.0251 -0.2549  0.2325
31127W        W74143   2.106   6.943  27.587  0.2542  0.1645  0.1572
31128W        W74144  19.235  31.345   2.518  0.1578 -0.1699 -0.0702
31129W        W74145  32.985  25.180  16.189 -0.1071 -0.1374 -0.2870
31130W        W74146  25.790   7.033  17.958  0.3019  0.0718 -0.0807
31131W        W74147  29.941   3.258  23.418 -0.3073  0.0814 -0.1590
31132W        W74148   9.863   0.988   2.085  0.0656 -0.0031 -0.2809
31133W        W74149  29.177   1.840  16.464  0.3782  0.3716  0.0058
31134W        W74150  24.487   0.596  23.922  0.2136  0.0381 -0.2548
31135W        W74151  32.608   3.567  23.943  0.3244  0.0354 -0.3440
31136W        W74152  23.465   8.748  16.676 -0.0811 -0.0292 -0.1000
31137W        W74153  28.367   0.428  15.397 -0.3365 -0.0953  0.1181
31138W        W74154   3.932  30.161  16.436 -0.2018 -0.0778  0.3304
31139W        W74155  25.879  32.121  18.673  0.1717 -0.0160 -0.0458
31140W        W74156  10.369   2.834   3.423  0.0498  0.2278 -0.0601
31141W        W74157  25.586   6.037   4.123 -0.2431 -0.1293  0.3299
31142W        W74158   6.536   5.560  23.666 -0.0767  0.0905  0.4224
31143W        W74159  22.653  10.290  18.755 -0.0074 -0.2754 -0.0009
31144W        W74160   1.030   3.967  24.462  0.1536  0.0699 -0.1433
31145W        W74161  30.774   2.507   2.811 -0.0352 -0.3149 -0.0693
31146W        W74162  20.000  33.523   6.440 -0.0739  0.0638  0.1028
31147W        W74163  30.966   5.975  14.932 -0.0695  0.5584  0.1511
31148W        W74164  27.465  10.235  18.394  0.1071  0.0581  0.3773
31149W        W74165   0.953  25.964  28.296  0.0279 -0.1694 -0.0347
31150W        W74166  30.616  32.958   1.410  0.1096 -0.1531 -0.0739
31151W        W74167   2.603  13.247  28.229 -0.2218 -0.3577  0.0706
31152W        W74168  28.528  10.457   2.102 -0.0693 -0.2763  0.0231
31153W        W74169  29.337   7.810  20.924  0.0069  0.1230  0.2410
31154W        W74170  27.666  31.921  22.333 -0.1160 -0.2947  0.0912
31155W        W74171  31.221  10.735  22.735 -0.0183  0.0634  0.0998
31156W        W74172   1.953  33.909  19.766 -0.2732  0.1186  0.2496
31157W        W74173  25.599   0.225  20.637  0.0302  0.0816 -0.0980
31158W        W74174  27.044   3.005   5.673  0.1370 -0.1805  0.1320
31159W        W74175   5.190   6.104   0.168  0.2640  0.0952 -0.1622
31160W        W74176   0.915  31.071  23.380  0.1373 -0.1240 -0.2622
31161W        W74177  30.209   0.430  22.639  0.2230 -0.3193 -0.1059
31162W        W74178  26.614   4.071   6.497 -0.3363  0.0702 -0.0968
31163W        W74179  25.721   1.235  16.790 -0.2458 -0.0453  0.1980
31164W        W74180  22.302  30.776  27.740  0.1923 -0.2017 -0.0286
31165W        W74181   1.156  12.842  17.136 -0.1438  0.3642  0.1961
31166W        W74182  18.577   9.722  23.045  0.0801 -0.1550  0.0951
31167W        W74183   0.940  29.252   5.961 -0.2169  0.0946  0.2707
31168W        W74184   3.301   6.415  17.827 -0.2488  0.3595 -0.0344
31169W        W74185  26.584   4.944  11.346 -0.2428 -0.0391 -0.1223
31170W        W74186   2.216  33.070  26.800 -0.0441  0.0246 -0.0909
31171W        W74187   4.663  11.622  16.207  0.0440 -0.2066 -0.4722
31172W        W74188  24.645   5.932   6.118 -0.1956  0.2813 -0.1362
31173W        W74189  24.363  27.618  16.635  0.1260 -0.2371  0.2636
31174W        W74190  30.912  22.421  27.862 -0.1398  0.3494  0.0852
31175W        W74191   0.070  31.716  26.635  0.2150 -0.0031 -0.1238
31176W        W74192  29.034  27.752  19.530  0.2023 -0.1116  0.2283
31177W        W74193   5.163  27.496  16.185  0.1032  0.1762  0.2336
31178W        W74194   6.889   5.639  17.791  0.0363 -0.1221 -0.0597
31179W        W74195  31.682  33.207   4.787  0.0932  0.1233 -0.1983
31180W        W74196   3.374  14.257   4.608 -0.1044 -0.0990 -0.0146
31181W        W74197  26.796  32.838  20.675 -0.1312  0.0182  0.2204
31182W        W74198   0.974  15.102  15.626  0.0884  0.2623  0.0148
31183W        W74199  28.036  10.841  27.172 -0.2296 -0.2831 -0.1476
31184W        W74200   5.333   3.505   2.337 -0.2103  0.0732 -0.1360
31185W        W74201  24.236   3.553  25.312 -0.0777  0.1061  0.2507
31186W        W74202  33.561  30.873  17.870 -0.2408  0.0318  0.1980
31187W        W74203  29.417  27.105   5.631  0.1454 -0.1179 -0.3036
31188W        W74204  14.066  30.617  15.898 -0.0995  0.3405 -0.0393
31189W        W74205  30.439  30.078  19.566 -0.0797  0.2251 -0.0752
31190W        W74206  23.986  27.176  15.465  0.0340  0.1074 -0.0137
31191W        W74207   8.284  29.111  10.097 -0.1293  0.0541  0.3063
31192W        W74208  26.707  28.881   9.569 -0.3760  0.0655 -0.3042
31193W        W74209  21.034   6.903  22.309 -0.1073 -0.2477 -0.2362
31194W        W74210  26.933   8.784  10.766 -0.2619 -0.3030  0.0453
31195W        W74211   3.542  29.650  26.628  0.0454  0.1017  0.1723
31196W        W74212  21.784   8.918  29.064  0.4025  0.1627 -0.0059
31197W        W74213  28.239  30.236  18.210 -0.1036 -0.4332  0.0159
31198W        W74214   2.587   6.914   3.319  0.0252  0.1335 -0.0948
31199W        W74215  25.848  25.562  26.049  0.0581  0.0458  0.0893
31200W        W74216  19.136  23.815   0.435 -0.0161  0.0198 -0.0729
31201W        W74217  26.964  33.639  26.945  0.0721 -0.1676  0.0227
31202W        W74218  18.977   4.047   9.338 -0.1886  0.0179 -0.1234
31203W        W74219  25.728  13.247  16.424  0.0320  0.0090 -0.0771
31204W        W74220   6.675  25.778  19.191 -0.0539 -0.4160  0.2240
31205W        W74221  22.944  28.660   4.110 -0.0671 -0.1296 -0.1739
31206W        W74222  28.859  29.510  17.692 -0.2995 -0.0041 -0.0933
31207W        W74223  18.036  33.054  19.183 -0.0368 -0.0724  0.0489
31208W        W74224  25.297  29.797   4.626 -0.0887 -0.0431 -0.3099
31209W        W74225  28.174   0.244   6.091  0.0104  0.0099  0.2885
31210W        W74226   9.461  10.140  16.512 -0.2695  0.2490 -0.3421
31211W        W74227  13.483  13.806  23.150 -0.0256 -0.3430  0.0228
31212W        W74228   4.911   2.377   0.865 -0.1410 -0.0468  0.0135
31213W        W74229  16.029   6.157  13.506 -0.1253  0.2642  0.3127
31214W        W74230  11.360   6.628  13.963  0.1447 -0.1407 -0.0389
31215W        W74231  19.989   5.752   6.894  0.0849  0.0849 -0.0062
31216W        W74232   2.978   0.988  26.084 -0.0628 -0.2425  0.1147
31217W        W74233   5.172  33.343   2.360  0.2703  0.0001  0.3276
31218W        W74234  23.638   3.961  23.554  0.1194  0.0002  0.0781
31219W        W74235  27.915  25.073   1.806  0.0411  0.3559 -0.0168
31220W        W74236   9.388   2.647   0.641  0.1959 -0.0768 -0.2712
31221W        W74237  27.806  25.835   9.255 -0.2237  0.1779 -0.0941
31222W        W74238  20.331   1.701  21.512 -0.0191  0.1423 -0.0216
31223W        W74239  32.026  24.778  18.133  0.0419 -0.1466 -0.0321
31224W        W74240  26.688  22.025  24.307  0.0757  0.0236 -0.1571
31225W        W74241  30.159  12.702  17.055  0.1817 -0.0202  0.0306
31226W        W74242  25.422  26.716   0.343 -0.1438  0.0265  0.2986
31227W        W74243  26.262  26.237  25.437 -0.0014  0.1823 -0.1609
31228W        W74244  14.259   9.474   1.927  0.0643 -0.0510 -0.0308
31229W        W74245   8.730  31.192   8.865 -0.5210 -0.1405 -0.1557
31230W        W74246  28.383   4.068   6.943 -0.1005  0.0617  0.2439
31231W        W74247  30.789   6.773  23.434 -0.2457 -0.0948 -0.3819
31232W        W74248  29.919   8.753  17.393 -0.2239  0.2889 -0.1194
31233W        W74249  26.157   8.009  23.105 -0.1477  0.1889  0.0111
31234W        W74250  30.071   6.018  20.381 -0.3656  0.2174 -0.0935
31235W        W74251   3.640  24.151  16.790 -0.0522 -0.1950 -0.4746
31236W        W74252   5.666   4.896  16.845 -0.0642 -0.0761 -0.0690
31237W        W74253  27.114  33.528  26.309 -0.3091 -0.0706  0.4294
31238W        W74254  34.201  25.970   5.439  0.0400  0.1405  0.0515
31239W        W74255   1.144   4.764  14.270  0.1628  0.0990  0.4134
31240W        W74256   3.820  34.159   5.055 -0.0440 -0.1745  0.1733
31241W        W74257  28.790  11.481   1.248  0.0582 -0.2575  0.0154
31242W        W74258  30.956   2.332  24.140 -0.2405 -0.0639 -0.0869
31243W        W74259  13.377   7.369   0.457  0.2490 -0.1122 -0.0358
31244W        W74260  19.016  12.933  12.805 -0.2204  0.2041 -0.1020
31245W        W74261  29.830  26.038  17.922  0.2136 -0.0876 -0.0158
31246W        W74262  34.245  32.286  19.558 -0.0441  0.0612  0.1298
31247W        W74263  29.350  32.178  26.238  0.2854 -0.0832  0.1749
31248W        W74264  16.489  32.301  29.155 -0.2226  0.4279  0.2921
31249W        W74265  34.431  26.377  17.614  0.1904  0.1463  0.1526
31250W        W74266  28.123  14.256  17.405  0.0704 -0.0671 -0.0323
31251W        W74267  29.820  19.540  27.550 -0.1841 -0.0649  0.0662
31252W        W74268  22.386  12.823  28.477  0.6063  0.0778  0.0029
31253W        W74269  28.578  34.515   3.952 -0.0059 -0.2089 -0.2429
31254W        W74270  28.322   8.281  25.107  0.3408 -0.0980 -0.0975
31255W        W74271  23.140  10.239  18.901 -0.0373  0.0511  0.1287
31256W        W74272   4.948   0.631   5.024  0.1688 -0.0495  0.0991
31257W        W74273   7.836  28.152   1.842  0.0043 -0.2354 -0.1479
31258W        W74274  32.297  31.299  18.199  0.1071 -0.1807  0.0015
31259W        W74275   6.008  27.257   8.919 -0.0278  0.0476  0.0182
31260W        W74276  34.576  11.350   6.924  0.1699  0.0374  0.1453
31261W        W74277  31.915  10.479   3.891  0.1305  0.2405 -0.0878
31262W        W74278   3.001   2.222  25.940 -0.1601 -0.2885 -0.1578
31263W        W74279   8.162  29.145  14.052  0.3695 -0.1631 -0.2837
31264W        W74280   5.251  31.001  14.614  0.0286 -0.1020 -0.2997
31265W        W74281   1.042  16.537  27.166 -0.1118 -0.4557 -0.0960
31266W        W74282  26.303  14.831  19.069 -0.1345  0.2422 -0.1460
31267W        W74283  25.204  28.473  18.683 -0.3242 -0.0524 -0.0442
31268W        W74284   6.844  26.209  27.113 -0.3848  0.3365 -0.2854
31269W        W74285   7.871   3.406  16.256 -0.0462  0.0957  0.2321
31270W        W74286   1.801   4.768   8.025 -0.1903 -0.0571  0.0780
31271W        W74287   0.661   6.072   8.901 -0.1416 -0.2468 -0.0113
31272W        W74288  32.798  12.850  17.750  0.2632 -0.0079 -0.1548
31273W        W74289   8.730   8.439  18.894  0.1036  0.0523  0.2061
31274W        W74290  25.948   6.197  16.617 -0.0880  0.0024 -0.2562
31275W        W74291  28.071   4.983  14.790 -0.1282  0.0136 -0.1877
31276W        W74292   3.590  33.136  18.046  0.1246  0.0636  0.1117
31277W        W74293  10.328  33.295   4.190  0.1861 -0.2328  0.0269
31278W        W74294  32.571  13.957  27.000  0.0281 -0.4365 -0.1598
31279W        W74295  17.560  30.897  17.973 -0.2237  0.2701 -0.1765
31280W        W74296  33.163  33.980  21.025 -0.0137  0.3585 -0.0330
31281W        W74297  32.985  33.607  25.960  0.0475  0.1222  0.2343
31282W        W74298  24.195  27.570   1.329 -0.2379  0.0146 -0.2458
31283W        W74299  21.094  14.036   3.119 -0.3471  0.1375  0.2198
31284W        W74300  29.979  24.362  20.441  0.3692 -0.1262 -0.3500
31285W        W74301  33.230   9.706  16.574 -0.1104 -0.0625 -0.0677
31286W        W74302   4.166  28.066  14.782 -0.0016 -0.2033 -0.2326
31287W        W74303  24.642  15.947   3.544 -0.3334  0.2613  0.0341
31288W        W74304   7.825  28.282  14.144  0.1433 -0.0844 -0.2482
31289W        W74305   1.677  11.546  22.309 -0.0303 -0.0227 -0.1144
31290W        W74306   3.659  21.137  16.170  0.1256  0.2129 -0.0151
31291W        W74307  24.341  33.204   1.785  0.1915 -0.0618 -0.0249
31292W        W74308  34.232  12.279   0.411 -0.1061  0.2832 -0.1062
31293W        W74309  32.795  19.094  19.027 -0.2785 -0.2737 -0.1662
31294W        W74310  22.457   8.294  13.786  0.0115 -0.0606 -0.0561
31295W        W74311  27.867  31.370   9.617 -0.0796  0.1672  0.1406
31296W        W74312  28.053  26.456  28.825 -0.0389  0.0101 -0.0157
31297W        W74313  30.167  15.939  26.726 -0.1716 -0.1472  0.2899
31298W        W74314  32.032   9.735  25.073  0.0248  0.1680  0.1157
31299W        W74315  12.181  32.411  16.100  0.1571  0.0225  0.0051
31300W        W74316   1.889  33.499  23.060 -0.2567 -0.0820  0.2429
31301W        W74317  28.645   3.199   3.936 -0.3276 -0.2475 -0.2387
31302W        W74318  29.130  34.557  24.279  0.0889  0.2951  0.3594
31303W        W74319   0.306  10.996  28.476  0.0492 -0.1111 -0.0601
31304W        W74320  23.020  13.674  21.221  0.1578 -0.0395  0.1171
31305W        W74321  27.114  22.606   1.783  0.0409  0.1915  0.1022
31306W        W74322   7.449  27.852  28.393  0.0862  0.3266  0.2508
31307W        W74323  10.893   8.324  28.931 -0.0149 -0.1001 -0.2033
31308W        W74324  22.979  10.605   6.055 -0.0645 -0.0607 -0.3450
31309W        W74325   6.957   2.831  28.331 -0.1581  0.0530 -0.0970
31310W        W74326   2.225   5.790  17.668 -0.2254 -0.1724  0.0017
31311W        W74327  14.575   4.669   7.153 -0.2680  0.0034 -0.1516
31312W        W74328   1.983   3.043  14.539 -0.0892  0.3300  0.0757
31313W        W74329  33.596  14.729  29.188 -0.0147 -0.1137 -0.3377
31314W        W74330  27.138   2.830   6.374  0.0117 -0.1219 -0.0305
31315W        W74331  26.339   1.548  24.322 -0.5880 -0.2284  0.1802
31316W        W74332  29.498   3.944   4.863  0.1895 -0.0537 -0.4592
31317W        W74333  15.870   7.525  23.304 -0.0544  0.0279  0.1981
31318W        W74334  26.411  31.735  23.694 -0.2406  0.1800 -0.0674
31319W        W74335   4.133  29.094  18.251 -0.0779  0.1313 -0.1412
31320W        W74336  32.085   1.794   0.256  0.1013  0.0032 -0.2370
31321W        W74337  34.139   1.298  25.291  0.2795 -0.1452  0.0328
31322W        W74338  31.392  13.111  20.888  0.2776 -0.4236  0.1488
31323W        W74339  20.209   6.978  22.965  0.0752 -0.0747 -0.1999
31324W        W74340  29.624  24.316   9.135  0.0788 -0.0072 -0.1819
31325W        W74341  31.985  24.954  22.855  0.1076 -0.1098  0.0079
31326W        W74342  32.086  27.792  19.145  0.1219 -0.0854  0.0870
31327W        W74343  15.436   1.056  15.801  0.3456 -0.0606 -0.3060
31328W        W74344  32.913  10.697  22.021  0.3732  0.1124  0.1160
31329W        W74345  31.354   5.077  26.434  0.0447  0.1437  0.0897
31330W        W74346  32.094   8.475  15.131  0.0739 -0.2253  0.0488
31331W        W74347  30.172  26.342  17.048  0.2678  0.0173 -0.0404
31332W        W74348   5.717   3.592  16.996 -0.1944 -0.2200  0.0648
31333W        W74349  24.010  28.581  28.398 -0.0310  0.1029 -0.1843
31334W        W74350  18.311  27.478  22.891  0.2940 -0.1142 -0.2211
31335W        W74351  27.146   6.358  25.008 -0.3148 -0.1012  0.1990
31336W        W74352   3.543  30.921   8.762  0.0649 -0.1590  0.2406
31337W        W74353  18.395  14.750  12.715 -0.1616 -0.0636  0.0657
31338W        W74354   3.604  30.344  26.651 -0.1256 -0.0050 -0.2603
31339W        W74355  25.021  29.917  19.684 -0.4154  0.1457  0.1606
31340W        W74356  16.105  34.402  26.722 -0.2257  0.1995  0.0156
31341W        W74357  10.530   2.664  25.037  0.3313 -0.0626  0.2253
31342W        W74358  32.697   2.149   1.002 -0.0487 -0.1025  0.1865
31343W        W74359  22.434   1.356  27.733 -0.0089 -0.0542  0.0551
31344W        W74360   9.614   8.823   0.431  0.1545  0.1749 -0.0899
31345W        W74361  27.539  27.694  21.348  0.2780 -0.2152  0.0405
31346W        W74362  28.880  17.307  22.394  0.0469  0.3388 -0.1972
31347W        W74363   0.430   2.256  25.652 -0.0322 -0.0160 -0.1137
31348W        W74364   1.346  15.459   6.305 -0.1344 -0.0933  0.2584
31349W        W74365  24.060  32.686   0.072 -0.0694 -0.2529  0.4528
31350W        W74366  18.653  32.800  22.404 -0.2803 -0.2949 -0.2262
31351W        W74367  34.135   6.362  17.823 -0.2006  0.0938 -0.2322
31352W        W74368   5.442   9.626  15.260 -0.0851 -0.0880 -0.0478
31353W        W74369   9.440  29.304   0.134 -0.2075 -0.1532  0.0965
31354W        W74370  28.434   8.596  16.985 -0.3500 -0.3252 -0.1140
31355W        W74371  24.858  23.256  26.051 -0.2871 -0.0800  0.0384
31356W        W74372  21.722  14.286   3.281  0.5701  0.0369  0.1507
31357W        W74373  34.678  30.994   4.540  0.2511  0.1252  0.0454
31358W        W74374  26.349   3.560  24.757 -0.0390 -0.0539 -0.2656
31359W        W74375   8.945  30.316   2.680  0.0591 -0.2863 -0.0149
31360W        W74376  10.126  31.863  16.153  0.2228 -0.0110 -0.0797
31361W        W74377   4.552  24.177  14.368  0.1950 -0.2184 -0.4345
31362W        W74378   4.038   7.451  24.873 -0.2464 -0.1316  0.0683
31363W        W74379  12.246   3.819   2.086 -0.2804 -0.1612  0.3383
31364W        W74380  28.729  32.391  18.302  0.0900 -0.1596 -0.1680
31365W        W74381   4.225   2.352  24.262 -0.2794  0.0815 -0.1404
31366W        W74382  34.666  11.402   2.699 -0.3657 -0.1507 -0.0337
31367W        W74383  32.278   5.722  16.840 -0.3419  0.1573  0.0620
31368W        W74384   1.560  14.683  20.098 -0.1697 -0.2726 -0.1359
31369W        W74385   2.252  14.598  17.200  0.0333  0.3006  0.3230
31370W        W74386  31.906  33.326  26.482  0.0354  0.0208 -0.0135
31371W        W74387  13.350   8.417   6.507  0.1773  0.0703  0.2892
31372W        W74388   1.967  25.766  26.530 -0.0969 -0.2856  0.0818
31373W        W74389   0.518  34.665   1.283  0.3251  0.0147  0.1766
31374W        W74390  31.221   1.535  21.312 -0.0710 -0.1844  0.0326
31375W        W74391   6.779  28.196  14.701  0.0180  0.0247  0.1907
31376W        W74392  24.375   0.097   6.105  0.2988 -0.1594  0.2262
31377W        W74393  29.249   1.205  22.250 -0.1728  0.0921 -0.0639
31378W        W74394  21.852   6.720  24.817 -0.4727 -0.0973 -0.0805
31379W        W74395  20.775  10.163  14.063  0.1879 -0.1397  0.2613
31380W        W74396  30.199  34.404  27.241 -0.1840  0.0802 -0.0947
31381W        W74397  29.424  31.475  20.640  0.0849 -0.0494 -0.1745
31382W        W74398  33.406  25.462  21.204  0.1082 -0.0615  0.1093
31383W        W74399  18.288   9.916  16.652 -0.1866  0.0351  0.1329
31384W        W74400   5.221  28.609  28.579 -0.2128 -0.2048  0.1696
31385W        W74401  28.244   1.705   5.355 -0.3949 -0.1906 -0.0656
31386W        W74402  30.703   7.733  25.273  0.1542  0.2928  0.0187
31387W        W74403  33.785  11.447  16.675 -0.0551  0.0544 -0.0905
31388W        W74404  31.982   5.983  18.971  0.1109  0.0901  0.0268
31389W        W74405  10.863   6.526  26.041  0.0679  0.0003  0.2385
31390W        W74406  15.171  31.618  15.928  0.2793  0.3698 -0.0642
31391W        W74407   1.922   1.565  16.325  0.0721  0.0710  0.0893
31392W        W74408   5.841  14.984   6.620  0.0605  0.1442  0.3117
31393W        W74409   3.885  14.226   2.851  0.1830 -0.1284 -0.1353
31394W        W74410   2.216   0.485   2.859  0.0575  0.0174 -0.0624
31395W        W74411   8.622  27.621  26.263 -0.0233  0.2895  0.3241
31396W        W74412  29.797   7.176  20.448 -0.0025  0.1472 -0.2353
31397W        W74413   0.233  17.473  23.340 -0.0072  0.0579  0.3711
31398W        W74414  34.008  27.768  28.234  0.2487 -0.1708 -0.1283
31399W        W74415   9.972  29.288  28.282 -0.1636  0.1250  0.0477
31400W        W74416  12.252   0.194  22.618  0.0169  0.0893  0.1045
31401W        W74417  30.047  33.392  21.669  0.0958 -0.0768  0.1074
31402W        W74418   1.033   9.805   2.450 -0.0594 -0.2537 -0.0420
31403W        W74419   7.210  33.568  18.482 -0.0376  0.1434  0.4001
31404W        W74420  15.177   2.745  13.540  0.1762  0.0682 -0.2458
31405W        W74421   2.682   8.691  21.520  0.0035  0.1058  0.0549
31406W        W74422   5.177   5.059   0.385  0.3361  0.0785 -0.0113
31407W        W74423  12.467  16.549  21.175 -0.0694  0.1575  0.0283
31408W        W74424  21.662  20.222  22.639 -0.0507  0.1437 -0.4373
31409W        W74425   4.168   2.763  24.546  0.0610 -0.0553 -0.1141
31410W        W74426  29.036  10.129  25.921 -0.2680  0.2972  0.3479
31411W        W74427  34.535   7.031  28.093 -0.0871  0.0162  0.2632
31412W        W74428  30.224  33.368  18.005 -0.1541 -0.3998  0.4337
31413W        W74429   3.726  14.209   3.345  0.3032 -0.2802 -0.0113
31414W        W74430  30.416   5.362  17.282  0.0301  0.1003  0.3127
31415W        W74431   9.820  32.882   3.525 -0.1388  0.1169 -0.2917
31416W        W74432  10.429   1.903  16.883 -0.0025 -0.0427 -0.0531
31417W        W74433  10.804  31.267  24.800  0.3396 -0.0351 -0.0433
31418W        W74434  32.189  26.958   0.480 -0.1831 -0.2717  0.1951
31419W        W74435  14.801   3.613  24.287 -0.2791 -0.0812  0.2455
31420W        W74436   9.395  31.610   7.573  0.0782 -0.0659 -0.0966
31421W        W74437  26.697  17.799  25.685 -0.2722 -0.0845 -0.0289
31422W        W74438   5.534  28.438  18.239  0.1951 -0.0023  0.0033
31423W        W74439  12.869   6.606  21.967  0.1910  0.0525 -0.1258
31424W        W74440  20.302  28.510  23.426  0.0804  0.3276  0.3773
31425W        W74441  34.624   0.535  20.933 -0.0940  0.0245 -0.1156
31426W        W74442  32.710  21.062  16.203 -0.1130  0.0895  0.1235
31427W        W74443  29.744  33.046  24.170 -0.0937 -0.2079  0.1251
31428W        W74444  34.271  10.785  24.867  0.0657 -0.0381 -0.3516
31429W        W74445   9.106  32.366  19.337 -0.1183  0.3007  0.0256
31430W        W74446  20.764   0.976   4.778  0.2110 -0.2114  0.3802
31431W        W74447  21.642  30.545   6.170  0.0423 -0.1806 -0.2317
31432W        W74448  11.442  12.403  20.443 -0.1546 -0.0297 -0.2217
31433W        W74449  19.638   6.792   0.872 -0.2260  0.1446 -0.0186
31434W        W74450   7.905  13.871   8.206  0.2507 -0.1558 -0.1438
31435W        W74451  21.269  24.187  22.939  0.1065  0.2353  0.2649
31436W        W74452  23.745  19.078   5.811 -0.1388  0.2648 -0.1033
31437W        W74453  25.156   2.996  15.368  0.1336  0.1011 -0.0959
31438W        W74454  34.220   0.655   1.271  0.0046  0.0784 -0.0445
31439W        W74455  21.963  28.679   4.165 -0.0230 -0.0237  0.0281
31440W        W74456  16.756   1.784  26.048  0.1541  0.0085  0.1213
31441W        W74457   8.937  31.778  21.717  0.1935  0.1732  0.1295
31442W        W74458   8.731   4.376  27.712 -0.2671  0.0265  0.2011
31443W        W74459  24.593  25.802  20.855  0.4211 -0.1910 -0.1831
31444W        W74460  33.585  24.341  28.499  0.1535 -0.0570 -0.1680
31445W        W74461  24.426  25.182  10.450 -0.3361  0.1745 -0.0565
31446W        W74462  23.853   8.666  18.108 -0.1676 -0.1515 -0.1283
31447W        W74463  33.858  28.298  24.904 -0.1904 -0.1611  0.1097
31448W        W74464  17.036  10.327   0.618  0.3060 -0.3590 -0.0829
31449W        W74465  26.630   4.429   7.431  0.0288  0.2186  0.3212
31450W        W74466  23.716  21.668   9.969  0.1896 -0.0024  0.0755
31451W        W74467  32.503  20.883  26.620 -0.0331  0.0123 -0.0761
31452W        W74468  28.706  26.655   2.700  0.0210 -0.0958  0.2236
31453W        W74469  29.236  14.958   9.279 -0.1615  0.0211  0.2187
31454W        W74470  20.731  25.323  19.871 -0.0516 -0.0799  0.0028
31455W        W74471  32.247   1.123  14.615  0.0309 -0.1507 -0.0755
31456W        W74472   2.712   9.261  28.755 -0.1982 -0.2460 -0.0020
31457W        W74473  25.446  16.928   3.506  0.2917  0.1780 -0.0157
31458W        W74474  16.573   7.979  19.105 -0.0013  0.0219 -0.0331
31459W        W74475  33.544  33.548  28.123  0.0742  0.1279 -0.2816
31460W        W74476  24.363   0.920  16.825 -0.3078 -0.0910  0.0746
31461W        W74477   0.092   0.097  21.636 -0.1488  0.3076 -0.0713
31462W        W74478  34.143   4.988  15.259 -0.1404  0.0378  0.4590
31463W        W74479   2.715  34.505   3.855  0.0512  0.0162 -0.2863
31464W        W74480  29.470   5.092  24.608 -0.2437 -0.0290  0.0532
31465W        W74481  25.512  34.406  28.024 -0.0541 -0.0281 -0.1121
31466W        W74482  24.007  16.408  28.236 -0.2922  0.1406  0.1157
31467W        W74483  20.793   1.434   3.226 -0.0690 -0.0521 -0.1183
31468W        W74484  33.875   4.146  24.410  0.1660 -0.1580  0.0581
31469W        W74485  12.571  25.457   2.446 -0.4696  0.1291 -0.1167
31470W        W74486  29.022   0.633  25.077 -0.0527  0.3466 -0.0527
31471W        W74487  26.299  32.856   9.910  0.2145  0.1909 -0.2316
31472W        W74488   3.604   6.647   0.552  0.1550  0.1204 -0.1009
31473W        W74489  28.662  27.210   3.887  0.2383 -0.0262 -0.1814
31474W        W74490   8.959  34.446   2.318 -0.0016  0.0399 -0.1161
31475W        W74491  11.261  32.639   5.213 -0.0835  0.2292 -0.0293
31476W        W74492  22.558   5.329  15.213 -0.1491  0.1089 -0.2529
31477W        W74493  24.401   2.868  17.341  0.1959  0.1866 -0.3150
31478W        W74494  19.345  33.285  19.764 -0.0814 -0.0261  0.3875
31479W        W74495  31.841  17.067   4.818  0.2725  0.0027  0.0866
31480W        W74496   8.212   4.149   3.742  0.0967  0.2431 -0.1440
31481W        W74497   7.563  14.584  16.562  0.0416 -0.1477 -0.3762
31482W        W74498   9.682  33.795  24.935 -0.1609  0.0687 -0.0705
31483W        W74499  24.960  14.169  28.504  0.1451 -0.1021 -0.3097
31484W        W74500  30.097   0.128  19.815 -0.1967 -0.3234  0.2443
31485W        W74501  19.620   7.172  25.274  0.0416  0.0131 -0.1063
31486W        W74502   6.077   2.443   7.373  0.1324 -0.1273  0.1224
31487W        W74503   9.892   1.802  20.167 -0.0642  0.2398 -0.1297
31488W        W74504  33.049  29.920   4.120 -0.0742  0.0074 -0.1261
31489W        W74505  29.742   7.266  17.358  0.1885  0.0022  0.0141
31490W        W74506  32.545  22.166  19.374 -0.1236 -0.2846 -0.0369
31491W        W74507  33.188   8.010  22.902  0.0923  0.0522 -0.0228
31492W        W74508  26.077   9.540   1.343  0.1509 -0.0605  0.1805
31493W        W74509  19.284   5.973  16.720 -0.0633 -0.0372 -0.0385
31494W        W74510   6.017   8.327   2.019  0.0062 -0.1137 -0.1023
31495W        W74511   9.663  34.236  26.071 -0.0367  0.2647 -0.2253
31496W        W74512   3.331   3.652   2.668  0.2277 -0.2706  0.4658
31497W        W74513  29.229   3.975   9.881 -0.2659 -0.0499  0.1987
31498W        W74514   3.296  16.516  16.965 -0.1144  0.1297 -0.2160
31499W        W74515  28.540   3.639  18.990 -0.1287  0.0144  0.1994
31500W        W74516  25.379  34.300  15.634  0.0420  0.2264  0.0209
31501W        W74517  13.688   7.168   6.061  0.1005 -0.1204  0.1648
31502W        W74518  30.174  23.498  10.515  0.0094  0.1933 -0.3003
31503W        W74519  31.940  20.393  24.323 -0.1217 -0.1778  0.2201
31504W        W74520   2.778  29.551  15.817 -0.0729  0.0478 -0.1801
31505W        W74521   7.082   8.548  22.823 -0.1578  0.1621 -0.4509
31506W        W74522  29.336  26.435  11.330 -0.2379  0.1627  0.0455
31507W        W74523  15.760  31.981  16.933  0.1497  0.0995  0.2164
31508W        W74524  32.048   6.873  21.704  0.1209  0.1376 -0.2268
31509W        W74525  31.981  28.855  15.717 -0.1694  0.0337  0.0150
31510W        W74526   5.738  17.347  25.900 -0.0364  0.1543 -0.0161
31511W        W74527   5.341   8.690  23.342  0.0568 -0.1455 -0.1377
31512W        W74528  26.496   6.112  21.562  0.2301 -0.2278 -0.1533
31513W        W74529  14.164   4.299   8.118  0.3331  0.1093  0.3250
31514W        W74530  12.716  11.176  22.951 -0.0680 -0.0042 -0.0446
31515W        W74531  23.042   3.785  16.917 -0.0187 -0.0176 -0.0793
31516W        W74532  28.983   9.527   8.351  0.1958  0.0662  0.0867
31517W        W74533  33.264  18.901   1.504 -0.1645 -0.4153  0.3516
31518W        W74534  32.838  12.084  18.806 -0.0179  0.0938 -0.1000
31519W        W74535   1.743   9.947  26.704  0.0010 -0.0031  0.4182
31520W        W74536  32.350  13.189  17.627  0.0653  0.3846 -0.0832
31521W        W74537   6.023   2.739   4.738 -0.1516 -0.3940  0.2873
31522W        W74538  32.039  10.867  21.385 -0.2860  0.1083 -0.2116
31523W        W74539  17.465  32.805   5.133 -0.1785  0.0795  0.0252
31524W        W74540  30.584  15.459   7.079 -0.0124  0.1756 -0.2350
31525W        W74541  29.146  13.575  14.775  0.1288  0.0878  0.1367
31526W        W74542   2.449  20.770  23.290  0.1883  0.0821 -0.2968
31527W        W74543  11.241  24.226  19.242 -0.3861 -0.1640 -0.0706
31528W        W74544  34.574   8.524  23.248 -0.1736 -0.0959 -0.3252
31529W        W74545  13.437  17.384  28.177  0.2533 -0.0301  0.2158
31530W        W74546  25.563  22.348   4.232  0.0927  0.0389 -0.1388
31531W        W74547  30.094  13.254  15.557  0.1812 -0.1592  0.0686
31532W        W74548  23.574   0.015   1.068 -0.1637 -0.1520  0.1030
31533W        W74549  23.376   7.871  17.380  0.3354  0.2774 -0.0013
31534W        W74550  33.534  31.723  26.745 -0.3162  0.0046 -0.0261
31535W        W74551  27.784   5.728  16.294 -0.0432 -0.0050 -0.3001
31536W        W74552  29.196  33.577  15.913 -0.2599  0.1744  0.0653
31537W        W74553   4.424  29.504  27.930 -0.1426  0.0492  0.0848
31538W        W74554  25.542  23.924  23.590 -0.1036  0.0063  0.0515
31539W        W74555  34.409  32.149  15.315  0.2296  0.1165  0.1724
31540W        W74556   0.665  17.778   9.654 -0.2266  0.0391 -0.0386
31541W        W74557  16.326   3.669  26.540  0.1479 -0.0739 -0.0965
31542W        W74558  30.133  10.357  23.547  0.0911  0.0851  0.1542
31543W        W74559  22.218  30.035  18.511  0.1011 -0.0276  0.0646
31544W        W74560   0.094  14.882   5.062  0.1153 -0.1142  0.1457
31545W        W74561  27.571   2.115   5.551  0.0576 -0.3194 -0.0485
31546W        W74562  24.599   2.110  23.035  0.0041 -0.1388  0.2259
31547W        W74563   9.411  15.342  23.360 -0.3100  0.2634  0.1807
31548W        W74564  19.965   7.867  21.507 -0.1111  0.2764 -0.4573
31549W        W74565  28.976   7.942  18.542  0.1859  0.0028 -0.0129
31550W        W74566  27.133  31.256  17.606  0.0008  0.2243  0.0513
31551W        W74567   9.081   1.284   7.140  0.1391 -0.0824 -0.1238
31552W        W74568  23.941   2.107   7.902 -0.0223  0.0497  0.2041
31553W        W74569  29.824   5.775  20.761 -0.2106 -0.0952 -0.2952
31554W        W74570  24.177   0.087  24.402  0.2902 -0.0714  0.3108
31555W        W74571  31.036  34.485   4.454 -0.1105 -0.0990 -0.1238
31556W        W74572  27.505   1.381  10.960 -0.1355 -0.0900 -0.3345
31557W        W74573   4.295   8.540  22.299 -0.3710 -0.0356 -0.3337
31558W        W74574  33.511   2.460  28.412  0.0483  0.3408 -0.0696
31559W        W74575   3.149  33.501  18.853  0.0495 -0.2381 -0.2724
31560W        W74576  33.330   2.916  19.103  0.1597  0.0369 -0.0045
31561W        W74577  31.555   9.712  27.475  0.3009 -0.2046 -0.2427
31562W        W74578   4.863  33.375   3.814 -0.0158  0.1094  0.0092
31563W        W74579  25.153  32.379  17.694 -0.1631 -0.0375  0.2600
31564W        W74580   5.513   0.222   4.361  0.3058 -0.1565  0.1899
31565W        W74581  28.468   8.884  24.826  0.3107  0.2483  0.3376
31566W        W74582  27.831  32.692   9.031 -0.1551 -0.3750  0.1186
31567W        W74583  30.040  19.754  19.209 -0.3155 -0.0993 -0.1878
31568W        W74584  11.547   5.836  18.234 -0.2401 -0.3223  0.0591
31569W        W74585   5.421  31.880  22.182 -0.3637 -0.0236  0.0528
31570W        W74586  25.040  31.445   3.653 -0.1187  0.2129  0.3012
31571W        W74587  17.944   3.406  21.148 -0.2685  0.0449  0.0605
31572W        W74588  32.983  14.318  23.292 -0.0704 -0.1283 -0.4184
31573W        W74589  16.609  18.601  19.812  0.0462 -0.1976  0.2894
31574W        W74590  24.825  33.257   8.403  0.2456  0.2261  0.3954
31575W        W74591  24.364  33.832  24.251  0.1752  0.0056  0.4456
31576W        W74592  34.564  26.550   1.956  0.0415 -0.1426  0.0949
31577W        W74593   1.004  15.593  14.700  0.0975  0.0725  0.2433
31578W        W74594  32.159   0.596  17.527 -0.0709  0.2716 -0.0760
31579W        W74595  25.071   0.678   1.703  0.0568  0.0932  0.0096
31580W        W74596  32.078   1.233  20.682 -0.2026 -0.1035 -0.3177
31581W        W74597  27.497   4.616   9.983  0.0127 -0.2139 -0.1227
31582W        W74598  25.121  14.803  26.088  0.1760  0.0597  0.0259
31583W        W74599   4.865   6.525  17.647 -0.3109 -0.1906 -0.0730
31584W        W74600   0.727  28.013   7.119 -0.2619  0.1236 -0.1838
31585W        W74601  27.214   0.722   5.168  0.3938 -0.1528 -0.3230
31586W        W74602   4.122  34.201  27.431  0.3170  0.0431 -0.3376
31587W        W74603  30.338  12.105  27.462 -0.1085 -0.2396  0.1130
31588W        W74604  10.120   6.635  18.947  0.1179  0.1223 -0.1703
31589W        W74605   1.068  32.839   2.163 -0.1896 -0.1171 -0.1954
31590W        W74606  28.454  30.648   3.328  0.2348  0.0633 -0.0302
31591W        W74607  25.775   1.916   7.651  0.3060 -0.3122  0.1617
31592W        W74608  34.195  23.615   7.139 -0.0241 -0.2821  0.2989
31593W        W74609   0.588   7.335  25.162  0.2018 -0.0445  0.0762
31594W        W74610   4.370   3.183   2.097 -0.0044  0.0825  0.4185
31595W        W74611   7.827   1.704  29.270  0.2305 -0.2544  0.0866
31596W        W74612  16.476  31.041  27.593  0.2485  0.1665 -0.3068
31597W        W74613  22.832   7.780   2.353 -0.1350  0.0567 -0.0398
31598W        W74614  24.966   2.151  15.856 -0.0559  0.1853 -0.0043
31599W        W74615  33.063   9.853  19.479 -0.1680  0.0597  0.0978
31600W        W74616  10.652   9.248  28.534 -0.3860 -0.2766 -0.0162
31601W        W74617   0.360   3.801  22.625 -0.2655  0.1324 -0.0178
31602W        W74618   4.291  16.589   8.979 -0.0440 -0.0649  0.2071
31603W        W74619   3.889  13.491   8.140 -0.2063  0.1085  0.1925
31604W        W74620  34.223  12.905   6.365 -0.0668 -0.1102 -0.2631
31605W        W74621   8.231  32.396  25.112  0.1111  0.4790 -0.1268
31606W        W74622  24.510  28.539  19.838  0.1837  0.0691  0.0983
31607W        W74623  27.514  31.100   9.835  0.1793  0.0453 -0.1950
31608W        W74624   0.388  13.653  19.276  0.2777 -0.0889  0.2286
31609W        W74625   6.166  34.490  21.317  0.1227  0.2456  0.1403
31610W        W74626   3.680  13.704  28.802 -0.4309  0.0327 -0.2273
31611W        W74627  33.537  31.078   1.575 -0.2408 -0.7072  0.0892
31612W        W74628  22.662   2.409  16.315  0.0782  0.3448 -0.2916
31613W        W74629   1.350   6.989  17.028 -0.0005 -0.0149 -0.2133
31614W        W74630   0.961  14.942   4.304 -0.0575 -0.1386 -0.0572
31615W        W74631  26.800   0.563  22.201 -0.0067 -0.3336 -0.1575
31616W        W74632   6.815  25.091  26.539  0.3890 -0.0746  0.1406
31617W        W74633  25.073  22.851   3.922  0.0898  0.1194  0.1599
31618W        W74634  25.909   1.386   5.271  0.1649  0.2235 -0.2673
31619W        W74635  30.733  28.991   3.278 -0.1286 -0.0499  0.1365
31620W        W74636   2.515  13.673   1.544  0.0263 -0.2408  0.0922
31621W        W74637  27.031   0.499   0.109  0.0580 -0.1733 -0.0464
31622W        W74638  22.046   8.653   6.652 -0.1806  0.0780 -0.1457
31623W        W74639  25.345   8.950   6.136  0.4502 -0.2169 -0.7300
31624W        W74640   1.778   5.935   1.064  0.0001  0.0296  0.2920
31625W        W74641  21.101   2.575  28.029 -0.0481  0.0472  0.2122
31626W        W74642  28.885  13.589  15.709 -0.0615  0.2164  0.0305
31627W        W74643  25.036  11.652  19.496  0.0748  0.1752 -0.3424
31628W        W74644   3.841  27.857   3.567  0.1591  0.0319 -0.1464
31629W        W74645  29.902  15.477  22.061 -0.3291 -0.0171  0.0297
31630W        W74646  16.985  32.054  25.209 -0.5193 -0.1549 -0.0698
31631W        W74647  16.497   9.859  18.583  0.1882 -0.1352 -0.2561
31632W        W74648  33.804  11.852   2.445 -0.0069 -0.1851 -0.2616
31633W        W74649  28.830   6.351   0.338 -0.2213 -0.0977  0.0446
31634W        W74650  32.505  17.650  24.571 -0.0861  0.3987 -0.0064
31635W        W74651   9.567  18.012  28.968 -0.0347 -0.0390  0.0252
31636W        W74652  21.935   6.594   1.953  0.1541 -0.0463  0.1453
31637W        W74653   6.080  30.809   0.900 -0.3645  0.2850 -0.2098
31638W        W74654  13.928  14.928  27.657  0.0937 -0.1093 -0.0098
31639W        W74655  32.124   9.629   6.408 -0.3456 -0.0031 -0.2278
31640W        W74656  34.463  11.273   1.143  0.0328 -0.0123  0.1617
31641W        W74657  27.408  33.523  11.642 -0.0963 -0.0932  0.1465
31642W        W74658  28.438  14.832  21.744  0.0256 -0.2691  0.3605
31643W        W74659  28.314  29.429  18.507  0.0017  0.1969  0.2798
31644W        W74660  13.225   5.201  16.461  0.0808 -0.0778 -0.0682
31645W        W74661  23.970  34.702  28.802 -0.0990  0.0881 -0.0904
31646W        W74662  26.923   9.419   0.433 -0.3060 -0.0306  0.1358
31647W        W74663   4.237  34.093  15.378 -0.0563 -0.1142  0.1061
31648W        W74664  28.513   0.701  25.060 -0.0943  0.0301  0.1265
31649W        W74665  23.023   3.333   7.556  0.1533  0.0573  0.0794
31650W        W74666  34.058  18.136  17.097 -0.1110  0.2768 -0.0730
31651W        W74667   7.067  28.564  17.193 -0.1691 -0.0789 -0.0769
31652W        W74668  20.767   4.731  25.480  0.3198 -0.2194  0.1075
31653W        W74669   5.079  33.317   1.736  0.1744  0.3305  0.2893
31654W        W74670  25.837  14.984  16.160  0.0343  0.0184  0.0757
31655W        W74671  34.198  18.857   1.873  0.2337  0.1273 -0.2140
31656W        W74672   2.430   3.063  20.962  0.0217  0.3947  0.2814
31657W        W74673  27.632  12.055   7.975 -0.0752  0.3249  0.2207
31658W        W74674  33.345   1.081   7.226  0.0509 -0.1557 -0.0314
31659W        W74675  33.328   3.519   5.192 -0.0111 -0.1148 -0.1207
31660W        W74676  18.326   6.263  25.282  0.2893  0.1521  0.0148
31661W        W74677  29.059   0.655   7.972  0.2095  0.0998 -0.2075
31662W        W74678   1.639  23.365  18.699  0.1224 -0.1614  0.1530
31663W        W74679  20.896  28.984  22.872  0.0472 -0.0072 -0.4999
31664W        W74680  32.559  13.247  25.815 -0.0935 -0.0011  0.1876
31665W        W74681   5.707  17.371  12.888 -0.1100  0.0154  0.0280
31666W        W74682  23.442  33.418  23.897  0.0191 -0.4253 -0.1073
31667W        W74683  28.790  23.372  25.958 -0.2635  0.1720  0.1706
31668W        W74684  28.508   7.765  27.103  0.0422 -0.0731  0.0032
31669W        W74685   1.586   7.264  14.326  0.2713  0.1360 -0.1450
31670W        W74686  19.196  34.058  23.782 -0.0439  0.0783  0.1984
31671W        W74687  19.461  13.153   7.023  0.1705 -0.1886 -0.1230
31672W        W74688  19.413  30.060  21.769  0.4346  0.3862  0.0930
31673W        W74689  13.001  32.979  21.418 -0.0086 -0.1204  0.2064
31674W        W74690  13.827   2.903  26.981  0.0824 -0.2526  0.0686
31675W        W74691  28.115   1.382  21.996 -0.0443 -0.1616  0.2197
31676W        W74692  12.840   4.939  29.058  0.0495  0.2356 -0.1823
31677W        W74693   0.287   1.380  18.048  0.1819 -0.3296 -0.0937
31678W        W74694   7.421  33.957  20.898 -0.1218  0.1526  0.0123
31679W        W74695  29.735  33.133  25.247  0.2374  0.2224 -0.0246
31680W        W74696  29.513   8.499   2.121 -0.4166 -0.4208  0.0871
31681W        W74697   3.754  33.238  25.799 -0.0881  0.1476  0.5118
31682W        W74698   8.300   3.917  26.447 -0.0335 -0.0283 -0.1997
31683W        W74699   6.569   9.698  28.538  0.2846 -0.4302  0.1146
31684W        W74700  26.266   6.642  19.532 -0.0539  0.0868 -0.2416
31685W        W74701  30.838   7.532   3.984 -0.0626  0.0901  0.0449
31686W        W74702  13.152  30.043   2.902 -0.2011  0.1171 -0.0897
31687W        W74703  34.583  11.833  24.047  0.1487 -0.0191  0.3324
31688W        W74704   8.804   3.685   6.622  0.2764  0.1030  0.0192
31689W        W74705  27.895  27.692   3.213 -0.2998 -0.0779 -0.0106
31690W        W74706   4.452  11.589   1.063  0.0476  0.0205  0.1292
31691W        W74707  18.918   7.995  13.312 -0.1044  0.2209 -0.1470
31692W        W74708   5.493   4.876   4.774 -0.0370  0.1781 -0.0098
31693W        W74709  28.633  10.000   1.482  0.4225 -0.2431 -0.0251
31694W        W74710  21.764  33.682   7.675 -0.0841 -0.0289  0.1037
31695W        W74711  15.347  14.361   2.581  0.0326 -0.0476 -0.1145
31696W        W74712  27.450  13.268   8.509  0.0511 -0.1319  0.1752
31697W        W74713  11.812  13.664   1.173  0.0965  0.1505  0.4579
31698W        W74714  20.336  24.780   0.087 -0.1796  0.3555 -0.3024
31699W        W74715   9.870  13.149  24.699 -0.0778  0.0874  0.0500
31700W        W74716  30.540  33.240   7.480 -0.0952  0.0382  0.1991
31701W        W74717  34.533  13.187  23.336  0.2816  0.0974  0.5490
31702W        W74718   2.865  26.735   6.562 -0.2943  0.3508  0.3210
31703W        W74719  34.048  22.739  17.679  0.1638  0.1001 -0.1298
31704W        W74720  21.597   5.982  20.811  0.0978  0.2542 -0.0160
31705W        W74721  15.409  19.494   3.811  0.0867  0.1231 -0.1526
31706W        W74722  22.088   4.292   3.278 -0.1869 -0.2215 -0.0417
31707W        W74723  28.277  26.760   7.761  0.1087  0.2698  0.0388
31708W        W74724  28.299   6.517  27.725  0.1710  0.1179 -0.0067
31709W        W74725  28.352  31.056  18.972 -0.1326 -0.2119 -0.0946
31710W        W74726  23.533   8.429  27.967 -0.0474 -0.0636  0.2210
31711W        W74727  23.993  12.981   1.996  0.1018  0.0196  0.1688
31712W        W74728  15.107  14.742   6.770  0.1093 -0.3218  0.0825
31713W        W74729  33.136  33.439  27.498  0.0205  0.0022 -0.1965
31714W        W74730  34.511   0.361  16.646 -0.0585 -0.1756  0.0981
31715W        W74731  27.820   9.775   1.555 -0.2291  0.0023 -0.0546
31716W        W74732  19.361  25.856  14.250 -0.2997 -0.4043  0.3429
31717W        W74733  30.777  19.569  16.188  0.0892 -0.3684 -0.1431
31718W        W74734   8.833  33.683  25.845  0.1962 -0.1502  0.0405
31719W        W74735  33.750  31.066  27.934 -0.0223 -0.3344  0.2450
31720W        W74736  15.879  25.989   4.574 -0.2628  0.3689 -0.1493
31721W        W74737  26.288   6.551  10.939  0.3511  0.1194 -0.2189
31722W        W74738   3.757  34.299  15.110 -0.0533  0.3295  0.0669
31723W        W74739  30.332   9.342  26.393  0.0226  0.0103 -0.0728
31724W        W74740   0.809  34.658  24.786 -0.0553 -0.2059  0.0816
31725W        W74741  32.753  27.819   9.818 -0.0176 -0.0213  0.1265
31726W        W74742  30.097   7.501   5.860 -0.1853 -0.4845 -0.2047
31727W        W74743  19.632   9.690  28.229 -0.0125 -0.2392  0.2679
31728W        W74744  14.333   7.085  25.568 -0.0338 -0.0833  0.2638
31729W        W74745  31.764   5.264  17.817 -0.3051  0.0349 -0.0544
31730W        W74746  31.093  29.768  15.223 -0.0052  0.1074 -0.0340
31731W        W74747  24.668  28.379  25.003  0.0945 -0.0286 -0.3396
31732W        W74748  15.298   5.461   3.917 -0.2167 -0.0303 -0.0492
31733W        W74749  23.917   1.302   1.549  0.2335  0.4325  0.3239
31734W        W74750   4.546  32.623   7.878  0.0498 -0.1431 -0.2785
31735W        W74751  33.250  22.423   1.117 -0.2062  0.2810  0.0356
31736W        W74752  10.391   0.105  22.511  0.2166  0.3213  0.0187
31737W        W74753  15.842   2.594   0.462 -0.1668  0.2454 -0.1580
31738W        W74754   6.258   4.076  21.242 -0.4393 -0.0137 -0.4288
31739W        W74755  31.078   4.860  23.936 -0.0755 -0.1090  0.2168
31740W        W74756   5.600  12.960  24.573 -0.1910 -0.0532 -0.1742
31741W        W74757  18.047   3.056  20.804 -0.0913  0.2288  0.1130
31742W        W74758   0.674  33.328   2.757 -0.0264  0.1785 -0.1257
31743W        W74759  21.992  33.341  20.021  0.0965  0.2486 -0.1698
31744W        W74760  23.599  15.251   6.302  0.1822  0.2921  0.1661
31745W        W74761   3.183  25.238  15.719  0.1916  0.1192 -0.1148
31746W        W74762  34.250  28.875   0.171  0.0167  0.2238 -0.0337
31747W        W74763  32.643   7.057  26.259 -0.0494 -0.1519 -0.1190
31748W        W74764   1.086  14.790  18.507  0.1033 -0.1487 -0.2707
31749W        W74765   4.444   6.481  17.937  0.3403  0.1888 -0.0490
31750W        W74766  11.780   2.647  20.872  0.0484  0.0746 -0.2214
31751W        W74767  25.049   0.046  20.168 -0.1692  0.4143  0.0162
31752W        W74768  21.107   3.825  21.667  0.0626 -0.0476 -0.0527
31753W        W74769  19.671  28.702   8.887 -0.1818  0.2383  0.0277
31754W        W74770   7.068  13.682   8.292  0.0489 -0.0442  0.0314
31755W        W74771  25.649   2.779   6.075  0.2409 -0.1252  0.3591
31756W        W74772   9.139  15.288   1.267 -0.2088  0.0513  0.0960
31757W        W74773  28.230  33.474   1.311 -0.0579  0.1610  0.1538
31758W        W74774  29.849  29.723  29.064 -0.1937 -0.1095  0.0605
31759W        W74775  10.030   3.818   8.256  0.2418 -0.2248  0.1615
31760W        W74776  22.330   5.184  27.218  0.0928 -0.0392  0.2562
31761W        W74777  30.766  25.962  17.925  0.0845 -0.2149 -0.1984
31762W        W74778  13.901  18.265   0.704  0.0165  0.0522 -0.0452
31763W        W74779  23.849  24.672  24.379  0.2784  0.1498 -0.0583
31764W        W74780   2.980   8.059  27.223 -0.0258  0.2598  0.0314
31765W        W74781  33.145  11.348  16.762  0.2428  0.0459  0.1957
31766W        W74782  23.532  29.785   0.683  0.2520 -0.3143  0.1360
31767W        W74783  25.062  34.194  19.419  0.2157  0.2865  0.0569
31768W        W74784  24.612  32.069  27.719  0.0337 -0.1788 -0.1091
31769W        W74785  13.705   2.472  19.009  0.3296  0.0028 -0.0071
31770W        W74786  14.466  34.592   3.359 -0.0706  0.0449 -0.1481
31771W        W74787  26.746  25.585  16.982 -0.1925  0.1119  0.0344
31772W        W74788   0.467  32.534   8.686  0.1236 -0.1151 -0.2492
31773W        W74789   8.806  13.347  27.191  0.0702  0.1909  0.1782
31774W        W74790  21.254  24.297   0.095 -0.1726  0.3202 -0.0947
31775W        W74791   1.122  20.451  17.573  0.0451  0.0187 -0.1668
31776W        W74792   0.446  20.898  17.112 -0.0230  0.2219 -0.3188
31777W        W74793   1.238   1.166   9.476  0.1247 -0.0812 -0.0528
31778W        W74794  25.884  16.305  22.819 -0.2952 -0.0355 -0.2138
31779W        W74795   8.610   5.643   2.258  0.3418 -0.0202  0.0396
31780W        W74796  32.819  26.661  22.804  0.0199  0.0441 -0.0763
31781W        W74797  25.452   8.639  20.116 -0.2141 -0.1712 -0.0494
31782W        W74798   0.181  31.758  17.167  0.1288  0.3024  0.0009
31783W        W74799  25.421   3.889  25.599 -0.1530 -0.0154  0.0684
31784W        W74800   2.021  30.710  28.074 -0.5000 -0.1655 -0.2385
31785W        W74801  29.007  22.307  16.208  0.1939 -0.0864 -0.0686
31786W        W74802  25.993   9.985  26.086 -0.0425  0.2925  0.3090
31787W        W74803   5.838  24.549  20.150 -0.0342  0.2643 -0.0322
31788W        W74804   7.078   6.935   1.757  0.0196 -0.3001 -0.2947
31789W        W74805   1.356   3.253   2.826 -0.0614 -0.2696  0.2128
31790W        W74806  26.080  30.283   6.050 -0.2499 -0.2373  0.0472
31791W        W74807   6.678  24.377  26.987 -0.0625  0.1637  0.0903
31792W        W74808  28.062  10.205  21.992  0.1071  0.3674  0.0215
31793W        W74809  23.986  34.099   3.316  0.2856 -0.1112 -0.2853
31794W        W74810  13.120   6.687  22.850  0.1500 -0.2007 -0.0746
31795W        W74811  32.243   3.349  17.900  0.1987 -0.0903 -0.0226
31796W        W74812   8.405  25.503   6.357 -0.1536  0.1103 -0.0252
31797W        W74813   0.327   6.544  25.440  0.2761  0.3248  0.1402
31798W        W74814  10.679   1.640  25.720  0.4516 -0.1461 -0.0114
31799W        W74815  21.683  27.977  27.914  0.1478 -0.0820  0.1293
31800W        W74816   9.041  10.015  15.781 -0.2087 -0.0487  0.1056
31801W        W74817  11.445   0.137   9.571 -0.1044 -0.0003  0.0244
31802W        W74818  21.290  32.993  19.471 -0.2893 -0.1553  0.0822
31803W        W74819  30.729   2.778   7.598 -0.0703 -0.0867  0.0271
31804W        W74820   7.467  15.761  21.416  0.0107  0.1581  0.1174
31805W        W74821  26.618  12.068  28.996 -0.3032  0.1913  0.2090
31806W        W74822  25.115   7.610  21.549 -0.0672 -0.0661 -0.0887
31807W        W74823  25.721  31.851   0.837 -0.0036 -0.3814  0.0026
31808W        W74824  33.405  34.687  24.029 -0.2697  0.0740  0.2513
31809W        W74825   5.056  29.022   1.627 -0.0651  0.0938 -0.0534
31810W        W74826  22.918  10.568  22.271 -0.2279  0.2934  0.0090
31811W        W74827  33.282   9.270  25.094  0.0928 -0.1583  0.2285
31812W        W74828  22.407  30.235   2.568 -0.0673  0.1299 -0.0982
31813W        W74829   2.772  24.999   4.067  0.0857 -0.2700  0.0021
31814W        W74830  13.533  21.498  26.994  0.2359 -0.1660 -0.1262
31815W        W74831  19.776  31.215  29.025  0.2697 -0.0079 -0.1468
31816W        W74832  31.713  32.065   1.859  0.0331 -0.1726 -0.2832
31817W        W74833  16.746   3.651   4.150  0.4172  0.0846 -0.0206
31818W        W74834  33.498   2.554   5.597 -0.0406  0.0799  0.0283
31819W        W74835  11.156   6.326   4.220 -0.0317  0.3178 -0.1535
31820W        W74836  27.704  32.013  17.822  0.1876  0.0943  0.1396
31821W        W74837  23.776  18.248  16.106  0.1051  0.2291  0.2020
31822W        W74838   1.539   5.711   3.103 -0.0510 -0.1288  0.3971
31823W        W74839  32.441   6.064  23.357  0.1184 -0.0147  0.4742
31824W        W74840  26.203  20.314  23.502  0.4109  0.0965  0.0200
31825W        W74841  27.387   8.018   3.793 -0.2118 -0.1153  0.1644
31826W        W74842   3.089  34.495  22.887 -0.4460  0.1662 -0.0676
31827W        W74843  22.207   8.703  23.236 -0.0204  0.3612 -0.0291
31828W        W74844  10.897  29.301  28.841  0.1230  0.0166 -0.3578
31829W        W74845   0.484  27.965  22.517  0.2067 -0.1838 -0.2572
31830W        W74846  29.745  17.778   7.908  0.0028 -0.0500 -0.0318
31831W        W74847  28.620  13.483  27.486  0.0622 -0.0482  0.0933
31832W        W74848  29.963   2.659   9.761 -0.2408  0.1931 -0.1374
31833W        W74849  33.295  12.426  16.326  0.1544 -0.0302  0.4916
31834W        W74850   0.473   4.764   9.310  0.0742 -0.0678 -0.1927
31835W        W74851  29.391   1.585  25.008  0.1968  0.0594  0.1088
31836W        W74852   0.116   2.753  28.084 -0.0167 -0.0808 -0.0397
31837W        W74853  14.958  30.853  25.227  0.1132  0.0639  0.1292
31838W        W74854  22.621  30.953   6.564 -0.3124 -0.0802 -0.1746
31839W        W74855  33.139   3.969  26.808  0.3237 -0.4241 -0.1801
31840W        W74856  34.581   5.063  27.328  0.2241  0.1607  0.4789
31841W        W74857  21.017   5.502   8.659  0.0027 -0.2544  0.1680
31842W        W74858  26.043   0.701   6.821 -0.0247 -0.2005  0.1533
31843W        W74859  17.088  32.139   7.034  0.0525 -0.1090 -0.0955
31844W        W74860   8.860  10.051  26.551 -0.0331  0.3501  0.3873
31845W        W74861  30.148   2.306   9.499  0.2101  0.2875 -0.4232
31846W        W74862  26.937  32.004  15.849 -0.0537  0.1604 -0.0403
31847W        W74863   1.843  30.661   9.318 -0.1511 -0.1774  0.2079
31848W        W74864  26.301   3.775   0.992  0.1393  0.0519  0.1138
31849W        W74865  29.274   3.371  15.344  0.0725 -0.1671 -0.0382
31850W        W74866   1.845   5.980   5.613  0.0505  0.0948  0.1089
31851W        W74867  33.354  27.279   6.557 -0.1707 -0.1472 -0.0167
31852W        W74868  18.118   4.472   3.658 -0.0681  0.0052 -0.0349
31853W        W74869   5.821   9.784   0.023 -0.1314 -0.0098 -0.1389
31854W        W74870  32.930  22.742   9.569  0.0104  0.2293  0.1123
31855W        W74871  32.818  14.400   2.073  0.0742  0.2255  0.0230
31856W        W74872  33.574  32.704  29.239  0.0302 -0.0363  0.0842
31857W        W74873  31.932  23.771   8.934 -0.1748 -0.1184  0.0375
31858W        W74874  26.390   3.145  16.144  0.1768 -0.2500 -0.1532
31859W        W74875  32.663  31.656  19.491 -0.2444 -0.3124 -0.1625
31860W        W74876  22.625  21.608  16.934  0.1436  0.3033 -0.0013
31861W        W74877  33.006   0.859  20.157  0.1996  0.4261  0.1037
31862W        W74878  17.495  30.820  10.335 -0.2597  0.1248 -0.1827
31863W        W74879  26.755   1.797  24.054  0.0136  0.0201  0.2122
31864W        W74880  31.234  10.611   1.032 -0.0653 -0.0230 -0.0538
31865W        W74881  24.047  12.322   5.339 -0.2157  0.0254  0.1140
31866W        W74882  29.955   7.557  26.003 -0.0808  0.1654 -0.2047
31867W        W74883  20.585   7.646  27.169 -0.0898 -0.4515  0.4669
31868W        W74884  32.407   1.231  28.041  0.1466 -0.0217  0.2555
31869W        W74885  19.593  22.168  28.622 -0.1606 -0.0286  0.3142
31870W        W74886  28.734  33.265   5.686 -0.1619 -0.0432  0.2503
31871W        W74887  11.915  15.102  19.377  0.1343  0.0638 -0.1104
31872W        W74888  24.308  33.489  21.152  0.0211  0.0169 -0.1377
31873W        W74889  34.198   7.095   7.916 -0.0168  0.1004 -0.1103
31874W        W74890  24.712  31.807   2.015 -0.0689  0.0266 -0.1200
31875W        W74891   3.842  11.214  26.060 -0.1253  0.2055  0.1128
31876W        W74892   2.211   7.379  25.923 -0.2966  0.0942 -0.1560
31877W        W74893  25.938   7.995   3.518 -0.0213  0.0562 -0.0167
31878W        W74894   1.912   3.182  10.593  0.1957  0.0102 -0.2190
31879W        W74895  29.034  16.102  25.671 -0.1009 -0.1145  0.2595
31880W        W74896  33.017  27.193   6.156 -0.1169 -0.0792 -0.1336
31881W        W74897  17.942   6.480   0.413  0.1688 -0.0056 -0.1075
31882W        W74898  31.854   2.697   5.114 -0.0846  0.0200 -0.2743
31883W        W74899   6.980  13.992  18.778  0.2355 -0.0596  0.0974
31884W        W74900  32.163  10.036   4.888  0.0930 -0.1857  0.1769
31885W        W74901  21.671  29.068  20.991  0.0452 -0.2850 -0.1676
31886W        W74902  20.903  22.568  27.283 -0.0897 -0.0726 -0.0460
31887W        W74903   2.915  17.197  23.922  0.0579  0.2168  0.1281
31888W        W74904  18.673   2.509   6.565  0.2864  0.3242  0.2407
31889W        W74905  25.272   9.436   7.900 -0.2057 -0.1587 -0.0169
31890W        W74906  13.538  32.005   9.866  0.0665  0.0695 -0.1967
31891W        W74907   2.150   3.840   1.957 -0.0972 -0.0482  0.0478
31892W        W74908  25.596  18.423  21.808 -0.3040 -0.0800  0.3924
31893W        W74909  28.529  28.753   6.591  0.0510  0.1797 -0.1220
31894W        W74910  16.596  31.514   0.937  0.3764 -0.1136 -0.1347
31895W        W74911  29.816   8.839  10.382 -0.1234 -0.1070  0.1615
31896W        W74912   5.751  14.018   1.405  0.1275  0.2933  0.1444
31897W        W74913  20.829   5.845  21.133 -0.1493  0.0298  0.2553
31898W        W74914  29.237  21.219  20.692  0.0501  0.3113  0.0349
31899W        W74915  34.450  27.967   2.227  0.0899 -0.2216  0.3110
31900W        W74916  11.060  16.041   8.952 -0.0042 -0.0842 -0.0374
31901W        W74917  23.637   2.080  17.769 -0.0707  0.0829 -0.1894
31902W        W74918  19.536   0.245  24.296  0.1503  0.0068 -0.1308
31903W        W74919   4.415  26.732  16.560 -0.1284 -0.0673 -0.2596
31904W        W74920  18.586   9.703  25.209 -0.1852  0.0120 -0.0317
31905W        W74921  23.040  14.775  20.844 -0.5300  0.0717  0.1033
31906W        W74922  32.691  11.739  20.417 -0.0532 -0.0045  0.1783
31907W        W74923  26.987  10.124  22.369 -0.0504 -0.1562 -0.1317
31908W        W74924  27.218  12.212  16.208  0.1382  0.0541  0.3285
31909W        W74925  18.563   3.870  24.203  0.0939 -0.1525 -0.3332
31910W        W74926  17.270   9.484  14.759  0.0327  0.1711  0.1545
31911W        W74927  32.968   8.640  18.134  0.0832 -0.0930 -0.2885
31912W        W74928  29.374   7.546  22.832  0.0106 -0.0644  0.0221
31913W        W74929   6.023  10.723  17.739 -0.1728  0.0111  0.1669
31914W        W74930  31.941  26.971  27.346  0.1586  0.2841  0.2447
31915W        W74931  23.457   9.129  21.805 -0.3126 -0.0391  0.0330
31916W        W74932  27.965  32.337  20.138  0.1899  0.0842  0.0269
31917W        W74933  33.769  10.429  16.766  0.0661 -0.1071 -0.0886
31918W        W74934  24.591   7.724  23.685 -0.0443  0.3078  0.0435
31919W        W74935  29.612   7.171  19.585 -0.1340  0.3455 -0.4480
31920W        W74936  33.773   7.592  18.804  0.0804 -0.0604 -0.1745
31921W        W74937  17.437  34.379  26.827  0.1517  0.1569 -0.1894
31922W        W74938  31.567  33.906  25.920  0.4040  0.3277  0.0202
31923W        W74939  33.136  15.371  17.434 -0.0735 -0.0973 -0.2787
31924W        W74940  27.876   2.215  20.509 -0.1258 -0.0698 -0.1554
31925W        W74941   5.943  13.739  26.350  0.0876 -0.0163  0.4589
31926W        W74942   4.848  10.650  21.007 -0.2537  0.0818 -0.0746
31927W        W74943   8.799  24.114  28.691  0.1257  0.1917  0.3954
31928W        W74944   5.592  26.564  14.269  0.2483  0.1021 -0.1081
31929W        W74945  29.235   8.598  17.532  0.1802  0.1391 -0.1294
31930W        W74946  28.386   3.584  16.715  0.1049  0.0976 -0.0161
31931W        W74947  22.194  20.725  18.117 -0.0123  0.3831  0.0195
31932W        W74948  34.218  15.092  26.952 -0.0885 -0.0128  0.0744
31933W        W74949  29.372   5.723  18.230 -0.0105 -0.1069  0.0999
31934W        W74950   5.231   0.866  22.030  0.3161 -0.1808  0.1902
31935W        W74951  26.061  31.868  20.898  0.4244 -0.1387  0.1538
31936W        W74952  20.546  28.442   0.912  0.0852 -0.1911  0.0225
31937W        W74953  24.341  28.295  16.007 -0.0362  0.0468 -0.0281
31938W        W74954  34.692   6.147  22.936  0.0894  0.1367  0.2303
31939W        W74955  20.330   5.295   3.546  0.0223 -0.1967  0.4284
31940W        W74956   0.071   8.275  21.246 -0.0659  0.2413  0.1035
31941W        W74957  19.827  33.521  15.714  0.3589  0.0920 -0.1241
31942W        W74958  32.765   4.245  21.553 -0.0186  0.1735 -0.3698
31943W        W74959  14.372   9.260  20.637  0.2385 -0.0521 -0.5052
31944W        W74960  24.240  10.597  14.944  0.1057  0.1241 -0.0557
31945W        W74961   1.581  20.980  24.087  0.2272  0.2546 -0.0444
31946W        W74962   2.668   0.755  14.566 -0.1093 -0.0325 -0.0164
31947W        W74963  11.833   7.635  21.894  0.3044 -0.0093  0.2057
31948W        W74964   4.007  32.820  17.924  0.2861  0.1370 -0.2808
31949W        W74965  31.533   0.990  24.401  0.0773 -0.0481 -0.0647
31950W        W74966   7.117   8.027  15.729  0.3352  0.2803 -0.1028
31951W        W74967  10.899  10.548   0.559 -0.0526  0.1856  0.1442
31952W        W74968   4.660  34.432  17.368  0.1102 -0.3278 -0.0759
31953W        W74969  28.360   0.442  27.243 -0.0076  0.0210  0.3044
31954W        W74970  27.117  31.337  20.805  0.1900 -0.2980 -0.2745
31955W        W74971   2.235  32.963  15.300 -0.1278 -0.0807 -0.2199
31956W        W74972   9.789  12.809  14.627 -0.1815 -0.0825  0.1332
31957W        W74973  20.845  24.751  13.992  0.0023 -0.2536  0.2492
31958W        W74974  33.696  15.329  16.118 -0.0889  0.0603 -0.0457
31959W        W74975  28.673  30.723  22.528 -0.2870 -0.1005 -0.0965
31960W        W74976   6.365  10.709  21.086 -0.1276  0.4328  0.1835
31961W        W74977  25.056   1.260   4.928 -0.1107 -0.1142  0.0516
31962W        W74978   0.119   3.896   2.573  0.1506  0.1251 -0.0912
31963W        W74979  14.294  31.718  19.920 -0.2236  0.0925 -0.2825
31964W        W74980  30.406  20.610  20.019  0.1466 -0.3320 -0.1272
31965W        W74981  24.343  11.621  21.279  0.0942 -0.0529 -0.0652
31966W        W74982   4.000  11.045  17.547  0.0743  0.1982  0.1082
31967W        W74983  32.265  13.502   0.528  0.3400  0.1997 -0.0053
31968W        W74984  33.136  34.089   0.364 -0.4737  0.3124 -0.1464
31969W        W74985   9.558   8.279  20.283  0.0140 -0.1185 -0.0192
31970W        W74986  33.997  10.400  25.257  0.2573  0.1363  0.0486
31971W        W74987  29.251  32.693  22.025  0.1015  0.3182 -0.2613
31972W        W74988  25.840  22.493  20.036 -0.1723 -0.0950  0.1747
31973W        W74989  25.829   7.793  20.480 -0.1527 -0.3536  0.1189
31974W        W74990   5.085  32.414  25.192  0.0537 -0.1703 -0.0255
31975W        W74991   4.497  16.540  15.905  0.0064  0.0673 -0.0362
31976W        W74992   2.728  12.511  23.677 -0.0430 -0.0721  0.1482
31977W        W74993   4.002   3.159  17.441  0.1165  0.0228  0.1573
31978W        W74994  33.823  32.053  17.931 -0.1047 -0.0373  0.0753
31979W        W74995   1.903   3.252   3.346 -0.4856 -0.1958  0.0697
31980W        W74996   0.058  12.236  15.560  0.0328 -0.1671  0.0966
31981W        W74997   1.737  10.512  21.302 -0.0218  0.0153  0.1815
31982W        W74998  27.860  12.316  25.784 -0.2055 -0.1412  0.5604
31983W        W74999  20.742   4.916  17.387  0.2664 -0.0569 -0.1292
31984W        W75000  22.807  14.679  18.520 -0.2550 -0.0467 -0.2679
31985W        W75001  32.581   1.599   5.356  0.0169 -0.0656  0.0279
31986W        W75002   4.070   7.845  19.016 -0.0582  0.2796  0.1557
31987W        W75003   1.303  32.969  21.896  0.1791 -0.2129  0.1121
31988W        W75004  31.670  11.078  26.181 -0.1736  0.0630  0.2296
31989W        W75005   3.014   6.636   2.920  0.1213  0.1725  0.2823
31990W        W75006  27.185  29.986  27.088  0.5198  0.0859 -0.0703
31991W        W75007   0.010  18.499  16.866  0.1960  0.1251  0.1100
31992W        W75008  13.361   5.280  24.749  0.0468  0.1397 -0.1832
31993W        W75009  32.970  34.295  26.632 -0.1174  0.0530 -0.0171
31994W        W75010  17.283  34.380   3.469  0.0535  0.0787 -0.0728
31995W        W75011  32.532   8.517  21.619  0.1185  0.0961  0.1775
31996W        W75012  33.924   0.231  15.754 -0.0222  0.1441 -0.0995
31997W        W75013   4.294   9.987  28.612  0.0812 -0.3949 -0.1086
31998W        W75014  15.797   4.511  16.205  0.1815  0.1100  0.0080
31999W        W75015  31.024   2.808  18.305  0.3354 -0.2487 -0.3137
32000W        W75016  10.153  20.612  22.143 -0.3471 -0.2395  0.2301
32001W        W75017  25.361  30.025  21.161 -0.3213  0.2498  0.2679
32002W        W75018  24.764  34.192  24.408 -0.1233 -0.1008 -0.1224
32003W        W75019  24.590  28.614  19.390 -0.2536 -0.2649 -0.3066
32004W        W75020   2.191  22.366  24.862  0.3580  0.1474  0.2805
32005W        W75021   8.392  30.621   6.754 -0.4331  0.2965 -0.1682
32006W        W75022  25.140   4.496   0.911  0.2474 -0.0227 -0.2891
32007W        W75023  23.308   3.665  19.117 -0.1694 -0.0293 -0.2161
32008W        W75024  24.248  16.040  22.550 -0.0020 -0.0832  0.0607
32009W        W75025  31.856  33.349  19.830 -0.0286 -0.0554 -0.4593
32010W        W75026  31.570  16.917  17.732 -0.3517 -0.1338  0.1743
32011W        W75027  23.837  29.605   1.188 -0.1309  0.0013  0.0613
32012W        W75028  24.780   4.450  20.774  0.1096 -0.2476  0.0248
32013W        W75029  32.616   0.541  22.882  0.2640  0.1378 -0.1409
32014W        W75030   4.631  12.714  22.758  0.0852  0.1101 -0.1914
32015W        W75031  21.781   0.875  28.961 -0.0342 -0.1036 -0.3522
32016W        W75032   0.640  26.515  24.974  0.0421  0.1357 -0.2337
32017W        W75033  31.745  31.166  18.165  0.0321  0.0343 -0.0737
32018W        W75034  31.126  34.453  15.019 -0.1129  0.1648 -0.1396
32019W        W75035  10.686  12.803  20.818  0.2478 -0.0129  0.0682
32020W        W75036  33.038  31.950  20.987 -0.0288  0.0158 -0.0840
32021W        W75037  20.203   3.522  18.538  0.3483  0.3057 -0.3363
32022W        W75038  27.235  27.076  27.992  0.0017 -0.0657  0.1623
32023W        W75039  28.986  10.806  17.647 -0.2824 -0.3562 -0.0194
32024W        W75040  24.030  10.949  18.525  0.1689 -0.1744 -0.0692
32025W        W75041   4.895  13.447  24.413 -0.0630  0.0458  0.2829
32026W        W75042   7.437   5.425  16.573  0.0462 -0.3669  0.0339
32027W        W75043   3.350  33.540  14.855  0.1187  0.0592 -0.0955
32028W        W75044  19.584   2.049  23.552  0.0744  0.0174  0.0621
32029W        W75045   2.819  15.550   2.904 -0.1105  0.0458  0.1192
32030W        W75046  26.498  33.391  18.318 -0.1568 -0.2395  0.0322
32031W        W75047  29.838   4.555  20.373 -0.2867 -0.2997 -0.1296
32032W        W75048  29.861  27.043   7.759 -0.1296  0.2327  0.0987
32033W        W75049  30.624   5.885  26.630 -0.2710  0.0234  0.0746
32034W        W75050  26.053  32.058  17.328 -0.0332 -0.1806  0.1542
32035W        W75051  28.712   6.724  16.342  0.1153 -0.0505  0.5324
32036W        W75052   0.507   5.778  15.472 -0.2487 -0.1855 -0.0160
32037W        W75053   4.303  13.249  21.423  0.0085  0.2130  0.3038
32038W        W75054  21.555   9.685  17.276  0.1246 -0.1009 -0.1109
32039W        W75055  16.706  33.074  16.601  0.0934  0.0153 -0.1759
32040W        W75056   3.538   9.726  18.945 -0.0148  0.2186 -0.2101
32041W        W75057  19.721  29.667  25.500  0.0755 -0.1696  0.0034
32042W        W75058   3.117   3.048  19.702  0.1264 -0.1522  0.1282
32043W        W75059  20.950   5.812  22.269  0.1638  0.1238 -0.0984
32044W        W75060  26.974   8.619  18.113 -0.4317 -0.0983  0.1204
32045W        W75061  25.683  24.760  24.705 -0.0716 -0.3134  0.2896
32046W        W75062  19.904   3.798  15.853  0.3871 -0.0619  0.3824
32047W        W75063  28.630   2.297  15.729  0.1859  0.1547 -0.1039
32048W        W75064  32.374   8.829  25.985  0.0136 -0.1726  0.0409
32049W        W75065  21.434   8.706  20.403 -0.1509  0.1098  0.4511
32050W        W75066   1.097   1.006  20.921  0.4262  0.0504 -0.2808
32051W        W75067   0.473  15.364   2.719  0.2713  0.0284 -0.0082
32052W        W75068   2.307  23.931  17.687  0.0847  0.0304 -0.1852
32053W        W75069  23.644   9.285  18.902 -0.0054 -0.0609 -0.1457
32054W        W75070  25.249   3.394  18.085 -0.3847  0.3817 -0.2004
32055W        W75071  25.721   9.046  14.896  0.0567  0.1212  0.1107
32056W        W75072  34.209   4.596  23.633 -0.2063  0.1642 -0.0966
32057W        W75073   4.037   2.297  17.388 -0.1346  0.1961 -0.1895
32058W        W75074  31.514  10.902  17.902 -0.0518  0.3528 -0.0810
32059W        W75075   2.412   6.107  20.345 -0.3128  0.2830 -0.0191
32060W        W75076  29.926  10.102  26.782  0.1070  0.0356  0.0848
32061W        W75077   4.418   1.429  18.276 -0.0586 -0.0666  0.2292
32062W        W75078  25.883  33.680  27.868  0.1220  0.0094 -0.2478
32063W        W75079   6.202  19.167  22.305 -0.1763  0.3693 -0.0625
32064W        W75080  20.480   4.933  22.484  0.1039  0.2353  0.0057
32065W        W75081  29.516   0.331  20.726  0.1830  0.0935 -0.0158
32066W        W75082   4.240  10.553  27.710 -0.2536 -0.3260 -0.3177
32067W        W75083  30.924  12.896  24.097  0.0030  0.2092  0.1594
32068W        W75084   3.700   4.940  15.890  0.2099 -0.4111  0.0139
32069W        W75085   0.460  12.912  15.697 -0.2272  0.1852 -0.0197
32070W        W75086  28.218   8.810  15.980 -0.1276  0.1673 -0.0122
32071W        W75087   2.434  24.972   0.345  0.1988  0.1703 -0.2417
32072W        W75088  28.349  18.572  17.592 -0.1078 -0.1075  0.0498
32073W        W75089  14.074   9.073  14.098 -0.1834 -0.1863  0.2076
32074W        W75090  24.495   1.383  16.090 -0.1109 -0.1442 -0.0635
32075W        W75091  10.607   2.999  19.077 -0.1802 -0.3166 -0.1108
32076W        W75092   0.162  27.011  24.589 -0.0405 -0.4248  0.1906
32077W        W75093   0.873  30.589  16.002 -0.0625  0.0784  0.2333
32078W        W75094  11.890  11.477  15.307 -0.4177  0.2004 -0.3187
32079W        W75095   2.000  12.416  19.727  0.0990  0.0467 -0.1883
32080W        W75096  34.039  10.102   2.002  0.1466 -0.0717 -0.0820
32081W        W75097  23.267  28.061   5.073  0.0462  0.0874  0.1660
32082W        W75098  28.086   8.383  15.746 -0.2054  0.0077 -0.0012
32083W        W75099  27.763  28.315  16.831 -0.2282 -0.2021 -0.2012
32084W        W75100  20.327  12.996  12.952  0.3249 -0.0747 -0.0619
32085W        W75101   8.268  15.363  24.842 -0.1726 -0.0541 -0.0270
32086W        W75102  25.750   3.573  20.798  0.0204 -0.0739  0.2319
32087W        W75103  33.084  15.646  26.848 -0.2113  0.2144 -0.1534
32088W        W75104   7.880  19.689  16.240  0.0895 -0.1521 -0.1837
32089W        W75105  18.498  28.325  28.751 -0.0330 -0.3774 -0.3258
32090W        W75106  26.589  18.359  27.207  0.1175 -0.1369 -0.1766
32091W        W75107  17.387  26.101   1.446  0.1452  0.1125  0.2983
32092W        W75108  33.685   8.708  22.891  0.2051  0.0604  0.0331
32093W        W75109  18.617   2.471  19.118  0.2620  0.1020 -0.3853
32094W        W75110  11.672   5.371  21.043 -0.1576  0.1908 -0.0636
32095W        W75111  32.767   6.618   9.078  0.0392 -0.0863 -0.0105
32096W        W75112  30.052  30.734  17.759 -0.1225  0.0645 -0.0475
32097W        W75113  23.522  34.499  17.715  0.1871  0.2080  0.1237
32098W        W75114  30.414   9.111  15.576 -0.0235 -0.1226  0.3041
32099W        W75115  23.988  13.873  17.049 -0.3225 -0.2713 -0.1050
32100W        W75116  34.754   6.534  19.662 -0.0774 -0.0994 -0.1902
32101W        W75117  19.363   5.905  25.062 -0.1929 -0.1756 -0.1317
32102W        W75118   1.996  33.920  22.202 -0.3426 -0.5153 -0.4086
32103W        W75119  24.897  31.545  27.737 -0.1415 -0.3427 -0.2049
32104W        W75120  26.540   4.672  19.994  0.1804 -0.0754 -0.1109
32105W        W75121  32.363  19.847  20.082 -0.2565  0.1146  0.1611
32106W        W75122   1.396  11.739  15.068 -0.1462  0.0604 -0.0479
32107W        W75123   6.419  10.094  10.004 -0.1430 -0.0770  0.3674
32108W        W75124  18.655   7.216  14.718 -0.1087 -0.1656  0.1999
32109W        W75125   3.776   6.780  18.874  0.2197 -0.2234  0.2493
32110W        W75126  26.861  34.532   8.312 -0.1193 -0.2093 -0.0419
32111W        W75127  33.924  33.466  21.646  0.0131 -0.4346  0.3535
32112W        W75128   7.440   0.894  14.050  0.0988 -0.2389  0.2135
32113W        W75129  33.326   7.364  19.827  0.0393 -0.2299 -0.0554
32114W        W75130  33.367  17.200  15.192  0.1154 -0.2803  0.0450
32115W        W75131  28.046   7.736  15.057  0.0097  0.0314 -0.0029
32116W        W75132   2.818  15.770  24.289  0.0809  0.1945 -0.1697
32117W        W75133  19.197   9.031  15.896 -0.1110  0.0063 -0.1379
32118W        W75134   3.135  26.461  16.412 -0.1344 -0.3258 -0.2297
32119W        W75135  28.555   9.166  17.248 -0.1946  0.2029  0.3590
32120W        W75136   7.404   7.078  14.093  0.0029 -0.1045 -0.0186
32121W        W75137  27.678  12.124  20.679 -0.2896  0.1857 -0.0450
32122W        W75138  15.054   1.938  19.577  0.2149 -0.1106  0.0215
32123W        W75139  34.185  18.906  18.731 -0.0967 -0.0570  0.1858
32124W        W75140  31.078  21.718   3.410  0.2032  0.1285 -0.1101
32125W        W75141  32.587  19.809  18.173  0.0343 -0.0314  0.1030
32126W        W75142  32.301  29.204   1.001 -0.1971  0.0611 -0.1079
32127W        W75143  16.115   4.842  23.211  0.1225  0.4897  0.2545
32128W        W75144  25.884   1.275  18.203 -0.0584  0.2622 -0.0312
32129W        W75145  29.001   0.884  25.982 -0.0318  0.1673 -0.1060
32130W        W75146  32.541  33.851   9.405  0.2066  0.2958  0.5549
32131W        W75147   5.894  33.927  26.368  0.0561 -0.1488 -0.3319
32132W        W75148   8.722  18.595  20.504 -0.2973  0.0562 -0.1153
32133W        W75149   5.131  32.430  20.840  0.1873  0.3219  0.2549
32134W        W75150   1.443   8.995  15.023  0.1100 -0.0387  0.1236
32135W        W75151  27.680  12.846  23.490 -0.4141  0.0479  0.2306
32136W        W75152  17.549  30.475  24.401  0.1436  0.0264 -0.0410
32137W        W75153  22.435  22.582  21.424 -0.0657  0.1004  0.0911
32138W        W75154  24.723  11.633  19.963  0.0277  0.2129  0.3525
32139W        W75155  29.641   1.284  21.484  0.0934 -0.1377 -0.2411
32140W        W75156  10.630  24.976  18.401  0.0229 -0.0944 -0.0680
32141W        W75157  34.583   9.252   5.363  0.0903  0.3355  0.1850
32142W        W75158  18.179  10.803  23.691 -0.0590 -0.1339 -0.0319
32143W        W75159  32.498  32.754  29.025 -0.0311  0.1905 -0.0798
32144W        W75160  13.397  23.902  21.374  0.2730  0.1734  0.1277
32145W        W75161   1.349  10.882  24.728 -0.0659 -0.0539 -0.0738
32146W        W75162  25.990  13.768  26.674  0.0929 -0.0154  0.4359
32147W        W75163   5.411  24.823  15.020  0.0109  0.1248  0.1595
32148W        W75164   4.844   2.974  20.447  0.1351  0.1611 -0.4421
32149W        W75165  23.283   3.019  23.710  0.0505  0.0870 -0.3356
32150W        W75166  26.591   6.950  16.219 -0.0672  0.1165  0.1044
32151W        W75167  24.997   8.051  21.800  0.3591  0.2661  0.0297
32152W        W75168  20.589  10.388  20.311  0.1710 -0.1700  0.3245
32153W        W75169  28.128  26.717  18.389  0.1773 -0.1716 -0.0466
32154W        W75170  28.412  23.782  15.497 -0.0823 -0.2468  0.0579
32155W        W75171   6.992   7.581  17.301  0.0702 -0.2953 -0.1198
32156W        W75172  10.809  11.905  15.081  0.1608  0.0413  0.0200
32157W        W75173  30.735   7.412  20.241  0.3430 -0.0381 -0.1492
32158W        W75174  31.566   9.707  16.700  0.0378 -0.1452 -0.0688
32159W        W75175  24.381   0.555  19.023  0.3188  0.0872  0.1779
32160W        W75176   5.608  24.513  19.715  0.2125 -0.1513  0.0893
32161W        W75177   4.049   5.261  20.374  0.1943 -0.0701 -0.0508
32162W        W75178  31.599  15.165  18.333 -0.3676  0.1243  0.1620
32163W        W75179  23.238  23.853  18.664 -0.0100  0.0713  0.0658
32164W        W75180  12.293   1.144  18.006  0.0017  0.0753  0.0709
32165W        W75181  23.071  22.112  20.057  0.0000  0.1423  0.1968
32166W        W75182  11.675  32.663  14.923 -0.1686 -0.1228 -0.0056
32167W        W75183  34.188  20.293  16.480  0.0887  0.1184  0.0759
32168W        W75184   0.322  16.837  14.823 -0.1983 -0.3743  0.0883
32169W        W75185  17.159   7.782  17.614 -0.0238 -0.1396 -0.0967
32170W        W75186  22.801   8.336  18.720  0.1768 -0.0872 -0.0591
32171W        W75187  26.306  24.895  16.841 -0.0137  0.2922 -0.2228
32172W        W75188   7.088  16.022  22.211  0.1568  0.1026  0.0464
32173W        W75189  25.245   0.859  24.890  0.1370 -0.4130  0.1596
32174W        W75190  24.664  21.786  26.400 -0.2256  0.0507 -0.1209
32175W        W75191  25.717  33.084   0.274 -0.2081 -0.3864 -0.3711
32176W        W75192  14.319  33.669  23.729 -0.1726 -0.2386  0.0775
32177W        W75193  11.889   4.182  14.875 -0.3370 -0.0093 -0.0164
32178W        W75194   0.163  17.246  16.918 -0.2378  0.1872  0.0633
32179W        W75195  31.897  32.486  16.461 -0.3631  0.1700 -0.3314
32180W        W75196  10.770  14.590  12.572 -0.0384  0.1171 -0.2192
32181W        W75197  12.519   7.759   0.855 -0.3312  0.0867  0.0596
32182W        W75198  26.345  11.339  15.800 -0.0317  0.4239  0.0607
32183W        W75199  19.494   0.685  15.610  0.3643 -0.0299 -0.2011
32184W        W75200  25.729   6.598  17.620 -0.1855 -0.1182 -0.1812
32185W        W75201  31.960  31.862  27.750  0.1519  0.3318  0.0634
32186W        W75202  10.474  16.641  21.931 -0.0158  0.2564  0.0214
32187W        W75203  32.895   4.304  22.004  0.1198  0.1613 -0.0853
32188W        W75204  33.472   6.862  25.785  0.0840 -0.0187  0.2302
32189W        W75205  22.549   9.182  21.685 -0.0673  0.1074  0.3617
32190W        W75206   7.215   0.475  14.269 -0.0712  0.0545  0.0203
32191W        W75207  12.051  12.641  13.290  0.0629  0.3777  0.1685
32192W        W75208  32.992  32.209  15.650 -0.0549 -0.2730 -0.0677
32193W        W75209   4.350   4.103  19.027  0.0294  0.1557  0.0374
32194W        W75210   4.145  16.971  24.738  0.2488  0.0807 -0.2558
32195W        W75211  31.527  33.618  16.162  0.1844 -0.3119  0.0670
32196W        W75212  23.385  34.402  18.207  0.0738  0.1055  0.4074
32197W        W75213  23.017  30.747  17.863  0.2624 -0.1148 -0.1472
32198W        W75214   7.800  14.341  19.468 -0.0029 -0.0184 -0.0983
32199W        W75215   0.155  13.689  17.898 -0.3377  0.4699 -0.2079
32200W        W75216  29.622   0.697   4.865  0.1192  0.1359 -0.2945
32201W        W75217  21.662  11.510  18.955  0.1411 -0.1207 -0.1198
32202W        W75218   3.287   6.954  24.311  0.0612 -0.1521 -0.1520
32203W        W75219  32.035   9.781  15.510  0.0011 -0.2348 -0.0006
32204W        W75220  24.786  12.555  25.064  0.1939  0.0014 -0.2011
32205W        W75221  25.246  10.962  16.144  0.1039  0.0536  0.0242
32206W        W75222  31.454   0.178  21.882  0.2953 -0.2772  0.3044
32207W        W75223  14.202  29.860  28.542 -0.1095  0.1544 -0.1872
32208W        W75224  23.730  12.708   2.326  0.0818 -0.0379  0.0560
32209W        W75225  12.564  25.591  21.477  0.0836  0.0232  0.0751
32210W        W75226  22.134  11.545  18.235 -0.2206 -0.0101 -0.2320
32211W        W75227  31.433  14.071  17.531  0.3702 -0.0891  0.0934
32212W        W75228  12.602  17.062  23.294  0.2052 -0.0752  0.0362
32213W        W75229  24.910  24.560  26.249  0.5145  0.0048 -0.0277
32214W        W75230   7.817  32.157   2.565  0.3303  0.1523 -0.2078
32215W        W75231   5.613  28.814   4.830 -0.0136 -0.1651 -0.1143
32216W        W75232   3.659   4.325  24.843  0.1115  0.2904 -0.0933
32217W        W75233  22.162  16.176  13.259 -0.1950  0.1186  0.0556
32218W        W75234   1.922  15.311  17.144 -0.0521 -0.1760  0.1178
32219W        W75235  11.389  26.052  22.031 -0.0883  0.2119 -0.2302
32220W        W75236  33.625   0.190  19.082  0.2246  0.4553 -0.0843
32221W        W75237  33.217  10.064  15.001 -0.0192  0.2847 -0.0656
32222W        W75238  30.230  21.215  18.787 -0.1211 -0.4160 -0.1774
32223W        W75239  12.465  28.537  14.263 -0.3715 -0.0892 -0.0979
32224W        W75240  31.222   3.900  24.523  0.1269 -0.1315 -0.0731
32225W        W75241  24.459  26.500  20.923 -0.2203  0.4270 -0.0692
32226W        W75242   6.470   7.301   7.066 -0.4316 -0.0407 -0.1789
32227W        W75243  11.955  10.714  19.954 -0.2158  0.2937  0.0975
32228W        W75244  28.982   7.750  24.659  0.2194  0.1141 -0.3765
32229W        W75245  25.897  13.398  14.085 -0.1126 -0.1650  0.1071
32230W        W75246   9.917  20.649  27.074 -0.1213 -0.0209 -0.0403
32231W        W75247  30.532  28.884  16.290 -0.1777  0.0863  0.1975
32232W        W75248  31.113  15.663  22.526  0.0157 -0.0190  0.0753
32233W        W75249  22.830  11.787  24.544 -0.1670 -0.0482  0.1985
32234W        W75250  13.109  11.907  17.119  0.2240  0.0866 -0.2323
32235W        W75251  34.286   7.435  19.624 -0.0703 -0.0022 -0.0834
32236W        W75252  31.909   8.102  27.874 -0.0278  0.2369  0.0549
32237W        W75253  21.749   4.453  15.136 -0.2661  0.3246 -0.1961
32238W        W75254  11.284  19.560  12.992 -0.0885 -0.0463  0.0152
32239W        W75255  28.575  15.734  15.940 -0.1924  0.1074  0.0767
32240W        W75256   2.061   5.026  21.486  0.2055  0.2660 -0.2051
32241W        W75257  26.095  10.863  22.782 -0.0988  0.2463  0.1404
32242W        W75258   2.622  18.469  22.156  0.2654 -0.3342  0.0628
32243W        W75259  34.433   0.780  15.356 -0.0018  0.1503 -0.2279
32244W        W75260  19.028   4.129  17.984  0.0457  0.2024  0.0359
32245W        W75261  25.983  17.266   2.767 -0.0175 -0.3251  0.2070
32246W        W75262  25.747   4.821  23.536 -0.1158  0.3344 -0.0592
32247W        W75263   6.117  29.750  28.082  0.0253 -0.3737  0.1051
32248W        W75264  22.195  28.572   0.146 -0.2937 -0.0276 -0.1520
32249W        W75265   9.040   9.900  18.707 -0.2378  0.4980  0.0691
32250W        W75266   3.491  24.019  18.352 -0.0958  0.0514 -0.0780
32251W        W75267   4.198   3.521  20.856  0.0302 -0.3682 -0.3081
32252W        W75268  33.090  11.784  24.358 -0.0225 -0.0013  0.1396
32253W        W75269  23.160  32.617  15.324  0.1596 -0.2374  0.1482
32254W        W75270  29.886  28.868  29.236  0.0472 -0.0553 -0.1005
32255W        W75271  29.215   1.855  24.619 -0.0298 -0.0355 -0.1148
32256W        W75272  26.341  13.586  14.110 -0.1375 -0.1636  0.1334
32257W        W75273   4.373  22.032  20.960  0.1694  0.2450 -0.1090
32258W        W75274  32.936  17.340  17.490  0.3044  0.0343  0.1587
32259W        W75275  33.781   5.777  17.046  0.2151  0.4396 -0.1452
32260W        W75276  34.408  29.484  21.640  0.0355  0.2270 -0.0456
32261W        W75277  26.443   8.347  16.459 -0.0832  0.0726 -0.0920
32262W        W75278  17.256  10.918  25.273 -0.1766 -0.2947  0.0475
32263W        W75279  30.303  10.282  21.165  0.1370 -0.0523  0.0014
32264W        W75280  26.828  17.376  20.200 -0.1472 -0.0930 -0.0303
32265W        W75281  24.342   2.076  23.824 -0.0285 -0.0808  0.1855
32266W        W75282  34.216  32.751  14.226  0.0400 -0.0453 -0.1842
32267W        W75283  26.806   9.107  16.866  0.1742  0.0592  0.0897
32268W        W75284  33.132   3.044   0.692 -0.0321  0.1634 -0.0467
32269W        W75285   2.524   9.018  15.859  0.0083 -0.0290  0.2348
32270W        W75286   9.152   0.936   0.973  0.0159  0.1180  0.1967
32271W        W75287  10.873  28.593  16.619 -0.0034 -0.1512 -0.1388
32272W        W75288  32.073  19.555  18.252 -0.0512 -0.2193  0.0210
32273W        W75289   1.196  31.700   0.303  0.0420  0.1135  0.2128
32274W        W75290  12.331   5.398   0.466 -0.1187  0.4289 -0.5285
32275W        W75291  18.713   7.695  27.636 -0.0582 -0.3696 -0.0635
32276W        W75292   1.520  10.352  18.244  0.2329 -0.0828 -0.0409
32277W        W75293   8.240   8.622  20.690 -0.1203 -0.0732  0.0115
32278W        W75294  28.906  20.747  18.284 -0.1992 -0.2463  0.0984
32279W        W75295  30.832   1.822  19.606 -0.2428 -0.2037  0.1774
32280W        W75296  29.026  10.835  17.098  0.0242  0.1247  0.1076
32281W        W75297   3.828  29.319  21.108  0.5458 -0.1997 -0.0385
32282W        W75298  21.029   0.743  16.788  0.3212  0.0460 -0.0338
32283W        W75299  14.209  34.660  14.953 -0.1526 -0.0183 -0.2351
32284W        W75300  33.954  11.169  20.300  0.2061  0.2167  0.0818
32285W        W75301   4.325   8.663  20.665 -0.1533 -0.2963  0.0735
32286W        W75302   6.331  20.429  13.560  0.0208  0.0271 -0.0080
32287W        W75303   3.791   4.521   1.379  0.0244  0.2475 -0.0560
32288W        W75304  34.033  20.926  14.810 -0.4389 -0.0793 -0.0918
32289W        W75305   7.185   8.573  22.362  0.2644  0.1064  0.1390
32290W        W75306  32.592   6.154  28.858 -0.2265  0.1218  0.2496
32291W        W75307  33.420   3.890  14.797  0.1744 -0.3328  0.1142
32292W        W75308  20.837   0.139  27.685  0.4297  0.0625  0.0371
32293W        W75309  33.426  33.525  23.089  0.1419 -0.3023  0.3680
32294W        W75310  28.393   0.607  22.434 -0.0786 -0.0544  0.4937
32295W        W75311   8.125   7.928  18.892 -0.1543  0.3143 -0.2157
32296W        W75312  12.756   5.519  26.024  0.0980 -0.1030 -0.4023
32297W        W75313  31.697  19.457   0.077 -0.2822 -0.1811  0.0356
32298W        W75314  22.858  32.977  24.605 -0.1387 -0.1633 -0.3153
32299W        W75315  32.724  25.596  18.877  0.2495  0.3851  0.2055
32300W        W75316  31.998  15.530   8.456  0.2026 -0.1800 -0.2057
32301W        W75317  32.783  17.874  21.718  0.0129 -0.0036 -0.1721
32302W        W75318  31.480  33.288   7.675 -0.0347  0.2607  0.4537
32303W        W75319  28.368   1.935   2.238 -0.2486 -0.2060  0.0941
32304W        W75320   2.682  13.747  18.003  0.1226  0.2726 -0.1740
32305W        W75321   5.373  30.365   0.255  0.2337 -0.0162  0.1205
32306W        W75322   4.341   9.977  14.584  0.0630 -0.0667  0.3193
32307W        W75323   3.905   6.384  22.341 -0.0476  0.2125 -0.0820
32308W        W75324   7.997   2.650  22.664  0.0960  0.1533 -0.3471
32309W        W75325  34.004   7.631  16.352  0.0892  0.2520  0.1559
32310W        W75326  11.367  12.415  22.795  0.0477 -0.2331 -0.3661
32311W        W75327  19.843   3.257  16.094 -0.1065 -0.0974 -0.1135
32312W        W75328   4.616  23.269  22.696 -0.0967  0.1667  0.5879
32313W        W75329  33.775  25.715  26.555 -0.0160  0.2680  0.0532
32314W        W75330  29.286  32.535   2.671  0.0182  0.0064  0.1339
32315W        W75331   0.429  24.632  15.472  0.0789 -0.2779 -0.1406
32316W        W75332  25.358   2.769   1.281 -0.4282 -0.0366  0.1002
32317W        W75333  12.031   7.332  20.646  0.0671 -0.0575  0.1348
32318W        W75334  26.098  15.019  26.306  0.0043  0.0567  0.3492
32319W        W75335  26.679  27.678   2.123  0.0540  0.0188 -0.0225
32320W        W75336   4.888  11.635  14.220 -0.0853  0.1440  0.0896
32321W        W75337  23.241   5.447  24.258  0.0613  0.0038  0.1977
32322W        W75338  18.617   5.738  24.581 -0.2628 -0.0062  0.2557
32323W        W75339  15.086  15.350  14.993 -0.0911  0.1143 -0.2066
32324W        W75340  31.373  15.092   4.423  0.2867  0.0328  0.0957
32325W        W75341  21.753   2.251  21.198 -0.1994  0.0835 -0.0559
32326W        W75342   6.016   1.076  18.965 -0.0959 -0.1140 -0.0104
32327W        W75343  31.769  15.156  22.444 -0.1895 -0.1681  0.2940
32328W        W75344  23.400  18.223  23.760  0.0771 -0.0581  0.3477
32329W        W75345  25.489  14.070  21.483  0.1920  0.1394  0.2390
32330W        W75346   2.173  27.792  24.589  0.0326 -0.0634 -0.0878
32331W        W75347   2.775  15.371  15.019  0.1030 -0.2081  0.2214
32332W        W75348  30.107   2.313   1.003 -0.0452  0.0236  0.1151
32333W        W75349  26.149   3.105  21.515  0.2016 -0.0520  0.0628
32334W        W75350   0.750   1.117  22.424 -0.1287  0.1567 -0.0564
32335W        W75351  31.551   3.006  21.035  0.0149  0.0774  0.1258
32336W        W75352  23.287   9.062  15.537 -0.2798 -0.0283 -0.0846
32337W        W75353   0.513  16.104   8.095 -0.1421 -0.4179 -0.1686
32338W        W75354   6.034   6.322  28.630 -0.1153  0.1239  0.0577
32339W        W75355  27.216  23.382  17.320 -0.0537  0.1663 -0.2918
32340W        W75356  26.933  30.351  26.794  0.0092  0.0808 -0.1832
32341W        W75357  34.526  25.579  19.984 -0.0470  0.2007  0.1131
32342W        W75358   2.218  13.781   2.692  0.0334 -0.0869  0.0415
32343W        W75359  18.450   0.396  18.457 -0.3123  0.0044  0.0324
32344W        W75360  21.665   5.125  21.160  0.1724 -0.2483 -0.4462
32345W        W75361  24.070  29.454  15.168  0.0067 -0.0648  0.0474
32346W        W75362   9.642  33.435  16.316  0.0193 -0.1460 -0.2849
32347W        W75363  34.341  32.290  22.248  0.0704 -0.2874  0.0357
32348W        W75364  22.264   9.931  18.514 -0.0935  0.4263 -0.0406
32349W        W75365  25.898  33.465  21.929  0.2331 -0.0161  0.2518
32350W        W75366   8.997   5.903  24.302  0.2165 -0.1032 -0.0845
32351W        W75367  29.049  16.134  15.758  0.0839  0.0249 -0.1522
32352W        W75368  27.568   1.415  26.541 -0.1359  0.1282  0.0773
32353W        W75369  14.986  13.838  21.985  0.0145  0.0289  0.1433
32354W        W75370   3.925  27.936  25.615 -0.1605  0.0559  0.0861
32355W        W75371  17.564   8.328  28.510 -0.0682 -0.2616 -0.1984
32356W        W75372  29.501  10.240  24.189  0.3384  0.1826  0.0661
32357W        W75373  20.637   5.530  21.932 -0.1113  0.0804 -0.1836
32358W        W75374  10.521   2.227  15.403  0.0065 -0.3796 -0.3165
32359W        W75375  32.939  17.372   3.174  0.1225 -0.0526 -0.2664
32360W        W75376   1.716  15.731   6.810  0.2488 -0.2767 -0.1903
32361W        W75377   4.573  23.674  17.379 -0.4008 -0.1455 -0.3799
32362W        W75378   6.922   9.155  19.185 -0.2225  0.3335 -0.2428
32363W        W75379   3.919  13.889  23.430 -0.1343  0.1010 -0.0207
32364W        W75380  34.346   6.990  22.138  0.1828  0.0923  0.1269
32365W        W75381   3.029   0.140  20.993  0.0121 -0.0155  0.1113
32366W        W75382  34.150   3.275  18.669  0.1098 -0.3977 -0.1840
32367W        W75383   0.144   6.376  18.973  0.0977 -0.0758  0.0704
32368W        W75384   0.813   3.133   5.891  0.1477  0.0540 -0.2481
32369W        W75385   0.630  12.460  10.270  0.4329 -0.0784 -0.0926
32370W        W75386  14.753  31.517  22.236  0.2023 -0.1747  0.0487
32371W        W75387   0.367  27.996  26.481 -0.1115  0.0880  0.0384
32372W        W75388  29.150  17.397  24.456  0.0462  0.2989  0.0343
32373W        W75389   4.568   7.558   2.012  0.1303  0.0817  0.1598
32374W        W75390  27.726  32.487  17.815  0.1454 -0.0556 -0.0518
32375W        W75391  18.914   0.788  25.025 -0.0541  0.0433  0.1517
32376W        W75392  25.800  28.455   4.231  0.1894  0.0974 -0.0914
32377W        W75393   7.307  31.361   8.850 -0.2950 -0.1078 -0.1108
32378W        W75394  21.518  31.915  25.041 -0.0373 -0.0108 -0.1292
32379W        W75395  27.189  18.002  14.505 -0.1470 -0.2464  0.2365
32380W        W75396   5.082  12.835  14.846 -0.0443 -0.0989 -0.1214
32381W        W75397  33.594  22.823  17.821  0.4893 -0.0772  0.2408
32382W        W75398  30.455   3.909  18.288 -0.1531  0.0439 -0.0133
32383W        W75399  30.808   0.131  21.218  0.0937 -0.0129 -0.1131
32384W        W75400  24.985   6.447   3.142  0.0814 -0.1296  0.1060
32385W        W75401  17.737  10.401   3.190  0.0383  0.3826 -0.0794
32386W        W75402   7.181  15.110  17.911  0.3432  0.0379 -0.1475
32387W        W75403  18.836  15.777  22.031  0.1707  0.4344  0.0159
32388W        W75404   2.840   0.720  20.353 -0.0007  0.0908  0.0113
32389W        W75405  24.882  14.780  22.871 -0.1615  0.1081  0.1234
32390W        W75406  25.129  30.578  25.565  0.0590  0.1468 -0.0699
32391W        W75407  26.594  26.603  26.890 -0.0858  0.1309 -0.0385
32392W        W75408   3.448  14.676  14.885 -0.1245  0.1412  0.1999
32393W        W75409  24.879  11.185  22.033  0.2422 -0.0601  0.1258
32394W        W75410  15.221   7.135  16.287 -0.5194  0.3515 -0.1372
32395W        W75411  15.237  32.534  14.802 -0.1814 -0.1976  0.1196
32396W        W75412  26.906   5.387   0.911  0.0688  0.1508  0.0786
32397W        W75413   0.274   7.725  29.203 -0.4099  0.0021 -0.1324
32398W        W75414  28.448   7.636  16.460  0.2065  0.0497 -0.1359
32399W        W75415  23.625  23.701   2.699  0.1237 -0.1356  0.0756
32400W        W75416  25.046  23.547  18.977  0.0409 -0.0856  0.0259
32401W        W75417   5.522  10.406  22.153  0.0199  0.1942 -0.3839
32402W        W75418  18.460  11.919  15.080  0.0777  0.0210  0.1414
32403W        W75419  17.803  17.277  12.206  0.2448  0.2391 -0.1244
32404W        W75420  32.993  12.376  17.762  0.0310  0.1525  0.1741
32405W        W75421  18.114  21.790  27.052  0.0720  0.0243  0.1919
32406W        W75422  31.336  11.764  24.523 -0.0261 -0.0538 -0.0519
32407W        W75423  24.657   8.428   2.089  0.0057  0.0446 -0.0648
32408W        W75424  27.329   4.174  19.031 -0.0103 -0.0858  0.2584
32409W        W75425   9.308  24.804  24.190 -0.0010  0.0913 -0.3502
32410W        W75426   4.880  30.246  23.607  0.1359  0.0250 -0.0551
32411W        W75427   1.441   9.107  14.445 -0.2207  0.3238  0.1535
32412W        W75428  31.077   2.635  20.860  0.0221  0.1561 -0.0550
32413W        W75429  29.460  13.409  27.253  0.1145  0.0180  0.0051
32414W        W75430  30.658  24.774  10.621 -0.1256  0.0920  0.1336
32415W        W75431  29.836  33.971  21.271  0.2901  0.2565  0.0736
32416W        W75432  27.432   1.446   9.183  0.0908  0.2458 -0.3305
32417W        W75433  33.742   5.535  22.297 -0.1187  0.3241  0.2183
32418W        W75434  16.630   7.955   1.734  0.3002  0.3060 -0.1249
32419W        W75435  32.731   0.544  20.473  0.0284 -0.0536 -0.1683
32420W        W75436   0.874  33.919  14.836 -0.0371 -0.0061  0.1091
32421W        W75437  22.737  31.487   1.325 -0.0100  0.3355  0.0257
32422W        W75438  25.503   3.460  25.274 -0.0158 -0.3974  0.0334
32423W        W75439  31.651   3.122   2.885  0.1193 -0.0208  0.1863
32424W        W75440   4.455   4.466  14.832  0.1089 -0.2025 -0.0156
32425W        W75441  33.888   5.174  15.641  0.0801  0.1477 -0.1823
32426W        W75442  34.247   5.254  22.330 -0.0633 -0.2025  0.0125
32427W        W75443  23.679  13.886  19.138 -0.1972  0.0104 -0.1956
32428W        W75444   7.290  27.351  25.014 -0.4759  0.0750  0.1038
32429W        W75445  31.650   6.987  28.812  0.1634  0.0031  0.0100
32430W        W75446   4.584  14.867  23.100  0.0097 -0.0818  0.3135
32431W        W75447   8.715  14.430  14.587  0.0335  0.2530  0.0706
32432W        W75448  28.000   2.494  24.565  0.2287  0.0289  0.1813
32433W        W75449   4.392  34.551  18.502 -0.0268  0.0257 -0.4036
32434W        W75450  34.235  14.621  16.857 -0.1224 -0.0848  0.4587
32435W        W75451   7.106  31.812  26.553 -0.1651 -0.0844  0.0076
32436W        W75452   0.779  31.161  14.021  0.1556  0.0692  0.1437
32437W        W75453  26.166  12.644  19.086  0.0076  0.1337 -0.0612
32438W        W75454  30.016  10.203  16.316  0.0430 -0.3064  0.1504
32439W        W75455  22.666  29.486   7.340 -0.0160  0.1568 -0.1211
32440W        W75456  31.831  18.399  24.482  0.0779  0.0798  0.2097
32441W        W75457   2.919   0.235  16.381  0.1008 -0.0820 -0.0349
32442W        W75458   5.042  22.957  29.232  0.0229 -0.1168 -0.1977
32443W        W75459  15.272  23.191   1.682  0.2000 -0.0072 -0.2246
32444W        W75460   6.546   7.000   1.864 -0.4111 -0.0995 -0.0375
32445W        W75461   8.230  34.645  25.048 -0.1834  0.0502 -0.1134
32446W        W75462  22.029   1.003  21.489 -0.0889  0.0346 -0.2139
32447W        W75463  32.904   3.314   6.645 -0.0697 -0.0248  0.1909
32448W        W75464  14.541  16.167  12.489 -0.2597  0.2407 -0.5007
32449W        W75465  33.947  13.128  14.757  0.1524 -0.2725  0.2699
32450W        W75466  32.688  30.379  25.770 -0.1915  0.0000  0.4460
32451W        W75467  28.466   1.491  17.902 -0.0858  0.1718  0.0167
32452W        W75468  26.634  25.234  21.866 -0.1574  0.2339 -0.1303
32453W        W75469  27.809   6.934  18.595  0.1793 -0.1944  0.2778
32454W        W75470  16.899  22.943  15.923 -0.0760  0.3155  0.1183
32455W        W75471  29.440   8.653  23.347  0.0074  0.0173  0.0185
32456W        W75472  31.064  34.360  16.622  0.1747 -0.0963 -0.2086
32457W        W75473  34.091  31.925  15.015  0.1694  0.0002  0.2771
32458W        W75474  22.077  29.561  17.935  0.0259 -0.1212 -0.4733
32459W        W75475  18.917   9.733  17.174  0.4755 -0.2962  0.1063
32460W        W75476  34.220  13.805  18.926  0.0490 -0.3042 -0.0530
32461W        W75477  20.317   1.570  24.066 -0.2175 -0.2849 -0.0094
32462W        W75478  26.678  29.185  25.833  0.1540  0.0089  0.3353
32463W        W75479  21.884  28.308   2.845  0.0838 -0.0009  0.0293
32464W        W75480  30.958  33.701  22.017  0.1193  0.0771  0.0988
32465W        W75481  22.480  34.584  22.737 -0.0665  0.2531 -0.2369
32466W        W75482  26.599  29.216  23.363  0.1400 -0.1058  0.1725
32467W        W75483  20.974   9.316  16.631  0.1101 -0.0958  0.0108
32468W        W75484  14.889  29.953  23.059  0.2319  0.1764  0.0367
32469W        W75485   8.886  24.952   1.894  0.3844  0.1452 -0.1932
32470W        W75486  28.023   3.063  25.318  0.4152 -0.2430 -0.4883
32471W        W75487  25.394   7.213   1.959  0.0609  0.0950 -0.0955
32472W        W75488  30.524  10.645  15.886  0.3072 -0.1080  0.0564
32473W        W75489   3.368  17.485  20.938 -0.0575 -0.2460 -0.0391
32474W        W75490  10.974  16.036  18.061  0.2730  0.2908  0.4430
32475W        W75491   4.151  18.505  18.045 -0.2271 -0.1593  0.0260
32476W        W75492  19.429  32.956  24.038  0.1116 -0.2692  0.2995
32477W        W75493  34.442  17.434  25.271 -0.0348  0.2321 -0.0434
32478W        W75494  26.728   7.058  25.682  0.0837 -0.2181  0.3342
32479W        W75495  19.638  11.605   5.589  0.3340  0.0311  0.2091
32480W        W75496  32.717   0.460   3.469  0.0951 -0.0166 -0.2075
32481W        W75497  34.212   5.616  15.508  0.4397  0.2581 -0.2686
32482W        W75498  34.687  12.520  27.596 -0.2031 -0.2106  0.5509
32483W        W75499   0.649   8.066  20.089 -0.0699  0.0341  0.1253
32484W        W75500  10.943   4.993  25.691 -0.0189  0.3431  0.1589
32485W        W75501  20.450  15.586  19.669 -0.1627  0.2998 -0.0784
32486W        W75502   5.489  11.488  18.345 -0.3896 -0.1695  0.0736
32487W        W75503  31.726  27.466   2.142 -0.0583  0.1272  0.2620
32488W        W75504  29.752   4.984  21.882  0.1632  0.0826 -0.2569
32489W        W75505  21.482  10.485  27.435  0.0103  0.1844 -0.0892
32490W        W75506  20.586   4.786  19.419 -0.2144 -0.1942  0.1805
32491W        W75507  30.129  34.514  24.090  0.0919  0.3256  0.2474
32492W        W75508  26.683   5.662  19.778 -0.2719  0.1090  0.0781
32493W        W75509  25.666  29.384  27.213  0.1758 -0.0757  0.1855
32494W        W75510  28.372  34.467  26.636  0.1348  0.0650  0.3665
32495W        W75511   3.052   7.338  22.743 -0.0151  0.0504 -0.0547
32496W        W75512  33.589  32.590  22.714  0.1003  0.0557  0.2463
32497W        W75513   8.751  25.571  16.766 -0.3538  0.0508  0.0597
32498W        W75514  29.093   8.463   0.193 -0.2696  0.2804 -0.1680
32499W        W75515  27.276  22.035  18.270 -0.0047 -0.2968  0.1329
32500W        W75516  33.694  15.567  23.781  0.0179 -0.4428  0.1460
32501W        W75517  13.701   4.008  19.520  0.1033  0.2075  0.0562
32502W        W75518  30.165   4.853  16.213 -0.1501 -0.0233  0.0438
32503W        W75519  29.124  10.250  28.392  0.0765 -0.0592  0.1323
32504W        W75520  30.176   2.261  27.523 -0.2456 -0.1019 -0.0016
32505W        W75521  33.307   8.940  20.418  0.2643 -0.1633 -0.0281
32506W        W75522  15.503  33.024  15.739 -0.2269 -0.2645  0.0558
32507W        W75523   7.807  25.972  29.023 -0.2288  0.0441 -0.0287
32508W        W75524   8.255   2.284  24.499  0.2314 -0.3515  0.1121
32509W        W75525  20.158   7.185  19.376 -0.0154  0.1198 -0.3748
32510W        W75526   5.273  28.487  17.728  0.0966 -0.0634  0.2852
32511W        W75527   0.165   2.542  20.482  0.1991 -0.0100  0.0711
32512W        W75528  14.450   8.671  14.352 -0.1971 -0.1735  0.1559
32513W        W75529  10.170  12.137  20.220  0.2234 -0.0248  0.0383
32514W        W75530   4.705   1.790  26.786 -0.2626 -0.0873  0.0450
32515W        W75531  26.416   7.339  15.907 -0.0997 -0.1765  0.0828
32516W        W75532  31.757   6.947   2.438 -0.1950 -0.1059  0.3139
32517W        W75533  20.249  19.224  16.653  0.0611 -0.1017 -0.0532
32518W        W75534   3.198   8.503  16.353  0.1397  0.1525 -0.2410
32519W        W75535   5.836  33.071  14.014 -0.0908  0.0028  0.1327
32520W        W75536  24.510   7.192  15.212 -0.0843 -0.0049  0.1298
32521W        W75537  29.098  32.308  25.051 -0.3191  0.1055  0.1055
32522W        W75538  29.319   4.944  27.009  0.0459  0.2302  0.2059
32523W        W75539  26.826  30.111   5.072  0.1664  0.0701  0.2094
32524W        W75540  29.245  13.195   7.104  0.0626  0.1332  0.1770
32525W        W75541  30.661  10.955  26.394  0.0427 -0.1418  0.2074
32526W        W75542   2.348   6.722  22.317 -0.1224  0.0389  0.0541
32527W        W75543  23.556  13.470   5.997 -0.1199  0.1526  0.1265
32528W        W75544  16.984  15.516  11.200 -0.1664  0.1461 -0.1429
32529W        W75545  12.961  31.361  18.213 -0.2626  0.0625 -0.1663
32530W        W75546  21.450   0.781   0.732  0.2849  0.1338 -0.2118
32531W        W75547  22.724  15.050  24.058  0.0201  0.0383  0.1650
32532W        W75548   1.225  15.300  23.784 -0.0682  0.0845 -0.2103
32533W        W75549   6.509   4.592  22.473 -0.0693  0.1130  0.0235
32534W        W75550   5.536   6.416  17.130  0.1848 -0.3221  0.2192
32535W        W75551  15.957  17.287  13.367 -0.2098  0.0268  0.2013
32536W        W75552  31.482  15.131  19.807  0.3415 -0.1003  0.0680
32537W        W75553   3.856  30.253  10.569  0.0091 -0.1290  0.2797
32538W        W75554  33.108   5.590  18.026  0.2269 -0.0079 -0.0385
32539W        W75555  28.717  32.982  20.271 -0.4365 -0.2926 -0.2031
32540W        W75556  31.104  14.317  24.208 -0.4044 -0.0481  0.0814
32541W        W75557  19.526   3.515   2.665  0.1441  0.1173  0.0893
32542W        W75558  25.880   8.878   8.347  0.0935 -0.0264 -0.1140
32543W        W75559  32.253   4.087   0.445 -0.0415  0.3582  0.0671
32544W        W75560  23.246  11.487  21.139  0.3313 -0.3042 -0.0986
32545W        W75561  25.364   9.664  22.142  0.1051 -0.0761 -0.3479
32546W        W75562   1.097  32.309  16.438 -0.1547  0.1258 -0.2098
32547W        W75563  33.587   1.412  21.754  0.1604 -0.2668  0.3497
32548W        W75564  22.343   4.874  20.176  0.2007 -0.3785 -0.0613
32549W        W75565   0.501   1.969  14.914 -0.2946 -0.1050  0.2365
32550W        W75566  32.450   0.095   1.686 -0.2613 -0.0644 -0.2799
32551W        W75567   5.550  22.388  23.272 -0.2340 -0.2011 -0.5419
32552W        W75568  12.232  26.991  15.682  0.3005 -0.1691 -0.0693
32553W        W75569   6.541  29.471  25.323  0.0765 -0.1488 -0.2081
32554W        W75570  26.346  34.155   0.008  0.1873  0.0016  0.2691
32555W        W75571  22.751   1.859  24.553  0.1609 -0.2288  0.1125
32556W        W75572   5.682   4.010   6.039  0.2987 -0.2503  0.0550
32557W        W75573  34.449  11.604  15.793 -0.0303 -0.3054 -0.1750
32558W        W75574   1.526   3.132  21.002 -0.1026 -0.4175  0.1095
32559W        W75575   1.311  16.239  27.948 -0.3471  0.4445 -0.3874
32560W        W75576  25.802   4.279  29.124 -0.2529 -0.1925 -0.0621
32561W        W75577   1.121  11.080  24.240 -0.1049 -0.2395  0.0056
32562W        W75578   0.010  16.175  18.856  0.1142 -0.0682 -0.1209
32563W        W75579  33.481   4.475  14.805  0.0289  0.1038  0.0943
32564W        W75580  26.447  31.136  18.508 -0.1676  0.1268 -0.1000
32565W        W75581   1.024  10.105  24.865  0.0895 -0.0427 -0.1071
32566W        W75582   1.930  10.401  26.521  0.2993  0.1067  0.1158
32567W        W75583  27.303  14.101  25.925  0.1547  0.0086  0.1327
32568W        W75584  31.779   4.185  26.305  0.0805 -0.0461  0.0879
32569W        W75585  28.214  15.658  17.821 -0.1146  0.2181  0.3017
32570W        W75586  21.083   7.232  26.801 -0.3006  0.0200 -0.0484
32571W        W75587  19.119   3.475  20.845  0.1093 -0.1636  0.1856
32572W        W75588  25.381  17.754   0.570  0.0523 -0.0104  0.1927
32573W        W75589   3.433   2.585  18.989 -0.1293 -0.0825 -0.0299
32574W        W75590  34.687  24.237   3.062 -0.0044 -0.2486 -0.0847
32575W        W75591  34.163  27.944  19.699 -0.1346  0.0949 -0.0335
32576W        W75592  34.289  27.702  26.181 -0.0221  0.0199  0.0237
32577W        W75593  30.278   8.220  21.588  0.0109 -0.1442 -0.0123
32578W        W75594  32.658  30.458  15.820 -0.0214  0.2319 -0.0023
32579W        W75595  27.233  10.846  19.145 -0.0850 -0.1630  0.2608
32580W        W75596   2.739   5.889  16.367 -0.0030 -0.2578 -0.3227
32581W        W75597  28.932  17.040  23.002 -0.1312 -0.1500 -0.4230
32582W        W75598  28.683   3.370  27.318 -0.0289 -0.0670 -0.0653
32583W        W75599  25.624  31.588  28.547 -0.1075  0.0397 -0.2617
32584W        W75600  30.200  14.888  19.085  0.0819 -0.2442 -0.4263
32585W        W75601  34.552  14.034  27.726  0.1894 -0.4609 -0.0817
32586W        W75602   6.039   6.825  17.819 -0.0606 -0.3288 -0.1509
32587W        W75603  32.628  24.997  28.752 -0.0234  0.0707 -0.1752
32588W        W75604  25.492  33.380  15.573 -0.1361  0.0959  0.0266
32589W        W75605  29.968   9.764  15.875 -0.2312 -0.1176  0.0153
32590W        W75606  16.161  29.740  18.707  0.0022  0.4616  0.0393
32591W        W75607   7.373  15.185  13.752 -0.1385 -0.2360 -0.1208
32592W        W75608  24.066   7.477  21.735 -0.5480  0.1152  0.2654
32593W        W75609   0.431   2.745  18.686 -0.0202  0.1062  0.1763
32594W        W75610  31.579  32.377  16.824 -0.2425 -0.3255  0.0268
32595W        W75611   2.399  14.553  24.948  0.0519  0.0905 -0.0981
32596W        W75612  32.971  33.856  19.510 -0.1543  0.0985 -0.3075
32597W        W75613  23.900  10.111   4.244  0.0438 -0.1000 -0.2301
32598W        W75614  24.498  31.123   3.057  0.0341  0.3901 -0.0098
32599W        W75615  18.350   4.261   7.722 -0.0470 -0.1055  0.0574
32600W        W75616   8.895  23.755  25.500  0.3614  0.2900 -0.1869
32601W        W75617   0.168  23.121  18.014  0.0657  0.2488 -0.2457
32602W        W75618   3.191   4.962  18.872  0.1411 -0.0797 -0.3676
32603W        W75619  19.127  30.637  10.088  0.0032  0.1878 -0.1399
32604W        W75620  28.354  21.063  28.607 -0.2283 -0.0320  0.0872
32605W        W75621  18.941  15.996  14.307  0.1768 -0.0791 -0.1243
32606W        W75622  27.835   1.328  18.062  0.2255  0.0060  0.1221
32607W        W75623  21.724   2.535  23.196  0.2158  0.4189  0.2703
32608W        W75624   0.247   9.853  19.280 -0.0581 -0.0205  0.2604
32609W        W75625  33.680  13.886   0.454 -0.1771 -0.0546  0.0433
32610W        W75626  30.250   6.559  25.307 -0.0044  0.0943 -0.0288
32611W        W75627  21.031   4.380   5.633 -0.1514 -0.0955 -0.3148
32612W        W75628  23.146   9.462  15.932  0.1819 -0.0354 -0.1376
32613W        W75629  29.821  18.360  23.090 -0.1064 -0.2970 -0.1343
32614W        W75630   8.699   6.198  25.316  0.3325 -0.2244  0.1373
32615W        W75631  14.438  31.905  26.581 -0.3108 -0.2359 -0.0824
32616W        W75632  19.254   5.890  23.520 -0.1367 -0.2287 -0.1798
32617W        W75633   2.188   7.630  15.969  0.0076 -0.1729  0.4310
32618W        W75634  19.737  15.546   0.213 -0.2261  0.1529  0.1393
32619W        W75635  21.071  16.839  28.608  0.0615 -0.0039 -0.2085
32620W        W75636   9.181  28.452   2.221  0.0042 -0.0442 -0.1438
32621W        W75637  14.439  34.573  17.738  0.2166 -0.4538  0.1163
32622W        W75638  30.015  28.430  21.358  0.0654  0.1753  0.1621
32623W        W75639  11.039  11.166  16.634 -0.0661  0.1259  0.2159
32624W        W75640  24.095   8.262  16.374  0.1879 -0.1507 -0.0423
32625W        W75641   3.375  28.575  20.031  0.0910  0.1518 -0.1842
32626W        W75642  33.351  17.188   6.265  0.1702  0.0843 -0.1615
32627W        W75643  23.834   2.393  27.302  0.1548 -0.4974 -0.3224
32628W        W75644  34.410   5.724  24.566 -0.1582 -0.0469 -0.1729
32629W        W75645   4.725   2.740  18.339  0.1411 -0.1579  0.1594
32630W        W75646  24.986  13.695  22.224  0.0872  0.3116 -0.1512
32631W        W75647   0.832  32.500  27.406 -0.0894 -0.0735 -0.0111
32632W        W75648  34.397   8.776   0.277  0.1280 -0.0357 -0.0844
32633W        W75649   4.326   9.724   4.084 -0.0658  0.1178 -0.0859
32634W        W75650  17.094   6.058  13.615 -0.1008 -0.1756  0.2514
32635W        W75651  30.673  25.793  20.485 -0.0913  0.2086  0.1330
32636W        W75652  25.462  10.697  22.060 -0.0342 -0.0168  0.0861
32637W        W75653  29.535   9.766  21.127 -0.0222  0.1570 -0.1824
32638W        W75654   7.697  22.111  25.839  0.0333  0.0156 -0.0308
32639W        W75655  30.710   1.955  14.755  0.2448 -0.1762 -0.1650
32640W        W75656   3.536   9.371  24.800 -0.1708 -0.1972  0.2337
32641W        W75657  15.530  28.808  27.615 -0.0310 -0.0625 -0.1156
32642W        W75658  21.683  33.476  20.382  0.0555 -0.1337  0.1367
32643W        W75659  17.273  32.636  27.281 -0.1089  0.0390 -0.1978
32644W        W75660  14.634  15.039  14.722 -0.1810 -0.0047 -0.1744
32645W        W75661  14.576   0.326  19.145  0.0269  0.1612  0.4922
32646W        W75662   3.647  24.833  25.381  0.1740 -0.0658 -0.1010
32647W        W75663  24.663   3.788   7.889  0.0640  0.1941  0.0900
32648W        W75664  33.930  34.407  17.553 -0.1282  0.1699 -0.0567
32649W        W75665  30.268  13.477  17.689 -0.1268  0.0530  0.2724
32650W        W75666  29.679   3.751  22.986  0.1986 -0.0705  0.5402
32651W        W75667   9.412  31.148   6.709  0.2725  0.3005 -0.1007
32652W        W75668  33.123   1.873  18.566 -0.0965 -0.1193 -0.0698
32653W        W75669  29.697  16.483  17.967 -0.1956  0.2767 -0.0287
32654W        W75670  18.264  29.806  17.298 -0.1702 -0.0210  0.0427
32655W        W75671  17.660   8.267  15.437 -0.2171 -0.2089 -0.2042
32656W        W75672  31.389   0.521  22.697 -0.0582 -0.0636 -0.3705
32657W        W75673  29.873  29.308  17.562 -0.0867  0.2622  0.0665
32658W        W75674  12.082  32.748  25.548  0.3027  0.0056  0.2279
32659W        W75675  21.263   1.479  20.042  0.0215  0.0759  0.0153
32660W        W75676  34.125   3.334  18.085 -0.3127 -0.0941  0.0625
32661W        W75677   8.539  18.114  23.967  0.1295  0.0814 -0.1868
32662W        W75678  29.516   5.148  21.104 -0.1066 -0.0297  0.2934
32663W        W75679  12.488  23.714   1.841  0.2028 -0.2375 -0.1810
32664W        W75680   6.770  27.166  16.540  0.0318  0.2299  0.2159
32665W        W75681  32.205  16.401  17.223  0.0429 -0.1099  0.2184
32666W        W75682   9.136  33.749  16.997 -0.0816 -0.0120  0.3607
32667W        W75683  16.890  12.074  12.283  0.0940  0.0408  0.1488
32668W        W75684  32.044   0.588  18.035  0.0893  0.0218 -0.1741
32669W        W75685  34.206   8.637  28.067 -0.0810  0.0329 -0.0888
32670W        W75686   1.572   5.885  21.461  0.0880 -0.0882  0.1497
32671W        W75687  32.656  34.029  22.214 -0.2758  0.1938 -0.0019
32672W        W75688  26.608   3.836  18.363  0.1387 -0.1538  0.1267
32673W        W75689   2.758  23.994  22.100 -0.1147 -0.1652 -0.1402
32674W        W75690  31.103   0.314  18.258 -0.4181 -0.2164 -0.0122
32675W        W75691  25.789   3.479  17.907  0.1570  0.0234  0.1462
32676W        W75692   8.717  13.736  15.761  0.2779  0.1784 -0.1328
32677W        W75693  17.409   1.562  21.283 -0.0666 -0.3301 -0.0850
32678W        W75694  27.832  34.436  20.991 -0.1749 -0.2387  0.0577
32679W        W75695  28.476  29.478  21.246  0.1175  0.2061  0.2879
32680W        W75696  32.687   9.141  25.127  0.2243  0.2049  0.1744
32681W        W75697  30.788   4.958  22.222  0.2788  0.0468 -0.1124
32682W        W75698   1.359  12.547  18.402  0.0723  0.2351  0.1083
32683W        W75699   4.751   7.347  25.829 -0.0003  0.1672  0.3598
32684W        W75700  25.670   6.151  19.025  0.0419 -0.1683  0.3365
32685W        W75701  17.022   7.417   8.067 -0.0049 -0.0240  0.0909
32686W        W75702   7.367  17.604  25.362 -0.0255  0.2060  0.0075
32687W        W75703   1.126   1.653  18.082  0.1816  0.0035  0.0990
32688W        W75704  22.586   5.216  19.229 -0.1008 -0.0488  0.0308
32689W        W75705   6.326   0.587   1.370 -0.1645 -0.0664  0.2314
32690W        W75706  27.746  18.675  16.811 -0.1819 -0.1473  0.1063
32691W        W75707   7.265  26.066  18.564 -0.0361  0.0397 -0.1018
32692W        W75708  23.578  25.424   1.617  0.0706 -0.0473  0.1942
32693W        W75709  27.444   0.138   2.116  0.4221 -0.2828 -0.2555
32694W        W75710  22.208  28.824  28.491  0.0748 -0.2656  0.1489
32695W        W75711  23.923  21.374  19.051  0.1874 -0.3859 -0.0467
32696W        W75712   3.865  10.333  22.111 -0.1057 -0.4066  0.1035
32697W        W75713  11.909   0.189  20.220 -0.0761 -0.0280  0.3093
32698W        W75714  13.604   8.712   0.191  0.0846 -0.1110 -0.3173
32699W        W75715  31.384  30.240  16.518 -0.2105  0.0882  0.1214
32700W        W75716   0.513  34.146  10.648 -0.1527  0.3904  0.0496
32701W        W75717   3.467  15.489   9.211 -0.0353  0.2141  0.1823
32702W        W75718  25.411  17.268  14.366 -0.1065 -0.0914  0.0196
32703W        W75719  23.366  33.655  17.255 -0.2293  0.4610 -0.0988
32704W        W75720  25.053  21.226   5.213  0.4989  0.2764 -0.1231
32705W        W75721  17.606   0.819  25.890  0.1525  0.2078  0.0746
32706W        W75722   4.580  10.698  21.498 -0.0918  0.2111  0.2740
32707W        W75723  23.604   5.795  27.193 -0.3631 -0.0455 -0.0418
32708W        W75724  18.547  14.539   2.569  0.3800  0.0564  0.3423
32709W        W75725  30.651   9.998   2.832  0.0267 -0.0419 -0.1215
32710W        W75726  20.944   4.319  18.172 -0.0316  0.0593 -0.1058
32711W        W75727  14.428  29.847  19.242 -0.1993  0.2380  0.3320
32712W        W75728  12.100   8.039  16.022  0.0593  0.1550 -0.1212
32713W        W75729  21.325   2.709  15.047  0.0707  0.3386  0.1848
32714W        W75730  27.189   3.077  24.750  0.1533  0.0038 -0.1228
32715W        W75731  33.804  26.506  23.169  0.2854 -0.1668  0.2621
32716W        W75732   6.430  34.539   5.633 -0.1224 -0.0620 -0.4913
32717W        W75733  33.336   3.539   8.645 -0.1207 -0.2214  0.1689
32718W        W75734  30.551  26.218  24.475 -0.0597  0.0418  0.0075
32719W        W75735   3.413  31.708  23.450 -0.2618 -0.1109  0.3175
32720W        W75736  20.907  31.437   6.771 -0.0658 -0.3004  0.0864
32721W        W75737  16.994   0.061   1.171  0.1367 -0.0249 -0.3207
32722W        W75738  22.831   7.628   9.500  0.2480 -0.2292 -0.1481
32723W        W75739  33.693  30.024  25.287 -0.4802  0.2064 -0.1886
32724W        W75740  34.774  29.769  21.179 -0.2177 -0.2309 -0.1198
32725W        W75741  33.819  34.758   6.043 -0.0387  0.0021  0.0882
32726W        W75742  23.436   2.591  11.529  0.0703  0.0748 -0.0129
32727W        W75743  26.113  29.231  27.243 -0.1799 -0.4036  0.1098
32728W        W75744  25.584  16.465  19.022  0.0385 -0.0045  0.0760
32729W        W75745  28.564   5.577   0.688  0.0284  0.1150  0.0715
32730W        W75746   3.590  16.575  19.195  0.0437  0.1196  0.0921
32731W        W75747   2.833   4.792  22.923  0.1823  0.0612  0.3171
32732W        W75748  18.144  28.300   0.860  0.1552  0.1183  0.0917
32733W        W75749  33.461  29.010   0.450  0.1753 -0.1233  0.0509
32734W        W75750   2.982   2.711  26.325  0.2524  0.1973 -0.3687
32735W        W75751  26.298  34.694  16.078 -0.0286 -0.0377 -0.1188
32736W        W75752   0.749   5.329  15.619  0.1506  0.1020  0.2390
32737W        W75753  30.085   0.712  16.238  0.1223 -0.1717  0.1093
32738W        W75754   7.246  29.261  16.621  0.3829 -0.0064  0.3388
32739W        W75755  25.387   5.462  22.873 -0.2218 -0.0254  0.1228
32740W        W75756  17.799  32.856  28.847 -0.1394  0.5536 -0.0930
32741W        W75757  33.728  25.600  28.056  0.2173 -0.1909 -0.1950
32742W        W75758  32.487   1.749  27.154  0.2613  0.1564 -0.3275
32743W        W75759  27.415   7.919  21.294 -0.0070  0.0241 -0.1457
32744W        W75760   2.782   6.812  16.966 -0.3244  0.0500 -0.0696
32745W        W75761  22.073   3.043  20.142  0.2696 -0.2175 -0.1330
32746W        W75762  26.220  32.404   2.117 -0.2822  0.3375 -0.1678
32747W        W75763  25.442  32.751  19.506 -0.2035 -0.0132 -0.1574
32748W        W75764  23.461   0.272   0.580 -0.0868  0.2278  0.4622
32749W        W75765  28.731  31.578   8.966  0.0272 -0.2006 -0.1326
32750W        W75766  26.881  31.734  17.601  0.0308 -0.0817  0.0512
32751W        W75767  28.100  16.352  18.946  0.0228 -0.0322 -0.0392
32752W        W75768  19.504   8.271   2.097  0.2112  0.0648  0.0486
32753W        W75769  15.307   8.009  18.349  0.0393  0.0679 -0.2188
32754W        W75770  20.057   0.517  26.494  0.1385 -0.2948  0.0444
32755W        W75771  30.484  14.141  25.986 -0.0794 -0.1092 -0.0890
32756W        W75772  11.962   6.230   0.947  0.0917  0.2008  0.2274
32757W        W75773  17.766  31.712  24.810  0.0481  0.0723 -0.1343
32758W        W75774  27.540  26.236  27.031  0.0344  0.2739  0.1439
32759W        W75775  23.666   6.559  23.919 -0.2730  0.0813 -0.3455
32760W        W75776  26.798   7.248  17.341 -0.0180  0.0557  0.1895
32761W        W75777  22.764   4.751  21.765  0.0676  0.1854  0.1947
32762W        W75778   2.853  31.048  23.334 -0.3712  0.1720  0.0227
32763W        W75779  29.260  25.893  23.131  0.2783  0.0035 -0.0101
32764W        W75780  14.662   9.846  20.007  0.0737  0.1807  0.0944
32765W        W75781  10.767  23.737  15.723 -0.0160 -0.4432 -0.0934
32766W        W75782  12.014   0.270   1.933 -0.1108  0.1764 -0.1294
32767W        W75783   3.093  25.924  19.520 -0.1457  0.0983 -0.0934
32768W        W75784  18.152   9.894  23.364 -0.1897  0.1162  0.1752
32769W        W75785  28.214   3.051  25.737  0.3319 -0.3021 -0.2334
32770W        W75786  21.780  12.354  23.513 -0.1378  0.1048  0.1415
32771W        W75787  20.091  31.938  24.362 -0.3316  0.1125 -0.0669
32772W        W75788  28.519   0.431   0.667  0.0999 -0.0373 -0.0739
32773W        W75789  14.998  29.963  27.004 -0.1097 -0.4333  0.0960
32774W        W75790  22.260  15.113   6.580  0.0625 -0.0906  0.0343
32775W        W75791  33.032  28.641  15.661  0.2117  0.0840  0.0408
32776W        W75792  29.253   8.896  18.276  0.2927 -0.1970  0.1066
32777W        W75793  30.699   9.597  20.337 -0.1223  0.0607  0.0003
32778W        W75794  25.149   0.346  18.286 -0.3059 -0.0571 -0.0082
32779W        W75795   0.867   8.143  18.230 -0.2116 -0.1987 -0.2309
32780W        W75796   7.067  17.186  18.055  0.0007  0.0123  0.2569
32781W        W75797  12.844  10.243   2.063 -0.0539  0.0133 -0.1246
32782W        W75798   4.597  20.717  20.810 -0.1400  0.3551 -0.1317
32783W        W75799  25.466  22.967  10.217  0.2025  0.3687  0.1034
32784W        W75800  13.384  32.562  19.397  0.1661  0.0357  0.2066
32785W        W75801  24.719  11.849   0.738  0.0998  0.1809  0.1498
32786W        W75802  20.451  30.651  20.421  0.2406 -0.2594  0.0848
32787W        W75803  26.045  31.468  23.388  0.1978 -0.0185 -0.0777
32788W        W75804  27.046  31.373  17.096 -0.2341 -0.1003  0.2151
32789W        W75805  24.387  33.563  22.788 -0.2502  0.0140 -0.0060
32790W        W75806  25.095  22.615  19.094  0.1783  0.3478 -0.0569
32791W        W75807  23.987   3.083  24.724  0.2759 -0.2234 -0.3775
32792W        W75808  22.798  22.915  25.282  0.0449 -0.0769 -0.2377
32793W        W75809  10.210  10.566  27.957  0.0485  0.0677  0.0797
32794W        W75810  34.691   8.449  19.512  0.1583 -0.0741 -0.3560
32795W        W75811  33.291  12.272  29.188  0.1194 -0.3215  0.1618
32796W        W75812  21.056   3.960  23.013  0.4613  0.0499 -0.1654
32797W        W75813  33.622  30.967  28.642  0.0521 -0.1445  0.0980
32798W        W75814  29.891   3.818  19.326 -0.0815  0.0267  0.1661
32799W        W75815   0.361  10.236  26.744 -0.0690 -0.0676 -0.0391
32800W        W75816   4.253  33.012   2.074 -0.0876 -0.1124  0.3142
32801W        W75817  34.750  30.723  28.981  0.4174  0.1918  0.3859
32802W        W75818  22.319  17.010  20.043  0.3211 -0.1754  0.4831
32803W        W75819  34.600  17.310  22.410  0.0476 -0.1842 -0.3281
32804W        W75820  17.368   7.966  16.720 -0.1205  0.1315 -0.2882
32805W        W75821  22.824  27.721   0.830 -0.2942  0.0354  0.3478
32806W        W75822  26.301   7.009  16.592  0.1804 -0.0964 -0.0437
32807W        W75823   0.983   3.906   0.349 -0.2439 -0.3879 -0.0104
32808W        W75824  17.078   5.012  20.681 -0.1071  0.3884  0.0423
32809W        W75825  33.163   7.662  19.379  0.0941  0.1960  0.1531
32810W        W75826  23.172   3.542  23.691 -0.1782 -0.1702 -0.2260
32811W        W75827  27.754  22.053   6.088 -0.1511 -0.0497  0.2598
32812W        W75828  28.175  14.028   5.459  0.2470 -0.0575 -0.1928
32813W        W75829   1.677  33.872  21.249  0.2194  0.0696 -0.4518
32814W        W75830   1.524   4.490  21.029 -0.1373 -0.0167 -0.1512
32815W        W75831  26.466   2.542  27.352  0.1229 -0.3250  0.2354
32816W        W75832  20.807  30.251   1.077 -0.1653 -0.2338 -0.0504
32817W        W75833  31.390   8.348  17.732  0.1006  0.0993  0.1450
32818W        W75834  33.210  30.628  15.082  0.1214  0.1440 -0.1933
32819W        W75835  32.101   1.198  26.954  0.1634  0.3037  0.0621
32820W        W75836  30.899   9.580  28.775 -0.2232  0.0179 -0.0876
32821W        W75837  30.727  21.342  20.662 -0.3447  0.1370 -0.0429
32822W        W75838   2.750  21.808  24.438  0.0822  0.0075 -0.0234
32823W        W75839  15.791   3.086  14.867  0.1280  0.2877 -0.1375
32824W        W75840  29.480  34.094  20.950 -0.1635  0.1318 -0.1850
32825W        W75841  28.865   3.079  23.577 -0.1308 -0.3817  0.0276
32826W        W75842  30.550  13.036  15.723  0.0225  0.1635 -0.0278
32827W        W75843   8.704  29.260  16.179  0.1238  0.1632 -0.0896
32828W        W75844  23.575   4.129  20.910  0.2352 -0.3815 -0.1052
32829W        W75845  33.274  28.472  23.416  0.0938 -0.2091 -0.1456
32830W        W75846   9.251  12.856  28.505 -0.1592 -0.1995  0.3144
32831W        W75847  20.755  32.849  25.865  0.2044  0.3028  0.2617
32832W        W75848  19.464  23.229   4.388  0.1485  0.1929 -0.2815
32833W        W75849  20.354   6.436  18.710  0.1673 -0.0815  0.1245
32834W        W75850  26.845   8.610  22.510 -0.0544  0.1888  0.4159
32835W        W75851  16.242  10.620  24.061  0.1552 -0.3926  0.1008
32836W        W75852  26.906  15.751  13.938 -0.1054  0.0188  0.0172
32837W        W75853   8.368  12.142   6.093  0.0315  0.1183 -0.0096
32838W        W75854   4.563   6.814  21.895  0.1426 -0.0891 -0.1193
32839W        W75855   1.036   7.481  26.698  0.1020 -0.0513  0.1512
32840W        W75856  14.533   0.327  29.253 -0.0249  0.4662 -0.3372
32841W        W75857  18.635   8.745  28.124 -0.0295 -0.0006  0.3287
32842W        W75858  25.329  28.601  29.253  0.1522  0.1041  0.1463
32843W        W75859   3.352   3.199  26.213  0.1228 -0.2193  0.1945
32844W        W75860   1.985   8.644  14.940 -0.1656 -0.2122  0.1398
32845W        W75861  28.218  11.343  15.021  0.2224 -0.3908 -0.2766
32846W        W75862   3.341   8.621  15.659  0.3207 -0.2979 -0.1620
32847W        W75863   3.377  17.121  17.370 -0.2130  0.0124  0.1529
32848W        W75864   0.151   9.167  20.036 -0.2257  0.1160  0.0576
32849W        W75865  31.029   1.925  17.571 -0.2139  0.0611 -0.0428
32850W        W75866  34.016  21.111  20.733 -0.1329  0.1692  0.0111
32851W        W75867   0.297   9.732  26.185 -0.2910 -0.1653  0.0549
32852W        W75868  31.144   8.673  21.932  0.1524  0.1161 -0.0044
32853W        W75869  28.194  29.012  24.173  0.2172  0.0903  0.1106
32854W        W75870  24.510  30.205   9.173 -0.1369  0.1412 -0.1341
32855W        W75871  21.127  15.725  14.708  0.2186 -0.3314 -0.0188
32856W        W75872  27.312  15.614  22.406 -0.1251  0.0352  0.0204
32857W        W75873   6.547   1.756  22.065  0.2514 -0.0169  0.2005
32858W        W75874  25.986   1.897  18.970 -0.0387 -0.0082 -0.1086
32859W        W75875  14.817   4.708  21.875 -0.0460 -0.2055  0.3634
32860W        W75876  27.344  30.340  16.630 -0.0607  0.0596 -0.0389
32861W        W75877  22.020   9.046  18.881  0.1568  0.4285  0.2033
32862W        W75878   0.313  29.901  23.782  0.3040 -0.3230 -0.1232
32863W        W75879  25.710  26.908  15.946  0.0128 -0.0432  0.1440
32864W        W75880   7.016  29.322  28.665  0.4551  0.0028 -0.0514
32865W        W75881   0.081   1.350  29.154  0.2722 -0.4400 -0.0054
32866W        W75882  19.532   4.243  20.771 -0.1691  0.2640 -0.1515
32867W        W75883  31.217   3.835  17.663  0.0016 -0.5326 -0.3764
32868W        W75884  15.240  29.104  22.001 -0.0903  0.0137  0.0767
32869W        W75885  22.919  27.499  27.872  0.0810  0.2517  0.4109
32870W        W75886  22.889  30.215  21.035 -0.0946  0.0124 -0.0149
32871W        W75887   0.174  32.427   2.049 -0.0757  0.2875  0.0783
32872W        W75888  34.707  20.942  29.098  0.1337  0.0752 -0.1508
32873W        W75889  24.002  33.963  21.816  0.0715 -0.1154 -0.1529
32874W        W75890  26.517  31.417  29.119  0.0064 -0.3827  0.0189
32875W        W75891  13.459  18.520  15.742 -0.3599 -0.1247  0.0753
32876W        W75892  27.346   5.195  23.899 -0.0932 -0.1552  0.0905
32877W        W75893  25.529  21.657  16.119 -0.2012  0.4533 -0.0096
32878W        W75894  22.670  10.159  24.385  0.3766 -0.4700 -0.2676
32879W        W75895  17.955   4.535  17.099  0.0828  0.2612  0.0337
32880W        W75896  34.577   4.101  15.685  0.2680 -0.0420 -0.3064
32881W        W75897   7.505   7.168  15.311 -0.3438  0.2087 -0.0105
32882W        W75898  24.665   5.608  23.201 -0.1237  0.0471  0.1326
32883W        W75899  19.650   7.632  22.207  0.1844 -0.1009 -0.0118
32884W        W75900   4.845  29.693  25.552 -0.0486  0.1825 -0.1962
32885W        W75901  34.438  33.469  22.852 -0.0264  0.2228 -0.2812
32886W        W75902  25.810  28.007   1.025  0.0185  0.1815  0.2910
32887W        W75903   3.952  11.473  16.753 -0.0799 -0.0983 -0.2819
32888W        W75904  26.944  22.213  20.121 -0.2622 -0.2397  0.0223
32889W        W75905  13.052   1.618  16.090  0.0042  0.1811 -0.1236
32890W        W75906   4.852  24.912  27.498  0.0310 -0.0111 -0.1333
32891W        W75907  33.788  12.818   2.985  0.0781  0.3521 -0.0794
32892W        W75908  32.915  21.315  23.571  0.3599  0.0822 -0.2181
32893W        W75909  28.533   2.408  25.260  0.1077  0.3470  0.0212
32894W        W75910  12.363  12.530  24.272 -0.1481 -0.1435 -0.1355
32895W        W75911  18.907   6.710  21.578 -0.0947  0.3937  0.0981
32896W        W75912   4.982  11.757  22.668  0.0127  0.0300 -0.1621
32897W        W75913  30.388   5.306  21.245  0.1983  0.0343  0.1184
32898W        W75914  26.129  15.814  25.791 -0.3660  0.0911  0.4016
32899W        W75915  31.761  31.441   9.095  0.0136 -0.1320  0.1450
32900W        W75916  28.410   2.847  27.359 -0.3495  0.1836  0.0690
32901W        W75917  24.824  10.684  22.136 -0.2236  0.1110  0.0533
32902W        W75918  30.844  12.214   0.473 -0.0036 -0.0600  0.3885
32903W        W75919  32.758  10.790  20.606  0.0059 -0.3639  0.2125
32904W        W75920   4.693   9.091   0.506  0.1572 -0.0440 -0.1592
32905W        W75921   2.407   5.009  16.637  0.1673  0.1444 -0.0090
32906W        W75922  24.501   3.208  11.030 -0.0812  0.1433  0.2525
32907W        W75923   1.810   9.854  17.562  0.1322 -0.0463 -0.1463
32908W        W75924  17.438  27.642   5.044  0.2326 -0.0814 -0.0015
32909W        W75925   0.294   9.062   6.893  0.0634  0.1640  0.1540
32910W        W75926  25.756   1.781  26.365  0.0957  0.1591 -0.2409
32911W        W75927  34.299   2.684  19.258  0.1630  0.1029 -0.0543
32912W        W75928  29.005   4.620  19.955  0.4028 -0.2414 -0.1069
32913W        W75929  24.708  30.233  28.548 -0.3690 -0.1474  0.2311
32914W        W75930  13.307   9.359  22.522 -0.1100 -0.1171 -0.0829
32915W        W75931   3.243  21.505  22.104  0.2800  0.1089 -0.0336
32916W        W75932  26.592  32.770  21.946 -0.2795  0.5003 -0.1510
32917W        W75933  21.582   5.285  23.439  0.0201 -0.1307 -0.0881
32918W        W75934  11.145  13.384  15.144 -0.0131 -0.1636  0.2980
32919W        W75935  21.484  34.479  18.038 -0.0759  0.0461 -0.0641
32920W        W75936  16.095   0.087  14.373 -0.0531 -0.5706 -0.1247
32921W        W75937  24.794  31.179   1.292 -0.0050  0.0609  0.0963
32922W        W75938  26.272  32.361  25.000 -0.1742 -0.2466 -0.0971
32923W        W75939   3.031  11.762  26.489 -0.1631 -0.2370  0.0363
32924W        W75940  26.501  13.937  17.862  0.1137 -0.1559  0.0320
32925W        W75941  25.601  19.298  25.684 -0.0485 -0.1428 -0.0954
32926W        W75942  24.508  16.131  29.218  0.2768  0.1943  0.1154
32927W        W75943  34.342  15.840  21.642  0.2520 -0.1782  0.1267
32928W        W75944   1.630   6.969  18.063 -0.1706 -0.0982  0.2393
32929W        W75945   7.768   9.166  24.873 -0.3736  0.1121 -0.0330
32930W        W75946   4.323  27.043   0.075 -0.0261 -0.0551  0.1914
32931W        W75947  16.320   1.854  22.269 -0.1413  0.2487 -0.0337
32932W        W75948   9.193   8.813  18.245  0.1265 -0.2001  0.0478
32933W        W75949  29.666  34.478  24.535  0.4224 -0.2670  0.1321
32934W        W75950  18.506  23.020  15.599 -0.2082  0.1267  0.1842
32935W        W75951  28.008   2.263   2.782 -0.0809 -0.3784  0.1088
32936W        W75952  28.755  23.818  20.411  0.1684  0.0877 -0.1734
32937W        W75953  18.493  10.224  25.994  0.1040 -0.2788  0.0331
32938W        W75954  25.722  25.451   5.352 -0.1187  0.1431  0.1920
32939W        W75955  23.432  20.512  15.592  0.1320 -0.0098 -0.0886
32940W        W75956  17.608  31.011  27.345 -0.2352 -0.0115  0.1407
32941W        W75957  23.379  33.722  17.778  0.3605  0.0119 -0.1348
32942W        W75958  34.450  27.761   4.558 -0.2188  0.1279 -0.0959
32943W        W75959  11.716  33.648  27.540 -0.1105  0.0953  0.2969
32944W        W75960  29.658  33.454  23.571 -0.0917  0.0672  0.1186
32945W        W75961   6.051  27.588  14.004 -0.1771 -0.2678 -0.1274
32946W        W75962   3.852   5.808   4.686 -0.1351 -0.4354 -0.2010
32947W        W75963  26.881  25.771  28.350 -0.1493  0.0117  0.1406
32948W        W75964  28.801   5.675   1.421 -0.1056 -0.0547  0.1552
32949W        W75965   0.908   5.724  22.284  0.1571  0.0365  0.0805
32950W        W75966  23.419  10.651  22.167 -0.0511  0.2817 -0.0365
32951W        W75967  24.564  13.211   2.809  0.0240  0.1748  0.0375
32952W        W75968  16.244   0.678  25.791  0.0697 -0.0349 -0.3144
32953W        W75969  29.737   8.050  16.902 -0.0381  0.0346  0.4539
32954W        W75970   4.810  34.290  19.082 -0.0361 -0.0291 -0.0061
32955W        W75971  19.608   9.846  23.059  0.0853 -0.0094 -0.0491
32956W        W75972  34.559   1.774  28.316  0.1304  0.1694  0.2003
32957W        W75973   3.697  28.761  20.372  0.4207  0.1601 -0.0944
32958W        W75974  26.174  22.412   8.629 -0.2186 -0.0431 -0.0407
32959W        W75975  13.651   4.365   8.233  0.1010 -0.0080 -0.0354
32960W        W75976  15.119  14.966  21.397 -0.1905 -0.2101 -0.1242
32961W        W75977   0.983  11.991  24.969 -0.2113  0.0343  0.2864
32962W        W75978  33.075  24.396  21.288  0.1552 -0.1233 -0.1671
32963W        W75979  29.732  25.264   7.780  0.0035 -0.0366 -0.2702
32964W        W75980   3.400  20.997  16.598  0.1545  0.0644  0.0806
32965W        W75981  28.856  12.140  14.942  0.0225 -0.3227  0.0030
32966W        W75982  28.723   1.101  23.299 -0.3187  0.3129 -0.1467
32967W        W75983  29.448   0.104  22.730 -0.1100  0.2519 -0.2122
32968W        W75984  30.525   0.453  27.217  0.0111 -0.3654  0.0139
32969W        W75985  17.469  21.616  13.182  0.0617  0.0339 -0.1618
32970W        W75986  33.548   5.997  27.403  0.0413  0.1343  0.0204
32971W        W75987  23.546   5.416  21.029  0.0647 -0.2208 -0.1099
32972W        W75988  25.642  29.196  27.701 -0.3412 -0.0190  0.5287
32973W        W75989  12.390  26.124   0.295 -0.3541 -0.0357  0.1431
32974W        W75990  26.340  21.472  26.907  0.0554 -0.0212  0.0525
32975W        W75991  34.599   8.330  23.732 -0.1503  0.0161  0.2297
32976W        W75992  30.397  17.611  18.735  0.0653  0.0341 -0.0716
32977W        W75993  33.140   1.074  21.519 -0.0333 -0.3373 -0.0849
32978W        W75994  25.333  29.019   5.880 -0.1261  0.0594 -0.0636
32979W        W75995  25.593  11.340  16.888 -0.1874 -0.2542  0.0065
32980W        W75996  27.819   5.074  21.780 -0.0270 -0.0995  0.1289
32981W        W75997  18.526   3.649   2.649 -0.1583  0.2182 -0.1171
32982W        W75998   0.781  13.954  20.070  0.1073  0.0840  0.0057
32983W        W75999  16.431   2.616  21.129  0.1282 -0.3555 -0.2062
32984W        W76000   1.158  21.467  20.870  0.2019  0.1200 -0.0414
32985W        W76001   4.273  18.445   4.747  0.2337 -0.1004 -0.1682
32986W        W76002   5.827   3.365  28.198 -0.1030 -0.0247 -0.0550
32987W        W76003   0.688  29.397  28.612  0.2259  0.0506 -0.2396
32988W        W76004   0.058   7.998  16.728 -0.0132 -0.3738  0.0465
32989W        W76005  15.199   9.986  16.999  0.2935  0.0487  0.2921
32990W        W76006  14.951  34.661  15.451 -0.1290 -0.0667  0.1778
32991W        W76007   7.666   9.790  20.311 -0.0448 -0.1565 -0.0046
32992W        W76008  22.462  21.307  21.309  0.0029  0.2057  0.1122
32993W        W76009  18.222   0.378  16.054 -0.0471 -0.0973 -0.1322
32994W        W76010  22.861  34.625  16.887 -0.0496  0.0401  0.3434
32995W        W76011   9.156  29.141  24.616  0.0324 -0.0693  0.2103
32996W        W76012  33.173  23.253  19.213 -0.0016  0.1046 -0.1761
32997W        W76013  32.991   9.338  19.437  0.1173 -0.0120 -0.0509
32998W        W76014   5.531   6.547  22.937 -0.0216 -0.2726  0.0597
32999W        W76015  31.578   7.458   2.300  0.0784 -0.4096  0.0222
33000W        W76016  27.796   3.533  25.490 -0.2885 -0.1468 -0.0979
33001W        W76017  20.748  29.729   0.519 -0.0415 -0.1099 -0.5269
33002W        W76018  25.254   3.069  20.982  0.3427 -0.3141  0.1615
33003W        W76019  34.659  31.802  21.493  0.0255  0.1132 -0.3542
33004W        W76020  10.481  28.586  23.831 -0.2976 -0.2542 -0.2215
33005W        W76021  30.802  24.581  23.906 -0.0256  0.0869 -0.2928
33006W        W76022  34.198   6.151  20.357  0.0543  0.2068 -0.1810
33007W        W76023   8.266  28.984  26.197  0.2302 -0.0034  0.1651
33008W        W76024  22.035   6.667  14.480  0.1199  0.0872  0.0060
33009W        W76025  23.163   6.014  24.746 -0.0141  0.0822  0.3346
33010W        W76026  29.046  10.283   0.032 -0.0508 -0.0174  0.0071
33011W        W76027  30.217   5.562  15.689  0.0640  0.1240 -0.1646
33012W        W76028  21.483  17.077  19.963 -0.2033  0.1096  0.1522
33013W        W76029   2.241  12.712   6.977  0.0425  0.3684 -0.2678
33014W        W76030   7.585   7.687  23.822 -0.0840 -0.1043  0.1530
33015W        W76031   0.426  26.017  24.948 -0.2167 -0.1127 -0.0151
33016W        W76032  19.028  16.392  23.488 -0.0667 -0.3047  0.1866
33017W        W76033  33.609   8.909  13.977 -0.0269  0.0249 -0.0964
33018W        W76034   6.272  28.735  16.949  0.1318 -0.0249  0.1598
33019W        W76035   6.795  14.914   0.005 -0.3607  0.0469 -0.0322
33020W        W76036   1.192   5.253  17.129  0.2782  0.0823 -0.1495
33021W        W76037   4.531  32.926  26.474  0.2273  0.1693  0.0951
33022W        W76038  33.249   7.102  16.946  0.2473 -0.1870 -0.1151
33023W        W76039  28.739   9.368   3.357  0.0938  0.2243 -0.1733
33024W        W76040  30.230   0.901  15.805 -0.3190  0.0451 -0.6449
33025W        W76041  22.798   1.687  25.177 -0.2250 -0.2355  0.1107
33026W        W76042  29.562   6.136  20.355  0.3004 -0.2074 -0.2810
33027W        W76043   1.153   9.852  15.759 -0.1418  0.1175 -0.2897
33028W        W76044   5.779   1.843  23.880 -0.1616 -0.2988  0.1586
33029W        W76045  23.509  11.490  17.063  0.3501 -0.0850  0.1103
33030W        W76046   3.695  23.149  18.526  0.3507  0.2946 -0.0083
33031W        W76047   6.786  21.633  17.817  0.0262  0.2202 -0.0018
33032W        W76048  24.308  17.926  18.783 -0.2438 -0.2521 -0.1880
33033W        W76049  30.348  22.453   1.549  0.1188 -0.0898  0.1641
33034W        W76050  23.777  11.559  26.406 -0.5271 -0.3582 -0.0090
33035W        W76051  17.379   9.219  26.816 -0.0868  0.1378 -0.1124
33036W        W76052  33.624  32.337   2.187  0.2193 -0.1675  0.1737
33037W        W76053  21.774  27.127  26.309 -0.0571  0.2421  0.3628
33038W        W76054  31.261  25.800   4.704 -0.1033 -0.2409 -0.4016
33039W        W76055  29.536   8.724  26.907  0.0780  0.0102  0.0590
33040W        W76056  29.845  18.030   0.223  0.0943  0.0714  0.0080
33041W        W76057  28.374   4.280   4.158 -0.0620 -0.3343 -0.2955
33042W        W76058  16.111  28.651  17.694  0.1588  0.3496 -0.1740
33043W        W76059  20.083  11.720  18.358 -0.0391  0.0470  0.0289
33044W        W76060  31.024   2.018  15.087  0.0256  0.1201 -0.0533
33045W        W76061   8.832  31.973  19.473 -0.2279  0.1687 -0.0135
33046W        W76062  23.382   2.088   7.745 -0.0367  0.1233 -0.0168
33047W        W76063   2.130   9.746  14.287  0.1253 -0.1123 -0.1054
33048W        W76064  28.492  29.653   4.284  0.1922 -0.1353 -0.2922
33049W        W76065  22.826  18.720  28.432 -0.1174  0.1893 -0.0739
33050W        W76066  30.328   8.490  20.272 -0.0321  0.2530  0.0383
33051W        W76067  23.902  31.084  23.396 -0.0985  0.3029 -0.2218
33052W        W76068  19.211  29.527   6.115 -0.3093  0.0664  0.2455
33053W        W76069  22.405  14.451   6.932 -0.0177 -0.0377  0.0968
33054W        W76070  18.115  27.030  21.800 -0.1741  0.2096 -0.1952
33055W        W76071   2.541  28.773  28.818  0.2024 -0.0661 -0.0945
33056W        W76072   0.730  33.331  28.879  0.0973  0.2511  0.0904
33057W        W76073   0.793   0.147  23.554 -0.2415 -0.1794  0.2441
33058W        W76074  32.224   3.990  24.188  0.0963 -0.0704 -0.1343
33059W        W76075  33.412  24.787  28.441 -0.1082  0.2666 -0.1001
33060W        W76076   0.897   3.205   6.861  0.0186 -0.7546  0.2876
33061W        W76077  16.437  33.326  28.609  0.0856 -0.0003  0.1028
33062W        W76078  19.393   3.106   0.636 -0.3351 -0.1593  0.1719
33063W        W76079   4.501  22.700  18.068  0.0408  0.1246 -0.3020
33064W        W76080  16.494   1.582  21.614  0.1522 -0.3424 -0.1404
33065W        W76081   4.943  15.649  20.670 -0.4497  0.3274  0.0623
33066W        W76082  32.712  31.953  16.178  0.0134 -0.0699 -0.1063
33067W        W76083  16.984  31.170   4.292  0.2638  0.0075 -0.1866
33068W        W76084   2.847   7.825  14.660  0.1122 -0.0859  0.0675
33069W        W76085  26.029   7.695  24.189 -0.1164 -0.4176  0.0098
33070W        W76086  31.158  21.798   5.495  0.0404  0.1551  0.1941
33071W        W76087  18.120   7.145  25.604  0.0273  0.0918 -0.0214
33072W        W76088   5.225  33.122  17.829 -0.1013 -0.1940  0.2817
33073W        W76089  31.229  19.330  29.185  0.0359 -0.1028 -0.1143
33074W        W76090   2.361   8.092  18.011  0.0100 -0.2600 -0.1871
33075W        W76091  33.138  29.980  23.083 -0.1170  0.0073 -0.0656
33076W        W76092   4.068  19.600  20.887  0.1428  0.0094  0.2865
33077W        W76093  25.604  24.320   5.570  0.0851  0.2750  0.0162
33078W        W76094  31.086  28.048  16.455  0.3473  0.0440 -0.0387
33079W        W76095  31.835   1.235   1.682  0.2017  0.1341  0.1908
33080W        W76096  19.685  20.377  26.427  0.0642 -0.0871  0.1582
33081W        W76097  27.441  33.906  22.305  0.0871 -0.3584 -0.0324
33082W        W76098   6.086  11.108  28.145 -0.1352 -0.0023  0.0257
33083W        W76099  18.044  22.923  19.496  0.0230  0.0490  0.0880
33084W        W76100  18.012  23.750  24.514 -0.0728 -0.1883 -0.0268
33085W        W76101   1.172   6.009  23.129  0.0897 -0.3075  0.0161
33086W        W76102   7.249  34.739  28.178  0.2062 -0.0317  0.0575
33087W        W76103   8.378  17.356  25.126  0.0108 -0.1557  0.0133
33088W        W76104  32.941  10.085  16.713  0.1816 -0.0346 -0.0776
33089W        W76105   0.683  18.426  14.746 -0.0930  0.0347  0.1103
33090W        W76106  31.242  34.771  16.944 -0.2013 -0.2875  0.0601
33091W        W76107  19.775  24.107   0.153 -0.0859 -0.1926 -0.0242
33092W        W76108  16.343  34.572  15.877  0.0644  0.1823 -0.2329
33093W        W76109  12.648  12.176  20.901  0.0353 -0.1434 -0.1094
33094W        W76110   6.510   1.454  15.558  0.2876  0.0227  0.0809
33095W        W76111  28.137  21.694  16.214 -0.1606  0.2328 -0.2475
33096W        W76112   4.745  14.682  28.758 -0.0697  0.1235  0.0206
33097W        W76113  21.330  27.472  24.926  0.0795  0.0624 -0.2659
33098W        W76114   2.609   5.143   5.754  0.0772 -0.0361 -0.2808
33099W        W76115   1.979  16.290  27.324 -0.1877  0.4270  0.0390
33100W        W76116  21.556  33.107  14.864  0.0940  0.0696 -0.0965
33101W        W76117  21.928  16.145  16.374 -0.2598  0.2943  0.0160
33102W        W76118  30.362  11.886   9.585  0.0278 -0.1066  0.0839
33103W        W76119  23.402  33.776  28.541  0.1925  0.4348  0.0839
33104W        W76120   5.323  15.485  22.830 -0.0210  0.2093  0.1582
33105W        W76121   5.762  29.391   3.839  0.2647  0.0246 -0.2732
33106W        W76122  32.318  28.783  25.721 -0.0973  0.3096  0.0349
33107W        W76123  29.183  27.558  23.458 -0.2729 -0.0374 -0.1256
33108W        W76124  31.231   7.264   1.346  0.1117  0.0460 -0.0776
33109W        W76125  29.371  20.932  15.922 -0.2803 -0.0587  0.2966
33110W        W76126  20.017  16.325  21.686  0.2116 -0.0848  0.0586
33111W        W76127  22.345   9.726   0.027 -0.1704 -0.0742  0.5520
33112W        W76128  22.949  14.808  18.085  0.0376 -0.2722 -0.0492
33113W        W76129   1.998   5.427   9.145  0.1636 -0.2093  0.1006
33114W        W76130   5.395  11.425   1.008 -0.1352  0.2385 -0.1880
33115W        W76131   6.007  34.507  19.969  0.1671  0.1653 -0.0818
33116W        W76132  22.935  11.256   8.125  0.0177  0.2158  0.1126
33117W        W76133  32.272  25.648  26.256  0.4752  0.1540 -0.0544
33118W        W76134  20.194   9.929  22.044 -0.0629  0.1657  0.1162
33119W        W76135  10.053  29.809  21.429  0.2780  0.5141 -0.3558
33120W        W76136  13.942   0.527   8.971 -0.0352 -0.0933 -0.0052
33121W        W76137  26.934  34.464   5.890 -0.1580 -0.6198  0.1424
33122W        W76138  10.912  18.004  14.573 -0.0994  0.1413  0.1722
33123W        W76139   5.246  18.509  17.272 -0.0278 -0.1079 -0.1170
33124W        W76140  32.372  32.242  22.958 -0.1704  0.0711 -0.0366
33125W        W76141  33.686  31.981   3.505 -0.0227  0.0940  0.2259
33126W        W76142  34.727  28.372  24.444  0.3172 -0.1775  0.1130
33127W        W76143  10.327  20.192  17.445 -0.1120  0.4722 -0.0337
33128W        W76144   7.202   3.894  22.526 -0.0074 -0.2173 -0.1367
33129W        W76145   5.403  29.705   5.239 -0.0904  0.1026  0.2814
33130W        W76146   5.235  13.906  15.831  0.1353 -0.0324 -0.4897
33131W        W76147   6.399   1.256  24.665 -0.1550 -0.0186 -0.1612
33132W        W76148  32.581   4.550  27.110  0.1069 -0.0152 -0.0342
33133W        W76149   0.118   6.375   1.334  0.0392 -0.1663  0.0887
33134W        W76150   1.379   7.002  22.483  0.0721  0.2124 -0.0161
33135W        W76151  19.663   0.942  25.721 -0.0473 -0.0974  0.0313
33136W        W76152  14.803   5.557  28.442  0.0128  0.3567 -0.0365
33137W        W76153  31.943  18.152  16.297 -0.2961 -0.1114 -0.3937
33138W        W76154  12.285   2.368  18.211  0.1832  0.2642 -0.2594
33139W        W76155  19.284   6.943  28.656  0.0047 -0.0075 -0.0158
33140W        W76156  27.562   7.145  24.736 -0.2305 -0.1647 -0.2194
33141W        W76157  32.157  18.385  29.054 -0.0818 -0.0547 -0.0482
33142W        W76158  24.234  19.854  23.242  0.0448 -0.2525 -0.1521
33143W        W76159  33.561   9.338  22.106  0.0579  0.1872 -0.1671
33144W        W76160  30.906  10.701  16.250  0.1327  0.1344  0.3305
33145W        W76161  32.619   5.848  16.429 -0.1265 -0.0691  0.0516
33146W        W76162  30.785   9.445   9.974  0.0383  0.0751  0.1072
33147W        W76163  33.927   1.739   9.166 -0.2277 -0.0007 -0.0650
33148W        W76164  32.706  14.503   7.366 -0.2668 -0.1263  0.1998
33149W        W76165  33.856   7.811  18.364 -0.2656 -0.3828 -0.2212
33150W        W76166  21.646   2.039  23.493  0.2820 -0.1659  0.1420
33151W        W76167  27.578   4.025  15.632 -0.0469 -0.0054 -0.3097
33152W        W76168   3.840  33.645  26.086  0.1650 -0.2146 -0.1726
33153W        W76169  32.730   1.291   6.809  0.1016  0.0482 -0.0358
33154W        W76170   5.754   1.274   8.341  0.2494 -0.1854  0.1741
33155W        W76171  18.654   7.857  18.465  0.3123 -0.1188  0.0077
33156W        W76172   0.295  15.334  18.565 -0.0919 -0.1936 -0.0284
33157W        W76173  28.597  25.841  20.477 -0.2337 -0.2201  0.0331
33158W        W76174  19.476  13.703  19.525 -0.0482  0.3148  0.1300
33159W        W76175  17.434   6.110  14.654  0.1567 -0.2969  0.0394
33160W        W76176  20.742  21.071   6.275  0.0044 -0.0642 -0.0964
33161W        W76177   3.310  20.153   0.555 -0.0661 -0.1165 -0.2018
33162W        W76178  20.843   5.863  29.086  0.1648 -0.3963  0.1433
33163W        W76179   8.066  13.002   6.022  0.0250 -0.0101  0.0465
33164W        W76180   4.427  27.206   4.806  0.1329 -0.0214 -0.1999
33165W        W76181  19.185   7.563  26.445 -0.0135 -0.4463  0.2841
33166W        W76182  16.769  11.438  17.621  0.0525  0.1731  0.0777
33167W        W76183  33.157  14.939  20.610  0.2169  0.0916 -0.1239
33168W        W76184   4.491  10.577   7.415  0.2537  0.0197  0.5150
33169W        W76185  31.668   7.197   0.026  0.1326  0.0328 -0.0011
33170W        W76186   4.163   4.943   4.931  0.0365  0.1057  0.0403
33171W        W76187   3.699   6.962  21.793  0.0769  0.1153  0.0102
33172W        W76188  26.114  23.832  23.648  0.1573 -0.0452 -0.0042
33173W        W76189  31.159  10.502  23.501  0.1155  0.4579 -0.1176
33174W        W76190  10.342   5.964  23.261 -0.1655 -0.1642 -0.0781
33175W        W76191  24.377   5.095   5.567 -0.1411  0.1162 -0.2022
33176W        W76192   2.615   5.023   6.520 -0.1593  0.3645 -0.0767
33177W        W76193  18.164   5.707  16.636  0.1263  0.2880  0.1713
33178W        W76194  33.154  19.573  16.662 -0.1312 -0.0095 -0.2589
33179W        W76195  26.176  30.270  29.114 -0.0201 -0.0067 -0.0875
33180W        W76196   8.328  33.253  27.868  0.0654 -0.0810 -0.1234
33181W        W76197  31.117  12.780  20.493 -0.0048 -0.0927  0.2576
33182W        W76198   5.923  28.274  29.059  0.2544 -0.0890  0.1595
33183W        W76199   2.641   0.485   0.754  0.1013 -0.1113 -0.3031
33184W        W76200  25.735   5.624   1.734 -0.1941 -0.1275  0.0046
33185W        W76201  23.923  12.755  17.814  0.2962 -0.0363  0.2040
33186W        W76202  23.476   2.380  24.100  0.0279  0.1757 -0.1107
33187W        W76203  25.189  34.707   1.512 -0.1196  0.0606 -0.2472
33188W        W76204  22.747   2.511   4.893 -0.0906 -0.3642 -0.0155
33189W        W76205  22.220  11.612  26.556 -0.0182 -0.1408  0.0975
33190W        W76206  23.216  25.565   0.886 -0.1133  0.0290  0.0063
33191W        W76207  33.064  14.646  28.083 -0.3853  0.0349 -0.2655
33192W        W76208   4.379  15.863  21.271 -0.1439 -0.2550 -0.0413
33193W        W76209  33.752  24.017   5.319  0.0940  0.0282 -0.1346
33194W        W76210   3.039   8.068   7.741  0.1858 -0.0142 -0.0323
33195W        W76211  34.260  34.674   3.569  0.2491 -0.2249  0.0604
33196W        W76212   2.416   6.271  29.223 -0.1020  0.0053  0.0551
33197W        W76213  31.764  12.787   9.347 -0.0645  0.0501  0.3040
33198W        W76214  25.955  25.329   9.885  0.1919 -0.1662 -0.1142
33199W        W76215  25.533  14.369   4.855  0.4185 -0.1689  0.1201
33200W        W76216  16.743  28.269   9.930  0.3593 -0.4360 -0.1045
33201W        W76217   9.884   0.190  20.768  0.0878 -0.1023 -0.3757
33202W        W76218  32.236  28.734  17.673 -0.2078 -0.0416  0.3235
33203W        W76219  17.369   3.511  14.098  0.1507  0.0287 -0.0657
33204W        W76220  30.883  19.497   7.886  0.2065  0.2721 -0.1064
33205W        W76221  24.823  29.850  23.744 -0.2304 -0.1125  0.1861
33206W        W76222  25.401  25.463   7.134 -0.2217  0.2708  0.3110
33207W        W76223   9.842   0.544   6.213 -0.0272 -0.4414  0.4269
33208W        W76224  31.427  31.122  28.181 -0.2434  0.2995 -0.2690
33209W        W76225   4.773  14.527   0.783  0.1029  0.2754 -0.1599
33210W        W76226  25.144   1.687  28.379 -0.2877  0.0583 -0.1739
33211W        W76227   6.844  12.881  26.712 -0.2301  0.0994  0.1446
33212W        W76228  25.229   8.987   4.725  0.3497 -0.2124 -0.0494
33213W        W76229   2.423  19.047  26.486  0.2181  0.0106  0.1313
33214W        W76230  26.484  14.236  18.264 -0.0169 -0.2483 -0.1767
33215W        W76231   3.397  34.030   2.042  0.1270  0.0694 -0.0171
33216W        W76232  21.113  26.875  23.957  0.0859 -0.0484  0.2821
33217W        W76233  25.457   2.168   5.348  0.0093 -0.0330 -0.0408
33218W        W76234  13.547  13.063   1.087 -0.2388 -0.1719 -0.0021
33219W        W76235  25.154  26.005  28.177  0.0145 -0.0941  0.0161
33220W        W76236  16.584  33.015  10.236  0.0246 -0.1153 -0.2213
33221W        W76237   9.728  27.791  20.126  0.1142  0.3379 -0.0872
33222W        W76238  20.399  22.942   1.262 -0.0091  0.1852  0.1434
33223W        W76239   3.754  17.490  28.593  0.1728 -0.1689 -0.1575
33224W        W76240  28.082  17.088  17.757 -0.3716  0.2116 -0.1161
33225W        W76241  34.316   4.404  20.345 -0.0406 -0.1704 -0.0962
33226W        W76242   4.692  10.703  14.488 -0.4282  0.4299 -0.3210
33227W        W76243  26.324  15.710  26.590 -0.2598 -0.0345 -0.2116
33228W        W76244  25.412  33.682  27.538 -0.0834 -0.1017  0.2569
33229W        W76245  14.892   9.186  21.716  0.2791  0.4326 -0.0506
33230W        W76246   5.262  28.473  22.836  0.0646 -0.1325 -0.1786
33231W        W76247   5.379   2.141   1.723 -0.1466 -0.0559 -0.4993
33232W        W76248  28.687  30.366  18.307  0.1213 -0.2884 -0.0953
33233W        W76249  25.438  25.261  17.882 -0.1349 -0.0266  0.0674
33234W        W76250  22.258  20.384  14.611  0.2080  0.2719 -0.1707
33235W        W76251  23.681  33.292  20.140 -0.1719 -0.2899  0.0850
33236W        W76252   9.999  20.149  27.982  0.2177 -0.1310  0.0480
33237W        W76253   7.805   6.703  25.438 -0.1358  0.0008  0.0178
33238W        W76254  27.892   6.135  19.412 -0.1768 -0.1212  0.1184
33239W        W76255  25.948  19.050  22.022  0.0725  0.1347  0.1655
33240W        W76256  33.309   3.140  26.389 -0.0275  0.0479  0.1023
33241W        W76257   9.437   1.886   3.592 -0.0795  0.0310 -0.1006
33242W        W76258   0.588   4.256  14.721  0.1320  0.0495  0.1673
33243W        W76259  10.686  12.567  17.717 -0.0879  0.1223 -0.1254
33244W        W76260  33.207   9.356   0.215 -0.1892  0.0623 -0.1115
33245W        W76261  31.614   3.237  18.759  0.0584 -0.1237 -0.0045
33246W        W76262  32.685  25.729  27.619 -0.0920 -0.0857 -0.2155
33247W        W76263  18.623  21.416  13.329 -0.4113 -0.0495  0.0997
33248W        W76264  21.199  18.017   4.892  0.1718  0.1314  0.0670
33249W        W76265  26.527  33.301  25.424 -0.0005 -0.2626  0.4364
33250W        W76266  29.269   8.505  10.136 -0.1281 -0.3109 -0.0632
33251W        W76267  29.965   6.415  16.098  0.2058 -0.1057  0.0439
33252W        W76268  30.417   2.261   5.964  0.0626 -0.2188 -0.1649
33253W        W76269  28.926   3.453  21.560 -0.5034  0.0879 -0.1025
33254W        W76270  20.690   2.386   7.106 -0.3157 -0.0939  0.0167
33255W        W76271   1.923   6.480  18.063  0.1533  0.2890  0.2841
33256W        W76272  17.176  23.629  22.191 -0.1690  0.0016 -0.0919
33257W        W76273  19.249   6.382  21.595 -0.2807 -0.1411  0.1863
33258W        W76274  31.238   8.051   5.493  0.0842  0.2738  0.0790
33259W        W76275  23.216  11.376   3.000  0.1032  0.1420 -0.0702
33260W        W76276   2.942   0.650   5.273 -0.1327 -0.1867  0.5014
33261W        W76277   1.108   3.738  16.896 -0.0689 -0.1887  0.1645
33262W        W76278   2.090  34.569  20.776 -0.2823  0.0032  0.2026
33263W        W76279  26.628  11.571   0.847  0.0312 -0.0661 -0.0258
33264W        W76280  25.291   4.804   7.464  0.2573  0.4088 -0.2050
33265W        W76281  27.817  14.275  16.931 -0.1319 -0.2880  0.1992
33266W        W76282  33.654  13.732  16.434  0.1456  0.2318  0.1925
33267W        W76283  29.350   2.779  23.913  0.0579 -0.0885  0.0743
33268W        W76284  28.513  24.579  27.625 -0.0016  0.1071  0.0599
33269W        W76285  27.602  14.191  28.796 -0.0359  0.5329 -0.0851
33270W        W76286   2.660  25.595   9.266 -0.0136  0.0761  0.1825
33271W        W76287   5.151  10.260  26.749  0.2158  0.0672  0.1195
33272W        W76288   2.336  27.625   3.169 -0.1015  0.2033 -0.3439
33273W        W76289  27.818  33.064   1.970  0.4667 -0.0054  0.0868
33274W        W76290   4.311  11.733   4.880 -0.0707 -0.0280  0.3996
33275W        W76291  31.495  34.366   7.557 -0.3177 -0.1345  0.1678
33276W        W76292  30.016  23.241  26.431 -0.0570 -0.1655  0.1595
33277W        W76293  21.893  19.606   3.813  0.1718 -0.1911 -0.0580
33278W        W76294   1.162   4.881  15.725  0.0958 -0.3232 -0.1305
33279W        W76295  20.693  30.766  25.192  0.0312 -0.1540  0.0889
33280W        W76296  32.029   9.376  24.663  0.0819  0.1078  0.2075
33281W        W76297  26.387  28.232   0.645  0.2178 -0.0952 -0.1141
33282W        W76298  28.020  20.858  21.974 -0.1178 -0.1357  0.1691
33283W        W76299  34.660  17.514   8.997  0.0009  0.2943  0.2454
33284W        W76300   3.707   5.561  22.765  0.2461 -0.2703 -0.2508
33285W        W76301  15.963   5.323  16.421  0.0352 -0.1421 -0.0108
33286W        W76302  28.682  16.949  15.360 -0.0762 -0.0305 -0.3015
33287W        W76303  32.184  19.550   2.791 -0.1777 -0.1105 -0.2943
33288W        W76304   7.714  19.459   2.876 -0.0006  0.0333  0.0351
33289W        W76305   1.017  17.057  23.923  0.1695 -0.0275  0.1629
33290W        W76306   7.774  21.729   8.623  0.4289 -0.1633  0.1412
33291W        W76307  19.403  34.645  26.147  0.3762  0.1212 -0.4147
33292W        W76308  14.266  29.940  24.377  0.3703  0.2139  0.1328
33293W        W76309   8.555  10.188   3.676 -0.1329  0.1075 -0.0448
33294W        W76310  31.933  28.968  10.483  0.0873 -0.0039  0.2044
33295W        W76311  24.175   9.941  16.184  0.1402 -0.1018 -0.3225
33296W        W76312   1.874  33.852  22.688  0.0443 -0.0968 -0.3447
33297W        W76313   6.292   3.456  20.534 -0.4887  0.1397 -0.0953
33298W        W76314   5.954  10.607   9.227  0.3168 -0.1419  0.0248
33299W        W76315   9.420   6.170  15.440  0.0037  0.1730 -0.0501
33300W        W76316   5.090  15.350   4.268  0.1450  0.0125  0.0727
33301W        W76317  13.246  15.400  25.918  0.1216 -0.2029 -0.0520
33302W        W76318   6.678  13.854   7.658 -0.1231 -0.0960  0.0548
33303W        W76319   4.822  28.878   4.771  0.1387  0.2557 -0.3424
33304W        W76320  18.641  21.054  29.100  0.1102 -0.6740 -0.0462
33305W        W76321   4.010   1.292   5.930 -0.0675  0.0540 -0.1227
33306W        W76322  18.039   8.954  12.700 -0.1096 -0.3621  0.1338
33307W        W76323   6.569  13.327  20.276  0.0103 -0.1928  0.4611
33308W        W76324  33.866  29.887   6.363 -0.0060 -0.0192  0.1498
33309W        W76325   0.895  10.995  23.660  0.4775  0.0903  0.1266
33310W        W76326  26.660  11.244  23.415 -0.3848  0.3908 -0.3213
33311W        W76327  12.597  29.364  18.605  0.3295 -0.0101  0.1072
33312W        W76328  28.004  18.587  15.993 -0.1046  0.0981 -0.0257
33313W        W76329  28.259  32.511  25.379 -0.0555  0.0778 -0.0342
33314W        W76330  21.715  19.524  27.779 -0.0569  0.3043 -0.1691
33315W        W76331  26.930  16.902  21.324  0.0405  0.1594 -0.1843
33316W        W76332   1.603  15.759   4.246  0.1971  0.0672 -0.1954
33317W        W76333   8.876   8.013  28.823  0.0101 -0.1774  0.0589
33318W        W76334  32.672  12.145  27.933 -0.3952  0.2220 -0.4170
33319W        W76335  10.650   6.651   1.841  0.1532 -0.0464 -0.2381
33320W        W76336  31.941  22.087  26.224  0.2619  0.1897 -0.4204
33321W        W76337   4.084   1.289  26.202 -0.0231 -0.1229 -0.0426
33322W        W76338   6.685   3.393  20.869 -0.1068  0.0381 -0.0064
33323W        W76339   9.718  20.985  21.039  0.2117 -0.0969  0.0693
33324W        W76340  19.199   7.543   3.328  0.0470  0.1519  0.0098
33325W        W76341  15.515  10.760   5.472 -0.2922 -0.0257 -0.0569
33326W        W76342  21.842  23.147   9.223 -0.2044 -0.1546 -0.1719
33327W        W76343  25.810  27.346   8.022  0.0625  0.0303 -0.0036
33328W        W76344   8.239  15.213   4.477 -0.0506 -0.2525 -0.0758
33329W        W76345  33.624  17.732  20.097  0.0390 -0.0901  0.3544
33330W        W76346  10.384  10.460  22.768 -0.0408  0.0062 -0.0689
33331W        W76347  24.339   5.085  23.435  0.1074  0.0358 -0.1453
33332W        W76348  26.858   6.097  28.787 -0.0515  0.0729  0.0425
33333W        W76349  31.931  29.010  18.385 -0.2068 -0.1217  0.0794
33334W        W76350   3.519  28.829   0.454  0.0053  0.5213  0.1604
33335W        W76351  29.347   0.369  16.058 -0.2733 -0.0871  0.1980
33336W        W76352  31.728   9.200  23.218 -0.2103 -0.1989 -0.0940
33337W        W76353  33.759  13.164  20.173 -0.0926  0.0693 -0.0103
33338W        W76354   6.973  17.948  20.235 -0.1391 -0.0980 -0.1212
33339W        W76355  30.934  16.112  19.425  0.2491 -0.1620  0.3414
33340W        W76356  23.501  10.832  18.861  0.0698 -0.1404  0.0043
33341W        W76357  33.621  21.814  25.189 -0.2063  0.0784  0.2820
33342W        W76358  16.833  22.320   5.433 -0.1417  0.0155  0.2685
33343W        W76359  23.616  14.289   7.872 -0.1233 -0.2651 -0.0500
33344W        W76360  13.693   2.299   3.877 -0.0417 -0.0241 -0.1714
33345W        W76361  30.099  20.606   3.222  0.1145  0.0804  0.0648
33346W        W76362  18.197   9.743   5.102  0.1063  0.0868 -0.3695
33347W        W76363  30.220  28.718  28.892 -0.0199 -0.1783 -0.2040
33348W        W76364  28.571   2.632  25.778 -0.1027  0.0301  0.0196
33349W        W76365  33.181  18.251   3.560 -0.1036  0.1191  0.3602
33350W        W76366   9.533   5.320  23.098 -0.1320 -0.3888 -0.0382
33351W        W76367  28.939   7.306  22.979 -0.1908 -0.2287  0.3017
33352W        W76368  32.385  10.075  19.301  0.2226  0.0253  0.2466
33353W        W76369   5.353  17.228  12.474  0.1957  0.2796  0.0831
33354W        W76370  33.982  14.272  21.714  0.0670 -0.1605  0.0882
33355W        W76371  28.372  33.550  21.382 -0.2762  0.0986  0.0212
33356W        W76372  34.758  32.556  26.867 -0.0901 -0.1005  0.0911
33357W        W76373   6.022  14.767   8.517  0.0265 -0.0810  0.2048
33358W        W76374  20.529   1.323  15.311 -0.0321  0.3897  0.2535
33359W        W76375  32.196   7.930   5.436 -0.0032 -0.0621 -0.0752
33360W        W76376  23.050   0.247  22.078 -0.3710 -0.0972  0.1031
33361W        W76377  16.263  17.978   1.115 -0.0221 -0.0214 -0.1238
33362W        W76378  31.364   6.011   6.855 -0.1611 -0.0908  0.0177
33363W        W76379   0.660  33.099  15.867 -0.0786  0.1624  0.1030
33364W        W76380   4.267   1.425  25.256  0.2859 -0.1275  0.1574
33365W        W76381  32.015  20.063  15.783  0.2778 -0.1922 -0.0982
33366W        W76382   7.602  13.588  19.757 -0.0943 -0.2582 -0.0802
33367W        W76383  26.924  31.870   2.285 -0.0534  0.3925 -0.1589
33368W        W76384  29.868   6.560   3.730 -0.2987 -0.0562  0.3747
33369W        W76385   3.449  10.396   5.239 -0.0453 -0.0094 -0.2716
33370W        W76386  19.752   6.383   7.984  0.2104 -0.1345 -0.2266
33371W        W76387   3.823  24.053   3.750 -0.0667 -0.2650  0.0627
33372W        W76388  32.094   1.991  18.499  0.1779  0.1092 -0.2260
33373W        W76389  10.617  19.151   7.654 -0.1285  0.1712  0.3140
33374W        W76390  30.306  23.404  23.055  0.0800 -0.2255 -0.1005
33375W        W76391  17.404  23.576  16.475 -0.0449 -0.1131 -0.0949
33376W        W76392  33.009  13.750  23.753  0.1369 -0.3986  0.1494
33377W        W76393  12.500   7.276  22.762 -0.0663  0.4601  0.2881
33378W        W76394  16.529   6.452  24.219 -0.0388  0.0281  0.1947
33379W        W76395  30.027   6.829  19.572 -0.2946  0.3497  0.0306
33380W        W76396  10.195  32.427   3.698  0.1571  0.0223 -0.1699
33381W        W76397  33.329   7.181  25.443 -0.0196 -0.1327 -0.0831
33382W        W76398  27.477  31.858  24.411  0.3439 -0.0281 -0.0329
33383W        W76399   2.702  32.224   2.878 -0.1022  0.1035 -0.0662
33384W        W76400  33.585  25.386   7.068  0.1063  0.0151 -0.0386
33385W        W76401   4.936  14.443   5.488  0.3056 -0.0677  0.0733
33386W        W76402  33.523  33.148   6.944 -0.1145  0.0635 -0.0032
33387W        W76403   0.724  10.736  24.566 -0.0923  0.0001  0.3053
33388W        W76404  24.120  17.705  27.869 -0.0695  0.0336 -0.1141
33389W        W76405  23.796   6.182  22.749 -0.0839 -0.0455  0.2211
33390W        W76406  28.544  17.155  27.449  0.2513 -0.0402 -0.0202
33391W        W76407   4.103   7.011  19.732 -0.0978  0.1267  0.0303
33392W        W76408  30.174   2.676  10.259  0.0009 -0.0128  0.0952
33393W        W76409  33.619  31.619  17.312  0.3193  0.0165 -0.4900
33394W        W76410   6.788   0.829  18.569  0.3147  0.0715 -0.2649
33395W        W76411   3.780   8.086   0.727  0.0038  0.4703 -0.3210
33396W        W76412   1.060   2.175  18.142  0.1723 -0.0942  0.0739
33397W        W76413  13.054   6.532   3.514 -0.1618 -0.1034  0.2698
33398W        W76414  22.989   5.459  15.501  0.0582  0.2049  0.4213
33399W        W76415  14.259   7.386  16.468 -0.3854  0.0860  0.0626
33400W        W76416  15.729   9.308  28.796 -0.0666  0.1298  0.0615
33401W        W76417  26.691  14.294  15.050 -0.0187 -0.0393 -0.1147
33402W        W76418   1.900  20.430  16.698  0.1405  0.1735 -0.0549
33403W        W76419  26.462   7.228   6.911 -0.0199 -0.0519 -0.0763
33404W        W76420  31.982   2.346  28.265 -0.1341  0.0052  0.0460
33405W        W76421  34.186   3.833  28.275  0.1949 -0.1700  0.3345
33406W        W76422   4.312   4.539   3.394  0.4973  0.1586 -0.0842
33407W        W76423  23.795  17.047  25.642 -0.0051 -0.1097  0.0223
33408W        W76424  30.428   6.859  27.835  0.0724  0.2030 -0.0313
33409W        W76425  33.082  11.449   8.934  0.1387 -0.2422  0.2005
33410W        W76426   6.918  30.547  19.451  0.1092  0.0035 -0.0008
33411W        W76427   4.347   2.309  24.763  0.2036 -0.3538  0.0765
33412W        W76428   1.417  10.775   4.905  0.1962 -0.1791 -0.0381
33413W        W76429  14.545   9.386  24.622 -0.4493 -0.1360  0.2980
33414W        W76430   2.852   8.011  24.111  0.3812 -0.0866  0.0037
33415W        W76431  27.754   8.999  27.219  0.1436  0.3123  0.1271
33416W        W76432  24.603  19.615  10.227 -0.1957 -0.2083 -0.0106
33417W        W76433   3.917  29.910   4.627 -0.3718 -0.1685  0.0033
33418W        W76434  32.855  24.192   1.391 -0.1091 -0.0051 -0.1194
33419W        W76435  30.609   8.203  16.136  0.0298  0.1766 -0.0686
33420W        W76436   4.254  13.908  27.551  0.3101  0.5798 -0.0565
33421W        W76437   0.293   9.711  25.693  0.1714  0.0721 -0.0421
33422W        W76438  27.972  33.750   2.668 -0.0188 -0.1258 -0.0586
33423W        W76439   2.852  32.021  28.190  0.2189  0.0391 -0.2218
33424W        W76440  32.493  31.843  15.207  0.1734 -0.0221 -0.0837
33425W        W76441  26.980   4.136  27.400  0.1319  0.1668 -0.1375
33426W        W76442  30.142   2.073  20.610  0.0537  0.0172 -0.2076
33427W        W76443  22.329   2.250  17.433  0.1297  0.0085 -0.2710
33428W        W76444  27.716  11.326  17.507 -0.3345 -0.1394  0.0808
33429W        W76445   1.265   4.696  28.712  0.2959  0.2306 -0.1420
33430W        W76446  14.825  27.347   4.806 -0.2132  0.0580 -0.6269
33431W        W76447  14.199  13.660  22.123 -0.0254 -0.1456  0.0412
33432W        W76448  23.792   6.275  25.053  0.0604 -0.1275 -0.1841
33433W        W76449  27.455   1.872  16.650  0.0617  0.4168  0.1109
33434W        W76450  12.720  23.104  20.511  0.0981 -0.1865 -0.1566
33435W        W76451  25.642  28.227  11.886 -0.0302 -0.0733 -0.0096
33436W        W76452  31.071   6.324  28.833  0.0223  0.0742  0.2036
33437W        W76453  20.639  19.452  24.288 -0.1301  0.0114 -0.5463
33438W        W76454  24.439  12.816   5.628  0.2044  0.2117 -0.0886
33439W        W76455  34.483   9.361  10.053  0.0855 -0.0580 -0.1681
33440W        W76456  27.075  14.657   4.867 -0.0911  0.2939 -0.1129
33441W        W76457  20.102  34.642  25.116 -0.0751 -0.0803 -0.2300
33442W        W76458   1.573   1.970   3.879  0.2239 -0.0720 -0.0451
33443W        W76459   6.437  31.495  15.442  0.2368  0.1150  0.3014
33444W        W76460  33.958  23.382  19.661  0.1037  0.0447 -0.1991
33445W        W76461   7.080  33.668   9.430 -0.0028 -0.1289  0.1084
33446W        W76462   4.088  29.136  25.762  0.0523 -0.1350 -0.2020
33447W        W76463   3.936   0.184   9.015 -0.1456 -0.0876 -0.2032
33448W        W76464   4.883  30.205   9.143  0.1506 -0.3020  0.0193
33449W        W76465  27.015  18.072  15.941 -0.1931  0.0338 -0.1879
33450W        W76466  16.929  32.045  20.633  0.1054  0.0558  0.0207
33451W        W76467  12.453  24.234  25.005  0.1143 -0.0057  0.1011
33452W        W76468   7.648  14.197   6.516  0.0675  0.0664 -0.0797
33453W        W76469  10.021  10.496   5.431 -0.1668 -0.0091  0.0066
33454W        W76470   3.563   8.472   4.498 -0.0548  0.2567 -0.3126
33455W        W76471  26.888  34.526  17.231 -0.1720  0.0847  0.0339
33456W        W76472  33.675  12.780  28.504 -0.3663 -0.1036 -0.0167
33457W        W76473  20.622  28.952  10.541 -0.0034 -0.1373  0.0489
33458W        W76474  33.321  33.501   2.679 -0.3177 -0.0215 -0.0283
33459W        W76475   3.245   4.295  25.151  0.0243 -0.0298 -0.2513
33460W        W76476   0.352  27.706   1.201 -0.0362 -0.2920 -0.0152
33461W        W76477  27.598  32.022  28.832 -0.2024  0.3446 -0.0012
33462W        W76478  12.801  14.499  22.849  0.2719 -0.1863  0.1257
33463W        W76479  11.293  28.660  25.843 -0.0286 -0.1887  0.2626
33464W        W76480  32.562   1.734  28.689  0.3045 -0.0149 -0.0559
33465W        W76481  12.265  30.005  20.187 -0.1001  0.2278 -0.0020
33466W        W76482  32.919  33.056  22.153  0.1717  0.1272 -0.0837
33467W        W76483   3.721  20.565  18.078 -0.0673  0.1101 -0.0195
33468W        W76484  28.696  11.983  16.359  0.1566 -0.1094 -0.0687
33469W        W76485  27.711   4.105  17.015 -0.0894  0.3829  0.1918
33470W        W76486   0.549   8.910  23.685  0.2416  0.1904  0.0286
33471W        W76487  31.932  34.156   2.170  0.0520 -0.1056  0.3536
33472W        W76488  27.904  29.555   2.285 -0.0684 -0.0681  0.0412
33473W        W76489  33.750  22.837  26.872  0.3568 -0.0188 -0.1702
33474W        W76490   6.954  11.406  24.050 -0.1616 -0.1779  0.0034
33475W        W76491   1.300   2.363   5.023 -0.2036  0.2469 -0.1020
33476W        W76492  24.803   6.064  17.412  0.0350  0.0724 -0.1480
33477W        W76493  10.234   5.847  17.086 -0.3267 -0.1394  0.0825
33478W        W76494  24.951  10.859  18.902  0.0382 -0.2638  0.3556
33479W        W76495  22.504  25.327   6.649 -0.0594  0.2485  0.0696
33480W        W76496  26.864   7.601  20.747 -0.2015 -0.0037  0.0167
33481W        W76497  17.913  32.156   6.677  0.1933  0.0973  0.2242
33482W        W76498   5.883  12.369  25.600 -0.2015  0.0237  0.1536
33483W        W76499  10.374  13.599   0.743 -0.0519 -0.2652  0.5745
33484W        W76500  28.102   6.666  25.896 -0.0861 -0.0902  0.1967
33485W        W76501  29.267   0.384   4.564 -0.2872 -0.0350 -0.0094
33486W        W76502  10.298  30.166  23.943 -0.3723 -0.0561  0.2215
33487W        W76503   4.675  29.047  16.392  0.0247  0.2256  0.0299
33488W        W76504  29.896   9.620  11.202 -0.1477  0.0044  0.0961
33489W        W76505   4.130   4.004  19.729 -0.4673  0.0756 -0.1814
33490W        W76506  17.343  13.960  25.662  0.3775  0.5162  0.0200
33491W        W76507  32.973  27.233  18.257  0.0552  0.3687 -0.2396
33492W        W76508  32.488  18.011  22.829 -0.1513 -0.0013  0.3464
33493W        W76509   5.498  13.290  20.535 -0.1167  0.1164  0.1953
33494W        W76510  26.346  22.711   3.161 -0.1002  0.1028 -0.2023
33495W        W76511   1.890  30.001  24.466 -0.1501  0.1727 -0.0865
33496W        W76512  33.461  12.520   6.017  0.1249 -0.2609  0.0777
33497W        W76513  27.425  16.741  16.886  0.4303  0.0010  0.1483
33498W        W76514   7.258  11.808  27.472  0.1596  0.2801 -0.0599
33499W        W76515   2.884   5.476  20.840  0.0464 -0.1412  0.0041
33500W        W76516  30.909  24.621  19.572  0.0726 -0.1737  0.1313
33501W        W76517  26.978  33.942  24.208 -0.0078 -0.3409 -0.0082
33502W        W76518  20.536  33.976  27.457 -0.3372 -0.1270 -0.0304
33503W        W76519  31.314  34.122  21.355  0.0450 -0.1377 -0.3802
33504W        W76520  26.309  25.739  28.160 -0.1660 -0.0984  0.2662
33505W        W76521   4.842  20.413   9.277 -0.3739  0.1541  0.0499
33506W        W76522  14.118  33.735   1.700 -0.1067 -0.1275 -0.0856
33507W        W76523  23.795  32.525   4.117 -0.1849  0.0307 -0.0979
33508W        W76524  24.146   0.180   5.462  0.1353  0.1180 -0.5620
33509W        W76525   8.252  13.493  23.395 -0.0934 -0.1359 -0.0425
33510W        W76526  10.121  18.737  24.121  0.2279  0.3953  0.2626
33511W        W76527  33.508   5.215   2.114 -0.0471 -0.1294  0.2682
33512W        W76528  21.599   8.215  28.649 -0.1621 -0.1124  0.2119
33513W        W76529   1.384  33.374  14.548  0.0036 -0.1143 -0.0267
33514W        W76530   1.376  11.057   0.133  0.0304 -0.0593 -0.0095
33515W        W76531  28.606  14.212   0.670 -0.0354 -0.0946  0.0761
33516W        W76532  31.855  11.305  15.409  0.1763 -0.0519 -0.1212
33517W        W76533  34.229   2.716  27.348  0.0643  0.0830  0.2576
33518W        W76534   1.200  20.427   1.019  0.2096 -0.0503 -0.0854
33519W        W76535  30.121  27.841   4.784 -0.1078 -0.3459  0.0381
33520W        W76536   3.469   0.273   2.249 -0.2287 -0.3027 -0.2822
33521W        W76537   1.425  32.973  24.214  0.1023 -0.0924  0.0852
33522W        W76538  17.107  34.298  16.835 -0.0639  0.1543  0.1024
33523W        W76539  12.093  32.286  18.908 -0.4605  0.1936 -0.0927
33524W        W76540  30.302  33.906  28.444 -0.0472 -0.2359 -0.3137
33525W        W76541  27.287  33.293   3.557  0.0685  0.1291 -0.0408
33526W        W76542  16.925   5.800   5.287 -0.1509 -0.1133 -0.0625
33527W        W76543  19.560  15.744   5.702 -0.0469  0.0123  0.2082
33528W        W76544  29.265  16.550   0.141  0.0734  0.0920 -0.0447
33529W        W76545  30.568   4.542   2.235 -0.3543 -0.1573  0.0303
33530W        W76546  10.095  11.082  15.608  0.1116 -0.1296 -0.0837
33531W        W76547  34.293  26.444  19.288  0.1114  0.1825 -0.1582
33532W        W76548  34.477   3.689  28.782 -0.1382  0.0014 -0.1112
33533W        W76549  17.402  27.867   8.505 -0.0444  0.2005 -0.0812
33534W        W76550   0.583  26.687  27.093  0.0375 -0.0854  0.3896
33535W        W76551  26.680  10.886  20.649 -0.0227 -0.0139  0.0670
33536W        W76552  26.332  17.107  26.127  0.0815  0.0342 -0.2305
33537W        W76553   2.817  10.173   8.329  0.0829  0.1047  0.2238
33538W        W76554  13.141  33.066  26.636  0.2104  0.0475 -0.2315
33539W        W76555  28.445   9.139  28.403 -0.1288  0.3500  0.0870
33540W        W76556   6.138   7.026  25.451 -0.1844  0.0845  0.2290
33541W        W76557  17.586   3.530   3.421  0.2819  0.1626  0.0783
33542W        W76558  28.396  24.164   0.208 -0.0413  0.3416  0.1130
33543W        W76559  27.740  20.191   8.889 -0.0128  0.1593  0.0958
33544W        W76560   9.386   3.092   5.533 -0.2084 -0.0867 -0.1391
33545W        W76561  24.487  33.682  16.920 -0.0104 -0.2439 -0.1360
33546W        W76562   4.227   6.306  14.163  0.2984  0.0202 -0.0144
33547W        W76563  32.008   7.553   5.857 -0.0583 -0.0960  0.2557
33548W        W76564   2.083   7.061   1.751 -0.2822  0.1079 -0.0257
33549W        W76565  31.613  10.705  24.324  0.1346 -0.1584 -0.2906
33550W        W76566  32.567   5.966   2.616  0.0362  0.0688 -0.3270
33551W        W76567   2.026  15.563  18.211  0.1923 -0.1671 -0.1851
33552W        W76568  17.683  33.596  22.834 -0.1824  0.1160 -0.2812
33553W        W76569  19.095   8.770  27.113  0.1711 -0.1635 -0.0737
33554W        W76570  26.402  12.359  24.429 -0.0194 -0.0239 -0.0038
33555W        W76571  33.692   4.828  25.827 -0.2371 -0.3600 -0.1827
33556W        W76572  31.526  34.295  24.653  0.1748 -0.1392  0.3911
33557W        W76573   1.902  14.229   1.664  0.0280  0.2103 -0.0149
33558W        W76574  27.929   1.103   7.781 -0.1735 -0.2700  0.0049
33559W        W76575  24.896   8.434  28.709 -0.1262  0.1392 -0.2286
33560W        W76576  22.566   7.468  21.149  0.0498  0.0479 -0.1762
33561W        W76577  29.075  10.353  27.493  0.2214 -0.0345 -0.0854
33562W        W76578  30.786   5.872   6.187 -0.0584  0.0270  0.0085
33563W        W76579   7.557  22.562  25.983 -0.0252  0.0505 -0.1525
33564W        W76580  34.536  34.521  25.002  0.1201  0.1245 -0.0098
33565W        W76581  13.322   3.132  23.446 -0.1598  0.2460  0.1804
33566W        W76582   0.619  25.560  18.169  0.2586 -0.2148  0.0630
33567W        W76583  25.942  22.154  22.830 -0.2521 -0.0948  0.3712
33568W        W76584   5.383  10.631  17.204  0.0804 -0.1893 -0.0296
33569W        W76585  32.954  25.102  17.861  0.1036  0.2191 -0.2220
33570W        W76586  26.497   0.986  21.220 -0.1133 -0.0953 -0.2412
33571W        W76587  25.204  31.667  28.182  0.0237  0.2461 -0.0167
33572W        W76588  31.661   6.628  26.521 -0.1545 -0.0781  0.0734
33573W        W76589   2.842   2.241   0.365 -0.1259 -0.1597 -0.0460
33574W        W76590   6.697  10.734   0.772 -0.1175  0.3848  0.1943
33575W        W76591   1.335  24.428  15.551  0.1107 -0.1201 -0.0761
33576W        W76592  29.068  27.709  18.280  0.1606 -0.0057  0.0244
33577W        W76593   0.188   0.157  19.013 -0.2688 -0.0732 -0.0105
33578W        W76594   4.744  13.719  15.874  0.0953  0.0642  0.0616
33579W        W76595   8.304  34.053  23.293  0.0750 -0.0883 -0.1414
33580W        W76596  29.354  33.516  16.509 -0.0216 -0.2316 -0.2088
33581W        W76597  33.095  16.475   0.913 -0.1178  0.3958  0.0508
33582W        W76598   6.670  10.656  20.731 -0.0882  0.1274  0.1296
33583W        W76599  24.214  10.108   0.431  0.0098  0.3035 -0.1346
33584W        W76600  24.162  15.030  13.940 -0.0269  0.0194  0.0956
33585W        W76601  30.649  14.752  22.355 -0.0920 -0.3284  0.1418
33586W        W76602   2.192   3.074  18.855 -0.0640  0.2660 -0.0231
33587W        W76603   6.600  25.304  15.430 -0.0900  0.0946  0.2610
33588W        W76604  29.742  19.666  23.547 -0.2065  0.3100 -0.2248
33589W        W76605  22.417  11.030  16.277  0.0396  0.0273 -0.0499
33590W        W76606  26.409   3.505  17.823 -0.1387 -0.0154  0.1859
33591W        W76607   6.340  11.479  25.623 -0.1071  0.1019 -0.1677
33592W        W76608  20.724   3.075  19.809 -0.1088 -0.0285 -0.0220
33593W        W76609  31.071  12.620  18.246  0.0384  0.2301  0.0942
33594W        W76610   6.779   1.568  10.493  0.0406  0.2499 -0.0640
33595W        W76611   0.875   6.188  24.970 -0.1143  0.3882  0.0914
33596W        W76612  25.128   9.073  23.304 -0.0249  0.1015 -0.0420
33597W        W76613   1.209   2.325  15.693  0.1602 -0.1056 -0.0103
33598W        W76614  16.758   7.374  14.662 -0.0862 -0.2156 -0.1078
33599W        W76615  21.853  13.629  16.361 -0.2183 -0.0522  0.1714
33600W        W76616  21.128   8.595  28.023 -0.1164 -0.3141 -0.0729
33601W        W76617   2.869   7.314  27.920  0.2243  0.1086 -0.1976
33602W        W76618   3.253  33.185  25.690 -0.0339  0.0306  0.1035
33603W        W76619   4.821  19.929  21.697 -0.0527 -0.0569 -0.1541
33604W        W76620  17.781  10.967  16.809  0.2143 -0.0146 -0.2881
33605W        W76621   5.369   8.617  17.111 -0.1336  0.1492  0.3115
33606W        W76622  13.467   2.577  14.682  0.1410 -0.0861 -0.2510
33607W        W76623   6.343  28.077  18.560  0.0577  0.0338  0.0914
33608W        W76624   5.934  19.088  18.137  0.0139  0.5506 -0.1090
33609W        W76625  30.076   8.628   3.419  0.1532 -0.0662  0.5101
33610W        W76626  26.875  12.137  20.535 -0.1060  0.2084 -0.4053
33611W        W76627   9.719   5.111  20.930 -0.1710 -0.3965  0.0273
33612W        W76628  23.537   6.490  14.666 -0.2376  0.0877  0.2463
33613W        W76629  27.509   2.804  24.382 -0.2795  0.0669  0.2276
33614W        W76630   2.002  24.538  19.212 -0.4047  0.1462  0.0328
33615W        W76631   2.289  28.455  25.393 -0.2675 -0.1033 -0.0821
33616W        W76632  14.956  30.660  23.059 -0.1385  0.2596 -0.4616
33617W        W76633  22.566  11.476  19.527  0.0994 -0.2216  0.2346
33618W        W76634  33.190  33.744  17.428  0.4944 -0.2035  0.0035
33619W        W76635  12.835   6.813   4.156 -0.0920  0.0182 -0.0861
33620W        W76636  33.315   7.509  14.485  0.1306 -0.3925 -0.1295
33621W        W76637  30.131   3.481  21.331  0.2498  0.0003 -0.1665
33622W        W76638  19.356   9.248  18.765 -0.4944 -0.0003 -0.2927
33623W        W76639   9.949  23.461  18.666 -0.2617  0.4732 -0.3376
33624W        W76640  30.222  10.699  16.335 -0.2144 -0.0092  0.1886
33625W        W76641   2.254  13.432  18.761  0.2290 -0.1404 -0.0712
33626W        W76642  24.894  11.852  13.522 -0.1680  0.1529 -0.1449
33627W        W76643  26.599  24.925   0.298 -0.0094  0.0890  0.0669
33628W        W76644  28.856   5.488  21.719 -0.2262  0.1028  0.3033
33629W        W76645   6.052   2.262  14.686  0.0167  0.0901  0.0149
33630W        W76646  29.135  32.358  23.336 -0.1476  0.1879 -0.1021
33631W        W76647  33.379  10.546  14.968  0.0723  0.2372 -0.0157
33632W        W76648  31.797   7.446  22.803 -0.1498 -0.1248  0.3105
33633W        W76649   0.351  10.442  24.326 -0.0399  0.0009  0.0764
33634W        W76650   4.582   5.358  18.540  0.1449  0.0150  0.0271
33635W        W76651  23.294  18.553  26.510  0.2316  0.1757 -0.2459
33636W        W76652  17.042  25.718   0.143  0.3233 -0.0035  0.1073
33637W        W76653   0.917   1.681  14.045  0.3952  0.3012 -0.1224
33638W        W76654  23.312  30.731  21.351 -0.0334 -0.1686 -0.2516
33639W        W76655   1.642  11.487  14.674  0.1004 -0.2893 -0.1094
33640W        W76656   0.461  29.590  15.297 -0.2317  0.2877 -0.2692
33641W        W76657  33.662  17.864  24.677 -0.2095  0.0568 -0.1882
33642W        W76658  32.164   2.552  17.784 -0.3347 -0.1228 -0.0857
33643W        W76659   1.061   9.491  18.583 -0.3385 -0.0960  0.4008
33644W        W76660  28.920  34.163  24.666  0.2338  0.0932  0.1101
33645W        W76661  33.994   6.283  24.571  0.2229 -0.2081 -0.2737
33646W        W76662  29.048  11.391  17.119 -0.4269 -0.0739 -0.2044
33647W        W76663  26.625   7.026  21.177 -0.0951  0.0240  0.1633
33648W        W76664  13.873   5.546  15.584  0.1016 -0.1953 -0.1242
33649W        W76665   3.764  15.083  22.717  0.0547 -0.1507  0.1393
33650W        W76666  25.946  13.027  19.318 -0.2720 -0.0694  0.1482
33651W        W76667  22.460   5.735  26.206 -0.0124 -0.1664 -0.2365
33652W        W76668  14.008  13.116  26.774 -0.2390  0.3139  0.0212
33653W        W76669  12.721   7.814  25.682 -0.1732  0.2399 -0.3631
33654W        W76670  33.749   2.062  27.725 -0.3262 -0.0109  0.0349
33655W        W76671  30.486  10.599  15.395  0.1606 -0.0941  0.0778
33656W        W76672  28.445   2.419   5.752  0.0959 -0.0602 -0.1075
33657W        W76673  32.624   7.157  15.232  0.2466  0.0844  0.0757
33658W        W76674   0.501   0.231  22.388  0.1378  0.1631  0.0400
33659W        W76675  25.930  27.377  22.967 -0.2303  0.1829 -0.0970
33660W        W76676   0.340  11.472  27.980 -0.2350  0.0322 -0.3807
33661W        W76677   1.972   4.739  17.326 -0.1625  0.1166 -0.0990
33662W        W76678   2.848   8.633  18.712 -0.2954 -0.0914 -0.1860
33663W        W76679  25.826   5.038  26.230  0.0593  0.0004 -0.1665
33664W        W76680  25.564   1.351  17.265  0.1626 -0.0499 -0.1413
33665W        W76681  28.295  19.660  15.546  0.0291 -0.2684  0.2903
33666W        W76682  31.264  13.788   0.447  0.1127  0.1134 -0.0133
33667W        W76683   1.007   8.757  19.342 -0.0068  0.2485 -0.2456
33668W        W76684  27.682   6.448   1.565 -0.1939 -0.0716 -0.1180
33669W        W76685  26.297   3.943  17.489 -0.2230 -0.1856  0.2089
33670W        W76686  19.689   1.333  20.960  0.2129  0.0935  0.0579
33671W        W76687  23.685  15.061  15.274  0.1563  0.2191  0.1892
33672W        W76688  33.654  23.031  28.218  0.2832 -0.2185  0.1434
33673W        W76689  34.246  22.116  15.513 -0.0302  0.3866  0.0255
33674W        W76690   5.496   2.780  20.284  0.1739  0.0598  0.3524
33675W        W76691  29.380  29.316  17.053  0.0489 -0.0978  0.0578
33676W        W76692  21.490   9.902  26.358 -0.0132  0.1350 -0.2227
33677W        W76693  28.206  32.370  18.059 -0.0236 -0.2162 -0.1714
33678W        W76694   1.142  10.032  17.303 -0.2712 -0.4493  0.0103
33679W        W76695  14.266  21.863  17.559  0.0516 -0.0699  0.1008
33680W        W76696  12.525   7.505  20.498 -0.1807  0.1117 -0.0036
33681W        W76697  22.035   6.498  16.095 -0.0601 -0.0058  0.0463
33682W        W76698  30.280  13.146  17.238  0.1710  0.0584 -0.2958
33683W        W76699  29.825   9.084  28.092 -0.4413 -0.1479 -0.2751
33684W        W76700   5.182  13.583  17.584 -0.3296  0.1467  0.0089
33685W        W76701  33.367   6.318  22.457 -0.2856  0.0347  0.0835
33686W        W76702   3.186  22.917  21.249 -0.3055  0.1382  0.2505
33687W        W76703   1.686   4.426  27.665 -0.0596 -0.2079 -0.4636
33688W        W76704  27.453   4.314  24.248 -0.0135 -0.0809 -0.1504
33689W        W76705  25.820   2.121  19.867  0.1672  0.3052  0.0496
33690W        W76706  30.673  10.504  20.913 -0.1258 -0.2132  0.2398
33691W        W76707  25.114  13.893  23.921  0.0022 -0.0034 -0.1918
33692W        W76708   1.652  18.423   8.172 -0.1264 -0.2301  0.0932
33693W        W76709   2.739   9.744  17.152  0.1837 -0.0500  0.1372
33694W        W76710   1.502  15.219  15.765 -0.1899 -0.4129  0.0178
33695W        W76711  30.808  12.186  15.023 -0.5457  0.0113  0.0555
33696W        W76712   1.211  31.191  18.479 -0.1101  0.3121  0.0763
33697W        W76713  11.680  12.418  21.886 -0.0523  0.2948 -0.2712
33698W        W76714   8.866   8.663  24.712 -0.0581 -0.1841  0.0015
33699W        W76715   7.312   2.045  19.991 -0.4487  0.0588 -0.2431
33700W        W76716  11.483  23.181  17.754 -0.0090 -0.1813  0.0729
33701W        W76717   1.499  17.032  27.693 -0.0676  0.2451  0.2540
33702W        W76718  23.463   9.831  19.192 -0.0088 -0.1293 -0.1710
33703W        W76719   1.577   7.262  28.498  0.0003  0.0730 -0.1727
33704W        W76720  24.511  20.057   4.843  0.1882  0.0185 -0.0455
33705W        W76721   3.850  18.782   1.719 -0.2651 -0.2235  0.3083
33706W        W76722  30.365  13.572  15.195 -0.0056  0.2097 -0.0961
33707W        W76723  25.388  10.505  18.895 -0.1058 -0.0535 -0.0334
33708W        W76724  28.669   4.462  19.436  0.0271 -0.2324 -0.4001
33709W        W76725  17.636  24.028  16.969 -0.3301 -0.1473  0.0312
33710W        W76726   3.399   8.505  22.680 -0.0243 -0.1598 -0.1245
33711W        W76727  13.555  33.952   6.833  0.3259 -0.1720 -0.0570
33712W        W76728   3.449   0.979  23.131 -0.2468  0.1236 -0.0246
33713W        W76729  29.894  14.198  18.434  0.1522  0.1017 -0.0022
33714W        W76730  28.128  13.638  15.543 -0.3198 -0.1126  0.1168
33715W        W76731  15.836   0.822  16.896 -0.0380  0.2170 -0.0528
33716W        W76732   3.088  12.875  17.092  0.1535 -0.0292 -0.4390
33717W        W76733  34.122   5.683   0.963 -0.1412  0.4007  0.0325
33718W        W76734   0.101  30.966  28.149  0.1843  0.1258 -0.1174
33719W        W76735   0.093  18.085  28.327  0.0383 -0.1002 -0.0259
33720W        W76736  32.960   9.549  20.924 -0.1096 -0.0322 -0.1025
33721W        W76737  29.648  15.272  18.831  0.1820  0.0464 -0.3030
33722W        W76738  24.569   0.100  23.925  0.0072 -0.2261  0.0425
33723W        W76739  11.083  33.366  19.552  0.0333  0.2289 -0.2019
33724W        W76740   4.062  15.736  18.636  0.2977 -0.0437 -0.2158
33725W        W76741   8.327   4.806  16.870 -0.0769 -0.2659 -0.1009
33726W        W76742   8.934  22.156  12.546  0.2289 -0.1774 -0.3293
33727W        W76743   7.533  18.221  17.467  0.4372 -0.2857  0.2115
33728W        W76744  22.047   2.627  15.664 -0.1087  0.0991  0.3152
33729W        W76745   1.490  33.773  13.531 -0.1939  0.1615 -0.3660
33730W        W76746  32.258  18.341  24.773  0.1549  0.0410 -0.0596
33731W        W76747  26.460   5.191  21.350 -0.0677 -0.5973  0.1384
33732W        W76748   9.520  12.485  22.411  0.0136 -0.0163 -0.1270
33733W        W76749   0.926  26.830   7.905  0.0748 -0.1194 -0.0881
33734W        W76750  24.554  34.615  20.627  0.1248 -0.1494  0.0092
33735W        W76751  27.977   8.307  16.996  0.2390  0.3795  0.2569
33736W        W76752  29.269  15.219  16.325 -0.0158  0.2385  0.2973
33737W        W76753  18.449   3.890  19.541  0.1020 -0.0368  0.1640
33738W        W76754  28.876   0.889  19.687 -0.1473 -0.0045  0.3387
33739W        W76755  11.009  10.673  13.971 -0.2971 -0.0327 -0.2246
33740W        W76756  32.521  21.609  23.821  0.3443  0.0597  0.1698
33741W        W76757  18.751  11.161  13.022 -0.1117  0.2055 -0.3008
33742W        W76758  21.194   5.362  23.756  0.2373 -0.2762 -0.1583
33743W        W76759   8.197   0.128   2.930  0.1641 -0.1197  0.2064
33744W        W76760  32.602  10.698  15.365  0.1285 -0.2145  0.2859
33745W        W76761  29.683  20.081  22.597 -0.3898 -0.0601 -0.4255
33746W        W76762  23.090  16.919  29.061 -0.6184 -0.0610 -0.0006
33747W        W76763   3.848  11.552  15.988  0.2336 -0.1553  0.1994
33748W        W76764   8.216  10.338  15.903 -0.0938 -0.4358  0.0865
33749W        W76765   4.905  14.100  26.795 -0.2606  0.0700 -0.1261
33750W        W76766  24.425   4.155  16.080 -0.0585  0.0567  0.0178
33751W        W76767   5.036  19.339  20.310 -0.1140  0.1983  0.0968
33752W        W76768   7.589  14.770  23.416 -0.1575  0.0180  0.0092
33753W        W76769   3.262  11.029  23.349  0.1033  0.1424 -0.0676
33754W        W76770  30.883  21.771  19.771  0.0792 -0.2370 -0.0719
33755W        W76771   1.424   1.246  13.886 -0.1781 -0.1215  0.0095
33756W        W76772  30.388  13.811  17.303  0.0904  0.1648 -0.0938
33757W        W76773   7.408  20.754  15.027 -0.0224 -0.1465  0.1296
33758W        W76774   1.278  15.883   1.240 -0.2196 -0.2896 -0.3374
33759W        W76775  17.791  25.429  18.292  0.2008  0.2307  0.1956
33760W        W76776   8.842  13.561  28.420  0.0686 -0.1459  0.0622
33761W        W76777  29.658   3.070  23.102  0.2701  0.0009 -0.1886
33762W        W76778  18.032  14.681  14.809  0.0233 -0.2319  0.0258
33763W        W76779  27.133   9.337  15.167  0.2786 -0.4598 -0.0024
33764W        W76780   0.017  20.685  19.140 -0.0118 -0.2154  0.3663
33765W        W76781  10.712  12.747  12.996  0.0180  0.5395 -0.0325
33766W        W76782  27.385   2.479  29.227  0.3024 -0.1805  0.0180
33767W        W76783  18.928   5.525  14.208  0.1242 -0.2012 -0.3869
33768W        W76784  14.310   3.094  15.856 -0.1228  0.0117 -0.0366
33769W        W76785   5.002  11.793  15.875 -0.2723 -0.0812  0.2249
33770W        W76786  13.584   5.280   0.135  0.0282  0.0070 -0.1813
33771W        W76787  26.709  10.095  14.960  0.0352 -0.0073 -0.3131
33772W        W76788   2.581   0.914   3.578 -0.1294 -0.1497  0.3207
33773W        W76789  23.644   9.610   1.931  0.3461  0.1721  0.3403
33774W        W76790   4.170  29.725  23.109  0.1858  0.1349  0.1542
33775W        W76791   2.178   9.527  14.952 -0.0052  0.1045 -0.0409
33776W        W76792   5.218  20.638  23.746  0.0994 -0.0432 -0.1149
33777W        W76793  25.916  10.640   3.476 -0.0650  0.1744  0.0292
33778W        W76794   3.044  15.098  18.191 -0.0696  0.1117  0.0219
33779W        W76795  34.706   7.145   1.077 -0.1085 -0.1553 -0.0386
33780W        W76796  31.352  15.763  21.678 -0.2170 -0.0522 -0.1646
33781W        W76797   4.331   1.742  19.305 -0.1353 -0.0540 -0.3560
33782W        W76798  16.254  13.617   2.553 -0.2680 -0.0003  0.1959
33783W        W76799  29.573   5.908  27.236 -0.0983 -0.1445  0.1961
33784W        W76800  22.912   7.067  26.049 -0.0342 -0.1032  0.0446
33785W        W76801  25.574  34.399  18.505 -0.2258 -0.0151 -0.1580
33786W        W76802   5.260  17.031  20.538 -0.0578 -0.2978 -0.1751
33787W        W76803  30.706  13.996  19.396 -0.4170 -0.3142  0.1085
33788W        W76804  33.243  16.096   5.975  0.0586 -0.0365 -0.0994
33789W        W76805  23.901   7.672  18.882  0.1606 -0.1963 -0.0706
33790W        W76806   4.595  14.536  23.666  0.2269 -0.2365  0.1293
33791W        W76807  25.100  27.149  18.336  0.1008  0.2783  0.0379
33792W        W76808  28.362  19.422  19.658 -0.1048 -0.0593 -0.0323
33793W        W76809  29.971  22.025  14.669  0.0687  0.2627 -0.2017
33794W        W76810   3.767  19.150  13.934 -0.0010 -0.0109  0.1878
33795W        W76811  30.336  24.200  26.747  0.0526  0.3250 -0.1318
33796W        W76812  25.323  31.344  17.019 -0.1924  0.0343 -0.0207
33797W        W76813  30.361   3.358  18.554 -0.1528 -0.1075 -0.3576
33798W        W76814  13.257   7.451  15.508  0.1519  0.0200  0.2327
33799W        W76815  25.014  14.908  29.265  0.0504  0.0167  0.2387
33800W        W76816  28.530  12.548  14.140  0.0008  0.4543 -0.2910
33801W        W76817  19.348  14.771  27.725 -0.0667  0.0516  0.0381
33802W        W76818   4.811  26.040  25.978 -0.1762  0.0810 -0.0395
33803W        W76819  26.792   6.211  17.178 -0.2252 -0.0967  0.2245
33804W        W76820  29.220   5.863  17.749 -0.0320 -0.1976 -0.3297
33805W        W76821   1.978   4.032  26.758  0.0255 -0.0203  0.3214
33806W        W76822   3.112  13.807  26.257  0.0249 -0.0254 -0.0088
33807W        W76823  32.548   3.764  17.757  0.1883  0.1234 -0.0353
33808W        W76824   2.910   2.638  16.361 -0.0208 -0.2986 -0.3567
33809W        W76825   8.767   2.061  18.213 -0.2526 -0.1121 -0.1484
33810W        W76826  32.476  11.286  25.194  0.0495  0.0411  0.2613
33811W        W76827  34.359  12.961  22.825 -0.3374 -0.0248 -0.3078
33812W        W76828   1.723  11.600  15.691 -0.1142 -0.2114  0.2344
33813W        W76829  32.517  10.083  20.013  0.0218 -0.0469  0.0034
33814W        W76830   7.499   6.683  24.585  0.1390  0.1561  0.1969
33815W        W76831  25.662   9.968  23.687  0.0746  0.3022 -0.0958
33816W        W76832  33.382   4.799   0.504 -0.0892  0.0731 -0.0703
33817W        W76833  12.135   1.690  23.568 -0.0140  0.0329  0.1808
33818W        W76834  33.690  10.006  20.025 -0.1364  0.1823 -0.4447
33819W        W76835  27.396  15.130  23.743 -0.1315  0.1618 -0.1685
33820W        W76836   4.295  31.298  14.443 -0.3948  0.0282  0.0552
33821W        W76837  19.828   2.179  16.043 -0.1067 -0.2050  0.1438
33822W        W76838  17.222   7.346  18.575  0.0988  0.1056  0.2155
33823W        W76839   4.527   6.967  20.557  0.0722 -0.0107 -0.2353
33824W        W76840  21.574   7.020  18.179 -0.0776  0.2209  0.0311
33825W        W76841  31.481   7.922  28.829  0.0006 -0.2378  0.0316
33826W        W76842  32.341   2.931  23.941  0.0464 -0.0502  0.2627
33827W        W76843   9.394   7.944  16.092  0.2010 -0.3598 -0.1763
33828W        W76844  29.798  32.937  23.707  0.0209  0.0932  0.1252
33829W        W76845   1.160   1.308  18.526 -0.0199  0.2922  0.0420
33830W        W76846   8.039   5.675  22.124 -0.0887 -0.1773 -0.0098
33831W        W76847  28.570  21.514  17.037 -0.1115  0.1611 -0.0172
33832W        W76848  20.563  33.780  24.251  0.0201  0.1245 -0.1498
33833W        W76849   3.987  11.098  20.111 -0.0968  0.0225  0.1599
33834W        W76850  26.690  22.401  19.728 -0.1648 -0.1955 -0.0857
33835W        W76851   9.002  12.377  16.529  0.2393  0.0425  0.0053
33836W        W76852  30.202  15.809   0.019 -0.0395 -0.0397 -0.1440
33837W        W76853   9.846  21.637  14.846  0.0383 -0.0414 -0.0992
33838W        W76854  32.670  17.351  28.882  0.1527  0.0132  0.2312
33839W        W76855  19.421  15.884  13.963  0.1826 -0.1838 -0.3317
33840W        W76856  31.969   4.444  21.951  0.0667 -0.1743  0.2343
33841W        W76857  27.324   2.751  16.905 -0.1053  0.1047  0.2544
33842W        W76858  26.956  19.747  24.147 -0.2325 -0.3315 -0.0286
33843W        W76859   0.870  18.386  26.346  0.3674  0.0832 -0.0453
33844W        W76860  31.267   6.918  20.159 -0.0469  0.3291  0.2798
33845W        W76861  16.977  18.190  21.486  0.0373  0.0227  0.0755
33846W        W76862  21.785  13.172  16.381  0.2076  0.0883 -0.0083
33847W        W76863   5.204  22.072  19.021  0.0772 -0.1318  0.3831
33848W        W76864  13.467  16.799  27.869  0.1990 -0.0157 -0.0841
33849W        W76865  29.056   0.147  17.297 -0.1525 -0.0371 -0.0362
33850W        W76866  33.466  32.600  26.766 -0.1220  0.0793  0.3741
33851W        W76867  29.582  23.387   1.729  0.3234  0.0890  0.3508
33852W        W76868  23.765   9.390  25.862 -0.0917 -0.0464  0.2122
33853W        W76869  33.972   8.575  23.627 -0.3618 -0.1954 -0.2062
33854W        W76870  30.598  21.594  21.086 -0.0043 -0.0798 -0.0980
33855W        W76871  32.923   3.790   1.750 -0.2999  0.0138 -0.2682
33856W        W76872  29.654   8.987  15.013 -0.3128 -0.2286 -0.3036
33857W        W76873  28.517  23.756  22.742  0.0824  0.0662 -0.1962
33858W        W76874  30.078   9.301  15.991 -0.0947  0.0506 -0.0234
33859W        W76875  32.492  31.586  28.534  0.1800 -0.0047  0.0477
33860W        W76876   4.566  20.135  14.549 -0.3391 -0.0129  0.2623
33861W        W76877   2.977  11.096  18.446  0.1962 -0.0077  0.3070
33862W        W76878  26.540   0.521  20.814  0.0296 -0.1387 -0.1450
33863W        W76879  17.627   9.038  22.990  0.0587 -0.0124 -0.2563
33864W        W76880  21.270  22.686  19.913 -0.0134  0.3345  0.3221
33865W        W76881  23.688  19.176  16.313  0.1668  0.0992 -0.0245
33866W        W76882  30.947  14.931   1.982  0.2900 -0.0313  0.0428
33867W        W76883  30.108  14.299  16.516  0.2858  0.1105  0.0826
33868W        W76884  29.944   9.281  18.391  0.1499 -0.0166  0.0844
33869W        W76885  29.966  28.616  20.165  0.1760  0.2768 -0.0450
33870W        W76886  16.442   6.235  26.804  0.3210  0.1074 -0.0827
33871W        W76887  31.627  11.146  20.250  0.1307 -0.1031 -0.0113
33872W        W76888  24.089  10.907  28.720 -0.1955  0.0485  0.0300
33873W        W76889  31.559   9.880  14.208 -0.0920  0.0327 -0.3070
33874W        W76890  31.350   0.946  16.640  0.2351 -0.0441  0.1173
33875W        W76891  30.198  15.013  20.347 -0.1496 -0.0561  0.0968
33876W        W76892  27.398  11.431  18.269  0.1248  0.2187  0.3439
33877W        W76893  29.834   7.007  22.047 -0.1091 -0.0648 -0.0016
33878W        W76894  30.891  14.537  20.179 -0.0663  0.1946  0.1398
33879W        W76895   0.004  19.078  20.894  0.0791 -0.2597 -0.1375
33880W        W76896  17.647   3.821  14.396 -0.1037  0.0498 -0.0770
33881W        W76897  16.959  34.379  19.128 -0.0321 -0.2342 -0.0819
33882W        W76898   6.609   0.343  15.017 -0.1800  0.2057  0.4209
33883W        W76899  15.652  34.071  26.950  0.0537 -0.3264  0.4364
33884W        W76900  32.933  17.427  22.482 -0.0865 -0.1948 -0.0929
33885W        W76901  24.271  14.262  16.928 -0.1215  0.0416  0.1876
33886W        W76902  26.340  27.219  27.847 -0.2811  0.1459  0.3653
33887W        W76903  10.728  16.036  22.466 -0.1710  0.1050 -0.1178
33888W        W76904  16.876   1.914  17.675  0.0349  0.3114  0.1816
33889W        W76905   1.293  20.303  15.827 -0.2551 -0.0627 -0.1643
33890W        W76906  33.913   6.041  19.999 -0.1440  0.1563  0.0562
33891W        W76907   4.838  12.806  16.417 -0.3646  0.3201  0.4047
33892W        W76908  30.701   5.993  19.341  0.0905  0.0649  0.0169
33893W        W76909  15.647   2.334  18.787  0.1854 -0.1504 -0.0770
33894W        W76910   7.985  31.906   3.561 -0.1677 -0.0310 -0.2246
33895W        W76911   6.371   3.693  27.036 -0.0635  0.2625 -0.3157
33896W        W76912  24.995   0.655  20.529  0.4325  0.0136  0.1490
33897W        W76913  11.384   4.995  15.611  0.0264 -0.2107  0.2272
33898W        W76914   4.928  24.332  21.232 -0.3137 -0.0961 -0.1953
33899W        W76915   4.096   3.263  28.047 -0.0334 -0.2731 -0.0560
33900W        W76916  32.532  13.522   3.170 -0.1565 -0.0199  0.2260
33901W        W76917  34.109  15.005   1.422  0.1441 -0.0871  0.0871
33902W        W76918  24.688  19.233  27.186 -0.3398 -0.0414 -0.1398
33903W        W76919   3.823  14.562  20.548 -0.0051  0.0838  0.0679
33904W        W76920   1.322  33.767  18.047  0.2293 -0.3603 -0.0517
33905W        W76921  32.220  11.341  15.886  0.1609  0.0534 -0.0079
33906W        W76922  20.877  14.521  13.713  0.2332 -0.2471  0.3069
33907W        W76923  25.053  19.955  27.979 -0.0753  0.2357 -0.1680
33908W        W76924   4.329   6.206  23.685 -0.2264  0.0013  0.0561
33909W        W76925   6.920  32.608  19.098  0.0493 -0.0678  0.4004
33910W        W76926  29.058  24.344  19.802  0.0120 -0.1870  0.2519
33911W        W76927  23.808  13.863  14.391  0.2343  0.3547 -0.0513
33912W        W76928  26.846  11.780  20.891  0.0505 -0.0419 -0.0462
33913W        W76929   1.587  29.215  20.335 -0.0858 -0.2561 -0.0043
33914W        W76930  34.008   6.160  27.050 -0.0828 -0.1400 -0.0423
33915W        W76931  25.874  27.456  21.674  0.1243  0.1200  0.0678
33916W        W76932  15.337  10.166  18.127 -0.2720  0.1659 -0.2987
33917W        W76933  31.278   3.383  14.492 -0.1754 -0.0039 -0.5832
33918W        W76934  33.976  12.450  26.275  0.3677  0.5340 -0.1514
33919W        W76935   2.782  15.527  22.530  0.0255  0.1108  0.2314
33920W        W76936  20.887  23.079  21.941  0.4011  0.1996  0.1094
33921W        W76937  21.079  14.310  15.046 -0.0008  0.0116  0.1165
33922W        W76938   1.697  12.641  26.262 -0.1278 -0.2005 -0.0637
33923W        W76939   8.284   6.135  28.209  0.1670  0.0255 -0.2440
33924W        W76940   2.223  11.474  25.515  0.0365 -0.5186  0.0834
33925W        W76941  12.253  22.230  27.161  0.0029 -0.2200  0.1228
33926W        W76942   9.546  33.820  18.272 -0.1273 -0.2766 -0.0285
33927W        W76943   4.636  29.237  22.446 -0.2687  0.0489 -0.4164
33928W        W76944  16.251  17.354  16.340 -0.1024 -0.1705 -0.0772
33929W        W76945  27.964  10.234  15.684  0.0948  0.3921 -0.0491
33930W        W76946   8.688  16.158  13.002 -0.2544  0.1408 -0.3329
33931W        W76947  33.738  31.690  24.409 -0.0909 -0.0766  0.0448
33932W        W76948  20.954   7.581  25.091 -0.3199  0.0451 -0.2195
33933W        W76949  28.642  34.482  22.240  0.2682  0.0793  0.0256
33934W        W76950  31.914  31.872  20.361 -0.0463 -0.0589  0.1644
33935W        W76951  27.914  30.689  16.728 -0.0972 -0.0675 -0.0165
33936W        W76952   3.095  24.384  15.038  0.1669  0.0412 -0.2254
33937W        W76953   7.735   3.960   0.900 -0.0212  0.1185  0.0990
33938W        W76954   6.883  14.749  19.282 -0.1487 -0.0403  0.1109
33939W        W76955  31.423   9.469  18.461  0.1525 -0.2497 -0.1385
33940W        W76956  33.445  10.492  13.924  0.2680  0.1221  0.0207
33941W        W76957   0.600  11.598   3.261 -0.2250 -0.0242  0.3733
33942W        W76958   3.094   9.187  20.989 -0.1767  0.0886  0.0125
33943W        W76959   5.432  25.629   3.219 -0.3435  0.1412  0.2178
33944W        W76960   5.777  20.292  13.655  0.0924 -0.1765 -0.2271
33945W        W76961  31.297  11.853  18.920 -0.0459  0.0620  0.0718
33946W        W76962   3.613  15.990  20.123  0.3126  0.0898 -0.1532
33947W        W76963  21.397  12.944  26.246  0.0781  0.2794 -0.0899
33948W        W76964   0.198  13.473  16.302 -0.0519 -0.0375 -0.0404
33949W        W76965  29.568  12.329  27.182  0.1501  0.0954 -0.3528
33950W        W76966   1.233   6.744  19.881  0.3698  0.2745 -0.3755
33951W        W76967   3.236  17.054  14.725  0.1181  0.3577  0.1912
33952W        W76968  22.441  15.800  19.989 -0.1535 -0.2996 -0.0018
33953W        W76969  30.276   0.147  24.432  0.2333  0.1964  0.1620
33954W        W76970  21.733  28.657  23.673  0.1894 -0.1659  0.3015
33955W        W76971   4.881   5.705  18.895  0.1794 -0.0987  0.2555
33956W        W76972  29.540   0.023  21.506  0.1655  0.2010  0.3925
33957W        W76973   4.146  30.059  14.711  0.1287  0.0473 -0.2332
33958W        W76974  27.095   7.081  27.123 -0.1916 -0.0567  0.2488
33959W        W76975   8.801  10.621  18.724 -0.0967  0.2391 -0.1826
33960W        W76976  33.187  33.489  16.993  0.1322  0.2177  0.1155
33961W        W76977   1.043  11.876  15.825  0.2710  0.3047 -0.0219
33962W        W76978   4.828  19.896  25.535  0.1236  0.0936  0.0882
33963W        W76979  33.058  15.859  17.681  0.3550 -0.2224 -0.1158
33964W        W76980  28.467  10.934  19.964 -0.3643 -0.3939 -0.2769
33965W        W76981  27.471   6.172  18.489  0.2864  0.3244  0.1525
33966W        W76982   1.386  13.970  21.061  0.1890  0.0047  0.2227
33967W        W76983   2.710  10.950  15.357 -0.1734  0.0827 -0.0841
33968W        W76984  12.009  26.916   0.723 -0.1846 -0.1866  0.2244
33969W        W76985   4.249  18.779  22.395  0.0447  0.0819  0.1937
33970W        W76986  32.479   1.386  29.238  0.1715 -0.0659  0.0569
33971W        W76987   0.253  22.460  20.875 -0.0600 -0.1384  0.0515
33972W        W76988  23.256  34.561  25.136  0.1618 -0.0874 -0.2040
33973W        W76989  10.862  16.482  22.338  0.2986 -0.1884  0.2646
33974W        W76990   9.621  27.026  18.378 -0.2221  0.0250 -0.2141
33975W        W76991  25.031  22.034  18.312  0.1042  0.0234  0.1364
33976W        W76992  24.385   8.023  20.452  0.3342 -0.2458 -0.1700
33977W        W76993  19.298  23.473   5.219  0.0417 -0.2300  0.0071
33978W        W76994  24.053  26.233  19.251 -0.1283 -0.0257 -0.0597
33979W        W76995  28.041  15.366  27.355  0.1061 -0.0415 -0.2042
33980W        W76996  16.398  28.109   4.420 -0.0579 -0.2579  0.3823
33981W        W76997  23.292   5.582  18.606 -0.1305 -0.0839 -0.3543
33982W        W76998   2.743  24.735  15.005 -0.1616  0.0413 -0.0997
33983W        W76999  21.155  29.805   2.961 -0.2948  0.1792  0.0156
33984W        W77000  22.796  28.749  28.473  0.1575 -0.1955  0.1166
33985W        W77001  22.175  12.931  14.992 -0.0244  0.1496 -0.0180
33986W        W77002   8.568  33.683   1.846 -0.2015  0.2536 -0.0703
33987W        W77003  31.612  11.057  15.015  0.3408 -0.0219  0.0123
33988W        W77004   3.844   9.239   5.167 -0.0426 -0.0014  0.0953
33989W        W77005  24.943  18.881  17.614 -0.2165  0.0202  0.2939
33990W        W77006  16.064  12.410  23.234  0.2097 -0.2078 -0.0988
33991W        W77007  15.417  28.796  21.674 -0.2542 -0.2281  0.4034
33992W        W77008  27.005   2.296  20.259 -0.0664 -0.2780 -0.2908
33993W        W77009  24.744   1.323  28.265  0.0926  0.2117 -0.1066
33994W        W77010  34.549  18.186  14.377 -0.4446 -0.0657 -0.0074
33995W        W77011  33.360  11.785   0.969 -0.0628 -0.3385  0.0156
33996W        W77012  33.700  24.639  23.415 -0.0397  0.1008  0.2238
33997W        W77013  20.593   0.254  19.926 -0.0769  0.0335 -0.2273
33998W        W77014  26.011  10.161  27.394 -0.1464  0.0351 -0.1444
33999W        W77015  20.094  16.284  12.763  0.1308 -0.0026 -0.1727
34000W        W77016  28.985   1.275  22.724 -0.1254  0.0489 -0.0025
34001W        W77017  26.331   7.895  17.857  0.1916 -0.5294 -0.1361
34002W        W77018  31.657  21.796  23.620  0.2906 -0.2115 -0.1947
34003W        W77019   9.466  16.324  26.760  0.0336  0.2069 -0.0831
34004W        W77020   6.327  34.334  15.650 -0.1103 -0.0478 -0.1729
34005W        W77021  30.579  19.975  23.530  0.3389  0.1077  0.1330
34006W        W77022  24.174   1.015  21.906  0.1234  0.1818 -0.1685
34007W        W77023  32.074  20.721  25.172  0.0327 -0.1554  0.1066
34008W        W77024  28.266   3.117  21.955  0.0043  0.1086 -0.1213
34009W        W77025  32.849   7.281  19.317  0.0638  0.2035 -0.0119
34010W        W77026  28.900  11.318  17.636 -0.1184 -0.1344  0.1652
34011W        W77027  26.672   6.743  19.857 -0.3487  0.0113  0.2041
34012W        W77028  31.275   8.618   8.774  0.2473  0.0239 -0.3090
34013W        W77029  34.219   6.320  19.552 -0.0148  0.0248 -0.0893
34014W        W77030   1.950  10.772   6.121 -0.0217 -0.2310 -0.0296
34015W        W77031  10.109  30.025  19.839 -0.0950 -0.1835  0.0975
34016W        W77032  30.007  18.445  16.096  0.0979  0.1173  0.0139
34017W        W77033  12.196  31.257  18.738 -0.3243  0.3439 -0.2811
34018W        W77034  31.430   9.129  20.925  0.3265 -0.0777 -0.1585
34019W        W77035  29.152  15.736  17.926  0.1066  0.1808 -0.1045
34020W        W77036  28.125   7.209  25.962  0.1446  0.0201  0.3092
34021W        W77037  18.320   0.185  27.100  0.1964 -0.1429 -0.2204
34022W        W77038  16.462   6.229  21.528  0.0802  0.0097  0.0242
34023W        W77039  26.053  21.900  25.515  0.1661 -0.1398 -0.0044
34024W        W77040  10.088   2.908  19.093 -0.1721  0.0023  0.0412
34025W        W77041   3.641  22.691  26.588  0.1948 -0.1981 -0.1044
34026W        W77042  27.187  13.056  24.278  0.2583  0.2438 -0.0273
34027W        W77043  10.398   9.536  29.296  0.1496  0.2342  0.1875
34028W        W77044  31.531  10.367   6.043 -0.2530  0.4162 -0.0781
34029W        W77045   7.477   4.286  18.927 -0.0100  0.1871  0.0771
34030W        W77046  22.390   7.949   4.548  0.2624 -0.3097 -0.0295
34031W        W77047  18.026   2.683  24.448 -0.2257  0.0252 -0.1268
34032W        W77048   4.844   3.876  17.714  0.3244 -0.1841  0.0914
34033W        W77049   8.738  15.707  13.171  0.6552  0.0254 -0.2328
34034W        W77050  34.603  26.712  16.489 -0.0928 -0.2952 -0.2075
34035W        W77051   4.771   8.368  27.381 -0.1648 -0.3134  0.0981
34036W        W77052  34.656   5.852  16.390 -0.0504 -0.2110 -0.0436
34037W        W77053  34.235  17.273  16.229 -0.0061  0.2034  0.1713
34038W        W77054  24.372  28.274  28.193 -0.1416 -0.1397 -0.1325
34039W        W77055  32.961   6.616  26.455 -0.5611 -0.0902  0.1212
34040W        W77056  34.425  30.151  27.601 -0.0044 -0.1389  0.1175
34041W        W77057  27.517  22.778  20.696 -0.0201  0.2280 -0.1901
34042W        W77058  17.347   4.030   0.681 -0.1625 -0.0144  0.1096
34043W        W77059  33.513  10.978  16.442  0.1564 -0.1123 -0.0184
34044W        W77060  13.973  17.484  21.868 -0.0026 -0.1369 -0.0056
34045W        W77061  23.981   4.915  18.831 -0.5812 -0.0213 -0.1524
34046W        W77062  31.000   1.933  20.079 -0.1964  0.0356 -0.1341
34047W        W77063  21.183   5.692   5.132 -0.1861  0.0084  0.1434
34048W        W77064  23.582   4.488  18.576 -0.0547  0.0195  0.1459
34049W        W77065   1.469  25.770  15.024  0.0023  0.0908 -0.1173
34050W        W77066  20.836   6.699  17.162 -0.0890  0.0997  0.1849
34051W        W77067  31.502  26.881  22.066 -0.1905  0.4715 -0.2884
34052W        W77068  11.100  11.422  13.441  0.1636  0.3248 -0.1935
34053W        W77069   2.724  26.957  14.493 -0.0690  0.2563 -0.0735
34054W        W77070  11.131   7.087  19.250  0.0332  0.1351  0.4001
34055W        W77071  21.807   2.536  18.232 -0.2771 -0.2578 -0.1108
34056W        W77072  33.936   9.783  19.619  0.1485 -0.3099  0.0925
34057W        W77073  33.979  33.304  18.598 -0.2308 -0.3537 -0.2208
34058W        W77074   1.061  23.717  20.904  0.3517  0.0380  0.2869
34059W        W77075   1.851  13.284  20.237  0.2452  0.0750  0.1554
34060W        W77076  34.600  31.461   6.497  0.5605  0.2075  0.0034
34061W        W77077  24.525  16.159   2.030 -0.1558 -0.3587 -0.3068
34062W        W77078   7.219  12.765   3.888  0.0859 -0.2301  0.0161
34063W        W77079   6.578  32.439  20.991  0.1541 -0.2435  0.0561
34064W        W77080   6.664   0.215  22.675 -0.4085  0.2668  0.0733
34065W        W77081  25.457   3.129  15.020 -0.2453 -0.2032 -0.1360
34066W        W77082  34.502  29.805  22.057 -0.1573 -0.1755 -0.2711
34067W        W77083  10.127   2.656  15.157  0.0174  0.2473  0.1820
34068W        W77084   9.226   8.381  14.684  0.2556  0.1829  0.1339
34069W        W77085  21.537   9.412  17.991  0.1682 -0.0937  0.0445
34070W        W77086  15.468  12.228  14.340 -0.3863 -0.0077 -0.1314
34071W        W77087   3.295  14.864  17.752 -0.0526  0.0517  0.2763
34072W        W77088  27.945   5.746   2.463 -0.1549  0.1636 -0.2770
34073W        W77089   2.776   0.858  26.797  0.0027 -0.0216  0.0644
34074W        W77090   0.249  11.797  19.425  0.5461  0.0161  0.0176
34075W        W77091   5.461   9.348  26.523  0.1243 -0.1595  0.2207
34076W        W77092  29.613   5.325   2.299 -0.0086  0.1214  0.0825
34077W        W77093  32.893   9.553  24.014  0.0314 -0.0331 -0.0383
34078W        W77094  32.518   5.583  21.605 -0.2173  0.2211  0.3789
34079W        W77095  27.945   9.095  28.393 -0.1866  0.2036 -0.0408
34080W        W77096  30.017  13.084  16.808  0.1676  0.1717 -0.0024
34081W        W77097   5.996   7.792  18.025  0.1641  0.2932 -0.3186
34082W        W77098  33.485  25.466   2.342 -0.3244 -0.0818  0.3437
34083W        W77099  29.094  10.887  24.017  0.0542 -0.2290 -0.0837
34084W        W77100  28.100  11.834  15.148  0.1869 -0.0094  0.0633
34085W        W77101  30.945  17.523  21.941 -0.0271  0.0978  0.1794
34086W        W77102  33.836  21.142  28.959 -0.1939 -0.0312 -0.1770
34087W        W77103  33.040   5.892   5.171 -0.0298  0.1328 -0.2023
34088W        W77104  20.533   8.750  25.568 -0.1657  0.2280 -0.3061
34089W        W77105   9.471  26.332   7.140 -0.2487 -0.1873  0.2306
34090W        W77106   0.268  22.773  14.660  0.1002  0.2204  0.1687
34091W        W77107   1.598  27.013  28.005 -0.1461  0.3217 -0.0457
34092W        W77108   1.120   0.134  25.390  0.1421 -0.3393  0.0002
34093W        W77109   0.529   6.346  24.632 -0.3450 -0.1682  0.0766
34094W        W77110  34.501   7.134  15.211  0.1749 -0.0015  0.0116
34095W        W77111  33.733   1.660   0.397  0.0524 -0.3487  0.1496
34096W        W77112  25.049  28.320  19.505  0.1577  0.3348  0.0527
34097W        W77113   6.135   2.062  23.001  0.1567  0.1119 -0.1549
34098W        W77114  24.862  12.047   1.187  0.0230 -0.2408  0.1503
34099W        W77115  27.198  34.512  26.630  0.1044 -0.2930  0.1655
34100W        W77116  33.795  18.914  21.841 -0.0072  0.0196 -0.1523
34101W        W77117  23.349   6.261  27.230  0.0364  0.0634 -0.1941
34102W        W77118   6.641  22.985  17.590 -0.2182  0.1082  0.3614
34103W        W77119  11.082   8.394  18.513 -0.2436  0.0564 -0.0856
34104W        W77120   4.046   3.534  19.915 -0.1521  0.1707  0.0650
34105W        W77121  25.784   1.106   0.985 -0.2658  0.0225  0.0700
34106W        W77122  32.590  24.534  19.735 -0.3848 -0.0281 -0.2721
34107W        W77123  24.621  16.440  15.175 -0.1555 -0.0143  0.3583
34108W        W77124  31.257   4.107  16.253 -0.0063 -0.1387 -0.4077
34109W        W77125  12.759  33.179  21.837  0.2394 -0.5599  0.0994
34110W        W77126   3.779   4.089  16.530 -0.1328  0.0438  0.1701
34111W        W77127   1.131  21.108  18.626 -0.4181 -0.1555 -0.2871
34112W        W77128   2.648   8.408   1.480  0.0326  0.0522  0.1759
34113W        W77129  28.970   0.097   3.092  0.3241 -0.0572 -0.0890
34114W        W77130  28.689   4.697  25.026 -0.0451 -0.1081  0.0497
34115W        W77131  29.082  32.617  28.424 -0.0369 -0.1067  0.0242
34116W        W77132   6.148   3.918  25.691  0.0123  0.0706  0.3032
34117W        W77133  16.996   8.812  19.518  0.2768 -0.0195  0.1897
34118W        W77134  12.347  21.237  27.807 -0.1692  0.1635  0.1840
34119W        W77135   2.213   2.703   0.279  0.0659  0.0413  0.2479
34120W        W77136  32.501   5.259  22.066  0.0889 -0.1545  0.2088
34121W        W77137  22.384  26.722   4.388 -0.1735  0.3532 -0.1677
34122W        W77138   3.011  21.483  18.509  0.1534  0.0864 -0.3506
34123W        W77139   1.978  14.195   9.929  0.1834  0.1102  0.2156
34124W        W77140  16.708  14.241  11.590  0.1450  0.0514  0.0119
34125W        W77141  27.511   4.418  17.518  0.0000  0.1216  0.0629
34126W        W77142  28.801   7.441  23.884 -0.4608  0.1476  0.0982
34127W        W77143  29.356  11.408  25.671 -0.2010 -0.1896 -0.2278
34128W        W77144  22.587   8.026  24.703  0.0648 -0.2095 -0.3207
34129W        W77145   4.528   4.280  15.791 -0.3901 -0.1918  0.3053
34130W        W77146  30.389   9.564  15.683  0.0618  0.0084  0.0104
34131W        W77147  12.421  10.829  19.539 -0.0694  0.0433  0.1687
34132W        W77148  15.156  18.002  12.408 -0.0618 -0.3241 -0.3550
34133W        W77149   1.360  16.367  18.814  0.0250 -0.0865 -0.5046
34134W        W77150  24.879  27.774  27.520  0.3124  0.2519  0.1983
34135W        W77151  25.998  28.831  24.594  0.1562 -0.0731 -0.0013
34136W        W77152  21.998  28.576  25.462  0.2421  0.3308 -0.1517
34137W        W77153  21.607  31.124  16.033  0.2229 -0.0178 -0.2178
34138W        W77154  33.272  14.322  15.979 -0.2977 -0.4808  0.1008
34139W        W77155  12.226   1.117  27.522  0.0501 -0.1228  0.2833
34140W        W77156  31.945  27.359  19.053 -0.1056 -0.0167 -0.2813
34141W        W77157  12.578  18.066   1.503 -0.0057  0.2228  0.1462
34142W        W77158  26.165   0.403  27.406  0.0739 -0.1012 -0.0452
34143W        W77159  32.531  23.722  27.821 -0.0635  0.0016 -0.0504
34144W        W77160  29.968   9.597   2.304  0.0017 -0.2581 -0.1367
34145W        W77161  23.024  26.839   7.577 -0.3418 -0.0178 -0.0212
34146W        W77162  20.261   8.862  15.633 -0.2225  0.2700  0.0720
34147W        W77163  28.955  10.896  22.610 -0.1877  0.0332 -0.2596
34148W        W77164  18.216   2.106   6.831 -0.0781  0.4983  0.2991
34149W        W77165  25.380  12.356  15.877  0.1791 -0.0907  0.0788
34150W        W77166  15.203  13.090  21.115 -0.3369  0.0263 -0.0098
34151W        W77167  21.417  16.230  27.310  0.1155 -0.1236 -0.0914
34152W        W77168  26.106  22.112  23.684  0.0764 -0.1091  0.3309
34153W        W77169  23.780  10.814  16.084 -0.3974  0.1717 -0.1382
34154W        W77170  26.810  10.526  25.191 -0.1127  0.2812 -0.3238
34155W        W77171  30.032   3.474  16.952  0.1877 -0.0148  0.0835
34156W        W77172  13.920   3.960  18.048  0.0230 -0.0123  0.1618
34157W        W77173  21.192  11.737  20.398  0.1377  0.1511  0.0122
34158W        W77174  25.974  12.934  28.358  0.2131 -0.0573  0.0622
34159W        W77175   2.259  25.340  25.265  0.1156  0.0392 -0.2051
34160W        W77176  29.008  13.848  19.337  0.2870  0.0491  0.2702
34161W        W77177   8.541   8.796  15.642 -0.2404 -0.0494  0.0736
34162W        W77178  10.627   8.890  13.304 -0.1117  0.0603 -0.3797
34163W        W77179  27.180  34.185   1.561 -0.2288  0.1253  0.1104
34164W        W77180   3.226  16.543  14.653  0.0958  0.0980 -0.0179
34165W        W77181  27.901   6.586  19.171 -0.1103 -0.1539  0.0459
34166W        W77182  16.071   7.009   2.881 -0.1909  0.3738 -0.1234
34167W        W77183   3.532  13.799  21.073 -0.0805  0.1357  0.0743
34168W        W77184  31.409  23.132  21.770 -0.0264 -0.0643 -0.0417
34169W        W77185  30.282  17.855  21.358 -0.2237 -0.2271  0.0132
34170W        W77186  21.067   8.093  17.578 -0.0346  0.0088 -0.1698
34171W        W77187  29.255  28.940   8.657  0.0920 -0.2046  0.5107
34172W        W77188  10.704   7.057  28.967 -0.0415  0.5422  0.3382
34173W        W77189   1.179  11.405  15.475 -0.0308 -0.0952  0.1158
34174W        W77190  34.400  33.250  25.888 -0.0148 -0.0443 -0.2080
34175W        W77191  23.769   6.670  15.938  0.2162 -0.0721  0.0802
34176W        W77192  28.133  13.124  14.066  0.0018 -0.1017 -0.3169
34177W        W77193  13.735  12.616   5.246 -0.1006 -0.3067 -0.0521
34178W        W77194  29.666   5.093  28.253 -0.0739  0.0011  0.0715
34179W        W77195  28.514  12.272  21.741  0.0430 -0.0172  0.1499
34180W        W77196  27.481  10.261  23.336 -0.1921  0.0945 -0.0416
34181W        W77197  26.774   1.542  15.194 -0.0383  0.1201 -0.2090
34182W        W77198  32.746  29.263  22.413 -0.0400  0.1759  0.1288
34183W        W77199  34.417  16.107   3.881 -0.1095  0.0723  0.1970
34184W        W77200  31.950  20.051  21.392 -0.1572  0.2500  0.2639
34185W        W77201  22.869  10.112   4.248  0.1194 -0.1210  0.0189
34186W        W77202   3.324   9.091  24.399  0.1970  0.1109  0.2176
34187W        W77203  15.764   5.283  15.011 -0.0973 -0.1017 -0.0303
34188W        W77204  12.750   7.604  21.893 -0.1361 -0.2886  0.0846
34189W        W77205  10.329   5.452  16.076  0.0429  0.0767  0.2634
34190W        W77206  32.308  18.556  24.189 -0.0466  0.1292 -0.1427
34191W        W77207  26.450   7.979  15.522  0.0318 -0.0163  0.2015
34192W        W77208  21.980  26.669  24.015  0.1075  0.0923 -0.1496
34193W        W77209   1.115   7.959   0.021  0.1276 -0.2214 -0.1028
34194W        W77210  31.718  31.784  28.544 -0.0031  0.1213  0.0147
34195W        W77211  20.581  22.611  21.122 -0.1071 -0.4011  0.3101
34196W        W77212  12.801  10.970  14.526  0.1757 -0.4600  0.0067
34197W        W77213  26.607   1.202  20.641 -0.2063 -0.0541  0.0585
34198W        W77214   2.204   3.645  21.615 -0.1073 -0.1263 -0.1912
34199W        W77215   8.451  33.431  19.422  0.1439 -0.0541 -0.0085
34200W        W77216  19.658  13.686  21.347  0.0175  0.0144 -0.0641
34201W        W77217  16.895   8.786   0.246  0.0620 -0.0393 -0.1525
34202W        W77218  30.018  10.903  20.144  0.1700 -0.2103 -0.3392
34203W        W77219   2.918   7.544  17.314  0.0807 -0.0102  0.1456
34204W        W77220  14.568   5.933  21.711 -0.5078  0.4887  0.2275
34205W        W77221   9.507  12.180  24.225  0.1788 -0.2567 -0.1941
34206W        W77222  31.665   1.448  22.778 -0.2241 -0.0061  0.2415
34207W        W77223  18.820  10.141  13.983  0.0396  0.1484 -0.2010
34208W        W77224   7.979   1.652  16.101 -0.3757  0.0643  0.2401
34209W        W77225   5.279   6.859  25.341 -0.1062  0.1903  0.3425
34210W        W77226  22.398  21.144  17.782 -0.0415 -0.0990 -0.2495
34211W        W77227  14.434   5.576  16.160 -0.2007  0.1243 -0.0473
34212W        W77228  13.742  15.166  23.690  0.1755 -0.0103  0.2274
34213W        W77229  31.173  29.533  18.538 -0.0050  0.3390  0.4137
34214W        W77230   6.888  15.741  24.297 -0.2953 -0.2438 -0.0271
34215W        W77231   1.155  10.603  18.048  0.0448 -0.1409  0.2451
34216W        W77232  15.549   7.579  16.282  0.1153  0.1723  0.1122
34217W        W77233  15.856  31.026   5.264 -0.2660 -0.1319  0.1936
34218W        W77234  33.782   9.086   3.777  0.1776  0.1038  0.3632
34219W        W77235  28.595   1.888  26.308 -0.0811 -0.0403  0.0264
34220W        W77236  12.683  22.334  22.230  0.3079  0.0353  0.1158
34221W        W77237  34.321  12.673   2.295 -0.0208 -0.1490 -0.0891
34222W        W77238   8.623  34.389  14.205  0.0250 -0.2668 -0.3565
34223W        W77239   6.743  12.869  20.036 -0.2293 -0.1836 -0.1779
34224W        W77240  32.860  30.654  22.673 -0.0506  0.0669 -0.0343
34225W        W77241  33.252  30.353  22.690  0.2029 -0.0332  0.0074
34226W        W77242  28.954  18.379  21.394 -0.0506  0.0678  0.2215
34227W        W77243  34.164  15.735  16.673  0.2803 -0.0610  0.3624
34228W        W77244  30.759  17.296   0.781 -0.2044  0.0894 -0.3900
34229W        W77245  27.771  15.579   0.322  0.2503  0.0299 -0.1399
34230W        W77246  20.271   9.967  17.185 -0.0729  0.0371  0.0870
34231W        W77247   9.773   4.878   0.582 -0.2168 -0.1393 -0.0216
34232W        W77248  18.337   3.407  18.932 -0.0826  0.1472 -0.1430
34233W        W77249  31.404  22.335  29.121  0.1644  0.1948 -0.1721
34234W        W77250  28.724  34.410   4.858 -0.0353 -0.0988 -0.0138
34235W        W77251  23.468  27.219  18.385  0.5392 -0.1302 -0.0302
34236W        W77252  25.256   3.490  23.229  0.1056 -0.0793 -0.1751
34237W        W77253  25.345   9.005  15.216  0.2629  0.1387  0.2399
34238W        W77254  30.350  21.251  25.323  0.0812  0.0692 -0.1709
34239W        W77255   4.102  13.946  16.688 -0.1329 -0.1591 -0.0873
34240W        W77256  22.236   6.069  16.412 -0.2938  0.2118  0.1784
34241W        W77257  25.509  21.931   3.732 -0.0615 -0.0016  0.0703
34242W        W77258   2.336   1.178  14.451 -0.0016  0.0241  0.1504
34243W        W77259  28.689  18.992  20.877  0.2994 -0.1432  0.1352
34244W        W77260  30.805  29.730  24.323  0.0365  0.2245  0.0528
34245W        W77261  12.170  21.032   3.477 -0.1877  0.1565 -0.0808
34246W        W77262  26.016  31.945  27.767  0.0818 -0.0435 -0.0897
34247W        W77263  23.462  14.556   0.836 -0.2135  0.3484 -0.3511
34248W        W77264  24.065  10.113  17.979 -0.2482 -0.2239  0.0282
34249W        W77265  19.045  21.084  27.745  0.2497 -0.1026  0.0626
34250W        W77266  31.749  31.327  27.654 -0.0179  0.1318  0.0411
34251W        W77267  27.012  13.801  14.143 -0.2467 -0.3982  0.0836
34252W        W77268   3.338   1.936  17.880  0.1231 -0.0428 -0.0224
34253W        W77269  32.063  32.104  18.387 -0.1212 -0.1928 -0.0233
34254W        W77270  34.577  14.217   5.815  0.0842 -0.1967 -0.0335
34255W        W77271  24.414  14.221   3.315  0.1601 -0.2389 -0.1763
34256W        W77272  22.175  18.306  28.143  0.1973 -0.0211  0.0579
34257W        W77273  30.478   5.193   3.726  0.2252  0.2484 -0.0173
34258W        W77274  17.853  25.560   2.220  0.1108 -0.0998 -0.0641
34259W        W77275   2.752   4.239  25.287 -0.3933  0.0205 -0.3609
34260W        W77276  22.605   2.806  22.007 -0.1435 -0.1937  0.0226
34261W        W77277  25.253   5.527  20.942 -0.1267 -0.3020 -0.4066
34262W        W77278   0.963  23.369  14.566 -0.1422 -0.1687 -0.0300
34263W        W77279   3.027  18.674  24.539  0.1518  0.0247 -0.0321
34264W        W77280  32.643   0.738  18.470  0.0903 -0.2133 -0.2199
34265W        W77281   7.514   6.628  15.671  0.5773  0.1652  0.0939
34266W        W77282   3.715   8.106  24.316 -0.0378  0.2872  0.1440
34267W        W77283  21.211  28.382   5.716 -0.1673 -0.0562 -0.0489
34268W        W77284   1.401  33.741   5.824  0.1931 -0.3486 -0.1421
34269W        W77285   1.544   4.515  25.982  0.1350  0.3373 -0.3550
34270W        W77286  26.133   9.172   9.144 -0.0434  0.0155 -0.2015
34271W        W77287  23.909   3.596  22.549 -0.2130 -0.0880  0.1262
34272W        W77288  23.094  11.471  16.760  0.1755  0.0985  0.1560
34273W        W77289  21.492   1.691  16.028  0.3645  0.2365  0.2555
34274W        W77290  34.583  15.999  24.639  0.4596  0.0325  0.0506
34275W        W77291   8.954  11.502  16.335 -0.0404  0.0955  0.1921
34276W        W77292  19.938  14.695   2.166 -0.1960 -0.0118  0.0592
34277W        W77293  32.012  11.023  18.908 -0.0902 -0.1737  0.3451
34278W        W77294  29.698  33.800  18.710 -0.2871  0.0607 -0.2471
34279W        W77295  30.599  23.887   7.278 -0.0321 -0.1285 -0.2117
34280W        W77296  11.620   4.517  18.197  0.2420 -0.0549  0.2360
34281W        W77297  26.389   8.816  16.063 -0.4106 -0.0841 -0.2417
34282W        W77298  27.829  27.839  18.935 -0.1242 -0.1286 -0.0839
34283W        W77299  28.147  14.531  22.140 -0.1331 -0.0843 -0.1678
34284W        W77300  22.375  29.947   1.274  0.5087  0.3198  0.2769
34285W        W77301   2.593  14.530  19.754  0.3420 -0.1070  0.0133
34286W        W77302   5.936  17.162  19.123 -0.1619  0.0357  0.1407
34287W        W77303  28.831  15.082  20.762  0.0455  0.0160  0.0518
34288W        W77304  25.374  22.659   3.013  0.1859  0.0699 -0.2899
34289W        W77305  11.334   8.719  28.296  0.1146 -0.0118  0.0097
34290W        W77306  11.303  11.503  23.253  0.2872  0.0736 -0.1305
34291W        W77307  28.958  29.134  18.907 -0.0701  0.1053 -0.2275
34292W        W77308  13.159  33.393  17.835 -0.0712  0.1066  0.0716
34293W        W77309  18.332   4.844  21.549 -0.1764  0.1384 -0.2983
34294W        W77310  30.632  12.749  21.589 -0.2983 -0.0149  0.2452
34295W        W77311  12.698  20.607  21.587 -0.1789 -0.1918 -0.0818
34296W        W77312  15.398  27.699  25.245 -0.3451  0.0606  0.3585
34297W        W77313  22.846   8.416  21.090 -0.0824 -0.2213  0.0591
34298W        W77314   3.954  25.449  23.158 -0.2367 -0.1050 -0.1360
34299W        W77315   2.532   6.805  18.361 -0.1655  0.2318 -0.0318
34300W        W77316  33.791   2.726  21.154  0.2084  0.0556  0.0987
34301W        W77317  26.105   7.312   0.979 -0.1957  0.2380  0.3090
34302W        W77318  30.645  33.454   1.700 -0.4091  0.0409  0.2898
34303W        W77319  14.284   2.341  16.437 -0.1263  0.0962 -0.1416
34304W        W77320  30.669  30.389  20.647  0.0472 -0.1455 -0.3234
34305W        W77321  13.752  11.972  22.508 -0.1642  0.0637  0.2708
34306W        W77322  32.954   8.266  21.693  0.4215  0.3013 -0.0159
34307W        W77323  33.062   8.108   1.052  0.2858 -0.2175  0.1453
34308W        W77324  34.508  27.928  27.119 -0.1399 -0.1247  0.2163
34309W        W77325   0.352  10.576  16.025 -0.1113 -0.0668  0.1126
34310W        W77326  24.915  15.282  16.556 -0.2967  0.4370  0.0599
34311W        W77327  23.726   3.426  18.832 -0.0327 -0.0191  0.2609
34312W        W77328   9.840  14.313  24.176 -0.0845 -0.2469  0.1471
34313W        W77329  16.733   5.372  17.875 -0.0522  0.1090 -0.1507
34314W        W77330   1.698  31.848  17.996 -0.3660  0.2954 -0.1438
34315W        W77331  10.901  14.794  19.634  0.1828  0.0715 -0.0807
34316W        W77332  30.077  13.860  21.778  0.1247 -0.0506 -0.0518
34317W        W77333  22.824  29.621  24.820  0.0513 -0.0904 -0.1510
34318W        W77334  29.445  13.998  18.382  0.1498  0.1144  0.0232
34319W        W77335  28.395   3.519  26.631  0.0752 -0.1780 -0.0210
34320W        W77336   2.300  23.215  15.318 -0.2492 -0.1243  0.0588
34321W        W77337  34.641  28.043  14.768 -0.2809 -0.0647  0.1463
34322W        W77338  18.419  34.497  22.906 -0.2074  0.4291 -0.1910
34323W        W77339  33.049  14.121  25.827  0.0844 -0.0949  0.0795
34324W        W77340  20.457  17.515  14.672  0.2180 -0.3621 -0.0490
34325W        W77341  17.978  16.729  13.476  0.0109 -0.0109  0.2104
34326W        W77342  28.288  33.486  16.240  0.1518 -0.1252 -0.0756
34327W        W77343  26.816  24.026  24.397  0.0625 -0.0592 -0.0353
34328W        W77344  20.962  17.710  25.336  0.4546  0.4338  0.0904
34329W        W77345  33.911  15.791  22.616 -0.2192  0.2082  0.1054
34330W        W77346  34.062   0.421  18.880 -0.2474  0.0566  0.2608
34331W        W77347  23.673  33.685  25.653  0.0036 -0.0458  0.1852
34332W        W77348  21.562  31.434  18.985  0.0940  0.1739 -0.0372
34333W        W77349  29.001  16.023  19.888  0.4044  0.0715 -0.0020
34334W        W77350  10.096   2.232  22.561  0.0555  0.1780 -0.3663
34335W        W77351   6.475  11.572   4.055 -0.0166  0.0355  0.0985
34336W        W77352  25.762  14.001  15.016 -0.2418  0.2014 -0.1383
34337W        W77353   0.382  21.255  17.585  0.1743  0.0068  0.1001
34338W        W77354  26.654   1.733  26.704  0.0249 -0.1124  0.2782
34339W        W77355  24.383  33.800  25.140 -0.1445  0.0420 -0.2110
34340W        W77356  18.614  30.957  16.934  0.2000 -0.2402  0.0758
34341W        W77357  23.291  24.579  25.382 -0.0788 -0.1878  0.0297
34342W        W77358   2.537  10.769  21.903  0.1628 -0.1448 -0.0062
34343W        W77359  24.962  12.165  22.387  0.0256  0.3395 -0.1645
34344W        W77360  31.370  11.154  19.709  0.1104 -0.1368 -0.0462
34345W        W77361  22.018   5.229  18.490  0.0046 -0.2449 -0.1732
34346W        W77362  29.093  14.484  14.770  0.2003  0.0803 -0.0285
34347W        W77363  25.604   9.134  17.064  0.1739  0.1674 -0.1857
34348W        W77364  17.717  27.650   2.729 -0.2408 -0.1255  0.2578
34349W        W77365   7.727  20.694  22.482 -0.0057  0.1392 -0.2095
34350W        W77366  24.059   9.207  24.978 -0.0154 -0.2033 -0.2811
34351W        W77367  28.816  20.186  15.230  0.1783 -0.0514 -0.1615
34352W        W77368  32.032  13.595  15.279  0.0476 -0.2129  0.1642
34353W        W77369  27.973   6.483  18.645 -0.3545 -0.1187 -0.0374
34354W        W77370  26.709   9.438  17.612 -0.1941 -0.0441  0.1136
34355W        W77371   2.775  31.593   0.251 -0.2198 -0.1504  0.1038
34356W        W77372   6.396   7.851  23.238 -0.2814 -0.0132 -0.4883
34357W        W77373  33.441   4.984  15.000 -0.3024  0.0154  0.1273
34358W        W77374   7.966   9.911  13.452 -0.0802  0.2792 -0.3749
34359W        W77375  26.817   5.579  24.666 -0.0391  0.1577 -0.0431
34360W        W77376  26.529  19.571  17.146  0.4924  0.2454 -0.0632
34361W        W77377   9.968  33.582  22.401  0.2188 -0.0637 -0.0011
34362W        W77378  20.492  23.826  23.487  0.0361 -0.0847  0.1024
34363W        W77379  30.952  15.211  14.415  0.0338  0.0423  0.1855
34364W        W77380   9.639   9.726   7.533  0.2873  0.0769  0.0047
34365W        W77381  24.003   9.857  17.013  0.3670  0.1646 -0.2118
34366W        W77382   4.929  14.607   2.639 -0.0827  0.0097 -0.2514
34367W        W77383  25.600  14.943  17.528  0.4200  0.0452  0.2121
34368W        W77384  28.961   4.661  17.722  0.2273 -0.2277  0.1372
34369W        W77385  33.464  16.166  19.133  0.4361 -0.0851  0.2985
34370W        W77386   2.304   9.038  21.411  0.0018 -0.1294 -0.0123
34371W        W77387   1.228   6.072  18.438 -0.0566 -0.0842  0.2025
34372W        W77388  13.307  16.387   2.589 -0.0005  0.3197  0.4640
34373W        W77389  16.730  16.391  15.666  0.1601  0.1512  0.1051
34374W        W77390   7.929   2.440  21.748  0.5085  0.4484 -0.2587
34375W        W77391  29.135  24.557   4.063  0.1482 -0.2328 -0.0040
34376W        W77392  26.249  24.351   1.577 -0.1013  0.0588  0.1747
34377W        W77393  22.911   4.324  23.125  0.1397  0.0307  0.1992
34378W        W77394  28.719  15.046  17.269 -0.0031 -0.1974 -0.1974
34379W        W77395   4.505   8.712  25.409 -0.2411 -0.2021 -0.0810
34380W        W77396  34.726  21.559  17.555  0.1250 -0.0773  0.2025
34381W        W77397  33.972  13.132  26.668 -0.3182 -0.0929 -0.0974
34382W        W77398   2.797  15.098  28.056  0.2671  0.0081 -0.2898
34383W        W77399   5.863  29.447  14.933  0.0155  0.1041 -0.2275
34384W        W77400  33.248   0.104  15.434 -0.2001 -0.0354 -0.1242
34385W        W77401  28.414  13.222  27.134 -0.2034 -0.1313 -0.0770
34386W        W77402  27.412  11.159   2.389  0.0436 -0.1117 -0.1147
34387W        W77403   2.851  21.441  15.200  0.2934 -0.3662 -0.0905
34388W        W77404  26.233  14.365  23.954 -0.2330 -0.0956  0.1532
34389W        W77405  22.548  16.611  27.823  0.2216  0.2531  0.1960
34390W        W77406   2.004  30.840   5.555  0.0585  0.3205 -0.2384
34391W        W77407  18.390   0.031   8.052  0.1279 -0.0185  0.2254
34392W        W77408  30.262   9.980   0.071 -0.0909 -0.1868  0.2371
34393W        W77409  26.772  29.155   6.675 -0.1340 -0.0850  0.1310
34394W        W77410  25.298   1.466  10.167  0.0557  0.5660  0.0632
34395W        W77411  21.149   7.748  14.263 -0.2591  0.2983 -0.0190
34396W        W77412  27.688  17.367  21.847  0.0178  0.0167  0.1902
34397W        W77413  23.741  14.405  13.987  0.0597  0.0424  0.2654
34398W        W77414   4.657  29.310  26.910 -0.0096  0.3609  0.2086
34399W        W77415  14.995  16.412   3.652 -0.0713 -0.2967  0.0886
34400W        W77416   1.444  22.674   4.103 -0.1201  0.0800 -0.0734
34401W        W77417  30.287   8.752  28.005  0.1721 -0.0612  0.1796
34402W        W77418  29.673  11.232  25.106  0.0044 -0.0152 -0.0461
34403W        W77419   1.293  18.801   0.158  0.0874  0.1643 -0.0604
34404W        W77420  29.780   7.210  25.013  0.1097 -0.1552  0.1627
34405W        W77421  12.304   7.129  17.102 -0.0946 -0.1706  0.1103
34406W        W77422  20.228  16.347  14.600  0.1685 -0.0262  0.1388
34407W        W77423  29.509  18.354  28.061 -0.0053 -0.2580 -0.1061
34408W        W77424  33.672   8.263  28.926 -0.1439 -0.0285 -0.0366
34409W        W77425  25.130   3.760   7.135 -0.1908  0.1025  0.0102
34410W        W77426   6.204  12.355  16.766 -0.0687 -0.0372  0.1226
34411W        W77427  33.857   1.320   8.891  0.2519 -0.0145  0.1965
34412W        W77428   0.026   5.565  17.648  0.2482  0.1015  0.0555
34413W        W77429  24.654   4.521   0.122  0.4821 -0.0484  0.0243
34414W        W77430  30.878   7.006   0.691  0.2189 -0.0713 -0.0764
34415W        W77431   4.971  22.703   0.823 -0.0017 -0.4168 -0.3889
34416W        W77432   0.550   4.325  27.079 -0.1402 -0.2380 -0.1076
34417W        W77433  27.486  14.090   1.881  0.0592 -0.2088 -0.0239
34418W        W77434  26.397   2.189   1.467 -0.1637  0.2950  0.1485
34419W        W77435  22.943  14.123  14.228 -0.0628  0.3881  0.1123
34420W        W77436   2.275  11.707  15.904  0.2456 -0.0382 -0.1775
34421W        W77437  24.930  20.237  18.883 -0.0061 -0.4228  0.1873
34422W        W77438  14.776  31.738   2.491  0.0758  0.2204 -0.4897
34423W        W77439   0.075   4.195   8.026 -0.0727  0.0077 -0.3203
34424W        W77440  31.335  15.246  14.718  0.1601 -0.3500  0.1841
34425W        W77441  27.432   2.135  20.314  0.0540 -0.1315 -0.0182
34426W        W77442  32.832   0.439  19.295  0.1848  0.1785  0.0507
34427W        W77443  33.251   1.505  24.837 -0.0452 -0.0363 -0.2652
34428W        W77444   6.287  27.007  15.364 -0.0281  0.4100  0.0518
34429W        W77445  13.264  27.866  25.146  0.0107 -0.3698 -0.2532
34430W        W77446  26.713  23.414  17.519 -0.0249 -0.0593  0.2868
34431W        W77447  24.791  17.210  21.824  0.5704 -0.1169  0.0826
34432W        W77448  15.772   6.548  26.209  0.1696  0.0102 -0.2073
34433W        W77449   4.917  31.666  23.779  0.2432 -0.1462 -0.0971
34434W        W77450   0.169   1.071  15.376 -0.0911 -0.0028  0.0447
34435W        W77451  32.444  18.201   9.099 -0.1874 -0.0989  0.6951
34436W        W77452  26.744   7.399  15.519  0.2607 -0.0382  0.1389
34437W        W77453  34.344  13.644  20.093 -0.4044 -0.1038  0.0677
34438W        W77454  17.258  13.723   4.937  0.1230 -0.1379  0.1417
34439W        W77455   5.199   0.909  10.491  0.2115 -0.2614  0.3057
34440W        W77456   1.739  14.060  25.674  0.0508 -0.0528  0.2060
34441W        W77457  23.688  25.764   8.641  0.1621  0.0262  0.0213
34442W        W77458  12.893   9.169  21.061  0.0048  0.0382  0.1756
34443W        W77459   8.734  15.725  14.232 -0.2567  0.0862  0.0524
34444W        W77460  18.383  31.414  21.514 -0.2184 -0.0208  0.1227
34445W        W77461   7.197   5.223  18.564  0.1985  0.1063 -0.0995
34446W        W77462   0.685  14.888  16.383  0.2090  0.1945 -0.2164
34447W        W77463  33.976  13.034  10.282  0.1149 -0.0707  0.3489
34448W        W77464   4.145  26.947  21.589 -0.0604  0.3707 -0.2052
34449W        W77465   2.710   2.355  14.677  0.0484 -0.0879 -0.0988
34450W        W77466   6.837  24.899  15.248 -0.4195  0.0095  0.0405
34451W        W77467   1.756   6.743  14.812 -0.0516 -0.1745 -0.0670
34452W        W77468  13.257   1.219  20.384  0.1967  0.1412  0.1283
34453W        W77469  31.257  20.727   6.691  0.0889 -0.0276 -0.0361
34454W        W77470  21.586   3.191  28.235 -0.2278  0.2169  0.1143
34455W        W77471  27.262  26.181  15.255 -0.1149  0.0516 -0.0136
34456W        W77472  17.821   5.649  21.835 -0.0734  0.1294  0.1407
34457W        W77473  30.248   3.792   4.093  0.0163 -0.0445 -0.1952
34458W        W77474  27.133  30.275   1.392  0.1581  0.0046  0.4073
34459W        W77475  17.379  29.941  17.800  0.2025 -0.2227  0.1702
34460W        W77476  33.410  34.719  17.712  0.3612  0.0818  0.0974
34461W        W77477  25.494  10.845  22.769  0.0907 -0.0139 -0.2005
34462W        W77478  29.424   5.641   4.394 -0.0556  0.0630 -0.1219
34463W        W77479  31.152   3.925   4.975  0.1187  0.0822  0.0620
34464W        W77480  14.690  14.666  22.167 -0.0713 -0.0447 -0.2584
34465W        W77481  33.050   8.047  19.756 -0.1425  0.2655  0.1200
34466W        W77482   7.011  18.184  13.538 -0.1593 -0.1649 -0.1349
34467W        W77483   2.054   4.081  27.910 -0.1191  0.2898  0.0421
34468W        W77484   2.045   1.376  24.819  0.1655 -0.2890 -0.2070
34469W        W77485  21.146  20.701  24.772  0.1036 -0.0750  0.2341
34470W        W77486  27.372  10.895  27.283  0.0187  0.0982  0.0076
34471W        W77487  13.243   6.342   6.727 -0.1569 -0.1843  0.1380
34472W        W77488  24.319  21.597   6.695 -0.1213 -0.3131  0.0665
34473W        W77489  26.705  30.972  29.027 -0.1507 -0.4579  0.1734
34474W        W77490   3.296  30.024   4.026  0.2023  0.2188 -0.1494
34475W        W77491  34.511  17.805   3.374  0.2383  0.2209 -0.0815
34476W        W77492  34.687  20.953  22.917 -0.3798  0.0991 -0.1418
34477W        W77493  28.906  19.775  22.839  0.0563  0.0309  0.1465
34478W        W77494  28.144   3.365  19.310 -0.0441 -0.4015  0.3847
34479W        W77495   0.487  14.281  24.045  0.0206 -0.1716 -0.1487
34480W        W77496  20.187  26.887  16.409 -0.0565 -0.0222  0.0313
34481W        W77497  11.170  26.704  22.845 -0.1143 -0.0582  0.2534
34482W        W77498  26.275  14.852  21.658 -0.3105  0.2723 -0.0809
34483W        W77499  30.441   3.352   6.783  0.0261 -0.1897 -0.1700
34484W        W77500   6.897  22.209  19.554 -0.0037 -0.0288  0.1928
34485W        W77501  31.234  12.899  19.868  0.1565  0.1811  0.2281
34486W        W77502  24.538  17.282   3.993 -0.1932 -0.2018  0.4243
34487W        W77503  31.780  12.874  26.374 -0.0506  0.0411  0.0804
34488W        W77504  30.761   2.856  23.086  0.1501  0.0268  0.1634
34489W        W77505  32.921  31.723   2.044  0.1537 -0.2593  0.1147
34490W        W77506  30.231   9.486   9.402 -0.0650 -0.4790  0.2404
34491W        W77507  25.281   4.041  18.607  0.0191 -0.1105  0.0484
34492W        W77508  27.204   9.914  25.717 -0.0359  0.2555  0.1589
34493W        W77509  31.150  28.109   7.050  0.0924  0.0851  0.3498
34494W        W77510   5.366  33.406  19.795  0.1008 -0.0234 -0.2786
34495W        W77511  17.840   0.696  16.180  0.3875  0.2736  0.0566
34496W        W77512  17.214   6.844  27.796 -0.2402 -0.2091 -0.3075
34497W        W77513  30.450  15.501  17.786  0.2145  0.2123  0.3011
34498W        W77514  27.781  17.995   4.496  0.2643 -0.1801 -0.1904
34499W        W77515   1.714  27.295  21.311 -0.0096 -0.1519  0.1012
34500W        W77516   0.383   2.379  15.844  0.4276 -0.1209  0.0100
34501W        W77517   3.120  22.039  22.339 -0.4015  0.2453 -0.1729
34502W        W77518  32.359  17.411  26.100  0.0476  0.0276  0.0735
34503W        W77519   7.525  27.961   4.625  0.0564  0.0328 -0.2776
34504W        W77520  30.752   6.986  18.875 -0.2004  0.0362 -0.0107
34505W        W77521  33.972  20.516  26.921  0.1972 -0.1438  0.1650
34506W        W77522  16.783  33.014  28.472 -0.0464  0.0445 -0.1553
34507W        W77523  28.280  17.268  23.051  0.0817  0.0503 -0.3913
34508W        W77524  32.805   9.165  28.444 -0.0401 -0.0322 -0.0089
34509W        W77525   3.784  20.749  19.780 -0.3495  0.0801  0.1215
34510W        W77526  30.552  23.012   3.573  0.3982  0.0760 -0.3007
34511W        W77527   8.667  31.912  22.602 -0.1361  0.3037 -0.1057
34512W        W77528   2.483  25.120  21.268  0.0464  0.3280 -0.2368
34513W        W77529  31.893   9.900  19.400 -0.0082 -0.0512  0.2190
34514W        W77530   4.508  12.245  29.192  0.0761  0.0661 -0.0677
34515W        W77531  29.599   8.923  16.076  0.1213  0.3393 -0.0387
34516W        W77532  28.079  32.264   5.155 -0.0968 -0.1790  0.0398
34517W        W77533  14.358  29.917  29.041  0.0140  0.0861 -0.1081
34518W        W77534  13.315   1.004  20.894 -0.3551  0.1223 -0.2190
34519W        W77535  11.183   0.591  14.026  0.0554 -0.0123  0.1945
34520W        W77536  23.194  33.165  28.000  0.4032  0.1973 -0.0472
34521W        W77537  31.126  28.593  26.801 -0.0317 -0.4391  0.0409
34522W        W77538   9.391  13.650  25.457  0.3692  0.0718  0.0248
34523W        W77539  21.730  12.696  28.687  0.3165 -0.2367 -0.2350
34524W        W77540  24.488  22.228   2.892 -0.0115  0.0247  0.1323
34525W        W77541  20.697  24.477  27.355 -0.0042  0.1839  0.0299
34526W        W77542  32.535  28.456  27.121  0.1045 -0.0468 -0.0564
34527W        W77543  21.982  10.065  13.184  0.1811 -0.2334  0.1452
34528W        W77544   7.479  30.368  17.455  0.0485  0.0764  0.1648
34529W        W77545  23.645   3.993  19.376  0.0620  0.1103 -0.1976
34530W        W77546  31.065  25.811  16.993 -0.3731 -0.1356  0.2510
34531W        W77547  19.589  25.545   9.587  0.0792  0.1220  0.0149
34532W        W77548  19.968  14.764  24.826 -0.0096 -0.2232  0.2599
34533W        W77549  20.922  12.014  21.629 -0.3352  0.1743 -0.2054
34534W        W77550  16.084   6.766  25.377 -0.0618 -0.0444  0.0673
34535W        W77551  31.136  22.114   4.901 -0.0479 -0.1552  0.0607
34536W        W77552  30.905   1.714  25.782  0.4731 -0.2115 -0.0075
34537W        W77553  33.475  14.132  16.824 -0.1241 -0.0381 -0.0388
34538W        W77554   8.509   0.748  17.179 -0.3179  0.0167  0.1710
34539W        W77555   9.385   3.036  24.899  0.0192 -0.0764  0.0777
34540W        W77556   6.337   8.948  16.453 -0.4786  0.0520 -0.0183
34541W        W77557  16.682  12.445  19.435  0.1277  0.0893  0.2263
34542W        W77558   5.127  12.931   3.547 -0.0773  0.1087 -0.1618
34543W        W77559  28.599   1.809   5.001  0.5406 -0.1177 -0.3255
34544W        W77560  27.970  14.372  15.051  0.1191  0.2486 -0.1586
34545W        W77561  30.364  23.292  15.612  0.0126 -0.0495 -0.0708
34546W        W77562   2.006  24.607  21.797 -0.1967 -0.2254  0.1625
34547W        W77563   0.906  14.797  24.049 -0.1903  0.2568 -0.0234
34548W        W77564   6.507  11.602  27.444  0.0727  0.2780  0.0822
34549W        W77565  14.594  10.097  15.030 -0.0736  0.0813 -0.0151
34550W        W77566  19.363  11.331  26.857  0.1165 -0.0524  0.1905
34551W        W77567  32.987   9.520  17.559 -0.2348 -0.1431 -0.4485
34552W        W77568  22.998  24.276  21.965 -0.0487 -0.1315  0.3854
34553W        W77569  32.756  34.257  18.518 -0.1139 -0.0439 -0.0863
34554W        W77570   0.456  32.986  17.733 -0.1350  0.0964  0.0880
34555W        W77571  29.131   6.007   6.298 -0.1126 -0.1683  0.2916
34556W        W77572  31.327  20.681  17.953 -0.2528 -0.3502 -0.0237
34557W        W77573  19.300   4.388  25.554  0.1516  0.3841  0.0848
34558W        W77574  25.663   7.926   0.334  0.2976 -0.2266 -0.0250
34559W        W77575  26.770   8.056  18.511 -0.0857  0.0274  0.2521
34560W        W77576  27.240  34.019  23.683  0.1487 -0.0655 -0.0503
34561W        W77577   6.281  23.318  15.865  0.0263  0.4440 -0.0830
34562W        W77578  19.925   7.999   1.816  0.3620  0.0855 -0.0452
34563W        W77579  30.695   8.711  24.815 -0.4069  0.1621 -0.1703
34564W        W77580  30.245   0.865  18.612 -0.1188 -0.0056  0.0411
34565W        W77581   6.954  10.617  16.509 -0.0410  0.1903  0.1112
34566W        W77582  20.628   7.775  13.941  0.0856 -0.1252 -0.0304
34567W        W77583   0.724  22.947  16.836  0.0731  0.0469  0.0106
34568W        W77584   6.237   4.918  22.211  0.2732 -0.0418 -0.2016
34569W        W77585   1.144  31.930  18.944  0.3145  0.2543  0.2012
34570W        W77586  33.557  33.717  21.862  0.1430 -0.0778  0.0335
34571W        W77587   0.357  34.382  24.766 -0.1121 -0.1362 -0.1774
34572W        W77588  17.835  31.695  26.718  0.1736 -0.3283 -0.0227
34573W        W77589  16.024   0.859  27.571 -0.2337 -0.0966 -0.0310
34574W        W77590  27.047  19.260  22.163 -0.1482  0.2945 -0.0063
34575W        W77591   9.809   6.907  16.293  0.2813 -0.1544 -0.1936
34576W        W77592  23.064   1.623  17.232 -0.1454  0.2801 -0.2477
34577W        W77593   4.565  12.430   4.200 -0.1047  0.1073  0.0580
34578W        W77594   3.603   1.285  18.698  0.0220  0.2091 -0.0700
34579W        W77595  33.647  11.583   6.388  0.1557  0.1265  0.1189
34580W        W77596  29.681  24.790  18.798  0.0291  0.1573 -0.0201
34581W        W77597   7.017   2.423   6.253 -0.3457 -0.0723  0.0375
34582W        W77598  32.892   7.885   2.352  0.0876 -0.0215  0.0381
34583W        W77599  34.026  11.414  19.748  0.0384 -0.0025  0.2469
34584W        W77600   1.052  14.363  17.228  0.0754 -0.0639 -0.1390
34585W        W77601   4.386  34.266  27.899 -0.1132 -0.3179 -0.2230
34586W        W77602  25.648   6.180  15.698 -0.0873 -0.0803  0.0906
34587W        W77603  16.920   9.374  19.351 -0.0156  0.0583  0.2843
34588W        W77604   0.610  17.971  16.335 -0.1628  0.0465 -0.0373
34589W        W77605   7.013   4.924  23.376  0.1278 -0.1950  0.0608
34590W        W77606  25.822   9.926  15.507  0.1683 -0.0703 -0.2321
34591W        W77607  22.160  16.061  14.252  0.2362 -0.1358 -0.3131
34592W        W77608  26.167   5.354   7.698  0.0800 -0.3268 -0.3368
34593W        W77609  22.737  22.196   8.949  0.1432  0.1727 -0.1170
34594W        W77610  27.689  16.334  24.649  0.3046 -0.0759  0.0269
34595W        W77611   3.872  32.399  24.532  0.1490  0.2145  0.1735
34596W        W77612   2.257  27.226  23.570  0.0026  0.2171  0.0726
34597W        W77613   7.993  14.947  17.788  0.0890  0.2933  0.3021
34598W        W77614  24.722  12.074  14.365  0.0438  0.1313 -0.2376
34599W        W77615  11.946  13.229   2.113  0.0671  0.1053 -0.0371
34600W        W77616  28.915   5.224   6.729  0.0106 -0.1643 -0.1549
34601W        W77617  28.771  12.552  15.169 -0.2609  0.0712  0.0478
34602W        W77618  28.345   0.628  15.994  0.1355  0.2660 -0.2047
34603W        W77619  29.037  23.615  16.984  0.0513  0.2876  0.0191
34604W        W77620  31.709  15.278  16.352  0.0824 -0.0637 -0.1794
34605W        W77621  10.746  22.103  26.530 -0.4023  0.2915 -0.0532
34606W        W77622  30.064  28.582  20.817 -0.0819 -0.1794 -0.0257
34607W        W77623  20.425  26.621  18.392  0.1480 -0.0714  0.0614
34608W        W77624  25.197   7.152  27.962 -0.0560  0.3365 -0.1334
34609W        W77625   0.532   8.682  28.765  0.0402 -0.0385  0.0246
34610W        W77626  20.233  27.353  23.033  0.2425  0.0007  0.0741
34611W        W77627  11.275   5.860  22.777 -0.1520  0.0182  0.1198
34612W        W77628  20.012  11.725   1.532 -0.1329 -0.2280 -0.3035
34613W        W77629  29.248  11.440   5.083 -0.1878  0.0048 -0.0609
34614W        W77630   0.698  13.344   1.207 -0.3041 -0.0003  0.1269
34615W        W77631  33.192   8.335  28.109  0.2256  0.1000 -0.2212
34616W        W77632  31.070   3.615  22.685 -0.1690  0.2200  0.2509
34617W        W77633  33.879  19.880  22.134  0.0957 -0.1882  0.2414
34618W        W77634  30.818   5.148   4.676  0.2059  0.0571  0.1560
34619W        W77635   0.604   0.393  24.171  0.1682  0.0856  0.2723
34620W        W77636  29.795   9.182   2.843 -0.3685  0.1358 -0.1494
34621W        W77637  15.230  28.415  17.882 -0.1056  0.0539  0.2600
34622W        W77638  33.202  11.604  23.022 -0.1666 -0.2273 -0.2226
34623W        W77639   7.411  11.522  24.054 -0.0009 -0.3649 -0.0033
34624W        W77640  28.795  12.154  23.305 -0.2641  0.5050 -0.3429
34625W        W77641  28.294  17.932  16.652 -0.0256 -0.2562 -0.0612
34626W        W77642  24.764   3.817  19.457  0.1547 -0.1924 -0.0509
34627W        W77643  28.734  12.455  17.524  0.1616  0.0420  0.0000
34628W        W77644   3.147  12.999  24.099 -0.1040 -0.2114 -0.0989
34629W        W77645  24.790  19.539  27.716 -0.0543  0.0554  0.0244
34630W        W77646  20.223  34.495  21.541  0.2341 -0.0323 -0.0382
34631W        W77647  23.645  10.172  24.261  0.0464  0.2124 -0.4704
34632W        W77648  27.163   5.226  14.964  0.0097 -0.0363 -0.0649
34633W        W77649  26.927   6.078  24.598 -0.0398  0.0944  0.2412
34634W        W77650   8.518   3.278   9.121 -0.1252 -0.0789 -0.1834
34635W        W77651  29.537  30.908  21.613  0.0615 -0.2243  0.1181
34636W        W77652  18.970  32.382  28.627  0.1521 -0.3436  0.1464
34637W        W77653  28.687   9.015  27.893 -0.1812  0.0617  0.1622
34638W        W77654   6.416  24.816  21.159  0.1335 -0.1530 -0.2080
34639W        W77655  15.673  33.835  21.654 -0.0123  0.1103 -0.0387
34640W        W77656  20.761  21.270  17.360 -0.3040  0.0288 -0.0577
34641W        W77657  27.548  29.850  29.111 -0.2160 -0.1702  0.2206
34642W        W77658   4.627  32.063  20.727  0.1853 -0.0866  0.3439
34643W        W77659  12.051  29.717  27.042 -0.2115  0.0264 -0.0235
34644W        W77660   0.143  19.739  16.029  0.2084 -0.0356  0.0137
34645W        W77661  29.245  12.531  14.797 -0.3567  0.1875  0.0394
34646W        W77662  27.062  17.543  23.114 -0.4530  0.0662  0.0747
34647W        W77663  33.480  31.160  17.473 -0.1895  0.0394 -0.0023
34648W        W77664  33.101   7.137   0.009 -0.1586 -0.1919  0.0970
34649W        W77665  30.612   2.187   3.237 -0.0077 -0.2930  0.0879
34650W        W77666  10.877  11.736  22.307  0.0693  0.2446 -0.1178
34651W        W77667  28.986  15.490  16.737  0.1350 -0.2587 -0.0622
34652W        W77668   8.439  33.530  21.530  0.1622 -0.0862  0.0912
34653W        W77669   3.874  10.670  24.468  0.0345  0.0202 -0.4698
34654W        W77670  27.191   6.820   9.452 -0.0824  0.1546 -0.1676
34655W        W77671  19.946   3.255  20.868 -0.0175 -0.0568 -0.1091
34656W        W77672  17.280  15.900  11.203  0.1085 -0.1018  0.0827
34657W        W77673  28.785   3.672  21.102  0.0627  0.2508  0.3564
34658W        W77674  23.409   5.989  28.916 -0.2609 -0.0915 -0.2068
34659W        W77675  31.245  14.421  21.821  0.0759 -0.2281 -0.1475
34660W        W77676   4.385  21.031   0.412  0.2127 -0.0409  0.2920
34661W        W77677  22.912  24.160  15.024 -0.3720 -0.2503 -0.1070
34662W        W77678   9.495   3.615   8.046  0.0165  0.0039 -0.2369
34663W        W77679  16.222  10.046  26.727  0.2153 -0.3171  0.1478
34664W        W77680  25.731  15.142  18.966  0.0418  0.1332  0.1790
34665W        W77681  25.055  34.109   1.211 -0.1146 -0.0614 -0.0186
34666W        W77682   2.190   9.551  19.228  0.3052  0.0312 -0.2623
34667W        W77683   2.726  15.707  15.387 -0.1015 -0.6902 -0.1323
34668W        W77684   4.743  11.866   5.365 -0.1509 -0.0184 -0.2057
34669W        W77685  14.953   3.783  21.821 -0.1687 -0.4559  0.0540
34670W        W77686  26.987   4.113   8.963  0.0288 -0.1074  0.2750
34671W        W77687  22.714  21.480  20.784  0.2809 -0.0453 -0.1757
34672W        W77688  32.465  20.209  22.123  0.1912 -0.0867 -0.3244
34673W        W77689  33.952   6.401  26.644 -0.3518 -0.1994  0.0597
34674W        W77690  34.225   7.354  29.100 -0.0784  0.0269  0.5033
34675W        W77691  29.753  14.626  20.655  0.2630  0.0874 -0.1315
34676W        W77692  32.821  16.610  10.772 -0.0505 -0.0274  0.0639
34677W        W77693  28.954  13.495  13.758 -0.0463  0.0282  0.0771
34678W        W77694  15.806  23.885  18.288  0.0795  0.0058 -0.2300
34679W        W77695  29.106   6.873   1.618 -0.0986 -0.1635 -0.2904
34680W        W77696   6.746  22.952  27.937 -0.3112  0.1856 -0.3145
34681W        W77697  33.474  12.178  17.688  0.0113 -0.1053  0.0372
34682W        W77698  31.479  33.041   2.734  0.0778  0.0571  0.0487
34683W        W77699   9.036   7.100  17.042  0.1392  0.2845  0.1566
34684W        W77700  24.351   6.124   1.478  0.2015 -0.0740 -0.0809
34685W        W77701  11.762  10.158  26.673 -0.4798 -0.3564 -0.0544
34686W        W77702  29.903  30.000  16.997 -0.1112  0.0932  0.2350
34687W        W77703  23.046  31.312  26.610 -0.0454 -0.1675 -0.0383
34688W        W77704  24.768  10.420  17.487  0.0546 -0.3945  0.1408
34689W        W77705   6.599   9.742  25.699  0.1179 -0.2041  0.2443
34690W        W77706  24.362   2.068   1.858  0.0805  0.0274  0.2460
34691W        W77707  21.440   3.200  15.315 -0.0403  0.0990 -0.3785
34692W        W77708  29.962  13.024  29.172 -0.1999  0.3536  0.2553
34693W        W77709  26.027   6.124   7.804 -0.2242  0.2404 -0.0630
34694W        W77710   6.845  13.271  24.142  0.0140 -0.0042  0.0582
34695W        W77711   0.934   6.125  15.720  0.1336  0.0718  0.0691
34696W        W77712  18.291   5.508   5.404  0.0652  0.0938 -0.0752
34697W        W77713  23.040  32.026  18.066 -0.0988  0.1515 -0.0616
34698W        W77714  11.988   9.217  28.843  0.0653 -0.0128  0.0666
34699W        W77715  28.946   6.903   6.318  0.0421 -0.3291  0.1976
34700W        W77716   4.711   7.381  20.122  0.1235 -0.0165  0.0019
34701W        W77717  26.635   5.316  20.891  0.0484  0.2418  0.2262
34702W        W77718  27.512   3.562  23.015  0.2811  0.3224  0.1980
34703W        W77719  33.144  11.295  23.442  0.0311 -0.0339  0.1498
34704W        W77720  33.757   5.175   0.544 -0.3083 -0.0124 -0.1723
34705W        W77721  34.375  28.597  22.868  0.3840  0.0181  0.1330
34706W        W77722  12.275  32.147  14.617  0.0642 -0.2007  0.2064
34707W        W77723  22.746  33.114  27.113  0.3131  0.0597 -0.0920
34708W        W77724  28.693   1.077  19.224  0.2391 -0.1362 -0.0115
34709W        W77725  29.817  14.070  19.027 -0.2413 -0.3059  0.0027
34710W        W77726   4.286  10.794  14.146  0.1791  0.1510  0.1828
34711W        W77727  24.141  14.946  23.366  0.3437  0.0080  0.1785
34712W        W77728  24.024   5.395  22.410  0.1052  0.2477 -0.2511
34713W        W77729  26.002   2.470  27.577 -0.3070 -0.0998  0.2197
34714W        W77730  33.252   4.638  19.349 -0.1160  0.0323  0.0160
34715W        W77731  18.129   0.204  21.043  0.0128  0.1647  0.2363
34716W        W77732  30.974  19.252  23.019 -0.0642 -0.1414 -0.0739
34717W        W77733  25.993  17.048  15.496  0.1980  0.1194 -0.5264
34718W        W77734  25.228  25.643  24.234  0.0489  0.0207 -0.1890
34719W        W77735  31.192  30.557  20.631 -0.3515  0.0077  0.0851
34720W        W77736  29.330   3.054  26.298  0.1016  0.2182 -0.0494
34721W        W77737  20.471   3.785  28.279 -0.0067  0.0837 -0.0271
34722W        W77738   6.983  10.244   5.068  0.1954 -0.1802  0.0364
34723W        W77739   9.262   4.373  20.375 -0.0469 -0.1432  0.2374
34724W        W77740   5.369   8.693  25.658  0.2192 -0.0584  0.0439
34725W        W77741  24.078   5.596   7.489 -0.1405  0.0162  0.2495
34726W        W77742  24.724  15.865  24.373  0.4435 -0.0910  0.1468
34727W        W77743  27.236  24.798  15.881  0.1563  0.0897  0.0729
34728W        W77744  16.292  17.042  20.003 -0.1008  0.0418 -0.2591
34729W        W77745   6.381  33.565  23.053  0.1639  0.0821 -0.0409
34730W        W77746   6.593  18.273  14.666  0.2054 -0.1181 -0.0330
34731W        W77747  22.178   8.047   4.015 -0.2614  0.0245 -0.0221
34732W        W77748  21.391  11.344  19.373 -0.1794 -0.0506 -0.1878
34733W        W77749  22.320  13.938  13.580 -0.5168 -0.0197  0.0432
34734W        W77750  25.038  15.257  22.933 -0.1324  0.2829  0.1625
34735W        W77751   0.433  21.977  10.473  0.1733 -0.4805  0.2485
34736W        W77752   0.879  28.763   5.859 -0.0872 -0.1605  0.2140
34737W        W77753  22.325   8.449  18.825 -0.0214  0.0696 -0.1333
34738W        W77754  11.988  11.578  26.505  0.1388 -0.0070  0.1301
34739W        W77755   7.266  14.140   5.837  0.0808 -0.0483 -0.0335
34740W        W77756  12.574  33.988  19.031 -0.2205 -0.0289  0.1713
34741W        W77757  25.416  27.989  26.151  0.0319  0.0495  0.3914
34742W        W77758  26.579  17.820  16.956 -0.2182  0.0789  0.2830
34743W        W77759  33.992   3.862  14.358  0.2248 -0.1808 -0.1039
34744W        W77760  28.618  18.859   3.681 -0.0346  0.0873  0.0513
34745W        W77761  15.820  21.905  21.365 -0.4933 -0.2791 -0.0879
34746W        W77762  34.106   7.955  21.925 -0.0818 -0.0916 -0.0717
34747W        W77763  25.385  18.544  26.268 -0.1841  0.0632 -0.2277
34748W        W77764  29.865   3.530  14.292  0.5115  0.1432  0.2269
34749W        W77765  33.935  33.444   1.798 -0.2244  0.0972 -0.0065
34750W        W77766  12.762  15.119  12.438 -0.0393  0.1111 -0.0400
34751W        W77767   4.704  33.112  15.410  0.1815  0.0936 -0.0600
34752W        W77768  22.427   5.390  27.639 -0.2566  0.1000  0.0705
34753W        W77769   7.791  32.529  16.255  0.0192  0.0596  0.0342
34754W        W77770  31.030   8.246  16.512 -0.4356 -0.1147 -0.1467
34755W        W77771   8.184   6.754  26.773 -0.3078  0.1180 -0.2020
34756W        W77772  27.746   7.006  19.712 -0.1536 -0.2524 -0.1619
34757W        W77773  31.674  16.607   4.502  0.0354 -0.1267  0.5166
34758W        W77774  20.515  29.331  20.276  0.1295  0.1591 -0.1413
34759W        W77775  18.468  27.599   2.013  0.3179 -0.1274 -0.1609
34760W        W77776  30.160  15.421   7.813  0.1520 -0.2851 -0.1797
34761W        W77777  24.381   1.121  19.279 -0.1694  0.0650  0.0131
34762W        W77778   0.236   3.010  22.416  0.1892  0.0581  0.0500
34763W        W77779  22.869  12.047  17.964 -0.0317 -0.1615 -0.4447
34764W        W77780  16.825   8.841   2.351 -0.3907 -0.3797  0.1723
34765W        W77781   2.387  10.323  27.266  0.0675  0.0439  0.1672
34766W        W77782  26.325   2.138  25.088  0.0873  0.0540 -0.1483
34767W        W77783  34.563   8.399   0.649 -0.0504  0.0941 -0.1287
34768W        W77784  26.352   4.825   1.146  0.0044  0.2152 -0.1494
34769W        W77785  10.221   4.331  28.008 -0.0868 -0.0007  0.1339
34770W        W77786  11.364  16.403  24.971 -0.2424 -0.4604 -0.0479
34771W        W77787  20.791  25.731  27.821  0.0319 -0.4097  0.2002
34772W        W77788   5.657  15.723  15.522  0.0272  0.0449  0.3364
34773W        W77789   5.240   6.501  16.709 -0.0430 -0.0242  0.3311
34774W        W77790  21.528  31.656   0.770  0.2229  0.1754 -0.1671
34775W        W77791  32.507  13.491   2.262  0.0074 -0.0631  0.0022
34776W        W77792  13.285   7.106   3.302  0.1836 -0.0576  0.2428
34777W        W77793  33.934  30.034  23.011 -0.1710 -0.1806  0.0632
34778W        W77794  29.389  26.513   7.357 -0.1727  0.0119 -0.0207
34779W        W77795   9.865   7.300  18.224 -0.1082 -0.0375 -0.3884
34780W        W77796  31.332   5.394  26.842 -0.0131  0.2930 -0.0216
34781W        W77797   5.473  30.643  22.779  0.0318 -0.2941  0.0909
34782W        W77798  17.710   8.944  21.723  0.2636 -0.1387 -0.0094
34783W        W77799  27.811   1.703   9.009 -0.0314  0.0526  0.0011
34784W        W77800   9.552  11.962   4.371 -0.2921 -0.1189 -0.1197
34785W        W77801  32.648  11.324  25.743  0.0727  0.1737 -0.1232
34786W        W77802  23.121  15.821  20.778 -0.0976  0.1248 -0.0266
34787W        W77803  30.416   9.025  25.179 -0.0016 -0.0877 -0.0150
34788W        W77804   6.871   7.540   3.068  0.0941  0.1808  0.0018
34789W        W77805  20.629  13.744  22.392  0.2006  0.1006 -0.2902
34790W        W77806  25.824  11.361   1.157 -0.0484 -0.1042  0.1125
34791W        W77807  34.094   9.606   8.451 -0.1696  0.1041 -0.0176
34792W        W77808  29.552  18.614  28.490  0.2512  0.3032 -0.1888
34793W        W77809   3.271   6.220  27.207  0.3015  0.0298 -0.0157
34794W        W77810  33.844   3.379  28.172 -0.0323  0.0023  0.2099
34795W        W77811   4.800   9.404  19.554 -0.0923  0.2015 -0.4227
34796W        W77812  28.717  23.870  28.396 -0.1475  0.0572 -0.0416
34797W        W77813  26.397   7.798  28.243 -0.0045 -0.0593  0.2315
34798W        W77814  23.805  29.514  28.532  0.1468 -0.2192 -0.1802
34799W        W77815  28.645  18.880  17.242 -0.2518 -0.1816  0.0240
34800W        W77816  23.538  24.222   5.713 -0.1170 -0.0374  0.0089
34801W        W77817  24.844   5.935   3.348 -0.0488 -0.0297 -0.2790
34802W        W77818  17.576  16.018  12.584 -0.0687 -0.0115  0.1967
34803W        W77819  23.807   5.261  26.652 -0.0886  0.1366  0.0606
34804W        W77820  20.199  20.682  21.304  0.2797  0.0766  0.2990
34805W        W77821  21.775   3.361   2.367 -0.3379 -0.1795 -0.0972
34806W        W77822   0.516   0.027   1.901  0.0992 -0.2544 -0.1530
34807W        W77823  30.936  11.915   8.780  0.3045  0.4515  0.0381
34808W        W77824  23.234  10.349   9.162 -0.0096  0.3640  0.2121
34809W        W77825   0.635   8.430   6.609 -0.0761 -0.1091  0.2750
34810W        W77826  19.752  32.036   5.440  0.0233  0.0639 -0.1073
34811W        W77827  21.358   3.307  22.410  0.2182  0.0030  0.4592
34812W        W77828   4.928  14.717  22.735  0.0821 -0.0194 -0.2735
34813W        W77829  26.616  34.712  24.780  0.2133  0.1676  0.2151
34814W        W77830  24.133   8.990  26.806  0.1851  0.2699  0.0100
34815W        W77831  29.214   4.078  21.944  0.2463  0.0692  0.0881
34816W        W77832   0.370  11.431  23.159  0.0610  0.1371 -0.0523
34817W        W77833   2.719   2.258  25.348  0.1932 -0.0412  0.2589
34818W        W77834  19.812   4.437  14.787 -0.1510  0.1175 -0.2386
34819W        W77835  28.697  12.191  10.908 -0.2636  0.2986  0.0244
34820W        W77836  23.811   3.787   7.708 -0.0140 -0.0627  0.2078
34821W        W77837  26.780  21.504  27.219  0.2177 -0.1192  0.1705
34822W        W77838   6.413   9.238  20.542 -0.0842  0.0252 -0.4143
34823W        W77839  27.415  10.748  24.657 -0.2225 -0.1287  0.1372
34824W        W77840  33.412  33.104  24.592  0.0971  0.0758  0.1215
34825W        W77841  10.996  16.395  24.575  0.0641 -0.1273  0.1170
34826W        W77842   1.759  10.425  16.909 -0.2906 -0.0163  0.1010
34827W        W77843  29.412  11.100  17.022 -0.3717  0.0414  0.0516
34828W        W77844  28.235  31.490  21.708 -0.0493 -0.0554 -0.4288
34829W        W77845   5.933   5.045  20.306 -0.4236  0.0905 -0.0545
34830W        W77846   3.131   9.894   6.118  0.3216  0.1512  0.2130
34831W        W77847  30.062   2.905  18.168  0.0689 -0.3639 -0.1551
34832W        W77848  32.209   8.394  26.142  0.1030 -0.3673  0.0348
34833W        W77849   4.054   9.567  18.749 -0.1163  0.3696 -0.1381
34834W        W77850  11.945  16.858  23.787  0.2491 -0.3525 -0.1294
34835W        W77851   8.583   3.369   7.018 -0.0918 -0.2781  0.4892
34836W        W77852  32.993  11.992  16.491 -0.0661 -0.1032  0.0370
34837W        W77853  30.929   0.744   8.281 -0.1188  0.0433 -0.3295
34838W        W77854  25.910  28.940  25.086 -0.1487 -0.0906 -0.2344
34839W        W77855  12.633  14.108  26.618  0.1900 -0.2726 -0.5001
34840W        W77856  32.302   8.662  10.769 -0.0373  0.0133 -0.2361
34841W        W77857   1.263  21.380  21.941  0.0859 -0.0278 -0.4877
34842W        W77858  24.218  22.077   6.987 -0.2606  0.0159  0.2147
34843W        W77859   9.536  17.098  15.965 -0.0965 -0.1906  0.0765
34844W        W77860  20.755  12.490   3.527  0.0487  0.0398 -0.1685
34845W        W77861   2.690  23.212  21.489  0.1229 -0.0840 -0.4390
34846W        W77862  28.231  15.221  27.856 -0.0560  0.3240  0.0659
34847W        W77863   6.702  15.527   6.445 -0.1374  0.2603 -0.3579
34848W        W77864   5.034  20.157   2.372 -0.2097  0.1698  0.0673
34849W        W77865   1.757   2.895   2.959 -0.2309  0.1467  0.2149
34850W        W77866  17.484  27.180  28.386 -0.3067 -0.0582  0.0242
34851W        W77867   2.683   5.483   9.222  0.2413 -0.4212  0.2214
34852W        W77868   6.684  13.582  20.694  0.1009 -0.0571 -0.3596
34853W        W77869  26.046   5.655   1.195  0.0845 -0.2771  0.2915
34854W        W77870  24.112  11.922  27.535  0.4194 -0.2164 -0.1629
34855W        W77871  33.348  11.204  26.842  0.1828  0.0910 -0.2509
34856W        W77872  31.558   1.301   9.507 -0.5137  0.3179  0.1243
34857W        W77873  30.325   8.571  27.434  0.0520  0.4796  0.0070
34858W        W77874  30.084  24.151  19.450  0.2293  0.0543 -0.3094
34859W        W77875  30.774  25.916   4.732  0.0661  0.3345  0.1029
34860W        W77876  21.277  17.734  26.704  0.0460 -0.0777  0.1222
34861W        W77877  17.952   5.538  14.602 -0.0839  0.1069 -0.2556
34862W        W77878   8.401  16.234   0.290 -0.2902  0.1045  0.0978
34863W        W77879  31.066  21.099   8.348  0.2929  0.2151  0.1351
34864W        W77880  29.388  18.491  25.065  0.1943  0.1730 -0.3089
34865W        W77881   1.362  30.590  13.828  0.1563 -0.3454  0.1464
34866W        W77882   6.817  10.533  26.419  0.3494  0.2286 -0.1955
34867W        W77883   2.795   8.809   3.774 -0.0149  0.0952  0.1931
34868W        W77884   4.986  16.366  15.870  0.2470  0.1588  0.0074
34869W        W77885   7.312   3.621  19.266 -0.2625 -0.0949  0.0243
34870W        W77886  27.023  22.310   5.372  0.1067 -0.1833  0.1417
34871W        W77887   4.889  15.198   6.516 -0.1636 -0.0222 -0.1741
34872W        W77888  28.691  12.511  22.214 -0.3278  0.1157 -0.1661
34873W        W77889  33.881  31.325   0.297 -0.1799  0.0831 -0.0320
34874W        W77890  10.348  21.880  25.113  0.1908 -0.0113 -0.2537
34875W        W77891  30.769  23.113  22.924  0.1402 -0.0997  0.1149
34876W        W77892  30.815  30.380  23.402  0.3279 -0.0013 -0.1697
34877W        W77893   2.249  15.819  19.762 -0.0036  0.2495  0.0630
34878W        W77894  33.374   0.350   3.199  0.1487 -0.3899 -0.0233
34879W        W77895  29.411   1.344  18.511 -0.2516  0.0767  0.1905
34880W        W77896  30.471   6.490  23.138  0.1324  0.3399  0.1038
34881W        W77897   0.759   5.938  21.629  0.1902  0.1831 -0.0676
34882W        W77898  25.473   3.171  23.582 -0.1925 -0.0082 -0.0235
34883W        W77899  24.262  12.158  19.983 -0.2758 -0.3247  0.1809
34884W        W77900   0.538   9.541  27.458 -0.5108 -0.2766 -0.1351
34885W        W77901   7.725  26.680  23.925 -0.2960 -0.0412  0.1089
34886W        W77902  10.123   6.066   0.222  0.0822 -0.1978 -0.0883
34887W        W77903  25.008   1.225   3.977  0.0466  0.2401 -0.3332
34888W        W77904  32.680  22.148  25.823  0.2121  0.1047 -0.2068
34889W        W77905   8.416  20.530  26.968 -0.1291 -0.1992 -0.1019
34890W        W77906  34.682   3.624  22.398  0.1520  0.0518  0.1238
34891W        W77907   1.064   0.690  20.523 -0.0850  0.0292  0.5072
34892W        W77908  22.060   7.308   5.937  0.1304  0.1224 -0.2495
34893W        W77909  28.193   3.691   4.110 -0.1232 -0.3684  0.2404
34894W        W77910  28.949  17.782   5.602  0.0444 -0.0448  0.1671
34895W        W77911  30.170  27.566   3.184 -0.1819  0.1455  0.2999
34896W        W77912   6.292  21.590  22.868 -0.0972  0.2085 -0.1392
34897W        W77913  19.134  32.220   2.099  0.2705  0.2669  0.2398
34898W        W77914  27.794  32.467   0.267 -0.2173 -0.0517 -0.2095
34899W        W77915  28.218  23.640  22.304  0.2162 -0.0948  0.0688
34900W        W77916  33.189  15.520  21.276 -0.3401  0.2315 -0.3981
34901W        W77917  23.536  17.167   0.903 -0.1648 -0.1564  0.0785
34902W        W77918  34.713  21.604  15.653  0.1115  0.1314 -0.3036
34903W        W77919   6.229  25.824  19.427 -0.0909  0.1411 -0.1193
34904W        W77920   1.419   2.299  25.001  0.3311  0.1032  0.0120
34905W        W77921  16.362  28.441   1.964 -0.1650 -0.1016  0.0602
34906W        W77922   0.390   8.508  13.647 -0.0062  0.0941 -0.0556
34907W        W77923   0.961  15.657  28.122  0.0512 -0.0910  0.0790
34908W        W77924   1.283  10.962  20.984  0.1468 -0.0847  0.0776
34909W        W77925  19.188   5.505  14.906  0.0500  0.2422 -0.1171
34910W        W77926  29.122  26.964  25.538 -0.1220 -0.1576  0.1472
34911W        W77927  34.604  13.412   9.050  0.3664  0.2405  0.4499
34912W        W77928  32.685   7.621  24.990 -0.2916  0.2807  0.0745
34913W        W77929  21.950  15.975  23.605  0.3756 -0.0752 -0.0305
34914W        W77930  24.499   1.820   8.187 -0.0286  0.0359  0.0858
34915W        W77931  26.674  33.459  14.977 -0.0857  0.2763 -0.1265
34916W        W77932   3.789  12.486  26.520 -0.0231  0.1108  0.1542
34917W        W77933  31.353  13.068  27.375 -0.3379 -0.1379 -0.0804
34918W        W77934  32.677   4.686   7.954  0.3129 -0.1744 -0.1090
34919W        W77935   4.825  23.292   2.582  0.0343 -0.2002  0.5338
34920W        W77936   5.064  20.362  23.324 -0.1399  0.0833  0.0215
34921W        W77937  30.839   2.929  25.235  0.1467  0.2496  0.3617
34922W        W77938   2.325  10.491  20.741  0.2385 -0.1548  0.1030
34923W        W77939   6.451  16.515   0.639  0.1415 -0.2028  0.1628
34924W        W77940   2.132  16.292  20.566  0.2070 -0.1915  0.0281
34925W        W77941  26.054   9.681  29.294 -0.0449 -0.0235  0.0239
34926W        W77942  19.057  17.129  20.840 -0.1398 -0.0771 -0.0103
34927W        W77943   8.371   9.065   9.744 -0.2485  0.0597  0.0443
34928W        W77944  19.741   4.235  26.252  0.0430  0.2583  0.0434
34929W        W77945  26.630  14.351  26.952 -0.0423  0.2094  0.1491
34930W        W77946   7.290   2.871  22.242 -0.1746  0.4363 -0.1252
34931W        W77947  28.108  18.719  26.307  0.1979 -0.4107 -0.0443
34932W        W77948   0.262   5.883  28.094  0.0861  0.1452  0.0501
34933W        W77949  30.527  28.932  20.608 -0.0016 -0.1888  0.1088
34934W        W77950  14.981  12.261  22.727 -0.2142 -0.4523 -0.1160
34935W        W77951  15.020   8.227  26.193  0.3000 -0.0355 -0.1362
34936W        W77952  20.699   3.699   1.703  0.1751 -0.0635  0.1113
34937W        W77953   5.031   6.261  23.146 -0.0757 -0.1730  0.0222
34938W        W77954  16.619   2.682  14.051 -0.0690 -0.2403  0.0294
34939W        W77955  21.688  11.537  23.091  0.0977 -0.0005 -0.0162
34940W        W77956  30.018   1.015   2.194 -0.0445  0.0983  0.1632
34941W        W77957   3.668  14.550  22.907 -0.2165 -0.0733 -0.1907
34942W        W77958  30.644  25.941   9.014 -0.0001 -0.1426  0.1104
34943W        W77959   7.150   6.044  21.364  0.0580 -0.1427  0.3715
34944W        W77960   8.470  33.501   2.420 -0.0560 -0.1338 -0.0814
34945W        W77961   0.203  29.851   6.642 -0.1092 -0.0304 -0.1501
34946W        W77962  28.517  16.048  21.638 -0.1053  0.0018 -0.1079
34947W        W77963   9.055  27.813   4.770  0.1505 -0.1913  0.1633
34948W        W77964  25.555   5.793   4.618 -0.1530 -0.0077 -0.0838
34949W        W77965  32.311   3.795  23.574 -0.2281 -0.0466  0.2148
34950W        W77966  28.535  10.432  19.870  0.3040 -0.2075 -0.1847
34951W        W77967  10.816  30.508   0.419  0.0634 -0.3265  0.1855
34952W        W77968  27.711  15.728  17.487  0.2030 -0.0503 -0.1118
34953W        W77969  34.125  21.755  22.384 -0.1332 -0.4053 -0.0575
34954W        W77970  13.920   3.736  21.697  0.3219  0.0514  0.0395
34955W        W77971   3.633  19.477  19.953 -0.1112 -0.3842 -0.1242
34956W        W77972  33.445  18.849  23.728  0.0635  0.0336  0.2333
34957W        W77973  23.685  17.196   2.823  0.0798  0.0683  0.4403
34958W        W77974  21.572   8.689  14.298 -0.1011  0.0699  0.0117
34959W        W77975  31.406   7.815  22.899  0.2552 -0.0072 -0.2080
34960W        W77976  32.176  12.700   2.377 -0.0645 -0.1110 -0.0153
34961W        W77977  12.933  14.019  18.242  0.0501  0.1280 -0.2256
34962W        W77978  32.272  21.880  22.269 -0.2277 -0.1052  0.0655
34963W        W77979  32.715  33.536  14.601  0.2400  0.1292  0.1676
34964W        W77980  10.770  28.586   8.151  0.0317 -0.2674  0.0673
34965W        W77981   1.743   1.006  10.400 -0.1600 -0.1265 -0.0217
34966W        W77982   4.875  12.035  26.525 -0.1220  0.2410  0.0931
34967W        W77983  22.486  23.383   7.317  0.2155 -0.1937  0.4685
34968W        W77984  23.919   4.018  27.957  0.2024  0.1399  0.1794
34969W        W77985   5.805   6.182   1.079  0.0781 -0.1570  0.0040
34970W        W77986  32.692   4.148  23.722 -0.0127  0.1424 -0.0308
34971W        W77987   3.290  16.333  27.525 -0.0743 -0.1115 -0.0403
34972W        W77988  31.192  24.145  27.035  0.1745  0.0243 -0.0284
34973W        W77989  23.539  22.773  16.643 -0.1630 -0.0357  0.2179
34974W        W77990  12.828  31.239   9.065 -0.0182  0.5764  0.0882
34975W        W77991  27.346  13.840  26.383  0.1419 -0.1297 -0.1004
34976W        W77992  20.242   3.205   7.675 -0.1284  0.4004 -0.2123
34977W        W77993   0.031  19.286   7.854  0.2658  0.1912 -0.1152
34978W        W77994  17.693  16.347  13.772 -0.1376 -0.2314  0.1166
34979W        W77995  12.253  21.456  18.302 -0.0546 -0.1235  0.1625
34980W        W77996   0.775  31.645   3.026 -0.0517  0.1553  0.2283
34981W        W77997  26.766   5.239  16.354  0.1115  0.0801  0.1851
34982W        W77998  12.924  31.720   2.984 -0.0275 -0.0897  0.0937
34983W        W77999  14.375  34.770  20.445  0.3533  0.2210  0.1928
34984W        W78000  33.134  10.874   8.916 -0.2321  0.1233  0.1361
34985W        W78001  25.975  10.679   0.573 -0.0191 -0.0912  0.0439
34986W        W78002  18.517  11.203  27.731 -0.0664  0.1802  0.1070
34987W        W78003  32.154   0.572  26.735  0.1513 -0.1950  0.4026
34988W        W78004   2.007  28.467   4.861  0.2114 -0.1162  0.0453
34989W        W78005  28.511   9.997  25.793  0.0094 -0.1048  0.0725
34990W        W78006   1.553   2.174  13.659 -0.1606  0.0040  0.0917
34991W        W78007  18.006  29.540   5.541 -0.0017  0.2522 -0.0852
34992W        W78008  30.638  18.571   5.896  0.1835  0.1166  0.1052
34993W        W78009   2.760   8.448   0.870  0.1796 -0.2148 -0.2023
34994W        W78010  30.577  33.385  22.998  0.1528  0.2328  0.1758
34995W        W78011   1.950   7.814  27.285 -0.0430  0.3876  0.0505
34996W        W78012   9.016   9.709  18.226  0.0740  0.1019  0.0994
34997W        W78013  28.163  13.286  14.703  0.0878 -0.1245  0.2481
34998W        W78014  11.437   9.529  19.422 -0.2331  0.0973  0.0634
34999W        W78015  34.165  31.423  20.934  0.1107 -0.3948  0.0989
35000W        W78016  33.284  29.425   7.493 -0.0363 -0.3854 -0.1306
35001W        W78017  14.571  11.831   0.857  0.1184  0.1382 -0.0707
35002W        W78018   0.519  10.408   9.288  0.2420  0.1513 -0.0073
35003W        W78019   0.775  10.211   2.981 -0.3200  0.0251  0.0586
35004W        W78020  27.060   6.806  20.172  0.2148 -0.0938  0.0997
35005W        W78021   6.508  32.559   8.055  0.1230 -0.2767 -0.2620
35006W        W78022  16.488  29.988  15.830 -0.2088  0.3165 -0.2849
35007W        W78023  22.655  15.014  13.182  0.1012  0.1445 -0.0505
35008W        W78024  12.627  11.837   2.746  0.3344 -0.2185  0.0110
35009W        W78025  18.647  24.633   5.396  0.1006 -0.0114 -0.1122
35010W        W78026  10.956   1.581   7.181 -0.0101 -0.0863  0.0444
35011W        W78027  15.066  34.104  19.353 -0.1059  0.0255 -0.1493
35012W        W78028  31.275  13.586   7.863  0.2788  0.0622 -0.0588
35013W        W78029  25.793  12.018   0.537 -0.0048  0.2098 -0.1178
35014W        W78030   0.747  31.486  10.157 -0.2566  0.0215  0.0118
35015W        W78031  21.979  29.721   2.044  0.1233 -0.2456  0.0722
35016W        W78032  29.949  11.293   0.328  0.0482 -0.2657 -0.1492
35017W        W78033  30.845  12.593   4.275 -0.0631  0.0011  0.1413
35018W        W78034   1.318   1.170  19.186  0.1595 -0.1148 -0.1238
35019W        W78035  29.300   9.927   9.782 -0.0403  0.0413 -0.1253
35020W        W78036  19.106  17.324  22.948  0.0328 -0.2223 -0.1305
35021W        W78037  12.643  12.124   1.439  0.3319 -0.4173 -0.0984
35022W        W78038   8.032  14.262  19.027 -0.2715 -0.2357  0.0195
35023W        W78039   1.401  21.637   3.670  0.5202  0.0080 -0.0406
35024W        W78040  32.243  17.476  29.123  0.1907  0.0179  0.1850
35025W        W78041  30.392  11.141   7.868  0.0776  0.0793 -0.4065
35026W        W78042  17.594   4.169  21.584  0.1628  0.1852  0.3685
35027W        W78043  23.810   2.365  26.064 -0.1853 -0.2251  0.0077
35028W        W78044  16.644   5.716  22.866 -0.3403 -0.4649  0.0860
35029W        W78045  23.636   8.090   1.216  0.1157  0.0538  0.0373
35030W        W78046   4.912  13.087   6.182 -0.0433 -0.0543  0.0745
35031W        W78047  10.309  16.124   0.352 -0.0286  0.0883  0.0981
35032W        W78048   2.425   1.503  26.100  0.0438 -0.3723 -0.1418
35033W        W78049  11.696  28.563   1.649 -0.3213  0.1760  0.2009
35034W        W78050   4.900   7.284  20.609  0.4564  0.1576  0.2743
35035W        W78051  29.914  10.139  21.459  0.1409  0.0532 -0.1430
35036W        W78052  19.667   2.519   8.813 -0.0566 -0.1131  0.3848
35037W        W78053   2.089  15.619  10.530  0.2147  0.1912 -0.0831
35038W        W78054  25.536   9.727   4.571 -0.4307 -0.0395  0.1752
35039W        W78055  34.047  27.405   1.486  0.0933  0.3263  0.4867
35040W        W78056  25.497   9.106  23.751  0.1791 -0.1496  0.0992
35041W        W78057  20.900  17.008  25.906 -0.2035 -0.0179 -0.1647
35042W        W78058  34.446  17.181  24.796  0.1244 -0.2498 -0.4484
35043W        W78059  31.875  29.458   3.998 -0.0592  0.1319 -0.0707
35044W        W78060  20.169   8.886  27.578  0.2345  0.0084 -0.1932
35045W        W78061   2.443   2.644  23.790 -0.0086 -0.0922  0.0530
35046W        W78062   5.398  28.628  26.657  0.1175 -0.1850  0.2204
35047W        W78063  28.704  33.978   9.090  0.1544  0.3185 -0.0753
35048W        W78064  26.383   3.878  24.330 -0.0280 -0.0623  0.0185
35049W        W78065  12.293   1.115   3.833 -0.0614  0.0289  0.1623
35050W        W78066  33.396  19.764  20.124  0.0141  0.6006 -0.1790
35051W        W78067  20.538  31.021  28.178  0.4286 -0.0263 -0.1062
35052W        W78068  17.992  16.949  28.358  0.0169  0.1450 -0.1789
35053W        W78069  34.419  17.270  21.923  0.0442  0.0663 -0.1822
35054W        W78070  22.581   8.982  15.114 -0.2025  0.0036 -0.2102
35055W        W78071   1.194  33.358   8.031  0.2051 -0.2751 -0.2926
35056W        W78072  34.111   0.531   8.477  0.2668  0.1886 -0.0457
35057W        W78073  15.163   1.811   7.542  0.2331 -0.0952  0.0835
35058W        W78074   6.939   4.537  23.608  0.2465  0.1202 -0.1949
35059W        W78075   2.202   5.811   1.469 -0.1088  0.1623 -0.0294
35060W        W78076  13.816   6.359  25.453  0.2720 -0.3101  0.1770
35061W        W78077  25.814  33.756  27.188  0.2107 -0.1909 -0.2171
35062W        W78078  27.391  15.561  20.365  0.1358  0.0028 -0.2354
35063W        W78079   1.662  21.460   2.109  0.0953  0.0247 -0.1766
35064W        W78080   8.468  10.316  24.395  0.0213 -0.0095  0.0387
35065W        W78081  20.397   2.164   2.787 -0.0064  0.1479  0.2433
35066W        W78082  31.936  18.699  23.133 -0.0826 -0.3259  0.1207
35067W        W78083   5.490  23.058   5.046  0.0317  0.1948 -0.1516
35068W        W78084  34.564  28.679   3.499 -0.0644 -0.0406 -0.0162
35069W        W78085  27.495  15.204  25.082 -0.1513 -0.0551 -0.0477
35070W        W78086  21.482  13.979  24.199  0.0541 -0.0327 -0.0384
35071W        W78087   8.320  16.360  27.717 -0.3978  0.1542 -0.0697
35072W        W78088   0.216  14.416   9.043  0.0199  0.2029 -0.0113
35073W        W78089  27.414   2.135   3.499 -0.0866 -0.2214 -0.1738
35074W        W78090   3.807  34.681  15.757  0.0740  0.1445  0.3846
35075W        W78091   8.676   8.024   1.188 -0.0541 -0.0937 -0.1306
35076W        W78092   5.474   0.264  27.245 -0.2622  0.0750 -0.0722
35077W        W78093  30.959  33.440  21.607 -0.1198 -0.1458  0.1802
35078W        W78094  28.052  22.008  26.755  0.1281 -0.2097  0.2662
35079W        W78095  25.507  33.666  15.091  0.1993  0.1254  0.1489
35080W        W78096  27.613  32.067  24.853  0.1584  0.1614  0.1578
35081W        W78097  16.067   3.049  15.676  0.0255 -0.3657 -0.0878
35082W        W78098  20.063  17.857  15.165 -0.2996  0.2539  0.0281
35083W        W78099  34.384   9.121   2.717 -0.0624 -0.2360  0.2399
35084W        W78100  19.933   5.842  27.117  0.0109  0.0576  0.1602
35085W        W78101  34.456  18.464  18.998  0.0874 -0.1011  0.0085
35086W        W78102  25.872  12.718   3.361 -0.0188 -0.1007 -0.0516
35087W        W78103   4.832   5.365  26.397 -0.0557 -0.3406  0.0556
35088W        W78104  33.185  18.067  16.777  0.0470  0.2108  0.2080
35089W        W78105  21.304  30.577  26.324 -0.3548  0.0878 -0.1541
35090W        W78106  23.325  30.112  21.509 -0.1716 -0.0369 -0.1474
35091W        W78107  21.889   7.573  16.762 -0.0082  0.1549  0.2977
35092W        W78108  26.089   4.762   5.346  0.0847 -0.1548  0.0081
35093W        W78109  19.775   2.013   4.185  0.0582 -0.0537  0.0283
35094W        W78110   7.187  31.301   5.700  0.0455 -0.2211  0.0924
35095W        W78111  23.302   0.168  18.577  0.0400 -0.3167 -0.0911
35096W        W78112   0.859  22.075   1.267 -0.3999 -0.1141  0.4655
35097W        W78113  22.838   0.783  28.673  0.0454  0.1428 -0.1303
35098W        W78114  21.932   6.101  14.594  0.1273 -0.0865 -0.0938
35099W        W78115   9.407  24.869  21.736  0.1022  0.1128  0.0578
35100W        W78116  31.663   9.991   4.190 -0.3941 -0.1991  0.1554
35101W        W78117   3.576  12.608  24.795  0.3046 -0.0768 -0.2281
35102W        W78118  33.769  20.763  18.810 -0.0030  0.2147  0.4973
35103W        W78119   0.788   7.733   6.220  0.2807 -0.2910  0.1440
35104W        W78120   1.763  20.312  18.197 -0.0605 -0.3204 -0.1583
35105W        W78121  27.553   8.596   0.493 -0.0111  0.1226 -0.0940
35106W        W78122  32.558   3.010   4.795 -0.3825  0.0966  0.0380
35107W        W78123  30.279  21.551  18.409  0.1841 -0.2791  0.0906
35108W        W78124   0.790  10.543   3.390 -0.1965 -0.3510  0.2417
35109W        W78125  34.047   4.921  19.501  0.4698 -0.2821 -0.0668
35110W        W78126  25.628   8.982  16.564  0.1592 -0.0607 -0.3670
35111W        W78127  24.466  29.085   2.839 -0.0343  0.4849  0.0911
35112W        W78128   1.261  11.198  22.151  0.0873 -0.1910  0.1439
35113W        W78129   6.497   0.058  23.208 -0.3458  0.0795  0.2087
35114W        W78130  11.196  34.510  20.562 -0.0720 -0.0253  0.0779
35115W        W78131  30.693  15.624  22.133 -0.1565 -0.2936 -0.0436
35116W        W78132   1.871  23.043  26.948  0.0088  0.3465 -0.2196
35117W        W78133   7.419   9.462   7.793 -0.1233 -0.0519 -0.0657
35118W        W78134  21.882   2.962  27.020 -0.0504  0.1359 -0.1564
35119W        W78135  27.011   9.639  18.636 -0.0845  0.1045  0.3937
35120W        W78136   1.817   9.237   9.138  0.0260  0.0372 -0.0050
35121W        W78137  26.042   4.220  16.047 -0.2181 -0.1099 -0.4283
35122W        W78138  26.314  22.124   3.698  0.2807 -0.0008  0.1311
35123W        W78139   6.365   9.036   1.019  0.0565 -0.1385  0.0333
35124W        W78140  29.006   7.509  21.689 -0.0105 -0.0566  0.3775
35125W        W78141  28.419   3.384  21.462  0.2030 -0.3395 -0.0780
35126W        W78142  28.719  14.982  21.214 -0.2279  0.1375  0.0832
35127W        W78143  29.078  11.403   0.023 -0.0617 -0.0857  0.1607
35128W        W78144   3.685  11.193  18.488 -0.1719 -0.0077 -0.2492
35129W        W78145  13.211  25.813   3.828  0.3784 -0.2239 -0.2215
35130W        W78146   2.121  10.840  21.083 -0.1996 -0.0095  0.1292
35131W        W78147  21.681  14.663   2.590  0.1916  0.1266 -0.6691
35132W        W78148  31.296  20.445  19.137 -0.1436  0.1961  0.2067
35133W        W78149  26.918  29.640   6.726  0.0231 -0.2483  0.3492
35134W        W78150  31.484  10.953   2.293 -0.0953 -0.0788 -0.1469
35135W        W78151   9.525  31.395   9.875  0.0985 -0.0083 -0.1266
35136W        W78152   1.097   9.641  10.965 -0.0842 -0.0674  0.0632
35137W        W78153   1.376  13.352  20.520 -0.1752  0.0563 -0.0159
35138W        W78154  28.485   4.597  15.527  0.1234 -0.1024  0.3094
35139W        W78155  29.812   5.495  28.549 -0.0847  0.1169  0.3527
35140W        W78156   0.143   4.215   7.374  0.0198  0.2226 -0.0079
35141W        W78157  21.396  28.084  22.491  0.0761  0.0041 -0.2767
35142W        W78158  33.670   5.397   3.876 -0.1836  0.1399 -0.2252
35143W        W78159  13.340   5.980   1.318 -0.1388 -0.0862  0.1020
35144W        W78160  34.064   0.793   6.105 -0.1088 -0.0367  0.0893
35145W        W78161   5.807   8.115  26.814  0.1739  0.0331 -0.0752
35146W        W78162  12.007   1.918  23.981 -0.0333 -0.1184 -0.0916
35147W        W78163  10.043   8.414  20.240 -0.0826  0.0010  0.2543
35148W        W78164  28.284   4.200   9.088 -0.0890  0.0388  0.3114
35149W        W78165  19.871  14.102   3.597  0.1600 -0.1624  0.3823
35150W        W78166   2.137  16.334   4.753 -0.0357  0.0269  0.0263
35151W        W78167  12.015   0.876   2.729  0.0538  0.0450  0.0478
35152W        W78168  10.260  20.418  29.156 -0.0778  0.0112 -0.0089
35153W        W78169   1.771   4.049  23.952 -0.2744 -0.0381  0.0130
35154W        W78170  27.733   0.407  19.832  0.0552  0.2540  0.0097
35155W        W78171  19.004  13.077  20.946 -0.3215  0.0257  0.3493
35156W        W78172  23.270   1.458  10.456  0.3283  0.2500 -0.1328
35157W        W78173  32.565  19.953  29.098  0.0012 -0.0503 -0.1868
35158W        W78174  31.176   7.062  17.205  0.1745 -0.2088  0.0822
35159W        W78175  28.648  33.041  23.710 -0.3320 -0.0587 -0.1736
35160W        W78176  26.260  21.549  17.276 -0.0800 -0.3160  0.1835
35161W        W78177  22.738   8.052  21.588  0.0064  0.0177  0.1203
35162W        W78178  11.297  16.573   4.774 -0.5649  0.0259  0.1369
35163W        W78179  34.692   2.787  15.447 -0.1793 -0.1583  0.0737
35164W        W78180   7.455  17.140  21.594  0.2688 -0.0442  0.3255
35165W        W78181  31.469  25.542   6.893  0.2301  0.0525 -0.1517
35166W        W78182   3.519   9.546   4.264  0.2660  0.2782  0.2531
35167W        W78183  24.252  28.086  24.072  0.1410  0.1602  0.0311
35168W        W78184  33.331  12.491   7.843 -0.0365  0.0851  0.0318
35169W        W78185  28.874   5.236  19.893  0.2181  0.1659 -0.1223
35170W        W78186   0.364  24.185  17.021  0.0880  0.2293 -0.1070
35171W        W78187  28.429  21.935  23.156  0.1808 -0.0458  0.0377
35172W        W78188  24.671  15.350   3.672 -0.1003  0.0253 -0.2757
35173W        W78189  30.177  12.491   5.803  0.1049 -0.0371  0.3047
35174W        W78190   1.069  12.017  22.800  0.2303 -0.0157  0.0604
35175W        W78191  11.513   9.750  27.672  0.2974  0.0735 -0.0043
35176W        W78192  17.900  12.752   4.364  0.0680  0.0238 -0.2650
35177W        W78193  31.159   2.529   6.791 -0.0725  0.0748  0.0723
35178W        W78194  17.909   0.642   2.323 -0.1853  0.1962 -0.1004
35179W        W78195  11.165  11.489   9.278 -0.0754  0.3035  0.1403
35180W        W78196   1.864  10.262  25.222  0.2212 -0.2273 -0.2308
35181W        W78197  22.097   2.105  18.286  0.1231  0.0409  0.0683
35182W        W78198  26.219  27.679   2.387  0.0569  0.0908 -0.0904
35183W        W78199  30.346  14.655  21.366 -0.0518 -0.0562  0.3811
35184W        W78200   3.079   8.063   9.516  0.4277 -0.0025 -0.1146
35185W        W78201   1.933  31.660   7.483  0.0776 -0.0518  0.3448
35186W        W78202  26.927   6.461  17.713 -0.0009  0.2180  0.1815
35187W        W78203  25.460   7.701   3.292 -0.3108  0.3673  0.1649
35188W        W78204  12.265   3.322   7.060 -0.1224  0.0391  0.4621
35189W        W78205  26.201  29.803  24.935 -0.0083  0.1649  0.0075
35190W        W78206  18.448  33.678   2.497 -0.1707  0.2271 -0.1357
35191W        W78207   3.757  14.421   1.532  0.3689  0.3515  0.0295
35192W        W78208  18.136  22.546  17.438 -0.1020 -0.1245 -0.1741
35193W        W78209  16.928  10.878  24.862 -0.0075 -0.1194  0.0923
35194W        W78210  27.541  13.878   5.531  0.3275 -0.2311 -0.0824
35195W        W78211   1.213   8.382   7.354  0.0274  0.0878 -0.0357
35196W        W78212   8.511  29.322   7.182  0.0135  0.1461  0.0395
35197W        W78213  30.022   6.448   6.299 -0.0752 -0.0642 -0.0844
35198W        W78214  10.106  12.776  18.395  0.0431 -0.3603  0.1640
35199W        W78215  12.690  11.929  20.393  0.1161  0.1207 -0.1311
35200W        W78216  33.439   8.427   6.469 -0.0180  0.2139 -0.0065
35201W        W78217  27.637  17.583  19.518  0.0466 -0.1570  0.0540
35202W        W78218   2.342  27.395   4.180  0.2251  0.1638  0.0643
35203W        W78219  28.146   8.284  18.891  0.2329  0.1926 -0.2653
35204W        W78220   7.326   4.863  27.866  0.3308  0.2234 -0.2772
35205W        W78221  31.520  30.632   5.833  0.1400 -0.0942  0.3303
35206W        W78222  27.955  17.207  28.990  0.1294  0.0539 -0.3306
35207W        W78223  32.256  21.207  25.133 -0.1462  0.4420 -0.0921
35208W        W78224  33.788   2.025   9.639  0.0473 -0.1276 -0.0150
35209W        W78225  32.808   0.373   1.908 -0.2529 -0.2482 -0.1411
35210W        W78226  21.636   8.714   7.001  0.3227 -0.0977 -0.0341
35211W        W78227  15.697   2.456   2.958 -0.0837  0.2139  0.0665
35212W        W78228  24.967  20.163  26.997 -0.2608  0.0541  0.0418
35213W        W78229   2.147   8.174  17.255  0.0004  0.0659 -0.0163
35214W        W78230  15.241  23.530  29.115 -0.0599 -0.3166 -0.0466
35215W        W78231  10.091   2.707  24.867  0.0820 -0.0015  0.0121
35216W        W78232   6.137  29.542   7.865 -0.1041 -0.1869  0.2098
35217W        W78233  25.041  32.998  18.208 -0.0746 -0.0269  0.2189
35218W        W78234  33.045  15.022  10.686 -0.2567 -0.1384 -0.2891
35219W        W78235  23.423  13.373  27.222  0.3367 -0.3538  0.0061
35220W        W78236  27.672  12.034   4.184  0.1068  0.2121  0.0252
35221W        W78237  27.584  17.675  23.861  0.1463  0.0033 -0.0575
35222W        W78238   2.010  18.918   4.041  0.0553  0.2467 -0.1802
35223W        W78239  33.505  24.131   0.765 -0.1234  0.0499  0.0231
35224W        W78240  29.887   0.489   3.730 -0.2682 -0.2297 -0.2050
35225W        W78241  32.702   5.640  28.069 -0.2525  0.1363  0.2008
35226W        W78242  20.336  29.499   9.854  0.0165  0.1394 -0.0177
35227W        W78243  20.963  13.782   0.559 -0.0990  0.1588  0.2067
35228W        W78244  28.896  20.824  28.662  0.1772 -0.2711  0.2440
35229W        W78245  29.979  10.097  28.391 -0.0637  0.3212  0.2275
35230W        W78246  26.712  34.546  15.350 -0.1105  0.0215 -0.2085
35231W        W78247   6.214  23.728  20.974  0.0689 -0.3116 -0.1924
35232W        W78248   6.072  19.257  18.749 -0.1528  0.1303 -0.0351
35233W        W78249  30.292   7.458  17.592  0.1030 -0.0202  0.0428
35234W        W78250  25.340  13.484  28.553 -0.3589 -0.2062 -0.1099
35235W        W78251   1.414  19.491  15.803 -0.3434  0.2086 -0.0129
35236W        W78252  12.471   9.504  23.394  0.1356 -0.3171 -0.1173
35237W        W78253   9.017  13.263  17.018 -0.0928 -0.0644 -0.2752
35238W        W78254  22.530  22.211  13.904 -0.0499  0.0913 -0.0486
35239W        W78255  32.458  17.115  27.947  0.0426 -0.1259 -0.2600
35240W        W78256  19.994  10.130  16.681 -0.0427  0.1825  0.1041
35241W        W78257  13.075   9.749  21.310  0.1503  0.1558  0.2022
35242W        W78258  31.028  19.181  27.397 -0.2079 -0.1240 -0.0272
35243W        W78259  29.895   9.550  28.080 -0.4146 -0.0151  0.1689
35244W        W78260  25.319   0.896  22.372  0.0380 -0.0691 -0.2337
35245W        W78261  21.203   2.039  20.494  0.1279 -0.1944 -0.1201
35246W        W78262  26.898   7.637  22.418  0.3141 -0.0436 -0.1588
35247W        W78263  28.615  27.949  26.284 -0.1912  0.3684 -0.0046
35248W        W78264  30.149   6.147  25.024  0.0411  0.0847 -0.0200
35249W        W78265   5.628  11.523  22.238 -0.0020 -0.2468  0.2024
35250W        W78266  24.648  14.659  24.103 -0.1550 -0.0650 -0.1049
35251W        W78267  21.558  31.091  21.519 -0.1540  0.1452  0.0385
35252W        W78268  13.174  25.951  19.495  0.1254  0.0084 -0.0120
35253W        W78269  30.467   6.313  20.289  0.0221 -0.3500  0.1368
35254W        W78270   3.919  10.333  26.199  0.3504 -0.0689 -0.0068
35255W        W78271   3.838   8.616  20.626  0.2957 -0.1307  0.2092
35256W        W78272  34.329   8.648  27.143  0.0461  0.0567 -0.1986
35257W        W78273   6.813  15.910  19.669  0.0461 -0.2331 -0.2697
35258W        W78274  14.938   4.979  22.908  0.0548 -0.1552 -0.4204
35259W        W78275  26.414   4.219  24.691 -0.1530  0.0362 -0.2597
35260W        W78276   0.794  20.664  22.824 -0.0937  0.0425 -0.0539
35261W        W78277  14.616  33.686  20.618  0.4135  0.2762 -0.1418
35262W        W78278  10.913   7.812  14.769  0.0863 -0.3352 -0.1974
35263W        W78279  16.512   6.166  23.086 -0.0667  0.0043 -0.0183
35264W        W78280  17.783  15.120  14.615 -0.1924  0.1588  0.3826
35265W        W78281   9.183   3.653  24.929 -0.0952  0.2487 -0.0923
35266W        W78282  20.960  12.021   5.251  0.2134 -0.2824  0.0726
35267W        W78283  30.296  24.967  22.027  0.0290  0.0308  0.2636
35268W        W78284   8.585  31.792  20.398  0.2017 -0.0094 -0.3340
35269W        W78285  33.451   6.467  20.775 -0.0706 -0.0404 -0.1031
35270W        W78286   7.288  23.129   0.373 -0.5022  0.0632 -0.2515
35271W        W78287  12.639  32.479  25.603 -0.1784 -0.0122  0.5296
35272W        W78288  26.416  17.619  22.597 -0.2398 -0.0549  0.0060
35273W        W78289  25.049  12.488  14.505  0.1063 -0.1737 -0.1358
35274W        W78290  27.461  12.456  22.323 -0.1155 -0.0837  0.2689
35275W        W78291  11.163  16.276  13.841 -0.0484  0.1653 -0.1825
35276W        W78292   4.609  24.474  20.874  0.0200  0.3909  0.1671
35277W        W78293  25.447   7.977  25.643 -0.1887 -0.0490  0.3078
35278W        W78294  32.029   5.874  21.698 -0.4588 -0.0321 -0.3619
35279W        W78295  18.711   6.119  29.158  0.1892 -0.3502 -0.2180
35280W        W78296  33.457  10.943  19.522  0.0081  0.2388  0.1620
35281W        W78297   5.082   6.818  14.560  0.0508 -0.0075 -0.3957
35282W        W78298  34.137   4.237  15.469  0.1820  0.2880  0.0017
35283W        W78299  23.520  31.332  21.192  0.1140  0.3546 -0.0853
35284W        W78300  23.740  11.352  14.249  0.3000 -0.0202  0.1869
35285W        W78301  16.782  12.821  25.455  0.3172 -0.0993  0.0416
35286W        W78302   3.983  14.165  15.281 -0.2058 -0.1888  0.1324
35287W        W78303  24.833  25.938  15.605  0.2100  0.2566 -0.0041
35288W        W78304  29.194   0.213  15.620 -0.1059 -0.1492  0.1771
35289W        W78305  34.071  11.159   4.923  0.2083  0.0829 -0.2786
35290W        W78306   5.249  16.274  23.458  0.0084  0.2286  0.0271
35291W        W78307  31.404   5.759  22.915  0.1400  0.1133 -0.1758
35292W        W78308   7.450  19.144   1.677 -0.0319 -0.0171 -0.3594
35293W        W78309  26.502  21.272  16.777  0.2540 -0.1967 -0.2168
35294W        W78310   4.964   6.777   0.165 -0.2216  0.1893 -0.4108
35295W        W78311  32.133   2.712  15.230 -0.0494  0.3543  0.1044
35296W        W78312  18.033   1.690   2.793  0.1683  0.1762 -0.1758
35297W        W78313  27.499  32.301  25.676 -0.1958  0.2832  0.1570
35298W        W78314   6.720  12.968   8.790  0.1333  0.0525 -0.0055
35299W        W78315  25.120  16.586   1.769  0.2329  0.0857  0.0473
35300W        W78316  21.958  19.723   1.066  0.1448 -0.0786 -0.0329
35301W        W78317   1.712   9.317   0.872  0.1184 -0.1302 -0.5268
35302W        W78318  23.550  23.248  16.466  0.0167 -0.0658 -0.0146
35303W        W78319   5.777   3.982  20.893  0.1217 -0.0421  0.0932
35304W        W78320  28.008  14.107  13.946 -0.1273 -0.2430 -0.2268
35305W        W78321  25.415   8.518  15.391  0.0759  0.0565 -0.0656
35306W        W78322  22.913  25.347  19.800 -0.3247  0.1601  0.3777
35307W        W78323  25.976   8.155  15.654  0.0308  0.1627 -0.3283
35308W        W78324   3.000  21.649  15.622  0.5202  0.0727 -0.1408
35309W        W78325   9.823  12.992  16.573 -0.0361  0.3646  0.0799
35310W        W78326  11.427  14.058  20.174  0.0509 -0.2366  0.0694
35311W        W78327  21.330   9.235  13.626  0.1340 -0.3937  0.0454
35312W        W78328   0.632  25.132  22.646 -0.2526  0.2454  0.1144
35313W        W78329   2.044  12.494  24.276 -0.4662  0.1519 -0.0853
35314W        W78330  11.163   7.739   8.276 -0.3543  0.0676 -0.0144
35315W        W78331  30.866  19.345  20.587  0.0806 -0.2649  0.2118
35316W        W78332   8.327   0.336  22.798  0.1673 -0.0506  0.0475
35317W        W78333   0.290  27.661  20.232  0.0682  0.0095 -0.2436
35318W        W78334  12.900   7.925  21.465  0.0605  0.1412  0.0835
35319W        W78335   0.949  21.813  21.878  0.0369  0.2074 -0.2289
35320W        W78336   5.229   4.314   2.170 -0.1135  0.4205 -0.0907
35321W        W78337  32.870  13.821  23.274  0.0827  0.0243  0.2988
35322W        W78338   4.952  12.321  18.388 -0.0821 -0.3655  0.1383
35323W        W78339   4.441  29.566  24.013  0.0254  0.1033  0.0937
35324W        W78340   5.114  11.832  22.082 -0.4074 -0.1717 -0.1901
35325W        W78341  31.857  16.481   8.547  0.1808 -0.1601  0.2074
35326W        W78342  31.350  14.155  22.774 -0.0713  0.2896 -0.0122
35327W        W78343   2.838   7.419  21.636 -0.0998 -0.0390  0.0959
35328W        W78344   3.476   9.722  14.862 -0.2272 -0.2786  0.2278
35329W        W78345   1.608  16.875  15.620 -0.1618 -0.0326 -0.3391
35330W        W78346  24.348   2.582  21.284  0.3138  0.1878  0.3609
35331W        W78347  31.880  30.350  17.454  0.0430  0.0320  0.1495
35332W        W78348  21.197  14.196   0.728 -0.0847 -0.1127 -0.0924
35333W        W78349   2.257  17.639  19.013  0.1684 -0.0847 -0.2043
35334W        W78350  25.587  31.436  20.309 -0.1285  0.0156 -0.1180
35335W        W78351  14.968  16.145  12.694 -0.0566 -0.2086 -0.0898
35336W        W78352  22.732  20.193  28.860 -0.2460 -0.0461 -0.1451
35337W        W78353   5.841  17.045  18.619  0.0500  0.2629 -0.0104
35338W        W78354  30.852   6.379  19.160 -0.0315 -0.1187  0.0027
35339W        W78355  20.668   6.960  28.324 -0.1462  0.1326 -0.1184
35340W        W78356  25.476  32.069  16.539 -0.0752 -0.0279 -0.0582
35341W        W78357  29.074  18.657  27.468 -0.3135  0.1146 -0.0929
35342W        W78358  28.375  14.092  23.458  0.1350 -0.2273  0.0739
35343W        W78359   2.441   9.059  25.600 -0.2337  0.1023 -0.1224
35344W        W78360  28.023  14.595  23.005  0.0263  0.2734  0.1671
35345W        W78361   3.415  31.780  23.978  0.1048 -0.2572 -0.1202
35346W        W78362  31.214   7.523  17.001  0.1965 -0.0107  0.2855
35347W        W78363  27.272  16.008   1.322 -0.1019  0.1003  0.3533
35348W        W78364   4.043  14.328  16.416 -0.0409 -0.0904 -0.0902
35349W        W78365  12.260  30.858  14.150 -0.1984  0.0149 -0.2037
35350W        W78366  30.116  25.410  18.385  0.1511  0.0605 -0.1919
35351W        W78367  28.209   1.770  27.744 -0.0201  0.0447 -0.2128
35352W        W78368  33.862  32.634   9.002 -0.0999 -0.1746 -0.0136
35353W        W78369   0.287   7.972  26.289 -0.0496  0.2445  0.2076
35354W        W78370   4.527  16.622  29.254  0.0416 -0.0153  0.1900
35355W        W78371  32.162  13.391  17.143 -0.0157 -0.0016  0.1206
35356W        W78372  17.233  15.320  11.650 -0.0933  0.0937 -0.1416
35357W        W78373  26.326  11.133  16.302 -0.4890  0.1865 -0.1877
35358W        W78374  11.065  33.785  28.840 -0.1084 -0.5552 -0.2431
35359W        W78375  31.581  11.732  21.300 -0.0063 -0.0318  0.3536
35360W        W78376   8.835  22.595  14.213  0.1285  0.0199 -0.3059
35361W        W78377  32.050  33.929  20.738 -0.1720 -0.0652 -0.0950
35362W        W78378  30.201  10.765   0.454  0.0684 -0.1923  0.0032
35363W        W78379  28.228   5.054  17.435  0.0590  0.2240 -0.2751
35364W        W78380  28.628  12.994   1.869  0.0607 -0.0994 -0.1789
35365W        W78381   2.211   9.326  25.115  0.3222 -0.0291  0.0215
35366W        W78382  15.897   2.190  14.767  0.1217 -0.2327  0.1285
35367W        W78383  25.144  14.414  17.420 -0.2689 -0.0582 -0.2948
35368W        W78384  32.576   2.375  16.117 -0.2445  0.0477  0.4202
35369W        W78385  27.935  22.028   2.142  0.0699 -0.0301 -0.3721
35370W        W78386  25.626   2.717  27.383  0.3109  0.0811  0.0765
35371W        W78387  32.698  19.449  17.078 -0.0441 -0.1379 -0.0426
35372W        W78388  28.648   8.372  29.112  0.0706 -0.2046  0.0479
35373W        W78389   6.089  13.519  13.262  0.0625  0.2989  0.1413
35374W        W78390  24.594  33.095  17.387  0.1137 -0.1045  0.1776
35375W        W78391  28.867   8.254  22.333  0.0309 -0.1322 -0.1006
35376W        W78392  22.465   9.626  16.986 -0.1638  0.0959 -0.1746
35377W        W78393  29.764  16.717  14.224  0.0433  0.2571  0.0351
35378W        W78394  33.617   3.158  21.873 -0.0978 -0.0302  0.0486
35379W        W78395  32.401  21.675  14.904  0.4041  0.1939  0.2821
35380W        W78396  21.774   9.878  25.349  0.3175 -0.1871 -0.0092
35381W        W78397   4.407  30.335   3.386  0.0907  0.0960 -0.0821
35382W        W78398   5.765  24.202  23.961 -0.5060  0.0835  0.1727
35383W        W78399   4.245  21.486  23.531  0.1225 -0.2904 -0.0195
35384W        W78400  24.853  18.593  14.443  0.2189  0.0790 -0.0908
35385W        W78401  24.204  13.729  13.803 -0.0350 -0.2142  0.0485
35386W        W78402  21.767  28.763  21.415  0.1337  0.1835 -0.0430
35387W        W78403   3.603   7.808  13.915 -0.0389 -0.1071  0.1169
35388W        W78404  19.660   4.913  18.291 -0.2586  0.1647 -0.0716
35389W        W78405  12.179  10.522  22.783 -0.2330 -0.2016  0.2255
35390W        W78406  31.410   3.125  26.566  0.2516  0.0632 -0.3638
35391W        W78407  33.732  29.210  17.168 -0.1376  0.1660  0.2085
35392W        W78408  24.299   9.966  21.629  0.2439 -0.0802 -0.1438
35393W        W78409  29.340  15.728  15.976 -0.3562 -0.2360  0.1383
35394W        W78410  31.718  28.423  24.537  0.2798  0.0037 -0.2183
35395W        W78411  33.827  10.096  28.229  0.2517  0.1203 -0.0625
35396W        W78412   0.659  13.646  16.487 -0.3116  0.1003  0.2661
35397W        W78413  20.022   2.776  22.060  0.0793  0.1241  0.1693
35398W        W78414  25.987   4.530  25.870 -0.0132 -0.3220  0.0576
35399W        W78415  15.291  32.607  15.284 -0.0252  0.0426 -0.0374
35400W        W78416   2.874   9.062  18.907  0.0723 -0.0045 -0.2330
35401W        W78417  31.205  23.567  15.329  0.2849  0.0562 -0.0528
35402W        W78418   5.135   5.494  20.695 -0.3661 -0.0382 -0.2549
35403W        W78419  25.975  33.466  15.606 -0.1361 -0.4188  0.0721
35404W        W78420  28.691  14.924  26.293 -0.1005  0.3539 -0.2332
35405W        W78421  16.366   7.221  16.544 -0.0401 -0.0180 -0.0764
35406W        W78422   7.656  27.182  15.116  0.1378 -0.1343 -0.1010
35407W        W78423  28.959   7.639  19.170  0.1620 -0.1401 -0.2128
35408W        W78424  20.545  15.543  27.029  0.1922  0.3777 -0.6024
35409W        W78425  32.757  23.021   3.144  0.0090  0.0698  0.0278
35410W        W78426   7.446   8.946  22.155  0.2524  0.1055 -0.0543
35411W        W78427  18.593   1.102  19.652 -0.3822  0.4697 -0.0510
35412W        W78428   3.555  11.727  20.752 -0.0926 -0.0826  0.1252
35413W        W78429  28.715  10.475  22.333 -0.2286 -0.3054  0.1199
35414W        W78430  26.187   8.144  16.923 -0.1172 -0.2692  0.1208
35415W        W78431  33.882  25.340  25.241 -0.1082 -0.0776  0.0957
35416W        W78432   0.122  19.811  26.223  0.0197 -0.1975  0.0433
35417W        W78433   6.963   3.764  14.601  0.0746 -0.2375 -0.1560
35418W        W78434  17.424  30.496  10.971  0.5003  0.0291  0.1278
35419W        W78435  27.604  31.575  27.189 -0.1489  0.1655 -0.1062
35420W        W78436   2.026   4.246   1.102  0.1166 -0.4869  0.0836
35421W        W78437  12.802   0.130   1.768  0.0288 -0.0102  0.0879
35422W        W78438  19.899  28.873  15.599  0.1391  0.1239  0.1852
35423W        W78439  21.204  23.933  15.632  0.0057  0.0379  0.2646
35424W        W78440  25.350  23.134  19.016 -0.0491  0.1609 -0.0258
35425W        W78441  29.763  10.721  19.347  0.0203 -0.0365 -0.0901
35426W        W78442   9.497  33.491  18.623 -0.1178 -0.0602  0.0002
35427W        W78443  26.219   8.605  24.010 -0.1778  0.3324 -0.3800
35428W        W78444  15.848  21.958  14.121  0.1343  0.0420 -0.2880
35429W        W78445  29.217  34.513  27.952 -0.1091 -0.0456  0.0621
35430W        W78446   5.523   8.483  22.723 -0.0873 -0.0894 -0.1687
35431W        W78447  18.310  26.328  15.423 -0.0241  0.3046 -0.1696
35432W        W78448   2.681  20.493  14.393 -0.2793  0.0016 -0.3611
35433W        W78449  11.940  12.664   0.437  0.3534  0.1053  0.0391
35434W        W78450  27.268  34.036  16.896  0.0198 -0.0873  0.1368
35435W        W78451  23.924  10.363  15.933  0.4613  0.3490  0.3762
35436W        W78452   9.989   4.708  21.204 -0.0060 -0.1614  0.3604
35437W        W78453  24.588   2.003  16.714 -0.3648  0.1352 -0.1653
35438W        W78454  31.199  10.036  21.896 -0.0693 -0.0295  0.3649
35439W        W78455   8.169   9.758   6.211  0.3390 -0.0435 -0.1193
35440W        W78456   4.715  26.831  26.154 -0.2021  0.3192 -0.0428
35441W        W78457  28.521  13.524  18.459  0.3032  0.0228  0.1682
35442W        W78458  19.193  14.233  20.065 -0.0782 -0.2345 -0.0860
35443W        W78459   4.843  15.021  14.931  0.2467  0.1416 -0.1597
35444W        W78460  22.650  20.717  17.978 -0.1625 -0.2239  0.2270
35445W        W78461  27.548   7.370  25.181  0.0331  0.1991 -0.2149
35446W        W78462  25.885  32.570  15.122 -0.1112  0.2657 -0.0058
35447W        W78463  18.989  12.382  12.907  0.2556 -0.1239  0.0591
35448W        W78464  31.694  11.469  17.928  0.0075 -0.3113 -0.1507
35449W        W78465  10.257  16.377  23.516 -0.2170 -0.1220  0.1270
35450W        W78466   8.385  25.218   1.820 -0.0258  0.1193  0.1438
35451W        W78467   2.578  21.097  23.728  0.0344 -0.0494  0.1463
35452W        W78468  10.741  12.027  24.877 -0.2821  0.1968  0.1714
35453W        W78469   5.559  23.091  24.658 -0.1945  0.1139  0.1381
35454W        W78470  18.531   8.845  14.769 -0.1093 -0.0762  0.0308
35455W        W78471   6.226  17.851  20.114 -0.2150 -0.2809 -0.0568
35456W        W78472   8.445  13.631   6.082  0.0829 -0.0805 -0.2297
35457W        W78473  32.124  20.145   3.261 -0.3648 -0.0896 -0.2123
35458W        W78474  10.817  17.786  12.813  0.1638 -0.0213  0.2210
35459W        W78475  29.288  24.292  18.490  0.2118 -0.1792  0.0898
35460W        W78476   2.191  24.495   0.218  0.1462 -0.1339  0.3345
35461W        W78477   2.597  18.084  19.824  0.0485  0.1804  0.2758
35462W        W78478  30.202  13.756   9.317  0.1280 -0.1141  0.0197
35463W        W78479  33.655  11.772  26.360 -0.2226  0.8035  0.1900
35464W        W78480   9.493  11.393  18.626  0.1487 -0.0716 -0.1088
35465W        W78481  31.668  26.705  24.797  0.2118  0.0293 -0.1899
35466W        W78482  23.665   5.727  25.367 -0.4316 -0.0194 -0.1135
35467W        W78483  32.460  16.515  23.327  0.1396  0.0320 -0.1627
35468W        W78484  27.453  13.313  26.772  0.0749 -0.4202 -0.2497
35469W        W78485   6.701  10.689  19.793  0.0283 -0.0630 -0.1014
35470W        W78486  33.082  20.648  24.358 -0.0809  0.0134 -0.2347
35471W        W78487   5.370   3.818  27.662  0.3273  0.1877 -0.0185
35472W        W78488  23.714  22.860  15.066  0.2205  0.0729 -0.0332
35473W        W78489  10.429  31.443  25.690  0.1115  0.4233  0.0093
35474W        W78490   8.661  19.061  28.989  0.1632 -0.4288  0.1453
35475W        W78491  24.527   9.326  24.238 -0.2266 -0.2161 -0.0223
35476W        W78492  25.008   9.124  19.315 -0.0111 -0.1195  0.2088
35477W        W78493  19.025  24.937  22.422 -0.1759 -0.3786  0.2228
35478W        W78494  28.891  22.096  17.360 -0.1691 -0.1088 -0.3436
35479W        W78495   8.225  29.757  24.900  0.1550  0.0236 -0.2540
35480W        W78496  31.066   6.539  21.187 -0.1496 -0.0623  0.0620
35481W        W78497   1.252   5.589  20.449 -0.2013  0.0329  0.2356
35482W        W78498  25.648  25.350  15.802  0.0858 -0.0799  0.0361
35483W        W78499  30.684  12.930  18.383  0.2557  0.2132 -0.0841
35484W        W78500  21.482  26.901  22.012 -0.1350 -0.0101  0.0950
35485W        W78501  24.125   4.160  16.448  0.0077 -0.1638 -0.3119
35486W        W78502  25.306   8.920  19.673  0.0343 -0.1674  0.2854
35487W        W78503   5.522  13.813  17.344  0.3549 -0.0556 -0.1261
35488W        W78504  26.266   4.108  25.164  0.1132 -0.0378  0.0852
35489W        W78505  29.229  11.907  14.053  0.2427 -0.2956 -0.0616
35490W        W78506   2.883  10.485  15.416 -0.0844  0.4435  0.1565
35491W        W78507  31.035  22.304  22.832 -0.2204 -0.1846 -0.1666
35492W        W78508  33.824  10.995  19.837 -0.1373 -0.2518  0.0096
35493W        W78509  27.977  13.993   7.344  0.1994 -0.0112  0.2778
35494W        W78510   4.761  25.226  25.159  0.0409  0.0478  0.2052
35495W        W78511  28.879  32.006  20.350  0.1037 -0.1428 -0.0317
35496W        W78512   0.080  21.438  23.994  0.1884 -0.1938  0.1517
35497W        W78513  17.922  12.818  15.861 -0.0582  0.2083  0.0709
35498W        W78514  27.796  24.444  25.384  0.3957 -0.0195 -0.0888
35499W        W78515  30.859  30.866  28.364 -0.0663 -0.1990 -0.0432
35500W        W78516  18.551   7.850  15.873 -0.1240 -0.1889  0.1319
35501W        W78517  18.254  25.219  22.385  0.1167 -0.1019  0.1852
35502W        W78518   3.102   3.858  22.715 -0.4854  0.0469  0.0574
35503W        W78519  12.239   5.405  15.987 -0.1155 -0.2985 -0.1500
35504W        W78520   5.348   2.953  25.277  0.0664 -0.2731  0.0384
35505W        W78521   3.191  22.539  20.165 -0.4526 -0.3309  0.1154
35506W        W78522   6.200  15.658  22.021 -0.0026 -0.0853  0.0180
35507W        W78523  34.541  12.381  28.608 -0.1755  0.1028 -0.2265
35508W        W78524  21.955  14.173  15.577 -0.0745  0.0497 -0.2980
35509W        W78525  23.889   4.443  23.462  0.0296 -0.1049 -0.5075
35510W        W78526  16.553  19.654  13.841  0.1378 -0.0802  0.0298
35511W        W78527  24.784  10.047  19.087 -0.0602 -0.1832  0.4666
35512W        W78528  24.401  13.851  23.619  0.1961 -0.0432  0.4628
35513W        W78529   3.915  12.820  19.007 -0.2184 -0.2408 -0.0175
35514W        W78530  24.084  15.510  25.393  0.0026 -0.0989  0.0275
35515W        W78531   6.847  16.990  13.656  0.2358  0.0143 -0.1930
35516W        W78532  29.250   1.208  15.731  0.1518  0.2109 -0.1409
35517W        W78533  18.967   1.774  15.963 -0.1255  0.0003 -0.0419
35518W        W78534   2.728   9.477  20.034  0.0692  0.2521 -0.1634
35519W        W78535  10.552  14.531  22.245  0.2663 -0.0875 -0.2731
35520W        W78536  32.034   0.293  25.232  0.2020 -0.0413  0.1730
35521W        W78537  30.386  17.320  28.724  0.0454  0.0567 -0.0895
35522W        W78538  10.569  16.799  21.293 -0.2611  0.0367 -0.1745
35523W        W78539  19.266   4.388   6.341  0.0322  0.1057 -0.0406
35524W        W78540  27.044  11.245   4.118  0.0745  0.0815  0.0477
35525W        W78541   2.716  12.481   5.042 -0.0736  0.4372 -0.1441
35526W        W78542   0.631  26.899  23.188 -0.1023  0.1355 -0.0792
35527W        W78543  30.519  32.827  27.526 -0.0432  0.0578  0.2967
35528W        W78544  27.474  16.692  18.442  0.1384 -0.0684  0.5090
35529W        W78545  26.230  23.349  24.735 -0.1987  0.0987 -0.4361
35530W        W78546   2.064  16.062   0.371 -0.0027 -0.0640  0.0362
35531W        W78547  23.847  14.922   1.591 -0.0015 -0.2071  0.0104
35532W        W78548  29.576  15.907  19.574 -0.1670 -0.2209 -0.1943
35533W        W78549   3.264  22.558  17.609  0.0092 -0.5021 -0.0879
35534W        W78550   5.888   1.501  20.916 -0.2856 -0.1812 -0.1187
35535W        W78551   5.456  15.133  28.036 -0.2583  0.0901 -0.1185
35536W        W78552   1.884   9.021   9.676  0.2013  0.0240  0.3128
35537W        W78553  27.554  17.296  15.885  0.0104 -0.2374  0.0091
35538W        W78554  34.652  34.229   7.096 -0.2113  0.2004 -0.1499
35539W        W78555  29.771   6.172  21.291  0.1093 -0.2574  0.0470
35540W        W78556   5.868  11.604  28.143  0.2142 -0.1520 -0.0872
35541W        W78557   2.983  15.535  14.600 -0.1376  0.3240  0.1811
35542W        W78558  16.083  29.423  25.618 -0.2200  0.1334  0.2094
35543W        W78559  24.655   4.687  15.692 -0.1028 -0.0946  0.4359
35544W        W78560   2.536   5.552  22.107 -0.1978  0.1903  0.0644
35545W        W78561  21.878  26.681  20.773 -0.2046  0.1133  0.2578
35546W        W78562  30.831  15.898  18.147 -0.3654  0.1441  0.0495
35547W        W78563  30.121  33.669  11.007  0.0239  0.1098  0.2991
35548W        W78564   2.213  17.863  20.937 -0.1297  0.1883  0.0976
35549W        W78565  25.771   5.366  19.291  0.1130  0.1331  0.1086
35550W        W78566  29.174   2.298  23.115 -0.1026  0.1886  0.2020
35551W        W78567  12.353  18.393   4.359 -0.3326  0.1042  0.2608
35552W        W78568  26.969  19.434  22.763  0.0660  0.2910 -0.0606
35553W        W78569  20.462  12.767  20.820 -0.0182 -0.2211  0.3503
35554W        W78570  20.441  27.819  16.534 -0.0250 -0.0744 -0.1432
35555W        W78571  32.349   6.370  22.937  0.1455 -0.1152  0.1470
35556W        W78572   0.259  15.349  23.440  0.1006  0.1234 -0.2098
35557W        W78573  33.416  15.728  15.944 -0.2338  0.0757  0.1535
35558W        W78574  23.331  17.918  15.827  0.5251 -0.0984  0.0808
35559W        W78575  20.972   0.162  16.041  0.2623  0.2586 -0.0256
35560W        W78576   3.649  17.016  13.520 -0.0286  0.0842  0.0138
35561W        W78577  28.917  19.764  23.874 -0.1601 -0.0414 -0.2718
35562W        W78578   2.026   3.385  15.729 -0.2334  0.0722  0.2108
35563W        W78579  13.534   8.091  18.445  0.2899  0.0813  0.2016
35564W        W78580  23.379  12.458  17.198  0.0208  0.1954  0.3043
35565W        W78581  15.282  18.972  12.104  0.0295  0.1228  0.0177
35566W        W78582  32.597   7.136  18.156 -0.0269 -0.1004 -0.0161
35567W        W78583  20.591   4.987  13.859  0.0348 -0.3666  0.0637
35568W        W78584   2.888   7.141   7.633 -0.0112  0.0960 -0.0864
35569W        W78585  22.539   8.859  13.660  0.1663  0.1027  0.0198
35570W        W78586  20.732   6.784   0.076 -0.1621  0.0985 -0.0627
35571W        W78587   0.745  13.886  15.177 -0.1025 -0.0599 -0.0489
35572W        W78588  18.860   9.051  21.367 -0.4043 -0.1547  0.1362
35573W        W78589  23.729  34.530   2.647 -0.0134 -0.0780 -0.2114
35574W        W78590  23.136   9.231  20.074 -0.0813  0.0326  0.0944
35575W        W78591   3.170   9.518  15.348 -0.3052  0.1412  0.3991
35576W        W78592   9.091  17.175  26.452 -0.2985  0.0210 -0.1115
35577W        W78593   5.148  22.073  26.268  0.0799  0.2515 -0.2166
35578W        W78594  13.585   2.262  15.644 -0.0323  0.3561 -0.0910
35579W        W78595  29.826  14.408  17.742 -0.1263 -0.2240  0.0129
35580W        W78596   2.474   3.829  21.145 -0.0391  0.2194 -0.1541
35581W        W78597   0.053  25.323   3.124 -0.0907  0.0326 -0.3034
35582W        W78598  24.509   1.907   5.812 -0.0171  0.1739  0.2034
35583W        W78599   1.441   3.311  20.004 -0.2205 -0.1447  0.1834
35584W        W78600  29.410  10.396  23.301  0.0241  0.0415 -0.2667
35585W        W78601  10.612   7.872  16.885 -0.0235 -0.0451 -0.0533
35586W        W78602  22.189  33.027  16.856 -0.6071  0.1997  0.2383
35587W        W78603   1.944   2.373  17.420  0.0881  0.1008 -0.0979
35588W        W78604  32.424  11.142  23.553 -0.0744 -0.1950 -0.3050
35589W        W78605  28.886   4.292  20.358 -0.1372 -0.0388 -0.1135
35590W        W78606   2.023  25.852  27.634  0.1262  0.0958  0.1463
35591W        W78607  34.658   9.238  16.776 -0.1397 -0.0295 -0.0292
35592W        W78608   0.514  10.908  21.879 -0.0477 -0.0565  0.2793
35593W        W78609  15.920  30.017  23.067  0.1093 -0.1380  0.0790
35594W        W78610  20.176   0.359  21.611 -0.0753  0.0997 -0.0233
35595W        W78611  25.126  30.207  23.520 -0.0941  0.1199 -0.1566
35596W        W78612  30.117   6.942  23.205  0.1503  0.1570 -0.0737
35597W        W78613  25.479  16.987  23.453 -0.1074  0.0055  0.2553
35598W        W78614  21.469  33.223  25.832 -0.0957 -0.0890  0.0552
35599W        W78615   0.019  22.629  15.463 -0.1165 -0.3848 -0.3098
35600W        W78616  27.677  32.503  16.224 -0.2476 -0.2240  0.2192
35601W        W78617  21.068   1.329  22.933  0.4007 -0.0739  0.2179
35602W        W78618  23.090  32.418  19.354 -0.1006 -0.1830  0.0467
35603W        W78619  32.029  33.170  18.406 -0.2424  0.3714  0.2242
35604W        W78620  25.681  18.831  25.110 -0.0989  0.0155  0.1675
35605W        W78621  16.364  11.683  15.557 -0.0694  0.0516  0.0138
35606W        W78622  13.750   7.754  24.302  0.0190  0.1406  0.0763
35607W        W78623  19.483  27.757  24.769 -0.1118  0.2354  0.0086
35608W        W78624   6.652  28.324  16.013  0.0508 -0.0451  0.0407
35609W        W78625  30.765  22.167  21.830  0.2181 -0.0574 -0.1611
35610W        W78626   4.617  15.292  22.703 -0.0195 -0.0604 -0.0338
35611W        W78627  26.159  15.653  25.250 -0.3327 -0.1696 -0.0578
35612W        W78628  14.160   8.717  17.679  0.0219 -0.3472 -0.0790
35613W        W78629  32.869   8.851  19.514  0.2874  0.1884  0.0327
35614W        W78630  22.283   4.310  20.964  0.0598 -0.0962  0.3828
35615W        W78631   9.959  13.252  14.196 -0.1904 -0.2909  0.1789
35616W        W78632  30.947  27.419  19.695 -0.2233  0.0029 -0.0466
35617W        W78633   7.040   4.053  19.113 -0.0676 -0.1513 -0.1281
35618W        W78634  34.162   8.141  23.898 -0.0184  0.1133 -0.0600
35619W        W78635  34.712   5.295  18.912  0.0041 -0.3932 -0.0800
35620W        W78636  11.952  25.627  13.925  0.0275  0.0230  0.0611
35621W        W78637  16.561  13.126  27.033  0.3006  0.0202  0.0438
35622W        W78638  26.091   8.027   0.130 -0.1287  0.1364 -0.1422
35623W        W78639  33.787   6.192  15.594 -0.3589  0.3322 -0.1137
35624W        W78640   9.526   8.864   2.032 -0.2428  0.1398 -0.0001
35625W        W78641  25.955   4.708  17.445 -0.2491  0.1881 -0.3059
35626W        W78642   0.546  20.399  17.828  0.2748  0.2563 -0.1280
35627W        W78643  32.104  29.383  24.334 -0.2540 -0.1308 -0.0921
35628W        W78644   0.762  14.573  24.552 -0.0878 -0.4790  0.0345
35629W        W78645  31.289  13.898  23.861 -0.2115 -0.3169  0.1554
35630W        W78646  10.211  31.128  24.766  0.2136  0.1765 -0.1882
35631W        W78647  27.300  18.180  28.385  0.0810 -0.0517 -0.1331
35632W        W78648  30.828  17.481  28.892 -0.1743  0.1202 -0.2875
35633W        W78649  16.610  14.399  24.851 -0.1406  0.1367  0.2729
35634W        W78650   6.819  26.343  18.528  0.1377 -0.1167  0.0225
35635W        W78651   3.207  18.894  21.491 -0.1767 -0.1188  0.0329
35636W        W78652  18.167   4.597  15.980 -0.1338  0.0946  0.2237
35637W        W78653   3.295  20.833  16.110  0.1672 -0.1544  0.2251
35638W        W78654  30.023  18.695   2.373 -0.0576 -0.0173 -0.0155
35639W        W78655  33.137  12.166   3.037  0.1137  0.0089 -0.3462
35640W        W78656  34.159  19.904  16.016 -0.0253  0.2766 -0.0467
35641W        W78657  33.145  24.290  17.274 -0.0743 -0.1125 -0.2585
35642W        W78658   6.129  26.933  20.369  0.3773  0.0254 -0.1789
35643W        W78659   7.874   9.219  22.199 -0.2000  0.0260  0.1247
35644W        W78660  28.544   1.963  18.667  0.0042 -0.0360 -0.0546
35645W        W78661  29.131   6.770  16.693 -0.0611 -0.0448 -0.0223
35646W        W78662  33.452   2.602   9.016  0.0506  0.1939 -0.0235
35647W        W78663  31.747   1.057   0.052 -0.1445  0.2952 -0.1553
35648W        W78664  28.697  18.690  27.953 -0.1386 -0.2354  0.0978
35649W        W78665  29.340  31.725  20.186  0.0403 -0.3184  0.2774
35650W        W78666   2.102  18.483  14.229 -0.0712  0.1073 -0.1380
35651W        W78667  20.923   9.319  19.474  0.0477  0.2508  0.0045
35652W        W78668  21.998  10.806   1.757  0.2182 -0.0079 -0.1482
35653W        W78669  23.880  25.051  15.713 -0.0373 -0.2187 -0.2651
35654W        W78670  31.176   6.394  24.008 -0.2877  0.2123 -0.1726
35655W        W78671  26.893  22.789  17.655  0.0179  0.1584  0.2645
35656W        W78672  28.945  15.089  15.290  0.3473 -0.1134  0.0234
35657W        W78673  33.673  19.301  22.869 -0.1917 -0.0581  0.1083
35658W        W78674  33.300  32.536  15.892  0.1159  0.1201  0.0995
35659W        W78675  16.340  33.604  21.115  0.0826  0.4092 -0.1939
35660W        W78676  29.847  31.324  27.531 -0.1842 -0.3038 -0.0239
35661W        W78677  25.572   2.198  21.089  0.1398 -0.0628 -0.2422
35662W        W78678   0.867  19.114  15.034  0.3410  0.0603 -0.2896
35663W        W78679  28.421   1.667  28.206 -0.3482 -0.1290 -0.0830
35664W        W78680  30.835  13.994  17.028  0.3286 -0.0358 -0.2206
35665W        W78681  25.591  14.089   1.127  0.1119 -0.0327 -0.3019
35666W        W78682  26.541  25.057   7.169 -0.0004  0.1393 -0.1514
35667W        W78683  11.727  21.697  21.340 -0.0029  0.2405  0.2935
35668W        W78684  26.280   4.489  20.359  0.1370  0.2237  0.0578
35669W        W78685  30.713   7.676  16.274  0.3522 -0.1121  0.0075
35670W        W78686   5.734   5.913  19.083 -0.0228  0.0919  0.0045
35671W        W78687  26.724  13.156  18.994 -0.0918  0.0281  0.1552
35672W        W78688  23.211  29.852  27.023  0.3784  0.0520 -0.0082
35673W        W78689  18.038   9.311  13.705 -0.1998  0.0956 -0.0846
35674W        W78690  26.535  20.034  15.599 -0.4211 -0.0973 -0.0102
35675W        W78691  25.309  12.593   7.192  0.0791 -0.1222 -0.2562
35676W        W78692  28.304  14.368  16.849 -0.3817 -0.1472 -0.1147
35677W        W78693  13.292   3.041  20.795 -0.0767 -0.2558 -0.1185
35678W        W78694  15.590  14.007  12.644  0.1810  0.0306  0.0024
35679W        W78695  32.217  26.633  20.664  0.1422  0.0017 -0.2245
35680W        W78696   4.470  27.171  16.982  0.0180 -0.0440  0.2452
35681W        W78697   0.352  16.208  17.023  0.1055  0.1638  0.1015
35682W        W78698   6.778   2.452  19.370 -0.1675 -0.1775 -0.4871
35683W        W78699  27.787  13.043  18.200  0.0584  0.0033  0.3115
35684W        W78700  32.394  33.313  11.025  0.2224  0.3401 -0.1216
35685W        W78701   9.936  13.269  17.082  0.2043  0.0535  0.0485
35686W        W78702  22.713  31.420   6.371 -0.2288 -0.2696 -0.0482
35687W        W78703  27.974   8.075  21.288 -0.2754 -0.1021  0.0759
35688W        W78704  28.608   0.234  24.945  0.2254 -0.1148  0.0656
35689W        W78705  30.138  32.167  23.323 -0.1619 -0.2731 -0.1119
35690W        W78706  13.716  28.699  19.838 -0.0334 -0.1220  0.1376
35691W        W78707   5.073  24.005  23.010 -0.1147 -0.4104 -0.1158
35692W        W78708  31.719  19.445  25.796  0.1325 -0.2598 -0.2059
35693W        W78709  24.273   7.211   3.457  0.3500  0.1159  0.1033
35694W        W78710  30.948  29.133  10.692  0.0853 -0.0114 -0.4863
35695W        W78711   6.546  27.741   0.389  0.2061  0.2475 -0.2151
35696W        W78712  33.731   5.040  23.010 -0.0296  0.0460 -0.0137
35697W        W78713  25.476   9.238  18.367  0.1573 -0.1152 -0.1195
35698W        W78714  28.777  12.364  16.066 -0.2041  0.3842  0.2823
35699W        W78715  18.788   7.481  20.042  0.0652 -0.4762  0.2452
35700W        W78716  32.395  19.757  15.980 -0.0199  0.2385 -0.1067
35701W        W78717  22.502  16.017  15.288 -0.0283  0.1095 -0.1345
35702W        W78718  30.125  29.748  17.898  0.1528 -0.1032 -0.0422
35703W        W78719  24.211  25.557  19.484  0.3126  0.3957 -0.0022
35704W        W78720  25.010   8.524  19.917 -0.0908  0.0013  0.0408
35705W        W78721  21.836  22.770  15.546  0.0278 -0.0611 -0.2714
35706W        W78722  29.560  17.254  20.213 -0.1351 -0.0863  0.0749
35707W        W78723  10.955   4.781  19.885 -0.0111 -0.2050 -0.0319
35708W        W78724  17.525  15.703  18.217 -0.0237  0.2612 -0.0936
35709W        W78725  16.787  12.683  27.364  0.2196  0.5227 -0.1422
35710W        W78726  20.770  13.772   5.294 -0.0271 -0.2251  0.2231
35711W        W78727  11.284  17.675  16.311 -0.1746  0.1530 -0.0680
35712W        W78728   9.271  13.657  19.120 -0.5014 -0.3958  0.3944
35713W        W78729  28.056   5.792  19.781 -0.2758  0.1946  0.0357
35714W        W78730  31.134  24.766  17.942 -0.0700  0.1003  0.1699
35715W        W78731   2.871   4.581  24.260  0.2583 -0.1475  0.3055
35716W        W78732  29.808  11.370  23.687 -0.2797  0.3233  0.1079
35717W        W78733  27.422  14.152  17.399 -0.2204  0.2103  0.3073
35718W        W78734  32.121   1.901  28.579  0.2686  0.5784  0.1341
35719W        W78735  19.448   7.813  21.246  0.1204  0.3260  0.1612
35720W        W78736  27.091   2.995  24.189 -0.0123  0.0618  0.0373
35721W        W78737  16.528  16.458  19.012  0.2140  0.1301  0.0058
35722W        W78738  31.336  11.759  22.811 -0.1434  0.1906 -0.0757
35723W        W78739  31.294  20.982  23.356  0.2033  0.0920 -0.0083
35724W        W78740   4.900  24.747  19.735 -0.3010  0.1158 -0.0478
35725W        W78741   6.952   1.543  19.728 -0.1969  0.5475  0.2855
35726W        W78742  32.406   9.233  15.955 -0.1134  0.0454 -0.0257
35727W        W78743  29.476  13.817  19.982  0.1498  0.2417  0.1922
35728W        W78744  18.541   5.940  16.320 -0.1432  0.1166  0.4522
35729W        W78745  30.662  29.354  23.295  0.0441 -0.2185 -0.2190
35730W        W78746   1.617  25.675  21.414  0.1189 -0.0241 -0.2003
35731W        W78747  31.352  19.601  23.104  0.0785 -0.0416  0.1437
35732W        W78748   7.155   2.393  22.302 -0.4833 -0.1109 -0.0625
35733W        W78749  26.130  32.860  28.439  0.1156  0.0720 -0.0274
35734W        W78750   7.721  19.888  16.750 -0.1335 -0.1268 -0.2782
35735W        W78751  23.965  26.492  24.341  0.0779  0.0472  0.2185
35736W        W78752   6.130   4.795  18.798  0.2462 -0.0438 -0.1440
35737W        W78753  32.695   4.965  19.359 -0.2462  0.2784  0.1939
35738W        W78754  23.969   9.865  23.665  0.1495  0.0814  0.0595
35739W        W78755  28.622   9.547  24.842  0.0689 -0.1920  0.0422
35740W        W78756  19.219  15.607   0.883  0.4224 -0.6064 -0.2011
35741W        W78757  19.764   6.582  20.457  0.0879  0.0040 -0.0168
35742W        W78758  26.838   1.858  23.089 -0.0823 -0.1056 -0.2975
35743W        W78759  24.866   5.382  16.194 -0.1678  0.0687  0.1498
35744W        W78760  23.292   4.918   3.089  0.1727  0.2563  0.1448
35745W        W78761  29.935  21.862  20.655  0.1343 -0.0160  0.1769
35746W        W78762   3.702   5.753  16.094 -0.0263  0.0143 -0.0667
35747W        W78763  11.805  29.208  14.586 -0.1165  0.0367  0.0544
35748W        W78764  26.312  25.708  20.781 -0.1610  0.2117 -0.1333
35749W        W78765  22.795   8.537  27.412 -0.0642  0.3703  0.0481
35750W        W78766  21.773   2.204  24.469  0.2119  0.2660 -0.2325
35751W        W78767  30.875  33.928  21.477 -0.2634  0.1168 -0.3777
35752W        W78768   5.173  25.213  24.652 -0.1536 -0.1376  0.1519
35753W        W78769   3.190  19.221  29.274  0.1418  0.1958  0.0832
35754W        W78770  23.612  14.680  22.084 -0.1400 -0.0462  0.0969
35755W        W78771  31.820  20.533  19.839 -0.1272  0.2406 -0.0339
35756W        W78772   5.142  19.814  17.146 -0.1052  0.2387 -0.0095
35757W        W78773  22.674   2.625  21.519  0.0758  0.0366  0.1539
35758W        W78774   5.349   9.681  18.797  0.1632  0.1291  0.0261
35759W        W78775   6.426  15.768  18.820 -0.0468  0.1565  0.0760
35760W        W78776  26.098  10.387  15.611 -0.3439 -0.1027  0.0142
35761W        W78777  17.655  19.709  15.590  0.1509 -0.0277 -0.2789
35762W        W78778   1.017  17.998  14.072 -0.2878  0.0471  0.1627
35763W        W78779  22.313  11.017  24.274  0.1031  0.4403  0.2415
35764W        W78780   2.277  19.532  17.855  0.0525  0.5882  0.2100
35765W        W78781  19.301   8.656  21.468  0.2319 -0.0940  0.1798
35766W        W78782   6.157   9.228  18.157 -0.2985 -0.3750  0.1536
35767W        W78783   3.394  26.899  26.138 -0.0648 -0.0447 -0.1215
35768W        W78784  26.965  12.093  27.182 -0.3415  0.1191  0.0210
35769W        W78785  24.603  33.970  23.085 -0.2133  0.0035 -0.0919
35770W        W78786   7.368  12.589   2.037  0.0579  0.0144 -0.0702
35771W        W78787  13.297   7.236  22.209  0.3796  0.2719  0.3181
35772W        W78788   7.653  13.411  26.604 -0.0652  0.0845  0.0382
35773W        W78789  34.485  26.934  21.438 -0.1439 -0.1039  0.0882
35774W        W78790  31.208  15.395   3.615 -0.0942  0.1688 -0.4264
35775W        W78791  23.899   4.247   8.029 -0.2792 -0.1847  0.3282
35776W        W78792  24.357  10.441  23.655  0.1738 -0.1329  0.0559
35777W        W78793  17.321  11.735  15.352 -0.0227 -0.1777  0.1932
35778W        W78794  10.858   6.928  24.310  0.1546  0.1943 -0.0277
35779W        W78795  24.157  10.361  16.912  0.2702 -0.3363  0.3035
35780W        W78796  25.917   4.891  20.513  0.2960 -0.1418  0.3473
35781W        W78797  29.152  13.985  16.475  0.1736 -0.0039 -0.3336
35782W        W78798  25.386  13.609  21.339 -0.2111 -0.0939  0.0774
35783W        W78799   2.033   4.178  14.296 -0.2836  0.1413 -0.1463
35784W        W78800  19.910   2.263  22.179 -0.1306 -0.1507 -0.0237
35785W        W78801  18.744   8.379  14.717  0.0695  0.0863  0.1602
35786W        W78802  33.816  22.124  18.981 -0.1052 -0.2439 -0.1393
35787W        W78803  19.022   2.733  18.871  0.0496  0.1647  0.3548
35788W        W78804   0.292   9.078  13.770  0.1869  0.1636  0.1080
35789W        W78805  24.767  25.483  20.504  0.2141 -0.2495 -0.0635
35790W        W78806   2.720  12.994  22.931 -0.3961 -0.0016 -0.0077
35791W        W78807  24.385  23.123  26.118 -0.1169 -0.3726 -0.1391
35792W        W78808   3.438  12.628  17.975  0.1736  0.1921 -0.4804
35793W        W78809  29.469  10.430  21.364 -0.2594  0.1019 -0.0737
35794W        W78810  24.181  30.292  25.725  0.0349  0.0971  0.1643
35795W        W78811  11.616  20.576  18.383  0.0321  0.2184  0.0901
35796W        W78812  23.575  14.627   0.351 -0.3024  0.2968  0.2798
35797W        W78813   2.648   6.663  21.026  0.0504  0.3435  0.3356
35798W        W78814  17.549  21.216  16.127  0.0905 -0.0545  0.2965
35799W        W78815   9.367  20.868   8.032 -0.1887  0.2390  0.3011
35800W        W78816  20.281  27.336  19.548  0.3353 -0.1838 -0.0250
35801W        W78817  23.465  15.435  13.850  0.0988 -0.0672 -0.1711
35802W        W78818   1.309  30.343   8.482  0.1724 -0.1113 -0.1494
35803W        W78819  11.410   8.370  15.393 -0.3002  0.1287 -0.1289
35804W        W78820  15.441  11.150  25.426  0.0594 -0.0246 -0.1530
35805W        W78821  18.772   0.607   3.850 -0.3564 -0.0783 -0.0476
35806W        W78822   7.265   9.703  20.661 -0.1803 -0.3251  0.0705
35807W        W78823   7.570  11.128  20.689  0.1470  0.0520 -0.0074
35808W        W78824  26.656  29.732  15.213 -0.2408 -0.1349 -0.2390
35809W        W78825  23.764  10.550   1.895 -0.0190 -0.0145 -0.0007
35810W        W78826   9.575   7.788  21.980  0.2785 -0.1815 -0.2495
35811W        W78827   1.884   9.296   3.790 -0.0543 -0.1927  0.0638
35812W        W78828  17.003  23.291  17.409  0.3330  0.1510 -0.1010
35813W        W78829  14.846  33.614  17.267  0.0108 -0.2607 -0.2857
35814W        W78830  31.318  17.859  19.517  0.0868 -0.0171 -0.2282
35815W        W78831  13.588  20.974  14.426  0.2330 -0.1787 -0.1963
35816W        W78832  34.573   2.147  26.840 -0.2949  0.2405 -0.0669
35817W        W78833  30.438   6.608  18.965  0.1947  0.1917 -0.2068
35818W        W78834   9.770  15.030  12.950  0.2802  0.0215  0.1706
35819W        W78835  34.084  17.918  20.283 -0.2958  0.2300  0.0612
35820W        W78836   8.196  28.751  18.997  0.0151  0.1239 -0.1283
35821W        W78837  11.593   1.838  19.169  0.3584  0.1820 -0.0438
35822W        W78838  25.955   2.471  15.613  0.0892 -0.0570  0.1225
35823W        W78839  15.793   4.489  23.014  0.1839 -0.0363  0.1313
35824W        W78840  26.459   7.117   1.875 -0.3181  0.2654  0.0877
35825W        W78841  28.829  13.580  16.861 -0.0235  0.0618  0.0427
35826W        W78842  21.338   7.723  23.944 -0.2296  0.0423  0.0020
35827W        W78843  10.183  12.401  23.333 -0.1052  0.2219 -0.2058
35828W        W78844  29.460   4.760  17.791  0.0344 -0.3069  0.0570
35829W        W78845  27.218  13.261   5.050 -0.3422  0.1698 -0.1852
35830W        W78846   4.283  12.304  17.154  0.0899 -0.1180  0.1571
35831W        W78847  32.124  12.366  15.345 -0.0036  0.0255  0.1657
35832W        W78848  18.582  15.982   2.552 -0.1535  0.0561 -0.2075
35833W        W78849  19.693   2.840   3.802 -0.1532 -0.1318 -0.0454
35834W        W78850  17.424   7.908  17.190  0.0168 -0.1031 -0.0549
35835W        W78851  31.742  25.699   4.405  0.1651 -0.0606  0.3151
35836W        W78852  25.999   0.254  25.223 -0.1881 -0.3046  0.2690
35837W        W78853  34.565  23.954  20.466  0.1998 -0.0321 -0.0141
35838W        W78854  28.245   9.703  23.991 -0.0283  0.0808  0.1699
35839W        W78855  23.104   1.732  28.165 -0.0918 -0.0932 -0.0870
35840W        W78856  26.718  13.974  21.294  0.0688 -0.2947 -0.3277
35841W        W78857  26.874  19.660  29.025 -0.0377  0.2507 -0.2624
35842W        W78858  27.538  15.107  26.657 -0.0941 -0.0061 -0.0238
35843W        W78859   6.116   1.227   5.360  0.1296  0.0244  0.1876
35844W        W78860  25.911  10.113  23.160  0.2484  0.0512 -0.1776
35845W        W78861  29.562  14.455  16.570  0.1562  0.1285  0.0200
35846W        W78862  22.622  31.332  26.897 -0.0925 -0.1254 -0.0669
35847W        W78863  28.647  10.536  28.205 -0.1220  0.0829 -0.1307
35848W        W78864   0.621  22.495  16.139 -0.1017 -0.0119 -0.2341
35849W        W78865  28.978   9.055  17.464  0.0001 -0.0057 -0.3999
35850W        W78866  24.762  12.749  16.324 -0.1406 -0.1902  0.0306
35851W        W78867  26.575   1.608  11.344  0.0209 -0.1215  0.0722
35852W        W78868  33.178  18.127  20.173 -0.1295  0.0532 -0.0548
35853W        W78869  24.031  30.904  16.638  0.5306  0.0149  0.1749
35854W        W78870  29.271  19.387   3.014 -0.2001 -0.1803 -0.0151
35855W        W78871  23.437   5.961   0.173 -0.0116 -0.1424  0.1068
35856W        W78872   1.277   5.920  16.577  0.0093  0.0982  0.0631
35857W        W78873  23.254   6.206  25.740 -0.0369  0.0841 -0.2368
35858W        W78874   5.479  17.216  18.879  0.0520  0.0849 -0.0165
35859W        W78875  27.240  32.367  29.265 -0.1117 -0.2963 -0.0601
35860W        W78876  33.136  14.213  18.184  0.0602  0.1342  0.0276
35861W        W78877  16.351   6.168   6.867 -0.2062 -0.0997 -0.1027
35862W        W78878  27.489  21.538  27.907 -0.1501  0.0602 -0.0108
35863W        W78879  33.093  34.366  16.051  0.1536  0.2045 -0.0289
35864W        W78880   4.606  11.098  28.364 -0.1738 -0.2124 -0.1177
35865W        W78881  24.005  19.172  19.591  0.0416 -0.1861  0.0931
35866W        W78882   1.739  17.095  22.227  0.1485  0.1104  0.2201
35867W        W78883  27.571  13.145  26.011 -0.2860 -0.0017 -0.0276
35868W        W78884  29.234  14.535  19.091 -0.1869 -0.0014 -0.0233
35869W        W78885  32.869  28.169  23.465  0.0013  0.0605  0.0341
35870W        W78886   2.941  20.883  19.911 -0.0234 -0.2193  0.1711
35871W        W78887  26.599  10.811   2.791  0.1086 -0.0779  0.0208
35872W        W78888  33.022   5.569  22.229 -0.1313  0.0471 -0.1727
35873W        W78889  34.668  14.391  15.169 -0.0546  0.3430 -0.1123
35874W        W78890   6.479   5.830   6.013 -0.0319 -0.3124 -0.1865
35875W        W78891   2.353  18.663  23.096  0.4069 -0.1362 -0.1496
35876W        W78892  27.289  32.705  18.028 -0.2054  0.2344 -0.0191
35877W        W78893  20.180  10.291  26.860  0.3617  0.1882 -0.0708
35878W        W78894  22.233  20.024  16.266 -0.0356 -0.0347 -0.0441
35879W        W78895   1.293  17.740   6.049  0.3826  0.1274  0.2365
35880W        W78896  24.206   1.572  21.877  0.0765 -0.1883  0.0603
35881W        W78897  14.928   2.983  19.729  0.2228  0.0096 -0.3086
35882W        W78898  29.287   2.783   1.638 -0.1136  0.2163 -0.1521
35883W        W78899   7.599   3.627   5.442  0.0737 -0.1175  0.2870
35884W        W78900  29.807  20.454  25.809  0.1281  0.1847 -0.1439
35885W        W78901  27.718   1.631   3.066 -0.2239  0.1769  0.1662
35886W        W78902  27.860  17.466  14.576  0.2654 -0.1476  0.2836
35887W        W78903  22.333   5.638  19.069 -0.1092  0.1515 -0.2061
35888W        W78904  19.087   7.209   4.167  0.2244 -0.4582  0.2152
35889W        W78905  33.811  32.617  18.692  0.0340  0.1673 -0.0171
35890W        W78906   1.111  16.081  16.150 -0.0571 -0.0816 -0.1655
35891W        W78907   5.358  10.872  25.020  0.0850  0.1450 -0.0429
35892W        W78908   9.382  20.812  19.605  0.0243 -0.3327  0.0549
35893W        W78909   0.428  24.495  26.914  0.4594 -0.2312 -0.0766
35894W        W78910   0.535  16.252  16.186  0.4556  0.2486  0.0958
35895W        W78911   6.122   8.521  14.789  0.0154 -0.0331  0.1321
35896W        W78912  22.361  17.372  12.542 -0.0717 -0.1519  0.1563
35897W        W78913  11.591  21.652  25.007  0.0395  0.2744  0.2324
35898W        W78914  31.496  34.743  26.516 -0.0360  0.1299  0.1818
35899W        W78915  28.875   0.603  23.257  0.1360  0.1161 -0.2753
35900W        W78916   9.950  32.107  24.470 -0.2021 -0.0943 -0.0598
35901W        W78917  25.937  15.989  14.352 -0.2244  0.0054  0.0596
35902W        W78918  26.577  18.556  17.816 -0.0476  0.1532 -0.1720
35903W        W78919  27.803  27.418  16.578  0.0467  0.2089 -0.1631
35904W        W78920  28.648   0.856  22.807  0.0834 -0.1386  0.0312
35905W        W78921  28.799   3.965  28.170 -0.0098  0.1357 -0.2671
35906W        W78922  31.380  25.457  16.759  0.3064  0.2340 -0.0972
35907W        W78923  32.646  16.259  18.874  0.0361 -0.0559  0.1458
35908W        W78924  22.028  33.101  24.119  0.2360  0.3771 -0.0675
35909W        W78925  31.775  12.710  17.945 -0.0256 -0.0554  0.0040
35910W        W78926   1.953  20.339  23.355 -0.1100 -0.2839 -0.2512
35911W        W78927  32.572   8.221  20.442 -0.1976  0.0812  0.1937
35912W        W78928  26.235   8.411  27.097  0.3535  0.3085  0.0355
35913W        W78929   2.928  11.544  21.076  0.2801  0.1144  0.0529
35914W        W78930  29.729   4.611  18.205  0.1428  0.1240  0.2503
35915W        W78931   0.174   5.483   9.038  0.0097  0.2319 -0.4312
35916W        W78932  24.350  11.440  14.770 -0.0090 -0.1501  0.1169
35917W        W78933  32.592  21.858  28.029 -0.1515  0.1561 -0.1651
35918W        W78934   2.031  17.767  19.944  0.0091  0.3140 -0.1543
35919W        W78935  18.742  15.643   7.420 -0.0949 -0.0038  0.0905
35920W        W78936   5.764  14.054  23.726  0.1222 -0.0114  0.0304
35921W        W78937  27.355   8.361   3.429 -0.4708  0.0765 -0.0319
35922W        W78938   3.133   4.311  23.430 -0.0557  0.0878  0.2359
35923W        W78939  23.094   8.297  28.345  0.0649 -0.1221 -0.0396
35924W        W78940   7.696  25.226  14.387 -0.0306  0.0101  0.1777
35925W        W78941  30.625   4.616  24.982 -0.1439 -0.0448  0.0011
35926W        W78942  26.433   7.518  23.258  0.1262  0.0502 -0.0356
35927W        W78943  31.536   1.926  21.218  0.1356  0.0562  0.0756
35928W        W78944  24.927  34.172  15.750 -0.1145 -0.2675  0.0520
35929W        W78945  30.407  13.718  19.081  0.0148  0.2337  0.0386
35930W        W78946  20.852  14.655  15.353  0.1170  0.0997  0.0827
35931W        W78947  25.985  12.161  23.007 -0.0427 -0.0686 -0.3123
35932W        W78948  26.528  11.117  16.878  0.0001 -0.1129 -0.1143
35933W        W78949   2.141   7.921   1.421  0.3270 -0.0772  0.1323
35934W        W78950  10.934  33.344  18.490 -0.3518 -0.1790 -0.0979
35935W        W78951  24.945  14.472  20.889 -0.0245  0.1970  0.2475
35936W        W78952  18.442   2.910  14.233 -0.0872  0.1565 -0.1255
35937W        W78953  13.910  24.542  28.983 -0.5167  0.0731  0.1421
35938W        W78954   1.139  10.729   3.100 -0.0908  0.0619  0.0437
35939W        W78955  30.597   9.282  24.700  0.0960 -0.2008 -0.1278
35940W        W78956  29.229   9.954  20.168 -0.2583 -0.1363 -0.3262
35941W        W78957   8.845   5.445  15.241  0.1111  0.0921  0.2004
35942W        W78958  11.650  11.561  17.320  0.0902  0.0262  0.2315
35943W        W78959   1.380  12.216  19.299  0.2023  0.0486 -0.2745
35944W        W78960  34.467  20.198  19.462 -0.1142  0.0920 -0.3604
35945W        W78961  32.053  21.921  19.812  0.0276  0.0732 -0.2133
35946W        W78962  23.338  16.873  15.991 -0.2494 -0.1757  0.0576
35947W        W78963   1.045  15.688  25.837 -0.0107  0.0245 -0.0092
35948W        W78964  28.630  14.883  13.957 -0.1507 -0.3209 -0.0601
35949W        W78965   5.232  31.009  19.655  0.1843 -0.0284 -0.1167
35950W        W78966  32.279  13.457  25.310  0.3739  0.0325  0.2890
35951W        W78967  18.649  21.089  15.206  0.1461 -0.0346  0.0655
35952W        W78968   4.526  11.645  25.340 -0.2004  0.0266  0.1138
35953W        W78969  33.973  34.299   5.861  0.1521  0.1933 -0.1455
35954W        W78970   2.769  28.988   4.329 -0.1322  0.2981 -0.1011
35955W        W78971   6.000  32.681  27.668 -0.0645  0.2581  0.0700
35956W        W78972  26.786  10.018  21.516 -0.2575 -0.2378  0.0106
35957W        W78973  32.538  14.621  22.297  0.0819  0.1189 -0.1099
35958W        W78974  20.341   5.661  27.360  0.0232 -0.0452 -0.3185
35959W        W78975  22.574   9.309  29.234  0.0532 -0.0036 -0.2317
35960W        W78976   9.774  19.113  21.996 -0.1005  0.1169 -0.4902
35961W        W78977   0.452  13.175  17.593  0.3263  0.0796 -0.1257
35962W        W78978   9.363  10.274  15.152  0.0650 -0.1235 -0.1142
35963W        W78979  21.566  24.585  22.705 -0.1399 -0.2116 -0.0655
35964W        W78980   6.460  13.459  15.760 -0.0733  0.2134 -0.3289
35965W        W78981  33.225   2.806  18.063  0.2361 -0.2604  0.0508
35966W        W78982  16.303  25.739  17.706 -0.0227 -0.0338  0.0716
35967W        W78983  25.131  12.766  27.788  0.1819 -0.2001  0.4264
35968W        W78984  26.564  22.556  24.381 -0.0033  0.0288  0.1004
35969W        W78985  27.330   8.614  20.866 -0.1643 -0.3080 -0.0347
35970W        W78986  29.049   8.616  28.993  0.1437  0.0039 -0.2079
35971W        W78987   0.077  15.502  25.627 -0.0072  0.1339 -0.0951
35972W        W78988   1.231  11.930  16.475  0.0208 -0.0616 -0.2207
35973W        W78989   3.288   2.637  17.319  0.0540  0.0832  0.0934
35974W        W78990   7.207  31.589  22.451 -0.1022 -0.0632 -0.1958
35975W        W78991  23.106  20.354   5.401  0.1021  0.3419 -0.1469
35976W        W78992  14.226   2.201  21.330  0.0421 -0.2625  0.0285
35977W        W78993  26.581   0.879  22.567  0.1829 -0.2411 -0.0742
35978W        W78994  27.514  21.922  19.579  0.1167 -0.3297  0.1098
35979W        W78995  34.286  31.700  19.686  0.0998  0.0428 -0.1479
35980W        W78996  33.684   1.449  16.963 -0.1079  0.2381  0.0708
35981W        W78997   8.125  23.103  29.020  0.2991  0.0300  0.0930
35982W        W78998   8.817  27.375  15.709 -0.2229  0.2504  0.4458
35983W        W78999  26.946  14.745  13.298  0.1305 -0.0517 -0.0204
35984W        W79000  29.908  25.233  21.030 -0.1283  0.0148  0.0527
35985W        W79001  22.505   1.808  23.466 -0.1479  0.1618  0.2713
35986W        W79002  21.273  10.180  17.308 -0.0671  0.2001 -0.1359
35987W        W79003  31.499  21.695  21.327  0.1243  0.0652 -0.2185
35988W        W79004  13.018   0.003  16.303 -0.1460  0.1525  0.0722
35989W        W79005  31.263  14.050  16.158  0.1632 -0.1169 -0.3232
35990W        W79006  22.635  24.292   3.947  0.0887  0.3116  0.0535
35991W        W79007  13.316   9.898  23.393 -0.0168  0.0166  0.0571
35992W        W79008   0.926  33.878  26.562 -0.0695 -0.0623 -0.0148
35993W        W79009  16.459  20.246  24.227  0.1476 -0.1302 -0.0246
35994W        W79010  30.270  11.874  25.904  0.1812  0.2699  0.0670
35995W        W79011  30.429  12.387  28.449  0.0142  0.0751 -0.1101
35996W        W79012  30.760   8.654  16.263 -0.1099  0.2704 -0.0998
35997W        W79013   9.343  30.989  20.251  0.0376  0.1327 -0.1598
35998W        W79014  28.132  21.547  17.236 -0.0249 -0.0652 -0.1720
35999W        W79015  21.320   1.347   3.333  0.1031  0.0212 -0.2330
36000W        W79016  20.163   9.733  20.778  0.0381  0.0515  0.1801
36001W        W79017  24.713  12.837  14.692 -0.1567 -0.2672  0.1807
36002W        W79018   4.841  23.326  17.832 -0.2070 -0.1691  0.1689
36003W        W79019  26.424  14.613  27.795 -0.1253  0.0360  0.1888
36004W        W79020  12.522   2.432  17.742 -0.1326 -0.3090 -0.1509
36005W        W79021  28.552   6.373  25.797 -0.1118  0.3917  0.1238
36006W        W79022  18.696  30.008  20.147 -0.0665  0.0912  0.0280
36007W        W79023  27.232   2.652  23.399  0.1329 -0.3927  0.1247
36008W        W79024   1.760  20.297  19.213  0.0376 -0.1180 -0.1325
36009W        W79025  24.210  19.781  15.765 -0.0832  0.2255  0.1965
36010W        W79026  11.149  20.349  14.958 -0.0701  0.0119 -0.3004
36011W        W79027  29.195   5.256  19.285  0.1897 -0.0159  0.0628
36012W        W79028  23.785  33.301  21.936 -0.0803  0.0638  0.1403
36013W        W79029   7.057   6.346  15.567  0.0497  0.0649  0.3969
36014W        W79030  23.549  19.998  21.622 -0.2295 -0.1551  0.0742
36015W        W79031  14.320   6.081   3.733  0.0141  0.3286 -0.1375
36016W        W79032  21.458  21.528  25.632  0.2836 -0.0932 -0.0179
36017W        W79033  23.706   7.298  14.827 -0.1062 -0.1092  0.2450
36018W        W79034  30.886   4.423   4.095  0.1191 -0.2313  0.0433
36019W        W79035   6.802  28.247  25.452 -0.0975  0.2433 -0.0117
36020W        W79036  19.104  32.238  17.649 -0.2268 -0.2541  0.1038
36021W        W79037   6.435   1.759  19.778  0.1128  0.3921  0.1479
36022W        W79038   8.179  19.165  24.157 -0.2113 -0.0915  0.2827
36023W        W79039  23.075   2.005  25.955 -0.1514  0.0721 -0.2344
36024W        W79040  29.487   9.400  15.307  0.0281 -0.1429  0.2515
36025W        W79041   3.432  28.374  20.536 -0.1451 -0.1044  0.1101
36026W        W79042  31.932  21.405   1.042  0.2054  0.0389 -0.0483
36027W        W79043  29.177   9.621  26.867 -0.0697 -0.0681 -0.0631
36028W        W79044  28.207  13.852  18.833 -0.2714  0.0942 -0.0155
36029W        W79045  23.032   8.915  16.469 -0.1874  0.0513 -0.1022
36030W        W79046   5.223  14.138   0.037  0.0532 -0.0341  0.2888
36031W        W79047  23.124  31.642  18.539 -0.0749 -0.1511  0.0258
36032W        W79048  18.487  10.467  13.805 -0.1034 -0.1839  0.0033
36033W        W79049  24.044  25.072  25.193  0.2313 -0.1168 -0.1691
36034W        W79050  34.530  21.094  19.315 -0.2152 -0.3072  0.3671
36035W        W79051  22.954  27.378   6.269  0.1918 -0.0963 -0.1136
36036W        W79052   6.004  16.256   0.471  0.0801  0.1277 -0.1105
36037W        W79053  30.818   8.324   0.198  0.0655 -0.0181  0.0065
36038W        W79054   0.242   6.833   3.701 -0.2272  0.2287  0.3191
36039W        W79055   5.871  10.698  19.826 -0.0622  0.1449 -0.0718
36040W        W79056  30.597  18.285  22.782 -0.1984 -0.3228 -0.0014
36041W        W79057  18.838  11.954  25.762 -0.0528  0.1579  0.1574
36042W        W79058  23.821   2.535   7.069  0.3810  0.1434  0.1805
36043W        W79059  14.391   0.449   6.822 -0.5152 -0.1092  0.0046
36044W        W79060  34.593   9.891   8.872 -0.2183  0.0376 -0.0666
36045W        W79061  27.376  31.739  29.129 -0.0766  0.0990  0.1479
36046W        W79062  31.992  33.218   1.470  0.0086  0.1703  0.4198
36047W        W79063   5.338   3.494  25.397 -0.0751  0.0751 -0.3325
36048W        W79064  22.063  29.792  18.956  0.2551  0.3093 -0.2555
36049W        W79065  31.168   7.220  26.947  0.2082 -0.0664 -0.1515
36050W        W79066  28.053  13.555  13.905  0.0644  0.0885 -0.1730
36051W        W79067  18.335  27.564  16.492 -0.0082 -0.1423  0.4177
36052W        W79068  25.463  32.383  22.457 -0.5446  0.1985 -0.1887
36053W        W79069  22.159   0.649  15.259 -0.2018  0.2401  0.0590
36054W        W79070  24.450  12.264  27.442  0.1458 -0.0757  0.1300
36055W        W79071  26.113   3.829  15.533 -0.2318  0.0582  0.0727
36056W        W79072   6.948  22.385  22.346  0.0039  0.2807 -0.1716
36057W        W79073  22.084  13.178  20.763 -0.0025  0.2989 -0.2255
36058W        W79074  30.635   1.403   3.904  0.1438 -0.1322 -0.0696
36059W        W79075  11.231   6.956  22.126  0.2559  0.2832  0.3821
36060W        W79076   5.598   6.894   3.930  0.0893 -0.2992 -0.3073
36061W        W79077  28.343  23.788   2.760  0.1364  0.1281  0.0091
36062W        W79078  23.288  26.022  16.269 -0.1592  0.0548  0.1964
36063W        W79079  30.867  13.498  19.201 -0.4195  0.2094 -0.0823
36064W        W79080  16.658  10.168  22.987  0.0088  0.0445 -0.1472
36065W        W79081   3.863  23.688  24.172  0.2068  0.1618 -0.3395
36066W        W79082  28.739   8.315   9.283  0.3010 -0.1020 -0.0782
36067W        W79083  29.700  27.486  23.299 -0.0968 -0.1484  0.0603
36068W        W79084  22.187  17.336  28.278 -0.1390  0.1369 -0.1153
36069W        W79085   1.278  29.046  20.665  0.2319  0.2384  0.3254
36070W        W79086  30.010   1.636   7.795 -0.0912  0.2230  0.1026
36071W        W79087  23.527  17.929  18.434  0.4736 -0.1258 -0.0623
36072W        W79088  28.548  16.765  16.237  0.1110  0.1504  0.0552
36073W        W79089  25.478   4.173   6.868 -0.0087  0.2978  0.1644
36074W        W79090   8.518   0.396  28.167 -0.2502 -0.1772  0.2169
36075W        W79091  15.822   9.859  28.324  0.2428 -0.0824 -0.3232
36076W        W79092   2.752   5.522   8.768  0.1110 -0.0293 -0.2710
36077W        W79093  31.795   7.235  15.082  0.0226  0.0079 -0.2401
36078W        W79094  22.473   7.827  15.793 -0.1444 -0.0793 -0.2230
36079W        W79095   3.211  18.457  19.159  0.1983 -0.0507 -0.0189
36080W        W79096  26.933  20.577   2.030 -0.1687 -0.2747 -0.2646
36081W        W79097   9.753  12.009   2.152  0.1272  0.3612 -0.2000
36082W        W79098  13.717  18.737  11.460 -0.4096 -0.1662 -0.2238
36083W        W79099   1.478  18.222  17.255 -0.2100  0.1058  0.0440
36084W        W79100  26.678  34.043  21.291  0.2910 -0.2101  0.0443
36085W        W79101  25.160  20.080  16.846 -0.3197 -0.0370 -0.0265
36086W        W79102   6.550   8.014  21.991  0.2536 -0.1745  0.0751
36087W        W79103  33.035  10.954  18.528  0.4177 -0.1841  0.1147
36088W        W79104  19.008  17.487  24.127 -0.2858  0.0899  0.1272
36089W        W79105  26.539   1.155   5.598 -0.2372 -0.1500 -0.2636
36090W        W79106  27.512  26.681   2.127  0.1154  0.1932  0.0675
36091W        W79107  29.018  17.384  25.488  0.2467  0.4111  0.0661
36092W        W79108  12.987   7.063  24.583  0.0085 -0.0422 -0.1284
36093W        W79109   3.422  29.390  21.487 -0.2088  0.0344 -0.3439
36094W        W79110  27.182  31.128  15.396 -0.1140 -0.0699 -0.2366
36095W        W79111  28.473  17.052  19.496  0.3652  0.2393  0.1515
36096W        W79112   4.561  16.983  18.766 -0.2655  0.1831 -0.0904
36097W        W79113  11.249  34.337  26.366 -0.0207  0.1959 -0.0261
36098W        W79114  24.710  20.773  18.166 -0.0204  0.0099 -0.1016
36099W        W79115   4.032   2.435   9.369  0.2963 -0.0252  0.2037
36100W        W79116   5.270  15.110  13.638 -0.3133  0.0639 -0.0554
36101W        W79117   0.130   1.164   6.103  0.0334  0.0244 -0.2796
36102W        W79118  33.319  33.019  17.846 -0.0040  0.0260  0.0915
36103W        W79119  30.810   3.664   7.723 -0.0538 -0.3685  0.2710
36104W        W79120  28.070  13.005  16.587  0.2799  0.0520  0.0543
36105W        W79121  26.672  13.406  18.000  0.1656 -0.0005  0.1088
36106W        W79122  22.635  18.816  25.249 -0.0244  0.1273  0.1278
36107W        W79123   4.098  18.299  26.288  0.1018 -0.1903 -0.1426
36108W        W79124  12.411  24.057  28.419 -0.0331  0.2723 -0.1206
36109W        W79125   8.582  25.670   1.905 -0.3086 -0.2579 -0.2541
36110W        W79126  27.593  14.646  17.534  0.1593 -0.4728 -0.2310
36111W        W79127  32.701  20.078  19.001 -0.0299  0.3630 -0.0233
36112W        W79128  30.601  11.111  22.155  0.1991  0.0203  0.3624
36113W        W79129  13.191  18.827  15.420 -0.0008  0.1234 -0.0403
36114W        W79130  29.289   0.647  27.341  0.1987 -0.1201  0.0029
36115W        W79131  14.300  17.082  14.564 -0.0701 -0.0842  0.0100
36116W        W79132   1.125  16.439  19.280 -0.3598 -0.1300  0.0001
36117W        W79133   6.042   9.360  23.098 -0.2995 -0.0313  0.1052
36118W        W79134   4.549  19.741  22.777  0.1815 -0.2150  0.1101
36119W        W79135   1.791   3.254   6.412  0.0498  0.1237 -0.2051
36120W        W79136  32.106  12.049  23.889  0.2394 -0.0456 -0.3657
36121W        W79137  30.843  18.473  26.926 -0.0298 -0.2358  0.0686
36122W        W79138  34.711  11.345  16.065  0.0849  0.0080  0.3101
36123W        W79139  34.424  11.091  25.758  0.3101 -0.4459  0.1067
36124W        W79140   2.507   8.718   2.721  0.0893 -0.0820  0.1793
36125W        W79141   4.758   2.340  25.021 -0.2394  0.3621  0.2391
36126W        W79142   8.175   5.079   1.269  0.3357 -0.1480  0.0797
36127W        W79143   3.180  17.134  16.259  0.1218  0.1025  0.0747
36128W        W79144  26.809  20.408   8.039 -0.0460  0.0372  0.3518
36129W        W79145  12.127  25.341  18.395 -0.1659  0.0975  0.0352
36130W        W79146  33.002   9.265  21.371  0.0906  0.2333  0.1149
36131W        W79147  21.560   3.379  25.818 -0.1548  0.0646 -0.1452
36132W        W79148  20.052  12.952  29.186 -0.1333  0.3213 -0.1222
36133W        W79149  25.377  16.284  21.056  0.4478 -0.3775 -0.2721
36134W        W79150  28.677   9.839  16.166  0.2901 -0.2980 -0.1286
36135W        W79151  16.825  24.420  18.107 -0.0331 -0.2128  0.0553
36136W        W79152   0.607   8.321  21.044 -0.1817  0.0807 -0.1085
36137W        W79153  21.693   7.058  20.484  0.1831  0.0215  0.0969
36138W        W79154  33.761  10.137   7.700 -0.2794 -0.1527 -0.0615
36139W        W79155   9.287  33.041  24.562 -0.1583 -0.1492  0.1632
36140W        W79156  22.216  21.592   5.538  0.1434 -0.3489  0.0432
36141W        W79157  31.446  15.716  19.974 -0.1539 -0.3811  0.1146
36142W        W79158   1.162  13.935  19.720  0.1449 -0.1484 -0.0037
36143W        W79159  11.372  29.218  29.052 -0.0981  0.2991  0.1556
36144W        W79160  33.305  30.881  21.336  0.0443 -0.0999 -0.0869
36145W        W79161  18.294  20.343  22.504  0.3996 -0.1348 -0.3018
36146W        W79162  33.211  23.087  18.541  0.1972 -0.0786  0.0327
36147W        W79163  22.628  24.451  21.371 -0.3490  0.1174 -0.1148
36148W        W79164  22.726  33.384  25.764  0.2079  0.1932 -0.0085
36149W        W79165  24.285   6.722  26.687  0.2338  0.0387 -0.1358
36150W        W79166  32.027   7.721   5.000 -0.0819  0.0935  0.1157
36151W        W79167  32.332  27.332  15.880  0.0889 -0.2825  0.1583
36152W        W79168   7.345   8.834   0.033  0.1632  0.0484  0.3507
36153W        W79169  11.550   5.158  21.895  0.0892  0.0219 -0.1857
36154W        W79170  23.580  10.179  21.508 -0.0740  0.2229  0.1480
36155W        W79171  14.784  20.180   3.467 -0.0580  0.0144  0.1925
36156W        W79172   3.937  13.319  22.447  0.0315  0.0082  0.0441
36157W        W79173  26.342  16.698  16.427 -0.1708  0.2910  0.3637
36158W        W79174  32.872  11.703  15.130 -0.3200  0.0559 -0.2176
36159W        W79175  32.773  25.062  19.756  0.1743  0.1094 -0.3163
36160W        W79176  27.641  13.610  18.849 -0.4113  0.1362 -0.0898
36161W        W79177  13.719  11.534  16.866 -0.0660 -0.2264 -0.1014
36162W        W79178  30.169  11.360   5.140 -0.0806  0.2338 -0.1847
36163W        W79179  30.297  18.130   7.281 -0.1751 -0.1065 -0.0100
36164W        W79180  16.240  11.665  20.094  0.1733  0.1946  0.1533
36165W        W79181  27.219  20.641   8.290 -0.2795  0.1117 -0.0264
36166W        W79182   3.117  20.579  24.363  0.0935 -0.0689  0.3662
36167W        W79183   0.887   6.210  18.081 -0.1917  0.3610 -0.2098
36168W        W79184  27.654  27.500  22.916 -0.2010 -0.0894  0.4045
36169W        W79185  21.946  11.803  18.597 -0.0992  0.1538  0.0608
36170W        W79186   2.460  21.073  16.575  0.2092 -0.0663 -0.3222
36171W        W79187   7.558   6.348  29.302  0.3062 -0.0419  0.4702
36172W        W79188   4.068  26.287  17.600  0.0694  0.1190 -0.2294
36173W        W79189  31.467   1.110  28.584  0.2529 -0.0289 -0.0077
36174W        W79190   2.969  18.326   0.207 -0.1781  0.4016 -0.0489
36175W        W79191  27.733  30.590  27.333  0.1085  0.0962 -0.1568
36176W        W79192   3.909  10.989  24.114 -0.1856 -0.1232  0.2455
36177W        W79193  30.390  16.012   4.221  0.2282  0.0244 -0.1037
36178W        W79194  20.640  14.914  27.579  0.3192  0.1773 -0.0012
36179W        W79195  31.566  24.633   7.471  0.0864  0.1971 -0.0754
36180W        W79196  25.462  34.304  11.655  0.3275 -0.0070  0.4314
36181W        W79197  10.011  29.079  19.435  0.2422 -0.2559 -0.0085
36182W        W79198  16.796  33.066  19.622 -0.1371 -0.1278 -0.1076
36183W        W79199  30.698  14.651  23.374  0.1389 -0.1153  0.0903
36184W        W79200  27.122  15.558  24.625  0.1262 -0.1201 -0.1981
36185W        W79201   1.794  12.143   8.478  0.0092 -0.1119  0.2086
36186W        W79202  19.668  32.186  17.029 -0.1687 -0.0201  0.1292
36187W        W79203   5.088   7.777  14.623 -0.0551 -0.0286  0.0417
36188W        W79204  33.711  15.314  17.362  0.2825 -0.0811 -0.1118
36189W        W79205  21.849  26.142  20.725 -0.0751  0.1760 -0.1823
36190W        W79206  25.264  13.545  25.667 -0.0666 -0.1366 -0.1354
36191W        W79207  22.849  32.608  25.844  0.1457  0.1459 -0.1519
36192W        W79208  30.228   1.786   7.147  0.1122 -0.2100 -0.0318
36193W        W79209  25.718  16.237  15.256 -0.3116  0.1808 -0.1380
36194W        W79210  27.736   4.521  25.057  0.1948  0.3392 -0.3091
36195W        W79211   6.573  16.776  22.226  0.0973  0.2110  0.5318
36196W        W79212  19.480   7.582  16.351 -0.0918 -0.1405 -0.0641
36197W        W79213  27.090  26.218  19.486  0.1893 -0.3841 -0.1145
36198W        W79214  26.210  14.686  16.211  0.3118  0.0078 -0.0022
36199W        W79215   2.416   6.594  14.358  0.1617 -0.2816 -0.0011
36200W        W79216  32.826  17.779  23.360 -0.0023  0.3417  0.0800
36201W        W79217  25.008   9.915   0.305  0.1204 -0.0893 -0.0485
36202W        W79218  24.467  33.542  20.305 -0.0714  0.1702  0.0383
36203W        W79219  13.390   9.965  27.988  0.1780 -0.0785 -0.1499
36204W        W79220   9.773   2.664  17.861  0.1516 -0.2011 -0.3621
36205W        W79221  30.844  30.976   7.233 -0.0953 -0.1096  0.1986
36206W        W79222  11.928  14.081  22.483 -0.2379 -0.0466  0.2359
36207W        W79223   9.239  25.457   0.705 -0.1872 -0.4403  0.0692
36208W        W79224   4.535   2.176  27.493 -0.1475  0.4655  0.0773
36209W        W79225   7.054   5.187  28.114  0.1048  0.0024 -0.1537
36210W        W79226   6.211  33.836  27.201  0.2607 -0.0106 -0.2400
36211W        W79227  24.065   7.736  24.062  0.2207 -0.1420  0.1134
36212W        W79228  18.902  27.341  16.688  0.2589 -0.1345 -0.1017
36213W        W79229   2.682  16.841  25.465 -0.3175  0.1510  0.1755
36214W        W79230  20.172  11.015  20.781 -0.2760 -0.3687  0.0744
36215W        W79231  20.939  11.515   7.356 -0.2759  0.1122 -0.3149
36216W        W79232   2.124  27.779  22.660 -0.2690  0.0253  0.1060
36217W        W79233  28.617  10.648   7.130  0.1749  0.0784 -0.1039
36218W        W79234  21.811  21.557  14.125 -0.1561 -0.0828 -0.0425
36219W        W79235  23.111  29.263  19.534  0.1001 -0.0339  0.1067
36220W        W79236   0.600  19.145  17.457 -0.0740 -0.0477  0.0386
36221W        W79237  31.092  10.340  26.359  0.1170  0.1485 -0.0923
36222W        W79238   2.950  28.799  19.847  0.0929 -0.4265 -0.1335
36223W        W79239   0.889  16.426   7.975  0.0232 -0.2127  0.4154
36224W        W79240  32.850   6.285  22.685  0.1287 -0.0691 -0.1374
36225W        W79241  32.622   9.984  24.168  0.0046  0.2281 -0.2673
36226W        W79242   9.569   9.825   1.928 -0.4227 -0.1321  0.0060
36227W        W79243  27.368  34.443   7.460 -0.2988  0.2160 -0.1512
36228W        W79244  25.303   4.613   6.990 -0.2476  0.2107  0.1894
36229W        W79245   1.876  24.167  21.924  0.1994  0.1180  0.0314
36230W        W79246  13.906  21.907  23.085  0.0621  0.0739 -0.2045
36231W        W79247  28.962  33.200   4.189  0.1520  0.0692 -0.0414
36232W        W79248  11.531   0.393  25.241 -0.0622 -0.0457  0.0979
36233W        W79249  13.747   4.891  24.874  0.4336  0.0311  0.0202
36234W        W79250   2.327   5.985  16.815  0.1083 -0.0229 -0.0621
36235W        W79251  28.344  22.719  20.112 -0.2358  0.0258 -0.0470
36236W        W79252  32.936  18.472  21.008  0.4497  0.0344  0.0206
36237W        W79253   2.990  25.034  19.831  0.0045 -0.0843 -0.0451
36238W        W79254   0.424   1.839  17.386 -0.0098  0.2992 -0.0095
36239W        W79255   5.339  32.422   0.424 -0.1399  0.1592  0.0722
36240W        W79256  20.000   5.652  25.799  0.1735  0.4096 -0.2530
36241W        W79257  24.341   6.574  16.905  0.0706  0.1717 -0.0840
36242W        W79258   0.243   5.736   1.439 -0.1640  0.0955  0.1488
36243W        W79259  16.290  23.263  18.375  0.2393 -0.1593 -0.1868
36244W        W79260  19.010   6.352  27.274  0.1337 -0.3470  0.0438
36245W        W79261  20.590   7.810  18.311  0.2143 -0.1628 -0.2843
36246W        W79262  21.231   2.812  25.241 -0.3136 -0.2125  0.1496
36247W        W79263  10.619  15.306   3.168  0.1181 -0.1537  0.0809
36248W        W79264  24.218  26.584  25.187  0.0418  0.0517 -0.0258
36249W        W79265   5.242  14.975   1.527 -0.0240 -0.0279 -0.2149
36250W        W79266   7.059   5.550  25.962 -0.1834  0.2460  0.1640
36251W        W79267   9.277  19.140  13.670 -0.1985 -0.4643  0.0366
36252W        W79268   3.751  18.692  22.396 -0.2294  0.4087  0.2032
36253W        W79269  28.573  13.420  28.702 -0.1239  0.0861  0.3122
36254W        W79270  28.135   3.517  25.084  0.1461 -0.1646 -0.0533
36255W        W79271  26.297   5.494  17.063 -0.2975  0.1934  0.1134
36256W        W79272  25.340  15.113  13.401  0.2597 -0.1032  0.0404
36257W        W79273  19.784  19.408  28.440 -0.2033  0.2691  0.2587
36258W        W79274  14.581  17.946  24.975 -0.1446  0.4703  0.0545
36259W        W79275  17.513  25.899  15.049  0.0360 -0.1280  0.1298
36260W        W79276  26.967  20.815  26.922 -0.0863  0.3019 -0.2184
36261W        W79277  24.200  33.355  25.075  0.1387  0.0289 -0.1939
36262W        W79278   6.315  27.448   6.665  0.3155  0.0598  0.2743
36263W        W79279  11.027  14.951  21.615  0.2550  0.2160 -0.1715
36264W        W79280   8.989  10.931  19.335  0.3270  0.1772 -0.1492
36265W        W79281  28.499   5.014  19.459 -0.3507  0.1703  0.2107
36266W        W79282   9.729  24.735   1.538  0.3075 -0.1337  0.1807
36267W        W79283  32.104  23.716  17.049  0.0383  0.1114 -0.1393
36268W        W79284  13.567  22.151   7.345  0.2454  0.4402 -0.0017
36269W        W79285   0.087   6.649  20.417  0.1595  0.1327  0.2141
36270W        W79286  26.414  24.232  19.963 -0.1637  0.0697 -0.2753
36271W        W79287   1.262  20.345  19.386  0.3276 -0.2907  0.2438
36272W        W79288   8.019  33.074  14.995  0.1253  0.0078  0.1462
36273W        W79289   5.614   3.096  20.896 -0.0222  0.0220  0.0686
36274W        W79290  30.530   9.320  28.729  0.0556  0.0560  0.3599
36275W        W79291  13.915  20.070  23.524  0.0235  0.0991  0.2063
36276W        W79292  34.462  15.102  29.017  0.3188 -0.2612 -0.0632
36277W        W79293  22.031   5.818  15.653 -0.0010  0.1968 -0.0701
36278W        W79294   1.132  21.611   9.503 -0.2218 -0.0079 -0.3365
36279W        W79295  29.549  16.456  28.980 -0.2961 -0.2197  0.5941
36280W        W79296   6.255   1.224  15.152 -0.1835  0.0829 -0.1300
36281W        W79297  33.890  30.511  25.049  0.2657  0.0814 -0.1518
36282W        W79298   3.687   8.881  19.380  0.2564 -0.1803  0.1858
36283W        W79299  17.407   5.014   5.671 -0.2421 -0.0501 -0.5437
36284W        W79300  25.097  13.321  15.794 -0.3423  0.1446  0.2272
36285W        W79301  16.004  26.834  15.392  0.1810 -0.1743  0.0562
36286W        W79302  34.601   1.522  26.945  0.1683  0.1383  0.0329
36287W        W79303  28.926  15.102   3.664 -0.3845  0.1062  0.0516
36288W        W79304  31.223   3.443  28.379 -0.0577 -0.5466 -0.2918
36289W        W79305  10.767  26.275   7.001 -0.0427  0.4679 -0.0735
36290W        W79306   0.012  14.190   5.007  0.0887  0.1034 -0.0221
36291W        W79307  31.100   8.649   5.543 -0.2426  0.0164  0.2696
36292W        W79308  13.445   5.992   5.272  0.4598 -0.0529  0.0630
36293W        W79309  29.998  18.573  24.420 -0.0549  0.1252  0.1955
36294W        W79310   4.851   8.024  15.080  0.1356 -0.1605 -0.2304
36295W        W79311  28.495  14.673  17.870  0.1485 -0.1160 -0.1047
36296W        W79312  30.689   7.936  26.966 -0.2053  0.2788  0.1941
36297W        W79313  26.107  11.431  20.333  0.0163 -0.0400  0.0829
36298W        W79314  30.478   1.527  24.255 -0.2350  0.2235 -0.4301
36299W        W79315  13.604  33.021  14.854 -0.2299  0.0926  0.1179
36300W        W79316  30.255  14.807  24.793  0.0350 -0.2463  0.2288
36301W        W79317  20.730  27.933  15.992  0.0552 -0.0980  0.0063
36302W        W79318  22.731   1.971   2.646  0.1395  0.0967 -0.3992
36303W        W79319  33.974   3.285  21.008  0.0477  0.3782  0.0364
36304W        W79320  31.136  31.958   2.355  0.0274  0.1560  0.1161
36305W        W79321  34.412  25.685   8.503  0.0567 -0.2388  0.1186
36306W        W79322  30.973   8.005   1.889 -0.2249  0.0865  0.1537
36307W        W79323  11.623  28.960  25.901  0.0497 -0.1994  0.2545
36308W        W79324   7.074   7.882  22.590  0.0772 -0.0017  0.1590
36309W        W79325   8.842  32.040   5.555  0.2066  0.4353  0.0928
36310W        W79326  29.946  21.110  21.858 -0.3166 -0.1674  0.0501
36311W        W79327  18.035   8.146  15.759  0.0278  0.2661 -0.1496
36312W        W79328   1.232  18.167   6.280 -0.1572 -0.2410 -0.1924
36313W        W79329  32.692  32.275  22.606  0.4284 -0.0309 -0.1553
36314W        W79330  23.443  14.750  24.613  0.0417  0.0291 -0.1223
36315W        W79331   6.918  26.439   3.169 -0.3217  0.3321 -0.1751
36316W        W79332   0.394   7.832  25.628  0.0460  0.2234  0.1023
36317W        W79333   1.882   2.009  28.410 -0.2015 -0.2819 -0.2568
36318W        W79334  25.179  14.054   2.936  0.1748 -0.3716  0.0304
36319W        W79335   9.358  10.796   2.564  0.2554  0.0157 -0.2267
36320W        W79336  17.485   8.669  15.089 -0.2100  0.2411 -0.0506
36321W        W79337   7.547  14.638   3.902 -0.4735 -0.0821  0.0309
36322W        W79338  28.793  11.018  15.171 -0.1957  0.1904  0.2699
36323W        W79339   5.583  21.991  16.862  0.2766 -0.1019  0.0427
36324W        W79340   3.085  15.373  22.076 -0.1204 -0.3118 -0.0226
36325W        W79341   9.875  11.001  20.406  0.0665  0.0628  0.0442
36326W        W79342  18.688   4.575  22.408 -0.2676  0.2002  0.1742
36327W        W79343  20.103  25.560  21.048 -0.1673 -0.1381  0.0910
36328W        W79344  27.726  17.674  26.826  0.0256  0.0851  0.1404
36329W        W79345   4.173  33.567  15.859  0.1721  0.0080 -0.0907
36330W        W79346  26.125  17.408  19.927 -0.1508 -0.1058  0.2349
36331W        W79347  16.681  32.952  25.633 -0.1818  0.5869 -0.0815
36332W        W79348  28.455  25.849  21.921 -0.0382 -0.1285 -0.2170
36333W        W79349  23.261   9.711   3.746 -0.0853  0.0025  0.0563
36334W        W79350  17.006   3.471   4.642 -0.2427  0.1952  0.2392
36335W        W79351   3.966  22.360  22.808  0.2562 -0.0410 -0.1430
36336W        W79352  32.307  19.398  24.507 -0.0753  0.3343  0.2533
36337W        W79353  27.236  26.809   2.571 -0.2460  0.2368 -0.1330
36338W        W79354   4.377   7.524  20.533  0.0500 -0.0229 -0.0108
36339W        W79355   4.775  20.099  26.199 -0.1965  0.0219  0.0361
36340W        W79356  25.440  32.579  18.068 -0.1015  0.0981 -0.0968
36341W        W79357  14.506  15.816  15.423  0.2036  0.1446  0.1613
36342W        W79358  31.763  21.376  24.077  0.0012  0.1574  0.2557
36343W        W79359  21.750   6.919  21.056  0.1669 -0.1614 -0.1260
36344W        W79360   4.053  14.271   7.466 -0.2355 -0.0784 -0.2502
36345W        W79361  24.840  19.691  15.958 -0.2138 -0.1058 -0.3789
36346W        W79362   7.500  32.054   3.481  0.2210 -0.0157  0.0827
36347W        W79363   1.681  12.415  27.410 -0.0665 -0.0767  0.0284
36348W        W79364   1.408  15.112  24.236  0.1613 -0.1199 -0.2208
36349W        W79365  30.136   7.691  20.110 -0.0944 -0.4744  0.0702
36350W        W79366   0.324  11.912  24.247 -0.1200  0.1062  0.1139
36351W        W79367  28.451  23.743  27.272 -0.0947  0.1175 -0.1408
36352W        W79368   1.143  17.414  22.250 -0.0402 -0.0615 -0.1448
36353W        W79369  10.481  21.926  13.625 -0.1956 -0.1548 -0.2555
36354W        W79370  33.853  26.877  26.226  0.3149 -0.2487  0.0162
36355W        W79371   5.625   6.893   7.660 -0.0442 -0.2662  0.0033
36356W        W79372  28.133  11.625  21.416  0.1031  0.1301  0.2401
36357W        W79373  22.268  11.392  15.225 -0.0805  0.1105 -0.3354
36358W        W79374   5.756   4.076  25.906  0.0757  0.0652 -0.3101
36359W        W79375   2.387  18.064  16.604 -0.2408 -0.3201 -0.2253
36360W        W79376  26.578   4.939  15.670 -0.1285  0.1071 -0.1725
36361W        W79377   2.654  13.512  19.533  0.0755 -0.0227  0.1059
36362W        W79378  10.037  13.918  23.118 -0.1593  0.1831  0.0069
36363W        W79379  29.593   4.652   9.159  0.1238  0.2114  0.1640
36364W        W79380  28.711  15.268   5.080 -0.1266  0.0000 -0.1619
36365W        W79381  31.041  19.673  28.880 -0.1356  0.3231  0.1422
36366W        W79382  21.073  11.521  26.299 -0.0706 -0.0662  0.1978
36367W        W79383  12.122  14.526  26.820  0.0880  0.4322  0.0683
36368W        W79384  29.003  32.003   4.661 -0.1507  0.1691 -0.0409
36369W        W79385   1.925  14.242   7.270 -0.1291 -0.1611 -0.0276
36370W        W79386  27.961   2.933  22.949 -0.1726  0.0267  0.0218
36371W        W79387  30.214  26.783  22.945 -0.0077  0.1562  0.2219
36372W        W79388   3.570   9.194  14.900  0.0702  0.2307 -0.1083
36373W        W79389   3.758  21.391  14.270  0.2382  0.1513 -0.2948
36374W        W79390  31.414  17.347  17.264  0.3013 -0.1285  0.1160
36375W        W79391  14.892  17.576  21.449  0.2097 -0.0526 -0.1321
36376W        W79392   8.881  24.804  18.365  0.1898  0.1169 -0.1043
36377W        W79393   4.562  34.167  28.451  0.0044 -0.2944  0.0523
36378W        W79394  26.757  23.286  27.119 -0.0078  0.1275 -0.0577
36379W        W79395  22.813   0.163  22.998  0.0588  0.0911  0.1464
36380W        W79396   1.627   6.095  26.515 -0.1243 -0.0095 -0.5212
36381W        W79397  26.719   0.823  25.206 -0.1584 -0.0101  0.2597
36382W        W79398  20.221  26.838  14.865  0.0797  0.2071 -0.2667
36383W        W79399   6.245  33.285  16.401 -0.1305 -0.1996  0.1179
36384W        W79400   7.438  26.785  15.578  0.0914  0.1122 -0.1198
36385W        W79401  30.375   2.184  25.654 -0.0904  0.0623 -0.3475
36386W        W79402  24.691  18.990  27.592 -0.3140 -0.1341 -0.2012
36387W        W79403  23.215  34.214  25.668 -0.0125 -0.3161  0.2519
36388W        W79404   1.302  31.943  20.847  0.2761 -0.2606  0.3434
36389W        W79405  30.846  32.309  24.753 -0.1002  0.0461  0.1323
36390W        W79406  27.093   1.158  19.280  0.0322  0.0692  0.1098
36391W        W79407  19.188  31.463  21.491 -0.2797 -0.1014 -0.0755
36392W        W79408   9.393   8.772  16.928  0.0339  0.3856  0.0093
36393W        W79409  20.317  10.861   6.376  0.0346 -0.0565 -0.1416
36394W        W79410  28.424  17.426   1.919  0.0480  0.1699 -0.0534
36395W        W79411  27.561   8.891  23.714 -0.1476 -0.2648 -0.1372
36396W        W79412   1.261   0.161  14.601 -0.0725 -0.2810  0.0041
36397W        W79413  25.824  15.341  26.575 -0.0532 -0.1896 -0.0401
36398W        W79414  31.268  12.154  24.069 -0.0080 -0.3294  0.0901
36399W        W79415   3.085   6.537  25.273  0.3563 -0.0856  0.0154
36400W        W79416  31.366   5.532  23.958 -0.2534 -0.4159 -0.3318
36401W        W79417  25.592  26.011  24.301  0.4174  0.2095  0.0467
36402W        W79418  28.097  20.963  29.088  0.0522 -0.0698 -0.1144
36403W        W79419  13.783  11.997  18.482 -0.1054  0.0747  0.0275
36404W        W79420   5.203  32.765  26.191 -0.0553 -0.1630 -0.0401
36405W        W79421  24.169  32.517   3.302 -0.1933 -0.1308 -0.1244
36406W        W79422  10.998  32.717  27.552 -0.1677 -0.0419 -0.4348
36407W        W79423   5.012  14.271  20.081  0.5024  0.1997  0.0587
36408W        W79424  31.038   4.564  18.358  0.1863  0.1816  0.0340
36409W        W79425  28.319   2.916  24.504 -0.3238  0.1539  0.1880
36410W        W79426  24.118   0.772   0.900 -0.0194 -0.1275  0.1215
36411W        W79427  23.730  33.455  16.471 -0.2692  0.0426 -0.2394
36412W        W79428  27.346  11.241  27.950  0.3620 -0.1398  0.1964
36413W        W79429  32.307  17.839  15.037 -0.2039  0.1624  0.3184
36414W        W79430  14.921  12.180  14.461  0.0347  0.1555 -0.2417
36415W        W79431  26.396   7.672  24.503  0.0034 -0.3113  0.0075
36416W        W79432   7.150   8.976   4.849  0.2181 -0.0604 -0.1482
36417W        W79433  17.770  20.889  22.307 -0.1578 -0.0809  0.1239
36418W        W79434  26.611   4.204  25.468  0.1637 -0.0020  0.0368
36419W        W79435  25.173   6.835  21.037  0.2704  0.2141 -0.0337
36420W        W79436   7.291   6.628   5.759  0.1613 -0.0343  0.0348
36421W        W79437  31.175  16.377  25.816  0.1113 -0.0213  0.1575
36422W        W79438  12.214  22.602  17.948  0.0185 -0.1212 -0.0164
36423W        W79439   4.474  18.366  15.649  0.1449 -0.2035 -0.2623
36424W        W79440  10.591  10.306   0.247  0.0615 -0.1460  0.1245
36425W        W79441  29.926   6.635  16.555  0.1961  0.2558 -0.0722
36426W        W79442  33.670  18.658  16.005 -0.0428 -0.4296 -0.1744
36427W        W79443  34.562  24.916  26.461 -0.1915  0.2187  0.1770
36428W        W79444  24.782   4.635   8.797  0.0747  0.0518  0.1780
36429W        W79445  22.337  17.371  13.481 -0.1255  0.0770 -0.3818
36430W        W79446  20.729   8.919  14.870  0.0707  0.1050 -0.6415
36431W        W79447   4.886  14.207  28.940 -0.1388  0.0846  0.1185
36432W        W79448  22.482   1.642  20.799 -0.0462 -0.1371 -0.0035
36433W        W79449  13.793   9.039  24.686 -0.3164  0.1958 -0.3200
36434W        W79450   5.209  19.407   4.587  0.0733 -0.0108 -0.0520
36435W        W79451  28.041   7.468  20.096  0.0258  0.0892  0.0150
36436W        W79452   3.245  22.275  20.782 -0.1018 -0.3499 -0.3742
36437W        W79453  32.098  18.140   7.355  0.0551  0.1787 -0.0718
36438W        W79454  27.819  10.285  16.242  0.0539 -0.0086  0.4789
36439W        W79455  22.902  22.226  19.621  0.0030  0.0641 -0.1011
36440W        W79456  27.729  12.472  29.005  0.2583  0.0950 -0.0083
36441W        W79457  27.478  31.026  20.534  0.0314 -0.0429 -0.0774
36442W        W79458  27.625   0.571  24.186 -0.3325  0.3550 -0.1992
36443W        W79459  31.785  33.780  24.033 -0.2515 -0.0076 -0.2230
36444W        W79460  28.255   6.865  22.080 -0.0802 -0.0211 -0.2535
36445W        W79461  34.245   8.163  15.326  0.2269  0.3209  0.3365
36446W        W79462  30.241  19.128   0.721  0.1409 -0.4536 -0.1183
36447W        W79463  24.275   1.931   7.565  0.2717  0.2198  0.0485
36448W        W79464  12.655  13.129   5.784 -0.0141  0.1047 -0.0041
36449W        W79465   2.884   8.065  23.271 -0.1183 -0.1565  0.0668
36450W        W79466  13.992   9.392   0.680  0.2170  0.4928  0.0743
36451W        W79467   0.183  24.721  20.904  0.3567 -0.0771 -0.3353
36452W        W79468  10.305  18.786   2.447  0.1840 -0.0197  0.0760
36453W        W79469  23.877   4.634   0.931 -0.1982  0.2572 -0.3134
36454W        W79470  32.863   9.044  23.235  0.0636  0.2267  0.0344
36455W        W79471  27.609  21.802   2.539  0.0536  0.0763  0.0306
36456W        W79472  28.889  21.992  20.577  0.2291 -0.2660  0.0013
36457W        W79473   6.603   7.470  14.114  0.0341 -0.1257 -0.1070
36458W        W79474  20.639  14.435  27.102 -0.5478  0.2156  0.0521
36459W        W79475  25.573  29.785  26.896 -0.2540 -0.1632 -0.1149
36460W        W79476  28.278  10.431  27.042 -0.2511  0.0245  0.1566
36461W        W79477  12.350   9.448  18.276  0.1526 -0.0526 -0.0306
36462W        W79478  24.996  11.012  28.673  0.0222 -0.1747  0.2369
36463W        W79479  24.371   5.871  17.251 -0.1092  0.3778  0.0263
36464W        W79480  25.436   9.399  19.831 -0.1975  0.0638 -0.2963
36465W        W79481  32.727  16.770  16.128 -0.0738 -0.0949 -0.1471
36466W        W79482  30.134  26.798   9.668 -0.1804 -0.1726  0.2080
36467W        W79483  33.863  21.037  15.543  0.0124 -0.2916  0.1221
36468W        W79484  26.773  19.376   0.103 -0.0476  0.0050 -0.0832
36469W        W79485  26.809   5.509   6.954  0.1708 -0.1875 -0.0565
36470W        W79486   1.880  17.363   4.557  0.0577 -0.0323 -0.2929
36471W        W79487  26.841  10.217   7.044 -0.2055 -0.0470 -0.2096
36472W        W79488  32.786   3.913   3.213  0.0858  0.1729  0.1949
36473W        W79489  15.312  22.771  19.215  0.0016 -0.0661 -0.0681
36474W        W79490  19.461  17.327  27.741  0.0333  0.0116 -0.0314
36475W        W79491  33.454  20.434  21.004  0.0972 -0.1750  0.0490
36476W        W79492   6.859   8.673  17.488  0.5462 -0.0256 -0.1509
36477W        W79493  27.336  26.177  24.621  0.0927 -0.1631 -0.1194
36478W        W79494  17.217  12.493   3.361  0.0535  0.1014 -0.0561
36479W        W79495   4.604   0.181   1.463  0.1428 -0.2960 -0.2229
36480W        W79496   7.866   9.625   1.213  0.0664 -0.3589 -0.0785
36481W        W79497  34.345   7.083   5.479 -0.0408 -0.1684  0.0710
36482W        W79498   0.982  24.060  21.793  0.2297  0.1728  0.2147
36483W        W79499   5.460  10.071  24.955  0.2625  0.0901  0.0495
36484W        W79500  19.742  29.004   5.491  0.3229  0.0932  0.1956
36485W        W79501   8.278  29.305   5.164 -0.0201  0.0554 -0.0519
36486W        W79502  26.237   4.185  21.265 -0.1143  0.1940 -0.4647
36487W        W79503  33.224   6.809   9.256 -0.1583  0.2859  0.0927
36488W        W79504  10.493   4.758   1.594  0.1003 -0.3077  0.2364
36489W        W79505  20.362  33.256  20.547  0.1951  0.0944 -0.2456
36490W        W79506   9.129   9.955   2.866 -0.2115  0.2047  0.0192
36491W        W79507  29.218  14.833  14.282 -0.0308  0.1574 -0.1921
36492W        W79508  19.074   9.890   5.786 -0.0655 -0.1962  0.0937
36493W        W79509  18.325  14.861   5.301  0.1686 -0.1505 -0.4084
36494W        W79510  31.843  12.821  24.164 -0.2024 -0.0804 -0.0461
36495W        W79511  17.893   5.765   6.288 -0.0417 -0.1167  0.0818
36496W        W79512  33.689   7.000   1.505 -0.0503 -0.1658  0.1808
36497W        W79513   0.396  12.307   2.803 -0.3103 -0.1531 -0.0241
36498W        W79514  33.609  10.295  15.839  0.1631  0.0057 -0.0987
36499W        W79515  22.096  18.463  23.088  0.4503  0.0677 -0.0948
36500W        W79516  33.285   5.361  18.946  0.0371  0.1314  0.2633
36501W        W79517   2.607   5.875  18.134  0.1381  0.2847 -0.0362
36502W        W79518  26.799   6.521  28.180  0.0876 -0.1781  0.0319
36503W        W79519  28.418   8.558  25.795 -0.0103  0.0468 -0.0420
36504W        W79520   1.997  19.722  21.617 -0.1171 -0.1641 -0.0593
36505W        W79521  34.352  29.619  24.889  0.0114 -0.0776 -0.1023
36506W        W79522  13.801  11.111   8.664  0.3320 -0.0042  0.0491
36507W        W79523  12.290  31.434  25.876  0.0457 -0.3177  0.0840
36508W        W79524  18.614  34.716  22.056  0.0362  0.2436  0.1401
36509W        W79525  33.347  12.909   8.634 -0.0898  0.1286  0.0190
36510W        W79526  12.380  24.788   1.499  0.2213  0.0215  0.0793
36511W        W79527  33.910  19.266  28.853  0.2068  0.1027 -0.2472
36512W        W79528  27.015   7.612  21.230  0.3603 -0.1550  0.3111
36513W        W79529   7.495  19.765   0.342  0.0826 -0.1339  0.1127
36514W        W79530  31.224   8.986   2.969  0.2464  0.2228  0.0636
36515W        W79531   9.026   3.042  23.471 -0.2739  0.0445  0.2796
36516W        W79532  34.438  19.858   0.994  0.0737 -0.1027  0.0523
36517W        W79533  20.025   5.797  28.383  0.0471 -0.2719 -0.2470
36518W        W79534  17.395   6.213   8.562 -0.2670 -0.0205  0.1132
36519W        W79535   4.954  12.979  22.122  0.0814  0.1264  0.1291
36520W        W79536  24.687  27.982  17.408 -0.4919 -0.0157  0.0800
36521W        W79537  27.017  18.570  15.884 -0.2420  0.1010  0.0250
36522W        W79538  24.538  11.645  26.854 -0.1187  0.1220 -0.1123
36523W        W79539  13.307  25.630  16.914 -0.3511  0.2395  0.2435
36524W        W79540  10.896  13.141  26.977  0.1927 -0.0170 -0.1867
36525W        W79541  21.771  18.561   6.041  0.2592  0.1418 -0.2785
36526W        W79542  33.761   9.389  25.885 -0.2811  0.1491 -0.2639
36527W        W79543  27.612  13.004   4.288 -0.0182 -0.0123 -0.1433
36528W        W79544  11.406  31.600   0.409 -0.2931  0.3015 -0.1060
36529W        W79545  24.500  21.689  21.860  0.2652 -0.1250 -0.0380
36530W        W79546  21.319   3.070  26.231  0.0367 -0.3112  0.2636
36531W        W79547  23.165  17.050  22.359  0.0339  0.2172 -0.0018
36532W        W79548  14.870  17.831  22.703  0.1461 -0.3011 -0.4650
36533W        W79549  12.738  21.708  28.656  0.0342  0.0623 -0.1183
36534W        W79550  26.892  12.594  24.384  0.1234  0.2201 -0.4334
36535W        W79551  26.486  21.767  16.840 -0.0992  0.0339  0.0246
36536W        W79552  28.977  16.399  17.145 -0.1901 -0.0989  0.0183
36537W        W79553   3.687   4.240  21.164 -0.0276  0.2634 -0.2241
36538W        W79554  33.147  22.313   6.384 -0.1665 -0.0452 -0.0137
36539W        W79555   0.902  17.164  24.400 -0.1206  0.1301 -0.0661
36540W        W79556  19.755   2.623  20.016 -0.0704  0.1089 -0.2429
36541W        W79557   1.665   8.184   2.024  0.1061  0.0000 -0.0810
36542W        W79558  23.067  25.923   7.849  0.1588  0.0583  0.2128
36543W        W79559   0.473  32.672  24.999  0.0809  0.0976 -0.0942
36544W        W79560  26.637  14.791  20.704 -0.0012 -0.0753  0.1543
36545W        W79561   3.773   9.370   9.540  0.3734 -0.0197 -0.1890
36546W        W79562  20.534  15.727  28.581 -0.1841 -0.1120  0.0560
36547W        W79563  24.679   1.272  21.867 -0.1037  0.2022  0.1229
36548W        W79564  13.949  19.896  19.589 -0.0305  0.4147  0.2309
36549W        W79565   2.479  12.371  27.040  0.2007  0.0723 -0.1739
36550W        W79566   1.172  24.496  21.500 -0.1811  0.4430  0.2073
36551W        W79567  21.203   8.177  23.374  0.1875 -0.0860  0.0668
36552W        W79568   7.038  16.094  15.221  0.1102  0.0109 -0.0597
36553W        W79569   0.455  27.814   6.712  0.1436  0.5114 -0.1597
36554W        W79570  17.902  16.588  19.576 -0.1006 -0.4289  0.0974
36555W        W79571  19.788   1.867  29.146  0.0856  0.1692  0.1611
36556W        W79572  30.896  31.123  25.829 -0.0911  0.0154 -0.0910
36557W        W79573   0.093  14.801  24.700  0.0502 -0.0744  0.0354
36558W        W79574  25.755   0.397  27.114  0.0907  0.0239 -0.2247
36559W        W79575  30.893  12.477  10.474 -0.5422 -0.0368 -0.0487
36560W        W79576   4.072   5.455  15.793 -0.0449  0.0478  0.4049
36561W        W79577  29.008  31.371   6.920  0.3380  0.0580 -0.2651
36562W        W79578  12.697   8.346  24.365  0.2556 -0.0633 -0.2578
36563W        W79579   8.639   8.853  24.224  0.2134  0.0710  0.5035
36564W        W79580  28.241  31.682   2.003 -0.0874  0.0219  0.0620
36565W        W79581  22.172  20.747  21.836  0.2532  0.1057  0.3054
36566W        W79582  26.886   4.943  26.021  0.1321  0.1976  0.0776
36567W        W79583  25.264   2.130  17.644  0.0878  0.1917  0.0406
36568W        W79584  28.915  12.144  18.981  0.1318 -0.1249  0.1086
36569W        W79585  31.917  19.041  19.770 -0.0067  0.3018 -0.2536
36570W        W79586  32.881  21.865   2.337 -0.1760  0.0287 -0.0899
36571W        W79587   5.855   7.042  23.635  0.2125  0.2777 -0.0107
36572W        W79588   2.860   1.073   8.522  0.0379  0.3106  0.0147
36573W        W79589  23.641  22.487  27.643  0.0308 -0.0274 -0.1216
36574W        W79590  29.515  33.313   8.667 -0.1035  0.2550  0.0396
36575W        W79591   2.852  22.249   4.008  0.1589  0.1044  0.1689
36576W        W79592  11.313  14.347   2.389 -0.4055  0.1711  0.1672
36577W        W79593  22.976  19.712  17.515 -0.0696 -0.2293  0.1200
36578W        W79594  29.604  34.387  24.049  0.3539  0.0346  0.0161
36579W        W79595   2.682  15.118  24.776 -0.0624 -0.2120 -0.1164
36580W        W79596  31.999  12.843   5.839 -0.0597 -0.0236 -0.1237
36581W        W79597   1.484   6.563   3.056  0.0287  0.0906  0.2169
36582W        W79598   0.186   8.427  20.769  0.0682 -0.1488 -0.0268
36583W        W79599  12.290   3.458  19.536 -0.0547  0.2456  0.0300
36584W        W79600  16.373  17.836  17.622  0.0151  0.0227 -0.0011
36585W        W79601  23.528  27.245  20.449  0.3002 -0.4000 -0.0489
36586W        W79602   4.941   8.991  27.109  0.0374  0.1709  0.2008
36587W        W79603  28.909  18.606  21.870  0.0011 -0.1479  0.0883
36588W        W79604   1.321  18.692  21.178  0.1316 -0.2435  0.0400
36589W        W79605  31.312  16.050   5.908  0.3561  0.0661  0.0805
36590W        W79606  20.816  30.029  22.754  0.2438  0.1407 -0.2408
36591W        W79607  10.188  26.979   4.101  0.3250  0.2216  0.4420
36592W        W79608  27.675  15.018   1.422  0.0767  0.0796  0.0509
36593W        W79609  24.777  12.614  19.453 -0.1837 -0.1311  0.2032
36594W        W79610  34.523  15.636   7.278  0.2115  0.1499 -0.1823
36595W        W79611   0.685  17.200   5.429  0.0782 -0.0318 -0.1367
36596W        W79612   1.964  20.730  17.787 -0.1107 -0.0939 -0.0800
36597W        W79613   8.320   4.483  17.783 -0.2285 -0.2722 -0.0488
36598W        W79614  31.837  16.058  20.105 -0.3236  0.0687 -0.1824
36599W        W79615  19.413  25.373  24.113  0.2950  0.1308  0.1262
36600W        W79616   4.350  11.428  20.378 -0.0927  0.1431 -0.4853
36601W        W79617   3.496  11.753   9.494  0.4685 -0.0484 -0.2025
36602W        W79618   7.371  11.569  10.001 -0.1352 -0.5525  0.1020
36603W        W79619  28.098   7.966  17.916  0.0387  0.0307 -0.1914
36604W        W79620  30.050   3.234  17.674  0.0090 -0.3204 -0.0667
36605W        W79621  29.278   7.804   4.639 -0.3350  0.0110  0.3527
36606W        W79622  22.049  19.809  27.532 -0.1812 -0.0106 -0.1755
36607W        W79623  32.977  11.020  26.495 -0.1219  0.2273 -0.1346
36608W        W79624  22.600  18.649   7.695 -0.4643 -0.1709  0.0304
36609W        W79625   5.102  25.383  15.594  0.5876  0.1305  0.3254
36610W        W79626  21.732   7.065   3.047  0.2793  0.2631  0.0359
36611W        W79627  23.483   5.861  15.939  0.0078 -0.1871 -0.0164
36612W        W79628  14.021  33.395  17.420 -0.2518  0.1440  0.2545
36613W        W79629  21.728  16.625  27.136 -0.0522 -0.1826 -0.0480
36614W        W79630  16.133  20.887  13.411  0.1102 -0.1513  0.3208
36615W        W79631   6.895  18.116  23.089 -0.0215 -0.0903  0.2020
36616W        W79632  33.677  16.199  19.570  0.2708 -0.1382  0.1806
36617W        W79633  20.887   8.468   4.774  0.1413  0.0503  0.3816
36618W        W79634  31.804  24.357   4.804 -0.0551  0.1700 -0.0536
36619W        W79635  10.997   3.919   2.837 -0.2802 -0.0251 -0.0875
36620W        W79636  22.704  26.675  18.599 -0.0383  0.2381 -0.0541
36621W        W79637   4.248   6.713  27.265 -0.2259 -0.3960 -0.2756
36622W        W79638   2.779   8.472  14.420  0.1371 -0.1230  0.2341
36623W        W79639  33.102  11.524  19.250 -0.0712  0.4057  0.5061
36624W        W79640  30.730  32.243   6.640 -0.2432  0.0499  0.1069
36625W        W79641  22.675  23.621  13.979  0.0299  0.0061  0.2344
36626W        W79642  33.402  21.424   8.461  0.0082  0.1137 -0.2202
36627W        W79643  28.977  12.785  16.339  0.0763 -0.0774  0.2301
36628W        W79644   3.969   6.772   3.326  0.0301 -0.0950  0.3064
36629W        W79645  22.146   1.165  19.964 -0.2778  0.0528 -0.1818
36630W        W79646  14.494   9.292  21.496 -0.0257 -0.0744  0.1222
36631W        W79647  24.612  13.682   8.549 -0.4577  0.1205 -0.2654
36632W        W79648  33.890  17.229  26.325  0.1653 -0.0332 -0.1465
36633W        W79649   0.985   3.482  21.283 -0.3264  0.1688  0.0043
36634W        W79650  23.385   3.828  22.054 -0.0363 -0.0820  0.0474
36635W        W79651  31.391  21.796  17.333  0.0833  0.0772 -0.0772
36636W        W79652  30.980   6.795  22.972  0.1113 -0.0665 -0.2881
36637W        W79653  28.847   6.430   4.883 -0.3488  0.2739 -0.1965
36638W        W79654   2.841   9.894  23.904 -0.1452 -0.2818 -0.0127
36639W        W79655  25.987  32.416   9.834 -0.0649 -0.1851 -0.0304
36640W        W79656  23.195  17.062   7.817  0.0135 -0.2142 -0.0742
36641W        W79657   4.504   9.723  21.672  0.1383  0.1920 -0.1645
36642W        W79658  21.759  19.078  23.590  0.0628 -0.2338 -0.1219
36643W        W79659  28.762  18.981   2.439 -0.1333 -0.1593  0.1376
36644W        W79660  34.691  13.839  19.007  0.0387  0.3581 -0.0561
36645W        W79661  28.058   9.302  22.527  0.2952  0.1638  0.1596
36646W        W79662  31.340   5.434  22.605 -0.1602  0.1324  0.2526
36647W        W79663  23.356  30.337   3.457  0.0647 -0.0955 -0.1584
36648W        W79664  22.908   1.713  26.414  0.3161 -0.2278 -0.1902
36649W        W79665  23.061  18.162  18.797  0.4445  0.1260  0.0176
36650W        W79666  21.222  18.648  26.378  0.0203  0.3858  0.1724
36651W        W79667   1.723  28.457  13.871  0.3250 -0.0491  0.0328
36652W        W79668   1.606  22.124  28.866  0.1214  0.0647  0.1728
36653W        W79669   4.204  11.798  23.199 -0.4364  0.1915  0.3593
36654W        W79670  18.188  20.101  13.576  0.1447  0.0573 -0.2977
36655W        W79671  21.572  13.769   0.751 -0.1700  0.3221  0.2276
36656W        W79672   5.704   9.122  14.428 -0.2177  0.1807  0.1264
36657W        W79673  19.462   1.423  16.753  0.1978  0.1789 -0.1329
36658W        W79674  11.139  11.717  25.209 -0.1399 -0.0506  0.4713
36659W        W79675  31.022  27.953   2.967 -0.0398 -0.4751  0.0171
36660W        W79676  26.425  18.292   7.542  0.0145 -0.2860 -0.0551
36661W        W79677  26.421  33.955   1.472  0.3255  0.2214  0.1735
36662W        W79678  11.630  10.245  27.461  0.1151  0.2266  0.2217
36663W        W79679   2.051  12.029  21.400 -0.0279 -0.3088  0.2239
36664W        W79680   1.347  14.416   1.553  0.0341  0.2605 -0.0566
36665W        W79681  33.676   7.956  19.247  0.0082  0.0782  0.1416
36666W        W79682   9.133   7.172   4.283 -0.0899  0.1640 -0.0923
36667W        W79683  27.474   2.514  19.633 -0.2187 -0.0709 -0.4408
36668W        W79684  13.158  18.500   7.623 -0.4083 -0.0908 -0.4866
36669W        W79685  21.395   7.248  13.437  0.0103  0.0873 -0.1468
36670W        W79686  31.021   0.680   6.617  0.1997 -0.0069 -0.0761
36671W        W79687  30.547  15.495  28.606  0.1559 -0.1664 -0.2151
36672W        W79688   1.063  12.537   0.088 -0.0271 -0.2164 -0.0436
36673W        W79689  30.863  25.353  15.815  0.0412  0.3732 -0.3607
36674W        W79690  17.302   8.564  18.825 -0.0472 -0.3589  0.0294
36675W        W79691   6.121  11.557  28.548 -0.1242 -0.0218  0.1812
36676W        W79692  30.866  12.708   1.258 -0.1188  0.2867 -0.0938
36677W        W79693  28.183   5.427  20.368  0.1102  0.2210  0.0437
36678W        W79694  26.627  26.764   5.264  0.1298 -0.0273  0.0465
36679W        W79695   9.103  20.857  19.228  0.1280 -0.2134  0.0591
36680W        W79696  34.184  11.442  14.263 -0.2048 -0.1293 -0.3336
36681W        W79697  28.645  10.046  27.006  0.2481 -0.2472 -0.1768
36682W        W79698   2.487   9.366  21.035  0.0423  0.0979 -0.1547
36683W        W79699   1.415  25.190   4.124 -0.0340 -0.1924 -0.1127
36684W        W79700  28.328  27.543  17.428 -0.0086 -0.0733  0.1552
36685W        W79701  31.983   3.470  14.067  0.0583  0.2509 -0.2287
36686W        W79702  32.264  14.068  17.093  0.1161 -0.1443  0.1675
36687W        W79703   4.011  19.342  29.030  0.2322  0.1067 -0.2167
36688W        W79704   1.063   6.554   9.891 -0.1328 -0.0958 -0.2283
36689W        W79705   5.305  10.544   1.673  0.1176 -0.1279 -0.1486
36690W        W79706   7.348   0.566  24.883  0.2266 -0.0094  0.4472
36691W        W79707  23.761   1.666  29.198 -0.1234 -0.3503  0.0154
36692W        W79708  32.710  13.512   1.719 -0.0085  0.2764 -0.1649
36693W        W79709  27.067  34.245   8.778  0.0238 -0.3499 -0.3646
36694W        W79710  33.180   4.779  21.165  0.1007  0.0234  0.0082
36695W        W79711  13.545  26.618  28.938 -0.0817 -0.1910 -0.0461
36696W        W79712   1.530  15.213  26.626 -0.3191  0.0185  0.4110
36697W        W79713  10.292   9.746  23.199 -0.1384  0.1321  0.0853
36698W        W79714   3.330  31.485   5.360  0.1448  0.2572 -0.0228
36699W        W79715   2.783  27.074  26.957  0.1915  0.2488 -0.2397
36700W        W79716   1.323  11.362  21.678 -0.2001  0.1889  0.0036
36701W        W79717  29.997   1.477  23.982 -0.1926 -0.1073 -0.2098
36702W        W79718   3.573  34.271   3.342  0.2092 -0.3957 -0.1077
36703W        W79719  24.550   3.560  27.156  0.0106  0.0945  0.1363
36704W        W79720  28.330   6.859  25.197 -0.0997 -0.1975 -0.2246
36705W        W79721  34.161  21.781  23.304  0.1290  0.1226 -0.0104
36706W        W79722  10.072  16.396  22.267 -0.2225 -0.3047 -0.1894
36707W        W79723  13.983  29.641   8.788  0.3724 -0.0349  0.3327
36708W        W79724  12.522  29.076  24.586 -0.1199  0.2838  0.2479
36709W        W79725  25.979  33.510  17.998 -0.1047 -0.0058  0.2131
36710W        W79726  27.120   5.042  16.613 -0.3252  0.4499  0.0882
36711W        W79727  33.109  14.406   1.104 -0.0064 -0.1547 -0.0419
36712W        W79728   1.897  18.325  25.560  0.0643  0.1298  0.0606
36713W        W79729  17.635  25.799  29.276  0.3203  0.2861  0.1737
36714W        W79730  34.694  26.188  26.308  0.2495 -0.1275 -0.1030
36715W        W79731   1.863   2.816  18.441  0.1172 -0.0362  0.3121
36716W        W79732  11.705  15.956  27.252  0.1341 -0.0466  0.0557
36717W        W79733  17.297  19.251  24.571 -0.4494 -0.0027  0.2997
36718W        W79734   5.250  10.706  14.300  0.0923 -0.0949  0.1973
36719W        W79735  19.457  32.283  23.339  0.0856  0.1587 -0.1507
36720W        W79736   7.593  14.354  17.507 -0.0100 -0.1162  0.0638
36721W        W79737  30.648   9.551  29.272  0.1588 -0.1493  0.0625
36722W        W79738  32.509  11.277  19.952 -0.0094 -0.0611 -0.2014
36723W        W79739  16.905   6.947   7.941 -0.3393 -0.1505  0.0634
36724W        W79740  19.289  19.250   7.814  0.1651  0.1655  0.1956
36725W        W79741  21.951  26.998   4.624  0.4179 -0.0255 -0.1199
36726W        W79742  32.933  32.282   2.175  0.1621  0.0022  0.2032
36727W        W79743  31.301  17.601  20.200  0.2479  0.1250 -0.0621
36728W        W79744  22.897  21.782  21.978 -0.0461  0.0649 -0.3301
36729W        W79745  26.046  11.267  27.284 -0.1269  0.0565  0.3343
36730W        W79746  31.836   3.448  21.694  0.2154  0.2113 -0.0189
36731W        W79747  24.690  34.630  23.465  0.0898 -0.1355  0.2247
36732W        W79748  12.977  10.923  18.895  0.4492 -0.0415  0.0313
36733W        W79749  27.703   6.250   8.083  0.3209  0.3072  0.0630
36734W        W79750  31.183  18.414  21.961 -0.0879 -0.0137 -0.1563
36735W        W79751  14.612  16.276   1.066 -0.1355 -0.0138  0.0196
36736W        W79752   0.292  12.679  19.636 -0.0611  0.5595 -0.0366
36737W        W79753  25.129  19.341  17.811 -0.0284 -0.2872 -0.0121
36738W        W79754  26.184  28.365  10.847 -0.0998  0.1247  0.0694
36739W        W79755  33.898  19.294  18.893 -0.0387  0.3377 -0.0014
36740W        W79756  17.887  14.279  14.521  0.0364 -0.1570  0.0406
36741W        W79757  32.578   9.205  19.130 -0.1895 -0.1935  0.0898
36742W        W79758  25.477  11.911   9.598 -0.1693 -0.0817  0.1563
36743W        W79759  20.104   0.540   2.831  0.2203 -0.1470 -0.2588
36744W        W79760  33.930   0.621   5.365 -0.0380  0.0475  0.2798
36745W        W79761   1.554  32.392   0.902  0.1226 -0.4058  0.2080
36746W        W79762  30.411   6.205  23.532  0.1533 -0.1854 -0.0074
36747W        W79763   2.645  20.960  25.109  0.1275  0.1830  0.2658
36748W        W79764   3.327   1.913   1.247  0.3836 -0.2443  0.0040
36749W        W79765  34.080  18.250   0.298 -0.2541 -0.2185 -0.0713
36750W        W79766   2.823   2.982  25.909  0.1634 -0.1633  0.1969
36751W        W79767  33.791  11.641   3.013 -0.0097  0.3162  0.1834
36752W        W79768  20.753  34.074  19.567  0.1777  0.1461  0.2737
36753W        W79769  28.112  33.908   3.499 -0.1450 -0.1154  0.2113
36754W        W79770  34.335  10.079   8.482  0.0979 -0.0184 -0.1804
36755W        W79771   5.016  18.317  24.554  0.1841  0.1195 -0.1168
36756W        W79772   1.486  31.728   3.146  0.1494 -0.4333 -0.3413
36757W        W79773  24.707  11.213   6.901  0.0329 -0.1421 -0.0400
36758W        W79774  16.620  30.692  14.720  0.0207 -0.1643 -0.2804
36759W        W79775  31.518  34.257   3.822 -0.2695 -0.1001  0.1457
36760W        W79776  31.917   8.738   7.264  0.1774  0.0004  0.2562
36761W        W79777   2.233  34.655   9.745  0.1335 -0.1225 -0.0994
36762W        W79778   5.165  34.621   5.102 -0.0348  0.1656  0.1309
36763W        W79779  27.887  29.969  16.075  0.1172 -0.1317 -0.1993
36764W        W79780  24.516   0.337  25.573 -0.0301  0.4080 -0.0760
36765W        W79781  32.701  10.028  22.538  0.0340 -0.0106  0.1690
36766W        W79782  27.853  16.339  23.181 -0.0513 -0.0858  0.1742
36767W        W79783   7.554  16.204  18.141 -0.0444 -0.0084 -0.0619
36768W        W79784  25.492  15.325   8.150  0.0916 -0.0652  0.1643
36769W        W79785   5.109  13.976  14.488  0.4435 -0.0967 -0.1949
36770W        W79786   1.122   2.563   6.709 -0.1308 -0.0542 -0.2518
36771W        W79787  30.514   1.026  28.559 -0.2157 -0.0210  0.0552
36772W        W79788   4.397  17.792  18.047  0.1045  0.0655 -0.1757
36773W        W79789  27.889   0.161  24.308 -0.0660  0.4937 -0.0255
36774W        W79790  11.401   5.817  25.740 -0.0333 -0.0184  0.1309
36775W        W79791  31.636   7.206  17.171  0.2890 -0.1553  0.2088
36776W        W79792  30.734   3.864  10.106  0.0923  0.0067 -0.2068
36777W        W79793  24.887  22.359  16.529 -0.2125  0.0436 -0.3391
36778W        W79794  15.722  16.880  21.558 -0.2381 -0.2073 -0.0934
36779W        W79795  27.036  33.289  20.341  0.0620  0.0785 -0.0911
36780W        W79796  24.247  18.185   4.069  0.0699 -0.0268 -0.1302
36781W        W79797   8.204  11.752  23.554 -0.3273 -0.2228 -0.1396
36782W        W79798  11.930  24.388  17.238  0.1196  0.0238  0.2520
36783W        W79799  33.806  15.118   2.060 -0.2472  0.3058  0.0896
36784W        W79800   0.774  32.785   4.269  0.0632  0.1352 -0.2149
36785W        W79801   1.450  23.749   5.574  0.0518 -0.1890  0.0980
36786W        W79802  26.450  21.532  23.106 -0.4487 -0.0045 -0.0833
36787W        W79803  23.793  15.411  29.042 -0.1386  0.1133  0.0349
36788W        W79804  26.668  22.704  20.747 -0.2251  0.1883 -0.3337
36789W        W79805  30.335   3.976   1.433 -0.1870  0.1215  0.0274
36790W        W79806  26.439   9.372   4.774  0.3886 -0.2000  0.1296
36791W        W79807  16.245  22.817  29.177  0.0061 -0.1651  0.0261
36792W        W79808  16.000   0.859  24.952  0.3456  0.2509 -0.2429
36793W        W79809  28.873   6.880  25.173 -0.1663 -0.0380  0.0591
36794W        W79810  11.444   7.665   6.772  0.0859 -0.0609 -0.1658
36795W        W79811  23.972  34.593  21.260  0.1121  0.0915  0.3183
36796W        W79812  12.415  24.433  21.770 -0.2942 -0.0124  0.1455
36797W        W79813  26.295  15.191  26.751  0.0819  0.0096 -0.0167
36798W        W79814  28.191  26.006   0.442 -0.0583  0.0166 -0.2507
36799W        W79815  24.515  12.979  18.446 -0.2006 -0.4134 -0.0406
36800W        W79816  23.990   6.615  23.493  0.0382  0.1486  0.1063
36801W        W79817   2.236  10.390  24.346  0.4824 -0.1543  0.2585
36802W        W79818  29.222   4.926  14.428  0.3003 -0.2082  0.2416
36803W        W79819  30.927   8.221  17.665  0.2196  0.0670 -0.1668
36804W        W79820   2.847  17.408  17.350  0.2103 -0.1019  0.0538
36805W        W79821   4.176   6.801   6.507  0.0116 -0.1262 -0.1425
36806W        W79822   7.322  18.785  23.398  0.1642 -0.0443  0.1299
36807W        W79823  21.292  14.385  13.461 -0.3518 -0.1382  0.1942
36808W        W79824  26.233  15.879  18.196 -0.1644  0.1114  0.0912
36809W        W79825  24.973  29.743  25.138 -0.0644  0.1572  0.1787
36810W        W79826  15.619  11.829  13.636  0.1448 -0.0478 -0.1264
36811W        W79827  29.232   9.081  24.571 -0.1042  0.0880 -0.0019
36812W        W79828   0.230   0.483  16.846  0.1017  0.1430 -0.1209
36813W        W79829   1.380   7.263  16.482 -0.2611 -0.1178  0.4854
36814W        W79830  31.299  10.344   4.613  0.1299  0.0363  0.0718
36815W        W79831  22.386  13.443  15.223 -0.1165  0.2243 -0.2576
36816W        W79832  10.726  12.933  18.523  0.1505  0.3055  0.2130
36817W        W79833   2.538  11.463  27.214  0.0759 -0.0886  0.0676
36818W        W79834  24.477  33.123  15.730 -0.1429 -0.1024  0.0191
36819W        W79835  27.438   4.271   1.127 -0.1359 -0.3145 -0.3015
36820W        W79836   0.599  22.247   3.725  0.0601  0.0144  0.1935
36821W        W79837   1.489  11.426  10.238 -0.0965  0.0356 -0.1051
36822W        W79838  10.427   3.557  23.637 -0.0328 -0.0123  0.1429
36823W        W79839  30.652   0.151   0.081 -0.2293  0.0125  0.3160
36824W        W79840  20.896  12.290  27.046  0.1486  0.1535 -0.1232
36825W        W79841   3.790   0.677  24.444  0.0481 -0.2710 -0.5676
36826W        W79842  27.851  10.005  23.837 -0.2275 -0.0830 -0.0119
36827W        W79843  28.187  16.077  20.300 -0.2862 -0.1919 -0.1356
36828W        W79844  29.865   8.367  26.913  0.0232 -0.0134 -0.1560
36829W        W79845   3.380   4.548  25.662 -0.0803 -0.1636 -0.0359
36830W        W79846   4.509  12.933   4.710 -0.2212 -0.0141 -0.0503
36831W        W79847   0.848  34.730  19.912  0.0578 -0.3143 -0.0764
36832W        W79848  24.941  13.808   2.532  0.1066  0.0291  0.0117
36833W        W79849   0.516   1.841   7.063 -0.0767  0.3420  0.2009
36834W        W79850  22.515  15.260  19.694  0.3129  0.0239  0.0799
36835W        W79851  17.552   7.512  14.606 -0.0013  0.1169  0.2192
36836W        W79852  10.634  18.473  20.183  0.1751  0.1064  0.1529
36837W        W79853   0.400  29.798   9.795 -0.3630 -0.4047 -0.1060
36838W        W79854  23.595  22.116  22.826 -0.1117  0.1842  0.2331
36839W        W79855   0.243   3.154   4.984  0.0083  0.0251  0.1178
36840W        W79856  32.191  31.831   3.765  0.0990  0.0381 -0.0423
36841W        W79857  30.990  31.413   6.841  0.3691 -0.2473  0.0431
36842W        W79858  22.423   4.499  18.503  0.0294  0.1604  0.0317
36843W        W79859   9.493  17.038  14.780  0.0999 -0.0614  0.1821
36844W        W79860  32.189  27.666  17.763  0.0435  0.1129  0.1680
36845W        W79861  17.498   0.729  26.517  0.0492 -0.0088  0.3405
36846W        W79862  33.260  19.543   3.494 -0.0211  0.1241 -0.0656
36847W        W79863  22.555   9.970  25.614 -0.0353 -0.0014 -0.1452
36848W        W79864  25.437  11.604  21.334  0.0083  0.2137 -0.2062
36849W        W79865  26.338  30.326   5.638  0.2959 -0.0822 -0.2184
36850W        W79866  26.002  18.825  23.769  0.0742  0.0285  0.1570
36851W        W79867  29.256  31.748   6.706  0.0038  0.1527 -0.0894
36852W        W79868  27.790  17.810  16.546  0.1125 -0.0589  0.3154
36853W        W79869  12.375   2.388  24.651 -0.3285 -0.1325  0.1317
36854W        W79870  34.499  24.878  17.207  0.0150 -0.0470  0.1226
36855W        W79871   5.258  17.755   1.767 -0.5107 -0.1485 -0.0055
36856W        W79872  26.798  26.602  16.455  0.2542  0.1131  0.1837
36857W        W79873  23.410   7.736   0.151  0.1113  0.0896 -0.1257
36858W        W79874   5.481  24.488   5.351  0.0363 -0.0444 -0.0080
36859W        W79875  16.667  13.000  28.835  0.0438  0.1088 -0.0058
36860W        W79876  31.604  13.645   9.429 -0.2055  0.0471  0.0572
36861W        W79877   2.271  24.283  20.845  0.1429 -0.2023  0.0784
36862W        W79878   0.055   3.585   4.724 -0.0797 -0.1362  0.0884
36863W        W79879  23.717  12.145  26.506 -0.1431  0.0405 -0.1878
36864W        W79880   1.432  27.728   6.402  0.0768  0.1743 -0.2249
36865W        W79881  23.562  13.560  23.086 -0.1226  0.1524  0.2930
36866W        W79882  27.243  16.171  17.672 -0.2184 -0.0767  0.0655
36867W        W79883  19.897  13.094   3.411 -0.0450 -0.0634  0.2308
36868W        W79884  25.611  12.327   8.714 -0.1775  0.1108 -0.0335
36869W        W79885  32.018  13.428   8.823  0.0969 -0.3194  0.0216
36870W        W79886   2.995  10.036  28.289  0.1227  0.2271 -0.4173
36871W        W79887  33.621  24.678  20.992 -0.1222 -0.0999  0.0050
36872W        W79888  28.037  11.145  19.381  0.1030  0.0452  0.1950
36873W        W79889  32.472   5.862  26.636 -0.1360 -0.0295  0.0543
36874W        W79890  28.964  21.647   8.330 -0.0415 -0.1877  0.1917
36875W        W79891   4.933   2.722  16.547  0.1996 -0.2503 -0.1160
36876W        W79892  11.199   4.590   1.599  0.0236 -0.6035 -0.2779
36877W        W79893  28.147   7.200   0.155  0.1268 -0.0187 -0.0543
36878W        W79894  30.065  10.629   6.442  0.2418 -0.2424 -0.4327
36879W        W79895   5.376  25.725  24.560  0.1351 -0.2893 -0.0078
36880W        W79896  28.890   5.837  28.745  0.2007  0.0040  0.0034
36881W        W79897   5.891  13.104  27.034  0.1034  0.3034  0.0151
36882W        W79898  32.693  10.140   6.428 -0.0281 -0.0223 -0.5010
36883W        W79899  23.208  10.736   8.205  0.0996  0.1371  0.0134
36884W        W79900   4.671  22.317  14.008  0.1170 -0.0510 -0.2580
36885W        W79901  23.685  29.800  22.763 -0.0501 -0.1929 -0.1117
36886W        W79902  26.843   7.353   7.920 -0.4149  0.0824 -0.0517
36887W        W79903   0.702   9.778  26.656  0.2227 -0.1300  0.0322
36888W        W79904   5.026  10.480  21.673 -0.3318  0.1292 -0.4737
36889W        W79905   4.680  23.469  25.841 -0.1212 -0.2808 -0.3558
36890W        W79906  33.576  19.406  22.399  0.4200  0.1679 -0.1383
36891W        W79907  30.048  11.910   3.733  0.1448 -0.0628  0.2044
36892W        W79908  33.713   5.866   9.390  0.1831  0.0960 -0.1225
36893W        W79909  29.059  14.229   5.692  0.2247 -0.1649 -0.0033
36894W        W79910  34.616  15.790  18.286  0.1459  0.0631  0.0196
36895W        W79911   1.214   8.873  25.806 -0.3076  0.0433 -0.0349
36896W        W79912   0.501  10.686  26.784  0.4525 -0.0216  0.0485
36897W        W79913  23.162  16.005  18.156  0.0310  0.1045  0.4309
36898W        W79914  25.269   8.858  24.171  0.0575  0.1094  0.3830
36899W        W79915   6.355   8.733  17.411  0.1120 -0.0403  0.1770
36900W        W79916  13.096  31.728  22.975  0.2709  0.0693  0.0021
36901W        W79917   7.981  18.496  17.428 -0.0961 -0.1412 -0.0135
36902W        W79918   8.969  10.378  22.135  0.1090  0.1432 -0.1082
36903W        W79919  27.207  28.151  19.289 -0.2051  0.2334  0.3011
36904W        W79920  34.526  24.977   3.899  0.1193  0.1872  0.0981
36905W        W79921  15.667  14.561  13.132 -0.3496 -0.0024 -0.1199
36906W        W79922   4.716  15.587  15.663 -0.2654 -0.0371 -0.2177
36907W        W79923  16.941  32.620  16.496  0.0368 -0.2595 -0.4075
36908W        W79924  28.273   9.529  16.141 -0.0952  0.0746  0.3295
36909W        W79925  17.254  14.319  15.954 -0.2930  0.1613 -0.1780
36910W        W79926  30.854  30.027  27.151  0.2917 -0.2467 -0.0772
36911W        W79927  23.926  13.664  14.812  0.1681  0.2009 -0.0563
36912W        W79928   0.673   8.897  16.520  0.0370  0.1240 -0.1794
36913W        W79929  31.366  24.404  27.819  0.2571  0.2533 -0.2626
36914W        W79930  31.999   0.888   2.997 -0.2252 -0.0934 -0.1517
36915W        W79931   4.725  24.682  13.844  0.1394  0.1790  0.1841
36916W        W79932   3.046  13.666  17.672  0.1171  0.2088  0.0808
36917W        W79933  22.764   1.437  16.847  0.1366  0.0763  0.1217
36918W        W79934  31.374   7.095   0.394 -0.3383  0.0050  0.0757
36919W        W79935  33.091   1.212  17.112 -0.0169 -0.0506  0.2563
36920W        W79936  29.425  13.636  20.916 -0.0666 -0.0906 -0.1037
36921W        W79937  22.078   6.598  15.519  0.0615 -0.1072 -0.1014
36922W        W79938   0.087   9.885  18.772  0.0920 -0.1649  0.2526
36923W        W79939  25.979  10.904   3.932  0.0888  0.0043  0.1608
36924W        W79940   9.980  18.626  23.337  0.0289  0.2309  0.1050
36925W        W79941   6.249   6.570  22.834 -0.0231 -0.4377  0.0993
36926W        W79942  25.673   9.520  24.476  0.0283 -0.1222  0.0536
36927W        W79943  13.022   9.866  14.727  0.2793 -0.1379  0.0609
36928W        W79944   7.231  17.893   1.573  0.0785  0.0365  0.1223
36929W        W79945  27.071  20.147  14.743 -0.1964 -0.1282 -0.2466
36930W        W79946  17.845   7.696  22.299  0.2092 -0.0709  0.3563
36931W        W79947  30.175  20.484  16.249 -0.1084  0.2850  0.0186
36932W        W79948   1.374  25.111  17.622  0.3291  0.0142  0.0659
36933W        W79949   9.111   9.212  22.623  0.5129 -0.1099  0.0319
36934W        W79950   3.327  19.039  25.248 -0.0360 -0.0537  0.0839
36935W        W79951  29.935  19.339  14.456  0.0967  0.0809  0.0169
36936W        W79952  25.971  16.645  19.300 -0.1383 -0.2103 -0.2356
36937W        W79953  34.158  14.571  26.926  0.3688  0.0169  0.1573
36938W        W79954  22.381  27.790  25.620  0.2010 -0.1122 -0.0896
36939W        W79955  31.715  12.015  17.850 -0.2389  0.2034  0.0557
36940W        W79956   3.461  23.406  24.271  0.1112 -0.1872 -0.1960
36941W        W79957  34.620  22.321  21.346  0.0604  0.1043 -0.0594
36942W        W79958  34.728  27.959  24.067 -0.2971  0.2279  0.5065
36943W        W79959  27.959  32.755  21.052 -0.0270  0.0946 -0.1015
36944W        W79960  27.448  18.190  15.017 -0.2029  0.2229 -0.0272
36945W        W79961  28.528  23.996  21.653 -0.2945 -0.1318  0.0341
36946W        W79962  29.082  14.043  15.552 -0.0994 -0.2095 -0.1919
36947W        W79963  29.347  11.627  15.823  0.3614 -0.0951  0.0089
36948W        W79964  12.678  11.368  24.078 -0.3001  0.0668 -0.0001
36949W        W79965   8.349   9.632  19.512  0.0901 -0.1849  0.0128
36950W        W79966  30.515  22.740  15.526  0.3758  0.2572 -0.2464
36951W        W79967  33.153  28.943  21.692 -0.1765 -0.1412  0.1203
36952W        W79968  32.187  14.343  24.188 -0.2535 -0.0403  0.1710
36953W        W79969  20.833   1.736  23.872  0.3005 -0.1302 -0.1928
36954W        W79970  34.669  12.001   5.377 -0.1410 -0.1374  0.3304
36955W        W79971  31.348  12.268  24.538 -0.2627  0.0939  0.0301
36956W        W79972  33.363   9.772  21.902 -0.1806 -0.1704  0.0733
36957W        W79973   4.520  21.913  14.828 -0.0901 -0.1124  0.0027
36958W        W79974  30.835  11.347  17.755 -0.0294  0.0158 -0.0987
36959W        W79975   7.126  12.278  17.380 -0.1140 -0.2797 -0.2921
36960W        W79976  25.256  17.621  16.555 -0.1240 -0.1340 -0.3595
36961W        W79977  26.772  12.671  14.095 -0.1727 -0.1319  0.0315
36962W        W79978  15.473   6.775  19.434  0.3098 -0.0476  0.2772
36963W        W79979   4.416  29.551  16.521 -0.1081  0.3901  0.2911
36964W        W79980  18.298  26.009  28.413 -0.0765  0.0850  0.0070
36965W        W79981   8.833  11.982  14.346 -0.1078  0.0543 -0.3075
36966W        W79982  33.945  20.596  21.032 -0.4645  0.3279  0.1864
36967W        W79983   1.613  32.075  23.949 -0.0884 -0.0402  0.1264
36968W        W79984  31.658  23.300  19.368 -0.0624 -0.1720 -0.1778
36969W        W79985  34.691  24.081  19.870  0.0500 -0.2212 -0.2409
36970W        W79986  24.112  20.701  19.914 -0.1754  0.3658  0.1921
36971W        W79987  26.968  13.429  15.364 -0.0528 -0.0351 -0.4919
36972W        W79988   7.064  31.487  18.108 -0.2838 -0.4389 -0.1430
36973W        W79989  30.349  34.219  15.978 -0.3014 -0.0039 -0.0739
36974W        W79990   2.895   0.707  16.553 -0.0262  0.4410  0.2575
36975W        W79991  12.534  21.921  17.324  0.0767  0.1213  0.3087
36976W        W79992  26.346  16.897  18.881 -0.1489 -0.0060  0.1839
36977W        W79993  24.500  11.033  20.608 -0.1439  0.1902 -0.0411
36978W        W79994  34.748  24.034  23.587  0.1800  0.0362 -0.0840
36979W        W79995  31.937   9.544  28.897  0.2976 -0.0964  0.2273
36980W        W79996  28.786   1.863   3.642  0.0650 -0.1504 -0.1406
36981W        W79997  12.841  14.695  12.635 -0.2172 -0.1468  0.0222
36982W        W79998  29.862   2.731  23.507  0.0719  0.0305  0.1182
36983W        W79999  30.520   8.017  15.254  0.0048 -0.0142  0.0911
36984W        W80000  11.534  12.221  15.654 -0.3405 -0.0473 -0.3098
36985W        W80001  19.571   3.843  25.149 -0.3492  0.0912  0.0813
36986W        W80002   2.314  16.081  16.130 -0.2390 -0.1392 -0.2698
36987W        W80003  20.216  20.777  25.736  0.0667 -0.2313 -0.2774
36988W        W80004   7.458  23.904  18.246  0.1884  0.0553  0.0083
36989W        W80005  21.825  24.811  19.907 -0.4094 -0.2365 -0.2397
36990W        W80006  21.907  19.865   3.334  0.4151  0.1607  0.2590
36991W        W80007   5.061  21.549  15.598 -0.0279  0.4512  0.0457
36992W        W80008  24.385   6.986  16.609 -0.1594 -0.3048  0.0519
36993W        W80009   1.034  17.178  18.441  0.2274  0.2614  0.4196
36994W        W80010  29.705  13.947  16.526 -0.0959  0.0941  0.4826
36995W        W80011  29.489   3.347  17.622  0.0444  0.0552  0.0858
36996W        W80012  26.911  12.996   0.441 -0.3722  0.3570 -0.0386
36997W        W80013  26.805  22.019  16.482  0.1253  0.2400 -0.2396
36998W        W80014   5.134  32.630  21.609  0.3022  0.2219  0.2822
36999W        W80015  22.268  24.638  23.848 -0.0094 -0.0719 -0.0761
37000W        W80016  33.660  21.758  18.677  0.0270 -0.1088  0.2431
37001W        W80017  19.093  15.938  13.539  0.1149  0.0821  0.4187
37002W        W80018  22.842  14.539  20.375  0.0119 -0.0616  0.0003
37003W        W80019  28.089  21.370   0.132  0.2283 -0.0632  0.0114
37004W        W80020   2.203  22.434  24.075  0.2443  0.1998 -0.2840
37005W        W80021  31.118  25.845  22.205  0.1976  0.2061  0.1371
37006W        W80022  34.523  17.733  28.221 -0.0120  0.1343  0.1510
37007W        W80023   3.344  29.045  20.184  0.2115  0.0408  0.0154
37008W        W80024   3.711  21.447  17.612  0.1644 -0.1288 -0.0112
37009W        W80025  27.741   8.300  21.743  0.2263  0.1271 -0.3458
37010W        W80026  34.004  27.888  25.108  0.1626  0.2052 -0.0027
37011W        W80027  17.537  33.630  16.236  0.0254 -0.0028 -0.0787
37012W        W80028  31.768  14.014  15.922  0.1063 -0.1675 -0.2281
37013W        W80029  34.763  24.337  19.274  0.1488 -0.0102 -0.2114
37014W        W80030   3.113   5.292  17.790  0.0464  0.1235  0.0999
37015W        W80031  22.789   6.188  18.026 -0.3337 -0.1007  0.2008
37016W        W80032  25.950  17.319  20.426 -0.1225 -0.0279 -0.5624
37017W        W80033  34.370  13.905  28.940  0.0731  0.2371 -0.0001
37018W        W80034  15.450   6.461  25.507  0.0893  0.1987  0.0532
37019W        W80035  22.251  24.894  14.658  0.2044  0.0051 -0.0570
37020W        W80036  18.375  18.154  12.951  0.0941  0.1342 -0.1708
37021W        W80037  27.619  11.910  21.264 -0.0408 -0.1291  0.0232
37022W        W80038   2.156  12.698  23.815 -0.1092 -0.3740  0.0615
37023W        W80039  12.972   4.054  16.693  0.2390 -0.1425 -0.3557
37024W        W80040   4.202   7.277  14.394  0.1734 -0.1365  0.0661
37025W        W80041  33.958  29.553   0.043 -0.0349  0.2408 -0.5295
37026W        W80042  22.602   3.592  18.371  0.1239 -0.1124  0.2382
37027W        W80043  25.360   9.101  26.543 -0.0141 -0.2327  0.2522
37028W        W80044  31.417  11.603  15.360  0.0238  0.1074 -0.1464
37029W        W80045   0.620  21.998  19.323  0.2567 -0.2020  0.2874
37030W        W80046  12.163   9.081  18.645  0.0385 -0.1852  0.2713
37031W        W80047  31.383   0.218  21.356 -0.1645  0.1138  0.5592
37032W        W80048  28.413  16.961  17.446 -0.1174 -0.2402 -0.0110
37033W        W80049  10.446  26.345  25.428 -0.1427 -0.1365 -0.3109
37034W        W80050   0.256  24.654  18.843 -0.0494 -0.1169 -0.1277
37035W        W80051  24.479  22.942  15.936 -0.2204  0.2503  0.0737
37036W        W80052   4.825  27.501  22.652  0.0796 -0.3910 -0.0755
37037W        W80053  18.603  28.273  23.054  0.4677  0.1726  0.3049
37038W        W80054   3.409   8.043  19.554 -0.0966  0.1958  0.0138
37039W        W80055  26.740   8.669  21.147  0.0337  0.0620 -0.1032
37040W        W80056  23.416  26.042   0.814 -0.2516  0.3472 -0.1571
37041W        W80057  34.285  11.337  22.384 -0.0776 -0.2449 -0.2215
37042W        W80058  11.038  13.049  20.592 -0.0302  0.1534  0.1818
37043W        W80059  30.252  25.950  26.085 -0.3110  0.0623 -0.2660
37044W        W80060  27.367  25.687  28.224 -0.2937  0.0637  0.2967
37045W        W80061   1.760   3.367  19.205 -0.1556  0.1645  0.1283
37046W        W80062  25.157   6.393  21.232 -0.4006  0.3701  0.1388
37047W        W80063  30.725  14.635  28.562  0.0226  0.4482 -0.2978
37048W        W80064  16.864   6.381   0.960 -0.1969  0.1031  0.0529
37049W        W80065   8.005   9.489  17.736  0.0481  0.0400  0.3536
37050W        W80066  23.877  12.447  14.864 -0.1722 -0.0478 -0.3753
37051W        W80067   5.438   4.357   4.637 -0.0033 -0.0405  0.0795
37052W        W80068  17.379  16.650  11.832  0.1214 -0.2310  0.0659
37053W        W80069  26.810  17.354  15.177  0.2130  0.1120 -0.2617
37054W        W80070  27.594  30.080  27.312 -0.1021 -0.0829  0.1356
37055W        W80071  30.793  18.175  19.669  0.1329  0.1305  0.1144
37056W        W80072  29.253   2.735  23.425 -0.0176 -0.0990  0.0219
37057W        W80073   8.531   2.643  22.619  0.1009 -0.0872  0.0224
37058W        W80074   6.766   9.808  27.491 -0.1897  0.0809  0.5011
37059W        W80075  19.509  34.700  24.699  0.1504  0.0919  0.2165
37060W        W80076   4.719  34.033  19.951 -0.3900 -0.4968 -0.0074
37061W        W80077  29.419  17.462  26.980 -0.1434  0.0263  0.0479
37062W        W80078  30.909  20.032  18.877 -0.0213 -0.1697 -0.2251
37063W        W80079  32.035  19.824  27.097  0.2260  0.0965 -0.1291
37064W        W80080  33.743  23.100  21.691  0.1687 -0.0076  0.1827
37065W        W80081  23.485   0.192  18.073 -0.0619 -0.0156  0.1083
37066W        W80082  29.427  13.644  16.222  0.0136 -0.0356 -0.1948
37067W        W80083  28.091   1.016  20.696 -0.0674  0.0394 -0.3459
37068W        W80084   2.803  31.375   1.248  0.0216  0.0347 -0.0843
37069W        W80085  30.637   8.731  15.802 -0.2814 -0.3832 -0.2306
37070W        W80086  16.769  30.242  16.361 -0.0366 -0.0027 -0.1534
37071W        W80087  21.091  23.650  14.240  0.2220  0.1199  0.0506
37072W        W80088  29.543  20.414  15.758  0.1287  0.0734 -0.3888
37073W        W80089  34.316  30.476  18.919  0.0456 -0.1461 -0.3119
37074W        W80090  26.818  28.008  25.513  0.0056  0.2299 -0.0100
37075W        W80091  23.234  27.876  15.309  0.5056  0.0817  0.2534
37076W        W80092  19.447  15.228  15.373  0.0285 -0.2046 -0.3171
37077W        W80093   9.553  13.814  24.240 -0.1212 -0.1902 -0.1570
37078W        W80094   5.779  17.736  20.346 -0.0665  0.0888 -0.2438
37079W        W80095  24.184  16.802  16.922 -0.1341  0.1753 -0.1384
37080W        W80096  30.739  15.148  16.642 -0.0637 -0.0867 -0.0669
37081W        W80097  27.622  18.996  24.053 -0.0259 -0.0830  0.3187
37082W        W80098   5.936  26.957   4.465  0.0407 -0.1135 -0.0149
37083W        W80099   4.234  19.596  21.949 -0.2409  0.2349  0.1274
37084W        W80100  29.386   2.102  22.647 -0.0038 -0.3020 -0.0867
37085W        W80101  20.193  15.729  23.242 -0.1655 -0.2168  0.1186
37086W        W80102  32.942  20.757  22.734 -0.0993  0.1653 -0.2446
37087W        W80103  18.081   9.246  27.545 -0.1305 -0.0959 -0.1098
37088W        W80104  15.601  14.732  15.513  0.2060  0.2201  0.2531
37089W        W80105   0.218  30.436  15.765  0.2044 -0.2751  0.0387
37090W        W80106  29.553   9.670  23.346  0.2208  0.4257  0.1872
37091W        W80107   4.122  24.361  24.867 -0.2772 -0.0953 -0.3889
37092W        W80108   3.390  12.634  20.412  0.0498 -0.1561 -0.2066
37093W        W80109  26.299   9.445  16.919  0.1201 -0.2134  0.2319
37094W        W80110   8.340   0.974  19.808  0.1184 -0.1867 -0.0961
37095W        W80111  33.290  16.310  17.711  0.5145  0.1056 -0.0016
37096W        W80112  18.717  33.324  24.632 -0.0626 -0.4346  0.2519
37097W        W80113  25.372  20.631  22.936 -0.0379 -0.0001 -0.1021
37098W        W80114   0.786  16.569  17.139 -0.1109 -0.0857  0.2028
37099W        W80115  27.538   8.978  18.013  0.0097 -0.1788  0.1801
37100W        W80116  34.587  17.560  22.835 -0.1606  0.3777  0.1616
37101W        W80117   9.170  25.127  21.293 -0.0457 -0.2291  0.3052
37102W        W80118  27.072  15.411  20.745  0.0769  0.1764 -0.1254
37103W        W80119  29.834  12.901  25.166 -0.3367 -0.2354  0.0813
37104W        W80120  32.507   9.617   0.242  0.1211 -0.2104 -0.0705
37105W        W80121  34.110  25.685  23.094  0.0016 -0.1423  0.3013
37106W        W80122  22.122  22.630  14.721  0.2306  0.1543  0.3153
37107W        W80123  14.525  26.274  27.273 -0.0457  0.0386  0.1506
37108W        W80124  31.874  11.180  19.404  0.4203  0.1139 -0.2331
37109W        W80125   3.972   6.137  23.231 -0.0904  0.1242  0.0007
37110W        W80126  11.227  28.756   2.029  0.2009  0.0869 -0.0777
37111W        W80127  14.668  17.361  26.780 -0.0947  0.1494 -0.0373
37112W        W80128   9.181  26.527  22.424 -0.2678 -0.1042 -0.1226
37113W        W80129   0.239  32.716  18.125 -0.3448  0.1203 -0.2321
37114W        W80130   2.634   2.558  27.244  0.0872  0.2009 -0.1031
37115W        W80131  25.377  31.939  25.886  0.1167 -0.0216 -0.1897
37116W        W80132  16.800   8.189  25.230  0.0165  0.1320  0.0366
37117W        W80133   6.264  19.621  24.565 -0.1284 -0.2801 -0.1285
37118W        W80134   7.718  11.719   0.386  0.1584  0.3586 -0.0514
37119W        W80135   7.716  20.875  25.734 -0.2053 -0.0024 -0.0325
37120W        W80136   2.872  15.576   0.528  0.1192 -0.0610  0.1673
37121W        W80137   5.795  33.596  24.789 -0.2697  0.3831 -0.1324
37122W        W80138  28.716  25.804  23.271  0.0168 -0.0067  0.1628
37123W        W80139  28.313  22.559  27.869 -0.0418 -0.0183  0.0305
37124W        W80140  26.175  33.321  26.370  0.2104 -0.0282 -0.0982
37125W        W80141  21.905  11.427  17.200 -0.0426  0.2064 -0.0297
37126W        W80142  32.003   0.961  24.244 -0.0368  0.1762  0.2122
37127W        W80143  26.210   8.241  15.187 -0.0557  0.0835 -0.0650
37128W        W80144  28.555  19.722  28.701 -0.2170 -0.1983 -0.0444
37129W        W80145  27.994  21.409  15.636 -0.3581  0.3006  0.0470
37130W        W80146  28.606  17.093  16.626  0.0228  0.0555 -0.0255
37131W        W80147   9.371   9.926  16.080  0.0236 -0.2850  0.0479
37132W        W80148  23.187  26.280  20.629  0.1132 -0.1500 -0.1759
37133W        W80149   6.553  30.630   6.913 -0.0348 -0.1708 -0.1399
37134W        W80150   1.337  24.785   0.979 -0.0754 -0.0120  0.2129
37135W        W80151  29.478  14.419  15.157  0.2037  0.1263  0.1907
37136W        W80152   4.322   8.662  23.080 -0.0190  0.1147 -0.1944
37137W        W80153  32.000  23.169  26.528 -0.0501  0.0429 -0.2136
37138W        W80154   2.119  11.421  17.843 -0.0090  0.0991 -0.0125
37139W        W80155  24.909  31.367  15.094 -0.0140  0.1989 -0.1018
37140W        W80156   4.348  30.903  19.158  0.1728  0.1187 -0.2595
37141W        W80157  21.067  22.268  26.119  0.1025 -0.1331  0.0554
37142W        W80158  34.628   7.560  24.646  0.1284  0.2004  0.1353
37143W        W80159   1.719   2.452  20.823  0.0666  0.2252 -0.1133
37144W        W80160  26.997  21.603  24.385 -0.3224  0.2287  0.1230
37145W        W80161   5.336  23.840  17.144 -0.1170  0.1193 -0.0835
37146W        W80162  15.187  28.700  15.634  0.0010  0.0100  0.2166
37147W        W80163  29.342  27.682  15.885 -0.0825 -0.1388 -0.5795
37148W        W80164  32.057   1.370  15.534  0.2336 -0.2219 -0.0857
37149W        W80165  32.189  23.443  21.440 -0.0393 -0.2048  0.4913
37150W        W80166  24.716  32.311  15.449 -0.2518 -0.2268 -0.2134
37151W        W80167  33.859  30.259  18.241 -0.0469  0.0528 -0.2692
37152W        W80168  13.228  30.547   1.223  0.1761  0.2874 -0.1206
37153W        W80169  26.148  16.987  19.704  0.0716  0.0399  0.0175
37154W        W80170  27.932  25.255  16.332 -0.1611 -0.3171 -0.1846
37155W        W80171  30.728  12.398  29.292  0.0576  0.1884 -0.3221
37156W        W80172   2.098  32.714  20.412 -0.0294  0.1353  0.0349
37157W        W80173   4.741  21.422  25.516  0.1867 -0.0851 -0.5865
37158W        W80174  30.608  15.965  23.658  0.0869  0.1485 -0.0120
37159W        W80175  29.812  30.044  21.795  0.1375 -0.0532  0.0008
37160W        W80176  26.186  21.038  25.619  0.1747  0.0397 -0.0067
37161W        W80177  28.849  22.794  21.362  0.2352 -0.0680  0.1148
37162W        W80178  25.952  27.236   7.185 -0.1924 -0.1004  0.1214
37163W        W80179  25.770  26.527  26.192 -0.1861  0.0604 -0.1642
37164W        W80180  19.867  23.786  27.244  0.1570 -0.0959 -0.2049
37165W        W80181  32.486  20.508  15.291  0.1224  0.1151 -0.0090
37166W        W80182  33.844  21.027  26.810  0.3196 -0.2276  0.1796
37167W        W80183  30.464  21.785  21.524  0.0198 -0.3025 -0.0266
37168W        W80184  17.835   9.303  22.613 -0.2249 -0.1491  0.3539
37169W        W80185   3.385  32.419  16.260 -0.3392  0.5212  0.2691
37170W        W80186  26.861  26.138  23.588  0.0993 -0.3870  0.2481
37171W        W80187   9.162  12.727  21.736  0.0098  0.4138  0.3223
37172W        W80188   9.377  10.968  20.315  0.4065 -0.0579 -0.0342
37173W        W80189  25.493  27.187   6.333  0.0405  0.1393  0.1147
37174W        W80190   4.216   8.086  22.384 -0.2218  0.0164  0.2380
37175W        W80191   0.195  12.654   7.045 -0.0176  0.2122 -0.1398
37176W        W80192  20.085  26.156  20.543 -0.1185 -0.1013 -0.0567
37177W        W80193  11.634  17.364  16.686 -0.0818  0.0356  0.2648
37178W        W80194   9.296  10.773   5.737 -0.0527 -0.0942  0.0125
37179W        W80195  33.794  24.628  16.565  0.1718  0.2464 -0.1148
37180W        W80196  23.675  10.253  17.582  0.0268  0.2575  0.0716
37181W        W80197  29.970  31.713  19.339 -0.1137  0.2736  0.1599
37182W        W80198   0.127  15.179  22.915 -0.0119 -0.0941  0.0715
37183W        W80199  22.831  13.752  21.944  0.1743 -0.0829 -0.2461
37184W        W80200  10.249  32.347  20.250  0.0861  0.2303 -0.1825
37185W        W80201  32.150  31.910   4.532 -0.2074  0.0973 -0.3473
37186W        W80202  32.239  17.877  25.994  0.0565 -0.0172  0.2244
37187W        W80203  30.694  25.631  22.077 -0.1451 -0.6069  0.3381
37188W        W80204  11.437  13.354  22.974 -0.1245 -0.0774 -0.0106
37189W        W80205   2.373   3.901  24.805 -0.2053 -0.2210  0.0655
37190W        W80206  18.997  25.035  18.078 -0.2243  0.1670 -0.0094
37191W        W80207  29.358  25.889  10.657 -0.0315 -0.1013 -0.3150
37192W        W80208  19.422   8.001  20.041 -0.0340  0.0873 -0.2670
37193W        W80209   2.550  27.303  26.410 -0.0334  0.2304 -0.4559
37194W        W80210  11.892  32.076  28.375  0.0981  0.2009 -0.1781
37195W        W80211  12.381  25.107  24.742 -0.2447 -0.6578  0.1509
37196W        W80212   1.477  15.614  22.472 -0.0973 -0.1239  0.0773
37197W        W80213  33.361  24.318  15.506 -0.2262  0.1609  0.0939
37198W        W80214  30.856   3.615  18.482 -0.0107 -0.1035  0.4646
37199W        W80215   5.822  34.475  16.314 -0.0709  0.0104 -0.2363
37200W        W80216  20.497  31.511  22.027  0.1611 -0.0141 -0.2032
37201W        W80217  15.525  22.869  23.425 -0.1702  0.2805  0.2970
37202W        W80218   2.489  12.492  17.362 -0.0035 -0.0976 -0.0543
37203W        W80219   1.722   9.714  20.160  0.3993 -0.1024  0.1433
37204W        W80220   3.164  28.992  22.296 -0.3336  0.3843 -0.1354
37205W        W80221  20.846  14.268  14.629  0.3707  0.0538 -0.3349
37206W        W80222  24.275  12.871  19.397 -0.2418  0.1104 -0.3194
37207W        W80223   7.269  13.686  16.868 -0.2068  0.0466 -0.1140
37208W        W80224  31.911  14.225  18.471 -0.2399  0.0939  0.0453
37209W        W80225   1.732  14.345  21.002 -0.2897 -0.0543 -0.2172
37210W        W80226  33.820   1.162  26.647 -0.0905 -0.1064 -0.0356
37211W        W80227  28.135  22.369  22.811 -0.0767  0.1284 -0.0149
37212W        W80228  34.468  17.523  26.825  0.0134 -0.0940 -0.0630
37213W        W80229  31.399  18.791  16.067  0.0622 -0.0143 -0.0611
37214W        W80230  17.065  25.739   4.389 -0.0117 -0.1804 -0.1855
37215W        W80231  15.601  21.075  21.786  0.1054  0.1249  0.0895
37216W        W80232  23.744   9.366  23.647 -0.3372 -0.1632  0.1387
37217W        W80233   0.722   9.125  27.634  0.2723  0.0861  0.2764
37218W        W80234  14.144   1.327  20.557  0.1138  0.2177 -0.2067
37219W        W80235   5.946  25.723  15.279 -0.2674 -0.2059  0.1796
37220W        W80236  13.285  24.295  13.654 -0.1994 -0.1019  0.0325
37221W        W80237   0.472  16.744  19.474  0.0672  0.0943  0.0864
37222W        W80238  33.638  17.474   3.332  0.0807 -0.2191  0.2547
37223W        W80239  33.650  11.788  27.258  0.0645  0.0277 -0.1324
37224W        W80240   3.932  17.058  17.450 -0.0277  0.0225 -0.0850
37225W        W80241  24.292  14.508  24.416 -0.2920  0.2480 -0.1981
37226W        W80242   3.113  21.399  25.903  0.3428 -0.0757  0.0151
37227W        W80243  27.887  17.443  20.144 -0.1981 -0.1963 -0.0557
37228W        W80244  17.854   6.130  26.742 -0.2436  0.1738 -0.0539
37229W        W80245  28.352   2.115   1.456  0.0082  0.3956  0.2176
37230W        W80246  11.560   8.870  28.865  0.1565  0.1968  0.1123
37231W        W80247  16.218   9.364   3.985 -0.2642 -0.0977 -0.3239
37232W        W80248   3.733  21.282  24.729  0.0071  0.1820  0.0404
37233W        W80249  28.357  23.362  24.027  0.1639  0.1703 -0.0641
37234W        W80250  22.818  26.314  14.961  0.2030 -0.0549  0.0051
37235W        W80251   4.897  23.106  14.425 -0.0909 -0.0240 -0.0522
37236W        W80252  22.759   6.609  24.444  0.4522 -0.1874 -0.1494
37237W        W80253   7.308  21.259  13.900 -0.2640  0.0093  0.0133
37238W        W80254   4.404  16.082  18.799  0.0279  0.0436  0.0681
37239W        W80255   4.261  15.941   0.844 -0.1224  0.1716  0.2354
37240W        W80256  30.180   3.940  26.829 -0.0486 -0.0370 -0.0126
37241W        W80257   4.947  28.369  16.798  0.0599  0.1155  0.1760
37242W        W80258  27.562  21.455  23.061 -0.0215 -0.0336 -0.1965
37243W        W80259  33.132  10.137  19.882 -0.0244  0.1841  0.0825
37244W        W80260   9.729  16.914  16.994 -0.1671 -0.3616  0.0047
37245W        W80261   7.791   9.915  17.379  0.0806 -0.1182 -0.3242
37246W        W80262  16.669   2.487  21.650 -0.1418  0.0699  0.1655
37247W        W80263  34.440  20.250  17.691  0.2250 -0.2587 -0.1702
37248W        W80264   4.650   4.287  16.642 -0.2823  0.4123  0.3408
37249W        W80265   6.614  10.383  28.999  0.0670 -0.0667  0.0829
37250W        W80266  32.364   8.201  27.701  0.0464  0.0791 -0.1226
37251W        W80267  31.363  15.534  26.360  0.1444 -0.2191  0.1152
37252W        W80268   6.739  29.719  22.785 -0.4396 -0.3282 -0.1129
37253W        W80269  21.240   8.542  16.015 -0.1854 -0.3116 -0.5980
37254W        W80270   8.120  18.569  21.749 -0.1234 -0.1639 -0.1308
37255W        W80271  14.493  21.972  15.360 -0.0310 -0.0133 -0.1060
37256W        W80272  11.021   6.638  17.415  0.0782  0.1282  0.3149
37257W        W80273  20.884  29.498  22.914 -0.0681  0.1005 -0.0232
37258W        W80274   2.370   7.782  19.450  0.0858  0.0544  0.0229
37259W        W80275   3.718  22.680  14.124  0.2676  0.0492  0.0701
37260W        W80276  10.185  14.144  13.269  0.0336 -0.0440 -0.0691
37261W        W80277  27.292  10.639  20.054 -0.0417 -0.1446  0.0343
37262W        W80278  31.066   9.712  17.458 -0.0356  0.0992  0.1225
37263W        W80279   6.496   8.138  25.098 -0.2285 -0.2216 -0.1769
37264W        W80280  20.351   1.723  26.382 -0.0149  0.0691  0.1193
37265W        W80281  16.902  29.539   1.406 -0.2647 -0.3393 -0.0560
37266W        W80282  31.702   5.907  20.430  0.0874 -0.3647  0.0152
37267W        W80283  30.610  26.054  19.504 -0.1495 -0.2603  0.2717
37268W        W80284  30.007  14.627  16.939 -0.1124 -0.2036  0.1751
37269W        W80285  17.232  10.340  17.626 -0.0142  0.0182  0.0630
37270W        W80286  29.172  20.461  19.765  0.2231  0.3863  0.1544
37271W        W80287   8.335  10.053  26.756  0.2139  0.1543 -0.1666
37272W        W80288   3.484  23.871  24.472 -0.0854 -0.1561 -0.2552
37273W        W80289  28.514   4.570   0.707 -0.2975 -0.0082 -0.0586
37274W        W80290   5.706  24.601  17.084 -0.0431 -0.2306  0.1726
37275W        W80291  29.293  13.430   2.619 -0.2770  0.2806  0.0218
37276W        W80292  33.050  21.637  21.597 -0.2880 -0.0831 -0.3032
37277W        W80293  31.317   7.259  22.796 -0.0214 -0.2354  0.1991
37278W        W80294   2.601  19.938  20.920  0.2968 -0.4449 -0.1004
37279W        W80295  15.781  32.118  20.296  0.0357  0.0669 -0.2718
37280W        W80296  30.119  13.985  23.405 -0.0596 -0.0966 -0.1302
37281W        W80297  14.217  14.080   6.011  0.0536 -0.2360  0.1656
37282W        W80298  12.480  26.343  22.120  0.1531 -0.4917 -0.1469
37283W        W80299   4.785  20.296   0.598  0.1539 -0.1123  0.0208
37284W        W80300  20.001  22.082  20.070  0.0747  0.0607  0.0594
37285W        W80301  33.545  13.440  20.492 -0.1533  0.0681 -0.1462
37286W        W80302  18.446  20.296  26.787 -0.1183 -0.1153 -0.0196
37287W        W80303   4.181  22.401  17.521  0.1045  0.1709  0.2758
37288W        W80304  11.044  24.498  20.246 -0.2318 -0.4188  0.1481
37289W        W80305  33.038  15.757  23.946  0.0099  0.1709 -0.2399
37290W        W80306  24.664  28.533  26.786 -0.1320  0.2545  0.2793
37291W        W80307  17.371  25.499  19.595 -0.0470 -0.1614 -0.0684
37292W        W80308   4.533  12.214  25.339  0.0599  0.2307  0.0911
37293W        W80309  34.655  13.645  26.473 -0.0464  0.1289  0.1639
37294W        W80310   8.613   6.190  18.628  0.1668 -0.1810 -0.0430
37295W        W80311   2.601  15.396   1.532  0.1715  0.0231  0.1121
37296W        W80312  23.281  30.652  16.062 -0.5455  0.0931 -0.4191
37297W        W80313  23.851   3.614  15.303 -0.0204  0.0319  0.1260
37298W        W80314  32.017  21.664  27.091  0.0300 -0.1350  0.0730
37299W        W80315  21.963  19.828  17.075 -0.1141 -0.2240  0.2424
37300W        W80316   3.140   9.297  26.416 -0.2891  0.2149 -0.0527
37301W        W80317  18.406  29.135  24.820 -0.1052 -0.0416 -0.1868
37302W        W80318   6.330   8.597  15.557  0.1283  0.0233 -0.0484
37303W        W80319  25.868  15.019  24.577  0.0233 -0.1400  0.0423
37304W        W80320  34.179  14.476  14.980  0.3720 -0.0609 -0.1357
37305W        W80321  31.321  25.116  20.605  0.2028  0.0077 -0.0507
37306W        W80322   0.841  16.019  19.099  0.0931  0.2757 -0.0291
37307W        W80323  28.813   5.959  21.178 -0.3556  0.0503  0.2063
37308W        W80324  19.087  18.264  25.350  0.0163  0.0393 -0.0033
37309W        W80325  16.218  16.838  15.667  0.2019  0.0553 -0.0331
37310W        W80326   2.958  16.152  20.996  0.0401  0.0028  0.0958
37311W        W80327  19.524  12.381  14.873 -0.0854  0.0852  0.0824
37312W        W80328  20.254   9.241  23.989 -0.1087 -0.1545 -0.0677
37313W        W80329  26.360  10.340  18.390  0.1490  0.1387 -0.2710
37314W        W80330  31.811  21.716  19.386  0.1937  0.0166 -0.0417
37315W        W80331  31.465  20.314  22.031  0.3576 -0.1680 -0.0737
37316W        W80332  33.260  24.677  15.889 -0.2437  0.2767 -0.0911
37317W        W80333   4.433  14.390   4.826 -0.1136 -0.1175 -0.0475
37318W        W80334  34.280  31.978  22.650  0.1384 -0.0604 -0.0903
37319W        W80335  18.365  23.974  19.423 -0.1373  0.3344 -0.3084
37320W        W80336  31.463  13.225  15.768  0.1537 -0.0791  0.4676
37321W        W80337  24.156  14.009  24.112  0.0057 -0.0466 -0.0844
37322W        W80338  22.149  22.209  22.129 -0.0513  0.2297  0.0636
37323W        W80339  20.605  20.533   1.567  0.0490  0.0349 -0.1366
37324W        W80340   4.503  18.214  21.254  0.0771  0.0411  0.0779
37325W        W80341  31.841  10.135   1.969 -0.1422  0.1143 -0.0076
37326W        W80342  26.017   1.236  23.017  0.3003 -0.0986 -0.0186
37327W        W80343  28.513   4.999   5.879  0.2190  0.0086 -0.0321
37328W        W80344  23.767  10.711  20.248  0.1442  0.4199  0.2973
37329W        W80345  28.793  18.032   1.169 -0.1689 -0.1460  0.3499
37330W        W80346  21.736  29.861  22.447  0.0582  0.0568 -0.0647
37331W        W80347   3.029  26.740  19.958 -0.1979  0.3907 -0.2666
37332W        W80348  29.075   8.898   3.179  0.1300  0.4631 -0.0350
37333W        W80349  30.428   0.935  14.977 -0.0678  0.2761 -0.1279
37334W        W80350  32.676  34.068   2.154  0.2697  0.1437 -0.2917
37335W        W80351   6.327  34.064  17.025  0.1576  0.1227 -0.0231
37336W        W80352  28.133  20.166   8.065  0.1779  0.2656  0.1079
37337W        W80353  27.138   9.473  17.908  0.0184 -0.0657  0.1582
37338W        W80354  27.286   8.848  27.654  0.1839  0.0922 -0.1106
37339W        W80355  18.835  31.785   7.304  0.4580 -0.0336 -0.0075
37340W        W80356   7.455  19.772  19.932  0.1204  0.1211  0.1902
37341W        W80357  25.994  32.006   6.104  0.1096 -0.1122  0.0900
37342W        W80358  19.440   8.987  16.854  0.0580  0.1347  0.0546
37343W        W80359   2.786  19.347   2.955 -0.0706 -0.1784 -0.0986
37344W        W80360  24.994  23.165  23.459 -0.0978 -0.1697  0.0035
37345W        W80361  21.571  16.582  22.397 -0.0404 -0.0652 -0.1114
37346W        W80362  23.185  27.861   1.791  0.0328 -0.0254  0.1226
37347W        W80363   3.786  22.795  20.183 -0.0258  0.1832  0.0557
37348W        W80364  15.006   9.547  16.804 -0.2607  0.2143 -0.0770
37349W        W80365   5.994  18.911  23.267 -0.2096 -0.0835 -0.0922
37350W        W80366  24.434  34.381  18.084  0.1304  0.0656  0.0914
37351W        W80367  30.778  21.043  25.702 -0.0617 -0.0508  0.3097
37352W        W80368   0.457  12.122  25.113 -0.1610 -0.0092  0.3974
37353W        W80369  22.638  15.660  16.095 -0.0291  0.1963 -0.1865
37354W        W80370  23.818  32.428  17.407 -0.0588  0.0808 -0.0825
37355W        W80371   6.055   9.742  26.574 -0.0277 -0.0698  0.0680
37356W        W80372  28.583  23.054  28.132  0.1186 -0.1749  0.1782
37357W        W80373   0.173  21.117  19.564  0.0046 -0.0816  0.0441
37358W        W80374  19.751  31.259  16.293  0.0577 -0.0771 -0.0735
37359W        W80375  33.331   7.286  17.704 -0.0191 -0.0354 -0.1186
37360W        W80376   3.398  26.904  27.789 -0.0675 -0.0544  0.0321
37361W        W80377   5.816  31.779  18.375  0.3833  0.3335 -0.2631
37362W        W80378   5.087   8.520  24.687  0.1749  0.0158  0.1350
37363W        W80379   1.672  21.053  14.579  0.0262  0.1932  0.1066
37364W        W80380  22.843  11.347   1.562  0.2275 -0.2696 -0.0249
37365W        W80381  28.429  10.986   9.443 -0.1578 -0.1732  0.2496
37366W        W80382   5.574  27.813   3.097 -0.1372 -0.3273 -0.3113
37367W        W80383   2.656  33.344  27.462 -0.4603 -0.3065 -0.2741
37368W        W80384  32.441   7.796  26.851  0.0267  0.0648 -0.0531
37369W        W80385  23.417  20.245  22.073  0.3216  0.1512  0.2474
37370W        W80386  16.164  16.376  13.371 -0.0480 -0.0753  0.1090
37371W        W80387  23.991  11.424  22.849 -0.2902 -0.0013  0.1415
37372W        W80388  21.920  20.120  23.045 -0.0296 -0.1930  0.2848
37373W        W80389  32.546  26.207   3.799 -0.1999  0.0907 -0.0892
37374W        W80390  19.115  26.806  15.287  0.0487 -0.0268  0.1005
37375W        W80391  27.024  21.336  15.480  0.1139  0.3286  0.1953
37376W        W80392  14.268   4.805  15.214 -0.1128  0.0750  0.0964
37377W        W80393  25.343  14.846   4.329 -0.0907 -0.1588  0.1081
37378W        W80394  18.153  13.549  20.507 -0.0021  0.1045 -0.1996
37379W        W80395   2.636  14.470  17.499 -0.2262  0.2662 -0.3102
37380W        W80396   3.283  19.108  24.333 -0.0421  0.0042 -0.2367
37381W        W80397   1.820   0.316   3.832  0.3196 -0.0973 -0.0719
37382W        W80398  25.361  11.448   9.449  0.0421  0.2141  0.0664
37383W        W80399  10.009  30.584  27.982 -0.1997  0.0709 -0.0683
37384W        W80400  26.569  13.329  23.472 -0.0239 -0.1809  0.0779
37385W        W80401  30.277  11.276  20.818 -0.0432 -0.1426 -0.1122
37386W        W80402   3.176   7.648   2.051 -0.4613  0.1259  0.0123
37387W        W80403   0.780  21.258  20.142 -0.0641  0.1294  0.4010
37388W        W80404  12.857  32.848  25.819  0.1689  0.1755  0.0430
37389W        W80405  16.155  21.317  13.122 -0.2962  0.1611  0.2601
37390W        W80406  21.326  31.454  16.732  0.2673 -0.1722  0.1660
37391W        W80407   4.149  26.840  20.227  0.1482  0.1288 -0.0308
37392W        W80408   0.619  22.796  19.805  0.1834 -0.0104 -0.2111
37393W        W80409  21.208  19.866  24.581 -0.0560  0.1035 -0.1768
37394W        W80410   4.538  29.222   1.052 -0.1673  0.1480  0.2137
37395W        W80411  26.869  28.348  16.694 -0.3196 -0.0560  0.0641
37396W        W80412  30.499  22.563   3.828  0.0573 -0.0577 -0.1538
37397W        W80413   3.107  13.676  18.483  0.0465 -0.1047  0.1265
37398W        W80414  27.497  24.201  22.740  0.0727  0.0387 -0.1141
37399W        W80415   3.876  25.311  17.503  0.0035  0.1360  0.1140
37400W        W80416   5.347  15.987  19.444  0.2090 -0.1094 -0.4113
37401W        W80417  21.717  22.618  17.029  0.1792  0.1919 -0.0880
37402W        W80418  25.335  13.893  19.655  0.0961  0.0717 -0.0061
37403W        W80419  25.871  17.472  16.082  0.1795 -0.1339  0.0640
37404W        W80420  13.956  24.535  21.940 -0.3465 -0.2454  0.2145
37405W        W80421  22.713   9.854   8.542 -0.0756 -0.3226 -0.0946
37406W        W80422   0.790  20.418   2.437  0.1995  0.1143 -0.0446
37407W        W80423   6.841  23.594  27.525  0.1213 -0.1622  0.2815
37408W        W80424  11.534  21.710  20.404 -0.0098 -0.3687 -0.0802
37409W        W80425   1.228  28.497  19.115  0.0787  0.1650  0.0527
37410W        W80426  20.637  12.343  26.011 -0.0670  0.0802  0.0584
37411W        W80427   2.423   9.602  25.454  0.0753  0.0308 -0.2602
37412W        W80428  23.373  22.860  18.555 -0.1493  0.0933 -0.0104
37413W        W80429   2.929  21.808  25.063 -0.1855  0.0363  0.0122
37414W        W80430   1.135  12.616   2.345 -0.2399  0.2411 -0.0391
37415W        W80431  24.724  15.305  18.967 -0.1955  0.1384 -0.2056
37416W        W80432   3.244  26.754  21.223 -0.1913  0.3051  0.0283
37417W        W80433  30.032  21.807   9.560  0.0364 -0.2303 -0.2124
37418W        W80434  15.724  25.420  19.890 -0.0824  0.0217 -0.0348
37419W        W80435   3.814  26.941  28.970  0.2328  0.0841 -0.1474
37420W        W80436  34.666  11.768  16.985  0.0353  0.1117 -0.0057
37421W        W80437  26.506  33.504  24.533 -0.0809  0.0017  0.0758
37422W        W80438  32.770  19.873  20.888  0.0773  0.0962 -0.0910
37423W        W80439  13.917  19.806   1.440  0.2827 -0.1994 -0.2799
37424W        W80440  25.959   8.786  21.490 -0.1210  0.0718 -0.0723
37425W        W80441  29.990   1.821  17.264 -0.0064 -0.5290  0.1470
37426W        W80442  28.297  25.035  26.543 -0.1564  0.3045 -0.1031
37427W        W80443  33.652  27.333  15.311 -0.1007 -0.0358  0.1764
37428W        W80444  19.422  31.682  16.225  0.1959  0.1364  0.0474
37429W        W80445  34.623  10.545  24.484  0.2009  0.0649  0.2057
37430W        W80446  15.939  12.983  20.736  0.0406 -0.0680  0.1081
37431W        W80447   0.088  20.092  20.887  0.0007  0.1156  0.0015
37432W        W80448  31.459  23.118  21.058 -0.3237  0.0975 -0.1280
37433W        W80449   3.911  14.000  17.969 -0.3460 -0.0359  0.2563
37434W        W80450  34.606  32.914   9.575 -0.3728  0.0521 -0.0511
37435W        W80451  14.538  27.783  26.319 -0.1450 -0.2178  0.1386
37436W        W80452  28.201  18.137  23.583 -0.1899 -0.1668 -0.0303
37437W        W80453   3.096   7.604  16.393 -0.1683 -0.0688  0.0139
37438W        W80454  31.774   6.146   2.968 -0.2829 -0.0975 -0.1150
37439W        W80455  15.574  34.366  17.020  0.3204  0.1021 -0.1174
37440W        W80456   1.465  32.244  22.126  0.0911  0.4775 -0.2792
37441W        W80457  16.073  26.534  19.386  0.0318 -0.0097 -0.1278
37442W        W80458   6.584  22.490  26.593 -0.0804 -0.3227  0.2858
37443W        W80459   5.222  10.921  15.704 -0.0868 -0.0103  0.0196
37444W        W80460  24.412  11.115  25.299  0.2895 -0.1663  0.0884
37445W        W80461   6.424  26.636   2.634 -0.0306  0.1631 -0.0906
37446W        W80462  30.562  31.906  21.743  0.0204 -0.0870  0.2669
37447W        W80463  20.159   3.763  27.779  0.1095 -0.1847 -0.1502
37448W        W80464  22.002  23.768  27.579  0.0311  0.0105 -0.3253
37449W        W80465  25.170   9.379  10.218 -0.3698 -0.0354  0.0593
37450W        W80466  25.956   9.915  22.568  0.0350 -0.0464 -0.0213
37451W        W80467  12.191  16.995   2.137  0.0930  0.0171 -0.1756
37452W        W80468  25.816  16.129  25.510 -0.2479  0.2668 -0.0496
37453W        W80469  26.673  18.562  28.786  0.1775  0.0580 -0.0341
37454W        W80470  25.636   9.147  21.761 -0.1285  0.0413  0.0752
37455W        W80471  34.226  23.169  18.644 -0.1898 -0.5960  0.0848
37456W        W80472  29.283   4.980  28.627 -0.2672  0.2044  0.0171
37457W        W80473   0.208  13.004  25.719  0.1726 -0.1564  0.0719
37458W        W80474  34.008  22.901  18.178  0.0609 -0.1529 -0.2187
37459W        W80475   8.599   9.836  17.409 -0.0914 -0.2161  0.0809
37460W        W80476  32.582  14.004   2.324 -0.2791  0.1630 -0.4439
37461W        W80477  29.312   5.987  19.357  0.0740 -0.1579 -0.1006
37462W        W80478   5.384  23.464  25.298 -0.4258  0.2810  0.0106
37463W        W80479  24.370   0.448  19.854 -0.0810  0.2764 -0.3103
37464W        W80480  19.917  10.672  25.748 -0.0037 -0.1346  0.2568
37465W        W80481   1.642   9.278   4.320  0.1662 -0.1383 -0.0192
37466W        W80482   4.078  19.343  27.663  0.0519  0.4190 -0.1214
37467W        W80483  17.846   6.953  17.931  0.1991  0.0565 -0.1382
37468W        W80484   4.630  20.930  15.464  0.2023  0.3541 -0.1413
37469W        W80485   3.471  20.728  17.001 -0.1120 -0.3570  0.0561
37470W        W80486  19.044  27.346  25.147  0.0975 -0.2564  0.1229
37471W        W80487  23.300  21.350  25.376  0.0523 -0.0393  0.0900
37472W        W80488  31.984   7.275  27.516 -0.0066 -0.0733  0.0671
37473W        W80489   3.781   7.642  18.161  0.0546 -0.1309  0.3332
37474W        W80490  18.343  13.865  11.877 -0.7868  0.0195 -0.0950
37475W        W80491   9.601  18.770  15.801  0.1656  0.2397 -0.1931
37476W        W80492   4.436  10.982  29.020  0.2419  0.3898 -0.1393
37477W        W80493  16.690  22.069  21.649 -0.1642  0.1329 -0.1047
37478W        W80494  19.280   6.107  19.004  0.2454  0.1815  0.0587
37479W        W80495  31.772  12.930  19.044  0.3962  0.0474 -0.0919
37480W        W80496   0.977  27.189   0.842  0.0005 -0.0921 -0.1685
37481W        W80497   0.161  24.375   4.100 -0.6423  0.1783  0.4021
37482W        W80498  32.723  13.962  18.872 -0.0642  0.0447  0.4159
37483W        W80499  26.490   4.371  16.291 -0.0372 -0.1389 -0.3104
37484W        W80500  34.024  25.468  19.993 -0.3012 -0.0438  0.0258
37485W        W80501  25.491  19.008  16.052  0.0500 -0.0184  0.0065
37486W        W80502  34.570  11.951  19.208  0.1879 -0.2422 -0.0611
37487W        W80503   3.242  32.503   0.122  0.0564 -0.0612 -0.0886
37488W        W80504  21.537  29.472  23.337 -0.1188  0.4239  0.2939
37489W        W80505  30.346  17.568  18.062 -0.0658 -0.1258  0.0654
37490W        W80506  16.396  23.807  26.851  0.0703  0.0676 -0.3576
37491W        W80507  26.142  32.845   4.254 -0.0158  0.1299  0.0618
37492W        W80508  31.863  14.541   0.316 -0.3001 -0.2591 -0.0976
37493W        W80509  26.647  15.642  27.117  0.0079 -0.2487 -0.0600
37494W        W80510  29.264  14.126  24.628  0.2004  0.1411  0.1907
37495W        W80511  32.954  18.369  21.717 -0.0822 -0.1716  0.0883
37496W        W80512   9.113  16.465  15.372  0.0722  0.0201  0.0009
37497W        W80513  28.396  32.916  24.904 -0.0287  0.0632  0.0437
37498W        W80514  17.820  25.012  15.618  0.1382 -0.0994 -0.2041
37499W        W80515   0.817   0.370  19.580  0.3766 -0.0291  0.0172
37500W        W80516   3.722  15.046  23.645  0.0432  0.1022 -0.1884
37501W        W80517   6.787  10.382  17.947 -0.0750 -0.2976  0.1865
37502W        W80518  24.815   3.469  23.978  0.4116 -0.1551 -0.2619
37503W        W80519  22.175  18.825  26.036 -0.0097 -0.2983  0.2732
37504W        W80520  34.131  34.374   7.967  0.1038 -0.0491  0.3028
37505W        W80521  29.237  15.295  14.445 -0.0540 -0.0307  0.1637
37506W        W80522  34.555  21.846  21.236 -0.0967 -0.3093  0.1518
37507W        W80523  16.701   0.326  27.096 -0.0582 -0.2004 -0.0745
37508W        W80524   4.381   6.746  16.130 -0.2010 -0.1036 -0.2433
37509W        W80525  34.585  10.459  16.025 -0.2184 -0.0491  0.1314
37510W        W80526  24.536  14.862  23.676 -0.2811 -0.4195  0.0995
37511W        W80527  14.421   7.841  13.446 -0.1934  0.4086  0.1753
37512W        W80528  15.811   2.449  16.856 -0.3079 -0.0622  0.1942
37513W        W80529  24.777  11.325   0.101  0.2090  0.1073  0.2398
37514W        W80530  28.030  27.783  23.649  0.1958 -0.2532 -0.1582
37515W        W80531  28.867  15.839   2.796  0.0214 -0.1040  0.0397
37516W        W80532  23.597  24.225  16.029 -0.1061 -0.2285 -0.1572
37517W        W80533   3.376  23.227  22.682  0.2697  0.1860  0.0984
37518W        W80534  27.421  10.053  17.363  0.4000 -0.1654 -0.2137
37519W        W80535  31.615  22.102  14.991 -0.4912  0.0623 -0.0786
37520W        W80536  32.145  12.427  16.984  0.0618  0.0430 -0.3486
37521W        W80537  34.431  14.941  16.169  0.0777 -0.0690  0.0934
37522W        W80538  20.384   7.492  19.675 -0.2500 -0.0496 -0.0768
37523W        W80539   0.821  25.539  21.021 -0.1187 -0.1344  0.0547
37524W        W80540   6.428   8.842  21.737  0.1961  0.1824  0.0169
37525W        W80541  16.283  23.089  27.016 -0.4376  0.0408 -0.2187
37526W        W80542  16.815  29.296  15.347  0.3554 -0.2345  0.1456
37527W        W80543   3.216  12.894  22.333 -0.1636  0.0835  0.0810
37528W        W80544   3.011  21.816  13.914 -0.0458  0.0087 -0.3139
37529W        W80545  31.222  14.408  19.470 -0.1223 -0.1417  0.2027
37530W        W80546  34.575  14.544  18.540 -0.0037  0.1757  0.1850
37531W        W80547  26.955   2.883  29.282 -0.0578  0.1836  0.1372
37532W        W80548   9.178  11.485   9.894 -0.0544 -0.3563 -0.0418
37533W        W80549   6.033  24.126   5.070  0.0779 -0.0299  0.0380
37534W        W80550  19.864  13.366  13.880 -0.3526 -0.0650  0.2281
37535W        W80551  22.106  14.938  14.395  0.0178  0.2391  0.0712
37536W        W80552  26.603   8.305  15.943  0.2816  0.0097  0.0042
37537W        W80553   6.200  11.478   1.034  0.2156  0.2868  0.0186
37538W        W80554  23.780  15.122  20.865 -0.1866 -0.0277 -0.1269
37539W        W80555  27.639   4.920  27.728  0.2584  0.0415 -0.2551
37540W        W80556   0.497  27.188  21.127  0.2863 -0.1316  0.0055
37541W        W80557  29.876  14.025  28.208 -0.0723  0.1744  0.0432
37542W        W80558  30.523   9.842  18.856 -0.1650  0.2311 -0.0216
37543W        W80559  15.320  16.148  16.222  0.0488  0.1231 -0.0010
37544W        W80560  22.356  10.210   3.592  0.2976  0.1596 -0.0329
37545W        W80561  27.519   5.902  18.105  0.0626 -0.1922  0.1217
37546W        W80562  28.046  18.110  24.758  0.0543 -0.3391  0.0997
37547W        W80563  20.875  11.313  24.901 -0.1401 -0.0737  0.1437
37548W        W80564   2.858  30.367  25.931  0.2954 -0.2686  0.1066
37549W        W80565  30.710  25.583  24.878 -0.2099  0.0406 -0.2889
37550W        W80566  12.725   7.755  21.020 -0.4921 -0.3793 -0.1106
37551W        W80567  21.272  30.550  16.402 -0.0375  0.1210  0.1695
37552W        W80568   9.130   7.285  21.089  0.1568  0.1465 -0.0556
37553W        W80569  19.354  17.061  24.693  0.0010  0.0946 -0.0842
37554W        W80570   2.876   6.261   5.687  0.0383 -0.2267  0.0526
37555W        W80571  23.338   9.233  14.234 -0.1396 -0.0840 -0.1012
37556W        W80572  34.513  30.720  22.429  0.3084 -0.2719 -0.1420
37557W        W80573  11.531   4.406   2.620  0.0254  0.1082  0.4088
37558W        W80574   5.364   1.600  20.848  0.1104 -0.0655  0.0042
37559W        W80575   6.877  24.595  16.339  0.0294  0.0482  0.2649
37560W        W80576  31.402  16.653  15.256 -0.0796  0.1825  0.1060
37561W        W80577  25.329  25.495  27.209  0.1416 -0.0191  0.0191
37562W        W80578  16.655  15.043  28.320 -0.0650 -0.1502  0.4352
37563W        W80579  19.422  21.446  13.947  0.4679 -0.4408 -0.0343
37564W        W80580   2.640  11.185  23.628  0.0549  0.3147 -0.1978
37565W        W80581   0.741  29.550  25.540 -0.0396  0.0697 -0.0154
37566W        W80582   2.348  32.894  20.910 -0.1519  0.3171 -0.1038
37567W        W80583  29.352   7.573   0.189  0.3080 -0.0653  0.2293
37568W        W80584  24.582  11.139   2.146  0.2749 -0.3249 -0.0654
37569W        W80585  28.477  15.019  19.384 -0.1283 -0.1606 -0.0700
37570W        W80586   3.868  15.447  26.728 -0.1413  0.1364  0.0381
37571W        W80587  27.578  29.031  24.528  0.2538 -0.2370 -0.2344
37572W        W80588  24.595  17.937  16.267 -0.0935  0.1480  0.1570
37573W        W80589  15.636  13.745  14.559 -0.1098 -0.2294  0.2789
37574W        W80590  29.710   7.668  27.796 -0.1844 -0.1869 -0.1783
37575W        W80591  32.099   0.977  15.159 -0.0195  0.0017 -0.0994
37576W        W80592  21.822  19.475  19.025  0.4833 -0.1710  0.1610
37577W        W80593  32.350   5.050  21.653 -0.0935  0.1177 -0.1358
37578W        W80594  30.602   6.281  22.636 -0.0032  0.0416 -0.1870
37579W        W80595  27.583   8.144  14.810 -0.0322 -0.1416 -0.1596
37580W        W80596  34.426   8.883  15.064 -0.1938 -0.1342  0.0923
37581W        W80597   0.875   7.559  22.999  0.0807 -0.2132 -0.2447
37582W        W80598  28.852   8.270   1.825 -0.0517 -0.2822  0.3202
37583W        W80599  34.105  11.052  17.974  0.2649  0.2149  0.1714
37584W        W80600  19.762  11.133  20.353  0.4224 -0.0463 -0.1448
37585W        W80601  18.945  15.039  25.743  0.0499 -0.1115  0.0786
37586W        W80602   3.257  17.401  24.638 -0.2895  0.1188 -0.1251
37587W        W80603   0.077  12.333  21.460 -0.2457  0.0626 -0.2196
37588W        W80604  32.294  11.132  20.433  0.0147 -0.1340  0.3904
37589W        W80605  31.226  27.005  20.723 -0.1242 -0.0048  0.0284
37590W        W80606  18.636  19.812  20.119  0.0430 -0.1630  0.1218
37591W        W80607   4.363  13.122  22.072 -0.4567  0.0337 -0.1290
37592W        W80608  22.721   6.927  22.351  0.0575  0.2051  0.1587
37593W        W80609  19.936   5.185  17.848  0.1632  0.2243  0.2139
37594W        W80610   0.573  10.832  15.567 -0.0480 -0.3008  0.0776
37595W        W80611  15.105  16.377  19.978 -0.1310 -0.0658  0.2359
37596W        W80612  10.421  12.216  17.998  0.0608 -0.2658 -0.2781
37597W        W80613  16.595  11.835  18.531  0.0064 -0.2725  0.0671
37598W        W80614  31.971  21.356  21.939  0.1442 -0.1645  0.0291
37599W        W80615  21.404  12.727  19.167 -0.1421 -0.1622 -0.0550
37600W        W80616   4.090  15.754  20.271 -0.1275  0.6181 -0.3422
37601W        W80617  27.534   4.022  27.448 -0.1130  0.1767 -0.1280
37602W        W80618   4.540  22.200  17.861  0.1729  0.3487 -0.1939
37603W        W80619  28.280  29.609   1.357 -0.1803  0.1299  0.0713
37604W        W80620  32.337  17.910   1.009 -0.1506 -0.0652 -0.1801
37605W        W80621  30.699  24.539  17.736  0.3399 -0.1855  0.4700
37606W        W80622  22.555  13.075  23.350 -0.1168 -0.1062 -0.1262
37607W        W80623   0.026   8.497  15.842  0.0176  0.0783 -0.2656
37608W        W80624   8.814  17.818  19.937  0.2985  0.1846 -0.0927
37609W        W80625   5.062  24.845  27.067  0.1303  0.2757  0.0570
37610W        W80626   4.868  15.076  26.238 -0.1036  0.1763  0.0828
37611W        W80627  28.961  12.657  20.060  0.0924 -0.2222 -0.1255
37612W        W80628   3.637  12.953  25.190 -0.1676 -0.0562 -0.3347
37613W        W80629  13.269  19.777  13.167 -0.0382 -0.3255 -0.0356
37614W        W80630  33.265  13.044  23.827 -0.2843  0.2565 -0.1771
37615W        W80631  10.389  18.001  24.408 -0.0557 -0.1522  0.2965
37616W        W80632  33.407  19.369  18.759  0.2568 -0.2453 -0.0090
37617W        W80633  31.667   8.524  16.318  0.4477 -0.0717 -0.0085
37618W        W80634  12.428  22.343  24.670 -0.4707 -0.0191 -0.0768
37619W        W80635   4.280  22.923  16.877  0.1639  0.0356  0.1996
37620W        W80636  34.502  12.975   3.992  0.2178 -0.0571  0.0933
37621W        W80637  17.788   9.587  14.684 -0.0476  0.0502  0.0768
37622W        W80638  28.182   2.485   8.698 -0.2442 -0.1071 -0.2128
37623W        W80639  23.871  16.865   0.313  0.0073  0.0978 -0.2518
37624W        W80640  33.672   9.855  25.368 -0.1967  0.1169 -0.1999
37625W        W80641  16.333   2.645  22.015 -0.1747  0.4170  0.0899
37626W        W80642  28.194  25.773  28.669  0.0172  0.2503  0.0756
37627W        W80643  24.874  31.162   9.113 -0.3410 -0.2701 -0.0899
37628W        W80644  20.546   7.904   7.096  0.0311  0.0461  0.3552
37629W        W80645  30.693  13.972   9.102 -0.1351  0.0539  0.0769
37630W        W80646  24.643  11.643  27.355 -0.1817  0.2476 -0.0217
37631W        W80647  33.167  27.726  23.535  0.1490  0.0017  0.0022
37632W        W80648  27.346  20.815  27.549  0.2912 -0.0256  0.3326
37633W        W80649  28.423   4.348  27.736  0.2359 -0.0341 -0.0154
37634W        W80650  23.213  15.950  22.402  0.2042  0.3269 -0.1647
37635W        W80651  20.525  10.726  25.968  0.0758  0.3758  0.0857
37636W        W80652   8.543  13.153  26.354 -0.0385 -0.1108  0.1481
37637W        W80653  25.846   6.115  23.685  0.2009  0.0125  0.1200
37638W        W80654  11.121  14.853  26.236  0.2278 -0.1587 -0.2434
37639W        W80655  27.740  11.332  16.247  0.3544  0.0833 -0.0258
37640W        W80656  34.125  24.959  17.557 -0.1803  0.0467  0.1581
37641W        W80657   9.868   8.084  19.878 -0.0138  0.0373  0.0672
37642W        W80658  33.948   6.485  18.781 -0.0562 -0.1749  0.0864
37643W        W80659  19.111  25.585  15.821 -0.0638 -0.2094 -0.0167
37644W        W80660  23.222  14.931  20.232 -0.0307  0.1536 -0.4482
37645W        W80661  30.717  13.772  17.728  0.0771  0.3838 -0.0356
37646W        W80662  32.933   7.157  21.005 -0.1352 -0.0890  0.1058
37647W        W80663  31.465  25.590   1.418  0.0762 -0.1011 -0.3544
37648W        W80664   4.686   3.007  16.162  0.1975  0.1337  0.0685
37649W        W80665  24.601  28.305  22.556  0.3431  0.0902  0.4453
37650W        W80666  33.874  13.501  14.465 -0.1416  0.0450 -0.0510
37651W        W80667   0.512  25.068  26.047 -0.1025  0.4052  0.1051
37652W        W80668  26.548  21.164  20.928  0.0548 -0.0078  0.3993
37653W        W80669  19.481  23.133  16.546  0.2291  0.2569 -0.0433
37654W        W80670  22.276  27.317  21.410  0.0162  0.1567  0.0002
37655W        W80671   2.232  14.053  17.369 -0.0667 -0.1297  0.2339
37656W        W80672  19.540  12.278  25.095 -0.0327 -0.1305 -0.1275
37657W        W80673  10.524  15.971  15.682  0.3301 -0.0417 -0.1525
37658W        W80674  31.250  31.979  24.188 -0.1235 -0.1481  0.1074
37659W        W80675  29.800   5.005  20.170 -0.2322  0.6491  0.1002
37660W        W80676  29.526  26.203  21.819 -0.1689 -0.0318 -0.1786
37661W        W80677  25.068   1.764  15.510 -0.2198  0.0436 -0.1744
37662W        W80678   1.657   7.810  15.975 -0.0958  0.1291 -0.2052
37663W        W80679  26.772  21.877  24.780 -0.0667 -0.2126  0.7296
37664W        W80680  29.236  30.228  25.433  0.0344 -0.2360  0.1089
37665W        W80681   4.053  22.113  27.278 -0.1743  0.0859 -0.0621
37666W        W80682  29.383   3.354  18.549  0.1210  0.0975 -0.1642
37667W        W80683   2.955   7.595   1.583  0.1014 -0.0499  0.2201
37668W        W80684   7.264   5.933  29.020  0.2225  0.0020 -0.1336
37669W        W80685  23.301  20.105  19.814  0.0851  0.1175  0.1919
37670W        W80686  29.049  19.020  22.168  0.1876  0.0547  0.0250
37671W        W80687  27.963  21.223   8.087 -0.4379  0.0549  0.3193
37672W        W80688   2.294  19.440  27.647 -0.2705 -0.0782 -0.0180
37673W        W80689  21.446  33.704  26.889 -0.2483 -0.0773 -0.0013
37674W        W80690   8.830  18.327  15.934 -0.0798 -0.0493 -0.1509
37675W        W80691  19.400  27.543  18.714  0.0268 -0.3108  0.0792
37676W        W80692  23.996   5.436  16.510 -0.0103 -0.1778 -0.3238
37677W        W80693  33.869  30.083  24.128  0.2116 -0.4334  0.0014
37678W        W80694  17.859  22.485  12.952 -0.0629  0.1795 -0.3081
37679W        W80695  25.275  17.988  18.535  0.2833  0.1607 -0.0403
37680W        W80696   1.607  16.102  14.095 -0.0513  0.0052  0.1724
37681W        W80697   2.414   3.402  25.635 -0.2619  0.0908 -0.0238
37682W        W80698  34.353  11.630  14.817  0.1606  0.0716  0.1368
37683W        W80699  33.636  29.232  19.731  0.0970  0.1745  0.3592
37684W        W80700  17.957  26.884  19.463 -0.0014 -0.1112 -0.2789
37685W        W80701  30.090  12.399  19.485  0.0353  0.2375 -0.1410
37686W        W80702  27.333  14.604   0.165  0.0605  0.1729  0.3849
37687W        W80703   2.064  20.106   2.058 -0.2441 -0.3623  0.3623
37688W        W80704  31.076  19.372  15.825  0.0794 -0.0443  0.1113
37689W        W80705  34.744  10.732  25.104 -0.1679  0.1352  0.0569
37690W        W80706  23.126  11.499  16.255  0.2132  0.1681 -0.0340
37691W        W80707  34.408   2.387  29.172  0.1508 -0.2029 -0.0530
37692W        W80708  25.683  30.360  28.633  0.1969  0.1180  0.1510
37693W        W80709  34.209  24.760   0.421  0.1659 -0.0584 -0.2536
37694W        W80710   7.361  11.849  23.399  0.0492 -0.0106 -0.2116
37695W        W80711  23.619   2.914  15.891  0.0098 -0.0922  0.2301
37696W        W80712  25.972  16.553  17.022  0.0127  0.0114  0.2864
37697W        W80713  34.295  34.406  25.910 -0.2993  0.1266  0.3471
37698W        W80714   9.060  18.296  20.145  0.1887  0.0523  0.2081
37699W        W80715  30.814  17.762  14.828 -0.1055 -0.0732  0.0232
37700W        W80716  20.255  12.683  28.735 -0.0604  0.0874 -0.0700
37701W        W80717  33.762  25.413  17.953 -0.0825 -0.1814 -0.1932
37702W        W80718  13.472   5.980   2.589 -0.0171  0.0961  0.1873
37703W        W80719  26.046  21.718  22.466  0.3971 -0.1517  0.0688
37704W        W80720  16.876  27.534  27.274 -0.1095 -0.0276 -0.0468
37705W        W80721  17.586  10.891  16.337 -0.0314  0.1883 -0.0008
37706W        W80722  30.135  15.963  21.900  0.0881  0.2434 -0.2058
37707W        W80723   1.819  11.284  24.718 -0.1476  0.1207 -0.1784
37708W        W80724  27.202  15.659  15.741  0.1580 -0.4333  0.0076
37709W        W80725   3.494  18.314   0.389  0.1447 -0.1117  0.0274
37710W        W80726  30.927  18.913   0.095  0.1524  0.2315 -0.0560
37711W        W80727  31.635  18.184   3.851 -0.0969  0.0735 -0.1147
37712W        W80728   2.498   5.696   4.095 -0.3068 -0.0013 -0.0194
37713W        W80729  29.960  23.690  17.603 -0.0505  0.0115 -0.2770
37714W        W80730  34.467  22.638  22.309 -0.0113  0.3511  0.2867
37715W        W80731  18.047  10.637  18.159 -0.0870 -0.1024 -0.1816
37716W        W80732  18.140  16.817  20.913 -0.0593  0.3258  0.1812
37717W        W80733   2.595  14.822   8.275  0.1245  0.2463 -0.2768
37718W        W80734   8.626  16.046  27.387 -0.1268  0.0834 -0.3134
37719W        W80735  28.310  24.883  22.243 -0.1593  0.0359  0.0611
37720W        W80736   1.853  19.935  25.932 -0.0585 -0.1450  0.2195
37721W        W80737  26.912  22.409  27.526 -0.0732 -0.1855  0.1417
37722W        W80738   6.255  14.164   6.091  0.1321 -0.1738  0.1577
37723W        W80739  25.073   1.071  17.404 -0.4709 -0.4398 -0.2547
37724W        W80740  31.980  10.884  17.810 -0.1885  0.5160  0.2071
37725W        W80741  10.543  12.169  22.978 -0.1795  0.0532 -0.0412
37726W        W80742   8.915  12.419  28.509 -0.1125 -0.0571 -0.0997
37727W        W80743  25.876  15.033  15.292  0.2427  0.2704 -0.2860
37728W        W80744  14.049  28.194  19.400  0.1000  0.2878 -0.0871
37729W        W80745  33.501  17.458   7.120 -0.0749  0.0972 -0.1496
37730W        W80746  34.288  16.346  25.288  0.2601  0.2145 -0.3917
37731W        W80747  27.504   7.359  21.988 -0.0592 -0.3196 -0.1220
37732W        W80748  20.695   1.655  15.737 -0.1408  0.2361  0.2062
37733W        W80749   6.429  24.985   6.012  0.1619 -0.2491 -0.1162
37734W        W80750  26.367  15.344  18.246 -0.0206 -0.2846  0.0039
37735W        W80751  32.192  26.208  17.550  0.3476  0.1302 -0.0874
37736W        W80752   4.519  30.467  23.417  0.2871 -0.2498  0.1375
37737W        W80753  17.786  17.234  24.200 -0.1686 -0.2672 -0.0474
37738W        W80754  29.466  15.320  21.848 -0.2070  0.0796  0.1088
37739W        W80755  30.981  18.114  25.405 -0.0254  0.0381 -0.2111
37740W        W80756   3.431  27.151  23.451 -0.0660 -0.1324 -0.0551
37741W        W80757  24.975  17.019  27.492 -0.1466 -0.2582  0.2372
37742W        W80758  29.548  32.685  22.490 -0.0582  0.1592  0.2612
37743W        W80759  32.140   9.544  19.199 -0.0966  0.2411 -0.0307
37744W        W80760  18.271  14.715   0.237  0.4829  0.1878 -0.1726
37745W        W80761  30.947   7.275  15.358 -0.2090  0.1534 -0.2309
37746W        W80762   8.603  12.699  22.360 -0.2550 -0.0444  0.0641
37747W        W80763  27.424   8.628  23.272 -0.0192  0.2511  0.1332
37748W        W80764   0.207  15.446  27.941 -0.0593 -0.0741 -0.1373
37749W        W80765  25.924  21.327  24.742  0.0946 -0.3295  0.2267
37750W        W80766  15.102   3.024  23.987  0.1559  0.2019  0.0862
37751W        W80767  27.080   3.720   2.837  0.2494  0.0720 -0.1917
37752W        W80768   0.394  15.795  16.317  0.0135 -0.0086 -0.1059
37753W        W80769   3.492  21.171   0.646 -0.2237 -0.3253 -0.3549
37754W        W80770  29.705  19.515  28.444 -0.1581  0.0243 -0.1959
37755W        W80771   6.488  18.562  16.505  0.0519  0.1678 -0.0623
37756W        W80772  26.968  17.575   3.481  0.1179 -0.0700  0.4466
37757W        W80773  21.149  15.047  25.568 -0.1942  0.0934 -0.3887
37758W        W80774  11.851  21.958   3.861 -0.2064 -0.0740  0.3090
37759W        W80775  10.058   9.470   7.012 -0.2780  0.0851 -0.1894
37760W        W80776  34.538  29.808   9.322 -0.0903  0.2402  0.1032
37761W        W80777  33.893  10.858   2.681 -0.2531 -0.1978  0.2935
37762W        W80778  23.591  14.899  13.302 -0.2439  0.5481 -0.1555
37763W        W80779  28.418   0.130   5.440 -0.3028 -0.0032  0.0226
37764W        W80780  31.810  22.157  21.506 -0.0247 -0.0255  0.1774
37765W        W80781  27.003  26.012  23.044 -0.0565 -0.2467  0.0474
37766W        W80782  25.041  11.346   6.168  0.0766 -0.0659  0.0355
37767W        W80783  32.646  26.450  15.668 -0.3351  0.3088  0.0455
37768W        W80784   0.842   6.472  10.380 -0.1207  0.1177  0.3144
37769W        W80785  31.646  22.356  19.674 -0.3590 -0.1123 -0.1156
37770W        W80786  17.237  22.127   3.588 -0.2558 -0.2833  0.2308
37771W        W80787  26.193  22.552  20.474  0.3149  0.0626 -0.1918
37772W        W80788  13.713  22.264  23.399 -0.0934 -0.1656  0.3258
37773W        W80789  31.308  24.797  27.305 -0.7124 -0.0657 -0.1522
37774W        W80790  27.606  28.755  16.956 -0.0552 -0.0318  0.1637
37775W        W80791  28.127  11.187   3.292 -0.0943 -0.1056  0.1457
37776W        W80792  14.011  19.974  11.945  0.0322 -0.0187 -0.2774
37777W        W80793  27.460   0.049   9.957 -0.2270  0.1247  0.0160
37778W        W80794   0.137  24.360   0.449  0.2395 -0.0660 -0.1532
37779W        W80795  28.304  18.296  24.107  0.0169 -0.6114 -0.0875
37780W        W80796  34.110  20.957  22.675 -0.3450 -0.2082  0.0540
37781W        W80797   8.508  22.640  26.931 -0.0615  0.1511 -0.0781
37782W        W80798  33.922  10.129  21.450 -0.2127  0.0872  0.1299
37783W        W80799  23.594  16.380  24.354 -0.0181 -0.0167 -0.0421
37784W        W80800  29.147  20.577   7.437 -0.2775 -0.0776 -0.0802
37785W        W80801   9.922   9.356  19.824  0.1344  0.1810  0.1594
37786W        W80802  28.113  17.687  23.839  0.0832 -0.1446 -0.1667
37787W        W80803  21.535  21.070  15.282 -0.1030  0.1696 -0.0654
37788W        W80804  12.311  22.894   6.666  0.1276  0.0636  0.2456
37789W        W80805  30.083  24.136  18.290 -0.1085  0.0797 -0.1516
37790W        W80806  26.024   3.624  25.301  0.0058 -0.0365  0.0755
37791W        W80807  26.313  18.736  26.998  0.1670 -0.1643 -0.1587
37792W        W80808  32.673  23.263  28.210 -0.1230  0.1514  0.1798
37793W        W80809  21.855  22.957   3.568  0.0769 -0.0868  0.0789
37794W        W80810  28.269  10.727  10.275  0.0354 -0.0393 -0.1112
37795W        W80811  31.393  16.928   0.102  0.0924  0.0845  0.0082
37796W        W80812  23.175  19.989  25.524 -0.1212  0.1688 -0.0266
37797W        W80813   1.091  26.029  17.590 -0.1640  0.1002  0.0208
37798W        W80814  12.846   8.252   6.566 -0.0182  0.0747 -0.1455
37799W        W80815  10.552  10.717  14.469 -0.0258  0.2550  0.0690
37800W        W80816  15.915  16.484  12.947  0.0259  0.0765  0.0190
37801W        W80817  21.597  19.471  23.118 -0.2203  0.3453 -0.1076
37802W        W80818  22.122  14.133   7.221  0.2180 -0.1002 -0.0643
37803W        W80819  15.869  13.184  22.842  0.0754  0.0319 -0.3041
37804W        W80820  23.388  25.053  26.199  0.0827  0.0988  0.1404
37805W        W80821  12.945  14.091   6.602  0.2417 -0.1265 -0.1481
37806W        W80822  32.172  15.225  21.427 -0.0131  0.2777  0.0082
37807W        W80823   1.277  21.046  19.937  0.1322  0.1328 -0.1023
37808W        W80824  12.464  16.770   0.645 -0.2626  0.2748 -0.0718
37809W        W80825   5.340  26.775   2.216 -0.3030  0.1037 -0.0758
37810W        W80826  21.091  25.783  21.985 -0.1805 -0.2291  0.2177
37811W        W80827   6.551  26.556   0.426 -0.0450 -0.0115 -0.0583
37812W        W80828  11.813  19.157  24.756  0.0871 -0.1557  0.2417
37813W        W80829  30.782  21.895  24.655  0.1073 -0.0181 -0.1293
37814W        W80830  32.122  14.627  15.858 -0.0150 -0.2037 -0.1223
37815W        W80831  31.363  13.695  16.570 -0.0444  0.0705  0.0658
37816W        W80832   4.474  29.774  15.628 -0.0411 -0.2677  0.2080
37817W        W80833  32.096  19.682   7.174 -0.0855  0.1246 -0.3536
37818W        W80834  32.174  11.506  19.664  0.0966  0.1904  0.0071
37819W        W80835   9.468  10.873  17.818 -0.0938 -0.1582 -0.0697
37820W        W80836  34.536  10.055  21.291  0.0401  0.2715  0.0129
37821W        W80837  34.070  24.541   0.866 -0.2216 -0.4347  0.1745
37822W        W80838  27.744  32.717  17.358  0.0771 -0.0804  0.0260
37823W        W80839   1.524  31.591  26.794  0.0207  0.2387  0.0595
37824W        W80840   5.905  16.091  14.229  0.2203 -0.0637 -0.3411
37825W        W80841  29.824  14.649  26.459  0.0131 -0.0131 -0.1254
37826W        W80842  10.158  21.323  23.116 -0.2003  0.1036  0.0959
37827W        W80843  26.320  16.249  24.283  0.2516  0.1991 -0.1132
37828W        W80844  31.589  12.477  22.748 -0.2679  0.3906  0.0200
37829W        W80845  33.313   6.865  16.483 -0.1156 -0.0913  0.0046
37830W        W80846   0.076  13.535  27.788  0.1818 -0.1411 -0.3070
37831W        W80847   6.488  24.013  23.475 -0.5144 -0.0368  0.0879
37832W        W80848   6.074  18.666  20.977  0.2376 -0.1212 -0.2352
37833W        W80849   9.185  17.661   2.941  0.0517  0.1805 -0.0101
37834W        W80850  22.283  23.013  23.463 -0.1528  0.0022 -0.3315
37835W        W80851  32.465  19.259   3.191 -0.0481 -0.2631 -0.0243
37836W        W80852   6.094   3.634  28.965 -0.2367 -0.0661  0.1129
37837W        W80853  18.391  20.543  12.886 -0.1171  0.0156 -0.4574
37838W        W80854   4.360  21.070   4.935  0.0380 -0.1009 -0.1221
37839W        W80855  17.063  29.163  10.462 -0.1082  0.0719 -0.0420
37840W        W80856  33.339  11.094  20.698 -0.2338  0.4069 -0.3346
37841W        W80857  10.086  21.167  21.312 -0.0679  0.0052  0.1342
37842W        W80858  26.863  13.223  15.790 -0.0975  0.1832 -0.3896
37843W        W80859  25.088  21.238  27.212 -0.0811  0.0804  0.1201
37844W        W80860   6.474  11.366  17.421  0.0608 -0.4458  0.0563
37845W        W80861  20.567   6.743  20.212 -0.0391  0.1617  0.0759
37846W        W80862   7.524  28.955  16.175 -0.0808 -0.0011  0.0043
37847W        W80863  27.552   6.623  20.070  0.1918 -0.0108  0.2646
37848W        W80864   2.035  24.622  29.029  0.2710  0.2129  0.1024
37849W        W80865   5.797  29.626  21.726  0.0664  0.2214  0.0435
37850W        W80866   1.070  14.008  15.542 -0.0298  0.1801  0.2286
37851W        W80867   3.661  12.816   2.963  0.2086 -0.0771  0.0630
37852W        W80868  33.708  26.819  27.460 -0.1657 -0.1663 -0.1517
37853W        W80869  30.476  33.852  18.127 -0.0833 -0.2228  0.2341
37854W        W80870  13.339  10.580  15.363 -0.4049  0.2753  0.0835
37855W        W80871  34.244  22.608  15.252 -0.3005 -0.0633  0.1612
37856W        W80872  29.526  27.303  25.188 -0.1860 -0.1977 -0.0038
37857W        W80873  16.025   5.355  23.597 -0.4520  0.0106  0.7696
37858W        W80874  34.645  20.840   7.405 -0.0054 -0.1169 -0.2068
37859W        W80875  29.712  18.826  19.320  0.0536  0.0985 -0.1654
37860W        W80876  27.595  22.170  18.784  0.2050 -0.1090  0.1320
37861W        W80877   3.033  33.601  25.259 -0.1568 -0.0822  0.0372
37862W        W80878  27.440  17.794  17.706 -0.1396 -0.1951  0.3732
37863W        W80879  33.325  10.184  25.973  0.1460 -0.0214  0.2904
37864W        W80880   4.875  29.248   0.644  0.1879  0.1720  0.0165
37865W        W80881   3.392   1.060   9.071  0.0512  0.2017  0.0309
37866W        W80882  29.083  15.058  23.207  0.0764 -0.2824  0.0119
37867W        W80883   3.283  10.813  15.592  0.0884  0.1103 -0.0273
37868W        W80884  10.732   9.626  18.199 -0.2464  0.1374 -0.3069
37869W        W80885  26.154  15.641  13.885 -0.0301 -0.1393 -0.1749
37870W        W80886  23.215  12.847  28.010 -0.2403 -0.2250 -0.3518
37871W        W80887  13.494  14.724   7.327 -0.1357 -0.1689 -0.1899
37872W        W80888  20.857  13.549  25.571 -0.2953  0.2519  0.0964
37873W        W80889   5.359  20.230  21.770 -0.0957  0.3174  0.3092
37874W        W80890  23.560  17.646   6.860 -0.3583  0.1626 -0.1072
37875W        W80891  31.952   4.732  18.659  0.3990 -0.0454 -0.0485
37876W        W80892  25.284   3.539   4.000 -0.1621  0.2036 -0.0004
37877W        W80893  11.037  27.408  14.631 -0.0910  0.0868  0.0300
37878W        W80894  33.776  28.516  14.576 -0.0993  0.0822 -0.2033
37879W        W80895  19.438  17.405   5.105  0.2434  0.1503  0.1751
37880W        W80896   7.979   5.018  20.152  0.0375  0.1623  0.2460
37881W        W80897  10.364   0.024  16.233  0.3879  0.1390 -0.2572
37882W        W80898  25.741  14.626   4.508 -0.0382 -0.0114  0.1345
37883W        W80899  30.301  10.296  20.539  0.1937 -0.0236  0.0567
37884W        W80900  12.354   4.362  26.086 -0.0042 -0.1845 -0.3492
37885W        W80901   3.877  34.239   8.664  0.2805 -0.0948  0.0674
37886W        W80902   5.876  23.947  21.267 -0.0307  0.0751  0.1790
37887W        W80903  33.122  11.403   0.392 -0.2221  0.2958 -0.1588
37888W        W80904  26.660  17.010  24.880 -0.2484 -0.1126  0.1608
37889W        W80905  22.045   5.623  22.630 -0.1860  0.0433 -0.2095
37890W        W80906  26.545  22.543  11.740  0.1280 -0.0817  0.0380
37891W        W80907   0.215  20.075   1.812  0.0103 -0.1264  0.1330
37892W        W80908  30.269  27.433  27.372  0.2569  0.0448  0.0008
37893W        W80909  34.448  11.615  18.758  0.2668  0.0972  0.1383
37894W        W80910   9.454  18.484  22.986  0.0517  0.2143 -0.2564
37895W        W80911  26.685  20.870   9.776 -0.3420  0.1065 -0.1043
37896W        W80912   0.343  25.358  16.108 -0.3210 -0.1066 -0.2104
37897W        W80913  33.475  17.544  22.085 -0.0303  0.1538  0.1757
37898W        W80914  24.879  25.809  18.208 -0.0913  0.0885 -0.1089
37899W        W80915  30.689   7.320  25.601  0.0149 -0.0054  0.0974
37900W        W80916   7.332  27.095   4.555  0.1547 -0.0325  0.3358
37901W        W80917  27.576   2.338  17.120  0.2719  0.0031 -0.1248
37902W        W80918  34.330  12.126  15.602 -0.1764 -0.1484  0.1858
37903W        W80919  30.905  17.307  19.422  0.3157  0.1821 -0.0235
37904W        W80920  22.483  11.087   8.226 -0.1377  0.0175  0.0197
37905W        W80921  15.022   4.130  21.017 -0.0144  0.1514 -0.1481
37906W        W80922  21.758  11.567   5.715 -0.4134 -0.7842  0.1164
37907W        W80923  31.041  12.738  21.020  0.4514  0.0965  0.1446
37908W        W80924  14.562  34.342  25.458 -0.0846  0.0699  0.0978
37909W        W80925  21.576  23.288   7.827  0.1383 -0.1486 -0.0133
37910W        W80926  32.127  15.969  25.016 -0.0421 -0.2506 -0.1233
37911W        W80927  31.508  13.147   2.949  0.1924 -0.2707  0.0931
37912W        W80928  30.601   3.133   5.614 -0.0564  0.2278 -0.2742
37913W        W80929   7.245   4.939  17.025 -0.1761  0.2916 -0.1151
37914W        W80930  33.760  22.559  22.301  0.2977  0.1805  0.2326
37915W        W80931  30.685  17.437  27.784 -0.4065  0.1374  0.1101
37916W        W80932  28.400  21.103   2.512 -0.1077  0.0140 -0.3155
37917W        W80933  18.745  21.353  25.905 -0.1008  0.0895  0.1553
37918W        W80934  30.909  10.913   0.192 -0.0625 -0.2390 -0.4372
37919W        W80935  24.585  34.142  18.539  0.1712 -0.1124  0.1199
37920W        W80936  32.431   7.011  15.640  0.1380  0.3181  0.0455
37921W        W80937  25.055  19.328  19.670  0.0169 -0.1674  0.1341
37922W        W80938  13.929  22.018  18.979 -0.1785  0.1220  0.2073
37923W        W80939   7.964  30.324  27.400 -0.0798 -0.1482 -0.0915
37924W        W80940  23.995   8.912   3.269  0.0659  0.1418  0.1335
37925W        W80941  26.317   3.146   7.250  0.3023  0.1949  0.2832
37926W        W80942  28.201  22.668  28.342  0.3672 -0.1367 -0.3433
37927W        W80943  22.289  13.611   8.021  0.0766 -0.1474 -0.1220
37928W        W80944  22.901   8.834  26.270  0.1353 -0.1884 -0.0304
37929W        W80945  33.253  28.634  18.985 -0.1745 -0.2080  0.0715
37930W        W80946  14.469  10.771  26.978 -0.1849 -0.2123  0.4041
37931W        W80947  33.178  26.802   2.723 -0.0400  0.0548 -0.1384
37932W        W80948  17.441  13.189  22.519  0.0278  0.0992  0.2043
37933W        W80949  20.161  13.318  17.248  0.3669 -0.2066  0.2240
37934W        W80950  33.564  20.748  24.085  0.1559  0.1163 -0.0070
37935W        W80951  10.742  32.846  20.893  0.1325 -0.3219 -0.0653
37936W        W80952  24.450  20.319  15.100 -0.2072 -0.0489  0.2155
37937W        W80953  14.934  10.964  16.818 -0.0040 -0.1664  0.0341
37938W        W80954  29.874  24.440  16.525 -0.0486  0.0392  0.1958
37939W        W80955  27.214  22.497  19.840  0.1959 -0.2851 -0.2555
37940W        W80956  27.570  28.631  24.833  0.0961  0.0725  0.1142
37941W        W80957   3.160  25.605   1.041  0.2486 -0.0485 -0.0707
37942W        W80958  25.553  10.626   8.196  0.1888  0.1606 -0.0219
37943W        W80959   4.837  30.893  25.479  0.0771  0.2733  0.0094
37944W        W80960  18.113  23.780  16.068 -0.1518 -0.0809  0.2607
37945W        W80961   2.823  29.861  18.310  0.3947  0.4282 -0.1262
37946W        W80962  21.515  10.465  14.524  0.0906  0.0486 -0.1262
37947W        W80963  10.143   5.493  25.326 -0.0025  0.2788 -0.0653
37948W        W80964  32.973  15.857  16.723  0.1146  0.0356  0.1491
37949W        W80965   4.024  28.994  26.331 -0.0070  0.0534 -0.1959
37950W        W80966  31.858  27.739  21.531  0.2262 -0.0238  0.1847
37951W        W80967  20.112   9.534   1.439  0.6165  0.0010  0.0456
37952W        W80968  17.554  27.928  19.766 -0.2217  0.2123 -0.0983
37953W        W80969  24.792  29.386  25.533 -0.0220 -0.1174  0.3893
37954W        W80970  34.141  16.695  24.503  0.0186 -0.0195  0.0657
37955W        W80971  25.870   6.453  18.682 -0.1804 -0.0710  0.0098
37956W        W80972  30.494   6.103   0.457 -0.0386  0.2276  0.1597
37957W        W80973   6.910  17.963   8.211 -0.2004 -0.1093 -0.1916
37958W        W80974  24.165  12.283  24.553 -0.1626 -0.1514 -0.3906
37959W        W80975  32.640  28.264  16.847  0.0164 -0.2796  0.2317
37960W        W80976   1.142   7.938   3.775 -0.4197 -0.1942 -0.0307
37961W        W80977  17.219  20.858  16.057  0.3824 -0.4234  0.3041
37962W        W80978  18.363  30.842  19.572 -0.0314  0.1262 -0.0690
37963W        W80979   9.037  15.513  19.371 -0.0050  0.3045  0.1696
37964W        W80980  27.044   3.571  29.275  0.1076  0.0419 -0.1521
37965W        W80981   9.418  18.857   2.691 -0.1402 -0.2224 -0.0371
37966W        W80982   8.652  11.984  18.752 -0.2413 -0.0327  0.0880
37967W        W80983   2.780  33.859  14.089 -0.0714 -0.2217  0.1307
37968W        W80984  30.856   5.395  10.302  0.0965 -0.3409 -0.2981
37969W        W80985  20.291  17.026   7.265  0.2494  0.2516  0.1045
37970W        W80986  10.069  21.526  13.237  0.0987  0.4115 -0.0485
37971W        W80987   9.754  18.943  17.503 -0.2308  0.0859  0.0314
37972W        W80988  21.300  14.549  23.334  0.2522  0.1372 -0.1225
37973W        W80989   7.691  17.670  17.827 -0.0801  0.1249  0.0487
37974W        W80990  27.430  31.039   3.122 -0.1982 -0.0627 -0.1377
37975W        W80991  31.745  20.435  21.030  0.0267  0.2710  0.0159
37976W        W80992  12.987   2.645  21.015 -0.0886  0.1271  0.0694
37977W        W80993   8.244  29.264   8.721 -0.0045  0.1076  0.0186
37978W        W80994  27.240  17.120  16.644  0.1307 -0.1474  0.3164
37979W        W80995  31.489  25.444  18.453  0.1983 -0.0741 -0.1418
37980W        W80996  27.622  22.286  17.790 -0.0746 -0.0086 -0.1998
37981W        W80997  34.116  32.765   3.460 -0.0849 -0.0479 -0.0148
37982W        W80998  31.594  25.953  22.168  0.3921  0.0423 -0.1548
37983W        W80999  11.976  20.565  21.288 -0.2832  0.1514  0.4086
37984W        W81000  33.054  21.123  17.960 -0.0635 -0.2394  0.0395
37985W        W81001   1.197   7.000  19.463  0.3276 -0.0361  0.1067
37986W        W81002  32.388  32.946  26.219 -0.0947 -0.3341  0.2428
37987W        W81003  14.793  31.114  19.800  0.3124 -0.1554 -0.1431
37988W        W81004  27.594  27.745   7.137  0.3177 -0.0358  0.0219
37989W        W81005  13.388   6.098  25.154 -0.2621 -0.0719 -0.3413
37990W        W81006   3.192   6.670  21.869  0.0044 -0.0995  0.2128
37991W        W81007   4.516  24.014  15.343 -0.3443 -0.1305 -0.1699
37992W        W81008  25.540  10.937  16.552 -0.1478 -0.1937  0.3796
37993W        W81009   5.513  32.743  20.806 -0.5774  0.1104 -0.2112
37994W        W81010   0.585  19.236  26.980 -0.0901  0.0919  0.2080
37995W        W81011  21.294  21.863  19.546  0.0541 -0.0855  0.0873
37996W        W81012  16.296  31.294  21.081  0.2796 -0.0866  0.2266
37997W        W81013   8.992  30.295   5.569 -0.2697  0.1117  0.0239
37998W        W81014   0.116  15.530  15.575 -0.4548 -0.0418 -0.1430
37999W        W81015   1.851   8.515  18.201 -0.2555  0.0728  0.2274
38000W        W81016  27.273  26.892   6.829  0.0749  0.1706  0.1820
38001W        W81017  23.127   2.300   2.517  0.0792 -0.1473 -0.1720
38002W        W81018  28.917   6.215  23.443  0.0305  0.1521 -0.2049
38003W        W81019  24.151  21.576  23.273 -0.1714 -0.0572 -0.1069
38004W        W81020  29.412   9.578   1.384 -0.1075  0.0238  0.1169
38005W        W81021  16.919  18.359  20.180  0.0066 -0.2437 -0.1487
38006W        W81022  24.801  23.524   5.910 -0.1253  0.0700 -0.0934
38007W        W81023  32.348  14.703   6.772  0.0619  0.1316 -0.0444
38008W        W81024   6.266  13.587  16.788  0.1171 -0.0294 -0.0659
38009W        W81025  11.185  26.720  26.911  0.0926 -0.0469 -0.0273
38010W        W81026   0.651  28.084   3.780 -0.1966 -0.3472  0.0303
38011W        W81027  14.324  28.977  26.960 -0.3941 -0.1473  0.2512
38012W        W81028  16.892  22.546  12.732  0.3216 -0.1523  0.2180
38013W        W81029  18.206   3.296  14.058  0.0797 -0.1464  0.4524
38014W        W81030  30.965  23.943  23.427  0.0365  0.3381  0.0728
38015W        W81031  34.052  13.327  27.144 -0.1992 -0.0021  0.0644
38016W        W81032  28.083  21.669  28.637  0.2183  0.0526  0.0438
38017W        W81033  16.923  25.637  16.918 -0.1935  0.1652 -0.2039
38018W        W81034  22.780   5.494  18.250  0.3572 -0.1430  0.1684
38019W        W81035  23.297   0.561  26.937  0.1581 -0.3591 -0.1022
38020W        W81036   4.926  10.875   0.771 -0.0528 -0.0922  0.0562
38021W        W81037  27.222  19.028  23.736 -0.0974  0.1964  0.2601
38022W        W81038  22.561  26.531   0.666  0.2226 -0.0749 -0.1720
38023W        W81039  26.365   2.865  23.293  0.2101  0.2295  0.2522
38024W        W81040  25.194  14.434  28.967 -0.1184  0.3343  0.1076
38025W        W81041   7.856  24.689  28.590  0.2174 -0.1181  0.1826
38026W        W81042   0.203  13.977  17.022 -0.2390 -0.1655 -0.1897
38027W        W81043   6.756  22.677  28.705  0.0834  0.1586 -0.3338
38028W        W81044  13.565  25.826  17.521 -0.2924 -0.1240  0.0910
38029W        W81045  25.336  18.119  26.777  0.0124 -0.0775  0.3476
38030W        W81046  18.701  10.384   1.698  0.1752 -0.0361  0.3396
38031W        W81047   1.496  19.694   8.146 -0.1687  0.2036  0.1688
38032W        W81048   6.451  10.312  15.691  0.1052  0.0358 -0.2804
38033W        W81049  24.473  16.170  18.380  0.2618 -0.3524 -0.2570
38034W        W81050  12.664  19.287  21.658  0.1394 -0.1702  0.0739
38035W        W81051  28.474  20.712  22.898  0.1149  0.1011  0.0228
38036W        W81052   0.750  14.337  15.286  0.1460 -0.2839  0.1800
38037W        W81053  17.719  22.680  14.617 -0.0122  0.1445  0.1283
38038W        W81054   1.171  14.566   2.027 -0.2378  0.2761  0.0589
38039W        W81055   2.032  20.882   9.626 -0.2696  0.0143 -0.1193
38040W        W81056  27.835   8.931  19.266 -0.0214  0.1445 -0.1416
38041W        W81057  26.754  26.302  21.953  0.1623  0.0557 -0.3425
38042W        W81058  15.779  29.643  16.190 -0.3429 -0.0857 -0.3215
38043W        W81059   0.993  18.289   9.096  0.4725 -0.5071  0.0180
38044W        W81060  25.431  29.639  27.898  0.0599  0.0357 -0.0799
38045W        W81061  17.580  10.329   2.708  0.0903  0.0338  0.1098
38046W        W81062  32.019   3.090  22.802 -0.0828 -0.0764  0.0204
38047W        W81063  29.452  12.726  16.041 -0.3886 -0.1886  0.1153
38048W        W81064  31.828  30.568  26.040  0.2784  0.0010  0.2955
38049W        W81065  24.279  18.703  24.349 -0.1675  0.0452 -0.1919
38050W        W81066  21.459  23.182  25.478 -0.0353  0.3862  0.3791
38051W        W81067  33.962  23.038   4.177  0.2580  0.0902 -0.1657
38052W        W81068   5.040  22.657  27.758 -0.1197  0.3078 -0.0823
38053W        W81069  29.313  16.881  18.007 -0.0528 -0.2147 -0.0096
38054W        W81070  12.589  34.704  25.931  0.1292  0.3505 -0.0538
38055W        W81071  27.923  20.479  11.271 -0.0379 -0.0933  0.2315
38056W        W81072  29.026  27.823   5.208  0.0781 -0.1283  0.3660
38057W        W81073  19.150  26.942  20.048  0.1141  0.2053  0.1600
38058W        W81074  21.008  22.925  23.644  0.1073  0.0564 -0.0517
38059W        W81075  21.001  10.738   1.635 -0.1711  0.0111 -0.4054
38060W        W81076  22.055   5.004  20.886 -0.2148 -0.0879  0.1822
38061W        W81077  24.874  19.901  21.957  0.0527 -0.2973 -0.3368
38062W        W81078   5.005  21.105  20.867  0.2525  0.0874  0.0786
38063W        W81079  17.477  23.708   1.560  0.0222  0.0540  0.1628
38064W        W81080  29.559  22.964   1.250 -0.0155 -0.2096  0.0775
38065W        W81081   8.197  19.948   2.698  0.0426 -0.1293  0.2146
38066W        W81082   3.307  28.278   4.111 -0.1138  0.0542  0.1422
38067W        W81083  28.775  19.115  25.376 -0.1574 -0.1709  0.0972
38068W        W81084  15.363   1.785  28.388 -0.0822  0.0922 -0.0251
38069W        W81085  16.055  13.145  15.922  0.2543  0.1215 -0.1835
38070W        W81086  31.909  31.320  28.292  0.3425 -0.1404 -0.4186
38071W        W81087  12.643  28.589   5.473 -0.1090  0.1916 -0.1122
38072W        W81088  30.326   2.539  28.454 -0.4099  0.0965 -0.1675
38073W        W81089  33.916  18.883   9.846 -0.1996  0.0666 -0.0098
38074W        W81090   3.603  33.275  22.168  0.4274  0.3794 -0.0685
38075W        W81091  24.754  18.078  20.273  0.0576 -0.0639  0.0385
38076W        W81092  31.401   6.373  20.367 -0.0261  0.0851  0.1463
38077W        W81093  33.902  14.308  17.045 -0.3668 -0.2827 -0.2006
38078W        W81094   2.220   7.566   1.755 -0.2381 -0.0216 -0.1713
38079W        W81095  26.819  21.734   1.512  0.1436  0.1451  0.0809
38080W        W81096  21.271  14.902  21.923  0.1658 -0.0387 -0.0604
38081W        W81097  29.836  32.506  19.511  0.2134  0.1993 -0.0969
38082W        W81098  20.682   9.675  16.790 -0.1902  0.0645  0.4170
38083W        W81099  15.862  12.551  13.029  0.2600  0.0613  0.2458
38084W        W81100  27.694  13.791  26.673  0.0308  0.2698 -0.0131
38085W        W81101  28.888  22.945  17.554  0.0360 -0.0175  0.1113
38086W        W81102  26.035  30.508  19.076  0.2014  0.0355  0.0857
38087W        W81103  20.117  19.710   9.343 -0.2284  0.0996  0.0530
38088W        W81104  34.037  17.859  14.987  0.2146 -0.1943  0.0999
38089W        W81105  11.652  22.943  22.576 -0.3199  0.2495 -0.0958
38090W        W81106  33.450  27.964  21.114 -0.2389  0.1487  0.2146
38091W        W81107  28.683  33.337   6.597 -0.0621  0.2883  0.1414
38092W        W81108  28.447   5.676  11.643  0.0985 -0.2755  0.1933
38093W        W81109  29.257  22.517  17.755  0.0340 -0.3035 -0.1392
38094W        W81110  34.753  10.808   3.667 -0.0650 -0.1073 -0.1265
38095W        W81111   0.152  22.859  19.536  0.0102  0.2025  0.2129
38096W        W81112  34.236  17.448  19.048 -0.1878  0.2508  0.2014
38097W        W81113  15.894  16.432   6.341 -0.2697  0.2814 -0.1298
38098W        W81114  12.779   7.302  25.869  0.1870  0.3551 -0.4438
38099W        W81115  21.282  12.718  21.950  0.2552  0.0904  0.0275
38100W        W81116  31.163  18.576   8.980 -0.1095 -0.2684  0.2178
38101W        W81117   3.192  29.864  16.976  0.0853 -0.0163 -0.0783
38102W        W81118  25.459  13.651  26.776 -0.4042 -0.1345 -0.0347
38103W        W81119  32.329  14.100   9.169  0.1255 -0.0637  0.2946
38104W        W81120  33.482  17.359  24.538 -0.0291 -0.1122 -0.1115
38105W        W81121  17.473  33.564  18.057 -0.2089 -0.2055 -0.3282
38106W        W81122  31.390  24.272  20.322 -0.2422 -0.2220 -0.2540
38107W        W81123   1.635  15.535  18.664  0.1064 -0.0753 -0.1204
38108W        W81124  31.550  22.455  11.298  0.1360  0.0981 -0.1784
38109W        W81125  10.700  31.461  22.105  0.0138  0.3079 -0.1462
38110W        W81126   7.116  28.622  14.639 -0.3617 -0.0682 -0.0559
38111W        W81127  17.125   6.405  19.146  0.1766 -0.0663  0.0116
38112W        W81128  25.997  14.779   3.963  0.0484  0.0293  0.3494
38113W        W81129  25.187   1.111  23.476  0.0944 -0.1757 -0.2020
38114W        W81130  33.094  26.280   8.184 -0.3041 -0.3612 -0.0920
38115W        W81131  27.314   2.248   1.067 -0.0561 -0.2868 -0.1889
38116W        W81132  17.264  11.426   4.461  0.1286 -0.0258  0.0127
38117W        W81133   0.298  14.568   6.076 -0.0403  0.2516  0.1842
38118W        W81134  12.249  19.839   0.926 -0.2336 -0.1582 -0.2326
38119W        W81135   6.008  21.397   0.066 -0.0769  0.1711 -0.2388
38120W        W81136  32.939  17.578   0.514 -0.0681  0.0936 -0.0664
38121W        W81137  22.156   8.312   3.562 -0.2051  0.0462 -0.1155
38122W        W81138  10.641   8.411   2.590  0.0946 -0.0559 -0.5649
38123W        W81139  18.950   9.851  23.393  0.1905  0.2584  0.0661
38124W        W81140   2.139  32.991  23.130  0.1344  0.1027 -0.2545
38125W        W81141  31.662  20.650  17.589  0.1712  0.2065  0.0452
38126W        W81142   6.115  33.242  24.539  0.0649 -0.1408 -0.1793
38127W        W81143  13.098  17.734  23.341 -0.0462  0.0077 -0.1744
38128W        W81144  15.297  25.179  26.050 -0.0063 -0.3089  0.1740
38129W        W81145  32.154   7.367  20.678  0.1087  0.0050 -0.1781
38130W        W81146  10.233  14.355  21.911 -0.0972 -0.0553 -0.1208
38131W        W81147   0.103   6.203  23.442  0.3237 -0.0480  0.4196
38132W        W81148   1.654  23.246  14.535 -0.2073 -0.2342  0.0639
38133W        W81149  27.505  15.762  15.363  0.2664 -0.4143  0.1443
38134W        W81150   6.579   8.902  26.535  0.1479  0.1549  0.2241
38135W        W81151  14.799  33.119   8.592 -0.1527 -0.3525 -0.2531
38136W        W81152  25.615  13.943   3.945  0.0325  0.1390 -0.0633
38137W        W81153  28.846   5.045  18.146 -0.1178  0.0805  0.2441
38138W        W81154  11.256  20.193  13.702 -0.1683 -0.2217 -0.0786
38139W        W81155  21.653  16.545  26.256 -0.0581  0.0244 -0.3091
38140W        W81156  31.451   8.280   3.622 -0.0342 -0.3459  0.1229
38141W        W81157   4.573  18.732   5.200  0.2814 -0.0429  0.0865
38142W        W81158   5.565   9.228  18.034 -0.1610  0.2377  0.2727
38143W        W81159  18.699  16.670   5.002  0.0597 -0.0593 -0.1384
38144W        W81160  32.030  34.629   2.119  0.1604 -0.2322 -0.1867
38145W        W81161  22.620  12.772  22.391 -0.1390  0.3169  0.2652
38146W        W81162  16.424   2.971   6.981 -0.3424 -0.2115 -0.0481
38147W        W81163  17.297  31.314   3.833  0.0279 -0.1716 -0.1465
38148W        W81164   7.628  27.891  16.919 -0.1553 -0.1051  0.1960
38149W        W81165  27.671  30.547  25.674 -0.0682 -0.0662  0.2319
38150W        W81166  34.254   2.786   2.952 -0.1118  0.0484  0.0217
38151W        W81167  33.647  13.218  23.238 -0.0215  0.3776  0.1307
38152W        W81168  18.664   8.461  27.049 -0.1152 -0.2061 -0.1522
38153W        W81169   0.924  13.206  27.652 -0.2056  0.3018 -0.0375
38154W        W81170  33.169   4.453   2.759  0.0344  0.3473  0.0133
38155W        W81171  10.551  15.761  25.205  0.1439  0.1493  0.0388
38156W        W81172   6.810  13.558  16.274  0.0406 -0.1064  0.1405
38157W        W81173  25.390  19.777  17.753 -0.2621 -0.2758  0.0124
38158W        W81174  22.707  25.158   1.045 -0.1018  0.0095 -0.3358
38159W        W81175  27.029  19.419  20.591  0.0508  0.0232  0.1557
38160W        W81176  30.779  28.765  28.605 -0.2511 -0.2047 -0.0563
38161W        W81177  25.962   3.764  28.807 -0.2007  0.0288  0.3340
38162W        W81178  20.083   2.241  19.525 -0.3418 -0.1280 -0.0631
38163W        W81179  21.595  32.389  14.297  0.1866  0.4134 -0.0204
38164W        W81180  12.342  20.609   1.333 -0.1359  0.0770  0.0674
38165W        W81181  29.212  32.622  20.801 -0.2610  0.1552 -0.1742
38166W        W81182  28.685  26.868   0.276  0.1960  0.0832  0.1202
38167W        W81183  20.652  20.776  22.920 -0.2130  0.3984  0.0540
38168W        W81184  23.560  10.708  23.610 -0.2121 -0.0719 -0.3648
38169W        W81185   3.218   7.177  21.822  0.1147  0.2351  0.1362
38170W        W81186   2.354  21.160  24.517  0.0084  0.1656  0.3225
38171W        W81187  14.514  20.478  22.815  0.1340 -0.0168  0.4112
38172W        W81188  29.227  12.147  23.686 -0.0497 -0.2611 -0.2554
38173W        W81189  27.027  25.652   4.077  0.0317 -0.1436 -0.0332
38174W        W81190   1.824  13.758   2.312 -0.0206 -0.4084 -0.0984
38175W        W81191  28.102  29.614  22.567 -0.0980  0.3288  0.1321
38176W        W81192  31.554  15.343   6.589 -0.1647  0.3232  0.0443
38177W        W81193  32.966   9.951   4.836  0.1415  0.0236  0.3409
38178W        W81194  34.760   4.580  28.216 -0.0290 -0.1163 -0.0858
38179W        W81195  27.515  18.141  18.607  0.1151  0.0178 -0.1882
38180W        W81196   3.528  30.984   5.291 -0.1016 -0.0296 -0.1603
38181W        W81197  32.539  16.367  26.440 -0.1182 -0.2723  0.1795
38182W        W81198  33.634  21.916  19.481 -0.0385  0.0886  0.0974
38183W        W81199   1.787  17.457  25.531  0.0656  0.0222 -0.0739
38184W        W81200   4.559   4.930  17.539 -0.1372  0.3538 -0.0209
38185W        W81201   7.319  16.915  22.024  0.2365  0.1783 -0.1429
38186W        W81202   8.015  18.728  26.013  0.1730 -0.0950  0.4509
38187W        W81203  33.980  17.721  29.283 -0.0181  0.2885 -0.3516
38188W        W81204   4.269  15.697   3.893  0.3070 -0.0902 -0.0766
38189W        W81205  17.098  30.711   0.783  0.0255  0.1593  0.2557
38190W        W81206  10.548  16.994   5.288 -0.0758 -0.3553  0.0663
38191W        W81207   6.413   5.311  21.503 -0.1442  0.0609  0.0503
38192W        W81208   6.845  13.347   5.616  0.0537 -0.4960 -0.1180
38193W        W81209  24.528   1.076  27.336  0.0507 -0.1433  0.1004
38194W        W81210  34.771   4.423  19.209  0.1023  0.0245  0.2051
38195W        W81211   0.530  22.308   1.708  0.3230 -0.1563  0.0847
38196W        W81212  25.941  14.575  26.225 -0.0643  0.1418 -0.3262
38197W        W81213  33.638  23.682  10.385 -0.0697  0.1004  0.1649
38198W        W81214   0.720  27.058  27.934 -0.0590 -0.0668 -0.0974
38199W        W81215  21.755  26.206  14.975 -0.0659  0.0465 -0.0411
38200W        W81216  12.765   5.651  27.629  0.0900 -0.0137 -0.3997
38201W        W81217   6.218  24.010  19.021 -0.1459  0.3362 -0.1030
38202W        W81218  31.467  20.592   0.569  0.0802 -0.0339 -0.2629
38203W        W81219  16.698  23.249  19.771  0.0912 -0.0798  0.0978
38204W        W81220  25.700   1.689   3.582 -0.0230 -0.1821  0.1637
38205W        W81221   5.548  18.941  27.248  0.3105  0.0559 -0.3077
38206W        W81222  22.723  28.943   4.478 -0.1240 -0.2018 -0.1909
38207W        W81223   8.819   7.779  16.783 -0.1639 -0.1511  0.1614
38208W        W81224  29.825  19.345  16.822 -0.2689  0.0172 -0.0028
38209W        W81225   6.013  13.483  29.106  0.2987 -0.2480  0.1665
38210W        W81226  28.750  19.331  15.588  0.1571 -0.1365  0.0037
38211W        W81227   0.238  15.730   9.947 -0.0428  0.1166 -0.2772
38212W        W81228   4.042   9.541  16.192  0.2711  0.1239  0.0779
38213W        W81229  19.158  34.301  26.563  0.1113 -0.0402 -0.0751
38214W        W81230   1.754  16.723  18.803  0.0532 -0.0476  0.0655
38215W        W81231  27.026  10.411   0.615  0.1369 -0.2285 -0.1963
38216W        W81232   0.028  24.283  15.726  0.3885 -0.0569 -0.1986
38217W        W81233  22.232   6.108   4.391 -0.0043  0.0565 -0.0912
38218W        W81234  31.010  23.414  27.868 -0.0676  0.0984 -0.0781
38219W        W81235  21.883   9.181  16.281 -0.0754 -0.0185 -0.0002
38220W        W81236   2.705  11.807   4.521  0.1758  0.2425 -0.0155
38221W        W81237  30.905   2.151   7.004  0.3647 -0.1793 -0.2395
38222W        W81238  26.891   0.653   8.768  0.1471  0.1700 -0.0758
38223W        W81239  32.049   2.935   3.843 -0.0152 -0.1027 -0.3357
38224W        W81240   8.018  13.239  28.680 -0.0592  0.3143  0.3413
38225W        W81241  11.545  32.939   5.467 -0.2223 -0.0499  0.1782
38226W        W81242  26.289  34.607   8.015  0.1099  0.0391 -0.0638
38227W        W81243  33.386  32.100  17.660  0.0022  0.0155 -0.0324
38228W        W81244   7.944  21.312  25.862  0.2351  0.0828  0.1825
38229W        W81245  16.455  24.759  24.068  0.0958 -0.0819 -0.1386
38230W        W81246  27.933  11.053   7.915  0.0879  0.0900 -0.0198
38231W        W81247   0.650   1.390  18.582 -0.0046  0.2833 -0.0432
38232W        W81248  33.499  11.309   2.372  0.0991 -0.1826  0.1830
38233W        W81249  34.262  14.792  15.429  0.1310 -0.6294  0.0935
38234W        W81250   5.579  18.761   5.397 -0.4172  0.2430 -0.1893
38235W        W81251  20.144   6.101  20.627  0.4526 -0.1253 -0.0340
38236W        W81252  12.065  20.785   7.382 -0.1117  0.0034 -0.4994
38237W        W81253  10.822   5.448   7.297  0.0774 -0.0555 -0.0687
38238W        W81254   9.708   2.731  14.801 -0.1319  0.2998  0.1268
38239W        W81255  11.384   0.143  21.984 -0.0213 -0.0009  0.0479
38240W        W81256  31.808  25.308   3.991 -0.0594  0.1810  0.0194
38241W        W81257  12.452  13.837  18.113 -0.3716 -0.0926 -0.0185
38242W        W81258   6.776   1.821  18.556  0.2413 -0.1564 -0.0234
38243W        W81259   0.220  26.012   7.464 -0.2081  0.0229 -0.5617
38244W        W81260  19.423  15.916  15.417  0.1390  0.3865  0.2258
38245W        W81261  33.466  12.719   1.401  0.1458 -0.1891  0.1798
38246W        W81262  25.053  17.992   7.731 -0.0537  0.0012 -0.0945
38247W        W81263  21.917  22.161   3.510  0.0200  0.0891  0.3272
38248W        W81264  28.156   9.943   0.714 -0.0574  0.2197  0.0649
38249W        W81265  33.122  16.966  22.202 -0.4106 -0.1175 -0.1786
38250W        W81266  21.223  23.906  17.031 -0.2063 -0.1106  0.2497
38251W        W81267   1.713   8.037   4.639 -0.2846 -0.0122  0.1942
38252W        W81268   0.796  29.432   7.638  0.2651  0.0033  0.2054
38253W        W81269  33.768  24.381  29.182  0.1787  0.0846  0.0493
38254W        W81270  21.812  25.122  15.428 -0.3305 -0.0713  0.1199
38255W        W81271  33.363  14.443  27.724 -0.0194  0.2070  0.2884
38256W        W81272  21.356  12.132   4.995  0.1054 -0.0266 -0.0185
38257W        W81273   0.254   9.449   8.180 -0.0549  0.1973  0.0671
38258W        W81274  28.969   6.876  23.230  0.0737 -0.0080 -0.0966
38259W        W81275  28.468  21.086   7.798  0.0848  0.4390  0.0994
38260W        W81276  16.200   3.036  27.341  0.0280  0.0811 -0.0857
38261W        W81277  17.859  25.992  27.620  0.2045  0.0682  0.0980
38262W        W81278  31.021  21.987  26.365  0.0983  0.1514 -0.2104
38263W        W81279   3.453  13.727   4.598  0.1039 -0.0629  0.0763
38264W        W81280  34.377  10.206   4.257  0.4860  0.1782  0.1099
38265W        W81281  22.640  29.836   7.840 -0.1301 -0.2227 -0.0028
38266W        W81282   3.590   3.397  24.624 -0.2449  0.1456  0.3132
38267W        W81283  21.961  16.963   3.675 -0.1406  0.1486 -0.2115
38268W        W81284   2.826  12.007  23.106 -0.1736  0.0364 -0.0629
38269W        W81285  28.003  20.639   2.475 -0.0911 -0.0847 -0.1607
38270W        W81286   0.492  31.572   4.371  0.4862 -0.2249 -0.2798
38271W        W81287   1.175  20.216   2.220  0.1573 -0.1940  0.0435
38272W        W81288  14.534   2.513  26.627  0.1945 -0.0285 -0.1689
38273W        W81289  27.910  24.574   3.330  0.0585 -0.1367 -0.1128
38274W        W81290  27.437  23.992  28.496 -0.0488  0.1938 -0.1560
38275W        W81291  28.665  11.684   7.176  0.1142 -0.0631  0.0918
38276W        W81292  23.864  17.375   1.818 -0.0725 -0.1809 -0.1630
38277W        W81293  34.025   6.278   4.228 -0.1721 -0.0404  0.2243
38278W        W81294   2.801  14.383   1.141  0.1248 -0.2421  0.0747
38279W        W81295   1.901   5.285  24.531  0.0527 -0.2076 -0.1481
38280W        W81296  28.515  26.146  28.728 -0.0112 -0.0282  0.1242
38281W        W81297  18.709   6.929   1.350  0.2219 -0.3282 -0.0290
38282W        W81298  28.336  23.603  28.195  0.2999  0.2574 -0.0695
38283W        W81299   1.239  22.184  23.655  0.2218  0.1367  0.1290
38284W        W81300   4.060   7.597  26.153 -0.1065  0.1127  0.1211
38285W        W81301  26.650  17.366   0.995  0.0277 -0.0447 -0.3727
38286W        W81302   9.209  30.831  27.395 -0.0110  0.1282 -0.1262
38287W        W81303  28.616   8.154   6.275 -0.2267 -0.0000  0.0265
38288W        W81304   0.228  20.938  25.247 -0.2412 -0.1888  0.0778
38289W        W81305  23.013  12.643   1.924 -0.0841 -0.0901 -0.2278
38290W        W81306  21.749  27.170  23.899  0.0990 -0.1526  0.0140
38291W        W81307  30.326  29.006   1.305 -0.0428 -0.1020 -0.0914
38292W        W81308   9.154   4.094  16.935 -0.1480  0.1732 -0.1050
38293W        W81309   7.403  12.063   5.522  0.2790 -0.2270 -0.1703
38294W        W81310  21.825  16.890   7.618  0.0474  0.1061  0.1693
38295W        W81311  28.669   7.648  28.112  0.1370  0.0823 -0.0034
38296W        W81312   4.476  10.290  22.758  0.1222  0.0318  0.0667
38297W        W81313  30.691  14.586  25.899 -0.2951  0.1266 -0.0744
38298W        W81314  30.715  11.497  23.814  0.2911 -0.1147 -0.0178
38299W        W81315  23.001  10.044  15.243 -0.0910 -0.2695  0.3346
38300W        W81316  26.220   6.793  18.954 -0.1090  0.1342 -0.2747
38301W        W81317  14.179  15.938   5.466  0.2785  0.0126  0.3294
38302W        W81318   2.726   9.429  17.488 -0.0658  0.3230 -0.1518
38303W        W81319   0.631  28.598   8.395  0.1301  0.1512  0.1208
38304W        W81320  28.529  28.600  18.768  0.0341  0.0974 -0.1175
38305W        W81321  33.028   7.598  27.131 -0.3096 -0.0759 -0.1716
38306W        W81322   4.061  30.709  20.650 -0.0245 -0.1083 -0.0530
38307W        W81323  23.715   9.908   2.725 -0.0221  0.0111 -0.1506
38308W        W81324  33.163   2.524  24.900  0.1628  0.1001 -0.1226
38309W        W81325  21.466  19.018   4.638  0.0828 -0.4178  0.3247
38310W        W81326  32.932  23.423   4.847  0.0522  0.0418 -0.1522
38311W        W81327   6.420  30.295  21.105 -0.2185  0.0508  0.2751
38312W        W81328  31.533  13.629  15.473  0.1308  0.0594  0.0510
38313W        W81329  28.179  32.717   6.373 -0.3723  0.0036 -0.0484
38314W        W81330   0.348  22.400   0.005  0.5585  0.0926 -0.2283
38315W        W81331  22.231  16.886  28.633 -0.3415 -0.2663 -0.1109
38316W        W81332   6.405   3.244   7.106  0.1215 -0.0494  0.2946
38317W        W81333  14.561  12.863   0.852  0.1891 -0.0330 -0.1462
38318W        W81334  23.617  28.625  20.136 -0.1676  0.0464  0.0201
38319W        W81335  28.976  18.728  25.895  0.0152 -0.4136 -0.2612
38320W        W81336  21.316  17.408  27.055  0.1590  0.0529 -0.1586
38321W        W81337  30.440  12.781   0.184 -0.3610 -0.1447  0.0885
38322W        W81338  28.476   8.928  15.461  0.0214 -0.0541  0.0958
38323W        W81339  24.485  12.944   6.934 -0.0986 -0.1573  0.0901
38324W        W81340   6.040  33.397   1.748 -0.1656  0.0928  0.2797
38325W        W81341  20.529   4.490  28.238 -0.1211 -0.3020 -0.1919
38326W        W81342   7.090  19.855  23.600  0.4355 -0.1052  0.0408
38327W        W81343   6.231   3.906  25.155 -0.0798 -0.2340 -0.0694
38328W        W81344  33.805   7.763   3.218 -0.0168  0.2251 -0.0246
38329W        W81345  12.314  24.950  28.033 -0.0724  0.0034 -0.1890
38330W        W81346  34.085  17.228  28.953  0.0023  0.0181 -0.0889
38331W        W81347  14.333  21.661  22.306  0.1052 -0.1304  0.2847
38332W        W81348   0.988  23.530  21.397  0.4336  0.2261  0.0581
38333W        W81349  14.885  12.733  26.514 -0.3595 -0.3011 -0.1901
38334W        W81350  28.151  24.297  26.508  0.1743 -0.0181  0.0296
38335W        W81351  10.920  19.387   6.401 -0.0332  0.1660 -0.1668
38336W        W81352   3.698  33.966   0.815  0.3843 -0.2199  0.0617
38337W        W81353  32.309  14.470   8.076  0.2123 -0.0278  0.1159
38338W        W81354   2.631  25.590   4.281 -0.2538 -0.2491  0.3257
38339W        W81355  23.617  18.204  26.240  0.3411  0.2042 -0.0813
38340W        W81356  34.445  23.993  15.033 -0.0192 -0.0749  0.0883
38341W        W81357  33.303   8.714  23.980  0.2344  0.2216  0.1805
38342W        W81358  32.424  27.954  28.079  0.1047 -0.2753  0.0398
38343W        W81359  34.078  15.354  23.478  0.1732 -0.2066 -0.5043
38344W        W81360  12.137  22.558  25.672 -0.0804 -0.0160 -0.1445
38345W        W81361   7.216  15.081  14.251 -0.0109 -0.0706  0.1670
38346W        W81362  11.882  25.894  22.092 -0.1384 -0.0841  0.0677
38347W        W81363  25.406  34.271   1.549 -0.0806 -0.0311  0.0546
38348W        W81364  25.282  17.787   8.224  0.0842 -0.1335  0.2139
38349W        W81365   1.663  19.779   2.406 -0.1593 -0.1852  0.2430
38350W        W81366  30.211  29.407  29.226 -0.1303  0.3037  0.1030
38351W        W81367   1.586  34.750   7.333 -0.2520 -0.1316  0.1647
38352W        W81368  30.850  23.260  26.061 -0.0738 -0.0331  0.1281
38353W        W81369   7.865  17.543  14.570 -0.0483  0.1196  0.4288
38354W        W81370   8.656  11.886  23.703 -0.0320  0.2314 -0.0259
38355W        W81371  26.979  14.950   7.346  0.2086 -0.0084  0.1142
38356W        W81372   5.086  34.327   9.792 -0.2380  0.3685  0.1705
38357W        W81373  10.843   7.038   7.363 -0.1641 -0.0623 -0.2929
38358W        W81374   6.733  23.499   8.246  0.0314  0.3742 -0.1188
38359W        W81375   8.005  29.661  27.867  0.0539 -0.4389 -0.0552
38360W        W81376  34.111  17.706  27.422  0.2796 -0.0788  0.0245
38361W        W81377   6.726  11.829  14.599  0.0722  0.1708 -0.0164
38362W        W81378   1.597  21.122  18.761 -0.0023 -0.1932  0.3058
38363W        W81379  34.005  15.475  21.851 -0.0644 -0.0009  0.0040
38364W        W81380  21.805  16.870  13.655 -0.3411 -0.0175  0.1220
38365W        W81381   6.768  13.185  22.993 -0.0206 -0.1672 -0.1333
38366W        W81382  28.555  24.240  16.379 -0.0828  0.0059 -0.0809
38367W        W81383   7.556   3.643  27.981 -0.0341  0.3147 -0.2752
38368W        W81384  32.766   5.587  16.024  0.0400 -0.1937 -0.3668
38369W        W81385  24.437  13.237   1.342  0.2359  0.0604 -0.0154
38370W        W81386  33.542  21.861  20.555  0.3915 -0.0188  0.3828
38371W        W81387  33.363  13.657  17.683  0.0145  0.0214  0.1369
38372W        W81388  17.404  16.928   1.490  0.0297  0.0593  0.3442
38373W        W81389  28.063  15.920  25.462  0.0302 -0.0331  0.1534
38374W        W81390   0.914  20.604  22.084  0.0782  0.1534  0.0764
38375W        W81391  31.341  18.714   8.516 -0.0907 -0.2079 -0.2594
38376W        W81392  26.644  17.675  19.407  0.2964  0.0691 -0.0078
38377W        W81393   8.486  23.472   7.145 -0.0347  0.1486  0.2602
38378W        W81394  33.288  33.243  11.226 -0.0969 -0.1540  0.0156
38379W        W81395  12.259  20.021  24.406 -0.2447 -0.1022  0.1824
38380W        W81396   9.141  12.150  27.949 -0.0802 -0.1609 -0.0602
38381W        W81397   1.305   3.092  21.520  0.1496 -0.1322  0.0100
38382W        W81398  23.782  11.065  26.318  0.1088  0.2914  0.1929
38383W        W81399  27.333   3.806   9.118  0.4898  0.0348  0.1757
38384W        W81400  14.222  11.657   9.395 -0.2435 -0.0635  0.1380
38385W        W81401  26.846  20.265  21.130 -0.1277  0.0874 -0.0913
38386W        W81402  31.221   6.425  26.325  0.0580  0.0078 -0.2279
38387W        W81403   1.206  17.947   5.427 -0.0535  0.2740  0.1190
38388W        W81404  24.840  19.987   5.352  0.2470 -0.1877 -0.3008
38389W        W81405  21.648  15.290  20.315 -0.1004  0.1916 -0.0899
38390W        W81406  23.203  25.180  24.113  0.0831  0.1743 -0.0220
38391W        W81407  20.119   4.787   5.694 -0.0791  0.0248 -0.2434
38392W        W81408  10.188  11.619  24.006  0.1909  0.2637  0.0045
38393W        W81409  34.561   9.046  26.377 -0.3707 -0.2242 -0.0315
38394W        W81410  25.545  11.460  26.948 -0.0468 -0.2411  0.0004
38395W        W81411  27.876  18.748  26.808  0.1150 -0.0427  0.2402
38396W        W81412   1.250  23.587   3.956  0.2045  0.2208  0.4109
38397W        W81413  32.014  10.337   0.048 -0.0822  0.1564  0.1927
38398W        W81414   2.726  20.105  25.436 -0.1289  0.2724  0.1108
38399W        W81415   9.501  31.733   1.896  0.0983  0.1069  0.0123
38400W        W81416   0.191  18.828  22.610  0.1401 -0.1658 -0.0857
38401W        W81417  32.053  27.851   2.313  0.2522 -0.3104  0.0137
38402W        W81418  17.996  22.299   2.435  0.1273 -0.0652  0.2001
38403W        W81419  23.814   0.130  23.279  0.3421  0.2707  0.2087
38404W        W81420  14.340  20.241  15.211  0.1812  0.2382  0.1314
38405W        W81421  22.438  14.197  16.538  0.1209 -0.1204  0.0015
38406W        W81422  22.960  23.378   3.545 -0.1644 -0.0962 -0.0083
38407W        W81423   6.982  13.621   6.364 -0.2096 -0.0890 -0.0339
38408W        W81424  24.200   9.006  17.832 -0.1101  0.3950 -0.1413
38409W        W81425  20.684  27.201  15.239 -0.1210  0.2009  0.1942
38410W        W81426   8.527   7.645   1.420 -0.2798 -0.0217  0.5825
38411W        W81427  10.883  18.024  21.576 -0.2347 -0.1407  0.0206
38412W        W81428  10.868  18.638  21.456 -0.2076 -0.1904  0.1826
38413W        W81429   8.770  15.862  16.106 -0.0892 -0.0935  0.2494
38414W        W81430   9.496  19.085  18.188  0.0814  0.1202  0.2473
38415W        W81431   4.151   7.054  16.489 -0.2652  0.0128 -0.1853
38416W        W81432  23.588  24.862  23.769 -0.1237  0.1062  0.3547
38417W        W81433  33.205  17.393   3.580 -0.0368  0.0582 -0.1428
38418W        W81434  31.828  31.217  27.132 -0.0458  0.1406 -0.2079
38419W        W81435  28.539  22.521  26.682 -0.4678  0.1044  0.1670
38420W        W81436   6.490  18.774  22.491 -0.2573  0.0767 -0.1876
38421W        W81437  31.640  12.113  18.758 -0.2106  0.1151  0.0187
38422W        W81438   0.013   8.061   3.120  0.1313  0.1350 -0.0410
38423W        W81439   7.905  25.456   6.140  0.1842 -0.1071 -0.1361
38424W        W81440  17.923   2.683   3.311 -0.3971  0.0678  0.1496
38425W        W81441   2.981   0.041  14.023 -0.1143 -0.0492 -0.1365
38426W        W81442  22.865  18.454  13.745 -0.1280  0.2973 -0.0235
38427W        W81443  29.611  19.751   5.106 -0.0637 -0.3883  0.0191
38428W        W81444  31.352   9.841  28.509 -0.0823  0.2594 -0.1810
38429W        W81445   1.461  14.441  28.968 -0.2203  0.2218 -0.0515
38430W        W81446   6.695   7.430   4.815  0.1517  0.1490  0.2409
38431W        W81447  12.145  25.170  15.308  0.1379  0.4189  0.4223
38432W        W81448  20.530  32.084  24.198 -0.1909 -0.2076 -0.2270
38433W        W81449  27.390  10.891  15.550 -0.2516  0.1747  0.0442
38434W        W81450  17.178  11.799   0.345 -0.3620 -0.0292  0.1656
38435W        W81451   4.357  32.036  22.923 -0.1997 -0.2576  0.2676
38436W        W81452   0.145   0.459  25.375 -0.3850  0.0371  0.0528
38437W        W81453   3.143  12.315  19.370 -0.2046 -0.6220 -0.2860
38438W        W81454  34.197  16.137  10.996 -0.1597  0.2690 -0.4303
38439W        W81455   0.761   6.716  16.631  0.3049  0.0977  0.0435
38440W        W81456  31.370  15.902   1.350 -0.2443  0.1277 -0.1899
38441W        W81457   0.998  24.500   5.499  0.3226 -0.4386 -0.5237
38442W        W81458   1.314  16.320  15.406  0.2737  0.0860 -0.0605
38443W        W81459  20.498  25.913   8.583 -0.1871  0.2759 -0.2676
38444W        W81460  34.024  17.818   6.184  0.0420  0.0371 -0.3625
38445W        W81461  18.599   8.912  25.392 -0.0850 -0.0760  0.3230
38446W        W81462  24.371   2.806  16.673 -0.1809 -0.1081  0.1749
38447W        W81463  22.071   9.285  20.315 -0.2723  0.1548  0.0711
38448W        W81464  29.686   2.263  27.552 -0.0455  0.2943 -0.2752
38449W        W81465  29.209   0.502   4.022  0.4724 -0.0227  0.0660
38450W        W81466  15.338  29.697  19.424  0.1034 -0.1633  0.0801
38451W        W81467  30.225  15.324  22.905  0.2067  0.0725  0.1024
38452W        W81468  28.612  25.963  27.758  0.2561 -0.0222  0.0873
38453W        W81469   2.719  20.710   1.811  0.2240 -0.2559 -0.0458
38454W        W81470  25.483  31.808   2.924  0.1636  0.1233 -0.3765
38455W        W81471  34.741  21.693  22.129 -0.1844 -0.0809  0.3706
38456W        W81472   0.145  19.546  27.030 -0.0429 -0.1181 -0.0207
38457W        W81473  21.619  26.792  22.483  0.0369 -0.0190  0.0258
38458W        W81474  29.671  11.814  14.372 -0.0810 -0.0138  0.2700
38459W        W81475  12.235  17.715  27.278  0.2476  0.0723  0.1209
38460W        W81476  11.468   7.517  22.282 -0.0714  0.0814  0.5681
38461W        W81477  30.617   7.031  21.967 -0.2271  0.3532 -0.1345
38462W        W81478  31.652  14.156  16.473  0.2118  0.2694 -0.0883
38463W        W81479  29.682  18.375   2.729  0.0026  0.2618  0.2531
38464W        W81480  29.663  15.070  14.462 -0.2618  0.2494 -0.0906
38465W        W81481  16.082  32.067   9.582  0.1649 -0.0654  0.0267
38466W        W81482  33.535  19.255   1.809 -0.0337 -0.3842  0.1964
38467W        W81483  30.626  30.046   5.023 -0.0699 -0.2110  0.2914
38468W        W81484  27.117  29.578  18.345 -0.0506  0.0330  0.0885
38469W        W81485  23.657  24.100  18.897  0.2044  0.3412 -0.0170
38470W        W81486  25.797  10.629  14.155  0.0082 -0.2442  0.1658
38471W        W81487   9.457  14.253   3.348 -0.0351  0.0081 -0.2570
38472W        W81488  21.825  21.920  27.714 -0.0245 -0.0682  0.4869
38473W        W81489   5.901  13.774   6.954  0.2745 -0.0513  0.0354
38474W        W81490   7.284  15.839   8.746  0.0586 -0.1251 -0.1081
38475W        W81491   0.567  24.687   6.465  0.0127  0.1544  0.3259
38476W        W81492  32.423  29.413   5.755  0.1055 -0.2898  0.2001
38477W        W81493  33.094  16.561  21.791 -0.0396  0.1511 -0.1715
38478W        W81494   9.493  17.350   9.399  0.1569 -0.1194 -0.0276
38479W        W81495  28.913   4.432  27.674  0.0843 -0.3141 -0.1065
38480W        W81496   3.917  11.631  20.290  0.1682 -0.0103  0.0141
38481W        W81497  27.641   0.645   1.148 -0.2040 -0.2786 -0.1049
38482W        W81498   2.221  12.753  27.197  0.2179  0.2200  0.0464
38483W        W81499   1.394  10.435  23.138 -0.0695 -0.0881  0.1597
38484W        W81500   1.520  25.471   8.003  0.1230  0.0792  0.1076
38485W        W81501   4.360  32.447  26.824 -0.0620  0.1795  0.3845
38486W        W81502  27.144  18.334  18.965  0.1264  0.0708 -0.2495
38487W        W81503   1.642  28.033   3.233 -0.0490 -0.1804 -0.1345
38488W        W81504  31.075   1.527  18.907  0.2055  0.0965  0.1091
38489W        W81505  26.113   9.403  25.908 -0.2725  0.3060  0.4070
38490W        W81506   2.527   1.881   8.224 -0.0221  0.0141  0.0877
38491W        W81507  22.714  34.669   0.643 -0.1127 -0.1546  0.0604
38492W        W81508  30.306  27.670  22.264  0.1122 -0.0952  0.0595
38493W        W81509   7.060  23.740   3.412 -0.3230  0.0540  0.4583
38494W        W81510  33.359   5.160   5.702  0.0822  0.1132  0.0868
38495W        W81511  17.205  23.363  21.766 -0.0652  0.3217  0.1553
38496W        W81512  28.774  16.176  28.656 -0.0792 -0.1872 -0.2072
38497W        W81513  27.856   7.869  18.755 -0.1139  0.0937  0.2439
38498W        W81514  26.115  33.140  25.719  0.1243  0.2527 -0.3428
38499W        W81515   5.130  13.387  22.446 -0.5485  0.0329 -0.1556
38500W        W81516  32.143  20.567   4.193  0.3681 -0.1547  0.3415
38501W        W81517   0.978  28.335  20.157 -0.0119  0.1476  0.2016
38502W        W81518  20.876  17.659  22.913 -0.0744 -0.3540  0.3290
38503W        W81519   6.072  30.976   4.704  0.1998  0.0468 -0.1082
38504W        W81520  11.776   8.464  25.815  0.1737 -0.1756 -0.1334
38505W        W81521  27.028   9.580  28.695 -0.1076 -0.1189 -0.2620
38506W        W81522  33.244  10.088  17.478 -0.3110 -0.0108 -0.2337
38507W        W81523  33.582  19.929  19.673 -0.1331  0.1951 -0.0836
38508W        W81524   1.037   5.174   6.451 -0.1559 -0.0963  0.1046
38509W        W81525  26.842  10.864   8.243  0.0491 -0.0208  0.0006
38510W        W81526  21.028  15.308  21.770  0.2892 -0.3069  0.3561
38511W        W81527   5.728  14.481  25.402  0.0824  0.4082  0.2898
38512W        W81528   0.988   0.062   4.015 -0.0406  0.1490  0.0187
38513W        W81529  21.007  20.950  20.135  0.0595  0.0780  0.2207
38514W        W81530  17.730  10.361   4.441  0.1719  0.0135  0.1215
38515W        W81531   9.014  32.014   1.179  0.2127  0.5186 -0.4419
38516W        W81532   2.653  18.997  20.611  0.0554 -0.1442  0.2963
38517W        W81533  33.073  20.847   4.786 -0.2241 -0.0097  0.4273
38518W        W81534   9.087  21.740  14.353 -0.3668 -0.0434  0.0115
38519W        W81535  27.166  25.140  17.154  0.0366 -0.1930  0.2853
38520W        W81536  21.314   7.626  19.893 -0.1201 -0.3263 -0.0554
38521W        W81537   6.955  30.512   0.187 -0.0529 -0.0138 -0.1038
38522W        W81538  18.159  27.196  22.309 -0.2006 -0.1588 -0.0598
38523W        W81539   0.625   9.779  21.301 -0.0573 -0.0437  0.3495
38524W        W81540  30.374   2.844  23.839  0.0817 -0.2004  0.1564
38525W        W81541  20.756  27.934   1.059  0.0695  0.2496  0.0293
38526W        W81542  25.172  10.446  23.071  0.0005  0.0056  0.2420
38527W        W81543   0.378  14.813  25.983  0.3414 -0.3098  0.1914
38528W        W81544  27.875  20.508  27.884 -0.0867 -0.0388  0.0957
38529W        W81545   7.648   3.431  10.089 -0.1058  0.0351  0.0461
38530W        W81546  27.412  20.862  20.497  0.1127  0.1785  0.2233
38531W        W81547   7.978   8.729   4.987 -0.1196 -0.1567  0.0306
38532W        W81548  15.217  27.337   9.021 -0.1776 -0.1465 -0.2175
38533W        W81549  32.486   1.217  28.599  0.1254  0.1364  0.2607
38534W        W81550  22.583  16.668  21.767 -0.0518  0.1109 -0.1198
38535W        W81551   6.507  24.930   2.742 -0.0376  0.0196 -0.2764
38536W        W81552  20.700   4.993  28.427  0.3322 -0.5400  0.4209
38537W        W81553   0.231  34.600   4.819  0.0149 -0.1911  0.0111
38538W        W81554   5.364  14.865   5.719  0.1987 -0.1893  0.0999
38539W        W81555  16.302  24.473  21.348 -0.1614  0.2440 -0.0088
38540W        W81556  32.067  32.276  28.070 -0.2641 -0.0017 -0.0595
38541W        W81557  15.015  20.341   6.953 -0.0577  0.2381  0.1189
38542W        W81558  30.793   4.734   3.672 -0.3390  0.1058  0.0418
38543W        W81559  32.433   4.118   4.097  0.0137  0.1767 -0.0009
38544W        W81560   5.226  16.427   3.625  0.0858  0.0479 -0.0408
38545W        W81561   5.470  22.009   3.403  0.0719 -0.0325  0.1294
38546W        W81562   4.270  27.272  28.839  0.1214 -0.0372 -0.0602
38547W        W81563   5.138  21.842  23.743  0.1161 -0.0817 -0.0846
38548W        W81564  19.232  10.942   5.713 -0.0857  0.0660 -0.0509
38549W        W81565   9.663  28.189   5.402 -0.1535  0.0973  0.1226
38550W        W81566  34.447  20.941  24.508  0.1468  0.1172 -0.1449
38551W        W81567   3.955   9.938  24.740  0.4383  0.2242 -0.0909
38552W        W81568  17.662  31.857   2.619  0.0865  0.1107 -0.0098
38553W        W81569  27.549  12.152  10.082  0.1998 -0.1455 -0.3700
38554W        W81570  20.623  14.044  22.836 -0.0455  0.3113  0.4955
38555W        W81571  30.581  17.196   7.919  0.0558  0.2953  0.0167
38556W        W81572   0.654  27.385   9.092 -0.2860 -0.0057 -0.0444
38557W        W81573   6.661  33.539   1.761 -0.0371  0.1861  0.2812
38558W        W81574   2.900  16.646  16.614 -0.0313 -0.0048  0.0555
38559W        W81575   0.531   7.161   7.041  0.1310 -0.0867  0.0101
38560W        W81576  15.803  14.579  24.826 -0.3364  0.2531  0.0469
38561W        W81577  20.272  16.021  14.183  0.3857  0.0227  0.2718
38562W        W81578  33.344  17.723   0.166 -0.0665  0.1148  0.0366
38563W        W81579   0.196  23.661  16.831 -0.0226 -0.0570  0.0590
38564W        W81580   3.617  25.516  29.308  0.3142  0.3845  0.2032
38565W        W81581  21.730  25.672  24.699 -0.1655 -0.1703  0.2796
38566W        W81582  17.031  25.858  27.922  0.0970 -0.0203  0.0980
38567W        W81583   0.967  11.421  14.967 -0.1735  0.2603 -0.3909
38568W        W81584  29.904  16.390  26.217 -0.0409 -0.0264 -0.1207
38569W        W81585  32.390  28.095   2.897 -0.1397 -0.3409  0.0079
38570W        W81586  22.953  18.937  17.778  0.0447  0.2983 -0.0660
38571W        W81587  30.793  16.847  26.416  0.0437  0.0687 -0.0198
38572W        W81588   8.064  33.673  17.992 -0.0604 -0.0072 -0.0747
38573W        W81589  26.643  18.281  24.729 -0.0842  0.1389  0.0088
38574W        W81590   2.542  33.777   1.575  0.2238  0.1409  0.0895
38575W        W81591   4.273  23.369  17.708 -0.2681  0.0749  0.2423
38576W        W81592  26.602  28.136   2.304 -0.2575 -0.1445 -0.1150
38577W        W81593   2.148  24.583  15.888 -0.0523 -0.1096 -0.1080
38578W        W81594   4.948  12.760  15.393  0.1321 -0.1502  0.2837
38579W        W81595   6.303  24.309  21.125 -0.2903  0.0579 -0.3212
38580W        W81596  11.518  18.798  17.794 -0.2301 -0.2160 -0.1040
38581W        W81597  15.982  30.167   6.952  0.0962 -0.0525 -0.0101
38582W        W81598  25.913  34.295   1.074  0.0394  0.0871  0.0758
38583W        W81599   8.627  21.951  12.917  0.1487  0.0136 -0.2289
38584W        W81600  13.061  24.869  16.825  0.2336  0.3421  0.2477
38585W        W81601   1.707  16.126  22.662 -0.2569 -0.1658 -0.0500
38586W        W81602  28.624  12.609  14.703  0.0851  0.0979  0.1717
38587W        W81603   1.341  22.481  28.280 -0.2227  0.3311 -0.3046
38588W        W81604  32.164  24.677   0.353 -0.1967 -0.0524 -0.2592
38589W        W81605  24.404   7.824  22.889 -0.1107  0.1113  0.3925
38590W        W81606  27.688  14.953  21.401  0.4016 -0.0963 -0.0653
38591W        W81607  11.622  31.248   0.700  0.0276 -0.0698 -0.1557
38592W        W81608   0.658  30.877  22.965  0.2117 -0.2196 -0.1307
38593W        W81609  25.546   5.533  15.368 -0.1220 -0.0742  0.2060
38594W        W81610  24.946  27.308  19.654  0.0641 -0.1233 -0.1490
38595W        W81611  33.591   7.797  20.706 -0.5702  0.3730 -0.1780
38596W        W81612   9.776  26.441  15.174  0.2913 -0.0023  0.1836
38597W        W81613  27.613   6.233  21.011  0.0570  0.0432 -0.0533
38598W        W81614   0.095  32.115   7.192 -0.3346 -0.1573 -0.2807
38599W        W81615  25.548  27.452  18.594 -0.1914 -0.0432 -0.3207
38600W        W81616   2.006  23.821  20.294  0.0759  0.1935  0.3081
38601W        W81617  24.235  19.290  17.346  0.0116 -0.0024 -0.0386
38602W        W81618  33.560  32.809  16.215 -0.1896  0.1191 -0.0810
38603W        W81619   9.907  12.885  18.892 -0.0620  0.1745 -0.1608
38604W        W81620  19.791  23.411  20.525  0.0310 -0.0919 -0.1606
38605W        W81621   6.748  29.013  26.450 -0.3615  0.1126 -0.4075
38606W        W81622  29.636   1.700  18.847  0.2236 -0.1088  0.2316
38607W        W81623  25.135  12.008  16.201  0.1731  0.0051  0.1391
38608W        W81624   1.848   1.801   1.382 -0.1178 -0.2913  0.2778
38609W        W81625  29.637  17.612  28.204  0.0312 -0.1118  0.2514
38610W        W81626   7.158  20.977  19.735 -0.0582 -0.2674  0.0046
38611W        W81627  30.785  33.542  17.930  0.0232 -0.0812  0.0512
38612W        W81628   8.595  19.341  12.814  0.0468 -0.1218 -0.0996
38613W        W81629   1.359  14.411  16.776 -0.0151 -0.4988 -0.0681
38614W        W81630   4.095  24.515  13.488  0.2359 -0.0042  0.2857
38615W        W81631   6.748  24.078  25.577 -0.0651  0.2056 -0.2014
38616W        W81632  29.648  33.910  17.595 -0.1925 -0.0341  0.3731
38617W        W81633   3.763   6.682  27.004  0.0297  0.1064 -0.0829
38618W        W81634  27.375  32.818  25.871  0.3613 -0.0958  0.2756
38619W        W81635  29.640  10.130  26.314 -0.1554 -0.0219  0.3091
38620W        W81636   3.160  33.344  22.502 -0.0394  0.3824  0.3508
38621W        W81637  30.935  15.206  17.665 -0.0218  0.1401 -0.0850
38622W        W81638  26.765  30.973  21.015 -0.1019  0.0768 -0.0633
38623W        W81639   3.942  14.083  15.851  0.0688  0.1641 -0.0588
38624W        W81640  32.542  32.095  22.159  0.1602  0.1058 -0.2061
38625W        W81641  21.778  32.086  20.156  0.1870  0.1627  0.0456
38626W        W81642  27.614  20.168  23.093 -0.1849 -0.1548 -0.0791
38627W        W81643  18.627  21.989  16.385  0.2798  0.0196 -0.1233
38628W        W81644  24.245  18.161  21.785  0.0902  0.0919  0.4185
38629W        W81645   4.374  28.492  18.985  0.1345 -0.1234  0.0272
38630W        W81646  18.554  19.771  22.577  0.2880 -0.0675 -0.3245
38631W        W81647  24.785  19.021  20.024  0.0854  0.0992  0.0362
38632W        W81648  33.577   1.928  24.910  0.0837  0.0183 -0.0347
38633W        W81649  24.731  17.654  19.737 -0.0614 -0.0842  0.0582
38634W        W81650  27.742  24.310  26.961  0.2331  0.4446 -0.0575
38635W        W81651   8.621  23.836  23.422  0.1074  0.0538 -0.4148
38636W        W81652  18.612  18.864  15.253 -0.2641  0.2257 -0.3212
38637W        W81653   1.034  26.355  17.192  0.1855  0.1093 -0.0115
38638W        W81654   4.936  24.327   0.807  0.0984 -0.2317  0.0426
38639W        W81655   1.959  14.952  19.353  0.2178  0.2113 -0.0347
38640W        W81656  29.185  20.254  24.887 -0.3935  0.0864 -0.1252
38641W        W81657  17.922  31.720   0.939  0.3600  0.3369  0.3499
38642W        W81658  32.311  13.434  14.799  0.0805  0.0357  0.0643
38643W        W81659  30.634  24.311  18.734 -0.0570  0.1818  0.1909
38644W        W81660   2.442  26.077  22.797  0.2558  0.1416  0.1681
38645W        W81661   6.853  33.065  15.323 -0.0596 -0.3658  0.3632
38646W        W81662  26.896  21.158  28.128 -0.0606 -0.1718 -0.0806
38647W        W81663   2.268  30.724  14.693 -0.0944  0.1516 -0.1120
38648W        W81664  33.703  22.542   0.375  0.3696 -0.1355  0.1703
38649W        W81665   2.914  18.282  15.980 -0.1271 -0.0899  0.0457
38650W        W81666   6.870   0.483  26.935 -0.1164 -0.0242  0.1028
38651W        W81667   3.110  21.144  14.866 -0.0133 -0.3702  0.0775
38652W        W81668  13.207   5.720  15.200 -0.2050  0.0464  0.0773
38653W        W81669  12.162   6.507  17.832 -0.1274  0.0312  0.1144
38654W        W81670   9.337  30.383  13.012  0.2172  0.3667 -0.0173
38655W        W81671   3.844  32.147  22.645  0.0166  0.1423 -0.0757
38656W        W81672   1.299  34.184  14.914  0.0529 -0.3449 -0.1514
38657W        W81673   1.569  15.149  20.543  0.2823  0.3030  0.2488
38658W        W81674   2.040  18.112  21.539  0.0818  0.2975 -0.2646
38659W        W81675  13.143  17.119  29.320 -0.1363 -0.3456  0.2612
38660W        W81676  30.186   3.840  22.834  0.5632 -0.0935 -0.0169
38661W        W81677  33.565  23.979  24.992  0.1468 -0.0870 -0.1948
38662W        W81678   3.321  19.669   9.563 -0.0718  0.0044  0.0724
38663W        W81679   7.353  27.532  16.064 -0.3015 -0.1882  0.2064
38664W        W81680  26.205   8.538  17.336  0.1231  0.1187  0.1912
38665W        W81681  30.619  18.014  18.351  0.0407 -0.0758 -0.0251
38666W        W81682   2.044  31.324  26.642  0.0346 -0.0869  0.3460
38667W        W81683   6.346  25.447  14.448 -0.4130  0.2264  0.1442
38668W        W81684  25.637  26.268  16.380 -0.2469  0.1356 -0.3195
38669W        W81685  26.753  18.424  16.760 -0.0336 -0.1158  0.0500
38670W        W81686  26.312  16.216  14.108  0.2936 -0.0720 -0.1017
38671W        W81687  27.847   8.661  25.710 -0.0571  0.3227 -0.0095
38672W        W81688   1.422  21.543  18.591  0.2475 -0.0160 -0.1777
38673W        W81689  30.858   3.973  19.017 -0.0579 -0.2433 -0.0732
38674W        W81690  25.721  18.602  18.176 -0.2882 -0.0959 -0.1801
38675W        W81691  32.715  29.631  16.818 -0.1338 -0.0153 -0.1756
38676W        W81692  19.994  20.340  25.685  0.0258 -0.0709  0.0758
38677W        W81693  34.183  17.037  18.739  0.2174  0.1525  0.1892
38678W        W81694  31.955   3.868  14.865  0.1590  0.1689 -0.1171
38679W        W81695  30.365  22.575   8.914 -0.2037 -0.1217 -0.3109
38680W        W81696  25.553  33.741   1.752 -0.0863 -0.3517  0.2951
38681W        W81697  18.398  18.421   4.550  0.1758 -0.0985  0.0280
38682W        W81698  32.776  23.068   7.559  0.2069 -0.2462  0.0213
38683W        W81699  13.661  25.767  27.591  0.1706 -0.1709  0.0829
38684W        W81700  29.270  23.738   3.423 -0.0188  0.1018 -0.1280
38685W        W81701  31.226  12.205   5.629 -0.0046  0.3043  0.1144
38686W        W81702   4.110  11.165  15.191 -0.0237  0.1578 -0.1773
38687W        W81703  32.905  28.783  16.159 -0.0365 -0.4788  0.2028
38688W        W81704  15.575  27.996   2.827 -0.0991  0.0816 -0.2492
38689W        W81705   5.735  22.019  12.905  0.0678 -0.0172  0.0090
38690W        W81706  24.609   8.935  21.601 -0.0351 -0.0522 -0.2617
38691W        W81707  12.464  14.222   3.516 -0.1814 -0.0836 -0.1206
38692W        W81708  11.379  21.046  13.506 -0.0098  0.0087  0.2016
38693W        W81709   6.131  16.423   6.540  0.1698 -0.3613  0.0481
38694W        W81710  30.655  19.208  27.758 -0.2216 -0.0294  0.0300
38695W        W81711   2.075  25.692  14.568  0.3366  0.1315 -0.0793
38696W        W81712   7.917  11.222  27.941 -0.2746 -0.4398  0.3269
38697W        W81713  17.650   7.459  23.710 -0.5496 -0.0319  0.0379
38698W        W81714   4.288   0.956  23.715 -0.1447 -0.0096  0.0231
38699W        W81715  26.501  30.649  25.766  0.0699  0.1963  0.4981
38700W        W81716   8.841  21.357  20.247 -0.3486  0.0948  0.1971
38701W        W81717  29.413  13.551  23.826 -0.0154  0.1251  0.0701
38702W        W81718   4.078  10.216  17.523  0.1585  0.0441 -0.0180
38703W        W81719  33.708  33.148  26.721 -0.1153 -0.0812  0.0309
38704W        W81720  26.048  22.482  15.346  0.0677 -0.0165  0.3183
38705W        W81721  29.099  13.641  27.658  0.1217 -0.0949  0.2016
38706W        W81722  33.117   2.970  19.608  0.0012 -0.1714  0.0567
38707W        W81723  30.646  14.952  17.288 -0.0945 -0.1411 -0.3244
38708W        W81724  25.612  25.823  27.507 -0.2726  0.2951  0.0711
38709W        W81725  33.750  26.957  24.903 -0.0694  0.2081 -0.0019
38710W        W81726  26.980  21.201  22.292 -0.2668  0.0143 -0.0931
38711W        W81727  15.000   8.321  24.441  0.4931  0.1179  0.0975
38712W        W81728  30.375  19.715  18.271 -0.0118 -0.1009 -0.0021
38713W        W81729  23.856  23.428  28.887  0.4404 -0.2027 -0.1393
38714W        W81730  33.218  13.615  26.509 -0.1878 -0.0982 -0.2059
38715W        W81731  15.371  11.851  12.912  0.0339 -0.3565  0.0773
38716W        W81732  26.658  26.336   3.470  0.1775 -0.1871  0.1437
38717W        W81733  11.702  11.239  19.926 -0.3338  0.0789  0.0864
38718W        W81734  31.416  27.740  22.265  0.1331  0.0728  0.3132
38719W        W81735  23.386  25.047  15.619 -0.0302 -0.0897 -0.1511
38720W        W81736  25.496  28.228  23.904 -0.0279 -0.1561  0.4252
38721W        W81737   8.540   3.850  25.472  0.2858 -0.3197 -0.0421
38722W        W81738   8.094  23.438  16.413  0.0082 -0.0036  0.0570
38723W        W81739  26.244   3.342  15.539  0.2493  0.0460 -0.0526
38724W        W81740  30.359  11.709  20.541 -0.1519  0.0671 -0.2623
38725W        W81741  26.033  21.173  28.779  0.0951  0.0057 -0.2423
38726W        W81742  26.548  31.425  25.353  0.4531  0.0279 -0.3616
38727W        W81743  26.705  18.009  16.397  0.0196 -0.1374  0.0650
38728W        W81744   1.110  26.892  17.037 -0.0121 -0.0030  0.2378
38729W        W81745   0.450  24.204   6.614  0.0898 -0.0210 -0.2622
38730W        W81746  25.093  20.849  24.704  0.2532  0.0108 -0.1711
38731W        W81747   5.972  14.280  24.929  0.2339  0.0388 -0.2017
38732W        W81748  25.536   7.181  23.706  0.1140 -0.1416 -0.3091
38733W        W81749  25.556  26.812  23.743 -0.0527 -0.2520  0.1388
38734W        W81750   7.693  30.843  20.631 -0.0458 -0.0516  0.0792
38735W        W81751  32.073  34.418  17.873  0.0483  0.1183 -0.0906
38736W        W81752  31.132  10.079   0.158  0.0502  0.2980 -0.1212
38737W        W81753   9.681   9.231  17.198 -0.0093  0.1090 -0.0672
38738W        W81754  16.648   8.549  13.542 -0.0995 -0.2289  0.0573
38739W        W81755   5.475  30.892   3.125  0.0168 -0.3026 -0.0837
38740W        W81756  33.440   1.395  16.421  0.2075 -0.0775  0.0149
38741W        W81757   9.409   2.994  20.428  0.0981  0.0591 -0.1134
38742W        W81758  29.815  19.694  19.792  0.0517 -0.3043  0.2034
38743W        W81759   5.486  23.648  19.829 -0.0665  0.3895  0.0026
38744W        W81760  22.943  17.750  28.698  0.0641  0.4652 -0.0177
38745W        W81761  26.198  12.443  20.956 -0.1855 -0.2252 -0.0948
38746W        W81762   3.741   5.828  25.962 -0.4453 -0.0452 -0.0938
38747W        W81763  30.330  14.774  15.590 -0.0969  0.3720  0.2909
38748W        W81764  29.649  11.595   3.716  0.0288 -0.0561  0.1170
38749W        W81765   4.008  22.587  16.014 -0.0571  0.1802  0.0368
38750W        W81766   2.512   9.002  20.130  0.2184  0.1532  0.2903
38751W        W81767  25.682  17.504  15.634  0.1911 -0.0002  0.1158
38752W        W81768   3.310  24.902  18.667  0.0647 -0.0799 -0.0678
38753W        W81769  25.864  14.070  19.333 -0.0778 -0.0160 -0.0071
38754W        W81770   7.517  16.340  20.477 -0.2944  0.0782 -0.5512
38755W        W81771  13.596  15.915  16.324  0.1258  0.3366 -0.0249
38756W        W81772  30.698   7.861   1.511  0.0852 -0.0454 -0.2967
38757W        W81773  27.976  21.051  23.010  0.0602 -0.1762  0.0578
38758W        W81774  22.605  31.991  28.097  0.0757 -0.0145 -0.1773
38759W        W81775  10.322  31.030  13.620  0.2444  0.3535  0.1572
38760W        W81776  18.773  20.447  14.920 -0.0094 -0.1881  0.1196
38761W        W81777   8.286  29.343  24.013 -0.0776 -0.2196 -0.0880
38762W        W81778  24.480   1.608  14.889  0.0031 -0.0877 -0.1027
38763W        W81779  25.705  28.680  16.379  0.1296 -0.0073  0.3201
38764W        W81780  34.504  15.283  15.448  0.1155  0.0081  0.2353
38765W        W81781  21.937  15.041  21.165 -0.1253 -0.2717 -0.1521
38766W        W81782  18.858  22.316  14.331 -0.0289 -0.2324  0.1590
38767W        W81783   2.071   5.792   6.432 -0.5840  0.0150 -0.1670
38768W        W81784  10.987  10.709  20.317 -0.1407 -0.1217  0.1880
38769W        W81785   3.086  12.445  23.294 -0.0770 -0.2405 -0.1017
38770W        W81786  33.793  33.096  16.568  0.1232  0.4960  0.2303
38771W        W81787  29.733  18.559  15.240 -0.2897 -0.1015  0.1149
38772W        W81788   5.841   4.433  16.194  0.0308  0.1077 -0.0463
38773W        W81789   7.003  24.374  18.911 -0.0182 -0.2457 -0.0573
38774W        W81790   0.086  26.347  25.353  0.0379  0.0339  0.2568
38775W        W81791   7.407  21.678  14.234  0.2789  0.0021 -0.1794
38776W        W81792   2.847  19.622  26.751  0.1554  0.2143 -0.0372
38777W        W81793   0.532   5.553  25.198  0.1925 -0.1482 -0.2342
38778W        W81794  31.158  10.657  25.841  0.0867  0.1603  0.2467
38779W        W81795  26.002   8.106  24.599  0.1085 -0.0442 -0.2621
38780W        W81796  13.054  14.414  22.392  0.2678 -0.5081 -0.0045
38781W        W81797   4.348  27.539  22.910  0.1651 -0.3722 -0.0697
38782W        W81798  24.077  15.826  19.955  0.1156 -0.0612  0.0722
38783W        W81799  18.717  33.822  16.366  0.0180  0.1934 -0.2638
38784W        W81800  12.358  18.545  19.696  0.2250 -0.1167 -0.2854
38785W        W81801  32.709  33.868  24.726 -0.1138  0.1766  0.4480
38786W        W81802   8.063   9.160  23.421 -0.1584 -0.0368  0.0698
38787W        W81803  33.051  14.017  20.145 -0.3548  0.1442 -0.2654
38788W        W81804  15.181  23.059  12.647  0.1602 -0.0228 -0.0659
38789W        W81805   8.864  14.668  21.847 -0.0216  0.1307  0.3308
38790W        W81806  30.310   0.375   4.026 -0.2782  0.2704  0.1971
38791W        W81807  34.292  33.600  21.930 -0.0197  0.1402 -0.2021
38792W        W81808  19.404  33.167  16.898 -0.1334  0.0734  0.0623
38793W        W81809  32.471  28.832   1.902  0.1064  0.2700 -0.0127
38794W        W81810   5.824  29.578  14.414  0.0078  0.1596  0.2516
38795W        W81811  19.379  14.184  12.438 -0.0962 -0.0436  0.4316
38796W        W81812  24.968  26.563  18.529  0.1995  0.0583 -0.0318
38797W        W81813  30.251  24.846  24.584 -0.3502 -0.0957  0.1053
38798W        W81814  32.698   0.055  27.427 -0.0374 -0.1785 -0.0864
38799W        W81815   4.204  28.183  16.128  0.0333  0.1505  0.3261
38800W        W81816   0.969  25.246  17.973  0.3821 -0.0856 -0.1427
38801W        W81817  10.665  11.134  16.099  0.1450  0.2262 -0.0519
38802W        W81818  20.635  13.606  13.411 -0.2588 -0.1924  0.1155
38803W        W81819  13.710   4.540  23.921  0.2043 -0.2803  0.3122
38804W        W81820  32.681  14.835  18.933 -0.3274 -0.1616  0.0156
38805W        W81821  10.352   9.658  26.396  0.1296  0.2100 -0.2432
38806W        W81822  27.862   5.027  28.771 -0.0822  0.4321  0.1411
38807W        W81823  10.657  22.828  16.965 -0.0072 -0.5527 -0.2204
38808W        W81824  31.511  19.436  18.512 -0.2181 -0.0555 -0.1822
38809W        W81825  33.715   5.632   7.962  0.0826 -0.0810 -0.1132
38810W        W81826  33.933  32.240  27.766  0.0222 -0.0883 -0.0308
38811W        W81827   1.295  13.874  24.724  0.0782 -0.0822 -0.1013
38812W        W81828  29.829  15.952  17.293 -0.3146 -0.0614 -0.2012
38813W        W81829  29.864  14.275  26.109 -0.0423 -0.0562  0.1802
38814W        W81830  13.748  25.450  20.224 -0.0743  0.0931  0.1463
38815W        W81831  14.826  10.770  12.148  0.0270 -0.0939  0.2277
38816W        W81832  32.899  21.901  15.834 -0.0523 -0.2453  0.3061
38817W        W81833   4.173  18.435   2.697 -0.0132  0.0114  0.0654
38818W        W81834  27.502  21.243  15.556  0.0227  0.3849  0.1670
38819W        W81835  24.567  26.249  16.224  0.0896  0.2204  0.1327
38820W        W81836  27.636  16.637  25.109 -0.1820 -0.3748 -0.0837
38821W        W81837   9.118  20.162  22.728 -0.2748  0.2452  0.0539
38822W        W81838   0.218  19.901  20.278  0.1145 -0.1403 -0.1103
38823W        W81839  30.828  17.674  20.358 -0.0755 -0.1776 -0.2226
38824W        W81840  10.137   4.478  20.254 -0.0285 -0.1636  0.1185
38825W        W81841  29.603  10.312  20.003  0.1958  0.1368 -0.4219
38826W        W81842  12.748  31.039  16.688  0.1524  0.0869  0.2937
38827W        W81843  11.147  10.348  15.447 -0.1453  0.0979  0.1037
38828W        W81844  31.491  26.364  15.051 -0.0946  0.3049 -0.0966
38829W        W81845  17.337  30.955  18.473  0.0747  0.2585 -0.0753
38830W        W81846   6.830   9.246  16.572  0.1885 -0.1193 -0.3748
38831W        W81847  23.916  19.437  28.724  0.0041  0.2471 -0.3136
38832W        W81848   6.089  26.616  26.209  0.2580 -0.2592 -0.2520
38833W        W81849  27.599   2.878  26.288 -0.2565 -0.0479  0.0129
38834W        W81850  23.958   9.153  22.359  0.0970 -0.0544  0.0439
38835W        W81851  21.592  14.876  27.105 -0.1209 -0.0527 -0.0062
38836W        W81852  17.456  24.166  15.207 -0.0458  0.3086 -0.2099
38837W        W81853   0.280  13.910  16.020 -0.0302  0.1091  0.2216
38838W        W81854   5.290   3.121  19.932 -0.0923  0.2639 -0.2382
38839W        W81855   2.522  10.664  14.598  0.1537 -0.0597  0.3124
38840W        W81856  21.048  24.540  16.826  0.1390  0.2352 -0.0803
38841W        W81857  33.741   9.171  25.365 -0.0430  0.0009 -0.3478
38842W        W81858   3.573   2.351   0.121  0.3015  0.0034  0.0370
38843W        W81859  34.210  16.582  20.351  0.0798 -0.1761  0.2185
38844W        W81860  31.931   9.479  17.407  0.0349 -0.1769  0.0020
38845W        W81861   2.962   8.714  19.847 -0.0899  0.0921  0.1619
38846W        W81862  29.942  14.436  15.593  0.0845 -0.3087  0.1125
38847W        W81863  31.607  15.966  22.204 -0.3371  0.2902  0.1159
38848W        W81864   3.803   3.968  29.004 -0.0414  0.1659 -0.2236
38849W        W81865  24.948   8.709  17.346  0.3159 -0.0419  0.0486
38850W        W81866  14.482   1.663  25.826 -0.2617  0.0789 -0.0608
38851W        W81867   1.420  22.555  17.185  0.1126  0.0378 -0.2875
38852W        W81868  29.847  19.391  25.861  0.1046  0.1387 -0.1855
38853W        W81869   0.838  31.099  18.860 -0.0187 -0.1492  0.0980
38854W        W81870  16.976  11.137  20.571  0.0200 -0.0303 -0.3217
38855W        W81871  28.928  22.831  25.768 -0.2449 -0.0716 -0.3639
38856W        W81872  33.078  21.176  19.965  0.0446  0.0452 -0.2992
38857W        W81873   0.761   5.885  22.796  0.1855  0.1202  0.1748
38858W        W81874  21.276  21.143  14.687  0.2171 -0.0621  0.2026
38859W        W81875  18.738   7.769  20.684  0.1333  0.0257 -0.2224
38860W        W81876   3.500  16.030  14.755  0.0442  0.2140 -0.0033
38861W        W81877  27.746   2.606   5.663  0.4499 -0.2653 -0.0462
38862W        W81878  20.538  10.526  12.311 -0.4315  0.0239  0.1127
38863W        W81879  24.816   9.266  19.759 -0.0035 -0.0316 -0.0455
38864W        W81880  29.173  29.575  10.389 -0.0870 -0.0602 -0.2165
38865W        W81881  31.372  22.834  25.336 -0.3910  0.0438  0.1927
38866W        W81882  12.953  22.361  19.312 -0.0034  0.2373  0.1309
38867W        W81883  16.461   8.726  17.158 -0.2512 -0.1981  0.0749
38868W        W81884   4.520  22.873  18.651 -0.0788  0.0665  0.2222
38869W        W81885  34.590   1.938  16.220 -0.2593  0.1746 -0.1021
38870W        W81886  30.424  19.126  17.765 -0.0191 -0.1660 -0.3769
38871W        W81887  24.793  28.848  17.305 -0.1008 -0.0990  0.2550
38872W        W81888  30.980   9.210   3.670 -0.1465  0.1474 -0.0772
38873W        W81889   9.850  17.434  18.869 -0.0145 -0.3558  0.0427
38874W        W81890   4.198  30.840  19.634 -0.0113  0.3330 -0.0069
38875W        W81891   3.937  25.828  21.187  0.1800  0.0232  0.3001
38876W        W81892  15.029  29.367  17.083  0.1643 -0.2642 -0.1795
38877W        W81893  22.978  17.433  18.157 -0.3763 -0.0168  0.0235
38878W        W81894  32.047  20.991  23.755  0.2609  0.1524  0.1156
38879W        W81895   3.060  28.031  21.186 -0.0535  0.0149 -0.1476
38880W        W81896  20.146  21.481  16.420 -0.3664  0.0712 -0.0261
38881W        W81897  15.800  27.416  23.582 -0.2194  0.5145 -0.4850
38882W        W81898  32.374  32.274  20.402  0.1285 -0.3393 -0.1991
38883W        W81899   5.804   0.164  13.699 -0.1904 -0.3654  0.0157
38884W        W81900  15.090  18.252  22.552  0.0393  0.1139 -0.0782
38885W        W81901  24.923  13.973  20.121  0.1298 -0.1312 -0.0881
38886W        W81902   9.803  18.745  16.980  0.1598  0.1573 -0.1849
38887W        W81903   9.367  14.488  13.837  0.0126  0.0991 -0.3150
38888W        W81904  31.413   9.238  19.978 -0.2415  0.0637 -0.1887
38889W        W81905   8.342  14.118   7.573 -0.0088 -0.2092 -0.0538
38890W        W81906  14.170  26.486  23.534  0.2738 -0.0245  0.1148
38891W        W81907   9.205  27.488  20.516  0.3675 -0.0336  0.1070
38892W        W81908  33.317  15.253  16.964 -0.1477  0.2485 -0.2514
38893W        W81909   4.974  32.368   3.565  0.1115 -0.3840 -0.0925
38894W        W81910  13.488  10.696  13.513  0.3146  0.1488  0.0071
38895W        W81911  30.065   4.254  18.300  0.2008 -0.3822 -0.1034
38896W        W81912   3.872  21.036  25.131  0.1322  0.2014  0.0588
38897W        W81913  23.933  18.643  22.572 -0.0546 -0.0477  0.2413
38898W        W81914  24.756  22.995  22.211  0.0508  0.1060 -0.1454
38899W        W81915   2.831  23.563  21.128  0.1446 -0.0307  0.0867
38900W        W81916  25.944  25.495  21.137 -0.2077  0.0039 -0.0334
38901W        W81917  21.177  24.913  18.731  0.0428  0.0700 -0.2140
38902W        W81918  32.973  23.460  17.360 -0.1528  0.1560 -0.0289
38903W        W81919   0.477  16.489  18.062  0.2752 -0.3510 -0.2738
38904W        W81920  27.881  21.980  23.156  0.0437 -0.1622  0.0648
38905W        W81921   0.231  28.194   9.979 -0.1163  0.3252 -0.3847
38906W        W81922  18.815  11.993  26.670 -0.4778  0.1164 -0.3664
38907W        W81923  26.148  28.164  18.134  0.1169  0.1139  0.1544
38908W        W81924   1.286  11.511   1.995 -0.4283 -0.2023 -0.2536
38909W        W81925  34.741  26.765  14.649 -0.0946 -0.2381 -0.1228
38910W        W81926  24.740  24.474   1.777  0.0035  0.1260 -0.0549
38911W        W81927   2.199  28.661  29.194 -0.0741  0.1712 -0.1914
38912W        W81928  31.744  26.743  24.035 -0.1414  0.2397  0.2621
38913W        W81929  26.005  18.368  27.878 -0.1295 -0.0402 -0.1754
38914W        W81930  31.614  15.725  29.062  0.2167  0.3129 -0.0042
38915W        W81931  33.840   6.690  20.326  0.0025 -0.0395  0.1362
38916W        W81932   4.294  16.213   7.964 -0.0054 -0.0922 -0.1433
38917W        W81933  27.408   3.408  15.666 -0.2520  0.1773  0.0801
38918W        W81934  20.624  25.561  16.942 -0.2221 -0.0576  0.2535
38919W        W81935   7.254  22.826  20.219 -0.0231 -0.1673 -0.1877
38920W        W81936  23.771  13.362  16.324 -0.2437 -0.0087 -0.1283
38921W        W81937  18.797  28.669  26.662 -0.2255  0.0736 -0.1462
38922W        W81938  23.776  24.261  18.440 -0.2115  0.0562 -0.2286
38923W        W81939  34.683   4.141  18.744  0.1376 -0.0433  0.0009
38924W        W81940   0.236  15.704  16.825 -0.1463 -0.2853  0.2075
38925W        W81941  31.673  20.597   4.252  0.0032  0.1424 -0.1195
38926W        W81942  26.611   7.861  16.647  0.1058  0.0265 -0.3195
38927W        W81943  17.561  26.485  24.283 -0.4857 -0.1137 -0.1199
38928W        W81944   6.849  10.071  18.344 -0.1374 -0.2701  0.3486
38929W        W81945  19.980  12.066  28.073  0.1882 -0.0958  0.0573
38930W        W81946  33.219  25.158  17.029  0.3030  0.3624  0.1889
38931W        W81947  24.440  26.506  22.551  0.1055  0.0676  0.1003
38932W        W81948  26.472  18.439  23.726 -0.0581 -0.1516 -0.2287
38933W        W81949  30.837  10.522  23.040  0.0877 -0.0163 -0.0429
38934W        W81950  29.891  32.366  25.509 -0.0986  0.3249  0.0778
38935W        W81951  11.212  29.843  16.354 -0.3060  0.0612 -0.2257
38936W        W81952  31.628  32.520  21.307  0.2266 -0.2219  0.2567
38937W        W81953   0.591  10.154  19.113  0.1791 -0.1842 -0.0337
38938W        W81954   1.581   1.531  24.502 -0.4678 -0.1919 -0.4176
38939W        W81955  10.540  13.615  13.480  0.0454  0.1263 -0.0952
38940W        W81956  29.537  31.000  18.591  0.3157  0.0522 -0.1582
38941W        W81957  32.582   3.582  18.185  0.2539  0.0547  0.2980
38942W        W81958   8.255  20.794  22.288 -0.1494  0.0067  0.3098
38943W        W81959   0.341  23.836  20.548 -0.1306 -0.2864  0.3453
38944W        W81960  34.100  28.468  18.411 -0.2426 -0.2336 -0.1487
38945W        W81961   1.661  28.386  18.296  0.0524 -0.2521 -0.1328
38946W        W81962  23.493  26.693  27.773 -0.0335  0.4076  0.1042
38947W        W81963   6.780  26.381  26.634 -0.2456 -0.1510  0.1165
38948W        W81964  24.155  17.720  21.471 -0.3981 -0.0844 -0.3115
38949W        W81965  32.242  32.747  18.224  0.2008 -0.1867  0.0896
38950W        W81966  25.551   6.313  16.883  0.0537  0.3067 -0.3272
38951W        W81967  11.328   9.915  25.638  0.1573 -0.3527 -0.1091
38952W        W81968   1.336  15.178  17.307  0.0320 -0.1243 -0.1226
38953W        W81969   1.133  17.823  22.515 -0.1640 -0.1926 -0.2582
38954W        W81970   6.608  28.540  26.213 -0.0554  0.0394  0.4347
38955W        W81971  27.828  22.014   3.358  0.0919 -0.1855 -0.4325
38956W        W81972  15.280  24.850  14.113  0.1621 -0.0851  0.0227
38957W        W81973  26.242  27.256  23.484  0.1405  0.3895  0.0354
38958W        W81974  27.139  26.447   3.536 -0.1273  0.2022  0.0200
38959W        W81975   2.893  20.844  29.312 -0.0401 -0.0923 -0.0782
38960W        W81976  21.601  32.794   6.053 -0.0392  0.3512 -0.1567
38961W        W81977   2.858  26.218  14.605  0.4432 -0.1866  0.0239
38962W        W81978   7.178  33.150   0.882 -0.1460 -0.1413 -0.1001
38963W        W81979  30.703   1.324  25.577  0.1486  0.1106  0.0104
38964W        W81980  17.929  24.806  22.381 -0.1632  0.0429 -0.0051
38965W        W81981  29.465  13.488  22.463 -0.2778  0.0781  0.0549
38966W        W81982  30.846  30.463   3.786  0.1364 -0.3113  0.1037
38967W        W81983  28.376  11.061   0.438 -0.0684  0.5292  0.1496
38968W        W81984   0.079  20.065  17.502 -0.1093 -0.1062  0.1470
38969W        W81985   1.859  12.030  24.283 -0.0634  0.0552 -0.0497
38970W        W81986  24.687  18.767   3.049 -0.0057 -0.0625 -0.0829
38971W        W81987  15.573  32.536  24.792  0.1194  0.0225 -0.1700
38972W        W81988   5.852  23.244  25.008  0.0852  0.0411  0.2679
38973W        W81989  17.578  20.158   5.460  0.2109  0.2011 -0.0541
38974W        W81990  25.050  30.671   4.360  0.0956  0.0814  0.1924
38975W        W81991  11.729  34.196   1.733 -0.1101 -0.2680  0.2658
38976W        W81992  30.494  20.637   3.534 -0.0192  0.0588 -0.0662
38977W        W81993   2.693  21.339  14.715 -0.0528  0.0534  0.2367
38978W        W81994  21.420  12.795  27.942  0.1982 -0.0638 -0.2418
38979W        W81995  30.792  25.569  17.386 -0.1081  0.3195  0.2438
38980W        W81996   7.062  16.420   1.707 -0.1850  0.1492  0.0295
38981W        W81997  24.658  23.063  24.817  0.0365  0.1464  0.2627
38982W        W81998  14.177   8.584   1.436 -0.2308  0.0391 -0.1267
38983W        W81999   3.377  23.856  23.972 -0.0437  0.0668  0.2583
38984W        W82000  26.607   8.637  20.293  0.3500  0.0386 -0.0499
38985W        W82001  25.347  20.173  18.494 -0.4089  0.1274  0.1404
38986W        W82002   6.718  21.553   5.242  0.0608  0.1833  0.0104
38987W        W82003  23.957  21.227  20.887  0.0409  0.1554  0.1505
38988W        W82004  21.958  15.796   1.646  0.1070  0.2922 -0.1984
38989W        W82005   2.902  19.254   8.339 -0.1108  0.2064  0.1471
38990W        W82006   5.086  26.500  18.884 -0.0518  0.0398 -0.0579
38991W        W82007  10.135   0.912  18.350  0.2090 -0.0574 -0.3041
38992W        W82008  30.168  19.366  26.262  0.0354  0.0002 -0.0466
38993W        W82009  28.367  13.648   8.967  0.3229  0.0261  0.2223
38994W        W82010  24.811   5.450  19.220  0.1053 -0.0493 -0.1017
38995W        W82011  22.835  25.542  24.963  0.1153  0.0420  0.1821
38996W        W82012   9.272  19.960  25.444  0.1110 -0.0259 -0.1213
38997W        W82013  31.260  28.450  25.431  0.1690  0.2340 -0.0468
38998W        W82014   8.503  19.749   4.406 -0.2195 -0.0814 -0.0872
38999W        W82015  26.709   0.113  23.167  0.0602 -0.4538 -0.4388
39000W        W82016  25.863  29.477  19.146 -0.0530  0.1550 -0.1149
39001W        W82017   0.908  11.924   1.207 -0.2617 -0.0236 -0.1679
39002W        W82018  13.563  33.696   8.736  0.3495 -0.3341 -0.1242
39003W        W82019  26.228  29.043   3.143  0.0968 -0.1289  0.0440
39004W        W82020  30.039  16.110  24.360 -0.2192  0.1310  0.3616
39005W        W82021  30.266  29.679  19.999  0.3880  0.1368 -0.0079
39006W        W82022  13.698  11.965  15.347 -0.1957  0.0383 -0.1973
39007W        W82023  28.007  23.663  15.793  0.1610  0.0662 -0.1248
39008W        W82024  29.860  19.498   4.680  0.0304 -0.2924 -0.2116
39009W        W82025   3.771  32.658  22.901 -0.1394 -0.0730 -0.0038
39010W        W82026  28.172  33.187  20.975 -0.0920 -0.3467  0.1580
39011W        W82027  32.934  11.764  18.411 -0.1606 -0.0396 -0.1390
39012W        W82028  19.322  23.728  18.426 -0.1930  0.0413  0.1031
39013W        W82029  25.936  17.558  15.213 -0.3943 -0.0628 -0.2648
39014W        W82030  34.068  18.132  23.587  0.1038 -0.3722  0.3260
39015W        W82031  23.614  14.369  27.287  0.3567 -0.0184  0.0463
39016W        W82032  26.252  11.963  28.314  0.0932 -0.1810 -0.4892
39017W        W82033  25.990  24.388   2.629 -0.0228  0.0591 -0.0908
39018W        W82034  20.563  14.130  28.132 -0.3935 -0.2937 -0.6589
39019W        W82035  32.670  13.284  17.084 -0.0558 -0.0357 -0.1592
39020W        W82036  33.984  12.027  21.437  0.0953  0.0991 -0.0644
39021W        W82037  29.555  17.522  18.410  0.0772 -0.0767 -0.2679
39022W        W82038   3.011  14.873  19.809  0.3218  0.0491  0.3548
39023W        W82039  29.747   1.082  25.307 -0.0025 -0.3301 -0.2967
39024W        W82040  17.273  24.645  18.901  0.1830  0.4073  0.1639
39025W        W82041  26.693  13.512  28.690 -0.1493 -0.0924  0.0041
39026W        W82042  20.876  30.382  29.069  0.0800  0.0294  0.1540
39027W        W82043   2.010  10.223  18.523  0.4317 -0.0119 -0.0812
39028W        W82044   3.116  21.675   9.634 -0.1430  0.2897  0.0517
39029W        W82045  29.255  33.157   0.439  0.1189 -0.0756 -0.0145
39030W        W82046  28.218  21.037  17.121  0.1554 -0.0003  0.2696
39031W        W82047   1.171  12.754  17.675 -0.0202 -0.1537  0.0429
39032W        W82048  29.390  16.330  21.778  0.0170  0.0544 -0.0537
39033W        W82049  20.659  11.994  27.459 -0.2208 -0.1052 -0.0068
39034W        W82050   6.570   2.372  22.832 -0.1781  0.3385  0.2679
39035W        W82051   2.403  19.498  28.245 -0.0497  0.1251  0.2232
39036W        W82052   1.105   2.029  25.312  0.1383 -0.0514  0.3510
39037W        W82053   6.981  16.727  14.320  0.0570 -0.1965 -0.4107
39038W        W82054  25.269  12.457  19.460  0.0808  0.0470  0.0822
39039W        W82055  33.520  25.531  26.172 -0.0050  0.2954  0.1307
39040W        W82056  24.746   3.775  19.977 -0.0694 -0.0828  0.3085
39041W        W82057  14.080  27.856  14.161  0.0890 -0.1322 -0.2297
39042W        W82058  32.920   6.294   6.499 -0.2350  0.0521 -0.1293
39043W        W82059   8.353   7.328  20.595  0.0047  0.0100 -0.1275
39044W        W82060  13.635  31.098  26.207 -0.3198 -0.1693  0.4231
39045W        W82061  22.406   2.792   2.191  0.2642  0.1152 -0.4018
39046W        W82062   2.196  31.846  15.212  0.0905 -0.0087 -0.0077
39047W        W82063   5.840  14.226  15.219 -0.2214 -0.0606  0.0849
39048W        W82064  24.421  17.750  23.231  0.0567  0.2008 -0.1078
39049W        W82065  32.107  23.791  14.164 -0.0330 -0.3540 -0.0927
39050W        W82066  34.154  22.864  21.939  0.0113  0.3360 -0.3538
39051W        W82067   1.458  20.851  10.272  0.1074  0.0147  0.1316
39052W        W82068   8.854  15.102  17.138 -0.1936  0.1579  0.0957
39053W        W82069   3.136  13.394  19.312  0.1762  0.1492 -0.1131
39054W        W82070  31.627   1.104  15.386 -0.0115 -0.1100  0.3626
39055W        W82071  29.172  33.863  25.660 -0.3546 -0.0986  0.0810
39056W        W82072  29.586  28.909   8.281  0.0955 -0.0008  0.1296
39057W        W82073   0.211   6.854  17.380 -0.1066  0.0846 -0.4632
39058W        W82074   3.920  18.704  13.939 -0.3490 -0.0482  0.0399
39059W        W82075   3.283  14.255   0.113 -0.0304  0.1019  0.0047
39060W        W82076  31.004  11.524  22.170  0.2365  0.3670  0.3104
39061W        W82077  27.942  29.521  23.017 -0.1611  0.0578 -0.0149
39062W        W82078  13.574   3.726  27.107  0.1877 -0.0002  0.0828
39063W        W82079  13.187  23.755  17.220  0.0214 -0.0912  0.3374
39064W        W82080  31.489   3.093  19.275  0.0214  0.1542 -0.1111
39065W        W82081  14.926  24.861  19.031 -0.1790 -0.0724 -0.0197
39066W        W82082   3.797   0.651   9.184 -0.2812  0.0134  0.0843
39067W        W82083  29.058  25.164   3.856 -0.1914 -0.0046  0.0368
39068W        W82084   4.831  12.132  16.209  0.0903  0.1951  0.0008
39069W        W82085  19.587  32.629  19.281  0.1524 -0.1015 -0.0346
39070W        W82086  13.296   0.135  20.212 -0.0697  0.2993 -0.0306
39071W        W82087  22.148  17.789  19.725  0.1661 -0.0380 -0.1660
39072W        W82088   3.090  25.459   0.034 -0.1288  0.0681 -0.1254
39073W        W82089   0.992  17.901  27.478  0.0345  0.2128  0.0903
39074W        W82090  17.568  23.516  27.663  0.2388  0.0011 -0.0757
39075W        W82091  32.733  22.412  15.713 -0.1775 -0.1123  0.0183
39076W        W82092  24.921  22.925  17.895 -0.1496 -0.3200  0.1623
39077W        W82093  22.788  30.602  21.403 -0.1829  0.1069 -0.2216
39078W        W82094  17.491   5.224  18.413 -0.0349 -0.2250 -0.1754
39079W        W82095   1.567  18.992  15.726 -0.0383 -0.2989  0.5106
39080W        W82096  20.538  20.484  15.133 -0.0106  0.0404 -0.4056
39081W        W82097   2.801  23.807  15.770  0.1524 -0.1046 -0.0389
39082W        W82098   8.599  15.086  19.281  0.1549 -0.0315 -0.0960
39083W        W82099  29.585   2.914   0.068 -0.0393 -0.2810  0.3246
39084W        W82100  31.763  33.235  17.168 -0.0288 -0.1505 -0.0531
39085W        W82101  27.554   3.413  26.270 -0.0449  0.1110 -0.1013
39086W        W82102  34.470  22.961  15.946 -0.1584  0.2481  0.1478
39087W        W82103  25.811  21.524  21.554  0.1997  0.0506 -0.0483
39088W        W82104  25.538  15.438  19.305  0.1044  0.0078 -0.0808
39089W        W82105  34.744   6.232  15.564 -0.1999  0.2277  0.0840
39090W        W82106  32.932  23.342   5.345 -0.0405  0.0773  0.0563
39091W        W82107   7.448  12.624   0.690 -0.0555  0.1393  0.1270
39092W        W82108   5.018  21.723   2.459 -0.1536  0.1235 -0.2100
39093W        W82109   8.320  28.061  15.554  0.1867  0.1069  0.0366
39094W        W82110  21.185  18.048  22.657 -0.0328  0.0203 -0.0426
39095W        W82111   1.474  17.159  29.166  0.0659  0.2590  0.1897
39096W        W82112  23.671  29.814  19.894  0.0111 -0.1328 -0.2288
39097W        W82113   3.448  31.865  22.521 -0.1519 -0.2456  0.0712
39098W        W82114  23.223  23.359  14.127 -0.2519  0.1117 -0.0743
39099W        W82115   3.451   2.959  21.836  0.1791 -0.0677  0.0786
39100W        W82116  20.901  30.675  22.150  0.1166 -0.4017  0.3428
39101W        W82117   8.844  31.721  14.827  0.2795 -0.3255  0.1579
39102W        W82118  23.150  19.478  23.415  0.0134  0.0771 -0.1018
39103W        W82119  34.352  11.867  19.686  0.1729 -0.1774  0.2263
39104W        W82120  15.077  33.005  26.997  0.0171 -0.0106  0.0068
39105W        W82121  34.217  29.648  17.862 -0.0247  0.0689 -0.0245
39106W        W82122   2.942  13.677   9.892 -0.2377 -0.0365 -0.1981
39107W        W82123  14.747  13.024  28.449  0.0589  0.1899 -0.2816
39108W        W82124  32.194  22.372  21.750  0.0725 -0.2852  0.3370
39109W        W82125  30.125  20.082  16.508 -0.1665 -0.0099 -0.0793
39110W        W82126  26.271  13.267  16.564 -0.0507 -0.1539  0.2996
39111W        W82127  32.894  12.700  16.409  0.1739  0.0061  0.2691
39112W        W82128  19.118   8.933  25.028  0.0918  0.1348 -0.1410
39113W        W82129  14.608  24.594  19.543 -0.0337 -0.1488 -0.0657
39114W        W82130   1.688   6.900  13.902 -0.1556  0.1768 -0.1277
39115W        W82131   4.267  22.011  23.474 -0.3501  0.1297  0.0024
39116W        W82132   1.827  32.133  19.348  0.2331  0.3063 -0.1779
39117W        W82133   0.144   4.691  22.191  0.2371  0.2768 -0.1531
39118W        W82134  20.265  27.523  22.608 -0.1429  0.2091  0.0945
39119W        W82135   2.233  18.661  20.744 -0.0878  0.3093  0.2398
39120W        W82136  21.145   9.557  21.948 -0.0429 -0.1053 -0.0121
39121W        W82137   9.691   7.397  16.103  0.1465  0.2076 -0.0016
39122W        W82138  17.282  15.954  12.175  0.4129 -0.0722 -0.2170
39123W        W82139  25.156  31.639  29.196 -0.1034  0.2350  0.0992
39124W        W82140  12.877  20.183  16.258 -0.3000 -0.1963  0.1548
39125W        W82141   3.767  25.743  25.100 -0.1269 -0.0313  0.0314
39126W        W82142  34.316  34.221  27.011  0.1564  0.4524 -0.0978
39127W        W82143  24.970  15.957  28.889 -0.2050 -0.1019  0.1365
39128W        W82144   4.018  29.567  14.411 -0.0481  0.0999  0.3618
39129W        W82145  21.752  21.730  14.692 -0.1244 -0.0896 -0.2036
39130W        W82146  20.691  25.284  14.860 -0.1553 -0.0519 -0.2584
39131W        W82147  29.601  23.514  20.536  0.3132  0.0144  0.0362
39132W        W82148  27.342  18.240   7.626 -0.1684  0.2221  0.2801
39133W        W82149  30.505   5.768  21.199  0.1509  0.0348 -0.2301
39134W        W82150  31.553   3.243  22.166 -0.1659  0.0165 -0.1846
39135W        W82151  34.286  25.693  15.201 -0.1711  0.2909 -0.0250
39136W        W82152  33.713  29.139  26.271  0.0412  0.2310  0.0781
39137W        W82153  20.425   9.134  13.404 -0.1321  0.1362  0.3598
39138W        W82154  15.435  24.676  17.903  0.0237 -0.2483  0.0576
39139W        W82155  16.857  24.931  20.684 -0.2556 -0.1308  0.0147
39140W        W82156  10.905  10.476  19.794 -0.2953 -0.0926  0.0726
39141W        W82157   0.065  21.995  14.914 -0.3907 -0.1779 -0.1230
39142W        W82158  24.320  13.464  20.623  0.3427  0.0506 -0.1853
39143W        W82159  27.117   7.264  20.445  0.2236 -0.4037  0.1880
39144W        W82160  28.231  25.416   1.598  0.2093  0.2488 -0.3696
39145W        W82161  20.712  27.230  19.237 -0.3206 -0.0195  0.1695
39146W        W82162  12.386  30.418  25.807  0.1819  0.0410 -0.1724
39147W        W82163  28.379  22.038  20.439  0.1029  0.2956  0.4753
39148W        W82164  29.670  20.668  22.285 -0.1273  0.2313  0.1319
39149W        W82165  21.900  25.630  16.280  0.1455  0.1456  0.0749
39150W        W82166   7.709   3.422   2.416 -0.2931 -0.0873 -0.0360
39151W        W82167   1.913  19.169  16.064  0.0192  0.3381 -0.0068
39152W        W82168  28.116   1.463  17.351 -0.0160 -0.1700 -0.3720
39153W        W82169   9.327  19.467  19.136 -0.0863 -0.1714 -0.0661
39154W        W82170  27.078  11.199  20.003  0.2710 -0.3041 -0.1274
39155W        W82171   7.474  21.285   0.452  0.1487  0.0681 -0.0490
39156W        W82172  25.457  34.651   6.424  0.0012 -0.1585  0.0228
39157W        W82173  28.147   1.225   3.344  0.1490  0.0841  0.1376
39158W        W82174  19.508  20.117   4.973  0.1932 -0.0988 -0.0591
39159W        W82175  16.263  24.558  16.551 -0.1230  0.0470  0.2283
39160W        W82176  34.271  19.624  14.042  0.2119  0.3225 -0.1957
39161W        W82177  14.039   6.039  14.954 -0.0198  0.0461 -0.1855
39162W        W82178  26.500  27.887  22.903 -0.1794 -0.4357 -0.0999
39163W        W82179  31.657  32.095  10.065 -0.2483 -0.1720 -0.0871
39164W        W82180   5.541   5.185   1.936  0.1955 -0.0329  0.2741
39165W        W82181  28.698  17.213  15.833  0.0385  0.0198 -0.1812
39166W        W82182  32.183  22.372  15.687  0.0021 -0.2188 -0.1722
39167W        W82183   1.632  18.927  15.265 -0.0736  0.2594 -0.1472
39168W        W82184  32.312  11.213  14.319 -0.2975  0.1574 -0.0428
39169W        W82185  34.497  14.536  15.879  0.0147  0.1584  0.0486
39170W        W82186   3.458  22.289  18.098 -0.0609  0.2131  0.0353
39171W        W82187  26.828  11.469  18.580 -0.2666 -0.2728  0.2500
39172W        W82188  29.438  15.586  17.428  0.1878 -0.0669 -0.0851
39173W        W82189  15.396  18.602  14.942 -0.3131  0.0955  0.1880
39174W        W82190   4.424  25.157   1.143 -0.0793 -0.0374 -0.1003
39175W        W82191  28.629  25.551  25.191 -0.0507 -0.4237 -0.0584
39176W        W82192  26.484  21.055  19.201  0.0072 -0.2976  0.1131
39177W        W82193   5.008  30.847   8.625 -0.0057  0.0957  0.0588
39178W        W82194  12.106   2.346  24.215 -0.0557  0.0679 -0.3421
39179W        W82195   2.587  15.894  14.391 -0.2864  0.0519  0.2072
39180W        W82196   0.656  21.324  26.164 -0.3176  0.0721 -0.0620
39181W        W82197   5.559  21.142   1.407 -0.2146 -0.2612  0.0123
39182W        W82198  13.706   0.862   2.787 -0.3777 -0.2359 -0.0063
39183W        W82199  34.319  11.006  20.822  0.0802  0.2719 -0.3118
39184W        W82200  26.636  29.417  24.630  0.0346 -0.0839 -0.2974
39185W        W82201  25.316  15.445  23.927 -0.0108 -0.0182  0.0554
39186W        W82202  18.693   0.797  23.239 -0.2827  0.1419 -0.1037
39187W        W82203  11.373  21.992  13.247 -0.2342  0.0252  0.4187
39188W        W82204  27.515  15.238  19.471  0.2143 -0.1266 -0.3157
39189W        W82205  27.793  27.741  25.339 -0.0359 -0.1773  0.1805
39190W        W82206  24.986  33.877   0.712 -0.2256  0.0169  0.2110
39191W        W82207  19.341   4.721  24.946  0.1256 -0.1118 -0.0133
39192W        W82208   0.579  24.148  14.762 -0.3300 -0.2905 -0.0369
39193W        W82209   3.465  27.266   0.444  0.3156  0.0478  0.1585
39194W        W82210  30.506  23.988  24.442 -0.2877 -0.1008  0.0566
39195W        W82211  26.758   7.897  26.084  0.1602 -0.0590 -0.1560
39196W        W82212  32.208  14.334  22.141  0.0723  0.2110  0.0232
39197W        W82213  28.906  25.014  15.629  0.1319 -0.0669  0.0484
39198W        W82214  24.523  33.848  28.585  0.0696 -0.0795  0.2102
39199W        W82215  20.329  11.530  24.523 -0.1068  0.1514 -0.0331
39200W        W82216  25.157  21.654  20.617  0.2226  0.1735 -0.0383
39201W        W82217   9.232  18.732  13.308 -0.0058 -0.2112  0.2742
39202W        W82218  17.071  28.890   7.003  0.3281 -0.0270  0.2201
39203W        W82219  20.694  24.903  21.645 -0.4248  0.0318  0.2634
39204W        W82220  23.898  31.204  20.166  0.0972  0.1577 -0.1137
39205W        W82221  29.017  18.971  18.682  0.0011 -0.1218  0.2811
39206W        W82222   6.707   6.127  20.475  0.1937  0.3044 -0.2504
39207W        W82223  23.921   6.248  20.928 -0.2172  0.0986  0.2352
39208W        W82224  29.364  20.899  23.132 -0.0163  0.2148  0.1782
39209W        W82225  32.101  11.536   1.563 -0.0332  0.0074  0.2201
39210W        W82226   7.040  19.909  26.317  0.1306 -0.0906  0.3158
39211W        W82227  32.698  20.855   1.320  0.0266  0.4656  0.1224
39212W        W82228  33.467  26.881  20.740  0.2952  0.0978  0.0177
39213W        W82229   7.912  14.634   0.232 -0.1522  0.1265 -0.2807
39214W        W82230  28.205  28.124   0.956  0.2517  0.1700  0.0052
39215W        W82231  26.309  27.375  20.593 -0.0934  0.1984 -0.1944
39216W        W82232  30.523  20.294   3.080  0.1395 -0.2089 -0.0774
39217W        W82233  12.371  31.661  15.275 -0.0102 -0.1654 -0.1853
39218W        W82234  34.000   3.785  23.791 -0.0794  0.0512  0.2557
39219W        W82235   0.786  19.287   3.619 -0.2195 -0.1531  0.2097
39220W        W82236  27.176  30.060   8.604  0.0687  0.1924 -0.2950
39221W        W82237  29.932  18.331  14.877  0.1759  0.0527 -0.2616
39222W        W82238   7.251  16.671  15.925 -0.2599  0.0294 -0.2276
39223W        W82239  23.553  31.423  27.328 -0.3181  0.4305 -0.2161
39224W        W82240  13.371  34.668  15.284  0.1617  0.2326 -0.0233
39225W        W82241   4.878   4.593  18.159 -0.5094  0.2622 -0.0892
39226W        W82242  20.396   5.164  20.991  0.1700 -0.1264  0.1080
39227W        W82243  20.508  18.150  13.256 -0.3108 -0.0822  0.0352
39228W        W82244  26.750  18.821  21.205  0.0441  0.2555 -0.0421
39229W        W82245  28.357   1.494  16.212 -0.0642 -0.0943  0.4655
39230W        W82246  24.720  20.082  21.183  0.0068  0.1804 -0.0845
39231W        W82247  19.288  23.873  19.337  0.1042  0.3178  0.1524
39232W        W82248   4.446  23.842   2.972  0.4079  0.3870 -0.0688
39233W        W82249  25.004   0.182  25.912  0.0769  0.0702 -0.0306
39234W        W82250  23.795  23.976   7.082  0.2155 -0.1453 -0.2120
39235W        W82251  29.498  12.631   0.675 -0.0201 -0.3319 -0.1566
39236W        W82252   4.276  11.609  21.422 -0.3362  0.2097 -0.1953
39237W        W82253  30.101  15.259  18.089  0.0664  0.3007 -0.0770
39238W        W82254   3.890  11.301  20.632  0.0583  0.3046 -0.2783
39239W        W82255   7.379   8.244  24.621  0.2920  0.1247 -0.0142
39240W        W82256  25.494  21.983  15.390 -0.1292  0.0599  0.1151
39241W        W82257  32.025  31.079  21.380  0.0802  0.2799 -0.1550
39242W        W82258  23.363  28.588  19.616  0.1168  0.0456 -0.2636
39243W        W82259  31.191  31.435  26.133  0.0401 -0.0677  0.1441
39244W        W82260  10.761  13.771   2.592 -0.0348  0.1845  0.0068
39245W        W82261  18.352  30.488  25.599  0.1090  0.1160  0.2508
39246W        W82262  20.859  26.249  15.065  0.0492  0.2474  0.0118
39247W        W82263  14.790  18.377  28.939 -0.1164 -0.0354  0.1245
39248W        W82264   6.963  22.795  23.784 -0.1333 -0.2304  0.1332
39249W        W82265  21.653   0.208  25.661 -0.0272  0.0002 -0.0681
39250W        W82266  19.376  26.835  16.418 -0.1965  0.1188  0.0657
39251W        W82267   3.815  19.675  18.307 -0.2205  0.1505  0.1138
39252W        W82268  18.477  21.313  12.130  0.2166 -0.0899  0.3412
39253W        W82269   4.072  22.312  18.020  0.4463  0.1001 -0.2020
39254W        W82270   4.467  15.280  26.440  0.1771  0.2050  0.2226
39255W        W82271  11.145  19.688  15.280 -0.1239  0.0003  0.1087
39256W        W82272   1.540  16.259   4.022  0.1887  0.0785  0.4096
39257W        W82273  18.194  19.969  21.635 -0.3176 -0.1127  0.3154
39258W        W82274   4.851  26.545  24.356  0.1272  0.0731 -0.4914
39259W        W82275  19.277  29.566  25.156  0.1473  0.4890 -0.0037
39260W        W82276  22.807  23.864  26.329 -0.1440  0.3380  0.0342
39261W        W82277  14.803  21.576   7.469  0.0980  0.1705 -0.0037
39262W        W82278  20.250   6.465   4.665 -0.0021  0.0391 -0.0812
39263W        W82279   8.047   7.861  23.731  0.2971 -0.2477 -0.1725
39264W        W82280  30.395   4.560  22.302 -0.0486 -0.1056  0.2226
39265W        W82281  34.448  14.003  22.100  0.0187 -0.1907  0.0540
39266W        W82282  34.458  32.142   2.190  0.2769  0.4862  0.2611
39267W        W82283  28.134  20.262  20.548  0.0030  0.0352 -0.0305
39268W        W82284  25.165  22.373  27.932 -0.1909 -0.1810 -0.1981
39269W        W82285  14.705  25.224  14.945 -0.0009 -0.1031 -0.0259
39270W        W82286  13.474  24.903  26.998 -0.2932  0.0574 -0.0340
39271W        W82287  29.870  18.506  14.377  0.2884  0.0602 -0.0183
39272W        W82288  26.290  22.289  22.425  0.2272 -0.0295 -0.3263
39273W        W82289  12.037  12.267  22.315  0.1994  0.1813  0.1320
39274W        W82290  27.887  20.959  18.539 -0.0845 -0.1241 -0.1983
39275W        W82291   7.414  12.278  15.490 -0.1675 -0.1293  0.0225
39276W        W82292   7.918   5.732  19.734 -0.2486  0.4099  0.0528
39277W        W82293   1.298  30.349  25.095  0.2392  0.2214 -0.0999
39278W        W82294  10.896  15.611  20.553 -0.1838 -0.1195  0.4703
39279W        W82295  27.940   8.013  22.622  0.1488 -0.3384  0.1035
39280W        W82296   1.921   2.294  29.241  0.4150 -0.0185 -0.0388
39281W        W82297  33.377  12.138   8.740 -0.2266 -0.2028  0.3813
39282W        W82298  25.179   4.067  28.788  0.0122 -0.0107 -0.2596
39283W        W82299   4.542  11.093  25.196  0.1514 -0.2884 -0.0254
39284W        W82300   2.356  20.661  26.097 -0.2530  0.0197 -0.1088
39285W        W82301  28.210  26.687  19.977 -0.0773 -0.2924  0.0800
39286W        W82302  20.417  20.939   4.498  0.3773 -0.0266  0.0807
39287W        W82303   1.815  25.267  15.415  0.0038  0.1395  0.3282
39288W        W82304  25.889  13.701  16.172 -0.1200  0.1174  0.2066
39289W        W82305   0.507  21.470  19.589  0.3463 -0.1795 -0.2333
39290W        W82306   4.693  29.019  14.581 -0.2209  0.4634 -0.0020
39291W        W82307  15.858  32.033  21.819  0.1969  0.0510  0.1243
39292W        W82308  21.476  23.378  14.433 -0.0538 -0.0494 -0.0069
39293W        W82309  29.250  24.965  27.682 -0.0664 -0.0241  0.2268
39294W        W82310  23.306   5.407  26.813 -0.0438 -0.1437  0.0895
39295W        W82311  22.331  22.622  21.924  0.0479 -0.0330  0.0631
39296W        W82312   9.009  19.908  13.862  0.3073 -0.1667  0.0583
39297W        W82313  31.675  30.786  20.619  0.1489  0.1625 -0.0952
39298W        W82314  24.586   9.550  20.350  0.2121 -0.0557  0.1324
39299W        W82315  24.819  30.960  22.464 -0.1225  0.0309  0.1713
39300W        W82316  30.650  15.088   0.258 -0.0416 -0.0471  0.1756
39301W        W82317   0.159  16.557  19.854  0.0230 -0.0443 -0.2350
39302W        W82318  24.556  34.051  19.455  0.2210  0.0697  0.3558
39303W        W82319  13.570  27.605   6.055  0.2154 -0.1833 -0.0872
39304W        W82320   7.543   6.316  17.924  0.0537  0.0240  0.0131
39305W        W82321  29.020   8.125   5.895  0.0327  0.0940 -0.1080
39306W        W82322  30.283  27.434  19.070 -0.2314  0.1678 -0.0481
39307W        W82323  24.179  32.534  25.510  0.0696  0.0196 -0.0516
39308W        W82324  33.020  11.097   3.078 -0.1905  0.0633  0.0138
39309W        W82325  30.572  15.641   7.667  0.1102 -0.1868  0.0889
39310W        W82326   6.737  12.605  25.074 -0.2460 -0.1998  0.0104
39311W        W82327  30.000   0.316  19.048  0.0772  0.0483  0.1222
39312W        W82328  17.268   8.092  24.344 -0.1144 -0.2623  0.1880
39313W        W82329  24.858  18.872  26.673  0.2742 -0.0733  0.2497
39314W        W82330  17.008  18.192   7.376  0.1164 -0.0359 -0.1213
39315W        W82331   0.343  23.401  27.687 -0.0506  0.1107  0.0947
39316W        W82332  21.629   3.966  16.343  0.1405  0.2509 -0.2202
39317W        W82333  31.712  24.359  24.812 -0.3179 -0.3500 -0.2577
39318W        W82334  31.667  34.677  25.610 -0.3215  0.1261 -0.3005
39319W        W82335  29.401  12.475  18.098 -0.1716 -0.2120  0.1515
39320W        W82336  23.867  17.077  19.295  0.1874  0.0589  0.1479
39321W        W82337   8.465  20.642  23.949 -0.1108 -0.2053  0.1835
39322W        W82338  20.209   5.435  23.824 -0.0099  0.1836  0.1932
39323W        W82339  17.027  30.870  10.587  0.1243 -0.2100  0.0128
39324W        W82340  16.987  12.838  23.204  0.0560 -0.1313 -0.0763
39325W        W82341  28.329  10.641  21.177  0.0251 -0.3048 -0.0340
39326W        W82342  29.127   6.805  28.823  0.2087  0.0799 -0.0962
39327W        W82343  27.908  18.082  14.696 -0.0572  0.2180 -0.2797
39328W        W82344  33.169  18.647  15.984  0.0261  0.0391 -0.1034
39329W        W82345   7.387  21.942  23.283 -0.3341  0.2431 -0.2440
39330W        W82346   8.061  20.944  13.164  0.1145  0.3823  0.1040
39331W        W82347  30.875  16.795  15.214 -0.0765 -0.1516  0.1608
39332W        W82348  31.344  34.321   2.112 -0.1635  0.0361  0.0653
39333W        W82349  10.717  18.985  24.859  0.1919 -0.1457  0.3274
39334W        W82350  24.785  12.737   6.027  0.0852 -0.0163  0.2551
39335W        W82351  31.954  17.131  26.414 -0.0776 -0.0336 -0.2166
39336W        W82352  32.894   9.945  23.163 -0.1432 -0.0500  0.0199
39337W        W82353   1.893  25.838  17.074  0.1527  0.1075 -0.2132
39338W        W82354  27.951  20.608  21.359  0.2427  0.1073  0.1767
39339W        W82355  25.673  12.042  16.511  0.0659  0.1806 -0.0832
39340W        W82356  28.329   2.642  24.052  0.1332  0.0624 -0.2895
39341W        W82357  21.081  34.682   3.390  0.4270  0.1694  0.0217
39342W        W82358  23.730  12.994   3.759 -0.1652 -0.1885 -0.0899
39343W        W82359  33.661  32.755  28.590  0.2411  0.1478  0.0121
39344W        W82360  24.351  30.640  15.206  0.0155  0.0081 -0.0814
39345W        W82361  28.227  28.181  25.407 -0.1051  0.0720 -0.1928
39346W        W82362  24.695  13.263  14.350 -0.0012  0.2276 -0.1470
39347W        W82363   0.767  25.682  17.596  0.1119  0.1079 -0.0182
39348W        W82364   0.315  22.695  21.313  0.2081  0.3765 -0.0485
39349W        W82365   0.128   5.246  25.154  0.0438 -0.0263  0.0604
39350W        W82366  31.432  25.760  27.860 -0.1199  0.0632 -0.1120
39351W        W82367  10.530  10.686  13.856 -0.0838 -0.1147  0.0670
39352W        W82368  21.738  19.738  20.949  0.1706  0.2067  0.1127
39353W        W82369  23.171  26.516   0.967  0.0513  0.1328 -0.2900
39354W        W82370   0.438  30.410  23.936  0.1017  0.0587 -0.1032
39355W        W82371  24.070  33.803   6.877  0.0656 -0.2992 -0.1676
39356W        W82372   8.847   6.518  22.026  0.3803 -0.0935 -0.3182
39357W        W82373  28.023  21.474   2.581  0.1142 -0.1955 -0.2549
39358W        W82374  24.302  27.040  17.841  0.0570  0.0094 -0.1337
39359W        W82375  34.165  16.829  19.673 -0.0252 -0.3101  0.1770
39360W        W82376  13.952  18.524   5.569  0.1157  0.0643 -0.0447
39361W        W82377  32.818  33.660  20.226 -0.1938  0.2191 -0.0910
39362W        W82378  14.104  34.759  29.150 -0.0871  0.1055 -0.1698
39363W        W82379   4.373  26.510  18.807 -0.0818  0.2489 -0.0298
39364W        W82380   3.648   0.342  16.004  0.2836  0.2843  0.0566
39365W        W82381  28.295  30.471  25.048 -0.3225 -0.2722 -0.3974
39366W        W82382  32.314   3.674  19.448  0.1169  0.0657  0.5235
39367W        W82383  23.915  11.983  13.508  0.0133  0.1848  0.0130
39368W        W82384   2.883  22.994  15.130  0.1518 -0.2493  0.1287
39369W        W82385   3.647  20.267  16.884  0.0562 -0.2020 -0.1042
39370W        W82386   4.058  28.969  24.739  0.2473 -0.4152 -0.1390
39371W        W82387  13.434  21.325  16.192  0.1916 -0.1125  0.0681
39372W        W82388  27.929  23.359   2.682  0.0710  0.0144  0.0242
39373W        W82389  31.080   7.965  19.297  0.0897  0.0175 -0.1056
39374W        W82390  26.442  10.025  18.052  0.1968  0.0653  0.0230
39375W        W82391  29.157  14.006  18.862 -0.1639 -0.2302  0.0058
39376W        W82392  17.423  26.368   7.735 -0.2632  0.2432  0.1352
39377W        W82393  26.528   9.227   2.778  0.1641 -0.0399 -0.0041
39378W        W82394  22.233   8.066  21.576 -0.2966  0.1992  0.0522
39379W        W82395  34.551   2.979  25.428  0.3518  0.0901 -0.0840
39380W        W82396  17.230  18.595  14.397 -0.2805  0.0622 -0.0492
39381W        W82397  28.876   3.537   2.828  0.0604 -0.0475 -0.0220
39382W        W82398  14.402  10.514   8.159 -0.1080 -0.1796  0.0962
39383W        W82399  12.644  20.938  13.704  0.0795 -0.0803  0.0344
39384W        W82400  20.393  25.393   8.433  0.0112 -0.1387  0.1371
39385W        W82401   5.827  28.271  20.462  0.0345 -0.2457 -0.1969
39386W        W82402   6.618  14.952  12.708  0.2997 -0.3080  0.1157
39387W        W82403  25.566  22.124   9.705  0.3691 -0.0808 -0.2817
39388W        W82404  33.756  27.342   0.130  0.2926 -0.1886  0.0319
39389W        W82405  25.129  11.308  14.399 -0.1907 -0.0229  0.1052
39390W        W82406  13.462  17.239  27.614  0.0446  0.0113 -0.1878
39391W        W82407  13.293  12.993  14.311 -0.2550  0.0627  0.1110
39392W        W82408  34.179  28.951  25.933 -0.1336 -0.0152 -0.0146
39393W        W82409  19.872   9.376   0.984  0.2619  0.0977  0.0052
39394W        W82410  26.549  15.371  22.727 -0.0124  0.1225  0.1903
39395W        W82411  26.403  19.188  27.373 -0.1366  0.0145  0.1852
39396W        W82412  27.053  15.681  17.650  0.2499  0.4109 -0.3873
39397W        W82413   6.425  29.216  17.129  0.1224  0.1137  0.3378
39398W        W82414  34.087   8.450  21.905 -0.2575 -0.2587  0.0910
39399W        W82415   0.104  23.118  24.408  0.0856  0.3066 -0.1750
39400W        W82416   0.602  23.025  22.264  0.0661 -0.0892 -0.1397
39401W        W82417  29.840  20.073  15.994 -0.0551 -0.0790 -0.3745
39402W        W82418  10.630  33.361  20.859 -0.3340 -0.1937  0.3468
39403W        W82419  23.463  11.446   0.226  0.0679  0.0137 -0.0948
39404W        W82420   2.384   9.545  22.556 -0.2718  0.0866 -0.2778
39405W        W82421   0.775  14.227  27.786 -0.1510 -0.1231  0.0446
39406W        W82422   1.243  24.925  16.086 -0.3395 -0.0026 -0.0351
39407W        W82423   9.701  15.797  26.959  0.2522 -0.1844 -0.2775
39408W        W82424   7.525  30.815   6.996  0.0005 -0.0184 -0.1295
39409W        W82425  21.130  19.234  14.548 -0.2176  0.0664 -0.0858
39410W        W82426  32.260  15.168  17.136  0.0376 -0.1787  0.0719
39411W        W82427   6.793  23.156   0.303  0.2343 -0.0087 -0.3208
39412W        W82428   3.609  28.927  29.105 -0.0720 -0.0247 -0.1462
39413W        W82429  20.146  28.107  15.261 -0.0166  0.3228 -0.1360
39414W        W82430  32.809  11.085  27.870  0.1242  0.5816 -0.0915
39415W        W82431  25.978  13.501  18.519  0.1720 -0.2240 -0.4198
39416W        W82432   7.896  13.463  23.853 -0.3007  0.1941 -0.1338
39417W        W82433  24.819  11.177  14.810  0.1646 -0.2599 -0.2393
39418W        W82434  26.703  25.784   3.739  0.0829 -0.0463 -0.0351
39419W        W82435  19.301  15.002  23.779 -0.0983 -0.1066 -0.0391
39420W        W82436   7.691  30.473  24.429 -0.0280  0.2907  0.6055
39421W        W82437  22.150  24.285  24.277 -0.1622 -0.2029 -0.0862
39422W        W82438  19.392  25.514  21.133 -0.1334 -0.0069 -0.1243
39423W        W82439  21.890   6.250  19.834  0.0592 -0.3128  0.2527
39424W        W82440   4.123  18.959  24.494  0.3044 -0.1552  0.2068
39425W        W82441  19.667  26.942  18.402 -0.1392  0.0520 -0.4725
39426W        W82442  30.120  16.343  17.781  0.0838  0.0492  0.0300
39427W        W82443  27.127  26.187  19.000 -0.1848 -0.0193  0.0487
39428W        W82444  17.323  23.241   7.760  0.1955 -0.0047  0.0922
39429W        W82445  29.158  19.022  18.173  0.2280 -0.1370 -0.0216
39430W        W82446  25.694   8.299  20.547  0.0532  0.1059 -0.3109
39431W        W82447  33.841  16.872  20.526 -0.1911 -0.1270 -0.1676
39432W        W82448   2.076   4.901   5.117 -0.1306 -0.0273  0.0843
39433W        W82449  33.059  16.370  16.172 -0.1711  0.0348  0.1878
39434W        W82450  27.536   6.523  24.646 -0.3535  0.2233  0.0962
39435W        W82451   8.717   0.729  20.238  0.2961 -0.1439 -0.1625
39436W        W82452  30.365  16.022  28.853 -0.0080 -0.0188  0.0789
39437W        W82453  30.804  29.317  15.544  0.2243 -0.0769  0.1593
39438W        W82454  28.783  22.197  25.834 -0.0371  0.0253 -0.1434
39439W        W82455   5.549  12.981  14.847 -0.0515 -0.0353 -0.1961
39440W        W82456  32.029  18.273   4.767  0.0418  0.0433 -0.3658
39441W        W82457  27.296  19.616  21.898 -0.0850 -0.3003  0.0323
39442W        W82458   4.557  24.900  16.929 -0.0396  0.0475 -0.1022
39443W        W82459   5.660  25.443  26.880  0.0219 -0.2265  0.1192
39444W        W82460   7.934  16.990  25.045 -0.0926  0.1036  0.1949
39445W        W82461  29.084  32.907  17.522 -0.1766 -0.1315 -0.2390
39446W        W82462  15.130   8.480  19.684  0.0923  0.1603 -0.2336
39447W        W82463  27.725  17.140  25.107  0.3684  0.0018 -0.2382
39448W        W82464  26.719  23.955  20.383  0.0455 -0.0566  0.0305
39449W        W82465  17.692  34.049  18.366 -0.0869  0.7233  0.2301
39450W        W82466  26.066  21.298  19.122  0.1422 -0.3476  0.1033
39451W        W82467  19.728  31.743   7.515 -0.0071  0.3538  0.2456
39452W        W82468  21.788  21.292   1.802  0.0241 -0.2073  0.1340
39453W        W82469  19.918  33.886  23.517  0.2118  0.0156  0.0205
39454W        W82470  33.387  20.432  21.537  0.2301  0.0519 -0.2518
39455W        W82471  18.059  27.256  27.630 -0.3577  0.0893 -0.1406
39456W        W82472  25.182  12.035  25.163  0.2273 -0.0109  0.3716
39457W        W82473   7.338  12.204  18.298 -0.1234  0.0732 -0.1691
39458W        W82474  11.608  12.545   3.582 -0.1885 -0.1399  0.1604
39459W        W82475  15.419  20.695  11.548 -0.3247 -0.1673 -0.1207
39460W        W82476  15.241  13.600  22.342  0.0662 -0.3035  0.0516
39461W        W82477  10.771  19.070  14.183 -0.0288 -0.1764 -0.1944
39462W        W82478   5.301  19.178   5.429 -0.3656  0.3066  0.2652
39463W        W82479   2.800  11.520  28.632 -0.0834  0.1194 -0.1686
39464W        W82480  32.028  16.058  17.587  0.3153  0.0689 -0.0108
39465W        W82481  21.601  19.140  22.544  0.1899  0.2150 -0.1197
39466W        W82482  19.144  20.168  14.103  0.0563 -0.2149 -0.0932
39467W        W82483  14.907  19.066  15.712 -0.2379  0.2293 -0.1179
39468W        W82484  28.476  17.281  25.791  0.0323  0.0225 -0.1751
39469W        W82485  15.859  30.501  18.615 -0.1176 -0.1124  0.3214
39470W        W82486  16.703  34.320  16.425 -0.0546  0.2047  0.1720
39471W        W82487   6.456  21.120   7.184 -0.1941  0.2799  0.1344
39472W        W82488  24.447  19.245  28.013 -0.1259 -0.3399  0.0170
39473W        W82489  34.700   7.538  15.752 -0.0001 -0.0318 -0.1175
39474W        W82490  29.680   6.635   2.163 -0.1890  0.1413  0.1888
39475W        W82491  27.204  23.980  20.159  0.0650  0.1563 -0.1305
39476W        W82492   3.373  22.301   5.951  0.1550 -0.0243 -0.0082
39477W        W82493  31.001  25.261  27.890 -0.0249 -0.0299  0.0987
39478W        W82494  33.367  25.316  23.898  0.2238  0.0615  0.2550
39479W        W82495  25.016  17.525  21.426  0.2637 -0.0043  0.0847
39480W        W82496  20.556  33.108  22.716  0.1546  0.0387  0.0594
39481W        W82497  10.545  16.759  24.939 -0.0035 -0.1415 -0.1037
39482W        W82498  29.233  33.571  28.392  0.2757  0.2415  0.2945
39483W        W82499   5.311   8.918  14.612  0.1657 -0.0980 -0.1450
39484W        W82500  30.763  15.296   4.959  0.0682 -0.2183 -0.1634
39485W        W82501   3.531  15.905  16.239 -0.2460  0.0477  0.1487
39486W        W82502  25.441  22.741  24.522  0.2281 -0.1308  0.1035
39487W        W82503  17.732  22.961  13.109 -0.3990 -0.2758  0.2177
39488W        W82504  31.600  16.320   7.502  0.0322 -0.1481  0.2666
39489W        W82505   1.681  13.314  18.304  0.3275  0.0415  0.1034
39490W        W82506   0.346  18.428  24.427  0.4314  0.1085  0.0924
39491W        W82507  29.387  21.624  24.321 -0.3619 -0.0418  0.3345
39492W        W82508  28.045   9.568  26.023  0.1670 -0.0170  0.0276
39493W        W82509  11.127  16.208  13.259 -0.0119 -0.0951 -0.3508
39494W        W82510   8.246  20.712  16.074  0.1863  0.1578 -0.2907
39495W        W82511  27.328   2.835  16.449 -0.0136 -0.2425 -0.1230
39496W        W82512  20.870  30.277  23.549 -0.1141  0.0699 -0.2154
39497W        W82513   3.528  16.730  23.862  0.2799  0.0570 -0.2235
39498W        W82514  26.484  18.837  19.444 -0.0763  0.2635 -0.3677
39499W        W82515  27.179  31.153  22.608  0.1035  0.0105 -0.0277
39500W        W82516  14.354  17.081  13.653 -0.1145  0.0964 -0.0654
39501W        W82517  13.979  25.305  25.655 -0.0883  0.0405  0.2182
39502W        W82518  18.211   3.202  20.246 -0.1981  0.0075 -0.0696
39503W        W82519   1.894  34.357   2.584  0.2593  0.1364 -0.3514
39504W        W82520  34.755  23.314  18.857 -0.0010  0.0655 -0.2696
39505W        W82521  33.544  28.571   0.660  0.2222 -0.1934 -0.0177
39506W        W82522  29.177  19.851  10.644 -0.0241  0.1349 -0.1065
39507W        W82523   2.117  16.562   0.472 -0.2856  0.0306 -0.2190
39508W        W82524   0.624  32.691  28.630  0.2803  0.3190 -0.4358
39509W        W82525  22.018  13.882  21.625  0.0595  0.1542  0.4068
39510W        W82526  32.613   4.259   7.702 -0.1925  0.1675 -0.2095
39511W        W82527   0.643   0.283   2.660 -0.0045 -0.0292  0.1328
39512W        W82528  27.256  22.762  29.240  0.0133  0.0683  0.0838
39513W        W82529  22.953  12.107  21.237  0.1551 -0.0208 -0.1631
39514W        W82530  31.875  22.923  24.381 -0.0541  0.0841 -0.2002
39515W        W82531  29.468  26.787  20.580  0.1314 -0.1567 -0.3210
39516W        W82532  31.492  23.448   6.715  0.0224 -0.1625 -0.1976
39517W        W82533  33.106  17.831   1.434 -0.2512 -0.0025 -0.2912
39518W        W82534   3.684  15.374  27.633 -0.2241  0.3458 -0.0409
39519W        W82535  14.821  14.160   1.886  0.1173 -0.0638  0.0512
39520W        W82536   0.256  23.376  21.934  0.3242  0.0655  0.2464
39521W        W82537  18.129  22.209  17.084 -0.0077  0.0443 -0.0872
39522W        W82538   1.798  18.073   7.246  0.2776 -0.2383  0.2880
39523W        W82539  34.385  26.174  18.806 -0.2691 -0.2283  0.1191
39524W        W82540  29.140  33.343  21.261  0.1217 -0.0599 -0.0858
39525W        W82541   0.451  19.030  20.722  0.2576  0.1663  0.3163
39526W        W82542  26.402  24.651   4.275 -0.2390  0.0077  0.0777
39527W        W82543  34.603  29.179   0.203 -0.1320 -0.2209 -0.0492
39528W        W82544   6.471   8.923  19.923 -0.1826 -0.3742 -0.2595
39529W        W82545  22.447  26.708  15.271  0.0660 -0.0304  0.1899
39530W        W82546  34.169  19.477  18.572 -0.0329  0.1978 -0.0850
39531W        W82547   2.663  32.623  15.358 -0.1283  0.1161  0.0342
39532W        W82548  25.615  17.074  16.336 -0.0605 -0.1716 -0.1322
39533W        W82549  26.106  21.820  25.021 -0.0529  0.0259  0.0755
39534W        W82550  31.650  18.966   2.352 -0.1035 -0.0096 -0.1315
39535W        W82551  30.228  13.530  21.438  0.1672 -0.1062  0.2973
39536W        W82552  31.176  14.327  14.826 -0.0653  0.0654  0.0760
39537W        W82553   0.461  17.595  15.964 -0.0755 -0.0984 -0.0154
39538W        W82554  23.500   5.766  19.016  0.0543  0.3739  0.0119
39539W        W82555   3.053   9.841   9.129  0.2488  0.3253 -0.0885
39540W        W82556  24.182  15.941  24.254 -0.0337  0.2174 -0.2973
39541W        W82557   8.527  18.956  27.935  0.1541  0.1125 -0.1308
39542W        W82558  17.488   8.135  21.641  0.2332 -0.0396 -0.1551
39543W        W82559  18.262  20.395  24.205 -0.1396 -0.2280  0.0974
39544W        W82560  25.903  11.517  22.143  0.1471 -0.3647 -0.1600
39545W        W82561  24.259   5.627  21.968 -0.1917 -0.1750  0.0393
39546W        W82562  26.166  17.481  23.472  0.0219 -0.1711  0.5215
39547W        W82563  23.413  19.506   0.200 -0.1886  0.1143 -0.0224
39548W        W82564  32.455  21.107  15.299  0.1498  0.1736  0.1818
39549W        W82565  24.657   9.806   7.212  0.1965 -0.0891  0.2144
39550W        W82566   1.838   6.797  22.286  0.0003 -0.0843 -0.2267
39551W        W82567  13.334   3.973  16.111  0.2285  0.0914  0.2695
39552W        W82568  25.978  20.099  25.914  0.3637 -0.1322 -0.2399
39553W        W82569  30.871   4.093  15.460  0.4408  0.1481 -0.1010
39554W        W82570  13.221  22.843  18.539 -0.0431  0.0442  0.0553
39555W        W82571  20.241  24.939  15.641  0.0403 -0.0869 -0.0204
39556W        W82572  32.069  24.518   2.849 -0.1334 -0.0800  0.1382
39557W        W82573  28.265  25.750   7.918  0.2101 -0.2089  0.1658
39558W        W82574   4.585   3.161   7.370 -0.0431  0.1915 -0.1339
39559W        W82575  19.353  23.237  20.313 -0.1836 -0.2284 -0.0054
39560W        W82576  31.807  27.318  23.078  0.0281 -0.2993  0.0922
39561W        W82577  23.814  17.834   4.845  0.3757 -0.2366 -0.2364
39562W        W82578  25.684  11.081  21.814 -0.1398 -0.0692 -0.0288
39563W        W82579   1.029  14.422  19.477 -0.1555  0.0663 -0.2165
39564W        W82580  29.050  19.343   1.890  0.2412 -0.1492 -0.0120
39565W        W82581  21.680  30.861  15.610 -0.1650  0.1886  0.0208
39566W        W82582  30.053  15.599  19.539  0.0475 -0.1042  0.1805
39567W        W82583  27.858  17.023  15.591 -0.2272  0.2325 -0.1153
39568W        W82584  30.341  15.252  20.804  0.0435  0.0680  0.1643
39569W        W82585  19.388   9.868  23.855  0.0832  0.0905 -0.1429
39570W        W82586   4.371  18.107   0.498 -0.1502 -0.0499  0.1249
39571W        W82587   0.031   1.790  19.799 -0.1335  0.3080  0.0954
39572W        W82588  13.689  10.707  23.542  0.0564 -0.0059 -0.2388
39573W        W82589  20.436   9.120   5.942 -0.2816  0.0975  0.3966
39574W        W82590  27.488  20.770  10.432 -0.2367 -0.3885  0.0806
39575W        W82591  28.329   7.530   5.288 -0.0555  0.1873 -0.1395
39576W        W82592  33.388  25.397  25.321  0.1635  0.0309  0.0679
39577W        W82593  24.553  20.903   0.364  0.0033  0.0458  0.0700
39578W        W82594  23.037   0.256  25.255 -0.2806  0.1164 -0.1187
39579W        W82595   0.883  21.787  18.751 -0.1905  0.1503 -0.1141
39580W        W82596  23.455   3.441  16.594  0.0251  0.1706  0.1951
39581W        W82597   7.257  28.741  22.794 -0.4024  0.0711 -0.2759
39582W        W82598   2.584  19.575  21.407  0.0943 -0.0667 -0.0606
39583W        W82599  31.387   5.615  16.419 -0.0417  0.2657 -0.2251
39584W        W82600  33.181   8.560   5.977 -0.0492 -0.1684 -0.0253
39585W        W82601  31.860  26.416  20.436  0.0265  0.1391  0.1736
39586W        W82602  22.957  12.445  15.662 -0.0096  0.1678  0.0960
39587W        W82603  31.266  14.967   0.353  0.0767  0.0973 -0.0798
39588W        W82604   4.571   4.512  17.155 -0.3373 -0.0190  0.1521
39589W        W82605   8.106  23.063   4.468  0.0097 -0.0496 -0.0331
39590W        W82606  26.467  26.920  10.669 -0.1218  0.1769  0.1320
39591W        W82607  34.632  29.697   0.015 -0.0785  0.3949 -0.1700
39592W        W82608   0.008   7.406  25.525  0.1429 -0.3311  0.0418
39593W        W82609  24.994   2.815  25.588 -0.1686 -0.1179  0.0091
39594W        W82610   1.418  21.533  16.250 -0.3485  0.1709  0.2326
39595W        W82611   1.086  16.996  27.359  0.1537 -0.3213  0.0921
39596W        W82612  18.964  24.053   1.997 -0.3045  0.3995  0.0903
39597W        W82613   7.525  29.370   3.036 -0.0722  0.4065 -0.3306
39598W        W82614  22.540  24.577   5.182  0.0777  0.0228  0.3129
39599W        W82615  30.338  21.712  18.974  0.0367 -0.2167 -0.1262
39600W        W82616  30.924   5.287  28.843  0.0028 -0.0442 -0.0064
39601W        W82617   1.518  24.401   1.330 -0.0492 -0.1601  0.0904
39602W        W82618  27.456  19.340   8.500 -0.1130 -0.0153 -0.2336
39603W        W82619  31.224  20.130  23.908  0.0307  0.2076  0.0674
39604W        W82620  15.405   6.617  27.603 -0.1341 -0.2981  0.0677
39605W        W82621  31.353  29.587  22.035  0.1312 -0.0074  0.1156
39606W        W82622  34.587   2.874  20.545  0.1939  0.1858 -0.1426
39607W        W82623  29.577  11.880   2.992 -0.2221 -0.2387 -0.1909
39608W        W82624  25.099  26.587  23.527  0.2882 -0.1591  0.1908
39609W        W82625  26.271   8.737  27.796  0.2015 -0.1457  0.0779
39610W        W82626  25.795  12.117  22.090 -0.0117 -0.0429  0.2693
39611W        W82627  22.443   5.401   8.751  0.1964  0.3103 -0.0208
39612W        W82628  15.787  31.501   7.281 -0.0162 -0.2186 -0.0020
39613W        W82629   8.317  23.660  19.090  0.0535 -0.0108 -0.0819
39614W        W82630  31.969  12.050  16.621 -0.1548 -0.2371 -0.1133
39615W        W82631  14.049   2.805  18.913 -0.0720  0.1672 -0.1266
39616W        W82632  29.993  19.801   3.914  0.2603  0.1132 -0.2626
39617W        W82633   1.160  24.624  24.342  0.0701 -0.0483 -0.0771
39618W        W82634  19.310  26.369  23.735  0.0648 -0.0068  0.1189
39619W        W82635  14.372  25.604   6.199 -0.0680  0.1971 -0.0810
39620W        W82636   0.776   0.055  17.628 -0.4242 -0.1595  0.1942
39621W        W82637  23.116  27.643  17.501  0.2622  0.0106 -0.1925
39622W        W82638  12.719  20.016  27.765 -0.2482  0.0589  0.0201
39623W        W82639  26.941  21.009  28.575  0.4567  0.2834 -0.2279
39624W        W82640   6.006  32.032   1.630 -0.0525  0.0530  0.0333
39625W        W82641   5.927  22.351  18.535 -0.0316 -0.0847 -0.0768
39626W        W82642  24.315  29.205  26.346 -0.0102  0.1072  0.2397
39627W        W82643  27.970  25.743   2.493  0.4669 -0.3093 -0.0968
39628W        W82644   4.906   8.679  17.575 -0.3578  0.0823  0.4328
39629W        W82645  32.893  23.983  15.443 -0.0963 -0.2365  0.1091
39630W        W82646  25.393  17.657  17.128 -0.0820  0.2786 -0.1168
39631W        W82647  26.819  31.319   0.689  0.2017  0.2491  0.2372
39632W        W82648  32.055  32.729  23.941 -0.0263 -0.1789  0.0542
39633W        W82649  20.710  34.763  15.651  0.0353  0.1018 -0.3047
39634W        W82650   2.037  18.730  24.078  0.0331  0.0471  0.0567
39635W        W82651  21.012  30.306  21.343  0.2386  0.2010  0.0960
39636W        W82652  17.445  17.002  15.755 -0.2187  0.3387  0.1913
39637W        W82653  16.491  32.917  15.556  0.2207 -0.3381  0.0177
39638W        W82654   3.279  25.552  28.832  0.0243  0.0212 -0.0052
39639W        W82655  34.180  10.566  23.913 -0.1808 -0.0859  0.0573
39640W        W82656  31.902  15.011   4.645 -0.1528  0.0818 -0.1170
39641W        W82657   6.820  23.924  25.106  0.3015  0.1699 -0.1044
39642W        W82658  23.569  13.470  20.723 -0.2192  0.2140 -0.0559
39643W        W82659  18.073  26.863  18.904  0.1667 -0.2936 -0.1309
39644W        W82660  33.592  19.369  15.477 -0.1806 -0.0979  0.3608
39645W        W82661  24.867  28.317   6.221  0.1472 -0.1406  0.0630
39646W        W82662  12.598  25.380  17.759 -0.3133  0.0167 -0.0171
39647W        W82663  29.297  12.365  19.876  0.0779 -0.1319 -0.2882
39648W        W82664  16.874  19.615  15.919  0.2119  0.0144 -0.1918
39649W        W82665   9.181  11.930  28.828  0.0660 -0.3696  0.1602
39650W        W82666  26.911  18.400   9.786  0.2643 -0.0023  0.3040
39651W        W82667  18.053  27.691  24.359 -0.0403  0.3082 -0.3944
39652W        W82668  34.163  13.886  20.451 -0.0020 -0.2852  0.0168
39653W        W82669   5.992  13.625   2.201 -0.0656  0.1428 -0.0509
39654W        W82670  25.939  29.767  23.377 -0.2053  0.0700 -0.1190
39655W        W82671   0.759   8.190  13.835 -0.1691 -0.0155 -0.1901
39656W        W82672   4.000  14.578  15.985  0.1664  0.0449  0.1184
39657W        W82673  26.890  16.647   5.774  0.0098 -0.1474 -0.0250
39658W        W82674  31.526  12.723   9.894  0.0102  0.0362  0.1723
39659W        W82675  22.938  17.336   8.145 -0.0453  0.0360 -0.1971
39660W        W82676  20.602  29.591   1.554 -0.2259  0.2559 -0.0098
39661W        W82677  28.393   4.523  29.125 -0.0457 -0.0306 -0.3763
39662W        W82678  24.202   4.933  14.798 -0.0023  0.1100 -0.2848
39663W        W82679  21.425   8.920  20.820  0.5048  0.0863 -0.2085
39664W        W82680  34.062  34.241  14.504  0.2458 -0.0958  0.4544
39665W        W82681  21.830  16.535  24.637  0.0972  0.2356  0.4587
39666W        W82682  34.211  21.026  16.795  0.3218  0.1353  0.2227
39667W        W82683  18.921  19.526   1.634  0.1080 -0.0554 -0.1983
39668W        W82684  19.151  15.579  15.071 -0.0888 -0.3506  0.0258
39669W        W82685   0.983  25.968   0.052 -0.2331 -0.0195 -0.0026
39670W        W82686  34.052  12.481  16.272  0.0726  0.2137 -0.0042
39671W        W82687  18.659  16.932   2.286 -0.0427  0.1733 -0.2141
39672W        W82688  23.886  20.528  25.246 -0.4657 -0.0652 -0.0450
39673W        W82689  30.339  19.783  16.195 -0.2077 -0.0830 -0.2084
39674W        W82690  26.656   4.397  21.097  0.0111 -0.0809 -0.1727
39675W        W82691  33.845  24.158  19.583 -0.0801  0.1130  0.1748
39676W        W82692  22.828  12.274  21.771 -0.2575  0.0537 -0.2102
39677W        W82693  17.505  27.316  20.969  0.0804 -0.0741 -0.3361
39678W        W82694   1.329  33.405   4.491  0.0515 -0.0070 -0.1632
39679W        W82695  11.571   6.803  16.457  0.0206  0.4073  0.1686
39680W        W82696   4.747   5.850  15.016 -0.1759  0.0939  0.0962
39681W        W82697  18.685  16.827  20.710 -0.4437 -0.1238 -0.0411
39682W        W82698  23.050  21.870  23.013  0.0607  0.2018  0.0804
39683W        W82699  15.985   9.672  15.819 -0.1064 -0.1775  0.1324
39684W        W82700   1.283  14.224   4.395  0.1575 -0.0720  0.2815
39685W        W82701  32.541  11.042  16.706  0.1538 -0.0993  0.2448
39686W        W82702   4.728  17.441  20.477  0.0613  0.1799 -0.0861
39687W        W82703  33.828  10.568  20.188 -0.1432  0.1889 -0.0124
39688W        W82704  20.890  25.333   7.856 -0.0158  0.1481 -0.0213
39689W        W82705  27.955  12.587   4.321  0.0346  0.2345 -0.0519
39690W        W82706   4.932  23.284  22.256  0.0408 -0.2286 -0.1358
39691W        W82707   1.754  25.477  22.312 -0.1560 -0.2209  0.1990
39692W        W82708  17.898  15.493  21.613 -0.1504 -0.0696 -0.1181
39693W        W82709  28.033  24.165  16.369 -0.1592 -0.2071  0.2819
39694W        W82710   3.442   3.256  22.228 -0.2353  0.2743  0.0328
39695W        W82711   0.628  23.727  28.723  0.5432  0.2597 -0.2012
39696W        W82712  17.708  11.084  13.437 -0.1136 -0.0277 -0.0722
39697W        W82713  19.997   4.137  20.958  0.3202 -0.2165 -0.3849
39698W        W82714   5.707  31.124   1.284  0.2998 -0.1229  0.2356
39699W        W82715  28.512  16.888  22.746 -0.0497  0.1673 -0.1758
39700W        W82716   8.035  17.306  21.729 -0.2201  0.3478  0.1956
39701W        W82717  28.840  16.584   0.877 -0.0789  0.1568 -0.0703
39702W        W82718   3.932   7.937  19.501 -0.0049 -0.3962  0.2996
39703W        W82719  34.051  30.401  28.704 -0.0570  0.2396  0.0641
39704W        W82720  13.586  15.659  26.995  0.2053  0.1685 -0.2658
39705W        W82721   3.612  24.564  23.371 -0.1713  0.2008  0.1689
39706W        W82722  23.472  16.352   7.303 -0.1794 -0.1075 -0.2493
39707W        W82723  21.849   9.341  17.603 -0.1904 -0.1213  0.0163
39708W        W82724  24.700   6.648  19.171 -0.1401  0.3010  0.2952
39709W        W82725  30.077  23.618  15.406  0.2103 -0.2846 -0.2993
39710W        W82726  34.549  20.844  24.982 -0.1677 -0.2000  0.1222
39711W        W82727  32.014  20.045  19.713  0.4365  0.1300  0.4232
39712W        W82728  27.528   1.014  25.910  0.0979  0.2175  0.2301
39713W        W82729  23.964   7.443   3.815  0.0142 -0.0949  0.0123
39714W        W82730   0.822   6.334  21.971  0.0654  0.1935 -0.1699
39715W        W82731   2.686  28.555  23.109  0.0641  0.2088 -0.2545
39716W        W82732  29.478  17.664  15.956  0.1626 -0.0405  0.1191
39717W        W82733   5.644  19.209  14.665  0.0337  0.2361 -0.3235
39718W        W82734  21.624  29.879  15.318  0.1827 -0.2277 -0.0491
39719W        W82735  19.328  30.774   8.078 -0.2321  0.3170 -0.3794
39720W        W82736   8.577  21.215  29.011  0.0218  0.0078  0.0122
39721W        W82737   4.209  18.840   4.289  0.0865 -0.2556 -0.3029
39722W        W82738   2.759  32.059  24.541 -0.2606  0.0316 -0.1810
39723W        W82739   1.960  10.292  23.945 -0.0133  0.1069 -0.0082
39724W        W82740   4.898  24.023   0.396  0.1133 -0.0711 -0.0159
39725W        W82741  26.224  21.079  23.199 -0.1511  0.1377  0.2711
39726W        W82742   1.104  17.136  23.381 -0.3283 -0.1560  0.2336
39727W        W82743  31.875   2.513  19.301  0.0193  0.3717  0.0729
39728W        W82744  27.817   1.381  20.910 -0.1019  0.1410  0.0085
39729W        W82745  25.482  31.904  18.913  0.1710 -0.0023 -0.0075
39730W        W82746  24.495  18.833   5.797  0.3560 -0.2350  0.1656
39731W        W82747  27.826  19.043  19.010 -0.0300 -0.0176 -0.1703
39732W        W82748   4.270  33.704  18.362  0.0657 -0.3506 -0.2141
39733W        W82749   0.429   1.509   5.588  0.1622 -0.1824 -0.1839
39734W        W82750  27.785   2.142  28.459  0.1357  0.0453  0.3403
39735W        W82751   4.566   4.497  23.683 -0.1316 -0.2282 -0.2143
39736W        W82752  17.341   4.251  25.047 -0.1945 -0.2839 -0.1943
39737W        W82753   0.819  19.363   1.561 -0.1906 -0.0238  0.3661
39738W        W82754  32.138  16.386  18.383  0.2354 -0.2880  0.0289
39739W        W82755  31.650  17.810  19.028  0.0019  0.0006 -0.2043
39740W        W82756  30.062  32.439  26.824  0.3369  0.0065  0.1583
39741W        W82757  33.016  16.464   4.206  0.2604  0.3668  0.3364
39742W        W82758  22.385   0.352  27.595  0.0235 -0.1581  0.0801
39743W        W82759  27.434   6.603  22.629 -0.1849 -0.3120  0.1016
39744W        W82760  14.157  20.687  22.548 -0.2801  0.1551  0.4768
39745W        W82761  24.300  33.779  16.096 -0.0333 -0.2908  0.1674
39746W        W82762  20.285  31.846  18.196 -0.3875  0.0888  0.0919
39747W        W82763  26.214  14.851  14.466  0.1596  0.2407  0.1068
39748W        W82764  25.863  14.149  27.347 -0.2188 -0.0725 -0.2061
39749W        W82765  31.588  18.518  20.689 -0.1027  0.0102  0.0870
39750W        W82766  13.212  24.071  20.021  0.0740  0.0908  0.4587
39751W        W82767   1.534   8.846  23.766 -0.0228 -0.2021 -0.0380
39752W        W82768   6.128  29.595   0.356  0.0764  0.0213 -0.1888
39753W        W82769  30.365  14.821  22.791  0.0366  0.1143  0.3250
39754W        W82770   6.760   6.697   4.121  0.2520  0.1566 -0.0348
39755W        W82771  29.774  32.417   7.777 -0.1384 -0.1010 -0.1285
39756W        W82772   7.043  26.989  23.848 -0.1056  0.0089  0.0271
39757W        W82773   2.606   3.573  26.760  0.1341 -0.1255  0.2435
39758W        W82774  10.817  17.704  18.623  0.1858  0.0696  0.1951
39759W        W82775   4.367  25.976  13.271 -0.0046  0.1281 -0.1446
39760W        W82776  20.114  12.905  14.122 -0.1718  0.2044  0.0608
39761W        W82777  29.729  21.519  19.437 -0.0483  0.0248  0.1953
39762W        W82778   2.885   5.397  14.652 -0.0359  0.0112 -0.0007
39763W        W82779  27.139   5.745  18.346 -0.0951  0.0003  0.2690
39764W        W82780  23.209  13.028  20.078 -0.3152  0.0072  0.0749
39765W        W82781  32.060  31.152   3.129  0.2939  0.0520 -0.0933
39766W        W82782  24.306  15.165  27.580 -0.1015 -0.0722 -0.1170
39767W        W82783  26.423  25.950   9.611 -0.1250 -0.2796 -0.2055
39768W        W82784   5.171   7.618  15.267  0.0654 -0.3831  0.0015
39769W        W82785  13.440  14.336  21.739  0.0992 -0.1431 -0.0487
39770W        W82786   0.527  15.639   4.805  0.0930 -0.0644 -0.2515
39771W        W82787  13.219  29.377  22.700  0.0603  0.1145  0.3298
39772W        W82788  14.442  24.378  21.017 -0.0676  0.0509 -0.0316
39773W        W82789   7.454   7.364   4.138 -0.0706 -0.1705  0.0845
39774W        W82790  29.085   8.470  25.212  0.1596  0.1135 -0.2145
39775W        W82791  32.442  22.256   0.835 -0.0825  0.1621 -0.1327
39776W        W82792  10.933  18.059   6.094  0.4261 -0.1197 -0.3017
39777W        W82793  11.442  14.284  17.108 -0.1962  0.0628  0.1903
39778W        W82794  27.538   3.107   6.056  0.2326  0.1628 -0.1977
39779W        W82795  20.551  29.210   7.063  0.1981  0.1123  0.1201
39780W        W82796  14.722  11.478  18.188 -0.3503  0.1678  0.2413
39781W        W82797  10.186  28.878   4.681 -0.2111 -0.3106  0.2803
39782W        W82798  25.604  12.629  28.037 -0.1994  0.2012  0.3292
39783W        W82799  30.121  19.682   3.348  0.0004 -0.4543  0.0099
39784W        W82800   5.223   1.699   9.446 -0.2793  0.2301 -0.0002
39785W        W82801   0.340  26.653  18.755 -0.1473 -0.0250  0.1513
39786W        W82802  17.829  25.480  22.175  0.1473  0.0221 -0.4626
39787W        W82803  12.023  23.262   4.456 -0.1214  0.1783  0.0093
39788W        W82804  33.896  19.784  23.052  0.1777 -0.0951 -0.1553
39789W        W82805  24.035  27.748   9.275  0.2752  0.0904  0.1629
39790W        W82806   5.333  21.239  17.327  0.1545 -0.0353 -0.0309
39791W        W82807  19.138   6.209  26.690 -0.0453  0.0622  0.0534
39792W        W82808  25.425  28.872  27.339  0.0259 -0.4760 -0.3250
39793W        W82809  11.587  32.305  28.927  0.2113 -0.1530 -0.2036
39794W        W82810  29.345   2.457  27.173  0.3108 -0.2262 -0.2015
39795W        W82811   4.887   6.888   1.899  0.1427  0.0194  0.2304
39796W        W82812   9.761  22.902  26.097 -0.2419  0.0420  0.1052
39797W        W82813   1.330   1.038  21.687 -0.4594 -0.0783 -0.5712
39798W        W82814   4.080  12.816   7.157 -0.1074  0.1353 -0.0267
39799W        W82815  21.706  19.423  20.277 -0.0369  0.1015  0.2942
39800W        W82816  19.489  28.734  23.135  0.1562 -0.0982 -0.0982
39801W        W82817   4.811  32.581  21.238 -0.2094  0.1667 -0.1162
39802W        W82818  27.694  11.025  14.843 -0.1219 -0.0846 -0.2804
39803W        W82819  11.815   0.731  27.340  0.1665 -0.0428  0.2396
39804W        W82820  21.780  21.730   9.640  0.3575  0.2248  0.0444
39805W        W82821  29.279   4.242   0.402 -0.1794  0.1352  0.0912
39806W        W82822   0.843  11.128   4.433  0.2169  0.1106  0.2974
39807W        W82823   4.286  26.699   2.574 -0.1567 -0.1367  0.0123
39808W        W82824  30.028  22.473   6.258  0.1911 -0.1299  0.0227
39809W        W82825  33.625  12.929  19.286 -0.0479  0.0771 -0.2496
39810W        W82826  26.657  23.776  27.376 -0.2446 -0.1719 -0.0288
39811W        W82827  26.028  23.526  15.707  0.4799 -0.1356  0.0615
39812W        W82828  19.427   8.589   9.183 -0.1169 -0.1505  0.1289
39813W        W82829  20.006  33.486   0.124 -0.1366 -0.2753 -0.0018
39814W        W82830  29.535  27.590   1.163  0.2014  0.2866  0.0889
39815W        W82831  22.306   9.770   2.399  0.1835  0.2560  0.0823
39816W        W82832  14.134  29.724  17.869 -0.0407  0.1685  0.0967
39817W        W82833  15.722   2.741   0.933  0.1219  0.1289  0.0499
39818W        W82834  21.139  32.957  15.541  0.0694  0.2641 -0.1972
39819W        W82835   2.071  19.604   0.297  0.0009  0.3517  0.1189
39820W        W82836  26.275  10.147   7.194  0.2027 -0.4184  0.0685
39821W        W82837  25.783  16.835   5.875  0.1973  0.0098  0.2595
39822W        W82838  20.626  23.555   1.891  0.0005  0.1084 -0.0105
39823W        W82839  27.520  31.576   1.451  0.0087  0.0304 -0.0503
39824W        W82840  31.588   5.705   2.652 -0.0770  0.1546  0.1273
39825W        W82841   2.214  26.883   1.637 -0.0344 -0.0597 -0.5165
39826W        W82842  28.439  17.542  19.633  0.0966  0.0691  0.0808
39827W        W82843  31.934  14.789  25.538  0.0712 -0.0042  0.2830
39828W        W82844   6.274  10.873   6.982  0.1716 -0.5349 -0.0737
39829W        W82845   6.915  30.309   7.164  0.0156  0.0019  0.2358
39830W        W82846  27.613  25.637  22.592 -0.0843 -0.4837 -0.1791
39831W        W82847  29.300  21.651   4.967 -0.0242  0.2974  0.1876
39832W        W82848   8.871  16.984  21.819  0.0080  0.0946  0.2360
39833W        W82849  30.472  10.086   2.263  0.1197 -0.0263  0.0328
39834W        W82850  27.591  29.006  10.052 -0.0561  0.1391 -0.1566
39835W        W82851   1.431  25.147   5.877 -0.2192 -0.1511 -0.1478
39836W        W82852  32.213  20.761  20.933 -0.1675  0.0085  0.1282
39837W        W82853  33.995  27.777  10.982 -0.0336  0.4711  0.1283
39838W        W82854   8.460  12.387  24.222 -0.2409 -0.0918 -0.0109
39839W        W82855  32.310  28.830   8.866 -0.4604 -0.1017  0.2567
39840W        W82856  25.751  32.949  19.990 -0.1755 -0.1933 -0.1442
39841W        W82857   2.228   0.443  24.799  0.2474  0.4550 -0.1697
39842W        W82858  13.887  20.529  26.165  0.1695 -0.0088  0.1561
39843W        W82859  27.446  32.933   0.667  0.2299 -0.0428 -0.0448
39844W        W82860  13.942  34.169  20.305 -0.1220 -0.2936  0.0241
39845W        W82861  28.341  15.224  18.030  0.5006  0.3574  0.0171
39846W        W82862   6.351  12.352  18.348  0.0007 -0.2441  0.1119
39847W        W82863  29.555  19.116  21.453  0.0219  0.1764 -0.0192
39848W        W82864  29.406  22.233   9.700 -0.1407 -0.0540 -0.1581
39849W        W82865  25.673  20.578   8.137 -0.0351  0.1335 -0.3861
39850W        W82866   6.425  25.057   5.338 -0.0720  0.4071 -0.3313
39851W        W82867   1.267   0.454   8.090  0.0320  0.1876  0.1529
39852W        W82868  22.912  14.020   5.746 -0.0138  0.1679 -0.0487
39853W        W82869  26.443   9.713   2.207  0.2035 -0.2841 -0.0938
39854W        W82870  31.261  24.165  24.976 -0.1020  0.0047  0.0885
39855W        W82871  22.944  30.278  23.924  0.0327 -0.0081  0.2697
39856W        W82872  25.256  11.556  19.998  0.1305 -0.0187 -0.0132
39857W        W82873  28.644   3.544  19.930 -0.1301  0.3593  0.3736
39858W        W82874  18.219  34.256  28.164 -0.0075  0.4446 -0.0781
39859W        W82875  31.732  11.068   2.752 -0.1816  0.0665  0.0078
39860W        W82876  15.897  34.191   1.839  0.1668  0.0705  0.1857
39861W        W82877   2.640  12.517  25.503 -0.0730 -0.1429  0.1324
39862W        W82878   5.247  14.760  21.858 -0.0829 -0.1178  0.0055
39863W        W82879  31.084  21.443  22.216 -0.0839  0.0950 -0.2249
39864W        W82880  20.999  18.323  29.102  0.2853  0.2104  0.1706
39865W        W82881  32.154  11.503  24.772  0.2069 -0.4176  0.1158
39866W        W82882  23.648  24.249   4.162 -0.0978  0.1939 -0.1480
39867W        W82883   4.722  30.913  19.603 -0.0303  0.0422 -0.0850
39868W        W82884  20.037  13.922  22.376 -0.1401 -0.0411 -0.2425
39869W        W82885  26.972   7.246  10.698 -0.0068  0.1055 -0.0421
39870W        W82886  22.910  33.565  16.985 -0.1408  0.0396 -0.0617
39871W        W82887  19.826  33.427  26.036 -0.0151  0.1020 -0.0394
39872W        W82888   4.384   8.904  26.437  0.3791 -0.3243  0.0199
39873W        W82889  26.187  11.031  23.331  0.0152  0.1458 -0.1240
39874W        W82890  28.749  18.071  16.272  0.0694 -0.2060  0.3989
39875W        W82891  19.262  27.884  18.299 -0.2695  0.4172 -0.1118
39876W        W82892  33.321  23.604  21.604 -0.0162 -0.1285 -0.1706
39877W        W82893   0.461  16.456  26.961 -0.2399  0.1365 -0.0796
39878W        W82894   2.124  14.744  18.509  0.1674 -0.1701  0.1209
39879W        W82895  32.423  30.217   2.900  0.2091 -0.0968  0.0936
39880W        W82896   4.609  14.230   2.337  0.2776 -0.0934 -0.1456
39881W        W82897  19.566  13.922  15.631  0.0238 -0.1882  0.0554
39882W        W82898  31.199  29.016  21.313 -0.0837 -0.0287 -0.1778
39883W        W82899  26.086  13.296  20.960  0.2711  0.0491 -0.0656
39884W        W82900  10.320  11.333  17.807  0.0354  0.2484  0.1120
39885W        W82901  22.989   2.590  23.911 -0.2721 -0.2865 -0.2180
39886W        W82902   4.841  29.284  24.380  0.3429  0.1551 -0.1988
39887W        W82903   7.696  34.686   6.937  0.2780  0.1667 -0.1227
39888W        W82904  22.900  23.128   1.114  0.3409 -0.1365 -0.0604
39889W        W82905  31.252  32.063   8.373  0.1297 -0.2967  0.0945
39890W        W82906   4.087  29.687  19.634 -0.3813  0.0604 -0.1237
39891W        W82907  17.555  23.043  26.667  0.0625 -0.2368  0.1793
39892W        W82908   1.884  26.807  23.673  0.0037  0.2163  0.2795
39893W        W82909  25.653  17.673   5.705  0.0791 -0.0868 -0.3300
39894W        W82910   7.466  32.867  16.456 -0.1634  0.2402  0.2590
39895W        W82911   1.785  13.887   0.413 -0.0172 -0.3847  0.1683
39896W        W82912  24.800   1.986  25.114  0.0305  0.0049  0.4077
39897W        W82913   1.887   5.687  25.470  0.0190  0.1682  0.0403
39898W        W82914  25.772  31.555  10.421  0.2180 -0.3684  0.3560
39899W        W82915  30.854  22.957   7.024  0.1344  0.0714  0.2382
39900W        W82916  24.323  18.497  22.198 -0.1058  0.1553  0.0439
39901W        W82917  18.547  12.034   4.211  0.3564  0.0005 -0.0800
39902W        W82918  14.311  15.883  26.905 -0.1380 -0.0821  0.1832
39903W        W82919  15.753  29.898   2.730  0.1138  0.0779  0.0599
39904W        W82920  28.577  26.545   5.635  0.2038 -0.0727  0.0895
39905W        W82921   5.392  21.555  21.569  0.0307  0.3844 -0.0380
39906W        W82922  22.652  11.256  23.131  0.1561  0.0519 -0.1160
39907W        W82923  22.837  26.510  15.442 -0.0360 -0.4501 -0.1596
39908W        W82924  27.494  22.707   8.727 -0.0243  0.1962 -0.0565
39909W        W82925  31.404  31.921  27.592  0.0299 -0.2445  0.1163
39910W        W82926   6.964  18.603   5.078  0.1996  0.1059  0.1049
39911W        W82927  14.501  10.697  15.647 -0.0459 -0.0383 -0.1686
39912W        W82928  30.591  16.403   7.094 -0.3936 -0.0923 -0.0140
39913W        W82929  32.163  13.353  24.226 -0.0686  0.0649  0.4969
39914W        W82930  25.126  33.684  28.402 -0.0957 -0.4123  0.0596
39915W        W82931  17.105   4.030  21.698 -0.1812 -0.1040  0.1186
39916W        W82932  23.106  31.241  20.852 -0.4195  0.1433  0.0666
39917W        W82933   1.592  24.082  14.065  0.1213 -0.2484 -0.1164
39918W        W82934   0.001  27.636  14.406 -0.0407  0.0003 -0.0049
39919W        W82935  26.487   4.377   2.127  0.1734 -0.1013  0.3787
39920W        W82936   9.639   8.238  19.135 -0.0299 -0.2469  0.2644
39921W        W82937  33.178  21.105  25.479 -0.1005 -0.2506  0.1412
39922W        W82938  25.326  13.320   0.689  0.1876  0.1419  0.0440
39923W        W82939   6.952  18.055   0.748 -0.0280 -0.3688  0.3568
39924W        W82940   4.439  18.720  21.334 -0.0747 -0.1290 -0.2253
39925W        W82941  34.759  11.242  21.087 -0.2480 -0.0275  0.4535
39926W        W82942  33.033  21.886  16.290 -0.1913  0.3449  0.1212
39927W        W82943  23.639  16.402  18.529 -0.0187  0.5587  0.1138
39928W        W82944  29.258  20.935  28.309  0.3059 -0.0228 -0.2679
39929W        W82945  13.837  20.116  15.529 -0.1655  0.2599  0.1217
39930W        W82946  11.997  12.661   8.141  0.3837 -0.1676 -0.2008
39931W        W82947  26.709  34.087  15.173 -0.0407 -0.1650  0.1501
39932W        W82948  29.466  24.953  28.470 -0.0864  0.3679 -0.0572
39933W        W82949  29.748   7.480   3.984  0.3126  0.1327 -0.0080
39934W        W82950  14.854  34.258   7.946 -0.0900  0.0417 -0.0880
39935W        W82951   0.684  28.628   3.814 -0.1824 -0.1806  0.1902
39936W        W82952  21.499  23.056   1.021  0.1299 -0.0330 -0.3164
39937W        W82953   0.239  29.884  17.688  0.2111 -0.0143  0.1686
39938W        W82954   1.732   0.444   7.161  0.0928 -0.1769  0.0180
39939W        W82955   6.714  21.215  22.140  0.0537 -0.1784  0.1992
39940W        W82956  32.713  16.395  15.206 -0.0056 -0.0904  0.0060
39941W        W82957   0.462  13.783   7.584 -0.0489 -0.1313 -0.4600
39942W        W82958  26.554  26.410  20.162 -0.0342  0.1829  0.0221
39943W        W82959  13.764  13.453  27.098  0.0249  0.0640 -0.0875
39944W        W82960  25.563  13.939   8.036  0.0781 -0.0355  0.1897
39945W        W82961   8.512  30.400  24.647 -0.0116 -0.0969  0.0048
39946W        W82962  21.694  20.360  14.556  0.1941  0.0346  0.0416
39947W        W82963  18.492  24.142  22.068  0.3441  0.1047  0.2167
39948W        W82964  28.655  18.083  23.422  0.1291  0.0802 -0.0398
39949W        W82965  28.193  18.070  27.583  0.1049  0.2050  0.0036
39950W        W82966  12.109  25.949  16.509  0.2953 -0.0647 -0.0136
39951W        W82967  33.632  19.002   9.475 -0.0593  0.0895 -0.2834
39952W        W82968  27.502   7.585  28.635 -0.0491 -0.0440  0.0591
39953W        W82969   4.416   7.050  23.396  0.0181  0.3028  0.0239
39954W        W82970   0.807  20.210  15.999 -0.0712 -0.1281 -0.0257
39955W        W82971  17.965   9.182  20.726  0.0279  0.2339  0.0180
39956W        W82972  16.216  32.478  16.448  0.0864 -0.1514 -0.0413
39957W        W82973   4.205  22.822  19.923  0.0681 -0.2589  0.2748
39958W        W82974   0.246  23.141  28.428  0.0617  0.2210  0.1809
39959W        W82975   2.193  31.101  22.594  0.2013 -0.0618  0.0638
39960W        W82976   0.819   7.675   1.242  0.0672 -0.0160  0.1759
39961W        W82977  21.769  17.880  13.098 -0.0351 -0.3371  0.0973
39962W        W82978   2.796  10.598   7.645 -0.0586 -0.1846  0.0627
39963W        W82979  31.775  16.684  14.886 -0.0038  0.2182  0.2304
39964W        W82980   8.452  10.401   6.487  0.1216 -0.0737 -0.0899
39965W        W82981  12.181  24.046  18.265 -0.0735  0.1410 -0.1072
39966W        W82982  24.856  20.906  28.182  0.3933 -0.0340  0.0708
39967W        W82983   0.520   9.985   8.875 -0.0075  0.1378  0.0321
39968W        W82984  20.959  22.626  12.994  0.2068  0.0285 -0.4228
39969W        W82985   3.281  19.888  25.593  0.0226 -0.1368  0.0087
39970W        W82986   4.586  28.257  21.350  0.2069  0.1452 -0.0653
39971W        W82987  29.822  24.320  19.863  0.1374  0.1583  0.1898
39972W        W82988  32.924   4.012  21.178  0.0631 -0.1566  0.1379
39973W        W82989  19.716  16.086  26.436  0.3262 -0.1225 -0.2152
39974W        W82990   3.675  25.790  18.395  0.0989  0.1216  0.0808
39975W        W82991  33.484  12.240  25.177  0.0117 -0.0366  0.0227
39976W        W82992  33.452  14.947  18.015 -0.1579  0.0406 -0.0020
39977W        W82993   5.725  17.558   5.509  0.0413  0.2062 -0.2315
39978W        W82994  25.902   6.553  19.220 -0.1040 -0.2626  0.2452
39979W        W82995  15.900  17.580  29.304  0.3037  0.0604 -0.1131
39980W        W82996  15.820   4.497  14.597  0.0856  0.3224  0.0337
39981W        W82997  13.943  24.870  14.989  0.0246 -0.0651  0.0697
39982W        W82998  10.238  17.056  21.048 -0.2013  0.0148 -0.0090
39983W        W82999  33.838  26.614  10.021 -0.2766 -0.0603 -0.0981
39984W        W83000  23.885  32.548   9.205  0.1193 -0.0731 -0.0350
39985W        W83001  10.059  27.069   6.845  0.0834 -0.3442 -0.0826
39986W        W83002  31.742   4.042   1.717 -0.3755 -0.2587 -0.1208
39987W        W83003  14.593   0.148  17.447  0.0059 -0.0249 -0.0469
39988W        W83004  30.967  10.735  19.530  0.1313  0.3175  0.2620
39989W        W83005  30.447  18.356  23.612  0.0203 -0.0912  0.0398
39990W        W83006   5.857  22.091  27.425  0.2585 -0.4658  0.0332
39991W        W83007   3.658  14.829  21.358 -0.1545 -0.0327 -0.0700
39992W        W83008   3.823  32.623  23.846  0.1326 -0.0572  0.4477
39993W        W83009  33.816  29.397  20.985 -0.1001  0.0038  0.1564
39994W        W83010  16.427   6.697   0.067 -0.1013 -0.1057 -0.2117
39995W        W83011  21.254  18.974  20.592 -0.2855 -0.1239 -0.1997
39996W        W83012   6.198   4.903   9.327  0.2860  0.1697 -0.1833
39997W        W83013  26.975  24.691  17.920  0.2268 -0.1785  0.2094
39998W        W83014  12.197  26.484   3.219  0.2785  0.0280  0.2551
39999W        W83015   8.518  21.624  19.448 -0.0439 -0.0917  0.1592
40000W        W83016  31.447  24.662  22.927  0.0618  0.1306  0.1519
40001W        W83017  16.743  17.536  18.699  0.0567 -0.2705  0.1881
40002W        W83018  19.316  16.867   5.286 -0.0555  0.0105  0.3903
40003W        W83019  20.476  10.154   0.790 -0.4043 -0.1787  0.1242
40004W        W83020   8.871   1.182  18.848 -0.0470  0.3265  0.1129
40005W        W83021  32.983  29.005   6.925 -0.2936  0.1343  0.0716
40006W        W83022   4.944  22.753  26.996 -0.1475  0.1419  0.1075
40007W        W83023  30.143  21.910  28.219 -0.0302 -0.1556  0.2110
40008W        W83024   5.399   9.775  18.176 -0.1255  0.0950 -0.0625
40009W        W83025   8.296  16.448  18.708  0.0214  0.0874  0.2095
40010W        W83026  21.123  18.565  21.867  0.0374 -0.0730  0.2664
40011W        W83027  30.156  16.770  19.607 -0.0902  0.0330  0.0932
40012W        W83028  27.455  34.220   0.948 -0.1896 -0.3640 -0.1395
40013W        W83029  15.868   0.048  26.380 -0.2712 -0.3726 -0.2500
40014W        W83030  32.782   9.082  17.253 -0.1797 -0.1001  0.2833
40015W        W83031  17.092  15.581  22.441  0.1486  0.1825 -0.4365
40016W        W83032   4.414  26.676   2.043 -0.1734 -0.4363 -0.0085
40017W        W83033  25.456  22.688  21.787  0.1419 -0.0393 -0.0037
40018W        W83034  32.688  16.207  18.267  0.0619  0.1648 -0.0831
40019W        W83035  21.137  21.323   9.877  0.1668 -0.0196  0.4401
40020W        W83036  25.473   9.170  28.833  0.0592  0.2099  0.2157
40021W        W83037   9.493  17.150  28.697  0.1504  0.0860 -0.1149
40022W        W83038   1.565  27.690   4.490 -0.1007  0.2229 -0.1381
40023W        W83039   3.651  12.981   8.886 -0.1830  0.1436  0.0058
40024W        W83040  24.532   4.728  21.098 -0.0796 -0.2036  0.1803
40025W        W83041  20.763  15.813  23.881 -0.1119 -0.3350 -0.3545
40026W        W83042  21.382  12.446  26.980  0.4143  0.1610  0.2026
40027W        W83043  13.918  15.734  24.840 -0.1607 -0.0721 -0.1094
40028W        W83044   0.824  11.494   6.493  0.1777 -0.1124 -0.2834
40029W        W83045  16.665  24.275   5.107  0.1038 -0.0472 -0.1991
40030W        W83046  24.072  17.464   6.700 -0.0257  0.0810 -0.2346
40031W        W83047  16.051  20.034  26.619  0.2609  0.0592 -0.1864
40032W        W83048   4.966   0.678   4.085  0.3649 -0.2453 -0.0551
40033W        W83049   1.397  21.466  19.105 -0.1504  0.0485  0.0797
40034W        W83050   4.308  24.316   5.183 -0.1714  0.0594  0.3467
40035W        W83051  27.682  16.770   9.884 -0.1816  0.0849 -0.3854
40036W        W83052   6.086  22.177  19.278  0.2758 -0.0498 -0.1200
40037W        W83053  20.902  26.331  20.349 -0.0150 -0.1306  0.3554
40038W        W83054   2.345  23.673  23.317 -0.0663 -0.0500 -0.3387
40039W        W83055  29.964  23.220  25.924 -0.0088  0.0180 -0.1542
40040W        W83056  34.609  18.035   1.123  0.3136 -0.1808 -0.0431
40041W        W83057   2.258  18.215  15.168  0.0365 -0.1931  0.2510
40042W        W83058   1.925  30.210  19.294  0.4319 -0.0015 -0.1315
40043W        W83059   0.642  15.405  23.064 -0.0107 -0.1382 -0.0163
40044W        W83060  12.639  33.130  24.991  0.3105  0.0354 -0.2586
40045W        W83061   7.358  15.083   4.648  0.2291  0.0594 -0.1354
40046W        W83062   4.632   8.698   1.539 -0.2324  0.2462 -0.1367
40047W        W83063  19.738  17.002  14.883 -0.1139  0.0909  0.0522
40048W        W83064  10.345  12.625  19.957 -0.0278  0.1013 -0.3359
40049W        W83065   2.574  20.486   9.183 -0.1288  0.0874  0.2985
40050W        W83066  21.837  25.617  23.288  0.1023 -0.2434 -0.0259
40051W        W83067  17.318  12.188  21.381 -0.2182 -0.0051  0.1895
40052W        W83068  27.600   5.709   0.848 -0.0844 -0.2911 -0.0824
40053W        W83069  32.514  15.616  11.059  0.0569  0.1072  0.0382
40054W        W83070  27.626  28.172  24.959  0.0133 -0.1930 -0.2357
40055W        W83071  30.351  28.956   0.022  0.1377 -0.2395  0.0922
40056W        W83072  31.636  10.859  28.727  0.0299  0.0529 -0.2159
40057W        W83073  29.833  23.429   4.933 -0.0170 -0.0985 -0.1316
40058W        W83074  21.382  17.076   3.174 -0.0938  0.2980 -0.1278
40059W        W83075   2.926  27.219  21.143  0.0293  0.0765 -0.0547
40060W        W83076  21.615  10.702   3.332 -0.0537 -0.2057 -0.2018
40061W        W83077  32.625  17.244   1.833 -0.2954  0.1406 -0.2360
40062W        W83078  18.698  22.534  17.792  0.2101  0.3974 -0.0702
40063W        W83079  25.054  24.153  23.679 -0.0052 -0.2260  0.1159
40064W        W83080   3.179  29.244  23.523 -0.1358  0.0005  0.1248
40065W        W83081  30.759  32.248  22.100  0.1812  0.1326 -0.0008
40066W        W83082  29.533  14.410  18.143  0.4418 -0.2087 -0.1664
40067W        W83083  30.245  22.656  25.701  0.1182 -0.0281 -0.3192
40068W        W83084   5.468  33.082  27.621 -0.0873  0.4182  0.3503
40069W        W83085  22.699   4.823  25.011 -0.1159 -0.2501  0.0437
40070W        W83086  15.419   8.174  14.518  0.2816 -0.2071 -0.3035
40071W        W83087  26.758  29.192   2.824 -0.2352  0.1264 -0.1221
40072W        W83088  30.834  18.197  28.264 -0.1997  0.0856  0.0587
40073W        W83089  19.405  24.145  25.985  0.0883  0.0948  0.2143
40074W        W83090  33.745   6.614  23.360  0.1496  0.0534  0.0602
40075W        W83091  27.813  18.914  16.318 -0.0894  0.1783  0.1170
40076W        W83092  29.969  12.766  26.750  0.1823 -0.0894  0.0328
40077W        W83093  27.300  14.349   5.260 -0.0693 -0.1657  0.0868
40078W        W83094  34.544  26.381  23.898 -0.1352  0.2392 -0.0177
40079W        W83095   7.237   7.425  24.802 -0.1190  0.2526 -0.3712
40080W        W83096  29.275  12.300   6.739  0.0325  0.3448 -0.0108
40081W        W83097   0.019   5.267  10.042 -0.0440  0.1204  0.1229
40082W        W83098  32.567  19.605   7.971 -0.3656 -0.1923 -0.1779
40083W        W83099  30.589  16.975  25.360 -0.0436 -0.1218  0.4157
40084W        W83100  11.677  30.056  19.422  0.3210  0.2195 -0.2084
40085W        W83101   1.289  32.857   7.241  0.1266  0.2637 -0.3007
40086W        W83102  29.149  20.573  22.147 -0.0640 -0.2781 -0.0112
40087W        W83103  27.589  13.731  23.714  0.0179  0.0121  0.1347
40088W        W83104  18.011  21.623  23.303 -0.4369 -0.2026 -0.3563
40089W        W83105  31.070  14.830  27.097  0.0652  0.1684  0.1279
40090W        W83106  30.130  30.651  29.154 -0.1202  0.1236 -0.2478
40091W        W83107   6.349   5.605   0.305  0.2012  0.1391 -0.0738
40092W        W83108  27.761  23.280  17.611 -0.1001  0.0405  0.1908
40093W        W83109  31.557  32.477  26.259  0.2169 -0.1320 -0.0086
40094W        W83110  30.868  28.313  22.561  0.1148  0.1962 -0.1022
40095W        W83111   3.335  30.372  24.737  0.0336  0.0427 -0.1877
40096W        W83112  17.371  23.596  17.130  0.0680 -0.0325 -0.1562
40097W        W83113   1.380  19.333  24.256 -0.4981 -0.1588  0.0773
40098W        W83114  32.908  31.588  24.660  0.0076 -0.1471  0.0804
40099W        W83115  24.813  22.789  15.583 -0.1517  0.0662 -0.1108
40100W        W83116  29.348  16.409  25.158 -0.1269 -0.1521  0.0365
40101W        W83117  31.428  23.450   0.821  0.1235 -0.2007  0.0482
40102W        W83118  18.241  17.013  24.354 -0.0539 -0.0761 -0.0353
40103W        W83119  13.263  13.778  20.233  0.0738  0.2921 -0.1166
40104W        W83120   4.719  22.838   4.586 -0.0308 -0.0133  0.1409
40105W        W83121  28.472  17.192  21.595 -0.3218  0.1610 -0.3776
40106W        W83122  32.451  23.146   9.066 -0.1500 -0.1960  0.1847
40107W        W83123  28.770  28.685  22.941 -0.0446  0.1718  0.1716
40108W        W83124  26.522  19.571  26.023  0.1850 -0.2681 -0.2792
40109W        W83125  26.913   6.529   2.947 -0.1690 -0.2355  0.2922
40110W        W83126   1.610  19.633   0.056  0.0442  0.2416  0.1914
40111W        W83127  33.071  14.578  22.051 -0.0717  0.0672 -0.2132
40112W        W83128   9.232   0.588   3.981 -0.0850 -0.1724  0.1216
40113W        W83129  27.852  11.944  19.593 -0.0340 -0.3538  0.2456
40114W        W83130  34.275  24.483  26.634 -0.3406  0.2150  0.1759
40115W        W83131  12.264  24.596   0.291 -0.1682 -0.1607  0.0032
40116W        W83132   4.181  28.103   9.655  0.3492  0.1756  0.0244
40117W        W83133   0.959   5.249  19.583  0.3742  0.3252 -0.0130
40118W        W83134  32.577  22.854   4.142 -0.0385 -0.0478 -0.0565
40119W        W83135  19.783  14.882  25.520  0.0033 -0.1615  0.2799
40120W        W83136  26.547  19.032  25.996 -0.2292  0.1061  0.0130
40121W        W83137  27.307  22.186  11.377  0.2488  0.0362  0.3438
40122W        W83138  10.047  33.514  28.690  0.0924 -0.0412 -0.1588
40123W        W83139  25.527   4.637   6.378 -0.2278 -0.2311  0.3176
40124W        W83140  34.572  30.218  14.937 -0.1035 -0.1752 -0.1287
40125W        W83141   1.164   2.648  17.159  0.1463  0.1154 -0.1794
40126W        W83142   3.829   8.114   4.041  0.1855 -0.0839  0.3207
40127W        W83143  24.191  10.146  18.831  0.1487  0.0640 -0.2137
40128W        W83144  33.949  16.048  25.474 -0.0818 -0.2766  0.1629
40129W        W83145   0.700   5.771  15.933  0.1923  0.1113 -0.0495
40130W        W83146   3.908  19.548  26.141  0.1064  0.2594  0.1194
40131W        W83147  29.714  21.628   1.224 -0.0200 -0.0605 -0.0540
40132W        W83148  30.929  27.224   0.208  0.0772 -0.0475 -0.4040
40133W        W83149   0.389  24.133  24.892 -0.0349  0.3025  0.1623
40134W        W83150  32.730  32.759  24.105  0.1550  0.0519 -0.1553
40135W        W83151   8.435  22.914  20.163 -0.0638 -0.1035 -0.1029
40136W        W83152  30.556  24.424   3.793  0.1584  0.1350 -0.0204
40137W        W83153  31.398   1.845   0.544  0.0753 -0.0318  0.0204
40138W        W83154  34.565  18.080  23.767 -0.1456 -0.0618 -0.3775
40139W        W83155  18.076  17.477  24.606  0.1100  0.1243  0.1372
40140W        W83156  23.210  17.401  25.924  0.2744 -0.2968 -0.0569
40141W        W83157  24.176  13.844   8.364  0.0409  0.0150  0.1380
40142W        W83158  12.620   2.517  26.206 -0.1960  0.3743  0.0656
40143W        W83159  14.886  23.242  22.762  0.0947 -0.2008  0.0859
40144W        W83160   7.084  20.491   7.680  0.1521 -0.0198  0.1682
40145W        W83161   4.451  20.879   2.599  0.1498 -0.2513  0.1487
40146W        W83162  18.420  33.365  16.397 -0.0793 -0.3099  0.2794
40147W        W83163  28.507  31.821   4.040 -0.1045 -0.1098 -0.3168
40148W        W83164   1.829  18.329   1.593 -0.3766  0.1074 -0.0053
40149W        W83165  11.890  14.811  19.752 -0.1419  0.1977  0.1151
40150W        W83166  14.799  33.565  21.720  0.0837 -0.1202  0.1296
40151W        W83167  23.346  14.448  27.710  0.0713  0.1640  0.2680
40152W        W83168  17.397  26.377  13.707 -0.0392 -0.2170 -0.0640
40153W        W83169   1.353  14.028   3.890  0.2441  0.1152  0.1672
40154W        W83170  29.906  16.394  21.572  0.1079  0.0164  0.0406
40155W        W83171  28.301  30.056   6.753  0.0412  0.2138  0.2560
40156W        W83172  24.616   1.809  20.170 -0.3471 -0.0644  0.2183
40157W        W83173  30.886  20.073   6.688  0.2199 -0.0667 -0.0566
40158W        W83174  23.373  29.007  26.912 -0.0691 -0.1724  0.1185
40159W        W83175  21.553  24.844  20.711 -0.0424  0.1365 -0.3107
40160W        W83176  33.153  33.317   5.364 -0.1887 -0.2736  0.2873
40161W        W83177   5.904   8.584  15.328 -0.1600  0.1887  0.1441
40162W        W83178  33.584  25.664  29.122 -0.1618 -0.1475 -0.2008
40163W        W83179   0.338  20.736  23.369  0.0001 -0.1721 -0.0911
40164W        W83180  29.986  30.026  19.778  0.0168 -0.0019 -0.1070
40165W        W83181  29.529  27.124   4.681  0.0005 -0.0740 -0.3487
40166W        W83182  13.116  28.274   7.842 -0.3133  0.0114  0.1312
40167W        W83183  15.218  27.413  24.702  0.0974 -0.6237 -0.0335
40168W        W83184   5.133   8.734   1.575 -0.0426 -0.0747  0.1383
40169W        W83185  32.976   1.360  22.236 -0.1745 -0.2018 -0.0497
40170W        W83186  22.277  19.376   7.601 -0.0482 -0.4430 -0.0773
40171W        W83187   2.248  32.275   3.118  0.0090  0.1213 -0.1345
40172W        W83188   6.879  34.674  22.061 -0.1982  0.1134 -0.4104
40173W        W83189  30.278  29.217   9.785  0.0233  0.2280 -0.0954
40174W        W83190  34.453   9.913  18.346 -0.2649 -0.1172  0.1919
40175W        W83191   3.734  27.750   6.669 -0.0756 -0.0750  0.0251
40176W        W83192  21.431  14.712   6.732  0.0793 -0.1608  0.1977
40177W        W83193   1.840  25.745  16.120 -0.1217 -0.2395 -0.3089
40178W        W83194  22.269  16.522  24.414  0.5175  0.0304  0.3249
40179W        W83195   1.887  22.646   0.378  0.5631  0.0424  0.1363
40180W        W83196   5.826  25.328  28.174 -0.1343  0.2199 -0.2307
40181W        W83197  15.786   4.846   6.909 -0.2663 -0.0211  0.1959
40182W        W83198  13.154  20.094  11.956  0.1562  0.2603 -0.2688
40183W        W83199  19.009  25.373   2.248 -0.2635 -0.0599 -0.1465
40184W        W83200   2.025  22.895  23.970  0.1632  0.2639 -0.2364
40185W        W83201  30.572  23.787   1.930  0.0265  0.1831  0.1242
40186W        W83202  24.178  22.502  24.220 -0.0575  0.0097  0.2772
40187W        W83203   2.943  19.145  22.519 -0.0569 -0.3933 -0.0355
40188W        W83204  33.562   5.953   7.604 -0.0001 -0.0402  0.0669
40189W        W83205  25.294  16.820  25.221  0.3554 -0.1001 -0.0280
40190W        W83206  26.264  30.208  25.806 -0.1364  0.0433  0.0582
40191W        W83207  21.971   2.919  18.002  0.0808 -0.1850 -0.0671
40192W        W83208  14.059   8.550  26.047 -0.0791 -0.2846 -0.2651
40193W        W83209  33.302  34.508   1.554  0.0889 -0.0295 -0.0351
40194W        W83210   3.114  20.135  20.620 -0.0060  0.1220  0.1669
40195W        W83211  16.404   8.129   2.317 -0.1883 -0.1476  0.0207
40196W        W83212  29.469  18.561  17.351 -0.1144  0.0148  0.1046
40197W        W83213   5.335   6.223  18.968 -0.0696  0.2333  0.0734
40198W        W83214   9.264  24.632  17.122  0.2545 -0.0528  0.1391
40199W        W83215  31.627  20.593  28.681  0.0612 -0.1204 -0.0496
40200W        W83216  29.720  24.554  10.289 -0.0422 -0.0015  0.2652
40201W        W83217  24.935  18.072   7.264  0.2423  0.1099  0.2426
40202W        W83218  12.803  14.056  20.352 -0.1461 -0.1323  0.1726
40203W        W83219  15.271  32.263  21.124 -0.3440 -0.4235  0.3432
40204W        W83220  24.060   1.949   8.987 -0.1185  0.3102  0.0847
40205W        W83221  22.625  10.521  24.052  0.0851 -0.0518 -0.0099
40206W        W83222  34.086  16.035  10.516 -0.3905  0.0982 -0.2655
40207W        W83223  17.673  25.175   1.751  0.2384 -0.1558 -0.1222
40208W        W83224   3.467   2.596  23.197  0.1190  0.0045  0.0502
40209W        W83225  18.188  25.874  19.462 -0.0773 -0.3656  0.1165
40210W        W83226   0.460  19.990   8.474  0.1013  0.2378 -0.1428
40211W        W83227  26.576   1.402  25.047 -0.1878  0.1085  0.0854
40212W        W83228  21.793   1.919   4.254 -0.1010  0.0081  0.0175
40213W        W83229  19.753  18.219   3.919  0.2195 -0.1694  0.1556
40214W        W83230  27.129  19.118   0.903  0.0502  0.0539 -0.1410
40215W        W83231  30.790  33.598   4.741  0.1837 -0.3610 -0.2099
40216W        W83232  26.702  20.308   2.341 -0.2968 -0.1062 -0.1104
40217W        W83233  23.481  10.181  25.988 -0.1173  0.2144 -0.1072
40218W        W83234   3.931   6.202  20.808 -0.4243 -0.3327 -0.0544
40219W        W83235   0.444   0.841  27.146  0.0354 -0.0124 -0.3445
40220W        W83236  31.057  13.847   8.746  0.2380  0.0237  0.0143
40221W        W83237  14.066  24.356  18.879 -0.0688 -0.0618 -0.1342
40222W        W83238  16.186  20.652   7.566 -0.0943 -0.0642  0.1410
40223W        W83239   8.840  23.359   5.881  0.2916  0.0759 -0.0572
40224W        W83240  23.063  29.518  17.962 -0.0599  0.0488  0.0875
40225W        W83241  10.083  17.091  17.841 -0.0489 -0.0910  0.2812
40226W        W83242  18.188  24.465   1.356  0.0808  0.1441 -0.0416
40227W        W83243  10.118  16.657  20.664  0.1304 -0.0677 -0.1203
40228W        W83244  27.832  21.840   1.641 -0.0420 -0.0819 -0.2447
40229W        W83245  11.974  13.959  14.234 -0.2203 -0.0684 -0.1089
40230W        W83246  32.535   0.442  29.269 -0.1019  0.0958  0.0242
40231W        W83247  33.204  20.840  22.284  0.1150 -0.2432  0.1194
40232W        W83248  25.808  25.559  24.324 -0.0333 -0.1215 -0.0833
40233W        W83249   1.140   9.599  13.921 -0.1674 -0.0339  0.0002
40234W        W83250  11.254  29.463  22.829  0.1643  0.1130 -0.0165
40235W        W83251   0.552  29.966  25.116  0.1466  0.1196  0.0248
40236W        W83252  22.299  24.547   9.315 -0.1847  0.2035  0.0369
40237W        W83253  34.467  31.749  24.419  0.0848 -0.1444 -0.0471
40238W        W83254  28.581  20.271  18.382 -0.0174 -0.0882  0.0764
40239W        W83255  22.673  15.370  17.205 -0.2271 -0.4866  0.1242
40240W        W83256  22.259  25.952  27.123  0.2448 -0.1801 -0.0644
40241W        W83257   8.418  23.579  15.537 -0.0193  0.0535  0.1414
40242W        W83258  33.547   8.832  20.855  0.1456 -0.0682 -0.2240
40243W        W83259  29.330  13.665  22.890  0.3394  0.1669  0.0335
40244W        W83260  11.740  19.631  17.820  0.0768  0.0024  0.1119
40245W        W83261   3.326  20.026   1.558 -0.1184 -0.2279  0.2066
40246W        W83262  33.207  19.978  14.529 -0.2172  0.1253 -0.0341
40247W        W83263   1.850  15.530  28.867  0.1201  0.0011  0.0666
40248W        W83264  30.439  26.741  20.243 -0.2309  0.4958 -0.3180
40249W        W83265  21.832  29.853  26.687  0.1546  0.1825  0.0985
40250W        W83266   3.875   1.644  15.491  0.0915  0.3215  0.2013
40251W        W83267  32.031  23.861  15.103 -0.0504 -0.2310 -0.2049
40252W        W83268  23.498  22.280  26.022 -0.0499 -0.1534  0.0252
40253W        W83269  15.234  15.064  13.030 -0.1251  0.2294 -0.1987
40254W        W83270   7.304  22.636  15.819  0.3586  0.0897 -0.2506
40255W        W83271   1.010   2.124  22.074 -0.2680 -0.2274  0.2105
40256W        W83272   1.921  25.223  20.628 -0.0892  0.3633  0.2690
40257W        W83273   7.642  14.240   7.004 -0.0178 -0.0095 -0.0124
40258W        W83274  30.212   4.834  17.052  0.0272 -0.2019  0.3362
40259W        W83275   5.791  13.770  20.561  0.1135 -0.2375 -0.0656
40260W        W83276  29.888  11.132  17.739  0.0398  0.3473  0.0762
40261W        W83277  15.138   9.346   1.600  0.4096  0.1500  0.3418
40262W        W83278  23.108  26.167  16.771  0.0852 -0.2142 -0.0498
40263W        W83279  23.685  30.781  20.222  0.1169  0.0059  0.3705
40264W        W83280   5.132   2.665  22.482  0.0583  0.1723 -0.0064
40265W        W83281   8.709  12.636   6.949  0.1129  0.0456 -0.0153
40266W        W83282  22.432  19.388  18.725  0.0285 -0.3752  0.0583
40267W        W83283  34.158  32.231  24.704 -0.1768 -0.0241  0.1255
40268W        W83284  22.696   8.692  25.101  0.1332 -0.0007  0.0246
40269W        W83285  24.793  27.592  24.785 -0.0062 -0.0646  0.0775
40270W        W83286  28.530  34.480  19.277 -0.0286 -0.1352 -0.3870
40271W        W83287  32.401  22.175  22.650  0.1496  0.0605 -0.0103
40272W        W83288  34.270  19.411  23.850 -0.1286  0.0525  0.1530
40273W        W83289  28.603  26.798  22.973 -0.3060  0.0253 -0.1726
40274W        W83290  19.227  16.636  12.343  0.1464 -0.3309 -0.1592
40275W        W83291  16.023   7.604  16.868 -0.3378 -0.1209  0.0927
40276W        W83292  29.219  15.392  14.956 -0.1250 -0.1922  0.0944
40277W        W83293  14.959  28.448   0.195 -0.1648  0.0467  0.1053
40278W        W83294  31.014  22.192  23.941 -0.1247  0.2079  0.2732
40279W        W83295   1.391  33.378  23.685 -0.3219 -0.2429  0.0225
40280W        W83296   0.762  33.280  18.718  0.0959 -0.2704  0.0162
40281W        W83297  22.980  18.731  21.409 -0.0986 -0.2181 -0.2921
40282W        W83298  14.416  31.479  22.735  0.4127  0.2340 -0.0753
40283W        W83299   2.316   4.384  22.920  0.3289  0.3341 -0.0880
40284W        W83300   4.547  16.491  20.661 -0.1653  0.2342 -0.0660
40285W        W83301  29.101   0.026  20.575 -0.2710  0.0892 -0.1002
40286W        W83302   0.872  30.496  17.258  0.0912  0.1163  0.0589
40287W        W83303  14.443  24.952   8.668  0.2734 -0.1849 -0.3174
40288W        W83304   4.713   5.361  20.999 -0.0935  0.0373  0.2919
40289W        W83305  16.512   2.297  28.626 -0.2229  0.2930  0.3127
40290W        W83306  26.591   2.420  24.816  0.1990  0.1318 -0.1032
40291W        W83307  29.274  34.336  19.799 -0.1796  0.0026  0.0677
40292W        W83308  32.574  33.857  23.135  0.0742  0.1270 -0.1962
40293W        W83309  28.757  25.095  25.065 -0.2323  0.1805 -0.0837
40294W        W83310   5.559  16.663  17.567  0.0585  0.3793  0.0227
40295W        W83311  18.737  22.849  19.306 -0.1665  0.3188 -0.1143
40296W        W83312   7.502  13.808  14.691  0.2224 -0.0900 -0.2447
40297W        W83313  10.928  29.818  21.170 -0.1052 -0.0582 -0.1038
40298W        W83314   0.984   7.686  18.144  0.1235 -0.0781  0.2256
40299W        W83315   2.386   3.150  24.154  0.0808  0.1458  0.0665
40300W        W83316  22.783  16.222  28.064  0.1984  0.2941  0.1722
40301W        W83317  19.374  22.972  23.927 -0.0222  0.0022 -0.1382
40302W        W83318  29.737  30.532  17.432 -0.1726  0.2498 -0.0405
40303W        W83319  28.439  10.658  19.359  0.0782 -0.0739 -0.2543
40304W        W83320   9.618  14.654  28.543 -0.1004 -0.0992 -0.0156
40305W        W83321   1.031   3.621  20.168  0.2667  0.1686 -0.2297
40306W        W83322  27.687  15.702  15.950  0.0352 -0.0747 -0.4380
40307W        W83323  11.640   3.522  19.285 -0.2351  0.1190 -0.0866
40308W        W83324  11.825   0.791  17.560  0.0865 -0.0789  0.0891
40309W        W83325  32.375  18.784   2.999 -0.2090 -0.0884 -0.1809
40310W        W83326  17.425  20.567  13.277 -0.0193 -0.1793  0.1523
40311W        W83327  19.621   5.444  26.732  0.1303 -0.1365 -0.1480
40312W        W83328  24.478  31.887  24.691  0.2126  0.0718 -0.1327
40313W        W83329  18.043  32.976  20.982  0.1407  0.2195 -0.0072
40314W        W83330  29.605   0.662  19.315 -0.1825  0.2160  0.1682
40315W        W83331  32.048  13.186  20.254 -0.0577  0.0163  0.0367
40316W        W83332   8.155   8.125  25.967 -0.1683  0.0595  0.0790
40317W        W83333  23.693  33.108  15.135  0.1876  0.0752  0.2366
40318W        W83334  33.653  30.037   2.871 -0.1619 -0.2727 -0.1577
40319W        W83335  30.914  24.509  15.655  0.0390  0.0612  0.2111
40320W        W83336  33.225  21.582  15.429 -0.2213 -0.0782  0.0421
40321W        W83337  12.464  34.454  22.985 -0.2917 -0.1079 -0.3645
40322W        W83338   5.961  15.417  20.106  0.0953 -0.2817  0.1925
40323W        W83339  24.785   2.773  21.094  0.0714 -0.2853  0.1148
40324W        W83340   5.575  33.636  19.049 -0.5322  0.0207 -0.4426
40325W        W83341   6.889  27.174  28.450  0.1743 -0.0634 -0.4657
40326W        W83342   0.493   0.840  28.647 -0.2167  0.2361 -0.1028
40327W        W83343  28.191  34.128  16.800  0.2811  0.3380  0.0450
40328W        W83344  29.501  25.252  17.574  0.1082 -0.1520 -0.3757
40329W        W83345   1.439  11.920  24.138 -0.1155  0.0057 -0.3128
40330W        W83346  18.698  10.693  23.049 -0.1921  0.1673 -0.0280
40331W        W83347  25.853  17.493  27.314  0.0813 -0.1374  0.1249
40332W        W83348   2.561  10.075  19.001 -0.1842 -0.0915  0.1456
40333W        W83349  34.390  18.345  25.130  0.2041  0.0629 -0.0378
40334W        W83350   0.890  31.965   4.094 -0.2214 -0.0079  0.0371
40335W        W83351   7.601  14.960  13.360 -0.0277  0.2732 -0.2905
40336W        W83352  31.338   1.930  22.528 -0.0501  0.1233 -0.2865
40337W        W83353   1.304  23.837  14.864 -0.2804 -0.3049  0.0720
40338W        W83354  26.166  33.366  19.569  0.0389 -0.0683 -0.1646
40339W        W83355  16.617  25.387  15.909  0.0371  0.0457 -0.0613
40340W        W83356  21.377  17.360   5.453  0.0715 -0.2639 -0.1617
40341W        W83357  11.389  14.656  14.496  0.1318  0.0630 -0.1187
40342W        W83358  28.127  28.061  20.442  0.2245 -0.0018 -0.1154
40343W        W83359  31.146   0.381   4.089 -0.0114 -0.1327  0.0315
40344W        W83360  26.955  32.283  25.546  0.2609  0.2718  0.1363
40345W        W83361   0.758  33.414   9.966 -0.0287  0.0279 -0.1719
40346W        W83362   4.710  31.378  15.871 -0.0842  0.4405  0.0514
40347W        W83363   3.721  26.625  19.577 -0.1023 -0.0925  0.0673
40348W        W83364  34.396  15.196  20.237 -0.1766 -0.2894 -0.2821
40349W        W83365  33.944   8.303  16.830 -0.0196 -0.3067 -0.1335
40350W        W83366  23.305  30.901  19.490  0.3110  0.1762  0.0561
40351W        W83367   0.357  25.244  21.841 -0.0400  0.0218  0.1443
40352W        W83368  10.701  22.295  13.378  0.4418  0.0246 -0.4532
40353W        W83369   7.810  17.989  19.148 -0.0003 -0.1598  0.0408
40354W        W83370   3.737   7.012  20.076  0.0917 -0.3405  0.1443
40355W        W83371   5.115  18.476  22.542 -0.0682 -0.0021 -0.3883
40356W        W83372   0.128  20.046  15.290 -0.2499 -0.1397  0.1589
40357W        W83373   8.246  12.737  13.695 -0.5194 -0.0650  0.2005
40358W        W83374  11.344  22.098   3.321  0.1532 -0.0615  0.1430
40359W        W83375  23.355   2.023  17.202  0.0524 -0.0264 -0.0598
40360W        W83376   7.939   5.418  14.822  0.2051 -0.3018 -0.1761
40361W        W83377  26.165  18.102  24.757  0.2262  0.1261  0.2029
40362W        W83378  33.460  32.620   2.559  0.1000  0.1569 -0.0366
40363W        W83379  10.037   1.569  16.902 -0.3470  0.4637  0.1614
40364W        W83380   9.032  18.627  23.175  0.0988  0.0260  0.1528
40365W        W83381  29.334  24.253  23.327 -0.1162  0.0868 -0.1538
40366W        W83382  28.961  32.292  22.856  0.1104  0.1784  0.0153
40367W        W83383  33.915  26.364  18.843 -0.0355 -0.0842  0.3789
40368W        W83384  10.748   1.649  16.532  0.0684  0.0758  0.1120
40369W        W83385  34.631  25.426   4.159 -0.0367 -0.0225  0.0247
40370W        W83386  18.060  18.881  22.416  0.1388  0.2901 -0.2126
40371W        W83387  12.435  33.546   1.190  0.0092 -0.2068  0.4127
40372W        W83388   0.040  14.581  21.540 -0.3261 -0.0052  0.2453
40373W        W83389   6.830  18.234  19.451 -0.1034  0.1770 -0.2570
40374W        W83390  26.827  19.907  17.413 -0.1985 -0.2985  0.0512
40375W        W83391  27.638   9.919  26.017  0.0886 -0.5561  0.0362
40376W        W83392  15.440   0.438  14.989  0.1045  0.0628  0.1208
40377W        W83393  24.522  30.443  24.424 -0.0884  0.2507  0.5064
40378W        W83394  23.102  12.240  15.252  0.0289 -0.1306  0.0265
40379W        W83395  12.709  22.856  25.668 -0.0977 -0.0659 -0.0122
40380W        W83396  22.049  16.284  12.448  0.0027  0.0934 -0.1859
40381W        W83397   9.264  24.115  19.907 -0.0383  0.3164  0.0138
40382W        W83398   5.257  34.471  19.010 -0.0926  0.0355 -0.0153
40383W        W83399  34.504  17.327   6.359  0.0640 -0.1294 -0.2359
40384W        W83400  22.613  15.104  18.716 -0.1614  0.1655 -0.0523
40385W        W83401  32.464   2.247  19.500  0.3897  0.1427 -0.4316
40386W        W83402  29.691  26.912  16.049  0.1574  0.0718  0.1429
40387W        W83403   0.777  25.109  15.981 -0.0547  0.0806 -0.1030
40388W        W83404  32.807  33.138  17.380 -0.2242 -0.1916  0.1845
40389W        W83405   0.271  24.371  16.532  0.0059 -0.2112 -0.0029
40390W        W83406   2.825  25.497  19.566  0.3169 -0.3677  0.1063
40391W        W83407  33.647  25.213  26.570 -0.2299  0.4648  0.0828
40392W        W83408  12.295  16.952  28.983 -0.1599 -0.1639  0.2268
40393W        W83409  22.417  25.310   1.919  0.2433  0.1184 -0.1407
40394W        W83410  31.287  23.315  25.854 -0.0741 -0.0292  0.2964
40395W        W83411  24.762  26.462  26.215  0.2190  0.1618  0.0367
40396W        W83412  31.422  18.156  19.958 -0.0253  0.0336  0.2166
40397W        W83413  24.263  20.436  16.871 -0.2227 -0.0155  0.1216
40398W        W83414  33.245  34.238  20.495 -0.1478 -0.0719  0.2123
40399W        W83415  29.796   0.983  18.374  0.0793  0.1604 -0.2841
40400W        W83416  11.991  16.146  13.407 -0.0690  0.1701 -0.1834
40401W        W83417   6.183   6.541   2.354  0.1480  0.0457 -0.2614
40402W        W83418  15.108  25.513   5.575 -0.0082  0.1678 -0.2923
40403W        W83419  23.155  28.618  27.142  0.0811 -0.0103  0.0099
40404W        W83420   7.244  12.821  14.286 -0.1946  0.6232  0.0989
40405W        W83421  30.815   2.832  24.227 -0.3936 -0.2033 -0.0637
40406W        W83422  21.894  20.253  14.991  0.1691  0.0687  0.0055
40407W        W83423  26.818   9.243  25.228  0.1002 -0.0477  0.0907
40408W        W83424  29.701  23.246  25.431 -0.2518  0.1001  0.1558
40409W        W83425  26.477  32.209   3.042  0.1069  0.0530  0.2837
40410W        W83426  22.752  23.623  25.215 -0.2827 -0.3091  0.0879
40411W        W83427  10.939   8.585  26.967  0.2465 -0.4002  0.0036
40412W        W83428   5.800  25.092  20.026  0.3224 -0.0959  0.4054
40413W        W83429  34.767  26.075  21.839 -0.1970 -0.0824  0.0644
40414W        W83430   7.620  22.465  19.988 -0.0187  0.0165 -0.1009
40415W        W83431  17.037   9.160   1.847 -0.4139  0.1722 -0.2094
40416W        W83432   8.308  29.996  20.985  0.1449  0.0102 -0.0384
40417W        W83433  31.868  29.741  24.082  0.1851 -0.1911 -0.0765
40418W        W83434   6.688  16.712  25.318  0.2772 -0.2454 -0.1192
40419W        W83435   0.340   0.553  19.286 -0.1244  0.0403 -0.4344
40420W        W83436   9.190  22.842  20.459  0.1223  0.2434 -0.1614
40421W        W83437  22.111  24.473  23.431 -0.0904  0.1627  0.1120
40422W        W83438  17.282  24.975  23.445 -0.2006  0.0942 -0.3232
40423W        W83439  30.819   5.196  16.179 -0.1105 -0.0263 -0.0623
40424W        W83440  18.430  20.853  24.079 -0.0946  0.3442 -0.2381
40425W        W83441  32.608  16.934  14.969  0.1280 -0.0821 -0.0226
40426W        W83442  20.670  31.073  20.192  0.0817 -0.0414  0.3221
40427W        W83443  29.522  34.218  21.555 -0.3553 -0.2087 -0.1113
40428W        W83444   2.592  33.181  20.119 -0.3966  0.0743 -0.1678
40429W        W83445  21.729   6.155  27.137  0.2152  0.1107  0.1608
40430W        W83446  31.011   1.289  22.956  0.4085  0.4619 -0.2546
40431W        W83447  32.814  20.577  16.362  0.2169 -0.3948 -0.2194
40432W        W83448   5.921   2.224  21.028 -0.1486  0.0741 -0.0641
40433W        W83449   2.941  20.248  19.782  0.1131  0.0216  0.2042
40434W        W83450   3.251  14.809   1.391 -0.3235 -0.1355  0.2151
40435W        W83451  33.421  15.039  22.814 -0.1267  0.0362 -0.0204
40436W        W83452  28.872   9.809  17.917  0.0748 -0.0425  0.0218
40437W        W83453   4.283  19.396  16.008  0.0246 -0.1992 -0.0547
40438W        W83454  22.579  17.339  15.863  0.2848  0.2724  0.0836
40439W        W83455   0.378  25.243  19.295  0.1900  0.1639 -0.2594
40440W        W83456  31.933  18.543   7.708 -0.0630 -0.0336 -0.1121
40441W        W83457  22.315  25.705   2.534 -0.1796 -0.0020  0.2808
40442W        W83458  34.483  30.551  15.839  0.2777  0.0289  0.1348
40443W        W83459   8.287  24.446  21.147 -0.2583 -0.0229  0.1430
40444W        W83460  20.959  10.222  18.406  0.0327 -0.0177  0.0221
40445W        W83461  29.390  31.559  23.846  0.2258 -0.0558  0.1063
40446W        W83462  31.966   3.710  20.637 -0.0509  0.2713 -0.0005
40447W        W83463  21.008  27.836   9.747  0.0678 -0.2395 -0.0370
40448W        W83464  28.826  13.110  15.439 -0.1871  0.0389  0.0938
40449W        W83465  12.094  27.965  25.043 -0.0035 -0.2787  0.2467
40450W        W83466  32.833  30.484  26.906 -0.1112  0.0018 -0.2891
40451W        W83467  11.980   4.209  16.597  0.5376  0.1721  0.2163
40452W        W83468  29.923   8.933  16.884  0.1474  0.0190 -0.1684
40453W        W83469  29.790  27.354  19.369 -0.0354  0.1690 -0.0329
40454W        W83470   0.495  25.177  20.553 -0.0458  0.4733 -0.0819
40455W        W83471  17.753  28.697  22.334  0.2321 -0.1312 -0.1972
40456W        W83472  14.740  13.185   8.622  0.1173 -0.1169  0.4353
40457W        W83473  23.996  18.509  15.381  0.3589  0.2872  0.1235
40458W        W83474  26.881  14.419  16.750 -0.0272  0.4089  0.0175
40459W        W83475  20.413  29.202  24.691 -0.2787  0.0381  0.1253
40460W        W83476  10.067   5.245  19.624 -0.0007 -0.0425  0.3240
40461W        W83477  19.534  15.509  24.993  0.0438  0.0241 -0.1075
40462W        W83478   4.865  31.725  15.565  0.3631 -0.3237 -0.1803
40463W        W83479  32.899  26.538  17.822 -0.1408 -0.1159  0.0701
40464W        W83480   9.665  22.579  19.611 -0.2651  0.1444 -0.1263
40465W        W83481  21.171  13.552  16.128 -0.1269  0.1386  0.3110
40466W        W83482   0.723  30.898  23.954 -0.1079 -0.1408  0.0916
40467W        W83483  31.219   6.887  20.675  0.1795 -0.0276 -0.0141
40468W        W83484  16.174  27.115  13.990 -0.0651  0.2640 -0.0542
40469W        W83485   5.556  28.532   3.813  0.0423  0.1467 -0.4451
40470W        W83486  17.816  13.573   3.144 -0.0798  0.1233 -0.2385
40471W        W83487  34.199  10.204  17.059 -0.1850  0.0833 -0.1784
40472W        W83488  21.600   8.611  13.425  0.1924  0.2131 -0.0599
40473W        W83489   1.626  19.024  22.871  0.0427 -0.2776  0.0042
40474W        W83490  18.931  29.271   1.844 -0.0992  0.0457  0.0085
40475W        W83491  33.459  19.631  25.297 -0.0216  0.0253 -0.1539
40476W        W83492  25.988  30.364  28.104 -0.1520  0.1016 -0.3117
40477W        W83493  25.979  24.366  20.324  0.0832  0.1607 -0.1011
40478W        W83494  21.215   2.336  24.518  0.3793  0.0464 -0.3699
40479W        W83495  30.875  18.528  17.065  0.2042  0.0365 -0.0110
40480W        W83496   6.234   6.521  14.304  0.1050 -0.2081 -0.1292
40481W        W83497  22.451  30.689  20.086  0.0618 -0.2768  0.2955
40482W        W83498   2.355  12.758  28.232 -0.1547  0.0608  0.0009
40483W        W83499  28.015  25.172  21.479 -0.0590  0.0742  0.0155
40484W        W83500   0.404  14.079   1.559  0.0980 -0.2016  0.3032
40485W        W83501  33.415  15.949  21.247  0.3052 -0.3060  0.2714
40486W        W83502  30.500  12.840  17.582  0.1196 -0.2832 -0.1095
40487W        W83503  10.257   3.366  21.468 -0.1247 -0.1049  0.0178
40488W        W83504  19.057  10.936  16.228  0.0859  0.0342 -0.2716
40489W        W83505   9.498   2.603  18.282 -0.1581  0.0931  0.0713
40490W        W83506  29.653  23.021  24.947  0.2125  0.0780  0.1942
40491W        W83507   8.169  21.357  23.670  0.2588 -0.2272  0.2843
40492W        W83508  26.075   8.920  26.880 -0.0224  0.2301 -0.2306
40493W        W83509  18.669   7.391  15.578  0.1093  0.2942 -0.0838
40494W        W83510  11.040   3.590  27.162  0.1712  0.2691 -0.2159
40495W        W83511  12.060  27.012  23.526 -0.1125 -0.3235  0.0102
40496W        W83512  14.121  28.226  28.389  0.1074 -0.3044 -0.0054
40497W        W83513  19.144  27.071   9.683 -0.1783  0.3114  0.0767
40498W        W83514   7.922  33.096  20.947 -0.3717  0.1756  0.2640
40499W        W83515   0.270  33.364  23.011  0.2291  0.0405  0.2072
40500W        W83516  17.042   1.121  19.771 -0.0534 -0.1988  0.0372
40501W        W83517  31.507  19.607  15.011 -0.2926 -0.0014  0.1610
40502W        W83518  26.474  16.723  14.138 -0.0847 -0.1655  0.0121
40503W        W83519  26.303  31.004  26.995 -0.1363  0.2195 -0.1125
40504W        W83520   2.130  18.608  29.124  0.2655  0.1688  0.1539
40505W        W83521  25.554  21.414  23.314 -0.0848 -0.0174  0.1624
40506W        W83522  26.705  31.014  24.660  0.0664 -0.1611 -0.0932
40507W        W83523   7.779  19.779  19.331  0.5170 -0.0726  0.3792
40508W        W83524  17.568  23.531  15.654 -0.0493 -0.1562 -0.3663
40509W        W83525  17.587  21.859  21.579  0.0549  0.3089  0.1563
40510W        W83526  18.768  32.577  16.876 -0.0090 -0.1410 -0.0981
40511W        W83527   3.832  10.251  18.937 -0.2109 -0.2293  0.0623
40512W        W83528  22.712  16.776  28.746 -0.0050  0.4377  0.0540
40513W        W83529   5.006   9.956  17.632 -0.1183 -0.2457 -0.1571
40514W        W83530  32.905  25.112  19.253  0.1483 -0.1746 -0.0875
40515W        W83531   9.123  12.705  24.158  0.0717 -0.1059 -0.0998
40516W        W83532   0.021   3.735  20.763  0.1654  0.1689 -0.2295
40517W        W83533   8.029  20.965  14.193  0.3313 -0.1180  0.1474
40518W        W83534  21.104  24.797  15.437  0.0009 -0.0262 -0.3475
40519W        W83535  21.749   9.091   5.618  0.0019  0.2280 -0.1950
40520W        W83536  31.559  15.919  21.192 -0.1625  0.1385  0.1010
40521W        W83537   8.001  22.870  14.629 -0.2269  0.1279  0.1875
40522W        W83538  33.834  18.808   0.835  0.2578 -0.1958 -0.0044
40523W        W83539  27.742  18.333  21.025  0.1661  0.0532 -0.0678
40524W        W83540  34.187  20.651  18.596 -0.1788  0.0053 -0.1280
40525W        W83541  21.973  25.426  21.642 -0.0846 -0.2136 -0.0185
40526W        W83542  20.982  24.967  16.505  0.2417  0.0995  0.0558
40527W        W83543   0.160  24.528  28.335  0.1469  0.1862 -0.2393
40528W        W83544   6.000  27.811   6.409 -0.3238 -0.0787  0.0323
40529W        W83545  23.128  23.249  26.563 -0.0779 -0.5182  0.2771
40530W        W83546   2.678  22.098  15.335 -0.1359  0.2594 -0.2436
40531W        W83547   0.552   8.523  22.625  0.2232 -0.2236  0.0276
40532W        W83548  17.559  31.520  19.066 -0.4209 -0.0010 -0.5218
40533W        W83549  18.331  28.880  18.316 -0.3908 -0.2045  0.1833
40534W        W83550  21.364  19.573  18.683 -0.1934 -0.0482  0.0931
40535W        W83551  12.447  14.609  13.453  0.0192 -0.1339  0.0508
40536W        W83552   7.926  24.896  13.957  0.4692 -0.4365 -0.1522
40537W        W83553  32.546  14.116  16.692 -0.0860 -0.0972 -0.2714
40538W        W83554  25.348  22.348  23.265  0.4038  0.1054 -0.0991
40539W        W83555   2.836   9.951  18.021  0.3192 -0.0814 -0.1751
40540W        W83556   3.621  23.776  17.963  0.0658  0.3267 -0.2423
40541W        W83557   6.169  22.476  14.472 -0.1748  0.0636 -0.3208
40542W        W83558   6.340  17.897  14.121  0.1562 -0.0501 -0.1374
40543W        W83559   1.056  21.491  19.805 -0.0476  0.0198 -0.3104
40544W        W83560  14.999  21.356   3.682  0.0420 -0.2889 -0.0137
40545W        W83561  33.487  24.837  18.676 -0.1398  0.2625 -0.0742
40546W        W83562  20.887  25.463  16.299  0.0644 -0.0370 -0.2601
40547W        W83563  29.109  23.195  21.402  0.0384 -0.1033  0.3243
40548W        W83564  27.843  28.345  27.212  0.0366 -0.0095  0.0623
40549W        W83565  27.166  15.912  20.732 -0.1354  0.4067  0.2362
40550W        W83566  26.040   7.943  18.843 -0.1506  0.2520  0.0183
40551W        W83567   7.919  17.242  13.122 -0.0610 -0.2346 -0.0963
40552W        W83568  28.688  28.167   1.803  0.1217 -0.0934 -0.0651
40553W        W83569  13.192  10.787  17.197 -0.1791  0.2674 -0.0841
40554W        W83570  13.868  31.778  21.055 -0.3150 -0.4445  0.2054
40555W        W83571   2.135  18.889  23.527 -0.0851  0.1507 -0.0036
40556W        W83572  22.289  30.506  15.119  0.0721  0.2170  0.2241
40557W        W83573  23.473  27.798  28.266  0.2167  0.2089  0.3140
40558W        W83574  18.863  14.937  12.478  0.1116 -0.0966  0.0054
40559W        W83575  20.807  17.313  27.121  0.1703 -0.0849  0.0790
40560W        W83576   1.073  24.047  14.046  0.1363  0.3034 -0.0165
40561W        W83577   5.921  17.933  22.152 -0.2142 -0.1759  0.1055
40562W        W83578  22.464  18.411  20.433  0.0424  0.1816  0.0817
40563W        W83579  19.332  10.392  15.220 -0.3145  0.0026  0.0446
40564W        W83580  27.202   3.295  21.520  0.0311 -0.2228 -0.1882
40565W        W83581  27.196  25.513   1.684 -0.1339  0.4404  0.1012
40566W        W83582   1.656  19.636  17.316 -0.1717 -0.0969  0.1037
40567W        W83583  28.896  15.482  22.558 -0.1448 -0.3689 -0.2026
40568W        W83584   3.270   4.484  16.287 -0.0193 -0.0035  0.2457
40569W        W83585  13.801  24.107  17.848  0.1912  0.1467 -0.0752
40570W        W83586   7.311  33.032  24.814  0.0737  0.3591  0.1518
40571W        W83587   5.747  14.619  17.727 -0.0185 -0.2273 -0.3478
40572W        W83588  28.043  12.431  26.269 -0.0164 -0.0870 -0.0340
40573W        W83589  29.926  11.744  25.298 -0.1703 -0.2418 -0.3053
40574W        W83590  17.505  10.278  16.177 -0.0786  0.2163 -0.3384
40575W        W83591  18.158  26.317  24.509  0.1364  0.0482 -0.3453
40576W        W83592   7.446  25.750  18.023  0.0735  0.1566  0.0466
40577W        W83593  31.626  20.152  26.331 -0.1745 -0.0604  0.3999
40578W        W83594  33.716  32.092  18.539 -0.0514 -0.0673  0.0119
40579W        W83595  22.774  29.612  15.267  0.5209  0.1595  0.2573
40580W        W83596   2.881  29.986  17.416  0.1870  0.3913 -0.0628
40581W        W83597  24.523  19.862  29.246 -0.1847  0.0369  0.0915
40582W        W83598  34.516  21.419  27.112  0.2215  0.0159 -0.0078
40583W        W83599  27.096   8.410  24.167 -0.0644 -0.4640  0.0228
40584W        W83600  16.061  14.290  13.432 -0.0841  0.1516 -0.0634
40585W        W83601  21.616   0.224  28.670  0.4157 -0.0754 -0.0761
40586W        W83602  27.778   2.304  24.928 -0.1753 -0.0240  0.3545
40587W        W83603   8.599  25.257   3.037 -0.0885 -0.1592 -0.0426
40588W        W83604  25.681   3.915  15.336 -0.2259  0.0305 -0.0322
40589W        W83605  30.797  34.559  28.892 -0.0583  0.5005  0.0624
40590W        W83606  24.804  29.321  15.383  0.0094  0.1887  0.1424
40591W        W83607  14.995  31.034  17.180  0.1198 -0.0639 -0.2010
40592W        W83608  14.663  34.262   2.057  0.0992  0.0763 -0.0657
40593W        W83609  26.800  22.964  15.764 -0.1544 -0.0475  0.1894
40594W        W83610  28.816  16.511  19.547  0.1414  0.2978 -0.0174
40595W        W83611  30.067  18.698  18.901 -0.3387 -0.0838  0.0495
40596W        W83612  21.865  34.198   4.274 -0.0480  0.1713 -0.0701
40597W        W83613   2.586  25.075   6.360 -0.0170 -0.1871 -0.0439
40598W        W83614  19.312  16.134  12.288  0.0021 -0.3527 -0.1012
40599W        W83615  27.992  11.521  19.065 -0.0284 -0.2017  0.1480
40600W        W83616  19.344  30.832  18.421 -0.0886 -0.0324  0.2573
40601W        W83617  16.560  19.293  15.073 -0.3686  0.0750 -0.1218
40602W        W83618  30.308  23.699  18.079  0.0840 -0.1195  0.2261
40603W        W83619   7.175  13.729  19.216 -0.1312  0.0211 -0.2359
40604W        W83620   3.715  15.112  19.845  0.0274 -0.0001 -0.0459
40605W        W83621   8.863   9.317  21.277  0.2828 -0.1163 -0.0139
40606W        W83622  31.223   2.947  15.202  0.0034 -0.1344 -0.1044
40607W        W83623  27.816  19.744   0.715  0.1067  0.1864 -0.1041
40608W        W83624   2.452  28.664  20.574 -0.0446  0.0169 -0.3138
40609W        W83625  32.748  27.601  16.616 -0.1104 -0.3041  0.0475
40610W        W83626  28.051   3.995  15.869  0.1265 -0.1541 -0.1361
40611W        W83627  32.373   0.813  25.316 -0.2303  0.0249 -0.2038
40612W        W83628  21.612  12.224  15.915  0.0043  0.1378  0.0606
40613W        W83629  16.569   8.149  19.846 -0.0808  0.0886  0.2577
40614W        W83630  10.163  33.687  15.337  0.4022 -0.3019 -0.2355
40615W        W83631  22.102  28.012  22.385 -0.2694  0.1758 -0.0244
40616W        W83632  23.236  10.782  26.681  0.1856 -0.2763  0.2595
40617W        W83633  11.614  18.124  25.653  0.1502  0.0562 -0.0152
40618W        W83634  28.073   1.735  15.452 -0.2143 -0.1027  0.0694
40619W        W83635   0.509  28.825  18.610  0.2488  0.0480  0.2255
40620W        W83636  27.055  22.420  16.960 -0.0887 -0.0488 -0.0266
40621W        W83637   1.913  26.938  22.450 -0.0538  0.1084 -0.3821
40622W        W83638  23.531  26.424  20.303 -0.0514  0.1664 -0.0024
40623W        W83639   1.803  16.551  21.353  0.3464 -0.0427 -0.2073
40624W        W83640   2.760  20.976  27.009  0.0887 -0.0615 -0.0312
40625W        W83641  23.288  12.394  26.861  0.2042 -0.0251  0.0286
40626W        W83642  24.697  31.745  20.664  0.0186  0.1439 -0.2737
40627W        W83643   5.900  27.436  21.592  0.2333 -0.1412  0.2051
40628W        W83644  29.532   5.298  27.358  0.1501  0.1651 -0.0595
40629W        W83645   2.493  30.571  25.638  0.0147 -0.0511  0.1893
40630W        W83646  17.351  20.873  13.636  0.1719  0.1373 -0.1615
40631W        W83647  27.366  29.508   6.975  0.0370  0.2208  0.1647
40632W        W83648  21.207   2.457  17.363 -0.0119 -0.0261  0.0744
40633W        W83649  10.752  28.307  17.007  0.2055 -0.0235 -0.0159
40634W        W83650   4.713  19.994  17.213 -0.0859  0.0009 -0.2548
40635W        W83651  32.494  25.915  22.383  0.1438 -0.1748 -0.2149
40636W        W83652   4.231  29.742  24.494  0.2064  0.0514  0.0183
40637W        W83653  12.468  34.607  22.357 -0.2722  0.1535 -0.1985
40638W        W83654   6.184  33.273  19.213 -0.0107 -0.1195 -0.1539
40639W        W83655  27.335  34.417  15.985  0.1761 -0.0395  0.2402
40640W        W83656  31.175  23.285  19.613 -0.0133 -0.3189  0.3030
40641W        W83657  24.609  26.025  26.595  0.0218 -0.3114  0.0644
40642W        W83658  27.802  28.417  18.739 -0.2063  0.0678  0.1867
40643W        W83659   6.030  25.489  19.776  0.2912 -0.0096 -0.1277
40644W        W83660   0.230  27.421  20.662 -0.0400  0.0116 -0.0816
40645W        W83661  23.764   5.678  22.829  0.1178  0.2316  0.1455
40646W        W83662  34.513  22.375   6.134  0.2886  0.0212 -0.2927
40647W        W83663   5.226  25.957  29.317  0.0824 -0.2882 -0.0490
40648W        W83664  24.940   8.808  18.923  0.2561  0.0574  0.1553
40649W        W83665   0.056  26.925  19.744 -0.1283  0.0170 -0.3928
40650W        W83666  28.600  26.360   9.133 -0.3348  0.2272  0.2235
40651W        W83667   1.108  23.911  17.267 -0.0974  0.3331  0.0392
40652W        W83668  18.068  22.413  21.369 -0.4252 -0.3319 -0.1694
40653W        W83669  29.554  32.010  26.773  0.0568  0.1510  0.0828
40654W        W83670  28.227  17.137  16.982  0.0782 -0.2191  0.2283
40655W        W83671  20.190  10.664  14.442  0.3289 -0.1164 -0.1000
40656W        W83672  27.249   4.911  21.905  0.3755  0.2015  0.2770
40657W        W83673   1.719  25.214  23.881 -0.4352  0.1756 -0.2000
40658W        W83674  32.118  22.612   9.945  0.2696  0.0475  0.3179
40659W        W83675   3.141  22.344  21.286 -0.0914  0.3760 -0.1410
40660W        W83676  24.934  27.818  21.450 -0.1840 -0.0849 -0.4307
40661W        W83677   7.019  26.583  15.772  0.1602  0.1679  0.0224
40662W        W83678  32.539  33.761  19.124  0.1112  0.3050 -0.2005
40663W        W83679  24.749  14.163  14.357  0.0313 -0.1215  0.1306
40664W        W83680  33.845  33.716  27.234 -0.1294 -0.2754  0.1840
40665W        W83681  25.670  18.223  25.074  0.0781 -0.0903 -0.5764
40666W        W83682  27.058  33.993   7.758 -0.0397  0.1469  0.0072
40667W        W83683  22.020  12.579  25.539 -0.0380 -0.1295 -0.1399
40668W        W83684  15.200  33.868  18.519  0.0627  0.1763 -0.1108
40669W        W83685   4.535   2.672   8.539 -0.0782 -0.1168  0.2581
40670W        W83686  30.299  21.316   7.288 -0.0040  0.4783  0.1820
40671W        W83687  18.531  19.919  27.346 -0.0652 -0.0871 -0.3896
40672W        W83688  32.930  31.648   9.594  0.1776  0.0684  0.1428
40673W        W83689   2.602  20.981  22.700 -0.2726 -0.1825  0.0542
40674W        W83690  14.475  33.896  28.182 -0.2524  0.0648 -0.0246
40675W        W83691   2.749  11.248  20.391  0.1111 -0.2687  0.2802
40676W        W83692  25.056  31.818   3.277 -0.1634  0.3205  0.4181
40677W        W83693  26.291  10.541   0.157 -0.0430  0.0159  0.1648
40678W        W83694  19.781  34.745  22.861  0.1075 -0.0630  0.3481
40679W        W83695  25.337  26.187   2.565 -0.6626 -0.1936 -0.0827
40680W        W83696   5.498  16.157  20.103 -0.0775  0.1667  0.1776
40681W        W83697  11.403  28.582  19.480  0.1671  0.2029 -0.0889
40682W        W83698   0.406  30.514   1.147  0.1073 -0.1538  0.2067
40683W        W83699  17.519  23.829  28.150 -0.0460 -0.1806 -0.1410
40684W        W83700   6.369  32.666  16.289 -0.0462  0.0353  0.1038
40685W        W83701   4.129   8.648  10.456 -0.0129 -0.0898 -0.3588
40686W        W83702  16.207  19.083  26.569  0.0949 -0.3285  0.0792
40687W        W83703  34.082  26.419  20.116  0.0203  0.1400 -0.0295
40688W        W83704  27.941  16.175  29.212  0.1575 -0.0663  0.2517
40689W        W83705  23.719  32.962   8.897 -0.3365 -0.0283  0.2927
40690W        W83706   3.823  33.991  19.498 -0.0290  0.0671  0.0909
40691W        W83707  10.813   1.260   0.372  0.2938  0.1350 -0.2727
40692W        W83708   3.836  14.309  21.687 -0.1106 -0.0045  0.1575
40693W        W83709  32.950  25.270   5.883 -0.0600 -0.0134 -0.0167
40694W        W83710  27.339   0.777  20.035 -0.4062 -0.0239  0.0478
40695W        W83711   7.112  24.109  13.618  0.0246  0.0608  0.3077
40696W        W83712  20.331   2.746  19.135 -0.1467  0.4348 -0.2069
40697W        W83713  21.801  19.166  18.126  0.2098  0.3490 -0.1019
40698W        W83714  31.501  31.266   1.041 -0.2150 -0.1169 -0.3045
40699W        W83715  27.808  17.740  24.309  0.3962  0.0845  0.1286
40700W        W83716   8.831  12.278  21.957 -0.0295 -0.1523 -0.1412
40701W        W83717  32.353  24.614  17.227  0.2614 -0.1790  0.1530
40702W        W83718  31.697  22.011  17.018 -0.0538 -0.5240 -0.0254
40703W        W83719  13.125  26.184  21.324 -0.0379  0.3517  0.1542
40704W        W83720   5.727   0.419  26.014 -0.3043  0.0935  0.2362
40705W        W83721  24.360  34.266  21.006 -0.1808 -0.3095  0.2254
40706W        W83722  26.289  18.784  18.696 -0.3255  0.1849 -0.0614
40707W        W83723   9.664  31.844  17.883  0.0203  0.0796  0.0281
40708W        W83724   6.986  31.193  20.064  0.0568 -0.0681  0.1592
40709W        W83725  32.690  12.903   4.518  0.0272 -0.2404 -0.1235
40710W        W83726   0.573  28.290   4.272 -0.0581 -0.3587  0.0194
40711W        W83727   0.632  29.350  18.691 -0.3122 -0.1336  0.1617
40712W        W83728  24.426   0.194   6.602 -0.1625  0.0345 -0.2145
40713W        W83729  28.185  20.783  27.424 -0.1625 -0.3487  0.5187
40714W        W83730   9.240   1.199   2.822  0.0366 -0.0915 -0.0219
40715W        W83731  16.651  32.817  28.899  0.0255  0.2591 -0.0730
40716W        W83732   9.159   5.915  10.046 -0.0763  0.2347  0.1282
40717W        W83733  24.224  22.325  17.555  0.3346 -0.2144  0.2412
40718W        W83734  25.989  28.883  21.326 -0.4069 -0.0611 -0.4714
40719W        W83735   0.380  23.559  21.490 -0.1504 -0.2724 -0.3258
40720W        W83736  30.746  10.410   0.359  0.1045  0.2321 -0.1910
40721W        W83737  33.834  29.535  28.031  0.1985  0.3144 -0.1088
40722W        W83738  29.278  21.515  19.765 -0.0809 -0.0663  0.3415
40723W        W83739  30.238  24.157  19.990  0.0781 -0.1094 -0.3248
40724W        W83740  33.934  16.824  23.680  0.3789  0.0782  0.0380
40725W        W83741  11.995   1.328   8.917  0.0037 -0.1192 -0.0544
40726W        W83742  16.535  29.111  23.480  0.3689  0.0359 -0.1557
40727W        W83743  15.895  27.090  25.933  0.0367  0.2628 -0.0297
40728W        W83744   4.921  21.196  20.237  0.1919  0.1230  0.1114
40729W        W83745  23.186  20.801  20.014  0.5592 -0.1190 -0.2454
40730W        W83746  16.126  27.433  28.629 -0.1732 -0.1100  0.2735
40731W        W83747  32.528  25.611  21.960  0.0754 -0.0133  0.0618
40732W        W83748  26.391  13.240  18.538  0.3353 -0.2110  0.2798
40733W        W83749  25.780  11.179  23.003 -0.1002  0.0546  0.1495
40734W        W83750  29.195  18.202  23.797  0.3358 -0.3503 -0.0113
40735W        W83751  30.906  17.305  15.008 -0.0185  0.1771  0.0064
40736W        W83752  34.296   6.261  23.187  0.2046  0.1706 -0.0056
40737W        W83753  31.992  33.491   0.087  0.1964 -0.3779 -0.2023
40738W        W83754   2.825  27.539   4.407 -0.1184  0.1288 -0.2064
40739W        W83755  23.386  30.811  26.772  0.1382 -0.0732  0.1609
40740W        W83756  25.125  10.956  15.211 -0.3028 -0.0755  0.1025
40741W        W83757  10.740  30.392  23.755 -0.0345 -0.0380  0.3829
40742W        W83758  21.568  12.064  15.341 -0.1430  0.0736 -0.1084
40743W        W83759   8.924  21.291  22.444  0.1411 -0.0519  0.3187
40744W        W83760  30.251  25.425  24.614  0.1961  0.2258  0.0318
40745W        W83761   3.974  12.219   2.129 -0.0347  0.2299  0.1563
40746W        W83762   2.147  32.084  24.005 -0.1304  0.3277 -0.1154
40747W        W83763  23.698  14.318  15.650 -0.1576  0.2377  0.2249
40748W        W83764   1.989  30.574  16.989 -0.1496 -0.3056 -0.3487
40749W        W83765  12.793  21.738  16.588 -0.0191  0.3148  0.1537
40750W        W83766   3.861  22.327  14.524 -0.0225  0.0096  0.0943
40751W        W83767  25.371   0.891   1.326 -0.2567  0.0736  0.1312
40752W        W83768   9.094  14.989   8.690  0.2794 -0.3051 -0.2955
40753W        W83769  20.062  12.576  12.703  0.1721  0.1140  0.0689
40754W        W83770  13.051  29.120  25.666  0.0236 -0.0743 -0.2314
40755W        W83771  27.539  10.275  20.322 -0.3480 -0.1716 -0.0235
40756W        W83772   5.351  20.381  13.342 -0.3182  0.0467  0.2387
40757W        W83773  13.780  12.121  14.460 -0.5497 -0.2642  0.0641
40758W        W83774  18.017  25.298  16.153 -0.0186  0.4639  0.1270
40759W        W83775  31.291   7.305  14.958 -0.0810  0.1096 -0.0616
40760W        W83776  11.675  20.871   3.700 -0.3038 -0.0897 -0.1683
40761W        W83777   5.800  29.325  19.067  0.1838  0.1603  0.2174
40762W        W83778  23.068  28.307  23.798 -0.0826 -0.2254  0.1779
40763W        W83779  26.598  27.194  21.566  0.2155 -0.0695 -0.1635
40764W        W83780  22.803  32.934   8.241 -0.1107  0.0318  0.0425
40765W        W83781  27.795  29.852  26.300  0.0092  0.0161 -0.1208
40766W        W83782  26.963  34.300  15.727  0.1672 -0.0958  0.1606
40767W        W83783  32.244  25.635  27.426  0.2161  0.0623 -0.2433
40768W        W83784  27.266   9.589  23.025 -0.0722 -0.0787 -0.0193
40769W        W83785  17.119  30.565  23.472 -0.0428 -0.3252  0.0376
40770W        W83786  32.238  21.904  24.851 -0.1657  0.0999 -0.1203
40771W        W83787  23.363  17.225  14.665  0.1585 -0.1391  0.0694
40772W        W83788  21.513   3.542  24.096 -0.1659  0.0007  0.0546
40773W        W83789  25.665   2.043  25.664 -0.1727  0.0349 -0.0012
40774W        W83790  32.352  28.596  21.913  0.1287  0.2669 -0.1687
40775W        W83791  10.465  11.329  25.771 -0.2977 -0.0456 -0.1148
40776W        W83792  27.829  31.461  29.210 -0.3463 -0.0916  0.0580
40777W        W83793  17.669  22.507   5.829  0.0945  0.1662  0.0146
40778W        W83794  24.336  12.497  27.012  0.2245 -0.5817  0.4040
40779W        W83795  26.967  17.704  21.920  0.2381  0.0895 -0.0666
40780W        W83796  34.095  27.868  22.917 -0.0877 -0.2260 -0.2149
40781W        W83797  30.655  27.262  25.009 -0.1920 -0.4806 -0.0862
40782W        W83798  33.122  21.813  14.947 -0.0169 -0.0267 -0.3679
40783W        W83799  27.465  19.221  19.337  0.3377 -0.0884 -0.2506
40784W        W83800  33.902  27.878  18.761 -0.3156 -0.0186  0.0528
40785W        W83801  32.592  28.982   9.394 -0.0470  0.1235  0.1639
40786W        W83802   5.381  29.148  17.613 -0.1862  0.1911  0.0026
40787W        W83803  32.737  25.028   3.549 -0.2792  0.1978 -0.2250
40788W        W83804  34.413  11.432  19.325  0.1054  0.1373 -0.1471
40789W        W83805  16.753   4.402  23.733 -0.2283  0.1143 -0.2038
40790W        W83806   0.702  29.098  23.456 -0.0260  0.1051 -0.1160
40791W        W83807  26.266  18.955  23.365  0.2168  0.5577 -0.0342
40792W        W83808   5.205  31.908  19.635 -0.1020 -0.0421 -0.0541
40793W        W83809  21.765  21.894  19.294 -0.0094  0.0317  0.0669
40794W        W83810  10.483  32.809   6.545  0.1162 -0.0791  0.1950
40795W        W83811  34.285  29.869  18.908  0.0041 -0.1593 -0.1557
40796W        W83812  21.807  12.930  15.887 -0.0836 -0.2842  0.2085
40797W        W83813  14.528  22.693  20.122 -0.0657  0.2375 -0.0732
40798W        W83814  26.264  19.170  20.483  0.0798 -0.0744  0.1356
40799W        W83815   1.225  26.547  24.230  0.4274  0.2321 -0.1519
40800W        W83816  15.674  21.480  16.375  0.0727  0.2165 -0.1724
40801W        W83817   3.018  23.602   3.505 -0.0401  0.4507 -0.0298
40802W        W83818  33.694   4.777   2.061  0.3755 -0.2917  0.1232
40803W        W83819  29.528   2.573  22.408 -0.1231 -0.0933  0.2295
40804W        W83820   2.137  28.499  19.770  0.2317  0.2170 -0.0992
40805W        W83821  14.826  28.987  18.323  0.4379 -0.0293  0.0142
40806W        W83822  30.488   7.645  22.651 -0.2279 -0.0454 -0.2665
40807W        W83823  29.856  18.500  19.735 -0.3385 -0.1904  0.1960
40808W        W83824  12.060   2.032  14.895  0.1398 -0.1168 -0.0607
40809W        W83825  33.085  10.263  15.607  0.0212  0.0016 -0.0881
40810W        W83826   6.484  24.972  14.045  0.1998  0.0641  0.0755
40811W        W83827   6.427  25.756  21.486 -0.0812 -0.1613  0.3229
40812W        W83828   1.685  33.882  21.763  0.1488  0.2097 -0.2134
40813W        W83829  34.582  28.767   2.837 -0.1437 -0.1159  0.1477
40814W        W83830   0.341   0.999  19.506  0.2267  0.0271  0.4632
40815W        W83831  22.018   8.786  21.158  0.2140  0.4040  0.0953
40816W        W83832   5.503  32.712  23.848  0.2135  0.1840 -0.4167
40817W        W83833  25.425  34.466  23.187 -0.0183 -0.1464 -0.1775
40818W        W83834  24.062  21.805  19.795 -0.0948 -0.4165 -0.0520
40819W        W83835  30.407  17.314  29.215  0.0995 -0.3920 -0.2541
40820W        W83836   6.517  26.877  14.479  0.1102  0.1154  0.5520
40821W        W83837  33.287  14.289  26.280 -0.3287 -0.3213  0.0764
40822W        W83838  12.199   4.406   2.218  0.1210  0.0028  0.0717
40823W        W83839  31.950  20.664   0.689 -0.0949 -0.1912  0.5627
40824W        W83840  17.502   2.686  20.096  0.1530 -0.1810 -0.3549
40825W        W83841  20.915  14.203  24.430 -0.3248  0.0371 -0.0796
40826W        W83842  26.237  30.805  28.114  0.3964 -0.1213  0.1683
40827W        W83843   3.249  26.409   6.304  0.1129 -0.0972 -0.3286
40828W        W83844  33.744   1.178  19.337 -0.1023  0.1682  0.1756
40829W        W83845  16.441   6.148   4.492  0.1153 -0.0936 -0.0502
40830W        W83846   0.845  11.849  19.991 -0.0510 -0.0191 -0.1112
40831W        W83847   1.431  28.102   4.149 -0.1690 -0.1495  0.2177
40832W        W83848  32.961   1.188  18.504  0.3299  0.0146 -0.0041
40833W        W83849  30.248  20.391  26.358 -0.2592 -0.1039 -0.5344
40834W        W83850   1.566   4.096  22.208  0.1486 -0.0930 -0.0197
40835W        W83851   3.265   9.359  25.258 -0.3693  0.1374 -0.2726
40836W        W83852  13.440  12.660  19.664 -0.0834 -0.1044  0.0030
40837W        W83853  23.670  32.960  23.798  0.1561  0.0191  0.1036
40838W        W83854  17.186  27.049  23.099  0.1015  0.1089 -0.0747
40839W        W83855  31.861  18.019   1.111  0.4158 -0.0648  0.1525
40840W        W83856   4.760  18.616  23.640  0.3837 -0.3835 -0.1756
40841W        W83857  23.954  26.335   0.023  0.2423  0.2357 -0.0331
40842W        W83858  14.887  10.460  15.333  0.1202  0.0186 -0.0992
40843W        W83859   6.760  21.330   5.863 -0.0003 -0.2295 -0.2845
40844W        W83860  24.019  28.692  18.178 -0.1713 -0.1707  0.1111
40845W        W83861  28.643   3.894  23.389  0.3660  0.1390 -0.0408
40846W        W83862  28.205  33.710  20.924  0.3275 -0.3020  0.0189
40847W        W83863  25.075  23.706  19.953  0.1331  0.4000  0.1669
40848W        W83864  32.322  14.923  28.398  0.2382  0.0221  0.1667
40849W        W83865  26.795   0.789  18.669  0.2336 -0.3625  0.1192
40850W        W83866   5.172  24.912  25.224  0.0601 -0.2737  0.1034
40851W        W83867  27.064  17.929  16.747  0.0973 -0.1107 -0.2437
40852W        W83868  24.773  24.219   6.036 -0.4180  0.2508  0.0451
40853W        W83869  16.344  16.026  12.970  0.1129 -0.3603 -0.1469
40854W        W83870  22.170  24.404  17.026 -0.5799 -0.2420  0.2677
40855W        W83871  27.350  25.503  21.062 -0.0702 -0.1245 -0.0384
40856W        W83872  24.831  18.581  20.614 -0.1497  0.4820  0.0468
40857W        W83873  26.302  14.829   1.773  0.2210  0.0360 -0.2014
40858W        W83874  30.731  23.930  27.542 -0.4112 -0.1296 -0.1150
40859W        W83875  25.372  13.747  20.506  0.0338  0.0218 -0.0739
40860W        W83876  26.679  27.755  18.219  0.0542  0.2139 -0.0268
40861W        W83877  30.347  25.341  29.109 -0.3081  0.2289 -0.1251
40862W        W83878   5.897  25.285  20.549  0.0032  0.0331  0.0599
40863W        W83879   4.212  22.819  26.558 -0.0887 -0.0745 -0.0942
40864W        W83880  33.902  18.681  16.485 -0.0340  0.0113 -0.2843
40865W        W83881   8.798  15.157  21.207 -0.1373  0.2676  0.0327
40866W        W83882  26.692  13.452  20.904  0.2392 -0.0881  0.1015
40867W        W83883   2.656  20.990  19.237  0.0151  0.2269  0.3176
40868W        W83884  28.037   5.144  26.286 -0.2179  0.3260  0.0898
40869W        W83885  29.199  24.662  17.514 -0.1968  0.0908  0.0315
40870W        W83886  13.339  25.874  24.317  0.0922  0.1062 -0.0144
40871W        W83887  16.153  27.604  23.871  0.3960  0.1396 -0.1174
40872W        W83888  30.624  17.523  25.504  0.1920  0.0879 -0.2149
40873W        W83889  27.905  24.934  25.213 -0.1394  0.1985 -0.1252
40874W        W83890  11.073   6.383  24.959  0.1154 -0.1153 -0.0647
40875W        W83891  28.403  18.045  17.703 -0.3269  0.0635 -0.0655
40876W        W83892  19.930  13.738  14.721 -0.0663  0.0993  0.1230
40877W        W83893   0.572   8.943  22.937  0.3116  0.1228  0.1159
40878W        W83894  33.721  29.862  17.940  0.2296 -0.0666 -0.0054
40879W        W83895  31.857  30.172  21.938 -0.1471 -0.0227 -0.2271
40880W        W83896   2.029  20.063  24.431 -0.0315 -0.1030  0.0318
40881W        W83897  21.232   6.878   7.134  0.0831  0.1003 -0.0781
40882W        W83898  30.540   1.621  21.499 -0.3692  0.3189  0.1394
40883W        W83899  33.932  25.195  19.470 -0.3889 -0.3076 -0.0550
40884W        W83900  26.426  29.942  18.031  0.0901 -0.3263 -0.0889
40885W        W83901  21.700   5.395  16.247  0.0823 -0.0703 -0.0661
40886W        W83902  12.850  12.617  22.157  0.2940 -0.4412  0.1108
40887W        W83903  28.940   6.637  21.895 -0.0839 -0.2606  0.1077
40888W        W83904  14.699  28.467  17.017  0.2603  0.1457 -0.2867
40889W        W83905  10.224  25.354  26.616 -0.1306 -0.0097 -0.1299
40890W        W83906   4.625  18.902  23.245  0.2493 -0.0748 -0.2329
40891W        W83907  27.621  28.247   7.106 -0.0105 -0.0798 -0.1946
40892W        W83908   2.498  33.251   1.075 -0.0337 -0.3727 -0.1128
40893W        W83909  24.565   4.789  22.882  0.1857 -0.1374 -0.0927
40894W        W83910  24.111  17.053  15.963  0.1261  0.0834 -0.1160
40895W        W83911  31.403  28.815  16.835 -0.0533 -0.0760  0.2783
40896W        W83912  31.201  23.015   6.690 -0.0351 -0.2029 -0.3017
40897W        W83913   7.237  30.204  24.399 -0.0789  0.0569  0.2117
40898W        W83914   3.204  23.373  28.089  0.2003 -0.0294  0.0989
40899W        W83915   1.394  20.202   8.167 -0.1474  0.1947 -0.1051
40900W        W83916  15.221   3.671  14.424  0.0491 -0.1244  0.1713
40901W        W83917   7.144  20.754  25.943 -0.1365 -0.0729 -0.3855
40902W        W83918  20.170   2.067  26.756 -0.2223  0.0487  0.2926
40903W        W83919  27.470  16.221   5.170  0.2414 -0.3109  0.1808
40904W        W83920  25.320  10.558  14.292 -0.0843 -0.2922  0.0969
40905W        W83921   4.935  20.846  16.299  0.1779 -0.0074  0.1513
40906W        W83922  19.025  32.611  19.018  0.2108  0.0260 -0.6519
40907W        W83923  21.147  16.185  23.866 -0.0706 -0.2174  0.1876
40908W        W83924  17.196  24.837  19.343 -0.1158 -0.2742  0.0300
40909W        W83925  20.328  12.373  13.022 -0.1585 -0.0464  0.0687
40910W        W83926  31.196  20.316  17.575 -0.1482 -0.4765  0.0623
40911W        W83927  30.078  22.926  14.748  0.2200  0.1656 -0.1222
40912W        W83928  32.471  25.655  14.742  0.2199 -0.1125  0.0425
40913W        W83929   5.913  25.341   3.301 -0.2090 -0.0749  0.0114
40914W        W83930   3.335  32.303  16.824 -0.0368 -0.0191  0.1666
40915W        W83931   2.596  11.304  25.756  0.2221  0.1115  0.1570
40916W        W83932  25.762  31.041  23.107 -0.2589 -0.0445  0.1304
40917W        W83933  28.977  17.390  14.594  0.3471  0.3701  0.2578
40918W        W83934  33.810   3.289  16.839 -0.0948  0.0111 -0.1487
40919W        W83935  12.968  29.018  20.565 -0.1514  0.1929  0.1717
40920W        W83936  25.102  27.744  19.986  0.0537 -0.0132 -0.2425
40921W        W83937  27.828  19.001  18.246 -0.0492  0.1806  0.0583
40922W        W83938   5.192   7.654  21.169 -0.2728  0.1781  0.2477
40923W        W83939  30.606  24.057  21.069  0.3583  0.0481  0.0303
40924W        W83940   3.852  25.702  14.811 -0.0903 -0.1484 -0.2542
40925W        W83941  24.353  17.480  20.030 -0.0516 -0.0430 -0.0127
40926W        W83942  29.567  23.083  15.902  0.1772  0.2681  0.0869
40927W        W83943  19.639  24.688  27.237 -0.0557  0.0303  0.2281
40928W        W83944  12.908  31.107   3.658  0.2734 -0.1619  0.0452
40929W        W83945   8.911  19.696  22.312 -0.1470  0.1038 -0.0735
40930W        W83946  27.460  31.567  16.516  0.1938 -0.5278  0.3232
40931W        W83947   9.078  21.163  24.340  0.0811  0.1643  0.2009
40932W        W83948  16.868  28.718  21.693 -0.2271  0.0682  0.0173
40933W        W83949   3.107  26.687  23.619 -0.0827  0.1774  0.1241
40934W        W83950  26.703  30.916  16.573 -0.3353  0.2481 -0.1567
40935W        W83951   7.307  23.661   8.163  0.0576  0.0449 -0.0510
40936W        W83952  30.077  16.488   0.507 -0.1475  0.1144 -0.0254
40937W        W83953  10.645  12.869  17.371 -0.1481 -0.3248  0.1605
40938W        W83954  34.661  27.228  22.838  0.2773  0.0146 -0.0690
40939W        W83955  19.744  28.963  26.228  0.1168 -0.0430  0.1064
40940W        W83956  28.355  14.204  17.810 -0.0533  0.0525 -0.0546
40941W        W83957   3.097  31.990  23.056  0.1378 -0.1355 -0.0136
40942W        W83958   3.840   7.586   4.032 -0.1116 -0.4129  0.3281
40943W        W83959   2.727  32.646  23.616  0.1736 -0.0259  0.0195
40944W        W83960   5.031  30.881  21.071 -0.3963 -0.0599  0.0616
40945W        W83961  32.850  28.927  25.432  0.0215  0.1312 -0.0701
40946W        W83962  23.872  16.679  20.244  0.0538  0.1130  0.0270
40947W        W83963  27.524   3.814  20.602  0.1758 -0.0208  0.2689
40948W        W83964  16.035   2.195  24.288 -0.0581  0.2331 -0.0845
40949W        W83965  23.358   2.425  26.482 -0.6134 -0.1041 -0.1666
40950W        W83966  13.345   4.783  15.871  0.1005 -0.0520 -0.4115
40951W        W83967  19.679  15.206  14.570 -0.1506  0.1702  0.0897
40952W        W83968  26.755   6.790  26.216 -0.1653  0.1840  0.0963
40953W        W83969  34.046  23.965  14.649 -0.1899 -0.2281 -0.2158
40954W        W83970  30.632  28.327  19.864 -0.1694  0.0751  0.0473
40955W        W83971   4.879  18.479  21.544  0.3331 -0.1695  0.1746
40956W        W83972   3.660   6.078  19.524 -0.1199 -0.3737 -0.1613
40957W        W83973  23.280  23.169  25.790 -0.0571  0.1802 -0.1012
40958W        W83974  33.339  29.656  19.725 -0.0381 -0.1161 -0.1027
40959W        W83975  29.472  29.500  24.440 -0.0053 -0.2281 -0.1466
40960W        W83976  30.134  32.097  19.677  0.0520  0.1948 -0.0470
40961W        W83977  22.677  18.375  23.963 -0.2576 -0.2503  0.1312
40962W        W83978  18.721  31.923  18.368 -0.1236  0.0334  0.0128
40963W        W83979  13.018  12.798  14.665  0.3702  0.2124  0.0457
40964W        W83980  23.008  25.248   0.199 -0.0430  0.0268 -0.0146
40965W        W83981  11.968   0.067   5.603  0.0233 -0.2377  0.0441
40966W        W83982   2.175  29.815  21.359 -0.3190  0.1233 -0.1202
40967W        W83983  32.379  17.463  18.088  0.3017  0.1677  0.0498
40968W        W83984   0.067  21.871  16.872 -0.0358 -0.2274  0.1803
40969W        W83985  17.918   7.927  18.350  0.2473 -0.0551 -0.0283
40970W        W83986  15.264  25.295  18.192  0.1161  0.1123 -0.2433
40971W        W83987  26.562  32.041  24.649 -0.2012 -0.2601  0.0034
40972W        W83988  17.802  23.716   4.871  0.3434  0.0255 -0.4412
40973W        W83989   6.467   4.409  15.373 -0.0580  0.1121  0.1133
40974W        W83990  33.730  26.402   1.522 -0.0932 -0.3442  0.1752
40975W        W83991  28.615  22.755  22.990 -0.1265  0.1170 -0.1001
40976W        W83992  19.209   5.065  18.024  0.0031  0.1323 -0.2663
40977W        W83993   2.226  11.288  23.965  0.1052 -0.3719 -0.0904
40978W        W83994  32.595  18.025  17.376  0.2899 -0.0265  0.1013
40979W        W83995   5.004  29.279  26.359 -0.0877 -0.2861  0.0592
40980W        W83996  32.286  22.699  22.746  0.1436  0.1416 -0.1026
40981W        W83997  31.763  29.313  25.979  0.1029 -0.1317 -0.1701
40982W        W83998  19.814  21.035   1.285 -0.3703  0.0101 -0.1874
40983W        W83999  10.450   1.915  29.109  0.2692  0.0588 -0.0292
40984W        W84000  14.141   2.492  20.689 -0.2263 -0.0403  0.3327
40985W        W84001  26.224  20.115  22.574  0.0032 -0.1689 -0.0190
40986W        W84002   0.553  25.330   5.955  0.1712  0.2404  0.0279
40987W        W84003   6.271  22.151  18.289  0.2030 -0.1762 -0.0519
40988W        W84004   1.730   3.271  24.900 -0.3241  0.2276 -0.2528
40989W        W84005   1.275  26.286  27.430  0.1348  0.0251  0.2046
40990W        W84006   2.663   6.824   2.523 -0.2145 -0.0992 -0.2525
40991W        W84007   6.688  22.340  16.856 -0.1816 -0.1610  0.0769
40992W        W84008  31.719  34.272  18.796  0.3541  0.1235  0.0793
40993W        W84009   4.851  19.326  22.509  0.0047 -0.3376 -0.0951
40994W        W84010   3.577  26.580  14.401  0.0430 -0.1447  0.2690
40995W        W84011  12.584  27.054  18.813 -0.4119  0.4252 -0.1025
40996W        W84012  18.016  10.142  16.202  0.1389 -0.1574 -0.0235
40997W        W84013  21.147  32.184  16.499 -0.0622  0.1398  0.2190
40998W        W84014  12.535  17.623  12.399 -0.0730 -0.0033 -0.2602
40999W        W84015  34.219   1.562  19.893 -0.0655 -0.0866  0.3357
41000W        W84016   2.139  34.106  20.534 -0.0301 -0.2694  0.0209
41001W        W84017  26.981  10.965  28.190  0.3536 -0.1321  0.1028
41002W        W84018  25.363   7.937   0.863 -0.1980  0.3981  0.3085
41003W        W84019  16.709   3.328  21.250 -0.0255  0.1392  0.0703
41004W        W84020  15.333  26.638  21.221 -0.2468 -0.1049 -0.1493
41005W        W84021  16.940  22.241  23.678 -0.1310  0.3187  0.0126
41006W        W84022  24.067   0.337   3.497 -0.0583 -0.2299  0.1057
41007W        W84023  33.927  25.783  26.087 -0.0969 -0.1028 -0.1333
41008W        W84024  22.548  18.687  24.732 -0.1564  0.0501 -0.2790
41009W        W84025   1.876  17.960  17.869 -0.2241  0.1671  0.1251
41010W        W84026  20.352  23.917   1.180  0.0744  0.0580  0.1219
41011W        W84027  26.426   4.775   2.924  0.0323 -0.0006 -0.1191
41012W        W84028  21.568  12.903  17.774 -0.1797 -0.1355  0.2170
41013W        W84029   3.308  29.798   6.634  0.0807  0.0480 -0.0285
41014W        W84030  19.366  29.150  24.940  0.2795 -0.1188  0.3002
41015W        W84031  12.385  13.310  20.241 -0.0605  0.0525  0.1053
41016W        W84032  17.713  18.009   0.957 -0.0288  0.3138 -0.1435
41017W        W84033   9.174  23.349  15.930  0.3514  0.2896 -0.2882
41018W        W84034  27.739  25.190   0.804 -0.2858 -0.2344 -0.2079
41019W        W84035  29.834  15.701  16.227 -0.0824 -0.1542 -0.0175
41020W        W84036  12.380  27.576  21.359  0.2354  0.1387  0.0802
41021W        W84037   6.931   9.455   8.241  0.0991  0.0813  0.0617
41022W        W84038   4.156  16.993  21.703 -0.1191  0.3467  0.2904
41023W        W84039  25.177  18.496   5.705 -0.0578  0.1185 -0.1205
41024W        W84040  18.716  34.623   6.248  0.0969 -0.2757  0.0326
41025W        W84041   2.425  17.059   6.100 -0.2693 -0.0703 -0.0166
41026W        W84042  33.715   0.669  23.078  0.2802 -0.1993  0.3810
41027W        W84043  34.705  26.416   5.353 -0.0275  0.1423 -0.3223
41028W        W84044  21.620  11.423  27.289  0.0128  0.1640  0.2489
41029W        W84045  30.607  17.285   5.199  0.0935  0.1647  0.2592
41030W        W84046  20.784  15.468   1.660  0.3032  0.2898  0.2471
41031W        W84047  33.564  26.113  26.785  0.1078  0.0453  0.3830
41032W        W84048  33.413  27.798  18.326 -0.1906 -0.0674  0.0118
41033W        W84049  25.682  33.253  17.568 -0.0525  0.2095 -0.0575
41034W        W84050  20.255  13.872  24.269  0.1049 -0.0077 -0.1285
41035W        W84051   9.733  29.537  27.887  0.0063  0.3765 -0.1326
41036W        W84052  25.280   3.463  23.997  0.2536 -0.0660 -0.0665
41037W        W84053  18.230   1.687  20.183  0.1030  0.1691 -0.0123
41038W        W84054   6.028  30.267  24.948  0.0652 -0.0930 -0.2952
41039W        W84055   0.114  25.314  27.849 -0.0188  0.0043  0.0726
41040W        W84056   1.879   7.221  17.155 -0.1635  0.0296  0.0833
41041W        W84057  30.684  21.238  18.495 -0.0678 -0.2025 -0.4605
41042W        W84058  14.790  16.791  28.173 -0.3943 -0.4475  0.1789
41043W        W84059  28.564  11.056   1.370 -0.1495 -0.1076  0.1397
41044W        W84060  33.349  14.797  26.377 -0.3641  0.0555  0.0580
41045W        W84061  29.602  12.103  25.592 -0.0455 -0.0017 -0.0287
41046W        W84062  24.061   9.360  15.933  0.2336 -0.1993  0.2403
41047W        W84063   0.906  25.508  22.636 -0.0004  0.0128 -0.0976
41048W        W84064  23.555  19.779  20.795  0.3016  0.0307  0.3069
41049W        W84065  31.430  32.317  16.291  0.3589 -0.1001 -0.1834
41050W        W84066   2.783  16.702  13.867 -0.2041 -0.2106  0.2501
41051W        W84067   5.706   0.004  22.521 -0.0065  0.2151 -0.1064
41052W        W84068  27.184  25.030   4.715  0.5627 -0.1344 -0.0712
41053W        W84069  29.781  29.029  27.738  0.2137  0.0251  0.2440
41054W        W84070  32.199  17.422   1.698 -0.1834 -0.2333  0.1596
41055W        W84071   2.485  25.342   6.778 -0.2382  0.0682 -0.5966
41056W        W84072  12.817  34.385  16.525 -0.0772  0.0880  0.0916
41057W        W84073  20.951  17.833  20.261  0.0101  0.0994 -0.0672
41058W        W84074  12.060  10.041  26.314  0.1354 -0.1449  0.0154
41059W        W84075  17.318  21.350  21.475 -0.2507 -0.3049 -0.1498
41060W        W84076  14.000   1.459   4.735 -0.1510  0.2193  0.2279
41061W        W84077  23.047  26.084  23.427  0.1146  0.2615 -0.2367
41062W        W84078  33.790  28.490   3.935 -0.2477  0.0277  0.1348
41063W        W84079  20.378   0.482  17.482  0.2929  0.2820 -0.4100
41064W        W84080  23.480  15.559  16.970 -0.1943  0.0967 -0.3122
41065W        W84081  25.088  22.484  24.203 -0.1433  0.2967  0.0844
41066W        W84082   6.109  20.921   4.936 -0.1132 -0.2291  0.1271
41067W        W84083   0.078   4.292  24.793  0.0530 -0.2330  0.1370
41068W        W84084  32.088   4.181  29.258 -0.2649 -0.1981  0.2695
41069W        W84085   4.434   6.176  20.967 -0.1703 -0.1280 -0.1501
41070W        W84086  23.352  26.172  27.816  0.3003 -0.0746 -0.0102
41071W        W84087   7.341  30.740  26.398 -0.0462  0.4734  0.2821
41072W        W84088   6.028  16.214  13.483 -0.0275 -0.0769  0.0142
41073W        W84089  29.921  21.190  16.809 -0.0798 -0.0662 -0.0009
41074W        W84090  10.221  24.968  13.788  0.0861  0.0158 -0.0901
41075W        W84091  24.851  18.424  27.474 -0.1542  0.0286 -0.0059
41076W        W84092  31.607  27.076  29.137 -0.2735  0.0764  0.2229
41077W        W84093  17.144  25.279  17.181 -0.0344  0.2348 -0.0736
41078W        W84094  16.808   1.910  27.363 -0.1453 -0.0549  0.1486
41079W        W84095  33.206  30.058   2.534 -0.0104 -0.4156 -0.2352
41080W        W84096  19.770  16.732   1.673 -0.5060 -0.1428 -0.0278
41081W        W84097  34.667  23.520  26.275 -0.1525 -0.0044  0.0906
41082W        W84098   0.905  18.884  21.635 -0.0875 -0.0067  0.2377
41083W        W84099  32.640   1.195  21.330  0.2814 -0.0618 -0.2210
41084W        W84100  16.743  13.393  12.733 -0.1436 -0.0744 -0.1122
41085W        W84101  33.117  25.549  19.225  0.3592 -0.3803 -0.1407
41086W        W84102  24.699  17.757  21.781  0.1788  0.1828 -0.1982
41087W        W84103  27.193  29.443  20.967  0.0611  0.0225 -0.1872
41088W        W84104   0.552  33.827  19.444  0.0806 -0.2025 -0.0224
41089W        W84105  26.177  24.418  27.704 -0.3734 -0.3508 -0.0994
41090W        W84106   0.444  20.547  22.259 -0.0112  0.6488 -0.1107
41091W        W84107  30.444  14.379  16.944 -0.0011 -0.2001 -0.5140
41092W        W84108  28.662  31.957   6.532  0.0998 -0.3525 -0.2308
41093W        W84109   2.401  34.037  22.521 -0.0084 -0.0162  0.1753
41094W        W84110   0.030  19.920  27.989 -0.0045  0.0412  0.0427
41095W        W84111  34.174  30.335   1.657 -0.0599 -0.1359 -0.0102
41096W        W84112  28.958  20.318  21.678 -0.3595 -0.0302  0.0146
41097W        W84113  27.593   9.024   7.461 -0.1318  0.0364 -0.1323
41098W        W84114  25.775  17.162  29.311 -0.0801  0.1959  0.1746
41099W        W84115  30.824  29.025   0.614 -0.1565 -0.0777 -0.1582
41100W        W84116  29.521   1.902  17.282  0.0476 -0.1802  0.1709
41101W        W84117  33.455   4.759  18.008  0.0008 -0.0661  0.1703
41102W        W84118   8.873  21.268  25.657 -0.1072 -0.0539 -0.2175
41103W        W84119  23.862  26.685   4.685 -0.0238  0.2850  0.0240
41104W        W84120   0.611  27.251   2.645 -0.1840 -0.4228 -0.2035
41105W        W84121  24.332  26.837  15.597  0.1291 -0.1525  0.0090
41106W        W84122   0.772  19.978  26.692  0.3235  0.0240  0.0622
41107W        W84123  31.885  32.925   0.591 -0.0288 -0.0189 -0.4660
41108W        W84124   6.480  22.102   8.256  0.1475  0.0714  0.3308
41109W        W84125  16.373  12.718   2.505  0.0107  0.1389 -0.0380
41110W        W84126  29.870   2.109  22.489 -0.2474  0.1659 -0.3097
41111W        W84127  24.535  25.611  17.485  0.1797 -0.2315 -0.0739
41112W        W84128   0.801  30.165  29.215 -0.3201 -0.3962  0.0874
41113W        W84129  13.278  31.088  20.712  0.1330  0.1813  0.1645
41114W        W84130  14.698  12.876   2.806  0.1037  0.2373  0.3918
41115W        W84131  31.897   9.586  18.341  0.2016 -0.2944 -0.0282
41116W        W84132  25.976  24.809  27.319 -0.0013  0.0746  0.0416
41117W        W84133   4.977  29.923   6.857 -0.0338  0.2169 -0.0463
41118W        W84134  34.669  31.840   9.697  0.1831  0.0144 -0.0617
41119W        W84135   6.789  34.262  22.403  0.0595  0.0588 -0.0317
41120W        W84136  31.154  17.460  14.017  0.2234  0.2217  0.1287
41121W        W84137  25.105   6.018   4.398 -0.0902  0.1140 -0.0744
41122W        W84138  27.682  11.609  22.525  0.1257  0.1276 -0.0573
41123W        W84139  28.658  32.318  16.902  0.3153 -0.1525 -0.0183
41124W        W84140   9.035  28.718  15.158 -0.1897  0.1849  0.1779
41125W        W84141  24.533  22.263  29.226 -0.1266 -0.0566 -0.1057
41126W        W84142   1.914  23.562  17.509 -0.0723 -0.1480 -0.1332
41127W        W84143   3.881   9.698  26.242 -0.2468 -0.0316 -0.3813
41128W        W84144  34.650  14.769   0.509  0.0350 -0.2783  0.5101
41129W        W84145  22.567  26.352   0.117  0.0711  0.0508 -0.3000
41130W        W84146  18.459   9.178  15.132 -0.1758 -0.4583  0.2396
41131W        W84147  21.604  34.094  22.837 -0.2136 -0.0332  0.1839
41132W        W84148  28.378  22.759  21.195  0.3075 -0.0595 -0.1083
41133W        W84149  31.061  31.884  23.028 -0.2799  0.4351 -0.0520
41134W        W84150  26.989  24.958   5.349  0.3163 -0.3101 -0.1541
41135W        W84151   2.683   1.817  15.439  0.0558 -0.0605  0.1106
41136W        W84152   1.950  29.361  19.939  0.0268 -0.0812 -0.3554
41137W        W84153   0.630  26.286  27.937  0.0791  0.3820 -0.1521
41138W        W84154   1.344  24.197  19.773  0.0941  0.2013 -0.1909
41139W        W84155  13.777   3.931  16.908 -0.1913 -0.0286 -0.1404
41140W        W84156  34.511  22.636   3.872  0.0892 -0.2700 -0.0193
41141W        W84157  21.712  28.146  27.423 -0.1013  0.0626  0.0129
41142W        W84158  30.504  31.279  20.772 -0.0015  0.0567  0.1849
41143W        W84159  20.691   4.386   1.426  0.2704 -0.3355  0.1088
41144W        W84160  15.588  24.447   3.477 -0.0445  0.1828 -0.1590
41145W        W84161  33.416  19.646   7.518 -0.0342 -0.1485 -0.2738
41146W        W84162  19.994  27.023  17.334  0.3373 -0.1392  0.3462
41147W        W84163   2.757  20.641  26.566  0.0245 -0.2661 -0.3273
41148W        W84164  32.139  26.356  25.712 -0.1628  0.3732 -0.0711
41149W        W84165   3.633  32.063  15.200  0.1264 -0.0773  0.1925
41150W        W84166   1.175  27.562  24.914  0.5771 -0.1515 -0.3169
41151W        W84167   4.651  25.099  26.903  0.1850  0.3644  0.2061
41152W        W84168  25.141  14.836  17.683  0.2177  0.2514  0.2521
41153W        W84169  31.761  16.143  15.783 -0.0117 -0.0489 -0.0146
41154W        W84170  19.290  16.892  20.068  0.0307 -0.1192 -0.0030
41155W        W84171  18.914   6.366  17.071 -0.2071 -0.2162 -0.0483
41156W        W84172  32.368  11.049  24.796  0.0797 -0.4339  0.3514
41157W        W84173  25.625   1.801  17.709 -0.2551  0.1279  0.0743
41158W        W84174  30.295  22.918  22.726  0.0487 -0.2090  0.2176
41159W        W84175  18.396   2.183  25.118  0.0375  0.2812  0.0246
41160W        W84176   0.941  22.928   1.416 -0.3156  0.2372  0.3349
41161W        W84177  15.668  28.089  15.684  0.0638  0.0789 -0.3634
41162W        W84178   4.521  17.827  15.659  0.0200 -0.2941  0.4150
41163W        W84179  31.659  13.676  22.508  0.0797  0.0252  0.1617
41164W        W84180   9.994  17.474  27.959  0.0760  0.4206 -0.1738
41165W        W84181   2.675   0.992  25.299  0.1572 -0.0273 -0.1902
41166W        W84182  24.809  23.792  15.547 -0.0004  0.0382  0.1984
41167W        W84183  33.342  15.659  18.567 -0.0721  0.1199  0.1477
41168W        W84184  19.564  23.145  14.501  0.1078  0.0453  0.5339
41169W        W84185  11.523   7.938  15.739  0.0184  0.0075  0.1349
41170W        W84186  31.922  33.467   1.896 -0.1474 -0.0916 -0.1399
41171W        W84187  32.734   5.734  20.969  0.0068  0.2083  0.1001
41172W        W84188  26.696  26.795  24.138  0.0569 -0.1310  0.3016
41173W        W84189   6.604  31.452   1.863 -0.1986  0.0453 -0.0319
41174W        W84190  17.332  23.131  15.489  0.4669  0.1200  0.2052
41175W        W84191   2.363  29.653  20.104 -0.2360  0.0588  0.0947
41176W        W84192  15.507  21.529  28.155  0.0705 -0.3657  0.0153
41177W        W84193   8.376  21.463   0.106 -0.0109  0.2283  0.0013
41178W        W84194   2.766  30.949   0.400 -0.0344  0.0129 -0.3436
41179W        W84195  18.429  16.363  16.115  0.3567  0.1974 -0.1736
41180W        W84196  26.987  27.523  24.812 -0.0551 -0.0235  0.1006
41181W        W84197  30.728  32.382  20.959 -0.2020  0.0382  0.0840
41182W        W84198  25.302  13.944  28.854  0.1696  0.3468  0.0706
41183W        W84199  16.911  16.606  22.470 -0.2593  0.2195  0.2168
41184W        W84200  20.683  14.129  27.620 -0.1651 -0.2318 -0.2054
41185W        W84201  16.534   4.227  18.257  0.0884 -0.2769 -0.3243
41186W        W84202  19.581  24.912  19.725  0.0176  0.1951  0.2896
41187W        W84203  15.829  24.452  16.259  0.0934  0.0289 -0.1805
41188W        W84204  30.544   8.558   6.291 -0.1650 -0.2828  0.1000
41189W        W84205  34.452  21.774   0.813 -0.0923  0.2272 -0.1228
41190W        W84206   4.060  14.890  13.950  0.0420  0.1691  0.1720
41191W        W84207  25.485  16.086  28.449 -0.2629 -0.1835  0.1642
41192W        W84208  31.139  23.637   8.385  0.2395 -0.2143 -0.1391
41193W        W84209  28.474   1.474  20.410 -0.0865 -0.2897 -0.1250
41194W        W84210  16.554  29.549  17.165  0.0762 -0.1428  0.0752
41195W        W84211  20.336  22.469  14.658  0.1113 -0.2934 -0.0360
41196W        W84212  31.345  29.352   2.616 -0.4533  0.3775  0.1713
41197W        W84213   3.019  25.867  15.998 -0.3400  0.0524 -0.0564
41198W        W84214  19.118  20.453  26.525  0.0698 -0.0023  0.0015
41199W        W84215  20.446  28.820   7.703 -0.1013 -0.0186 -0.0819
41200W        W84216  18.802  19.223  14.418  0.2626  0.3615 -0.0426
41201W        W84217  14.043  14.131  19.659  0.2315  0.1656  0.0719
41202W        W84218   9.521  22.574  24.426 -0.0762 -0.0998  0.2816
41203W        W84219  24.401  12.916  13.379  0.1093  0.3063 -0.2237
41204W        W84220  11.400  27.347   1.446  0.3140 -0.1700 -0.2283
41205W        W84221  17.948  12.375   0.173  0.1549 -0.1421 -0.0349
41206W        W84222  30.085  20.449   0.735  0.1665  0.4019  0.2487
41207W        W84223  26.778  26.662  15.902 -0.2067 -0.1351 -0.0804
41208W        W84224   5.477  31.468  19.473 -0.3316  0.3087  0.0837
41209W        W84225   6.616  28.682  23.567  0.2390  0.5066 -0.0831
41210W        W84226  32.357  22.369  19.824  0.1382  0.2236  0.2260
41211W        W84227  20.722   7.872  19.308 -0.2241 -0.1152  0.2262
41212W        W84228  24.050  12.496  20.455 -0.0212 -0.0627  0.3162
41213W        W84229   8.875  13.591   0.688 -0.0495 -0.0301  0.1711
41214W        W84230  31.224  21.486  20.024  0.5452 -0.4225 -0.2861
41215W        W84231  30.952  26.450  19.312  0.0447  0.2356  0.1726
41216W        W84232   2.479  27.966  29.100 -0.0373  0.0811 -0.3621
41217W        W84233  34.610  24.113  28.201 -0.1253  0.3053  0.0184
41218W        W84234  24.891  14.165  19.642  0.2602 -0.0395 -0.0714
41219W        W84235  33.151  23.134  21.873 -0.1093 -0.1165  0.6095
41220W        W84236  31.386  32.951  21.085  0.0433 -0.0954  0.0615
41221W        W84237   5.962   4.867  24.148 -0.0270  0.1197 -0.1764
41222W        W84238   0.974   8.838   4.028 -0.2369  0.1673 -0.0111
41223W        W84239  32.742   3.927   6.877  0.2125  0.0744  0.0602
41224W        W84240  20.697   2.637  22.954 -0.0374  0.0078 -0.2344
41225W        W84241  29.237  26.746  18.223 -0.3204  0.2420 -0.1346
41226W        W84242  24.857   2.052   1.798  0.1793 -0.0263 -0.0649
41227W        W84243   5.084  24.016  14.516  0.0261 -0.0710 -0.0049
41228W        W84244  20.810  19.977   0.095 -0.2063 -0.3044  0.0500
41229W        W84245   1.944  27.111   4.354  0.0304  0.0681  0.1467
41230W        W84246   5.360  23.554   9.650  0.3311 -0.3515 -0.2056
41231W        W84247  26.743  17.668   0.258  0.1703 -0.3030  0.0556
41232W        W84248   3.175  26.619  17.473  0.0479 -0.0181  0.0167
41233W        W84249  17.480  18.488   2.165 -0.3154  0.0414  0.1518
41234W        W84250  21.415   8.728   2.257 -0.2173 -0.2573 -0.0195
41235W        W84251  29.433  27.385  29.200  0.1097  0.1427 -0.0535
41236W        W84252  25.222  23.789  20.537 -0.2811  0.3245 -0.2613
41237W        W84253  23.271  21.330  17.478  0.1305 -0.1761 -0.3246
41238W        W84254   5.841  24.437   2.256  0.2467 -0.1012  0.1609
41239W        W84255   6.850   2.494   2.321  0.2176 -0.2359 -0.0995
41240W        W84256   3.251   8.543  25.500 -0.2615 -0.1644 -0.2165
41241W        W84257  27.368  27.749  23.296 -0.1326 -0.0743 -0.1930
41242W        W84258  33.225   2.548   0.752 -0.0317 -0.0253  0.0281
41243W        W84259   5.622  32.915  28.944 -0.3092 -0.0245 -0.0628
41244W        W84260  31.758  34.272   0.368  0.0885 -0.0914 -0.1088
41245W        W84261  11.436  30.284  23.132  0.3555 -0.0089 -0.1009
41246W        W84262  31.239  20.100  28.684 -0.0373 -0.1253  0.0961
41247W        W84263  28.636  19.697  15.205  0.2805 -0.1860  0.2041
41248W        W84264  12.379  24.699   6.429  0.3142 -0.0594  0.1298
41249W        W84265   3.751  14.747  21.929 -0.2123  0.3446 -0.0068
41250W        W84266  32.137  28.589  22.711 -0.1217 -0.0479 -0.2221
41251W        W84267  28.394  16.343  19.377 -0.2091 -0.2037  0.1742
41252W        W84268  17.671  19.736  22.325  0.0176  0.1008  0.0507
41253W        W84269  25.040  21.314  24.467 -0.1393 -0.2226  0.0970
41254W        W84270  33.170  15.128  18.413  0.3285  0.0351  0.0929
41255W        W84271  20.119  11.637  23.544  0.1021 -0.1875  0.1231
41256W        W84272  25.867  34.554  25.487  0.3500  0.0108 -0.2109
41257W        W84273  32.362  23.229   3.302  0.0199  0.1850  0.0439
41258W        W84274  30.656  19.676   3.668  0.0376 -0.0283 -0.2752
41259W        W84275   0.634  16.453  23.823 -0.2804 -0.0572 -0.0508
41260W        W84276   8.348  31.986  23.351  0.0954  0.3539  0.2616
41261W        W84277  22.438  17.840  12.693  0.1550 -0.1099 -0.2871
41262W        W84278  11.717  17.499  24.548 -0.2278 -0.1920 -0.0615
41263W        W84279  34.596  27.197   0.470 -0.1473 -0.1461 -0.0023
41264W        W84280  27.269  22.232  19.304 -0.1279 -0.0466  0.2562
41265W        W84281  32.167  28.056  16.934 -0.1339 -0.0093 -0.0546
41266W        W84282  30.832  14.597  16.784 -0.1754 -0.3448  0.3562
41267W        W84283  14.374  23.532  24.474 -0.0940  0.1917 -0.2815
41268W        W84284  24.847  25.372   2.840 -0.1525  0.2080  0.0284
41269W        W84285   4.053  16.517  14.694 -0.2714  0.1431 -0.1377
41270W        W84286  11.778  18.016  12.287 -0.2320  0.0452  0.0542
41271W        W84287  30.619  28.714  18.283  0.0825  0.3202  0.1160
41272W        W84288   3.019  27.217  22.254  0.1798 -0.0931 -0.0434
41273W        W84289   3.071  28.530  19.457 -0.0383 -0.4049  0.1847
41274W        W84290  22.032  16.427   7.597  0.1873  0.2948  0.0504
41275W        W84291  31.815   0.596   2.385  0.0812  0.1730 -0.3852
41276W        W84292  18.339  22.758  26.333 -0.0593 -0.0347 -0.4025
41277W        W84293  22.692  20.513   8.724  0.1080 -0.1509 -0.2372
41278W        W84294  30.459  29.262   0.407  0.1948  0.2466  0.1839
41279W        W84295  30.846   8.902   8.281  0.0288 -0.0345  0.1123
41280W        W84296   7.232  30.897  28.597 -0.3006 -0.1116  0.1125
41281W        W84297  20.967  32.085  20.991  0.1490 -0.1596  0.1225
41282W        W84298  26.252  14.146  15.309 -0.0431  0.2179 -0.0055
41283W        W84299  19.770  31.798   4.056 -0.0410  0.3371 -0.5135
41284W        W84300  29.370   5.633  24.667  0.4024  0.1003 -0.1596
41285W        W84301  26.443  17.975  15.978  0.1164  0.2834 -0.1859
41286W        W84302   6.167   0.289  16.837 -0.0573 -0.0651 -0.2340
41287W        W84303   3.638  20.445  14.303  0.5355 -0.2483  0.2302
41288W        W84304  15.018  20.885   4.741 -0.2074 -0.2105  0.0221
41289W        W84305   3.205  31.255  21.261  0.2796 -0.1771  0.1626
41290W        W84306  29.185  23.471   1.369 -0.2794 -0.0203  0.0311
41291W        W84307   3.173  30.972   7.531 -0.2826 -0.2453 -0.4048
41292W        W84308   1.527  14.620  25.686 -0.1632  0.1564  0.2079
41293W        W84309  32.972  32.963  24.930 -0.0169 -0.2503  0.0034
41294W        W84310  20.239  19.622  25.070  0.1043 -0.0378  0.2896
41295W        W84311   6.908  21.977  16.404  0.0911 -0.1814 -0.0614
41296W        W84312  30.917   4.600  17.423 -0.1904  0.0960 -0.2058
41297W        W84313  24.039  31.213  17.598  0.0821 -0.0143 -0.2479
41298W        W84314   3.325  13.433   3.376 -0.2955 -0.1071  0.3302
41299W        W84315   4.674  30.399  22.941  0.2195  0.4018 -0.0517
41300W        W84316   2.642   4.632  15.172  0.0148  0.3003 -0.0330
41301W        W84317  13.952  25.209  16.472  0.1519  0.1576 -0.3748
41302W        W84318  11.668  26.615   1.572  0.1870  0.1404 -0.2670
41303W        W84319  33.821  19.235  16.405 -0.1535  0.0012 -0.0715
41304W        W84320  26.398  30.129   0.811  0.1939 -0.1323  0.1477
41305W        W84321  31.676  22.492  24.487 -0.2811 -0.2886 -0.2302
41306W        W84322  34.711  33.333  23.365 -0.1654 -0.1022  0.0894
41307W        W84323   2.955  14.650  24.789  0.0883  0.1667 -0.0116
41308W        W84324  22.510  25.165  26.797  0.0887 -0.1985 -0.0634
41309W        W84325  28.356  26.031  27.355 -0.0239  0.0694  0.0244
41310W        W84326  16.015  16.889  29.075  0.0098  0.0281  0.3472
41311W        W84327   9.628  25.648  13.694 -0.2306  0.0642  0.0438
41312W        W84328  14.375  33.777   8.010 -0.0078  0.1367 -0.2773
41313W        W84329  20.274  27.446   7.702  0.1914  0.0061  0.3502
41314W        W84330  22.764  24.825   2.676  0.1676 -0.0297 -0.1846
41315W        W84331  27.297  19.973  15.622  0.2309  0.0635  0.3253
41316W        W84332  34.681  19.550  24.150 -0.4259  0.1078 -0.1894
41317W        W84333   0.925  32.414  17.132 -0.0677 -0.1894 -0.1236
41318W        W84334  19.106  23.440  13.021  0.0103 -0.1337 -0.1163
41319W        W84335  30.644  18.008   2.416 -0.2185 -0.3762 -0.2571
41320W        W84336  17.838  13.983  24.465 -0.2196 -0.1710 -0.0165
41321W        W84337   4.435  17.057  17.482 -0.2272  0.0372 -0.0433
41322W        W84338  16.772  33.675   1.638  0.1763 -0.3426 -0.1217
41323W        W84339   7.333  21.786  21.187  0.0812  0.0056  0.1552
41324W        W84340  20.000  10.703   2.912  0.1616  0.2237 -0.2137
41325W        W84341  14.140  23.941  24.325  0.1663  0.2064  0.4077
41326W        W84342  32.184  17.174  23.919  0.1139 -0.2685  0.0208
41327W        W84343  29.392  13.688  16.926 -0.0256  0.0085 -0.3042
41328W        W84344  33.333  18.925  28.619 -0.2504  0.0129  0.1025
41329W        W84345   1.035  29.919  18.846 -0.1020  0.1994 -0.1175
41330W        W84346  11.912  17.413   7.104 -0.0641  0.0165  0.1122
41331W        W84347  32.622  34.082  17.154 -0.0247  0.2926 -0.1380
41332W        W84348  15.247  21.621  15.782  0.0084  0.1488  0.0981
41333W        W84349  23.172  17.262  24.060 -0.2266  0.2238 -0.1336
41334W        W84350   3.193  12.228  17.792 -0.0488 -0.0820  0.0564
41335W        W84351  31.228  19.109   3.588  0.1004 -0.1072  0.2246
41336W        W84352  29.254  21.904  15.987 -0.1552 -0.1502 -0.0928
41337W        W84353  28.180  25.371  19.679 -0.4409  0.2738  0.0897
41338W        W84354  19.498  29.608  24.708 -0.1144  0.1135  0.0270
41339W        W84355  28.219  29.942   3.973  0.0785  0.4782 -0.0063
41340W        W84356  21.036   7.712  22.252  0.0183  0.0073 -0.3362
41341W        W84357   9.909  22.173  20.659  0.2180 -0.1639  0.0513
41342W        W84358   1.855  24.414  18.264 -0.1749  0.2571  0.3418
41343W        W84359  31.657  30.756  26.913  0.1681  0.0741  0.2434
41344W        W84360  13.049  20.045  11.443  0.1263 -0.2730  0.2716
41345W        W84361  14.414   6.851  16.519  0.0154  0.2288 -0.2750
41346W        W84362   8.990  20.118  27.443 -0.1107  0.0070 -0.1718
41347W        W84363  30.905  22.958  23.985 -0.1871 -0.0865  0.0751
41348W        W84364  29.988  29.165  24.078 -0.0993  0.2897  0.1442
41349W        W84365   7.016  25.527  23.880 -0.0263  0.0287  0.2878
41350W        W84366  26.115  33.678   5.196  0.0386  0.0354 -0.0943
41351W        W84367  34.732   7.888   6.416  0.1289 -0.3286  0.5262
41352W        W84368   3.728  18.721  16.164  0.2301 -0.1456 -0.1913
41353W        W84369  23.907  27.206  24.499 -0.0299  0.4776 -0.0227
41354W        W84370  32.190  30.821  26.331 -0.1342 -0.1970  0.0700
41355W        W84371  21.694  16.767   1.910 -0.1179  0.3023  0.0405
41356W        W84372  26.160  33.702  22.830 -0.0444 -0.1812 -0.1504
41357W        W84373   1.696  28.394   3.602 -0.0465  0.0428 -0.5223
41358W        W84374  28.587   7.799  21.742  0.0541  0.0456 -0.1143
41359W        W84375   4.423   3.596   1.787 -0.0207  0.0488 -0.0688
41360W        W84376   3.427  26.620  20.627 -0.1985 -0.2246 -0.0009
41361W        W84377  26.284  22.105  24.626  0.0756 -0.2085 -0.3433
41362W        W84378  32.701  18.810  17.113 -0.1478  0.1051 -0.1069
41363W        W84379  25.975  27.152   6.385  0.0547 -0.1456  0.2049
41364W        W84380  27.073   6.841  17.383  0.0822  0.2367 -0.0124
41365W        W84381  18.539  21.876  26.699 -0.3488  0.0430 -0.0348
41366W        W84382  29.406  22.808   1.687  0.0601  0.0682 -0.0005
41367W        W84383   4.824   4.433  28.192  0.1547 -0.4255 -0.1498
41368W        W84384  33.197  32.680  20.628  0.1638 -0.1510  0.0403
41369W        W84385  27.186  19.600   4.550  0.0058 -0.1517 -0.0790
41370W        W84386  29.612  11.696   4.370  0.4004 -0.0361 -0.2323
41371W        W84387  22.380   6.541   0.574  0.0156  0.2232  0.3451
41372W        W84388  24.472   9.641   2.807  0.0231  0.1084 -0.2574
41373W        W84389  31.555  13.288  26.035 -0.2146  0.1008 -0.1073
41374W        W84390   8.494  27.382  23.493 -0.2129 -0.1909 -0.0869
41375W        W84391   4.851  20.950  23.967 -0.0970  0.1883  0.0030
41376W        W84392  21.467  16.301  12.245  0.0733 -0.0067 -0.2840
41377W        W84393   2.063  31.397   6.169 -0.2227  0.1197  0.2899
41378W        W84394  19.259  27.607  20.639 -0.5862  0.2876  0.1810
41379W        W84395   0.954  22.258  24.507  0.1038  0.2983 -0.1527
41380W        W84396   7.274  30.412   5.515  0.0396 -0.0241  0.1979
41381W        W84397  27.933  14.637  26.548 -0.1196  0.2622  0.1284
41382W        W84398   0.576  30.170  18.930 -0.2680  0.2415  0.0345
41383W        W84399  26.334  23.709   8.110 -0.0384  0.1896 -0.3368
41384W        W84400   2.249   2.017  15.262  0.2281 -0.0947  0.1281
41385W        W84401  33.859  31.355  26.503 -0.1302  0.1401  0.2290
41386W        W84402   1.675  31.379  18.661 -0.3066  0.0549  0.4015
41387W        W84403  33.979  14.869  24.594  0.0073 -0.1295  0.2048
41388W        W84404  19.840  24.913   2.272  0.0021 -0.3763  0.0970
41389W        W84405  30.858  16.265  16.800  0.0799 -0.2062  0.0967
41390W        W84406  26.681  26.155  21.445 -0.0914 -0.2270 -0.1089
41391W        W84407   1.011   5.446  10.028 -0.1838  0.3653 -0.1823
41392W        W84408  19.363  13.491  15.051 -0.0527  0.2564  0.1344
41393W        W84409  29.027  25.566  20.878  0.1536  0.1148  0.2280
41394W        W84410  27.264   8.448   0.874  0.1076 -0.0762  0.2179
41395W        W84411   7.089  22.351  21.760  0.0933 -0.0707  0.0662
41396W        W84412  29.564  17.021  15.175  0.2292  0.1720 -0.0641
41397W        W84413   8.255  29.856   3.484  0.0834  0.2835  0.1123
41398W        W84414   1.937  21.360  27.539 -0.1253  0.1598  0.0271
41399W        W84415  24.835  16.176  18.010 -0.3981 -0.3081  0.1554
41400W        W84416   0.517  34.195  26.417  0.0713 -0.0973 -0.0172
41401W        W84417   0.603  17.596   6.884 -0.0439 -0.0806  0.0600
41402W        W84418   5.209   1.842   7.693 -0.1518 -0.3279 -0.3333
41403W        W84419  30.351   9.314  10.241 -0.0852 -0.0006  0.0720
41404W        W84420  12.163  23.520  29.249  0.0613  0.2669  0.2548
41405W        W84421  11.353  29.088   8.919  0.0041  0.3477  0.2204
41406W        W84422  24.538  10.105  17.075 -0.2793 -0.1960 -0.1727
41407W        W84423  24.783   3.861  21.977  0.0420  0.0533  0.1423
41408W        W84424   2.244  13.162  14.362  0.0608 -0.2295  0.0942
41409W        W84425   7.813  29.745   5.811 -0.4422 -0.3092  0.0096
41410W        W84426  17.558  22.723  24.378 -0.1655 -0.0431 -0.0423
41411W        W84427  32.927  15.571  19.658 -0.0329  0.4446  0.0680
41412W        W84428  27.408  18.782   6.264 -0.0123  0.0193 -0.0687
41413W        W84429   2.932  22.298  17.907 -0.2769  0.2368 -0.0950
41414W        W84430  30.240  33.172   1.756  0.2620 -0.3223 -0.0921
41415W        W84431   3.638  20.115  23.416  0.1990 -0.2831  0.1597
41416W        W84432  12.621  13.197  25.337 -0.1195 -0.0228  0.0873
41417W        W84433  23.737   2.074  18.327  0.1716  0.0053 -0.0278
41418W        W84434  17.789  20.901   6.133 -0.1603  0.0938  0.0798
41419W        W84435   1.838  19.204  24.154 -0.2573 -0.1680  0.0434
41420W        W84436  11.378   0.807   1.442  0.0319 -0.1227  0.0917
41421W        W84437   0.543  32.358  28.304 -0.0803  0.1271  0.0400
41422W        W84438  29.775  15.355  24.119  0.0666 -0.2599  0.0159
41423W        W84439  14.665  25.410  18.058  0.0751 -0.1325  0.0091
41424W        W84440  16.925  21.683  28.312 -0.2231  0.1166  0.0878
41425W        W84441   6.947   5.734  16.493  0.3024  0.1496 -0.1220
41426W        W84442  18.807  27.733  18.176  0.0596  0.0056 -0.1584
41427W        W84443  17.492  24.342   0.169  0.2998 -0.0784 -0.1437
41428W        W84444  29.423  18.955  17.039  0.4392 -0.3209  0.0006
41429W        W84445   0.891   0.569   1.347 -0.2995 -0.2500  0.0464
41430W        W84446   9.486  25.938   0.828  0.2234 -0.4841  0.2741
41431W        W84447  27.738   2.547  18.597 -0.1735  0.2998  0.0820
41432W        W84448   1.023  31.207  21.724  0.2240 -0.1044 -0.4535
41433W        W84449  25.980  19.326  21.406  0.0470 -0.2601 -0.0886
41434W        W84450   6.002  30.647   2.226  0.4059 -0.1460 -0.2164
41435W        W84451  34.437  32.939   0.683 -0.1107 -0.2206 -0.3360
41436W        W84452  18.802  22.847   7.710 -0.3088 -0.0245  0.1168
41437W        W84453  34.755   4.164  22.192 -0.0566  0.1370  0.2813
41438W        W84454  11.592  16.477  28.483  0.2571  0.4459 -0.3480
41439W        W84455   3.275  31.823   1.468  0.1928  0.0892 -0.1638
41440W        W84456   1.977  11.041  28.211 -0.1620 -0.1014 -0.2270
41441W        W84457  20.857  28.552  21.821  0.1821  0.0878  0.0644
41442W        W84458  28.894  22.311  11.002  0.1982 -0.3890  0.1099
41443W        W84459  24.470  21.219  20.662  0.0483  0.0256 -0.0200
41444W        W84460  23.680  16.646  15.654 -0.2823 -0.1100 -0.1005
41445W        W84461   1.668  28.662   6.429  0.3381  0.2957 -0.1114
41446W        W84462  28.420  33.646  28.184 -0.1623  0.0579 -0.0006
41447W        W84463  29.982  13.873   1.613  0.4413  0.1360  0.2057
41448W        W84464  32.783   0.364   2.612 -0.0490  0.1224  0.2953
41449W        W84465  31.790  30.791  16.955  0.1942  0.1558  0.1520
41450W        W84466  34.264  11.662  17.305  0.2472  0.1577 -0.2855
41451W        W84467  10.916  33.524   2.242 -0.1899  0.0614  0.1546
41452W        W84468  27.797  16.319  28.744 -0.2327  0.1909 -0.0187
41453W        W84469  32.199  17.298  19.685  0.0423  0.0583 -0.0126
41454W        W84470  29.574  10.807  19.849 -0.1600 -0.0993 -0.2676
41455W        W84471   3.887  18.964   3.461 -0.2866  0.0971 -0.3556
41456W        W84472  26.331  12.846  17.294 -0.1187 -0.0641 -0.5018
41457W        W84473  23.171  28.059   2.643  0.1115 -0.1001 -0.2315
41458W        W84474   1.554  33.231  21.227 -0.1556 -0.0085  0.2571
41459W        W84475   9.337  33.836  20.112 -0.0755  0.0807  0.0972
41460W        W84476  13.730  23.992  27.883  0.0254  0.1288  0.0433
41461W        W84477  33.592   2.434   6.864 -0.0483 -0.0524 -0.2176
41462W        W84478  14.294  32.049   9.308  0.2587 -0.0865  0.2039
41463W        W84479  33.206  30.202  24.796  0.2659  0.0173 -0.0900
41464W        W84480  28.201  21.820  25.114 -0.1728  0.1820  0.0119
41465W        W84481  23.625  22.725   0.832  0.1318 -0.1897  0.2108
41466W        W84482  24.180  19.021  25.559  0.1478  0.0131 -0.1755
41467W        W84483  20.599  34.366  25.056 -0.2383  0.2590 -0.2915
41468W        W84484  10.489  19.793  18.215  0.1344  0.0762  0.0318
41469W        W84485  21.298  26.797   4.894 -0.1091 -0.0929 -0.0905
41470W        W84486  21.866  32.262   0.697 -0.2931 -0.1929 -0.4301
41471W        W84487  26.008  26.175   3.158 -0.2634 -0.2667  0.2707
41472W        W84488  33.089  33.768  23.347 -0.2608  0.2120 -0.0351
41473W        W84489   0.285  11.002  15.215  0.1045 -0.2118 -0.0580
41474W        W84490   6.910  17.800   1.161 -0.0032  0.0254  0.2848
41475W        W84491  15.052  29.742   3.091 -0.2314 -0.1529  0.0387
41476W        W84492  31.252  23.441  10.531 -0.0209 -0.0228 -0.0673
41477W        W84493   5.605  29.057   9.494  0.0514  0.0522  0.1335
41478W        W84494  34.023  26.369  17.912  0.1458 -0.3739  0.0112
41479W        W84495  24.200  12.130  23.608 -0.3524 -0.0627  0.2489
41480W        W84496  23.041  33.161   6.170 -0.0398 -0.2007  0.3582
41481W        W84497  31.083  17.013  26.028 -0.2122  0.1002  0.0680
41482W        W84498  17.197  15.605   3.127  0.0894 -0.0630 -0.1391
41483W        W84499  25.410  25.506  22.224 -0.2102 -0.0044  0.3253
41484W        W84500  27.498  32.126  21.626 -0.1760 -0.3898 -0.0472
41485W        W84501  34.631  28.634  28.522 -0.1768 -0.0670  0.0747
41486W        W84502  25.094  24.943  25.915  0.0058  0.1905 -0.1199
41487W        W84503  20.366  23.394   5.436 -0.1659  0.0321  0.2391
41488W        W84504  26.632   3.211  20.425 -0.1650  0.1671  0.2205
41489W        W84505   9.478  22.117  27.012 -0.6008  0.0191 -0.3694
41490W        W84506  19.375  19.196  25.759 -0.1830  0.0156 -0.0524
41491W        W84507   7.278  20.659  14.143 -0.0015 -0.2120  0.0405
41492W        W84508   4.915  20.780   0.457 -0.1176 -0.1853 -0.1917
41493W        W84509  34.173  27.627   2.781 -0.4362 -0.2288 -0.2269
41494W        W84510   0.131  22.563   3.475 -0.1883  0.3511  0.0499
41495W        W84511  32.226  24.644  25.878 -0.1078 -0.1063  0.0409
41496W        W84512  25.502  29.633  16.707  0.2338 -0.1427  0.1857
41497W        W84513  32.957  28.099   4.309 -0.2342  0.2495  0.4308
41498W        W84514   4.926   8.336   6.374 -0.2228  0.0035 -0.3664
41499W        W84515  22.826  10.310  17.912  0.2556  0.1040 -0.1673
41500W        W84516  24.327  18.371  26.073 -0.1592  0.0688 -0.0924
41501W        W84517  23.147  20.277  23.830  0.0478  0.2366  0.2720
41502W        W84518  31.555  11.972  26.636  0.1464 -0.2102  0.0368
41503W        W84519  33.896  23.258  17.788  0.0629  0.1013  0.0602
41504W        W84520  29.685  14.180   6.161  0.0124  0.2766  0.1639
41505W        W84521  28.267  26.583  25.744 -0.3469 -0.0608 -0.0015
41506W        W84522   8.749   9.857  14.214 -0.1489  0.0363  0.2665
41507W        W84523  30.981  28.031   4.315  0.0188 -0.0545  0.0614
41508W        W84524  32.116   1.921   3.440 -0.1033 -0.3065  0.0587
41509W        W84525  19.895  22.807  25.231 -0.0018  0.2067 -0.2012
41510W        W84526   0.250   9.582  16.945 -0.0542  0.2831 -0.0039
41511W        W84527   7.848  27.027   0.598  0.0372 -0.2652  0.0512
41512W        W84528  24.434  33.325  29.213  0.1421 -0.0620  0.0759
41513W        W84529   2.522  23.585  20.150  0.1657 -0.1157 -0.1594
41514W        W84530   1.499  21.919  29.287 -0.0866  0.1236 -0.1828
41515W        W84531  15.130  25.843  18.109 -0.4978  0.0922  0.2819
41516W        W84532  34.676  29.918  26.168  0.0495  0.1185  0.1087
41517W        W84533  13.471  18.838  19.796  0.0148  0.0118  0.1729
41518W        W84534  18.313   4.690   9.275  0.1813 -0.3614  0.2976
41519W        W84535  13.825  20.708   3.549  0.1574 -0.3316 -0.3284
41520W        W84536  32.307   6.441  15.842 -0.0540 -0.1196  0.1835
41521W        W84537  17.010  26.745  19.237 -0.1861  0.3551 -0.1553
41522W        W84538  17.106  27.948  24.778 -0.1115  0.0580 -0.0063
41523W        W84539   7.986  23.113  13.617 -0.1031 -0.2612  0.1659
41524W        W84540   6.828   9.773   2.542  0.2692 -0.2450 -0.0991
41525W        W84541   7.246  29.765   9.483  0.0814 -0.0874  0.4278
41526W        W84542   1.833  12.818   4.187 -0.1609 -0.0819 -0.0906
41527W        W84543   1.000  26.149  25.045 -0.0981 -0.2483 -0.0029
41528W        W84544   0.094  21.901  24.804 -0.1647 -0.1393  0.0257
41529W        W84545  24.585  27.514   7.278 -0.0509 -0.0758 -0.1530
41530W        W84546  16.596  15.287  21.414  0.1599 -0.3051  0.0050
41531W        W84547  20.545   8.952  20.960  0.2401  0.2088 -0.2353
41532W        W84548  26.737  10.366  20.732  0.1006  0.0978  0.1767
41533W        W84549  32.519  17.738  19.653 -0.0573 -0.1130  0.1492
41534W        W84550   1.035  25.651  23.746  0.0178 -0.1292  0.3166
41535W        W84551  24.669  17.424  25.912 -0.0022 -0.0545 -0.0699
41536W        W84552  34.355   4.991  26.608 -0.0588  0.0343 -0.1384
41537W        W84553  21.603  15.047   8.732 -0.1201  0.1781 -0.0634
41538W        W84554   6.980  32.629  27.140  0.3179 -0.5312  0.4974
41539W        W84555   6.898  22.494  29.233  0.0606 -0.1574  0.3195
41540W        W84556  32.756  31.849  21.468 -0.1940  0.0022 -0.0622
41541W        W84557  22.722  22.453  15.565  0.2209 -0.1929 -0.2532
41542W        W84558  24.652  21.648  14.917  0.1155 -0.0575  0.0606
41543W        W84559   1.501  16.882   1.631 -0.4200  0.0150 -0.1164
41544W        W84560  34.351   1.859  21.068  0.0971  0.1082  0.0882
41545W        W84561   0.765  15.208  26.145  0.3456  0.2961  0.0194
41546W        W84562   4.391   3.621  18.654 -0.1013  0.0493 -0.2260
41547W        W84563   0.404  15.318   7.272 -0.0280 -0.1029  0.0957
41548W        W84564   3.227  22.285  28.107  0.0433  0.1756 -0.2104
41549W        W84565  33.860  25.421  16.732 -0.0405 -0.1743  0.1386
41550W        W84566  10.781  14.455  19.260  0.2614  0.1484  0.0886
41551W        W84567  19.978  26.504  18.113  0.1897  0.2222 -0.0410
41552W        W84568  14.206  22.762  29.137 -0.1652 -0.0350 -0.0368
41553W        W84569  26.833  14.492   7.662 -0.1839  0.1585 -0.4313
41554W        W84570  24.026  30.585  26.916 -0.2239  0.1283 -0.1551
41555W        W84571   2.867  21.777  26.438  0.1432 -0.1063 -0.1329
41556W        W84572  16.995  22.752  23.949  0.1479  0.0804  0.0533
41557W        W84573  27.202  28.435   5.843 -0.0466  0.1113  0.0618
41558W        W84574  27.512  32.301  20.400  0.2789 -0.0601 -0.3115
41559W        W84575   4.922  23.572   2.204 -0.0903 -0.2144 -0.0308
41560W        W84576  26.776  21.585   1.959 -0.2235  0.1218  0.1529
41561W        W84577  30.626   7.806   5.264  0.0864 -0.1062  0.1501
41562W        W84578   4.152   7.612  16.829 -0.0254 -0.4955  0.1513
41563W        W84579  30.575   0.018  21.796 -0.5128 -0.0374 -0.1445
41564W        W84580  30.001   3.318  22.401  0.2778 -0.2437  0.0374
41565W        W84581  10.886  23.434  18.806  0.1108 -0.1440 -0.0017
41566W        W84582  33.356  21.846  28.475 -0.1501 -0.2177 -0.0921
41567W        W84583  33.412   1.463   4.984  0.0384  0.0212 -0.1921
41568W        W84584   4.236  25.959   4.791  0.3428  0.0120  0.0085
41569W        W84585   0.432  33.640   6.842  0.1257  0.0633 -0.3180
41570W        W84586  10.974  11.392  27.212  0.1916 -0.1754 -0.1734
41571W        W84587  17.067  23.236   4.611 -0.1540  0.0294  0.0577
41572W        W84588  29.659  25.725   3.078  0.1051  0.0812  0.0021
41573W        W84589  16.405  32.436  26.662  0.1800 -0.0266 -0.4193
41574W        W84590  19.522  32.439   0.891 -0.2957 -0.3080 -0.1861
41575W        W84591  20.694   5.254   0.351  0.2364  0.0653 -0.0737
41576W        W84592   7.775  23.671   1.421  0.1471 -0.2045 -0.0802
41577W        W84593   7.386  15.989  19.700 -0.2769  0.1839 -0.0006
41578W        W84594  24.530  19.515   6.826  0.2172  0.0485  0.5828
41579W        W84595   5.111  23.998  23.570 -0.0155 -0.3069 -0.1776
41580W        W84596  26.823  23.273  28.355 -0.0849  0.0788 -0.0171
41581W        W84597   5.461  32.387  29.042  0.2073 -0.2007 -0.3964
41582W        W84598   5.459  20.221   2.021 -0.1749 -0.3632  0.3092
41583W        W84599   0.728  16.965  26.565  0.2742 -0.0793 -0.1244
41584W        W84600  11.018  30.775  17.626  0.1653  0.3805 -0.1384
41585W        W84601   0.537   0.723  25.518  0.0366  0.0911 -0.1410
41586W        W84602  25.883  23.139   1.975 -0.1087  0.0115  0.1219
41587W        W84603   0.834  25.552   9.898  0.0160 -0.3552  0.0106
41588W        W84604  32.584   9.208   3.457  0.1324  0.0594  0.0965
41589W        W84605   8.738  31.949   4.166  0.1093 -0.1000  0.0222
41590W        W84606   7.798  21.486   0.772  0.0476 -0.1301 -0.0009
41591W        W84607  16.385  28.046  25.360  0.2539  0.0734  0.0500
41592W        W84608   6.591  20.813  22.398 -0.1726  0.0062  0.0605
41593W        W84609   6.335  29.982  25.283 -0.0309 -0.0195 -0.0463
41594W        W84610  11.528  31.904   5.751  0.1385  0.4376  0.0049
41595W        W84611  20.322  16.618  13.683 -0.0809  0.2850 -0.0886
41596W        W84612  11.037  33.733  18.763 -0.0644 -0.2336 -0.3091
41597W        W84613   6.053   1.254  21.334  0.0150 -0.0369 -0.1140
41598W        W84614  29.897  16.751   8.451  0.2633  0.1104  0.0435
41599W        W84615   1.013  15.190  22.544  0.3477 -0.0962  0.2578
41600W        W84616  27.417  33.865   9.639 -0.2737 -0.0300  0.1321
41601W        W84617  28.735  18.709  18.361  0.0894 -0.1017  0.0517
41602W        W84618  33.526  28.337  27.275 -0.1174  0.2151  0.0771
41603W        W84619  22.717  24.109  27.893 -0.0697  0.0801  0.2388
41604W        W84620  24.526  14.356  28.714  0.5449 -0.4743  0.0970
41605W        W84621   5.601  34.024  28.587 -0.1488 -0.0658  0.0611
41606W        W84622  33.837  23.790   6.823 -0.2243  0.0004  0.0246
41607W        W84623  22.888  25.689  16.659 -0.0377  0.0322  0.1065
41608W        W84624   5.141  18.412  20.072 -0.1840  0.0725 -0.0133
41609W        W84625  12.069  20.540  12.576 -0.1343 -0.0848  0.0089
41610W        W84626  27.678  23.866  21.685  0.0050  0.1042  0.0562
41611W        W84627  21.301   8.219  15.022  0.0845 -0.2305  0.1448
41612W        W84628  34.093   2.308   4.312  0.0087 -0.1037  0.0338
41613W        W84629  28.503   1.990  17.670 -0.0823  0.1605  0.1091
41614W        W84630  18.493  25.743  24.264 -0.1637 -0.1830  0.3498
41615W        W84631   5.990  18.864  17.042 -0.1763 -0.1388  0.0882
41616W        W84632  30.610  20.199  15.228  0.0362 -0.0256 -0.0602
41617W        W84633   7.628  11.552   2.896  0.1545 -0.0029  0.1218
41618W        W84634  12.301  24.667   3.643  0.0094  0.1167  0.3783
41619W        W84635   5.087  29.454  17.869 -0.0752 -0.0944 -0.1392
41620W        W84636  30.892  14.832   0.684 -0.0985  0.1644  0.0270
41621W        W84637  21.040  14.609  20.845  0.2236 -0.2119 -0.2761
41622W        W84638  26.590  21.907   8.036  0.0118 -0.2678 -0.0325
41623W        W84639  29.181  18.574   0.411 -0.3547  0.0783 -0.1004
41624W        W84640   7.050  24.306   6.897  0.1014  0.3343  0.2362
41625W        W84641   1.230  25.372  27.212  0.2971 -0.1399  0.1296
41626W        W84642  29.658  31.269  27.092  0.2495 -0.0761 -0.1179
41627W        W84643   3.397  30.744  26.385 -0.0138  0.0136  0.0362
41628W        W84644  13.301  13.559  28.931  0.0082 -0.1518  0.0387
41629W        W84645  26.081  32.386  11.888 -0.0502 -0.0296 -0.1354
41630W        W84646  28.647   7.247  18.062 -0.0709 -0.2092 -0.0530
41631W        W84647  17.912  17.638  15.859  0.2094 -0.0021  0.0127
41632W        W84648  20.512  25.899   4.522 -0.2354 -0.0815  0.0423
41633W        W84649  11.064  21.364  29.040  0.1112 -0.0696 -0.3442
41634W        W84650  29.379  18.688   9.415  0.2179  0.0336  0.2060
41635W        W84651  30.686   5.260   3.248 -0.2386 -0.0272 -0.1311
41636W        W84652   3.744   5.877   0.169 -0.0241  0.0721 -0.3051
41637W        W84653   3.667  23.833   5.826  0.0532  0.1831  0.0339
41638W        W84654  23.195  19.683  25.973 -0.1096  0.3920  0.0670
41639W        W84655  24.551  10.576   1.316 -0.1387  0.1262 -0.0634
41640W        W84656   2.565  15.931  13.573 -0.3487 -0.1553  0.1760
41641W        W84657   9.385  18.368   0.466 -0.1665  0.1831 -0.1930
41642W        W84658  15.951  31.106   3.433  0.1184 -0.0298 -0.0598
41643W        W84659  22.880   2.207  24.908 -0.2670  0.1119  0.1408
41644W        W84660  24.403  20.803   6.707 -0.0488 -0.0015 -0.0508
41645W        W84661  30.367   0.378   4.674  0.0681 -0.1521  0.1969
41646W        W84662   3.521  13.744  23.713  0.2235  0.2438  0.0999
41647W        W84663  23.815  16.499  23.816 -0.0708  0.1429 -0.1407
41648W        W84664  34.416   2.972  24.745 -0.3946 -0.2060 -0.1466
41649W        W84665  32.183  16.701  26.618  0.0202 -0.4061 -0.0397
41650W        W84666   8.330  15.560  22.407 -0.1873 -0.2950 -0.0506
41651W        W84667   1.420  24.869  24.803 -0.1678  0.0202  0.1203
41652W        W84668  18.700  34.548  19.687  0.0028  0.0836  0.1221
41653W        W84669  22.162  33.473  23.485 -0.1720 -0.2008 -0.1336
41654W        W84670  32.363  23.902   5.289 -0.0384  0.0580 -0.1665
41655W        W84671  23.919  33.274  11.077  0.1003 -0.0931  0.0787
41656W        W84672  29.687  16.705  19.499  0.3300  0.1065  0.1067
41657W        W84673  12.868  22.594  18.284 -0.3190 -0.0153  0.0031
41658W        W84674  19.433  12.886  29.150  0.1957  0.2313 -0.1301
41659W        W84675   7.622  32.811  15.753  0.2990  0.0699  0.0650
41660W        W84676  31.939  13.851  14.821  0.0481  0.1057  0.1532
41661W        W84677  34.275  20.410  15.905 -0.1173  0.0720  0.0195
41662W        W84678  21.028  27.532  15.474 -0.3013 -0.1426 -0.1636
41663W        W84679  23.422   8.147  28.691  0.1505  0.1836 -0.1255
41664W        W84680  24.486  18.943   0.670  0.2847  0.1567 -0.0791
41665W        W84681  32.491  11.447   8.110  0.0462 -0.1274  0.1484
41666W        W84682  30.796   8.385  27.326  0.0649 -0.0306  0.3987
41667W        W84683   6.872  16.657  23.899  0.2655  0.1008  0.0551
41668W        W84684  28.720  23.641   1.094 -0.1576  0.3638  0.2219
41669W        W84685  20.111  16.748   8.345  0.1559 -0.0982 -0.2730
41670W        W84686  32.117  20.357  17.573 -0.0069  0.0872  0.3418
41671W        W84687  29.257  25.143   7.974  0.2089  0.1184  0.0009
41672W        W84688  17.690  16.591  21.905  0.0014 -0.4367 -0.1668
41673W        W84689   4.995  29.482   8.487  0.3784  0.0123  0.0036
41674W        W84690   1.337  21.545  24.094 -0.1927 -0.3084 -0.1401
41675W        W84691  18.823   9.538  19.529 -0.0318  0.2406  0.1567
41676W        W84692  33.486  16.632  20.249  0.0797 -0.0603  0.0524
41677W        W84693  24.331  29.685   5.517 -0.3104  0.1607 -0.1558
41678W        W84694  22.195  12.371   7.436  0.0077 -0.1257 -0.1954
41679W        W84695  33.531  11.797   5.453  0.1275 -0.0245 -0.1584
41680W        W84696  25.783  33.574  26.190  0.2627  0.3063  0.1671
41681W        W84697  28.586  18.637  20.540 -0.0235  0.2175  0.2245
41682W        W84698  33.240  29.496   5.179 -0.0216  0.1194  0.0898
41683W        W84699  31.543  30.005   4.444  0.2017 -0.0104 -0.2184
41684W        W84700  29.579  14.169  20.759  0.2223 -0.1674  0.0638
41685W        W84701   5.709  20.550  18.468 -0.0090 -0.0525 -0.2107
41686W        W84702  12.928  17.714   7.961 -0.2435 -0.1203 -0.0710
41687W        W84703  18.782  33.803   7.436  0.2523 -0.0617 -0.1909
41688W        W84704  25.453  30.944  17.854 -0.0183 -0.3740  0.1327
41689W        W84705   7.347  29.242  24.011 -0.1054 -0.2902  0.0795
41690W        W84706   1.807  17.271   0.666 -0.1066  0.0283 -0.1413
41691W        W84707  17.674   6.389  20.781  0.0829  0.1362  0.0357
41692W        W84708   1.133  15.677   7.388  0.0496 -0.2748 -0.0532
41693W        W84709  24.372   2.531  28.319  0.0273  0.1646 -0.1304
41694W        W84710  27.492  30.482   8.998  0.0009 -0.5793 -0.1003
41695W        W84711  28.546  20.463   9.516  0.2858 -0.0314 -0.2294
41696W        W84712  24.585  18.305  27.912  0.0029  0.0018  0.3465
41697W        W84713   0.454  34.414  19.151 -0.3527 -0.0541  0.1004
41698W        W84714   4.674  27.387  19.586 -0.0244 -0.1539  0.1847
41699W        W84715   8.998  12.714  21.060  0.2874 -0.0302  0.3671
41700W        W84716  15.244  10.155   1.116  0.0012 -0.0401  0.1624
41701W        W84717  19.973  17.817   1.624  0.1533 -0.2640 -0.3405
41702W        W84718  16.794  24.110   1.009  0.0560 -0.1251  0.0772
41703W        W84719  10.208  13.931   4.415 -0.1336  0.0989  0.1525
41704W        W84720   4.642  16.737  28.528  0.3471  0.3261 -0.3585
41705W        W84721   7.661   9.430   4.729 -0.0271 -0.1386 -0.2480
41706W        W84722   4.006   6.720  24.523  0.3077 -0.1625 -0.0087
41707W        W84723  33.247  27.253   0.048 -0.0300  0.3047  0.0554
41708W        W84724  10.088  22.457   5.270 -0.2569  0.1130 -0.0546
41709W        W84725  19.081  13.139   1.667 -0.0773 -0.1257 -0.0485
41710W        W84726  25.103   5.244   1.145 -0.1468  0.1588  0.3280
41711W        W84727   5.180  24.101  15.792 -0.0893 -0.0332  0.0401
41712W        W84728   5.514  34.710  20.130 -0.1298  0.0028  0.3228
41713W        W84729   8.368  22.363  24.820  0.3367  0.1288  0.0630
41714W        W84730  28.585  23.863  17.067 -0.3772  0.0013  0.1927
41715W        W84731  21.242  18.670  15.781 -0.0938  0.1102 -0.0610
41716W        W84732  29.372   2.817  16.351  0.2126 -0.1521 -0.0331
41717W        W84733  31.233  20.751   0.103 -0.1503 -0.1557 -0.2368
41718W        W84734  13.624  31.645   3.769  0.2208 -0.2274 -0.0856
41719W        W84735  13.865   3.915  14.787 -0.3358  0.0319 -0.0854
41720W        W84736  29.532  26.769  19.579 -0.0785 -0.2657 -0.1096
41721W        W84737   2.377  18.756   1.022 -0.1678 -0.0842  0.0316
41722W        W84738  32.979  26.333  24.845 -0.1251  0.3137  0.3990
41723W        W84739   8.332   7.051   0.757  0.1332  0.0121 -0.1556
41724W        W84740  31.795  31.890  21.800  0.4799  0.1734  0.0411
41725W        W84741  19.512  33.199   9.306  0.0545  0.2553  0.1070
41726W        W84742  29.268  18.990  19.557 -0.0234 -0.2185 -0.0500
41727W        W84743  33.722   3.253   8.059  0.0647  0.0105  0.2179
41728W        W84744  33.737   7.345   8.156 -0.3232  0.0426 -0.0444
41729W        W84745  22.668   7.798  16.688 -0.5477  0.0691  0.0183
41730W        W84746  26.820  18.159  19.617 -0.0546 -0.0010  0.3548
41731W        W84747  22.092  32.110   9.293  0.2744 -0.1014 -0.3294
41732W        W84748  10.007  18.585  27.152  0.4295  0.1410  0.1295
41733W        W84749  10.929  10.880   3.379 -0.0905  0.1374 -0.2376
41734W        W84750  27.935  25.433  22.919 -0.0052  0.1812  0.0603
41735W        W84751  21.408   9.607   7.959 -0.1608 -0.1346  0.1305
41736W        W84752  23.353  18.186   0.784 -0.1430  0.0987  0.0140
41737W        W84753  10.012  16.261   1.431 -0.2895 -0.2119 -0.1710
41738W        W84754  32.614  16.782  19.772 -0.2164 -0.1899  0.1082
41739W        W84755   9.256  26.047  17.193 -0.0525  0.3386  0.0895
41740W        W84756  24.197  22.725   5.205  0.3611  0.2432 -0.0852
41741W        W84757  21.828  10.352   6.259  0.1455 -0.1377 -0.0796
41742W        W84758  26.764  17.738  19.882 -0.2341 -0.0246  0.1115
41743W        W84759  32.212  22.676  25.706  0.1064  0.4112  0.2947
41744W        W84760  10.454   6.582  13.967 -0.0739 -0.1329 -0.2158
41745W        W84761  17.808  18.670  27.546 -0.2935  0.2904  0.2399
41746W        W84762  27.179  27.069   5.417 -0.0836  0.3219 -0.0345
41747W        W84763  11.264  24.976  17.030 -0.3371  0.1960  0.1095
41748W        W84764  30.867  28.471   5.597 -0.2605 -0.0375 -0.4559
41749W        W84765  27.662   0.905  17.959  0.0939  0.0367  0.2259
41750W        W84766  11.091  15.024  25.381  0.0541  0.0611 -0.3740
41751W        W84767   7.440  20.380  22.198 -0.2546 -0.0163  0.0994
41752W        W84768  24.246  26.527  19.742 -0.0435 -0.0021  0.0876
41753W        W84769  33.530  24.359  19.978 -0.1282 -0.2459  0.0088
41754W        W84770   9.476   2.736  19.103 -0.1867  0.0685 -0.3355
41755W        W84771  21.796  12.685  21.486  0.0084  0.0516  0.1153
41756W        W84772  26.082  17.223   6.921  0.1665 -0.1322 -0.0502
41757W        W84773  18.617  32.467  20.439 -0.1560  0.0115 -0.3230
41758W        W84774  28.568  15.514  15.260 -0.0682  0.0110 -0.1082
41759W        W84775   9.413   3.387  29.318  0.0631  0.1074  0.1078
41760W        W84776  32.596  18.841   5.460  0.4788 -0.0187  0.2917
41761W        W84777  23.942  24.918  23.055 -0.2272 -0.0931  0.1561
41762W        W84778   2.252  19.324   8.771  0.1533  0.1232 -0.1125
41763W        W84779   1.587  32.729   8.538 -0.0372 -0.3236  0.1441
41764W        W84780   4.547  16.702  26.244  0.0498  0.1341 -0.1637
41765W        W84781  34.122   1.473  14.069 -0.2170 -0.1228 -0.0010
41766W        W84782  31.282  33.020  27.895  0.3479 -0.3418 -0.0405
41767W        W84783  30.250  22.241  19.789  0.1184  0.2207  0.2812
41768W        W84784  26.098   2.101  21.191 -0.0893  0.1393 -0.1213
41769W        W84785  32.129  11.147  22.859  0.0442  0.1598 -0.3952
41770W        W84786  17.095  27.640  20.525 -0.4210 -0.3301  0.1184
41771W        W84787  31.780  24.012  27.019 -0.1517  0.0434 -0.1623
41772W        W84788   3.516  23.971  25.388  0.0345 -0.1421  0.0135
41773W        W84789  29.146   3.719  22.890  0.0849  0.1171 -0.1204
41774W        W84790  17.661  14.962  24.278 -0.0383 -0.1186 -0.0192
41775W        W84791   3.733   2.730  20.903  0.0878  0.1710 -0.0601
41776W        W84792  11.578  19.410  18.815 -0.0229 -0.0898  0.2299
41777W        W84793  30.334   1.271  25.975  0.0777 -0.0293  0.3346
41778W        W84794  17.303  19.799  25.720 -0.2725  0.1925  0.1890
41779W        W84795   2.055   2.919  24.712 -0.1882 -0.0767  0.2326
41780W        W84796  29.680  24.456  25.727  0.1017 -0.0016 -0.1568
41781W        W84797   0.133  25.754   0.975  0.1096 -0.2682  0.2137
41782W        W84798  23.294  28.419   9.478 -0.3042 -0.0828  0.0569
41783W        W84799   9.217  10.741  27.040  0.0767 -0.2426  0.0280
41784W        W84800   5.550  12.077  21.629  0.1259  0.4028 -0.0055
41785W        W84801   1.952   1.408  27.076 -0.0513 -0.1480  0.0670
41786W        W84802  27.979  13.434  20.796  0.2698  0.3865  0.0058
41787W        W84803  19.550  23.090  22.192 -0.0572  0.0022  0.2054
41788W        W84804  33.597  11.101   8.774  0.0987  0.0880  0.0620
41789W        W84805   0.899  20.112  17.922 -0.0592  0.0072 -0.5040
41790W        W84806   7.102  22.270   0.282 -0.0916  0.2289 -0.0254
41791W        W84807  23.540  13.385  21.262 -0.0419 -0.1146  0.2557
41792W        W84808  31.960  28.995  28.464 -0.0178  0.1458  0.0747
41793W        W84809  31.664  23.634  28.910 -0.1677  0.0832  0.3832
41794W        W84810   6.364   2.028  29.076  0.2374 -0.0371  0.0112
41795W        W84811  29.565  12.186  28.743  0.1828 -0.1689 -0.2777
41796W        W84812  31.353  20.283   6.885  0.1822  0.0656  0.0118
41797W        W84813  28.073  22.572  28.812 -0.0276 -0.0908  0.3142
41798W        W84814  10.442   7.773   3.873 -0.0743  0.1577  0.0502
41799W        W84815   1.237  16.671   7.498  0.1726 -0.0344 -0.3352
41800W        W84816  33.049  25.757  20.931 -0.1980 -0.0914  0.2133
41801W        W84817  26.544  29.162  17.389  0.0937 -0.2262 -0.0337
41802W        W84818  21.679  13.419   1.853  0.0343  0.1792 -0.1843
41803W        W84819  20.955  23.844  17.420 -0.2077  0.1447 -0.4017
41804W        W84820  27.400  22.952  15.771 -0.1233  0.1506 -0.0398
41805W        W84821   1.852   2.488   1.273 -0.0373 -0.2645 -0.2146
41806W        W84822  21.168  25.279  15.135 -0.1061  0.1986 -0.0752
41807W        W84823  34.079  14.809  29.298  0.1257 -0.2648  0.1846
41808W        W84824  26.222  25.367  26.767 -0.2115  0.0842  0.1812
41809W        W84825   7.785  20.662  21.369 -0.3819  0.2485  0.1463
41810W        W84826  25.295  30.861  21.401 -0.0265  0.0606  0.2123
41811W        W84827   5.255  25.546   9.814  0.0515 -0.3220 -0.0798
41812W        W84828  11.777   2.103  28.100 -0.3574  0.2506  0.0336
41813W        W84829  13.389  11.922  14.171 -0.1305 -0.2872  0.0343
41814W        W84830  31.911   1.670  20.164  0.1567 -0.2289  0.1459
41815W        W84831  24.198  31.831  22.704 -0.2414  0.1688  0.1470
41816W        W84832  33.581  25.782  18.361  0.0497  0.0946 -0.0768
41817W        W84833  26.055  32.820  10.660  0.2056 -0.1081  0.3656
41818W        W84834  18.109  12.959  26.167 -0.0998 -0.2555 -0.1125
41819W        W84835  28.223  18.739  18.087 -0.3729 -0.3891  0.0441
41820W        W84836   2.206  31.010   3.342  0.1637 -0.1117 -0.1110
41821W        W84837   6.393  26.364  20.216  0.2343 -0.0143 -0.3190
41822W        W84838  26.670  30.052  20.823 -0.1120 -0.1985  0.0003
41823W        W84839  25.868   2.302  10.421 -0.0168 -0.0003  0.2621
41824W        W84840  18.339   9.274  21.424 -0.0287  0.0477  0.1119
41825W        W84841  20.527   7.969   8.210 -0.1110 -0.0648  0.2151
41826W        W84842  10.336   2.612   6.488 -0.0251  0.3243  0.5258
41827W        W84843  33.807   2.061  25.624 -0.0223 -0.1631  0.0435
41828W        W84844  26.189  30.761  21.819 -0.0752  0.1173  0.2784
41829W        W84845  27.445  21.419  28.780 -0.1815  0.0300 -0.3455
41830W        W84846  32.497  16.750  24.362  0.3416  0.1480  0.3059
41831W        W84847  27.625  11.097  16.663  0.0709 -0.1835 -0.0022
41832W        W84848  27.649  25.994   2.167 -0.0800 -0.2448 -0.1789
41833W        W84849  22.302  29.944   7.452 -0.4025 -0.0779 -0.0055
41834W        W84850  25.065  31.333   7.973  0.0085 -0.1212 -0.0636
41835W        W84851  33.219   8.682  25.933 -0.3225  0.1073 -0.0876
41836W        W84852  12.168  26.900  25.292  0.3003 -0.6883 -0.2419
41837W        W84853  28.551  14.747   8.724  0.1216 -0.1443  0.2302
41838W        W84854  23.413  32.638  26.669  0.2120  0.0221  0.2626
41839W        W84855  15.195  15.317  29.021 -0.2108 -0.2654 -0.0055
41840W        W84856  30.303  27.209  17.430 -0.0889  0.0868 -0.1639
41841W        W84857  29.904  16.897  16.086 -0.1317 -0.0934 -0.0478
41842W        W84858  30.986  23.625  19.993  0.1895 -0.3911 -0.1932
41843W        W84859   6.979   3.384   2.107 -0.3781  0.1639 -0.1903
41844W        W84860  28.637   2.315   6.178 -0.3680 -0.1399  0.0918
41845W        W84861  20.404  30.749   9.825  0.0787  0.1411 -0.2673
41846W        W84862  24.286  29.890   0.716  0.2183  0.1098 -0.4177
41847W        W84863  29.080  17.750   0.802 -0.1528  0.2950  0.1960
41848W        W84864  25.304  20.645  27.659  0.2580  0.1242  0.4212
41849W        W84865  30.472  26.073  26.795  0.3448  0.0252 -0.0359
41850W        W84866  29.733  21.204  10.779  0.0004 -0.0871 -0.2057
41851W        W84867   2.267  11.758   7.756  0.1891 -0.3182  0.1389
41852W        W84868  31.544  14.613  19.852  0.3354 -0.1024  0.1302
41853W        W84869  28.773  33.796   1.142  0.0969 -0.2358  0.0350
41854W        W84870   1.125  24.604   7.523  0.0905  0.2626 -0.1356
41855W        W84871   3.185  32.304   4.206  0.0397  0.0186  0.0851
41856W        W84872  10.214  19.819   1.504 -0.0569  0.3146  0.0897
41857W        W84873  29.724  22.229  26.109  0.2310 -0.3904 -0.1692
41858W        W84874  34.246  28.413  21.210 -0.3420  0.1535 -0.3339
41859W        W84875  23.839  29.118   6.466 -0.1906  0.0027 -0.3658
41860W        W84876  28.096  22.446  19.636  0.2362 -0.0136  0.3044
41861W        W84877  33.034  15.475   0.583 -0.1831 -0.0145  0.0139
41862W        W84878   7.751   1.802  15.475  0.2119 -0.0073 -0.1510
41863W        W84879  23.961   6.871   6.271 -0.1125  0.2327  0.4322
41864W        W84880   3.594  28.339   3.640 -0.0068 -0.2829  0.0836
41865W        W84881  30.352  26.362  29.188 -0.0446  0.1820 -0.0716
41866W        W84882  17.771  15.555  16.708  0.0290 -0.1220 -0.0147
41867W        W84883   8.131  12.910  21.869 -0.1569  0.1128 -0.0930
41868W        W84884  20.971  27.422   5.424  0.2059 -0.0571  0.6517
41869W        W84885   6.934  34.665  10.450 -0.0163 -0.1922  0.1417
41870W        W84886   2.765   9.799   7.968 -0.1205  0.1695 -0.1329
41871W        W84887  34.429  16.375   1.047 -0.0329  0.0359 -0.1691
41872W        W84888  12.380  34.237  27.238 -0.2767 -0.0837  0.2833
41873W        W84889  21.597   5.921  27.662 -0.1465  0.1106  0.1187
41874W        W84890   6.285   5.042   1.523 -0.0592 -0.0462 -0.1016
41875W        W84891  21.409  28.494  21.067  0.1054 -0.2588 -0.1132
41876W        W84892   6.291   2.267  19.330 -0.1567 -0.0116  0.1742
41877W        W84893  31.612  24.102   7.346 -0.1300 -0.2323  0.3636
41878W        W84894  14.275  15.484   5.870  0.0056 -0.1670 -0.0497
41879W        W84895  32.107  24.882   6.047  0.0354 -0.6756  0.1906
41880W        W84896  14.018  31.899  28.203  0.3444  0.2188  0.1074
41881W        W84897  13.953  27.914   3.741 -0.2446 -0.0579  0.0359
41882W        W84898  34.534   9.062   3.682  0.3134 -0.0075 -0.2075
41883W        W84899  29.711  17.041  26.883 -0.1641 -0.3476  0.0404
41884W        W84900  27.468  18.003   6.955  0.0758  0.1116 -0.1884
41885W        W84901   0.914   0.890  16.957  0.3154 -0.1502  0.0514
41886W        W84902  32.476  24.415  29.271 -0.0333 -0.0886  0.2568
41887W        W84903  30.816  19.541  26.727  0.1447 -0.3204 -0.1088
41888W        W84904  34.091  17.285  22.881  0.2682  0.0809  0.2376
41889W        W84905  26.626  24.550  25.718  0.0248  0.5389  0.3326
41890W        W84906   3.234  17.744   8.273 -0.0509 -0.1438  0.0527
41891W        W84907  22.662  20.836  23.223 -0.0685 -0.2352 -0.2416
41892W        W84908  34.038  12.766  14.402 -0.0679  0.2185  0.0519
41893W        W84909   2.815  17.363   4.908 -0.2026  0.3329  0.1362
41894W        W84910  24.922  27.545   9.125 -0.3294 -0.1054  0.0189
41895W        W84911  34.522  21.298  16.032 -0.2096 -0.0092  0.1108
41896W        W84912   0.920  24.038  17.939  0.0096  0.0654 -0.3515
41897W        W84913  10.734  24.892  20.398 -0.1564  0.3341  0.0421
41898W        W84914  33.359  31.218  23.653 -0.2387  0.0170 -0.1408
41899W        W84915   0.773  27.923  23.851  0.1782  0.0858 -0.4708
41900W        W84916  21.627  21.958  15.152 -0.0513 -0.0442 -0.1226
41901W        W84917  30.978  33.626  15.939  0.0744 -0.1864  0.0650
41902W        W84918  16.651   0.295   1.445 -0.1370 -0.2841 -0.2149
41903W        W84919   7.949   6.319  22.420 -0.0866 -0.0834  0.1437
41904W        W84920  18.996  34.191  22.069  0.0576 -0.0569 -0.0850
41905W        W84921  28.553  34.026  21.579  0.1059  0.1507 -0.0289
41906W        W84922   3.321  13.168  17.821  0.0066  0.3729 -0.0004
41907W        W84923  32.156  32.842  16.668  0.0585  0.0938  0.0034
41908W        W84924   9.562  28.048  24.606 -0.0813  0.1920  0.0941
41909W        W84925  14.783  16.392   2.722 -0.0418  0.1642  0.1212
41910W        W84926  33.112  28.841  18.187 -0.1917  0.2103  0.1114
41911W        W84927  24.154  21.014  26.744 -0.1877 -0.4389  0.1879
41912W        W84928  25.343  19.304  20.837 -0.1408 -0.1865 -0.4567
41913W        W84929   2.544   9.745  20.392 -0.0810 -0.3819  0.3083
41914W        W84930  19.275  20.449  12.741 -0.1521 -0.0503 -0.0052
41915W        W84931  11.320  24.270  13.888 -0.4182  0.3577  0.1994
41916W        W84932   6.415  27.514  22.387 -0.2080 -0.1274  0.2324
41917W        W84933   9.921  26.146  18.472  0.1132  0.1808  0.0853
41918W        W84934   0.692  17.775  19.808 -0.1469 -0.0167  0.1230
41919W        W84935  27.747  24.699  29.032 -0.3089  0.1897 -0.0898
41920W        W84936  21.482  29.985  16.782  0.0738  0.1859 -0.3516
41921W        W84937  31.223  29.832  18.964  0.2921  0.0611  0.1355
41922W        W84938  32.606  21.906  21.809 -0.2687 -0.1566  0.0008
41923W        W84939   4.835  26.709  21.161  0.0558 -0.1742 -0.0932
41924W        W84940  23.741  33.819  23.636  0.0858 -0.1924  0.0948
41925W        W84941  27.660   6.435  25.724 -0.0745  0.1190  0.4087
41926W        W84942   1.621  27.291  25.856  0.2735 -0.0875  0.2140
41927W        W84943  33.794  34.092  18.954  0.0290 -0.0939 -0.0650
41928W        W84944  12.880  14.743  23.931  0.0152  0.0848 -0.1337
41929W        W84945  24.022  30.672  25.099 -0.2562  0.3638 -0.1357
41930W        W84946  30.934  33.386  24.410 -0.2125 -0.0314 -0.1579
41931W        W84947  27.343   2.543  22.873 -0.0020  0.0456 -0.2684
41932W        W84948   6.473   6.956  22.111  0.1425  0.1217  0.2337
41933W        W84949  13.235  31.216   0.206 -0.3530  0.1897 -0.1111
41934W        W84950   7.046  24.346  22.083  0.1482 -0.2061 -0.0898
41935W        W84951  34.296  23.509  15.181  0.0276  0.0425 -0.0737
41936W        W84952  10.396  20.576  25.470 -0.2732  0.0745 -0.1659
41937W        W84953   8.128  25.866  18.265  0.0619  0.1743 -0.2627
41938W        W84954   0.150  26.132  18.578  0.1391 -0.0445 -0.0630
41939W        W84955   1.817  18.808  14.077  0.3558  0.0229 -0.2791
41940W        W84956   1.970  29.408  23.702  0.1142 -0.0208 -0.2483
41941W        W84957  23.998  26.722  16.893 -0.2412 -0.2882  0.0085
41942W        W84958  10.563  24.867  25.148 -0.0554 -0.2981 -0.1153
41943W        W84959  32.360   3.188   0.504 -0.1297  0.3644 -0.0759
41944W        W84960   8.171  22.111  18.217 -0.0253 -0.0368 -0.0976
41945W        W84961   1.039  28.357  23.086 -0.0939  0.2382  0.2202
41946W        W84962   0.765  23.318  20.726 -0.2179  0.2615 -0.2435
41947W        W84963  23.618   2.011  26.929  0.2653 -0.2125 -0.3520
41948W        W84964   7.061  29.584  20.132 -0.1416 -0.0807 -0.1642
41949W        W84965  21.663  29.849  20.913 -0.2368  0.3636  0.0778
41950W        W84966  29.190   6.421  29.112 -0.1436 -0.0111 -0.0151
41951W        W84967  31.794  19.715  15.456  0.0305 -0.0270  0.1955
41952W        W84968  28.238  24.877  15.043  0.2379  0.2313 -0.2616
41953W        W84969  28.219  10.591  16.451  0.2493  0.0259 -0.2438
41954W        W84970  24.882  28.858   5.798  0.0596 -0.5544 -0.0936
41955W        W84971  33.336  24.298  20.806  0.1886  0.1279 -0.0428
41956W        W84972  21.863   1.836  21.590 -0.0759 -0.1289 -0.1270
41957W        W84973  22.614  28.759  26.345  0.1249 -0.1052  0.3584
41958W        W84974  29.528  28.462  21.036  0.1258 -0.1314  0.0718
41959W        W84975  27.227   7.733  17.294  0.1572  0.1330 -0.1079
41960W        W84976  15.506  25.983  23.352  0.0701 -0.1376 -0.2651
41961W        W84977  30.064  16.772  15.604 -0.0745 -0.1368 -0.0338
41962W        W84978   1.553  34.453   2.233  0.1630 -0.2943 -0.1166
41963W        W84979   0.965  24.622   1.257  0.1566  0.2240  0.0663
41964W        W84980   4.067  11.300  26.588 -0.0324 -0.2369  0.0469
41965W        W84981  32.620  27.917  20.695  0.1311  0.3526 -0.2889
41966W        W84982  28.297  31.495  22.602 -0.3085  0.0504 -0.0908
41967W        W84983  26.377  24.781  21.986  0.0981 -0.0731  0.0030
41968W        W84984  32.361  26.992  16.334  0.1432 -0.0869 -0.1229
41969W        W84985   0.723  21.681  15.103  0.2400  0.0156 -0.0596
41970W        W84986  32.918  26.822  18.611 -0.2154 -0.0141 -0.0724
41971W        W84987  32.488  32.055  21.004  0.0407 -0.2381  0.1109
41972W        W84988  23.028   6.415  24.012 -0.0952 -0.0106  0.0783
41973W        W84989  25.041  18.459   4.797  0.0591  0.0166 -0.2706
41974W        W84990   9.383  29.824   1.404  0.0237 -0.3260  0.0249
41975W        W84991  32.145  24.699  22.415 -0.3608  0.0110 -0.2658
41976W        W84992  26.050  22.519  10.959  0.1662  0.1460 -0.0084
41977W        W84993   4.499   3.116  15.154  0.2734  0.1123  0.0049
41978W        W84994   2.718  24.146  21.167 -0.2117 -0.3704  0.1738
41979W        W84995   7.620  26.155  21.433  0.1524 -0.0015  0.0646
41980W        W84996  31.918   8.123  24.679  0.0679  0.0561 -0.2095
41981W        W84997  11.749  17.610  20.338 -0.0534 -0.2087  0.1359
41982W        W84998   3.458  27.306  19.159 -0.2217 -0.2031 -0.1022
41983W        W84999  24.281   4.842  20.004 -0.1712  0.0353 -0.0410
41984W        W85000  20.784  12.809  16.511  0.0305  0.1363 -0.1822
41985W        W85001  33.247  23.965   1.820 -0.1238 -0.1740 -0.0610
41986W        W85002  15.414   4.258  22.641  0.0863  0.2611  0.2983
41987W        W85003  31.780  22.048  15.486  0.0825  0.0475 -0.2851
41988W        W85004  25.270  34.095   0.365 -0.1698  0.0060  0.0687
41989W        W85005  20.163  22.173   4.029  0.2840 -0.1679  0.2631
41990W        W85006  32.223  32.668  25.192  0.0638  0.0330 -0.1495
41991W        W85007   4.504  31.048  28.144 -0.1701 -0.0087 -0.1938
41992W        W85008   8.946  26.212  23.534  0.0575  0.0451  0.1269
41993W        W85009  18.465  33.098  19.397 -0.1162  0.1405 -0.0720
41994W        W85010  26.655  31.823  19.381  0.2046 -0.2100  0.2293
41995W        W85011  30.686   6.444  22.134  0.2435 -0.0150 -0.0393
41996W        W85012  26.167  28.128  18.733  0.2515  0.0300  0.1410
41997W        W85013  21.295   2.748   1.723  0.0613 -0.0389  0.1206
41998W        W85014  24.529   9.906  20.037  0.0477 -0.1611  0.1528
41999W        W85015  33.499  24.063  19.064  0.0160  0.3739 -0.1297
42000W        W85016  27.715  28.080  26.732  0.0174  0.1949  0.2431
42001W        W85017  19.673  21.297  26.920  0.2442 -0.0720 -0.1468
42002W        W85018   2.521   6.187  22.495  0.0202 -0.0469 -0.0912
42003W        W85019   4.770  13.914  21.071 -0.1413  0.2406  0.0260
42004W        W85020   9.089  24.189  15.511  0.0406 -0.1327 -0.1700
42005W        W85021  20.474  32.902  15.275  0.1445 -0.3061 -0.1194
42006W        W85022  22.637  26.592  26.579 -0.2619 -0.0098 -0.0728
42007W        W85023  32.720  13.627  26.683  0.0128 -0.1219  0.1809
42008W        W85024  33.786  26.959  22.928  0.1569  0.0839  0.3069
42009W        W85025   0.875  30.101  27.159 -0.0865 -0.1336  0.0259
42010W        W85026  14.790  15.111  13.221 -0.0788  0.3602  0.4421
42011W        W85027  30.037  26.887   0.632  0.0286  0.2484 -0.3888
42012W        W85028   5.371  17.981  20.739 -0.1676 -0.1764 -0.2281
42013W        W85029  23.382  21.596  19.218 -0.0780  0.1379 -0.5674
42014W        W85030  29.879   1.287  17.384  0.0763 -0.1737  0.2062
42015W        W85031  33.262  25.796  28.219  0.1366  0.2525  0.0178
42016W        W85032   8.260  25.732   5.905 -0.0342  0.1849 -0.1632
42017W        W85033  32.889  28.095  16.418 -0.2290 -0.2885 -0.0945
42018W        W85034   3.734  32.917  24.895 -0.3078  0.1493  0.3295
42019W        W85035  29.965   2.625  20.763  0.1470  0.1762  0.3017
42020W        W85036  34.225  23.791  21.973  0.0051 -0.1467 -0.2214
42021W        W85037  27.678   9.995   2.432 -0.1849 -0.1260  0.0793
42022W        W85038   3.778  30.933   3.957 -0.0997  0.0789  0.0070
42023W        W85039  33.703  14.486  26.622 -0.0679 -0.2590  0.2014
42024W        W85040  25.544   2.365  19.514  0.0819 -0.1971 -0.0404
42025W        W85041  19.212  26.875  18.246 -0.2031 -0.0854  0.3748
42026W        W85042  28.815  22.831  18.301  0.1824  0.2337  0.0637
42027W        W85043   1.795  27.150  15.878 -0.3202  0.1600  0.1193
42028W        W85044   5.955   0.488  19.788 -0.0618  0.2735  0.0664
42029W        W85045  18.931  32.645  15.774  0.0483  0.0442 -0.1738
42030W        W85046  31.388   2.805  26.157  0.2695 -0.0136 -0.1844
42031W        W85047  29.435   0.928  16.994 -0.1843  0.0488  0.0400
42032W        W85048   8.457  11.034  14.045  0.1542 -0.2024 -0.3046
42033W        W85049   7.341   0.980  23.062  0.0484  0.2737  0.1503
42034W        W85050  30.702  29.313  16.065 -0.2788 -0.2888  0.0495
42035W        W85051  17.856  32.688   1.660 -0.1169  0.0999 -0.1611
42036W        W85052  23.404  33.172  28.560 -0.2429  0.0983  0.1005
42037W        W85053  19.397   1.989  25.186 -0.2314  0.0552 -0.1222
42038W        W85054  28.148  19.015  25.383  0.2242 -0.0860 -0.3468
42039W        W85055  31.792  14.645  28.375 -0.0594  0.0218 -0.0715
42040W        W85056  20.674  21.780   3.156 -0.0090  0.0454 -0.2193
42041W        W85057  29.139   2.421  17.326  0.0863 -0.0929 -0.1068
42042W        W85058  18.496   6.127  15.341 -0.0437  0.0023  0.3562
42043W        W85059   1.150  23.564  21.906 -0.2950  0.0208  0.1533
42044W        W85060  26.103  17.885  19.252 -0.0066  0.0503  0.2538
42045W        W85061  32.970  12.872  23.410 -0.2483 -0.2467 -0.0187
42046W        W85062   3.415  30.425  29.263 -0.0367 -0.0546  0.5902
42047W        W85063  31.841   6.480  16.256 -0.0451 -0.2395 -0.5924
42048W        W85064  32.880  31.273  17.359 -0.0380 -0.0111  0.1026
42049W        W85065  33.956  22.277  23.898 -0.0069 -0.2431 -0.3011
42050W        W85066  18.817  25.970  23.902 -0.1070  0.1131 -0.1329
42051W        W85067  15.687  17.403  11.634  0.0745  0.2624  0.2163
42052W        W85068  26.809  30.313  22.611  0.2925  0.0992 -0.1174
42053W        W85069  22.758  27.288  17.249  0.1039 -0.0711 -0.0543
42054W        W85070   6.399   9.507  22.810 -0.2121 -0.0376 -0.1206
42055W        W85071  34.527  32.239   6.358 -0.2055 -0.2927 -0.2026
42056W        W85072  26.456  28.695  22.638  0.0178  0.2480  0.0960
42057W        W85073   9.265  30.166  23.136  0.0452  0.1257 -0.0066
42058W        W85074  33.859  17.040  17.398  0.3419  0.0609 -0.2230
42059W        W85075  12.437   3.203  15.514 -0.1235  0.1140  0.0236
42060W        W85076  28.453  26.418  14.955  0.2399  0.0003  0.3107
42061W        W85077  19.703  25.291  25.675 -0.2219  0.1388  0.0838
42062W        W85078  33.273  22.485  15.614 -0.1358 -0.1288  0.2531
42063W        W85079  19.188   6.836   1.164  0.0611  0.0224 -0.1618
42064W        W85080  28.581  23.795  18.021  0.0710  0.3800 -0.0241
42065W        W85081  33.224  33.428  16.033  0.2551  0.0383  0.0157
42066W        W85082  15.071   5.491  19.488  0.1144  0.0088  0.2502
42067W        W85083  18.892  32.814  20.783  0.0915  0.0526  0.0635
42068W        W85084   5.727  24.281   9.395 -0.0459 -0.1597 -0.2140
42069W        W85085  29.365  32.458  19.660  0.0972 -0.2129 -0.0448
42070W        W85086  27.529  29.166  23.530  0.3093  0.1404 -0.2433
42071W        W85087  33.461  29.338  21.688 -0.2076  0.2466 -0.2693
42072W        W85088   3.369  19.185  23.802 -0.1295 -0.0029 -0.2706
42073W        W85089  10.417   2.582  18.740  0.0082 -0.1100  0.0318
42074W        W85090  31.753  20.049   0.192 -0.1008  0.3480  0.0065
42075W        W85091  30.913  20.916  21.432 -0.2629 -0.0170 -0.2295
42076W        W85092  25.830  30.824   2.052 -0.1303 -0.2137 -0.0231
42077W        W85093  31.964  32.472  25.782 -0.1997 -0.2423 -0.0184
42078W        W85094  21.999  26.131  26.336 -0.3911  0.0499 -0.1245
42079W        W85095  14.887  20.116  22.098  0.4658  0.0636  0.2327
42080W        W85096  28.670  11.104  23.779 -0.0484  0.1581  0.1973
42081W        W85097  21.580  27.648  20.922  0.0158 -0.0738  0.3736
42082W        W85098   9.637  33.910  27.378 -0.0820 -0.2064 -0.1426
42083W        W85099  19.112  33.535  21.624  0.1849 -0.0681  0.1176
42084W        W85100  31.331  31.064   9.881  0.2935  0.1885  0.0638
42085W        W85101   5.767  33.488  15.258  0.0258 -0.0396  0.1635
42086W        W85102  22.377   1.205  20.443 -0.0024 -0.0253  0.3291
42087W        W85103  30.999  31.556  16.568 -0.1085  0.0013 -0.3064
42088W        W85104  15.906  34.062  16.764  0.0943  0.0504 -0.1901
42089W        W85105   5.268  32.728  20.372 -0.0113  0.2355 -0.0633
42090W        W85106  15.979  31.002  18.223  0.0565 -0.0356 -0.1436
42091W        W85107   0.554  32.182  19.963  0.3859 -0.5759  0.2152
42092W        W85108  23.405  24.202  14.980 -0.2038  0.0460  0.1183
42093W        W85109  33.189   0.625  25.944 -0.0832 -0.2813 -0.0028
42094W        W85110   5.888  14.625  21.283  0.2109 -0.0539  0.1767
42095W        W85111  18.976  23.791  13.449 -0.1818 -0.0801  0.0099
42096W        W85112   5.251  23.237  13.429  0.0283  0.0715 -0.0065
42097W        W85113  31.150  22.851  22.631 -0.1228  0.3123  0.1402
42098W        W85114  13.373  23.673  20.314  0.1204 -0.0243 -0.0143
42099W        W85115  17.607  29.887  21.889 -0.0487 -0.0535 -0.2096
42100W        W85116   6.534  24.805  26.770 -0.0345 -0.0072 -0.1121
42101W        W85117   8.665  23.850  13.584  0.1395 -0.0283 -0.0772
42102W        W85118  25.086  18.037  16.194 -0.1451  0.1588 -0.2276
42103W        W85119   3.257  29.616  16.099 -0.0304 -0.2549  0.0621
42104W        W85120  34.243   5.667  19.022  0.1771 -0.1988 -0.2790
42105W        W85121  25.587  25.158  26.022 -0.0925 -0.3690  0.1244
42106W        W85122  17.709  11.063  13.974  0.0054  0.1618  0.3575
42107W        W85123  26.583  33.828  15.941 -0.3406  0.2784 -0.0926
42108W        W85124  24.540  28.479   0.233 -0.2781  0.0180 -0.1397
42109W        W85125  11.683  11.349  14.020 -0.0891  0.2993 -0.1338
42110W        W85126   1.201   2.260  26.352 -0.1272  0.1504 -0.2688
42111W        W85127   7.331  30.240  29.301 -0.0479  0.3116  0.2587
42112W        W85128   2.117   1.940  20.604 -0.1440  0.0726  0.1269
42113W        W85129  11.542  24.809  15.526 -0.2665 -0.0332 -0.3300
42114W        W85130  24.662  13.068  21.488 -0.0178  0.4090 -0.0880
42115W        W85131   3.140  22.044  24.673 -0.0801 -0.4416 -0.2138
42116W        W85132   9.128  25.442  20.663 -0.0882  0.0550  0.0575
42117W        W85133  32.949   4.265  22.595  0.2631 -0.1203 -0.0434
42118W        W85134   4.434  24.985  20.530 -0.1052  0.0048  0.2810
42119W        W85135  25.012  31.894  27.294 -0.1938  0.2746 -0.1380
42120W        W85136   0.617  23.597  27.275 -0.2772  0.1776  0.4129
42121W        W85137   5.193  14.377  16.618 -0.0805 -0.0955  0.2376
42122W        W85138  12.550  30.292  17.432  0.0793  0.0128  0.1627
42123W        W85139  26.159  30.347  24.821  0.0704 -0.0016  0.2009
42124W        W85140  30.315  18.512  25.911 -0.1219 -0.1614  0.4227
42125W        W85141  25.241  21.436  23.940 -0.0759 -0.0363  0.1506
42126W        W85142   5.888  27.668  20.191  0.0828 -0.0161 -0.0288
42127W        W85143  31.766  23.203  15.544 -0.0795 -0.0211  0.0828
42128W        W85144   1.585  20.022  28.095 -0.0584  0.0059  0.1073
42129W        W85145  22.008   0.121   2.942 -0.2775 -0.0641  0.2475
42130W        W85146   6.376  31.332  13.857 -0.1375 -0.0192 -0.1103
42131W        W85147  30.991  25.025  15.451  0.0823  0.0585  0.2723
42132W        W85148  34.294   1.818  23.469  0.0203  0.0002 -0.0480
42133W        W85149  29.688  25.714  18.282 -0.1226 -0.0425  0.3604
42134W        W85150   1.075  33.820   4.160 -0.0331 -0.0111  0.0914
42135W        W85151  26.957  14.406   1.075  0.2279  0.2605 -0.0734
42136W        W85152  24.783  34.075  17.012 -0.0427 -0.0233  0.0509
42137W        W85153  32.046  26.015  28.946 -0.2958 -0.4904  0.1986
42138W        W85154  22.713  26.778  28.543  0.1862  0.1076 -0.5250
42139W        W85155  32.975  27.803  26.425  0.1319 -0.0761 -0.1670
42140W        W85156   5.477  22.771  25.864  0.0484 -0.0474  0.1537
42141W        W85157  33.265  23.199  28.515 -0.0127 -0.3563 -0.0677
42142W        W85158  20.030  21.632  17.071 -0.0152 -0.2101 -0.1259
42143W        W85159   0.616  31.804  24.610  0.0219 -0.0612  0.0147
42144W        W85160  26.014   0.779  16.604  0.0061 -0.1211 -0.3795
42145W        W85161  24.865  10.899  26.500  0.0184  0.0891 -0.0668
42146W        W85162  29.924  21.116  22.378  0.0253  0.1039 -0.5209
42147W        W85163  34.466  22.767  27.571 -0.2090  0.1851  0.1428
42148W        W85164   2.554  23.243  18.974 -0.0297 -0.1699  0.2194
42149W        W85165  21.999  31.765  21.993 -0.0313  0.0887  0.2487
42150W        W85166   8.914  34.465  15.382  0.1371  0.0354  0.0235
42151W        W85167   6.489  18.894  13.388 -0.2368 -0.1474 -0.0805
42152W        W85168  32.611  32.181   6.635 -0.0408  0.1977  0.4978
42153W        W85169  30.681  13.328  16.082 -0.0210 -0.2179  0.0343
42154W        W85170  18.303  11.594  25.434  0.2243 -0.0285 -0.0929
42155W        W85171   7.445   2.061   9.609  0.1346 -0.0848 -0.1412
42156W        W85172  28.286  20.454   0.657 -0.1197 -0.0201  0.1233
42157W        W85173  34.140  22.472  25.709  0.1317  0.0305 -0.0726
42158W        W85174  31.968  28.496   0.260  0.2462 -0.0709 -0.2881
42159W        W85175   8.297  28.473  18.136 -0.0019 -0.0506 -0.0255
42160W        W85176   6.575   2.014  21.563  0.0173 -0.0054 -0.0496
42161W        W85177  15.541  20.943  23.891  0.0475  0.3122 -0.0017
42162W        W85178  32.439  28.742  17.095 -0.1423  0.0448 -0.3404
42163W        W85179   4.177   6.472  17.041 -0.1090 -0.2864 -0.1167
42164W        W85180   3.085  33.326  17.967  0.1785  0.0760 -0.0424
42165W        W85181  14.057  17.852  24.464  0.2547 -0.0866  0.1040
42166W        W85182  14.702  29.680  28.594  0.1722 -0.1646 -0.1833
42167W        W85183  24.616  32.154  22.782 -0.1466  0.0033  0.1426
42168W        W85184   3.628  28.208   0.900  0.0911 -0.2421  0.0836
42169W        W85185  26.098  14.426  18.645 -0.0098  0.0212  0.1594
42170W        W85186  26.177  33.301  11.832 -0.0572  0.2422 -0.0287
42171W        W85187  27.193  21.597  24.866  0.1849  0.2814  0.1543
42172W        W85188  25.518   2.522  18.963  0.1130  0.1672  0.0151
42173W        W85189   9.196  27.626  19.002  0.1354  0.0448  0.1278
42174W        W85190  25.733  15.700  16.982  0.1077  0.4067  0.2659
42175W        W85191   3.564   0.899  15.876 -0.0020  0.5535  0.2751
42176W        W85192  28.006  20.178  16.701  0.0358  0.2531  0.0824
42177W        W85193   5.782  20.925  27.027 -0.0573  0.1604 -0.2144
42178W        W85194   4.091  14.540  16.865  0.0298 -0.0796 -0.4567
42179W        W85195  27.681   3.082   2.342  0.1079 -0.1159  0.1366
42180W        W85196  28.204   0.883   0.488  0.1905 -0.1688 -0.0661
42181W        W85197   9.854  34.325  21.283 -0.1333 -0.0667 -0.0654
42182W        W85198   5.614  12.409  26.017 -0.0104  0.2924 -0.2725
42183W        W85199  20.338   1.574  14.041  0.2095  0.1586 -0.0980
42184W        W85200   4.491   2.121  15.909 -0.1398  0.1898 -0.0333
42185W        W85201  16.368   1.948  19.308  0.0376 -0.1102  0.1169
42186W        W85202  13.498  12.929  15.521  0.0878 -0.0572  0.0899
42187W        W85203  33.524   2.516  16.341  0.0015  0.2239  0.0727
42188W        W85204   6.763   6.591   3.448  0.0901 -0.3372  0.3766
42189W        W85205  18.207  28.707   1.273  0.1036 -0.0330  0.0669
42190W        W85206   7.569  31.759   8.221 -0.2091  0.3733 -0.0327
42191W        W85207  19.265  18.879   3.928  0.0179  0.2310 -0.2371
42192W        W85208  10.058   6.066  21.426  0.1156  0.3440 -0.1468
42193W        W85209  15.805  32.996  17.680 -0.0972  0.1476  0.1865
42194W        W85210   1.749  26.755   1.563 -0.0216  0.1221 -0.3083
42195W        W85211  22.302  26.680  27.498 -0.0506  0.1037 -0.0544
42196W        W85212  32.697  16.773  26.686  0.0738 -0.3309 -0.0473
42197W        W85213  30.863  19.126  10.949  0.0581 -0.0284 -0.1856
42198W        W85214  10.837  26.568  16.024 -0.0567 -0.1478  0.1676
42199W        W85215   3.280   3.916  15.530  0.1339 -0.1892  0.3866
42200W        W85216  25.260  23.792  15.753 -0.2093 -0.0124  0.0265
42201W        W85217  23.090   7.524  26.159 -0.0131  0.0182 -0.3042
42202W        W85218  30.207  22.429  16.396 -0.0182 -0.0252  0.1074
42203W        W85219  23.461  18.280  14.889  0.0702 -0.2043  0.2392
42204W        W85220   7.614  24.077  20.886 -0.0908 -0.3023 -0.0628
42205W        W85221   5.944  31.603   0.099 -0.1061  0.1434  0.0868
42206W        W85222  30.958  26.761  25.187 -0.0449 -0.0542  0.0283
42207W        W85223  12.497  13.986  21.710 -0.1981 -0.0623 -0.2595
42208W        W85224   6.511  23.957  20.656 -0.0240 -0.0129 -0.1032
42209W        W85225   8.980  24.164  13.325  0.1749  0.1485 -0.0446
42210W        W85226  22.520  26.268  27.421  0.3176  0.0585 -0.0889
42211W        W85227  23.284  17.477  22.041 -0.0794  0.0167  0.1938
42212W        W85228  30.981  27.263  28.040 -0.2422  0.1524  0.0721
42213W        W85229   5.487  21.053  18.556  0.1656 -0.0021 -0.2180
42214W        W85230  28.462  32.189  10.685  0.0393  0.1456  0.0028
42215W        W85231  10.919  16.969  19.658  0.2048  0.1631 -0.0629
42216W        W85232   0.620  26.951  17.889 -0.0527  0.0978 -0.1461
42217W        W85233   6.152  21.864  27.828  0.1906 -0.1452  0.0014
42218W        W85234  27.537  34.080  21.143 -0.0898  0.0203 -0.2054
42219W        W85235   4.707  18.879  22.709 -0.1720  0.2359  0.1960
42220W        W85236  23.232   1.017  23.450  0.2626 -0.1803 -0.1191
42221W        W85237  32.839  28.677  19.298 -0.0553 -0.2155  0.1866
42222W        W85238  29.280  28.212  20.482  0.0723 -0.4129  0.2108
42223W        W85239  20.220  20.342  22.176 -0.2142  0.2196  0.2828
42224W        W85240  30.044  20.341  22.400  0.1512 -0.3701  0.0637
42225W        W85241   5.325  25.860  26.862  0.2241  0.1027  0.0227
42226W        W85242  21.720  21.479  19.518 -0.1307 -0.0840 -0.2303
42227W        W85243   8.508  32.098  24.770  0.0791 -0.0778 -0.1591
42228W        W85244   3.623  27.922  20.464 -0.0587  0.0028 -0.0210
42229W        W85245   3.244  28.537  17.529  0.0431 -0.1939  0.0309
42230W        W85246  11.898  27.497  14.621  0.1775  0.1427 -0.1842
42231W        W85247   2.668  26.211  19.489  0.1946 -0.1817  0.3281
42232W        W85248   5.437   7.624  23.033  0.1734 -0.2341  0.1205
42233W        W85249   8.081  30.088   0.659 -0.0528  0.1405  0.0823
42234W        W85250  21.705  17.413  16.681 -0.1348 -0.2743 -0.4538
42235W        W85251   3.679  21.240  27.880 -0.1790  0.4480  0.1552
42236W        W85252  15.362  24.880  22.068  0.0579 -0.0368 -0.1598
42237W        W85253  34.152  12.903  24.963  0.1572  0.1012 -0.0639
42238W        W85254  34.272  22.440  16.719  0.1682  0.0579  0.1988
42239W        W85255  14.186  27.428  14.575  0.2247 -0.0422 -0.1977
42240W        W85256   5.400  32.187  27.195  0.2733 -0.2192  0.1923
42241W        W85257   1.106  20.807   9.913 -0.2508  0.1939 -0.2900
42242W        W85258  18.745  13.064  25.226 -0.0551  0.0071  0.0265
42243W        W85259  32.755  23.826   0.990  0.0541  0.4129 -0.1792
42244W        W85260   0.437  16.805   2.925 -0.0173 -0.3387  0.0470
42245W        W85261  25.902  15.684  19.083  0.0363  0.1620  0.1586
42246W        W85262  28.902  12.161  15.464  0.0408 -0.0469 -0.1424
42247W        W85263  28.702  24.790  23.061 -0.0054 -0.4443 -0.1201
42248W        W85264  25.017   7.247  27.503 -0.1441 -0.3284  0.0084
42249W        W85265  32.858  30.956  28.485 -0.0213  0.2967 -0.2284
42250W        W85266   1.309  27.423  15.911 -0.0164 -0.2328 -0.0211
42251W        W85267   3.505  21.973   7.640 -0.2634 -0.0574  0.1197
42252W        W85268  23.883  18.201  14.602  0.0033  0.0343  0.1068
42253W        W85269  29.036  30.070  24.968 -0.3313 -0.0654  0.1470
42254W        W85270  18.625  17.934   2.498  0.1298  0.0697 -0.0470
42255W        W85271  31.861  13.593  16.584 -0.0655 -0.1778  0.0512
42256W        W85272   6.884   4.658  26.939 -0.0404 -0.0040 -0.0502
42257W        W85273  17.734  26.030   7.432  0.2032 -0.1177  0.0974
42258W        W85274   0.350   0.163  23.783 -0.2777 -0.0161  0.0040
42259W        W85275   5.891  19.565  15.555 -0.1093 -0.2202  0.0252
42260W        W85276  19.042  24.571  15.904  0.0489 -0.1712 -0.0926
42261W        W85277  21.253  31.979  17.534  0.0344 -0.1090 -0.2694
42262W        W85278  23.847  23.221  15.682 -0.0638  0.2439  0.2131
42263W        W85279  29.783   1.418  18.168 -0.2741 -0.1978  0.0472
42264W        W85280  13.507  28.189  25.593  0.1791  0.0964 -0.2163
42265W        W85281  12.022  17.768  25.874 -0.0026  0.1678  0.2590
42266W        W85282   2.853  17.609  21.175 -0.0651 -0.1067 -0.2474
42267W        W85283  32.878   3.860  26.387  0.1104  0.1462  0.0891
42268W        W85284  17.296   7.587   3.565 -0.1486  0.2581 -0.0352
42269W        W85285   0.357  31.287   2.917 -0.2072  0.2023  0.3746
42270W        W85286  29.055   3.565  23.600  0.1482 -0.1432 -0.0854
42271W        W85287   8.005  30.222  22.558  0.2412  0.0647 -0.1881
42272W        W85288  30.416  20.237  20.315 -0.0489 -0.0628  0.1383
42273W        W85289  25.659  32.628  21.642 -0.2229  0.1014  0.0045
42274W        W85290  32.404   8.727  23.361 -0.0265 -0.1012 -0.1612
42275W        W85291   5.508  30.634  21.953  0.1852 -0.0615 -0.1435
42276W        W85292   7.261   9.353  21.026  0.2417  0.0193 -0.1884
42277W        W85293   0.496  13.110  27.854  0.2465 -0.3161  0.0511
42278W        W85294   8.866  20.838  26.925 -0.1338 -0.1199 -0.0961
42279W        W85295  32.025  31.809  16.206  0.2230  0.1528 -0.1606
42280W        W85296  19.600   6.434  14.897  0.0402  0.0633 -0.1200
42281W        W85297  28.656  22.122  27.922  0.3248  0.3650  0.1983
42282W        W85298   3.467   3.108  17.018 -0.3169 -0.0147  0.0778
42283W        W85299   0.298  28.511  14.175  0.0748 -0.1158  0.0578
42284W        W85300  28.928  32.902  19.724  0.1013 -0.2331 -0.0110
42285W        W85301  33.667  19.886   9.549 -0.1179 -0.2431  0.1660
42286W        W85302  32.329  25.154  22.140  0.2127  0.1017  0.0711
42287W        W85303   5.659  26.448  22.490 -0.1780  0.2954  0.1684
42288W        W85304   6.481   2.889  22.791 -0.0939 -0.4833 -0.0557
42289W        W85305  30.725   1.921  23.927  0.0652 -0.1137 -0.1713
42290W        W85306   4.106  22.782  18.416 -0.2267 -0.0701 -0.1615
42291W        W85307  10.444  19.883  24.786 -0.0337 -0.3701 -0.0379
42292W        W85308  30.773  18.814  21.314  0.0246 -0.2086  0.0343
42293W        W85309  12.378  18.107  25.636  0.1252  0.0310 -0.3653
42294W        W85310  21.322  21.751  14.468 -0.0399  0.0736  0.0797
42295W        W85311  33.842  26.488  22.639 -0.0775 -0.0851  0.2251
42296W        W85312  10.697   5.121  20.914  0.1382 -0.0871 -0.1355
42297W        W85313  23.131   7.335  16.397 -0.2266  0.4831  0.0521
42298W        W85314  34.703  30.173   1.490  0.1662  0.2051  0.0580
42299W        W85315   2.864  29.030   9.639 -0.2483 -0.0254 -0.0255
42300W        W85316  12.731  31.856   2.490  0.0744  0.0466 -0.0048
42301W        W85317   1.233  10.534  27.940  0.1377 -0.2431 -0.0465
42302W        W85318   2.117  23.805  25.199 -0.0404  0.4075  0.0301
42303W        W85319  20.659  22.050   2.195  0.2457 -0.2792  0.0361
42304W        W85320  27.666  18.936   0.097  0.1186  0.0066 -0.0715
42305W        W85321  21.413  33.107   6.525  0.1495 -0.1037  0.1942
42306W        W85322  27.496   7.681  28.078 -0.0987 -0.0114  0.4785
42307W        W85323  25.169  20.992   8.882 -0.1336 -0.1945  0.0152
42308W        W85324  34.661   5.006  14.242  0.3355 -0.1364 -0.0268
42309W        W85325  25.741  26.323  24.815 -0.3230 -0.1416  0.1344
42310W        W85326   9.708  20.980  17.997  0.0260  0.0360  0.1460
42311W        W85327  26.894  23.864  26.508  0.3125  0.2896 -0.2180
42312W        W85328  24.522   0.617  22.912 -0.2607  0.2156  0.3732
42313W        W85329  28.769   0.747  21.498  0.1182 -0.2322 -0.1281
42314W        W85330  24.543  28.819   9.623 -0.1629  0.2814  0.1370
42315W        W85331  15.612  20.675  22.198  0.0810 -0.1675 -0.1121
42316W        W85332  18.469  27.487   0.880 -0.2589  0.2119 -0.0799
42317W        W85333  23.965  16.124  17.390  0.1842 -0.0972  0.4818
42318W        W85334  12.637  19.142  28.533 -0.0733 -0.2344 -0.2739
42319W        W85335  25.648  19.409   0.013 -0.0022  0.3545  0.0833
42320W        W85336  25.968  18.816  19.571 -0.2310 -0.0090 -0.2974
42321W        W85337  29.057  22.519  17.232  0.0617  0.4377 -0.0246
42322W        W85338  24.090  27.025  19.700 -0.2756 -0.0593 -0.0330
42323W        W85339   3.881  22.031   1.595 -0.1886 -0.0674 -0.2459
42324W        W85340  15.181  10.583  23.219  0.2566 -0.2043  0.1324
42325W        W85341  33.584  27.389  23.666 -0.0296 -0.2860 -0.0739
42326W        W85342   2.464   0.946  15.814 -0.2715 -0.2841 -0.0451
42327W        W85343   5.356  22.876  16.743  0.0721  0.0747 -0.0947
42328W        W85344  26.296  17.109  22.959  0.0181 -0.1743  0.1260
42329W        W85345  28.269   2.249  20.144  0.3284 -0.4693 -0.3453
42330W        W85346  22.706  32.430   1.290  0.0281 -0.0339  0.0857
42331W        W85347   5.587  14.841  15.647 -0.1075  0.0174 -0.1966
42332W        W85348   2.512  31.552  25.825  0.0908  0.3740  0.1729
42333W        W85349  13.221  28.702  17.132 -0.2252  0.0143  0.3246
42334W        W85350  33.634  15.988  17.337  0.4079  0.1743  0.2090
42335W        W85351  18.964  29.649  15.500 -0.0119 -0.5266  0.0322
42336W        W85352  14.139   5.364  14.122  0.1342 -0.0575  0.1233
42337W        W85353  13.276  18.023  24.779 -0.0174 -0.0864  0.1105
42338W        W85354  23.102  26.067   3.057 -0.0432  0.1625 -0.0253
42339W        W85355  16.991  29.089  26.339 -0.1988 -0.0209  0.0187
42340W        W85356  30.437  33.085  28.818  0.0585  0.4563 -0.4167
42341W        W85357  24.639  23.762  16.065 -0.0440  0.2565 -0.0966
42342W        W85358   1.607  29.063   0.780  0.1333  0.0398 -0.2476
42343W        W85359   8.484  26.316   2.522  0.0836  0.4501  0.1983
42344W        W85360   2.795  34.434   2.647 -0.2128 -0.0464  0.2237
42345W        W85361   1.220   8.430  19.117  0.1385  0.3499  0.2946
42346W        W85362  19.009  13.259  20.298 -0.2833 -0.3137  0.0608
42347W        W85363  27.515  28.587  25.832  0.0201 -0.0213  0.0161
42348W        W85364  10.512  24.479  15.537  0.0808  0.0341  0.1112
42349W        W85365  34.684  31.864  15.633 -0.1089 -0.1277 -0.0463
42350W        W85366  33.720   0.820  20.969 -0.5918  0.0905 -0.3396
42351W        W85367  31.446  12.124  16.527  0.2764 -0.2934  0.1865
42352W        W85368  27.754  18.065  22.307 -0.2242  0.0568 -0.0891
42353W        W85369  28.480  26.322  20.790 -0.0344  0.0831  0.4010
42354W        W85370  24.124  24.597  24.983  0.3222 -0.2631 -0.1349
42355W        W85371  28.325  16.379   2.177  0.0398  0.1209 -0.2896
42356W        W85372  12.504  12.768  19.466  0.3701  0.3295  0.1066
42357W        W85373  33.770  33.013  19.005 -0.1548  0.2880 -0.0333
42358W        W85374  29.717  13.672   3.315  0.0869 -0.1738  0.1905
42359W        W85375  21.995  21.059   5.415 -0.1439 -0.0780  0.0748
42360W        W85376   0.272  32.490  20.626  0.2449  0.0318 -0.2190
42361W        W85377  12.043  22.544  22.659  0.3922  0.1815 -0.3958
42362W        W85378  24.951  33.522  27.175 -0.1596  0.3768  0.2530
42363W        W85379  24.039   0.082  17.671 -0.0048 -0.2330  0.2127
42364W        W85380  22.446  24.406  18.345  0.2778 -0.1568 -0.0021
42365W        W85381  32.830  22.408  26.426 -0.0645  0.0936 -0.1177
42366W        W85382   4.604  27.289  21.545  0.0475  0.2343  0.5267
42367W        W85383  30.046   9.545  25.461 -0.0079 -0.0922  0.2878
42368W        W85384   6.510   5.091  20.163  0.1988  0.0740 -0.2439
42369W        W85385   0.154   2.834  21.943 -0.1472  0.1471 -0.1378
42370W        W85386  14.853  15.801  14.964 -0.0900 -0.1985  0.2924
42371W        W85387  23.900  27.691  24.657  0.0964  0.1044  0.3432
42372W        W85388  22.039   8.592  21.652 -0.0120 -0.0201  0.0757
42373W        W85389  33.502  13.161  28.896 -0.0053 -0.3658  0.2316
42374W        W85390   6.015  17.005  23.203  0.1285  0.3324 -0.1183
42375W        W85391   0.394  19.175  24.923 -0.4226 -0.0716  0.0485
42376W        W85392  34.567  33.177  19.465 -0.2013  0.3009  0.3064
42377W        W85393  31.694  29.654  21.100 -0.2037  0.1916 -0.1125
42378W        W85394  34.577  21.824  29.037 -0.0076  0.0343 -0.0650
42379W        W85395   7.768  14.278  15.458 -0.3143 -0.4199 -0.0485
42380W        W85396   5.478   6.103   4.735  0.0652 -0.2907  0.1153
42381W        W85397   0.517   0.678  15.337  0.0288  0.3369 -0.3552
42382W        W85398  28.942  15.508  17.455 -0.0332  0.2766  0.0632
42383W        W85399  16.315  23.971  14.436  0.1651  0.0263 -0.3267
42384W        W85400  32.667  25.749  20.588  0.0253  0.3035  0.2809
42385W        W85401  21.045  17.815  16.747  0.2439  0.1634 -0.0200
42386W        W85402  13.797  31.730  17.957 -0.1654 -0.0168  0.2068
42387W        W85403   6.259  11.995  26.436 -0.2698 -0.0369 -0.2561
42388W        W85404   9.367  24.972  27.301  0.0331 -0.0418  0.0821
42389W        W85405   0.872  19.116  25.274  0.0410 -0.0624  0.1024
42390W        W85406  24.404   2.819  16.214  0.4425 -0.0162  0.2709
42391W        W85407   1.286   4.995  21.044 -0.3644  0.2438 -0.1805
42392W        W85408  18.715  34.127  23.551  0.1704  0.2250 -0.0330
42393W        W85409  31.765  22.517   5.649 -0.1530  0.0411  0.1033
42394W        W85410  25.988  16.590   1.327 -0.0585  0.0330  0.1467
42395W        W85411   2.244  15.603   4.366 -0.3673  0.2319 -0.2925
42396W        W85412  26.225  31.523   6.291 -0.0671  0.1554 -0.2210
42397W        W85413  23.865  25.442  25.516  0.2646 -0.0014 -0.3892
42398W        W85414  25.571  31.440   6.923  0.3136  0.0591  0.1412
42399W        W85415  27.949   3.185  15.871  0.1598 -0.2171 -0.1001
42400W        W85416   3.673  26.664  17.654 -0.2047  0.0858 -0.1505
42401W        W85417  14.757  21.697  20.210 -0.2276 -0.1027  0.1700
42402W        W85418   5.961   1.481   7.660 -0.0843  0.3296  0.1873
42403W        W85419   8.707  10.868  22.765 -0.0135 -0.0954 -0.1088
42404W        W85420   3.338  34.729  18.006  0.1650 -0.3481  0.1965
42405W        W85421  28.460  30.659  20.564  0.0494 -0.2755  0.5037
42406W        W85422  17.121  24.724  26.921 -0.1115  0.1918 -0.2063
42407W        W85423  27.676  31.418   0.981  0.1520  0.0128  0.1852
42408W        W85424  19.730  33.909  24.056 -0.1837 -0.1338 -0.1757
42409W        W85425   7.171  22.268  19.125 -0.0290 -0.3470  0.2273
42410W        W85426  11.537  34.262  22.840  0.0407 -0.1212  0.4330
42411W        W85427  19.375  34.206  21.090 -0.3126 -0.0071  0.2477
42412W        W85428  26.169  29.936  20.593  0.1267  0.3138  0.3667
42413W        W85429  24.684  33.207  16.185  0.0538 -0.1323  0.1902
42414W        W85430  24.416  24.391  24.703 -0.1326 -0.0847 -0.1792
42415W        W85431  25.292  19.037  25.439  0.0293  0.0289  0.0156
42416W        W85432  30.657   1.368  27.072 -0.1164 -0.4568  0.1247
42417W        W85433   0.442  10.194  14.454 -0.2438  0.1404 -0.0848
42418W        W85434   3.839  25.226  25.534 -0.0728 -0.2522 -0.1516
42419W        W85435  22.465  33.441  28.622  0.2135 -0.1652 -0.1759
42420W        W85436   3.073  30.795  24.640 -0.0613 -0.0167 -0.2284
42421W        W85437   4.353  22.443  23.761 -0.0698  0.0198 -0.1032
42422W        W85438  22.974  22.406  15.087  0.0241 -0.0312  0.0878
42423W        W85439  28.322   3.812   2.029  0.0273 -0.4022  0.0881
42424W        W85440  10.325  33.182   0.840  0.1335 -0.3319 -0.2865
42425W        W85441  28.867  26.776  17.371  0.2889  0.2817 -0.3469
42426W        W85442  31.701   6.833  25.236 -0.2278 -0.0273  0.0834
42427W        W85443  30.881  24.736  29.010  0.3178  0.1088 -0.0471
42428W        W85444  25.259   1.701  17.350  0.0044  0.3779  0.1496
42429W        W85445  20.292  30.948  28.660 -0.0209 -0.2984  0.0461
42430W        W85446  31.104   5.411   0.534 -0.1442  0.0000  0.3081
42431W        W85447   7.231  19.639  21.322  0.0225  0.4294  0.1143
42432W        W85448  20.130  11.796  27.290  0.1471 -0.2565 -0.0148
42433W        W85449  18.955  18.181  14.357 -0.1149  0.0721 -0.0670
42434W        W85450   3.469   5.009  16.394  0.2032 -0.1035  0.3626
42435W        W85451   4.226   1.300  22.205  0.4667  0.0903 -0.2212
42436W        W85452  20.670  13.696  21.002 -0.0438 -0.0385  0.1718
42437W        W85453  23.969  31.610  16.523 -0.1589  0.0600  0.3001
42438W        W85454  28.534  30.436  17.465  0.3743 -0.2311  0.1135
42439W        W85455  30.171  24.478  25.422  0.1216 -0.0428  0.3171
42440W        W85456  28.363  25.902  19.588  0.0794 -0.0280 -0.0643
42441W        W85457   2.844  21.222  16.034 -0.1130 -0.1669 -0.2783
42442W        W85458  27.976  11.723  23.664 -0.1627  0.2992 -0.3357
42443W        W85459  14.041   4.594  27.815  0.1078 -0.2635  0.1837
42444W        W85460  14.377  25.272  21.689 -0.0525  0.1558 -0.2163
42445W        W85461  22.415  23.489  16.768  0.2080  0.0914 -0.1318
42446W        W85462   2.366  21.767  17.612  0.1072 -0.2368  0.1999
42447W        W85463  10.527  23.987  20.555  0.2152 -0.2011  0.1118
42448W        W85464  28.781  20.541  10.664 -0.2232 -0.0146  0.0054
42449W        W85465  22.503  30.941  24.290 -0.0405 -0.2558 -0.2329
42450W        W85466  27.405  26.710   4.849 -0.3576 -0.0960  0.0105
42451W        W85467  32.637  13.220  16.586 -0.0496  0.1218  0.0726
42452W        W85468  32.768  24.500  16.004  0.2087  0.3884 -0.0197
42453W        W85469  29.196   2.768  18.756  0.1102 -0.0501 -0.0017
42454W        W85470  21.308  28.236  18.601 -0.0727  0.0451  0.3097
42455W        W85471   3.889  14.962  23.180  0.0485 -0.1735  0.0687
42456W        W85472   5.129   4.597  26.909  0.3555 -0.1176 -0.1190
42457W        W85473  16.344  32.398  24.463  0.2630  0.0678 -0.0799
42458W        W85474  17.453  29.296  26.447 -0.0963 -0.1948  0.1363
42459W        W85475  28.339   2.767  10.043  0.1992  0.0147  0.0901
42460W        W85476  23.549  22.282  15.937  0.1316 -0.0236 -0.1270
42461W        W85477  18.043   0.420  25.124 -0.0768 -0.3101  0.0036
42462W        W85478  30.046  31.340  22.251  0.1130  0.1515 -0.2460
42463W        W85479   9.526  25.846  15.201  0.2200 -0.1385 -0.4332
42464W        W85480   4.685  33.623  20.250 -0.2181  0.1907 -0.4183
42465W        W85481  33.811   3.642  22.631 -0.2609  0.0893 -0.2141
42466W        W85482  21.305  32.882  18.080  0.1462 -0.1191  0.3400
42467W        W85483  27.959  21.580  21.303  0.2654  0.0411 -0.0704
42468W        W85484   3.452  24.432   1.817  0.1002  0.3823  0.1202
42469W        W85485  18.209  17.207  17.910 -0.2032  0.0227  0.1791
42470W        W85486  27.236  26.125  27.946  0.1490  0.0939  0.3030
42471W        W85487   5.930   0.913  16.384 -0.1176  0.2642  0.2918
42472W        W85488  13.682  16.617   2.264  0.0014  0.3669  0.2000
42473W        W85489   1.923   4.408  21.888 -0.2376 -0.1317  0.2680
42474W        W85490  31.205  20.663  22.297  0.0605 -0.4152 -0.1845
42475W        W85491  21.808  30.552  23.383 -0.1202 -0.0813  0.0601
42476W        W85492  25.863   4.513   7.774  0.0009 -0.1773 -0.2159
42477W        W85493  22.036   2.871  24.158  0.0929 -0.2588  0.2262
42478W        W85494  18.589  28.538  18.710 -0.1059  0.2822 -0.1417
42479W        W85495  34.714  21.062  17.463  0.1814  0.0603 -0.0633
42480W        W85496  23.482  27.560  21.936  0.2599 -0.2536 -0.2129
42481W        W85497   9.118  25.737   3.668  0.1401  0.1860 -0.1941
42482W        W85498  28.734   1.946  21.405 -0.2523 -0.0869  0.1909
42483W        W85499  27.366  23.343  29.243 -0.0070 -0.1391  0.1385
42484W        W85500  32.426  32.070   2.756  0.0259  0.0685  0.3145
42485W        W85501  26.412  13.829  14.854 -0.2585  0.1435 -0.1628
42486W        W85502  34.411  23.985   5.659 -0.0043  0.0707 -0.0921
42487W        W85503  32.211   0.443   6.973  0.2374 -0.1297  0.2647
42488W        W85504   0.081  31.143  17.044  0.3440 -0.2213 -0.2574
42489W        W85505  30.552   0.139   1.429  0.1601 -0.0660 -0.1992
42490W        W85506  28.108  24.921  17.333 -0.0197  0.2633  0.0305
42491W        W85507  23.771  25.390   9.867 -0.2004  0.2969 -0.1103
42492W        W85508  20.483  14.410  14.235  0.1213  0.1759 -0.2142
42493W        W85509   7.012   8.400  16.087 -0.0908  0.0767 -0.2419
42494W        W85510  29.025   6.881  24.680  0.0424  0.0749 -0.0165
42495W        W85511  30.553  16.084  21.146 -0.1462  0.1094  0.0692
42496W        W85512  18.574  31.773   0.453  0.3339 -0.1465 -0.1382
42497W        W85513   7.657   3.565  20.183 -0.2777 -0.2288  0.2353
42498W        W85514  27.236  33.321  27.496 -0.1819 -0.1203 -0.0790
42499W        W85515   1.991   1.758  18.305  0.0063 -0.0740  0.0196
42500W        W85516  22.710   3.515  16.146  0.1512  0.1305 -0.0737
42501W        W85517  24.135  25.672   6.094  0.2594  0.0387 -0.0585
42502W        W85518  31.848   8.404   7.598 -0.0786  0.0020  0.1832
42503W        W85519  11.237  20.380  27.409 -0.3349 -0.2515  0.2099
42504W        W85520  30.239   3.859   6.135 -0.2214  0.2027 -0.0115
42505W        W85521  26.880  17.529  22.404 -0.1172  0.0692 -0.2108
42506W        W85522  32.597  19.068  17.597  0.2251 -0.2520 -0.0256
42507W        W85523   1.700  28.662  16.038 -0.1570 -0.0524 -0.2828
42508W        W85524  20.959  25.737   1.878 -0.1702 -0.3992 -0.1011
42509W        W85525  31.536  32.967  24.663 -0.3317 -0.3281  0.1188
42510W        W85526  24.613  29.039   1.126  0.0836  0.1561  0.0943
42511W        W85527  20.352  12.474  20.416 -0.1173 -0.0150  0.1074
42512W        W85528   0.488  22.595  18.596 -0.1695  0.0495  0.1484
42513W        W85529  22.229   1.975  24.385  0.1676 -0.0932  0.2902
42514W        W85530  20.842  26.034  18.055 -0.1182  0.2746 -0.0067
42515W        W85531  31.448   7.389  21.466 -0.1643 -0.1800  0.1350
42516W        W85532  34.050  13.168  28.715  0.0500  0.0988 -0.3983
42517W        W85533  11.264  33.148  17.471  0.0718 -0.1363  0.1921
42518W        W85534   7.775  18.449  13.945 -0.4144 -0.1709 -0.0554
42519W        W85535  17.256  27.976  24.289 -0.0921  0.1774  0.1246
42520W        W85536  27.653  21.694  28.345 -0.0856 -0.3324  0.0736
42521W        W85537   2.140  26.592  26.861 -0.2424 -0.2823 -0.1066
42522W        W85538  32.181  22.449  22.223  0.2338  0.0778  0.0093
42523W        W85539  26.085  18.206  20.882  0.0424 -0.2878 -0.1568
42524W        W85540  26.002  15.489  17.866 -0.0286 -0.0668  0.0532
42525W        W85541  18.644   6.459  19.974  0.3865 -0.0938  0.2081
42526W        W85542  15.432  15.284  23.181 -0.1688 -0.0628 -0.0638
42527W        W85543  15.007   8.835  17.012 -0.0442  0.1991  0.2569
42528W        W85544  28.531  31.149  23.555 -0.0102 -0.2747  0.1387
42529W        W85545   9.640  30.781  26.547  0.4130  0.0887 -0.0822
42530W        W85546   4.752   2.866   1.960  0.4149  0.4881 -0.0184
42531W        W85547  28.971  31.792   7.245 -0.0272 -0.2123 -0.1459
42532W        W85548  33.015  32.794  16.927  0.0192 -0.1022  0.1914
42533W        W85549  31.879  16.624   7.174 -0.1894  0.0519  0.0555
42534W        W85550  14.054  26.185  13.502  0.1001 -0.2992  0.3028
42535W        W85551   5.478  32.146  25.360 -0.1884  0.0209  0.0953
42536W        W85552  34.146  25.844  20.297 -0.0704  0.1785 -0.0241
42537W        W85553  16.479   7.886  18.178  0.2461 -0.1678  0.0327
42538W        W85554  18.479  27.897   3.350 -0.0928 -0.2265  0.1458
42539W        W85555   7.846  26.956  17.348 -0.1477 -0.1113  0.2925
42540W        W85556   0.251  33.441  25.262  0.1012 -0.2272 -0.2192
42541W        W85557  24.747  28.296  18.506  0.0876  0.1391 -0.1009
42542W        W85558  20.412  24.796  23.783 -0.0828  0.0659  0.3649
42543W        W85559  11.640  30.115  24.171  0.2556 -0.0096  0.0379
42544W        W85560  32.880  19.993  22.347 -0.3403  0.0530 -0.0775
42545W        W85561  32.439  10.826  21.915  0.0650 -0.1143  0.0840
42546W        W85562  31.549  33.311   1.258  0.2425  0.0646  0.2026
42547W        W85563  10.874  24.520  21.250 -0.3569  0.2134  0.0988
42548W        W85564   3.438  30.923  14.523  0.2116  0.3236 -0.0696
42549W        W85565  33.089  30.845  17.684 -0.0413 -0.0806  0.0639
42550W        W85566  23.532   5.355  22.344 -0.0774  0.0290  0.0056
42551W        W85567   1.173  29.564  17.663 -0.1000  0.0445  0.3326
42552W        W85568  33.961  26.125  15.147 -0.0432 -0.0351  0.0502
42553W        W85569   7.630  30.285   3.089  0.2265  0.0968 -0.1338
42554W        W85570  31.254  26.599  10.712 -0.3224  0.1618 -0.0097
42555W        W85571  28.607  18.679  24.059 -0.1342  0.0279 -0.0450
42556W        W85572  15.264  15.976  13.093 -0.1308 -0.3146 -0.3776
42557W        W85573   4.980  33.486  19.011 -0.2331 -0.2150 -0.0119
42558W        W85574   1.325  33.880  19.898 -0.1742 -0.2449  0.0559
42559W        W85575  32.543  25.025   4.509 -0.1380 -0.2522  0.1519
42560W        W85576  11.982  28.540  15.622  0.0180 -0.1763  0.2568
42561W        W85577  12.710  19.846  14.010  0.1256  0.3060 -0.1433
42562W        W85578  28.433  21.681  15.550 -0.0413 -0.0971  0.2097
42563W        W85579  10.507  10.488  26.587 -0.0044 -0.1149  0.0080
42564W        W85580  16.485   2.508  19.803  0.0205  0.0549  0.1479
42565W        W85581  26.616  18.572  22.100 -0.2960  0.0985  0.1812
42566W        W85582  25.452  32.925  14.891 -0.1530  0.0154 -0.4968
42567W        W85583  30.334  30.024   8.147 -0.3309 -0.3848 -0.0863
42568W        W85584  27.528  33.032  22.952 -0.0333 -0.1344  0.1718
42569W        W85585  31.291  16.588  26.273  0.0774  0.2816  0.2236
42570W        W85586   6.371   2.558  18.564  0.3428 -0.1781  0.2002
42571W        W85587  31.900   8.896  19.617  0.0720 -0.1392  0.2405
42572W        W85588  34.675  21.468  28.709  0.2758  0.1672  0.0004
42573W        W85589   0.350  31.076  18.598  0.1344  0.0875  0.2246
42574W        W85590  31.331  22.155  25.348 -0.2854  0.1726 -0.1050
42575W        W85591   1.339  25.442  21.019  0.0365 -0.1931  0.0464
42576W        W85592  27.169  27.479   3.627 -0.3924 -0.1365  0.1667
42577W        W85593  16.828  26.955  21.757  0.2668  0.1132 -0.2322
42578W        W85594   0.438  33.984  20.518 -0.2358  0.1019  0.0113
42579W        W85595  26.030  28.284  28.704  0.4190  0.1427 -0.2268
42580W        W85596  25.500  24.769   3.553  0.2692 -0.1420  0.2602
42581W        W85597   6.475  10.193  15.162  0.0411 -0.1226  0.0553
42582W        W85598  30.469  26.861  26.124 -0.1029  0.1112 -0.0018
42583W        W85599  27.417  27.749  16.051 -0.0661 -0.0877 -0.4063
42584W        W85600  30.286  25.474  21.787  0.0431 -0.2005 -0.0829
42585W        W85601  11.045  17.629  15.822  0.4143  0.0501  0.0301
42586W        W85602   8.722  26.159  22.969 -0.2097 -0.0937 -0.0369
42587W        W85603  26.406  16.540   0.774  0.1531  0.2827  0.1595
42588W        W85604  23.174  29.733  26.520  0.1991  0.0581  0.1998
42589W        W85605  31.833  32.092  22.563 -0.0176  0.0521  0.1591
42590W        W85606   7.391  27.461  19.251  0.1106 -0.0132 -0.0059
42591W        W85607  29.008   6.819  26.458 -0.0279 -0.0806  0.1540
42592W        W85608  34.011  33.063   5.870 -0.1400  0.2051 -0.2435
42593W        W85609  30.382  28.635   1.561 -0.0236 -0.0599  0.0731
42594W        W85610  19.752  22.631  22.239  0.0736  0.0195 -0.1225
42595W        W85611   7.930  33.166   1.304  0.0817 -0.0832  0.0227
42596W        W85612   6.553  29.246  20.980 -0.2516  0.1777 -0.2222
42597W        W85613  26.504   9.672  19.395  0.1476  0.1602 -0.2994
42598W        W85614  22.947   6.820  15.849  0.0857 -0.0850  0.0438
42599W        W85615   7.197   9.881  27.162 -0.2630 -0.0896  0.1214
42600W        W85616   7.047  26.089  16.052  0.1229  0.1315  0.0367
42601W        W85617  29.847  22.847  21.006 -0.1524  0.0969  0.1455
42602W        W85618  19.185  18.565  14.091  0.0797  0.0009 -0.2464
42603W        W85619  34.431  17.660  20.528 -0.1267 -0.0663  0.0148
42604W        W85620  10.087  30.956  19.472  0.0250  0.2558 -0.0319
42605W        W85621   6.723  28.797  15.943  0.3656 -0.0391  0.1484
42606W        W85622  25.142  18.571  21.922 -0.0710  0.1060  0.0621
42607W        W85623   5.880  25.324  18.523  0.0033 -0.0474 -0.0992
42608W        W85624  23.995  21.966  24.125  0.0251  0.1435  0.1282
42609W        W85625   5.842  25.820  18.580 -0.1500  0.0898  0.1023
42610W        W85626  26.143  23.221   7.124 -0.1835 -0.2995 -0.1899
42611W        W85627   1.030   1.065   4.474  0.0612  0.4146 -0.0103
42612W        W85628  29.113   0.850  16.146 -0.1464  0.3097  0.0523
42613W        W85629  24.606  24.658  27.927  0.0949  0.0537  0.2224
42614W        W85630   2.504  31.092  21.148 -0.2903 -0.1753  0.1164
42615W        W85631  27.033  25.391  24.005  0.0475  0.2586 -0.1152
42616W        W85632  27.984  21.558   3.188 -0.3296  0.2479  0.0615
42617W        W85633  27.267  31.646   3.022  0.1274 -0.1632 -0.0630
42618W        W85634   0.328  24.749  14.004 -0.0281 -0.1095  0.2290
42619W        W85635   0.008  33.262  18.916  0.1944  0.1897 -0.1940
42620W        W85636   1.265  21.733   8.528  0.1815  0.2371  0.1949
42621W        W85637   2.609  22.264   0.974  0.1913 -0.0985  0.2056
42622W        W85638   1.142  26.048  14.723 -0.2668  0.1563  0.1195
42623W        W85639  11.853  15.397  18.843  0.0332 -0.1420 -0.0151
42624W        W85640  24.670   4.312   1.704  0.1341  0.0786  0.0813
42625W        W85641   7.291  33.037  16.036  0.0538 -0.1802  0.1895
42626W        W85642  21.470  17.619  23.069 -0.2586 -0.3255 -0.1200
42627W        W85643   7.863   4.715  16.379 -0.0722  0.2069  0.1225
42628W        W85644  34.668  23.786   0.488 -0.0683  0.1142  0.1206
42629W        W85645  32.684  31.566  21.046 -0.2024 -0.2986 -0.2098
42630W        W85646  19.778  32.453  26.593 -0.0696  0.2451 -0.6562
42631W        W85647  13.182   2.956   0.637  0.0493  0.1597 -0.0572
42632W        W85648  23.428  16.878  13.739  0.0265 -0.0347 -0.1108
42633W        W85649   5.053  34.602  25.938  0.0228  0.1435  0.1994
42634W        W85650   5.790  25.687   2.832 -0.0039 -0.0089 -0.0362
42635W        W85651  15.066  31.553  18.596  0.0620 -0.0584  0.0673
42636W        W85652  33.158  29.876  17.135  0.1798 -0.0936 -0.1096
42637W        W85653  33.803   6.046  17.600 -0.2563 -0.1223 -0.0377
42638W        W85654  20.931  30.712   0.989 -0.0057  0.3124 -0.1607
42639W        W85655  25.442  22.812  17.681  0.0056 -0.2194 -0.0374
42640W        W85656   2.872   4.032  21.362  0.0320  0.1063 -0.1207
42641W        W85657  26.699  19.116  18.761 -0.4519  0.2652 -0.2985
42642W        W85658  31.461  33.095  10.232 -0.0040 -0.2023 -0.4749
42643W        W85659  33.991   0.318  26.970  0.0751  0.1641 -0.1253
42644W        W85660  19.197  31.713  20.556  0.1592  0.0648  0.1726
42645W        W85661  14.302  18.178  12.696  0.0682 -0.1706 -0.2358
42646W        W85662   7.292   4.300   4.976  0.0645  0.0373 -0.0736
42647W        W85663  28.312   7.440   6.857  0.3222 -0.0829  0.0966
42648W        W85664  29.559  25.471  22.312 -0.2264  0.0671  0.2028
42649W        W85665  26.694  26.657  27.393  0.0775 -0.0726 -0.0340
42650W        W85666  20.561  29.882   0.087  0.4460  0.2278 -0.0486
42651W        W85667  16.721  34.548   7.012 -0.1990 -0.1134 -0.3609
42652W        W85668   1.765  30.344  24.075 -0.0701 -0.1322  0.1006
42653W        W85669  19.933  13.780  23.325 -0.3675 -0.1013  0.3047
42654W        W85670  22.764  19.376  14.581  0.0558 -0.2411 -0.4010
42655W        W85671   1.917  17.958  24.228 -0.2091  0.3531  0.1087
42656W        W85672   4.322   3.570   5.003  0.1241  0.2171  0.1239
42657W        W85673   4.618  30.476  18.537 -0.0043  0.1685 -0.1656
42658W        W85674  28.174   4.214  21.992  0.4219 -0.1579 -0.0010
42659W        W85675   2.875  22.200  17.059  0.0194  0.2738 -0.0001
42660W        W85676  19.706  21.966  24.055  0.4368 -0.0059 -0.1113
42661W        W85677  22.989   8.489  25.481  0.1908  0.0139 -0.1607
42662W        W85678  28.874  24.404  23.424 -0.0004  0.1281  0.0279
42663W        W85679  26.024  31.467  17.240  0.2109  0.0073 -0.1930
42664W        W85680  31.527  25.127  23.078 -0.0546 -0.0299  0.3920
42665W        W85681  25.086  21.384  23.474  0.1111 -0.3776 -0.1860
42666W        W85682   0.817   0.370  15.712  0.1491  0.0674  0.0242
42667W        W85683  19.943  26.764   4.887  0.0990  0.0878  0.1585
42668W        W85684  23.762   9.390   4.440  0.3851 -0.0424 -0.0296
42669W        W85685  26.977  18.759  17.014 -0.3380  0.2307  0.2125
42670W        W85686  34.426  27.380  15.372 -0.3698  0.0816  0.1017
42671W        W85687   2.847  28.915  14.721  0.2018  0.0981 -0.2133
42672W        W85688  27.744   1.104  24.900  0.1415  0.0008 -0.0648
42673W        W85689  23.126  25.081  22.921  0.0937  0.1764 -0.1191
42674W        W85690  22.156  20.928  23.149  0.1440 -0.0141 -0.3357
42675W        W85691  33.574  31.680  25.838  0.0996 -0.1094 -0.0802
42676W        W85692  24.614  24.171  19.074  0.0639  0.0312  0.0420
42677W        W85693  26.185  27.081  26.264 -0.0681 -0.2326 -0.1097
42678W        W85694  24.837  18.930  25.352  0.2383 -0.1761  0.2909
42679W        W85695  28.193  32.818  17.638 -0.2910 -0.1534 -0.2145
42680W        W85696  26.458  28.445  28.464 -0.1251 -0.0702 -0.3442
42681W        W85697  23.968  30.831   3.221 -0.0213  0.0759  0.0851
42682W        W85698  33.529  16.614  17.996 -0.1316  0.0523  0.1380
42683W        W85699  32.313  21.755  19.246 -0.0571 -0.4991  0.2059
42684W        W85700  18.812   1.356  25.701 -0.0380 -0.1886  0.2023
42685W        W85701  34.120  17.796  15.503  0.3968  0.2161  0.0840
42686W        W85702   9.033   3.724  15.633  0.1142  0.0244  0.0484
42687W        W85703  24.650  15.042  15.901  0.0248  0.1194 -0.1038
42688W        W85704   2.081   0.502  26.664  0.0393 -0.0388 -0.0646
42689W        W85705  33.960  23.083  24.350 -0.1613  0.2432 -0.2406
42690W        W85706   1.350  14.078  17.586  0.1057  0.1321  0.2635
42691W        W85707  25.603  14.807  25.776 -0.0849  0.4814 -0.0715
42692W        W85708  27.715   3.996  26.957 -0.1731  0.2057  0.2080
42693W        W85709  27.854  27.550  17.403 -0.1198  0.0590 -0.3221
42694W        W85710   2.796  25.736   1.398  0.2269  0.1867  0.1274
42695W        W85711  32.933   5.243  17.106  0.0224 -0.1537 -0.2241
42696W        W85712   0.366  25.396  20.152  0.1369  0.1047  0.0361
42697W        W85713  30.661  33.063  25.204 -0.0180  0.2295 -0.0223
42698W        W85714   4.168   1.034   5.002 -0.0852 -0.0111 -0.0132
42699W        W85715  28.448  21.715  26.530 -0.2226  0.1315  0.1477
42700W        W85716   3.514  21.761  22.821 -0.2521  0.1985 -0.1226
42701W        W85717   6.018  28.481  19.688  0.0827  0.2371 -0.0179
42702W        W85718   0.372  28.255   1.192 -0.0187  0.1435  0.2030
42703W        W85719  23.431  15.821  19.723 -0.3202 -0.1296  0.2074
42704W        W85720   0.945   5.317  20.845  0.1073 -0.3109  0.1163
42705W        W85721  30.821   7.009  27.530 -0.1457 -0.0432  0.2494
42706W        W85722  29.962   6.963  16.210  0.2045  0.2633 -0.0044
42707W        W85723  30.748  29.509  18.939 -0.1244 -0.2905 -0.0049
42708W        W85724  23.338  23.232  28.882  0.1024  0.0110 -0.0606
42709W        W85725  32.375  23.563   4.706  0.1339  0.0969  0.0391
42710W        W85726  15.742  27.975  22.133 -0.1554  0.1607  0.1820
42711W        W85727   0.625  20.781  28.035  0.1159 -0.1828  0.2120
42712W        W85728  25.900  17.871  23.283  0.0252  0.1855 -0.1645
42713W        W85729  27.090  27.804   4.791 -0.4331  0.0727 -0.1045
42714W        W85730   1.538  23.198   4.190  0.0171  0.0577  0.0989
42715W        W85731  14.467  26.702  22.022  0.3785 -0.0735 -0.0035
42716W        W85732   1.395  18.352  23.887  0.0840  0.0947 -0.2522
42717W        W85733   7.933  24.249   0.419 -0.0067  0.1751  0.1456
42718W        W85734  21.062  32.660  25.067  0.2275  0.0768 -0.2402
42719W        W85735  16.564   3.366  29.303  0.0518  0.1097 -0.0122
42720W        W85736  16.496   9.212  20.255  0.0022 -0.0377 -0.1305
42721W        W85737  10.298  11.454   0.380  0.0966  0.1404  0.0059
42722W        W85738  22.665  30.491  16.662 -0.0478 -0.3748  0.0746
42723W        W85739  21.500   6.076   4.142 -0.0232 -0.1935  0.0898
42724W        W85740  18.833   9.586   2.190 -0.0588  0.0853 -0.2415
42725W        W85741  33.668  34.145  21.288 -0.2402 -0.0253 -0.3171
42726W        W85742   2.985   1.750  29.007 -0.0014 -0.0228  0.1618
42727W        W85743   8.627  22.373   1.978  0.3547  0.2304 -0.0575
42728W        W85744  25.596   5.491   9.726 -0.2937  0.0959 -0.1924
42729W        W85745  24.369  20.061   0.382 -0.0724 -0.1106 -0.2788
42730W        W85746  14.066  29.551  18.927  0.0805  0.0557 -0.0183
42731W        W85747  34.326  19.173  29.188 -0.2044  0.0140  0.0742
42732W        W85748  26.834  12.545  16.268  0.2018 -0.0894  0.0484
42733W        W85749  30.056  29.535   6.214 -0.1152  0.1716 -0.0619
42734W        W85750  21.546  28.191  28.913  0.0024 -0.0388  0.0029
42735W        W85751   8.494  23.480  23.720 -0.1054  0.2089  0.1135
42736W        W85752  26.858  24.657  18.460  0.1533 -0.0564  0.0006
42737W        W85753   9.639  26.477   4.676  0.2348  0.0025  0.3421
42738W        W85754   1.857   7.999  28.724 -0.0308  0.3231 -0.0613
42739W        W85755  26.225  21.024   2.992  0.0988  0.2051  0.1826
42740W        W85756  17.721  21.986  18.033  0.0044  0.1572 -0.1794
42741W        W85757  11.306   3.345   4.194  0.4817 -0.0363  0.6268
42742W        W85758  10.196   6.941  17.494 -0.2484  0.0274  0.0590
42743W        W85759  20.850  23.728  24.889  0.1519 -0.1705  0.0985
42744W        W85760   1.928  13.724  19.999  0.0354 -0.3045 -0.3177
42745W        W85761  21.021  16.552  20.480  0.2037  0.1182 -0.1350
42746W        W85762  31.256  10.466  14.784 -0.2725 -0.0381  0.1634
42747W        W85763  13.621   1.416  25.254  0.1326 -0.3058 -0.0457
42748W        W85764  33.737  17.844   4.313  0.2664  0.0376 -0.1234
42749W        W85765  14.398   6.661  28.503 -0.1902  0.4303  0.2004
42750W        W85766  25.886  24.363   1.185  0.0904 -0.2089  0.1292
42751W        W85767  27.924  19.476  25.612 -0.0390  0.2202 -0.2930
42752W        W85768  10.530  21.294  18.927 -0.2937 -0.0929  0.2640
42753W        W85769  18.170  30.136   7.902  0.0775  0.2293  0.0108
42754W        W85770   3.593   4.950  25.969 -0.2361  0.0790  0.2803
42755W        W85771  22.961   8.107  17.696  0.0388 -0.1252  0.1300
42756W        W85772  30.162  25.573  27.641  0.1346  0.0861 -0.3002
42757W        W85773   9.830  24.742  27.177 -0.2252 -0.1706  0.1377
42758W        W85774  31.746   8.182  25.514 -0.0318  0.4283  0.0798
42759W        W85775   7.625  28.145  17.786  0.1652 -0.0803  0.0025
42760W        W85776  21.273   6.768  15.120  0.2769  0.3713  0.0037
42761W        W85777  16.344   0.236   9.302  0.2770  0.1824 -0.1623
42762W        W85778   8.308  15.525  13.387  0.0259 -0.4257 -0.1227
42763W        W85779  19.298  22.665  22.545  0.0684 -0.0563  0.1195
42764W        W85780  32.252  29.526  17.141  0.0685  0.2402  0.4436
42765W        W85781  21.465  24.235  28.979  0.3972 -0.1720  0.0559
42766W        W85782   9.543  10.278   0.211  0.3031 -0.3128 -0.1520
42767W        W85783  18.205  20.786  24.520 -0.0148 -0.0473 -0.1467
42768W        W85784  22.976  33.984  29.082 -0.0009  0.1616 -0.1039
42769W        W85785  10.761   8.483  18.115 -0.1062 -0.0562 -0.0523
42770W        W85786  29.416  20.168   4.279  0.1841  0.0357 -0.0994
42771W        W85787  22.468  21.344  18.819  0.1338  0.1802  0.1644
42772W        W85788  30.893   3.687  17.293  0.2771 -0.0112 -0.3357
42773W        W85789  33.215  22.143  26.659 -0.0222  0.0867 -0.2757
42774W        W85790  26.256  26.428  18.111  0.3152 -0.1690 -0.4601
42775W        W85791  29.024  18.228  27.932 -0.0765 -0.1621  0.1860
42776W        W85792  29.848  27.610   1.542 -0.1554 -0.1096 -0.0284
42777W        W85793  31.296   2.891  16.669 -0.1082  0.0868 -0.0705
42778W        W85794  30.000  22.232  17.229 -0.1939  0.0084  0.0094
42779W        W85795  32.026  33.113  18.894 -0.0124  0.0723 -0.0396
42780W        W85796  15.319  18.257  25.707 -0.0708 -0.1125  0.1963
42781W        W85797  10.678  34.539  17.622  0.1525  0.2118 -0.0469
42782W        W85798  10.642  26.773  25.167  0.2884 -0.1351  0.0328
42783W        W85799   5.724  23.076  13.628 -0.2815 -0.0285 -0.1586
42784W        W85800  12.362  26.386   1.103  0.0062  0.0379 -0.0223
42785W        W85801   2.540  22.705  24.951  0.3246  0.0022 -0.0546
42786W        W85802  10.983  17.548  21.430  0.2063  0.1029  0.0991
42787W        W85803  23.860   0.542  19.082  0.2602  0.2142  0.1285
42788W        W85804  32.170   2.252  23.329 -0.2844 -0.1928 -0.0161
42789W        W85805  29.551  32.643  16.643  0.0807 -0.1044 -0.2102
42790W        W85806   3.904  27.077  27.742 -0.2886 -0.0150  0.1932
42791W        W85807  28.303  25.561  27.277  0.0386  0.1889  0.1970
42792W        W85808  27.718  24.708  21.327 -0.1881  0.2315 -0.0035
42793W        W85809  28.350  15.451  23.918  0.2581  0.1915 -0.1380
42794W        W85810  20.687  31.338  16.236  0.1181 -0.2602  0.0277
42795W        W85811  34.646  27.868   5.826  0.0517 -0.0160  0.1061
42796W        W85812  32.722  12.406  23.232 -0.1543 -0.3726  0.3126
42797W        W85813   8.876  29.068   6.168 -0.1114  0.0820 -0.1851
42798W        W85814  25.684  33.329  17.101  0.3083  0.1168 -0.1846
42799W        W85815  34.541  24.528  20.069 -0.2484  0.0420 -0.2646
42800W        W85816  31.597  28.030   9.323  0.1083 -0.3427  0.0190
42801W        W85817  26.513   2.008  22.696 -0.0757  0.1022  0.0468
42802W        W85818   7.656  10.579   1.102  0.0466  0.0651  0.2674
42803W        W85819  22.861  29.860  24.257  0.1655 -0.2931 -0.0147
42804W        W85820  30.336  19.548  26.784  0.2679 -0.1022 -0.1221
42805W        W85821  31.048  31.468  17.614  0.0212  0.1085  0.1764
42806W        W85822  32.975   1.229  23.453 -0.0275  0.1062  0.1427
42807W        W85823   4.568  12.704   6.855  0.1122  0.2170  0.0280
42808W        W85824  34.260   5.204   7.865 -0.2043  0.1386 -0.1948
42809W        W85825   1.295  11.509   6.700 -0.1685 -0.2483 -0.3533
42810W        W85826   7.549  21.054  18.576  0.1950 -0.1256 -0.0403
42811W        W85827  24.053  31.821  16.065 -0.2639  0.0828 -0.0908
42812W        W85828  29.434   0.337  19.006 -0.0299 -0.2019 -0.1188
42813W        W85829  33.796  14.474  27.424  0.2453  0.1981  0.1816
42814W        W85830   4.520  19.211  27.767 -0.0854 -0.0666  0.1147
42815W        W85831  24.341  27.389   0.846 -0.3875  0.3055 -0.0546
42816W        W85832  32.085  26.103  27.525 -0.0312 -0.3936  0.1972
42817W        W85833  23.518  28.018  23.723  0.1226  0.0789  0.2867
42818W        W85834  17.290  27.583  28.034  0.1218 -0.1306  0.0863
42819W        W85835  17.181  27.998  29.070 -0.2025  0.2328 -0.0190
42820W        W85836   8.982  33.895  28.021 -0.3510  0.0191  0.1860
42821W        W85837   1.743   9.822  23.773 -0.2097 -0.1360 -0.0187
42822W        W85838  32.269   4.313   3.684  0.0787 -0.0695 -0.0406
42823W        W85839   6.695  16.503  17.449  0.1326  0.2389 -0.1125
42824W        W85840  33.626  27.036   1.414  0.1250  0.4413 -0.2964
42825W        W85841  24.713  33.012  21.503  0.1972 -0.1542  0.1008
42826W        W85842   4.444  10.807  14.965 -0.1317 -0.1074 -0.0821
42827W        W85843  34.700   4.367   9.693 -0.0199  0.0852 -0.3072
42828W        W85844  32.393  12.762   4.119  0.2971  0.2431  0.1357
42829W        W85845   8.422  19.860   0.097  0.2082 -0.0444 -0.1308
42830W        W85846   5.120  32.219  18.171  0.2192  0.2368 -0.0740
42831W        W85847   8.954   7.474  28.658 -0.1621 -0.1140  0.3330
42832W        W85848  23.033   2.540   4.414 -0.1320 -0.0618 -0.0060
42833W        W85849  22.207  28.757   7.706 -0.1536  0.0386 -0.0864
42834W        W85850   2.542  20.594   3.716 -0.2205 -0.0846  0.1293
42835W        W85851  28.054  26.236  15.762 -0.0131 -0.1622 -0.0142
42836W        W85852  13.036   2.893  17.791  0.1803  0.2248 -0.1651
42837W        W85853  11.000  11.083  15.079  0.0676  0.2065 -0.0836
42838W        W85854  26.500  29.472  19.825 -0.0973 -0.3483  0.0339
42839W        W85855  24.947   6.600  22.295 -0.0319 -0.1385  0.0139
42840W        W85856  33.823  16.201   5.840 -0.1512 -0.1545  0.2115
42841W        W85857  25.124  23.388  10.502  0.0846 -0.1676  0.2578
42842W        W85858  25.636   0.566  21.461 -0.0696  0.1823  0.0965
42843W        W85859  33.546   0.843  17.792 -0.0469 -0.3061 -0.2017
42844W        W85860  18.641  28.344  20.297  0.0923  0.2797 -0.2769
42845W        W85861  33.135  31.434  10.037 -0.0268  0.0835  0.0624
42846W        W85862   0.632  22.201  26.751 -0.1134 -0.1456  0.2693
42847W        W85863  29.078  34.401  20.261 -0.0796 -0.0299 -0.0727
42848W        W85864   1.498  12.291   0.074  0.0776 -0.0898 -0.1881
42849W        W85865  28.175  15.949  16.169 -0.1823 -0.1503  0.0900
42850W        W85866   4.301  26.518  19.421 -0.1976 -0.0905  0.2904
42851W        W85867  29.981  28.239  22.923  0.2046 -0.1424  0.0294
42852W        W85868   5.350   0.937  16.378  0.0786  0.0914  0.2061
42853W        W85869   2.031  28.360   1.019  0.0039 -0.1574 -0.0037
42854W        W85870  27.433  27.924  22.694  0.4656  0.0346 -0.1266
42855W        W85871  34.742  34.511  10.032  0.1541 -0.0301 -0.0503
42856W        W85872   0.915  28.500  27.408  0.1241  0.1579 -0.0130
42857W        W85873  26.137   7.372  20.402 -0.0830 -0.0295  0.0417
42858W        W85874  27.856  22.775  16.151 -0.0891  0.1346  0.4430
42859W        W85875  19.162  24.304  14.457  0.1004  0.3683  0.2001
42860W        W85876  18.867   4.947   6.774 -0.0362  0.3408 -0.0008
42861W        W85877  25.603  13.732  23.886 -0.0074 -0.0032  0.1193
42862W        W85878  30.315  20.425  10.021 -0.1751  0.1171 -0.3378
42863W        W85879  27.873  28.477  16.378 -0.0528  0.0451 -0.4121
42864W        W85880  28.219  20.748   7.474 -0.3201  0.2680  0.3621
42865W        W85881   0.087  23.923  26.058  0.0696 -0.2803  0.0391
42866W        W85882  23.270  30.073  20.250  0.2083 -0.3476  0.0024
42867W        W85883  29.802  19.683  18.324 -0.0170  0.1555 -0.3106
42868W        W85884  27.527  18.066  24.591  0.1536 -0.0140  0.1844
42869W        W85885  33.409  22.707   2.015 -0.0378 -0.2140  0.0664
42870W        W85886  22.510  28.953   2.589  0.1356 -0.1931 -0.1964
42871W        W85887  10.076  12.242  17.016 -0.0312 -0.0418 -0.1553
42872W        W85888   1.074   3.663   8.262 -0.1757  0.1428  0.0726
42873W        W85889  26.360  17.397  17.130  0.1108  0.0979 -0.2185
42874W        W85890  31.350  24.992  23.949 -0.2061  0.1704  0.4044
42875W        W85891   2.590  16.438  28.083 -0.2144  0.0773 -0.3053
42876W        W85892   1.639   5.640   9.889  0.2535 -0.2470  0.0162
42877W        W85893  21.359  26.489   0.861  0.0424  0.1358 -0.0860
42878W        W85894  14.578  33.120   7.217 -0.1731 -0.3154 -0.0721
42879W        W85895   0.712  33.731  15.350  0.0651  0.0252  0.1782
42880W        W85896  15.895  28.917  21.776  0.2447  0.0096 -0.2055
42881W        W85897  29.357  17.306  24.974  0.0112  0.1342 -0.2423
42882W        W85898  11.396  20.819  23.433  0.2229  0.1028  0.0322
42883W        W85899  24.194  26.284   5.339  0.2094  0.1936  0.1288
42884W        W85900   1.839   5.237  17.080  0.2340  0.3543 -0.2210
42885W        W85901   0.945  34.691  25.844  0.0749 -0.1958  0.1867
42886W        W85902  19.269   9.654  20.222  0.0075 -0.0896 -0.0956
42887W        W85903   5.356   3.765   5.586  0.2735 -0.3277 -0.1552
42888W        W85904  32.630  26.134  26.362 -0.2307 -0.1294 -0.1246
42889W        W85905  34.083  32.969  16.156  0.0650  0.1689  0.2494
42890W        W85906  27.016  27.103   7.148 -0.0030  0.2175  0.0580
42891W        W85907   8.238   9.509  16.095  0.0608 -0.0734  0.2921
42892W        W85908  22.323  31.548   8.452  0.1604  0.0537  0.0476
42893W        W85909   3.604  29.951  14.753  0.5844 -0.0433 -0.2909
42894W        W85910  29.735  13.662  28.524 -0.0613  0.1710  0.0710
42895W        W85911   9.442  33.373  26.431  0.0167  0.1120  0.3206
42896W        W85912  18.297  20.641  13.636 -0.2681 -0.0237 -0.0714
42897W        W85913  10.580  15.468   0.848  0.0421 -0.1700 -0.1174
42898W        W85914  31.624   4.251  29.252  0.1413  0.0684  0.0534
42899W        W85915  27.168  34.479   2.109  0.3093 -0.0609 -0.2698
42900W        W85916  18.734  17.475   2.669  0.2149 -0.0746 -0.1572
42901W        W85917   2.982  32.770  24.891 -0.3679 -0.0882  0.1821
42902W        W85918  14.549  19.011   5.238  0.0653  0.0976 -0.1230
42903W        W85919  26.817  21.930  19.176  0.0658 -0.3241 -0.1609
42904W        W85920   1.283  34.546  22.229 -0.0128  0.2920  0.4830
42905W        W85921  33.656   2.520  20.369  0.0349  0.1064 -0.0522
42906W        W85922   4.814  34.279  18.530 -0.0864  0.2868 -0.0354
42907W        W85923  32.987   1.145   1.007  0.3381 -0.2151 -0.2036
42908W        W85924  30.480   0.025  19.415  0.0942 -0.2142  0.0467
42909W        W85925  22.716  31.286  15.952  0.0902  0.1376 -0.0105
42910W        W85926  23.451   3.023   2.821 -0.1352  0.1405  0.0424
42911W        W85927  31.593  34.306  19.869 -0.1086  0.0373 -0.0696
42912W        W85928  28.987  17.192  19.047 -0.2287  0.0477 -0.0738
42913W        W85929  28.044  21.936  22.214 -0.1454 -0.0585 -0.3750
42914W        W85930  29.750  17.179  24.551  0.1139  0.4093 -0.0017
42915W        W85931  19.181   6.273  25.347 -0.0755  0.3186 -0.3855
42916W        W85932  34.663  18.628   5.368  0.0386 -0.1798 -0.0054
42917W        W85933  33.347   8.953  16.814  0.1863  0.2581 -0.2653
42918W        W85934  34.262   1.172  18.307 -0.0949  0.1613  0.4110
42919W        W85935  27.824  12.400  17.234 -0.2212 -0.0309  0.0331
42920W        W85936  12.219  25.257  26.754  0.0810  0.2133  0.1240
42921W        W85937  27.272   6.864  23.938 -0.0526 -0.0729 -0.0628
42922W        W85938  26.773  19.482   9.118  0.0314 -0.1190 -0.2895
42923W        W85939  32.577  27.816   0.640  0.1272  0.0867  0.1314
42924W        W85940   4.952  28.573   9.840  0.1414 -0.1809 -0.0822
42925W        W85941  17.445  16.565  15.454 -0.2219  0.2205  0.3686
42926W        W85942  27.281  13.476  15.854 -0.0367  0.1255 -0.0662
42927W        W85943  33.346  25.996  15.534 -0.3114  0.1876 -0.0626
42928W        W85944  16.300  24.883  16.139 -0.0746 -0.1562 -0.0949
42929W        W85945  33.049  20.350  28.592  0.0220 -0.0357 -0.3818
42930W        W85946  10.198   1.171   3.297  0.2575 -0.2931  0.0789
42931W        W85947   8.651  18.932  20.974 -0.2729  0.2285  0.1761
42932W        W85948  26.868  21.798  18.124  0.1962 -0.0742 -0.0301
42933W        W85949  21.448  15.379   0.803 -0.0201 -0.1857  0.2594
42934W        W85950   6.814  28.872  16.846 -0.0897 -0.2063  0.2566
42935W        W85951  28.721  13.549  21.261 -0.2239 -0.2582 -0.2204
42936W        W85952   5.174  24.021   4.971  0.0718  0.1199  0.3246
42937W        W85953  30.587  31.115  24.536  0.3420 -0.2164 -0.1537
42938W        W85954  24.372  13.909  20.390 -0.1813  0.2534  0.3653
42939W        W85955  25.459  25.738  24.679 -0.3591  0.2625  0.2355
42940W        W85956   1.664  15.993  28.612  0.2310  0.0893  0.2968
42941W        W85957  26.720   9.618  18.097 -0.1300 -0.1296 -0.0835
42942W        W85958  27.865   1.567  23.242 -0.2014  0.1976  0.0934
42943W        W85959   2.514  18.250  29.153  0.2510  0.0399 -0.0186
42944W        W85960  12.351  20.772  27.486 -0.0304 -0.0497  0.0750
42945W        W85961  22.962  23.705  26.879  0.1392  0.0506 -0.2705
42946W        W85962  22.174  34.641   7.852 -0.0871  0.2922 -0.2574
42947W        W85963   0.622  30.632  29.002 -0.0375  0.0130  0.2683
42948W        W85964  19.434  27.072  13.873 -0.0977  0.1600 -0.1782
42949W        W85965  22.593  20.714  22.211 -0.0455  0.1448  0.0851
42950W        W85966   9.055  31.639   8.104 -0.3506 -0.0021  0.3710
42951W        W85967  22.088   5.659  24.075 -0.1488  0.2906 -0.1789
42952W        W85968  19.818   8.246  22.930 -0.0780  0.3171 -0.0145
42953W        W85969  16.041  16.475   8.535  0.1770 -0.0094  0.1382
42954W        W85970  31.253  16.373   0.406 -0.0576  0.2447  0.1988
42955W        W85971  34.654   8.338   0.153  0.0800 -0.3195 -0.2528
42956W        W85972  32.971  31.681   7.146 -0.3689 -0.0751 -0.2697
42957W        W85973  25.738  30.061  16.778 -0.0600 -0.1432 -0.0035
42958W        W85974  28.036  21.577  26.922  0.1661 -0.0114  0.0199
42959W        W85975  14.586  21.399  26.237  0.0063 -0.0967  0.0827
42960W        W85976  22.322  20.138   3.304  0.2061 -0.3357  0.2660
42961W        W85977   0.155  31.143  26.632 -0.2004  0.0076  0.0958
42962W        W85978  19.192  27.619  28.703  0.0890  0.2091 -0.0999
42963W        W85979  20.807  27.515  18.160  0.0366  0.1001 -0.1556
42964W        W85980  30.971  24.420   2.660  0.0027 -0.2463  0.2444
42965W        W85981  11.582   9.446  29.028 -0.1699  0.2050  0.0712
42966W        W85982  20.592  23.311   6.229 -0.0805 -0.0029  0.2057
42967W        W85983  27.155  22.939  27.081  0.0891 -0.1777  0.2533
42968W        W85984  29.377  14.723  28.920  0.0644  0.0296 -0.0970
42969W        W85985  32.765  30.203   5.662 -0.2995  0.0194  0.1681
42970W        W85986  31.788  16.694   1.904 -0.2050  0.0842 -0.1523
42971W        W85987  20.514   2.493  17.754  0.0348 -0.0129  0.3148
42972W        W85988  13.686  25.223   0.893 -0.1973  0.0560  0.0101
42973W        W85989  31.949   4.954   3.204  0.1125 -0.0210 -0.0623
42974W        W85990  20.674   1.716  28.651 -0.2934  0.2702  0.0813
42975W        W85991  10.495  31.724   1.333  0.0363 -0.5079 -0.2580
42976W        W85992  21.773  25.657  28.186  0.2844 -0.0445 -0.0847
42977W        W85993  16.564   0.368  26.088 -0.0252 -0.0071 -0.1164
42978W        W85994   3.951  20.298  19.561  0.3666 -0.0166  0.1354
42979W        W85995   3.523  11.298   3.512  0.0459  0.1384 -0.0134
42980W        W85996  30.410  18.383  20.364  0.1256  0.1135  0.1895
42981W        W85997  27.614  29.743  20.791  0.5677 -0.3140 -0.1123
42982W        W85998  25.513  22.812   2.121 -0.0616  0.3593  0.2694
42983W        W85999  26.255  18.348  18.195  0.2679  0.1792 -0.5385
42984W        W86000  27.231  22.304  16.424  0.0479  0.1062  0.3149
42985W        W86001  33.398  28.464   7.639 -0.4583 -0.0067 -0.0571
42986W        W86002  30.950  12.542  17.486  0.2230 -0.2099  0.0320
42987W        W86003  10.481  12.965  19.560 -0.1314  0.4640  0.1163
42988W        W86004  16.547  21.528  20.279  0.0511 -0.0782 -0.1396
42989W        W86005  25.946   1.335   9.131 -0.1883 -0.0524 -0.0578
42990W        W86006  27.434  22.413  26.320  0.0466 -0.0448 -0.0230
42991W        W86007  24.732  11.352   9.686 -0.0112 -0.0733 -0.2291
42992W        W86008  27.996   7.069  17.206 -0.0841 -0.0998 -0.1555
42993W        W86009  32.782  23.984   7.970 -0.2902 -0.2973 -0.0804
42994W        W86010   3.416  15.347  17.944  0.1715  0.0947 -0.2839
42995W        W86011  27.884  32.660  28.208  0.2009 -0.1086  0.1313
42996W        W86012  11.596  22.581  21.375 -0.0986  0.2284 -0.0043
42997W        W86013  29.277   4.846  16.717 -0.2406 -0.0934  0.1635
42998W        W86014  23.158  27.227  15.887 -0.1413 -0.1263  0.1676
42999W        W86015  32.558   1.257  16.336  0.0806 -0.3168 -0.1011
43000W        W86016  24.457  33.409   8.885 -0.3244 -0.0740 -0.2663
43001W        W86017  27.955  26.532   1.286  0.0244 -0.2633 -0.1102
43002W        W86018   0.535  25.577  13.810 -0.0884 -0.0031  0.1028
43003W        W86019   3.780  16.793   8.887  0.0294 -0.1430  0.0481
43004W        W86020   1.538   4.530  28.130 -0.0854 -0.0135 -0.1308
43005W        W86021  27.779  28.972   2.290 -0.0050 -0.1628 -0.1304
43006W        W86022  33.498  26.986  23.477  0.3094  0.0029 -0.0466
43007W        W86023   2.559  27.355   2.238 -0.0832  0.2470 -0.4580
43008W        W86024   1.177   2.493   1.691 -0.1042 -0.1784 -0.0139
43009W        W86025  31.131   2.877  21.364  0.0626  0.0703  0.0579
43010W        W86026  29.181  28.831  21.795  0.0943  0.0863 -0.0520
43011W        W86027  24.112  23.669  18.237 -0.3438  0.2589  0.0865
43012W        W86028  30.387  23.448  26.131 -0.2206 -0.1554 -0.2461
43013W        W86029   2.591  28.380   0.785 -0.3044 -0.1598  0.0156
43014W        W86030   3.587  11.183   9.412  0.0862 -0.0463 -0.0329
43015W        W86031  32.266  14.313  21.158  0.1803 -0.0274 -0.0258
43016W        W86032  22.059  32.716   0.462 -0.2566  0.0790 -0.1114
43017W        W86033  32.030   0.420  15.818 -0.0971  0.2094  0.3956
43018W        W86034   1.849  18.834  16.609  0.2573  0.0985  0.2975
43019W        W86035   1.535  20.010  20.964  0.0488 -0.0452  0.3417
43020W        W86036  22.132   3.022  15.385 -0.0815  0.0856 -0.1401
43021W        W86037   1.281  25.525  27.922 -0.0486  0.0025 -0.2111
43022W        W86038   7.850  13.658  28.949  0.0108 -0.1846 -0.0626
43023W        W86039  33.569  30.785  16.334  0.2508  0.1858  0.1259
43024W        W86040   2.586  11.482   1.427  0.1519 -0.0596  0.0506
43025W        W86041  31.309   4.098  26.198  0.2250 -0.3336 -0.0688
43026W        W86042  22.310  24.061  23.732 -0.2487 -0.1137 -0.2940
43027W        W86043  25.765  31.654  24.988  0.1457 -0.1946  0.3310
43028W        W86044  22.002  17.404  20.602  0.2245  0.0633 -0.0919
43029W        W86045  27.525  14.361  21.604 -0.1559  0.2310 -0.0099
43030W        W86046  25.208  10.709  15.699  0.1676  0.1727 -0.1823
43031W        W86047  26.645  25.136   9.204  0.0127  0.1336 -0.0085
43032W        W86048  10.784  23.015  23.943 -0.0856 -0.3534 -0.1443
43033W        W86049  24.713   2.569   4.415 -0.0052 -0.2179 -0.2062
43034W        W86050  28.524  17.499  22.015 -0.0371  0.6126  0.1842
43035W        W86051   6.197  22.045  22.039 -0.2507 -0.0055 -0.0981
43036W        W86052  29.929  30.244  26.312 -0.2277  0.0764 -0.1157
43037W        W86053   0.594  13.305  10.203  0.0929 -0.4455  0.0791
43038W        W86054   1.698   0.736  21.904  0.0799 -0.1040 -0.0415
43039W        W86055   5.450   1.962  21.200  0.2612 -0.1224  0.0823
43040W        W86056  18.491   6.926  21.426 -0.1271  0.1004  0.1459
43041W        W86057  14.874  21.986  24.582  0.3329 -0.0453  0.1729
43042W        W86058  29.639  16.231  19.226 -0.0912 -0.1567  0.3716
43043W        W86059  28.223  16.762  16.680 -0.3670 -0.2793 -0.1825
43044W        W86060  25.475  27.336   1.973  0.1994 -0.0130  0.2229
43045W        W86061  15.406  25.005  16.934 -0.4259 -0.1634 -0.0029
43046W        W86062  18.456  33.029   2.386 -0.0235  0.1867 -0.2189
43047W        W86063  18.065   9.921  18.985 -0.1364  0.0103  0.4057
43048W        W86064   0.637  26.909   3.005  0.0546 -0.0953 -0.1850
43049W        W86065   3.381  27.075   2.995  0.0331 -0.0904  0.1867
43050W        W86066  32.418  17.146  16.226 -0.0294  0.1562 -0.0312
43051W        W86067  11.102  14.363  12.919  0.3232 -0.1155 -0.2032
43052W        W86068  28.744  10.346  15.975 -0.3510  0.0736  0.0838
43053W        W86069   1.194   3.480   5.065 -0.1240 -0.1027 -0.3064
43054W        W86070  13.232  23.733   1.576 -0.0346 -0.4282 -0.0381
43055W        W86071   4.254   1.421  17.202 -0.0249  0.2234 -0.1937
43056W        W86072   0.114   7.087  25.101  0.0883 -0.0047  0.0257
43057W        W86073   9.381  31.812  14.797 -0.0781 -0.2755  0.1116
43058W        W86074  33.595  16.531  16.478 -0.0266 -0.0028 -0.1078
43059W        W86075  31.865  27.223  24.866  0.1244 -0.2801  0.2394
43060W        W86076  33.315  16.433  19.782 -0.0334  0.2320 -0.1319
43061W        W86077  34.158   8.647   5.945 -0.3303 -0.0471 -0.2707
43062W        W86078  17.988  29.308  18.222  0.0833  0.2693  0.2542
43063W        W86079  26.512  27.974   9.695  0.0033 -0.2446 -0.0886
43064W        W86080   0.531  24.769   2.134 -0.0839 -0.1598  0.1585
43065W        W86081  10.815  28.998   1.216  0.0256  0.2355 -0.0224
43066W        W86082   1.244   4.685  27.636 -0.1514 -0.1046  0.3026
43067W        W86083  27.903   0.911  23.323 -0.0679 -0.1629 -0.1941
43068W        W86084  23.342  26.891  19.230  0.0454 -0.0414  0.1859
43069W        W86085  11.903  19.069  17.695  0.1459 -0.1751  0.2117
43070W        W86086   6.010  25.969  21.309  0.0324 -0.4151 -0.0729
43071W        W86087  23.296  26.698  16.927  0.2317 -0.0120 -0.1821
43072W        W86088   4.081  22.878  18.894 -0.1612 -0.1217 -0.0120
43073W        W86089   6.271  18.490  15.017  0.0885  0.1181 -0.0391
43074W        W86090   7.818  29.040   0.669  0.0248  0.1952 -0.2138
43075W        W86091  30.028   6.909  24.666  0.3635 -0.1152  0.1126
43076W        W86092   8.010   4.932  28.971 -0.0861  0.0165  0.0477
43077W        W86093   4.822   2.916  27.211  0.2353  0.3216  0.1239
43078W        W86094  21.872  25.611  20.612 -0.1060 -0.0739 -0.1022
43079W        W86095  27.799  25.011  22.500 -0.0530  0.2853 -0.1385
43080W        W86096  18.838  22.063  24.818  0.1777 -0.1191 -0.1586
43081W        W86097  25.921  32.481  18.289 -0.2151 -0.1436 -0.1058
43082W        W86098  15.665  29.717   1.915 -0.2779 -0.2147  0.4533
43083W        W86099  28.126  31.084   1.160 -0.0113 -0.2292 -0.1279
43084W        W86100  30.249  34.669  21.400  0.2001 -0.0182  0.2893
43085W        W86101  33.604  27.059  21.719  0.1310 -0.3196  0.0708
43086W        W86102   3.024  31.441  23.578  0.2772  0.3487 -0.2679
43087W        W86103  30.214  29.681  16.684  0.1158  0.2237  0.0220
43088W        W86104  26.166  33.343  27.551  0.0142  0.1289 -0.0827
43089W        W86105   6.069  17.630  19.094 -0.0562  0.1182  0.0327
43090W        W86106   1.117  31.467  15.652  0.2672  0.1211 -0.0918
43091W        W86107  24.429  24.998  17.556  0.0094  0.2762 -0.1025
43092W        W86108   4.363  16.240  23.783  0.0121  0.1910 -0.0815
43093W        W86109  23.109  21.754   9.096 -0.0272 -0.2204  0.0909
43094W        W86110   2.554  18.779  14.969 -0.3838 -0.2245  0.1656
43095W        W86111  16.801  24.975  23.461  0.0446 -0.0928 -0.1444
43096W        W86112  29.071  30.825  10.506 -0.2379 -0.0637  0.0206
43097W        W86113   5.045  14.159  20.735 -0.0031  0.3758  0.1042
43098W        W86114   8.047  11.235  19.029 -0.1262 -0.0693  0.1859
43099W        W86115  10.864  15.539   3.969  0.4141  0.3860 -0.2004
43100W        W86116   2.627  19.740  13.550  0.0670  0.3221  0.0194
43101W        W86117  29.687  12.342  14.906 -0.0109  0.0675  0.0936
43102W        W86118  28.104  20.109  21.306 -0.0237  0.1510  0.0203
43103W        W86119   5.032   0.099   2.368 -0.0225 -0.0264  0.0877
43104W        W86120  25.261   4.391  28.381  0.3859  0.1035  0.1162
43105W        W86121  29.540   0.093  23.385  0.0870 -0.0781  0.0833
43106W        W86122  26.017  27.966   9.974 -0.2136  0.1674 -0.3285
43107W        W86123   8.509  14.061  24.169 -0.0126 -0.0570  0.2884
43108W        W86124   3.382  28.106  23.427 -0.0600  0.1545 -0.2466
43109W        W86125   7.202  14.311   4.189 -0.1289  0.0317  0.1063
43110W        W86126   6.877  20.009  22.792 -0.1003  0.0216 -0.1420
43111W        W86127  15.837  19.959   0.294  0.0650  0.2680 -0.0221
43112W        W86128   6.826  24.043  27.941  0.1925  0.3144  0.0090
43113W        W86129  30.224  19.566  28.595 -0.1787  0.2079  0.2687
43114W        W86130  25.865   4.202  25.502  0.2693 -0.1364 -0.0105
43115W        W86131  34.767   9.556  21.627  0.0450  0.0563  0.0966
43116W        W86132  34.298  24.381   5.936  0.1365  0.0359 -0.1674
43117W        W86133  34.234  25.041  15.414  0.0721 -0.1684 -0.0594
43118W        W86134  14.754  23.175   5.297  0.1645  0.1238  0.0579
43119W        W86135  23.113  19.282   8.831 -0.3712 -0.2514  0.0047
43120W        W86136  26.047   4.284  15.570  0.1949  0.1761 -0.0553
43121W        W86137   4.429  31.233  19.862 -0.0194 -0.0584 -0.0764
43122W        W86138  28.803  21.649   2.644  0.1368 -0.0730  0.0315
43123W        W86139  26.113  10.584   8.239 -0.4143 -0.1163 -0.2019
43124W        W86140   3.476  21.329  18.610 -0.0172  0.1682 -0.3381
43125W        W86141  23.028  10.280  25.799  0.1348 -0.0489  0.0441
43126W        W86142  21.996  21.630  16.570 -0.1890 -0.1135  0.0508
43127W        W86143  17.509   0.596  10.776  0.0659  0.0998 -0.2450
43128W        W86144  28.305   5.565   3.285  0.1699  0.0135 -0.0927
43129W        W86145   4.162  15.470   1.132  0.0056 -0.0516  0.2364
43130W        W86146   9.997  11.394  23.361  0.2921  0.2802 -0.0389
43131W        W86147  25.765  33.693   2.854 -0.2064  0.0782  0.3412
43132W        W86148   7.413  18.604  17.127  0.0039  0.0899  0.1002
43133W        W86149  29.348   5.209  15.386  0.0813  0.1468  0.1155
43134W        W86150  13.887   8.183   5.833 -0.0437  0.1212  0.1183
43135W        W86151  33.244  29.030   2.650 -0.2490 -0.5594  0.0288
43136W        W86152   8.595  22.729   1.064 -0.0842  0.1569  0.1300
43137W        W86153  25.506   4.953   9.721  0.2278  0.0043 -0.4382
43138W        W86154   0.785  28.673  15.828 -0.2302 -0.1568 -0.0660
43139W        W86155   7.365  27.387   9.187 -0.0044 -0.1948  0.1287
43140W        W86156   4.752  21.937  25.711 -0.0061 -0.2982  0.2320
43141W        W86157   4.966  22.823  19.761 -0.1197  0.0321  0.1611
43142W        W86158   3.674   0.879   6.045 -0.2098 -0.0037 -0.2073
43143W        W86159  17.267  31.422  27.144  0.2447  0.1483  0.0960
43144W        W86160  33.431  30.454   9.989  0.1198  0.1577  0.0929
43145W        W86161  11.009  25.250   5.755  0.1242 -0.0902 -0.0287
43146W        W86162   1.115  29.710  26.763  0.2638  0.2181  0.2817
43147W        W86163   8.870   0.553  19.805 -0.0232  0.0641  0.0405
43148W        W86164  14.435  22.629  24.967  0.1918  0.0152 -0.3463
43149W        W86165  21.187  26.489  13.654  0.1941 -0.3638 -0.2676
43150W        W86166  10.307  30.272  15.359 -0.1457  0.0148 -0.0304
43151W        W86167  28.278  19.273   6.391 -0.2996 -0.2138 -0.0898
43152W        W86168  15.100  22.116   1.302 -0.0707 -0.0261 -0.0494
43153W        W86169  19.750   4.315   1.182 -0.0714 -0.0616 -0.4067
43154W        W86170   3.175  28.458  23.130 -0.0631  0.2294  0.2080
43155W        W86171  27.465  22.794  19.451  0.0705 -0.2227 -0.0628
43156W        W86172   2.180  29.649   5.408  0.0504  0.3496  0.5062
43157W        W86173  23.331  12.604  28.788 -0.1263  0.3860 -0.0114
43158W        W86174   3.921  33.002   5.186  0.0182  0.1526 -0.0383
43159W        W86175  10.018  34.563   3.832 -0.2778  0.1557  0.0021
43160W        W86176   8.215  31.568   4.090 -0.2677  0.0574 -0.1056
43161W        W86177  13.201  33.257  24.159 -0.1425 -0.4147 -0.0197
43162W        W86178  29.957   3.825  21.035  0.1341 -0.0601  0.0820
43163W        W86179  33.176   2.203  26.727 -0.0593  0.1392 -0.1696
43164W        W86180  10.753  24.198   8.051  0.1954  0.0406 -0.0818
43165W        W86181  17.310  12.810   5.380 -0.1486  0.0169  0.1840
43166W        W86182   3.708  14.988  28.097 -0.0624  0.2151  0.3743
43167W        W86183   9.598  18.279   6.315 -0.1230 -0.0101  0.0561
43168W        W86184   0.506  13.866   6.679  0.0765  0.0688 -0.1150
43169W        W86185   8.407   5.491  15.470  0.1051  0.0256 -0.2227
43170W        W86186  15.913  26.927  23.794  0.0826 -0.2975 -0.4789
43171W        W86187  28.709  10.691   0.156  0.1066  0.3182 -0.1256
43172W        W86188   2.110   9.518   7.156 -0.0206  0.2818 -0.2272
43173W        W86189  20.831  20.843  12.897 -0.1431  0.1359 -0.1870
43174W        W86190  29.690  13.973  17.894  0.2285  0.1451 -0.4691
43175W        W86191  32.846  23.653   6.801  0.2843  0.2462  0.1604
43176W        W86192   3.680  21.604  29.174 -0.3378 -0.1096 -0.0604
43177W        W86193  20.433  22.930   0.731 -0.0468 -0.1733  0.0160
43178W        W86194  34.075  24.880   2.897 -0.1114 -0.1277  0.0536
43179W        W86195  24.398  31.214  28.230  0.0801 -0.2042 -0.3114
43180W        W86196  25.242  16.729  24.442 -0.2529  0.1736  0.0042
43181W        W86197   7.888  28.821  24.823 -0.2361 -0.1070 -0.1730
43182W        W86198  19.841   0.343  26.049  0.1613  0.1201  0.0512
43183W        W86199  33.813  33.658  26.676 -0.4392 -0.0214  0.0838
43184W        W86200  32.591  18.208  25.184 -0.1108 -0.1319 -0.0388
43185W        W86201  34.166  34.016  17.043 -0.2114  0.0580  0.0746
43186W        W86202  28.119  16.071   0.567  0.3942  0.1996  0.0815
43187W        W86203  30.244  20.107  11.073  0.1547  0.0452  0.0336
43188W        W86204   7.090  21.851   9.363 -0.0117  0.2088  0.0082
43189W        W86205  25.817   5.828  19.420 -0.1829  0.3402 -0.0539
43190W        W86206  28.116   2.679  20.334 -0.1357  0.0350 -0.0527
43191W        W86207   0.955   6.707  19.105 -0.0589 -0.0222 -0.1731
43192W        W86208  28.082  17.528   5.878  0.0238 -0.5358 -0.1159
43193W        W86209  24.583  29.677  26.469  0.1501 -0.1005  0.4344
43194W        W86210  18.053  30.597  24.313 -0.0666 -0.1259  0.0457
43195W        W86211  31.928  28.905  24.333 -0.0919 -0.2691  0.1540
43196W        W86212   3.636   4.618  26.347 -0.2616 -0.3090 -0.0753
43197W        W86213  32.559   5.158   4.882  0.5693 -0.1236  0.0558
43198W        W86214  11.285   5.355   7.598 -0.2031 -0.0387 -0.0896
43199W        W86215  26.570  26.084   5.345  0.2621  0.0127 -0.3688
43200W        W86216  13.907  20.353   5.509  0.2004 -0.1526  0.3165
43201W        W86217  15.085   0.420  23.108  0.0213 -0.0338 -0.1999
43202W        W86218   4.856  26.889  18.594  0.0638 -0.0114 -0.1559
43203W        W86219   0.676  21.039   9.951  0.0610 -0.0230 -0.0249
43204W        W86220  19.899   0.024   9.110  0.2109  0.1399 -0.2555
43205W        W86221  26.335  34.639  25.176  0.0431 -0.0456 -0.4376
43206W        W86222   3.715  20.505  17.536 -0.1305 -0.1161  0.0179
43207W        W86223   9.747  11.176   5.005 -0.1951 -0.0116 -0.3683
43208W        W86224   4.055   7.057  20.658  0.0022  0.1901  0.1341
43209W        W86225   7.651  29.283   1.503  0.1045  0.2633 -0.1459
43210W        W86226   3.102  26.584   7.376  0.2448  0.0294  0.0415
43211W        W86227   5.042  23.294   1.681 -0.0677 -0.0377  0.2845
43212W        W86228   2.428  30.887  29.295  0.2406  0.1880 -0.1475
43213W        W86229  30.749   0.631   3.192  0.0379 -0.2944 -0.3139
43214W        W86230  26.224   3.993  27.297  0.1270  0.1328 -0.0983
43215W        W86231  34.338  34.493  20.983  0.1709 -0.2694  0.0734
43216W        W86232  10.551  18.871  29.160  0.1368  0.2229  0.0679
43217W        W86233  16.925  34.005   7.977  0.1084 -0.1099 -0.2712
43218W        W86234  34.738  16.141  25.058  0.2252 -0.3491 -0.1045
43219W        W86235  13.128  20.694  26.354 -0.1712 -0.0047  0.0269
43220W        W86236  25.404   2.188   3.295  0.2065 -0.2396 -0.3825
43221W        W86237   9.902  22.869  22.840  0.2145  0.1254  0.1614
43222W        W86238  27.954  30.440  11.866  0.0058  0.2807 -0.0050
43223W        W86239  34.033  22.327  21.941  0.0552  0.2881 -0.0602
43224W        W86240  26.454   8.627  16.912  0.3118 -0.1552 -0.1384
43225W        W86241  10.270  28.302  26.976  0.1254 -0.2480  0.0538
43226W        W86242   0.195  28.815   2.338 -0.0275  0.0738 -0.1499
43227W        W86243  26.894  16.548   6.842 -0.2209  0.2092  0.1873
43228W        W86244  21.928   5.316  10.183 -0.2203  0.1358 -0.1328
43229W        W86245  25.156  32.754   6.564 -0.1752  0.1860  0.1368
43230W        W86246  32.318   4.206   6.418  0.1577 -0.1695  0.1294
43231W        W86247   6.823  29.240   4.633  0.2736 -0.2538  0.0649
43232W        W86248  25.482  21.624  27.015  0.1307  0.0071  0.2646
43233W        W86249  17.838  20.480  26.782 -0.1643 -0.1986 -0.1184
43234W        W86250  10.486  27.826  20.090 -0.0780  0.0242 -0.2599
43235W        W86251  10.390  18.390  27.475 -0.3568  0.2407  0.0157
43236W        W86252  29.173  23.637  10.793 -0.1215 -0.0749 -0.1242
43237W        W86253  20.852  14.632  25.392 -0.0116  0.1450  0.0323
43238W        W86254  13.706  29.638  15.716 -0.1703 -0.0756 -0.0754
43239W        W86255  17.664   0.710   5.691  0.0304 -0.0560 -0.2444
43240W        W86256  22.070   0.087  21.852 -0.1084  0.1801  0.3468
43241W        W86257  26.467  26.289   1.394 -0.0048 -0.1614  0.1788
43242W        W86258  21.713  25.707  26.623  0.1783  0.1735 -0.0336
43243W        W86259  27.218  15.582  23.453  0.2869  0.1524  0.1448
43244W        W86260  26.986  33.533  22.228  0.4276 -0.2266  0.0117
43245W        W86261  29.439  23.960   7.441  0.0024  0.2326 -0.2383
43246W        W86262  32.840   2.507  25.775  0.0624 -0.2223  0.0862
43247W        W86263   0.902  32.009  16.817  0.1498  0.0111 -0.0681
43248W        W86264  25.263   5.384   5.793  0.1825  0.0840  0.1404
43249W        W86265  28.884  24.471   5.811  0.0574 -0.3691  0.1291
43250W        W86266  15.748  10.154  22.660 -0.1532  0.0271 -0.3188
43251W        W86267  25.887  28.693  27.325  0.1500  0.0261  0.0061
43252W        W86268  31.392  25.496  19.004  0.0155 -0.0271 -0.0892
43253W        W86269  22.213   6.828  22.485  0.2164 -0.2316 -0.1240
43254W        W86270   1.907  34.388   0.204  0.0900 -0.1251 -0.2195
43255W        W86271  28.741  14.752   5.684 -0.3752  0.2586  0.3114
43256W        W86272   0.995  21.583  24.474 -0.0142  0.1423  0.2048
43257W        W86273  12.157   7.608   0.537  0.2557 -0.1008 -0.3629
43258W        W86274  31.410  19.268   4.603 -0.0174  0.1177  0.0564
43259W        W86275  26.937  17.672   0.714 -0.3284  0.0762 -0.3112
43260W        W86276  27.024  34.248   3.570  0.1707 -0.1579  0.3705
43261W        W86277   4.770  24.738  26.528  0.0939  0.0015  0.0460
43262W        W86278   6.292  10.605  18.591  0.1717 -0.0223 -0.1717
43263W        W86279   1.226   0.361   1.068  0.1863 -0.1976  0.0080
43264W        W86280   1.387  34.108  26.647  0.2142 -0.2561 -0.0191
43265W        W86281  32.802  22.628   0.843  0.2348  0.1626  0.1894
43266W        W86282  24.606  28.738  22.185  0.1337 -0.0432 -0.0714
43267W        W86283  12.739  22.299  27.863  0.0169 -0.0345  0.1337
43268W        W86284  28.613  23.228  10.670 -0.0269 -0.0171  0.0762
43269W        W86285  25.880   0.754   9.109 -0.6075  0.1051 -0.1872
43270W        W86286  26.270  31.328   2.443  0.0945  0.1252 -0.1514
43271W        W86287  26.957  32.504   2.844 -0.2504  0.1546  0.1337
43272W        W86288  28.270  29.284   8.334 -0.1945  0.3090  0.1427
43273W        W86289  17.951  24.347   7.392 -0.0390 -0.2934  0.2612
43274W        W86290   4.241  31.420  14.967 -0.1118  0.1057 -0.0366
43275W        W86291   1.288  13.077  21.377  0.2479 -0.0483 -0.2370
43276W        W86292  34.564  14.137  24.249  0.0248 -0.2102 -0.1312
43277W        W86293  23.464  22.272  24.555 -0.2011 -0.0542  0.1145
43278W        W86294   1.281  21.009   5.563 -0.1775 -0.2828 -0.0719
43279W        W86295  28.330  28.856   0.244 -0.1452 -0.0108  0.2615
43280W        W86296  26.670   3.004   7.527 -0.1733  0.2705  0.0887
43281W        W86297  15.454  34.546  17.501 -0.1453  0.3845  0.2914
43282W        W86298  18.542  30.014  28.165 -0.0674 -0.0721  0.2034
43283W        W86299   8.729  29.824   5.516 -0.0371 -0.1039 -0.0395
43284W        W86300  26.873  23.397   6.299 -0.0481 -0.2758 -0.0459
43285W        W86301  34.139  14.400  11.311  0.0231 -0.3326  0.0871
43286W        W86302  15.544   2.225  25.614  0.1564  0.0192 -0.2238
43287W        W86303   5.511  28.113   8.778 -0.1484  0.1285  0.2389
43288W        W86304   0.752  21.632  20.566 -0.1148 -0.0827  0.1574
43289W        W86305   0.533  27.732  18.078 -0.3028  0.0054  0.1978
43290W        W86306  32.663  22.502  27.233  0.1633  0.1102 -0.3336
43291W        W86307  22.772  21.493  25.190 -0.1644  0.0700  0.1341
43292W        W86308   0.422  24.629   5.530 -0.2102  0.0550  0.1219
43293W        W86309  32.821  20.446  16.854 -0.0175 -0.1205  0.2607
43294W        W86310  31.214   6.821  24.930 -0.0005 -0.0961 -0.1475
43295W        W86311  27.065   1.251   2.415  0.2446  0.3405 -0.1366
43296W        W86312  34.478  13.821  15.203  0.1216 -0.0668 -0.0968
43297W        W86313   3.328  31.988  17.704  0.6391 -0.3864 -0.3761
43298W        W86314  28.125  16.030  15.539  0.0379  0.2723 -0.0484
43299W        W86315  28.936  28.205   4.860  0.0357  0.1039 -0.2643
43300W        W86316  28.853  32.869  10.390 -0.1137 -0.0777  0.1326
43301W        W86317  18.347  28.630   7.197 -0.0315  0.0800 -0.1325
43302W        W86318  14.959  24.297  19.804 -0.3205 -0.4041 -0.2905
43303W        W86319  28.390  12.780  28.092 -0.0134  0.0178 -0.1197
43304W        W86320  32.573   2.060  27.583  0.3335 -0.0282  0.3549
43305W        W86321  24.561   8.330  19.763 -0.2706  0.2241 -0.2442
43306W        W86322  32.593   7.624  22.291 -0.2230 -0.2144 -0.0766
43307W        W86323   0.349   2.510  17.698 -0.0281  0.0696 -0.0338
43308W        W86324   6.738  34.385  22.878  0.2001 -0.1022  0.0648
43309W        W86325   6.486  15.520   0.742 -0.0764 -0.1165 -0.1372
43310W        W86326  28.532  20.717  21.797 -0.1435 -0.1264  0.1895
43311W        W86327   2.014   0.166  24.357  0.1004  0.0053 -0.1278
43312W        W86328   3.368   5.980  27.733 -0.0987  0.0686 -0.0466
43313W        W86329  30.459  33.434  24.210 -0.0685 -0.0772  0.1923
43314W        W86330   2.010  14.588   7.685 -0.1932 -0.0240  0.1018
43315W        W86331  33.651   5.927  20.657 -0.1320 -0.1281 -0.0506
43316W        W86332   8.320  10.474  26.205  0.0840 -0.1087  0.0350
43317W        W86333  11.605  24.608  27.105  0.0504  0.1300  0.1049
43318W        W86334  28.240  18.484   2.359 -0.2526  0.1431 -0.1804
43319W        W86335   1.620  30.405  28.217 -0.1411  0.2067  0.1478
43320W        W86336  25.669  31.080   5.885  0.3129  0.1184 -0.0798
43321W        W86337  17.961  11.056  25.304  0.2455 -0.0294 -0.1925
43322W        W86338   6.056   8.535  16.549 -0.1896 -0.1579  0.2248
43323W        W86339   6.860   9.561   3.429 -0.2442 -0.0471 -0.1131
43324W        W86340   8.688  17.434   2.715  0.2779 -0.1068  0.2185
43325W        W86341   7.192  34.372   6.849  0.0517  0.3072 -0.0461
43326W        W86342  31.849  21.077   8.638  0.1636 -0.3150 -0.2743
43327W        W86343   2.489  13.243  22.467 -0.2168 -0.0613 -0.2362
43328W        W86344  16.608  34.178   3.217 -0.0852  0.2637 -0.4986
43329W        W86345  17.008   0.564   8.416 -0.4988 -0.3061  0.0800
43330W        W86346  31.535  32.491   5.041  0.1868 -0.0530 -0.1647
43331W        W86347   6.949   0.423  18.842  0.0919  0.0382  0.0258
43332W        W86348  27.317  25.405  17.620 -0.0571 -0.1590  0.1380
43333W        W86349  22.636   7.727  20.287  0.1065 -0.3543  0.0764
43334W        W86350  33.341  18.968  10.622  0.0271 -0.1473  0.2173
43335W        W86351  28.578  30.925   4.687  0.2004 -0.0582  0.2081
43336W        W86352  25.851   7.504  26.549 -0.0451 -0.0936 -0.3767
43337W        W86353  26.080  32.056  21.972  0.0674  0.0262 -0.1508
43338W        W86354   4.246  23.325  24.589 -0.2283  0.1191 -0.0015
43339W        W86355  32.299  13.485   4.817 -0.0639 -0.0778  0.0607
43340W        W86356   4.847  30.434  21.274  0.0819 -0.2239 -0.2093
43341W        W86357   6.445   5.304  18.928  0.6952  0.1470  0.4003
43342W        W86358   2.056  16.430  23.453 -0.2845  0.3495 -0.2642
43343W        W86359   5.447  20.712   6.173 -0.0293 -0.0093  0.2257
43344W        W86360   2.110  10.713   4.925 -0.2833 -0.0996  0.3099
43345W        W86361   5.789   6.515  29.063 -0.3141 -0.4019  0.0990
43346W        W86362  31.898  26.076  15.285 -0.3521  0.0818  0.0847
43347W        W86363   2.396   8.277  16.731  0.3218 -0.1658  0.0970
43348W        W86364  34.719  19.039   5.069 -0.4268 -0.1130 -0.0256
43349W        W86365  22.411  32.843   0.776  0.0166 -0.1346 -0.1688
43350W        W86366  30.202  13.253   9.203 -0.1329 -0.0577  0.2813
43351W        W86367   1.777   0.070  15.414  0.0971 -0.0964 -0.3574
43352W        W86368  26.407  23.497  17.981  0.0725  0.1619 -0.3205
43353W        W86369  31.154   7.600   2.171  0.3449 -0.2015 -0.0554
43354W        W86370  30.143  11.967   8.260 -0.0943  0.0417  0.1876
43355W        W86371  33.882   3.176   9.335  0.1146  0.2256 -0.0728
43356W        W86372  24.771  22.990  27.321  0.2694 -0.1410 -0.3183
43357W        W86373  31.225  14.922   7.470  0.1758 -0.2632 -0.0493
43358W        W86374  21.448  14.578  24.376 -0.0583 -0.0477 -0.2789
43359W        W86375  29.355   5.510  28.823 -0.0122 -0.2788 -0.2633
43360W        W86376  22.274  31.236   3.277 -0.4755 -0.0690 -0.1979
43361W        W86377  22.429  28.084  26.946 -0.1641 -0.2227  0.2444
43362W        W86378  34.376  30.764   3.545  0.2631  0.2787 -0.0380
43363W        W86379  10.429  33.626   2.161 -0.0623 -0.2076 -0.3898
43364W        W86380   7.921  28.320   6.906  0.1378  0.3792  0.3615
43365W        W86381  30.722  26.373  26.061 -0.1847  0.1042 -0.1048
43366W        W86382  12.353  19.653  20.636  0.2870 -0.0964  0.0418
43367W        W86383   0.066  25.259   0.918 -0.1317 -0.0951 -0.3324
43368W        W86384  18.664  23.770  16.708 -0.0809 -0.1847 -0.2568
43369W        W86385  32.922  31.482   8.159 -0.1045  0.0881 -0.1736
43370W        W86386  18.249  27.855   4.409 -0.0474  0.0724  0.0954
43371W        W86387  34.671   9.404  11.121  0.3496  0.0129 -0.1383
43372W        W86388   1.780  26.479  28.670 -0.1436  0.2193  0.5045
43373W        W86389   6.288   4.487  29.039  0.2198 -0.0058 -0.0871
43374W        W86390  30.341  25.222  28.605  0.4032 -0.2696 -0.1142
43375W        W86391  20.134  13.588  27.414  0.2461 -0.1154  0.0085
43376W        W86392  26.718  12.039  16.088 -0.0412 -0.0538  0.0761
43377W        W86393  32.958  15.318  23.578  0.0160  0.0209 -0.1448
43378W        W86394  33.113  27.036  16.513  0.1211 -0.3730  0.2155
43379W        W86395   0.935   4.572  20.257  0.1293  0.2584 -0.2192
43380W        W86396  23.077  14.329   7.640  0.1958  0.1336 -0.0745
43381W        W86397  26.725  18.122  15.256 -0.0850 -0.0006  0.2717
43382W        W86398   8.430   5.815   3.557  0.2171  0.1313 -0.1036
43383W        W86399  24.131  30.002  19.981 -0.0152  0.1781 -0.0314
43384W        W86400  12.915  32.218   6.932 -0.0594  0.1926 -0.1860
43385W        W86401  33.544  28.015  15.679 -0.1514  0.1453  0.3471
43386W        W86402  21.295  33.886  28.164 -0.1705 -0.0391 -0.2442
43387W        W86403   3.111  27.958  22.982 -0.3461 -0.0376  0.1639
43388W        W86404  32.822  34.468   7.943 -0.0519  0.2611  0.1821
43389W        W86405  30.163  34.297   6.295 -0.0639 -0.1444  0.0335
43390W        W86406  21.909  19.432   3.003  0.0477  0.0766  0.0750
43391W        W86407  22.604   3.534   4.285  0.0134 -0.2256 -0.0706
43392W        W86408  24.975  18.979  23.972  0.0138 -0.1323  0.0237
43393W        W86409  24.373   3.868  21.448 -0.2249 -0.3729 -0.0447
43394W        W86410  22.721  18.554   6.229  0.1507 -0.0145 -0.2267
43395W        W86411   5.375  30.959  24.986  0.0591 -0.4526 -0.1139
43396W        W86412  34.333  15.349  15.001 -0.1409 -0.0216  0.1002
43397W        W86413  24.216  31.673   1.711 -0.0208 -0.0100 -0.0595
43398W        W86414  30.394   2.014  21.062 -0.1537 -0.0269  0.0652
43399W        W86415   5.633  26.418  27.592  0.1073 -0.0438 -0.2385
43400W        W86416  27.111  28.213   2.355 -0.3448  0.2196  0.1024
43401W        W86417   2.981  32.209  18.656  0.0354 -0.2642  0.2733
43402W        W86418   4.634   2.060   6.004  0.0642 -0.2487  0.0224
43403W        W86419   8.195   4.185   6.746 -0.0516 -0.1543 -0.1425
43404W        W86420  11.591  23.316  26.351  0.3594  0.2008 -0.0233
43405W        W86421  26.581  10.391  19.797 -0.2035 -0.1016 -0.1071
43406W        W86422   0.400  29.721   4.192 -0.0799 -0.0983  0.1052
43407W        W86423  32.025   6.550   6.205 -0.0793  0.1679 -0.0847
43408W        W86424  28.006  32.407  22.449 -0.0038  0.4203  0.2039
43409W        W86425  25.009  29.357  21.736  0.0022 -0.1623 -0.1631
43410W        W86426  22.474  26.592   8.968 -0.1182  0.1831  0.0199
43411W        W86427  16.819  18.328  27.181  0.1384 -0.1908 -0.1709
43412W        W86428   8.343  18.693   5.543  0.0299  0.0841 -0.0101
43413W        W86429  29.503  28.080  25.961  0.0278 -0.0530 -0.2089
43414W        W86430  16.555  28.331   2.769 -0.1787 -0.1276  0.0643
43415W        W86431  21.830  34.660   1.682  0.3355 -0.0440 -0.2666
43416W        W86432  31.724  12.061  17.099 -0.1396 -0.0761  0.2197
43417W        W86433  32.294  24.377  19.325  0.0319 -0.2320  0.3237
43418W        W86434  25.270   0.596   3.522  0.1834 -0.0169 -0.0569
43419W        W86435  23.075  22.586   5.432 -0.1235  0.1518  0.1620
43420W        W86436   3.671  20.827  20.647 -0.0055  0.3501 -0.2538
43421W        W86437  23.552  21.943  14.266 -0.0452  0.4559  0.1588
43422W        W86438   4.386   9.952   6.446  0.2468  0.3331 -0.1995
43423W        W86439  20.280  17.417  26.538 -0.4590 -0.0670 -0.0650
43424W        W86440  32.791  29.919  15.190  0.0356 -0.3957 -0.2504
43425W        W86441  17.226  27.416  22.652 -0.1574 -0.0735 -0.0397
43426W        W86442  24.826  23.112   9.042  0.0250  0.1813  0.0142
43427W        W86443  25.920   6.641  23.437  0.0788 -0.2996 -0.0085
43428W        W86444  21.892  23.256  15.835  0.3859 -0.0839  0.0672
43429W        W86445  16.793  13.862   0.020  0.0571 -0.3589  0.0390
43430W        W86446  22.383  26.531   8.078  0.0309 -0.1482 -0.1124
43431W        W86447  20.032  30.971  10.221 -0.2875 -0.0075  0.2409
43432W        W86448  31.001  14.522  29.025  0.1997  0.0297  0.1148
43433W        W86449  21.188  22.244  24.959 -0.2760 -0.1380  0.3118
43434W        W86450  28.631  27.557  17.862 -0.2519  0.1247  0.2330
43435W        W86451  27.328  23.813   0.880 -0.1988  0.1738  0.2419
43436W        W86452   0.451   1.433  19.619 -0.0795  0.2133  0.0208
43437W        W86453  27.850  13.142   5.303 -0.3035  0.1010 -0.0482
43438W        W86454  28.840  25.684   3.821 -0.1579 -0.0395  0.0280
43439W        W86455   5.747  23.396  23.422 -0.2279 -0.1807 -0.3418
43440W        W86456  28.977  30.094  11.985 -0.3630  0.0133  0.0218
43441W        W86457   0.980  27.520   6.408  0.1582 -0.0459 -0.0859
43442W        W86458   6.566  30.458  19.034  0.2032  0.0970 -0.3110
43443W        W86459   4.701  23.922  18.600  0.0319 -0.1131 -0.0533
43444W        W86460  12.911  11.967  27.778  0.0110 -0.2704  0.4598
43445W        W86461   2.548  27.462  29.093  0.0170  0.2674 -0.0440
43446W        W86462   8.694  12.853  21.954 -0.1470 -0.2502  0.2818
43447W        W86463  19.476  25.543   0.556 -0.3790  0.1466  0.0316
43448W        W86464  16.269  31.446   4.684 -0.2277  0.0189 -0.0433
43449W        W86465  18.272  23.684   5.827  0.2136  0.1008 -0.1241
43450W        W86466  21.928  29.632  15.001 -0.2493  0.0449  0.0821
43451W        W86467  30.253   0.247  28.205 -0.1294 -0.2261  0.0896
43452W        W86468  32.102  11.505  25.421 -0.0255  0.2308  0.1385
43453W        W86469  16.282  20.680   3.059  0.1213  0.1975 -0.0534
43454W        W86470  18.769   2.683   3.537 -0.0642 -0.1525  0.1330
43455W        W86471  24.995  28.117  10.239 -0.1753  0.0194  0.0776
43456W        W86472   4.266   2.420  28.340 -0.0387  0.1320  0.1116
43457W        W86473   3.035  22.834  23.820  0.1621  0.1938 -0.1184
43458W        W86474  30.331  28.391  24.484 -0.4261  0.0234 -0.1190
43459W        W86475  13.643  18.412  19.973 -0.2162 -0.2094  0.3850
43460W        W86476  33.405   4.088   9.365  0.0688 -0.0249 -0.3331
43461W        W86477   7.021  22.603  28.220 -0.0522 -0.0043 -0.1903
43462W        W86478  31.900  24.917  10.130 -0.0586  0.0283 -0.2407
43463W        W86479  23.078  25.395  20.401  0.1231  0.0564  0.1482
43464W        W86480  26.904  25.927   9.667 -0.1802  0.1584  0.1299
43465W        W86481  31.044  21.244   1.241  0.1406  0.3191 -0.0730
43466W        W86482   6.056   5.392  20.717  0.0333 -0.2976  0.1267
43467W        W86483  21.270  33.706  23.470  0.1041  0.1493 -0.2760
43468W        W86484  28.967   7.460  26.984 -0.2092  0.0975 -0.4515
43469W        W86485  30.713  33.825  18.743 -0.0027  0.2520 -0.0669
43470W        W86486  29.975  24.473   2.598 -0.1455 -0.2360  0.1733
43471W        W86487   6.260   8.718   3.039 -0.1080 -0.1736  0.3264
43472W        W86488  15.407  12.208  20.661  0.0557  0.0564 -0.1611
43473W        W86489  18.243  12.577   5.767  0.0677  0.2317  0.1399
43474W        W86490  29.766  28.124   4.349 -0.1247  0.2344 -0.1238
43475W        W86491  22.425  32.958  25.620  0.0023 -0.1015  0.1569
43476W        W86492  25.898   0.267  22.700  0.0058 -0.1620 -0.1747
43477W        W86493   1.663   8.366   7.652  0.4487  0.3281  0.0570
43478W        W86494  18.279  22.261  27.434  0.0871 -0.0832 -0.2955
43479W        W86495  25.616  34.052  19.986 -0.0159 -0.2657 -0.0681
43480W        W86496  15.758  20.421  28.525 -0.0389 -0.1667  0.1975
43481W        W86497  33.646  18.229  23.711 -0.0172 -0.2015  0.1430
43482W        W86498   5.248  30.460  27.924 -0.1962  0.0669  0.0977
43483W        W86499  20.572  27.870  29.209  0.0766 -0.0798  0.0615
43484W        W86500   2.102  22.133  22.641  0.0142 -0.4103 -0.0960
43485W        W86501   3.208  28.106  16.570 -0.2355 -0.2518 -0.1577
43486W        W86502   5.688  23.010   4.322  0.1202  0.0581  0.2028
43487W        W86503  18.439  28.383  27.354 -0.1700  0.1955 -0.0330
43488W        W86504  27.987   0.517  23.645 -0.0574  0.0455  0.3703
43489W        W86505  33.358  33.855   4.490  0.2757  0.1540  0.0550
43490W        W86506  30.559  32.027   9.645  0.0839 -0.0760 -0.0900
43491W        W86507  28.170   1.420  25.145  0.1734  0.0878  0.0758
43492W        W86508  29.104  32.139  28.748 -0.0597  0.0555 -0.2993
43493W        W86509  19.397   0.882  19.555  0.0492  0.0833 -0.3299
43494W        W86510  27.079  21.095   4.781 -0.2603  0.0783 -0.0135
43495W        W86511  26.244  25.853  16.194  0.0833  0.0440 -0.1215
43496W        W86512  24.891  22.288  20.051  0.0738 -0.0509  0.0221
43497W        W86513   4.449   5.609  15.439 -0.0497  0.1188 -0.4669
43498W        W86514  33.969  32.309  15.536 -0.1227 -0.1961  0.0219
43499W        W86515   9.647  20.220   6.460  0.0769 -0.0848  0.2964
43500W        W86516  22.221  26.756  29.165 -0.2275  0.1823 -0.0597
43501W        W86517  18.100  21.902   4.360  0.1235  0.0486  0.2884
43502W        W86518  15.686  32.628  27.010 -0.1913 -0.1980  0.0533
43503W        W86519   6.875  31.824  28.890 -0.2148 -0.0987  0.0289
43504W        W86520  31.161  25.066   0.007  0.0603  0.0819  0.1224
43505W        W86521  28.319   0.774  19.056 -0.0693 -0.2595  0.4101
43506W        W86522  28.496  34.428   0.882  0.3599  0.0420  0.0685
43507W        W86523  12.025  18.279  25.945 -0.1234  0.2125  0.3618
43508W        W86524   8.014  15.886  24.967  0.2575 -0.0988 -0.1977
43509W        W86525  14.426  22.512   1.775 -0.0661 -0.1486  0.1973
43510W        W86526   2.103  22.542  23.097  0.1148  0.0774 -0.2748
43511W        W86527   1.907  17.619  18.651 -0.1923 -0.1729  0.1174
43512W        W86528  21.839  30.248  26.961  0.1929 -0.0581 -0.0359
43513W        W86529  15.455  20.404  22.738  0.0046 -0.0280 -0.1369
43514W        W86530  24.759  12.322   0.757 -0.1606 -0.0172 -0.0167
43515W        W86531  25.461   4.000   3.271  0.0600 -0.2717 -0.2194
43516W        W86532   8.329  14.129   3.178  0.1483 -0.1092  0.1027
43517W        W86533  23.792  25.243   8.448 -0.0308 -0.2321 -0.0438
43518W        W86534   0.023   0.938  28.844 -0.0425  0.0475  0.2688
43519W        W86535  26.515   1.591   4.429 -0.1147 -0.4704  0.1421
43520W        W86536  33.841   5.297  19.196  0.2066  0.0090  0.0298
43521W        W86537  28.478  26.803  20.823 -0.0275  0.2115 -0.1522
43522W        W86538  13.280   2.487  25.847 -0.0037 -0.2546  0.0588
43523W        W86539   5.491  14.358   5.593 -0.1389  0.0227 -0.1627
43524W        W86540  25.167  13.185   9.449  0.3232 -0.2852 -0.1970
43525W        W86541  25.556  23.713   2.006 -0.0814  0.0184 -0.0029
43526W        W86542  28.364  27.450   5.904  0.1514  0.3615  0.4232
43527W        W86543  33.223  28.357  24.817 -0.3552 -0.1641  0.2580
43528W        W86544   2.409  25.827  19.152 -0.0369 -0.0991 -0.2958
43529W        W86545   2.297  28.085   5.382 -0.0772  0.3836  0.1560
43530W        W86546  27.039  30.766  27.637  0.1295 -0.1231  0.3379
43531W        W86547   0.852  25.316  19.380 -0.3542 -0.2544  0.1839
43532W        W86548  30.008  32.746  22.739  0.1755  0.1402 -0.1419
43533W        W86549  18.722   0.789   0.557  0.0897 -0.1528  0.0046
43534W        W86550  34.672  23.892   2.052  0.0898 -0.1709 -0.2825
43535W        W86551  25.102  27.482   1.560  0.4027  0.2907  0.1905
43536W        W86552  34.736   3.369  25.049  0.0687 -0.0777 -0.1207
43537W        W86553  30.551  24.384   3.307  0.0132 -0.0800 -0.2177
43538W        W86554  19.220  15.104  24.560 -0.2924  0.1961  0.1467
43539W        W86555   4.566  21.402   7.317 -0.0413  0.0383  0.1428
43540W        W86556  23.159  19.485   6.192  0.0415  0.1563  0.1688
43541W        W86557  21.710  10.436  24.050  0.2756  0.1490 -0.1691
43542W        W86558   0.325  32.631   4.393  0.0763  0.3830  0.1139
43543W        W86559  29.079  20.291   1.201 -0.1319 -0.2063 -0.3171
43544W        W86560   2.224  10.135   9.765 -0.1502 -0.1296 -0.1315
43545W        W86561  14.162  17.896  28.159  0.2384 -0.0540 -0.0173
43546W        W86562   4.990  14.537   1.676  0.1229 -0.1677  0.1195
43547W        W86563   0.830  25.283   8.641 -0.0797 -0.0556 -0.1918
43548W        W86564  33.595  13.921  26.526  0.1744  0.0789 -0.0445
43549W        W86565  25.243  29.061   7.790  0.0582  0.1589  0.0142
43550W        W86566  29.521  30.288   6.499  0.1720  0.2007 -0.0438
43551W        W86567  30.871  27.927  26.312  0.0554 -0.3172 -0.1934
43552W        W86568  16.080  28.081   2.589 -0.0228  0.0570  0.2278
43553W        W86569   6.571  30.294   1.585 -0.5916  0.0720  0.4409
43554W        W86570  27.981  28.428   5.330 -0.1107  0.0657  0.0939
43555W        W86571  26.386  29.608  23.195 -0.1020  0.3756 -0.2300
43556W        W86572  28.017  31.496  28.199 -0.1509  0.2037 -0.3428
43557W        W86573  24.201  16.847  25.388 -0.2230 -0.0875 -0.0345
43558W        W86574  10.773  19.811  27.955 -0.1794 -0.1611 -0.0633
43559W        W86575  21.721  19.002   2.624  0.0917 -0.3763  0.1775
43560W        W86576  14.202  27.218  20.822 -0.0962  0.0447  0.0090
43561W        W86577  29.188  25.720  17.259  0.2344  0.1313  0.3739
43562W        W86578  19.071  26.822   2.195 -0.0179  0.1017  0.0473
43563W        W86579  21.427  15.012   8.274 -0.4523  0.7664  0.1925
43564W        W86580  30.399   9.528  16.655 -0.0668  0.0802  0.4546
43565W        W86581  19.302  29.409  19.840  0.1354 -0.0882  0.2156
43566W        W86582  29.724  29.592  21.560 -0.0503 -0.0831 -0.2135
43567W        W86583  28.999  25.277  17.380  0.3309  0.0883  0.1730
43568W        W86584   1.507   6.869  25.744  0.2379 -0.1762  0.1979
43569W        W86585   3.664  30.992  21.534  0.1969  0.1520 -0.4074
43570W        W86586  31.937   4.357  23.020 -0.0215 -0.1160 -0.0981
43571W        W86587   4.982  18.543  15.776 -0.0317 -0.1362  0.3366
43572W        W86588   2.958  26.782  20.805 -0.3511  0.0478 -0.4328
43573W        W86589  28.923  21.334  26.243 -0.1848  0.0026 -0.5817
43574W        W86590  27.892  33.314  11.806  0.1416  0.2821  0.1171
43575W        W86591  31.150  29.960  23.656  0.1731  0.2859 -0.3221
43576W        W86592  10.452  15.363  14.949 -0.2467 -0.2785  0.0281
43577W        W86593  13.982  30.244  14.895 -0.0941  0.0805  0.4954
43578W        W86594  30.856   9.449  18.560 -0.0262 -0.1977 -0.0210
43579W        W86595  24.531  13.181  22.787  0.0796  0.3637 -0.1408
43580W        W86596  30.112  21.638  15.937 -0.1022  0.0175  0.0533
43581W        W86597  29.875  13.456   8.638 -0.0113  0.2749 -0.0778
43582W        W86598   2.378   0.980  17.171 -0.0172  0.1299  0.1795
43583W        W86599   4.583   9.155  20.468 -0.0302 -0.0356 -0.2309
43584W        W86600  25.757  27.462  28.881  0.1595  0.0346  0.0684
43585W        W86601  26.555   0.733  23.972 -0.1262 -0.0997  0.1207
43586W        W86602   7.981   7.037  28.258 -0.2056  0.1456  0.2246
43587W        W86603  30.515  30.960  19.095  0.2813  0.0614  0.2261
43588W        W86604   8.883  21.673  21.889  0.0691 -0.1109  0.1306
43589W        W86605   5.695  26.381  25.693 -0.2553 -0.0661 -0.0430
43590W        W86606   4.872   4.972  24.372 -0.1021 -0.0346  0.2309
43591W        W86607   0.571  11.139   1.999 -0.3965 -0.2394  0.2511
43592W        W86608  31.097  24.692  18.548  0.0843  0.0873 -0.0530
43593W        W86609  26.203  32.634  16.434 -0.1077 -0.2392 -0.1034
43594W        W86610  30.138   0.693  20.020 -0.3037 -0.1598  0.4856
43595W        W86611  31.713  30.092  18.011  0.0125 -0.0062  0.0423
43596W        W86612  26.782  33.629  23.038  0.1386  0.0758 -0.3892
43597W        W86613   6.029   4.745  17.563  0.1136  0.2907  0.0734
43598W        W86614  34.158  13.260  21.820  0.1115 -0.2905 -0.1486
43599W        W86615  30.888  32.477  16.158  0.2599  0.1701 -0.2038
43600W        W86616  32.145  16.353  24.723 -0.0654  0.1967 -0.3737
43601W        W86617   3.269  27.599  23.596 -0.0402 -0.2838 -0.0432
43602W        W86618  31.799   2.585  20.533 -0.1915  0.0691  0.0500
43603W        W86619   3.321  31.313  26.538 -0.1070 -0.0008  0.2910
43604W        W86620   6.941   3.576  18.231  0.1337 -0.1340 -0.1291
43605W        W86621  25.881   9.578  20.213  0.3091  0.0875  0.0307
43606W        W86622   1.365  26.819  20.836 -0.2249 -0.1952 -0.0730
43607W        W86623  21.506  21.850  27.157 -0.5935 -0.0904  0.0020
43608W        W86624   7.971  13.389  22.574 -0.0863 -0.0636  0.0424
43609W        W86625  23.560  32.799  15.560 -0.3515 -0.1595 -0.1056
43610W        W86626   2.127  33.142  13.809 -0.0969 -0.0599  0.1489
43611W        W86627   2.101  15.763  17.639  0.0651  0.2245 -0.2323
43612W        W86628  33.686  27.970  24.545  0.1531  0.2647 -0.2105
43613W        W86629  31.342  27.265  26.658 -0.0217 -0.1961 -0.4296
43614W        W86630  31.280  29.254  18.172  0.4632 -0.1882 -0.1933
43615W        W86631  21.815  24.027  20.539 -0.0071 -0.0720  0.0080
43616W        W86632   9.170  31.605  19.624  0.0326  0.1788 -0.0930
43617W        W86633  25.035   2.390  20.907 -0.0161  0.1384 -0.0226
43618W        W86634  20.808  17.624  22.401  0.2070 -0.0740  0.2019
43619W        W86635   7.846   0.702  23.424  0.3649  0.0734 -0.0377
43620W        W86636   0.169  28.138  18.468  0.3808 -0.4216 -0.1179
43621W        W86637  25.150   8.120  16.853  0.0674  0.0927  0.0840
43622W        W86638  13.091  26.825   1.759 -0.0180  0.0339 -0.2477
43623W        W86639   5.115  29.628  15.939 -0.2746  0.0386 -0.1655
43624W        W86640   9.827  27.271  24.027  0.0914 -0.1100  0.1004
43625W        W86641   5.344  13.128  14.147  0.1203  0.1011  0.0031
43626W        W86642  34.101  26.915  21.809  0.1628  0.0508  0.0380
43627W        W86643  33.512  19.636  14.718  0.2097 -0.2339  0.0994
43628W        W86644  12.894   4.950  17.931  0.0452 -0.0673 -0.3160
43629W        W86645  24.995  16.821  15.907 -0.0706 -0.0650 -0.0618
43630W        W86646   8.401  20.578  17.165 -0.0252 -0.1322 -0.0637
43631W        W86647   7.569   2.834  19.705  0.2748  0.1157  0.0933
43632W        W86648  25.664  21.199  16.312  0.2596 -0.1136  0.0393
43633W        W86649  20.543   6.200  19.347  0.0943  0.0735 -0.0420
43634W        W86650  24.169   0.299  26.250  0.1056 -0.0670 -0.0897
43635W        W86651  21.673  28.607  20.313  0.0363 -0.0704 -0.1903
43636W        W86652  15.289  20.791  21.558  0.3290  0.0628 -0.0233
43637W        W86653  28.182  24.572  23.117 -0.1468  0.0989  0.3204
43638W        W86654  34.215  17.330  15.653  0.0141 -0.1513 -0.0292
43639W        W86655   1.171   9.650  19.139 -0.3336  0.0130 -0.0767
43640W        W86656   2.335  25.926  14.155 -0.1768  0.1035  0.0990
43641W        W86657   9.278  30.138  15.948 -0.3365 -0.2481  0.0490
43642W        W86658  34.109   2.312  24.138 -0.3460  0.0820 -0.2128
43643W        W86659  28.049  27.401  23.203 -0.0433  0.1055  0.2260
43644W        W86660  26.503  21.602  16.317  0.0758 -0.2637 -0.1789
43645W        W86661  14.132  32.788  18.775  0.1877  0.1593  0.2219
43646W        W86662  31.031  10.863  18.056  0.0950 -0.2334  0.1111
43647W        W86663  21.760   7.345  25.552 -0.0902  0.1665  0.0604
43648W        W86664  30.870   6.816  24.512 -0.0005 -0.2759  0.0043
43649W        W86665  10.337  28.745  26.370  0.0236  0.5102 -0.1851
43650W        W86666  34.220  15.663  19.979 -0.1387  0.2291  0.3584
43651W        W86667  28.006   2.057  19.738  0.1664  0.1201  0.0534
43652W        W86668  30.753  31.759  28.265 -0.2045 -0.0811  0.0029
43653W        W86669  30.388  17.650  25.964 -0.1951  0.0561 -0.0935
43654W        W86670  11.666  27.549   0.292  0.2945 -0.0246  0.0071
43655W        W86671  20.653   7.219  27.376 -0.0688 -0.1913  0.0403
43656W        W86672   5.482   7.219  26.414  0.2115  0.1525  0.1114
43657W        W86673  21.087   1.794   0.349  0.1200 -0.4007  0.0324
43658W        W86674   9.394  23.563  20.704 -0.0745  0.1656 -0.0674
43659W        W86675   5.774  27.235  23.028  0.0475  0.1153  0.0554
43660W        W86676  24.920  20.542  23.080 -0.1010 -0.0260  0.1736
43661W        W86677  34.219  26.341  16.476 -0.0649 -0.0512 -0.0909
43662W        W86678   2.870   2.037  21.123 -0.5112 -0.4167  0.1017
43663W        W86679  17.177   1.163  15.474 -0.0693  0.3631  0.1833
43664W        W86680   2.743  10.957   3.884 -0.2505  0.1350 -0.0075
43665W        W86681  34.327   0.654  18.392 -0.1648 -0.0599  0.0251
43666W        W86682  16.675  26.707  22.796  0.0955  0.2030 -0.0447
43667W        W86683  27.586  20.131   6.372 -0.2660 -0.0240 -0.1495
43668W        W86684   9.290  26.255  28.391 -0.0938 -0.1239 -0.1866
43669W        W86685  25.981  11.362  17.238 -0.1050  0.1165  0.1911
43670W        W86686  15.410  34.698  27.532 -0.6646 -0.1492 -0.0743
43671W        W86687  23.447   7.906  23.761 -0.1418 -0.2522 -0.1536
43672W        W86688  33.824   4.533   5.898 -0.0429 -0.1888 -0.0659
43673W        W86689   2.621  23.365  14.213 -0.1644  0.1014 -0.3473
43674W        W86690   0.695  30.942  28.013 -0.1914  0.0334  0.2272
43675W        W86691  28.248  34.138   2.844 -0.0287  0.1468  0.3192
43676W        W86692  32.019  31.364   0.864 -0.0332  0.1143  0.3079
43677W        W86693  18.300  29.167  17.217 -0.1906 -0.0359 -0.1480
43678W        W86694   3.034   3.533  18.136 -0.2530 -0.0568 -0.0517
43679W        W86695  30.878   5.612  17.402  0.1783  0.1752 -0.1871
43680W        W86696   9.259   7.567  16.992  0.1323 -0.0126 -0.2142
43681W        W86697  29.443   0.940  23.826  0.3717 -0.2331  0.1124
43682W        W86698   2.757  24.523  14.359  0.1229  0.0978  0.3076
43683W        W86699  32.578   0.837  23.345  0.0056  0.0342 -0.0489
43684W        W86700   8.171  23.784  13.753  0.2822  0.0258 -0.1530
43685W        W86701   6.101  24.973  22.700 -0.1945 -0.0396 -0.2179
43686W        W86702  34.370   3.951  26.230  0.1292 -0.1451  0.3298
43687W        W86703  33.770  34.523   3.783  0.2232  0.0306  0.0708
43688W        W86704  23.236   3.473  26.856 -0.1466  0.0830 -0.0138
43689W        W86705   7.742   0.084  26.446  0.0444 -0.1438 -0.3798
43690W        W86706  27.037  16.434  15.607  0.0275  0.1254  0.0480
43691W        W86707  26.275  11.816  17.372  0.0616 -0.1205 -0.0748
43692W        W86708   0.419   0.968  18.856  0.0233  0.0432 -0.0981
43693W        W86709  24.052  26.005  10.448 -0.2215 -0.0007 -0.0497
43694W        W86710  29.045  23.337   3.602  0.2421 -0.0717 -0.1982
43695W        W86711   0.374  17.654  16.740 -0.1751 -0.1630 -0.4058
43696W        W86712   3.213  19.598  26.355  0.1784  0.1843 -0.1062
43697W        W86713  16.949   1.950  21.507 -0.1195  0.2736 -0.1749
43698W        W86714   5.991  24.680  18.461  0.3021  0.1225 -0.0174
43699W        W86715  32.110  24.320   5.271 -0.1128 -0.2858  0.0944
43700W        W86716  26.641   5.963  26.040 -0.0375 -0.1632 -0.0573
43701W        W86717  23.159  11.046  26.271  0.0440 -0.2536 -0.0926
43702W        W86718  25.917   2.733  20.390  0.0082 -0.0721  0.0305
43703W        W86719  10.800  24.376  20.688  0.1107  0.3658 -0.1618
43704W        W86720  17.568   7.435  17.105  0.0847 -0.3163 -0.0109
43705W        W86721  13.975   6.095  17.555 -0.3754 -0.1747 -0.1007
43706W        W86722  34.757  30.747  19.779 -0.2060  0.2599  0.1005
43707W        W86723  31.373  34.273   7.084 -0.0816 -0.0097 -0.0795
43708W        W86724  11.959  27.506  17.108  0.0255 -0.2807  0.0227
43709W        W86725  29.182   1.054  26.384 -0.3012 -0.0503  0.0410
43710W        W86726   3.038  29.785  15.294  0.0077  0.0800  0.1520
43711W        W86727  26.515  34.359  20.350 -0.3842 -0.1663  0.1068
43712W        W86728  29.857  16.896   4.905  0.1116  0.0035 -0.5711
43713W        W86729  22.907   0.559  18.204  0.1975 -0.1971 -0.3210
43714W        W86730   0.005  27.732  18.114  0.2144 -0.0228  0.5025
43715W        W86731  16.063  31.857   0.861 -0.2178  0.1223 -0.0366
43716W        W86732   7.262  28.558  19.734  0.1501 -0.2580  0.0166
43717W        W86733   9.086  27.016  22.312 -0.1265 -0.1812  0.1044
43718W        W86734  34.108  30.136  19.289 -0.0606 -0.3189 -0.0621
43719W        W86735   1.782  33.126  16.289  0.1278 -0.1277  0.1314
43720W        W86736  16.233   9.249  17.170  0.0928 -0.1456 -0.0726
43721W        W86737  23.149  31.060  26.142  0.1830  0.0380  0.0079
43722W        W86738  30.503  13.563  19.610 -0.4557 -0.0648  0.0446
43723W        W86739   9.974  34.562  27.670 -0.1721 -0.0974 -0.1870
43724W        W86740   5.732  31.602  14.944  0.1661 -0.0737 -0.3573
43725W        W86741  27.037   6.989  16.805 -0.1402  0.1506  0.1220
43726W        W86742   6.386   5.878  26.648  0.0034 -0.1165 -0.0583
43727W        W86743  24.523  10.081   6.735 -0.0987 -0.2600 -0.2932
43728W        W86744  25.583  31.956  25.430  0.3719 -0.0297  0.0830
43729W        W86745  23.771  10.863   4.953  0.0851  0.2613 -0.0853
43730W        W86746  11.966  11.125   4.991 -0.0466 -0.0783  0.0872
43731W        W86747   7.865  27.094  21.615 -0.1087  0.1883  0.0522
43732W        W86748  28.863   8.133  18.057  0.0039  0.0318 -0.1961
43733W        W86749   0.840  28.405  22.616  0.0516  0.0867  0.0544
43734W        W86750  20.816  22.655  25.815 -0.1034 -0.2351 -0.2133
43735W        W86751  22.061  29.589   1.000 -0.1829  0.2611  0.1690
43736W        W86752  25.337   5.061  18.159  0.0824 -0.0396 -0.1417
43737W        W86753  22.441  33.992  23.383 -0.1055 -0.3185  0.0795
43738W        W86754  11.430  13.844  17.753 -0.2711  0.2270  0.1141
43739W        W86755  16.631  25.300   0.805  0.0470  0.2389  0.2378
43740W        W86756   9.600  27.989   2.692  0.1280 -0.3294  0.1300
43741W        W86757   6.999   7.646  23.043 -0.0586 -0.0480  0.0603
43742W        W86758  16.771  27.715  25.731  0.1721  0.0737 -0.0164
43743W        W86759  14.378  29.875  23.848 -0.0014 -0.0636 -0.0712
43744W        W86760  31.601  33.315  20.290 -0.0618  0.1821 -0.1102
43745W        W86761  30.600   0.877  16.224  0.0193 -0.2329 -0.0343
43746W        W86762  21.902   0.377  19.474 -0.5041  0.2865  0.0191
43747W        W86763  24.252  28.445  16.901 -0.0250  0.2154 -0.0032
43748W        W86764  26.824  33.001  28.119 -0.1852 -0.1297 -0.2099
43749W        W86765  22.196  10.101  17.214 -0.1224  0.5780 -0.0639
43750W        W86766   8.382  27.387  27.072  0.2280 -0.1979  0.0035
43751W        W86767  12.050  33.006  20.386  0.0149  0.1367 -0.2633
43752W        W86768  32.428   8.140  24.001  0.0546  0.0935  0.0766
43753W        W86769  15.387  31.268   4.098  0.2163  0.0086 -0.1342
43754W        W86770  32.207  20.762  22.071 -0.5077 -0.1719 -0.1554
43755W        W86771  32.260  19.497   9.703 -0.2760  0.1038 -0.0683
43756W        W86772   0.788   7.197  20.686  0.4303 -0.1683  0.1141
43757W        W86773   0.929   8.832  17.439  0.1269  0.2286  0.0953
43758W        W86774  24.353   3.498   4.773 -0.1349 -0.0262 -0.2566
43759W        W86775  33.215  28.631  22.311 -0.1044  0.2623  0.1455
43760W        W86776   6.489   9.445   1.948  0.0237 -0.0761 -0.2333
43761W        W86777  25.006   5.055  15.436  0.0135  0.0899  0.3195
43762W        W86778  20.516  27.326   4.824 -0.1201 -0.0479  0.2206
43763W        W86779   2.164   6.655  16.129 -0.0995  0.1194  0.3128
43764W        W86780  18.949  11.529  23.354 -0.0464 -0.0930 -0.1729
43765W        W86781   3.737  28.132  21.082 -0.2289  0.0041  0.0616
43766W        W86782   0.361   7.414  14.053  0.1051  0.0334 -0.0590
43767W        W86783  21.101  28.344  15.178 -0.0141 -0.1517  0.0027
43768W        W86784  29.526  32.170   6.044 -0.2978  0.0278  0.2614
43769W        W86785   7.933   1.002   3.349 -0.0007 -0.3155 -0.2538
43770W        W86786  28.908  30.164  16.872  0.2609  0.2567 -0.0462
43771W        W86787  10.823  32.351  23.324  0.1166 -0.2138  0.1814
43772W        W86788   8.965  33.613   7.860  0.0669  0.1664 -0.3658
43773W        W86789  20.798   2.738  21.359 -0.1748 -0.0497  0.0278
43774W        W86790  28.956  34.380  21.662  0.1778 -0.1314  0.1777
43775W        W86791  22.784  17.701  20.313 -0.1483  0.2133  0.0434
43776W        W86792  27.562   4.074  28.902 -0.2537 -0.1885 -0.1452
43777W        W86793   3.171  22.842  28.862 -0.1146 -0.2971 -0.2026
43778W        W86794  33.948  33.845  22.149 -0.1565  0.0154  0.0406
43779W        W86795  23.673  24.861  22.038 -0.1148  0.1424 -0.2632
43780W        W86796  20.292   2.984  28.290 -0.0733 -0.1344 -0.1210
43781W        W86797  29.056   5.554  17.388  0.0299 -0.0581 -0.0131
43782W        W86798   1.486  22.223  17.876  0.1104  0.1262  0.0277
43783W        W86799   1.766  12.474  14.830  0.0304 -0.0277 -0.3908
43784W        W86800  31.880   3.399  21.011 -0.3175 -0.1911  0.1152
43785W        W86801   1.832   0.055  15.974  0.0800 -0.3081 -0.0069
43786W        W86802  31.727  31.064   0.586  0.1850 -0.0228 -0.1125
43787W        W86803   5.983  29.790  18.809 -0.1379 -0.2862 -0.3783
43788W        W86804  11.449  16.829  17.840  0.0186  0.1544  0.0718
43789W        W86805   0.401   1.163  27.597  0.1166 -0.1127 -0.3232
43790W        W86806  32.787  29.786  16.179 -0.0647  0.0619 -0.3400
43791W        W86807  18.127   4.246  19.639  0.1091  0.0519 -0.0914
43792W        W86808  29.068  27.503  21.969  0.0898 -0.3888  0.1327
43793W        W86809  21.425  26.916  17.188  0.2610  0.0433 -0.1335
43794W        W86810  27.259  14.782  19.485 -0.2307 -0.0532 -0.2081
43795W        W86811  10.499  13.366  18.128 -0.2272 -0.2306  0.0332
43796W        W86812  27.047  18.898  28.531  0.2795  0.1123  0.0412
43797W        W86813  27.410  11.049  13.978  0.0404  0.1881 -0.2112
43798W        W86814  22.114   7.710  22.227 -0.0330 -0.2296  0.1565
43799W        W86815   4.729   4.333  13.854  0.1882 -0.0549 -0.1279
43800W        W86816  10.076  21.721  24.027  0.2462 -0.0787 -0.2997
43801W        W86817  26.849   4.553  20.397 -0.2256  0.2783 -0.1491
43802W        W86818  19.475  29.652  14.438 -0.1220  0.2118 -0.0053
43803W        W86819   3.543  11.949  28.718  0.1484 -0.1006 -0.3234
43804W        W86820   7.317  31.911  19.140 -0.1672  0.0305 -0.0207
43805W        W86821  30.555   8.219  16.621  0.1500  0.5258  0.0268
43806W        W86822   1.995   8.295  24.472 -0.1213 -0.0568  0.1607
43807W        W86823  21.078   5.888  20.243  0.0329 -0.4397 -0.1377
43808W        W86824   3.518  21.870  13.677  0.1718 -0.0550 -0.1135
43809W        W86825  28.871   7.841  22.760 -0.0587 -0.0818 -0.0283
43810W        W86826  27.101  30.848  15.799  0.1709 -0.0508 -0.1887
43811W        W86827  21.318  13.413  23.109  0.1709 -0.0324  0.0315
43812W        W86828  10.041  29.560  15.661  0.3041  0.1314 -0.0965
43813W        W86829   3.081  11.935  18.540  0.1103 -0.0667 -0.1643
43814W        W86830  10.833   2.413  24.615 -0.0650 -0.2502  0.0238
43815W        W86831  32.926  23.799  22.477  0.0768 -0.2150 -0.3682
43816W        W86832  28.020  27.195  17.076  0.1525  0.1338  0.2211
43817W        W86833  13.341  12.247  21.003 -0.0263  0.2442 -0.1455
43818W        W86834   6.186   2.605  20.781  0.0497  0.1753  0.0980
43819W        W86835  22.988  16.454   0.795 -0.3418 -0.2015  0.0812
43820W        W86836  31.455  32.018  21.422 -0.0160 -0.0162  0.2672
43821W        W86837  28.124  23.556  25.914 -0.2144 -0.2518 -0.0156
43822W        W86838  15.123  27.223  20.568  0.0971  0.3730 -0.3904
43823W        W86839   0.072   1.723  23.614  0.1061  0.0069 -0.2753
43824W        W86840   0.822  29.422   0.529  0.0702  0.2050  0.0268
43825W        W86841  28.828  28.943  20.734 -0.1484  0.2812 -0.0380
43826W        W86842   4.939   6.037  17.998  0.0690  0.3252  0.0146
43827W        W86843  16.597   7.572  29.121  0.0839 -0.0266  0.0004
43828W        W86844   4.394  26.974  18.063  0.1893 -0.0507  0.0789
43829W        W86845  28.880  32.702  19.264 -0.0441  0.1619 -0.1856
43830W        W86846  24.533   2.332  19.148 -0.2996 -0.0743  0.2652
43831W        W86847   0.853   9.173  13.686  0.5721  0.1745  0.2551
43832W        W86848  23.491  32.969  22.140 -0.0174 -0.0378 -0.2348
43833W        W86849  30.888   6.596  18.580  0.1699  0.1043  0.0380
43834W        W86850  34.543   4.688  17.948 -0.0810  0.1745 -0.0709
43835W        W86851  15.567   2.248  19.406 -0.0265 -0.1754 -0.2494
43836W        W86852  28.341  11.755  18.249 -0.1011  0.0528  0.0859
43837W        W86853  19.291  28.096  16.603  0.2703  0.4393 -0.1832
43838W        W86854  32.544   7.067  19.896  0.0776  0.3061 -0.0788
43839W        W86855   1.769  17.966  27.133  0.1700 -0.2238  0.1932
43840W        W86856  12.339   6.961  16.570 -0.0219 -0.2741  0.3013
43841W        W86857  26.421   0.078  20.439 -0.2991 -0.0100  0.1272
43842W        W86858  21.536   0.578  16.807 -0.3526  0.0182 -0.0550
43843W        W86859  34.540   3.193  25.888 -0.0509 -0.1320 -0.4223
43844W        W86860  21.792  34.334  21.134 -0.2043 -0.0954  0.1660
43845W        W86861  28.768  17.423  21.316 -0.4450  0.3077 -0.0065
43846W        W86862   1.123  10.258  19.936 -0.0628 -0.3027  0.1272
43847W        W86863  30.177  31.161  18.574 -0.0827 -0.0820 -0.0992
43848W        W86864  23.977  24.627  19.966 -0.1253 -0.3618 -0.2958
43849W        W86865  28.367  14.555  19.235  0.4096  0.0374 -0.0472
43850W        W86866  32.048  11.696  17.006  0.0368  0.1995  0.2323
43851W        W86867  16.108  30.555   9.652  0.0811 -0.1164  0.0868
43852W        W86868   0.186  22.549   0.988  0.1337  0.1088  0.0725
43853W        W86869  23.888  23.716  23.501 -0.2186  0.3725  0.3004
43854W        W86870   9.273  31.932  19.201  0.2130 -0.0192 -0.0685
43855W        W86871  28.841  28.333  24.354 -0.3615 -0.0214  0.0846
43856W        W86872   3.312  25.529  15.336 -0.2284  0.1027 -0.1015
43857W        W86873  16.511   8.534  21.534  0.1070  0.0170  0.0281
43858W        W86874   9.481  23.007  16.077 -0.0729 -0.1633 -0.4857
43859W        W86875   7.900  22.528  27.052  0.1676  0.3644  0.2551
43860W        W86876   7.882  23.273   6.381 -0.1974  0.0778 -0.2822
43861W        W86877  10.554  19.590  19.045  0.3062  0.0838 -0.1612
43862W        W86878  28.668  18.812  16.669  0.2718  0.1845  0.0420
43863W        W86879   3.047  12.762  24.576  0.0946  0.0766 -0.2375
43864W        W86880   6.551  16.731  17.074  0.2485 -0.0170 -0.0432
43865W        W86881  32.603   0.236  17.226  0.2417 -0.2356  0.4088
43866W        W86882  31.932  18.590  26.190 -0.1048 -0.2211  0.2572
43867W        W86883  29.272  26.498   1.981 -0.1389 -0.1666  0.0321
43868W        W86884  19.237  25.110   0.686  0.2212  0.1593 -0.2782
43869W        W86885   1.522  34.323  23.736 -0.0759  0.2209  0.5879
43870W        W86886  25.441  13.626  15.609 -0.3199  0.2010  0.3755
43871W        W86887   1.548  21.390  14.929  0.2669  0.2429 -0.0408
43872W        W86888  33.877  12.008  17.398  0.2379  0.0735  0.4851
43873W        W86889  12.356   3.291  20.489  0.4526 -0.1053 -0.0466
43874W        W86890  30.899  12.163  24.971  0.3139  0.0682 -0.0154
43875W        W86891   5.517  26.793  20.620 -0.2332  0.0285  0.2068
43876W        W86892   6.419  21.978  19.583 -0.3975  0.1795 -0.0013
43877W        W86893  10.821  17.593  20.436  0.2146  0.0085  0.0401
43878W        W86894   7.342   1.994  15.189 -0.0110  0.0614  0.0866
43879W        W86895  32.848   4.180  17.720  0.2698 -0.2222  0.0868
43880W        W86896   1.011  29.925  16.093  0.3339 -0.4452 -0.1302
43881W        W86897  25.037   2.747  16.523  0.3236 -0.0523  0.5055
43882W        W86898   3.394   9.074  20.642  0.0599 -0.1460  0.3753
43883W        W86899   0.261   1.654   0.208 -0.0650  0.1015  0.1094
43884W        W86900  31.350  31.573  22.004 -0.3109 -0.1081 -0.0953
43885W        W86901   6.306  31.933  25.337  0.2371 -0.1212  0.0028
43886W        W86902  15.381  26.543  22.243  0.0395  0.5378  0.0860
43887W        W86903  29.970   2.105  16.856  0.1527  0.1051 -0.2269
43888W        W86904  15.211  30.168  19.154 -0.2520  0.0229 -0.1851
43889W        W86905   2.413  10.242  15.443  0.1894  0.4132  0.1317
43890W        W86906  26.823   0.682  24.719  0.3043  0.1454 -0.1311
43891W        W86907   4.700   1.431  27.382  0.0657  0.1145 -0.4663
43892W        W86908   1.089   1.193  15.957 -0.2082  0.3770  0.2106
43893W        W86909   0.825  26.483   4.462 -0.2679  0.0662  0.0514
43894W        W86910  22.632  23.432  20.700  0.1705 -0.3141 -0.0139
43895W        W86911  28.916  24.161  16.789 -0.0835  0.0969 -0.0794
43896W        W86912   7.477   9.408  21.958 -0.3803 -0.1723  0.1666
43897W        W86913   1.319   9.520  23.293  0.1753  0.2428  0.3417
43898W        W86914   7.969  27.452  17.388 -0.0177  0.1067  0.1234
43899W        W86915   6.300   4.309  22.845  0.1504 -0.0118 -0.3378
43900W        W86916   7.680  16.443  15.924 -0.0485 -0.0318  0.0814
43901W        W86917   3.168  25.702  25.099  0.0629 -0.2974 -0.0046
43902W        W86918   0.825   3.163  17.687  0.0442 -0.2214  0.0107
43903W        W86919  27.732  33.256  19.692 -0.3896  0.3307 -0.1830
43904W        W86920  28.639  33.278   9.147 -0.0303  0.1385  0.2629
43905W        W86921   0.589   1.987  21.670  0.3045 -0.1249 -0.1934
43906W        W86922   7.054  21.389  22.510 -0.1790  0.1449  0.2284
43907W        W86923  13.527  31.989   2.207 -0.3353  0.1802  0.0203
43908W        W86924  22.330  12.389   7.982  0.4490  0.1030 -0.1081
43909W        W86925  24.190   1.453  21.380  0.2626 -0.0378  0.1319
43910W        W86926  27.643  20.216  17.596 -0.0311  0.2265 -0.0458
43911W        W86927   2.960   3.182   0.223 -0.0908  0.0395  0.2787
43912W        W86928  12.799   2.957  15.814 -0.4351 -0.0038 -0.2293
43913W        W86929  24.165  30.228   6.235  0.2754  0.2705  0.2262
43914W        W86930  31.377  21.617  26.556  0.1283 -0.2023 -0.0431
43915W        W86931  11.012  28.916  18.139  0.1638 -0.1741  0.1048
43916W        W86932  17.668   9.384   1.594  0.2286 -0.2510 -0.1413
43917W        W86933  23.817  21.945  14.825 -0.1431  0.3099  0.0676
43918W        W86934   6.790  16.777  23.127 -0.1423 -0.0454  0.0331
43919W        W86935   4.438   4.373  19.462  0.2818 -0.0782 -0.0925
43920W        W86936   9.565  24.193  17.808 -0.0377  0.2200  0.1304
43921W        W86937  28.752  32.686   1.084  0.0012 -0.1781  0.1526
43922W        W86938  26.059   5.171  20.066  0.0992  0.0826  0.0992
43923W        W86939  25.603   5.697  15.828 -0.0504 -0.0179 -0.0739
43924W        W86940   4.306  32.370  28.576  0.0966  0.0455 -0.1211
43925W        W86941   1.970   5.476  18.686  0.4672 -0.0882  0.1105
43926W        W86942  25.912  20.853  24.675 -0.1056 -0.0167 -0.1656
43927W        W86943  29.954   0.708   0.877  0.1996  0.2028  0.0252
43928W        W86944  19.679   1.906  25.669  0.1587 -0.1016 -0.0155
43929W        W86945  22.315  33.103  22.732  0.0911 -0.0105 -0.3482
43930W        W86946  25.887  28.740  29.259  0.0175  0.1666 -0.2445
43931W        W86947  31.615   5.253  22.099  0.0022  0.1735 -0.2188
43932W        W86948  27.627  31.646  22.780  0.0877 -0.3515  0.0817
43933W        W86949  30.445  28.556  20.299  0.2894  0.1035  0.5079
43934W        W86950  28.507  29.238  19.342  0.1578  0.2356 -0.1811
43935W        W86951  15.023  25.533  17.738  0.1417 -0.1137 -0.1181
43936W        W86952  22.561  33.612   7.812  0.0231  0.0270  0.0964
43937W        W86953   0.467  12.699  27.516 -0.2311  0.1692  0.1290
43938W        W86954  32.917  28.396   3.597 -0.0446 -0.2336  0.3130
43939W        W86955  25.514  33.387  23.436  0.2816  0.2122  0.1487
43940W        W86956   5.240  32.072  23.591  0.2154  0.0154 -0.1540
43941W        W86957  30.767  31.832   5.646  0.2928 -0.0149 -0.1477
43942W        W86958  25.675   4.304  19.081  0.1383 -0.0469 -0.1822
43943W        W86959  34.069  26.600  24.884 -0.1967  0.2492 -0.1038
43944W        W86960  17.883  33.794  27.905 -0.2718  0.1530  0.0983
43945W        W86961   0.792  20.772   0.306  0.1738 -0.0029 -0.0589
43946W        W86962  29.329   7.265  17.032 -0.0443  0.0579  0.1580
43947W        W86963  33.612  10.413  19.760 -0.2110 -0.1793  0.3475
43948W        W86964   6.709  33.107  25.781 -0.2298 -0.1701 -0.0585
43949W        W86965  27.791  28.797  26.177  0.1026 -0.1222  0.0923
43950W        W86966   0.479  23.610  14.803  0.1118 -0.0377 -0.0022
43951W        W86967  10.169  28.604  20.663 -0.2160 -0.0878 -0.1067
43952W        W86968  34.298  27.247  19.141  0.0534 -0.3795 -0.1875
43953W        W86969  29.595  29.561  23.138 -0.4934 -0.4471  0.2707
43954W        W86970  31.250  13.618   8.350  0.0850  0.0827 -0.1538
43955W        W86971   8.001  25.766  27.629  0.5076  0.2038 -0.2940
43956W        W86972  25.719  30.158   0.054  0.3189  0.1660 -0.1936
43957W        W86973  29.986  22.735  15.729 -0.0604  0.2331  0.3274
43958W        W86974  10.270   2.918  17.688  0.1689 -0.0248  0.0530
43959W        W86975  31.639  26.406  26.240 -0.3095  0.0857 -0.2160
43960W        W86976  21.846  31.443  23.029  0.2048  0.2021 -0.0729
43961W        W86977  25.772  21.597   2.647  0.0680 -0.0285  0.1981
43962W        W86978  33.300  20.302  15.195 -0.2031 -0.3120  0.0357
43963W        W86979   8.719  22.600  15.533  0.1450 -0.0370 -0.1648
43964W        W86980  12.681  26.660  16.271 -0.2023 -0.1935 -0.4060
43965W        W86981  29.701   1.213   4.511  0.0200 -0.1570  0.0401
43966W        W86982  32.527  32.976  18.691 -0.1215 -0.3586 -0.1655
43967W        W86983   0.854   2.588  15.387  0.1037  0.2975  0.0432
43968W        W86984  24.848  31.553  20.154  0.1180  0.0876  0.1503
43969W        W86985   0.259   6.022  25.201  0.0558 -0.1005 -0.2214
43970W        W86986  17.235  22.612  13.570 -0.2276  0.1589  0.0749
43971W        W86987  27.930  12.799  25.330 -0.0894 -0.0216 -0.0273
43972W        W86988  10.461  25.304  18.766 -0.3774 -0.3044 -0.4340
43973W        W86989  23.006  22.525  18.974 -0.2744 -0.2078  0.0225
43974W        W86990  27.294  20.294  20.844  0.0010  0.1299  0.1452
43975W        W86991  28.638  31.478   3.005  0.0699  0.0489  0.2465
43976W        W86992  31.708   4.805   6.026  0.1742  0.0474 -0.0090
43977W        W86993  24.423  26.811  26.265  0.0261  0.0644 -0.1542
43978W        W86994  16.430   3.049  14.409 -0.0955  0.3529 -0.1372
43979W        W86995  32.567   4.872  16.900 -0.0023  0.0873  0.0338
43980W        W86996   6.855   0.287  16.303 -0.0186  0.3245 -0.1038
43981W        W86997  11.087   2.522   4.129  0.1725  0.2987 -0.1613
43982W        W86998  14.848  25.068  14.424  0.1534  0.4486 -0.0107
43983W        W86999  14.488   2.113  13.680 -0.2007 -0.0997  0.2472
43984W        W87000  27.131  25.735  22.576  0.0768 -0.2454  0.1521
43985W        W87001  30.488  30.666  10.138  0.0484  0.2790  0.3688
43986W        W87002   1.086  23.983   2.202  0.0748 -0.0033  0.0845
43987W        W87003  29.777  34.219  27.473 -0.0643  0.2833 -0.0529
43988W        W87004  14.411  34.381  28.990 -0.0665  0.0787 -0.2594
43989W        W87005   0.665  28.322  15.076 -0.1698 -0.0545  0.0767
43990W        W87006  22.190  22.335  26.640 -0.1020  0.0270 -0.0897
43991W        W87007   6.845  27.173  24.719  0.0002  0.0263  0.1312
43992W        W87008  11.780  34.473  20.438 -0.0044  0.1141  0.1157
43993W        W87009  27.968  34.203  23.042 -0.0857 -0.0903 -0.0629
43994W        W87010  23.071  10.902  15.529  0.2702  0.0285 -0.0860
43995W        W87011   1.926  23.326  29.244  0.1168  0.0999  0.0630
43996W        W87012  31.644  25.973  22.709  0.1371 -0.1743 -0.1581
43997W        W87013  29.832   4.317  25.240 -0.3002 -0.0647 -0.2766
43998W        W87014   0.378   0.426   8.489 -0.1592  0.3449  0.1556
43999W        W87015   6.761   6.304  21.020 -0.2421 -0.1102 -0.2906
44000W        W87016   7.004   2.807  17.863  0.2187  0.0848  0.0150
44001W        W87017  33.812   1.885   4.784  0.1114 -0.2464 -0.1599
44002W        W87018   7.005   2.943  19.300  0.1367  0.1954 -0.0008
44003W        W87019  24.933   7.622  26.099 -0.4041 -0.4702  0.4189
44004W        W87020  10.368  13.004  16.750 -0.0083 -0.3985  0.1601
44005W        W87021  32.414   2.000  20.115  0.0189 -0.1590  0.1010
44006W        W87022  12.507  19.156  26.946 -0.0652  0.0740 -0.3523
44007W        W87023  26.661  15.395  15.058  0.0742  0.1202 -0.1343
44008W        W87024  17.609  33.088   0.251  0.1191 -0.0578 -0.1917
44009W        W87025  27.485  24.381   7.008 -0.0973  0.2214  0.2688
44010W        W87026  21.729  29.247  23.733  0.3506  0.1220 -0.0480
44011W        W87027  29.238  27.397   0.428  0.2175 -0.0650  0.0370
44012W        W87028  11.078  19.953  16.060  0.2368  0.0406  0.0922
44013W        W87029  13.559   0.189  16.509 -0.0738  0.1882 -0.0415
44014W        W87030  10.502  34.052  23.543  0.1391 -0.1505 -0.0335
44015W        W87031   7.732   9.291  14.479  0.1137  0.5157 -0.0516
44016W        W87032  33.848   5.782  19.409  0.1610 -0.2044  0.1533
44017W        W87033   2.298  21.287  28.926  0.1263  0.1970  0.1648
44018W        W87034  25.656  23.928   0.022 -0.2328  0.3568  0.0346
44019W        W87035  30.954   5.290  21.263  0.0172 -0.1388 -0.2102
44020W        W87036  16.814  31.938   8.021  0.3459  0.1924  0.0266
44021W        W87037  26.193  26.772   7.061  0.2822  0.1287 -0.0143
44022W        W87038  30.399   9.641  16.157  0.3065 -0.2185  0.2630
44023W        W87039  12.891  32.984  28.052 -0.0310  0.1879  0.0950
44024W        W87040  27.506  10.521  23.764 -0.2124 -0.0608 -0.2820
44025W        W87041  30.551   3.492  25.676 -0.0624  0.1066 -0.1672
44026W        W87042  31.138  33.220  20.041 -0.2302  0.1539 -0.1486
44027W        W87043   4.153  10.900  21.923  0.4051 -0.4382 -0.3994
44028W        W87044  27.224  33.253  19.887 -0.1890 -0.3717  0.0415
44029W        W87045   6.167   4.216  22.227 -0.1040  0.0869 -0.3171
44030W        W87046   2.110  11.217  19.650  0.1351 -0.0659 -0.1973
44031W        W87047   7.712   7.341   1.952  0.0723 -0.1816  0.0010
44032W        W87048  13.402   3.512  19.611  0.1351 -0.4601 -0.0073
44033W        W87049   5.461  18.994  19.444  0.2882 -0.1534  0.1410
44034W        W87050   3.240  10.474  19.608 -0.0281 -0.0089 -0.3175
44035W        W87051  25.126   2.689  25.094 -0.0030 -0.1896  0.1665
44036W        W87052  28.688  30.633  21.939 -0.2457  0.1517 -0.1425
44037W        W87053  30.787  29.940  19.964 -0.0446  0.1015  0.2395
44038W        W87054  34.334   2.690  16.637 -0.0580  0.3748  0.0298
44039W        W87055  34.753  27.503  16.275 -0.0284 -0.0822 -0.3510
44040W        W87056  25.098  32.194  22.896  0.1726 -0.0804 -0.0819
44041W        W87057  31.218  27.465   2.892  0.0225  0.1663 -0.3111
44042W        W87058  27.438  10.418  15.621 -0.4688  0.1142  0.3727
44043W        W87059  28.242  31.258  29.037  0.2553 -0.0306 -0.0530
44044W        W87060  22.836  33.071  20.887 -0.1571  0.0385  0.1780
44045W        W87061  28.464  10.165  17.613 -0.0113  0.0031  0.0564
44046W        W87062  34.611  14.262  27.200  0.2414 -0.1439  0.2133
44047W        W87063   3.408  26.851   1.961  0.1056 -0.1858  0.1809
44048W        W87064  17.906   0.031  27.766 -0.0453  0.2619  0.0449
44049W        W87065   1.768  16.028  15.357  0.0846  0.3610 -0.0003
44050W        W87066  20.976   1.320  18.912 -0.1137 -0.0984 -0.0698
44051W        W87067  25.112  29.738  25.620  0.0931 -0.0253 -0.0076
44052W        W87068   4.990  24.596   5.728  0.2666  0.1912 -0.0950
44053W        W87069   7.117  25.072   0.386 -0.0944 -0.0168  0.2583
44054W        W87070   1.556  27.649  28.767  0.1042 -0.1912  0.1529
44055W        W87071  31.425   5.257  21.451  0.0478 -0.0066 -0.1118
44056W        W87072   1.510   3.000  22.058  0.4223 -0.1855 -0.3481
44057W        W87073  27.529  30.035  23.701 -0.1231 -0.1182  0.0700
44058W        W87074  22.456   3.501  23.175 -0.1122 -0.1855  0.1200
44059W        W87075  33.954   8.921   0.175 -0.2144 -0.0176 -0.0710
44060W        W87076  20.931   4.973   8.374 -0.1060  0.1379 -0.2076
44061W        W87077   3.015  32.377   1.950  0.1343  0.0141 -0.4296
44062W        W87078  33.911   2.153  21.130 -0.2382  0.0173 -0.2407
44063W        W87079   5.188  20.414  27.398  0.2056  0.0481  0.0724
44064W        W87080   5.780  13.872  23.167  0.0337  0.2493  0.0747
44065W        W87081  29.182   0.726   6.702  0.1615  0.0437 -0.0992
44066W        W87082   5.665  27.361  28.188 -0.0529  0.0032  0.2757
44067W        W87083  22.922  32.632  18.904 -0.0233 -0.2043  0.0402
44068W        W87084  31.998   9.687  23.278 -0.2583  0.1830 -0.2308
44069W        W87085  29.635   1.680  24.574  0.0579  0.0210 -0.2468
44070W        W87086   5.651  23.926  14.725  0.0985  0.0515 -0.2333
44071W        W87087  15.126  27.077   2.770 -0.1553  0.0304 -0.1212
44072W        W87088  28.651  33.655  15.477 -0.2172 -0.4871 -0.2618
44073W        W87089  13.324  27.281  19.998  0.0064  0.1201  0.1316
44074W        W87090  20.275  28.978  15.246 -0.3505  0.0731 -0.0295
44075W        W87091  14.242   3.314  15.293  0.1711  0.0707  0.0278
44076W        W87092  22.348   8.890  21.974 -0.0036 -0.0838  0.3626
44077W        W87093  31.315   0.031  15.633 -0.1082  0.2645  0.2034
44078W        W87094   5.103  21.585  16.178  0.3029  0.0223  0.1394
44079W        W87095  29.529   7.836  29.090  0.0976 -0.1453  0.1269
44080W        W87096  33.474   4.350   3.608 -0.0608 -0.1946 -0.2367
44081W        W87097  32.575  20.454  22.666 -0.3480 -0.2846  0.3067
44082W        W87098  34.776  33.796   9.142 -0.2699 -0.0877  0.1281
44083W        W87099  22.307  24.664  29.126  0.1784  0.1364  0.3898
44084W        W87100  34.383  13.082  21.403  0.0839 -0.1507 -0.2450
44085W        W87101  26.524  22.352  23.500 -0.0011  0.4488 -0.1481
44086W        W87102  22.654  33.328   4.757  0.0541  0.1594  0.1947
44087W        W87103  11.888   7.495  18.776 -0.1794  0.0338  0.1465
44088W        W87104  30.166  31.343   2.762  0.2842 -0.1464  0.3090
44089W        W87105   9.664  15.869  26.461  0.4118  0.0412  0.2586
44090W        W87106  33.594  29.609  22.914 -0.1776 -0.0441  0.1352
44091W        W87107  26.597   0.043  23.687 -0.4664 -0.2603  0.0673
44092W        W87108  25.137  27.374   2.935 -0.1566  0.3320 -0.1214
44093W        W87109  27.490  26.003  15.689 -0.1599  0.1333  0.1719
44094W        W87110  24.533  22.646   1.137  0.0770 -0.0490  0.2666
44095W        W87111  31.914   2.344  15.508  0.1306  0.1318 -0.1784
44096W        W87112  21.675  26.543  17.579  0.4420 -0.0702 -0.3163
44097W        W87113  17.060  23.503  26.654  0.0381 -0.2571 -0.0874
44098W        W87114  25.490   8.349  21.896 -0.0607  0.0841  0.0978
44099W        W87115   5.125  15.265  17.151 -0.0539 -0.2112 -0.2381
44100W        W87116  11.291  32.135   0.619  0.1475  0.0047 -0.0489
44101W        W87117   3.065   8.104  17.274 -0.4526  0.2337 -0.3148
44102W        W87118  25.207  24.607  26.646 -0.0052  0.2699 -0.1329
44103W        W87119   6.378  25.906  23.274 -0.2302  0.2188 -0.0664
44104W        W87120   8.634  31.021  26.309 -0.2792  0.2087  0.0383
44105W        W87121  14.149   4.082  13.705 -0.3321  0.1916 -0.0484
44106W        W87122  14.042   7.612  21.247  0.0386 -0.0796  0.2536
44107W        W87123  27.131  25.052  20.809 -0.1601  0.0980  0.0841
44108W        W87124   6.822   5.531  18.633 -0.4479 -0.2693  0.1062
44109W        W87125  22.159  11.456  24.644 -0.0113 -0.4123 -0.1001
44110W        W87126   6.253   0.175  20.762 -0.2377  0.0795 -0.0776
44111W        W87127  21.632   3.548  27.923 -0.0511  0.0804  0.2448
44112W        W87128  21.608  28.307  21.648  0.1178  0.1071 -0.1839
44113W        W87129  26.247   2.512   3.930 -0.1745 -0.1872 -0.0276
44114W        W87130  27.474  26.855  18.087  0.1433  0.3562 -0.3545
44115W        W87131  30.413  23.964  23.276  0.0826  0.2541 -0.0173
44116W        W87132  10.931   4.518  20.336  0.0958  0.0988  0.0957
44117W        W87133   7.056  22.972  14.661 -0.3167  0.1946 -0.1225
44118W        W87134   1.051  21.227   4.038 -0.0845 -0.0160 -0.1713
44119W        W87135  23.541  15.291  17.535  0.1121 -0.1892  0.1062
44120W        W87136   2.580   4.185  29.134 -0.2921  0.0387 -0.1192
44121W        W87137   0.756  27.047  18.827 -0.0819 -0.2067  0.1806
44122W        W87138  23.438   4.059  15.261 -0.0016  0.3530 -0.0405
44123W        W87139  20.288   1.396  15.716  0.1231 -0.0454  0.0220
44124W        W87140  21.814  16.731  22.814  0.2877  0.1519  0.2921
44125W        W87141   0.726  31.385  19.528 -0.1988 -0.0592 -0.0578
44126W        W87142  30.425  16.684  17.090 -0.2847  0.1219  0.2268
44127W        W87143  13.389  22.904  23.314 -0.1163 -0.2863 -0.0418
44128W        W87144   0.061  33.597   6.516 -0.2521 -0.0469  0.2231
44129W        W87145   4.482  32.112  13.785  0.1813 -0.2195 -0.0629
44130W        W87146  28.268  32.928  22.082 -0.2700  0.2039  0.1125
44131W        W87147  20.482  21.470   6.540 -0.1169  0.1948  0.2384
44132W        W87148  22.622  32.554   5.928  0.1417  0.0970  0.2439
44133W        W87149  33.926  26.084  16.141 -0.0219 -0.0213  0.2124
44134W        W87150  28.937  32.705  29.072 -0.0593 -0.0037 -0.0010
44135W        W87151  25.491   5.222  24.701 -0.1127  0.2188 -0.3226
44136W        W87152   8.270  28.408   3.151 -0.1101 -0.0903  0.4156
44137W        W87153   6.902   2.274  23.178 -0.3401  0.1782  0.0611
44138W        W87154   9.098  23.282  14.577 -0.2177 -0.0830  0.1710
44139W        W87155  27.951  11.046   2.492  0.4491 -0.2174 -0.1362
44140W        W87156  32.391   3.312  21.086 -0.0246 -0.0794 -0.2192
44141W        W87157  32.919  23.643  14.976 -0.0896  0.0154  0.2948
44142W        W87158  33.393  25.900  16.248  0.1568  0.1141  0.2669
44143W        W87159  28.367   3.810  14.581 -0.0073  0.1753 -0.1449
44144W        W87160  28.932  29.660  24.003 -0.1381 -0.1368  0.1886
44145W        W87161  20.445   2.017  18.752 -0.1073 -0.0833  0.1288
44146W        W87162  29.421  30.742  10.100 -0.0486  0.0287  0.0281
44147W        W87163  25.841  19.594  20.118 -0.2399  0.0317 -0.1342
44148W        W87164  27.176   4.599   8.980 -0.2273  0.0354 -0.0744
44149W        W87165  27.131   3.142  23.078  0.0224  0.1141  0.0770
44150W        W87166  28.843  28.521  19.525 -0.1102 -0.0607  0.1380
44151W        W87167  22.258  22.237   1.992  0.0729  0.0661  0.1147
44152W        W87168  20.224   5.504  25.241  0.0698  0.0137  0.1815
44153W        W87169   6.102  18.706  13.644  0.0973 -0.3849  0.0128
44154W        W87170  17.272   9.453  20.068  0.2032  0.3991 -0.4097
44155W        W87171  19.707   6.492  18.277 -0.1705  0.3112  0.0582
44156W        W87172  25.314   6.460   2.027  0.0703 -0.1039  0.0353
44157W        W87173  34.465  23.551   1.772  0.0420 -0.4930  0.1344
44158W        W87174  27.505  32.784  26.415 -0.3013  0.0672 -0.3056
44159W        W87175  27.390  19.594  18.555  0.3482  0.4362 -0.1863
44160W        W87176  19.439  29.256  28.877 -0.1250 -0.1493 -0.2511
44161W        W87177  26.170   4.533  20.824 -0.2357 -0.0992 -0.1611
44162W        W87178  30.585  22.187  17.887 -0.1192 -0.0154 -0.1441
44163W        W87179  25.727  32.427  22.063 -0.0553  0.0723  0.0561
44164W        W87180  23.165  32.753   1.094 -0.4766  0.0213 -0.3262
44165W        W87181  13.095  28.740  29.216 -0.0569  0.2144 -0.2677
44166W        W87182   6.916  21.427  25.948 -0.2031  0.2629  0.0557
44167W        W87183   0.841  32.099  24.280 -0.1524 -0.0417 -0.1098
44168W        W87184  25.597  18.031  20.866 -0.1569 -0.0739  0.0010
44169W        W87185  34.350  28.740  16.102  0.2104  0.0191 -0.2756
44170W        W87186  13.778  26.101  13.934  0.1338 -0.2642  0.2304
44171W        W87187   2.371  27.783  23.613  0.0948  0.0917  0.0833
44172W        W87188   9.376   6.365  14.003  0.0465  0.2366  0.0906
44173W        W87189  10.877  28.927  25.135  0.2663 -0.0594  0.2748
44174W        W87190  34.375  26.540   6.436  0.0947  0.1862 -0.2165
44175W        W87191  27.735  33.239  15.665  0.1554  0.1090  0.0408
44176W        W87192   3.307   7.247  16.685 -0.2026 -0.1910 -0.0157
44177W        W87193  24.250  14.142  17.415  0.2582  0.0567  0.0276
44178W        W87194   3.952  30.715   4.440 -0.0512 -0.0232  0.2539
44179W        W87195   6.819  28.192  25.992 -0.3212 -0.0451  0.1159
44180W        W87196  24.880  26.748   0.433 -0.2809 -0.2200  0.0762
44181W        W87197  30.986  20.744  17.419  0.1394 -0.1098 -0.1278
44182W        W87198  32.787  31.089  10.001 -0.0688 -0.1137  0.1262
44183W        W87199   9.219  25.289  22.083 -0.0274  0.2533 -0.2079
44184W        W87200  25.829   9.091  19.959 -0.3333 -0.1449 -0.1733
44185W        W87201  29.467   2.476  25.445 -0.0044  0.1371  0.2340
44186W        W87202  28.314  28.566   0.721 -0.0332 -0.0839 -0.0382
44187W        W87203  28.534  34.226  24.241  0.0404 -0.0801  0.2199
44188W        W87204  27.774  28.328  28.265 -0.1716 -0.1470 -0.4461
44189W        W87205  31.193  34.513  20.946  0.1154 -0.1577  0.1909
44190W        W87206   1.849  20.613  17.158  0.3069 -0.0670  0.3487
44191W        W87207  26.151  23.219  26.269 -0.1660  0.0523 -0.0564
44192W        W87208  31.430   8.786  14.994 -0.0328  0.2173 -0.1478
44193W        W87209   6.066  27.755  22.637 -0.0744  0.2600 -0.0083
44194W        W87210  28.426  34.346   3.518 -0.1276 -0.0074 -0.1566
44195W        W87211  28.441  22.518  23.799  0.0034 -0.0957  0.0625
44196W        W87212  12.972   4.770  16.333 -0.0887 -0.0270 -0.0597
44197W        W87213  28.674   1.824  15.608 -0.2629 -0.2537  0.0740
44198W        W87214  22.100  34.134  22.542 -0.1076 -0.2696  0.0607
44199W        W87215  31.894   1.972   2.157 -0.2599  0.0560  0.0068
44200W        W87216   7.569   0.721  22.549  0.0473  0.2908 -0.0670
44201W        W87217   1.942  32.009  19.828  0.3167 -0.3094 -0.1409
44202W        W87218  34.593   2.131  22.413  0.1516 -0.0440  0.0148
44203W        W87219  16.554  14.949  15.461 -0.0965 -0.3423  0.1840
44204W        W87220  30.674   1.532  19.239  0.1122  0.1948  0.0355
44205W        W87221  21.020   0.857   0.345  0.1787  0.2404 -0.0843
44206W        W87222  21.180  32.845   4.834  0.0362 -0.0396 -0.0148
44207W        W87223   2.254  26.433  14.283  0.0159 -0.0759  0.2934
44208W        W87224   0.111  29.178   6.585 -0.0047 -0.1098  0.0623
44209W        W87225  20.476  31.725  16.393  0.0194  0.2941 -0.0315
44210W        W87226  30.924   4.046  19.969  0.4895  0.2169 -0.2164
44211W        W87227  25.618  27.294  16.539 -0.0585 -0.2076 -0.0071
44212W        W87228  33.670   7.346  18.391 -0.2399  0.0564  0.2328
44213W        W87229   2.993   4.501  18.760  0.0538 -0.0158 -0.1333
44214W        W87230  32.682   7.717   0.425 -0.1767 -0.0888  0.0246
44215W        W87231   4.910  12.843  24.581  0.0191 -0.1446  0.3157
44216W        W87232  10.304  27.914  24.508  0.3256  0.0904 -0.0267
44217W        W87233  10.464  28.865  19.784  0.4279 -0.0210 -0.0764
44218W        W87234  21.385   8.913  27.108 -0.0758  0.0693  0.3810
44219W        W87235  16.368   9.280  13.074  0.0124 -0.3183  0.1067
44220W        W87236  23.112  28.106   0.846 -0.1154  0.3882  0.0917
44221W        W87237  26.261  23.297  18.769 -0.1355  0.5732  0.0150
44222W        W87238  32.703  26.167  22.739  0.0920  0.2124  0.2675
44223W        W87239  16.603  28.642  21.304  0.0769  0.2017 -0.2409
44224W        W87240  31.073  33.282   3.387  0.2421  0.0489  0.0022
44225W        W87241  20.193   1.918  23.086 -0.1671 -0.0535  0.2328
44226W        W87242  25.753  23.083  25.217 -0.1687 -0.5299  0.2184
44227W        W87243  15.992   2.842  24.882  0.0718  0.0689  0.0150
44228W        W87244  31.827  28.828  22.974  0.1405  0.2184 -0.4562
44229W        W87245  28.896  32.338   1.735 -0.0106  0.1646 -0.0539
44230W        W87246  15.491  20.259   6.916 -0.0679 -0.3484  0.1178
44231W        W87247  32.242  25.697   5.588  0.1043 -0.0497 -0.3174
44232W        W87248   7.316  23.506  24.373  0.1238 -0.0500  0.3266
44233W        W87249  31.582  24.021  25.344  0.0293  0.0393  0.1066
44234W        W87250  11.877  20.006  28.109  0.1243 -0.2184  0.0377
44235W        W87251   4.965  14.406  22.346 -0.1781  0.0265 -0.1660
44236W        W87252  31.866  24.783   7.849  0.3164 -0.0280 -0.0144
44237W        W87253  21.147  33.974  22.496  0.0112 -0.1516 -0.1735
44238W        W87254   1.283   7.125  20.461  0.0937 -0.0896 -0.0604
44239W        W87255  28.965   8.894  18.766  0.1260  0.0722  0.1793
44240W        W87256  33.893  17.201  21.922  0.1273  0.1344  0.0771
44241W        W87257   5.825   1.320   4.885  0.0333  0.1087  0.4043
44242W        W87258   1.523   1.999   0.337 -0.1838 -0.1475  0.2026
44243W        W87259  19.312   4.289  17.549 -0.2779 -0.0465 -0.1313
44244W        W87260   1.523   8.332  23.644  0.1188 -0.0891 -0.0491
44245W        W87261  24.364  24.472  21.329 -0.0714  0.1488  0.0453
44246W        W87262  28.325  15.516  22.421 -0.1239 -0.3279 -0.2503
44247W        W87263   3.587  24.214  14.869 -0.3397  0.1368 -0.0482
44248W        W87264  26.605  27.264  17.605 -0.0736  0.1282 -0.2229
44249W        W87265   8.645  25.035  14.060  0.1975  0.1600  0.2562
44250W        W87266   6.712  34.338  16.911 -0.1789  0.0481 -0.0659
44251W        W87267  20.617   3.581  23.876 -0.2558 -0.3863  0.0854
44252W        W87268  31.634  19.467  22.167 -0.0524 -0.1971 -0.1624
44253W        W87269   8.421  20.230  23.669 -0.0892 -0.3807 -0.2202
44254W        W87270  12.393  30.173  18.743  0.0113  0.5099  0.2502
44255W        W87271  34.715  32.030  26.295  0.0905  0.0633 -0.5341
44256W        W87272  22.644  12.351   0.901 -0.1426  0.0551 -0.1055
44257W        W87273  27.727   4.441  19.750 -0.0764  0.3044 -0.0131
44258W        W87274  23.153  28.782  15.158 -0.0358 -0.1152 -0.2310
44259W        W87275  20.257   1.165  18.579  0.2716  0.3262  0.1473
44260W        W87276   7.141  31.792  24.655 -0.1404 -0.0948 -0.0817
44261W        W87277  14.848   5.648   0.395 -0.1239 -0.4187  0.0280
44262W        W87278   3.346   3.084  25.553 -0.0872 -0.1547  0.1322
44263W        W87279  33.719  32.521  20.747 -0.0060 -0.0191  0.2110
44264W        W87280   2.023  32.003   7.030  0.0582  0.0487 -0.2898
44265W        W87281  32.720   1.782  24.131 -0.1891 -0.0591 -0.1028
44266W        W87282  30.629  26.663  23.883  0.3677  0.0392 -0.1448
44267W        W87283  31.817  27.094  17.022 -0.2463  0.0361  0.1901
44268W        W87284  10.257  27.781  22.464  0.2820  0.0777 -0.2307
44269W        W87285   0.122  10.222  16.348 -0.3862  0.1562  0.0387
44270W        W87286  11.489   6.792  17.312  0.1378  0.0509 -0.0987
44271W        W87287  33.612  32.926  23.649  0.1061  0.1137  0.1019
44272W        W87288  32.202  28.041  22.747  0.2376  0.1794 -0.0722
44273W        W87289  28.547  22.613  19.537 -0.3162 -0.0641  0.1736
44274W        W87290  25.023  19.550  26.234  0.2560  0.4780 -0.2004
44275W        W87291   8.308  27.347   0.470  0.0361  0.2787 -0.1775
44276W        W87292  29.141  28.902  17.142 -0.0381  0.0202  0.0831
44277W        W87293  25.491  30.826  24.611 -0.1664 -0.4221  0.2604
44278W        W87294  16.435   0.796   4.621 -0.0670 -0.0802  0.0788
44279W        W87295   5.229  33.964  23.526 -0.2239 -0.0163 -0.0954
44280W        W87296  14.599  26.805  26.473 -0.1458 -0.0864 -0.3166
44281W        W87297  31.199  22.539  26.499 -0.0433  0.0095 -0.2066
44282W        W87298  32.447  31.297  22.888 -0.0572  0.0977 -0.1534
44283W        W87299  28.774  27.670  22.971 -0.2520  0.0548 -0.4765
44284W        W87300  16.709  26.054  18.998 -0.2478  0.2782  0.1756
44285W        W87301  30.335  19.599  25.865  0.0584  0.0081 -0.3823
44286W        W87302   4.405  23.903  26.501 -0.1688 -0.0224  0.0917
44287W        W87303   6.188  21.587  21.017 -0.0242  0.1517 -0.1814
44288W        W87304   5.595   4.474   0.673 -0.1237 -0.2893  0.1670
44289W        W87305  28.583  29.155   6.310 -0.1559 -0.0238 -0.0397
44290W        W87306   5.189  24.055  26.866  0.4366 -0.0341 -0.1792
44291W        W87307  30.755   4.666  16.925  0.1792 -0.2174  0.0023
44292W        W87308  28.940   8.490   2.335 -0.0231  0.0054  0.2003
44293W        W87309  20.113   9.431  22.040 -0.2226  0.2333 -0.3392
44294W        W87310   2.780  31.139  21.556 -0.2474  0.3574 -0.1279
44295W        W87311   6.872  20.456  23.097  0.3496 -0.0043 -0.0753
44296W        W87312  11.593   9.873  23.832  0.2299  0.4478 -0.0190
44297W        W87313  29.465   6.979  16.043  0.1671  0.3810 -0.0445
44298W        W87314  22.570   6.778   0.179 -0.3261 -0.0407  0.1533
44299W        W87315  13.006   5.849  21.251 -0.1396 -0.0557 -0.1304
44300W        W87316  19.612  28.208  14.395 -0.1969 -0.0255  0.1601
44301W        W87317  13.235  34.334  22.594 -0.0288  0.0345  0.0073
44302W        W87318  20.653  22.018   0.229  0.1638 -0.1679 -0.1947
44303W        W87319   2.499   3.085  19.868  0.0894  0.0686  0.1212
44304W        W87320  30.508   2.958   1.570 -0.2290 -0.1794  0.0708
44305W        W87321   7.421  21.598  17.028  0.0714  0.2901 -0.0184
44306W        W87322  33.044   4.224  19.708  0.1499  0.0054  0.0231
44307W        W87323  26.692   6.590  16.682  0.3510 -0.1901 -0.0120
44308W        W87324  29.857  15.024  28.984  0.0024  0.3128 -0.0971
44309W        W87325   7.634  24.870  16.540 -0.2047 -0.2409  0.0636
44310W        W87326  30.400  22.643  16.018  0.1299 -0.1801  0.3018
44311W        W87327   5.723  27.478  14.655 -0.1263  0.1693 -0.0409
44312W        W87328  31.771   5.782  16.833 -0.3012 -0.4967 -0.2307
44313W        W87329   0.027  25.689  20.498  0.2007  0.2407 -0.0137
44314W        W87330  30.519  10.990  25.445  0.3190 -0.0176  0.0020
44315W        W87331   4.795  33.691  16.140  0.0790 -0.0051 -0.0582
44316W        W87332  26.180  10.440  23.397  0.2718 -0.0553 -0.2228
44317W        W87333   7.957  34.234  24.438  0.3349 -0.0750 -0.0166
44318W        W87334  33.160   4.194   1.934  0.1965 -0.1683 -0.1324
44319W        W87335  27.033  31.184   8.773  0.5038  0.1018 -0.4680
44320W        W87336  15.956   0.878   6.391 -0.0054  0.0127 -0.1225
44321W        W87337  12.837   9.042  22.086  0.0956  0.1083  0.0737
44322W        W87338  29.229  12.995  18.024 -0.3003  0.1190 -0.2398
44323W        W87339  22.578   8.583  14.145  0.2081 -0.0092  0.0176
44324W        W87340  29.665  28.661  19.778  0.2080  0.0861 -0.0974
44325W        W87341   1.905   3.505  27.475  0.0185 -0.0302  0.0970
44326W        W87342  24.348   1.751  24.975  0.0989 -0.4190  0.0793
44327W        W87343   2.017  28.317  20.822 -0.2297  0.2332  0.0262
44328W        W87344  34.421  27.854   1.787 -0.1933 -0.0014 -0.0995
44329W        W87345  18.305  15.168  11.291  0.1416 -0.0160 -0.1791
44330W        W87346  31.224  10.817  26.365  0.0499  0.1869 -0.1493
44331W        W87347  24.628   6.452  10.246  0.3019 -0.1749 -0.1742
44332W        W87348  32.069  33.613  17.353  0.5471 -0.0499 -0.0872
44333W        W87349  25.106  33.987  26.405  0.0012  0.2377 -0.1500
44334W        W87350  30.354   9.954  27.205  0.1250  0.2787 -0.1483
44335W        W87351   7.947  22.471   0.894  0.0635 -0.1528  0.0455
44336W        W87352  30.548   0.905  21.585 -0.1423 -0.3444  0.1128
44337W        W87353   2.346  17.200  21.195 -0.0597  0.1593 -0.1983
44338W        W87354  20.330  21.997   3.600  0.2068 -0.0403  0.0768
44339W        W87355  16.173  26.945  27.430  0.2684 -0.2133 -0.0812
44340W        W87356  25.950  25.354  24.820 -0.0994 -0.1885  0.0126
44341W        W87357  25.423  21.922  22.983 -0.1872 -0.0157 -0.0860
44342W        W87358   3.903   0.509  14.069  0.3711  0.1237  0.1649
44343W        W87359  32.171   4.116  19.900 -0.0947 -0.1586  0.1994
44344W        W87360  30.789  33.102  19.041  0.1240  0.0258  0.1130
44345W        W87361   3.186  33.063  15.109  0.2666 -0.2654  0.0477
44346W        W87362  34.726  26.747  23.597  0.3345  0.1212  0.2777
44347W        W87363  32.955  14.865  22.621 -0.1344  0.3925  0.1304
44348W        W87364   1.128   3.797   3.896  0.3019 -0.1060  0.0642
44349W        W87365  24.447  17.919  22.276 -0.0060  0.0418 -0.0193
44350W        W87366  21.882  16.901  23.625  0.0523 -0.5351 -0.1132
44351W        W87367  22.556  27.469   1.199  0.0957  0.1476  0.4381
44352W        W87368  31.958  18.657  16.200 -0.0193  0.2119 -0.2234
44353W        W87369   4.150  29.140  14.865  0.2018  0.2307  0.1120
44354W        W87370  29.472   3.387  24.076  0.3613  0.0633 -0.2450
44355W        W87371  12.529  28.361  20.478  0.1203 -0.0770 -0.2267
44356W        W87372  28.813  14.840  15.699  0.1977  0.1131 -0.1759
44357W        W87373   2.843  27.137  15.460 -0.1048 -0.2268 -0.0492
44358W        W87374  26.312  23.949   1.207 -0.1479 -0.1057  0.1510
44359W        W87375  22.761   1.008  23.313 -0.0763 -0.1739 -0.2369
44360W        W87376   1.546   4.270  21.481  0.2221 -0.2389 -0.1133
44361W        W87377  21.839  19.302  25.806  0.0691 -0.0129 -0.2650
44362W        W87378   6.057  33.706  18.935  0.0804 -0.0254  0.0647
44363W        W87379   1.360   1.348  15.347 -0.1596 -0.0239 -0.2672
44364W        W87380  32.866  34.413  20.931 -0.1410  0.3354 -0.2881
44365W        W87381  23.059   8.337  15.038 -0.2512  0.1924  0.2115
44366W        W87382  31.377  17.235  21.057 -0.1883  0.0141 -0.0793
44367W        W87383  24.674   0.827  24.783 -0.1531  0.0108 -0.3715
44368W        W87384  28.841  29.864   3.464  0.0293  0.1478  0.1887
44369W        W87385   9.652   9.458  15.370 -0.1701 -0.1219 -0.3166
44370W        W87386  25.928   6.945   3.975  0.1059  0.1093 -0.0424
44371W        W87387   3.903  28.833   6.006  0.0740 -0.1801  0.4900
44372W        W87388  15.865   5.297  16.929 -0.0906 -0.1138  0.0673
44373W        W87389  29.982  32.038  26.516  0.0534 -0.1677  0.1650
44374W        W87390   1.851  21.552  19.398  0.2939 -0.1576 -0.0403
44375W        W87391   1.263   2.989  15.539 -0.0188  0.0220  0.1853
44376W        W87392  30.290  29.407   8.029 -0.1410 -0.0192 -0.0722
44377W        W87393  28.524  29.238  23.883 -0.0240 -0.3872 -0.1710
44378W        W87394  24.250   3.722  20.160  0.2981 -0.2818  0.0065
44379W        W87395  23.532  30.820  16.689 -0.0061  0.0823  0.1220
44380W        W87396  28.606   2.417  21.477 -0.1368 -0.1774 -0.1403
44381W        W87397  21.231  23.362  19.417 -0.1240 -0.0461 -0.1365
44382W        W87398  22.372   1.448  21.950 -0.1103 -0.2926  0.1321
44383W        W87399  25.025  32.699   2.897 -0.1805  0.2454 -0.0342
44384W        W87400  23.698  30.136  18.299  0.0824  0.1090 -0.2330
44385W        W87401  34.379  29.977  23.538 -0.1387 -0.0358 -0.0457
44386W        W87402   4.873  31.863  24.322  0.1555  0.1369 -0.0019
44387W        W87403  29.475  33.578  24.061 -0.3433  0.0234 -0.0793
44388W        W87404  27.692  25.066  23.373 -0.0333  0.0877  0.1114
44389W        W87405   9.238  24.319  23.776  0.1291 -0.0802  0.1396
44390W        W87406   1.840  33.376  28.013 -0.0578  0.1786 -0.0891
44391W        W87407   2.134  23.225   7.332 -0.0522 -0.0550 -0.5022
44392W        W87408   0.408  11.578  19.865  0.3008 -0.0092 -0.0196
44393W        W87409  11.129  28.393  18.913  0.3576  0.0715  0.0017
44394W        W87410  15.434   3.347  14.103  0.1352  0.0581 -0.2053
44395W        W87411  11.439  17.360  18.656 -0.1430  0.3658 -0.2580
44396W        W87412   6.418  21.167  13.974  0.0624  0.2356  0.1051
44397W        W87413  30.072  31.738  27.810 -0.5781  0.5068  0.1768
44398W        W87414  24.369  34.156  11.385 -0.2439  0.1651  0.2063
44399W        W87415  33.243  26.070   5.761  0.2948 -0.0610 -0.2088
44400W        W87416   4.962  27.878  26.419  0.0353 -0.0339  0.1309
44401W        W87417  26.736  28.417   4.564 -0.2759  0.0805  0.0590
44402W        W87418  24.256   1.453  14.460 -0.0170  0.1539 -0.2587
44403W        W87419  25.758   6.219   1.040  0.3793 -0.1702  0.0645
44404W        W87420  25.672   1.286   6.516  0.0966 -0.1135 -0.0038
44405W        W87421  14.876  23.184  13.120  0.0803  0.1382  0.0575
44406W        W87422  25.026  34.054   3.125  0.1126  0.1694 -0.1859
44407W        W87423  12.905  10.914  19.496  0.1651  0.2933 -0.1769
44408W        W87424  28.916   0.947   0.003 -0.3190  0.0669  0.1160
44409W        W87425  29.776   3.234  20.264  0.2034 -0.2330  0.3651
44410W        W87426   9.984  24.533  26.134 -0.2543 -0.0066  0.2098
44411W        W87427   3.074  12.129   3.680 -0.3441  0.0205  0.3648
44412W        W87428  34.354   2.345   9.005 -0.0124 -0.2609  0.4841
44413W        W87429  26.799   4.972   3.430 -0.1244 -0.0679 -0.0324
44414W        W87430  33.589  32.526  17.841 -0.3948 -0.2960 -0.5251
44415W        W87431  28.917  28.116  18.691 -0.1004  0.1793 -0.3268
44416W        W87432   2.395  23.202  17.327 -0.4180  0.0886  0.1705
44417W        W87433  10.011   8.894  16.646 -0.1046 -0.1074  0.0173
44418W        W87434  31.658   1.179   7.175  0.0561 -0.0624 -0.2130
44419W        W87435   6.158   0.271   6.810 -0.0330  0.2309  0.0095
44420W        W87436  18.275  12.982  14.443  0.1930 -0.1066  0.0241
44421W        W87437  26.962  29.095  24.690 -0.0672  0.0384 -0.1594
44422W        W87438  27.204  21.585  26.905 -0.0268 -0.2067  0.1129
44423W        W87439  27.936  26.877  25.502 -0.0221  0.2128  0.2152
44424W        W87440  16.691  28.277  26.801  0.1137 -0.1410 -0.1317
44425W        W87441  27.300  18.724  16.660  0.0249  0.0082  0.1308
44426W        W87442  32.210  20.378  29.009 -0.1500  0.0163  0.2350
44427W        W87443  18.508  17.855  11.447  0.2437 -0.1161  0.1483
44428W        W87444  30.136   7.953  10.880 -0.0578  0.1901 -0.1919
44429W        W87445  19.598  28.762  25.138 -0.2552 -0.0278 -0.2051
44430W        W87446  21.329  29.444  24.718  0.4727  0.2106 -0.0568
44431W        W87447  31.709   2.179  18.851  0.0074 -0.0024 -0.1585
44432W        W87448  14.099   5.233  22.868  0.0231 -0.0038 -0.1096
44433W        W87449  29.605   5.619   1.891  0.2740 -0.1571  0.2745
44434W        W87450  30.084   8.331  22.166  0.0091  0.2081  0.2276
44435W        W87451  19.868  27.074   8.650  0.1375  0.1333  0.0173
44436W        W87452  30.377  30.211  17.003  0.1735  0.2433 -0.1644
44437W        W87453   8.015   3.109  28.644 -0.2793  0.1537 -0.0215
44438W        W87454  17.717  32.775  16.396 -0.0604  0.0486  0.4655
44439W        W87455   8.208  22.322   6.375 -0.1681  0.1492  0.0005
44440W        W87456   8.846  11.377  28.095  0.1670  0.0113 -0.3917
44441W        W87457  27.901   0.937  21.202 -0.0117  0.0554  0.2563
44442W        W87458   4.411  25.136  23.072 -0.1998 -0.3960 -0.3149
44443W        W87459  33.517   5.891  16.546  0.2552 -0.0451 -0.1580
44444W        W87460  17.276  29.448   2.266 -0.0418 -0.1858  0.2372
44445W        W87461  18.274  27.790  14.269  0.0092 -0.3169  0.1271
44446W        W87462  29.590  19.282  19.963 -0.0167  0.3099 -0.0544
44447W        W87463  33.024  18.501  29.290  0.1379  0.0471  0.1005
44448W        W87464   4.774  12.577  21.830 -0.0193 -0.0953 -0.1772
44449W        W87465  31.444   1.086  21.288  0.2079 -0.0700  0.3177
44450W        W87466  25.247   1.254  18.814  0.2752  0.0795 -0.1568
44451W        W87467   4.166   2.364  19.929  0.2032 -0.1467 -0.0890
44452W        W87468   0.299   2.588   0.671  0.0178 -0.3332 -0.1492
44453W        W87469  14.541  32.857  19.086 -0.0413 -0.0433  0.1232
44454W        W87470  29.362  12.845  21.121 -0.1478 -0.0599  0.0385
44455W        W87471   7.589  14.260  25.232 -0.1255  0.1702 -0.3853
44456W        W87472  33.918  29.685  21.391 -0.1619 -0.2983  0.0678
44457W        W87473  14.092  30.301  25.652 -0.1717 -0.4088 -0.0194
44458W        W87474   3.649  29.209   8.530 -0.0532  0.1401 -0.0079
44459W        W87475  24.968  32.418   0.503  0.1407  0.1843 -0.2298
44460W        W87476   8.132   2.958  27.589  0.2687  0.2433 -0.1996
44461W        W87477  23.257  33.428  25.695  0.1518 -0.0443  0.1031
44462W        W87478  22.955  34.562  18.787  0.0129  0.0483 -0.0149
44463W        W87479  26.401  33.850  18.129 -0.3213  0.2235  0.1457
44464W        W87480   0.440  25.391   1.326 -0.1468  0.1250 -0.1302
44465W        W87481   0.029   5.150  26.853  0.1336  0.1982  0.1348
44466W        W87482  13.425   2.659  22.639  0.1121 -0.4717  0.1947
44467W        W87483  25.038  20.578  19.220 -0.0464  0.0984  0.0179
44468W        W87484  31.066   9.277  20.284 -0.0238 -0.3507  0.0169
44469W        W87485  24.734  15.888  15.509 -0.0827 -0.2295  0.0622
44470W        W87486  26.307  23.386  23.590  0.0626 -0.2710  0.2060
44471W        W87487  32.786   7.158  16.013  0.3598  0.0838  0.0645
44472W        W87488   1.547  28.637   1.584 -0.2191  0.2433 -0.0473
44473W        W87489  25.747  24.410   4.455  0.1147  0.0040 -0.1689
44474W        W87490  34.026  11.556   4.630 -0.3288  0.1913 -0.2339
44475W        W87491  26.268   7.596  16.932  0.0982  0.1640  0.0006
44476W        W87492   1.839  22.255  25.254 -0.2178 -0.0932 -0.0164
44477W        W87493  23.207  23.752   1.751  0.0521  0.0415  0.0457
44478W        W87494  32.431  12.973   0.520 -0.0512  0.2491 -0.0951
44479W        W87495   0.784   9.877  16.585  0.1081 -0.0911 -0.0135
44480W        W87496   2.639  31.235  22.395  0.0715 -0.1965  0.0038
44481W        W87497   7.541  30.737  16.903 -0.2389 -0.1653 -0.0526
44482W        W87498  26.434  34.084  18.525 -0.2001 -0.0258  0.4993
44483W        W87499   1.512   7.110  21.448 -0.2963  0.4041 -0.0823
44484W        W87500   5.249  15.294  15.808  0.4500 -0.1772 -0.2236
44485W        W87501   1.180  21.202  15.870  0.0836  0.0831  0.1109
44486W        W87502   3.116  33.084   4.625 -0.1156  0.0323  0.0136
44487W        W87503  34.773   9.971   1.324  0.2435 -0.3187  0.1062
44488W        W87504  23.212   0.844  16.668 -0.1290  0.1947  0.0295
44489W        W87505  21.782  17.388   6.798 -0.0217  0.0492  0.1546
44490W        W87506  11.053  24.019  26.779 -0.2415  0.0122 -0.2306
44491W        W87507   0.248  28.817   7.109 -0.0044  0.2943  0.1327
44492W        W87508   1.408  30.521  20.983 -0.1673  0.1511 -0.3890
44493W        W87509   4.573  19.295  13.697 -0.1451 -0.0161 -0.1293
44494W        W87510  29.051   6.775   6.778 -0.4495  0.1035 -0.0031
44495W        W87511   9.830  26.955  25.929 -0.0633 -0.1195 -0.0332
44496W        W87512  28.442  16.330  16.920 -0.0154 -0.0360 -0.0248
44497W        W87513   7.014  29.255  21.983  0.1031 -0.2719 -0.1512
44498W        W87514  29.703  25.490   8.287  0.0438  0.0001  0.0571
44499W        W87515  29.230  33.030  22.363  0.3238 -0.3716  0.1020
44500W        W87516  27.882  21.914  25.966  0.0442 -0.2591 -0.3323
44501W        W87517  28.087  31.031  21.507 -0.0560  0.2214  0.3131
44502W        W87518   9.781   3.335  20.093  0.4012 -0.1911  0.1120
44503W        W87519   1.496   4.312  18.199 -0.0086 -0.1656  0.1063
44504W        W87520  19.872   4.149  23.939  0.0685 -0.1359 -0.0966
44505W        W87521  16.454  31.463  24.801  0.0143  0.0716 -0.0600
44506W        W87522  26.953  26.776  10.580 -0.4001 -0.0807 -0.0424
44507W        W87523  34.209  26.196  23.173 -0.0771  0.1183  0.1350
44508W        W87524  29.279   1.238  17.987  0.0006  0.5625  0.0399
44509W        W87525   2.122  32.348   0.646  0.0554 -0.2749 -0.2746
44510W        W87526  29.132  23.606  23.442  0.3859  0.2641 -0.0405
44511W        W87527   0.573  15.563  18.936 -0.0790 -0.4551 -0.1321
44512W        W87528  18.400   5.614   6.307  0.2546  0.1607 -0.0142
44513W        W87529  26.785   1.330  27.468 -0.0424 -0.1241 -0.1045
44514W        W87530  33.580  13.212  26.901 -0.2182  0.0097 -0.1250
44515W        W87531  32.195   0.522   4.250  0.2888  0.0597  0.0606
44516W        W87532  11.908  25.429  20.766 -0.1559  0.1384 -0.0168
44517W        W87533   6.414  18.165  19.054  0.1338 -0.1275  0.3226
44518W        W87534  21.840   2.284   0.814  0.2303  0.0975 -0.0263
44519W        W87535  28.925  32.537  20.370  0.0485 -0.0803  0.1118
44520W        W87536  17.106   8.559  23.697  0.1456  0.0790 -0.3256
44521W        W87537  21.457  27.418  26.572  0.1898  0.1281  0.1658
44522W        W87538  30.016  22.986  27.527  0.0344 -0.1816 -0.0336
44523W        W87539  32.618  17.530   1.365 -0.0593  0.1124  0.1132
44524W        W87540   2.833   1.986  14.973 -0.0152 -0.0807  0.1734
44525W        W87541  27.711  24.794  27.083  0.0291 -0.5189  0.1783
44526W        W87542  18.689  25.759   1.047  0.1477 -0.0008 -0.1177
44527W        W87543   6.080   4.238  26.379 -0.2209  0.2179  0.4756
44528W        W87544  34.312  34.715   5.455  0.2046 -0.3829  0.3349
44529W        W87545  28.569  11.294   0.856  0.2620  0.1632 -0.0500
44530W        W87546   4.592  15.799  20.321 -0.1061 -0.0893 -0.0856
44531W        W87547  25.810  10.890  19.260  0.0164  0.2005  0.1162
44532W        W87548  31.008   9.073  16.011  0.0203  0.0683  0.0089
44533W        W87549  10.892  34.417  14.306 -0.0063 -0.0455  0.0757
44534W        W87550  24.590  31.377   5.462 -0.2552  0.0182 -0.0195
44535W        W87551   5.403   3.583  28.422  0.1040  0.5089  0.1692
44536W        W87552  32.105   0.756  24.707 -0.3043  0.1079  0.1178
44537W        W87553  32.455  10.734  20.159  0.1088  0.3329 -0.0311
44538W        W87554  28.070  30.940  26.719 -0.0223 -0.1631 -0.1371
44539W        W87555  28.372  13.221  20.472 -0.3544 -0.2068 -0.2597
44540W        W87556  10.462  23.240   2.818  0.2606  0.1549  0.2245
44541W        W87557   5.851  33.410  26.250 -0.0633 -0.1478  0.2044
44542W        W87558  25.091   2.590  27.936  0.0694  0.0004 -0.0675
44543W        W87559   2.088  16.894   0.822 -0.4660 -0.1857 -0.2040
44544W        W87560  31.148   2.814   3.491  0.2472 -0.0539 -0.0250
44545W        W87561   1.897  33.235  23.583  0.0300 -0.1124 -0.2181
44546W        W87562  30.508   7.979  21.193  0.0693  0.0483  0.0216
44547W        W87563  29.954  15.343  23.548 -0.3886 -0.2332  0.3007
44548W        W87564  23.137  34.713  19.601  0.0962  0.1708  0.0233
44549W        W87565  34.438  24.286   0.583 -0.0599  0.3308  0.0702
44550W        W87566   5.377  30.713  14.996  0.1816 -0.0661 -0.1158
44551W        W87567  33.721  20.009  10.048  0.2856 -0.0708 -0.1052
44552W        W87568   8.956  19.818  17.180 -0.0849  0.1160  0.4078
44553W        W87569  29.896   3.092  16.702 -0.2103  0.0033 -0.0548
44554W        W87570  13.476  24.750   4.909 -0.2403  0.0025 -0.1582
44555W        W87571  24.684   9.664  19.452 -0.2450  0.0489  0.2650
44556W        W87572  33.483  13.401  17.135  0.0831 -0.3993 -0.0237
44557W        W87573   5.935  32.789   2.481 -0.1881 -0.2118  0.1206
44558W        W87574  18.019  32.461  28.578 -0.0969 -0.0540  0.0225
44559W        W87575   3.685  17.196  16.430 -0.3110 -0.0979 -0.3003
44560W        W87576  21.000   4.505  26.011 -0.0898  0.1313  0.1195
44561W        W87577  21.582  33.613  14.985 -0.1458 -0.0045  0.0671
44562W        W87578  31.753  24.695  28.762  0.2242  0.0354 -0.2373
44563W        W87579  32.558  34.291  27.322 -0.0672  0.3959 -0.0002
44564W        W87580  21.952  30.657   0.081 -0.0611  0.1268 -0.1276
44565W        W87581  11.128  20.384   2.001 -0.1094  0.2349  0.3924
44566W        W87582   9.914  11.043  25.622 -0.1479  0.1396  0.2606
44567W        W87583   3.954  33.630  22.613 -0.0316 -0.1131  0.1101
44568W        W87584  11.997   8.992  22.694  0.1565  0.4107 -0.1776
44569W        W87585   2.241  20.225  19.078  0.1175 -0.3934 -0.1393
44570W        W87586   2.068   4.985   0.344 -0.0341  0.0495 -0.1715
44571W        W87587  10.948  16.611  18.604  0.2186  0.0013  0.0985
44572W        W87588  30.606  16.195  22.057 -0.1789  0.1608 -0.2711
44573W        W87589   6.109   7.791  27.167 -0.1977 -0.1198  0.2783
44574W        W87590  26.855  15.376   3.614  0.0919 -0.1072 -0.1598
44575W        W87591  30.360  33.813   1.929 -0.1738 -0.1129  0.1046
44576W        W87592   5.470  30.856  25.993  0.3698 -0.0778  0.0033
44577W        W87593  26.654   4.475   2.596 -0.0554 -0.0055  0.1355
44578W        W87594  19.331  29.579  10.828 -0.1301  0.0177 -0.0108
44579W        W87595   2.474  22.144  18.930 -0.0525  0.0890  0.1137
44580W        W87596   5.478  20.403  20.873 -0.1413  0.0886  0.1740
44581W        W87597   4.427  11.983   4.422  0.0047  0.2715  0.0280
44582W        W87598   6.501  17.354   8.292 -0.1611 -0.1227 -0.2146
44583W        W87599  25.381  27.722   1.205  0.1925  0.1276 -0.2556
44584W        W87600  22.490  28.831  18.477 -0.0939 -0.0539  0.4859
44585W        W87601   0.289  18.672  15.639  0.0826 -0.0949  0.3478
44586W        W87602  27.504   5.744  21.233  0.1826 -0.1452 -0.2297
44587W        W87603  25.237  15.381  27.921 -0.3033 -0.2709 -0.2844
44588W        W87604  26.388  10.860  18.600 -0.1838  0.0619 -0.3120
44589W        W87605  28.852  17.969   4.667  0.1970  0.4965  0.2055
44590W        W87606  21.682   3.196   1.038  0.1635 -0.2601 -0.1358
44591W        W87607  34.243  10.202  18.691  0.1679 -0.0101 -0.0763
44592W        W87608   1.515  29.019   2.954 -0.1567  0.1031 -0.2213
44593W        W87609  11.692  25.473  27.750 -0.1372 -0.0967  0.1592
44594W        W87610   1.805  27.480  20.558 -0.1403 -0.2457  0.1514
44595W        W87611   0.867  29.263   6.697 -0.0375  0.0045  0.1387
44596W        W87612  26.517  19.670  21.125  0.0213 -0.0840 -0.0540
44597W        W87613  17.415  26.541  22.018  0.2191  0.2001  0.0227
44598W        W87614  28.187  27.843  22.185  0.0607 -0.1711 -0.1645
44599W        W87615   1.597  30.559  27.715 -0.2508  0.1458  0.1794
44600W        W87616   0.885  28.885  19.979 -0.2616 -0.2613 -0.2072
44601W        W87617  14.618   1.688  19.066 -0.0798  0.1106  0.0686
44602W        W87618   2.548  29.433  24.313  0.4334  0.1329 -0.0923
44603W        W87619  18.118  31.010  15.532 -0.2733 -0.1392 -0.0179
44604W        W87620   8.546  25.679  18.532 -0.0723 -0.0115 -0.4467
44605W        W87621  30.602  17.550   1.216 -0.3161 -0.1283 -0.0015
44606W        W87622  15.190  32.649  15.883  0.0534  0.1662 -0.2629
44607W        W87623  32.479   6.080  26.156 -0.1771  0.0965 -0.2139
44608W        W87624  33.996  24.011  19.119  0.0635 -0.2336  0.1583
44609W        W87625  26.370  19.335  24.506 -0.0855 -0.0663  0.4472
44610W        W87626   0.734  22.012   4.686 -0.0078  0.2128  0.1593
44611W        W87627  16.118  22.924  18.042 -0.1810 -0.1032 -0.0240
44612W        W87628  31.492   4.142  18.114  0.3961 -0.4818  0.0623
44613W        W87629  27.544  32.362   4.090  0.0029 -0.1210  0.2052
44614W        W87630  17.239  19.875  16.130  0.0387 -0.2141  0.3282
44615W        W87631  25.018   1.121   5.932  0.0188  0.2620  0.0527
44616W        W87632  31.573  32.578  19.407 -0.0283 -0.0461 -0.0428
44617W        W87633   2.452  33.004   0.080  0.2027  0.1191 -0.2916
44618W        W87634  24.030  30.614   0.383  0.0998 -0.0645 -0.0514
44619W        W87635  28.742  34.045   3.033  0.0140 -0.3939  0.0787
44620W        W87636  30.353  31.751   7.262  0.0760  0.1288  0.2029
44621W        W87637   2.617  33.812   0.237 -0.0106  0.1164 -0.0609
44622W        W87638  33.427  32.977   6.306 -0.1188  0.0331 -0.4312
44623W        W87639  24.218  11.271  20.987 -0.0634  0.0423  0.0842
44624W        W87640  32.371  30.818  18.975 -0.0182  0.0579  0.1960
44625W        W87641  11.749  23.582  21.360 -0.2463 -0.2052  0.1655
44626W        W87642  15.325  25.898  16.522  0.0797 -0.3944  0.2018
44627W        W87643   6.780  30.013  16.952 -0.2268 -0.0415 -0.3424
44628W        W87644   5.448  27.878  25.504 -0.2052 -0.0837 -0.2290
44629W        W87645  34.754   5.893  17.181  0.0714 -0.0026  0.0097
44630W        W87646  20.410  33.223  19.423 -0.0186  0.0026 -0.0343
44631W        W87647   4.485   0.118  19.637  0.2738 -0.0635 -0.1652
44632W        W87648  33.312  23.158  20.822  0.0052 -0.1305 -0.0212
44633W        W87649  19.950  23.528  25.462  0.2174 -0.0003 -0.0804
44634W        W87650  10.389  22.822  24.570 -0.0357 -0.0368  0.2881
44635W        W87651  33.743   9.909  10.469 -0.0938 -0.0246  0.0327
44636W        W87652  30.947   1.706  21.734 -0.0216  0.0741 -0.1730
44637W        W87653  12.360  31.070   3.994 -0.3908  0.2239  0.2769
44638W        W87654  22.430  30.700   3.043 -0.1142 -0.1559 -0.0341
44639W        W87655  33.757   8.188  15.553 -0.0470 -0.0885 -0.1844
44640W        W87656  11.480  26.883   0.973 -0.0516  0.2295 -0.0027
44641W        W87657  30.615   2.494  24.647  0.1349  0.0995  0.0234
44642W        W87658  14.369   8.728  28.732 -0.0130 -0.1903  0.0966
44643W        W87659  21.230   6.455  21.609 -0.1418 -0.0441  0.2676
44644W        W87660  30.442   0.686  28.129 -0.4938  0.1292 -0.0372
44645W        W87661  33.628  30.493  14.861 -0.2972 -0.0670 -0.0478
44646W        W87662  28.944  24.842   0.975  0.0124  0.3681  0.0895
44647W        W87663  33.043   1.591  25.319 -0.1021 -0.0184 -0.0268
44648W        W87664  25.672   0.138  21.750  0.0008 -0.0907  0.1019
44649W        W87665   3.133   3.566   3.545  0.2394  0.1233  0.0189
44650W        W87666   0.823  30.888   0.049 -0.0814  0.0543  0.3285
44651W        W87667  29.151  18.144  16.045 -0.0760 -0.3637  0.0559
44652W        W87668   5.494  16.780  20.965  0.0812 -0.0388 -0.2323
44653W        W87669  23.686   9.185  14.757 -0.0466  0.0123  0.0009
44654W        W87670  33.067  22.997  28.099 -0.0144  0.3153 -0.0723
44655W        W87671  10.948  12.688  26.244 -0.2867 -0.0738 -0.1306
44656W        W87672   1.483  24.459   4.353 -0.0968 -0.0017  0.4116
44657W        W87673  29.769  12.565  27.802 -0.1032 -0.2724  0.2165
44658W        W87674  16.945   6.754  23.456  0.0291  0.0382  0.1762
44659W        W87675   9.649  20.080  21.446  0.0672  0.2943  0.3996
44660W        W87676  34.681  21.817  17.998 -0.2532  0.2352  0.4384
44661W        W87677  17.092  23.379  28.989 -0.2057  0.0045  0.3114
44662W        W87678   5.020  14.954   5.257 -0.1989 -0.2499 -0.0359
44663W        W87679   3.370  31.238  23.318  0.1219  0.0251  0.0126
44664W        W87680   1.396  26.068   8.607  0.0210 -0.0591  0.0419
44665W        W87681  15.431   3.768  21.650  0.5458 -0.1570 -0.0250
44666W        W87682  28.000  29.399  21.586 -0.2584 -0.0026 -0.0548
44667W        W87683   9.799  21.134  27.168  0.0620 -0.2315 -0.1353
44668W        W87684  30.637   2.032   2.693  0.1890 -0.0413  0.4659
44669W        W87685   2.222  19.681   7.499  0.3294 -0.1587  0.3782
44670W        W87686  21.074   8.261   0.184  0.0276 -0.0205 -0.0461
44671W        W87687  19.272  23.142  17.200  0.1665 -0.1063  0.6009
44672W        W87688  19.191   6.535  14.641  0.0971  0.3397 -0.2469
44673W        W87689  18.721  18.447  26.626 -0.2608 -0.0156 -0.0797
44674W        W87690  12.379  12.164  16.312  0.1245 -0.1712  0.1359
44675W        W87691  34.071  16.366   6.299  0.4474  0.4362 -0.0493
44676W        W87692   1.792   0.284  14.596  0.0121 -0.0316  0.2613
44677W        W87693  33.609  32.760  22.130 -0.1645 -0.2899  0.2863
44678W        W87694   7.110  31.258  28.156 -0.2522 -0.0255 -0.0871
44679W        W87695   1.210   3.277  13.806 -0.0166  0.0036 -0.2218
44680W        W87696  33.200  30.894   6.151 -0.2321  0.1196 -0.0844
44681W        W87697  18.395  27.702  17.010 -0.0895  0.1066 -0.0358
44682W        W87698   1.604   9.094  22.973 -0.0332  0.1887  0.2701
44683W        W87699   1.367  13.077  20.125  0.0180  0.2356 -0.0735
44684W        W87700  11.805  19.450  20.606  0.0751 -0.0869 -0.1178
44685W        W87701  25.117  29.077  20.048 -0.2931  0.1075 -0.4323
44686W        W87702  27.328  33.085  23.459  0.4507 -0.1842 -0.3677
44687W        W87703  15.557  28.235  22.553  0.2783 -0.0461 -0.1381
44688W        W87704  22.154   5.945  18.001 -0.1041 -0.4542 -0.1560
44689W        W87705  22.607   7.294   3.147 -0.0380 -0.1610 -0.2287
44690W        W87706   0.140  16.433  14.521  0.4553  0.0165  0.0684
44691W        W87707  29.638  19.214  23.240  0.2323  0.2152  0.1033
44692W        W87708  28.790   0.456  18.781 -0.0921  0.0408  0.1682
44693W        W87709  17.488  17.862   6.168 -0.1000 -0.0722 -0.1613
44694W        W87710  34.284  17.149  20.549 -0.4892 -0.1449  0.0928
44695W        W87711   1.507   7.633   2.302 -0.0179  0.2176  0.3522
44696W        W87712  32.374  19.630  15.451  0.0069  0.0023 -0.1184
44697W        W87713  15.821   9.437  14.908  0.0516 -0.0527  0.3326
44698W        W87714  24.890  32.688  26.715  0.1527  0.2155 -0.0416
44699W        W87715   7.010  29.777  27.153  0.2365  0.0538 -0.1024
44700W        W87716  17.767  23.304  25.534 -0.2996  0.0629 -0.2594
44701W        W87717  28.926  23.001  22.661 -0.0785  0.0527 -0.2272
44702W        W87718   2.763   6.994  25.251  0.3029  0.1862 -0.1259
44703W        W87719  21.983  30.489  18.180 -0.1050  0.1724 -0.1056
44704W        W87720  32.719  28.765   9.856  0.1932  0.0196  0.1707
44705W        W87721   4.171  13.083   1.030  0.2472 -0.1244 -0.2053
44706W        W87722  10.624  16.202  24.190 -0.0920 -0.0527 -0.3199
44707W        W87723   1.518  26.408  13.896 -0.0844  0.2601 -0.1855
44708W        W87724  24.692   6.492  15.673  0.1584 -0.1233 -0.0006
44709W        W87725  33.152  29.501  28.628 -0.1939 -0.1775 -0.0118
44710W        W87726  24.873  16.668  21.818 -0.0276 -0.0734 -0.1737
44711W        W87727  29.849  31.855  25.368  0.2346  0.0330 -0.1638
44712W        W87728   9.313  32.309  10.422 -0.0246 -0.2400  0.1894
44713W        W87729  31.900   2.247   8.637 -0.1792 -0.0537  0.0929
44714W        W87730   2.110  16.686  25.634  0.1590  0.0460  0.2217
44715W        W87731   8.673  34.300   6.630 -0.1259  0.0933 -0.2194
44716W        W87732  30.337  30.652  20.996  0.0220  0.2714  0.2486
44717W        W87733  29.277  18.163  10.410  0.0869  0.0054  0.0891
44718W        W87734  26.594  33.736   4.464 -0.4780  0.0800 -0.1346
44719W        W87735   0.869  11.218   8.189 -0.0376 -0.1900  0.1917
44720W        W87736   1.565   6.480  18.963 -0.1537  0.3684  0.0374
44721W        W87737  32.167   8.204  28.368  0.0695  0.1729 -0.0101
44722W        W87738   5.188  11.323  22.539  0.0939  0.2375 -0.2840
44723W        W87739   4.698  25.688  19.370  0.0283  0.1130  0.3717
44724W        W87740  20.499  10.640   3.821 -0.0039 -0.1518  0.0240
44725W        W87741  25.269  25.658  27.868 -0.1369  0.1859  0.0019
44726W        W87742   6.633   7.362  21.151 -0.0787  0.0432 -0.0058
44727W        W87743  21.135  10.796  22.289  0.2826 -0.2539 -0.0352
44728W        W87744  32.399   7.777  21.194  0.0890  0.1467  0.5316
44729W        W87745  33.335  33.189  19.061  0.1862  0.1989  0.0283
44730W        W87746  24.428  13.142  26.390 -0.1269 -0.1341 -0.0055
44731W        W87747   1.864  29.315  27.040 -0.2306  0.0764  0.0985
44732W        W87748  21.916  19.449  24.732 -0.1989 -0.0132  0.1828
44733W        W87749   9.966  23.614  13.581  0.1207  0.1894  0.0190
44734W        W87750  22.069  27.636  21.081 -0.1480 -0.0218 -0.2082
44735W        W87751  28.660   1.697  22.606 -0.0028  0.2015 -0.1195
44736W        W87752  29.349   5.833  26.041  0.2963 -0.1569  0.1898
44737W        W87753  29.370  14.388  27.921  0.0972 -0.2118  0.2135
44738W        W87754   7.011   8.086   6.035  0.1865  0.0081  0.1295
44739W        W87755   3.454  15.688  14.395 -0.0749  0.3325 -0.1044
44740W        W87756   3.306   7.814  24.386 -0.3948  0.0203 -0.1006
44741W        W87757  16.537   3.289   1.290 -0.1187  0.2653  0.1087
44742W        W87758  26.148  13.778  25.717 -0.1703  0.1039 -0.1668
44743W        W87759  26.006   8.098  25.458  0.1786  0.1819 -0.0268
44744W        W87760  20.627  12.177  16.836 -0.0479  0.0717  0.0367
44745W        W87761  17.332   6.581  25.906  0.1902  0.2126 -0.0405
44746W        W87762   9.839  29.529  17.460 -0.0752  0.0442 -0.0626
44747W        W87763  17.120  20.015   4.645 -0.1069 -0.3497  0.0363
44748W        W87764  32.144  17.116  19.112  0.1937 -0.2377  0.2364
44749W        W87765   0.919   5.048  13.957 -0.0709  0.0100  0.0960
44750W        W87766  30.615  27.464  28.339 -0.2909  0.1161 -0.1756
44751W        W87767  27.403   9.776  24.686 -0.1833 -0.3331  0.0557
44752W        W87768  29.446   5.514  21.685 -0.1023  0.0905  0.0595
44753W        W87769  27.744  32.635  24.139 -0.0465  0.0531  0.0766
44754W        W87770  31.384   1.783  16.131  0.0443  0.1256  0.1233
44755W        W87771  30.919  25.727   5.652  0.1714 -0.0462  0.2966
44756W        W87772   2.290  25.065   5.956 -0.0937  0.3368  0.0470
44757W        W87773  21.014  20.758  26.047  0.1710  0.1407 -0.1609
44758W        W87774  21.658   3.454   0.234 -0.3737 -0.1116  0.1590
44759W        W87775  23.101  12.518  20.841 -0.1739 -0.3098  0.3360
44760W        W87776   0.962  32.007   5.002  0.2736 -0.1820 -0.5545
44761W        W87777  27.281   3.953  28.059  0.0062 -0.2365  0.1659
44762W        W87778  21.470   5.538  24.643  0.2249  0.0967 -0.3172
44763W        W87779  14.269  22.949  23.004 -0.0473  0.3228 -0.2679
44764W        W87780  11.772  33.459   6.263  0.1950  0.1719 -0.0613
44765W        W87781  33.682  18.323  11.307 -0.0681  0.1397 -0.0168
44766W        W87782  28.144  28.025   9.097  0.3381  0.0129  0.0499
44767W        W87783  23.161  20.137   9.737 -0.0754  0.2304 -0.0669
44768W        W87784  31.864  18.282  23.464  0.1802 -0.3824  0.1359
44769W        W87785  17.852  34.331  20.257  0.0048  0.0955  0.0276
44770W        W87786  31.377  16.747  28.219 -0.0004 -0.2493 -0.1670
44771W        W87787  12.906  33.744   7.621  0.4482  0.0953 -0.1271
44772W        W87788  15.053  30.821   3.206  0.2073 -0.1787  0.0348
44773W        W87789  30.689  34.346   3.938 -0.6094 -0.2363  0.1244
44774W        W87790  26.460  33.001  18.667  0.0983 -0.1553 -0.0309
44775W        W87791  28.796  15.745   8.537 -0.1095  0.0765  0.3362
44776W        W87792  21.039   8.922   4.273  0.2386 -0.0750 -0.2082
44777W        W87793  15.959  10.344  25.779  0.0610 -0.1666 -0.0199
44778W        W87794   2.142  32.974   9.245  0.0782  0.0591  0.1926
44779W        W87795  13.235  34.642   8.084  0.2290  0.2152  0.3252
44780W        W87796  28.005  26.424  18.767  0.1993  0.0767  0.1707
44781W        W87797  22.656  28.201  24.778 -0.0479  0.0743 -0.1275
44782W        W87798  32.452   0.462  19.579 -0.0941 -0.0739  0.0376
44783W        W87799   6.361  32.145  21.389 -0.1043  0.0376  0.1775
44784W        W87800  12.365   8.203  25.097  0.1127 -0.0822 -0.2966
44785W        W87801  21.322  22.633  26.766  0.2212  0.0106  0.5684
44786W        W87802  15.459  23.941  23.535  0.0342 -0.1573 -0.0782
44787W        W87803  23.162  27.977  27.743  0.1161  0.0811  0.0238
44788W        W87804  26.717   7.756  28.608 -0.4378  0.2004 -0.0773
44789W        W87805   1.951   5.316  25.133  0.1556  0.2205  0.1044
44790W        W87806  23.539   3.290  26.447 -0.2241  0.2126 -0.0935
44791W        W87807  25.589  29.484  21.558 -0.0479 -0.2232 -0.3076
44792W        W87808  34.179  20.641  27.443 -0.0866 -0.0587  0.1085
44793W        W87809  20.186  30.460   4.029 -0.2302  0.1301  0.2304
44794W        W87810  33.790  25.369  21.638  0.2119 -0.1719  0.2514
44795W        W87811   9.980  22.924  19.440  0.0535 -0.1100  0.2751
44796W        W87812   3.669   1.784   4.776 -0.2130 -0.1663  0.2984
44797W        W87813  24.104  31.404  11.017  0.0599 -0.1034  0.3037
44798W        W87814  17.693  22.360  23.230  0.1875  0.4604  0.1162
44799W        W87815   4.887  17.395   2.204 -0.0046  0.2035 -0.0803
44800W        W87816  24.518  10.252   9.939  0.1522  0.0855  0.2673
44801W        W87817  10.510   1.807  15.127  0.1586 -0.2626 -0.2064
44802W        W87818   4.207  29.007  22.716 -0.1188  0.1538  0.1479
44803W        W87819  34.245  33.465   2.794 -0.1487 -0.0125  0.1481
44804W        W87820  27.124   5.190   7.324 -0.1465  0.2204  0.3287
44805W        W87821   0.489  20.016  28.614 -0.0898  0.2404  0.0405
44806W        W87822  29.457  28.637   2.592 -0.3114  0.0997  0.1712
44807W        W87823  10.554   7.354   1.385  0.2134 -0.2254  0.2167
44808W        W87824  13.138  17.508  27.187 -0.2907  0.2347 -0.1735
44809W        W87825  32.984  32.310   2.698 -0.2232  0.1873  0.0908
44810W        W87826   4.533  24.963  21.450 -0.1788  0.1031 -0.2071
44811W        W87827  23.252   0.826  11.032 -0.0556  0.0807  0.1692
44812W        W87828  22.638   0.298  21.075  0.1028  0.0314 -0.0705
44813W        W87829   0.709  14.527  17.535 -0.2623 -0.1294  0.5234
44814W        W87830  10.143  28.392  19.841 -0.0689 -0.1764 -0.0403
44815W        W87831   1.006  26.241  23.747  0.6212 -0.2516  0.0239
44816W        W87832  27.725  31.088  26.373  0.2013 -0.2270  0.1865
44817W        W87833   3.405  22.189  17.326 -0.2250  0.1682 -0.0975
44818W        W87834  30.268  11.556   7.318  0.1284  0.0060  0.0641
44819W        W87835   2.744  28.180   8.062 -0.0585  0.4375 -0.2022
44820W        W87836  30.232  16.860   3.996 -0.1766 -0.3021 -0.1880
44821W        W87837  11.805  27.307   7.705  0.1923  0.0828  0.0388
44822W        W87838  18.506  30.378  21.387 -0.2147  0.3824  0.0131
44823W        W87839  24.090  25.551  24.832  0.0097  0.1367  0.0465
44824W        W87840  25.102  33.695  23.273 -0.2042 -0.0282  0.0151
44825W        W87841  20.160  24.050   8.370 -0.0303  0.3446 -0.2903
44826W        W87842   8.636  29.348  16.687  0.0463 -0.2371  0.2439
44827W        W87843   4.637  33.152  22.051 -0.0121  0.0514 -0.2468
44828W        W87844  27.264  24.561   4.877 -0.1017  0.0034 -0.1774
44829W        W87845   8.703   1.873   1.482 -0.2136  0.2264 -0.3292
44830W        W87846  28.391   6.463   3.894 -0.0629 -0.0061  0.2892
44831W        W87847  29.669  21.199  24.004  0.2009 -0.4426  0.1292
44832W        W87848  18.261   9.457   2.263 -0.1905  0.0070 -0.1690
44833W        W87849  27.612   0.313  22.903  0.2422  0.2562  0.0148
44834W        W87850   3.671   3.790  13.740 -0.0716  0.0807 -0.1334
44835W        W87851  30.330  27.991  19.013 -0.1773 -0.1867 -0.0525
44836W        W87852  28.888  24.389   5.273  0.0636  0.0240 -0.1004
44837W        W87853  24.981   8.482   5.121  0.1551 -0.0287 -0.0754
44838W        W87854   6.350  32.530  10.095 -0.1813 -0.3689  0.2366
44839W        W87855  18.182   2.413   3.678 -0.0655 -0.2224 -0.0328
44840W        W87856  27.805  24.933  15.940 -0.1723 -0.1653  0.1759
44841W        W87857   3.825  31.611  15.701  0.2918  0.0145 -0.0134
44842W        W87858   4.431  33.294   1.662 -0.1758  0.2123 -0.2931
44843W        W87859  15.122  22.549   1.643  0.4584  0.0701 -0.2486
44844W        W87860   0.884   1.758   1.241 -0.1080  0.0835  0.0343
44845W        W87861   4.835  13.845   6.329  0.0266  0.0941  0.0731
44846W        W87862   3.488  27.846  24.023 -0.0305 -0.1808 -0.0413
44847W        W87863  23.648  28.775  20.695  0.1919 -0.0584  0.0479
44848W        W87864  18.045  29.847  26.051  0.2548 -0.0523 -0.0067
44849W        W87865   3.122  32.851  23.382  0.1186 -0.2731  0.2713
44850W        W87866  14.792   8.744   8.842 -0.2387 -0.1224 -0.0889
44851W        W87867  21.142   3.042   0.664  0.0733  0.0373 -0.0464
44852W        W87868  10.378  26.062  23.932  0.5339 -0.2142 -0.1841
44853W        W87869   8.870  18.911  19.588 -0.1124  0.1275  0.1430
44854W        W87870  33.157  28.285  20.780  0.0522 -0.4235 -0.2369
44855W        W87871  24.350  34.155  26.759 -0.0130 -0.0597 -0.0936
44856W        W87872  10.257   7.699  28.346  0.2348  0.1815  0.0235
44857W        W87873  29.291  28.747  22.721  0.0824 -0.0619 -0.2813
44858W        W87874  17.469  19.776  12.324 -0.0715  0.0532 -0.3821
44859W        W87875   0.776  34.469  22.214 -0.0814  0.0865 -0.0586
44860W        W87876  28.758   7.841  15.931 -0.0174  0.1664  0.0794
44861W        W87877  27.170  23.867  25.403  0.1236  0.0696  0.0839
44862W        W87878  11.131   7.254  27.389 -0.2463 -0.2032  0.0605
44863W        W87879   1.608   3.581  26.016  0.0458 -0.4813  0.3045
44864W        W87880   6.309   1.045  25.296 -0.0464  0.0295 -0.3287
44865W        W87881  32.519  29.575  26.417  0.1324  0.0449 -0.1468
44866W        W87882  16.613   5.818  28.893 -0.1048  0.0405 -0.0760
44867W        W87883   8.542  22.373  26.466  0.1863 -0.0856  0.3927
44868W        W87884  23.780   9.941   1.186 -0.0444 -0.5331  0.2366
44869W        W87885  23.407  11.913  21.434 -0.2394 -0.1108 -0.0890
44870W        W87886   6.084  15.558  21.458 -0.0513 -0.0415 -0.1493
44871W        W87887  34.118  31.597  18.024 -0.1095  0.2109 -0.2381
44872W        W87888   5.826  28.155  21.929  0.0476  0.3115  0.0327
44873W        W87889   7.171  29.649   4.576 -0.1428 -0.0666 -0.1703
44874W        W87890  24.099  10.110   4.725 -0.1139 -0.3947 -0.0862
44875W        W87891   2.183  24.493   3.690  0.1116 -0.1697 -0.1082
44876W        W87892  27.835   4.910  10.633 -0.1855 -0.2211 -0.0271
44877W        W87893  34.777  28.159  22.857 -0.0184 -0.0088  0.1902
44878W        W87894   2.225  19.994  25.504 -0.3789 -0.0193  0.0001
44879W        W87895  25.659  24.394   6.333  0.0093 -0.0542  0.0981
44880W        W87896  18.669  21.168   7.922  0.1995  0.0751 -0.3565
44881W        W87897  20.980  23.460   5.926  0.1773 -0.2104 -0.2951
44882W        W87898  34.254  34.407   6.830  0.0976 -0.3073  0.1012
44883W        W87899  30.463   3.077  22.742  0.3906  0.7077 -0.0277
44884W        W87900  19.820   1.688   6.441 -0.2470  0.1591 -0.1264
44885W        W87901   0.078  10.986  19.333  0.2619 -0.0326  0.1177
44886W        W87902   0.462   9.504   9.767 -0.2223  0.0733 -0.2727
44887W        W87903  22.581  19.623  27.829 -0.1756  0.2848  0.0180
44888W        W87904  28.143  26.893   8.263  0.2142  0.0995  0.0836
44889W        W87905  26.445  27.298   4.144 -0.0086 -0.0779 -0.2304
44890W        W87906  31.185  12.851  22.107  0.0813  0.2084 -0.1582
44891W        W87907   3.585  28.456  14.915  0.3544 -0.1152 -0.3137
44892W        W87908  21.418   5.296   8.441  0.1542  0.0848  0.2826
44893W        W87909  16.681   3.462  17.148  0.1609 -0.1037  0.1121
44894W        W87910  28.815   9.852   0.031  0.1258  0.1634 -0.0309
44895W        W87911  24.293   8.932   3.760  0.3119 -0.1510  0.1782
44896W        W87912  32.369  33.569  17.794  0.2230  0.1368 -0.2844
44897W        W87913  21.428  34.539   4.264 -0.0832 -0.0046 -0.1135
44898W        W87914   3.846  30.935   4.882 -0.0760 -0.0615 -0.1740
44899W        W87915  20.125  26.415  27.518 -0.1731  0.0349  0.1226
44900W        W87916  19.177  11.426  18.673  0.1194  0.1511 -0.0386
44901W        W87917   0.787  34.389  28.717  0.0407 -0.3514 -0.0719
44902W        W87918  26.704  31.750  28.416  0.0076 -0.3159  0.1432
44903W        W87919  14.197  33.736  20.256 -0.0118  0.2625 -0.1581
44904W        W87920  12.975  27.835   6.409  0.0455 -0.2821 -0.0697
44905W        W87921  26.600  28.230  28.985  0.0149 -0.2191 -0.3333
44906W        W87922  18.200  20.190   3.318  0.1063  0.1373 -0.1528
44907W        W87923  10.479  13.659   7.759 -0.0447 -0.1014  0.0857
44908W        W87924   2.051  25.279  16.396  0.0555  0.0534  0.0466
44909W        W87925   1.220  17.282  17.023 -0.0570  0.2195 -0.2246
44910W        W87926  21.164  21.636  22.708  0.0307  0.0649 -0.1692
44911W        W87927  23.766  25.735   4.445 -0.1886 -0.1294 -0.0007
44912W        W87928   0.229  30.026  19.373  0.0289  0.3325  0.0815
44913W        W87929  12.601  27.295   8.248  0.1273  0.2417  0.0298
44914W        W87930  17.948  33.018  26.493 -0.2940  0.3444  0.1373
44915W        W87931  15.863  14.968  27.322 -0.1009 -0.1953  0.1392
44916W        W87932   6.235  27.691  16.754  0.1324 -0.2901 -0.2630
44917W        W87933  32.168  13.771  28.074  0.2611 -0.4752 -0.1582
44918W        W87934  25.374  22.588  26.137 -0.1012 -0.1859 -0.1276
44919W        W87935  23.944  18.310   7.170  0.2350 -0.0625  0.3565
44920W        W87936  32.108  19.448   8.246 -0.0698  0.1069 -0.0878
44921W        W87937  27.940  25.942   1.524 -0.0831  0.4427  0.1840
44922W        W87938   8.629  27.271  25.089 -0.0473  0.1174  0.1179
44923W        W87939   5.364  32.410   1.941  0.0507 -0.0356 -0.0960
44924W        W87940  20.774  34.580   7.149  0.1619 -0.1229 -0.1446
44925W        W87941   3.577  33.237   2.244  0.0296  0.0419  0.1133
44926W        W87942   3.139  30.107   3.462 -0.1049  0.0651  0.0461
44927W        W87943  20.667  28.661  29.312  0.1096  0.1515  0.1363
44928W        W87944  27.150  14.467   2.089  0.0439 -0.1277  0.0142
44929W        W87945  28.817  22.184   5.774 -0.0439 -0.2490  0.1742
44930W        W87946  10.778   1.849   5.408 -0.1715  0.1959  0.0562
44931W        W87947  24.239  17.168  22.331  0.0553 -0.1177  0.3698
44932W        W87948  25.810  16.888   4.942 -0.2596  0.2408 -0.0333
44933W        W87949  28.275  19.323   4.905 -0.3485 -0.0122  0.2133
44934W        W87950   8.318  12.260  23.752 -0.5839  0.0191  0.1924
44935W        W87951  23.877   6.001   6.743  0.0886  0.4338  0.3418
44936W        W87952  16.652   5.766   0.097 -0.1848  0.0708  0.0505
44937W        W87953  29.072  23.589  21.050  0.0323 -0.0438 -0.0002
44938W        W87954  30.630   3.547  26.671  0.1003 -0.0477 -0.0802
44939W        W87955  30.243  31.898   3.123  0.1881 -0.4577 -0.0733
44940W        W87956   7.709   9.340  26.301 -0.2249 -0.3232 -0.0616
44941W        W87957   4.316   5.858   4.957  0.3580 -0.1868  0.0986
44942W        W87958  27.232   1.107  25.139 -0.1946 -0.0938  0.0134
44943W        W87959  22.387  27.465  28.134 -0.0031  0.1336 -0.0641
44944W        W87960  25.799   2.372  17.577 -0.0855  0.0915 -0.0272
44945W        W87961  25.970  30.070   7.444  0.0631 -0.0789 -0.1763
44946W        W87962  22.167  31.843  26.825  0.2716 -0.0068  0.3032
44947W        W87963   0.977  18.407   0.130 -0.3017  0.1681 -0.0040
44948W        W87964  28.315  29.065   4.923 -0.1892 -0.0401  0.3118
44949W        W87965  25.368   6.493  20.719 -0.1722 -0.1271  0.1076
44950W        W87966   4.537  26.951  22.558  0.1473 -0.0974  0.1343
44951W        W87967  11.828  25.957  27.711  0.2507 -0.3570  0.1528
44952W        W87968   3.791  29.558  25.712  0.1414 -0.1593  0.1686
44953W        W87969   3.956   3.088   0.275  0.0887  0.1902 -0.3487
44954W        W87970   1.613  21.266   6.336 -0.1293  0.0274  0.3364
44955W        W87971  31.074   4.399   2.955 -0.2141 -0.0804  0.0745
44956W        W87972  10.859  25.027   7.827  0.0698 -0.1940  0.0838
44957W        W87973  28.099  17.783  27.117  0.1463  0.0724  0.0218
44958W        W87974  17.535  22.418  27.490 -0.0156 -0.3228 -0.0490
44959W        W87975  32.237  27.225   1.404 -0.2124 -0.0657 -0.0798
44960W        W87976  15.824  31.926   6.947  0.2959 -0.2954  0.0196
44961W        W87977  21.053   7.538  27.235  0.1482  0.4530  0.2968
44962W        W87978  12.305   1.144  18.808 -0.3128 -0.2368  0.2768
44963W        W87979  33.998   0.479   3.160  0.0915 -0.0721  0.2500
44964W        W87980   5.306  12.602  16.237 -0.0863  0.1835 -0.1724
44965W        W87981  24.737   7.017  29.095 -0.1264  0.0321  0.2149
44966W        W87982  16.072  28.374  23.379 -0.1225  0.3039 -0.4121
44967W        W87983  21.135   2.563   6.851  0.1647  0.0366  0.1273
44968W        W87984   8.858  30.454  16.046 -0.3976 -0.1786  0.1491
44969W        W87985  30.030  34.211   4.945 -0.0209  0.1620 -0.3268
44970W        W87986  30.592   2.124   1.088  0.1189  0.1024 -0.1698
44971W        W87987  21.904  28.101  23.625  0.1753 -0.0430  0.1710
44972W        W87988   2.469  27.084  18.130 -0.1131 -0.2006 -0.0351
44973W        W87989  30.896  21.599   1.649  0.1471  0.2793 -0.3247
44974W        W87990   3.699   0.455   8.656  0.1971 -0.0044 -0.0782
44975W        W87991  18.573   3.456   7.220  0.1086  0.0104 -0.0893
44976W        W87992  21.818   0.922  17.849 -0.0934 -0.2122 -0.0235
44977W        W87993  19.315  24.701  20.085  0.0249  0.1084  0.2949
44978W        W87994  29.462   7.721   5.325  0.0586 -0.3533  0.0608
44979W        W87995  25.917  25.050   0.918  0.1078  0.1988 -0.0069
44980W        W87996  28.321  30.200  10.706  0.0811 -0.1207 -0.0306
44981W        W87997  23.085  25.090   0.687  0.0774  0.0167 -0.1935
44982W        W87998  26.220  30.180   7.000 -0.1679 -0.0096  0.0278
44983W        W87999  16.695  25.478   1.246  0.1863 -0.4550 -0.3814
44984W        W88000  26.875   2.875   1.181 -0.1196 -0.1718 -0.0735
44985W        W88001   2.479  10.417  10.152 -0.1752 -0.0136  0.0524
44986W        W88002   4.765  18.540   9.368  0.1691 -0.2209  0.3097
44987W        W88003   1.105  27.323  19.727 -0.2360  0.2026 -0.3327
44988W        W88004  30.414   4.728   4.023  0.0301 -0.2083  0.1660
44989W        W88005   1.486  27.268  28.443  0.0332  0.2534  0.0429
44990W        W88006  26.358   1.871  26.202  0.0997  0.0072 -0.0529
44991W        W88007  15.580   2.467  23.449 -0.1675  0.0926 -0.2234
44992W        W88008   1.445  27.420  17.765 -0.1292  0.1691 -0.1989
44993W        W88009   7.149  27.236   1.251 -0.0900  0.2516  0.0813
44994W        W88010  18.654  26.368   9.983 -0.0330 -0.1756 -0.2881
44995W        W88011  18.979  19.011   5.333 -0.1351 -0.0154 -0.4488
44996W        W88012  33.947   5.638  26.321  0.1148  0.1098  0.3782
44997W        W88013  15.658  26.841   2.520 -0.1431 -0.2500  0.2127
44998W        W88014  33.383   2.711  23.126  0.1872 -0.1534 -0.0808
44999W        W88015   0.821  24.808  27.472 -0.1559 -0.1720 -0.0308
45000W        W88016  30.433  30.620  18.051  0.0576 -0.2398  0.0928
45001W        W88017  13.445  34.412  19.999  0.1447 -0.2830  0.1780
45002W        W88018  28.824  30.741  19.343  0.0665  0.0003 -0.2207
45003W        W88019   0.223  24.926  22.445  0.0929  0.2216 -0.1762
45004W        W88020  31.001  30.469  10.221 -0.0044  0.2994  0.2330
45005W        W88021  18.495  25.833  16.722 -0.5277  0.2945  0.2480
45006W        W88022   6.334  11.239  23.125 -0.0318  0.1397 -0.0751
45007W        W88023   3.383  30.731  15.080  0.3876  0.2265  0.0324
45008W        W88024   8.594  29.606  17.257  0.0393  0.0171  0.1982
45009W        W88025  12.825  18.205   7.926 -0.0320  0.2204  0.3070
45010W        W88026  18.336  21.998  20.359 -0.3092 -0.0588 -0.0370
45011W        W88027  20.288  26.319  27.032  0.0643 -0.5097  0.3802
45012W        W88028   6.144  16.972  22.357 -0.2611 -0.0204 -0.0219
45013W        W88029  10.536   3.689  26.869  0.1512  0.3455  0.0627
45014W        W88030  25.360  22.961   1.033 -0.1401  0.2181 -0.1691
45015W        W88031  19.098  28.276   3.925 -0.0023  0.3452  0.2571
45016W        W88032  19.639  13.648  14.298  0.1858 -0.2210 -0.1943
45017W        W88033  20.292   4.532   2.492 -0.1618  0.2572  0.1353
45018W        W88034  29.608  28.673  10.723  0.0971 -0.1638 -0.0899
45019W        W88035  26.900  18.719  26.864 -0.2554  0.1243 -0.0975
45020W        W88036  31.118  24.379   9.625 -0.1436 -0.3272 -0.0824
45021W        W88037  20.112   7.862  16.000  0.1644  0.1744 -0.2357
45022W        W88038  31.116  32.606  21.910 -0.0971 -0.0176 -0.1005
45023W        W88039   4.341  25.038  27.476 -0.2949  0.1576  0.1389
45024W        W88040  23.598  32.614  10.127 -0.2459 -0.2956 -0.2622
45025W        W88041  30.750   4.032  23.473  0.2647  0.2631  0.0687
45026W        W88042  22.255  13.368  18.291 -0.1128 -0.1126 -0.5206
45027W        W88043  26.111  18.695  20.597 -0.1205  0.1453  0.5287
45028W        W88044  18.103  33.945   3.079  0.2626 -0.2151 -0.0335
45029W        W88045   2.332  34.717   1.916 -0.0052 -0.1385  0.1260
45030W        W88046   7.791   1.414  24.026  0.0683 -0.1221 -0.1519
45031W        W88047  22.417  24.242   7.867  0.1894  0.1642  0.0812
45032W        W88048  26.767  33.236   2.102 -0.0653 -0.1973  0.2387
45033W        W88049   5.143  28.561   0.010 -0.3358  0.0745 -0.1346
45034W        W88050   8.637   6.686  10.516  0.3587  0.1208 -0.4138
45035W        W88051   3.078  20.338   1.976  0.1270  0.1407 -0.2479
45036W        W88052   6.118   4.015  24.581  0.0962  0.0492 -0.2755
45037W        W88053  24.738   3.674   6.799 -0.1225  0.0089  0.4548
45038W        W88054  30.480  34.385   1.177 -0.0913  0.0345  0.3114
45039W        W88055  16.757  30.250  23.792  0.1846  0.1254  0.0734
45040W        W88056  17.844  13.603  21.372 -0.1972 -0.0055 -0.3786
45041W        W88057  11.351   6.307   3.207 -0.1294 -0.2616 -0.1041
45042W        W88058   0.665   5.880   3.355  0.0899  0.2650 -0.0933
45043W        W88059  22.865   6.246  25.400 -0.1261  0.4666  0.1256
45044W        W88060   0.587  28.588   2.544  0.1673 -0.2017  0.2329
45045W        W88061  16.626  13.188  28.038 -0.2532  0.3724 -0.1591
45046W        W88062  12.733   4.169   0.992 -0.0625  0.1616 -0.1669
45047W        W88063  18.571  24.040  19.986 -0.3703 -0.1672 -0.1688
45048W        W88064  12.844   5.646  14.200 -0.0420 -0.2545  0.0372
45049W        W88065  23.776  15.678   6.018 -0.3351  0.3645 -0.1161
45050W        W88066  34.216  20.119   0.591  0.1927 -0.1803 -0.0653
45051W        W88067   6.972  32.957   0.445  0.1144 -0.0175  0.0583
45052W        W88068  24.058  14.268   4.162  0.1972  0.0470  0.0256
45053W        W88069  34.388  18.793   4.655 -0.1651  0.0687  0.0653
45054W        W88070   8.115  32.113  22.363 -0.2329  0.0034  0.0388
45055W        W88071  27.296  32.027   1.572  0.2455  0.0161 -0.3524
45056W        W88072   6.103   0.127  26.700  0.2251 -0.1071  0.3431
45057W        W88073   6.076  12.345   4.425  0.1570  0.1624  0.2934
45058W        W88074  15.799  30.273   9.258  0.0524 -0.0631  0.0820
45059W        W88075  23.620   2.125  22.511 -0.2923 -0.0883  0.0379
45060W        W88076   7.509   6.375  24.981  0.0410  0.0197  0.2601
45061W        W88077  17.387  19.184  28.419  0.1762  0.1247  0.2567
45062W        W88078  32.916  10.365   8.707 -0.0286  0.0822 -0.0475
45063W        W88079  23.144  11.560  23.283  0.0763  0.2447 -0.0847
45064W        W88080  24.901   7.410  16.982 -0.1637 -0.0750  0.2236
45065W        W88081  25.523  29.459  19.865  0.0365  0.1653  0.2794
45066W        W88082  16.818  20.492  15.298  0.1870  0.2143  0.1897
45067W        W88083  28.821  14.723  26.778  0.0458  0.0095  0.0154
45068W        W88084  13.944  14.542  26.749 -0.0939 -0.2037 -0.1157
45069W        W88085  25.489  31.465   5.651  0.3516  0.0018 -0.1368
45070W        W88086  28.492  11.986  25.355 -0.0709  0.0409  0.0282
45071W        W88087  32.605  29.954  10.025  0.2214  0.1029 -0.1935
45072W        W88088  34.734  30.790  22.984  0.6014 -0.1941  0.1151
45073W        W88089   1.941   8.573   2.718 -0.2851 -0.1593  0.0148
45074W        W88090  31.988  33.968   2.861 -0.1961  0.0597  0.0157
45075W        W88091   2.030  16.219  10.576  0.0265 -0.0837  0.2237
45076W        W88092  31.438   0.930  19.985  0.2317 -0.1865  0.0449
45077W        W88093  25.609   6.122   1.890  0.0801 -0.1629 -0.2376
45078W        W88094  27.374  17.009   0.457 -0.1024 -0.2280  0.1196
45079W        W88095   4.900  34.698  19.356 -0.0207  0.2783  0.0148
45080W        W88096   4.863   4.450  14.520 -0.0014  0.0967 -0.2584
45081W        W88097  16.677  32.544   6.278  0.2703 -0.2985  0.2390
45082W        W88098  30.650  20.962   4.440  0.2553 -0.3446  0.0073
45083W        W88099  27.450  25.770  22.112 -0.4058  0.1823 -0.1469
45084W        W88100   7.045  10.932   2.978 -0.3027  0.0359  0.3594
45085W        W88101  24.980  32.830  27.218  0.0297 -0.1273  0.1229
45086W        W88102   4.838   8.218  19.207 -0.0319 -0.0028  0.0155
45087W        W88103  26.035  30.744  10.069 -0.1908 -0.4704 -0.1982
45088W        W88104  32.548  21.515   4.546 -0.0051  0.0681  0.0993
45089W        W88105  27.567  25.715  26.802  0.0175  0.2198 -0.0232
45090W        W88106   8.388  22.399  21.516  0.2666 -0.3304  0.0083
45091W        W88107  26.378   1.062  18.858 -0.3621  0.0724  0.1266
45092W        W88108  13.378   7.136   1.892 -0.0114 -0.1967 -0.2264
45093W        W88109  32.950  27.802   6.145  0.0050  0.2840 -0.3040
45094W        W88110  30.948  31.787  11.777  0.0062 -0.1045  0.0047
45095W        W88111  13.048  30.830   8.917  0.0207  0.3882  0.1058
45096W        W88112   0.939  11.277  24.681  0.2949 -0.4331 -0.1611
45097W        W88113   7.391  33.978  23.968  0.1262 -0.0904  0.0237
45098W        W88114  23.591   8.013   0.688 -0.0608  0.4267 -0.0290
45099W        W88115   3.942  27.845   8.666 -0.0970 -0.2119 -0.0620
45100W        W88116  26.019  22.877   8.564  0.0718 -0.1467  0.0720
45101W        W88117  21.944  33.859  25.407  0.0048  0.1825 -0.1113
45102W        W88118  32.113   1.529  28.871  0.1407 -0.1085  0.0234
45103W        W88119   3.486  29.612  24.356 -0.2410  0.0571 -0.3158
45104W        W88120  31.790   5.130  26.762 -0.2067 -0.2067 -0.2877
45105W        W88121  20.165   3.052  18.231 -0.2260  0.1281 -0.3495
45106W        W88122   2.766  15.285  19.944 -0.0579  0.3943  0.0913
45107W        W88123   0.654   2.851  14.909  0.0357 -0.2007 -0.2010
45108W        W88124   9.051  26.406   5.878 -0.0145 -0.2097 -0.4401
45109W        W88125  11.427  16.614   1.728 -0.4615 -0.1994  0.2805
45110W        W88126   3.539  18.414   2.020  0.1315 -0.0917 -0.1619
45111W        W88127  10.595   2.943  15.993  0.0053  0.1802 -0.4645
45112W        W88128  19.914  26.335   2.417  0.1698 -0.3178  0.0994
45113W        W88129  32.089  11.831   2.990 -0.0626 -0.2290 -0.0526
45114W        W88130   3.287  26.482   6.838 -0.0009  0.1096  0.0997
45115W        W88131   2.436   9.371  16.749  0.0052  0.1052 -0.1218
45116W        W88132   1.012   9.516   4.654 -0.1397  0.1157 -0.0193
45117W        W88133  23.807  11.637  28.132  0.4454 -0.4022 -0.2315
45118W        W88134   6.406   3.832   0.527 -0.3010  0.2733  0.1372
45119W        W88135  20.064  27.536   7.168 -0.1697 -0.1370  0.1949
45120W        W88136   6.081  31.829   1.046  0.0854  0.0271  0.0911
45121W        W88137  21.152   7.301  21.479 -0.2525 -0.1825 -0.0367
45122W        W88138  28.066  12.393  20.345 -0.0962  0.2248 -0.0553
45123W        W88139  17.391  27.226   7.704  0.2741  0.0378 -0.1034
45124W        W88140   7.476  26.584  27.853 -0.0192  0.0202  0.5082
45125W        W88141  13.859  19.291   5.231 -0.1563 -0.1922  0.1379
45126W        W88142   5.649  11.528  20.187  0.2502  0.3041  0.1904
45127W        W88143  24.271  31.007   6.319 -0.1135  0.0152 -0.1353
45128W        W88144   3.218  31.622  25.303  0.0828  0.1107  0.2552
45129W        W88145   3.234   2.446  10.306  0.1358  0.2483  0.2546
45130W        W88146   2.237   0.735   6.309 -0.3536 -0.0985  0.0016
45131W        W88147   5.011   6.930  22.040  0.3042  0.1363 -0.2030
45132W        W88148  27.633  31.606   6.663 -0.1088 -0.1450  0.0358
45133W        W88149  21.377  33.359  24.889  0.2590  0.1057  0.0696
45134W        W88150  11.143  29.093  27.607 -0.4344  0.0709 -0.2478
45135W        W88151  18.114  33.217  28.052  0.0292 -0.1714 -0.3997
45136W        W88152   1.195  29.446   6.311 -0.0351  0.0328  0.4182
45137W        W88153   3.209   4.018  25.771 -0.0924  0.2515  0.1849
45138W        W88154   0.888   3.505  15.694  0.1757  0.0646  0.2836
45139W        W88155  30.150  28.329  10.038  0.0917  0.2928  0.0024
45140W        W88156  28.090   7.478  17.569  0.1683 -0.3428 -0.0071
45141W        W88157  13.852  21.147   3.820  0.0343  0.1710  0.0704
45142W        W88158   0.135   5.032  24.263 -0.0775  0.1932  0.0517
45143W        W88159  14.145  31.472  28.404  0.2817 -0.3301 -0.0062
45144W        W88160   0.877   0.672  23.830 -0.2765  0.0778 -0.0279
45145W        W88161  24.214   4.405   3.933 -0.1765 -0.3564  0.1411
45146W        W88162  30.732  25.802  25.941  0.1543 -0.2831 -0.1310
45147W        W88163  34.727  23.346   6.824 -0.0505  0.2632  0.3353
45148W        W88164  19.660  31.677   4.570  0.1582  0.4234 -0.1013
45149W        W88165   0.255  16.267  29.055 -0.0554 -0.1587  0.1525
45150W        W88166  31.568   8.431  24.481 -0.0895 -0.0949 -0.1625
45151W        W88167   4.572  24.013   2.321  0.0262  0.1810 -0.1969
45152W        W88168   4.920  22.399   8.540 -0.1725 -0.0622 -0.1958
45153W        W88169   1.960  12.853   6.599 -0.1127 -0.2157 -0.0103
45154W        W88170  20.325   8.375  23.763  0.3081  0.5553 -0.0225
45155W        W88171  33.098   2.479  10.238 -0.1993  0.0494 -0.0834
45156W        W88172  17.849  25.927   3.523 -0.2552 -0.0890  0.1470
45157W        W88173  33.069  27.292  10.931  0.0540 -0.1273 -0.3054
45158W        W88174  15.162  21.830  21.137 -0.1354  0.0097  0.2481
45159W        W88175  27.597   4.273   2.509  0.2731 -0.0012 -0.0236
45160W        W88176  24.864  28.905  23.843  0.0764 -0.1159  0.1338
45161W        W88177  11.552  30.858   8.500 -0.4152 -0.1120  0.0778
45162W        W88178  34.154  31.359  20.015  0.0289 -0.0659  0.0468
45163W        W88179   7.843  33.903  23.485 -0.1600  0.1116  0.1034
45164W        W88180  24.484   4.721   1.852  0.2143  0.0514  0.0856
45165W        W88181  32.136   8.047  17.712  0.0664  0.0370 -0.1476
45166W        W88182  25.687   4.411   2.572 -0.3726 -0.0710  0.1997
45167W        W88183  10.803   2.392  29.036 -0.0854  0.2248  0.1644
45168W        W88184  27.389   6.663   1.065  0.1158  0.3596  0.1480
45169W        W88185   2.007  15.459   7.903  0.2246 -0.2998  0.1734
45170W        W88186  29.825  22.160   7.180  0.0502 -0.2158 -0.0460
45171W        W88187  19.369  28.977   9.269 -0.0245  0.3954  0.2242
45172W        W88188  27.458  24.227   8.322  0.0245  0.2354  0.0527
45173W        W88189   2.844  12.200  26.660  0.0998 -0.3787 -0.1971
45174W        W88190  32.015   3.563   0.650 -0.1486 -0.0551  0.2369
45175W        W88191  31.640  28.722   4.757  0.1031  0.0310  0.1065
45176W        W88192  27.766  10.452  27.841  0.0565 -0.0646  0.1221
45177W        W88193  23.483   1.654   3.755 -0.0760 -0.0853 -0.1595
45178W        W88194  32.002  31.253  25.463  0.3971  0.1091  0.1427
45179W        W88195   0.061  15.532  27.369 -0.2074 -0.1861 -0.2114
45180W        W88196  20.648   3.380   3.933  0.0761  0.3896  0.0806
45181W        W88197  25.978   5.760   6.929  0.1204  0.0093  0.1139
45182W        W88198   0.139  27.584   1.916 -0.0998  0.1389 -0.2375
45183W        W88199  25.324  11.990   1.356  0.3394  0.0077 -0.1719
45184W        W88200  28.300   1.623   8.434  0.1105  0.0139 -0.0761
45185W        W88201  31.783   1.282  19.861 -0.1312 -0.2130  0.0246
45186W        W88202  21.889   1.194   4.519 -0.3199  0.2567  0.1995
45187W        W88203  21.543   2.964  23.354  0.0006  0.1102  0.2917
45188W        W88204  12.639  22.124   5.309  0.1674  0.1555  0.2010
45189W        W88205  33.581  26.553  24.806  0.0955 -0.0313 -0.0119
45190W        W88206  10.842  31.180   5.327  0.1104  0.1188 -0.0280
45191W        W88207  31.346   2.135  27.496  0.1052  0.2585  0.1035
45192W        W88208  27.667  16.425  27.731 -0.3638 -0.1188 -0.1415
45193W        W88209  33.180  10.758  22.506 -0.1503 -0.0809  0.1976
45194W        W88210   2.509  28.631  24.890  0.1383 -0.2864  0.1448
45195W        W88211  27.152  30.483   6.902  0.0973 -0.0138 -0.1995
45196W        W88212  19.831  10.580  14.940 -0.1237  0.3584 -0.1211
45197W        W88213  20.268  34.428   0.811 -0.0469 -0.3057  0.0239
45198W        W88214   0.346  12.386   3.949  0.2620  0.1765  0.0952
45199W        W88215  26.813  29.049  19.658 -0.0098  0.0348 -0.2567
45200W        W88216  16.301  11.063   1.715  0.1876  0.0425 -0.4374
45201W        W88217  20.044  26.294  25.649  0.0254 -0.0227 -0.0843
45202W        W88218  25.233  34.597   9.620 -0.1848 -0.0900 -0.0940
45203W        W88219  13.348  19.040  12.737 -0.2238 -0.0657 -0.0681
45204W        W88220  18.859  28.985  24.591 -0.1190  0.0463  0.1291
45205W        W88221  26.014  18.224   8.653 -0.0310  0.3778  0.0887
45206W        W88222  25.953  17.115  14.145 -0.0183 -0.2268  0.1362
45207W        W88223  14.103   7.961   8.143 -0.1730 -0.1432 -0.0637
45208W        W88224   8.981  24.024   5.738 -0.1077 -0.0490  0.0222
45209W        W88225  34.434  23.381   0.786  0.1071 -0.0084  0.1169
45210W        W88226  33.253  33.139  28.246  0.1992 -0.1063 -0.0919
45211W        W88227  24.805  34.726  18.371 -0.0045 -0.5051  0.2433
45212W        W88228  27.594  26.259   9.336 -0.0305 -0.2098 -0.2270
45213W        W88229   6.424  18.169   8.062  0.1385  0.0061 -0.0112
45214W        W88230   1.069   2.152   4.592 -0.2256 -0.1125 -0.1834
45215W        W88231   1.104   5.876   6.759  0.0256 -0.3660 -0.2079
45216W        W88232   4.855  33.860   5.358 -0.2672  0.2858  0.0363
45217W        W88233  34.049  21.122  26.367  0.1716 -0.0841 -0.2209
45218W        W88234  34.483  26.480  19.787  0.2641 -0.0683  0.1129
45219W        W88235   8.977  16.526   0.879 -0.1530 -0.0961  0.1311
45220W        W88236   0.770  29.550   1.030  0.1543 -0.1395  0.1125
45221W        W88237  18.425  31.334   4.611  0.1007 -0.1355 -0.1426
45222W        W88238  10.393  26.867  15.859 -0.2324 -0.1151 -0.1146
45223W        W88239  18.867  28.993   5.345 -0.2169  0.3415 -0.0168
45224W        W88240  23.330  28.050   4.508  0.0774  0.1583 -0.1176
45225W        W88241  16.111   3.088   0.046  0.1325 -0.3381 -0.0385
45226W        W88242  29.695   8.259  10.168  0.2420 -0.2241 -0.1675
45227W        W88243  33.294   5.499  25.379  0.3679 -0.1026 -0.0653
45228W        W88244  27.375  21.886  26.183  0.1671  0.1594  0.3646
45229W        W88245  25.360  29.073  11.472 -0.2088  0.0457 -0.0153
45230W        W88246  20.861  29.293  25.469 -0.0590  0.3145  0.1294
45231W        W88247  29.117  30.035  11.111  0.1270  0.2173  0.2671
45232W        W88248  26.341  19.820  23.484  0.0409  0.4617 -0.0525
45233W        W88249  29.753   1.397  28.843 -0.1870  0.1599  0.3612
45234W        W88250  26.582  31.894  25.532 -0.1717  0.0473 -0.0614
45235W        W88251  33.720  32.772  15.205  0.0077 -0.0799 -0.0188
45236W        W88252   2.571  22.404  14.818  0.0537 -0.2905  0.2799
45237W        W88253  16.649   8.861   1.623 -0.0817  0.0733  0.2312
45238W        W88254  10.803  23.892  18.094  0.4185 -0.0735 -0.3584
45239W        W88255  32.985   3.637  14.988 -0.1385 -0.2042 -0.1941
45240W        W88256   0.761   8.601  26.930 -0.1815 -0.3059 -0.1316
45241W        W88257  29.052  29.370  29.272 -0.4989  0.0323 -0.1861
45242W        W88258  17.763  29.577  24.192  0.2043  0.3906  0.0826
45243W        W88259  13.751  27.641  20.051 -0.0348 -0.2896 -0.2769
45244W        W88260  28.075  32.709   2.326  0.1917  0.1053  0.0677
45245W        W88261  30.838  29.138  29.308 -0.3355  0.4466  0.0964
45246W        W88262  21.125  20.425  25.696 -0.1671  0.2560  0.1225
45247W        W88263  20.528  18.044  25.039 -0.0626  0.1382 -0.1544
45248W        W88264  27.078   2.995  18.187 -0.0827 -0.1136 -0.1044
45249W        W88265  22.681   2.309  25.831  0.1793  0.0398  0.2267
45250W        W88266  15.025  26.722  24.111  0.1857 -0.0036 -0.1686
45251W        W88267  11.277  15.470  20.923 -0.0457  0.0277  0.0590
45252W        W88268  30.739  10.668  21.786  0.2717 -0.0153 -0.1518
45253W        W88269   9.733  34.298  18.544  0.0274  0.1639  0.3129
45254W        W88270  14.337  33.724  13.853 -0.0588  0.2125  0.0325
45255W        W88271  33.215  30.630  18.096 -0.1910  0.0530 -0.3168
45256W        W88272  28.728   7.977   1.412 -0.0537  0.0242 -0.3243
45257W        W88273  20.789  16.859  23.370  0.4970 -0.1845  0.2967
45258W        W88274   9.399  27.327  19.463 -0.1418  0.1531  0.0012
45259W        W88275  20.097  33.246   2.323  0.2931  0.0253 -0.0360
45260W        W88276   6.269   1.687  25.991 -0.2841  0.1416  0.0453
45261W        W88277  14.873  32.515  18.445 -0.1273 -0.1851 -0.0277
45262W        W88278  22.935  15.371  22.051  0.2147  0.1225  0.0937
45263W        W88279  27.405  27.202   3.998  0.3831 -0.1125  0.1146
45264W        W88280  25.879   4.553  18.237 -0.1235 -0.2704 -0.0026
45265W        W88281  16.552  20.597  14.127 -0.3371  0.1332  0.0415
45266W        W88282   5.839  24.760   0.544  0.0510 -0.0842 -0.2175
45267W        W88283  25.578   6.845  17.116  0.0456 -0.1626  0.0538
45268W        W88284   2.593   3.712  28.843  0.1063 -0.1233  0.1235
45269W        W88285  18.095  28.836   0.776 -0.1369 -0.1470  0.0016
45270W        W88286  33.158  30.037  20.673  0.1077  0.1841  0.1462
45271W        W88287  33.088  21.228  18.463  0.0470  0.1313 -0.2569
45272W        W88288  12.564  15.060  25.392  0.0272  0.1285  0.0543
45273W        W88289   0.908  21.101  16.341  0.0941 -0.0338 -0.0890
45274W        W88290   1.666  33.318  13.599  0.0417  0.0529  0.2424
45275W        W88291  31.435  29.785  20.195  0.1462 -0.2507  0.1206
45276W        W88292  32.767  23.853  20.349  0.4064 -0.1713  0.0349
45277W        W88293   0.534   7.250  23.692 -0.1498 -0.0444 -0.0051
45278W        W88294   2.494  29.284  27.480  0.2045  0.0253 -0.2019
45279W        W88295  26.700  32.515  16.070  0.0412 -0.0540  0.0501
45280W        W88296  24.415  30.402  18.050  0.0850 -0.0417 -0.0826
45281W        W88297  19.199   1.572  18.116 -0.1128  0.1770  0.1197
45282W        W88298  24.360  22.456  20.462 -0.0719  0.2688 -0.0293
45283W        W88299  33.338  32.697  18.245 -0.3372 -0.1914 -0.2033
45284W        W88300  13.177  28.255  20.437 -0.1048  0.1821 -0.2438
45285W        W88301  23.021  30.090  15.329  0.1252 -0.1685  0.3097
45286W        W88302  21.434   4.916  15.884  0.1292 -0.0813  0.0147
45287W        W88303  31.612   5.585  23.503 -0.0233  0.1509  0.2742
45288W        W88304  29.061   1.922  18.885  0.0738  0.1422 -0.0252
45289W        W88305  17.035  28.138  23.858 -0.0672 -0.3604  0.1998
45290W        W88306  31.410  31.872  17.519  0.0937  0.1903 -0.1324
45291W        W88307  26.314  27.956   2.791  0.1384 -0.0422  0.0780
45292W        W88308  34.529  10.477  21.552  0.0769  0.1971  0.1325
45293W        W88309  21.686  32.404  23.479  0.0108  0.0182 -0.1446
45294W        W88310  23.190  30.884   2.647  0.2674  0.1825 -0.0537
45295W        W88311  30.774  34.583  17.852  0.0346 -0.0605 -0.1546
45296W        W88312  26.485  25.952  26.394  0.1044 -0.3522 -0.1800
45297W        W88313  10.212  16.039  19.074  0.3319 -0.1216  0.0626
45298W        W88314  27.312  28.613  26.398 -0.4507  0.0119  0.0258
45299W        W88315   9.532   9.534  20.055 -0.0796 -0.0578 -0.2335
45300W        W88316  32.339  32.205  23.426 -0.1046 -0.3307  0.1716
45301W        W88317  11.495   5.155  20.424  0.1459 -0.1574  0.0330
45302W        W88318   9.617  32.572   0.300 -0.2949 -0.2205 -0.1480
45303W        W88319  12.868   1.023  22.357  0.0027 -0.0850 -0.2765
45304W        W88320   9.719   1.327  23.902  0.5088 -0.0473 -0.0839
45305W        W88321   8.909  24.614  14.191 -0.3638  0.0364  0.0374
45306W        W88322  33.479  26.556  21.216  0.1041 -0.6582  0.1811
45307W        W88323  32.437   4.319  21.004  0.0589 -0.0408  0.2453
45308W        W88324  32.879  32.073  17.693 -0.1515  0.1956  0.1470
45309W        W88325   5.207   7.135  20.131  0.3350  0.0465 -0.3175
45310W        W88326   4.708  25.466  15.269  0.1367 -0.0791  0.0085
45311W        W88327  24.034   5.056  16.177  0.0146 -0.2416 -0.2427
45312W        W88328  21.488  24.479  19.853  0.0871  0.0750  0.0769
45313W        W88329   3.637   1.703  17.386  0.0603 -0.1605  0.2265
45314W        W88330  32.987   0.068  28.257 -0.2748  0.0092 -0.0296
45315W        W88331  15.959  23.159  20.886 -0.0580 -0.1306  0.0726
45316W        W88332  33.542  12.258   2.287 -0.1241 -0.1991 -0.4354
45317W        W88333  24.568   0.249  19.355 -0.0602  0.1253 -0.0760
45318W        W88334  13.984  31.306  19.373 -0.2394  0.2635 -0.0380
45319W        W88335  33.729  34.537  15.537 -0.2571 -0.0360 -0.2654
45320W        W88336   5.125  28.189  15.873 -0.0507 -0.1766 -0.2287
45321W        W88337  28.882   0.541   7.067 -0.0077 -0.3065 -0.0557
45322W        W88338  24.213  33.275  17.705 -0.2521  0.1942 -0.0347
45323W        W88339  25.621  22.919  16.058  0.2431  0.0799 -0.2525
45324W        W88340   6.812  30.502  22.996  0.3058 -0.2534 -0.3030
45325W        W88341   1.354  28.754  25.643 -0.2576  0.3443 -0.3449
45326W        W88342  20.963  22.852  20.474  0.0428 -0.1061 -0.1418
45327W        W88343   2.675   5.067  24.087 -0.1620  0.0549 -0.0999
45328W        W88344  26.763  24.113  28.368 -0.1434 -0.1546 -0.3042
45329W        W88345   5.980  24.653   5.273  0.1789  0.1231  0.1065
45330W        W88346  16.679   1.030  24.212  0.3232 -0.0733 -0.0360
45331W        W88347  28.200  33.335  23.621 -0.0366  0.1256  0.1301
45332W        W88348  12.607  21.677  27.937 -0.1294  0.0303  0.1241
45333W        W88349  21.767   4.911  15.441 -0.1186 -0.0010 -0.3180
45334W        W88350   9.277   7.195  14.471 -0.0149  0.2612  0.1873
45335W        W88351  17.365   6.021  23.710 -0.0749  0.0946 -0.3738
45336W        W88352  31.548   5.715  15.565 -0.0368  0.3755  0.1932
45337W        W88353  29.038  34.182  29.166 -0.1923 -0.1623  0.1584
45338W        W88354  31.073   4.754  25.259  0.0012 -0.1106  0.0344
45339W        W88355  29.630   8.901   4.739  0.0802 -0.1398  0.1143
45340W        W88356  33.734  15.935  20.829  0.1319 -0.0084 -0.2982
45341W        W88357  34.473   1.357  22.632 -0.3610 -0.1778 -0.1856
45342W        W88358   8.347  27.226  24.324  0.1085  0.2643 -0.1490
45343W        W88359  31.540  31.378  24.168 -0.1045 -0.2446  0.2918
45344W        W88360   6.610  19.960  24.325  0.0319  0.1502  0.0904
45345W        W88361  21.480  31.226   5.051 -0.0148 -0.0109 -0.0881
45346W        W88362  20.649  24.933  27.600 -0.1905  0.0653  0.1350
45347W        W88363  11.535  28.761  14.513 -0.0574 -0.0137 -0.0077
45348W        W88364  22.408  31.475  18.141  0.1913 -0.0719  0.0218
45349W        W88365   0.748   7.970  21.942  0.2039 -0.1231  0.0541
45350W        W88366  10.369  33.932  22.193  0.0524  0.1684  0.2110
45351W        W88367  31.758   8.487   4.416  0.4251 -0.0619 -0.0423
45352W        W88368  25.257  33.707  16.901  0.1157 -0.1318 -0.2955
45353W        W88369  31.862  12.406  27.523 -0.1632  0.0799 -0.0057
45354W        W88370   7.596  32.265  17.953 -0.0232 -0.3170  0.4047
45355W        W88371  24.531   5.070  15.278  0.1298  0.0192 -0.2725
45356W        W88372  33.714  29.747  17.112  0.0818  0.0868 -0.1947
45357W        W88373   5.574  10.996  22.474 -0.4175  0.2994 -0.1851
45358W        W88374  30.304   6.850  15.788 -0.0853  0.1031 -0.0676
45359W        W88375   4.991  19.952  27.270  0.2320  0.1282 -0.0858
45360W        W88376  22.581  27.182  16.704 -0.0450 -0.3281 -0.3839
45361W        W88377   2.375  19.043  24.147  0.1954 -0.1474 -0.1283
45362W        W88378  19.820  33.461  19.812  0.0040  0.0014  0.0358
45363W        W88379  26.169  34.303  19.741 -0.1455  0.0799  0.0206
45364W        W88380   3.006   3.512  22.309  0.3735 -0.1412  0.0311
45365W        W88381  21.964   1.410   6.951  0.1261  0.0759 -0.3113
45366W        W88382  20.285   5.267  15.216 -0.3004 -0.3011 -0.1653
45367W        W88383  30.774   1.109  20.704 -0.1466 -0.2634  0.2446
45368W        W88384  14.864   6.308  19.649  0.1488 -0.0942 -0.2709
45369W        W88385   1.471  28.387  27.169  0.0396  0.0253 -0.0036
45370W        W88386  28.627   5.345  16.647  0.0380  0.3126 -0.3746
45371W        W88387  32.986   2.056  16.865 -0.1818 -0.0633  0.1028
45372W        W88388   7.299  25.488  25.591  0.2677  0.0709 -0.4988
45373W        W88389  30.650  32.819   2.497 -0.1950  0.2002  0.1977
45374W        W88390  15.449   7.026  29.099  0.4417  0.3385  0.0798
45375W        W88391  33.033  31.488  19.856 -0.3501  0.0491 -0.1759
45376W        W88392  24.218  29.870  18.048 -0.0436 -0.2186  0.0337
45377W        W88393  29.773  34.608  27.031  0.1841 -0.1580  0.0035
45378W        W88394   4.634  28.393  18.494 -0.0012 -0.0144  0.0043
45379W        W88395  27.904   2.182   1.260 -0.4556 -0.0650  0.0336
45380W        W88396  33.190  18.085  29.081 -0.2313  0.0239 -0.3360
45381W        W88397   7.834   9.469  21.630 -0.2865  0.3217 -0.0010
45382W        W88398  18.065  30.947   7.495  0.0954 -0.0229  0.2366
45383W        W88399   3.850  31.108   0.868  0.1921 -0.0047 -0.0902
45384W        W88400   3.604   8.534  19.842  0.1889 -0.0486  0.0662
45385W        W88401  25.513  11.398  17.846 -0.0403 -0.0584  0.2257
45386W        W88402   1.865   4.125  16.272 -0.0728 -0.2913  0.2318
45387W        W88403  26.429   7.277  19.541 -0.1254 -0.2252  0.0746
45388W        W88404   9.906  15.138  22.304 -0.3941 -0.0875 -0.0871
45389W        W88405   6.542  14.143  24.192 -0.0516  0.0141 -0.0732
45390W        W88406   6.209  25.140  23.628 -0.1293  0.1626 -0.0156
45391W        W88407  10.441  22.272  14.683  0.0864  0.0794 -0.1165
45392W        W88408  32.434  33.378   2.175 -0.0215 -0.1032  0.0534
45393W        W88409  15.088  32.701  19.821 -0.2619  0.0987  0.1652
45394W        W88410  17.585  23.843  14.059  0.1582 -0.2039  0.0823
45395W        W88411  31.457   0.968  23.024  0.0237  0.1247  0.0531
45396W        W88412  27.341   1.359   1.998 -0.1463 -0.1446  0.0980
45397W        W88413   1.213   3.290  20.471  0.1023 -0.3646 -0.2822
45398W        W88414   7.757  13.294  14.746  0.3180  0.1343  0.0582
45399W        W88415  27.362  29.484   4.275 -0.1613  0.0876 -0.2685
45400W        W88416   3.222  11.318  22.977  0.2985  0.0486 -0.1151
45401W        W88417  24.218  15.075  18.901  0.0161 -0.1292  0.2651
45402W        W88418  21.691  11.387   0.869 -0.1600  0.2494 -0.3289
45403W        W88419   0.152  30.981  23.391 -0.1126 -0.3822  0.0438
45404W        W88420   1.768  32.062  23.454 -0.3498 -0.1394 -0.0259
45405W        W88421  27.001  27.661   1.120 -0.3330 -0.2655 -0.0795
45406W        W88422   2.478  30.793   3.691  0.0002 -0.0099 -0.0905
45407W        W88423  29.713  26.617  25.883  0.1922  0.1393  0.0066
45408W        W88424  23.384   7.917  14.317 -0.0635 -0.3070  0.1121
45409W        W88425   9.397   1.100  23.563  0.0167 -0.0794 -0.2615
45410W        W88426   0.410  31.850  18.777  0.1311  0.1825  0.0115
45411W        W88427  29.907  31.688   0.366 -0.1962  0.1159  0.0353
45412W        W88428  29.056  26.457  17.848  0.0640 -0.4762  0.2568
45413W        W88429   1.103  10.349  14.961  0.1330 -0.0896  0.0661
45414W        W88430  26.472   6.678  28.763 -0.4329  0.0567  0.1863
45415W        W88431   1.255  25.661  20.132 -0.1798  0.1692 -0.1466
45416W        W88432  14.838  23.019  14.949 -0.0583  0.1219 -0.0185
45417W        W88433  33.216  10.445  24.107  0.2098  0.0507 -0.1213
45418W        W88434  23.648  29.680  20.926  0.0566  0.0550  0.0403
45419W        W88435   8.444  29.137  18.779  0.0271  0.1207  0.2441
45420W        W88436  34.665  34.420  29.252 -0.0561  0.2545 -0.1484
45421W        W88437  31.558  19.343  15.728  0.0865 -0.0063 -0.0930
45422W        W88438  12.664  24.933   0.318  0.2126 -0.1418 -0.1927
45423W        W88439  15.376  29.169  20.768 -0.1278  0.0827 -0.0790
45424W        W88440  34.162   7.131  14.678 -0.1731  0.1385  0.1693
45425W        W88441   9.521  28.755  22.927  0.0501 -0.3583  0.1554
45426W        W88442  33.616  34.057  18.471 -0.0564  0.0250 -0.0527
45427W        W88443  27.442  24.768  28.440 -0.0710  0.1226 -0.1613
45428W        W88444  22.468   0.260  23.522 -0.2712  0.1979 -0.3202
45429W        W88445  19.983  23.413  21.863  0.2272 -0.0010 -0.2731
45430W        W88446  30.942  11.701  24.846  0.0201  0.1379 -0.6794
45431W        W88447  31.982  16.052   4.521 -0.1198  0.0230 -0.0779
45432W        W88448  34.616  27.080  24.200  0.2889 -0.2010  0.3747
45433W        W88449  22.944   8.865  23.568 -0.4642 -0.0392  0.1436
45434W        W88450   2.634  34.629   0.309 -0.1079 -0.1103  0.1800
45435W        W88451   4.305  10.384  18.742  0.2402  0.0497 -0.0450
45436W        W88452  20.803   5.639  24.620  0.0429  0.2658  0.0169
45437W        W88453   0.376   1.739  15.363  0.0032  0.2812  0.0626
45438W        W88454   3.954  31.060  20.990  0.0276 -0.2091  0.0089
45439W        W88455  21.777   6.187  17.142 -0.1192  0.0047 -0.0898
45440W        W88456  14.140   1.113  16.575 -0.1637  0.2438 -0.1084
45441W        W88457   4.022   8.815  17.522  0.2500 -0.1650 -0.3917
45442W        W88458   1.428   0.775  15.172  0.0886 -0.3159 -0.0598
45443W        W88459  25.971  32.198  16.357 -0.5436 -0.1391 -0.1681
45444W        W88460   3.981  20.814  20.214  0.1611  0.0618 -0.1727
45445W        W88461  31.604  11.177  16.776  0.0851  0.2841  0.1084
45446W        W88462   2.231   2.924  27.191 -0.0288  0.2170  0.0440
45447W        W88463  30.206   8.383  24.784 -0.3429  0.1477 -0.2018
45448W        W88464   4.494   0.955  21.428  0.1856 -0.0778  0.1122
45449W        W88465  26.993   2.575  19.725  0.1830  0.3167 -0.1074
45450W        W88466  16.363  30.511   5.919 -0.1912 -0.4296  0.2073
45451W        W88467  29.599   1.948  23.117  0.1353 -0.1171  0.1397
45452W        W88468  23.067  29.198  24.323  0.0449 -0.2873 -0.2470
45453W        W88469   1.909  25.462  19.609  0.1414  0.0830  0.1077
45454W        W88470  22.366  26.838   1.570  0.2688 -0.0936  0.3252
45455W        W88471   7.056   8.513  14.605 -0.1767 -0.2544 -0.0283
45456W        W88472  33.346  13.782  20.877 -0.2276  0.2986  0.0477
45457W        W88473  31.850   8.743  14.727 -0.0511 -0.4274  0.0484
45458W        W88474  12.228   1.965   2.122  0.3661  0.0483 -0.0689
45459W        W88475  14.487   7.968   6.955 -0.3932 -0.3020  0.0781
45460W        W88476  29.682  33.666  19.713  0.0500 -0.0999  0.0338
45461W        W88477  31.548   8.109  15.152 -0.0938  0.0805  0.0264
45462W        W88478  22.525   5.240  24.737 -0.2623 -0.4895 -0.1136
45463W        W88479  29.854  24.784  16.917  0.2575  0.0821  0.3733
45464W        W88480  29.432  22.307  19.159  0.0249 -0.0871  0.0779
45465W        W88481  28.728  34.037  19.500  0.0864  0.0492 -0.4011
45466W        W88482  24.021  27.923  20.755 -0.2038  0.1264  0.0679
45467W        W88483   6.359  13.878  20.377  0.5196  0.2862 -0.1135
45468W        W88484   5.499  14.496  25.867 -0.1995 -0.0518  0.2182
45469W        W88485  17.800   5.762  15.447 -0.1378  0.0684 -0.0287
45470W        W88486  12.308   2.198  20.635  0.0759 -0.0197 -0.1227
45471W        W88487   1.053  16.909  22.389  0.0243 -0.1742  0.0072
45472W        W88488  33.966  28.959   0.581 -0.0674  0.2836  0.1780
45473W        W88489  33.092  32.937  16.017 -0.0862 -0.3661  0.0969
45474W        W88490  12.908  32.595  27.440  0.0675  0.4369 -0.1234
45475W        W88491  24.762   1.922  26.440 -0.0283  0.0985 -0.2420
45476W        W88492   0.235  12.417  23.146  0.2572 -0.1133 -0.1820
45477W        W88493   7.389  26.704  20.253 -0.0472  0.0116  0.1024
45478W        W88494   2.312  25.131  28.103 -0.1142  0.0456  0.1301
45479W        W88495  24.043   5.132  17.487 -0.0671 -0.1962  0.2432
45480W        W88496  28.175  34.131  16.223  0.0169 -0.1601  0.2084
45481W        W88497  17.820   1.651  26.766  0.1266 -0.0077  0.1430
45482W        W88498  30.476  27.414  16.110  0.2248  0.0047  0.3279
45483W        W88499  33.722  10.201  20.953 -0.3005  0.0600 -0.1494
45484W        W88500  15.658  33.310  16.614 -0.0297 -0.0896 -0.1845
45485W        W88501  26.525  19.037  21.989 -0.0900  0.1043 -0.1156
45486W        W88502  30.285  33.798   6.315 -0.1362  0.0366  0.0766
45487W        W88503  11.045   1.362  18.371  0.0462 -0.1888 -0.1906
45488W        W88504  25.928  27.568  18.908 -0.0622 -0.0002  0.1354
45489W        W88505   4.066  29.041  20.685  0.0053 -0.3405  0.3753
45490W        W88506  19.926  19.848  24.198 -0.3075  0.1143 -0.0697
45491W        W88507   8.217  28.027  16.130 -0.0875  0.2354  0.0024
45492W        W88508   4.733   1.860  18.413 -0.4498  0.0214 -0.2338
45493W        W88509  27.973  10.029  20.368 -0.1139  0.0800  0.0498
45494W        W88510   7.023  21.385  14.482  0.0358  0.0794 -0.0400
45495W        W88511   5.960  11.808  13.746 -0.2165 -0.0410 -0.0272
45496W        W88512  16.852   0.117  22.507  0.1567  0.0237 -0.0409
45497W        W88513   3.067  30.931   8.368 -0.1448  0.3079  0.1585
45498W        W88514   1.618  26.865  17.847 -0.0157 -0.2025 -0.0498
45499W        W88515   2.792  29.330  19.463  0.1774  0.0175  0.0418
45500W        W88516  26.415  31.498   3.459 -0.1814 -0.0191 -0.0999
45501W        W88517  15.360   0.622  27.795 -0.0484  0.0834  0.1341
45502W        W88518  15.806   0.535  15.964 -0.0861  0.1671 -0.3459
45503W        W88519   0.635  33.191  19.632 -0.0255  0.4220  0.0798
45504W        W88520  26.739  31.960  19.909  0.1339  0.0758  0.0993
45505W        W88521   3.484  30.451   0.863  0.1982  0.3614 -0.0998
45506W        W88522  24.267   3.592  23.934 -0.3134 -0.0748 -0.1228
45507W        W88523  31.972  23.960  18.650 -0.0528 -0.0162  0.1197
45508W        W88524  25.433  24.096   4.671  0.2978 -0.0128 -0.2378
45509W        W88525  27.234   3.163  28.478 -0.0365  0.1747  0.1224
45510W        W88526  32.560  31.539   3.446  0.2223  0.1058 -0.0372
45511W        W88527  16.415  33.405  14.533 -0.1169  0.2749  0.0193
45512W        W88528  28.927  31.380  25.741  0.0965  0.0917  0.3806
45513W        W88529  16.263  17.277   1.856 -0.2983  0.0367 -0.1564
45514W        W88530   4.592  15.578  28.153 -0.1517 -0.1487  0.1774
45515W        W88531  12.272  23.000  22.697 -0.2112  0.1012 -0.2161
45516W        W88532  18.015  15.456   1.841  0.2986 -0.4730 -0.0567
45517W        W88533   2.914  29.116  25.267  0.1843  0.0829 -0.0009
45518W        W88534  25.257  24.607  17.887 -0.0701 -0.2049 -0.2449
45519W        W88535   2.094  27.126  25.687  0.2914  0.0592  0.3189
45520W        W88536   0.872   0.693  23.209  0.0946  0.1320 -0.0682
45521W        W88537   2.783  27.392  27.393  0.0945 -0.0320  0.0401
45522W        W88538  33.053  30.061  26.977  0.0430 -0.0004  0.1292
45523W        W88539  28.490   3.392  18.511  0.1544 -0.1896 -0.1910
45524W        W88540  30.920   4.217  27.356  0.1106 -0.0024 -0.0942
45525W        W88541  26.447  27.510  24.797 -0.4520 -0.1952 -0.3734
45526W        W88542  13.031   7.847  15.741  0.0238 -0.1695  0.3961
45527W        W88543  30.559   0.272  15.417  0.1219 -0.1130 -0.1525
45528W        W88544  34.608  29.191  20.319 -0.1905  0.2720 -0.0024
45529W        W88545   0.322   1.797  23.198 -0.2939  0.3532  0.5107
45530W        W88546  14.404  26.207  17.684  0.2327  0.2741  0.3975
45531W        W88547   5.959  19.184  20.918 -0.2784 -0.1888 -0.0150
45532W        W88548  27.017   0.936   3.137  0.3462 -0.0923 -0.2021
45533W        W88549  25.516  22.978  23.606 -0.0743 -0.0697 -0.3817
45534W        W88550   8.156  18.757  20.934  0.1049 -0.2589 -0.2520
45535W        W88551   3.107  26.308   5.422  0.0235  0.0054 -0.2681
45536W        W88552  25.518  31.212  18.525  0.1709  0.5001  0.0892
45537W        W88553  28.217  23.039  17.449  0.2277  0.1093  0.0258
45538W        W88554   5.788  10.675  29.022  0.0953  0.0820  0.2929
45539W        W88555  23.963   2.968  26.761  0.3137 -0.1174 -0.0328
45540W        W88556  34.742   1.887  18.733 -0.2115 -0.0110  0.0962
45541W        W88557  32.624   5.746  24.520  0.1512 -0.1319 -0.1856
45542W        W88558   5.058   0.440  15.843  0.1821 -0.0406 -0.0754
45543W        W88559  11.199  33.898  15.762  0.0561  0.0371 -0.5115
45544W        W88560  28.306   1.909  16.550 -0.1786 -0.1011 -0.0275
45545W        W88561   7.021  29.911  14.331 -0.2061 -0.3009  0.0555
45546W        W88562  27.222  24.803  27.984 -0.0063 -0.1034  0.1231
45547W        W88563  13.989   6.463  28.740 -0.0342 -0.1418  0.0360
45548W        W88564  23.023  30.279  24.496  0.1711  0.1794  0.1148
45549W        W88565  30.970  34.131  27.011 -0.1905 -0.1575  0.1433
45550W        W88566  32.661  33.205  22.602  0.2326 -0.0752 -0.0141
45551W        W88567  29.811   8.025  28.115  0.0243 -0.0897 -0.1140
45552W        W88568  31.437  32.744  27.078  0.0847 -0.0147  0.2964
45553W        W88569  27.363  11.374  27.445  0.2169  0.2412 -0.0082
45554W        W88570   5.965  34.713   2.152  0.2155  0.0508  0.1835
45555W        W88571   0.418  33.772  14.930 -0.0778  0.0129  0.2344
45556W        W88572  31.140  23.247  17.473  0.0957 -0.0167 -0.2403
45557W        W88573  29.328  14.207  14.338 -0.0241 -0.1676 -0.3703
45558W        W88574  25.011   5.517  25.188 -0.2144 -0.1097 -0.3031
45559W        W88575  15.354  13.815  13.500 -0.1977  0.2985  0.1229
45560W        W88576  27.779   1.682  21.785 -0.0741  0.0517 -0.1397
45561W        W88577  28.303   1.223  28.452 -0.3359  0.0006  0.0328
45562W        W88578  30.163  25.231   4.319  0.0801  0.1114 -0.0188
45563W        W88579   5.930   7.763  13.888  0.2314  0.0862  0.0593
45564W        W88580  31.440  22.521  15.243 -0.2499  0.0720  0.0241
45565W        W88581   5.680  29.566  22.595  0.3659  0.3063  0.2424
45566W        W88582  15.306   7.195  19.714 -0.1131 -0.0809 -0.2509
45567W        W88583  33.590  21.248  24.842 -0.2453  0.2587 -0.0061
45568W        W88584  25.181   4.759  16.962  0.2390  0.3593 -0.2046
45569W        W88585  27.748   4.368  19.286  0.0288 -0.2527  0.3088
45570W        W88586  30.416  32.685  19.665  0.0442 -0.0734 -0.2802
45571W        W88587   0.286  33.699  29.095 -0.1929  0.2442 -0.2449
45572W        W88588  30.631   7.110  17.545  0.1514 -0.0393  0.2035
45573W        W88589  26.659  30.407   6.824 -0.1534 -0.2931  0.0513
45574W        W88590   2.208  23.371  22.151 -0.2331  0.1098  0.1992
45575W        W88591  30.666  16.709  21.399 -0.4125 -0.2061 -0.0628
45576W        W88592  13.664  26.702  21.271  0.2593 -0.2593 -0.2382
45577W        W88593  28.409  28.346   0.111  0.0166 -0.0244  0.2160
45578W        W88594   8.818  27.298  26.655 -0.2060 -0.0279 -0.3019
45579W        W88595  30.677  27.753  15.662  0.2765 -0.2202  0.0762
45580W        W88596   0.492   2.562  24.016 -0.5302  0.0751 -0.1452
45581W        W88597  29.468  22.316   1.680 -0.1386 -0.1045 -0.0677
45582W        W88598  32.300   6.659  18.188 -0.1635 -0.1683  0.0571
45583W        W88599  28.846   7.692  28.592  0.1154 -0.3723  0.2610
45584W        W88600  17.192  29.910  25.173  0.1976  0.1136  0.2925
45585W        W88601   9.583  19.129  12.594  0.0992  0.0168 -0.2717
45586W        W88602  23.493   0.254  19.324 -0.2257 -0.1832  0.2602
45587W        W88603  11.459  32.742  27.910 -0.1638  0.3373 -0.5725
45588W        W88604  32.452   3.456  22.587  0.2290 -0.1155  0.0057
45589W        W88605   3.098   3.676  26.579  0.0828 -0.2125  0.2689
45590W        W88606  22.229  31.279  21.214  0.0715 -0.0533  0.4975
45591W        W88607  28.682   6.694  19.863  0.1430  0.1177  0.0315
45592W        W88608  32.021   1.712  10.063 -0.2094  0.1045 -0.0245
45593W        W88609  34.566  22.638  16.345  0.2331  0.0988 -0.0521
45594W        W88610  31.333  32.865   5.886  0.0076 -0.0234 -0.1130
45595W        W88611  22.608  33.074  22.297 -0.2024  0.1873 -0.2087
45596W        W88612   9.223   1.431  17.283  0.0983  0.1018 -0.3977
45597W        W88613  23.108   7.427  14.851 -0.0976 -0.2058 -0.1724
45598W        W88614  18.754  30.439   5.273 -0.3148  0.0112  0.1075
45599W        W88615  32.385  24.812  14.439 -0.0659 -0.0599  0.1210
45600W        W88616  23.873  31.577   9.056  0.2910 -0.1522 -0.0486
45601W        W88617  32.783   6.617  29.091 -0.3659  0.4821 -0.1543
45602W        W88618  11.263  10.978  21.160 -0.0248 -0.1518 -0.0586
45603W        W88619   9.591  28.544  16.669 -0.3795  0.1812  0.1025
45604W        W88620  24.529   3.031  23.182  0.1076 -0.5759  0.3875
45605W        W88621   5.377  21.386  21.055  0.6285 -0.2893 -0.0793
45606W        W88622  33.587   4.202  15.482 -0.2842 -0.1460 -0.1307
45607W        W88623   3.271  31.981   0.933 -0.2395  0.1799  0.3664
45608W        W88624   9.533  11.359  17.990 -0.2459  0.0960  0.0211
45609W        W88625   2.633   1.067  15.407 -0.3167 -0.2610  0.0137
45610W        W88626  33.007  11.929  21.454 -0.0449  0.1422  0.1900
45611W        W88627   2.443  20.628  10.114  0.2623 -0.1722  0.0484
45612W        W88628  31.526  30.292   0.879 -0.1723 -0.1329  0.1936
45613W        W88629   2.837   2.042  22.226  0.0368 -0.1952  0.0751
45614W        W88630  25.150  28.054   8.087  0.0855 -0.1470 -0.3985
45615W        W88631  30.457  29.446   2.279 -0.0168  0.0837  0.0360
45616W        W88632  12.028  16.994  18.231 -0.3472  0.2404  0.1102
45617W        W88633  31.389   2.294  29.194  0.1800  0.0628 -0.1247
45618W        W88634   0.355  18.792  16.584  0.4109 -0.0193  0.1372
45619W        W88635  28.851  14.051  14.528  0.3556 -0.2472 -0.1178
45620W        W88636  30.565   2.406  16.906  0.1546  0.0725  0.0160
45621W        W88637   6.669  32.494   1.093  0.0140 -0.2313 -0.0984
45622W        W88638  28.915  16.477  16.290 -0.0993 -0.1784  0.2156
45623W        W88639  26.817   5.620  14.807  0.0474 -0.2394  0.0024
45624W        W88640  26.623   6.734  17.199  0.3957 -0.1849 -0.1409
45625W        W88641  11.726  30.484  23.767  0.1066 -0.2076  0.2368
45626W        W88642  30.865  34.469   1.558  0.1844 -0.3938  0.0573
45627W        W88643  30.970   7.792  18.360  0.1116 -0.1966  0.1592
45628W        W88644  24.711   3.589  27.683  0.0946 -0.1218 -0.0226
45629W        W88645  23.226  22.646  27.418  0.1402  0.0229 -0.0100
45630W        W88646  29.700   1.692  29.258  0.0595  0.1694 -0.0909
45631W        W88647   0.168   6.928  15.129 -0.0212  0.0608  0.0014
45632W        W88648  23.689  18.860   7.380  0.2710  0.1416 -0.2457
45633W        W88649  15.742   6.819  17.547 -0.2371  0.3869 -0.1600
45634W        W88650  27.994   2.346  20.979  0.1425 -0.1248  0.3924
45635W        W88651  32.193  22.226  16.287 -0.0200 -0.1859 -0.0850
45636W        W88652  31.734  28.857  27.029 -0.0086  0.1190 -0.0429
45637W        W88653   1.513  10.634  19.152  0.0091 -0.0496  0.0924
45638W        W88654  31.493  33.389  21.411  0.0819  0.1360 -0.3217
45639W        W88655  23.024   0.831   0.099 -0.5252  0.1474  0.2217
45640W        W88656  12.066  32.250  24.544 -0.0435  0.0626  0.3376
45641W        W88657  29.662  17.860   2.011 -0.1408  0.2551  0.3570
45642W        W88658   4.391  25.695   1.976 -0.2362  0.2939  0.2213
45643W        W88659  21.075  20.805  27.434 -0.2138 -0.0609  0.0231
45644W        W88660  22.687  26.266  16.946 -0.0290 -0.3252 -0.1976
45645W        W88661  33.401  21.509   5.821 -0.0028  0.0543 -0.0568
45646W        W88662  30.011  14.397  25.165 -0.0355 -0.2226 -0.0866
45647W        W88663  30.849  12.622   9.269 -0.1446  0.1795  0.1318
45648W        W88664  19.591   7.593  21.712 -0.0192 -0.1854 -0.1941
45649W        W88665   0.656  14.882  26.959 -0.0368  0.2011  0.2221
45650W        W88666  32.282  26.600  17.911 -0.0749 -0.3102  0.0541
45651W        W88667  32.536  25.900  16.208 -0.0887  0.0270 -0.0856
45652W        W88668  27.310   1.241  20.836  0.2639 -0.0943 -0.1200
45653W        W88669  28.626  13.903   1.115 -0.2110  0.1648  0.0239
45654W        W88670  33.948  33.637  21.156 -0.0174 -0.3126 -0.3187
45655W        W88671  24.698  32.745  24.635  0.0985  0.3191 -0.0660
45656W        W88672  34.763  31.999  10.230  0.0160  0.0574  0.2171
45657W        W88673  20.462   1.445  16.847  0.2549  0.0162 -0.1243
45658W        W88674   3.891  29.905  15.529  0.0713  0.3300 -0.1485
45659W        W88675  23.579  28.313  22.734 -0.0277  0.0262  0.0935
45660W        W88676  25.107   7.190  15.961 -0.1250  0.1950 -0.3393
45661W        W88677   6.759  12.738  19.250  0.0673 -0.1511  0.1267
45662W        W88678  23.051  32.158   6.907  0.1314 -0.1782  0.1853
45663W        W88679  28.811   3.221  24.463 -0.2313  0.0064 -0.0985
45664W        W88680  24.003  33.878  28.548 -0.0718  0.2252 -0.1016
45665W        W88681  15.842  21.609  26.149  0.3114  0.0199  0.3950
45666W        W88682  28.015  18.282  21.857  0.4423  0.0385  0.1008
45667W        W88683  20.421   0.650  25.235 -0.0557 -0.0138  0.0768
45668W        W88684  28.043   1.545   4.681  0.1267  0.1212 -0.0244
45669W        W88685   5.459   3.686  26.587 -0.0213  0.0839 -0.0214
45670W        W88686  19.094   2.587  18.153 -0.1517 -0.0084 -0.0171
45671W        W88687   3.473   9.374   0.158  0.0510 -0.2368 -0.0612
45672W        W88688  21.408  26.912  26.825 -0.0137 -0.2274  0.2486
45673W        W88689   2.308  15.246  19.097  0.1456  0.2308 -0.0474
45674W        W88690   6.566  24.320  19.249  0.1587 -0.2612  0.2464
45675W        W88691  33.254   2.710  26.593 -0.1859  0.1259  0.2390
45676W        W88692  11.984   0.444   0.706 -0.1537 -0.1307 -0.1921
45677W        W88693  30.513   4.722  23.416 -0.0096 -0.0479 -0.1642
45678W        W88694  27.848   7.577   7.911 -0.1798 -0.2448 -0.1882
45679W        W88695   5.406  32.789  14.874 -0.0929 -0.0330 -0.1460
45680W        W88696  28.421   1.188  22.482  0.1322 -0.0969  0.0372
45681W        W88697   0.062  21.537  22.911 -0.5182 -0.1306 -0.2751
45682W        W88698  18.134   3.818  19.115  0.1584 -0.0109 -0.2260
45683W        W88699  18.608  25.633   7.529  0.2184  0.2258 -0.1181
45684W        W88700  22.237   1.092  28.147  0.1132 -0.3300 -0.1557
45685W        W88701   6.834   4.521  17.095 -0.1766  0.0592 -0.0648
45686W        W88702  26.715  31.908  22.307  0.2331  0.3006 -0.0788
45687W        W88703   7.743  30.125   0.227 -0.2099  0.1144  0.0937
45688W        W88704  30.508  31.613   8.843 -0.0617  0.1838 -0.4030
45689W        W88705  15.884   4.132  22.407  0.1860 -0.1038 -0.3717
45690W        W88706   2.993   3.965  28.980  0.0422  0.1666 -0.1946
45691W        W88707   6.273  31.879  20.903  0.4621 -0.1977  0.0954
45692W        W88708   4.272  14.539  22.018 -0.0595 -0.0507 -0.2082
45693W        W88709  14.974  26.722   2.363 -0.2766 -0.0994 -0.0385
45694W        W88710  19.888   7.957  20.428  0.1664  0.0332 -0.3137
45695W        W88711   7.271  15.342  21.515 -0.0082  0.2643 -0.7976
45696W        W88712  13.297  24.928  17.714 -0.3149  0.0225  0.4806
45697W        W88713  14.677   3.198  18.917  0.0760 -0.2995 -0.5403
45698W        W88714  23.230  14.981  26.670 -0.5506  0.1855 -0.2646
45699W        W88715  31.903   0.958  26.570 -0.1592  0.0602  0.1616
45700W        W88716  26.658  31.713  27.034  0.0954 -0.3742  0.1503
45701W        W88717  23.687   2.473   1.431  0.1568  0.1124 -0.1554
45702W        W88718  17.125  32.919  28.062 -0.1638 -0.1071  0.0626
45703W        W88719  31.123  14.996  17.175 -0.2066 -0.1918 -0.1773
45704W        W88720   2.634  23.677   0.640  0.0707 -0.1723 -0.0132
45705W        W88721  25.148   2.263   2.277  0.0388  0.1919 -0.1226
45706W        W88722  32.752  32.482  16.108  0.3310  0.0426  0.0152
45707W        W88723  32.292   7.274  18.594  0.1589 -0.1544 -0.2112
45708W        W88724  30.403  10.079  15.928 -0.3510 -0.0584  0.0858
45709W        W88725  33.882  28.216   6.448  0.1261  0.1168  0.0870
45710W        W88726  19.477   8.948  23.572  0.2699  0.1326 -0.0406
45711W        W88727   2.184   6.945   2.345 -0.2510  0.1197 -0.2387
45712W        W88728   2.275   9.133  20.593 -0.1722  0.2501 -0.4192
45713W        W88729  31.787   2.434  18.115 -0.1560  0.2064  0.1234
45714W        W88730  15.758  33.471  21.913 -0.0387 -0.1923 -0.1644
45715W        W88731   3.928  25.631  26.078 -0.0307 -0.1144 -0.2278
45716W        W88732  16.425   8.595  16.126  0.0661  0.1450 -0.0119
45717W        W88733   3.140  15.942  15.498  0.2378  0.3293  0.1358
45718W        W88734  20.268  25.940  17.687  0.2344 -0.1256  0.0035
45719W        W88735  33.834  21.643  17.504  0.3414 -0.0478  0.1759
45720W        W88736  23.290  27.499   5.928 -0.0611  0.2010 -0.0960
45721W        W88737  29.807  32.961  17.863 -0.1612 -0.1664 -0.0542
45722W        W88738  32.537   0.022   8.798  0.0329 -0.3662 -0.1836
45723W        W88739  13.919  30.109   8.852  0.1780  0.1530 -0.2418
45724W        W88740  34.182  25.349  24.664  0.1217  0.0637 -0.1552
45725W        W88741  15.991   6.150  24.623  0.0893 -0.1234  0.2726
45726W        W88742  27.892   8.403  19.860  0.2871 -0.0423  0.4230
45727W        W88743  12.183   9.631   7.182 -0.2344  0.1224  0.0183
45728W        W88744  19.918  14.485  15.719  0.2901  0.2277  0.1870
45729W        W88745  24.638  11.793  17.903  0.2003  0.3208 -0.1956
45730W        W88746  32.036  25.214  24.560 -0.0687  0.0762 -0.0555
45731W        W88747  19.542  14.721   1.071  0.3396  0.0097  0.0623
45732W        W88748  17.111   8.834  14.291  0.0166  0.2419  0.0687
45733W        W88749   2.411  13.512  20.104  0.0933 -0.2720 -0.4956
45734W        W88750  31.651  33.141   6.109  0.1495 -0.3275  0.0346
45735W        W88751  33.915  22.758  15.967 -0.2690  0.2295 -0.1018
45736W        W88752  31.616   7.819  22.415 -0.0718 -0.1962 -0.0531
45737W        W88753   2.433   8.280  15.462  0.0868 -0.1495 -0.0143
45738W        W88754   0.462  28.203  27.658 -0.3849  0.2780 -0.1034
45739W        W88755  24.185   0.026  17.191  0.0224 -0.1712  0.1448
45740W        W88756   3.514  10.342   4.546  0.3712 -0.0040  0.1256
45741W        W88757  17.788   5.746  24.848 -0.0302  0.1860 -0.0901
45742W        W88758  27.584   9.989  27.618  0.2233 -0.1464 -0.0394
45743W        W88759  21.505  22.307   4.937  0.3546  0.1771 -0.3984
45744W        W88760   2.144  31.524  28.348  0.3210  0.0556  0.0910
45745W        W88761  33.136   6.589  24.967  0.4053 -0.0411 -0.1192
45746W        W88762  19.635  24.473   6.230  0.2637  0.0805  0.0774
45747W        W88763  19.768  33.841  20.940  0.0091 -0.3182 -0.1341
45748W        W88764   2.262  31.639   8.997 -0.2509 -0.1851  0.0203
45749W        W88765  10.529  27.601   2.776 -0.2933 -0.0262  0.0028
45750W        W88766  12.983  12.173   1.938  0.1562  0.0542  0.1300
45751W        W88767  28.756   8.280  16.546 -0.0399 -0.0812 -0.1521
45752W        W88768  11.802   7.363   6.444 -0.1681 -0.0042 -0.4512
45753W        W88769   2.282  24.994   3.690  0.0120 -0.0828  0.0368
45754W        W88770  12.157  13.004  24.190  0.1225 -0.0838 -0.0824
45755W        W88771  33.280  15.524  29.286  0.2002 -0.1166 -0.0126
45756W        W88772  13.099  31.941  20.575  0.1802  0.0583  0.2628
45757W        W88773  21.065   3.695  26.788  0.2697  0.0172  0.1833
45758W        W88774  18.239  33.238  21.323 -0.2200 -0.1265 -0.0352
45759W        W88775  30.916  30.840  24.248  0.1859 -0.1315  0.1298
45760W        W88776   0.281   4.794  29.165  0.1081 -0.0242 -0.1075
45761W        W88777   2.774  21.000  14.400  0.1865  0.1784  0.1443
45762W        W88778  28.143   0.599   9.237 -0.0776  0.1070 -0.1770
45763W        W88779  17.738  14.307  13.422 -0.0613  0.0230 -0.0614
45764W        W88780  26.515   0.439   2.543 -0.1227  0.1165  0.2334
45765W        W88781  25.019  13.052  20.118  0.0687  0.0162 -0.1211
45766W        W88782  23.593  26.743   2.466  0.1029  0.3185  0.0630
45767W        W88783   7.496   7.282  18.686 -0.0067  0.2216 -0.0460
45768W        W88784  33.552  33.208  19.919  0.0402 -0.0268  0.1463
45769W        W88785  11.056  31.123  20.183  0.1424  0.0433 -0.0898
45770W        W88786  23.608  21.842  16.803  0.0473 -0.1163  0.0324
45771W        W88787  22.466   0.697   8.929 -0.0374  0.1719 -0.0220
45772W        W88788  25.563   3.433  10.509  0.2697 -0.2122 -0.0094
45773W        W88789  33.149   3.782  21.724  0.1002 -0.1087  0.2152
45774W        W88790  32.548  25.421  16.340 -0.1538  0.1164  0.2918
45775W        W88791  27.822   5.466  20.918  0.1378  0.2493 -0.1324
45776W        W88792  33.100  11.066  14.630 -0.1180 -0.1117 -0.1682
45777W        W88793   6.062   8.144  16.284  0.4408 -0.1021  0.2553
45778W        W88794  30.767  14.390  19.683  0.3342  0.1142  0.0490
45779W        W88795  23.152  27.419  25.110 -0.2601 -0.1313 -0.1997
45780W        W88796  33.863  21.795  15.386  0.1300  0.0873  0.0555
45781W        W88797   3.745   2.345  14.734 -0.1984  0.2482 -0.0443
45782W        W88798  23.870  29.702  24.399  0.0233  0.0131  0.1091
45783W        W88799  33.091  27.799  26.940 -0.0314 -0.1504 -0.0458
45784W        W88800  25.474   3.611   6.321 -0.1915 -0.4974 -0.3694
45785W        W88801  26.740  33.071  21.092 -0.0270  0.3425 -0.2296
45786W        W88802   2.195   3.229  18.362 -0.1560 -0.0108  0.1510
45787W        W88803  33.800   3.786  16.715  0.1096 -0.0835  0.2322
45788W        W88804  27.467   1.194   3.044 -0.4513 -0.0359 -0.0579
45789W        W88805  32.430   2.346  22.094 -0.2112  0.1800  0.3120
45790W        W88806  18.883  32.134   7.715 -0.0155 -0.4262  0.1536
45791W        W88807  12.423  25.246  27.253 -0.2170 -0.0612 -0.1357
45792W        W88808  25.827  33.792  16.870 -0.1504  0.3371  0.1288
45793W        W88809   2.137   2.678   9.282  0.1644 -0.3396 -0.0293
45794W        W88810   6.660   4.197   1.326  0.0214 -0.0725 -0.0599
45795W        W88811  24.283   0.421  29.229 -0.2000  0.2431  0.1844
45796W        W88812  26.094  28.097  21.434  0.3882  0.6352 -0.0028
45797W        W88813   1.599  27.898   1.214  0.0326  0.2379  0.0296
45798W        W88814  14.489   6.269  21.359  0.0541 -0.0248  0.4401
45799W        W88815  19.352  26.725  24.367  0.0999 -0.1457  0.0347
45800W        W88816  31.061   3.504  15.369 -0.0396 -0.0971  0.1161
45801W        W88817  33.118   2.407   5.318  0.0939 -0.0529  0.1140
45802W        W88818   5.786   9.761  25.851 -0.1974  0.1069 -0.1883
45803W        W88819  22.544  17.381  23.761 -0.0883  0.1705 -0.1253
45804W        W88820  31.292   6.574  16.411 -0.0942  0.0719 -0.2279
45805W        W88821  21.087  24.529  27.881 -0.1033  0.1005 -0.0423
45806W        W88822   1.495  33.174  17.321 -0.2171  0.0549  0.1487
45807W        W88823  34.557  33.627   0.127  0.2813 -0.3137  0.2601
45808W        W88824   4.858   3.594  17.177  0.1787 -0.1796  0.0118
45809W        W88825  34.120  32.496  22.718 -0.0739  0.3348 -0.2759
45810W        W88826  31.990   6.424  27.885 -0.0582 -0.1778 -0.1789
45811W        W88827  29.566  33.968  16.181 -0.2254 -0.0780 -0.1359
45812W        W88828  29.990  11.977  24.429 -0.2321 -0.1460  0.1702
45813W        W88829  10.668  13.447  23.977  0.2997 -0.0028 -0.1669
45814W        W88830  30.639  26.118  23.765 -0.3434 -0.0824 -0.1053
45815W        W88831  15.801  22.624  18.885 -0.1236  0.2667  0.1064
45816W        W88832  27.493  30.689   5.806 -0.3957 -0.1770 -0.0703
45817W        W88833   8.327   6.241  20.317 -0.1890 -0.2628 -0.1641
45818W        W88834   3.138  10.852  21.578  0.2480  0.0074  0.2207
45819W        W88835  29.955  34.292  23.548  0.0417 -0.0901 -0.0315
45820W        W88836  34.720  30.076  28.164  0.1298  0.0949 -0.3080
45821W        W88837  34.535  11.244   8.062 -0.0094 -0.1379 -0.3982
45822W        W88838   2.866   1.379  14.855  0.0045 -0.0700 -0.3376
45823W        W88839  20.623   0.451  23.018  0.1661 -0.1046  0.0813
45824W        W88840  30.300  29.455  22.406 -0.0826  0.3601 -0.0443
45825W        W88841  16.327  28.555   6.376  0.2181 -0.0458  0.0790
45826W        W88842  29.051  25.436  21.507  0.3023  0.1732 -0.0351
45827W        W88843  17.360  31.509  25.991 -0.0746  0.1306  0.2299
45828W        W88844  32.540   1.690   0.534 -0.0269 -0.1467 -0.0629
45829W        W88845   0.356  30.758   6.164  0.1026 -0.1315  0.2061
45830W        W88846   4.272  25.838  21.648  0.0067 -0.1872  0.0645
45831W        W88847  25.103  33.641  11.239  0.2799 -0.0643 -0.1192
45832W        W88848  27.491  10.425   1.297  0.0123 -0.1831  0.0121
45833W        W88849  29.575   8.235   3.568  0.0854  0.1312  0.3936
45834W        W88850  31.445   6.204  27.477  0.0500 -0.1579  0.0498
45835W        W88851   5.987   5.339  25.253  0.2191  0.0308  0.2453
45836W        W88852   5.182   4.238  17.378 -0.3632 -0.0065 -0.2281
45837W        W88853  31.480   9.630   2.915 -0.3220  0.0249 -0.0690
45838W        W88854   1.015  19.838  26.111 -0.2343  0.0090  0.5937
45839W        W88855  11.149   5.708  16.883 -0.0364 -0.0836 -0.2671
45840W        W88856  17.161   3.819  23.046 -0.2017  0.4933  0.2203
45841W        W88857  14.087  17.479  11.229  0.0781  0.3791  0.2109
45842W        W88858  11.392  30.381  24.665  0.0141 -0.3437 -0.1322
45843W        W88859   7.063  34.101  15.245 -0.0589 -0.3220 -0.2696
45844W        W88860   3.492  30.875   8.022  0.2686 -0.0742 -0.0875
45845W        W88861  10.964  18.011  23.159 -0.0988 -0.4407  0.3047
45846W        W88862  32.358  33.677   0.885  0.2426  0.4126  0.1497
45847W        W88863  27.560   1.505  25.137 -0.3254 -0.0207  0.1401
45848W        W88864   0.354  32.219   9.886 -0.0765 -0.1541  0.0504
45849W        W88865  34.162  28.211  23.830 -0.5054 -0.3149 -0.1972
45850W        W88866  32.284   8.410  29.294 -0.1514 -0.2880 -0.0201
45851W        W88867  28.836   2.973  27.729 -0.1369 -0.3226  0.0876
45852W        W88868   6.486   4.568  16.362  0.0820 -0.0753  0.1492
45853W        W88869  20.388   5.313  14.123 -0.2528 -0.1651  0.3806
45854W        W88870   4.646   7.638  26.242 -0.1947 -0.1158  0.2895
45855W        W88871   1.299  32.587  28.269 -0.0357 -0.0659 -0.1610
45856W        W88872  10.303   4.990   2.548  0.0527  0.1023 -0.1819
45857W        W88873  30.026  33.363  18.493 -0.1061  0.1067 -0.2295
45858W        W88874  30.491  21.244  17.143  0.0937 -0.1678 -0.0186
45859W        W88875   9.521  11.525  26.483 -0.1140 -0.0420 -0.0523
45860W        W88876   7.602  25.048  19.984 -0.2124  0.3302 -0.0527
45861W        W88877  23.235  23.602  19.641 -0.1402  0.1926  0.3533
45862W        W88878  25.311   0.979  16.985 -0.0255 -0.0933  0.2621
45863W        W88879  11.328  30.329  13.758  0.1533  0.0360 -0.0055
45864W        W88880  29.130  31.551  16.488 -0.1653 -0.0927  0.0394
45865W        W88881   4.007  24.689  27.662 -0.3390 -0.4155 -0.2110
45866W        W88882  21.554   2.696   0.712  0.0130 -0.2539 -0.1360
45867W        W88883   2.608  17.692   8.303  0.4037 -0.1499 -0.1587
45868W        W88884  26.712   1.657   3.123 -0.0416 -0.1357 -0.0169
45869W        W88885  23.138  29.067  28.677 -0.4766 -0.1747 -0.2436
45870W        W88886   1.506  30.188  21.437  0.1330  0.0537  0.1867
45871W        W88887  28.848  33.968  20.095  0.0786  0.3187 -0.0243
45872W        W88888  23.991  24.111   9.317  0.0001 -0.1760  0.1779
45873W        W88889  11.960   4.329  28.457 -0.0185 -0.2435  0.0811
45874W        W88890  31.910  34.403  26.570  0.2882 -0.1040  0.2357
45875W        W88891  20.916  10.426  13.573 -0.1149 -0.0137 -0.0132
45876W        W88892   6.912  32.192  24.210 -0.2631  0.0851 -0.2151
45877W        W88893   3.252  15.229  20.082 -0.0674  0.2448 -0.1902
45878W        W88894  30.039   5.358  14.028 -0.2025 -0.0615 -0.1483
45879W        W88895  28.606  10.132   4.680  0.0552  0.0134  0.0627
45880W        W88896  25.296  18.615  18.520 -0.2991 -0.2308  0.1093
45881W        W88897  25.250   3.773  19.679 -0.1125 -0.1726  0.2321
45882W        W88898  24.246  23.360  21.294 -0.1814  0.0879  0.0806
45883W        W88899  31.431  27.365  18.739 -0.0407 -0.1390 -0.0315
45884W        W88900  28.637   3.172  21.000 -0.1055 -0.2256  0.3246
45885W        W88901  22.366  15.010   1.612  0.2452  0.0444 -0.1942
45886W        W88902  10.986  10.880  26.957 -0.1124 -0.0464  0.2085
45887W        W88903  29.199  32.378  11.005  0.0288  0.1323 -0.3216
45888W        W88904   1.576  31.712  25.386 -0.0032  0.1675 -0.3522
45889W        W88905  34.676  16.084   5.526  0.1144 -0.3671 -0.1727
45890W        W88906   0.323   7.413   2.465  0.0319 -0.2603 -0.2511
45891W        W88907  29.662  31.791  27.563  0.0101 -0.0117  0.0424
45892W        W88908   8.912   4.263   6.502 -0.0802  0.2633  0.2274
45893W        W88909  28.214   9.446   2.993 -0.0733  0.1287  0.0679
45894W        W88910   4.744   6.552  23.461 -0.0987  0.2755 -0.2018
45895W        W88911  26.331   1.222  11.072 -0.4581  0.4264 -0.0899
45896W        W88912  14.061  26.876  15.770 -0.0186  0.3931 -0.3777
45897W        W88913  31.509   7.090   9.324  0.3837  0.1328 -0.4980
45898W        W88914  17.230  28.346  23.450 -0.0634  0.0597 -0.1712
45899W        W88915   0.143   8.365   6.483 -0.0768  0.1877 -0.2042
45900W        W88916  32.153  31.906   0.041 -0.3013  0.1350 -0.0537
45901W        W88917  32.183   5.168  16.888 -0.0905 -0.0260 -0.0158
45902W        W88918  20.166   1.039   1.463  0.1372  0.0344 -0.0324
45903W        W88919  18.926  19.413  24.329 -0.0669  0.4225 -0.3339
45904W        W88920  31.150  34.674   8.687  0.2729 -0.0025  0.1222
45905W        W88921   3.308   4.163   2.500 -0.0812 -0.1345 -0.1123
45906W        W88922  21.579  32.686  22.517  0.0637  0.0618  0.2490
45907W        W88923  29.628  10.902   6.000 -0.3208 -0.4745  0.1549
45908W        W88924   3.722  31.316   1.926  0.2929 -0.2138 -0.0366
45909W        W88925   5.845  14.604  18.242  0.2775 -0.0556  0.4579
45910W        W88926  17.780   4.567   4.024  0.0744  0.0033 -0.1298
45911W        W88927  23.881   1.614  26.030 -0.2286  0.0906  0.0055
45912W        W88928   5.444  24.121  21.009 -0.1265 -0.0204 -0.0648
45913W        W88929  26.222  29.048   0.274 -0.3744  0.0799  0.5034
45914W        W88930   9.362   6.822   7.623 -0.0873  0.0171 -0.2635
45915W        W88931  22.279  19.872   7.143  0.1609 -0.2725 -0.0401
45916W        W88932  25.057  31.402   1.742 -0.0557  0.0326 -0.0123
45917W        W88933  15.476  28.023  27.299  0.2534  0.1617  0.3389
45918W        W88934  23.204  27.664  26.524  0.1425  0.2130 -0.4330
45919W        W88935  33.028   3.865  16.466 -0.0350  0.3988  0.0080
45920W        W88936   6.452  27.559  19.180 -0.3074 -0.0971 -0.0996
45921W        W88937  16.505  30.417   6.871 -0.0983 -0.1480  0.0847
45922W        W88938  27.874  30.154  20.133 -0.1634  0.1243 -0.0554
45923W        W88939   7.252  31.866  20.809 -0.0840 -0.0076  0.1704
45924W        W88940   6.433  24.018  14.191 -0.1105 -0.1719  0.2047
45925W        W88941  24.394  25.162  24.840  0.3520 -0.1210  0.2732
45926W        W88942  18.989   3.154   1.260  0.1470 -0.2734 -0.0448
45927W        W88943   8.301  26.677   3.000 -0.0971  0.1320  0.2414
45928W        W88944  33.416  27.819   5.553  0.1507 -0.0128 -0.0021
45929W        W88945  32.532   1.252  18.756  0.0911 -0.1352 -0.3086
45930W        W88946  30.293   5.654  23.493  0.1662  0.0428  0.0050
45931W        W88947  34.323   4.923   8.479 -0.1800 -0.1476  0.0836
45932W        W88948  22.795   6.621   8.014  0.1626  0.0036 -0.3528
45933W        W88949  28.146  13.785   1.119  0.2676 -0.3867  0.0083
45934W        W88950  15.051  24.429   4.232 -0.0337 -0.0320  0.1060
45935W        W88951  19.748  10.761  18.888  0.2618  0.0613 -0.0118
45936W        W88952  27.473   6.960   1.510 -0.0556  0.0789 -0.2460
45937W        W88953  32.850  28.688  26.708 -0.0483 -0.1699 -0.1536
45938W        W88954  14.643   0.670   4.689 -0.0669  0.0434 -0.1511
45939W        W88955  10.779   1.088  26.213 -0.1661 -0.3096  0.2756
45940W        W88956   4.959  13.773   2.406 -0.1376  0.0553  0.0547
45941W        W88957  30.697   1.214   1.559 -0.2656 -0.2328  0.1980
45942W        W88958   1.897  10.346  27.045 -0.1658 -0.2287  0.1691
45943W        W88959  27.790   3.761  22.520  0.4625 -0.1633  0.1086
45944W        W88960  30.650   1.591   8.544 -0.2040 -0.1968 -0.1189
45945W        W88961  30.194  25.820  19.806  0.1135  0.0129  0.0588
45946W        W88962   0.003   1.783   6.847 -0.1595 -0.1228 -0.1584
45947W        W88963  27.148  23.784  25.973  0.3166  0.0721  0.2173
45948W        W88964  20.655  29.978  27.509 -0.4813  0.1257 -0.0213
45949W        W88965  23.362  28.140   0.291  0.0312  0.1893  0.1165
45950W        W88966  33.163   2.073  19.061 -0.2076 -0.2652 -0.0163
45951W        W88967  19.964  13.904  19.423  0.1948 -0.0322  0.0783
45952W        W88968  31.623  32.911  23.444  0.0546  0.0560 -0.2747
45953W        W88969   3.339  34.568   7.152 -0.2014  0.0003 -0.0371
45954W        W88970  26.758  31.814   6.219 -0.5524 -0.1484  0.2974
45955W        W88971  31.233   4.869   7.637 -0.1045  0.1626 -0.2860
45956W        W88972  17.467  29.206  19.818  0.1548  0.2788 -0.1268
45957W        W88973   0.208  34.682   7.165  0.3443  0.0949  0.2606
45958W        W88974  27.292   7.510   3.083  0.0431 -0.0605 -0.1581
45959W        W88975   6.001   2.377  29.161  0.1663  0.3147 -0.1040
45960W        W88976   1.543  29.730  23.059  0.1961 -0.0953 -0.1495
45961W        W88977  32.280  25.577  29.006  0.1561 -0.0229  0.0772
45962W        W88978  25.890  14.838  21.213 -0.2317 -0.2829 -0.1483
45963W        W88979  16.534  23.625   4.306 -0.2614  0.2392  0.1059
45964W        W88980  24.779  14.518   1.200 -0.0922  0.3466  0.0933
45965W        W88981  34.340  27.301   0.072 -0.1248  0.3549 -0.1760
45966W        W88982  34.590   6.050   2.536  0.1539 -0.0215 -0.0549
45967W        W88983  12.126   0.042   7.087  0.1158 -0.0330  0.0701
45968W        W88984   2.037  10.339  15.776  0.0773 -0.1003 -0.1404
45969W        W88985  23.970   5.596  26.176 -0.0729  0.0298  0.4001
45970W        W88986  27.606  31.891   4.388 -0.2899  0.3747  0.1958
45971W        W88987  14.380  28.937  21.708 -0.3694  0.2370  0.0451
45972W        W88988  26.583  17.200  27.901  0.1642 -0.0642 -0.1348
45973W        W88989  28.344   2.579   2.500 -0.0910 -0.1127 -0.3932
45974W        W88990  29.990  25.905  21.771 -0.3703 -0.0345  0.1831
45975W        W88991  20.649   9.866  19.659  0.0330  0.2534  0.1764
45976W        W88992  32.364  23.949  17.546  0.1038  0.2621 -0.2455
45977W        W88993  29.553  29.645   2.372  0.1280  0.2884  0.1031
45978W        W88994  13.328  15.238   0.472  0.1520 -0.1319  0.1114
45979W        W88995  28.054  31.648   3.981  0.1527 -0.1717  0.0778
45980W        W88996   7.801  19.215  13.107 -0.4161 -0.1320 -0.1846
45981W        W88997  21.495  20.518   5.660 -0.0108  0.2756  0.1862
45982W        W88998  21.503  29.481   5.026  0.0999  0.0789  0.0292
45983W        W88999  32.983  23.942  15.972 -0.2384  0.0051  0.0598
45984W        W89000   8.482   3.511   8.550  0.2281  0.0510  0.0591
45985W        W89001  18.717   5.022  26.827 -0.0377  0.2464 -0.1149
45986W        W89002   7.988   6.940  20.600  0.2402  0.1142  0.2762
45987W        W89003   4.926  28.501   9.341 -0.0461  0.2112 -0.1116
45988W        W89004  32.119   9.714   1.624  0.0053 -0.1351  0.0656
45989W        W89005  32.052   8.832  16.279  0.3026  0.2339  0.0667
45990W        W89006  26.097  34.467   0.638 -0.1096  0.1445  0.0117
45991W        W89007  27.697   4.677  26.191 -0.1186  0.0765  0.1421
45992W        W89008   5.727  26.039   0.117 -0.2321  0.2561 -0.1463
45993W        W89009   7.606   1.861   4.563 -0.1446  0.1537  0.0792
45994W        W89010  18.772   2.428  25.289  0.1604  0.1889 -0.2958
45995W        W89011  27.619  31.782  26.640 -0.0336  0.3211 -0.1010
45996W        W89012  23.314   2.940  28.073 -0.0511 -0.0488 -0.2291
45997W        W89013  16.801  23.014  21.519  0.0090  0.0886  0.2489
45998W        W89014  34.040  12.598   4.651 -0.1548  0.3878  0.3517
45999W        W89015   0.841  22.818  26.876 -0.2346 -0.2131  0.0361
46000W        W89016  18.422   5.596  14.389 -0.1322  0.2273  0.0958
46001W        W89017  32.941   9.900  24.699 -0.0605 -0.4716  0.0420
46002W        W89018  22.999  31.337  10.855 -0.0505  0.0304  0.1665
46003W        W89019  32.278  16.696   9.865 -0.2009 -0.0825 -0.0020
46004W        W89020  11.796  14.340  16.418 -0.2412  0.4001  0.3562
46005W        W89021   3.824  25.583  15.496 -0.1734 -0.2629 -0.1013
46006W        W89022  19.627  33.059   4.503  0.0745 -0.0955 -0.1917
46007W        W89023   0.830  10.061  23.776 -0.0307 -0.1942 -0.2465
46008W        W89024  33.631  28.177   1.552  0.0228  0.2263  0.1040
46009W        W89025  28.454  19.833   8.327 -0.0716  0.1167 -0.1889
46010W        W89026   7.340   1.057  21.581  0.0743  0.3271 -0.1964
46011W        W89027   9.911   4.375  18.961  0.3186  0.1234  0.3234
46012W        W89028  32.498  13.271   8.769 -0.2705 -0.0277  0.3145
46013W        W89029  11.936   8.356  26.852  0.4315  0.6999  0.2802
46014W        W89030   6.003  31.530   9.211 -0.2754 -0.1156 -0.0649
46015W        W89031   7.567   8.040  18.007 -0.1155  0.0092 -0.1260
46016W        W89032  20.807   0.062   2.376  0.1875  0.2444 -0.1735
46017W        W89033  31.430  33.814  29.003  0.0238  0.0326  0.1861
46018W        W89034   3.376  27.649  21.437 -0.0375  0.1819 -0.0769
46019W        W89035  25.857  17.998  24.344 -0.1116  0.0876  0.0786
46020W        W89036  29.362   1.427  26.011 -0.2125  0.0542  0.1732
46021W        W89037   5.705  10.538  14.469  0.1005 -0.1619 -0.1253
46022W        W89038  13.102   6.488  28.131 -0.1119 -0.4129 -0.1576
46023W        W89039  19.926  32.545  28.603  0.2951 -0.1397  0.2251
46024W        W89040   6.576   9.620  21.825  0.0121 -0.2363 -0.0673
46025W        W89041  30.644  27.677  18.775 -0.0587  0.2723  0.0798
46026W        W89042  29.048  14.764   8.803  0.4093  0.2515 -0.3936
46027W        W89043  23.398  10.750  25.842  0.4027 -0.0983 -0.1125
46028W        W89044   9.044  11.181   2.133  0.3110  0.0587  0.1816
46029W        W89045  13.436   6.074   4.012  0.1731  0.0946  0.1284
46030W        W89046  29.217   3.957  23.295 -0.0222  0.0286  0.1913
46031W        W89047  16.022  27.375   6.672 -0.0520  0.2371 -0.1608
46032W        W89048   7.799  28.503  21.554  0.1946  0.3617  0.1131
46033W        W89049  29.276  27.398  25.758  0.2989 -0.0238  0.1429
46034W        W89050  32.603  12.503   0.775 -0.1995  0.2119 -0.0967
46035W        W89051  33.707  14.562  16.632 -0.0184 -0.0157 -0.1164
46036W        W89052  10.029  25.957  22.357  0.0080 -0.1023 -0.0584
46037W        W89053  21.011  33.560  17.303 -0.1224 -0.3662 -0.0005
46038W        W89054  29.004  21.538   4.441  0.1560  0.0105  0.0629
46039W        W89055  23.210   5.110  20.830  0.0974  0.1892  0.0187
46040W        W89056  19.158  13.442  21.842  0.4143  0.0443 -0.2241
46041W        W89057  26.284  18.211  28.652  0.0909 -0.0401  0.2348
46042W        W89058   1.548  34.220  18.662 -0.0562  0.1434 -0.2798
46043W        W89059  12.888  18.619  27.911  0.1220  0.1306  0.4275
46044W        W89060  22.656  19.504  26.828  0.1538  0.0766 -0.0631
46045W        W89061  34.527  22.014  23.943  0.2461  0.0293  0.0765
46046W        W89062  32.864  26.674  29.099 -0.2207  0.5321 -0.0059
46047W        W89063  32.820  16.071  19.841  0.2854  0.0450 -0.1715
46048W        W89064   7.666  28.627   0.348  0.0509 -0.1021 -0.3986
46049W        W89065  17.067  29.648  10.676 -0.0495 -0.0456 -0.1572
46050W        W89066   1.597  14.268   4.841  0.1826  0.5497 -0.1829
46051W        W89067  21.638   3.817  21.460 -0.0042 -0.2851 -0.1017
46052W        W89068   6.109  15.148   1.098 -0.4705 -0.4406 -0.0634
46053W        W89069   4.712  22.697  23.497 -0.0538  0.2002  0.2400
46054W        W89070  11.112  16.889   6.330 -0.0736 -0.0710 -0.1324
46055W        W89071   6.739  21.972  25.827 -0.1602 -0.0971  0.2609
46056W        W89072   0.313  12.416  27.899 -0.0063  0.4207 -0.1084
46057W        W89073  21.834  26.396  28.331  0.0154 -0.0282 -0.1239
46058W        W89074  13.482   4.282   4.880 -0.3563  0.1665 -0.1830
46059W        W89075  32.256   6.450   4.238 -0.2542  0.0190 -0.0486
46060W        W89076   1.376  18.374   5.845  0.2198 -0.1751  0.1688
46061W        W89077  32.168  20.969  24.667  0.1385  0.1404 -0.1444
46062W        W89078  18.411  28.551   3.879 -0.1080  0.0245 -0.2525
46063W        W89079   0.323   9.948  10.193 -0.3048  0.0780  0.1346
46064W        W89080  28.995  30.095   1.665 -0.0566 -0.0467  0.1662
46065W        W89081   6.512   8.481  20.342 -0.1718  0.1538 -0.0280
46066W        W89082   9.333   2.445  22.108 -0.2839  0.0862 -0.0393
46067W        W89083  27.946   0.955  28.683 -0.1463  0.0448 -0.0720
46068W        W89084   4.883  23.968   8.857 -0.2095  0.0565  0.0475
46069W        W89085   0.918  21.093  21.136 -0.0618 -0.0418  0.1747
46070W        W89086  27.540  16.670  15.804  0.1468  0.2741 -0.1809
46071W        W89087  31.891   1.227  10.328 -0.2002  0.1442 -0.1807
46072W        W89088  28.461  34.340   0.393 -0.2318 -0.2462  0.3563
46073W        W89089   1.358   2.210  16.175 -0.2269  0.1771  0.1650
46074W        W89090  26.652  27.137  25.129 -0.2327 -0.0273 -0.1683
46075W        W89091  27.460  30.455   6.334 -0.0428 -0.1803 -0.3237
46076W        W89092  21.509  27.121   9.687 -0.1189  0.0197 -0.1039
46077W        W89093  31.729  11.955   8.255 -0.1551 -0.0094  0.1836
46078W        W89094  30.626   5.936   7.576 -0.0226  0.3338 -0.0588
46079W        W89095  18.529   1.542   1.587  0.0204  0.0241  0.1314
46080W        W89096  32.264  26.281  24.206  0.1792 -0.0381 -0.3330
46081W        W89097  11.697  16.009   8.233 -0.0270 -0.1031 -0.0535
46082W        W89098  26.928  14.143  25.103 -0.0259 -0.1057  0.0161
46083W        W89099  22.626  27.193  25.759 -0.2088  0.1949 -0.1566
46084W        W89100  11.659   9.860  21.147 -0.0383 -0.3152 -0.0716
46085W        W89101  27.455  34.186  26.244 -0.0484  0.3842  0.0653
46086W        W89102  34.400  14.366  18.973  0.0748 -0.0011  0.1241
46087W        W89103  17.994  18.607  15.863 -0.0073  0.0637  0.1850
46088W        W89104  26.487  21.282   1.605 -0.1073  0.1927 -0.1666
46089W        W89105  19.745  30.139   3.161  0.0307  0.1327  0.0491
46090W        W89106  20.136  31.993  29.044  0.1625 -0.0612  0.0592
46091W        W89107  29.171  26.421  23.082  0.1996  0.0560 -0.1076
46092W        W89108  32.813   9.514  27.081  0.1324 -0.2134  0.1304
46093W        W89109  33.790   6.456   6.909  0.1926  0.2268 -0.0952
46094W        W89110  31.929   8.916   0.060 -0.3167 -0.2490  0.1428
46095W        W89111  28.268  27.977   5.610 -0.2113  0.3977 -0.4011
46096W        W89112  19.195  28.393  16.205  0.0762  0.2930  0.0872
46097W        W89113  24.070  18.727  16.138  0.1457  0.3460  0.1970
46098W        W89114   1.676  17.302   2.351 -0.0420  0.1947  0.0946
46099W        W89115  29.584  27.654  20.318  0.0339 -0.1103 -0.0932
46100W        W89116   0.064   3.157   8.136  0.3724 -0.1711 -0.0897
46101W        W89117  21.969  29.128   3.654  0.1817  0.2705  0.6867
46102W        W89118  17.955  23.074  16.723  0.0918 -0.0548 -0.2476
46103W        W89119  31.634  23.065   7.780  0.2041  0.4224 -0.2154
46104W        W89120  23.661  28.165   7.643  0.1099 -0.3085 -0.0299
46105W        W89121  21.761  25.709   7.269 -0.0650  0.3359  0.3730
46106W        W89122   1.656   1.021  19.574  0.0580 -0.1030  0.0538
46107W        W89123  22.992  22.917  14.371  0.1700  0.1710  0.2006
46108W        W89124   4.259   2.629   9.825  0.3467 -0.0156 -0.0529
46109W        W89125   4.333   1.760  27.175  0.4393 -0.1450  0.1291
46110W        W89126  30.728  25.598   0.934  0.1007 -0.1643 -0.0260
46111W        W89127  25.113  33.277  29.305 -0.0070  0.1172  0.2035
46112W        W89128   8.987   0.270  26.303  0.1376  0.0056 -0.1748
46113W        W89129  10.340  20.756   2.727 -0.0085 -0.1176  0.0110
46114W        W89130  21.839  28.186   6.867  0.2105 -0.1058  0.0188
46115W        W89131  17.836  21.396  25.170  0.1872 -0.0924 -0.1761
46116W        W89132   8.840  29.801   9.381 -0.2671  0.0437 -0.1203
46117W        W89133  31.526  23.381  18.546  0.1317 -0.0883 -0.0894
46118W        W89134   3.339  18.329   8.170 -0.0399  0.2845 -0.0086
46119W        W89135  19.953   7.593  25.395  0.0457 -0.0812 -0.4170
46120W        W89136  28.450  17.811   5.966  0.0867  0.1973  0.1072
46121W        W89137   0.273  33.013  18.618  0.0642 -0.3100  0.2875
46122W        W89138  10.479  17.053   6.273  0.2462 -0.0304  0.0781
46123W        W89139   0.298   5.190  17.452 -0.0046 -0.0088 -0.2526
46124W        W89140  27.713  32.061   0.034  0.0806  0.0359  0.1223
46125W        W89141  30.110  10.074  21.986  0.0850  0.0154  0.4581
46126W        W89142  21.676  15.368   7.815 -0.2781 -0.0621  0.0199
46127W        W89143   4.078  32.820   3.268  0.2209 -0.1148  0.0115
46128W        W89144   0.061  12.749  28.680  0.1811 -0.1402  0.0484
46129W        W89145  29.120  31.631  11.877 -0.1298 -0.0483 -0.1626
46130W        W89146  32.784  23.922   5.008 -0.1658 -0.1152  0.2185
46131W        W89147  28.459   6.750   9.713 -0.4309 -0.2956 -0.0638
46132W        W89148  26.668  26.121  20.967  0.1167  0.1684  0.2289
46133W        W89149  21.581   6.647  27.215  0.0726  0.0339  0.0903
46134W        W89150  33.468   2.314   9.854  0.0846 -0.1797  0.1904
46135W        W89151  21.471  32.437  16.756  0.1716 -0.2320  0.0491
46136W        W89152  29.611   9.726  17.301  0.0018  0.2436 -0.0725
46137W        W89153   0.784  33.657  18.371 -0.1667 -0.1553 -0.2274
46138W        W89154  28.646   3.227  16.989  0.0034  0.0600  0.2032
46139W        W89155  20.744   7.423  17.982  0.0471  0.3286  0.0663
46140W        W89156  27.019   6.664  16.355  0.0202 -0.3259 -0.0169
46141W        W89157  26.978   0.774  16.629 -0.1686  0.0062 -0.0326
46142W        W89158  29.691   4.251  20.884 -0.2115 -0.1646  0.0539
46143W        W89159  26.116   5.733  20.696  0.0150  0.0010 -0.0127
46144W        W89160  31.524   5.257   3.884 -0.0506  0.2364 -0.1144
46145W        W89161  11.706  29.904  17.016  0.0460 -0.1466  0.0095
46146W        W89162  32.051  32.399  15.297  0.2653 -0.0211  0.1902
46147W        W89163   7.224   0.979  18.172 -0.1387  0.0679 -0.0729
46148W        W89164   2.971  13.679  20.174 -0.3287  0.1156 -0.0224
46149W        W89165  12.353   9.307  25.237 -0.1253  0.2049 -0.3340
46150W        W89166   3.698  13.754  20.457 -0.2049  0.2016 -0.1007
46151W        W89167  32.699   7.959   1.743 -0.0143 -0.1818  0.3632
46152W        W89168   8.987  24.194  26.136  0.1604 -0.0515 -0.1149
46153W        W89169   2.986   4.987  16.462 -0.0133  0.0730 -0.1795
46154W        W89170   0.938   2.856  16.516  0.0528  0.0505  0.0261
46155W        W89171   5.405  20.657  23.047 -0.1217 -0.2910  0.2620
46156W        W89172  12.224  29.273  19.600 -0.0517 -0.0133 -0.1978
46157W        W89173  33.741   3.608  16.074  0.2307 -0.0666 -0.0760
46158W        W89174   2.482   2.837  15.399 -0.0260  0.2748  0.1718
46159W        W89175  32.341   3.824  18.555 -0.2716 -0.1202 -0.2035
46160W        W89176  11.241  30.251  20.328  0.0641 -0.1976 -0.0905
46161W        W89177  29.473  22.781  19.393  0.2646  0.0776  0.2920
46162W        W89178  27.378   4.002  23.831 -0.0250 -0.4458  0.0344
46163W        W89179  31.650  20.864  18.346  0.0337  0.1123 -0.0937
46164W        W89180  14.322   2.281  17.611 -0.3520 -0.0406 -0.2222
46165W        W89181  28.133  31.735  26.525 -0.2734  0.2308 -0.3271
46166W        W89182   0.352   7.397  19.944 -0.0746  0.3083  0.3354
46167W        W89183   2.561  27.735  16.247  0.0082  0.1835 -0.0203
46168W        W89184  32.840  10.468  17.861 -0.1015 -0.2600 -0.0164
46169W        W89185  33.207  12.238  16.863  0.2958  0.0933 -0.0218
46170W        W89186  30.380  31.287  19.444 -0.1932  0.0110 -0.1380
46171W        W89187   1.086   2.722   9.209 -0.2226  0.1672 -0.0923
46172W        W89188  30.465  30.708  15.539 -0.1457 -0.1344  0.2343
46173W        W89189  29.826   5.552  18.231  0.4373  0.0027  0.2969
46174W        W89190  32.887  21.208  22.536 -0.4668 -0.4144  0.0383
46175W        W89191  32.207  26.489  15.451  0.1311 -0.0120  0.1070
46176W        W89192  28.952   2.997  15.388  0.0980  0.2140  0.1025
46177W        W89193   2.788  26.189  22.049 -0.1979  0.1992  0.0663
46178W        W89194   7.999  22.469  21.131 -0.2307  0.0091  0.1595
46179W        W89195   7.140  32.352  22.020  0.1218 -0.2425 -0.1288
46180W        W89196   2.012   1.014  27.449  0.2642  0.1081 -0.1499
46181W        W89197   2.659  14.033  26.391  0.0813  0.1780 -0.2743
46182W        W89198  27.271  30.540  18.729  0.3882  0.1083  0.1618
46183W        W89199  30.448  29.814  28.815 -0.0466 -0.0567  0.0749
46184W        W89200   0.281  34.004  16.026  0.3025 -0.1094 -0.0434
46185W        W89201  28.808   6.019  17.491  0.0138 -0.0929  0.1529
46186W        W89202   2.142  28.360  27.001 -0.3023  0.2151 -0.0881
46187W        W89203  25.640  17.540  14.064  0.0847 -0.2328  0.0455
46188W        W89204  11.568  29.726  15.999 -0.0392  0.1385  0.0685
46189W        W89205   4.087   4.094  15.985 -0.1639  0.2027  0.1792
46190W        W89206  34.008  32.717  28.030  0.1092  0.2189  0.0767
46191W        W89207   2.943  10.729  14.970 -0.0513 -0.2840 -0.0371
46192W        W89208  34.235  33.156  17.608 -0.0771 -0.1180  0.1734
46193W        W89209  25.861  25.181  18.218  0.1604  0.1282  0.0869
46194W        W89210  16.429  34.072  21.334  0.0433 -0.2002 -0.0797
46195W        W89211   6.888   1.862   0.906  0.0874  0.2266  0.0341
46196W        W89212  27.374   6.018  16.416  0.2275 -0.1384 -0.0361
46197W        W89213   1.586  33.659   1.611  0.1813 -0.0784  0.1667
46198W        W89214   0.930   3.968  27.124  0.2014 -0.0118  0.0679
46199W        W89215   1.357   2.957  18.590  0.0973 -0.1621 -0.1986
46200W        W89216  32.388  13.122  27.475  0.1803  0.6457  0.1095
46201W        W89217  27.886  33.727  22.266  0.1714  0.0997 -0.0590
46202W        W89218  25.055  34.285  18.576 -0.2940  0.2985  0.5311
46203W        W89219   3.338  32.352  22.561  0.2473  0.1041  0.1622
46204W        W89220  28.819   2.091  22.382  0.0088 -0.1188 -0.2575
46205W        W89221  20.465  19.960  26.998 -0.1238 -0.0673  0.3553
46206W        W89222  30.037  31.715  21.497  0.0158 -0.1390 -0.0139
46207W        W89223  20.848   8.700  26.335 -0.1194 -0.4236  0.2437
46208W        W89224  10.712   1.138  25.577  0.0635  0.0765  0.0951
46209W        W89225   1.805  17.925  19.132  0.0837  0.0727  0.0058
46210W        W89226  25.575  22.139  29.266  0.1921 -0.0456 -0.0782
46211W        W89227  22.117  29.745  27.915  0.1832  0.1200 -0.2623
46212W        W89228  31.575   9.916  28.109 -0.1472 -0.0392  0.1540
46213W        W89229  33.212  24.841  27.943  0.0235  0.1826 -0.1376
46214W        W89230  28.211   9.705  17.180  0.0859  0.0099 -0.1544
46215W        W89231  30.973   1.658  26.720 -0.1118 -0.0506 -0.0980
46216W        W89232  24.128   4.178  26.407 -0.0762  0.0079  0.3394
46217W        W89233   8.592   7.751  24.290 -0.2302 -0.3362 -0.3813
46218W        W89234  26.385  10.437  25.465 -0.2542  0.0107  0.1718
46219W        W89235   1.660   2.873  19.001 -0.1512  0.3697  0.1683
46220W        W89236  31.844   5.384  16.496  0.2588 -0.1789 -0.2291
46221W        W89237   5.416   7.891   2.211  0.0477  0.0546  0.2959
46222W        W89238  22.718   7.888   0.822  0.2724 -0.0459 -0.0518
46223W        W89239  27.513   2.335  24.466  0.2126  0.0062  0.0075
46224W        W89240   2.742  23.805  16.374  0.4139 -0.2226  0.2030
46225W        W89241   6.093   5.171  14.607  0.0184 -0.2970  0.0317
46226W        W89242  28.247   4.165  18.198 -0.1249  0.2518  0.2297
46227W        W89243  22.695  23.265   3.989  0.1576 -0.2320  0.1378
46228W        W89244  31.868  30.622  24.813  0.1881  0.1190 -0.1830
46229W        W89245  20.184  25.368  18.474  0.0798 -0.1763  0.1198
46230W        W89246  27.511  30.940  18.095 -0.0628 -0.1725  0.2136
46231W        W89247  27.785  19.496  24.253 -0.2157 -0.0422  0.0737
46232W        W89248  20.348  23.657  26.178 -0.0248 -0.0135 -0.1208
46233W        W89249   1.506  12.053  18.133  0.1483 -0.0266 -0.0404
46234W        W89250  29.882  24.086  17.314  0.3589 -0.1501 -0.1746
46235W        W89251  24.791  30.521  26.216 -0.0016 -0.0075 -0.1475
46236W        W89252  34.281  30.767  14.981 -0.0175  0.0487  0.2562
46237W        W89253  24.267   8.955   1.133 -0.0221  0.0279  0.2110
46238W        W89254   1.602  10.911  21.858  0.2793  0.4017 -0.1675
46239W        W89255  29.636  30.176  25.094 -0.2094 -0.0796 -0.2056
46240W        W89256   7.434  18.147  18.772  0.1008 -0.1531 -0.1414
46241W        W89257  24.977  22.860  17.265  0.1651  0.1935 -0.1402
46242W        W89258   0.235   6.771  16.727 -0.2001 -0.1151  0.0869
46243W        W89259   3.806  16.879  20.004  0.0303  0.4635  0.0957
46244W        W89260  28.020   8.126   2.183  0.0966  0.0905 -0.3467
46245W        W89261  24.487  26.405  25.563 -0.1932 -0.1330  0.1470
46246W        W89262   1.955   5.117  17.948  0.2617 -0.0282  0.1106
46247W        W89263  26.236  14.488  20.836 -0.0093  0.2104  0.0041
46248W        W89264  32.849  12.379  26.468 -0.2316 -0.0886  0.0284
46249W        W89265   8.907  21.068  17.506  0.3441 -0.2630 -0.0796
46250W        W89266   2.069  11.773  24.663  0.0955  0.0130 -0.1161
46251W        W89267  13.007   0.527  22.237  0.1286 -0.3459  0.0691
46252W        W89268  34.338  27.517  25.117 -0.3147  0.1269 -0.2246
46253W        W89269  28.396  29.961  16.350 -0.0208  0.5738 -0.0282
46254W        W89270   1.208  11.449  16.133  0.2499  0.2930 -0.1621
46255W        W89271   9.321  24.772  23.701  0.0056  0.2311 -0.1262
46256W        W89272   3.168  16.367  19.372  0.1785  0.0442  0.1542
46257W        W89273  19.614  23.282   4.851 -0.1733 -0.0300 -0.3735
46258W        W89274  15.344   8.014  13.006 -0.0256 -0.1070 -0.2323
46259W        W89275   8.925   6.347  18.993 -0.1443 -0.2279  0.0565
46260W        W89276  25.444   2.120   1.890  0.0759  0.1099 -0.2006
46261W        W89277  28.365  21.080  22.478  0.3854 -0.0106 -0.3280
46262W        W89278  20.482  13.459  22.841  0.2564  0.1187  0.2182
46263W        W89279  31.680   4.613  25.952 -0.0012 -0.2067  0.0636
46264W        W89280   7.280   0.042  16.560 -0.0963 -0.0550 -0.1564
46265W        W89281  28.074  32.412  26.404 -0.0297  0.1256  0.1130
46266W        W89282  13.833  11.099  22.475  0.0637  0.2328  0.2816
46267W        W89283   6.869   9.211  16.045 -0.1370 -0.2543 -0.1600
46268W        W89284   4.689  24.802   7.617 -0.2914  0.3512  0.0919
46269W        W89285  31.672  30.150  18.999  0.4015  0.0687 -0.0332
46270W        W89286  32.691  30.070  26.597  0.0670  0.1466 -0.0258
46271W        W89287  19.321  30.593  16.230 -0.0648  0.0398 -0.0485
46272W        W89288   8.106   5.470  16.320 -0.2985 -0.2200  0.3924
46273W        W89289  20.457   1.783  19.857  0.1344  0.0152 -0.0297
46274W        W89290   5.047  31.290  15.475  0.0197  0.0131  0.1420
46275W        W89291  33.955  34.668  16.224  0.2052 -0.1265 -0.1865
46276W        W89292  26.875   7.905   7.813 -0.4385  0.0140 -0.1632
46277W        W89293  24.766  29.013  16.757  0.0009  0.3781  0.1029
46278W        W89294  12.656  23.227   4.849  0.3712  0.1054  0.0845
46279W        W89295  32.916  16.512  19.480 -0.3927  0.0253  0.0819
46280W        W89296  18.823  28.754  19.522  0.1391  0.0152 -0.0464
46281W        W89297  20.117   7.999  27.630  0.0525 -0.0910 -0.1514
46282W        W89298  14.792   5.701  22.340  0.1744 -0.2481  0.2799
46283W        W89299   9.625   8.530  15.087  0.2127  0.3234 -0.1284
46284W        W89300   4.465   8.430  24.952 -0.1309 -0.1203 -0.1088
46285W        W89301  25.823   2.348  26.101  0.1316  0.2796  0.2667
46286W        W89302  19.377   5.503  19.516  0.0975 -0.1889 -0.0117
46287W        W89303   4.215  34.736  20.561 -0.2459 -0.0303 -0.1910
46288W        W89304  17.436   4.244  15.138  0.1144 -0.2742 -0.1334
46289W        W89305   6.831  12.073  21.158  0.1973  0.0110  0.0710
46290W        W89306  26.888  20.089  14.208 -0.0212  0.2201  0.0660
46291W        W89307   9.759  28.137  15.068  0.1717 -0.2583 -0.0136
46292W        W89308  13.785  33.380  18.707  0.0289  0.2030  0.0869
46293W        W89309   1.116  29.813  22.110  0.4386  0.2281  0.2341
46294W        W89310   9.374   5.087  14.603  0.0177  0.0533 -0.2660
46295W        W89311   2.900  10.467  22.929  0.0681  0.0931  0.0406
46296W        W89312  13.073  22.179  15.629 -0.1338 -0.1428 -0.0917
46297W        W89313   9.491   7.061  20.797 -0.0497  0.1872 -0.0424
46298W        W89314  31.187  10.008  28.955  0.0046 -0.0213  0.0549
46299W        W89315  21.087   3.134  25.713 -0.0621  0.0056 -0.1543
46300W        W89316  13.585   2.524  16.988  0.4318  0.4054 -0.0158
46301W        W89317   6.255  12.935   0.066  0.0036 -0.1575 -0.1623
46302W        W89318  34.476   4.911  21.499 -0.4211  0.0822  0.0240
46303W        W89319  30.447   5.588  28.869 -0.0557 -0.1278 -0.3759
46304W        W89320   3.427  24.028  26.686  0.1910 -0.0949  0.1506
46305W        W89321   5.277   2.468  21.598 -0.0547  0.1354 -0.1324
46306W        W89322   5.819  32.316  19.597 -0.0212  0.0056 -0.0643
46307W        W89323   0.015   1.843  15.039  0.2578  0.0219 -0.1156
46308W        W89324  30.428   6.253  16.238 -0.2313 -0.2811  0.2054
46309W        W89325   5.499   0.270  20.493 -0.1720  0.1620  0.0845
46310W        W89326   4.581  17.124  13.492 -0.0917 -0.0219 -0.0500
46311W        W89327  14.663  34.615  20.835 -0.0039 -0.2544  0.1313
46312W        W89328   3.386  34.577  16.662 -0.1309 -0.3754 -0.0338
46313W        W89329   1.740  11.220  18.796  0.0794 -0.0364  0.1439
46314W        W89330  24.547   3.404  28.289  0.1370  0.1421  0.0824
46315W        W89331  25.472  24.991  22.657 -0.4237  0.1877  0.1365
46316W        W89332   6.461   4.994  16.521 -0.0130  0.0452  0.2081
46317W        W89333   1.196  33.479  18.661 -0.1221 -0.1583 -0.0761
46318W        W89334   6.572   2.468  14.452 -0.1980 -0.1478  0.1331
46319W        W89335  27.786  18.351  23.197  0.0208  0.0531  0.3556
46320W        W89336  22.872   1.754  27.656  0.0049 -0.0663 -0.0781
46321W        W89337  29.780  28.957  27.227  0.2455 -0.1753 -0.0620
46322W        W89338  24.274   8.965  14.045 -0.1318  0.0917 -0.3199
46323W        W89339  32.942   5.021  15.215  0.0869 -0.1506  0.0476
46324W        W89340  32.772   6.637  24.224  0.1752  0.0732 -0.3416
46325W        W89341  33.744   6.251  19.608  0.0390 -0.2584  0.1150
46326W        W89342  27.462   4.658  14.812 -0.3626 -0.2740  0.2290
46327W        W89343   4.504  13.693  16.468 -0.2281  0.1407  0.5046
46328W        W89344  26.127  25.769  27.415  0.2209  0.1910 -0.1351
46329W        W89345  13.170  32.148  18.478 -0.2501  0.2606  0.1157
46330W        W89346  26.525  28.262   4.170  0.3815 -0.1088  0.0792
46331W        W89347  33.826  16.626   3.136 -0.0486 -0.0959 -0.0363
46332W        W89348  23.224   5.641  16.522 -0.1150  0.1930  0.1322
46333W        W89349   6.139   9.870  25.504  0.0501  0.0216 -0.0828
46334W        W89350  11.982   3.724  15.109  0.0491 -0.1022 -0.3757
46335W        W89351  19.956  27.977  27.561  0.3099 -0.0763  0.2590
46336W        W89352  22.544  17.273   4.738  0.2045 -0.0744  0.2249
46337W        W89353   4.209  17.804  17.536  0.0839  0.0647 -0.6504
46338W        W89354   5.268   3.355  16.873  0.0143 -0.2210 -0.2334
46339W        W89355  28.811  32.450  25.520 -0.1833 -0.0715 -0.0418
46340W        W89356   5.135  33.157  23.497  0.1921  0.1262  0.0348
46341W        W89357   9.269  29.327  14.339 -0.0055 -0.0633 -0.1768
46342W        W89358  19.404   6.693  21.239 -0.2112  0.3175 -0.0711
46343W        W89359  14.142   4.438  22.056 -0.1321  0.0881 -0.0979
46344W        W89360   0.589  26.089  17.830  0.1070  0.1580 -0.0962
46345W        W89361   9.681  30.706  19.937 -0.0242 -0.0928  0.1587
46346W        W89362   1.336   5.210  27.714 -0.0706  0.0952  0.0685
46347W        W89363  30.032  12.359  25.475  0.1733  0.0993  0.1059
46348W        W89364  14.533  31.969  28.284  0.0261 -0.1604  0.2654
46349W        W89365  10.725   4.642  26.388 -0.2053 -0.1461  0.1240
46350W        W89366  24.444  34.247  28.993 -0.0167 -0.2024  0.2804
46351W        W89367  32.783  32.445  20.879  0.0693  0.0032  0.1668
46352W        W89368  11.642   2.136  16.979 -0.4577  0.1376  0.1580
46353W        W89369   1.415  10.408  21.894 -0.1249  0.0334  0.0102
46354W        W89370  13.171  30.422   3.249  0.1808 -0.2898  0.2019
46355W        W89371  33.500  23.552  18.481  0.1967  0.3677  0.1549
46356W        W89372   2.177  15.827  20.251 -0.3117  0.3822 -0.1112
46357W        W89373  31.543  33.512   5.287  0.0601  0.1604 -0.2844
46358W        W89374   0.801  28.517  23.960  0.3148 -0.2215  0.0978
46359W        W89375  11.439   1.898  15.442 -0.0159  0.0244  0.3277
46360W        W89376  15.124  20.572  22.142 -0.0688  0.0671 -0.0685
46361W        W89377   5.377   5.142  16.520  0.1405 -0.0199 -0.2703
46362W        W89378  32.131   8.680  21.052 -0.0957  0.0343  0.0366
46363W        W89379  26.538  32.515  24.589  0.0156 -0.0834 -0.2172
46364W        W89380  30.971  33.559  17.461 -0.0783 -0.0469 -0.1054
46365W        W89381  28.821   7.128  18.513 -0.0371  0.2564 -0.2040
46366W        W89382  14.976  27.970  18.811 -0.0522  0.0934  0.1645
46367W        W89383  25.491   5.295   4.481  0.0874  0.0809 -0.0707
46368W        W89384  15.564  14.934  14.635 -0.3581  0.0270  0.1763
46369W        W89385  22.077  13.360  15.955  0.0651 -0.2590  0.2876
46370W        W89386   9.421   4.982  26.572  0.1194  0.1163 -0.0897
46371W        W89387  14.299   8.857  16.427  0.3622 -0.3296 -0.2535
46372W        W89388  24.620  24.282  18.581  0.1893 -0.0029  0.0881
46373W        W89389  21.206  27.386  14.995 -0.2588  0.3740 -0.0475
46374W        W89390  28.247  12.282  15.225 -0.0946 -0.3886  0.2425
46375W        W89391  25.247  16.688   0.110  0.3942  0.0983  0.1397
46376W        W89392  17.486  29.420  16.980  0.1301 -0.1273  0.0762
46377W        W89393   3.887   3.860  24.828 -0.2668 -0.2340 -0.0085
46378W        W89394  31.299  31.515  20.997  0.3502  0.0540 -0.1968
46379W        W89395  10.651  17.911  13.597 -0.0655 -0.0746  0.0189
46380W        W89396  27.704  10.740  19.441  0.2901  0.1173  0.1412
46381W        W89397   7.288  34.213  21.320  0.0757 -0.0391 -0.2071
46382W        W89398  20.561   6.070  22.037 -0.2561  0.1802  0.0628
46383W        W89399   8.803  20.926   0.573  0.2103  0.0505  0.0266
46384W        W89400  18.907  32.342  21.223  0.1911  0.0556 -0.0353
46385W        W89401  17.591  31.297   2.548 -0.0481  0.3936  0.3641
46386W        W89402  19.032   9.848  22.424 -0.3483  0.3891  0.1236
46387W        W89403  22.333   8.577  20.681  0.0098  0.1494 -0.1142
46388W        W89404  13.257   0.582  27.939 -0.1527  0.0033  0.0585
46389W        W89405   8.977   2.775  26.872 -0.3549 -0.2943  0.1618
46390W        W89406  32.978  25.688  16.405  0.0330  0.0273 -0.0235
46391W        W89407  27.613   4.599  17.080  0.1015 -0.1171  0.3899
46392W        W89408   4.802  22.871   5.536 -0.3314  0.0991  0.1130
46393W        W89409  31.960   2.294   1.508  0.3136  0.3216  0.1876
46394W        W89410  33.340   3.164  14.159  0.0041 -0.4116  0.0439
46395W        W89411  32.211  34.337  16.983  0.1561 -0.3424  0.0550
46396W        W89412  27.601   2.800  28.350  0.2264  0.2702 -0.2421
46397W        W89413  33.747  15.036  26.663 -0.2634 -0.0630  0.0643
46398W        W89414  26.408  29.614  28.438  0.1447  0.4140  0.1195
46399W        W89415  21.785  19.681  12.844 -0.1317 -0.2102  0.0681
46400W        W89416  27.690   5.125   0.619 -0.0719 -0.0064  0.0175
46401W        W89417  31.963  24.962   1.156  0.0212 -0.1754  0.0680
46402W        W89418   1.820  30.408  20.554  0.2346 -0.1360  0.3002
46403W        W89419  13.338   7.301  23.355 -0.1128 -0.0298  0.0098
46404W        W89420  33.765  25.030  23.837  0.2469  0.0084  0.0733
46405W        W89421  25.316  26.429  19.616 -0.1533 -0.0857 -0.0633
46406W        W89422   6.701  20.334  20.245  0.1242 -0.0006 -0.1078
46407W        W89423   5.795  26.855  24.593  0.0400 -0.1544 -0.0134
46408W        W89424  31.777  33.834  24.493 -0.1178 -0.2245  0.1676
46409W        W89425  30.957  31.922  19.324 -0.2505 -0.0651 -0.1812
46410W        W89426  12.024  18.222  16.254 -0.3982 -0.1548  0.2605
46411W        W89427  22.227  14.556  22.020 -0.2662 -0.0403 -0.0605
46412W        W89428   4.184   4.712   0.548  0.2373 -0.3350 -0.2793
46413W        W89429  25.196   8.332  18.397  0.1425 -0.1825  0.1846
46414W        W89430  30.599  10.272   3.729  0.3507  0.2291 -0.2394
46415W        W89431  33.287   1.295  26.711  0.0200 -0.0682 -0.2944
46416W        W89432   4.176   0.272  16.843  0.0504  0.1096  0.2817
46417W        W89433  33.960   1.399  18.900 -0.1321 -0.0712 -0.2465
46418W        W89434  11.103   9.878  15.787  0.1471 -0.3142  0.2021
46419W        W89435  30.405  23.802  19.230 -0.3198  0.0696 -0.0289
46420W        W89436   3.192   7.860  15.006  0.0660  0.0295 -0.3088
46421W        W89437   7.311   5.998  15.815 -0.1366 -0.2062 -0.0669
46422W        W89438   1.005   6.113  24.425 -0.0527  0.1582 -0.3784
46423W        W89439  10.198   1.253  22.319 -0.2491  0.1487 -0.1908
46424W        W89440  23.706  29.618  22.219 -0.0380  0.1354 -0.3792
46425W        W89441  21.572   2.404  19.508  0.0903  0.0520 -0.3212
46426W        W89442  32.882  25.521  23.905 -0.0691 -0.1931  0.0567
46427W        W89443   0.660   1.456  29.100 -0.0370  0.1175 -0.1871
46428W        W89444  22.295   4.198  15.704  0.0935 -0.1985  0.2741
46429W        W89445  25.957  10.356   3.910 -0.4917  0.1706  0.0132
46430W        W89446  31.557  18.801  24.709 -0.0225 -0.0576 -0.3522
46431W        W89447   3.872  12.498  14.825 -0.0150 -0.0198  0.1285
46432W        W89448  21.806  21.667  20.847 -0.2306  0.0662 -0.1721
46433W        W89449  26.273  22.489   4.056 -0.3418  0.1719 -0.0781
46434W        W89450  29.908  34.468  16.075  0.0388  0.1392 -0.1758
46435W        W89451  12.951  34.177  27.385 -0.1738 -0.2708  0.1052
46436W        W89452   7.787  11.612  18.255 -0.0264  0.3022  0.1032
46437W        W89453   0.002   5.174  14.721 -0.0422 -0.3195  0.0539
46438W        W89454  33.364   4.120  21.320  0.0987  0.1247 -0.1833
46439W        W89455  12.485   2.306  26.701 -0.1121 -0.3490  0.1285
46440W        W89456  32.843  24.140  25.649 -0.0825  0.0063 -0.5034
46441W        W89457  28.398   5.301  17.093 -0.0504 -0.1075  0.1711
46442W        W89458  12.204   6.373   5.492 -0.4229 -0.2953  0.3874
46443W        W89459  10.763  24.915  23.537  0.3099 -0.1309 -0.2727
46444W        W89460  20.768  31.087  21.861  0.0616 -0.2117 -0.5161
46445W        W89461  30.147   4.159  27.730  0.3944 -0.0648 -0.3197
46446W        W89462   1.261  12.739  29.013 -0.1391 -0.2671  0.3813
46447W        W89463  25.693   1.204  10.288 -0.0135 -0.0941 -0.2676
46448W        W89464   7.882  26.514  20.474  0.2096  0.2074  0.4773
46449W        W89465   0.670   3.198  18.194  0.0295 -0.0863 -0.3421
46450W        W89466   6.816  23.748   2.384 -0.0404 -0.0406  0.0806
46451W        W89467  29.650  11.667   4.858  0.1884 -0.1973  0.0279
46452W        W89468   0.519  31.358  26.340  0.0816  0.0418  0.0662
46453W        W89469  18.034   2.058  15.453 -0.1297  0.0241 -0.0899
46454W        W89470   1.453  20.288  17.216  0.2672  0.0959  0.0631
46455W        W89471  19.437  11.509  20.336  0.2562 -0.3052  0.1670
46456W        W89472  29.635   2.511  28.135  0.2194  0.0596  0.0016
46457W        W89473   4.434   6.984  18.204  0.0971 -0.0455 -0.1810
46458W        W89474   3.209  13.943   7.778 -0.1724 -0.2676 -0.0336
46459W        W89475   3.812  25.398  27.286  0.0097 -0.0143 -0.0416
46460W        W89476  32.284  33.614  18.249  0.0757 -0.2030 -0.0374
46461W        W89477   5.902   6.500  23.211  0.0588  0.1587  0.1145
46462W        W89478  34.619   3.535  26.363  0.0191  0.0018  0.1229
46463W        W89479  32.731   9.993  14.882  0.2943 -0.0831 -0.2961
46464W        W89480   8.709  12.719  26.150 -0.2242 -0.4888 -0.0628
46465W        W89481  11.429  26.151   4.953  0.0336  0.0379 -0.2422
46466W        W89482  31.575   9.876  29.263  0.0428  0.4490  0.0442
46467W        W89483  26.447   3.533  22.365  0.2290  0.2710  0.4798
46468W        W89484   1.017   4.021  23.157  0.0278 -0.3106  0.3103
46469W        W89485   3.582   1.235  17.169  0.1953  0.1405  0.1467
46470W        W89486  12.727  12.192  26.283 -0.0019  0.0825  0.0523
46471W        W89487  29.527   6.035  23.042  0.0226 -0.2971  0.0462
46472W        W89488   6.029   7.085   2.404 -0.3826  0.3018 -0.2408
46473W        W89489  30.585  14.847  26.353  0.2047 -0.1047  0.0641
46474W        W89490  23.794  13.282  13.802  0.0211 -0.3584 -0.0012
46475W        W89491   6.004  21.944  16.022 -0.2459  0.2243  0.0093
46476W        W89492   0.592  29.647  20.381 -0.0043 -0.2248 -0.3634
46477W        W89493   4.040   7.964  20.515 -0.1772 -0.2198  0.0492
46478W        W89494  29.603  29.110  22.784  0.1439 -0.1145  0.0033
46479W        W89495  13.436   9.484  20.754 -0.0844 -0.0508  0.0777
46480W        W89496  24.431  24.194  15.764  0.1070  0.1939 -0.0095
46481W        W89497   8.248  24.097  14.198  0.1506 -0.0477  0.2274
46482W        W89498  28.296  24.766  17.831 -0.4005 -0.1699 -0.1223
46483W        W89499  13.899   1.977  23.059 -0.0375  0.1689  0.0779
46484W        W89500  32.841  16.918  19.223 -0.1243  0.2615 -0.2129
46485W        W89501  30.539  15.838  14.783 -0.1057  0.1413 -0.0364
46486W        W89502  17.618  11.564  19.037 -0.2586  0.0791 -0.1406
46487W        W89503  19.874   1.752  22.188  0.1012  0.1668 -0.0555
46488W        W89504  23.730  30.008  26.722  0.1375 -0.1251  0.0980
46489W        W89505  29.738  27.915  15.670  0.0868  0.3759 -0.1782
46490W        W89506  28.686  24.903  17.500 -0.0056  0.0191  0.0138
46491W        W89507   2.250  32.410  15.080 -0.0003  0.0724  0.2496
46492W        W89508  10.031  30.299  22.649 -0.1200 -0.1370 -0.0904
46493W        W89509   8.206  23.596  14.203  0.0267  0.1476  0.1184
46494W        W89510  27.190  25.290  28.576  0.0747  0.1561 -0.0518
46495W        W89511  25.261  32.886  22.816  0.0459  0.3054  0.1184
46496W        W89512   0.186   6.721  25.972  0.0722 -0.1967 -0.0563
46497W        W89513  17.036  34.360  17.871 -0.0418  0.0666 -0.2398
46498W        W89514  33.137  34.774  19.287  0.0191  0.1129  0.0220
46499W        W89515  24.749  25.618   6.321  0.2299  0.2347  0.2589
46500W        W89516  34.239  20.835  15.348  0.2290 -0.2141  0.1022
46501W        W89517  31.074  16.043   4.735  0.2738  0.2761 -0.1127
46502W        W89518   0.887   0.357  22.133  0.4833 -0.0101  0.1811
46503W        W89519   8.462  31.702  17.337 -0.1290 -0.1139 -0.1536
46504W        W89520   9.962  34.186  18.065  0.0957  0.0058  0.3306
46505W        W89521  27.038   6.445  18.658 -0.2539  0.2233  0.2651
46506W        W89522  29.656  22.073  21.037  0.1293  0.2162  0.0964
46507W        W89523  22.419  28.478  18.036  0.0743  0.3264  0.0100
46508W        W89524  21.532  34.528  21.933 -0.0044 -0.2290  0.3717
46509W        W89525   5.503  29.129  19.520 -0.1155 -0.0615  0.0172
46510W        W89526  28.591   6.168  23.092  0.0067 -0.0045 -0.0539
46511W        W89527  32.741   3.974  16.879 -0.0940  0.0437  0.1612
46512W        W89528  11.519   3.696  21.551  0.0281 -0.0405 -0.0109
46513W        W89529  32.630  32.397  19.822  0.1726  0.1842 -0.0492
46514W        W89530   4.331   0.839  22.203  0.2216  0.1223  0.2060
46515W        W89531  26.392  33.785  26.397 -0.0369  0.2935 -0.2489
46516W        W89532  18.526  11.476  19.974 -0.0869  0.1978  0.3018
46517W        W89533  10.980   4.327  23.874 -0.2197  0.0975  0.2645
46518W        W89534  10.577  21.345  28.800 -0.1210 -0.3693  0.1667
46519W        W89535  11.986  13.936  20.272  0.0257 -0.0775  0.0387
46520W        W89536   7.471   4.281  25.790  0.2620  0.4743 -0.0062
46521W        W89537  33.666  18.265  20.402  0.0473 -0.0913  0.0748
46522W        W89538  15.449  32.589  17.519 -0.4294  0.0376  0.3574
46523W        W89539  33.227   4.880  17.287  0.1469 -0.0761 -0.0446
46524W        W89540   4.616   6.501  18.436 -0.0628  0.5122  0.1394
46525W        W89541  18.724  26.981  23.499 -0.3746 -0.0983  0.0506
46526W        W89542  32.372   5.167   1.339  0.1356 -0.0364 -0.0552
46527W        W89543  19.764   4.098   1.822 -0.3217 -0.0431  0.1165
46528W        W89544  22.540   0.535  24.086 -0.0023 -0.0063 -0.0828
46529W        W89545   3.810   8.756  15.694 -0.1797 -0.1089  0.0444
46530W        W89546  22.407  34.288  20.438 -0.1531  0.0479  0.1744
46531W        W89547   1.720   6.984   2.074  0.0120 -0.0810 -0.0201
46532W        W89548  20.485  26.833  25.221  0.0667  0.0490  0.0792
46533W        W89549   7.474   3.502  21.629 -0.0237  0.2001 -0.3475
46534W        W89550  29.140   7.341   5.728 -0.0383 -0.0668 -0.2694
46535W        W89551  18.544  29.347  15.378  0.3870  0.1160 -0.2435
46536W        W89552   7.189  33.995   4.988  0.1160 -0.1669 -0.0924
46537W        W89553   3.142   4.997  14.878 -0.0496  0.0138  0.1826
46538W        W89554   3.218  28.443   3.326  0.1447  0.0505  0.0354
46539W        W89555  25.179  27.253  25.734 -0.2248 -0.2524 -0.1128
46540W        W89556   7.190   5.080  15.904  0.1524  0.0745 -0.0595
46541W        W89557  25.555  31.729  27.804  0.3176  0.0617 -0.0647
46542W        W89558   8.826   6.637  15.801 -0.0786 -0.0991  0.1180
46543W        W89559  20.157   6.087  24.376 -0.0006 -0.1952  0.2558
46544W        W89560  17.921  25.451   0.833  0.1764  0.2595 -0.1072
46545W        W89561  23.606  11.251  18.717  0.1958  0.1291 -0.0668
46546W        W89562  15.425  28.218  25.201 -0.0892 -0.0390  0.2211
46547W        W89563   1.828   7.421  24.332 -0.2422  0.2231 -0.0058
46548W        W89564   2.810   9.664   3.789 -0.1273 -0.1163  0.2307
46549W        W89565  26.377  34.444  23.949  0.2414 -0.1217 -0.1519
46550W        W89566  14.958  13.411  13.302 -0.0288  0.2051 -0.0717
46551W        W89567   5.844   0.305  21.631 -0.0633  0.0255 -0.0580
46552W        W89568   2.618   9.326  14.808 -0.0772 -0.0776  0.1217
46553W        W89569  34.165   8.041   0.442 -0.1376 -0.2379 -0.1571
46554W        W89570   1.957  12.883  10.017  0.0872  0.0786  0.2540
46555W        W89571   5.637  25.402  25.604  0.1331 -0.1769 -0.0361
46556W        W89572  31.509   3.585  23.485 -0.5842 -0.0773 -0.0716
46557W        W89573   6.033   7.250  18.110 -0.1595  0.1213  0.2327
46558W        W89574  19.632   4.031  26.769 -0.4537 -0.1201 -0.0611
46559W        W89575   9.579   2.027  22.195 -0.1846 -0.1167 -0.0956
46560W        W89576   1.342  11.821  17.731  0.1634 -0.0969 -0.2607
46561W        W89577   6.424  14.592  23.327  0.0343  0.0125  0.0022
46562W        W89578  21.381   6.708  20.649 -0.2773  0.3417 -0.1832
46563W        W89579  13.486  14.676  13.928 -0.1604 -0.0656  0.1113
46564W        W89580  34.283  22.613  18.470  0.1827  0.2709 -0.0857
46565W        W89581  25.523  18.919  15.113  0.1058  0.1071 -0.0258
46566W        W89582   1.726   8.314  19.067 -0.0145 -0.0862  0.0959
46567W        W89583   1.568  31.721  15.103 -0.4068 -0.1688 -0.2686
46568W        W89584  33.614  18.838  26.220  0.0070 -0.1760  0.1158
46569W        W89585  33.448   5.938  21.645 -0.0854 -0.0268 -0.1166
46570W        W89586   7.978  26.774  15.219  0.1820  0.1179  0.2139
46571W        W89587  32.888   9.658  20.017  0.2023  0.0429 -0.1074
46572W        W89588   3.814  28.337  18.426  0.2455  0.0329 -0.3151
46573W        W89589  30.971  14.625  20.904 -0.1439  0.0095  0.2352
46574W        W89590  27.564   1.396   7.888 -0.1103 -0.5048 -0.2523
46575W        W89591   8.417   1.320  15.926  0.2093  0.0094  0.1001
46576W        W89592   6.282  12.896  20.245  0.1924  0.4588  0.0313
46577W        W89593  14.854  13.737  23.733  0.3170 -0.0999  0.1295
46578W        W89594   5.781   3.914   1.434 -0.2311 -0.0269 -0.0987
46579W        W89595  28.034  12.740  24.487  0.0043  0.1231  0.0314
46580W        W89596   2.628  32.036   6.328  0.0933 -0.0170 -0.0205
46581W        W89597   7.131  10.811  28.861 -0.2018  0.0811 -0.1055
46582W        W89598   2.317  17.636  22.874  0.2684  0.2256 -0.0620
46583W        W89599   7.284  13.457   5.376  0.4340  0.1064 -0.0678
46584W        W89600  22.877  24.681  27.932  0.0802 -0.2508  0.0805
46585W        W89601  14.782  32.672  27.645 -0.2468  0.1758  0.1340
46586W        W89602  10.750  14.005  14.691  0.1529 -0.1456 -0.0082
46587W        W89603  13.643  29.922  18.865  0.3358  0.2425  0.3853
46588W        W89604  21.413  27.699   8.337  0.3093 -0.1070 -0.0605
46589W        W89605  13.226   4.089  14.826 -0.1756  0.1258 -0.2220
46590W        W89606  23.664   1.591  18.500 -0.2714 -0.0460  0.1040
46591W        W89607  17.518  24.977  16.907 -0.1199 -0.1799  0.0833
46592W        W89608  26.651  25.313  29.320  0.1882  0.1086 -0.3221
46593W        W89609  30.135  22.670  17.090 -0.0770 -0.2425 -0.1388
46594W        W89610   9.137   7.232  19.028 -0.2494 -0.0265  0.0423
46595W        W89611  26.787   1.446  22.720 -0.2557  0.1687 -0.0008
46596W        W89612   8.146   9.560  18.236 -0.0144 -0.0241  0.0806
46597W        W89613   1.086  26.046  18.119 -0.2845 -0.0191  0.1862
46598W        W89614  10.331   5.637  21.511  0.1543 -0.1038  0.2106
46599W        W89615   7.383  13.130  19.694 -0.1020  0.0992  0.1251
46600W        W89616   4.131  12.694   8.678 -0.0939 -0.0366  0.2216
46601W        W89617   3.626   1.292  22.521 -0.3422  0.1074 -0.3411
46602W        W89618  20.331  10.759  15.148  0.1360  0.2785  0.1849
46603W        W89619   8.137   1.876  19.659 -0.0597  0.3307  0.1252
46604W        W89620  25.421   9.891  23.106  0.2269 -0.1563 -0.1491
46605W        W89621  19.857   3.176  14.892  0.2584  0.0049 -0.0856
46606W        W89622  26.980  31.575  28.828 -0.1380  0.0710  0.2592
46607W        W89623  14.774  30.648  27.739 -0.0366 -0.2221 -0.0087
46608W        W89624  31.601   7.972  26.500 -0.0563  0.0440  0.0679
46609W        W89625  20.268  26.731  19.893  0.2031  0.2059 -0.2058
46610W        W89626  22.190  20.918  18.831  0.1048  0.1057 -0.0030
46611W        W89627  33.317  18.849  21.834  0.0327  0.1813 -0.2780
46612W        W89628  10.242   0.335  16.991 -0.0131  0.1833 -0.0502
46613W        W89629  34.333  32.448  21.288  0.0321  0.3392 -0.6007
46614W        W89630  16.815  16.175   1.653 -0.1314 -0.0154 -0.2109
46615W        W89631  25.075  29.857  29.296 -0.1193  0.0723  0.1247
46616W        W89632  28.222  16.692   0.260  0.2194  0.0835 -0.0215
46617W        W89633  13.254  12.693   7.378 -0.0602  0.0503 -0.1483
46618W        W89634  34.011   2.330  16.846  0.1060  0.1437 -0.0372
46619W        W89635   7.596  33.779  26.516 -0.1375 -0.3206  0.3078
46620W        W89636   8.644  34.759  21.175 -0.0749  0.1448 -0.2788
46621W        W89637   2.148   7.067   0.360 -0.1010  0.1694 -0.1136
46622W        W89638  22.338   3.073  26.228 -0.0881  0.1616  0.0916
46623W        W89639  24.998  29.364  16.482 -0.0854 -0.1157 -0.1628
46624W        W89640  25.972   0.784  23.239  0.1806 -0.3614  0.1250
46625W        W89641   1.932  11.349   0.505 -0.1141 -0.1431  0.2187
46626W        W89642  33.997  19.274  17.507  0.4115  0.2165 -0.2569
46627W        W89643  28.830   1.316  28.188  0.0404  0.3010  0.2971
46628W        W89644  30.408  32.341  20.034 -0.0765 -0.0103 -0.1237
46629W        W89645   0.321  13.927  26.487 -0.0042  0.0348 -0.1614
46630W        W89646   3.211  10.789  26.518 -0.1256  0.0231 -0.0556
46631W        W89647   9.153  32.063   2.639 -0.0252 -0.3437  0.1020
46632W        W89648  30.948  25.217  25.872 -0.0363 -0.1770 -0.0258
46633W        W89649   4.290  26.762  17.601 -0.0326  0.2865  0.0543
46634W        W89650   4.262  13.246  19.712 -0.0060  0.1656 -0.0983
46635W        W89651   1.988  25.922   3.172  0.1941  0.0325  0.1556
46636W        W89652  16.889   2.266   6.468  0.4552  0.0407 -0.3193
46637W        W89653  25.406   3.108  27.057  0.0897  0.1672 -0.3573
46638W        W89654  28.388  30.910  25.369 -0.3550  0.0040  0.2183
46639W        W89655  29.533  19.003  17.584 -0.1481  0.0195  0.4015
46640W        W89656  26.667  16.607   4.960  0.0141  0.0836 -0.1212
46641W        W89657  16.268  33.780  23.891 -0.2284 -0.0166 -0.0427
46642W        W89658  21.421  18.710   4.165  0.0001  0.1072  0.0865
46643W        W89659   0.548  28.469  25.065  0.1643 -0.3962  0.1107
46644W        W89660  32.714   2.224  28.910  0.0296  0.1637  0.0293
46645W        W89661   7.708  26.933  19.379 -0.2293  0.1316  0.3018
46646W        W89662  22.084   3.856   1.545  0.0181  0.0230 -0.1665
46647W        W89663  22.182  16.510  13.715 -0.0668  0.1174 -0.1832
46648W        W89664  23.652  17.837  21.317 -0.0800 -0.0104 -0.0775
46649W        W89665  26.678  13.165  20.391  0.1559  0.0632 -0.0071
46650W        W89666   6.306  23.841  16.016  0.1009 -0.2787  0.1571
46651W        W89667   4.558   6.389   9.305  0.0602  0.4814 -0.3715
46652W        W89668  27.421  26.075  22.772  0.1945 -0.6411 -0.0482
46653W        W89669   3.974   1.382   0.276  0.1638  0.2039  0.0189
46654W        W89670  30.057  13.700  19.480  0.5571 -0.0954 -0.1875
46655W        W89671   0.703  32.779  29.081 -0.1476  0.2137 -0.0641
46656W        W89672  29.607   9.925  16.757 -0.0779 -0.0113 -0.1086
46657W        W89673  34.073  16.124  17.014 -0.0793 -0.0063 -0.0217
46658W        W89674  24.559  31.373  10.124  0.0234  0.0196 -0.3027
46659W        W89675   9.059   9.109  26.045 -0.0639  0.0488 -0.1398
46660W        W89676  12.137  14.372   6.778  0.2906 -0.0114 -0.2534
46661W        W89677  12.072  22.759  12.423 -0.0647  0.0671 -0.1914
46662W        W89678   1.171   9.815  27.495 -0.0910 -0.0733 -0.0555
46663W        W89679   3.042  26.790  18.957 -0.2525  0.0819  0.1785
46664W        W89680   2.141   9.309   4.248  0.0476 -0.0431 -0.1503
46665W        W89681  29.630   2.429   2.533 -0.0404  0.0144  0.0019
46666W        W89682  13.606  28.526   2.197  0.1737  0.0241 -0.0238
46667W        W89683  10.725  13.043  19.080 -0.0666 -0.0188  0.1625
46668W        W89684  30.367  11.915  17.252 -0.3447  0.0221 -0.2844
46669W        W89685  31.445   2.455  24.914 -0.1158  0.1881 -0.0723
46670W        W89686   1.014   5.164   4.541  0.3389 -0.1228 -0.0029
46671W        W89687  27.660  12.171  18.495  0.0042 -0.2394  0.1091
46672W        W89688  30.180   2.777  15.405  0.1167  0.1360  0.1054
46673W        W89689   9.052   6.361   5.237 -0.2401 -0.2906  0.6277
46674W        W89690  30.746  29.124  21.087  0.2749 -0.0546 -0.1441
46675W        W89691  27.855  23.422   8.305  0.1507 -0.1979  0.1497
46676W        W89692  24.668   7.322  21.804  0.2071 -0.2767  0.2072
46677W        W89693   0.561   9.413  25.333  0.0512  0.2789 -0.2479
46678W        W89694  31.844   1.160   4.055 -0.1899  0.1706 -0.0914
46679W        W89695   4.670  18.728  27.161 -0.1070  0.2275  0.0736
46680W        W89696  31.442   7.377  20.004 -0.0657 -0.0334 -0.1325
46681W        W89697   8.176   7.552  26.714 -0.0590  0.1228 -0.3050
46682W        W89698  31.059  33.757  19.221 -0.1722 -0.0297  0.2327
46683W        W89699  28.582  22.996   5.457  0.3054 -0.2345  0.1200
46684W        W89700   5.373   4.489  14.390 -0.3570  0.0439 -0.0023
46685W        W89701  16.269  11.702  12.953  0.1128  0.0495  0.3153
46686W        W89702  32.422   1.270   4.838  0.1147 -0.2739  0.1021
46687W        W89703  30.608  10.915  23.659  0.0756 -0.0331 -0.0098
46688W        W89704  11.591   9.961  24.722 -0.1793  0.2346 -0.0435
46689W        W89705  15.487   9.870  22.386  0.0993  0.0284  0.1410
46690W        W89706  30.740   4.740  18.768 -0.0188 -0.0026 -0.0481
46691W        W89707  34.378  32.338   1.764 -0.1540  0.1519  0.1507
46692W        W89708  12.021   7.898   3.139 -0.1503 -0.2026  0.1532
46693W        W89709   9.378   3.939  17.808  0.0564 -0.0036 -0.0284
46694W        W89710  33.742  23.849   3.557 -0.0131 -0.3125  0.2418
46695W        W89711   5.127  11.077   1.560 -0.4116 -0.1273  0.2212
46696W        W89712  16.072  28.210   3.635 -0.0164  0.2662  0.0816
46697W        W89713  23.720  27.195  23.595  0.1541  0.0578 -0.0430
46698W        W89714   0.449  10.643  26.158  0.2403 -0.1157 -0.0393
46699W        W89715   2.597   8.319  25.456 -0.0999  0.2005 -0.3286
46700W        W89716   7.522  27.551  15.519 -0.4613  0.0917  0.0352
46701W        W89717   1.734   8.915  16.456  0.0599 -0.0474 -0.0311
46702W        W89718  34.743  30.781   4.972 -0.0063 -0.1995  0.0961
46703W        W89719  11.499   7.712   0.781  0.2288  0.1873 -0.0921
46704W        W89720   2.978  30.831  29.306 -0.0877  0.0465  0.1429
46705W        W89721  17.980  21.421  22.816 -0.3146  0.2618  0.0002
46706W        W89722  29.446  28.091   6.746 -0.1319  0.2091 -0.1360
46707W        W89723   5.379   7.654   2.665 -0.1048 -0.0117 -0.0166
46708W        W89724  32.663   8.638  22.942  0.0805  0.4296  0.0889
46709W        W89725  29.454   7.393  20.107  0.0258  0.1065  0.0836
46710W        W89726  31.884  32.749  19.760  0.1840 -0.0502 -0.1385
46711W        W89727  13.525  19.694  16.388 -0.0335 -0.1234  0.1939
46712W        W89728   9.649  33.648   1.238  0.0120 -0.0884  0.3017
46713W        W89729  21.092   1.694   9.627  0.0051 -0.0150 -0.2409
46714W        W89730  27.151  33.114  26.556 -0.3648 -0.3494 -0.1876
46715W        W89731  13.960   5.913  27.080 -0.0626  0.0497  0.1270
46716W        W89732  33.952  21.377   9.935 -0.0472 -0.0705 -0.2256
46717W        W89733  31.400  15.745  23.326  0.1835 -0.0230  0.0712
46718W        W89734   0.061  34.561   9.347 -0.1399 -0.0449  0.3138
46719W        W89735  12.138   4.666  16.697  0.0733  0.1225 -0.1334
46720W        W89736   0.750   6.642   5.076 -0.2844 -0.0389 -0.1204
46721W        W89737  34.699   9.181  15.766  0.0324  0.5144  0.3147
46722W        W89738   2.226   2.527  19.226 -0.0046  0.0195 -0.1340
46723W        W89739   4.811  15.343   3.336 -0.1021 -0.0810  0.0665
46724W        W89740   1.770   8.569  28.613  0.0903  0.0297 -0.1295
46725W        W89741  18.857  34.595  20.198  0.1078 -0.0007  0.2539
46726W        W89742  11.369  27.752  26.574  0.1789  0.0402  0.0763
46727W        W89743   5.971  10.422  22.382  0.2642  0.3277 -0.2974
46728W        W89744   3.615  25.258  19.336 -0.0001  0.0348 -0.2049
46729W        W89745   4.306  21.850  18.236 -0.5620 -0.2405  0.1330
46730W        W89746  15.818  30.599   4.488  0.3830 -0.0748 -0.1970
46731W        W89747  19.859  26.823  14.206  0.1454 -0.2973  0.1171
46732W        W89748  25.744  26.690  19.868 -0.1367 -0.2478 -0.1811
46733W        W89749  32.365   3.838  20.959 -0.0371 -0.1787 -0.2267
46734W        W89750  32.349   1.583  15.992 -0.1171 -0.2866 -0.0251
46735W        W89751  16.449   6.727  20.751 -0.2393 -0.0351  0.1795
46736W        W89752   7.090  33.716  19.516  0.0788  0.1802  0.0415
46737W        W89753  13.662  10.938   5.534 -0.1110  0.0595  0.0815
46738W        W89754  27.540  29.726   4.674 -0.1841 -0.0899  0.0071
46739W        W89755   2.480   0.339   8.397  0.0520 -0.1953 -0.3521
46740W        W89756   4.579  22.333   8.135 -0.0070 -0.0616 -0.0467
46741W        W89757  34.585   7.061  26.079 -0.1485  0.1610 -0.0658
46742W        W89758  34.531  17.729  19.672  0.0434 -0.1641 -0.0084
46743W        W89759  28.571  31.737   4.595 -0.1927  0.1251 -0.3506
46744W        W89760   6.139  28.438   1.140  0.2287  0.0576 -0.0313
46745W        W89761  23.986  28.679  23.442  0.0108 -0.2148 -0.2262
46746W        W89762  30.077  10.190  18.003 -0.3267  0.0765 -0.1166
46747W        W89763  31.398  33.732  20.067 -0.1383 -0.0294  0.2245
46748W        W89764   6.183   6.787  24.994 -0.0614 -0.3278  0.0711
46749W        W89765  33.403  28.780  15.263 -0.1198 -0.0261 -0.1615
46750W        W89766  31.488  15.486   0.165  0.1108 -0.2635  0.0031
46751W        W89767  31.161  33.731  25.646 -0.0115 -0.1014 -0.0557
46752W        W89768   7.757  34.577  14.882  0.0273 -0.0619 -0.0055
46753W        W89769  32.543  34.278   7.024 -0.1260 -0.2956  0.3231
46754W        W89770  10.869  32.274  27.386  0.0637 -0.0663  0.2303
46755W        W89771  34.627   4.083  21.711 -0.2164 -0.0474  0.0046
46756W        W89772  27.419   9.696   0.761 -0.2111  0.1863  0.0724
46757W        W89773  16.454  33.561  16.866 -0.1631  0.1689 -0.1365
46758W        W89774  22.103  32.382  20.424  0.1078 -0.0446 -0.2765
46759W        W89775  27.072  17.340  29.125  0.3031 -0.0461 -0.2258
46760W        W89776   1.820  24.274  20.088 -0.0273 -0.2036 -0.1601
46761W        W89777   6.394  21.636   2.898  0.1298  0.1419 -0.0690
46762W        W89778   7.866   5.277  16.681  0.1053  0.2841  0.1946
46763W        W89779  13.338  26.489  23.189  0.1767  0.1760 -0.0861
46764W        W89780  10.771   7.188  25.249 -0.0369 -0.0406  0.0195
46765W        W89781  26.168   5.383   0.469 -0.1493 -0.1997  0.2510
46766W        W89782   3.510  29.741   5.519  0.1208 -0.2881 -0.2116
46767W        W89783  23.517   8.301   2.133 -0.0603  0.1342  0.0745
46768W        W89784  24.079  25.402   7.065  0.3131  0.0302 -0.0620
46769W        W89785  23.255  20.024  15.319  0.1915  0.0990 -0.0592
46770W        W89786   8.056  18.996  15.048  0.5423 -0.1695 -0.1063
46771W        W89787   8.892   4.260  19.480  0.3381  0.3157  0.1317
46772W        W89788  33.328   2.993  17.178  0.0393  0.0711 -0.2107
46773W        W89789   0.014   6.722  13.747  0.1850  0.2127  0.2435
46774W        W89790  29.510   7.190   2.675 -0.2119  0.2090  0.1002
46775W        W89791   3.638  30.659  25.444  0.0851 -0.3973  0.2954
46776W        W89792   2.590   9.753  19.514 -0.0804  0.1034  0.2378
46777W        W89793  13.212  25.753   5.206 -0.0196  0.0543  0.1958
46778W        W89794  11.985   3.386  18.450  0.0867 -0.1712 -0.3079
46779W        W89795   3.008  16.391  25.457 -0.0403 -0.1374  0.0730
46780W        W89796  24.598  32.938  25.532 -0.1751 -0.0033 -0.0320
46781W        W89797  20.540   4.369  21.224 -0.1535  0.1218 -0.0339
46782W        W89798   9.640  18.871  22.447  0.2367 -0.3311  0.3780
46783W        W89799  16.016  31.887  10.392 -0.1665 -0.4128 -0.0376
46784W        W89800   0.314   7.151  26.359  0.1144 -0.2052 -0.1392
46785W        W89801  20.547  28.418   6.411  0.3161  0.1845  0.2489
46786W        W89802  12.252  12.537   4.741 -0.1035  0.2499  0.0323
46787W        W89803  32.441  33.715  20.516 -0.2453  0.3680 -0.1668
46788W        W89804  31.829  11.529   7.880 -0.1220 -0.1039 -0.1030
46789W        W89805  29.077  24.417   6.764  0.4367 -0.0822 -0.1650
46790W        W89806  31.662   6.081  19.386  0.0947 -0.1992  0.1905
46791W        W89807  28.341  14.881  23.943 -0.1828 -0.3065  0.2285
46792W        W89808  25.669  11.952  23.979 -0.1368 -0.2235  0.2925
46793W        W89809  19.183   5.242  15.680 -0.0660 -0.0966 -0.1229
46794W        W89810   7.804   8.697  18.895 -0.0279  0.0745 -0.2618
46795W        W89811   4.440  25.805   3.954  0.3680 -0.1466  0.1902
46796W        W89812   5.464  22.783  28.047 -0.1586  0.0703 -0.1976
46797W        W89813   2.186  26.707  18.025  0.2723 -0.2071  0.2668
46798W        W89814  31.508   1.547   9.977 -0.0656  0.1418  0.1305
46799W        W89815  24.697  30.792  10.811  0.0656 -0.6150  0.1994
46800W        W89816   2.989  12.175   4.713 -0.0640 -0.0998  0.1186
46801W        W89817   4.409  32.417   0.605 -0.2250  0.2235 -0.1429
46802W        W89818  11.020   9.276  20.907 -0.1175 -0.0513  0.0745
46803W        W89819  30.433   6.204   7.928 -0.0156  0.2096 -0.4400
46804W        W89820  34.433  33.823  15.443  0.2314  0.3288  0.0527
46805W        W89821  23.130   3.519  29.305 -0.0273 -0.0433 -0.0566
46806W        W89822   2.945  34.757   9.845  0.3581 -0.1465  0.2507
46807W        W89823  10.969  24.659   3.654  0.0261  0.0091 -0.1828
46808W        W89824  10.671   4.486  23.522 -0.1966 -0.2056  0.1483
46809W        W89825  29.593  27.429  16.966 -0.1105  0.3397 -0.1113
46810W        W89826  30.165   1.384   4.026  0.0905  0.0209  0.1351
46811W        W89827  30.129   9.687   4.198  0.4770  0.1001 -0.2376
46812W        W89828   3.035  13.652  17.161  0.1032  0.2188 -0.1928
46813W        W89829  29.062   6.686  25.983  0.1992  0.1710  0.0774
46814W        W89830   2.320   0.227  28.649  0.0008  0.2303 -0.0548
46815W        W89831  26.148  18.174  26.833 -0.4548 -0.0460 -0.0559
46816W        W89832  25.173  20.958  25.891  0.0870 -0.0634 -0.0185
46817W        W89833   7.035  26.842   1.896 -0.1993  0.0171  0.1610
46818W        W89834  31.318  16.238  15.523  0.2033  0.2441 -0.0134
46819W        W89835   5.042  19.873  22.846 -0.1044 -0.0487 -0.3246
46820W        W89836   0.068  20.409  15.837  0.0414  0.1487  0.2126
46821W        W89837  32.635  15.467  24.027 -0.0506 -0.2583  0.2069
46822W        W89838  33.533  17.635   6.496  0.0877 -0.0819 -0.3554
46823W        W89839  29.328  12.820  15.206  0.1605  0.1746  0.1089
46824W        W89840  32.671  22.891  27.595 -0.0659  0.0843  0.0756
46825W        W89841   5.339   6.111  20.834 -0.0088 -0.2182 -0.1720
46826W        W89842   1.232   7.098  14.589 -0.1097 -0.1415 -0.1175
46827W        W89843  22.595   1.497   6.233  0.4618 -0.0196 -0.1283
46828W        W89844   3.094  19.822   7.550  0.3397  0.2498 -0.1281
46829W        W89845  24.130  23.072  27.482 -0.1224 -0.3410  0.3006
46830W        W89846  32.444   8.156  24.857 -0.1130  0.0875  0.2469
46831W        W89847   9.847  33.000  23.498  0.0111  0.1867  0.1119
46832W        W89848  27.291  16.619  22.251  0.2835  0.0785 -0.0965
46833W        W89849   5.940   8.976   4.713  0.0726  0.2764  0.1362
46834W        W89850  33.103  11.043  22.985  0.1012  0.3192 -0.4674
46835W        W89851  14.804  25.872  14.939  0.1851  0.2164 -0.3545
46836W        W89852   4.274  13.821  14.405  0.1284 -0.1342 -0.0844
46837W        W89853   2.510  32.767  25.040 -0.0195 -0.3359 -0.1364
46838W        W89854   8.400  13.647   3.435 -0.3234 -0.1101  0.0176
46839W        W89855   8.136  21.781  14.940  0.0840 -0.1371  0.2690
46840W        W89856  28.657   1.550   5.635 -0.0470 -0.0044  0.0116
46841W        W89857  34.121   7.880  19.735 -0.0381  0.1513  0.1825
46842W        W89858  30.564  14.202   3.089  0.1641  0.0957  0.0740
46843W        W89859  11.439  34.134  17.065  0.0634 -0.0040 -0.2446
46844W        W89860  10.156  22.228  14.223 -0.0800 -0.1319 -0.1297
46845W        W89861   2.909  31.339  21.999 -0.0520  0.0243  0.0235
46846W        W89862  29.528   2.342  16.466  0.0467  0.1512  0.1939
46847W        W89863  10.546   5.758  27.059 -0.2246 -0.0416  0.0112
46848W        W89864   3.574  30.863  23.625 -0.1751  0.1491 -0.1824
46849W        W89865  26.000  33.789  11.521  0.0358 -0.0724  0.2453
46850W        W89866  34.540   3.666  19.381 -0.2383  0.1811 -0.3340
46851W        W89867  19.878   0.926   9.743 -0.1336 -0.0305 -0.1954
46852W        W89868  30.924  27.365  16.411  0.1183 -0.0197 -0.3340
46853W        W89869  34.401   5.921  15.825 -0.3440 -0.1415 -0.0476
46854W        W89870  23.152  31.463  22.660  0.1810  0.1382 -0.0808
46855W        W89871  29.346   7.738   6.551 -0.1866 -0.1582  0.2523
46856W        W89872  22.286  23.194   0.077  0.0775 -0.2025  0.2331
46857W        W89873  29.574  24.978   7.303  0.0483  0.1605 -0.2539
46858W        W89874  25.747  23.162  20.489  0.0169 -0.4213  0.1934
46859W        W89875   5.955  32.962   1.481 -0.3298  0.3881 -0.0111
46860W        W89876  34.316   3.350  23.364 -0.1877 -0.0475  0.1302
46861W        W89877  25.249  29.672  19.333  0.0278 -0.0620 -0.0937
46862W        W89878   9.828  30.850  27.458 -0.1281  0.0323  0.1488
46863W        W89879  18.649   7.834   7.163  0.0955 -0.0334 -0.1975
46864W        W89880  31.116   6.359  27.054 -0.0299  0.1601  0.0519
46865W        W89881  11.645  11.730  14.911  0.4281  0.2429 -0.1739
46866W        W89882  18.196  32.077   7.217 -0.1549 -0.0495 -0.1044
46867W        W89883  30.624  33.351   0.632  0.1660 -0.2794  0.1140
46868W        W89884  21.908   5.945   6.132  0.3982 -0.0537  0.1810
46869W        W89885   1.909   1.012   6.618 -0.0736 -0.0863 -0.1917
46870W        W89886  22.039   6.217   2.346 -0.1381  0.0407 -0.0577
46871W        W89887   3.905   5.641   9.582  0.0587  0.4275  0.0625
46872W        W89888  18.594  30.780  24.900 -0.4203 -0.0260  0.1326
46873W        W89889  28.535  16.758   2.531 -0.4698  0.0922 -0.3802
46874W        W89890  31.891  10.276  25.631  0.2338 -0.2822 -0.1043
46875W        W89891  33.371  31.638  24.759  0.0531  0.1848 -0.0699
46876W        W89892  28.501  10.064  19.510  0.2762 -0.0146  0.0675
46877W        W89893  32.596  33.424   1.266 -0.2679 -0.1622  0.3590
46878W        W89894  31.290   7.490   7.679 -0.3208 -0.0344 -0.0171
46879W        W89895  22.453  30.437   1.161  0.1531 -0.1601 -0.3637
46880W        W89896  11.170   2.359  23.833  0.1480 -0.2345 -0.1109
46881W        W89897  33.276  30.335   7.830  0.0185 -0.3153  0.1458
46882W        W89898   2.511  31.480  23.304  0.0531 -0.1192  0.0421
46883W        W89899  19.953  27.783  24.649 -0.0578  0.0182  0.1725
46884W        W89900  29.109   9.210  15.598  0.1481  0.2006  0.1312
46885W        W89901  31.725  29.280  24.008 -0.1731  0.1555  0.3575
46886W        W89902  32.466   6.277   8.685 -0.2535  0.1860  0.0039
46887W        W89903   2.903   4.970   0.015  0.0006 -0.3007 -0.0092
46888W        W89904  12.226   0.332  27.080 -0.0133 -0.5354 -0.0580
46889W        W89905   9.119  11.447  21.629 -0.1440 -0.2328 -0.2372
46890W        W89906  31.526  22.835  23.374 -0.1480 -0.0926 -0.1335
46891W        W89907   4.068  28.991   4.244 -0.1767 -0.1610 -0.1510
46892W        W89908  27.298  28.695   7.216  0.1044 -0.0825 -0.0612
46893W        W89909  15.970  11.211  23.399 -0.0345 -0.0107 -0.2066
46894W        W89910   7.357  19.047   8.757  0.0939  0.0706  0.2146
46895W        W89911   8.757  12.035   0.147  0.4016  0.1621 -0.2652
46896W        W89912   5.125  22.705  20.738  0.0227 -0.2225 -0.0555
46897W        W89913  30.242  13.900   7.380  0.1011  0.0020  0.0254
46898W        W89914   4.231  27.532  25.072 -0.0039  0.1681  0.3673
46899W        W89915  33.429  23.520   2.545  0.1592 -0.2506 -0.0045
46900W        W89916  23.209  19.491  20.981  0.1316 -0.0950  0.4877
46901W        W89917  17.945  22.730  27.146  0.2712 -0.1540  0.0097
46902W        W89918  32.378   4.471  17.731 -0.0713  0.1787  0.1245
46903W        W89919  22.716  18.859  14.033 -0.1655 -0.2844  0.2028
46904W        W89920  29.605  30.988  24.881 -0.0762  0.1488  0.1574
46905W        W89921   3.948   2.000  16.068 -0.1897 -0.0915 -0.3828
46906W        W89922  32.810  29.990  28.594 -0.2555 -0.2029 -0.0706
46907W        W89923   9.176   2.580   3.086  0.0430 -0.1290  0.1281
46908W        W89924   4.182  10.223   8.271 -0.5015 -0.1200 -0.0808
46909W        W89925  33.047  29.783   7.219 -0.3388 -0.2738  0.0500
46910W        W89926  17.973   3.717  17.542  0.0330 -0.2143 -0.0460
46911W        W89927  20.576   0.283   0.130 -0.0032 -0.4219 -0.3802
46912W        W89928   6.369  19.662  15.356 -0.2523  0.1153  0.0163
46913W        W89929   7.574  33.302  22.744 -0.0287  0.0295  0.3412
46914W        W89930  18.820  12.153  16.927 -0.1473  0.0059  0.5384
46915W        W89931  25.349  27.303  22.310 -0.1518 -0.1454 -0.3422
46916W        W89932  15.800  12.429  23.959 -0.2492  0.1817 -0.2034
46917W        W89933  14.435   1.896   1.549 -0.1571 -0.3446  0.1293
46918W        W89934   0.784   5.893  15.017  0.0984 -0.0400 -0.1461
46919W        W89935  21.556   6.652  28.226  0.1808  0.0026 -0.0747
46920W        W89936  13.881  28.365  15.419  0.1668 -0.2657 -0.2157
46921W        W89937  14.722  34.049  25.095  0.3262 -0.2550 -0.0420
46922W        W89938  30.596   7.611   2.000 -0.0396 -0.4632 -0.0968
46923W        W89939   3.298  11.667  15.158  0.0365  0.0410  0.1013
46924W        W89940   8.124  23.917  17.008  0.0234 -0.3764 -0.3259
46925W        W89941   1.204   9.269   6.986 -0.0444 -0.3308 -0.1167
46926W        W89942  33.148   9.403   6.278 -0.2414 -0.1534  0.0768
46927W        W89943  29.579  13.158  15.568 -0.1389  0.0776 -0.0339
46928W        W89944  15.487   4.063  21.261  0.0175  0.2881  0.1879
46929W        W89945   2.496  15.057  26.500  0.5023  0.3815  0.2545
46930W        W89946   7.224  19.040   3.956 -0.1552  0.0284 -0.0496
46931W        W89947  30.948  12.578  24.538  0.2300  0.1615 -0.2000
46932W        W89948   3.928  11.759   1.389  0.1955  0.0439  0.1335
46933W        W89949  33.592   0.951   5.812 -0.0303 -0.4216  0.0721
46934W        W89950  18.713   6.462   0.546  0.0590 -0.0348  0.1789
46935W        W89951  29.665   4.891  24.174  0.0220  0.0913 -0.2963
46936W        W89952  32.465  33.315  28.991  0.1209 -0.0071 -0.0820
46937W        W89953   1.506  13.427  26.380 -0.0047  0.1603 -0.2192
46938W        W89954  25.289   8.754   3.498  0.3714  0.1455 -0.0627
46939W        W89955  12.861  11.527  16.761  0.1394 -0.0280  0.0683
46940W        W89956  22.511  33.863  28.966  0.1913  0.0522  0.0845
46941W        W89957  31.628  27.975  24.194  0.0679  0.0568  0.0353
46942W        W89958   5.613   9.484  21.057 -0.0462 -0.0165  0.2525
46943W        W89959  13.841   1.758   6.061  0.0839 -0.1931 -0.1158
46944W        W89960   8.602   3.089   2.968  0.0985 -0.0961  0.0188
46945W        W89961  29.636   4.814   1.086  0.1204 -0.1805 -0.0631
46946W        W89962   0.894  26.551   5.053  0.2932  0.0696  0.0095
46947W        W89963   6.502   2.957  20.491 -0.3222  0.2894  0.2629
46948W        W89964   4.169  25.160  26.965  0.0283  0.1402  0.1457
46949W        W89965  28.553   9.936   5.731 -0.1763  0.3482 -0.0476
46950W        W89966  26.600  30.790  26.685  0.2071 -0.0755  0.2707
46951W        W89967  31.524  32.917  16.843  0.0368  0.0533 -0.1698
46952W        W89968  24.148   2.877   7.326  0.2089  0.5206 -0.3813
46953W        W89969   2.176  21.681  27.114 -0.0214  0.2763  0.3965
46954W        W89970  28.661  20.218  16.094 -0.2581 -0.1630  0.2704
46955W        W89971  24.839  16.571  16.933  0.0211  0.2844 -0.2810
46956W        W89972  27.603  33.628  11.168  0.0456  0.1867 -0.0036
46957W        W89973  29.470   9.636   5.914 -0.0701 -0.0163  0.0004
46958W        W89974  24.544   6.453  17.709 -0.0971 -0.0741  0.4547
46959W        W89975  29.778  21.874   4.957 -0.3820  0.2156 -0.3038
46960W        W89976   3.952   1.631  18.939 -0.0620  0.0508 -0.2524
46961W        W89977   6.129  27.354   1.794  0.1612 -0.0415 -0.0275
46962W        W89978  15.003   2.820  18.720  0.0477 -0.3958 -0.1912
46963W        W89979  23.508  28.201  23.254  0.3393 -0.2358  0.2115
46964W        W89980  34.034  24.143  23.387  0.0274  0.0543 -0.4067
46965W        W89981  28.447  29.361  20.762 -0.0479  0.0160  0.2007
46966W        W89982  18.654  29.185   8.992 -0.0278  0.2180 -0.1817
46967W        W89983  32.014  24.704  25.116 -0.0506  0.0296 -0.0738
46968W        W89984  27.524   8.516   1.318 -0.1501 -0.2401 -0.1624
46969W        W89985  30.227  21.851  19.480  0.0703 -0.0033  0.2417
46970W        W89986  30.371  27.353   8.402  0.1230  0.1472  0.1739
46971W        W89987   3.569  16.536  29.132  0.1446 -0.2037 -0.0730
46972W        W89988  21.835  25.813   5.594  0.2997 -0.1242  0.1239
46973W        W89989  27.121   1.939  18.066 -0.2643 -0.0194  0.0817
46974W        W89990   7.865  26.539  22.755 -0.0839 -0.0200 -0.3543
46975W        W89991   4.460   2.732   2.426  0.0181 -0.0125  0.1207
46976W        W89992  33.549   0.890  22.639  0.0830  0.2096 -0.0745
46977W        W89993   0.190  27.618  17.674 -0.0631 -0.2987  0.0555
46978W        W89994  27.266  27.848  25.199 -0.0995  0.0974 -0.1683
46979W        W89995  29.655   5.866   9.770  0.0100 -0.1155  0.0155
46980W        W89996  11.307   5.181  16.052  0.0076 -0.2944 -0.1201
46981W        W89997  34.680   2.770  26.887 -0.0905  0.0409 -0.0451
46982W        W89998  12.879   7.530  17.746  0.0299  0.1485 -0.0019
46983W        W89999  33.598  11.048   5.129 -0.0229 -0.0500  0.0460
46984W        W90000  24.228   5.585  26.915  0.0859  0.0661  0.0988
46985W        W90001  33.142  18.892  26.468 -0.1232 -0.0874 -0.0866
46986W        W90002   5.620  27.617  25.069  0.0017 -0.1068 -0.2704
46987W        W90003  13.733  10.045   9.218 -0.1303  0.0272  0.2851
46988W        W90004  11.655  30.261  26.061 -0.3717 -0.1369  0.0971
46989W        W90005  12.480   9.926   0.095  0.2171  0.0690 -0.2977
46990W        W90006  32.459   4.415  24.198  0.0264 -0.1993  0.1253
46991W        W90007   0.342   3.209  18.592 -0.1140 -0.0285 -0.0874
46992W        W90008   1.487  15.902  19.017  0.1044  0.1504 -0.3542
46993W        W90009  28.979  19.849  29.052 -0.2432 -0.0624  0.0079
46994W        W90010   3.073   7.578  23.189  0.1080 -0.0708  0.0441
46995W        W90011  11.364   0.344  28.247 -0.0901 -0.0505 -0.1221
46996W        W90012  27.758  29.657   3.729  0.2024 -0.1503  0.1075
46997W        W90013  28.398  14.166   1.487 -0.2188  0.3203  0.2769
46998W        W90014   0.858  15.526  29.173  0.2220 -0.1153 -0.0084
46999W        W90015  12.140  10.632   2.820  0.0701  0.2995  0.0452
47000W        W90016  30.473  27.619  17.157  0.0666 -0.3565 -0.1226
47001W        W90017   1.422  17.869  23.998 -0.0528 -0.2453  0.4088
47002W        W90018  28.390   0.691  23.251 -0.2830  0.0391  0.0982
47003W        W90019  17.286  34.092  23.865 -0.0850 -0.0941  0.2268
47004W        W90020  24.454  15.091  20.312 -0.0646  0.0287 -0.3119
47005W        W90021   1.451   2.060   8.812 -0.1713 -0.0965  0.1599
47006W        W90022  26.903   2.540  26.877 -0.1580 -0.0010  0.0660
47007W        W90023  12.065   8.104   7.544 -0.2587  0.1971 -0.3205
47008W        W90024  16.779  23.228  20.982  0.0807  0.2819  0.0143
47009W        W90025  34.772  31.115  28.605 -0.2543 -0.1060 -0.0583
47010W        W90026   1.688  16.683   7.107  0.0169  0.0640 -0.2069
47011W        W90027  31.776   8.827  24.180  0.0690 -0.2552  0.2388
47012W        W90028  29.439   6.467  19.111 -0.0987 -0.0925 -0.0414
47013W        W90029  33.075  11.058  25.951  0.0884 -0.1264 -0.0151
47014W        W90030   7.032   1.999   9.377 -0.0776  0.1064 -0.1365
47015W        W90031  30.337   7.798  28.071 -0.2157 -0.0240  0.2250
47016W        W90032  20.811   2.279   5.660 -0.1660 -0.0421 -0.0438
47017W        W90033   7.855  20.962   0.760 -0.1508 -0.1321 -0.0266
47018W        W90034  20.325   8.199  16.314  0.3796 -0.0219 -0.0150
47019W        W90035   1.777  14.547   2.070 -0.2080  0.1390 -0.1064
47020W        W90036  18.088  23.583  19.625  0.0999  0.3829 -0.0274
47021W        W90037  32.658   7.292  23.107  0.0691  0.1351  0.1944
47022W        W90038  31.489  21.149   2.811  0.1553 -0.0690 -0.0326
47023W        W90039  31.165  20.881   4.322 -0.0710  0.2203 -0.0501
47024W        W90040   6.472   8.382  29.035 -0.3405  0.2038  0.0306
47025W        W90041   2.257  29.009  27.135 -0.1642  0.1052 -0.3264
47026W        W90042   7.107   0.652  23.845 -0.0128  0.2197  0.1611
47027W        W90043   6.640  31.791   6.900 -0.4046  0.1813 -0.0391
47028W        W90044  11.010   5.181   4.312 -0.1385  0.3161  0.0469
47029W        W90045   1.260   7.172  21.917  0.1238 -0.0800  0.0029
47030W        W90046  34.672   1.345  19.713 -0.0115 -0.0912  0.1484
47031W        W90047  12.566  31.429   2.788 -0.0758  0.1793 -0.2231
47032W        W90048   8.368   6.568  26.179 -0.0014 -0.1556 -0.2009
47033W        W90049  24.405  33.954   9.731 -0.1727 -0.0266 -0.0686
47034W        W90050  31.115  29.479  16.818 -0.1975  0.6528 -0.0496
47035W        W90051  10.248   9.320   0.970 -0.0193 -0.2756 -0.4937
47036W        W90052  18.397   0.464   0.843 -0.2162 -0.3724  0.1146
47037W        W90053   6.523   1.049  18.973  0.2968 -0.1342 -0.0283
47038W        W90054   2.255   7.931   9.231 -0.1462  0.0064 -0.0905
47039W        W90055  29.547  16.951   5.324  0.1228 -0.0648  0.2968
47040W        W90056   0.433   6.973  15.957 -0.4254 -0.5653  0.2125
47041W        W90057  27.525   8.673  15.400 -0.0880  0.2604 -0.0763
47042W        W90058  28.026  34.280  17.426 -0.0108 -0.0290 -0.2343
47043W        W90059   3.746   1.694  10.092 -0.2478  0.4477 -0.0872
47044W        W90060  31.218  26.647  28.834 -0.0489 -0.0248 -0.0448
47045W        W90061  29.490   9.179   3.253 -0.0016 -0.1276 -0.0103
47046W        W90062   3.343  27.049  19.682 -0.0326 -0.1630 -0.0413
47047W        W90063   0.305  31.333  22.925 -0.2015  0.1467 -0.2738
47048W        W90064  31.294   2.577  23.465  0.0368  0.1143  0.0038
47049W        W90065  25.748  16.712  15.123  0.1049  0.0846 -0.0148
47050W        W90066  13.118  28.284   2.160  0.0021  0.2208 -0.1288
47051W        W90067  28.711  12.493  27.783 -0.0311  0.1456  0.0033
47052W        W90068  26.720   7.961   9.410  0.2006 -0.3056  0.0617
47053W        W90069   3.336  33.811  27.373 -0.1045 -0.0085  0.2906
47054W        W90070  26.000  33.160  18.312 -0.1394 -0.1841 -0.0058
47055W        W90071   1.499   4.629  23.074 -0.1609  0.0940 -0.1361
47056W        W90072  31.704  11.236  21.199 -0.0611 -0.0717 -0.3687
47057W        W90073  16.673  11.385  18.833 -0.0618 -0.4097 -0.1491
47058W        W90074  26.060  25.529  23.201  0.2196  0.0233 -0.3135
47059W        W90075   2.237   2.695  17.712  0.0212  0.3665 -0.1880
47060W        W90076  21.565  27.152  25.284  0.4752 -0.0863  0.1835
47061W        W90077   2.632   4.909  20.285 -0.1178  0.0172 -0.3989
47062W        W90078  15.865  23.612  16.650  0.2709 -0.3863  0.2799
47063W        W90079  31.252  11.598  20.331 -0.2686 -0.0003 -0.0301
47064W        W90080   4.817   5.978  19.979  0.2526  0.1412 -0.0669
47065W        W90081  12.994  26.044   3.175 -0.0547  0.3129 -0.1489
47066W        W90082  33.290  16.250  20.798 -0.2463 -0.0504 -0.0790
47067W        W90083   2.662   6.773  23.107 -0.1726 -0.0508  0.0377
47068W        W90084   3.320  33.081  14.652  0.1177  0.2373 -0.0487
47069W        W90085  22.732   1.856  22.022  0.0450 -0.1012  0.0899
47070W        W90086   4.952  28.380  26.623 -0.2966 -0.0400 -0.2396
47071W        W90087  34.193  28.784  21.899 -0.1022  0.0351  0.0858
47072W        W90088  28.001  27.174  29.024 -0.2402 -0.3255  0.0413
47073W        W90089  25.984   9.695  14.421  0.3471 -0.1241  0.1876
47074W        W90090   1.449  33.676  22.250 -0.1219 -0.1952 -0.0948
47075W        W90091   4.214  28.796  15.209  0.2810 -0.1278 -0.2117
47076W        W90092  25.685  14.306  24.942 -0.0563 -0.1353 -0.1525
47077W        W90093  12.692   8.445  20.079 -0.0731 -0.1862  0.2131
47078W        W90094   6.661  16.104  21.810  0.0315 -0.1224  0.1037
47079W        W90095  29.183   8.859  24.122  0.0886 -0.1712  0.0628
47080W        W90096  32.870  30.668  19.796 -0.1259 -0.1206  0.4396
47081W        W90097  32.359  18.289  20.913  0.0721 -0.0392 -0.2377
47082W        W90098  34.043   9.115  18.918 -0.0616  0.0479 -0.0605
47083W        W90099  29.936  32.619   3.686 -0.0242 -0.3499  0.0752
47084W        W90100  32.700  32.853  25.295 -0.0682  0.0354  0.1095
47085W        W90101   8.896   3.046  17.958  0.0226  0.0412  0.3183
47086W        W90102  15.180   6.509  15.491 -0.1037 -0.0834  0.2138
47087W        W90103  23.941  14.732  21.411  0.0774 -0.4395 -0.0645
47088W        W90104  12.361  19.182  22.289  0.0262  0.1182  0.0439
47089W        W90105  30.960   0.125  16.515 -0.0377 -0.0501  0.0280
47090W        W90106   8.590   0.418  16.802 -0.2810  0.1938 -0.1317
47091W        W90107   1.781  15.639  19.843 -0.0218 -0.2026 -0.0810
47092W        W90108  29.412   9.653  19.182  0.0901  0.1564 -0.0095
47093W        W90109   9.582  11.418  20.164 -0.2626 -0.0122 -0.1294
47094W        W90110   5.806   6.303  20.546 -0.0823 -0.2050  0.5166
47095W        W90111   3.221   4.385  22.915 -0.0084  0.2567 -0.0145
47096W        W90112  27.353  11.203  26.917 -0.0596 -0.0010 -0.1926
47097W        W90113  31.764   7.867  18.427 -0.3834 -0.1916 -0.0691
47098W        W90114   1.931  34.288  19.315  0.0979 -0.1566 -0.1749
47099W        W90115   2.754  29.719  22.685 -0.1448  0.1222  0.0707
47100W        W90116  30.656  13.318  18.025 -0.0910  0.6095  0.2408
47101W        W90117  17.504  32.876  24.772  0.1826 -0.1807  0.0347
47102W        W90118  31.710  10.528  23.527 -0.1231  0.1052  0.1830
47103W        W90119  30.123  33.201   8.695 -0.0387  0.1527 -0.2725
47104W        W90120   6.340  19.904   2.322 -0.2511  0.0171  0.1133
47105W        W90121  27.820  20.370  20.950 -0.1423  0.0483 -0.1131
47106W        W90122  23.347   1.165  22.301 -0.1322 -0.2145 -0.2497
47107W        W90123  31.595  31.381  17.380 -0.2051  0.1276  0.0726
47108W        W90124  29.542   3.589  25.113 -0.1439  0.3034  0.2219
47109W        W90125   6.476  28.618  18.508 -0.3288  0.1195 -0.2182
47110W        W90126  22.304  32.297  16.268  0.3140  0.2071 -0.1630
47111W        W90127  17.783  28.728  23.642  0.2631 -0.1115  0.1724
47112W        W90128   1.148  18.723  14.961  0.2412 -0.0514 -0.2664
47113W        W90129   4.339   6.427  13.716 -0.1081  0.2690 -0.3140
47114W        W90130  33.957  10.738  27.997  0.0089 -0.1777  0.2971
47115W        W90131   5.918  16.805  13.956  0.1938  0.2429 -0.3131
47116W        W90132   7.069   8.941  23.145  0.2198 -0.1305 -0.0179
47117W        W90133  24.949  12.700  21.268  0.4613 -0.0587 -0.1191
47118W        W90134  23.956  24.221  25.328  0.0182  0.0459 -0.0432
47119W        W90135   6.046   2.608  20.099  0.0919 -0.0414 -0.3832
47120W        W90136  31.289  30.208  23.250 -0.2527 -0.2704  0.0819
47121W        W90137  12.574   0.754  22.012  0.2311 -0.1158 -0.0541
47122W        W90138   1.351  21.674  15.729  0.1041 -0.1906 -0.3782
47123W        W90139  25.052  11.295  24.658  0.1165 -0.2971  0.1938
47124W        W90140   6.238   3.019  25.117  0.4069 -0.1586  0.3253
47125W        W90141  15.094   4.882  18.254 -0.1090 -0.2293 -0.1499
47126W        W90142   9.902  14.603  13.140  0.0693  0.0029  0.0951
47127W        W90143   5.614  31.805  24.988  0.0720 -0.0437  0.4222
47128W        W90144   2.570   3.218  23.692  0.1037  0.3949  0.2097
47129W        W90145  15.367   7.737  26.500  0.2785 -0.1427  0.0286
47130W        W90146  11.243   5.694  16.343 -0.3073 -0.3733  0.0173
47131W        W90147  34.117   0.058  25.672 -0.0438 -0.0954 -0.0812
47132W        W90148   5.386  31.054  17.161  0.1136 -0.0081  0.1599
47133W        W90149  22.051  26.384  21.637 -0.1047 -0.0647  0.0627
47134W        W90150  11.328  31.418  18.810  0.1963  0.0174  0.2773
47135W        W90151   1.941  24.213  26.102 -0.1541 -0.1484 -0.0526
47136W        W90152  25.108  18.463  23.393  0.0733  0.0417  0.1249
47137W        W90153   5.133  20.934  22.523 -0.0816  0.1384  0.0409
47138W        W90154  34.420   3.940  15.178 -0.3106  0.1154 -0.3177
47139W        W90155   0.097  23.228  24.986  0.0796  0.0136  0.0402
47140W        W90156  27.181   5.849  17.139 -0.0417  0.3079  0.0050
47141W        W90157  27.564  26.598  16.528  0.0752  0.1030  0.1789
47142W        W90158   2.477   4.661  28.345 -0.4550 -0.1749  0.0962
47143W        W90159  30.255   6.728  22.135  0.2139 -0.0397 -0.3139
47144W        W90160   9.108  28.181  14.314  0.0127  0.0273 -0.0157
47145W        W90161   3.474   2.969  28.162 -0.2680 -0.2770 -0.2276
47146W        W90162  28.777  12.920  17.843  0.0871 -0.0476 -0.0425
47147W        W90163   3.214  23.207   4.995  0.1686 -0.0265 -0.3350
47148W        W90164   6.946  34.320  26.477 -0.1605  0.0589  0.2916
47149W        W90165  33.521   6.635  25.297  0.1966 -0.1189  0.0504
47150W        W90166  30.549  21.525  22.974 -0.1244 -0.2198  0.0365
47151W        W90167   1.414  20.630  18.546  0.0122  0.0887  0.1342
47152W        W90168   1.170   0.266  24.911 -0.2243 -0.3243 -0.2548
47153W        W90169  11.357  30.928  19.776  0.1958 -0.2686 -0.0525
47154W        W90170   0.470   3.871  15.874 -0.1875 -0.1659 -0.2434
47155W        W90171   3.053   6.899  18.457  0.1992 -0.0845  0.1549
47156W        W90172   4.337   9.853  20.787  0.2751  0.1217 -0.2810
47157W        W90173   2.524  31.141   2.035 -0.1624 -0.1398  0.2335
47158W        W90174   1.887   2.224  21.205  0.2811  0.1522  0.0067
47159W        W90175   0.269  30.685  24.714 -0.0366 -0.0058 -0.1839
47160W        W90176  15.821  30.771  24.328  0.1133 -0.0833 -0.2771
47161W        W90177  25.546  26.337   5.270  0.0466 -0.1817 -0.1907
47162W        W90178  22.715   2.368  19.914 -0.0860  0.3492 -0.2269
47163W        W90179  33.104  14.157  26.796  0.2307 -0.2037  0.0640
47164W        W90180   2.114   0.610   2.044  0.0315 -0.1658 -0.0540
47165W        W90181  23.156   7.480  24.017 -0.0214 -0.1434 -0.0226
47166W        W90182  33.599   4.282  16.611  0.0472  0.2888  0.1406
47167W        W90183   9.214  10.265  13.890 -0.0310 -0.4658  0.0836
47168W        W90184  23.153   9.324  23.843 -0.1404  0.2831  0.2837
47169W        W90185   8.290  13.459  24.872 -0.1909 -0.0732 -0.0823
47170W        W90186   3.043  26.863  14.041 -0.0919  0.0849  0.0280
47171W        W90187   2.440   6.523  15.716  0.1990  0.2257  0.0439
47172W        W90188  11.731   9.789  27.233  0.2302 -0.4672  0.1528
47173W        W90189  32.442   9.784  22.978  0.1514 -0.0904  0.1774
47174W        W90190  27.501  11.462  14.709  0.0360 -0.2936 -0.1371
47175W        W90191  21.425   7.628  29.288  0.0453  0.0373 -0.1450
47176W        W90192  31.974  14.018  17.483  0.2925  0.0712 -0.1992
47177W        W90193   5.357   8.284  24.322 -0.0761 -0.1839  0.4301
47178W        W90194  21.935  30.281   2.337  0.3121 -0.2914 -0.0964
47179W        W90195  21.775   3.910   2.398  0.1043  0.5639 -0.0664
47180W        W90196  11.195   4.361  21.200  0.1612 -0.0387 -0.0739
47181W        W90197   7.092  16.016   1.430  0.2699 -0.2299  0.1616
47182W        W90198  28.210  32.179  17.583  0.3233  0.0808 -0.0240
47183W        W90199   7.324  30.232  21.215 -0.0192 -0.0313 -0.4823
47184W        W90200  20.289  29.438  18.949 -0.0733 -0.2341 -0.0940
47185W        W90201  28.742   4.882  23.429 -0.0545  0.0971  0.2090
47186W        W90202  30.158   7.895  21.965  0.4279 -0.0433 -0.0003
47187W        W90203  12.990   7.301  28.035  0.3706 -0.2521  0.0251
47188W        W90204  33.175   4.806  24.297  0.0730  0.0525  0.1985
47189W        W90205  33.948  11.783  14.645  0.1703  0.1414  0.0736
47190W        W90206  32.527   4.856  25.696  0.1819 -0.2915  0.1248
47191W        W90207   5.645  11.146  16.037  0.1117 -0.5464  0.0235
47192W        W90208   8.340  31.721  14.757 -0.0938 -0.0495  0.3154
47193W        W90209  33.997   6.354  15.022 -0.0181  0.1667 -0.0810
47194W        W90210  21.792  12.841  23.775 -0.1587  0.1367 -0.4291
47195W        W90211   6.367  33.637  17.341  0.2974 -0.1099 -0.2576
47196W        W90212   5.241  27.798  27.784  0.0553  0.2186 -0.1641
47197W        W90213   1.173  12.604  20.264  0.0007 -0.2981 -0.3451
47198W        W90214   8.456  17.038  21.542 -0.0189  0.4436 -0.0591
47199W        W90215  33.511  11.810  21.716  0.3420 -0.0654  0.0921
47200W        W90216  24.984   0.607  16.912  0.0347 -0.3420 -0.0653
47201W        W90217  32.205   8.873  21.569  0.0784  0.0230  0.0459
47202W        W90218   4.778  31.607  22.257 -0.0998  0.0739  0.0708
47203W        W90219   0.711  22.659  14.916 -0.0117  0.1135 -0.0495
47204W        W90220   2.734   5.223  28.048 -0.2662  0.1705 -0.0743
47205W        W90221  10.836  22.083  16.897 -0.0511  0.0157  0.0940
47206W        W90222   7.768  33.127  19.531  0.0284 -0.2034  0.1016
47207W        W90223   3.497  21.511  16.700  0.1297  0.0154  0.0724
47208W        W90224  31.490  16.593  18.096  0.0200  0.1765 -0.0797
47209W        W90225   1.848  26.729   2.057  0.1909  0.1319 -0.1600
47210W        W90226  24.795   6.178  18.768  0.1235  0.0941 -0.0009
47211W        W90227  12.520   5.839  15.803 -0.3704 -0.2273 -0.2013
47212W        W90228   0.893  29.220  22.907  0.2178 -0.0518 -0.4244
47213W        W90229  26.939  23.564  15.324 -0.2550 -0.2768  0.0701
47214W        W90230  32.215  14.706  21.869 -0.1603 -0.1200  0.3041
47215W        W90231  34.458  14.805  27.315 -0.1619  0.2905  0.0929
47216W        W90232   3.423  22.565   2.604 -0.0904  0.0472  0.0292
47217W        W90233  33.147   9.584  22.343  0.1235  0.1510 -0.3680
47218W        W90234   0.282   5.493   1.879  0.3260 -0.0391  0.4636
47219W        W90235  17.081  31.235  15.398 -0.0933 -0.0145 -0.1140
47220W        W90236  23.278  10.566  15.181 -0.3154  0.0168 -0.0552
47221W        W90237  20.709   6.915  16.722 -0.0804  0.0591 -0.0359
47222W        W90238  24.784  34.484  26.780  0.2483  0.2628  0.1879
47223W        W90239  25.387  33.603  17.398  0.1665  0.1737  0.1973
47224W        W90240  32.085   6.996  17.676  0.0496  0.1166 -0.0921
47225W        W90241  11.483   1.453  22.091  0.3022 -0.0431 -0.1634
47226W        W90242  21.206   0.161   0.938  0.3673 -0.3413  0.0144
47227W        W90243   1.924  31.313  21.210  0.0457 -0.2010  0.0885
47228W        W90244  20.625   2.939  27.194 -0.4046 -0.0205 -0.3800
47229W        W90245   1.633   7.371  16.077 -0.1469  0.2089 -0.0034
47230W        W90246   6.932   4.849  16.648 -0.0784 -0.0801  0.2652
47231W        W90247   9.443  23.931  25.206 -0.0593 -0.0727  0.0440
47232W        W90248   3.626  24.803  19.620  0.1253 -0.0602 -0.1067
47233W        W90249  27.980   3.705  15.500 -0.2941  0.0527  0.0671
47234W        W90250   5.929  19.727  22.462 -0.0350 -0.0416  0.1311
47235W        W90251  32.049  17.594  19.313 -0.0305  0.0049 -0.0672
47236W        W90252  31.479   8.820  14.460 -0.1790 -0.2052 -0.0638
47237W        W90253  34.334   4.422  21.993  0.3738 -0.1029  0.1585
47238W        W90254  25.487  34.208  27.485  0.0340  0.1159 -0.0531
47239W        W90255   3.828   2.773  21.497  0.1778 -0.0065  0.0673
47240W        W90256  11.876  24.933  16.318 -0.2238  0.1466  0.3121
47241W        W90257  20.361  29.484  15.244 -0.1799 -0.0933 -0.0702
47242W        W90258  11.815   8.161  20.706  0.2149 -0.2037  0.0948
47243W        W90259  10.502  33.957  21.135 -0.3589 -0.0266  0.0115
47244W        W90260  20.079  17.862  14.651 -0.1795  0.0927  0.3459
47245W        W90261  30.597  30.633   0.839 -0.1667  0.3554 -0.2133
47246W        W90262   6.846   8.523  18.421 -0.4578 -0.2126  0.0990
47247W        W90263   3.459  20.962  22.085  0.1431 -0.2651  0.0444
47248W        W90264  14.734  30.120  15.537 -0.0576 -0.1873 -0.2175
47249W        W90265  19.715  15.964  12.015 -0.0650 -0.2104  0.1677
47250W        W90266  33.551  34.107  14.483  0.1551 -0.1118  0.1870
47251W        W90267  15.890  32.324   0.620 -0.1742 -0.1475 -0.1066
47252W        W90268   4.051  13.540  25.794 -0.2407 -0.0161  0.0767
47253W        W90269  23.025  13.267  14.392  0.1132  0.1085 -0.0387
47254W        W90270   5.345   8.369  18.177  0.1535  0.0930 -0.0314
47255W        W90271  28.202  10.087  19.897 -0.1471 -0.0118  0.2232
47256W        W90272   1.841  22.392  22.063  0.0983  0.0951 -0.0626
47257W        W90273  33.656  28.329  19.048  0.2166 -0.0285 -0.4262
47258W        W90274   4.599  34.525  15.618 -0.1832  0.0377 -0.4098
47259W        W90275  18.621  24.100  13.284 -0.0846 -0.1300 -0.1667
47260W        W90276  27.923  32.325  24.459 -0.0496 -0.4937 -0.0839
47261W        W90277  29.103  11.209  16.140 -0.0841 -0.3218  0.2373
47262W        W90278  23.444   6.176   1.899  0.0382  0.1509 -0.0540
47263W        W90279  34.535   7.286  22.609 -0.1837 -0.0966 -0.0559
47264W        W90280   6.351  32.513  25.453 -0.0054 -0.3132  0.2238
47265W        W90281   7.827   6.925  22.202 -0.0643  0.0539 -0.2608
47266W        W90282   5.131  27.518  25.142 -0.2106 -0.1148 -0.0690
47267W        W90283  21.487  26.284   1.296 -0.3721 -0.1782 -0.0322
47268W        W90284  20.247   1.976  27.246  0.0485 -0.1385 -0.1765
47269W        W90285  10.872  14.683  13.478 -0.0429  0.0519  0.0861
47270W        W90286   7.590  18.049  19.593 -0.1151  0.0098 -0.1212
47271W        W90287   5.343  32.634  18.181  0.0260  0.1044 -0.0220
47272W        W90288  20.148   6.797  28.096  0.0700  0.3788  0.0308
47273W        W90289  30.356  33.334  26.857 -0.0374 -0.1005 -0.0106
47274W        W90290  32.466  32.616  23.689  0.1173 -0.0868 -0.0931
47275W        W90291  30.948  11.005  15.908  0.0564 -0.0318  0.2503
47276W        W90292  27.298  28.663   3.830 -0.1315  0.3751 -0.1894
47277W        W90293  34.360   2.070  21.823 -0.2160 -0.0713 -0.0808
47278W        W90294   2.179   9.433  15.793 -0.0423 -0.0667  0.1290
47279W        W90295  28.062   7.371  15.571 -0.0949  0.0375 -0.0003
47280W        W90296   6.556  10.910  17.651 -0.0571  0.3027  0.0029
47281W        W90297  21.136  25.816  26.814 -0.3431 -0.1151 -0.0288
47282W        W90298  17.485   2.692  17.654  0.0851 -0.1691  0.0749
47283W        W90299  26.730  19.192  20.180 -0.0326 -0.0957  0.1779
47284W        W90300   0.036  26.751  20.575  0.3280  0.0111 -0.0794
47285W        W90301   7.756  26.217   9.217  0.0270  0.0290  0.3615
47286W        W90302  25.948   2.817   0.382 -0.1114 -0.3487 -0.1857
47287W        W90303   9.370  25.375  16.572 -0.3315 -0.3266 -0.1424
47288W        W90304   2.843  13.768  20.998 -0.0054  0.1702 -0.0157
47289W        W90305  28.518   2.483  18.086  0.3466 -0.1572 -0.1021
47290W        W90306   0.994   1.662  16.333  0.4652 -0.3459  0.1979
47291W        W90307  11.220  14.742  17.534 -0.2022  0.0127 -0.1049
47292W        W90308  31.987  34.025   4.872  0.2035  0.0154  0.0571
47293W        W90309   0.861   4.571  18.298  0.2273  0.3575  0.1144
47294W        W90310  33.059  15.985  29.042 -0.0498 -0.3184  0.1199
47295W        W90311   0.307  11.474  28.788 -0.1389 -0.0178 -0.0667
47296W        W90312  32.051  26.763  17.452  0.1155 -0.1021  0.2257
47297W        W90313   6.277  12.299  15.123  0.1657 -0.0364  0.0882
47298W        W90314  29.081   8.001  29.220  0.3451  0.1779  0.0374
47299W        W90315  12.939  32.815  24.101 -0.0385  0.1188 -0.0253
47300W        W90316   3.265  21.943  23.203 -0.0902 -0.0990  0.0355
47301W        W90317  11.535  24.480  24.938 -0.1061  0.2934 -0.1998
47302W        W90318  25.438   1.372  18.322 -0.1270 -0.1197 -0.1027
47303W        W90319  28.037   5.660  17.198 -0.0291 -0.3469  0.1358
47304W        W90320  31.390  28.317  28.121 -0.0114 -0.1601 -0.1073
47305W        W90321   0.248  16.734   2.164  0.1184 -0.0936 -0.1204
47306W        W90322   2.071  34.693  22.876  0.3280 -0.0322  0.1625
47307W        W90323  13.074  32.879  14.740  0.1618 -0.1556  0.0523
47308W        W90324  27.056  20.650  17.725 -0.0603  0.1062  0.1787
47309W        W90325  11.732   4.892  10.409  0.2482  0.2965 -0.0091
47310W        W90326   0.334   0.258  15.711  0.0825 -0.2268  0.0966
47311W        W90327  24.515  19.722  20.855 -0.1274 -0.2236 -0.0415
47312W        W90328  30.368  31.846  16.531 -0.1317 -0.2104 -0.0100
47313W        W90329  30.351  20.392  22.033  0.2220 -0.0486  0.1312
47314W        W90330  26.392  12.266  20.546 -0.0911 -0.2009  0.0846
47315W        W90331   3.127   7.176  17.639 -0.3226  0.1002  0.1505
47316W        W90332   1.367  33.272  15.827 -0.1105 -0.2043 -0.1136
47317W        W90333   3.241   4.334  13.713 -0.1617  0.2465  0.0094
47318W        W90334   3.481  26.666  23.296  0.0531 -0.0335 -0.1529
47319W        W90335  29.672   5.121  20.621 -0.1772 -0.3421 -0.1120
47320W        W90336  11.912   0.550  20.656 -0.1271  0.0033 -0.0916
47321W        W90337   7.601   6.864  20.200 -0.2145  0.2999  0.0180
47322W        W90338   7.848   4.205  21.283 -0.2905  0.4683  0.2074
47323W        W90339  31.722  12.987  23.590  0.3220  0.1513  0.2351
47324W        W90340   1.634   1.182  18.808  0.1086 -0.2663 -0.2555
47325W        W90341  33.473  12.644  22.151  0.2210 -0.1199 -0.1317
47326W        W90342   2.989  26.568  15.023 -0.1101 -0.2331  0.1372
47327W        W90343  15.444  34.638  26.057  0.1182  0.4341  0.1410
47328W        W90344  24.398  20.618   8.126  0.0657 -0.0810  0.0170
47329W        W90345  28.134   6.298  15.582  0.2441 -0.0036  0.1136
47330W        W90346  21.439  14.513  22.270  0.0154  0.2965 -0.3601
47331W        W90347  27.148  12.557  20.311  0.0630 -0.0111 -0.0261
47332W        W90348   6.336  34.602  16.519 -0.0730  0.1970 -0.3230
47333W        W90349  33.381   6.585   7.478  0.3337  0.2493  0.1528
47334W        W90350  25.193  27.624  25.089  0.1702  0.0426  0.0452
47335W        W90351  27.355  10.327  17.919  0.1562  0.0286  0.0855
47336W        W90352  34.502  26.085  18.247 -0.1355 -0.2068 -0.1282
47337W        W90353  20.131  19.174  15.875 -0.0495  0.3226  0.0341
47338W        W90354  28.525  33.073  26.479 -0.2160  0.0290 -0.0382
47339W        W90355  33.713   3.325  15.485  0.2942  0.0057 -0.4006
47340W        W90356  18.516   6.764  20.505 -0.1698 -0.1266 -0.2097
47341W        W90357   1.803  27.730  28.291  0.2174  0.0709  0.1558
47342W        W90358   3.074  22.059  25.520  0.0685  0.0447 -0.4360
47343W        W90359  33.984   4.006  19.586  0.1987 -0.0176  0.3038
47344W        W90360   8.489  11.480  20.777  0.1211  0.1188 -0.2241
47345W        W90361  31.417   7.502  17.476 -0.3584  0.1973  0.2819
47346W        W90362  31.320   6.333  15.020  0.2151  0.1595  0.0477
47347W        W90363   5.575   1.259   5.282  0.1197 -0.0296  0.1049
47348W        W90364  26.976  33.764  27.441  0.0109  0.3870  0.0516
47349W        W90365   0.845  34.438   3.395  0.2429  0.3431 -0.0509
47350W        W90366   3.819  33.525  18.281  0.3164  0.2885 -0.0078
47351W        W90367  29.389   9.966  17.745 -0.2233 -0.2779 -0.1927
47352W        W90368  34.056  34.583  27.776  0.1861  0.2569  0.0591
47353W        W90369   9.471  32.267  17.624  0.2195  0.2761  0.0261
47354W        W90370  22.177  11.693  17.570 -0.1563 -0.1883 -0.0981
47355W        W90371   2.687   6.450   3.419  0.1175 -0.1654  0.0059
47356W        W90372   5.179  17.356  23.380  0.1906  0.1891  0.3285
47357W        W90373   5.078  10.501   5.028 -0.0408  0.1240 -0.0602
47358W        W90374   3.040   5.989  24.416  0.0336 -0.0753 -0.1846
47359W        W90375   3.555  11.727  16.888 -0.0763 -0.0286 -0.0170
47360W        W90376  33.999  12.646  19.179 -0.1308  0.1420  0.0019
47361W        W90377  19.598  29.596   4.022  0.0617 -0.1728 -0.2353
47362W        W90378   1.458   5.147  22.805  0.2692 -0.1960 -0.2665
47363W        W90379   3.305  25.706   7.274 -0.3778  0.0161 -0.1212
47364W        W90380   0.206   6.249  16.689 -0.0176 -0.2026  0.0539
47365W        W90381  21.131   4.085  14.626 -0.3336 -0.3381  0.1453
47366W        W90382  32.349   1.276  24.291  0.1784  0.2188  0.0347
47367W        W90383  33.166   0.413   6.783  0.0126  0.0730 -0.1351
47368W        W90384  21.139   0.489  22.873 -0.1662  0.1946  0.0028
47369W        W90385  22.921   4.682  16.949 -0.1846 -0.0357  0.0633
47370W        W90386  28.540  29.629  21.739  0.2980 -0.2293  0.1420
47371W        W90387  25.094  26.175  24.398  0.1538 -0.0759  0.1827
47372W        W90388  10.385   3.523  26.382 -0.1391 -0.0011 -0.1510
47373W        W90389  31.183   9.542  24.526  0.0166  0.1068 -0.0606
47374W        W90390  32.347  11.094  19.321  0.0477  0.1671 -0.0708
47375W        W90391  24.604   2.317  17.827  0.1837 -0.0074 -0.1181
47376W        W90392  11.974   5.790  21.321 -0.0927 -0.0376  0.3167
47377W        W90393   0.855  10.326  26.658 -0.0236  0.0949  0.2089
47378W        W90394   3.656  15.077  19.390  0.0563  0.2739  0.1790
47379W        W90395  26.810  30.828  26.163 -0.0943 -0.0849 -0.0165
47380W        W90396  31.730  26.320  16.707  0.1569  0.1877 -0.2406
47381W        W90397  31.174   7.929  17.336 -0.0614 -0.2469  0.1644
47382W        W90398  22.089  32.243  14.581  0.0057 -0.1597  0.0306
47383W        W90399  32.740  30.793  25.431  0.1908  0.2574 -0.1314
47384W        W90400  31.955  30.152  19.645 -0.1613 -0.2705  0.0464
47385W        W90401  10.952  33.604  24.421 -0.0422 -0.0564 -0.0902
47386W        W90402  33.103   6.445  15.233  0.0162  0.0877  0.0055
47387W        W90403   8.271  31.674  14.149  0.0840  0.2289 -0.1504
47388W        W90404  26.432  30.667  19.484 -0.3063 -0.1262 -0.1915
47389W        W90405  31.773   7.492  23.785 -0.0530  0.0697  0.0638
47390W        W90406  16.861  21.304  21.868  0.2387  0.2067  0.0816
47391W        W90407  14.590  23.895  13.902  0.0893  0.2111  0.1548
47392W        W90408  15.628  32.418  14.498 -0.1266 -0.0523 -0.1417
47393W        W90409  34.278   9.728  18.833 -0.0935 -0.0582 -0.0072
47394W        W90410  28.008  32.298  19.454  0.4880 -0.3941  0.0614
47395W        W90411   7.907  17.364   4.762  0.1456  0.0065  0.1787
47396W        W90412  23.976   7.308  16.559 -0.6586 -0.0035 -0.1813
47397W        W90413  23.517   2.877  21.492 -0.1119  0.1550  0.0235
47398W        W90414  15.941   7.923  28.720  0.3528  0.2014 -0.1125
47399W        W90415   5.404  25.304  18.640 -0.0500  0.1766  0.0807
47400W        W90416  12.407   0.592   0.553  0.4306 -0.1342  0.1139
47401W        W90417   3.761   9.958  15.179  0.1329 -0.2050 -0.0257
47402W        W90418  26.940   7.062  23.514 -0.1055 -0.2315  0.2660
47403W        W90419  23.989  33.515   0.863  0.3002 -0.2816  0.0508
47404W        W90420  25.558   5.064  14.791  0.1574  0.1640  0.0458
47405W        W90421  14.749   2.128  16.399 -0.0075 -0.1024 -0.1401
47406W        W90422  23.898   1.231  19.233  0.3459  0.1222  0.0734
47407W        W90423   1.025  33.114  28.385  0.1178 -0.1076 -0.0445
47408W        W90424   8.087  28.078  24.421 -0.4526  0.0578  0.1670
47409W        W90425  11.113  17.209   0.603 -0.1206  0.2103 -0.0204
47410W        W90426  32.980  14.966  17.671  0.0902 -0.4028 -0.0432
47411W        W90427  31.229   5.192  10.086  0.0166 -0.0438 -0.0142
47412W        W90428  32.805  10.651  17.384 -0.1361 -0.0978 -0.0652
47413W        W90429   1.234  11.186  14.471 -0.1141 -0.1219 -0.3043
47414W        W90430  28.423   1.194  18.857  0.0173  0.2836 -0.0346
47415W        W90431  27.751  33.266  16.705  0.2527  0.1510 -0.0330
47416W        W90432  30.917  17.953  14.020 -0.3048 -0.3188 -0.1745
47417W        W90433   0.737  29.022  24.983  0.2237  0.0713  0.3910
47418W        W90434  32.176   5.045  20.839  0.2416 -0.2471 -0.2199
47419W        W90435   8.874   0.431  17.889 -0.0041 -0.3562 -0.0870
47420W        W90436   7.831   7.615  16.489  0.0686 -0.1109 -0.3144
47421W        W90437  18.350   7.345  19.296 -0.0861 -0.1191  0.2004
47422W        W90438   4.812   3.111  16.817  0.1166 -0.1659 -0.0473
47423W        W90439  29.386   8.806  24.977  0.0173 -0.2843 -0.0362
47424W        W90440  28.521  13.034  14.382 -0.2061 -0.1607 -0.1200
47425W        W90441  28.892   6.034  25.941 -0.1078 -0.3297 -0.1027
47426W        W90442   0.334  10.412  21.711  0.3889 -0.3172  0.1733
47427W        W90443  33.309   8.924  17.343 -0.1668 -0.3158 -0.1315
47428W        W90444  18.979   8.325  27.497 -0.2833  0.1618  0.2261
47429W        W90445  23.253  12.568  16.197  0.3110  0.2495 -0.1081
47430W        W90446   0.570  31.054  17.831 -0.0060 -0.0404  0.0503
47431W        W90447   4.587  32.285  22.467  0.0045  0.0683  0.1096
47432W        W90448  33.436  13.845  26.093  0.4047 -0.1120  0.2252
47433W        W90449   1.756   0.894  25.493 -0.1612 -0.0274 -0.1584
47434W        W90450   2.891   1.325  25.699  0.4614 -0.3364 -0.0114
47435W        W90451  19.786  16.238  13.848  0.1631 -0.0851  0.1455
47436W        W90452  25.244   4.614  22.276 -0.2492 -0.0929  0.1237
47437W        W90453  34.749  34.762  25.816  0.1267  0.1019 -0.2397
47438W        W90454  26.538  24.835   3.350 -0.1386  0.0039 -0.0436
47439W        W90455  30.437  19.022  19.806 -0.2222  0.1146 -0.3003
47440W        W90456  12.069  33.261  29.199  0.0868  0.0614  0.0523
47441W        W90457  26.866   2.809  27.377  0.1048  0.0556 -0.0392
47442W        W90458  31.812  33.987  29.269 -0.1630  0.0713  0.0679
47443W        W90459  31.669   2.184  26.917  0.2355  0.1050 -0.0721
47444W        W90460   0.443  31.471  16.857 -0.2707 -0.1719 -0.3100
47445W        W90461  12.684  29.996  21.684 -0.0748  0.1692  0.0772
47446W        W90462  22.703   1.363  22.886  0.0061 -0.1024 -0.3552
47447W        W90463  26.075  31.354   5.850  0.1637  0.0905 -0.1444
47448W        W90464  34.728  30.301   5.125  0.2120  0.2069 -0.0830
47449W        W90465   0.904  10.235  23.014  0.1933  0.3427  0.1546
47450W        W90466  19.122  33.699  22.977 -0.2363 -0.1264 -0.0406
47451W        W90467  25.213   5.376  22.296  0.3607 -0.2961  0.2899
47452W        W90468   1.233  33.785  21.603 -0.1151  0.0018 -0.0652
47453W        W90469  21.998  13.616  27.179  0.4923 -0.1851  0.1311
47454W        W90470  17.823  22.782  23.558  0.0288  0.0204  0.0752
47455W        W90471  11.381  24.875  24.707  0.0843 -0.0463 -0.0959
47456W        W90472   4.053  14.188  19.742 -0.3508  0.1505  0.1923
47457W        W90473  13.255  13.056  19.963  0.0695  0.0018 -0.3111
47458W        W90474  30.760  20.322  27.730 -0.1839 -0.1013  0.0375
47459W        W90475  33.001  18.713  23.497  0.0031  0.0391 -0.0854
47460W        W90476   6.472  29.389   0.694 -0.1099  0.0966  0.0238
47461W        W90477  33.395   6.731   1.111 -0.0430  0.0377 -0.0493
47462W        W90478  26.776  29.928   8.192  0.1542  0.0846 -0.2018
47463W        W90479  31.429   5.350  16.853 -0.1689  0.2658  0.3944
47464W        W90480   0.127   6.171  25.696 -0.3419  0.0066 -0.0160
47465W        W90481   2.432  33.327  18.599 -0.1210 -0.4189  0.1305
47466W        W90482  30.953   4.135  17.996  0.0544  0.2819  0.2646
47467W        W90483  25.306  22.374  25.730  0.3789 -0.0360 -0.0590
47468W        W90484  31.313  19.304   1.428 -0.0508  0.1870  0.0215
47469W        W90485  30.560  24.315  19.274  0.2797  0.1817 -0.2863
47470W        W90486   8.724   9.259  19.909 -0.2876 -0.0956  0.1105
47471W        W90487  16.379   0.794  14.550  0.0328  0.1279  0.2359
47472W        W90488  13.541  11.423  25.321 -0.1930 -0.0462 -0.3083
47473W        W90489   3.399  27.189  24.679 -0.0525  0.5462 -0.0342
47474W        W90490  12.991  29.761  21.287  0.1486 -0.0786  0.2993
47475W        W90491   5.495  25.843  16.883  0.0388  0.2637 -0.0966
47476W        W90492  15.720  16.781  16.052  0.1007  0.2432  0.2114
47477W        W90493   0.593  19.330  22.843 -0.0479  0.1786  0.1605
47478W        W90494   5.422   1.213  20.596  0.1256 -0.0686 -0.2695
47479W        W90495  19.691   2.144  19.240 -0.1862 -0.2240  0.0139
47480W        W90496   6.252   4.854  21.716  0.0756 -0.3388 -0.0184
47481W        W90497   1.326   8.147  26.228 -0.2716 -0.2068 -0.1313
47482W        W90498  27.542  11.087   8.975  0.1066 -0.0975  0.1414
47483W        W90499  11.997  33.063  19.719  0.1000 -0.3714  0.1622
47484W        W90500  24.444   3.537  24.356  0.0276  0.0664 -0.1011
47485W        W90501   2.267   1.461  15.289  0.2414 -0.0108  0.4200
47486W        W90502   1.983  10.058   1.446  0.0651  0.1572 -0.2841
47487W        W90503  30.834  19.811  25.839  0.2117  0.0160  0.1115
47488W        W90504  13.625  33.395  24.337  0.2830  0.1768  0.1150
47489W        W90505  29.658  12.295  17.625 -0.0147  0.0805 -0.2081
47490W        W90506  28.648   1.873  20.942 -0.1369  0.1765  0.2193
47491W        W90507  26.279  10.516  21.865 -0.3730 -0.0325  0.2221
47492W        W90508  26.993   2.129  29.292  0.4610 -0.1457  0.0731
47493W        W90509  31.865   5.325  15.630 -0.2034  0.1500  0.0756
47494W        W90510   9.611   3.771   9.922  0.1150  0.0002 -0.1082
47495W        W90511  23.103   9.696  22.124  0.0717 -0.0538 -0.1455
47496W        W90512  10.653   4.150  23.160  0.0284  0.1255 -0.2411
47497W        W90513   7.557  26.514  14.356 -0.0767  0.1709 -0.1431
47498W        W90514  24.521  25.482  17.940 -0.0384 -0.1422 -0.1405
47499W        W90515  23.128  10.723  24.284  0.0367  0.0454  0.0699
47500W        W90516   6.004  26.113  22.842  0.2521 -0.1482  0.1015
47501W        W90517   5.562  21.440   3.466  0.0711 -0.2073  0.0351
47502W        W90518  33.325  19.968  16.075  0.1560 -0.0646 -0.2423
47503W        W90519  33.984  11.137  25.900 -0.0678  0.2536 -0.2065
47504W        W90520   0.823   7.215  26.186 -0.0528 -0.0346 -0.2580
47505W        W90521  31.524  11.370   4.948  0.0157 -0.0171  0.1281
47506W        W90522   2.932  29.228  15.438 -0.0553  0.1081 -0.1164
47507W        W90523  20.967   4.728  20.409  0.2740  0.3111  0.2002
47508W        W90524  21.702   6.917   1.200 -0.1648 -0.0849 -0.1327
47509W        W90525  24.557   1.550  26.149 -0.0849 -0.2179  0.0986
47510W        W90526  31.598   4.581  22.230 -0.2158  0.0511 -0.3253
47511W        W90527   3.764  34.361   1.769  0.0052  0.0359 -0.0387
47512W        W90528  28.452  12.785  18.753  0.1837 -0.1910  0.1732
47513W        W90529   7.587  17.726   1.959 -0.1170 -0.0393  0.0455
47514W        W90530  29.186  33.217  24.355 -0.0465 -0.1961  0.0776
47515W        W90531  26.859  16.845   2.775  0.0733  0.0700 -0.2486
47516W        W90532  31.946  23.182  16.400  0.0518  0.2119  0.1890
47517W        W90533  29.530  16.735  27.741 -0.1915  0.1871 -0.2654
47518W        W90534   8.961   2.432  20.210 -0.0420 -0.0421  0.2384
47519W        W90535   0.912  33.916   0.878  0.3841  0.1058  0.2102
47520W        W90536  16.701   7.043  22.897  0.0760 -0.0905  0.0395
47521W        W90537  31.700  13.506  19.001  0.0388  0.0481 -0.0974
47522W        W90538  30.743   8.317   5.335 -0.1763  0.1265 -0.3395
47523W        W90539  30.608  15.619   0.229 -0.0796 -0.0392 -0.3280
47524W        W90540   2.060  33.895  17.247  0.2857 -0.2261 -0.2261
47525W        W90541  16.557   0.557   7.673 -0.2938 -0.1890  0.1573
47526W        W90542  11.481  18.957  20.642  0.0973 -0.0331  0.0858
47527W        W90543  29.428   0.560  26.403 -0.4618 -0.4365  0.0256
47528W        W90544  32.028   8.566  23.779 -0.0039 -0.1357  0.1963
47529W        W90545  10.916  33.799   1.278  0.1797 -0.1210  0.1834
47530W        W90546  27.577   3.338   4.769  0.2422 -0.3936  0.0443
47531W        W90547  33.562   7.453   0.137  0.0320 -0.1353  0.1146
47532W        W90548   8.232  15.780  18.159  0.2912 -0.3574  0.1568
47533W        W90549  15.649   6.728  14.462 -0.1659  0.1255  0.2685
47534W        W90550  20.959  25.451   2.317 -0.3485  0.1638 -0.2595
47535W        W90551   0.773   3.575   5.407  0.2236 -0.1060  0.0290
47536W        W90552   0.016   3.331  15.498  0.0842 -0.1190  0.1380
47537W        W90553  24.507  26.790   6.046 -0.0556  0.3432 -0.1984
47538W        W90554  21.423  18.148   2.936 -0.3122 -0.2646 -0.0167
47539W        W90555  29.678   1.867  23.714 -0.0772  0.3266 -0.0147
47540W        W90556  25.042  18.507  18.049  0.3030  0.0416  0.0464
47541W        W90557  10.002   5.228  27.958  0.2983 -0.2543 -0.1519
47542W        W90558   7.548   6.266  23.683 -0.3619  0.3261  0.1688
47543W        W90559  18.551  32.978  17.167  0.2887 -0.2019  0.0030
47544W        W90560  32.839   3.795  17.313  0.0791  0.0326 -0.3489
47545W        W90561  20.838   6.718  15.897  0.0496  0.1089  0.2858
47546W        W90562  20.010   9.626  22.448 -0.3579  0.2042  0.3001
47547W        W90563  19.085   1.973  23.557  0.0133 -0.3037  0.1458
47548W        W90564  26.802  28.717  24.014 -0.2922  0.1754  0.0725
47549W        W90565  24.160  31.685  20.810  0.1099  0.3761  0.0419
47550W        W90566  28.416   6.452  15.137  0.1992  0.2716 -0.0290
47551W        W90567   1.377   7.457  18.851  0.2395  0.1793  0.1031
47552W        W90568  31.061  31.201  25.111 -0.0930 -0.0759  0.0270
47553W        W90569  14.392  31.309  20.171  0.0330  0.4519 -0.0696
47554W        W90570   2.112  18.128   1.942  0.1635 -0.1570  0.2324
47555W        W90571  32.695   1.655  17.227  0.1717  0.1333 -0.2393
47556W        W90572   0.438   7.722  23.784  0.0290 -0.0355 -0.1051
47557W        W90573   1.674   4.025  14.683 -0.2918 -0.1582  0.1422
47558W        W90574  17.245  34.254  29.152  0.1959 -0.2083  0.1249
47559W        W90575  33.305   5.838  20.271 -0.1404 -0.0413  0.0899
47560W        W90576   6.029   4.538   3.032 -0.6541 -0.2357  0.1731
47561W        W90577   6.892  10.596  17.002 -0.0572 -0.0815  0.0936
47562W        W90578   0.841  13.548  23.564  0.1064 -0.0783 -0.2335
47563W        W90579  28.542   3.905  20.300  0.1047  0.2048  0.0992
47564W        W90580  16.351   4.989  19.284  0.1166  0.0197 -0.2112
47565W        W90581  33.684   0.214  10.165 -0.2391  0.0390 -0.2729
47566W        W90582   7.162   1.008  15.443 -0.0847 -0.1512  0.1396
47567W        W90583  34.668   8.636   5.670  0.0457 -0.0039 -0.2422
47568W        W90584  24.092   6.492  21.991  0.2276  0.1099  0.2184
47569W        W90585   1.218   0.094  26.881  0.2122  0.0870 -0.0406
47570W        W90586   0.543  12.786  18.993  0.0347 -0.2626  0.0716
47571W        W90587  13.198  29.819   2.391 -0.3667 -0.0790  0.2633
47572W        W90588  23.760  17.522   1.304 -0.2017  0.1915  0.2569
47573W        W90589  15.731   4.849  19.986 -0.2902  0.1588 -0.3051
47574W        W90590  15.520  34.063  17.662 -0.0524 -0.1557 -0.1009
47575W        W90591   1.162  13.565  21.360 -0.4239  0.2324 -0.1368
47576W        W90592   8.880  32.981  26.648 -0.0804 -0.2201  0.1064
47577W        W90593  17.826  19.775  13.477  0.3398  0.0305 -0.1996
47578W        W90594  26.932  10.539  22.754  0.0721 -0.0337 -0.0493
47579W        W90595  34.257  16.162  20.110  0.0964 -0.1704  0.1523
47580W        W90596  31.216  14.069  22.252 -0.2970 -0.0101 -0.2597
47581W        W90597   9.493   6.634   3.247 -0.4447  0.0289 -0.0360
47582W        W90598   1.238  31.461  18.046 -0.1771 -0.2294  0.0095
47583W        W90599  33.015  34.102  20.039  0.1509  0.0976 -0.1985
47584W        W90600   5.673   9.403  17.415  0.2086  0.0247 -0.2129
47585W        W90601  28.279  29.152  16.819  0.0512 -0.1483  0.2448
47586W        W90602  32.294  11.486  23.154  0.0604 -0.1448 -0.0464
47587W        W90603   5.290  30.631   1.771 -0.1569  0.0980  0.1952
47588W        W90604   2.700   1.847   7.123  0.1968 -0.0060  0.0646
47589W        W90605  26.142  28.705  16.160  0.0413 -0.0346 -0.0140
47590W        W90606  14.436  29.566  27.241  0.0107 -0.1380  0.1018
47591W        W90607   5.097   1.191  15.333  0.1293  0.3107  0.1011
47592W        W90608  11.360   8.041  17.397 -0.0464  0.2016  0.0024
47593W        W90609  23.921   4.726  21.936  0.1327  0.0083 -0.0978
47594W        W90610  23.717  31.751  10.364  0.1252  0.0594  0.1216
47595W        W90611   9.874  16.359  24.020  0.0290  0.2083 -0.0020
47596W        W90612  12.864   8.170  14.128 -0.1797 -0.0784 -0.3428
47597W        W90613  31.067  22.718  17.281 -0.1199 -0.1024 -0.1538
47598W        W90614  17.640   6.413  22.086  0.0427 -0.1464 -0.1554
47599W        W90615   7.396   4.324   3.256 -0.1136 -0.0217 -0.1918
47600W        W90616  11.469   1.269  15.772  0.0342  0.2389  0.1321
47601W        W90617  11.812  20.368  14.178  0.2117 -0.1324  0.2910
47602W        W90618  29.884  18.077  16.985 -0.3247 -0.1716 -0.0018
47603W        W90619  20.385   4.608  26.684 -0.3014 -0.0955 -0.0568
47604W        W90620  12.781  23.712   4.845  0.1834  0.3241  0.0988
47605W        W90621   9.384   6.827   0.172 -0.2636 -0.2298  0.3023
47606W        W90622  29.037  25.772   4.769 -0.2386  0.1825  0.2780
47607W        W90623   5.131  32.827  16.009  0.0223 -0.1543  0.0820
47608W        W90624   5.027   9.149  16.300  0.2076  0.0072 -0.2478
47609W        W90625   0.744   0.447  28.964  0.1739 -0.2285  0.1110
47610W        W90626   5.178   4.866  21.539  0.2212  0.1294 -0.1068
47611W        W90627   8.404   5.883   0.163 -0.0888  0.3970  0.1708
47612W        W90628  11.021  13.029  20.010  0.2313 -0.1580 -0.0372
47613W        W90629   1.457   4.567  24.837 -0.1767  0.1723 -0.0800
47614W        W90630   1.455  16.294   6.710  0.0381  0.1628  0.1166
47615W        W90631  24.581  33.629  15.696  0.1656 -0.1345  0.0414
47616W        W90632  26.570  29.690  25.724  0.0239  0.1528  0.5914
47617W        W90633   3.721   7.857  17.713 -0.0394  0.0850 -0.1287
47618W        W90634   4.468   3.516  15.942  0.0180 -0.0836  0.1076
47619W        W90635  17.965   2.264   0.078 -0.1192 -0.1663 -0.2650
47620W        W90636  19.163  15.460   7.247 -0.0508  0.2919  0.2536
47621W        W90637   0.798   1.412  15.412 -0.2262 -0.0243 -0.1491
47622W        W90638   0.760  13.427  21.647 -0.1480 -0.0197  0.0037
47623W        W90639  34.366   3.195  17.542 -0.1802  0.1018 -0.0581
47624W        W90640  19.861  14.828  13.656 -0.1644 -0.0751  0.1340
47625W        W90641  33.914  30.703  21.673 -0.1821 -0.0655  0.1748
47626W        W90642  18.829   0.028  20.679 -0.0668 -0.0299  0.2857
47627W        W90643  30.262   9.131  28.366  0.0020 -0.0748 -0.3070
47628W        W90644  21.759   6.655  21.563  0.1654 -0.1151  0.2163
47629W        W90645  29.152  13.317   0.059 -0.1538 -0.4647 -0.0045
47630W        W90646  21.047   7.058  25.084 -0.0163 -0.3205 -0.2732
47631W        W90647  22.111  33.539  15.997  0.2375 -0.0372  0.2837
47632W        W90648  19.522   7.353   3.046  0.2161 -0.3095 -0.2144
47633W        W90649  18.241  11.610  18.376  0.3495  0.0999  0.1336
47634W        W90650  33.954   6.904  26.801  0.1055  0.0633 -0.1656
47635W        W90651   9.792   0.118   8.407  0.0935 -0.0804 -0.1681
47636W        W90652   0.302   5.519   0.350  0.1189  0.0830  0.0289
47637W        W90653  23.887  27.531  25.907  0.1063  0.1334 -0.2326
47638W        W90654  22.288  16.161  23.233  0.0308 -0.0685 -0.0003
47639W        W90655  11.472   1.239  25.814  0.0370 -0.1985  0.2532
47640W        W90656  22.685   4.936  18.394  0.0879  0.2218 -0.1743
47641W        W90657  24.578   0.063  17.530  0.0170  0.0121  0.0751
47642W        W90658  12.154  34.186  22.710  0.1139  0.3755  0.2153
47643W        W90659  22.713  13.135   6.126 -0.1129  0.2411  0.0203
47644W        W90660  30.578  15.218  24.722 -0.1151 -0.0506 -0.1313
47645W        W90661  30.789  11.836  26.188 -0.0451  0.0191  0.0546
47646W        W90662  31.098   6.346  22.481 -0.0629 -0.1610  0.1035
47647W        W90663  10.087  14.286  16.952 -0.0064  0.0074 -0.1821
47648W        W90664   4.620   7.178  16.397  0.1371 -0.0151  0.1385
47649W        W90665  28.648  30.827  16.563 -0.0015 -0.0880 -0.0095
47650W        W90666   9.172  10.760  15.301  0.1031  0.2958  0.1011
47651W        W90667  16.838   6.944  16.510 -0.1431 -0.2531  0.3766
47652W        W90668   6.502  32.289   4.606  0.1035  0.0023 -0.0282
47653W        W90669  31.079  13.406   6.481  0.0814 -0.0486  0.1600
47654W        W90670  11.704  34.067  26.478 -0.0901 -0.2622 -0.0357
47655W        W90671  10.907  34.731  24.307  0.1451  0.3609 -0.0637
47656W        W90672  22.730  29.992  27.591 -0.0696  0.0708  0.1405
47657W        W90673   2.349  31.192  15.005  0.0882 -0.1030 -0.0855
47658W        W90674   3.352  32.699  24.576 -0.3107  0.0722  0.1027
47659W        W90675  18.214  11.116  22.038 -0.3928 -0.0518  0.0969
47660W        W90676  22.981  14.409  26.080  0.0508 -0.1432  0.1488
47661W        W90677   6.297  30.126  16.904 -0.1500 -0.1143  0.0109
47662W        W90678  29.380   2.847  28.373 -0.1008 -0.0239 -0.0627
47663W        W90679   3.825  30.565  17.545 -0.1132  0.1854  0.2535
47664W        W90680   4.521   3.412  21.276  0.0895 -0.1596 -0.0780
47665W        W90681   6.011  26.734  14.433 -0.1335 -0.1052 -0.0482
47666W        W90682  31.391   5.374   7.628 -0.0449 -0.0766 -0.0624
47667W        W90683  31.667  30.810  27.412  0.2841 -0.1444 -0.0324
47668W        W90684  24.303  32.172  21.553  0.0475 -0.1393 -0.1222
47669W        W90685  11.565  14.386  20.487 -0.0380  0.2455  0.0763
47670W        W90686   1.117  18.504  20.747 -0.1122  0.1893  0.1719
47671W        W90687   4.507  19.051  23.863  0.0221  0.1800  0.4815
47672W        W90688  25.156  18.319  15.826 -0.0694  0.0631 -0.0606
47673W        W90689  33.175  29.813  21.162  0.1155  0.0123  0.0998
47674W        W90690  14.122  24.294  15.361  0.3449  0.2870 -0.2417
47675W        W90691  33.898  16.697  22.263 -0.2161  0.2735  0.0977
47676W        W90692   6.165  29.873  19.773  0.2472 -0.1309 -0.0196
47677W        W90693  29.033   2.613  21.812 -0.0599  0.2419 -0.2032
47678W        W90694  14.852   2.849  21.612  0.2970  0.0161 -0.1247
47679W        W90695  34.134   2.217  25.245 -0.0868  0.1134  0.0378
47680W        W90696  12.572  10.357  28.120 -0.1146 -0.0001 -0.0611
47681W        W90697   0.999  14.239  24.258 -0.3085 -0.2558  0.3691
47682W        W90698  33.547   5.224  23.955 -0.1128 -0.0398 -0.1100
47683W        W90699  18.023  34.148   1.651 -0.0608  0.0705  0.0761
47684W        W90700  27.305   8.175  24.510  0.1431  0.0099 -0.0697
47685W        W90701  30.966   0.208  28.491 -0.0938  0.0144  0.0109
47686W        W90702  25.692   8.507  22.393  0.1523 -0.1544 -0.1728
47687W        W90703  28.574   1.755   1.202 -0.4047 -0.0540 -0.1804
47688W        W90704  33.791  28.362  21.883  0.3315  0.0516 -0.2850
47689W        W90705   6.966   8.690   2.185  0.0107 -0.0894  0.4325
47690W        W90706   2.581   1.320  22.940  0.3503  0.2620  0.2443
47691W        W90707   1.215   6.678  23.145 -0.2041 -0.2032  0.0492
47692W        W90708  27.329  13.279  22.304  0.2810 -0.1372 -0.0631
47693W        W90709   0.594  34.218  18.453 -0.0523  0.0374 -0.1081
47694W        W90710   2.552   7.874   0.168  0.2368 -0.1386 -0.1719
47695W        W90711  18.912   5.800  14.601 -0.0646 -0.0664  0.3579
47696W        W90712  25.364   7.252   4.717 -0.0115 -0.1054 -0.2633
47697W        W90713   7.635  33.022  27.786  0.0021  0.0075  0.0915
47698W        W90714  33.209   4.504  17.641 -0.0959  0.2215 -0.1758
47699W        W90715  33.967  27.439  15.786 -0.0250 -0.1774  0.0399
47700W        W90716  26.256   5.063  25.903  0.0360  0.4968  0.0342
47701W        W90717   9.819  27.462  24.571  0.0390  0.0676 -0.1634
47702W        W90718  33.348   5.190  20.220 -0.0718  0.2827 -0.4264
47703W        W90719  15.498   2.740  22.435  0.6585 -0.1320  0.1205
47704W        W90720  17.324   6.626   5.845 -0.2469  0.0394 -0.0286
47705W        W90721  22.724   1.304  26.615  0.1929 -0.0238  0.1377
47706W        W90722   8.940   8.085  24.118 -0.1900  0.0844  0.1498
47707W        W90723  30.406  26.928  27.642 -0.5374  0.2569 -0.1226
47708W        W90724   3.739   6.356   4.857  0.0747 -0.4234 -0.1602
47709W        W90725   3.858   9.545   0.505 -0.0485  0.0450  0.1903
47710W        W90726  27.970  25.106  18.046 -0.0751  0.1055 -0.2072
47711W        W90727  21.311   5.839  17.493 -0.0349  0.2782 -0.1824
47712W        W90728  22.923   1.018   3.909 -0.2817  0.0145  0.1019
47713W        W90729  34.334   9.847   0.188 -0.2395  0.2135 -0.2857
47714W        W90730   9.899   8.057  21.007  0.0938  0.1951  0.1694
47715W        W90731  17.060   6.253  14.143 -0.3294 -0.2951  0.1533
47716W        W90732   1.064   8.604  25.379  0.0340  0.3570 -0.1994
47717W        W90733  21.986   3.340   1.417  0.0620  0.1136 -0.1846
47718W        W90734   1.132  12.954   8.347  0.1432 -0.3402 -0.2018
47719W        W90735  31.246   4.500   9.015  0.2169  0.3702  0.0147
47720W        W90736   8.741  23.249  27.657 -0.1106  0.3424 -0.0676
47721W        W90737  30.903  21.973  20.309 -0.0537 -0.1895 -0.0226
47722W        W90738  19.212   2.616   0.742 -0.1216  0.0517 -0.0417
47723W        W90739  17.717   8.262  17.319 -0.1395  0.4345  0.0972
47724W        W90740   3.683   1.661   9.463  0.0390  0.1045 -0.1219
47725W        W90741   5.067   6.159  18.495  0.0221 -0.3730  0.1030
47726W        W90742  29.861  13.818  22.591  0.0039 -0.0723 -0.2363
47727W        W90743   1.546   1.417   1.331 -0.2270 -0.2019 -0.1388
47728W        W90744   8.341  21.181  28.594 -0.2435 -0.0773  0.0967
47729W        W90745   5.641  22.043  22.634  0.1971 -0.0023 -0.1695
47730W        W90746  13.877   7.771   5.526  0.0213  0.0546  0.0084
47731W        W90747  23.181   8.604  17.486  0.1547 -0.4680 -0.2152
47732W        W90748  31.822   0.408  23.485  0.2111 -0.1268 -0.1052
47733W        W90749   0.813  32.925   7.355 -0.0342 -0.0800 -0.2970
47734W        W90750   2.346  27.307  26.879 -0.1694  0.1907 -0.1114
47735W        W90751   3.315  17.588  23.115  0.2281  0.1276  0.2520
47736W        W90752  16.885  32.919   5.093  0.3689  0.0715 -0.1390
47737W        W90753  25.137  32.853  23.669  0.0136  0.0493  0.1743
47738W        W90754   8.619  17.076  23.499 -0.2032  0.1192 -0.1136
47739W        W90755  34.560  13.752  16.431  0.1266  0.2020 -0.1834
47740W        W90756   4.474  11.303  26.267  0.0682 -0.1670 -0.1275
47741W        W90757   1.756  20.872  20.369 -0.0318  0.0872 -0.3539
47742W        W90758   5.280  29.157  22.905 -0.1543  0.0961 -0.0969
47743W        W90759  29.246   7.556  25.267 -0.0902  0.0876 -0.0872
47744W        W90760  28.620  24.503   6.870  0.0097 -0.1043  0.0149
47745W        W90761  30.895  34.520  20.462  0.2168 -0.1189 -0.0958
47746W        W90762  31.252   2.733   0.549 -0.0948  0.2097  0.0076
47747W        W90763  29.042   2.360  21.259 -0.1090 -0.0296 -0.1575
47748W        W90764   5.066  10.548   4.494 -0.1776  0.2219  0.0898
47749W        W90765  15.959  26.213   9.149  0.1757  0.1373 -0.0390
47750W        W90766  32.639  33.511   0.118  0.0746  0.2073  0.0892
47751W        W90767  10.390  29.515  24.761 -0.3271  0.1541  0.4219
47752W        W90768  29.786  27.445  16.008 -0.0462  0.0490 -0.3308
47753W        W90769  25.746   1.562   8.598  0.0334  0.1912 -0.3149
47754W        W90770  19.683  18.697   6.934 -0.0333 -0.3801 -0.1970
47755W        W90771   8.326   9.506   2.927  0.1223  0.1990 -0.4494
47756W        W90772  27.749   3.887  18.961 -0.3179 -0.0210  0.1200
47757W        W90773  14.515   7.197   7.555 -0.2791 -0.0677 -0.0690
47758W        W90774  23.587  31.650   9.704  0.0239  0.0669  0.1965
47759W        W90775  26.205   0.493  16.925 -0.1223  0.1979 -0.1159
47760W        W90776   5.345  15.766   8.807  0.0130 -0.3716  0.0637
47761W        W90777  16.540  25.630   0.408  0.2055 -0.1647  0.0444
47762W        W90778   3.047  19.717  21.256 -0.1388 -0.1840 -0.1008
47763W        W90779   9.935   6.018   9.520  0.4026  0.1615  0.0622
47764W        W90780   0.878  27.744   4.973  0.0442 -0.0720  0.0187
47765W        W90781  22.800  26.120  16.396  0.1642 -0.2543  0.1836
47766W        W90782  12.032  24.431   5.592  0.1229 -0.0398  0.0732
47767W        W90783  27.686   3.202  27.334 -0.2088  0.2134  0.2592
47768W        W90784  17.118  16.206  26.595  0.2161  0.0066 -0.2101
47769W        W90785  26.757   6.035  18.104 -0.0445  0.0311 -0.2634
47770W        W90786  34.643   7.406   6.290 -0.0541  0.0905  0.0964
47771W        W90787  12.966  15.802  22.102 -0.5151 -0.1474 -0.0763
47772W        W90788   8.907  22.451   5.730  0.0934 -0.1317  0.1891
47773W        W90789  17.941  33.752  25.719  0.1048  0.0173  0.0804
47774W        W90790   2.862  12.388   3.078  0.0133 -0.0335  0.0310
47775W        W90791  33.699  26.072  28.249 -0.0386 -0.0621  0.1639
47776W        W90792  23.341  32.645   2.359 -0.2205 -0.0655 -0.0317
47777W        W90793   7.480  13.128   3.503  0.1285  0.2232 -0.0069
47778W        W90794   1.335   9.323  26.071 -0.2867  0.0612  0.0318
47779W        W90795  30.894  10.962  24.936  0.0009 -0.0239  0.3669
47780W        W90796  28.519  26.951  10.848  0.1556 -0.0638 -0.0214
47781W        W90797   9.612   7.620  23.892 -0.0603 -0.1072 -0.2174
47782W        W90798  25.632  32.087  21.629 -0.0487  0.1402  0.0506
47783W        W90799  27.814  14.862  14.514 -0.2935 -0.1808  0.2380
47784W        W90800  33.486  31.301  15.346  0.0661 -0.0531  0.1460
47785W        W90801   7.422  20.235   0.864  0.0852 -0.2078  0.0492
47786W        W90802   3.071   8.480   2.148 -0.1584 -0.1588  0.2605
47787W        W90803  25.587  32.788  27.274 -0.1119 -0.0227 -0.2275
47788W        W90804   4.202  12.020  22.299  0.1350 -0.1510 -0.1891
47789W        W90805  30.024   6.217   5.410 -0.2177 -0.1178 -0.2396
47790W        W90806  33.625  12.514  10.783 -0.0881 -0.0483 -0.2330
47791W        W90807  28.013   0.045  27.445 -0.1379 -0.2896 -0.0264
47792W        W90808   1.412   2.677   7.764  0.0378 -0.1331  0.2086
47793W        W90809  10.843  10.035  28.683  0.1797  0.2187 -0.1369
47794W        W90810   5.662  10.820   8.808  0.0073  0.0540 -0.0440
47795W        W90811   5.540   3.025  22.686  0.2619  0.1294  0.0181
47796W        W90812   0.464  22.718  24.620  0.0878 -0.1097  0.1295
47797W        W90813  28.897   5.971  21.717 -0.1638 -0.1028 -0.2082
47798W        W90814  33.394  14.860   6.255  0.2744  0.1380 -0.2070
47799W        W90815  28.266  29.966  22.937 -0.2512 -0.0453  0.1282
47800W        W90816  12.428  11.178  13.690  0.0159  0.1318 -0.2616
47801W        W90817  16.446  21.916  24.353 -0.0923  0.0922 -0.2098
47802W        W90818  30.036  27.720   1.005  0.0272  0.0735  0.1764
47803W        W90819  32.939  33.144   8.657  0.1193 -0.2155  0.1716
47804W        W90820  21.409  13.849  19.213  0.0138  0.1317 -0.1286
47805W        W90821  32.549  11.537  18.159 -0.0157  0.1758 -0.0596
47806W        W90822   3.979   1.475   4.951  0.2707  0.1494 -0.0657
47807W        W90823  21.611   9.101   3.351 -0.1840  0.0691  0.0184
47808W        W90824  13.743  34.159  15.455  0.2681  0.2888  0.2288
47809W        W90825  15.398   6.081   7.031  0.1928 -0.1953 -0.1844
47810W        W90826   6.767   6.827  23.823  0.1545  0.4069  0.0566
47811W        W90827  29.932   0.144  18.037 -0.2401  0.2050 -0.0584
47812W        W90828  32.862  24.242  26.368  0.3614  0.4612  0.1639
47813W        W90829  14.234   2.471   4.748 -0.0236 -0.0478  0.1337
47814W        W90830   4.037  18.770   7.662 -0.1956  0.1042 -0.4248
47815W        W90831  31.463   0.399  10.100 -0.2084 -0.3212  0.2126
47816W        W90832  32.971  22.731  21.522 -0.5291  0.1033  0.2762
47817W        W90833  24.268   8.465  14.162  0.2507 -0.0259  0.2022
47818W        W90834  29.408  34.287   7.275 -0.0910  0.3092 -0.1860
47819W        W90835   5.176  14.515  23.141  0.1488  0.1505  0.3382
47820W        W90836  10.057   0.755  22.393 -0.1226  0.0400  0.2373
47821W        W90837  10.831  18.186   0.823 -0.0618 -0.0699 -0.1486
47822W        W90838  10.595  11.346  19.614  0.0684 -0.1046  0.1241
47823W        W90839  25.293  14.333  15.002 -0.2771  0.2154 -0.2956
47824W        W90840   4.544  32.087  20.129  0.0449 -0.1539 -0.0470
47825W        W90841  21.090   7.828  18.535 -0.1742 -0.0249 -0.1036
47826W        W90842   9.020   5.444  22.429 -0.0743  0.2836 -0.1806
47827W        W90843  31.456  32.205  22.114 -0.3900  0.0871  0.0983
47828W        W90844   0.908  31.086   6.817  0.0568  0.0421  0.1324
47829W        W90845   3.409  19.951   5.456  0.2167 -0.3078 -0.2436
47830W        W90846  28.359   1.276   9.479 -0.2160  0.2264  0.0713
47831W        W90847   3.733  10.705  18.683  0.2430 -0.1645  0.1476
47832W        W90848  28.518   3.053  18.999 -0.1443 -0.1561  0.1650
47833W        W90849   5.267  11.176  17.946  0.0241 -0.1076 -0.1582
47834W        W90850  33.479  28.537   0.004 -0.0558 -0.2116 -0.2456
47835W        W90851   6.289   3.754   7.372  0.0644 -0.1215  0.5602
47836W        W90852  19.178   4.107  18.777 -0.2420 -0.0606  0.1844
47837W        W90853   0.228  19.731  14.564  0.2463  0.1228  0.1984
47838W        W90854  25.255  23.916   3.931  0.2412 -0.0410 -0.2573
47839W        W90855  31.319  20.313   3.630 -0.2900  0.0662 -0.0678
47840W        W90856   3.962  10.675  17.181 -0.1712 -0.5809 -0.0082
47841W        W90857   1.484  31.974  25.787 -0.1212 -0.2300 -0.2588
47842W        W90858  20.707  26.858  22.207 -0.1866 -0.0854 -0.0131
47843W        W90859  31.176  13.067  21.361  0.0455 -0.0091  0.0046
47844W        W90860  18.822  30.356   4.562  0.2332  0.0530  0.0806
47845W        W90861   3.756   9.799  22.878 -0.0137  0.1435  0.3231
47846W        W90862   7.662  11.748  22.110  0.0075  0.0398  0.0130
47847W        W90863  16.602   9.453  16.494  0.0117 -0.0445 -0.1187
47848W        W90864  25.644   3.448  28.089 -0.0966 -0.0334  0.0734
47849W        W90865  28.975  31.864   0.747 -0.1111 -0.1403 -0.4057
47850W        W90866  30.537  25.939   3.480  0.3106 -0.3567  0.1113
47851W        W90867  20.674   3.400   0.801  0.2593 -0.0209  0.0189
47852W        W90868  33.000  30.799  27.499 -0.2765  0.3886 -0.4032
47853W        W90869  18.426  18.424  15.569 -0.0247 -0.0986 -0.2727
47854W        W90870   7.894  34.665  27.681  0.0654 -0.0648  0.2971
47855W        W90871  29.372   6.354   1.321  0.0849  0.0667  0.2086
47856W        W90872  24.507   1.846  21.524  0.1975 -0.1022 -0.1882
47857W        W90873   9.575   9.150  29.195 -0.2118 -0.1666 -0.0641
47858W        W90874  26.756   6.825   7.968 -0.0001  0.1223  0.1971
47859W        W90875  34.595  10.294  29.304  0.0575  0.0725 -0.0862
47860W        W90876  21.743   2.661  16.024  0.1960  0.3258  0.0910
47861W        W90877  15.086  31.392  26.410  0.0100 -0.0445  0.0262
47862W        W90878  21.906   0.723   8.100 -0.0879 -0.1157  0.2247
47863W        W90879   1.629  26.177   2.929  0.1020 -0.4235 -0.0654
47864W        W90880  24.861  12.042  20.748  0.0397 -0.0991  0.1852
47865W        W90881  22.746  14.667  25.167  0.0147  0.1573  0.0391
47866W        W90882   4.057   8.717  21.066 -0.1765  0.2868 -0.0856
47867W        W90883  32.561  28.361  22.697 -0.0249 -0.0977  0.0060
47868W        W90884   6.338   9.086   4.971 -0.0074 -0.0990  0.1725
47869W        W90885  26.718   7.876  25.205 -0.0981 -0.0906 -0.2344
47870W        W90886  21.270  31.199  15.474 -0.0458  0.0062  0.0502
47871W        W90887   0.709  11.727  22.994  0.0846  0.5146 -0.2486
47872W        W90888  26.745  11.850  22.397  0.0091  0.0356  0.0195
47873W        W90889  25.138  17.459  19.865  0.1507  0.1626  0.1243
47874W        W90890  26.039  24.201  16.750  0.1928 -0.2284 -0.0196
47875W        W90891   3.131   1.248   0.544 -0.1278  0.0833  0.1197
47876W        W90892  30.491  32.158  20.460 -0.1416 -0.0732  0.2538
47877W        W90893  33.775  19.758  27.181  0.2231  0.1429 -0.0046
47878W        W90894  27.696   1.839  28.954  0.3616  0.2406 -0.1560
47879W        W90895  33.340  34.617  10.195  0.1160 -0.0570  0.2967
47880W        W90896   8.545   8.393  24.433  0.0005  0.1137 -0.1154
47881W        W90897   1.947  11.153   5.109  0.0938 -0.1240 -0.0537
47882W        W90898  21.820  28.457  18.361 -0.2310 -0.2746 -0.1872
47883W        W90899  31.300  25.252   0.515  0.1497  0.2655 -0.1129
47884W        W90900   1.459  10.120  15.343  0.0279 -0.1276 -0.0910
47885W        W90901  22.534  12.180  28.295 -0.1860 -0.1160  0.0909
47886W        W90902  19.091  22.567  23.791  0.2193 -0.1167  0.0002
47887W        W90903  31.256   4.091  22.746  0.1348 -0.1020  0.2619
47888W        W90904   9.497  33.353  20.223  0.1738  0.0746 -0.1529
47889W        W90905   0.856  10.865  17.726 -0.2304 -0.1578  0.3516
47890W        W90906  12.028  22.947  19.379 -0.0441  0.0043  0.3089
47891W        W90907  24.088  30.590   4.612  0.2789  0.0773  0.3641
47892W        W90908  33.771  25.299  15.285 -0.0406  0.0896 -0.0463
47893W        W90909   5.580   1.376   6.869  0.1518  0.0292  0.4022
47894W        W90910   3.325  16.909  17.842  0.0117  0.0533  0.0910
47895W        W90911  11.870  33.981   1.300  0.1150 -0.1301  0.1709
47896W        W90912  29.344  32.015   7.915 -0.3128  0.3460 -0.2078
47897W        W90913  32.335   4.645   1.595  0.1023  0.1460  0.2405
47898W        W90914  12.198   7.933  27.585  0.2634  0.1772  0.0400
47899W        W90915  17.261  26.909   0.029  0.0859 -0.5356  0.0772
47900W        W90916  33.343  22.870   0.192 -0.0899  0.0892 -0.2760
47901W        W90917   2.049   3.322  21.997 -0.1765  0.0720 -0.0144
47902W        W90918  34.496   3.949  23.784 -0.0171  0.3177  0.0953
47903W        W90919   0.522   7.781   4.697 -0.2322  0.1789 -0.1873
47904W        W90920  22.627   5.775   6.689 -0.0021  0.2239 -0.0048
47905W        W90921  31.221  22.446  19.423 -0.1620 -0.1674 -0.0561
47906W        W90922   4.329   9.881  26.370 -0.3381 -0.1326  0.0707
47907W        W90923  14.174  16.333  14.301  0.0088  0.2031 -0.1683
47908W        W90924  27.606  32.842  28.725 -0.0468  0.0038  0.0914
47909W        W90925  27.742  13.733   0.266  0.3077 -0.0339 -0.2117
47910W        W90926  31.598   6.354  10.321 -0.5638  0.1544  0.0822
47911W        W90927  13.998   9.263  14.552 -0.1414  0.1126 -0.1886
47912W        W90928  23.534  15.093   4.231 -0.0334  0.0247 -0.0396
47913W        W90929  28.613  32.174   3.003 -0.3486 -0.0029  0.1998
47914W        W90930   7.056  19.746  28.186 -0.3529 -0.3982 -0.0924
47915W        W90931  25.982  19.769   9.627  0.1413 -0.0673 -0.1313
47916W        W90932  13.152  16.854  25.158 -0.1761  0.2923  0.1350
47917W        W90933   5.601   9.207   6.572 -0.2396 -0.0634 -0.2687
47918W        W90934  23.130  14.576  16.518 -0.0664 -0.0711  0.2701
47919W        W90935   5.526  20.177   0.515  0.1332 -0.1331  0.2598
47920W        W90936   3.625   2.398   1.034 -0.1935 -0.2049 -0.0343
47921W        W90937   1.078  18.370  15.395 -0.2813 -0.2265  0.0093
47922W        W90938  33.086   5.156  16.114  0.2484 -0.0546  0.1280
47923W        W90939  34.099   9.158  23.533 -0.4099 -0.1825  0.0327
47924W        W90940  33.648   1.920   4.314  0.0180 -0.5733  0.0390
47925W        W90941  27.523  27.367  19.922  0.2208 -0.0067 -0.1199
47926W        W90942   6.686   0.348   7.703 -0.1284 -0.4895 -0.1036
47927W        W90943   1.728   7.311   6.933  0.0545 -0.0961 -0.2074
47928W        W90944  10.312   7.835  13.912 -0.1280  0.1238 -0.1712
47929W        W90945  26.572  20.107  17.004  0.1455 -0.1182  0.1511
47930W        W90946  32.703   1.684   8.762 -0.0106 -0.4520  0.2313
47931W        W90947   4.533   9.437   3.261 -0.0779  0.5726 -0.0789
47932W        W90948  34.055  16.451  27.418 -0.0414 -0.2487  0.0372
47933W        W90949   7.386   0.284  13.735  0.1148  0.0732  0.2110
47934W        W90950  31.922  28.242  23.483 -0.0077  0.0553 -0.0066
47935W        W90951   7.369   5.392  17.677 -0.0800 -0.0401 -0.0768
47936W        W90952  33.748   5.047   2.935 -0.2682 -0.0936 -0.2505
47937W        W90953  18.235  28.146  24.528 -0.1421  0.0916  0.1287
47938W        W90954  27.596  32.321  10.324  0.1967  0.0066  0.0232
47939W        W90955  16.090   0.269  27.736  0.3029  0.0830  0.2944
47940W        W90956   7.906  16.228  22.908  0.1875 -0.0902  0.2820
47941W        W90957  23.814  31.073  19.640  0.3898 -0.1799 -0.0153
47942W        W90958  26.756  23.576  16.318 -0.1169  0.1253  0.1907
47943W        W90959   5.848   4.652   7.591  0.1268  0.1655 -0.1539
47944W        W90960  21.801  31.400   7.932 -0.7287  0.1527  0.0898
47945W        W90961   8.597  12.570  19.618 -0.1615 -0.0372 -0.0472
47946W        W90962  14.378   0.869  21.560 -0.0797 -0.0082  0.1391
47947W        W90963   7.103   7.032  17.431  0.1055  0.1152  0.2230
47948W        W90964  27.657   0.587  28.843  0.1259  0.0680 -0.1324
47949W        W90965  21.173  31.327  10.416 -0.1542 -0.6227  0.0806
47950W        W90966  28.217  20.015  15.218 -0.0411 -0.3689  0.0480
47951W        W90967  20.558   8.946   3.503 -0.6134 -0.2417 -0.0701
47952W        W90968  20.963   4.764  21.866  0.0785 -0.0528 -0.3845
47953W        W90969   5.756   1.377   1.632  0.1198  0.2008  0.0468
47954W        W90970   2.535  26.859  16.786 -0.3357  0.2107 -0.2217
47955W        W90971  20.713   4.564   6.267  0.0205 -0.0774  0.0043
47956W        W90972  22.152  33.480  27.375 -0.5756 -0.0244  0.0581
47957W        W90973  30.611   1.257  22.536 -0.0998  0.0044 -0.0202
47958W        W90974   7.058   7.482  18.944  0.0327 -0.0825 -0.0844
47959W        W90975  20.445  20.758  22.421 -0.0493 -0.2613 -0.0944
47960W        W90976  20.430  31.824   0.305  0.1177  0.2005  0.1358
47961W        W90977   3.792  12.354   6.847  0.0237 -0.1695 -0.2201
47962W        W90978   1.325  15.130  20.080  0.1873  0.0552 -0.0240
47963W        W90979  32.370   5.387  15.680 -0.0100 -0.1701  0.0286
47964W        W90980  21.549  16.616  14.948 -0.0820  0.3319  0.1267
47965W        W90981   5.455  31.066  16.153  0.0509 -0.2027  0.4546
47966W        W90982  13.893   8.853   8.685 -0.2635  0.1185  0.3667
47967W        W90983   3.694  19.574  26.568 -0.2147 -0.2769 -0.2507
47968W        W90984  33.970  29.731  23.631  0.0109 -0.0887 -0.0647
47969W        W90985  22.341   6.093  26.992  0.1239 -0.1244 -0.1246
47970W        W90986  33.590  32.094  24.846  0.2431  0.1427 -0.4392
47971W        W90987  17.202   7.243  17.381 -0.2727 -0.0441  0.0208
47972W        W90988  11.029   5.406   0.965  0.1787  0.0172  0.0276
47973W        W90989  25.810   9.907  18.963  0.4018 -0.2087 -0.1229
47974W        W90990   5.961   5.474   8.143 -0.1267  0.3102  0.4118
47975W        W90991   4.897  28.821   3.649  0.1758 -0.2767  0.0500
47976W        W90992   1.572  28.988  27.978  0.0035 -0.1254 -0.0280
47977W        W90993   0.848  20.497  19.154 -0.4081  0.1251  0.1168
47978W        W90994  26.224  13.303  17.051  0.0473 -0.2738 -0.0035
47979W        W90995   7.982   8.648  17.759  0.0289 -0.2992  0.1868
47980W        W90996  29.158  18.845  20.794  0.2797  0.0605 -0.1488
47981W        W90997   3.173  28.839  17.136 -0.0519 -0.0507  0.0896
47982W        W90998  29.775   7.628  23.737 -0.2941 -0.0887 -0.0626
47983W        W90999   2.755  22.353  28.108  0.2093  0.2267  0.2747
47984W        W91000  19.700   6.943  19.207  0.0121  0.0808 -0.2452
47985W        W91001   7.132  27.738  20.126  0.1989 -0.4035 -0.2189
47986W        W91002  20.412   7.490  22.834 -0.1744 -0.0782 -0.0096
47987W        W91003   0.690   9.110   4.629 -0.0490  0.0095 -0.2703
47988W        W91004   5.035   0.193  20.643 -0.0241  0.2111 -0.2560
47989W        W91005  26.318  18.231  24.196 -0.2832  0.0361 -0.0200
47990W        W91006  25.797   5.304  23.366 -0.1546  0.0199  0.4019
47991W        W91007   2.804  24.482  19.849 -0.1829  0.0120  0.2487
47992W        W91008  25.698   6.511  21.173  0.0383  0.1907  0.3202
47993W        W91009  29.967   5.279  26.544 -0.1155 -0.2254 -0.1848
47994W        W91010  10.810   8.759  20.199 -0.1646 -0.0339 -0.2035
47995W        W91011  29.729   6.865  19.962  0.3538  0.0305  0.2131
47996W        W91012   0.540  10.678  19.204  0.0888 -0.1172  0.1800
47997W        W91013   9.189   0.118  23.158 -0.0747 -0.1903 -0.1168
47998W        W91014  29.077  13.343   0.583 -0.2527 -0.1559  0.4744
47999W        W91015  31.670   9.199  14.847 -0.0820  0.0682 -0.0702
48000W        W91016  18.818   8.540  19.842  0.0519  0.3039  0.1122
48001W        W91017  26.758  10.961  22.129  0.1699  0.1084  0.0028
48002W        W91018  34.042   6.574  22.336 -0.0875 -0.4257 -0.0963
48003W        W91019  14.554   6.060  22.676 -0.0443  0.0164 -0.1642
48004W        W91020  28.094   4.694  23.670 -0.0091 -0.2497 -0.1093
48005W        W91021  24.585  33.471  25.499  0.0866 -0.4270  0.1855
48006W        W91022  31.638  11.061  14.026  0.1526  0.0601  0.1550
48007W        W91023  27.525   6.242  16.985  0.1035 -0.1500 -0.0215
48008W        W91024  12.607   9.525  18.984  0.1412 -0.3722  0.0961
48009W        W91025   0.270  10.561  16.657 -0.0995  0.0395  0.3054
48010W        W91026   1.589  11.995  21.184  0.0369 -0.0387  0.0813
48011W        W91027   3.772  27.260  19.920 -0.1626 -0.0510  0.1261
48012W        W91028  30.294  28.710  15.373 -0.2360 -0.0942  0.0094
48013W        W91029  34.265  15.612  24.554  0.2132  0.0554  0.0002
48014W        W91030   7.831  17.825  16.124  0.1145 -0.2315  0.3576
48015W        W91031  23.129   5.231  25.558  0.0827 -0.1256  0.2016
48016W        W91032   4.857  25.231  14.835  0.0849 -0.1035  0.0917
48017W        W91033  25.245  31.021  24.246 -0.1378 -0.0666  0.0191
48018W        W91034  15.119  20.733  24.002 -0.2467  0.0530  0.0600
48019W        W91035  21.506  13.623  20.120  0.0520  0.1723  0.2457
48020W        W91036  10.666  32.417  15.139  0.2307 -0.2952 -0.3304
48021W        W91037   4.632   5.159   0.535  0.3141  0.1137 -0.1703
48022W        W91038   1.597   4.302  23.561 -0.2451  0.1566 -0.2820
48023W        W91039  11.944   1.947  18.341  0.2920 -0.1270 -0.0655
48024W        W91040  29.239  33.735  22.447 -0.0443  0.1351 -0.1985
48025W        W91041   6.341  11.271  16.969 -0.2441 -0.1417  0.4232
48026W        W91042   1.349  21.842  21.453  0.1647  0.1734  0.2809
48027W        W91043   8.863  14.114  16.107  0.0136  0.1908  0.0540
48028W        W91044  22.526  33.814  25.155 -0.3381 -0.1492 -0.1780
48029W        W91045   3.172   4.060  20.998 -0.0339  0.0958 -0.1962
48030W        W91046  32.038  29.886  18.526  0.2406  0.2727  0.2194
48031W        W91047   9.146   5.531  25.597  0.1445 -0.2226  0.1224
48032W        W91048  16.482  25.814  18.622  0.0652  0.1153  0.2302
48033W        W91049  33.231   7.958  16.200 -0.2632 -0.0440 -0.0564
48034W        W91050   4.862  31.845   8.322  0.0006 -0.0847  0.2176
48035W        W91051  12.762   8.037  16.807  0.2353  0.1222  0.0465
48036W        W91052   2.393  14.611  14.730 -0.0876  0.3374 -0.0137
48037W        W91053   3.841  10.120  14.676  0.2640  0.2661 -0.1681
48038W        W91054   1.221   2.490  24.462 -0.0327  0.1798 -0.2337
48039W        W91055  31.209  23.203  28.461  0.0110 -0.2175 -0.0143
48040W        W91056  28.872  29.020  28.202 -0.2654  0.2151 -0.3214
48041W        W91057  13.680  18.753  11.948 -0.1130  0.1866 -0.4015
48042W        W91058   1.646  16.553  18.211  0.0523  0.1535  0.3693
48043W        W91059  30.682   4.569  27.650  0.2114 -0.1136 -0.0160
48044W        W91060   4.239  17.462  22.500 -0.0591 -0.0638  0.4133
48045W        W91061   4.916   6.874  16.829 -0.0327 -0.0092 -0.1294
48046W        W91062  23.651   7.286  22.972 -0.1688  0.0097 -0.1749
48047W        W91063  25.983  24.347  16.211 -0.0348 -0.3824  0.1000
48048W        W91064  29.635  17.213  14.230  0.2447 -0.0523 -0.1078
48049W        W91065  24.654  32.233  27.237 -0.1809 -0.1071 -0.0530
48050W        W91066  16.396   1.986  14.722 -0.1708 -0.0671 -0.2225
48051W        W91067  13.853  22.499  12.033  0.1227 -0.1986  0.0728
48052W        W91068   7.278   1.489  20.324  0.0409 -0.2794  0.2678
48053W        W91069  19.973  32.619  15.406 -0.4627 -0.0636  0.1452
48054W        W91070   5.830   4.270  22.979 -0.0787 -0.3248  0.3940
48055W        W91071  32.416  22.824  17.958  0.0050  0.1735 -0.0377
48056W        W91072   3.572  13.910  26.485  0.2002 -0.0731  0.0738
48057W        W91073  13.370  30.148  18.423  0.4567  0.3124 -0.2662
48058W        W91074  26.059  27.871  21.942 -0.1995  0.1470 -0.2175
48059W        W91075  33.840   1.983   1.160 -0.0218 -0.0384  0.0955
48060W        W91076  30.759  21.302  21.708  0.0508 -0.0718  0.1966
48061W        W91077   7.570   3.791  17.898  0.0436 -0.0649  0.1037
48062W        W91078  25.595   5.962  22.715 -0.1863 -0.2351  0.1127
48063W        W91079   5.550  16.884  23.219  0.0829  0.2559  0.2634
48064W        W91080   6.384   7.125  23.729  0.2435 -0.0350  0.4461
48065W        W91081  33.526  25.298  14.449  0.0021 -0.1727  0.0809
48066W        W91082  28.609  17.958   2.052  0.0876  0.1315  0.2562
48067W        W91083  29.297  22.336  23.614  0.3789 -0.0019 -0.2887
48068W        W91084   8.729   6.353  14.145  0.5012  0.3988 -0.0761
48069W        W91085  21.817  15.187  23.160 -0.3250  0.0289  0.0721
48070W        W91086  32.971  20.650  25.377 -0.3205  0.2205 -0.0389
48071W        W91087  33.359   9.971  23.750 -0.3605 -0.0589  0.0561
48072W        W91088  23.916  21.666  15.636  0.2362  0.0446 -0.1525
48073W        W91089  29.289  16.710  26.943 -0.1126 -0.1468  0.2531
48074W        W91090  18.537   7.172   5.154  0.0132 -0.0013  0.2622
48075W        W91091  27.830  23.275  20.679  0.0162 -0.0616  0.0583
48076W        W91092  27.966  32.657  21.569  0.0349  0.0767  0.0646
48077W        W91093   9.017  32.994   9.885  0.0080 -0.0763  0.1476
48078W        W91094   3.110  14.933  15.092 -0.0095 -0.2470 -0.0511
48079W        W91095  12.707  32.053  15.000  0.0437  0.4105  0.2543
48080W        W91096   0.894  29.720  19.474  0.0578 -0.0942  0.1383
48081W        W91097  27.301   1.836  21.644 -0.2001  0.0605  0.0814
48082W        W91098  32.844  14.145  15.766  0.0886  0.0150  0.1358
48083W        W91099  28.036  23.728  20.413 -0.1669 -0.0026  0.0754
48084W        W91100  33.529   3.973  23.462 -0.1072 -0.0820  0.1905
48085W        W91101  22.872  11.834  18.594 -0.2052 -0.0425  0.2368
48086W        W91102   0.709   9.202  21.206  0.0065  0.0968 -0.2845
48087W        W91103  22.410   7.898  14.783 -0.0052  0.2383  0.1225
48088W        W91104   9.378   1.061  20.506 -0.1119  0.4304  0.1221
48089W        W91105  30.217   9.060  21.961 -0.3272  0.1584  0.2076
48090W        W91106  16.163   9.645  25.478 -0.2056  0.0685 -0.0761
48091W        W91107  32.496  20.841  18.061  0.3761  0.1769  0.1237
48092W        W91108  26.069  25.409  16.144  0.1673  0.1768  0.0458
48093W        W91109  10.681   3.234  21.327 -0.2122  0.1144 -0.0800
48094W        W91110  24.249   1.755  17.436  0.0480  0.3412 -0.0597
48095W        W91111   3.777   1.674  17.859  0.2192  0.1674  0.1177
48096W        W91112   4.814  12.814  27.187  0.4027 -0.1125 -0.1786
48097W        W91113  11.251  15.572  13.718  0.3005 -0.0136  0.0178
48098W        W91114  31.225   6.232   5.870  0.1529 -0.3432 -0.0919
48099W        W91115  27.767   9.511  23.931  0.1823  0.2332 -0.1567
48100W        W91116  26.355  16.299  22.622 -0.0591 -0.0471 -0.0066
48101W        W91117   6.943  32.665  17.564  0.1685 -0.1167 -0.0396
48102W        W91118   2.341   0.436  16.570  0.1920 -0.2061 -0.0393
48103W        W91119   9.246  33.146  17.821  0.0104 -0.0325  0.0530
48104W        W91120   3.600  28.112  14.607  0.0051 -0.1719  0.0142
48105W        W91121  29.765   7.900  16.017 -0.0714  0.2435  0.0059
48106W        W91122   2.480   9.855   7.136 -0.1150 -0.0889 -0.1335
48107W        W91123  25.596  22.647  19.063 -0.3546  0.0765 -0.0032
48108W        W91124   8.566  12.506  16.757 -0.3249  0.2731  0.0503
48109W        W91125   2.205  14.181  24.686 -0.1312  0.3322 -0.2258
48110W        W91126  30.179   7.740  20.807  0.0209  0.0397  0.0635
48111W        W91127  33.284   8.296  18.388  0.2202  0.0162 -0.0919
48112W        W91128  15.953  11.988  17.092 -0.3176  0.1038  0.3506
48113W        W91129  12.428   0.413  15.043 -0.3579 -0.1053  0.1381
48114W        W91130  30.755   8.223  19.613 -0.1416 -0.3102 -0.3451
48115W        W91131  33.534   7.842  19.756 -0.0073 -0.0997 -0.1287
48116W        W91132  24.320   6.340  19.084  0.0112 -0.2453 -0.1061
48117W        W91133   6.813  13.268  14.717 -0.1587  0.2766  0.3693
48118W        W91134  29.609  33.951  23.756 -0.0396  0.1745 -0.2074
48119W        W91135  10.477   2.838  23.538  0.2778 -0.1348  0.0361
48120W        W91136  13.541   6.044  15.002  0.3043 -0.1526  0.0997
48121W        W91137   3.093  10.880  20.487 -0.0237  0.1437  0.0098
48122W        W91138  30.650  15.638  29.052  0.2502 -0.0573 -0.2560
48123W        W91139   2.561  19.427  23.888 -0.2896 -0.2413  0.1403
48124W        W91140  24.267   4.411  23.897 -0.1525  0.2685  0.0723
48125W        W91141  34.016  34.425   0.706  0.1756  0.2681 -0.2789
48126W        W91142   0.759  14.324  20.463 -0.2951 -0.0655 -0.2001
48127W        W91143   7.339  17.965  21.821  0.0113 -0.1165 -0.0689
48128W        W91144  32.497   0.509  27.489 -0.2419 -0.2163 -0.0333
48129W        W91145  29.233  19.822  22.454  0.3820  0.1576 -0.3542
48130W        W91146  11.312   9.381  16.080  0.2640  0.0429 -0.1770
48131W        W91147  22.064   4.525  17.864  0.0286  0.1169  0.0926
48132W        W91148  31.235  10.655  18.564 -0.0206 -0.1486  0.1623
48133W        W91149  28.072  31.873  19.878 -0.0402  0.0292  0.4234
48134W        W91150  16.939   9.735  13.442 -0.1351 -0.0990 -0.3078
48135W        W91151  12.420  11.138  19.094  0.2025  0.1060 -0.0352
48136W        W91152  19.236   3.987   2.069  0.1364 -0.0908  0.1304
48137W        W91153   2.140   9.968  21.662 -0.0959 -0.1917 -0.1319
48138W        W91154  16.215   9.061  16.187 -0.0217  0.0346 -0.1778
48139W        W91155   8.202   4.344  16.838  0.0561 -0.2475  0.0818
48140W        W91156  31.388  18.590  20.233 -0.1730 -0.0672  0.1448
48141W        W91157  28.659   6.249  20.037 -0.2407  0.2715 -0.1945
48142W        W91158   8.325  10.261  17.309  0.0800  0.0202 -0.1559
48143W        W91159  28.227   7.223  24.276  0.2033 -0.0639  0.0684
48144W        W91160   9.940  33.577   7.096 -0.0469 -0.3972  0.0219
48145W        W91161   1.607  17.173  18.641 -0.2699  0.0635 -0.0717
48146W        W91162   4.079  24.595  19.987  0.1208 -0.1000 -0.1395
48147W        W91163   1.465  22.094  17.351  0.0608  0.0051 -0.2156
48148W        W91164  32.036  34.642  19.061  0.2194  0.2070 -0.0637
48149W        W91165  20.244  11.688  15.765 -0.3884 -0.1782 -0.2207
48150W        W91166   2.636  26.404  20.981  0.1762  0.1479 -0.0374
48151W        W91167  22.168  29.112   8.058 -0.0913  0.2051 -0.2082
48152W        W91168   0.712   5.387  23.113  0.1108 -0.0956 -0.4563
48153W        W91169  25.868   8.974  26.359  0.0815 -0.0786  0.0565
48154W        W91170   3.509  12.549  21.882 -0.0322  0.0171 -0.0442
48155W        W91171  34.341  10.410  14.227  0.0755  0.1624  0.2775
48156W        W91172   5.738  17.938  13.075 -0.2730  0.1054 -0.4324
48157W        W91173  11.563   2.464  26.745 -0.4307 -0.0257  0.4286
48158W        W91174   1.999   5.990  26.829 -0.0795  0.0885 -0.3199
48159W        W91175  30.061  12.628  14.715 -0.2524  0.1071 -0.2537
48160W        W91176  34.374  33.871  25.906 -0.1532 -0.1240 -0.2444
48161W        W91177  25.863  10.552  22.350 -0.2815 -0.1589 -0.1782
48162W        W91178  25.336  28.072  26.754  0.2893 -0.0835  0.1588
48163W        W91179   6.040  10.245  25.808  0.1856 -0.0086 -0.0394
48164W        W91180   7.118  17.210  20.430  0.0270 -0.0139  0.1261
48165W        W91181  32.131  16.347  20.429  0.0341 -0.0862 -0.1382
48166W        W91182  25.323   7.676   1.676 -0.0391  0.3558  0.3073
48167W        W91183   5.711   3.826  27.218 -0.3758  0.2505 -0.3397
48168W        W91184  25.970  15.253  28.538  0.2526  0.2969 -0.1124
48169W        W91185  30.481  15.149  19.468 -0.1152 -0.0221 -0.0918
48170W        W91186  16.899   2.489  24.295  0.0013  0.1642  0.3635
48171W        W91187  30.608  18.144  16.563 -0.0637  0.0830  0.0053
48172W        W91188   3.825  11.055  25.355  0.0313 -0.1386  0.4085
48173W        W91189  22.880  24.126  18.565  0.3166 -0.2550  0.1757
48174W        W91190  30.014   7.547  24.612  0.0489  0.0921 -0.1323
48175W        W91191  14.475  27.093   1.319 -0.2575 -0.0577  0.0166
48176W        W91192   2.569  33.085  18.081 -0.2042 -0.1895 -0.0793
48177W        W91193   1.562  11.923  27.303 -0.3076 -0.3701 -0.3878
48178W        W91194   4.296   8.497  14.468  0.0316 -0.1542  0.1682
48179W        W91195   1.922  26.303  17.032 -0.2914 -0.0399 -0.1483
48180W        W91196   6.958  12.229  19.678 -0.0844  0.2292  0.2635
48181W        W91197   5.127   6.677  27.288 -0.2678 -0.1189 -0.1423
48182W        W91198  25.596   2.316  18.058  0.0424 -0.0698 -0.0885
48183W        W91199  32.574   7.706  15.538  0.0522  0.1119  0.0206
48184W        W91200   5.934  23.783  14.346  0.1079  0.4619  0.1367
48185W        W91201  24.802  17.500   0.327  0.4482  0.1514  0.1244
48186W        W91202   0.484   3.342  17.116  0.3403  0.2636 -0.1362
48187W        W91203  30.360   2.781  19.580 -0.2321  0.1871 -0.0378
48188W        W91204  34.743  32.635  20.982 -0.0992  0.2441  0.2103
48189W        W91205  12.214   8.227  18.647  0.2147  0.0280  0.2510
48190W        W91206   0.075  31.577  28.672  0.1666 -0.0478  0.0156
48191W        W91207  11.578  29.850  22.716 -0.1144 -0.0947  0.0201
48192W        W91208  11.173  24.574  15.912 -0.0496 -0.0026 -0.3462
48193W        W91209  10.191  12.003  15.278  0.1390  0.2223  0.0374
48194W        W91210  20.338  28.815  26.954  0.1714  0.3061 -0.1382
48195W        W91211  33.503  14.415  14.293 -0.0380 -0.2373 -0.1813
48196W        W91212  27.901  15.457  26.337  0.5214  0.4932  0.2488
48197W        W91213  25.305  30.239  26.498 -0.1796 -0.0926 -0.0884
48198W        W91214  15.354  30.913  29.005  0.1948 -0.4311  0.1714
48199W        W91215   3.214   2.091  23.936  0.1220 -0.0795  0.0100
48200W        W91216   8.300   4.894   0.694 -0.0259 -0.0956  0.2849
48201W        W91217  24.304   0.930  24.327  0.2091  0.2786  0.1784
48202W        W91218   2.091  28.840  24.932 -0.0910 -0.1599  0.2002
48203W        W91219  21.355   9.898  22.848  0.1429  0.1219 -0.3558
48204W        W91220  26.237   8.906  18.126 -0.3046  0.0948  0.0695
48205W        W91221  32.474   1.851  17.615  0.2650 -0.1324  0.1210
48206W        W91222  10.741  26.600  26.372 -0.0749  0.1701 -0.1805
48207W        W91223   0.688  10.385  15.270 -0.1605 -0.2036  0.2058
48208W        W91224  16.390   2.268  14.271  0.2384 -0.2314 -0.0102
48209W        W91225  11.213  30.240   2.832 -0.2214  0.2522  0.0424
48210W        W91226  28.687  17.707  17.475 -0.6006 -0.1035  0.1690
48211W        W91227  19.206   9.662  15.741 -0.0847 -0.0266  0.0565
48212W        W91228  28.514  10.179  16.616  0.0105  0.0772  0.0494
48213W        W91229  20.962   3.181  21.793 -0.1857  0.2173  0.0809
48214W        W91230   0.483  26.124  22.659  0.0716  0.3325  0.1859
48215W        W91231  34.520  15.628  20.450  0.5465  0.0129 -0.1897
48216W        W91232  28.698  13.823  17.764 -0.0193 -0.0984 -0.1146
48217W        W91233  15.872  16.251   8.001 -0.1979 -0.1105  0.2002
48218W        W91234  12.916  34.371  23.107 -0.0805 -0.1357  0.3828
48219W        W91235  32.487   5.110   5.635 -0.1288 -0.1962 -0.1532
48220W        W91236  29.471  22.927  27.625  0.0725  0.2687 -0.0042
48221W        W91237  11.381   9.540  17.904 -0.1927  0.0818 -0.0428
48222W        W91238   6.857  26.863  20.270 -0.1272  0.2037 -0.4262
48223W        W91239   1.554  16.559  19.537 -0.1091 -0.0937  0.0299
48224W        W91240   8.801   5.542  27.073 -0.4710  0.1457 -0.1419
48225W        W91241  15.224  26.386  27.789  0.3006  0.1145 -0.0539
48226W        W91242   0.823  30.625  17.706  0.0284  0.3269 -0.3115
48227W        W91243   4.064   0.170   6.730  0.1557  0.2727  0.1784
48228W        W91244   0.218  31.534  19.569  0.1152  0.2772 -0.2722
48229W        W91245  21.842  28.097  14.907 -0.2358  0.0953  0.0707
48230W        W91246  31.257  24.486  16.482  0.0474 -0.2338  0.0524
48231W        W91247   2.000  30.806  25.795 -0.0365 -0.1166 -0.0734
48232W        W91248   9.829  10.183   9.422 -0.0230 -0.0846  0.1974
48233W        W91249  22.857   4.329   3.219 -0.2385 -0.0593  0.0136
48234W        W91250  27.620  31.541  23.315  0.1437 -0.1537  0.0896
48235W        W91251   2.847  22.994  26.876 -0.1314 -0.1409  0.0446
48236W        W91252   9.137   7.730  14.505 -0.3169  0.2437  0.0193
48237W        W91253  32.617  10.049  10.345  0.0147 -0.1977  0.0616
48238W        W91254   7.516  33.880  19.277 -0.1994  0.1401  0.3232
48239W        W91255  31.112  19.402  17.288 -0.2861 -0.1419  0.2677
48240W        W91256  27.026  13.735  18.113 -0.1794 -0.2836 -0.2182
48241W        W91257   0.235  10.853  20.918 -0.0656 -0.3142  0.0821
48242W        W91258  22.193  14.342  15.177  0.0219 -0.2184  0.0145
48243W        W91259  23.444   8.474  22.466  0.1755  0.0654  0.0273
48244W        W91260   1.106  13.687  17.729 -0.0129 -0.1000  0.1298
48245W        W91261  24.358  17.438   1.767  0.0010  0.0312  0.2595
48246W        W91262  30.628  10.037  20.848  0.1655  0.1476 -0.1851
48247W        W91263  20.788  28.168   6.000  0.0694 -0.0013  0.2401
48248W        W91264  21.730   5.313  19.490  0.2104 -0.1550 -0.1295
48249W        W91265   6.284   2.539  15.528  0.0370  0.0784 -0.0839
48250W        W91266  31.579  10.697  19.461  0.0057 -0.0050 -0.0167
48251W        W91267  30.161  11.084   1.662  0.1988 -0.0784  0.2263
48252W        W91268  23.453   6.606  17.769  0.1454 -0.1727 -0.0158
48253W        W91269  33.365   7.340  18.886  0.0544  0.1206  0.0980
48254W        W91270   7.844  14.858  24.220  0.0451 -0.1292 -0.1175
48255W        W91271   4.798   7.936  20.597 -0.1481 -0.0394  0.0638
48256W        W91272   3.273   6.992  14.706 -0.2784  0.0995 -0.1068
48257W        W91273  10.866  33.250  14.791 -0.1622 -0.0737 -0.2058
48258W        W91274   4.828  15.551  14.953  0.0918 -0.1153 -0.1371
48259W        W91275  33.204   5.770  20.796 -0.0246 -0.0626 -0.2133
48260W        W91276  12.896  13.152  12.014  0.0885 -0.0667 -0.1782
48261W        W91277   9.752   3.192  16.485  0.3748  0.3590 -0.2100
48262W        W91278   0.491   1.823  18.911  0.0756 -0.0358 -0.1852
48263W        W91279  27.430  23.363  20.938  0.2861  0.1259 -0.0975
48264W        W91280   2.599  15.465  16.133  0.2118  0.0771 -0.0805
48265W        W91281  31.985   9.534  16.001 -0.0682  0.0755  0.1406
48266W        W91282  23.727  19.694  15.814 -0.0830  0.1015  0.0756
48267W        W91283   0.999   4.567  14.805  0.1174  0.0327  0.1247
48268W        W91284  33.775  24.349  16.988  0.2529  0.0727 -0.2877
48269W        W91285  31.338   7.329  28.832 -0.0831 -0.0620 -0.2587
48270W        W91286  34.372   3.676  18.886 -0.4576  0.1973  0.0451
48271W        W91287   4.424  29.510  14.685  0.2440 -0.1827 -0.1777
48272W        W91288   6.120  19.632  17.248 -0.2324  0.1013  0.2696
48273W        W91289  12.027  33.951  15.946 -0.0505  0.0326  0.2219
48274W        W91290   0.894   0.159  16.191 -0.1726 -0.0102 -0.2238
48275W        W91291  32.932   9.555   0.553  0.0738  0.0850 -0.2588
48276W        W91292  20.785  33.321  20.247  0.0673  0.0961  0.0004
48277W        W91293  30.771  32.120  28.642  0.0645  0.1326 -0.3932
48278W        W91294   4.096   6.826  22.146  0.0775  0.0579 -0.1314
48279W        W91295   2.676  12.332  22.699 -0.0920  0.2313 -0.1192
48280W        W91296  27.348  11.684  26.082  0.1876 -0.1944 -0.1937
48281W        W91297  29.608  33.993   0.927  0.1459  0.0527 -0.1376
48282W        W91298  31.628   4.101  24.222 -0.2403  0.1449 -0.1455
48283W        W91299  17.009  26.283   2.246 -0.2947 -0.1015  0.1885
48284W        W91300   1.688   5.824  24.597 -0.2043  0.0404  0.1149
48285W        W91301  20.776  30.161   3.247  0.0462  0.1047  0.1831
48286W        W91302  25.208  26.284   7.465  0.4121  0.0468 -0.0708
48287W        W91303  21.278   3.371  29.176 -0.0458  0.0284 -0.0681
48288W        W91304  32.372  18.479  22.707  0.1101 -0.1739  0.0320
48289W        W91305   2.038  33.915   1.677 -0.1885 -0.0218  0.1785
48290W        W91306   5.838   6.590  16.153  0.1711  0.0280  0.2033
48291W        W91307  20.543  20.560  18.396  0.5033 -0.0210  0.0592
48292W        W91308   0.291  11.531  20.347  0.6002  0.0640  0.5825
48293W        W91309   2.637  25.825  13.683 -0.0083 -0.1181  0.3716
48294W        W91310  33.834  13.402  19.701 -0.0066 -0.0397 -0.2357
48295W        W91311  31.899   1.488  24.356 -0.1329 -0.1891 -0.2149
48296W        W91312   0.876  31.422  27.880  0.3329 -0.2377 -0.1033
48297W        W91313  33.102   6.208  20.552 -0.2255  0.1757 -0.0673
48298W        W91314  13.227  10.614  25.711 -0.0090  0.0894 -0.0672
48299W        W91315   6.565  15.555   1.973 -0.4034 -0.2492  0.3557
48300W        W91316   3.677  29.870  16.857 -0.1759 -0.1307 -0.2281
48301W        W91317  32.188  18.294   0.679 -0.1504 -0.2962 -0.0900
48302W        W91318   1.387  17.616  16.667 -0.0389  0.3711  0.0177
48303W        W91319   1.069   3.944  25.336  0.0133 -0.1156 -0.0835
48304W        W91320  31.289   9.223  15.264  0.1976  0.1101  0.1791
48305W        W91321  10.553  15.071  23.481 -0.0949 -0.5061  0.0713
48306W        W91322  27.655  33.205  21.111  0.0910 -0.2994  0.0125
48307W        W91323  21.488  33.116  26.530 -0.1161  0.1292 -0.0387
48308W        W91324  21.617   1.134  20.078  0.2404  0.0585 -0.1311
48309W        W91325  23.947  17.281  26.174  0.0200  0.0709  0.0757
48310W        W91326   7.266   8.158  23.654  0.0525 -0.0472  0.0157
48311W        W91327  24.770   7.831   1.679 -0.2210  0.0006  0.2440
48312W        W91328   4.808   5.946  26.456  0.1952  0.0527  0.1038
48313W        W91329  26.391   4.091  20.697 -0.3457 -0.1021 -0.0842
48314W        W91330  23.757  18.028  19.684  0.2536  0.0379  0.0164
48315W        W91331  11.274  11.672  25.800  0.0391 -0.2127 -0.0137
48316W        W91332   4.491  19.011  16.445 -0.0960 -0.0394 -0.1047
48317W        W91333   0.422  30.164   1.574 -0.2261 -0.0210 -0.1196
48318W        W91334  31.338  22.713   7.057  0.1377 -0.0433 -0.1825
48319W        W91335  19.171   1.675  25.884 -0.3180  0.0692 -0.0766
48320W        W91336   1.574   0.334  18.798  0.0287 -0.0152 -0.3445
48321W        W91337  26.914  24.599  26.546 -0.1245  0.0463 -0.0993
48322W        W91338   5.769   3.165  21.866 -0.0457 -0.0221 -0.1270
48323W        W91339  26.431  22.644  27.873  0.0153  0.1911  0.0695
48324W        W91340   7.165   6.985  27.893  0.0222 -0.1857  0.2955
48325W        W91341  33.792   6.181  14.556 -0.0423  0.0674 -0.1679
48326W        W91342  25.792   1.781   4.099 -0.4508  0.2792  0.0246
48327W        W91343  30.089  20.053   2.227  0.3890 -0.0821  0.0969
48328W        W91344  33.842  16.798  18.398 -0.2620 -0.1104  0.0623
48329W        W91345  26.950  32.902  16.299 -0.2644 -0.2378  0.1102
48330W        W91346  32.730  21.396  17.664  0.0806  0.0480  0.0891
48331W        W91347  29.342  29.721  18.326 -0.2277 -0.0363 -0.0592
48332W        W91348  27.297  34.749  22.734 -0.0470  0.0637  0.3729
48333W        W91349  34.432  11.913  28.816  0.0839 -0.2073  0.1480
48334W        W91350   6.926  26.575  13.734  0.1991  0.1776 -0.0079
48335W        W91351  27.094   9.540  15.761  0.3707 -0.0042 -0.0051
48336W        W91352   2.547  28.621  18.310 -0.0951  0.2379  0.1379
48337W        W91353  29.380  20.531  25.292 -0.1047  0.1723 -0.1498
48338W        W91354   1.690   2.710   0.847  0.3943  0.4161  0.2096
48339W        W91355  26.484   0.825  16.512 -0.0300 -0.2485  0.2079
48340W        W91356  10.273   3.289   2.242  0.1693  0.1620 -0.0313
48341W        W91357  27.554   2.729  22.344 -0.2808 -0.0964  0.3763
48342W        W91358  33.643  33.742  15.381 -0.2416  0.1171  0.3189
48343W        W91359  22.750  17.583   0.469 -0.0779  0.0113 -0.0592
48344W        W91360  28.615   8.758  28.724  0.3654 -0.3238  0.1272
48345W        W91361  31.956  30.220   1.740  0.3294  0.1603  0.1029
48346W        W91362  28.272  15.898  19.049  0.1840 -0.0259  0.2967
48347W        W91363  31.210  28.598   3.663  0.4046 -0.2981 -0.0565
48348W        W91364  32.398  29.198  25.464  0.1775  0.4185  0.0133
48349W        W91365   1.239  16.774  28.897  0.0373  0.0399  0.1285
48350W        W91366  17.169  28.726  17.697 -0.0762  0.1429  0.0565
48351W        W91367   2.852  31.162  25.025 -0.1096 -0.1686 -0.2309
48352W        W91368  21.228  24.730  23.077  0.0558 -0.2472 -0.0452
48353W        W91369   9.777  32.488   3.985 -0.0341  0.2132  0.0957
48354W        W91370  28.018   7.854  20.814 -0.1622  0.2489 -0.1817
48355W        W91371  28.389  31.329  23.093  0.0143 -0.0913  0.3037
48356W        W91372   7.046  19.480  20.158  0.1637 -0.1634 -0.3437
48357W        W91373  31.234  19.568  20.145  0.1748  0.2323  0.0081
48358W        W91374  34.765  33.612  14.140  0.1896  0.0494 -0.0772
48359W        W91375  16.429  10.072  28.502 -0.0490  0.0650  0.0565
48360W        W91376  31.199  11.181  18.710  0.0652 -0.5284 -0.3074
48361W        W91377  24.608   3.061  28.709 -0.0425  0.1611 -0.3139
48362W        W91378  16.310   4.146  17.740 -0.1467 -0.2379  0.1198
48363W        W91379  31.151  22.252  19.862 -0.2144 -0.0064  0.2120
48364W        W91380  25.057  15.721  18.953  0.2595 -0.0937 -0.0603
48365W        W91381  19.553  12.694  25.330  0.1794 -0.1921 -0.2938
48366W        W91382   3.280  20.463  23.049 -0.4682 -0.0617 -0.0388
48367W        W91383  18.508   4.679  14.550  0.0526 -0.0185  0.0771
48368W        W91384   7.004  16.192  17.754  0.0195 -0.0544  0.2413
48369W        W91385  25.570  22.269  16.827 -0.2811  0.1942 -0.3549
48370W        W91386  12.569   8.068  15.619  0.1718  0.2397 -0.0566
48371W        W91387  25.864   4.552  17.001 -0.1402 -0.2554 -0.1792
48372W        W91388  30.759   9.101  16.855  0.1277 -0.0236 -0.0788
48373W        W91389   3.723  23.982  22.677  0.0191  0.0931 -0.2603
48374W        W91390  27.865  27.362   6.150  0.1981 -0.4929  0.0835
48375W        W91391  10.481  29.328  19.546  0.2694  0.1669 -0.1756
48376W        W91392  28.115   4.886  18.692  0.0002 -0.2785 -0.0134
48377W        W91393   0.157  18.095  20.640 -0.0624  0.0232  0.1379
48378W        W91394  33.070   8.393  25.546  0.0011 -0.0597  0.2022
48379W        W91395   5.071   8.757  18.658  0.0027 -0.0997 -0.2778
48380W        W91396  32.345  24.180  25.752  0.0214 -0.1681  0.0442
48381W        W91397   7.273   6.307   8.312 -0.2988 -0.1375  0.2064
48382W        W91398   4.526  15.480  24.301 -0.0692  0.1168  0.0151
48383W        W91399  32.836   7.575  21.337 -0.1298  0.1470 -0.0689
48384W        W91400  33.380  14.670   9.266 -0.2695  0.0622 -0.1272
48385W        W91401   3.116  18.878  23.457 -0.0995  0.1655  0.0915
48386W        W91402   0.166  34.565  15.362  0.0687 -0.2392 -0.1690
48387W        W91403  25.766  10.085  14.650 -0.1040 -0.1877  0.0859
48388W        W91404  22.874  33.629  21.611  0.0097  0.1045  0.3228
48389W        W91405   8.450  11.151  27.065  0.1800  0.0407 -0.3173
48390W        W91406   2.031  28.895  14.242  0.3990  0.1555 -0.0208
48391W        W91407  25.477   5.435  18.470 -0.3540  0.2358 -0.1897
48392W        W91408   4.251  21.627  27.301  0.1829 -0.0509 -0.0593
48393W        W91409  28.421   2.707  17.630 -0.2387  0.1484  0.0694
48394W        W91410   6.722   6.451  24.151  0.2399 -0.2623  0.1115
48395W        W91411  32.367  13.572  23.049  0.0509 -0.0252 -0.0366
48396W        W91412  32.790   8.279  16.187 -0.2154 -0.0824 -0.0161
48397W        W91413   7.526  24.676  28.208  0.0822  0.3120 -0.0087
48398W        W91414  22.258   7.789   7.643 -0.0452 -0.0652 -0.1007
48399W        W91415   4.441   6.246  16.302 -0.2108  0.0127 -0.2905
48400W        W91416  12.736   1.448  24.274  0.0388  0.1458  0.1737
48401W        W91417  34.512   7.031  20.945  0.0074  0.3636 -0.3899
48402W        W91418  13.154   6.217  18.606  0.4145  0.1325  0.0349
48403W        W91419  11.992  25.458  15.696 -0.0594  0.1242 -0.0173
48404W        W91420  22.825   3.202  22.252 -0.0434  0.1002 -0.3520
48405W        W91421  28.237  16.745  22.218 -0.0865  0.0205  0.1096
48406W        W91422  19.766  14.829  20.526  0.2304  0.1680 -0.1605
48407W        W91423  25.268  18.593  17.282  0.1436  0.1921 -0.1790
48408W        W91424  12.327  27.065  17.990 -0.0280  0.2212 -0.0201
48409W        W91425  29.389   5.995  25.551  0.1202 -0.2317 -0.0423
48410W        W91426  10.814  27.588  24.651 -0.1047 -0.1841 -0.1611
48411W        W91427  29.717  15.979  26.998 -0.0964  0.2815 -0.3658
48412W        W91428  34.570   5.639  26.835 -0.2190 -0.5223 -0.1144
48413W        W91429   3.345  29.908  22.783 -0.0351 -0.1833 -0.3750
48414W        W91430  14.258   1.170  22.001  0.2166  0.0010  0.1943
48415W        W91431  27.234  27.052  18.827  0.3597  0.1241  0.3065
48416W        W91432   7.390   9.710   8.323 -0.0568  0.2229  0.2444
48417W        W91433   2.256  18.335  21.152  0.4526  0.0500 -0.0788
48418W        W91434  21.864  12.987  16.838 -0.0411  0.0566  0.0634
48419W        W91435  13.028   5.611  28.588  0.2179 -0.1722 -0.0192
48420W        W91436   5.587  21.886  27.773 -0.2511 -0.1216  0.1124
48421W        W91437   1.298  31.650  21.911  0.1235 -0.2092  0.1508
48422W        W91438  28.946  19.838  15.634 -0.0369  0.0688 -0.1015
48423W        W91439  15.306  12.963  20.531 -0.1448 -0.1293  0.1221
48424W        W91440  33.744  10.386  18.411  0.2630  0.2196 -0.0650
48425W        W91441  17.176   1.007  23.839  0.2061  0.1129 -0.0132
48426W        W91442  15.017  24.993  21.169 -0.1449 -0.0627 -0.2865
48427W        W91443   5.763   9.682  16.211 -0.0733 -0.1353  0.0830
48428W        W91444   0.633  24.634   1.610 -0.0122  0.0504  0.2451
48429W        W91445  26.636   2.680  15.872  0.3256  0.0233  0.2287
48430W        W91446  31.258   6.602  16.942  0.2028 -0.4455 -0.0678
48431W        W91447   6.708  20.864  17.882 -0.2159  0.0513  0.0926
48432W        W91448  34.064   1.472  14.626 -0.0019  0.2185 -0.2029
48433W        W91449   5.525  34.342  27.346  0.1621 -0.0704 -0.1616
48434W        W91450   4.410   7.525  18.750 -0.2821  0.0983  0.0171
48435W        W91451  21.783   1.168  23.196  0.1690  0.1366  0.1083
48436W        W91452  34.033   5.604  17.425 -0.1833 -0.1877  0.1074
48437W        W91453  24.418   4.849  17.549 -0.4485 -0.0081  0.0676
48438W        W91454  23.098   3.587  17.415  0.2281 -0.1418  0.1139
48439W        W91455   6.177   6.827  21.241 -0.0107 -0.1701  0.0759
48440W        W91456   7.268  12.794  25.876 -0.0970 -0.0289  0.1035
48441W        W91457   6.433   3.507  18.317  0.2582  0.2030 -0.0757
48442W        W91458   5.920  15.443  12.915 -0.2047 -0.1085 -0.0441
48443W        W91459  23.395   6.568   0.003 -0.1234 -0.3161 -0.0971
48444W        W91460  11.282  10.403  22.990  0.1466  0.0700 -0.1031
48445W        W91461   3.422  10.928  24.487  0.1553 -0.2342  0.1162
48446W        W91462  34.647  27.064  21.864 -0.2655  0.0270 -0.0589
48447W        W91463  25.502  14.428  19.506 -0.0689  0.0996 -0.1747
48448W        W91464  32.702  33.372  26.751  0.1763 -0.0959  0.0140
48449W        W91465   8.665  33.771  22.920 -0.1188  0.0302  0.0036
48450W        W91466  26.828   1.991   4.336 -0.4911 -0.1662 -0.2453
48451W        W91467  22.859   5.613  22.153 -0.3682 -0.0936  0.1678
48452W        W91468   2.033   8.110  10.037 -0.0320  0.1682  0.2720
48453W        W91469  28.833  25.971   2.061 -0.0567 -0.3228  0.2349
48454W        W91470  27.031  31.371  22.108  0.2250 -0.1636 -0.0843
48455W        W91471  28.857   9.811  22.626  0.1429  0.1119 -0.0118
48456W        W91472   3.446  15.429  14.835  0.2435 -0.0801 -0.0497
48457W        W91473   7.497  31.461  15.247 -0.0235  0.1460  0.0432
48458W        W91474  13.074  32.695  18.539 -0.3203  0.0524  0.0182
48459W        W91475  29.154   2.690   2.338 -0.2095  0.2317 -0.0701
48460W        W91476  17.371   3.043  17.205  0.0979 -0.0886 -0.2203
48461W        W91477  24.736  14.454  17.718 -0.0302 -0.3458 -0.0222
48462W        W91478  27.551  15.705  24.329  0.3141  0.2630  0.1007
48463W        W91479  31.283   9.558  22.559 -0.0865 -0.1061  0.1714
48464W        W91480   8.216  14.920  25.962 -0.1794 -0.0199  0.0992
48465W        W91481  28.932   7.652  25.656 -0.0014 -0.0378  0.0491
48466W        W91482  17.125  24.325   7.769 -0.1452  0.4262  0.2280
48467W        W91483   9.265  32.348  26.482  0.3283  0.1486 -0.3051
48468W        W91484  33.652  31.042   4.954  0.0611 -0.1342 -0.1014
48469W        W91485  30.618   7.930  27.542  0.2774  0.2734 -0.0494
48470W        W91486  23.564   1.191   4.841  0.0225 -0.1111  0.1207
48471W        W91487   4.748  12.870   2.413  0.1889 -0.1052  0.0280
48472W        W91488  22.482  23.219   1.891  0.0897 -0.0425  0.1331
48473W        W91489   9.989  12.959  19.616 -0.2980  0.0466  0.2076
48474W        W91490   4.775  32.432   1.869  0.1293 -0.2824  0.3161
48475W        W91491  33.672   0.691  22.159 -0.1352  0.0675 -0.4126
48476W        W91492  26.057   0.586  27.850 -0.4170 -0.0975 -0.1514
48477W        W91493  24.221  12.381  13.121 -0.0249  0.0329  0.2214
48478W        W91494  31.754   2.308   5.351 -0.0072  0.1814  0.0239
48479W        W91495  27.155  15.049  20.368  0.0964  0.0144  0.0447
48480W        W91496  34.626  32.872  15.770  0.1931  0.2317 -0.1290
48481W        W91497  26.080  18.760  26.000 -0.2375  0.0428 -0.1734
48482W        W91498  33.319   7.519  21.375 -0.0416 -0.0577  0.0640
48483W        W91499   6.911   7.309  17.794  0.1226  0.0637  0.0871
48484W        W91500   6.869  33.588  17.543  0.0052 -0.0864  0.2878
48485W        W91501  28.320  31.401  17.287 -0.1401 -0.0387  0.0880
48486W        W91502   0.744  33.689  15.867 -0.0613 -0.0659  0.0336
48487W        W91503  16.807  15.311  12.493  0.1882  0.0223 -0.0325
48488W        W91504  32.476  13.378  23.517  0.1355  0.0336 -0.3327
48489W        W91505   3.586  21.931  24.153 -0.2213  0.3081 -0.1427
48490W        W91506  34.413   8.803  16.680 -0.1450  0.0337  0.0958
48491W        W91507  33.144  17.618  19.908 -0.1283 -0.0579 -0.0050
48492W        W91508  27.540  24.300   4.060  0.1984 -0.2623 -0.2565
48493W        W91509  26.996  12.014  18.275 -0.3627 -0.1358  0.2092
48494W        W91510   2.147   0.831  28.819  0.0708 -0.0492  0.1501
48495W        W91511  18.981   3.292   7.038  0.0628  0.2540  0.3646
48496W        W91512  33.075   5.264  26.278  0.0228 -0.1273  0.1560
48497W        W91513   0.104  13.214  27.064 -0.1570 -0.1066  0.0926
48498W        W91514  24.678   6.618  28.585  0.1304 -0.2963 -0.1736
48499W        W91515  24.839   0.195  17.119  0.1707  0.0271  0.0330
48500W        W91516   2.096  16.493  24.771 -0.2367 -0.0712 -0.1976
48501W        W91517  29.748  20.085  21.163  0.0820  0.1761  0.3235
48502W        W91518   0.148  14.783  16.189 -0.0943  0.0135  0.1718
48503W        W91519   7.616   5.052  26.398 -0.3972 -0.0934 -0.2522
48504W        W91520  27.770  32.070  24.070 -0.0382 -0.0861 -0.1507
48505W        W91521   3.585  18.328  15.694  0.0341  0.1218 -0.0600
48506W        W91522  28.751  10.967  21.076  0.0692 -0.1025 -0.1377
48507W        W91523   0.314   3.181   6.825  0.1506  0.0623  0.0172
48508W        W91524   3.632  34.724  13.698 -0.1469  0.0062 -0.1968
48509W        W91525   0.070  11.042  23.343 -0.1629  0.0580 -0.0176
48510W        W91526   1.204  18.765  22.677  0.1308  0.1124  0.0128
48511W        W91527   9.310  18.130  17.132 -0.1900 -0.2338 -0.3360
48512W        W91528   8.043   0.354  10.331 -0.0382  0.1504  0.4354
48513W        W91529   1.474   0.766  17.323  0.7122 -0.3180  0.0702
48514W        W91530  14.160  12.662  22.208  0.1597  0.1975  0.1679
48515W        W91531   0.686   7.503  21.163 -0.1097 -0.2138  0.1481
48516W        W91532  12.272   6.837  19.386 -0.0150 -0.2486  0.1476
48517W        W91533   9.175  16.340   3.398  0.2170 -0.0090 -0.0258
48518W        W91534  24.637   7.056  20.023 -0.1977 -0.4951 -0.1784
48519W        W91535  28.365   0.210  22.077 -0.1173  0.1654  0.0577
48520W        W91536   2.514  26.115  18.072 -0.0527  0.1538 -0.0597
48521W        W91537  10.796  26.947  21.951  0.0435 -0.0768  0.0495
48522W        W91538   3.330  19.762  22.105  0.1703 -0.2748  0.2655
48523W        W91539   0.575   4.847  19.592  0.3258  0.2483  0.0701
48524W        W91540  18.333  26.731  22.321  0.0913  0.0779 -0.1051
48525W        W91541  22.569  16.201  24.707 -0.1712  0.2523  0.0259
48526W        W91542   3.591   3.888   0.915  0.1566 -0.2528 -0.0283
48527W        W91543   0.259  19.230   9.335  0.2535 -0.3490 -0.0894
48528W        W91544  10.448   1.384  27.049  0.1683  0.2754 -0.0251
48529W        W91545  22.156   6.676   1.428 -0.0890  0.1933 -0.5516
48530W        W91546  26.270   3.524  20.034  0.0616  0.1425 -0.2206
48531W        W91547   4.585  18.073   0.054 -0.4895 -0.3350  0.0757
48532W        W91548  17.566   6.133   2.536  0.0894 -0.1700 -0.0083
48533W        W91549   9.765  10.938   5.448 -0.1294  0.1730  0.1028
48534W        W91550   1.506  23.307  17.846 -0.0030  0.1801  0.1866
48535W        W91551   1.997  10.756  28.938  0.0512 -0.0426  0.0365
48536W        W91552   5.241  10.287  14.746  0.0539  0.0237  0.0606
48537W        W91553   2.253  20.495  26.708 -0.3647  0.1887 -0.0064
48538W        W91554  31.741  27.878  19.656  0.3942 -0.1026 -0.3086
48539W        W91555  31.072  22.484   0.525  0.0307  0.2799  0.0491
48540W        W91556   1.075   7.989  17.253 -0.3799  0.2284 -0.1441
48541W        W91557   5.280   3.464  24.116 -0.0445  0.1830 -0.2995
48542W        W91558   6.136   2.487  27.607 -0.0818 -0.2287  0.1290
48543W        W91559  12.121   7.551   7.453 -0.2196 -0.2585  0.4357
48544W        W91560  28.210  25.795  17.394  0.1198 -0.0306  0.0840
48545W        W91561  33.359  19.694  25.895 -0.1262 -0.1056  0.0825
48546W        W91562  27.804   2.838  17.056  0.1878 -0.2922  0.1239
48547W        W91563  10.440   0.918  21.933  0.1294 -0.2819 -0.0482
48548W        W91564  24.113  14.336  15.991 -0.0970 -0.0115  0.2429
48549W        W91565  12.350   8.475  16.799  0.1949 -0.0317 -0.1366
48550W        W91566   2.352   9.862  18.145  0.1515  0.2133  0.1663
48551W        W91567   4.142   8.669  20.243  0.1618 -0.2172  0.1612
48552W        W91568  13.870  29.749  19.917  0.1012 -0.1146 -0.2048
48553W        W91569  23.098   6.733  21.002  0.2637 -0.1652 -0.0651
48554W        W91570   4.415   3.868  16.458 -0.3342  0.0735 -0.1777
48555W        W91571   1.126  24.265  14.924 -0.0584 -0.1241  0.0542
48556W        W91572  29.014  26.208  17.334  0.1459  0.1391 -0.1287
48557W        W91573  15.146  11.665  12.468  0.0302  0.0681  0.0810
48558W        W91574  29.927   3.939  16.078 -0.2117 -0.3290 -0.0223
48559W        W91575  19.017   0.478  15.707 -0.0534  0.0183  0.1532
48560W        W91576   3.177  10.322  25.469  0.1540 -0.2348 -0.1386
48561W        W91577  12.507  23.797  18.529 -0.2797  0.0048 -0.3782
48562W        W91578   5.198   1.493   3.345 -0.2195  0.2045  0.0870
48563W        W91579  30.572   8.159  18.039 -0.2578  0.0182  0.2185
48564W        W91580  23.516  20.796  17.344 -0.3423 -0.0875  0.0458
48565W        W91581   0.694  14.899  19.669 -0.0964 -0.2560  0.0485
48566W        W91582  27.141   7.170  20.976 -0.0178 -0.0295 -0.0981
48567W        W91583  28.390   9.116   7.783  0.2194 -0.2437 -0.2497
48568W        W91584  31.737   2.242  17.224 -0.0535  0.0960  0.1597
48569W        W91585  30.366   8.761   2.108 -0.1382 -0.0434 -0.0366
48570W        W91586   6.549  18.993  28.889 -0.0852  0.1086  0.2771
48571W        W91587  26.248   0.321  16.430 -0.0478  0.0235 -0.2021
48572W        W91588  33.168   1.095  16.098 -0.2848  0.0180 -0.0802
48573W        W91589  18.824   2.850  22.146  0.3235 -0.3332  0.2420
48574W        W91590  33.256  22.912   9.006 -0.2164  0.0504  0.1993
48575W        W91591  30.825  33.007   4.760 -0.2121  0.4196 -0.1261
48576W        W91592  21.560   6.907   2.149  0.0260 -0.3758  0.1939
48577W        W91593  23.880  17.070  14.393  0.4415  0.0852  0.0037
48578W        W91594  31.253   8.900  19.243  0.0609 -0.0608 -0.1129
48579W        W91595  10.524   6.474  25.565 -0.0598  0.2083  0.0697
48580W        W91596  34.008  21.645   0.118  0.1518 -0.0217 -0.0732
48581W        W91597  32.056  19.166  23.157 -0.0315 -0.1081 -0.2333
48582W        W91598  30.017  28.293   8.131 -0.1989 -0.0479 -0.1283
48583W        W91599  21.349  18.775   1.731 -0.2304 -0.0607  0.2308
48584W        W91600   6.246   8.895  15.107  0.2495  0.1034 -0.0696
48585W        W91601   6.759  34.246  29.320 -0.1553 -0.0618 -0.1010
48586W        W91602   2.797  29.582   8.863  0.1148 -0.2237  0.1291
48587W        W91603  25.597   7.055   0.794 -0.2363  0.0824  0.2220
48588W        W91604  20.973   8.597  23.621 -0.1060 -0.0748  0.2245
48589W        W91605  29.826  31.944   7.856 -0.1463  0.2683 -0.2677
48590W        W91606  27.970   3.323  18.355  0.0929 -0.2582  0.0371
48591W        W91607  10.225  28.205  18.804 -0.2059  0.0016 -0.2740
48592W        W91608   8.000   1.392  15.651  0.2212  0.0091 -0.0616
48593W        W91609   1.077   1.296  26.710  0.2044  0.3561 -0.3107
48594W        W91610  27.805  11.231  14.327  0.3870  0.1414  0.0856
48595W        W91611  33.037   7.767  21.754 -0.0984 -0.4946  0.1017
48596W        W91612  18.625   8.192  19.358  0.0134  0.1990  0.0970
48597W        W91613   1.184   9.513   8.533  0.0428 -0.0075 -0.1442
48598W        W91614   0.241  28.539  18.191  0.0728  0.0058 -0.0352
48599W        W91615   0.367  17.938  10.559  0.1010 -0.0967 -0.0516
48600W        W91616  25.782   7.613  14.731  0.0562  0.1984 -0.1284
48601W        W91617  29.974   5.881  22.672 -0.0569  0.1027  0.0240
48602W        W91618  24.190  34.233  27.487  0.0043 -0.2307  0.2863
48603W        W91619   0.294   4.611  18.797 -0.4530 -0.0283 -0.0402
48604W        W91620  30.758  14.526  15.081 -0.1815  0.1127 -0.0006
48605W        W91621  32.174  33.685   8.465  0.4624 -0.0636  0.1250
48606W        W91622  31.588  33.372  23.084 -0.1020 -0.1124  0.2173
48607W        W91623   2.538  20.320  16.197 -0.3462  0.2993  0.3543
48608W        W91624   5.003  34.367   2.738 -0.1591 -0.2385 -0.0640
48609W        W91625  12.339  34.229  25.902 -0.1843 -0.1015  0.0474
48610W        W91626  24.678  32.708   9.375  0.2598 -0.0118 -0.0073
48611W        W91627  27.744  33.699  15.391  0.0999 -0.5177 -0.0440
48612W        W91628  33.792   9.726   8.074 -0.1654 -0.0204  0.0664
48613W        W91629   1.444  10.384  24.943 -0.0641  0.1504 -0.1766
48614W        W91630  27.495  30.976  16.574 -0.1647 -0.0449 -0.0101
48615W        W91631  25.759  28.112  22.430 -0.1252 -0.0938 -0.0654
48616W        W91632  34.684   6.164  27.252 -0.0180 -0.1896 -0.0060
48617W        W91633  34.507   0.898  23.239 -0.0010 -0.1054 -0.1049
48618W        W91634  21.798  27.515   5.381  0.0850 -0.0606  0.3617
48619W        W91635  26.296  11.961  15.753 -0.0687 -0.1236  0.0793
48620W        W91636   0.375   0.910  21.103 -0.1235  0.1713 -0.4421
48621W        W91637   6.788   4.472  25.875 -0.3633  0.0778  0.0302
48622W        W91638  23.414  24.779  10.442  0.0615 -0.0170 -0.1771
48623W        W91639   8.248  20.446  22.607  0.1340 -0.0679  0.1289
48624W        W91640   7.455  21.360  20.634  0.2849 -0.1758  0.1354
48625W        W91641  25.999  12.563  25.599 -0.0659  0.3908 -0.0677
48626W        W91642   9.187  27.745  28.840  0.0425  0.3578 -0.2792
48627W        W91643  10.445  28.955  21.989 -0.0639 -0.0528 -0.2611
48628W        W91644   0.803  27.486  10.153  0.0316 -0.0285  0.3420
48629W        W91645  17.998  18.248  20.144 -0.2522 -0.2960  0.0522
48630W        W91646   4.105  34.279  19.843 -0.0524 -0.0355  0.0833
48631W        W91647   5.716   0.557   6.026  0.1835  0.0130  0.4199
48632W        W91648  19.326  17.634  24.639 -0.0595 -0.1973  0.0938
48633W        W91649  23.545  23.418  23.318  0.2863 -0.1160  0.2811
48634W        W91650  33.107   5.607  16.468 -0.2827  0.0949 -0.1182
48635W        W91651   8.494   3.028  24.103 -0.1067  0.1604  0.1362
48636W        W91652  25.069   6.626  14.775 -0.0991  0.0110 -0.0127
48637W        W91653   5.339  30.669  16.385  0.2837  0.2437 -0.0103
48638W        W91654   8.586   4.717  19.272  0.0130  0.0615 -0.1410
48639W        W91655   2.052  11.439  22.906 -0.1136 -0.0187 -0.0443
48640W        W91656  22.627  22.807   5.555 -0.0968  0.0164  0.0270
48641W        W91657   7.134   6.996  24.634 -0.2671 -0.0573  0.0878
48642W        W91658  34.351  31.481  27.375 -0.1600 -0.0401 -0.4116
48643W        W91659  28.480   4.533  27.138  0.0500 -0.4463  0.1093
48644W        W91660  12.106   7.173   5.275 -0.1401  0.2830 -0.1627
48645W        W91661  27.402   1.290   1.022 -0.1248 -0.1391  0.1458
48646W        W91662  13.767  22.499  17.924 -0.2452 -0.2408 -0.0566
48647W        W91663  11.256  19.266  24.810 -0.3652  0.0908  0.0075
48648W        W91664   2.709  34.412  15.450  0.0115  0.1530 -0.0184
48649W        W91665  25.930  33.739   0.932 -0.1253  0.2563  0.0056
48650W        W91666   7.928  10.829  19.992 -0.1199  0.3054  0.2920
48651W        W91667  10.351   8.038   0.461  0.2153 -0.0968  0.0744
48652W        W91668   6.837   8.062  28.726  0.1820  0.1820  0.1665
48653W        W91669  34.633  17.985  25.984 -0.0995  0.3200 -0.0050
48654W        W91670  23.140   8.951   5.599  0.0364 -0.2248 -0.0093
48655W        W91671  21.472  13.979  22.386 -0.1387 -0.2500 -0.3534
48656W        W91672  29.458  27.284  11.007 -0.0957 -0.0744  0.0524
48657W        W91673  34.033  13.395  20.506 -0.2309 -0.2789  0.1084
48658W        W91674   3.313   1.440   8.692 -0.1040 -0.0472 -0.1644
48659W        W91675   3.839  10.096  17.073 -0.0349 -0.0361 -0.0457
48660W        W91676  33.933   9.757  21.089 -0.1083 -0.1011  0.1116
48661W        W91677  22.877  15.608  19.890 -0.1441 -0.0623 -0.2029
48662W        W91678  25.670   7.886   4.062  0.1362  0.2121 -0.2955
48663W        W91679  16.422   2.529  19.241 -0.0483 -0.1450 -0.0685
48664W        W91680  28.068   7.778  27.977 -0.0414 -0.1567 -0.0010
48665W        W91681  17.055   8.537  15.982  0.5928  0.4828 -0.3093
48666W        W91682  32.683  30.835   6.200  0.0706 -0.0368 -0.0182
48667W        W91683  20.701   9.358  27.016  0.0220  0.0468 -0.0738
48668W        W91684  23.633  32.114   9.453 -0.1369 -0.0137 -0.0040
48669W        W91685   4.355   0.267   6.278  0.0856  0.1282 -0.2183
48670W        W91686   5.188   5.761  23.853 -0.0158  0.3442 -0.0416
48671W        W91687  28.243   6.351   7.102  0.0170 -0.1705 -0.3569
48672W        W91688  28.471   2.267   9.642  0.2498  0.1980  0.0189
48673W        W91689   8.836  13.897   6.993  0.0142  0.0106  0.0130
48674W        W91690  24.321   4.984   7.713  0.0117 -0.0784 -0.1536
48675W        W91691  30.276   9.680  28.947 -0.1688  0.0321  0.4063
48676W        W91692   7.065   2.718  20.379  0.2004 -0.0346  0.0955
48677W        W91693   8.843   8.765  16.571 -0.2588 -0.2169  0.0894
48678W        W91694  31.931  11.769  23.518  0.2229  0.0665 -0.1080
48679W        W91695   5.391  16.697   7.613  0.1293  0.3276 -0.2005
48680W        W91696  32.129   7.699  22.495  0.0218  0.2756  0.2020
48681W        W91697  31.894  21.058   4.131  0.1618  0.2621 -0.1536
48682W        W91698   4.457  33.656  17.418  0.0929  0.2362 -0.2278
48683W        W91699  24.168  15.152  22.851 -0.0586  0.0746 -0.1048
48684W        W91700   3.173  11.847  19.784  0.1935 -0.1818 -0.0937
48685W        W91701   6.925  24.039  14.568  0.0107 -0.1533 -0.1460
48686W        W91702   0.665  19.028   6.835 -0.0379  0.0150  0.1695
48687W        W91703  10.305  14.954   2.954  0.0403  0.0676  0.0579
48688W        W91704  31.393   2.316  18.451 -0.2479 -0.1125  0.3207
48689W        W91705   0.217   5.742  20.173 -0.3235 -0.0107  0.0496
48690W        W91706   1.453   6.298   9.874  0.1517 -0.0364 -0.3628
48691W        W91707   0.553   8.254  20.533  0.1813  0.1751  0.2023
48692W        W91708  20.321   5.808   8.119  0.2853 -0.2298  0.1903
48693W        W91709   3.489  14.122  22.051  0.0176 -0.3475  0.0328
48694W        W91710   9.473   4.006   3.342  0.1016  0.1013 -0.0020
48695W        W91711   1.430  34.719  27.403  0.0616  0.2012  0.3818
48696W        W91712  23.712   2.504  21.755 -0.2870  0.0936 -0.3603
48697W        W91713  21.687   0.748  25.751 -0.2804 -0.0870 -0.0827
48698W        W91714  29.693  31.646  23.416 -0.0925 -0.2187  0.0586
48699W        W91715  33.785  18.035  22.099 -0.1935  0.4406  0.1908
48700W        W91716   7.069  11.767  28.923 -0.2756 -0.0679  0.0529
48701W        W91717   7.178  24.739  18.658 -0.0031  0.0013  0.0970
48702W        W91718  13.999  11.363   7.686 -0.2012  0.1989 -0.3585
48703W        W91719  18.736   8.194  18.848  0.1527 -0.0996 -0.3211
48704W        W91720   9.295  21.509  27.057  0.2473 -0.2517  0.2532
48705W        W91721  31.000   8.226   8.808 -0.0604  0.0729  0.0826
48706W        W91722   1.012  10.736  26.434  0.0811  0.1751  0.0711
48707W        W91723  29.580  12.704  25.595  0.2126 -0.0008  0.0017
48708W        W91724  27.651  12.625  17.849  0.0631 -0.0571  0.1993
48709W        W91725   9.984  29.533  28.798  0.0322 -0.0409  0.1190
48710W        W91726   3.960  25.654   1.760 -0.2547 -0.2083  0.0340
48711W        W91727  33.901   7.027  16.406  0.0346  0.0763 -0.0461
48712W        W91728  26.669   6.127  23.557  0.1204  0.0494  0.0983
48713W        W91729   5.327   2.526  28.108 -0.0843  0.0849 -0.1812
48714W        W91730  17.434   6.862  16.949 -0.0031  0.1278 -0.0383
48715W        W91731   2.819   4.186  10.607 -0.0218  0.0942 -0.1907
48716W        W91732   3.350  23.083  27.178 -0.2735  0.0813 -0.1401
48717W        W91733   0.855  32.988  27.165 -0.0160  0.1800 -0.0606
48718W        W91734  23.416   8.843  14.571 -0.2533  0.2219  0.7616
48719W        W91735  30.703  17.810   9.069 -0.0488 -0.0058  0.1592
48720W        W91736  29.084   3.333  10.425  0.1532  0.2860  0.4595
48721W        W91737   0.950  19.184  18.371 -0.1672  0.0763  0.2123
48722W        W91738  28.934  32.409   0.694 -0.1490 -0.2709  0.5673
48723W        W91739  27.706  19.021  26.420 -0.0263  0.3795  0.0135
48724W        W91740   6.328   3.456   0.817  0.0910 -0.3620 -0.0941
48725W        W91741  12.783   8.297   1.998  0.1182 -0.0175  0.0142
48726W        W91742  27.626   5.175  14.804 -0.1256  0.0897 -0.1115
48727W        W91743   0.640  25.944   3.224  0.0145 -0.2364 -0.0503
48728W        W91744  27.338   6.861   5.599 -0.3198  0.0514  0.3734
48729W        W91745   9.117  13.418  14.892  0.3994  0.0130 -0.1026
48730W        W91746   2.309  16.755  28.412  0.0436 -0.2531  0.1246
48731W        W91747   0.941  12.696  28.573 -0.2456 -0.0762 -0.1749
48732W        W91748  25.010   1.363  19.275 -0.1529  0.0989  0.0840
48733W        W91749  32.826  33.550  18.278  0.4162 -0.2152  0.1315
48734W        W91750  32.170  33.993   8.830  0.1488 -0.1114 -0.1702
48735W        W91751   6.373   4.256   7.178 -0.0796  0.0852  0.1534
48736W        W91752  28.193   2.305  27.636 -0.2991  0.1394 -0.1610
48737W        W91753  29.447  16.577   8.505 -0.0590 -0.1230 -0.0009
48738W        W91754  29.586  16.043  21.375 -0.4392  0.0218  0.2217
48739W        W91755  30.619  29.383  16.591  0.1543  0.2314 -0.3329
48740W        W91756  22.472   4.595   3.555  0.1356  0.0588  0.0210
48741W        W91757  24.760   7.525   1.045 -0.1262  0.2053  0.1109
48742W        W91758  17.525  12.575  24.529 -0.1144 -0.0514  0.1066
48743W        W91759   9.002   4.536  14.935 -0.0921 -0.0394  0.2976
48744W        W91760  15.216   2.384   9.016 -0.0110 -0.3694  0.0958
48745W        W91761   1.634  18.835  23.684 -0.2796 -0.2942 -0.0317
48746W        W91762  29.852   4.526  15.846 -0.0007 -0.0569  0.2543
48747W        W91763   9.483  30.976  25.286 -0.1091  0.1806  0.0125
48748W        W91764   6.340   6.675  19.380  0.0257  0.0162  0.0148
48749W        W91765  29.812   7.999  22.634 -0.2309  0.2377 -0.0755
48750W        W91766  29.286  22.673   4.962 -0.0099  0.0800 -0.0502
48751W        W91767   5.809   0.691   8.279  0.1968  0.0223 -0.1816
48752W        W91768  19.845  16.374  12.345  0.0383 -0.2412  0.4669
48753W        W91769  14.777  19.534  12.331  0.0882  0.1578  0.3842
48754W        W91770  15.935  13.736  27.884  0.0879 -0.0352  0.2784
48755W        W91771  26.429  24.974  25.348  0.0226 -0.3076 -0.0182
48756W        W91772   2.291   8.731   0.876  0.0117  0.0051 -0.1435
48757W        W91773   0.713  34.160   2.491  0.0767 -0.1385 -0.0354
48758W        W91774  32.380   7.290  22.712 -0.1639  0.0642 -0.0807
48759W        W91775  17.744   9.394  23.342 -0.1945 -0.0887 -0.1036
48760W        W91776  34.018   5.074   3.890 -0.3511 -0.2428 -0.4710
48761W        W91777   2.065   0.866  16.060  0.0519  0.0397 -0.1619
48762W        W91778  17.406   2.169   2.160 -0.1483 -0.2823 -0.1696
48763W        W91779   6.388   5.920  19.976 -0.0118  0.1356  0.1400
48764W        W91780  17.608  32.585   1.160  0.0756  0.0563  0.4343
48765W        W91781  15.797   9.319  26.183  0.1309 -0.0991 -0.3127
48766W        W91782  13.684  13.149   2.014 -0.0896 -0.0451  0.2779
48767W        W91783  30.182   9.456  24.904 -0.0893 -0.1036 -0.0627
48768W        W91784   6.313  12.200  21.705  0.4277 -0.0041  0.0795
48769W        W91785  31.895   0.420  27.514  0.1011  0.0092 -0.1249
48770W        W91786  28.495  11.514   1.657  0.1419  0.0887  0.1684
48771W        W91787  16.334   7.748  19.506 -0.1169 -0.0573 -0.0401
48772W        W91788  28.152  31.477  19.179  0.0400 -0.0790 -0.0036
48773W        W91789   6.975  14.041   3.410  0.2028 -0.0476 -0.0219
48774W        W91790  28.974   4.491  26.941  0.1155  0.1062 -0.4119
48775W        W91791  22.903   2.189   0.805  0.1439 -0.2093 -0.1511
48776W        W91792   4.148  20.278  14.355  0.0402  0.0739 -0.2333
48777W        W91793   1.440  12.246  25.961 -0.3238  0.1063  0.0418
48778W        W91794   3.404   9.591   8.759 -0.4270 -0.0522  0.2252
48779W        W91795   8.348  12.038   2.033 -0.0685  0.2827  0.0398
48780W        W91796  30.077  10.195   7.980  0.2097  0.0357 -0.0049
48781W        W91797  24.238   0.589   9.598 -0.0868 -0.2090 -0.1346
48782W        W91798   0.172  15.655   2.362 -0.0612  0.1152 -0.4735
48783W        W91799  32.437  19.191   0.824  0.1712  0.0348 -0.1199
48784W        W91800  32.688   9.113   0.272 -0.1873 -0.0454 -0.1375
48785W        W91801  26.309   4.530  23.406 -0.0781  0.3578  0.0597
48786W        W91802  24.052   9.366  25.476  0.1839  0.1238  0.0656
48787W        W91803  31.465   4.745  15.152 -0.2310  0.0956  0.2847
48788W        W91804   4.378   4.543   5.717 -0.0512 -0.1811  0.1477
48789W        W91805   2.800  27.100  24.745 -0.4560 -0.0447 -0.5149
48790W        W91806   8.596   3.449  18.695 -0.1069 -0.0189 -0.4886
48791W        W91807   8.425  13.949  17.122 -0.2348 -0.4405  0.3077
48792W        W91808   9.545  33.970   7.566  0.0062 -0.1156 -0.0072
48793W        W91809  17.689  29.622  27.697  0.0760 -0.1378 -0.0964
48794W        W91810   8.158   3.823   0.667 -0.0280  0.1172 -0.0964
48795W        W91811  12.849   5.607  16.114 -0.1336  0.0006 -0.0853
48796W        W91812  34.288   8.810  25.594  0.1253  0.0863  0.5028
48797W        W91813   5.909  18.840  24.974 -0.3603  0.1925 -0.0218
48798W        W91814   2.050  16.861  15.861 -0.1144 -0.1692 -0.3071
48799W        W91815  12.452   5.440   3.149 -0.0288  0.4109 -0.4538
48800W        W91816   0.234  19.602   3.428  0.1960  0.0091 -0.0693
48801W        W91817   2.348  24.871   6.798 -0.0469 -0.0667 -0.0503
48802W        W91818  15.185  12.827  15.610 -0.0526  0.2813 -0.1032
48803W        W91819  31.462  17.547   2.821 -0.0976 -0.0683 -0.2193
48804W        W91820  31.714  11.088  21.815  0.0885 -0.2151  0.0497
48805W        W91821  12.305   6.615  14.834 -0.0697 -0.6129  0.2189
48806W        W91822   2.600  14.887  18.531 -0.2091 -0.1464 -0.2423
48807W        W91823  29.249  12.062  14.692  0.0292 -0.1239  0.2270
48808W        W91824   4.292   1.456  20.107 -0.1617  0.2509 -0.0271
48809W        W91825   2.736  16.687  21.361  0.1441 -0.1186  0.2448
48810W        W91826  23.033  14.476  28.960 -0.0245 -0.1711 -0.0793
48811W        W91827   7.752   6.381  26.900  0.2315 -0.2293 -0.0921
48812W        W91828   5.460  27.208  17.061 -0.0314  0.1936  0.3499
48813W        W91829   6.020  13.552   7.448 -0.0102 -0.1992 -0.1028
48814W        W91830   0.381   5.882   3.782 -0.0360  0.0030  0.0130
48815W        W91831  29.570   3.616  27.891 -0.1594 -0.2054 -0.0023
48816W        W91832  23.752  10.213  20.140  0.0141  0.0181  0.1100
48817W        W91833   3.501  20.967  17.434  0.1188 -0.0172 -0.3323
48818W        W91834  29.669  33.879  26.620  0.0594 -0.1347 -0.3261
48819W        W91835   4.320  10.766  15.923 -0.2128 -0.1110  0.2133
48820W        W91836  12.004  15.795  15.222  0.5856  0.0950 -0.0950
48821W        W91837  28.693  14.681  23.560 -0.1502  0.2247  0.2457
48822W        W91838  24.755  10.798  27.031 -0.1139 -0.1701 -0.1536
48823W        W91839  34.324   8.881   0.783 -0.2199 -0.0365 -0.1653
48824W        W91840  33.860  13.758  20.838  0.0721  0.0172 -0.2605
48825W        W91841   8.783  14.057  28.613  0.0138  0.1203 -0.1002
48826W        W91842  27.105  25.114   2.083  0.0753  0.1911 -0.0738
48827W        W91843  25.603  27.301  24.438 -0.0893  0.0340 -0.2232
48828W        W91844  16.460  11.791  22.461 -0.1585 -0.1032 -0.2218
48829W        W91845  18.231   9.361  23.290 -0.3888  0.1495  0.2810
48830W        W91846  21.747  23.396  25.989  0.1174  0.1249  0.2474
48831W        W91847  32.482   9.163   5.428 -0.0290 -0.0514 -0.0500
48832W        W91848  19.411   5.399  25.221 -0.0108 -0.0668  0.0345
48833W        W91849  33.968  30.929  16.613 -0.0604  0.0957  0.0231
48834W        W91850  28.452  20.795  19.655  0.0073  0.4313  0.3074
48835W        W91851  32.741  12.350  16.715 -0.2987 -0.0693  0.3468
48836W        W91852  16.651  33.670   2.999 -0.0827 -0.0897 -0.2567
48837W        W91853  25.847   9.447  15.864 -0.3124  0.0313 -0.1422
48838W        W91854  24.506   9.387  28.706 -0.0924 -0.2616  0.1562
48839W        W91855  16.109   2.019   3.112  0.1939 -0.0649 -0.2370
48840W        W91856   8.855  13.173  23.902  0.0867  0.3158 -0.1891
48841W        W91857  32.143   9.868  22.145 -0.1550 -0.0255 -0.0108
48842W        W91858   7.318   5.719   7.993 -0.0810 -0.2733  0.0170
48843W        W91859   6.029  11.658   0.609 -0.2219  0.3338 -0.2755
48844W        W91860   3.266   9.485   7.917  0.1150  0.1148  0.0277
48845W        W91861   2.104  18.303  24.656 -0.1776 -0.2610 -0.0634
48846W        W91862   7.678   6.935   7.861 -0.2858 -0.2044 -0.1893
48847W        W91863   7.514  34.482   7.827 -0.1067  0.2914 -0.1056
48848W        W91864  31.770   1.673  27.864 -0.1501 -0.0016  0.0839
48849W        W91865  29.532   6.627  19.575 -0.2043 -0.0384 -0.3792
48850W        W91866  16.357  22.176   5.683  0.3292  0.1492 -0.2596
48851W        W91867   4.405   8.687   2.767  0.3680 -0.1361  0.0788
48852W        W91868  33.553  12.733  18.845 -0.3255 -0.2361 -0.0562
48853W        W91869  29.436  24.808  18.364  0.1215  0.0684 -0.0642
48854W        W91870  16.690  27.032   4.309 -0.0489  0.0702  0.0949
48855W        W91871  30.213   0.923  21.948  0.0343  0.2552  0.2884
48856W        W91872   1.840  28.108  23.390 -0.3838 -0.1729  0.0626
48857W        W91873  25.131  16.332  16.029 -0.1787  0.0102 -0.0296
48858W        W91874  10.655  25.936  27.144 -0.0597  0.2380 -0.0517
48859W        W91875  29.070  27.134  17.041  0.1486  0.0270 -0.1227
48860W        W91876   1.313   4.072   6.008  0.1627 -0.2164 -0.1913
48861W        W91877  32.485  19.307   7.510  0.1880 -0.0808  0.1405
48862W        W91878   2.638  34.541  26.049 -0.3750 -0.0714 -0.3027
48863W        W91879  25.683  32.313   7.587  0.1151 -0.1321  0.0041
48864W        W91880   2.053   0.549  28.407 -0.0095 -0.0170 -0.2624
48865W        W91881   1.749  27.958  26.963 -0.0624 -0.0560 -0.0625
48866W        W91882   3.660  21.465  24.070  0.1039  0.1030 -0.0284
48867W        W91883   1.623  16.635   3.189 -0.1111  0.0722  0.2332
48868W        W91884  26.534  13.992  21.822 -0.3823 -0.0168  0.3072
48869W        W91885  33.441   3.690   2.482  0.2810  0.2249 -0.1142
48870W        W91886  30.184   8.890  20.050  0.0040 -0.1547 -0.1345
48871W        W91887  28.279  17.708  14.720 -0.0409  0.4033  0.1488
48872W        W91888   0.387  14.365  26.818  0.1801 -0.1057 -0.0725
48873W        W91889  30.303  10.386   6.843  0.0508  0.1387 -0.0196
48874W        W91890  31.414   6.797   1.486  0.0688 -0.1405 -0.2534
48875W        W91891   4.970   4.929  14.674  0.2012  0.0383 -0.1250
48876W        W91892  34.721  25.079  28.240  0.1204  0.1202  0.2797
48877W        W91893  25.752  19.287   3.338 -0.0408  0.2277 -0.1572
48878W        W91894   2.301   2.890  25.842 -0.0003  0.0342 -0.3523
48879W        W91895   9.031  30.990  25.497  0.1756 -0.0964 -0.0033
48880W        W91896  26.666   7.867  22.873  0.1267  0.0031 -0.0164
48881W        W91897  14.843   1.537   1.800  0.2617  0.0625 -0.0477
48882W        W91898   4.916  14.507  15.002  0.0807  0.1220 -0.0807
48883W        W91899   6.382  10.084  27.294  0.1928 -0.1483 -0.0749
48884W        W91900  10.017  12.612  28.100  0.0232  0.0011  0.2143
48885W        W91901   3.862   7.608  15.644 -0.2643  0.0167 -0.0163
48886W        W91902  32.438  10.138   1.938  0.2992 -0.0739 -0.1711
48887W        W91903   8.708  22.969  27.270  0.0946 -0.0261  0.2556
48888W        W91904   6.455   3.153   3.910 -0.0658 -0.1089  0.0514
48889W        W91905  31.736  14.453  25.245  0.1674  0.1282  0.1649
48890W        W91906  30.606  12.604  20.526  0.1976  0.2196  0.0344
48891W        W91907  25.449   0.387   0.333 -0.1198  0.0172 -0.2787
48892W        W91908  31.324  25.070   1.437  0.0362  0.2945  0.1292
48893W        W91909  11.774  16.371  29.304 -0.0051  0.1004 -0.0235
48894W        W91910  28.929  19.556   9.256  0.1670  0.1978  0.0187
48895W        W91911  31.847   2.902   6.880 -0.3306 -0.2028 -0.1736
48896W        W91912  24.131   3.873   1.632 -0.0227  0.0129 -0.1440
48897W        W91913   4.481  14.423  23.159 -0.0396  0.0395  0.4184
48898W        W91914   6.643  20.471  24.167 -0.0643  0.1549 -0.0412
48899W        W91915  22.390  27.454   9.443 -0.1426 -0.2385 -0.1989
48900W        W91916  30.666  14.087  24.715  0.3814  0.3478  0.2071
48901W        W91917   1.312  21.611  17.155  0.0398  0.0438  0.2092
48902W        W91918   0.558   8.971  22.049  0.0150 -0.0250  0.3233
48903W        W91919  29.413   5.962  18.795  0.0709 -0.0847  0.1075
48904W        W91920   9.272  31.376  15.762  0.0299 -0.2583 -0.0590
48905W        W91921   7.664   0.832  14.967  0.0621  0.1622  0.0311
48906W        W91922  23.972   9.244  24.496  0.1960 -0.1025 -0.1064
48907W        W91923   2.723   7.534  17.808  0.2355 -0.3014  0.0387
48908W        W91924   6.296  11.605   3.343 -0.0285 -0.2441  0.0455
48909W        W91925   1.341  12.721  22.450 -0.0731 -0.0956 -0.0655
48910W        W91926  26.424  34.287  15.745 -0.1445  0.0983  0.3178
48911W        W91927   2.630  13.099  19.852 -0.0071  0.0039 -0.1825
48912W        W91928   7.733  25.435  20.315 -0.2025  0.0637 -0.0221
48913W        W91929  28.610   3.894  18.539 -0.0044  0.4134  0.2802
48914W        W91930   7.111  19.681  13.261  0.2981  0.0203  0.0530
48915W        W91931  12.777   7.795  25.102  0.1991  0.0397  0.1603
48916W        W91932  26.100  28.605   0.385 -0.2538 -0.0506  0.1571
48917W        W91933  29.502  33.753  26.098 -0.0291 -0.0701  0.3202
48918W        W91934  30.591   0.888  20.264  0.0547 -0.0961  0.1901
48919W        W91935   9.178  24.884  19.408  0.1140 -0.0217 -0.0694
48920W        W91936  27.775  24.121  18.867 -0.0370 -0.1278  0.0824
48921W        W91937   9.445   6.694  20.088  0.1581 -0.1062 -0.4177
48922W        W91938   4.257  13.232  18.997 -0.1575 -0.2554  0.4449
48923W        W91939  11.086  27.201  14.055 -0.2727 -0.2567 -0.0042
48924W        W91940  28.645   6.797  25.577 -0.1272  0.1652 -0.1257
48925W        W91941  30.960  12.053  25.784 -0.2853  0.1442 -0.0693
48926W        W91942   4.093  19.213   7.235 -0.0481  0.0459  0.0705
48927W        W91943   5.192  11.670   4.565  0.1089  0.0484 -0.1125
48928W        W91944   1.442  22.141   0.886 -0.1861 -0.0173 -0.2831
48929W        W91945  30.306  15.439  16.419  0.1647 -0.1386  0.1574
48930W        W91946  19.199  27.848   0.863 -0.0135 -0.0505 -0.2491
48931W        W91947  30.266  34.713  23.580  0.0385  0.3206 -0.4350
48932W        W91948  18.037  12.125  22.894  0.0858 -0.3962 -0.1206
48933W        W91949  21.479  20.477  16.387 -0.0930 -0.0440 -0.1384
48934W        W91950   2.774  24.217  19.376  0.0892  0.1046 -0.1651
48935W        W91951   7.011  14.675  13.926  0.2254  0.0662 -0.0953
48936W        W91952  22.021   1.810  17.342 -0.2483  0.1289 -0.4252
48937W        W91953  32.454  18.563  17.524  0.3490  0.3349  0.0916
48938W        W91954  10.759  18.241  13.067 -0.1772 -0.3580 -0.0372
48939W        W91955  12.471  27.957  17.370 -0.1023  0.2956 -0.3838
48940W        W91956  30.254  19.655  16.718 -0.7697  0.3071  0.4374
48941W        W91957   8.297   9.134  20.851  0.2843 -0.1351  0.2262
48942W        W91958   7.674  20.855  12.631  0.1318  0.0838  0.1898
48943W        W91959  30.156  23.355  18.506  0.0987  0.0141 -0.0560
48944W        W91960  29.487  25.445  16.268  0.1576  0.2330  0.4124
48945W        W91961   5.137  27.242  17.530 -0.1093 -0.0778  0.0411
48946W        W91962  34.201   0.649  16.383  0.0169 -0.1566 -0.1356
48947W        W91963   0.136  13.147  18.212  0.0374 -0.0409  0.0458
48948W        W91964  18.397  14.956  25.793 -0.0636 -0.0684 -0.0905
48949W        W91965   0.409  14.538  16.591  0.0364 -0.2252  0.2381
48950W        W91966  26.786   3.332  24.925 -0.1042  0.0345 -0.3627
48951W        W91967   9.364   8.023   0.573  0.0755 -0.3334 -0.2086
48952W        W91968  31.900  30.823  19.023 -0.0305 -0.1895  0.2128
48953W        W91969  10.297  27.385  16.875  0.1242 -0.2170 -0.1629
48954W        W91970  23.311   2.635  18.607  0.1171 -0.2130 -0.3244
48955W        W91971  26.784   0.738  28.668  0.1927  0.1334  0.1004
48956W        W91972  32.403  18.321  20.037 -0.0208  0.0057 -0.0387
48957W        W91973   8.391  16.664  26.547 -0.1655 -0.0084 -0.2254
48958W        W91974   6.477   6.847  26.200  0.0749 -0.2269  0.0543
48959W        W91975  34.607  13.563  15.927 -0.3076  0.1766 -0.3952
48960W        W91976  30.252  24.670   0.279  0.1610  0.4170  0.0761
48961W        W91977   7.977  11.707  18.797 -0.3784  0.0418  0.0332
48962W        W91978  32.899   9.826  18.527  0.2672  0.1313 -0.1645
48963W        W91979  33.696  16.427  24.563 -0.0698  0.1074  0.1570
48964W        W91980  18.329   4.061  27.093  0.2208 -0.0397 -0.1410
48965W        W91981  33.552  17.134  14.250 -0.2475  0.4314  0.0835
48966W        W91982  26.672   7.727  27.505 -0.3238 -0.1799  0.1379
48967W        W91983  27.147   7.496  16.794  0.3482 -0.2778 -0.3026
48968W        W91984   7.740   2.960  25.794  0.0020 -0.1150 -0.0609
48969W        W91985   5.902  27.824  18.619  0.1162 -0.0139 -0.0467
48970W        W91986  27.260  26.843  22.979  0.1341 -0.0418  0.0875
48971W        W91987   2.040  20.723   0.880  0.1424 -0.1663  0.0523
48972W        W91988  11.339   8.772  23.313 -0.2717  0.0099 -0.1566
48973W        W91989  26.030  22.888  17.381 -0.1084  0.1094  0.1318
48974W        W91990   7.150  17.538  17.680 -0.1861 -0.1087  0.1230
48975W        W91991  27.677   4.063  23.371 -0.0645  0.0231  0.1362
48976W        W91992   7.810   9.687  18.620  0.0329 -0.0459 -0.1454
48977W        W91993  27.046   3.420  20.601 -0.1059 -0.2404  0.1164
48978W        W91994   7.442  11.240  17.657  0.1612  0.0246  0.1618
48979W        W91995  30.300  31.707  22.554 -0.2096  0.1217  0.0772
48980W        W91996   7.922  20.330  25.253  0.2347 -0.2962  0.1307
48981W        W91997  34.230   4.359  15.973  0.1802  0.0110  0.1630
48982W        W91998  33.238   8.280  17.328  0.0283 -0.1170 -0.0219
48983W        W91999  32.970   7.354  17.325 -0.0091  0.0799 -0.0038
48984W        W92000   0.532  15.364  19.422  0.2668 -0.0343 -0.1202
48985W        W92001   3.594   7.153   2.185 -0.0055 -0.1495 -0.0173
48986W        W92002  10.675  13.908  27.010 -0.0918  0.0247 -0.1415
48987W        W92003  11.543  31.972  17.717  0.1158  0.0393 -0.1798
48988W        W92004  30.637   1.110   3.512 -0.1341  0.5587  0.0781
48989W        W92005  18.589  20.909  16.199 -0.2085 -0.0287  0.1655
48990W        W92006  13.663  23.553  12.113  0.3430  0.0806  0.2311
48991W        W92007  31.592  20.391  21.531 -0.1855  0.1818 -0.0931
48992W        W92008  11.369   5.196  19.433 -0.3295  0.1262 -0.1177
48993W        W92009  33.440   6.752   3.316  0.1354  0.1882 -0.1379
48994W        W92010   0.022  19.672   0.541 -0.1586 -0.1691  0.4165
48995W        W92011   9.558   8.617  22.534 -0.1751 -0.2035  0.2732
48996W        W92012  25.121   8.225  17.337 -0.0904 -0.0059  0.4151
48997W        W92013   9.003  24.192  23.322  0.0059 -0.0657 -0.3311
48998W        W92014   7.634  28.336  28.223  0.0383 -0.3049 -0.0543
48999W        W92015  27.230   9.974  14.942  0.0143  0.1308 -0.0194
49000W        W92016   1.842  10.779  15.004 -0.2013  0.2701 -0.0950
49001W        W92017   0.532   9.332  25.891 -0.0925  0.2455 -0.2095
49002W        W92018   6.557   3.354   3.407 -0.0889 -0.1472  0.0794
49003W        W92019   5.648  18.406  16.968 -0.2615 -0.0109  0.3953
49004W        W92020  10.152   9.312  26.048  0.1033 -0.1978  0.1499
49005W        W92021  15.436  12.300  13.828  0.0281 -0.0742 -0.3461
49006W        W92022   5.931   8.813  27.598 -0.4521  0.2027  0.0725
49007W        W92023   5.945  30.618  21.759  0.1880 -0.2112 -0.1049
49008W        W92024   1.174   6.120  22.620 -0.1387  0.1010 -0.0014
49009W        W92025  34.236   5.145  17.603 -0.1375 -0.3640 -0.1804
49010W        W92026   9.645  17.593  24.381  0.0559  0.0314 -0.0459
49011W        W92027  25.050   7.918  26.494  0.0218 -0.0350  0.1041
49012W        W92028  16.760  27.231  22.664 -0.1401  0.0545 -0.0311
49013W        W92029   2.092  27.963  20.416  0.2698  0.3714 -0.2149
49014W        W92030   1.966  28.052  16.798 -0.0430 -0.2343 -0.1779
49015W        W92031  29.663   7.886   4.323  0.0273 -0.0778  0.1382
49016W        W92032  25.334   2.711  15.858  0.0801 -0.0797 -0.1028
49017W        W92033   7.315  23.185  22.234  0.2127 -0.1346  0.1245
49018W        W92034  15.796  25.053  18.167  0.1984 -0.0402  0.0997
49019W        W92035   8.154   0.240  23.280 -0.3632 -0.0395  0.0382
49020W        W92036  30.141  31.198  21.135 -0.1012 -0.0517  0.1204
49021W        W92037  12.389  18.689  20.913  0.1203  0.1883 -0.1769
49022W        W92038   2.101   7.201  22.366  0.0205  0.0097 -0.2376
49023W        W92039   0.169  25.504  23.233 -0.1652  0.1032  0.2107
49024W        W92040   9.649   5.927  15.868  0.2471  0.2515  0.2542
49025W        W92041   3.090   9.305  21.816 -0.0891  0.1745 -0.0158
49026W        W92042  25.063  14.375  13.953 -0.0020 -0.1463 -0.0474
49027W        W92043   7.381   1.514   1.003 -0.0594 -0.0564 -0.2155
49028W        W92044  19.291  21.241  16.214 -0.2879  0.0034 -0.0377
49029W        W92045   5.784  34.014  16.052  0.0667  0.2574  0.0664
49030W        W92046  19.960   6.345  27.019 -0.1627 -0.2997 -0.0532
49031W        W92047   7.541   6.611   7.384  0.0863  0.0848 -0.1712
49032W        W92048  26.173  24.807  16.204 -0.0002  0.0067  0.1265
49033W        W92049  21.983  12.454  16.977  0.3727 -0.0329  0.2321
49034W        W92050   1.689  30.290  17.817  0.0793 -0.1399  0.1409
49035W        W92051   4.262   8.366  19.108  0.0966 -0.0225  0.0752
49036W        W92052   4.295  28.218  27.763  0.1878 -0.1136  0.2615
49037W        W92053   7.003   5.335  14.887 -0.2163  0.3781 -0.0196
49038W        W92054  23.360   6.797  18.606 -0.1764 -0.1296 -0.3627
49039W        W92055  33.808   6.038  22.417  0.2778  0.3360  0.0189
49040W        W92056  31.985   4.624  16.185  0.1077  0.1333  0.2494
49041W        W92057  31.529  10.912  26.815 -0.2329  0.2343  0.0866
49042W        W92058  10.601  32.058  20.412 -0.0358 -0.0635  0.0022
49043W        W92059  23.940  11.065  14.635  0.1414  0.1660 -0.0261
49044W        W92060  23.308  11.573  18.502  0.1171 -0.1429  0.1339
49045W        W92061   9.771   8.850  24.378 -0.0335 -0.3047  0.1500
49046W        W92062  30.067   1.801  15.890  0.2363  0.1055 -0.0569
49047W        W92063   2.976  11.552  18.231  0.0464  0.2990 -0.0147
49048W        W92064  23.176  25.777   2.656 -0.1992 -0.1619  0.1354
49049W        W92065   9.560  34.129  14.708 -0.0813  0.1236  0.2154
49050W        W92066  10.462  18.998  12.663  0.0994  0.0086 -0.0475
49051W        W92067   1.504  23.866  27.263 -0.3259  0.1238  0.2010
49052W        W92068  34.020  15.644   6.966 -0.1450 -0.1213 -0.1123
49053W        W92069  27.265  13.074  23.186  0.0470  0.0509 -0.0081
49054W        W92070   2.794   7.366  16.782 -0.2060  0.2615  0.0904
49055W        W92071   6.573  24.709  18.336 -0.0559 -0.0745  0.0051
49056W        W92072  18.835  22.991   1.053  0.1528  0.1853  0.1441
49057W        W92073   6.441  18.790  26.062 -0.0385  0.1756 -0.0397
49058W        W92074  20.261  24.521  14.354 -0.3086 -0.0623  0.0973
49059W        W92075   3.743   4.183  14.642  0.0424 -0.4764  0.1993
49060W        W92076  18.682   3.209  22.519  0.3640  0.1310 -0.1877
49061W        W92077   1.778  12.050  26.254  0.3226 -0.2905 -0.0125
49062W        W92078   1.345   9.556  17.422 -0.1024 -0.0008 -0.3474
49063W        W92079  29.549   9.403  22.437  0.2167  0.0875 -0.0030
49064W        W92080  12.196  11.932  24.984 -0.0278 -0.1174 -0.1987
49065W        W92081   5.190   1.830  17.095 -0.0328 -0.0543 -0.1603
49066W        W92082  23.243  19.466  12.571 -0.2725 -0.3358  0.1197
49067W        W92083   6.256   7.260  14.675  0.1601 -0.3283  0.2182
49068W        W92084  17.208  22.385  16.513 -0.2433  0.1343 -0.2064
49069W        W92085   9.153   9.196  22.043 -0.1886  0.0383 -0.0731
49070W        W92086   0.454  23.294  18.571 -0.0803 -0.2096 -0.1208
49071W        W92087   6.319   7.857  16.842  0.3924  0.3120 -0.1627
49072W        W92088  25.043   2.449  21.395 -0.1203 -0.0879 -0.0893
49073W        W92089  26.031   8.352   2.067  0.1458 -0.1971 -0.1488
49074W        W92090   3.596  14.006  23.078  0.2409  0.2413 -0.1006
49075W        W92091  19.232  34.289  25.406 -0.1717 -0.0736  0.1406
49076W        W92092  11.827  14.733  29.018 -0.0652 -0.2803 -0.0357
49077W        W92093   6.996  10.643  24.131 -0.1339 -0.2602  0.1459
49078W        W92094  30.401   1.380  17.161  0.2901 -0.0522 -0.0584
49079W        W92095   0.657   9.656  24.904 -0.0382 -0.1074  0.0279
49080W        W92096  10.193   8.617  14.455 -0.0079  0.3484 -0.0409
49081W        W92097   3.962  19.040  20.133  0.0507  0.0959  0.0554
49082W        W92098  30.219  14.786  26.850 -0.1600  0.0094 -0.2090
49083W        W92099  22.124  26.059  18.250 -0.0869 -0.1587  0.2780
49084W        W92100  15.821  14.013  23.830 -0.0768 -0.0934 -0.0210
49085W        W92101  17.316   7.621  16.312  0.1096  0.3525  0.1462
49086W        W92102  11.380  15.943  12.048 -0.0598 -0.2123 -0.0355
49087W        W92103  14.247   0.687  25.604 -0.4009  0.1825  0.1952
49088W        W92104  34.528  11.085  26.632  0.2525 -0.0678 -0.3433
49089W        W92105   4.078   7.632  13.990 -0.0099  0.0396  0.2247
49090W        W92106   2.687  19.791   4.226 -0.0901  0.0277 -0.2650
49091W        W92107  34.471  28.601  15.341  0.0365  0.3045 -0.0589
49092W        W92108  33.165   1.816  27.626  0.1011  0.1881  0.0392
49093W        W92109  32.127   0.747  20.834  0.0864 -0.1335  0.0379
49094W        W92110  23.898  12.885  17.293  0.0648  0.0036 -0.1531
49095W        W92111   4.910   7.027  23.338  0.0064  0.0628 -0.3321
49096W        W92112  26.015  14.485   2.013 -0.3274  0.3122  0.0296
49097W        W92113  20.106  34.300  25.492  0.2273 -0.0381 -0.1213
49098W        W92114   5.928  15.213  17.658  0.0434 -0.0664 -0.1423
49099W        W92115  30.994  18.183  17.391 -0.0076  0.2221  0.4299
49100W        W92116  15.810   9.938  23.471 -0.2280  0.0961 -0.2304
49101W        W92117  28.544  18.262  14.931  0.2395  0.2410  0.0682
49102W        W92118  28.537  34.353  20.431 -0.2020  0.2084 -0.0929
49103W        W92119  29.801   1.128  15.688 -0.0841  0.1031  0.0848
49104W        W92120  12.023  19.689  13.563  0.0063  0.3170  0.0716
49105W        W92121  29.331  14.906  20.773  0.0445 -0.2137  0.0014
49106W        W92122   0.852   7.096  22.362  0.1901 -0.0186  0.0297
49107W        W92123  28.837  16.010  27.250  0.0774  0.0782  0.0370
49108W        W92124   8.407  16.016  13.479 -0.2096  0.0375 -0.2109
49109W        W92125   6.472  16.272  28.461 -0.1359  0.0939 -0.0607
49110W        W92126  18.441  10.863  19.778 -0.1779 -0.3475 -0.0640
49111W        W92127  30.836  26.652   0.089  0.0684  0.0238 -0.0549
49112W        W92128   4.488  10.367  15.731 -0.2635 -0.1404 -0.1695
49113W        W92129  28.737   5.700   3.037  0.0390  0.2411  0.0450
49114W        W92130  26.172  14.867   2.304  0.2174 -0.1661  0.0456
49115W        W92131  22.441   5.020  14.603 -0.3556  0.1188  0.1923
49116W        W92132  28.259   6.063  16.316  0.4026 -0.1111 -0.0353
49117W        W92133  26.136  15.418  14.346 -0.1416 -0.0863 -0.0929
49118W        W92134  32.918  25.113  23.663  0.0713 -0.3220  0.1594
49119W        W92135   1.306  20.578  22.573  0.0917  0.5394  0.0353
49120W        W92136   2.094   3.102  17.243  0.2419  0.3565 -0.0339
49121W        W92137  33.771  20.640  16.399  0.1239 -0.2574  0.1653
49122W        W92138   9.990  19.651  28.618  0.3783  0.0216 -0.0836
49123W        W92139   7.556  32.125  16.935 -0.0452  0.4703  0.1223
49124W        W92140  24.574   7.366  14.730 -0.1687  0.2982  0.0656
49125W        W92141  23.710  14.733  16.523  0.0089  0.1024 -0.1363
49126W        W92142  15.143  15.148  23.559 -0.0839 -0.0053 -0.1807
49127W        W92143   4.748  11.017  25.853  0.1700 -0.0516 -0.0264
49128W        W92144  15.987  10.654   1.759  0.1394  0.2036  0.1702
49129W        W92145  29.408   3.000   0.760 -0.0322  0.0809 -0.1701
49130W        W92146   1.521  10.176  15.843 -0.1595 -0.0493  0.0472
49131W        W92147  13.064   9.352  15.646 -0.0623 -0.0365 -0.0998
49132W        W92148   3.351   7.874   3.286  0.1654 -0.1188  0.1547
49133W        W92149  21.718  13.110  19.211 -0.2733 -0.1314  0.0904
49134W        W92150  29.036   8.125  23.516  0.0783 -0.2081  0.2731
49135W        W92151  21.192   9.218  25.775  0.0294  0.1170  0.2170
49136W        W92152   9.255  20.163   0.621  0.1963 -0.0563  0.2246
49137W        W92153   8.422  20.957  20.754 -0.0360 -0.2405 -0.0431
49138W        W92154   1.597   7.679  19.763  0.4186  0.1067  0.1156
49139W        W92155  11.395   2.312   1.773  0.1924  0.0522 -0.1480
49140W        W92156  28.091  30.889  23.675  0.2359  0.0381  0.1694
49141W        W92157   0.791  12.686  23.807  0.2391 -0.0382 -0.1427
49142W        W92158  20.688   4.862  21.457  0.3552  0.0641 -0.1959
49143W        W92159  33.011  17.801  22.895 -0.1034 -0.2067 -0.0632
49144W        W92160   0.674  13.067  21.326  0.2450  0.0567  0.5327
49145W        W92161  29.712  11.167  19.382  0.0257  0.1126  0.1660
49146W        W92162  34.490  28.487  19.323 -0.2921  0.3934 -0.0175
49147W        W92163   8.545  15.296  14.714  0.0490 -0.2163  0.0740
49148W        W92164  16.892   4.747  22.389  0.0359 -0.2534  0.2687
49149W        W92165  32.309  23.166  27.813  0.0495  0.2190 -0.3571
49150W        W92166  22.580   4.364  21.474 -0.0679 -0.1007  0.0201
49151W        W92167   1.350  13.812  18.170 -0.0614  0.4102 -0.0320
49152W        W92168   0.819  13.038  28.224 -0.5059  0.0360  0.2179
49153W        W92169  29.452  30.378  26.040  0.3220 -0.0679 -0.0281
49154W        W92170   1.732  33.951  23.287  0.1741 -0.0378  0.2812
49155W        W92171  12.755   9.705  26.514 -0.1364  0.2835  0.0376
49156W        W92172  24.697  18.472  19.978 -0.0924 -0.1300  0.1634
49157W        W92173  29.948  13.573  28.009 -0.0643  0.2127  0.1391
49158W        W92174   2.680  18.985   8.755 -0.3739  0.0242  0.1925
49159W        W92175  33.916   1.385  17.524  0.1032  0.3241  0.2134
49160W        W92176   6.234  20.290  23.169 -0.1908 -0.1481  0.0130
49161W        W92177   7.288  14.756  14.607  0.2279 -0.0922  0.0877
49162W        W92178   9.734   2.089  16.016 -0.3599  0.3820  0.2062
49163W        W92179  33.335   9.205  14.977 -0.2711 -0.0250 -0.4584
49164W        W92180   2.969  11.077  21.121 -0.0136 -0.1815 -0.0563
49165W        W92181  25.924   3.250  15.942  0.3321  0.0741 -0.1522
49166W        W92182  30.594   3.906  15.955  0.0277 -0.0945 -0.1208
49167W        W92183   3.080   5.481  16.574 -0.0572  0.1252  0.0491
49168W        W92184   1.590   2.929  23.466 -0.1815  0.0483  0.0938
49169W        W92185   5.318  33.553  26.987 -0.0620  0.0649  0.0698
49170W        W92186  32.636  24.691  22.364 -0.1455 -0.1844 -0.1057
49171W        W92187  12.943  18.304  21.784  0.3150 -0.2526 -0.3242
49172W        W92188  23.796   7.916   1.894  0.0480 -0.0576  0.0439
49173W        W92189  12.448  26.199  18.427 -0.1988 -0.0155 -0.0843
49174W        W92190  33.649  15.871   5.542  0.0399 -0.1126  0.1285
49175W        W92191  25.982  33.144  23.511  0.0526 -0.1125 -0.4062
49176W        W92192   3.878  27.955  16.406  0.0662  0.1560 -0.0067
49177W        W92193  26.080  14.100   2.377  0.1148  0.1222 -0.0850
49178W        W92194  32.849  17.519  25.907 -0.1398  0.0177  0.1131
49179W        W92195  25.410   9.558  18.015  0.0646 -0.0866 -0.2533
49180W        W92196  30.216  29.888  22.885 -0.0415  0.3023 -0.1893
49181W        W92197  30.218  14.994   9.700  0.0490  0.2070 -0.2199
49182W        W92198  17.803  11.591  25.440 -0.0087  0.2348  0.2193
49183W        W92199   5.618  19.925  13.971  0.0317 -0.2113  0.1443
49184W        W92200   3.546  17.769  18.118 -0.2566  0.2090 -0.1604
49185W        W92201   5.646  14.224  15.801  0.0313  0.2651  0.0487
49186W        W92202  23.774  12.104  14.436  0.0275 -0.2611 -0.0592
49187W        W92203  32.318  22.201  21.243  0.0872 -0.1157  0.2269
49188W        W92204  27.010  10.816  15.272 -0.1864 -0.1361 -0.0862
49189W        W92205  34.195   9.871  20.126 -0.0745 -0.0177  0.0175
49190W        W92206   9.639  34.352  19.609 -0.0746 -0.1846 -0.0077
49191W        W92207   3.352  12.447  14.673 -0.0134 -0.0106  0.1596
49192W        W92208  11.525   9.212  14.858 -0.2094  0.3374  0.0867
49193W        W92209   8.268   1.472  23.850 -0.0419 -0.2338 -0.1455
49194W        W92210   9.219  12.663  25.879 -0.1131  0.1970  0.0636
49195W        W92211  32.722   9.210  19.830 -0.1573 -0.1645 -0.2497
49196W        W92212  14.789   4.453  26.835  0.0857 -0.3497 -0.2149
49197W        W92213  31.714  22.960  15.989  0.2609 -0.2343  0.3196
49198W        W92214   5.975  28.947  26.343  0.3977  0.3168 -0.0885
49199W        W92215  16.587  33.095  15.092  0.3583  0.0586  0.5874
49200W        W92216  31.769   3.924  19.466 -0.2092  0.0847  0.1126
49201W        W92217   3.970  27.546  15.525 -0.5275 -0.3177  0.0179
49202W        W92218  29.571   1.050  28.046  0.2404 -0.0778  0.0443
49203W        W92219  34.310  11.084  21.895 -0.1506 -0.2346  0.0838
49204W        W92220  22.930  13.872  20.258  0.1342 -0.1239 -0.2598
49205W        W92221   1.897  31.618  22.709 -0.0441  0.0777 -0.1623
49206W        W92222  32.448  13.952  24.460 -0.0661  0.1305  0.0233
49207W        W92223  14.054  24.660  23.761  0.2517  0.1017  0.1868
49208W        W92224  23.677   3.925  18.890  0.1406 -0.2228 -0.0118
49209W        W92225   4.564  15.279  14.372  0.1215  0.3325  0.2152
49210W        W92226   0.370   2.679  16.639  0.3059  0.0147  0.0039
49211W        W92227   5.711  17.084  14.313 -0.0695 -0.3188 -0.1527
49212W        W92228   2.580  30.677  28.542 -0.0462 -0.1821 -0.0472
49213W        W92229  20.846  33.743   7.551  0.1715 -0.0769 -0.3223
49214W        W92230  26.810  24.803   0.898 -0.2946  0.0724 -0.4769
49215W        W92231   2.044  14.703  21.078 -0.1144 -0.0561  0.2059
49216W        W92232  22.515  30.377  15.572  0.1560  0.0171 -0.2369
49217W        W92233   9.154  26.744  25.401  0.0002  0.1220 -0.1024
49218W        W92234  26.432  19.005  21.525  0.1383 -0.1533 -0.1602
49219W        W92235  12.434   6.788  17.435 -0.4458 -0.0345 -0.3328
49220W        W92236   1.986  17.453  23.384 -0.1182  0.3207 -0.0357
49221W        W92237   3.175   3.568  14.381 -0.0405  0.0211 -0.0545
49222W        W92238  30.412  13.417  14.676  0.1632  0.1373 -0.3901
49223W        W92239  28.063   9.216  23.667 -0.2103  0.0475 -0.1656
49224W        W92240  27.034   6.036  28.321 -0.0459  0.2660 -0.3338
49225W        W92241   4.007  34.103  14.686  0.0779 -0.1646 -0.4108
49226W        W92242   1.886  22.409  18.181  0.1026  0.1051 -0.2726
49227W        W92243  31.136  20.646  27.408 -0.3418  0.0922 -0.2777
49228W        W92244  17.337   4.586  24.681  0.2121 -0.2635 -0.0686
49229W        W92245   2.672  19.235  25.587 -0.2610  0.0405  0.1521
49230W        W92246   6.536  27.994  22.287  0.1073 -0.3961  0.1910
49231W        W92247   4.472  20.372  16.403  0.1008 -0.0313  0.2203
49232W        W92248  29.509  24.101  21.729  0.2359 -0.1037 -0.0354
49233W        W92249   8.204  22.875  18.744 -0.2377  0.4442  0.1321
49234W        W92250   1.154  18.216  25.612 -0.1024 -0.1666  0.1986
49235W        W92251  22.480  23.720  17.593  0.5862 -0.1154  0.1712
49236W        W92252  27.197  23.109  19.226 -0.0713 -0.2818 -0.2230
49237W        W92253  28.331  13.278   6.749 -0.1602  0.0986 -0.1895
49238W        W92254  28.668  22.703  16.140  0.0516 -0.2249  0.1633
49239W        W92255   7.046  34.721   6.448 -0.2387 -0.0310 -0.2591
49240W        W92256   3.390   7.262  22.260 -0.1170  0.0213  0.0802
49241W        W92257  27.847  19.861  16.367 -0.3133 -0.1265 -0.1271
49242W        W92258  30.813  11.496  16.131 -0.0476 -0.1175 -0.1258
49243W        W92259   9.596  14.525  14.266 -0.3260 -0.0685  0.2183
49244W        W92260  31.564  26.395  23.083  0.2947 -0.0874  0.0855
49245W        W92261  29.760  12.593  23.289  0.0100  0.0035  0.1755
49246W        W92262   1.911   0.169  20.462  0.0292  0.1686  0.1127
49247W        W92263  30.826   6.579   0.429 -0.1515 -0.3772  0.0000
49248W        W92264   8.264   2.520  23.991  0.2425  0.0456 -0.0766
49249W        W92265  15.626  17.823  28.458 -0.0534 -0.1041  0.0629
49250W        W92266  34.750   0.888   0.157 -0.1353 -0.0238  0.0492
49251W        W92267   2.030   8.226   3.267  0.0625  0.2389 -0.0094
49252W        W92268  19.473   0.706  26.083 -0.1876 -0.1888 -0.1754
49253W        W92269  21.689  24.737  17.239  0.1564 -0.1437 -0.1554
49254W        W92270   4.531  14.084  16.855  0.0183 -0.0990 -0.0579
49255W        W92271  30.267  26.421  19.832 -0.1932  0.0763  0.2440
49256W        W92272   0.476  26.088   6.020  0.2636  0.1043  0.1351
49257W        W92273   2.942   6.909  20.241  0.0565 -0.1338  0.3630
49258W        W92274  17.219   8.872  27.222 -0.0133  0.0352 -0.2023
49259W        W92275   2.691   5.024  15.590  0.0891 -0.2774 -0.0339
49260W        W92276  11.210  18.460  23.526 -0.1137 -0.1520  0.1118
49261W        W92277  29.668   6.450  25.388 -0.2647  0.1280  0.1978
49262W        W92278  26.892  10.392  19.306  0.1493 -0.0621  0.0586
49263W        W92279   1.691  13.572  25.518  0.0303  0.0124 -0.0531
49264W        W92280  16.230  19.043  12.236 -0.0179  0.3232  0.0778
49265W        W92281   4.308  16.873  15.588  0.1410  0.3096 -0.0542
49266W        W92282   3.374  21.511   2.790 -0.0829 -0.1459 -0.1328
49267W        W92283  20.609  12.513   2.334  0.1539 -0.0387  0.0997
49268W        W92284   0.180  27.067  20.215 -0.1441  0.0848 -0.0354
49269W        W92285  31.428   5.202  28.929  0.2025  0.1607 -0.1615
49270W        W92286  11.258   9.111  18.935 -0.1865 -0.0156 -0.1849
49271W        W92287  30.059  13.123  14.969 -0.0988 -0.1291  0.0357
49272W        W92288  13.779  14.604  23.587  0.4287 -0.3234 -0.2138
49273W        W92289   5.997   7.817  19.536 -0.0623  0.3137 -0.1299
49274W        W92290  20.745   2.292  27.023  0.0398 -0.1706 -0.0586
49275W        W92291   7.587   3.178  15.888 -0.1744  0.1223 -0.0362
49276W        W92292  16.599   0.799  18.390 -0.3685  0.3362 -0.1591
49277W        W92293  17.570  23.783  19.012 -0.1553 -0.0320  0.2329
49278W        W92294   3.295   5.379  28.350  0.1181  0.1418 -0.2463
49279W        W92295  21.934   3.066  16.372 -0.3580 -0.0505 -0.1682
49280W        W92296  27.419   6.073  19.347 -0.0303  0.1891  0.1645
49281W        W92297   2.808  15.023  17.746 -0.0669 -0.4368 -0.2884
49282W        W92298   3.183   0.800  19.928  0.1060 -0.0799  0.1052
49283W        W92299  27.184   8.432  19.605 -0.2345  0.0302  0.0630
49284W        W92300  21.916   8.340  19.142 -0.3932 -0.0678 -0.2970
49285W        W92301  13.408  20.499  20.985 -0.0668 -0.4562  0.4241
49286W        W92302  33.872   9.283  15.960  0.0783 -0.0540  0.0654
49287W        W92303   7.997   6.354  20.719 -0.1026 -0.0249  0.2142
49288W        W92304  11.278   3.493  20.722  0.0647  0.1351  0.0701
49289W        W92305  27.698  14.863  17.994  0.0374  0.0089  0.1978
49290W        W92306  33.152  17.596  21.539 -0.3017  0.0119  0.2569
49291W        W92307   5.119  16.263  16.409  0.2613 -0.0299 -0.0178
49292W        W92308   8.026   9.868  19.949  0.0802  0.2777 -0.1427
49293W        W92309   1.254  12.802  24.602 -0.0670  0.2015  0.1922
49294W        W92310   3.932   8.091  14.665  0.0817  0.1877 -0.0121
49295W        W92311  27.655   0.466   9.200 -0.4144  0.2048 -0.0624
49296W        W92312   7.330  18.591  21.528 -0.2690 -0.1457 -0.0800
49297W        W92313   8.141  32.670  20.786  0.0463 -0.0298 -0.2256
49298W        W92314  27.962  21.054  20.013 -0.0135  0.1358 -0.2191
49299W        W92315   5.437   8.872  20.886  0.1056 -0.1279 -0.2326
49300W        W92316   0.802  11.187  15.861  0.0333  0.0110 -0.1147
49301W        W92317   2.724  22.436  24.040  0.0505  0.0710  0.0979
49302W        W92318  27.987  12.701  19.851  0.2482 -0.2071  0.0369
49303W        W92319  33.255  14.936  23.288 -0.1497 -0.0047 -0.1230
49304W        W92320   5.077  15.507  23.947 -0.0233 -0.2169  0.2667
49305W        W92321  29.358   8.139  24.961  0.0759 -0.1937 -0.1811
49306W        W92322  15.947   2.623  19.094 -0.0629  0.1242  0.0045
49307W        W92323   2.265  10.936  17.648  0.0292 -0.0157  0.0502
49308W        W92324  33.209  22.804  25.850 -0.1899  0.1967 -0.0898
49309W        W92325  26.032  11.454  24.603 -0.1598  0.1333 -0.0745
49310W        W92326  21.745  13.404   6.194 -0.0432 -0.0116 -0.0590
49311W        W92327   8.065  11.838  24.865 -0.0614  0.1371 -0.0028
49312W        W92328  27.986  19.011  19.790 -0.1011  0.3600 -0.1040
49313W        W92329   1.370   9.824  18.289  0.1449  0.2846  0.1006
49314W        W92330  28.703  10.016  22.108  0.0658  0.1228  0.1446
49315W        W92331   5.918   7.278  25.096  0.0997  0.0167 -0.1514
49316W        W92332  28.536  10.970  18.361  0.0210 -0.0664 -0.1833
49317W        W92333  25.722   9.106  17.948 -0.0537 -0.5962  0.0359
49318W        W92334  23.455  19.740  16.308 -0.2282 -0.0472 -0.1307
49319W        W92335   0.687   6.325  22.484  0.0981  0.5935 -0.1463
49320W        W92336   1.263  17.071   2.048 -0.0376 -0.0163 -0.1862
49321W        W92337   4.792  19.599  26.432 -0.2958  0.1321 -0.0993
49322W        W92338  10.935   8.294  15.563  0.0241  0.3767 -0.1024
49323W        W92339   5.045   1.677  18.853  0.2146  0.2694 -0.0952
49324W        W92340  29.333  14.321  19.617 -0.0655 -0.1776 -0.1147
49325W        W92341  28.565   4.379  23.707 -0.0423  0.4299  0.2872
49326W        W92342   7.369   8.411  25.622 -0.0402  0.3077  0.2145
49327W        W92343  34.239  16.472  19.272  0.1412 -0.0383 -0.2967
49328W        W92344  28.847   1.212  18.186 -0.3044 -0.0120  0.2762
49329W        W92345  11.100  16.146  18.501  0.0968 -0.1688 -0.0899
49330W        W92346  18.277   4.554  15.161 -0.2837 -0.3357  0.1008
49331W        W92347  26.630   8.717  23.261 -0.2755  0.1181  0.2304
49332W        W92348  32.918  16.696  26.102  0.2011 -0.1099 -0.1686
49333W        W92349  33.911  16.958  14.759  0.0119 -0.4023 -0.3985
49334W        W92350  34.005   3.523  20.337  0.1049  0.2061 -0.1262
49335W        W92351  18.300   8.422  27.938 -0.0191 -0.1344  0.0411
49336W        W92352   9.741  15.556  17.160 -0.1345  0.0206 -0.2099
49337W        W92353  21.085   4.929  24.096  0.0664  0.1086  0.0510
49338W        W92354  21.968   1.298  26.264 -0.1227  0.4464  0.3118
49339W        W92355  34.425  18.205  22.053  0.1894 -0.0060  0.4942
49340W        W92356  17.297  26.916  17.431 -0.0701  0.1503  0.2599
49341W        W92357  23.646  10.335  18.063 -0.1528  0.2811 -0.0860
49342W        W92358   8.108  21.591  19.074 -0.1521 -0.2821 -0.1907
49343W        W92359   2.372  21.687  14.450 -0.0967  0.0611  0.0857
49344W        W92360  13.343  12.527  21.993 -0.0063 -0.2609 -0.1211
49345W        W92361  23.565   4.582  27.590 -0.0631  0.1339  0.3751
49346W        W92362  24.293  16.346  23.910  0.0855 -0.0018 -0.1600
49347W        W92363   0.885  16.485  18.840 -0.0021  0.1300 -0.1140
49348W        W92364  21.263  34.518  16.342  0.1232  0.1284  0.0200
49349W        W92365  30.429   4.105  21.927 -0.4097  0.2631  0.0731
49350W        W92366  15.879  25.332  18.945  0.1010 -0.0721  0.1542
49351W        W92367  29.679  19.093  15.088  0.1881 -0.1342  0.0090
49352W        W92368   9.885  29.487  24.617  0.1261  0.1053  0.1938
49353W        W92369  14.971  13.966   2.370  0.3300 -0.3932  0.0470
49354W        W92370   0.090  26.843  17.123 -0.2333 -0.4861  0.1077
49355W        W92371  23.866  19.819   3.891  0.0210  0.2134  0.1019
49356W        W92372  21.749  11.162  26.891 -0.0631  0.0738  0.1419
49357W        W92373  33.317   0.048  26.159  0.1199 -0.0149 -0.0443
49358W        W92374  31.359  34.399  26.794  0.2181 -0.1492 -0.0104
49359W        W92375  11.936  28.872  26.423 -0.0192 -0.0622 -0.0957
49360W        W92376  29.050   8.055   3.538  0.0146 -0.1404 -0.0030
49361W        W92377  16.057   9.732  13.108 -0.0639  0.0920  0.2012
49362W        W92378  31.563  17.325  23.413 -0.2247 -0.0583 -0.2305
49363W        W92379  34.571  10.045  20.555 -0.1560 -0.0998 -0.1176
49364W        W92380  13.952  28.674  28.247  0.0813  0.4607 -0.1136
49365W        W92381   6.032  22.364  22.365 -0.1163 -0.1015 -0.0005
49366W        W92382   2.153  21.110  18.798  0.0061  0.2002 -0.0622
49367W        W92383  28.217  23.611   1.368  0.2291  0.1413 -0.2191
49368W        W92384  21.386  21.739  21.759  0.1053 -0.1368 -0.0663
49369W        W92385   9.654  20.244  22.631  0.2286  0.1141 -0.4918
49370W        W92386  30.125   7.960  16.420  0.1260  0.0448 -0.1455
49371W        W92387  27.756  31.020  29.002 -0.1716  0.0379 -0.4920
49372W        W92388  22.209  19.878  13.849  0.0155 -0.1442 -0.1589
49373W        W92389   3.538  10.243  23.672 -0.0630 -0.3825  0.0282
49374W        W92390  34.414   5.802  16.877 -0.1710 -0.0712 -0.1649
49375W        W92391   3.509   2.907  20.492  0.2452 -0.2951  0.3513
49376W        W92392   7.688   5.942  20.630  0.0957  0.0171  0.0418
49377W        W92393   7.201  28.145  17.434 -0.0987 -0.2511  0.1738
49378W        W92394   1.644  17.078  20.289  0.1492 -0.1851 -0.1688
49379W        W92395  27.999  10.757   0.557  0.6066 -0.0351 -0.0068
49380W        W92396  16.214   1.711   6.694  0.0532 -0.1628 -0.4678
49381W        W92397  28.867  26.604  21.497 -0.3930 -0.1127 -0.0171
49382W        W92398  11.793   3.543  17.123  0.0259 -0.3393  0.2275
49383W        W92399   1.555   8.616  15.301 -0.1932  0.1228  0.0859
49384W        W92400  34.271  21.136  27.540 -0.3124 -0.2534  0.1210
49385W        W92401  31.253  19.424  21.124 -0.0001 -0.1939  0.0059
49386W        W92402   8.823  29.203  18.432 -0.0958  0.1292 -0.0468
49387W        W92403  10.003  16.539  15.077  0.1193 -0.0730  0.1444
49388W        W92404  19.413   0.971   3.382 -0.0746 -0.4399 -0.0229
49389W        W92405  12.352   7.367  21.732 -0.0537 -0.0414 -0.0476
49390W        W92406  30.900  12.793  19.505 -0.0130  0.0512 -0.3698
49391W        W92407  29.653  18.229   4.346 -0.2298  0.2029 -0.2813
49392W        W92408   3.115  30.357   5.934  0.0609  0.2504 -0.0615
49393W        W92409   9.908  14.896  25.432 -0.1023 -0.2590  0.0100
49394W        W92410  12.036   3.300  18.960  0.0585 -0.2975  0.1065
49395W        W92411  24.223   6.483  21.473  0.2903  0.0777 -0.4121
49396W        W92412  32.090  21.145  14.522  0.1962  0.1300 -0.1049
49397W        W92413  31.040  11.445  19.320  0.0765  0.0519 -0.0232
49398W        W92414   2.068  23.694  28.559 -0.0407 -0.1351  0.3333
49399W        W92415   0.345  13.340   4.732  0.2779  0.0487 -0.2272
49400W        W92416  21.968   5.563  23.226 -0.1061 -0.1255  0.1618
49401W        W92417  26.468  16.497   4.180  0.0768  0.0036 -0.2435
49402W        W92418   4.406  19.056  25.060 -0.0001  0.1490  0.0671
49403W        W92419  16.095  27.181  18.664 -0.0053 -0.1858  0.1351
49404W        W92420  32.698  19.414  24.145  0.1330  0.0889  0.1607
49405W        W92421  30.094  11.269  19.088 -0.0390  0.0688  0.2553
49406W        W92422  30.962  22.776  19.819  0.2110 -0.0366 -0.2749
49407W        W92423   5.393   7.309   7.419  0.2942  0.0685  0.0946
49408W        W92424  30.419  12.790  19.708 -0.2715 -0.3330  0.1428
49409W        W92425   4.464  20.392  25.789  0.0340  0.1927  0.3862
49410W        W92426  11.833  25.729   8.274  0.1179  0.0296  0.1038
49411W        W92427  23.061   2.195   5.137 -0.1276 -0.1205  0.1495
49412W        W92428   1.945   6.823   9.021  0.0717  0.1207 -0.2777
49413W        W92429   4.798  17.734  27.529 -0.1332  0.0123  0.1353
49414W        W92430   8.333  10.900  18.845  0.0367  0.0605  0.2107
49415W        W92431   6.389  10.809  17.133  0.0600 -0.1551 -0.0086
49416W        W92432   3.157  10.666   2.659 -0.2345  0.0884 -0.0559
49417W        W92433   5.112   8.469   0.913 -0.5625 -0.3177  0.1326
49418W        W92434  13.379  14.470  19.070 -0.2390 -0.0697  0.0253
49419W        W92435  15.058  14.172  23.984 -0.0737  0.2221  0.0761
49420W        W92436  22.508  21.252  26.157  0.1666 -0.0750  0.1299
49421W        W92437  25.226  19.055  28.518 -0.3105 -0.1190 -0.1422
49422W        W92438   2.218  25.863  18.395  0.1517 -0.1269  0.2074
49423W        W92439  26.898  16.871  24.449 -0.0464 -0.2427 -0.1583
49424W        W92440  16.114  34.214  20.698 -0.1660 -0.2048 -0.0613
49425W        W92441   3.852  12.425  23.436 -0.2509  0.3505  0.3419
49426W        W92442   4.136  33.357   6.032 -0.2116 -0.1570  0.0614
49427W        W92443   1.451  12.698  27.075  0.2605  0.1805 -0.2172
49428W        W92444  21.012  30.833  27.739  0.0848  0.0231 -0.1557
49429W        W92445  29.006  20.299  22.527 -0.2324 -0.2788 -0.0818
49430W        W92446  18.576  19.059  21.598  0.2595  0.2073  0.1199
49431W        W92447  31.063  11.088  21.973  0.1097 -0.4559 -0.4031
49432W        W92448   9.898  17.209   3.993 -0.0969 -0.0701  0.0169
49433W        W92449  34.179   7.176  18.170 -0.1557  0.2443  0.2156
49434W        W92450  26.512  18.328  25.319  0.4696  0.1130 -0.0316
49435W        W92451  20.444   1.214   8.073 -0.1678  0.1368 -0.3585
49436W        W92452   0.157  27.820  23.263  0.2218 -0.0791  0.3162
49437W        W92453  26.050  14.124  16.476  0.1153  0.2208 -0.1838
49438W        W92454   4.025   0.796  20.450  0.0807  0.0943 -0.2517
49439W        W92455  15.697   6.771  26.783  0.0453 -0.1344 -0.0233
49440W        W92456   5.235  14.713  24.474 -0.0873 -0.2378 -0.1322
49441W        W92457  12.609  19.503  12.575  0.3549  0.3045  0.2512
49442W        W92458  26.624  16.930  20.007 -0.0152 -0.1289 -0.0534
49443W        W92459   6.732   7.386   2.227  0.3855 -0.0349 -0.1327
49444W        W92460  34.482  19.078  24.491 -0.1220 -0.2464 -0.0099
49445W        W92461   5.494  10.865  18.578  0.0610 -0.0458  0.0563
49446W        W92462   5.345   5.362  19.646 -0.1715  0.2545 -0.1625
49447W        W92463   7.168   9.726   1.447 -0.0852  0.0587  0.1727
49448W        W92464   2.440  29.729  25.979  0.0119  0.1481  0.2234
49449W        W92465   0.822  18.378   2.455  0.0559 -0.2236 -0.0477
49450W        W92466   2.644  33.928  23.613  0.2375 -0.2158 -0.2240
49451W        W92467   4.483  16.569   6.385 -0.1715 -0.2493  0.2325
49452W        W92468   9.092  12.614  16.095 -0.2203 -0.2311 -0.1740
49453W        W92469  22.555  25.527  26.318 -0.1365  0.0710 -0.4079
49454W        W92470   5.730  17.361  23.396  0.1260 -0.1560 -0.0489
49455W        W92471   0.279  20.741  16.672  0.1617 -0.0372  0.3746
49456W        W92472  22.638   4.451  17.985  0.5305 -0.1993 -0.4886
49457W        W92473  30.220  34.058  19.397 -0.1529  0.1228 -0.1666
49458W        W92474   4.749  23.397   3.078 -0.1066  0.2656 -0.3277
49459W        W92475  22.441  32.249  26.667  0.0861  0.1345  0.1472
49460W        W92476   8.642   6.868  26.934 -0.2920 -0.2078 -0.0929
49461W        W92477  34.713  19.637  17.713  0.0677 -0.1637 -0.2164
49462W        W92478   2.371   6.166   7.991 -0.2443 -0.0176  0.0402
49463W        W92479  12.150  11.241  26.031 -0.0276 -0.3629 -0.2492
49464W        W92480   3.542  22.649  21.549 -0.1032 -0.1954  0.2297
49465W        W92481   0.570  21.559   4.529 -0.0787 -0.0678  0.0836
49466W        W92482  27.482   1.270  20.193  0.2066 -0.3144  0.1918
49467W        W92483  21.646  34.577  15.998 -0.0432 -0.3874  0.2544
49468W        W92484   1.594  18.069  22.412 -0.1670 -0.0637  0.0923
49469W        W92485  15.997  12.370  14.403 -0.1007 -0.1976 -0.0466
49470W        W92486  12.721  25.491  13.936  0.2059 -0.0551 -0.0593
49471W        W92487  34.007   2.135  20.161  0.1318  0.2982 -0.3038
49472W        W92488   6.533  20.370   2.068  0.2958  0.0818 -0.1273
49473W        W92489  32.881  29.346   2.441  0.0467 -0.5356  0.2197
49474W        W92490  33.514  30.419  28.529  0.1079 -0.0098 -0.0055
49475W        W92491   3.589  32.458  19.018  0.0014 -0.0535  0.0482
49476W        W92492   7.794   1.204   4.257 -0.0092 -0.0188 -0.0913
49477W        W92493  10.737  18.341  26.067 -0.3586 -0.2211  0.0288
49478W        W92494  27.986  32.363  28.623 -0.0768 -0.1354  0.3819
49479W        W92495  33.170  18.200  11.295  0.0115 -0.2709  0.0093
49480W        W92496  25.852   1.959   4.570  0.3045  0.0664  0.1059
49481W        W92497  20.028  11.596  28.768  0.0812 -0.1626 -0.3757
49482W        W92498  21.752  13.879  25.668  0.1469 -0.2466  0.1694
49483W        W92499   6.071  15.091  18.186 -0.1012 -0.2159 -0.1791
49484W        W92500  32.454  12.372  18.691  0.0805  0.0748 -0.5138
49485W        W92501  11.658  33.670  26.729 -0.1405 -0.3284 -0.1522
49486W        W92502   4.565  12.765  15.072 -0.0912 -0.2090  0.1965
49487W        W92503  30.719  15.458  25.246 -0.0302  0.0799  0.2130
49488W        W92504   8.859   7.278  16.599  0.0936 -0.1033  0.2036
49489W        W92505  18.915  14.775  12.964  0.2090 -0.0967 -0.1314
49490W        W92506  19.078  12.470  20.901  0.1330  0.3793  0.3922
49491W        W92507  13.068   3.647  24.118 -0.1081  0.0846 -0.1978
49492W        W92508  31.119  11.304  24.666  0.1959 -0.1725 -0.0198
49493W        W92509  32.394  24.432  23.441  0.3253 -0.4738 -0.1337
49494W        W92510   2.874   1.491  19.491 -0.2869 -0.0145  0.2678
49495W        W92511   0.557  20.936  26.935  0.3140  0.4305 -0.0337
49496W        W92512   3.801  24.428  21.959  0.3510 -0.3929 -0.2157
49497W        W92513  21.514  13.543  15.153  0.1412  0.2304  0.0292
49498W        W92514  32.544   5.745  19.214 -0.2192 -0.1236 -0.0076
49499W        W92515  19.766  14.495  12.702  0.3452 -0.0864  0.1024
49500W        W92516  17.326  11.662   1.181  0.0699 -0.2386  0.1899
49501W        W92517  24.210  21.787  15.178 -0.0043  0.0097 -0.3032
49502W        W92518  24.802  28.619  18.979 -0.0037 -0.0177 -0.0150
49503W        W92519  25.526  34.173  16.134 -0.4183  0.1279  0.0668
49504W        W92520  12.668   3.800   9.021 -0.0882 -0.1437 -0.0682
49505W        W92521   3.709  32.029   2.703 -0.0411  0.3519 -0.3624
49506W        W92522   4.834  28.880  24.970  0.1620  0.1239  0.2282
49507W        W92523  10.242  14.003  18.799 -0.0848  0.0591  0.1041
49508W        W92524  30.661   2.719  17.325  0.1906  0.2756 -0.0174
49509W        W92525  34.582  15.746  11.155  0.2744 -0.0914 -0.0457
49510W        W92526   2.685  17.572   3.340 -0.1630 -0.1681 -0.2091
49511W        W92527   7.238  15.195  22.548  0.2758  0.0426  0.1521
49512W        W92528  19.269   3.057   6.230  0.0568  0.0769 -0.0063
49513W        W92529  19.479  19.704  25.668  0.1628 -0.3011 -0.0400
49514W        W92530  11.502  18.656   0.540 -0.5749  0.1188 -0.2755
49515W        W92531  26.935  20.778  22.694  0.2426 -0.2294  0.1436
49516W        W92532   5.539  32.034  17.354 -0.1817  0.0665  0.1326
49517W        W92533  25.002  32.594  20.636 -0.0138 -0.0556  0.2026
49518W        W92534   0.578  33.271   7.099  0.2462  0.0650 -0.1440
49519W        W92535   7.031  15.117  18.416  0.0522  0.1547 -0.0305
49520W        W92536  25.009  11.646   0.420  0.0312 -0.0193 -0.2925
49521W        W92537  32.451  24.851  24.498 -0.0067 -0.0217  0.0127
49522W        W92538   8.999  10.469  21.029  0.2542 -0.2584  0.0417
49523W        W92539  22.016  19.616  13.313  0.0256 -0.0256 -0.0575
49524W        W92540  31.727  16.218  25.281 -0.0074 -0.0490  0.0937
49525W        W92541  28.398   8.547  22.637 -0.0100 -0.3540  0.2760
49526W        W92542   0.606   5.234  16.214 -0.1127 -0.2143 -0.0260
49527W        W92543  21.248   8.532  17.851  0.0743 -0.3484  0.3244
49528W        W92544   7.069   2.323   2.676  0.0759 -0.1780  0.0118
49529W        W92545   0.234  23.426  19.800  0.0937 -0.1268 -0.1099
49530W        W92546  24.393  11.130   7.362 -0.1024  0.1542 -0.1510
49531W        W92547  29.609  13.674  14.529 -0.0763 -0.5641  0.6049
49532W        W92548   2.194   4.765  15.640 -0.0151 -0.4195 -0.0791
49533W        W92549  11.396  17.180  26.926 -0.1215  0.0189 -0.2730
49534W        W92550  26.880  12.735  19.819 -0.2691  0.0917 -0.1915
49535W        W92551   5.961  20.078   0.754 -0.0218  0.4500 -0.2191
49536W        W92552   4.248   9.729  24.413  0.1281 -0.1039 -0.4358
49537W        W92553  32.178  10.447  21.672 -0.0681  0.4823 -0.0777
49538W        W92554  27.316   7.285  17.179  0.0256  0.2674  0.0417
49539W        W92555   0.861  18.405  22.458 -0.1800 -0.0366  0.3066
49540W        W92556  10.703   6.645  23.914  0.1936  0.5281 -0.2439
49541W        W92557   6.649  11.888  25.686  0.1235 -0.1611  0.1154
49542W        W92558  22.903   1.075  27.047  0.2302  0.1320 -0.0997
49543W        W92559   9.862  11.409   0.595  0.2801 -0.0923 -0.0957
49544W        W92560  21.152   6.969  19.785 -0.1443  0.3904 -0.3810
49545W        W92561  34.150   9.457  20.415  0.1025  0.0857 -0.2031
49546W        W92562   6.540  25.626  14.901  0.0832 -0.1210 -0.0623
49547W        W92563  30.960  11.912   2.477  0.0827  0.1471  0.1932
49548W        W92564  34.079  19.842  23.975  0.1511 -0.1198  0.1779
49549W        W92565  34.226  27.358   0.896  0.0508  0.0497  0.1394
49550W        W92566  10.073  31.932  20.477 -0.0369  0.1397  0.0638
49551W        W92567   5.442   8.663  14.165  0.0350 -0.1069  0.1397
49552W        W92568  27.430   0.662  19.509 -0.1194  0.1938  0.1247
49553W        W92569   5.243  23.321   2.896 -0.3482  0.1517  0.1154
49554W        W92570   5.663   6.475  20.097 -0.3480 -0.0385 -0.0411
49555W        W92571  28.223  21.852  24.595 -0.0912 -0.2051 -0.0267
49556W        W92572  19.874  26.351  15.107 -0.2458 -0.1948  0.2051
49557W        W92573  23.181  21.530  17.022 -0.1365  0.1101 -0.2205
49558W        W92574  19.886  16.240  23.857  0.2652 -0.0384  0.2738
49559W        W92575   7.367   4.609  15.811  0.1252 -0.1030  0.0154
49560W        W92576   7.584  22.864  15.412 -0.0848 -0.1294 -0.0084
49561W        W92577   3.128   9.558  20.444 -0.1632 -0.3603 -0.4637
49562W        W92578  31.615  13.218  10.189 -0.0203  0.1952 -0.0925
49563W        W92579  20.779   7.733  26.514 -0.2066 -0.3743 -0.0914
49564W        W92580   6.318   2.821  16.660 -0.2039 -0.1550  0.0980
49565W        W92581   3.305   9.242   0.709  0.0574  0.0011 -0.1898
49566W        W92582  26.838  11.528  28.932 -0.2934 -0.0356  0.2388
49567W        W92583  32.234  14.924  16.352 -0.0472  0.1268  0.0489
49568W        W92584  15.899  24.802   5.248 -0.5452  0.0846 -0.0646
49569W        W92585   7.757  22.002  21.343 -0.0821  0.2260 -0.1465
49570W        W92586  34.688   8.577  28.192 -0.0559  0.1312  0.1291
49571W        W92587  13.695   5.025   1.130  0.2511  0.1969 -0.0835
49572W        W92588  28.725  19.530  18.902 -0.1702  0.1461 -0.0148
49573W        W92589   4.907  23.666  15.684 -0.0743 -0.0994 -0.1176
49574W        W92590  29.030  25.155  27.238  0.1209 -0.0733 -0.1061
49575W        W92591  25.337  10.055   6.556  0.0602  0.0803 -0.2740
49576W        W92592   1.124  34.334  14.387  0.3240  0.0471  0.0371
49577W        W92593  13.661   3.191   8.509  0.1084  0.1480 -0.0475
49578W        W92594  29.823   9.265   4.338  0.1630  0.1360  0.0610
49579W        W92595  16.300  14.323   5.121 -0.0104  0.1078 -0.0009
49580W        W92596   4.930  22.112   1.179  0.1746 -0.1139 -0.0571
49581W        W92597  29.520  15.935  29.168 -0.1577 -0.2546  0.1030
49582W        W92598  23.912  19.587  21.759  0.0048  0.0058 -0.3326
49583W        W92599  13.879  18.599  23.471  0.0901 -0.3083 -0.1350
49584W        W92600  18.859  29.710  15.977  0.1795  0.3193 -0.2061
49585W        W92601  28.918  30.938   0.178 -0.0009 -0.3080 -0.3093
49586W        W92602  16.213  15.873  27.361 -0.3719 -0.0176  0.0458
49587W        W92603  26.866  30.823   6.589 -0.0747 -0.2893  0.4764
49588W        W92604  26.272   0.446   6.179  0.1626 -0.1375  0.3222
49589W        W92605   2.910  10.624   1.106 -0.0102 -0.0237 -0.0625
49590W        W92606  27.096  13.236  21.284 -0.1351  0.0449  0.1738
49591W        W92607   2.170  18.103  28.190  0.3258  0.0802 -0.2622
49592W        W92608  31.659  22.406   7.333 -0.0279  0.0042  0.2797
49593W        W92609  32.675  12.267  20.413 -0.1377 -0.1697  0.2222
49594W        W92610  12.189  22.780  16.267 -0.1598 -0.0413 -0.2552
49595W        W92611   4.127  16.282   5.951  0.0792 -0.0959  0.1484
49596W        W92612  32.458   6.532   1.571  0.0762  0.0949  0.0082
49597W        W92613   7.141  16.628  13.801  0.1074  0.2085  0.5165
49598W        W92614  28.419   1.707  19.930 -0.1728  0.0451 -0.2725
49599W        W92615  21.029  18.369   3.573 -0.0032  0.0478  0.0308
49600W        W92616  30.597  33.217  15.814  0.0482 -0.1665 -0.2907
49601W        W92617   6.111   2.234   6.854 -0.1565 -0.2062  0.2291
49602W        W92618  14.428   7.864  28.163  0.0104 -0.2260  0.0223
49603W        W92619  26.926   5.853  25.096 -0.4143 -0.1820  0.1231
49604W        W92620   5.919  34.634   8.321  0.0452  0.0587  0.0724
49605W        W92621   9.853   3.221   3.183 -0.0549  0.0061  0.0720
49606W        W92622  33.110   4.412   0.598  0.2564  0.2026  0.1872
49607W        W92623   3.406  10.255  14.831 -0.0594 -0.1474  0.3323
49608W        W92624  25.039  17.179   0.610  0.2804 -0.4559  0.3481
49609W        W92625   2.704  10.936   6.213 -0.2093 -0.0090  0.3721
49610W        W92626  28.274  23.844   0.904  0.1138  0.0038  0.2639
49611W        W92627   4.767   5.177  27.407 -0.0112 -0.2996  0.1608
49612W        W92628  33.073  13.299  15.305 -0.2248  0.1367 -0.1812
49613W        W92629  32.828  32.148  23.148  0.1917  0.1240 -0.2464
49614W        W92630   1.413  33.431  20.200 -0.2559  0.2216 -0.1234
49615W        W92631  13.200   7.501  28.451 -0.1507  0.1843 -0.1787
49616W        W92632   0.666   9.903  16.115  0.1438 -0.0685  0.0401
49617W        W92633  17.717  19.438   1.096 -0.1889 -0.0409 -0.2090
49618W        W92634   9.280  14.349  28.045 -0.0089 -0.0868 -0.2789
49619W        W92635  12.521  16.509  14.938 -0.2268  0.1290  0.0714
49620W        W92636  15.270  11.372  22.421  0.0865  0.0211 -0.3096
49621W        W92637  15.710  10.745  16.393  0.3333  0.1936  0.0876
49622W        W92638   0.071   6.284   0.811 -0.1892  0.2069 -0.5050
49623W        W92639   9.109  31.087  17.539 -0.2968  0.1095 -0.1140
49624W        W92640  27.432  32.829  25.387  0.3054  0.1130  0.1893
49625W        W92641  28.243  10.838   1.023 -0.1123 -0.1891  0.4654
49626W        W92642   5.839  16.514  26.149 -0.1724  0.0412 -0.0358
49627W        W92643   7.226  19.866  18.435 -0.2015  0.0273  0.1866
49628W        W92644   6.869  31.738  14.709 -0.1114 -0.3768  0.1381
49629W        W92645   1.422  12.446  24.887 -0.1565 -0.0192  0.2312
49630W        W92646  25.212  29.498  26.529  0.3282 -0.0911 -0.0988
49631W        W92647  14.418  14.944   5.236 -0.0616  0.2583  0.1883
49632W        W92648  31.145   7.751  16.522 -0.3996 -0.0714  0.2656
49633W        W92649  27.171  10.458  21.494 -0.2042  0.1050  0.1489
49634W        W92650   2.534  10.556   5.111  0.1724  0.0336  0.0242
49635W        W92651  26.097   6.470  22.523  0.0423 -0.1264 -0.1324
49636W        W92652  23.015   4.265  28.099  0.3154 -0.1611  0.0503
49637W        W92653   0.756  21.007  20.593  0.0411 -0.1431 -0.0328
49638W        W92654  29.196  26.820   0.293 -0.2722 -0.1710  0.0180
49639W        W92655  27.752  23.304  18.641  0.2109  0.1375 -0.0489
49640W        W92656  17.958  32.064  27.115  0.0181  0.3628  0.0039
49641W        W92657  32.766  13.315  23.048 -0.1181  0.0988 -0.1672
49642W        W92658  21.929   0.771   6.857  0.2026  0.1502 -0.0757
49643W        W92659  24.710  10.237  22.537 -0.1465  0.0433 -0.0315
49644W        W92660   7.839   5.318  19.090  0.0842 -0.1109 -0.0768
49645W        W92661   9.809  18.675  28.426 -0.1536  0.1005  0.0435
49646W        W92662  30.700  13.617  20.194 -0.0043 -0.0975  0.1906
49647W        W92663  27.909  19.122  28.891 -0.1142  0.0538  0.0484
49648W        W92664   4.340  14.759   1.454  0.0741 -0.2253  0.0315
49649W        W92665  34.216  10.092  29.110  0.0927  0.3274 -0.1553
49650W        W92666  30.440  27.992   0.972  0.1007 -0.0207  0.1845
49651W        W92667   4.125  13.141  25.439  0.2179 -0.1817  0.0228
49652W        W92668   0.673  13.707  14.460 -0.3735 -0.2828  0.1454
49653W        W92669  28.668  28.108  22.579 -0.0181  0.2389  0.0677
49654W        W92670  32.601   6.170  24.156  0.1477  0.2593 -0.2905
49655W        W92671  29.133  10.119  21.215  0.3524 -0.0495 -0.1558
49656W        W92672  22.427  13.633  16.198 -0.1012  0.2911 -0.3421
49657W        W92673  27.553  30.827  23.967 -0.4510  0.1611  0.1165
49658W        W92674  30.847  14.721  17.801 -0.0951  0.2761 -0.0970
49659W        W92675   8.320  10.711  24.124  0.1341  0.0411  0.2529
49660W        W92676   7.416   7.233  27.462  0.1184  0.0283 -0.0093
49661W        W92677  33.642  22.323   6.234  0.2683 -0.0266 -0.0665
49662W        W92678   9.037   9.636  20.117 -0.0069 -0.1513  0.0616
49663W        W92679   0.725  16.111  28.106 -0.3604  0.1069  0.0164
49664W        W92680  31.698  10.271  19.152 -0.1732 -0.1980 -0.3342
49665W        W92681  19.770  10.173   0.127 -0.2842  0.1708  0.0836
49666W        W92682  23.614  16.190  16.932  0.0755 -0.3830 -0.1159
49667W        W92683  31.031  22.681  16.593  0.0710 -0.2779 -0.0503
49668W        W92684  25.760  31.629  27.383 -0.0266  0.0166 -0.1275
49669W        W92685  13.745   0.555  18.757  0.0456  0.0837  0.0864
49670W        W92686   8.370  13.253  23.894  0.0230 -0.0593  0.0251
49671W        W92687  16.033   9.077  28.016 -0.1587  0.3934  0.2208
49672W        W92688  28.176  22.548  19.084  0.1990 -0.1312  0.0830
49673W        W92689  31.753  10.154  21.131  0.0512  0.1354  0.0011
49674W        W92690  13.225  18.252  14.533 -0.0688 -0.1104 -0.2861
49675W        W92691  24.943  16.880  18.762 -0.1552 -0.2633  0.1109
49676W        W92692   7.830   8.957   6.085 -0.1694 -0.1121 -0.0681
49677W        W92693  25.416  10.827  25.230  0.2524 -0.0548 -0.3251
49678W        W92694   0.936  22.788  24.479 -0.1830  0.1228  0.0258
49679W        W92695   6.456  12.410   3.263 -0.1288  0.1610 -0.2436
49680W        W92696  33.153  23.731  25.746  0.1259  0.2598  0.0702
49681W        W92697   0.890   8.315  15.847 -0.1398  0.0627  0.2202
49682W        W92698   0.660   2.746  25.813 -0.4209 -0.0239  0.0310
49683W        W92699  33.214  15.967   0.573  0.1116 -0.0241 -0.1842
49684W        W92700  34.560   4.354  25.469 -0.2359  0.2269 -0.0913
49685W        W92701  20.938   8.904  27.325 -0.0064  0.2591  0.1035
49686W        W92702  19.600  23.211  15.783  0.0065  0.4671  0.0154
49687W        W92703   0.978   8.504   5.282  0.0327  0.1968  0.0639
49688W        W92704  34.157   3.123  26.222  0.0565  0.2761 -0.2083
49689W        W92705  25.305  21.938  21.118  0.0887  0.2281 -0.2683
49690W        W92706   5.732  16.045  26.115  0.4206  0.1036 -0.0931
49691W        W92707  11.041  16.933  27.235 -0.0717 -0.2020 -0.1332
49692W        W92708   3.937  19.180   2.513 -0.1727  0.1971  0.2130
49693W        W92709   3.841   8.198  20.913  0.2163  0.3702 -0.3047
49694W        W92710   3.258   8.145  22.049  0.2934  0.2590 -0.1172
49695W        W92711   1.905  16.764  21.847 -0.0259 -0.1608  0.0042
49696W        W92712   8.513  27.585  19.788  0.2545  0.0049 -0.1612
49697W        W92713   1.848  27.181   1.813 -0.1547 -0.0656 -0.1491
49698W        W92714   0.500   9.419  19.482 -0.0816 -0.0622 -0.3340
49699W        W92715  27.400  22.304  20.382 -0.2068  0.3859 -0.2320
49700W        W92716   4.146  10.960   8.671  0.0394 -0.1431 -0.0045
49701W        W92717   0.570   3.390  25.749  0.1842 -0.0165 -0.0816
49702W        W92718  19.736  12.644  19.970 -0.2547  0.1975 -0.1079
49703W        W92719   1.787  16.530   5.576 -0.1938  0.4309  0.1816
49704W        W92720  17.000  10.598  18.558 -0.1226 -0.0088  0.0487
49705W        W92721   1.742  21.039   9.154 -0.0280  0.0797 -0.1216
49706W        W92722   1.835  24.941  15.035 -0.1256  0.0289  0.1617
49707W        W92723  21.514  30.932   2.296  0.1561 -0.0860  0.2319
49708W        W92724  17.054  11.908  17.759  0.0742  0.1054  0.1507
49709W        W92725  33.698   9.307  17.092 -0.0406  0.4742 -0.1059
49710W        W92726   4.353  20.610   6.368 -0.1439 -0.1383 -0.1829
49711W        W92727  23.300  19.776   7.132  0.1718  0.0350 -0.4200
49712W        W92728   0.014  11.344  21.622  0.0435  0.1519  0.1410
49713W        W92729  11.633   6.238  29.042 -0.1818 -0.0875 -0.2053
49714W        W92730   1.856   1.524  20.813  0.4396 -0.0159  0.3101
49715W        W92731  25.214  27.465  15.558 -0.0893  0.2728 -0.2629
49716W        W92732   6.147  19.339  20.063  0.1311 -0.0788  0.2137
49717W        W92733  15.181   8.389  21.355  0.0500  0.1780 -0.1880
49718W        W92734  13.249   4.793  24.876  0.1692  0.1275  0.1086
49719W        W92735  27.021   7.298  28.478 -0.0825 -0.0109 -0.1581
49720W        W92736  19.922  11.656  25.843 -0.1393  0.1409 -0.0319
49721W        W92737  22.959  22.602  18.449  0.3032 -0.1812  0.1332
49722W        W92738   2.453   6.637  19.404  0.1946  0.3766  0.0559
49723W        W92739  29.910  29.919  22.482 -0.4668 -0.0863  0.2958
49724W        W92740   1.197   9.337  28.733  0.0012 -0.2818 -0.4220
49725W        W92741  33.605  24.706   1.004 -0.2188 -0.1865  0.2315
49726W        W92742  30.107  12.981   5.938  0.5298  0.2405 -0.0963
49727W        W92743  29.084  24.526  25.593 -0.2647  0.1203  0.0107
49728W        W92744  27.175  11.560  29.300 -0.0094  0.1373  0.0788
49729W        W92745  24.176   0.188  16.517 -0.2468 -0.1559 -0.1802
49730W        W92746   3.181  11.093   4.066 -0.0864  0.1949  0.0566
49731W        W92747  10.454   6.262  26.393  0.1903  0.1750  0.0936
49732W        W92748  30.980  11.026  23.091  0.0714 -0.3925 -0.1178
49733W        W92749   9.800  15.386  20.868  0.1393 -0.2282 -0.0451
49734W        W92750   8.980   3.849   5.686  0.0504  0.2868  0.2155
49735W        W92751   2.369  15.742   8.646  0.0915  0.2502  0.1883
49736W        W92752  27.294  29.064  25.027 -0.1195 -0.2073 -0.0510
49737W        W92753  24.076  30.373  19.194  0.0761 -0.3854  0.0786
49738W        W92754  33.183  10.499   5.751  0.0773 -0.1362  0.0362
49739W        W92755  29.209  20.208  26.518  0.2544  0.3475  0.0742
49740W        W92756   5.238  33.142  22.596  0.0190 -0.0885 -0.4490
49741W        W92757  31.065  11.088  26.730 -0.0310 -0.0219  0.2184
49742W        W92758  11.175  20.610  13.447 -0.0625 -0.1406  0.2822
49743W        W92759   2.618  29.200  10.046  0.0692  0.0291  0.0488
49744W        W92760  23.898  14.253   2.522  0.0703  0.0758  0.0176
49745W        W92761  32.907  10.798  29.017  0.1295 -0.2631  0.1454
49746W        W92762  20.543  22.212  18.358 -0.1226  0.1093 -0.2713
49747W        W92763  29.627  24.742  20.445 -0.1821  0.0039  0.0148
49748W        W92764  21.102   3.643   3.882 -0.0056 -0.2505 -0.1682
49749W        W92765  32.541  18.080   2.354  0.0445  0.2771  0.0659
49750W        W92766  17.065   9.375  16.702 -0.2148 -0.0505 -0.1125
49751W        W92767  30.821  16.405   1.647  0.0686  0.1236 -0.1568
49752W        W92768   2.595  12.581  24.275  0.2254 -0.3720  0.0925
49753W        W92769   0.874  15.972  15.010  0.0105  0.0610  0.3755
49754W        W92770  34.144  29.823   6.902 -0.1930 -0.3633 -0.1643
49755W        W92771  32.829   2.509  27.485  0.0830  0.1336  0.2982
49756W        W92772  23.607  16.644  28.061 -0.0252  0.2994  0.0906
49757W        W92773  33.041   8.578  27.248  0.0643 -0.3112 -0.1710
49758W        W92774  32.620  33.226  19.136  0.0196 -0.0421  0.0080
49759W        W92775  25.768  10.326   1.925 -0.1206  0.3765  0.2691
49760W        W92776  32.724  14.994  23.964  0.0689 -0.0343 -0.0168
49761W        W92777  26.165  11.725   3.451 -0.3322  0.2418 -0.0457
49762W        W92778  17.038  15.276  21.230  0.3049 -0.0930 -0.3991
49763W        W92779  25.690  29.621   7.506  0.0551 -0.0734 -0.0104
49764W        W92780  34.004  11.250  17.134 -0.2009  0.0212  0.2099
49765W        W92781  25.743  15.590  29.259  0.3204  0.0681 -0.2558
49766W        W92782  33.130   9.117  17.845  0.1331  0.2322 -0.0986
49767W        W92783   2.300  16.148  28.349 -0.0440  0.1716 -0.1542
49768W        W92784   9.233   4.639  28.580 -0.2215  0.2123 -0.1953
49769W        W92785   6.270  34.576  17.076  0.1761  0.0011  0.0953
49770W        W92786  19.982  31.295  25.621 -0.2669  0.0938  0.1910
49771W        W92787  29.945   9.637  21.772  0.0081 -0.2447  0.2778
49772W        W92788   6.993  21.327   0.729  0.0988  0.0768 -0.3816
49773W        W92789  24.234  33.395  27.327  0.1286 -0.1341 -0.0664
49774W        W92790   3.971  15.983  19.040  0.0047  0.1694  0.3072
49775W        W92791  18.634   4.293  20.883 -0.2634 -0.3715  0.2048
49776W        W92792   7.601  16.997   2.453  0.1378 -0.1772  0.0846
49777W        W92793  17.509  10.573  29.160  0.2017 -0.0740  0.0631
49778W        W92794   3.546   9.603   6.146  0.3978  0.1139  0.1368
49779W        W92795  33.815   5.479   8.969 -0.2770  0.4499  0.0583
49780W        W92796  26.868  34.528  24.018 -0.2341 -0.0662 -0.2392
49781W        W92797  10.847  20.131   3.705 -0.1112  0.2799 -0.1019
49782W        W92798   8.235  13.265  17.287 -0.1083 -0.0919 -0.3627
49783W        W92799   2.863  22.865   5.221  0.0146 -0.0974  0.1636
49784W        W92800   8.366  17.593  20.131 -0.2389  0.1024 -0.0552
49785W        W92801  34.093  15.281   7.747 -0.2047 -0.0324  0.3047
49786W        W92802  34.057  11.694   6.104  0.3192  0.2841 -0.0019
49787W        W92803  22.904  25.559  19.170  0.1327 -0.0978 -0.3816
49788W        W92804  33.468  10.214  25.102  0.2120  0.0755  0.1791
49789W        W92805   5.892  22.358   3.839 -0.1947  0.0164 -0.0860
49790W        W92806  19.931  34.437  27.198 -0.4302  0.2211  0.0204
49791W        W92807  10.085  32.375  19.350  0.0774  0.0060 -0.0052
49792W        W92808  19.059  23.450  20.946  0.0191  0.0371 -0.1146
49793W        W92809  23.442  32.381   7.188 -0.3628 -0.0353 -0.0532
49794W        W92810  20.727   9.555   6.622  0.1412 -0.0939  0.0122
49795W        W92811   3.096  10.552  24.358  0.0942  0.2435  0.0809
49796W        W92812  25.203   9.754   5.625 -0.0126  0.1872  0.0303
49797W        W92813  22.663  18.466   2.879 -0.1726  0.1693 -0.1605
49798W        W92814   5.046  30.125  10.153 -0.1953 -0.5458 -0.0504
49799W        W92815  25.226  28.672  20.507 -0.0471  0.0945 -0.0767
49800W        W92816  16.050  10.369   3.627  0.0708  0.1017  0.1807
49801W        W92817  31.281  34.772  18.669  0.2712  0.0990 -0.1036
49802W        W92818  14.413  22.168   4.858  0.2911  0.0277  0.0978
49803W        W92819  27.960  34.360   8.554 -0.2144 -0.1020  0.2987
49804W        W92820  10.165  26.611  14.857  0.0682 -0.2466  0.4919
49805W        W92821  25.194   8.104   0.426  0.0120  0.0141 -0.1384
49806W        W92822  18.191  26.730  29.176  0.0246  0.0775 -0.0164
49807W        W92823  27.862  32.196   9.085  0.3729  0.0142 -0.0663
49808W        W92824   8.926  26.337  18.607  0.3109 -0.2573 -0.2769
49809W        W92825  25.974   0.097   0.303 -0.4079 -0.1866 -0.3173
49810W        W92826  24.504   4.444  24.638 -0.0860  0.0451 -0.1376
49811W        W92827  29.910  14.779   5.388  0.0068  0.1235 -0.0774
49812W        W92828  33.989  22.117   8.318  0.2193  0.0929  0.0873
49813W        W92829  33.304  32.959   8.128 -0.0213  0.1505  0.0005
49814W        W92830  13.211  12.827  16.905  0.0094 -0.3570 -0.1664
49815W        W92831   8.675   0.880   9.471  0.4672  0.2361 -0.2059
49816W        W92832   1.639  28.917  24.863  0.1124  0.1766 -0.5353
49817W        W92833  31.643   9.016  16.157  0.0944 -0.1929 -0.0716
49818W        W92834  31.241  10.488  24.656  0.2280  0.0827  0.0710
49819W        W92835  30.870  31.401  21.236 -0.2045 -0.2560 -0.0291
49820W        W92836  32.560  17.059  20.997 -0.2362 -0.0345  0.0042
49821W        W92837  13.477  17.986  26.903  0.4525  0.0925 -0.2672
49822W        W92838  26.044   6.844  27.010 -0.0735  0.1295  0.1797
49823W        W92839   5.553   3.571  21.742  0.1396  0.0484  0.0945
49824W        W92840   5.756  31.292  24.061  0.3536 -0.0696 -0.1046
49825W        W92841   5.449   1.888  26.527  0.3467  0.0438  0.1035
49826W        W92842   9.662  12.129  15.231 -0.0901 -0.0687 -0.1022
49827W        W92843  31.579  24.323  17.772  0.0475  0.0904  0.1997
49828W        W92844  32.695  31.205  27.543 -0.2574  0.0459 -0.1273
49829W        W92845  33.953  16.280  22.492 -0.1073 -0.1859  0.0473
49830W        W92846  24.151  12.149  22.959  0.0464 -0.3968 -0.0500
49831W        W92847  26.372  24.839  24.467  0.0367 -0.0734 -0.0407
49832W        W92848  17.429  32.401   5.775 -0.0573 -0.0647  0.0181
49833W        W92849  22.730  14.226  13.750  0.3501  0.1789  0.0576
49834W        W92850  32.692  34.761  24.052 -0.1589 -0.0023 -0.1738
49835W        W92851  31.585  11.674  16.699  0.0717  0.1379 -0.1325
49836W        W92852   6.244   0.762  20.514 -0.2191 -0.0506  0.1315
49837W        W92853  23.802   8.580  23.188 -0.4270  0.1092 -0.4250
49838W        W92854  21.827  30.954   3.613  0.3483 -0.1143  0.1530
49839W        W92855   5.055   4.907  19.647  0.2682  0.1605 -0.0365
49840W        W92856   9.240  19.354  26.744  0.0958  0.2225 -0.1806
49841W        W92857  26.322  22.877  23.685  0.0473  0.3326  0.1201
49842W        W92858  30.688  18.850  22.212 -0.2004 -0.0333 -0.0025
49843W        W92859   9.672  15.321  22.865 -0.1491  0.0207  0.1765
49844W        W92860   9.257  15.610  26.209 -0.0989 -0.0397  0.1482
49845W        W92861  32.181  16.988  14.640 -0.0679  0.3768 -0.0419
49846W        W92862  21.072  13.871  14.450 -0.1636  0.0231 -0.1085
49847W        W92863  11.273   3.742  28.031 -0.1267 -0.1094 -0.0081
49848W        W92864   9.739  19.712  19.113 -0.0442  0.0712 -0.3512
49849W        W92865   7.495  15.399  20.647  0.0960 -0.4267 -0.1865
49850W        W92866  13.090   6.510  16.253  0.3443 -0.0030 -0.0516
49851W        W92867  15.378  23.790  19.102  0.1065 -0.0522  0.1639
49852W        W92868   2.811  23.806  24.698  0.0004 -0.3162 -0.0132
49853W        W92869   0.443   8.977  16.052  0.1717  0.2476  0.0745
49854W        W92870  30.975  14.845  21.801  0.1578  0.0152  0.1748
49855W        W92871  24.350  16.898  21.990  0.2071  0.0801  0.2723
49856W        W92872  17.621  28.968  15.378  0.1503 -0.1064  0.3272
49857W        W92873  25.356  33.887  18.609  0.1816  0.0458 -0.0796
49858W        W92874  32.824  19.543  22.616 -0.2203 -0.2887  0.0477
49859W        W92875   8.192  29.605  18.571 -0.1274 -0.0813 -0.1587
49860W        W92876   0.897  14.267   3.901 -0.2466 -0.0065 -0.0976
49861W        W92877  23.439  18.905  18.628 -0.0566  0.1428  0.2031
49862W        W92878  30.874  29.256  22.344 -0.0119 -0.0326 -0.2253
49863W        W92879   0.402  14.984  21.443  0.1658  0.1497  0.0816
49864W        W92880  27.517  12.670  18.404 -0.2153 -0.0104  0.0429
49865W        W92881  14.601   8.457  19.884 -0.0928  0.1816 -0.0771
49866W        W92882  30.233   5.135  23.591 -0.2484  0.1500  0.0568
49867W        W92883   5.831  11.211   2.913  0.0246  0.3329 -0.2387
49868W        W92884  31.832  18.835  24.176  0.3415 -0.0463  0.0019
49869W        W92885  33.015  23.862  23.154  0.2389  0.1403  0.1271
49870W        W92886  11.493  26.612  18.217 -0.1992  0.2081  0.0646
49871W        W92887  30.550  18.165  14.869 -0.0535  0.1274 -0.1574
49872W        W92888  22.227   3.965  19.714  0.0900 -0.0509  0.0300
49873W        W92889  23.926   8.732  13.786 -0.1981  0.1502 -0.0216
49874W        W92890  26.372  14.622  13.991 -0.0243 -0.0705  0.1172
49875W        W92891  33.289   9.634  19.102  0.4098 -0.2723 -0.1908
49876W        W92892  29.765  15.694  25.017  0.0733  0.1827  0.0435
49877W        W92893  34.507  14.193  28.582 -0.0740 -0.0379  0.4056
49878W        W92894   2.214   2.194  16.497  0.2028 -0.2866  0.2116
49879W        W92895  27.874  11.212  25.532  0.4679  0.0515  0.0263
49880W        W92896   6.099   9.397  20.885  0.2620 -0.1654  0.0732
49881W        W92897   0.404  16.188  25.510 -0.5490 -0.0368 -0.3464
49882W        W92898  31.403  19.131  23.339 -0.2850  0.3741 -0.1211
49883W        W92899   0.063  19.008   1.999 -0.1736 -0.1135 -0.0072
49884W        W92900  34.648   3.749  23.297  0.3870  0.2120 -0.2888
49885W        W92901  12.667  15.193  14.109  0.1642 -0.0904 -0.0401
49886W        W92902   3.278  18.733  15.826  0.0995 -0.0426  0.2292
49887W        W92903   6.709  23.545  25.862 -0.2977  0.2083 -0.1244
49888W        W92904   6.456  19.828  16.291 -0.2048  0.2193 -0.0164
49889W        W92905  31.772  16.277  27.429  0.0257 -0.1936  0.0263
49890W        W92906   5.735   8.866  22.877  0.3703  0.0612  0.0040
49891W        W92907  25.026  30.358   2.185  0.1943 -0.0177  0.1389
49892W        W92908  30.417  18.790  17.171  0.3639  0.0994  0.1473
49893W        W92909  29.348  16.234  18.672 -0.3479  0.0847 -0.0757
49894W        W92910  17.116   1.319  14.299 -0.1099 -0.1126 -0.1777
49895W        W92911  21.574   0.255   2.008  0.1576 -0.3741  0.1150
49896W        W92912  16.007  13.601  11.528 -0.0682 -0.0343  0.0549
49897W        W92913  28.011  19.348  17.977 -0.0435  0.1503 -0.1059
49898W        W92914   3.167  21.791  18.856 -0.1760  0.1338 -0.1273
49899W        W92915   8.745  27.416   0.714  0.2707  0.1291  0.2022
49900W        W92916   3.524  20.576  23.577  0.0310  0.0449  0.1238
49901W        W92917  31.214   1.403  17.564  0.1160  0.0536 -0.5836
49902W        W92918  31.858  24.917  23.848 -0.0775  0.1997  0.1745
49903W        W92919   6.525  12.646  20.769  0.1495 -0.1232  0.0475
49904W        W92920   9.806  23.820  28.378 -0.0691 -0.0747  0.0790
49905W        W92921   8.880  13.693  13.930 -0.1797 -0.1392  0.0101
49906W        W92922  33.959  33.305  19.487 -0.2040  0.3338  0.2448
49907W        W92923   9.276  22.703   3.487 -0.1490 -0.0836  0.2171
49908W        W92924   7.197  34.710  21.123  0.0675 -0.0480  0.1589
49909W        W92925  28.008  31.863   9.627 -0.1382 -0.0265  0.0530
49910W        W92926  27.536   6.799  26.712  0.0358 -0.0761  0.2678
49911W        W92927   4.259   7.485  24.394  0.0324 -0.3186  0.1088
49912W        W92928   1.612   6.936  27.028  0.0484 -0.3670  0.1011
49913W        W92929  34.361   4.900  23.991 -0.1140 -0.0574  0.0190
49914W        W92930  26.857   7.929  24.246 -0.0886  0.0693 -0.0187
49915W        W92931   6.012   6.330  21.077 -0.1843  0.0559 -0.1027
49916W        W92932  10.253  26.904  17.027  0.0855  0.2541 -0.0673
49917W        W92933  34.610   9.723  16.614 -0.3072 -0.0436  0.1105
49918W        W92934  34.248  14.042  16.043  0.0605 -0.0791  0.1237
49919W        W92935  23.487  21.249  21.036  0.1672 -0.4066 -0.1279
49920W        W92936   4.434  26.099  15.922 -0.0381 -0.0286 -0.0872
49921W        W92937  24.926  13.483  15.364  0.0196  0.2303  0.0844
49922W        W92938   9.695  26.689   5.196 -0.0506 -0.0655  0.5264
49923W        W92939   3.667  13.916  13.647 -0.1123 -0.0098  0.1430
49924W        W92940   1.928   4.332  20.768  0.1241  0.0493  0.1884
49925W        W92941  27.417   3.624  28.752  0.0500  0.0025 -0.0046
49926W        W92942  23.953  24.348  28.862 -0.0851 -0.1453 -0.2876
49927W        W92943  29.609  10.809   6.532 -0.0456  0.3821 -0.1539
49928W        W92944  31.273  23.539  16.864 -0.2486 -0.1192  0.2352
49929W        W92945  18.016  15.122  24.995 -0.2410  0.0540 -0.1935
49930W        W92946  24.262   5.829  21.518 -0.2249  0.0714  0.1892
49931W        W92947  34.249  16.005  17.964  0.0936  0.2223 -0.0700
49932W        W92948  20.655  29.221  21.958  0.1689  0.0342 -0.4806
49933W        W92949  32.825  18.720  16.399 -0.5435  0.1361 -0.0745
49934W        W92950  23.951  10.284  22.398  0.2145  0.1090  0.1092
49935W        W92951  32.470  19.630  26.644 -0.0696 -0.0088 -0.1135
49936W        W92952   6.126   9.388  19.292  0.3412 -0.0099  0.1588
49937W        W92953  12.371  25.238  13.582 -0.0765 -0.1519 -0.0298
49938W        W92954  30.197  16.279  17.320 -0.0929  0.3137 -0.1212
49939W        W92955  25.528  31.105  18.999  0.1773 -0.0776 -0.1550
49940W        W92956   2.266  28.721  22.592  0.0519  0.2894 -0.1450
49941W        W92957  29.843  13.697  18.292  0.0302 -0.2973 -0.3502
49942W        W92958  27.578  25.574  15.455  0.0156 -0.0282  0.3346
49943W        W92959  31.429  22.054  17.785  0.2398  0.0644  0.1336
49944W        W92960   0.324  23.185  16.910  0.0140 -0.1151  0.0933
49945W        W92961  32.448  20.629  23.524 -0.3318 -0.2315  0.2478
49946W        W92962   6.185  12.786  13.782  0.1604  0.0945  0.1279
49947W        W92963   3.042  12.355  22.369  0.1909  0.2666 -0.0602
49948W        W92964  10.845  19.917  20.798 -0.4505  0.3604  0.1200
49949W        W92965  27.064  23.053  20.860 -0.0471 -0.3374  0.2382
49950W        W92966  32.726  14.191  14.718 -0.0013 -0.2499 -0.2427
49951W        W92967   0.039  29.770  14.978  0.0735 -0.2107 -0.0608
49952W        W92968   1.427  26.380  18.871  0.0667  0.0600  0.4162
49953W        W92969  31.048  17.135  16.842  0.1019  0.0648 -0.1162
49954W        W92970   1.089  15.523  15.852  0.0027 -0.0520 -0.0147
49955W        W92971   6.552  18.110  16.739 -0.2486  0.3175  0.2010
49956W        W92972  26.800  20.089  19.203 -0.0420 -0.3231  0.0665
49957W        W92973   1.040   3.170  14.752 -0.0391 -0.0185 -0.1329
49958W        W92974   0.972  12.117  19.559 -0.1365 -0.0440 -0.1856
49959W        W92975   0.329   3.870  17.114 -0.1421 -0.0262 -0.3132
49960W        W92976   5.273  23.614  14.814 -0.0339 -0.0900 -0.0065
49961W        W92977  17.308   5.227  28.077  0.1513 -0.3113 -0.0709
49962W        W92978  17.859  25.003  20.467 -0.2081 -0.2792 -0.1149
49963W        W92979  25.445  22.270  14.996 -0.0891 -0.0487 -0.4106
49964W        W92980  32.406  16.747  19.294  0.3368 -0.3574 -0.0523
49965W        W92981   1.710  26.216  27.719 -0.0225  0.3505 -0.0172
49966W        W92982   7.156  26.429   0.464 -0.4213 -0.2668 -0.1993
49967W        W92983   4.758  25.086  21.893 -0.1789 -0.0170  0.2882
49968W        W92984  17.884   7.343  15.187  0.2316 -0.0677  0.0330
49969W        W92985   9.385  15.401  23.887  0.5020  0.1065  0.3395
49970W        W92986  34.637  20.143  16.827 -0.1580  0.0403  0.2642
49971W        W92987  19.415  21.056  24.449  0.0608 -0.1776  0.0743
49972W        W92988   0.244  11.388  17.017 -0.1033 -0.1518  0.0736
49973W        W92989  31.789  13.301  21.163 -0.3772 -0.1029 -0.0113
49974W        W92990  30.927  22.731  26.979 -0.2474  0.0644 -0.1762
49975W        W92991   0.476  17.937  20.244 -0.1769  0.1863  0.0835
49976W        W92992   0.234  24.809  19.401  0.0302  0.2171 -0.1023
49977W        W92993  18.654  18.314   2.188 -0.0280 -0.1681 -0.1510
49978W        W92994   3.747  23.380  27.241  0.0268  0.0879 -0.1397
49979W        W92995  18.662  30.125  18.282  0.3651 -0.0545  0.1679
49980W        W92996   9.049  13.868  21.867 -0.4185 -0.2055 -0.1276
49981W        W92997  32.801  16.777  15.630 -0.1115 -0.0481  0.0729
49982W        W92998  20.456  29.520  18.294  0.1921  0.1027 -0.2320
49983W        W92999   0.443  20.255  23.632 -0.0011  0.2359  0.0531
49984W        W93000   2.055  16.991  16.376 -0.0229  0.0532  0.0376
49985W        W93001  26.882  21.977  17.033 -0.0339 -0.0113  0.0991
49986W        W93002  33.390  33.557  18.683 -0.0385  0.3670 -0.0453
49987W        W93003  26.799  15.581  16.050 -0.0325  0.2419 -0.1421
49988W        W93004   3.099  23.453  29.100  0.1137  0.2858  0.1702
49989W        W93005  31.858  18.138  26.317  0.0406 -0.0665  0.0920
49990W        W93006   3.553   6.388  24.450 -0.0422  0.0681 -0.0632
49991W        W93007  11.372  18.458  25.956  0.4348 -0.1930  0.0099
49992W        W93008  30.471  12.248  14.590  0.0717 -0.1885  0.3011
49993W        W93009   4.404  25.896  17.621  0.2786  0.1535  0.0665
49994W        W93010  34.598  27.034  26.077 -0.1172 -0.1433  0.1124
49995W        W93011   3.950   9.842   7.913  0.1866  0.2442  0.2743
49996W        W93012  12.299  22.171   6.194 -0.0478  0.1153 -0.4730
49997W        W93013   0.311  27.378  17.056  0.1699  0.0332  0.0647
49998W        W93014  33.302  28.341  20.022 -0.0789  0.1516  0.2845
49999W        W93015  33.718  23.020  17.353  0.1684  0.1972  0.0848
50000W        W93016  12.750   6.298  22.918  0.1335  0.0963 -0.2927
50001W        W93017  25.009  11.885  18.295 -0.1986 -0.2025 -0.2510
50002W        W93018  28.195   6.851  18.906 -0.1317 -0.1613 -0.1618
50003W        W93019   4.851   9.716  18.977  0.0302  0.1800  0.1859
50004W        W93020  16.809  12.948  14.592 -0.0541 -0.0443  0.1377
50005W        W93021  28.411  16.374  27.004  0.0801 -0.3122 -0.0768
50006W        W93022  30.721  11.363  16.582  0.1985  0.1836  0.0981
50007W        W93023  31.524  18.028   0.129 -0.2858 -0.1624  0.1020
50008W        W93024  22.646  26.736  17.707  0.1920  0.0856 -0.2412
50009W        W93025  33.289   0.752  17.346 -0.0129 -0.0708  0.0673
50010W        W93026   1.481   3.186  27.786  0.1125 -0.1737  0.1502
50011W        W93027   3.018  15.058   4.307 -0.4437  0.0359 -0.3396
50012W        W93028  17.889   3.382  23.151 -0.1773 -0.1615 -0.1970
50013W        W93029  31.461  11.869  14.488 -0.2921  0.0066  0.1451
50014W        W93030  31.964  21.600  27.837  0.0530 -0.1306 -0.0587
50015W        W93031  10.177  18.176  23.481 -0.0582 -0.3684  0.1171
50016W        W93032   8.695  15.605  16.887  0.1541  0.0760  0.0650
50017W        W93033  23.491  14.537  19.621 -0.2032  0.0847  0.0360
50018W        W93034  29.203  21.009  20.250  0.0002 -0.0815  0.0329
50019W        W93035  17.136  22.055  27.552  0.2234 -0.1134  0.0897
50020W        W93036  28.920  24.043   0.239  0.2790 -0.2805 -0.3494
50021W        W93037  12.210  23.233  19.712 -0.1082 -0.0233 -0.0666
50022W        W93038  31.429  19.342  19.444 -0.3014  0.1376 -0.3946
50023W        W93039   4.895   7.316  18.744 -0.0335  0.1653 -0.3462
50024W        W93040   2.522  20.309   8.731  0.0380  0.0619 -0.0545
50025W        W93041  19.542   4.114  21.270  0.1395 -0.1321  0.1753
50026W        W93042   0.485   8.634  15.666  0.2122  0.2597 -0.0746
50027W        W93043   9.726   9.250  24.127  0.1597 -0.2948  0.0229
50028W        W93044   0.915  17.960  21.451 -0.2659 -0.0873  0.1361
50029W        W93045  28.311  24.059  23.303  0.0245 -0.0651  0.0348
50030W        W93046   2.005  20.959  16.783 -0.2552  0.3049 -0.0064
50031W        W93047  31.603  15.485  14.427 -0.0833  0.0025  0.3157
50032W        W93048  11.840  14.992  15.944 -0.3249  0.0253  0.2990
50033W        W93049   4.470  14.638  18.226  0.0561  0.0323  0.0969
50034W        W93050  34.470  20.978  26.113 -0.1039  0.2264 -0.0105
50035W        W93051   3.629  14.188  14.567 -0.1221  0.0753 -0.3231
50036W        W93052  19.543   8.489  16.700 -0.0085  0.1077  0.0166
50037W        W93053  18.275   6.571  22.920 -0.2225 -0.1706  0.1642
50038W        W93054   9.812  16.280  14.717  0.2842  0.1622  0.1963
50039W        W93055   7.490  23.158  16.387 -0.3160  0.0034  0.1486
50040W        W93056  10.639  19.560  21.684 -0.0889  0.1588 -0.1303
50041W        W93057  31.452   7.973   2.218  0.1549 -0.0380  0.0150
50042W        W93058   2.922  18.514   2.246  0.2945  0.0592 -0.0445
50043W        W93059  28.513   8.219  19.469 -0.1083 -0.1421 -0.2673
50044W        W93060  10.941  18.563   0.508  0.0930  0.0867  0.0821
50045W        W93061   9.586   7.166  16.676  0.2610  0.1842  0.2047
50046W        W93062  10.350  23.776  28.283 -0.1894 -0.2440  0.2278
50047W        W93063  30.053  18.415  18.253  0.0228  0.4625  0.1097
50048W        W93064   3.879  26.439  24.084  0.3361  0.2534  0.3260
50049W        W93065   9.269   9.316   1.157  0.0958 -0.0398 -0.0029
50050W        W93066  26.997  17.541  16.515 -0.0124 -0.0480  0.2164
50051W        W93067  15.709   9.931  25.709 -0.0826 -0.1646  0.2169
50052W        W93068  22.295  31.566   0.210  0.1666 -0.3392  0.2205
50053W        W93069  33.231  14.404   2.391 -0.2958  0.0707 -0.5914
50054W        W93070  31.405   7.751  25.689  0.1887 -0.3093  0.1162
50055W        W93071   0.828  32.736  28.135  0.0071 -0.0649  0.1844
50056W        W93072  16.695  23.769  20.714  0.1165  0.0167 -0.0058
50057W        W93073  13.116  20.328  18.864  0.0637 -0.1518 -0.1044
50058W        W93074   9.216  16.159  19.548  0.0339 -0.0908 -0.0318
50059W        W93075  10.407  24.202  19.331 -0.1057 -0.4817 -0.0379
50060W        W93076   5.432  34.270  14.428 -0.1719  0.2679  0.0523
50061W        W93077  32.547  25.518  22.975 -0.1453  0.0062 -0.0888
50062W        W93078  31.232  17.488  19.076  0.0567  0.0628  0.1349
50063W        W93079  19.782  12.161  24.148 -0.1629  0.4374  0.0505
50064W        W93080   8.518   8.377  16.818  0.1587 -0.0143  0.0793
50065W        W93081  20.118   5.677  17.870 -0.3589 -0.0555 -0.1966
50066W        W93082  24.200  13.792  18.371 -0.0650 -0.1799  0.3278
50067W        W93083  18.413  24.025  22.564 -0.3657  0.1188  0.1753
50068W        W93084  29.608  23.340  27.342 -0.0463 -0.1629  0.1738
50069W        W93085   5.691  12.090  28.884 -0.0160  0.0546  0.1932
50070W        W93086  32.358   3.080  26.285  0.2576 -0.0749  0.0281
50071W        W93087  13.492  20.057  22.695  0.0373  0.2159  0.2376
50072W        W93088  31.169  12.300  14.673 -0.2783  0.0824 -0.2163
50073W        W93089  10.178  11.337  13.099 -0.1402 -0.0332 -0.3759
50074W        W93090  18.716  19.036   0.198  0.3569  0.3255  0.2738
50075W        W93091  11.858   8.497  15.944 -0.3120 -0.0797 -0.0260
50076W        W93092  32.755  13.915  18.374 -0.1059  0.6544 -0.0834
50077W        W93093  29.358  30.020  10.591 -0.2442 -0.0842  0.1116
50078W        W93094  27.868  29.555  20.392 -0.2017  0.0646  0.1373
50079W        W93095  28.247  18.972  19.280  0.0680  0.1316 -0.1791
50080W        W93096  24.877   7.618  18.710 -0.0192 -0.3395 -0.2044
50081W        W93097  28.134  27.799   5.123  0.2100 -0.1655  0.2817
50082W        W93098   8.743  11.273  19.721  0.0889 -0.1201  0.1140
50083W        W93099  31.041  23.958  21.686  0.0773 -0.1232  0.1952
50084W        W93100  27.782  13.215  19.165 -0.2704  0.0675  0.2409
50085W        W93101   3.278  16.103  25.085 -0.1768  0.2305 -0.0764
50086W        W93102  20.205  19.959  11.996  0.1816  0.2721 -0.2723
50087W        W93103  12.731  16.198  12.486  0.2205  0.4624  0.1373
50088W        W93104   7.394  10.202  15.086 -0.1764 -0.0940  0.0325
50089W        W93105  25.162  21.875  20.153  0.2127 -0.0746 -0.2400
50090W        W93106  19.829  21.751   7.129  0.1881  0.2580  0.3018
50091W        W93107   4.338  23.498  16.937 -0.0888  0.0892 -0.2743
50092W        W93108   1.939  10.181  20.888  0.0252 -0.1397  0.2967
50093W        W93109  32.694  12.549   4.910 -0.2915  0.1269  0.0802
50094W        W93110  29.209   6.917  19.750 -0.1061 -0.1743  0.0254
50095W        W93111   5.107  18.840  29.177 -0.1175 -0.0849 -0.2671
50096W        W93112   0.754   2.249  17.632  0.0486 -0.0976  0.1429
50097W        W93113  20.751  28.349  22.365 -0.2041 -0.0621 -0.0775
50098W        W93114  26.958   5.793  25.629 -0.1553 -0.1618  0.0008
50099W        W93115   5.340   2.625   5.259  0.1968 -0.0368  0.0569
50100W        W93116  29.858  20.920   0.948 -0.0791  0.6065  0.0353
50101W        W93117  31.699  17.864  17.545 -0.1668  0.1924 -0.1484
50102W        W93118   1.787  21.065  22.204  0.4207 -0.0690  0.2263
50103W        W93119  16.425  10.441  16.361  0.1855 -0.2456 -0.0959
50104W        W93120  25.454   4.321  24.100 -0.2547 -0.0343 -0.0888
50105W        W93121  30.278  32.266  25.199  0.1699 -0.1123  0.4911
50106W        W93122   2.085  19.502  16.491  0.1310 -0.0046 -0.0387
50107W        W93123   2.984  14.495  23.455  0.1143 -0.3187  0.1084
50108W        W93124  16.225  22.010  16.316  0.2824 -0.3228 -0.0084
50109W        W93125  12.975   5.030  23.280  0.1524  0.3160 -0.0748
50110W        W93126   9.189  29.478  27.050 -0.0449  0.0878  0.1168
50111W        W93127   6.863  26.264  21.911  0.1580  0.1409 -0.0039
50112W        W93128  34.196  23.185  17.378 -0.0434 -0.1285 -0.2154
50113W        W93129  34.626  15.662  19.611  0.0825  0.1330 -0.0731
50114W        W93130   4.698  12.826  24.026 -0.1731  0.2359 -0.2393
50115W        W93131   2.006  32.235  26.299 -0.0581  0.0844 -0.0069
50116W        W93132  22.867  26.673  16.650 -0.2689  0.0119 -0.1493
50117W        W93133  18.189  31.991  18.039  0.1656  0.0885  0.0324
50118W        W93134   0.768  25.760  27.909  0.0250  0.1962 -0.3971
50119W        W93135   4.474  18.812  14.832 -0.1519  0.0154 -0.3599
50120W        W93136  27.042  25.734   2.097  0.0185 -0.1736 -0.1249
50121W        W93137   9.201  18.164  18.717 -0.2891  0.2844  0.1676
50122W        W93138  33.016  11.512  16.292 -0.3090  0.0627 -0.1044
50123W        W93139  14.841  16.593  26.737  0.1512 -0.0214 -0.1919
50124W        W93140  19.023  30.186  16.042  0.2360  0.0682 -0.2496
50125W        W93141   0.768  12.484  16.446  0.0378 -0.2329  0.0776
50126W        W93142  25.817   4.859  21.753 -0.2366 -0.0682  0.0754
50127W        W93143  31.369   0.684  20.420 -0.0716  0.0635  0.0162
50128W        W93144  23.901  16.130  13.810  0.2396 -0.2083  0.0824
50129W        W93145  27.910  22.912  21.148 -0.2139 -0.2517  0.0946
50130W        W93146  28.588  22.131  19.933  0.0005  0.1070 -0.2509
50131W        W93147  15.519   9.259  18.228  0.2000  0.3046 -0.2749
50132W        W93148  34.725   2.496  25.563  0.0132  0.0229 -0.1338
50133W        W93149  18.168   1.939  19.543 -0.3716 -0.0076 -0.0628
50134W        W93150   0.797   5.048   2.997 -0.0219 -0.0973 -0.3554
50135W        W93151  28.351  19.186  15.318 -0.0653  0.1698  0.1807
50136W        W93152  27.678  13.140  27.748  0.1625 -0.1931 -0.1370
50137W        W93153  27.591   3.226  16.901 -0.0013 -0.1513  0.1500
50138W        W93154  27.657  14.154  19.332 -0.0819 -0.0541 -0.1675
50139W        W93155   7.925  25.867  24.568  0.2583  0.1903  0.0015
50140W        W93156   0.981  34.286   4.607 -0.1076 -0.0416  0.0212
50141W        W93157  17.826   5.918  19.499 -0.2440  0.2412 -0.1697
50142W        W93158  33.607  23.140  23.056  0.2286 -0.2610  0.0167
50143W        W93159  13.481   3.795  22.029 -0.0499  0.1405  0.0249
50144W        W93160  22.049   2.061  15.433 -0.1986  0.1338  0.0488
50145W        W93161  30.971  20.158  19.426 -0.2191 -0.0712  0.1603
50146W        W93162  29.544  15.995  28.240 -0.2247 -0.3069 -0.0906
50147W        W93163  19.141  12.142  15.133 -0.1403 -0.2220 -0.0860
50148W        W93164  11.113  13.834  26.724  0.3587 -0.2242 -0.0738
50149W        W93165  25.864   6.555  23.883  0.1733 -0.1800 -0.0403
50150W        W93166  32.345   6.270  16.374  0.1569 -0.1294 -0.0733
50151W        W93167   5.823  14.614  16.017 -0.3423 -0.0238  0.2566
50152W        W93168  28.857  31.540  15.949  0.2944 -0.0288  0.0089
50153W        W93169  33.284  11.002  19.029  0.0489  0.1739 -0.0685
50154W        W93170   2.039  16.850  22.608 -0.1024  0.0323 -0.0338
50155W        W93171  32.824  19.866  25.659 -0.2292 -0.0473 -0.3283
50156W        W93172  22.340  10.063  15.669 -0.3362 -0.0421 -0.2722
50157W        W93173   0.335  28.975  19.966  0.2838  0.0658  0.1160
50158W        W93174  31.190  29.931  21.307  0.3184  0.3547 -0.0920
50159W        W93175  30.452  29.055  22.139 -0.0474 -0.2363  0.1189
50160W        W93176  28.613  23.837  18.636 -0.1416  0.4224  0.3646
50161W        W93177  29.434  29.481   5.061  0.3134  0.4932  0.2821
50162W        W93178  13.219  23.272  17.058 -0.1591 -0.0463 -0.2106
50163W        W93179  17.013  17.632  14.958 -0.0041 -0.3411 -0.1699
50164W        W93180   5.579   4.763  15.927 -0.1228 -0.0107  0.0778
50165W        W93181  20.216  24.824  14.836 -0.0125 -0.0470  0.1428
50166W        W93182  19.561  19.016  23.911 -0.0470 -0.0102  0.1016
50167W        W93183   6.026  26.297   5.058 -0.2006 -0.0840  0.2097
50168W        W93184   8.356   2.435  16.657  0.0069  0.1708 -0.2841
50169W        W93185  21.579  27.294   3.786  0.0061 -0.0816  0.0705
50170W        W93186  27.940  14.363  27.767  0.2214 -0.2517 -0.2878
50171W        W93187  11.169   2.237  18.097 -0.3510  0.1659  0.0593
50172W        W93188  20.473  27.920  25.425 -0.0233 -0.1474  0.0542
50173W        W93189  33.105  12.696  27.538  0.2427  0.0220 -0.0197
50174W        W93190  22.587  17.182  19.033  0.6225  0.2239  0.5178
50175W        W93191  31.507  27.688  18.324 -0.2240  0.1152  0.3546
50176W        W93192  19.965   7.351  24.949  0.3389  0.0585 -0.0606
50177W        W93193  34.638  17.028  29.095 -0.0511 -0.0777  0.0270
50178W        W93194  19.659  16.947  23.084 -0.1008  0.1118  0.1398
50179W        W93195   5.349  14.331  18.076  0.1369  0.1369 -0.1701
50180W        W93196  22.586  17.599  13.101 -0.1722  0.4602 -0.1715
50181W        W93197  15.404   9.127  19.073 -0.1286 -0.0062  0.2128
50182W        W93198   7.415  12.837  19.147  0.4190 -0.2189 -0.0809
50183W        W93199   6.621  15.538  21.743  0.1309  0.1700 -0.3153
50184W        W93200   7.800  13.736  27.228 -0.1315  0.0510  0.2143
50185W        W93201  30.734   3.230  18.204 -0.4621 -0.1987 -0.2971
50186W        W93202  13.665   3.265  16.336  0.1821 -0.1684 -0.1160
50187W        W93203  10.208  15.182  25.755 -0.1658 -0.2256  0.2152
50188W        W93204  34.510   6.967  17.563 -0.1277 -0.1359 -0.0132
50189W        W93205  21.912   8.477  20.250  0.0395  0.0086 -0.4207
50190W        W93206  31.800  22.932  16.871 -0.1202  0.1054  0.1358
50191W        W93207   5.996  34.680  15.214  0.1021  0.0399  0.2364
50192W        W93208   3.432  12.098   7.232  0.0774  0.0784 -0.2448
50193W        W93209   5.350  13.895  13.270  0.1317 -0.1585  0.1958
50194W        W93210  28.548  31.681  23.448  0.2645  0.0405 -0.0956
50195W        W93211   2.376  27.477  20.505  0.2096 -0.1263  0.0127
50196W        W93212   5.734  28.094   0.218 -0.0486  0.0243  0.0140
50197W        W93213  17.453   6.347  17.191 -0.1690 -0.5381  0.0072
50198W        W93214  26.394  25.063   0.725 -0.1106 -0.1957 -0.1576
50199W        W93215   5.562  19.962  21.307  0.0042  0.0833 -0.0530
50200W        W93216  25.052  18.235  24.319 -0.1153 -0.1910  0.0672
50201W        W93217  31.343  10.928  17.145 -0.7091  0.1392  0.1017
50202W        W93218  24.111   5.919  27.307 -0.0518 -0.2578 -0.1570
50203W        W93219  26.816  15.042   8.763 -0.2218 -0.2314 -0.0316
50204W        W93220  34.189  19.160  22.868 -0.1587 -0.0806 -0.0069
50205W        W93221  33.718  24.102   2.998  0.2282 -0.0520  0.1055
50206W        W93222  33.090  12.581  14.836 -0.1858 -0.1419  0.2727
50207W        W93223  30.871  20.766  19.956  0.0603 -0.0851  0.0568
50208W        W93224   4.713  19.939  18.362  0.0084  0.0357 -0.1395
50209W        W93225  23.184  23.075  21.731  0.0248 -0.0156  0.2940
50210W        W93226  28.968   5.326  24.562 -0.1308 -0.2070  0.1271
50211W        W93227   5.521  30.896  28.175  0.1386  0.1753  0.1439
50212W        W93228  14.222  16.859  12.652  0.1042  0.0929 -0.2697
50213W        W93229  18.652  16.117  13.361  0.0881 -0.0007 -0.1076
50214W        W93230   9.749  17.653  16.857 -0.0574 -0.2562 -0.0629
50215W        W93231   3.097   5.521  13.704  0.0864 -0.1640  0.2322
50216W        W93232  30.947  19.153  17.719 -0.1615  0.3344 -0.1546
50217W        W93233   2.855  32.012  17.421  0.1662 -0.1176  0.1173
50218W        W93234  33.592  22.608  18.810  0.0728  0.5587  0.0206
50219W        W93235  13.488   8.351   7.488 -0.1685 -0.2104  0.0912
50220W        W93236  32.361  19.043  21.768  0.3516  0.2326 -0.2579
50221W        W93237  13.425  31.216  22.177 -0.3407 -0.0027 -0.0489
50222W        W93238  33.619  13.579  14.998  0.3477  0.0532  0.2621
50223W        W93239  32.674  16.839  22.546 -0.1012  0.1449  0.0037
50224W        W93240  26.982  21.026  18.737  0.1141 -0.2907 -0.1433
50225W        W93241   5.093   9.307  24.131  0.1108 -0.0725  0.1231
50226W        W93242   1.308  24.092  21.245 -0.3339  0.0500  0.0741
50227W        W93243  24.022   9.755  22.371 -0.0009  0.1193  0.1543
50228W        W93244   0.256   7.731  22.859  0.0753  0.4248  0.2302
50229W        W93245   0.136  22.224  20.346 -0.0898  0.2570  0.2347
50230W        W93246   6.758  17.209  18.934 -0.1929  0.3200 -0.1276
50231W        W93247  31.211   7.144  16.707 -0.0685 -0.1617  0.1451
50232W        W93248  33.522  13.075  15.001  0.1553 -0.0042  0.2529
50233W        W93249  13.927  13.816  15.030 -0.0235 -0.0937 -0.1349
50234W        W93250  25.619  15.739  25.259 -0.0397 -0.0724  0.3622
50235W        W93251  31.033  24.170   4.700  0.1416  0.0405  0.0457
50236W        W93252  27.532  24.574  18.975  0.2710 -0.1196  0.0700
50237W        W93253   4.534  22.938  23.862 -0.0255 -0.0612  0.2761
50238W        W93254  19.810  13.545  23.774  0.1400 -0.0843 -0.2239
50239W        W93255  32.969  12.736  24.200 -0.2379  0.2104  0.0806
50240W        W93256  25.460  16.580  27.162  0.1204  0.0721  0.3046
50241W        W93257  21.057  17.017  24.270  0.2301 -0.1412  0.3738
50242W        W93258  31.740  12.750  15.225 -0.0776  0.1295  0.1846
50243W        W93259  26.902  21.356  23.887  0.0359  0.1912 -0.1700
50244W        W93260  27.215  25.850  28.740  0.0980 -0.0707  0.0337
50245W        W93261  19.320   6.256  27.793 -0.0785 -0.0981  0.0467
50246W        W93262  19.140  20.251  23.701  0.2545  0.0312 -0.1064
50247W        W93263   5.206   9.144  14.158 -0.0693  0.3608 -0.2550
50248W        W93264  14.012  11.083  21.458 -0.1812 -0.4097 -0.1357
50249W        W93265   6.937  28.787  20.038  0.4228  0.2475  0.3895
50250W        W93266  12.445   6.140  24.985  0.0356  0.0944 -0.1922
50251W        W93267  31.683  10.584  21.635 -0.0334  0.1142  0.1499
50252W        W93268  29.244  31.650   1.205  0.0960 -0.0609 -0.1922
50253W        W93269   0.078  20.832   0.896  0.1452  0.1972 -0.3526
50254W        W93270   3.496  18.380  20.885  0.0326 -0.2128  0.0249
50255W        W93271   2.432  19.334  27.034  0.1516  0.3049 -0.3075
50256W        W93272  27.959   7.364  17.992  0.1398  0.1419 -0.1949
50257W        W93273  29.444  18.480  21.375 -0.3648 -0.2699 -0.0028
50258W        W93274  14.381  11.047   5.011  0.1430  0.4796 -0.1737
50259W        W93275  34.274  33.023   6.321  0.0161 -0.0641  0.0087
50260W        W93276  34.316  25.844  16.331 -0.0487  0.0982 -0.1720
50261W        W93277   8.421   6.691  28.339  0.0781  0.1074 -0.0008
50262W        W93278  22.910  11.755  21.659 -0.0800 -0.1101  0.0823
50263W        W93279  17.563  32.705  26.579  0.1360 -0.3452 -0.0214
50264W        W93280   4.239  25.952  16.739  0.0781 -0.0157  0.0698
50265W        W93281  24.661  34.002   2.124 -0.1788  0.0451 -0.0711
50266W        W93282  12.192  27.361   5.180 -0.1010  0.0089 -0.1281
50267W        W93283   8.833  23.921  19.729 -0.0934 -0.1640 -0.1685
50268W        W93284  22.023  25.980  20.200  0.0521  0.2097  0.3651
50269W        W93285  32.523   5.758  19.823  0.1838  0.0872 -0.0451
50270W        W93286  27.633  32.189  22.745  0.1397  0.0316  0.3077
50271W        W93287   0.394  19.337  17.972 -0.1233  0.4969  0.1156
50272W        W93288   5.011  30.189  28.829 -0.1200 -0.1102  0.1420
50273W        W93289  24.568   8.101  16.833 -0.1108 -0.2721 -0.0432
50274W        W93290  34.586   0.011  23.990 -0.0433 -0.0189 -0.2952
50275W        W93291  21.758  29.531  16.083 -0.1280  0.0560 -0.5198
50276W        W93292  30.145  21.863  18.034  0.0309 -0.0371  0.0298
50277W        W93293  30.468  12.903  14.659 -0.2001  0.4590  0.1914
50278W        W93294  11.587  10.680   3.581 -0.1982  0.2523 -0.3960
50279W        W93295  31.423   4.231  28.761  0.0468  0.1030  0.0875
50280W        W93296   0.286  12.069  16.808 -0.1177  0.1280 -0.0273
50281W        W93297  27.611   6.001  25.939  0.0886  0.2910 -0.1610
50282W        W93298   5.045  34.179  21.369  0.1087  0.0082  0.0486
50283W        W93299  33.714  14.050  25.111 -0.1825 -0.0381  0.0470
50284W        W93300  24.945  16.036  28.230 -0.0449 -0.2846  0.1087
50285W        W93301   6.514  13.691  14.828 -0.0419  0.0667  0.1461
50286W        W93302   0.601  23.177  21.223  0.0016  0.1638 -0.1356
50287W        W93303  34.215  19.794  17.590 -0.1588 -0.3982  0.0260
50288W        W93304   2.764  12.030  21.090 -0.0542 -0.0637 -0.0779
50289W        W93305   4.655  17.225  27.626 -0.3406 -0.2515  0.0300
50290W        W93306  24.125  20.808  28.270 -0.0571 -0.0914  0.2953
50291W        W93307  11.613  15.362   4.260 -0.0607  0.0439 -0.0750
50292W        W93308  23.979  21.669  28.132  0.0480 -0.1952  0.4299
50293W        W93309  22.430  19.648  25.712  0.0162  0.3377  0.2529
50294W        W93310  31.524  16.124  16.743  0.0037 -0.0039  0.0986
50295W        W93311  31.916  19.102  16.696 -0.1086  0.0966 -0.2237
50296W        W93312   7.165  15.281  24.872  0.0329 -0.2501 -0.0136
50297W        W93313   0.919  21.602  16.039  0.2906  0.1924  0.3326
50298W        W93314  26.802  18.488   8.476  0.1722  0.0433 -0.3053
50299W        W93315  27.398  10.660  15.068 -0.0217  0.1005 -0.0247
50300W        W93316   2.441  16.917  25.954  0.0340  0.0739 -0.3618
50301W        W93317  22.211   7.701  23.411 -0.0433  0.0157 -0.1973
50302W        W93318   5.208   9.901  25.824 -0.1085  0.1186 -0.1239
50303W        W93319   1.369   4.593  21.976  0.0106 -0.1223 -0.2418
50304W        W93320  14.911  18.364   4.674 -0.3018  0.3557 -0.0355
50305W        W93321  16.063   8.178   6.841 -0.1179 -0.0479  0.0155
50306W        W93322  23.189  11.126  17.491 -0.2226 -0.0759  0.1874
50307W        W93323  26.172  20.496  20.257  0.0150  0.2719  0.2579
50308W        W93324  23.539  29.129  16.054 -0.1838  0.0378 -0.2603
50309W        W93325  32.531   0.717  17.098  0.0567  0.0722 -0.0848
50310W        W93326  21.331   1.502  21.633  0.0972  0.1370 -0.1695
50311W        W93327  23.328  23.758  22.840 -0.0229  0.2044 -0.2183
50312W        W93328  30.180  29.522  20.513 -0.0938  0.1547 -0.0334
50313W        W93329  32.704  16.134   5.328 -0.1443  0.2252  0.0781
50314W        W93330  24.103  11.811   2.416  0.1312 -0.0173 -0.0856
50315W        W93331  17.643  20.420  28.754 -0.0503  0.0267  0.2260
50316W        W93332  23.644  11.581  23.188  0.1055  0.1286  0.0025
50317W        W93333  26.148  17.192  19.254  0.0232  0.0097  0.0266
50318W        W93334  12.366  21.923  15.061  0.0776  0.0248  0.0230
50319W        W93335   4.378  28.555  23.923  0.2013 -0.1005  0.0322
50320W        W93336  25.774  19.769  18.976  0.1438  0.0999  0.0362
50321W        W93337   4.590  23.925   7.378  0.0689  0.2634 -0.0137
50322W        W93338   5.547  18.261  25.747 -0.1310 -0.1142  0.3437
50323W        W93339  22.436  19.849   4.861 -0.0756 -0.0409  0.2641
50324W        W93340  28.974  16.436  20.168  0.2842 -0.0964  0.3669
50325W        W93341   3.395  21.814  14.250  0.0333  0.0197  0.0516
50326W        W93342  12.347   5.541  23.447  0.1225  0.0357  0.2490
50327W        W93343  26.896  17.197   0.540  0.1424  0.1972  0.0211
50328W        W93344   2.090  27.302  21.745 -0.0772 -0.0047 -0.1021
50329W        W93345   1.833  15.962  20.735 -0.1861  0.3506  0.2205
50330W        W93346  22.104  27.041  24.360 -0.0434  0.1377 -0.0556
50331W        W93347  11.534  25.970  16.862  0.3535  0.2803 -0.0125
50332W        W93348   6.842  21.048   0.142 -0.0808  0.0085  0.1357
50333W        W93349   1.825  15.938  16.028 -0.2730 -0.0437 -0.1440
50334W        W93350  30.155  16.244  27.115 -0.2612 -0.0049  0.0092
50335W        W93351   4.916  11.527   1.623 -0.0725 -0.2646 -0.1412
50336W        W93352  17.403  17.465  21.393 -0.2558  0.1491 -0.0369
50337W        W93353  34.254  16.104   3.360 -0.0149  0.1655 -0.0088
50338W        W93354  34.374  23.748  21.368 -0.2273  0.0354 -0.0193
50339W        W93355  31.442  11.689  23.368 -0.2119 -0.1152 -0.0955
50340W        W93356  32.397  10.587  25.014  0.0060 -0.0040 -0.0016
50341W        W93357  24.771  10.029   2.884 -0.3040  0.3029 -0.0433
50342W        W93358  11.281  24.247  25.421 -0.1799  0.1254  0.2058
50343W        W93359   4.244  11.284  17.151 -0.0633 -0.1006 -0.1190
50344W        W93360   0.330  33.536  25.774 -0.1785  0.1549  0.1202
50345W        W93361  32.672  15.996   2.260  0.1441 -0.2240 -0.1284
50346W        W93362  25.507   3.942  23.183  0.1411  0.1658  0.2918
50347W        W93363  29.427  11.188  27.916  0.1858 -0.2159  0.2154
50348W        W93364  29.095  24.053  16.023  0.0764 -0.3233 -0.4884
50349W        W93365  31.537  22.933  18.265  0.0544 -0.1325 -0.0040
50350W        W93366  28.360  17.196  14.485  0.1275  0.2166 -0.0507
50351W        W93367   3.858  18.829   1.191  0.2129  0.3905 -0.0565
50352W        W93368  29.527  22.783   7.185  0.5003  0.2163  0.0745
50353W        W93369  32.052  20.637  18.630  0.1429  0.1259  0.2731
50354W        W93370  20.012  19.869  20.623  0.2075  0.1334  0.0021
50355W        W93371  20.978  26.778   0.881  0.0805 -0.0826 -0.0362
50356W        W93372  27.766   9.912  23.101  0.0984 -0.3248  0.1036
50357W        W93373   2.807  19.420   8.857 -0.0183  0.2504 -0.0901
50358W        W93374  23.725  21.281  24.988  0.0110 -0.2354 -0.0193
50359W        W93375   0.950  14.183   5.556  0.2712 -0.0675 -0.2142
50360W        W93376  10.843  26.165   2.254 -0.1251  0.0543  0.1850
50361W        W93377  23.940  14.293  16.566  0.1591  0.0799  0.1508
50362W        W93378  20.496   1.727  22.199  0.1407 -0.1628 -0.0498
50363W        W93379  15.970   4.218  24.971 -0.0521  0.1895 -0.1147
50364W        W93380  26.768   3.116   0.440 -0.0576 -0.1395 -0.0273
50365W        W93381  11.543  17.661   8.390  0.1121 -0.1625 -0.2221
50366W        W93382  24.989  13.462  19.576 -0.1694 -0.0015  0.2236
50367W        W93383  33.379   3.727   1.989  0.2933 -0.2284  0.0027
50368W        W93384  14.129  22.502  12.937  0.1242 -0.1784  0.0057
50369W        W93385  33.785  19.406  24.957 -0.2599 -0.3666 -0.2596
50370W        W93386   0.205  18.890   7.671  0.1691  0.0916  0.0552
50371W        W93387  25.933   2.373   7.687  0.1847 -0.0009 -0.0797
50372W        W93388   2.593  15.849  22.011 -0.0351 -0.0730  0.0248
50373W        W93389  29.501  29.116   9.150 -0.2381  0.0367  0.0968
50374W        W93390  28.142  24.952  22.839 -0.1488  0.0800 -0.1388
50375W        W93391  27.712  15.126  17.353  0.0479  0.0749 -0.0567
50376W        W93392  32.292  30.149   0.844 -0.2903 -0.0179  0.1706
50377W        W93393  19.401   4.601  21.547 -0.1810 -0.1403 -0.2842
50378W        W93394  33.057  19.937  19.363  0.1587  0.1217 -0.2572
50379W        W93395  28.762   8.400   4.987 -0.0859  0.1239  0.0677
50380W        W93396   0.739  11.371  14.477 -0.2778 -0.1052 -0.2961
50381W        W93397  27.824  30.775  22.183  0.0803 -0.2195 -0.1559
50382W        W93398   2.235  16.574  17.128 -0.0391 -0.3212  0.0707
50383W        W93399   3.156  21.309   3.705 -0.0314  0.1693  0.0659
50384W        W93400  30.670  20.906  25.176 -0.1383 -0.2647  0.0479
50385W        W93401   5.288  16.997  21.693  0.0288 -0.1005  0.2404
50386W        W93402  31.621  25.838  18.780  0.0891 -0.1139  0.0061
50387W        W93403  24.839  11.827  15.796 -0.3378  0.1732 -0.3143
50388W        W93404  32.166  17.316  21.022 -0.2382  0.4383  0.0969
50389W        W93405  23.771   3.432  18.267  0.0010 -0.3730  0.1687
50390W        W93406   3.092   9.531  18.744  0.0915  0.0336 -0.1364
50391W        W93407  34.179  22.245  16.274  0.1689 -0.3931  0.2025
50392W        W93408  22.093   9.481  27.743  0.2758  0.0995 -0.0212
50393W        W93409  28.356  17.144  27.911 -0.0071  0.1838 -0.2748
50394W        W93410  15.682   9.413  22.176 -0.0572  0.3121 -0.2342
50395W        W93411  27.364  22.690   1.333 -0.0996  0.3340 -0.2314
50396W        W93412  29.076   9.514  21.632 -0.3457 -0.0647 -0.1606
50397W        W93413  17.468  30.228  15.578  0.2543 -0.2108  0.2184
50398W        W93414   3.921  27.930  19.550  0.0968  0.1322 -0.0060
50399W        W93415   3.886  19.044  28.608  0.3793 -0.1146  0.1684
50400W        W93416  16.277  12.131  21.640  0.1874  0.0256 -0.0671
50401W        W93417   4.474   9.015  18.819 -0.0863 -0.0446  0.1201
50402W        W93418  14.406  27.335   0.847 -0.4007  0.0133 -0.4132
50403W        W93419   6.562   6.870   2.380 -0.1725 -0.0845  0.3505
50404W        W93420  26.126  29.287   3.632  0.1402 -0.0100  0.2692
50405W        W93421  25.887  32.456  21.202 -0.3800  0.1579  0.0038
50406W        W93422  18.431  27.062   6.848  0.5377 -0.1947 -0.0930
50407W        W93423   3.165  16.640  21.119 -0.1156 -0.1233 -0.1259
50408W        W93424  23.394  19.527  15.077 -0.0080  0.4097 -0.0917
50409W        W93425  28.968  10.637  18.434  0.0798  0.4714 -0.0271
50410W        W93426  28.464  27.825  27.937 -0.0791  0.0461  0.1489
50411W        W93427  20.999   5.472  16.874  0.1745 -0.0966  0.1372
50412W        W93428   8.578  19.209  16.794  0.0231  0.1548  0.1815
50413W        W93429  23.926  17.550   3.217 -0.0499 -0.1349  0.1219
50414W        W93430   8.901   1.793  16.334 -0.1456 -0.2396 -0.2735
50415W        W93431   9.681  28.869  18.004  0.1212  0.0952  0.2092
50416W        W93432  34.025  10.077  15.450 -0.1940 -0.2237 -0.0069
50417W        W93433  29.718  22.096  22.345  0.2405 -0.3597 -0.1664
50418W        W93434  18.985   8.844  15.151  0.1225  0.0745 -0.2739
50419W        W93435   6.669  21.519  15.717  0.1468  0.2588  0.1503
50420W        W93436  33.014  21.590  28.164 -0.2459 -0.0299  0.2965
50421W        W93437  31.458  29.217  23.073  0.0052 -0.0504  0.0288
50422W        W93438  34.538   7.459  17.249  0.1438 -0.0562 -0.0779
50423W        W93439   4.049  23.659   3.411  0.1680  0.0492  0.0823
50424W        W93440  27.270  34.062  18.556  0.0688 -0.1325 -0.1316
50425W        W93441  23.632   5.784  18.059 -0.0738 -0.0318  0.2819
50426W        W93442  30.810  15.009  25.672  0.0894  0.0179  0.2679
50427W        W93443   0.051  17.560  20.087  0.1163  0.2498  0.0280
50428W        W93444  23.054  14.005  17.880  0.1280  0.1849 -0.1746
50429W        W93445  16.837   1.085   3.322  0.2086 -0.0588 -0.0079
50430W        W93446   1.576  13.617  16.900 -0.2020  0.2819 -0.0942
50431W        W93447  33.486  17.064  25.397 -0.2691 -0.0525 -0.0052
50432W        W93448  21.614   3.333   8.112  0.0753 -0.1977 -0.1965
50433W        W93449  31.282  16.066  17.751 -0.2419 -0.2064  0.3696
50434W        W93450   1.650  26.285   0.555 -0.2530  0.0173 -0.0701
50435W        W93451  28.820  10.843  24.441 -0.1843  0.3063  0.1040
50436W        W93452  27.238   4.633  24.651 -0.2898  0.0326  0.3446
50437W        W93453   3.415  31.589  22.948  0.1637 -0.2004 -0.0358
50438W        W93454  33.511  13.413  25.800 -0.2968 -0.0445 -0.0513
50439W        W93455  11.426  18.007  14.780 -0.0404  0.0625 -0.2457
50440W        W93456  31.217  18.881   5.217 -0.4106 -0.0761 -0.2514
50441W        W93457  19.510  33.339  27.895 -0.3066  0.1207  0.2539
50442W        W93458   7.332  13.702  24.675 -0.3872 -0.1771 -0.0721
50443W        W93459  26.559  18.949  16.063 -0.1004 -0.4136 -0.1154
50444W        W93460  28.531  14.176   3.430  0.1880  0.1674 -0.1528
50445W        W93461   0.103  16.119  19.636 -0.3162 -0.1599 -0.0955
50446W        W93462  24.456  14.476  19.545  0.1589 -0.1036  0.1378
50447W        W93463  31.873   1.062  21.553  0.1465 -0.1264  0.1388
50448W        W93464  23.608   6.859  19.948 -0.0982  0.1223 -0.2609
50449W        W93465   2.211  16.724   5.071 -0.1928  0.4677  0.0212
50450W        W93466  23.611  24.812   3.810 -0.0864  0.0820  0.0638
50451W        W93467   8.426  24.226  16.188  0.1205  0.0251 -0.1251
50452W        W93468  32.087  10.591  28.657 -0.2939  0.2133 -0.3506
50453W        W93469  21.810  19.256  13.616  0.2478  0.0721  0.0555
50454W        W93470  30.067  31.216  17.087  0.1413 -0.0176  0.0770
50455W        W93471  30.990  21.672  15.973  0.0699 -0.2769  0.0234
50456W        W93472  32.316   9.875  21.611 -0.3592 -0.1249 -0.1150
50457W        W93473   2.864  19.994  20.194 -0.1961  0.1664  0.1001
50458W        W93474  31.974  20.221  18.348 -0.1322 -0.0506  0.3189
50459W        W93475  17.594  18.513   4.779  0.0435 -0.0625  0.1012
50460W        W93476  24.128   7.108  16.126  0.0947  0.6427  0.2169
50461W        W93477  31.213  30.118  18.159  0.1758 -0.1243  0.2211
50462W        W93478  33.483  32.582   0.393  0.1495 -0.1842  0.0693
50463W        W93479  26.766   9.116  16.003 -0.1049 -0.0353  0.0748
50464W        W93480  18.398  12.169  25.599 -0.3755 -0.1666  0.0765
50465W        W93481   7.272  23.086  19.545 -0.0909  0.0145 -0.0946
50466W        W93482  26.129  15.668  13.363 -0.0934  0.0150  0.1331
50467W        W93483  34.289  13.289   5.477  0.3062 -0.2723  0.0117
50468W        W93484  28.860  13.329  23.675 -0.1517  0.3886  0.0217
50469W        W93485   4.649   9.628  23.013 -0.1248 -0.2059  0.2194
50470W        W93486  12.406   8.630   4.973 -0.0032  0.1978  0.2559
50471W        W93487  16.990  10.554  26.418 -0.0858  0.0987 -0.2585
50472W        W93488  17.393  31.866  15.342 -0.1702 -0.0047 -0.2777
50473W        W93489   3.030  14.310   9.019 -0.1543 -0.2733  0.2157
50474W        W93490  29.641  21.492  20.485  0.1203  0.2038 -0.3328
50475W        W93491   3.512  19.157  14.679  0.2788  0.1746  0.0408
50476W        W93492   1.621  27.967   7.686 -0.0342  0.0375 -0.2919
50477W        W93493   0.012   1.201   0.576 -0.1966 -0.0739 -0.0937
50478W        W93494   1.239   7.879  14.286  0.1937  0.0688 -0.0832
50479W        W93495   0.261  27.584  26.714 -0.1453  0.1437 -0.0811
50480W        W93496   0.360  30.435  25.263  0.2118 -0.0928 -0.1438
50481W        W93497   3.493  14.900  18.194  0.2340  0.1054  0.2458
50482W        W93498  21.283   4.070  21.181  0.0641  0.4322 -0.1411
50483W        W93499   2.992  27.665  16.017  0.0935  0.0967  0.4819
50484W        W93500  32.680  30.177  24.768  0.1959  0.2474  0.0889
50485W        W93501   3.317   5.578   1.635 -0.0178  0.0258  0.2668
50486W        W93502  10.103  11.435  16.411 -0.0356  0.2764  0.0754
50487W        W93503  15.187  32.985  16.683 -0.0132 -0.0312 -0.3348
50488W        W93504   8.000  21.257   4.631  0.0452  0.3510  0.3661
50489W        W93505  11.968  17.260  15.823  0.2489 -0.0975  0.2610
50490W        W93506  30.224  22.692   0.103  0.0155 -0.1758 -0.1259
50491W        W93507  25.049   1.082   0.599  0.1642  0.1092 -0.0893
50492W        W93508   2.342  27.431   1.084 -0.1063 -0.1345 -0.1105
50493W        W93509   7.958  23.133  27.346  0.2044 -0.1069 -0.2078
50494W        W93510  29.227  19.661  27.529 -0.0098  0.3995 -0.1248
50495W        W93511   3.372  15.972  25.800 -0.1299  0.0265  0.1619
50496W        W93512   6.861  17.036  26.554 -0.3755 -0.3803 -0.1944
50497W        W93513  29.116  19.832  19.106  0.1038  0.0048 -0.2312
50498W        W93514   4.241   2.592   8.071  0.0148  0.2294  0.1399
50499W        W93515   6.136  13.381  25.229 -0.0403 -0.4234  0.0110
50500W        W93516   7.186  13.393  18.834  0.0560 -0.1935  0.0738
50501W        W93517   4.717  21.676   7.894 -0.3188 -0.0267  0.0822
50502W        W93518  30.552  25.131   9.727 -0.0014 -0.2873  0.0756
50503W        W93519  23.852  24.244   5.275 -0.0287 -0.1460 -0.1209
50504W        W93520  19.318  12.981  27.385  0.0472 -0.0895 -0.0961
50505W        W93521  26.368  27.734  27.760 -0.0023  0.0420  0.2294
50506W        W93522  10.689  18.626  19.230  0.1598 -0.1672  0.2565
50507W        W93523   6.603  18.023  15.828  0.2939  0.3024  0.1033
50508W        W93524  31.082   2.535  21.697 -0.2034 -0.0208  0.0674
50509W        W93525   4.211  25.747  24.194 -0.0162 -0.1811  0.0934
50510W        W93526   8.131   4.878  27.970  0.0369 -0.0479  0.3021
50511W        W93527   2.785   4.224   6.896 -0.3451 -0.2633 -0.1371
50512W        W93528  20.702  18.949   1.702 -0.0694  0.0754  0.0241
50513W        W93529  27.993  12.987  20.309 -0.0036 -0.1498 -0.3267
50514W        W93530  11.440  23.834   0.422 -0.0359  0.2639 -0.0867
50515W        W93531  18.464  17.789   6.955 -0.4230 -0.1301 -0.0675
50516W        W93532  18.900  15.347  23.776  0.2080 -0.0016  0.1577
50517W        W93533   7.475  22.860   8.421  0.2239 -0.0118  0.0725
50518W        W93534  10.922  34.663  15.426  0.0425 -0.3142 -0.0701
50519W        W93535  34.536  23.154  19.786 -0.0049  0.1262  0.0421
50520W        W93536   5.473  17.798  23.155 -0.1129  0.1429 -0.0120
50521W        W93537   6.086  15.271   6.180 -0.0633 -0.1265 -0.1538
50522W        W93538  28.614  23.685  25.667  0.0562 -0.2385 -0.0372
50523W        W93539  31.576  12.660  20.127 -0.2103  0.1761 -0.2550
50524W        W93540  30.750  33.533   3.702 -0.0258 -0.3230 -0.2852
50525W        W93541  27.040  31.778   8.313 -0.0428 -0.1543  0.0178
50526W        W93542   6.211   3.998   0.971 -0.2141 -0.3512  0.1234
50527W        W93543  29.456  25.647  21.752 -0.2530 -0.1011 -0.0917
50528W        W93544  34.705  23.516  29.255  0.1078  0.0891 -0.0115
50529W        W93545  25.001   0.868  28.856 -0.3467  0.2093 -0.0891
50530W        W93546   5.623  26.810  25.982 -0.1745 -0.1504 -0.1398
50531W        W93547  13.609  26.791   3.533  0.3331  0.1459 -0.1645
50532W        W93548  30.758   3.535  23.531  0.0251  0.1231 -0.1122
50533W        W93549   2.006  20.415   0.462  0.1498  0.1807 -0.1082
50534W        W93550  31.611  13.450  16.158  0.0630  0.0116  0.1791
50535W        W93551   2.101  17.547  15.538  0.2992  0.2710  0.0424
50536W        W93552   1.594   6.966   8.739 -0.1442 -0.1203  0.1039
50537W        W93553  28.743  27.262  24.207 -0.0342  0.0786 -0.1234
50538W        W93554  33.335  29.010   3.214  0.1478  0.0224  0.2236
50539W        W93555  11.358  17.773   6.206 -0.0833 -0.1655 -0.0247
50540W        W93556  32.619  16.297  10.429 -0.1686  0.0876  0.1632
50541W        W93557   7.169  11.431   6.033 -0.1936  0.4150 -0.2659
50542W        W93558  26.064  16.805   5.455  0.3378 -0.1142 -0.2201
50543W        W93559  21.745  20.247   2.550  0.2145 -0.1968 -0.0093
50544W        W93560  23.763  16.210  25.032  0.2566  0.0067  0.1505
50545W        W93561  34.279  24.228  27.160  0.0841 -0.0691  0.1465
50546W        W93562   5.203  22.839  15.723 -0.1770 -0.3014 -0.3001
50547W        W93563  22.805  32.503   6.669  0.1659  0.0517  0.3943
50548W        W93564   5.604  25.561  15.577  0.0949  0.0599  0.1095
50549W        W93565   2.425  27.769   3.837 -0.0975 -0.2256 -0.0540
50550W        W93566  11.321   0.978   3.274 -0.2804  0.1582  0.0699
50551W        W93567   1.380  24.084  22.122  0.0150 -0.0135  0.1960
50552W        W93568  20.737   6.759   1.093  0.2110  0.0375 -0.0738
50553W        W93569  28.534  25.058  24.357 -0.2268  0.1985  0.0302
50554W        W93570  18.897  14.447  12.498 -0.1395  0.1257 -0.0720
50555W        W93571  32.936  11.956   0.374 -0.2722 -0.0482  0.1918
50556W        W93572  11.767  15.100   3.812  0.1713  0.0445 -0.0820
50557W        W93573  30.907   2.415   0.734 -0.0556  0.4217  0.1926
50558W        W93574   0.747  11.899   4.633  0.0226  0.0030  0.2240
50559W        W93575  30.737  22.877   8.928 -0.3678 -0.1517  0.2160
50560W        W93576   4.541  26.013   3.041  0.1206  0.0572  0.1036
50561W        W93577  13.092   8.185   2.713  0.1866 -0.1923 -0.0991
50562W        W93578  25.453  20.302  28.698 -0.0544 -0.1617 -0.0654
50563W        W93579   4.729  16.415  18.567 -0.0127  0.0809  0.1415
50564W        W93580  21.265   9.547  27.976  0.0970 -0.0892  0.0956
50565W        W93581   2.011  25.637   0.930 -0.3414 -0.2079 -0.1809
50566W        W93582  30.947  31.973   6.184  0.2259 -0.0189 -0.0957
50567W        W93583   0.930  23.809  19.941  0.1583  0.0069 -0.0136
50568W        W93584   2.597   6.450  25.517 -0.2777  0.4456  0.0548
50569W        W93585  10.934  19.542   0.772 -0.1987  0.0094 -0.0359
50570W        W93586  12.164  17.258  24.705  0.2017 -0.2391 -0.1331
50571W        W93587  32.344   2.074   2.943  0.0292  0.0058 -0.0730
50572W        W93588  31.314  22.124   3.342  0.1836 -0.1237 -0.2391
50573W        W93589  22.045  31.147  10.486 -0.1056 -0.0418  0.0428
50574W        W93590  31.146  19.825  10.214 -0.1524 -0.0176  0.1820
50575W        W93591  18.914  23.299  15.692  0.2311  0.2016  0.0918
50576W        W93592   0.484  34.674   8.574 -0.2328 -0.3500 -0.0679
50577W        W93593  29.336  13.583  28.171 -0.3221 -0.0663 -0.1027
50578W        W93594  30.337   0.677  16.670  0.0071  0.4025  0.1581
50579W        W93595   4.407  13.384  20.182 -0.0896 -0.0316 -0.2957
50580W        W93596  21.787  21.227   0.866 -0.0192 -0.4687  0.2429
50581W        W93597  33.863  19.603   7.072 -0.0465  0.2838  0.1532
50582W        W93598   2.364  21.068  26.643  0.0296  0.0299  0.0633
50583W        W93599  27.730   9.824  21.080 -0.1053 -0.0432 -0.2058
50584W        W93600   0.778   1.160  21.344  0.1774  0.0421 -0.1065
50585W        W93601   8.592  17.118  20.629  0.0604 -0.0542  0.0825
50586W        W93602  29.005  15.685   5.303  0.2466  0.2176 -0.2572
50587W        W93603  14.013  28.384  21.303  0.1110  0.3285  0.0171
50588W        W93604  28.647  24.373  24.348  0.1799 -0.1205 -0.0135
50589W        W93605   4.599  27.936  13.646  0.3696  0.0325  0.1380
50590W        W93606   6.277  19.092   7.331 -0.1836 -0.0780  0.2046
50591W        W93607  13.415  15.676  28.537  0.0518 -0.1103 -0.1206
50592W        W93608  27.318  33.165  27.965 -0.0420 -0.2237 -0.0070
50593W        W93609  15.471  19.131  13.323 -0.2991  0.0525  0.2309
50594W        W93610  11.518  13.017  15.063  0.2437  0.1680  0.2828
50595W        W93611  31.121  15.024   2.858  0.3231 -0.0724  0.0216
50596W        W93612   9.606  15.689  19.561 -0.1360 -0.1113 -0.1206
50597W        W93613  24.763  17.505  16.510 -0.1402 -0.0353 -0.0210
50598W        W93614   0.509  15.273   1.267 -0.1824 -0.0152 -0.2013
50599W        W93615  32.534   3.442  17.423 -0.0390 -0.1615  0.0322
50600W        W93616  27.914  15.247  18.330  0.3215  0.1343 -0.0775
50601W        W93617  10.275  28.319   4.778  0.3085  0.0712 -0.3008
50602W        W93618  24.845  23.856  16.854  0.0857  0.1672 -0.2458
50603W        W93619  33.532  21.834  19.999 -0.0952  0.1494 -0.0321
50604W        W93620  33.300  24.593  26.972  0.0259 -0.2160  0.1707
50605W        W93621   9.919   6.403  16.264 -0.1216  0.1785  0.1237
50606W        W93622  18.565  15.440   7.842  0.0068 -0.1919 -0.0929
50607W        W93623   8.191  21.890  25.672 -0.1143  0.2240 -0.0890
50608W        W93624   7.139   4.404  25.426  0.1272  0.0463 -0.1849
50609W        W93625  14.156  33.721   8.547 -0.0447  0.0521  0.0645
50610W        W93626  24.478  17.900   7.127  0.2908 -0.0962  0.2877
50611W        W93627   2.007  16.806  27.374 -0.0943  0.3214  0.1213
50612W        W93628   8.460  16.929  25.842 -0.0148  0.0122 -0.2571
50613W        W93629   3.502  18.513   5.491 -0.1895 -0.0388 -0.1473
50614W        W93630  10.298   0.558   7.460 -0.0225 -0.0637 -0.1266
50615W        W93631   6.622  14.548   6.233 -0.0231  0.1402 -0.3857
50616W        W93632   2.376  30.465  28.954 -0.0342 -0.0014  0.0544
50617W        W93633  28.207  19.152   1.373  0.0699  0.0216 -0.1534
50618W        W93634  11.079  17.621   5.576 -0.0063 -0.3107 -0.0268
50619W        W93635  32.775  10.052   5.763  0.0301  0.0380  0.2515
50620W        W93636  25.025  23.137   4.554  0.0865 -0.1263  0.0420
50621W        W93637  33.275   5.868  19.196  0.3402 -0.5171 -0.2077
50622W        W93638  15.640  20.350   7.857 -0.0457 -0.0928 -0.0779
50623W        W93639   7.111  26.886  16.234  0.0800  0.1114 -0.4439
50624W        W93640  30.197  11.517   0.695  0.2587 -0.1378  0.1384
50625W        W93641  31.990  16.604  17.929  0.1556  0.3061  0.4628
50626W        W93642   6.179  18.011   4.891 -0.4030  0.3781  0.0814
50627W        W93643   2.540  15.539  17.687 -0.0050 -0.0606 -0.1473
50628W        W93644  21.795  12.774   1.217  0.0107  0.0895  0.3966
50629W        W93645  22.437  17.139  21.957  0.1110 -0.0757  0.0420
50630W        W93646  20.534  13.289  14.282  0.0551  0.2468 -0.0854
50631W        W93647  29.962  11.607  17.270 -0.3935  0.0836  0.0176
50632W        W93648   2.867  13.120   7.297  0.1523 -0.0287  0.1074
50633W        W93649  27.055  16.574  26.547 -0.2538  0.0165 -0.0546
50634W        W93650  29.457  33.800  10.165 -0.0454  0.0559  0.3079
50635W        W93651   5.203  16.156  17.546 -0.1645  0.1160 -0.1014
50636W        W93652   2.056  10.518  20.329  0.0488  0.0225 -0.2890
50637W        W93653   2.956  25.131  20.863  0.0319 -0.0981 -0.2485
50638W        W93654  28.489  17.422  23.921  0.0274 -0.1167  0.4789
50639W        W93655  21.044   1.396  28.976  0.2089 -0.1087 -0.1099
50640W        W93656   0.381  25.120   9.941 -0.3635 -0.1769 -0.3663
50641W        W93657  19.144  26.306   2.116 -0.0968  0.0542 -0.3079
50642W        W93658  34.761  28.404  25.159 -0.1622 -0.2436  0.0952
50643W        W93659  11.837  10.286  17.070  0.0001  0.0984  0.0311
50644W        W93660  10.236  14.920   4.091 -0.2261  0.1618  0.2755
50645W        W93661   3.390  17.928  13.393 -0.1790  0.1091  0.0820
50646W        W93662  22.935  17.290  21.044 -0.1083  0.1840 -0.5065
50647W        W93663  18.685  32.800  21.297  0.2803 -0.3161 -0.1524
50648W        W93664  27.913  12.563   2.440 -0.0106 -0.0879 -0.2282
50649W        W93665   6.532  32.430  24.516 -0.3974  0.1159 -0.2375
50650W        W93666   5.775  33.466  24.138  0.1198 -0.0880  0.4826
50651W        W93667  24.963  12.642  22.252 -0.0707 -0.1401 -0.2911
50652W        W93668  25.314   8.829   9.455  0.2281  0.0716 -0.1160
50653W        W93669  18.624  22.272  18.563  0.0448 -0.1442  0.0960
50654W        W93670   7.428  25.982  19.044 -0.0687 -0.0845  0.0559
50655W        W93671  29.976  10.867  23.624  0.1031  0.1273 -0.3230
50656W        W93672  11.312   5.186  22.461  0.0287 -0.0801 -0.1232
50657W        W93673  26.830  11.741   6.503 -0.0864  0.0123  0.1210
50658W        W93674  15.244  15.247  13.509  0.1038  0.2315 -0.1354
50659W        W93675   3.468  13.768   8.965  0.2076  0.1076  0.1566
50660W        W93676   5.998  18.854  14.357  0.1124  0.1960 -0.0130
50661W        W93677  31.091  27.108  21.243  0.3805 -0.0468  0.2043
50662W        W93678  28.218  17.385   3.561  0.2204  0.0603 -0.0400
50663W        W93679   4.255  17.791  15.128 -0.1009 -0.1141  0.1542
50664W        W93680  30.187  11.607   4.326  0.0977  0.0303  0.2330
50665W        W93681  26.802   2.122   6.549  0.1148 -0.0825  0.0262
50666W        W93682   2.971   7.141  26.631 -0.0822 -0.0695 -0.2997
50667W        W93683   5.422   8.857   4.176  0.0872  0.0834  0.0371
50668W        W93684   8.146  16.846  23.479 -0.3933 -0.0966  0.1208
50669W        W93685  27.347  17.566  14.801 -0.3225  0.3171  0.0831
50670W        W93686  31.158  31.999  20.909 -0.0191 -0.1431 -0.2640
50671W        W93687  32.554   2.507  23.067  0.3852  0.0860  0.1079
50672W        W93688  20.437   9.884  25.624 -0.1777 -0.0640 -0.0425
50673W        W93689  12.547  11.976  16.749 -0.4002  0.0088  0.0369
50674W        W93690  29.325  15.256   2.231  0.0057 -0.0517  0.0542
50675W        W93691  28.763  15.195  28.996 -0.0511 -0.0072  0.0904
50676W        W93692   2.873   8.186  19.447  0.1600 -0.0403  0.0037
50677W        W93693   1.923   6.046  15.371 -0.2604  0.0073 -0.1266
50678W        W93694  23.077  15.394   2.004 -0.0154 -0.0336 -0.1777
50679W        W93695  30.004   6.978   4.371  0.0581  0.1938 -0.2348
50680W        W93696  31.964   4.975   7.846 -0.2401  0.0566 -0.0923
50681W        W93697  32.516   3.925  25.165  0.0804 -0.1176  0.2226
50682W        W93698  22.965  16.831  23.942  0.2050 -0.0654 -0.3027
50683W        W93699  20.373  29.225   9.305 -0.1478  0.3020  0.0181
50684W        W93700  32.915  20.661  19.824  0.0091 -0.0608 -0.1814
50685W        W93701  29.831  18.755  28.872  0.1332 -0.3248  0.0322
50686W        W93702   1.651  25.090   9.753  0.1419  0.1020  0.2929
50687W        W93703   4.820   5.868  22.719 -0.1370 -0.0248 -0.2200
50688W        W93704  27.636  18.444  15.533  0.0340 -0.1752 -0.4563
50689W        W93705  32.365   7.732  27.432 -0.2910  0.2675 -0.1319
50690W        W93706  25.459  17.195  21.289 -0.0258  0.0490 -0.0651
50691W        W93707   1.265  19.813  17.032 -0.0981 -0.1751 -0.2409
50692W        W93708   3.947  27.499  27.323 -0.2773 -0.0958 -0.2127
50693W        W93709  23.992  11.314   7.168  0.5102 -0.0330 -0.2524
50694W        W93710  26.079  24.714   7.159  0.1448 -0.1762  0.1767
50695W        W93711   0.478  10.351   6.458  0.3770  0.1693 -0.1417
50696W        W93712  34.127   1.016  10.711 -0.1255  0.3451  0.0326
50697W        W93713  21.725  22.013  26.726 -0.0045 -0.2922  0.1003
50698W        W93714  23.049  18.351  25.479  0.2659  0.2555  0.1501
50699W        W93715  29.860  16.898   9.724  0.2388 -0.0593  0.0748
50700W        W93716   3.220  13.183   1.153  0.0880  0.1040 -0.1232
50701W        W93717  30.767   9.529  25.806  0.0119  0.0998  0.1119
50702W        W93718   2.684  20.512   7.107 -0.2179 -0.0564 -0.0755
50703W        W93719   8.574  23.032   1.447 -0.3386 -0.2610  0.2135
50704W        W93720  28.595  12.385  25.115 -0.3034 -0.0802 -0.1279
50705W        W93721   9.700  10.818   0.197 -0.1752  0.1287 -0.3129
50706W        W93722   5.552   7.489  27.286  0.0739 -0.1018  0.0801
50707W        W93723  30.319  16.863   9.539  0.0475  0.0981  0.0793
50708W        W93724  33.994  20.228   9.206 -0.1573  0.1979 -0.1077
50709W        W93725  30.403  18.497  22.411  0.0165  0.2853 -0.0616
50710W        W93726  10.452   6.806  25.146  0.4215  0.3422 -0.1337
50711W        W93727  25.288  17.276  29.012 -0.1823 -0.0244  0.0391
50712W        W93728  23.969  16.589  14.510 -0.0289 -0.3725 -0.0151
50713W        W93729   1.546  31.677  29.120  0.0146  0.2704  0.1429
50714W        W93730  29.896  15.782  15.181  0.0645  0.0924  0.1019
50715W        W93731   7.730  17.035   5.381  0.2347  0.1388  0.1130
50716W        W93732  21.955  18.522   7.633  0.2381 -0.2098 -0.0443
50717W        W93733   4.605   5.069   1.450 -0.0596 -0.0883  0.2894
50718W        W93734  34.488  21.789  10.140  0.2211  0.1057  0.1416
50719W        W93735  30.491  25.745   2.841  0.2094 -0.0936 -0.2376
50720W        W93736  28.592  33.689   3.558 -0.0952  0.3653  0.0770
50721W        W93737  14.666  28.907  22.925  0.0597 -0.0543  0.2454
50722W        W93738   5.176   8.960  19.751 -0.2975 -0.4898 -0.0685
50723W        W93739  28.536  18.459   1.001 -0.2824  0.2017  0.0938
50724W        W93740   4.311  17.159  21.262  0.0241  0.3386  0.0200
50725W        W93741  26.235  20.623  16.091  0.1150 -0.3320 -0.0922
50726W        W93742   3.982  32.696  25.445 -0.2112  0.1177  0.3350
50727W        W93743  21.451  15.091  14.849 -0.2347  0.3835 -0.0598
50728W        W93744   8.082  22.764   5.383 -0.0357 -0.0403  0.1514
50729W        W93745   0.772  29.217  26.121  0.3729  0.1524  0.2283
50730W        W93746  18.103  32.332  27.681 -0.0035  0.1765  0.1423
50731W        W93747   4.381   7.918  18.007 -0.1681  0.2343 -0.0230
50732W        W93748  32.051   8.148  27.301 -0.1685  0.0682  0.2179
50733W        W93749   9.355   5.154   0.754 -0.1657  0.2942 -0.0755
50734W        W93750  34.358  10.802   1.303 -0.1220 -0.0159  0.3416
50735W        W93751  24.322  13.674   2.637  0.0979  0.1212  0.0659
50736W        W93752  28.011  19.973  28.001 -0.1161  0.0252  0.0610
50737W        W93753   0.759  22.985   4.577  0.0343 -0.0286 -0.1453
50738W        W93754  11.243   4.865   1.140 -0.0725 -0.1046 -0.0217
50739W        W93755  17.401  12.741  24.025  0.1403  0.2668 -0.1945
50740W        W93756   5.916  17.457  16.070 -0.1201  0.1003 -0.0983
50741W        W93757   1.590  17.952  25.790 -0.0717 -0.4336 -0.0113
50742W        W93758  30.308  19.907  19.999 -0.1065 -0.0633 -0.0657
50743W        W93759  28.949  21.367   9.787  0.4383 -0.0116 -0.0136
50744W        W93760  31.655  19.683   4.927  0.0660 -0.2158  0.3198
50745W        W93761  27.694  14.743  19.756  0.1677  0.2109 -0.3199
50746W        W93762  14.319  19.132  12.319  0.3916 -0.0389  0.0362
50747W        W93763  29.325   3.037  24.447 -0.1160  0.4514  0.0052
50748W        W93764   1.525  28.472  22.892  0.2089 -0.0341  0.1464
50749W        W93765   4.906  14.009   0.989  0.1013  0.5839  0.2529
50750W        W93766   2.289  18.622  26.246  0.0404  0.0416  0.2547
50751W        W93767   6.282  25.150  20.837 -0.3588  0.2401 -0.2503
50752W        W93768   6.576  32.548  22.187 -0.1993 -0.0549  0.1160
50753W        W93769   7.173  24.012  26.575 -0.4234 -0.0499  0.0694
50754W        W93770   9.975  16.544   5.581 -0.2836 -0.1835  0.2456
50755W        W93771   3.761  13.213  15.317 -0.0027  0.0714 -0.0236
50756W        W93772  32.836  26.526  20.129 -0.0401  0.2134 -0.0821
50757W        W93773  30.245  12.997  16.083 -0.2032 -0.1545 -0.2132
50758W        W93774  24.985  22.790  16.210  0.2162 -0.0508  0.0987
50759W        W93775  12.480  19.433  13.660  0.3097  0.4045  0.0450
50760W        W93776  33.134  21.993  25.028  0.1044 -0.4278 -0.4892
50761W        W93777   6.251  12.694  23.872 -0.1073  0.0345 -0.1314
50762W        W93778   4.604  20.918  24.763 -0.0546 -0.3737  0.2251
50763W        W93779  26.231  21.350  25.170 -0.2210  0.2017 -0.2314
50764W        W93780  33.028  28.621  29.064 -0.4607  0.0061 -0.1863
50765W        W93781   4.455   0.072  21.459 -0.1185 -0.0354 -0.5868
50766W        W93782  29.382  32.153  25.505 -0.1460  0.3539  0.1022
50767W        W93783   3.786  23.847  19.187 -0.1825 -0.0963 -0.2563
50768W        W93784   6.324  11.680  23.320  0.0965 -0.3336 -0.1480
50769W        W93785  29.520  17.833  23.879  0.2180 -0.1090 -0.1137
50770W        W93786  23.403  21.553  21.923  0.5021 -0.2178 -0.0544
50771W        W93787  11.042  22.780  14.000  0.0187  0.0969  0.0710
50772W        W93788  34.663  29.437  19.050 -0.2384 -0.1096  0.0214
50773W        W93789  19.979   9.321  24.388 -0.2948 -0.3967 -0.0656
50774W        W93790   5.375  23.128  14.966 -0.2012  0.2427 -0.0849
50775W        W93791  21.673  19.277  14.578 -0.1168 -0.0493  0.0859
50776W        W93792  31.044  17.162  25.484  0.1311  0.4146 -0.0427
50777W        W93793  23.307  29.397  20.749 -0.0343 -0.2033 -0.0609
50778W        W93794   2.239  22.436  19.362  0.0192 -0.0627 -0.0540
50779W        W93795   0.065  29.926  19.830 -0.0134  0.1525 -0.0582
50780W        W93796  18.396   1.107  26.745 -0.3105 -0.1412  0.1730
50781W        W93797  33.792   1.506  24.649  0.0157 -0.1479 -0.1137
50782W        W93798   6.013  14.923  15.333  0.0310  0.0398 -0.0704
50783W        W93799  34.042  15.372   5.221  0.1890  0.1947 -0.1285
50784W        W93800   8.307  14.519  18.528 -0.0701 -0.1901 -0.2456
50785W        W93801  27.946  21.659  26.357  0.2163  0.2746 -0.0669
50786W        W93802  32.108   2.634  17.045 -0.0083  0.0470 -0.3110
50787W        W93803   2.188  22.267  15.359 -0.1794 -0.0581  0.0959
50788W        W93804   0.601   7.300  27.532 -0.0366  0.2022 -0.1528
50789W        W93805  15.900  25.527  23.253  0.2356  0.0217  0.0057
50790W        W93806  28.388   9.512  27.115  0.0372  0.0292  0.1845
50791W        W93807  19.293  30.521  15.711 -0.0985 -0.0947  0.0130
50792W        W93808  19.759  12.567  16.814 -0.0721 -0.0392 -0.1517
50793W        W93809  21.130  18.380  24.636  0.2653 -0.2371  0.2280
50794W        W93810  30.154  17.434  20.948  0.2090  0.0204  0.2588
50795W        W93811   8.469   9.906  25.395  0.0916 -0.0567 -0.3070
50796W        W93812  20.428  21.952  29.035  0.0238 -0.0890 -0.1476
50797W        W93813  28.517  29.696   2.425 -0.0096 -0.0466  0.1658
50798W        W93814  14.716  33.770   2.279  0.0459  0.1089 -0.0808
50799W        W93815  17.049  24.108   6.469 -0.2291 -0.2618 -0.0661
50800W        W93816  32.458  14.942  24.830  0.1860 -0.0527  0.3882
50801W        W93817   2.683  20.230  28.460 -0.5965 -0.1299 -0.1563
50802W        W93818   5.677  15.077  22.788  0.1423  0.1376 -0.3757
50803W        W93819  11.140  20.939  26.166  0.0425  0.0714  0.1781
50804W        W93820  28.385   4.468  20.501 -0.2242 -0.1828  0.2898
50805W        W93821   3.236  22.732  28.278 -0.1975 -0.0881 -0.0181
50806W        W93822  30.806  12.472  16.738  0.0266  0.0975  0.0085
50807W        W93823  32.998  28.063  25.454 -0.1487  0.1098  0.1070
50808W        W93824  26.100  11.706  14.476 -0.1468 -0.2661 -0.2535
50809W        W93825  33.969   4.246  20.632 -0.0847  0.1947 -0.0416
50810W        W93826  15.674  29.251  20.386 -0.1001  0.3563 -0.1118
50811W        W93827  31.824  25.635  28.835 -0.2295  0.1267  0.0062
50812W        W93828  12.292  21.681  17.811 -0.1559  0.1067 -0.2655
50813W        W93829   9.804  25.029  24.076 -0.0105 -0.1278  0.0983
50814W        W93830  26.228  28.536  26.455 -0.4440 -0.0178 -0.0731
50815W        W93831  33.023  11.746  14.209  0.2596 -0.2102  0.0462
50816W        W93832  33.233   6.849  18.841 -0.2989 -0.0074 -0.1053
50817W        W93833  32.672  24.392   6.345 -0.0135 -0.2079  0.1454
50818W        W93834  10.524  24.749  23.007 -0.0436 -0.2246  0.0301
50819W        W93835   5.989   5.627  15.481  0.0854  0.1238 -0.1751
50820W        W93836  29.482   3.786  27.427  0.1673 -0.0345  0.0562
50821W        W93837   5.923  30.487  20.194 -0.0438  0.3099 -0.0264
50822W        W93838  21.809   3.662  19.142  0.0928  0.1824 -0.3865
50823W        W93839   4.938   1.389  18.444 -0.0038  0.3969 -0.1215
50824W        W93840   5.383  24.724  24.800  0.1063  0.1487 -0.1011
50825W        W93841  31.062   1.150  20.309  0.0982  0.2639 -0.2582
50826W        W93842  30.890  15.432  21.618  0.1434 -0.0099  0.1873
50827W        W93843  26.229  17.984  17.323  0.3938  0.2612  0.1611
50828W        W93844  14.860  31.089  25.999 -0.0947  0.1272 -0.1377
50829W        W93845  34.361  25.837  26.339  0.0277 -0.0455 -0.1260
50830W        W93846  25.084   6.435  20.331 -0.0078 -0.0094  0.1993
50831W        W93847  15.156  21.178  14.586 -0.0381 -0.0729  0.0842
50832W        W93848   1.365  19.050  22.111 -0.1662  0.0498  0.2980
50833W        W93849  33.954  15.475  14.575  0.0936  0.0097  0.2153
50834W        W93850   9.804   3.645  17.568 -0.4944 -0.1296 -0.2359
50835W        W93851   1.319  26.004  14.226 -0.1660 -0.0601  0.1444
50836W        W93852  33.005   2.154  18.176  0.1607  0.0224  0.0810
50837W        W93853  26.883  18.551  19.382 -0.1964 -0.2075 -0.2883
50838W        W93854   7.302  27.635  13.502 -0.0695 -0.1292 -0.0175
50839W        W93855  32.082   5.471  23.679  0.3421  0.0917  0.0369
50840W        W93856  31.512  26.863  17.357 -0.3618 -0.2100  0.2356
50841W        W93857   3.471  22.495  15.907  0.0941 -0.5284  0.0221
50842W        W93858  13.328   1.656  14.757 -0.1405 -0.2655 -0.1262
50843W        W93859  31.205  18.747  17.379  0.0746 -0.0741  0.0992
50844W        W93860   1.769  14.949   1.327  0.1486 -0.0631  0.0322
50845W        W93861   0.834  23.963   7.824  0.1976 -0.3601  0.0926
50846W        W93862  30.175   3.909  15.632  0.1305  0.0203 -0.0874
50847W        W93863   0.782  24.207   1.470 -0.0135  0.2253 -0.2211
50848W        W93864  23.886  19.525  19.282 -0.0490  0.2509  0.0358
50849W        W93865   1.242  13.968  17.048  0.0190 -0.2742  0.0742
50850W        W93866  29.107   9.811   7.868  0.0274 -0.0324  0.2109
50851W        W93867  11.969  23.454  26.725  0.3140  0.2130  0.0622
50852W        W93868  22.768   9.242  13.823 -0.1660 -0.1167 -0.0500
50853W        W93869   0.106   3.654  18.694 -0.1892  0.2413  0.4323
50854W        W93870  27.340  12.547  19.693 -0.2126 -0.1915  0.1374
50855W        W93871  15.423  14.858   5.408 -0.0034  0.0093 -0.0232
50856W        W93872   3.980  26.203  16.178 -0.0389 -0.0677 -0.2808
50857W        W93873  24.015   4.400  20.891 -0.1524  0.0884 -0.0418
50858W        W93874   6.533  19.643  23.004 -0.1344  0.1027 -0.2184
50859W        W93875   5.691  28.925   3.463 -0.0451  0.2989 -0.2699
50860W        W93876   4.131  31.775  21.362 -0.1804  0.0719  0.0458
50861W        W93877  25.050  15.779  22.898  0.0999 -0.2554  0.1198
50862W        W93878   2.469  12.223  27.986  0.2591 -0.0667 -0.1101
50863W        W93879  30.692  25.760  19.923 -0.0017  0.0186 -0.1565
50864W        W93880  31.565  16.219  23.375  0.0135  0.3736  0.3448
50865W        W93881  29.835  15.542  21.439  0.1193 -0.0077  0.0942
50866W        W93882   5.176  12.700  26.101  0.1017 -0.1605  0.0825
50867W        W93883  32.335  18.074  28.437  0.0740 -0.0287  0.0733
50868W        W93884   6.260  16.963  20.433 -0.0207  0.0223  0.2434
50869W        W93885   1.584  10.545   2.934  0.0268 -0.0700 -0.0252
50870W        W93886  22.656   1.239   8.038  0.0697 -0.2365 -0.3380
50871W        W93887  33.726  24.916   0.276  0.1356 -0.1685  0.1930
50872W        W93888  33.135   7.782  23.773 -0.1281  0.1467  0.0085
50873W        W93889  29.762   5.034  18.479  0.0080 -0.2565 -0.3223
50874W        W93890  11.783  27.734  17.844 -0.1743 -0.2892 -0.1740
50875W        W93891   7.711  21.396  25.175  0.1945  0.2948 -0.2534
50876W        W93892  11.197  18.494  20.085 -0.1309 -0.0792 -0.2036
50877W        W93893  31.449  19.234   1.913  0.1041 -0.0261 -0.0594
50878W        W93894   0.010  18.963  17.976 -0.2265 -0.0453 -0.3325
50879W        W93895  27.348  21.840  20.529  0.0658  0.1137 -0.1049
50880W        W93896   3.330  17.747  14.784  0.0193 -0.0102  0.2981
50881W        W93897   5.185  20.652   5.405  0.2541  0.2845 -0.1742
50882W        W93898   9.485  17.333  20.288  0.0656  0.2477 -0.0692
50883W        W93899   4.975   2.491  19.506  0.3587  0.1551 -0.0025
50884W        W93900  31.004  23.476  18.596  0.0228  0.1153  0.0665
50885W        W93901  25.780  24.804  23.904  0.0635 -0.0359 -0.2581
50886W        W93902  29.017   0.249  17.831 -0.0317 -0.0521  0.0417
50887W        W93903   4.897  13.561  21.600 -0.0599  0.1834 -0.1545
50888W        W93904   8.058  17.986   4.530 -0.0275  0.1276  0.0493
50889W        W93905  10.175  12.367  16.127  0.0977 -0.1558 -0.1753
50890W        W93906  30.266   0.901  17.343  0.2980 -0.1490  0.1295
50891W        W93907  29.797  31.312   1.881 -0.0355 -0.1498 -0.1289
50892W        W93908  32.163  17.555  27.716 -0.2280 -0.2822  0.1003
50893W        W93909  33.714  17.424  15.560  0.1496  0.1006  0.1352
50894W        W93910  20.287   1.395  21.043 -0.1651 -0.0407 -0.0365
50895W        W93911  30.361   7.707  25.685  0.1475  0.0223  0.0113
50896W        W93912  27.762   4.205  17.890  0.1059 -0.0527  0.2197
50897W        W93913  27.987  17.380  23.433 -0.0943  0.1376 -0.0261
50898W        W93914  28.949   8.653  20.149  0.3299 -0.3473  0.2547
50899W        W93915  19.767  24.472  26.115  0.0991  0.0661  0.0578
50900W        W93916  27.954   0.934  21.739  0.1450 -0.3406 -0.1586
50901W        W93917  13.404  11.238  13.467  0.1242 -0.1305  0.0113
50902W        W93918  31.727  14.629  21.858 -0.3781 -0.0860 -0.1479
50903W        W93919  28.385  17.495  17.865 -0.1812 -0.0203 -0.0152
50904W        W93920   0.590  16.713  25.602  0.2254 -0.2325 -0.5592
50905W        W93921  32.556  15.987  16.961  0.1230 -0.1791 -0.0824
50906W        W93922   0.162  23.205   3.095 -0.1531 -0.0221 -0.0593
50907W        W93923  22.524  29.829  25.181 -0.5563  0.1801  0.0956
50908W        W93924  27.830  26.291   1.792  0.1261 -0.2577 -0.0346
50909W        W93925  12.973   7.406  20.777  0.1860 -0.1963 -0.1274
50910W        W93926   6.094  17.896   0.293 -0.1099 -0.1205 -0.0039
50911W        W93927   2.009  13.209  23.979  0.1020 -0.1793  0.0233
50912W        W93928  17.293   4.785  15.486  0.1682  0.0030  0.2526
50913W        W93929  18.169  12.730  13.679 -0.0744  0.0825 -0.1132
50914W        W93930  33.663  14.019  28.432  0.0900 -0.6384  0.2018
50915W        W93931  30.845   4.530  22.547 -0.3246  0.0390  0.1242
50916W        W93932   1.673  24.756  24.088 -0.2846 -0.0706  0.2309
50917W        W93933  22.011  23.988  17.975 -0.0026 -0.2447  0.0904
50918W        W93934   1.632  14.599   4.405  0.2633  0.0639  0.0591
50919W        W93935  11.757  17.358  12.952 -0.1976  0.1611 -0.0516
50920W        W93936   3.344  26.201  14.085  0.3186  0.5196  0.3083
50921W        W93937  19.642  27.703  21.062 -0.1615 -0.1263 -0.2923
50922W        W93938  28.046   0.235  15.813  0.1633 -0.1579 -0.1377
50923W        W93939   2.099  22.144  14.071  0.0026  0.4048 -0.0578
50924W        W93940  12.424  30.631  16.669  0.0167 -0.2802  0.0223
50925W        W93941   0.112  14.583  17.669  0.2021 -0.1460 -0.2577
50926W        W93942  13.687  12.064  25.912  0.1219  0.2205  0.0881
50927W        W93943  29.854  16.647  20.051 -0.1421 -0.0828 -0.1674
50928W        W93944  30.714   2.419  17.736  0.3358 -0.3269  0.2950
50929W        W93945   5.368  16.515  21.881 -0.1566 -0.0329  0.0813
50930W        W93946  18.960  31.994  23.127  0.1083  0.2317  0.2383
50931W        W93947  32.497   9.394  23.244  0.3133 -0.3177 -0.0467
50932W        W93948   8.138  30.121   1.744  0.2160  0.1295 -0.1896
50933W        W93949  25.910  12.837   1.421  0.1805  0.2525  0.2088
50934W        W93950   3.938  24.148  18.797  0.2162  0.0655 -0.5192
50935W        W93951  20.698   2.216  22.164  0.3090 -0.0332  0.0210
50936W        W93952   4.115  22.471   4.143 -0.2129  0.3232 -0.2044
50937W        W93953  25.335  22.336  22.144  0.0470 -0.1770 -0.1382
50938W        W93954  15.691  18.501  26.036 -0.1535 -0.0124 -0.2165
50939W        W93955   7.749  34.315  17.521  0.1618 -0.0438  0.1806
50940W        W93956   9.443   6.607  20.606  0.0996 -0.2660  0.0180
50941W        W93957  21.862  25.837   3.328  0.2701 -0.1882 -0.2125
50942W        W93958   1.081  23.302  18.666 -0.0338 -0.1960  0.3098
50943W        W93959  11.027  27.099  20.345 -0.1177 -0.3404  0.3058
50944W        W93960  28.267  24.260  15.557  0.0898 -0.0838 -0.0763
50945W        W93961  10.963  12.898  16.955  0.2336 -0.1647 -0.2541
50946W        W93962  14.664   3.081   3.523  0.0970 -0.2618 -0.1645
50947W        W93963   3.433  18.704  13.779 -0.0039  0.1641  0.1492
50948W        W93964   5.702  28.734  15.458  0.0330 -0.1729  0.1515
50949W        W93965  26.663  31.465  19.748  0.3940  0.4416 -0.2394
50950W        W93966   4.277  22.951  23.359  0.0733  0.1268  0.1289
50951W        W93967   2.505   2.494  22.814  0.1379 -0.0237  0.0127
50952W        W93968  10.966  34.490  14.951  0.1746  0.1057 -0.1152
50953W        W93969  29.406  30.570  17.012  0.0006 -0.2790 -0.3701
50954W        W93970  31.579   5.613   6.601  0.1068 -0.2749  0.0882
50955W        W93971  20.970  15.180  14.646 -0.1171  0.3389 -0.0869
50956W        W93972   3.964  15.336  15.418 -0.1016  0.1461 -0.2632
50957W        W93973  20.664   7.073  14.733 -0.0952  0.1939  0.0713
50958W        W93974   9.047  19.989  20.055  0.0237  0.3005  0.0828
50959W        W93975   0.050  19.710  17.128 -0.1395 -0.0736  0.0253
50960W        W93976  33.117  27.369  18.729 -0.0683  0.0631  0.0532
50961W        W93977   2.148  19.771  26.927  0.0930  0.1081 -0.0166
50962W        W93978   5.520  25.355  22.961  0.1562  0.0516  0.0298
50963W        W93979  25.337  12.177  23.397  0.1183 -0.2523 -0.3025
50964W        W93980   5.235   8.215  22.392  0.2789 -0.0241  0.1326
50965W        W93981  12.672  33.395  17.718  0.0824 -0.0648 -0.1994
50966W        W93982  17.700  26.294   3.156  0.1293 -0.1889 -0.0641
50967W        W93983  20.748  29.466   2.926 -0.3734 -0.0553 -0.2890
50968W        W93984  30.892  21.097   3.978 -0.3596 -0.1549 -0.1345
50969W        W93985   4.360  15.910  22.388 -0.0568 -0.2088  0.0501
50970W        W93986  26.061   8.062  26.671  0.2260 -0.0431 -0.4156
50971W        W93987  20.337  29.575  16.594 -0.1196  0.0269 -0.0125
50972W        W93988   5.176  11.482  21.297 -0.0176 -0.1170  0.0222
50973W        W93989   1.318  22.084  26.064  0.2523 -0.1197 -0.2519
50974W        W93990   0.838  10.595  16.010 -0.0054 -0.0755 -0.0478
50975W        W93991   4.806  25.002  25.713 -0.0402 -0.0996 -0.1613
50976W        W93992  10.609  22.486  23.621  0.0531  0.1803 -0.1372
50977W        W93993   0.266  18.075   3.444 -0.1791  0.2721 -0.0039
50978W        W93994   2.254  20.392  28.720 -0.1312  0.0448 -0.2110
50979W        W93995  32.612  22.712  14.864  0.2031  0.2164 -0.1550
50980W        W93996  15.508  21.916  26.296 -0.0331 -0.1757 -0.0853
50981W        W93997  19.959  22.497  17.682 -0.0568  0.0909 -0.4561
50982W        W93998  32.055  24.171  24.371 -0.1511 -0.1009 -0.1301
50983W        W93999  20.225  26.792  17.736  0.1906  0.0363 -0.3994
50984W        W94000   8.460  31.871  28.016  0.1971 -0.2684 -0.3520
50985W        W94001   0.377  32.619  15.081 -0.0302  0.1176 -0.3197
50986W        W94002  23.753   8.290  22.793 -0.4028  0.1587 -0.2106
50987W        W94003   1.420  24.578  18.466  0.0329 -0.1819 -0.2472
50988W        W94004   9.381  15.849   8.629  0.0690  0.4065  0.1723
50989W        W94005  26.806  26.227  17.261 -0.1457 -0.0295 -0.1154
50990W        W94006  32.356  21.958  17.612 -0.1106 -0.1148 -0.1906
50991W        W94007  20.042   8.319  21.687  0.1184  0.0666 -0.1442
50992W        W94008  22.574  18.055  16.611 -0.0266 -0.0893  0.0741
50993W        W94009  25.761   6.076  19.935  0.0014  0.0462 -0.1161
50994W        W94010  28.811  29.950  28.150  0.1928 -0.1849  0.0171
50995W        W94011  29.225  11.838  16.286  0.1404 -0.0588  0.1172
50996W        W94012  16.664  11.282  22.524 -0.3060 -0.0296 -0.1987
50997W        W94013  20.478  17.928  13.734 -0.0466  0.1748  0.0894
50998W        W94014  30.439  27.993  19.537 -0.0630 -0.1354 -0.0673
50999W        W94015  33.108  13.417  16.350 -0.0482 -0.1130 -0.1581
51000W        W94016  27.444   4.035   3.944  0.1909 -0.4597  0.0187
51001W        W94017   3.302  27.096   4.569  0.1553 -0.2337 -0.2782
51002W        W94018  21.560  24.210  22.286 -0.2950 -0.1167  0.0554
51003W        W94019   6.752   6.587  22.630 -0.3051  0.1062  0.1047
51004W        W94020   5.604  16.981  27.811  0.0454 -0.2725 -0.1301
51005W        W94021  30.670  23.599  15.369  0.1438 -0.2146  0.0439
51006W        W94022   5.328   9.666  20.247  0.1183 -0.0555  0.1101
51007W        W94023  33.693  17.819  17.763  0.1482 -0.2483  0.0139
51008W        W94024  27.386  25.825  23.833  0.1394  0.0360 -0.0796
51009W        W94025  24.341  19.643  24.053  0.0986  0.1806 -0.3857
51010W        W94026   2.851  12.748  28.051  0.3359  0.2113  0.0091
51011W        W94027  24.899  12.308  28.029  0.2131  0.0479 -0.1847
51012W        W94028  33.735  10.551  16.259  0.0206  0.2212 -0.1070
51013W        W94029  30.183  19.670  28.137  0.4049 -0.0224  0.3041
51014W        W94030  11.229  10.218  18.561  0.1327  0.1244 -0.2202
51015W        W94031   5.559  34.355  16.862 -0.0475  0.6875  0.1570
51016W        W94032  11.772  10.882  20.404  0.1536  0.1194  0.0855
51017W        W94033   4.980  24.356  16.177 -0.1572 -0.0922 -0.1465
51018W        W94034  27.411  24.242   4.560  0.2440  0.1281  0.1388
51019W        W94035  30.949  19.270  21.475 -0.2347 -0.2261  0.2701
51020W        W94036  21.166  29.591  20.836 -0.3452 -0.0004  0.2935
51021W        W94037   9.949   6.809  18.474  0.1264  0.0022  0.0180
51022W        W94038   7.934  28.544  24.409 -0.0944 -0.0567  0.0856
51023W        W94039   5.000  23.538   5.622  0.0922 -0.6443 -0.0875
51024W        W94040   8.386  29.643  19.028 -0.0915  0.1367  0.0963
51025W        W94041   4.274  16.781  19.524 -0.0876 -0.0019 -0.3787
51026W        W94042  12.026  20.043  21.411 -0.2913 -0.1251 -0.0415
51027W        W94043  31.876  31.795  18.803 -0.1164 -0.1511  0.1577
51028W        W94044   1.986  19.233  26.702  0.1805 -0.1216  0.2543
51029W        W94045  28.644   7.623  23.393  0.0854  0.0779 -0.1391
51030W        W94046  15.619  28.109  26.007 -0.1551 -0.2271  0.4579
51031W        W94047  27.672  23.600  17.076 -0.0099 -0.2287  0.1824
51032W        W94048   9.672  23.162  14.038 -0.0286  0.0952 -0.4962
51033W        W94049  14.383   7.776  22.800  0.0091  0.2938  0.1448
51034W        W94050  19.856  16.433  22.866 -0.0317  0.1952  0.1513
51035W        W94051   1.631  20.544   9.101  0.2304  0.0104  0.2457
51036W        W94052  33.844  23.985  27.420  0.0950 -0.0790  0.1662
51037W        W94053  24.775  10.518  14.930  0.1249  0.1389 -0.3076
51038W        W94054  11.474  28.823   2.425  0.1456  0.0296 -0.0362
51039W        W94055  12.302  33.130   3.313  0.0748 -0.0940  0.0914
51040W        W94056  32.444  18.823  14.591  0.0395 -0.0107 -0.1532
51041W        W94057  31.710  24.668   2.601 -0.1742 -0.0093  0.2522
51042W        W94058  25.995  16.904  27.037 -0.2140 -0.2986  0.1196
51043W        W94059  24.126  24.200  18.757  0.1122 -0.0119 -0.2068
51044W        W94060   1.750   8.191  26.579  0.1135 -0.4480  0.4013
51045W        W94061  31.535  31.166  21.262 -0.1718 -0.0081 -0.3073
51046W        W94062   7.308  28.429  18.075  0.0775  0.2405  0.0939
51047W        W94063   7.495  17.944  16.485 -0.0287  0.0235  0.2434
51048W        W94064  30.658  22.387  20.089  0.2586 -0.0041 -0.1137
51049W        W94065   1.947  29.427  20.642  0.1145 -0.1794 -0.0584
51050W        W94066   2.832  18.957   0.797 -0.1199 -0.0308 -0.1322
51051W        W94067  26.451  24.593  17.257 -0.2785 -0.0228 -0.0079
51052W        W94068  29.598   9.542  20.206  0.0970  0.2673  0.1253
51053W        W94069  10.709  23.598  13.266  0.2245 -0.0639 -0.1758
51054W        W94070  25.709   6.605  16.008  0.0835 -0.0987 -0.0720
51055W        W94071   7.495  19.702  23.369 -0.2803  0.1444  0.1891
51056W        W94072  32.724  22.361  25.299  0.0839  0.1787 -0.1325
51057W        W94073  13.747   3.359  15.836  0.2657  0.3156 -0.0725
51058W        W94074  27.897  15.667  20.078  0.2375 -0.1942 -0.2080
51059W        W94075  33.738  30.208  16.217  0.1909  0.0999  0.2331
51060W        W94076  18.269  30.375  16.354 -0.0277  0.4439 -0.2621
51061W        W94077  30.672  31.752  15.665  0.1008 -0.0913 -0.2964
51062W        W94078   1.154  23.338  15.591  0.2356 -0.2116 -0.4006
51063W        W94079  32.855  12.831  21.860 -0.3206 -0.0656 -0.0768
51064W        W94080  10.808  11.795   5.883 -0.4172  0.1130 -0.1733
51065W        W94081   3.811  14.726  28.753  0.3733 -0.0268 -0.3674
51066W        W94082  29.275  14.585  24.415 -0.2824 -0.3304  0.0086
51067W        W94083  32.660  24.320  17.414 -0.2055 -0.1208  0.1225
51068W        W94084   1.481  10.021  20.823 -0.1492  0.1429 -0.0129
51069W        W94085  34.108  12.947  25.536 -0.2439  0.0760 -0.1379
51070W        W94086   3.756  15.318  21.103  0.2529  0.3063  0.0909
51071W        W94087  32.659  31.133  19.773  0.2238 -0.2738 -0.1254
51072W        W94088   8.126  20.567  25.789 -0.2169 -0.1333  0.1228
51073W        W94089   1.702   2.646  16.946 -0.3679  0.0958 -0.1587
51074W        W94090   5.608  32.015  16.245 -0.0090  0.0005  0.1330
51075W        W94091  31.434   9.320  17.418  0.0643  0.0844  0.2200
51076W        W94092   3.523   6.111  20.422  0.1113 -0.0128 -0.2279
51077W        W94093  16.314  14.953  12.075 -0.1252  0.0357 -0.2273
51078W        W94094  33.422   0.430  19.492 -0.0317  0.0941  0.0584
51079W        W94095   4.629  16.065  15.717 -0.2017 -0.2309 -0.2323
51080W        W94096  30.624  15.539   1.280 -0.1137  0.1445  0.0089
51081W        W94097  11.219  21.810  14.937 -0.1201  0.2513  0.0456
51082W        W94098  33.942  15.303  15.302 -0.3341  0.4560  0.0490
51083W        W94099   3.655  28.689  15.341  0.0416 -0.2240 -0.1469
51084W        W94100  22.859   8.146  20.122  0.2188  0.2112  0.3879
51085W        W94101  10.048  22.454  18.045 -0.2486 -0.0286 -0.1413
51086W        W94102  32.050  21.560   3.078 -0.1808  0.0817 -0.0971
51087W        W94103  31.116  14.940  15.012 -0.1764 -0.2233  0.1298
51088W        W94104  34.213   9.209  28.032  0.2382  0.1112  0.1276
51089W        W94105  28.267  31.414  27.672 -0.2976  0.1532 -0.1304
51090W        W94106  13.613  30.159  19.997 -0.0258  0.0605 -0.0327
51091W        W94107  30.827   6.239   3.412 -0.0084 -0.1127  0.3310
51092W        W94108   4.643  24.874  16.391  0.0237  0.0416 -0.1912
51093W        W94109   5.973  19.420  23.176 -0.1913  0.0005 -0.1144
51094W        W94110  12.434   2.909  19.114  0.0760  0.0365  0.1185
51095W        W94111   2.110  10.684  14.139 -0.3954  0.4174 -0.0930
51096W        W94112  20.367  26.556  22.421 -0.1562  0.0165 -0.0529
51097W        W94113   3.927  19.178  18.157  0.1914  0.0912 -0.1562
51098W        W94114  32.172  28.955   2.855 -0.0002  0.0329 -0.2786
51099W        W94115  23.579  23.208  16.930  0.1133 -0.4156 -0.1626
51100W        W94116   3.508  12.232   1.142 -0.3339 -0.1383 -0.4703
51101W        W94117  33.554  16.169  29.130 -0.1218 -0.0116  0.1043
51102W        W94118  31.243  15.289  25.898  0.0993 -0.0592 -0.2288
51103W        W94119  28.577  21.712  19.067 -0.0600 -0.1837 -0.0265
51104W        W94120   1.955  26.642  25.671  0.1120 -0.2590 -0.1043
51105W        W94121   0.085   1.211  23.516 -0.1323  0.2668 -0.4597
51106W        W94122  25.154   8.817  20.577  0.1044 -0.1726 -0.3164
51107W        W94123  29.300  33.491   3.777 -0.2709 -0.1619  0.0496
51108W        W94124  28.571  18.359  18.039  0.2417  0.1192 -0.2567
51109W        W94125  13.826  29.505  14.414  0.3363  0.6083 -0.2145
51110W        W94126  23.072  11.018  23.068 -0.1023  0.0835  0.0736
51111W        W94127   1.398  20.272  18.913 -0.0888  0.0188  0.0996
51112W        W94128  34.440   0.572   9.151  0.0404 -0.2165 -0.1023
51113W        W94129  27.699   7.477  20.473  0.0693 -0.0946 -0.1238
51114W        W94130   2.990  24.056  24.317 -0.2099  0.0435 -0.1280
51115W        W94131  25.078  22.951   6.860  0.1993  0.0013  0.0587
51116W        W94132   7.613  24.420  25.674  0.2806 -0.0479  0.1334
51117W        W94133  12.143   1.427  29.277 -0.0328  0.2168 -0.0628
51118W        W94134   1.435  13.371  24.715 -0.3473  0.2841 -0.0540
51119W        W94135  21.518  28.571  17.077 -0.1727  0.5491 -0.0862
51120W        W94136   0.833  30.126  17.627 -0.1264  0.0977 -0.2455
51121W        W94137   6.736  28.164   2.567  0.1012  0.0251  0.1720
51122W        W94138   2.364  15.481  15.688 -0.1050  0.0096  0.1351
51123W        W94139   3.165  26.138  28.770  0.1104 -0.2546  0.1940
51124W        W94140  33.379   9.467  21.181 -0.0376  0.0122 -0.1577
51125W        W94141  31.386  15.787  14.793  0.2509 -0.0218 -0.1557
51126W        W94142   7.374  26.810  19.795  0.0038  0.0763 -0.2326
51127W        W94143   2.910  17.662   5.491  0.2146  0.2262  0.1112
51128W        W94144  32.136  11.429   2.685  0.2534  0.0693 -0.1545
51129W        W94145  22.748  15.877  13.367  0.0102  0.0830  0.2700
51130W        W94146  33.085  26.785  19.843 -0.2853  0.0071 -0.1140
51131W        W94147   6.389  18.975  16.662 -0.0042  0.0389  0.1012
51132W        W94148  30.352   5.103  24.989  0.1213 -0.2679 -0.4038
51133W        W94149  11.798  10.038  25.842 -0.2784  0.1622 -0.2244
51134W        W94150  25.797  20.069  19.933 -0.0319 -0.1206  0.3361
51135W        W94151   5.257  11.829  26.231  0.0062 -0.2246  0.0075
51136W        W94152  16.795  21.297  14.256 -0.0396  0.0214 -0.0963
51137W        W94153  34.081  26.320  16.939  0.1065  0.1789 -0.2666
51138W        W94154  30.678  13.209  21.387  0.3090  0.1420 -0.2332
51139W        W94155  24.733   7.291  22.346 -0.0992 -0.0598 -0.0142
51140W        W94156   6.755   6.952  18.327 -0.3193 -0.0115 -0.0489
51141W        W94157  28.115  15.557   5.437 -0.2146  0.0821 -0.1857
51142W        W94158  10.957   0.830  24.456  0.0598 -0.0631 -0.0339
51143W        W94159  23.587  31.838  18.479 -0.0628  0.1004  0.0835
51144W        W94160   0.311  19.134  15.932 -0.4438 -0.2658  0.0587
51145W        W94161  32.169  22.125   6.939  0.3762  0.0561  0.2861
51146W        W94162   5.883  29.365  17.564  0.0896 -0.0417 -0.0238
51147W        W94163  29.006  21.372  19.194  0.1767  0.1800  0.1288
51148W        W94164  25.196  10.427  16.133 -0.0054  0.4392 -0.1006
51149W        W94165  11.996  23.003  26.665 -0.1373  0.1370  0.0806
51150W        W94166  22.810   0.115  26.831  0.0385  0.2590 -0.3224
51151W        W94167  30.325   0.442  21.813  0.0632  0.0785  0.0936
51152W        W94168  34.425  30.441  25.249  0.3257  0.2738 -0.0692
51153W        W94169  18.956  20.938  21.849  0.1173  0.4827 -0.3365
51154W        W94170  33.357   3.209  15.931  0.0333 -0.1042  0.1003
51155W        W94171   8.155  30.839  17.776 -0.0014 -0.1219  0.3504
51156W        W94172   4.043   6.305  21.320  0.1122 -0.0461 -0.2464
51157W        W94173  26.537  15.173  16.018 -0.3793  0.2645  0.0522
51158W        W94174   5.916  28.098   3.525 -0.1588  0.1353 -0.1479
51159W        W94175  31.302  22.614   2.423  0.0625 -0.1766  0.0231
51160W        W94176  18.922  22.522  14.901 -0.3697 -0.0088  0.0870
51161W        W94177  28.511  25.446   6.773 -0.1064  0.0599 -0.2645
51162W        W94178   4.759  14.454  18.597  0.0936 -0.1538  0.1612
51163W        W94179  34.653  27.883  25.072 -0.1978 -0.1258 -0.0518
51164W        W94180  33.533  17.442  18.784 -0.3140  0.0531 -0.0065
51165W        W94181   3.391  12.239  24.438  0.1369 -0.1717 -0.3616
51166W        W94182   2.787  24.388  25.942  0.0409  0.1395  0.0110
51167W        W94183  27.039  19.609   2.656 -0.1441  0.0270 -0.1073
51168W        W94184  27.818  11.998  23.222  0.0264 -0.0738 -0.0630
51169W        W94185  25.319  16.248  25.809  0.0704 -0.1236 -0.2405
51170W        W94186  32.205  30.473  25.460  0.0210  0.0521  0.0372
51171W        W94187   1.596  16.829  16.153 -0.1164  0.2308 -0.0847
51172W        W94188   7.870  26.775   1.541 -0.0295 -0.0427  0.0996
51173W        W94189  29.519  13.400  27.752  0.4389  0.1825 -0.0498
51174W        W94190  24.664  18.889   0.244  0.0828 -0.2119 -0.2251
51175W        W94191  30.548  28.473  21.025  0.3586  0.0855  0.2048
51176W        W94192   3.657  22.418  19.107  0.3834 -0.2052 -0.3324
51177W        W94193  11.932  26.269  21.307 -0.1006 -0.0698 -0.4658
51178W        W94194   1.847  14.516  18.900  0.4252 -0.0235 -0.0000
51179W        W94195  23.447  21.010  27.861 -0.0827 -0.0877  0.2483
51180W        W94196  21.001  30.402  25.053 -0.0103  0.2193 -0.2058
51181W        W94197   0.581  21.536  21.051 -0.5472 -0.0611 -0.2497
51182W        W94198  27.357  27.846   5.722 -0.0677 -0.1996  0.1256
51183W        W94199   3.448  20.781  20.107  0.1813 -0.2872 -0.1321
51184W        W94200   1.577  25.521  20.529  0.6067 -0.0728  0.3306
51185W        W94201  30.959  10.803  15.426 -0.2059 -0.0581 -0.2227
51186W        W94202  18.531  16.271  14.085  0.1011  0.2786 -0.0902
51187W        W94203  30.105  22.195  26.594  0.0585  0.0382  0.0637
51188W        W94204   1.300  23.341  25.238  0.2786 -0.2327 -0.1639
51189W        W94205   1.391  27.462  24.452 -0.0123 -0.2218  0.0487
51190W        W94206   0.195  25.724  15.685 -0.3957 -0.3132  0.3157
51191W        W94207  29.805   6.039  18.479  0.2324  0.0029  0.0325
51192W        W94208  23.173  30.775   3.661  0.0803  0.1518  0.1341
51193W        W94209  25.008  15.324  18.499  0.2250 -0.2275 -0.2020
51194W        W94210  31.667  33.851  21.145  0.0705  0.0685  0.1421
51195W        W94211  16.405  17.162  13.519  0.2808  0.1764 -0.0831
51196W        W94212   5.324   4.072  21.084  0.0668  0.1215  0.1043
51197W        W94213  23.359  14.793  29.246  0.0369  0.0171 -0.3014
51198W        W94214   2.603  28.155  18.696 -0.2331 -0.1444 -0.1279
51199W        W94215   5.898  20.861  28.044  0.2222  0.3253  0.0044
51200W        W94216  31.283  21.262  20.897  0.1192 -0.0352  0.0021
51201W        W94217  25.804  10.379  21.785  0.1323 -0.2030  0.0425
51202W        W94218  32.142  17.613  21.447  0.0125  0.1664 -0.1114
51203W        W94219  24.261   5.900  24.627  0.0786  0.2198  0.2326
51204W        W94220   3.726  25.252  15.162  0.1813  0.0634  0.0225
51205W        W94221  29.755  19.794  27.975 -0.1550 -0.2188 -0.0758
51206W        W94222  25.801   7.509  27.745  0.3333  0.3800 -0.0006
51207W        W94223   9.573  17.318   6.161  0.0588 -0.3808  0.2363
51208W        W94224   9.559  26.425  20.769  0.1970  0.0886  0.0781
51209W        W94225   5.913   3.974  22.539  0.1582 -0.0538  0.1721
51210W        W94226  27.824  15.179  25.875  0.4068  0.0155  0.2110
51211W        W94227   5.014  33.552  28.219 -0.3102 -0.2227 -0.2655
51212W        W94228  24.900  13.170  18.752  0.1144  0.1634 -0.2011
51213W        W94229  31.777  34.318  23.124  0.0303 -0.0593  0.1974
51214W        W94230  10.652  13.795  20.865  0.1507  0.0287 -0.0032
51215W        W94231  32.321  19.747  21.140  0.1979  0.1949 -0.1378
51216W        W94232  29.967  34.199   9.842  0.0716  0.0359 -0.1562
51217W        W94233  24.304  19.611  22.764  0.0282 -0.0536 -0.1912
51218W        W94234   0.349   7.708  13.603  0.2202 -0.4053  0.0129
51219W        W94235  16.301  23.445  20.190  0.0374 -0.0725 -0.2783
51220W        W94236  33.811  19.740   8.950 -0.1088  0.1397 -0.0551
51221W        W94237   6.332  17.939  22.440  0.0621  0.1543 -0.0553
51222W        W94238   4.816  25.838  16.134 -0.1569 -0.1596 -0.1514
51223W        W94239  26.818   0.979   0.248 -0.3058  0.0250 -0.3343
51224W        W94240  26.974  15.151  22.489  0.0700  0.1441  0.2384
51225W        W94241  19.226  14.728  20.056  0.0781 -0.2589  0.1027
51226W        W94242  30.230  18.147  19.722  0.2067 -0.0986  0.0890
51227W        W94243   1.127  22.197  22.720  0.2169  0.0215  0.1253
51228W        W94244  32.122  22.569  20.991 -0.1314  0.0014 -0.3682
51229W        W94245  23.059   5.024  14.157 -0.1704 -0.0690  0.1680
51230W        W94246  22.384  30.071  14.588 -0.2095  0.4839  0.2274
51231W        W94247  31.483  19.444  17.630  0.1059 -0.0519 -0.0137
51232W        W94248  32.202  29.158  23.897 -0.1255  0.1274  0.0003
51233W        W94249  33.228  23.673  18.904 -0.1215 -0.0061 -0.0183
51234W        W94250  33.578  14.514  28.267 -0.0354 -0.0559  0.2602
51235W        W94251   4.224  26.220  20.996  0.1111  0.1728  0.1108
51236W        W94252  31.836  10.719  16.914 -0.0764 -0.0105  0.3151
51237W        W94253  25.055  20.736  27.183 -0.2628  0.0434 -0.2369
51238W        W94254  20.927  25.709   3.968 -0.0809  0.2604 -0.0378
51239W        W94255  14.421  16.614  13.321  0.1477  0.3836 -0.1091
51240W        W94256  20.312  24.731  18.140  0.3534  0.3284  0.0643
51241W        W94257  14.984  15.188  27.944 -0.0976  0.0439 -0.1592
51242W        W94258  27.374  15.211  21.643 -0.0599 -0.0307 -0.1329
51243W        W94259  15.396  21.565  23.109  0.1661 -0.2005  0.3923
51244W        W94260  29.995  17.256  19.820  0.1782 -0.2003 -0.0349
51245W        W94261  31.779  23.006  14.450  0.1500 -0.0428 -0.1725
51246W        W94262   4.014   6.823  25.761 -0.0459 -0.4043 -0.3646
51247W        W94263  32.318  19.041   4.120 -0.0425 -0.2354 -0.0599
51248W        W94264  34.607  20.339   9.898  0.0333 -0.3383  0.0702
51249W        W94265  32.198  30.544  20.851 -0.4367 -0.0503 -0.1504
51250W        W94266  17.189   6.740  27.148 -0.2313 -0.0108  0.0227
51251W        W94267   1.996  12.735  18.116 -0.1508 -0.0690 -0.0868
51252W        W94268  18.917   4.611  21.568 -0.1373  0.1077 -0.1777
51253W        W94269   7.680  25.340  17.850 -0.0553  0.1564 -0.2626
51254W        W94270   3.975  32.135  18.998  0.0530  0.1111 -0.0679
51255W        W94271  29.720  28.272  19.220  0.0293  0.0881 -0.3819
51256W        W94272  13.694  21.570   4.873 -0.1750 -0.2854 -0.1785
51257W        W94273  25.352  28.247  16.311  0.1625 -0.1859 -0.1028
51258W        W94274  29.096  34.657   9.838  0.0078 -0.1786 -0.0933
51259W        W94275  30.973  13.985  21.775  0.1622  0.0335 -0.2155
51260W        W94276  12.113  19.113   5.873 -0.0502 -0.1786  0.0995
51261W        W94277   0.816  30.635   5.377 -0.3266 -0.2040 -0.2176
51262W        W94278  25.403  28.135  17.727 -0.2141 -0.0278 -0.1014
51263W        W94279  18.415  34.350  21.494  0.1941 -0.1168 -0.0770
51264W        W94280  19.266  17.708  13.016 -0.0403 -0.3789  0.0675
51265W        W94281  18.534  17.086   4.609  0.1299 -0.1032  0.3827
51266W        W94282  18.057  24.399  17.278 -0.3396 -0.2169  0.1267
51267W        W94283  17.340  19.997  16.648  0.0189  0.1752 -0.1796
51268W        W94284   0.015   4.970   3.469  0.0303  0.0116 -0.1259
51269W        W94285  20.749  22.391  14.830 -0.1034 -0.2988  0.3126
51270W        W94286  15.361  26.629  28.256  0.0137  0.1209  0.1378
51271W        W94287  23.888  18.421  21.502  0.0454  0.0130 -0.1669
51272W        W94288  29.237  33.829  18.995 -0.1521 -0.0108  0.0939
51273W        W94289   9.950  30.735  17.306  0.1369  0.1660 -0.2365
51274W        W94290  30.307   5.391   0.019  0.0749 -0.2077 -0.1359
51275W        W94291  27.204  30.606  26.513 -0.1183 -0.0007  0.2121
51276W        W94292  30.186  17.377  16.463  0.0799  0.0015  0.1341
51277W        W94293   4.759  24.901  18.186  0.0419  0.0818 -0.1800
51278W        W94294  15.023  16.079  12.171  0.1041 -0.1080  0.2309
51279W        W94295   6.083  28.145  27.223  0.5848  0.1740  0.2108
51280W        W94296  20.058  19.784  25.532 -0.1170  0.1024 -0.2288
51281W        W94297  24.028   9.736   1.584 -0.2907  0.0511 -0.0951
51282W        W94298  23.763  31.420  21.617 -0.0194  0.1205 -0.0091
51283W        W94299   0.194  27.118  16.048 -0.1296  0.2047  0.0479
51284W        W94300  25.622   5.822  22.190  0.1401 -0.1445  0.2140
51285W        W94301  14.652   5.501  26.535  0.0675  0.0634  0.2241
51286W        W94302  21.809  25.941   2.311  0.1989 -0.1391 -0.2205
51287W        W94303   2.293  20.819  22.311 -0.2813 -0.0230 -0.2458
51288W        W94304   6.592  20.113  19.826  0.2058  0.4915 -0.3527
51289W        W94305  25.960  10.987  18.267  0.2429  0.2771 -0.1004
51290W        W94306   7.070  22.048  16.956 -0.1311 -0.2693 -0.1800
51291W        W94307  27.948   3.285   2.720  0.0273  0.1857 -0.1302
51292W        W94308   4.064  20.669  13.855 -0.0207 -0.3198  0.0270
51293W        W94309   2.691  26.592  22.865  0.1622  0.3954  0.0131
51294W        W94310   6.360  19.500  20.820  0.1126 -0.0574  0.1150
51295W        W94311  28.676  15.930  17.709 -0.0086  0.1132 -0.1451
51296W        W94312  15.909  26.966  26.403  0.1006 -0.1570  0.3243
51297W        W94313  19.674  14.926  12.458 -0.1296 -0.2786  0.1445
51298W        W94314  30.638  16.926  28.602 -0.2516 -0.0765 -0.2900
51299W        W94315  33.392  22.240  14.884  0.0573 -0.0454 -0.0828
51300W        W94316   4.397  18.735  17.399  0.0493  0.0799 -0.1801
51301W        W94317  31.956  13.455  23.811 -0.0700 -0.2456 -0.3347
51302W        W94318  11.415  15.315  13.337  0.2426 -0.0516  0.0661
51303W        W94319  16.236  13.185  12.097  0.0186 -0.0138  0.2237
51304W        W94320  30.621  13.768  25.670  0.0071  0.0969  0.0746
51305W        W94321   5.794   1.048  26.588  0.2505  0.1001  0.0265
51306W        W94322   7.985   4.876  14.714 -0.1021  0.2013 -0.1369
51307W        W94323  31.333  10.005  23.772  0.0495  0.1353 -0.0692
51308W        W94324   6.959  25.194  25.303 -0.0462 -0.3463 -0.1348
51309W        W94325   0.628  20.765  15.116  0.2620 -0.0943 -0.0886
51310W        W94326  26.119  14.219  27.893  0.3262  0.0680 -0.0333
51311W        W94327  31.343  12.087  14.073  0.2682 -0.2261 -0.2108
51312W        W94328   3.288  31.749  21.119 -0.1971  0.0351  0.1931
51313W        W94329  31.135  25.524  10.297  0.1133 -0.1653  0.1592
51314W        W94330  20.129  20.207  26.633  0.2542  0.0317 -0.2955
51315W        W94331   6.480  16.420  16.532 -0.4482 -0.0293 -0.2530
51316W        W94332  26.857  31.672  23.885 -0.0470  0.0230  0.0836
51317W        W94333  30.136  33.769   9.347 -0.1616  0.0739 -0.2397
51318W        W94334  30.083  24.136  16.216  0.2463 -0.1748 -0.0304
51319W        W94335  27.592  15.613  20.861  0.1889 -0.0283 -0.2313
51320W        W94336  28.933   6.396   2.347  0.1622  0.0829  0.0555
51321W        W94337   6.365  17.598  18.368  0.0181  0.0638  0.0624
51322W        W94338   4.543  22.984   1.347 -0.2280 -0.0230 -0.0393
51323W        W94339  33.740   1.004  17.305 -0.1705  0.0759  0.2019
51324W        W94340  21.353  33.890  24.576 -0.0745 -0.1172 -0.2149
51325W        W94341  29.809  23.491  18.087  0.0629 -0.0211  0.2204
51326W        W94342  29.888  24.525   1.087 -0.1682 -0.1482  0.3022
51327W        W94343  31.716  29.066  18.899 -0.0117  0.1899  0.0949
51328W        W94344  25.348   7.790  17.449 -0.0027  0.1191 -0.0038
51329W        W94345   4.037  10.941   6.380 -0.2577  0.1656 -0.0525
51330W        W94346  32.849  28.293  24.019 -0.1600 -0.0959  0.2160
51331W        W94347  13.649  15.180  21.367 -0.0785  0.1863  0.2448
51332W        W94348  23.391  17.682  18.031  0.2090 -0.1999 -0.3716
51333W        W94349  10.639  23.764  19.147 -0.0454 -0.0733  0.0651
51334W        W94350  26.772  16.942  25.359 -0.1065 -0.2449 -0.0080
51335W        W94351  18.225  22.232  16.636 -0.3416 -0.0711  0.0540
51336W        W94352   6.016  18.438  27.676 -0.4929  0.2446  0.2249
51337W        W94353  31.512  24.606  23.564  0.1371  0.0609 -0.3311
51338W        W94354  15.488  12.659  13.358  0.1474 -0.5543  0.2012
51339W        W94355  31.482  21.324  14.764  0.2312 -0.0335 -0.0318
51340W        W94356  31.725  30.950  26.369 -0.1600  0.1237  0.0182
51341W        W94357   2.760  16.994  14.955  0.1134 -0.0253 -0.0623
51342W        W94358  34.414  31.152  25.372  0.0598  0.0524  0.1176
51343W        W94359   6.821  18.977   7.228 -0.0455  0.0346 -0.3690
51344W        W94360   9.548   2.222  25.636 -0.0159  0.5649  0.3213
51345W        W94361   3.252  27.950   3.547 -0.0731  0.1589 -0.2179
51346W        W94362  21.840  16.367  29.276  0.4017 -0.1307 -0.1435
51347W        W94363  20.492  23.599  15.938 -0.1636 -0.2159 -0.0685
51348W        W94364  23.704  21.463  15.087  0.2713  0.1698 -0.1530
51349W        W94365  29.242  20.591   2.651 -0.0852  0.1196 -0.3199
51350W        W94366  15.124  32.521   9.682 -0.1018 -0.0818 -0.0797
51351W        W94367  31.545  18.302  28.947  0.0660  0.2575 -0.0897
51352W        W94368  10.484  23.218  28.353 -0.1892  0.0959  0.0509
51353W        W94369   3.026   1.833  14.084 -0.2190  0.4931 -0.0039
51354W        W94370   0.494  30.661   3.683  0.0341  0.2652 -0.2487
51355W        W94371  22.914   8.256   1.898  0.2537  0.0579 -0.1555
51356W        W94372  34.145  11.621  17.784  0.1135 -0.0289 -0.4774
51357W        W94373  33.938  16.415  24.090 -0.1986  0.0718 -0.1670
51358W        W94374   2.428  19.741  22.362  0.2237 -0.0341 -0.0250
51359W        W94375  11.136  31.124  25.147  0.1288 -0.1421 -0.1136
51360W        W94376  17.057  12.091  25.772 -0.2647 -0.0036  0.1406
51361W        W94377   3.645  19.405  27.434  0.1366  0.1396 -0.1691
51362W        W94378  34.427  23.838  25.687  0.0930  0.0401 -0.0112
51363W        W94379  10.860  28.562  15.639  0.1366  0.2155  0.2875
51364W        W94380  25.742  25.750  16.330  0.1180  0.0082 -0.1141
51365W        W94381  24.546   0.601  21.811 -0.0214 -0.1028 -0.3178
51366W        W94382   6.250  31.978  15.534 -0.0597  0.3293  0.1436
51367W        W94383  25.813   2.063  16.243  0.2307  0.0573 -0.0983
51368W        W94384  22.990  22.334   8.442 -0.1734  0.4160  0.2742
51369W        W94385  28.362  16.315  26.215  0.1394 -0.0172  0.1847
51370W        W94386  13.785  11.854  23.233 -0.1074 -0.2108  0.1681
51371W        W94387   1.148  30.252  15.221 -0.1844  0.3588 -0.0020
51372W        W94388  25.700   9.529   2.296  0.2968  0.1432 -0.2006
51373W        W94389  22.653  28.021  27.815  0.5015 -0.2940  0.1527
51374W        W94390   2.296   2.607  20.719 -0.0245 -0.1215  0.1303
51375W        W94391   4.219  30.791   5.310  0.1639 -0.0244 -0.4643
51376W        W94392  27.108  19.240  23.192 -0.2692 -0.0084 -0.0761
51377W        W94393   1.460  29.880   5.345 -0.1282  0.1445  0.0749
51378W        W94394  23.480  12.993  22.035  0.3580  0.2701 -0.2658
51379W        W94395  14.500  31.972  27.661  0.0928  0.2880  0.1500
51380W        W94396  18.651  33.189  20.377  0.0443 -0.0213 -0.2364
51381W        W94397  28.218  25.166  23.373 -0.1526 -0.1872 -0.2427
51382W        W94398  29.451   7.389  19.192 -0.0496 -0.1588  0.1010
51383W        W94399   3.071   5.040  14.376  0.0906 -0.0936 -0.0161
51384W        W94400  32.481  32.080  26.458  0.3989  0.1976  0.2891
51385W        W94401  30.210  18.733  15.046  0.1070 -0.1464 -0.0971
51386W        W94402  16.413   3.933  14.088  0.1515  0.0404  0.0678
51387W        W94403   0.351  16.043  21.096 -0.2147  0.1816  0.3684
51388W        W94404   8.756  17.942   2.774 -0.2089 -0.2617  0.0961
51389W        W94405   3.337  16.845  15.147  0.2869 -0.0671  0.2035
51390W        W94406  32.364  20.817  23.033 -0.1407 -0.0078  0.1937
51391W        W94407  29.518  28.521  27.893  0.0624 -0.0141  0.4245
51392W        W94408  15.430   4.668  17.000 -0.2364  0.1047  0.1284
51393W        W94409  31.800  19.646  16.029 -0.2446  0.2455 -0.1190
51394W        W94410   1.499  34.582   2.845 -0.2406  0.1446 -0.1340
51395W        W94411  27.934  15.190  14.140 -0.3222  0.1131 -0.0790
51396W        W94412  27.916  24.835  28.501  0.2116  0.0804 -0.2594
51397W        W94413  27.332   8.481   6.576 -0.1676  0.0490  0.0357
51398W        W94414  34.289   7.335  23.499  0.0783  0.2351 -0.1007
51399W        W94415  28.969   2.391  16.292 -0.1505 -0.0612  0.1710
51400W        W94416  29.719  14.040  14.031  0.1107  0.3641 -0.1736
51401W        W94417  26.059  16.859  21.561  0.2631 -0.0106 -0.0964
51402W        W94418  10.591  11.150  24.772 -0.2294  0.0883  0.0097
51403W        W94419   1.477  15.050  18.022  0.1399  0.1870  0.1724
51404W        W94420  19.796  12.690   4.970  0.1025 -0.5837  0.0408
51405W        W94421   4.486   0.373   7.667  0.0263  0.2105 -0.0144
51406W        W94422   3.127  13.818  19.629  0.0299  0.2398  0.1517
51407W        W94423  32.719  17.030  23.363  0.0791  0.1455 -0.2615
51408W        W94424   8.600  17.757   8.276  0.1345 -0.1065  0.1400
51409W        W94425  31.043  13.166   0.071 -0.0583 -0.2079 -0.1525
51410W        W94426   1.576   9.834   4.486 -0.1343 -0.3530  0.1738
51411W        W94427  25.606  24.526  17.515 -0.2193 -0.0197 -0.0296
51412W        W94428  26.052  16.803  17.905 -0.0684 -0.0267 -0.0898
51413W        W94429  14.941  17.949  24.554 -0.5615 -0.1148 -0.3894
51414W        W94430   3.908  27.610  10.395  0.0187 -0.1526  0.2144
51415W        W94431  21.336   4.740  28.353 -0.2939 -0.1579 -0.2411
51416W        W94432   4.551  21.752  28.137  0.1510 -0.0028  0.0587
51417W        W94433  28.211  27.176   9.314 -0.0417  0.1050  0.0996
51418W        W94434   6.567  11.432  19.698  0.3369  0.2405 -0.0242
51419W        W94435   3.689  18.981   0.265  0.2518 -0.3799  0.2469
51420W        W94436   3.471  23.189   5.485 -0.0111 -0.0780  0.0710
51421W        W94437  19.095  12.480  22.353  0.0193 -0.3618  0.0414
51422W        W94438  29.292  11.827  27.266  0.1987  0.1013 -0.1291
51423W        W94439  10.538  29.449   1.002  0.0582 -0.3109 -0.1439
51424W        W94440  34.522  26.875  17.656 -0.1369 -0.2158 -0.3561
51425W        W94441  28.931  24.761  19.557 -0.0073 -0.0280  0.0035
51426W        W94442  23.104  32.700  21.722  0.0139 -0.0785 -0.2302
51427W        W94443   2.095  15.882   3.470  0.3387  0.0119 -0.0245
51428W        W94444  28.297  30.936  27.659 -0.3335  0.2151  0.0790
51429W        W94445  11.502  23.786   4.373  0.0853 -0.0655 -0.1413
51430W        W94446   1.068  19.277   9.789 -0.1749  0.2048  0.2369
51431W        W94447  33.413  15.118  26.010 -0.1934 -0.3211 -0.0653
51432W        W94448  24.850  17.566  15.994  0.0993 -0.1708 -0.2121
51433W        W94449   1.019  18.147   4.043 -0.0352  0.0553 -0.0276
51434W        W94450   4.930   7.210  25.328  0.2400 -0.0334 -0.0153
51435W        W94451  20.454  14.330  24.564  0.0710 -0.0980 -0.1470
51436W        W94452  30.264  22.514  27.536  0.1478  0.1631 -0.3861
51437W        W94453  10.736  17.309   0.076  0.0384 -0.2280 -0.0610
51438W        W94454  19.174  24.577  18.921 -0.1078 -0.1029 -0.2801
51439W        W94455   8.335  14.425  15.245 -0.2147  0.2071  0.0079
51440W        W94456  10.215  22.699  22.484  0.3588 -0.1586  0.1042
51441W        W94457   1.181  32.314   5.500 -0.5052  0.0602 -0.0552
51442W        W94458  16.717   0.302  15.132 -0.2643  0.0114  0.2082
51443W        W94459   0.773  25.900   3.713  0.3243  0.1016  0.0446
51444W        W94460  12.672  11.301  25.772 -0.1827  0.2057  0.2116
51445W        W94461  27.203   7.939   7.373  0.4647  0.0376 -0.2486
51446W        W94462  30.153  25.414   5.309 -0.0872 -0.3579  0.1048
51447W        W94463  32.398  23.775  24.339  0.1363  0.0549  0.4765
51448W        W94464  23.896  10.277   3.251 -0.1337  0.0853 -0.0920
51449W        W94465  31.844  26.571  27.669  0.1987  0.0855 -0.1447
51450W        W94466  31.056  12.019  23.408 -0.0307  0.0476 -0.0225
51451W        W94467  28.180  16.173  14.364 -0.1542  0.0157 -0.1405
51452W        W94468  26.075   5.486  18.408 -0.1133  0.1288  0.2394
51453W        W94469  26.773  12.314   8.839  0.0235  0.2346 -0.1361
51454W        W94470  31.501  20.813  17.179  0.1596  0.0415 -0.0484
51455W        W94471  15.202   9.352  27.354 -0.0428  0.0935  0.1649
51456W        W94472  27.103  21.328  27.652  0.1126 -0.2271 -0.2087
51457W        W94473   8.527  15.988   5.566  0.1887 -0.4026  0.3004
51458W        W94474  12.076   7.679   3.572  0.2298  0.1434  0.2939
51459W        W94475  25.410  24.159  28.804  0.1081  0.1264  0.1068
51460W        W94476  34.406  27.325   8.458 -0.0288 -0.2023 -0.0602
51461W        W94477  31.436  32.538  27.561 -0.0956 -0.1138 -0.1072
51462W        W94478   4.881  31.451   5.062 -0.1480 -0.0127  0.0484
51463W        W94479   8.695  20.115   2.733  0.3464  0.2520  0.0854
51464W        W94480   3.095  16.459  14.182 -0.0308  0.1311  0.3124
51465W        W94481  33.732  28.728  18.736  0.3048  0.1656 -0.3007
51466W        W94482   6.717  27.756   4.759  0.1833  0.0710 -0.2490
51467W        W94483   4.568  22.022  27.246 -0.1738  0.0668 -0.2069
51468W        W94484   2.837  13.089  27.641 -0.3313  0.0544 -0.3481
51469W        W94485   2.749  13.997  20.581 -0.1988  0.1582 -0.1318
51470W        W94486   6.222  11.483   2.794  0.0643 -0.0217  0.2185
51471W        W94487  33.358  27.590  26.564 -0.1969 -0.0649 -0.1652
51472W        W94488   8.895  28.702  26.254  0.3004 -0.1022 -0.3363
51473W        W94489   9.282  30.269  22.233 -0.2187  0.1020  0.1241
51474W        W94490  32.272  23.949   7.941 -0.0264  0.3001 -0.2919
51475W        W94491   5.510  24.133   2.537  0.1905  0.0699 -0.0169
51476W        W94492  18.064   9.935  17.881  0.2181 -0.1896  0.1379
51477W        W94493  29.493  21.195  15.086 -0.2035  0.2936  0.2406
51478W        W94494   0.985  20.637   9.310  0.2216  0.0275 -0.2906
51479W        W94495  30.394   2.241  28.992  0.4089 -0.0997  0.0221
51480W        W94496  29.995  11.597  19.402  0.0951 -0.1551  0.0451
51481W        W94497  30.286  22.300   9.409  0.0932 -0.0586  0.2840
51482W        W94498   9.642  32.126   7.732 -0.1129 -0.0809 -0.1032
51483W        W94499  25.447  31.392  24.677 -0.1516  0.0874  0.1452
51484W        W94500  18.715  24.315  19.568 -0.0530  0.1147 -0.1703
51485W        W94501  32.230  30.011  20.145 -0.4258  0.0812 -0.1387
51486W        W94502   8.641  25.155   9.282  0.1226 -0.0983 -0.0847
51487W        W94503  32.112  29.846  29.188 -0.3173  0.0603  0.3505
51488W        W94504  31.129  19.740   5.273 -0.1776 -0.0759  0.1372
51489W        W94505  21.122   8.668  22.651  0.2016  0.0173 -0.2716
51490W        W94506   0.181  12.531   1.328 -0.0170 -0.2038  0.1853
51491W        W94507   5.564  24.088   6.858 -0.0728 -0.2041  0.0168
51492W        W94508   8.380  18.991  18.156 -0.2051  0.1763 -0.1942
51493W        W94509  28.006  26.663  27.721 -0.1927 -0.3797  0.0159
51494W        W94510  24.286  18.422  26.781  0.4104 -0.0227 -0.2363
51495W        W94511  21.345  18.116  28.573  0.2209 -0.1002 -0.1646
51496W        W94512  32.235  14.531  27.010  0.0232  0.0164  0.1399
51497W        W94513  28.040  12.319  27.203 -0.3432 -0.0596 -0.4082
51498W        W94514  11.819  11.351   0.083 -0.1042  0.0040 -0.1931
51499W        W94515  22.475  28.747   0.647  0.0267 -0.0265  0.1758
51500W        W94516  31.984   3.776  16.477 -0.1643 -0.0676 -0.1007
51501W        W94517  31.874  23.574  27.216  0.2151  0.1602 -0.0445
51502W        W94518  26.627  17.747  15.605 -0.3038 -0.0406  0.1940
51503W        W94519   9.788   7.161  14.498 -0.0068  0.2243 -0.1484
51504W        W94520   9.962  24.594  20.417  0.0406 -0.1057  0.1455
51505W        W94521  10.562   8.947  14.752 -0.0451  0.2532  0.0318
51506W        W94522  25.575  28.530  28.817 -0.0245 -0.0876  0.2584
51507W        W94523  26.247   2.686  25.977 -0.4606 -0.2197 -0.0488
51508W        W94524  24.360  24.904  21.211 -0.1307  0.1010 -0.0695
51509W        W94525  32.365  15.795  20.737 -0.0716  0.1049  0.1333
51510W        W94526   3.755  26.953  23.831 -0.3212  0.0141 -0.2540
51511W        W94527   5.575  19.808  22.083  0.3094 -0.1976 -0.1392
51512W        W94528   1.145  14.619   6.673 -0.2354  0.3189  0.0679
51513W        W94529  22.845  16.897   0.948 -0.2169 -0.0661  0.2924
51514W        W94530  31.109   6.622   4.243 -0.1771 -0.1976  0.1419
51515W        W94531   6.818  30.945  22.197 -0.0359  0.1286  0.0499
51516W        W94532  21.411  26.454  19.298  0.2658  0.0343  0.2425
51517W        W94533  14.864  26.879  19.688  0.3375 -0.0364  0.0483
51518W        W94534  31.914  21.505  24.933 -0.2010  0.1285 -0.2249
51519W        W94535  31.495  19.814  29.051 -0.0304  0.3765  0.1865
51520W        W94536  23.702  16.125   7.670 -0.0079  0.0650 -0.0038
51521W        W94537  10.683  29.054  25.605  0.1468 -0.1094  0.1356
51522W        W94538   5.541  14.540   0.147  0.1514  0.1515 -0.0229
51523W        W94539  31.476  16.813   8.412  0.1800 -0.0554 -0.1926
51524W        W94540  19.110  23.829   7.378 -0.2878  0.0837  0.0329
51525W        W94541  29.359  11.225  18.975 -0.2637  0.0068  0.1388
51526W        W94542  29.136  21.924  20.050  0.1675 -0.0626  0.1239
51527W        W94543   3.188  29.650  14.803  0.1877 -0.1571 -0.0595
51528W        W94544  28.410  32.809   9.089 -0.0355  0.2349  0.0976
51529W        W94545  27.853  26.829   6.637  0.0153 -0.2371  0.2821
51530W        W94546  29.235  11.053  19.519  0.1178 -0.1235  0.1257
51531W        W94547  11.749   9.490   0.236 -0.1089 -0.0409  0.1821
51532W        W94548  32.060  27.488  17.287  0.3651 -0.3138 -0.2035
51533W        W94549   7.447  27.470   0.334  0.1582  0.0375  0.0914
51534W        W94550   4.021  31.235   6.152  0.3209 -0.2352 -0.5854
51535W        W94551  12.427  21.235   6.248  0.2350 -0.1104 -0.2348
51536W        W94552  34.526  19.787  25.817  0.0916 -0.3798 -0.1502
51537W        W94553  22.824   9.572  24.332 -0.0532  0.3160  0.1988
51538W        W94554  11.628  13.350  15.457  0.3249 -0.1772 -0.1145
51539W        W94555  13.214  29.211  24.457 -0.1641 -0.2040 -0.0559
51540W        W94556  26.556  10.155  28.153  0.2399 -0.0226  0.2806
51541W        W94557  30.022  21.321   4.043  0.1640  0.0587 -0.0205
51542W        W94558  18.586   2.210  20.635 -0.2844 -0.1651 -0.0583
51543W        W94559  26.768  23.195   8.120  0.3042  0.1853  0.0037
51544W        W94560  26.494  28.902  25.448 -0.2353 -0.2284  0.0581
51545W        W94561   3.013  23.396  25.374 -0.1753  0.3478  0.2984
51546W        W94562  27.542   4.557  10.569  0.1889 -0.2057 -0.0738
51547W        W94563  31.609  10.388  28.995 -0.0420  0.3169  0.4782
51548W        W94564  11.192  14.708   1.283  0.1891 -0.1340 -0.2107
51549W        W94565   5.506  21.782   2.512 -0.1709  0.1634  0.1102
51550W        W94566   9.060  24.770   6.141  0.1363 -0.0094  0.0022
51551W        W94567   0.293   9.162  21.594  0.2882 -0.2568 -0.0173
51552W        W94568   2.954  18.513   7.793 -0.0547  0.0891  0.0752
51553W        W94569  31.465  25.314  17.898  0.1211  0.2866  0.0540
51554W        W94570  32.390  23.172  21.041  0.0253  0.3099 -0.0443
51555W        W94571  16.128  22.403   6.624  0.0701 -0.1221 -0.0060
51556W        W94572  26.724  13.640  18.828 -0.1662 -0.0269 -0.0743
51557W        W94573  31.348  16.388   6.397 -0.1989 -0.1837 -0.0691
51558W        W94574   3.515  24.111  21.644  0.1891 -0.0571 -0.0029
51559W        W94575  33.831  21.565   8.843 -0.0906 -0.1734 -0.1466
51560W        W94576  28.579  14.418  18.261  0.0614  0.1624 -0.2124
51561W        W94577  10.679  30.554   9.435  0.1253 -0.1485  0.2252
51562W        W94578   0.079  18.769  28.635 -0.0028 -0.1653  0.2290
51563W        W94579  26.409  23.902   5.285 -0.0850  0.3010 -0.2501
51564W        W94580  12.112  18.941  19.883  0.1392 -0.1485 -0.0678
51565W        W94581   2.974  17.508   2.593 -0.1775  0.1435 -0.0256
51566W        W94582  25.573  25.339  20.270  0.3282 -0.1118  0.3237
51567W        W94583   8.514   0.481   0.171 -0.1204  0.1482  0.3523
51568W        W94584   8.315   6.298  14.466  0.1643  0.1936 -0.0840
51569W        W94585   2.851  20.986  18.107  0.0539  0.0653  0.2464
51570W        W94586  24.019  19.242  24.216 -0.4781  0.0025  0.1381
51571W        W94587   6.116  14.021  24.446 -0.1730 -0.1637  0.2226
51572W        W94588   7.452  22.260   8.045 -0.0649  0.0494  0.3040
51573W        W94589   7.792  19.394  17.850 -0.1467 -0.3572  0.2666
51574W        W94590  28.526  18.687   1.456  0.0629 -0.1638  0.5881
51575W        W94591  12.045  33.428  16.143  0.1656 -0.1993 -0.3031
51576W        W94592  31.549  18.295  17.250  0.0256 -0.2771 -0.0541
51577W        W94593   4.267   7.358  15.458  0.0998 -0.2747  0.1230
51578W        W94594  22.518  14.827  16.388 -0.1481  0.3010  0.2081
51579W        W94595   9.449   5.183  28.142 -0.0889 -0.2969  0.1448
51580W        W94596  34.485  15.776   2.198  0.0741 -0.3656 -0.1567
51581W        W94597  24.813  30.467  15.972  0.2004  0.4286 -0.1031
51582W        W94598  31.883  21.599   4.072  0.0718  0.0034  0.0558
51583W        W94599  29.001  22.862  28.385  0.0908 -0.1453 -0.0116
51584W        W94600   8.862  20.578   5.388 -0.1036  0.1227 -0.0292
51585W        W94601  33.352  10.236   3.401 -0.2852 -0.1104 -0.1582
51586W        W94602   4.863  33.615  24.922  0.0161 -0.0923  0.4567
51587W        W94603  25.090  30.012  17.652 -0.1740 -0.1238  0.0292
51588W        W94604  25.614   5.202   3.956  0.0811  0.2548 -0.3041
51589W        W94605   4.290  12.962  16.516 -0.2042  0.2324 -0.4146
51590W        W94606   6.836  19.531   5.105  0.0216  0.1207  0.0269
51591W        W94607  34.528  23.722   2.638  0.0631 -0.0096 -0.1068
51592W        W94608  13.676  19.131   7.034  0.0949  0.0156 -0.0951
51593W        W94609  13.300  12.724  28.233  0.3316 -0.1386  0.0889
51594W        W94610  29.084   7.439   2.037 -0.0119 -0.0673 -0.0133
51595W        W94611  32.188   6.824   2.138 -0.3747  0.0923  0.1059
51596W        W94612  26.857  22.953  19.937 -0.1600  0.2531  0.0190
51597W        W94613  18.336   6.582  26.214 -0.1120 -0.1318  0.3381
51598W        W94614   3.952  19.663   2.202 -0.0402  0.1787 -0.0366
51599W        W94615  29.281  13.573  24.292  0.1394 -0.1319 -0.1795
51600W        W94616   8.276  33.187   5.170  0.0105 -0.1535 -0.1548
51601W        W94617  25.154   1.357   7.838  0.0559 -0.1431  0.1168
51602W        W94618   5.898  30.071   7.780 -0.0569 -0.0187  0.2474
51603W        W94619  34.222  33.228  18.119 -0.2986  0.1927 -0.0984
51604W        W94620   4.483   8.540  19.519 -0.2617 -0.1055  0.5841
51605W        W94621  28.800  16.793  17.684 -0.1013 -0.0336  0.1003
51606W        W94622  14.891  28.477  28.576 -0.1060  0.1794 -0.1631
51607W        W94623  17.904  31.796  23.774 -0.2385 -0.1044 -0.1055
51608W        W94624  11.390  33.187  18.161 -0.0349  0.0850  0.3564
51609W        W94625  32.067   2.351  26.140  0.2408  0.0462 -0.0620
51610W        W94626   9.734  22.694  23.919 -0.1181 -0.0589  0.2651
51611W        W94627  27.599   5.083  24.881 -0.1282  0.2517 -0.4358
51612W        W94628  26.498  13.228   1.975  0.0326 -0.0722  0.2603
51613W        W94629   6.797  15.756  20.121 -0.0708  0.1312 -0.0563
51614W        W94630   2.825  18.916  21.927  0.3415  0.1129 -0.0968
51615W        W94631  20.225  31.833  23.895 -0.2502 -0.0304  0.4525
51616W        W94632   0.259  19.348  16.817 -0.0569  0.0694 -0.2872
51617W        W94633   9.798   7.978  28.168  0.0771  0.1476  0.1354
51618W        W94634  30.393  33.244  25.663  0.1935  0.1704  0.0974
51619W        W94635   9.780  21.381  17.727 -0.3758 -0.1921  0.0189
51620W        W94636  19.726  15.001  21.292 -0.3967 -0.1362  0.0465
51621W        W94637   9.589  21.478  24.076 -0.0948 -0.0137 -0.0390
51622W        W94638  20.871  13.959  15.370  0.0152 -0.3061 -0.2011
51623W        W94639   6.738  30.032   1.164  0.1628  0.0817  0.2609
51624W        W94640  15.356  14.445   7.842 -0.0422  0.3042  0.0674
51625W        W94641  33.756  22.208   4.100 -0.1017 -0.0074 -0.1502
51626W        W94642   0.082  12.971  20.111 -0.1425  0.2057 -0.0757
51627W        W94643  33.134  23.024  18.003 -0.4804  0.1202 -0.0433
51628W        W94644  16.496  17.260  12.455 -0.0159 -0.0341  0.0892
51629W        W94645   0.946  16.651   2.478 -0.0788  0.0750 -0.0350
51630W        W94646  28.059  27.466  15.620 -0.1273  0.0794 -0.2112
51631W        W94647  22.728   5.470  25.236  0.0381  0.3805  0.2563
51632W        W94648  29.202   2.277  18.605 -0.1583 -0.0729  0.0514
51633W        W94649  26.661  30.513   5.996 -0.0364 -0.0707 -0.1475
51634W        W94650   0.651  13.056   4.401  0.0730  0.2079 -0.1488
51635W        W94651   3.632  13.896   0.041  0.0326 -0.2522  0.0294
51636W        W94652   9.056  26.305   4.424 -0.0964 -0.0356 -0.0160
51637W        W94653   1.471  10.987   1.863  0.0272  0.3002 -0.1354
51638W        W94654  12.905  34.299   8.281  0.0735  0.0351 -0.1984
51639W        W94655  23.311  15.735  16.535  0.1488  0.1354  0.0911
51640W        W94656  26.970  30.960   0.129 -0.0485  0.1678  0.2322
51641W        W94657  28.918   4.277  18.724 -0.0504 -0.2917 -0.1356
51642W        W94658  15.323  30.964  26.320  0.1926  0.2807 -0.0933
51643W        W94659  29.882  31.453   4.286  0.0499 -0.1172  0.1648
51644W        W94660  16.993  20.589   6.526 -0.0351 -0.0117 -0.4676
51645W        W94661  24.095  13.864  21.908 -0.0592 -0.2540  0.2183
51646W        W94662  22.516   1.812  23.992 -0.1135 -0.2905  0.2215
51647W        W94663  20.973  23.435  28.983  0.3049 -0.1653  0.2430
51648W        W94664  24.936  27.829   5.392 -0.0159  0.2169 -0.0404
51649W        W94665  24.354  23.003  15.447 -0.0153 -0.3651  0.0039
51650W        W94666  10.929   6.835  27.501 -0.1995 -0.2487  0.4170
51651W        W94667  16.685   9.011  29.180 -0.5022  0.1456 -0.4138
51652W        W94668  31.145   5.770  10.475  0.0614 -0.0222  0.0093
51653W        W94669  25.392  14.231  23.637  0.0670  0.0778 -0.2138
51654W        W94670   7.825  31.936   3.095 -0.0391 -0.2217 -0.1525
51655W        W94671   0.713  24.937   4.675 -0.0457  0.0291  0.0954
51656W        W94672  33.480   9.821   4.163  0.2299 -0.0443 -0.0354
51657W        W94673  12.807  19.582  22.891 -0.3226  0.0740  0.0164
51658W        W94674  29.733  28.005  27.974  0.0373  0.1647  0.0225
51659W        W94675  25.401  27.069  17.292  0.2260  0.1171 -0.2080
51660W        W94676  25.119  16.949  21.518  0.1647 -0.2972  0.1393
51661W        W94677  24.523  20.102  25.475  0.2054 -0.1841  0.0155
51662W        W94678  33.430  24.610   5.569 -0.1919 -0.0155 -0.2815
51663W        W94679  21.769   6.262  22.434 -0.0790  0.2890 -0.1702
51664W        W94680   6.441  17.979  28.342 -0.1432 -0.1503 -0.1252
51665W        W94681  29.362  21.348  10.514  0.1284  0.2320  0.0671
51666W        W94682  12.479  15.367   2.647  0.1821 -0.0093  0.1718
51667W        W94683  14.737  10.131   5.818 -0.0420 -0.2720 -0.0469
51668W        W94684  14.402  20.795  19.682 -0.0880 -0.2230 -0.1536
51669W        W94685  26.714  21.199  26.738  0.1385 -0.4271 -0.0363
51670W        W94686   4.034   3.546   5.451  0.0423 -0.0249  0.1203
51671W        W94687   0.684   3.903  17.468  0.1267 -0.2012 -0.0517
51672W        W94688  16.943  26.410  16.653 -0.1208 -0.1227 -0.4827
51673W        W94689  17.597  20.714   1.290 -0.1814  0.1845  0.1014
51674W        W94690   2.922  18.621  18.670  0.0238  0.0112 -0.1448
51675W        W94691   7.322  23.064  23.270  0.1773 -0.0528  0.2678
51676W        W94692   8.847   5.643  17.792 -0.3520  0.2018 -0.0394
51677W        W94693  16.314   2.437  18.061 -0.0779 -0.3242 -0.0567
51678W        W94694   4.259   3.215  17.885 -0.0011  0.4192  0.0295
51679W        W94695  11.399  20.971  27.377 -0.1151 -0.0711 -0.1494
51680W        W94696  30.067  18.042   5.445 -0.0859 -0.0833 -0.3298
51681W        W94697   5.036   0.403  28.427  0.0712  0.1345  0.0027
51682W        W94698  31.281  31.948  26.122 -0.3414 -0.0619  0.1724
51683W        W94699  24.356   3.240  17.011 -0.0849 -0.1065 -0.0205
51684W        W94700   4.564  14.184  28.480 -0.0500  0.0683 -0.3029
51685W        W94701   1.931   4.561  20.212 -0.1276 -0.0083 -0.1156
51686W        W94702  34.547  29.808  19.313 -0.0492  0.0224  0.2764
51687W        W94703   0.517  22.775   8.862 -0.3280 -0.0506 -0.3705
51688W        W94704   0.779  26.137  21.432 -0.1675  0.1514  0.0186
51689W        W94705  31.237  24.447   5.524  0.3571 -0.0961 -0.1625
51690W        W94706   0.426  20.318  22.827  0.0422 -0.0571 -0.2795
51691W        W94707  27.378  22.842  26.094 -0.1328  0.0615 -0.1822
51692W        W94708   3.176   5.167  19.809  0.2675 -0.2584  0.1072
51693W        W94709  31.121  26.451  26.527 -0.0610 -0.2195  0.1779
51694W        W94710  10.707  21.768  20.849  0.2071 -0.1609 -0.1691
51695W        W94711  25.302  16.435   3.120 -0.1636 -0.0734 -0.1783
51696W        W94712  28.520  24.331  19.609 -0.0769  0.1866 -0.2604
51697W        W94713  32.623  34.059   1.520  0.2291 -0.1498 -0.2216
51698W        W94714   0.987  29.056  14.973  0.2683  0.0896  0.0043
51699W        W94715   4.644  20.251  15.995 -0.0817  0.1170  0.0648
51700W        W94716   3.939  19.822  13.585 -0.0231 -0.0454 -0.1170
51701W        W94717  22.329  12.246   2.567  0.0822 -0.1955  0.0827
51702W        W94718  28.173  11.093  16.313 -0.0385 -0.1317 -0.1909
51703W        W94719  23.917  34.654  24.005 -0.1187 -0.4715  0.0189
51704W        W94720   2.837  17.677  19.263  0.1392  0.0315  0.1016
51705W        W94721  22.676  13.412  18.586 -0.1335  0.1951 -0.0880
51706W        W94722  17.902  18.933  26.630  0.3071  0.1066  0.0618
51707W        W94723  16.101  11.160  13.037  0.1021 -0.3419 -0.0195
51708W        W94724   1.560  28.209  17.060 -0.1574  0.1131 -0.0247
51709W        W94725   8.379  33.945  15.121 -0.3210  0.2832  0.3094
51710W        W94726  30.912  29.342   5.390  0.0814 -0.5126  0.0199
51711W        W94727   1.765  27.519  16.804 -0.2650 -0.2029 -0.0273
51712W        W94728  13.234  29.572  17.425  0.2827 -0.2448 -0.2231
51713W        W94729   0.530  29.719  27.086 -0.0194  0.2097 -0.0665
51714W        W94730  33.516  34.454  16.396  0.0535 -0.0370 -0.1710
51715W        W94731  13.859  26.578  16.263 -0.0585  0.2231 -0.1464
51716W        W94732  24.522  15.163  13.130 -0.0010 -0.0938  0.1205
51717W        W94733   8.268   2.250  18.058 -0.0114 -0.2449  0.2188
51718W        W94734   5.681  28.007  18.250 -0.0004  0.2235 -0.1478
51719W        W94735  11.088  27.250  22.744 -0.1541  0.2803 -0.2283
51720W        W94736  28.109  12.913  17.059 -0.4462  0.0122  0.3263
51721W        W94737  31.063  30.464  23.881 -0.0824  0.0590 -0.1276
51722W        W94738  32.744  30.365   3.835  0.0577 -0.2066 -0.2394
51723W        W94739  34.695  33.884  23.059 -0.2211 -0.2372  0.1375
51724W        W94740  21.703  26.314  17.067 -0.0710  0.4630  0.1630
51725W        W94741  31.249  18.519  18.705  0.1546  0.1352  0.1503
51726W        W94742  22.526  29.685  18.799 -0.0077 -0.1692  0.1463
51727W        W94743  25.746  28.686   9.941  0.2720  0.2142  0.2575
51728W        W94744  30.677  18.486  18.438  0.3243  0.0781  0.1732
51729W        W94745   7.339   4.461  18.022  0.0375 -0.0152  0.3272
51730W        W94746   8.481  28.725  23.375 -0.0094 -0.0630  0.2276
51731W        W94747   3.578   3.543  27.317 -0.1633  0.1880  0.1584
51732W        W94748  34.765  20.786  18.670  0.0271  0.1405  0.2404
51733W        W94749   3.894  24.757  18.550  0.1375  0.0273 -0.0013
51734W        W94750   3.789  27.426  24.859  0.1671  0.1449  0.1424
51735W        W94751  29.599  21.191  19.942  0.0769  0.0122 -0.2512
51736W        W94752   5.092   5.562  16.559  0.2371  0.2899 -0.0253
51737W        W94753   5.695   7.666  22.204 -0.2145  0.2255  0.2694
51738W        W94754   2.548  26.857  19.130 -0.1313  0.0303  0.1407
51739W        W94755  15.189  22.299  16.350 -0.1295  0.2373  0.0111
51740W        W94756  27.122   9.497  20.516 -0.2122  0.0021  0.0422
51741W        W94757  32.882  11.706  22.677 -0.1532  0.1136 -0.0068
51742W        W94758   0.514  22.971  17.317 -0.2257 -0.0489  0.0005
51743W        W94759  25.900  20.953  15.936  0.1030  0.0642  0.3215
51744W        W94760  23.948  33.341  16.080 -0.1291 -0.0675 -0.0261
51745W        W94761  22.369  19.801   5.393  0.0621  0.1325  0.2199
51746W        W94762  21.893  27.986  15.527  0.0657 -0.0390 -0.1142
51747W        W94763   1.307  29.669   7.903 -0.0971  0.0855 -0.1641
51748W        W94764   9.304  20.120  18.921 -0.1037  0.2232 -0.0116
51749W        W94765  16.556   8.689  20.413 -0.5962  0.2563  0.3829
51750W        W94766   1.533  29.648  23.616 -0.2133 -0.0948 -0.1835
51751W        W94767   9.952   3.275  23.641  0.1463  0.0260  0.5203
51752W        W94768   2.297  15.279  23.309  0.0427  0.3531 -0.1668
51753W        W94769  26.181  34.245  24.719 -0.1003 -0.0268  0.0641
51754W        W94770   5.901  28.977  19.804 -0.0868 -0.1294  0.0451
51755W        W94771  32.765  28.638   6.775 -0.1493  0.0801  0.0149
51756W        W94772   1.209  27.918  19.830 -0.1588 -0.0790  0.1333
51757W        W94773  10.431  21.019  12.476 -0.0262 -0.0550 -0.1248
51758W        W94774   3.766   1.662  22.902 -0.0614  0.1196 -0.1630
51759W        W94775  33.491  25.389  20.162 -0.0393  0.0170  0.2785
51760W        W94776  31.125   1.113  17.034  0.3052  0.1038  0.1336
51761W        W94777   3.425  22.300  13.258  0.0712 -0.3401 -0.1055
51762W        W94778  12.114  28.800   0.790  0.4007  0.2293 -0.4449
51763W        W94779  23.594  26.838  23.161  0.0553  0.2793  0.0525
51764W        W94780  30.734  31.609  25.402 -0.2069  0.1329 -0.1809
51765W        W94781  23.488   9.312  22.291 -0.3748  0.2025 -0.1244
51766W        W94782   1.286  26.880  19.541 -0.1441 -0.0218  0.0041
51767W        W94783  17.527  26.731  15.009  0.1569 -0.0859 -0.2410
51768W        W94784  15.530  30.381  19.649 -0.1973 -0.0358 -0.1035
51769W        W94785  21.137  25.602  19.628  0.2344 -0.2671 -0.2796
51770W        W94786  19.748  15.746  23.530  0.1015  0.3098  0.3143
51771W        W94787  30.359  26.007  22.152 -0.1883  0.1761 -0.0024
51772W        W94788  34.451  20.194   1.525 -0.2364 -0.1422  0.0781
51773W        W94789   0.563  24.430  21.110 -0.0441 -0.1935 -0.3184
51774W        W94790  18.495  24.009   2.221 -0.3809  0.0506 -0.2717
51775W        W94791  24.342  22.621  24.887  0.3523 -0.0374 -0.0182
51776W        W94792  31.872  15.602  27.506 -0.1740  0.2137 -0.1248
51777W        W94793  33.621  24.982  16.860  0.0798 -0.0213 -0.0208
51778W        W94794   2.170  24.058  17.206 -0.2040  0.0396  0.2518
51779W        W94795   2.213   6.316  14.932  0.0770 -0.0685  0.0184
51780W        W94796  34.252  23.861  24.395 -0.3381 -0.1092 -0.0843
51781W        W94797  19.182  25.922  21.510  0.2240  0.1828  0.1108
51782W        W94798  25.247  15.313  26.045 -0.1544 -0.1041  0.0743
51783W        W94799  28.385   0.279  17.943  0.1401 -0.2051  0.1844
51784W        W94800  33.081  28.072  15.856  0.0528 -0.0009 -0.0219
51785W        W94801  16.787  28.486  28.039 -0.0893 -0.2893  0.2007
51786W        W94802  21.009   4.511   1.055  0.4653 -0.1158  0.1825
51787W        W94803   4.853  28.623  17.309  0.1747 -0.1257  0.1565
51788W        W94804  30.849  18.639  26.419 -0.0682  0.0502  0.1542
51789W        W94805  24.929  23.001  18.800  0.3293 -0.1527  0.0280
51790W        W94806   2.726  24.982  14.157 -0.0651 -0.0017 -0.3438
51791W        W94807   4.776  14.079  21.611  0.1088 -0.0045 -0.2381
51792W        W94808   7.061  20.479  20.982 -0.1560  0.1124  0.1297
51793W        W94809  15.399  23.749  14.289  0.1427 -0.0374 -0.1284
51794W        W94810  21.949   7.768  14.434 -0.1056  0.1929  0.1104
51795W        W94811  17.450   4.129  19.246  0.2947 -0.4394 -0.1097
51796W        W94812  27.008  31.463  23.024  0.2268  0.2482  0.3689
51797W        W94813  34.619  28.128  25.970  0.1667 -0.2687 -0.1809
51798W        W94814  26.691  28.773  15.465  0.1284  0.2246  0.2237
51799W        W94815   1.623  28.632  23.368 -0.0039  0.0985 -0.1473
51800W        W94816  12.573  25.268  14.432 -0.1311  0.1563 -0.0071
51801W        W94817  26.881   5.370  17.037 -0.2086 -0.1664  0.0887
51802W        W94818  17.280   3.739  24.982  0.0751  0.0191 -0.0543
51803W        W94819   6.943  11.161  19.843  0.2137 -0.0456  0.1420
51804W        W94820  25.660   5.293  20.605  0.1441  0.0884  0.0296
51805W        W94821   9.857  27.264  25.448 -0.0872 -0.0587 -0.1037
51806W        W94822  13.169  15.918  16.085  0.2865  0.2624 -0.2701
51807W        W94823  18.247  28.737  19.529  0.0450  0.3720  0.0839
51808W        W94824  28.665  19.572   0.727 -0.2713 -0.3099 -0.1448
51809W        W94825  14.593   8.103  17.192 -0.2735 -0.1849  0.4092
51810W        W94826  30.345  17.832  16.235 -0.2246 -0.1710  0.0541
51811W        W94827   8.672   1.212  22.480  0.0984 -0.1145  0.0693
51812W        W94828  27.840  23.829  23.513 -0.0811  0.1369  0.1866
51813W        W94829   7.102  17.787  25.735 -0.1367  0.1724  0.0481
51814W        W94830  19.832  26.503  17.063  0.0033 -0.0787  0.2532
51815W        W94831  24.323   9.901  26.183 -0.1783  0.0656 -0.1069
51816W        W94832   7.748  21.394   0.083 -0.2571  0.2026 -0.0144
51817W        W94833  23.122  14.431  17.222  0.1847 -0.0371  0.1166
51818W        W94834   4.671  23.702  26.842 -0.4182 -0.2116 -0.0407
51819W        W94835  32.760  23.117  18.239 -0.1081 -0.1404  0.2751
51820W        W94836  34.012  13.411  17.313  0.0576  0.0528  0.2481
51821W        W94837  16.222  31.804  20.066  0.5577  0.0716  0.0347
51822W        W94838  28.854  29.275  21.995  0.1542  0.1112  0.1987
51823W        W94839  10.773  13.870  15.817  0.2265  0.2476  0.2786
51824W        W94840  31.209  21.882  24.880 -0.4318  0.1233  0.0773
51825W        W94841  10.016  27.880   1.910 -0.0395  0.3189  0.0486
51826W        W94842  33.514  31.875  25.337 -0.0551 -0.0775  0.2479
51827W        W94843  31.475   0.806   6.898 -0.3986 -0.2660 -0.1167
51828W        W94844   7.338  28.727  21.377 -0.2809  0.0038 -0.0310
51829W        W94845  30.290  19.895  21.328  0.1205  0.1298  0.0831
51830W        W94846   8.494  24.424  14.808 -0.3036 -0.0749  0.2331
51831W        W94847  17.371  28.275  27.728 -0.0742  0.0088 -0.2967
51832W        W94848  32.212  24.202  17.016 -0.0265 -0.0209 -0.0168
51833W        W94849  17.602  31.486  19.713 -0.4203 -0.1900  0.3396
51834W        W94850  33.661  28.637  23.979  0.2264  0.0838  0.3129
51835W        W94851   6.145   8.580  22.006 -0.2455  0.1562 -0.0081
51836W        W94852  30.080  30.689  17.138 -0.0276  0.0410 -0.0890
51837W        W94853  28.260  16.320  21.343 -0.0816 -0.2150 -0.0931
51838W        W94854   3.390  32.997  16.069 -0.0472 -0.0586  0.0434
51839W        W94855  29.205  11.812  15.194  0.4913  0.1844  0.0512
51840W        W94856   2.138   4.205  19.254  0.2246  0.0244  0.0094
51841W        W94857  33.113   3.760  14.089 -0.1137  0.3109 -0.3226
51842W        W94858  34.235   2.032  18.654 -0.0509  0.0862  0.2214
51843W        W94859  25.472   3.577   9.428 -0.0045  0.0399  0.0534
51844W        W94860  26.374  24.759  18.800  0.0439  0.0643 -0.1383
51845W        W94861  27.316   9.220  18.366  0.2832 -0.0556 -0.3431
51846W        W94862   3.504  16.934  16.002 -0.2000 -0.1309  0.0209
51847W        W94863   0.956  29.854  27.581 -0.0484  0.3309 -0.1761
51848W        W94864  34.611  26.067   1.244  0.1383 -0.0619  0.2704
51849W        W94865   6.878   1.810  25.310 -0.1494  0.0855  0.0817
51850W        W94866  11.261  24.912  23.729  0.1431 -0.0499  0.1117
51851W        W94867  29.887  17.716  16.601 -0.0327  0.1279  0.0015
51852W        W94868   7.929  34.097  18.998  0.1147  0.0209 -0.0029
51853W        W94869  34.157  27.632  20.696 -0.0015 -0.0553 -0.2568
51854W        W94870   8.388  34.708  14.551  0.0131 -0.2592  0.0421
51855W        W94871  24.860  25.693  25.641  0.2567 -0.3379 -0.1394
51856W        W94872   4.976  14.598  17.753 -0.0317 -0.0839 -0.0070
51857W        W94873   7.352  25.554  28.197  0.1481 -0.3025 -0.0853
51858W        W94874  11.236  13.700  12.852 -0.0075 -0.0791  0.1146
51859W        W94875   8.910   4.362  28.937 -0.0099 -0.2068  0.1339
51860W        W94876   3.050   9.938  14.605  0.2295  0.2666 -0.1286
51861W        W94877   7.466  22.996  23.829  0.0712  0.3179  0.1039
51862W        W94878  19.666  15.317  13.743 -0.0734  0.1037  0.1164
51863W        W94879  10.854  24.566   2.466  0.1096 -0.2071  0.2277
51864W        W94880  29.642  25.264  18.611 -0.2526  0.0316  0.0803
51865W        W94881   4.027   9.040  14.748 -0.5759 -0.0259  0.3018
51866W        W94882  16.921  22.335  25.063 -0.1421 -0.2111  0.2463
51867W        W94883  29.782   9.195   0.952  0.2357  0.0873 -0.0428
51868W        W94884  13.921  26.930  22.721  0.3170 -0.1761 -0.2938
51869W        W94885  21.510  33.983  25.118 -0.0975  0.1639  0.0087
51870W        W94886  23.884  10.989  25.860 -0.0463  0.0970  0.1072
51871W        W94887  11.909  15.585   7.546  0.1338 -0.0194  0.3221
51872W        W94888  26.792  23.346  22.556 -0.0709  0.4838 -0.2602
51873W        W94889   6.217  15.518  20.658 -0.0067 -0.0930 -0.1198
51874W        W94890  25.909  21.619   6.659  0.0931  0.0024 -0.1180
51875W        W94891   6.906  24.336  18.365 -0.2509  0.2313 -0.0978
51876W        W94892   0.727  26.724  21.433 -0.1116 -0.0433 -0.2936
51877W        W94893  31.465  19.232  16.972  0.2320 -0.1993 -0.0758
51878W        W94894   8.239  19.005  13.126 -0.2937  0.2593  0.1522
51879W        W94895  13.260  18.675  14.059  0.0519  0.0996  0.1000
51880W        W94896  22.869  19.364  25.094 -0.1292 -0.1582 -0.0930
51881W        W94897  28.824   3.770  26.281 -0.0714  0.2021 -0.0178
51882W        W94898  28.844  28.477  23.733 -0.0898 -0.2492  0.0805
51883W        W94899   6.297  25.529  18.487  0.1749 -0.0293 -0.2503
51884W        W94900  24.537  23.267  19.009  0.1079 -0.1657 -0.0467
51885W        W94901  27.302   3.152  20.196  0.0577  0.1025 -0.0211
51886W        W94902  32.138  15.237  20.929 -0.0103 -0.0171 -0.1938
51887W        W94903   2.896  26.675  22.244 -0.0816  0.1233 -0.1494
51888W        W94904   0.996  22.465  20.109  0.1068  0.1140 -0.1447
51889W        W94905   3.473  26.042  25.428 -0.0448  0.1191  0.0529
51890W        W94906  30.327  16.542  20.481  0.0374  0.0241  0.3815
51891W        W94907  34.452  29.132  28.584  0.1236 -0.0829 -0.1467
51892W        W94908   9.959   5.066  23.148 -0.0608 -0.1538  0.1803
51893W        W94909   4.658  12.887  19.760 -0.2933  0.1989  0.0696
51894W        W94910  34.482  24.705   1.402 -0.1618  0.1340 -0.3496
51895W        W94911   4.154  31.122  16.860 -0.0291  0.2924  0.3593
51896W        W94912  30.048   0.049   2.218  0.2475 -0.3427 -0.0150
51897W        W94913  33.360  29.953  24.390  0.3115  0.5973 -0.1225
51898W        W94914  31.441  28.199  16.030  0.0087  0.0933  0.2412
51899W        W94915   2.024   9.754  19.657  0.1526 -0.1864 -0.0043
51900W        W94916  30.187  21.491  20.382  0.0437  0.2351 -0.2415
51901W        W94917   8.246  21.604  17.267 -0.1352  0.1837  0.2655
51902W        W94918   1.064  24.025  23.705 -0.1502 -0.2702  0.0754
51903W        W94919  25.311  16.155  22.794 -0.0689 -0.0205 -0.2360
51904W        W94920  32.977  13.669  25.940  0.1359 -0.0982  0.1037
51905W        W94921   8.929   5.154   7.257  0.2506  0.2237  0.0047
51906W        W94922  15.121   1.084  19.808  0.0952 -0.6070 -0.0029
51907W        W94923   1.159   8.871  26.683 -0.0071 -0.4076  0.0769
51908W        W94924  31.695  12.362   2.021 -0.2218 -0.2116 -0.2919
51909W        W94925  34.304  29.536  26.135  0.0884 -0.3376 -0.3167
51910W        W94926  10.529  32.572  20.556 -0.0053  0.0887 -0.2808
51911W        W94927  29.543  18.073  20.068 -0.4044  0.1078 -0.2418
51912W        W94928  30.456  34.180  26.821 -0.3613  0.0486 -0.1820
51913W        W94929   2.740  14.141  23.253  0.3008 -0.5556  0.0901
51914W        W94930  30.050  17.971  23.843 -0.0813 -0.1253 -0.2280
51915W        W94931   4.115  22.604  27.422  0.2080  0.0819 -0.0734
51916W        W94932  20.124  15.833  21.839  0.0183  0.1917  0.3380
51917W        W94933  24.791  18.959  21.939  0.3352 -0.1912 -0.1231
51918W        W94934  12.583  15.087  27.525 -0.0511 -0.1752  0.0411
51919W        W94935  33.577  18.630   1.214  0.0924 -0.1428  0.1355
51920W        W94936   9.563  24.523  16.765 -0.0550  0.0635 -0.0364
51921W        W94937  30.341  31.937  25.655  0.1544  0.0091 -0.0608
51922W        W94938   4.738  25.960   6.129  0.4311 -0.3390 -0.2945
51923W        W94939  33.550  16.790  14.975  0.4208  0.0442 -0.2115
51924W        W94940  30.268  22.689  24.407  0.1243 -0.0837 -0.1137
51925W        W94941  23.780   5.792  23.372 -0.0790  0.0139 -0.2685
51926W        W94942   7.972  26.619  21.356 -0.1802 -0.0792 -0.2703
51927W        W94943  32.154  23.379  23.504  0.2235 -0.0858 -0.2373
51928W        W94944   4.312  24.554  17.333  0.0720  0.3260 -0.2362
51929W        W94945   2.337  33.239   3.126 -0.0599 -0.2608 -0.1557
51930W        W94946  22.395  11.629  18.718  0.2185  0.1767 -0.1323
51931W        W94947  26.457  23.380   6.536  0.2612 -0.1096  0.0687
51932W        W94948   0.521  19.501  18.440 -0.3830  0.1801 -0.4190
51933W        W94949  22.957  21.442   3.357 -0.0137 -0.1201 -0.0547
51934W        W94950  19.236  21.827  28.449  0.1496 -0.0637  0.2128
51935W        W94951   1.414  25.732  16.425 -0.0920 -0.0306  0.1140
51936W        W94952  15.329   0.134   5.804 -0.0766  0.3527 -0.0885
51937W        W94953  18.022   4.416  15.548 -0.1948 -0.3616  0.5346
51938W        W94954  32.025  11.575  18.621  0.1133  0.4502 -0.2703
51939W        W94955  17.280  21.121   4.544  0.0826  0.1293 -0.0739
51940W        W94956   7.238  28.259   3.445 -0.1954  0.3823  0.1423
51941W        W94957  17.072  27.879  19.992 -0.0100  0.0967  0.1750
51942W        W94958  34.626  29.501  17.556 -0.0966 -0.2831 -0.2452
51943W        W94959  28.621  11.530  27.951  0.1051 -0.0833 -0.0386
51944W        W94960  22.302  24.077  14.759 -0.1446 -0.0319 -0.1172
51945W        W94961  31.787  28.201  19.123  0.2416  0.1176 -0.2610
51946W        W94962  19.239   1.822  18.629 -0.2278  0.0127  0.0750
51947W        W94963   1.663  24.123  24.925  0.1340  0.2665  0.0085
51948W        W94964  33.811  31.164  17.053  0.3297  0.0252 -0.0324
51949W        W94965   9.418  19.665  17.545 -0.3320  0.2931 -0.1643
51950W        W94966  31.230  11.702  23.875  0.2993 -0.4139  0.3425
51951W        W94967   1.014  18.811  17.197  0.0452  0.0216 -0.0538
51952W        W94968  29.705   1.121  24.217 -0.0883 -0.1798  0.0429
51953W        W94969  15.385  12.800  13.820  0.0384 -0.0794  0.1929
51954W        W94970  28.256  23.633  24.758  0.0322  0.1065  0.0470
51955W        W94971  23.619   8.276  17.509  0.0675  0.1250 -0.1171
51956W        W94972  31.037  30.834   4.720 -0.1374 -0.4373  0.0300
51957W        W94973  34.425  15.208   0.796 -0.1734  0.0502 -0.4839
51958W        W94974  31.779  15.627  24.711 -0.3220  0.1269  0.2417
51959W        W94975   2.049  27.195  28.276  0.0692  0.0904  0.1468
51960W        W94976  29.962  29.586   0.529 -0.0194 -0.2392 -0.2022
51961W        W94977  30.965  21.608   9.200 -0.2102 -0.3537 -0.0255
51962W        W94978  12.011  26.879  24.020  0.1624  0.2936 -0.1166
51963W        W94979   6.415  30.075   7.099  0.3927  0.2070  0.1549
51964W        W94980  33.410  20.898  19.662 -0.0664 -0.1949  0.1220
51965W        W94981  20.254  19.471  28.251  0.3635  0.0187  0.1754
51966W        W94982  25.481  27.602  17.510  0.0274  0.1195  0.0112
51967W        W94983   9.212  29.574  22.479 -0.1640  0.1162  0.1975
51968W        W94984   7.012  25.647  25.967 -0.0016 -0.2412 -0.0960
51969W        W94985  33.505  17.732  15.100  0.2106 -0.2863  0.2111
51970W        W94986  23.947  13.068  20.688  0.0167 -0.1330 -0.2382
51971W        W94987  18.803   1.294  20.747 -0.2012  0.1238 -0.0305
51972W        W94988   6.779  32.093  19.740 -0.2028  0.3018 -0.2002
51973W        W94989  31.206  28.239  18.958 -0.4299  0.0239 -0.2387
51974W        W94990  11.173  31.803  21.788 -0.0112  0.1288 -0.1281
51975W        W94991   5.827  18.377  15.973  0.0361 -0.0471 -0.2898
51976W        W94992   3.326  27.120  20.824 -0.1615  0.1564  0.0166
51977W        W94993   0.816  18.410  21.239  0.0914 -0.0924 -0.0616
51978W        W94994   9.393  29.530  17.795  0.2593  0.0845  0.0367
51979W        W94995  29.450   4.302  22.368  0.4049  0.3264 -0.0301
51980W        W94996   5.231  27.745   4.003  0.2360 -0.1597 -0.1181
51981W        W94997   4.835  27.704  20.021 -0.3842  0.1402 -0.0625
51982W        W94998  26.241   5.864  22.608 -0.1459 -0.1373  0.2368
51983W        W94999  27.645  29.541   6.412  0.1043  0.1505  0.1644
51984W        W95000  10.889   3.762  23.724  0.4399 -0.1207 -0.1066
51985W        W95001  32.489  10.892  28.712 -0.0388  0.0421 -0.2199
51986W        W95002  32.723  23.238  17.768  0.1571  0.0104  0.0372
51987W        W95003   1.559  20.048  23.394 -0.3520 -0.1186 -0.2049
51988W        W95004  25.916  14.494  20.352 -0.0503  0.1069 -0.2559
51989W        W95005  30.375  34.450  17.315  0.0372 -0.0926  0.1417
51990W        W95006   1.393  16.064  20.206 -0.1263 -0.0377 -0.1659
51991W        W95007  31.051  26.279   4.440 -0.0595  0.1757 -0.0036
51992W        W95008   5.633  25.633  23.711 -0.2275 -0.0275  0.1484
51993W        W95009   2.711  34.136  22.887 -0.0410 -0.1566  0.2736
51994W        W95010  25.339  20.612  26.455 -0.2792  0.0406 -0.1221
51995W        W95011   0.433   1.435  25.531 -0.1999  0.0428 -0.1521
51996W        W95012  27.914  30.545  24.680  0.1028 -0.2257  0.2677
51997W        W95013  15.419  34.188  18.123 -0.1550  0.1213 -0.1035
51998W        W95014   0.197  21.140  18.943  0.0001  0.2984 -0.1654
51999W        W95015  31.985  14.637  21.422  0.0793  0.1619 -0.0763
52000W        W95016  31.638  29.255   9.651 -0.1956 -0.1198  0.1510
52001W        W95017  20.214  23.955  16.696 -0.1907  0.1471  0.1795
52002W        W95018  21.983  21.965  22.961  0.0660  0.1534  0.2571
52003W        W95019  19.866  34.397  17.591  0.1949 -0.1903 -0.0503
52004W        W95020  25.409   8.429   1.297  0.1162 -0.0210  0.0653
52005W        W95021   6.155  21.453   1.901  0.2141 -0.0269 -0.0465
52006W        W95022  32.882  10.793  21.097  0.6127 -0.0896  0.1047
52007W        W95023   1.518  27.580  15.418  0.0195 -0.1915 -0.2253
52008W        W95024  21.936  11.984  22.027  0.0384 -0.2344  0.1682
52009W        W95025   5.083   0.787  17.744  0.2390  0.1716  0.2394
52010W        W95026  32.131  25.660  23.216  0.2847  0.0477  0.1093
52011W        W95027   3.173  28.648  15.107 -0.0445  0.0116  0.2689
52012W        W95028   6.389  25.777  21.977  0.0581  0.1208 -0.2138
52013W        W95029   7.390  24.653  28.711  0.2583 -0.1891 -0.0624
52014W        W95030  28.886  15.447  16.187 -0.0864  0.1611 -0.0467
52015W        W95031  27.827  30.335   5.882 -0.0083  0.1755 -0.0855
52016W        W95032  29.973  15.755  28.023  0.0153 -0.1056  0.0558
52017W        W95033   0.652  17.328  23.570 -0.2160 -0.1648 -0.2984
52018W        W95034  27.800  25.428  25.359 -0.0562  0.0304  0.1814
52019W        W95035   3.103  24.269  27.568 -0.1527  0.0613 -0.0816
52020W        W95036  17.243  26.933  16.190  0.0379  0.1454 -0.1925
52021W        W95037  32.542   0.902   4.453  0.1579 -0.1782 -0.2853
52022W        W95038   4.749   5.700  25.152  0.1388  0.3068  0.1893
52023W        W95039   6.268  32.332   6.033  0.1283 -0.0539 -0.0438
52024W        W95040  34.601  18.277  16.277 -0.3187  0.0309 -0.1215
52025W        W95041  31.344   2.947  17.309  0.0454  0.0812  0.0516
52026W        W95042  29.839  25.953  26.826  0.0129  0.0812  0.1356
52027W        W95043   2.690  32.682  19.625  0.0587  0.0129  0.0019
52028W        W95044   4.194  15.756  21.914  0.0693  0.3058 -0.5816
52029W        W95045   9.949  32.202   0.086  0.1312  0.2020  0.3087
52030W        W95046  15.445  23.536  24.363 -0.2766  0.3147 -0.1071
52031W        W95047  34.775  18.756  14.620  0.0383 -0.0755 -0.3271
52032W        W95048   5.603  28.302  18.919  0.0360  0.2013  0.1396
52033W        W95049   5.497  20.304   2.545 -0.0233 -0.1523  0.1135
52034W        W95050  12.084  34.378  19.942 -0.3991  0.0973  0.1575
52035W        W95051  27.850  12.883  18.785  0.1144 -0.1982 -0.0712
52036W        W95052  12.890   0.109  19.437 -0.0459  0.0368  0.3423
52037W        W95053  31.676  26.132  14.544 -0.0411  0.1320 -0.0930
52038W        W95054   1.445   0.755   9.255  0.0843 -0.1307 -0.0959
52039W        W95055  26.681  17.696  24.336 -0.2098  0.0522 -0.2463
52040W        W95056  25.583  32.015  23.782 -0.1158  0.2010  0.0609
52041W        W95057   0.854  29.175  15.526  0.0576  0.1202 -0.2410
52042W        W95058  26.093  34.320  27.262  0.3179  0.3041  0.0171
52043W        W95059  23.750  21.733   1.912 -0.1580 -0.1122 -0.0050
52044W        W95060  11.833  25.413  17.088  0.1576  0.0280  0.1528
52045W        W95061  29.447   3.750  16.303 -0.0021  0.0823  0.1741
52046W        W95062   0.997  29.998  25.342  0.1763  0.0729  0.2079
52047W        W95063  23.558  26.318   4.478  0.0000 -0.2449 -0.0681
52048W        W95064  31.064  17.065  22.692 -0.0465 -0.1366  0.0626
52049W        W95065  18.979   2.183   2.169 -0.1999  0.0684 -0.1293
52050W        W95066  22.826   5.214   7.000  0.1205 -0.0621 -0.1300
52051W        W95067  20.470  26.006  20.314 -0.4301 -0.1809  0.1275
52052W        W95068   8.535  20.945  24.730 -0.0880  0.2239  0.2359
52053W        W95069  25.537  22.203   3.306  0.1810 -0.1803 -0.0069
52054W        W95070  24.672  19.837  19.023 -0.1781 -0.1692  0.1010
52055W        W95071  18.448   4.823  24.812 -0.5477 -0.0157 -0.3807
52056W        W95072   2.107  21.713  13.747 -0.0911 -0.0579  0.0707
52057W        W95073   7.373  30.374  19.770  0.1702  0.0927 -0.3148
52058W        W95074   4.913  28.337  22.481  0.1976  0.2021  0.2245
52059W        W95075   7.326  16.179   7.077  0.3726 -0.2101  0.4274
52060W        W95076   1.370   7.249  24.846  0.1718 -0.1970  0.4292
52061W        W95077  27.335  28.723  21.356  0.1249  0.3808 -0.0694
52062W        W95078  24.131  21.582   9.551 -0.0062 -0.4082 -0.0485
52063W        W95079   7.368   1.861  22.384 -0.2233 -0.2750 -0.2957
52064W        W95080  16.328   9.241  23.545 -0.2439 -0.1568 -0.0917
52065W        W95081   9.522  19.948  19.993  0.3874 -0.3275  0.4261
52066W        W95082  24.100  32.421   5.701 -0.0670 -0.2709 -0.4605
52067W        W95083   3.674  17.318   8.101 -0.2679 -0.1413 -0.2386
52068W        W95084   7.915  21.200  24.663  0.0511  0.2758 -0.0313
52069W        W95085  25.404  20.274  26.099  0.3717  0.2029 -0.0927
52070W        W95086  32.697  25.828  25.162  0.0720  0.0231  0.1989
52071W        W95087   2.854  21.728   2.726  0.3753 -0.2278  0.1264
52072W        W95088   5.416   3.663  23.588 -0.2345 -0.1030 -0.0215
52073W        W95089  29.839  19.578  22.495  0.1821 -0.0313  0.1371
52074W        W95090  18.205  26.264   4.899 -0.0344  0.0893  0.0975
52075W        W95091   6.704  21.245  14.795 -0.0624 -0.1462  0.1330
52076W        W95092   2.741  15.592  28.966 -0.0274 -0.1480 -0.1798
52077W        W95093  18.173  13.112  16.305 -0.2379 -0.1000  0.1859
52078W        W95094   5.153  11.848  15.379 -0.1978 -0.0827 -0.0208
52079W        W95095  11.218   7.023  13.556 -0.2122  0.0309 -0.0847
52080W        W95096  11.882  10.640  28.208  0.1142  0.2097  0.4193
52081W        W95097  34.005  32.100   6.200  0.2973  0.2451  0.2637
52082W        W95098  24.906  25.854  17.196 -0.0194 -0.0660  0.0233
52083W        W95099  28.600  20.542  27.454  0.0881 -0.0026 -0.2282
52084W        W95100  29.370  29.022  28.010  0.0556 -0.0505  0.0665
52085W        W95101   3.256  31.896  16.099 -0.3565  0.1610 -0.1898
52086W        W95102   2.192  27.650  13.607 -0.0371 -0.2866  0.1333
52087W        W95103  27.923  28.943  16.556 -0.4135  0.1280  0.1666
52088W        W95104  29.768  26.075  23.430 -0.0203 -0.1078 -0.0463
52089W        W95105   3.608   2.727  14.167 -0.1951 -0.0686 -0.0018
52090W        W95106   4.155  21.138  15.391  0.2630  0.1452  0.0866
52091W        W95107  23.953   4.281  28.468 -0.1686  0.2181  0.1012
52092W        W95108  33.068  20.818  21.055 -0.1842  0.1791 -0.2649
52093W        W95109   5.602  19.330  27.610 -0.1321 -0.0073  0.1283
52094W        W95110  29.249  20.126  16.101  0.1247 -0.0275  0.0980
52095W        W95111   0.060   0.223  19.631 -0.0590 -0.0067  0.2000
52096W        W95112  19.579  31.547  19.150  0.2116 -0.2634 -0.1452
52097W        W95113  23.928  14.656  18.797  0.0999  0.2530 -0.4145
52098W        W95114  30.464  32.209  23.671  0.0244 -0.0779 -0.1999
52099W        W95115   7.627  20.180  20.116 -0.1708  0.1816 -0.2886
52100W        W95116  26.280  17.028  13.718  0.1767 -0.1161  0.1721
52101W        W95117  24.376  23.086  17.097 -0.0512 -0.0515 -0.0680
52102W        W95118  12.527   1.962  15.045  0.1405  0.2295 -0.3604
52103W        W95119   5.483  29.160  28.863 -0.2586  0.2510  0.1184
52104W        W95120   0.754  24.917  20.184  0.0968  0.2608  0.0270
52105W        W95121   6.180  29.289   6.100  0.2419  0.0900 -0.1990
52106W        W95122   1.599  33.728   7.386  0.0503  0.0718 -0.1613
52107W        W95123   0.567  13.739   3.614 -0.1869 -0.2192  0.0505
52108W        W95124  11.818  19.366  25.674 -0.0060  0.2525  0.3207
52109W        W95125  27.047  29.514  25.673  0.1551 -0.0725 -0.1732
52110W        W95126  31.912  15.054  16.860  0.0221 -0.0085 -0.3154
52111W        W95127  33.940   3.103  21.483  0.2564  0.1966 -0.3787
52112W        W95128  23.128   3.251  17.011 -0.0851  0.0690  0.1293
52113W        W95129  33.518  21.499   0.081 -0.0752 -0.1171 -0.0636
52114W        W95130  31.243  15.961  15.905  0.1232 -0.3124 -0.1361
52115W        W95131  27.820  23.179  22.124 -0.3044  0.0354  0.4387
52116W        W95132  30.337   0.242  17.345 -0.1948  0.0060 -0.3188
52117W        W95133   2.048  20.630  19.849  0.1470 -0.1977 -0.4625
52118W        W95134  27.501   0.473  23.443  0.2150 -0.0433  0.1478
52119W        W95135  11.832  24.558  20.480 -0.1684  0.2077 -0.0148
52120W        W95136   5.742   7.367  17.151 -0.1161  0.1223 -0.0863
52121W        W95137  34.452  10.307  25.069  0.0233 -0.1769 -0.0459
52122W        W95138   9.986   1.328  21.845 -0.0145 -0.0147  0.0047
52123W        W95139  12.411  29.052  23.843 -0.1168  0.2943 -0.0465
52124W        W95140  28.867  21.595  18.730 -0.2294  0.1233  0.1345
52125W        W95141  32.015  19.883  25.877 -0.0148  0.0180 -0.0147
52126W        W95142  29.216  12.485  27.760 -0.1695 -0.1648 -0.0503
52127W        W95143  12.433  32.707  27.264 -0.1239 -0.1481  0.1549
52128W        W95144  29.999   0.004  21.835 -0.3913  0.1462  0.1984
52129W        W95145   0.961  30.852  14.652 -0.0792  0.2189 -0.0435
52130W        W95146  27.333  22.529  18.474  0.1121 -0.1722 -0.2505
52131W        W95147   2.450   2.040  22.544  0.0783  0.0918  0.2569
52132W        W95148  23.992  16.607  25.987  0.0902  0.1691 -0.1081
52133W        W95149  28.525  30.503  16.106  0.3221  0.1168  0.1036
52134W        W95150  34.122  19.665   8.065  0.1906  0.0873  0.0307
52135W        W95151  27.415  24.123   0.457  0.0808  0.2613 -0.1173
52136W        W95152  28.147   9.496  14.866 -0.1062 -0.4484 -0.0439
52137W        W95153  12.763  32.588  23.021  0.2527 -0.0250 -0.2621
52138W        W95154  23.305  26.939   8.942  0.0374  0.1744  0.1929
52139W        W95155   3.278  24.184   0.351  0.3902  0.0049 -0.0993
52140W        W95156  27.782   2.782  16.135 -0.2017  0.0948 -0.0216
52141W        W95157  20.335  28.417  27.248  0.1323 -0.1881 -0.2825
52142W        W95158  31.900  16.914  28.214 -0.2249 -0.0910  0.0804
52143W        W95159  28.897  33.643  19.282 -0.0868  0.2436  0.1442
52144W        W95160   3.951   3.613  16.159  0.0073 -0.1813  0.2768
52145W        W95161   1.300  27.393  22.943 -0.0518  0.2340 -0.0895
52146W        W95162   7.736  29.371  25.619 -0.2463  0.3344 -0.2732
52147W        W95163  27.116  24.463   5.391  0.2842 -0.0099 -0.2329
52148W        W95164  22.278  34.365  21.729 -0.1604  0.2918 -0.2186
52149W        W95165   3.669  34.673   5.803  0.0825 -0.0775 -0.1031
52150W        W95166  22.295  31.814  24.621  0.0188 -0.0426  0.0390
52151W        W95167  26.090  14.433  22.417  0.0289  0.1235  0.0870
52152W        W95168  31.551  10.763  27.341  0.2431 -0.0023 -0.1344
52153W        W95169   7.850  23.853  17.400  0.3013 -0.1252 -0.0933
52154W        W95170  32.286  13.767  25.807  0.2193  0.2403  0.0042
52155W        W95171  34.617  15.507  17.162 -0.0731 -0.0582  0.1041
52156W        W95172   2.871  30.811  20.250 -0.2630 -0.2846 -0.0392
52157W        W95173  25.077  26.784  29.267 -0.0321  0.1732  0.1635
52158W        W95174  14.779  27.242  27.466 -0.0731 -0.0733 -0.0335
52159W        W95175   0.668  16.008  21.538  0.1970 -0.0510 -0.1212
52160W        W95176  31.279  25.905  16.572 -0.0902 -0.3983  0.4786
52161W        W95177  22.577  23.490  18.028 -0.1134  0.1324 -0.0965
52162W        W95178  34.014  33.176  20.102  0.0660  0.0095  0.0904
52163W        W95179  34.399  12.135  20.084  0.0325  0.0976 -0.2137
52164W        W95180   8.709  33.585   4.968 -0.1063 -0.0839 -0.0214
52165W        W95181   1.043  29.363  20.366 -0.0697  0.1144 -0.0728
52166W        W95182   2.077  34.727  28.237  0.0945 -0.2312 -0.1359
52167W        W95183  27.877  11.850   2.990  0.1344 -0.2556 -0.1129
52168W        W95184  31.822  29.136   2.484  0.2582  0.3140 -0.0084
52169W        W95185   0.668  11.657   7.865 -0.0816 -0.2489  0.1792
52170W        W95186   1.335  16.447  15.869 -0.0463 -0.0054 -0.0654
52171W        W95187  11.861  14.962  22.599  0.3817 -0.4248  0.0954
52172W        W95188  29.291  18.496  20.364 -0.4082 -0.0009  0.0443
52173W        W95189  28.445  30.948   2.751  0.0801  0.0755 -0.0660
52174W        W95190  31.712  14.989  21.202 -0.0731  0.1444 -0.3723
52175W        W95191  20.133  20.601  13.329  0.0375  0.0821 -0.1468
52176W        W95192  22.016  21.424   0.388 -0.0216 -0.0183  0.1407
52177W        W95193   2.723   2.393  20.859 -0.2844 -0.2417  0.1508
52178W        W95194  29.425  26.514  23.527  0.0410  0.0147  0.1128
52179W        W95195   7.197   6.325  22.555  0.1950 -0.0351 -0.1084
52180W        W95196  13.524   4.003  23.292 -0.0484  0.0899 -0.4077
52181W        W95197  10.148  19.282  27.840  0.0718 -0.2295 -0.2859
52182W        W95198  23.448  18.782  15.118 -0.0103 -0.5856  0.0465
52183W        W95199  31.791  11.799   0.856  0.4088  0.1452  0.2515
52184W        W95200  20.738   2.416  19.040 -0.3263  0.3933 -0.2008
52185W        W95201  21.879  27.530   2.387  0.1776 -0.0914 -0.2300
52186W        W95202  22.470  19.897  19.736  0.0510 -0.1113 -0.0749
52187W        W95203  30.838   7.647  19.728 -0.3824  0.0515  0.2104
52188W        W95204  12.934  20.891  15.110  0.0132  0.1233  0.0483
52189W        W95205  25.407  27.412   3.485 -0.3404  0.2145  0.5432
52190W        W95206   2.708   5.268  18.992  0.2971  0.0684 -0.4277
52191W        W95207  22.677  14.760   2.411 -0.1403 -0.1760 -0.1752
52192W        W95208   7.580   0.063  19.817  0.0730  0.0897  0.1447
52193W        W95209  25.383  19.589  26.605  0.0041 -0.0009  0.0096
52194W        W95210  32.252  15.686   1.510 -0.1446  0.1523  0.0849
52195W        W95211   3.254  22.536  24.920  0.1089 -0.0042 -0.0398
52196W        W95212  10.403  18.308  17.799  0.3567  0.0033  0.0843
52197W        W95213   3.174  25.456  26.940 -0.0727 -0.1383  0.1125
52198W        W95214  29.492  33.475  19.149  0.2082  0.1163 -0.1914
52199W        W95215  33.459  17.957   9.643  0.0746 -0.2720 -0.3107
52200W        W95216  15.304  23.484  12.888  0.3457  0.1226 -0.1595
52201W        W95217  21.168  29.661   4.590  0.0901  0.0392  0.1780
52202W        W95218  32.056  10.737  14.033  0.1737  0.2579  0.1005
52203W        W95219  20.902  26.372  19.197  0.1733 -0.0461  0.0684
52204W        W95220   6.297   6.258  21.989 -0.0507  0.0129  0.1978
52205W        W95221  28.040  17.153  25.970  0.1513  0.0292  0.0265
52206W        W95222   9.872  21.441  21.714 -0.0848 -0.0962  0.3219
52207W        W95223  27.990  17.621  13.708 -0.0456  0.1705  0.1250
52208W        W95224  27.657  30.356  26.405 -0.1531  0.1168 -0.0268
52209W        W95225  29.358  28.735  28.444  0.2530  0.0505  0.0695
52210W        W95226   4.485  23.467   8.997 -0.0838 -0.2251 -0.0771
52211W        W95227  30.466   7.151   7.074 -0.0776 -0.7334 -0.3293
52212W        W95228  23.969  26.363  18.652 -0.1680 -0.1585 -0.0430
52213W        W95229  29.999  26.265  16.566 -0.0016  0.0295 -0.1982
52214W        W95230   3.886  26.264  25.644  0.0003  0.0098  0.1705
52215W        W95231  24.845  11.418  21.571 -0.0684  0.3511 -0.1918
52216W        W95232  27.345  12.703  16.428 -0.2311 -0.0214 -0.0692
52217W        W95233   8.137  25.378  19.900  0.2161 -0.0306 -0.3338
52218W        W95234   8.049  20.852   1.498  0.2055  0.1555 -0.2598
52219W        W95235   0.108  17.678  27.490 -0.2105 -0.3393 -0.2013
52220W        W95236   2.456  19.650   9.716  0.0257 -0.3070  0.2806
52221W        W95237   3.555  23.901   3.344 -0.2887 -0.0614  0.1039
52222W        W95238  26.880  27.420   1.598  0.0869 -0.0426  0.1442
52223W        W95239   7.088  25.516   3.173  0.2225 -0.0673  0.1771
52224W        W95240  29.576  23.220   5.382  0.0480  0.0512 -0.2862
52225W        W95241  16.024  29.412   3.363 -0.0720 -0.0278  0.1571
52226W        W95242  26.240  19.193  20.982 -0.1288  0.1229 -0.0277
52227W        W95243  25.484  22.354  28.752 -0.2190  0.3738 -0.0308
52228W        W95244   0.228  14.916  26.592 -0.0836 -0.3495  0.1830
52229W        W95245  27.981   6.052   1.483  0.0609 -0.3758 -0.0021
52230W        W95246  11.594  28.867  15.450  0.1848 -0.3213 -0.0619
52231W        W95247   0.576  19.668  26.159  0.2935 -0.0255  0.3617
52232W        W95248  31.489  28.035  17.959  0.1843 -0.0906  0.2169
52233W        W95249  31.164  27.425   6.266 -0.1131  0.0365  0.1584
52234W        W95250   4.490  14.195   5.715 -0.0949  0.0893  0.0772
52235W        W95251   7.868  30.573  14.247 -0.2539  0.1486 -0.0126
52236W        W95252  23.478  30.422  28.407  0.4638 -0.1398 -0.0089
52237W        W95253  29.098  33.752   5.547  0.1858  0.0109  0.2329
52238W        W95254   0.480   0.740  22.341  0.0751 -0.2020  0.1699
52239W        W95255  25.979  17.762  26.660 -0.1824 -0.0184  0.0502
52240W        W95256  30.870  17.961  22.152  0.0466  0.2998  0.2565
52241W        W95257  21.472  30.513  22.323 -0.2743  0.1590  0.0547
52242W        W95258  18.810  11.803  12.914  0.0242  0.0749 -0.1495
52243W        W95259  28.194  22.989   1.840 -0.0249 -0.0770 -0.3412
52244W        W95260   8.311   9.410  16.916 -0.2656  0.1623 -0.2698
52245W        W95261  32.089  25.091   7.392  0.1402  0.0081  0.4749
52246W        W95262  16.897  34.530  17.311 -0.2315  0.2517  0.2234
52247W        W95263   0.162  15.902  20.612 -0.3570 -0.0442 -0.1404
52248W        W95264   1.655  21.901  20.213  0.2682 -0.0498  0.0922
52249W        W95265   3.759   9.877  27.445  0.0962  0.0973  0.2396
52250W        W95266  29.255   6.029  21.398 -0.2036  0.0460 -0.0754
52251W        W95267   9.909  30.954   0.858  0.1233 -0.1580 -0.1351
52252W        W95268   7.356  32.205  26.365  0.0962  0.3464 -0.0130
52253W        W95269  33.838  20.656  15.930  0.0419  0.1334  0.0325
52254W        W95270  12.635  13.654  13.067  0.0747 -0.1049  0.1989
52255W        W95271  26.791  11.866   2.004 -0.1778 -0.0402  0.5164
52256W        W95272   8.003  18.351  19.443  0.1236 -0.1337  0.3997
52257W        W95273  32.707  21.600  15.272  0.0133 -0.1767  0.1260
52258W        W95274  12.886  16.276   7.037 -0.2080  0.3048  0.1179
52259W        W95275   4.680  30.587  17.398  0.1735 -0.1012  0.2529
52260W        W95276  26.058  30.506   2.814 -0.0558 -0.0539  0.0381
52261W        W95277  30.367  33.691  21.405 -0.0812 -0.0435  0.2971
52262W        W95278   7.107  21.269  26.850 -0.0723 -0.3271 -0.0531
52263W        W95279  21.522  23.222   4.941  0.0531  0.0916 -0.3727
52264W        W95280   3.275  23.784   1.205  0.2923  0.2564 -0.2025
52265W        W95281  34.021  19.289  25.370 -0.1759  0.1939  0.0452
52266W        W95282   4.346  25.258  18.262 -0.0678 -0.0378  0.1253
52267W        W95283  22.397  11.062  19.093  0.0933 -0.3587  0.0662
52268W        W95284  32.520  23.953   0.574 -0.0749 -0.0111  0.0687
52269W        W95285   3.174   5.955  25.279 -0.0940  0.0783  0.0183
52270W        W95286  26.731  13.543   8.747  0.0652 -0.1583 -0.2180
52271W        W95287  26.288  29.923  17.244  0.3933  0.2778  0.0228
52272W        W95288  28.442  21.151  20.018  0.1081 -0.1710  0.1785
52273W        W95289  31.160  26.504  20.137 -0.2871 -0.1355  0.1829
52274W        W95290  30.973  29.236  15.006 -0.3211 -0.4684  0.2199
52275W        W95291  23.187   2.207  27.954  0.1052 -0.0079  0.1041
52276W        W95292  29.188  32.602  16.302  0.0845  0.1392  0.2558
52277W        W95293  34.398  15.275   8.825 -0.0182  0.1808 -0.0084
52278W        W95294   8.001  15.102  12.539 -0.3736  0.3521  0.0762
52279W        W95295  29.605  30.435  21.629 -0.3768 -0.0981  0.1701
52280W        W95296   0.867  26.814   0.311  0.3159 -0.3949  0.1433
52281W        W95297  31.177   8.119  24.746  0.0952 -0.4231 -0.1172
52282W        W95298   8.841   0.016  28.185  0.0988 -0.1457 -0.1682
52283W        W95299  12.625  25.441  18.925 -0.2165  0.0894  0.1915
52284W        W95300  14.260  12.555  23.538 -0.2375  0.0331  0.1696
52285W        W95301  31.494  13.668  17.903  0.2290  0.0624 -0.0439
52286W        W95302   3.355  16.196  28.746 -0.2203  0.1093  0.1064
52287W        W95303  28.006  16.890   1.864 -0.0647  0.1286  0.3758
52288W        W95304  31.085  15.276  15.381  0.0728  0.0523 -0.0825
52289W        W95305  24.057  25.072  20.344  0.1020  0.0490  0.0077
52290W        W95306  34.551  14.074   0.143 -0.3700 -0.1152  0.0168
52291W        W95307  22.336  30.836  22.027 -0.0823  0.1527  0.3026
52292W        W95308  32.557  32.405   9.499 -0.2147  0.1452  0.4888
52293W        W95309  26.397  19.661  17.967  0.1254 -0.1031  0.1640
52294W        W95310   6.755  31.894  21.076  0.2155 -0.5295  0.0529
52295W        W95311  19.722  14.497   3.357  0.1009 -0.2252 -0.0732
52296W        W95312   3.528  20.250  26.988  0.0156 -0.0835 -0.0831
52297W        W95313   8.475  16.510  28.187 -0.0165 -0.1246 -0.0467
52298W        W95314  34.678   3.730   2.135  0.0502  0.1062  0.2258
52299W        W95315  32.252  14.951   2.625  0.0865  0.3859  0.2067
52300W        W95316   0.004   7.463  18.539 -0.0626 -0.0055 -0.1288
52301W        W95317  30.208  26.406  18.037  0.1476  0.1605 -0.1525
52302W        W95318  33.067  33.856  22.763 -0.0742  0.1138 -0.0286
52303W        W95319   5.350  26.126  26.006  0.3754  0.1008  0.1515
52304W        W95320  17.752   0.333   3.933 -0.0136  0.2396  0.2417
52305W        W95321   2.728  14.630  23.034  0.0643  0.0462 -0.1587
52306W        W95322  26.630  28.736  26.063 -0.0036  0.0946 -0.2051
52307W        W95323   1.113  11.060  16.762 -0.0526  0.3309 -0.1894
52308W        W95324  26.047  28.124   5.046  0.0465 -0.2387 -0.2045
52309W        W95325  26.517   2.782  20.590 -0.2305 -0.0002 -0.0916
52310W        W95326   2.205  32.756   2.975 -0.3738 -0.0188  0.2729
52311W        W95327  10.191  32.588   7.433 -0.1405  0.1804 -0.0091
52312W        W95328  26.155  22.684   9.669  0.1696 -0.2112 -0.1308
52313W        W95329  27.566  19.533  28.187  0.3227  0.3264 -0.2249
52314W        W95330  33.938  34.195  27.374 -0.2037 -0.0052  0.0465
52315W        W95331  12.750  20.911  22.116  0.3036 -0.0650  0.1038
52316W        W95332  21.872  33.363  17.215 -0.2619 -0.1890 -0.2599
52317W        W95333  28.040  34.713  18.707  0.1042  0.0602 -0.0393
52318W        W95334  23.610  33.623   6.622  0.1554 -0.1466  0.0369
52319W        W95335   7.079  34.188  27.988  0.0755 -0.3764 -0.2199
52320W        W95336   4.455   5.034   8.115 -0.1474 -0.0914 -0.1428
52321W        W95337   2.655  20.632  24.616 -0.0784 -0.0793 -0.1545
52322W        W95338  29.983   1.886  27.786  0.0282  0.2184  0.0547
52323W        W95339  29.502  20.668  15.051 -0.0345 -0.2479  0.0928
52324W        W95340   2.725   2.268  26.369 -0.1892  0.1433  0.1553
52325W        W95341   2.466  29.670  23.873 -0.0262  0.3576  0.0259
52326W        W95342  29.346  26.651  26.453 -0.2193  0.4497 -0.0359
52327W        W95343   8.580  20.199   3.253  0.4008  0.0642  0.1933
52328W        W95344  15.308   3.938   1.373  0.0844  0.2889 -0.1114
52329W        W95345  33.789  21.241  21.306 -0.2371 -0.0722  0.0487
52330W        W95346  23.998  14.888  20.468 -0.2261 -0.2329 -0.1481
52331W        W95347  17.600  32.072   8.832  0.2740  0.2918 -0.0390
52332W        W95348  28.766  18.810  29.295  0.3159  0.1063 -0.0676
52333W        W95349  13.740  19.521  19.337 -0.1102  0.2074  0.1086
52334W        W95350   1.120  24.721  25.695 -0.0468  0.0605 -0.2740
52335W        W95351   4.689  33.695   0.396 -0.1042  0.1820  0.1793
52336W        W95352  31.692  24.505  20.020 -0.1931 -0.1922  0.1367
52337W        W95353  29.466  24.119   7.940 -0.0091 -0.1271 -0.0414
52338W        W95354  23.195  15.989  18.674 -0.0400 -0.0363 -0.1309
52339W        W95355   8.414  21.290   0.563 -0.1614 -0.3871  0.0217
52340W        W95356  16.125  16.712  25.922 -0.1017  0.1309 -0.0416
52341W        W95357   9.894  15.480   6.313  0.1936  0.1472  0.3259
52342W        W95358  32.499  19.925   1.949 -0.0350 -0.1295  0.1331
52343W        W95359  30.989  18.964  24.148 -0.3820  0.0153  0.0898
52344W        W95360  30.789   9.915   9.792 -0.2240  0.0128  0.5834
52345W        W95361  24.793  16.248   5.398 -0.0106  0.0431 -0.3572
52346W        W95362  29.382   2.135   5.758 -0.0503  0.3758 -0.0282
52347W        W95363  28.539  28.053  27.318 -0.0530 -0.3216 -0.0577
52348W        W95364  34.176  21.539   7.831 -0.3771  0.1840  0.4217
52349W        W95365   8.317  13.500  25.430  0.0906 -0.0814 -0.1795
52350W        W95366  30.092  23.041  18.847  0.0044  0.1108  0.3681
52351W        W95367  11.415  21.631  28.813  0.0356  0.2048  0.1729
52352W        W95368   7.502  16.402  28.421  0.2569  0.0571 -0.0415
52353W        W95369  22.994  29.505  17.306 -0.3852 -0.2351 -0.1208
52354W        W95370   1.366  18.558   4.938  0.0179 -0.2145 -0.0625
52355W        W95371   9.020   9.405  18.954  0.1785  0.0898 -0.2998
52356W        W95372   2.463  28.259   3.923  0.3684 -0.0679 -0.1432
52357W        W95373   2.756  23.170  25.044  0.0396  0.0185  0.1858
52358W        W95374  28.077  22.607   2.133  0.1781  0.1818 -0.3340
52359W        W95375  11.530  16.148   1.664 -0.1369 -0.0266 -0.1293
52360W        W95376  34.536   3.912   5.121  0.2639 -0.3525  0.2343
52361W        W95377  30.344  33.156  20.882 -0.4054 -0.0498 -0.3196
52362W        W95378  21.498  12.798  18.248 -0.1287 -0.0638 -0.2332
52363W        W95379   2.403   0.799   0.428  0.2055  0.2688 -0.2791
52364W        W95380  24.382  24.259   5.067 -0.1020  0.0058  0.3550
52365W        W95381  22.638  18.253   2.422 -0.3863  0.0542 -0.1248
52366W        W95382   4.231  30.726   3.156  0.2129  0.0095 -0.0074
52367W        W95383  26.834  18.361  22.527 -0.3108  0.1635  0.2707
52368W        W95384   4.476  27.601   0.455  0.1312  0.0124 -0.0841
52369W        W95385  17.830  28.375   9.474 -0.0149 -0.0568 -0.0261
52370W        W95386  14.134  24.771   4.217 -0.2878  0.0380  0.0128
52371W        W95387  20.964   1.195   8.856  0.2032 -0.0215 -0.2298
52372W        W95388   3.295  33.218  16.634 -0.2289  0.2929  0.1247
52373W        W95389  10.867  33.512  20.375 -0.0178 -0.3956  0.3328
52374W        W95390  30.922  32.869  24.649 -0.1936  0.1981  0.0542
52375W        W95391  22.222   7.777   3.563 -0.2643  0.0602 -0.0390
52376W        W95392  15.654  18.597  26.724 -0.0205 -0.2061 -0.4022
52377W        W95393   2.695   3.448   4.581 -0.1887 -0.1458 -0.3056
52378W        W95394   8.820  17.769   5.291 -0.4172 -0.0235  0.2554
52379W        W95395   1.593   5.002  26.677 -0.1723  0.1970  0.2184
52380W        W95396  15.313   8.098  20.053  0.0777 -0.1637  0.2850
52381W        W95397   5.140  28.256  28.304  0.2239  0.0558  0.0675
52382W        W95398  25.614  24.575  27.013  0.2512  0.2960 -0.0289
52383W        W95399  22.514  25.867   3.507  0.0529 -0.1198 -0.3962
52384W        W95400  24.400  19.782  24.993 -0.0778 -0.0516  0.0465
52385W        W95401  30.309  29.249   6.896 -0.0462  0.4261 -0.3567
52386W        W95402   1.314   3.386  15.136 -0.1986  0.1220  0.0876
52387W        W95403   5.569   1.300   4.371  0.1939 -0.1433  0.2575
52388W        W95404  33.203  31.149  27.876 -0.1215 -0.0017 -0.3230
52389W        W95405  30.881  24.589  14.608 -0.1680  0.0418  0.1358
52390W        W95406  26.772  19.330  15.248 -0.0277 -0.0967  0.1936
52391W        W95407  33.220  19.210  19.214 -0.1737 -0.0747  0.0170
52392W        W95408  20.575  26.336  19.942  0.1553  0.3478 -0.1693
52393W        W95409  28.044  23.372  16.770 -0.0887 -0.1115  0.3053
52394W        W95410   3.311  15.000   2.296  0.0172  0.2498  0.2913
52395W        W95411  22.112   5.102   6.468  0.2576  0.1044  0.1480
52396W        W95412   9.649   4.235  14.576 -0.0673 -0.0880 -0.1483
52397W        W95413  14.159  25.482   5.025 -0.1937 -0.1075  0.3297
52398W        W95414   2.333  17.312  18.607 -0.0174 -0.3251 -0.1588
52399W        W95415   6.589  20.519  14.204  0.0318 -0.0570 -0.0428
52400W        W95416  20.164   5.554  20.579  0.0540 -0.1406 -0.1858
52401W        W95417   6.741   0.495   7.154 -0.0734  0.1591  0.1088
52402W        W95418   8.671  27.793   4.461 -0.0102  0.0205  0.2241
52403W        W95419   6.857  20.805   7.295  0.1103 -0.0808  0.3466
52404W        W95420   5.690  21.068   0.267  0.2120 -0.2947  0.0833
52405W        W95421  29.448  28.773  18.719  0.2129 -0.3436  0.0349
52406W        W95422  26.534  24.492   0.594 -0.1768 -0.3085  0.1564
52407W        W95423  30.441  20.270  24.363  0.0903 -0.2740  0.1786
52408W        W95424  25.548  16.072  22.089 -0.2139  0.0418  0.3546
52409W        W95425   8.203  19.226  27.178 -0.2894 -0.0182  0.1645
52410W        W95426   4.105  15.002  27.542 -0.2866 -0.0648 -0.1627
52411W        W95427  10.657  20.617  19.753 -0.0589 -0.0771  0.1516
52412W        W95428  23.496  33.635  20.605 -0.1350 -0.2490 -0.0304
52413W        W95429   8.181  21.846   6.302  0.0198 -0.0290 -0.0937
52414W        W95430   0.901  21.268  25.642  0.1749 -0.0642 -0.0311
52415W        W95431  30.474   3.804  18.752 -0.0597 -0.2162 -0.2283
52416W        W95432   2.411  17.637  21.454  0.0263 -0.1440  0.2856
52417W        W95433  25.316  21.365  20.174 -0.2062 -0.1470  0.1352
52418W        W95434   3.828  17.253  25.485  0.2531 -0.0351  0.2136
52419W        W95435  10.020  27.711  20.563 -0.1995  0.2357  0.0458
52420W        W95436   0.200  20.232   9.567  0.1110  0.2596 -0.0443
52421W        W95437   5.552  33.944  28.117  0.4413 -0.4628 -0.1046
52422W        W95438  31.115  18.917  15.043 -0.3040  0.0396 -0.2571
52423W        W95439   0.663  29.346  19.934 -0.1016 -0.1299 -0.1008
52424W        W95440  20.059  22.187  16.277  0.0200  0.0594 -0.0578
52425W        W95441   9.868  10.717  28.834  0.1320  0.1634  0.0349
52426W        W95442   4.133  23.842   7.231 -0.0814  0.0327  0.3448
52427W        W95443   8.458  30.070  28.657 -0.1627  0.1523 -0.1187
52428W        W95444   6.628  26.880  23.060 -0.1456  0.0486 -0.3841
52429W        W95445  12.016  25.727  14.940 -0.1344 -0.4252 -0.1398
52430W        W95446  29.567   8.688   9.341  0.3417  0.1550  0.0701
52431W        W95447  26.291  21.755   1.649 -0.3741 -0.2255  0.2430
52432W        W95448  28.974  27.537   7.156  0.1422  0.1690 -0.0692
52433W        W95449  32.893  23.881  27.149  0.1488 -0.0044  0.4150
52434W        W95450  28.938  16.991   2.291  0.0294  0.0024 -0.2590
52435W        W95451  23.209  26.433  26.361  0.0915 -0.0326 -0.1356
52436W        W95452  29.058  12.433  19.376 -0.0121  0.0838  0.3090
52437W        W95453  27.167  11.461  22.236 -0.2866 -0.0441  0.0412
52438W        W95454  34.065   9.133   7.860 -0.0821 -0.1180 -0.2928
52439W        W95455   1.596  15.232  19.730 -0.3038  0.1261  0.0244
52440W        W95456   5.219  20.620  14.974  0.1380  0.0794  0.1272
52441W        W95457   5.879   2.108  24.270 -0.3427  0.3181  0.1275
52442W        W95458  31.860  25.198  27.454  0.3073  0.1803 -0.1886
52443W        W95459   9.348  34.647   5.469 -0.2060 -0.2691  0.0507
52444W        W95460   8.337  28.552  26.481  0.0762 -0.0585 -0.0932
52445W        W95461  33.756  26.130  21.895  0.1052 -0.0087  0.0309
52446W        W95462  31.757  31.119  29.125 -0.0644 -0.1643 -0.1822
52447W        W95463  34.506  25.308  23.195  0.0044  0.0303  0.1774
52448W        W95464   6.909  30.896  19.086 -0.1846 -0.0063  0.0768
52449W        W95465   2.995   2.669  25.515  0.2194  0.0879 -0.2814
52450W        W95466   6.370  10.263  20.648  0.0200 -0.0216 -0.0486
52451W        W95467  27.544  24.768   4.525 -0.1131 -0.0978 -0.0313
52452W        W95468   3.945  24.908   2.812  0.2229  0.0280  0.0293
52453W        W95469  12.557   3.911   3.477  0.4837 -0.0221  0.0106
52454W        W95470  28.580  30.839  10.707  0.1907 -0.0461  0.0586
52455W        W95471  12.190  15.898  26.395 -0.1512 -0.1335 -0.1657
52456W        W95472   5.862  17.288   7.542 -0.1355 -0.0645  0.1133
52457W        W95473   5.942  32.094  27.229  0.2250  0.0527  0.0357
52458W        W95474  18.562  27.231  29.157  0.1167 -0.1078 -0.1492
52459W        W95475   6.760  23.595  26.567 -0.2596 -0.4753 -0.1207
52460W        W95476  23.239  18.928  23.348  0.3142  0.1568 -0.0095
52461W        W95477  22.876  27.306   4.484 -0.0417 -0.0538 -0.0690
52462W        W95478   3.174   5.450  21.244  0.2667 -0.4572  0.0004
52463W        W95479   2.484  13.244  21.005  0.1462 -0.1163  0.2319
52464W        W95480  28.258  26.516   0.837 -0.1054  0.0079 -0.1924
52465W        W95481  30.127  26.005  18.731  0.2490  0.1705 -0.0145
52466W        W95482  32.389  12.414   3.721  0.2243  0.2256 -0.1361
52467W        W95483  20.985   5.589  19.839  0.1053 -0.4383 -0.0012
52468W        W95484   0.571  26.250   2.327 -0.0651 -0.2788  0.2046
52469W        W95485  16.231  24.430  28.282  0.1398  0.0190 -0.1455
52470W        W95486   0.590  20.466  20.157  0.1912 -0.1673 -0.2081
52471W        W95487  28.024  13.776   2.787  0.1903  0.0066  0.0328
52472W        W95488  29.943   4.635  23.490  0.2346 -0.6387  0.0535
52473W        W95489  29.232   8.260   5.463  0.2898  0.1553 -0.1286
52474W        W95490  26.839  29.494  15.636  0.2145 -0.2504 -0.2348
52475W        W95491  23.766  30.702  23.918  0.0102  0.3969 -0.1617
52476W        W95492  25.793   3.832   4.601 -0.1866  0.0076  0.1981
52477W        W95493  27.103  19.226  27.391 -0.0561 -0.1838  0.4175
52478W        W95494  21.068  20.381   0.851 -0.2039 -0.2853  0.0128
52479W        W95495  25.095   4.844  29.283  0.0987 -0.0512 -0.2507
52480W        W95496   3.085   5.815   9.178 -0.2026  0.3041  0.2922
52481W        W95497  30.339  27.315   2.757 -0.1094  0.0297 -0.4339
52482W        W95498  15.730   3.596  28.554  0.3314 -0.3307 -0.1259
52483W        W95499   4.205  18.271   8.811 -0.2459 -0.1212 -0.0408
52484W        W95500   1.100  21.812   4.176  0.1623  0.0642 -0.0589
52485W        W95501   1.579  19.050  17.800 -0.2592 -0.0410 -0.0962
52486W        W95502   9.597   7.924  16.881  0.3149 -0.1230  0.0036
52487W        W95503  30.919  12.439  19.123  0.2319 -0.0728 -0.0120
52488W        W95504  21.019  17.900  20.777  0.1658  0.3277 -0.0465
52489W        W95505  13.261   8.328   3.273  0.0354 -0.1124  0.3007
52490W        W95506  20.089   2.032   3.802  0.2795 -0.2452  0.1273
52491W        W95507  34.664  18.998  25.703 -0.1745  0.1527 -0.0573
52492W        W95508  22.083  11.116  21.789 -0.3774 -0.3052 -0.0285
52493W        W95509  27.724  31.706   4.872 -0.0227  0.0257  0.2586
52494W        W95510  11.107  26.687   7.333 -0.0348 -0.1736  0.1341
52495W        W95511  19.264  22.817  15.158  0.4010  0.2241  0.1340
52496W        W95512   8.406  27.564  17.219 -0.1179 -0.2914  0.1937
52497W        W95513  27.616  16.105  25.337  0.1688  0.0600 -0.2682
52498W        W95514  29.806  25.224  27.558  0.2973  0.1940  0.1931
52499W        W95515   1.676  23.912   4.052 -0.2464 -0.0494  0.2993
52500W        W95516   0.994  21.799   6.843 -0.1836  0.4311  0.2447
52501W        W95517   5.775  29.538  19.563 -0.2540 -0.2765  0.0411
52502W        W95518   3.333   1.483  24.753  0.2356 -0.0737 -0.1943
52503W        W95519  33.907  31.317  28.398  0.1948  0.0018 -0.1112
52504W        W95520   3.854   7.752  28.956  0.3711 -0.3716 -0.0134
52505W        W95521   0.561  27.711  27.723  0.2090  0.4051  0.2665
52506W        W95522  29.550   9.447  15.855 -0.0817  0.0095  0.2098
52507W        W95523  14.615  27.195   5.891  0.0595 -0.4169 -0.0729
52508W        W95524   6.741  21.962   5.644  0.0741  0.0251 -0.1076
52509W        W95525  21.613  20.886   3.619  0.3629 -0.0489  0.1301
52510W        W95526   1.411   4.002   0.920 -0.1399 -0.1226  0.0949
52511W        W95527  25.468   6.697   9.152  0.0096 -0.4103  0.1101
52512W        W95528  10.720  21.867  14.725 -0.0142 -0.1456 -0.0711
52513W        W95529  32.461  15.648   1.043  0.3995 -0.0935  0.1395
52514W        W95530   0.362  23.296  10.479  0.1764 -0.3899 -0.5411
52515W        W95531   5.263  27.131   6.119  0.2213  0.1060  0.0523
52516W        W95532   1.285   7.249   3.120 -0.1558  0.0603 -0.1631
52517W        W95533  24.840   0.274  28.483 -0.6657  0.0723  0.0022
52518W        W95534  12.835  32.028  26.612  0.0762 -0.1059  0.0030
52519W        W95535  12.248  21.622   4.915  0.3384  0.3098 -0.1154
52520W        W95536   5.746  22.416  15.980  0.0235  0.2651 -0.1107
52521W        W95537   7.406  28.593  14.195 -0.1350  0.0689 -0.1747
52522W        W95538   6.135  23.142   3.969  0.1951  0.0033 -0.3196
52523W        W95539  20.340  27.842  27.132 -0.1125  0.1966  0.0587
52524W        W95540  19.566  32.508   8.485 -0.2511  0.1692  0.2932
52525W        W95541  12.840  22.198  17.583 -0.0219 -0.1727 -0.0592
52526W        W95542  23.267  24.020  10.322  0.2602 -0.2385  0.1216
52527W        W95543  16.160  25.362  25.652  0.3191 -0.1636  0.0286
52528W        W95544   3.821  22.389  16.624 -0.1373 -0.0955 -0.0453
52529W        W95545  29.514  13.083  26.887  0.0408 -0.5451  0.0416
52530W        W95546   2.692  12.992  23.829 -0.0217 -0.2217 -0.0319
52531W        W95547  10.734  34.751   9.216 -0.2181  0.0355  0.0419
52532W        W95548  12.983  27.111   0.842  0.0609 -0.3474 -0.0866
52533W        W95549  30.460  10.826   6.193 -0.0458  0.1886  0.1207
52534W        W95550  28.232  27.393  26.145 -0.0246  0.1536  0.0700
52535W        W95551   1.406  12.688   6.420 -0.0724 -0.1586 -0.0261
52536W        W95552   4.104  18.737  19.619  0.4509  0.0315 -0.0611
52537W        W95553  30.928  25.368  27.411 -0.1674 -0.0920  0.0020
52538W        W95554  21.690  17.662  24.173 -0.2398 -0.0164  0.0367
52539W        W95555  16.081  22.537   5.929  0.4170 -0.0147 -0.0331
52540W        W95556   7.327  20.000   9.366  0.2444 -0.0090 -0.1984
52541W        W95557   3.031  15.535   1.000 -0.2987  0.0710  0.0916
52542W        W95558  19.957  28.870  23.110 -0.0531 -0.0827 -0.1286
52543W        W95559  34.233  33.553   9.065  0.0007  0.1890 -0.0770
52544W        W95560  23.407   4.726  23.631  0.0721  0.1143 -0.1326
52545W        W95561   4.614  34.311  22.241 -0.1397 -0.0116  0.0716
52546W        W95562  24.179  18.446  24.862 -0.0198  0.2321 -0.0044
52547W        W95563   7.264  28.900  26.570 -0.1059 -0.3597 -0.2410
52548W        W95564  24.326  33.271  25.902 -0.2397  0.2776  0.0756
52549W        W95565   7.170  24.633  24.610 -0.1439 -0.0344 -0.3176
52550W        W95566  14.471  18.954  13.175 -0.2380 -0.0154 -0.1418
52551W        W95567  30.615  22.607   8.076  0.1045 -0.2639  0.0887
52552W        W95568   2.090   8.828   3.094  0.0855  0.1189 -0.0192
52553W        W95569  17.940  34.603   7.669 -0.2766 -0.0689  0.0031
52554W        W95570  26.002  11.408  14.869  0.1255 -0.1571 -0.0892
52555W        W95571  21.414   1.926  25.457 -0.2846 -0.0544  0.0534
52556W        W95572  17.250   0.194   5.091  0.0806 -0.2256  0.1983
52557W        W95573  31.697  17.329   0.464 -0.0264  0.2246 -0.1232
52558W        W95574  24.375  24.913   3.453  0.0854 -0.1097  0.2011
52559W        W95575  33.886  31.793  29.267  0.0127 -0.1618 -0.0750
52560W        W95576   1.508  20.332   7.648 -0.0775  0.1406  0.1509
52561W        W95577   8.145  20.361   2.353 -0.0467  0.2622 -0.2161
52562W        W95578  30.164  20.769   0.080  0.0007 -0.1965 -0.1147
52563W        W95579  20.456   6.822   4.244 -0.0840 -0.1868 -0.1656
52564W        W95580   0.093  18.463   4.375 -0.0092 -0.0739 -0.1575
52565W        W95581  32.233  17.835   1.468  0.0310 -0.0941  0.0643
52566W        W95582   1.082   4.894  24.571  0.1186  0.3735 -0.2417
52567W        W95583  29.202  11.792   7.158  0.3084 -0.0921  0.0180
52568W        W95584  10.773  24.350  19.675  0.1472  0.0202  0.2109
52569W        W95585  24.666  14.632  14.099  0.1710 -0.0098  0.0480
52570W        W95586   4.838  21.726  26.146  0.1755  0.2460 -0.1508
52571W        W95587  26.466  16.781  19.380  0.0039  0.1235 -0.0809
52572W        W95588  22.806   3.250   0.668  0.0749 -0.1340  0.0853
52573W        W95589   7.817  30.100   6.187 -0.1210  0.0473  0.0961
52574W        W95590  28.896  14.584  19.486  0.2529 -0.2404 -0.0536
52575W        W95591  29.614   3.909  25.451  0.0778 -0.2842 -0.3586
52576W        W95592  34.407  15.991   6.979  0.1603 -0.0013 -0.0390
52577W        W95593  28.866  26.074  25.168  0.0944 -0.1182 -0.1396
52578W        W95594  20.201  12.677  19.901 -0.1786  0.1181  0.4508
52579W        W95595   2.153  29.183   4.485  0.1262 -0.2110 -0.1390
52580W        W95596  15.195  19.298   8.527  0.0588 -0.2444  0.4054
52581W        W95597  33.642  19.730   1.891  0.1000 -0.1137 -0.1110
52582W        W95598   4.404  23.142  13.660 -0.0667 -0.0148  0.4408
52583W        W95599   7.842  14.936   4.300  0.2669  0.0706  0.3519
52584W        W95600   3.109  30.175  20.418  0.0785 -0.3934 -0.2574
52585W        W95601   9.680  29.362   0.611 -0.0810 -0.3469  0.2080
52586W        W95602  34.286  28.120  24.289  0.1203  0.2602 -0.0610
52587W        W95603   2.442  31.165  17.319  0.1450 -0.2692 -0.1073
52588W        W95604  28.532  17.458  16.233 -0.2440  0.0441  0.0946
52589W        W95605  29.495   0.534   7.733  0.0504 -0.0926 -0.1204
52590W        W95606  24.917   9.518  18.964  0.1370 -0.2053 -0.1618
52591W        W95607  30.099  34.305  26.463 -0.0208  0.2042  0.2151
52592W        W95608   0.968  26.469  19.576  0.0379  0.1314  0.2480
52593W        W95609  31.912  24.680  15.389  0.0927 -0.0648  0.0994
52594W        W95610  14.582   1.709  20.468  0.1535  0.0341 -0.0091
52595W        W95611  25.832  24.749  16.565  0.0949 -0.2089 -0.1802
52596W        W95612  17.680  28.355   1.041 -0.2203 -0.0759  0.0027
52597W        W95613  31.327   2.039  15.469  0.3841 -0.1459  0.3402
52598W        W95614   3.608  30.342  23.057 -0.1881 -0.0524  0.0870
52599W        W95615   9.004  18.865  14.518 -0.0848 -0.1496  0.0759
52600W        W95616  30.773   1.112  19.755  0.1305  0.2245  0.2510
52601W        W95617   0.661  16.477   2.028  0.2702 -0.0518  0.0483
52602W        W95618  26.396  20.998  24.865  0.1608  0.1629 -0.0323
52603W        W95619  30.408   1.437  24.848  0.1838 -0.1053  0.1810
52604W        W95620  32.910  20.341  20.911 -0.2420  0.1339 -0.0471
52605W        W95621  20.889  18.963  13.594  0.0988 -0.2181 -0.0270
52606W        W95622  24.600  20.966  19.151  0.1046  0.3397  0.1561
52607W        W95623  14.291   0.619  16.738 -0.1645 -0.1180  0.0194
52608W        W95624   6.416  21.377  16.768  0.1010 -0.2958 -0.1154
52609W        W95625  33.936  25.005  18.371 -0.0581  0.1915  0.1273
52610W        W95626   6.502  32.142  14.766  0.4488  0.3047 -0.0153
52611W        W95627   5.840   4.103  16.832  0.0142  0.1940  0.0670
52612W        W95628   3.179  21.111  15.397  0.0549 -0.4222 -0.1927
52613W        W95629   5.163  24.356   0.162 -0.0373  0.0551 -0.1632
52614W        W95630   2.931  30.845  14.859  0.4466  0.0539 -0.0243
52615W        W95631  30.940  24.319  24.414  0.1694 -0.2270  0.2120
52616W        W95632  25.724  27.287  18.098 -0.5874 -0.0053 -0.0013
52617W        W95633  33.989   3.405  19.792 -0.0963 -0.1551  0.0883
52618W        W95634  24.757  29.804  17.271  0.0898  0.0844 -0.0456
52619W        W95635  29.052   5.616  22.557  0.1713  0.2850  0.0666
52620W        W95636   6.732   7.500  20.370 -0.0675  0.2169 -0.1979
52621W        W95637   1.350  17.832  28.939 -0.0040 -0.3371  0.1305
52622W        W95638  31.214   0.771  18.298 -0.1430 -0.3837 -0.1881
52623W        W95639  28.094   3.396  16.334  0.1948 -0.1397  0.0001
52624W        W95640  28.235   8.016  16.714 -0.0909 -0.1159  0.2737
52625W        W95641  23.249  18.462  28.144 -0.2885  0.0317 -0.1653
52626W        W95642  10.770  26.237  20.264 -0.1771 -0.0451 -0.1907
52627W        W95643   5.036   3.336  21.399  0.2403  0.0684  0.0213
52628W        W95644   2.392   2.122  24.993  0.1129  0.2536 -0.3886
52629W        W95645   9.656  28.835  19.835 -0.3247  0.0413  0.3751
52630W        W95646  25.781  14.552  16.608 -0.0582  0.1589 -0.1763
52631W        W95647  10.048  27.327  18.084 -0.2513  0.0170 -0.1243
52632W        W95648   0.807   1.741  28.704 -0.1459 -0.1659  0.1895
52633W        W95649  12.156  32.080  19.371  0.0501 -0.0176 -0.1300
52634W        W95650  14.835  32.736  15.046 -0.0145  0.3866 -0.2535
52635W        W95651  22.488   1.198  22.390 -0.0859 -0.2275  0.0433
52636W        W95652   7.275  25.516  25.061  0.1246  0.0693  0.2735
52637W        W95653   4.606  20.158  21.118 -0.0305  0.0454  0.3756
52638W        W95654  28.441  30.526  26.158 -0.0180 -0.3307 -0.2090
52639W        W95655   8.065   1.996  18.467  0.2831 -0.0416 -0.1472
52640W        W95656   3.848  26.605  19.085  0.0856 -0.1036  0.2025
52641W        W95657  18.464  22.574  14.183 -0.3115 -0.0278 -0.1242
52642W        W95658  31.686   3.324  18.267  0.0449  0.0571 -0.0180
52643W        W95659  12.374  34.677  16.346  0.2421  0.2168  0.1006
52644W        W95660  10.947  23.719  13.828 -0.1122 -0.2403 -0.0748
52645W        W95661  25.010  22.709  22.614  0.5863 -0.0801  0.0847
52646W        W95662  30.961  29.753  17.763  0.1498 -0.1966  0.1050
52647W        W95663  21.617  16.094  14.989  0.0835 -0.2226 -0.1133
52648W        W95664   7.412   4.680   0.048  0.3935 -0.0827  0.1445
52649W        W95665  33.736  28.265  15.027 -0.0530 -0.0867 -0.0566
52650W        W95666  12.274  25.695  22.336  0.2315  0.6471 -0.0035
52651W        W95667  24.850  31.274  16.051 -0.0849 -0.1647  0.0624
52652W        W95668   7.597  25.795  19.428 -0.2214  0.2059 -0.0213
52653W        W95669  16.353  26.834  25.977 -0.2507  0.1147  0.0517
52654W        W95670  26.341   0.769  22.132  0.1891  0.1469 -0.1783
52655W        W95671   7.643  29.504  13.808 -0.0963 -0.1084 -0.3516
52656W        W95672  16.562   3.514  20.080 -0.2303 -0.0548 -0.1298
52657W        W95673  26.560  32.455  23.347  0.0690 -0.0074 -0.0839
52658W        W95674   5.832   8.362  18.621 -0.1462 -0.0133  0.0677
52659W        W95675   7.206  18.616  17.612 -0.1666 -0.0431 -0.1457
52660W        W95676  16.574  23.892  27.934  0.2160  0.0476 -0.3509
52661W        W95677   7.634  27.626  17.805  0.1151  0.0527 -0.0755
52662W        W95678  13.681   6.142  14.023  0.3481 -0.3251  0.0194
52663W        W95679   2.233  22.760  16.478  0.0601 -0.1129 -0.0013
52664W        W95680  22.531  22.819  26.400  0.1557 -0.0682  0.1387
52665W        W95681   7.951  32.663  23.608 -0.0681  0.3422  0.1755
52666W        W95682   0.081   3.739  24.103 -0.0579 -0.2926  0.1768
52667W        W95683   1.834  19.091  17.142  0.0486  0.1802 -0.5540
52668W        W95684  27.048   3.810  25.248  0.0306  0.0375  0.2324
52669W        W95685   8.977   5.846  18.697 -0.0996 -0.0286 -0.1837
52670W        W95686   1.823  32.404   2.377  0.1822  0.0193  0.2519
52671W        W95687   1.182   7.611  16.064 -0.0851  0.0970  0.3121
52672W        W95688  25.058   8.279  22.230  0.1050 -0.0273 -0.3288
52673W        W95689  25.940  20.591  18.060  0.1209  0.1313  0.3008
52674W        W95690  29.760  33.448  17.786  0.2586  0.0041 -0.0530
52675W        W95691  34.518  22.484  20.766  0.0400 -0.0982  0.0466
52676W        W95692   1.698  32.815  25.116  0.3419 -0.0371 -0.0749
52677W        W95693  21.413  19.622  22.512  0.2703 -0.0104  0.2089
52678W        W95694  34.442  28.002  18.648 -0.0014 -0.1823 -0.1175
52679W        W95695   3.775  33.788  21.063 -0.1787 -0.0119  0.1541
52680W        W95696  10.069  17.878  14.608  0.1005 -0.0367  0.0494
52681W        W95697  28.517  29.912  18.433 -0.1728 -0.0392 -0.1842
52682W        W95698  34.181  23.057  15.001  0.4341 -0.0761 -0.1666
52683W        W95699  28.659   7.393  17.441  0.2145  0.1334 -0.0893
52684W        W95700  17.877   6.641  16.076 -0.2266 -0.2325  0.0855
52685W        W95701   3.663  25.650  26.899 -0.2226 -0.1793 -0.0381
52686W        W95702  31.011  26.143  19.833  0.0032 -0.1945 -0.0731
52687W        W95703  20.227  23.359  22.715 -0.0460 -0.1410 -0.2349
52688W        W95704  34.535   0.971  20.323 -0.1838 -0.0232  0.1650
52689W        W95705  10.332  28.873  26.921  0.0854 -0.1366 -0.0263
52690W        W95706  18.654  29.099  23.033 -0.1118  0.5217 -0.2590
52691W        W95707   8.013  30.404  15.258 -0.1869  0.0435  0.0315
52692W        W95708  27.657  28.975  27.929 -0.0501 -0.3829 -0.1526
52693W        W95709  15.315   8.916  20.022  0.0646  0.1950 -0.1001
52694W        W95710   9.437  34.340  27.691  0.1160 -0.2568  0.2282
52695W        W95711  20.971  25.777  15.190  0.0530  0.0515 -0.0619
52696W        W95712  28.933  28.571   5.252 -0.0720 -0.0308  0.0481
52697W        W95713  12.516  30.362  19.849  0.0784 -0.0596  0.0850
52698W        W95714   4.755  24.712  28.035 -0.1531 -0.2812  0.0947
52699W        W95715  31.557  33.863  20.546  0.3602  0.0267  0.0193
52700W        W95716  12.800   4.447  21.516  0.0282 -0.3324  0.0872
52701W        W95717   0.687  27.453  17.600 -0.1290 -0.2060  0.2599
52702W        W95718  23.768  18.966  17.986  0.2490 -0.0698 -0.1819
52703W        W95719  13.953  26.054  24.414  0.1713  0.0982 -0.0305
52704W        W95720  22.641  33.020  15.912  0.1228  0.4010  0.0522
52705W        W95721   1.948  23.728   5.648  0.1009  0.1805 -0.0807
52706W        W95722   0.910  28.075  18.992  0.0849  0.2539 -0.2059
52707W        W95723   4.179  27.770  26.918  0.1523  0.0354  0.0165
52708W        W95724   9.924  22.078  28.628  0.1551  0.2931 -0.0307
52709W        W95725  29.133  31.693  28.439  0.2961  0.1720 -0.0066
52710W        W95726  23.144  12.890  18.647  0.2142  0.1390  0.2536
52711W        W95727   1.965  32.095   4.939  0.1943 -0.0009 -0.0606
52712W        W95728  20.581   0.118  14.438 -0.0845 -0.1603  0.0636
52713W        W95729   5.891  30.719  27.784 -0.2102  0.0505 -0.0871
52714W        W95730  10.834  21.491   4.879  0.1255  0.1664 -0.2363
52715W        W95731  33.130  26.125  18.175 -0.0105 -0.1990 -0.1739
52716W        W95732  24.074   3.043   0.257  0.2491 -0.0150  0.1090
52717W        W95733   2.514  18.208  22.979  0.3173  0.1926 -0.1244
52718W        W95734  10.481  32.302  22.964 -0.3997 -0.0779  0.1305
52719W        W95735  33.644  17.150  18.032  0.0831  0.0594  0.3828
52720W        W95736   8.779  28.785  15.962  0.1900 -0.0193  0.1462
52721W        W95737  31.065  25.294   1.053 -0.4042 -0.1227 -0.2110
52722W        W95738   7.768  22.275  17.484  0.1006 -0.3965 -0.1352
52723W        W95739   1.843  25.645  24.418  0.3291 -0.0538  0.1685
52724W        W95740  21.704  21.287  17.760  0.0015 -0.0487 -0.2737
52725W        W95741  33.920   0.310  21.429  0.0490 -0.2780  0.0581
52726W        W95742   0.391  22.382  19.572 -0.2071 -0.1585 -0.1233
52727W        W95743   7.114  25.127  21.452  0.0974 -0.0386  0.1685
52728W        W95744   4.949  28.845  22.659  0.0900 -0.0672  0.1514
52729W        W95745  31.567  21.316  19.576 -0.0060  0.2706 -0.0662
52730W        W95746  16.182  30.848  22.327 -0.0668  0.0154 -0.0793
52731W        W95747   8.415   3.514  20.514  0.0717  0.0111 -0.0912
52732W        W95748   6.176   1.576  16.923  0.2919 -0.0475  0.2755
52733W        W95749  25.176  23.105   2.383 -0.0379 -0.0259 -0.1065
52734W        W95750   1.946   1.331  19.886 -0.0538  0.3363  0.0965
52735W        W95751  29.950  29.240  17.031 -0.5339 -0.2308  0.1585
52736W        W95752   3.968  33.009   2.776  0.1580 -0.1923 -0.0147
52737W        W95753   2.837  30.355  24.775  0.1921 -0.2467  0.1202
52738W        W95754   4.038  28.329  20.550  0.2024 -0.2218 -0.0784
52739W        W95755   5.837  20.956  13.694 -0.0076 -0.3278  0.0308
52740W        W95756   6.753  15.744  13.201 -0.0103  0.0879  0.0147
52741W        W95757  31.893  26.265  19.500 -0.3083  0.1125 -0.1534
52742W        W95758  32.727   2.369  21.358  0.1263 -0.0820  0.1358
52743W        W95759  10.702  34.534  20.675 -0.1086  0.0048  0.1069
52744W        W95760  30.035  26.349  20.435 -0.0527  0.0714  0.0187
52745W        W95761   4.856  27.122  15.222 -0.0571 -0.2243  0.2462
52746W        W95762  34.136  26.148   8.490  0.3086  0.2451 -0.1041
52747W        W95763   1.075  21.101  24.184 -0.2284  0.4346 -0.2058
52748W        W95764  30.198  21.424  20.884 -0.1265  0.1716  0.0673
52749W        W95765  10.263  32.657  17.732  0.0879  0.1493  0.1528
52750W        W95766  33.399  16.330   4.527  0.1228 -0.5075 -0.1327
52751W        W95767   1.323  17.243  16.282 -0.0168  0.0141 -0.0356
52752W        W95768   3.672  31.911  24.529  0.1091  0.0916 -0.0408
52753W        W95769  31.783  22.863  28.429  0.0878  0.3194 -0.0437
52754W        W95770   3.116  26.836  18.419  0.1039 -0.0040  0.4135
52755W        W95771  30.152  23.702  20.353 -0.2982 -0.0690  0.0204
52756W        W95772   6.956  15.020  26.345 -0.1955  0.0735 -0.0546
52757W        W95773   7.883  13.221  24.700  0.0024  0.4392 -0.1373
52758W        W95774  31.754  30.291  28.142 -0.0091  0.0964  0.2864
52759W        W95775  31.255  20.320  17.002 -0.1714 -0.1000  0.2569
52760W        W95776   6.245  23.397  21.833 -0.2529  0.0422  0.2370
52761W        W95777  30.943   5.797  27.400 -0.6109  0.0990 -0.1484
52762W        W95778  21.558  31.454  20.381 -0.0020  0.2463  0.1202
52763W        W95779  17.236   3.074  22.444 -0.2359 -0.1768 -0.1163
52764W        W95780   8.684  25.674   4.519  0.0263 -0.2932 -0.0349
52765W        W95781  32.087  19.281  15.842  0.0244  0.3037  0.0669
52766W        W95782  32.721  18.920  27.926  0.1976 -0.2067  0.0412
52767W        W95783  26.382  28.552  24.411 -0.0779  0.2421  0.2162
52768W        W95784   9.664  23.624  17.255 -0.1416 -0.1853  0.1803
52769W        W95785  32.818  30.847  27.953  0.0656  0.0253 -0.0779
52770W        W95786  23.282  24.159  18.178  0.1402 -0.0946 -0.2659
52771W        W95787   4.058   9.206  17.910  0.1340 -0.0945  0.1023
52772W        W95788  12.512   0.627   0.004  0.3598  0.1482  0.1303
52773W        W95789   0.507  28.765  14.883 -0.0001  0.0161 -0.1494
52774W        W95790  24.682  33.602   1.834 -0.1719 -0.0549 -0.1951
52775W        W95791   6.452  23.104  25.716 -0.1060  0.0411 -0.0762
52776W        W95792   9.178   0.054  27.788 -0.0103  0.0940 -0.1123
52777W        W95793  32.730  32.224  16.991 -0.0719 -0.0179 -0.0441
52778W        W95794   8.813  30.966   2.016 -0.1207  0.1423  0.0546
52779W        W95795  15.549  18.854  27.345 -0.0143  0.0775 -0.2051
52780W        W95796  27.579  13.676  25.565  0.0271  0.1504 -0.1277
52781W        W95797   3.741  18.777  26.364 -0.1317  0.1016  0.0118
52782W        W95798  27.751  22.553  18.205  0.2391 -0.0693 -0.0998
52783W        W95799  32.134   3.741  28.271 -0.4282 -0.4898  0.0688
52784W        W95800  27.085  25.923  26.861 -0.2036 -0.1278 -0.2151
52785W        W95801   4.369  34.358  14.937 -0.0186  0.1135 -0.0307
52786W        W95802  11.084  22.373  17.225 -0.0449  0.3777  0.2227
52787W        W95803   6.209  30.355  17.736  0.0427 -0.1916 -0.1383
52788W        W95804  30.212  23.899   6.379  0.1839 -0.0056 -0.4652
52789W        W95805   5.895   8.109  15.091  0.2718 -0.0111  0.0070
52790W        W95806  30.657  26.475  27.865 -0.1431 -0.1247  0.3233
52791W        W95807  19.347   1.689  28.872 -0.0727 -0.1257  0.2502
52792W        W95808  25.809   5.827  26.412 -0.0860  0.2571 -0.1161
52793W        W95809  25.812  32.575  16.075  0.1030  0.3115  0.0935
52794W        W95810   3.755  34.443  19.229  0.1385 -0.2084 -0.1469
52795W        W95811  34.000  16.936  28.478 -0.0416 -0.2604 -0.1761
52796W        W95812  34.158  29.827  16.848 -0.3294 -0.2899 -0.1353
52797W        W95813  26.687   8.161  19.573 -0.0416 -0.0333  0.0931
52798W        W95814  22.256   2.423  25.587  0.1120  0.1219 -0.1349
52799W        W95815   4.301  29.883  21.119 -0.1201  0.0766  0.1353
52800W        W95816  33.073  28.761   6.408  0.2454 -0.0257 -0.0820
52801W        W95817  30.873  34.063  22.920  0.2084  0.0224 -0.0776
52802W        W95818  21.014   9.028  22.000 -0.1245 -0.0039 -0.2597
52803W        W95819   1.150  25.933  21.159 -0.1200  0.0841 -0.2000
52804W        W95820   8.112  31.751  24.897 -0.1776 -0.0713 -0.2673
52805W        W95821   7.255  27.530  16.606 -0.1013 -0.1263  0.1054
52806W        W95822   4.578  13.306  27.277 -0.1380 -0.2651 -0.0081
52807W        W95823   5.892  29.630  24.641  0.0603 -0.1860 -0.1065
52808W        W95824  29.618  21.624  23.612  0.1613 -0.0163 -0.0573
52809W        W95825  27.993  29.441  27.154  0.0415  0.2123  0.0380
52810W        W95826   0.580   2.127  20.262 -0.1691 -0.1458  0.0410
52811W        W95827  32.034  19.900  16.357 -0.0237 -0.1068 -0.2153
52812W        W95828  27.521   8.447  22.693  0.1288  0.1856 -0.0571
52813W        W95829   7.202  18.988  12.539 -0.3607 -0.0896 -0.1238
52814W        W95830  25.694  22.327  17.741 -0.0164 -0.0636  0.0832
52815W        W95831  24.931  27.282   2.230 -0.2311  0.1231  0.0180
52816W        W95832   2.497   6.259  19.063 -0.1842 -0.0049  0.1548
52817W        W95833   9.056  20.266  24.495  0.2686 -0.1017 -0.3141
52818W        W95834   6.011  30.512  16.741  0.2400 -0.0931  0.0113
52819W        W95835  30.021  17.259   7.272 -0.0370  0.0584  0.1269
52820W        W95836  33.653  22.316  16.740 -0.2935 -0.1256 -0.1172
52821W        W95837   6.063  27.352  18.929  0.0466  0.0902 -0.3410
52822W        W95838  17.009   9.206  20.417  0.0096 -0.0393 -0.0138
52823W        W95839  28.914  15.066  19.648  0.1609  0.3997  0.2830
52824W        W95840   0.465  10.437  18.147 -0.1316  0.4608  0.2443
52825W        W95841  21.334   6.417  16.811 -0.0373  0.0609  0.1050
52826W        W95842   3.459  32.936  22.533  0.0236  0.2661  0.2323
52827W        W95843   7.702  28.395  22.700 -0.0818  0.1886 -0.0642
52828W        W95844   2.469  23.571  23.828 -0.1530 -0.0443  0.0486
52829W        W95845   2.926  34.295  17.254 -0.1643 -0.2528  0.0331
52830W        W95846  28.933  14.505  21.063 -0.0608 -0.3798 -0.1255
52831W        W95847  31.527  24.211  21.540 -0.3609 -0.1679 -0.0004
52832W        W95848  27.900  31.449  24.965 -0.1402 -0.0986  0.0782
52833W        W95849  29.008   7.122  17.716  0.1544 -0.6336 -0.0470
52834W        W95850  28.753   0.450  26.001  0.1391  0.1319  0.1054
52835W        W95851   2.462  27.901   2.173  0.2707 -0.0554 -0.1195
52836W        W95852  18.834  25.712   7.000  0.0128  0.2441 -0.0518
52837W        W95853   8.056  30.499  16.095  0.0670  0.1393  0.1242
52838W        W95854  24.631  29.521  25.990 -0.0260  0.3430  0.1444
52839W        W95855  23.530   3.413  17.185  0.0039  0.2057  0.2301
52840W        W95856   4.737  27.897  28.531  0.2476  0.1138  0.2465
52841W        W95857   8.736  14.677  21.335 -0.2049  0.0093 -0.3900
52842W        W95858  31.503  28.984  16.070 -0.0829  0.3605 -0.1519
52843W        W95859   0.685   4.997  16.695 -0.4523  0.1475  0.1278
52844W        W95860  30.080  25.908   8.811  0.2083  0.1242  0.2747
52845W        W95861   1.457  21.433  25.009  0.1065  0.0342 -0.0266
52846W        W95862  24.419  26.142  22.886 -0.0874 -0.1148  0.0005
52847W        W95863   3.543  27.480   9.709  0.1776 -0.1694 -0.1036
52848W        W95864  28.391   8.220  21.001  0.0311  0.0792 -0.1256
52849W        W95865   6.538   7.475  19.140  0.2706 -0.0410 -0.1580
52850W        W95866   9.485  19.908  17.033 -0.7078  0.1641 -0.0751
52851W        W95867  30.356  23.782  15.794 -0.1250  0.2883 -0.0110
52852W        W95868  32.889   3.278  17.874 -0.2686  0.0125 -0.2517
52853W        W95869  28.766  31.349  29.210  0.1803 -0.0969 -0.3677
52854W        W95870  29.423  22.692  24.689  0.1680  0.1918  0.1077
52855W        W95871   0.419  21.964  22.052  0.0447 -0.0552 -0.0745
52856W        W95872  14.826  29.866  24.114  0.0706 -0.2287 -0.4301
52857W        W95873   9.096  15.621  24.194  0.1923  0.1157 -0.2935
52858W        W95874  23.815   4.231   5.182 -0.1792 -0.1690 -0.1098
52859W        W95875  23.784  21.860  19.380 -0.1154  0.4484 -0.0052
52860W        W95876   7.085  32.128  16.145 -0.1334 -0.3556 -0.0537
52861W        W95877   4.662   3.001   6.413 -0.1259 -0.0899  0.0581
52862W        W95878   6.508  32.989  21.794  0.1060  0.0610 -0.3320
52863W        W95879  33.373  25.860  23.805 -0.2107  0.2836 -0.0625
52864W        W95880   3.494  17.930  19.107 -0.1340  0.0424 -0.1993
52865W        W95881  31.036  21.085  17.905  0.1941 -0.5533  0.1362
52866W        W95882   1.700  19.676  16.233  0.1467 -0.0394 -0.0833
52867W        W95883  19.704  11.329  19.876 -0.2785 -0.1197  0.0199
52868W        W95884  29.564  26.795  23.047 -0.0147 -0.1491 -0.0838
52869W        W95885  29.178  24.954  23.226  0.1986  0.0981 -0.1535
52870W        W95886   7.306  23.676  27.049 -0.3079  0.2674  0.0633
52871W        W95887  33.349  23.050  21.420  0.1667 -0.2967 -0.3408
52872W        W95888   3.905   7.287  24.142 -0.0452  0.3368  0.0709
52873W        W95889   0.518  31.252  17.351  0.0742 -0.0587 -0.5039
52874W        W95890  12.379  19.995  14.405  0.0201  0.0285  0.1704
52875W        W95891   3.485   7.205  14.270  0.0113 -0.0464 -0.4446
52876W        W95892  11.793  28.165  21.441  0.0982  0.0470  0.1576
52877W        W95893   5.632  28.771  20.220  0.0257 -0.0244 -0.0211
52878W        W95894   0.295  22.164  22.768 -0.1921  0.3734 -0.0631
52879W        W95895  22.211   4.978  14.163  0.2842 -0.3462 -0.0936
52880W        W95896  11.252  23.523  13.450 -0.3283 -0.2442  0.1693
52881W        W95897  32.978  27.289  15.157  0.3112  0.2177  0.0291
52882W        W95898  18.933  19.736  14.339 -0.0284 -0.0548  0.0761
52883W        W95899  27.657  30.383  18.143 -0.1366 -0.1982 -0.0423
52884W        W95900  15.597   5.642  26.406 -0.2330  0.2445  0.1428
52885W        W95901  29.318   4.244   7.115 -0.1139 -0.2197  0.0267
52886W        W95902  12.407  29.984  19.213 -0.2319  0.1182 -0.0480
52887W        W95903   2.924   1.370  21.890  0.0570  0.0174 -0.1073
52888W        W95904   5.320  26.493  22.139 -0.0020 -0.0599 -0.1169
52889W        W95905  16.534  32.242  20.728  0.2923 -0.1906  0.0851
52890W        W95906   2.125  31.058   2.866 -0.0004 -0.0939  0.0710
52891W        W95907   1.809  31.955  15.530  0.1194  0.1277 -0.0638
52892W        W95908   1.329  34.095  16.460  0.2121  0.3449  0.1146
52893W        W95909   6.591   4.096  18.952 -0.3952 -0.3828  0.0248
52894W        W95910  12.060  32.251  27.324  0.1319 -0.1357  0.0398
52895W        W95911   0.083  34.663   0.906  0.0769  0.2684 -0.2056
52896W        W95912  19.131  17.944  13.462 -0.0044  0.1227 -0.3915
52897W        W95913  30.655  27.970  16.158  0.1289  0.0139  0.3188
52898W        W95914  33.381  27.870  17.262 -0.1499 -0.0250  0.1584
52899W        W95915  32.225  31.263  22.360 -0.2472  0.2548 -0.0339
52900W        W95916  10.750  27.379  15.546 -0.0744 -0.2550 -0.4054
52901W        W95917  32.778  21.203  26.866  0.1483 -0.0413 -0.0344
52902W        W95918  25.167  26.847   2.848 -0.1346 -0.1484 -0.1377
52903W        W95919   1.019  32.535   5.011 -0.1427  0.0209  0.0780
52904W        W95920  30.955  28.016  19.603  0.0463  0.1861 -0.0630
52905W        W95921   1.694  28.355  19.003  0.1986 -0.1760 -0.0621
52906W        W95922   8.594  21.931  17.950 -0.2858  0.1576  0.2352
52907W        W95923  25.101  31.520  15.584  0.2059  0.0153 -0.0918
52908W        W95924  27.859  28.272  20.051 -0.0415  0.0401 -0.2050
52909W        W95925   3.558  33.779  22.301 -0.1077 -0.2771 -0.0859
52910W        W95926   3.400  27.150   8.955  0.2434 -0.1805 -0.1710
52911W        W95927   2.394  19.890  21.880 -0.0359 -0.1513  0.3674
52912W        W95928   7.206  20.805  13.574 -0.0946 -0.2589  0.0084
52913W        W95929  34.387  21.375  16.473 -0.0408 -0.2869  0.1361
52914W        W95930   0.700   7.383  25.659 -0.0600 -0.0636  0.0260
52915W        W95931  32.995  31.317  22.673 -0.1880  0.0002  0.2394
52916W        W95932   8.234   5.494  19.456  0.1614  0.1396  0.4251
52917W        W95933  31.312  27.895  20.481 -0.0988  0.0026  0.0060
52918W        W95934  10.877  19.489  15.784  0.1413 -0.0658  0.0587
52919W        W95935  10.264  13.384  15.114 -0.5271  0.0243 -0.0858
52920W        W95936   2.272  23.244   9.578 -0.2421  0.1022  0.1075
52921W        W95937  18.727  34.164  25.525 -0.2982 -0.0949  0.1396
52922W        W95938  23.663   1.413  21.093  0.0988 -0.0434  0.0139
52923W        W95939  24.081   3.976  22.741  0.1561 -0.4446  0.3046
52924W        W95940   8.107  31.309  25.065  0.1341 -0.3537 -0.1622
52925W        W95941  33.612  30.369  15.381 -0.0392  0.0118 -0.0131
52926W        W95942   0.217  28.922  25.160  0.1659  0.2909 -0.0995
52927W        W95943  34.165  29.885  20.732  0.0699  0.0319  0.3388
52928W        W95944  23.005  23.472  16.772  0.1772  0.3110 -0.1799
52929W        W95945  17.356  25.830  15.498  0.1240 -0.0013 -0.1081
52930W        W95946  32.024  23.077  18.165 -0.2769 -0.3601  0.1300
52931W        W95947  11.407  34.473  24.880  0.1350  0.0374  0.2499
52932W        W95948  25.011  19.230  14.532 -0.0036  0.0721 -0.1739
52933W        W95949   1.192  26.662  27.201  0.1040  0.0785  0.1637
52934W        W95950   0.008  33.877  16.649  0.2417 -0.0805  0.0882
52935W        W95951   5.593  31.036  18.247  0.0416  0.2086 -0.2607
52936W        W95952   3.512  29.253   3.502 -0.0224  0.1369  0.1038
52937W        W95953   6.761  26.937  14.075  0.3076  0.4299 -0.1430
52938W        W95954  17.784  26.384  15.222 -0.2379  0.0523 -0.0673
52939W        W95955  14.536  28.084  18.583  0.3337 -0.1452 -0.1847
52940W        W95956  11.070  33.041  27.171 -0.0647  0.0306  0.0117
52941W        W95957   3.179  34.110  23.935  0.3096 -0.0496 -0.2017
52942W        W95958  24.109  15.733   2.819 -0.0535  0.3120  0.0648
52943W        W95959  12.950   3.304  23.758  0.3325  0.1643 -0.0311
52944W        W95960  21.660  19.348   3.420  0.1278  0.3548 -0.2321
52945W        W95961   9.136   2.345  24.096 -0.1346 -0.0027  0.1519
52946W        W95962  15.485  11.268  16.596 -0.0412 -0.2056  0.4302
52947W        W95963  15.655  17.752  11.959 -0.0540 -0.0328  0.1205
52948W        W95964   3.830  21.710  28.609  0.1790 -0.3811  0.1991
52949W        W95965   9.059  31.919  21.248  0.1323 -0.1091  0.2666
52950W        W95966  27.646  22.942   0.440  0.0601  0.0901 -0.0446
52951W        W95967  30.850  22.429  21.337 -0.0894  0.1313 -0.1705
52952W        W95968   0.040   3.107  27.328  0.3527  0.5359 -0.0368
52953W        W95969  34.294  18.898   1.314 -0.2901  0.0270 -0.0527
52954W        W95970  34.487  10.129  15.723 -0.1498  0.0022  0.3067
52955W        W95971   4.049  23.964  13.987 -0.2719  0.0281 -0.1514
52956W        W95972  29.743  18.068  15.912 -0.2397  0.2600 -0.0390
52957W        W95973   4.855  28.737  24.040  0.0013  0.1693 -0.1523
52958W        W95974  33.951   5.662  21.519  0.0348  0.3225  0.0054
52959W        W95975   2.117  24.964  14.158  0.2640 -0.0005 -0.0614
52960W        W95976  29.173  12.623  17.657  0.1162  0.1771  0.1952
52961W        W95977  29.689  32.220  19.943 -0.1051  0.0191  0.2692
52962W        W95978  33.576   9.814   5.176  0.1242  0.0173  0.1352
52963W        W95979   4.886  13.042  23.023  0.3104 -0.1691  0.0317
52964W        W95980   7.559  11.927  24.553 -0.0600 -0.0596 -0.1962
52965W        W95981  18.805   1.121   3.717  0.1624 -0.2189  0.3792
52966W        W95982  20.969   3.490  14.609  0.2519  0.0058 -0.2119
52967W        W95983   4.752  24.180  24.688 -0.3940 -0.2879  0.0055
52968W        W95984  25.099   4.754  26.968 -0.0229 -0.2169  0.3610
52969W        W95985   8.477  19.589  25.911 -0.4260 -0.2310  0.1326
52970W        W95986  11.433   2.636  25.356  0.0629 -0.1235 -0.1211
52971W        W95987  29.250   8.939  22.970 -0.1528 -0.0028 -0.3464
52972W        W95988  30.071  34.614  27.661 -0.1392 -0.2233  0.1080
52973W        W95989  33.284  33.721  20.404  0.1737 -0.0159  0.2415
52974W        W95990   1.159  20.682  20.231 -0.0475 -0.0049 -0.0935
52975W        W95991   7.594  24.445  21.882  0.0877 -0.0050  0.0772
52976W        W95992  29.103  34.261   2.253  0.0009  0.0132  0.2466
52977W        W95993  21.858  31.499  23.508  0.1323 -0.1075  0.1677
52978W        W95994   3.330  25.692  28.102  0.1430 -0.0132 -0.3298
52979W        W95995  33.431  12.415  25.628  0.0063  0.1387 -0.2409
52980W        W95996   2.708   9.468  18.025  0.2947 -0.1397  0.2134
52981W        W95997  24.759  19.381  16.364 -0.0129 -0.1417  0.0638
52982W        W95998  31.173   2.804  16.153 -0.2442  0.0840  0.0107
52983W        W95999   4.128  33.758  20.205 -0.0060 -0.1424  0.1576
52984W        W96000   6.551   2.680  19.948  0.0888 -0.1246 -0.1362
52985W        W96001  28.073  26.979  22.894 -0.0544  0.0086 -0.0786
52986W        W96002  28.166  31.047  28.522 -0.4443  0.2443  0.3992
52987W        W96003  22.340  24.574  25.081  0.1405 -0.1975 -0.5062
52988W        W96004   8.604  22.339  13.823 -0.0578  0.2109 -0.0735
52989W        W96005   0.106  22.459  19.081  0.1552 -0.1765  0.0123
52990W        W96006  20.639  28.259   5.507 -0.0471  0.1848 -0.2991
52991W        W96007   1.426  33.166  26.459  0.2270  0.1300  0.0441
52992W        W96008   7.955  22.326  21.960 -0.1492  0.0829 -0.2265
52993W        W96009  26.265   1.243   6.487 -0.0380  0.0309 -0.3063
52994W        W96010  33.584  23.162  18.193  0.0236  0.2110  0.3847
52995W        W96011  32.026  29.402   0.635  0.2191 -0.2537  0.1361
52996W        W96012  25.514  29.228  19.370  0.5162  0.2216 -0.0889
52997W        W96013  21.597  27.796   4.493  0.0650  0.0005 -0.1698
52998W        W96014  10.125  31.578   8.586 -0.1594 -0.0002  0.4255
52999W        W96015  18.336  16.465  14.493  0.0903 -0.2901 -0.0216
53000W        W96016  13.683  34.476  13.752  0.3108  0.1075 -0.0971
53001W        W96017   9.622  33.289   6.779  0.3398 -0.2582  0.1261
53002W        W96018   3.513  11.010  17.586  0.0427 -0.0018 -0.3988
53003W        W96019   4.666  10.331  14.746 -0.0305  0.0930 -0.3138
53004W        W96020   6.272  29.080   0.193  0.0163 -0.0790  0.2772
53005W        W96021   4.784  32.418  24.268  0.2001  0.1246  0.1789
53006W        W96022   6.248   6.258  14.732  0.0848 -0.2628  0.0190
53007W        W96023  12.048   0.134  28.443 -0.4724  0.0580  0.0792
53008W        W96024   3.463  22.259  26.204  0.0334  0.4467  0.0421
53009W        W96025  25.897  19.697  14.226 -0.0096  0.0346  0.0514
53010W        W96026   0.462  20.429  27.020  0.3130 -0.0436  0.1190
53011W        W96027   8.734  15.887  23.404  0.3132  0.2877 -0.0551
53012W        W96028  29.286  15.874  26.040  0.1661 -0.0410  0.1252
53013W        W96029  30.644  32.066  17.952 -0.0637 -0.1017  0.0357
53014W        W96030   0.911  28.776  24.390  0.0105 -0.0257  0.0897
53015W        W96031   5.003  19.506  21.245 -0.0289 -0.0055  0.1398
53016W        W96032  32.219  22.000  23.675 -0.0299 -0.0169 -0.2732
53017W        W96033  29.457  34.585  17.380  0.5499  0.5499 -0.1453
53018W        W96034  18.837   4.796  16.859  0.1912 -0.2033 -0.1682
53019W        W96035  31.502   9.348   9.532 -0.1226 -0.1032  0.1611
53020W        W96036  21.106  16.042   7.944 -0.2281  0.2462 -0.1021
53021W        W96037  28.357   6.199  18.932 -0.2042  0.2099  0.0935
53022W        W96038  21.476  11.551  24.394 -0.1027 -0.1697  0.0389
53023W        W96039  27.337  34.731  17.468 -0.1536 -0.2621  0.0916
53024W        W96040  28.945  19.337  17.073  0.1711  0.1481  0.0110
53025W        W96041  34.296  19.510  19.086  0.0367 -0.0973 -0.1304
53026W        W96042  26.008  18.519  17.767  0.0546 -0.1472 -0.2772
53027W        W96043   4.873   9.479  15.110 -0.0818  0.1327  0.1078
53028W        W96044  11.488  25.825   1.185 -0.0739  0.0963 -0.1114
53029W        W96045  16.732  20.628   1.459  0.1360  0.3876 -0.1072
53030W        W96046  27.471  31.781  20.607 -0.2542 -0.0339  0.3205
53031W        W96047   8.199  23.518  29.214 -0.2259  0.5335 -0.0924
53032W        W96048  13.525  18.327  25.646  0.2659  0.0853 -0.0730
53033W        W96049  20.459  34.175  16.691  0.0668  0.1756  0.1084
53034W        W96050   7.439   2.253  26.018  0.3966 -0.0063  0.1465
53035W        W96051   2.672  21.348  24.138  0.0740  0.1763 -0.3641
53036W        W96052  28.866  16.612  26.496  0.1513  0.1573 -0.2417
53037W        W96053  29.492  26.370  17.137  0.1173 -0.4588 -0.0270
53038W        W96054   6.910  27.773  25.263 -0.0423 -0.1331 -0.1644
53039W        W96055   3.599  33.776  14.187 -0.1683 -0.1187 -0.1688
53040W        W96056  25.132  20.498   3.664  0.3534  0.0742 -0.1167
53041W        W96057   1.787  27.949  18.616  0.0071  0.1565  0.3668
53042W        W96058  15.826  31.920  25.176  0.2145 -0.1067  0.0304
53043W        W96059  29.681  32.542  29.237 -0.2473  0.0516  0.1773
53044W        W96060  26.653  26.892  16.818  0.1258  0.0107 -0.0222
53045W        W96061  12.704  32.917  21.037  0.1534  0.0659  0.1519
53046W        W96062  11.943  31.785   1.822  0.1462  0.5583  0.1782
53047W        W96063  27.505  31.799  21.141 -0.2477  0.0884  0.1747
53048W        W96064  32.684  13.708  14.927  0.0043 -0.2540  0.1143
53049W        W96065  13.025   5.416   0.797  0.0389  0.5653 -0.1573
53050W        W96066  29.146  32.935   0.874 -0.1411 -0.5499  0.1815
53051W        W96067   1.718   1.763  16.917 -0.0939 -0.0698  0.1303
53052W        W96068  29.489  28.563  27.065 -0.0677 -0.0958 -0.1813
53053W        W96069  28.010  13.464  16.206  0.0071  0.0772  0.0890
53054W        W96070   0.785  31.849  27.071 -0.0433  0.2569 -0.3116
53055W        W96071  33.004  26.167  16.104 -0.0231  0.0511 -0.0888
53056W        W96072  11.006  27.909   7.092 -0.2232  0.3247 -0.0284
53057W        W96073  23.138  30.682  28.122 -0.1796 -0.0601  0.2157
53058W        W96074  26.996  17.549   4.877  0.2274 -0.0134  0.2030
53059W        W96075   1.465   3.789  20.345 -0.1150  0.1227 -0.0823
53060W        W96076  27.532   5.361  27.590 -0.1451 -0.0628 -0.0094
53061W        W96077   7.962  28.632  27.646  0.1254  0.2060 -0.5076
53062W        W96078  31.922  30.382  15.117 -0.1131  0.2098 -0.0004
53063W        W96079  17.757  23.659  12.402 -0.6082  0.0024 -0.1874
53064W        W96080  25.027  17.522  27.143  0.0619 -0.0913  0.2619
53065W        W96081  28.409  28.080  21.589 -0.0314 -0.0128 -0.3717
53066W        W96082  27.535  24.526   6.445 -0.1802 -0.3285 -0.0380
53067W        W96083  29.117  27.146   6.173  0.0678  0.2250 -0.0021
53068W        W96084   0.100  27.616   4.746 -0.0927 -0.0296  0.1247
53069W        W96085  20.474  23.340  15.068 -0.1785  0.0253  0.2732
53070W        W96086  33.353  17.105  15.740  0.0093  0.2149 -0.2953
53071W        W96087  31.065  26.258   8.979 -0.1354  0.1184  0.2655
53072W        W96088  31.868  12.705  23.130 -0.1670  0.0830  0.1182
53073W        W96089  11.749   3.383  24.430 -0.3017  0.2458  0.1494
53074W        W96090  19.868  30.662  18.069 -0.1977 -0.2598 -0.1010
53075W        W96091  19.778   2.391  21.206  0.1788 -0.0700 -0.0480
53076W        W96092  32.728   0.426  24.518  0.0562  0.3030  0.0049
53077W        W96093  27.261  17.586   8.870 -0.2136  0.0961 -0.3724
53078W        W96094   9.405  14.629  17.405 -0.2422  0.0268  0.0027
53079W        W96095  21.937  15.950  21.542  0.2442 -0.0467 -0.1285
53080W        W96096  32.844  19.050  25.245  0.0738 -0.4536  0.0509
53081W        W96097   6.451  23.715  14.607  0.0440  0.2083  0.0411
53082W        W96098  26.231  27.478  17.991  0.1113  0.1931  0.1894
53083W        W96099  30.915  27.850  17.829  0.1021  0.1303 -0.2174
53084W        W96100  12.637  24.231  23.355  0.0304  0.0216 -0.1450
53085W        W96101  27.437  30.400  19.502 -0.1384 -0.1729  0.1247
53086W        W96102  30.005  32.806  18.546  0.1548 -0.0003 -0.1889
53087W        W96103   7.205  16.043   2.239 -0.0197 -0.0600 -0.0027
53088W        W96104  29.489  22.125  17.450 -0.0587  0.0530 -0.4838
53089W        W96105  24.338   6.004   6.494  0.1535 -0.1961 -0.1403
53090W        W96106  31.613  20.410   5.066  0.5160  0.0207  0.0021
53091W        W96107  32.867  32.943  20.913 -0.0972  0.0980  0.0985
53092W        W96108   4.850  27.347  14.360  0.3455  0.2415 -0.1695
53093W        W96109  26.993   1.102  19.805 -0.2203 -0.2696  0.0672
53094W        W96110   1.732  20.185  21.922 -0.1528 -0.0152  0.1648
53095W        W96111   0.662  25.758  18.655 -0.4231  0.1908  0.3203
53096W        W96112   2.981  24.818  24.317  0.1403 -0.2813 -0.0430
53097W        W96113  19.586  31.572  27.006 -0.2977 -0.0979 -0.2831
53098W        W96114  33.747  15.388  28.656  0.1596  0.2516  0.1166
53099W        W96115  26.327   3.910  21.743 -0.0512 -0.1667 -0.3169
53100W        W96116   0.461   2.289  17.230  0.1368 -0.3357  0.0435
53101W        W96117  28.110  31.747  18.051  0.0749 -0.0688 -0.1129
53102W        W96118  19.495  26.308  17.938 -0.1945 -0.2542  0.0584
53103W        W96119  31.189  26.883  28.383 -0.0071  0.0393  0.2747
53104W        W96120  33.982  24.643  27.057 -0.1392 -0.0910  0.0764
53105W        W96121  23.829  17.588  13.460 -0.1724 -0.0704 -0.0191
53106W        W96122  16.589  23.736  19.874  0.3729 -0.0238 -0.0551
53107W        W96123   2.498  20.952   6.159  0.0045 -0.3021 -0.0826
53108W        W96124   9.733  18.101  19.587 -0.0419 -0.1630  0.0305
53109W        W96125   8.888  24.985  17.166 -0.0737 -0.0264 -0.1740
53110W        W96126   5.669  11.866  13.377 -0.0119  0.0491 -0.0316
53111W        W96127  10.587  23.466  18.217 -0.2760  0.0010  0.0632
53112W        W96128   2.792  28.943  20.324 -0.0351  0.1715  0.0108
53113W        W96129  31.358   1.545  24.365  0.2923  0.2210 -0.0529
53114W        W96130   0.303  27.713  21.201  0.1733  0.1303 -0.3631
53115W        W96131   1.851  12.998  23.540  0.1430 -0.3629 -0.0277
53116W        W96132  16.453  10.461  26.523  0.0600  0.0251  0.3009
53117W        W96133  18.613  28.110  18.407  0.1520 -0.0813 -0.0002
53118W        W96134  23.515   0.615   8.981 -0.0121 -0.1675  0.1642
53119W        W96135  33.626  21.843  26.870 -0.0150 -0.0314 -0.1361
53120W        W96136  27.378  13.146  23.754 -0.3355 -0.0786 -0.0189
53121W        W96137  19.774  23.870  13.958  0.0713 -0.2147 -0.2844
53122W        W96138   9.085  27.873  25.392 -0.0080  0.0391  0.0857
53123W        W96139   2.940  28.196  25.575  0.0722 -0.1248 -0.1024
53124W        W96140  29.318  27.269  20.558  0.0009  0.0506 -0.3351
53125W        W96141  10.383  32.835  23.440  0.0282  0.2629 -0.0550
53126W        W96142   1.316  29.945  14.403 -0.1905 -0.2534 -0.0207
53127W        W96143   2.950  22.093  22.779 -0.1397  0.2458 -0.0379
53128W        W96144   5.649  17.426  26.816 -0.0423 -0.0754  0.2380
53129W        W96145   6.090  18.012   1.394  0.0471 -0.2122  0.0884
53130W        W96146  24.391  27.564   8.947 -0.0070 -0.0618  0.0589
53131W        W96147   5.319  31.680  25.506 -0.0380 -0.3143 -0.0117
53132W        W96148  32.875   2.781  18.761 -0.3685  0.3583 -0.0734
53133W        W96149  31.584  34.489  21.360 -0.0583 -0.2387  0.1589
53134W        W96150  20.195   5.618  22.855  0.2531  0.1542 -0.1542
53135W        W96151  33.580   5.084  19.752  0.2445 -0.4180  0.2978
53136W        W96152   6.528  25.005  24.533  0.0388 -0.0305  0.1209
53137W        W96153   3.745  32.192  28.753  0.0734  0.1090  0.2564
53138W        W96154   0.047  30.673  20.854  0.2393 -0.0242 -0.0152
53139W        W96155   6.882  22.449   4.590  0.0781  0.0681  0.0394
53140W        W96156  12.641  20.878  22.688 -0.1153  0.0463 -0.1601
53141W        W96157   3.134   2.388   1.063 -0.0846  0.0835  0.1357
53142W        W96158   1.364   8.571  19.639  0.0490 -0.3330  0.1272
53143W        W96159   1.456  11.188  23.797  0.0639 -0.0613  0.3303
53144W        W96160  17.965  18.070  15.678  0.3434  0.3671  0.4559
53145W        W96161  27.637  21.589  18.532 -0.1524  0.0411 -0.0534
53146W        W96162  13.681  32.556  21.082  0.1635  0.0067 -0.0343
53147W        W96163  31.185  33.227  23.489  0.1935  0.1461  0.1680
53148W        W96164   8.603  31.570   3.040 -0.2904 -0.0347  0.0955
53149W        W96165   9.034  16.237  24.213  0.2476 -0.2042  0.0844
53150W        W96166  27.926   2.720  17.982  0.1658  0.2181  0.2635
53151W        W96167  21.603  24.012  28.522 -0.0314 -0.0549 -0.0967
53152W        W96168   7.611  31.648  26.232 -0.1047 -0.1485 -0.0859
53153W        W96169  27.700  23.336  23.262  0.1127  0.0926  0.1244
53154W        W96170  29.589   6.777  28.128 -0.1260 -0.2155 -0.0544
53155W        W96171   8.614  29.710   7.655  0.1017  0.1084  0.2844
53156W        W96172  31.073  14.143   0.116  0.1580  0.1305  0.0106
53157W        W96173  23.183  24.945  21.833 -0.0057  0.1431  0.2134
53158W        W96174   1.503  34.237  11.027 -0.2849  0.2741  0.0874
53159W        W96175   8.223   5.620  18.956  0.0418  0.1301 -0.1103
53160W        W96176   6.737  19.853  14.511  0.1244 -0.2278  0.1209
53161W        W96177  22.430  23.332  15.167 -0.0648 -0.2519  0.1495
53162W        W96178   3.169  23.142  20.748  0.0332  0.0154  0.0059
53163W        W96179  20.823  16.515  28.076  0.2475  0.1846  0.0770
53164W        W96180  14.035  25.787  28.067 -0.0033  0.1606  0.2618
53165W        W96181  34.749  27.760  28.418 -0.1522  0.1345  0.1089
53166W        W96182   6.921  21.587  14.024 -0.1822 -0.0551 -0.3753
53167W        W96183  33.834  11.028  28.367 -0.0046 -0.2938 -0.0033
53168W        W96184  18.016  22.705   3.743  0.3425  0.0213  0.0697
53169W        W96185  26.085  22.067  16.701  0.2480  0.0942  0.1089
53170W        W96186  15.512  31.638  23.092 -0.1264 -0.1739  0.2206
53171W        W96187   7.317  29.120   1.244 -0.2586  0.1154  0.0242
53172W        W96188   0.419   8.123  17.976  0.0453  0.2165 -0.0178
53173W        W96189  25.960   6.283  26.634 -0.2596 -0.0852  0.1668
53174W        W96190  11.302   0.539  21.653 -0.2286 -0.0262  0.1171
53175W        W96191   2.575   3.143  18.001 -0.0018 -0.1148  0.0977
53176W        W96192   7.718   3.234  17.885  0.0902 -0.0138 -0.0826
53177W        W96193  28.331  26.430  19.552 -0.2318  0.1533 -0.2741
53178W        W96194  24.659  20.154   1.450 -0.0847  0.2018  0.0776
53179W        W96195   4.987  30.788  18.295 -0.1125 -0.1409 -0.0930
53180W        W96196   5.476   4.513  19.782  0.0516  0.0892 -0.1551
53181W        W96197  32.694  27.198  28.135  0.0051  0.0553  0.1143
53182W        W96198   2.427  23.125  26.608 -0.1568  0.1832  0.3781
53183W        W96199   5.492  19.943  15.474 -0.1070  0.1083  0.3624
53184W        W96200   3.710   0.248  14.619  0.2112  0.0003  0.0191
53185W        W96201  30.227   0.067  22.300  0.2127  0.0487  0.1691
53186W        W96202   0.079  17.648  23.897 -0.1928  0.1414  0.1057
53187W        W96203  23.494  29.851   9.411  0.0618  0.0594  0.1522
53188W        W96204  18.406  29.080  26.462 -0.0461 -0.1397  0.2167
53189W        W96205  21.437  12.439  12.564  0.2384 -0.3628  0.0541
53190W        W96206  32.250  28.434  15.748  0.1360 -0.2969  0.1704
53191W        W96207   4.822  17.023  23.617  0.2175  0.2928  0.4782
53192W        W96208  27.304  24.548   2.684  0.1779  0.2204 -0.2977
53193W        W96209  21.063  28.950   7.822 -0.0331  0.4580 -0.1022
53194W        W96210   5.834   0.319  25.527  0.1111  0.1084  0.0978
53195W        W96211  20.137  13.304  12.612 -0.0907  0.1238  0.2185
53196W        W96212   2.339  21.951  15.681 -0.0571  0.0612 -0.1263
53197W        W96213   9.160  10.081  25.001 -0.4323 -0.1392  0.0886
53198W        W96214   3.956  26.502   6.124  0.0710  0.1291  0.1704
53199W        W96215  20.683  15.559   2.190 -0.0918  0.2498  0.4610
53200W        W96216   4.032  29.446  15.755  0.0335  0.0259 -0.0045
53201W        W96217  14.920  25.810  20.025  0.1093 -0.0516 -0.2515
53202W        W96218  11.002  18.100  17.557 -0.1044 -0.0539  0.0451
53203W        W96219  25.446   0.420  22.518 -0.0688  0.1538  0.1346
53204W        W96220  32.382  18.410   3.936  0.0955  0.0891 -0.2395
53205W        W96221   0.588   6.704  17.121 -0.1731 -0.1572 -0.1310
53206W        W96222  10.015  28.824   6.908 -0.0100 -0.2972  0.1366
53207W        W96223  34.204  34.189  24.840 -0.0720 -0.1048 -0.2021
53208W        W96224   7.524  20.076  25.449 -0.2303  0.2712  0.1427
53209W        W96225  14.938   2.428   3.552  0.2154  0.2034  0.1198
53210W        W96226   6.661  24.785  19.961 -0.3288 -0.1191 -0.1121
53211W        W96227  21.941   8.709  22.851  0.0107 -0.0473  0.2421
53212W        W96228   6.060   0.159  16.267 -0.1249 -0.2275 -0.1069
53213W        W96229  27.641  25.731   1.145 -0.0921  0.0792 -0.0668
53214W        W96230  31.022  21.407  21.293 -0.1515  0.1347 -0.0260
53215W        W96231  28.120  34.156  21.318  0.0004  0.3743 -0.2929
53216W        W96232  33.890  32.674  14.633  0.0177  0.3479 -0.0424
53217W        W96233   8.299  23.648  17.359  0.3484 -0.0494  0.2696
53218W        W96234   0.452  14.753  20.499 -0.1081 -0.0350 -0.4167
53219W        W96235  22.198  28.532  23.629 -0.1188 -0.2082 -0.2507
53220W        W96236   1.157   9.927  26.826 -0.0484 -0.2027 -0.0805
53221W        W96237   5.040   6.968  19.579  0.1335 -0.1160  0.1705
53222W        W96238   3.659   0.003  15.175 -0.2724 -0.0391  0.0302
53223W        W96239   0.398  32.461  17.698  0.1713  0.0424  0.0086
53224W        W96240  26.508  23.270   0.756  0.1993 -0.0275  0.1553
53225W        W96241  10.256   1.777   7.847  0.0312 -0.0685 -0.0399
53226W        W96242  16.604   0.003  24.004  0.0549  0.2860 -0.0112
53227W        W96243  11.684   9.058   4.598  0.2829 -0.0251 -0.1132
53228W        W96244  31.987  27.872  16.187  0.0766  0.0521 -0.0681
53229W        W96245  27.375   3.782   8.032 -0.1469  0.0594  0.1379
53230W        W96246   7.037   3.077  22.660 -0.1689 -0.1447 -0.0779
53231W        W96247  27.911  22.372   3.630 -0.0447  0.0271  0.1996
53232W        W96248  23.684   7.693  21.449 -0.0834  0.0428  0.1794
53233W        W96249  17.080  31.161  25.755  0.2763 -0.0329  0.1408
53234W        W96250  32.893  14.049  27.468  0.0574 -0.0020 -0.0627
53235W        W96251  34.357  17.983  18.955  0.0697 -0.0259  0.0502
53236W        W96252  16.860   5.767   4.547  0.0770  0.0444  0.3289
53237W        W96253  11.973  34.739  16.622 -0.2521 -0.0344 -0.0804
53238W        W96254   6.158  26.595  22.783  0.0085  0.2730 -0.0575
53239W        W96255  24.471   5.197  24.950  0.1167 -0.3089  0.1917
53240W        W96256   7.048   0.552  20.810  0.0712  0.0781 -0.0574
53241W        W96257  16.202  25.827  21.517 -0.2011  0.1249 -0.0627
53242W        W96258  22.623  30.996  17.672  0.1274  0.2628  0.4063
53243W        W96259  30.316   1.877   8.227  0.0147 -0.1477 -0.0067
53244W        W96260  19.834   2.958  20.460  0.3378 -0.2213  0.0254
53245W        W96261  34.098  26.770   2.893 -0.0974 -0.2391 -0.0772
53246W        W96262   4.122  11.140  23.196  0.0199  0.3688 -0.0630
53247W        W96263  23.909  26.392   2.569 -0.3065  0.0514  0.0225
53248W        W96264  26.124  11.616  23.237  0.0725  0.1534  0.0585
53249W        W96265  30.165  11.746   4.816 -0.0885  0.0476  0.4453
53250W        W96266  28.802  32.921   5.085 -0.0133 -0.1023 -0.0941
53251W        W96267   6.411  32.355  19.434  0.1085 -0.1383  0.2951
53252W        W96268  27.226  28.791  17.970  0.0440  0.1722  0.1681
53253W        W96269  34.675  17.998  16.817 -0.1440 -0.2027 -0.5936
53254W        W96270  19.297  25.934  28.755 -0.0255  0.2501 -0.0618
53255W        W96271   5.068  17.978   7.212 -0.3092 -0.2261  0.1885
53256W        W96272  29.937  26.066   0.622  0.0179  0.0861 -0.1364
53257W        W96273  10.003  19.576  23.552 -0.1679 -0.0616 -0.1970
53258W        W96274  30.023  21.462  19.861 -0.0852  0.4979 -0.1000
53259W        W96275  29.548  18.436   2.221  0.2010 -0.1008 -0.0955
53260W        W96276   2.848  25.727  24.568 -0.0660 -0.0052 -0.0135
53261W        W96277   0.547   0.416  21.683  0.0102  0.3376  0.2148
53262W        W96278  34.328   2.689  26.450 -0.1360 -0.2692  0.1275
53263W        W96279  29.663  10.720   0.236  0.4901 -0.1382 -0.1059
53264W        W96280   1.984   8.533  13.949  0.1167  0.0289 -0.2767
53265W        W96281   0.498  17.591  10.073 -0.2395  0.1671  0.1535
53266W        W96282  23.945  32.104   8.854 -0.1538  0.0279 -0.2308
53267W        W96283   9.163  21.411  13.630  0.1465  0.1697 -0.2951
53268W        W96284   1.579  10.264  17.364  0.2810 -0.1187  0.0663
53269W        W96285   2.914  22.906   4.695  0.2456 -0.0811 -0.1116
53270W        W96286  33.959  14.702   6.969 -0.0450  0.1213  0.0470
53271W        W96287   0.807   5.464   4.929 -0.0471  0.1220 -0.1474
53272W        W96288   0.931   7.736   8.099  0.0906  0.0961 -0.2716
53273W        W96289  32.207  21.441  17.722 -0.2075  0.3488 -0.0246
53274W        W96290  28.553  23.149  18.532 -0.0377  0.2621 -0.1439
53275W        W96291  17.033   4.045   1.033 -0.2454 -0.1703  0.0804
53276W        W96292  21.545   7.749  28.513  0.2503 -0.2687  0.0508
53277W        W96293   4.441  14.717  17.709  0.0110 -0.1569  0.0454
53278W        W96294   8.937   8.367   8.675  0.1548 -0.3509 -0.3994
53279W        W96295  28.014  28.862  26.964  0.1791 -0.1542  0.0032
53280W        W96296  26.832  32.446   7.268 -0.4298 -0.1272  0.0818
53281W        W96297   5.465  12.849   9.642  0.0242  0.1919  0.3149
53282W        W96298   5.901  19.880  16.185  0.1802 -0.0152  0.3000
53283W        W96299  31.115  26.918   2.589 -0.2263  0.1405 -0.1512
53284W        W96300  17.143  26.546  18.800 -0.3084 -0.1226  0.1574
53285W        W96301  16.865   5.174  21.146  0.2423 -0.0629 -0.1345
53286W        W96302   3.091  34.189   3.858  0.1354  0.0933 -0.1188
53287W        W96303  21.376  16.191  22.016  0.0657  0.0943  0.3514
53288W        W96304  23.428  28.233   8.117 -0.2300  0.1470 -0.1054
53289W        W96305  15.090   1.093   3.879  0.2676  0.1503 -0.1833
53290W        W96306   1.319  33.616  29.018 -0.2113 -0.1184  0.0831
53291W        W96307   0.109  24.609   9.116  0.0631 -0.3895  0.2862
53292W        W96308  10.595  23.797  24.991  0.1124 -0.3200  0.1231
53293W        W96309   1.071  18.187  14.924 -0.2033  0.2021  0.0036
53294W        W96310  30.415   4.942  20.897 -0.1147  0.0638  0.3538
53295W        W96311  24.482  20.496  19.053 -0.1815  0.2101 -0.0755
53296W        W96312  33.287  31.501  21.235 -0.0228  0.2379 -0.1680
53297W        W96313   3.535  26.456   0.007 -0.2411 -0.1644  0.2533
53298W        W96314  32.976  28.270   6.344  0.0491 -0.2999 -0.1267
53299W        W96315   3.067  19.518  24.059 -0.2150 -0.0110 -0.1559
53300W        W96316   5.653   6.056  21.268  0.1735  0.0949 -0.0185
53301W        W96317  25.968  30.638  24.356  0.0857  0.0658 -0.2003
53302W        W96318  21.721  11.612  22.553 -0.1582 -0.0381 -0.0321
53303W        W96319  29.852   9.261   7.460  0.0691 -0.0265 -0.0709
53304W        W96320  24.224  24.311   6.292 -0.2185 -0.0636  0.1008
53305W        W96321   0.779   8.237  19.168 -0.0189 -0.1189 -0.1778
53306W        W96322  23.048   4.547  20.670  0.0239 -0.1605  0.4695
53307W        W96323  11.279  15.702  27.212  0.0210 -0.0069 -0.1582
53308W        W96324  33.291  23.891   4.961 -0.1625 -0.2620  0.1124
53309W        W96325   4.579  32.195  26.068 -0.1554  0.1007  0.0672
53310W        W96326  33.571  26.697  28.992  0.1063  0.0402 -0.2918
53311W        W96327   5.315  22.057   5.873 -0.0291  0.2469  0.2369
53312W        W96328  19.202   9.060  29.051 -0.4066  0.2024  0.1081
53313W        W96329  30.582   7.269   5.874 -0.0392  0.1363  0.0753
53314W        W96330  29.434  16.286   3.551  0.0721 -0.2214 -0.3842
53315W        W96331  32.950   1.919  21.688 -0.1788  0.0769  0.3664
53316W        W96332  17.613  23.678  22.400 -0.0316 -0.0821  0.0129
53317W        W96333  32.140  34.576  25.464 -0.0544  0.1470 -0.3435
53318W        W96334   3.446   5.636  15.140 -0.0692  0.0976 -0.0415
53319W        W96335  30.707  25.254   7.933  0.0307 -0.1320  0.0781
53320W        W96336  24.283  29.511  23.107 -0.1503  0.0251 -0.2615
53321W        W96337  29.280  12.651   4.758  0.4626 -0.1008 -0.1546
53322W        W96338  31.113  30.337  24.382  0.0188  0.2048  0.1801
53323W        W96339  29.765   0.610  18.728 -0.1202  0.1851  0.0904
53324W        W96340  26.179  26.218   3.651  0.0605  0.0639  0.0040
53325W        W96341  29.285  21.933  25.973  0.0278  0.0619  0.1204
53326W        W96342  32.681  31.997  28.293  0.0054 -0.1977 -0.0842
53327W        W96343   2.761  28.745   2.054 -0.2075  0.1988 -0.1660
53328W        W96344  23.533  26.572   0.436 -0.1447 -0.1368  0.0572
53329W        W96345  33.864  22.534  29.128 -0.0635 -0.3247 -0.2627
53330W        W96346   1.661  26.568  10.030 -0.2969 -0.0751 -0.0835
53331W        W96347  31.740  18.138  18.418  0.0571 -0.0749  0.1110
53332W        W96348   3.229   0.363  16.819  0.0676 -0.0162  0.0772
53333W        W96349  30.424  26.123   6.405 -0.0109  0.1820  0.1046
53334W        W96350   1.600   1.059  27.133  0.0870 -0.0751  0.1090
53335W        W96351  13.360  23.156  25.152  0.2488  0.0169  0.3114
53336W        W96352   0.128  27.426   2.823  0.3928  0.1553  0.3380
53337W        W96353  11.861  20.366  27.747 -0.1014 -0.0878 -0.2535
53338W        W96354  33.366  29.099  18.513 -0.1029 -0.1436  0.0776
53339W        W96355  11.083  23.685  22.808 -0.0266  0.1294  0.0066
53340W        W96356  23.367  32.635   9.040 -0.1632 -0.0865 -0.3418
53341W        W96357  18.500  28.365  19.798  0.0580  0.0778 -0.0068
53342W        W96358  13.934  16.759  13.663  0.1076  0.0970  0.0275
53343W        W96359  34.229   1.628  27.572 -0.1015 -0.1536 -0.0810
53344W        W96360  31.570  30.986  22.792 -0.2666 -0.1582  0.2762
53345W        W96361  20.247  28.437   4.853  0.1662 -0.1014  0.0730
53346W        W96362  28.633  27.791   8.455 -0.3135 -0.1338  0.0164
53347W        W96363  24.698  23.564  23.747 -0.0190  0.1458  0.1207
53348W        W96364  25.494   6.402   5.801  0.1824 -0.1755  0.0885
53349W        W96365  21.420  32.388  25.299  0.0522 -0.0135 -0.0640
53350W        W96366  32.497  20.345  17.993  0.2422 -0.1063 -0.1094
53351W        W96367  31.350  19.981  21.259  0.1831  0.0584  0.1018
53352W        W96368  30.414  13.694  28.878  0.3070  0.0682  0.0157
53353W        W96369  28.041  19.531   1.643  0.1572 -0.0408  0.0243
53354W        W96370   7.634  24.178  17.774 -0.2700 -0.0061 -0.2686
53355W        W96371   1.473   8.158   6.166  0.0446  0.0164  0.2102
53356W        W96372  27.314  15.095  28.821 -0.3031  0.0865  0.0005
53357W        W96373  33.434   1.673  23.544 -0.2471 -0.3231  0.1632
53358W        W96374  12.203  27.328  29.204 -0.1422 -0.2583 -0.0456
53359W        W96375  24.360  25.236   3.035  0.0037 -0.2340 -0.0544
53360W        W96376   3.242  17.506   3.458 -0.0070  0.2378  0.1304
53361W        W96377   3.545  24.502  17.239 -0.1387 -0.0990 -0.1894
53362W        W96378  28.535  19.683   5.684 -0.0868  0.0721 -0.1587
53363W        W96379   8.427  23.708  24.129  0.1325  0.2387 -0.1899
53364W        W96380   1.094  34.285  17.205  0.4294  0.1005 -0.0771
53365W        W96381  32.465  14.078  23.038  0.5254 -0.1178 -0.2555
53366W        W96382   2.081  11.648  26.994 -0.0271 -0.3420  0.0616
53367W        W96383  26.601   8.261  18.098  0.0116 -0.0823  0.1435
53368W        W96384  33.619  22.910   1.204 -0.0995  0.3774  0.1415
53369W        W96385  30.020  25.919   1.102  0.0097  0.1760  0.0152
53370W        W96386   9.421  20.042   1.544 -0.2925 -0.3359 -0.1991
53371W        W96387  34.620  19.984  15.729 -0.0852  0.0733 -0.1934
53372W        W96388  21.197   2.022   8.575  0.1429 -0.1053  0.0363
53373W        W96389  18.924   6.744  19.677  0.0116  0.3292  0.3462
53374W        W96390  26.441  24.671  20.211  0.1945  0.0812  0.0422
53375W        W96391  23.113   2.626   0.394  0.0656  0.0309 -0.1902
53376W        W96392   1.187  27.911  24.463 -0.0642  0.0505 -0.1403
53377W        W96393   0.146  30.603  16.801  0.3145  0.3526  0.0404
53378W        W96394  13.947   2.214   9.523  0.1845 -0.3336 -0.0089
53379W        W96395  29.924  33.316   4.383  0.0711  0.4127  0.1988
53380W        W96396   9.901  13.408  22.277 -0.1310 -0.0762 -0.2890
53381W        W96397  30.318  21.645  27.725 -0.0193  0.0286 -0.2561
53382W        W96398  28.043   8.023   8.007 -0.3032 -0.1204  0.1734
53383W        W96399  12.885  14.336   0.129  0.5100  0.0583 -0.0679
53384W        W96400   1.422  30.468  17.128 -0.0687 -0.1580 -0.0787
53385W        W96401  29.799  15.921  22.303 -0.1835  0.1557  0.0643
53386W        W96402  30.434  28.265   6.319  0.0016 -0.3471  0.2118
53387W        W96403  15.011  30.342  24.384 -0.0842  0.1508 -0.1259
53388W        W96404  22.712  21.152  14.489  0.1468 -0.0153  0.0620
53389W        W96405  21.677  29.704  27.124  0.1081  0.2144  0.1947
53390W        W96406  28.898  20.192   0.053  0.2955 -0.0344  0.2304
53391W        W96407  34.291  17.284   8.018  0.1067  0.2499 -0.1333
53392W        W96408   3.998  20.169   8.718 -0.3116 -0.1496 -0.1635
53393W        W96409  31.973  26.371  22.804 -0.1404  0.0740 -0.0334
53394W        W96410   1.278  19.686  23.609 -0.3370 -0.0916  0.0418
53395W        W96411  25.533  28.267  22.990  0.0612 -0.1059 -0.2172
53396W        W96412  22.861  33.986  21.199  0.2276 -0.2576  0.5045
53397W        W96413  22.431  32.299  21.522  0.1329 -0.1265 -0.1400
53398W        W96414   1.031  33.667  22.713  0.0352 -0.0981  0.1002
53399W        W96415  13.550  33.772  27.038 -0.1151  0.0974 -0.0724
53400W        W96416   5.267  15.354  26.148  0.2036 -0.2225  0.2326
53401W        W96417   5.133  27.555  19.639  0.0100  0.0750  0.0668
53402W        W96418  31.616  21.850  21.825  0.1973  0.2346 -0.0114
53403W        W96419  26.574  21.052   4.964  0.3159 -0.5867 -0.0145
53404W        W96420  33.074   7.921  18.060  0.1289  0.0822 -0.0504
53405W        W96421   7.795   9.472  17.253 -0.0038  0.1448 -0.1444
53406W        W96422   3.280   8.575  14.212  0.0627 -0.0832 -0.0601
53407W        W96423  30.481   7.363  23.081  0.0782 -0.2495  0.0795
53408W        W96424  31.526  25.219   0.946  0.2301 -0.0378  0.1137
53409W        W96425  25.657   4.383  26.837  0.1250 -0.1499  0.0642
53410W        W96426   6.800  31.666  23.326 -0.0433  0.0445 -0.1769
53411W        W96427  30.577   7.882  19.322 -0.0203  0.2330 -0.1242
53412W        W96428  29.246  17.265  28.937 -0.1511  0.0373 -0.2446
53413W        W96429   5.503  21.752   0.135 -0.0368  0.3091 -0.2294
53414W        W96430  10.965  33.100  21.380  0.1093  0.2639  0.0319
53415W        W96431   8.493  32.928  27.560 -0.0408 -0.0839  0.2109
53416W        W96432  11.554  32.002  27.469  0.1006  0.2443  0.3325
53417W        W96433  16.745  11.263  29.035 -0.2316 -0.1216  0.1961
53418W        W96434   4.439   1.792  23.724 -0.1080 -0.1447 -0.3684
53419W        W96435  13.095  21.117   1.811  0.1406  0.2500  0.1805
53420W        W96436  30.420  32.377  16.348  0.4078 -0.0014  0.1312
53421W        W96437   4.860  23.005  16.184  0.1993 -0.0316  0.2558
53422W        W96438  20.068   9.963  25.062 -0.0835  0.0437 -0.2319
53423W        W96439   5.513   2.598   8.241 -0.3368 -0.2685  0.0454
53424W        W96440   5.922  27.087   6.225 -0.0611  0.0698  0.0183
53425W        W96441  34.222  34.171  18.579 -0.0182  0.0899 -0.1096
53426W        W96442   7.084  23.313  25.744  0.1825 -0.1645 -0.0223
53427W        W96443  31.493  33.752   4.126 -0.2421 -0.1657 -0.0517
53428W        W96444   2.761  18.714   3.299 -0.2706  0.0737 -0.1654
53429W        W96445  23.289  14.613   1.647 -0.0370  0.0002 -0.1249
53430W        W96446  31.075  27.534   5.171 -0.1671  0.2289  0.0815
53431W        W96447  24.487  26.634   3.852 -0.0091  0.3060  0.1304
53432W        W96448  27.280  18.925  25.278  0.0131  0.0144 -0.1254
53433W        W96449   5.923  23.606   7.897 -0.3406 -0.0519  0.0805
53434W        W96450  21.692  21.532   2.277 -0.0330  0.0475 -0.0215
53435W        W96451  34.463  22.542   1.216 -0.0057  0.1895 -0.0297
53436W        W96452  26.461   8.989  21.605  0.0019 -0.2126  0.0930
53437W        W96453  27.009   4.460   0.991  0.2388 -0.0580  0.2071
53438W        W96454  33.047  31.315   1.675 -0.1928  0.0327 -0.1761
53439W        W96455   3.784  31.794  10.626 -0.0519  0.3985 -0.1686
53440W        W96456   1.550   8.889  10.076 -0.0645  0.1166  0.0681
53441W        W96457  22.810  23.470  21.807  0.1072 -0.1310  0.0178
53442W        W96458   6.359   1.173   3.788 -0.1190 -0.0414 -0.0336
53443W        W96459  24.867  20.379  21.881 -0.0859 -0.2190 -0.0484
53444W        W96460  20.989  34.061  24.981  0.0483  0.0391  0.4810
53445W        W96461  31.695  18.013   0.587  0.2235  0.2484  0.1042
53446W        W96462   2.875  25.723  21.070 -0.0832 -0.3267  0.1625
53447W        W96463  17.719   5.871   6.793 -0.2749 -0.0387  0.2647
53448W        W96464  31.631  26.910   2.665 -0.1725  0.0276 -0.2778
53449W        W96465  30.860   7.019   7.958 -0.0379 -0.2097 -0.0351
53450W        W96466  23.128  16.698  15.538  0.0246  0.1067 -0.0973
53451W        W96467  32.505  11.816  17.598  0.1126  0.2775 -0.0463
53452W        W96468   3.322  15.902   2.814  0.0617 -0.0984  0.0175
53453W        W96469  28.783   4.791   1.028  0.0091 -0.1071 -0.2477
53454W        W96470   3.822  22.163   0.630  0.2055 -0.0856  0.0809
53455W        W96471  27.480   2.132   4.968  0.0706 -0.1990 -0.0597
53456W        W96472  19.656  13.282  21.650  0.1345 -0.0894  0.1305
53457W        W96473  33.218  29.146  29.111 -0.0395 -0.2185 -0.0019
53458W        W96474  32.933  25.072   4.906 -0.3371  0.1519  0.3792
53459W        W96475  14.821  21.208   2.438 -0.3985  0.1691 -0.0407
53460W        W96476  30.276   3.128  14.947 -0.3000 -0.0277  0.0834
53461W        W96477  29.186   1.009   2.450  0.0586  0.0675 -0.1661
53462W        W96478  30.574  11.074   7.160  0.0887  0.1565  0.0169
53463W        W96479   5.170  32.365   6.723  0.3470  0.0382 -0.0519
53464W        W96480  23.078  32.242   5.915 -0.0296  0.2565  0.0639
53465W        W96481  21.503  16.507  16.425  0.1959 -0.1204 -0.0186
53466W        W96482   1.752  17.801   2.193 -0.0197  0.3185  0.1481
53467W        W96483  11.662  21.693  15.868 -0.0755 -0.1937 -0.0395
53468W        W96484   1.192  18.432  21.588 -0.1344 -0.3077 -0.1941
53469W        W96485   3.793  29.997  26.170  0.0008  0.2247  0.2835
53470W        W96486  24.091  11.048   5.321  0.1169 -0.0895  0.0622
53471W        W96487  30.512   9.035  27.489  0.0922  0.1832 -0.2655
53472W        W96488  21.298  20.901  13.908 -0.1920 -0.0801  0.0761
53473W        W96489   7.983  19.112   1.686 -0.0754 -0.0725 -0.1081
53474W        W96490  29.888  19.293  27.982  0.1027  0.1354  0.1206
53475W        W96491  21.733  30.691   0.539  0.3211  0.1994  0.2781
53476W        W96492  33.389  29.619   6.360 -0.0162 -0.1088  0.0232
53477W        W96493  27.797  11.777   4.556  0.0100  0.0880 -0.2495
53478W        W96494  29.945   2.205  18.696  0.0256 -0.1881  0.2122
53479W        W96495  22.850  33.280   6.580  0.0731  0.1170  0.2827
53480W        W96496  21.936  25.127  25.176  0.0238 -0.1869 -0.2923
53481W        W96497  13.208  29.990   5.186 -0.3455 -0.0969 -0.1287
53482W        W96498  25.075   1.725  20.338  0.3507  0.0684  0.3046
53483W        W96499   0.310  31.406   2.361  0.2165 -0.1243  0.0529
53484W        W96500  20.890  12.459  17.192  0.0005  0.0609  0.0086
53485W        W96501   0.039  13.947   5.456 -0.0305  0.0348  0.4107
53486W        W96502  31.042  18.533  18.044 -0.3226  0.3756  0.0699
53487W        W96503  15.763  29.684   9.219  0.2807  0.3287  0.0377
53488W        W96504   4.836  33.489   4.438  0.0607 -0.0967 -0.0567
53489W        W96505  26.924   9.443   4.849  0.1176 -0.1360 -0.0080
53490W        W96506  27.965  12.708   1.422 -0.0038 -0.2925  0.1656
53491W        W96507  32.110   5.552   1.801 -0.1044 -0.0583  0.0659
53492W        W96508   6.297  19.138   7.850 -0.1288  0.2620  0.0232
53493W        W96509  10.371  14.627  13.478  0.1129 -0.2794 -0.0199
53494W        W96510  34.340  26.985  19.785 -0.0321  0.0676  0.2470
53495W        W96511  26.065  22.232   3.287 -0.2239  0.1765  0.0689
53496W        W96512  25.679   9.991  24.222 -0.2638  0.3245 -0.0192
53497W        W96513  28.109  31.396  19.708 -0.3264  0.3814  0.3121
53498W        W96514  11.964   2.308  25.060  0.0547 -0.1266 -0.1004
53499W        W96515  11.492  22.184  27.779  0.1592  0.1256 -0.0417
53500W        W96516   2.784  27.478   8.526 -0.0584  0.0931 -0.0134
53501W        W96517  30.639  19.347  19.384 -0.0280  0.0830  0.1219
53502W        W96518   2.250   7.711  25.094  0.4612  0.0430  0.0524
53503W        W96519  33.218   7.274   6.834  0.1032  0.0373 -0.2238
53504W        W96520   9.752  17.678  19.360 -0.2237  0.0486  0.0011
53505W        W96521  29.382  34.051  22.813 -0.1942  0.0397 -0.0640
53506W        W96522  24.264   2.636  27.034 -0.0510 -0.0545  0.0124
53507W        W96523  27.521  30.535  25.090  0.0388  0.0652 -0.0657
53508W        W96524  18.955   5.735   0.304 -0.0732 -0.0047  0.0723
53509W        W96525   8.301  28.598   6.146  0.1646  0.1710  0.0202
53510W        W96526  29.786  23.699   4.504 -0.1909  0.0586 -0.0049
53511W        W96527  21.809  21.309  20.514  0.1762 -0.3874 -0.2453
53512W        W96528  30.010   6.382  22.925 -0.0167 -0.1433 -0.0025
53513W        W96529  33.703   5.283  17.211 -0.0427  0.0818  0.2459
53514W        W96530  29.956   6.953   5.951  0.3672 -0.1264 -0.1332
53515W        W96531  17.910  26.283  18.265 -0.5875  0.0876 -0.1513
53516W        W96532  31.028  27.131  20.199  0.1512 -0.3731  0.1902
53517W        W96533   1.333  27.443  21.629  0.1934  0.0667 -0.1738
53518W        W96534   1.217   0.354   9.293 -0.1949 -0.0503  0.1008
53519W        W96535  18.573  27.300  25.268  0.0521 -0.0600  0.2442
53520W        W96536  12.729  33.393  16.922 -0.1469  0.0203  0.0209
53521W        W96537   4.311   2.450  20.578  0.1679 -0.2996 -0.0904
53522W        W96538  32.667  18.755  18.657  0.1050  0.0496  0.0619
53523W        W96539  31.518   9.991  26.413 -0.2449 -0.1450  0.2098
53524W        W96540   9.033  12.122  15.374 -0.0040 -0.1170  0.0467
53525W        W96541   3.976  33.535  23.585  0.1177 -0.0151  0.0766
53526W        W96542  18.742  10.615  13.075  0.3601  0.0648 -0.3237
53527W        W96543   2.879   2.667   8.294 -0.0926 -0.1138 -0.0952
53528W        W96544  32.263  30.212   3.840 -0.2453  0.0117  0.3632
53529W        W96545  16.663  17.385  14.664  0.0463  0.1780 -0.0409
53530W        W96546  30.915   5.040  15.702 -0.0766  0.3044  0.0424
53531W        W96547   7.426  31.900   4.365  0.1370 -0.2258 -0.0812
53532W        W96548   1.323   6.385  16.127 -0.1608 -0.0790  0.1937
53533W        W96549   8.127   6.064  16.257 -0.1791  0.3511 -0.0003
53534W        W96550   4.804  30.468  15.889 -0.2888 -0.0296  0.2181
53535W        W96551   3.843   7.611  17.277  0.2105 -0.1542 -0.1582
53536W        W96552  16.670   6.708  17.981  0.2362  0.1727  0.2740
53537W        W96553  32.811  28.119  28.915  0.0393 -0.2477  0.3556
53538W        W96554  25.723  33.803  19.347 -0.1821 -0.0044  0.3090
53539W        W96555  10.017   3.273   3.720 -0.2758  0.0762 -0.1071
53540W        W96556  30.982   9.896  26.518 -0.0279  0.0366  0.3148
53541W        W96557  14.391  30.532  16.261 -0.1058  0.0041  0.2392
53542W        W96558   6.646  30.932  18.406  0.1092  0.2999  0.2265
53543W        W96559   4.306  27.295   0.818 -0.1114 -0.0803 -0.3502
53544W        W96560   4.186   4.402  16.364  0.0657 -0.1893 -0.1306
53545W        W96561   5.585   3.923  15.132 -0.1273  0.6002 -0.3174
53546W        W96562   3.773   6.523  22.981 -0.0253  0.1633  0.1402
53547W        W96563   3.045   4.801  23.794 -0.1640  0.0010 -0.0265
53548W        W96564  34.753  31.460  14.817 -0.0814 -0.0691 -0.0084
53549W        W96565  33.966   8.471  14.529  0.1569 -0.0777  0.3571
53550W        W96566  26.542  29.669  16.932 -0.1340  0.0455 -0.1007
53551W        W96567  13.660  13.666  24.213  0.2591 -0.2909 -0.3153
53552W        W96568  28.982  18.487  26.411  0.1460  0.0415 -0.0899
53553W        W96569  33.180  27.843   6.601  0.0869 -0.2718 -0.1015
53554W        W96570   4.465  22.849  19.479 -0.1818 -0.0836 -0.1031
53555W        W96571  30.285  26.581   4.662  0.5408  0.0364  0.0537
53556W        W96572  33.318   8.524  17.795  0.0885  0.3777  0.1581
53557W        W96573   3.628  25.000  24.382  0.0765  0.1033 -0.0162
53558W        W96574  30.461  30.724  26.000 -0.0333  0.0811  0.1125
53559W        W96575  22.662   2.325  22.298 -0.0243 -0.2047 -0.0386
53560W        W96576  33.526   7.762  21.923 -0.0015  0.3431 -0.1108
53561W        W96577   7.198   1.106  16.251  0.1982  0.0691 -0.0034
53562W        W96578  21.183  32.178  28.215 -0.1080 -0.1635  0.0329
53563W        W96579   6.333  26.603  17.021  0.0859 -0.2029  0.0423
53564W        W96580  30.439  25.401  21.224 -0.0097 -0.0267 -0.2833
53565W        W96581  24.931  25.740  21.416  0.1451  0.0453 -0.1645
53566W        W96582   0.641  29.596  15.824  0.0419 -0.3572 -0.1793
53567W        W96583  28.207   1.187  24.705 -0.0286  0.1046 -0.1830
53568W        W96584   5.283   2.757  16.908 -0.0771  0.2609  0.0819
53569W        W96585   8.575  28.645  18.520 -0.1049 -0.0155 -0.0184
53570W        W96586   1.406   7.777  24.952 -0.1562 -0.1836 -0.1404
53571W        W96587  25.101  19.797  15.124  0.0816 -0.1991 -0.0366
53572W        W96588  21.814  16.178  15.923  0.0835  0.2166  0.0717
53573W        W96589   6.798  20.547   0.298  0.0821  0.1690  0.1272
53574W        W96590  16.440  28.268  22.581  0.0465 -0.0237 -0.0160
53575W        W96591  21.982  22.974  25.262  0.0164  0.0406 -0.0633
53576W        W96592  28.506  12.186  20.830 -0.0041  0.0680  0.0710
53577W        W96593  23.991   3.583  17.241 -0.1805  0.0626  0.3991
53578W        W96594   4.450  19.071  19.746  0.0748  0.0153 -0.1502
53579W        W96595  29.717   0.164  19.460  0.1393 -0.1814 -0.1669
53580W        W96596  21.870   4.141  19.248  0.4587  0.0258 -0.1758
53581W        W96597  13.654  10.080  24.840  0.1161 -0.2077  0.1782
53582W        W96598  33.385  27.364  24.861  0.0670 -0.0012  0.0256
53583W        W96599  30.770  11.465  20.164  0.1427  0.0221 -0.2051
53584W        W96600   7.201  27.875  18.552  0.2049  0.1075 -0.2565
53585W        W96601  15.076  28.048  26.354 -0.3450 -0.0176  0.0859
53586W        W96602   4.567   5.107  19.056  0.0239  0.3283 -0.1609
53587W        W96603  26.849  31.034  20.538  0.0457 -0.2539 -0.1337
53588W        W96604  13.444  32.814  23.923 -0.2186  0.2111 -0.1066
53589W        W96605  33.580  14.848  18.498  0.2951 -0.0551  0.3129
53590W        W96606   4.438  20.406  19.790  0.2536  0.0517  0.0794
53591W        W96607   5.759  18.791  15.166 -0.2273  0.1891 -0.0015
53592W        W96608   0.539  28.784  25.994  0.3747  0.1312  0.0386
53593W        W96609  24.187   7.944  17.910  0.5803 -0.1552 -0.3558
53594W        W96610  32.915  20.452  20.327 -0.1903 -0.2272 -0.3243
53595W        W96611  20.312  31.700   4.064 -0.0049 -0.0413  0.0345
53596W        W96612  31.467   1.916  15.003  0.0914 -0.0670  0.0030
53597W        W96613  16.314  26.545  22.034  0.0094  0.0503 -0.1242
53598W        W96614   0.646  27.363  16.610  0.0662 -0.2670 -0.1023
53599W        W96615  31.776  32.191  19.105  0.0711  0.4067 -0.1526
53600W        W96616  29.474  21.919   3.132 -0.0787 -0.1495 -0.0995
53601W        W96617  15.838  21.918  25.712  0.0205  0.1695 -0.1981
53602W        W96618  23.351   3.625  25.393  0.3120 -0.1357 -0.3056
53603W        W96619   0.900  27.409  16.195 -0.2736 -0.0595  0.0855
53604W        W96620  31.871  21.747  16.267 -0.2459  0.0410 -0.0670
53605W        W96621  31.665  22.144  16.457  0.1527  0.0353 -0.3101
53606W        W96622  33.111  20.041  16.888  0.0599  0.1716  0.1099
53607W        W96623  23.146   1.078  21.762  0.2614 -0.1175  0.0917
53608W        W96624  30.759  27.105  28.657 -0.3307 -0.0509 -0.0419
53609W        W96625  22.634  31.386  25.607  0.1950  0.0792  0.0310
53610W        W96626   3.989  21.575  13.746  0.2369  0.2276 -0.0386
53611W        W96627  31.600  17.575  15.844 -0.0969 -0.1556  0.2364
53612W        W96628   4.464   6.591  15.642  0.3440  0.1901  0.2109
53613W        W96629  30.706  32.592  20.373  0.0830  0.0565  0.1879
53614W        W96630   0.741  26.402  23.305  0.1889  0.0495  0.1546
53615W        W96631  24.075   3.173  14.909 -0.1623 -0.2111  0.0810
53616W        W96632   0.916   2.691  18.384  0.0088 -0.2491 -0.3244
53617W        W96633   4.074  26.986   5.054  0.0211  0.2092 -0.1415
53618W        W96634   2.365  34.479  25.186 -0.0711 -0.0721 -0.1238
53619W        W96635  32.394   0.679  28.074  0.1785 -0.1601  0.1646
53620W        W96636  14.570  22.422  12.737  0.1922  0.0847  0.1426
53621W        W96637   1.181  21.480  18.108 -0.4502  0.0456 -0.0691
53622W        W96638  18.168   5.564  19.516  0.2393 -0.0232 -0.3339
53623W        W96639   8.075   8.432  23.675  0.2210 -0.0643 -0.0506
53624W        W96640  21.951  27.158  22.196  0.2442  0.2562  0.1578
53625W        W96641  25.497   5.748  23.889  0.2170 -0.2361  0.2052
53626W        W96642  28.084  30.089  24.584 -0.0840  0.0981 -0.0573
53627W        W96643  10.448  10.525  21.888 -0.0723 -0.4004 -0.3083
53628W        W96644  27.636   0.150  22.411 -0.0563 -0.0451  0.0887
53629W        W96645  30.908   4.481  20.136 -0.0506  0.1649 -0.0584
53630W        W96646   4.703  34.150  27.498 -0.1456 -0.2107  0.1988
53631W        W96647  30.062   4.257   4.207 -0.1961  0.1399  0.0923
53632W        W96648  20.549   1.185  17.961  0.0272  0.0906  0.3419
53633W        W96649  30.133  13.086  18.120 -0.0727  0.1988  0.1660
53634W        W96650  28.680  17.236  20.577  0.0379 -0.3211 -0.2924
53635W        W96651  33.417  22.640  16.372  0.0410  0.0533 -0.0160
53636W        W96652   0.710   2.224  23.367  0.1940 -0.2713  0.1423
53637W        W96653   1.101  27.981  15.275  0.0558 -0.0855 -0.1992
53638W        W96654  24.658   1.817  28.093  0.0300 -0.0507 -0.0455
53639W        W96655  34.550  23.128  14.038  0.2639  0.1028 -0.0778
53640W        W96656  20.483  31.907  20.244  0.2310  0.0709 -0.3646
53641W        W96657  12.944   0.112  26.253 -0.0013 -0.0462  0.1144
53642W        W96658  12.019  31.796  17.511 -0.1293  0.3589 -0.1217
53643W        W96659  33.680  31.366  14.498 -0.1501  0.0125 -0.1197
53644W        W96660  31.568  26.826  26.529 -0.0190  0.1278  0.1182
53645W        W96661  21.180  23.131  23.166 -0.0721  0.0749  0.0908
53646W        W96662  29.955  23.614  17.093  0.1518 -0.4192 -0.2034
53647W        W96663   4.458   5.133  14.565 -0.0871 -0.1522 -0.0822
53648W        W96664  33.269  11.355  14.974 -0.2390  0.2583 -0.0045
53649W        W96665   2.482  23.711  19.115  0.2360  0.1555 -0.1782
53650W        W96666   0.049  30.690  20.356  0.1669  0.1453  0.1630
53651W        W96667  18.599  33.059  15.698  0.1574  0.0901 -0.1458
53652W        W96668  15.817  18.441  14.435  0.2339 -0.2661  0.2494
53653W        W96669  32.982   8.232  13.887  0.1738  0.1069  0.0073
53654W        W96670   5.561   8.781  18.354  0.0511 -0.0429  0.1582
53655W        W96671  25.767  25.437  22.593 -0.1200  0.0073 -0.3502
53656W        W96672  12.728   0.267   1.303  0.3475  0.1292 -0.2957
53657W        W96673   1.581  27.918  29.238  0.4193 -0.4050 -0.0207
53658W        W96674  19.915   0.392  22.068 -0.1649 -0.5358 -0.0320
53659W        W96675  29.127   0.737  19.059  0.0885  0.1828 -0.1730
53660W        W96676  31.822  32.252  27.440 -0.2219 -0.0133  0.2012
53661W        W96677  27.810   8.041  24.349  0.1084 -0.0238 -0.0598
53662W        W96678  22.252  14.680  21.174 -0.1654 -0.2147 -0.0413
53663W        W96679  32.257   4.857  19.046 -0.1749  0.1544  0.1199
53664W        W96680  25.352  27.813   4.657 -0.1353 -0.1081  0.0174
53665W        W96681  19.535   9.041  19.244 -0.1194  0.1328  0.0917
53666W        W96682   4.020  34.739  19.625  0.0687  0.1111  0.0838
53667W        W96683   9.421  26.766  29.136  0.2794  0.1632 -0.1563
53668W        W96684   0.813  27.379  23.016 -0.0458  0.1383 -0.1826
53669W        W96685  27.409  28.602  16.505 -0.0092 -0.0121  0.0949
53670W        W96686  31.547  23.463  19.957  0.1286 -0.0842  0.0182
53671W        W96687  34.626  23.901  17.283 -0.1048  0.0770 -0.3110
53672W        W96688   7.737  11.827  16.648  0.0455  0.2535 -0.1333
53673W        W96689  34.166   3.103  20.169  0.0985  0.2715 -0.1278
53674W        W96690  11.489  26.726  12.837 -0.0987  0.0844  0.1705
53675W        W96691  31.911   6.747  19.454  0.2718  0.2124  0.2761
53676W        W96692  13.788  10.951  14.566 -0.0463  0.3088  0.0082
53677W        W96693   8.192  23.463  12.853 -0.0759  0.0378  0.1728
53678W        W96694  25.692  32.288  26.871  0.0231 -0.0065 -0.1521
53679W        W96695   5.444  31.100  21.833 -0.1977  0.0283  0.1197
53680W        W96696  23.544  32.521  19.818 -0.2487 -0.3472  0.1547
53681W        W96697   3.016  10.485  17.124 -0.2695  0.1845 -0.3064
53682W        W96698  14.086  30.356  19.252  0.0066  0.0909  0.3275
53683W        W96699  19.737   3.071   4.381  0.0575 -0.0491  0.0141
53684W        W96700  22.483  23.054   0.838  0.0493  0.1028 -0.3365
53685W        W96701   5.322  28.522  23.503 -0.0849  0.1474 -0.1682
53686W        W96702  27.489   0.799  22.071 -0.1328  0.0153  0.0202
53687W        W96703  21.671  32.507  10.162  0.2165  0.1462 -0.2971
53688W        W96704  25.040  26.932   1.924 -0.1352  0.2370 -0.4407
53689W        W96705   1.129  31.751  24.911  0.0860 -0.2677 -0.0296
53690W        W96706  27.309   5.186  26.223 -0.1814 -0.1603  0.0881
53691W        W96707   4.861  25.077  28.358 -0.0315  0.1463 -0.3572
53692W        W96708  34.542  30.302  20.685 -0.0234 -0.2750 -0.1448
53693W        W96709   1.842  13.307  17.466  0.3956 -0.0139 -0.0153
53694W        W96710  22.309  25.363  24.553  0.1052  0.1755  0.3822
53695W        W96711   0.187   6.897  23.269  0.0358  0.3493  0.0779
53696W        W96712  29.799  19.280  15.750  0.0047 -0.1603 -0.0369
53697W        W96713   1.895  29.833  19.676 -0.1349  0.2216  0.1276
53698W        W96714   4.426   4.052  22.764  0.0801  0.0324  0.0190
53699W        W96715  29.592   3.109  19.834  0.1621 -0.0495 -0.0231
53700W        W96716  29.146  12.364  18.543  0.0627  0.2955  0.4946
53701W        W96717  22.033   8.856  14.410  0.3607  0.2537  0.0524
53702W        W96718  18.220   2.118  23.255 -0.3614  0.0841  0.0982
53703W        W96719  10.158   3.540  15.148 -0.0722  0.0282  0.2622
53704W        W96720  19.962  29.046  21.830  0.0555  0.1329  0.1775
53705W        W96721  26.603  30.994  21.488  0.0328 -0.1059  0.0246
53706W        W96722  22.291  15.329  20.204  0.1104  0.0569  0.2385
53707W        W96723  18.875   1.001  22.401 -0.3752  0.4717 -0.0981
53708W        W96724  30.896   3.332  21.763 -0.0428  0.3417  0.0661
53709W        W96725  30.241  32.921  20.401 -0.1665  0.0575 -0.2138
53710W        W96726  32.074  20.624  17.979  0.0342 -0.1337  0.3917
53711W        W96727  24.382  31.529  23.073 -0.2158  0.1001  0.1021
53712W        W96728  22.867  27.563  29.075  0.0012  0.2338 -0.1116
53713W        W96729   3.487  27.323  22.487 -0.2953 -0.1032  0.1400
53714W        W96730   1.118   4.598  17.176 -0.1640 -0.0643 -0.1828
53715W        W96731  22.554  27.654  20.904  0.0553 -0.0260 -0.1571
53716W        W96732   0.214  19.998  19.724 -0.2131 -0.0503  0.0157
53717W        W96733  25.013  20.933  22.697 -0.1136 -0.1931 -0.0716
53718W        W96734  31.856  11.282  23.322 -0.2680  0.3052 -0.2633
53719W        W96735  33.467  11.521  21.143 -0.0945  0.0087 -0.2801
53720W        W96736   7.231   4.958  25.203 -0.0013  0.1031  0.0826
53721W        W96737  16.917  14.771  12.381  0.1801 -0.0461  0.3488
53722W        W96738  31.987   1.812  21.438 -0.1799 -0.2892 -0.3762
53723W        W96739   1.325  12.310   5.293 -0.2389  0.0992 -0.2772
53724W        W96740  28.389   8.356  18.062 -0.0615 -0.1807 -0.0718
53725W        W96741   2.965  32.619  13.818 -0.2441 -0.0303  0.1331
53726W        W96742  22.458   5.105  26.493 -0.5457  0.1030 -0.0934
53727W        W96743  25.718  13.238  17.853 -0.3294 -0.0320  0.1136
53728W        W96744  27.013  10.148  15.784  0.2021  0.0133 -0.0833
53729W        W96745  28.647  13.635  28.273 -0.1099 -0.0721  0.1428
53730W        W96746   7.021  25.030  13.296 -0.1052  0.1599 -0.1546
53731W        W96747  24.299  30.499  17.464  0.4740  0.1330  0.4305
53732W        W96748  33.881   9.712  23.331 -0.3402  0.0190 -0.4371
53733W        W96749  34.609   2.701  28.641  0.1145 -0.2228  0.2561
53734W        W96750  14.608  33.766   1.820 -0.2214  0.3397  0.2201
53735W        W96751  30.742   2.678  16.067 -0.0182  0.1650  0.0895
53736W        W96752  31.542  33.079   1.775  0.0199 -0.0468  0.1508
53737W        W96753  32.930   0.236  21.019 -0.3638  0.0080  0.1579
53738W        W96754   4.379  28.800  19.680 -0.0551  0.0425  0.2767
53739W        W96755   3.374  26.316   0.498 -0.3052  0.0826 -0.1055
53740W        W96756  25.638   8.117  21.043 -0.0831  0.1393  0.2829
53741W        W96757   0.871  25.252  18.477 -0.0291  0.1920  0.2237
53742W        W96758  32.235  20.908  17.590  0.1233  0.0037 -0.1917
53743W        W96759   1.735  30.755  16.512  0.0156 -0.1384 -0.0180
53744W        W96760   5.802  34.163  14.017 -0.2482  0.3197 -0.0659
53745W        W96761  10.154  28.819  28.344 -0.0209  0.1269 -0.1744
53746W        W96762  12.594  32.916  20.210  0.0344  0.0447 -0.1378
53747W        W96763  33.633   0.271   6.991 -0.1794  0.3848  0.1437
53748W        W96764   2.066   8.903  20.077  0.1745  0.1950  0.1845
53749W        W96765  32.459  28.198   8.800  0.0938  0.0925  0.2367
53750W        W96766  21.530  30.463  17.078  0.2192 -0.2350  0.2173
53751W        W96767   2.142  28.532  24.537 -0.2027 -0.1409  0.1351
53752W        W96768   0.993   9.199  20.683 -0.1529 -0.0254  0.0920
53753W        W96769  22.484   2.775  17.801  0.0246  0.0642 -0.0170
53754W        W96770  10.589  28.331  20.268 -0.0289 -0.0409  0.0818
53755W        W96771  21.631  15.375  24.237 -0.1644  0.2957 -0.1452
53756W        W96772   6.030   9.903  19.408  0.1752  0.3413 -0.0968
53757W        W96773  32.347  24.244  22.050  0.1757 -0.0533 -0.2716
53758W        W96774  19.802  21.765  24.572  0.1395  0.2829  0.2262
53759W        W96775  28.659  28.029  23.898 -0.0343  0.3686  0.0474
53760W        W96776  18.518  33.800  20.547 -0.0553  0.0686  0.2944
53761W        W96777   0.293  16.715  15.380 -0.0057 -0.2770 -0.1966
53762W        W96778  11.931  31.130  23.853  0.0648 -0.0798 -0.1267
53763W        W96779  29.589  17.899  27.147 -0.2438 -0.3394 -0.0154
53764W        W96780  34.675  32.840  21.430  0.0922  0.5679  0.0558
53765W        W96781  27.197  21.718  21.072 -0.0626 -0.0216 -0.2364
53766W        W96782   7.394  27.628  27.364  0.3719 -0.0357  0.0929
53767W        W96783  14.635  33.274  14.453  0.0058  0.1512  0.1046
53768W        W96784   4.052  27.568  26.511  0.5315  0.2818 -0.4271
53769W        W96785   4.513  32.087   4.184  0.0147  0.0115  0.0011
53770W        W96786  27.490   6.165   4.368 -0.0577  0.0530  0.0368
53771W        W96787  26.901  34.102  18.189 -0.0683 -0.0216 -0.0132
53772W        W96788  30.734  30.704   1.353 -0.2746  0.0521  0.0983
53773W        W96789  11.047  25.091  18.128  0.1074 -0.1272 -0.0828
53774W        W96790  10.755   2.927  23.085 -0.2252 -0.0078  0.1606
53775W        W96791  27.906  33.813  23.679  0.0176  0.1115 -0.3912
53776W        W96792   0.698  25.465  14.604  0.1238  0.0077 -0.4934
53777W        W96793  27.843  34.097  17.988 -0.0802  0.0228 -0.0728
53778W        W96794   6.698  26.972  15.822  0.1707 -0.2425  0.2272
53779W        W96795  15.587  29.401  24.386 -0.0442  0.0319  0.0774
53780W        W96796   0.462  32.833  26.829 -0.2990 -0.1793 -0.0640
53781W        W96797   1.488  31.120  24.720  0.2350 -0.0907  0.2022
53782W        W96798  23.211  25.080  15.142 -0.0429 -0.2307  0.0501
53783W        W96799   7.756  23.355  23.128 -0.1344  0.1044  0.1662
53784W        W96800  33.373  24.149  17.983 -0.2111 -0.3449 -0.1504
53785W        W96801  26.992  19.935   0.265  0.1223 -0.3086  0.0550
53786W        W96802  30.881  26.991   4.895  0.4184  0.0131  0.3695
53787W        W96803   3.135  18.170  17.275  0.0473  0.0692 -0.0590
53788W        W96804  33.987   3.052  14.939 -0.1690 -0.1241 -0.1424
53789W        W96805  30.496  29.436  17.729  0.1964 -0.0837 -0.0698
53790W        W96806   6.976  24.085  24.570  0.0853 -0.2127 -0.2532
53791W        W96807  31.796  30.469   4.274  0.0556 -0.2244 -0.1647
53792W        W96808   6.013   6.049  15.798  0.1708 -0.2553 -0.2967
53793W        W96809  24.492   8.869  19.798 -0.1441 -0.3438  0.1023
53794W        W96810  11.411  29.281  19.267 -0.0800  0.0913 -0.3207
53795W        W96811   7.410  31.663  17.068 -0.2077  0.1868 -0.2533
53796W        W96812   7.638  31.291  15.817  0.1905 -0.1487  0.2766
53797W        W96813   1.016  29.970  18.215 -0.0771  0.1475 -0.2861
53798W        W96814   1.866  29.296  13.963  0.0215 -0.3568  0.1638
53799W        W96815  23.293  23.004  20.500 -0.0278 -0.2617  0.1823
53800W        W96816   3.947  27.097  15.715  0.0317 -0.3555  0.0829
53801W        W96817  25.579  23.874  26.512  0.0987  0.1755 -0.0884
53802W        W96818  29.043  17.713  22.071 -0.1448  0.3251  0.0952
53803W        W96819  34.620   4.533  27.326  0.1172 -0.1660 -0.2508
53804W        W96820  33.409   0.756   0.354 -0.0072 -0.1087 -0.0137
53805W        W96821   2.463  17.389  26.589  0.1079  0.1832 -0.1324
53806W        W96822  25.905   1.303  20.577 -0.0123 -0.2105  0.1074
53807W        W96823  10.690  30.646  16.302 -0.2102 -0.0822  0.1733
53808W        W96824  28.951  26.128  19.996 -0.0055 -0.2006 -0.0160
53809W        W96825  28.589   0.398   5.923 -0.1202  0.1553 -0.0535
53810W        W96826  10.640  11.568  18.489 -0.0094  0.2585 -0.1085
53811W        W96827   8.669  32.366   1.223 -0.3275  0.0306  0.1600
53812W        W96828  32.092  34.768  23.253  0.2430 -0.0468  0.2929
53813W        W96829   2.722   0.198  27.289  0.0923 -0.0130  0.0314
53814W        W96830  12.306  17.389  16.174  0.0329  0.3588  0.1799
53815W        W96831   2.551  30.330  17.286  0.1140 -0.0963 -0.3343
53816W        W96832   2.368   2.622  16.228 -0.0940 -0.1975  0.0022
53817W        W96833  33.528  13.782  22.392 -0.0270 -0.0069  0.0497
53818W        W96834  11.209  30.255  18.051 -0.1424 -0.3121 -0.0681
53819W        W96835  30.684  26.856  17.572 -0.0348 -0.1767  0.3534
53820W        W96836   2.446  25.926  16.997  0.1969 -0.1237 -0.3144
53821W        W96837   9.379   6.238  17.435 -0.2869 -0.1779 -0.0637
53822W        W96838  17.923  25.172  13.695  0.1026  0.0081  0.1935
53823W        W96839  30.425   5.370  16.386  0.0529  0.1268  0.0023
53824W        W96840  27.076  31.792   5.830 -0.0426 -0.0010 -0.3224
53825W        W96841  31.128  16.875  25.001 -0.0734  0.1385 -0.0351
53826W        W96842  12.074  29.204  14.980 -0.0910  0.1718  0.1697
53827W        W96843  33.145  14.779  18.861 -0.0902 -0.0742  0.0407
53828W        W96844  30.263  20.814  16.856  0.4302  0.1083 -0.4168
53829W        W96845  17.178   1.150  16.664  0.1404 -0.1345 -0.0182
53830W        W96846  29.983   8.923  26.105 -0.0726 -0.2067 -0.3415
53831W        W96847   5.777  25.941  16.463 -0.0858  0.0293 -0.1405
53832W        W96848   6.107  29.213  17.990 -0.1085  0.1164  0.2317
53833W        W96849  25.720  30.553  22.844  0.1005  0.0741  0.1358
53834W        W96850  26.441   3.768  10.154 -0.3131  0.2515 -0.0773
53835W        W96851  32.105  23.534  25.834  0.4193  0.0051  0.0873
53836W        W96852   3.348   8.493  19.319  0.2779  0.2111 -0.1857
53837W        W96853  11.530  32.807  15.414  0.0904 -0.3509 -0.2581
53838W        W96854  23.264  14.312  14.864  0.1206 -0.2163 -0.0345
53839W        W96855  10.324  21.347  24.380  0.0058  0.0477 -0.0356
53840W        W96856  33.883   0.674  28.728 -0.3615  0.1556  0.3375
53841W        W96857  12.763  25.645  27.311 -0.1872 -0.2085  0.2150
53842W        W96858  29.149  27.749  20.529  0.1915  0.0787 -0.2618
53843W        W96859  17.923  17.093  15.817  0.2907 -0.3658 -0.0140
53844W        W96860  33.954   3.536  21.775 -0.2852 -0.0945 -0.1586
53845W        W96861  30.418   5.019  22.572 -0.0707 -0.4501 -0.1784
53846W        W96862  10.151   2.697  22.318 -0.1307 -0.0635  0.1045
53847W        W96863  27.933   1.057  16.908 -0.0070  0.0152  0.1821
53848W        W96864  13.994  33.377  21.173  0.1306  0.1861 -0.0655
53849W        W96865  20.119  30.144  24.919 -0.0554  0.2154 -0.0690
53850W        W96866   5.529  16.654  18.504  0.1206 -0.1862 -0.0289
53851W        W96867   0.106  12.371  10.288  0.1562 -0.2043  0.2102
53852W        W96868   3.750  33.877  16.039 -0.1533  0.3271 -0.0454
53853W        W96869  20.504  31.099  25.513  0.1190  0.1315 -0.1726
53854W        W96870  29.272  30.647   5.775  0.1518 -0.2457  0.3079
53855W        W96871   0.484  27.840   7.549  0.2204 -0.1298  0.0742
53856W        W96872   3.588  28.751  22.240 -0.4064  0.1374 -0.0259
53857W        W96873  31.484  25.410  22.211 -0.2851 -0.1869  0.1467
53858W        W96874   9.767  27.778  22.256  0.2005  0.1631  0.1385
53859W        W96875   7.080  24.326  19.392 -0.0984 -0.0585  0.1700
53860W        W96876   1.941  33.119  28.574  0.1885  0.1149 -0.1327
53861W        W96877   6.645  26.460  28.823  0.4714  0.1525 -0.2772
53862W        W96878  13.326  14.428   0.791  0.3233  0.1815 -0.1833
53863W        W96879   5.835  17.212  17.603  0.0867 -0.0987  0.2420
53864W        W96880  29.628  24.171  28.390  0.1553  0.2181 -0.1951
53865W        W96881  33.450  19.205  17.869 -0.0836  0.1112 -0.0349
53866W        W96882  14.470   5.079  19.306  0.0101  0.1099  0.1649
53867W        W96883  23.869  28.815  16.847 -0.0578  0.0245  0.1253
53868W        W96884  28.185  10.385  15.245 -0.1318 -0.1939 -0.1483
53869W        W96885  27.206  27.602  20.245  0.1370  0.2578  0.2060
53870W        W96886  31.195  24.395  22.196 -0.0551 -0.1519  0.0415
53871W        W96887   6.433   2.712   3.463 -0.2020 -0.0749  0.0244
53872W        W96888  26.583  23.535  26.236 -0.1383  0.3855 -0.0461
53873W        W96889  24.768  34.565  19.453 -0.0699  0.0455  0.2255
53874W        W96890   1.221  32.979  18.767 -0.1958  0.0642 -0.1406
53875W        W96891  15.224  28.186  23.039  0.0638  0.3925  0.0016
53876W        W96892   8.809  26.340  24.671 -0.1792  0.2111  0.1131
53877W        W96893  14.517  28.647  19.219  0.0522  0.1534 -0.2277
53878W        W96894  28.604  15.171  20.064 -0.1259 -0.0976  0.3746
53879W        W96895   0.035   0.328  15.311 -0.2935  0.1113  0.1131
53880W        W96896  24.329  21.696   3.576 -0.0031 -0.0336 -0.0992
53881W        W96897  25.067   1.359  24.611 -0.0805 -0.0042  0.0847
53882W        W96898  10.225  24.935  22.274  0.4144  0.0214 -0.0044
53883W        W96899  30.450  31.699  23.888 -0.1713  0.1926  0.0499
53884W        W96900   3.647   0.813   2.347  0.0490 -0.0492  0.1671
53885W        W96901  30.397  24.987  19.802  0.1256  0.2682  0.4223
53886W        W96902   3.502  32.975   4.181 -0.1696 -0.0234  0.0821
53887W        W96903   5.439  30.616  18.444  0.2160 -0.0903 -0.2111
53888W        W96904   8.517   4.320   1.952  0.0861  0.0494 -0.1517
53889W        W96905  13.470  13.266  24.527 -0.0453 -0.3639  0.1049
53890W        W96906  26.842   2.068  22.344  0.4036  0.2036 -0.0467
53891W        W96907  29.703  28.313  23.802 -0.0239  0.1017  0.1109
53892W        W96908  24.177  21.801  26.764 -0.2454  0.2968  0.0718
53893W        W96909  28.309   5.360   7.009 -0.0050 -0.3134 -0.1156
53894W        W96910  11.279  31.965  16.787 -0.0920 -0.1124  0.1525
53895W        W96911  29.830  31.486  20.257 -0.3014  0.0633  0.1406
53896W        W96912  19.783  33.016   9.641  0.1300 -0.0377  0.0711
53897W        W96913   2.977  29.080  24.343 -0.1099 -0.1393  0.2181
53898W        W96914  22.232  28.978  25.047 -0.0150  0.2488  0.0252
53899W        W96915  30.034  28.281   1.931 -0.2783  0.2244 -0.0694
53900W        W96916  27.187   5.972  21.684  0.0517 -0.1437 -0.1951
53901W        W96917  12.775  24.917   1.853 -0.0368 -0.0171  0.0874
53902W        W96918  32.320  25.144  28.305 -0.0011  0.0675 -0.0574
53903W        W96919  27.041  26.888  17.186  0.1661  0.0166 -0.0041
53904W        W96920   7.229  19.640  16.039  0.1163 -0.2663  0.1963
53905W        W96921   6.260   2.087  17.861 -0.0530  0.1342  0.2028
53906W        W96922  33.630   7.951  17.434  0.2375  0.0345  0.3368
53907W        W96923  15.409  10.833  24.459  0.2625  0.3949  0.2044
53908W        W96924   1.106  27.741   1.438 -0.0144  0.1635  0.1872
53909W        W96925   9.327  23.427   5.657 -0.0185 -0.4554  0.2843
53910W        W96926  26.275  33.396  21.237 -0.0130  0.0344  0.0214
53911W        W96927  28.136  33.177  27.893 -0.1394  0.0704  0.6440
53912W        W96928  24.824   4.168  28.446 -0.1787  0.0374 -0.2595
53913W        W96929  21.602  30.413  28.346  0.0805 -0.1166  0.0225
53914W        W96930  34.698   3.045  26.365  0.1528  0.1008  0.0650
53915W        W96931   0.112   7.157   7.854  0.0083 -0.0867 -0.0957
53916W        W96932  21.005  31.803  16.132 -0.0971 -0.2723 -0.0872
53917W        W96933  24.545   2.230   1.396  0.0075 -0.2330  0.1266
53918W        W96934   3.176  19.385  21.656  0.1061 -0.0133 -0.0586
53919W        W96935  31.220  27.717  16.802  0.0159  0.0507 -0.1698
53920W        W96936   2.668   8.411  20.757 -0.1633  0.1821 -0.0852
53921W        W96937  10.723   9.783  14.549  0.0501 -0.0160  0.3229
53922W        W96938   2.340  22.755  27.030 -0.0432  0.1699 -0.1640
53923W        W96939  10.165  32.389  25.857  0.0066 -0.0307 -0.1829
53924W        W96940  22.321  26.430  20.690  0.0915  0.3635  0.1621
53925W        W96941  30.355  28.737  25.870 -0.3643  0.3263  0.3599
53926W        W96942  30.761  32.742  15.691 -0.0575  0.0183 -0.2687
53927W        W96943  26.354  32.331   5.953 -0.0127  0.2306 -0.0762
53928W        W96944  32.967  24.933  26.015 -0.3204  0.2533  0.1313
53929W        W96945  32.882  11.479  29.222 -0.1659  0.0650 -0.1925
53930W        W96946   6.950  30.357   2.781 -0.0183  0.2541  0.0759
53931W        W96947  27.267  27.649   5.298  0.1126  0.1135 -0.1511
53932W        W96948   3.085  18.014  21.523  0.0747  0.4606  0.0681
53933W        W96949  30.429  30.510  24.446 -0.2603  0.2032  0.0307
53934W        W96950   4.165   1.716  14.960 -0.1075 -0.1854  0.2012
53935W        W96951  11.415  21.719  23.790 -0.0679  0.0184 -0.0564
53936W        W96952   4.378   7.124  22.368 -0.0386 -0.2497 -0.0538
53937W        W96953   8.909  22.900  20.098 -0.1121 -0.0084  0.3539
53938W        W96954  24.630   4.741  25.224 -0.4258 -0.2191 -0.1238
53939W        W96955  26.490  34.751  24.300 -0.0186 -0.0431 -0.2157
53940W        W96956   9.176   7.634  27.191  0.0515  0.0254 -0.4149
53941W        W96957   3.183   5.015  24.269  0.1746 -0.0127  0.1821
53942W        W96958  15.670  27.823  21.149  0.0228  0.0732  0.3820
53943W        W96959  29.544  33.036  28.057  0.3501  0.1338 -0.1709
53944W        W96960   5.468  34.274   1.538  0.2019  0.0798  0.1145
53945W        W96961  28.877   8.562  18.340 -0.0002  0.0838  0.0477
53946W        W96962  32.455   8.063  15.807  0.0749 -0.4159 -0.0803
53947W        W96963  22.101  31.202  16.086  0.1856  0.0668  0.1100
53948W        W96964   1.441   9.338  16.755 -0.2655  0.1001 -0.0227
53949W        W96965  28.937  18.124  20.560  0.1357 -0.1286  0.0031
53950W        W96966   5.532  32.487  23.410 -0.1452  0.1928 -0.0450
53951W        W96967  30.510  26.332   1.761 -0.1276 -0.1489 -0.1907
53952W        W96968  13.681   1.125  16.756  0.2553 -0.3310  0.1804
53953W        W96969  14.579   8.046  25.045 -0.2847  0.3319 -0.2945
53954W        W96970  29.516  25.818   0.567  0.1638  0.1820  0.0102
53955W        W96971  23.854  30.640   5.218  0.1819  0.1466  0.0640
53956W        W96972  29.814  21.076  22.864 -0.3142 -0.1779 -0.2495
53957W        W96973  23.561  27.947   5.853 -0.1243  0.2623  0.3605
53958W        W96974   7.893  29.769  19.052 -0.1632 -0.2213  0.6645
53959W        W96975  32.081  21.213  15.043 -0.0753 -0.2561  0.0182
53960W        W96976   2.660  24.498  15.450 -0.2098  0.0141 -0.1584
53961W        W96977   1.184  20.790  20.801 -0.1044  0.2861  0.1800
53962W        W96978  13.049  13.259   8.575  0.4392  0.2195 -0.3846
53963W        W96979  18.122  10.635   5.926  0.0263 -0.2262  0.1403
53964W        W96980   3.171   3.489  27.013  0.2772 -0.0265 -0.1024
53965W        W96981  29.804  32.910   5.160  0.1251  0.2173 -0.3322
53966W        W96982   5.679   0.076  18.241 -0.2214 -0.1516 -0.5485
53967W        W96983   8.525   9.212   7.399 -0.0837 -0.1063 -0.1051
53968W        W96984   8.664  22.218   9.235  0.0707 -0.2929 -0.0937
53969W        W96985  16.919  24.136   3.434  0.1061  0.0527  0.1134
53970W        W96986  28.143  34.731  20.588  0.0490 -0.1362 -0.4140
53971W        W96987  22.884  34.457   5.770 -0.0942  0.0335 -0.4111
53972W        W96988  23.941  27.089  18.187  0.0446  0.0198  0.1884
53973W        W96989  33.840   1.190   5.366  0.0115  0.0256  0.1504
53974W        W96990  29.845   3.394   9.803 -0.0880  0.1467  0.3602
53975W        W96991  26.281  19.143  17.544 -0.1311  0.1772  0.0097
53976W        W96992  34.639   0.307  23.316  0.0677 -0.0833 -0.0757
53977W        W96993   0.505   2.692   1.629 -0.0301  0.1097 -0.3173
53978W        W96994   3.382   3.545  15.211 -0.0607 -0.0133  0.0341
53979W        W96995   7.313   0.068   0.713 -0.1070 -0.1220  0.1429
53980W        W96996  27.814   8.395  17.959  0.0936 -0.1991  0.1516
53981W        W96997   2.939  18.805  25.458 -0.1727 -0.0206  0.0880
53982W        W96998  23.080  27.996  16.511  0.1097 -0.2827  0.0998
53983W        W96999  27.000   1.112  25.889  0.0775  0.2549 -0.2577
53984W        W97000  18.776  26.884   2.760  0.1089  0.0498  0.1098
53985W        W97001  19.302   5.492  21.894 -0.0242  0.0926  0.3110
53986W        W97002  33.432  26.979  26.587  0.0910  0.1685 -0.0428
53987W        W97003  32.004  33.125  28.837 -0.2067 -0.1267  0.0570
53988W        W97004   0.452  11.794  15.354  0.0881 -0.2124 -0.2562
53989W        W97005  17.346   2.443   2.574  0.1111  0.0973 -0.4297
53990W        W97006  24.254  21.751  18.845 -0.1067  0.3006 -0.0460
53991W        W97007  30.952   2.213  23.589 -0.0340 -0.0967 -0.1100
53992W        W97008  10.472   7.618   4.573 -0.0999  0.3238 -0.0302
53993W        W97009  17.415  12.894  19.729 -0.2745 -0.0992 -0.2267
53994W        W97010   8.765   8.847  22.666 -0.0571 -0.2851 -0.2398
53995W        W97011   0.437  15.595  20.304 -0.0958 -0.2586 -0.1514
53996W        W97012  33.606  12.357   4.855 -0.0575  0.1578 -0.0350
53997W        W97013   7.493  30.168   1.437  0.0068  0.2190  0.2803
53998W        W97014  26.079  31.871  24.621 -0.1295 -0.2194  0.1791
53999W        W97015   3.760   6.299  28.372 -0.0510 -0.2926  0.0842
54000W        W97016  34.215   0.369   3.730 -0.0802 -0.0252 -0.4583
54001W        W97017  23.023  34.764   8.191 -0.0138  0.5446  0.0804
54002W        W97018  10.523   8.321  22.885  0.2851  0.1154 -0.0536
54003W        W97019  18.285   1.946   1.496 -0.0146 -0.0155  0.0521
54004W        W97020  13.794  15.051  28.591 -0.0856  0.3225 -0.3482
54005W        W97021  27.612   7.993  23.002  0.0436  0.0820 -0.4793
54006W        W97022  28.021  34.646  22.251 -0.1207 -0.0982 -0.0003
54007W        W97023  17.666  33.187   5.393  0.0847  0.3521  0.0090
54008W        W97024  29.463  27.021  24.268  0.2548 -0.0034  0.0462
54009W        W97025   5.936  31.354  14.157 -0.0122 -0.2323 -0.3449
54010W        W97026  28.421  21.474  21.186  0.0174 -0.1265  0.2641
54011W        W97027   2.351   6.180   3.972 -0.0390 -0.1883 -0.2186
54012W        W97028  27.403  14.124   1.410  0.3745 -0.2867 -0.2152
54013W        W97029   2.399   0.485   3.810 -0.2453 -0.0006 -0.2227
54014W        W97030   7.999   3.378  19.929 -0.0996  0.2080 -0.0689
54015W        W97031   4.821  33.387  25.767  0.0908 -0.2993  0.0315
54016W        W97032  34.155   1.470  23.087 -0.2510  0.2890  0.1883
54017W        W97033  16.533  25.679  21.194  0.1620 -0.0262 -0.0175
54018W        W97034  32.671  13.311  20.856  0.0415 -0.2331 -0.1217
54019W        W97035   3.925  13.193  19.376 -0.3214 -0.1075  0.0586
54020W        W97036  30.511  33.977  21.803 -0.1092  0.1264 -0.0572
54021W        W97037  30.111  26.534  18.917  0.1208  0.1861  0.4292
54022W        W97038   2.349   4.882  19.805  0.0758 -0.3893  0.0820
54023W        W97039  13.617  24.963  25.279  0.0521 -0.1902  0.3941
54024W        W97040   3.569   3.288  21.433 -0.0486  0.1636 -0.1082
54025W        W97041  32.183   5.189  17.524  0.0399 -0.0456  0.1371
54026W        W97042  30.891  24.872  27.621  0.0364  0.2417 -0.1687
54027W        W97043  24.136  25.916  28.762  0.2665  0.0185 -0.0829
54028W        W97044  22.588  17.230  20.642  0.2771  0.0011 -0.1190
54029W        W97045  29.471   4.208  22.875 -0.0477  0.3618  0.3248
54030W        W97046  16.442  10.782   4.411 -0.1945  0.1093  0.2528
54031W        W97047  33.706   5.407   5.400  0.1793 -0.2045  0.3864
54032W        W97048  34.295  23.666  23.308  0.1352  0.0633  0.0034
54033W        W97049  31.672  30.904  16.069  0.2413 -0.1594 -0.0666
54034W        W97050  33.974   0.226  22.012 -0.0415 -0.3584  0.0431
54035W        W97051  29.540   1.844   0.887  0.0217 -0.1826 -0.1206
54036W        W97052  21.299   3.445  20.539  0.4164 -0.1783 -0.1976
54037W        W97053  27.552  26.678  27.815 -0.1933  0.2519 -0.1134
54038W        W97054  15.841  31.542  20.939 -0.2826 -0.2756 -0.0600
54039W        W97055  27.000  22.277  18.852  0.1364 -0.1025 -0.2128
54040W        W97056  27.192  31.984  26.403 -0.1279  0.2716 -0.0953
54041W        W97057   2.623  26.613   1.699 -0.2698 -0.1651 -0.1466
54042W        W97058  10.930  18.564  16.875  0.3192 -0.1967  0.3873
54043W        W97059  24.666  18.369   5.750 -0.2322  0.3037  0.0185
54044W        W97060   0.559  29.321   3.445  0.1653  0.0247  0.1056
54045W        W97061  26.179  19.369  16.500  0.0729 -0.0527  0.1738
54046W        W97062   2.889  23.220  19.749 -0.1000  0.1417  0.3349
54047W        W97063  20.826   1.330  24.165  0.1171  0.0502 -0.2879
54048W        W97064  31.223   2.896  23.924  0.1919 -0.0869  0.0218
54049W        W97065   3.562  21.225  26.050 -0.0512 -0.1178  0.1530
54050W        W97066  28.302   2.990   0.498  0.1963 -0.1314  0.3240
54051W        W97067  12.807  10.631  16.425 -0.1195 -0.0382 -0.2553
54052W        W97068  19.909  21.633  14.740  0.0586 -0.0481 -0.0883
54053W        W97069  16.071  12.061  26.161 -0.2422 -0.0499 -0.1201
54054W        W97070   2.151  25.398  27.723 -0.0622 -0.1355  0.1246
54055W        W97071   6.862  29.520   5.111  0.3064  0.2060  0.0149
54056W        W97072  17.959  26.219   4.066  0.2159 -0.1024 -0.0119
54057W        W97073  23.451  25.355   9.455 -0.0267  0.0492  0.1794
54058W        W97074  19.570  34.310  27.925 -0.2036  0.2243  0.3173
54059W        W97075  31.211  30.460  27.199  0.0986 -0.1117 -0.0071
54060W        W97076  28.122  19.566  28.908 -0.1686 -0.1304 -0.1616
54061W        W97077  33.304  12.117  27.321  0.1794  0.0907 -0.2328
54062W        W97078  32.350  26.200  27.052 -0.1064  0.2081  0.2827
54063W        W97079   2.075  34.254  28.097 -0.3889 -0.2810 -0.0193
54064W        W97080  19.101  16.279  24.000  0.1375  0.2310 -0.0730
54065W        W97081  31.681   4.943  27.371 -0.0219 -0.1836  0.2419
54066W        W97082   4.251  24.630  26.936  0.0768 -0.1701 -0.1939
54067W        W97083  17.095  22.098  22.251 -0.3005 -0.0050  0.1048
54068W        W97084  28.223  34.187   8.136 -0.0232  0.2235 -0.0652
54069W        W97085  29.263  13.943   9.342  0.4380  0.0175 -0.3398
54070W        W97086  25.542   0.879   0.575  0.1184  0.1354  0.0125
54071W        W97087  19.416   2.378   4.863  0.2188  0.0079  0.0494
54072W        W97088  28.268   2.406  16.712 -0.0608 -0.0546  0.2624
54073W        W97089   6.223  13.805  16.139 -0.1735 -0.2876 -0.0487
54074W        W97090   5.859  19.630  21.668 -0.0337 -0.1665  0.1218
54075W        W97091   8.566  22.895  19.655 -0.1594  0.0304 -0.3288
54076W        W97092  23.507   1.323  22.772 -0.1746 -0.0091 -0.2824
54077W        W97093  28.022   9.304  15.288  0.0492  0.0896  0.1079
54078W        W97094   7.612  25.536  15.256 -0.0370  0.1463 -0.5365
54079W        W97095  16.065  28.867   3.297  0.2093 -0.1491 -0.5562
54080W        W97096  12.539  29.520  19.893  0.2679 -0.0576  0.3015
54081W        W97097  26.908  32.727  16.753 -0.1151  0.0573  0.0652
54082W        W97098  17.945  20.520  15.567  0.3576  0.0937  0.0454
54083W        W97099  25.440  32.817  17.591 -0.1471 -0.1902  0.0221
54084W        W97100   3.396   6.557  10.043 -0.0536  0.0998 -0.0025
54085W        W97101   7.167  25.066   6.573  0.2514 -0.0753 -0.1805
54086W        W97102  19.258  22.193  14.695  0.1505  0.0015  0.1083
54087W        W97103  25.402  25.056  21.810  0.2769  0.0985 -0.0351
54088W        W97104  33.742   8.393  24.027  0.0639  0.2611  0.1076
54089W        W97105  30.096  24.089  18.911 -0.1315 -0.2928 -0.1251
54090W        W97106  29.201  31.044   7.834 -0.4209 -0.1659 -0.1297
54091W        W97107   0.140  26.616  26.146  0.0539 -0.1547  0.0374
54092W        W97108  10.917  17.722  27.372  0.1746 -0.2654 -0.1334
54093W        W97109  30.223   4.396   1.688 -0.0846  0.1988  0.0172
54094W        W97110  29.976   4.980   8.585 -0.0072  0.0915  0.3062
54095W        W97111  16.005  34.585   9.803  0.0894 -0.1647 -0.1818
54096W        W97112   3.975   3.114  21.126 -0.0311 -0.1407  0.0285
54097W        W97113   8.818   9.136  14.786  0.0129 -0.1494  0.1815
54098W        W97114   0.383  13.442  28.224  0.3125 -0.0348 -0.1328
54099W        W97115   6.131  31.889  26.723  0.0288  0.1233  0.0275
54100W        W97116  30.055  17.306  20.325 -0.3074  0.0609 -0.2758
54101W        W97117  20.868   7.883  25.505 -0.3606  0.1676  0.3542
54102W        W97118  13.397  34.645  18.259  0.2012 -0.2496 -0.2810
54103W        W97119  24.459  11.191  23.110  0.0237  0.2545  0.0955
54104W        W97120  15.572  20.889   0.686 -0.0091  0.0470 -0.2984
54105W        W97121  12.894   9.634  29.174 -0.1260 -0.3146  0.3028
54106W        W97122   2.532  14.119  26.983 -0.1165 -0.1651 -0.1478
54107W        W97123   0.721  18.991  19.309 -0.3883 -0.1720  0.1291
54108W        W97124   8.280  26.206  17.900  0.2036  0.0087 -0.0786
54109W        W97125  28.500  19.458  20.717 -0.2248 -0.0387  0.1714
54110W        W97126  32.282  32.690  16.184 -0.0192  0.1188 -0.1357
54111W        W97127  29.457   0.253  17.638  0.0894  0.0813  0.4594
54112W        W97128   3.142  26.279  21.298  0.0155  0.2156  0.0764
54113W        W97129  30.150   2.706  28.864 -0.1067  0.2137  0.0723
54114W        W97130   3.621  34.594  24.564  0.1939  0.2170 -0.3400
54115W        W97131   3.736  31.460  16.176 -0.0613 -0.0371 -0.0153
54116W        W97132   4.155  26.429  23.219 -0.0114  0.0602  0.2829
54117W        W97133   8.907  28.866  22.048  0.2224  0.3629 -0.1457
54118W        W97134  23.855  32.097   7.869  0.4699 -0.1256  0.1715
54119W        W97135  28.909  34.068  24.068  0.0048  0.3173  0.1205
54120W        W97136  32.800  10.587   1.437 -0.0019  0.3949 -0.2469
54121W        W97137  23.944  11.496  16.809  0.0715 -0.1367 -0.3378
54122W        W97138  27.998  23.563  27.813  0.3632  0.0958 -0.2900
54123W        W97139  27.273  30.660  23.565  0.1813  0.0550  0.4983
54124W        W97140   4.231  18.531  25.715  0.1494  0.0547 -0.2524
54125W        W97141   0.527  33.041  14.725  0.1148 -0.1198 -0.1395
54126W        W97142  24.599  31.674  22.261 -0.1576 -0.1088  0.0176
54127W        W97143   0.906  33.335  26.732 -0.1119  0.0365  0.3307
54128W        W97144  32.714  26.475   1.144  0.0001 -0.1435 -0.1777
54129W        W97145   3.785  30.864  19.331 -0.0893 -0.0682  0.0813
54130W        W97146  26.947   4.460  10.410 -0.4748 -0.0428  0.1291
54131W        W97147   4.405  23.770  28.980  0.0051 -0.3115 -0.1300
54132W        W97148   2.044   6.529  15.400  0.1784 -0.1095  0.0038
54133W        W97149   4.260  20.643   3.610 -0.1123  0.0031 -0.5528
54134W        W97150  32.563  32.568  18.965  0.1324 -0.1137  0.2092
54135W        W97151  12.182  29.940   1.206  0.0656  0.0656 -0.0535
54136W        W97152  29.355   9.506  27.318 -0.1151  0.3348 -0.2654
54137W        W97153  15.077   6.357  26.853  0.3369 -0.0121  0.0877
54138W        W97154  13.369   3.797   4.987  0.1988 -0.0533  0.1954
54139W        W97155   6.922   7.347  26.668  0.1952 -0.1230  0.0664
54140W        W97156   2.763   2.817  20.581  0.0466 -0.1363 -0.2137
54141W        W97157  28.445  31.254  26.687  0.4603 -0.2560 -0.2307
54142W        W97158  25.896  22.107  18.169 -0.3065  0.1777 -0.4236
54143W        W97159   1.097  31.938  26.141 -0.3484  0.1077 -0.0830
54144W        W97160   2.766  28.520  17.286 -0.5266  0.1306 -0.1634
54145W        W97161  19.951  18.186  13.778  0.0693  0.3718 -0.0320
54146W        W97162  11.749  24.933  18.733  0.0889  0.2287 -0.0570
54147W        W97163  10.451  20.562   3.278  0.0577  0.1583  0.0573
54148W        W97164  25.509  34.618  20.273  0.1594  0.2124  0.0497
54149W        W97165  34.017  20.281   2.502  0.1970  0.1625 -0.1548
54150W        W97166   5.771  28.654   7.552  0.0216  0.1804  0.4686
54151W        W97167  32.061   2.025  17.893 -0.0688 -0.1918 -0.1600
54152W        W97168  34.659  25.327  15.895 -0.2788 -0.2420 -0.0067
54153W        W97169   5.215   1.391  21.672  0.0665  0.1449  0.0263
54154W        W97170  32.516  27.642  23.831  0.0698 -0.0894  0.0247
54155W        W97171  29.215  17.831  22.503  0.0591 -0.1008 -0.1958
54156W        W97172  21.454   3.459  21.895  0.0098  0.0789 -0.0419
54157W        W97173  12.644   0.949  26.804 -0.0644  0.1916  0.3486
54158W        W97174   0.114   3.096   1.402 -0.1492  0.4616 -0.0420
54159W        W97175  28.131  25.292  15.780 -0.0862 -0.1055 -0.1367
54160W        W97176  27.811   6.327  22.383 -0.0136 -0.0341 -0.0029
54161W        W97177  11.231  13.293  18.403  0.1768 -0.1932  0.2390
54162W        W97178   3.353  11.191  27.803 -0.0213 -0.3211 -0.1952
54163W        W97179  33.676  15.250   1.208  0.2583  0.2071 -0.2541
54164W        W97180  24.186  29.488  17.300  0.0218  0.1226 -0.0651
54165W        W97181  25.989   8.362  27.573 -0.0248 -0.1115 -0.0712
54166W        W97182  30.412   1.699   4.319  0.1034 -0.1436 -0.1846
54167W        W97183  33.795  29.059  11.274 -0.0680  0.1172  0.0007
54168W        W97184   6.386  22.940  26.872 -0.0710 -0.1757 -0.1235
54169W        W97185  21.527  23.472   7.267  0.0449  0.1089  0.0709
54170W        W97186  13.089  24.580  27.265  0.1698 -0.1740 -0.1224
54171W        W97187  31.203  21.592  21.750 -0.1676  0.3702  0.2874
54172W        W97188   3.403  12.166   2.669  0.0067  0.2060  0.0636
54173W        W97189   9.045  33.122  19.991 -0.0304  0.3642  0.2648
54174W        W97190  11.982  21.445   2.583  0.1231  0.0689  0.1817
54175W        W97191  30.598  19.723  17.471  0.1365 -0.1062 -0.3739
54176W        W97192  12.940  19.100  20.316 -0.0280  0.0577  0.1497
54177W        W97193  32.094   3.637  26.052  0.0021  0.1815 -0.2683
54178W        W97194  30.809  32.343   2.338  0.0424 -0.0191  0.0978
54179W        W97195   8.881  24.289   8.357  0.2465 -0.1775 -0.1134
54180W        W97196  22.554  25.323   2.566  0.0228 -0.4404  0.1925
54181W        W97197  19.143  25.851   5.986 -0.4892  0.2563  0.0299
54182W        W97198   4.443  32.856   2.915 -0.1767  0.2377 -0.0239
54183W        W97199  31.514  13.323   6.836 -0.2551 -0.1967 -0.1124
54184W        W97200  20.673   3.488   5.304 -0.3246 -0.1419  0.0584
54185W        W97201   8.189   0.448  27.794 -0.3017  0.0311  0.2586
54186W        W97202  26.551   1.930   6.958  0.0060  0.0306 -0.1788
54187W        W97203  11.725  31.166  23.278  0.6241 -0.1278  0.1389
54188W        W97204  29.930  33.483   6.381 -0.3977 -0.2675  0.3007
54189W        W97205   9.561  21.832  25.471  0.1028 -0.4178  0.1358
54190W        W97206  17.214  11.059   3.113 -0.1032  0.0155  0.0070
54191W        W97207   2.042  28.281   1.972  0.1619 -0.0531  0.0823
54192W        W97208  28.892   4.588   7.843  0.1607  0.1451  0.1120
54193W        W97209  33.238  16.190  24.832  0.1648  0.0684 -0.2031
54194W        W97210  22.121  31.212  26.173  0.1188  0.0453 -0.1277
54195W        W97211  14.743   7.454  21.286  0.0096  0.0239  0.0855
54196W        W97212  29.914  23.954  10.016 -0.2064 -0.1725 -0.1353
54197W        W97213   2.963   2.693   2.420  0.2177 -0.0390  0.2045
54198W        W97214   2.695   5.682  20.301 -0.0138 -0.1105  0.0373
54199W        W97215  27.919   8.572  22.924  0.1626  0.3340 -0.1270
54200W        W97216  34.386   3.713  19.869  0.2073  0.3272  0.2007
54201W        W97217  21.181   2.192   4.997 -0.0393 -0.3692 -0.0153
54202W        W97218  12.085   9.128  23.666 -0.1363  0.2894 -0.0967
54203W        W97219   9.159  22.964  14.124 -0.1320  0.0439  0.0129
54204W        W97220   6.472  34.429   0.910 -0.1250  0.0410 -0.0358
54205W        W97221  17.781  16.093  20.439  0.0629  0.2221  0.1470
54206W        W97222   3.305  10.086  22.066  0.3384  0.0841  0.0246
54207W        W97223   3.255   9.737  17.816  0.1466  0.2516  0.1284
54208W        W97224  12.153   3.671  17.914 -0.1331  0.0481 -0.1942
54209W        W97225  31.169   4.286   9.461 -0.0046 -0.0288  0.2670
54210W        W97226   8.284   0.719  21.641  0.1691  0.1879 -0.2477
54211W        W97227  30.663  22.334  20.649 -0.2555 -0.2929 -0.2495
54212W        W97228  21.492   3.959  22.034 -0.1777 -0.0521 -0.1279
54213W        W97229  27.458   0.897   9.340  0.1364  0.2133  0.0617
54214W        W97230  11.843  26.687   6.722 -0.0613  0.0241 -0.2451
54215W        W97231  34.624  19.363   4.606 -0.2378  0.3284 -0.1404
54216W        W97232  33.051   7.765   1.406 -0.1882 -0.2855  0.1705
54217W        W97233  31.614  30.938  25.082 -0.0235 -0.1711 -0.2553
54218W        W97234  15.568  11.009  21.546  0.0320  0.0992 -0.4303
54219W        W97235   4.500  31.470  16.990 -0.0212 -0.2632 -0.5789
54220W        W97236  17.162  25.371  22.061  0.0282 -0.0773 -0.1819
54221W        W97237  16.423  34.214  24.879  0.0090 -0.3884  0.0252
54222W        W97238  34.605  33.321  15.503  0.0835 -0.1618 -0.1445
54223W        W97239   1.606  31.245  14.549 -0.4376 -0.1035  0.0278
54224W        W97240  14.649  13.498  18.494  0.0574  0.2759  0.0266
54225W        W97241  26.842  28.514  21.532 -0.0487  0.1968  0.0473
54226W        W97242  27.187   6.368  26.464  0.2648  0.0218  0.0723
54227W        W97243  34.133  27.398   4.659 -0.1258  0.0844 -0.1521
54228W        W97244  22.699   9.927   1.742  0.0705  0.3853 -0.1707
54229W        W97245   0.015  31.427   4.383 -0.2699  0.1213 -0.1125
54230W        W97246   2.981   6.427   7.994  0.2252  0.3362 -0.0257
54231W        W97247   8.417  33.251  28.371 -0.0826  0.3169  0.2551
54232W        W97248   5.496  29.820  24.207  0.0465  0.1409  0.2159
54233W        W97249  23.423  30.666  24.371 -0.1605  0.2520  0.3238
54234W        W97250  25.638  17.545  25.786 -0.0688  0.0389  0.1679
54235W        W97251  13.544  28.846  15.401 -0.2825  0.0783  0.2114
54236W        W97252  11.796   9.745   6.848  0.0515 -0.1191 -0.0431
54237W        W97253   1.390  27.944  23.142  0.1151 -0.0329 -0.1522
54238W        W97254  18.979  28.202   6.159 -0.1326 -0.0948 -0.2632
54239W        W97255  29.817   5.254   0.608  0.0200  0.0374  0.2617
54240W        W97256   4.566   4.892  19.504  0.1537  0.3314 -0.1171
54241W        W97257  33.445  31.674   6.987 -0.2132 -0.0586 -0.3292
54242W        W97258   2.604  25.490   0.911 -0.2837  0.1211  0.0243
54243W        W97259   4.243  21.993  17.013 -0.0644 -0.0065 -0.1200
54244W        W97260  32.034   7.619  27.904  0.0178  0.2481  0.0535
54245W        W97261  32.738  34.000  27.770  0.0417  0.3474  0.2124
54246W        W97262   2.091  29.233  21.329 -0.4103  0.1469 -0.1508
54247W        W97263   1.267  31.301  25.234  0.1740 -0.3764  0.2413
54248W        W97264   5.663  22.349   9.027  0.0090 -0.0223  0.0179
54249W        W97265  21.091  34.388  21.708  0.3021 -0.3464  0.1684
54250W        W97266   0.948  24.654  26.977 -0.4391 -0.3076 -0.0394
54251W        W97267  33.261  25.434   1.895 -0.2353  0.1375  0.0226
54252W        W97268   3.601  10.515  18.229 -0.1576 -0.0379 -0.0725
54253W        W97269  26.107  29.484   7.770  0.1819 -0.4809  0.1270
54254W        W97270  30.625  30.930  27.891  0.1000  0.1822  0.1884
54255W        W97271  16.192  11.694  20.996  0.1342 -0.1102 -0.1137
54256W        W97272  33.725  29.110  29.316 -0.2841  0.0965 -0.2462
54257W        W97273  33.600   4.744  21.340  0.0582  0.0766  0.0041
54258W        W97274   0.967  27.999   4.164 -0.0224 -0.3818 -0.2309
54259W        W97275   3.092   1.915   5.472  0.0889 -0.0274 -0.2860
54260W        W97276  31.860  23.865  16.548 -0.1221 -0.0281  0.1547
54261W        W97277   3.642   1.157  20.049  0.1069 -0.0719 -0.2029
54262W        W97278  27.937  24.557  22.289  0.0618 -0.2173  0.3510
54263W        W97279  30.095  26.437  27.789  0.0790  0.0136 -0.0309
54264W        W97280  27.087   7.336  26.677 -0.0290  0.4341 -0.1119
54265W        W97281  29.999   0.492   7.528 -0.0006  0.2592  0.0621
54266W        W97282   0.841  28.033  26.078 -0.0985  0.2055 -0.0679
54267W        W97283  24.883  26.975   7.807 -0.0277  0.4477 -0.1249
54268W        W97284  32.817  33.134  21.663  0.0113  0.0961 -0.0959
54269W        W97285   9.100  29.222  26.485  0.0959 -0.1251  0.1485
54270W        W97286  26.240  26.313   2.442  0.1158  0.0379 -0.2015
54271W        W97287  19.222   3.621  18.867  0.0158  0.1767  0.2983
54272W        W97288  10.393   3.506  19.556 -0.3197  0.1941 -0.1537
54273W        W97289  31.488  17.943   2.420  0.0678  0.1474 -0.5120
54274W        W97290  33.946  34.607   2.545  0.0886  0.0689 -0.0084
54275W        W97291  21.991   3.748  21.856  0.1545 -0.0561  0.2310
54276W        W97292  24.379   3.621  22.445  0.0774  0.0988  0.0039
54277W        W97293  26.982  11.514   0.404  0.2257 -0.1191  0.0333
54278W        W97294  21.907  25.026   3.738 -0.2499  0.1751  0.0153
54279W        W97295  34.271  20.837   6.936 -0.2211  0.3764 -0.1017
54280W        W97296   4.460   0.172   3.201  0.0234 -0.2966 -0.1198
54281W        W97297  25.419   0.116  28.835 -0.1085 -0.0252  0.1209
54282W        W97298  24.413   0.738   3.488 -0.1236  0.2967  0.0694
54283W        W97299  11.455  33.833   5.653 -0.0912  0.0012  0.1025
54284W        W97300  12.207  27.154  19.895  0.2470  0.0536  0.0747
54285W        W97301  19.100  32.676   3.956 -0.0466  0.6261 -0.1226
54286W        W97302   9.133  24.852   6.715 -0.1033  0.1628  0.3310
54287W        W97303  10.050   9.858  29.211  0.2784 -0.1634  0.0791
54288W        W97304  32.270  33.538   9.758 -0.1284 -0.0674 -0.0085
54289W        W97305  22.625  21.308   7.561 -0.1167 -0.1220 -0.4042
54290W        W97306  29.329  26.606  21.328 -0.3963 -0.1214 -0.2714
54291W        W97307  27.766  31.182  21.902  0.0031 -0.1836  0.1045
54292W        W97308   3.057  30.824  21.866  0.0881  0.1549 -0.1866
54293W        W97309   0.145   2.251  24.327 -0.2165  0.0478  0.1465
54294W        W97310  29.063  30.115   7.843 -0.0098 -0.1365  0.0959
54295W        W97311   2.368   3.653  24.250 -0.1458  0.0955 -0.2250
54296W        W97312  20.756  22.764   1.707 -0.0690 -0.0016  0.0326
54297W        W97313  27.565  24.240   1.028 -0.1787 -0.1985  0.2736
54298W        W97314  29.399   0.255   6.378 -0.1496 -0.1626 -0.0985
54299W        W97315   0.428  32.866  16.843  0.0928 -0.0766  0.0315
54300W        W97316   6.531  20.713  25.344 -0.3160  0.0962 -0.0922
54301W        W97317  15.451  31.309  22.729 -0.1142  0.0393  0.0538
54302W        W97318   7.066  32.793  14.901  0.0058 -0.1104  0.1990
54303W        W97319  28.252  33.899  25.778 -0.2318 -0.0211 -0.0899
54304W        W97320   7.438   6.923  20.721  0.2143 -0.0767  0.2094
54305W        W97321  32.577   7.176   2.359 -0.0329 -0.2895  0.3993
54306W        W97322  19.792  26.276  22.442  0.2119 -0.2047 -0.0526
54307W        W97323  14.219  25.630   0.325  0.1034 -0.1474 -0.1834
54308W        W97324  30.731  33.280   2.661  0.1751  0.3065  0.1353
54309W        W97325  31.031   1.910   7.439  0.2163 -0.0294 -0.0924
54310W        W97326  28.885  32.413  10.503  0.0127  0.0362  0.0053
54311W        W97327  16.749   7.086   0.912  0.0007 -0.0129  0.2222
54312W        W97328  11.296  23.193   4.482 -0.1312 -0.1324 -0.0855
54313W        W97329  24.586   0.989   0.528 -0.0649  0.0434  0.0992
54314W        W97330  25.287   2.350  26.932  0.3090  0.3953 -0.0272
54315W        W97331   2.776  24.330  20.726 -0.3699  0.0731 -0.1117
54316W        W97332  33.380  29.448  10.583 -0.0937  0.0290  0.0948
54317W        W97333  19.953  17.261  27.074  0.2501 -0.1335 -0.2976
54318W        W97334   4.265   0.661  16.574  0.4903  0.2896 -0.1269
54319W        W97335  11.386  14.404   8.002  0.2364  0.2326  0.1554
54320W        W97336  25.987   8.338   9.921  0.0844  0.1859  0.1062
54321W        W97337   6.051   4.057   2.318  0.1731  0.0362 -0.2191
54322W        W97338  21.022  33.357   5.544 -0.2383  0.1068  0.1078
54323W        W97339   1.280   1.634  24.902  0.3020  0.2524  0.4428
54324W        W97340   2.506  31.782   3.924 -0.0194 -0.3803  0.0176
54325W        W97341   6.015  21.990  25.970  0.0118 -0.1948 -0.0768
54326W        W97342   9.246  34.623  26.160  0.1512 -0.0910 -0.0302
54327W        W97343   4.516  17.488  14.322 -0.1750  0.0068  0.3616
54328W        W97344   1.996   7.528  18.174 -0.0499  0.2209  0.0740
54329W        W97345  26.770   3.476  16.250 -0.2699 -0.0381  0.0284
54330W        W97346  24.651  31.758   1.492  0.0037  0.1550 -0.0882
54331W        W97347   2.569  23.814  28.613 -0.1572  0.0707  0.1484
54332W        W97348  12.613  16.414   1.379 -0.1984  0.1475  0.3587
54333W        W97349   8.119  19.898  28.538  0.1017 -0.1586  0.0328
54334W        W97350  30.831  20.183   5.420  0.5802  0.0532 -0.1543
54335W        W97351  25.286  15.365   5.080 -0.3362 -0.1704 -0.0150
54336W        W97352  21.136   8.901   0.449 -0.2155 -0.3248 -0.1033
54337W        W97353   4.792   4.549   1.280 -0.0390  0.1124 -0.4162
54338W        W97354  31.476   0.676  29.036 -0.1935  0.1054 -0.0210
54339W        W97355   7.898   3.886   3.385  0.0194 -0.0278  0.0099
54340W        W97356  11.847  24.695   4.549 -0.3160 -0.1216  0.0739
54341W        W97357  10.646   3.474   4.298 -0.0595  0.0322 -0.3758
54342W        W97358  22.900   8.601  22.685 -0.2739 -0.1330 -0.2443
54343W        W97359   5.047   5.098   1.685  0.4585  0.2297 -0.0996
54344W        W97360  22.732  30.582   8.725 -0.1570  0.0141 -0.0587
54345W        W97361   5.665   6.210   9.288  0.0661  0.1529  0.1631
54346W        W97362   1.403  13.595  16.443  0.0323  0.0701 -0.1487
54347W        W97363   6.068   1.707  23.428  0.1580  0.0114  0.1714
54348W        W97364  29.898  10.456  23.941  0.1669  0.1207  0.2172
54349W        W97365   3.659  19.435   3.847 -0.1010  0.2628 -0.0080
54350W        W97366  21.731   4.593  27.564  0.1112  0.1970  0.0296
54351W        W97367  31.239  31.659   5.049 -0.1728  0.0663  0.1057
54352W        W97368   0.175  31.828   1.357 -0.2455 -0.0111 -0.3353
54353W        W97369  31.662  25.579  21.514  0.2046  0.0018  0.0763
54354W        W97370   5.157   2.916  17.721  0.1025  0.0397  0.0949
54355W        W97371   6.599   4.859  20.659  0.0166  0.0085  0.0458
54356W        W97372   3.409  29.316  17.044 -0.0582  0.1168  0.1983
54357W        W97373   9.005   4.413  17.393 -0.0315  0.3451  0.0849
54358W        W97374   1.848  30.262   7.287  0.1574 -0.0311 -0.0182
54359W        W97375  28.258   0.557  26.082  0.0788 -0.3361  0.0160
54360W        W97376   3.375  23.100  26.026 -0.1224 -0.0572 -0.1066
54361W        W97377  14.731   2.987  23.629  0.1551 -0.0227  0.2160
54362W        W97378  12.126  26.129  20.489  0.1809 -0.2337  0.0007
54363W        W97379  28.694  34.087  27.517  0.0401 -0.1825  0.2937
54364W        W97380  17.984  27.029  15.184  0.0659 -0.0316 -0.0210
54365W        W97381  34.405  32.162   5.509 -0.0501 -0.0803 -0.0240
54366W        W97382  24.974  26.871   6.159  0.2309 -0.0076 -0.1814
54367W        W97383  23.691  28.533   7.288 -0.1142 -0.0990 -0.0385
54368W        W97384  24.477   6.166  24.089 -0.0981  0.0017  0.0828
54369W        W97385   9.409  31.476  20.074  0.1947  0.0685 -0.0196
54370W        W97386   5.929  13.249  13.697 -0.0829  0.0401  0.2936
54371W        W97387   1.863   9.683   4.127  0.0214  0.1562 -0.2341
54372W        W97388  20.556  29.557  28.084 -0.0095  0.0971 -0.1226
54373W        W97389  31.905   4.273  16.497  0.0056 -0.0490  0.0731
54374W        W97390  13.666  29.339  24.242 -0.1835 -0.2992 -0.1886
54375W        W97391   8.838  31.339   7.788  0.2307 -0.0135 -0.0084
54376W        W97392   2.457   3.577   4.098 -0.1676 -0.2023 -0.0781
54377W        W97393  30.981  12.955  27.779  0.3521  0.0977 -0.1656
54378W        W97394   8.536  32.980   0.385 -0.3230  0.1964 -0.0721
54379W        W97395  33.129  12.252   9.847 -0.0024 -0.0241  0.1221
54380W        W97396  22.285  23.226   4.432  0.2317 -0.1158 -0.2470
54381W        W97397  32.830   3.920  24.792 -0.4495 -0.0491 -0.2050
54382W        W97398  21.308  20.451  20.540  0.2741  0.0692 -0.1730
54383W        W97399  30.496  23.724  19.738 -0.1758  0.0739  0.0206
54384W        W97400  19.405  26.998   3.507  0.0380 -0.1081 -0.0684
54385W        W97401  17.260  19.278  25.930  0.2335  0.2185  0.0029
54386W        W97402  22.274  27.934  27.483 -0.1787  0.0293  0.2758
54387W        W97403  24.200  11.624   9.442  0.0176 -0.3342 -0.2094
54388W        W97404  26.138  33.481   9.281  0.1003  0.4604  0.2721
54389W        W97405   2.063   5.646  20.477 -0.2935 -0.3045 -0.0564
54390W        W97406  24.141   0.786  27.085 -0.3341  0.3170 -0.1045
54391W        W97407   9.648  22.416  22.544  0.0820 -0.0301  0.2255
54392W        W97408   4.752  33.570   6.184 -0.1522 -0.0924  0.1800
54393W        W97409   3.447   3.529   3.973  0.0519  0.1295 -0.0225
54394W        W97410  29.029   9.255  22.671  0.0559  0.2059 -0.3268
54395W        W97411   6.841  34.689   8.549 -0.0365 -0.1056  0.1630
54396W        W97412   7.023  25.639  16.465 -0.0517  0.0904 -0.2314
54397W        W97413  27.333  29.696   9.764 -0.1400  0.0908  0.1386
54398W        W97414   4.384  33.759  23.246 -0.1525  0.1558 -0.3548
54399W        W97415  18.350  12.826  28.775 -0.0067 -0.2603  0.2545
54400W        W97416   0.242   8.445   8.393 -0.3371 -0.1567 -0.0174
54401W        W97417  14.641  16.098  20.964  0.1788 -0.1755 -0.1503
54402W        W97418   8.884  30.112  15.624  0.1076  0.0783 -0.1221
54403W        W97419  24.482  30.980  16.528  0.1109  0.1233  0.1346
54404W        W97420  13.063  20.699  26.849  0.3671 -0.1162  0.0044
54405W        W97421  19.826  18.218   6.504 -0.0545 -0.0626  0.1417
54406W        W97422  29.477  19.786  15.789 -0.1915  0.1463  0.2035
54407W        W97423  25.262  13.806   5.842 -0.1084 -0.0661  0.0856
54408W        W97424  17.789  16.443   3.603  0.1420 -0.0449 -0.1312
54409W        W97425   2.693   3.397  21.335  0.2744  0.0749  0.1470
54410W        W97426   1.387  34.394   0.105  0.1444  0.0371  0.0175
54411W        W97427  16.076  28.361   7.313  0.0124  0.0227  0.3308
54412W        W97428  28.642  19.057  21.859 -0.0564  0.2279  0.1791
54413W        W97429  17.833  10.051  27.490 -0.1715 -0.2644 -0.0801
54414W        W97430   3.066  11.895   8.913 -0.6077 -0.2078 -0.0018
54415W        W97431   0.822  23.335  25.078  0.2896  0.1331 -0.0025
54416W        W97432  19.986   5.036   3.285  0.3031 -0.1520  0.0522
54417W        W97433  11.755   0.966   9.571 -0.2688  0.3209 -0.0064
54418W        W97434   0.531  32.525   7.794 -0.0536 -0.0374  0.1624
54419W        W97435   1.727  31.110  19.351 -0.3242  0.0260  0.2313
54420W        W97436  18.618  28.407   3.232 -0.1808  0.1205 -0.2040
54421W        W97437   2.824  28.615  23.972  0.3893  0.0142  0.0153
54422W        W97438   6.310  34.126  22.175  0.0634  0.0492 -0.3547
54423W        W97439  32.446  31.706   0.915 -0.0703  0.0099 -0.0507
54424W        W97440  33.375  27.468   7.377  0.1134  0.1775  0.3021
54425W        W97441  32.705  23.547  16.861  0.1223  0.1814 -0.1637
54426W        W97442  26.357   8.982  19.988  0.3499 -0.2213 -0.0333
54427W        W97443  31.447  33.027   6.795  0.0416 -0.0261 -0.1403
54428W        W97444  14.672  14.631  20.767 -0.0628 -0.1280  0.2555
54429W        W97445  10.077  23.302   7.355 -0.3249  0.1562 -0.2330
54430W        W97446   2.113   5.599  28.205 -0.0035  0.0753 -0.1572
54431W        W97447  27.879  23.876  26.179  0.1684  0.0106  0.2518
54432W        W97448  23.912   2.419  27.924 -0.1768 -0.3747 -0.0518
54433W        W97449   1.325  27.342   5.279  0.0661 -0.0494  0.0539
54434W        W97450  17.824   2.913   4.831 -0.0314 -0.0826  0.1174
54435W        W97451  17.741  16.749  24.252  0.1865  0.2919  0.0922
54436W        W97452  23.869  32.823   3.615  0.0145 -0.0453  0.5413
54437W        W97453  23.804  27.258   7.710 -0.2071 -0.3076 -0.1119
54438W        W97454   5.696   2.074   7.668 -0.1192 -0.0024 -0.0371
54439W        W97455   5.432  15.766  17.230  0.0685  0.0431 -0.1389
54440W        W97456  33.666  33.049  26.157  0.0333 -0.2270 -0.2268
54441W        W97457  31.480  23.527   2.724 -0.1791  0.0096  0.1399
54442W        W97458  10.533  26.698  23.566  0.0784  0.1115  0.1383
54443W        W97459  18.991  26.298  26.974  0.1821  0.0111 -0.0676
54444W        W97460   3.519  12.025   6.088  0.0893 -0.0367  0.1028
54445W        W97461  19.160   8.593  17.059  0.0617 -0.0630  0.1987
54446W        W97462   6.179   4.810  15.289 -0.0410  0.0099 -0.1808
54447W        W97463  29.827   5.562  26.982 -0.3190  0.0419 -0.2786
54448W        W97464  29.674   6.274   1.684  0.2775  0.1605  0.1119
54449W        W97465   0.828  18.432  16.324  0.0710  0.1101 -0.0563
54450W        W97466  18.526  11.362  17.997  0.1901  0.0547  0.2663
54451W        W97467   1.059  29.165  18.472  0.0472 -0.1170 -0.0557
54452W        W97468  25.489   5.043  19.523  0.2423  0.0436 -0.0464
54453W        W97469  33.752  23.076  18.692  0.2662  0.0246 -0.1903
54454W        W97470   6.924  19.241  13.432 -0.1614 -0.0110  0.2231
54455W        W97471  34.393   4.366  21.382 -0.0543 -0.2593 -0.2292
54456W        W97472   2.020   0.667  20.440 -0.0975 -0.2888  0.0177
54457W        W97473  32.958   1.934   1.423 -0.0248 -0.0856  0.1453
54458W        W97474   3.192  32.321  23.499 -0.0079 -0.3466 -0.2567
54459W        W97475  34.680   7.173  28.904 -0.1689  0.2199  0.0772
54460W        W97476   6.997  31.388  25.030  0.4340  0.0592  0.1402
54461W        W97477  25.499   0.194  26.135 -0.3755  0.3216 -0.0857
54462W        W97478   3.715   3.933  15.147 -0.0352 -0.0402 -0.2144
54463W        W97479  16.274  19.825  21.712  0.0950 -0.1654  0.5661
54464W        W97480  25.328   0.829  14.988  0.0074 -0.1444 -0.1212
54465W        W97481  26.367  17.726  28.598 -0.0975 -0.1336 -0.1693
54466W        W97482  15.055  28.103  23.986  0.0460 -0.1586  0.2698
54467W        W97483   6.256   0.973  20.976  0.1991  0.0179  0.0752
54468W        W97484   1.750   8.578  16.074 -0.0036 -0.0977 -0.0786
54469W        W97485  19.215  30.877  22.734  0.0611  0.1289  0.0153
54470W        W97486  34.343   6.179   7.738 -0.3782  0.0870  0.0968
54471W        W97487  30.932  27.303  18.960  0.0870  0.2465 -0.0421
54472W        W97488  34.667  29.543  23.805 -0.2414 -0.2142 -0.4454
54473W        W97489  13.035  34.443  23.879  0.1507 -0.3105  0.1546
54474W        W97490  30.365  32.900  23.082  0.5097 -0.2117 -0.0794
54475W        W97491  30.581  14.251  24.225 -0.1278  0.1631  0.1293
54476W        W97492  28.330  11.863  24.259 -0.0794 -0.0766  0.3172
54477W        W97493  34.538  27.396   3.134 -0.1977 -0.4516 -0.1393
54478W        W97494  33.947   3.942  15.806 -0.1755  0.0413  0.0065
54479W        W97495  16.807  12.009  19.194  0.3661  0.0362  0.1462
54480W        W97496  22.115   2.144  14.866 -0.0840 -0.0140  0.1027
54481W        W97497  32.129  31.656  20.809 -0.0122  0.1635  0.3236
54482W        W97498  23.698  28.975   1.596 -0.1249 -0.2434 -0.2269
54483W        W97499  26.199  11.975  16.760  0.0076  0.0793 -0.2664
54484W        W97500  29.576  31.206  16.387 -0.0559  0.1430 -0.0618
54485W        W97501  28.504  24.048  20.887 -0.1505 -0.0459 -0.1300
54486W        W97502  26.791   3.732  21.614  0.1976 -0.0979 -0.0473
54487W        W97503   4.077  31.180  17.989 -0.0678 -0.1041  0.0706
54488W        W97504  28.059   1.742  17.841  0.0425  0.1109 -0.0954
54489W        W97505   0.763  33.565  21.533  0.1503  0.1801 -0.2575
54490W        W97506  30.059  13.889  15.568  0.1264 -0.1478  0.1349
54491W        W97507  22.466   0.600   9.842 -0.0918  0.0915  0.0987
54492W        W97508  10.379   1.998  16.398  0.0313  0.5869  0.2196
54493W        W97509  18.729  29.164  15.782 -0.0487 -0.4074  0.2096
54494W        W97510   3.954  25.941  20.647  0.2016 -0.1828 -0.1124
54495W        W97511  28.649   1.906  24.454 -0.1862  0.2110 -0.2261
54496W        W97512  26.892   6.331  21.888 -0.3013  0.0790  0.0003
54497W        W97513  19.191  13.454  21.269 -0.3220 -0.2489 -0.2954
54498W        W97514  21.698   7.227  21.494 -0.0841  0.1468 -0.2026
54499W        W97515  16.376  29.752  18.050 -0.0462  0.0464  0.0646
54500W        W97516  14.094   8.165  21.468  0.2526  0.2129  0.0615
54501W        W97517  12.445  33.503  25.279  0.2477  0.1513 -0.3354
54502W        W97518  34.486   7.321  14.337 -0.0771 -0.1116  0.1848
54503W        W97519  18.912  34.235  14.892  0.2589 -0.1868  0.1463
54504W        W97520   2.595   6.957  19.787  0.2488  0.0501  0.0729
54505W        W97521  10.259  26.977   3.540 -0.2433 -0.1675 -0.1437
54506W        W97522   8.278  33.206  23.702  0.2573 -0.5121  0.2632
54507W        W97523   3.303  23.832  21.250  0.3859 -0.1505 -0.1821
54508W        W97524  26.832  10.323  17.812 -0.0576  0.3851  0.0808
54509W        W97525   6.041  34.209  16.641  0.1046 -0.1299  0.1083
54510W        W97526  26.067  33.963  25.996  0.0884  0.0173 -0.1868
54511W        W97527  20.551  16.845   8.514  0.1060  0.1164 -0.0635
54512W        W97528  34.119   5.512  23.222  0.2113  0.2303 -0.7484
54513W        W97529   3.223  24.116  20.827  0.0597  0.3023  0.1528
54514W        W97530  15.001   1.788  20.810  0.1022  0.0761  0.0984
54515W        W97531  30.042  12.469  18.901 -0.1475  0.1032 -0.2320
54516W        W97532  32.881   7.715  14.476  0.3205  0.1783 -0.1410
54517W        W97533  33.769  16.486   6.690  0.0821 -0.0079 -0.1777
54518W        W97534  28.026   5.702  25.906 -0.3322  0.0770 -0.1082
54519W        W97535  32.406  32.763  20.614 -0.0120  0.0143  0.0177
54520W        W97536  31.058  11.075  25.474  0.2583 -0.3686 -0.0961
54521W        W97537   6.317   8.162  22.784 -0.0362  0.0890 -0.0333
54522W        W97538   6.909  22.983  18.959  0.4274 -0.2205  0.6016
54523W        W97539  32.495  26.588  18.837  0.0981  0.2234 -0.1776
54524W        W97540  25.716  34.389  24.619 -0.4486 -0.1134 -0.2328
54525W        W97541   6.459  34.225  23.747 -0.3360 -0.1710  0.0805
54526W        W97542   2.692  32.525  17.324 -0.1217  0.0255 -0.1512
54527W        W97543   6.243  15.435  28.123  0.0363  0.3161  0.0352
54528W        W97544  15.451   0.094  17.088  0.1769  0.0984  0.2541
54529W        W97545  26.037  34.126  24.234  0.1401 -0.0899  0.1163
54530W        W97546  30.531   1.193  18.831 -0.1208 -0.3327  0.0802
54531W        W97547  24.745  32.144  26.783  0.0326 -0.0406  0.2351
54532W        W97548  24.364  34.127  24.681  0.1876 -0.2871 -0.1701
54533W        W97549  16.254  12.622  14.097  0.0104  0.3625  0.1345
54534W        W97550   9.772   4.065  19.278 -0.0719  0.0606  0.2259
54535W        W97551  28.050  21.901  28.121  0.2486 -0.1308  0.1763
54536W        W97552  21.834   4.423  23.342 -0.0318 -0.3226  0.2511
54537W        W97553   0.743  20.357  27.804 -0.1245 -0.3864 -0.0499
54538W        W97554   5.817  10.694  21.389 -0.0998 -0.0147 -0.0095
54539W        W97555  30.562   5.776  16.636 -0.0041  0.0664  0.0219
54540W        W97556   8.481  30.384  29.049  0.2418 -0.2348  0.2515
54541W        W97557  33.999   9.524  18.386 -0.0198 -0.1658 -0.1009
54542W        W97558   2.696  27.012  17.671 -0.0792  0.7108  0.0037
54543W        W97559  12.617  32.924  18.487 -0.1693 -0.0245 -0.1561
54544W        W97560  21.615  29.684  17.797  0.0929 -0.1507 -0.2940
54545W        W97561   4.359   8.433  17.292 -0.1172  0.1848 -0.1121
54546W        W97562   5.698  29.843  15.112 -0.1336 -0.1332  0.0327
54547W        W97563   8.650  24.280  26.560  0.1974 -0.0119  0.0502
54548W        W97564  25.526  34.622  16.709  0.2672  0.1822 -0.0973
54549W        W97565  32.689  25.695  17.178 -0.4026  0.3580 -0.0072
54550W        W97566  26.924  17.998  20.835  0.0015  0.0462  0.0189
54551W        W97567  25.193  10.097  17.146 -0.1459 -0.0643  0.0367
54552W        W97568  21.991  32.700   2.000  0.1496  0.4078  0.0075
54553W        W97569  27.588   3.729  16.014 -0.2549  0.0424 -0.0746
54554W        W97570   1.212   3.847   1.721 -0.1739  0.0571 -0.1601
54555W        W97571  20.321  22.930  15.271 -0.1601 -0.2626 -0.0670
54556W        W97572   2.173   8.516  14.470 -0.1437  0.1870  0.3380
54557W        W97573  25.675  31.731  16.979 -0.1463 -0.1046  0.3670
54558W        W97574   5.667  10.622  25.608 -0.2829 -0.1587 -0.1652
54559W        W97575  33.841   8.323  19.677 -0.0554 -0.0562 -0.0635
54560W        W97576  21.189  33.061  20.468 -0.0651  0.0656 -0.1801
54561W        W97577  11.354  11.889  21.137  0.0466 -0.2093 -0.2971
54562W        W97578  31.522  25.575   1.985  0.0364  0.4596  0.0152
54563W        W97579   6.146   1.247   2.983 -0.0229  0.1893 -0.2497
54564W        W97580  27.350  32.956  27.047  0.1530 -0.0635 -0.4436
54565W        W97581  33.703  15.610   4.549  0.2040  0.0388  0.0995
54566W        W97582  32.303   1.802   2.423  0.1657  0.0821  0.1740
54567W        W97583   2.769  28.193  28.211 -0.0435 -0.0010  0.0869
54568W        W97584  15.259   3.967  13.613 -0.2916  0.0118  0.1178
54569W        W97585  13.232  23.755  14.992 -0.0558  0.1165  0.1305
54570W        W97586  29.907  33.320  20.677  0.2364 -0.1945 -0.1252
54571W        W97587  23.488   2.639  22.789  0.0846 -0.0236  0.3384
54572W        W97588  30.496  28.940  19.893  0.2594  0.2021 -0.0708
54573W        W97589  27.834  26.375   4.965 -0.1329  0.2024  0.0807
54574W        W97590  29.200   7.722  23.776  0.1460 -0.0092 -0.1327
54575W        W97591  30.114   3.293  19.570 -0.1818 -0.0501 -0.2028
54576W        W97592  12.719   4.740  27.633 -0.4492  0.0603 -0.0012
54577W        W97593   5.082  34.412  15.406  0.0210  0.1188  0.0534
54578W        W97594   2.020  21.288  16.331 -0.2038 -0.0655  0.1204
54579W        W97595   3.453   8.093  26.371 -0.1583 -0.1238 -0.2122
54580W        W97596  30.137   5.018   1.021 -0.0371 -0.0331  0.3088
54581W        W97597  29.848  27.067  18.160 -0.2219  0.3437  0.0123
54582W        W97598  25.781  23.596  25.501  0.1255  0.0263  0.1791
54583W        W97599   6.143   2.547  17.665  0.2619  0.0013 -0.0008
54584W        W97600  31.055  20.122  23.409 -0.1907 -0.0581  0.0974
54585W        W97601  31.337  11.619  27.541 -0.1460  0.1212  0.2086
54586W        W97602  24.561  18.074  20.794  0.1182 -0.2688 -0.1797
54587W        W97603  11.505  27.280  14.363 -0.2932 -0.1376  0.0229
54588W        W97604  32.525  15.727  17.888 -0.2039 -0.1943  0.1426
54589W        W97605   1.799  24.421  23.247 -0.3450 -0.1021 -0.2304
54590W        W97606  23.997   0.486  22.037  0.0688 -0.2850  0.1402
54591W        W97607   6.348  31.579   0.385  0.2598 -0.0891  0.0972
54592W        W97608   5.981  26.130  15.566  0.1208 -0.1589 -0.0559
54593W        W97609  33.348   1.075   0.686 -0.0676 -0.0606 -0.1728
54594W        W97610   1.304   5.344   6.022 -0.1852 -0.0690  0.1499
54595W        W97611   2.080   1.570  28.280 -0.1281 -0.4000  0.0605
54596W        W97612  24.358  10.715  14.446 -0.2365  0.0918  0.1000
54597W        W97613  12.629   4.463  21.013  0.0818 -0.1277 -0.2251
54598W        W97614   1.789  31.345  18.159 -0.0042 -0.1153  0.2541
54599W        W97615  32.904  30.629   1.988 -0.1221  0.1471  0.0222
54600W        W97616  25.787  16.134   1.286  0.0930 -0.2043 -0.2749
54601W        W97617   3.649  30.431   6.830 -0.1730  0.0369 -0.1495
54602W        W97618  19.765  27.152   7.024  0.1214 -0.0956 -0.0523
54603W        W97619  34.458  17.387   2.789 -0.0058  0.2196  0.1820
54604W        W97620   4.020  32.839  25.969  0.1753 -0.2445 -0.1121
54605W        W97621   7.831  32.142  29.066 -0.1864  0.1619 -0.0549
54606W        W97622  19.759  34.649  18.613  0.1045  0.0178  0.1189
54607W        W97623  13.324   7.022  20.465  0.1175 -0.2904  0.4376
54608W        W97624  34.203   8.002  22.940 -0.1604  0.1155 -0.1762
54609W        W97625  23.258   2.588  23.296 -0.4042  0.2127 -0.0917
54610W        W97626   4.295  20.925  22.185  0.0321 -0.2823 -0.3781
54611W        W97627  28.792  27.838  24.382  0.0361  0.1946  0.0671
54612W        W97628   8.945  22.871   8.497 -0.1386 -0.0283 -0.2611
54613W        W97629  17.570  24.542   2.231  0.1439  0.0315 -0.0197
54614W        W97630  16.245   2.030  15.217  0.0162  0.0992 -0.1244
54615W        W97631  29.220  33.038   3.786  0.1342  0.0564  0.2575
54616W        W97632   4.339  32.883  18.333 -0.2572  0.1157 -0.1873
54617W        W97633   9.731   4.743  17.528 -0.1958  0.1271  0.0232
54618W        W97634  24.822  15.730  27.124  0.1204  0.1548 -0.0198
54619W        W97635   0.554   9.014  19.773 -0.0733 -0.2874  0.0238
54620W        W97636   4.372  14.226  27.145 -0.2041  0.5804  0.2323
54621W        W97637   1.460  31.303  19.760  0.0072  0.2462 -0.0395
54622W        W97638   2.071   0.809  18.015 -0.0082  0.3309  0.0745
54623W        W97639  15.491  29.052   8.459 -0.3463 -0.4605  0.0776
54624W        W97640  26.074  28.083   4.050 -0.1062 -0.0959  0.2370
54625W        W97641  19.420  10.998  14.095 -0.1421 -0.2526  0.3535
54626W        W97642   5.617  29.177  16.729  0.0591  0.1100 -0.1667
54627W        W97643  32.823  21.977  21.102 -0.0376  0.2629  0.0117
54628W        W97644   9.759  21.808  12.971  0.1829 -0.1466 -0.0255
54629W        W97645  30.470  21.891   5.784 -0.1022  0.3289 -0.2438
54630W        W97646  13.737   5.457  25.711 -0.1804 -0.0204 -0.3131
54631W        W97647   3.818  11.730  18.445 -0.1251 -0.1429 -0.0534
54632W        W97648  31.639  14.967  27.035  0.0086 -0.2082 -0.1136
54633W        W97649  20.992  29.093   0.776 -0.0152  0.3280  0.2307
54634W        W97650  27.405  32.140   6.960 -0.2823 -0.0290  0.2353
54635W        W97651  10.939  31.598  16.205 -0.3020 -0.1702  0.0310
54636W        W97652  26.708   0.305  25.960  0.2412  0.0591 -0.0044
54637W        W97653   0.365  21.662  18.747 -0.0836  0.1624 -0.2548
54638W        W97654  33.611  17.426   9.801 -0.0845  0.2997  0.3305
54639W        W97655  31.402   6.284   1.216 -0.3247 -0.2220  0.2146
54640W        W97656  22.603   8.190  28.312  0.1161 -0.0821 -0.0340
54641W        W97657   8.865  25.614  16.280 -0.1152 -0.2643  0.4696
54642W        W97658  27.487   1.607   0.651  0.0340  0.1362  0.0826
54643W        W97659   2.507   0.589  27.536  0.0320 -0.2320 -0.1282
54644W        W97660   7.030  17.788  18.893 -0.0564 -0.3242 -0.0664
54645W        W97661  27.688  27.122   1.886 -0.0655 -0.1172  0.1011
54646W        W97662   9.972  28.997   0.356 -0.0113 -0.0752 -0.1525
54647W        W97663  11.710   6.169  21.197  0.1886  0.0924 -0.4948
54648W        W97664  10.850  25.389  15.427  0.2656 -0.0814  0.2068
54649W        W97665   5.050  33.962  20.430  0.2401  0.2002 -0.0948
54650W        W97666   1.653   1.071  15.854  0.2977  0.1200  0.2514
54651W        W97667  22.658  13.572  24.614 -0.1565 -0.0483  0.0670
54652W        W97668   5.007  31.665  21.842 -0.3455  0.1231  0.0770
54653W        W97669  25.208   9.519  26.099  0.0601 -0.1655 -0.0548
54654W        W97670   2.505  27.910   4.371  0.2914  0.1058  0.0989
54655W        W97671  25.523   0.205  17.963  0.0051  0.2027  0.1455
54656W        W97672   7.052  20.702  20.234 -0.0045  0.1330  0.1227
54657W        W97673  24.859  19.126  18.254 -0.6080  0.1764 -0.1375
54658W        W97674  16.193  28.550  16.492  0.0610  0.1042 -0.0195
54659W        W97675   9.231  20.464   1.719  0.0304 -0.2463  0.0599
54660W        W97676  19.101  15.571  14.102  0.1014  0.2451  0.0228
54661W        W97677  13.407   8.491  14.133  0.0617  0.0150 -0.0180
54662W        W97678   4.336   2.049   0.309 -0.2029 -0.1744  0.1727
54663W        W97679  34.715   9.034   1.368 -0.0270  0.3071  0.1414
54664W        W97680  10.062   5.293  23.570 -0.3014  0.2106 -0.0299
54665W        W97681  34.513   6.756  21.738 -0.2929 -0.0770 -0.0929
54666W        W97682  31.346  17.050  14.996 -0.3028  0.0188  0.1166
54667W        W97683  29.960  20.791   3.684  0.0264 -0.2962  0.2059
54668W        W97684  31.383  11.610  26.334  0.5126  0.0615  0.1643
54669W        W97685  31.941  29.105  25.603 -0.0904  0.0742 -0.0359
54670W        W97686  32.029   7.661  14.931 -0.0944 -0.1223  0.1307
54671W        W97687   3.539  29.231  28.664  0.1457  0.1975  0.1513
54672W        W97688   6.217  22.278  28.153 -0.0104  0.0268 -0.0360
54673W        W97689  32.754   3.992  20.085  0.0725  0.1623  0.0067
54674W        W97690  24.408  25.975   8.108  0.0409 -0.0644 -0.3239
54675W        W97691  15.632   3.198  29.261  0.2567 -0.2833  0.2231
54676W        W97692  17.570  19.743  27.500  0.1120  0.3888 -0.2987
54677W        W97693   8.726  10.962  15.521 -0.0631 -0.0619  0.3164
54678W        W97694   9.698  33.109  25.395  0.1377 -0.2607  0.1411
54679W        W97695   9.773  31.516   3.331 -0.4223  0.0049  0.1606
54680W        W97696   3.132   7.880  26.748 -0.2609  0.0752  0.1336
54681W        W97697   0.238  32.243   0.551 -0.1626  0.2456  0.0627
54682W        W97698  28.056  26.683  16.754  0.3936  0.3379 -0.1733
54683W        W97699  34.331  12.490  22.465  0.0791 -0.4521  0.0506
54684W        W97700  26.347   2.647  18.378 -0.0053  0.2298 -0.0212
54685W        W97701  30.394   1.432  18.431  0.1240 -0.2158 -0.1349
54686W        W97702   3.128  17.802   0.411  0.2265  0.0120  0.1436
54687W        W97703  26.542  29.274  22.828  0.2432  0.1088  0.0792
54688W        W97704  34.589  22.846  14.475  0.2385 -0.1720 -0.0298
54689W        W97705  33.810  12.481  21.112 -0.1171  0.1826 -0.0417
54690W        W97706   4.679  32.863  21.673 -0.1342 -0.2193 -0.0930
54691W        W97707  14.463  10.808  24.574  0.0509 -0.1875  0.2930
54692W        W97708   2.212  33.568  25.085  0.0436 -0.4070 -0.1088
54693W        W97709   3.391   1.063  15.067  0.2511 -0.1483 -0.0581
54694W        W97710   1.181  29.259   0.239  0.0005 -0.2299 -0.1458
54695W        W97711  34.151  31.607   1.765 -0.1460  0.1130 -0.1851
54696W        W97712   3.048  34.469  20.698  0.0721  0.1574 -0.0657
54697W        W97713  30.396   5.129  11.173  0.2905  0.2672  0.0633
54698W        W97714  18.115  22.708  15.473  0.0263 -0.0529  0.0387
54699W        W97715   7.846  21.889  14.435  0.0189  0.1721 -0.1823
54700W        W97716  31.002  11.119   2.580 -0.0965  0.0595  0.1525
54701W        W97717  25.822  29.916   1.341 -0.2517  0.1442 -0.1211
54702W        W97718  34.012   1.940  17.639  0.2638  0.0461  0.0256
54703W        W97719  31.777   4.574  23.555 -0.2055  0.0113  0.0783
54704W        W97720   2.834  27.354  28.637  0.0489  0.1398 -0.0034
54705W        W97721   4.668  19.727  18.890  0.4984  0.2289 -0.0770
54706W        W97722  17.174  33.506  17.474  0.0017 -0.1835  0.0557
54707W        W97723   1.488  21.956  19.051  0.0670  0.0754 -0.2061
54708W        W97724  17.114  31.030  22.146  0.1670 -0.2260  0.2822
54709W        W97725   9.854  21.469  22.608 -0.0048 -0.1269  0.2506
54710W        W97726   8.808  10.311   1.518  0.2188 -0.0903  0.1093
54711W        W97727   1.983   2.431   6.995 -0.1232 -0.1746  0.0771
54712W        W97728  16.508   4.838  15.763  0.0889  0.1527  0.1429
54713W        W97729  25.195   5.656  21.865 -0.3328 -0.1070  0.0271
54714W        W97730  23.449   3.396   5.746  0.1261 -0.3213  0.2511
54715W        W97731  33.474  28.913  19.352 -0.1356  0.0612  0.0746
54716W        W97732   2.074  28.822  27.594  0.0127 -0.1997 -0.1101
54717W        W97733  17.870  32.621  18.385  0.0590 -0.0051  0.1731
54718W        W97734  25.495   2.932  25.483 -0.1053  0.2681 -0.2832
54719W        W97735  26.424   2.980  19.057 -0.2140  0.1152  0.0771
54720W        W97736  23.270   5.821  28.399 -0.1959  0.0304  0.1249
54721W        W97737  29.807  17.967  19.593  0.2328  0.2349  0.0220
54722W        W97738  23.878  33.266  18.473 -0.1925  0.0144  0.1801
54723W        W97739  26.518  24.512  22.462 -0.1131  0.1858  0.1077
54724W        W97740  30.260  30.161  24.823 -0.1441  0.0250  0.1663
54725W        W97741   3.663  25.660  28.531 -0.4186  0.2020 -0.2801
54726W        W97742  27.164   8.913   5.849 -0.2231 -0.1026 -0.1874
54727W        W97743  32.608   0.952  29.112  0.1080 -0.1362 -0.2433
54728W        W97744  28.274  28.117   2.870  0.3703  0.1281 -0.0443
54729W        W97745  32.041   8.994  20.688 -0.1144 -0.2681 -0.0961
54730W        W97746  22.135  28.986  28.964 -0.3870  0.3569 -0.2134
54731W        W97747   2.603  30.291   9.250  0.1662 -0.0879  0.0997
54732W        W97748   5.580  27.095   8.781 -0.2538 -0.0821 -0.0299
54733W        W97749   7.526  19.645  26.479 -0.1421 -0.1061  0.3797
54734W        W97750  19.428  12.925  28.272  0.4210 -0.0443  0.4932
54735W        W97751  13.360  30.346   5.513 -0.0017  0.1088 -0.0533
54736W        W97752   1.453   5.131  24.797 -0.1263  0.2132 -0.1706
54737W        W97753  25.050  28.112  22.751  0.1715  0.1230  0.2325
54738W        W97754   3.810   1.411   6.638  0.4135 -0.0659 -0.1791
54739W        W97755  24.604  20.850  23.436 -0.0038 -0.0232  0.1384
54740W        W97756   3.248   4.243  16.980  0.3214  0.0206  0.0731
54741W        W97757  34.401  18.822  20.588 -0.0343  0.1075 -0.0369
54742W        W97758  10.151   1.481   8.992  0.1822 -0.0781 -0.0458
54743W        W97759  27.784   3.427  17.314  0.2069  0.1186 -0.0902
54744W        W97760   5.356  19.194  28.529  0.0647  0.0894  0.1803
54745W        W97761  32.778  17.197  22.874  0.3242 -0.0281  0.1031
54746W        W97762   4.637   6.682  22.450 -0.1028 -0.2631 -0.1242
54747W        W97763  25.489   7.027   3.727  0.0429 -0.2669  0.3438
54748W        W97764  33.181  34.152   7.750  0.0801  0.0165 -0.0828
54749W        W97765  32.798   7.632  24.075  0.0655 -0.1325 -0.5064
54750W        W97766   3.241   2.051   6.352  0.1927  0.0055 -0.1001
54751W        W97767   1.261  25.822   7.180 -0.1110  0.2166 -0.2239
54752W        W97768  32.255  33.341   8.100 -0.3377 -0.2662  0.1633
54753W        W97769   5.075  22.451  25.151 -0.2663 -0.3352 -0.0152
54754W        W97770  21.501   0.568   8.392  0.1126  0.0048 -0.2097
54755W        W97771  27.031  23.697   1.793 -0.2322 -0.2479 -0.4259
54756W        W97772   0.309  28.109  16.011  0.2210  0.0819  0.2431
54757W        W97773   7.866   3.324  19.302 -0.3965  0.0768 -0.0320
54758W        W97774  17.346  10.159   3.544 -0.1030  0.1311 -0.3183
54759W        W97775   5.055  31.418   3.030 -0.0328  0.0958  0.1012
54760W        W97776  31.999  32.336  10.319 -0.1637 -0.2247 -0.0847
54761W        W97777  33.574   2.492   2.893  0.3307 -0.4436 -0.1952
54762W        W97778  34.280  23.151  21.466  0.1404 -0.2394  0.1805
54763W        W97779   1.499   3.446   4.682  0.3094 -0.0889  0.1262
54764W        W97780  29.252  33.716  11.539 -0.0959  0.1876 -0.7298
54765W        W97781  11.734  28.130  19.443  0.0382 -0.2515  0.0788
54766W        W97782   1.972  25.769   1.785 -0.1077 -0.0463 -0.0717
54767W        W97783  26.436  26.393   6.851  0.1436  0.1252  0.0418
54768W        W97784  12.456  31.676  15.995 -0.0225  0.0092  0.2464
54769W        W97785  31.904   5.526   7.604 -0.0355 -0.0296  0.0780
54770W        W97786  23.370  18.480  29.104  0.3101  0.1321 -0.1525
54771W        W97787   5.815  22.373  15.186  0.1335 -0.1863 -0.1371
54772W        W97788   3.180  19.461  20.117 -0.1290  0.1389  0.0647
54773W        W97789   6.943  18.483  16.890 -0.1026 -0.1680  0.2074
54774W        W97790   4.893  26.450  21.859 -0.2853 -0.2613 -0.0273
54775W        W97791   3.978  32.792   3.904 -0.3334  0.2473 -0.1973
54776W        W97792  22.596  24.711   7.768  0.1242  0.1643 -0.0051
54777W        W97793  18.154   4.511   5.037 -0.0754 -0.1032 -0.0249
54778W        W97794  33.656  24.627  24.852 -0.3801  0.2747 -0.1570
54779W        W97795  30.598  31.218  26.248  0.1704  0.2083 -0.1551
54780W        W97796   7.428  24.891  22.761 -0.2651  0.1084 -0.1387
54781W        W97797   0.311  33.505  15.528  0.1015  0.0833 -0.0363
54782W        W97798   2.338  23.705  14.892 -0.2684  0.2234 -0.4346
54783W        W97799  19.287  29.057   8.133  0.4005  0.0062 -0.0833
54784W        W97800  21.545   6.337  16.257  0.0417  0.3430 -0.1451
54785W        W97801  24.444  28.339  23.591  0.2178 -0.1783  0.1608
54786W        W97802  34.717  22.536  14.951 -0.2619  0.1612  0.1050
54787W        W97803   1.597   0.535  24.002 -0.2254  0.1173 -0.2611
54788W        W97804  28.556   1.823   7.945  0.0483 -0.1451  0.0229
54789W        W97805   2.446  29.346  21.833 -0.3070 -0.2069 -0.0181
54790W        W97806  26.577  28.903  28.441  0.0644  0.3348  0.0382
54791W        W97807  30.835   4.770  19.728  0.0233 -0.0020 -0.0725
54792W        W97808  13.212   1.583  18.861  0.0006 -0.1253 -0.1937
54793W        W97809   7.157  19.389  25.551 -0.1520 -0.0402 -0.0589
54794W        W97810  28.065   2.766  22.331  0.0514 -0.1599  0.1348
54795W        W97811   8.321  13.936  20.148  0.0260  0.0559  0.0656
54796W        W97812  11.278  30.890  18.572  0.1083 -0.0700 -0.0944
54797W        W97813  32.789   4.146  20.557 -0.1472  0.1576 -0.2028
54798W        W97814   0.604   1.345  20.934  0.1762 -0.2076 -0.1706
54799W        W97815  31.157  17.718  28.125  0.3475 -0.0081  0.1152
54800W        W97816   6.726  25.490  20.644  0.0641 -0.2111  0.3101
54801W        W97817  19.840  18.222  27.369 -0.0106  0.2132  0.0489
54802W        W97818  30.261   0.033  11.124 -0.3836  0.1275 -0.0589
54803W        W97819   4.707   1.151  27.805  0.5151 -0.1056 -0.0861
54804W        W97820   9.666  34.479   9.830 -0.0682 -0.2400 -0.0452
54805W        W97821   5.692  32.018   6.633 -0.2905 -0.0071 -0.1667
54806W        W97822  30.900  27.451   1.573  0.0059  0.0216 -0.1385
54807W        W97823  33.946   3.735  20.784 -0.3798  0.1389  0.0119
54808W        W97824   8.617  31.648   6.965  0.1039  0.1658  0.1354
54809W        W97825  13.709  24.397  19.219 -0.2193  0.1127  0.2360
54810W        W97826   6.573   7.288  26.300  0.3019  0.0469 -0.1217
54811W        W97827  28.853  30.573  25.341  0.0883  0.3577  0.2232
54812W        W97828  31.477  10.662  15.344  0.0131  0.4365 -0.1300
54813W        W97829  16.821   1.759   2.759  0.0035  0.0884 -0.0524
54814W        W97830  18.257  17.480  15.596 -0.3424 -0.0643  0.1872
54815W        W97831  18.684   5.494   1.993 -0.2526 -0.1032 -0.1055
54816W        W97832  12.160  26.138  22.499 -0.0161 -0.0523  0.0028
54817W        W97833   9.627  27.960   8.667  0.0833  0.2414 -0.2420
54818W        W97834   3.001  28.473  20.309 -0.2208  0.4230  0.2128
54819W        W97835  18.774  15.545  25.482 -0.1633 -0.1511  0.0429
54820W        W97836  20.479   5.364   2.930 -0.4164 -0.2148  0.4659
54821W        W97837  29.361   6.852  22.255 -0.4312  0.0728  0.3227
54822W        W97838  17.186  33.356  23.012 -0.1697  0.2013  0.0675
54823W        W97839  23.228  32.695   6.385 -0.3656 -0.5366  0.0258
54824W        W97840  28.369   3.517  25.559  0.1282 -0.0240 -0.0032
54825W        W97841   5.752  30.448  23.506  0.1435  0.0574 -0.1604
54826W        W97842  31.429   4.539   8.540  0.0627 -0.2244  0.0700
54827W        W97843   8.307  27.321   6.623  0.2163  0.0025  0.0650
54828W        W97844   1.996  28.439  16.488 -0.2502  0.4477  0.1124
54829W        W97845  19.087  28.589   9.491 -0.0565  0.0998  0.0844
54830W        W97846  13.262  32.022   3.538  0.1176 -0.0437  0.2400
54831W        W97847  24.251  28.572   9.144  0.2160 -0.1541  0.3215
54832W        W97848   3.230  34.458  13.872 -0.0999 -0.3422 -0.1396
54833W        W97849   8.113  11.486  27.527  0.0252  0.0642  0.0034
54834W        W97850  23.938  31.911   5.061 -0.1095 -0.5429 -0.1003
54835W        W97851  24.587  26.579  20.431 -0.0296  0.1072  0.1503
54836W        W97852  27.154  30.717  16.257 -0.2455 -0.2955  0.4077
54837W        W97853  24.962   2.851  22.348  0.3228  0.0097  0.0354
54838W        W97854  32.488  32.115  23.936 -0.0480 -0.3737  0.1744
54839W        W97855   8.986   9.554  26.345 -0.0002 -0.0884 -0.1643
54840W        W97856   5.075  24.970   7.814 -0.2478 -0.1509 -0.1553
54841W        W97857  23.724  17.496  26.974  0.2259  0.0547  0.0197
54842W        W97858  18.771   6.065   4.316  0.2248  0.1503 -0.1088
54843W        W97859  14.560   4.123  22.472  0.4650 -0.0438  0.0484
54844W        W97860   9.829  32.818  22.447  0.0386  0.4184 -0.2599
54845W        W97861  10.471  11.115   3.364 -0.0349 -0.4596 -0.1647
54846W        W97862  20.263  13.381  20.866  0.1386 -0.2423  0.1088
54847W        W97863  27.719  34.775  23.345  0.0373 -0.0392 -0.1505
54848W        W97864   3.282   2.288  16.943 -0.0983 -0.1264  0.1705
54849W        W97865   7.837  31.071  25.637 -0.0199 -0.1844  0.2611
54850W        W97866   9.437   8.298  17.133 -0.0759 -0.2885 -0.2113
54851W        W97867   9.607   7.218   7.421  0.0944 -0.0037  0.1598
54852W        W97868   1.576  11.394  17.582  0.4205 -0.4059 -0.2203
54853W        W97869  26.293  31.940  19.002 -0.1356  0.1965 -0.0047
54854W        W97870  22.609  29.795  20.205 -0.0586  0.3151 -0.2071
54855W        W97871  13.823   8.209  19.918  0.2417 -0.2231  0.1598
54856W        W97872  26.529  32.064   3.517 -0.2291 -0.0800  0.0350
54857W        W97873  13.037  12.691   2.805  0.0887  0.1793 -0.0921
54858W        W97874   2.823   3.768  15.641 -0.0691 -0.2388  0.2191
54859W        W97875  28.162  10.433   7.081 -0.2287  0.1129 -0.0013
54860W        W97876  22.703  26.542   8.422 -0.2278  0.0475 -0.2773
54861W        W97877  18.961  17.186  13.058  0.0217 -0.1440 -0.1826
54862W        W97878  25.506   0.692   2.941  0.1801 -0.0436 -0.1972
54863W        W97879  28.650  21.026  27.169 -0.1000  0.1085  0.0291
54864W        W97880  29.878  17.512  24.010  0.3233 -0.1117  0.0761
54865W        W97881   6.407  27.057  19.068 -0.1353 -0.0228  0.3042
54866W        W97882  11.953   6.451  24.871  0.0142 -0.2305 -0.0334
54867W        W97883   1.171   0.523   0.064 -0.2019 -0.0078 -0.1586
54868W        W97884  32.170   0.824  27.648  0.0338  0.1615 -0.4159
54869W        W97885   4.294   1.830  29.129  0.2964  0.0047 -0.0041
54870W        W97886   5.770  23.218  17.526 -0.2532 -0.1365  0.2689
54871W        W97887  30.492  10.407  27.152  0.0333 -0.1405  0.2113
54872W        W97888  27.799   7.526   3.160  0.2045 -0.0558 -0.0020
54873W        W97889   2.934  32.844   0.844 -0.0715 -0.0069 -0.0261
54874W        W97890  25.174  24.045  27.464  0.2200  0.2419  0.3008
54875W        W97891  22.938   0.167   7.553  0.1897 -0.0747 -0.1233
54876W        W97892  23.331   2.791   6.375  0.2235  0.1247 -0.0101
54877W        W97893  34.131   5.321  21.039 -0.0906  0.1522  0.1062
54878W        W97894   3.690  30.108  27.559  0.1159 -0.0854  0.0498
54879W        W97895  25.458  34.686  16.034  0.0406 -0.0987 -0.1275
54880W        W97896   5.125  18.738  13.390  0.1454 -0.1043  0.1951
54881W        W97897   4.534  33.325   9.690 -0.1940  0.2187 -0.1849
54882W        W97898  12.953  26.808  25.872 -0.2174  0.0096  0.0909
54883W        W97899  28.698  26.055  24.666  0.0195  0.0158  0.1081
54884W        W97900  32.318   1.338   6.501  0.1611 -0.2316  0.1632
54885W        W97901   0.701  16.533   7.280 -0.1001  0.2476  0.2487
54886W        W97902   7.575  34.564   9.309  0.0405  0.0210 -0.2884
54887W        W97903  29.748  34.529   4.641  0.0918  0.0121 -0.0361
54888W        W97904  34.013  19.158   8.019 -0.4785  0.0947 -0.1093
54889W        W97905   5.611   4.998   5.261  0.1348 -0.2173 -0.0257
54890W        W97906  24.595  27.155  16.707  0.2167 -0.3831  0.0307
54891W        W97907  19.202   3.398  24.695 -0.1495 -0.1829  0.0187
54892W        W97908  30.403   9.747  19.864  0.2452 -0.0213 -0.3894
54893W        W97909  17.723  23.635   0.546 -0.1669 -0.0868 -0.1379
54894W        W97910   0.399  13.167   5.197 -0.2002  0.0234 -0.0528
54895W        W97911  28.347  28.534  16.384  0.0222 -0.2551  0.0968
54896W        W97912   7.725   2.673   0.835 -0.1205  0.0072 -0.0793
54897W        W97913  31.913  25.297  18.130 -0.0177 -0.1540  0.1090
54898W        W97914   5.438  33.167  19.177 -0.1159 -0.0671 -0.0125
54899W        W97915  16.435  24.548   4.752  0.0953 -0.0584 -0.0350
54900W        W97916  28.778  14.227  19.101  0.3309 -0.1314 -0.1756
54901W        W97917  27.755  30.082   3.112 -0.0234  0.1646  0.1332
54902W        W97918  28.569  29.198   5.489 -0.1430  0.2232  0.2721
54903W        W97919  11.669  13.812   4.345 -0.2582 -0.0398 -0.0867
54904W        W97920  32.496  24.848  25.039  0.1156  0.0057  0.0314
54905W        W97921  32.810  33.874  17.858 -0.2389 -0.0102  0.1761
54906W        W97922  13.649   4.621  29.238 -0.2053  0.0281 -0.1654
54907W        W97923  16.841  29.358   0.642  0.3310  0.2712  0.0507
54908W        W97924   5.282  27.166  27.758 -0.1887 -0.0594 -0.1571
54909W        W97925  27.383  21.914   6.402  0.1701  0.1682 -0.1161
54910W        W97926  24.822   1.360  10.328 -0.0352 -0.0484  0.0468
54911W        W97927  29.456   3.148  23.556 -0.0710 -0.0179 -0.0832
54912W        W97928  21.691  30.047  20.077  0.2595 -0.5211 -0.1348
54913W        W97929  20.362  18.533  22.766 -0.2075  0.0221  0.0959
54914W        W97930  15.311   4.291   8.772 -0.2339 -0.0219 -0.2204
54915W        W97931   6.342  23.290  26.534  0.3185 -0.3838 -0.0278
54916W        W97932   4.865  31.934  22.742  0.0161  0.2193 -0.0348
54917W        W97933  24.212   3.407  23.395 -0.1915 -0.1755  0.0609
54918W        W97934  20.472  31.956  19.185  0.0362  0.0709  0.1905
54919W        W97935  29.525  12.045   3.518 -0.1148  0.1780 -0.2135
54920W        W97936  16.830   7.718  24.353 -0.0541  0.0819 -0.1260
54921W        W97937  15.820  31.113  28.149  0.1709  0.0492  0.0019
54922W        W97938   7.205  12.657   7.910 -0.3490 -0.2630 -0.1914
54923W        W97939  28.300  32.577  18.516  0.1184  0.3232 -0.5587
54924W        W97940   7.115  21.806   7.233 -0.2336  0.2809  0.0169
54925W        W97941  11.839  22.358   2.737 -0.2334  0.4796  0.2673
54926W        W97942   5.374  29.770  26.732 -0.0368  0.0273  0.4031
54927W        W97943  31.983  23.067  28.864 -0.1501  0.1232  0.4037
54928W        W97944  33.274   3.323  18.253  0.1273  0.1224 -0.1702
54929W        W97945  33.174  29.921  25.201  0.1022 -0.0826  0.2294
54930W        W97946  12.177  28.272   6.828  0.1197 -0.1116 -0.0318
54931W        W97947   3.608  26.502   7.950 -0.0723 -0.1445  0.0541
54932W        W97948   9.284   4.331   9.158  0.3117  0.3075 -0.0014
54933W        W97949   2.551  21.425   8.854 -0.4742  0.1276 -0.0294
54934W        W97950  24.933  31.560  26.019 -0.1356 -0.0956  0.2547
54935W        W97951   3.900  30.585   3.577 -0.1269 -0.0981 -0.0332
54936W        W97952   3.876  30.653  21.149  0.2986  0.0771 -0.0313
54937W        W97953  25.060   9.435   4.938  0.1442  0.2874 -0.1238
54938W        W97954  13.828   8.926  26.342  0.1703 -0.0061 -0.1590
54939W        W97955   7.677  19.114   1.206  0.1288 -0.0159  0.0561
54940W        W97956  26.974  27.324  26.694  0.1340 -0.2553  0.0168
54941W        W97957  22.720  29.574   0.841 -0.3013 -0.1867 -0.0912
54942W        W97958   8.650  33.092  21.564 -0.2385  0.2159  0.4081
54943W        W97959   6.481  23.314   5.950 -0.1490  0.0136  0.4403
54944W        W97960  13.358  21.453  21.266 -0.0670 -0.2951  0.1234
54945W        W97961   0.535   0.818  22.819  0.1680 -0.3567 -0.1796
54946W        W97962  20.548  30.945   1.773 -0.1806 -0.0604 -0.0322
54947W        W97963   1.657   0.033   5.276  0.0372  0.2656 -0.0142
54948ION     NA97964  11.474   1.556  10.568 -0.0103  0.4397 -0.3662
54949ION     NA97965   6.042   1.808   9.535  0.4739 -0.1370  0.1047
54950ION     NA97966  23.958   1.257   1.954 -0.1218  0.2433 -0.0752
54951ION     NA97967   4.677   0.591   9.305  0.5319 -0.3618  0.6474
54952ION     NA97968  31.669   0.904   1.016  0.1226  0.1532 -0.3239
54953ION     NA97969  20.704  17.769  27.165 -0.5115  0.3356  0.3249
54954ION     NA97970   9.977  32.660  24.221 -0.2011  0.3693  0.5412
54955ION     NA97971   9.509  21.640   8.702 -0.5154 -0.2453 -0.5077
54956ION     NA97972  24.304  26.224   6.789 -0.2693  0.6231 -0.3345
54957ION     NA97973   4.348  12.603  28.437 -0.1189 -0.6557  0.2500
54958ION     NA97974  33.040   8.197   3.814 -0.3194 -0.4500  0.8593
54959ION     NA97975   5.590  12.618  25.355  0.2338 -0.3707  0.0356
54960ION     NA97976  22.352   3.702  10.162  0.2275 -0.0392 -0.2579
54961ION     NA97977  10.089   4.100   8.611 -0.0019 -0.2604 -0.5393
54962ION     NA97978  11.749  14.940   2.957 -0.0397 -0.5036 -0.2685
54963ION     NA97979  32.975  15.929   8.657 -0.2824 -0.3942  0.2313
54964ION     NA97980   4.326  22.527  25.413 -0.0203  0.5911  0.6953
54965ION     NA97981   3.093  17.471  20.242  0.0297 -0.1990 -0.5561
54966ION     NA97982   6.966   9.086   1.955 -0.3837 -0.4236  0.2587
54967ION     NA97983  13.679  30.942   9.307 -0.4599  0.1223 -0.5615
54968ION     NA97984  13.332  11.797   1.692  0.1303 -0.3378  0.3439
54969ION     NA97985  33.817  19.342   8.764 -0.0442 -0.0172  0.2049
54970ION     NA97986   1.806   7.636  21.988  0.3602  0.0169  0.4710
54971ION     NA97987  29.483  20.660  10.226 -0.0835  0.4459  0.0517
54972ION     NA97988   3.761  27.763  25.101  0.2525  0.1974  0.3994
54973ION     NA97989  30.478   9.628   9.741  0.3131 -0.1738 -0.0727
54974ION     NA97990  15.030   6.614  27.864  0.1661 -0.3169  0.4065
54975ION     NA97991   1.480   6.922   6.951 -0.1551 -0.5113 -0.3806
54976ION     NA97992  17.795  21.603  21.282  0.2129  0.3061  0.0709
54977ION     NA97993   9.279   9.143   6.750 -0.1371 -0.3878  0.3966
54978ION     NA97994  14.426   1.205   1.254  0.2075 -0.2117  0.2395
54979ION     NA97995  14.397   2.644   4.287 -0.5004 -0.0534 -0.1808
54980ION     NA97996   5.043   1.036  10.035 -0.2948 -0.2823 -0.1612
54981ION     NA97997   2.333  23.874  10.052  0.0729  0.0431  0.3940
54982ION     NA97998   9.747  19.619   8.802 -0.0220 -0.0696  0.0102
54983ION     NA97999  26.992  17.772   6.232 -0.1567 -0.1153 -0.0691
54984ION     NA98000  22.824  23.089   9.493  0.1643 -0.2021  0.3675
54985ION     NA98001  10.725   6.111  24.767  0.5766  0.0844  0.0422
54986ION     NA98002  32.887  12.858   0.586 -0.1191 -0.1677  0.1529
54987ION     NA98003   8.533  22.556   9.018 -0.0982  0.2528  0.3299
54988ION     NA98004   9.311  27.767  10.222  0.0239 -0.0690  0.1592
54989ION     NA98005  29.456  24.209  22.891  0.6823 -0.1820 -0.3836
54990ION     NA98006  29.518  15.916   7.210 -0.0999 -0.1204  0.1188
54991ION     NA98007  20.842   1.057   8.167 -0.2455  0.2132 -0.2100
54992ION     NA98008  12.527   4.908   9.826 -0.2858  0.0084  0.1300
54993ION     NA98009  13.162   0.979   5.562  0.6243 -0.3895  0.0781
54994ION     NA98010  24.993   0.711  11.509 -0.5796  0.5721 -0.3047
54995ION     NA98011  19.214  20.911   7.749  0.0430 -0.1401  0.0131
54996ION     NA98012  23.006   1.546   8.746  0.6072 -0.4271 -0.2566
54997ION     NA98013  24.992   7.506  14.765 -0.8257  0.2576 -0.3314
54998ION     NA98014  33.148  18.123  10.396 -0.0533 -0.5313 -0.2707
54999ION     NA98015  27.523   6.519  11.492  0.5303 -0.0318  0.2489
55000ION     NA98016  11.290   6.994   2.744 -0.6619  0.2246 -0.6157
55001ION     NA98017  28.501  29.938  10.424  0.1479  0.3155 -0.2990
55002ION     NA98018   1.059   9.934  26.390 -0.3303  0.2617 -0.2066
55003ION     NA98019  27.302  22.303  21.401  0.0401  0.3101  0.8295
55004ION     NA98020  29.466  22.880   4.641 -0.7339  0.4709 -0.4952
55005ION     NA98021   2.781  30.072  27.449 -0.1194 -0.4727  0.0240
55006ION     NA98022  19.252  13.103   7.890  0.1359 -0.2751  0.2731
55007ION     NA98023   5.864  27.583   5.261  0.0754  0.3791  0.3421
55008ION     NA98024  31.150  24.155   7.025 -0.1279 -0.5094  0.3347
55009ION     NA98025  10.940  14.057   0.211 -0.3353 -0.0668  0.0861
55010ION     NA98026  31.499   8.874   5.644  0.3433 -0.1981  0.1263
55011ION     NA98027  19.316  25.195   6.918 -0.1727 -0.2955 -0.0993
55012ION     NA98028   3.588   0.268  22.186  0.5587 -0.8884 -0.4075
55013ION     NA98029   8.805  21.752   4.316  0.3734 -0.5470  0.0191
55014ION     NA98030  21.074  13.564   8.574 -0.1372  0.2083 -0.2038
55015ION     NA98031  24.392  34.120  25.411  0.2023 -0.2563  0.8735
55016ION     NA98032  20.363   0.462   9.578  0.0831  0.2537  0.2058
55017ION     NA98033  18.748   1.358   6.259  0.1757  0.2941  0.0641
55018ION     NA98034  19.036  33.728  10.223  0.0679 -0.3504  0.0518
55019ION     NA98035  27.920  26.532  10.506  0.1042 -0.1472 -0.8102
55020ION     NA98036  25.569  27.326  10.273 -0.1966  0.2373  0.0696
55021ION     NA98037   7.735   7.670  10.373 -0.2966  0.2889  0.4835
55022ION     NA98038  25.986  16.076  13.878 -0.0306 -0.2091  0.2453
55023ION     NA98039  31.710   0.853  10.470 -0.1154 -0.0833 -0.3982
55024ION     NA98040  34.603  16.356   7.212 -0.6638  0.1109 -0.1399
55025ION     NA98041  16.227  12.075   8.281  0.0462  0.1892  0.5718
55026ION     NA98042  13.859  24.450  23.220  0.5717 -0.2815  0.1610
55027ION     NA98043   3.474  28.246  23.810  0.8911  0.1730 -0.0312
55028ION     NA98044   8.581  34.340  10.343  0.2301  0.1631 -0.1496
55029ION     NA98045  24.098   8.849   2.230  0.1748  0.1687  0.9333
55030ION     NA98046   8.406   7.657   2.754  0.2460  0.3102 -0.0975
55031ION     NA98047  22.009  31.936   7.988  0.1920  0.1336  0.1422
55032ION     NA98048  16.540  30.808   1.537 -0.4413  0.1934  0.5574
55033ION     NA98049  34.090   2.999   8.554  0.0290  0.0630  0.0176
55034ION     NA98050  16.598   5.416   1.552  0.2683  0.2684 -0.2038
55035ION     NA98051   8.463  27.761  28.942 -0.0526 -0.1645  0.1048
55036ION     NA98052   9.561  11.606  27.393  0.2008  0.0754 -0.1157
55037ION     NA98053  30.807  24.153  23.108 -0.6660 -0.4645 -0.0742
55038ION     NA98054  21.087   1.507  22.503 -0.8861 -0.0580  0.0893
55039ION     NA98055  34.078  28.047   1.506 -0.1864 -0.1337 -0.1140
55040ION     NA98056  19.701  31.021   8.042  0.0375 -0.0821  0.0940
55041ION     NA98057  18.789   5.592  26.148  0.2984  0.2747  0.0614
55042ION     NA98058  21.564   8.631   9.430  0.0563 -0.3141  0.2475
55043ION     NA98059  16.532   2.049   2.870 -0.1045  0.0657  0.3474
55044ION     NA98060   5.138  26.010   6.190  0.3354  0.0849 -0.0226
55045ION     NA98061  18.346  11.137  26.070  0.1029  0.2606  0.4791
55046ION     NA98062  13.698  13.809  26.829  0.3864 -0.1737 -0.6091
55047ION     NA98063  16.808   4.110   1.957  0.2647 -0.2836 -0.2771
55048ION     NA98064  22.670   4.480   5.162  0.5283  0.2386 -0.4132
55049ION     NA98065  24.474  21.024   6.357  0.1431 -0.2526 -0.7117
55050ION     NA98066  21.460  16.734  24.805 -0.0616  0.9024  0.3099
55051ION     NA98067  34.310   9.623   9.772  0.2737 -0.5041 -0.6207
55052ION     NA98068  10.612  32.882   9.975 -0.0067  0.5534  0.7034
55053ION     NA98069   9.647  16.823  28.477 -0.4511  0.9402 -0.1788
55054ION     NA98070   9.032   5.413   4.585 -0.6242 -0.2186  0.3414
55055ION     NA98071  15.403  15.801   1.415  0.1801 -0.3881  0.1881
55056ION     NA98072  25.015   7.084   7.477 -0.0820 -0.1401 -0.4725
55057ION     NA98073   9.999   7.485   7.767 -0.0468 -0.1451  0.7067
55058ION     NA98074  21.888  20.400  13.306 -0.1741 -0.2388 -0.6885
55059ION     NA98075  14.371  17.646  26.738 -0.2927  0.1842  0.0867
55060ION     NA98076  24.199  30.260   6.773  0.1813 -0.1859 -0.1344
55061ION     NA98077   2.625  22.037  25.410  0.0628  0.1155  0.0212
55062ION     NA98078  25.779  20.116   9.489 -0.0564  0.1051 -0.2883
55063ION     NA98079  34.771  11.797  27.631 -0.5476  0.0301 -0.0178
55064ION     NA98080  30.396  33.645  25.486  0.2456  0.0052  0.3149
55065ION     NA98081  29.867  29.229  11.845 -0.2636 -0.0321 -0.2051
55066ION     NA98082  16.349  28.494   4.701 -0.2063 -0.0887  0.2878
55067ION     NA98083  13.209   2.080  25.639 -0.0149  0.1352 -0.2817
55068ION     NA98084  16.132   0.776   9.200  0.3568 -0.6146 -0.2752
55069ION     NA98085  15.797  28.662   0.834 -0.0508  0.0813 -0.0353
55070ION     NA98086  24.402  23.157   1.835  0.3367 -0.4204 -0.4121
55071ION     NA98087  10.705  15.461   9.200 -0.0125 -0.0942 -0.3755
55072ION     NA98088  23.411  18.874  29.024  0.5247  0.3091  0.3690
55073ION     NA98089  22.750   8.830   8.953  0.1071  0.2523  0.0636
55074ION     NA98090  17.483  33.952  27.930  0.3363 -0.2796  0.2534
55075ION     NA98091   7.603   0.442   3.883  0.3249 -0.0429  0.1515
55076ION     NA98092  30.643   0.127  10.771 -0.3244 -0.1881  0.2398
55077ION     NA98093  25.315  20.199   7.574 -0.0102 -0.2066  0.3858
55078ION     NA98094   2.136  21.661  18.586 -0.0466 -0.3023 -0.0975
55079ION     NA98095  12.323  12.511   0.563  0.2866  0.1378  0.3073
55080ION     NA98096  23.383  14.510  25.859 -0.1272  0.8131  0.4884
55081ION     NA98097   9.844  26.191   4.414  0.0260  0.0109  0.2004
55082ION     NA98098  27.888  26.860  11.806 -0.1917 -0.1099 -0.1451
55083ION     NA98099  12.441   8.443   1.803 -0.3930  0.1593  0.8653
55084ION     NA98100   0.280  16.213  10.757  0.4073 -0.3995  0.7095
55085ION     NA98101  27.618  15.176   0.845  0.0961  0.0822 -0.3581
55086ION     NA98102  17.256  17.288  28.808 -0.0649 -0.5837  0.0799
55087ION     NA98103   0.885  25.262   5.329 -0.2524 -0.4611 -0.0116
55088ION     NA98104  32.114  31.738   6.327  0.4697  0.1449  0.0804
55089ION     NA98105   5.575  19.415   1.219 -0.3204 -0.0962 -0.3846
55090ION     NA98106  12.437   9.896  26.310  0.0819  0.3295  0.1281
55091ION     NA98107  18.180  22.865   8.816 -0.3622 -0.0883 -0.2296
55092ION     NA98108   3.656  12.441   9.886 -0.0651 -0.7845  0.9240
55093ION     NA98109   3.986  28.980  27.540 -0.7698 -0.0418 -0.1548
55094ION     NA98110  18.736  10.212   3.267  0.0340  0.2534 -0.1205
55095ION     NA98111  22.415  21.260   0.408  0.1775  0.4192  0.0020
55096ION     NA98112  29.657  24.622  28.278 -0.1386  0.0116 -0.0623
55097ION     NA98113   1.632  28.994  26.757 -0.1665 -0.1126 -0.2812
55098ION     NA98114  31.137  30.184  26.867  0.0509 -0.4345  0.3614
55099ION     NA98115  12.573  19.531  20.303  0.8038  0.1060  0.2557
55100ION     NA98116   3.695  32.704   4.908  0.0608 -0.2313  0.0877
55101ION     NA98117  15.947   2.232  23.511  0.4540 -0.1428  0.2351
55102ION     NA98118   0.918  26.718  10.314  0.2496 -0.5759 -0.2922
55103ION     NA98119  23.383  32.024  10.942  0.0651 -0.1404  0.1397
55104ION     NA98120  23.711  24.847   0.257  0.3194  0.1509 -0.9292
55105ION     NA98121  22.299  25.364   7.968 -0.3582 -0.0166  0.1513
55106ION     NA98122   9.571  34.601  18.772 -0.6898  0.2237 -0.2195
55107ION     NA98123  18.039  10.725   1.787 -0.1033  0.1870 -0.0568
55108ION     NA98124  16.469   4.855   5.713 -0.4134 -0.0665  0.3345
55109ION     NA98125  34.376  24.762  10.524 -0.0798 -0.1680 -0.2285
55110ION     NA98126   5.482   0.665  29.155 -0.3746  0.2745  0.4408
55111ION     NA98127  14.184  20.834   8.320 -0.0298  0.2615  0.5459
55112ION     NA98128   8.436  34.005  25.429  0.1716  0.2390  0.3151
55113ION     NA98129  10.224   5.625  25.703 -0.0635  0.0109 -0.1456
55114ION     NA98130  31.858  22.032   7.194  0.4278 -0.6093  1.1139
55115ION     NA98131   7.522   7.677  22.544  0.7202 -0.1370  0.0599
55116ION     NA98132   3.400  11.022  10.359  0.2070 -0.2606 -0.2194
55117ION     NA98133   1.870  26.118   0.892  0.1456 -0.4370  0.4753
55118ION     NA98134  26.654  27.440   6.594 -0.0435 -0.2311  0.3209
55119ION     NA98135  30.730   3.287  20.101  0.4066 -0.4034  0.2135
55120ION     NA98136  19.603  24.588   8.765 -0.2864  0.0524  0.2362
55121ION     NA98137  29.901  29.758   8.766 -0.0417 -0.1357  0.1841
55122ION     NA98138  24.240  32.131   0.935 -0.0886 -0.1514 -0.0720
55123ION     NA98139  33.209  21.154   5.040  0.0850  0.2957  0.3439
55124ION     NA98140  18.541  24.871   8.375  0.0227  0.2322 -0.3325
55125ION     NA98141  24.559  28.323   4.697  0.4782  0.1642  0.1484
55126ION     NA98142  21.395   4.894   4.662  0.2943 -0.6004  0.5465
55127ION     NA98143  18.796  27.872   1.732 -0.0341 -0.3739 -0.5380
55128ION     NA98144  27.422  11.777  21.615 -0.0778  0.7369  0.0961
55129ION     NA98145  24.506   2.314  27.109 -0.0552  0.2173  0.5660
55130ION     NA98146   3.729   9.141  24.513  0.0113 -0.3056  0.0346
55131ION     NA98147  18.291  11.228   8.664  0.1997 -0.0212  0.0762
55132ION     NA98148   8.799  33.636   3.368 -0.5073 -0.2037 -0.0784
55133ION     NA98149  27.363   2.181  15.614 -0.5523  0.8446 -0.0065
55134ION     NA98150  26.613  32.423   9.200 -0.5550 -0.1206  0.3187
55135ION     NA98151  25.787  24.866  10.176 -0.2925 -0.1620 -0.3294
55136ION     NA98152  12.541  34.326   6.056 -0.0238  0.4521  0.3152
55137ION     NA98153  19.475  19.144  27.629  0.1642 -0.0031  0.2276
55138ION     NA98154   1.064  12.989  26.433  0.3450 -0.5180 -0.0481
55139ION     NA98155  20.454  20.798   9.231 -0.1856  0.1495 -0.0259
55140ION     NA98156  27.064  19.177   7.235  0.2683 -0.6385  0.2915
55141ION     NA98157  11.790  33.748   5.908 -0.1718  0.1506 -0.1015
55142ION     NA98158   4.295   1.212   6.529  0.1946  0.1684 -0.2388
55143ION     NA98159  24.663  30.806  29.191 -0.2722 -0.4922 -0.0704
55144ION     NA98160  24.829  10.616   9.852 -0.1817 -0.2150  0.4837
55145ION     NA98161  29.249  21.084   1.297 -0.0894  0.0832 -0.2806
55146ION     NA98162   3.364  10.584   6.487 -0.0636  0.0199  0.3402
55147ION     NA98163  28.716  16.156   8.312  0.1386  0.2734  0.0500
55148ION     NA98164  10.678  21.855   8.630  0.1612 -0.3405  0.0501
55149ION     NA98165   7.733  27.989   9.693  0.1402  0.3222  0.1316
55150ION     NA98166  12.205  27.020   8.299  0.0795 -0.1755  0.1642
55151ION     NA98167  27.773   0.089   6.222 -0.3688  0.1050  0.0475
55152ION     NA98168  21.512  24.950   9.479 -0.4378  0.1448 -0.2074
55153ION     NA98169  13.719  31.978   7.555  0.0564 -0.0150 -0.1578
55154ION     NA98170  22.856   1.229  11.045 -0.0065  0.2497  0.1304
55155ION     NA98171  33.683   0.650  10.113 -0.0886 -0.5740  0.0913
55156ION     NA98172  28.334  24.992  28.553  0.6932 -0.3909 -0.0296
55157ION     NA98173  12.455   2.453   3.524 -0.0324 -0.0346  0.2627
55158ION     NA98174   6.341  10.020   4.098  0.6504  0.6374  0.1530
55159ION     NA98175  31.581  21.580   9.767 -0.6280 -0.4989  0.0530
55160ION     NA98176   8.002  19.149   8.863 -0.2682 -0.7059 -0.0182
55161ION     NA98177  30.908   0.736  10.671  0.0120 -0.2338  0.2173
55162ION     NA98178  11.392  27.495  28.095 -0.3762  0.1556 -0.6512
55163ION     NA98179  18.213  30.643  11.191 -0.2107  0.2886 -0.3660
55164ION     NA98180  28.437  15.590   2.627 -0.3556  0.2615 -0.7019
55165ION     NA98181  30.463  29.787  11.579  0.3677 -0.0015 -0.4189
55166ION     NA98182   2.672  29.254   3.682  0.3101 -0.3266  0.2753
55167ION     NA98183  33.683  26.038   7.785  0.0317  0.3232 -0.0326
55168ION     NA98184   4.023  12.471  19.186 -0.3124  0.3755 -0.4527
55169ION     NA98185  14.581   4.968  10.037  0.1004  0.1552  0.4180
55170ION     NA98186  16.813  30.823   9.466 -0.1567 -0.0789 -0.3930
55171ION     NA98187  17.034  16.312   3.197 -0.5999  0.4902  0.5669
55172ION     NA98188  17.403  11.215  24.666  0.3481  0.6669  0.1545
55173ION     NA98189  11.834  28.138   1.739 -0.5041 -0.3618  0.3872
55174ION     NA98190   9.320  15.613   7.913  0.2852  0.0734  0.2887
55175ION     NA98191  19.423   9.931  24.503  0.0313 -0.6434 -0.3338
55176ION     NA98192   8.011   9.026   9.968 -0.2883 -0.1290  0.6476
55177ION     NA98193  18.978   5.905   7.669  0.1523  0.4459 -0.2947
55178ION     NA98194  20.701  29.167   5.571  0.3457  0.1841 -0.2286
55179ION     NA98195  10.782  24.205   8.466 -0.2961  0.3897  0.1221
55180ION     NA98196  33.469  23.363   9.186  0.0964 -0.0449  0.2493
55181ION     NA98197  29.327  16.312   6.257  0.1454 -0.5474  0.1743
55182ION     NA98198   6.679  15.240   8.685 -0.3087 -0.0176  0.0227
55183ION     NA98199  26.042  15.096   4.911 -0.2776 -0.1971  0.1481
55184ION     NA98200   4.983   5.428   2.623  0.3777  0.2301 -0.2431
55185ION     NA98201  25.819   4.332  10.553 -0.2202 -0.4163 -0.0539
55186ION     NA98202  34.583  11.912  28.397 -0.3913  0.0222  0.3310
55187ION     NA98203  32.758   4.364   3.199  0.0414  0.1898  0.0598
55188ION     NA98204  31.557  16.580  15.657 -0.4638  0.3104 -0.2579
55189ION     NA98205  22.983  22.227  26.600  0.4124  0.2555 -0.0554
55190ION     NA98206  33.825  16.591  19.466 -0.3479  0.1910  0.2577
55191ION     NA98207   8.810  14.051   0.672 -0.3957 -0.3245  0.3487
55192ION     NA98208   2.253  11.168  29.146 -0.0466  0.0349 -0.5675
55193ION     NA98209   9.865   0.445   9.889  0.1229  0.2671  0.3715
55194ION     NA98210  33.825  10.731  29.316 -0.4854  0.0988 -0.1271
55195ION     NA98211  17.355  27.645  10.241  0.1597  0.2498  0.3391
55196ION     NA98212   3.133  12.092   6.238 -0.0298  0.4839 -0.2731
55197ION     NA98213  22.065  34.582   6.396  0.1329  0.1294  0.7847
55198ION     NA98214   6.980   3.740   6.980 -0.3041 -0.0599 -0.3317
55199ION     NA98215   8.311  11.222  27.830 -0.3891  0.1135 -0.4839
55200ION     NA98216  27.118  18.634  22.652 -0.1275 -0.1204  0.3156
55201ION     NA98217  32.472  16.889  10.793 -0.4002 -0.1147  0.3075
55202ION     NA98218  16.632   9.034   3.530  0.3332  0.2286  0.1353
55203ION     NA98219  20.887  27.822   6.300 -0.3198 -0.3126 -0.1367
55204ION     NA98220  29.451  28.938   7.846 -0.6057 -0.1807 -0.3501
55205ION     NA98221  12.661   3.957   2.148 -0.5632 -0.6774  0.3748
55206ION     NA98222  24.462  20.135  18.816 -0.0348 -0.3710  0.1134
55207ION     NA98223  12.830  25.801   3.531 -0.1610  0.1572 -0.3491
55208ION     NA98224  11.950   1.308  27.824  0.2162 -0.2619  0.0332
55209ION     NA98225  34.084  32.392  10.923  0.0308  0.0663 -0.1960
55210ION     NA98226  15.947  15.014  20.743 -0.1315 -0.3099  0.0146
55211ION     NA98227  10.724  20.641   2.023 -0.0256  0.4147 -0.1697
55212ION     NA98228   6.812   5.456   1.863  0.6048 -0.2072  0.2079
55213ION     NA98229  19.169  30.453   3.873  0.0816 -0.1863  0.1760
55214ION     NA98230  17.669  14.174  23.258 -0.2652  0.2648 -0.2040
55215ION     NA98231  26.932  11.244   6.978 -0.4361  0.5066  0.5487
55216ION     NA98232   8.476  15.454   7.271 -0.2648 -0.3908 -0.0544
55217ION     NA98233  24.476  34.253  23.449 -0.9161 -0.1894 -0.1948
55218ION     NA98234   8.712   8.504   6.694 -0.1670  0.1365 -0.4643
55219ION     NA98235   9.550   1.717  24.007 -0.2763 -0.0343 -0.6019
55220ION     NA98236  24.706  27.428  11.271  0.1216 -0.2900  0.1623
55221ION     NA98237   8.719  25.452  24.488  0.2697  0.1818  0.1256
55222ION     NA98238  28.165  22.995  10.848  0.4475 -0.2217 -0.1175
55223ION     NA98239  22.129   2.245  24.706  0.3760 -0.0634  0.1270
55224ION     NA98240  29.653  21.340  11.154  0.0324 -0.3406 -0.3172
55225ION     NA98241  18.348   7.042   0.919  0.1698  0.7209  0.1845
55226ION     NA98242   5.002  30.604   1.044 -0.1098 -0.4618 -0.1109
55227ION     NA98243  32.774   4.199  23.035  0.2099  0.1185  0.0408
55228ION     NA98244  18.151   4.616  10.230 -0.1565 -0.4063 -0.4745
55229ION     NA98245  14.581  28.288  28.301 -0.6340 -0.7302  0.3313
55230ION     NA98246  31.549  26.734  26.960  0.1621  0.3277  0.0967
55231ION     NA98247  15.142   2.153   9.786  0.1767 -0.0877  0.3278
55232ION     NA98248  10.106  14.543   3.921  0.3471  0.0961 -0.0999
55233ION     NA98249   7.440  15.781   6.963  0.0993 -0.3171  0.5197
55234ION     NA98250  23.023  13.804   4.374  0.0818  0.1003  0.6419
55235ION     NA98251  19.018  19.068  25.409  0.0543 -0.4872  0.0593
55236ION     NA98252  18.840   8.103   9.365  0.6566 -0.5883 -0.0552
55237ION     NA98253  14.609   7.011   5.248 -0.0775  0.4395  0.3102
55238ION     NA98254   1.538  23.077   9.841  0.0145 -0.2418 -0.0003
55239ION     NA98255  11.490  10.835   9.716  0.0352 -0.0153 -0.1838
55240ION     NA98256   3.914  34.032  19.083  0.4879 -0.0308 -0.1662
55241ION     NA98257  26.900  12.988   4.914  0.3427  0.7919 -0.4820
55242ION     NA98258  15.049  10.244  25.676 -0.3730  0.8614  0.0543
55243ION     NA98259  26.032  25.277  11.453  1.0600 -0.1264  0.1213
55244ION     NA98260  12.747  33.859  27.247 -0.2341  0.6597  0.3571
55245ION     NA98261  15.172  24.030   4.877  0.2694  0.0932  0.3829
55246ION     NA98262  23.434  33.086  24.172  0.2764  0.2755 -0.0093
55247ION     NA98263   7.404  13.133  26.766  0.2005  0.4600  0.6851
55248ION     NA98264  33.526  18.487   3.656  0.5378  0.0409  0.2657
55249ION     NA98265   3.636   8.377   8.341  0.6577  0.2198 -0.2962
55250ION     NA98266  22.158  29.454   3.318 -0.0641 -0.6383 -0.1293
55251ION     NA98267  14.620  18.741  25.258  0.0825  0.3067  0.1139
55252ION     NA98268  24.807  21.500  27.030 -0.2327  0.1345 -0.2223
55253ION     NA98269   6.960   6.968   6.970  0.1932  0.0879 -0.0990
55254ION     NA98270   9.430   3.085   3.038  0.2090 -0.2260 -0.5176
55255ION     NA98271  25.280  23.018  10.734  0.0355 -0.0554  0.3417
55256ION     NA98272   8.141   6.820   0.441  0.0858 -0.0692  0.3326
55257ION     NA98273  17.817  31.393   3.761 -0.7245 -0.1035 -0.5863
55258ION     NA98274  19.681  30.163  28.456  0.4922 -0.2477  0.6036
55259ION     NA98275  23.734  31.253  11.247 -0.1625  0.0077 -0.7922
55260ION     NA98276   2.060  29.417  26.667 -0.2368  0.2524 -0.0013
55261ION     NA98277  22.311   5.934  14.728 -0.3311  0.3016  0.2175
55262ION     NA98278  13.747  33.907   5.187  0.0042 -0.3396  0.1951
55263ION     NA98279   9.214  15.316   2.849  0.0702  0.5867  0.0086
55264ION     NA98280  31.821   5.828  27.193  0.3868 -0.1502  0.2551
55265ION     NA98281  28.952  29.291  10.590  0.2518  0.4384 -0.0442
55266ION     NA98282  18.646  18.406  27.642 -0.1793  0.2015 -0.1693
55267ION     NA98283   0.250  29.495   8.707 -0.2454 -0.0116 -0.1714
55268ION     NA98284   9.869   8.672  13.854  0.0546 -0.1117  0.0795
55269ION     NA98285  32.394   9.144   9.956 -0.4143  0.3259 -0.2067
55270ION     NA98286  26.649   5.405  10.592 -0.5065 -0.0022  0.2092
55271ION     NA98287  19.019  26.159   9.820  0.1043 -0.1692  0.3608
55272ION     NA98288  34.536   6.135  28.673  0.3830  0.4077  0.0729
55273ION     NA98289  13.582  11.229  28.956 -0.1675 -0.0452 -0.8172
55274ION     NA98290   6.573   2.944  28.159  0.4010 -0.3139 -0.3002
55275ION     NA98291   2.335   8.515   4.337 -0.1043 -0.0667  0.2988
55276ION     NA98292  23.761   6.225   6.159 -0.9415 -0.0526  0.2479
55277ION     NA98293  10.737  22.493   1.896  0.4575 -0.5229 -0.4203
55278ION     NA98294  10.597  24.107  22.334  0.3124 -0.0051  0.3739
55279ION     NA98295   0.542  34.231  21.753  0.1133 -0.2500 -0.0882
55280ION     NA98296   7.965  30.848  28.405  0.0713  0.1910 -0.0607
55281ION     NA98297  19.334   7.202   4.578 -0.0799 -1.1055  0.2765
55282ION     NA98298   7.869  11.366   4.807  0.4260 -0.4276  0.3780
55283ION     NA98299  12.891   3.013   8.556 -0.1729  0.0560  0.1163
55284ION     NA98300  13.695  15.593   1.213 -0.0229  0.6411 -0.4277
55285ION     NA98301  32.798  11.796   4.911  0.1551 -0.3595 -0.6992
55286ION     NA98302  33.353  15.904   0.072  0.5444  0.0702  0.0321
55287ION     NA98303   2.660   5.909   1.759  0.1821 -0.3972  0.0865
55288ION     NA98304   0.773  34.650   8.289 -0.0004 -0.4042  0.1199
55289ION     NA98305  15.934  11.152   6.551  0.4069 -0.1195  0.1170
55290ION     NA98306  26.058  13.105   3.598  0.3179  0.0835 -0.1379
55291ION     NA98307  33.686   7.069   3.971  0.1303  0.3368  0.0330
55292ION     NA98308  22.677   8.185  19.474 -0.3172 -0.1368  0.0839
55293ION     NA98309  10.739  21.878  17.691 -0.0961 -0.1389  0.2941
55294ION     NA98310   5.229  28.053  22.946  0.4411  0.0676 -0.2745
55295ION     NA98311  14.503  18.841  19.218  0.6016 -0.3054  0.0833
55296ION     NA98312   9.850  19.705  14.025  0.2041  0.0212 -0.3037
55297ION     NA98313  32.535  33.590  21.466  0.2147 -0.1063 -0.0890
55298ION     NA98314  21.263   2.926  22.568 -0.3711  0.2479 -0.1834
55299ION     NA98315  17.597  20.813   4.961  0.0660 -0.1991  0.3473
55300ION     NA98316   8.063  32.408   5.185 -0.3998 -0.0159 -0.1699
55301ION     NA98317  34.453  14.508   2.009 -0.2955 -0.3905  0.3564
55302ION     NA98318  29.962  26.053   9.989  0.3273  0.8101  0.2898
55303ION     NA98319  16.504  14.025  23.248 -0.2607 -0.2505  0.2911
55304ION     NA98320  28.895  22.870  11.276  0.0683  0.3827  0.1092
55305ION     NA98321  21.509  26.290  19.722  0.2295 -0.0850  0.0349
55306ION     NA98322  32.405  13.459   3.906 -0.1065 -0.0516  0.2683
55307ION     NA98323  33.602  14.481   6.843  0.2083 -0.1478 -0.5475
55308ION     NA98324   5.876  25.147   4.312  0.3658  0.0566 -0.5015
55309ION     NA98325  13.053  23.712  23.841 -0.0884  0.2117  0.2159
55310ION     NA98326  22.891   2.151   9.560  0.0868  0.1260  0.2845
55311ION     NA98327   2.335  23.372  21.652 -0.0951  0.0075  0.0472
55312ION     NA98328  27.882  27.832  19.344  0.5478 -0.2959 -0.5867
55313ION     NA98329  28.369   4.411   8.568 -0.1096  0.1308  0.0460
55314ION     NA98330  18.474  19.654   8.645 -0.4234  0.5652 -0.8625
55315ION     NA98331   5.443  29.122   6.257 -0.1985 -0.1649 -0.3518
55316ION     NA98332  24.042  24.201  15.633  0.2528 -0.7560 -0.0180
55317ION     NA98333  26.509   2.881  10.317  0.3268 -0.1616  0.4440
55318ION     NA98334  14.601  28.810   5.598 -0.2043  0.1566  0.3367
55319ION     NA98335   9.987  24.825  25.369 -0.0726 -0.3140 -0.1565
55320ION     NA98336  12.505   8.345   5.705 -0.0758  0.0589  0.1205
55321ION     NA98337  31.393  28.518   2.326  0.3289  0.4636  0.3481
55322ION     NA98338   5.522   3.802  10.167  0.0890  0.1912 -0.0108
55323ION     NA98339  30.377   7.714  10.601 -0.1798 -0.0079 -0.2695
55324ION     NA98340  32.049   5.400  25.666 -0.0907  0.0907  0.2344
55325ION     NA98341   3.579   7.389   9.362 -0.4187  0.1125 -0.1043
55326ION     NA98342  10.808   0.233   6.767  0.2696 -0.2770  0.3669
55327ION     NA98343   3.185  26.995   9.809  0.2087 -0.1738  0.2395
55328ION     NA98344  18.926  28.203   9.553 -0.1371  0.1096 -0.2943
55329ION     NA98345   7.531  18.309   1.351 -0.1601  0.0669  0.6167
55330ION     NA98346  11.868  17.661   4.492 -0.1815 -0.2226 -0.0529
55331ION     NA98347  18.946  13.454   0.631  0.6189  0.0958 -0.2519
55332ION     NA98348  28.592   8.323  11.381  0.7528  0.2774  0.0893
55333ION     NA98349  10.407  27.365  18.804  0.0507 -0.6428  0.1578
55334ION     NA98350  27.862  15.267   9.462 -0.0214  0.0289  0.0553
55335ION     NA98351  30.506   0.363   6.728  0.1865 -0.2411  0.0672
55336ION     NA98352  17.587  15.974  27.917 -0.4124  0.2421 -0.1603
55337ION     NA98353  25.013  10.364  10.615  0.3650  0.3102 -0.0550
55338ION     NA98354   5.336   6.995   0.249 -0.5265 -0.3282  0.0555
55339ION     NA98355  20.487  16.680  23.918 -0.3158 -0.2144 -0.1816
55340ION     NA98356  13.370  11.758   3.290 -0.3653  0.0212  0.5848
55341ION     NA98357   6.387  28.341   4.292  0.3484  0.1200  0.2123
55342ION     NA98358  12.517  13.079   8.418  0.3141  0.3236  0.4424
55343ION     NA98359   5.534  11.550   2.838 -0.0825 -0.4806 -0.0509
55344ION     NA98360  30.712   3.282   0.426  0.4462  0.9634 -0.2509
55345ION     NA98361  18.160   9.473  28.374 -0.5922 -0.0361 -0.0587
55346ION     NA98362   1.840   9.655   9.215  0.3067  0.1749  0.5491
55347ION     NA98363   7.134  11.925  20.934 -0.4089  0.1838  0.4421
55348ION     NA98364   8.089  23.542   5.587  0.2372  0.1071  0.1155
55349ION     NA98365   4.819  19.559  20.828 -0.4127 -0.3232  0.3971
55350ION     NA98366  16.164   6.554   0.458 -0.2773 -0.2203  0.4644
55351ION     NA98367  30.519   1.033  22.207  0.0728 -0.4189  0.0264
55352ION     NA98368  32.249   1.457  10.320  0.4562  0.3732 -0.3502
55353ION     NA98369  26.592   6.671  24.163 -0.1850 -0.0690  0.4953
55354ION     NA98370  27.988  14.203   6.592 -0.0030  0.2860  0.0330
55355ION     NA98371  14.247  33.389  22.867  0.7109  0.0790  0.1546
55356ION     NA98372  16.691  30.970   3.452 -0.9698  0.3340  0.2713
55357ION     NA98373  24.358  12.968  24.441  0.2170  0.3738 -0.2072
55358ION     NA98374  27.196  28.265   6.946 -0.7452 -0.4970 -0.5167
55359ION     NA98375   2.312  20.776   5.717  0.1029 -0.7121  0.0362
55360ION     NA98376  34.148  12.200  25.989 -0.0135  0.4843 -0.2870
55361ION     NA98377  28.244   0.384   2.711  0.0350  0.4292  0.1640
55362ION     NA98378  32.658  19.376  21.815 -0.1036  0.0685 -0.2458
55363ION     NA98379   2.052  29.316   9.499 -0.1019  0.6760 -0.3376
55364ION     NA98380   1.185   1.504   1.014 -0.6770  0.0076 -0.4921
55365ION     NA98381  25.277   1.396   2.360 -0.1227 -0.1739 -0.2338
55366ION     NA98382  13.132  17.700  24.060 -0.2657  0.0099  0.1820
55367ION     NA98383  29.713  22.924   1.974  0.0437 -0.1062 -0.1262
55368ION     NA98384  28.868  17.668   1.943  0.3986 -0.0292 -0.2146
55369ION     NA98385   1.564  27.941   9.784  0.5482 -0.0082  0.3040
55370ION     NA98386  12.213   0.878  21.827 -0.2952 -0.8146 -0.3795
55371ION     NA98387   1.172  29.204  20.022  0.0407 -0.1684 -0.2026
55372ION     NA98388  11.480  30.829   2.400 -0.2888  0.2508  0.0904
55373ION     NA98389  13.970   0.662  10.358 -0.0415  0.3852 -0.1551
55374ION     NA98390  19.218   1.374  10.130 -0.1841  0.3752  0.0531
55375ION     NA98391  32.691  24.083  26.013  0.3921  0.1808 -0.1195
55376ION     NA98392  33.067  10.071  10.342  0.5387  0.1132  0.4264
55377ION     NA98393   1.946  24.146   3.770 -0.0351  0.5258 -0.4011
55378ION     NA98394  19.620  22.917   6.717 -0.2188 -0.1293 -0.0133
55379ION     NA98395  15.626  11.512  25.169 -0.1083  0.2160  0.0819
55380ION     NA98396  11.329  34.726  25.427  0.0666 -0.5021 -0.1961
55381ION     NA98397  11.470  14.931  22.464  0.0978 -0.2533  0.3443
55382ION     NA98398   1.382   3.199  10.220 -0.0752 -0.3934 -0.1001
55383ION     NA98399   9.523  14.983   8.765 -0.1278 -0.1746 -0.0569
55384ION     NA98400  16.450   3.138   0.885 -0.0883  0.4246 -0.1573
55385ION     NA98401  32.064  29.648  11.248 -0.3027  0.1772 -0.5478
55386ION     NA98402  23.936  19.797  28.488  0.0587 -0.2873 -0.1996
55387ION     NA98403  32.761  23.490  26.993  0.1769  0.2105  0.2632
55388ION     NA98404  23.311   8.065  27.899 -0.0256  0.3316  0.5345
55389ION     NA98405  10.569  29.673   9.700  0.1088  0.2197  0.3504
55390ION     NA98406  21.450   4.466  10.390 -0.1177 -0.0233  0.1566
55391ION     NA98407   5.973  28.452   6.370  0.4587 -0.0712 -0.2887
55392ION     NA98408   9.440   9.538   9.065  0.0115  0.3331  0.7031
55393ION     NA98409  26.350  25.354  16.973  0.3726 -0.2405 -0.0639
55394ION     NA98410  25.364  23.451   8.061  0.1789  0.5114 -0.1008
55395ION     NA98411  21.209   3.135   9.521 -0.0933 -0.2660  0.0208
55396ION     NA98412  34.036  14.050   8.907 -0.5644 -0.2989  0.4249
55397ION     NA98413   4.401  29.202   8.819 -0.2055  0.0309  0.1383
55398ION     NA98414  26.923  18.615  24.613  0.0327  0.3208 -0.5074
55399ION     NA98415  32.719  22.156   9.081 -0.2485  0.0593 -0.0745
55400ION     NA98416  13.610   1.951   8.774  0.1793 -0.4140 -0.5478
55401ION     NA98417   1.875  17.734  15.869 -0.3352  0.0174  0.0219
55402ION     NA98418  15.143  14.787   8.104  0.1693 -0.0264 -0.0270
55403ION     NA98419  15.351  26.358  27.358  0.2165 -0.3008  0.2113
55404ION     NA98420  11.184   0.306   6.164 -0.0699  0.3038 -0.1718
55405ION     NA98421  26.956  27.939   9.748  0.3579 -0.0271 -0.7118
55406ION     NA98422   0.546   2.855  22.720 -0.0252 -0.4651  0.1969
55407ION     NA98423   4.567   7.045   3.563 -0.2540  0.0542  0.3794
55408ION     NA98424  11.953  32.551   4.174  0.0170  0.5282 -0.1846
55409ION     NA98425  33.832  13.779  10.539  0.5127 -0.3368  0.0671
55410ION     NA98426  17.465   3.806   7.011 -0.7114  0.3946  0.0117
55411ION     NA98427  25.991   1.303  24.471  0.3559  0.0904  0.0057
55412ION     NA98428   4.591   4.299  26.257 -0.1143 -0.1163  0.0417
55413ION     NA98429   3.059  11.091   4.624  0.1043 -0.1887  0.5534
55414ION     NA98430  11.537  12.022  28.072  0.0269 -0.1030  0.5749
55415ION     NA98431  18.745  13.304  26.706  0.3388 -0.5381 -0.3282
55416ION     NA98432   6.167  30.343   7.450 -0.6064  0.0203 -0.0617
55417ION     NA98433  18.362  32.753  10.850  0.1444 -0.0516 -0.2265
55418ION     NA98434   0.982  30.327  28.772  0.1700 -0.2703 -0.3166
55419ION     NA98435   8.152  31.661   3.254 -0.5187 -0.6458 -0.1491
55420ION     NA98436   1.487  21.728   6.847  0.1708 -0.1067 -0.3326
55421ION     NA98437   8.187  17.330   7.363  0.7416  0.2437 -0.0585
55422ION     NA98438  25.071   2.741   9.656 -0.1806 -0.3411  0.3443
55423ION     NA98439  33.909   2.405   9.804 -0.0406 -0.4624 -0.0670
55424ION     NA98440  24.555  11.011   8.760  0.9082 -0.1813  0.0846
55425ION     NA98441   7.522  13.490   9.491  0.0472  0.1735 -0.0607
55426ION     NA98442  20.971   9.465   1.709  0.8034  0.5100 -0.1238
55427ION     NA98443  14.981  18.976   5.129 -0.2607  0.2512 -0.2918
55428ION     NA98444  12.766  16.999  25.066 -0.2294  0.0169 -0.5152
55429ION     NA98445  31.380  26.625   3.378  0.0311  0.5030  0.5016
55430ION     NA98446  21.732   5.355  25.949 -0.3962 -0.5107 -0.5125
55431ION     NA98447  10.782  31.533   1.597  0.3054 -0.0576  0.6723
55432ION     NA98448  22.778  18.399  18.549 -0.5065  0.0054  0.5827
55433ION     NA98449  31.711  19.885  10.876 -0.4272 -0.4334 -0.3856
55434ION     NA98450  30.125  24.455  29.004  0.3702  0.0789  0.0468
55435ION     NA98451  26.944  30.635  29.129  0.0774 -0.2762  0.2741
55436ION     NA98452  21.990  34.163   9.617 -0.2763  0.0798  0.1303
55437ION     NA98453  33.560   7.931   2.292 -0.3627 -0.4895 -0.0901
55438ION     NA98454  16.685  28.614  24.479  0.2547 -0.1743 -0.2066
55439ION     NA98455  27.811  24.887   7.735  0.6898  0.4017 -0.1884
55440ION     NA98456   8.206  34.635   9.725  0.0520  0.2254 -0.0524
55441ION     NA98457  31.337  33.137  28.274 -0.1494 -0.1213  0.1470
55442ION     NA98458   1.621  32.524   9.609  0.0973  0.5150 -0.3357
55443ION     NA98459  24.316  13.522   3.068 -0.4169 -0.0940  0.1924
55444ION     NA98460  28.015   2.698  26.490 -0.4209  0.0592 -0.0486
55445ION     NA98461  12.747  32.425   6.558  0.1293  0.4733  0.1840
55446ION     NA98462  10.118  27.845  10.209 -0.0226 -0.0212  0.3575
55447ION     NA98463   5.056  20.766   0.051  0.6640 -0.2210  0.4966
55448ION     NA98464  13.261   0.400   9.454  0.0425 -0.0366 -0.0975
55449ION     NA98465   7.841   0.053  10.585  0.0467  0.1995  0.0520
55450ION     NA98466  30.900  17.610   5.285 -0.0910 -0.5532  0.2252
55451ION     NA98467  14.965  21.837  22.599  0.1971  0.3108  0.1377
55452ION     NA98468  21.896   7.748   8.274  0.3253 -0.5414 -0.5034
55453ION     NA98469   9.785   8.131  24.417  0.4392 -0.5040 -0.4384
55454ION     NA98470   5.759  16.334  16.852 -0.2625 -0.5348  0.5566
55455ION     NA98471   4.384  21.668   6.095  0.2265  0.4893 -0.1698
55456ION     NA98472  12.907  13.924  12.376 -0.0180  0.2617 -0.1080
55457ION     NA98473  17.147   1.994  10.095  0.3594  0.2769  0.3785
55458ION     NA98474  24.401  17.548  24.010  0.2808 -0.0778  0.5237
55459ION     NA98475  30.860  15.843   7.422 -0.4555  0.0982 -0.5516
55460ION     NA98476  19.390   9.175  25.840  0.2245  0.2669  0.3572
55461ION     NA98477  21.171  32.636   7.508 -0.0454  0.3963  0.4003
55462ION     NA98478  19.799  26.421   9.797  0.2617  0.0477  0.0661
55463ION     NA98479   1.862  13.421  28.482 -0.0542 -0.5384  0.4287
55464ION     NA98480  19.681  31.328  27.800  0.1006  0.2538  0.2343
55465ION     NA98481  33.974  27.131   1.163 -0.0971 -0.1698  0.2139
55466ION     NA98482  33.813  12.322  25.397  0.5963 -0.0371 -0.3408
55467ION     NA98483  28.892   9.665  10.457  0.1663 -0.7334  0.2612
55468ION     NA98484  29.171   0.953  23.485 -0.1132 -0.3755  0.3670
55469ION     NA98485   2.103  17.385   5.827 -0.4761  0.6114  0.1060
55470ION     NA98486   0.119  19.273   8.876  0.3469  0.2385  0.6136
55471ION     NA98487  20.424  27.259  27.428 -0.7517  0.2145 -0.0242
55472ION     NA98488  18.903  11.480   8.120  0.1065  0.3882 -0.1859
55473ION     NA98489   8.962  32.756   9.193  0.6141  0.3311  0.0592
55474ION     NA98490   8.658   6.718   7.722  0.0870  0.2062 -0.8028
55475ION     NA98491   4.095  17.005  25.920 -0.5967  0.0083  0.0805
55476ION     NA98492  13.529   3.527  23.462 -0.1371 -0.1510  0.1811
55477ION     NA98493  16.577  26.369   8.459  0.2133 -0.2160 -0.1526
55478ION     NA98494  13.839  32.068   9.226 -0.0599  0.1602 -0.0642
55479ION     NA98495  14.416   3.544  24.036 -0.0586 -0.2832  0.1195
55480ION     NA98496  19.171  12.260  26.910 -0.1494  0.1123  0.0184
55481ION     NA98497  12.580   1.410   1.349 -0.1197 -0.0491  0.4108
55482ION     NA98498  21.753   1.621   7.506 -0.2405  0.2531 -0.1487
55483ION     NA98499  14.812   5.859   3.058 -1.0934 -0.2487  0.0822
55484ION     NA98500   8.605  23.230   8.357 -0.3560 -0.6442 -0.3607
55485ION     NA98501   2.468   2.407   0.442  0.0573 -0.4487 -0.3485
55486ION     NA98502   0.845   9.127  28.031  0.3447  0.4450  0.0917
55487ION     NA98503  28.341  12.393   9.563  0.2072  0.4106 -0.5585
55488W        W98504   8.673   8.001  27.747 -0.1819 -0.1377 -0.0894
55489W        W98505  12.924   5.668   1.231  0.1230  0.1408  0.0942
55490W        W98506   4.669   2.316  23.397  0.0742 -0.3106  0.2344
55491W        W98507   0.940  28.518  21.184 -0.2824  0.1998 -0.0808
55492W        W98508  23.196  31.827   2.857  0.0406  0.1518 -0.1544
55493W        W98509   5.544   5.365   0.676  0.1642 -0.1169 -0.1358
55494W        W98510   4.333  23.479   6.410 -0.1709 -0.0095 -0.1164
55495W        W98511  12.460   4.480  27.262 -0.1637 -0.0539 -0.1062
55496W        W98512  29.260   3.239  27.954 -0.0903  0.0343 -0.1982
55497W        W98513   3.667  24.558  14.470  0.2205 -0.1110  0.0440
55498W        W98514  10.861  12.471   6.745 -0.1200  0.2154 -0.0499
55499W        W98515   3.965  25.794   2.289  0.3790 -0.0519 -0.1533
55500W        W98516  28.759   2.023  25.027 -0.1330  0.1294 -0.1222
55501W        W98517   5.735  33.375  25.713  0.1488 -0.0803  0.0061
55502W        W98518  14.026   2.688   2.671  0.1384 -0.2659  0.0271
55503W        W98519  29.437  25.725  10.166 -0.1573  0.3081 -0.2674
55504W        W98520  32.963   9.089  27.462 -0.0903  0.0579 -0.1270
55505W        W98521   7.512  16.837  28.665  0.2718  0.1715  0.0918
55506W        W98522  30.793  12.820  29.048  0.1384 -0.2315 -0.0328
55507W        W98523  21.065  29.155   5.356  0.1018 -0.2077  0.0705
55508W        W98524   0.700  32.151  20.737 -0.1126 -0.1733 -0.2541
55509W        W98525  26.926  26.803   4.802  0.1588 -0.3130  0.1822
55510W        W98526  15.961  24.783  22.584  0.2462  0.1018 -0.0690
55511W        W98527  32.341  34.113   2.505 -0.1880  0.0852 -0.1373
55512W        W98528  30.207  13.795  18.657  0.1637  0.0061 -0.1051
55513W        W98529  13.096  24.992  29.304 -0.0215  0.1028 -0.1887
55514W        W98530   2.838  34.053   7.621  0.3497 -0.0121  0.0353
55515W        W98531   5.583  10.762   3.238  0.0541 -0.1700  0.1352
55516W        W98532  29.863  10.242   7.511 -0.0508 -0.0666 -0.0412
55517W        W98533  34.732   5.491   7.314 -0.3220  0.0623 -0.0810
55518W        W98534   4.399  14.186  21.086  0.0381 -0.5746 -0.0744
55519W        W98535   1.217  13.055  23.735  0.2899  0.3193 -0.1881
55520W        W98536   1.174  16.878  26.787 -0.1069  0.1289 -0.2651
55521W        W98537  10.447  13.958  22.271 -0.0081  0.4201 -0.1396
55522W        W98538  28.968  31.901   9.312 -0.1393  0.0132  0.1763
55523W        W98539  23.045   2.754  20.071 -0.3016  0.0579  0.1472
55524W        W98540   5.862  10.747  27.696  0.0218 -0.0506 -0.0316
55525W        W98541   9.223  12.099   0.363  0.2196  0.0005  0.0084
55526W        W98542   4.666   1.804  25.850 -0.4133 -0.0321  0.0850
55527W        W98543  22.528  13.621   1.267  0.1540 -0.0173 -0.1222
55528W        W98544   0.164  28.490   1.956  0.2896  0.0126 -0.2457
55529W        W98545  21.384  10.368  28.713  0.0054  0.1055 -0.1368
55530W        W98546   2.123  10.752   0.085 -0.2674  0.1662 -0.1059
55531W        W98547  29.700  30.611   3.753 -0.0767 -0.0450 -0.3518
55532W        W98548  10.362   8.067  27.955 -0.0142  0.1481  0.0776
55533W        W98549   2.273  21.716   9.563 -0.0193 -0.0250 -0.2630
55534W        W98550  33.878  26.530  20.894 -0.0926 -0.0727  0.2696
55535W        W98551  30.188   9.531  23.309  0.1928  0.0632 -0.2492
55536W        W98552  34.667   5.216  24.769  0.2808  0.3567  0.0862
55537W        W98553   2.013  33.028   1.093 -0.0322 -0.1618  0.2551
55538W        W98554  20.965  34.297   4.336 -0.0369  0.0699  0.2457
55539W        W98555  31.802   7.758  27.457  0.0664  0.0586 -0.1277
55540W        W98556  10.780  29.002  26.738  0.0003 -0.2095  0.0712
55541W        W98557  29.885  10.580  23.160  0.0194 -0.0515 -0.1776
55542W        W98558  33.167   0.079   7.148  0.0873  0.0618  0.4048
55543W        W98559  25.327   6.396  10.203  0.1251  0.4161 -0.0187
55544W        W98560  28.175   1.207  27.250  0.0937  0.1583 -0.3657
55545W        W98561   7.449  30.299   2.378 -0.0769 -0.0646  0.0032
55546W        W98562  33.617   4.492   9.123  0.0765  0.1936  0.2877
55547W        W98563  29.659   0.324  27.541 -0.1334  0.0181 -0.0038
55548W        W98564   0.729  19.361   6.539  0.0493  0.0411 -0.0170
55549W        W98565   2.729   5.981  25.627  0.0995 -0.1585  0.1516
55550W        W98566  29.624   4.405  17.415 -0.0961 -0.2972  0.0207
55551W        W98567  27.466  28.058   6.201  0.2284  0.2199  0.1077
55552W        W98568  30.958  34.176  21.885  0.1719 -0.1063  0.1093
55553W        W98569   6.462  12.361   0.709 -0.1910 -0.0275  0.0566
55554W        W98570  11.254  31.953   2.265 -0.0984  0.2985  0.1867
55555W        W98571   1.379   4.911   0.900 -0.2524 -0.0580  0.0680
55556W        W98572   2.878  31.400   6.591 -0.0999  0.3477  0.0744
55557W        W98573  24.410   0.443   0.458 -0.0218 -0.1067  0.0120
55558W        W98574  10.170  32.858   2.030  0.1781  0.0337  0.0611
55559W        W98575  10.552  31.159   0.515  0.0637  0.1493  0.0215
55560W        W98576  13.354   0.223  17.742  0.2537  0.1843 -0.1878
55561W        W98577   1.373   0.985  26.286  0.1191 -0.1364 -0.0565
55562W        W98578   1.823   1.972   7.405  0.0366  0.1018 -0.0195
55563W        W98579   3.832  27.787  21.701  0.1951  0.0327 -0.1254
55564W        W98580  30.869  15.834  27.819  0.1659 -0.5052  0.4000
55565W        W98581  11.990   9.287  23.128  0.3169  0.2141 -0.0474
55566W        W98582  33.254   6.057   4.815 -0.1929 -0.3117  0.1944
55567W        W98583  26.522   0.423   9.563 -0.1113 -0.0878 -0.2697
55568W        W98584   3.830  28.754   8.402 -0.0726  0.0812  0.0583
55569W        W98585  26.106   3.598   7.148  0.1203 -0.1163  0.1479
55570W        W98586  34.244   7.015   2.507 -0.2896  0.0185 -0.3427
55571W        W98587   6.130  11.556   5.579  0.0839  0.0150 -0.4228
55572W        W98588   9.909  18.769   7.237 -0.4069 -0.3106 -0.0181
55573W        W98589  20.680   3.218  19.286 -0.1576  0.0062  0.1716
55574W        W98590   4.063  23.842   8.745 -0.0784 -0.0130  0.0528
55575W        W98591  11.637   7.098  20.543 -0.0740  0.1766 -0.1279
55576W        W98592  20.259   2.574   4.920  0.1658  0.0614 -0.1726
55577W        W98593  28.895  33.803  28.153  0.2191 -0.0286  0.1589
55578W        W98594  10.037   9.394   8.601 -0.0027 -0.0677 -0.0082
55579W        W98595  18.193   2.538   6.490  0.2990  0.0756  0.1865
55580W        W98596  18.485  33.135   5.878  0.0272 -0.0491 -0.1515
55581W        W98597  18.651  11.484  13.374 -0.0777 -0.1882  0.0856
55582W        W98598  29.704   3.152  27.119  0.1643 -0.0976  0.1150
55583W        W98599   7.257  29.882  25.156  0.0239 -0.1318 -0.1763
55584W        W98600  20.242  32.205   6.780  0.2814  0.3122  0.2406
55585W        W98601  19.465  13.850   0.063  0.1799 -0.2803  0.1635
55586W        W98602  30.299  21.022  28.555 -0.1359 -0.2404 -0.0535
55587W        W98603  25.368  34.495   4.708  0.1166 -0.2554  0.0101
55588W        W98604  21.637   2.965   4.451 -0.1014 -0.2430  0.1057
55589W        W98605  20.518  33.324  17.738  0.1071  0.2401 -0.1280
55590W        W98606  30.062   0.476  17.682  0.0910  0.1122 -0.1167
55591W        W98607  27.434  15.781  17.936 -0.1370 -0.2780  0.0356
55592W        W98608  10.496   1.711  23.933 -0.0200  0.1241  0.0064
55593W        W98609  32.071  20.551  26.446 -0.1340 -0.3545  0.1013
55594W        W98610  20.682  28.638   8.424 -0.1998  0.1928 -0.2702
55595W        W98611   4.764  14.667  28.133 -0.2551  0.0433 -0.2196
55596W        W98612  31.425  20.323   3.071 -0.0472 -0.1755 -0.1974
55597W        W98613  34.236  17.706   7.071 -0.2176 -0.0124  0.0366
55598W        W98614  29.084  30.861   9.259 -0.0494 -0.2325  0.1018
55599W        W98615  34.544   6.990  24.513  0.3009  0.1519  0.1618
55600W        W98616   8.923   7.880  26.811  0.0820  0.1846  0.1681
55601W        W98617  32.733  24.786   4.134  0.2375 -0.0660  0.1761
55602W        W98618   1.946  25.222  10.415  0.0020 -0.1021 -0.1154
55603W        W98619  31.521  20.044  24.287  0.2517 -0.0205  0.0628
55604W        W98620   8.184  23.705  15.103 -0.0343 -0.1567 -0.0110
55605W        W98621  12.655   9.820  18.546  0.5905 -0.0954  0.1224
55606W        W98622  29.510  33.327   1.457 -0.1231 -0.3281 -0.0518
55607W        W98623  22.819  32.274   0.308  0.3317  0.2632 -0.0267
55608W        W98624  31.265  24.122  28.245 -0.1152  0.0954 -0.3038
55609W        W98625   4.757  17.381   1.042 -0.1954  0.2577 -0.2001
55610W        W98626   3.206   1.659   0.869 -0.1671  0.0574  0.2769
55611W        W98627   0.756  34.147  23.966  0.2305 -0.0139 -0.3672
55612W        W98628   5.485  26.328   5.087 -0.0195 -0.0174  0.1071
55613W        W98629   2.292   1.518   1.208  0.0539 -0.0453  0.0777
55614W        W98630   5.149   8.838  18.085 -0.0022  0.1372  0.2323
55615W        W98631   4.540   9.552  19.952 -0.1939 -0.3313  0.0007
55616W        W98632   5.752   0.787  15.411  0.1731  0.1080  0.1904
55617W        W98633  21.582  24.993   0.907  0.0734  0.3877 -0.0406
55618W        W98634  12.391  14.437  26.023  0.2239  0.0552  0.0777
55619W        W98635  22.353  34.673   2.673  0.1822  0.2889  0.1333
55620W        W98636   4.531  10.901  18.076 -0.0971  0.0331 -0.1052
55621W        W98637   7.017   6.042  27.306  0.3718  0.2231  0.2067
55622W        W98638  28.386   1.968  10.625  0.0463  0.1340  0.0940
55623W        W98639   9.369  19.177   3.094  0.0117  0.0323  0.0104
55624W        W98640   7.918   4.851   2.728 -0.0087  0.0883  0.4030
55625W        W98641  29.748  19.719  26.362  0.1957  0.0272 -0.1101
55626W        W98642   7.813  27.768  28.697 -0.1260  0.2741  0.0685
55627W        W98643  13.208  32.224   3.081 -0.2981  0.0699  0.1464
55628W        W98644   2.466   4.617  18.563 -0.0295 -0.1777  0.3678
55629W        W98645   5.551  11.140  25.386  0.3670  0.0174 -0.3716
55630W        W98646  17.103   7.816  27.965 -0.1766 -0.0433 -0.1275
55631W        W98647  29.229  32.228  29.286  0.0638  0.3312  0.2993
55632W        W98648  22.333   4.282   7.070  0.0455 -0.0766  0.1915
55633W        W98649  19.959   6.283   1.510 -0.3342  0.2842  0.1289
55634W        W98650   1.669  28.559   3.112 -0.1071 -0.0416 -0.0240
55635W        W98651  28.790  13.481   8.194 -0.2258 -0.0365  0.2535
55636W        W98652  27.384  31.001  19.546 -0.0971  0.0371  0.3149
55637W        W98653   0.447   4.644   7.123  0.0386  0.0963 -0.2423
55638W        W98654   5.438  25.715  28.816  0.1609  0.3406 -0.1052
55639W        W98655  28.587  25.420  11.447  0.2312 -0.2525  0.0600
55640W        W98656  25.966  23.295   5.930  0.1399  0.5491 -0.2171
55641W        W98657   5.715   5.755   3.807  0.1362  0.0515  0.2408
55642W        W98658  10.328  34.489  22.824 -0.0136  0.2290  0.1792
55643W        W98659   2.203  30.279  26.831 -0.0050  0.1827  0.1243
55644W        W98660   9.905  26.635   6.516 -0.0456 -0.3497  0.0536
55645W        W98661  23.224  29.756  10.372 -0.0315 -0.2595 -0.1993
55646W        W98662   5.497  15.382   9.095  0.1446  0.1324 -0.2169
55647W        W98663  30.756  13.292  17.485 -0.2407  0.2707  0.0311
55648W        W98664  25.253  11.198  23.733 -0.1469  0.0429  0.1530
55649W        W98665   1.032  34.670   9.400 -0.0410 -0.2546  0.0280
55650W        W98666  16.325  26.390  24.732  0.0083  0.1382 -0.0455
55651W        W98667  30.341  17.138   2.159  0.1099  0.0679  0.1002
55652W        W98668  11.171  34.017   0.841  0.0243  0.0082  0.3592
55653W        W98669   6.161  18.502   2.154  0.1468  0.2465 -0.3020
55654W        W98670  32.613   0.500  26.480 -0.0723 -0.2333 -0.4992
55655W        W98671   6.771  34.240   4.771  0.1431 -0.4352  0.3590
55656W        W98672  34.589  12.946   7.791  0.2814  0.3021  0.0368
55657W        W98673   9.339  31.482   7.054  0.0162  0.1030 -0.0710
55658W        W98674  29.668   0.902  28.651 -0.2088  0.2244  0.2753
55659W        W98675  33.317  30.207   8.442  0.0293  0.1903  0.1447
55660W        W98676   5.478  18.303   5.540  0.1155 -0.0576 -0.1509
55661W        W98677   1.597   5.173  16.633  0.3132 -0.1447 -0.3112
55662W        W98678  22.452  24.094   6.127 -0.0715  0.1162 -0.1773
55663W        W98679  10.371  14.033   3.147  0.4253 -0.3225 -0.0106
55664W        W98680  12.488  31.760   4.790 -0.4352 -0.1364  0.0263
55665W        W98681  29.592   2.620   2.070  0.1571  0.0270 -0.1925
55666W        W98682   0.148  19.020   6.203  0.0743 -0.4168 -0.2200
55667W        W98683   3.290  27.647   1.501  0.0489 -0.1155  0.4543
55668W        W98684   3.753   4.038  25.822 -0.0607  0.0363  0.0393
55669W        W98685  29.817  10.837   1.259  0.2645 -0.1055  0.0245
55670W        W98686   0.753   4.433  17.525 -0.1568 -0.0009 -0.2306
55671W        W98687   1.755   2.063  15.615  0.1156  0.2190 -0.2569
55672W        W98688  25.549   0.602  11.081  0.0006 -0.0254  0.0907
55673W        W98689  31.600   3.290   4.251  0.0655  0.2197 -0.0681
55674W        W98690  16.698   1.248  28.902 -0.1269  0.1786 -0.0141
55675W        W98691  11.772   2.153   2.041 -0.1407  0.2420  0.2439
55676W        W98692  33.895  10.164   9.377 -0.2937  0.1814 -0.1605
55677W        W98693  16.910   6.331  26.307  0.1246 -0.1434  0.1732
55678W        W98694  34.139   5.419  26.779 -0.1658 -0.0576  0.1046
55679W        W98695   5.909   1.979  25.101  0.2262  0.1271  0.1521
55680W        W98696  18.989   1.978  28.492 -0.0956 -0.2508  0.1688
55681W        W98697   3.409  23.923   7.071  0.1660  0.2909  0.0028
55682W        W98698  34.687  30.722   0.323 -0.3995 -0.0822  0.2397
55683W        W98699  26.710  28.481  25.634  0.1555  0.1387 -0.0769
55684W        W98700   4.335   1.418   4.614  0.0155  0.1125  0.2823
55685W        W98701  14.523  28.825   2.606  0.0963  0.0388  0.0508
55686W        W98702  29.220  20.261  19.310 -0.0663 -0.2918 -0.1813
55687W        W98703   2.903  12.719  17.637  0.1078  0.2496  0.0516
55688W        W98704   6.225   9.120  10.212  0.0494  0.2781  0.1169
55689W        W98705  19.288   4.972  25.892  0.0523 -0.1257  0.1945
55690W        W98706   5.749  22.704  24.947 -0.0226 -0.2691  0.0463
55691W        W98707  28.691   5.248   2.388 -0.0029  0.1099 -0.3413
55692W        W98708  34.493   2.855   7.255  0.0983  0.1728 -0.2019
55693W        W98709   5.714  19.402  23.711  0.1600  0.1032  0.1217
55694W        W98710  23.237   1.104  21.221  0.1457  0.0993 -0.0742
55695W        W98711  28.891  32.863   9.124  0.0201 -0.2764 -0.0155
55696W        W98712  15.583   5.677   8.092  0.4808 -0.0323 -0.1654
55697W        W98713   6.296  31.274  27.434 -0.1609  0.0492 -0.0656
55698W        W98714  27.809  12.504  24.037 -0.2419  0.2512 -0.2068
55699W        W98715  13.040   0.074   6.313 -0.0726  0.0820 -0.0307
55700W        W98716  23.199   6.396  16.631 -0.2141 -0.0590  0.2395
55701W        W98717  28.263  32.312   6.670  0.1932 -0.1251  0.1879
55702W        W98718   0.823   2.568  28.595  0.1270 -0.4356 -0.1637
55703W        W98719  13.998   9.998   4.113  0.1341  0.1399  0.2880
55704W        W98720   2.690   9.499   0.204  0.1588 -0.1297  0.3062
55705W        W98721  29.268  22.563  24.135  0.0838  0.3914 -0.0081
55706W        W98722  10.188  24.950   3.812  0.1169  0.0560 -0.3042
55707W        W98723   9.106   2.287  27.153 -0.1393 -0.0345 -0.1892
55708W        W98724  28.196  11.512   0.473 -0.1383  0.2889 -0.2485
55709W        W98725  24.278  32.736   6.272 -0.0356  0.1443  0.0323
55710W        W98726   1.707  23.500   3.232 -0.2027 -0.0388 -0.2835
55711W        W98727   7.388  15.294  23.631 -0.2117 -0.4448 -0.0495
55712W        W98728  28.493   8.990   3.177 -0.0355 -0.1277  0.1138
55713W        W98729   7.131   1.948   4.998  0.0068  0.1619  0.4921
55714W        W98730  32.258   9.579   1.120  0.2732  0.1240 -0.0342
55715W        W98731  16.192  34.460   1.013 -0.0191 -0.0654 -0.2849
55716W        W98732  22.237  29.293   7.435  0.3326  0.0368  0.1132
55717W        W98733   5.652  16.001  26.762 -0.0190 -0.1291  0.0454
55718W        W98734   6.701  12.492   8.011  0.1606  0.0271  0.1225
55719W        W98735  18.534  12.283   5.423 -0.0060 -0.2295  0.1182
55720W        W98736  25.264   5.490  20.339 -0.0233  0.2208 -0.0454
55721W        W98737   7.056  33.173   7.590 -0.0342  0.1487 -0.0639
55722W        W98738  20.605  29.455  19.323  0.1886  0.1099 -0.2147
55723W        W98739   7.034  16.433  25.218  0.2311 -0.0715  0.3689
55724W        W98740  16.599   7.102  28.275 -0.0575  0.1092  0.0568
55725W        W98741   7.608   9.427   9.552  0.0114 -0.4465  0.1724
55726W        W98742  31.481   3.082  27.953 -0.3052  0.1543  0.0958
55727W        W98743  34.650  28.574   0.955 -0.0050  0.1764  0.1486
55728W        W98744   0.301   1.958  10.143 -0.0817 -0.2771 -0.3425
55729W        W98745   0.308  31.250   4.882  0.1198  0.0859 -0.0509
55730W        W98746   5.128  14.501  21.381  0.0158 -0.0686 -0.0321
55731W        W98747   7.023   0.895  22.300  0.0717 -0.1802  0.0563
55732W        W98748  34.572  27.423   5.051  0.2189 -0.2894 -0.1964
55733W        W98749  21.942  18.115   3.134  0.3384 -0.4595 -0.0828
55734W        W98750  19.221   4.302   2.539  0.1885  0.1114 -0.0404
55735W        W98751   1.667   5.657  21.920 -0.0279 -0.1409  0.1293
55736W        W98752  29.178  31.381   9.380 -0.0786  0.0600  0.1712
55737W        W98753  13.478   8.818  27.223 -0.1303  0.0891  0.0736
55738W        W98754  17.274   1.126   2.373 -0.0071 -0.0795 -0.4131
55739W        W98755  24.979   1.188   1.048 -0.3683 -0.1699 -0.0850
55740W        W98756  10.939  29.080   8.038  0.1425 -0.1246  0.2907
55741W        W98757  26.127  33.839   2.476  0.4785 -0.3866 -0.1845
55742W        W98758   1.659   5.416  28.309  0.0542  0.1350  0.0804
55743W        W98759  14.959  10.701  26.806  0.1654 -0.1698  0.2239
55744W        W98760   1.602  26.951   6.974  0.1572 -0.0334  0.0059
55745W        W98761   7.429  34.237   5.399  0.2169  0.2166  0.0394
55746W        W98762  26.672   0.498   1.572  0.0413  0.1317  0.5434
55747W        W98763   7.164   4.166  10.301 -0.0225 -0.1318  0.2664
55748W        W98764   6.626  26.473  10.560  0.0057 -0.1146  0.0498
55749W        W98765  13.177   2.433   3.716 -0.0841  0.1926 -0.3175
55750W        W98766  14.255  29.223   1.720  0.0080 -0.0675  0.2695
55751W        W98767  29.480  34.540  10.518 -0.0427 -0.0141  0.3265
55752W        W98768  32.088  15.484  25.096 -0.1332  0.1030 -0.2121
55753W        W98769  23.595   3.903  10.870 -0.1325  0.1954 -0.1554
55754W        W98770  13.580  13.444  19.944 -0.0984  0.2729 -0.0634
55755W        W98771  22.078  14.591   1.501  0.2193  0.0177  0.0375
55756W        W98772  32.987   1.456   8.325 -0.0394 -0.1312 -0.1941
55757W        W98773  29.470  13.364   3.984 -0.0374  0.1545 -0.1701
55758W        W98774   4.897  28.061   3.680  0.1549  0.1924 -0.2262
55759W        W98775  11.276  21.654   7.950  0.0277  0.2388  0.1442
55760W        W98776  11.205  31.542   4.506  0.0807 -0.0661  0.0072
55761W        W98777  34.056   1.671  28.584 -0.0624  0.0882 -0.1374
55762W        W98778   7.874  16.497  15.369 -0.3510 -0.1615  0.1728
55763W        W98779   3.249   8.336  27.483 -0.0650  0.3234  0.2153
55764W        W98780   4.051  30.578  26.389  0.1562 -0.2127  0.0251
55765W        W98781  30.429  15.479   4.188 -0.2222 -0.1600 -0.0065
55766W        W98782  12.125   9.115  28.112  0.0864 -0.0765  0.0360
55767W        W98783   6.508   8.657  27.004 -0.1182 -0.1085  0.2302
55768W        W98784  15.545  14.605  27.435  0.2382 -0.3546 -0.1534
55769W        W98785  17.937   6.526   6.865 -0.1273  0.2464  0.2593
55770W        W98786   8.242   6.390   7.108  0.2704 -0.1214 -0.0961
55771W        W98787  32.847   9.430  26.055 -0.5408 -0.3508 -0.0239
55772W        W98788  30.556   7.529  15.186 -0.1297 -0.1196  0.1528
55773W        W98789   9.927   4.183   9.685 -0.1576  0.1006 -0.0078
55774W        W98790  29.819  16.397   8.819 -0.1061  0.1313  0.1265
55775W        W98791  30.282   8.850  19.496  0.0911  0.1351 -0.2522
55776W        W98792  12.820  12.971  28.301  0.0127 -0.2872  0.0536
55777W        W98793  22.744  17.834  24.641 -0.0642 -0.1305  0.1323
55778W        W98794  33.170  19.570  18.033 -0.1419 -0.0283  0.0194
55779W        W98795   1.499   9.384   4.841  0.2594  0.1440 -0.2052
55780W        W98796  28.673  32.397   9.135  0.3190  0.1886 -0.0051
55781W        W98797  22.779   3.798  23.384  0.0833  0.1644 -0.2394
55782W        W98798   2.685  24.181   4.597  0.0380 -0.4904  0.0296
55783W        W98799   6.952   4.625   4.712 -0.0624 -0.1492 -0.2515
55784W        W98800  28.806   8.444  20.643 -0.2773 -0.0920  0.2237
55785W        W98801  25.052  33.112   3.428  0.1820 -0.2010 -0.2179
55786W        W98802   4.891  13.503  25.086 -0.1559 -0.2285  0.2253
55787W        W98803  34.532  17.867  27.155  0.0748  0.1480  0.0442
55788W        W98804  32.485   8.829  27.700  0.1244 -0.0160 -0.1761
55789W        W98805   3.393   1.960   1.760  0.3451  0.0057  0.3730
55790W        W98806  19.366  12.191   3.745  0.0943 -0.2050 -0.0764
55791W        W98807   3.037  20.654   7.411  0.0515  0.1401  0.0383
55792W        W98808   4.617   1.546  22.513  0.0518 -0.2013 -0.3170
55793W        W98809  34.146  26.553   5.484  0.5203  0.0186  0.1369
55794W        W98810   7.988  26.220   0.234  0.5637 -0.1261  0.0220
55795W        W98811  33.525  30.819  23.177 -0.2312 -0.4202 -0.0905
55796W        W98812   1.253   2.354  27.567  0.2750 -0.0943 -0.2121
55797W        W98813  33.467   9.756   6.146  0.1155  0.1496  0.0384
55798W        W98814   0.628  18.895   6.266  0.0470  0.1260  0.2463
55799W        W98815  32.808   1.501   6.328  0.0887  0.0592 -0.0915
55800W        W98816   2.130   2.440  28.116  0.1030  0.0520  0.1659
55801W        W98817   5.276   0.362   9.121 -0.2493 -0.1134  0.0871
55802W        W98818   5.726   7.018  21.531  0.0372 -0.0368 -0.2675
55803W        W98819  32.330  30.792  10.706 -0.1851  0.2962 -0.1137
55804W        W98820   4.030  29.120  28.506  0.0143  0.0278  0.0964
55805W        W98821  32.296  30.489   2.502 -0.2693 -0.6104  0.0261
55806W        W98822  21.994  16.552   2.679  0.1463 -0.1195 -0.4065
55807W        W98823   7.408  32.775   9.242  0.2834 -0.1711 -0.0970
55808W        W98824   2.874   7.198  16.247  0.2662 -0.1468 -0.1414
55809W        W98825   5.181  27.835  22.530  0.1878 -0.3041  0.2218
55810W        W98826  29.809  33.252  10.982  0.0287 -0.2058  0.0977
55811W        W98827  27.599   5.631  22.987 -0.0102  0.2323  0.0828
55812W        W98828  30.207  15.168  15.934  0.1470 -0.0133  0.1695
55813W        W98829   1.645   0.347  25.120  0.0913  0.3044  0.1802
55814W        W98830   5.153  30.028  14.439 -0.0854  0.0852 -0.1272
55815W        W98831  13.349   6.480   1.242  0.2096 -0.1950  0.4438
55816W        W98832   0.805   3.275   4.925 -0.2696  0.3471  0.3396
55817W        W98833   7.188   3.093  21.652  0.2939 -0.0663 -0.2970
55818W        W98834  33.804  34.180   6.963  0.0362  0.0053  0.0199
55819W        W98835   9.188   2.645   9.813 -0.1940 -0.0468 -0.1185
55820W        W98836  28.818  15.223   0.345  0.0032 -0.0761 -0.1188
55821W        W98837   2.443   6.371  22.957  0.3041  0.2219 -0.3122
55822W        W98838   7.196  17.754  24.950  0.1825  0.3746  0.0283
55823W        W98839  33.938  18.461   3.805 -0.0149 -0.3071  0.0177
55824W        W98840  12.738  32.839   7.248 -0.2663 -0.0667 -0.3222
55825W        W98841   6.313  34.653  27.141 -0.1801 -0.2910 -0.0418
55826W        W98842   0.836  21.352  26.639  0.1830  0.0352 -0.1313
55827W        W98843   4.014   6.833  15.669  0.2852  0.2408  0.1226
55828W        W98844  24.258  19.556   6.338 -0.0629  0.0722 -0.1817
55829W        W98845   5.285   4.750   6.412 -0.1319  0.0270 -0.1517
55830W        W98846  33.247   3.543  10.482 -0.2609 -0.3092  0.2744
55831W        W98847  25.190   5.136  27.329  0.1142  0.1502  0.0312
55832W        W98848  21.875   0.745   8.912 -0.2123  0.0531 -0.1286
55833W        W98849  31.685   0.440  26.925  0.0137 -0.0174 -0.1399
55834W        W98850  28.672   0.831   1.572  0.0249  0.1715 -0.1861
55835W        W98851  33.465   3.458  24.446  0.0519  0.1863 -0.2093
55836W        W98852  23.786   4.702   0.325  0.2330  0.1540  0.0894
55837W        W98853  25.262  31.925  26.886  0.0819 -0.2966 -0.0845
55838W        W98854   2.501  19.669   0.420  0.3001  0.0474 -0.0154
55839W        W98855   6.405   6.337   9.911  0.2146 -0.2812 -0.0300
55840W        W98856  13.898   8.698  16.134 -0.1918  0.3670 -0.1484
55841W        W98857   6.793  29.915  25.118 -0.0020 -0.0003  0.0184
55842W        W98858  34.768  21.065   9.214  0.0819 -0.1969 -0.0017
55843W        W98859   8.235  13.813   2.705 -0.0834 -0.0819 -0.0705
55844W        W98860  11.465  33.572   3.476 -0.2374  0.2792 -0.1420
55845W        W98861  13.414   0.913  23.978 -0.1019  0.5370 -0.0995
55846W        W98862  31.788   5.092  19.029 -0.3561  0.2186 -0.1115
55847W        W98863  17.087  31.152   1.082  0.2460 -0.1460 -0.1166
55848W        W98864  31.727   4.100  22.631  0.2016 -0.1317  0.1259
55849W        W98865  10.500   2.633  28.155  0.0524  0.0100 -0.1443
55850W        W98866  32.816   8.191   8.252 -0.0064  0.1244  0.1065
55851W        W98867  27.315  28.987   4.217  0.0041  0.0540 -0.0329
55852W        W98868   0.451   0.186   5.075  0.2966  0.3959  0.2177
55853W        W98869   2.736  14.527  27.652  0.1775 -0.0513 -0.1643
55854W        W98870   1.637  12.849   7.612 -0.0340  0.1527  0.2067
55855W        W98871  19.828   5.857   2.797 -0.0706  0.0885 -0.0773
55856W        W98872   2.224   4.603   9.310 -0.0190 -0.0657 -0.0404
55857W        W98873   1.061  25.472   1.254  0.0996 -0.2229  0.2378
55858W        W98874  24.710  26.843  27.805  0.4288 -0.0388 -0.3960
55859W        W98875  29.430  30.112   5.688 -0.4544  0.2919 -0.2010
55860W        W98876   7.811  28.129   7.487  0.0473  0.3614 -0.0239
55861W        W98877  20.658   5.599  26.903 -0.0192  0.3057 -0.3479
55862W        W98878   1.284   6.017  22.063  0.2550  0.1095  0.1897
55863W        W98879   8.306  26.902  13.859 -0.1823  0.1971 -0.0078
55864W        W98880  31.865   0.932  18.760 -0.0058 -0.0418 -0.1723
55865W        W98881   7.179   2.219   7.061  0.0736 -0.1433 -0.0350
55866W        W98882   8.829  28.671   0.457  0.1030 -0.0828  0.3297
55867W        W98883  20.304   3.186  26.228  0.1807 -0.0798 -0.0966
55868W        W98884   5.377  12.602  24.938 -0.0226 -0.0488 -0.0224
55869W        W98885   7.521   4.036   5.932 -0.1635  0.0431  0.0151
55870W        W98886  26.581   3.625  23.727 -0.2988 -0.1443 -0.1620
55871W        W98887   8.688   5.690  25.224 -0.2355 -0.3546 -0.1635
55872W        W98888  29.299  31.481  18.827  0.1531  0.2154  0.0547
55873W        W98889  18.238  31.228   1.838  0.0384  0.1238 -0.2313
55874W        W98890   7.871  30.587   0.419 -0.0434 -0.4072 -0.0226
55875W        W98891   5.445  30.393   3.114 -0.3628  0.2835  0.0759
55876W        W98892   1.679   3.298   7.633 -0.3856  0.1738 -0.0954
55877W        W98893   4.447   4.059   0.995  0.1133 -0.0330 -0.3285
55878W        W98894   0.426  28.297  28.178  0.0003 -0.3827  0.0554
55879W        W98895  26.378  11.473  26.309  0.2200  0.1644  0.0819
55880W        W98896  29.353   3.787   6.752 -0.2230  0.1237 -0.1070
55881W        W98897  27.808   1.413  28.460 -0.1940  0.1168  0.0098
55882W        W98898   4.411  22.331  22.574 -0.0322 -0.1604  0.0196
55883W        W98899  14.308  28.416   7.117  0.0563  0.2555 -0.0400
55884W        W98900   1.060  27.731  25.765  0.0752  0.2752 -0.0679
55885W        W98901   8.219  32.890   6.981 -0.0138  0.1497 -0.0622
55886W        W98902  20.483  30.983   2.921 -0.3321 -0.2036  0.0838
55887W        W98903  29.127  32.305   8.382  0.1041  0.0370  0.0271
55888W        W98904  33.057   3.155   3.770 -0.1493  0.0152 -0.3175
55889W        W98905  33.892  29.501   8.193 -0.1247 -0.0629 -0.2250
55890W        W98906   7.981  13.926  24.087 -0.0182 -0.0934 -0.0517
55891W        W98907   1.943   2.509   2.186  0.2968  0.0705  0.0986
55892W        W98908  23.444   7.887   8.203 -0.3067  0.1047 -0.1037
55893W        W98909  14.823  11.276   5.688 -0.1616  0.0352  0.0109
55894W        W98910   6.274  24.644   5.703  0.2209 -0.2361 -0.3396
55895W        W98911   0.418  32.052  27.518 -0.0996 -0.1322 -0.0665
55896W        W98912  30.770  23.592  25.661  0.1458 -0.1338 -0.0552
55897W        W98913   5.684   5.492   5.889  0.0550 -0.1893  0.3303
55898W        W98914  22.383  24.680   3.735 -0.1136 -0.0434  0.3860
55899W        W98915  11.247  18.166   1.813 -0.1107  0.3389 -0.1363
55900W        W98916   2.431   5.252   0.151  0.0721 -0.0430  0.0960
55901W        W98917  32.777  22.528   2.173 -0.1180  0.3450 -0.1355
55902W        W98918  11.441  34.588  27.409 -0.0393 -0.1778  0.3729
55903W        W98919  33.603  34.351  26.303 -0.3327  0.3783 -0.1007
55904W        W98920  29.189  33.448   9.842  0.0882 -0.3014  0.2925
55905W        W98921  16.263  28.934   8.646  0.2565  0.4948  0.1273
55906W        W98922   9.915  26.939  29.138 -0.1079  0.1813  0.0514
55907W        W98923  17.875  24.037   3.138 -0.1087 -0.1559 -0.0099
55908W        W98924  16.823  28.515   3.666 -0.0727  0.2751 -0.1878
55909W        W98925  11.308   1.900   5.343  0.1834 -0.0421  0.1331
55910W        W98926   1.729  25.290   2.503  0.1867 -0.0308  0.3358
55911W        W98927  16.725  16.679  13.177  0.0771 -0.0830 -0.0285
55912W        W98928   0.466  19.351   0.589  0.2624  0.2674 -0.2391
55913W        W98929   6.146  34.244  28.174  0.1987  0.1125  0.0202
55914W        W98930  20.846  29.065   1.280 -0.1999  0.0159 -0.1133
55915W        W98931  28.146   2.637  11.177 -0.1305  0.1914 -0.1030
55916W        W98932  31.438   1.033   8.136  0.0636  0.2674 -0.1445
55917W        W98933  10.819   3.445   9.862  0.3385  0.0027  0.1145
55918W        W98934  33.042   2.956   1.513 -0.5088 -0.0215  0.1977
55919W        W98935   0.385  33.394  20.507 -0.0070  0.1336  0.1362
55920W        W98936   4.930   6.513   9.693 -0.4644 -0.3849  0.0885
55921W        W98937   2.821  31.010  17.666  0.1727 -0.0698  0.3757
55922W        W98938   4.846  33.389  17.606 -0.2023  0.1897  0.0551
55923W        W98939  28.511  14.065  20.951 -0.2717 -0.2867 -0.0384
55924W        W98940   1.987  33.753   7.093 -0.1318  0.3205  0.2713
55925W        W98941  13.374   4.014  25.487 -0.0021 -0.2472  0.0960
55926W        W98942  11.878  32.954   7.389 -0.1298  0.0725 -0.2872
55927W        W98943  27.523   7.849   5.534 -0.0452 -0.2444  0.0006
55928W        W98944   7.387   5.763   2.754  0.0655 -0.0792 -0.1712
55929W        W98945  29.072  28.868   6.496  0.1774 -0.2951 -0.1043
55930W        W98946  28.503   0.431   1.998  0.3863  0.1501 -0.1816
55931W        W98947   3.982  21.089  14.971  0.2292  0.0228 -0.1634
55932W        W98948  19.895  16.983  25.513  0.0475  0.0988  0.2574
55933W        W98949   0.963   7.035   7.332  0.0195 -0.0297 -0.1656
55934W        W98950  10.718   1.967  10.269 -0.0285 -0.0875  0.0045
55935W        W98951  10.149   7.054  28.152 -0.1998  0.0904  0.0742
55936W        W98952   0.206  34.365   2.547  0.2573  0.0111  0.1762
55937W        W98953  32.023  16.075   3.660 -0.0651 -0.1001 -0.1179
55938W        W98954   9.634   0.500  10.555  0.2079  0.0826  0.2705
55939W        W98955  27.912   0.432  27.794  0.0822  0.3285 -0.0843
55940W        W98956  29.501   4.251   6.003 -0.1488 -0.0374  0.1780
55941W        W98957  30.144  30.383  25.919 -0.0035  0.2127  0.3983
55942W        W98958   3.935  17.066   0.685  0.1666  0.1557  0.2041
55943W        W98959   1.160  19.881   4.672  0.2435  0.0490 -0.2595
55944W        W98960  33.425  24.125   2.558 -0.1326 -0.0976 -0.1365
55945W        W98961  10.766   7.839   1.353 -0.1144  0.1952  0.5464
55946W        W98962   0.124  16.477   0.167 -0.3592 -0.1267  0.2376
55947W        W98963   9.831   4.100   2.072 -0.0421 -0.1070 -0.2384
55948W        W98964  34.001  15.271  24.220  0.0718 -0.2151  0.1562
55949W        W98965   2.029  14.438   8.960  0.0277  0.1686  0.0717
55950W        W98966  29.559  15.043   6.231  0.0250  0.1019 -0.0457
55951W        W98967   4.351  11.794  21.895 -0.2011  0.3275  0.1165
55952W        W98968  33.601   2.540  27.878 -0.0692 -0.0439  0.0504
55953W        W98969  33.386  30.417  25.210 -0.5023 -0.1425  0.1957
55954W        W98970  24.837  25.441   0.530  0.1266 -0.0626 -0.2427
55955W        W98971  22.656  14.287  26.677 -0.0958 -0.2808  0.0707
55956W        W98972  14.592  17.001  22.340 -0.0889  0.0846  0.0505
55957W        W98973  21.341  11.337   6.479  0.0559 -0.1675  0.2123
55958W        W98974   8.007  10.285   3.434  0.2412 -0.1045  0.0629
55959W        W98975   3.673   3.891   8.685  0.1362 -0.0564  0.2039
55960W        W98976  26.930  25.356   7.804 -0.0899 -0.1268  0.1856
55961W        W98977  12.286   7.998  16.982  0.0640  0.3099 -0.1866
55962W        W98978   3.450  29.487   7.016  0.0397 -0.2001 -0.0590
55963W        W98979  25.392  29.539   7.128  0.4206  0.0451  0.3894
55964W        W98980  33.096  34.551   0.615  0.1634  0.1597 -0.0286
55965W        W98981  27.952  19.454   6.743  0.0226 -0.0970 -0.1974
55966W        W98982   3.162  11.361   0.983  0.2559  0.2559 -0.1398
55967W        W98983  30.181   6.020   8.891  0.2733 -0.1109 -0.0033
55968W        W98984   9.674  19.531  18.636  0.1002  0.2712  0.1192
55969W        W98985  27.523  19.761   6.722 -0.1059  0.0383  0.1124
55970W        W98986  33.792  21.640   7.491  0.1576 -0.1147  0.0789
55971W        W98987  30.838  26.034   6.693  0.1539 -0.1682 -0.1739
55972W        W98988   2.818  22.959   6.326 -0.1270  0.0331  0.0792
55973W        W98989  13.768   9.485  24.052  0.2121 -0.1502  0.2335
55974W        W98990   6.375  10.327   6.183  0.2743  0.2801  0.0766
55975W        W98991   2.199   9.821  26.218  0.0579  0.1925 -0.1117
55976W        W98992  29.336  11.835  20.603  0.1180  0.0377 -0.2887
55977W        W98993   0.288   9.089   9.908 -0.2678  0.2665  0.1816
55978W        W98994  20.495  33.199   4.920  0.1874  0.2767  0.0320
55979W        W98995   7.550  13.609  22.754 -0.0456 -0.0925 -0.0170
55980W        W98996  24.629  30.323   8.017 -0.2124 -0.1477 -0.0940
55981W        W98997   8.525  33.731  26.319 -0.1385  0.1030  0.0500
55982W        W98998  21.991  31.868   4.009 -0.0757 -0.2657  0.1283
55983W        W98999  22.233  32.097   5.967  0.1853 -0.0855  0.2119
55984W        W99000   4.670   0.345  23.251  0.1449  0.0143 -0.2989
55985W        W99001  10.873  29.008   1.786  0.0141 -0.2698 -0.0878
55986W        W99002   5.712   5.329  23.247 -0.1124  0.0674 -0.0157
55987W        W99003  34.069  11.309   9.018 -0.0266 -0.4058  0.2127
55988W        W99004   1.298  14.475   2.530  0.2510  0.1536  0.1747
55989W        W99005  26.303  25.366  24.479 -0.0409  0.0418  0.2899
55990W        W99006  24.366  26.722   0.124  0.1507  0.0787  0.1659
55991W        W99007   0.604  22.481   0.485 -0.0176  0.4803 -0.5794
55992W        W99008  23.990  28.378  28.834 -0.1059  0.3405 -0.1746
55993W        W99009   9.913   1.579  28.419 -0.1664  0.1010 -0.2130
55994W        W99010   2.876  32.531  24.325 -0.0894  0.1818 -0.0760
55995W        W99011   8.875  33.865  13.902  0.0084 -0.0018  0.1295
55996W        W99012  22.762  23.454   1.481  0.0359  0.0482  0.2402
55997W        W99013  31.705  25.101   8.249  0.1024 -0.1030 -0.0646
55998W        W99014   5.762   7.964  24.615 -0.1924 -0.1381  0.0666
55999W        W99015   0.927  26.180   8.010  0.0548 -0.3465 -0.1212
56000W        W99016  30.588  26.226  10.884 -0.1016  0.1103  0.2142
56001W        W99017  11.349  18.068   3.334  0.1134  0.2589 -0.1854
56002W        W99018   5.181  11.458   9.579  0.0456 -0.2455 -0.0143
56003W        W99019  32.948   1.768   6.749 -0.1846 -0.4714  0.3552
56004W        W99020  33.036   0.570   6.046  0.1014  0.3704 -0.1789
56005W        W99021   2.783   0.294   8.806 -0.1274 -0.2008 -0.2772
56006W        W99022  12.883   9.807  28.003 -0.1856 -0.0741 -0.0414
56007W        W99023   1.984  25.553  21.806 -0.0302  0.1489 -0.1536
56008W        W99024  11.089  27.156   7.758  0.0897  0.2193  0.0714
56009W        W99025  11.590  21.178   8.199 -0.2777 -0.0173  0.1328
56010W        W99026  27.054   9.144   9.915 -0.3814 -0.0774 -0.2335
56011W        W99027   0.620   5.280  18.396 -0.0020 -0.0255  0.0717
56012W        W99028   7.482  12.331  23.605  0.0925 -0.1840  0.1361
56013W        W99029  22.263  33.031  27.083 -0.0661 -0.1685 -0.1551
56014W        W99030  27.986   8.149  25.730  0.0919  0.0290 -0.0910
56015W        W99031  18.673   7.276  25.754 -0.0128  0.0499 -0.1921
56016W        W99032   4.918  28.780  28.209  0.1761 -0.0133 -0.3204
56017W        W99033  10.506  30.399   2.280  0.2632  0.1656  0.1634
56018W        W99034   8.780   2.266  28.313  0.1208 -0.1844  0.0955
56019W        W99035  30.618   6.511  26.164 -0.2132 -0.0547 -0.3041
56020W        W99036  33.270  28.046   7.049 -0.0726 -0.1290  0.0786
56021W        W99037  11.049  31.750   3.993  0.1730 -0.4388 -0.1016
56022W        W99038  18.365   7.970  16.709  0.1485  0.2118 -0.0754
56023W        W99039   6.224  23.148   4.966 -0.1296  0.2755  0.0986
56024W        W99040  10.368  34.628  10.593 -0.0048 -0.1949 -0.1337
56025W        W99041  30.392   2.271   4.224  0.3553 -0.0791  0.4333
56026W        W99042   0.234   0.177   2.305 -0.0684 -0.1086  0.0204
56027W        W99043   1.008  29.643  28.990 -0.0988 -0.2962 -0.2291
56028W        W99044  31.783  27.266   6.624  0.1419 -0.2514 -0.0014
56029W        W99045   9.301  10.705   2.035 -0.0681  0.1253  0.0694
56030W        W99046   3.642  10.180   6.304  0.0149 -0.0486  0.2328
56031W        W99047  33.297  25.254  28.257  0.0564 -0.1383 -0.2407
56032W        W99048  15.003   8.676   1.152  0.0249  0.0163  0.2050
56033W        W99049   7.379  33.624   3.482  0.0153  0.0741  0.2346
56034W        W99050  13.852  28.800  17.736  0.1392  0.1514  0.1900
56035W        W99051  23.889   2.821   5.354  0.0336 -0.0009 -0.1549
56036W        W99052   2.819  11.166   8.833 -0.0907  0.0836  0.1952
56037W        W99053  20.688  11.471  27.809 -0.1648 -0.0470 -0.0609
56038W        W99054  17.390   8.977  28.054 -0.1595  0.0639  0.3254
56039W        W99055  31.179  32.875   7.728 -0.0306  0.3280 -0.4253
56040W        W99056   5.606   7.886  25.489  0.1627 -0.0204 -0.1862
56041W        W99057  15.692  32.146   4.213  0.0252  0.0288 -0.3429
56042W        W99058  33.342   3.159   6.966  0.4180 -0.0923  0.0111
56043W        W99059  23.073   0.574   9.905 -0.2171  0.0298  0.0645
56044W        W99060   6.799  34.635   6.918 -0.0102 -0.3467 -0.1608
56045W        W99061  34.554  12.448  19.019  0.0633  0.4162  0.0604
56046W        W99062   0.473   7.503   2.915 -0.0429 -0.0664  0.0956
56047W        W99063   1.675   3.477   3.710 -0.2260  0.0396  0.1967
56048W        W99064   8.024  20.800   3.884  0.0472  0.0499  0.1236
56049W        W99065  17.327  32.552   6.807  0.3831  0.2849  0.0519
56050W        W99066   9.172   2.650  22.515 -0.0694  0.0645 -0.2568
56051W        W99067  14.723  11.916   5.670  0.1654 -0.1185 -0.1349
56052W        W99068   2.503  16.987   0.592  0.0854  0.3742 -0.1081
56053W        W99069   4.877  34.002  28.047  0.1627  0.0554  0.1259
56054W        W99070  21.188  11.067  27.181 -0.0150 -0.2719  0.0383
56055W        W99071   4.651   7.244   1.018  0.1799 -0.1750 -0.0036
56056W        W99072   2.862  34.367   7.138 -0.2131  0.2458 -0.1609
56057W        W99073   5.508   0.038   0.370  0.0035  0.0921 -0.2861
56058W        W99074   4.469   0.056  24.441 -0.0093  0.0593 -0.0633
56059W        W99075   1.982   1.802   4.877 -0.4854 -0.0483 -0.0815
56060W        W99076   1.365  28.356  25.276  0.0374  0.0913  0.0144
56061W        W99077   1.626   0.714   5.817  0.0835  0.1391  0.0433
56062W        W99078   2.496  29.319   1.040 -0.1641  0.0144 -0.0457
56063W        W99079  15.397  31.928  25.808 -0.1528 -0.0393 -0.0544
56064W        W99080   6.320  29.903   9.833 -0.1009  0.0448  0.0112
56065W        W99081  29.436  24.513  27.864 -0.3883 -0.0442  0.0366
56066W        W99082  30.270  23.067   3.057 -0.2360  0.0466  0.2233
56067W        W99083  13.143  33.211   0.841 -0.0886 -0.0028  0.1283
56068W        W99084  22.969  18.590   4.647 -0.2012  0.0922 -0.2246
56069W        W99085  10.797  16.545   8.209  0.4868 -0.0042  0.3621
56070W        W99086  28.938   6.329  28.647 -0.0337 -0.2195  0.0011
56071W        W99087  31.726   9.248   7.272 -0.0941  0.0548 -0.0796
56072W        W99088  27.654   7.172  20.887 -0.0545 -0.0959 -0.2243
56073W        W99089   1.124  19.721   2.259 -0.0856 -0.1793  0.1359
56074W        W99090  13.755  18.820  20.721 -0.1893 -0.2325 -0.3355
56075W        W99091  32.958  21.261   3.274  0.1756  0.1312  0.1762
56076W        W99092   5.278   6.667  23.901 -0.0305 -0.0319  0.3064
56077W        W99093  28.470  33.397  11.026  0.0160 -0.0777 -0.0075
56078W        W99094  12.240   9.806   4.078  0.2604 -0.0906  0.1294
56079W        W99095   2.590  10.523   0.226 -0.0167  0.1144 -0.3801
56080W        W99096  33.712   2.657   2.017  0.0919 -0.2530  0.2240
56081W        W99097   2.188  25.491  15.878 -0.1746  0.1680 -0.2358
56082W        W99098  33.994  32.957  28.857 -0.2851 -0.1949  0.0258
56083W        W99099  26.325  18.765  27.671 -0.0949  0.1244  0.1738
56084W        W99100  26.451  19.824   3.091 -0.0042  0.1033  0.1736
56085W        W99101  30.932  27.223   0.737  0.0204  0.0229 -0.2142
56086W        W99102  13.597  21.281  28.361 -0.0493  0.0898  0.0247
56087W        W99103  30.523  26.190   2.982  0.2189  0.3258  0.1521
56088W        W99104   0.199  30.887  27.316  0.0356 -0.1823  0.1687
56089W        W99105   0.573  12.112   6.299  0.1370  0.2236  0.0008
56090W        W99106  28.411  31.583  16.843  0.3030  0.1467  0.2462
56091W        W99107   1.128  13.650   1.097 -0.0343  0.1834  0.1756
56092W        W99108  10.943   3.394   8.246 -0.0946 -0.0623  0.1745
56093W        W99109  11.079   7.522  13.379 -0.0025 -0.2044 -0.0314
56094W        W99110   9.212  31.847   0.682 -0.0596  0.1441 -0.0379
56095W        W99111  10.434   7.468  26.758  0.1074  0.0832 -0.1458
56096W        W99112   1.020   4.959   8.375  0.2810 -0.0714  0.2388
56097W        W99113   1.968   3.182  26.041 -0.2037  0.2403 -0.1331
56098W        W99114  34.476  13.812  25.973 -0.1311  0.0806  0.0417
56099W        W99115   3.763   3.019   5.251  0.1334 -0.2906  0.1288
56100W        W99116  27.743  32.617  12.172  0.1349 -0.0417 -0.0663
56101W        W99117  32.953   7.916  27.938 -0.2879 -0.1802  0.3621
56102W        W99118  30.620   8.932  26.069  0.1780 -0.1812  0.0787
56103W        W99119   5.500  30.696   4.337 -0.0388 -0.0121 -0.0058
56104W        W99120   8.242   5.663   2.551 -0.1033  0.0480  0.0777
56105W        W99121  16.754   2.695   1.258 -0.0431 -0.1082 -0.0341
56106W        W99122  12.369  10.674  28.488  0.0916 -0.3895  0.0399
56107W        W99123   9.570   1.258   6.765  0.1142  0.0370  0.0196
56108W        W99124   1.388   8.920   0.899  0.1452 -0.1025 -0.2505
56109W        W99125  32.893   3.676   5.252  0.3426  0.2575 -0.1144
56110W        W99126   0.523   1.344   1.499 -0.0751  0.0297  0.1790
56111W        W99127  20.238   0.212   5.218 -0.0905 -0.2411  0.2120
56112W        W99128  33.102  24.174  26.829  0.1020  0.0672 -0.2977
56113W        W99129   3.528  31.399  24.878  0.3535 -0.3807 -0.1254
56114W        W99130  28.163  32.882  11.115 -0.0765 -0.1414 -0.1255
56115W        W99131  32.658  24.375  24.363 -0.0633 -0.1507  0.1924
56116W        W99132   8.078   3.927   1.289 -0.1130  0.1779  0.2058
56117W        W99133   2.771  10.798   9.273 -0.2768  0.1770 -0.1186
56118W        W99134   3.731  32.742   7.491  0.0048  0.0631  0.0311
56119W        W99135  19.093  22.035   2.519  0.1461 -0.3391 -0.3414
56120W        W99136   2.159  33.800   9.672  0.1177  0.2375  0.0218
56121W        W99137   0.099  13.921   3.877 -0.0273  0.1993 -0.1728
56122W        W99138  33.130   3.424  28.671  0.1596  0.0144  0.2164
56123W        W99139   5.418  19.409   7.481  0.1622  0.1032 -0.3990
56124W        W99140  30.205   1.969   8.752 -0.1405 -0.2000 -0.0388
56125W        W99141  16.401  24.034   6.571  0.2271 -0.1690  0.2054
56126W        W99142   3.722  31.982  21.136  0.2728 -0.0555 -0.1173
56127W        W99143  22.389  26.557  25.461 -0.1585 -0.2327  0.0390
56128W        W99144   3.249   8.254   3.904  0.3035  0.2665 -0.1727
56129W        W99145   5.731  28.262   4.799  0.1247 -0.1036 -0.4675
56130W        W99146  10.897  25.908   8.421  0.1374  0.0403  0.0022
56131W        W99147  34.073   0.321  29.135  0.2426 -0.0272  0.1651
56132W        W99148   1.271  19.659   3.992  0.2076  0.0269  0.2042
56133W        W99149   9.003  14.502   4.235 -0.1178 -0.0432  0.1561
56134W        W99150  14.917  15.054  21.854 -0.2318  0.4480 -0.0714
56135W        W99151  33.284  10.917   8.002  0.1484 -0.1808 -0.2653
56136W        W99152  10.324  30.993  15.530  0.2420  0.2569  0.0826
56137W        W99153  26.183   4.544  27.242  0.0390  0.0117  0.1455
56138W        W99154  30.415  34.167   9.242  0.0895  0.0131 -0.3088
56139W        W99155  29.976  28.953   4.358  0.1984  0.1721  0.2472
56140W        W99156   2.843  11.271   7.060 -0.1282 -0.3241  0.1448
56141W        W99157   6.249   4.600   8.416 -0.2201  0.0568 -0.0979
56142W        W99158   5.505   3.492   8.189 -0.1339  0.1025  0.4682
56143W        W99159  21.060   3.034  28.215 -0.2393 -0.0464 -0.0354
56144W        W99160  21.441  16.541   3.272 -0.0429  0.0110 -0.1449
56145W        W99161  27.582  34.626  10.796 -0.1816 -0.0556 -0.2047
56146W        W99162  22.933  33.563   2.778  0.0585  0.1557  0.0769
56147W        W99163  28.058  28.779  19.879 -0.0160  0.1356 -0.3236
56148W        W99164   4.237  28.427  20.991  0.1304 -0.1435  0.1940
56149W        W99165   7.809  24.822   5.268  0.1894 -0.1215  0.1623
56150W        W99166   1.252  12.089  20.172 -0.1844 -0.3458 -0.0142
56151W        W99167   4.159  14.210  10.143  0.3111  0.0563 -0.0758
56152W        W99168   0.975  30.935  19.758 -0.0114  0.0032  0.1270
56153W        W99169  25.796   3.351   9.103  0.2109  0.3353 -0.2671
56154W        W99170  24.831   0.592   3.791  0.1702  0.0004  0.1152
56155W        W99171   6.243  11.892  19.355 -0.0097 -0.1619  0.2798
56156W        W99172  23.746  28.951  28.237 -0.1058 -0.1526 -0.2665
56157W        W99173   0.926  32.932   0.290  0.0462 -0.1198  0.2275
56158W        W99174   2.841   1.241  28.855  0.1339  0.1247  0.0099
56159W        W99175  26.164  14.012   0.169  0.0849  0.1172  0.4668
56160W        W99176   4.428   9.241   4.252 -0.0432 -0.0420  0.1028
56161W        W99177  16.526   1.774  23.432  0.2100 -0.3270  0.2400
56162W        W99178  13.599  10.336  26.757  0.1038  0.0327 -0.1922
56163W        W99179  17.361   3.894   6.149  0.1841 -0.1536 -0.1954
56164W        W99180  32.615   6.715   8.168 -0.2289 -0.0969  0.0375
56165W        W99181  32.484   2.311   0.129  0.0520  0.3609  0.1215
56166W        W99182   2.561   9.408   4.462 -0.0606  0.4938  0.0114
56167W        W99183  22.635  13.517  21.544 -0.0749  0.0246  0.2393
56168W        W99184  33.162   5.588   9.946 -0.0774  0.1667  0.1586
56169W        W99185  15.376  11.245   5.364 -0.0585 -0.2354  0.2438
56170W        W99186   8.564  20.626   8.008  0.1569  0.1160 -0.0974
56171W        W99187   9.820  29.792   4.086 -0.2106  0.1851  0.1885
56172W        W99188   7.097  21.832   4.989  0.2183 -0.1995 -0.0279
56173W        W99189  32.123   2.297   5.008  0.1881 -0.1046 -0.0035
56174W        W99190   5.040  32.986   9.709  0.3035  0.2663  0.3915
56175W        W99191   7.676   2.975  23.526  0.3874  0.1409  0.1621
56176W        W99192  34.401  28.393   7.539 -0.2887  0.0641  0.1697
56177W        W99193  20.121   7.644  21.969  0.0332  0.2162  0.4433
56178W        W99194  23.689   8.508   8.814  0.1081  0.2059 -0.0390
56179W        W99195   0.300   0.791  24.403 -0.2228 -0.0446  0.0458
56180W        W99196  34.746  30.576   3.839 -0.0807 -0.0905  0.0372
56181W        W99197  29.793  33.707   9.762  0.1187 -0.2160  0.1001
56182W        W99198  24.499  19.835   8.516  0.1116 -0.2688 -0.1772
56183W        W99199   4.294   5.222   8.576 -0.1467  0.2012 -0.1229
56184W        W99200   6.321  21.819  29.117  0.0796 -0.0792 -0.0018
56185W        W99201  33.877   4.182   3.873  0.0942  0.2324 -0.0597
56186W        W99202  13.703  11.150   3.463  0.1771 -0.2745 -0.0626
56187W        W99203   6.869   7.347   6.809  0.0023 -0.0524  0.1013
56188W        W99204   0.605  30.729  25.797 -0.5341  0.3315  0.3536
56189W        W99205   1.540  10.736  28.306  0.0022  0.0609  0.0812
56190W        W99206  15.168  33.041   4.750 -0.1043 -0.1875 -0.2770
56191W        W99207  31.381   3.394   1.130  0.1017  0.0819 -0.1479
56192W        W99208  27.942  14.265  22.536  0.1963  0.2393  0.1911
56193W        W99209   0.597  31.936  22.341  0.1217  0.2162 -0.3147
56194W        W99210  16.596   5.134   4.451 -0.1563  0.3404 -0.0368
56195W        W99211   7.696   9.909  28.176  0.1026 -0.2220 -0.2095
56196W        W99212  26.604  29.365   4.936  0.2883 -0.2815  0.2378
56197W        W99213  26.131  19.777   8.584 -0.0163 -0.1006  0.0153
56198W        W99214  13.801  14.309   4.649 -0.0652  0.0313  0.3290
56199W        W99215  13.394   2.051  26.092 -0.2425  0.1605  0.1201
56200W        W99216  32.885   1.565  20.811 -0.3331  0.0782 -0.0434
56201W        W99217   9.133  26.208   7.503  0.2465  0.1861 -0.2402
56202W        W99218  29.021  10.512   3.105  0.0304 -0.1680  0.4025
56203W        W99219  22.091  21.223   3.512  0.1952  0.1780 -0.3935
56204W        W99220   2.443  32.358  18.860 -0.4335 -0.0963 -0.1873
56205W        W99221   3.250   3.650  20.698 -0.2534 -0.1655  0.1571
56206W        W99222  33.037  29.747  23.579  0.1156 -0.0722  0.0867
56207W        W99223  10.530  13.937   0.345  0.3451  0.0031 -0.4006
56208W        W99224  17.293   2.587   6.774  0.0414  0.3596  0.4201
56209W        W99225   6.948  30.853   3.622 -0.2196 -0.2860  0.3413
56210W        W99226   4.397   9.976  29.252 -0.1121 -0.0787 -0.2487
56211W        W99227  32.048  23.666  26.748 -0.2303  0.0592 -0.0554
56212W        W99228   1.486   6.524   9.000  0.1307 -0.0807 -0.0990
56213W        W99229   1.194  33.396   5.492 -0.1047 -0.2702  0.3034
56214W        W99230  19.118   4.683  27.094 -0.2452 -0.1654 -0.0899
56215W        W99231   3.139  27.211   9.422 -0.1003 -0.1046 -0.0849
56216W        W99232  34.348  32.581  28.950  0.1756  0.1124  0.1585
56217W        W99233   3.206  11.986  17.285  0.1741  0.4288  0.0013
56218W        W99234   7.739  16.234  21.433 -0.1380 -0.0219  0.2827
56219W        W99235  24.917  33.642  25.048 -0.0750  0.0977  0.0750
56220W        W99236   2.058   2.985  27.902 -0.5379 -0.0821  0.0576
56221W        W99237   5.728  30.383  26.336 -0.1795  0.2016 -0.1737
56222W        W99238  23.296  21.704  16.457  0.6882  0.0528 -0.0344
56223W        W99239   5.264  30.501   5.904 -0.2042  0.1620  0.1272
56224W        W99240  34.402  23.648   3.785 -0.1631  0.0086  0.2534
56225W        W99241   8.260   8.372  20.253 -0.1089 -0.1366  0.0837
56226W        W99242  30.181   1.087   6.324 -0.1755 -0.1795  0.2817
56227W        W99243   0.089  11.014   0.441 -0.0244  0.0241  0.0828
56228W        W99244   8.732   1.013   5.366  0.1965 -0.0483 -0.0681
56229W        W99245   6.285  18.244  27.175  0.3794  0.3275  0.1963
56230W        W99246  11.541  32.460   5.672  0.0479 -0.1739 -0.2509
56231W        W99247   5.733   8.869   2.158 -0.0013 -0.2401  0.2476
56232W        W99248   0.280   1.368  27.102  0.1498  0.2103  0.0908
56233W        W99249   4.935  17.527   3.089  0.0037  0.0063  0.2080
56234W        W99250   4.662  28.769   6.184  0.0386  0.0968  0.1492
56235W        W99251  25.833   0.057  27.675  0.2188  0.2406  0.1246
56236W        W99252  28.970  22.236  10.028  0.1826 -0.0090  0.1689
56237W        W99253   6.267  22.790   6.698  0.1135 -0.0028 -0.1344
56238W        W99254  22.584  28.012   8.493 -0.0464 -0.1691 -0.2360
56239W        W99255   1.881  33.551   4.537  0.0587 -0.1988 -0.1172
56240W        W99256   4.398  21.872   6.708 -0.1092  0.0523  0.0251
56241W        W99257   0.697   5.835   8.417  0.1311  0.2193 -0.1791
56242W        W99258  16.204   7.004  18.722 -0.2255 -0.4076 -0.1791
56243W        W99259  31.107  23.882   3.827 -0.3346 -0.1678  0.2367
56244W        W99260  13.292  23.636  26.873 -0.0050 -0.1898 -0.3820
56245W        W99261  27.414  30.290   7.654 -0.1068  0.0851 -0.1148
56246W        W99262  32.336   9.532   4.904  0.1169  0.3008 -0.4097
56247W        W99263  25.593   3.060  26.428 -0.0196  0.0882 -0.3228
56248W        W99264  25.884  26.724   4.651 -0.0240 -0.1626 -0.1421
56249W        W99265   7.831   2.224  21.023 -0.0879  0.0048  0.0550
56250W        W99266   3.768  10.248   9.333 -0.1216 -0.2355 -0.0568
56251W        W99267   4.571  16.135  21.688  0.2937 -0.1999 -0.1183
56252W        W99268   0.021   8.859  10.909 -0.3361  0.0661  0.5010
56253W        W99269  19.423  28.048   1.297 -0.0204 -0.2335 -0.1544
56254W        W99270   5.574  10.028  19.190 -0.0897  0.1351  0.0993
56255W        W99271   6.806   8.108   7.539  0.1568 -0.1876  0.0072
56256W        W99272  24.816  26.860   4.229 -0.3520 -0.0198  0.0892
56257W        W99273   7.382   0.227  28.545 -0.0661 -0.1632  0.1281
56258W        W99274  32.189   1.703  27.621  0.0178 -0.2409  0.0287
56259W        W99275  19.682   9.514  25.943 -0.2756 -0.2611 -0.0148
56260W        W99276  33.026  14.011   2.680  0.0260 -0.0873  0.0284
56261W        W99277  25.749   5.482  21.014 -0.4665 -0.3968 -0.0050
56262W        W99278  33.950   9.621   9.488  0.1829 -0.2229  0.3081
56263W        W99279   2.117  30.900  10.312 -0.0751 -0.1581  0.0247
56264W        W99280   0.761  17.725  27.043  0.0750 -0.2964  0.1120
56265W        W99281   8.189   3.974  27.379 -0.4886  0.1963 -0.0317
56266W        W99282  31.953  33.596   4.596  0.0722  0.0335  0.0218
56267W        W99283  28.611  25.896  10.065  0.2408 -0.1070  0.2481
56268W        W99284   4.595  28.900  23.567 -0.0702  0.3060  0.1956
56269W        W99285  11.951  33.984  10.934  0.1672  0.0397  0.1207
56270W        W99286  10.784  28.567  21.464  0.0523 -0.1296  0.2394
56271W        W99287  25.679  13.387   8.218  0.1114  0.2256  0.3190
56272W        W99288  29.288   5.495   1.522 -0.2560  0.2772  0.0832
56273W        W99289   9.482  10.767   8.607  0.2779 -0.0055 -0.1160
56274W        W99290  13.076   0.034  28.700 -0.1104  0.2517  0.1693
56275W        W99291  15.718   8.916  19.612 -0.4002 -0.2627  0.1000
56276W        W99292  27.600   5.712   4.677 -0.0672  0.1713 -0.0925
56277W        W99293   5.775  20.227   3.279  0.1559 -0.0910 -0.0052
56278W        W99294   8.857   6.404  26.203 -0.2509 -0.2019  0.0773
56279W        W99295   3.098   6.665   7.596  0.1754  0.2189  0.0799
56280W        W99296   2.343  25.186   4.314 -0.1700 -0.2221  0.0588
56281W        W99297   4.906  25.416   7.954 -0.0234 -0.6140 -0.2687
56282W        W99298   7.146   0.743   5.327  0.4006 -0.1091  0.0766
56283W        W99299  17.539  32.621   0.069  0.0991 -0.1376 -0.0583
56284W        W99300  22.248   2.559  10.034 -0.0080 -0.1646 -0.0555
56285W        W99301   3.532  33.231   7.249  0.0016 -0.2028 -0.0328
56286W        W99302  11.737  14.141   6.569 -0.2024  0.0140 -0.0515
56287W        W99303  28.145  33.238   5.704 -0.0831  0.1647  0.4006
56288W        W99304   4.628  10.659   2.172  0.1830 -0.0283  0.2502
56289W        W99305   1.281  30.066  28.883  0.1791  0.2149 -0.3469
56290W        W99306   6.770  17.751   4.561  0.0291 -0.1053 -0.1019
56291W        W99307  27.363  12.608   6.183 -0.1578 -0.0408 -0.2153
56292W        W99308  31.494  27.029   3.266  0.1652 -0.1288 -0.0406
56293W        W99309  19.464  16.223  23.573  0.2845  0.0788 -0.0823
56294W        W99310   6.994  12.827  21.024 -0.4474  0.0357  0.1786
56295W        W99311   2.290  17.527   4.272 -0.2533  0.2692  0.1560
56296W        W99312  30.258   6.415  29.298  0.2971  0.2593 -0.0167
56297W        W99313   1.432   3.152   6.829 -0.2988 -0.0674  0.1371
56298W        W99314   4.575  23.742   0.149  0.0703 -0.0710 -0.1421
56299W        W99315  13.420  29.850   5.712  0.0100 -0.0831 -0.1457
56300W        W99316   7.062  32.228   9.003  0.1218 -0.0976 -0.1023
56301W        W99317  10.119   2.599   1.018  0.0296 -0.1302 -0.3722
56302W        W99318   0.267  23.214  20.820 -0.1089 -0.0120  0.1123
56303W        W99319  28.015  33.242   6.600  0.1415  0.3859  0.1818
56304W        W99320  33.143  27.371  23.945  0.0403 -0.0686 -0.2150
56305W        W99321  15.895   3.839   2.818  0.1941  0.0976  0.0530
56306W        W99322   8.055  15.267   0.613  0.1260  0.3158  0.0058
56307W        W99323   0.117   6.200  20.608 -0.1761  0.2259 -0.1897
56308W        W99324  21.064  27.489  10.119 -0.3187 -0.0795 -0.0298
56309W        W99325  10.014   0.254  26.614  0.0149  0.1849  0.0542
56310W        W99326   7.540  13.957   0.714  0.0310 -0.2384  0.0178
56311W        W99327   4.485  27.427   9.235  0.2666 -0.2760 -0.0639
56312W        W99328  19.029  25.336   4.099 -0.0050 -0.0796 -0.1227
56313W        W99329  12.715  30.233   3.462 -0.3369 -0.0183  0.0862
56314W        W99330   2.160   6.420   9.612 -0.0627  0.1495  0.0275
56315W        W99331  34.480  34.282   4.883 -0.0601 -0.2675  0.1049
56316W        W99332   7.077  14.327  21.857 -0.0231  0.2743  0.1146
56317W        W99333  17.416  15.031   5.532 -0.1498 -0.1032  0.0532
56318W        W99334  17.685  14.484   4.175  0.1277 -0.1438  0.1124
56319W        W99335   0.464  32.797   6.972  0.0415  0.1450 -0.0874
56320W        W99336   4.724   0.564  22.330 -0.1604  0.2362 -0.1991
56321W        W99337   9.259  32.921  25.161 -0.3017  0.0762 -0.2122
56322W        W99338  31.665  14.590   2.340  0.0190 -0.2909 -0.1647
56323W        W99339  29.103  25.716   5.519 -0.0925 -0.1752  0.3267
56324W        W99340   4.422   6.603   0.239 -0.2635 -0.0972  0.1604
56325W        W99341   0.633   8.623   9.233  0.1118  0.4258 -0.0601
56326W        W99342  16.019   5.605  26.799 -0.0174 -0.1090  0.1962
56327W        W99343  31.434  15.625   6.181  0.2268  0.1267  0.0705
56328W        W99344   4.691  26.010  26.702  0.3243 -0.1836 -0.2846
56329W        W99345   6.703  13.361   4.078  0.1798  0.1528 -0.0295
56330W        W99346   2.547   0.800   7.555 -0.0892 -0.3908  0.0774
56331W        W99347  32.364  24.772   5.419  0.0386 -0.0506 -0.0331
56332W        W99348   2.956  25.386  18.030  0.0983  0.0521  0.0804
56333W        W99349   1.647   9.811   6.418  0.0279 -0.0826 -0.2500
56334W        W99350  32.758   8.463   3.637  0.0765  0.0770 -0.1381
56335W        W99351  30.854  24.124  25.802  0.2871  0.1157  0.3585
56336W        W99352  22.430  14.636   1.966 -0.1562  0.0927  0.3822
56337W        W99353   8.486   6.592   6.461 -0.1974 -0.2137  0.4613
56338W        W99354  10.036  24.733   9.057  0.1072 -0.2591  0.0985
56339W        W99355   2.036   6.228   8.406  0.0769 -0.0373  0.1014
56340W        W99356   7.083   0.226   5.173  0.0448  0.1365 -0.1172
56341W        W99357  18.435  14.194  18.608 -0.2209 -0.0971  0.1475
56342W        W99358   1.154   1.445   2.112  0.0656 -0.0910 -0.0443
56343W        W99359  31.431  33.463  24.470  0.1553 -0.2801 -0.0480
56344W        W99360  34.631  29.531   1.725 -0.3055 -0.0870  0.0537
56345W        W99361  24.361  27.198   5.718  0.1156 -0.0049 -0.3661
56346W        W99362  19.445   6.827  18.016  0.1210  0.1551  0.1097
56347W        W99363   6.707   2.190  27.450 -0.4077 -0.3013  0.0534
56348W        W99364   0.050   5.009   8.492 -0.4067  0.0633  0.0400
56349W        W99365   8.243  30.528   0.796 -0.1459  0.1649 -0.2470
56350W        W99366   1.468   3.450   9.845 -0.1369  0.2781 -0.1101
56351W        W99367  26.640  26.223  28.158 -0.3978 -0.0308  0.4482
56352W        W99368   6.493   8.005  10.295 -0.0623  0.0531 -0.2187
56353W        W99369  27.775   1.568   8.408  0.2071 -0.1499 -0.1888
56354W        W99370   3.077  33.037   3.317 -0.0398  0.0171  0.2102
56355W        W99371   8.050  25.126   3.248  0.2308  0.3795 -0.0419
56356W        W99372  12.032  12.610   2.429 -0.0094 -0.2327 -0.0753
56357W        W99373   8.664   2.205   6.492 -0.0808 -0.0759  0.1469
56358W        W99374  30.527  14.039  27.193 -0.0523  0.0255  0.0233
56359W        W99375  29.469   4.708   5.803  0.0994 -0.3395  0.2864
56360W        W99376  32.005   9.725  25.595  0.0823 -0.0032 -0.0065
56361W        W99377   3.817   3.390  10.889  0.0705  0.0585 -0.1977
56362W        W99378  32.908  30.805   3.577  0.2148  0.0634 -0.0591
56363W        W99379   4.960   4.949   8.210 -0.2264 -0.0819  0.1083
56364W        W99380  24.047   7.885  23.559  0.2179  0.0732 -0.3744
56365W        W99381  31.894  31.334   6.287 -0.2780 -0.3180 -0.1975
56366W        W99382   7.873   9.758  22.040 -0.2810  0.1601  0.4285
56367W        W99383  29.157   1.835  10.620  0.0693 -0.0980  0.1985
56368W        W99384  32.014  17.519  23.572  0.0684 -0.0988  0.1523
56369W        W99385   8.038  13.506   9.667  0.0298  0.1233 -0.1315
56370W        W99386  22.828  16.054   2.566  0.1357 -0.1384 -0.4279
56371W        W99387  27.458   7.949   4.672 -0.1810 -0.4308  0.4714
56372W        W99388  32.699  11.239  20.820 -0.0956  0.1659  0.3292
56373W        W99389  16.671  19.641   8.176 -0.0810 -0.2514  0.2591
56374W        W99390  30.731  29.638  10.499 -0.0222 -0.1249 -0.1168
56375W        W99391  28.735   9.517  28.578 -0.0871  0.0045 -0.0048
56376W        W99392  33.971  34.047   3.755 -0.1225 -0.2826  0.1681
56377W        W99393  27.471   2.044   1.617 -0.2205  0.1206  0.0676
56378W        W99394   2.895   4.014   6.446 -0.2984  0.1749 -0.1930
56379W        W99395   1.194  17.405   8.783 -0.1170 -0.3693  0.1554
56380W        W99396  28.571  29.371   3.326 -0.0997  0.1711  0.1206
56381W        W99397  30.416  27.911  10.206 -0.1030  0.1613 -0.1453
56382W        W99398  24.900  17.938  18.209 -0.0539 -0.1325  0.1242
56383W        W99399   2.416  25.528   3.205 -0.1541 -0.0853  0.1387
56384W        W99400  26.985   6.460   7.684 -0.0037 -0.1112 -0.0374
56385W        W99401   4.611   5.145  21.465 -0.0030  0.1636  0.1917
56386W        W99402   7.396  28.165  27.360  0.2440  0.0695  0.2349
56387W        W99403  31.076   6.825   7.566 -0.1293 -0.0589 -0.0954
56388W        W99404   0.565   8.130   9.358 -0.0461  0.2583  0.1202
56389W        W99405   1.844  27.757   6.669 -0.0606 -0.0326 -0.2858
56390W        W99406  17.666  30.123  28.874  0.1989 -0.3337  0.0243
56391W        W99407   0.821  31.360  28.722 -0.1774 -0.3912 -0.1852
56392W        W99408  19.003  22.229  26.806  0.1025  0.2078 -0.1607
56393W        W99409   0.677   0.330   7.092  0.0985  0.0989  0.1794
56394W        W99410   1.944  22.915  22.155 -0.2050  0.4159 -0.1332
56395W        W99411   2.088  28.758   9.760  0.1940 -0.2154 -0.4159
56396W        W99412  33.779  10.428   1.650  0.5036  0.1256 -0.2274
56397W        W99413  29.003   9.494  29.080  0.1747  0.1240  0.0557
56398W        W99414   4.051   2.082   3.026 -0.3189 -0.2134 -0.1758
56399W        W99415   1.113   1.828   8.032  0.1455  0.0297  0.0045
56400W        W99416   6.543  11.047   2.169 -0.2575  0.1673 -0.0809
56401W        W99417  12.565  33.595   3.173 -0.0240 -0.5319  0.3002
56402W        W99418   3.205   3.386  13.927  0.2090  0.0787  0.0651
56403W        W99419   1.692   3.404   7.173  0.1555  0.0435 -0.2728
56404W        W99420  18.567  22.787   6.765  0.2294 -0.0053  0.1113
56405W        W99421  16.208   6.197  22.221  0.1408  0.3106  0.0188
56406W        W99422   9.445   7.056   6.437 -0.0906 -0.2298  0.0310
56407W        W99423   6.439   6.445  20.718  0.1468  0.0258 -0.0851
56408W        W99424  26.321   6.682   8.279 -0.0873  0.2492  0.0791
56409W        W99425   0.037  33.014   6.603  0.0456  0.0602  0.0842
56410W        W99426   7.448   9.278  25.353 -0.0876  0.0877 -0.3383
56411W        W99427  32.236  15.706   9.535  0.1512 -0.0979 -0.0653
56412W        W99428  31.876  26.936  28.698 -0.4933 -0.1323 -0.0821
56413W        W99429   0.274  34.594  20.503 -0.1596  0.0468  0.1507
56414W        W99430  19.507  28.723  24.637 -0.0843  0.0227 -0.1703
56415W        W99431   2.327   7.912   5.890  0.0576  0.0435 -0.2775
56416W        W99432   1.790   6.925   4.315 -0.0751 -0.0564  0.1237
56417W        W99433  11.003   3.061   5.362  0.0069  0.0741 -0.2109
56418W        W99434   0.908  17.982  26.072 -0.1210 -0.0599 -0.0158
56419W        W99435  33.162   2.303  16.107 -0.0477  0.0625 -0.1539
56420W        W99436   4.209  17.852   6.717 -0.2380 -0.3052 -0.0239
56421W        W99437  11.757  32.277   4.419  0.1799 -0.0003 -0.2225
56422W        W99438  18.271  13.468   1.217  0.2940 -0.1920 -0.3358
56423W        W99439  21.611   0.786   0.282  0.3496 -0.0668  0.0222
56424W        W99440  11.016  27.746   8.715 -0.0171  0.1273  0.1908
56425W        W99441  32.057  16.206  26.661 -0.1091  0.0458 -0.1547
56426W        W99442  22.459   6.500   5.323  0.2529 -0.1405  0.0134
56427W        W99443   1.242   2.827   0.852  0.2332  0.1021 -0.0823
56428W        W99444  31.022  31.384   1.831 -0.1232  0.2925  0.0838
56429W        W99445  32.825  27.998   7.267 -0.1101 -0.1965  0.2224
56430W        W99446  11.770   7.826  29.266  0.1213  0.2215 -0.3122
56431W        W99447  13.284   6.647   1.719  0.1901 -0.1081  0.0822
56432W        W99448  14.496  27.904  28.129  0.1735  0.1204 -0.0581
56433W        W99449  29.419  31.269  10.271  0.0383  0.1721 -0.0250
56434W        W99450  28.986  31.949  10.718 -0.0219  0.3484 -0.1365
56435W        W99451   0.746   7.599   7.660  0.1134 -0.1831 -0.0549
56436W        W99452   8.176   1.444  26.985  0.0152 -0.0459 -0.0495
56437W        W99453  20.897   1.778  10.461  0.1346  0.1809 -0.0212
56438W        W99454  30.840  34.422   8.350  0.1392 -0.0294  0.1983
56439W        W99455  14.387   3.286   6.283 -0.0972 -0.1180 -0.0924
56440W        W99456   1.587  11.645   3.284  0.1297  0.1844  0.3085
56441W        W99457  22.011   2.401   6.672  0.0950  0.1143  0.0293
56442W        W99458  33.554  32.824   9.456 -0.1586 -0.3026 -0.0905
56443W        W99459  14.138   7.455   1.446 -0.2630  0.3256 -0.1623
56444W        W99460   1.943   6.898   6.730  0.0642 -0.0327  0.0446
56445W        W99461   2.430   0.728   5.861  0.1067  0.4507 -0.2760
56446W        W99462  33.421   4.210   8.745  0.1947  0.0710 -0.0777
56447W        W99463  32.840   0.848   6.359  0.0800  0.2715  0.1928
56448W        W99464   6.871   9.222   7.812 -0.0248 -0.2529 -0.1340
56449W        W99465   0.544   2.720  24.839 -0.0770 -0.2019 -0.0064
56450W        W99466   1.535   8.529  17.785 -0.2926 -0.0607 -0.3249
56451W        W99467  19.230  18.771  27.559 -0.2359 -0.0487  0.0019
56452W        W99468  31.534  14.692  22.816  0.1710 -0.0315 -0.0949
56453W        W99469  32.123   9.607   9.772  0.2290 -0.0941  0.0187
56454W        W99470  17.074   6.050  28.167  0.0702 -0.1699 -0.0751
56455W        W99471   7.759   0.230   2.273  0.0554 -0.0291  0.0818
56456W        W99472  25.686   2.966   4.692 -0.1149 -0.2145  0.0843
56457W        W99473  25.506  22.858   8.559 -0.5910 -0.1172 -0.1595
56458W        W99474  32.591  31.938   7.986 -0.3443 -0.1271  0.0781
56459W        W99475   4.912  33.796   6.689  0.4601 -0.0281 -0.0832
56460W        W99476  27.996  33.692  16.584 -0.2283 -0.2542  0.1843
56461W        W99477   0.713  33.065   9.493  0.1489 -0.3182 -0.0213
56462W        W99478  10.712   9.925   6.403  0.1067 -0.0837 -0.0901
56463W        W99479   1.818   1.337   5.122  0.0136  0.1506 -0.1657
56464W        W99480   6.927   8.251   1.849  0.3175  0.1671  0.2359
56465W        W99481  33.968   4.457   2.279  0.2298 -0.1063 -0.0599
56466W        W99482   7.209   8.216   4.128 -0.1018 -0.0033  0.4503
56467W        W99483   9.615   2.115   9.080  0.1352  0.2278 -0.0078
56468W        W99484  24.451   9.518  25.161 -0.0540 -0.3623  0.2137
56469W        W99485   6.285  29.434   4.511  0.1585  0.0964  0.3084
56470W        W99486  17.589  17.185  18.320 -0.1432 -0.1632  0.1686
56471W        W99487   1.111   1.310   6.588  0.1940  0.1327  0.1597
56472W        W99488   1.976  26.043   7.212  0.0732  0.0886 -0.1084
56473W        W99489   3.081   1.805   2.958  0.0258  0.2563 -0.1215
56474W        W99490   1.168  33.222   9.680  0.0096 -0.3131 -0.0018
56475W        W99491  34.093   5.691  25.325  0.0923  0.0576 -0.4171
56476W        W99492  33.801  20.077   4.574 -0.2311 -0.3049  0.0219
56477W        W99493  16.740  32.050   1.745 -0.0638  0.3436  0.0864
56478W        W99494   8.760  22.046   5.137 -0.2728  0.0962 -0.0181
56479W        W99495  34.557   3.194  28.892  0.2080 -0.1033 -0.0439
56480W        W99496  13.160   3.558   7.753 -0.1366 -0.1739 -0.0013
56481W        W99497   2.112  27.244   9.467  0.0560  0.0992 -0.0777
56482W        W99498   6.461   0.286   3.388  0.0115  0.2100 -0.1696
56483W        W99499  17.816  26.751  24.657 -0.0709 -0.1219  0.2759
56484W        W99500  16.766  26.627  25.457  0.1111 -0.1970 -0.0712
56485W        W99501   8.622  32.289   4.972  0.1412 -0.1620 -0.0447
56486W        W99502  32.860   1.047   7.997 -0.0841  0.0896 -0.2888
56487W        W99503  15.784   0.909   6.922  0.0324  0.2255 -0.0764
56488W        W99504   5.334  29.545  29.171 -0.6017  0.0843 -0.1876
56489W        W99505   7.965   0.409   5.622  0.1575  0.0963 -0.1870
56490W        W99506  13.120  25.509  24.098  0.3639  0.0929  0.1632
56491W        W99507   5.177   9.731   1.282 -0.0183  0.0103 -0.0850
56492W        W99508   2.733   8.855   2.203  0.0242  0.4991 -0.1090
56493W        W99509  25.795   3.902   1.357  0.1400 -0.1439 -0.1152
56494W        W99510  14.254  34.047   2.181 -0.1213  0.0204  0.1076
56495W        W99511  32.738  16.351  29.270  0.3421  0.1922  0.1692
56496W        W99512   6.815  10.771  29.237  0.0251  0.1225 -0.0126
56497W        W99513   1.617   4.399   4.864  0.2162  0.3912  0.1326
56498W        W99514  20.889  30.483  28.577 -0.1815 -0.2878  0.0121
56499W        W99515  22.234  14.931   0.740 -0.2994 -0.2726  0.2178
56500W        W99516  27.477  29.572  27.223 -0.1789  0.1138 -0.1009
56501W        W99517  15.452   0.094   2.890  0.0217  0.1919 -0.0421
56502W        W99518  21.967  26.303  27.297 -0.2338 -0.0392  0.1763
56503W        W99519  23.771  31.507   4.778 -0.4307 -0.3395  0.0293
56504W        W99520  32.720  28.496  25.698 -0.1123  0.1779  0.2612
56505W        W99521  26.070  13.048  23.302 -0.1559 -0.0066 -0.0700
56506W        W99522  31.696  20.669   1.576  0.0810 -0.0621 -0.0906
56507W        W99523  31.654  11.568   3.028  0.0094  0.3181 -0.2787
56508W        W99524   0.282  34.037  25.961  0.1163  0.3103 -0.0901
56509W        W99525  32.472   0.120   9.673 -0.0415  0.0384 -0.0720
56510W        W99526  31.441  26.825   8.707  0.1357  0.0555 -0.2667
56511W        W99527  26.000  21.157   9.795 -0.1047  0.6504 -0.0146
56512W        W99528  11.985  24.483  28.043  0.1392  0.4652  0.1748
56513W        W99529  33.340   7.414   8.538 -0.0831 -0.0354 -0.3968
56514W        W99530   4.418   5.304   5.244  0.3119 -0.2343 -0.2393
56515W        W99531   0.031   8.581  28.688 -0.0078 -0.1326  0.0135
56516W        W99532  34.566  31.150   2.067  0.0821  0.0561  0.1101
56517W        W99533   6.166  23.866   3.047 -0.1198  0.0918 -0.0906
56518W        W99534   1.334   3.986   7.797  0.0099  0.0325 -0.0210
56519W        W99535  13.679  31.495   8.613 -0.0046 -0.3044 -0.2716
56520W        W99536   2.261  17.441  25.087 -0.3522 -0.2226 -0.1006
56521W        W99537   0.876  33.660   3.576 -0.2001  0.1775  0.2629
56522W        W99538   0.479  14.328   7.420  0.2005  0.0623 -0.2679
56523W        W99539  10.193  13.647  26.367 -0.0776  0.1298  0.3146
56524W        W99540   1.867  23.371   2.741 -0.0409  0.5650  0.3078
56525W        W99541  13.186   0.114   1.068  0.1799  0.2010 -0.0559
56526W        W99542  32.622  25.261  14.391  0.0367 -0.1726  0.0965
56527W        W99543  34.267   9.549   7.976  0.0806  0.1542 -0.2740
56528W        W99544   7.761  10.425  26.858 -0.2682 -0.1561 -0.1353
56529W        W99545   4.639   7.698   4.281 -0.0486 -0.1880  0.2313
56530W        W99546   1.490   5.201   4.255  0.1825  0.0352  0.1381
56531W        W99547  32.128  29.704   5.983 -0.2369  0.0148 -0.2296
56532W        W99548   3.871   9.186   0.861 -0.3499 -0.1793  0.2773
56533W        W99549  30.722  22.942   4.030 -0.2192 -0.3594  0.0165
56534W        W99550  21.569  15.915   1.345  0.2978 -0.0803  0.1388
56535W        W99551  15.117  10.904   6.433 -0.0520  0.0105  0.0044
56536W        W99552  17.715   2.761   6.363  0.0152 -0.2487  0.2998
56537W        W99553  34.225  11.319   7.595  0.1296  0.1888  0.2342
56538W        W99554  10.886   3.914   4.211  0.1936  0.0741  0.2382
56539W        W99555  29.194  33.679   4.360 -0.1872  0.1000  0.1383
56540W        W99556   5.119   8.085  10.364 -0.2173 -0.2105 -0.1228
56541W        W99557  11.898   3.651  26.682 -0.0363 -0.1017 -0.5142
56542W        W99558  30.801  31.144   8.155 -0.0499  0.3461 -0.1612
56543W        W99559  13.453  15.977   2.824 -0.0524  0.0293  0.1617
56544W        W99560  26.695   5.407   7.425  0.1910 -0.5747 -0.0218
56545W        W99561   5.508   8.062   5.722  0.2289  0.0544 -0.1088
56546W        W99562  30.332  29.839  10.236  0.2478 -0.1761  0.1093
56547W        W99563  10.126   3.936   1.642  0.0045 -0.1846  0.0316
56548W        W99564  11.976  14.051  15.712 -0.2541  0.1463 -0.1242
56549W        W99565   5.139  28.843   5.137  0.1927 -0.0431  0.1176
56550W        W99566   6.160  16.252   1.550 -0.0039  0.1252 -0.2244
56551W        W99567  33.784   3.937  26.070 -0.1050 -0.1711 -0.0962
56552W        W99568   8.514  30.129   2.077 -0.3900 -0.1718  0.2333
56553W        W99569  20.249   3.611  21.174  0.5302 -0.0812 -0.2557
56554W        W99570  17.810   1.620   8.276 -0.2624  0.0137  0.2226
56555W        W99571  25.487   1.095   9.854  0.1420  0.0772 -0.3464
56556W        W99572  14.518   7.195  26.177  0.2903 -0.1286  0.1377
56557W        W99573  30.237   8.525   5.293  0.1431  0.1006 -0.0748
56558W        W99574  34.390  34.750   6.473 -0.0012  0.1344 -0.1593
56559W        W99575  26.590   6.926  25.118  0.3581 -0.3992 -0.1410
56560W        W99576  12.343  14.851  19.220  0.1640  0.0563  0.3541
56561W        W99577   2.475  29.254  26.722 -0.3070  0.3240  0.1363
56562W        W99578   0.867  30.198   3.612  0.0228  0.3925  0.0096
56563W        W99579   2.542  30.991   7.372 -0.0030  0.1490  0.0458
56564W        W99580   5.893   1.727   6.776 -0.1956 -0.5219 -0.4557
56565W        W99581  27.810  28.116   6.548  0.0195  0.2549 -0.2606
56566W        W99582   0.717  17.638   8.600 -0.0841  0.3011  0.4539
56567W        W99583  14.993  34.334   5.621 -0.1392 -0.0480 -0.1157
56568W        W99584   5.964  29.712   6.908  0.0371  0.0455  0.0307
56569W        W99585  22.546  22.936   3.602  0.1251 -0.3092 -0.1672
56570W        W99586   2.654   3.283  21.818 -0.1239 -0.2450 -0.0818
56571W        W99587  21.782   5.367   0.178  0.4025 -0.1646 -0.2987
56572W        W99588  25.596  24.886   6.510 -0.2706 -0.0856 -0.2324
56573W        W99589   1.677  33.197   9.926 -0.0838 -0.0214 -0.1086
56574W        W99590   8.142  32.728  27.851  0.2874 -0.0308  0.0249
56575W        W99591   5.067   5.964  10.954 -0.3494  0.3013 -0.3534
56576W        W99592   6.734  21.127  19.974  0.0046 -0.3786  0.2735
56577W        W99593   1.104  24.064   8.381 -0.1480  0.0120  0.3132
56578W        W99594   9.291   3.916  29.077 -0.0258  0.4359 -0.1158
56579W        W99595  15.943   9.062   4.652  0.2862 -0.2076 -0.1661
56580W        W99596  29.444  11.700   8.484  0.3624  0.0730 -0.2527
56581W        W99597  34.086  13.885   7.446  0.2730  0.1816  0.1385
56582W        W99598  20.024   2.848   6.714 -0.1939  0.4625 -0.0815
56583W        W99599   7.366  16.560   7.622  0.1575  0.5938  0.1665
56584W        W99600   1.746  18.410  24.277 -0.0822 -0.1125 -0.1714
56585W        W99601   0.647  23.128   9.782 -0.0578  0.0295  0.0146
56586W        W99602  29.713  25.983   1.923 -0.2926  0.4798  0.2698
56587W        W99603   2.767  21.235  23.136 -0.1109 -0.0260 -0.0293
56588W        W99604  22.484  28.071  25.189  0.2716 -0.1760  0.0894
56589W        W99605   7.024  25.955   4.184  0.3657  0.2351  0.1036
56590W        W99606  15.306  32.406  29.022  0.2661 -0.0769  0.0923
56591W        W99607   5.343   0.976   8.245 -0.0011  0.1319  0.0196
56592W        W99608   2.932   1.053   6.614  0.0745 -0.0478 -0.2101
56593W        W99609   5.879  34.176   8.582 -0.1562 -0.1558  0.0729
56594W        W99610   5.890   8.766  25.743 -0.0172  0.1140 -0.0123
56595W        W99611  18.201   1.199   1.344  0.2159 -0.1300  0.2318
56596W        W99612   2.185   0.737   8.522 -0.3617  0.1746 -0.2217
56597W        W99613  33.761  16.813  10.288  0.0860 -0.0712  0.0329
56598W        W99614  26.338  22.523   6.593  0.0101  0.0771 -0.0010
56599W        W99615  24.597   9.704   8.681 -0.2569 -0.1779 -0.0515
56600W        W99616  25.422  11.247   7.548 -0.0127  0.1992  0.0016
56601W        W99617  27.366  34.682   5.657 -0.0771 -0.2987  0.0674
56602W        W99618   3.281   9.854  25.574  0.1214  0.0780 -0.0812
56603W        W99619   6.736   2.755  24.475  0.2203  0.0991 -0.0113
56604W        W99620  12.971  21.985  26.872 -0.0945 -0.0877 -0.0291
56605W        W99621  33.458   7.193   1.973 -0.2326  0.5109 -0.0574
56606W        W99622  16.478  20.564   0.149 -0.2306 -0.2981  0.0081
56607W        W99623  32.159  22.012  28.175  0.0424  0.1351  0.3181
56608W        W99624   6.764   9.347  20.149  0.0244 -0.3041 -0.0008
56609W        W99625   3.519   8.650  21.072 -0.2818 -0.1657 -0.0199
56610W        W99626  32.369   8.137  23.405 -0.0651  0.1485 -0.0549
56611W        W99627   0.816  15.214   1.625  0.3064  0.1894  0.0555
56612W        W99628   0.325   6.294  26.233  0.0306 -0.1955  0.4611
56613W        W99629  20.909  34.587   3.847 -0.1571  0.1597  0.0082
56614W        W99630  10.404  13.987  25.532 -0.0898  0.2407  0.2438
56615W        W99631  31.170  24.696   3.482 -0.2642  0.1068 -0.1326
56616W        W99632   2.406   8.836   7.716 -0.0366  0.0437  0.1063
56617W        W99633  28.354  17.112   0.015  0.3261  0.2118  0.0255
56618W        W99634  32.870  33.312   3.904  0.3730  0.0200  0.1872
56619W        W99635   1.798   5.935  23.683  0.0630 -0.3392  0.0775
56620W        W99636  23.628   0.067   4.810 -0.1227  0.0118 -0.2099
56621W        W99637   1.672  33.103   8.249 -0.4895 -0.2704 -0.4132
56622W        W99638  33.474   1.291   9.828  0.2039  0.2457  0.1541
56623W        W99639   5.499   7.707  19.581 -0.2242  0.0233  0.0619
56624W        W99640  12.642   7.482   5.481  0.0823 -0.1987  0.0256
56625W        W99641  28.982   4.565   7.333 -0.0806 -0.0517  0.1089
56626W        W99642   0.449  10.192   4.582  0.0384 -0.2606 -0.0699
56627W        W99643  14.040   1.824  13.655 -0.1158 -0.0041  0.1770
56628W        W99644  26.031  34.391   6.321  0.0729 -0.0274  0.1115
56629W        W99645  26.683  13.753   6.033  0.0312  0.0854 -0.2078
56630W        W99646  27.673  34.670   3.549  0.1544 -0.0632 -0.0305
56631W        W99647  30.413  13.780   7.895  0.0712  0.0117 -0.0773
56632W        W99648   5.451  29.996  23.274  0.1900  0.5562 -0.4840
56633W        W99649  21.995   7.765  15.785 -0.1602 -0.2685 -0.0256
56634W        W99650   4.741  30.682   0.306  0.1811 -0.3479  0.0211
56635W        W99651  19.419  12.900  14.966  0.1650  0.0525  0.2208
56636W        W99652  15.234  25.865  27.805 -0.0631  0.1898 -0.0089
56637W        W99653  14.995  14.962   1.058  0.2731 -0.0090  0.1176
56638W        W99654  30.641  17.692  15.841  0.1515 -0.0242 -0.0882
56639W        W99655   2.136   5.746   8.180  0.3169 -0.1107  0.2277
56640W        W99656  10.274   5.264   7.149 -0.1739  0.1720  0.2117
56641W        W99657  33.465   7.084   7.531  0.1359 -0.1320 -0.0662
56642W        W99658  32.375  29.063  10.213 -0.1604  0.2594  0.0363
56643W        W99659   8.936   6.413  23.535  0.2536  0.0750  0.1406
56644W        W99660   3.474  11.176  20.289  0.1253 -0.1837  0.1059
56645W        W99661  34.305   9.158   6.286 -0.1705  0.0519  0.0500
56646W        W99662   6.323  15.158  21.209 -0.1291  0.1011 -0.0803
56647W        W99663   5.668  21.535  18.541 -0.1802  0.0414 -0.2513
56648W        W99664   7.337   0.122  24.017  0.1883 -0.0278  0.0747
56649W        W99665  27.915  31.312  24.025 -0.0166  0.0171  0.1166
56650W        W99666   7.476  17.429  22.994 -0.2573  0.4285  0.2298
56651W        W99667   4.734  22.209   0.774 -0.2245 -0.1593  0.2698
56652W        W99668  11.693   3.761   4.851 -0.1109 -0.0611 -0.1344
56653W        W99669  30.986  26.340   2.051 -0.2270 -0.4597 -0.4061
56654W        W99670  30.355  20.079   3.528 -0.2889 -0.0683  0.0352
56655W        W99671   1.491   2.359   7.233  0.1990 -0.0149  0.2063
56656W        W99672  28.799  12.496   6.824  0.1186  0.2276  0.0224
56657W        W99673   5.802   6.233  14.967  0.1737 -0.1354  0.0220
56658W        W99674   3.167  10.728   4.865  0.1366  0.3659  0.1893
56659W        W99675   4.984  15.666   6.871  0.0560 -0.0611 -0.3259
56660W        W99676   5.791  30.327   8.621  0.0331  0.0259  0.2566
56661W        W99677   2.801  29.521   2.656 -0.0925 -0.3689  0.0422
56662W        W99678   9.720  23.846  24.670  0.2830  0.1213  0.0073
56663W        W99679   2.208  12.117   5.133 -0.2519  0.0971  0.0240
56664W        W99680  32.392   2.048  10.017 -0.1691 -0.0346 -0.1007
56665W        W99681   8.204  14.056  29.099  0.2627  0.1810  0.0764
56666W        W99682  22.307  15.593   7.142  0.0978 -0.4101 -0.2167
56667W        W99683   0.276  14.562  19.709 -0.0453 -0.0206 -0.0281
56668W        W99684  11.085   5.856  28.587  0.0521 -0.1568 -0.1497
56669W        W99685  14.773  32.135  25.163 -0.0356  0.1950 -0.1280
56670W        W99686   4.212  12.548   3.796 -0.2492  0.0536 -0.2485
56671W        W99687  31.338  21.174   9.892  0.2382 -0.0892  0.2017
56672W        W99688  34.233   4.800  29.166  0.1126 -0.0962  0.3851
56673W        W99689  23.647  10.767   2.366  0.1986 -0.1859  0.1344
56674W        W99690  24.882  26.967  17.125  0.1141 -0.0523  0.0376
56675W        W99691   4.973  10.042  22.710 -0.1928 -0.1861 -0.2295
56676W        W99692   9.409   8.466   4.337 -0.0861  0.0247  0.0299
56677W        W99693  34.576  26.924   8.743 -0.0899  0.0784 -0.1583
56678W        W99694  23.759   4.205  18.042 -0.2574 -0.4663 -0.2498
56679W        W99695  34.448  22.426  24.841  0.0621  0.1745  0.0345
56680W        W99696  14.639  10.473   0.577  0.0636  0.0522 -0.3746
56681W        W99697  31.050  19.908  24.474  0.0525  0.0922  0.3574
56682W        W99698  31.660   6.959   9.843  0.2141 -0.3448 -0.1032
56683W        W99699  25.123  29.765  23.292  0.0770 -0.1984 -0.0290
56684W        W99700  29.024   0.330   8.432 -0.0175 -0.2336  0.2114
56685W        W99701   0.219  32.955  28.413 -0.1634  0.0525  0.0609
56686W        W99702  21.687  12.426  24.130 -0.2530  0.0480 -0.2745
56687W        W99703   5.864  20.552   0.279 -0.1530  0.0174 -0.1751
56688W        W99704  14.518   6.889   9.264  0.1709 -0.0669  0.0223
56689W        W99705   4.639  16.803  27.107  0.1582 -0.0789  0.1549
56690W        W99706   0.130  15.122  22.393  0.1932 -0.2180 -0.2807
56691W        W99707  29.795   3.799   7.044 -0.0995  0.1992  0.0714
56692W        W99708  26.466  16.671   8.772 -0.1212  0.0955 -0.0073
56693W        W99709  28.774  11.696   5.129 -0.0091  0.0771  0.2714
56694W        W99710  14.249  16.803  15.778  0.3025  0.0510  0.2355
56695W        W99711  27.751  33.914   9.206 -0.0840 -0.1938  0.0462
56696W        W99712   1.017  14.448   6.058  0.0928  0.2038  0.1362
56697W        W99713  14.294   1.700   6.435  0.1045 -0.1661 -0.0333
56698W        W99714  14.255   8.370   8.814  0.3716  0.1267  0.2707
56699W        W99715   5.605  33.652   5.899 -0.0044 -0.4641  0.2206
56700W        W99716   8.641   4.032  27.146  0.1120  0.0425  0.1074
56701W        W99717  32.423   1.017  26.551  0.1649 -0.0132 -0.1528
56702W        W99718  24.763  10.684  15.499 -0.5149  0.2296 -0.1688
56703W        W99719  23.222  32.891   6.995  0.2681 -0.0594 -0.1640
56704W        W99720  34.660   3.150  21.578  0.1270  0.2075 -0.0040
56705W        W99721  31.965  22.566  20.435  0.3232 -0.0833 -0.0110
56706W        W99722   7.967   5.764  28.365  0.0280 -0.0136 -0.0287
56707W        W99723  30.371   9.490   1.353  0.3486  0.1696 -0.1071
56708W        W99724  29.966  24.712   3.908 -0.1916  0.1749  0.3724
56709W        W99725  26.521  28.245  17.352 -0.0191  0.0223  0.0728
56710W        W99726  27.668  30.615   3.991  0.0413  0.0534  0.1093
56711W        W99727  28.317  31.294   4.289 -0.0752  0.0535  0.1224
56712W        W99728   2.806  25.554   2.318 -0.1858  0.2152 -0.2183
56713W        W99729  30.865  13.957  20.768 -0.1885  0.0212  0.1684
56714W        W99730   4.963   9.857   3.431  0.1735  0.0734 -0.3929
56715W        W99731  21.503  29.003  26.536  0.0377  0.0418 -0.0159
56716W        W99732   1.584  31.303   9.730  0.2109  0.1908 -0.2166
56717W        W99733  15.198  29.170   2.297  0.1149 -0.0676 -0.1950
56718W        W99734  30.646   5.273   2.147 -0.2150  0.2820 -0.0262
56719W        W99735   3.240  18.419   9.462  0.1822  0.1759 -0.0322
56720W        W99736  18.256  12.357   3.901 -0.1448  0.1461 -0.1911
56721W        W99737  27.403   5.161  17.011  0.1296 -0.0972 -0.0390
56722W        W99738  30.897  32.614   5.028  0.1394 -0.2062 -0.3437
56723W        W99739  27.312  32.307   8.375  0.2578  0.1490 -0.3656
56724W        W99740   3.414   0.158   6.261  0.1360  0.1477  0.1692
56725W        W99741  26.236   2.374   6.800  0.2905  0.0250 -0.2141
56726W        W99742  22.304   3.908  19.232  0.1734 -0.2073  0.1625
56727W        W99743   9.844   1.898  10.315 -0.1550 -0.0261  0.0273
56728W        W99744  29.061   8.830  19.624 -0.4178  0.2036  0.0752
56729W        W99745   8.916  16.354  15.841  0.0504 -0.0342  0.0686
56730W        W99746  15.348   7.361   8.427 -0.1618  0.0954  0.1901
56731W        W99747   4.183   0.290  26.369  0.2010 -0.2163 -0.2489
56732W        W99748  17.124  17.090  27.423 -0.0485  0.1276 -0.1982
56733W        W99749   5.064  13.722   1.859 -0.1842  0.1420  0.1773
56734W        W99750  32.640  28.104   1.773 -0.0573 -0.2157  0.0770
56735W        W99751  16.793  33.512  10.461 -0.1098 -0.0629  0.1748
56736W        W99752   5.157   7.576  26.274  0.0037  0.0029  0.1595
56737W        W99753  25.823  33.396   7.788 -0.1519  0.0307 -0.0122
56738W        W99754   8.948   2.889  21.064 -0.1013 -0.1169  0.2593
56739W        W99755  19.654  10.450   4.302  0.1605 -0.2198  0.0106
56740W        W99756  17.359   6.998  25.635 -0.1027 -0.1947  0.1157
56741W        W99757   1.009  27.913   1.934  0.1913  0.3019  0.0369
56742W        W99758   0.087  11.673  25.882  0.0756 -0.2275 -0.0186
56743W        W99759  15.747   0.943   7.619 -0.0856  0.1590  0.0745
56744W        W99760  34.660   3.248   7.035  0.0919  0.0299  0.0609
56745W        W99761   8.906   1.022  19.737 -0.2355 -0.1359  0.0419
56746W        W99762  25.568  29.411  10.168  0.0781  0.0458 -0.0874
56747W        W99763  14.305   8.688  27.507 -0.1743 -0.0579 -0.4160
56748W        W99764  14.943  11.333   1.736 -0.3331 -0.1625 -0.2686
56749W        W99765  12.640  23.160   4.358  0.1730 -0.2847  0.3661
56750W        W99766  24.167   7.060  27.305  0.1197  0.2004  0.3758
56751W        W99767  32.792   0.959  21.913  0.1222 -0.1109  0.0557
56752W        W99768   0.797  24.333  27.308  0.1196 -0.0311 -0.3361
56753W        W99769  29.943   4.802   5.901 -0.0097 -0.0820 -0.1392
56754W        W99770  11.181  33.142   5.130  0.4262  0.3520 -0.4697
56755W        W99771   5.023  18.026  25.612  0.0901  0.2410  0.0759
56756W        W99772  13.362   0.143   2.200  0.3553  0.4183  0.0757
56757W        W99773  10.497  17.372  25.599  0.0327 -0.3059 -0.3442
56758W        W99774   9.002  31.357   4.682  0.1893  0.0322 -0.1469
56759W        W99775  31.692  19.364   3.971 -0.2907 -0.0498 -0.2500
56760W        W99776  10.215  13.450  19.550  0.1831 -0.1684 -0.2816
56761W        W99777  32.863  32.683  26.134 -0.1056 -0.2366 -0.4153
56762W        W99778  31.103  15.585   2.768  0.4304 -0.3418  0.0028
56763W        W99779  19.058  11.337  28.882 -0.0086 -0.2705 -0.0202
56764W        W99780  11.545   3.517   3.164  0.1175 -0.0824  0.1868
56765W        W99781  10.516   6.626   0.314  0.1181 -0.2002  0.0739
56766W        W99782   3.853   3.093   6.245  0.1622 -0.1526 -0.1236
56767W        W99783  15.435  32.860  28.989 -0.1521  0.4689 -0.0385
56768W        W99784  11.145   1.343   5.442  0.2603 -0.1345  0.2003
56769W        W99785   5.428  30.936  19.206 -0.1993 -0.4566  0.3014
56770W        W99786   0.217  10.517  25.505  0.0715 -0.0455  0.4506
56771W        W99787  30.150   4.709  27.842  0.0739 -0.0069  0.1598
56772W        W99788  23.631   0.227   3.759  0.1819  0.0521  0.2161
56773W        W99789  16.979  11.552   2.339  0.0880  0.2332  0.0854
56774W        W99790  32.259  24.041   8.558 -0.1549  0.1159 -0.0232
56775W        W99791   5.468  22.613   0.664 -0.1197  0.2980 -0.2952
56776W        W99792  16.988  32.002  25.761 -0.2024 -0.3468  0.1111
56777W        W99793  27.048   1.713  10.333  0.1993  0.3164 -0.1535
56778W        W99794   2.697  29.923   3.258  0.1645 -0.0827  0.0917
56779W        W99795  27.700  11.637   1.660 -0.0811 -0.1517  0.1508
56780W        W99796   5.280  22.588  22.766  0.1041  0.3241 -0.0352
56781W        W99797   2.837  33.270  16.177  0.1940 -0.0935  0.0310
56782W        W99798   7.524   2.665   1.260  0.0513  0.3560  0.0877
56783W        W99799  33.484   1.370  22.510 -0.1950  0.2321 -0.2654
56784W        W99800   7.374  12.773  24.183  0.3334  0.0338 -0.0193
56785W        W99801   6.346  25.355  15.897  0.0095  0.1785  0.0831
56786W        W99802  34.778   0.747  22.247  0.0043  0.0934  0.0877
56787W        W99803   0.334  21.984  25.236 -0.0714  0.5028  0.3716
56788W        W99804   0.270  32.837  24.069  0.1336  0.1147  0.1984
56789W        W99805  28.508   3.241   8.883 -0.3158  0.0525 -0.0040
56790W        W99806   1.529   2.364  19.027  0.0630 -0.0584 -0.0304
56791W        W99807  24.606  25.894  27.317  0.1146  0.3358  0.2454
56792W        W99808  33.120  11.175   8.465 -0.2117  0.3527  0.1808
56793W        W99809  24.568   1.898   0.399 -0.1161  0.0806  0.0981
56794W        W99810  33.301  10.348   4.561  0.0697  0.2723 -0.1560
56795W        W99811  24.041  10.390   9.698 -0.1780 -0.1212 -0.3862
56796W        W99812  17.442  26.836  23.507  0.1121  0.3401 -0.0835
56797W        W99813  15.979  19.734   1.768  0.0128 -0.1147  0.2487
56798W        W99814  17.433  11.197  25.646  0.0239  0.0167 -0.5542
56799W        W99815  16.231  31.112   3.840 -0.0730  0.0510 -0.0338
56800W        W99816  28.320   4.218   1.522 -0.2417 -0.3967  0.1413
56801W        W99817  33.220   5.127   9.690 -0.2649  0.3731  0.2797
56802W        W99818  31.636   7.501  15.878 -0.1093  0.3404 -0.0079
56803W        W99819  16.778  13.163  26.556 -0.2450  0.0099  0.1507
56804W        W99820   5.979  23.648  26.508 -0.1932  0.0305  0.3039
56805W        W99821   8.033   0.619  21.169  0.0064  0.1999  0.0105
56806W        W99822  26.743   7.204  27.489  0.1934 -0.3390 -0.0311
56807W        W99823   6.191  26.695   3.891 -0.2811 -0.1161 -0.0246
56808W        W99824   0.876  17.304   4.094  0.0987 -0.1192  0.0372
56809W        W99825   9.199  32.939   3.612 -0.2311 -0.1018 -0.0005
56810W        W99826   7.307   4.062  28.035 -0.0801  0.3905 -0.1203
56811W        W99827  18.520   1.867   0.643  0.0746  0.3853  0.1254
56812W        W99828   7.157  14.737   0.745  0.1308 -0.1671  0.1185
56813W        W99829   4.969   5.503  10.777 -0.0794 -0.0362  0.0402
56814W        W99830  32.073  31.546  25.932 -0.3843  0.0865  0.3392
56815W        W99831  32.580   7.154  25.168  0.0555 -0.0738  0.1900
56816W        W99832  32.137   6.417   3.391 -0.1860 -0.3725  0.2459
56817W        W99833   4.384  12.682  24.789 -0.0941 -0.2477  0.0842
56818W        W99834  11.343  31.288  26.968  0.0523 -0.1612 -0.1642
56819W        W99835   5.132  22.885   2.568 -0.0951  0.2987  0.0570
56820W        W99836  20.568  12.232   6.675  0.2068  0.1438  0.0453
56821W        W99837  12.349  30.102  23.435 -0.2406 -0.2933  0.0740
56822W        W99838  27.308   2.138  24.936 -0.1701 -0.1687 -0.0132
56823W        W99839  11.720  32.056  23.516  0.1866 -0.0096  0.1083
56824W        W99840  32.075   2.353   4.182 -0.1414 -0.1412 -0.3131
56825W        W99841   9.131  32.814   1.359 -0.0171 -0.2359 -0.2133
56826W        W99842  30.012  11.568  22.727 -0.2682 -0.2293 -0.3069
56827W        W99843  18.872   2.889  28.675 -0.0199  0.3414 -0.0165
56828W        W99844   0.498  17.682  11.014 -0.0678  0.1523 -0.0200
56829W        W99845   5.569  13.390  16.333  0.0613  0.0491 -0.1689
56830W        W99846  34.325  20.085  10.229  0.0140 -0.2765  0.1397
56831W        W99847  22.350   4.938  17.618  0.0785 -0.1236 -0.0396
56832W        W99848   3.529  32.653  28.567 -0.1035 -0.1623 -0.1246
56833W        W99849  13.699   7.149   5.179  0.1960  0.1693 -0.0167
56834W        W99850  22.105   4.613  27.895  0.2539  0.3251  0.1438
56835W        W99851   2.898   0.078   4.609  0.0580 -0.1836 -0.2768
56836W        W99852  10.030  16.631  26.998  0.1756 -0.1662  0.1712
56837W        W99853  34.300  12.891   6.896  0.0376  0.1284  0.2101
56838W        W99854  17.038   1.189   6.792 -0.3230 -0.0040  0.1734
56839W        W99855   6.514  13.252  25.567  0.2150  0.0328 -0.1686
56840W        W99856  33.273  15.529  16.478 -0.2061 -0.1267  0.1773
56841W        W99857   9.366  15.960  28.088 -0.2286  0.0493 -0.0825
56842W        W99858  24.814  23.039   6.022  0.0757  0.0454 -0.0779
56843W        W99859   2.445   7.355   9.790 -0.0997 -0.3902 -0.0460
56844W        W99860  22.484   3.497   1.626 -0.1372 -0.1788 -0.0811
56845W        W99861   0.441   8.380   1.882  0.1876  0.3327  0.0824
56846W        W99862  33.140   8.500  23.090 -0.0999  0.0669  0.0122
56847W        W99863  10.394   4.922  18.880  0.0083  0.1032 -0.1336
56848W        W99864   1.170   5.871   4.900  0.0526  0.1736 -0.2288
56849W        W99865  26.048  16.181  28.321 -0.0663 -0.0068  0.0254
56850W        W99866  28.582  33.839   6.560 -0.0699 -0.1475  0.3728
56851W        W99867  31.413   3.045  27.097 -0.1221 -0.2600  0.1547
56852W        W99868   6.678  31.710   3.584 -0.3992 -0.0970 -0.1674
56853W        W99869  21.475  28.999   3.999 -0.1280  0.0888  0.0151
56854W        W99870  27.175   6.185  21.206 -0.0992  0.0628 -0.0937
56855W        W99871  16.285  14.769  26.263 -0.0084 -0.1813 -0.0040
56856W        W99872  18.001  29.462  10.335 -0.0344 -0.1759 -0.1455
56857W        W99873  25.410  25.580   4.113 -0.2628 -0.1365  0.0442
56858W        W99874   8.144   3.710   6.808 -0.0057 -0.0237 -0.1853
56859W        W99875  24.576  31.590   3.291  0.0918  0.0269  0.2419
56860W        W99876  28.705   4.165  19.855  0.1131  0.0459  0.0030
56861W        W99877   4.068   7.575   1.827 -0.0176  0.2057 -0.0805
56862W        W99878  12.552  13.943   2.910 -0.1713 -0.0299  0.1957
56863W        W99879   7.628  10.313   7.464  0.1136 -0.0862 -0.1531
56864W        W99880  32.172   0.023   0.740  0.2796  0.1688 -0.0208
56865W        W99881  24.994  29.789   0.980 -0.0156  0.4618  0.2105
56866W        W99882  20.588   2.250  19.485 -0.1654 -0.0138  0.0242
56867W        W99883  12.878  26.843   0.364 -0.0936  0.1031  0.1373
56868W        W99884   1.404  12.561  28.493  0.1151 -0.2203  0.3120
56869W        W99885   7.612   8.998  17.402  0.1746  0.1872 -0.0998
56870W        W99886  32.030  14.142  28.510 -0.2487 -0.2081  0.3539
56871W        W99887  24.647  30.692   7.621 -0.1402 -0.1119 -0.1936
56872W        W99888   5.591  22.632   7.934 -0.0296  0.0445 -0.0281
56873W        W99889   6.510  12.774  28.986 -0.2572  0.1619  0.0135
56874W        W99890  26.069   7.309   0.434  0.1930  0.1729  0.0026
56875W        W99891  10.831  22.985  16.064  0.1445 -0.1291 -0.0224
56876W        W99892  17.468  12.277   2.245 -0.0288  0.2325  0.1961
56877W        W99893   9.770   0.251  20.319 -0.0743  0.0870 -0.0022
56878W        W99894  23.138  25.648  27.903  0.2254 -0.1759  0.0042
56879W        W99895   8.243   1.522  29.013 -0.0800  0.0325 -0.1613
56880W        W99896   1.357  16.465  26.133  0.1591 -0.2116 -0.2789
56881W        W99897  28.041  18.763   3.228  0.1739 -0.0304 -0.1146
56882W        W99898   0.113  16.881   6.169 -0.1044 -0.1554 -0.1103
56883W        W99899   9.087  10.242   6.027 -0.1125 -0.4724  0.0187
56884W        W99900  18.273   1.491  18.296  0.3321  0.0496  0.1530
56885W        W99901   1.053  18.507   3.252 -0.0549 -0.3909  0.0473
56886W        W99902  32.903  18.169   2.032  0.0692  0.3294 -0.1341
56887W        W99903  33.381  26.288  22.914 -0.3789  0.3524  0.1753
56888W        W99904  15.134  11.785   8.870 -0.0049  0.0593 -0.1040
56889W        W99905  15.539  31.512  17.636 -0.2065  0.4335  0.0244
56890W        W99906  27.556   3.469   2.020  0.1666 -0.2757  0.1859
56891W        W99907   7.482  10.102  19.193 -0.0249 -0.2780 -0.3434
56892W        W99908   5.046  16.030  19.834  0.0482  0.2954  0.1126
56893W        W99909   6.168  22.849  23.395  0.0043 -0.0485  0.0418
56894W        W99910   7.930   4.302   6.238 -0.2038  0.1068 -0.1250
56895W        W99911   1.963  26.130   1.325 -0.0378 -0.0032 -0.3499
56896W        W99912  31.557  31.311   3.713 -0.0650  0.2231 -0.0478
56897W        W99913   1.765  22.034  27.585 -0.2028 -0.0056 -0.0787
56898W        W99914   3.869  11.515   4.738  0.1879  0.0652  0.0839
56899W        W99915   5.782  13.083  20.153  0.1342  0.0298 -0.0710
56900W        W99916  30.965  24.569  28.564  0.1078 -0.0215  0.0397
56901W        W99917  18.207   8.576  26.665  0.0573  0.1117  0.0838
56902W        W99918  21.775  23.511  20.310 -0.2835 -0.3012 -0.0694
56903W        W99919   9.226   8.460  20.855  0.0095 -0.1357  0.1280
56904W        W99920   1.879  20.827  25.887  0.0814  0.1398  0.5661
56905W        W99921  16.294  12.201  18.348  0.1967 -0.0794 -0.1385
56906W        W99922   0.496  28.972  26.886  0.1047 -0.1454 -0.0536
56907W        W99923  29.496  33.907   8.892 -0.0953 -0.0119  0.1248
56908W        W99924   5.286  15.884  26.177 -0.0418  0.0318  0.1596
56909W        W99925  32.556   1.638   1.435 -0.0232  0.2315 -0.0283
56910W        W99926   2.281  31.899  21.954  0.2724  0.3069 -0.0478
56911W        W99927   2.197   3.109   2.498  0.1040 -0.0336  0.0269
56912W        W99928   7.744   4.472   9.950 -0.0132  0.1228  0.2671
56913W        W99929   9.591   3.693  27.865  0.0267 -0.0188  0.1176
56914W        W99930   0.387  11.995  10.149  0.1890 -0.0858 -0.0301
56915W        W99931   1.698   1.397  27.484  0.2267  0.1658  0.0506
56916W        W99932  19.636   0.859   0.063 -0.1712  0.0666  0.1021
56917W        W99933   5.729   2.878  27.968  0.0018  0.0676  0.0646
56918W        W99934  10.730  28.970   7.202  0.2016 -0.1447  0.0021
56919W        W99935  32.954  28.574  18.563  0.0796  0.4230 -0.2133
56920W        W99936  32.785  11.564  23.267  0.2991 -0.0349 -0.0398
56921W        W99937   9.128   1.532  28.947 -0.0193  0.1065 -0.0846
56922W        W99938   3.194   3.217   9.065 -0.0740  0.3442  0.2412
56923W        W99939  24.896  15.723   8.286  0.1628 -0.0544  0.0189
56924W        W99940  13.957  16.719   0.586  0.2062 -0.1151  0.2502
56925W        W99941  33.077  11.679  27.218  0.1917 -0.2199 -0.1187
56926W        W99942  20.942   6.188  23.728  0.0937  0.2658  0.2231
56927W        W99943  33.186  34.761  14.428  0.3020 -0.2951 -0.2885
56928W        W99944  12.759  16.291  25.694  0.0144  0.1510  0.0045
56929W        W99945  15.609  12.932  29.056 -0.0529  0.0764  0.2592
56930W        W99946   8.210  23.348   9.016 -0.2195  0.0478 -0.2187
56931W        W99947   9.294   2.496  27.629 -0.4552 -0.0137  0.0529
56932W        W99948   0.245  31.003   1.090  0.1591 -0.1503  0.1680
56933W        W99949  27.970  33.542  26.015  0.0911  0.0946 -0.0477
56934W        W99950   3.908   0.372  24.895  0.0871  0.0916 -0.1004
56935W        W99951   2.042  33.305  19.455  0.3775  0.0201 -0.3389
56936W        W99952  10.777   7.549  25.940 -0.0541 -0.0491  0.0545
56937W        W99953   6.337  16.791   2.139  0.1841  0.1145 -0.2890
56938W        W99954  22.971  33.665  16.516  0.0859 -0.2935  0.0462
56939W        W99955  32.910   5.574   8.857  0.1073  0.1903 -0.1243
56940W        W99956  10.364   6.926   2.308 -0.1275 -0.2176  0.2086
56941W        W99957  15.479   6.989  20.821  0.0415  0.3732  0.1878
56942W        W99958  33.965  12.824  24.384  0.0030  0.2103 -0.0991
56943W        W99959  31.929  20.941   5.282  0.1037 -0.0037 -0.2279
56944W        W99960  19.645  10.329  26.531  0.1558 -0.1420  0.0142
56945W        W99961  17.639  22.938  25.051 -0.1328 -0.2418 -0.0542
56946W        W99962   0.944   9.350   1.166  0.1270  0.0601  0.2597
56947W        W99963  18.679  12.495  28.784 -0.3282  0.2553 -0.2720
56948W        W99964   4.601  30.450   9.510 -0.1563 -0.2553 -0.1379
56949W        W99965  29.451  26.056  24.921  0.0284  0.0502 -0.3373
56950W        W99966  30.916   2.749  27.673 -0.0281  0.1107  0.1497
56951W        W99967  21.730   1.930   9.912  0.1446 -0.0870  0.1293
56952W        W99968   1.655   2.343  26.675  0.2470 -0.0517 -0.2269
56953W        W99969  11.961  14.917  25.518  0.0978  0.0689 -0.2023
56954W        W99970  32.224   6.673   4.788 -0.1355  0.1351 -0.1618
56955W        W99971  27.273  29.944   2.954 -0.0163 -0.0568 -0.0106
56956W        W99972   8.694  13.278   5.882 -0.2212  0.0112 -0.1497
56957W        W99973   4.080   4.011  14.035 -0.1686  0.0999  0.0244
56958W        W99974  14.200  12.925   7.185 -0.1126 -0.1276 -0.2029
56959W        W99975  12.664   4.680   2.052 -0.1912  0.0453 -0.0503
56960W        W99976   1.172  12.424  10.295 -0.2932  0.0797  0.0210
56961W        W99977  27.147  34.208  10.639 -0.2603 -0.3429  0.1771
56962W        W99978  31.750   1.348   3.090 -0.1356  0.0744  0.2441
56963W        W99979  31.802  16.178   3.234  0.1727  0.1333 -0.2318
56964W        W99980  29.254  22.976  15.360 -0.0692  0.2745  0.2065
56965W        W99981  13.106   1.258   5.913  0.0917 -0.1451 -0.0992
56966W        W99982   0.664   1.315   2.293  0.0488  0.1130  0.1144
56967W        W99983   2.995  34.375   4.363  0.1188  0.0077  0.1261
56968W        W99984  29.776   7.511   8.468  0.0203  0.0487 -0.0370
56969W        W99985  29.555   0.926  15.338 -0.0017 -0.2536  0.0569
56970W        W99986  16.709   4.714   1.465  0.1459 -0.0057 -0.3628
56971W        W99987  22.325  13.650  26.797  0.1280  0.0600 -0.0022
56972W        W99988   6.411   5.816   8.983  0.0617  0.0333  0.0953
56973W        W99989  24.016   4.540  18.386  0.1781  0.1944  0.0217
56974W        W99990  30.510   6.801   2.173 -0.1650  0.0126 -0.1660
56975W        W99991   3.082  26.668   9.511 -0.4540  0.2491  0.0585
56976W        W99992   5.162  27.480  20.410 -0.0682 -0.2443  0.0470
56977W        W99993  12.744  31.370   6.886  0.2496 -0.1967  0.3025
56978W        W99994   1.733  10.084   9.964  0.2789 -0.0468 -0.0565
56979W        W99995   4.751   6.473   6.041  0.0138  0.1895 -0.1910
56980W        W99996   4.959   7.004  23.873 -0.1954  0.0726 -0.0522
56981W        W99997   0.451  18.267   3.047 -0.1298  0.1083 -0.0771
56982W        W99998  16.717   2.679   5.843  0.4014 -0.2392 -0.0232
56983W        W99999  16.725  31.236  10.405 -0.0644  0.2387  0.0441
56984W        W    0   5.082  14.041  27.291  0.3673 -0.3107 -0.2193
56985W        W    1  15.702  13.217  20.286 -0.0346 -0.2937 -0.0517
56986W        W    2  32.897  24.949  10.097  0.0261 -0.0418 -0.2145
56987W        W    3  19.282   3.264  27.927  0.1574 -0.0630 -0.2755
56988W        W    4  21.474  11.701   4.110  0.0946 -0.1467 -0.1918
56989W        W    5  33.358  10.641   6.229 -0.2337  0.2433 -0.0419
56990W        W    6  11.676   7.080   7.637 -0.0279  0.1997  0.1468
56991W        W    7  10.858  28.982   0.430 -0.1496 -0.1114 -0.2241
56992W        W    8  23.110  14.414   2.493 -0.1761 -0.0003 -0.0178
56993W        W    9   2.116  22.985  19.583 -0.0851  0.1571 -0.2974
56994W        W   10  12.024   5.124   3.430 -0.1458  0.0538 -0.1022
56995W        W   11  16.842   0.403  17.394  0.1763 -0.0980  0.1261
56996W        W   12   0.116  14.718  22.062  0.2647  0.2747 -0.0810
56997W        W   13  27.447  21.440  21.359 -0.0854 -0.0054  0.1456
56998W        W   14   2.394  22.666   6.176  0.0823  0.2382 -0.1313
56999W        W   15  17.659  21.623  28.161  0.1339  0.0698  0.0132
57000W        W   16   0.752   5.025   1.377  0.2782 -0.1080 -0.1043
57001W        W   17   8.834  13.260   9.177  0.0840 -0.0825 -0.1268
57002W        W   18   7.481   9.257  27.599 -0.2205 -0.1478  0.3473
57003W        W   19  11.316  29.399   8.482  0.0159 -0.0571 -0.1861
57004W        W   20  12.782  32.321  26.147  0.1562 -0.4481  0.0567
57005W        W   21  15.511  11.723  17.512 -0.2198  0.0320  0.0116
57006W        W   22  30.127   1.471   5.293 -0.2298 -0.0835 -0.0066
57007W        W   23  21.219   4.107  10.159 -0.0251  0.1996  0.0049
57008W        W   24   5.374   7.270   4.498  0.1193  0.1561 -0.0560
57009W        W   25  22.631  14.561   1.542 -0.4167 -0.1934  0.0938
57010W        W   26   5.830  32.409   9.263  0.0615  0.0914  0.2502
57011W        W   27  29.956  25.721  10.208  0.1703 -0.0569 -0.0147
57012W        W   28  30.556   5.606   1.794 -0.1802  0.3275  0.0412
57013W        W   29  30.481  16.477  28.508 -0.0605  0.1769 -0.1628
57014W        W   30   2.078  27.369  28.786  0.3598 -0.2005  0.0928
57015W        W   31   5.078   6.422   3.297  0.1134  0.0805  0.1764
57016W        W   32   1.545  21.405  25.740 -0.1033 -0.0861 -0.1324
57017W        W   33   0.187   1.935   5.593  0.0087 -0.3782  0.0330
57018W        W   34  21.224   1.685  24.296  0.0699  0.0101 -0.0279
57019W        W   35  14.978   4.153  10.107  0.0369 -0.0055  0.3545
57020W        W   36   9.290  31.716  18.786  0.1607  0.5685 -0.0212
57021W        W   37  22.434  30.631   9.126 -0.2379 -0.0619 -0.3738
57022W        W   38   4.415  18.704   1.119 -0.0790  0.2102 -0.2263
57023W        W   39   6.709  34.214  10.574  0.0986  0.0943  0.0981
57024W        W   40   7.822   1.108  18.845  0.2031 -0.0162  0.3041
57025W        W   41  15.748   9.472  27.936  0.1277 -0.2196  0.0575
57026W        W   42  32.284   2.233  21.590 -0.0950  0.1752 -0.1673
57027W        W   43  29.017  21.847   9.761 -0.0509  0.0402 -0.0577
57028W        W   44  28.451   6.977  26.657  0.1053  0.2270 -0.0387
57029W        W   45  32.430  33.786  27.229  0.0822  0.1954  0.1395
57030W        W   46  31.352   5.409   4.776 -0.4047 -0.0646 -0.0304
57031W        W   47  10.472  14.997   4.717 -0.1726  0.4268 -0.4492
57032W        W   48  33.913   4.624   6.714  0.1484 -0.2403  0.0823
57033W        W   49  32.128   7.576   8.092 -0.0110  0.1345  0.3140
57034W        W   50   3.780  18.286   2.458  0.1776 -0.0574  0.4605
57035W        W   51   0.450  15.937   6.516 -0.3317 -0.4627 -0.1153
57036W        W   52  25.684  34.026   4.945  0.1475 -0.2550  0.3063
57037W        W   53   2.358   8.520  29.301  0.0438  0.0037  0.3907
57038W        W   54   0.904   9.781  24.430  0.0143  0.2166 -0.0941
57039W        W   55  12.612   2.071   6.585  0.4001  0.1954  0.2464
57040W        W   56  20.825  11.442  25.802 -0.1214  0.1145  0.0388
57041W        W   57  26.953  11.432  16.993 -0.0877  0.0593  0.2097
57042W        W   58  26.705  30.693  27.160 -0.2079  0.3291  0.1210
57043W        W   59   9.560   1.615  26.384  0.0703 -0.0842  0.2923
57044W        W   60  28.981   2.768  27.112 -0.1686  0.3645  0.2551
57045W        W   61  26.056   0.087   7.651 -0.1156 -0.0260 -0.0288
57046W        W   62  25.116   7.984   2.054 -0.0555  0.0716  0.0210
57047W        W   63   6.094  14.403   1.423 -0.2093 -0.0763 -0.4196
57048W        W   64   2.975  23.382   0.391  0.2074  0.0368  0.0749
57049W        W   65  17.160  21.869  24.818  0.0680  0.3642  0.1244
57050W        W   66  28.458  10.017  18.154 -0.1550 -0.0482 -0.0274
57051W        W   67  19.789   4.552  28.366 -0.0721 -0.0344 -0.0166
57052W        W   68  25.165  16.075   0.844 -0.1945  0.5112  0.1983
57053W        W   69   5.255  20.568   8.352  0.0434 -0.0414 -0.1654
57054W        W   70  32.792   6.837  23.638 -0.1992  0.0411  0.0308
57055W        W   71  26.544  32.121   1.853  0.0125  0.3462 -0.1387
57056W        W   72  29.019   3.780  27.262  0.3880 -0.0347 -0.3433
57057W        W   73  17.974   4.283  24.892 -0.4111  0.0435 -0.2127
57058W        W   74  29.457  12.420   2.139 -0.0509 -0.3531  0.3557
57059W        W   75  32.737  12.243  24.320  0.1590  0.3486  0.2436
57060W        W   76  19.451  25.812   8.628 -0.0589 -0.2043  0.1566
57061W        W   77  26.529  33.047  16.120  0.4904  0.0747 -0.0074
57062W        W   78   8.217  10.513  26.688 -0.0567 -0.0098 -0.1272
57063W        W   79  26.589  32.736   9.528  0.0112 -0.1010 -0.0704
57064W        W   80  29.949  29.629   5.744  0.0007  0.0469  0.2031
57065W        W   81   6.976  32.311  27.524 -0.1069 -0.3068  0.4051
57066W        W   82  12.521   2.440  23.491  0.2606  0.2923 -0.1210
57067W        W   83  11.142  14.074   3.398 -0.0077 -0.0729  0.1107
57068W        W   84  32.681  16.052   8.324  0.2328 -0.0363 -0.1864
57069W        W   85   6.087  31.593  24.949 -0.2981  0.4088 -0.0021
57070W        W   86  24.262  27.172  29.164 -0.4447 -0.0192  0.1013
57071W        W   87  11.649  27.594  21.995 -0.1736  0.1702  0.3437
57072W        W   88   3.228  13.835  29.088 -0.2614  0.0305 -0.0630
57073W        W   89  16.769   7.344   1.456 -0.2118 -0.2143  0.3160
57074W        W   90  28.584  25.041   9.673 -0.1560  0.1597  0.0607
57075W        W   91   6.231   1.160   8.623  0.1027 -0.1002 -0.0477
57076W        W   92   4.352  11.398   4.483 -0.4030 -0.2035 -0.2649
57077W        W   93  20.429   0.332   4.639  0.1294  0.0681 -0.2734
57078W        W   94   0.992  14.062   3.389  0.0083 -0.3036 -0.0265
57079W        W   95   8.153   5.598  18.408  0.3386 -0.0441  0.2163
57080W        W   96   1.753   6.822  24.097  0.0649 -0.1241  0.0743
57081W        W   97  11.751  27.250   4.732 -0.1445  0.0080 -0.1496
57082W        W   98  14.044   7.213  26.058  0.2858 -0.0296  0.2853
57083W        W   99   6.991   1.388  15.764 -0.1142 -0.0615  0.3220
57084W        W  100  34.148   0.445   4.252  0.4653 -0.0804 -0.0660
57085W        W  101   6.246  10.478  18.123 -0.0229 -0.2032 -0.4670
57086W        W  102   0.484   8.958  27.196 -0.3995 -0.3451  0.1294
57087W        W  103   9.748  27.906   6.407 -0.0423  0.2243 -0.2166
57088W        W  104  26.162   5.723  16.606 -0.5001  0.3063 -0.0536
57089W        W  105  34.445  19.457   5.091  0.2229  0.4228 -0.2491
57090W        W  106  15.464  30.300   4.977  0.3458 -0.2056 -0.0393
57091W        W  107  29.770  16.382   6.562  0.0021  0.3207 -0.4509
57092W        W  108  20.557  27.265  10.531  0.2586  0.2147  0.1410
57093W        W  109  24.581   7.900  26.254  0.3219  0.0596 -0.0196
57094W        W  110  26.571  22.288   0.783  0.4145  0.1374  0.0138
57095W        W  111  29.897  28.536  27.548  0.0867  0.0775  0.2855
57096W        W  112   7.712   8.466  20.980  0.2138 -0.0911  0.0989
57097W        W  113   3.014  12.946  26.262 -0.0555 -0.1764 -0.3979
57098W        W  114  14.725  12.038   3.359  0.1504 -0.0330 -0.0671
57099W        W  115   5.814   7.211   4.265  0.0446  0.0993 -0.1952
57100W        W  116   0.320  13.627  24.891  0.2518 -0.1077 -0.0035
57101W        W  117  25.635  25.831   8.285  0.1329 -0.0393 -0.0184
57102W        W  118   9.392  20.195   0.109  0.1798  0.0084 -0.0800
57103W        W  119   0.522  33.322  27.016 -0.2355 -0.1378  0.2784
57104W        W  120  13.336   1.292   4.664  0.1553  0.0550  0.0232
57105W        W  121  23.308  29.582   6.319 -0.0045 -0.2170  0.0349
57106W        W  122  26.448  11.673  27.947 -0.1255 -0.2056  0.0779
57107W        W  123  30.126   4.550   4.683  0.1795  0.0800 -0.2490
57108W        W  124  20.110   9.217   2.329  0.2835 -0.2840 -0.1262
57109W        W  125   3.328  27.955   7.148  0.1391  0.0797  0.2462
57110W        W  126  30.008  17.796  20.038 -0.2330  0.0650  0.0162
57111W        W  127   4.427  32.456   3.307  0.1052  0.3508  0.0541
57112W        W  128   0.161   5.399   3.681 -0.0886 -0.2674 -0.0669
57113W        W  129  33.412   1.872   1.355  0.2626  0.2399  0.0882
57114W        W  130   0.853   8.163  26.451  0.1186 -0.1642  0.0882
57115W        W  131  24.284   3.608  22.961  0.2371 -0.0166  0.1257
57116W        W  132  32.052   1.613   5.745 -0.3002  0.0197  0.1491
57117W        W  133  31.019   0.613   9.987 -0.4297 -0.0665 -0.0233
57118W        W  134   5.644   5.254  24.923 -0.2086  0.2586  0.2661
57119W        W  135  24.231   8.415   7.909  0.0706  0.0175  0.1134
57120W        W  136   4.719  10.374   6.530 -0.0997  0.3322  0.0431
57121W        W  137   7.042  10.924   7.616 -0.5133 -0.0043 -0.4164
57122W        W  138   5.647  22.776   6.411  0.1549  0.0060 -0.4256
57123W        W  139   4.047  12.323  28.842  0.0025 -0.2122 -0.1675
57124W        W  140  28.836  27.057  11.701  0.2080  0.1662 -0.0196
57125W        W  141  32.976   0.874   6.906 -0.1096 -0.0706  0.0144
57126W        W  142  10.841  23.221   4.022  0.1873  0.2434 -0.1156
57127W        W  143  22.280   1.231   6.546 -0.0715  0.0044  0.1956
57128W        W  144  31.622  14.111   6.289  0.0695 -0.1011 -0.1117
57129W        W  145   8.163   3.170   5.672 -0.1369  0.2243  0.0053
57130W        W  146   1.159  30.514  29.123 -0.2055 -0.2718 -0.0387
57131W        W  147   2.881   1.473   6.399  0.2430 -0.2602  0.1020
57132W        W  148   6.696  10.437   0.271 -0.1199  0.2786 -0.4190
57133W        W  149   2.424  15.645   5.161 -0.1767 -0.0862  0.0336
57134W        W  150  19.621  31.399   2.999  0.3252 -0.1610 -0.0147
57135W        W  151  26.274   8.366   5.169 -0.1912 -0.1005 -0.1854
57136W        W  152  32.526  12.793   6.067  0.1813 -0.0291 -0.1736
57137W        W  153  22.735  30.309  26.951 -0.0345 -0.1827 -0.0929
57138W        W  154  12.544   8.852   1.732 -0.4773  0.2211 -0.2537
57139W        W  155  32.980  15.850   6.990  0.0962  0.1527 -0.1125
57140W        W  156   4.668   9.010  25.884 -0.2774  0.1114 -0.2544
57141W        W  157   5.486  10.098   1.516 -0.1164 -0.1023 -0.3180
57142W        W  158   9.137   2.257   1.074  0.0889 -0.2353  0.0481
57143W        W  159   5.523   8.810  21.450  0.1573 -0.2545 -0.0830
57144W        W  160  18.970   1.707   7.823  0.3344 -0.0769  0.0431
57145W        W  161   5.332   9.957  26.360  0.1787 -0.2098 -0.0690
57146W        W  162  25.568  22.091  27.866 -0.2298  0.1001 -0.0691
57147W        W  163  31.258  23.620   0.353 -0.0472 -0.2593 -0.3813
57148W        W  164   4.336   9.677   9.099  0.1785  0.1772  0.0137
57149W        W  165   7.866   9.057  22.760 -0.1186 -0.0699 -0.2845
57150W        W  166  11.164  34.767  18.405  0.0581  0.0086 -0.0644
57151W        W  167  29.778  20.203   6.527 -0.2905 -0.3416  0.0207
57152W        W  168  34.174  17.708   8.267 -0.0405  0.1012  0.2255
57153W        W  169  14.383  31.104  28.062  0.1927  0.1219  0.0082
57154W        W  170  25.176   4.251  21.882  0.1809  0.0336  0.1715
57155W        W  171   3.409  20.325   3.773 -0.1402 -0.2206  0.1866
57156W        W  172  30.971  33.793   0.718 -0.1851 -0.2680  0.0168
57157W        W  173   4.974   5.673   9.997  0.0872  0.1756 -0.0846
57158W        W  174  29.794  22.712  22.356 -0.1947 -0.2340 -0.2313
57159W        W  175  23.437   3.885   1.279 -0.0244 -0.0407 -0.1170
57160W        W  176   9.887  34.659   6.149  0.0680 -0.2060 -0.0696
57161W        W  177   7.776   7.408   9.038  0.1222 -0.2174  0.1121
57162W        W  178  33.977   2.652   3.844  0.2765 -0.2725 -0.5571
57163W        W  179  26.001  20.990   3.678 -0.0448  0.1567 -0.1778
57164W        W  180  27.848  13.459   8.970  0.1812 -0.0944  0.0832
57165W        W  181  11.738  11.553  26.918 -0.0792  0.1664  0.3191
57166W        W  182  33.632  17.410  29.031 -0.3676  0.0224  0.0831
57167W        W  183  34.010   6.111   9.822  0.0788 -0.1098  0.0286
57168W        W  184  30.069   5.876   0.105 -0.2399 -0.0974 -0.2208
57169W        W  185  33.244   0.102   8.188 -0.4471  0.3167 -0.1609
57170W        W  186  34.156  34.213   7.321 -0.1915  0.0686 -0.5645
57171W        W  187  25.601  12.410   1.958  0.1112  0.1235 -0.1612
57172W        W  188  25.428  14.163  27.065  0.0372 -0.1967 -0.0897
57173W        W  189  23.114  19.696   3.243  0.0396  0.0416  0.3276
57174W        W  190  15.858  30.016  25.414  0.2920 -0.0623  0.2841
57175W        W  191   3.363   2.257   9.851 -0.0517  0.2437 -0.1430
57176W        W  192   9.512  17.796  27.342 -0.0800 -0.4383  0.2264
57177W        W  193  28.773   3.782   3.843 -0.0115  0.5129  0.0646
57178W        W  194  13.996   8.921  18.752 -0.1049  0.0239  0.0945
57179W        W  195  11.836  30.694   0.765  0.3536 -0.2056  0.0759
57180W        W  196  25.816  25.615  17.339 -0.1805  0.1799 -0.0044
57181W        W  197  15.330  16.195  27.014 -0.3473 -0.1502 -0.0264
57182W        W  198   6.291  25.118   3.584  0.1680 -0.1129 -0.0387
57183W        W  199  25.590  16.203   3.444  0.0304 -0.2322  0.0566
57184W        W  200  30.785  12.879  10.150  0.2273 -0.0532 -0.0551
57185W        W  201  34.482   2.851   6.722  0.0553  0.2828 -0.0286
57186W        W  202  32.769   6.190  13.784 -0.0253  0.1633  0.2162
57187W        W  203   0.304   3.419   7.269 -0.0487 -0.1823  0.1861
57188W        W  204   3.894   5.745   5.559 -0.0764 -0.0315 -0.0196
57189W        W  205   6.491  15.018  23.127 -0.2213  0.0840  0.1719
57190W        W  206  33.132  10.641  19.832  0.1164  0.1615 -0.0223
57191W        W  207  33.033  27.775  10.267 -0.4261 -0.0138  0.1235
57192W        W  208   5.603   6.055   6.185 -0.2411  0.0499 -0.1383
57193W        W  209  21.814  12.490   6.280  0.3781 -0.0647  0.0272
57194W        W  210  13.153  12.445   2.319 -0.1584 -0.0562  0.2219
57195W        W  211  14.880  11.262  28.504 -0.5856  0.0954 -0.2757
57196W        W  212  27.394  34.370   9.793  0.2556 -0.2378  0.2063
57197W        W  213  32.518  17.395  23.654  0.0910  0.1869  0.3318
57198W        W  214  24.119   8.416  10.416  0.0693 -0.3173 -0.1263
57199W        W  215  34.233  14.392   9.119 -0.1295 -0.1125  0.1224
57200W        W  216   4.838  10.914  28.750  0.0800 -0.3692 -0.3354
57201W        W  217   6.713   8.921  26.101 -0.0133  0.1962  0.0365
57202W        W  218  11.153  10.015   7.682  0.0637 -0.2872 -0.1679
57203W        W  219  15.260   7.081  25.071  0.0130 -0.0117  0.2572
57204W        W  220   0.030   0.424   4.880  0.1178 -0.2472 -0.3131
57205W        W  221   2.164   6.028   4.460 -0.1659  0.0551  0.0512
57206W        W  222  33.584   9.066   7.721 -0.0675  0.0625  0.0578
57207W        W  223  30.809  10.751   8.338 -0.1019 -0.3088 -0.1432
57208W        W  224  34.180   0.826   2.835  0.2047  0.1216 -0.2446
57209W        W  225   3.813  17.519   6.584 -0.2706  0.1971  0.1155
57210W        W  226   4.462  16.466   6.902 -0.1272  0.1430 -0.0662
57211W        W  227   8.012   7.951   4.484 -0.0183  0.0963 -0.1989
57212W        W  228  29.997   5.333  19.554 -0.1903  0.2691 -0.3711
57213W        W  229   1.694   1.466   2.872  0.1735 -0.1944 -0.3078
57214W        W  230  26.094   0.588  29.136 -0.1533  0.0107 -0.5027
57215W        W  231  26.241  20.060  26.716  0.1337  0.0553  0.2933
57216W        W  232   9.124   9.875   5.250  0.2322  0.1240 -0.1032
57217W        W  233   8.080   0.436   8.788 -0.1675 -0.3422 -0.1010
57218W        W  234   2.741  10.050   9.990  0.2643  0.3034  0.0314
57219W        W  235   3.719  21.266  28.751  0.0034 -0.0212  0.1641
57220W        W  236   4.895   5.692   3.293  0.1167 -0.1684  0.1039
57221W        W  237   1.263  16.135   4.450  0.3539 -0.4403  0.2387
57222W        W  238  15.700  13.133   6.539  0.1767  0.1190 -0.3446
57223W        W  239  20.142   4.878   8.361 -0.0203 -0.1600 -0.0132
57224W        W  240  11.906  18.659   6.933 -0.0614 -0.1454 -0.1145
57225W        W  241  12.491   5.374  20.610 -0.2336 -0.2929  0.1266
57226W        W  242  10.168  34.213  15.055  0.2415  0.0976  0.0851
57227W        W  243   0.242  15.462  26.092  0.1840  0.1330 -0.7992
57228W        W  244   3.964  11.898   5.875 -0.0196 -0.1128  0.2060
57229W        W  245  22.711   4.441   0.835 -0.2539 -0.1974 -0.1857
57230W        W  246   6.020   7.361  28.589  0.0218 -0.0883 -0.1464
57231W        W  247  30.866  34.441   9.504  0.3315  0.1965  0.3975
57232W        W  248   1.289  26.517   0.133  0.1261 -0.1387  0.0691
57233W        W  249   3.665  22.753  28.670 -0.1660  0.0772  0.0581
57234W        W  250   6.385  28.823   0.686  0.1752 -0.0452  0.1075
57235W        W  251  29.160  27.825  10.080 -0.0292  0.0404  0.0051
57236W        W  252   1.861  10.377  24.660  0.0065 -0.4516  0.1865
57237W        W  253   5.110   5.615   4.321 -0.0885 -0.0747 -0.1631
57238W        W  254  18.245  12.567   8.331 -0.0400  0.0667  0.0555
57239W        W  255  20.631  23.972   0.551 -0.0495  0.1164 -0.1803
57240W        W  256  26.113  18.339   1.668  0.1922 -0.1670  0.0899
57241W        W  257  20.711  29.159   9.623  0.4134 -0.0327 -0.2913
57242W        W  258  30.345   1.305   1.943 -0.1470 -0.0185 -0.2114
57243W        W  259  33.579  21.924   6.974 -0.1440  0.1141  0.0395
57244W        W  260  10.033   5.057   9.049  0.2116  0.0876 -0.0543
57245W        W  261  33.405  23.916  24.328 -0.1091 -0.0001 -0.1901
57246W        W  262  12.672   4.216   9.780 -0.2154  0.6390 -0.2152
57247W        W  263   8.751   2.889   7.133  0.1275 -0.1081 -0.2132
57248W        W  264  16.478  10.390  29.008  0.2486  0.1411  0.5694
57249W        W  265   2.077  33.276   6.894  0.0852 -0.1102 -0.0301
57250W        W  266   5.011  27.426   2.176  0.3333  0.0271  0.0870
57251W        W  267  23.675  12.616  18.679  0.1256 -0.4931  0.3242
57252W        W  268   9.127   0.069   1.415 -0.0859  0.0038 -0.1416
57253W        W  269   6.824  13.442   7.380  0.0490 -0.1677  0.3972
57254W        W  270  16.123  13.185  24.549 -0.1523  0.2543  0.2483
57255W        W  271  11.509   3.229  18.230  0.2181 -0.0248 -0.1687
57256W        W  272   3.153  29.897  24.877 -0.1736  0.2271  0.0825
57257W        W  273   9.716   3.602  24.335  0.2205  0.1778 -0.1527
57258W        W  274   6.334  13.901   5.196  0.0886  0.4559  0.0048
57259W        W  275   9.813  16.832  17.473 -0.0362 -0.1512  0.0636
57260W        W  276  30.555  22.007   1.487 -0.0418  0.1277 -0.2535
57261W        W  277  12.732  19.792   1.633 -0.0173  0.1987  0.1776
57262W        W  278  27.662  14.404   6.971 -0.3085  0.1730 -0.1261
57263W        W  279   5.805  34.263   3.989  0.3374  0.0292  0.0636
57264W        W  280  31.008  14.334   3.909 -0.0484  0.0344 -0.0414
57265W        W  281   0.363   3.312  15.830 -0.2387 -0.0932 -0.3331
57266W        W  282   2.187  20.817   7.949  0.2443 -0.0173 -0.3447
57267W        W  283  14.453  33.741  23.028 -0.3687 -0.0295  0.0913
57268W        W  284  24.900   4.952   8.396 -0.1117  0.1116 -0.1309
57269W        W  285  13.876  22.031  27.542 -0.2459  0.1751  0.2810
57270W        W  286   4.228   1.403   8.129  0.2261 -0.0359 -0.2300
57271W        W  287  32.398  27.769   4.357 -0.0712 -0.2527 -0.0624
57272W        W  288  16.374  18.130  24.541 -0.0249 -0.1127 -0.0220
57273W        W  289   6.605  11.146   1.700  0.0656  0.1490 -0.2109
57274W        W  290   1.859   6.444  14.429  0.2963 -0.0320  0.1990
57275W        W  291  10.931   7.657   6.266  0.0090  0.1680 -0.1682
57276W        W  292   7.305  20.664  26.895 -0.0799  0.1145  0.1733
57277W        W  293  24.413  16.061   1.039  0.2551 -0.0710  0.1394
57278W        W  294   4.921  24.871  21.151  0.1242 -0.5168 -0.0497
57279W        W  295   5.940  32.556   5.721 -0.0665  0.0091 -0.1813
57280W        W  296  26.240   5.776   7.379  0.0711 -0.0001 -0.1210
57281W        W  297  28.484   3.231  10.343 -0.0568  0.1310  0.0385
57282W        W  298   4.250   7.621  29.248  0.0141 -0.0057 -0.0322
57283W        W  299  13.237  10.564  19.762  0.0489 -0.0202  0.1150
57284W        W  300   8.475   4.547  17.312 -0.0283  0.0307  0.0287
57285W        W  301  33.429  30.241   5.620 -0.0168 -0.1548 -0.1871
57286W        W  302  30.977   2.379   1.285  0.3963 -0.0034 -0.0890
57287W        W  303  10.531  27.675   4.070 -0.2533 -0.2462  0.2991
57288W        W  304  32.014  18.026   3.490 -0.0272 -0.5122  0.2885
57289W        W  305  12.887   4.654   8.910  0.0085 -0.1142 -0.1446
57290W        W  306  29.561  19.893   0.419 -0.3033  0.2464  0.3450
57291W        W  307   7.636  17.785   4.240 -0.4093 -0.0729 -0.3510
57292W        W  308   6.761  11.387   3.500  0.3179 -0.1050  0.2983
57293W        W  309   1.437  18.182   0.052 -0.3476 -0.0270  0.2258
57294W        W  310  13.076   6.799  15.323  0.1220  0.3255  0.0690
57295W        W  311   4.633  28.017  29.125  0.1339 -0.3255 -0.0844
57296W        W  312   1.192   1.046   8.946 -0.0771 -0.0642  0.0083
57297W        W  313  21.007  11.845  27.799  0.1412 -0.0263  0.0803
57298W        W  314  19.928  31.057   6.358  0.2330  0.0104  0.1985
57299W        W  315   8.278  33.644   6.216 -0.1704  0.1171  0.2952
57300W        W  316  22.323   6.092  21.911  0.0855 -0.0505  0.1400
57301W        W  317   2.187  32.313   3.972  0.3059  0.0765 -0.0145
57302W        W  318  33.066   8.030   6.200  0.0097 -0.0223 -0.2917
57303W        W  319   6.576  25.835   3.888 -0.2932  0.0376 -0.1960
57304W        W  320  14.943  18.721  26.575 -0.0875  0.0860 -0.1223
57305W        W  321   8.075   3.648  10.306  0.0523  0.1132 -0.2508
57306W        W  322   6.844  11.084   2.563 -0.0502 -0.1418 -0.1959
57307W        W  323  31.843  17.263   9.071  0.0542  0.1327  0.0090
57308W        W  324  21.586  21.234   7.769  0.0322  0.1222  0.4363
57309W        W  325  31.222  33.958   2.970  0.0804 -0.1112  0.1129
57310W        W  326  34.643  21.982   4.899  0.2154 -0.0617  0.0418
57311W        W  327   1.541   1.233  25.825  0.1440  0.0845  0.1477
57312W        W  328  10.385  25.354  15.260 -0.1391  0.2723 -0.0677
57313W        W  329   7.107  28.277  28.366  0.2221  0.1144  0.2180
57314W        W  330   7.485  12.263  14.101 -0.3296 -0.1432  0.1867
57315W        W  331  14.899  25.948  26.437  0.1925  0.2864  0.0978
57316W        W  332   2.021  21.148   1.481  0.1917  0.1276  0.0495
57317W        W  333  32.994  11.115   1.488  0.2598  0.2297  0.1107
57318W        W  334  27.731  29.707   8.071  0.1564 -0.1003  0.1642
57319W        W  335   2.488  34.759  27.773  0.1274  0.1773  0.0071
57320W        W  336   0.135  15.680   7.559 -0.3102  0.0260  0.0583
57321W        W  337   0.683  25.867   1.421  0.2573 -0.1461  0.0159
57322W        W  338  14.995  17.910   6.407 -0.2386 -0.2107 -0.0235
57323W        W  339  24.897   1.408  11.070  0.1602  0.0364  0.4469
57324W        W  340   0.755   2.627   5.686  0.3193 -0.0197 -0.3439
57325W        W  341  25.886   0.005  18.294 -0.0798  0.4227 -0.0342
57326W        W  342  23.948  22.132  27.910 -0.2466  0.0205  0.2539
57327W        W  343   1.430   9.067   3.900 -0.4635  0.0332  0.1171
57328W        W  344  25.484   8.641  25.612 -0.1918  0.2780 -0.0408
57329W        W  345   9.537  22.519   2.156 -0.0206 -0.0381 -0.0450
57330W        W  346  17.533   8.806  25.506 -0.0314 -0.1608 -0.2236
57331W        W  347   0.412  14.394  28.039 -0.3656 -0.0550  0.0135
57332W        W  348  13.741   3.112   2.435 -0.1586 -0.1524 -0.2716
57333W        W  349  25.406  30.449  10.589 -0.2405  0.0477 -0.0811
57334W        W  350  15.666  10.315   4.431  0.0987  0.2927  0.1103
57335W        W  351  32.353  23.848   3.127 -0.1546  0.2823 -0.1891
57336W        W  352  22.420   5.031   2.285 -0.5636  0.4066 -0.1170
57337W        W  353  25.291  14.258  20.556  0.1654 -0.2166  0.0493
57338W        W  354  31.334  24.651   2.982  0.1078 -0.0293  0.1439
57339W        W  355  21.172   2.227  23.159 -0.2310 -0.1765  0.1287
57340W        W  356   2.164  23.773   0.832  0.2143  0.0679  0.1869
57341W        W  357  28.877  10.864   6.743  0.3109 -0.1677  0.0660
57342W        W  358  12.771  13.623  29.009 -0.2269 -0.2751 -0.0069
57343W        W  359   8.968   5.006   4.365  0.1847 -0.0047 -0.2580
57344W        W  360   5.449  30.620  25.418 -0.1311 -0.2642  0.2670
57345W        W  361  30.927  12.712  14.953 -0.2673  0.2097 -0.1910
57346W        W  362  25.735  28.329   5.867  0.3344  0.1702 -0.0716
57347W        W  363   0.784   2.811   0.721  0.2548 -0.2905  0.0744
57348W        W  364  22.924  15.176  28.107 -0.2892 -0.2449  0.1819
57349W        W  365  11.070  31.649   5.985  0.0850 -0.1857 -0.1988
57350W        W  366  22.596   6.986   2.357 -0.1881  0.0586  0.1289
57351W        W  367   1.097   0.836   6.398  0.1484  0.0393  0.4066
57352W        W  368  32.911  10.763  10.716 -0.1920 -0.2391 -0.1615
57353W        W  369  27.598  23.045   7.712 -0.2420 -0.1790 -0.1407
57354W        W  370   4.807   0.000   7.555 -0.0465 -0.0028 -0.0107
57355W        W  371  27.451  28.149   7.669  0.0418 -0.0908  0.2563
57356W        W  372  28.125  23.505  29.128  0.1249 -0.0196 -0.3373
57357W        W  373  13.569  13.951  13.461  0.3752 -0.1241 -0.0953
57358W        W  374  12.482   2.632   5.461 -0.1291 -0.1186 -0.1140
57359W        W  375   9.802   4.662   3.162  0.2954  0.0265 -0.1096
57360W        W  376  23.258   0.967   2.068  0.1889 -0.0796 -0.0504
57361W        W  377  26.621  32.727  27.396  0.2561  0.0091  0.0310
57362W        W  378  10.389  19.716   6.898  0.4202  0.2017  0.4028
57363W        W  379  17.242   6.468   7.786 -0.1090  0.0927 -0.1154
57364W        W  380   9.775   1.572  28.909  0.1000  0.1333 -0.1454
57365W        W  381   1.739  20.608   7.169 -0.2310 -0.1096 -0.0501
57366W        W  382  33.903  10.842   3.574 -0.3107  0.0424  0.2013
57367W        W  383   0.279   6.457   7.540  0.1043 -0.1324  0.0025
57368W        W  384  13.488  13.969   1.268  0.2775  0.3416  0.0769
57369W        W  385  33.255  10.639  25.613  0.0262  0.2278  0.1210
57370W        W  386  20.414  20.894  28.131 -0.2899  0.1572 -0.0995
57371W        W  387  28.285   0.189  28.227  0.0521  0.2074  0.0366
57372W        W  388   3.338  10.082   8.808 -0.1154 -0.1123 -0.1757
57373W        W  389   0.307  31.873  24.194 -0.3142  0.0901  0.0316
57374W        W  390   6.804  25.736   8.612 -0.0781 -0.5119 -0.1090
57375W        W  391  34.674  34.519   3.838 -0.1565 -0.0018  0.2970
57376W        W  392  31.598   7.773   3.531  0.1374  0.0720 -0.0618
57377W        W  393  12.373   4.215   4.198 -0.1307 -0.2765 -0.1040
57378W        W  394  23.726  16.695  24.751 -0.0327  0.2175 -0.1890
57379W        W  395  22.492  11.920  18.282 -0.0668 -0.1138 -0.2749
57380W        W  396   4.514  24.212  21.466 -0.1695 -0.3913  0.0944
57381W        W  397   8.174  27.060   5.554 -0.3555  0.1537  0.1554
57382W        W  398  29.394  10.692  28.494 -0.2033 -0.0344 -0.1802
57383W        W  399  33.403  30.639   3.458  0.0050 -0.0695 -0.0884
57384W        W  400  29.469   2.653   3.565 -0.1151  0.0073  0.1564
57385W        W  401  29.415  27.712  19.223  0.1379  0.1875  0.1145
57386W        W  402  26.959  33.963   6.157 -0.1841 -0.0346  0.2895
57387W        W  403  15.766   4.693  20.466  0.0943 -0.0916  0.0205
57388W        W  404  24.530  28.867  25.928  0.0149 -0.2592  0.1091
57389W        W  405  30.017  28.627  28.005 -0.1568  0.3322  0.1202
57390W        W  406   9.056  22.466   5.261  0.0005 -0.1279 -0.1266
57391W        W  407  15.415  15.652   8.346  0.0010 -0.1750  0.3926
57392W        W  408  21.582  18.952   7.827 -0.0044  0.0713  0.1089
57393W        W  409  25.444  26.500  22.608 -0.2502  0.0409 -0.1848
57394W        W  410  22.139  15.747   9.378  0.0295  0.0098 -0.1017
57395W        W  411   2.266   7.924   8.065 -0.1652  0.2877 -0.2984
57396W        W  412  29.040  13.678   1.398  0.0664  0.0118  0.0025
57397W        W  413  34.289  20.647   0.236 -0.3425 -0.0247  0.2816
57398W        W  414   4.799   4.513   7.034  0.1301  0.0790  0.3079
57399W        W  415   6.295  11.117   3.131  0.1504 -0.1936  0.1854
57400W        W  416  32.411  32.461   3.586 -0.2508  0.2045  0.0301
57401W        W  417   0.946  13.676   8.451  0.0526  0.2168 -0.0938
57402W        W  418  13.427   3.410   1.461  0.0391  0.0167 -0.1385
57403W        W  419  25.218   6.332  22.789 -0.1744 -0.0454 -0.0007
57404W        W  420   1.327  11.329  29.026 -0.2152  0.0487 -0.1201
57405W        W  421   1.296  11.288   7.167 -0.2803 -0.1705 -0.1751
57406W        W  422  14.393   6.360   0.897  0.1064  0.1708  0.1591
57407W        W  423  11.448  11.235  21.619 -0.0360 -0.3041 -0.3074
57408W        W  424  21.741   9.453   5.267  0.1975  0.1022 -0.0389
57409W        W  425  32.093   5.183   9.866  0.1523  0.0462 -0.3525
57410W        W  426   3.837  15.143   0.774  0.3484  0.0012  0.2563
57411W        W  427  21.121   9.788   3.231 -0.0566 -0.1705  0.2615
57412W        W  428  29.447   6.629   8.482 -0.1999  0.0668  0.2313
57413W        W  429   6.413  18.351   5.210 -0.4404  0.1374 -0.2146
57414W        W  430  21.320   4.243   6.684 -0.0223  0.0741 -0.1772
57415W        W  431  32.729   4.194   8.605  0.0141  0.0229 -0.1702
57416W        W  432  31.724  32.671   5.596 -0.0052 -0.0545 -0.0322
57417W        W  433  20.118   4.991  28.379  0.0679  0.2742  0.2060
57418W        W  434   0.623   7.057   7.743 -0.2244  0.0688  0.0276
57419W        W  435   0.084  13.690   2.941  0.1059 -0.0953 -0.0545
57420W        W  436  11.428  19.057   5.768  0.0218 -0.2264  0.0064
57421W        W  437   1.468  11.492   6.180  0.1345  0.1913  0.0933
57422W        W  438   1.026   7.862   9.129  0.1069 -0.3168  0.0824
57423W        W  439  33.404   7.428  23.358 -0.1430 -0.1071  0.0981
57424W        W  440  30.845   8.560  16.842  0.3954  0.0550  0.2106
57425W        W  441  26.621   7.381   2.645 -0.0647 -0.3147 -0.0205
57426W        W  442  30.609  14.532   4.606 -0.0106 -0.0423  0.1464
57427W        W  443   5.123   3.242   0.040  0.2988 -0.0945 -0.1497
57428W        W  444   0.423  11.543  10.019 -0.1025 -0.1354  0.3107
57429W        W  445  15.007   5.982  15.749  0.2577  0.2923 -0.0469
57430W        W  446   0.619  26.298  22.079 -0.0878 -0.0502 -0.1529
57431W        W  447   4.707   0.693  16.789  0.0896  0.0871 -0.2476
57432W        W  448   5.351   2.732   6.908 -0.1329 -0.2233 -0.0932
57433W        W  449   7.819  15.729   9.023  0.0892  0.0077  0.0943
57434W        W  450  32.627   3.708  14.015  0.1686  0.0489  0.3198
57435W        W  451  31.468   1.547   8.276 -0.1052  0.0923 -0.1090
57436W        W  452  27.230   0.040   4.140  0.1960  0.1261  0.0756
57437W        W  453   2.635  10.672  25.362  0.1572  0.0469 -0.3146
57438W        W  454   0.586  32.645   2.312  0.2206  0.0920  0.1538
57439W        W  455  11.130  10.069  28.260 -0.1572 -0.0706 -0.1610
57440W        W  456  33.833  34.490  10.169 -0.0068  0.0824  0.0210
57441W        W  457  23.842  10.205   7.363  0.0275  0.3343 -0.3700
57442W        W  458   5.963  10.692   5.415 -0.2441 -0.0986  0.1347
57443W        W  459  29.448  24.831   3.719 -0.0651 -0.1186  0.0495
57444W        W  460   3.083  16.002   4.750  0.3696  0.0480 -0.1523
57445W        W  461  28.522  10.460   8.485  0.0611 -0.1126 -0.2020
57446W        W  462   8.225   5.297  28.193  0.0795 -0.2141 -0.2048
57447W        W  463  27.553  17.472  21.242  0.1329 -0.1448  0.0245
57448W        W  464   5.255   9.122   9.255  0.0055 -0.1345  0.0983
57449W        W  465  34.060  24.509  10.439 -0.0507 -0.0500 -0.0499
57450W        W  466   8.136  14.834   1.741  0.2256  0.2636 -0.1230
57451W        W  467   0.898  22.562   2.366 -0.1904 -0.1035  0.2615
57452W        W  468  32.070   3.844   6.797 -0.1005  0.0013  0.2691
57453W        W  469  27.814  31.971   1.774  0.3332  0.0548 -0.0582
57454W        W  470   8.116   5.414  23.002  0.1224 -0.0067  0.0232
57455W        W  471   3.086   7.715   8.177  0.2867 -0.1088 -0.0482
57456W        W  472  33.949  19.177   0.157  0.3446  0.0888 -0.1199
57457W        W  473  13.790  11.914   1.518 -0.3350  0.2414 -0.3139
57458W        W  474   8.015  12.390  26.596  0.1211  0.0392  0.0256
57459W        W  475   6.965  14.919   9.729 -0.1988 -0.1527  0.0276
57460W        W  476   7.041  28.653   1.757 -0.1689 -0.2270  0.1246
57461W        W  477   7.945   6.393  27.370  0.0706  0.1773 -0.3284
57462W        W  478  12.519  13.434   3.252 -0.0904 -0.1869 -0.0800
57463W        W  479  21.717  19.405   0.768  0.3455  0.3164  0.0277
57464W        W  480  29.954  33.351  26.449 -0.1920  0.2665 -0.0032
57465W        W  481   5.869   7.534  26.282  0.3693  0.1432 -0.1184
57466W        W  482   7.051   8.334   5.184 -0.1746 -0.0556 -0.0910
57467W        W  483  15.588  10.534   4.984 -0.1243  0.1889 -0.2680
57468W        W  484  12.392   8.470  27.810  0.0254  0.1443  0.2678
57469W        W  485  31.425   8.742   7.332 -0.3759 -0.0935 -0.0862
57470W        W  486   7.198  30.218   8.109 -0.0871  0.1957  0.0563
57471W        W  487   8.071  16.621  27.366  0.2386 -0.0852  0.0646
57472W        W  488   4.182  22.904   0.990 -0.0427 -0.1437  0.0256
57473W        W  489  29.425   4.319   9.456  0.1519  0.2627  0.2038
57474W        W  490   4.848   3.637   1.529 -0.1728  0.3299 -0.0088
57475W        W  491  23.137  30.251  10.274 -0.0620 -0.1607 -0.0896
57476W        W  492  22.873  20.873   6.347  0.1564 -0.1138 -0.0274
57477W        W  493  11.509  20.047  26.363  0.0267 -0.0074 -0.0949
57478W        W  494  32.328  23.842  21.675 -0.1212 -0.2894  0.4155
57479W        W  495  12.839  23.990  17.431 -0.0841  0.2132  0.1547
57480W        W  496   1.342  13.348   3.329  0.0339  0.3199  0.1501
57481W        W  497  11.792  12.995   5.623  0.1260 -0.0621 -0.2934
57482W        W  498   6.730   4.930  28.904 -0.0175  0.2526 -0.3373
57483W        W  499   2.780   0.705  10.614 -0.3007 -0.3049 -0.0989
57484W        W  500   3.643   9.436   2.838  0.0675  0.2485 -0.2349
57485W        W  501  31.262  34.664   6.732 -0.1264  0.0309 -0.0542
57486W        W  502  34.065  14.111  20.035 -0.2257 -0.0620 -0.2706
57487W        W  503  33.569   2.426   4.047  0.4034 -0.0141 -0.1042
57488W        W  504   0.406   2.596   2.143 -0.3696  0.1867  0.0056
57489W        W  505  25.585  13.793   7.314  0.0550 -0.0689  0.2052
57490W        W  506  16.257   7.622   1.562 -0.1995  0.0047  0.0598
57491W        W  507  17.988   6.631   9.296 -0.1190 -0.0507 -0.1017
57492W        W  508  27.722   9.912  10.374  0.0277  0.1533  0.2311
57493W        W  509  26.057  29.194  11.454  0.0108 -0.2873 -0.1596
57494W        W  510  15.380  15.061   3.470  0.3105  0.3305 -0.1733
57495W        W  511  13.005  34.038   5.075  0.1833 -0.4194 -0.2158
57496W        W  512   6.843  33.730   5.646  0.2300 -0.0773 -0.0090
57497W        W  513  30.502  14.415   4.048  0.1951 -0.3736  0.1153
57498W        W  514  20.477  20.314  28.988  0.0519  0.1134 -0.2875
57499W        W  515  30.482   6.303   5.265 -0.2071  0.0787  0.2529
57500W        W  516  29.019  22.066   4.425 -0.0753 -0.1910 -0.0198
57501W        W  517   9.167   1.856   8.062  0.0051  0.2013 -0.3340
57502W        W  518   2.068  14.903  28.253  0.1529 -0.2198 -0.1740
57503W        W  519   3.976  11.011   4.604  0.3840  0.0023  0.0109
57504W        W  520   7.293  16.451   4.103 -0.0946 -0.3255 -0.4211
57505W        W  521   2.825  10.960   0.139  0.0531 -0.0107 -0.0030
57506W        W  522   4.217  10.385  21.735 -0.0375 -0.0611 -0.3465
57507W        W  523  30.460   2.088   9.208  0.1378 -0.0860  0.0343
57508W        W  524   4.121  15.988   6.337 -0.0571 -0.2352 -0.3101
57509W        W  525  22.255   1.519  10.822 -0.0287  0.0003  0.1524
57510W        W  526   5.491   8.385  10.275 -0.0914  0.0026 -0.1137
57511W        W  527   6.895   9.359   1.599 -0.1355  0.0392  0.1345
57512W        W  528  13.251   5.748   2.152 -0.1887 -0.0979 -0.2570
57513W        W  529  21.200   5.765   1.709  0.3510  0.0772  0.1911
57514W        W  530  30.526  27.415  23.648 -0.0154 -0.0479 -0.1230
57515W        W  531   8.159  10.634   9.983  0.1610  0.0140 -0.2978
57516W        W  532  18.838   3.020   9.020 -0.1134 -0.1024 -0.0861
57517W        W  533  10.945  11.994  21.633 -0.1460  0.0158 -0.2040
57518W        W  534   0.972   0.500   1.866 -0.0853 -0.1336  0.2407
57519W        W  535   9.655   4.577   7.071  0.1662 -0.0352 -0.1570
57520W        W  536   4.927   7.987   6.030 -0.1429  0.2309 -0.0630
57521W        W  537  21.039  18.497   7.228  0.0382  0.1889 -0.0657
57522W        W  538  32.055  27.220   0.008  0.2162  0.1410 -0.1464
57523W        W  539  31.834   4.382   3.875 -0.1981 -0.0837  0.1336
57524W        W  540  32.546  11.280  24.172 -0.0237  0.1727  0.0317
57525W        W  541   3.289   8.043  22.541 -0.4947  0.0247 -0.0846
57526W        W  542   6.463  33.014   1.956  0.0691 -0.0035  0.0993
57527W        W  543  20.487   0.265   9.962  0.0452  0.0805  0.0874
57528W        W  544   3.354  25.685  21.958 -0.0594 -0.0205 -0.1214
57529W        W  545  14.016  26.935   4.597 -0.1476 -0.1926  0.0650
57530W        W  546  25.174   5.895   8.612  0.0033 -0.1094  0.0558
57531W        W  547  17.068  16.848  25.436 -0.0595 -0.0498  0.2293
57532W        W  548  17.655   9.088   7.933  0.3362  0.0253 -0.3387
57533W        W  549  27.725   4.992   4.902 -0.1517  0.0218  0.0315
57534W        W  550   0.595  22.431  23.803 -0.0962  0.1436 -0.3456
57535W        W  551  15.274  21.453   2.567 -0.2006  0.2183  0.0164
57536W        W  552   1.032  29.490   4.247  0.0541  0.3929 -0.1903
57537W        W  553  17.078   9.333  16.161 -0.5215  0.0789  0.1898
57538W        W  554   3.002   1.350  25.123  0.1644  0.1684  0.0710
57539W        W  555   3.084  28.432   5.583  0.1012 -0.1731 -0.0473
57540W        W  556  25.481  11.790  25.495  0.2387 -0.0183  0.2758
57541W        W  557   5.071  29.877   8.152  0.0736 -0.1821  0.0567
57542W        W  558  13.886  13.528  26.548 -0.0566 -0.1469 -0.1174
57543W        W  559   4.801   5.327  28.871 -0.1292  0.0817 -0.3200
57544W        W  560   8.729   7.081  22.859  0.1745 -0.3754 -0.0985
57545W        W  561   6.336   8.305  21.556 -0.0918  0.2372  0.0970
57546W        W  562  32.817   4.083  27.258 -0.2341 -0.0118  0.2565
57547W        W  563   6.976   3.302   7.995  0.0407  0.3236  0.1250
57548W        W  564  25.431   4.306  20.025 -0.1938 -0.1446 -0.2185
57549W        W  565   2.340   7.660  28.792 -0.2394 -0.1733 -0.3294
57550W        W  566  31.828  12.869  27.312 -0.0238  0.0511 -0.0983
57551W        W  567  31.793   3.766   6.364  0.0817 -0.1045  0.1526
57552W        W  568  34.395   8.114   9.063 -0.0960  0.2039  0.2826
57553W        W  569  28.019   1.605   2.364 -0.3000  0.1136  0.1091
57554W        W  570   3.744  32.138   8.246 -0.0856 -0.4820 -0.1827
57555W        W  571  10.438  15.899   8.683  0.0100  0.2068  0.0869
57556W        W  572   2.623   0.180   4.131 -0.1510  0.1243 -0.2066
57557W        W  573   9.859   3.865   4.611  0.0663 -0.2561 -0.1786
57558W        W  574  10.114  12.656   4.492 -0.3581  0.2587 -0.0890
57559W        W  575  29.752   0.674   9.012 -0.0737  0.1623 -0.0524
57560W        W  576  30.051   9.482   0.065  0.0935  0.1423  0.0763
57561W        W  577  31.349  24.132   8.824 -0.4435 -0.1429 -0.2496
57562W        W  578   4.420  25.820   2.573 -0.2630 -0.1169  0.1873
57563W        W  579   5.351   2.603   0.740 -0.1978  0.0902  0.0673
57564W        W  580   7.716  12.311  22.114  0.0016 -0.0019  0.0217
57565W        W  581   0.469  12.300   9.788  0.1618  0.2945  0.0971
57566W        W  582  32.187  15.140   8.809 -0.0233  0.2191 -0.2123
57567W        W  583  21.888   0.745   3.431  0.2107 -0.3979 -0.0944
57568W        W  584  24.615  18.833   9.658 -0.3224 -0.1206  0.0584
57569W        W  585   0.042  13.488   7.565  0.0686  0.3193 -0.1190
57570W        W  586  16.601   2.590  14.603  0.2874 -0.0895  0.0864
57571W        W  587  15.265   4.327  26.492 -0.1301  0.1626  0.0214
57572W        W  588  34.719  13.229   3.061 -0.3422 -0.0383 -0.0551
57573W        W  589   7.710  20.026  26.022  0.0006 -0.1051  0.1684
57574W        W  590   5.479   8.917  28.889 -0.3476  0.2649 -0.1756
57575W        W  591   8.384  14.544   5.012  0.0877  0.2868  0.0371
57576W        W  592   5.029   9.715   4.769  0.0525 -0.0274  0.1201
57577W        W  593   2.434   1.467   8.941  0.2334 -0.0072 -0.2587
57578W        W  594  10.754  16.927   6.826  0.0916  0.2679  0.0665
57579W        W  595   3.007   0.551   8.351 -0.3380 -0.1068  0.1144
57580W        W  596  28.368  19.839  26.033  0.2029 -0.0214 -0.2892
57581W        W  597  31.235   3.166   8.602  0.0753  0.1565  0.1837
57582W        W  598  10.311  31.079   6.125  0.1063 -0.0349  0.0573
57583W        W  599  10.361   8.228   5.194 -0.0357 -0.0279 -0.2709
57584W        W  600   9.099   7.738   7.576  0.1049 -0.0605 -0.0880
57585W        W  601  26.089   2.093  27.878 -0.0792  0.2038 -0.1388
57586W        W  602  29.667   5.337   8.353  0.1775 -0.0679  0.2187
57587W        W  603  10.899  29.861  27.049 -0.1835  0.1896 -0.1313
57588W        W  604   8.971   6.957   5.841  0.1023 -0.0583  0.2608
57589W        W  605   5.096  11.147   7.015 -0.1194 -0.2239  0.4826
57590W        W  606   6.333  23.802  25.740  0.3970  0.2939 -0.3742
57591W        W  607  29.582   0.056  25.167  0.3088  0.1628  0.0377
57592W        W  608  16.492  25.206  23.800  0.2602 -0.1218 -0.0477
57593W        W  609   0.661   3.014   9.377  0.0645 -0.0369  0.1375
57594W        W  610  12.306   5.745  27.856  0.1238 -0.3660 -0.0631
57595W        W  611  17.967  16.681   0.794 -0.1180  0.0666 -0.0738
57596W        W  612   1.658  19.875   7.018 -0.0502 -0.2645 -0.0594
57597W        W  613   9.137  26.200   3.956 -0.2698 -0.1926  0.3481
57598W        W  614   5.209   3.785  29.122  0.4142  0.2209  0.0671
57599W        W  615   0.855   7.999   5.429  0.1363 -0.0924 -0.1992
57600W        W  616  10.171   1.354   4.241  0.2591 -0.0026 -0.1220
57601W        W  617  27.976   3.719  23.026  0.0239 -0.0288 -0.1178
57602W        W  618   0.843  11.107   9.853  0.1143 -0.1196 -0.0935
57603W        W  619   6.143  16.780  13.540 -0.1564 -0.2532 -0.1101
57604W        W  620  32.058  28.597   5.026 -0.3011 -0.1192  0.0241
57605W        W  621   5.069  31.395   6.202 -0.2088  0.1759  0.4148
57606W        W  622  31.439  12.453  26.223  0.0586  0.2095  0.0821
57607W        W  623   3.284   4.568   3.659 -0.1517  0.1130  0.0473
57608W        W  624  24.761   2.182  27.762  0.2435 -0.0721 -0.1684
57609W        W  625  27.005  20.990   3.290  0.0945 -0.1731 -0.0608
57610W        W  626   1.597   6.473   6.774  0.1429  0.1977 -0.1199
57611W        W  627   3.030   8.619   1.253 -0.0976 -0.0849  0.2594
57612W        W  628   5.149  34.334   9.089  0.0135  0.1241  0.0741
57613W        W  629  34.755   2.553   5.885  0.0817  0.1772 -0.2100
57614W        W  630  31.940  16.198   5.808  0.2473  0.0792 -0.4314
57615W        W  631  16.029  12.289   1.779 -0.0417  0.0161  0.2084
57616W        W  632   0.101   5.960   7.589 -0.1775  0.1889 -0.0805
57617W        W  633  29.547   6.119   5.561 -0.0634 -0.0377 -0.0525
57618W        W  634   9.822  14.720  17.170 -0.2089 -0.1829  0.1046
57619W        W  635  32.753  28.548   1.591  0.1321 -0.2412 -0.0222
57620W        W  636   5.404   5.312   3.996  0.0392  0.0876 -0.1598
57621W        W  637  17.133   9.568  21.883  0.0637 -0.0520  0.2250
57622W        W  638  31.089  31.083   2.797 -0.0867 -0.0181 -0.1459
57623W        W  639  32.812  11.539   3.819  0.1676 -0.0440  0.2012
57624W        W  640   3.809  13.101   2.293 -0.1223  0.1621 -0.0916
57625W        W  641  27.315   2.748   0.981 -0.2092  0.1613  0.1958
57626W        W  642  33.464   3.729  27.155 -0.0521  0.1845 -0.0357
57627W        W  643  12.114   1.211   9.345  0.3638 -0.2524  0.1001
57628W        W  644  32.373   4.734   9.842  0.1228  0.1002  0.0423
57629W        W  645  34.105  34.077   2.899 -0.0280 -0.0307 -0.2237
57630W        W  646  20.684  22.710   4.731  0.0819 -0.4337  0.0238
57631W        W  647  10.836  17.446   6.942  0.0288  0.2814  0.1054
57632W        W  648  18.829  33.751  26.140  0.0956 -0.2367  0.1543
57633W        W  649  28.964   7.435   9.812 -0.0534 -0.2651 -0.1854
57634W        W  650   8.789  17.885   8.804 -0.0002 -0.0797  0.1047
57635W        W  651  21.318   4.318   8.319  0.0057  0.3162  0.1283
57636W        W  652   3.165  29.189   0.623 -0.0845 -0.2975  0.1002
57637W        W  653   5.889   9.188   1.331 -0.1773 -0.1188 -0.2018
57638W        W  654   2.805  23.545   2.082  0.0504 -0.1099 -0.0275
57639W        W  655  27.113   2.759  17.732  0.0073  0.2607 -0.0232
57640W        W  656  21.431  15.783   7.612  0.0870 -0.3382 -0.0285
57641W        W  657   8.599  28.699  28.741  0.0913 -0.0580 -0.1067
57642W        W  658  32.539   6.210  10.091  0.0307 -0.3890  0.0646
57643W        W  659  12.913  26.954  27.241  0.2124 -0.0031 -0.1311
57644W        W  660   7.670  16.501   4.894 -0.0958 -0.0838 -0.0907
57645W        W  661  11.338  12.775  28.845  0.0563  0.5547 -0.1921
57646W        W  662  27.903  21.550   2.104  0.1039  0.1596  0.1430
57647W        W  663  27.793  15.036  28.163  0.2017 -0.0414 -0.2445
57648W        W  664  26.535  28.791  28.955  0.4430  0.0633  0.0885
57649W        W  665  30.438   8.251   1.955 -0.1349  0.1752  0.0351
57650W        W  666   3.994  13.000  15.679  0.1436 -0.1691  0.1133
57651W        W  667  34.646  17.704   2.457  0.1041  0.1229  0.1077
57652W        W  668  24.926   2.888   1.019  0.4412 -0.2726 -0.2833
57653W        W  669  18.715   5.785   5.314 -0.0398 -0.1839  0.0095
57654W        W  670   2.329  24.542  18.189  0.2885  0.0226  0.2614
57655W        W  671  10.729   7.862  22.723  0.1723 -0.0529  0.1575
57656W        W  672   5.656  32.002   3.306 -0.0288 -0.0715  0.4817
57657W        W  673  12.263  11.478  24.646 -0.0487  0.0399 -0.0843
57658W        W  674  27.938   0.799  27.166  0.1870  0.1094  0.0163
57659W        W  675  13.847  14.062   1.780 -0.0246  0.1110  0.4473
57660W        W  676  25.620  22.165  23.788 -0.2604 -0.2358 -0.0963
57661W        W  677   8.048   3.320   8.962  0.2307 -0.0833  0.1321
57662W        W  678  12.653  22.042   9.155  0.3371  0.3178  0.0168
57663W        W  679   9.895   5.553   3.896  0.0500  0.3099 -0.3294
57664W        W  680  25.621   4.097  28.543  0.2460 -0.0491 -0.0101
57665W        W  681  32.404  29.551   9.883  0.0286 -0.1846 -0.0397
57666W        W  682  27.772  27.242   4.645  0.0675  0.1607  0.2525
57667W        W  683   2.687  31.924  19.458 -0.1276 -0.3244  0.1362
57668W        W  684   4.598  14.967   2.760 -0.0095  0.2769 -0.1631
57669W        W  685   3.151  30.819   6.667  0.0907 -0.0366  0.1506
57670W        W  686   7.025  27.703   7.059  0.1123 -0.0186 -0.0315
57671W        W  687  25.806   1.714  22.965 -0.2488 -0.1967 -0.2663
57672W        W  688  13.268  29.786   0.717  0.1198  0.2520  0.0754
57673W        W  689   5.380  14.892  17.976 -0.1760  0.1685  0.2743
57674W        W  690   5.966  19.874  16.685 -0.1113  0.2099  0.1000
57675W        W  691  11.621  12.502   0.055 -0.0226  0.1220 -0.2717
57676W        W  692  32.632  34.661  25.414  0.1656  0.0658 -0.1087
57677W        W  693   0.584   5.476   1.050  0.1368  0.0500  0.3176
57678W        W  694  15.845   8.105  28.134  0.4315  0.0430  0.1114
57679W        W  695   9.595  16.679  24.901 -0.0979  0.1211  0.1624
57680W        W  696   2.349  11.019  16.693  0.0844 -0.0176 -0.1756
57681W        W  697  27.362  31.505   4.589  0.2012  0.1057  0.2207
57682W        W  698   8.018   8.590  28.752 -0.4003 -0.1829  0.0178
57683W        W  699  19.815  29.735  28.600 -0.2975 -0.1859  0.6094
57684W        W  700  34.078  29.492   3.282  0.0603 -0.2526 -0.1658
57685W        W  701   4.150  33.990   3.151  0.1684  0.1688  0.6594
57686W        W  702   9.412   7.963  24.327 -0.2138  0.0704  0.1055
57687W        W  703  26.230  26.314   9.940 -0.4030 -0.1350 -0.3035
57688W        W  704   1.990  34.760   2.259  0.1826 -0.1857 -0.1562
57689W        W  705   0.011   6.724   9.803 -0.2338  0.0060  0.2762
57690W        W  706   5.597   9.229   0.778 -0.0526 -0.0215  0.2074
57691W        W  707   1.214  12.066   8.604 -0.0567 -0.3066 -0.1975
57692W        W  708  14.777  18.074  12.056 -0.1484 -0.3529  0.2157
57693W        W  709   3.044  28.081   2.083 -0.0630 -0.0050  0.2532
57694W        W  710  31.884   6.893  10.272  0.3041 -0.2548  0.1006
57695W        W  711  31.030   6.847  26.608  0.0918 -0.1676  0.0510
57696W        W  712  19.094  10.739   6.902  0.1011  0.1754  0.0064
57697W        W  713   5.951   3.992   9.458 -0.3003 -0.2299  0.3449
57698W        W  714  26.854  28.587   9.167  0.2570 -0.0070 -0.3948
57699W        W  715  23.626  29.467   4.040  0.0507  0.0163  0.1792
57700W        W  716  30.840  11.564  28.972 -0.2067 -0.2691 -0.2177
57701W        W  717   6.392  13.160  10.214  0.0130  0.2615 -0.1041
57702W        W  718   7.684   3.620   7.284  0.1399 -0.2168  0.0971
57703W        W  719  11.597  25.111   5.897 -0.1494 -0.0863 -0.0171
57704W        W  720  20.943   3.058   3.692  0.1798  0.0690  0.1633
57705W        W  721   3.205   7.401   9.560  0.0413  0.3610  0.0153
57706W        W  722   7.391  10.043   5.885 -0.2186  0.1310 -0.0766
57707W        W  723   5.837   8.226   8.460 -0.2028  0.0458  0.0482
57708W        W  724  19.309  31.942  28.964  0.1820 -0.1883 -0.2982
57709W        W  725  28.016   8.430   8.322  0.2584  0.0509 -0.1701
57710W        W  726  33.730   2.738  25.422  0.3860 -0.0862  0.0108
57711W        W  727   1.725   4.680   9.418 -0.0546 -0.1634 -0.2112
57712W        W  728   6.786   3.389  28.735  0.0089  0.2727 -0.3702
57713W        W  729  26.147  19.290  14.108  0.2726  0.3075 -0.1655
57714W        W  730  25.405   3.457   3.481  0.0581 -0.1314  0.3002
57715W        W  731  21.190  12.666  14.107  0.2469  0.2501 -0.0475
57716W        W  732   1.739   0.009  25.522  0.2110  0.1159 -0.1401
57717W        W  733  31.563   1.011   9.967  0.0086  0.0969  0.3614
57718W        W  734  31.845  26.837   1.352 -0.2575  0.0006 -0.1235
57719W        W  735   0.851  19.156   0.987  0.1210 -0.0491  0.0861
57720W        W  736  11.445  12.971  20.326 -0.0559 -0.1706 -0.1761
57721W        W  737   3.027  10.131   3.821 -0.2313 -0.0186  0.0738
57722W        W  738   0.476  12.209  26.357  0.0941 -0.2362 -0.1211
57723W        W  739   6.390  20.235  15.249 -0.1738 -0.2836 -0.0166
57724W        W  740   6.915  16.876   7.590 -0.2881  0.0259  0.0004
57725W        W  741  27.848  16.977  20.597 -0.0455  0.0225 -0.1006
57726W        W  742   1.166   8.609  26.251 -0.2238 -0.0330 -0.2471
57727W        W  743   8.813   0.792   3.720 -0.0441  0.1165  0.2336
57728W        W  744   4.268  10.302   9.115 -0.0992  0.2739 -0.0258
57729W        W  745  10.761   7.576  27.095 -0.0318  0.5020  0.1135
57730W        W  746  12.118   0.289   6.099  0.0656 -0.1340  0.0772
57731W        W  747  22.923  18.141  21.380  0.0177 -0.0599  0.0150
57732W        W  748   3.063  10.133  24.679  0.2381  0.1640  0.1818
57733W        W  749   0.382  19.241  26.250 -0.1626  0.0903  0.1729
57734W        W  750  30.626  19.731   3.133  0.2482  0.3243  0.5425
57735W        W  751   0.996  20.281  15.417  0.3308  0.3591  0.0784
57736W        W  752   8.609  10.085   6.108  0.0497  0.0454 -0.1021
57737W        W  753  11.235   9.330  17.510  0.1403 -0.3255  0.0944
57738W        W  754  30.781  29.476  18.147 -0.2101  0.1208 -0.2153
57739W        W  755   2.334   8.141  29.016 -0.0566  0.0750  0.1468
57740W        W  756  33.718  12.692  29.029  0.0203 -0.0043  0.0388
57741W        W  757  31.403   2.814   2.547 -0.0586  0.0349 -0.0146
57742W        W  758  28.978  14.674   1.663  0.0688 -0.0330  0.3082
57743W        W  759  17.391   0.339  14.591 -0.2116  0.1777  0.1091
57744W        W  760  23.699  18.505   1.188 -0.1614 -0.1475  0.3213
57745W        W  761   4.787  11.927   1.897  0.0924 -0.2587  0.2293
57746W        W  762  26.762  27.578   6.997 -0.1033  0.1769 -0.4360
57747W        W  763  29.816  14.349   1.275 -0.3415 -0.0016  0.1947
57748W        W  764   5.656  19.518  19.028 -0.0296 -0.0071 -0.2004
57749W        W  765  20.406  10.892   5.492 -0.2726  0.0672  0.0977
57750W        W  766  18.763  15.297  24.400 -0.3138 -0.0293 -0.3628
57751W        W  767  10.113  28.167   9.278 -0.2391  0.0550  0.3140
57752W        W  768  25.547  28.591   7.617 -0.2211 -0.3846  0.0194
57753W        W  769  12.919  13.017  13.498  0.1492  0.0450  0.1008
57754W        W  770   1.281  21.357   6.864  0.1231  0.0646  0.0680
57755W        W  771   3.144  11.631   4.890  0.2387 -0.1095  0.0541
57756W        W  772  34.423  15.228  23.843 -0.0405 -0.0298 -0.1430
57757W        W  773  22.202  11.696   3.432 -0.0770  0.1321  0.2589
57758W        W  774  34.154   4.948  28.079 -0.0976  0.0287 -0.1836
57759W        W  775  12.433   2.392   6.219 -0.0269  0.4333  0.0968
57760W        W  776   7.483  14.284   4.938  0.0804 -0.0328  0.1028
57761W        W  777  11.160  13.264  25.506 -0.0145 -0.4218  0.1233
57762W        W  778   3.840   3.158   0.893 -0.1261  0.4748  0.0127
57763W        W  779  14.282   7.347  15.716 -0.0545 -0.0278  0.1964
57764W        W  780  24.911   0.410  18.941  0.0718 -0.0042 -0.0029
57765W        W  781   9.577   8.808   4.904 -0.0331 -0.2724 -0.3165
57766W        W  782   7.823   1.264   4.720  0.0202 -0.2399  0.0201
57767W        W  783  10.560   8.465   7.897  0.4387  0.0541  0.0998
57768W        W  784   1.476  11.518   5.060  0.1130  0.0241 -0.0373
57769W        W  785   4.888  13.189   0.353  0.1330 -0.0616  0.2083
57770W        W  786  12.330   9.172  24.319  0.3708  0.0770 -0.1067
57771W        W  787  32.723   8.190   4.181 -0.0251  0.0912  0.0103
57772W        W  788   2.011   8.376   5.862 -0.1266  0.2326 -0.2525
57773W        W  789   9.855  14.023   5.580 -0.2520 -0.1555 -0.1155
57774W        W  790  33.413  33.058   1.500 -0.1188 -0.1285  0.2930
57775W        W  791  12.565   5.049   3.455  0.2083 -0.2309  0.1326
57776W        W  792  14.940   1.835  20.032  0.1198  0.1279 -0.0610
57777W        W  793   6.072  18.580   3.026  0.0676  0.3681 -0.0605
57778W        W  794  32.003  20.905   8.207 -0.0943 -0.2350 -0.2115
57779W        W  795  24.761  12.417   2.453 -0.1551  0.0579 -0.2483
57780W        W  796   8.241  18.293  20.666  0.1162 -0.0367 -0.1839
57781W        W  797  21.696  29.561   8.067 -0.1068 -0.0438 -0.0969
57782W        W  798   0.042  14.461   2.313  0.0347 -0.2882 -0.0314
57783W        W  799  15.093  29.737  25.696  0.0569 -0.1648 -0.2054
57784W        W  800  30.961   5.882   0.254  0.0174 -0.1446  0.1014
57785W        W  801  12.898  12.407  28.064 -0.1508 -0.0966 -0.1838
57786W        W  802  16.117   5.709   0.069  0.0121  0.0423  0.0417
57787W        W  803   6.709  33.942   5.137 -0.1402 -0.0722 -0.2283
57788W        W  804  24.407  19.733  16.287 -0.1409 -0.0426  0.0960
57789W        W  805  23.313   6.030   6.012 -0.1635 -0.1817 -0.1236
57790W        W  806  26.542  11.219  20.272 -0.0199  0.1643  0.1508
57791W        W  807   2.068  14.080  10.669  0.2012  0.1762  0.0107
57792W        W  808  33.667  16.612  27.639  0.3306  0.0106  0.1858
57793W        W  809   4.508  11.549   2.046  0.2702  0.3114 -0.0812
57794W        W  810  29.908  22.984   1.580  0.0882 -0.1585 -0.5033
57795W        W  811  34.158  15.198   7.260 -0.1570  0.4177 -0.1150
57796W        W  812  28.936   9.815  26.384 -0.3010  0.3722  0.2221
57797W        W  813  30.207  10.942  21.743 -0.1533  0.2582 -0.0751
57798W        W  814  34.030  32.758   9.557  0.0800 -0.2692 -0.2929
57799W        W  815  32.903  28.168  24.475 -0.2585 -0.1639 -0.1449
57800W        W  816   7.673  34.751   0.093  0.0640 -0.0036 -0.2211
57801W        W  817   4.940   8.120  26.892 -0.2057 -0.2825  0.0081
57802W        W  818  17.312  11.077  23.306  0.0734  0.2517  0.1158
57803W        W  819  22.650  12.682   0.060  0.0316 -0.3073  0.0436
57804W        W  820  12.173   6.109  17.313 -0.0082 -0.0393 -0.1442
57805W        W  821   3.336  14.539  28.436  0.1615  0.0549 -0.3391
57806W        W  822  20.530  10.206   7.743  0.1466  0.1493  0.3982
57807W        W  823  23.350  15.680  23.642  0.4259 -0.0250 -0.0948
57808W        W  824  25.922   4.905  24.678  0.1436  0.2357 -0.0736
57809W        W  825  33.581  17.692   1.550 -0.0123  0.0668 -0.1220
57810W        W  826  26.759  32.663   3.757 -0.1077 -0.0891 -0.0824
57811W        W  827   2.987   2.212  28.249 -0.2450  0.1500 -0.0875
57812W        W  828  23.097  22.637  15.877  0.2503 -0.2243  0.0628
57813W        W  829   4.745  30.796   9.124 -0.0879  0.1313  0.2526
57814W        W  830  34.537   5.613  22.014 -0.0901  0.0067  0.1233
57815W        W  831   7.430   1.538   9.201  0.3708  0.0769 -0.1095
57816W        W  832  29.085  14.947  16.819  0.1594  0.1026 -0.0966
57817W        W  833  31.027   8.488   9.246  0.0013 -0.1490  0.1441
57818W        W  834  18.257  11.365  28.639  0.0443  0.3572  0.0988
57819W        W  835  28.886  15.949  23.102 -0.2040 -0.1611  0.0573
57820W        W  836  21.252  31.850   2.339  0.2779  0.0921 -0.1560
57821W        W  837  17.690  21.795   5.188  0.3634  0.2442 -0.1109
57822W        W  838   0.087   6.679  27.127  0.1445 -0.0290 -0.1639
57823W        W  839   5.056  10.280   3.878  0.1094 -0.1527  0.1300
57824W        W  840  34.334   9.342   2.234 -0.4582  0.1554 -0.1302
57825W        W  841  18.401  10.481  22.664 -0.3114 -0.3293 -0.0917
57826W        W  842  11.064  10.831   6.368 -0.0635  0.2799 -0.0803
57827W        W  843   2.808  19.189   1.316  0.0471 -0.0085  0.0948
57828W        W  844  28.075   4.028   8.657 -0.3743 -0.0225  0.0011
57829W        W  845  31.159  13.761  24.896  0.0839  0.2742  0.0649
57830W        W  846  15.591  13.607   5.136  0.4511 -0.1477 -0.1186
57831W        W  847  10.400  11.733   3.694  0.1626 -0.1006  0.0280
57832W        W  848  10.578   9.494   7.215  0.1931  0.2238  0.1992
57833W        W  849   7.707   1.579  24.917  0.3243  0.1951  0.0443
57834W        W  850   4.953  31.460   3.846  0.1065  0.0984  0.0571
57835W        W  851  33.192  12.919  28.462 -0.2290 -0.1931 -0.1449
57836W        W  852  13.202  20.167  23.988 -0.1627 -0.1834  0.0573
57837W        W  853  24.001  11.190  17.826 -0.0464 -0.1576 -0.2546
57838W        W  854   7.251  20.935   1.487 -0.1060  0.1380  0.2991
57839W        W  855  15.012   4.134  14.401  0.1345  0.1709  0.1125
57840W        W  856   1.645   4.525   1.150  0.0415 -0.1093 -0.0252
57841W        W  857  10.936  34.705  29.052  0.0057  0.4550 -0.0721
57842W        W  858   1.296  12.140  23.215  0.1585  0.1370 -0.2117
57843W        W  859  16.251  20.656   5.413  0.1156  0.2962 -0.2271
57844W        W  860   3.799   3.168  10.164 -0.0964 -0.1533 -0.1275
57845W        W  861  11.881   9.678  25.089  0.2057  0.1031 -0.1347
57846W        W  862  34.282  33.825   0.529  0.1541 -0.2786  0.1004
57847W        W  863  26.168   4.739   7.061  0.1791  0.2304 -0.1610
57848W        W  864  11.741  27.765  24.714  0.2448 -0.1754  0.1694
57849W        W  865   8.582  20.212  20.597 -0.2730 -0.1970 -0.3425
57850W        W  866  12.015  18.179  23.002  0.1490  0.1170 -0.2707
57851W        W  867  32.382   9.727  29.030  0.2439  0.0863 -0.1488
57852W        W  868   5.135  24.825   0.620  0.1659  0.0701  0.2224
57853W        W  869  28.461   2.090   3.226 -0.0350 -0.0687 -0.1058
57854W        W  870   3.852   7.118   1.731 -0.1484  0.3469 -0.1290
57855W        W  871   6.697   8.809  23.540  0.3470 -0.1357 -0.1461
57856W        W  872  26.447  26.011  27.725  0.1299 -0.1249 -0.0886
57857W        W  873  10.565  20.697   9.048 -0.3294  0.1130  0.1067
57858W        W  874   5.808   9.851   6.167 -0.0072  0.1584  0.1870
57859W        W  875   4.700   9.727  10.081  0.0784 -0.1750  0.0153
57860W        W  876   0.490   5.884  14.521  0.0307 -0.1833  0.0199
57861W        W  877   1.447  25.644  21.982 -0.1146 -0.1240  0.1329
57862W        W  878   6.283  27.637   8.357  0.0849  0.2858 -0.0207
57863W        W  879   7.828  20.761  21.879 -0.3182  0.3101  0.0239
57864W        W  880  31.352  17.315   9.940  0.0529 -0.1164  0.1657
57865W        W  881  24.028  30.875  10.054  0.0823 -0.0440 -0.3738
57866W        W  882   5.290  22.014   4.337 -0.0485 -0.1989 -0.2440
57867W        W  883  33.364   8.488  26.884  0.2719 -0.0196 -0.0240
57868W        W  884   1.422  31.335   9.277  0.4001  0.2049  0.0781
57869W        W  885  29.792  18.958   4.644  0.1079 -0.0355  0.0216
57870W        W  886  14.770   7.599  22.414 -0.2147 -0.0725  0.1831
57871W        W  887   2.608  27.569  27.828  0.1446  0.0652 -0.2965
57872W        W  888   4.878  10.497  22.990  0.1669 -0.0231 -0.1632
57873W        W  889  29.240  31.821   5.759 -0.2132  0.2989  0.3123
57874W        W  890  26.595  14.014   7.612 -0.3218 -0.0774 -0.0633
57875W        W  891  14.522  23.438   2.407 -0.2313 -0.1412 -0.3797
57876W        W  892  26.335  21.402   3.398 -0.0192 -0.0926 -0.2450
57877W        W  893   1.469  13.992   5.506  0.1616  0.1426  0.0278
57878W        W  894  32.707  24.105  28.170  0.3544 -0.5353  0.1806
57879W        W  895  32.720  14.225  25.117  0.0367  0.0477 -0.2779
57880W        W  896  11.479   8.259  28.823  0.1352 -0.0497 -0.2723
57881W        W  897   5.292  23.752   1.550 -0.4393  0.0956  0.1390
57882W        W  898   1.749  12.871  24.721  0.1227 -0.1148  0.1378
57883W        W  899   8.713  12.736   5.003 -0.1495  0.0214  0.3427
57884W        W  900  20.166  15.368  21.600 -0.1371  0.0811  0.0747
57885W        W  901   5.473  26.324  16.609  0.1269  0.0936 -0.2196
57886W        W  902   9.767  14.435  21.976  0.1811  0.3003 -0.2402
57887W        W  903   3.642  26.464   9.565  0.0263  0.0781 -0.1201
57888W        W  904   7.049  34.540   9.444  0.0309 -0.0137  0.3795
57889W        W  905  30.860   1.623   3.123 -0.2736  0.0448 -0.2732
57890W        W  906  15.264  17.095  26.645 -0.0809 -0.0678 -0.1749
57891W        W  907  13.792  13.765  29.159 -0.2118 -0.1171  0.0648
57892W        W  908  15.394   5.191  24.380  0.0576 -0.1154  0.0002
57893W        W  909   6.993   6.656   7.371  0.0862  0.0372 -0.0876
57894W        W  910   3.330  12.023  26.806  0.0758  0.1662 -0.3953
57895W        W  911  29.994   2.889   0.385 -0.2495 -0.2289 -0.3716
57896W        W  912  15.106  27.195  17.768  0.3509  0.0111 -0.1085
57897W        W  913  23.597   6.982   7.219 -0.3321  0.0910 -0.3451
57898W        W  914  15.328  16.743   0.023 -0.0814 -0.2033 -0.2380
57899W        W  915  21.022   3.726  24.135  0.3614 -0.0558 -0.0567
57900W        W  916   2.445  25.935   0.546 -0.5955 -0.3070  0.0981
57901W        W  917   0.927   6.333   8.320 -0.1867  0.0244 -0.3419
57902W        W  918   9.478  11.191   1.823  0.3085  0.3953  0.3081
57903W        W  919   6.586   4.407  23.224  0.1950 -0.1667  0.0680
57904W        W  920  33.903  24.197  26.551 -0.1372  0.2583 -0.4226
57905W        W  921  24.813  33.674  26.648 -0.1228 -0.0240 -0.0378
57906W        W  922  16.872  22.873   8.582  0.0489  0.1476 -0.0831
57907W        W  923  33.857  12.753   4.063  0.2214  0.2156  0.1364
57908W        W  924  29.623  16.485  28.408  0.2909 -0.1518  0.1479
57909W        W  925  31.624  18.463   5.123 -0.0097  0.0540  0.0241
57910W        W  926  21.588   1.016  18.775 -0.0785  0.0830 -0.1315
57911W        W  927  19.190  21.001   1.095  0.0399 -0.1119  0.1424
57912W        W  928  11.479   8.630  29.302  0.0439 -0.1201  0.0453
57913W        W  929  22.291   8.501  27.643  0.0410 -0.2880  0.2212
57914W        W  930  30.814  16.582   7.592 -0.1696  0.2098 -0.2441
57915W        W  931  31.323  22.198  21.700 -0.0320 -0.0015 -0.1435
57916W        W  932  30.593  16.180  25.848  0.2573 -0.0533  0.0179
57917W        W  933  13.918   8.611  24.874  0.0020 -0.1683  0.1367
57918W        W  934  16.034   6.407   5.170  0.0275  0.0743  0.0448
57919W        W  935   6.946   8.880  18.732 -0.1430  0.2249  0.0708
57920W        W  936   5.305   6.417   6.266 -0.3241 -0.0565 -0.0840
57921W        W  937  20.333  33.501   3.727  0.1753  0.1307  0.2058
57922W        W  938  17.198   5.887  28.697  0.0278 -0.1801  0.0659
57923W        W  939  14.942  33.498   9.359  0.0592  0.0288 -0.1859
57924W        W  940   3.783  11.336   8.430 -0.2931  0.4459 -0.0663
57925W        W  941  25.343  11.664  26.448  0.2532  0.1745 -0.0112
57926W        W  942  24.565   8.428   5.838  0.2313 -0.0188  0.0900
57927W        W  943  33.036  18.196   4.892 -0.2069  0.0788  0.0364
57928W        W  944   9.115  31.233  18.488 -0.1651 -0.2901  0.1675
57929W        W  945  10.448   7.645  18.728 -0.0663  0.0420  0.1916
57930W        W  946  20.037  20.267  21.101 -0.1214 -0.0027  0.0466
57931W        W  947   8.822   5.180   6.698  0.0800  0.0618 -0.2974
57932W        W  948  10.845  19.230  15.302 -0.2976 -0.1587 -0.1245
57933W        W  949  21.012   2.496  28.564 -0.1383  0.2465 -0.1000
57934W        W  950  26.866  10.080  27.283  0.2342 -0.1276 -0.0731
57935W        W  951   2.150  10.471  18.909  0.4114  0.0411  0.1471
57936W        W  952  16.754   8.054  25.981 -0.0670  0.3157  0.2185
57937W        W  953   1.269   6.287   1.479  0.0334 -0.0893 -0.1096
57938W        W  954   5.793   2.125  26.015 -0.0500  0.0658  0.0081
57939W        W  955  27.687  11.420   3.208  0.1363 -0.0509 -0.1433
57940W        W  956   8.358   4.381   4.231  0.1341 -0.2580  0.0076
57941W        W  957  26.588  25.674  23.811  0.0328 -0.0024 -0.0817
57942W        W  958  24.260   7.074  23.041  0.0056 -0.0474  0.0798
57943W        W  959   7.284   4.809   2.682  0.3399  0.1809 -0.0573
57944W        W  960  18.041  18.807   6.776 -0.2108  0.1772  0.0994
57945W        W  961  20.109   8.919   5.498 -0.0539 -0.1067 -0.0458
57946W        W  962  10.437   2.669   8.430 -0.1937  0.1659 -0.0218
57947W        W  963  12.053  17.658   0.386  0.1952 -0.4637  0.1334
57948W        W  964   5.622   9.307  18.537  0.0029 -0.1423 -0.0683
57949W        W  965   4.921  17.107   8.352  0.4096  0.0191  0.0120
57950W        W  966   4.328   4.670   6.999 -0.4059  0.0365 -0.0335
57951W        W  967  28.991   9.363   6.057  0.3211  0.1238 -0.0884
57952W        W  968   5.967  19.645  29.030 -0.2103  0.0661 -0.4735
57953W        W  969   3.611  22.787   3.153  0.1291 -0.0372  0.1369
57954W        W  970   4.668  10.374   8.140 -0.2464 -0.0423 -0.0264
57955W        W  971   7.576  11.735   6.212  0.1109  0.1619 -0.1142
57956W        W  972   0.338   2.419  10.816  0.2912 -0.2961  0.1153
57957W        W  973  33.575   4.416  20.944 -0.3525  0.0252 -0.3037
57958W        W  974   7.491  13.253  16.947  0.0756  0.3855  0.0798
57959W        W  975  29.032  13.582   6.265  0.2402  0.3911 -0.1367
57960W        W  976  31.269  18.457   8.061 -0.2095  0.2839  0.0327
57961W        W  977   3.781  17.624  22.870  0.1140  0.3893  0.0665
57962W        W  978  13.411  17.625  28.736 -0.0615 -0.0006  0.1978
57963W        W  979  10.676   4.889   9.719  0.0931 -0.1544 -0.2367
57964W        W  980   2.337   9.043   0.263 -0.2896  0.1339 -0.2152
57965W        W  981   7.475  27.677   3.639 -0.1387 -0.0503 -0.1019
57966W        W  982  17.267   3.193   3.669 -0.0830 -0.1881  0.0506
57967W        W  983  30.724  14.370  14.566  0.3693 -0.0041  0.1894
57968W        W  984  11.923  16.480   6.981 -0.3217 -0.0710 -0.0612
57969W        W  985   7.642   1.634   4.027  0.1742  0.0408  0.2967
57970W        W  986   1.815  16.951   0.182  0.1337 -0.2250 -0.1108
57971W        W  987   9.081   1.093   9.795 -0.0119  0.3515 -0.2104
57972W        W  988   3.586  32.447   3.969  0.2050 -0.0233  0.0104
57973W        W  989   6.761  16.642   5.438 -0.0869  0.0876 -0.0715
57974W        W  990  28.227  20.804   6.904 -0.0496 -0.3159  0.0521
57975W        W  991  10.681  16.624   6.437  0.2407 -0.0487  0.3348
57976W        W  992  28.654  10.742   0.716 -0.0915 -0.2025 -0.0995
57977W        W  993  31.888  32.049   4.138 -0.1758  0.1292 -0.1318
57978W        W  994  12.578   9.091   3.481  0.3151 -0.3106 -0.1275
57979W        W  995  13.386   8.058  22.047  0.0235 -0.1362 -0.2130
57980W        W  996  34.414  30.399   8.010  0.0873 -0.1226  0.2781
57981W        W  997   7.476  12.183   6.440 -0.3458 -0.3084 -0.3660
57982W        W  998  30.368  27.954  18.456  0.1761  0.0350  0.0012
57983W        W  999  22.976  30.300  17.054  0.0131 -0.0184 -0.1776
57984W        W 1000   8.872  18.425   1.383 -0.0435 -0.1980  0.2859
57985W        W 1001  23.896   1.191  27.168  0.1170 -0.3235  0.1895
57986W        W 1002   5.274  12.501  28.312 -0.0411  0.0842  0.0511
57987W        W 1003   3.586   3.159  23.263 -0.0884 -0.2757 -0.1996
57988W        W 1004  10.508  12.649  29.253 -0.1832  0.2015 -0.1406
57989W        W 1005  30.451  14.266  23.749  0.3500 -0.0563  0.0776
57990W        W 1006  13.068   5.074  27.842 -0.0165  0.0237  0.0619
57991W        W 1007  19.857  28.496   0.237 -0.1289 -0.0893  0.1167
57992W        W 1008  17.819  16.359  23.170  0.2656  0.1157  0.2347
57993W        W 1009   1.570  24.557  20.351 -0.0111 -0.1998 -0.2917
57994W        W 1010  23.657  32.592   3.012 -0.0855  0.0277 -0.3817
57995W        W 1011  13.494   8.434   2.784  0.1065  0.0316  0.0145
57996W        W 1012   1.615  31.893  24.861  0.0321  0.0010  0.1318
57997W        W 1013   4.495   8.098   7.891  0.2764  0.3285  0.0515
57998W        W 1014   2.181  10.100   2.780 -0.1129  0.0192  0.2251
57999W        W 1015  25.677   7.570   0.732 -0.3345 -0.0802  0.1841
58000W        W 1016   3.132   6.953  23.849 -0.0496 -0.2919  0.0988
58001W        W 1017  11.844   1.653   4.649  0.0582 -0.2982  0.0496
58002W        W 1018   0.269  15.001   9.688  0.0578  0.1327 -0.3506
58003W        W 1019   4.089  28.866  24.257 -0.0653  0.0488  0.1393
58004W        W 1020   9.860  15.220  16.778  0.2626  0.1762  0.0364
58005W        W 1021  16.853  27.416   9.660 -0.0873  0.2860  0.0392
58006W        W 1022  22.599   7.966   8.795  0.0443  0.1584 -0.3263
58007W        W 1023  14.570   8.340  25.850 -0.0531 -0.0208  0.0656
58008W        W 1024   3.397   0.039   7.576  0.0475 -0.2013  0.2741
58009W        W 1025   4.626   7.075  10.287  0.1518  0.3566  0.3562
58010W        W 1026   9.311  13.216  28.133 -0.1785  0.1409  0.0438
58011W        W 1027  29.411  15.233   6.911 -0.2033 -0.1846 -0.2726
58012W        W 1028  16.861   6.172  21.064  0.1638 -0.0047  0.0034
58013W        W 1029  12.436   5.965   5.735  0.0271  0.0838 -0.1618
58014W        W 1030  17.614   6.142   1.505 -0.1988  0.1934  0.0195
58015W        W 1031  24.687  33.598   6.643 -0.0186 -0.0931  0.0140
58016W        W 1032  22.395  34.497   0.255 -0.3828  0.3800 -0.0132
58017W        W 1033   6.814   1.943   8.432  0.2546 -0.0883 -0.4066
58018W        W 1034  29.640  10.826   3.889  0.0307  0.0046  0.0201
58019W        W 1035  13.199  24.103  27.965 -0.3076 -0.2537  0.2589
58020W        W 1036  30.831  30.209  16.689  0.2955 -0.1703  0.0082
58021W        W 1037  12.988   9.159  19.079  0.5020 -0.0038  0.3190
58022W        W 1038   4.877  25.313   7.459 -0.0934  0.1329  0.2850
58023W        W 1039  33.396   6.888  20.510  0.1183  0.0646 -0.0571
58024W        W 1040  19.142  32.653  23.684 -0.0191  0.1953  0.2926
58025W        W 1041   7.191  26.766   7.564 -0.0660  0.0461 -0.1150
58026W        W 1042  33.923  10.130  20.436 -0.1829 -0.3554  0.3402
58027W        W 1043  19.639   6.901   5.220  0.2173 -0.1009  0.2668
58028W        W 1044   9.013  22.847   7.604 -0.0467 -0.0481  0.2313
58029W        W 1045  25.014  24.395  19.367  0.3221  0.0339 -0.4366
58030W        W 1046  15.414   5.585   8.577  0.0721  0.2547 -0.2201
58031W        W 1047   9.675  10.588   0.661 -0.1073  0.4317  0.4281
58032W        W 1048  26.230   7.279  26.854  0.3825  0.3007  0.0741
58033W        W 1049  32.037  25.334  26.687 -0.1290  0.1356  0.1207
58034W        W 1050  15.697   3.307   2.351 -0.1605 -0.1864  0.0925
58035W        W 1051   7.738   8.164   6.572 -0.1738  0.0754  0.1899
58036W        W 1052   4.595   1.397  15.614  0.1065 -0.2980  0.0787
58037W        W 1053  10.815  16.356  21.148  0.1764  0.0431 -0.3769
58038W        W 1054  21.337   1.901   9.122  0.3806  0.0599  0.0105
58039W        W 1055  32.967   8.403  24.657  0.0250  0.2296 -0.0024
58040W        W 1056   0.838  33.463  25.771  0.3024  0.1098  0.0217
58041W        W 1057   3.241  14.104   1.118 -0.1128  0.0487  0.1356
58042W        W 1058  22.986  12.882   2.772  0.2155 -0.0185 -0.2437
58043W        W 1059  16.538  13.135  20.263  0.3215  0.3127 -0.1074
58044W        W 1060  26.703  19.299   3.887 -0.2066  0.0329 -0.1671
58045W        W 1061   5.658  20.453   6.544 -0.0933  0.0335  0.2138
58046W        W 1062  12.356  16.929   1.548  0.1841  0.0356 -0.0363
58047W        W 1063  15.491  10.100   3.966  0.1730 -0.1977 -0.3314
58048W        W 1064   2.303  11.712  26.020  0.1170  0.0748  0.1733
58049W        W 1065   1.269   4.127   6.867  0.1219 -0.2131  0.1999
58050W        W 1066   7.672  16.027  24.561 -0.2044  0.2274  0.0194
58051W        W 1067  12.077   2.230   7.929 -0.0789  0.0116 -0.0380
58052W        W 1068   3.963  16.463   3.256  0.2058  0.0589  0.0533
58053W        W 1069  28.810  15.406  26.030 -0.1908  0.0193  0.0470
58054W        W 1070  17.669  19.339  21.210  0.2716  0.0216  0.1344
58055W        W 1071  15.210   0.948   1.202 -0.0002  0.4696 -0.2296
58056W        W 1072   3.006  22.601   6.047 -0.0605 -0.0543 -0.2867
58057W        W 1073   4.400   0.296   0.954 -0.0329 -0.1209 -0.0343
58058W        W 1074   0.113  29.057   4.788  0.0894 -0.0535 -0.1880
58059W        W 1075  33.016   4.244  29.061  0.1921  0.0294  0.1634
58060W        W 1076  26.152   3.520  18.349 -0.0582  0.0535 -0.0172
58061W        W 1077  17.700  12.096  26.969  0.4203 -0.0321 -0.2224
58062W        W 1078  20.564   1.883  24.391  0.1537 -0.2576 -0.0807
58063W        W 1079  19.193   4.229  24.994 -0.0072  0.1492  0.0154
58064W        W 1080  24.850  13.314   7.842 -0.0595  0.1520  0.1045
58065W        W 1081  19.029   8.769  14.651  0.0892 -0.1030 -0.0271
58066W        W 1082   2.788  14.724  26.712 -0.1615 -0.0349  0.0584
58067W        W 1083   7.583   7.524   7.739 -0.1042 -0.0509 -0.0578
58068W        W 1084  33.714   5.269   1.613  0.1207  0.0114 -0.1012
58069W        W 1085  32.670  22.809  10.394  0.1608 -0.0125  0.3691
58070W        W 1086   5.975  19.107  13.189  0.0702  0.1181 -0.1772
58071W        W 1087  29.942   9.905  22.486  0.3254  0.1201  0.1388
58072W        W 1088  34.764   5.965   4.084 -0.0421 -0.0629  0.0149
58073W        W 1089   5.980   8.504   4.782 -0.1965  0.0297  0.2507
58074W        W 1090   7.797  11.647  26.190  0.1196 -0.0051  0.1378
58075W        W 1091  27.036  29.295  22.765 -0.1782 -0.1248  0.0482
58076W        W 1092  14.706  13.895  13.178 -0.3548 -0.1306  0.0822
58077W        W 1093   9.868  12.429  25.290 -0.0567 -0.0636  0.0882
58078W        W 1094   8.397   7.275  18.383  0.1895  0.3562  0.1314
58079W        W 1095  24.813  34.471   1.655  0.2543  0.4012 -0.2579
58080W        W 1096  12.483  15.481  19.910 -0.1292 -0.1280 -0.0496
58081W        W 1097   0.781  11.570   9.656 -0.0323  0.2065  0.0512
58082W        W 1098  13.010   9.572   4.284  0.1953  0.0111 -0.3546
58083W        W 1099  26.861  33.969   8.241 -0.2093 -0.2025  0.1179
58084W        W 1100   1.593  33.688  14.018 -0.1477 -0.0942 -0.0627
58085W        W 1101  13.273  11.809   4.167 -0.3038 -0.0368  0.1291
58086W        W 1102  25.444  25.215  24.551  0.0980 -0.0143 -0.0941
58087W        W 1103  32.511  27.603   5.218 -0.0238 -0.2439 -0.1765
58088W        W 1104   3.831  23.213  20.505  0.2342  0.1195  0.2373
58089W        W 1105  31.484  13.162   8.643 -0.3082  0.1106  0.1533
58090W        W 1106  23.553  12.505  20.572  0.3545  0.1828  0.0666
58091W        W 1107   3.764  11.692   0.233  0.3733 -0.1582  0.0709
58092W        W 1108  18.011  22.049  17.559  0.3006 -0.2110 -0.3523
58093W        W 1109   3.551  19.501  20.439 -0.3694 -0.0341  0.2430
58094W        W 1110   1.631   5.898   4.762 -0.0428 -0.2893  0.0526
58095W        W 1111  18.110   3.562   1.081 -0.0298  0.3490 -0.4218
58096W        W 1112  23.437  17.325  21.011  0.2155  0.0293 -0.0065
58097W        W 1113  17.417   7.735   6.780 -0.1902 -0.0759 -0.1019
58098W        W 1114   8.568  16.768   5.007 -0.2140  0.2233  0.1583
58099W        W 1115  19.835  17.602  21.010  0.0769 -0.1443 -0.1219
58100W        W 1116  33.945  24.827   8.016 -0.1253  0.1983  0.0829
58101W        W 1117  29.431   2.972   9.158  0.0830 -0.2016  0.2014
58102W        W 1118   0.878   4.010   5.821 -0.0638 -0.1977 -0.0373
58103W        W 1119  16.610   6.567  17.164 -0.3225 -0.0657 -0.3321
58104W        W 1120   7.773  11.068  25.561  0.1471  0.1155  0.1592
58105W        W 1121   0.353  26.095   9.652 -0.2385 -0.0733 -0.0068
58106W        W 1122   5.643  11.112   4.580  0.0987 -0.1812  0.2451
58107W        W 1123  15.886   8.571   4.495  0.3225  0.1183  0.2838
58108W        W 1124  12.074  19.456  15.339 -0.1191 -0.1580 -0.1743
58109W        W 1125   3.883   0.451  25.955 -0.1714 -0.1220  0.0225
58110W        W 1126   7.444  20.569  25.232  0.1553  0.2710 -0.0507
58111W        W 1127  25.851  32.754  29.216  0.1064 -0.1052 -0.0737
58112W        W 1128  33.562  22.833   6.351 -0.0144 -0.0927  0.0657
58113W        W 1129   5.986  19.715  21.046  0.0193  0.2924  0.3136
58114W        W 1130   6.600  17.758   7.864  0.2318 -0.1204  0.0155
58115W        W 1131  33.835  15.180   0.222 -0.2391 -0.1561 -0.0127
58116W        W 1132  30.813  14.611   2.956  0.0106  0.0504  0.1857
58117W        W 1133  33.390  19.981  10.395 -0.0513 -0.0472 -0.0577
58118W        W 1134  32.932   9.895   0.062  0.0723  0.0798 -0.0277
58119W        W 1135   2.425  15.556   3.662  0.2063 -0.0634 -0.0447
58120W        W 1136  14.918  21.688   5.925  0.1651  0.0199  0.0036
58121W        W 1137   5.549  16.873  25.953 -0.0542 -0.0619  0.1554
58122W        W 1138   2.114  14.917   6.474 -0.3277  0.3874  0.1058
58123W        W 1139   1.733  16.749   5.025  0.1009  0.2003 -0.1912
58124W        W 1140   0.488  20.501   6.729  0.1799  0.1267  0.0884
58125W        W 1141  33.356  28.204   0.416  0.2063  0.2526 -0.1571
58126W        W 1142   0.399  24.755  22.885  0.0124  0.2173  0.0797
58127W        W 1143   7.719  12.662  26.164  0.1198  0.1647  0.2001
58128W        W 1144  15.277  12.454  21.786  0.1968  0.3554 -0.2669
58129W        W 1145   7.339  16.717  25.863 -0.1021 -0.0279 -0.1226
58130W        W 1146   3.203   9.288  17.660 -0.0573 -0.2248  0.2231
58131W        W 1147  17.818   1.512   6.027  0.4743  0.3391  0.1077
58132W        W 1148  11.430   3.147   5.131  0.1440 -0.0008 -0.0109
58133W        W 1149   3.907  28.575  22.568 -0.0876 -0.2477 -0.0529
58134W        W 1150  17.518  29.488   4.780  0.2924  0.0485 -0.1143
58135W        W 1151   6.193   6.395  20.177 -0.1413 -0.4212  0.2847
58136W        W 1152   7.300  20.032  23.075  0.1563  0.1200  0.2155
58137W        W 1153  20.987   6.615  28.492 -0.1924  0.4035  0.0322
58138W        W 1154  10.328  32.542   8.357 -0.1207 -0.0768  0.1490
58139W        W 1155   1.758  27.386   6.361 -0.2890  0.0303 -0.2438
58140W        W 1156  21.236  23.714  25.174  0.0996 -0.1119 -0.4793
58141W        W 1157  12.535   5.527   4.215 -0.1563 -0.0614  0.1033
58142W        W 1158  34.077  19.103  15.880  0.1722 -0.1699  0.3093
58143W        W 1159   1.640  30.231  26.696  0.2260 -0.3791 -0.1423
58144W        W 1160   4.993  16.156   7.748 -0.2121 -0.0640  0.0376
58145W        W 1161  11.236  10.111  27.225 -0.0700  0.1658 -0.2160
58146W        W 1162   6.607  14.974   4.027  0.1397 -0.0141 -0.1648
58147W        W 1163  21.624   6.156   1.774  0.0083 -0.2962  0.0235
58148W        W 1164   1.475  22.862   7.483  0.2441 -0.0268  0.0391
58149W        W 1165   1.972  14.954  28.974 -0.1362  0.0054  0.0964
58150W        W 1166   3.464  12.703   0.700  0.0471  0.0035 -0.0720
58151W        W 1167  24.760   1.382  26.920  0.1859 -0.1230  0.0505
58152W        W 1168  10.195   7.386   8.085 -0.2407  0.1657  0.2005
58153W        W 1169   0.384   9.673  14.597 -0.1451 -0.5457  0.1914
58154W        W 1170  31.900  18.218   1.862 -0.0599  0.0714  0.2969
58155W        W 1171  11.449  16.258   4.012  0.1692  0.0966  0.0384
58156W        W 1172  32.223  14.557  25.003 -0.0737  0.3409 -0.2038
58157W        W 1173  27.550  31.870   8.555 -0.0840 -0.0686  0.0722
58158W        W 1174   8.916   1.824  27.229 -0.1748 -0.2919  0.1818
58159W        W 1175  25.712  19.014  14.205 -0.0698  0.2450  0.1953
58160W        W 1176  24.936   0.128   4.157 -0.1175 -0.0536  0.0929
58161W        W 1177   5.151  10.165   7.007  0.0002 -0.2820 -0.0093
58162W        W 1178  27.407  20.919  28.767  0.1016 -0.2283 -0.0976
58163W        W 1179  13.950   2.154   5.720  0.0477  0.1149  0.0206
58164W        W 1180  32.127  14.270  23.361 -0.3271  0.0713 -0.2733
58165W        W 1181  29.450  13.214  25.022 -0.1125 -0.0269  0.1645
58166W        W 1182  32.157   8.832   6.846 -0.0395 -0.0527 -0.1668
58167W        W 1183   3.681  16.304   5.666  0.0678 -0.0774 -0.1980
58168W        W 1184  19.801  11.965  16.550  0.2318 -0.0488 -0.0888
58169W        W 1185   7.829   6.420   1.611  0.0034  0.1861 -0.0763
58170W        W 1186  25.924  15.244  21.849 -0.0934 -0.2577 -0.3128
58171W        W 1187  16.366   7.328   4.872 -0.0101 -0.0218 -0.1167
58172W        W 1188   3.044  22.259   7.886 -0.3498 -0.3287 -0.0800
58173W        W 1189  32.273   5.068  27.374  0.2080  0.1932  0.0611
58174W        W 1190  23.340  19.181   7.475 -0.0416  0.0767 -0.1233
58175W        W 1191   8.499  16.873  21.087  0.3857 -0.2088 -0.0559
58176W        W 1192   7.005  20.823  14.615 -0.0777 -0.1294  0.4466
58177W        W 1193   1.133  24.500   2.721  0.1861  0.0833 -0.1056
58178W        W 1194  27.454  19.276  26.084 -0.1406  0.1531 -0.1652
58179W        W 1195  29.952  23.552   7.330  0.4037 -0.0023  0.4214
58180W        W 1196   9.113  24.033   7.990  0.0542  0.0860  0.1530
58181W        W 1197   1.548   9.942  27.152  0.2941  0.1358  0.0008
58182W        W 1198   3.013  11.199   3.512 -0.2377 -0.1032  0.2904
58183W        W 1199  29.389  14.591   6.145 -0.0995  0.1406  0.1217
58184W        W 1200   3.097  21.154   8.170 -0.4035  0.0695 -0.5558
58185W        W 1201   2.544  33.367   6.512  0.0290 -0.2404  0.0886
58186W        W 1202  10.406   4.704  27.717 -0.0034 -0.2749 -0.0859
58187W        W 1203   7.174   2.789   8.749 -0.1174  0.1315 -0.0341
58188W        W 1204  31.384  14.043  21.504  0.4322 -0.1902  0.0804
58189W        W 1205  32.042  19.387   5.435  0.0946 -0.0597  0.1712
58190W        W 1206  32.835  29.010  11.218  0.1737 -0.0247 -0.2019
58191W        W 1207  14.307   4.339   8.902 -0.1677 -0.1467  0.1749
58192W        W 1208  25.617  19.044  24.593  0.3335  0.0709  0.0077
58193W        W 1209  19.891   8.099   1.004  0.2108  0.5176  0.2895
58194W        W 1210  10.808  33.490  28.550  0.2218 -0.1110 -0.3144
58195W        W 1211  32.392   3.497   5.226  0.0007 -0.1075 -0.0163
58196W        W 1212  12.794   4.909   7.621  0.0475  0.4614  0.1491
58197W        W 1213  33.602  26.866  24.436 -0.2471  0.2664  0.0292
58198W        W 1214   9.301   2.946  17.679 -0.1141  0.2730  0.1382
58199W        W 1215   1.204  10.015  23.387  0.0110  0.0092  0.0604
58200W        W 1216   7.226  33.241   9.216 -0.0013 -0.0680 -0.1765
58201W        W 1217  30.963  24.108   2.198  0.0117 -0.0195 -0.1177
58202W        W 1218  22.708  20.804   5.400 -0.1700  0.0723 -0.1349
58203W        W 1219  27.113   7.102   2.378  0.2596 -0.3576  0.1980
58204W        W 1220   6.346   0.427   8.082  0.2285  0.0332  0.2928
58205W        W 1221  12.542   6.823   6.668 -0.0502 -0.1836  0.1701
58206W        W 1222  20.749   7.754  19.861  0.0980 -0.3544 -0.1553
58207W        W 1223  22.437  20.066   4.418  0.1578 -0.0268  0.0860
58208W        W 1224  27.163  22.440   8.415  0.0591  0.1855  0.0871
58209W        W 1225  10.273   9.092   3.517 -0.2091  0.1376 -0.1706
58210W        W 1226  22.809  32.038   4.234 -0.0520  0.0608  0.0615
58211W        W 1227  23.566  29.758   8.860  0.1457  0.3361  0.0464
58212W        W 1228   4.382  11.326   3.009  0.0900  0.2297 -0.1042
58213W        W 1229   7.021   5.491  23.703 -0.1795 -0.0842  0.1877
58214W        W 1230   5.496  15.107   2.318  0.1309 -0.2221  0.2051
58215W        W 1231   6.650  24.583   0.944 -0.2375 -0.1335 -0.0690
58216W        W 1232  19.389  24.203  16.931  0.1255 -0.0282 -0.0641
58217W        W 1233  21.600  20.134  21.615 -0.2417 -0.0470  0.3635
58218W        W 1234   6.332   9.569   5.144 -0.1661 -0.0171 -0.0698
58219W        W 1235  32.688   2.959  20.105  0.1872 -0.0209  0.2396
58220W        W 1236  16.696  33.391   8.912  0.0610  0.0644 -0.0434
58221W        W 1237   6.373  18.091  23.227 -0.3013 -0.0317 -0.0068
58222W        W 1238  26.022  24.285  18.985 -0.0699  0.1239 -0.0864
58223W        W 1239  17.067   9.766   5.482 -0.1287  0.1652 -0.1190
58224W        W 1240  24.046  29.159   7.825  0.1362  0.2480 -0.0953
58225W        W 1241   7.169  32.170   0.518 -0.1324  0.0945  0.0077
58226W        W 1242  24.130  20.111   1.411 -0.1270  0.1103 -0.0105
58227W        W 1243  31.135   5.200   9.571 -0.0133  0.0316  0.0696
58228W        W 1244   2.402  29.150   4.047  0.0174  0.1075 -0.0374
58229W        W 1245  15.078   9.165  28.383  0.2587 -0.2191  0.1236
58230W        W 1246  10.823  21.521   5.520 -0.4419  0.1409 -0.2518
58231W        W 1247  15.345   8.652  28.224 -0.2049 -0.2189  0.1125
58232W        W 1248   6.735  13.615   1.334  0.0077 -0.3306  0.1394
58233W        W 1249  32.111  10.071   2.430  0.0286  0.2635 -0.0242
58234W        W 1250  10.564  11.818  29.301  0.2192 -0.0391  0.4247
58235W        W 1251   5.922  25.624  18.109  0.1884  0.0540  0.0261
58236W        W 1252   0.920   1.488  23.914 -0.0482  0.0166 -0.3321
58237W        W 1253  30.742  21.453   8.224 -0.0435  0.2536 -0.0308
58238W        W 1254  34.085   2.131  22.773  0.0068 -0.2030 -0.1475
58239W        W 1255   6.590   9.841   9.011 -0.0139  0.0706 -0.1207
58240W        W 1256  32.717   2.458   6.259  0.1978  0.0050 -0.2803
58241W        W 1257  19.687  12.573  21.906 -0.1782  0.0409  0.1198
58242W        W 1258  31.293  14.039  10.181  0.1605 -0.0187 -0.1603
58243W        W 1259   7.750   1.768   3.054  0.3091 -0.5415  0.3288
58244W        W 1260  31.179  11.575  10.501 -0.0533 -0.1761 -0.0285
58245W        W 1261  32.340   9.235   1.532  0.0303 -0.2082  0.1069
58246W        W 1262   6.459  33.506   0.856  0.1192  0.2017  0.1845
58247W        W 1263   7.312  17.127   0.547 -0.0995  0.2227 -0.3242
58248W        W 1264   4.289  19.615  27.311  0.1980 -0.1246  0.0376
58249W        W 1265  18.005  16.712  13.978  0.2213 -0.0537  0.1215
58250W        W 1266  23.114  23.293  17.248 -0.1900 -0.3237 -0.0129
58251W        W 1267   2.785   1.101  28.328  0.4118 -0.0358 -0.2686
58252W        W 1268  20.910   6.924   7.943 -0.0025  0.3342 -0.2533
58253W        W 1269  20.134  14.354   3.009 -0.0364 -0.0495 -0.0450
58254W        W 1270  12.213   7.373  15.193  0.1263 -0.0921 -0.1495
58255W        W 1271  17.298   5.759   1.451  0.1258 -0.1743 -0.3578
58256W        W 1272   9.544   3.911   0.275  0.4155 -0.0613  0.1255
58257W        W 1273  22.851  15.996  27.164 -0.0284 -0.1432  0.3402
58258W        W 1274   0.060   4.332  27.717 -0.1570  0.0853  0.1669
58259W        W 1275  28.585  17.197  23.451 -0.2071 -0.1576  0.1156
58260W        W 1276  28.130  28.626  28.445  0.0074 -0.1721 -0.0783
58261W        W 1277   8.767  26.590   4.935  0.5066 -0.3235  0.0317
58262W        W 1278  20.284  24.246  23.016  0.1490 -0.1190  0.0360
58263W        W 1279   7.570  14.496   0.921 -0.2953 -0.1764 -0.1260
58264W        W 1280  30.935  15.312  19.975  0.0639  0.2015 -0.1494
58265W        W 1281   6.222  17.443   7.848 -0.0540  0.0810  0.2349
58266W        W 1282   9.988   7.548  24.921 -0.1354 -0.0181  0.2119
58267W        W 1283   5.692  16.978  29.315 -0.0191 -0.0815  0.0541
58268W        W 1284   5.744  19.010  24.077  0.0456 -0.2141  0.2185
58269W        W 1285  16.664  27.416  17.556  0.0734 -0.2475  0.1805
58270W        W 1286  16.720  11.957  13.535  0.1346 -0.1812  0.0905
58271W        W 1287   9.497  12.597  26.926 -0.0801 -0.0520 -0.0119
58272W        W 1288  32.360  18.019   8.572 -0.0338 -0.1872  0.0749
58273W        W 1289   6.300   7.278  16.327 -0.1743 -0.1264  0.1756
58274W        W 1290  15.613  13.325   2.363 -0.1353  0.0549 -0.0578
58275W        W 1291  11.556   9.958   1.026 -0.0975 -0.1492 -0.0507
58276W        W 1292  30.808  13.209  23.449 -0.0576  0.1699  0.1432
58277W        W 1293  28.974   4.944   5.626 -0.1207 -0.2531 -0.3362
58278W        W 1294  32.260   1.709  23.389 -0.1108 -0.0525 -0.1416
58279W        W 1295  15.504  12.587  27.830 -0.0905 -0.1840 -0.0244
58280W        W 1296  25.633  13.346   2.890 -0.0579 -0.1921 -0.1116
58281W        W 1297  34.442  31.780  29.208 -0.3986  0.1647 -0.2665
58282W        W 1298  33.990   3.180  22.947 -0.0709  0.3066  0.1218
58283W        W 1299  13.730   9.117  23.611  0.1237  0.0650 -0.2214
58284W        W 1300   1.367   0.656   3.370  0.1104  0.0272  0.0205
58285W        W 1301  32.290   9.288  17.014 -0.1408  0.1107 -0.0648
58286W        W 1302   5.078   6.262   5.260  0.2489 -0.0311 -0.2827
58287W        W 1303  29.183  34.041   7.747  0.0512  0.0140  0.3309
58288W        W 1304   2.628  13.655   5.926  0.2368 -0.0504  0.0411
58289W        W 1305   0.722   3.096  23.788 -0.2130  0.0729 -0.3094
58290W        W 1306   2.231  15.788   6.547 -0.1364  0.1791 -0.1170
58291W        W 1307   3.065  15.127   8.318 -0.0028  0.0957 -0.3479
58292W        W 1308   5.604  14.694   7.839 -0.1502  0.0573 -0.1447
58293W        W 1309  13.956   5.618   8.829 -0.0002  0.2992 -0.1663
58294W        W 1310  32.518  15.518   2.567  0.0181 -0.0824  0.0606
58295W        W 1311  33.035   1.593   0.414  0.1969  0.0044 -0.2873
58296W        W 1312  27.261  32.199   9.991  0.2438  0.3293  0.3448
58297W        W 1313  20.452   6.564  19.722  0.1726 -0.0622 -0.1507
58298W        W 1314   9.925  30.619   6.180  0.1541  0.1023  0.2291
58299W        W 1315   0.852  19.865  25.598 -0.2091  0.1023 -0.0928
58300W        W 1316  18.553  12.060  27.936 -0.3283  0.4264  0.0816
58301W        W 1317  12.121  17.754  17.107  0.0934  0.1261 -0.2649
58302W        W 1318   6.493  16.702  18.963  0.1762 -0.3200 -0.0056
58303W        W 1319   0.824  28.595   6.354  0.0893  0.3028 -0.3830
58304W        W 1320  29.423   6.183   3.583 -0.0486 -0.0229 -0.0240
58305W        W 1321  31.677  19.297  28.128  0.0294  0.0660  0.1082
58306W        W 1322   8.723  10.368   2.040 -0.0423 -0.2343  0.1075
58307W        W 1323  26.172  14.551   6.060  0.2228  0.0016 -0.0262
58308W        W 1324  29.390  32.133   2.963  0.1238  0.2454 -0.1120
58309W        W 1325  17.793  13.397  22.868 -0.1490 -0.0384  0.3393
58310W        W 1326  20.702   2.762   5.257 -0.1729 -0.2006  0.0243
58311W        W 1327  30.485  16.796   5.557  0.0064 -0.0609  0.0575
58312W        W 1328  10.200  23.281  26.921 -0.0797 -0.1282 -0.1667
58313W        W 1329  16.547  26.276   8.978  0.0417 -0.2061 -0.1098
58314W        W 1330   2.207   7.185  29.070 -0.1813 -0.0149 -0.2113
58315W        W 1331  34.158  15.936   6.560  0.0923  0.2006 -0.2418
58316W        W 1332  13.967   8.947   3.397 -0.0465 -0.0020 -0.0807
58317W        W 1333   9.618  34.527  20.821  0.0107 -0.2938  0.2548
58318W        W 1334  30.819  11.856   5.496 -0.1041 -0.0621 -0.3389
58319W        W 1335  31.013   5.625   4.533  0.0933 -0.0865 -0.0811
58320W        W 1336   6.629  16.846   3.378 -0.0736  0.1070 -0.1275
58321W        W 1337   4.150   5.837  26.835  0.3459 -0.0523  0.0215
58322W        W 1338   6.465  22.303   6.560  0.0078 -0.0244  0.0362
58323W        W 1339  27.616   9.134  22.149 -0.0270  0.0136 -0.0367
58324W        W 1340  24.451  14.690   6.316 -0.1704 -0.0869 -0.0523
58325W        W 1341  18.519   9.490   6.594 -0.0771 -0.2029  0.3001
58326W        W 1342   3.958  10.878   6.916 -0.0531  0.0102  0.1735
58327W        W 1343  33.660  20.929   4.035 -0.0087 -0.0733  0.1614
58328W        W 1344   0.514  33.792  26.844  0.2006  0.0088  0.1356
58329W        W 1345  27.232  11.104   6.157 -0.0699 -0.1909  0.0066
58330W        W 1346  29.021  11.096  18.636  0.3090 -0.0423  0.2321
58331W        W 1347   2.436  11.177   1.968 -0.0238  0.3285 -0.1116
58332W        W 1348  31.544  28.269   8.826  0.0072  0.0607 -0.0336
58333W        W 1349  12.332   2.792   0.212  0.1729  0.0578 -0.0483
58334W        W 1350  30.744  23.007   9.754  0.1486  0.1004  0.3239
58335W        W 1351  18.455  13.317   3.847 -0.1617 -0.0828 -0.1289
58336W        W 1352  13.513   2.048   7.659 -0.1547  0.2105  0.1974
58337W        W 1353  11.044   8.222  22.028  0.0089 -0.4927  0.1160
58338W        W 1354  34.464  28.817  10.571  0.0231 -0.1500 -0.3044
58339W        W 1355   0.385   1.905   1.154  0.0205 -0.1405 -0.0080
58340W        W 1356   2.094  30.371   4.510  0.2833  0.1758  0.1037
58341W        W 1357  30.602   1.568   0.434  0.1916 -0.0631 -0.0789
58342W        W 1358  30.947  28.253  25.903 -0.1693  0.1492 -0.2544
58343W        W 1359  12.014  12.703  28.725  0.2352 -0.2954  0.0843
58344W        W 1360  18.372   8.089  18.092 -0.2248 -0.0515  0.4410
58345W        W 1361   0.292   6.912   2.491 -0.2226 -0.0754 -0.4051
58346W        W 1362  27.074  24.263   6.674 -0.0988 -0.0143  0.0907
58347W        W 1363   1.033  17.934   2.340 -0.2626  0.0282 -0.1467
58348W        W 1364   3.564  11.404  25.582  0.1715 -0.1203  0.2827
58349W        W 1365   7.822  23.181   5.466 -0.3128 -0.4493  0.2363
58350W        W 1366  29.719  11.824  24.832 -0.1287 -0.2115  0.1549
58351W        W 1367  24.624  24.853  28.442 -0.0941 -0.0399  0.1719
58352W        W 1368  32.672  28.659  18.107  0.0788 -0.1857  0.2101
58353W        W 1369  34.641  20.580   1.766  0.0891  0.1035 -0.0520
58354W        W 1370   5.768  21.581  20.174 -0.0335 -0.0461  0.0028
58355W        W 1371  31.261   6.892  26.174 -0.0225  0.1778 -0.1075
58356W        W 1372  22.811   9.820   3.599  0.4587  0.0079  0.1737
58357W        W 1373  33.850   6.315   7.522 -0.1939 -0.0269  0.1864
58358W        W 1374  11.668  10.780   8.234 -0.1084  0.2775 -0.1896
58359W        W 1375  11.156   6.558   4.842 -0.3140 -0.1597  0.0793
58360W        W 1376  31.723   8.077   5.758 -0.1526 -0.1347  0.1365
58361W        W 1377  28.955  21.505   5.413 -0.0070  0.0859  0.1989
58362W        W 1378  10.602  32.179  26.017 -0.2139 -0.1594  0.1262
58363W        W 1379  32.062  15.177  18.135 -0.1846  0.0122  0.0398
58364W        W 1380  14.114  22.346   3.508 -0.0701  0.2540  0.2482
58365W        W 1381   8.380  15.311  28.342  0.0004 -0.1339  0.0406
58366W        W 1382  33.478  15.220  15.630 -0.1219  0.0178 -0.1976
58367W        W 1383   8.792  20.706   4.772  0.0303 -0.0722 -0.2310
58368W        W 1384   3.317   2.309   2.557 -0.3548  0.2247 -0.1221
58369W        W 1385   3.942  12.961   0.493 -0.0847  0.0157  0.0994
58370W        W 1386  21.142  13.233  19.808 -0.0814  0.1782 -0.2335
58371W        W 1387   3.247  28.242  10.340 -0.0549 -0.0231  0.1898
58372W        W 1388  28.265  13.805  10.281 -0.2973  0.1330 -0.1361
58373W        W 1389  17.532  18.814   4.277  0.1422  0.0025 -0.1446
58374W        W 1390   6.434  26.744  29.244  0.1536 -0.4156 -0.1022
58375W        W 1391  34.641   2.802   4.983 -0.1750  0.0250  0.1604
58376W        W 1392   7.029  19.157   6.240  0.1094  0.1260  0.0357
58377W        W 1393  13.111   3.934   8.879 -0.4632  0.0869  0.2181
58378W        W 1394  14.852   4.015   8.709 -0.1382 -0.3141  0.0574
58379W        W 1395   8.673   9.574   8.948  0.1473  0.0334 -0.3398
58380W        W 1396   1.642  15.152   3.067 -0.0867 -0.1492  0.0430
58381W        W 1397  34.562  11.836  26.726  0.0182 -0.6393 -0.1142
58382W        W 1398  24.239  25.179   9.966 -0.0480 -0.0412  0.1466
58383W        W 1399   4.711  12.761   2.989 -0.0000  0.2297 -0.0782
58384W        W 1400   1.031   7.851   8.608 -0.2965 -0.3153 -0.3654
58385W        W 1401   4.585  30.626  28.971  0.0010 -0.1406 -0.2362
58386W        W 1402  28.941  24.145  28.059 -0.1242  0.0383  0.2065
58387W        W 1403   5.474   8.505   5.298  0.0702  0.0607  0.1431
58388W        W 1404  28.016  17.607  26.094  0.1868 -0.2559 -0.1544
58389W        W 1405   0.938   7.064   0.046 -0.0893 -0.1584 -0.3279
58390W        W 1406   1.202  26.374  25.784  0.2700 -0.1808  0.0850
58391W        W 1407  27.729  10.843   2.072  0.3111 -0.2288  0.0626
58392W        W 1408  30.151  20.522   9.587  0.3839  0.0494  0.1463
58393W        W 1409  29.881  14.198   7.547 -0.1539  0.3033 -0.0924
58394W        W 1410  18.277   4.780   6.178  0.1768 -0.0448 -0.0158
58395W        W 1411  21.083  20.268   3.077  0.0636 -0.0385 -0.0746
58396W        W 1412  33.771   5.239   4.921 -0.0809  0.1591  0.0343
58397W        W 1413  34.765  21.940   2.255 -0.0565  0.2398  0.1264
58398W        W 1414  33.638  14.089  10.033  0.0830 -0.1017  0.0728
58399W        W 1415   3.651  34.454  10.249  0.4043 -0.0223  0.0610
58400W        W 1416  14.918   7.960  21.283  0.2615  0.0653 -0.0657
58401W        W 1417  29.696  23.786   2.071  0.4030 -0.2400 -0.4292
58402W        W 1418   4.290   7.769   6.327  0.2086 -0.1257  0.0464
58403W        W 1419  11.254   2.963   8.575  0.0253  0.1058  0.2626
58404W        W 1420  31.852  13.241  26.891 -0.3067 -0.0339  0.0003
58405W        W 1421  14.310  27.892  25.755 -0.1126 -0.1045  0.0634
58406W        W 1422   4.340  29.898   8.985  0.1734 -0.2573 -0.0347
58407W        W 1423  29.555  10.313   2.505  0.1097  0.1848  0.1224
58408W        W 1424   5.937   5.632   9.824  0.1601  0.1333  0.2519
58409W        W 1425  31.176   9.596   8.622 -0.1238  0.0960  0.0728
58410W        W 1426   0.548  14.649   3.859 -0.2324  0.5130 -0.0523
58411W        W 1427  23.318   8.288   8.436 -0.0251 -0.2177  0.0230
58412W        W 1428  29.686  34.525   0.958 -0.2734 -0.0750  0.2282
58413W        W 1429   9.152  13.456   3.330 -0.1712 -0.1591  0.1700
58414W        W 1430  12.032  14.701  23.010  0.0562 -0.1136 -0.2906
58415W        W 1431   4.620   8.947   3.616  0.1449 -0.0545  0.1192
58416W        W 1432  22.451   0.796   5.170 -0.0492  0.0547  0.0194
58417W        W 1433   3.214  20.511   8.461  0.0202 -0.0485  0.2113
58418W        W 1434  34.378  20.713   4.859 -0.2022 -0.0174  0.1365
58419W        W 1435  26.805  10.219  25.539 -0.0510  0.1910 -0.1582
58420W        W 1436  11.154   0.568  16.487 -0.2385 -0.0452 -0.1486
58421W        W 1437  28.776  13.431   1.051  0.1190 -0.1082 -0.0774
58422W        W 1438  27.854   5.216   6.796  0.1397 -0.1439  0.0005
58423W        W 1439   6.320   9.714   3.379 -0.1625  0.0514 -0.0762
58424W        W 1440  30.980   7.498   1.702  0.1706 -0.0924 -0.3250
58425W        W 1441  27.697   2.727  20.535  0.0456  0.1411  0.1460
58426W        W 1442  31.836  13.947   8.957  0.1580 -0.2000  0.0920
58427W        W 1443  31.274  33.362   8.146 -0.1158  0.0202  0.1259
58428W        W 1444   1.531   7.136  23.163  0.0526 -0.2242 -0.0741
58429W        W 1445  34.475  14.826   2.325  0.1265  0.2626 -0.1914
58430W        W 1446  21.474  26.947  10.860  0.0783 -0.0062  0.7929
58431W        W 1447  27.803  14.752  18.592 -0.4478  0.1756  0.2692
58432W        W 1448  28.757   7.661   6.986 -0.2917 -0.2522  0.3672
58433W        W 1449  18.053  16.221  26.007  0.0234 -0.2491 -0.1279
58434W        W 1450   8.603   9.946   5.163 -0.0385  0.3262 -0.2351
58435W        W 1451  29.368  22.528  28.682 -0.1283  0.0801  0.3724
58436W        W 1452   3.711  15.803  28.720 -0.2893  0.2864  0.0300
58437W        W 1453  21.893  13.561   3.456 -0.3308 -0.0698 -0.4316
58438W        W 1454  33.402  13.308   7.024 -0.1014 -0.0949  0.0834
58439W        W 1455   7.506   7.979  10.662  0.1027  0.0814  0.0583
58440W        W 1456   6.744  17.733  13.901  0.0931 -0.1971  0.1134
58441W        W 1457   7.086   7.796  26.794  0.1803 -0.0944  0.1486
58442W        W 1458  24.220   5.701  24.084 -0.1059 -0.3283  0.2095
58443W        W 1459  17.422  28.452   7.130  0.1438 -0.2724 -0.2928
58444W        W 1460  25.213  34.360  22.035 -0.1611 -0.0860 -0.0248
58445W        W 1461   9.819   9.611  28.164 -0.0207  0.1304 -0.4571
58446W        W 1462  12.378  14.996  25.880  0.3223 -0.0009 -0.1868
58447W        W 1463  24.423  16.935  18.615 -0.3321 -0.0215 -0.1108
58448W        W 1464   4.972   9.968   7.985  0.2069  0.2625  0.0994
58449W        W 1465  17.088  20.473   2.368  0.1477  0.3899 -0.0358
58450W        W 1466  28.441   6.655  15.809  0.3754 -0.0802 -0.4299
58451W        W 1467  27.739  11.621   6.735 -0.1017  0.1190  0.0895
58452W        W 1468  22.160  27.962  28.039  0.1645  0.0490  0.0058
58453W        W 1469  33.984  17.931  20.820  0.1271 -0.0178  0.1823
58454W        W 1470   3.593  13.318   5.917 -0.0856  0.3233  0.2844
58455W        W 1471  14.401   4.903   8.085  0.0635  0.2489 -0.0964
58456W        W 1472   4.036  14.583   3.595  0.1040 -0.1934  0.0146
58457W        W 1473   4.838  17.349   3.841  0.2745  0.0940  0.3065
58458W        W 1474  19.391  23.569   3.502 -0.5489 -0.0851 -0.0227
58459W        W 1475   2.099   5.820  22.226 -0.1040 -0.2228 -0.1678
58460W        W 1476  19.088   4.009  28.661  0.0896 -0.2196  0.6261
58461W        W 1477   6.438  12.639   7.403 -0.1466 -0.1694  0.0953
58462W        W 1478  30.961  21.054  29.102  0.2244 -0.2023 -0.3193
58463W        W 1479  18.605   9.309  27.521  0.1217  0.2478  0.0164
58464W        W 1480  18.221  22.326   8.600 -0.0515  0.0193  0.1900
58465W        W 1481   8.926  13.838  21.331  0.1598 -0.0125 -0.0363
58466W        W 1482  18.165  14.613  28.575 -0.1562 -0.0654  0.2016
58467W        W 1483  13.756   7.655   5.999 -0.3478 -0.3648 -0.1850
58468W        W 1484   0.941   6.869   8.387  0.2122 -0.0982  0.1536
58469W        W 1485  31.896   3.846   1.256 -0.0979  0.3386 -0.1624
58470W        W 1486  25.214  13.755  24.730  0.0811  0.1555  0.2220
58471W        W 1487   4.756  12.841   5.789  0.0420  0.3330 -0.1227
58472W        W 1488   2.042  12.598  27.684  0.0053  0.2119  0.0202
58473W        W 1489   1.632  30.882   5.919 -0.0822  0.1875  0.1547
58474W        W 1490   3.222  20.989   8.588  0.2699  0.5132 -0.0488
58475W        W 1491  30.916  25.677  18.480  0.4104 -0.0825  0.1367
58476W        W 1492  34.307  15.907   0.887 -0.2587 -0.1355 -0.1886
58477W        W 1493  24.045   4.215  21.808 -0.1206  0.0302 -0.1820
58478W        W 1494   1.887  23.799   8.042 -0.2297 -0.0345  0.0609
58479W        W 1495  23.012   5.141   3.889  0.0245  0.2810 -0.2406
58480W        W 1496  23.379   8.823  27.207  0.0449  0.1115  0.3416
58481W        W 1497  13.707   5.820  26.612 -0.0095  0.1431 -0.0197
58482W        W 1498   7.008  13.205   3.705  0.5084  0.0983  0.2633
58483W        W 1499  20.458  34.612   6.578  0.2209  0.0384 -0.2002
58484W        W 1500  10.925   3.377  24.583 -0.0929  0.1348  0.0437
58485W        W 1501   3.755   8.783   8.188 -0.1253 -0.0953  0.2225
58486W        W 1502  18.009   0.101   5.724  0.0355  0.0855  0.1388
58487W        W 1503  29.633   8.155  10.932  0.2575  0.0255 -0.1183
58488W        W 1504   9.695  28.342  20.319  0.2389  0.3933  0.1671
58489W        W 1505   5.174  30.636  24.523 -0.0020  0.0502 -0.0912
58490W        W 1506   1.404  18.426   3.591  0.3007  0.1457 -0.1348
58491W        W 1507   0.621  18.574   8.921  0.1575 -0.0323  0.0101
58492W        W 1508  26.633  26.654   8.339 -0.2044  0.1268 -0.0138
58493W        W 1509  24.028  16.467   1.098 -0.3146  0.0356  0.1825
58494W        W 1510   4.252  25.355  22.620 -0.3123 -0.1609 -0.2915
58495W        W 1511   7.897  10.499   3.019  0.0730 -0.1380  0.0737
58496W        W 1512  31.586  13.151   4.373  0.0864  0.0084 -0.2979
58497W        W 1513   8.149  15.643   8.580 -0.2545 -0.1431  0.3149
58498W        W 1514  11.766  29.448   5.967  0.1799  0.1362  0.0871
58499W        W 1515   0.619  13.000  11.044  0.0784 -0.1531  0.1782
58500W        W 1516   9.186  16.886   7.872 -0.2749  0.0334 -0.1434
58501W        W 1517  27.821  21.010  27.695 -0.0082  0.3096 -0.2706
58502W        W 1518  10.283  23.377   4.657  0.2086  0.2129 -0.0329
58503W        W 1519  11.732  12.744   4.755  0.1273 -0.4066 -0.1104
58504W        W 1520  10.022  11.877   5.239  0.0174 -0.0314 -0.2249
58505W        W 1521   3.122  26.999   3.967 -0.0162  0.2224  0.0503
58506W        W 1522  13.847  10.249   2.274  0.1216 -0.0018  0.1400
58507W        W 1523  14.274  11.610   0.094 -0.1227  0.1480  0.5269
58508W        W 1524   9.388  22.449   5.719  0.1159  0.0006  0.2445
58509W        W 1525  24.396  18.206  27.240  0.1674 -0.0873 -0.0455
58510W        W 1526  16.323  13.970   1.162 -0.1369 -0.0209 -0.2852
58511W        W 1527  34.402   9.114  21.794 -0.1391  0.0179  0.0099
58512W        W 1528  23.774   3.354  16.226 -0.1193  0.3962  0.0019
58513W        W 1529   1.908  19.673  27.952  0.0190 -0.0183 -0.3277
58514W        W 1530  34.204   5.427  10.502 -0.2332  0.0873  0.0435
58515W        W 1531   4.574   7.139   2.369  0.1552 -0.1858 -0.2844
58516W        W 1532   7.947  16.461  14.855 -0.1775  0.1442 -0.0213
58517W        W 1533  34.665   8.152   8.663  0.1101  0.3123  0.0799
58518W        W 1534   5.849   5.234   9.449  0.1662 -0.1475  0.1413
58519W        W 1535  13.846  11.861   7.515  0.0123  0.0059 -0.1526
58520W        W 1536  34.623  32.231  15.960  0.0717 -0.0858  0.1465
58521W        W 1537  15.347  29.877   7.464  0.2942 -0.5725 -0.1399
58522W        W 1538  33.403   7.133   0.817 -0.0686 -0.2216 -0.0004
58523W        W 1539  23.707  28.226   8.709  0.1382 -0.1143 -0.0170
58524W        W 1540  30.718   8.269  25.025  0.0459  0.1265 -0.1891
58525W        W 1541  11.251   8.809   7.797  0.1251 -0.2479  0.0103
58526W        W 1542  16.340  10.383   8.456 -0.0189 -0.1296 -0.0419
58527W        W 1543   5.925  16.437  26.997 -0.0759  0.0761  0.0303
58528W        W 1544   4.280   7.050  13.584 -0.1533 -0.1046 -0.0454
58529W        W 1545  26.579   6.798   7.293  0.1705 -0.2883 -0.1596
58530W        W 1546  21.428   4.087   0.839 -0.0830 -0.0462 -0.1381
58531W        W 1547  24.995  15.519   1.499 -0.1593  0.0853 -0.0789
58532W        W 1548  21.455   1.440  26.273  0.1450 -0.2941 -0.0132
58533W        W 1549  11.478  25.246  20.521  0.0098 -0.1883 -0.2346
58534W        W 1550  32.231   1.854  28.094  0.0937 -0.3786 -0.3515
58535W        W 1551   3.187  22.332   8.862  0.2144  0.0694 -0.1763
58536W        W 1552  11.691  11.391   5.284  0.0995 -0.0859 -0.0223
58537W        W 1553  30.890   9.588   7.124  0.1993 -0.2341  0.2512
58538W        W 1554  30.686  17.228   9.365  0.1305 -0.0909  0.0412
58539W        W 1555  27.342  34.168   8.397 -0.0016 -0.1564 -0.0730
58540W        W 1556  21.534  12.888   7.695 -0.2234  0.0665  0.1079
58541W        W 1557  27.441  26.005   0.823  0.1377 -0.4114  0.1658
58542W        W 1558  29.878  30.598  11.438  0.3268  0.1779  0.0961
58543W        W 1559  11.403   8.495  25.504  0.1555 -0.0348  0.2000
58544W        W 1560   3.525   9.438  22.599 -0.1192 -0.4389 -0.0332
58545W        W 1561  30.902   9.492  26.898  0.2654 -0.0069 -0.4222
58546W        W 1562   3.466  18.224   2.927 -0.3174  0.0437 -0.0117
58547W        W 1563  13.593  16.727   1.009  0.0144  0.0013 -0.2296
58548W        W 1564  32.253  10.716   8.804 -0.0559  0.1597  0.1660
58549W        W 1565  15.724   5.417   3.119 -0.1454 -0.0236  0.0388
58550W        W 1566  27.364  31.768   1.963 -0.0175  0.2163 -0.2918
58551W        W 1567  29.135   6.892   4.126  0.1026 -0.0303 -0.0138
58552W        W 1568  33.083   2.040  24.808 -0.3347  0.3905  0.1013
58553W        W 1569  18.298  17.952  24.439  0.1744 -0.3823  0.0931
58554W        W 1570  24.556   2.221   6.783  0.1525 -0.2109 -0.0433
58555W        W 1571  22.569   8.395   7.292  0.1461 -0.1985  0.2568
58556W        W 1572   7.684  16.300  27.316 -0.0481  0.0068 -0.0325
58557W        W 1573   5.191  11.461   0.019  0.4364  0.0813 -0.1204
58558W        W 1574   8.913   1.312   4.592  0.0027 -0.0120  0.2041
58559W        W 1575  18.180  15.852  29.143 -0.0990 -0.2902  0.0575
58560W        W 1576  32.978  14.873   9.569 -0.2799 -0.1583  0.0248
58561W        W 1577  27.774   9.896   1.051 -0.1915 -0.1110  0.1263
58562W        W 1578   6.102  19.251  21.854 -0.1603 -0.0291 -0.2293
58563W        W 1579  12.187  14.255   2.053 -0.3438  0.3867 -0.1528
58564W        W 1580  22.214  32.284  27.782  0.1113 -0.0413 -0.0290
58565W        W 1581  24.994  13.725  14.355  0.0160 -0.0533 -0.1536
58566W        W 1582   7.265  22.355  21.179  0.0831 -0.0815 -0.1156
58567W        W 1583   0.886   7.581  23.517 -0.0181  0.2079  0.1898
58568W        W 1584   9.740  28.537   9.440 -0.0816  0.1745  0.1853
58569W        W 1585  11.726   4.165   0.327  0.2693 -0.2188 -0.0396
58570W        W 1586  14.847  17.729   4.108  0.3879 -0.0675 -0.2281
58571W        W 1587  34.113   8.367  26.782 -0.2551  0.1203 -0.0932
58572W        W 1588  27.087  17.801   3.954  0.0033  0.0236  0.1334
58573W        W 1589   1.425   0.563  27.143  0.1587 -0.0106 -0.0794
58574W        W 1590  15.906  27.867   9.337 -0.0750  0.3620 -0.0219
58575W        W 1591  22.280  22.121  25.655 -0.1459 -0.1136 -0.3194
58576W        W 1592  28.529  20.354   8.301 -0.3000 -0.0352  0.2930
58577W        W 1593  32.473  32.292  11.065 -0.1059  0.2721 -0.0109
58578W        W 1594   4.153  11.118   2.608  0.0465  0.1344  0.1441
58579W        W 1595   6.323  15.176   6.584  0.1034  0.2334 -0.2895
58580W        W 1596  14.540  21.033   7.476  0.0124 -0.3810  0.1244
58581W        W 1597  16.854   0.594  10.712  0.3094  0.1523  0.1135
58582W        W 1598  29.019   3.221  24.021 -0.1516 -0.0397 -0.2013
58583W        W 1599  13.565  15.544  24.515 -0.0479  0.1429  0.2846
58584W        W 1600   5.122  30.107   4.663 -0.0020  0.1522  0.0357
58585W        W 1601   0.722  20.068   7.130  0.0963 -0.0088  0.1730
58586W        W 1602   0.695  12.614   3.122  0.1414  0.0142  0.3224
58587W        W 1603   9.578  14.013  21.777 -0.0948 -0.1306  0.1257
58588W        W 1604   8.328  31.840  25.851  0.0021  0.1329  0.0171
58589W        W 1605  12.361   9.890   7.588  0.1039  0.1275  0.0089
58590W        W 1606   8.411  12.707  27.673  0.0390  0.1597 -0.2057
58591W        W 1607  30.663  16.753  28.132 -0.0128  0.2660 -0.0383
58592W        W 1608  30.736   4.625   5.052 -0.0171 -0.3287  0.0853
58593W        W 1609  19.814   6.852  23.833  0.0467 -0.2784 -0.0540
58594W        W 1610   9.258   9.486   2.861 -0.0745 -0.2515  0.0452
58595W        W 1611   1.698  23.232  24.441 -0.3060  0.0756 -0.1654
58596W        W 1612  20.719   9.853   2.331 -0.1111  0.1307 -0.1556
58597W        W 1613  27.208  23.779  16.923 -0.1558  0.0143  0.2697
58598W        W 1614   7.801  18.371   8.006 -0.0028  0.1116 -0.2410
58599W        W 1615   0.080   7.934   4.554 -0.0931 -0.1174 -0.1980
58600W        W 1616  33.714   4.308  17.942  0.0947  0.1989 -0.2950
58601W        W 1617   2.985  11.355   6.068  0.0815  0.1042 -0.0776
58602W        W 1618   6.583  13.519  23.776 -0.1096 -0.0399 -0.4601
58603W        W 1619   8.756  34.315   9.364  0.2350  0.3381 -0.0003
58604W        W 1620   6.103  11.065   9.478  0.3567 -0.1311  0.1243
58605W        W 1621  27.685  20.602   0.743  0.2149 -0.1037  0.1528
58606W        W 1622   1.672  31.192  22.977  0.0488 -0.4377  0.0778
58607W        W 1623   0.187  14.503  28.650  0.1492 -0.0667 -0.1460
58608W        W 1624   4.235   5.916   4.223  0.2049  0.0060 -0.1334
58609W        W 1625  34.496  19.502   9.083  0.0951  0.0553  0.1953
58610W        W 1626   0.420  18.768   1.120 -0.0068 -0.1119  0.0615
58611W        W 1627  22.103  32.723   9.952 -0.2645 -0.0805 -0.0997
58612W        W 1628  10.655   6.317   6.971 -0.1040 -0.0212  0.0658
58613W        W 1629  25.859   0.283   4.693 -0.0233  0.3216 -0.2694
58614W        W 1630   5.882  13.824  17.056 -0.0045 -0.0092  0.1546
58615W        W 1631   3.339  11.603   3.878 -0.1253  0.0705  0.3249
58616W        W 1632   7.117  19.654   4.752 -0.2264 -0.1144  0.1710
58617W        W 1633   1.900  15.086   0.626  0.0606  0.1197  0.3548
58618W        W 1634   4.082  28.281  26.963  0.0550  0.3137 -0.0881
58619W        W 1635  33.726   6.919   9.477 -0.2329 -0.2974  0.1301
58620W        W 1636   2.025  32.395  22.006 -0.0524 -0.1454  0.2026
58621W        W 1637   2.879   7.390   9.094 -0.0074 -0.0278 -0.1058
58622W        W 1638   2.547  17.745   4.657 -0.1929  0.0379  0.1493
58623W        W 1639   9.216  24.072   1.507  0.1631  0.2489 -0.0319
58624W        W 1640   7.474   3.789   8.627 -0.2088  0.3025 -0.1217
58625W        W 1641  32.779   2.449   9.791  0.1678  0.0157  0.0222
58626W        W 1642  34.776  14.530  20.627 -0.0984 -0.2657  0.0190
58627W        W 1643   2.062  33.084  20.010  0.0074  0.1420  0.0393
58628W        W 1644  10.143   9.732   3.710 -0.0837  0.0241  0.0751
58629W        W 1645   4.013  28.424   1.928  0.0470 -0.1978  0.2874
58630W        W 1646  32.524  26.548  17.387  0.5242 -0.1472  0.1014
58631W        W 1647  24.706  19.173  28.460  0.1587 -0.3024 -0.1504
58632W        W 1648   2.574  14.372  24.083 -0.0481 -0.0033 -0.2072
58633W        W 1649  32.131  25.261   7.896  0.0166 -0.2677 -0.0779
58634W        W 1650  25.660   5.599  14.800  0.1428 -0.1673 -0.4473
58635W        W 1651  21.696  15.009   1.031 -0.0131  0.0374 -0.0434
58636W        W 1652  21.894   4.227   3.744 -0.1282  0.0923  0.0771
58637W        W 1653   1.118  10.500   6.814 -0.1965  0.3093  0.0110
58638W        W 1654  31.141   3.998   8.918  0.1292 -0.1321 -0.0448
58639W        W 1655   7.126   6.484  23.648  0.0161  0.0821  0.1992
58640W        W 1656   5.234  24.484  26.582  0.0109 -0.2146  0.0333
58641W        W 1657   5.168  11.387   9.052  0.0567 -0.1531  0.1815
58642W        W 1658  11.342   4.327   6.414  0.0856  0.2057 -0.4008
58643W        W 1659  14.307  10.118   7.845  0.0251 -0.1233  0.1905
58644W        W 1660   9.024  23.052   3.770  0.0953  0.0609 -0.0152
58645W        W 1661  31.070  29.781   1.014 -0.1684  0.0443 -0.0502
58646W        W 1662   2.330  30.550   9.634 -0.0056 -0.0464  0.1272
58647W        W 1663   3.208   5.423  17.250 -0.0503  0.0655 -0.2519
58648W        W 1664   8.718   0.046  24.538  0.0273  0.2136  0.1752
58649W        W 1665   5.112   7.415  24.398  0.3246 -0.0795  0.1921
58650W        W 1666  28.573   3.696  24.728 -0.2156  0.1414 -0.0905
58651W        W 1667   7.682   3.620   6.773 -0.0708 -0.1073 -0.2813
58652W        W 1668  10.348  30.692   7.115  0.2121  0.0459  0.0600
58653W        W 1669  31.910   4.420  24.545  0.0759 -0.2885  0.1219
58654W        W 1670  10.070  13.453   9.027 -0.0597 -0.0869  0.4428
58655W        W 1671   5.725  15.238   8.186  0.2088 -0.2883  0.0811
58656W        W 1672  12.561  19.039   0.038  0.3802  0.1859  0.4118
58657W        W 1673  23.488  22.606   6.904 -0.3626 -0.0511  0.2827
58658W        W 1674  23.489  25.624   7.783  0.1697 -0.0707 -0.0427
58659W        W 1675  21.958   9.727  27.169 -0.0041 -0.0906 -0.2437
58660W        W 1676  31.765  15.969   8.755  0.1798  0.1004  0.0318
58661W        W 1677  29.585   1.542   8.484 -0.1298  0.0301 -0.0870
58662W        W 1678   3.703  14.346   5.573 -0.1506  0.0230  0.4801
58663W        W 1679  19.119   2.859   0.242 -0.0916  0.2019 -0.0003
58664W        W 1680  32.336  18.135  23.859  0.0374  0.0280 -0.1272
58665W        W 1681   2.336  15.364  22.467  0.1561  0.4873 -0.2020
58666W        W 1682  13.553  20.876   7.480  0.0242  0.1553 -0.5668
58667W        W 1683  30.974   1.162   2.484 -0.0017 -0.0006  0.0423
58668W        W 1684  31.142   5.608   8.018  0.0761  0.0821 -0.1273
58669W        W 1685  32.216  18.749  22.264  0.1238  0.2546 -0.1897
58670W        W 1686  34.403   2.841   8.267  0.0575 -0.5906 -0.1618
58671W        W 1687  23.522   8.600  15.694 -0.0012  0.1832  0.2173
58672W        W 1688   4.619   6.465   6.952  0.3036  0.1437  0.0654
58673W        W 1689  32.237  10.632   8.290 -0.3771  0.0136  0.2265
58674W        W 1690   1.846   8.922   4.091 -0.0753  0.1149  0.0568
58675W        W 1691  34.033  33.088   7.087  0.0463 -0.1743  0.2409
58676W        W 1692   5.599   1.761  10.246  0.1099  0.1179  0.3466
58677W        W 1693  27.241   8.029   9.069 -0.1684 -0.3971  0.0104
58678W        W 1694   1.916  14.186   5.269 -0.2585  0.0729 -0.0396
58679W        W 1695   7.721  27.559   9.557 -0.3615  0.0332  0.1858
58680W        W 1696   9.306  11.012   5.121  0.0773  0.0695 -0.0471
58681W        W 1697  13.946   1.722   5.130 -0.1660 -0.0929  0.1420
58682W        W 1698   9.082  30.223   9.314 -0.1182 -0.1631 -0.3291
58683W        W 1699  24.336  32.316   9.493  0.3059 -0.0100 -0.0542
58684W        W 1700   7.008  19.058  26.974 -0.3760 -0.1179 -0.2036
58685W        W 1701  33.740  11.543  27.671  0.1685 -0.0099 -0.3429
58686W        W 1702  26.719   7.064   8.409  0.0921  0.0213  0.3372
58687W        W 1703  33.073   4.900   9.215 -0.2145  0.1043  0.1855
58688W        W 1704   2.776  22.724  21.987 -0.0133  0.0796 -0.0014
58689W        W 1705   7.351  10.058   6.696 -0.0370 -0.1060  0.1311
58690W        W 1706  12.496  19.820   3.538 -0.0673 -0.0378  0.1440
58691W        W 1707   7.358   9.174  28.481 -0.1214  0.0076  0.1573
58692W        W 1708  29.722  29.310   0.077 -0.0045  0.0864  0.2496
58693W        W 1709  29.917  16.719  24.552  0.0578 -0.0067  0.1361
58694W        W 1710  18.682   9.464  15.867  0.0991  0.2146 -0.1228
58695W        W 1711  29.689  14.945  26.121  0.1539  0.1793  0.1005
58696W        W 1712  24.969  12.711   9.874 -0.2641 -0.2484  0.2176
58697W        W 1713   6.413   7.186   9.472 -0.1150 -0.2589  0.1436
58698W        W 1714  16.383   8.838  24.776 -0.0988  0.1657  0.1220
58699W        W 1715  28.502  17.706   8.317 -0.3549  0.1253 -0.3092
58700W        W 1716   3.188  16.341   2.591 -0.1318  0.4671 -0.1836
58701W        W 1717   5.448  15.913  18.925  0.3141  0.0253 -0.1311
58702W        W 1718  24.229  27.380  23.606 -0.3233  0.3073  0.2418
58703W        W 1719  15.310  12.919   6.192  0.1074  0.0815  0.1717
58704W        W 1720   0.143  13.917   9.013  0.1240 -0.0556  0.2439
58705W        W 1721   9.780  13.525  21.771  0.1589 -0.1696 -0.1605
58706W        W 1722   0.740  24.889   4.047  0.1594  0.0011 -0.0030
58707W        W 1723  18.006   5.298  21.525 -0.1835  0.1876 -0.2622
58708W        W 1724  33.380   7.473   5.015 -0.1900 -0.1324  0.1920
58709W        W 1725  13.307  19.762   0.822 -0.1957  0.0616  0.0180
58710W        W 1726   7.298  15.001  21.200  0.0890 -0.2329 -0.0461
58711W        W 1727  10.935  25.256  22.020  0.4119 -0.0236  0.3545
58712W        W 1728  28.237   2.053   6.334  0.0750 -0.2110  0.2362
58713W        W 1729   2.904  10.037  23.161 -0.1103 -0.1250 -0.1162
58714W        W 1730   7.989   8.508   5.484  0.1135 -0.2763  0.3434
58715W        W 1731   4.279  10.224   4.287  0.3109  0.1324  0.0405
58716W        W 1732   4.989   5.429   7.238  0.1484  0.2229 -0.0699
58717W        W 1733   4.932   3.426   9.272 -0.1395  0.0809  0.1593
58718W        W 1734   9.091  33.617   2.456  0.3239  0.0725 -0.1229
58719W        W 1735   1.106  11.924   7.737 -0.1981 -0.2640 -0.1735
58720W        W 1736   9.116  34.766  17.706  0.0995 -0.0104 -0.1651
58721W        W 1737  24.697  27.493   0.482 -0.0352 -0.0083  0.1863
58722W        W 1738  11.139   5.929   5.638 -0.0164 -0.0257 -0.2436
58723W        W 1739   7.960   5.487   8.786 -0.0374 -0.1962 -0.1387
58724W        W 1740  34.360   9.745  19.388  0.1672 -0.1523 -0.2111
58725W        W 1741  32.372  14.263  28.839 -0.1818  0.1007 -0.2478
58726W        W 1742   6.205   8.305  10.601  0.0534 -0.1143 -0.2799
58727W        W 1743  15.932  15.912   4.756 -0.0462  0.0925 -0.2161
58728W        W 1744  10.486   7.180   0.178 -0.1126  0.0111  0.2350
58729W        W 1745  27.998   1.634   7.993 -0.0164 -0.1053 -0.3352
58730W        W 1746  34.240  16.309  25.825 -0.0331 -0.0470 -0.4390
58731W        W 1747  33.807   8.600   0.930 -0.0834  0.0303 -0.0400
58732W        W 1748  32.593   3.998   0.027  0.0272 -0.2129  0.1458
58733W        W 1749   8.903  12.374  27.581 -0.1114 -0.3163 -0.0529
58734W        W 1750  31.478   4.594   3.509  0.2477  0.2255  0.0951
58735W        W 1751   4.300  25.432  16.756 -0.3765 -0.1838 -0.2231
58736W        W 1752  27.855  24.225   8.748  0.0494 -0.2856  0.4596
58737W        W 1753  28.487   4.035   5.822  0.0039  0.0908 -0.1234
58738W        W 1754  33.962  13.378   5.849 -0.0653  0.2011  0.2535
58739W        W 1755  11.283  13.674   7.320  0.1659  0.2939  0.2830
58740W        W 1756  20.539   6.991   6.260 -0.2890 -0.1750 -0.5159
58741W        W 1757   3.982  16.095   3.744  0.1048  0.1765 -0.0372
58742W        W 1758  29.567  32.654   4.088 -0.1330  0.1646  0.2605
58743W        W 1759   6.489  28.567   8.529 -0.1646  0.0761 -0.3610
58744W        W 1760   8.602  17.967   4.479 -0.2498 -0.1112  0.1387
58745W        W 1761   2.412   8.490   8.927 -0.0730 -0.0091 -0.1821
58746W        W 1762   6.088  17.983   0.844  0.3639  0.0980  0.0773
58747W        W 1763  33.643  12.525   1.798  0.0409  0.2067 -0.1365
58748W        W 1764  30.337   8.178   3.469  0.1786 -0.1471 -0.1007
58749W        W 1765   1.361  28.456  22.377 -0.0645  0.1125  0.0148
58750W        W 1766   3.234   3.065   1.341  0.1472  0.2417 -0.1141
58751W        W 1767  22.196  16.467   5.192  0.1009  0.1150 -0.0732
58752W        W 1768   3.375  21.141   7.200  0.1444  0.2747  0.0089
58753W        W 1769  28.332   1.367   0.054 -0.3098 -0.2450  0.2316
58754W        W 1770  10.459   9.753  28.422 -0.0856 -0.1739 -0.2145
58755W        W 1771  32.442  17.696   2.751  0.0534 -0.3460  0.1924
58756W        W 1772   7.054  16.004   6.710  0.3166  0.1164 -0.0173
58757W        W 1773  14.548   4.749   9.675 -0.2012  0.0552 -0.0564
58758W        W 1774  31.609   9.506   4.355 -0.4675 -0.3321 -0.0935
58759W        W 1775   4.404  10.755  24.187  0.1684 -0.0742 -0.1303
58760W        W 1776   5.123  12.714  23.799 -0.1126 -0.0401  0.1437
58761W        W 1777   5.648  24.135  28.201 -0.2369  0.0355 -0.2615
58762W        W 1778   7.583   0.772  18.552 -0.0397 -0.0461 -0.2026
58763W        W 1779   1.731   6.705   9.522 -0.2568 -0.1030  0.0562
58764W        W 1780  34.371  10.995   3.362  0.1134 -0.3450  0.1717
58765W        W 1781  31.941  10.240   8.139 -0.2393 -0.1239  0.0305
58766W        W 1782  31.905   4.822   9.549  0.1275 -0.1002  0.1828
58767W        W 1783  20.632   2.670  28.136 -0.0767 -0.0361  0.0673
58768W        W 1784  33.085  14.885   1.991 -0.0984 -0.1588  0.1154
58769W        W 1785   5.795   4.767   9.583 -0.0666 -0.2404 -0.2554
58770W        W 1786  30.501  26.847   2.608  0.1722 -0.3010  0.2353
58771W        W 1787   8.277  20.157   9.225  0.2466 -0.0500 -0.3906
58772W        W 1788  27.841  17.959   9.478  0.2172  0.1961 -0.2242
58773W        W 1789  34.252   1.192  27.263  0.0364 -0.1766  0.1334
58774W        W 1790  26.464   5.575   6.220 -0.0890 -0.0794  0.0391
58775W        W 1791  32.367  27.899   7.594 -0.0042  0.0495 -0.0254
58776W        W 1792   1.952  10.075   1.985  0.0796  0.1528 -0.1858
58777W        W 1793  27.622   4.301   0.435 -0.0438  0.0979 -0.1311
58778W        W 1794   4.631   5.626  26.070 -0.1372  0.2272  0.3992
58779W        W 1795   6.802  15.009   1.122  0.0353 -0.1797  0.0454
58780W        W 1796  13.549   2.073  29.137 -0.1007 -0.3483 -0.2379
58781W        W 1797  34.742  11.481   0.254 -0.3786 -0.2911  0.0933
58782W        W 1798  18.726  18.994   1.427 -0.3206  0.1228  0.3422
58783W        W 1799   1.454  14.505   5.246 -0.0757  0.3021  0.0084
58784W        W 1800  20.884  16.910   1.101  0.2469 -0.4908 -0.0708
58785W        W 1801   7.889   6.907  27.399  0.0450 -0.0117  0.1137
58786W        W 1802  29.045  13.357  26.742  0.0077 -0.4422  0.1217
58787W        W 1803  30.294  34.679   4.489 -0.1770 -0.0744  0.2438
58788W        W 1804  21.366   9.278  16.963 -0.1841 -0.1406  0.0194
58789W        W 1805  18.135   8.872  28.920 -0.0758 -0.2062  0.5548
58790W        W 1806   0.702  21.906  19.763  0.2680 -0.0652 -0.0132
58791W        W 1807  21.547  31.677   6.811 -0.0478  0.0092  0.0022
58792W        W 1808   3.145  20.817  26.294 -0.0791 -0.2599  0.1233
58793W        W 1809  19.150  25.487   7.306 -0.3311 -0.1180  0.1190
58794W        W 1810  19.148  19.431  14.732  0.2276  0.1449 -0.2545
58795W        W 1811   3.615  12.089   8.117 -0.0122  0.0998 -0.3317
58796W        W 1812  13.099  32.835   1.705  0.0745 -0.1136 -0.1293
58797W        W 1813  32.882   5.006  20.158  0.1458 -0.2171  0.0135
58798W        W 1814   1.152  11.963   2.254 -0.1214 -0.0090  0.1868
58799W        W 1815  28.100   0.794  29.146 -0.0477 -0.0573 -0.2558
58800W        W 1816   7.989   8.629   9.035 -0.1068  0.2260 -0.3815
58801W        W 1817   2.781  13.984  27.369  0.0146 -0.0031  0.1659
58802W        W 1818   3.285  15.655   0.210  0.2331  0.0868 -0.5484
58803W        W 1819  33.740   4.848   0.175  0.1485  0.1675 -0.0284
58804W        W 1820  30.068  32.112  17.177 -0.3236 -0.4880  0.1150
58805W        W 1821   8.651  16.909  24.329 -0.0754 -0.2881  0.1769
58806W        W 1822   9.747  15.033   6.760  0.2250  0.2785  0.1306
58807W        W 1823   0.174   5.749  25.947 -0.0445 -0.1122  0.1867
58808W        W 1824   3.451  16.420   9.558 -0.1370  0.1660 -0.1799
58809W        W 1825   9.041  11.890   1.781  0.0691 -0.1097 -0.0546
58810W        W 1826  21.495  20.358   2.158  0.0582  0.2941 -0.2129
58811W        W 1827   4.986  21.303  27.941 -0.0687 -0.0931  0.1468
58812W        W 1828   1.671   6.011   6.544 -0.0540  0.0147 -0.1039
58813W        W 1829  33.528  10.795   5.638 -0.4701  0.0556  0.0170
58814W        W 1830   0.185  18.754   2.917  0.1615  0.0446 -0.1840
58815W        W 1831  18.476  20.830   8.820 -0.1164 -0.1281 -0.1347
58816W        W 1832  33.853   3.011  27.398 -0.2672 -0.0120 -0.0121
58817W        W 1833   8.295  13.929  26.980 -0.0923 -0.0300 -0.1403
58818W        W 1834   3.453  26.571  25.374 -0.1420  0.0642  0.0041
58819W        W 1835  13.383  21.353   7.609  0.1100  0.0215 -0.1435
58820W        W 1836  33.420   3.478  23.671 -0.0226 -0.2125 -0.0987
58821W        W 1837  24.710  29.043   6.713 -0.0434  0.0624 -0.0112
58822W        W 1838  21.287  23.604  26.860 -0.0147  0.0152  0.0065
58823W        W 1839  32.194  10.178  28.933  0.3119 -0.1791 -0.0375
58824W        W 1840  30.484  24.996  20.358 -0.0136  0.0538 -0.2161
58825W        W 1841  34.155   4.744   3.093 -0.0955 -0.0855 -0.0267
58826W        W 1842  18.935  29.963  10.720 -0.0841 -0.1677  0.0772
58827W        W 1843  17.306  22.641  26.445 -0.2350  0.1495  0.3520
58828W        W 1844   7.163  12.296  28.722  0.0202 -0.0758  0.2013
58829W        W 1845  16.010   2.608  23.260  0.0980  0.2689  0.0746
58830W        W 1846   4.769  15.281  20.025 -0.2202 -0.0193  0.0315
58831W        W 1847   6.058  12.909   7.605 -0.3401 -0.0104  0.1281
58832W        W 1848   5.895   6.457   8.793 -0.0672 -0.0151 -0.1166
58833W        W 1849  13.797   6.790  20.573  0.0934  0.0356 -0.2534
58834W        W 1850   8.163  24.082   7.904  0.0718  0.2081  0.0731
58835W        W 1851  31.343   4.095   6.444 -0.0600  0.1988 -0.1696
58836W        W 1852   1.912   8.086  21.664  0.0716  0.0299  0.0215
58837W        W 1853  13.945  17.695  13.486  0.1170  0.1766 -0.0015
58838W        W 1854  10.875   5.265  24.327 -0.1576 -0.1698  0.2991
58839W        W 1855  24.900  13.567   5.201  0.0479 -0.1988 -0.2001
58840W        W 1856  25.964   4.953  19.586 -0.0309  0.4729 -0.1332
58841W        W 1857  15.834  21.379  11.389  0.1048 -0.1797 -0.0691
58842W        W 1858  23.288  31.194  27.703  0.1973 -0.2693  0.0581
58843W        W 1859   1.140  27.675  20.673  0.1825 -0.4158 -0.1698
58844W        W 1860   5.221  12.813   2.397 -0.0492  0.2650 -0.1386
58845W        W 1861   1.162  19.681   3.232 -0.0701 -0.0779 -0.1590
58846W        W 1862   6.259   8.803   1.820 -0.0871 -0.3425 -0.3810
58847W        W 1863   5.823  22.684   1.478 -0.2614 -0.0976  0.0643
58848W        W 1864   5.052  11.888  27.751  0.1915  0.1515  0.0387
58849W        W 1865   0.518  12.865   8.485 -0.4115 -0.0270 -0.1985
58850W        W 1866  30.320  27.797   5.968 -0.2359 -0.2467 -0.0672
58851W        W 1867   0.090   8.730   0.940  0.4256 -0.3265 -0.0325
58852W        W 1868  26.101  14.419  25.234  0.0123 -0.0803  0.3695
58853W        W 1869  18.872   6.290   5.366 -0.0355  0.0890  0.1998
58854W        W 1870   3.721  29.090   3.899  0.2108 -0.0439 -0.0727
58855W        W 1871   3.758  14.082   4.835 -0.0695  0.3801  0.0849
58856W        W 1872  23.816  13.636  26.833 -0.0518  0.2063 -0.1230
58857W        W 1873   4.775   9.602   4.209  0.0461  0.1866  0.0391
58858W        W 1874   7.209  12.021   9.715 -0.0644  0.2509  0.2966
58859W        W 1875   2.085  27.724   4.426 -0.1080 -0.1388  0.1844
58860W        W 1876   8.056  22.357  13.614 -0.1022  0.3370 -0.0882
58861W        W 1877  12.663  11.653   4.962  0.0466 -0.4088 -0.1244
58862W        W 1878  27.738   6.606  27.205  0.0649 -0.3333  0.1561
58863W        W 1879   0.378  29.491  10.772 -0.0285 -0.0527 -0.0051
58864W        W 1880  10.128  10.229   8.225 -0.0711 -0.0940  0.0746
58865W        W 1881  26.358  25.866  11.456  0.2460 -0.0031 -0.0927
58866W        W 1882   6.127  29.383  27.332 -0.0699  0.1362  0.4169
58867W        W 1883  34.436   3.612   9.968 -0.1026  0.1466  0.2153
58868W        W 1884   3.564  12.104   5.577 -0.0382  0.0634  0.2751
58869W        W 1885  33.463  15.056  16.552 -0.1747  0.2088 -0.0859
58870W        W 1886  34.581   1.026  23.925  0.0923  0.0410 -0.1071
58871W        W 1887   8.966  21.624  19.619  0.0502 -0.1689 -0.0760
58872W        W 1888   0.402  11.332  26.080  0.1062 -0.0145  0.0236
58873W        W 1889  22.539   8.804   8.572 -0.0802  0.1016  0.0905
58874W        W 1890   3.785   4.515   4.820 -0.1016 -0.2704  0.0323
58875W        W 1891  26.168   6.676  22.096 -0.0305  0.0144 -0.1436
58876W        W 1892  30.766  18.325  28.794  0.0117  0.1968 -0.1493
58877W        W 1893   3.192  17.921   9.513 -0.1457  0.1560 -0.0345
58878W        W 1894  25.332  11.131  26.508 -0.0241  0.3519  0.2947
58879W        W 1895   2.284  21.837   4.488 -0.0919  0.1406  0.3270
58880W        W 1896   0.802  30.825  18.497 -0.2732  0.2113 -0.0030
58881W        W 1897  11.609  20.033   6.200 -0.0288 -0.0869 -0.4840
58882W        W 1898  10.410  21.805  24.642 -0.0554 -0.1241  0.2999
58883W        W 1899  25.510  14.638  18.001  0.2344  0.0555  0.2306
58884W        W 1900  22.150   1.475  23.727  0.1250  0.2443 -0.0179
58885W        W 1901  33.638   5.830   4.072  0.0597 -0.1564 -0.1846
58886W        W 1902  17.096  10.247  15.824 -0.0594 -0.1018  0.1624
58887W        W 1903   8.392   3.460  16.868  0.1841 -0.3762 -0.1466
58888W        W 1904   7.189   9.148   9.396 -0.2802  0.1422 -0.1345
58889W        W 1905  22.151  18.085   4.521 -0.0100 -0.1240 -0.1092
58890W        W 1906   6.876   4.224   7.185  0.1854 -0.4060 -0.3153
58891W        W 1907  22.233  24.831  26.508 -0.0966  0.1483  0.0746
58892W        W 1908   9.402  10.774   7.583  0.3061  0.0029 -0.4623
58893W        W 1909   0.891  19.731  27.074  0.2024  0.0467  0.0652
58894W        W 1910  13.605  17.147   4.549 -0.1643  0.2740 -0.1196
58895W        W 1911  15.166  20.659  25.540  0.2254  0.2431 -0.2527
58896W        W 1912   1.441  32.058   8.761 -0.0417  0.1796  0.1095
58897W        W 1913   0.858   6.928  15.463  0.0603 -0.0745  0.1080
58898W        W 1914  23.175  10.076  17.051  0.0393  0.0596  0.1049
58899W        W 1915  26.129   7.825   1.159  0.2168 -0.0848  0.0064
58900W        W 1916  33.215  13.287  27.270 -0.0951  0.1819 -0.0172
58901W        W 1917  14.060   9.389  29.199  0.0631  0.0127 -0.2025
58902W        W 1918  34.743  30.262  21.712 -0.1102 -0.2363 -0.2712
58903W        W 1919  30.808  11.364  28.476  0.0039  0.2192 -0.2173
58904W        W 1920   7.347  19.003  13.360 -0.0631 -0.1770 -0.0245
58905W        W 1921   3.351  20.097  26.024  0.1181  0.0529 -0.1115
58906W        W 1922   7.259   0.593  10.946 -0.0076  0.1247  0.3135
58907W        W 1923  10.356  14.745  28.607  0.2075  0.3300 -0.4798
58908W        W 1924   8.578  15.976   4.660 -0.2974 -0.0032  0.0010
58909W        W 1925  25.575   3.860  23.879  0.0435  0.0570 -0.1603
58910W        W 1926   4.643   7.269   3.155  0.1328  0.0728  0.1833
58911W        W 1927  28.026  20.177  19.990  0.1575  0.0309 -0.1391
58912W        W 1928  25.848  13.610  24.423  0.1416 -0.0434  0.0021
58913W        W 1929   7.053   3.391   2.889  0.1793  0.0708  0.0540
58914W        W 1930   3.323  14.812   0.822 -0.0636 -0.0183 -0.4380
58915W        W 1931  30.162   3.273  28.394  0.1168  0.0244  0.2436
58916W        W 1932   5.320  26.263   6.456 -0.1459  0.1553  0.4948
58917W        W 1933  26.516   0.694   3.979  0.1659  0.1817  0.4018
58918W        W 1934  33.998  14.632   4.619  0.0791  0.0284 -0.0199
58919W        W 1935  18.082   3.638   8.045 -0.1711  0.0304  0.2100
58920W        W 1936  23.656   5.549  29.148 -0.2022 -0.0238  0.0218
58921W        W 1937  26.130  12.398   2.968 -0.0435 -0.2785 -0.1413
58922W        W 1938   9.389   0.811   0.145  0.0083  0.1981 -0.1681
58923W        W 1939  25.578  14.618   1.021  0.1545  0.2640  0.0497
58924W        W 1940  33.936  14.237   6.972  0.2490 -0.0056  0.1101
58925W        W 1941  15.297  23.432  16.306 -0.1916  0.2281 -0.3085
58926W        W 1942  31.695   7.726   6.193  0.1165  0.0487  0.3109
58927W        W 1943   9.397   7.766   8.289  0.1073  0.1512 -0.2440
58928W        W 1944  28.237   1.890   9.334 -0.0289 -0.1077 -0.1285
58929W        W 1945  28.571  10.835  16.099  0.3161 -0.1628 -0.0457
58930W        W 1946  25.776  16.534   7.699  0.0056 -0.0722  0.1714
58931W        W 1947  33.920   2.896   1.265 -0.1270  0.2218 -0.0717
58932W        W 1948   5.924   5.702   9.319  0.0482 -0.0421  0.2099
58933W        W 1949  14.831   2.567   6.848 -0.1166  0.0178 -0.0218
58934W        W 1950   9.226  15.991   3.968  0.0610 -0.1002 -0.0556
58935W        W 1951  22.808  34.419  10.145 -0.2055  0.4174 -0.0221
58936W        W 1952   5.749  18.942   1.895  0.2680  0.0418  0.4436
58937W        W 1953   3.672  17.055   0.262  0.2892  0.0729 -0.1181
58938W        W 1954  11.803  10.084   4.256 -0.1221 -0.5564  0.1847
58939W        W 1955   3.390  16.025  19.025 -0.1335  0.1809 -0.0004
58940W        W 1956   2.944   9.277  28.330 -0.0255 -0.2736 -0.0693
58941W        W 1957   1.991  22.517  27.377 -0.3758  0.0600  0.1576
58942W        W 1958   5.386  22.307  27.581  0.3168 -0.2726  0.2189
58943W        W 1959  32.440  13.664  19.088  0.3596 -0.0938  0.0475
58944W        W 1960  25.303  13.199  23.614 -0.0320  0.2073 -0.0227
58945W        W 1961  15.598  18.452   7.607 -0.0868 -0.2406 -0.0996
58946W        W 1962  30.393  12.242   6.276  0.0180  0.0547 -0.0555
58947W        W 1963   1.084  19.912   9.544  0.3835  0.1165  0.1861
58948W        W 1964   8.629  22.931   4.614  0.1579  0.0883 -0.0925
58949W        W 1965   8.695   4.714   5.958  0.3280  0.1263 -0.2471
58950W        W 1966  33.885   7.712   6.157 -0.1869 -0.1440 -0.1980
58951W        W 1967  30.427  19.835   1.389 -0.1522  0.1694 -0.0173
58952W        W 1968  29.919  13.320   2.616 -0.0198  0.0726  0.0245
58953W        W 1969  14.370   7.668  14.294 -0.2550 -0.1586  0.1076
58954W        W 1970   4.062  11.316   0.913  0.0074 -0.2454 -0.0298
58955W        W 1971   3.720  33.986   7.651  0.0805  0.0031 -0.0394
58956W        W 1972   5.076   1.502   8.320 -0.1044 -0.3933  0.0721
58957W        W 1973  13.146   5.482  19.151  0.0151  0.1695 -0.0169
58958W        W 1974  32.132  28.314   0.841  0.0604 -0.1073 -0.2395
58959W        W 1975  11.953  18.910   1.132 -0.0237  0.0048  0.1959
58960W        W 1976  32.617  17.359   4.607 -0.0405 -0.3100  0.0342
58961W        W 1977  32.259  27.239   5.631 -0.2845  0.0213 -0.1821
58962W        W 1978  16.368  13.647  21.589  0.2685 -0.0073  0.1746
58963W        W 1979  24.355   8.552  15.087 -0.4561 -0.1743 -0.1548
58964W        W 1980  21.600  17.564  23.664  0.0083 -0.0842 -0.2847
58965W        W 1981  33.432  13.282  19.006 -0.0888 -0.1822 -0.1232
58966W        W 1982  27.309  29.883  25.361  0.0357 -0.0530 -0.2854
58967W        W 1983   5.136  13.636  15.435  0.1214  0.1028  0.4227
58968W        W 1984   0.689   5.598   8.894 -0.1505  0.3085  0.2203
58969W        W 1985   2.199  19.220  21.575  0.2351 -0.2350 -0.1288
58970W        W 1986  16.290  32.372   7.411 -0.1322 -0.1309  0.2454
58971W        W 1987  33.687   9.655  26.403 -0.0816 -0.1891 -0.3823
58972W        W 1988  28.402   5.346   0.214 -0.0127  0.2417 -0.1220
58973W        W 1989  28.679   9.235  21.822  0.1526  0.2105  0.0044
58974W        W 1990  24.179  16.789  26.907  0.0725 -0.0588 -0.2194
58975W        W 1991  20.705  28.234  28.007  0.1361 -0.2923 -0.1125
58976W        W 1992   3.895  23.261   8.253  0.0527  0.1392  0.1082
58977W        W 1993  28.659  17.018  10.652 -0.0156 -0.2136 -0.2292
58978W        W 1994   0.826  12.681  27.850  0.4638  0.0698 -0.3355
58979W        W 1995   7.138   9.902   2.203 -0.0477 -0.3292  0.2257
58980W        W 1996   2.978  16.425  21.964  0.0077  0.2654  0.1608
58981W        W 1997  26.922  19.115  21.663 -0.0691  0.1101 -0.0751
58982W        W 1998  12.744   9.903   1.164  0.1218 -0.0787  0.0052
58983W        W 1999  26.748  11.654  10.167  0.2776 -0.2261 -0.1066
58984W        W 2000  30.786   9.438   9.500 -0.1170  0.4159 -0.2583
58985W        W 2001  32.297  18.327  27.164  0.1713  0.0558  0.4972
58986W        W 2002   6.849  32.037   9.854  0.0509  0.2522  0.3053
58987W        W 2003  18.340  22.781  23.665 -0.0852 -0.1093 -0.1755
58988W        W 2004  21.909   9.502   3.152  0.2221 -0.2103  0.2141
58989W        W 2005   6.155   8.969  25.357 -0.3726  0.0075  0.3121
58990W        W 2006  15.559   7.142  21.624  0.3371  0.3233  0.1435
58991W        W 2007   1.147  16.033  10.918  0.0652  0.3715  0.0048
58992W        W 2008   0.785   4.218  25.618 -0.2184 -0.1774 -0.1874
58993W        W 2009  24.965   4.903  17.758 -0.0500 -0.0271 -0.3018
58994W        W 2010  33.793  16.417   8.101 -0.0014 -0.3212 -0.0623
58995W        W 2011  27.166  33.035  11.649 -0.0615 -0.2065  0.3305
58996W        W 2012  12.084  16.503  24.389 -0.0750 -0.0498 -0.0013
58997W        W 2013   4.999  16.482  19.304 -0.2531 -0.1856 -0.2708
58998W        W 2014  16.024   8.657  16.980 -0.0482  0.3936  0.1801
58999W        W 2015   4.194   3.275   7.073 -0.1823  0.2681  0.0020
59000W        W 2016  23.168   9.792  27.073  0.2761  0.1304  0.1227
59001W        W 2017  32.527  23.421   4.160  0.0056 -0.1425  0.2383
59002W        W 2018  30.345   9.171  29.161 -0.1889 -0.1796 -0.2526
59003W        W 2019  26.736  21.050  21.740 -0.1118 -0.1231  0.3203
59004W        W 2020  30.079  26.214   1.499 -0.0018 -0.0424 -0.0965
59005W        W 2021  23.126   7.112   7.457  0.0829 -0.0279 -0.2227
59006W        W 2022   5.328  11.779   7.886 -0.4971 -0.0949  0.1039
59007W        W 2023   3.459  24.807  15.049  0.3203  0.1044  0.0050
59008W        W 2024   2.979  22.353   2.416 -0.2242 -0.1706  0.0395
59009W        W 2025  33.282   9.953   5.666 -0.3768  0.2049  0.3883
59010W        W 2026  23.071  15.605   5.065  0.0420 -0.0837 -0.0496
59011W        W 2027   3.919   7.809  16.102  0.0316  0.0719  0.3815
59012W        W 2028  24.256   4.509   0.417  0.1256 -0.1590  0.4697
59013W        W 2029   0.032  25.297   5.868 -0.0046  0.0987 -0.0210
59014W        W 2030   9.490  34.303   5.854  0.0166  0.4502  0.2917
59015W        W 2031   0.194   6.286   9.030  0.0921 -0.0597 -0.1606
59016W        W 2032  11.974   4.850   5.181 -0.0848  0.0488 -0.1341
59017W        W 2033  28.727   5.332  20.350 -0.0535  0.0214  0.1042
59018W        W 2034   3.564  24.434   3.067  0.0037 -0.2348  0.0946
59019W        W 2035  34.552  18.297   3.621  0.0941  0.2395 -0.3830
59020W        W 2036  22.391  18.146  17.249 -0.1084  0.0903  0.0821
59021W        W 2037   5.080   9.467   3.190  0.1376  0.1780  0.1565
59022W        W 2038  17.861  11.233  14.392  0.0636 -0.0425  0.1188
59023W        W 2039   4.638  16.477   8.259 -0.1432 -0.1759  0.2027
59024W        W 2040  18.614  11.893   2.064  0.1331  0.0815  0.1682
59025W        W 2041   3.497  15.756   7.619  0.0007 -0.1670  0.1891
59026W        W 2042   7.042  11.614   4.305 -0.1323 -0.0697 -0.0727
59027W        W 2043  10.698  10.627   1.204  0.0791  0.2113 -0.1014
59028W        W 2044  23.167  16.483   4.779  0.0978 -0.0766 -0.0538
59029W        W 2045  33.642  30.012  29.252  0.0494 -0.1273  0.0052
59030W        W 2046   9.031   4.846  18.249 -0.2129 -0.0184 -0.2396
59031W        W 2047  12.901  20.115  14.409  0.1653 -0.3277 -0.1184
59032W        W 2048  24.712  11.858  28.599 -0.1527 -0.1194  0.0137
59033W        W 2049   1.793  23.729  17.980  0.0513 -0.2768  0.1364
59034W        W 2050  24.210  33.762   8.434 -0.1758 -0.0340 -0.2541
59035W        W 2051  34.256  24.414  16.741  0.2121 -0.1828  0.1643
59036W        W 2052  19.113   8.001   1.978 -0.1404  0.0546  0.3201
59037W        W 2053   3.419   7.088  28.058 -0.1060 -0.0705 -0.2789
59038W        W 2054   4.953  32.577   1.265 -0.1196 -0.3189  0.2438
59039W        W 2055  15.585  27.891  29.054  0.1970  0.0685 -0.1416
59040W        W 2056  29.281  19.726  26.654 -0.1603  0.1531  0.0388
59041W        W 2057   9.879  17.117  20.686 -0.2341 -0.0169  0.1690
59042W        W 2058   0.652   6.691  20.523 -0.2773 -0.0210  0.0503
59043W        W 2059   2.212  27.612  17.072 -0.1707  0.2345 -0.1135
59044W        W 2060  31.678  16.208  19.034  0.0201 -0.1228 -0.1728
59045W        W 2061  18.676  13.696   2.974  0.0264 -0.0146  0.2917
59046W        W 2062   4.656  11.758  24.459 -0.3595 -0.3818 -0.0317
59047W        W 2063   5.726  13.722  12.952 -0.1500  0.1531 -0.1048
59048W        W 2064   0.167  31.501   1.859  0.0060 -0.1633 -0.1217
59049W        W 2065   0.581  21.498   0.162 -0.1024 -0.1696  0.1328
59050W        W 2066  29.202  19.408  23.436 -0.0641  0.1318  0.0603
59051W        W 2067  15.545  23.081  18.864 -0.0915  0.1213 -0.0742
59052W        W 2068  28.924  16.983  25.834  0.0225  0.0165 -0.2246
59053W        W 2069  22.913  28.565   0.729 -0.2874  0.0650 -0.1090
59054W        W 2070   0.515  10.124  18.629  0.0047 -0.2415 -0.0367
59055W        W 2071  15.085   7.822  14.707 -0.0402  0.3650  0.0196
59056W        W 2072  34.039  17.625  19.802 -0.2742  0.2898  0.0290
59057W        W 2073  29.733  13.742   2.670  0.3950  0.2839  0.0757
59058W        W 2074  28.635  15.275   9.805 -0.1123 -0.0205  0.2377
59059W        W 2075  29.374  27.622  27.531  0.0132 -0.0219  0.1733
59060W        W 2076  11.890  14.455  25.731 -0.1964 -0.1586  0.0469
59061W        W 2077  15.341  17.218  26.113  0.0027  0.1597 -0.0142
59062W        W 2078   6.226  25.225   7.022  0.4382 -0.1224 -0.0995
59063W        W 2079   7.969  23.459   7.258  0.0739  0.1484  0.2929
59064W        W 2080   8.617  19.376  24.266 -0.0667 -0.1482  0.1834
59065W        W 2081  34.002   2.933  17.802 -0.0073 -0.0946  0.0322
59066W        W 2082   4.126   5.127  25.656 -0.0194 -0.2416  0.2311
59067W        W 2083  29.966  23.792  10.839 -0.0583  0.1673 -0.2090
59068W        W 2084   0.228  12.908   7.437  0.2500 -0.2657 -0.2399
59069W        W 2085  25.908  20.467   0.808 -0.2125 -0.1990 -0.0227
59070W        W 2086   5.893   6.167   9.731 -0.0106  0.1484  0.0015
59071W        W 2087  30.443  13.395   8.590 -0.1321 -0.4070  0.1676
59072W        W 2088   6.577   2.221   2.631  0.0399 -0.1701  0.2771
59073W        W 2089  22.230   0.155  24.370 -0.1127  0.1672  0.4499
59074W        W 2090  26.488  33.621   3.975 -0.0974  0.3796  0.1480
59075W        W 2091  11.863   7.525  22.629  0.0649 -0.0898  0.0132
59076W        W 2092  26.542  11.729  20.471 -0.0438 -0.0148  0.0346
59077W        W 2093   8.837  20.048  21.812  0.0196  0.1911  0.0222
59078W        W 2094   1.551  13.195   6.881 -0.0493 -0.1268 -0.2024
59079W        W 2095   2.248   4.628   3.451  0.1706 -0.1572 -0.1777
59080W        W 2096  33.113   7.968  28.414  0.0398  0.1906  0.0200
59081W        W 2097  19.863  34.747  21.259  0.0067  0.2363 -0.2103
59082W        W 2098   4.739  15.327   3.889  0.0374  0.2147  0.1545
59083W        W 2099  11.447   0.941   5.152 -0.2302 -0.0250 -0.0838
59084W        W 2100  19.288   8.502  23.521  0.0895 -0.0883 -0.1010
59085W        W 2101   9.724   7.923  17.929 -0.1090 -0.1717  0.3002
59086W        W 2102  11.667  17.335  24.024  0.0959 -0.1580  0.2711
59087W        W 2103   1.887  20.117  17.162  0.2585  0.2832 -0.0441
59088W        W 2104  33.970  21.146  16.006 -0.4167 -0.1487 -0.1270
59089W        W 2105   0.931  11.796   2.883 -0.1556  0.1111  0.3768
59090W        W 2106  16.870   8.269   4.026  0.1759  0.2231  0.3205
59091W        W 2107  12.228  13.969  23.315 -0.0127  0.1467 -0.1058
59092W        W 2108   9.233   9.828   6.389 -0.2600 -0.0945  0.0960
59093W        W 2109   5.002   2.416   2.963  0.1535  0.3997 -0.0414
59094W        W 2110   8.633   5.445   2.750  0.1067 -0.4245  0.0454
59095W        W 2111   0.297  13.906  21.378 -0.2861  0.4232 -0.1604
59096W        W 2112  30.855   8.711   7.350 -0.0670  0.1406  0.0640
59097W        W 2113  24.402   3.975  27.659  0.0027 -0.3976 -0.0005
59098W        W 2114  12.897  15.602   3.560  0.2877  0.1406  0.1324
59099W        W 2115   8.558  13.806   7.932  0.1574 -0.1061 -0.0511
59100W        W 2116  18.144   1.851   3.378  0.2956  0.1870 -0.0051
59101W        W 2117  18.786  22.682  18.796 -0.0129 -0.1394 -0.0656
59102W        W 2118   9.304  18.440   3.359  0.2121 -0.0409  0.0978
59103W        W 2119  13.101   6.743  18.331  0.2158 -0.0002 -0.0439
59104W        W 2120  12.838  20.349  20.997 -0.5292  0.1278  0.1218
59105W        W 2121  34.012  10.338  14.612 -0.1329 -0.0877 -0.0536
59106W        W 2122   3.229  34.429   3.011  0.1326 -0.0291 -0.2887
59107W        W 2123   2.927   9.976   0.531 -0.2249 -0.0076 -0.1636
59108W        W 2124   4.006  32.685   7.064 -0.0401 -0.2000  0.2062
59109W        W 2125   3.983   8.881   7.701  0.1805 -0.2621 -0.0223
59110W        W 2126  15.161  11.931  28.203 -0.1427  0.1165  0.1240
59111W        W 2127  28.995  19.762   5.917  0.0952 -0.0818  0.2002
59112W        W 2128   1.213   3.294  26.879  0.3971  0.2603 -0.2034
59113W        W 2129  26.800  21.660   6.127 -0.0403 -0.0855  0.1511
59114W        W 2130  25.797   4.921  28.569  0.0062 -0.1199  0.2161
59115W        W 2131   3.519   9.415  14.444 -0.1072  0.1125 -0.3772
59116W        W 2132  30.582   9.485   7.869 -0.2758  0.1252  0.2111
59117W        W 2133  26.961  20.745   5.181 -0.2687  0.0926 -0.0657
59118W        W 2134   3.269  18.451  16.315  0.0657  0.0518  0.0241
59119W        W 2135  16.017  18.401   7.269 -0.0557  0.1144  0.2412
59120W        W 2136  21.835  28.549  23.081  0.2982  0.1254  0.0032
59121W        W 2137  29.403   7.753  17.181  0.0300 -0.1836 -0.0105
59122W        W 2138   7.340  28.506  24.813  0.3349  0.0472 -0.3065
59123W        W 2139  21.740  25.231  28.340 -0.3805  0.0580 -0.0885
59124W        W 2140   0.958  12.303   2.632 -0.1619  0.1862  0.0673
59125W        W 2141  11.211  19.657  24.448  0.0452  0.2255 -0.0828
59126W        W 2142  16.932  13.851  21.687  0.1435 -0.0664 -0.1575
59127W        W 2143  29.867   3.886   2.768 -0.1407 -0.3300 -0.3624
59128W        W 2144   3.704  19.931   3.532 -0.0478  0.0644  0.0188
59129W        W 2145  22.812   7.316  15.957 -0.0736 -0.0262 -0.1132
59130W        W 2146   7.793  14.635   3.467 -0.1111  0.1674 -0.0891
59131W        W 2147   7.658  29.111   8.956  0.0155  0.2426 -0.0225
59132W        W 2148  28.182  20.780   5.257 -0.1926 -0.0088 -0.1705
59133W        W 2149  17.229  32.607   0.704 -0.0598  0.3184  0.0603
59134W        W 2150  13.019   7.998  27.250 -0.0386  0.0352  0.0917
59135W        W 2151  10.673  15.259   5.705 -0.0969 -0.3432 -0.1335
59136W        W 2152   0.166  21.653  27.693 -0.1407  0.2104  0.0425
59137W        W 2153  23.046  33.738   7.632 -0.0695  0.1920 -0.5152
59138W        W 2154  33.887  21.785   1.939  0.0172  0.1104 -0.0900
59139W        W 2155  12.906   4.953   3.850 -0.3245 -0.1364  0.0806
59140W        W 2156   7.568   4.569  10.397 -0.1075 -0.2875  0.1554
59141W        W 2157  31.863  10.874   8.522 -0.0710  0.1731  0.2133
59142W        W 2158   9.057   7.600  27.825 -0.0770  0.0986 -0.0036
59143W        W 2159  13.381  29.140   9.151 -0.0372  0.0427  0.1084
59144W        W 2160  13.347   7.854  22.717 -0.1423  0.0762 -0.1321
59145W        W 2161  25.812  21.666  28.028  0.4629 -0.1220 -0.0983
59146W        W 2162   7.048  18.612   4.531  0.0265 -0.0377 -0.2164
59147W        W 2163   8.003   2.427   6.157 -0.3282  0.1699  0.1969
59148W        W 2164  28.525  18.158  21.519 -0.2272  0.0729 -0.4272
59149W        W 2165  31.533   6.127  23.276 -0.0680 -0.0509 -0.1486
59150W        W 2166   5.352   4.115  23.877 -0.2070  0.2483  0.1804
59151W        W 2167  22.378   5.310   6.006  0.1913  0.0207 -0.0058
59152W        W 2168  17.695   7.585  27.551  0.0277 -0.0453  0.3356
59153W        W 2169  25.511  31.349  28.941  0.0336  0.1139 -0.2022
59154W        W 2170  22.756   0.824  11.003 -0.4201  0.0254  0.1290
59155W        W 2171  22.585  15.017  24.545  0.0810 -0.0715 -0.1253
59156W        W 2172   6.255  15.791  25.007  0.2786 -0.1417 -0.0152
59157W        W 2173   4.684  16.886   7.795  0.2463 -0.1101 -0.0430
59158W        W 2174   2.022   5.704   3.364  0.1657 -0.1175  0.0527
59159W        W 2175   8.239  11.404   5.033  0.1159  0.1787 -0.1209
59160W        W 2176   5.627  22.107   7.653 -0.1159 -0.0614 -0.0600
59161W        W 2177  34.197  22.445   8.006 -0.0959 -0.6367  0.2232
59162W        W 2178  19.997   7.687  13.978 -0.1813 -0.0116  0.2016
59163W        W 2179  17.125  17.505  20.178  0.2219 -0.0774  0.0575
59164W        W 2180   6.240   0.705   0.029 -0.1392  0.0844 -0.2885
59165W        W 2181  13.957  33.295   3.381 -0.1804  0.0327  0.4632
59166W        W 2182  31.236   2.675  28.811  0.1748 -0.1186 -0.3538
59167W        W 2183   2.427   8.377  13.981 -0.1048  0.0445  0.2078
59168W        W 2184  10.813   8.433   1.123  0.1414 -0.0035  0.1866
59169W        W 2185   3.357  14.557  14.409  0.0099  0.0370 -0.1044
59170W        W 2186  30.167   0.386   7.011 -0.2782  0.1135 -0.0782
59171W        W 2187   2.876  31.442   2.266 -0.2180  0.1101  0.0290
59172W        W 2188  34.715  25.572   1.427  0.0531 -0.0380  0.0627
59173W        W 2189   8.330  18.332   5.159 -0.0707  0.0905  0.0021
59174W        W 2190   8.813  13.279  24.711 -0.0844  0.2224  0.0523
59175W        W 2191  33.878  17.770  18.907 -0.0908  0.0646  0.1112
59176W        W 2192  33.953   2.752   5.826 -0.1274  0.0322  0.0719
59177W        W 2193  30.461  18.869  24.923 -0.0728 -0.2087  0.0393
59178W        W 2194  18.442   4.638   8.168  0.0452 -0.2323  0.1498
59179W        W 2195   0.421   6.078   7.207 -0.1637  0.1055 -0.1800
59180W        W 2196  12.005  17.054  16.396 -0.1357  0.0149 -0.2096
59181W        W 2197  21.036   6.043  25.050  0.3900  0.0371  0.2227
59182W        W 2198  31.984  11.591   6.999  0.1412  0.0116  0.1544
59183W        W 2199  10.447   4.188  28.460 -0.0418 -0.1553 -0.0578
59184W        W 2200  17.408  12.676  18.213 -0.0137 -0.3249  0.0061
59185W        W 2201  34.150  25.908   0.680 -0.0626  0.0079  0.1595
59186W        W 2202  27.970  34.455   3.830 -0.0741 -0.1865  0.1843
59187W        W 2203  33.266  22.414  26.122 -0.0412 -0.0813 -0.4036
59188W        W 2204  17.980  14.866  23.838 -0.0458  0.0240 -0.1741
59189W        W 2205  26.697   3.170   6.530 -0.0989 -0.0809  0.0655
59190W        W 2206  26.452  10.705   6.400  0.2270  0.2668 -0.0683
59191W        W 2207  27.463  12.779   1.557 -0.1270  0.1919 -0.1015
59192W        W 2208   6.457  32.055  23.240 -0.1551  0.3985 -0.0310
59193W        W 2209  25.556   9.482   6.978 -0.1125  0.1616 -0.4029
59194W        W 2210  20.326  23.542   7.198  0.1085 -0.0470  0.1001
59195W        W 2211  33.850  22.810   4.647  0.3354  0.1493 -0.1033
59196W        W 2212   4.281   7.852   8.271  0.4567 -0.1062  0.1289
59197W        W 2213   1.356   7.695   3.314  0.1073 -0.1586 -0.1464
59198W        W 2214   0.420  24.878   1.093  0.1253 -0.1333 -0.1283
59199W        W 2215   9.843  19.282   6.117 -0.2706 -0.0928 -0.2415
59200W        W 2216   7.611  24.229  27.621 -0.0773 -0.0477  0.0074
59201W        W 2217   5.005   2.394  23.988  0.2226 -0.4235 -0.2189
59202W        W 2218   7.776  31.822  22.479  0.4152  0.2937  0.2582
59203W        W 2219  32.620  16.872   2.220 -0.0296 -0.0275 -0.1851
59204W        W 2220  15.472   5.190   9.112  0.1423  0.0319  0.2213
59205W        W 2221  33.321  12.964   3.234  0.0113  0.2866  0.0315
59206W        W 2222   0.298  31.647  16.385  0.1764 -0.0386  0.0678
59207W        W 2223   9.672  28.975  28.527 -0.0534 -0.0409 -0.1847
59208W        W 2224   9.617   3.477  15.218  0.1872  0.1097 -0.0349
59209W        W 2225   5.685  14.469   1.074 -0.4199 -0.3097 -0.1754
59210W        W 2226   5.181  22.964  20.298  0.2463  0.2004  0.2479
59211W        W 2227   4.452  27.676  20.494  0.0416  0.2926  0.0819
59212W        W 2228  26.314   1.064   0.028  0.2249 -0.3602 -0.1721
59213W        W 2229  13.337  23.416   1.167 -0.0507  0.2687 -0.1594
59214W        W 2230   0.329  31.655   9.903  0.1158 -0.3017 -0.1759
59215W        W 2231   4.291   2.080   7.441 -0.0924  0.1938  0.0743
59216W        W 2232  27.537   8.465   4.647 -0.3171  0.0022 -0.1705
59217W        W 2233  22.241   3.839   4.609  0.0973 -0.3051 -0.0453
59218W        W 2234  13.540  13.255   5.984 -0.0623  0.2306 -0.0876
59219W        W 2235   5.581   8.179   4.639  0.1955 -0.0147 -0.1507
59220W        W 2236  23.270  16.227   7.926  0.0181  0.1388 -0.2502
59221W        W 2237   0.505  15.238  25.649  0.0918  0.1733 -0.1956
59222W        W 2238   8.080  14.785  29.027  0.2031 -0.1575 -0.4283
59223W        W 2239   6.980  34.387   8.904 -0.2298  0.0148  0.0317
59224W        W 2240  27.796  12.638   0.611 -0.2411  0.2857  0.0049
59225W        W 2241   3.733   9.273   8.110  0.0128  0.0091  0.0654
59226W        W 2242  33.766  22.391   9.977 -0.1215 -0.2752 -0.0953
59227W        W 2243  22.215   9.420  14.440  0.1007  0.4158  0.1725
59228W        W 2244  17.611   8.983  27.596  0.1460 -0.0016 -0.0101
59229W        W 2245  32.011  33.867  10.191  0.0726  0.1060  0.2754
59230W        W 2246   4.503   9.483  23.987  0.0302  0.0243 -0.2368
59231W        W 2247  33.513   8.308   6.934  0.0286  0.0000 -0.0041
59232W        W 2248  33.581   4.796   3.992 -0.1326 -0.1237 -0.2442
59233W        W 2249   8.818  15.633  15.689  0.1238 -0.0728  0.2532
59234W        W 2250  19.738  13.480   0.516 -0.2275  0.0182  0.1562
59235W        W 2251   2.282  18.870   7.019 -0.1466 -0.0889  0.0467
59236W        W 2252  15.192  15.237  25.547  0.0002 -0.0014  0.3351
59237W        W 2253  20.724  11.185  24.117 -0.0731 -0.0232  0.1318
59238W        W 2254  29.765  29.467   6.645 -0.1086 -0.0324 -0.0875
59239W        W 2255   0.586  15.136   5.129 -0.1233 -0.0952 -0.1721
59240W        W 2256  20.048   6.748   8.002 -0.0092  0.1542 -0.0979
59241W        W 2257  33.424  13.479   3.407 -0.4318 -0.0243 -0.0206
59242W        W 2258  15.092   1.693  23.024 -0.1305  0.4519 -0.0688
59243W        W 2259   6.220  33.567   4.147 -0.1410  0.0972 -0.3540
59244W        W 2260   0.085  13.048  27.534  0.1739 -0.3702  0.0389
59245W        W 2261  33.762  31.492   7.716 -0.2091 -0.0502  0.0172
59246W        W 2262  28.579  15.758  16.567 -0.2335  0.0281  0.0078
59247W        W 2263  13.712  24.924   6.403  0.2034 -0.3515  0.1887
59248W        W 2264   6.421   8.016   2.476  0.2959  0.1059  0.3511
59249W        W 2265   5.427  13.330  27.884  0.3080  0.0429  0.0087
59250W        W 2266  28.536   4.502   6.987 -0.1632 -0.3628 -0.2556
59251W        W 2267   1.084   8.152   3.152  0.2351 -0.3894  0.0624
59252W        W 2268  15.688   9.990  29.232 -0.0511  0.3258 -0.1042
59253W        W 2269  24.484  13.910   9.244  0.1847 -0.2162 -0.0992
59254W        W 2270  32.060  13.519  10.007 -0.2791  0.0557 -0.2413
59255W        W 2271  16.018   6.990   8.311  0.3781  0.0437  0.2109
59256W        W 2272  31.621  29.110  21.026  0.0996 -0.2557 -0.0499
59257W        W 2273   2.908  28.677   7.945 -0.1043  0.0434 -0.0390
59258W        W 2274  32.706  20.389   8.633  0.4335 -0.1420  0.0751
59259W        W 2275  26.284  21.739  27.865 -0.0731  0.0018  0.1157
59260W        W 2276  25.579   7.282  22.708 -0.0224 -0.1343  0.1086
59261W        W 2277   9.090   4.799  20.669 -0.1381  0.0709 -0.3157
59262W        W 2278   2.506   4.291   3.076  0.0481 -0.0671 -0.1241
59263W        W 2279  30.768  10.432   1.743 -0.1017 -0.1220  0.0145
59264W        W 2280   1.448   8.747   6.993  0.0373 -0.0125  0.1400
59265W        W 2281  12.094   8.836  27.640 -0.2156  0.2081 -0.0853
59266W        W 2282   9.120  11.931   8.150 -0.0198 -0.0158  0.3272
59267W        W 2283   1.355  25.717  24.579 -0.0122 -0.1635 -0.1364
59268W        W 2284  33.106  18.984  21.093  0.0080  0.4858  0.1359
59269W        W 2285   3.403  17.722   8.711 -0.2231  0.2482  0.1779
59270W        W 2286  18.733   1.529  19.872 -0.0097  0.2839 -0.1344
59271W        W 2287   7.070  11.885  26.965 -0.0386 -0.1140 -0.1253
59272W        W 2288   6.189  11.233   3.797 -0.2599 -0.4691  0.0050
59273W        W 2289  19.002   9.587   1.739  0.2942  0.2592  0.4598
59274W        W 2290  16.312  14.391   2.671  0.2056  0.3427 -0.1805
59275W        W 2291  10.822  14.876   3.608 -0.1877  0.0103  0.0552
59276W        W 2292  16.720  25.928   2.739  0.1644 -0.0207  0.0543
59277W        W 2293  16.844  29.951  21.692  0.0525 -0.1118 -0.3070
59278W        W 2294  31.113   9.156   5.626 -0.1531  0.0690 -0.4384
59279W        W 2295   1.473  19.432  27.730 -0.0772 -0.0196 -0.2613
59280W        W 2296   8.642  20.741   3.080  0.1447  0.0104  0.2533
59281W        W 2297   3.070   0.392   3.151  0.0725 -0.1230 -0.0984
59282W        W 2298   1.698  22.188   1.349  0.3465  0.3363  0.3656
59283W        W 2299   7.729   5.320   2.809  0.1743  0.3046 -0.3740
59284W        W 2300   1.920  27.338   5.870 -0.0481  0.1759  0.0353
59285W        W 2301   2.491  17.957   3.714  0.1304 -0.0426 -0.2964
59286W        W 2302  33.468  33.753  27.672  0.0312 -0.0122 -0.1059
59287W        W 2303   1.410   7.548  27.132  0.1744 -0.3464 -0.3068
59288W        W 2304  24.411  21.161   7.792 -0.1090 -0.1878  0.0945
59289W        W 2305  34.354  28.252   6.662  0.1175  0.2205 -0.0061
59290W        W 2306  21.968  13.399  18.770 -0.0868  0.0332 -0.1774
59291W        W 2307   1.602  27.691   8.505  0.1067  0.1734  0.1283
59292W        W 2308  23.283   9.433  28.081 -0.3322 -0.1005 -0.0628
59293W        W 2309  23.638  10.573   4.150  0.0265 -0.0269  0.1713
59294W        W 2310   3.292  19.871  29.005 -0.3242  0.1410  0.0496
59295W        W 2311   5.153  32.759  28.148 -0.5670 -0.0376  0.2978
59296W        W 2312  25.404  26.539  10.725  0.0385  0.1257 -0.1516
59297W        W 2313   1.783  20.002   8.454 -0.1735 -0.2033 -0.2298
59298W        W 2314   2.723  18.963  27.258 -0.2077 -0.2499 -0.0334
59299W        W 2315  33.540  32.621   5.801 -0.0289 -0.2967  0.0750
59300W        W 2316  13.689  25.056   8.996 -0.0029 -0.1671 -0.0014
59301W        W 2317   4.301  26.005  25.708 -0.3849  0.0462  0.0454
59302W        W 2318  33.679  21.100   7.453  0.0191 -0.1806  0.1514
59303W        W 2319   0.565   9.717  24.111 -0.2273 -0.3204 -0.2835
59304W        W 2320  33.116  16.834   2.554 -0.1784  0.0089  0.1157
59305W        W 2321  29.713   4.121   7.376  0.3182 -0.3361 -0.0449
59306W        W 2322   8.486  14.978   7.769  0.2059 -0.0661 -0.1104
59307W        W 2323  12.520  13.975   8.270  0.2122  0.0161  0.1121
59308W        W 2324  33.408   4.680   5.676 -0.3594  0.0584 -0.0594
59309W        W 2325   9.330   7.526  10.003 -0.0949  0.0803  0.0644
59310W        W 2326   9.578  17.439   3.069  0.2391  0.0678  0.1672
59311W        W 2327   0.467   1.665   3.795 -0.1930  0.0447 -0.2333
59312W        W 2328   0.518   9.180   7.351 -0.3758 -0.3488 -0.1751
59313W        W 2329  33.046   7.466   1.891  0.1616 -0.1740  0.0403
59314W        W 2330  12.367  15.804  29.232  0.2783 -0.1020  0.0711
59315W        W 2331   9.141  16.208  23.448 -0.0542 -0.2351  0.3427
59316W        W 2332  12.518  20.834   4.873  0.2078 -0.1013 -0.2499
59317W        W 2333   2.677   0.128   3.524 -0.3044  0.2344  0.1181
59318W        W 2334   3.853  13.423   7.147  0.0289 -0.0021 -0.1728
59319W        W 2335  30.608   8.831   0.094 -0.0065 -0.1593  0.0605
59320W        W 2336  21.526  17.944  28.006  0.0161  0.0192 -0.3221
59321W        W 2337  22.773  12.987  18.336 -0.1936 -0.1688  0.1351
59322W        W 2338  23.690  10.733   5.423 -0.0057  0.1208 -0.1592
59323W        W 2339  22.793  17.127   8.581 -0.1960  0.0498  0.0419
59324W        W 2340  27.153   7.878  27.806 -0.1367  0.1874  0.1913
59325W        W 2341   7.458  31.854   0.206 -0.0669  0.2232 -0.0520
59326W        W 2342  24.944  27.738  11.198 -0.0228  0.2539 -0.1078
59327W        W 2343  32.082   7.628   0.052 -0.1758 -0.2799  0.1446
59328W        W 2344   8.325  13.699   5.154 -0.0670 -0.1619 -0.0795
59329W        W 2345  34.751  21.448   2.189  0.3700  0.0285 -0.1450
59330W        W 2346  18.004   9.537   0.739 -0.1307  0.1266  0.5884
59331W        W 2347  28.972  34.119   8.706 -0.1902 -0.0865  0.1955
59332W        W 2348   7.110  13.007  23.792 -0.0259  0.2485 -0.0725
59333W        W 2349  32.506  23.950   5.987  0.1762  0.0685  0.1140
59334W        W 2350  31.036  23.471   6.956  0.1677 -0.0704  0.1666
59335W        W 2351  33.305   4.801  29.200 -0.1400  0.0907 -0.1928
59336W        W 2352   1.486  17.665  16.055  0.0485 -0.0552  0.2709
59337W        W 2353   7.949   8.193  25.333 -0.1933 -0.0971  0.0190
59338W        W 2354  16.540  18.931   7.622  0.0147  0.0667 -0.2517
59339W        W 2355  13.744  12.388   5.842  0.1565 -0.1830  0.0396
59340W        W 2356  27.871   5.523   9.691 -0.0632 -0.1746 -0.0462
59341W        W 2357   2.302   2.602   7.796  0.1359 -0.0440  0.0728
59342W        W 2358  15.462  20.595   4.806  0.3345  0.1664  0.3032
59343W        W 2359  30.279  17.303   0.919  0.0103  0.0280  0.2523
59344W        W 2360   9.281  20.926   5.065  0.0020 -0.0342 -0.0953
59345W        W 2361   7.261   6.297  10.501  0.0649 -0.3412  0.2411
59346W        W 2362  18.173   3.507   3.500 -0.1676 -0.0434 -0.1465
59347W        W 2363  13.678  16.611   7.245  0.0035  0.1899  0.1191
59348W        W 2364  21.285  13.909  23.158  0.0473  0.2644  0.0876
59349W        W 2365   2.329  31.288   0.437 -0.1780  0.0135  0.2445
59350W        W 2366  32.968   0.230   5.322 -0.3190 -0.0217  0.1254
59351W        W 2367  19.244   6.320   4.683 -0.0323 -0.0154 -0.0996
59352W        W 2368   5.747  11.508   7.802  0.1550  0.2934  0.1675
59353W        W 2369   0.446  10.972   8.371 -0.0592 -0.1642  0.0566
59354W        W 2370  21.065  11.312  22.289 -0.1798  0.0298 -0.1948
59355W        W 2371  10.972  16.599   7.584 -0.0416 -0.2365 -0.2700
59356W        W 2372  17.871  23.778  16.567  0.0353  0.3135  0.1391
59357W        W 2373   4.248  22.790   2.421 -0.0394 -0.0995  0.0860
59358W        W 2374   7.922   2.376   4.614 -0.2949  0.2382 -0.2198
59359W        W 2375   0.525  23.777  25.728  0.5038 -0.0933  0.1737
59360W        W 2376  30.767   3.761  27.516 -0.3200  0.1444 -0.0245
59361W        W 2377  17.814   9.601   7.981 -0.0500 -0.2765 -0.2513
59362W        W 2378  28.194   0.118   4.117 -0.2764  0.1791  0.0443
59363W        W 2379  31.200  13.847  27.842 -0.0216  0.2115 -0.0935
59364W        W 2380  30.921  16.074   4.241  0.0138 -0.0363 -0.1099
59365W        W 2381  26.166  31.918   8.719 -0.3720 -0.0437  0.0973
59366W        W 2382   8.585   2.733  18.162  0.3307 -0.0653  0.1941
59367W        W 2383  34.068  18.259   8.167 -0.1726  0.0464  0.0218
59368W        W 2384  10.450  15.220   0.041  0.1275  0.3747 -0.0238
59369W        W 2385   8.368  19.093   5.198  0.1555 -0.0539  0.4590
59370W        W 2386   6.166  12.911   5.394  0.3116  0.2042  0.2653
59371W        W 2387  33.070   6.627   7.920 -0.2231  0.0390  0.3090
59372W        W 2388  33.375  12.967  16.389  0.0535  0.5129  0.2254
59373W        W 2389  14.717  14.297  13.583  0.1516  0.1873  0.0540
59374W        W 2390   8.252   6.127   3.922  0.0939 -0.0134 -0.3475
59375W        W 2391   6.363  20.295  21.740 -0.1860 -0.1521  0.0794
59376W        W 2392  32.348  17.820   3.231  0.0664 -0.1487  0.2261
59377W        W 2393  10.208  20.591  28.303 -0.0360  0.0435  0.0292
59378W        W 2394  29.327  28.057  24.541 -0.0453  0.0668 -0.3918
59379W        W 2395  27.608   0.008   9.491 -0.0286  0.0069 -0.1535
59380W        W 2396  13.759   2.492   8.535 -0.2938  0.1402 -0.3772
59381W        W 2397  33.269  10.085  26.465 -0.2508  0.1141  0.3556
59382W        W 2398  29.565  10.768  10.127  0.2280  0.1782  0.0231
59383W        W 2399   8.446  20.327   6.009  0.0185  0.1316 -0.0143
59384W        W 2400   2.492   5.599  14.275 -0.1144 -0.0387  0.1483
59385W        W 2401  24.793  30.067  18.691 -0.0826 -0.1313  0.0608
59386W        W 2402   4.544  30.535   6.524  0.2649 -0.1139  0.2190
59387W        W 2403  28.971  28.939  10.327 -0.0423  0.3363 -0.2002
59388W        W 2404   6.695  15.038   6.335  0.2437  0.0545  0.3103
59389W        W 2405  34.505  27.869   6.948  0.2360 -0.2173  0.0523
59390W        W 2406   0.681  19.609   0.217 -0.0698  0.2215  0.0408
59391W        W 2407  10.102  13.492   3.627  0.4082  0.0697  0.1673
59392W        W 2408  31.239  13.456   7.334  0.1421 -0.0150 -0.0977
59393W        W 2409  10.582   5.460  17.661  0.1770  0.0452 -0.0990
59394W        W 2410  10.862  32.616   8.240  0.1210  0.1123  0.0141
59395W        W 2411  19.136  15.107   0.784  0.2414  0.0783  0.0728
59396W        W 2412   3.682  13.474   4.964 -0.1288  0.2117 -0.4164
59397W        W 2413   2.658   8.271   2.998  0.4220 -0.3197 -0.3157
59398W        W 2414   3.665  23.949   4.672 -0.1320 -0.1976  0.0734
59399W        W 2415   4.514  24.741  14.281  0.0307  0.0460  0.1378
59400W        W 2416  12.759  10.697  22.868 -0.0122  0.0822  0.0237
59401W        W 2417   7.311  10.307   8.900  0.0583 -0.0594 -0.2653
59402W        W 2418  32.821   9.971  26.144 -0.2357 -0.3152 -0.1063
59403W        W 2419   2.698  34.287   0.771  0.2700  0.1270 -0.1831
59404W        W 2420   9.797  10.093   5.252  0.1225 -0.1502 -0.1906
59405W        W 2421   9.842  16.366   0.772 -0.0725  0.1470  0.0792
59406W        W 2422   0.704  22.129   4.232  0.1507  0.1713 -0.1419
59407W        W 2423   3.312  21.652   7.158  0.1874 -0.3046 -0.1455
59408W        W 2424  24.434   7.920   3.331  0.2197  0.4012 -0.2918
59409W        W 2425   7.120  11.816  26.291 -0.1839  0.2632 -0.2033
59410W        W 2426  25.025   8.821   2.111 -0.2833  0.1613 -0.2148
59411W        W 2427   1.058  13.470  19.890  0.0537 -0.1174  0.0454
59412W        W 2428   2.518  29.663   3.723 -0.0726 -0.0124 -0.0150
59413W        W 2429  13.668  20.467  27.542 -0.2814  0.2128  0.2455
59414W        W 2430  18.694  24.829   4.859 -0.2313  0.1228 -0.0941
59415W        W 2431   0.613  22.449  20.516  0.0621  0.1681 -0.3319
59416W        W 2432   2.444   6.558  27.398 -0.2284 -0.1326 -0.2688
59417W        W 2433   0.218   9.555  28.385 -0.0126 -0.0084 -0.0483
59418W        W 2434  34.372  12.555  24.678 -0.4549  0.3219  0.1879
59419W        W 2435   5.070  29.088  21.873  0.1002 -0.2143  0.2615
59420W        W 2436   0.625  19.511   2.020  0.0702 -0.0148  0.1532
59421W        W 2437   7.485  18.238   8.349  0.1362  0.0942  0.2332
59422W        W 2438  21.377  12.159  26.316  0.1071 -0.0810 -0.1133
59423W        W 2439  33.649   8.495   5.689  0.0603 -0.4414 -0.0722
59424W        W 2440  30.346   3.583   9.695 -0.2217 -0.2796  0.2370
59425W        W 2441   4.718  26.598   5.518 -0.0978 -0.1883  0.1644
59426W        W 2442   7.751  32.073   6.464  0.0622  0.2763 -0.0402
59427W        W 2443  13.543   2.557   7.572 -0.3472  0.0759 -0.0571
59428W        W 2444   4.390  30.876   5.942  0.1285 -0.0380 -0.2938
59429W        W 2445  20.502  13.427   4.909 -0.3696  0.0425 -0.1529
59430W        W 2446  32.766  22.079   3.092  0.2085 -0.2406  0.0877
59431W        W 2447  10.228   7.669   1.646  0.0664  0.2815  0.0069
59432W        W 2448  13.983  16.521  29.141  0.0288  0.1120  0.0589
59433W        W 2449  34.165  24.200   6.957 -0.3741 -0.3322  0.0475
59434W        W 2450   2.596  25.879   4.681  0.2524  0.1754  0.3594
59435W        W 2451  32.013  10.863  29.121 -0.0299  0.0678 -0.2510
59436W        W 2452  29.402   5.013   1.690 -0.0283 -0.1085 -0.2024
59437W        W 2453  15.681  17.626  26.163  0.1621  0.3563  0.1132
59438W        W 2454  26.127  24.239   6.257 -0.0463  0.0225 -0.0636
59439W        W 2455  34.072  28.313   9.681 -0.5230  0.2181 -0.2225
59440W        W 2456  28.804  20.369   4.169 -0.1446 -0.2268  0.0292
59441W        W 2457   5.775   9.199   7.980 -0.1323 -0.0039  0.0778
59442W        W 2458  17.216  19.798   5.169 -0.2929 -0.2728  0.5836
59443W        W 2459  12.383  12.471   8.611  0.2198 -0.2205 -0.0028
59444W        W 2460   5.381  17.276  28.186  0.1891  0.0857  0.0853
59445W        W 2461   4.452   4.730   5.277  0.0850  0.0735  0.1397
59446W        W 2462   2.762   7.045   6.934  0.2870 -0.0078 -0.6853
59447W        W 2463  33.518  18.477  28.907 -0.0140  0.3595  0.1755
59448W        W 2464  17.265   4.202   2.557 -0.0900  0.0426 -0.1940
59449W        W 2465  25.241   9.626  26.694  0.3727 -0.3057  0.1409
59450W        W 2466   7.796   9.113   8.005  0.0948  0.1780  0.0597
59451W        W 2467  29.540  12.359  10.563 -0.2632  0.3684 -0.1434
59452W        W 2468  32.101  12.271  20.221  0.3605  0.0774  0.1401
59453W        W 2469  26.917  21.001   8.148 -0.0973 -0.2073  0.0041
59454W        W 2470  29.044   8.292  10.720 -0.1064  0.0484  0.3344
59455W        W 2471   3.750   6.999   9.269 -0.1669  0.1758 -0.2478
59456W        W 2472  33.801   4.067  29.191  0.0383  0.1275  0.2298
59457W        W 2473  18.263  13.940  27.514  0.2504 -0.0716  0.0310
59458W        W 2474  20.424  18.723  28.617 -0.0969 -0.2862  0.2494
59459W        W 2475  30.873  28.972   3.885 -0.1018 -0.1611 -0.2421
59460W        W 2476  15.286  13.634   8.572  0.0962  0.0721  0.2148
59461W        W 2477  33.155  18.475  26.947  0.0075  0.0521 -0.1020
59462W        W 2478  11.061  24.101   8.774  0.0088  0.1203  0.0500
59463W        W 2479  20.043   7.579  15.181  0.1298  0.0418  0.0538
59464W        W 2480  34.034  17.816  26.941 -0.2331  0.0466  0.1214
59465W        W 2481   0.376  27.703  23.762 -0.1727  0.3385  0.2417
59466W        W 2482   8.917  17.166  21.103  0.0007 -0.3375 -0.2901
59467W        W 2483  34.350  22.535  28.607 -0.0237  0.1593 -0.0501
59468W        W 2484  10.861  17.692  22.466 -0.0537  0.0059  0.0568
59469W        W 2485   4.388   9.665   1.285 -0.1119  0.3237 -0.2623
59470W        W 2486  13.517  20.045  29.218 -0.0768  0.0253  0.1352
59471W        W 2487   7.141  17.997   5.673  0.0517  0.0468 -0.1320
59472W        W 2488  26.220  14.342  19.113  0.1418  0.1851 -0.1319
59473W        W 2489  30.439  21.757   9.164  0.1652  0.0251 -0.0927
59474W        W 2490   0.359  33.774   8.838 -0.1171  0.0050  0.1727
59475W        W 2491  26.273   1.616  20.400  0.0709 -0.1682  0.1067
59476W        W 2492  31.785  16.616  29.149 -0.1305 -0.1591  0.0065
59477W        W 2493   2.877  27.771   2.455 -0.0741  0.1950 -0.2302
59478W        W 2494  33.770  18.582  24.573 -0.1060 -0.1382  0.1454
59479W        W 2495  12.197  23.158  20.289 -0.1645  0.2502 -0.0606
59480W        W 2496   3.958  13.811   8.745  0.0029  0.1511 -0.0812
59481W        W 2497  10.839  12.819  28.927 -0.0686  0.1209 -0.0588
59482W        W 2498  21.105   1.521   6.685  0.0720 -0.2292  0.1384
59483W        W 2499  34.253  12.105   8.049  0.0580 -0.3557 -0.0687
59484W        W 2500  12.733  14.510  14.968 -0.0537 -0.0609  0.2066
59485W        W 2501   1.667  16.223   1.310  0.0421  0.1046 -0.2183
59486W        W 2502  31.693   5.617   7.110  0.0045 -0.1769 -0.0713
59487W        W 2503  20.124  15.608   7.414 -0.1146 -0.2592  0.1838
59488W        W 2504   9.832  24.611  23.592  0.0215  0.1939  0.0536
59489W        W 2505   5.840  12.981   5.035  0.1214  0.0907  0.1138
59490W        W 2506  14.368  23.996   1.768 -0.0510 -0.0792 -0.0810
59491W        W 2507   3.009  18.468  21.703 -0.1495  0.0335  0.0327
59492W        W 2508   7.990   3.711   8.632  0.3271  0.2458 -0.0349
59493W        W 2509   1.461  12.310  10.714  0.0106  0.1264  0.1088
59494W        W 2510  33.469   3.616   3.087 -0.1201  0.0244  0.1771
59495W        W 2511  22.073  10.960  25.520  0.4101  0.1445  0.1464
59496W        W 2512   0.638   6.717   0.321  0.3312 -0.1119  0.0167
59497W        W 2513  23.084  13.568  20.679 -0.2418  0.3200 -0.1191
59498W        W 2514  32.649   9.668   3.214 -0.0790  0.0666  0.0200
59499W        W 2515  32.995   2.465   2.742  0.0794 -0.1015  0.0965
59500W        W 2516  33.877  30.980   7.362 -0.0377 -0.4845  0.2991
59501W        W 2517   1.331   8.158  28.929  0.1365 -0.0996  0.1532
59502W        W 2518  21.257  10.673   9.581  0.3299 -0.1040  0.2058
59503W        W 2519   3.364   8.169  29.263  0.1870 -0.3913  0.2357
59504W        W 2520  16.575  31.255   8.970  0.1288  0.0224 -0.1407
59505W        W 2521  15.454  19.397   2.471  0.3414  0.0597  0.1294
59506W        W 2522  21.683  29.067   8.380 -0.0536 -0.0320  0.2645
59507W        W 2523   3.939  13.696   2.774  0.3364  0.1209 -0.0756
59508W        W 2524  14.653  18.471  24.023  0.2653 -0.1241  0.0617
59509W        W 2525   7.079   9.734  26.646 -0.0496 -0.0323  0.1522
59510W        W 2526   5.844  16.678   1.525 -0.1839  0.1131  0.1391
59511W        W 2527  25.252  15.581  29.280 -0.0839 -0.4033  0.0030
59512W        W 2528  33.543   0.053   0.739  0.1999  0.0197 -0.0461
59513W        W 2529  30.629  28.351  21.654  0.0784 -0.1641 -0.0008
59514W        W 2530   2.061  24.559   8.789 -0.1598 -0.0258 -0.2929
59515W        W 2531  28.899  20.694  25.256 -0.0476 -0.0878  0.0380
59516W        W 2532   5.630   0.240   6.654 -0.1557 -0.1915  0.0420
59517W        W 2533  33.701  16.330  27.126 -0.0500  0.0570  0.0636
59518W        W 2534  31.097  15.567   5.235  0.0255  0.2301  0.1811
59519W        W 2535  34.737  34.378  10.531 -0.1385  0.0500 -0.2155
59520W        W 2536  31.772  10.256  24.348  0.3374  0.0970 -0.1169
59521W        W 2537  10.911  16.573   5.086 -0.1058  0.2070  0.0241
59522W        W 2538  30.769  19.348   9.474  0.1273 -0.1456  0.0395
59523W        W 2539   2.407  12.057  10.548 -0.2050 -0.0932  0.0823
59524W        W 2540  19.467  11.094   0.773 -0.1129 -0.1221  0.2458
59525W        W 2541  24.628  13.164  28.992 -0.0100 -0.1502  0.0474
59526W        W 2542  23.588  10.876   1.465 -0.1573  0.3431 -0.2366
59527W        W 2543   0.790  16.729   5.359  0.0993  0.0193  0.1643
59528W        W 2544  11.089  10.548   0.117 -0.1621 -0.2407  0.0134
59529W        W 2545  34.336  10.984  19.108  0.1780 -0.0610 -0.2351
59530W        W 2546   5.867  14.580   4.093  0.2227  0.4832 -0.0528
59531W        W 2547  26.694  20.916   0.962 -0.0520  0.2642 -0.0287
59532W        W 2548  14.116  17.636  25.274  0.0954  0.0407 -0.1152
59533W        W 2549  32.382  21.907  26.292  0.1739 -0.1028 -0.1234
59534W        W 2550   0.713  18.955   9.592  0.4110  0.3217  0.1735
59535W        W 2551   8.505   6.260  27.594  0.3737 -0.2412 -0.4709
59536W        W 2552   7.449   2.254   0.745 -0.2109  0.1098 -0.0872
59537W        W 2553   2.513   7.333  26.441  0.2009  0.0707  0.0148
59538W        W 2554  31.614   0.823  27.621  0.1581 -0.0485 -0.0258
59539W        W 2555  16.306  23.325   2.037  0.1267 -0.1226  0.3858
59540W        W 2556  27.141  33.218   7.899  0.1882 -0.2265 -0.4002
59541W        W 2557   1.067  21.377   0.312  0.0401  0.1995 -0.0916
59542W        W 2558  19.382  18.505   4.184 -0.2463  0.1411  0.1036
59543W        W 2559   3.252  26.586   2.388 -0.4880  0.0938 -0.1263
59544W        W 2560  25.528   8.368   9.748 -0.1965 -0.1030 -0.1307
59545W        W 2561   6.095  22.530   6.275 -0.2368 -0.2193 -0.0682
59546W        W 2562  29.692  10.704   5.547 -0.1787 -0.1568  0.0040
59547W        W 2563   5.027   8.373  20.225 -0.0831 -0.1291  0.1905
59548W        W 2564  24.726  16.485   0.975 -0.0971  0.1102  0.0541
59549W        W 2565   0.182   8.870   4.660  0.0830  0.1116 -0.0186
59550W        W 2566  22.131  21.001   0.579 -0.2577  0.0405  0.5401
59551W        W 2567  27.571  21.305   2.796  0.0169 -0.1359 -0.0310
59552W        W 2568  11.028  22.518   5.727 -0.2968  0.0241  0.0902
59553W        W 2569  30.543  23.241  21.045  0.0410 -0.1150  0.0590
59554W        W 2570  29.012  11.231   1.663 -0.1743  0.0136 -0.1326
59555W        W 2571  34.303  18.886  14.685 -0.3221 -0.0463  0.0408
59556W        W 2572  18.154  16.123   3.720  0.2753  0.0402 -0.1217
59557W        W 2573  26.516   6.636  21.524  0.1080  0.1662 -0.1395
59558W        W 2574  29.414  22.468   1.194 -0.2446  0.1785 -0.2151
59559W        W 2575  11.288   6.144  23.357  0.3461 -0.0033  0.2113
59560W        W 2576  34.294  17.075   5.582  0.0095 -0.2809  0.3172
59561W        W 2577  32.341   0.650   6.284  0.1405  0.2154 -0.3193
59562W        W 2578   1.362  28.577   2.675  0.1983  0.0699 -0.0243
59563W        W 2579  33.721   9.583  24.993  0.0629  0.0284 -0.1150
59564W        W 2580   2.766   2.814   2.899  0.1130  0.2842 -0.0169
59565W        W 2581   9.497  12.088   8.498 -0.1955 -0.2125 -0.0913
59566W        W 2582  10.464  17.507  27.235 -0.1464  0.3963 -0.0899
59567W        W 2583  21.205  10.413   5.487  0.0234 -0.3017  0.2519
59568W        W 2584  25.798  30.005  15.776  0.2242  0.1339  0.1251
59569W        W 2585   3.108   3.158   7.769 -0.0286  0.2020  0.2002
59570W        W 2586  15.460  14.366   5.279  0.2701  0.2807  0.0763
59571W        W 2587   5.045  13.755  17.156 -0.1504 -0.0421  0.1094
59572W        W 2588  18.852  14.962  21.386 -0.0119  0.1644  0.0094
59573W        W 2589  30.085  16.936  28.918  0.2994 -0.0686  0.2449
59574W        W 2590  21.744  16.724  28.506 -0.1072 -0.0128  0.3091
59575W        W 2591   8.184  14.577   7.694 -0.0319  0.0862 -0.0938
59576W        W 2592   0.672  14.785   7.627 -0.4397 -0.3085  0.1775
59577W        W 2593  12.224   9.684  19.503 -0.0995 -0.0424  0.0154
59578W        W 2594  25.537   8.315   0.006  0.0575  0.0614 -0.0968
59579W        W 2595  10.803  20.115   1.501 -0.4493 -0.3921 -0.0251
59580W        W 2596   5.855  20.441   6.024  0.0625 -0.1494 -0.2120
59581W        W 2597  30.686  27.369   6.002 -0.0472 -0.2498 -0.0890
59582W        W 2598   4.741  12.211   0.926 -0.4440 -0.0102  0.0283
59583W        W 2599  14.715   5.659   9.138 -0.2354 -0.0623 -0.1637
59584W        W 2600   6.561   5.280   9.025  0.5312 -0.0098  0.2373
59585W        W 2601  33.876  22.677   3.870 -0.0863  0.0612  0.0216
59586W        W 2602   9.985  20.727   3.106 -0.3253  0.0753 -0.2106
59587W        W 2603   2.047  11.196  14.014 -0.0786  0.0687  0.2209
59588W        W 2604  28.503   2.822   6.026 -0.1614 -0.0770  0.2975
59589W        W 2605   1.988   1.809  24.519  0.2611  0.2346 -0.3037
59590W        W 2606   1.667  29.141   5.984 -0.1657 -0.1385  0.0624
59591W        W 2607   8.931  22.612   8.023  0.0403 -0.0230  0.2001
59592W        W 2608   1.978  25.288  26.257 -0.1920 -0.1832  0.1114
59593W        W 2609   1.159  19.219  27.982  0.0553  0.3758 -0.0216
59594W        W 2610  23.046  24.982   6.630  0.1865 -0.0268  0.0125
59595W        W 2611  21.621   8.945   8.517  0.2815  0.0152  0.2445
59596W        W 2612  27.312  17.652  10.111 -0.0146  0.4467 -0.0514
59597W        W 2613  21.364  21.329   1.478  0.1886 -0.0506 -0.1419
59598W        W 2614  28.060   6.833  28.078 -0.0525  0.1855  0.0364
59599W        W 2615   7.657  29.410  24.418  0.0899 -0.0205 -0.0352
59600W        W 2616   8.691  30.833   0.707  0.1431  0.1080  0.2312
59601W        W 2617  30.389  10.324   0.784 -0.0380 -0.0638  0.3500
59602W        W 2618   2.774  20.724   4.460  0.0350 -0.1355  0.1273
59603W        W 2619  24.332  18.858  15.741  0.0428  0.1490  0.2151
59604W        W 2620   3.564  23.005   1.103  0.0514  0.2044 -0.1813
59605W        W 2621  20.317   2.092   7.277 -0.1386 -0.1095  0.0315
59606W        W 2622  31.593  11.712  18.376  0.0256  0.2112  0.0075
59607W        W 2623   2.068   2.705   3.793 -0.2457 -0.0738 -0.0386
59608W        W 2624  32.167   3.025   1.992  0.0554  0.2494  0.1677
59609W        W 2625   8.317  21.869  26.664  0.1826 -0.1063 -0.1191
59610W        W 2626   7.395   1.577   0.095 -0.0456 -0.2840  0.1476
59611W        W 2627   4.028  19.161  26.525  0.1602  0.1245  0.0237
59612W        W 2628  14.758  15.263   6.077  0.5402 -0.1386 -0.3367
59613W        W 2629  22.221  18.510   3.122  0.0306  0.3675 -0.2837
59614W        W 2630   1.178  10.176   0.798 -0.0804 -0.0375  0.2603
59615W        W 2631  21.992  16.100  24.614 -0.1140  0.2203 -0.1440
59616W        W 2632  15.125   6.032   8.481  0.0969  0.1200  0.0995
59617W        W 2633   9.706  21.982   7.191  0.1651  0.0399 -0.0474
59618W        W 2634   4.440  27.311   4.162  0.0348  0.0703  0.3119
59619W        W 2635  24.413  14.044   9.756  0.1387 -0.0242  0.3767
59620W        W 2636  28.839  34.401   6.321 -0.0213  0.0937  0.0864
59621W        W 2637  33.630  29.402  28.468 -0.1067 -0.0390 -0.2999
59622W        W 2638   9.128   9.598  29.221 -0.0510 -0.0494 -0.1945
59623W        W 2639   6.797  17.747   9.342 -0.0170  0.0636 -0.3112
59624W        W 2640   0.859  18.380   5.003 -0.1087 -0.2846 -0.3166
59625W        W 2641   1.619  26.415   9.531 -0.3397  0.2323 -0.2191
59626W        W 2642  22.155   3.924  20.597  0.3304 -0.0935 -0.1505
59627W        W 2643  30.936  28.757  26.221  0.0912 -0.0538  0.1584
59628W        W 2644  32.038   3.521   7.209 -0.0817 -0.0998 -0.3083
59629W        W 2645  18.381  33.305   7.642  0.0613 -0.0951 -0.2332
59630W        W 2646  27.009  24.054  11.091 -0.3852  0.2445  0.1945
59631W        W 2647   3.757  26.014   7.833  0.0574  0.1507 -0.1447
59632W        W 2648   8.382  28.335  24.052 -0.1485  0.0506 -0.4200
59633W        W 2649  12.056   6.644   9.844  0.0713  0.1693  0.1463
59634W        W 2650  10.019  22.643   5.759  0.0411 -0.0307  0.1033
59635W        W 2651  25.550  15.000   5.796 -0.1341 -0.1065  0.4118
59636W        W 2652  34.197   5.419   4.681  0.0129  0.0078 -0.0999
59637W        W 2653  29.960  13.485   7.447  0.1611  0.0420 -0.0830
59638W        W 2654   7.972  15.842  15.057 -0.2294  0.0306  0.1787
59639W        W 2655  20.080   5.680   5.523  0.1514  0.0253 -0.0545
59640W        W 2656  31.482   1.791   5.959 -0.1170 -0.0505  0.0933
59641W        W 2657   0.177   2.091  26.414 -0.2360 -0.1024 -0.1505
59642W        W 2658  22.886  26.009  26.341 -0.1790 -0.0760 -0.2223
59643W        W 2659  17.837  14.433  22.958 -0.0119  0.2141 -0.0596
59644W        W 2660  10.710   5.794   1.445  0.0023 -0.0908 -0.2930
59645W        W 2661  29.985  25.979   9.301  0.1180  0.1026 -0.0101
59646W        W 2662  26.630   1.625   6.583 -0.0626 -0.1676 -0.2138
59647W        W 2663  33.943  21.072   9.444  0.0039  0.1034 -0.0026
59648W        W 2664   4.638   5.204   9.930 -0.1247  0.0523  0.0306
59649W        W 2665  18.057  18.025  29.114 -0.2583  0.1766  0.0728
59650W        W 2666  29.466  27.535   5.084 -0.0895 -0.0959 -0.1676
59651W        W 2667  24.928   4.261   9.711  0.2587 -0.1485 -0.2155
59652W        W 2668   9.201  17.286  26.924  0.2120 -0.0571  0.4363
59653W        W 2669   0.122   2.350   6.357 -0.0678  0.0922 -0.1332
59654W        W 2670  25.261  19.321   4.797 -0.1811 -0.3708 -0.0485
59655W        W 2671   4.282  30.423   9.131 -0.1329 -0.1389 -0.2291
59656W        W 2672  20.220  21.979  28.117  0.1212 -0.0117  0.0131
59657W        W 2673  21.804  14.188  24.531 -0.1351  0.1034 -0.0279
59658W        W 2674  19.493   7.765   5.561 -0.0173  0.0658 -0.0754
59659W        W 2675  26.898  23.431   3.246 -0.2548 -0.0931 -0.2091
59660W        W 2676  32.648   9.287   1.975  0.3589 -0.2562  0.1945
59661W        W 2677  25.162  28.218   7.680  0.0933 -0.1965 -0.1783
59662W        W 2678  32.776   4.624  14.428  0.0080  0.2233 -0.0438
59663W        W 2679  32.739  10.357   4.094 -0.2466  0.0012 -0.4397
59664W        W 2680  33.948  24.389   9.500  0.1398 -0.0049 -0.3675
59665W        W 2681   0.129  15.343   5.141  0.1001  0.2185 -0.1261
59666W        W 2682  29.140  34.598   8.363 -0.3918 -0.1656 -0.3858
59667W        W 2683   0.672  13.414   6.527 -0.5749 -0.1630  0.0926
59668W        W 2684  32.957  24.659  11.330  0.0417  0.0663  0.0073
59669W        W 2685  28.956  23.915   8.006 -0.0679  0.0550  0.0381
59670W        W 2686   5.112  11.549  24.539  0.0867 -0.1828  0.0334
59671W        W 2687  34.124   9.921   7.446  0.2266 -0.0944  0.5368
59672W        W 2688  15.534  10.180  24.848  0.1524  0.0349 -0.1797
59673W        W 2689   2.113  20.914   6.986 -0.1866 -0.1904  0.1642
59674W        W 2690   0.027   4.559   4.245 -0.1402  0.2077  0.0315
59675W        W 2691  19.332   5.126   7.127  0.1160  0.2452  0.0768
59676W        W 2692  28.692   6.081   3.973 -0.1532  0.0351  0.1652
59677W        W 2693   1.978  16.471   3.883 -0.0706 -0.0948  0.1735
59678W        W 2694  12.060  16.386   4.340  0.0902 -0.1706 -0.1030
59679W        W 2695  25.543  14.345  26.069  0.1255  0.1786  0.2947
59680W        W 2696  25.224  16.773  25.846  0.0829 -0.2784  0.0365
59681W        W 2697   9.825  14.691   6.407  0.2400 -0.2798 -0.2171
59682W        W 2698  24.135  19.992  21.009  0.3340 -0.3307  0.1517
59683W        W 2699  28.018  17.421   1.651 -0.3418  0.1498 -0.0632
59684W        W 2700  17.299   7.232  19.046  0.1517 -0.2582 -0.0743
59685W        W 2701   8.831  10.335  17.621 -0.2646 -0.0356 -0.1259
59686W        W 2702   9.758  12.169   5.505  0.1418  0.1692 -0.0469
59687W        W 2703  13.967  28.115   5.774  0.0869  0.3676 -0.1180
59688W        W 2704  29.120  10.427   4.757 -0.0095 -0.0862  0.1681
59689W        W 2705  19.434   8.898  13.626 -0.1341  0.2418  0.0929
59690W        W 2706  10.738  15.037   7.762  0.1587 -0.2950  0.1414
59691W        W 2707   3.475  12.140   4.872  0.0204  0.0386  0.4681
59692W        W 2708   1.149  32.564   7.637  0.2794 -0.0510 -0.2116
59693W        W 2709   0.403  24.591   5.047 -0.2590  0.2887  0.0280
59694W        W 2710  17.774  13.270   7.803 -0.1826  0.0866 -0.0874
59695W        W 2711   9.918   7.404   1.354 -0.0095 -0.2108  0.0612
59696W        W 2712   7.031  16.584   4.547  0.0701  0.1821 -0.2002
59697W        W 2713   4.226  25.167   9.016  0.1261  0.0495  0.1827
59698W        W 2714  20.122  10.945   5.912 -0.0176  0.1874 -0.1387
59699W        W 2715  34.076  32.398   6.684 -0.1166  0.2794 -0.2876
59700W        W 2716  11.498  22.303   6.512 -0.1179 -0.0983 -0.1631
59701W        W 2717  17.554  16.263  17.226  0.0320  0.0242 -0.0901
59702W        W 2718   9.678  10.412   1.189 -0.3121  0.2425 -0.1123
59703W        W 2719  31.308  12.430   1.335 -0.0444  0.0106 -0.1974
59704W        W 2720   5.155  11.259  24.009  0.3027  0.0180  0.1286
59705W        W 2721   2.697   4.262   0.600  0.0925  0.1479 -0.0194
59706W        W 2722  24.997   4.195  19.754 -0.3337  0.0491 -0.1270
59707W        W 2723   5.643  27.260   1.417  0.1942  0.1587  0.0593
59708W        W 2724  13.219   6.898   0.288 -0.2406  0.1502  0.3040
59709W        W 2725  23.899  18.946   3.432  0.0793  0.0125 -0.0794
59710W        W 2726  18.617  15.873   4.289 -0.2060  0.2179  0.1164
59711W        W 2727   4.693  15.955   8.203 -0.0581 -0.1790 -0.1416
59712W        W 2728   7.246  13.629   5.873 -0.3921 -0.0927 -0.3115
59713W        W 2729   1.320   7.764  28.550 -0.2821 -0.3557 -0.2726
59714W        W 2730  17.122  20.924  21.630  0.2892  0.1010  0.5065
59715W        W 2731  22.885  32.290   7.867  0.0679 -0.3686 -0.0221
59716W        W 2732   5.524  13.167   6.769  0.3191 -0.0301  0.1238
59717W        W 2733   1.220  20.991   6.521  0.0012 -0.0256  0.5023
59718W        W 2734   7.600   9.059  28.903  0.0839  0.0258 -0.1327
59719W        W 2735   7.837  18.631  21.312 -0.2287 -0.2557  0.2659
59720W        W 2736  21.557   6.551   7.810  0.0441 -0.2797  0.2107
59721W        W 2737  10.511  11.468  27.485  0.3206 -0.0281 -0.0379
59722W        W 2738  34.588  22.132   3.533  0.1250 -0.0108 -0.3657
59723W        W 2739  28.209  15.329  25.546  0.1971 -0.0241 -0.1348
59724W        W 2740  11.607  13.955   3.252 -0.1072  0.0051  0.3027
59725W        W 2741   1.134  17.297  28.871  0.0555  0.3312 -0.4884
59726W        W 2742  32.934  22.741  28.501  0.1911 -0.0436 -0.2346
59727W        W 2743  33.225   2.736  20.043 -0.0555 -0.0548 -0.0835
59728W        W 2744   5.911   2.870   7.141 -0.0983 -0.4243  0.1169
59729W        W 2745  18.764  18.027  23.422  0.0369 -0.0564 -0.1697
59730W        W 2746   2.629   1.225   2.684  0.0062  0.0936  0.0074
59731W        W 2747  34.664   6.660   7.779 -0.1852  0.0195  0.2275
59732W        W 2748   3.817  14.397  13.667  0.0360  0.1816  0.2840
59733W        W 2749   5.143  27.711   3.360 -0.5007  0.0378 -0.0766
59734W        W 2750   2.747  11.753  15.246  0.2135 -0.1033  0.0506
59735W        W 2751  26.145  14.395   8.380 -0.0047  0.2530  0.0188
59736W        W 2752  34.275  12.881  26.390 -0.3078  0.3495 -0.1541
59737W        W 2753   6.559   4.080   8.212 -0.0201 -0.3266 -0.0027
59738W        W 2754  24.015  24.677   4.173 -0.2821  0.0309  0.5239
59739W        W 2755  14.774  18.271  27.220  0.1066 -0.2925  0.3489
59740W        W 2756   8.788  23.635  27.225  0.0622  0.1031  0.3510
59741W        W 2757  31.803  15.084  10.167 -0.2594 -0.0881  0.0649
59742W        W 2758   0.737   7.007   9.360 -0.0191  0.1641  0.1774
59743W        W 2759  34.586  21.900  22.594  0.0148  0.5004 -0.1624
59744W        W 2760  34.136  28.105   7.953 -0.2582  0.1228 -0.1567
59745W        W 2761  23.252  13.629  28.632 -0.2245 -0.1056  0.1135
59746W        W 2762   2.326  33.655   2.002 -0.0323  0.0183 -0.0440
59747W        W 2763   5.952  33.058  26.761  0.0270  0.1954  0.0092
59748W        W 2764  11.880  13.633   6.003 -0.2447  0.3069  0.0511
59749W        W 2765   6.723  22.363  23.987 -0.0938 -0.2296 -0.2642
59750W        W 2766  11.352  21.825   1.411  0.2836  0.0043  0.2720
59751W        W 2767  26.326   9.722  21.752  0.0343 -0.2489 -0.0368
59752W        W 2768   1.030  19.784   1.730  0.1995  0.1493  0.1916
59753W        W 2769   0.057  16.115   0.765  0.0898 -0.3437 -0.1304
59754W        W 2770  25.863  27.661   4.933 -0.3778  0.1515 -0.3078
59755W        W 2771  15.593  20.355   0.614  0.0693  0.1217 -0.1426
59756W        W 2772  31.930  30.981  11.077 -0.0806  0.0367  0.1499
59757W        W 2773  22.419  22.853   4.121  0.4843  0.1208 -0.0430
59758W        W 2774   6.134  16.143   3.067  0.2540  0.1766  0.1433
59759W        W 2775  29.158   4.168   3.893  0.0708 -0.0141 -0.0525
59760W        W 2776   4.221  14.082  29.282  0.1509  0.3074  0.3910
59761W        W 2777  24.011  23.636   6.473 -0.3203  0.2105 -0.1980
59762W        W 2778  32.464  16.719   0.374 -0.2374  0.0837  0.1292
59763W        W 2779  29.324   3.174   5.998  0.0244  0.0386 -0.1476
59764W        W 2780  33.452  13.067  10.067  0.3223  0.1788 -0.1394
59765W        W 2781  16.002  18.072  23.238  0.2438 -0.1678  0.1684
59766W        W 2782  29.897  10.476  18.444  0.3094 -0.1264 -0.2020
59767W        W 2783  14.626   8.719   5.963 -0.0284  0.2347  0.2515
59768W        W 2784   5.476   4.627   8.955 -0.3140 -0.2122  0.1530
59769W        W 2785  32.303  15.864  10.535  0.1751  0.1030  0.0404
59770W        W 2786   7.932  16.236  19.052 -0.0722  0.0558  0.0729
59771W        W 2787  24.986  23.932   9.141 -0.1699  0.3464 -0.1008
59772W        W 2788  27.520   7.197   9.477 -0.1629  0.2760  0.1880
59773W        W 2789  30.740  16.566   9.139  0.2094  0.3213 -0.0408
59774W        W 2790  10.770  15.548  26.014  0.1968  0.0120 -0.3301
59775W        W 2791   5.644  17.711  16.834 -0.1138  0.0870 -0.0427
59776W        W 2792  33.323  13.515  24.138 -0.0164 -0.1462  0.2197
59777W        W 2793  21.464  17.000  20.526 -0.0311 -0.1143  0.0123
59778W        W 2794  34.458  22.858   5.138 -0.1594  0.0759  0.2997
59779W        W 2795   3.245   5.687   6.347  0.3217 -0.0016  0.0729
59780W        W 2796   2.534  25.533   9.761 -0.2769  0.1298 -0.3647
59781W        W 2797  32.301  23.005   7.641 -0.0508  0.1579 -0.1156
59782W        W 2798  14.373  12.125   4.307  0.0304  0.3056  0.1211
59783W        W 2799  28.192  24.471  29.177 -0.2294 -0.0506 -0.0278
59784W        W 2800  24.481  17.222   8.851  0.0578  0.0966 -0.0520
59785W        W 2801  30.768  20.838  28.715 -0.0455  0.3337  0.0192
59786W        W 2802  24.890   5.629   0.148  0.0805 -0.1046 -0.0597
59787W        W 2803  26.754  14.029   9.009  0.2010 -0.0590 -0.0629
59788W        W 2804  16.847   1.573   5.736  0.0264 -0.2260  0.1692
59789W        W 2805   9.339  31.919   5.974 -0.0251 -0.0956 -0.4945
59790W        W 2806   2.110  29.842  25.443  0.0658 -0.0197 -0.2665
59791W        W 2807   7.288   7.447   6.036  0.2259 -0.2324 -0.1151
59792W        W 2808   8.991  16.885  28.797 -0.0331 -0.4165  0.1811
59793W        W 2809  33.827  12.633   7.580  0.3999  0.1128  0.2001
59794W        W 2810   9.614  15.462   7.014 -0.2439 -0.0124 -0.3089
59795W        W 2811   5.694  15.573  21.766  0.2980  0.0385 -0.0713
59796W        W 2812  20.956  30.006   7.393 -0.1927 -0.3902 -0.2507
59797W        W 2813   6.699  34.669   1.319  0.2884  0.0317 -0.3267
59798W        W 2814  32.050  11.349   4.897 -0.0706 -0.0682  0.0456
59799W        W 2815  31.104  18.372   5.050 -0.1486 -0.0003 -0.0838
59800W        W 2816   6.062  14.151   0.989 -0.0112  0.2877 -0.3793
59801W        W 2817  18.783   9.786   4.461 -0.0416  0.0041 -0.3141
59802W        W 2818   3.415   1.818  22.592  0.0627  0.1131  0.2636
59803W        W 2819  12.046  20.230  20.943  0.2932  0.0023 -0.2546
59804W        W 2820  13.688  12.287   6.652  0.2903  0.2983  0.0794
59805W        W 2821  14.352  18.846  20.995 -0.1707 -0.2424  0.0018
59806W        W 2822   7.597  16.449   6.016  0.2618 -0.0869 -0.2732
59807W        W 2823  18.864  33.006   2.133 -0.1908  0.2033  0.3234
59808W        W 2824   2.717  14.340   6.001 -0.1139 -0.1020  0.0182
59809W        W 2825   9.252  29.519   9.424 -0.1493 -0.0222 -0.0597
59810W        W 2826  28.581  10.179   8.920 -0.0345 -0.0593 -0.0398
59811W        W 2827  26.762  16.587   1.853 -0.0163 -0.0683  0.2015
59812W        W 2828   8.034  28.806   5.202 -0.0305 -0.1904  0.2538
59813W        W 2829   8.004  13.898   1.358 -0.1613  0.1643  0.1070
59814W        W 2830  33.811  21.313   4.517 -0.0872  0.1192  0.0262
59815W        W 2831   4.636  33.559   2.892  0.2225 -0.2167 -0.2325
59816W        W 2832   1.819  11.214   8.452 -0.3029 -0.0932 -0.2138
59817W        W 2833  30.435   6.626  10.351  0.0234 -0.1259  0.2924
59818W        W 2834  17.152  14.254   8.038 -0.0260 -0.1879  0.1079
59819W        W 2835  34.382  32.269   7.469 -0.0221 -0.0531 -0.0285
59820W        W 2836  31.493  12.338   8.107  0.1089 -0.1228  0.0544
59821W        W 2837   5.956   3.538  22.272  0.1932  0.2733 -0.1025
59822W        W 2838  24.749  15.811   0.270  0.1819 -0.1779 -0.0240
59823W        W 2839  33.443   6.651  29.320  0.0483  0.0120 -0.1655
59824W        W 2840  18.698  27.221   7.907 -0.0506 -0.1071 -0.3574
59825W        W 2841  29.696   6.115   8.644  0.2951 -0.0263  0.0070
59826W        W 2842   4.274  21.435   6.451  0.0860  0.1550 -0.0028
59827W        W 2843  33.035  10.491  10.280 -0.0862 -0.3098  0.0346
59828W        W 2844  22.762  27.109  20.666  0.1432  0.0669  0.0170
59829W        W 2845  34.505   8.101  27.980  0.1059 -0.1571  0.2550
59830W        W 2846  13.484  14.280  28.919  0.0226 -0.1035 -0.0933
59831W        W 2847  22.333   7.055   7.078  0.1733  0.0234 -0.0094
59832W        W 2848   3.001  24.525  18.426 -0.0068 -0.0998  0.0635
59833W        W 2849  32.852  10.736   4.979  0.0485  0.1407  0.2469
59834W        W 2850  24.059  13.398   6.889  0.0215 -0.1104  0.2779
59835W        W 2851  30.675  11.719   6.260  0.2449 -0.1686  0.0502
59836W        W 2852   1.780  12.609   3.702 -0.1025  0.1118  0.1251
59837W        W 2853  24.766   9.729  26.742  0.4207  0.1859 -0.4795
59838W        W 2854  27.037  33.968  28.727  0.1940 -0.1071  0.0155
59839W        W 2855  33.098  22.033   3.614  0.1177  0.0894  0.1779
59840W        W 2856  31.266  12.523  25.021 -0.4971  0.2154  0.2641
59841W        W 2857   3.862  14.471   4.616  0.1793 -0.0687  0.1066
59842W        W 2858  11.016  26.895   4.739  0.2071  0.1347 -0.1968
59843W        W 2859  10.767   7.022   4.133  0.2833 -0.0250  0.0483
59844W        W 2860   7.332  18.357   0.862 -0.1430  0.2151 -0.2752
59845W        W 2861  16.902  22.275   6.712  0.0942 -0.1496 -0.1115
59846W        W 2862   4.242  12.792  27.136  0.1824  0.0237 -0.1056
59847W        W 2863  12.124  34.030  20.746 -0.0652 -0.0230 -0.2639
59848W        W 2864   3.268  13.547  28.519  0.2888 -0.1183  0.0712
59849W        W 2865   4.733  23.844   6.422  0.0142  0.1170 -0.3350
59850W        W 2866  28.353   6.006  11.286  0.0114 -0.0427  0.0702
59851W        W 2867  25.553  31.168  11.214 -0.0193 -0.0636 -0.0186
59852W        W 2868  32.386   3.653   3.207  0.1034 -0.0961  0.0673
59853W        W 2869  13.623  14.242   7.421 -0.2027 -0.0753 -0.0773
59854W        W 2870   0.688  13.162   9.220  0.0862  0.0709  0.0224
59855W        W 2871   5.018  23.452   6.476  0.0448  0.2422  0.2334
59856W        W 2872   2.670  19.625   3.576 -0.1437 -0.2013  0.0690
59857W        W 2873   9.109  12.527  19.959 -0.3053 -0.1298 -0.1448
59858W        W 2874   0.013  21.646   7.182  0.2232 -0.2086  0.2998
59859W        W 2875   5.076  24.773   9.057  0.0470 -0.1550 -0.0397
59860W        W 2876   2.357  22.137   6.074  0.1959  0.0499  0.3292
59861W        W 2877  26.811   8.851   2.911 -0.3453  0.3979  0.2297
59862W        W 2878  23.117   0.191   2.316 -0.1242 -0.1935 -0.3135
59863W        W 2879  22.001  33.448   5.791  0.1799 -0.1858  0.0570
59864W        W 2880   5.726  11.029   7.741 -0.0225 -0.2669  0.1369
59865W        W 2881  31.534   7.485  23.279  0.1750  0.1323 -0.2307
59866W        W 2882  28.749  12.008   0.578 -0.3488  0.2249  0.0397
59867W        W 2883   7.592  25.521  19.811 -0.1107  0.0986  0.1683
59868W        W 2884  21.861   8.610  17.001 -0.0610 -0.0134  0.0486
59869W        W 2885  20.962   3.686  10.223 -0.1422  0.0746 -0.1993
59870W        W 2886   4.152  34.523   5.773 -0.0561  0.0983  0.1821
59871W        W 2887  15.002  16.513   1.383  0.2875  0.0418 -0.1349
59872W        W 2888   2.541  24.257  26.758 -0.2782 -0.1250 -0.3467
59873W        W 2889  13.070  14.269   3.566 -0.0882  0.0736 -0.2036
59874W        W 2890   8.870  15.104   8.226  0.2421 -0.0901 -0.2920
59875W        W 2891  27.668  13.034   6.029 -0.0561  0.0378 -0.0974
59876W        W 2892   9.441  21.276  25.774  0.1487 -0.3717  0.1273
59877W        W 2893   6.789   0.572   6.146  0.1064  0.0798 -0.1258
59878W        W 2894  15.635  15.679  26.834 -0.2477 -0.2491  0.1694
59879W        W 2895  31.501   9.466  10.027 -0.1519 -0.1091  0.4212
59880W        W 2896   4.298  19.170   6.738 -0.0660  0.0264  0.4050
59881W        W 2897   6.910  15.603   1.120  0.1565  0.0371 -0.2947
59882W        W 2898   2.145  26.949   5.537 -0.3352 -0.0093  0.0363
59883W        W 2899  12.146  18.155  23.818 -0.2854 -0.1854 -0.0591
59884W        W 2900   9.420   8.041  18.718 -0.0504  0.0449 -0.3159
59885W        W 2901  26.568  11.828   9.693 -0.3058 -0.0487  0.2097
59886W        W 2902  11.822  10.210  23.422 -0.1353 -0.1803 -0.1192
59887W        W 2903  23.325  11.304   1.589 -0.1333 -0.2086  0.2635
59888W        W 2904  20.053  11.268   5.491  0.4682 -0.1810  0.0296
59889W        W 2905  33.282   5.201   3.205  0.3526 -0.0649  0.2059
59890W        W 2906  21.144   6.111   5.446  0.1755 -0.4087 -0.1028
59891W        W 2907   7.192  16.889   8.039 -0.0048 -0.2919 -0.3381
59892W        W 2908  32.455  23.442   1.173 -0.2676 -0.0878 -0.1683
59893W        W 2909  33.476  18.138   9.175  0.0885 -0.0692  0.0269
59894W        W 2910  31.377  18.464  27.517 -0.0297 -0.3134  0.2243
59895W        W 2911   2.916   7.785   9.914  0.0138 -0.4156  0.2799
59896W        W 2912   9.640   7.665   2.384  0.0308  0.0360 -0.0908
59897W        W 2913   3.445  21.117   2.532  0.1956 -0.2573 -0.2057
59898W        W 2914  11.148   1.546   0.041  0.2837 -0.0733  0.0410
59899W        W 2915  30.447  29.636   6.594 -0.0233 -0.0737  0.0552
59900W        W 2916  13.218  14.087   5.675  0.1854  0.0975  0.0603
59901W        W 2917   6.221  13.291  15.250  0.4358 -0.2095 -0.0227
59902W        W 2918   0.786  24.931  10.132  0.2464 -0.0286  0.2385
59903W        W 2919   5.202  14.729  29.075  0.1645 -0.1382  0.0957
59904W        W 2920   5.014  19.324   1.802  0.0760  0.0475 -0.1245
59905W        W 2921  18.706  24.443  22.812 -0.0982  0.1093  0.0093
59906W        W 2922  17.126   6.391   4.224  0.2168  0.0940  0.0540
59907W        W 2923  24.869  17.054   0.103  0.1445 -0.0554  0.1657
59908W        W 2924   7.260   7.040  25.416 -0.2134  0.0201 -0.2406
59909W        W 2925   5.862   8.125  22.398  0.3113 -0.1097  0.0021
59910W        W 2926  24.770   9.433   1.824  0.2748  0.1697 -0.0371
59911W        W 2927  10.420  12.399   8.568 -0.1500  0.0356 -0.1999
59912W        W 2928  12.702  18.543   3.621  0.0218 -0.1334 -0.0607
59913W        W 2929   5.563  25.553   0.881  0.0375  0.0131  0.2058
59914W        W 2930  30.330   3.498  27.558  0.0753  0.2086 -0.0073
59915W        W 2931   7.268  16.918   0.112 -0.0128  0.2651 -0.2784
59916W        W 2932   5.128  17.017   7.319 -0.0355 -0.3590 -0.2444
59917W        W 2933  15.523  21.643   4.693 -0.0418  0.0096  0.1673
59918W        W 2934  20.005  32.086   8.590 -0.2738 -0.0577 -0.1011
59919W        W 2935  22.627  13.396   0.870  0.1181  0.1034 -0.1230
59920W        W 2936  17.066  21.756   8.322  0.0752 -0.2064  0.0995
59921W        W 2937  34.396  19.697  27.331  0.0342 -0.3109  0.3990
59922W        W 2938  33.781  11.216   6.065  0.0214  0.0445  0.1174
59923W        W 2939  22.934  34.515   2.389 -0.3806 -0.1415 -0.2321
59924W        W 2940  25.999  18.792   7.926 -0.0811  0.0872  0.3226
59925W        W 2941   1.682   9.927   1.105 -0.2603 -0.1649  0.4049
59926W        W 2942  25.300  22.887   5.974  0.2673 -0.2261  0.0684
59927W        W 2943   1.522   9.692  27.934  0.0035 -0.0227  0.3711
59928W        W 2944  14.649  15.734   5.156 -0.1420 -0.1309 -0.1693
59929W        W 2945  31.217  25.352   2.322 -0.1683  0.1682  0.0506
59930W        W 2946   3.439  30.005   7.855  0.2259  0.3845 -0.3298
59931W        W 2947   2.610  15.348   7.987  0.1690  0.1489  0.0751
59932W        W 2948   4.021  20.041  22.034  0.0247 -0.2062  0.3379
59933W        W 2949  27.586  16.238   3.439  0.0773 -0.2095  0.1616
59934W        W 2950   5.653  16.577  16.490  0.1320  0.0182  0.0646
59935W        W 2951  32.530  20.025  19.510  0.0719 -0.1897  0.4454
59936W        W 2952   5.410   9.123   3.326  0.3496  0.3025 -0.0645
59937W        W 2953  16.864   7.434  16.520 -0.1912 -0.1962 -0.0619
59938W        W 2954  31.833   6.583  16.979  0.1360 -0.0865 -0.0468
59939W        W 2955   2.948  29.031   6.269  0.0630 -0.1392 -0.2731
59940W        W 2956   9.096  23.771   2.445 -0.0457 -0.1007  0.2886
59941W        W 2957   1.475  24.317   6.718  0.0059 -0.3782 -0.1712
59942W        W 2958  27.063  26.440   4.417  0.1832 -0.1608  0.1058
59943W        W 2959  17.786  24.706  28.138  0.1253  0.0236 -0.2682
59944W        W 2960   5.258  24.584  17.504  0.0472  0.0457 -0.2373
59945W        W 2961   9.650  16.324   3.277 -0.2385 -0.1291 -0.2017
59946W        W 2962  21.749   7.072  23.891  0.0821  0.0056 -0.1854
59947W        W 2963  15.360  18.874   2.560 -0.0968 -0.0306 -0.0672
59948W        W 2964   6.840  29.261   4.111 -0.1541  0.2045  0.2130
59949W        W 2965   3.795  18.594   4.022  0.0086 -0.1649 -0.1425
59950W        W 2966   6.286  28.629  20.711  0.3824  0.0814  0.1025
59951W        W 2967   5.692  30.725   3.554 -0.0103 -0.1321  0.0290
59952W        W 2968  33.883   4.956  23.521  0.0975  0.2382  0.0910
59953W        W 2969   5.199  13.762  18.816  0.0981  0.3504  0.3669
59954W        W 2970   6.768  26.063  16.461  0.0328  0.1408  0.1926
59955W        W 2971   3.567  15.551  20.275 -0.2135 -0.1696 -0.0595
59956W        W 2972  30.296  33.015   8.218  0.1238  0.2259 -0.0352
59957W        W 2973   3.281  20.213   9.519  0.1082  0.0535  0.1400
59958W        W 2974  10.853  29.152  20.043 -0.0736 -0.0612 -0.1552
59959W        W 2975   0.386  12.866   3.978 -0.1779  0.1000 -0.0360
59960W        W 2976  34.447  25.096  27.858  0.0396  0.2419  0.0700
59961W        W 2977  26.614  23.274   6.988  0.2271 -0.0388  0.0666
59962W        W 2978   6.720  16.888   0.329  0.1009  0.0328 -0.1342
59963W        W 2979  19.244  30.169   8.793 -0.0840 -0.0306  0.1157
59964W        W 2980  19.845   5.370  28.660  0.1306  0.3115  0.0886
59965W        W 2981  13.394   9.055  14.733  0.3812 -0.0613 -0.0611
59966W        W 2982  28.888  15.505  27.093 -0.0258 -0.1309 -0.1570
59967W        W 2983  15.473   5.341  17.697 -0.1957 -0.1721 -0.2548
59968W        W 2984  32.440  11.030  22.353  0.3516  0.1408 -0.2022
59969W        W 2985  17.619   6.181   7.612 -0.1099  0.1557 -0.0370
59970W        W 2986   6.532  11.051  25.413  0.0242  0.1927  0.2722
59971W        W 2987   3.176  18.373  24.186 -0.0750 -0.0769 -0.1865
59972W        W 2988   5.640  13.736   3.327  0.1214 -0.2111 -0.2693
59973W        W 2989   1.451  13.440   1.525  0.2198 -0.2527 -0.1074
59974W        W 2990   3.302  13.414  23.360  0.1716 -0.0071 -0.0937
59975W        W 2991  30.181  19.391   7.215 -0.2203 -0.3699  0.0248
59976W        W 2992  10.478  23.213  29.251  0.0242 -0.0166 -0.4666
59977W        W 2993  11.033  22.689   1.159 -0.0678 -0.0597  0.0628
59978W        W 2994  19.862  25.505  18.089  0.1024 -0.2013  0.2895
59979W        W 2995  22.929  28.653  25.641  0.0786 -0.1376  0.1756
59980W        W 2996   0.527  22.296   9.630  0.0464  0.0591 -0.0164
59981W        W 2997   3.650  20.249   8.369 -0.1168 -0.0283 -0.0340
59982W        W 2998  29.880  31.589   3.742  0.0974 -0.1410 -0.0282
59983W        W 2999   1.424   9.335   3.313 -0.1344 -0.0648  0.0634
59984W        W 3000  25.115   4.591   3.899 -0.2228 -0.4095  0.1138
59985W        W 3001   4.834   9.276  23.561  0.3554 -0.2485  0.1670
59986W        W 3002  30.359  27.051   6.777  0.1814  0.2728  0.0981
59987W        W 3003  17.678   4.267  29.288  0.0095  0.0419  0.1844
59988W        W 3004  29.672  27.707   3.987 -0.1687  0.2371  0.1748
59989W        W 3005   9.320  16.564  16.057 -0.1132  0.0178 -0.3737
59990W        W 3006  26.445  11.677   5.646 -0.2244 -0.1006  0.1829
59991W        W 3007   7.612  18.967   2.608  0.3151  0.2891 -0.3368
59992W        W 3008  24.314   6.499  25.447  0.2074 -0.0311  0.0491
59993W        W 3009   5.281  13.031   5.854  0.0305 -0.0126 -0.0378
59994W        W 3010   0.626  18.039  28.419 -0.0210  0.1286 -0.2542
59995W        W 3011  28.219  18.879  14.396 -0.3260  0.0522  0.2652
59996W        W 3012  29.239  15.632   1.056 -0.0791  0.0063 -0.1645
59997W        W 3013  31.188  18.442  10.019 -0.1308  0.0236  0.0368
59998W        W 3014  30.538  12.378   8.285 -0.1613 -0.4346 -0.1002
59999W        W 3015  25.344  16.066   9.206  0.0817  0.1297  0.1458
60000W        W 3016  29.727   2.679  20.321  0.2244 -0.1158  0.1721
60001W        W 3017   6.067  30.242  22.560  0.2356 -0.0797  0.0864
60002W        W 3018  28.983  10.997   1.100  0.0505  0.2162  0.1390
60003W        W 3019   9.137  31.179   7.436 -0.1385  0.0782  0.2024
60004W        W 3020   5.275   4.089  18.358  0.2374  0.1117 -0.1057
60005W        W 3021  25.212  10.917  17.137  0.3485  0.2719  0.3071
60006W        W 3022  28.751   9.490   5.647  0.1754 -0.0201  0.4703
60007W        W 3023  25.584  16.722   8.922  0.1754 -0.3047 -0.0895
60008W        W 3024  33.579  12.131  28.688 -0.1176 -0.0451  0.0495
60009W        W 3025  32.221  31.243  11.351 -0.0197  0.2343 -0.1800
60010W        W 3026   6.500   2.343   4.396  0.0365  0.1054 -0.1500
60011W        W 3027  28.875  16.757  14.721  0.1851  0.2031 -0.0159
60012W        W 3028  28.155   1.804   1.824 -0.0071 -0.0610 -0.0118
60013W        W 3029  32.879  16.139  10.830  0.0565  0.0067 -0.1508
60014W        W 3030  11.124  14.552  22.543  0.1333 -0.0305 -0.0363
60015W        W 3031   1.437   4.456   1.607 -0.0580  0.3716 -0.1786
60016W        W 3032   3.384  19.860  26.836 -0.0604 -0.0312 -0.1272
60017W        W 3033  27.069  10.563  17.318  0.0106  0.3020  0.0049
60018W        W 3034  34.702   7.600   8.248 -0.2556 -0.2167 -0.6753
60019W        W 3035   5.775   7.587   9.841 -0.1109 -0.4078 -0.0023
60020W        W 3036   4.586  28.414   5.503 -0.2708  0.1075 -0.1752
60021W        W 3037  20.774   8.407  19.209  0.4049  0.2776 -0.0668
60022W        W 3038  28.892   5.378   5.388  0.1415  0.0548 -0.2078
60023W        W 3039   1.076   7.348  21.502  0.0885 -0.0411  0.2267
60024W        W 3040  23.221  18.771   7.636 -0.0687 -0.0828  0.2637
60025W        W 3041  32.459  22.559   8.843 -0.0597 -0.3380 -0.0059
60026W        W 3042  30.403  26.930  18.165  0.1688  0.0880 -0.1912
60027W        W 3043  33.103  18.568   5.612 -0.0559  0.0645  0.1706
60028W        W 3044   7.375   4.998  24.693 -0.0191 -0.1048 -0.0255
60029W        W 3045   9.000  27.521   2.704 -0.1129 -0.1555 -0.1983
60030W        W 3046  21.145   2.875  19.996  0.1756  0.0411  0.1533
60031W        W 3047   7.363  30.978   4.379  0.0626  0.2984 -0.0040
60032W        W 3048   9.041   6.247  26.896  0.0999 -0.0108  0.1901
60033W        W 3049   4.539  28.131  20.300  0.1731 -0.1611  0.0293
60034W        W 3050  11.615  18.153   1.391 -0.2298  0.1406 -0.1413
60035W        W 3051  29.553  18.302   8.696 -0.2247 -0.1195 -0.0220
60036W        W 3052   6.557  19.355   1.944  0.0150  0.0995 -0.0236
60037W        W 3053  28.336  20.516   4.387 -0.3076  0.0615 -0.3875
60038W        W 3054  20.053  24.566  23.529  0.0449 -0.2081  0.3453
60039W        W 3055   8.608  26.127   2.077  0.1518 -0.1127 -0.2610
60040W        W 3056  20.376  10.972   2.900 -0.1423 -0.1466 -0.2659
60041W        W 3057  16.758  17.040  20.856 -0.0906 -0.0501 -0.1735
60042W        W 3058   0.274  16.477  26.032 -0.3472  0.0076  0.0322
60043W        W 3059  18.887  26.525  24.766  0.0424 -0.1518  0.1477
60044W        W 3060   6.003  24.682  24.809 -0.2757 -0.0218 -0.0715
60045W        W 3061  32.714  17.799  27.362  0.0626  0.1402 -0.0375
60046W        W 3062  15.249   9.143  16.680  0.1056 -0.1430 -0.0894
60047W        W 3063  28.882  14.898   2.760  0.0625 -0.2027  0.1249
60048W        W 3064  11.476  33.975  18.653 -0.0452  0.3269  0.0742
60049W        W 3065   4.365   2.789  27.004 -0.1515  0.0947 -0.1907
60050W        W 3066   3.286   7.702  18.259 -0.1223  0.0345 -0.0715
60051W        W 3067  29.602  17.883   1.521 -0.3165  0.0828  0.1624
60052W        W 3068  27.628   8.348  18.778 -0.0895  0.0571  0.0873
60053W        W 3069  16.103  14.763  23.292 -0.2926 -0.0914  0.0563
60054W        W 3070  24.394  29.441   8.300 -0.0693 -0.2144  0.1383
60055W        W 3071  30.652  27.749  26.810  0.0225 -0.0824 -0.3030
60056W        W 3072   2.307  25.785   8.369  0.0036  0.1391  0.2473
60057W        W 3073  21.989  11.597  25.239 -0.1256 -0.0970  0.1736
60058W        W 3074  14.252  23.971   8.894 -0.2426 -0.0924 -0.1760
60059W        W 3075  20.507   7.185  18.986  0.2268 -0.2260 -0.1294
60060W        W 3076  17.360   1.657  15.793  0.1210  0.0703  0.0321
60061W        W 3077  20.356  26.109   0.252 -0.0200  0.0460 -0.2135
60062W        W 3078  29.774  18.676  21.047 -0.0375  0.1149  0.1841
60063W        W 3079   6.117   7.462  18.798 -0.3675  0.1930 -0.0055
60064W        W 3080  22.553  18.556  25.892 -0.3009  0.2562 -0.1307
60065W        W 3081  19.577  19.192   4.160 -0.0833  0.0192  0.1776
60066W        W 3082   7.189  13.308  20.597  0.3725  0.1265 -0.1335
60067W        W 3083   1.030  27.124   3.831  0.1567 -0.0461  0.2269
60068W        W 3084   3.511   8.066  15.756 -0.0152  0.2376  0.5109
60069W        W 3085  12.296  23.106   7.161 -0.1227 -0.1367  0.2509
60070W        W 3086   6.685  13.236   2.331 -0.0445  0.0422  0.2176
60071W        W 3087  15.513  11.738  16.804 -0.1449  0.0342 -0.5718
60072W        W 3088   6.895  12.954   7.527 -0.1981 -0.1501  0.1201
60073W        W 3089  28.658  13.815  26.718 -0.0936 -0.1924  0.0138
60074W        W 3090  26.892  11.153   3.548 -0.0976 -0.1127  0.0309
60075W        W 3091  27.183   0.414  24.966 -0.2364 -0.0630  0.0854
60076W        W 3092  24.026   9.562  16.602  0.2422 -0.2578 -0.0902
60077W        W 3093  20.560   7.791  18.828  0.0787 -0.1601  0.1233
60078W        W 3094  28.523  13.673   6.368  0.0888  0.2965  0.1269
60079W        W 3095   9.601  26.477  18.210 -0.2080 -0.4746  0.1185
60080W        W 3096   8.547  14.389   4.101  0.0583  0.1345  0.1239
60081W        W 3097   2.562  27.070  20.770  0.4527 -0.0410 -0.0926
60082W        W 3098  29.685  20.478  24.889  0.1291  0.0369  0.3085
60083W        W 3099   1.435  25.341  19.246 -0.0778 -0.3323  0.1976
60084W        W 3100   6.985  19.030   8.391  0.3671 -0.0071 -0.0886
60085W        W 3101  11.454  21.217  19.532  0.1208 -0.1802  0.0931
60086W        W 3102  27.418  25.300   6.587 -0.0966 -0.2686  0.2462
60087W        W 3103  22.256  13.131   8.386 -0.2174 -0.2491  0.1372
60088W        W 3104  10.514  29.407  23.494 -0.1605  0.0096  0.4412
60089W        W 3105  30.517  33.310  24.748  0.1124 -0.1511 -0.3375
60090W        W 3106  27.902  22.203   7.525 -0.1634  0.0474 -0.1969
60091W        W 3107   1.355   2.728  27.036  0.3535 -0.1553  0.0201
60092W        W 3108  32.815  12.809  22.917 -0.1985  0.3798 -0.1290
60093W        W 3109   5.619  18.243  28.378  0.0631 -0.1532  0.0566
60094W        W 3110  21.793  19.018  29.298  0.2058 -0.0172  0.1464
60095W        W 3111  29.429   9.452  28.062  0.0042 -0.1669 -0.2441
60096W        W 3112   1.256   2.066  17.563 -0.0222 -0.2344 -0.0655
60097W        W 3113  15.893  18.969  27.880  0.3323  0.0059  0.1637
60098W        W 3114  19.750  33.068  21.985 -0.4417 -0.1596 -0.2001
60099W        W 3115   0.304  15.926  19.226  0.3642 -0.2066 -0.3107
60100W        W 3116  12.987   2.801  23.868  0.2847 -0.4080  0.0443
60101W        W 3117  11.794   8.935  19.908  0.0574  0.2567  0.1194
60102W        W 3118  32.051   6.543   6.692  0.2334  0.3806 -0.0472
60103W        W 3119  31.051  11.052   7.992  0.4038 -0.0367 -0.0261
60104W        W 3120  16.262  26.132   3.156 -0.0024 -0.1170  0.0268
60105W        W 3121   4.644   8.419  28.340 -0.2041 -0.2207  0.2799
60106W        W 3122  18.359  27.418  21.022 -0.2759  0.1953  0.1624
60107W        W 3123  27.887   8.892  23.321  0.1532  0.0006 -0.1137
60108W        W 3124  30.852  15.622   8.851 -0.1058 -0.0112 -0.0472
60109W        W 3125  13.083  15.148   3.431  0.0905  0.0418  0.3972
60110W        W 3126   7.023  13.158   2.632  0.1991 -0.1983 -0.0214
60111W        W 3127  33.234  17.009  22.752 -0.2126 -0.0240  0.0977
60112W        W 3128  16.282  17.332   3.334 -0.0258  0.1701  0.0281
60113W        W 3129  23.226  17.885  21.745  0.1782  0.3161  0.2659
60114W        W 3130  16.358  17.554  24.543 -0.0308  0.3325 -0.0859
60115W        W 3131  33.462  19.163  20.640 -0.1087 -0.0417 -0.0011
60116W        W 3132  33.520   1.088  24.631 -0.2552  0.1124 -0.0820
60117W        W 3133   2.693  18.207   7.443 -0.0448  0.4142 -0.3276
60118W        W 3134  28.033   3.361   6.473 -0.1350  0.1397  0.0339
60119W        W 3135  23.263  12.475   2.361 -0.1885 -0.0717  0.1870
60120W        W 3136  28.974  12.714  18.987 -0.0172  0.1334 -0.0935
60121W        W 3137  12.204   7.310   2.999 -0.1760 -0.0302  0.1937
60122W        W 3138  28.597  33.630   8.710 -0.0357  0.1117  0.1104
60123W        W 3139  27.380  21.648  29.315 -0.3187 -0.0409  0.2874
60124W        W 3140  29.774   2.657   4.528  0.1025 -0.3047 -0.1219
60125W        W 3141  14.820  15.863  29.138  0.1293  0.2225 -0.0188
60126W        W 3142  11.179  33.988  21.944 -0.0948  0.2205  0.1533
60127W        W 3143   7.181  25.627  23.280 -0.2306  0.1346  0.1897
60128W        W 3144  34.433   7.981   7.792  0.0474  0.0645 -0.3000
60129W        W 3145   0.309  23.237   5.423 -0.0651 -0.2608 -0.2410
60130W        W 3146  11.611  19.047  15.893 -0.0458 -0.1369 -0.0268
60131W        W 3147   6.902   8.400  25.472 -0.0613 -0.1867  0.0825
60132W        W 3148  13.204  16.007  26.065 -0.1533  0.1431  0.1842
60133W        W 3149  10.552  28.360   9.080  0.3404  0.1178 -0.0906
60134W        W 3150  25.325   5.892  10.011 -0.0602 -0.1722  0.0034
60135W        W 3151  11.145  13.742  25.716 -0.0391  0.5615  0.0259
60136W        W 3152  32.196  14.646   1.388  0.2149  0.0665  0.1930
60137W        W 3153   3.675  11.276  22.606 -0.3702  0.0567  0.2063
60138W        W 3154  14.425  22.554   2.639  0.1849 -0.1607  0.0075
60139W        W 3155  31.724  28.051   8.363 -0.2955  0.0934  0.0938
60140W        W 3156  34.419  29.592  26.960 -0.3219  0.1234 -0.1091
60141W        W 3157  25.587  11.003  14.949  0.0098 -0.1564  0.2206
60142W        W 3158   5.488  34.071  21.584  0.3430 -0.1111 -0.2464
60143W        W 3159   6.875  15.667  13.733 -0.0656 -0.2620 -0.2199
60144W        W 3160  26.241  22.979  21.450  0.7019 -0.2525  0.2527
60145W        W 3161   4.260  11.345   6.547  0.1533  0.0060 -0.3074
60146W        W 3162  33.787  10.235  15.037  0.1080 -0.0300  0.0964
60147W        W 3163  14.315  13.523  25.199 -0.1412  0.2253 -0.2205
60148W        W 3164  19.993   8.037   2.344  0.2085  0.0698 -0.1138
60149W        W 3165  10.755  19.224   3.460 -0.0434  0.2040 -0.2757
60150W        W 3166   0.924  21.428  28.061 -0.0079 -0.0698  0.2796
60151W        W 3167  27.105  20.125  23.442  0.1777 -0.1714  0.0319
60152W        W 3168   8.125  29.614   4.766  0.1414  0.2698 -0.1773
60153W        W 3169   9.305  13.079   5.752 -0.3278  0.2949  0.0182
60154W        W 3170  34.375  13.956   2.739  0.1922  0.1160  0.0056
60155W        W 3171  23.635  25.054   1.185 -0.1161  0.2827  0.1662
60156W        W 3172   7.984  14.384  16.350  0.2228  0.1716 -0.1815
60157W        W 3173  31.911   2.055  23.701 -0.1371  0.0752  0.0825
60158W        W 3174  30.590  31.121   8.777  0.0947 -0.1534 -0.0102
60159W        W 3175  26.914  14.545  28.323 -0.0863  0.0662 -0.3943
60160W        W 3176   4.060   8.134  26.981 -0.2494 -0.1275  0.1033
60161W        W 3177   4.311  24.200   8.316 -0.0057 -0.0023  0.1624
60162W        W 3178  30.531   3.759   0.476  0.1957  0.4351  0.0963
60163W        W 3179  29.323   0.714   8.692  0.2168 -0.1553  0.2958
60164W        W 3180   2.101  18.941  15.095  0.1419 -0.0129 -0.4524
60165W        W 3181  25.739   9.483   2.919 -0.1544 -0.0391 -0.0173
60166W        W 3182  20.224  19.250   1.480  0.0171  0.3695 -0.3356
60167W        W 3183   3.232   8.721  25.947 -0.0308  0.1322  0.5558
60168W        W 3184   3.458  12.256  23.782  0.0315 -0.3237  0.0224
60169W        W 3185   0.315  19.604   4.425 -0.2891  0.2349  0.3930
60170W        W 3186   5.274  26.616   6.132  0.1398  0.1683  0.0378
60171W        W 3187  22.787   3.665   7.886  0.1079  0.4930 -0.3099
60172W        W 3188  27.493   3.219   2.929 -0.1490  0.0519  0.0888
60173W        W 3189  24.883   2.993  16.069  0.1778 -0.7093 -0.0339
60174W        W 3190  32.961   5.975  28.425 -0.1178  0.1304 -0.4408
60175W        W 3191   1.430  17.641   1.274  0.3331 -0.0174 -0.2635
60176W        W 3192  15.174  18.507  28.321 -0.0209 -0.1395  0.2225
60177W        W 3193  10.169  30.448  23.121  0.1317 -0.0912 -0.0572
60178W        W 3194  28.357   4.370   3.073  0.1359 -0.1243 -0.1372
60179W        W 3195   0.387  16.297  10.039 -0.2500  0.0978 -0.0974
60180W        W 3196  31.424  18.647  16.867 -0.0736  0.0380 -0.1803
60181W        W 3197  31.958  33.810  26.227 -0.1779  0.1528 -0.1235
60182W        W 3198   6.746  33.343   1.273  0.1918 -0.0831  0.2754
60183W        W 3199  32.840  31.920   0.588  0.0774 -0.1142 -0.1893
60184W        W 3200   8.872   5.366   7.824 -0.0552 -0.2518  0.0166
60185W        W 3201   9.368  24.480   8.108 -0.0614  0.1554 -0.1489
60186W        W 3202  19.704  24.379  25.544  0.0766  0.1624  0.0229
60187W        W 3203  22.759  21.582  18.397  0.5958 -0.0211  0.0014
60188W        W 3204  23.324  33.906  24.061  0.1593  0.1793  0.1026
60189W        W 3205  13.532   9.131  28.070  0.0917  0.1053 -0.2115
60190W        W 3206   6.043  21.569  24.970 -0.1958  0.0161  0.0351
60191W        W 3207  31.947  24.352  28.384 -0.0758 -0.0325  0.0065
60192W        W 3208  30.586  11.106   3.934  0.0275  0.1790 -0.0279
60193W        W 3209  32.857  32.653   9.879  0.4152 -0.1091 -0.1871
60194W        W 3210   7.320  16.707   2.754 -0.0914 -0.2290 -0.1731
60195W        W 3211   9.418  14.239   9.158  0.1787 -0.0276  0.2041
60196W        W 3212   1.874  12.327  24.712  0.2148  0.0879  0.1303
60197W        W 3213   9.222  29.496   3.578 -0.0519 -0.2697 -0.0172
60198W        W 3214  12.176   6.633   8.517  0.0543  0.1087 -0.0059
60199W        W 3215   8.649  13.832  24.593  0.0448 -0.0971 -0.1154
60200W        W 3216  33.094  17.376  23.212 -0.0178 -0.3268  0.0439
60201W        W 3217   6.647  33.494   2.891 -0.0741 -0.3535  0.0157
60202W        W 3218  12.624  20.195  19.501  0.0471  0.1851  0.0853
60203W        W 3219  25.181   1.750   1.494 -0.0642 -0.1589 -0.3011
60204W        W 3220  32.787   6.716  21.202  0.1688  0.0797 -0.2008
60205W        W 3221   3.762  17.874  18.598 -0.1200  0.0949 -0.3008
60206W        W 3222  31.753   3.367   6.727 -0.1443 -0.1424  0.0874
60207W        W 3223  32.771  11.881   8.152  0.2055 -0.0161  0.2004
60208W        W 3224  27.617  11.737  28.333 -0.0745  0.2553 -0.0841
60209W        W 3225   3.824  24.192   7.284  0.2824 -0.0743  0.1334
60210W        W 3226   8.454  18.469  28.244 -0.0774  0.0980  0.0013
60211W        W 3227   8.130  18.036  20.273  0.2090  0.1679 -0.1514
60212W        W 3228  24.226  18.490  28.166  0.0092  0.4539 -0.0826
60213W        W 3229  17.359  14.887  27.561 -0.0595 -0.0536  0.0074
60214W        W 3230  31.487  23.111   9.462  0.1510  0.0460 -0.2473
60215W        W 3231   0.115  27.637  26.229  0.0060 -0.3025  0.2638
60216W        W 3232  13.743  18.691   3.718  0.3241 -0.1224  0.2414
60217W        W 3233  33.293  16.379   7.500 -0.0752 -0.0167 -0.0229
60218W        W 3234  34.424   1.207   6.347  0.0965  0.3157 -0.0627
60219W        W 3235   2.085  33.334  24.652 -0.0410 -0.1712 -0.1414
60220W        W 3236  16.260  13.622   5.781  0.1680 -0.3125 -0.0088
60221W        W 3237  31.163   2.162  26.739  0.3001  0.2399 -0.6012
60222W        W 3238   5.832  15.920   6.304  0.0681 -0.3106 -0.3938
60223W        W 3239  30.446   3.764  24.786 -0.2685  0.1121 -0.1359
60224W        W 3240   4.048   4.906  26.290 -0.3362 -0.0550  0.0698
60225W        W 3241  25.429  28.899  18.612 -0.0389 -0.0330  0.0708
60226W        W 3242   7.720  26.693  25.673 -0.1099 -0.2455  0.2039
60227W        W 3243   5.936  15.193   5.205  0.2000 -0.0826  0.0593
60228W        W 3244   4.925  28.736   5.589  0.1718 -0.1596 -0.1096
60229W        W 3245   6.478  12.428   3.834 -0.4304  0.2158  0.0668
60230W        W 3246   9.329  24.080  12.420  0.0803  0.0254 -0.0380
60231W        W 3247  22.666  16.857   0.023 -0.2202 -0.0521 -0.1954
60232W        W 3248  13.424  18.559  28.764  0.1326  0.3261 -0.1608
60233W        W 3249   9.185  13.052  26.407  0.6349 -0.4236  0.2116
60234W        W 3250  28.825  31.310  19.015  0.1239  0.1954  0.0948
60235W        W 3251   0.126   9.684   5.341  0.0684 -0.0725  0.1992
60236W        W 3252  25.320  33.210  27.335  0.1944 -0.0019 -0.4148
60237W        W 3253  14.725   6.193   3.989 -0.1810  0.1512 -0.0736
60238W        W 3254   9.681  26.997  28.639  0.1650  0.1275  0.1750
60239W        W 3255  11.151  17.219  17.742 -0.3139  0.1075  0.0917
60240W        W 3256  10.227  13.193   1.818  0.0102  0.0664 -0.0442
60241W        W 3257  10.920  17.412   3.410 -0.1524 -0.0079 -0.1339
60242W        W 3258  30.326  20.077   6.617 -0.0965 -0.0337  0.0002
60243W        W 3259   3.480  27.813   1.104  0.0655 -0.3637 -0.1492
60244W        W 3260   1.137  15.335  20.520  0.0511 -0.2474 -0.3301
60245W        W 3261   3.748  22.303  28.214 -0.1502 -0.0675 -0.2546
60246W        W 3262  27.681   7.210  15.862  0.1788  0.2389  0.0044
60247W        W 3263  25.006  15.724   3.868 -0.0250 -0.0910 -0.0798
60248W        W 3264  23.887  18.591  26.275  0.1598  0.0233  0.0714
60249W        W 3265   4.016  12.022  20.623 -0.4879 -0.1055  0.0603
60250W        W 3266   0.839  11.353   0.937 -0.1962 -0.0388 -0.0510
60251W        W 3267   9.913  13.500  23.390  0.0744 -0.2457  0.0963
60252W        W 3268  32.523  20.977   9.559  0.1508 -0.2554 -0.2036
60253W        W 3269   0.183  21.993  26.861 -0.2635 -0.4079  0.0648
60254W        W 3270  29.567  26.045  24.471  0.1486  0.1615  0.0709
60255W        W 3271  11.591  15.160   8.555 -0.1308 -0.0720  0.0860
60256W        W 3272  32.065  23.445   2.928  0.0930  0.0411  0.0128
60257W        W 3273   8.828  15.344  22.496  0.1056 -0.0857 -0.0520
60258W        W 3274   4.181  32.808   9.177 -0.0601  0.1501 -0.1279
60259W        W 3275  17.070  10.437   8.814  0.2890 -0.3189  0.1180
60260W        W 3276   5.414   0.072   9.831 -0.1600  0.1792 -0.1752
60261W        W 3277   0.245   9.457   6.435  0.1571  0.0842 -0.0844
60262W        W 3278  34.488   6.549   0.596  0.1801  0.0810  0.0137
60263W        W 3279  13.848   9.581  16.970  0.0486  0.3545  0.0108
60264W        W 3280  15.101  21.903   4.973 -0.2252  0.1617 -0.0025
60265W        W 3281  28.227  20.907  15.343  0.1202 -0.0314 -0.0202
60266W        W 3282  29.698  24.993  26.624  0.2363  0.2471 -0.0804
60267W        W 3283   0.096  11.776  24.955  0.0366 -0.1608  0.2534
60268W        W 3284   3.631  29.368   5.915 -0.0489 -0.0842 -0.1275
60269W        W 3285   5.681  16.093   5.042 -0.1283 -0.0012 -0.0975
60270W        W 3286  33.855   0.850  29.259 -0.3377 -0.0771 -0.7857
60271W        W 3287  24.879   9.384   5.500 -0.0603 -0.0630 -0.1943
60272W        W 3288  29.390  11.976  18.240 -0.0871 -0.1314  0.2160
60273W        W 3289  24.712  14.992   8.336  0.0808 -0.1036  0.0263
60274W        W 3290   7.389  15.767  23.767 -0.2848 -0.0376  0.3839
60275W        W 3291  30.421   9.130  18.585 -0.3047 -0.4702 -0.1768
60276W        W 3292  12.323  11.715   1.810 -0.0626  0.0565  0.1120
60277W        W 3293  28.001  29.120   9.265  0.2078  0.0055  0.0608
60278W        W 3294  33.790  20.890  10.048  0.2075 -0.2084 -0.2368
60279W        W 3295   7.168  25.425   7.876 -0.1913 -0.0053 -0.2769
60280W        W 3296  29.314  17.044  26.597 -0.1124 -0.2005  0.0309
60281W        W 3297  27.812  17.111   3.163  0.1326  0.2359  0.0402
60282W        W 3298  25.676  13.701   6.285  0.1559 -0.1209  0.1507
60283W        W 3299  17.279  11.447  28.751  0.0462  0.0536  0.0117
60284W        W 3300  31.170  29.022  19.759 -0.2421 -0.0582 -0.0149
60285W        W 3301  10.244  25.590   6.777 -0.0558 -0.2728 -0.2506
60286W        W 3302   3.794  20.576  14.728 -0.1129 -0.0463 -0.2119
60287W        W 3303   3.702  12.894   9.749 -0.0785 -0.0944  0.0257
60288W        W 3304  12.186  15.463  28.799  0.0077 -0.3845  0.3479
60289W        W 3305  27.337  20.366   1.143  0.1635 -0.0348 -0.0036
60290W        W 3306  18.848  14.580  27.125 -0.1585 -0.0304  0.0203
60291W        W 3307  10.757  22.245   8.470  0.1886 -0.0624 -0.0171
60292W        W 3308  28.016  25.732  16.600  0.0305 -0.1757 -0.0949
60293W        W 3309  17.737  12.983   0.502  0.1783 -0.1379  0.2976
60294W        W 3310   8.526  22.423   5.413 -0.1689  0.2884 -0.1517
60295W        W 3311   4.672  16.255   3.550  0.0732  0.1004 -0.0646
60296W        W 3312  27.427  16.490  15.310 -0.0932 -0.2010 -0.2304
60297W        W 3313  26.467   8.232   5.630 -0.1243 -0.5000 -0.2500
60298W        W 3314   6.510  16.935  26.893  0.0016 -0.0386  0.0030
60299W        W 3315   0.865  15.955   3.454  0.0179  0.1196  0.1048
60300W        W 3316   3.154  30.923  27.721  0.2226  0.0611  0.1443
60301W        W 3317  30.576   4.093   7.441 -0.3469 -0.3013 -0.3033
60302W        W 3318   5.821  24.892   3.492  0.0447 -0.5182 -0.0022
60303W        W 3319  29.586  18.179  24.730  0.0111  0.0231  0.0388
60304W        W 3320  31.648  14.853   5.300  0.0050  0.4724 -0.3099
60305W        W 3321   8.442  15.017   7.206 -0.0242 -0.0172 -0.1042
60306W        W 3322  34.352  10.622   6.151 -0.0196  0.4156  0.0847
60307W        W 3323  27.811   8.078  10.101 -0.2141  0.0237 -0.0909
60308W        W 3324  16.414  25.990  15.274 -0.0296  0.1566  0.1248
60309W        W 3325  28.233  29.888  12.272 -0.0555  0.0322  0.1635
60310W        W 3326  30.231  14.420   9.826 -0.0707  0.1485  0.0583
60311W        W 3327   6.599  13.036  21.643 -0.1109 -0.1312  0.3154
60312W        W 3328  18.349  23.725  28.225 -0.1871 -0.0083 -0.3231
60313W        W 3329  25.957  24.886   4.605  0.3580  0.0217  0.2256
60314W        W 3330   2.748   9.733  15.119  0.3858 -0.0746 -0.1263
60315W        W 3331  11.634  12.449   4.068 -0.1593  0.0651 -0.4496
60316W        W 3332   1.578  11.618   7.483  0.0725 -0.2211  0.4642
60317W        W 3333  14.316   3.671  27.311  0.2550  0.2111 -0.0999
60318W        W 3334  28.406  21.976   8.833  0.2948  0.0783 -0.2740
60319W        W 3335  16.037  25.799   2.325  0.1472 -0.0005 -0.0715
60320W        W 3336  25.924  14.742  17.206 -0.3011 -0.4157  0.2626
60321W        W 3337   3.440  27.716  16.312 -0.1649 -0.0057 -0.1158
60322W        W 3338  25.835  10.833   1.072 -0.0247  0.1866 -0.2301
60323W        W 3339   4.196   2.769   3.932  0.0843 -0.4691  0.0097
60324W        W 3340   3.506  20.112   6.880 -0.3112  0.1540 -0.2244
60325W        W 3341  32.739   3.975  24.295 -0.4173 -0.0140 -0.1721
60326W        W 3342   7.074  27.786  23.635  0.0863 -0.0301  0.1402
60327W        W 3343  19.376  13.436   4.095 -0.1267  0.0949 -0.1660
60328W        W 3344  12.674  17.588  19.991 -0.1244 -0.0067  0.0528
60329W        W 3345  20.549   0.080   5.977  0.0083 -0.1465 -0.1666
60330W        W 3346   4.275  33.811  28.135  0.1144 -0.0503  0.0030
60331W        W 3347  12.566  18.097  24.703  0.0870  0.2466 -0.1287
60332W        W 3348  14.331   2.776   5.700 -0.1654 -0.1800 -0.1442
60333W        W 3349   8.781  18.460  27.521 -0.3093 -0.0200 -0.0577
60334W        W 3350  12.590  26.745   3.662  0.2149 -0.0112  0.2490
60335W        W 3351  33.853  16.572  25.485  0.0342  0.0728  0.2646
60336W        W 3352   8.286   6.248   9.356 -0.0425 -0.2414  0.0289
60337W        W 3353   7.913  12.375  23.977 -0.0423  0.2191 -0.0137
60338W        W 3354   2.277  18.447   8.250 -0.1090 -0.0648 -0.1678
60339W        W 3355  34.135  20.158   7.207  0.0448  0.3818  0.1608
60340W        W 3356  12.918  23.322  22.197 -0.0719  0.1658  0.1916
60341W        W 3357   3.879  22.176   8.820 -0.2357 -0.0303  0.5028
60342W        W 3358   7.656  16.115   7.769  0.2928 -0.0946 -0.2045
60343W        W 3359  30.966  13.357  27.449 -0.0124  0.1477 -0.1573
60344W        W 3360  29.630  31.039  27.950 -0.3266  0.0807  0.1507
60345W        W 3361  32.975  10.243   5.253  0.0415  0.3229 -0.0520
60346W        W 3362  33.303  10.686  29.279  0.1720 -0.0162 -0.2063
60347W        W 3363  15.758  23.682  24.004  0.0211  0.2752  0.0292
60348W        W 3364  26.421  25.228  15.432 -0.2064  0.0021 -0.1310
60349W        W 3365  17.213  29.174   1.662 -0.2756 -0.0093 -0.1608
60350W        W 3366   6.079   3.360  27.444 -0.1315 -0.1492 -0.0327
60351W        W 3367  26.651  26.462  18.886  0.1985  0.0888  0.2201
60352W        W 3368  13.019  13.388  21.926 -0.1423  0.0248  0.0796
60353W        W 3369  30.576  14.406   1.432 -0.0631  0.0402  0.3692
60354W        W 3370  33.482  21.001   0.104  0.0194  0.1060 -0.0430
60355W        W 3371   7.131  15.261   0.848  0.0098 -0.0851  0.2718
60356W        W 3372   5.610  21.637   8.365  0.1550 -0.2634  0.2354
60357W        W 3373   4.934  25.130   3.970  0.0925 -0.0901 -0.2360
60358W        W 3374   7.480  23.335   3.310  0.2289 -0.1472  0.3201
60359W        W 3375   8.049  21.777   5.823 -0.0292 -0.1233  0.0901
60360W        W 3376  21.810  12.347   1.484  0.1389  0.3082 -0.2764
60361W        W 3377   2.757  13.799   7.808  0.0974  0.0003 -0.1048
60362W        W 3378  28.527  23.920  25.205 -0.0664  0.0771 -0.0252
60363W        W 3379  32.146   9.204  22.977  0.2517 -0.0586 -0.2262
60364W        W 3380  24.668  20.288   9.033  0.0922  0.1486 -0.2008
60365W        W 3381   9.265  17.899  20.365 -0.0163 -0.0071  0.0363
60366W        W 3382  27.796  22.220   4.699  0.1112  0.0477  0.1400
60367W        W 3383  33.928  33.376   6.621 -0.0144  0.1147  0.0952
60368W        W 3384  15.873  29.893   8.290 -0.0552 -0.3322  0.0857
60369W        W 3385   8.281  23.346  26.157 -0.0464 -0.1347  0.1897
60370W        W 3386   6.093  10.178   5.067  0.3223  0.0702  0.2731
60371W        W 3387  10.349  17.973   7.564 -0.0055 -0.5315  0.1322
60372W        W 3388  17.651  31.530   9.221  0.0595 -0.1662  0.2298
60373W        W 3389   9.456  26.616  27.274  0.0434 -0.3327 -0.3181
60374W        W 3390   0.791   5.689   0.234 -0.2856 -0.2869 -0.0725
60375W        W 3391  17.544  25.307  25.316 -0.3226  0.1198  0.1765
60376W        W 3392  31.800  13.340   1.903 -0.1084  0.1258  0.0327
60377W        W 3393   2.636  33.973   4.313 -0.1345 -0.0107 -0.0871
60378W        W 3394   1.147  13.745  27.731  0.2442  0.0583  0.0085
60379W        W 3395  27.474  29.789  11.078 -0.0959 -0.2679  0.1885
60380W        W 3396   8.364  22.134  27.489  0.1824 -0.0451 -0.0318
60381W        W 3397  28.870  18.330   9.677  0.0722 -0.1704  0.2625
60382W        W 3398   9.245  13.644   4.838  0.0336 -0.1663 -0.2246
60383W        W 3399  29.233   0.525  29.216  0.0884 -0.0934  0.0028
60384W        W 3400  14.474   1.142  10.133  0.0708 -0.0401  0.2313
60385W        W 3401  25.735   9.895   3.763 -0.0494  0.0686 -0.1810
60386W        W 3402   3.522   1.957   7.757  0.2790  0.0051  0.3438
60387W        W 3403  26.678  29.921   2.139 -0.4242  0.4854  0.0514
60388W        W 3404  34.222  27.147   7.268  0.1669  0.2512 -0.1624
60389W        W 3405  17.011  21.925   7.171  0.0380 -0.0291 -0.2518
60390W        W 3406   5.969  11.630   6.089  0.0780 -0.0086  0.0686
60391W        W 3407   2.689  10.693  24.041  0.1242 -0.0378  0.2886
60392W        W 3408  33.812   1.512   3.943 -0.0332  0.0550 -0.2748
60393W        W 3409  12.367  25.360   9.404  0.0830  0.0283  0.1585
60394W        W 3410  28.836  28.228   6.538 -0.1574 -0.0151 -0.0518
60395W        W 3411   3.201  17.730   6.639  0.0820 -0.0432 -0.2052
60396W        W 3412   5.718  21.092   4.428  0.0345 -0.2010  0.1780
60397W        W 3413  30.102  14.875  27.642 -0.0620 -0.0716 -0.3126
60398W        W 3414  14.687  17.823  12.518  0.1652 -0.0524 -0.2892
60399W        W 3415  11.500  21.766   6.919  0.4227 -0.2038 -0.0341
60400W        W 3416  32.031  20.735   0.193 -0.3575 -0.2477 -0.0093
60401W        W 3417   6.994  20.357  26.589 -0.4888  0.3265  0.1503
60402W        W 3418   7.887  20.990  23.892  0.2228  0.0156 -0.2029
60403W        W 3419   2.987   4.884   8.067  0.0691 -0.1979  0.2082
60404W        W 3420  12.836   3.133  22.157 -0.2183 -0.0723 -0.2366
60405W        W 3421  11.185   8.861   4.196  0.5031 -0.2088  0.2515
60406W        W 3422  13.744  19.354  23.908 -0.1740  0.0054 -0.1319
60407W        W 3423  23.088  30.336   4.694 -0.0177 -0.0523  0.3486
60408W        W 3424   2.998  25.584   4.896 -0.1371  0.0673  0.0354
60409W        W 3425  10.337  17.113   3.634 -0.0395  0.0079  0.2500
60410W        W 3426  28.772  24.886   9.219  0.0581  0.0701 -0.1504
60411W        W 3427  16.611  15.824   4.259  0.0027  0.0610 -0.1237
60412W        W 3428   4.714   3.690   9.818 -0.0975 -0.2768  0.3360
60413W        W 3429  28.258  23.745   5.732 -0.1299 -0.0434  0.1632
60414W        W 3430  14.587  11.169  17.785  0.1145  0.1562  0.0594
60415W        W 3431  34.313  26.691   0.088  0.1489 -0.0368  0.3013
60416W        W 3432  16.049  17.050   5.489 -0.1357  0.2158 -0.0388
60417W        W 3433   5.651  28.730   7.026 -0.2934  0.1623 -0.2539
60418W        W 3434   1.200  19.084   6.983  0.0149  0.1527 -0.3327
60419W        W 3435  30.202  19.198  19.141  0.6848  0.3047  0.0071
60420W        W 3436   2.459  20.788   4.781  0.2598  0.2011  0.1867
60421W        W 3437  23.543  21.640  27.232 -0.0139 -0.0378 -0.0181
60422W        W 3438   9.272  31.546   3.203 -0.1037 -0.0337  0.0888
60423W        W 3439  32.120   2.690   4.667 -0.0270  0.0596 -0.0759
60424W        W 3440  28.561  23.367  16.908  0.4454  0.0437 -0.1484
60425W        W 3441  20.864  21.014   8.483  0.4215  0.0181  0.0919
60426W        W 3442  25.963  19.095   7.024  0.1063 -0.0309  0.1403
60427W        W 3443  34.252  25.659   3.410  0.1715  0.1062 -0.2004
60428W        W 3444  31.105   8.898  19.775  0.2958  0.3112  0.0795
60429W        W 3445  15.487  15.396   7.923 -0.0540  0.1257 -0.1406
60430W        W 3446  28.588   9.110   8.272  0.1470  0.0202  0.0582
60431W        W 3447  23.716  12.154   3.246 -0.0459  0.1028 -0.0975
60432W        W 3448  14.720  25.983   4.113  0.2038  0.2989  0.2637
60433W        W 3449   5.554  19.778   7.938  0.1175  0.0574  0.0622
60434W        W 3450   9.528   0.280   7.781 -0.1764  0.0931  0.0500
60435W        W 3451   9.050  14.143  27.541 -0.0135 -0.0656 -0.1579
60436W        W 3452  26.955  16.204   4.854 -0.1606  0.0598 -0.1629
60437W        W 3453  11.234  19.431  28.577 -0.1434  0.2512 -0.0083
60438W        W 3454  31.659  18.515  17.724 -0.0863  0.1555 -0.1555
60439W        W 3455   1.384  18.428   6.815 -0.1601 -0.0933  0.0081
60440W        W 3456  20.910   7.013   9.079 -0.1350 -0.0612  0.0058
60441W        W 3457  11.699   0.897   7.279 -0.3150 -0.2500  0.1721
60442W        W 3458  26.039  14.583   3.531  0.0340  0.1527 -0.0539
60443W        W 3459  32.909  31.218  26.986  0.0798 -0.0895 -0.0904
60444W        W 3460  13.176  12.392   3.652  0.0043 -0.0690  0.0136
60445W        W 3461   7.168  29.697   7.035  0.2435 -0.1085 -0.1461
60446W        W 3462  21.189  29.667  19.070 -0.0576  0.0085  0.0270
60447W        W 3463  13.740  26.976  19.786 -0.0154 -0.0377  0.2319
60448W        W 3464  32.714  26.807  15.222  0.1093  0.2120  0.3414
60449W        W 3465   4.674  29.328   7.536 -0.1404  0.2818 -0.2371
60450W        W 3466   3.296  27.488  28.495  0.1183 -0.0923  0.4048
60451W        W 3467  34.052  22.419  28.189 -0.1506 -0.0886 -0.4668
60452W        W 3468  21.130  19.189  28.409  0.1162 -0.0280  0.0365
60453W        W 3469   9.533  19.837   8.386 -0.0727  0.2023  0.1876
60454W        W 3470   8.033   7.236   7.707 -0.1629 -0.0805 -0.2740
60455W        W 3471  17.855  12.091   7.716  0.0590  0.1151  0.0906
60456W        W 3472  11.136  18.957   0.208 -0.1510  0.3258 -0.1880
60457W        W 3473  15.697   9.767   8.255  0.0702 -0.1705  0.2166
60458W        W 3474  25.673  17.085  28.696  0.0045 -0.0209  0.4685
60459W        W 3475   2.877  19.286   3.898 -0.1071 -0.0486 -0.0597
60460W        W 3476  17.166  14.418  20.261 -0.0404 -0.0145  0.2063
60461W        W 3477  32.238  29.727   7.828  0.0781 -0.1553  0.0065
60462W        W 3478  25.596  32.450  22.985 -0.0121  0.0036 -0.1846
60463W        W 3479  17.664  18.359   6.021 -0.0610  0.3003 -0.1442
60464W        W 3480   8.031  23.784   8.833  0.3174  0.1641  0.2942
60465W        W 3481  29.265  15.197   1.333  0.2720  0.0303  0.0011
60466W        W 3482  34.778   8.635  21.630 -0.3291  0.1486 -0.1511
60467W        W 3483  13.009  20.063  27.360 -0.0070 -0.3438 -0.0982
60468W        W 3484  31.635  13.890   8.051 -0.2202  0.2537 -0.1600
60469W        W 3485  33.581  23.832   8.392  0.1165 -0.0618 -0.2574
60470W        W 3486   8.236   8.687   5.919 -0.0955  0.1566  0.1190
60471W        W 3487   0.522  17.460   1.711  0.3451 -0.0280  0.0453
60472W        W 3488   6.214  10.680   0.350  0.1542 -0.0337 -0.1206
60473W        W 3489   5.213  14.467   5.966  0.2436 -0.0024  0.4617
60474W        W 3490  14.289  22.574  16.077 -0.0757  0.3935 -0.3077
60475W        W 3491   9.111   2.050   6.494  0.2024 -0.0151 -0.2229
60476W        W 3492   3.003  13.855   8.667  0.3313  0.3379  0.1353
60477W        W 3493  21.790  11.365  27.884  0.0266  0.2533  0.0349
60478W        W 3494   1.945  14.993   8.972  0.0418 -0.1323  0.0138
60479W        W 3495  17.864   3.571  28.426  0.2212  0.4342  0.1057
60480W        W 3496  33.410  10.047   1.377  0.0646  0.2158  0.1022
60481W        W 3497  24.513  30.660  20.456  0.0172 -0.0540 -0.1372
60482W        W 3498  32.882  25.411  26.887  0.0711  0.0013 -0.4723
60483W        W 3499   4.615  26.457   7.891  0.0137 -0.1269 -0.0296
60484W        W 3500   7.752  15.633   4.279 -0.0498  0.0556  0.0534
60485W        W 3501  33.412  20.187  11.167 -0.2272 -0.1806 -0.1590
60486W        W 3502  12.255   1.253  24.513 -0.1444  0.3421 -0.3224
60487W        W 3503  31.880  11.140  27.175  0.0061 -0.3253  0.1775
60488W        W 3504  27.670  32.422   1.499  0.4082 -0.1925  0.1788
60489W        W 3505   7.165  25.731   1.539 -0.1209  0.1099  0.0660
60490W        W 3506  15.642  13.359  13.662 -0.0703  0.3221 -0.0746
60491W        W 3507  16.182  13.514  24.955 -0.0062  0.1451  0.1698
60492W        W 3508  10.223  16.262   8.418 -0.1770  0.3136  0.1841
60493W        W 3509   2.876  16.449  22.888 -0.0756  0.0309  0.1125
60494W        W 3510   3.653  18.823   8.051  0.0986 -0.2965  0.0349
60495W        W 3511  13.988  22.834   4.348 -0.0004 -0.6303  0.2317
60496W        W 3512   0.298  17.249   2.069  0.2229 -0.2604 -0.1794
60497W        W 3513   1.098  28.457   4.112 -0.0984 -0.0414 -0.0610
60498W        W 3514   7.743  10.538   9.112  0.1413 -0.2681  0.1454
60499W        W 3515   6.041  22.468   8.138  0.1137 -0.0791  0.0106
60500W        W 3516  28.971  18.279  25.506  0.2770  0.1278  0.0052
60501W        W 3517   3.338  15.899   1.801  0.0736 -0.0057 -0.0319
60502W        W 3518   0.594  18.452   9.465  0.2462 -0.0132  0.1596
60503W        W 3519  25.611  23.036   2.750  0.2146  0.0787  0.1716
60504W        W 3520  29.681  11.156   3.417 -0.0865  0.1524  0.1009
60505W        W 3521   4.813  10.271   2.497  0.0025  0.0912 -0.4573
60506W        W 3522   7.996  23.651  28.613 -0.2029  0.0955 -0.2963
60507W        W 3523   1.557  16.479  25.623 -0.2843 -0.1086 -0.0911
60508W        W 3524  30.417  13.456   1.225 -0.0520 -0.0084  0.2537
60509W        W 3525   7.167  16.368  26.143 -0.0012 -0.1365 -0.4284
60510W        W 3526   7.054  10.527   6.031 -0.0541  0.0033  0.0405
60511W        W 3527   4.062  15.224  21.933 -0.2223 -0.1811  0.2491
60512W        W 3528  20.160   9.973   8.141  0.1567 -0.1876  0.0846
60513W        W 3529  22.067   6.858  20.188 -0.1596 -0.0804  0.0842
60514W        W 3530  22.265   4.177   0.934  0.0524  0.0196  0.1661
60515W        W 3531  24.892  25.307  24.750 -0.0569 -0.2678 -0.3803
60516W        W 3532   4.101  11.841  28.907 -0.0540 -0.1318 -0.2737
60517W        W 3533   0.100   8.755   9.094 -0.1502  0.2915  0.1999
60518W        W 3534   4.469  18.673   8.811  0.0240  0.3887 -0.1224
60519W        W 3535  30.569  25.090   0.888 -0.1029 -0.0581  0.0037
60520W        W 3536   9.430  17.075  19.700  0.2745 -0.0117  0.1033
60521W        W 3537  11.286  12.616  24.186 -0.2167  0.0657  0.0611
60522W        W 3538   1.827  11.654  27.742 -0.0521 -0.0310 -0.2602
60523W        W 3539   4.395   9.596  28.959  0.1669 -0.1458 -0.2196
60524W        W 3540  30.605  16.228   0.444 -0.2599  0.2981 -0.2436
60525W        W 3541  14.187  19.067   6.625  0.0079 -0.0702 -0.0280
60526W        W 3542  32.090  26.066   5.259 -0.2104  0.2379 -0.2430
60527W        W 3543  16.062  15.159  14.880  0.1517  0.3579  0.1217
60528W        W 3544   6.713  12.247  24.652  0.0775  0.2948  0.0565
60529W        W 3545   7.459   3.782  22.126 -0.3839  0.0019 -0.0018
60530W        W 3546  16.462  21.413   7.993 -0.2373  0.1584  0.0881
60531W        W 3547  24.046  24.123  28.332  0.0154 -0.2731 -0.2981
60532W        W 3548   0.805  11.317  28.333  0.0700  0.1191  0.1133
60533W        W 3549  31.422  14.062  20.914  0.0575  0.1718 -0.4194
60534W        W 3550   1.427   7.064   9.241 -0.2925 -0.1082  0.0538
60535W        W 3551   7.888  18.550   2.023  0.1037 -0.1428  0.0078
60536W        W 3552   7.786  32.646   8.621 -0.0909 -0.0310  0.1509
60537W        W 3553  23.520  26.018   8.090  0.1739 -0.0986 -0.1925
60538W        W 3554   8.362  25.947  16.931 -0.0652  0.2552  0.0666
60539W        W 3555  30.390   8.493  17.593 -0.2288  0.1516  0.0352
60540W        W 3556  34.505   1.541   1.044  0.2929  0.2195  0.0198
60541W        W 3557   5.680  26.831  27.804  0.1650 -0.3972  0.0547
60542W        W 3558   3.290   2.198  26.460  0.0069  0.1442 -0.0398
60543W        W 3559   6.658  19.680   4.587 -0.1559  0.0246  0.1516
60544W        W 3560  32.234  20.709  10.145 -0.2338  0.0081  0.0525
60545W        W 3561  19.247  32.811   9.564 -0.2248 -0.0562 -0.2899
60546W        W 3562   8.714   6.847  16.306  0.2567 -0.1605  0.1153
60547W        W 3563   4.297  17.195  25.603  0.1429 -0.1962  0.0909
60548W        W 3564  28.569  26.648   1.265  0.0620  0.0926  0.1209
60549W        W 3565   9.376  14.119   2.139 -0.1338 -0.0200  0.1526
60550W        W 3566  30.789   8.031  26.431 -0.1232 -0.1030 -0.2471
60551W        W 3567   5.444  15.212   5.352  0.2448  0.2012  0.2947
60552W        W 3568  34.212  31.247   9.430 -0.0465 -0.0230  0.1214
60553W        W 3569  25.783   0.868   7.323  0.0473 -0.1820  0.1185
60554W        W 3570  33.534  16.411   0.610 -0.0800 -0.0254 -0.3616
60555W        W 3571  26.433  16.617  25.985  0.0343 -0.3148  0.0581
60556W        W 3572  17.392  10.676   6.915  0.2265  0.2995 -0.0034
60557W        W 3573  15.127   0.434  16.801 -0.0634  0.0951 -0.0827
60558W        W 3574  22.108  22.320   6.790 -0.2061  0.0609 -0.1555
60559W        W 3575   0.722  30.399  22.728 -0.1050  0.0596  0.0199
60560W        W 3576  29.870  10.696   2.833 -0.1584  0.1983 -0.0550
60561W        W 3577  26.114  21.936   2.544 -0.0500  0.0727 -0.0158
60562W        W 3578  31.131  16.561   2.695 -0.1320 -0.1974 -0.1077
60563W        W 3579   2.311  22.030  10.028 -0.3110 -0.3762 -0.0693
60564W        W 3580   0.108   8.342   7.054 -0.0033 -0.1824  0.0154
60565W        W 3581  10.043  12.613   5.825 -0.4222  0.2209  0.0669
60566W        W 3582  22.122  25.532  24.987 -0.0981  0.0333  0.1230
60567W        W 3583   2.471  21.056   2.215  0.0706 -0.3270 -0.1000
60568W        W 3584   6.320  29.990   0.239 -0.2795  0.2252 -0.1612
60569W        W 3585  33.409  23.572   7.126  0.1205  0.1242 -0.0595
60570W        W 3586   1.171  22.202  16.926 -0.0695  0.2117 -0.2370
60571W        W 3587   7.193  23.265   2.546 -0.0563  0.0116  0.0457
60572W        W 3588  15.089   5.904  28.127 -0.2155  0.1019  0.1340
60573W        W 3589   0.519  15.010   3.284 -0.1449 -0.0737  0.1161
60574W        W 3590   0.735  27.815   5.972  0.1319  0.0965 -0.2439
60575W        W 3591   3.269  16.624   0.373  0.0514 -0.0557 -0.1085
60576W        W 3592  10.282   3.526   9.856 -0.0824 -0.1333  0.1640
60577W        W 3593  30.826  18.793  22.784 -0.1115 -0.0708  0.0744
60578W        W 3594  31.275  25.422  11.212 -0.0579  0.2634  0.3296
60579W        W 3595  11.517  14.821  13.483 -0.0838  0.2323 -0.1015
60580W        W 3596  13.615  25.475  23.736 -0.0143  0.1930  0.1591
60581W        W 3597   6.237  13.888   8.773 -0.1712 -0.0625  0.4485
60582W        W 3598   7.152  19.330   2.003  0.0257 -0.0587  0.1240
60583W        W 3599  33.733  21.283  19.921  0.0038 -0.1209 -0.0613
60584W        W 3600  13.756  15.141  22.532 -0.2073  0.0354  0.0119
60585W        W 3601   5.805  12.505  21.804  0.0306  0.0704  0.0578
60586W        W 3602  29.898  21.676  24.171  0.3687  0.0250  0.1041
60587W        W 3603   7.893  17.736   0.819 -0.0439  0.0431 -0.0264
60588W        W 3604  18.326  14.029   5.292 -0.0698 -0.1222  0.0483
60589W        W 3605  10.992  12.124   7.987 -0.1465  0.0843 -0.4250
60590W        W 3606  31.311  14.220  25.136 -0.1333 -0.0440  0.1010
60591W        W 3607  34.757   7.697   5.006  0.2027  0.2318 -0.3024
60592W        W 3608   8.612   4.057  10.048 -0.2141  0.3007 -0.0473
60593W        W 3609   3.807  14.706   3.166 -0.0439  0.0468 -0.1324
60594W        W 3610  32.465  13.389   0.036 -0.1710 -0.1313  0.0431
60595W        W 3611  13.566   9.633  20.273 -0.2137  0.1743  0.2115
60596W        W 3612  28.122  13.229   0.055  0.4436  0.0075 -0.1127
60597W        W 3613  16.362  32.059   6.465  0.0584  0.1871 -0.1089
60598W        W 3614  11.443  13.370   3.850 -0.0697  0.0523  0.0663
60599W        W 3615  34.684   8.638  24.126  0.2303 -0.0119 -0.1307
60600W        W 3616   0.127  20.142  28.974 -0.0685 -0.4692 -0.1458
60601W        W 3617   0.948   0.704  26.607  0.1160  0.0870  0.0988
60602W        W 3618   3.156   6.648  26.224 -0.2031  0.0949 -0.2917
60603W        W 3619   3.240  15.816  23.421 -0.1054  0.1888 -0.2123
60604W        W 3620  30.417  12.645  19.197 -0.0481  0.0181 -0.0457
60605W        W 3621  17.237  14.557   5.528  0.2293  0.0462 -0.2815
60606W        W 3622  27.133  32.853   1.943  0.0239 -0.1603 -0.3960
60607W        W 3623  29.007  16.960   0.120  0.0330 -0.2352  0.4203
60608W        W 3624   6.844  21.744   8.385 -0.0699  0.2737  0.1083
60609W        W 3625   9.927  21.160   5.900  0.0975 -0.1212 -0.1055
60610W        W 3626   0.329   8.740   5.863  0.3795 -0.1222  0.1096
60611W        W 3627  29.350  19.410   8.803 -0.3170 -0.0052 -0.0239
60612W        W 3628  31.618  21.418  22.852 -0.1119  0.3302 -0.0014
60613W        W 3629  25.384  14.296   4.274 -0.0496 -0.1575 -0.0385
60614W        W 3630  33.105  21.723   6.975 -0.2586 -0.0032  0.2399
60615W        W 3631  17.399  13.521   4.489  0.0377  0.0510  0.2085
60616W        W 3632  19.986  19.872  22.329 -0.1481 -0.2044 -0.0432
60617W        W 3633  13.520   5.282   6.782 -0.0784  0.2635 -0.0706
60618W        W 3634  27.307  28.193  20.055 -0.2303 -0.1372 -0.2834
60619W        W 3635   0.809  13.804  10.478 -0.1070 -0.2407  0.0299
60620W        W 3636  15.450   2.220  27.322 -0.2597 -0.0882 -0.0143
60621W        W 3637  32.708  12.887   8.530 -0.0834 -0.3967 -0.0624
60622W        W 3638   0.131  17.919   7.068  0.0579  0.0662  0.0357
60623W        W 3639  30.058  14.416   5.751 -0.2479  0.4747 -0.0433
60624W        W 3640  31.963  15.482   2.132  0.0690  0.0848 -0.1829
60625W        W 3641   7.536  22.235  24.389  0.0259  0.0073  0.2300
60626W        W 3642  27.396  28.753   7.790 -0.0347 -0.0421 -0.2719
60627W        W 3643  29.102  10.312  26.954 -0.0045 -0.1279 -0.0490
60628W        W 3644  22.825   7.104  19.276 -0.3064  0.1053  0.1637
60629W        W 3645  28.543  22.416   0.517  0.2812  0.2568 -0.2813
60630W        W 3646  31.646  20.407  20.488 -0.2355 -0.2329  0.1413
60631W        W 3647  27.508  34.552  28.476  0.1752  0.0028 -0.2434
60632W        W 3648   4.384  19.997   6.276 -0.1106 -0.2056  0.2292
60633W        W 3649  34.191  12.746   0.058 -0.1085 -0.2343 -0.1640
60634W        W 3650   4.598   4.258   8.943  0.2547  0.1689  0.1249
60635W        W 3651   8.988  23.216   0.310  0.1820 -0.2926 -0.1370
60636W        W 3652  25.890  30.968   2.713 -0.2137  0.1194 -0.4536
60637W        W 3653  25.768  13.877  23.440 -0.0980  0.2126  0.3875
60638W        W 3654   9.975  34.033   6.844  0.1703  0.2290 -0.1109
60639W        W 3655  18.463  28.465   2.701 -0.1853 -0.3536 -0.0385
60640W        W 3656   4.032  20.669  23.978  0.0651  0.1123  0.3350
60641W        W 3657  28.840  13.295  21.814  0.1987  0.1978 -0.0124
60642W        W 3658  15.395  23.560   4.224  0.3111  0.2190 -0.1243
60643W        W 3659  19.628  13.243  25.284 -0.1488 -0.0845  0.0055
60644W        W 3660  11.286  18.881   2.208  0.1599  0.0855 -0.4003
60645W        W 3661   7.307   7.110  26.478  0.4985  0.2198  0.3650
60646W        W 3662  14.143   3.189   8.911 -0.1176 -0.1262  0.0991
60647W        W 3663   3.086  16.900   6.903 -0.0422  0.0695 -0.0938
60648W        W 3664   7.051  24.668   8.943  0.0201  0.0728 -0.1260
60649W        W 3665  34.389   9.731  24.202 -0.0298 -0.5478  0.3135
60650W        W 3666  21.087  29.286   2.616  0.1101 -0.1652  0.0436
60651W        W 3667   3.994  15.419   6.307  0.0551  0.2827  0.0563
60652W        W 3668   0.555  23.590   5.727  0.0795  0.0407  0.0288
60653W        W 3669  34.233  20.484   2.100 -0.1241  0.1532  0.2529
60654W        W 3670   6.807  14.445  24.976  0.0167  0.2956 -0.2315
60655W        W 3671  27.613   0.996   6.523  0.2413  0.2392  0.3017
60656W        W 3672  25.560  32.555   0.353  0.1637 -0.5135  0.0116
60657W        W 3673  34.708  31.928   0.900 -0.0156 -0.1327  0.1289
60658W        W 3674   6.725  27.859  22.703 -0.0932 -0.3319 -0.0102
60659W        W 3675  24.096  23.541  16.426  0.0804  0.0961 -0.0754
60660W        W 3676  28.998  15.991  22.363 -0.2054  0.1446  0.2540
60661W        W 3677   4.833   3.625   4.762  0.0933  0.2033  0.2633
60662W        W 3678  27.574   3.517   3.936  0.0871 -0.0094 -0.6267
60663W        W 3679  22.692   6.069   4.073  0.3490 -0.3496 -0.1437
60664W        W 3680  23.382  20.905   0.593 -0.1564  0.1365 -0.2683
60665W        W 3681  32.588   6.286   3.382 -0.0630 -0.2424  0.0444
60666W        W 3682  34.067  19.356  16.961  0.0118  0.0578  0.0195
60667W        W 3683   2.606  20.351  29.134  0.0738  0.0665 -0.0478
60668W        W 3684   8.358  20.793   2.547  0.2827 -0.0703  0.0611
60669W        W 3685  17.601  16.802  27.994  0.4269 -0.0505  0.0572
60670W        W 3686   2.309  23.357  28.939  0.0444 -0.4308  0.1012
60671W        W 3687  31.573   8.983  10.068 -0.3313  0.0605 -0.1323
60672W        W 3688  33.168  20.766  10.391  0.2386 -0.1164 -0.0897
60673W        W 3689  29.315  14.616  26.505  0.0572 -0.0669  0.2217
60674W        W 3690  25.600  12.588   0.242  0.1156  0.1647 -0.2775
60675W        W 3691   9.803  20.235   5.385  0.0573  0.0711  0.0801
60676W        W 3692  33.325  11.491  23.891  0.0219 -0.1713  0.3396
60677W        W 3693   0.835  25.692   4.694 -0.1525  0.0105 -0.1191
60678W        W 3694   2.659  23.240   7.350 -0.2604  0.1072  0.1617
60679W        W 3695  28.360  30.993   7.885 -0.2021 -0.0170  0.0551
60680W        W 3696  16.235   7.808  10.274  0.2962 -0.2145 -0.1942
60681W        W 3697   8.703  19.816  23.877  0.4918  0.0992 -0.2883
60682W        W 3698  17.421  23.046  23.563 -0.0952  0.0310  0.1992
60683W        W 3699   8.510  28.182   9.620  0.0250  0.0713  0.1563
60684W        W 3700  29.971  23.988   4.130 -0.2974 -0.1366 -0.0212
60685W        W 3701  31.190  23.084   2.664  0.0657  0.0378  0.2829
60686W        W 3702  31.251  19.222  24.473 -0.2087 -0.1695  0.0905
60687W        W 3703  19.649  17.982  13.416 -0.0266 -0.1227 -0.2475
60688W        W 3704  16.152   8.845  15.731 -0.2074  0.0891  0.0902
60689W        W 3705   0.274   9.214   5.047 -0.1029  0.0833  0.0004
60690W        W 3706  27.391  12.886   3.363  0.0963  0.0479  0.0708
60691W        W 3707   0.892   8.899   6.651  0.1911  0.0505 -0.0499
60692W        W 3708   1.676  11.571   9.375  0.2578  0.2717 -0.5644
60693W        W 3709  14.461  19.161  25.472 -0.0536 -0.3737 -0.2750
60694W        W 3710  30.971  20.281   6.227 -0.0682 -0.0464 -0.3051
60695W        W 3711  20.842  27.819   6.754  0.2077 -0.2379  0.1741
60696W        W 3712  10.369   7.075   4.523 -0.0372  0.1163  0.1470
60697W        W 3713  32.043  14.845  26.715 -0.0736 -0.3084  0.1575
60698W        W 3714  20.115  21.701  15.963 -0.1414  0.1893 -0.4053
60699W        W 3715   0.405  12.140   9.149 -0.1477  0.0652  0.0152
60700W        W 3716  29.312  19.903  28.005  0.2340  0.0438  0.1048
60701W        W 3717   2.233  20.224  19.554  0.2941 -0.0746 -0.2682
60702W        W 3718  28.239   2.019   3.700  0.1493  0.0657  0.2489
60703W        W 3719  25.737  28.105   1.982  0.2758 -0.1279  0.0452
60704W        W 3720  15.887   5.131  28.803  0.3265 -0.0160  0.0100
60705W        W 3721   0.111  12.463  25.916 -0.2279  0.1147  0.3425
60706W        W 3722   5.361  20.266  26.942 -0.0164 -0.1070  0.1483
60707W        W 3723  33.221  18.809  27.753  0.0172  0.0149  0.0422
60708W        W 3724   1.085   4.284   4.042  0.1252 -0.1278  0.1469
60709W        W 3725  31.244  16.779   3.679 -0.0377 -0.1693 -0.0122
60710W        W 3726  29.965  17.753  27.696 -0.1921  0.0526  0.2608
60711W        W 3727  34.168  10.239  19.687 -0.0886  0.1033 -0.0338
60712W        W 3728   5.606  11.605   5.343 -0.2906  0.1684  0.0346
60713W        W 3729   0.134  14.196   7.086 -0.0187  0.0936  0.1602
60714W        W 3730  13.697  14.746  23.007  0.0261 -0.2161  0.0111
60715W        W 3731  33.243   0.380  24.657  0.1051 -0.1229 -0.3597
60716W        W 3732   6.691  14.599  22.896  0.0275  0.0359  0.1004
60717W        W 3733  28.618   1.096   2.516 -0.1637  0.1518  0.0887
60718W        W 3734  11.296   3.789   8.288 -0.2062 -0.1094  0.0899
60719W        W 3735  22.085  22.298   8.705 -0.3717 -0.0241 -0.0115
60720W        W 3736   8.155   9.477   2.444 -0.1159 -0.1769 -0.4227
60721W        W 3737  23.860  10.851   9.850 -0.2215 -0.0628 -0.2538
60722W        W 3738   3.231  11.426   8.153  0.0725 -0.1542 -0.0109
60723W        W 3739  29.773   4.080   1.336  0.0276 -0.1431 -0.0211
60724W        W 3740  22.996  14.371  21.722  0.4856 -0.1885 -0.0553
60725W        W 3741  23.390  32.269   2.677  0.0607  0.1813 -0.3256
60726W        W 3742  14.391  23.959   0.784 -0.1010 -0.0402 -0.0847
60727W        W 3743   5.202  14.093   4.584  0.0946 -0.2312 -0.1581
60728W        W 3744   1.995   0.036   6.116 -0.1409  0.2081  0.1097
60729W        W 3745  27.302   5.093   5.228  0.2907  0.0215  0.0083
60730W        W 3746   6.239  22.652  19.063 -0.2575  0.0847  0.1241
60731W        W 3747   1.634  25.690  17.538 -0.0032 -0.1703 -0.1481
60732W        W 3748   9.830  17.869   3.988 -0.0540 -0.0329 -0.1630
60733W        W 3749  34.724  21.448  26.591  0.1849  0.1085  0.1113
60734W        W 3750  23.918  27.072   1.366 -0.1879 -0.2611 -0.1401
60735W        W 3751   0.481  16.553   6.268 -0.3370 -0.2315 -0.1377
60736W        W 3752   6.182  20.663  27.601  0.2727 -0.2281 -0.3179
60737W        W 3753  31.922  15.627  10.182 -0.0068  0.1985  0.1601
60738W        W 3754  31.489  20.963  23.845 -0.1699  0.1119 -0.4125
60739W        W 3755  22.074  26.258   1.495  0.0634  0.0127 -0.1510
60740W        W 3756   1.581  28.970   7.356 -0.1172  0.0959  0.2402
60741W        W 3757  16.849   8.609   1.219 -0.0076 -0.3362  0.0796
60742W        W 3758   2.418  20.609   5.269 -0.0328  0.0855 -0.1287
60743W        W 3759  12.706  23.297   8.809 -0.1386  0.0635  0.0702
60744W        W 3760  19.191  10.044   6.704 -0.3150  0.0771 -0.0325
60745W        W 3761  32.161  11.015   3.580  0.2879 -0.1869 -0.2714
60746W        W 3762  32.103  28.336   9.148  0.0933  0.1717 -0.1025
60747W        W 3763   0.645  25.502   0.889 -0.0966 -0.3392  0.3370
60748W        W 3764  11.837  22.197  25.961 -0.0927 -0.1550 -0.1562
60749W        W 3765  13.616  27.379   1.539  0.2786 -0.2045  0.0613
60750W        W 3766  26.784  23.588   4.557  0.0460 -0.5045 -0.0766
60751W        W 3767   2.796   9.057   5.980 -0.0132  0.0686  0.1356
60752W        W 3768  22.592  17.400   6.957  0.0046  0.0622 -0.5130
60753W        W 3769  34.724  26.157   4.856  0.0356 -0.0252  0.3264
60754W        W 3770  17.400   8.754   5.560  0.0681 -0.1277 -0.1740
60755W        W 3771  15.571  15.630  29.238  0.2614 -0.0869 -0.1704
60756W        W 3772  10.989  26.421   5.020  0.2808  0.2334  0.2500
60757W        W 3773   9.911  29.744   1.544  0.1032  0.0756 -0.0797
60758W        W 3774  30.772  18.790   3.575 -0.1616  0.3713  0.0616
60759W        W 3775  14.274  17.158   8.455  0.0844  0.0238 -0.0025
60760W        W 3776  32.817  24.608  19.195 -0.0726  0.0648 -0.0465
60761W        W 3777  33.475  15.422   8.337 -0.1079 -0.0045  0.1632
60762W        W 3778  31.940  14.297  11.186 -0.1460 -0.0217 -0.2219
60763W        W 3779  13.368  21.559   1.453  0.1158  0.1410  0.1234
60764W        W 3780  11.379  10.632   0.506  0.0889  0.0981 -0.1362
60765W        W 3781  13.794  11.588  15.905  0.2981 -0.1871  0.0921
60766W        W 3782  34.422   2.116   6.579  0.0694 -0.1608  0.4407
60767W        W 3783   4.887  14.584   9.401 -0.0323 -0.1429  0.1746
60768W        W 3784  11.004  20.931  21.085  0.3268  0.0328 -0.1076
60769W        W 3785  26.742  24.319  26.138 -0.1504  0.1979 -0.1047
60770W        W 3786  28.675   9.895   7.677  0.2350 -0.0680  0.2792
60771W        W 3787   4.019  14.052   8.200 -0.0570  0.2869  0.0256
60772W        W 3788  32.638   2.212   8.412  0.1081 -0.2141 -0.1204
60773W        W 3789  32.991  28.984  27.610 -0.3010 -0.2670  0.0416
60774W        W 3790  30.645  21.068   5.115 -0.0583  0.0459 -0.1312
60775W        W 3791  29.627  17.753  22.086 -0.0435 -0.0637 -0.1220
60776W        W 3792   6.394  24.388  27.819 -0.2581  0.0765  0.0568
60777W        W 3793  12.799  10.043  26.907  0.1326  0.2248  0.0168
60778W        W 3794  16.901  26.419   7.598 -0.0881  0.2568 -0.1585
60779W        W 3795  28.173  28.456  18.376 -0.0582  0.0510  0.0539
60780W        W 3796   4.393  24.549  10.092  0.4944  0.0642 -0.0893
60781W        W 3797   9.793  22.641  19.079 -0.1628 -0.1420 -0.0063
60782W        W 3798   1.470  17.758   7.527  0.0029 -0.0367  0.2626
60783W        W 3799   1.464  17.565  28.508  0.1542  0.2478  0.0846
60784W        W 3800  25.004  25.251   1.454 -0.0750  0.1636  0.1950
60785W        W 3801  34.520  12.163   8.454  0.1581  0.0243  0.1787
60786W        W 3802  23.104  16.713   0.218 -0.2463  0.3994  0.1510
60787W        W 3803  19.769  23.649  22.250 -0.1319 -0.1307 -0.0777
60788W        W 3804  14.990  20.491   3.060  0.0374  0.2820  0.1017
60789W        W 3805  30.034   2.258   7.175  0.0764 -0.1130  0.2462
60790W        W 3806   9.460  24.924   8.332 -0.2657 -0.0957 -0.0366
60791W        W 3807   8.692  24.397   4.873 -0.2528 -0.1108  0.0064
60792W        W 3808  34.480   7.479   6.810  0.2849 -0.3525  0.1700
60793W        W 3809  34.365  20.697   0.752  0.2728 -0.0069 -0.0146
60794W        W 3810   5.737  11.183   5.591  0.2762 -0.1824  0.2255
60795W        W 3811  31.831   5.514   4.240 -0.0057 -0.0544 -0.2954
60796W        W 3812  32.413  21.883   1.236 -0.1949  0.0428 -0.0283
60797W        W 3813  12.234   0.981   0.237 -0.2196  0.0085  0.0427
60798W        W 3814  26.953  14.484   8.945 -0.2608 -0.0021 -0.2475
60799W        W 3815  13.542  29.131  25.648 -0.0938  0.1015 -0.2901
60800W        W 3816   1.026  10.542   2.658  0.2875  0.1575  0.2255
60801W        W 3817  21.729  15.602   3.098  0.1783  0.0083  0.2230
60802W        W 3818  33.982  27.542  10.063  0.1067 -0.1048  0.2529
60803W        W 3819  11.532  17.191   1.645  0.0954 -0.1196 -0.0611
60804W        W 3820  17.339  16.195   7.704  0.2552  0.0984  0.0937
60805W        W 3821   3.788  16.689   1.644 -0.0770 -0.0066  0.0896
60806W        W 3822  31.952  19.915   5.303 -0.0233 -0.0449  0.1838
60807W        W 3823  23.208  23.845   4.616 -0.0984  0.0599  0.0061
60808W        W 3824   5.387  13.707  27.541  0.1755  0.1225  0.0324
60809W        W 3825  28.223   8.511   3.053  0.0247 -0.2877  0.0707
60810W        W 3826  11.721  19.300   4.411  0.1221 -0.3863 -0.0699
60811W        W 3827  33.091   5.523   8.420  0.1835  0.2335  0.1977
60812W        W 3828  26.983  19.141   2.766 -0.2032 -0.1027  0.0411
60813W        W 3829  26.429  19.429  14.936  0.0452  0.0649 -0.1600
60814W        W 3830   9.645   1.354   0.329 -0.0328  0.1298  0.3051
60815W        W 3831   2.482  31.312  27.030  0.3590  0.2061  0.0171
60816W        W 3832   9.634  20.442   3.922 -0.1594 -0.0114  0.1464
60817W        W 3833  26.343  21.282  29.139  0.0619 -0.1528  0.0751
60818W        W 3834  29.401  21.213   9.430 -0.1080 -0.2529 -0.0069
60819W        W 3835  28.758  20.597   6.636  0.4049  0.2186 -0.0825
60820W        W 3836  33.281  10.400  27.063  0.2092 -0.1959  0.1138
60821W        W 3837  15.229  17.357  23.740 -0.2689  0.0436  0.0749
60822W        W 3838   5.992  33.427   4.611 -0.2103  0.1408 -0.3182
60823W        W 3839   1.190  30.732   5.682 -0.0381 -0.0534  0.0179
60824W        W 3840   5.266   9.144   4.655 -0.4051  0.1083 -0.0185
60825W        W 3841  29.274  19.071   5.463  0.3316  0.1235 -0.0658
60826W        W 3842  10.901  12.605   7.242 -0.1106 -0.2931  0.0537
60827W        W 3843  30.571  15.452   6.486 -0.2380 -0.1139  0.0267
60828W        W 3844  24.541  18.323   2.229  0.1026  0.2831  0.0663
60829W        W 3845   4.286  23.823   1.496  0.1579  0.1977 -0.0305
60830W        W 3846   5.994  17.758  16.452  0.2328 -0.2260 -0.1414
60831W        W 3847  13.621  22.980  19.824 -0.4413 -0.0335 -0.1969
60832W        W 3848  28.286  30.111   5.769 -0.1394 -0.0985 -0.0399
60833W        W 3849  17.304  32.179  27.785  0.0350 -0.0230 -0.1965
60834W        W 3850   9.174  16.395   7.317 -0.1443  0.1765 -0.2334
60835W        W 3851  32.111  18.683   7.093 -0.1142  0.1067 -0.0345
60836W        W 3852   1.114  15.193   2.023 -0.0037 -0.1093  0.5012
60837W        W 3853   1.301   5.407   7.570  0.0716 -0.0312 -0.1487
60838W        W 3854  10.816  33.181  25.804 -0.1637 -0.0004  0.1712
60839W        W 3855  32.387  18.253   7.734 -0.0322  0.1905 -0.0929
60840W        W 3856   1.804  17.036   8.335 -0.0925  0.1765 -0.0882
60841W        W 3857  32.749  16.112  23.130  0.0667  0.1302  0.0241
60842W        W 3858  14.280  19.451   4.969 -0.5642 -0.0225 -0.0239
60843W        W 3859  15.698   3.478  25.364  0.0740 -0.0942  0.3339
60844W        W 3860  14.439  27.692   4.496 -0.0133 -0.0215 -0.1930
60845W        W 3861  32.194  25.159  11.045  0.3842  0.0536  0.5131
60846W        W 3862   8.743  11.335  28.664 -0.0296  0.1421 -0.0908
60847W        W 3863  15.970  13.718  28.510  0.1650 -0.1555  0.2806
60848W        W 3864  11.146  29.394   1.657 -0.0159  0.0885 -0.1179
60849W        W 3865   3.928   3.064  21.975 -0.2543 -0.0090 -0.0688
60850W        W 3866  28.640  15.041   1.297 -0.1395  0.1861  0.2329
60851W        W 3867  11.768  12.369   2.879 -0.1863  0.0665  0.0530
60852W        W 3868   1.846   8.393  29.120 -0.0274  0.2390  0.2271
60853W        W 3869  11.495  25.565   2.496  0.2204  0.2231  0.1112
60854W        W 3870   3.832  15.101  29.074 -0.0846  0.2013  0.0526
60855W        W 3871  17.796  12.687   2.536  0.0311  0.0549 -0.0820
60856W        W 3872  18.391   4.434   4.063  0.1230  0.2573 -0.2268
60857W        W 3873   8.539   1.843  25.676 -0.4017  0.0701  0.1761
60858W        W 3874   1.612  14.603   9.251  0.0662  0.1102 -0.0975
60859W        W 3875  23.649  16.128   9.105 -0.0049  0.0932  0.0962
60860W        W 3876   6.837   5.027   1.864 -0.0468  0.1372 -0.2755
60861W        W 3877  24.164  24.727   7.619 -0.0181  0.2950 -0.1181
60862W        W 3878   4.435  28.075   2.099 -0.1498  0.0596  0.0128
60863W        W 3879  29.393  11.244   8.628 -0.3415  0.1188 -0.2060
60864W        W 3880  30.718  18.134  20.643  0.0638  0.2653  0.0452
60865W        W 3881  12.217  16.306   5.651 -0.1288 -0.1974  0.2523
60866W        W 3882  29.994  33.076   3.199  0.0989 -0.5636  0.0637
60867W        W 3883  28.428  10.883   5.780  0.2476  0.0829  0.0342
60868W        W 3884  30.162   8.408  10.077  0.1649  0.1559  0.3390
60869W        W 3885  15.163  28.752   8.778 -0.0633  0.1110  0.1008
60870W        W 3886  26.256  33.738   9.747  0.4354  0.1000  0.0380
60871W        W 3887   9.703  17.015   9.104  0.0955  0.0582 -0.0523
60872W        W 3888  31.375  22.726  10.856 -0.1069 -0.1064  0.1794
60873W        W 3889  27.061  27.147   1.098  0.0654  0.3925  0.0658
60874W        W 3890   2.908   6.083   6.536  0.0214  0.0310  0.0132
60875W        W 3891   3.484  25.960  25.992 -0.4266  0.3195 -0.0138
60876W        W 3892  20.106   5.478  16.951 -0.4335 -0.3121 -0.0081
60877W        W 3893  28.511   8.729   4.072  0.0357  0.1346 -0.3023
60878W        W 3894  30.377  16.875  23.884  0.1549  0.4621  0.1815
60879W        W 3895  32.919  21.412   2.147  0.1825  0.1398  0.0465
60880W        W 3896  20.580  23.807   6.244 -0.3123  0.0365  0.2086
60881W        W 3897  13.130  18.460   8.191  0.1016  0.2932  0.1939
60882W        W 3898  30.504   8.445   5.755  0.2331 -0.1096  0.0404
60883W        W 3899  25.511  25.539   9.680  0.0205 -0.3183 -0.4567
60884W        W 3900   0.329  11.790   8.291 -0.2896 -0.4168  0.0974
60885W        W 3901  27.091  10.207  28.848 -0.1481 -0.0679  0.3190
60886W        W 3902   7.517  13.334  23.496  0.0303 -0.0535 -0.0333
60887W        W 3903  32.375  19.422   1.266  0.0952  0.2090  0.1683
60888W        W 3904  21.509  30.321   5.548  0.2519  0.2144 -0.1461
60889W        W 3905  23.236  16.859   8.616 -0.0392  0.0163  0.0078
60890W        W 3906  32.070   9.611   7.054 -0.0700  0.0929  0.0082
60891W        W 3907  30.728  18.825   2.065 -0.0818  0.0867  0.0726
60892W        W 3908  15.427  21.401  26.327 -0.0359 -0.1988 -0.0266
60893W        W 3909   8.374  25.009  27.071 -0.1063 -0.0295  0.1737
60894W        W 3910   9.455  13.625   0.411  0.0739  0.1105 -0.0710
60895W        W 3911  14.129  17.565  29.051  0.3318  0.0811 -0.1371
60896W        W 3912   3.100  11.733   7.215 -0.1744 -0.1467 -0.1147
60897W        W 3913  26.994  15.684  18.375 -0.0188 -0.1285  0.0514
60898W        W 3914   5.999  10.825  28.610  0.2634  0.1700 -0.2431
60899W        W 3915  25.124  24.673   7.491 -0.1241 -0.2284 -0.0349
60900W        W 3916   4.620  34.079   1.116  0.1516 -0.0380  0.0344
60901W        W 3917  18.656  28.832   9.831 -0.0163  0.0758 -0.0948
60902W        W 3918   0.820  31.683  10.599  0.3598 -0.0992 -0.3291
60903W        W 3919  16.972   9.259   4.185  0.3527 -0.2240  0.2110
60904W        W 3920  15.185   7.374   7.422 -0.0823  0.0291  0.0046
60905W        W 3921  15.612  18.318  28.502  0.3949 -0.0416  0.1471
60906W        W 3922  33.899  32.207   4.176  0.3495  0.3758 -0.0751
60907W        W 3923  17.515   7.385   3.079 -0.1969 -0.1090  0.1522
60908W        W 3924   2.176  15.286   5.359 -0.2892 -0.0253 -0.0212
60909W        W 3925  11.464  14.201  22.829  0.0870 -0.1640  0.1742
60910W        W 3926   9.857  31.493  25.638 -0.0629  0.3728  0.1552
60911W        W 3927   0.004  11.418  22.565  0.1024  0.1646 -0.3572
60912W        W 3928  10.623  10.163   7.370 -0.1543  0.1276  0.0074
60913W        W 3929  26.604   7.135   0.727  0.1129  0.0736 -0.0651
60914W        W 3930   5.743  15.802   9.195  0.3034 -0.1864  0.1831
60915W        W 3931  16.405  34.615   3.922  0.6167  0.2346  0.0265
60916W        W 3932  29.565  24.775   9.447  0.2596  0.0911 -0.1257
60917W        W 3933  12.139  10.119  28.215 -0.0222 -0.0132 -0.2746
60918W        W 3934   4.730  21.066   1.270  0.0093 -0.1392  0.0415
60919W        W 3935   3.592  16.891   4.702 -0.1355  0.1179 -0.0605
60920W        W 3936   6.722   6.756  28.819 -0.1307  0.2872  0.0675
60921W        W 3937   6.125  34.653   1.384  0.0186 -0.2771 -0.2118
60922W        W 3938   2.976  19.447   5.856 -0.1035  0.0422  0.0145
60923W        W 3939  24.114   8.786   9.696 -0.0673  0.1026 -0.0466
60924W        W 3940  31.853  24.434  23.935 -0.1122 -0.0510 -0.0243
60925W        W 3941  15.752  14.202   6.881 -0.4737 -0.3037  0.4785
60926W        W 3942  32.660  18.379  28.948  0.0151 -0.0107 -0.3112
60927W        W 3943   5.650  16.088   5.838 -0.1883  0.1427  0.4600
60928W        W 3944  34.013  10.332   8.900  0.1514  0.3929  0.1849
60929W        W 3945  22.367  22.879   6.947  0.5183 -0.0862 -0.1809
60930W        W 3946  32.293  11.143   7.116  0.0856 -0.2227  0.0044
60931W        W 3947   5.149  28.062   9.164 -0.0571  0.1448 -0.0238
60932W        W 3948   2.028  13.863   1.001 -0.0483 -0.1080 -0.1514
60933W        W 3949   6.255  12.182   8.269  0.1737 -0.1373 -0.2676
60934W        W 3950   2.552  25.753   7.924 -0.2878  0.1402 -0.0462
60935W        W 3951  32.908  16.369   8.704  0.2155  0.1598  0.1092
60936W        W 3952   7.053  29.089   6.260 -0.1446  0.2131 -0.1147
60937W        W 3953   9.770  16.296  27.204  0.2664  0.1927 -0.0182
60938W        W 3954   6.349  25.778   0.714  0.3161 -0.1273  0.0463
60939W        W 3955   6.504  16.003  24.107  0.3440 -0.1833  0.1855
60940W        W 3956  32.188  33.151   6.224 -0.0022  0.0343  0.0517
60941W        W 3957  26.006   2.511   0.833 -0.4367  0.2364 -0.0334
60942W        W 3958  31.196  18.064  28.602 -0.1035  0.2515 -0.0933
60943W        W 3959   7.048  23.145   4.874 -0.0714  0.0575 -0.0742
60944W        W 3960   7.747  31.643   2.710  0.3546 -0.1895  0.1395
60945W        W 3961  24.605   8.128   9.232  0.0936  0.2811  0.3199
60946W        W 3962  12.240  20.510   7.933 -0.1108  0.0256 -0.2809
60947W        W 3963  11.169  16.748  28.663 -0.0545 -0.0220 -0.1419
60948W        W 3964  31.895  26.240  28.501 -0.0878 -0.0920  0.4609
60949W        W 3965  28.053  21.116   8.830  0.1443 -0.1115  0.1805
60950W        W 3966  29.300  17.029  14.606 -0.0944  0.0545 -0.0703
60951W        W 3967  34.155  25.476  11.063  0.1201  0.0291 -0.2540
60952W        W 3968  25.793  17.894   8.285 -0.3756 -0.1061  0.1774
60953W        W 3969   5.612  19.301  26.561  0.1707 -0.0300 -0.0549
60954W        W 3970   6.455   8.511   2.142 -0.1559  0.1719 -0.1731
60955W        W 3971  22.156  10.248  16.306 -0.1234  0.2185  0.1499
60956W        W 3972  31.349  25.092  22.559 -0.1726 -0.2557 -0.2396
60957W        W 3973  11.324  19.855  29.247 -0.0057 -0.4354 -0.1818
60958W        W 3974   0.840  22.796   5.218  0.2623 -0.2114 -0.0370
60959W        W 3975  14.805  19.287  27.970  0.0436 -0.4432 -0.1556
60960W        W 3976  11.138   8.062   9.142  0.0733  0.0439 -0.0086
60961W        W 3977  20.451  15.081  23.585  0.1697  0.3025 -0.1643
60962W        W 3978  34.172   8.731   2.973 -0.2616 -0.1742  0.1889
60963W        W 3979  29.159  28.299   9.677  0.4125 -0.2063  0.0637
60964W        W 3980  22.210  10.917  29.004  0.0780 -0.0622 -0.0423
60965W        W 3981  18.437  12.700  24.526  0.1871  0.0329  0.1820
60966W        W 3982  23.398  21.313   5.512 -0.1380 -0.5412 -0.0514
60967W        W 3983  30.555  18.467   4.612  0.1666  0.0876  0.2819
60968W        W 3984   4.772  13.473  28.197  0.1586  0.1593  0.0601
60969W        W 3985  23.851  22.081  28.423 -0.2569 -0.1562 -0.3163
60970W        W 3986  31.989   4.545  10.102 -0.4907 -0.0329 -0.1583
60971W        W 3987  28.186  14.373   1.892 -0.1259 -0.2123  0.1300
60972W        W 3988   3.360  31.845   9.653  0.0700  0.0449  0.0851
60973W        W 3989   6.644   4.630   8.065 -0.4760 -0.2764 -0.2579
60974W        W 3990  25.025  16.255   0.023  0.0872  0.1334 -0.2867
60975W        W 3991  12.116  17.301   1.757 -0.3195 -0.1312  0.0978
60976W        W 3992  19.482   4.327   8.355 -0.3669 -0.2238 -0.2052
60977W        W 3993   6.427  16.602  25.807 -0.1171  0.3161 -0.2797
60978W        W 3994  32.667  11.613  19.008  0.1325 -0.1101  0.2292
60979W        W 3995  16.126   3.784  26.138  0.2205 -0.2889 -0.0929
60980W        W 3996   7.410  30.909   5.958  0.1999 -0.1210  0.0513
60981W        W 3997  14.707  14.106   4.868  0.2019  0.1243  0.2324
60982W        W 3998  28.190  27.290   3.394 -0.1624 -0.0012  0.1521
60983W        W 3999  33.954  14.915  16.422 -0.1626 -0.1356  0.3758
60984W        W 4000  30.050  25.670   7.733 -0.0001  0.2838  0.0504
60985W        W 4001   8.551  16.845   0.706  0.3643 -0.1578  0.1288
60986W        W 4002  11.382  12.293   5.178 -0.2337  0.1171  0.1259
60987W        W 4003   1.795  17.821   1.628  0.2412 -0.0180  0.3888
60988W        W 4004  32.626  22.574   9.966  0.0356 -0.4578  0.0822
60989W        W 4005  33.003  17.740  20.532  0.0614  0.0076 -0.2092
60990W        W 4006  31.992  11.485  20.226  0.0374 -0.0364 -0.0696
60991W        W 4007   4.450   7.311   3.939  0.2986  0.0822 -0.3705
60992W        W 4008  30.401  16.535  26.189  0.2626 -0.0322 -0.1471
60993W        W 4009  29.738  13.183   9.563 -0.1038 -0.0849  0.1709
60994W        W 4010  17.221  20.204   6.878  0.0068  0.0657  0.0888
60995W        W 4011  19.805  10.838   4.062 -0.0561  0.0018 -0.0213
60996W        W 4012   3.874  26.895   0.242 -0.0988 -0.1765  0.0739
60997W        W 4013  23.162  21.376  19.762 -0.2352 -0.0484 -0.1524
60998W        W 4014  31.183  12.053   1.057 -0.0025  0.4423  0.2336
60999W        W 4015  26.739   1.157   7.503 -0.0703  0.0902 -0.0164
61000W        W 4016   9.047   9.148   7.978 -0.1232  0.3964  0.2378
61001W        W 4017  19.223  21.580   3.317 -0.0457 -0.1375 -0.1581
61002W        W 4018   9.399  15.345   5.578 -0.0367 -0.0473  0.0180
61003W        W 4019  22.272  19.894   8.799  0.0909 -0.1245 -0.0925
61004W        W 4020   3.252  14.774  26.447 -0.0390  0.1396 -0.2569
61005W        W 4021   6.562  21.075   4.481  0.0207  0.2672 -0.0003
61006W        W 4022   4.013   8.522  27.815 -0.1471 -0.1559  0.0162
61007W        W 4023  11.977  19.376  27.671  0.0330 -0.2694  0.1233
61008W        W 4024   3.776  30.826  22.450  0.2410 -0.0553 -0.0321
61009W        W 4025   2.982   4.226   2.909 -0.2288  0.1144  0.0775
61010W        W 4026  23.684  11.913   5.305  0.1087  0.3419  0.4355
61011W        W 4027  24.432  11.158  27.135  0.0309  0.1219  0.2263
61012W        W 4028  13.893   9.995   3.530 -0.3791  0.2065  0.0112
61013W        W 4029  22.967  21.175   2.009 -0.0778  0.0849 -0.1199
61014W        W 4030  26.926  29.723   1.722  0.0009 -0.2620 -0.2948
61015W        W 4031  11.711  14.515  21.290 -0.1439  0.0331 -0.0030
61016W        W 4032  13.541   5.990  21.049 -0.0276  0.3854  0.3967
61017W        W 4033  12.128  23.987  27.981 -0.3489  0.0009 -0.1283
61018W        W 4034  24.912  16.169  23.205 -0.2548  0.0805 -0.1044
61019W        W 4035   8.319  20.975   3.455 -0.0273  0.1071  0.2355
61020W        W 4036  32.276  22.456  29.059 -0.3220 -0.2983  0.0781
61021W        W 4037   1.698  30.881   3.273  0.0582 -0.1349 -0.0087
61022W        W 4038  32.332  13.566   4.308  0.3927  0.2200 -0.1266
61023W        W 4039  13.660  19.355   4.327 -0.0888 -0.1908  0.0355
61024W        W 4040  32.147  17.703  23.993  0.0567 -0.0318  0.1054
61025W        W 4041  11.855   6.979  19.097  0.1532  0.0066 -0.0407
61026W        W 4042  29.333  20.706   1.649 -0.0496 -0.0171 -0.1403
61027W        W 4043   9.172  18.605   8.010 -0.1773 -0.1496  0.1304
61028W        W 4044  28.075  17.006  26.503 -0.1471  0.0851  0.3449
61029W        W 4045  28.895  13.971   6.579  0.0671 -0.2888  0.2274
61030W        W 4046  31.933  26.925   5.926 -0.0776  0.1976  0.3415
61031W        W 4047  20.299  22.510   7.170 -0.2035  0.2937 -0.0295
61032W        W 4048  10.647  20.530   0.624 -0.0154 -0.2132 -0.4242
61033W        W 4049   3.684  32.681   2.464 -0.0032 -0.1489  0.0589
61034W        W 4050  19.525  19.627   7.133  0.0424 -0.1054  0.1013
61035W        W 4051   0.008  22.098  24.355 -0.0331  0.1011  0.1279
61036W        W 4052   2.170  29.635   6.363  0.2600  0.0006 -0.0518
61037W        W 4053  28.456  33.178   9.602 -0.5265  0.1096  0.0896
61038W        W 4054   1.125  13.198  18.984 -0.0286 -0.0743 -0.2373
61039W        W 4055  18.632  33.684   5.568  0.0680  0.2635 -0.1400
61040W        W 4056  28.480  11.789  26.215 -0.2008 -0.1303 -0.2576
61041W        W 4057  32.426  12.421  21.879  0.0467 -0.2097 -0.1286
61042W        W 4058  34.584  25.673   7.078  0.0800 -0.0612  0.2180
61043W        W 4059  21.889  26.094  24.950  0.2946 -0.2282 -0.1481
61044W        W 4060  18.053  22.520   9.535 -0.0764 -0.2266  0.2011
61045W        W 4061  34.132  15.522  26.592 -0.1379 -0.2336 -0.2674
61046W        W 4062  32.627  13.238  28.477 -0.0845 -0.0336 -0.1565
61047W        W 4063   2.243   7.461   6.133 -0.1169 -0.0870  0.2286
61048W        W 4064  27.552  32.685  11.730  0.0326  0.0790 -0.2044
61049W        W 4065  31.955  12.064  22.599 -0.0610 -0.2810 -0.0031
61050W        W 4066  20.480  16.225  27.785 -0.1374  0.0838  0.0513
61051W        W 4067   4.283  14.409  20.309  0.2008  0.0149  0.0636
61052W        W 4068  10.055  26.979  22.315 -0.1297  0.0737  0.0902
61053W        W 4069   1.266   7.543   1.517  0.1592  0.1780 -0.0317
61054W        W 4070  11.246  28.739  10.508 -0.2060  0.0301 -0.1631
61055W        W 4071   2.796  15.024  18.960  0.0765  0.2280 -0.0938
61056W        W 4072   4.689  19.138  21.458 -0.0324 -0.2061 -0.2608
61057W        W 4073  28.764  19.456   6.291  0.1693 -0.0594  0.0464
61058W        W 4074  10.213  24.688   5.750 -0.1426 -0.1716  0.1215
61059W        W 4075  19.583  25.168  22.375 -0.1051  0.0666 -0.0509
61060W        W 4076  20.046  25.803   6.510 -0.1324 -0.0463  0.3829
61061W        W 4077   5.434  28.526  25.139  0.0147 -0.0066 -0.7627
61062W        W 4078   7.547  22.838  25.099  0.1169 -0.0512 -0.1502
61063W        W 4079   9.428  20.489  26.738  0.3835  0.1374 -0.0967
61064W        W 4080  16.377  15.704  12.516  0.0346  0.0706 -0.0870
61065W        W 4081  24.829  24.495   8.444 -0.1485  0.3259 -0.0272
61066W        W 4082  10.628  25.123   9.425  0.0749 -0.0313  0.0250
61067W        W 4083  25.743  26.745   7.286 -0.3499  0.3837 -0.0231
61068W        W 4084   1.774  21.729  25.376  0.2201  0.2686 -0.2305
61069W        W 4085  32.680  18.011  27.889 -0.1848  0.2344  0.0087
61070W        W 4086  16.356  19.992   6.734  0.1391  0.1350  0.2133
61071W        W 4087   7.729  21.126  28.510  0.0665 -0.0127 -0.1034
61072W        W 4088   5.396   0.394  19.482 -0.0916 -0.0991 -0.0581
61073W        W 4089   9.432  31.545  23.730  0.0357 -0.2009 -0.0926
61074W        W 4090   4.240  10.134  25.778  0.1460 -0.0431  0.0741
61075W        W 4091   7.818  18.923   6.746  0.0298  0.0323 -0.3571
61076W        W 4092  13.292  10.936  25.095  0.1606 -0.1541  0.0206
61077W        W 4093   9.680  16.313  28.362 -0.0303  0.4044  0.2686
61078W        W 4094  29.064   9.749  10.835 -0.1399 -0.3015 -0.2423
61079W        W 4095   9.963  29.373   6.043 -0.0723  0.2494 -0.2652
61080W        W 4096   9.533   9.613  23.332  0.0947 -0.1868 -0.0349
61081W        W 4097   9.130  19.148  21.772  0.1421  0.1507  0.1380
61082W        W 4098  29.730  15.448   0.030 -0.0332  0.3807  0.3693
61083W        W 4099  31.093  10.047   7.558  0.1323 -0.3019  0.0687
61084W        W 4100   5.934  21.133  14.858 -0.2355 -0.0912 -0.1853
61085W        W 4101  33.449  30.103  18.832  0.2430  0.0680 -0.1164
61086W        W 4102  10.443  13.598  14.540 -0.1106 -0.1998  0.3068
61087W        W 4103  16.058  19.738  21.152  0.0653  0.0135  0.1555
61088W        W 4104   2.472  27.072  22.057  0.2174 -0.0239  0.1171
61089W        W 4105   7.329  20.795  21.289 -0.0505 -0.0840 -0.1429
61090W        W 4106   4.348  29.027  27.682  0.0974 -0.0329 -0.4911
61091W        W 4107   1.895  24.829  27.138  0.0445 -0.0336  0.1866
61092W        W 4108   8.547  25.655   9.554  0.1170 -0.1368  0.0397
61093W        W 4109  25.545  22.480  18.232 -0.2891 -0.1461  0.0547
61094W        W 4110   7.600   0.084   4.936  0.0023  0.1072 -0.1869
61095W        W 4111  31.792  19.881   8.130  0.4153  0.1971  0.0442
61096W        W 4112  16.789  33.144   0.732  0.1476  0.1033 -0.0045
61097W        W 4113  31.890  15.402  18.652  0.1968 -0.3274 -0.1087
61098W        W 4114  27.720  22.107   0.168  0.1009  0.1969  0.1270
61099W        W 4115   1.964  19.056  26.252 -0.0590  0.1712 -0.0542
61100W        W 4116  30.392  22.851  28.330 -0.0256 -0.4270 -0.1510
61101W        W 4117   3.944  21.554  25.961  0.0436  0.0453 -0.0443
61102W        W 4118   4.193  31.970  22.306  0.1789  0.2938  0.0504
61103W        W 4119  26.798  27.851   3.595  0.0601  0.0468  0.0668
61104W        W 4120   0.008  21.024   4.778  0.1634  0.1331  0.1956
61105W        W 4121  16.568  12.005  20.188  0.1130 -0.0510  0.0695
61106W        W 4122  12.818  22.169   8.288  0.0733 -0.0751  0.1845
61107W        W 4123   0.531  26.891  20.758  0.1203  0.1113  0.3058
61108W        W 4124  32.132  10.513   2.133 -0.2021  0.3430 -0.2800
61109W        W 4125  14.006  26.600  28.617 -0.0516 -0.0937 -0.0703
61110W        W 4126   2.438   9.887  16.715 -0.0343  0.1336  0.0149
61111W        W 4127   4.202  24.069   9.954 -0.0869  0.0408  0.2461
61112W        W 4128   8.204  20.212   7.905 -0.0035  0.2041 -0.0950
61113W        W 4129  16.806  15.319   0.516 -0.2366 -0.3243  0.0682
61114W        W 4130  10.489   1.382   4.791  0.2417 -0.1204 -0.0966
61115W        W 4131   8.430  18.664  28.731 -0.0722  0.2969  0.1946
61116W        W 4132  31.523  31.128   3.049 -0.0493 -0.1964  0.0010
61117W        W 4133  33.519   8.075   5.946 -0.0212 -0.2697  0.1800
61118W        W 4134  13.509  22.489   4.749 -0.1466  0.0662  0.1021
61119W        W 4135  34.232  29.630  15.674  0.0177 -0.0101 -0.0852
61120W        W 4136  24.937  28.957  28.226 -0.0310 -0.2695 -0.1403
61121W        W 4137   0.944  28.388   6.780 -0.0515  0.0299 -0.1136
61122W        W 4138  12.046  24.119   7.371  0.1700  0.0484 -0.1717
61123W        W 4139   7.577   0.065  17.966 -0.1519  0.1276  0.0672
61124W        W 4140  25.649  21.133  23.721  0.1288  0.2173 -0.0301
61125W        W 4141  19.651   4.317  22.674 -0.1098 -0.1250 -0.3055
61126W        W 4142  18.624  14.428  25.021  0.3578 -0.2715  0.0717
61127W        W 4143  25.639  19.818   6.914 -0.1275  0.0391  0.2658
61128W        W 4144  19.842  21.928   5.240 -0.0670  0.2526  0.0041
61129W        W 4145   5.061  29.343  19.539  0.2879  0.1478  0.0616
61130W        W 4146  30.250  24.815   4.642 -0.1697  0.1037 -0.2327
61131W        W 4147  14.549  28.181  20.094 -0.0013 -0.1227  0.4298
61132W        W 4148  24.634  10.740   9.079 -0.2195  0.2925 -0.1781
61133W        W 4149   4.514   9.986   8.748 -0.1335  0.0280 -0.0826
61134W        W 4150   4.587  31.956  21.898  0.1742 -0.3016 -0.1693
61135W        W 4151   0.925  33.519   6.758 -0.4397 -0.3534 -0.0789
61136W        W 4152  12.063   0.417  27.572 -0.1018 -0.3262 -0.0660
61137W        W 4153  28.966   3.992   5.346 -0.2125  0.0193 -0.0025
61138W        W 4154   8.776   9.525   1.067  0.1621  0.2630  0.3274
61139W        W 4155  34.608  23.474  22.827  0.1494  0.2717  0.3262
61140W        W 4156   8.979  12.777   0.135  0.0170  0.0956  0.0577
61141W        W 4157  31.601  29.544  27.409 -0.0019  0.1064  0.1153
61142W        W 4158  14.075  15.142  24.262  0.0159  0.1308 -0.0555
61143W        W 4159  25.078  17.672  17.636 -0.0271 -0.2069 -0.1138
61144W        W 4160   9.194  18.756   5.590 -0.0502 -0.0344 -0.1004
61145W        W 4161  34.537   4.935   9.763 -0.1038  0.0023 -0.0910
61146W        W 4162   5.474  15.022   4.909  0.0207 -0.0637  0.2128
61147W        W 4163  16.531  16.411   5.871  0.1348  0.1303 -0.1894
61148W        W 4164   8.580  16.558  27.306  0.1883  0.2273 -0.0470
61149W        W 4165   9.910   5.187  18.012  0.1477  0.0787 -0.2524
61150W        W 4166  14.066  28.572   1.064 -0.1330  0.0294 -0.0499
61151W        W 4167  14.720  13.664   7.117  0.1821 -0.0948 -0.0049
61152W        W 4168  32.506   1.465   9.238  0.2393  0.2045  0.2299
61153W        W 4169  15.957  11.512  28.584 -0.0046 -0.1156  0.1233
61154W        W 4170  21.686  18.206   4.792  0.0861 -0.2424 -0.1063
61155W        W 4171  33.005  23.272  26.034  0.2862  0.1941 -0.0340
61156W        W 4172  17.863   9.935   1.086  0.1712  0.2255 -0.0232
61157W        W 4173  15.534  25.633   5.395  0.1029 -0.3390 -0.0472
61158W        W 4174  22.565  11.563  24.941 -0.0833  0.0165  0.3471
61159W        W 4175   7.881  24.814  24.992 -0.3662 -0.2554 -0.0377
61160W        W 4176   1.111  28.346  17.314  0.1293 -0.1379 -0.4166
61161W        W 4177  11.320  23.820  26.167 -0.2367 -0.0345 -0.1367
61162W        W 4178   2.457   5.429   6.310  0.2783 -0.2077 -0.1884
61163W        W 4179  29.034   8.866   8.682  0.1312  0.2660 -0.0994
61164W        W 4180   0.819  16.237  21.109 -0.0906  0.1844 -0.0482
61165W        W 4181  24.729  17.414   2.591  0.0967  0.2051  0.2494
61166W        W 4182  10.408  17.389  13.514 -0.2584  0.0292  0.1865
61167W        W 4183  16.304  27.110  28.277 -0.0149  0.0843 -0.2656
61168W        W 4184   0.678  22.039  22.493 -0.0709 -0.0966  0.0188
61169W        W 4185  34.034  16.387   0.731  0.3438 -0.3594 -0.1074
61170W        W 4186  23.561  19.929   0.558 -0.1864 -0.1314 -0.2571
61171W        W 4187  23.691  16.558   2.131  0.0427 -0.1213 -0.1619
61172W        W 4188   8.289  11.652  14.016  0.1054  0.2956  0.0420
61173W        W 4189  29.861  19.661   2.439  0.1222  0.2272  0.1205
61174W        W 4190  32.629  18.770  26.326 -0.3826  0.1839 -0.0258
61175W        W 4191   1.753  29.077  25.340  0.0608  0.2265  0.1068
61176W        W 4192   9.241  18.111   2.077  0.1827 -0.0963  0.1310
61177W        W 4193  23.455  15.265  27.407  0.4554 -0.1349  0.0601
61178W        W 4194  14.760  14.180  28.297 -0.0425 -0.1025 -0.0903
61179W        W 4195  34.294  17.283  27.212 -0.0731  0.0727  0.3336
61180W        W 4196   3.038  22.585  14.877 -0.4488  0.1887  0.2335
61181W        W 4197   2.176  22.285   4.801 -0.5337  0.2826  0.0330
61182W        W 4198  34.751  30.858  25.158  0.5646 -0.0443  0.0418
61183W        W 4199  30.949  14.240   3.437  0.0772 -0.0462  0.0713
61184W        W 4200   0.365  29.669   7.813  0.0880 -0.0459  0.2158
61185W        W 4201  30.891  16.566   3.164  0.1224 -0.0124  0.1539
61186W        W 4202  26.126   3.848  11.532  0.1753 -0.0668 -0.0457
61187W        W 4203  23.090  15.249  27.066  0.0003  0.3042  0.0511
61188W        W 4204   2.024   7.613   3.923 -0.0548  0.0185 -0.0054
61189W        W 4205   6.040  17.766  24.958 -0.2318 -0.0441  0.1281
61190W        W 4206  17.767   4.041  27.034 -0.1764 -0.1310 -0.3574
61191W        W 4207  16.301  21.720  25.937 -0.3567  0.3493 -0.2328
61192W        W 4208   9.031  32.518   6.975  0.0668  0.2349  0.4491
61193W        W 4209  32.208  16.118   1.149 -0.2203  0.0733  0.1722
61194W        W 4210   0.632   9.188   5.931 -0.1009 -0.0132 -0.1554
61195W        W 4211  18.595  24.453  19.071 -0.3916  0.0838  0.0357
61196W        W 4212   9.377  23.360   3.458 -0.0519 -0.0705 -0.0961
61197W        W 4213   9.091  13.377  12.971 -0.1687 -0.0662  0.0358
61198W        W 4214  28.297  19.049   0.516 -0.0051 -0.2499  0.1749
61199W        W 4215  32.598  11.224   2.798  0.0054  0.2070  0.2210
61200W        W 4216  23.630  17.801   0.904  0.1703  0.1166  0.0764
61201W        W 4217   6.762  28.248   6.247 -0.1369 -0.1987 -0.1133
61202W        W 4218   8.778  22.769  21.448  0.0965 -0.1556 -0.1469
61203W        W 4219  32.633   7.287   4.377  0.0200 -0.0811 -0.3339
61204W        W 4220  19.876  14.895   7.269  0.2261  0.1578  0.2550
61205W        W 4221  31.409  34.552  24.029 -0.2053  0.1681  0.2947
61206W        W 4222  16.290  19.220   7.249 -0.1056  0.1037 -0.0473
61207W        W 4223   2.996  29.211   2.311  0.0281 -0.1632  0.1968
61208W        W 4224  27.239  11.552  26.551  0.0561  0.3888  0.0387
61209W        W 4225  26.220  19.489   6.007  0.0231  0.1013  0.0245
61210W        W 4226  27.522  24.495   1.720 -0.1926 -0.1899 -0.0367
61211W        W 4227  16.713  12.476   7.954  0.0640 -0.3493 -0.3391
61212W        W 4228   3.976  11.745   8.200 -0.2342  0.2588 -0.2054
61213W        W 4229  14.125  23.159  14.579  0.1865  0.0283  0.1768
61214W        W 4230   1.676  13.134   9.689 -0.0440  0.2001 -0.1393
61215W        W 4231   1.493  16.181  23.897  0.0698 -0.1643  0.3290
61216W        W 4232  30.760  24.723  25.626 -0.0689  0.0097  0.0912
61217W        W 4233  12.883  19.260  24.262  0.0632  0.2045  0.0286
61218W        W 4234  34.670  11.181   4.250 -0.0725  0.0552  0.1721
61219W        W 4235  23.679  23.148   4.850 -0.1074 -0.1856 -0.1559
61220W        W 4236   5.748  17.079   3.939 -0.0676 -0.4228  0.1160
61221W        W 4237  25.952   3.892  10.578 -0.0283  0.1344  0.1570
61222W        W 4238   3.728  22.964  27.566  0.0758  0.1573 -0.2819
61223W        W 4239  10.448   7.383   7.590 -0.0605 -0.1328 -0.2413
61224W        W 4240   2.129   5.837  10.014  0.1699 -0.3681 -0.0772
61225W        W 4241  10.133  33.376  25.691 -0.0335  0.0532 -0.0886
61226W        W 4242  16.003  13.937   3.405 -0.2462 -0.0918  0.0268
61227W        W 4243  29.000  21.733  10.209  0.1751 -0.0147 -0.2450
61228W        W 4244  22.793  17.082  28.204  0.3002  0.0484 -0.0890
61229W        W 4245  31.557  19.789  27.979 -0.2019  0.3315  0.0396
61230W        W 4246  32.714  14.146   8.887  0.3515 -0.2205  0.2480
61231W        W 4247  15.924   3.194   6.980 -0.5553  0.3434 -0.0875
61232W        W 4248  13.321  27.830   8.739  0.0606  0.0191  0.2224
61233W        W 4249   8.735  19.125  26.058  0.0476 -0.0802 -0.0989
61234W        W 4250   0.983  25.454  18.906  0.0193 -0.0648 -0.1107
61235W        W 4251   0.338  19.637  28.284 -0.2108  0.3174 -0.0763
61236W        W 4252  25.192  34.326  25.226 -0.1190 -0.0064 -0.1747
61237W        W 4253  29.965  19.149   1.692  0.1666 -0.3243  0.1764
61238W        W 4254  12.445   7.431  19.473 -0.2420  0.0195 -0.0126
61239W        W 4255  25.553  15.375   9.457  0.1611 -0.0217  0.2314
61240W        W 4256  16.668  26.386   9.794  0.3163 -0.0401 -0.2093
61241W        W 4257  33.228  18.181   5.331  0.0551 -0.0513  0.2658
61242W        W 4258  32.740  15.955  25.722 -0.0714 -0.0604 -0.0317
61243W        W 4259   6.541  15.409  24.736  0.1498  0.2445 -0.1050
61244W        W 4260   1.615  13.416  19.783 -0.1018  0.2826  0.2252
61245W        W 4261  30.327  20.411  27.393 -0.1077  0.1968 -0.1523
61246W        W 4262  19.996  27.085  20.732  0.2343 -0.1743  0.0175
61247W        W 4263  12.211  28.103  15.831  0.1279  0.0628 -0.0235
61248W        W 4264   3.164  30.044  24.417 -0.1536 -0.0308  0.2290
61249W        W 4265   5.392  28.274  20.636 -0.1181  0.2270  0.4999
61250W        W 4266  10.018  21.916   0.282 -0.0798 -0.2573 -0.0191
61251W        W 4267   5.195  15.734   0.727 -0.0588  0.0137 -0.2641
61252W        W 4268  26.007  18.552   0.002 -0.1536 -0.1318  0.0633
61253W        W 4269  30.216  12.521  28.003 -0.0871 -0.3557  0.2190
61254W        W 4270   2.377  30.940   4.867  0.2823  0.1898 -0.1150
61255W        W 4271  15.669  22.338  25.940  0.2178  0.0139 -0.0458
61256W        W 4272  22.321  20.946  16.187 -0.0369 -0.1365 -0.0523
61257W        W 4273   5.765  26.981  14.076 -0.3169 -0.1393 -0.4667
61258W        W 4274  11.637  22.037  28.885  0.0414 -0.0459  0.4387
61259W        W 4275  32.576  20.629  28.613  0.0647  0.2322 -0.0884
61260W        W 4276  13.497  27.250   7.509  0.0841  0.2066 -0.2135
61261W        W 4277   3.628   9.033  18.022  0.2507 -0.1588  0.4145
61262W        W 4278   3.100  15.868   6.414 -0.2173  0.4310 -0.1129
61263W        W 4279  30.151  34.272   3.909 -0.1503  0.0709  0.2408
61264W        W 4280  26.754  17.673  18.683 -0.1009 -0.0064 -0.3662
61265W        W 4281  24.609  26.352   4.398 -0.1476 -0.2387  0.0089
61266W        W 4282  30.451  30.077  22.412  0.3364  0.1337  0.0199
61267W        W 4283  34.245  16.842  21.726 -0.1475 -0.5028  0.0655
61268W        W 4284  31.948  25.296  18.595 -0.3573 -0.0022 -0.0385
61269W        W 4285  32.451  12.759  17.260  0.1238  0.0547  0.1781
61270W        W 4286  10.739  26.604   8.720  0.1764  0.0301 -0.0018
61271W        W 4287  27.997  23.851  10.625  0.1550  0.0495  0.1119
61272W        W 4288   5.256  33.889   0.547  0.1120 -0.0674  0.0243
61273W        W 4289   7.684  22.080  28.742 -0.0338  0.2030  0.4091
61274W        W 4290   5.445  34.164   5.856  0.2035 -0.3906  0.1490
61275W        W 4291   2.697  23.547  15.281 -0.0281  0.0485 -0.0951
61276W        W 4292   9.173   4.547  22.624 -0.1269 -0.1763 -0.3729
61277W        W 4293  23.352   3.364   2.405 -0.1578  0.1467 -0.0151
61278W        W 4294  33.163  33.464   8.319 -0.0816  0.0555  0.3014
61279W        W 4295  12.442  15.534  22.249 -0.1261 -0.1724 -0.1825
61280W        W 4296   4.001  20.972   2.479  0.0735  0.3011  0.0216
61281W        W 4297  27.690  11.501  18.680 -0.2586 -0.2749 -0.0856
61282W        W 4298  30.310  23.088   6.141 -0.0852 -0.1689 -0.2691
61283W        W 4299  16.762  27.393   8.116  0.1127  0.0459  0.0813
61284W        W 4300  22.036  17.432  16.111 -0.1919 -0.2625 -0.0246
61285W        W 4301  13.305  32.593  16.892 -0.1917  0.2120  0.4080
61286W        W 4302  31.733  17.980   8.401  0.2508 -0.2137  0.1427
61287W        W 4303   9.949  21.847  28.211  0.0444 -0.0870 -0.3097
61288W        W 4304  31.961  25.404   3.200 -0.0492  0.0648  0.3816
61289W        W 4305   7.526  25.539  26.784 -0.0959  0.1993  0.0150
61290W        W 4306  28.629  12.685  25.525  0.5301  0.2551  0.0285
61291W        W 4307  33.988   9.387   9.993  0.1448 -0.1095 -0.1569
61292W        W 4308  26.358  11.624  16.191  0.0272  0.1102  0.1230
61293W        W 4309  20.380   4.929  16.261  0.3292  0.0255  0.0162
61294W        W 4310  10.447  18.912  26.027 -0.1446  0.1454 -0.0435
61295W        W 4311   9.771  31.732   7.246 -0.0049  0.1995 -0.0383
61296W        W 4312   8.862  34.757   1.026  0.0399 -0.1184  0.1654
61297W        W 4313   1.486  21.795   0.416 -0.0000  0.0667  0.1134
61298W        W 4314   9.199  17.778  25.927  0.3966 -0.1369 -0.0910
61299W        W 4315   8.351  19.272   7.324  0.1645 -0.0307 -0.1464
61300W        W 4316   9.595  32.184  27.877 -0.2375 -0.2599 -0.0654
61301W        W 4317  29.497   7.783  20.434 -0.0853 -0.3123  0.2003
61302W        W 4318  24.773  26.307   8.365 -0.0093 -0.0814  0.0224
61303W        W 4319  10.676  10.538  25.213  0.0705 -0.0714  0.1389
61304W        W 4320  21.507   4.928  19.829  0.0303 -0.4567  0.1254
61305W        W 4321   0.746  22.690  25.812  0.2850  0.0801  0.0404
61306W        W 4322  11.974  16.964   6.824 -0.2230  0.4659 -0.0519
61307W        W 4323  33.694   1.661  29.172 -0.4908  0.4342 -0.2714
61308W        W 4324   7.416  11.783   7.691 -0.3229  0.3308  0.1381
61309W        W 4325  28.873   6.582  10.608  0.1475  0.0343 -0.2953
61310W        W 4326  25.618  22.579  28.139 -0.0324 -0.0236  0.0315
61311W        W 4327  14.151  19.540  27.867 -0.1298  0.2458  0.0841
61312W        W 4328  24.337  27.356   7.668  0.1016  0.1393  0.1301
61313W        W 4329  18.289  17.497   6.235  0.0139 -0.1987 -0.1606
61314W        W 4330   2.941  14.473  27.107  0.0757  0.0917 -0.2098
61315W        W 4331  19.395  23.838  27.423 -0.1350 -0.1089 -0.1761
61316W        W 4332  25.743   1.051   8.645  0.0451  0.1157  0.1373
61317W        W 4333  29.365  21.349   2.146 -0.0035  0.1791 -0.0385
61318W        W 4334  25.094  24.907   2.721 -0.3526 -0.1406 -0.2319
61319W        W 4335  28.093  14.005  14.643  0.3352 -0.0596  0.0660
61320W        W 4336  18.546   9.393  28.564 -0.5445  0.2176  0.2796
61321W        W 4337  11.453  15.226  22.149 -0.0341 -0.1285  0.0774
61322W        W 4338   2.052  30.272  16.563  0.1473 -0.0595  0.2433
61323W        W 4339  28.994   6.830   0.013 -0.3461 -0.1732 -0.0590
61324W        W 4340  14.471   3.568   2.598  0.1179 -0.0357  0.0297
61325W        W 4341  18.856  13.609  27.229  0.2037  0.1519  0.0547
61326W        W 4342  14.533  20.028   7.152 -0.1817 -0.0751 -0.0901
61327W        W 4343   4.595  20.172   4.584 -0.0886  0.1303 -0.0741
61328W        W 4344   3.469  19.037  22.611 -0.2108  0.2775 -0.0411
61329W        W 4345   3.998  21.878   5.963  0.1702  0.1689 -0.1710
61330W        W 4346  18.070  29.586   6.982 -0.1783  0.2888  0.1722
61331W        W 4347  28.927  25.311   4.683 -0.1970 -0.3161  0.0606
61332W        W 4348   3.824  19.881  25.664 -0.3146  0.4121 -0.0184
61333W        W 4349   5.100  17.020   8.787 -0.1291 -0.0664  0.1824
61334W        W 4350   0.777   2.319  16.478  0.0143  0.0219  0.0118
61335W        W 4351   9.130  17.914  23.740 -0.2275  0.2735 -0.2382
61336W        W 4352   0.970  27.461  18.014  0.1062  0.0947  0.2265
61337W        W 4353  14.883   1.963   2.022  0.0952 -0.4067 -0.2985
61338W        W 4354  19.130   9.542  23.001  0.2323  0.1409 -0.1702
61339W        W 4355  26.818  29.881  26.643 -0.0407  0.0320 -0.1107
61340W        W 4356   5.684  25.220  24.632 -0.1577 -0.1728  0.0308
61341W        W 4357   2.995  29.323   9.299  0.0620 -0.0806  0.0773
61342W        W 4358  13.259  32.521   7.194  0.0018  0.0441  0.3330
61343W        W 4359  32.341   6.533  24.587  0.0888  0.1709 -0.2863
61344W        W 4360   5.466  21.827   1.517 -0.0383 -0.0869 -0.1951
61345W        W 4361   4.707  21.571  24.990  0.1109 -0.1224  0.0873
61346W        W 4362   7.721  18.258   3.333 -0.0394 -0.1038 -0.1208
61347W        W 4363  32.127   8.262  19.735 -0.3174 -0.1601 -0.0130
61348W        W 4364  32.924  13.172   0.345  0.1877  0.4155 -0.2446
61349W        W 4365  29.095  22.142  22.422  0.1568 -0.2319 -0.0085
61350W        W 4366  21.279   3.833  28.867  0.3687 -0.1633 -0.4461
61351W        W 4367  27.411  12.266  18.074 -0.1908  0.1290 -0.0963
61352W        W 4368   6.158   8.867   3.530 -0.1348  0.1128  0.0832
61353W        W 4369   2.329  13.654  28.061 -0.2706  0.3812 -0.1288
61354W        W 4370  27.360  28.234  23.377 -0.0255 -0.0200 -0.0513
61355W        W 4371  16.477  14.606  13.826  0.0306  0.2335  0.0703
61356W        W 4372   6.972  18.271   1.811 -0.3076  0.1980 -0.1433
61357W        W 4373  15.586   5.619  19.710  0.1341  0.0173 -0.1137
61358W        W 4374  10.040   0.082   7.124 -0.1352  0.5624  0.0616
61359W        W 4375  28.351  12.638  21.235 -0.0287  0.1620  0.0249
61360W        W 4376   9.948  13.935  22.234 -0.0280  0.0586 -0.0118
61361W        W 4377  23.205  21.280   1.483 -0.0340 -0.1216  0.2557
61362W        W 4378  22.057  23.412   1.713  0.1951 -0.1825  0.1169
61363W        W 4379  33.072  27.878   0.648  0.0761  0.0309 -0.1467
61364W        W 4380   6.815  10.354   1.951  0.2535  0.1579  0.1133
61365W        W 4381  10.942  20.367   0.210 -0.0341  0.1535  0.0410
61366W        W 4382   6.835  16.470  21.428 -0.3462  0.0819  0.2470
61367W        W 4383   4.551  32.178   5.383 -0.0621  0.1469 -0.5673
61368W        W 4384   6.735   9.888  10.381  0.0340  0.2794  0.0669
61369W        W 4385  30.888  23.122  15.388 -0.1808  0.1030 -0.1854
61370W        W 4386  29.161  16.454  28.598 -0.0332 -0.0488  0.0346
61371W        W 4387   0.084  21.674   1.744  0.3039  0.2026  0.2418
61372W        W 4388   3.823  14.797   6.779  0.1053  0.0640  0.1677
61373W        W 4389  21.271  11.418  28.020  0.2894  0.1306 -0.0875
61374W        W 4390   2.910   1.735   5.953 -0.1404  0.2451 -0.1369
61375W        W 4391   8.871  10.892   4.324  0.0325 -0.0030 -0.2335
61376W        W 4392  26.122  15.066  24.136  0.0205  0.0675  0.0395
61377W        W 4393   3.710  30.171   6.382  0.0169 -0.0063 -0.2958
61378W        W 4394   4.123  22.827  29.090 -0.5478  0.0831  0.0534
61379W        W 4395   1.011  18.050  18.346  0.0584  0.1450 -0.0047
61380W        W 4396  33.231   3.697   6.401  0.0661 -0.1459 -0.0648
61381W        W 4397  27.756  31.257   8.113 -0.0836 -0.0605  0.0159
61382W        W 4398  18.679  15.277  26.840  0.1469 -0.1293 -0.0997
61383W        W 4399  34.558  20.469  24.534  0.0860  0.0931  0.0111
61384W        W 4400  29.284  17.358   5.354 -0.1802  0.1391  0.1312
61385W        W 4401   0.036  19.549  22.295  0.1110  0.0272  0.1744
61386W        W 4402   7.377  19.047  16.787  0.3597  0.0326  0.1589
61387W        W 4403   4.044  25.182   0.079 -0.0488  0.1886 -0.0031
61388W        W 4404   6.614  22.098   1.142  0.0895  0.1690  0.0616
61389W        W 4405  10.974   9.091  26.794  0.1377  0.4094 -0.0512
61390W        W 4406   3.719  15.021  24.836 -0.2060  0.4847  0.1044
61391W        W 4407   0.789  25.394   2.733  0.1459  0.0539  0.3440
61392W        W 4408   7.147  15.616   7.211 -0.3125  0.3364  0.3507
61393W        W 4409   7.076  17.456  19.993  0.2751 -0.1598 -0.0708
61394W        W 4410  18.803  19.459  28.286 -0.0250 -0.1420 -0.0829
61395W        W 4411   3.484  29.362   7.636  0.0777  0.0719  0.1376
61396W        W 4412  13.514  29.704   2.773 -0.1060  0.2711  0.0791
61397W        W 4413  24.540  27.049  11.122  0.2814 -0.0324  0.2057
61398W        W 4414  33.441   8.884   9.139  0.0655  0.1276 -0.0137
61399W        W 4415  16.704  21.832   5.193 -0.0206 -0.1928 -0.2887
61400W        W 4416  13.089   4.468  27.812  0.1491  0.1591 -0.0696
61401W        W 4417  33.055  22.661   2.928 -0.0127 -0.2269 -0.2300
61402W        W 4418   0.851   6.537  25.330  0.1316 -0.0046  0.0522
61403W        W 4419   7.658  23.416   1.772  0.0401 -0.1826 -0.0970
61404W        W 4420  22.401   0.486  26.454 -0.0116 -0.4160  0.2177
61405W        W 4421  32.623  16.583   3.379  0.0361  0.1112  0.0894
61406W        W 4422   3.172  22.791   8.517  0.2360  0.3880  0.2067
61407W        W 4423   1.379  15.076   7.426  0.1664 -0.0178 -0.0023
61408W        W 4424  12.091  18.456  23.443  0.1051  0.1525  0.0481
61409W        W 4425  10.261  28.269   4.257  0.0046  0.3267  0.0287
61410W        W 4426  14.635  25.390  19.883  0.2879  0.0559  0.0046
61411W        W 4427  14.532  21.552  28.358  0.1898 -0.1311 -0.1989
61412W        W 4428  14.690  15.442   2.764  0.1899 -0.5653 -0.0063
61413W        W 4429  10.068  25.061   0.900  0.1152  0.2183 -0.0865
61414W        W 4430  25.054  15.089  25.616  0.1811  0.2884  0.0226
61415W        W 4431  13.884  19.148   4.744 -0.1334  0.1549  0.0169
61416W        W 4432  16.002  19.409  24.671 -0.1664  0.3169  0.0034
61417W        W 4433   8.632  19.915  25.317  0.5788  0.0317  0.0778
61418W        W 4434  31.628  10.232  20.270  0.0829  0.0928  0.2790
61419W        W 4435  20.899  14.151   4.952 -0.2243 -0.1915 -0.0144
61420W        W 4436  14.604  14.892   7.433  0.0304 -0.1499 -0.0762
61421W        W 4437  10.400  23.744  29.230  0.4453  0.2368 -0.0335
61422W        W 4438  15.065  22.643   8.300  0.0140 -0.1717  0.4090
61423W        W 4439  32.819  24.442  23.722  0.3233 -0.1097  0.1021
61424W        W 4440  28.628  27.003   8.043  0.0752  0.1657  0.2870
61425W        W 4441  12.353   6.943   1.991 -0.1075  0.2128 -0.3153
61426W        W 4442  32.935  12.737   5.406 -0.1942 -0.0432  0.0401
61427W        W 4443   9.293  18.004  28.181 -0.1229  0.3642 -0.0834
61428W        W 4444   3.417   0.816   4.392 -0.1472  0.3666 -0.1979
61429W        W 4445   4.523  33.723  22.688 -0.1360  0.0406 -0.0099
61430W        W 4446  27.628  18.347  21.549  0.0789 -0.0847 -0.1530
61431W        W 4447  32.589  22.293   7.241  0.1575  0.1313  0.0449
61432W        W 4448  11.765  15.848   0.515 -0.1733 -0.1153 -0.0294
61433W        W 4449  16.455  20.159   2.990  0.0088 -0.0394  0.5409
61434W        W 4450  26.148  18.541   9.899  0.3360 -0.0182 -0.4556
61435W        W 4451   3.935  12.080   9.327 -0.3369 -0.0774  0.0820
61436W        W 4452  23.649  31.085   6.560  0.0764 -0.1920 -0.1889
61437W        W 4453  23.871   5.497  24.797 -0.1217  0.1446  0.0697
61438W        W 4454   6.094  15.936   5.317 -0.3460 -0.3569  0.1965
61439W        W 4455  29.567  20.560   3.584 -0.0922 -0.4013 -0.0571
61440W        W 4456   9.783  27.208  23.493 -0.2936  0.2732 -0.0627
61441W        W 4457  26.505   2.473   8.723  0.0062  0.0269 -0.0563
61442W        W 4458  17.550  23.872  16.089 -0.0783 -0.0253  0.0020
61443W        W 4459  24.282   2.394   9.693  0.3125  0.2151  0.1228
61444W        W 4460  21.203  33.226   3.442  0.0417  0.0316  0.0248
61445W        W 4461  22.391  14.390   8.654 -0.2836 -0.0112  0.0733
61446W        W 4462  14.446  22.022   2.567  0.0177  0.0047  0.1672
61447W        W 4463  31.912  17.608  10.624 -0.1374  0.3683  0.1013
61448W        W 4464  29.368  21.328   8.193  0.2992  0.0335  0.0395
61449W        W 4465   2.166   8.383   2.317 -0.0132  0.0173  0.0352
61450W        W 4466   4.239  26.851   7.936  0.2827 -0.0599 -0.1435
61451W        W 4467   4.569  15.405  18.900 -0.0113 -0.2033  0.1907
61452W        W 4468  28.069   8.162   2.673  0.1566  0.0411  0.1011
61453W        W 4469  30.178   8.353   8.688 -0.2053 -0.1104  0.0229
61454W        W 4470  33.297  17.645  18.038 -0.2682  0.2662  0.2332
61455W        W 4471   2.099  11.294  22.414 -0.1042 -0.0922  0.2107
61456W        W 4472   3.615  22.558  27.262  0.1749  0.1726  0.2374
61457W        W 4473   1.327  28.019   7.204  0.0040 -0.1634 -0.1121
61458W        W 4474  17.773  20.121  25.481  0.3721  0.3901  0.1494
61459W        W 4475   6.925  33.955   7.182 -0.1131 -0.3397  0.0567
61460W        W 4476   5.140  14.294   6.582  0.0373  0.1684  0.2743
61461W        W 4477   2.001  33.528  10.131  0.0505  0.1355  0.1918
61462W        W 4478  30.133   8.085  20.462  0.1133 -0.1737 -0.0435
61463W        W 4479   6.237   4.034  23.254  0.1246 -0.0097 -0.1213
61464W        W 4480   0.794  31.595  19.069  0.2090 -0.0009 -0.2300
61465W        W 4481   5.540  10.674   4.325 -0.0127  0.2425 -0.0160
61466W        W 4482  21.720  28.620   7.654  0.0987 -0.2634 -0.0300
61467W        W 4483  30.123  10.298   2.996  0.0930  0.0132  0.2069
61468W        W 4484   6.003  24.545   9.058  0.3275 -0.2199  0.1544
61469W        W 4485   5.339   5.974   8.197  0.0455 -0.1985  0.0441
61470W        W 4486  25.288  29.055   3.442 -0.0573  0.0357  0.2582
61471W        W 4487  26.997   4.799  29.280 -0.0766 -0.0750  0.0272
61472W        W 4488  12.157  22.147   4.676  0.0462 -0.0337  0.0278
61473W        W 4489  32.261  10.597   7.220 -0.0972  0.0666 -0.1923
61474W        W 4490  32.375  29.870  24.275  0.0572  0.1659  0.2125
61475W        W 4491  28.851  24.325  22.476  0.0603  0.2892  0.2407
61476W        W 4492   0.823   4.739   0.580  0.0727 -0.2333  0.0969
61477W        W 4493   4.455   1.129  28.244 -0.0037 -0.0802 -0.3679
61478W        W 4494   3.023  11.264   7.690 -0.0995  0.0057  0.0784
61479W        W 4495  22.140  30.109   7.911 -0.0707  0.1875 -0.1238
61480W        W 4496  31.668  13.260   3.413 -0.2406 -0.0186 -0.0957
61481W        W 4497  32.119  27.789   4.805 -0.0198  0.0526 -0.1368
61482W        W 4498  12.325  27.427   3.407  0.0924 -0.2594 -0.0830
61483W        W 4499  14.066  12.351  27.458 -0.1479  0.2308 -0.4373
61484W        W 4500  13.396  33.084   2.009  0.0558 -0.2648  0.0741
61485W        W 4501  11.049  32.991   2.293  0.2802 -0.3909 -0.1166
61486W        W 4502   3.854  26.856   8.867  0.0548 -0.0238  0.3616
61487W        W 4503   1.698   9.152   2.925  0.0920  0.2213  0.0670
61488W        W 4504   4.839  23.943   1.851 -0.0765  0.1563 -0.1595
61489W        W 4505   6.350  29.901   0.829  0.1199 -0.1893  0.0255
61490W        W 4506  30.197  28.112  20.949 -0.0531  0.1778 -0.0461
61491W        W 4507   3.694  15.312   2.309  0.0456  0.0331 -0.3118
61492W        W 4508  15.063  12.537  20.802  0.1171 -0.1681 -0.0566
61493W        W 4509   8.024  14.975  28.194  0.0321  0.0683  0.1786
61494W        W 4510  30.753  25.043   1.404  0.1295  0.2096 -0.1101
61495W        W 4511  21.118   9.752   1.416 -0.2563 -0.1405  0.0236
61496W        W 4512   4.763  19.582  25.946  0.0863 -0.2845 -0.0416
61497W        W 4513  33.149  30.414  27.867  0.0983 -0.2465 -0.1026
61498W        W 4514  30.544  19.160  26.547 -0.2810  0.0307  0.0619
61499W        W 4515  17.940  21.487   5.514  0.0580 -0.1441  0.2104
61500W        W 4516  18.931  23.905   9.161 -0.1958 -0.0712 -0.0405
61501W        W 4517  14.392  27.656   6.251 -0.3294  0.1585 -0.1449
61502W        W 4518   2.176   0.923   3.174  0.2460 -0.1142 -0.0119
61503W        W 4519   9.234  10.890   6.741  0.1346 -0.3036 -0.0907
61504W        W 4520   4.403  23.517   4.379  0.1547  0.1810  0.0822
61505W        W 4521  12.535  25.265   4.053 -0.4313  0.2694  0.0317
61506W        W 4522  10.343  16.916  28.263  0.4860 -0.1144  0.1394
61507W        W 4523   7.883  17.140  23.881  0.2677 -0.0398 -0.0480
61508W        W 4524  30.884  32.642   4.266 -0.0575 -0.0168  0.1361
61509W        W 4525   6.285  13.088   4.963  0.1296 -0.1336  0.0545
61510W        W 4526   9.256  18.129   8.731 -0.2499 -0.1115 -0.1873
61511W        W 4527  11.975  25.460   5.249 -0.2087 -0.1774 -0.0494
61512W        W 4528   4.040  24.196  26.802  0.1795  0.0592 -0.2900
61513W        W 4529   9.582  27.433   4.122  0.0383 -0.1166 -0.1527
61514W        W 4530   5.801   2.234   8.487  0.2079 -0.1802  0.0193
61515W        W 4531   2.731  14.001  17.283 -0.0483  0.0079 -0.0417
61516W        W 4532  20.808  19.263  27.579  0.1805  0.1220 -0.0672
61517W        W 4533  33.606  22.140  22.066  0.4108  0.1100 -0.2526
61518W        W 4534  24.714  20.976   4.832 -0.3549  0.3412 -0.0409
61519W        W 4535  11.778   1.080   4.813 -0.0296 -0.0582  0.0209
61520W        W 4536  29.522  15.220   4.511  0.0230  0.1672 -0.1358
61521W        W 4537   0.779  29.414  18.199  0.0739 -0.0460  0.0634
61522W        W 4538  34.094  19.542  28.400 -0.0745 -0.2067  0.0164
61523W        W 4539   7.974  20.395   0.970 -0.3452 -0.2218 -0.0447
61524W        W 4540  31.979  18.612   2.577  0.0764 -0.2593  0.1178
61525W        W 4541  11.858  19.550  29.196  0.0181 -0.0325  0.0271
61526W        W 4542   3.641   5.959   6.970  0.1788  0.1052  0.0270
61527W        W 4543  25.835   9.554   5.527 -0.1984  0.4539  0.4999
61528W        W 4544  32.896  30.675  10.551 -0.0876 -0.1653 -0.0188
61529W        W 4545  21.811  13.298   9.063 -0.1513  0.0940 -0.2530
61530W        W 4546  32.226  18.991  22.720  0.0066 -0.0558 -0.0070
61531W        W 4547   4.083  15.616  26.183 -0.2179  0.0687 -0.0951
61532W        W 4548  15.804  26.983  28.433  0.0463  0.2367 -0.0489
61533W        W 4549  15.565   9.856  28.765 -0.2202  0.0470 -0.0370
61534W        W 4550   7.006  14.957   1.654  0.1345  0.2579  0.6582
61535W        W 4551   5.873   0.381   5.387  0.0597  0.1591  0.2066
61536W        W 4552  27.543  27.026   7.366 -0.2647  0.1822  0.3915
61537W        W 4553  34.010   9.662   0.603  0.1093  0.1423  0.1937
61538W        W 4554  14.427  13.612   4.880 -0.3689  0.0186 -0.0118
61539W        W 4555   0.353  18.878  28.064  0.1548  0.0532  0.2141
61540W        W 4556  28.971  11.544  26.087  0.1128  0.2337 -0.3004
61541W        W 4557  32.037  22.308  19.410  0.0726  0.0606  0.1127
61542W        W 4558   4.904  11.057   7.440  0.0623  0.0896 -0.0262
61543W        W 4559   6.144   1.680   8.625 -0.1504  0.2667  0.0361
61544W        W 4560  26.714  18.829   8.853 -0.3208  0.0089  0.1758
61545W        W 4561  17.316  14.713  25.019  0.1885 -0.1404 -0.0941
61546W        W 4562  26.983  34.688  10.815 -0.0603  0.1887 -0.0228
61547W        W 4563   9.347  14.615  15.404  0.0120 -0.0385  0.3230
61548W        W 4564  12.663  16.503  23.007 -0.1969  0.1570  0.0362
61549W        W 4565  11.963  17.233  25.918  0.1301  0.1217  0.2733
61550W        W 4566   6.241  12.788   2.517 -0.3011  0.2096  0.2919
61551W        W 4567   9.185  23.271   7.322 -0.0337  0.0714  0.2475
61552W        W 4568   4.644  26.596  28.467 -0.0863 -0.1732 -0.0233
61553W        W 4569  21.687  29.123   5.340  0.0436  0.2380 -0.1443
61554W        W 4570  10.632  25.487   6.398  0.1751 -0.0487  0.0511
61555W        W 4571   3.684   1.757   8.405  0.0923 -0.0987  0.1092
61556W        W 4572   5.695   3.300  25.070  0.1588  0.2095  0.0008
61557W        W 4573  32.468  22.237   9.363  0.1566 -0.2859 -0.0100
61558W        W 4574  30.875  26.961   8.483 -0.0530 -0.2777  0.2652
61559W        W 4575   1.503  21.694   5.472  0.2208 -0.0959  0.1530
61560W        W 4576  10.625  17.700   9.081  0.1467  0.1598 -0.3204
61561W        W 4577  21.022  18.154   7.878 -0.0606  0.2634 -0.1601
61562W        W 4578  34.021  17.087   2.925  0.4869 -0.0777 -0.1149
61563W        W 4579  33.777  19.407   9.805  0.0143  0.2481  0.1136
61564W        W 4580   0.067  24.233   4.556  0.2088  0.0892  0.2587
61565W        W 4581  14.590  16.588  21.516  0.1653  0.0720  0.3458
61566W        W 4582  31.849  27.178  16.040 -0.2483 -0.6167  0.0135
61567W        W 4583  32.581  17.513   9.482 -0.2266 -0.3090 -0.0216
61568W        W 4584  12.196  26.509   4.316 -0.0207 -0.0334 -0.0221
61569W        W 4585  32.763  24.985   7.401  0.1025  0.1411  0.1889
61570W        W 4586   1.100  20.087  27.995 -0.1110  0.2262  0.1676
61571W        W 4587  20.466  10.189  19.358 -0.1213 -0.0120 -0.1544
61572W        W 4588   3.066  19.622   5.429 -0.0974 -0.4572  0.0041
61573W        W 4589   4.652  33.429   5.088  0.0363  0.0879  0.1064
61574W        W 4590  31.237  22.036   0.754 -0.0169 -0.1265 -0.0504
61575W        W 4591   0.380  19.582   8.772  0.0523 -0.0541  0.0195
61576W        W 4592   1.258  25.818   2.372  0.1395 -0.1151 -0.0290
61577W        W 4593   9.624  14.020  27.164 -0.0542  0.0295  0.1092
61578W        W 4594   8.996  23.723   7.094  0.2333 -0.1366 -0.1054
61579W        W 4595  33.017  22.908   1.794  0.0817 -0.1491 -0.0018
61580W        W 4596  14.405   8.491   4.395  0.0392  0.0474  0.0693
61581W        W 4597   6.369  22.332  27.483 -0.0100 -0.1955 -0.1324
61582W        W 4598   9.376  25.746  25.660 -0.0994  0.0725 -0.0045
61583W        W 4599  21.058  24.362  18.679  0.1251  0.0050 -0.2413
61584W        W 4600  19.824  11.200   3.674  0.4042 -0.0658  0.0581
61585W        W 4601  20.495   1.205  21.536  0.0815 -0.0629  0.0323
61586W        W 4602  24.911  10.311   0.932  0.2155  0.0159  0.0554
61587W        W 4603   1.702  26.514  23.082  0.1598  0.1031  0.0572
61588W        W 4604  15.354  11.703   0.903 -0.0711 -0.4546  0.0458
61589W        W 4605  20.977  19.221  26.601  0.2142 -0.1845 -0.0278
61590W        W 4606  31.922   4.343  27.930  0.0404 -0.0488 -0.3806
61591W        W 4607  24.537   8.311   9.674 -0.0232 -0.1117  0.1740
61592W        W 4608   4.741  27.233   8.811  0.0455 -0.3979 -0.2819
61593W        W 4609  10.079   5.141   4.935 -0.0976  0.0548 -0.2140
61594W        W 4610  17.029   4.144   9.615  0.3284 -0.2112  0.2916
61595W        W 4611   3.978  18.316   5.432  0.4669  0.0485  0.6201
61596W        W 4612   1.299  28.491   5.543 -0.2837  0.2600  0.2003
61597W        W 4613  11.551  32.542  23.674  0.2672  0.2260 -0.0970
61598W        W 4614   7.843  15.368   4.698  0.0297 -0.0909  0.2494
61599W        W 4615  26.045  23.868  21.936 -0.3123  0.0035 -0.1752
61600W        W 4616  30.278  25.853   1.914 -0.0510 -0.1900  0.0165
61601W        W 4617  34.102  27.367   9.600 -0.2477 -0.2771  0.1799
61602W        W 4618  32.133  12.340   5.793 -0.5246  0.1728  0.0811
61603W        W 4619  30.462  28.278  27.076 -0.0202 -0.0494  0.1871
61604W        W 4620  20.112  32.219  10.401 -0.1456 -0.1437 -0.2566
61605W        W 4621  14.755   4.607  24.020 -0.1136 -0.2070 -0.1340
61606W        W 4622  16.891  21.273  21.291  0.0872 -0.2676 -0.0775
61607W        W 4623  30.303  26.624  10.782  0.3980  0.3258 -0.3150
61608W        W 4624   2.561  18.179   2.186  0.1473  0.1197 -0.0122
61609W        W 4625   6.683  11.974   8.091 -0.0578 -0.1029  0.2307
61610W        W 4626   4.854  18.897  22.215 -0.0674  0.0663  0.1560
61611W        W 4627   3.963  31.054  18.439  0.0278  0.1516  0.1544
61612W        W 4628   5.494   9.399  21.554 -0.0318 -0.2330 -0.3147
61613W        W 4629  30.389  18.486   3.978 -0.0413  0.1116 -0.0695
61614W        W 4630   1.703  27.597   7.269 -0.6393 -0.2373  0.2521
61615W        W 4631   0.772  19.360   8.259 -0.3733 -0.0352  0.3174
61616W        W 4632  11.021  13.775  27.660  0.2453 -0.3683  0.1076
61617W        W 4633   9.199  23.565  29.142 -0.1634 -0.3021  0.1379
61618W        W 4634  16.284  31.477   9.445 -0.1636 -0.0515 -0.0585
61619W        W 4635   5.667  18.342  20.918 -0.0377 -0.0675 -0.2137
61620W        W 4636   6.016   3.233   0.306  0.0882  0.0487  0.1449
61621W        W 4637  27.971  19.768   9.022 -0.1026  0.0401 -0.1506
61622W        W 4638  29.477  10.492   7.282  0.2530  0.1259  0.1938
61623W        W 4639  19.890  34.614  26.142 -0.0653  0.0059  0.0011
61624W        W 4640  11.228  21.769  12.702 -0.2448 -0.1767 -0.0535
61625W        W 4641  27.482   1.268   8.700  0.2699  0.0690 -0.0328
61626W        W 4642  15.165  27.896   6.606 -0.0449  0.1219 -0.0097
61627W        W 4643   3.525   0.398  25.281  0.1046 -0.0173  0.0024
61628W        W 4644  25.575  32.555  28.266 -0.0062 -0.2417  0.3486
61629W        W 4645  28.806  17.216   4.059  0.0491 -0.1878 -0.0834
61630W        W 4646  28.293  10.845  28.114  0.0484  0.4275 -0.0755
61631W        W 4647   1.791  27.092   3.059  0.0333  0.1796 -0.1141
61632W        W 4648  13.705  18.211  22.246  0.0810  0.0549 -0.1274
61633W        W 4649  19.745  32.204  22.578 -0.4290 -0.2477 -0.0387
61634W        W 4650   1.062  10.069  27.936 -0.1200  0.2572  0.1196
61635W        W 4651  13.212  20.232   5.700 -0.0541  0.1852  0.3554
61636W        W 4652  11.007  17.150   5.519 -0.3306 -0.2105 -0.2827
61637W        W 4653   1.306   4.882   3.261  0.2429  0.3205 -0.0822
61638W        W 4654  15.396   7.477  20.981 -0.3232  0.4084  0.0873
61639W        W 4655  32.091   3.171   9.621 -0.0078  0.1131 -0.0152
61640W        W 4656  27.516  17.244   6.039  0.1504  0.0483  0.1344
61641W        W 4657  23.007  20.445  27.741 -0.0109 -0.2143  0.2037
61642W        W 4658   3.103  21.835   3.803 -0.2991 -0.3157  0.1389
61643W        W 4659  32.005  25.915  16.971 -0.0054  0.2657 -0.0215
61644W        W 4660  12.503  10.571   3.796 -0.2374 -0.2436  0.0171
61645W        W 4661  20.740  17.933   8.371  0.1806 -0.0516  0.1276
61646W        W 4662   4.627  29.116   8.428  0.0054 -0.1261  0.2778
61647W        W 4663  11.226  31.043  27.899  0.1433 -0.0493  0.0456
61648W        W 4664  29.503   6.324   9.861 -0.0454  0.1206  0.4315
61649W        W 4665  19.665  17.498   9.349  0.3768  0.2316  0.2277
61650W        W 4666   4.650  21.020   6.515 -0.3997 -0.1595 -0.0333
61651W        W 4667   7.881  27.117   9.269 -0.1692 -0.0437 -0.0533
61652W        W 4668   3.008  18.662   6.627  0.0020 -0.0416  0.3954
61653W        W 4669   8.520  16.719  23.879  0.0326 -0.0756 -0.2536
61654W        W 4670  23.912  28.103   4.198  0.4152 -0.0014  0.3380
61655W        W 4671   4.402  27.020  24.717  0.0746 -0.1541  0.0189
61656W        W 4672  32.808  33.413  23.088  0.1603  0.0034 -0.1263
61657W        W 4673  33.520   2.230   6.242  0.2128 -0.1416 -0.0091
61658W        W 4674  24.160  33.967   2.187 -0.2499 -0.0313  0.2226
61659W        W 4675  34.222  28.372  14.917 -0.4361  0.0182 -0.0071
61660W        W 4676  11.290  11.189   9.707 -0.2525 -0.1942  0.2170
61661W        W 4677  24.030  10.946  24.973 -0.0013  0.1105  0.2669
61662W        W 4678   8.298  28.723  17.666 -0.2191  0.2631  0.1204
61663W        W 4679  19.170   6.223  22.671 -0.0649  0.1142 -0.4034
61664W        W 4680   3.242   5.979  14.054 -0.2098 -0.1536 -0.0270
61665W        W 4681   7.972  34.612  29.081  0.3427  0.0969 -0.1329
61666W        W 4682  14.411  22.028  27.544  0.2195 -0.0939  0.0783
61667W        W 4683  16.622  19.682   6.467  0.1206 -0.1652  0.1222
61668W        W 4684   0.774  10.264   7.804 -0.0036  0.1179  0.2072
61669W        W 4685  28.332  14.619  26.980 -0.1910  0.3107 -0.1777
61670W        W 4686   3.764  25.963   9.895  0.3430  0.1970 -0.2385
61671W        W 4687  34.629   0.205   9.895  0.2452 -0.1891  0.0657
61672W        W 4688  25.765  29.828  28.959 -0.0786 -0.2903  0.2316
61673W        W 4689  10.282  16.024  13.170 -0.0415 -0.0510 -0.2565
61674W        W 4690  23.150  27.187   4.918 -0.4903 -0.0219  0.3372
61675W        W 4691  29.427  19.510   6.135 -0.1671  0.0940 -0.1521
61676W        W 4692  20.993  17.765   1.270 -0.2972  0.1287  0.0479
61677W        W 4693  16.252  22.493  28.102 -0.0607 -0.0069  0.2067
61678W        W 4694  10.663  14.853   9.256 -0.2178 -0.2153 -0.2384
61679W        W 4695  12.208  28.649   9.072 -0.0679  0.2781  0.1411
61680W        W 4696   8.168  21.454   8.328  0.2878  0.3064  0.0312
61681W        W 4697   5.641  21.605  16.629 -0.0006 -0.0583  0.0360
61682W        W 4698   9.621  13.653  19.665  0.0599  0.1868  0.2251
61683W        W 4699  29.803  25.165  21.887 -0.3567  0.2357  0.2055
61684W        W 4700   6.878  19.623  22.398 -0.1318 -0.0350 -0.0262
61685W        W 4701  11.310  17.677   1.604  0.1100 -0.2478 -0.0425
61686W        W 4702  22.430  23.374  18.629  0.0045  0.0473  0.0270
61687W        W 4703  23.426  20.163  29.278 -0.0672  0.0365  0.1411
61688W        W 4704  29.308  15.723   6.904  0.5319 -0.2016 -0.1020
61689W        W 4705   9.200  28.382  24.372 -0.2420  0.0658  0.2224
61690W        W 4706  30.155  25.204   0.225 -0.0211 -0.0390 -0.0291
61691W        W 4707  11.578  17.942  17.943 -0.0530  0.0165 -0.0826
61692W        W 4708  26.860  10.460   5.671 -0.1115  0.1345 -0.0129
61693W        W 4709   3.987  24.109   3.073 -0.0405  0.1613 -0.2220
61694W        W 4710   4.801  16.620   5.942  0.0055  0.2254 -0.1462
61695W        W 4711   8.038   5.503   1.559  0.2515 -0.0560 -0.1772
61696W        W 4712  24.394  11.280   9.174  0.2531  0.1927 -0.1249
61697W        W 4713   3.816  13.386  14.834 -0.1180  0.1051  0.1445
61698W        W 4714  11.163  22.785  17.883 -0.2112  0.2225  0.0818
61699W        W 4715  14.443  15.810   0.275  0.1165  0.2023 -0.0115
61700W        W 4716   6.752  32.506   3.816 -0.0042  0.1303  0.0872
61701W        W 4717  30.506  22.858   5.209 -0.0875  0.0561  0.2239
61702W        W 4718   8.430  15.998   6.052 -0.1987  0.1117  0.3584
61703W        W 4719  32.400  16.988   8.338  0.3164  0.0693 -0.2659
61704W        W 4720  15.117  19.487  19.163 -0.3412 -0.0862 -0.1489
61705W        W 4721   1.238  16.182   0.807  0.1083 -0.2929 -0.1755
61706W        W 4722  18.136  15.945   2.125 -0.0769  0.2666 -0.2812
61707W        W 4723  16.376  23.137   3.207  0.1575  0.1788 -0.2255
61708W        W 4724   7.794  25.056  23.542  0.0496  0.1948 -0.1012
61709W        W 4725  25.177  12.861  21.683 -0.2798 -0.2227 -0.0094
61710W        W 4726  25.874  23.788   7.652 -0.0913  0.0093  0.0898
61711W        W 4727   1.190  20.128   0.017  0.1359  0.0977  0.1217
61712W        W 4728  15.793  17.313   3.865  0.3652  0.3025 -0.3512
61713W        W 4729  32.224  30.092   7.481 -0.2607 -0.1030 -0.0288
61714W        W 4730  30.406  18.212  15.934  0.2342  0.2298 -0.0011
61715W        W 4731  22.634  20.815   4.776  0.3237  0.1753 -0.0246
61716W        W 4732  10.909  15.914   7.476  0.0492 -0.0498 -0.1097
61717W        W 4733   9.348  19.645   7.172  0.0052  0.0177  0.2354
61718W        W 4734  33.681  25.844   0.991 -0.1168 -0.2174  0.1516
61719W        W 4735  32.166   9.821   0.568  0.0819  0.0777 -0.0507
61720W        W 4736   7.855  17.862   4.959 -0.2815 -0.1593  0.0145
61721W        W 4737   6.415  31.083  26.529  0.2860 -0.1082  0.2336
61722W        W 4738  31.452  10.045   8.787  0.0368  0.1016  0.0521
61723W        W 4739   9.254   5.314  19.576 -0.0973  0.3389 -0.3509
61724W        W 4740   5.056  22.479  26.605  0.2488  0.0504  0.2468
61725W        W 4741  10.525  15.100  24.379  0.1010 -0.2185  0.0446
61726W        W 4742  20.611   1.800   8.505  0.0230 -0.1089  0.2487
61727W        W 4743  17.522  19.240  26.467 -0.2473  0.5122  0.0587
61728W        W 4744  28.302  16.933  28.849  0.0927  0.1767  0.2322
61729W        W 4745  33.759  17.225   6.757  0.2255 -0.0557  0.0839
61730W        W 4746  32.749  15.990  28.503  0.2356 -0.3223 -0.1650
61731W        W 4747  31.652  19.350   3.466  0.1344 -0.0502  0.0398
61732W        W 4748  13.638   6.921  25.988  0.3026 -0.1822 -0.3628
61733W        W 4749   9.971  13.162   2.736  0.1072 -0.0359  0.2584
61734W        W 4750   5.404  16.415   4.731 -0.1703  0.1515 -0.1843
61735W        W 4751   2.324  23.474  10.206  0.1106  0.0957 -0.1833
61736W        W 4752  26.130  11.110  11.061 -0.0449 -0.3262  0.0092
61737W        W 4753  24.678  33.138  10.686 -0.0778 -0.0934 -0.0313
61738W        W 4754  30.228   6.063  21.477  0.3800  0.0283  0.1072
61739W        W 4755  32.274  21.340   3.586 -0.4153 -0.0996 -0.1310
61740W        W 4756   9.687  21.004   4.801 -0.1576  0.0874 -0.0900
61741W        W 4757  31.789  30.686   9.351  0.0805 -0.3128 -0.1289
61742W        W 4758  12.208   2.448   2.026  0.0617  0.2104  0.2511
61743W        W 4759  27.435   0.675   3.105 -0.3211 -0.0480  0.4817
61744W        W 4760  34.487  23.303   2.842 -0.1791 -0.1781 -0.0064
61745W        W 4761  27.672  29.759  28.398  0.0655  0.0301 -0.0096
61746W        W 4762   1.916  26.957  24.735 -0.1872 -0.0554 -0.2812
61747W        W 4763  26.276   4.615   5.827 -0.3472 -0.3058  0.0956
61748W        W 4764   9.662  32.867   2.208 -0.0042 -0.1020  0.0675
61749W        W 4765   1.702  23.403   3.768 -0.2508 -0.1585  0.2822
61750W        W 4766  24.680   3.091   6.559 -0.0822  0.1340 -0.1003
61751W        W 4767  28.624   6.708  28.841 -0.1222  0.1408 -0.0519
61752W        W 4768  33.533  30.608  19.751 -0.1485 -0.1736 -0.0239
61753W        W 4769  30.504  19.196   8.754 -0.0609 -0.3056  0.2107
61754W        W 4770   2.616  27.051   9.350  0.1357 -0.3379  0.1202
61755W        W 4771  28.136  13.001   4.015  0.2685 -0.1656  0.0608
61756W        W 4772  30.924  20.744   6.258  0.0235 -0.0663  0.0206
61757W        W 4773  12.178  15.425   8.269  0.0103 -0.0143 -0.0220
61758W        W 4774   9.875  26.695   0.265  0.1930 -0.0515  0.0574
61759W        W 4775  33.234   7.202   1.351  0.1132 -0.0079  0.1403
61760W        W 4776  29.655  34.265   6.813 -0.1318 -0.3766  0.0294
61761W        W 4777   7.919  20.361  22.153 -0.2008  0.2012 -0.4106
61762W        W 4778  11.261  22.232   8.320 -0.0502  0.2037  0.1007
61763W        W 4779  27.286  18.007   4.494 -0.0916 -0.1166  0.1697
61764W        W 4780  21.277  22.144  26.556 -0.0640  0.1867 -0.3271
61765W        W 4781  23.598  27.019   6.346 -0.4736 -0.0929 -0.0393
61766W        W 4782  12.184   5.126  16.886  0.1828 -0.0410  0.1563
61767W        W 4783   1.396   2.928   6.296  0.0679  0.2073  0.4109
61768W        W 4784   7.071  18.244   1.271 -0.1161  0.1066  0.3072
61769W        W 4785   9.778  11.105  13.842 -0.1298 -0.2449 -0.0256
61770W        W 4786   8.385   8.486  29.106  0.1853 -0.2554  0.2862
61771W        W 4787   4.959  18.986   2.602  0.1882  0.0006 -0.0769
61772W        W 4788  10.184  25.431  15.727  0.2674  0.0116 -0.0302
61773W        W 4789  13.397  24.303  22.694 -0.1073  0.0607 -0.2186
61774W        W 4790   7.414  20.539   2.692 -0.2005 -0.1581 -0.0832
61775W        W 4791  10.145  30.235   0.469 -0.0008 -0.0567 -0.0707
61776W        W 4792  30.521  19.239  29.174  0.1825 -0.3005 -0.0266
61777W        W 4793   9.164  23.270   2.694  0.0460  0.1452 -0.0465
61778W        W 4794   4.462  25.324   4.032 -0.2316 -0.2211 -0.0504
61779W        W 4795   6.672  15.774   7.426  0.3025  0.2112 -0.0083
61780W        W 4796  26.783  29.053  27.566 -0.2113 -0.2708 -0.1625
61781W        W 4797  31.773   2.729   8.359  0.0445  0.1326  0.0359
61782W        W 4798   9.401  27.107   5.071 -0.2832  0.1899 -0.0378
61783W        W 4799   1.167  14.637   4.762  0.1997 -0.1156 -0.0399
61784W        W 4800  30.686   8.236   7.350  0.2296  0.3628 -0.0558
61785W        W 4801   8.065  19.273   5.633  0.2546 -0.0736  0.0024
61786W        W 4802  10.053  16.992   4.461 -0.1465  0.2049 -0.1633
61787W        W 4803  28.491  11.319  26.174 -0.0139 -0.2261 -0.4009
61788W        W 4804  15.052   9.113  22.945  0.2072  0.2014 -0.2666
61789W        W 4805  23.144  19.139  28.380  0.1986  0.3504 -0.1693
61790W        W 4806  16.628  23.344  14.893 -0.3718  0.1265  0.3066
61791W        W 4807  28.939  31.493  27.213 -0.0376  0.0827  0.3630
61792W        W 4808  24.325  14.167   7.032 -0.1622 -0.2039 -0.0518
61793W        W 4809  24.140  10.827   8.836  0.1134 -0.3091 -0.1683
61794W        W 4810  21.279  27.491  27.540  0.0602  0.3483 -0.2454
61795W        W 4811   0.092  15.351   1.005  0.0175 -0.0838  0.1164
61796W        W 4812  33.018  21.356   6.581  0.2679 -0.3365  0.0343
61797W        W 4813  13.817  20.231   4.256 -0.2114 -0.1981  0.2146
61798W        W 4814   0.876  16.907  19.154  0.3786 -0.2336  0.2379
61799W        W 4815  24.882  25.056   0.896  0.3321 -0.0892 -0.3030
61800W        W 4816   6.463  13.664   7.128  0.0238 -0.2216 -0.0299
61801W        W 4817   6.213   5.575   4.785  0.2775 -0.1466 -0.1727
61802W        W 4818   8.411  30.391  14.165 -0.2229  0.2122 -0.2029
61803W        W 4819  17.312  28.784  25.187  0.3849 -0.3094 -0.0980
61804W        W 4820  32.103  16.829  15.195 -0.0016 -0.2971  0.0440
61805W        W 4821  11.911  17.858  25.170  0.0490 -0.1847  0.0179
61806W        W 4822  30.295  21.300  21.413  0.0725  0.1675  0.3978
61807W        W 4823   2.564  11.827  26.838  0.5876 -0.2974  0.0756
61808W        W 4824  30.679  11.888   8.360  0.1722  0.0772  0.1268
61809W        W 4825   4.404  22.900  24.777 -0.2976  0.0068  0.0379
61810W        W 4826   4.391  13.084   6.471  0.0325 -0.1899  0.1769
61811W        W 4827  14.174  11.432  17.042  0.0549 -0.0698 -0.0717
61812W        W 4828  21.761  25.770   5.108 -0.1112 -0.2250  0.3349
61813W        W 4829  25.709  18.504   7.410 -0.3232  0.0469 -0.3634
61814W        W 4830  28.876  20.214  25.270 -0.2263  0.2062  0.2434
61815W        W 4831   4.612  26.634  27.884  0.1225  0.2232 -0.0446
61816W        W 4832  11.814   9.117   8.489 -0.0463 -0.0713 -0.3937
61817W        W 4833   1.299  18.805   8.233  0.1168 -0.0487  0.2824
61818W        W 4834   8.764  22.015   2.238  0.0221 -0.1967  0.3379
61819W        W 4835  33.184  14.986   8.525 -0.1024  0.0657 -0.1155
61820W        W 4836   4.167  14.218   5.326  0.1523  0.0459  0.2554
61821W        W 4837   3.820  16.102   1.670 -0.0060  0.1491 -0.3055
61822W        W 4838  21.002   7.472   8.072  0.1999 -0.1533  0.2048
61823W        W 4839   4.403  24.609  28.589  0.0200 -0.1395 -0.2322
61824W        W 4840  26.311  21.341  26.409 -0.0668  0.0482  0.0620
61825W        W 4841  32.706   2.972   7.491  0.0634 -0.1425  0.3198
61826W        W 4842  17.639   6.748  20.376  0.1222 -0.1430  0.0099
61827W        W 4843  23.837  27.671  29.015 -0.4091  0.0191 -0.0193
61828W        W 4844   7.846  22.232  27.468 -0.3227  0.1515  0.2494
61829W        W 4845   6.766   4.871  21.683 -0.0871 -0.2141  0.3602
61830W        W 4846  17.384  21.491   8.681 -0.1252  0.0506 -0.0292
61831W        W 4847   0.223  13.614   6.384  0.2736 -0.1109 -0.0847
61832W        W 4848  34.070  28.215   7.178 -0.2451 -0.2215 -0.4006
61833W        W 4849   2.658  15.634   6.810  0.2771  0.3096 -0.1505
61834W        W 4850  10.192  17.452   3.062 -0.0533  0.1612  0.1953
61835W        W 4851   4.662  10.232  28.816  0.1168  0.0376  0.0863
61836W        W 4852  32.596  28.511   5.640  0.0453 -0.2292 -0.2063
61837W        W 4853  19.685  16.400  25.557  0.1941 -0.2944  0.1763
61838W        W 4854  30.364  13.656  10.160 -0.0289  0.2339  0.0647
61839W        W 4855   4.595  31.089   3.976  0.2349 -0.3563  0.1804
61840W        W 4856   1.503  27.277  26.427  0.4006  0.0992  0.2700
61841W        W 4857  33.000  17.281   5.864  0.1160  0.0504 -0.0927
61842W        W 4858  34.137   4.817   1.676  0.2025 -0.0586  0.1583
61843W        W 4859  27.889   9.728   3.362  0.0692  0.0269 -0.1392
61844W        W 4860  28.673  12.064   1.945  0.1262  0.2038  0.3774
61845W        W 4861  10.154  30.958   9.170 -0.0951  0.1258 -0.0398
61846W        W 4862   5.248  20.551   3.883 -0.0216 -0.0348  0.0081
61847W        W 4863   7.076  24.641  27.496 -0.0713  0.0840  0.2660
61848W        W 4864  27.912   6.575   3.763 -0.2280 -0.1564 -0.0360
61849W        W 4865   1.412  18.954  20.010 -0.0354 -0.0569 -0.0822
61850W        W 4866  32.009   2.209   2.574 -0.0331 -0.0435 -0.0271
61851W        W 4867   7.932  15.674   5.556 -0.2683 -0.1063  0.0801
61852W        W 4868   1.808  26.810   3.480 -0.0986 -0.0704 -0.4762
61853W        W 4869  27.359  19.000   6.715 -0.0716 -0.1701  0.0380
61854W        W 4870   7.496  26.226   6.407  0.1022  0.1146  0.1729
61855W        W 4871  31.058  29.392   3.407  0.1069 -0.2925  0.3374
61856W        W 4872  34.518   8.954  25.205 -0.3420 -0.0746  0.0453
61857W        W 4873   4.892  31.271   8.156  0.1730 -0.1215 -0.1094
61858W        W 4874   9.455   7.599   2.895 -0.0055 -0.0236  0.1607
61859W        W 4875  31.751  31.744   6.618 -0.0599 -0.0141 -0.0985
61860W        W 4876  14.847  10.533   6.104  0.1077 -0.2169  0.0994
61861W        W 4877  24.055  28.466   6.360 -0.3848  0.1168 -0.0238
61862W        W 4878   2.820   2.275   2.776  0.1536 -0.2213 -0.0873
61863W        W 4879  14.107  12.634   5.560 -0.0854  0.1304  0.0501
61864W        W 4880  22.013   1.316  22.416 -0.0061  0.2830 -0.1456
61865W        W 4881  34.512   9.131   8.193 -0.0632  0.0343 -0.2117
61866W        W 4882  22.300   7.331   6.535  0.0449  0.0454  0.0630
61867W        W 4883   0.370   1.639   5.068  0.0815 -0.0268  0.2715
61868W        W 4884  29.120  34.314   6.826  0.0082  0.0743  0.0364
61869W        W 4885  30.492  15.515  28.117  0.3249 -0.0908 -0.3001
61870W        W 4886  13.819  29.087   6.270 -0.0531 -0.1259 -0.1892
61871W        W 4887  24.147   4.972  11.052 -0.1990  0.0445 -0.2240
61872W        W 4888  33.567  21.939   8.519  0.0461  0.0437 -0.2549
61873W        W 4889   3.015   0.019  27.842 -0.0034  0.0682  0.0026
61874W        W 4890   8.207  24.056  23.923 -0.2076  0.0616  0.2378
61875W        W 4891  23.513  10.070   7.819 -0.3391  0.0334  0.0001
61876W        W 4892  34.190   9.955   4.779 -0.2277  0.1318  0.0401
61877W        W 4893  10.534   2.456   4.194  0.3291 -0.1665 -0.1232
61878W        W 4894  10.902  25.596  25.183  0.1025 -0.0862  0.0917
61879W        W 4895  15.481  33.396   4.266  0.0126 -0.0794  0.0960
61880W        W 4896  20.858  31.903   8.536 -0.4405  0.0829 -0.1353
61881W        W 4897  32.505  30.587   1.022  0.1197  0.0448 -0.1016
61882W        W 4898   4.704  16.776   9.186 -0.2845 -0.2245  0.1932
61883W        W 4899   7.347   7.161  19.834  0.3337 -0.1619  0.2222
61884W        W 4900  24.564  27.244  17.436 -0.0433 -0.2567  0.0352
61885W        W 4901   6.835  18.788  27.736 -0.1194 -0.0412 -0.0097
61886W        W 4902  34.755  17.103   2.534  0.0745  0.1841  0.0289
61887W        W 4903  34.609  18.949   9.761 -0.1134  0.1154 -0.2968
61888W        W 4904  10.901  15.677   5.385 -0.0509 -0.0306  0.0479
61889W        W 4905   2.679  24.204   3.061  0.0686 -0.1239  0.1357
61890W        W 4906   9.869  18.005   0.567  0.2973 -0.2125 -0.0792
61891W        W 4907  33.263   4.329  20.391 -0.0713 -0.1721  0.1987
61892W        W 4908  20.478  21.195  29.172  0.0448  0.0234  0.2456
61893W        W 4909   0.292  20.365  19.401 -0.2403  0.0314 -0.0230
61894W        W 4910  15.251  13.843   7.066 -0.1109  0.0336  0.4681
61895W        W 4911  21.531  12.308  20.196  0.2760  0.0507 -0.3823
61896W        W 4912  11.471  20.083   1.493  0.0755  0.0548  0.3434
61897W        W 4913   2.357  13.188   9.728  0.0655  0.1456 -0.1940
61898W        W 4914  10.057   6.596   9.789 -0.0792  0.3060 -0.0727
61899W        W 4915   6.825  21.910  29.204 -0.0911 -0.1082  0.2631
61900W        W 4916   1.886  20.667  25.378  0.1039 -0.0942  0.1735
61901W        W 4917  32.532   9.994   4.531  0.0836  0.2320  0.2264
61902W        W 4918  17.379   3.355  21.226  0.1910 -0.2746  0.1017
61903W        W 4919   6.723   8.348   8.946 -0.1470 -0.0270 -0.1001
61904W        W 4920  12.173  19.452   1.307  0.0362 -0.2572 -0.0034
61905W        W 4921  11.369   5.427  26.156 -0.0121 -0.1532  0.1115
61906W        W 4922  15.558  21.829   0.040  0.3813 -0.1331 -0.0844
61907W        W 4923   9.455  22.059   8.449 -0.1927 -0.2090 -0.0007
61908W        W 4924   6.410  26.881   4.313  0.1775 -0.0897 -0.0840
61909W        W 4925  16.176  23.964   5.892 -0.2176  0.1987  0.0563
61910W        W 4926  19.339   4.971  29.062  0.0010  0.0189  0.3190
61911W        W 4927   8.395  22.996   3.988 -0.1656 -0.2621 -0.0332
61912W        W 4928  34.030  19.833   4.010  0.2283  0.0418 -0.0550
61913W        W 4929  16.244  17.882   5.508  0.0027  0.1892 -0.0278
61914W        W 4930  34.017  26.809   6.897 -0.0539  0.2901 -0.0358
61915W        W 4931   9.958   1.899   3.698 -0.1243 -0.0156  0.0779
61916W        W 4932  27.258  16.157  25.824 -0.1506  0.0079  0.1008
61917W        W 4933   6.002  24.974   2.102 -0.1783  0.1558  0.2137
61918W        W 4934  31.015  18.923   1.146 -0.1936 -0.1050  0.0125
61919W        W 4935  25.842  23.447   3.511 -0.2209  0.1759  0.1161
61920W        W 4936  28.618  21.153   5.447 -0.1436 -0.0826 -0.3117
61921W        W 4937   0.517   4.590  27.505  0.1668  0.0057 -0.0909
61922W        W 4938   8.599   0.520   8.618 -0.1023  0.2097 -0.0479
61923W        W 4939   8.862   3.648   3.073  0.0209  0.0004 -0.0352
61924W        W 4940  13.000  19.712   4.528 -0.1756 -0.0800 -0.5631
61925W        W 4941  20.063  29.226   7.715 -0.1257 -0.2763 -0.1408
61926W        W 4942  19.018   5.483   5.104 -0.1552 -0.0565  0.2334
61927W        W 4943   3.259  16.213   8.537  0.1382 -0.1123 -0.1268
61928W        W 4944  11.014  15.236  23.118  0.2047 -0.0149  0.1964
61929W        W 4945   3.652   5.842  16.682 -0.1384  0.2835 -0.0650
61930W        W 4946   6.458  17.628   0.994 -0.1102 -0.0968  0.3671
61931W        W 4947   3.898  27.964   2.165  0.1855 -0.3330 -0.0204
61932W        W 4948  27.159  17.354   8.290 -0.2254 -0.1031  0.2142
61933W        W 4949   9.685  11.108   9.249  0.1599  0.2183  0.1064
61934W        W 4950  11.575  18.168  26.831  0.0466  0.2457 -0.4622
61935W        W 4951   1.087   1.664  24.395  0.1505 -0.0799  0.1117
61936W        W 4952  10.436  34.009   4.381 -0.3884 -0.1825  0.1021
61937W        W 4953  32.278   8.232   4.463  0.2501  0.1353 -0.1139
61938W        W 4954  16.084   1.553   9.270 -0.0400 -0.0701  0.2241
61939W        W 4955  15.891  19.125  24.052  0.0245  0.3515 -0.3397
61940W        W 4956  32.562  11.080   5.463  0.0626 -0.2043  0.4207
61941W        W 4957  32.184  25.979   6.691  0.1286  0.0258  0.0793
61942W        W 4958   1.572  25.857   0.878 -0.1197 -0.1126 -0.1194
61943W        W 4959  13.684  13.520   7.265  0.0902 -0.2319  0.1017
61944W        W 4960   8.053   3.497   1.501  0.1256 -0.2412  0.2847
61945W        W 4961  15.570   7.832  24.978  0.3078 -0.1515 -0.1320
61946W        W 4962  17.102  32.646  26.794 -0.0939  0.2604  0.1712
61947W        W 4963  15.170  10.018   0.483 -0.1233  0.0398 -0.3745
61948W        W 4964  15.770  29.396  27.264 -0.1798  0.1243  0.2817
61949W        W 4965   7.152  18.613   7.385 -0.3320  0.1802 -0.0370
61950W        W 4966   6.069  28.129  22.996  0.1777  0.0671 -0.0527
61951W        W 4967  33.785  15.898  24.662 -0.2231 -0.2433  0.1773
61952W        W 4968  26.623  15.721   6.143  0.1830  0.2766  0.3886
61953W        W 4969   5.957  19.131   6.316  0.2121 -0.2105 -0.1655
61954W        W 4970  25.708  19.634   6.188  0.0677  0.3174  0.0532
61955W        W 4971   8.684  23.209  29.223  0.2817 -0.1074 -0.0218
61956W        W 4972  16.413  27.162   7.868  0.0068  0.0764 -0.4250
61957W        W 4973   3.073  27.369  23.131 -0.1224 -0.1456  0.0601
61958W        W 4974   0.156  22.627   9.286  0.3822  0.1072 -0.1385
61959W        W 4975   1.944   7.790  20.710  0.0396  0.1213  0.0075
61960W        W 4976  31.259  20.643   8.584 -0.1894 -0.2222  0.0597
61961W        W 4977  31.597  28.508  20.895  0.1294  0.2094 -0.0399
61962W        W 4978  30.157  16.110   6.499 -0.0702 -0.0567 -0.3728
61963W        W 4979  27.226  24.882  28.890 -0.0559 -0.1571  0.1856
61964W        W 4980   8.525  11.981   4.143  0.0614 -0.0403  0.2940
61965W        W 4981  29.815  17.743  21.104 -0.2276  0.4042  0.0759
61966W        W 4982   0.654   8.802   8.148  0.0417 -0.0304 -0.0564
61967W        W 4983   0.239  20.100   4.463 -0.0011 -0.1153  0.2237
61968W        W 4984   5.160  20.141  23.720 -0.0226 -0.2789 -0.1718
61969W        W 4985  17.876  28.646  28.047  0.0976 -0.1770  0.0665
61970W        W 4986   2.904  20.326   4.107 -0.0646 -0.2059  0.0966
61971W        W 4987  32.842   6.093   9.004  0.0737 -0.0822  0.1296
61972W        W 4988   4.444  17.518   3.073  0.1291 -0.1261 -0.4522
61973W        W 4989  25.052  24.281   7.085 -0.2569 -0.0135  0.1457
61974W        W 4990  11.355  25.143   8.049  0.0897  0.0894 -0.2159
61975W        W 4991  15.392   3.967   7.869 -0.1033 -0.0196 -0.1524
61976W        W 4992  20.424  28.349   3.180 -0.2841 -0.0531  0.2403
61977W        W 4993   6.409  17.921  27.572  0.1492 -0.0989  0.1749
61978W        W 4994  30.817  27.527  10.768 -0.0224 -0.1274 -0.0834
61979W        W 4995   5.889   7.619   3.692  0.3259 -0.2219 -0.3044
61980W        W 4996  10.895  25.776  21.985 -0.2972 -0.1305  0.1254
61981W        W 4997  33.636  13.986  21.411  0.2167  0.0115  0.6686
61982W        W 4998   7.646  26.597   7.661 -0.1580  0.1730 -0.0464
61983W        W 4999  32.136   7.112   8.453 -0.1922  0.4227 -0.2404
61984W        W 5000  27.516   5.031   7.078 -0.2476 -0.0038 -0.1793
61985W        W 5001  13.228   4.425  15.336  0.0130 -0.1905  0.2272
61986W        W 5002   8.453  11.910   5.672  0.0065 -0.3952 -0.0412
61987W        W 5003   6.674  14.633   8.015 -0.1491 -0.1083 -0.2243
61988W        W 5004  32.955   8.199  26.816  0.0289 -0.1403  0.2584
61989W        W 5005   6.034  17.553   2.275 -0.0812 -0.1816 -0.2571
61990W        W 5006  30.682   8.992   2.736 -0.2164  0.0257 -0.1975
61991W        W 5007  33.249  24.860   6.018 -0.0371 -0.0953  0.0220
61992W        W 5008  28.303  24.074   3.153 -0.2626 -0.3290  0.2417
61993W        W 5009   0.017  13.735   4.615  0.2772 -0.3059 -0.0667
61994W        W 5010   9.556  12.808   4.543  0.0675 -0.2399 -0.1055
61995W        W 5011  13.885  27.371  10.354 -0.0594  0.0180 -0.3843
61996W        W 5012   0.553  34.418   2.944 -0.0558  0.1566  0.1996
61997W        W 5013  31.195   6.775   6.722 -0.1073 -0.2564 -0.0330
61998W        W 5014   8.619  25.224   5.303 -0.1077 -0.3411  0.2092
61999W        W 5015   6.715  34.704   7.424 -0.0245 -0.0085 -0.0686
62000W        W 5016  10.178  27.449   8.050  0.0109  0.0535  0.3016
62001W        W 5017  28.016  15.113  22.297  0.2301  0.2302  0.0959
62002W        W 5018  33.940  26.436  26.945 -0.1072 -0.3096  0.1622
62003W        W 5019  33.846  13.991   5.972  0.0149 -0.0904  0.0458
62004W        W 5020  22.839  31.891  23.373  0.0712  0.0803 -0.0195
62005W        W 5021   3.177  14.408   2.110  0.2502  0.1474  0.1004
62006W        W 5022  16.901  20.015   7.799  0.0498  0.0374 -0.1784
62007W        W 5023  16.875  13.656  25.501  0.0601 -0.1784  0.0786
62008W        W 5024  31.622  18.497   4.300 -0.1474  0.0302  0.4115
62009W        W 5025  25.764  20.276   0.302  0.0799 -0.0360  0.1593
62010W        W 5026  33.905  28.018   2.401  0.1485  0.1987 -0.2841
62011W        W 5027  15.198  12.971  27.764  0.0381  0.1383 -0.0912
62012W        W 5028   1.966  11.708   0.893  0.0259 -0.1851 -0.1564
62013W        W 5029  16.088  31.232  25.975  0.1262  0.1335  0.0832
62014W        W 5030  24.552  19.765   4.435  0.0549  0.5501  0.1051
62015W        W 5031  25.440   9.878   1.984 -0.0463 -0.2022 -0.0504
62016W        W 5032   2.248  23.294   5.766 -0.1155  0.0365  0.1194
62017W        W 5033   6.344  14.243   7.997  0.1255  0.2364 -0.1505
62018W        W 5034  30.208  19.284  18.151  0.2375 -0.2413  0.0582
62019W        W 5035  20.232  13.942   2.135 -0.1403  0.0068  0.1420
62020W        W 5036  30.259  18.818   1.851 -0.0713  0.3882  0.0104
62021W        W 5037  33.047   3.163  29.157 -0.1108  0.2821  0.2759
62022W        W 5038  15.242  24.015  29.316 -0.1083 -0.1647 -0.3809
62023W        W 5039  16.817  23.077   7.749  0.1078 -0.1541 -0.0518
62024W        W 5040  20.387   5.424   5.083 -0.0158 -0.0276  0.0359
62025W        W 5041   8.258  22.020   1.525  0.0344  0.4013  0.0433
62026W        W 5042  10.668  14.758   2.601  0.3736  0.1021  0.1867
62027W        W 5043  12.893  33.820   5.492  0.1642 -0.2804 -0.1466
62028W        W 5044   0.524  17.749   0.855  0.1487 -0.0514  0.0509
62029W        W 5045  28.037  23.735  28.636 -0.0273  0.1336  0.0206
62030W        W 5046   7.474  29.132  28.495  0.0636 -0.0256  0.3186
62031W        W 5047   3.702   9.168   2.394  0.2356 -0.2471  0.1237
62032W        W 5048  29.578  12.252  24.549  0.3164  0.1083 -0.0631
62033W        W 5049  15.875  15.744   8.567  0.2064  0.0524 -0.1990
62034W        W 5050  12.979  11.790   1.204 -0.0315  0.0851  0.1194
62035W        W 5051   3.707  28.797  28.217  0.0275 -0.1292  0.1516
62036W        W 5052   1.797  18.702   0.166  0.0678  0.2410 -0.1266
62037W        W 5053   3.605   9.846   9.709  0.1069  0.1283 -0.1164
62038W        W 5054  32.946  28.256  10.433  0.3379 -0.2413  0.1681
62039W        W 5055  11.263  16.492  16.607 -0.1396  0.1056 -0.1322
62040W        W 5056  34.158  34.473  22.781 -0.1387 -0.3748 -0.1268
62041W        W 5057  31.434  13.674   2.032  0.1107 -0.2786 -0.1053
62042W        W 5058  10.953  22.596   3.929 -0.0265 -0.0033  0.0004
62043W        W 5059  27.020   3.981  22.620  0.0103 -0.1735  0.1978
62044W        W 5060  31.589  11.350   5.491 -0.0195  0.3783  0.0819
62045W        W 5061  31.149  26.049  28.682  0.1439 -0.1855  0.0724
62046W        W 5062   3.300   8.645  10.017  0.0248  0.2449 -0.1441
62047W        W 5063   9.644  23.950  23.834 -0.0867 -0.1415  0.0189
62048W        W 5064  25.169  18.369   2.282 -0.1672  0.2461  0.2356
62049W        W 5065   7.917  26.652  26.562 -0.1452 -0.0722 -0.0037
62050W        W 5066  29.325  21.390   8.974  0.0215  0.2554 -0.2484
62051W        W 5067   3.233  28.287   9.456  0.2179  0.0966  0.1905
62052W        W 5068   3.512   4.039   1.525 -0.3502  0.2648  0.1903
62053W        W 5069  26.560  22.455  10.758  0.0021 -0.0101  0.0602
62054W        W 5070  19.555  19.532  26.919  0.0468  0.1560  0.0224
62055W        W 5071  31.358  14.826  28.069 -0.2539  0.1360 -0.0939
62056W        W 5072  27.638   0.677  25.103  0.0967 -0.4663  0.0228
62057W        W 5073   8.905   1.701  10.175  0.0661  0.1095 -0.2496
62058W        W 5074  25.743  10.851  10.610 -0.2655  0.1691  0.3736
62059W        W 5075   2.575   2.918   9.571 -0.2801 -0.2770  0.2017
62060W        W 5076  10.895  33.620   9.881  0.0090  0.0555  0.1795
62061W        W 5077  18.889  30.835  27.055  0.0020  0.0253 -0.4122
62062W        W 5078  33.593  29.783   0.959 -0.1469 -0.1758 -0.0498
62063W        W 5079  32.457  15.512   6.151  0.3613  0.1869 -0.3145
62064W        W 5080  29.187  10.550  25.585  0.0086 -0.3290  0.2194
62065W        W 5081  12.818  19.289  25.484  0.1535  0.2864 -0.1429
62066W        W 5082   9.299  12.504   3.323 -0.0424 -0.2607  0.0339
62067W        W 5083  31.509  20.224  10.197 -0.3425  0.2769 -0.3219
62068W        W 5084  33.117  17.259   6.760  0.1306  0.0513 -0.4998
62069W        W 5085  26.403  16.660  26.645 -0.2692 -0.0249 -0.3072
62070W        W 5086  32.912  19.808  10.346  0.2685  0.1292 -0.2083
62071W        W 5087   8.638   9.522   6.034 -0.3961  0.1020 -0.0182
62072W        W 5088   5.950  17.875  23.541  0.1257  0.4981 -0.0348
62073W        W 5089  14.138  26.639   9.772 -0.1389 -0.3455  0.3124
62074W        W 5090  15.102  17.578  26.413 -0.4381 -0.0366 -0.0634
62075W        W 5091   9.269  34.777  19.011  0.0033  0.0367  0.1861
62076W        W 5092   0.041   3.343  10.038  0.4171  0.1469  0.3508
62077W        W 5093  22.654  13.559   3.144  0.0316  0.1187 -0.2592
62078W        W 5094   8.007  28.370  26.189 -0.2111  0.3040 -0.2605
62079W        W 5095  12.519  18.512   6.784  0.1077 -0.0552 -0.1633
62080W        W 5096  19.855   1.624   3.898  0.2283  0.3827 -0.3319
62081W        W 5097  14.535  24.269  24.510  0.1759  0.2012  0.0670
62082W        W 5098  26.968  24.585   8.877  0.1510  0.2645  0.0246
62083W        W 5099   9.535  25.819   7.893 -0.1847 -0.1029 -0.2574
62084W        W 5100  10.715   1.647   8.193  0.0054 -0.6261 -0.0240
62085W        W 5101  29.767  25.061  10.356  0.0236  0.1006 -0.2156
62086W        W 5102  31.015  21.788   7.878 -0.3154 -0.0378  0.2268
62087W        W 5103   2.233  26.289   6.848  0.0104 -0.0432 -0.3027
62088W        W 5104  24.266   2.309  20.891 -0.4678 -0.0511 -0.1926
62089W        W 5105  25.117  12.974  27.204  0.0710  0.1631  0.0010
62090W        W 5106  30.683  21.488   7.595  0.0382  0.0129 -0.1042
62091W        W 5107  34.008  14.613  15.851  0.0761  0.1852 -0.0557
62092W        W 5108  31.446  26.845   6.472 -0.1201  0.2018  0.1975
62093W        W 5109   5.952  30.923   9.846 -0.1222 -0.1579 -0.0291
62094W        W 5110  32.295  29.419   2.610  0.0913 -0.1685  0.2375
62095W        W 5111  26.836  16.864  28.974  0.1541 -0.0151 -0.0263
62096W        W 5112   4.108  13.848   9.342 -0.1672 -0.0664  0.1875
62097W        W 5113  27.780  28.101   1.685 -0.2857 -0.1029  0.0727
62098W        W 5114  18.177  13.165   3.464  0.0423  0.1596  0.0865
62099W        W 5115   4.090   6.047   9.890 -0.2541  0.0920  0.5976
62100W        W 5116  12.749  24.605   5.258  0.2982 -0.2493 -0.0161
62101W        W 5117   1.272   0.021  10.287 -0.1166 -0.0421  0.0238
62102W        W 5118  25.012  10.827   0.851 -0.1393 -0.1372  0.2153
62103W        W 5119   4.232  28.580   5.100 -0.0621  0.2064 -0.0677
62104W        W 5120  27.741  33.831   1.741  0.0664 -0.0377  0.1266
62105W        W 5121  26.401  19.002  28.517 -0.0634 -0.0353 -0.0665
62106W        W 5122   1.560   4.233   2.740  0.2102  0.0048  0.2056
62107W        W 5123   5.332  22.315   9.505 -0.1181 -0.0868  0.1071
62108W        W 5124  27.078  15.327  27.187  0.0416  0.0873  0.0173
62109W        W 5125  13.195  13.665  24.358  0.5500  0.2757 -0.0408
62110W        W 5126   7.843  29.666  25.212 -0.2320 -0.4196  0.5372
62111W        W 5127  27.954  11.355   8.830  0.2720 -0.1300  0.2568
62112W        W 5128  23.181  12.335   1.516  0.0076  0.0356  0.3481
62113W        W 5129  21.383  12.042   7.184  0.3551  0.1187  0.3137
62114W        W 5130  32.736  19.027  20.477  0.3823  0.0378  0.0006
62115W        W 5131   3.797  10.402   0.142 -0.0717  0.0495 -0.0732
62116W        W 5132   5.666  13.286  27.427  0.0311  0.1229  0.0715
62117W        W 5133  15.855  14.575  20.743  0.0394 -0.0503  0.3007
62118W        W 5134  31.601  12.785   6.186  0.0408 -0.0941 -0.0730
62119W        W 5135   0.940  15.280   5.446 -0.0049  0.0393 -0.2345
62120W        W 5136   2.071  30.193   6.882 -0.1104  0.3166 -0.0454
62121W        W 5137  32.202  21.230  10.964  0.1572  0.1792 -0.0746
62122W        W 5138   5.262  25.113   2.812  0.0293 -0.1763 -0.0789
62123W        W 5139  34.142  14.420   7.395  0.0407  0.3289 -0.0732
62124W        W 5140   0.067  19.888   3.035  0.0654  0.2153  0.1577
62125W        W 5141   0.558  21.458   8.668 -0.0929 -0.1256  0.1956
62126W        W 5142  33.373   8.637   3.089  0.2768  0.1328 -0.2592
62127W        W 5143  14.009  15.996   3.006 -0.0153 -0.0898  0.2865
62128W        W 5144  17.074  16.370  21.999 -0.5662  0.1129 -0.0295
62129W        W 5145  29.244  19.558  11.166  0.1273 -0.0419  0.0928
62130W        W 5146   8.792  28.915   1.263  0.0061 -0.0964  0.0388
62131W        W 5147  29.504  20.597   8.626  0.1347  0.3031  0.0445
62132W        W 5148   1.026  28.267   8.391  0.0046  0.4131 -0.2144
62133W        W 5149  17.047  26.427  28.111 -0.1790  0.0073 -0.1221
62134W        W 5150  32.999  15.456   6.155  0.0802  0.0205 -0.1332
62135W        W 5151   0.169  19.480   6.838  0.4483  0.0063 -0.0875
62136W        W 5152  12.826   0.925   6.951  0.0093  0.0704 -0.0551
62137W        W 5153   6.294  12.805   6.919  0.0963  0.0874  0.1916
62138W        W 5154   7.727   9.258   7.490  0.0660  0.1490 -0.0158
62139W        W 5155   3.336  24.121   9.044 -0.0226 -0.1284 -0.1822
62140W        W 5156   7.043  15.974   3.177 -0.0525  0.1466 -0.0408
62141W        W 5157  31.217  15.385  28.334  0.0070 -0.0105 -0.1879
62142W        W 5158   1.502  26.337   1.545  0.0664 -0.2243 -0.0357
62143W        W 5159  23.213  26.309   1.409  0.1119 -0.3028 -0.2134
62144W        W 5160  31.285  16.293   1.798 -0.1669 -0.2694  0.1104
62145W        W 5161   5.590  11.418   1.480 -0.0830  0.0388 -0.0010
62146W        W 5162  19.131  23.634   7.972  0.2139 -0.2527  0.0053
62147W        W 5163   7.921  13.822   6.527 -0.1302 -0.1211 -0.2198
62148W        W 5164  31.608  15.651  25.241  0.1895 -0.2524 -0.0630
62149W        W 5165  20.442   6.498  24.428 -0.0386 -0.0924  0.0716
62150W        W 5166  16.752  16.529   7.893 -0.0292 -0.1875 -0.0691
62151W        W 5167  30.356  13.409  20.945  0.0305 -0.4116 -0.2112
62152W        W 5168  26.707  12.421   3.981  0.1452 -0.2070 -0.3348
62153W        W 5169   0.681   2.125  15.415 -0.0524 -0.2997 -0.1419
62154W        W 5170  17.112  28.724  14.653 -0.1520  0.0778 -0.0196
62155W        W 5171  22.117   1.116   9.818 -0.0986  0.1295  0.0985
62156W        W 5172  28.690  12.011  23.889  0.2865  0.1056  0.1547
62157W        W 5173  10.907  25.254   7.322 -0.1804 -0.1229  0.0689
62158W        W 5174  26.592   1.965   9.747  0.1775  0.2946 -0.1619
62159W        W 5175  31.047  22.765  23.170 -0.0857  0.1926  0.4520
62160W        W 5176  11.385  22.230   5.955  0.2419 -0.2729  0.1020
62161W        W 5177   4.622  31.912   8.843  0.1212 -0.2081  0.2033
62162W        W 5178  16.230  13.762  21.116 -0.3561  0.0205  0.3685
62163W        W 5179  18.010  29.913   7.391  0.1815 -0.1235  0.0833
62164W        W 5180  25.519  30.562  11.831 -0.0472 -0.0203 -0.0534
62165W        W 5181   7.370  25.234  12.870 -0.1986  0.3227 -0.0841
62166W        W 5182   5.490  32.739   5.967 -0.1170  0.0699 -0.2235
62167W        W 5183   2.388  31.347   5.219 -0.0917  0.0071  0.2216
62168W        W 5184   0.580  13.949  25.169 -0.0761  0.1258  0.0887
62169W        W 5185  23.838  20.515   4.453 -0.3374 -0.1242  0.1593
62170W        W 5186   8.205   0.733   9.999  0.1888 -0.4227  0.0755
62171W        W 5187  29.669   9.329  24.791  0.2369 -0.3227 -0.2112
62172W        W 5188   9.510   5.264   6.153  0.0079 -0.0104  0.1728
62173W        W 5189  29.670   8.863   2.459  0.3434  0.4244  0.0490
62174W        W 5190   9.644  18.512   0.872  0.1695  0.1222 -0.4669
62175W        W 5191   5.507  34.163  20.318  0.1589  0.2744 -0.0010
62176W        W 5192  20.349  12.332  28.347  0.0948 -0.1412  0.1091
62177W        W 5193  29.938  16.275  19.611 -0.1053  0.4161  0.0394
62178W        W 5194   2.662  13.410  18.465 -0.1982  0.2029 -0.2657
62179W        W 5195  31.134  25.904  23.711 -0.1494  0.3930  0.2636
62180W        W 5196  23.543  23.038   0.025  0.1513 -0.0661 -0.0396
62181W        W 5197   3.474  24.997   7.152  0.0111 -0.0378 -0.2115
62182W        W 5198  22.304  26.020  21.026 -0.1455  0.1062  0.0077
62183W        W 5199  26.949  19.714  10.773  0.3014  0.1322  0.1156
62184W        W 5200  33.348   1.766   8.298  0.0942 -0.1776 -0.0558
62185W        W 5201  33.439  29.378  24.578  0.0678 -0.4075  0.2302
62186W        W 5202   8.453  19.271   3.374  0.1561  0.1133  0.2226
62187W        W 5203  10.307  21.007  27.195  0.0476  0.5267 -0.2869
62188W        W 5204  30.795  25.932  16.335  0.1174  0.1939 -0.1757
62189W        W 5205   8.686  26.665  27.843  0.1150  0.0269 -0.0943
62190W        W 5206  27.137  21.084   9.595  0.0484  0.2521 -0.2790
62191W        W 5207  30.131  33.498  22.137  0.1273  0.3453 -0.0734
62192W        W 5208  17.453   2.923  26.548  0.1032 -0.0299 -0.0628
62193W        W 5209   5.579  29.847   3.869  0.3586  0.0043  0.0194
62194W        W 5210   0.463  12.256  28.763 -0.2553  0.0721  0.2825
62195W        W 5211  25.433  15.471   7.113  0.1551  0.1872 -0.1170
62196W        W 5212   1.833  11.535  15.230 -0.2529 -0.0549  0.1707
62197W        W 5213  31.923   7.779  19.790  0.1272  0.1156 -0.0325
62198W        W 5214   9.430   6.309   7.617  0.1500 -0.0030  0.1229
62199W        W 5215  28.831   7.016   9.010 -0.2241  0.0015 -0.2000
62200W        W 5216  15.600  17.567  18.323 -0.2100 -0.0836  0.2490
62201W        W 5217  31.760  32.402  26.830  0.0086  0.0172 -0.2329
62202W        W 5218  30.515  13.017  22.959  0.0399 -0.0109 -0.0227
62203W        W 5219  30.993  21.985  20.961 -0.1950  0.2575 -0.0353
62204W        W 5220   8.540  33.335   8.909 -0.2103 -0.0883 -0.1116
62205W        W 5221  29.568   0.659  10.104 -0.3362 -0.1872 -0.1323
62206W        W 5222  12.957  28.951   5.753  0.2797 -0.4558  0.0376
62207W        W 5223  34.420  27.542  19.586  0.3047 -0.0531  0.1336
62208W        W 5224   1.714  27.191  19.324 -0.1395 -0.3693 -0.0901
62209W        W 5225   5.327  25.446   1.787 -0.0272 -0.0809 -0.1055
62210W        W 5226  19.404  23.718   0.018 -0.0273 -0.0370  0.0543
62211W        W 5227  32.120  20.531  21.412 -0.0670 -0.0609  0.2185
62212W        W 5228  34.482  27.941   7.426 -0.1800  0.0738  0.0761
62213W        W 5229  14.823   6.278   9.923 -0.0797 -0.0179 -0.1980
62214W        W 5230  24.146  27.878  10.408  0.1519  0.2605 -0.1231
62215W        W 5231  10.514  20.225  28.111  0.1258 -0.0372 -0.1454
62216W        W 5232   3.980   6.870  22.633 -0.4079  0.0050 -0.3094
62217W        W 5233  20.673  23.756   4.058 -0.0444  0.0396 -0.0206
62218W        W 5234   3.321  18.922   1.090 -0.2526  0.1024  0.0757
62219W        W 5235   0.791  20.650   7.899 -0.1163 -0.2657  0.0783
62220W        W 5236   1.501  24.512  21.880  0.2962  0.0864 -0.3645
62221W        W 5237   4.704  21.208  26.476 -0.2055  0.3195  0.0940
62222W        W 5238  22.603  34.032   1.842  0.0803 -0.1330  0.0009
62223W        W 5239  34.289  25.009  24.232  0.0459  0.0178 -0.1461
62224W        W 5240   2.709  10.814  17.918 -0.1653 -0.0287  0.0056
62225W        W 5241   8.400  23.974  27.152  0.0934 -0.0254  0.1491
62226W        W 5242   0.113  19.882  24.493 -0.2068  0.0085  0.1099
62227W        W 5243  11.029  18.247   7.002 -0.2267  0.2072  0.1525
62228W        W 5244  11.192  33.252  25.382 -0.0578  0.0651 -0.0137
62229W        W 5245  21.619  20.649  26.896 -0.2144 -0.4039  0.1762
62230W        W 5246  12.867  19.262  22.461 -0.0253  0.3905  0.1402
62231W        W 5247  34.407   0.480   5.404  0.5214 -0.0582  0.1442
62232W        W 5248  19.316  30.517   3.139  0.0781  0.1478 -0.0223
62233W        W 5249  34.125  21.778  25.233 -0.1422 -0.0238 -0.2339
62234W        W 5250  12.145   9.886  18.204  0.3568  0.0055 -0.0665
62235W        W 5251   7.292  17.794  27.917  0.1486 -0.2145 -0.0544
62236W        W 5252   1.408   1.270  25.350  0.1945  0.1262  0.2317
62237W        W 5253  24.626  28.858   9.126 -0.2466 -0.2102  0.4583
62238W        W 5254   2.924  18.215   5.782 -0.3347 -0.0070  0.0656
62239W        W 5255  31.762  15.573   1.650  0.2386  0.0175  0.2167
62240W        W 5256   3.163  26.660   3.229  0.1953 -0.2034  0.3484
62241W        W 5257  29.852  20.714   9.974 -0.0748 -0.3024  0.0706
62242W        W 5258   8.035  22.851  16.344  0.0263  0.0964 -0.0454
62243W        W 5259  18.914   2.948   3.059  0.1255 -0.1854 -0.1965
62244W        W 5260  26.899  25.504  24.769  0.2079  0.0035  0.2501
62245W        W 5261  12.416  13.329  22.584 -0.0920 -0.1101  0.0443
62246W        W 5262  31.523  32.577  11.115 -0.2173  0.0318  0.2641
62247W        W 5263   2.317  13.880  19.053 -0.0047 -0.1081  0.1639
62248W        W 5264  30.681  22.896  16.334 -0.1885 -0.0414 -0.2236
62249W        W 5265   5.390  27.613   2.458 -0.2754  0.0405  0.0001
62250W        W 5266   8.920   9.677  27.084  0.2349 -0.0758  0.0722
62251W        W 5267  24.076  18.845   5.137 -0.1222 -0.0107 -0.0771
62252W        W 5268  12.260  23.681  28.743  0.0866  0.1298  0.0509
62253W        W 5269  31.516  32.254   5.476 -0.2101  0.2212  0.1913
62254W        W 5270  22.279  22.461   5.665 -0.3494 -0.0130  0.1683
62255W        W 5271  13.442  10.965  28.674  0.0292  0.0436  0.1358
62256W        W 5272   2.767  23.388  23.490  0.1452 -0.1029 -0.0446
62257W        W 5273  30.658   9.170   5.004  0.1797  0.1855  0.0106
62258W        W 5274  25.457  12.970   5.710  0.0384  0.1646 -0.1162
62259W        W 5275  15.018   0.627  15.124  0.0997 -0.0680  0.1931
62260W        W 5276  31.288   9.167   8.856 -0.1029 -0.0838 -0.0746
62261W        W 5277  33.213  19.151   9.209  0.0658  0.0384  0.1172
62262W        W 5278  10.282  16.911  23.520  0.0285 -0.2982  0.4685
62263W        W 5279  33.307   8.874  25.381 -0.0118 -0.1251  0.2500
62264W        W 5280  29.390  29.198  11.205 -0.0697 -0.3549  0.3389
62265W        W 5281  33.224  19.007   4.180 -0.4060 -0.1278 -0.1258
62266W        W 5282  26.216  24.992   5.903 -0.1076  0.1590 -0.1967
62267W        W 5283  34.147   4.270   4.474  0.0461  0.1081  0.0103
62268W        W 5284  10.193  31.432  20.297  0.1871 -0.0748  0.3216
62269W        W 5285  33.772   5.155  24.850 -0.0735  0.2660 -0.1584
62270W        W 5286   7.646  27.271   8.845  0.1042  0.0027  0.1261
62271W        W 5287   9.188  25.474  15.407 -0.0561 -0.1580 -0.2091
62272W        W 5288   2.498  25.559   1.750  0.0374 -0.0643  0.1541
62273W        W 5289   2.989  26.833  24.172 -0.0500 -0.0716 -0.4068
62274W        W 5290  34.681  34.185  24.620 -0.0167 -0.0573 -0.0147
62275W        W 5291   3.694  26.176  17.991 -0.0313 -0.2715  0.2065
62276W        W 5292   8.507  25.838   8.629 -0.0756 -0.0148 -0.2603
62277W        W 5293  21.594  16.191   7.766  0.1763 -0.3274  0.2046
62278W        W 5294   6.120  13.278   6.962  0.1970  0.2233  0.1480
62279W        W 5295  25.677  25.784   2.474 -0.1642  0.1901  0.2695
62280W        W 5296  18.114  23.440  28.845  0.3367  0.1437 -0.1016
62281W        W 5297   7.026   0.378  15.831 -0.0195  0.2993 -0.0669
62282W        W 5298   4.258   1.442   9.110 -0.2323  0.0366  0.0874
62283W        W 5299   0.157   7.143  10.115 -0.0597 -0.0053 -0.1349
62284W        W 5300  21.133   2.358   2.543  0.2212  0.1432  0.2267
62285W        W 5301  24.992  15.338  28.883 -0.3707  0.0845 -0.4423
62286W        W 5302   8.543  33.140  26.279  0.0238 -0.0885  0.0040
62287W        W 5303   5.011  18.854  28.600  0.0465  0.0832  0.0098
62288W        W 5304   8.508   0.835  25.601 -0.2723 -0.1189 -0.1367
62289W        W 5305  19.985   5.477  15.985  0.0902  0.2884  0.4055
62290W        W 5306   9.885  16.602   7.034 -0.0711 -0.1349 -0.0312
62291W        W 5307   7.039  30.781   7.108 -0.1070 -0.4023  0.0197
62292W        W 5308   3.004  21.532   0.671  0.2076 -0.1499 -0.0444
62293W        W 5309   9.285   9.990   9.762  0.3412 -0.0745 -0.1151
62294W        W 5310  15.713  33.067  18.743  0.2897 -0.0266  0.1235
62295W        W 5311   8.761  14.801  20.865 -0.1059 -0.4449  0.0727
62296W        W 5312  10.228  19.271   1.687 -0.0576 -0.1857 -0.1724
62297W        W 5313   8.143  26.418   5.870 -0.1027 -0.2499  0.1566
62298W        W 5314  26.085  16.907  18.417  0.1429  0.5359  0.0838
62299W        W 5315   4.143  17.572   0.552  0.2351 -0.3025  0.3066
62300W        W 5316  27.943  19.653  18.348 -0.0887  0.0735 -0.2934
62301W        W 5317  29.905  21.286   5.563  0.0183 -0.1510 -0.0205
62302W        W 5318  19.364   0.098   1.746  0.1862 -0.1636  0.1071
62303W        W 5319  30.607   2.521  15.577 -0.0645 -0.1808 -0.2812
62304W        W 5320   6.898  25.374   2.246 -0.1921 -0.0498  0.2113
62305W        W 5321  23.108  20.811  23.039 -0.0823 -0.2272 -0.2126
62306W        W 5322   3.955  24.568  23.702  0.2096 -0.0502 -0.2925
62307W        W 5323  19.924  31.550  15.319  0.1997  0.1208 -0.0306
62308W        W 5324   4.643  34.281   0.054 -0.1434 -0.0812 -0.2886
62309W        W 5325  22.789  28.107   0.434 -0.1788  0.1961 -0.1247
62310W        W 5326  11.850  22.202   1.270 -0.1216 -0.0932 -0.0645
62311W        W 5327  16.686   0.052   5.390 -0.0476 -0.1571 -0.1946
62312W        W 5328  10.294  19.109   8.330 -0.1497  0.2626  0.0750
62313W        W 5329   8.042  15.076   2.742  0.0674  0.0892  0.2026
62314W        W 5330   7.107  33.599   0.003 -0.0340 -0.1711  0.2253
62315W        W 5331   5.020  32.089   4.448  0.2292 -0.3750 -0.1640
62316W        W 5332  25.549  19.362  25.168 -0.0467  0.1775  0.0166
62317W        W 5333  21.019  27.744   0.162  0.2243  0.2487 -0.1492
62318W        W 5334  29.255  19.617   7.408 -0.0775 -0.1616  0.2938
62319W        W 5335   9.716  11.353   6.035  0.0728  0.0639  0.2058
62320W        W 5336   2.578   9.741  29.045  0.0741  0.1298  0.0575
62321W        W 5337  16.171  26.978   3.887  0.2729 -0.2172 -0.0441
62322W        W 5338   8.163  32.164   0.068  0.1130 -0.2689  0.0524
62323W        W 5339  34.369  21.371  24.213  0.0918 -0.0280  0.1357
62324W        W 5340   6.382  19.604  24.029 -0.0474  0.4483 -0.2765
62325W        W 5341  19.338  28.850  20.035  0.1648 -0.1591 -0.0160
62326W        W 5342  27.758  24.733   2.584  0.0759 -0.1452  0.0136
62327W        W 5343   9.908  17.131   2.761 -0.1091 -0.1363 -0.1580
62328W        W 5344   9.242  27.165   7.391 -0.1113  0.0632 -0.2084
62329W        W 5345  18.972  19.043   5.892  0.1907 -0.0547 -0.0963
62330W        W 5346  32.608  25.383   3.925 -0.0526  0.4023  0.0348
62331W        W 5347  27.401  12.258   2.366  0.1529  0.2367  0.2696
62332W        W 5348  16.580  34.579   6.251 -0.0601 -0.0455 -0.1930
62333W        W 5349  15.650   8.442  18.345 -0.2675 -0.0715 -0.0283
62334W        W 5350   0.396   8.446   7.876 -0.1160 -0.0321  0.3541
62335W        W 5351   7.152   3.987   6.288  0.0922  0.0934  0.0709
62336W        W 5352  32.179  29.950  26.435 -0.3568  0.2886 -0.0626
62337W        W 5353   1.647  25.415  26.857 -0.1835 -0.0985 -0.2371
62338W        W 5354  30.849   7.614   7.970 -0.0049  0.4345  0.1288
62339W        W 5355  22.971  26.024   4.709 -0.0374 -0.2979 -0.0047
62340W        W 5356   0.873  16.619  18.316 -0.1244 -0.0495  0.3504
62341W        W 5357  31.292  17.287  27.083 -0.2103  0.0179  0.0870
62342W        W 5358  23.864  12.408  17.085 -0.0540  0.0347 -0.0610
62343W        W 5359  18.285  22.383  24.081  0.1576  0.2208  0.2392
62344W        W 5360   5.156  16.852  26.948  0.0683 -0.2836  0.4254
62345W        W 5361  12.141  19.875  18.067 -0.0367 -0.0403 -0.0064
62346W        W 5362  33.484  33.216   8.687 -0.1163 -0.1112  0.2725
62347W        W 5363   8.039  30.852  25.187 -0.2443  0.2446 -0.0043
62348W        W 5364   7.754  32.156   8.038 -0.2427  0.0598  0.2011
62349W        W 5365  10.190  24.448   7.586  0.1176  0.1360 -0.0148
62350W        W 5366  30.456  23.642  27.202 -0.2083  0.2396  0.1080
62351W        W 5367  32.687  12.333   3.210 -0.2966  0.1352 -0.0103
62352W        W 5368   8.593  28.116  18.398  0.0193  0.1249  0.1021
62353W        W 5369  24.010   9.978   8.021  0.2687  0.1055  0.0677
62354W        W 5370  31.245   3.732  25.622  0.1299 -0.0906  0.1031
62355W        W 5371  18.133  10.725  16.424  0.1770 -0.0927 -0.0717
62356W        W 5372  19.647  16.582   4.476 -0.2333 -0.1230  0.1784
62357W        W 5373   3.987  28.346   6.831 -0.1323 -0.0109  0.0257
62358W        W 5374   5.380  24.640   2.883  0.0242 -0.3144 -0.0144
62359W        W 5375  12.133   8.404  16.368 -0.2947 -0.0357 -0.2898
62360W        W 5376  13.727  14.177  23.926 -0.0700 -0.1102  0.0097
62361W        W 5377   7.940  16.597  28.680 -0.1501 -0.2003  0.0215
62362W        W 5378  23.158  22.236  16.276 -0.1399 -0.4585  0.0310
62363W        W 5379  12.861  23.089  21.381  0.2777  0.3097 -0.2726
62364W        W 5380  30.491  11.945  29.248  0.4805 -0.0189 -0.2742
62365W        W 5381  24.928  30.539   5.862 -0.0722 -0.0814 -0.0737
62366W        W 5382   6.292   8.985   9.350 -0.3174 -0.2349 -0.0691
62367W        W 5383   3.418   2.072   0.727 -0.3889 -0.1731 -0.0297
62368W        W 5384  23.840   1.453  28.755 -0.0337 -0.2427  0.2966
62369W        W 5385  30.154  32.481   7.415 -0.3361  0.2302  0.3739
62370W        W 5386  10.262   8.671  21.402  0.2382 -0.0045  0.2347
62371W        W 5387  34.367   0.693   6.548 -0.1120 -0.0883  0.1485
62372W        W 5388   9.075  16.937   0.554 -0.1426  0.0828  0.2612
62373W        W 5389  33.483  33.460  25.675  0.0427  0.2264  0.2507
62374W        W 5390  13.298  28.842  17.936 -0.1911  0.1489  0.1493
62375W        W 5391  33.997   0.223  22.951  0.2747 -0.0850 -0.2089
62376W        W 5392  32.865   8.981   6.051  0.0937  0.2221  0.0382
62377W        W 5393  32.661  26.562   3.454 -0.1624 -0.0294 -0.1309
62378W        W 5394   0.132  17.419  24.976  0.0313 -0.1731 -0.0614
62379W        W 5395  12.000  11.722  13.087 -0.1538 -0.0812 -0.0130
62380W        W 5396   9.289  31.094   3.450 -0.0680 -0.2422 -0.2063
62381W        W 5397  33.321  10.669  18.148  0.1123 -0.0686  0.5934
62382W        W 5398  12.983  24.289  23.651 -0.2282  0.1368  0.2943
62383W        W 5399  28.709  16.235   4.034 -0.1007  0.0441  0.0348
62384W        W 5400   9.880  22.103  25.094  0.0695 -0.0899  0.1099
62385W        W 5401   0.832  13.802  11.201  0.2283  0.1792 -0.0149
62386W        W 5402  26.604  12.028   9.212 -0.0130  0.3969  0.1368
62387W        W 5403   0.990   5.459   8.235 -0.1064 -0.2686  0.1609
62388W        W 5404   1.914  14.426  25.186  0.3195 -0.1459 -0.3637
62389W        W 5405  21.422  27.400   5.636  0.1253  0.0822  0.1615
62390W        W 5406   2.394  23.184  28.455 -0.0196 -0.3116  0.0805
62391W        W 5407  17.844  30.163  17.684 -0.0609  0.2712  0.1224
62392W        W 5408  11.005  23.418  25.124  0.2308  0.0062 -0.0907
62393W        W 5409  24.553  26.744  15.010  0.0740 -0.1078  0.1487
62394W        W 5410  29.436  23.366   7.306 -0.0823  0.0631 -0.0370
62395W        W 5411   7.542  19.785   4.455  0.1694 -0.2195  0.1368
62396W        W 5412   3.509   9.638  29.020 -0.0425  0.0398  0.0625
62397W        W 5413   7.157  19.467   8.453 -0.3332  0.0370 -0.0800
62398W        W 5414  26.087  10.176  11.098 -0.1207  0.0684 -0.1424
62399W        W 5415  10.314  26.586  26.742  0.2062  0.3947  0.1676
62400W        W 5416   2.384   3.941   8.526 -0.1350  0.0340 -0.1398
62401W        W 5417  26.562  17.426   2.287  0.0782  0.1837 -0.1681
62402W        W 5418  21.221  22.715   4.811  0.0824 -0.1105  0.1414
62403W        W 5419  29.784   5.296   1.508  0.2535 -0.0112  0.1421
62404W        W 5420   1.927  32.422   3.511 -0.1159 -0.3388  0.0187
62405W        W 5421   0.205  18.971   0.111 -0.1813  0.2438 -0.1186
62406W        W 5422  31.969  20.358   8.168 -0.1257  0.2060  0.1990
62407W        W 5423   3.881  28.991  17.829 -0.0861 -0.2995 -0.0370
62408W        W 5424  25.490  16.522  23.210 -0.1061 -0.1976 -0.0603
62409W        W 5425   0.546  24.949   3.096  0.1585  0.1550  0.1389
62410W        W 5426  13.672  18.921   5.498  0.1643 -0.0176  0.0617
62411W        W 5427   5.655  30.937  18.779  0.2133  0.0089  0.1462
62412W        W 5428  29.045  31.460  22.008  0.2216  0.0816  0.0731
62413W        W 5429   5.955  19.320  25.088 -0.1087  0.1826  0.1106
62414W        W 5430   7.467   7.987   0.562 -0.1048  0.0229 -0.0132
62415W        W 5431  30.026  22.490  28.375 -0.2091 -0.2633  0.3039
62416W        W 5432  24.764  26.834  18.920  0.0727  0.0863  0.1704
62417W        W 5433  32.279  26.184   0.154 -0.2069 -0.1474  0.0768
62418W        W 5434   5.891  15.554  27.654 -0.3688  0.0569  0.0831
62419W        W 5435  25.795   3.283   2.028 -0.1856  0.0029 -0.1963
62420W        W 5436  26.268   1.315  15.992 -0.1319  0.0856 -0.1174
62421W        W 5437  10.106  32.689  23.822 -0.1272  0.1741 -0.2523
62422W        W 5438  33.916  20.311  19.413 -0.1756 -0.1797  0.3464
62423W        W 5439   3.445  21.419   4.747 -0.1877  0.3346 -0.1071
62424W        W 5440  11.148  19.863   4.499 -0.1260  0.0900 -0.1147
62425W        W 5441  28.797  24.828   7.814  0.2109 -0.0984 -0.1061
62426W        W 5442  26.830  21.637   9.414  0.1261  0.3902  0.2173
62427W        W 5443  25.006  17.302  24.532  0.0184 -0.3391  0.2205
62428W        W 5444  32.245   8.931   0.465 -0.2309 -0.0919 -0.3023
62429W        W 5445   5.259   6.681  19.212  0.0087 -0.0750 -0.1574
62430W        W 5446  13.201  20.301   2.299 -0.1675 -0.1262 -0.3553
62431W        W 5447  31.603  17.530   4.959 -0.1742 -0.0184 -0.0393
62432W        W 5448  25.482   5.804   5.657 -0.2583  0.1101 -0.1364
62433W        W 5449  25.079  19.387   9.857  0.0238  0.0372  0.0061
62434W        W 5450  13.935  14.076  24.595 -0.2034 -0.0920 -0.0102
62435W        W 5451   0.417  21.541   6.779  0.0215  0.0514 -0.3824
62436W        W 5452   3.812  25.403   0.424  0.1281 -0.2979  0.2374
62437W        W 5453  30.014  24.388   3.073  0.0116  0.0609  0.0788
62438W        W 5454   4.289  25.907   5.745 -0.0293  0.0316  0.0038
62439W        W 5455   6.144  25.639   3.639  0.1791  0.1947  0.0049
62440W        W 5456   1.528  30.450   6.224  0.0446  0.1494 -0.0428
62441W        W 5457  32.860   9.608   7.923  0.2983  0.1960 -0.0863
62442W        W 5458  11.105   9.264   4.694  0.1961  0.1223  0.0421
62443W        W 5459  17.293   6.025  20.897 -0.0933  0.0176  0.1120
62444W        W 5460  16.120  28.434  15.641  0.0472  0.2446  0.2365
62445W        W 5461  25.802  11.506  18.598 -0.0172 -0.2326  0.1719
62446W        W 5462   0.764  26.972   8.785 -0.0617  0.3612  0.0623
62447W        W 5463   3.574  20.487  27.441 -0.0482  0.2586  0.1392
62448W        W 5464   0.046  20.129   8.180 -0.0850  0.0997 -0.1403
62449W        W 5465   2.003  24.581  23.720 -0.0620  0.1478 -0.1512
62450W        W 5466  28.920   1.914   2.060  0.0230 -0.4377  0.3639
62451W        W 5467   5.144  12.146   0.491  0.4071  0.5706  0.0124
62452W        W 5468   8.156  33.031   8.269  0.1595  0.3127 -0.1261
62453W        W 5469  32.219  28.343  26.123 -0.0307  0.1655  0.1248
62454W        W 5470  30.309  19.623   5.855 -0.1573  0.3636  0.4247
62455W        W 5471  17.200  18.742   4.989 -0.0771  0.1627 -0.4541
62456W        W 5472  14.708  15.897  23.890  0.0106  0.0507 -0.0767
62457W        W 5473   1.786  13.810  24.636  0.0232  0.0444  0.0519
62458W        W 5474  13.064  16.522  21.235  0.3136 -0.1024  0.1687
62459W        W 5475  32.982  29.248  10.333 -0.0042 -0.2535 -0.3885
62460W        W 5476   1.085  33.789   8.350 -0.1513 -0.0151  0.1565
62461W        W 5477  28.357  14.149  26.835 -0.0492 -0.0595 -0.0764
62462W        W 5478   6.296   6.768   7.986  0.0835 -0.1910 -0.1305
62463W        W 5479   5.154  12.056  24.484 -0.0709  0.0592 -0.1301
62464W        W 5480  15.344  32.137   4.718  0.1359 -0.1307 -0.1144
62465W        W 5481  24.643  11.559   1.179 -0.0227 -0.2775  0.0703
62466W        W 5482   0.348   0.537   9.743  0.0773 -0.0023  0.0949
62467W        W 5483  28.259   9.238  21.552  0.2650  0.1867  0.1311
62468W        W 5484   7.856  11.649   7.374  0.1683 -0.1367  0.1553
62469W        W 5485  20.955  27.600  10.717  0.0952  0.0254  0.1680
62470W        W 5486  10.210   4.637   9.738 -0.3453 -0.0708 -0.0804
62471W        W 5487  29.192  27.226  16.083  0.0320  0.1445 -0.2910
62472W        W 5488  10.073  22.504   4.747 -0.0731  0.2149  0.3778
62473W        W 5489  31.567  22.967  23.962  0.0012  0.3264 -0.0244
62474W        W 5490   2.582  23.877   1.724  0.2061 -0.0883  0.2239
62475W        W 5491  10.188  13.713  27.938  0.1244 -0.2367  0.0521
62476W        W 5492  25.693   4.792   4.296 -0.1883  0.2121  0.0756
62477W        W 5493   8.427  30.102  13.445  0.1524 -0.0822 -0.2841
62478W        W 5494  20.500  27.359  20.708  0.0622  0.1489  0.0856
62479W        W 5495   7.194  20.677  12.754 -0.1717  0.3490 -0.0440
62480W        W 5496  31.118   2.279  24.602  0.4486 -0.0061  0.0267
62481W        W 5497  28.769  28.856  29.306  0.2421 -0.0073 -0.0295
62482W        W 5498  11.766  33.200   1.668 -0.2209 -0.3754  0.1170
62483W        W 5499   7.555  20.758   4.094 -0.3622 -0.2622 -0.0712
62484W        W 5500  26.014  26.882   8.397  0.1299 -0.2038  0.2034
62485W        W 5501  14.895  32.843   2.474  0.1031 -0.0154 -0.0071
62486W        W 5502  10.951  23.693  24.644  0.0339  0.1502  0.2475
62487W        W 5503  29.362  23.585   2.453  0.1228  0.0730 -0.1740
62488W        W 5504  18.509  28.674  22.784  0.0200  0.0938 -0.1285
62489W        W 5505  33.868  25.332   8.772 -0.0181  0.1876  0.0711
62490W        W 5506  11.346  25.620  19.986 -0.8128 -0.1383 -0.0629
62491W        W 5507  26.926  13.941  20.819  0.2242  0.3033  0.3202
62492W        W 5508  31.442  13.166  22.621  0.0194  0.1140 -0.0429
62493W        W 5509  17.685  32.510  22.681  0.1637  0.1690 -0.0537
62494W        W 5510   3.061  26.646   0.201  0.1782 -0.1141 -0.1325
62495W        W 5511  15.866   4.903  26.119 -0.1774 -0.1023  0.1165
62496W        W 5512  10.627  34.395   4.826  0.1758 -0.0186 -0.0358
62497W        W 5513  16.500   2.723   3.255  0.0377 -0.1424  0.1635
62498W        W 5514   7.879  23.024  20.870  0.1161  0.2004 -0.0479
62499W        W 5515  13.336  21.865  21.703  0.1376  0.0486 -0.0197
62500W        W 5516  10.582  17.405   8.577  0.0208  0.5845 -0.3304
62501W        W 5517  31.569  31.271   6.756  0.4561  0.2481  0.0455
62502W        W 5518   3.565  27.833  16.805  0.2263  0.0450 -0.1997
62503W        W 5519  33.794  17.654   9.341  0.0925  0.1720  0.1268
62504W        W 5520  26.763  19.262   1.824  0.0609 -0.1696 -0.1030
62505W        W 5521  28.927  26.067   4.279  0.0990  0.0483 -0.0610
62506W        W 5522  33.178  10.877   4.625  0.0817  0.0612  0.0207
62507W        W 5523   0.925  29.484  20.898 -0.0523  0.0246 -0.1840
62508W        W 5524  32.431  21.480  16.765  0.0187 -0.0035 -0.0012
62509W        W 5525  25.346  23.074  16.440 -0.3939  0.1654  0.0130
62510W        W 5526   4.240  31.640  26.190  0.1812 -0.1752 -0.0008
62511W        W 5527  23.947  31.478   6.298  0.2651 -0.0202  0.2309
62512W        W 5528  22.469  15.530  29.234 -0.0207  0.0194  0.4006
62513W        W 5529  21.252  18.646  25.051  0.5380  0.1541  0.0357
62514W        W 5530   7.596   7.305   0.994  0.2064  0.1529 -0.2243
62515W        W 5531  10.344  26.918  17.939  0.2865  0.0368  0.1241
62516W        W 5532  17.124  15.015  25.881 -0.2181 -0.2285 -0.0629
62517W        W 5533   5.199   1.644   8.956 -0.2180  0.1007 -0.0561
62518W        W 5534   6.184  32.540   6.614 -0.4923 -0.2094 -0.1776
62519W        W 5535  12.194   8.762  25.027  0.2654  0.0812 -0.0606
62520W        W 5536   2.229  18.002  26.846 -0.1306 -0.3139 -0.3207
62521W        W 5537  22.418  17.726  25.717  0.0038 -0.1228  0.3541
62522W        W 5538   0.469  21.868   9.390  0.0717  0.1270 -0.0252
62523W        W 5539   7.579  28.236  26.491 -0.1672 -0.2886  0.1644
62524W        W 5540  21.555  31.644   9.273  0.1499  0.1512 -0.2344
62525W        W 5541  19.401   7.267   5.505 -0.3108  0.2400  0.3356
62526W        W 5542  12.252  11.417  23.782 -0.0587 -0.1469 -0.1456
62527W        W 5543   7.828  31.087   9.535 -0.0727 -0.1884  0.1084
62528W        W 5544  30.608  17.131   3.054  0.3706  0.3052  0.1302
62529W        W 5545   5.469  32.677   7.364 -0.1369  0.0540  0.2792
62530W        W 5546  19.034  30.616   8.738 -0.0809  0.2096  0.2123
62531W        W 5547   5.989  29.461   8.731  0.0484 -0.5839  0.0535
62532W        W 5548   1.299   0.965   0.384  0.0580  0.2817 -0.1322
62533W        W 5549  23.161  30.635   7.849 -0.1042 -0.0041  0.0050
62534W        W 5550  34.737  26.011   8.373  0.0649  0.1198  0.0737
62535W        W 5551  10.312  17.939  28.138  0.1191  0.1414 -0.3391
62536W        W 5552   1.342  15.400   2.761  0.0369 -0.2533 -0.0805
62537W        W 5553   5.505   6.976   8.557 -0.1667 -0.2838  0.1374
62538W        W 5554  19.862  21.648  13.160  0.1001  0.3830 -0.1912
62539W        W 5555   8.529  26.693   2.152 -0.0542 -0.2537 -0.0133
62540W        W 5556  14.067  24.627  13.576  0.5052  0.2017  0.2958
62541W        W 5557  31.683  21.860   0.875 -0.0326  0.3584  0.0435
62542W        W 5558  21.141  25.039  18.203  0.0747 -0.0724 -0.2175
62543W        W 5559   0.879  15.092   3.690  0.2002 -0.1497  0.3444
62544W        W 5560  21.084  11.966  17.126 -0.2110 -0.3223  0.1616
62545W        W 5561  11.095  15.641  22.328  0.0454 -0.1141 -0.1140
62546W        W 5562  31.173  34.608   3.989 -0.2297  0.0251 -0.1981
62547W        W 5563  13.228  21.147  23.153  0.4032  0.1853  0.0250
62548W        W 5564   5.793  24.111  15.829 -0.2477  0.3507  0.0631
62549W        W 5565   6.153   5.577  19.656  0.0632 -0.2517  0.2493
62550W        W 5566  33.383  17.191  20.169 -0.1854  0.1681 -0.0395
62551W        W 5567  27.895  30.485  24.201 -0.2338  0.0452  0.0577
62552W        W 5568  27.357  26.456   8.853  0.0808 -0.0748  0.2825
62553W        W 5569  33.317  25.556   5.686  0.2285  0.1423 -0.1405
62554W        W 5570   9.199  17.680  13.570 -0.0345  0.2625 -0.0415
62555W        W 5571   3.462  24.197   5.078 -0.1208 -0.0810 -0.1258
62556W        W 5572   7.357  27.817   0.794  0.0301  0.1196 -0.1477
62557W        W 5573  28.377  18.389  18.690  0.0041 -0.6310 -0.0876
62558W        W 5574  32.236  29.259  26.086  0.0569 -0.0448  0.0571
62559W        W 5575   9.740  24.125   0.527  0.0798 -0.2290  0.0684
62560W        W 5576  24.706  34.362   8.898  0.1159  0.3738  0.2257
62561W        W 5577  11.037   3.413  25.533  0.3547  0.2632 -0.1559
62562W        W 5578  11.732   7.538   9.788  0.2373  0.2161 -0.1415
62563W        W 5579  18.876  12.879  29.043 -0.1122  0.1184  0.3807
62564W        W 5580   1.547  24.061  23.490 -0.3142  0.0455  0.0311
62565W        W 5581  26.344  10.678   4.767 -0.0515 -0.2824  0.1631
62566W        W 5582  23.784  14.203   3.186 -0.2303  0.1518 -0.2326
62567W        W 5583  17.955  27.041   5.500 -0.2190 -0.1516 -0.2711
62568W        W 5584  12.648  17.919  28.975 -0.1620 -0.1951 -0.3211
62569W        W 5585  29.045  28.499   2.868  0.0906 -0.1462  0.2597
62570W        W 5586   9.390  32.712  23.279 -0.0667  0.0622 -0.1415
62571W        W 5587   7.876  22.213  16.656 -0.1369  0.0308  0.0135
62572W        W 5588  14.335  18.902  25.966  0.2198  0.4097  0.1224
62573W        W 5589  18.748  11.601   4.552  0.2129 -0.5557  0.4653
62574W        W 5590  21.320  24.247   5.460  0.1485 -0.0331  0.2168
62575W        W 5591   6.549  32.033   1.227  0.1218 -0.0687  0.2534
62576W        W 5592  23.925  32.262  22.593 -0.0387  0.1491  0.0284
62577W        W 5593  34.470   4.427   6.504 -0.2318 -0.0883  0.0940
62578W        W 5594  19.938  13.058   3.904 -0.0060  0.1076 -0.2441
62579W        W 5595  13.221  13.094  17.876  0.0781  0.0708  0.1812
62580W        W 5596  33.583  28.261   8.900 -0.2062  0.0864  0.0988
62581W        W 5597   1.364  10.032  14.111 -0.0601  0.1234 -0.3021
62582W        W 5598   3.589  15.621  26.176  0.1057  0.4256  0.1509
62583W        W 5599   1.520  24.138   4.785  0.0213 -0.3643  0.4255
62584W        W 5600  27.841   4.963   8.252  0.1110 -0.0422 -0.0232
62585W        W 5601  24.559  19.476   0.623 -0.1246 -0.0071  0.0336
62586W        W 5602  26.666  24.317   9.369  0.1511  0.3319  0.2446
62587W        W 5603   7.467  27.131   2.248 -0.0441  0.3974 -0.1621
62588W        W 5604  26.657  29.316  23.948  0.0049 -0.0422  0.0287
62589W        W 5605  29.741  31.487   4.973 -0.0924  0.0747  0.2072
62590W        W 5606  12.242   5.701   7.905 -0.0609  0.2942  0.3772
62591W        W 5607   7.189  20.790  26.430  0.1459  0.1903 -0.0479
62592W        W 5608  28.011  18.498  10.153 -0.1103  0.2649 -0.0649
62593W        W 5609   2.860  18.540   1.308 -0.3046 -0.0644 -0.2375
62594W        W 5610   5.503  15.015   2.851 -0.1455  0.0858 -0.4240
62595W        W 5611   4.192   7.954   4.782  0.0923 -0.0789 -0.0614
62596W        W 5612  34.229  33.414  23.665  0.1671  0.0572  0.0097
62597W        W 5613   0.565  28.126   8.511  0.1794  0.0834 -0.0537
62598W        W 5614   2.200  10.422   6.874  0.1873  0.1260  0.0249
62599W        W 5615  27.200  23.031   0.310 -0.1541 -0.3126  0.2664
62600W        W 5616   9.439   7.351   9.258 -0.2835  0.3737  0.0946
62601W        W 5617   6.384  22.299  15.427 -0.1085 -0.3101 -0.1160
62602W        W 5618  21.670  18.730   5.004  0.4431  0.2557 -0.1678
62603W        W 5619   2.138  18.493  18.217 -0.0259 -0.1213  0.2697
62604W        W 5620   8.804  26.026  28.984  0.0023 -0.3884  0.0105
62605W        W 5621  29.971   0.942  10.877 -0.1520  0.0928 -0.1643
62606W        W 5622   8.707  28.192   4.834  0.1499 -0.0324 -0.3254
62607W        W 5623  32.775  26.102  26.836 -0.0300 -0.3407  0.1390
62608W        W 5624  33.618  21.946   9.168 -0.1974 -0.0043  0.0832
62609W        W 5625  29.167  34.267   5.122  0.2911 -0.0613 -0.0292
62610W        W 5626   7.786   1.967   5.979  0.0091  0.2825 -0.1437
62611W        W 5627  32.947  24.042   6.499  0.0521  0.1434 -0.2335
62612W        W 5628  28.396  24.585  11.839 -0.2147  0.0288 -0.1194
62613W        W 5629  18.706  24.839  25.718 -0.3235 -0.0283 -0.1785
62614W        W 5630  11.751  19.895   0.215 -0.0844 -0.1625  0.0652
62615W        W 5631   4.438  29.073  28.206  0.1873  0.0179 -0.1070
62616W        W 5632  31.480  10.420   8.430  0.3707 -0.4067  0.0898
62617W        W 5633  26.523   4.323   8.775 -0.1498 -0.1816  0.0625
62618W        W 5634   8.596  10.641   5.842 -0.1459 -0.2074 -0.0448
62619W        W 5635  18.358   9.154   4.761 -0.2494 -0.1567  0.1314
62620W        W 5636  27.579  13.649  21.928 -0.0106  0.1221  0.1505
62621W        W 5637  32.961  24.691   9.264  0.2155  0.0391  0.2433
62622W        W 5638  13.433  26.673  20.041 -0.2978 -0.0293  0.1605
62623W        W 5639  34.041  11.016  26.798  0.2588  0.1051  0.2726
62624W        W 5640   8.655  25.975  28.463 -0.1976  0.0567 -0.0057
62625W        W 5641  30.367  11.566  26.376 -0.1847 -0.0998 -0.0301
62626W        W 5642  11.514  14.998   0.026 -0.0043  0.2362  0.3447
62627W        W 5643   1.039  33.794   4.672 -0.2115 -0.0208  0.1703
62628W        W 5644  17.952  17.384   1.493  0.1786  0.1685  0.1019
62629W        W 5645  22.702  15.448   6.461 -0.1305 -0.0966  0.0932
62630W        W 5646  29.044  32.131  26.627  0.1731  0.0676  0.2247
62631W        W 5647  30.829  22.396   2.418  0.0661  0.0440  0.1269
62632W        W 5648  22.665  23.454   2.310  0.0231  0.0316  0.3671
62633W        W 5649  33.006  24.786  18.774 -0.0520 -0.0029 -0.0139
62634W        W 5650  22.272  22.195   3.097 -0.0410  0.2484 -0.0455
62635W        W 5651  32.395   5.186  24.639 -0.1364 -0.1357 -0.3956
62636W        W 5652  34.348  30.258   9.140 -0.5368  0.0336  0.0811
62637W        W 5653  30.569  26.316  11.837 -0.1394  0.0754  0.2307
62638W        W 5654  12.014  15.107  18.437  0.3608  0.1980 -0.0209
62639W        W 5655  32.848  19.824   5.169 -0.4664  0.0122  0.1055
62640W        W 5656   5.485  31.973  28.716 -0.0087 -0.3096  0.1426
62641W        W 5657  28.621  24.314   7.853 -0.0613  0.2909 -0.2680
62642W        W 5658  20.246  15.547   2.428  0.1532 -0.5008  0.0993
62643W        W 5659  11.281   9.916  25.093  0.2022 -0.1153  0.1611
62644W        W 5660  17.253  16.417   2.824  0.0526 -0.2852  0.0465
62645W        W 5661   6.656  23.210  22.085  0.2400 -0.0878 -0.0556
62646W        W 5662  12.323  15.262  23.058 -0.0928 -0.1316  0.1154
62647W        W 5663  26.452  28.959   9.141 -0.0448 -0.1003  0.1051
62648W        W 5664  24.799  13.755   1.058  0.0720  0.0998 -0.2401
62649W        W 5665  32.999  19.088   4.803 -0.1112 -0.0014  0.0698
62650W        W 5666  31.091  21.322   7.834  0.3005  0.2361  0.0802
62651W        W 5667  11.345  31.208  16.190  0.3173 -0.1269 -0.1259
62652W        W 5668  11.316  32.296   0.041 -0.0859  0.3021 -0.0908
62653W        W 5669  33.635  26.467  16.606  0.2009 -0.1742  0.1190
62654W        W 5670  13.035   6.915   8.901  0.2456  0.0145 -0.1667
62655W        W 5671  13.126   2.477  29.188  0.2172  0.1525  0.0214
62656W        W 5672   1.107  22.659   6.344  0.1455 -0.0128  0.0165
62657W        W 5673  10.256  22.873  23.863  0.0226 -0.0262  0.1410
62658W        W 5674  10.887  31.970   0.183 -0.1215  0.1381  0.2058
62659W        W 5675  30.157   1.733  18.961 -0.2493  0.3446  0.0695
62660W        W 5676   3.948  30.873   2.030  0.1268  0.2731  0.0240
62661W        W 5677   2.247  12.673   8.956 -0.0115 -0.0012  0.1189
62662W        W 5678  11.948  29.379   5.515 -0.0072  0.0986  0.1490
62663W        W 5679  15.383   3.142   7.891 -0.0763 -0.0231 -0.0749
62664W        W 5680  27.882  31.215  22.519  0.0420 -0.2409  0.1210
62665W        W 5681  15.080  22.144   0.033 -0.2951  0.1678  0.0725
62666W        W 5682  12.216   7.440  27.425 -0.0592 -0.3236  0.1596
62667W        W 5683  12.471  26.723  13.992  0.0544  0.0632 -0.2195
62668W        W 5684   3.670  17.063  24.512 -0.1189 -0.1265  0.0896
62669W        W 5685  25.388  25.227  19.703  0.2383  0.2087  0.3130
62670W        W 5686  32.724  30.723   6.971 -0.2619  0.1769  0.1544
62671W        W 5687  31.256  23.817  25.641 -0.0993 -0.0808  0.2258
62672W        W 5688   2.558  16.842   1.102 -0.3920  0.1636  0.1800
62673W        W 5689  30.196  24.904   6.206  0.0880  0.0697  0.0693
62674W        W 5690   3.062  31.119   8.881 -0.2885 -0.1240 -0.1477
62675W        W 5691  13.164  19.391   1.216  0.1242 -0.0323  0.1723
62676W        W 5692  13.808  18.072   2.132  0.2962  0.0735 -0.2139
62677W        W 5693   3.934  13.168  26.155 -0.2077 -0.0990 -0.1746
62678W        W 5694   0.540  21.048  28.452  0.0484  0.0045 -0.0114
62679W        W 5695   3.746  31.513  10.204  0.2049  0.0874  0.1400
62680W        W 5696  30.749  17.883   6.473 -0.0571 -0.0517 -0.1963
62681W        W 5697   2.521  25.359   4.779 -0.1835  0.3277 -0.1159
62682W        W 5698  34.465  22.330   0.568 -0.0870 -0.3314 -0.0873
62683W        W 5699  11.024   6.095  22.056  0.1368  0.2406 -0.0855
62684W        W 5700  31.439  23.266  22.377 -0.1710 -0.0474  0.2494
62685W        W 5701   8.067  28.855   7.848  0.0349 -0.1200  0.1009
62686W        W 5702  25.812   8.434   1.606  0.5277  0.0176 -0.0795
62687W        W 5703  18.417  15.703  25.212  0.2976  0.0340  0.0150
62688W        W 5704   5.214  15.192   8.149 -0.2838 -0.0100 -0.2481
62689W        W 5705  26.762  21.729   8.939  0.0709  0.0631 -0.2951
62690W        W 5706   6.236  29.011   4.932 -0.0232 -0.0705 -0.2020
62691W        W 5707  26.303   5.202  28.464  0.0615 -0.3950  0.4063
62692W        W 5708  27.812  30.054   5.419 -0.1190  0.1963 -0.1099
62693W        W 5709   8.653  26.049   1.387  0.1726 -0.1736  0.0573
62694W        W 5710  24.026  14.440  28.847  0.1594 -0.2504  0.1534
62695W        W 5711  18.749  10.019   8.386 -0.3133  0.0016  0.0465
62696W        W 5712  17.016  22.147  26.438 -0.0498 -0.2767  0.0410
62697W        W 5713  15.848  17.457   7.269  0.1743 -0.1849  0.3520
62698W        W 5714  11.753  14.196  26.770 -0.0438  0.1145  0.2302
62699W        W 5715  29.522  29.983   6.875  0.0257  0.1136 -0.0436
62700W        W 5716   4.457  22.883  21.544 -0.1140 -0.3161 -0.0604
62701W        W 5717   9.199   5.463  24.015  0.0645  0.2853  0.0180
62702W        W 5718  11.016  26.898   0.547 -0.0534 -0.0528 -0.0471
62703W        W 5719  32.538  24.411   0.492 -0.2414  0.0114 -0.0801
62704W        W 5720  31.202  30.240  24.919  0.0122  0.1006 -0.1290
62705W        W 5721   3.433   1.712   6.746 -0.0087 -0.0535  0.0196
62706W        W 5722  32.216  15.999   8.508 -0.1677  0.1554  0.1402
62707W        W 5723   2.301  25.881   3.557  0.2590  0.0959 -0.0759
62708W        W 5724  23.404  25.472   4.280 -0.0046  0.0445  0.1359
62709W        W 5725   8.486  24.795  29.276 -0.0057 -0.0030  0.1895
62710W        W 5726   0.871  10.683   3.970  0.2899 -0.0707 -0.1254
62711W        W 5727  26.275  20.251  10.331 -0.1278 -0.0699 -0.0606
62712W        W 5728  17.287  18.087  14.229 -0.3205 -0.0319  0.1621
62713W        W 5729  19.996  18.025  20.204  0.2889  0.1838  0.2133
62714W        W 5730  15.895   8.264  25.028  0.0460  0.2454 -0.1439
62715W        W 5731  30.238  32.265  27.662  0.0893 -0.0470 -0.1309
62716W        W 5732  32.029  10.510   3.393  0.0265  0.2487 -0.1415
62717W        W 5733  11.485  11.344   4.635  0.2567  0.1010  0.0714
62718W        W 5734  23.492  23.563   9.056  0.1691 -0.1280 -0.1220
62719W        W 5735  15.744  32.990   4.986  0.0540  0.0485  0.0555
62720W        W 5736  21.953  23.417   8.155  0.1506  0.0395  0.1521
62721W        W 5737  14.795  14.441  25.765 -0.0472 -0.0602  0.0254
62722W        W 5738  26.284  20.805   4.628 -0.1648 -0.1584  0.1851
62723W        W 5739  34.507  17.273   6.952 -0.2221  0.1582  0.2863
62724W        W 5740   3.884  22.872   4.961  0.0538 -0.1458 -0.1362
62725W        W 5741  13.348  18.636  21.827 -0.3432 -0.0396 -0.0309
62726W        W 5742  22.997  21.177   6.754 -0.0856  0.0255  0.0299
62727W        W 5743  15.591  27.969  10.774 -0.2533 -0.0553 -0.1416
62728W        W 5744  32.165  24.761  10.559 -0.0253  0.0371  0.3288
62729W        W 5745   7.221  25.792  13.792  0.0944 -0.1122 -0.0052
62730W        W 5746  20.974  29.155  24.536 -0.1313 -0.0124  0.1496
62731W        W 5747   1.925  19.589   7.915  0.3277 -0.2022  0.0777
62732W        W 5748   7.789  25.927  21.948  0.1757 -0.0908 -0.3420
62733W        W 5749   6.038  28.925   8.750 -0.2037 -0.0694 -0.0885
62734W        W 5750  32.714  17.125   4.185  0.0973  0.4055  0.2170
62735W        W 5751  33.622  20.253   4.079 -0.1463  0.5071  0.3025
62736W        W 5752   2.831  24.897   6.764  0.3251 -0.1198  0.1622
62737W        W 5753   9.341  34.281  19.099  0.1598  0.0079  0.0940
62738W        W 5754  13.097  15.403   6.717 -0.1960 -0.1267 -0.1356
62739W        W 5755   5.188  23.423  20.295 -0.0398  0.1960  0.0896
62740W        W 5756  31.436  24.738  10.156  0.0595  0.0923  0.1069
62741W        W 5757  16.351   7.352   0.680  0.0882  0.3657  0.1264
62742W        W 5758  24.245  21.639  10.253 -0.2276 -0.1875 -0.2375
62743W        W 5759  29.052  26.986   3.093  0.2403 -0.0747  0.1504
62744W        W 5760   5.971  14.404  19.747  0.3151 -0.0223  0.2175
62745W        W 5761   9.973  13.031   7.101 -0.0733  0.2014  0.0491
62746W        W 5762  24.675  15.841   9.623  0.1589  0.0440  0.0028
62747W        W 5763  31.603  10.164  10.226 -0.0417 -0.4377  0.1691
62748W        W 5764   3.938  15.313   3.942 -0.0209 -0.0809  0.0785
62749W        W 5765  18.477  18.832  27.342 -0.1289  0.1691  0.1905
62750W        W 5766   7.864  19.250   7.169 -0.1605  0.1985  0.1194
62751W        W 5767  33.828  10.515  26.897 -0.0485 -0.0544  0.0377
62752W        W 5768   4.003   8.645   4.289  0.0008  0.1493 -0.1760
62753W        W 5769  31.029  17.410   1.600  0.2184  0.2523 -0.0190
62754W        W 5770  31.699   0.189  23.907  0.0865  0.1016 -0.1490
62755W        W 5771   6.750  17.555  24.584  0.1524 -0.2213  0.0933
62756W        W 5772   6.484  16.152   8.660 -0.0248 -0.0520  0.1919
62757W        W 5773   6.480  33.819  20.484  0.1990  0.0738 -0.1336
62758W        W 5774  26.041  12.592   1.799 -0.1539 -0.2880  0.0434
62759W        W 5775   3.288  14.980  24.225 -0.2041 -0.2608 -0.0377
62760W        W 5776  16.222  18.514   1.994  0.1857 -0.0315  0.0724
62761W        W 5777  30.026   3.200  10.712  0.2433 -0.2437 -0.0078
62762W        W 5778  31.443  12.973  26.850 -0.0029  0.0439  0.0829
62763W        W 5779  29.389  17.714  25.312 -0.2651 -0.2427  0.0592
62764W        W 5780   5.842  22.844  18.714 -0.0840  0.1881 -0.1766
62765W        W 5781  32.630  23.370  26.293 -0.1613 -0.1407  0.1098
62766W        W 5782   5.240  34.287   2.237 -0.2295 -0.0670 -0.2636
62767W        W 5783  17.540  29.708   5.773  0.2201 -0.1077  0.0823
62768W        W 5784  11.636  27.868  14.407 -0.0186 -0.2899 -0.2095
62769W        W 5785  20.678  25.210   0.459 -0.0136  0.0989 -0.1179
62770W        W 5786   3.143  18.289  15.463  0.3834 -0.0799  0.0100
62771W        W 5787  11.217   4.132  20.329  0.0632  0.1004  0.1181
62772W        W 5788  19.016  22.436   8.005  0.1903 -0.3013  0.0350
62773W        W 5789  31.383  12.719   3.617  0.0297  0.4170 -0.1289
62774W        W 5790  29.893  32.100   2.190 -0.0238 -0.0022 -0.1743
62775W        W 5791   1.017  27.197   1.948 -0.0377 -0.0290  0.1095
62776W        W 5792   1.239  21.176   8.379  0.0298 -0.2766  0.4831
62777W        W 5793  28.287  17.775   1.362  0.2182  0.1015  0.3222
62778W        W 5794  19.849   0.923   2.561 -0.0772  0.2587 -0.0706
62779W        W 5795  13.868   7.967  27.173 -0.0658  0.1113  0.0757
62780W        W 5796  12.454  34.456   3.659  0.0981 -0.0814 -0.1562
62781W        W 5797   1.019  31.032  26.584  0.0257  0.0521 -0.1146
62782W        W 5798  25.915  29.534  28.575  0.1499  0.1571 -0.2878
62783W        W 5799  25.107  20.694  17.943  0.1967  0.0163  0.1446
62784W        W 5800   5.383  31.734   9.678  0.0325  0.0715 -0.0793
62785W        W 5801   6.272  18.362  14.284  0.1593 -0.1076  0.1617
62786W        W 5802   9.631  15.406   1.074 -0.5296  0.2725 -0.0492
62787W        W 5803   0.625  26.462  26.172  0.1919  0.1253 -0.1734
62788W        W 5804  29.783  21.458   0.680 -0.3268 -0.1516 -0.3201
62789W        W 5805  11.857  11.385   1.623 -0.1094 -0.1262  0.0395
62790W        W 5806   7.850  17.167  22.576 -0.2762 -0.1472 -0.0455
62791W        W 5807  16.535   6.936  25.585 -0.0446  0.3804  0.0314
62792W        W 5808   0.196  25.825   9.261  0.0400 -0.0576 -0.0339
62793W        W 5809  31.968  14.805   8.464  0.3265  0.0980  0.3409
62794W        W 5810   9.979  19.815   6.553 -0.1512 -0.0499  0.0020
62795W        W 5811  18.507  29.513  10.261  0.1642  0.3156 -0.1576
62796W        W 5812   1.778  19.679  24.502  0.0588  0.1227 -0.1500
62797W        W 5813  32.734  24.785  21.390 -0.4054  0.0647  0.1136
62798W        W 5814  10.452  12.337   7.082 -0.1513  0.1772  0.0251
62799W        W 5815  19.029  24.751  15.356 -0.1978 -0.2332  0.1086
62800W        W 5816  22.990  12.077  23.990 -0.0454  0.1802  0.2277
62801W        W 5817   3.548   9.947   1.257 -0.0574 -0.2600  0.0958
62802W        W 5818  33.013  27.899  20.411 -0.0495 -0.0568  0.1064
62803W        W 5819   9.239  28.444   9.584  0.2233  0.4585 -0.1476
62804W        W 5820   7.654   8.852  23.892  0.0178  0.3446  0.2174
62805W        W 5821  25.023  31.415   2.214 -0.1169 -0.0596 -0.1191
62806W        W 5822   3.218  12.509  15.646  0.2657  0.3681 -0.0003
62807W        W 5823  34.429  18.969   5.587  0.0387  0.3087 -0.2170
62808W        W 5824  32.124  28.766   8.183 -0.2791 -0.0069  0.0312
62809W        W 5825   1.444  28.311  20.512  0.0397  0.3588 -0.3851
62810W        W 5826  21.908   3.233   9.518  0.0921  0.4421 -0.1373
62811W        W 5827  33.624  15.989  28.311  0.0712 -0.1361 -0.1826
62812W        W 5828  17.599  14.380  15.505  0.2246  0.1170  0.0986
62813W        W 5829   6.192  17.488  27.540  0.0706 -0.2244 -0.1268
62814W        W 5830  28.672  27.154  12.157  0.2428  0.1061  0.0721
62815W        W 5831   4.895  25.098  26.185 -0.1329 -0.0124 -0.2844
62816W        W 5832   9.869  16.329   8.027  0.3909 -0.1067 -0.0568
62817W        W 5833  33.126  20.282  26.758  0.0750 -0.1119 -0.1081
62818W        W 5834  31.203  27.483  11.203  0.0287  0.1229 -0.0558
62819W        W 5835  23.500  16.658   7.825  0.0306 -0.0511 -0.3278
62820W        W 5836  24.769  16.780   9.170  0.0898 -0.3744  0.1886
62821W        W 5837  11.293  23.533   6.212  0.0395 -0.1740  0.3855
62822W        W 5838  21.721  23.213   0.612  0.1021  0.2723 -0.1090
62823W        W 5839   0.830  19.780   8.766 -0.0834 -0.0790  0.2010
62824W        W 5840   6.477  16.841   8.457  0.2378  0.0438 -0.2128
62825W        W 5841  18.328  23.150  28.210 -0.1586  0.2964 -0.2577
62826W        W 5842   3.562  32.771   3.096 -0.0571 -0.1665  0.0215
62827W        W 5843  31.735  20.641   6.929 -0.0301 -0.1847 -0.1630
62828W        W 5844   6.339  28.428   6.591  0.2110  0.0674 -0.1039
62829W        W 5845   3.989  22.902   1.437 -0.0612 -0.2210 -0.0388
62830W        W 5846   9.475  19.480  28.922 -0.0809  0.0647  0.2244
62831W        W 5847  33.315  16.418   9.402 -0.1300 -0.1113  0.3123
62832W        W 5848  34.047  16.336   2.222  0.0389  0.0014  0.0015
62833W        W 5849  11.967  13.353   1.526  0.4401 -0.0324 -0.0149
62834W        W 5850   2.582  11.642   9.032 -0.0631  0.0397 -0.0735
62835W        W 5851  27.270  11.118   4.526  0.0634  0.1026  0.2075
62836W        W 5852   1.432  21.304  21.278  0.0438  0.1359  0.4782
62837W        W 5853  20.400  30.978  18.070 -0.0590 -0.0462  0.1388
62838W        W 5854  25.377  31.111   2.522 -0.1428  0.0790 -0.1290
62839W        W 5855  34.193  31.391  26.901 -0.0206  0.1819 -0.0184
62840W        W 5856   1.277  27.316   6.053  0.1345  0.3527  0.0889
62841W        W 5857  31.510   8.789  28.630  0.0654  0.0753 -0.3967
62842W        W 5858   8.577   0.217  28.645 -0.2133  0.1052  0.0743
62843W        W 5859  33.412   5.488   9.354 -0.0645 -0.1677  0.1172
62844W        W 5860   2.744  27.954   9.466 -0.0165 -0.2027  0.1193
62845W        W 5861   7.643  20.972   1.859  0.1192 -0.0125  0.3424
62846W        W 5862  34.290  22.794  25.231 -0.0228 -0.2452 -0.0453
62847W        W 5863   5.069  18.950  21.715 -0.1002 -0.2690  0.0993
62848W        W 5864  32.713  20.746  27.662 -0.1146  0.1266  0.0902
62849W        W 5865   1.700   1.919  23.283  0.1974 -0.1418  0.1019
62850W        W 5866  11.701  17.507  25.632  0.3828 -0.1626 -0.1503
62851W        W 5867  29.577   7.584  26.292  0.0042  0.1414  0.0110
62852W        W 5868   7.197  28.382  26.823  0.0294  0.0294 -0.1874
62853W        W 5869  28.952  30.746   3.074 -0.0357 -0.0595 -0.1394
62854W        W 5870  13.911  17.949  22.712  0.0960 -0.0103 -0.0034
62855W        W 5871   1.869  29.278  29.106 -0.0129  0.2150  0.0272
62856W        W 5872  32.890   6.574  28.051  0.2149 -0.0390 -0.1404
62857W        W 5873  28.544  23.301   4.518  0.0745  0.1495 -0.0802
62858W        W 5874  21.031  24.409   7.092 -0.0043 -0.0077 -0.0033
62859W        W 5875   4.144  25.763   7.666 -0.0173 -0.0342  0.0569
62860W        W 5876  27.170  17.666  27.030 -0.1339 -0.1399  0.0129
62861W        W 5877   9.333  23.505  25.428 -0.0203 -0.0936 -0.1734
62862W        W 5878   1.953  27.932   4.874 -0.0758 -0.1556 -0.0304
62863W        W 5879   1.434  22.988  15.858  0.0664  0.0303  0.0087
62864W        W 5880  30.936  26.227  25.216  0.1446  0.1730  0.2589
62865W        W 5881  19.028  19.714   6.335 -0.0165 -0.0340 -0.1504
62866W        W 5882   9.529   7.388  22.798 -0.1528 -0.2366 -0.5514
62867W        W 5883  32.784  15.159  22.248  0.0297  0.3713 -0.3777
62868W        W 5884  30.713  20.535  27.051 -0.1325 -0.1003  0.0818
62869W        W 5885   9.311  15.603   6.088 -0.2709 -0.0412 -0.1836
62870W        W 5886  30.155  28.214  23.941  0.1136 -0.0706  0.2065
62871W        W 5887  32.466  29.495   1.375 -0.2494  0.1725  0.1414
62872W        W 5888   6.628   1.170   8.949  0.0836  0.2422  0.2770
62873W        W 5889  29.011  17.659   8.329  0.1293  0.1226  0.0807
62874W        W 5890  31.972  28.569  20.344 -0.1224  0.1619  0.2807
62875W        W 5891  11.288  13.607  25.072  0.1408  0.2971 -0.0528
62876W        W 5892   0.438  22.179  28.503 -0.1814 -0.0683  0.0584
62877W        W 5893  13.017  33.032   0.287 -0.0009 -0.0980  0.3019
62878W        W 5894   4.131  30.245   5.027  0.0424  0.0418 -0.1834
62879W        W 5895  27.936  32.794  10.625  0.4872 -0.1887  0.1501
62880W        W 5896  34.327  33.112  24.946 -0.1480 -0.0950  0.1491
62881W        W 5897  32.035  30.474  11.095 -0.0854 -0.1289 -0.0565
62882W        W 5898  27.129  28.143  17.480  0.4184 -0.0971 -0.0406
62883W        W 5899  11.885  20.988   2.373  0.1550 -0.0152  0.1808
62884W        W 5900  10.512  12.072   1.407  0.1920  0.2656 -0.0595
62885W        W 5901  10.652  24.101  27.998  0.0745  0.0848  0.2018
62886W        W 5902  25.956  13.125   9.214  0.1495  0.3426 -0.1791
62887W        W 5903   5.889  25.999   8.087  0.1260 -0.1338 -0.4607
62888W        W 5904  30.423  33.858   8.808  0.1145 -0.1444  0.0921
62889W        W 5905  31.794  29.731  24.569  0.0163 -0.3430  0.2015
62890W        W 5906  20.452  20.968   2.939  0.1032 -0.0930  0.0025
62891W        W 5907  25.930   5.943  28.680 -0.2404  0.3045  0.2392
62892W        W 5908  32.834  22.547  20.531  0.1112  0.1201 -0.1489
62893W        W 5909   2.080  29.698   7.258 -0.1676  0.0675  0.1496
62894W        W 5910  29.980  30.778   2.058  0.0394  0.0283 -0.0870
62895W        W 5911   3.302   8.073   8.536 -0.0872 -0.1678 -0.1595
62896W        W 5912   8.207  25.251  15.139  0.1033 -0.1700  0.1372
62897W        W 5913   7.695  28.431  27.083  0.0334  0.1280  0.0606
62898W        W 5914  16.154  18.995  25.664  0.1263  0.1651  0.0055
62899W        W 5915  12.233  23.749   6.906 -0.2058  0.1538 -0.0752
62900W        W 5916   8.560  26.891  27.341 -0.0785  0.0356  0.1116
62901W        W 5917   4.994  20.495   4.511  0.1347 -0.1254 -0.1648
62902W        W 5918  33.060  30.238  10.372  0.0543 -0.0253 -0.0471
62903W        W 5919   6.830  31.360   8.602 -0.2331 -0.0735 -0.0454
62904W        W 5920   1.218  14.932   9.060 -0.1224  0.0510 -0.0596
62905W        W 5921  10.006  18.406   7.537 -0.2130  0.1798 -0.1008
62906W        W 5922   1.606   0.383  27.639 -0.2980 -0.2194 -0.0697
62907W        W 5923   0.533   2.765   3.524 -0.0220  0.0408 -0.3061
62908W        W 5924  26.363  25.513  10.574 -0.2047 -0.0102 -0.0800
62909W        W 5925  23.087  31.978   4.602 -0.0704  0.0593  0.1260
62910W        W 5926   5.265  26.269   3.352  0.3811  0.3549  0.3786
62911W        W 5927  10.601   1.346  27.536  0.0321  0.3343 -0.0180
62912W        W 5928   4.668  21.480   9.080  0.1970  0.0082 -0.3242
62913W        W 5929  29.207  24.603   2.028 -0.2141 -0.2500  0.2942
62914W        W 5930  12.313  17.221  26.636  0.1522 -0.0863 -0.2797
62915W        W 5931  26.625  23.203  28.786  0.0557 -0.1513 -0.1394
62916W        W 5932   6.054  19.538  25.627 -0.0088 -0.1404  0.0512
62917W        W 5933   0.611   8.703   5.005 -0.0532  0.0734  0.2305
62918W        W 5934  20.247  14.852   5.372  0.0143 -0.3280  0.2586
62919W        W 5935  13.189  18.236  22.211  0.1238  0.1041 -0.1689
62920W        W 5936   7.279  26.231  20.306 -0.3005  0.1642 -0.0120
62921W        W 5937  34.398  25.967   6.751 -0.0932 -0.3372  0.1494
62922W        W 5938  28.282  23.623   4.812 -0.0122  0.0322 -0.1010
62923W        W 5939  30.181  22.141   8.926 -0.3488  0.0059 -0.2294
62924W        W 5940   1.294  11.321   9.756  0.3194 -0.0880  0.3228
62925W        W 5941  34.476  29.062  10.079  0.3334 -0.2970  0.0258
62926W        W 5942  10.944  20.564   6.283 -0.1545  0.0466  0.1254
62927W        W 5943  30.631  28.004   6.827 -0.4074  0.0226 -0.3203
62928W        W 5944  33.121   5.578   7.440 -0.0883 -0.0567 -0.2278
62929W        W 5945  32.127   6.050   3.849 -0.2721  0.1858 -0.1107
62930W        W 5946   8.671  23.897   4.450  0.1149 -0.0718 -0.4688
62931W        W 5947  15.196   3.267  27.286 -0.0311 -0.2278 -0.0919
62932W        W 5948   5.003  15.225   7.309 -0.1844  0.3952 -0.0447
62933W        W 5949  31.740  30.300   5.396  0.3594  0.1014 -0.2017
62934W        W 5950  23.233  24.938   9.379  0.1314 -0.1286  0.0018
62935W        W 5951  11.412  27.607  14.862  0.1614  0.1656 -0.0976
62936W        W 5952  24.660   1.957  22.046  0.1322  0.0049 -0.1493
62937W        W 5953  14.053  10.256  15.679  0.0558 -0.0306  0.1645
62938W        W 5954  11.119  26.935   8.658 -0.2100 -0.0853 -0.0455
62939W        W 5955  16.101  10.453   0.154 -0.1136 -0.3093  0.1800
62940W        W 5956   0.330  29.239  20.402  0.1633 -0.1034  0.1488
62941W        W 5957  23.659  20.971   3.119 -0.0785  0.0380 -0.0960
62942W        W 5958  30.114  22.202  25.663 -0.0410 -0.0501 -0.1571
62943W        W 5959   3.315  33.062   1.080 -0.0157  0.1762 -0.0606
62944W        W 5960   1.685  23.080  25.006  0.1393 -0.0654 -0.2748
62945W        W 5961   6.091  27.730  24.985 -0.1008  0.2002  0.0936
62946W        W 5962  16.071  34.268   6.903 -0.0656 -0.0234 -0.4015
62947W        W 5963  31.368  17.990  25.792  0.1198  0.1295 -0.2076
62948W        W 5964  28.497  24.575   1.126  0.0400 -0.0550  0.0964
62949W        W 5965   7.196  27.620   4.522 -0.0516  0.1454 -0.0423
62950W        W 5966  13.435  21.725   2.481 -0.0185 -0.2156 -0.0850
62951W        W 5967  32.730  22.720  17.585  0.3124  0.1885 -0.0640
62952W        W 5968   4.061  32.171  20.841 -0.0183 -0.0040  0.1603
62953W        W 5969   0.118   4.923   8.999  0.0675 -0.1252 -0.2554
62954W        W 5970  15.972  18.916   7.458 -0.2460  0.1484 -0.3200
62955W        W 5971  15.521   0.603   8.016  0.0700  0.0560  0.2061
62956W        W 5972  10.562  22.421   4.482  0.0838  0.1011 -0.0958
62957W        W 5973   6.563  10.980   7.854  0.1455  0.0317  0.0438
62958W        W 5974   2.439  21.940   0.432 -0.0338  0.0590 -0.2263
62959W        W 5975  15.957  22.328   1.218  0.5117  0.1340 -0.0111
62960W        W 5976  32.534  27.494   5.997 -0.1212 -0.3977 -0.0803
62961W        W 5977  24.717  21.886   3.178  0.0384 -0.3095  0.3238
62962W        W 5978   5.662  12.936   5.571 -0.0687 -0.0400  0.1220
62963W        W 5979   4.354  24.949  25.582 -0.0945  0.2067 -0.1757
62964W        W 5980  32.661  32.305   3.120  0.0472  0.1923 -0.0409
62965W        W 5981  31.185  21.477   6.933  0.2309  0.3329 -0.0104
62966W        W 5982  33.305   6.306   5.973 -0.0588 -0.1267  0.3435
62967W        W 5983  31.836  23.903  11.108 -0.0646 -0.3089 -0.0662
62968W        W 5984  24.380  21.814   4.102  0.0743 -0.1189 -0.0683
62969W        W 5985  32.359  28.107   5.175 -0.1153 -0.2346 -0.0484
62970W        W 5986  11.868  11.865   6.357 -0.0066  0.2018 -0.0926
62971W        W 5987   7.824  27.812   8.928  0.2798 -0.1075 -0.4349
62972W        W 5988  25.537  23.032   4.411 -0.1461  0.2817 -0.1352
62973W        W 5989  33.684  12.981   6.082  0.0884 -0.0105 -0.2375
62974W        W 5990  28.711  34.435   8.140  0.0282 -0.1890  0.1447
62975W        W 5991  13.722  12.361   7.653  0.0835 -0.1343  0.1358
62976W        W 5992  12.546  27.738   8.396  0.0493 -0.2290 -0.1526
62977W        W 5993  22.248  20.714   7.143  0.1073  0.0198 -0.2545
62978W        W 5994   6.620  25.947  25.806 -0.0032 -0.0684 -0.1131
62979W        W 5995   8.464  25.725   0.991 -0.2846  0.0107 -0.0037
62980W        W 5996  24.015  13.075  23.116 -0.6166  0.0876 -0.0150
62981W        W 5997   4.987  19.222   5.008 -0.1398 -0.0398 -0.0096
62982W        W 5998  23.420  32.713  19.160  0.0167 -0.0068  0.3628
62983W        W 5999   6.255  18.342   4.428 -0.1770  0.4172 -0.1295
62984W        W 6000   5.554   9.605   8.061 -0.0579  0.0477  0.1387
62985W        W 6001  13.427  30.564   6.638 -0.2133 -0.1868 -0.0980
62986W        W 6002  28.492  14.221  22.606 -0.1207 -0.0606  0.2650
62987W        W 6003   3.377  27.322   7.345  0.1801  0.0431  0.0843
62988W        W 6004  12.728  16.569  25.252  0.0717  0.2984  0.0532
62989W        W 6005  11.047  15.533   2.511 -0.1281 -0.1198 -0.0641
62990W        W 6006   5.800  12.089   6.539 -0.0050 -0.0150 -0.0759
62991W        W 6007  14.893   1.175   1.475  0.1964 -0.3818 -0.0960
62992W        W 6008   2.928  28.675   8.861  0.0931 -0.2274 -0.0052
62993W        W 6009  34.272  26.848   4.597  0.2765 -0.1370 -0.1627
62994W        W 6010   8.446  29.184  21.703 -0.1103  0.1799  0.3221
62995W        W 6011  26.915  20.338   9.078 -0.4741  0.0783  0.1773
62996W        W 6012   5.083  31.948   6.450  0.2379 -0.4989 -0.1871
62997W        W 6013   7.075  21.061   4.450 -0.3196  0.0096 -0.1440
62998W        W 6014  34.304  20.948   9.971 -0.2643  0.1439  0.0702
62999W        W 6015  34.619  21.315   7.457  0.1759  0.1155  0.1644
63000W        W 6016  33.971   4.573  23.144 -0.2177  0.4342  0.4772
63001W        W 6017   0.053  19.593  24.905 -0.2988 -0.1820 -0.5335
63002W        W 6018   2.454  19.313   9.278 -0.3387 -0.2454  0.0178
63003W        W 6019  11.787   0.761   8.217  0.1919 -0.2859 -0.1423
63004W        W 6020  24.535  18.075  29.126 -0.3336 -0.0633 -0.2123
63005W        W 6021  27.041  23.283   6.732 -0.0767 -0.0412 -0.0256
63006W        W 6022   3.264  23.602   4.100  0.1200 -0.2493 -0.1580
63007W        W 6023  31.399  16.971   4.098  0.1291  0.0556 -0.2373
63008W        W 6024  20.953  14.480  28.109  0.1020 -0.1025 -0.0001
63009W        W 6025   1.933   5.430  23.578  0.2645  0.0864  0.1818
63010W        W 6026   1.879  22.670   7.673  0.1528 -0.0065 -0.0223
63011W        W 6027  30.672   2.994  10.254  0.0928  0.0896  0.0361
63012W        W 6028   2.260  25.579  28.857 -0.2251 -0.2060  0.5383
63013W        W 6029  32.055  26.278  11.212 -0.1516 -0.0581 -0.1633
63014W        W 6030  18.094  21.475  26.119  0.0341 -0.0617 -0.1920
63015W        W 6031   2.463  12.214   4.694  0.4669 -0.3125 -0.2393
63016W        W 6032  16.752  17.570   2.001  0.1155  0.0924  0.2240
63017W        W 6033   5.092  28.906  28.987 -0.0212  0.1558 -0.0229
63018W        W 6034  11.020  32.801   1.803  0.1750 -0.1020  0.2178
63019W        W 6035   7.860  32.617   1.600 -0.0832  0.1456 -0.1627
63020W        W 6036  30.327  31.086   9.198  0.2167  0.0766  0.2000
63021W        W 6037   3.870  14.228   4.182 -0.3299 -0.0409 -0.3193
63022W        W 6038  29.507  27.686  10.477  0.2882 -0.1379 -0.1139
63023W        W 6039   4.196  30.206  24.845  0.0094 -0.0996 -0.0109
63024W        W 6040  34.474   8.489   3.862  0.0160  0.0436 -0.0508
63025W        W 6041   9.635  30.232   1.289  0.2898 -0.1182 -0.0849
63026W        W 6042   7.611   9.116   5.122  0.2514  0.0141  0.1374
63027W        W 6043   4.146  21.912  23.933  0.1988 -0.0973 -0.0568
63028W        W 6044  15.017  17.991  25.364 -0.4177 -0.3299  0.4479
63029W        W 6045  30.334   1.806   4.821  0.0962 -0.1869  0.0143
63030W        W 6046  10.148  27.004  24.312  0.0890  0.0054  0.0046
63031W        W 6047   0.262  11.095   7.009  0.3218  0.2455  0.1274
63032W        W 6048  31.311  30.048   9.803 -0.3009 -0.2089 -0.2542
63033W        W 6049   1.868  26.147  24.154 -0.1600  0.2513 -0.0989
63034W        W 6050  31.737  32.466   9.110  0.0463  0.0362 -0.2679
63035W        W 6051   3.797  11.416  28.674  0.1671  0.4367 -0.1777
63036W        W 6052  31.899  13.799   4.843  0.0890  0.3150  0.2188
63037W        W 6053   7.314  34.037   2.234  0.1679  0.3925 -0.1991
63038W        W 6054   3.843  20.914  29.126 -0.0681 -0.2057 -0.0541
63039W        W 6055   4.281  16.678  23.166 -0.2404  0.1669 -0.1283
63040W        W 6056   6.762  30.726   1.954 -0.1885 -0.4385  0.1224
63041W        W 6057   7.816   5.901  29.255  0.0919  0.1839 -0.1334
63042W        W 6058  30.954  20.860   9.035 -0.2765  0.1331  0.1432
63043W        W 6059   1.667  10.659  10.544 -0.2073  0.0449 -0.2752
63044W        W 6060  18.893   1.314   7.127  0.0057  0.2237  0.3602
63045W        W 6061  11.886   7.849   2.003  0.3347 -0.0170 -0.2182
63046W        W 6062   4.256  17.931   7.310  0.0449 -0.0548  0.0767
63047W        W 6063  25.526  33.580  18.951 -0.1301 -0.3982  0.0906
63048W        W 6064  27.604  18.044  19.173  0.1810  0.2019 -0.2413
63049W        W 6065  23.872  20.674   6.681 -0.1268 -0.0125  0.1282
63050W        W 6066  27.191  22.710   2.658  0.0526  0.2148  0.0567
63051W        W 6067  32.080   9.088  26.946 -0.1136 -0.0839  0.0179
63052W        W 6068   5.962  28.749  18.170 -0.1117  0.0202 -0.0913
63053W        W 6069   8.981  26.398   2.125  0.0846  0.0456  0.0667
63054W        W 6070   2.907  21.646   8.408 -0.1105  0.4916  0.0810
63055W        W 6071   4.579  16.149   6.140 -0.2598 -0.2163  0.1658
63056W        W 6072  34.449  21.849   8.121 -0.1153 -0.0317 -0.0591
63057W        W 6073  22.188  24.814  18.559  0.2646 -0.0139 -0.0200
63058W        W 6074  10.914   0.664  26.433 -0.1395  0.2659 -0.1627
63059W        W 6075   8.773  22.895   6.019  0.0258  0.1848  0.1950
63060W        W 6076  21.053  18.277  20.519  0.1093 -0.0517 -0.0472
63061W        W 6077  32.445   0.372  25.565  0.0439 -0.0431  0.2229
63062W        W 6078   1.970  28.341  25.767 -0.0191 -0.1174  0.1812
63063W        W 6079  11.537  23.375   0.202  0.2858 -0.0087  0.1957
63064W        W 6080  34.172  21.348   0.528  0.0397 -0.3149 -0.0320
63065W        W 6081  12.004  23.441   1.756  0.1823  0.0761 -0.1587
63066W        W 6082  33.689  31.011   7.976 -0.1464  0.2107  0.0297
63067W        W 6083  31.598  10.859   3.689 -0.2807  0.0140  0.0309
63068W        W 6084  20.707  18.367   8.208  0.0354  0.0755  0.0268
63069W        W 6085   2.692  32.203   4.968  0.0523  0.2366  0.0484
63070W        W 6086  34.438  27.261   9.149  0.1491  0.0978  0.0534
63071W        W 6087  27.763  32.642   5.041 -0.2485 -0.1651 -0.2311
63072W        W 6088  10.595  29.356  25.186  0.1385  0.1199 -0.1475
63073W        W 6089  18.628   3.363   5.437 -0.0237  0.1055 -0.0959
63074W        W 6090  23.695  16.317  22.502  0.0035 -0.1915  0.3530
63075W        W 6091  23.404  22.337  26.496  0.2024 -0.0149  0.0619
63076W        W 6092  12.744  19.749   3.968  0.0629  0.1659 -0.1024
63077W        W 6093  30.042  25.297  10.990  0.1190 -0.2031 -0.0624
63078W        W 6094  18.088   0.528  28.458  0.1295 -0.1487 -0.2201
63079W        W 6095   3.798  31.240   3.347 -0.0865  0.1198  0.2124
63080W        W 6096   4.232  27.446   2.171 -0.0132  0.1618  0.0986
63081W        W 6097  13.450  17.614  22.978 -0.3968 -0.0912  0.0458
63082W        W 6098   9.578  12.614   7.827 -0.0218 -0.4849 -0.0636
63083W        W 6099  34.608   8.208  28.978 -0.2214 -0.0866  0.0610
63084W        W 6100   7.716  25.874   3.735  0.1625 -0.3074 -0.5439
63085W        W 6101   7.953  17.328  19.847 -0.1440 -0.2362  0.1719
63086W        W 6102  24.175  15.592   9.489 -0.2495 -0.1585 -0.0473
63087W        W 6103   2.055   7.496   7.947 -0.1742  0.4062  0.2396
63088W        W 6104   0.168   5.314  10.548  0.2363 -0.2657  0.1276
63089W        W 6105  26.697  12.693   6.990  0.1473 -0.2528  0.2077
63090W        W 6106  31.305  24.251  10.184  0.2533  0.2296  0.1933
63091W        W 6107   2.391  21.135  27.546 -0.0476  0.1315 -0.0357
63092W        W 6108   7.862  33.924   6.007  0.1532  0.1852  0.0253
63093W        W 6109  14.906  15.365   4.576  0.0079  0.2403 -0.3304
63094W        W 6110  10.519  26.310   7.431 -0.0108  0.2553 -0.2072
63095W        W 6111  13.811   1.338   8.465 -0.2133 -0.1040 -0.1083
63096W        W 6112   3.051  18.430   0.747  0.2353 -0.0418 -0.2616
63097W        W 6113   5.716  20.459  27.329  0.1344  0.1326  0.2189
63098W        W 6114  27.243  10.312   2.597 -0.2872 -0.1205  0.1341
63099W        W 6115  28.847  16.318  27.707 -0.0266 -0.0015  0.1436
63100W        W 6116   7.107  23.572   0.383  0.2313 -0.2744 -0.1975
63101W        W 6117  34.473  28.452  26.975 -0.2852  0.2352  0.0303
63102W        W 6118  16.418   8.063   1.306 -0.0565 -0.1840  0.1540
63103W        W 6119   2.061  23.604   9.297 -0.0459 -0.2078  0.0980
63104W        W 6120  30.779  23.417   5.829 -0.0566  0.0609 -0.1728
63105W        W 6121   2.540  20.986   7.226 -0.0257  0.0647  0.0352
63106W        W 6122  14.700  18.526  19.929  0.1215 -0.1912  0.0810
63107W        W 6123  25.224  19.493   8.137  0.0699 -0.1375 -0.1018
63108W        W 6124   0.172  25.524   7.667 -0.0700 -0.0521 -0.0224
63109W        W 6125   6.817  21.248  22.952  0.0733 -0.0536  0.0692
63110W        W 6126  34.706  19.587   8.644 -0.1759 -0.0950 -0.1252
63111W        W 6127   3.781  10.963   0.571  0.2429  0.3628 -0.0134
63112W        W 6128  33.219  21.265   7.799  0.0669 -0.0318 -0.0852
63113W        W 6129  30.210  16.621   6.600 -0.1077  0.0718 -0.1146
63114W        W 6130  18.026  18.112  26.065  0.2802  0.1025  0.4526
63115W        W 6131  32.257  30.964   7.243 -0.4270  0.2358  0.2230
63116W        W 6132  24.664  12.719  26.478  0.1878 -0.0978  0.1062
63117W        W 6133   1.672  12.001   4.885  0.0907  0.2436  0.1031
63118W        W 6134   6.741  30.480   8.586 -0.1110 -0.0112 -0.1622
63119W        W 6135   6.509  24.570   6.275 -0.0627 -0.0140  0.5392
63120W        W 6136  30.986  13.892   7.386  0.1538 -0.0776 -0.0771
63121W        W 6137  27.867  27.982  11.258 -0.1511 -0.2326  0.0641
63122W        W 6138  33.130  18.954  24.850 -0.0311  0.2288  0.2991
63123W        W 6139   8.675  22.088  20.456  0.2093  0.1683 -0.2010
63124W        W 6140  33.126  14.622   7.190 -0.1641 -0.0506  0.0289
63125W        W 6141  29.108   9.347  10.563  0.1458  0.0461  0.0919
63126W        W 6142  16.285  33.185   0.845 -0.1090  0.0214  0.1575
63127W        W 6143   5.333   5.195   8.699  0.1321  0.0709  0.0726
63128W        W 6144   1.045   8.954   7.323 -0.1812  0.1184  0.1658
63129W        W 6145   8.384  25.479   4.930  0.2216 -0.2941  0.0135
63130W        W 6146  15.200  19.573   7.721  0.2080  0.0122 -0.0925
63131W        W 6147  29.798  29.304   3.883 -0.1004  0.0581 -0.2985
63132W        W 6148   0.093  13.730   5.885 -0.0608 -0.1878  0.0966
63133W        W 6149  12.065   5.267   4.311 -0.0468 -0.3120  0.0928
63134W        W 6150  15.008  29.511   4.020  0.1328  0.2514  0.1670
63135W        W 6151  10.509  20.735   6.088  0.0283  0.3723  0.1874
63136W        W 6152  21.117  27.092   7.384  0.0731 -0.1403 -0.0096
63137W        W 6153   3.525  12.481  22.469 -0.3723  0.0990 -0.0432
63138W        W 6154  30.568  30.993  17.142 -0.4115  0.1932 -0.3001
63139W        W 6155  33.425  26.952  23.999  0.5086 -0.1618  0.0068
63140W        W 6156  20.849  21.983   5.924  0.0020 -0.0025 -0.2476
63141W        W 6157   6.326  24.166   5.566  0.0416 -0.2710 -0.0147
63142W        W 6158  32.932  22.384   1.700  0.1236 -0.2678  0.2082
63143W        W 6159  10.860  20.019   8.418 -0.0263 -0.0680  0.1426
63144W        W 6160  16.375  25.780  22.510  0.1906 -0.2532 -0.0182
63145W        W 6161  26.204  20.825  27.481 -0.4567 -0.0283  0.0737
63146W        W 6162   2.996  26.735   2.763  0.1226  0.1684 -0.0740
63147W        W 6163   1.120  25.964   3.032 -0.0062  0.0565 -0.0559
63148W        W 6164  13.340  21.245   4.641  0.1106 -0.0683  0.4349
63149W        W 6165  19.013  33.429   7.664 -0.2398 -0.0988 -0.0659
63150W        W 6166  27.030  25.871   2.698  0.1250 -0.0929  0.0845
63151W        W 6167   0.979  23.185   4.979  0.1814  0.1032  0.2917
63152W        W 6168  11.583  10.884   6.466  0.2370 -0.2002 -0.0006
63153W        W 6169  29.316  23.704   0.414  0.0284  0.0096  0.0069
63154W        W 6170   0.330  24.693  10.191  0.0079 -0.0012  0.2921
63155W        W 6171  15.708  17.011  25.784  0.0810  0.0887  0.1582
63156W        W 6172  27.845   0.584   6.245  0.2605  0.0851  0.0197
63157W        W 6173  32.141  24.396   6.186 -0.0132 -0.2828 -0.3248
63158W        W 6174  30.933  15.765   7.004 -0.2206  0.0443  0.3595
63159W        W 6175  29.233  30.075   3.746  0.0089 -0.0205  0.1890
63160W        W 6176  28.775  18.999   8.421  0.0171  0.2795  0.2299
63161W        W 6177   4.689  30.033   6.423 -0.2084 -0.1545  0.0477
63162W        W 6178   0.564  28.836   2.035  0.0125 -0.0146  0.1146
63163W        W 6179   3.066  11.525  28.091  0.3287  0.0728 -0.0495
63164W        W 6180  25.269  28.756   8.615  0.0950  0.2750  0.0887
63165W        W 6181   7.111  28.608   1.117  0.1871 -0.2194  0.2238
63166W        W 6182  17.342  33.831   7.075 -0.2145  0.1168  0.1134
63167W        W 6183  20.429  24.158   5.622  0.0006  0.0391  0.2451
63168W        W 6184  15.691  23.139  16.656  0.0195 -0.2167 -0.0559
63169W        W 6185   0.192  16.071   4.021  0.1424  0.2324 -0.0775
63170W        W 6186   3.113   5.365   9.403  0.1320  0.3936  0.0552
63171W        W 6187  28.481  16.954   5.630 -0.0712 -0.0219 -0.3724
63172W        W 6188   7.465  27.761  23.165 -0.1081 -0.2593 -0.2123
63173W        W 6189  21.536  10.780  24.394  0.0712  0.0495 -0.0586
63174W        W 6190   2.999  19.845   2.019  0.1994 -0.0543 -0.1555
63175W        W 6191  32.830  24.777   0.828  0.3448  0.0938  0.0413
63176W        W 6192  25.811  17.548   3.573 -0.2243 -0.1427  0.1030
63177W        W 6193   6.427  17.760  28.779  0.0546 -0.2265  0.1667
63178W        W 6194  26.829  11.833   4.162  0.1446  0.1107 -0.0712
63179W        W 6195  30.170  20.305   1.180 -0.0016 -0.2477 -0.1072
63180W        W 6196  12.037  18.691   5.425  0.0522  0.0930 -0.0112
63181W        W 6197   8.137   4.203   8.826  0.2638  0.0270 -0.0545
63182W        W 6198   0.938  27.320   0.132 -0.1354  0.0260  0.2935
63183W        W 6199  10.702   7.493   8.276  0.0817 -0.2240 -0.1717
63184W        W 6200  30.941  16.097   2.920 -0.0450 -0.0026 -0.1276
63185W        W 6201  12.644  15.563   4.117 -0.0459 -0.0007  0.0957
63186W        W 6202   3.133  14.095   4.181  0.0889  0.2758  0.0042
63187W        W 6203  29.788   5.765  24.913  0.1467 -0.3285 -0.2407
63188W        W 6204  29.634  23.266   0.813 -0.0938 -0.2214  0.1074
63189W        W 6205  16.327  20.230  24.695 -0.1143 -0.2664  0.1473
63190W        W 6206  25.418  24.148  10.709 -0.0107 -0.1250  0.1531
63191W        W 6207  34.075  23.225   6.216  0.2566  0.0229 -0.1012
63192W        W 6208   7.559  29.778  10.276 -0.0142  0.0005  0.1674
63193W        W 6209   0.310  25.769   3.468  0.3366  0.0066  0.0397
63194W        W 6210  33.989  14.418   0.801 -0.1574  0.0400 -0.1061
63195W        W 6211  34.144  34.470   8.880 -0.0657 -0.2312 -0.0165
63196W        W 6212  17.493  31.481   7.737  0.0587 -0.0990  0.0938
63197W        W 6213  34.610  23.770   5.234  0.0090  0.0056 -0.1489
63198W        W 6214  14.805  27.385   6.484 -0.2377 -0.0331  0.0566
63199W        W 6215  21.605  31.084   1.757 -0.0495  0.1796  0.0411
63200W        W 6216  10.480   0.465   9.365  0.0974  0.1036  0.3325
63201W        W 6217   4.762  30.722   7.921  0.0187  0.1114  0.2223
63202W        W 6218  14.640  20.582   0.650 -0.0358 -0.0711 -0.0138
63203W        W 6219  15.983  34.140   7.427 -0.0744  0.0989 -0.0424
63204W        W 6220  19.350  18.195   0.895 -0.2086 -0.0896  0.3224
63205W        W 6221  32.420  18.597   5.019 -0.1547 -0.1135  0.0769
63206W        W 6222   1.199  16.450   9.856 -0.0889 -0.1660 -0.0420
63207W        W 6223   1.601  17.513   9.701  0.0558 -0.1630  0.2999
63208W        W 6224   7.557  21.493  22.507  0.2598  0.0680  0.2208
63209W        W 6225  27.674  20.949   0.402  0.1983  0.1056 -0.1768
63210W        W 6226  25.065  15.515   2.838 -0.1039  0.0428 -0.0729
63211W        W 6227  31.629  33.688   8.884 -0.2242  0.0845 -0.1901
63212W        W 6228  33.838  24.112  10.247  0.2463 -0.1928 -0.0471
63213W        W 6229   6.931  31.209   7.963  0.2066 -0.0718 -0.1991
63214W        W 6230   6.249  32.826  27.165  0.1351 -0.0337 -0.0401
63215W        W 6231   7.762  27.531   7.401  0.1899 -0.3522 -0.0979
63216W        W 6232  22.878  21.120   4.348  0.0374  0.2091  0.2014
63217W        W 6233  30.426   2.816  25.093  0.1445  0.1981  0.1385
63218W        W 6234   6.351   3.238   8.654  0.0495  0.3385 -0.0687
63219W        W 6235  14.285  14.486  21.091  0.0591  0.2469 -0.0536
63220W        W 6236  33.263  20.984   3.609 -0.3313  0.4949  0.2108
63221W        W 6237   4.459  32.904   6.002 -0.3860 -0.0011  0.0591
63222W        W 6238  28.183  23.685   7.904  0.1364 -0.1998 -0.0397
63223W        W 6239   9.154   6.779   6.783  0.3398 -0.0416 -0.0535
63224W        W 6240   6.606   0.116  10.131 -0.3457  0.0871  0.1057
63225W        W 6241  17.662  22.681  14.010  0.1125  0.0835 -0.0006
63226W        W 6242   6.365  26.537  28.332  0.0159 -0.0066 -0.5290
63227W        W 6243  20.238  23.969  27.571 -0.0400  0.3712 -0.0470
63228W        W 6244   7.174  24.964   4.159  0.2166 -0.0767  0.2383
63229W        W 6245   8.805  33.324   3.664 -0.3066 -0.2820 -0.2795
63230W        W 6246  24.428  24.014   3.237  0.1283  0.0925  0.2925
63231W        W 6247  14.225  17.888   0.924 -0.2672 -0.2710  0.2409
63232W        W 6248  19.287  22.184  25.292 -0.0583  0.2612  0.0922
63233W        W 6249   4.155  30.144   3.876 -0.0296 -0.2023 -0.0469
63234W        W 6250  32.178  25.452   3.657 -0.0924 -0.1003  0.0003
63235W        W 6251   1.656  28.798  10.094  0.2049 -0.0022 -0.1143
63236W        W 6252  14.858  25.673   6.325 -0.1508  0.1469 -0.0137
63237W        W 6253   8.156  30.717  24.382 -0.0608 -0.0569 -0.0378
63238W        W 6254   0.334  23.605   8.513 -0.1303  0.2620  0.1022
63239W        W 6255   4.959  32.540   9.498  0.0121 -0.0690  0.0238
63240W        W 6256  27.401  29.386  11.358 -0.1740  0.0833 -0.2278
63241W        W 6257   0.888   9.785  22.854 -0.2182  0.2088  0.1663
63242W        W 6258  15.604  22.072  24.278 -0.0149  0.2432  0.3436
63243W        W 6259   9.458  15.007   2.583  0.2746 -0.3390 -0.1627
63244W        W 6260   8.876  27.902   5.533 -0.2747 -0.1126 -0.0309
63245W        W 6261  18.153  15.291  27.625 -0.0053 -0.0579 -0.1408
63246W        W 6262  23.402  21.720   3.660 -0.0076 -0.2263 -0.0560
63247W        W 6263   6.658  12.967  27.519 -0.1750  0.2219 -0.1225
63248W        W 6264   4.559   4.015   4.925  0.1110 -0.0925  0.0702
63249W        W 6265   1.427  19.824   5.892  0.2433  0.0766  0.4091
63250W        W 6266  25.458  29.515   1.863 -0.1649 -0.1863 -0.0950
63251W        W 6267  15.972  26.931   1.497  0.1052 -0.0835 -0.2044
63252W        W 6268  17.888   2.194   5.264 -0.1441 -0.0986 -0.2279
63253W        W 6269   7.826  22.536  29.126  0.3044  0.3694  0.0845
63254W        W 6270   9.657  28.364   6.142  0.0258 -0.0081 -0.1984
63255W        W 6271  14.710  24.579  20.086  0.1392  0.0364  0.0192
63256W        W 6272   4.845  16.718   6.938  0.0743  0.0946  0.0792
63257W        W 6273   2.499  14.564   9.120  0.0935 -0.2338  0.0225
63258W        W 6274  31.044   3.359   5.148 -0.3020 -0.2746 -0.2891
63259W        W 6275   5.755  17.991  27.353 -0.0645 -0.2480  0.2490
63260W        W 6276  31.914   1.840   4.994  0.0628 -0.2631  0.1279
63261W        W 6277   5.110  22.978  17.234 -0.2507  0.3148  0.1868
63262W        W 6278  23.224  23.792   7.482  0.0333 -0.0097 -0.1492
63263W        W 6279  32.380  12.662  10.589 -0.1108  0.0919 -0.2556
63264W        W 6280  27.486   0.679  27.024  0.0623  0.1437  0.1359
63265W        W 6281   7.674  25.766  18.639  0.1875 -0.0757 -0.1002
63266W        W 6282  14.754  26.437   8.237  0.0246 -0.1676  0.2434
63267W        W 6283  25.403  22.017  16.409  0.1541  0.0938  0.2529
63268W        W 6284   4.173  30.808  24.740  0.2119  0.1805  0.1526
63269W        W 6285   2.687  24.620  25.323 -0.1521  0.0930 -0.1490
63270W        W 6286  34.318  19.146   7.137 -0.0913  0.4955 -0.0939
63271W        W 6287  34.349  14.512   2.686  0.0864 -0.0687 -0.1739
63272W        W 6288   4.673  31.822  10.201  0.0350  0.2528  0.1555
63273W        W 6289  25.482  32.444  25.425  0.0667  0.2203 -0.0902
63274W        W 6290  21.581  24.634   8.654 -0.3285 -0.1807 -0.1650
63275W        W 6291   2.962  33.687   3.948 -0.0370 -0.2330 -0.0786
63276W        W 6292  32.933  24.336  27.322  0.0746  0.1066  0.0428
63277W        W 6293   9.492  23.272   0.441  0.1080  0.1749  0.1313
63278W        W 6294   8.471  15.274  26.166  0.0185  0.0016  0.1695
63279W        W 6295   3.690  26.777   6.801  0.4339 -0.1615 -0.0314
63280W        W 6296   7.112  17.241   4.615 -0.0964  0.3139  0.2668
63281W        W 6297  18.963  15.940  27.140  0.0658 -0.1908 -0.0722
63282W        W 6298  25.683  24.084  25.920  0.3136  0.1322 -0.0966
63283W        W 6299  15.564   6.685   5.742 -0.0828 -0.2682  0.0422
63284W        W 6300  22.902  22.951   1.629 -0.1075  0.0020  0.3283
63285W        W 6301   2.971  31.661  14.190 -0.1755  0.1503  0.0700
63286W        W 6302  29.077  28.895   4.207  0.2292 -0.2545 -0.0475
63287W        W 6303  32.791  31.776   5.237 -0.2146 -0.3413 -0.1089
63288W        W 6304   7.720   2.226   7.044  0.0711  0.0261 -0.0083
63289W        W 6305   1.435   1.274   4.413 -0.1090  0.3126  0.3594
63290W        W 6306  32.998  24.895  29.085 -0.1765  0.1337 -0.2968
63291W        W 6307   4.125   2.166   1.127 -0.0942  0.0363  0.0250
63292W        W 6308  21.025  19.055  21.718 -0.1151 -0.1835 -0.4511
63293W        W 6309  32.453  29.649  11.000  0.2600 -0.3310 -0.3223
63294W        W 6310  29.456   3.035   6.430  0.1575 -0.0658 -0.1381
63295W        W 6311   1.075  20.590   3.791 -0.3336 -0.0781  0.1898
63296W        W 6312  34.674  16.051   0.227  0.0081 -0.0268  0.0667
63297W        W 6313  23.106  21.348  28.703 -0.0058 -0.1959  0.1669
63298W        W 6314  34.569  23.994  28.831  0.3161  0.0872  0.1058
63299W        W 6315  33.871   3.302   7.600  0.0811  0.3460  0.2090
63300W        W 6316  14.501  26.854  27.327 -0.4046  0.1077 -0.0617
63301W        W 6317   2.839  33.567   3.479  0.1137  0.1167 -0.1690
63302W        W 6318  29.808   5.114   7.031  0.1087 -0.1273 -0.0287
63303W        W 6319  30.877   0.921   0.989  0.1960 -0.1558 -0.2336
63304W        W 6320   4.749  32.634  26.110  0.1717  0.2577 -0.0970
63305W        W 6321  16.274  29.888  25.631 -0.0709 -0.1587  0.1289
63306W        W 6322   2.773  33.210  19.011 -0.0382  0.1432 -0.2361
63307W        W 6323  16.365  31.561  22.764 -0.0690  0.0859  0.2526
63308W        W 6324  19.605  23.364  27.251  0.1210  0.0022 -0.3278
63309W        W 6325  26.019   2.087  29.140 -0.1076 -0.1854 -0.1841
63310W        W 6326   2.249  12.218   8.666 -0.0374 -0.1678 -0.1488
63311W        W 6327  29.455   9.054   6.724 -0.0774 -0.0649 -0.1875
63312W        W 6328  29.613  17.733   5.448 -0.0968  0.2189  0.0856
63313W        W 6329  24.384   6.778  20.521  0.2587  0.1922 -0.0583
63314W        W 6330  24.807  27.697  29.216  0.0582 -0.0356  0.0040
63315W        W 6331  16.645  17.426   3.717  0.0734  0.1689 -0.3556
63316W        W 6332  23.220   6.716   7.185 -0.0921  0.1820  0.0996
63317W        W 6333  34.759   1.784   1.515  0.0010 -0.0054 -0.2182
63318W        W 6334  28.107  18.781  18.601  0.0655  0.0628  0.1521
63319W        W 6335   3.815  20.461   1.886  0.5144  0.2936 -0.1317
63320W        W 6336   1.352  26.059  24.098  0.1034  0.2301 -0.0939
63321W        W 6337  31.016  26.074  15.434  0.3739  0.1689 -0.1577
63322W        W 6338  34.423  27.335   7.795 -0.3182 -0.0177  0.0406
63323W        W 6339  17.245  17.308  26.391  0.0231  0.3710  0.0018
63324W        W 6340  16.198  30.423   7.379 -0.0629 -0.0603  0.3062
63325W        W 6341  27.613  14.916   3.518 -0.2003  0.0236 -0.0961
63326W        W 6342   1.479  26.207   6.110 -0.1815 -0.0799  0.0757
63327W        W 6343  18.008  26.611  16.564 -0.2108 -0.0361 -0.0940
63328W        W 6344  12.638  15.437  23.433  0.0318  0.0428 -0.2378
63329W        W 6345   3.064  24.533   6.468  0.1361 -0.0890  0.2348
63330W        W 6346   1.216  23.913  25.123  0.1623  0.0264 -0.3612
63331W        W 6347   4.480  27.815   4.057 -0.4345 -0.1045 -0.1209
63332W        W 6348  15.478   1.302   3.646 -0.0676 -0.1433  0.1448
63333W        W 6349   5.543  34.721   5.957 -0.0969  0.0004  0.0547
63334W        W 6350   6.074   2.285  10.199 -0.0649  0.2401 -0.0128
63335W        W 6351  34.673  27.980  21.033 -0.1163  0.0843  0.2280
63336W        W 6352  34.070  30.513  23.300  0.0605  0.4246 -0.0890
63337W        W 6353  31.884  10.705  20.235 -0.0851 -0.1014  0.3583
63338W        W 6354  32.789  29.810   9.558 -0.0098 -0.1285 -0.0435
63339W        W 6355   1.250   0.675   9.704 -0.1046 -0.2045  0.0751
63340W        W 6356   9.662   7.714  26.864  0.1804  0.1146  0.0186
63341W        W 6357   3.092  27.134   8.244 -0.0958 -0.0112  0.2155
63342W        W 6358   2.678  23.566   8.110 -0.2804 -0.1049  0.2665
63343W        W 6359   5.375  29.114  18.853 -0.0180 -0.0350 -0.2075
63344W        W 6360   2.575  17.578  28.075  0.0204 -0.3552  0.0939
63345W        W 6361   2.366  24.593   9.551 -0.1338 -0.0480  0.5890
63346W        W 6362   1.713  16.472   4.553 -0.0223  0.2967  0.0368
63347W        W 6363   0.914   0.230  26.447 -0.1313  0.1687 -0.0736
63348W        W 6364  29.992  21.932   3.906  0.1981  0.0320 -0.1730
63349W        W 6365  31.842  19.035  25.372 -0.1682 -0.1839 -0.0183
63350W        W 6366  19.101  31.183  27.324 -0.1686  0.0761 -0.1594
63351W        W 6367   7.287   4.267   8.533 -0.3035 -0.3550 -0.0281
63352W        W 6368  31.204  26.619   7.686 -0.1736 -0.3763  0.0076
63353W        W 6369  12.744  30.652   6.109 -0.1624  0.0922  0.4049
63354W        W 6370  27.847  21.708  29.116  0.0323 -0.0595  0.0080
63355W        W 6371  31.141  26.473  10.225 -0.1026 -0.1902 -0.0114
63356W        W 6372  34.715  28.918  24.375 -0.1957  0.1809 -0.0803
63357W        W 6373  20.322  18.063   6.533  0.0117  0.1661  0.0797
63358W        W 6374   1.769  27.670  19.150  0.0406  0.1562 -0.1284
63359W        W 6375   0.384  18.886  21.200 -0.1717 -0.0695  0.1726
63360W        W 6376  29.071  20.793  10.301 -0.2092 -0.1974  0.0721
63361W        W 6377  10.183  31.901   6.368 -0.1758  0.2033 -0.4395
63362W        W 6378   7.243  17.356  26.607  0.1166 -0.0286 -0.2307
63363W        W 6379  26.924  25.096  10.065 -0.0372 -0.0884 -0.0149
63364W        W 6380   1.251  14.078   7.484  0.0841 -0.0881  0.2326
63365W        W 6381   0.288  20.020  22.361  0.1919  0.0712 -0.1902
63366W        W 6382  23.922   3.285   5.911  0.0366 -0.1964 -0.0987
63367W        W 6383  19.339   5.772  22.943 -0.0483 -0.4299  0.3380
63368W        W 6384   9.692   0.957   2.646 -0.2385 -0.3089 -0.1414
63369W        W 6385  26.344  22.619   9.139  0.1058 -0.0143  0.1785
63370W        W 6386   1.236  10.277   9.679  0.1697 -0.4662 -0.0774
63371W        W 6387  23.880  15.733  28.055  0.2717 -0.0219  0.0460
63372W        W 6388   5.174  14.903   4.468 -0.2597  0.2328 -0.3613
63373W        W 6389  18.232   3.165   2.102 -0.0027 -0.0820  0.0746
63374W        W 6390  17.020  26.325  23.004 -0.2583 -0.3749 -0.0372
63375W        W 6391  28.619  10.929   9.904 -0.0876 -0.2522 -0.1219
63376W        W 6392  14.441  22.422   3.985 -0.0683 -0.1436 -0.0230
63377W        W 6393   5.529  23.726  17.654 -0.2463  0.1150 -0.0334
63378W        W 6394  10.278  18.118   2.445  0.0215  0.0610 -0.1896
63379W        W 6395   0.365  20.875   7.127 -0.2003  0.2734 -0.4873
63380W        W 6396  29.414  15.806  22.685 -0.2130 -0.1394  0.0445
63381W        W 6397  31.591  12.841  24.854 -0.2127  0.3022 -0.3700
63382W        W 6398   3.260  30.577   5.268  0.1443  0.1649 -0.1851
63383W        W 6399   8.115  12.046  22.260 -0.0019  0.0901 -0.0320
63384W        W 6400   7.082  24.049   5.942  0.3519 -0.0454 -0.1508
63385W        W 6401  15.806   4.276  26.047  0.0659 -0.0003 -0.0440
63386W        W 6402  28.685  29.668  24.947 -0.0339  0.0524  0.0210
63387W        W 6403  11.792   5.494  26.425  0.0698  0.0597  0.0527
63388W        W 6404   0.616  14.564   8.689  0.1132  0.3108  0.0136
63389W        W 6405  10.302  10.857   9.814 -0.2471  0.2262  0.0184
63390W        W 6406  34.500  16.877   2.863 -0.0076  0.1321  0.0479
63391W        W 6407  34.263   7.142  19.220  0.0426 -0.0383  0.0815
63392W        W 6408   8.242  20.026   3.671  0.1418 -0.2417  0.3748
63393W        W 6409   0.909  23.510  25.556 -0.0131  0.1810  0.0705
63394W        W 6410  33.847  29.992  26.371 -0.0808  0.3022  0.0500
63395W        W 6411   5.029  29.215   5.427 -0.1303  0.0890  0.1164
63396W        W 6412  27.024  23.815  10.573 -0.3523 -0.0048  0.3435
63397W        W 6413  28.947  27.351   5.252  0.0357 -0.4902  0.1428
63398W        W 6414  17.302  28.671  16.293  0.0089 -0.0470 -0.1498
63399W        W 6415   3.324  27.410  16.958 -0.1554 -0.1217 -0.2431
63400W        W 6416  24.662  15.294   3.162 -0.1536  0.0365 -0.1959
63401W        W 6417  32.043   2.089   7.590  0.2423 -0.0183 -0.1952
63402W        W 6418   0.281  28.480  19.378 -0.1809 -0.0685 -0.1491
63403W        W 6419   2.205  19.778  24.910  0.0236  0.2522 -0.1331
63404W        W 6420  31.062   2.585   7.994  0.1639  0.2091  0.0776
63405W        W 6421   7.135  11.460  18.665 -0.1197  0.2481  0.0321
63406W        W 6422  30.640  23.875   6.024  0.2369 -0.0001 -0.1330
63407W        W 6423  15.276  32.093  20.646 -0.0080 -0.2496 -0.0612
63408W        W 6424   9.815  34.028  10.155 -0.2219 -0.1744  0.1556
63409W        W 6425   8.208  11.358   1.589 -0.1174  0.0602 -0.1327
63410W        W 6426   9.046  28.790  13.668 -0.2207  0.0179  0.1484
63411W        W 6427  27.333  29.311   4.973 -0.2174 -0.1629 -0.1336
63412W        W 6428   5.362   5.866   5.202 -0.1110 -0.3524  0.1218
63413W        W 6429  18.002  13.462  23.573  0.2413  0.0677 -0.1144
63414W        W 6430  21.311  29.600   6.112 -0.0508  0.0160  0.1387
63415W        W 6431  14.637  19.403  15.454 -0.2123  0.0136 -0.1000
63416W        W 6432  25.765  18.374  26.573  0.0659  0.0604 -0.1443
63417W        W 6433   9.154  16.933  27.744  0.2513 -0.4012  0.1434
63418W        W 6434  33.854  16.522   0.106 -0.0980 -0.1497  0.1403
63419W        W 6435  31.413  20.176   5.928  0.1295  0.1668 -0.2295
63420W        W 6436  27.189  30.471  27.233  0.0535  0.1867 -0.0427
63421W        W 6437  24.186  27.427  10.623  0.0627  0.2121 -0.4814
63422W        W 6438  31.493  14.038   1.290  0.2102 -0.0807 -0.0976
63423W        W 6439   1.740  32.788  15.228 -0.0900 -0.0177  0.2560
63424W        W 6440  27.822  33.390   8.319  0.1428  0.0571  0.1205
63425W        W 6441  22.732   1.889  17.547  0.1253 -0.0320 -0.2522
63426W        W 6442  32.411  18.908  23.358  0.0269 -0.2786 -0.0497
63427W        W 6443   7.232   4.191  17.354 -0.4369 -0.2433 -0.0996
63428W        W 6444   8.186  30.982  10.332  0.0831  0.3173 -0.5289
63429W        W 6445  15.444   8.604  12.814 -0.0096 -0.0731  0.0429
63430W        W 6446   5.886  31.104   6.345 -0.1315 -0.0505  0.0480
63431W        W 6447  28.630  34.390  11.940  0.1647  0.1109 -0.1237
63432W        W 6448  23.422  29.066  20.338 -0.1826  0.1337 -0.1488
63433W        W 6449   1.793  14.651   5.665 -0.1135  0.2309  0.3386
63434W        W 6450  24.048  23.261  23.330  0.0074  0.1527 -0.0995
63435W        W 6451   6.897  23.476   6.209  0.0831 -0.3127 -0.0217
63436W        W 6452  17.168   6.995   2.830  0.0098 -0.1069 -0.1365
63437W        W 6453   8.617   0.059   5.002 -0.0803  0.1167 -0.0687
63438W        W 6454  27.051  12.205  29.213 -0.0167 -0.0873 -0.2048
63439W        W 6455   1.944  14.498  29.219 -0.0516  0.0416 -0.1251
63440W        W 6456   5.382  29.496  23.859 -0.0514 -0.4292 -0.0042
63441W        W 6457  28.413   3.118   2.855  0.0816 -0.2775  0.2225
63442W        W 6458  26.506  20.219   3.547 -0.0564  0.3822 -0.3857
63443W        W 6459  31.076  18.324  22.882 -0.0219  0.0817 -0.2569
63444W        W 6460  24.991  15.218   7.986 -0.2270 -0.1359 -0.0893
63445W        W 6461  34.479  32.438   3.099  0.1048 -0.0960  0.2768
63446W        W 6462   0.081  16.642  28.788 -0.4308  0.0185  0.1268
63447W        W 6463   6.793  17.407   3.216 -0.4648  0.2277 -0.0972
63448W        W 6464  23.044  11.794  28.735  0.3092  0.2771  0.1359
63449W        W 6465   9.494  28.083  21.899  0.0495 -0.0493 -0.0135
63450W        W 6466  32.470  21.848  26.845  0.0053 -0.1968  0.0124
63451W        W 6467  30.596   8.057   6.371 -0.1732  0.0633  0.0620
63452W        W 6468  32.388  31.118   2.458  0.3625  0.4138 -0.1711
63453W        W 6469  30.422  17.007   1.299  0.0127  0.2456  0.1164
63454W        W 6470  34.179   3.797   7.495  0.2728  0.1965  0.3922
63455W        W 6471  33.855  27.608   4.169 -0.2048  0.4961  0.1838
63456W        W 6472  31.053  29.935   4.080  0.1150 -0.0197  0.1000
63457W        W 6473  11.184  19.590   8.461 -0.1319  0.2041  0.3350
63458W        W 6474  24.451  23.384   7.569 -0.0770  0.1839 -0.0230
63459W        W 6475  18.971  19.490   5.326  0.0194  0.1395 -0.1691
63460W        W 6476  13.839  33.666  23.773 -0.0924 -0.0680 -0.1552
63461W        W 6477   7.552  28.035   2.780 -0.0519  0.0009  0.0289
63462W        W 6478  18.258  32.505   4.972  0.2890 -0.3083 -0.1998
63463W        W 6479  28.750   3.371   3.352 -0.1855 -0.3524  0.0787
63464W        W 6480   9.778  28.163   4.405 -0.1092  0.1037 -0.1088
63465W        W 6481  22.701  32.066  10.344 -0.1322 -0.2961  0.2451
63466W        W 6482  20.353  32.246  15.631  0.1364  0.2002  0.2901
63467W        W 6483   3.585   2.256   4.717  0.2131 -0.0907  0.3196
63468W        W 6484   2.885  21.998   0.675 -0.4033 -0.0348 -0.0560
63469W        W 6485  19.768  27.706   4.306  0.2439  0.1405  0.2114
63470W        W 6486   2.313  13.334  28.634 -0.1203 -0.2597  0.0847
63471W        W 6487   5.695  18.494   4.203  0.2081  0.1130 -0.1218
63472W        W 6488   0.575  10.091   3.543 -0.1840 -0.0851 -0.0478
63473W        W 6489  17.334   8.682  26.038 -0.0691 -0.1604 -0.1650
63474W        W 6490   1.537  34.263   4.285 -0.0677 -0.2265  0.3488
63475W        W 6491  19.939  27.774  26.913  0.2695  0.0722  0.0553
63476W        W 6492  31.854  23.140   1.842 -0.3757 -0.1887 -0.0491
63477W        W 6493  32.299  18.096  27.608 -0.1568 -0.0139  0.0409
63478W        W 6494   6.711  33.351   0.212 -0.0663 -0.1969  0.4427
63479W        W 6495   9.275  26.697   8.873  0.0160  0.0954 -0.0698
63480W        W 6496  21.328  21.281  20.257 -0.0453  0.1645 -0.2269
63481W        W 6497   8.594  23.634  18.323  0.0933  0.3117  0.0131
63482W        W 6498   1.464  19.353  18.248 -0.0137  0.0672 -0.0978
63483W        W 6499   3.495  20.060  19.590  0.1188 -0.2572 -0.2552
63484W        W 6500  11.673  30.353  17.245 -0.0536  0.5505 -0.2165
63485W        W 6501   3.378  31.036   3.490  0.1324  0.1633 -0.0304
63486W        W 6502  18.229  27.169   2.751  0.1471  0.2224 -0.1220
63487W        W 6503   1.290  25.800   4.983 -0.1362  0.1302  0.0917
63488W        W 6504  17.445  14.572  12.132  0.1487 -0.1560  0.2892
63489W        W 6505   7.618  11.847  27.065  0.2064  0.0314 -0.0985
63490W        W 6506   0.796  18.913  14.137  0.1921  0.2772 -0.4149
63491W        W 6507   7.989  20.501   3.455  0.3888 -0.0592  0.2534
63492W        W 6508  17.193   9.989  20.070 -0.0854  0.3333  0.3667
63493W        W 6509  14.621  23.573   1.508  0.1914 -0.1135  0.0069
63494W        W 6510  11.520  12.125  24.345  0.0773  0.0171 -0.3391
63495W        W 6511   5.560  23.223   3.413  0.3994  0.1409 -0.2150
63496W        W 6512  33.041  29.236  28.166  0.0167 -0.0824  0.0810
63497W        W 6513   3.953   6.092  17.763  0.4832 -0.2051 -0.0282
63498W        W 6514  17.102  17.659   3.672  0.2143  0.0611  0.2914
63499W        W 6515   2.217  32.585  27.242  0.0944  0.1724  0.0168
63500W        W 6516  16.032   4.708  15.150  0.1099  0.0059 -0.0527
63501W        W 6517   9.224  33.373   3.943 -0.1709 -0.0792  0.1714
63502W        W 6518  10.840  17.585  15.355 -0.0157  0.0182 -0.2362
63503W        W 6519   1.594  11.920   1.898 -0.0531 -0.0361  0.2067
63504W        W 6520   9.038  13.778  25.868  0.1988 -0.0251  0.3044
63505W        W 6521  27.529  20.700   6.983 -0.0542  0.1219 -0.1620
63506W        W 6522   8.811   0.936   4.893  0.0696 -0.1187  0.0883
63507W        W 6523  30.313  26.163   6.962  0.1813 -0.0559 -0.0882
63508W        W 6524  15.854  18.218   3.870 -0.0546  0.1016  0.0076
63509W        W 6525   6.032  21.832   1.507 -0.0292  0.0778 -0.0441
63510W        W 6526   1.094  25.124  22.895 -0.0354  0.4042 -0.0457
63511W        W 6527  29.560  23.551   9.240  0.2493 -0.2195  0.3104
63512W        W 6528  11.016  16.887  18.061 -0.1930 -0.1771  0.2288
63513W        W 6529  30.961  13.196   7.015  0.2230  0.0688 -0.0830
63514W        W 6530  28.812   9.656  18.421 -0.2022  0.2402 -0.1057
63515W        W 6531  13.993  19.487  21.397 -0.0544 -0.0922 -0.1424
63516W        W 6532  11.699  31.077   7.618  0.4058 -0.0019  0.0521
63517W        W 6533  26.617   0.968   1.378 -0.1925 -0.2202  0.0468
63518W        W 6534  25.057  29.789  10.389 -0.1046 -0.4125 -0.0083
63519W        W 6535  30.265  14.403  23.189 -0.1885 -0.1027 -0.0449
63520W        W 6536   0.396  32.717  26.341  0.1399  0.2279 -0.3645
63521W        W 6537  25.192   5.382   1.707 -0.0382 -0.1063  0.1262
63522W        W 6538   5.770  11.570  23.348 -0.1738  0.0337 -0.0445
63523W        W 6539  29.190   9.151  20.421 -0.1471  0.0373 -0.1292
63524W        W 6540   8.357  26.923   9.321  0.0653 -0.3958  0.0960
63525W        W 6541   8.500  19.815  22.104  0.2224 -0.0714  0.2728
63526W        W 6542   2.774  34.422   5.768  0.0005 -0.3956 -0.1290
63527W        W 6543  24.824  17.964   2.411  0.0868  0.2376 -0.2294
63528W        W 6544   2.302  27.107  10.312  0.2256  0.0483  0.0185
63529W        W 6545   0.342  33.110  17.271 -0.1767 -0.1590 -0.0371
63530W        W 6546   3.093   0.045   4.080  0.4861 -0.5489  0.0123
63531W        W 6547   2.900  10.665   5.887 -0.1236  0.0139  0.0021
63532W        W 6548   7.370  34.496   1.933 -0.2681  0.2351 -0.2582
63533W        W 6549  15.271  21.796  24.930 -0.1721  0.1423  0.1279
63534W        W 6550  30.014  22.312   2.415 -0.0960 -0.0798  0.1000
63535W        W 6551  29.249  16.517   1.173  0.0489 -0.0398 -0.1764
63536W        W 6552  24.821   0.559   8.184  0.1614  0.2577 -0.1341
63537W        W 6553  17.175  24.771   9.077 -0.0026  0.1397  0.3408
63538W        W 6554  13.897   9.788   0.411  0.0226  0.1239 -0.4007
63539W        W 6555  26.543  33.417   2.550  0.1751 -0.1319  0.2628
63540W        W 6556  28.992   2.245   8.413 -0.0367 -0.0251  0.1564
63541W        W 6557   4.342  32.518   6.627 -0.0613  0.2641  0.0854
63542W        W 6558  29.867  20.172   3.541 -0.1951  0.1308  0.0881
63543W        W 6559   1.346   1.836   3.018 -0.1163 -0.4949 -0.2354
63544W        W 6560  24.534  18.319   6.254  0.1000  0.0449 -0.0846
63545W        W 6561   7.566  20.396  16.645 -0.0013 -0.2925  0.0892
63546W        W 6562  31.331   0.108   0.867  0.2940  0.0275 -0.1933
63547W        W 6563   2.280  22.198   6.751 -0.0545 -0.2180 -0.1278
63548W        W 6564  30.503   5.842   6.775 -0.2051  0.0003  0.0386
63549W        W 6565  22.345   3.212   2.330  0.2541  0.3171 -0.0915
63550W        W 6566  19.778  31.401  21.297 -0.1372 -0.0229  0.0599
63551W        W 6567  27.657  19.539  14.848 -0.0444  0.0505 -0.0746
63552W        W 6568  23.456  26.292  24.870 -0.0687  0.3229  0.2386
63553W        W 6569   8.140  18.370   3.092  0.1712  0.0908  0.1877
63554W        W 6570  10.174  28.223  16.159  0.0510 -0.0825  0.1241
63555W        W 6571  15.440   2.693   1.816 -0.0528  0.0917  0.5630
63556W        W 6572   5.465  15.036  25.850  0.1434 -0.2657  0.0984
63557W        W 6573  27.517  21.824  11.109  0.3330  0.1110 -0.0577
63558W        W 6574  11.631  30.118   4.554  0.2358  0.1939 -0.1936
63559W        W 6575   9.929  26.577   7.007 -0.1014  0.2557 -0.1640
63560W        W 6576  21.555   8.363  17.475  0.0556  0.1252  0.1601
63561W        W 6577  25.656  23.215   1.482  0.2168  0.1781 -0.0036
63562W        W 6578   0.103  29.595   0.495 -0.1522 -0.1733 -0.1835
63563W        W 6579  15.433  31.777   3.838 -0.0373 -0.2020 -0.1112
63564W        W 6580  26.697  10.016  20.108 -0.0798  0.0510 -0.1504
63565W        W 6581  28.920  16.356  15.352  0.3787  0.0849 -0.3736
63566W        W 6582   6.517   8.159  27.300  0.1979 -0.0300 -0.0220
63567W        W 6583   4.163  29.220  23.157  0.1513  0.0508  0.3320
63568W        W 6584   2.720  15.287   0.102  0.0809  0.1465 -0.2129
63569W        W 6585  29.452  23.211  20.890  0.0599 -0.0846  0.0360
63570W        W 6586  22.386   6.195  26.301  0.1724 -0.0589  0.2231
63571W        W 6587  31.148  24.224  11.079 -0.0378  0.1498  0.0190
63572W        W 6588   1.442   1.545   4.828 -0.0550 -0.0185  0.2323
63573W        W 6589  20.554   5.063  14.808 -0.0237  0.3378 -0.1226
63574W        W 6590  15.143   1.765   8.128 -0.1919  0.0586 -0.1712
63575W        W 6591  10.088   0.177   5.174  0.0522 -0.3158  0.1371
63576W        W 6592  18.862  27.812  23.949 -0.2641 -0.4373  0.1808
63577W        W 6593  14.357   5.906   0.506  0.1054 -0.1375  0.2430
63578W        W 6594  29.337  20.624   4.518  0.1555  0.1446 -0.2410
63579W        W 6595  31.466   6.814  21.653 -0.1076 -0.0078  0.2282
63580W        W 6596  21.281  11.252  25.196  0.0388 -0.0090  0.1940
63581W        W 6597  32.101  24.344   7.670  0.2534  0.1235 -0.1949
63582W        W 6598  14.042  18.344  27.745 -0.2220 -0.0421  0.3128
63583W        W 6599   8.328  34.000  20.288 -0.1762 -0.1805  0.0052
63584W        W 6600  28.347  15.852   1.963 -0.1153 -0.0194 -0.4921
63585W        W 6601  15.530  27.470   6.764 -0.0960 -0.3088 -0.2832
63586W        W 6602  27.670  14.263   0.076  0.3080 -0.2375  0.1111
63587W        W 6603  33.434   4.857   3.498 -0.0383  0.0875  0.3682
63588W        W 6604   8.158  34.631  24.014 -0.1802  0.0214  0.0700
63589W        W 6605   9.804  16.283  27.901 -0.0685 -0.0523  0.0869
63590W        W 6606   3.372  13.884  25.214  0.1931 -0.2063  0.0047
63591W        W 6607   8.978   2.155   9.029  0.4014 -0.2271 -0.1766
63592W        W 6608   7.434  31.677  18.638  0.0544 -0.0274 -0.2628
63593W        W 6609   1.798   0.145   9.908 -0.3562 -0.0061  0.0700
63594W        W 6610   4.016  21.989   9.433  0.2995 -0.1070  0.0514
63595W        W 6611   5.503  14.275  27.279 -0.2371 -0.0126  0.0674
63596W        W 6612  26.195   6.975  27.719  0.3131  0.2637  0.0921
63597W        W 6613   1.490  27.693  14.867  0.2956  0.0419  0.1586
63598W        W 6614  21.973  23.541   6.996 -0.4264  0.0494  0.0151
63599W        W 6615   1.695  26.434   6.984  0.3861 -0.0892  0.2990
63600W        W 6616   3.395  16.274  23.659  0.2184 -0.0876 -0.0909
63601W        W 6617  25.490  28.406  27.204 -0.2994  0.4247  0.1198
63602W        W 6618  21.267  17.620   4.571 -0.5567 -0.0325 -0.3027
63603W        W 6619  17.988  20.055  26.993  0.0408 -0.2100 -0.2977
63604W        W 6620   1.042  24.963   1.908 -0.0621 -0.0747 -0.0316
63605W        W 6621  21.088  24.417  24.315 -0.2353  0.1111  0.1388
63606W        W 6622   7.060  22.267  23.631  0.2707  0.2736 -0.0971
63607W        W 6623  34.270  11.589  28.438 -0.0002 -0.0226 -0.2804
63608W        W 6624   1.770  14.385   3.892  0.0593 -0.0583 -0.0804
63609W        W 6625   6.847   5.637   7.009 -0.0829  0.0772 -0.1869
63610W        W 6626  30.142  24.153  10.397  0.0455 -0.1527 -0.0392
63611W        W 6627   8.228  28.012  28.734 -0.1476  0.1555 -0.0349
63612W        W 6628  19.565   0.815   8.454 -0.2542  0.1570 -0.0500
63613W        W 6629  11.602  19.780  19.658  0.2318 -0.0192 -0.2655
63614W        W 6630  20.653   0.674   6.770  0.2642  0.0439  0.0482
63615W        W 6631   1.657   5.908   8.268 -0.0499 -0.3618  0.0494
63616W        W 6632   6.311  23.935  25.244 -0.1490  0.0934  0.1486
63617W        W 6633   3.711  32.199  19.482  0.0768  0.1180  0.0124
63618W        W 6634   5.295  15.840  18.000  0.0142 -0.2451  0.1545
63619W        W 6635   3.959  12.014  26.639 -0.4299 -0.0905 -0.0212
63620W        W 6636  28.563  11.759  21.027 -0.1021 -0.1402 -0.0793
63621W        W 6637  15.187   1.439   8.574 -0.2406  0.3651  0.2118
63622W        W 6638   0.443   4.253   8.954  0.0353  0.0242  0.0542
63623W        W 6639   4.129  26.064  13.780  0.0353  0.1181  0.2863
63624W        W 6640   2.481  12.119   6.511 -0.1706  0.0228 -0.2284
63625W        W 6641  34.023   7.705  27.189 -0.1195  0.2480 -0.1040
63626W        W 6642  29.794  23.218  22.299 -0.0057 -0.1125 -0.0122
63627W        W 6643  24.102  33.872   4.979 -0.2793 -0.1520 -0.1266
63628W        W 6644  34.025  33.110   1.163 -0.2157 -0.0359  0.4653
63629W        W 6645  27.645  14.081   4.954  0.0038  0.0524 -0.2311
63630W        W 6646  21.736  34.767   7.145  0.0893 -0.0326 -0.4438
63631W        W 6647  27.705  27.599   1.815 -0.1111  0.0544 -0.0070
63632W        W 6648  29.780  26.744  21.618  0.2206  0.4546  0.1034
63633W        W 6649  19.556  32.870  27.476 -0.1552  0.1641 -0.2503
63634W        W 6650  13.842  22.156  18.251 -0.1666 -0.2699 -0.0707
63635W        W 6651  16.588   9.300  18.442 -0.1398  0.1963 -0.0089
63636W        W 6652   2.370  34.751   4.782  0.2645  0.2651 -0.0715
63637W        W 6653   4.561  16.394  15.017 -0.1854 -0.2242  0.5809
63638W        W 6654   4.621  13.899   9.318  0.1744 -0.1422 -0.0004
63639W        W 6655  33.524   0.806   4.286 -0.1521 -0.1160 -0.2525
63640W        W 6656  28.579   3.723  17.576 -0.1383  0.0935  0.0693
63641W        W 6657   6.568   3.519  18.801  0.3096  0.2172 -0.0278
63642W        W 6658  25.880   1.808  19.471 -0.1969  0.2921 -0.0094
63643W        W 6659  32.854  15.996   4.882  0.0132 -0.0496 -0.0016
63644W        W 6660  17.099  23.777   2.097 -0.1658  0.0695 -0.0980
63645W        W 6661  31.539  10.374  25.975  0.0068  0.2875 -0.2965
63646W        W 6662  12.772   0.033  24.442  0.0858  0.3817 -0.0170
63647W        W 6663   9.955  28.200   8.389 -0.1078 -0.3748 -0.1238
63648W        W 6664  14.704  30.057   7.353  0.0868 -0.3803  0.4824
63649W        W 6665  17.799  31.028  28.400 -0.1104 -0.2195 -0.0215
63650W        W 6666  25.556  33.590   3.661 -0.0000 -0.0680 -0.1576
63651W        W 6667  34.604  24.022  22.234  0.1198 -0.1469  0.0474
63652W        W 6668   7.232   3.985  27.236  0.1162 -0.3388  0.0830
63653W        W 6669  25.015  30.291   6.429 -0.0567  0.1998  0.3327
63654W        W 6670  27.967  19.886  22.962  0.1740  0.2156 -0.1470
63655W        W 6671  12.805  16.763   6.838 -0.0648 -0.0683  0.2952
63656W        W 6672  10.119  11.796   0.781 -0.0346 -0.3800  0.0022
63657W        W 6673   9.147  22.109   7.962 -0.0146  0.1072  0.0473
63658W        W 6674  12.300  18.400   5.727 -0.2029 -0.0275  0.3382
63659W        W 6675  28.990  30.256  21.082  0.1838  0.2143 -0.6366
63660W        W 6676  27.670  31.228   4.900 -0.0583  0.1122  0.1576
63661W        W 6677  34.001  22.860  28.532  0.0705 -0.1419 -0.0302
63662W        W 6678   8.524   0.515   2.911 -0.3019  0.3805  0.1400
63663W        W 6679   3.088  22.245  27.651 -0.0366 -0.2245  0.1970
63664W        W 6680  31.669   9.816   0.481  0.1032 -0.2501 -0.0790
63665W        W 6681   2.470  30.846   5.406  0.0003  0.0227  0.1468
63666W        W 6682  28.993   9.314   9.682  0.1368  0.0871  0.1958
63667W        W 6683   4.019  19.692   5.107  0.1444  0.0794  0.0812
63668W        W 6684   9.343  33.914   0.445  0.1131  0.0557 -0.2707
63669W        W 6685  13.300  25.920   0.310 -0.0652 -0.0850 -0.1854
63670W        W 6686  29.139   5.180  10.893  0.0953 -0.0309  0.1970
63671W        W 6687  12.544  24.025  17.923  0.2213 -0.1404 -0.1985
63672W        W 6688   9.418  17.306  25.555  0.4443  0.1230  0.0757
63673W        W 6689   7.525  21.102   4.775  0.1113  0.2259 -0.1960
63674W        W 6690   0.401  22.696   7.381  0.3063  0.7077  0.1907
63675W        W 6691  22.742  33.385  10.814  0.2076  0.2497  0.1134
63676W        W 6692  24.711  19.695  27.271 -0.0341 -0.2042  0.5552
63677W        W 6693   0.467  13.522   0.404  0.0598  0.0282  0.2578
63678W        W 6694   6.364   2.531  17.125  0.3704 -0.0146 -0.4469
63679W        W 6695   3.190   9.957   5.266 -0.4620 -0.2610 -0.1271
63680W        W 6696  16.720  21.430  23.350 -0.1853  0.0074 -0.2184
63681W        W 6697  29.901  27.331  26.924 -0.1473  0.3853 -0.1528
63682W        W 6698  21.581  15.869  24.471  0.0234  0.0357  0.1646
63683W        W 6699   3.326  17.481   7.635  0.0629  0.1354 -0.0183
63684W        W 6700  21.265  20.484   6.787 -0.0055  0.0016  0.2672
63685W        W 6701  10.119  18.560   1.007  0.1314  0.2155  0.2625
63686W        W 6702  27.198  23.156  11.240  0.0755 -0.1773  0.1395
63687W        W 6703  32.601  28.848   7.933 -0.1382  0.1062 -0.0878
63688W        W 6704  24.535  26.040  25.888  0.0996  0.2308 -0.0487
63689W        W 6705   0.041  17.332  27.142  0.1996  0.0784  0.0848
63690W        W 6706   3.368  12.302   4.373  0.2132 -0.1547  0.1427
63691W        W 6707   4.367  27.195   2.535  0.1347 -0.0940 -0.3194
63692W        W 6708   8.607  15.283   8.792  0.1249  0.0206  0.2564
63693W        W 6709  29.164   8.648   6.980  0.1818 -0.1944  0.0490
63694W        W 6710  25.652  15.872   0.530  0.0165  0.1374  0.1476
63695W        W 6711   2.794  17.996  26.907  0.0334  0.0305  0.0341
63696W        W 6712  22.070  16.336  28.780 -0.2327 -0.2814 -0.0426
63697W        W 6713   2.804  12.685   0.297  0.1576  0.4347  0.1466
63698W        W 6714  23.446  10.031   5.465  0.3309  0.1034 -0.0946
63699W        W 6715  27.742  28.798   4.063 -0.0467  0.1232  0.1395
63700W        W 6716   7.417  25.176  27.239  0.1236 -0.0816 -0.0370
63701W        W 6717   0.191   1.483   3.402 -0.0559 -0.3043 -0.0476
63702W        W 6718   5.769  27.499   2.768  0.1148  0.0883  0.1638
63703W        W 6719   4.672   7.343  27.169 -0.2325  0.2724 -0.1081
63704W        W 6720  29.152  26.330  23.976  0.0384  0.2584 -0.3607
63705W        W 6721   2.336  31.157   1.017 -0.0112 -0.2414 -0.0316
63706W        W 6722  26.488  18.813  29.224  0.1347  0.1999 -0.0977
63707W        W 6723   6.488  22.654   7.688  0.2475 -0.0016 -0.0013
63708W        W 6724  29.783  11.364   1.229 -0.4471 -0.0961  0.2517
63709W        W 6725  31.411  30.651   0.569  0.2271 -0.1044 -0.2046
63710W        W 6726  29.618   2.716  25.902 -0.1317  0.1077  0.1639
63711W        W 6727  22.182  21.719  28.537 -0.0935 -0.0259 -0.1250
63712W        W 6728  28.188  21.616   6.143 -0.0752 -0.0913  0.2175
63713W        W 6729   7.998  34.622   7.458 -0.0247 -0.1292  0.1810
63714W        W 6730  26.099   3.181   8.342 -0.2002 -0.2180  0.0998
63715W        W 6731  27.506  25.937   9.725 -0.1792 -0.1050  0.0248
63716W        W 6732   4.592  29.632   7.165  0.0427 -0.0418 -0.2294
63717W        W 6733  11.980  10.665  26.709 -0.0082  0.2115  0.3172
63718W        W 6734  10.422  27.305   9.198 -0.1864  0.2392 -0.0137
63719W        W 6735  11.889  32.549   6.074 -0.0667  0.3959 -0.0828
63720W        W 6736  27.678  28.732   9.638 -0.0139  0.1842 -0.1902
63721W        W 6737   4.569  32.023  27.566 -0.0998 -0.3617  0.2245
63722W        W 6738   6.459   2.059   6.449  0.0592  0.0547  0.0156
63723W        W 6739  21.932   3.269  29.005 -0.3991  0.3473 -0.2159
63724W        W 6740  17.272  33.823   1.566 -0.2814 -0.3293 -0.1157
63725W        W 6741  26.285  22.857   2.049 -0.0227 -0.2495  0.2347
63726W        W 6742  34.768  31.168   9.278  0.1241  0.0000 -0.0369
63727W        W 6743  32.033  13.216   9.411 -0.0812 -0.0188  0.0185
63728W        W 6744  31.039   4.876  29.257 -0.0546 -0.1927 -0.3632
63729W        W 6745   3.470  26.205   7.403 -0.1797  0.1788  0.1664
63730W        W 6746  33.328  30.274   7.309 -0.2841  0.2102  0.0313
63731W        W 6747  24.751   6.955   3.431 -0.2050  0.0302  0.0790
63732W        W 6748   1.132   0.745   7.738 -0.0323 -0.3206  0.0420
63733W        W 6749  12.383  29.403  26.844  0.1088 -0.1269  0.4481
63734W        W 6750   3.829   8.007   8.400  0.1836 -0.1702  0.0555
63735W        W 6751  10.202   2.822   8.844  0.2652 -0.0248  0.0701
63736W        W 6752  20.877  25.677  24.439  0.0463  0.0435  0.1660
63737W        W 6753  31.549  27.221   9.923  0.1593 -0.0148  0.2501
63738W        W 6754  26.428   0.690   5.600  0.3578  0.1364  0.1180
63739W        W 6755  11.025   1.858   3.411  0.2289  0.2734 -0.0847
63740W        W 6756  33.658   1.541   1.763 -0.2285 -0.0442  0.0825
63741W        W 6757   6.458   7.126   6.555 -0.2385  0.2562 -0.3555
63742W        W 6758   2.804  30.025   3.828 -0.0257  0.0413  0.2901
63743W        W 6759  18.146  33.227   2.751  0.1467 -0.0230  0.0415
63744W        W 6760   9.956  10.728  19.204  0.0966 -0.1558 -0.2255
63745W        W 6761  24.534  14.801  29.000 -0.2242 -0.0304 -0.2384
63746W        W 6762   5.355   9.151  26.950 -0.2725  0.1118 -0.0497
63747W        W 6763  15.457  28.590  28.629  0.3136  0.1828 -0.1774
63748W        W 6764  25.989  15.875  27.919  0.0073  0.0424 -0.1733
63749W        W 6765  25.696  24.965   9.016 -0.1243 -0.1320 -0.4449
63750W        W 6766   5.546  20.128   5.749 -0.1760 -0.0057 -0.1879
63751W        W 6767   1.892  17.580  10.159 -0.0848 -0.3489 -0.1357
63752W        W 6768  15.208  27.283  29.134  0.0729  0.3672 -0.2376
63753W        W 6769  28.686  24.380  10.117 -0.2303 -0.2822  0.2304
63754W        W 6770   2.826  32.105  14.517 -0.1221 -0.1103 -0.1715
63755W        W 6771   4.013  12.682  22.054  0.4676 -0.1571 -0.0274
63756W        W 6772  19.564   7.639   9.072  0.1854  0.0506  0.0503
63757W        W 6773  32.925  32.137   9.268  0.1409  0.0903  0.0506
63758W        W 6774  10.431  20.125   2.888  0.0987  0.0439  0.1241
63759W        W 6775  31.627  23.170  17.845  0.0546 -0.0137 -0.0840
63760W        W 6776  16.971  24.846  23.956 -0.1725  0.1388  0.1051
63761W        W 6777  23.215  20.087  28.081 -0.2449 -0.2031 -0.0829
63762W        W 6778  24.284  25.954  27.884  0.2363 -0.2192 -0.0702
63763W        W 6779  22.387  27.086   8.208  0.2117 -0.0632  0.0725
63764W        W 6780  34.443  15.518  23.136 -0.2644  0.2146  0.0279
63765W        W 6781  31.520   9.078   7.660  0.2311  0.2198 -0.0276
63766W        W 6782  34.308  29.456   7.288 -0.2647  0.3024 -0.1078
63767W        W 6783  26.556   1.484  10.371  0.0901  0.5043 -0.0664
63768W        W 6784  30.405  18.249  27.992  0.1708  0.0491 -0.0306
63769W        W 6785   0.209  31.518   8.742  0.1210 -0.1623  0.3091
63770W        W 6786  32.259  31.824  24.258  0.1610  0.1520  0.0316
63771W        W 6787   3.244  13.341  29.024  0.0245  0.0755  0.1155
63772W        W 6788   3.749   4.372  23.173  0.5287 -0.1218 -0.0924
63773W        W 6789  29.604  26.880   2.083 -0.1750  0.2100 -0.1774
63774W        W 6790   0.702  18.823   7.590  0.3027  0.0953  0.1093
63775W        W 6791   3.697  21.935  18.972 -0.0354 -0.0478 -0.2935
63776W        W 6792  32.864  16.859  27.196 -0.0249  0.0561 -0.1175
63777W        W 6793   2.057   0.569   6.818 -0.3048 -0.1728  0.4114
63778W        W 6794   6.558  23.811   5.886  0.0550  0.1907  0.0731
63779W        W 6795  26.759  27.143  10.243 -0.1333 -0.3140  0.2382
63780W        W 6796  32.578  26.957   3.190 -0.0391 -0.0674 -0.1860
63781W        W 6797   7.267  33.817  11.148  0.1553  0.0091  0.2238
63782W        W 6798  11.303  32.992   9.456 -0.2010  0.2465 -0.4174
63783W        W 6799   8.937  30.130   7.234 -0.1307  0.0372 -0.0233
63784W        W 6800  13.598  26.592   6.859 -0.0976 -0.1134 -0.4503
63785W        W 6801  14.102  24.650   3.653  0.0637 -0.0312 -0.0636
63786W        W 6802  23.543  34.258  21.735 -0.0280 -0.1145 -0.0691
63787W        W 6803  15.571   1.986   6.035  0.0952 -0.0948  0.2281
63788W        W 6804  10.842   8.303   5.405 -0.2238 -0.1629  0.0049
63789W        W 6805  31.960   4.451   3.270  0.2215  0.0139  0.2461
63790W        W 6806  23.757  19.728  24.881  0.0307 -0.2714 -0.0024
63791W        W 6807  31.130  27.115  10.763 -0.2622 -0.1526  0.0204
63792W        W 6808   8.075  10.037  24.079  0.0621  0.1985 -0.2518
63793W        W 6809   5.406  19.743  28.866  0.3694 -0.3450  0.4138
63794W        W 6810   5.443   5.818   6.947 -0.1771 -0.0027  0.0622
63795W        W 6811  11.606  21.716   4.230  0.0459 -0.1949 -0.4008
63796W        W 6812   5.285  27.620   8.930 -0.3049  0.1294  0.1610
63797W        W 6813  31.042  21.569   0.788  0.0359  0.1560 -0.2474
63798W        W 6814  10.658  32.093   3.970  0.0873 -0.1002 -0.2200
63799W        W 6815  33.017  34.231   9.392  0.1903 -0.1835 -0.0869
63800W        W 6816  26.573  23.563  10.085  0.0573  0.3140  0.2530
63801W        W 6817   0.800   7.912   9.754  0.0657  0.3174  0.2782
63802W        W 6818   5.058  16.015   3.367  0.1640  0.0117  0.3023
63803W        W 6819  18.555  12.690  12.995 -0.0256 -0.2885 -0.0391
63804W        W 6820  29.392  23.661  28.794  0.2142  0.1620  0.2646
63805W        W 6821  32.186  13.332   0.997 -0.0978  0.2858  0.1180
63806W        W 6822   6.803  20.053   2.383 -0.1696  0.1657 -0.0631
63807W        W 6823  14.657  10.523   2.110 -0.0298 -0.0463  0.1484
63808W        W 6824  31.498  20.014   2.079 -0.1988 -0.0298 -0.0990
63809W        W 6825  33.923   8.641   7.831  0.1710 -0.0496  0.0685
63810W        W 6826  34.501  22.066  18.429  0.1680 -0.1020 -0.0170
63811W        W 6827  31.385   3.885   1.157  0.0679  0.1018 -0.1583
63812W        W 6828  20.857  21.523   8.754  0.0432 -0.0784  0.3159
63813W        W 6829  19.037  30.756  26.062  0.1001 -0.0364 -0.0589
63814W        W 6830  24.447  19.506   3.977 -0.0981  0.0105 -0.1998
63815W        W 6831  22.306  20.761   3.160  0.4352  0.0751  0.2067
63816W        W 6832   4.632  26.361   2.527 -0.2329 -0.2763  0.0317
63817W        W 6833  29.671  20.958   1.919  0.0185 -0.0108  0.1627
63818W        W 6834  30.150   0.028   2.782  0.1494 -0.2384  0.1103
63819W        W 6835  29.203  21.237  21.471  0.0536 -0.0465 -0.1524
63820W        W 6836   6.293  24.538  14.997 -0.0513  0.1272  0.2128
63821W        W 6837  34.349   2.649  22.008 -0.1701  0.1369 -0.3313
63822W        W 6838   8.939  34.364   7.293 -0.2954 -0.2908  0.0534
63823W        W 6839  27.761  29.506  16.150 -0.2345 -0.0100 -0.1102
63824W        W 6840  28.691  25.393   4.268 -0.1583 -0.1828 -0.1063
63825W        W 6841  26.281  10.258  26.452  0.1758 -0.0823 -0.4050
63826W        W 6842  31.149  23.699  27.344 -0.1191  0.1818 -0.0644
63827W        W 6843  19.176  12.669  18.736 -0.1632 -0.0612  0.1306
63828W        W 6844   5.209  18.008  18.291  0.0787 -0.0331  0.2062
63829W        W 6845  33.195  30.047  11.232  0.0166 -0.1407  0.2251
63830W        W 6846  34.175  32.197  10.146  0.4543  0.3153  0.2237
63831W        W 6847   4.882  23.616   9.253  0.0374  0.0674 -0.1669
63832W        W 6848  13.647   4.011   3.027  0.1119 -0.1296  0.1286
63833W        W 6849  22.152   3.544   6.618 -0.0754 -0.0579 -0.1489
63834W        W 6850  33.397  21.213  10.256  0.1133 -0.0283 -0.0852
63835W        W 6851  25.286  20.785   5.301  0.0393  0.0651  0.1592
63836W        W 6852  11.938  24.992   4.928 -0.1861  0.1953  0.2939
63837W        W 6853   8.014  34.747   5.837  0.4078  0.0629 -0.2921
63838W        W 6854   0.346   8.233  19.484 -0.2682  0.0714  0.0555
63839W        W 6855  28.265  32.368   9.885  0.0401  0.3052  0.0290
63840W        W 6856  12.912  27.515  21.610  0.1470 -0.1175  0.2092
63841W        W 6857  13.582  24.621   9.222 -0.2561 -0.1625  0.0527
63842W        W 6858  26.329  19.320   4.221  0.0635 -0.3745 -0.5588
63843W        W 6859  29.256  32.999   2.408  0.1395 -0.1543 -0.1038
63844W        W 6860   4.564  20.220   8.900  0.1920  0.0676  0.2188
63845W        W 6861  33.330  30.999  18.433  0.0372  0.2283  0.0702
63846W        W 6862  26.645  24.759  19.653  0.0998  0.0017  0.0491
63847W        W 6863  29.379  24.675  11.079 -0.0786  0.4043 -0.0375
63848W        W 6864   5.597  28.245   9.255  0.0247 -0.0322  0.2027
63849W        W 6865  12.864  22.150  22.661  0.2780 -0.0479  0.1045
63850W        W 6866  26.749  24.622   8.384 -0.1770  0.0583 -0.5358
63851W        W 6867   6.087  21.719   8.282  0.0201 -0.2082  0.2006
63852W        W 6868   1.619  21.778   4.317  0.0075  0.2588  0.1528
63853W        W 6869  24.135   2.050   2.284  0.1412  0.2675 -0.2469
63854W        W 6870  15.835  16.174   3.254 -0.0559 -0.0890  0.1106
63855W        W 6871  28.884  25.398  11.825 -0.1472 -0.4154 -0.0309
63856W        W 6872   7.274  23.309  28.766  0.0443  0.2558  0.0058
63857W        W 6873   4.029   6.377  29.259 -0.1467  0.3330 -0.1396
63858W        W 6874  30.820  10.187  27.523  0.3617 -0.0855  0.1419
63859W        W 6875  30.950  30.945   3.857 -0.1263 -0.0838 -0.3630
63860W        W 6876  10.128   1.104   5.546  0.0817 -0.1635 -0.2683
63861W        W 6877  10.819  20.696  22.204 -0.2652 -0.0492  0.3509
63862W        W 6878  34.709  19.432   9.676 -0.3052 -0.2705  0.1718
63863W        W 6879  16.680  34.615   4.876 -0.0763 -0.2437  0.2609
63864W        W 6880  30.235  25.796   0.236  0.0658 -0.1788 -0.0278
63865W        W 6881  28.017   2.033   9.816 -0.0147  0.0567  0.0358
63866W        W 6882  11.962  28.936   5.100 -0.1329 -0.4199  0.0150
63867W        W 6883  34.346  31.142   5.491  0.1158 -0.0756  0.3920
63868W        W 6884   6.462  13.228  13.863 -0.1089  0.1529 -0.1227
63869W        W 6885  25.207  30.130  24.026 -0.0291  0.0933  0.0080
63870W        W 6886  29.892  23.118   9.909  0.2124  0.1513  0.2291
63871W        W 6887  11.316  23.234   1.912 -0.2002 -0.0639  0.4790
63872W        W 6888  12.386  14.778  20.696  0.0810 -0.3771 -0.3708
63873W        W 6889  31.872  30.014   8.666 -0.2981  0.1941 -0.0453
63874W        W 6890  30.552  13.807  21.130 -0.3624 -0.0333  0.1617
63875W        W 6891  32.370  13.820   8.655 -0.1109 -0.2501 -0.0109
63876W        W 6892  34.144  19.132  28.089  0.0989 -0.0306  0.2487
63877W        W 6893   2.654  30.907   8.651 -0.2382 -0.2031 -0.0010
63878W        W 6894  30.633  28.543   3.551  0.0417 -0.2824  0.0642
63879W        W 6895  33.294  19.992   5.429  0.3383  0.0457  0.1207
63880W        W 6896  14.440  22.288  18.398 -0.0896  0.1875  0.2609
63881W        W 6897  33.007  23.687   7.549  0.1636  0.2954  0.2222
63882W        W 6898  10.688  30.878   7.500 -0.0665  0.0994 -0.0377
63883W        W 6899  15.964  18.520  21.929 -0.3617 -0.1713 -0.2731
63884W        W 6900  15.345   1.307  26.257 -0.2570  0.0808  0.0356
63885W        W 6901  19.210  23.566  18.915  0.1937 -0.1555  0.0929
63886W        W 6902  27.291  22.184  27.297  0.0584  0.1831 -0.3342
63887W        W 6903  15.783  30.109   8.802 -0.1610  0.0471  0.0313
63888W        W 6904  13.984  27.871   3.071 -0.0010  0.3702  0.0269
63889W        W 6905  33.687  24.979   9.226  0.0988 -0.0045 -0.0447
63890W        W 6906   4.912  22.161  27.616  0.1658 -0.1969 -0.1575
63891W        W 6907   4.881  26.383   8.349  0.2375  0.1668 -0.2967
63892W        W 6908  27.119  30.824   3.509  0.0867 -0.1098 -0.1079
63893W        W 6909  21.639  17.697  15.319  0.1462  0.1823  0.1131
63894W        W 6910   4.378  29.024   0.524  0.1688  0.0624  0.5741
63895W        W 6911  27.912  11.301  28.102 -0.1757  0.3144 -0.1181
63896W        W 6912  31.325  14.556   6.568 -0.1335  0.0595  0.0389
63897W        W 6913   3.292  29.655   0.416 -0.0784  0.0154 -0.0072
63898W        W 6914  18.357  17.821  28.809  0.4665 -0.3526 -0.1601
63899W        W 6915  20.121   9.759  26.023 -0.3467  0.1043 -0.0129
63900W        W 6916  18.776   2.220   7.978  0.1066  0.0870  0.0020
63901W        W 6917  20.091   7.348  21.576 -0.0064  0.0601 -0.0041
63902W        W 6918  25.720  19.151  26.815 -0.1612  0.4895  0.0431
63903W        W 6919   5.680  23.883   5.787  0.1008 -0.0387  0.1234
63904W        W 6920  11.819   8.841  23.334 -0.1639 -0.0408 -0.0925
63905W        W 6921  26.607  24.477   0.086  0.2941 -0.0223 -0.3389
63906W        W 6922  23.112  20.244  14.201 -0.1392 -0.0745 -0.3165
63907W        W 6923  32.490  30.239  23.908 -0.0630 -0.2306 -0.1847
63908W        W 6924  34.200  20.675  23.637 -0.3357 -0.3307 -0.4066
63909W        W 6925  13.838  11.242  27.152  0.0661  0.5157  0.0699
63910W        W 6926   9.388   8.894   5.479  0.0540 -0.1848  0.2381
63911W        W 6927  26.951  27.541  25.459  0.0669  0.1170  0.2200
63912W        W 6928  25.597  19.410   6.627  0.2581 -0.1635 -0.3088
63913W        W 6929  29.450  24.159   0.678  0.2216 -0.1184  0.2306
63914W        W 6930  23.385  20.373   4.549  0.1912 -0.0175 -0.0337
63915W        W 6931  26.622  13.411  14.971  0.1023 -0.1456 -0.2100
63916W        W 6932   9.764  25.065   2.905  0.0650  0.2235  0.1518
63917W        W 6933  13.418  20.864  16.526 -0.1974  0.0486 -0.3059
63918W        W 6934  12.083  15.816  19.920 -0.0578 -0.2732 -0.0087
63919W        W 6935   4.267  22.717   3.755 -0.1927  0.0012  0.3391
63920W        W 6936  12.757  21.578   0.830  0.0233 -0.1121 -0.1471
63921W        W 6937  31.693  15.367   9.736 -0.1058  0.0297  0.1125
63922W        W 6938   3.743  28.409  17.819 -0.2213 -0.3046 -0.1676
63923W        W 6939   5.702  28.433  10.346 -0.0181 -0.1539  0.0462
63924W        W 6940   1.657  23.435   8.909  0.0446  0.0831  0.1125
63925W        W 6941   2.078  30.273   2.609  0.0689  0.1524 -0.3228
63926W        W 6942  33.184  24.383   6.857 -0.1775 -0.2092 -0.1168
63927W        W 6943  33.789  28.975   8.291  0.0318  0.0465  0.1184
63928W        W 6944  11.689  13.885  22.104  0.3801 -0.0466  0.1445
63929W        W 6945   3.928  26.490  24.565  0.2077  0.1398 -0.0946
63930W        W 6946   0.282  24.705   8.611  0.1615  0.1286 -0.2120
63931W        W 6947  34.775  14.283   2.786 -0.1049 -0.0492  0.1229
63932W        W 6948  31.209  21.466   2.519  0.0396  0.0296  0.2129
63933W        W 6949   0.988  24.754  23.915 -0.3460 -0.1233  0.1339
63934W        W 6950   5.391  10.884   0.338  0.2568 -0.3432  0.2559
63935W        W 6951   7.288  16.120  16.702  0.1406  0.0746  0.0919
63936W        W 6952   7.338  30.390   5.028 -0.1032  0.2304  0.2166
63937W        W 6953  34.169  25.588  27.412  0.2483  0.0348  0.1410
63938W        W 6954  26.335   0.640  10.467  0.0602 -0.0535  0.0491
63939W        W 6955  29.447  20.006   6.218 -0.2739 -0.3297 -0.3128
63940W        W 6956  24.723  17.693  15.527 -0.4968  0.2586 -0.0792
63941W        W 6957   2.507  28.566   5.607  0.2820  0.2044 -0.2268
63942W        W 6958  15.579   0.373  22.977  0.1570  0.2817  0.1683
63943W        W 6959   3.470  24.548  29.158  0.0241  0.0798 -0.0119
63944W        W 6960  33.269  33.997  28.061  0.1066 -0.0693 -0.2565
63945W        W 6961   1.228  33.091   9.122  0.0781 -0.2791 -0.2378
63946W        W 6962  13.773  10.726   8.377 -0.1542 -0.2210 -0.1141
63947W        W 6963   4.659  20.908   9.149  0.0144 -0.1041 -0.0464
63948W        W 6964   3.806  33.065   8.118  0.3260  0.1451 -0.2453
63949W        W 6965  12.930  13.250  25.821 -0.0142 -0.1985  0.0174
63950W        W 6966  13.860  29.380   9.275 -0.1537  0.0201  0.1809
63951W        W 6967   1.842  24.638   8.345  0.1033  0.0211  0.2006
63952W        W 6968  34.571   1.611   7.371  0.1030  0.0267  0.3074
63953W        W 6969   0.754  24.393   3.903 -0.2383  0.1200 -0.3112
63954W        W 6970  16.870  19.164   2.408  0.0763  0.0599 -0.2258
63955W        W 6971  31.058   9.589   0.990  0.0721 -0.1982  0.2985
63956W        W 6972   6.573  33.747  21.737  0.1337 -0.0986 -0.0345
63957W        W 6973  33.454  16.557  23.639 -0.1584  0.0249  0.0112
63958W        W 6974   4.636  14.893   4.293 -0.0109  0.1998 -0.1228
63959W        W 6975   0.199  23.126  22.654  0.0082  0.0425 -0.2113
63960W        W 6976  32.793  10.696   9.851 -0.2896  0.1250  0.3905
63961W        W 6977   8.270  32.664   2.036 -0.0303 -0.2361 -0.3670
63962W        W 6978  10.398  30.357   3.845 -0.0855 -0.0358  0.0457
63963W        W 6979   1.280  24.562  26.657  0.1978 -0.2453 -0.0444
63964W        W 6980  34.115  34.202  28.200 -0.2989 -0.1923 -0.0578
63965W        W 6981   6.614  32.297  27.143 -0.2377 -0.0739 -0.3964
63966W        W 6982  12.125  24.508  19.568  0.0185  0.4154  0.1191
63967W        W 6983  12.090  16.721  18.676  0.3304  0.1132  0.1353
63968W        W 6984   2.532   0.836   8.898  0.2089 -0.1145  0.2657
63969W        W 6985  30.489  10.422  17.953 -0.0749  0.0682 -0.0854
63970W        W 6986   8.078  26.771  28.769 -0.3419  0.1800  0.1995
63971W        W 6987  32.437   6.315   5.083  0.2195 -0.0833  0.1430
63972W        W 6988   6.008  30.591  10.201 -0.1782 -0.1898  0.0864
63973W        W 6989  11.148  17.340   6.574  0.1570 -0.2802  0.2158
63974W        W 6990  25.018  17.943   8.788  0.0704  0.0704 -0.0676
63975W        W 6991  24.187  25.832   1.075 -0.3701  0.1190  0.2053
63976W        W 6992  30.441  17.338   7.021  0.2595 -0.1091  0.1615
63977W        W 6993   5.401   4.735   1.762  0.2230 -0.0769 -0.0571
63978W        W 6994   4.953   1.357   6.975 -0.0534  0.4512 -0.0924
63979W        W 6995   2.246  21.460   7.151 -0.1585 -0.0137 -0.1189
63980W        W 6996   4.255  32.026   6.732 -0.0647 -0.4293  0.1066
63981W        W 6997  13.487  18.911  26.037  0.0826  0.0998 -0.0674
63982W        W 6998  18.384  34.024   5.901  0.0988 -0.3336  0.2705
63983W        W 6999  10.472  22.480   6.613 -0.0301  0.1899 -0.0557
63984W        W 7000  26.391  26.765   4.845 -0.0229  0.2935 -0.1697
63985W        W 7001  20.404  19.486   3.788 -0.2429 -0.2761 -0.1358
63986W        W 7002  12.784  20.963  27.716  0.3517  0.2521  0.2195
63987W        W 7003  10.377  16.157   1.901 -0.0474 -0.1930  0.0079
63988W        W 7004  27.165  26.948  11.165 -0.1528 -0.0555  0.5781
63989W        W 7005  33.445  20.304   9.359  0.2087 -0.1637 -0.0396
63990W        W 7006  27.020   2.872   3.333  0.1945 -0.0749 -0.3370
63991W        W 7007   7.965  13.145   3.390  0.2431 -0.1517 -0.2332
63992W        W 7008  34.408  16.416   8.867 -0.0464  0.0448  0.1073
63993W        W 7009  11.968  24.326   4.048 -0.1157  0.2345 -0.1761
63994W        W 7010  29.555   4.440   4.087 -0.0631 -0.2776  0.0918
63995W        W 7011   2.898   0.129  28.681  0.0020  0.0694  0.0540
63996W        W 7012  23.960   0.679   8.585  0.2499 -0.1907 -0.0794
63997W        W 7013   0.930  34.073   9.475  0.0356  0.0059 -0.1581
63998W        W 7014  24.427  29.159  24.537  0.1408 -0.2020 -0.2296
63999W        W 7015  21.335   2.002  29.176 -0.1528 -0.3179  0.0883
64000W        W 7016   3.349  23.718   6.272 -0.2225 -0.1429  0.0984
64001W        W 7017   6.362  22.249   4.260  0.0600 -0.1205  0.4549
64002W        W 7018  31.543  22.457   9.969 -0.3775 -0.0734  0.1708
64003W        W 7019  14.105  23.600   3.550  0.1809  0.0998  0.0899
64004W        W 7020  15.155  23.901  25.621 -0.1790 -0.4033 -0.4707
64005W        W 7021   3.119   4.458  20.725 -0.1339  0.1002 -0.2663
64006W        W 7022   1.229  19.562   7.231  0.0256 -0.1533 -0.3719
64007W        W 7023  31.983  27.660  27.929  0.0714  0.0233 -0.2235
64008W        W 7024   3.583  17.925   7.448  0.1244  0.0456  0.0731
64009W        W 7025  32.100  22.629   1.001 -0.3460 -0.1389 -0.1775
64010W        W 7026  29.578  22.238  15.853 -0.0539  0.0925 -0.0545
64011W        W 7027   0.616  28.817   9.177  0.0437  0.1229 -0.0587
64012W        W 7028   8.930  22.565   1.605  0.0363  0.3659 -0.1489
64013W        W 7029  29.211   3.275  26.895  0.1187 -0.5312  0.1358
64014W        W 7030   2.912  29.690  20.201  0.0408  0.1122 -0.0625
64015W        W 7031   6.064  34.053   3.258 -0.1526 -0.1934 -0.3822
64016W        W 7032   0.926  18.552  24.091  0.0354 -0.1836 -0.1621
64017W        W 7033  16.466   0.474  27.513 -0.0653  0.1858 -0.3885
64018W        W 7034   2.718  15.536   4.591 -0.3162 -0.2670  0.1082
64019W        W 7035  30.307   7.563   3.665 -0.1569 -0.0817 -0.1367
64020W        W 7036  24.730   7.401  28.808 -0.0877 -0.2489 -0.0423
64021W        W 7037  10.781   3.549   9.324  0.1237 -0.0919  0.3160
64022W        W 7038  32.164  18.905  17.766 -0.2225 -0.1709  0.0952
64023W        W 7039  17.969  30.737   0.989  0.2707  0.1431  0.0517
64024W        W 7040   5.375  25.504  26.481  0.1995  0.1532 -0.1192
64025W        W 7041  15.161  14.247  13.820 -0.1485 -0.2001 -0.1153
64026W        W 7042  10.932  18.192  20.491  0.0497  0.0105 -0.0921
64027W        W 7043   6.424  23.246   6.439  0.1440 -0.0450 -0.1246
64028W        W 7044  12.747  33.844   1.393  0.0719  0.1224  0.3021
64029W        W 7045  27.367   2.743  28.840 -0.0396  0.0710 -0.0075
64030W        W 7046   9.183  15.884   8.189  0.1711  0.0371 -0.1560
64031W        W 7047   8.311  11.868   5.138  0.1205 -0.1711 -0.2441
64032W        W 7048  10.867   1.008  10.384 -0.0488 -0.0177 -0.2557
64033W        W 7049   1.927  28.783   4.453  0.0779 -0.0698 -0.0210
64034W        W 7050   1.108  16.994   3.457  0.1234 -0.0685 -0.4214
64035W        W 7051  34.119  17.837   1.370  0.0809 -0.0918 -0.1004
64036W        W 7052   8.813  14.196   2.954  0.0052 -0.3039 -0.1000
64037W        W 7053  33.982  25.338   2.607  0.0942 -0.0308  0.0561
64038W        W 7054  20.786  21.515  28.988  0.0378  0.2703 -0.0233
64039W        W 7055  26.969   0.308  10.073  0.0457 -0.0823  0.1300
64040W        W 7056  34.003  24.082   0.661  0.1025  0.1410 -0.0903
64041W        W 7057   4.638  16.052   0.004 -0.0182  0.0943 -0.0597
64042W        W 7058  27.008  22.665   5.726  0.1967 -0.0301  0.3329
64043W        W 7059  32.013  28.784   3.380  0.0291  0.1290  0.1307
64044W        W 7060  28.755   0.523  19.965  0.0160  0.2285  0.0777
64045W        W 7061   2.829  32.596  26.137  0.0216  0.0943 -0.0646
64046W        W 7062  32.715  14.448   4.699  0.1462  0.0466 -0.4461
64047W        W 7063  10.726  30.443  26.785 -0.2671 -0.0760  0.2221
64048W        W 7064   0.714  28.116   6.391  0.0547  0.0753  0.0824
64049W        W 7065  30.364   5.771   5.197  0.2469 -0.2759 -0.3445
64050W        W 7066   6.790   8.327   4.389  0.1518  0.3373  0.0838
64051W        W 7067   0.488  23.244   4.188 -0.1081 -0.0234  0.0153
64052W        W 7068   2.511   3.132  10.113  0.3595 -0.1097  0.1444
64053W        W 7069  13.647  19.647   4.857  0.2089 -0.2192 -0.3326
64054W        W 7070  10.546   4.380   7.393  0.1959 -0.0984  0.2557
64055W        W 7071   2.354  32.215   0.222  0.0919 -0.3398  0.0012
64056W        W 7072   9.856  15.500   9.223  0.0752 -0.1533 -0.0868
64057W        W 7073  11.894  32.727   1.742 -0.0418  0.1719 -0.0614
64058W        W 7074  34.578  25.016   3.435 -0.2621  0.2027 -0.1786
64059W        W 7075  10.075   4.407   4.394  0.1149 -0.2095 -0.1136
64060W        W 7076  26.796  26.487   2.675  0.1076  0.3484  0.1064
64061W        W 7077   7.418  15.087   6.600 -0.4624  0.1752 -0.1433
64062W        W 7078   3.502  14.737   1.860 -0.4204  0.0636  0.1131
64063W        W 7079  22.617  10.907   9.087  0.0170 -0.0089 -0.0520
64064W        W 7080   4.670  24.494   7.045  0.0184  0.1766  0.2844
64065W        W 7081  16.343   7.559   3.705 -0.1167 -0.3439 -0.1667
64066W        W 7082   2.474  25.822   6.576  0.2962  0.2485  0.1465
64067W        W 7083   6.371  28.814   7.644 -0.1996  0.2123 -0.2642
64068W        W 7084  33.660  18.284   6.235  0.2259 -0.1110 -0.0495
64069W        W 7085  16.804  11.260   3.564 -0.2419  0.0941 -0.0191
64070W        W 7086   3.053  28.235  19.860  0.1661  0.0489  0.1956
64071W        W 7087  34.583  12.812  10.358  0.0004  0.0723  0.1952
64072W        W 7088  18.142  21.822   7.600  0.2202 -0.5317 -0.0047
64073W        W 7089  26.167  19.795  26.285  0.1343 -0.1172  0.0198
64074W        W 7090  23.269  27.691   3.691  0.0946  0.0811  0.2057
64075W        W 7091  33.965   3.476   7.141 -0.3522  0.0777 -0.1284
64076W        W 7092  33.372   1.820  10.835 -0.1373 -0.0100  0.1983
64077W        W 7093  31.184  29.066  28.431  0.0141 -0.3595  0.1989
64078W        W 7094   0.052  15.936   1.881  0.4100  0.0611  0.1157
64079W        W 7095  15.419   1.094   9.323 -0.0606 -0.0597 -0.1286
64080W        W 7096  14.011  18.187   3.760 -0.2374  0.1397  0.2332
64081W        W 7097  30.453   0.332   0.568  0.1123 -0.1620 -0.1472
64082W        W 7098  28.642  15.477   5.603 -0.1440  0.0316 -0.0871
64083W        W 7099  20.390  25.567  19.505  0.3476 -0.0242 -0.2511
64084W        W 7100   6.407  19.279   2.892 -0.0525  0.2097 -0.0160
64085W        W 7101  26.071  18.111  10.168 -0.0987 -0.3166 -0.3621
64086W        W 7102   7.934  19.137   3.227  0.0924 -0.0981  0.1916
64087W        W 7103  34.370  22.707   7.664  0.1249 -0.0838 -0.2601
64088W        W 7104   1.461  28.568  28.301 -0.1917 -0.3558  0.0492
64089W        W 7105   0.014  32.736   8.515  0.0756  0.0397 -0.0934
64090W        W 7106  31.513  26.517   1.033 -0.3342 -0.2844  0.2147
64091W        W 7107   4.158  18.584   6.571  0.0714 -0.2282 -0.1481
64092W        W 7108   2.598  25.898  27.515 -0.0786  0.2437  0.3511
64093W        W 7109   8.726  30.235   7.730  0.2395 -0.3361  0.0111
64094W        W 7110   6.101  22.952   0.979 -0.2910  0.0365 -0.1012
64095W        W 7111  15.518  25.574  23.652 -0.1791 -0.0947 -0.0857
64096W        W 7112   8.531  23.608   5.435  0.2056  0.1611 -0.0669
64097W        W 7113  28.281  10.069   2.333 -0.1256  0.0257  0.2375
64098W        W 7114  25.366  21.120   4.025 -0.0034  0.0630 -0.4199
64099W        W 7115   8.542  32.184  28.370  0.2156 -0.1123  0.1473
64100W        W 7116  24.985   4.741   3.375  0.1249  0.2143  0.3188
64101W        W 7117   0.805   8.160   7.734  0.0642  0.1704  0.1934
64102W        W 7118   5.698  14.484   6.253 -0.1252  0.1035  0.0790
64103W        W 7119   5.333  31.203   1.635 -0.0512  0.1204 -0.0963
64104W        W 7120  28.683  27.546   4.404  0.2167 -0.0455  0.5286
64105W        W 7121  34.103  27.197   3.150 -0.0138 -0.2869  0.3549
64106W        W 7122  33.330  32.445  28.830  0.3615  0.1802 -0.2766
64107W        W 7123   1.691   5.054   8.611 -0.0882 -0.0907  0.1334
64108W        W 7124   9.404  31.248   7.940 -0.0526 -0.2377 -0.1083
64109W        W 7125  26.153  17.419   3.907 -0.1354 -0.3035  0.0550
64110W        W 7126   3.485  10.450   0.630 -0.3465 -0.2106 -0.4425
64111W        W 7127   3.957   2.533   2.409 -0.0250  0.2603 -0.2606
64112W        W 7128  33.830  33.835   4.237 -0.0193  0.0438 -0.0544
64113W        W 7129  29.326  16.205   6.688  0.0296 -0.0066  0.0721
64114W        W 7130   0.475   9.976   2.501 -0.2484  0.1749  0.0286
64115W        W 7131  32.591  15.688  28.060  0.0686 -0.2060 -0.0399
64116W        W 7132  31.132  34.090  28.630  0.0091  0.0813 -0.1086
64117W        W 7133   4.431   7.986   3.923 -0.3881  0.2834  0.1071
64118W        W 7134  16.204  22.414   2.233 -0.2848 -0.1504 -0.0675
64119W        W 7135   9.795  25.267   8.023 -0.0831  0.0496  0.0626
64120W        W 7136   7.487  27.086   2.970  0.3242 -0.1635 -0.3291
64121W        W 7137  13.422  18.714  14.585 -0.1322  0.1973 -0.0120
64122W        W 7138   0.555  32.396  27.808 -0.1043  0.0124  0.1099
64123W        W 7139   3.973  23.323   1.202 -0.0555  0.0757  0.1319
64124W        W 7140  11.730  14.620  27.918 -0.2407 -0.2316 -0.1969
64125W        W 7141  17.008   1.684   7.901  0.2430 -0.3224  0.1830
64126W        W 7142  25.959  11.771   5.786 -0.0147  0.4341 -0.0630
64127W        W 7143   6.261  25.284   4.144 -0.2227 -0.0019  0.0032
64128W        W 7144  11.343  31.453   2.489 -0.1214 -0.1150  0.1098
64129W        W 7145   2.453  29.865   2.707 -0.0000 -0.0406 -0.1305
64130W        W 7146  11.800  34.359   9.151  0.0434 -0.0203 -0.4312
64131W        W 7147  13.530  21.231   6.406  0.0490  0.1926 -0.2832
64132W        W 7148  26.343  14.456  21.938  0.1564  0.1498  0.2626
64133W        W 7149  32.430  25.350   5.924  0.0558 -0.1580  0.1776
64134W        W 7150  30.841  27.477   8.158  0.1962 -0.0054  0.0088
64135W        W 7151  15.901  12.947   8.442  0.2047  0.2124 -0.1873
64136W        W 7152  10.171  33.615   1.047 -0.1529 -0.0404 -0.0624
64137W        W 7153   8.282   3.589   3.183 -0.0528  0.0669 -0.1177
64138W        W 7154   4.102  21.054   5.510 -0.0353 -0.2056 -0.1984
64139W        W 7155  34.101   1.097   6.806 -0.0950  0.1513 -0.1219
64140W        W 7156  18.134  25.741   4.005  0.0843  0.1968  0.0331
64141W        W 7157  12.402  33.365   8.346 -0.2266 -0.0700  0.2469
64142W        W 7158   3.631  27.886  27.193 -0.1726  0.0439  0.1030
64143W        W 7159  19.515   0.593   9.667 -0.1015  0.3190  0.0278
64144W        W 7160   6.312  28.558   5.070  0.0759  0.0615 -0.1191
64145W        W 7161  29.844   6.396   7.066 -0.0064 -0.1048  0.1040
64146W        W 7162   0.894  14.786  10.883 -0.2444 -0.1093  0.0628
64147W        W 7163  19.283  33.776  15.669 -0.1427 -0.1245 -0.1691
64148W        W 7164  30.713  34.397  21.036 -0.2290 -0.1643 -0.0193
64149W        W 7165  16.926  19.998   3.738 -0.1758  0.0380  0.0679
64150W        W 7166  25.668  21.879   5.080 -0.1308 -0.1374 -0.2235
64151W        W 7167  32.671  30.096   5.197  0.0922  0.0337 -0.1707
64152W        W 7168  29.653   0.953  23.336  0.2534  0.2483  0.3647
64153W        W 7169  16.292  24.705  23.626 -0.1640  0.3291  0.2225
64154W        W 7170  11.839  23.385   7.259  0.0725 -0.0296  0.0907
64155W        W 7171  11.910  27.619   4.485  0.1138  0.1013 -0.1205
64156W        W 7172   5.977  26.455   6.911 -0.1896  0.0776 -0.0361
64157W        W 7173  15.833  25.192   3.840 -0.0040  0.1538  0.1043
64158W        W 7174   1.859  13.284   2.492 -0.2961  0.1572  0.0192
64159W        W 7175   5.542  30.839   6.062 -0.1844 -0.3732 -0.2499
64160W        W 7176  30.026   0.589  10.317  0.2785  0.0836  0.3676
64161W        W 7177   0.304  22.672   2.911  0.0709 -0.0065  0.2254
64162W        W 7178   4.458  23.203  19.077  0.2546  0.0861 -0.0985
64163W        W 7179  32.130  19.471  10.449 -0.1474 -0.0282  0.0517
64164W        W 7180   3.803  24.070  20.670 -0.2736 -0.0065  0.1311
64165W        W 7181  16.726  25.957  21.606 -0.1797  0.0841 -0.1075
64166W        W 7182  25.891  26.370   6.820  0.1259 -0.2274  0.1924
64167W        W 7183   9.270  14.287  28.546 -0.3845 -0.2005 -0.0437
64168W        W 7184   1.842  29.851   5.689 -0.1664 -0.0129 -0.1445
64169W        W 7185  32.570   0.024  22.994  0.0079  0.2211 -0.1249
64170W        W 7186  11.390  18.180   4.835  0.4231  0.1204 -0.2690
64171W        W 7187  32.776   3.344  10.381  0.3951  0.0519 -0.0299
64172W        W 7188   7.684  33.097  28.984  0.0153 -0.1235 -0.0019
64173W        W 7189  29.999  25.314   3.054  0.2079  0.0299 -0.0218
64174W        W 7190   5.761  31.593   1.567 -0.0996  0.0665 -0.3582
64175W        W 7191  33.469  23.102   5.972  0.0444  0.0143  0.2180
64176W        W 7192  27.230  30.030  19.783 -0.0934 -0.0833 -0.0784
64177W        W 7193   5.329  30.362   9.310 -0.0217 -0.4366 -0.2591
64178W        W 7194  19.962  21.285  28.007  0.0917  0.0536 -0.0052
64179W        W 7195   4.976  33.084   1.146  0.0440  0.2055  0.2365
64180W        W 7196  23.438   6.105   1.166 -0.1517 -0.2457  0.2192
64181W        W 7197   3.557  23.447  25.148 -0.1937  0.1470  0.0535
64182W        W 7198  28.898  25.457   0.902 -0.0659 -0.1260  0.2303
64183W        W 7199  15.750  30.034  23.972 -0.1886  0.2122  0.0662
64184W        W 7200   8.548  20.594  26.086 -0.1344  0.0063  0.3099
64185W        W 7201   9.761  27.975   5.844 -0.0267  0.1473  0.1698
64186W        W 7202   0.391  28.637   9.683  0.3439 -0.2109  0.1852
64187W        W 7203  27.392  25.138  10.257  0.0125  0.1166 -0.3810
64188W        W 7204   1.113  26.576   8.865  0.3032 -0.0824  0.0724
64189W        W 7205  31.218   3.244  25.054  0.1994  0.0421  0.0301
64190W        W 7206   3.260   7.614   4.753  0.0758  0.0531  0.0695
64191W        W 7207   4.228  22.010  27.725  0.0610  0.0486 -0.2532
64192W        W 7208  22.571  31.959   6.755  0.0602  0.1637  0.1904
64193W        W 7209   9.491  30.606   0.965 -0.2609 -0.0036 -0.2088
64194W        W 7210  18.913  30.442  28.178  0.3455  0.2082 -0.0118
64195W        W 7211  28.589   4.115  28.608 -0.1128 -0.0871 -0.0076
64196W        W 7212  27.553  18.379   4.916 -0.2268  0.4315  0.2625
64197W        W 7213   0.382   3.399   5.707  0.1579  0.0715 -0.2892
64198W        W 7214   1.337  31.110   7.778 -0.1383 -0.2001 -0.0534
64199W        W 7215   6.874  12.439  29.076 -0.1336  0.2156 -0.0581
64200W        W 7216  18.011  26.704   3.972 -0.1408 -0.2086 -0.3980
64201W        W 7217  33.805  29.376   7.270  0.1416  0.0334  0.3113
64202W        W 7218  11.788  21.598   7.345 -0.0166 -0.0059  0.0060
64203W        W 7219  27.782  20.881   6.581 -0.0173  0.0734 -0.1914
64204W        W 7220  33.732  20.459   9.723  0.1307  0.1368 -0.1341
64205W        W 7221  22.424  28.711   7.264  0.1918  0.1651  0.3756
64206W        W 7222  29.116  22.430   6.725 -0.0729 -0.2016  0.1989
64207W        W 7223  16.277  33.840  27.529  0.1347 -0.3699 -0.0785
64208W        W 7224  17.633  29.341   5.299 -0.1130 -0.0646  0.4735
64209W        W 7225   2.403  28.792   4.759 -0.2142  0.1745 -0.2544
64210W        W 7226   0.629  20.195   4.068  0.2199 -0.1337 -0.1746
64211W        W 7227  31.003  20.191  22.901 -0.0875  0.0884 -0.0771
64212W        W 7228  10.008  22.965   4.452  0.0448  0.1360  0.0266
64213W        W 7229  29.279  22.770   6.366  0.0257 -0.3204 -0.0826
64214W        W 7230  19.580   4.416   9.455  0.0590 -0.1293  0.2423
64215W        W 7231  31.626  14.574   6.093  0.1270 -0.0147  0.1336
64216W        W 7232   2.498  19.756   1.913 -0.0299 -0.2417  0.1239
64217W        W 7233   3.451  27.890  25.429  0.2898 -0.1004 -0.0318
64218W        W 7234   5.681  22.432   8.512  0.1101 -0.1257  0.1721
64219W        W 7235  17.108  30.899  19.362 -0.2778  0.2488 -0.1009
64220W        W 7236  25.763  25.812   6.330  0.4314 -0.1314 -0.3034
64221W        W 7237  34.413  18.125  28.554  0.0920  0.1880  0.1617
64222W        W 7238  15.510  28.884   0.644 -0.1021  0.1197  0.1465
64223W        W 7239  24.269  17.655  26.126 -0.1992  0.1334  0.3327
64224W        W 7240  27.580   2.007   8.068  0.2863  0.1213 -0.2061
64225W        W 7241   7.408  28.484   1.486 -0.1062  0.2524  0.1056
64226W        W 7242  27.362  30.299   5.471 -0.0625  0.2556  0.4712
64227W        W 7243  30.357  27.602   6.790 -0.0071  0.1566  0.2194
64228W        W 7244  10.223  13.433   6.938  0.2377 -0.2079 -0.0422
64229W        W 7245   4.407  31.071   1.621  0.0399 -0.1463 -0.0390
64230W        W 7246   4.933   6.787  20.342  0.2542 -0.0486  0.0808
64231W        W 7247   8.598  17.897  25.495  0.1176 -0.0710  0.2150
64232W        W 7248   2.354  26.930  28.756  0.4848 -0.0482  0.2195
64233W        W 7249  34.258  26.054   6.274 -0.1353 -0.2065 -0.0363
64234W        W 7250  15.587  14.015  28.271 -0.1422  0.2195  0.0967
64235W        W 7251   8.660  22.363  24.373 -0.1158 -0.1796 -0.0009
64236W        W 7252  32.494  22.878  19.888  0.1770  0.3754  0.0194
64237W        W 7253   7.587  18.081   3.814 -0.1322  0.1194 -0.0015
64238W        W 7254  14.707  19.679  26.646  0.2352 -0.0664  0.0756
64239W        W 7255  31.734  23.001   9.894 -0.3402  0.2530 -0.1007
64240W        W 7256  34.627  21.692  23.601 -0.0572 -0.3349  0.1416
64241W        W 7257  21.117   5.007  28.715 -0.0680 -0.1486 -0.0196
64242W        W 7258   6.556  18.786  24.092  0.2451  0.1080 -0.3032
64243W        W 7259   8.427  31.284   2.066 -0.0835  0.0078  0.0190
64244W        W 7260  14.872  26.415  26.519  0.0659 -0.0901 -0.0564
64245W        W 7261  10.813  19.217   8.493  0.0597 -0.0621  0.1296
64246W        W 7262   1.189  33.931  24.753 -0.1040  0.1050 -0.1383
64247W        W 7263  10.551  27.743   8.374 -0.0176  0.1668 -0.0339
64248W        W 7264   0.895  17.899  29.257 -0.0457  0.1972 -0.0526
64249W        W 7265  34.487  14.949  20.704  0.5593  0.1360  0.2479
64250W        W 7266   6.545  25.640  16.282 -0.0150 -0.1858 -0.2226
64251W        W 7267   5.849  22.404   9.772 -0.0539  0.1237 -0.1108
64252W        W 7268   4.704  10.268   3.520 -0.1771 -0.2293  0.0294
64253W        W 7269   5.556  17.922   6.721  0.0230  0.2574  0.0434
64254W        W 7270  12.919  17.427  22.964 -0.3030  0.1393 -0.1121
64255W        W 7271  30.249  21.148  27.693  0.1982 -0.1640 -0.1387
64256W        W 7272  31.286  17.183   8.777  0.5183  0.2234 -0.1748
64257W        W 7273   9.531  32.756  18.444  0.0854 -0.2116  0.5364
64258W        W 7274   8.762  20.960   7.193 -0.0108 -0.3509  0.0120
64259W        W 7275  34.426  12.742   9.518  0.1193  0.2937 -0.3867
64260W        W 7276  31.280  34.079  22.264  0.0275 -0.4274 -0.1656
64261W        W 7277   3.116  21.851   4.965 -0.0458  0.0810 -0.0627
64262W        W 7278   5.372  21.048   4.037 -0.1012 -0.1254 -0.1831
64263W        W 7279  30.704  27.821   6.345 -0.0487  0.0343 -0.3109
64264W        W 7280  10.763  31.421   3.307 -0.0657  0.2202 -0.1489
64265W        W 7281   9.717   0.681   7.683 -0.0275  0.3017  0.0015
64266W        W 7282  30.224   0.493   2.036  0.0505 -0.3409 -0.2814
64267W        W 7283   7.000  29.830   3.878  0.2975 -0.4146 -0.1726
64268W        W 7284  13.108  17.794  28.126 -0.3050  0.1125  0.1246
64269W        W 7285  30.939  17.848   9.559  0.3110  0.0838  0.1135
64270W        W 7286   1.939   9.366   3.301 -0.1783 -0.2449  0.0547
64271W        W 7287  32.260   8.810   9.740  0.0285  0.4118 -0.5878
64272W        W 7288  26.973  32.369   9.609  0.1477  0.1036 -0.3182
64273W        W 7289   6.697   0.006   8.102 -0.0319 -0.1303 -0.0546
64274W        W 7290   5.692  31.048   9.375  0.3448 -0.0079  0.1664
64275W        W 7291  27.149   1.493  18.492 -0.1008  0.4533  0.0579
64276W        W 7292   2.358   5.338   8.479 -0.1105  0.2730  0.0355
64277W        W 7293   5.101  19.353  25.626 -0.0661  0.1369  0.1618
64278W        W 7294  33.945  31.637   9.592  0.4250 -0.2604 -0.0280
64279W        W 7295   7.402  28.953   5.253 -0.1930 -0.0375 -0.0423
64280W        W 7296   4.040  18.912   0.718 -0.1494 -0.1523  0.0568
64281W        W 7297  25.551  12.225  19.101 -0.1874 -0.2576  0.2937
64282W        W 7298  16.507  20.908  25.266 -0.0437  0.0238 -0.4044
64283W        W 7299  11.669  17.515   0.707  0.0512  0.1262 -0.0267
64284W        W 7300  33.728  25.170  10.244  0.0224 -0.0151  0.2200
64285W        W 7301   4.632  26.252   4.821 -0.0803  0.0624 -0.2937
64286W        W 7302  29.285  31.159  11.420 -0.1021 -0.1625 -0.0884
64287W        W 7303  11.537  30.764  25.090  0.0358  0.1066 -0.0399
64288W        W 7304  14.247   2.051  22.625  0.0335 -0.2646  0.0708
64289W        W 7305  33.608  24.505  25.794 -0.2112  0.1982 -0.0019
64290W        W 7306  27.384  18.695   5.743  0.1314 -0.1678  0.2177
64291W        W 7307  12.320  32.591   6.436 -0.1358  0.2248 -0.0480
64292W        W 7308  30.247  27.741  29.251  0.0406  0.3232  0.0920
64293W        W 7309  26.656  27.167   4.984 -0.2185 -0.0493  0.1618
64294W        W 7310  27.829  23.245   3.874  0.3116  0.2932 -0.0443
64295W        W 7311  28.059  25.431   8.934  0.1213 -0.0592 -0.1651
64296W        W 7312   2.609  12.893   1.012 -0.2280  0.0087 -0.0749
64297W        W 7313  20.661  19.303   5.807  0.1362  0.1050 -0.3383
64298W        W 7314  19.030   2.059   5.134 -0.2884  0.0680  0.0469
64299W        W 7315  12.972  29.515  27.297  0.0460 -0.1860 -0.0371
64300W        W 7316   9.286  29.277  28.201 -0.0495  0.1230  0.1798
64301W        W 7317  25.273  33.372   5.673 -0.5457  0.2088  0.0352
64302W        W 7318   3.689  34.751  25.088 -0.0784 -0.3911 -0.1710
64303W        W 7319  29.952   0.580   8.598  0.0991  0.0343 -0.1365
64304W        W 7320  26.939  30.675   2.966  0.0046 -0.2313  0.1634
64305W        W 7321  14.958  15.214   4.077  0.0394  0.1766 -0.2809
64306W        W 7322  23.721  20.675  22.540 -0.2280  0.0702 -0.2308
64307W        W 7323   4.609  15.360  23.228 -0.1748  0.0632  0.1056
64308W        W 7324  10.869  22.693  20.158 -0.0357 -0.2515  0.1010
64309W        W 7325   0.037  22.821   6.871  0.2416  0.1257  0.0865
64310W        W 7326  26.137   1.741  25.350 -0.1696  0.0096  0.2378
64311W        W 7327  29.037   6.956  24.130 -0.0116  0.0766  0.0100
64312W        W 7328  31.695  28.750   5.728  0.3913 -0.1118  0.0348
64313W        W 7329  34.723  26.386  29.188  0.2367 -0.1925  0.0075
64314W        W 7330  28.976  34.479   7.692  0.2193  0.2986  0.0139
64315W        W 7331  30.726  30.690  10.555  0.0260  0.1628  0.1256
64316W        W 7332  33.758  23.315  27.101  0.0283 -0.2668  0.1277
64317W        W 7333  32.426  21.117   8.286 -0.0733  0.0186 -0.2568
64318W        W 7334  31.562  26.493   9.071 -0.0263 -0.1381 -0.0624
64319W        W 7335   9.768  21.290  28.137 -0.3566 -0.0789  0.0999
64320W        W 7336  10.944   3.021   9.529 -0.1078 -0.0520 -0.1878
64321W        W 7337  27.504   5.250  19.408  0.3803  0.1830 -0.0364
64322W        W 7338  32.896  17.316  28.404 -0.2819 -0.3287  0.1065
64323W        W 7339  29.727  20.846   9.478 -0.1094 -0.0103 -0.1386
64324W        W 7340   8.265  22.962   0.235  0.4232 -0.1814 -0.2760
64325W        W 7341   5.272  29.706   2.235  0.0927  0.0769 -0.0793
64326W        W 7342  16.056   2.649   3.843 -0.4454  0.1505 -0.0621
64327W        W 7343  22.104  11.478   7.469  0.0003 -0.1848 -0.1099
64328W        W 7344  15.992   7.675  25.384 -0.1319 -0.3847 -0.0966
64329W        W 7345  20.535  19.487  22.164  0.2624 -0.3097 -0.4583
64330W        W 7346   0.709   9.764   6.578  0.0978 -0.0281  0.1826
64331W        W 7347  13.035  33.870   8.080  0.2131  0.2056 -0.3103
64332W        W 7348  19.823  34.454   9.953 -0.0365 -0.3295 -0.1569
64333W        W 7349  12.487  30.943  17.545  0.1210  0.2697  0.1807
64334W        W 7350  19.942  24.345   3.219 -0.0625 -0.4866  0.2215
64335W        W 7351  28.948  31.949   3.999  0.0821  0.0898  0.0867
64336W        W 7352  13.573  30.617   3.978  0.0917 -0.0573  0.3454
64337W        W 7353  19.484  14.638   2.426 -0.1737 -0.0476 -0.2033
64338W        W 7354  11.866  30.854   8.065  0.1021  0.0995 -0.0292
64339W        W 7355   7.797  33.505  25.605 -0.2802 -0.0664 -0.0904
64340W        W 7356  28.731   7.414   2.430 -0.0980  0.0259  0.0681
64341W        W 7357  32.686  31.574  10.064  0.0941 -0.1033  0.0704
64342W        W 7358  27.155  22.062  27.869 -0.0882  0.0046  0.1773
64343W        W 7359  18.434  17.107   5.271  0.3012 -0.2769  0.0356
64344W        W 7360  28.290  24.222   9.660 -0.0941 -0.1728  0.0543
64345W        W 7361   7.472  27.417   6.936 -0.2224 -0.4033 -0.2030
64346W        W 7362   9.870  28.522   1.645  0.1172 -0.1153  0.0391
64347W        W 7363   5.867  24.360   5.735  0.0384  0.1352 -0.0160
64348W        W 7364  32.944   2.836   5.704 -0.3878 -0.2608 -0.1492
64349W        W 7365  11.067  21.195   3.025  0.2508 -0.0633 -0.0283
64350W        W 7366   4.654  17.797   4.803  0.3842  0.0864  0.3367
64351W        W 7367  13.428  33.631   7.829 -0.1734  0.0332  0.2198
64352W        W 7368  30.817  26.999  10.366  0.0897  0.1623  0.2949
64353W        W 7369   3.689   2.259   6.202 -0.0082 -0.1087 -0.0933
64354W        W 7370  18.782  27.683  15.526  0.1151  0.0797 -0.0375
64355W        W 7371  14.125  26.151  26.973  0.0873  0.0646 -0.2249
64356W        W 7372  24.189  24.037   9.898 -0.3767 -0.2805  0.0861
64357W        W 7373   1.770  32.267  20.783 -0.1567  0.0264 -0.4795
64358W        W 7374  19.347  22.422   2.883 -0.0197 -0.2761 -0.2509
64359W        W 7375   7.686  23.238  20.108  0.0981  0.0675 -0.1403
64360W        W 7376   4.385  26.818   4.516  0.0167  0.3199 -0.3841
64361W        W 7377  31.052  30.324  10.748 -0.1162 -0.1856  0.2346
64362W        W 7378  19.485  21.374   7.907 -0.1443 -0.1324 -0.0222
64363W        W 7379  16.965  24.466  24.341  0.1530 -0.2268  0.0264
64364W        W 7380  10.270  23.533   6.918  0.0571 -0.1965 -0.0293
64365W        W 7381   1.803  19.559   9.721 -0.3323 -0.1773 -0.1542
64366W        W 7382  18.633  12.440   1.124 -0.0873 -0.2448  0.1769
64367W        W 7383  29.085   0.620  10.258 -0.1713 -0.2322  0.0247
64368W        W 7384  28.820  20.290   9.954  0.0588 -0.1598 -0.3587
64369W        W 7385  30.238  22.915   7.556  0.2188 -0.3517  0.2979
64370W        W 7386  24.590  25.450   1.070 -0.0433 -0.0055 -0.2898
64371W        W 7387  10.404  32.883   4.546  0.0506 -0.2521 -0.1519
64372W        W 7388   2.088  27.403   9.914 -0.2669 -0.1716 -0.1831
64373W        W 7389  29.943  33.507  25.475  0.1674  0.0810  0.3718
64374W        W 7390  28.249   8.038  29.317 -0.0701 -0.0905  0.0887
64375W        W 7391   9.287  20.670  22.745 -0.5795  0.0085 -0.2037
64376W        W 7392  30.213   5.558  20.199  0.0885  0.0881 -0.0285
64377W        W 7393  26.239  15.034   5.291 -0.0874 -0.0134  0.0718
64378W        W 7394  27.514  15.483   1.760  0.1541  0.0613 -0.2185
64379W        W 7395  14.402  32.553  29.213 -0.1044 -0.1016 -0.0315
64380W        W 7396   1.421   5.086  15.332  0.6445 -0.2638  0.4670
64381W        W 7397  24.283  32.696  20.684  0.1930 -0.0220 -0.1250
64382W        W 7398  17.548  17.917  28.051  0.0179 -0.1940 -0.0635
64383W        W 7399  28.088   4.536  22.499  0.0720  0.1471  0.2077
64384W        W 7400  32.961  29.487  27.729  0.1134  0.0790 -0.0106
64385W        W 7401   9.239  18.210  27.270 -0.0805 -0.3659 -0.1617
64386W        W 7402  13.749   9.796   2.569  0.1470 -0.2773 -0.0040
64387W        W 7403   1.199   6.625  18.148  0.2333 -0.1809  0.1528
64388W        W 7404   7.628   5.924  21.185 -0.0024  0.0337 -0.1475
64389W        W 7405  11.403  30.893  25.527  0.1250 -0.0121 -0.0843
64390W        W 7406   1.434   3.477  21.872  0.1683 -0.2294  0.3572
64391W        W 7407  32.195  33.001   5.782  0.0834 -0.0710 -0.0317
64392W        W 7408   4.613   2.664  26.113  0.0875  0.0547 -0.0499
64393W        W 7409  33.954  29.214   2.374 -0.1244  0.1769  0.0163
64394W        W 7410  25.795  18.234  21.340  0.1577 -0.2368  0.2418
64395W        W 7411  20.362  20.823   0.669  0.1409 -0.0764  0.2126
64396W        W 7412  33.510  31.917  28.977 -0.1149  0.2212  0.3686
64397W        W 7413  29.212  15.342   7.729  0.1549  0.0588  0.0723
64398W        W 7414   5.904  32.216   2.152 -0.3049  0.2161  0.2053
64399W        W 7415  14.191  29.229   6.980  0.0568  0.1804  0.2950
64400W        W 7416  27.167  19.376   8.869 -0.2392 -0.1406 -0.4372
64401W        W 7417  28.132  30.979  24.876  0.0959  0.2286 -0.1542
64402W        W 7418  26.333   9.424  23.597  0.0142  0.1088 -0.1670
64403W        W 7419   6.494   4.904   2.204 -0.2319 -0.2234  0.1486
64404W        W 7420  16.061   6.184   0.770 -0.1029  0.0987 -0.0881
64405W        W 7421  13.393   5.478   1.423  0.1456 -0.4059  0.1557
64406W        W 7422   6.286  27.829  20.916  0.1699 -0.0233 -0.0832
64407W        W 7423  34.689  20.631  10.307  0.2668 -0.0205 -0.0330
64408W        W 7424  34.414  20.841   4.143 -0.3334 -0.0317  0.0670
64409W        W 7425  29.581   3.093  18.983  0.0228 -0.0307 -0.0549
64410W        W 7426  15.568  30.972   7.057  0.2103  0.1754  0.1607
64411W        W 7427  30.017  29.115  10.600  0.2834  0.0139 -0.3494
64412W        W 7428   6.706   2.588   3.003 -0.0435  0.0697 -0.1751
64413W        W 7429   5.939  33.030  28.088  0.3185  0.1829  0.4157
64414W        W 7430  30.003   2.148  16.331  0.2063 -0.0468 -0.0633
64415W        W 7431  14.290   1.728   7.423  0.0553  0.0469  0.2532
64416W        W 7432   1.524  13.364   2.078 -0.2210  0.1569 -0.1539
64417W        W 7433  29.298  13.412   2.038 -0.1718  0.2585  0.2032
64418W        W 7434   5.023   2.742  23.374 -0.0007  0.1354 -0.0961
64419W        W 7435   7.634  18.612   7.166 -0.3883  0.2216 -0.0776
64420W        W 7436  27.758   2.453  24.083  0.1848 -0.0037  0.1243
64421W        W 7437  24.606  26.753  11.550 -0.0046  0.1128 -0.0381
64422W        W 7438  24.719  30.844  28.434  0.1367 -0.2202  0.1667
64423W        W 7439  14.220   3.815   3.072 -0.0999 -0.3987  0.1026
64424W        W 7440   5.979   2.664  26.911 -0.3140  0.2664 -0.3382
64425W        W 7441  10.310   1.339  26.088 -0.3613 -0.1850 -0.1251
64426W        W 7442   1.625  20.809  28.343  0.0134  0.1280  0.0701
64427W        W 7443   9.982   3.478  25.555  0.0523  0.1773  0.1554
64428W        W 7444  27.542  32.212   4.975  0.0963 -0.1896 -0.3639
64429W        W 7445  32.864   2.908   2.783 -0.0549  0.4438 -0.0042
64430W        W 7446  20.978   9.083  28.055 -0.1739  0.1671  0.0203
64431W        W 7447  27.971  17.522   9.321 -0.0114 -0.3062  0.0828
64432W        W 7448   8.074  30.507  19.195  0.0725  0.1510  0.1717
64433W        W 7449   8.488  28.687   4.858  0.0290 -0.0404 -0.1363
64434W        W 7450  14.925  25.667   7.360  0.0478 -0.3777 -0.1221
64435W        W 7451  28.217  32.997  27.271 -0.2652 -0.1967  0.0883
64436W        W 7452  10.325  12.279  27.954 -0.2095 -0.0994  0.0146
64437W        W 7453  32.307  34.441  24.171 -0.4183 -0.0241 -0.1880
64438W        W 7454  20.739  19.014   4.742 -0.0325  0.3052 -0.2378
64439W        W 7455  20.299  34.280   1.853 -0.0069 -0.4062 -0.1729
64440W        W 7456  10.960  24.576   5.346  0.3799  0.1240  0.1777
64441W        W 7457   1.061  27.918  28.890 -0.0395 -0.1725  0.1298
64442W        W 7458  20.615   6.340   4.373  0.0771 -0.3286 -0.1009
64443W        W 7459   9.076  30.029  22.691 -0.0891 -0.0860  0.1747
64444W        W 7460  32.568   0.853  19.314  0.0031 -0.3791 -0.1069
64445W        W 7461   7.947   3.944  25.819  0.0409 -0.2949 -0.0415
64446W        W 7462  20.810   8.722  28.825  0.0455 -0.0467  0.0864
64447W        W 7463  31.260   2.063  21.689  0.0539 -0.2183 -0.2676
64448W        W 7464  27.769  28.517  11.479  0.1880 -0.1308 -0.0936
64449W        W 7465  34.014  28.922  10.504  0.3078 -0.3488 -0.1612
64450W        W 7466  29.152   0.717   1.696  0.1487  0.4870 -0.1647
64451W        W 7467  16.186   3.844   3.217  0.1566  0.1479 -0.0583
64452W        W 7468  18.453  18.657   4.109  0.1592  0.0673 -0.0484
64453W        W 7469  14.924   2.240  17.812 -0.2903  0.1716  0.0078
64454W        W 7470   7.950  23.175  21.859 -0.2156  0.2867 -0.2485
64455W        W 7471   4.679   2.381  27.069 -0.0873  0.0836  0.0701
64456W        W 7472  24.514   0.471   4.103 -0.0101  0.1061 -0.2711
64457W        W 7473   7.779  25.689   5.192  0.1626  0.0544  0.0635
64458W        W 7474  32.428   8.558  17.767  0.0982  0.0191  0.0996
64459W        W 7475  34.610  29.082  26.135 -0.3287 -0.1975  0.0319
64460W        W 7476  15.088   0.252  27.629  0.3177 -0.0718 -0.1900
64461W        W 7477  22.894  24.180   5.375 -0.1906 -0.0139  0.1070
64462W        W 7478   2.365   5.921  23.685 -0.1628 -0.2335  0.1612
64463W        W 7479   9.057  30.780   1.125  0.1935 -0.1876 -0.0161
64464W        W 7480   2.092  14.164  18.675 -0.1907 -0.3703 -0.0161
64465W        W 7481  33.720  21.165  17.423  0.0376  0.0827  0.2206
64466W        W 7482  27.006  18.711  29.075  0.0082  0.4749  0.1855
64467W        W 7483   6.242  13.814   6.597 -0.1575 -0.0339 -0.0952
64468W        W 7484  22.527  31.764  18.988  0.3037 -0.0415 -0.0720
64469W        W 7485  10.367  19.881  20.868  0.1172  0.1061 -0.2049
64470W        W 7486  33.413  11.728  14.587 -0.3130  0.1297 -0.5157
64471W        W 7487   3.929   6.249   5.614 -0.0407 -0.1946  0.0811
64472W        W 7488  28.512  33.392  20.640 -0.5579 -0.0487 -0.2222
64473W        W 7489  28.143  33.617   7.395 -0.2326 -0.0428  0.1804
64474W        W 7490   3.004  21.339  25.378  0.3406  0.1795  0.3197
64475W        W 7491   8.875   7.880   4.969 -0.2921  0.2133  0.0855
64476W        W 7492   2.722  20.683   5.624 -0.2694 -0.0498  0.1130
64477W        W 7493   9.931  30.113  24.753 -0.1732 -0.1543  0.0309
64478W        W 7494  30.727   2.429  26.014  0.0219  0.0063  0.1356
64479W        W 7495  11.551   1.226  10.839  0.0942  0.4850 -0.0912
64480W        W 7496  33.955   8.867  18.445  0.2051 -0.1139 -0.1764
64481W        W 7497  31.163  20.860   0.917  0.0763  0.1804 -0.3105
64482W        W 7498  28.695  26.309  23.110  0.0147  0.0742  0.0593
64483W        W 7499   6.631  31.422  25.379 -0.0438  0.1204  0.2819
64484W        W 7500  23.018  15.362   2.811 -0.2471  0.1722  0.0597
64485W        W 7501  31.333  15.585   5.668  0.1915 -0.1294  0.1586
64486W        W 7502   8.214  27.528   5.311 -0.4204 -0.0333  0.1840
64487W        W 7503  20.982  26.808  27.032  0.5228 -0.0749  0.0220
64488W        W 7504  10.126   5.017   3.039  0.0694 -0.0083 -0.0063
64489W        W 7505   6.938  18.257   9.154 -0.2224  0.2376  0.1738
64490W        W 7506   2.016  19.844  23.524  0.0154 -0.1522 -0.1330
64491W        W 7507  10.734   7.127   6.695  0.0280 -0.2628 -0.2118
64492W        W 7508  16.930  24.873   6.928  0.1293  0.0917  0.2339
64493W        W 7509  33.947  32.658  24.715 -0.3637  0.2110  0.0323
64494W        W 7510  12.112  33.508  23.243  0.2853  0.0116 -0.1306
64495W        W 7511   2.241  34.762  22.298  0.3352  0.2207  0.1918
64496W        W 7512  26.882  32.813  10.765 -0.1443  0.2968 -0.2310
64497W        W 7513  33.833  29.944   9.366  0.1455  0.1149  0.3016
64498W        W 7514   6.465  23.093   8.372 -0.0387  0.0130 -0.0819
64499W        W 7515  30.317  24.213   5.984 -0.1187  0.0108  0.4597
64500W        W 7516  29.377  31.003   1.832  0.1114  0.0446  0.1196
64501W        W 7517  28.577  34.293   6.778 -0.1851  0.0824 -0.1603
64502W        W 7518  18.819  31.879   3.179  0.2177 -0.1447  0.1051
64503W        W 7519   0.457   5.367   3.210 -0.0640 -0.1665  0.1415
64504W        W 7520  32.628   0.406   6.696 -0.1186  0.1508 -0.0272
64505W        W 7521  17.650  26.875   8.337  0.0087  0.3440 -0.1511
64506W        W 7522  16.709  19.227   4.330 -0.0892 -0.1423 -0.2013
64507W        W 7523  26.298  24.448  10.944 -0.1609 -0.0105  0.2133
64508W        W 7524   2.670  12.858   7.679  0.1082  0.0957  0.1431
64509W        W 7525   1.821  25.685   5.430  0.1946 -0.2030 -0.0057
64510W        W 7526   9.692   4.626   3.953  0.0903 -0.3018  0.1700
64511W        W 7527   4.870  33.610  23.465  0.0566 -0.3518  0.1456
64512W        W 7528  22.845  29.041  20.677  0.0919 -0.1739 -0.1570
64513W        W 7529   3.370  17.616  23.625  0.0173  0.1116 -0.3968
64514W        W 7530  31.861  33.894   5.405 -0.2049  0.2366 -0.2165
64515W        W 7531   0.253  28.375   5.268  0.0538 -0.0959  0.1645
64516W        W 7532  16.806  25.509   1.792 -0.3252  0.0620 -0.2599
64517W        W 7533  31.680  29.371  18.453 -0.0763  0.0887 -0.1437
64518W        W 7534  22.814   0.568  11.836  0.3487 -0.1844  0.6106
64519W        W 7535  32.304  31.366  16.655 -0.4683  0.3524  0.0948
64520W        W 7536  33.832  25.645   4.950 -0.1623 -0.0976 -0.1398
64521W        W 7537  12.693  20.890  28.611  0.2943  0.4282 -0.4116
64522W        W 7538   7.072  21.325   8.401 -0.0837 -0.1238 -0.1176
64523W        W 7539  19.331  32.460  10.351  0.1759 -0.2953  0.3361
64524W        W 7540  10.160  32.426   2.214  0.0092  0.0791 -0.0654
64525W        W 7541  16.076  26.760   7.917  0.3809  0.0789  0.1764
64526W        W 7542  29.831  26.814  28.608 -0.1435  0.1044  0.2678
64527W        W 7543  27.000  27.465   5.652  0.0485  0.3110 -0.2471
64528W        W 7544   2.638   0.961  23.279  0.0351 -0.0845  0.1012
64529W        W 7545  28.601  10.598  24.791 -0.3724  0.0315 -0.1269
64530W        W 7546  15.165   3.590  18.655 -0.0851  0.2845  0.0951
64531W        W 7547  32.976  22.209   0.707  0.1935 -0.2686 -0.0762
64532W        W 7548  20.478   1.167   7.557  0.2428  0.0377 -0.0426
64533W        W 7549   4.669  10.975   4.910 -0.0623 -0.0649  0.1600
64534W        W 7550  16.899  24.248   0.005 -0.2803 -0.3441 -0.1034
64535W        W 7551  29.515  32.679  15.699  0.2850 -0.3423 -0.1489
64536W        W 7552   9.220   5.445   5.479 -0.0001 -0.1008 -0.2278
64537W        W 7553  10.643  29.398   7.738  0.0156 -0.0068  0.1520
64538W        W 7554  24.994  27.011  22.020 -0.1848 -0.2877  0.1070
64539W        W 7555   7.634  32.873  23.092  0.0745 -0.2283  0.1742
64540W        W 7556  22.751  20.614  29.181 -0.1111  0.2140  0.4681
64541W        W 7557   4.765  13.679  13.710  0.0674  0.1695  0.2454
64542W        W 7558  11.267  12.591  16.538 -0.0364 -0.1870 -0.1948
64543W        W 7559   3.289   0.436   1.449  0.2154 -0.0487  0.2528
64544W        W 7560  19.299  21.633  27.981  0.1190  0.2882  0.0932
64545W        W 7561   1.468  28.078  27.552  0.0159 -0.0925 -0.0651
64546W        W 7562  10.857  30.933  21.274  0.3320 -0.3764  0.0348
64547W        W 7563  25.814   4.311   1.831  0.0521  0.0635  0.1695
64548W        W 7564  14.493  33.751   4.902 -0.4108  0.2424 -0.0861
64549W        W 7565  26.292  27.281   8.492 -0.1525 -0.1938  0.3070
64550W        W 7566  23.572  33.073   0.150  0.2933  0.0941 -0.2817
64551W        W 7567  32.661  33.845   0.540  0.0266 -0.2351  0.0281
64552W        W 7568   7.333  31.534  14.706 -0.2180 -0.1980  0.0724
64553W        W 7569   0.014  30.860   9.646 -0.0877  0.0068  0.0654
64554W        W 7570  27.907   5.938   0.511  0.0162 -0.2429  0.6316
64555W        W 7571  30.854  15.019  20.380  0.2054 -0.0090 -0.2450
64556W        W 7572   3.976  31.780   1.916  0.0385  0.1172  0.1082
64557W        W 7573  29.753  25.095   1.232 -0.0859  0.1909  0.2006
64558W        W 7574  27.004   6.851   0.847  0.0928 -0.2924  0.2079
64559W        W 7575  19.987  20.096  20.105 -0.3498 -0.3141 -0.1626
64560W        W 7576   3.328  30.603  22.710  0.1062 -0.0274  0.0398
64561W        W 7577  11.098  24.053  24.967 -0.2038  0.2331  0.3970
64562W        W 7578  34.739  28.853  29.109  0.0126  0.1217  0.1397
64563W        W 7579   5.776  29.942  26.883  0.0427 -0.0817 -0.2279
64564W        W 7580  33.601  30.625   6.005 -0.4804  0.0985 -0.0919
64565W        W 7581   5.763  10.183  20.276  0.0398 -0.1065 -0.1586
64566W        W 7582  33.891  34.072  18.059 -0.1309  0.1012 -0.3605
64567W        W 7583  26.279  25.550  26.299 -0.1113 -0.3887 -0.3285
64568W        W 7584   3.823  14.517   7.176  0.0213 -0.2093  0.2163
64569W        W 7585   0.893   8.312   3.567 -0.1622 -0.0145  0.2444
64570W        W 7586  31.471  23.897   6.903 -0.4326 -0.0103  0.3401
64571W        W 7587  17.517  27.462  28.854 -0.2256 -0.3882 -0.0604
64572W        W 7588  18.196  30.370   8.651  0.0769  0.0590 -0.2421
64573W        W 7589  27.877   1.022   4.341 -0.1729 -0.0642  0.3676
64574W        W 7590   4.392  21.357   3.247 -0.1521  0.3239  0.0317
64575W        W 7591  31.342   4.368   1.642 -0.1702  0.0658 -0.1853
64576W        W 7592  22.605   2.378  22.784 -0.0818 -0.1695  0.2960
64577W        W 7593   8.071  24.010  27.691  0.1361 -0.4290 -0.1991
64578W        W 7594  19.422  18.110  28.224 -0.1464 -0.0350 -0.0497
64579W        W 7595  28.726  23.699   1.605  0.2348  0.1845  0.0933
64580W        W 7596  23.397   0.747  23.855  0.0420 -0.2584  0.1580
64581W        W 7597  12.149  16.033  28.815 -0.0316  0.2803 -0.0630
64582W        W 7598  33.963  16.231   4.001 -0.4389  0.0124  0.1785
64583W        W 7599  20.219  27.346  19.074 -0.0137  0.1441  0.0441
64584W        W 7600  31.747   6.333  25.989  0.2231 -0.1775  0.0129
64585W        W 7601  31.507   0.215  25.976  0.0394  0.1010 -0.0847
64586W        W 7602   1.783  33.872  26.351 -0.0789 -0.2534 -0.1700
64587W        W 7603  31.228  28.389   4.613 -0.0872  0.4038  0.0236
64588W        W 7604  17.883   8.943  19.812 -0.1809 -0.5349  0.3160
64589W        W 7605  33.461  31.671  23.851 -0.1857  0.1075 -0.0150
64590W        W 7606   5.134   7.993   1.017 -0.0059  0.2189 -0.1707
64591W        W 7607  10.389  33.926   8.610  0.2292 -0.0054 -0.1760
64592W        W 7608  31.270  30.315   5.553  0.1115 -0.2690 -0.0309
64593W        W 7609   6.311  31.640  23.497  0.0972  0.2133  0.0404
64594W        W 7610  23.252  31.203  28.945  0.0421  0.0443 -0.2127
64595W        W 7611  32.865  21.089  27.955 -0.0387  0.4126  0.1556
64596W        W 7612  28.016  33.641  19.884 -0.1160 -0.0424 -0.2096
64597W        W 7613  14.207  12.186  19.296  0.0444 -0.0289  0.0744
64598W        W 7614   1.891   8.009  24.889  0.1040  0.1316  0.0791
64599W        W 7615  27.104  31.985  15.365  0.2318 -0.0569  0.1199
64600W        W 7616   1.819  29.864   9.033  0.0965 -0.1602 -0.0142
64601W        W 7617  22.570  24.842  18.048  0.2281 -0.0121 -0.1041
64602W        W 7618  26.699  26.427   0.358  0.1246 -0.2800 -0.0548
64603W        W 7619   6.886   1.245   3.626 -0.2501  0.0120 -0.1373
64604W        W 7620  10.807   8.685   8.337 -0.0107 -0.0882  0.1940
64605W        W 7621  33.066   3.339   1.868 -0.1814  0.0894  0.1978
64606W        W 7622  11.378  13.823  24.574  0.2550  0.0782 -0.0701
64607W        W 7623   7.932   6.136   9.978 -0.2306  0.0742 -0.1649
64608W        W 7624  16.213  31.824   7.288  0.1352  0.0102 -0.6281
64609W        W 7625  13.947  23.380  19.383  0.1356 -0.2394  0.1247
64610W        W 7626  15.335   3.745  25.599  0.2730  0.0515 -0.0517
64611W        W 7627  14.706  28.625  17.452  0.2024  0.3040 -0.1182
64612W        W 7628  24.809  32.077   0.197 -0.4516  0.0479  0.3085
64613W        W 7629  16.839  20.919   0.837  0.1223 -0.2466  0.0530
64614W        W 7630  26.622  28.362   8.201  0.1237  0.1711 -0.0296
64615W        W 7631   2.295  15.303   4.763  0.2104 -0.1168  0.0967
64616W        W 7632  29.257  32.952  12.239  0.2533 -0.3310  0.3370
64617W        W 7633   8.221  18.507  15.546  0.0909 -0.2932  0.1772
64618W        W 7634   0.130   7.399   0.670  0.0930 -0.1305 -0.3311
64619W        W 7635   5.736  34.700  25.104 -0.0330  0.0102 -0.1166
64620W        W 7636   4.780   2.134  29.281 -0.1304 -0.2199  0.0060
64621W        W 7637   6.532   6.350  26.346 -0.1333 -0.2202  0.3822
64622W        W 7638   6.230  19.397   5.879  0.0324  0.1531 -0.2852
64623W        W 7639  33.841   1.164   3.016  0.1154  0.2281  0.0703
64624W        W 7640  25.523   6.082  27.927  0.0675  0.0540  0.0446
64625W        W 7641  23.909   2.624  24.598 -0.0538  0.1046 -0.0676
64626W        W 7642  32.429  18.054   1.847  0.4073  0.2029  0.1740
64627W        W 7643  10.237   0.992   7.728  0.2419  0.1317  0.2084
64628W        W 7644  30.832  30.169   8.140  0.0502  0.2549 -0.4018
64629W        W 7645   8.685   9.204   6.586  0.2673  0.3966  0.0116
64630W        W 7646   2.215  29.545   7.781  0.0818  0.0683  0.4932
64631W        W 7647  11.504  13.572   1.881 -0.0430 -0.0026  0.0936
64632W        W 7648  13.198  29.097   8.286 -0.1350 -0.2471 -0.0308
64633W        W 7649  10.793   1.599   2.087 -0.3155  0.2960  0.1543
64634W        W 7650   0.445   2.392   7.214  0.0243 -0.0434 -0.1671
64635W        W 7651   6.942  26.855   0.160  0.0186  0.1403 -0.0708
64636W        W 7652  15.338   1.128  27.790  0.1161 -0.2022  0.3540
64637W        W 7653   8.456  25.807  27.997 -0.0911  0.0750 -0.1466
64638W        W 7654  28.523   0.422  23.830  0.3842 -0.0705 -0.4145
64639W        W 7655   2.345  30.053  28.661  0.0609 -0.1118 -0.1721
64640W        W 7656  31.568  17.475  22.311  0.3380 -0.2273 -0.1497
64641W        W 7657  31.168   8.169  10.074 -0.1491 -0.0903 -0.1241
64642W        W 7658  29.113  32.343   9.443  0.1470 -0.1362 -0.2094
64643W        W 7659  23.962   7.197   8.842  0.2947 -0.0878  0.3004
64644W        W 7660   0.370  28.047   2.040 -0.0294 -0.0152  0.2071
64645W        W 7661   3.463  11.688   7.584 -0.3148  0.0680  0.3441
64646W        W 7662   5.693  18.688   8.000 -0.0566 -0.2163 -0.0311
64647W        W 7663   0.043  33.929   6.185  0.0827 -0.1901 -0.6193
64648W        W 7664   0.423  18.776   4.209 -0.0326  0.1390  0.0099
64649W        W 7665   4.995  33.362  24.444 -0.1071 -0.0865  0.0567
64650W        W 7666  17.795  27.842   4.159 -0.0468  0.0687 -0.2140
64651W        W 7667  16.734  14.395  26.251  0.0106 -0.0534 -0.0718
64652W        W 7668  20.376  21.621  24.657 -0.0680  0.1992  0.2575
64653W        W 7669   0.464  28.738   4.425  0.0269  0.1288 -0.0878
64654W        W 7670  12.804  33.336  20.378 -0.1437 -0.1690 -0.0639
64655W        W 7671   5.283   3.824   4.627 -0.4089 -0.1263 -0.0345
64656W        W 7672   9.625   0.490   0.895  0.2380  0.2137 -0.0880
64657W        W 7673  33.677  32.197   0.106  0.2380  0.0892 -0.0578
64658W        W 7674  32.645  26.042  17.913 -0.0608 -0.1624  0.0867
64659W        W 7675   3.883   3.240  22.522  0.0735  0.1550 -0.1260
64660W        W 7676   1.746  14.611  24.224  0.0854  0.1270  0.2101
64661W        W 7677  28.736  32.778   4.039 -0.0570  0.0534  0.1087
64662W        W 7678   2.607  22.040   3.529 -0.1560  0.1019  0.2349
64663W        W 7679   1.312  31.421  27.669 -0.1062  0.2423 -0.0909
64664W        W 7680   5.532  28.579  29.050 -0.0779  0.2169 -0.1655
64665W        W 7681  30.221   5.128   1.663  0.0964 -0.1546  0.2496
64666W        W 7682  31.031   6.768  21.970  0.2815  0.2303 -0.3006
64667W        W 7683  14.365  22.729   0.947 -0.0262 -0.0022  0.4057
64668W        W 7684  28.423  19.407  25.149  0.0814  0.0320  0.2033
64669W        W 7685  33.102  33.227  20.353  0.0337  0.1600  0.0166
64670W        W 7686  16.841  26.816  20.152  0.2809 -0.2236 -0.1389
64671W        W 7687   3.186  23.812   4.826  0.0948 -0.0764 -0.1007
64672W        W 7688  30.577   0.035   8.585 -0.1175  0.1280  0.0517
64673W        W 7689  25.494  32.397   5.504  0.2597 -0.2385  0.0346
64674W        W 7690  10.785  30.768   8.439  0.1832 -0.2618 -0.2748
64675W        W 7691  20.725   4.184   1.991  0.0794 -0.0130  0.0805
64676W        W 7692  17.531  22.385   5.256 -0.0289 -0.0932 -0.2350
64677W        W 7693  34.676  33.765  18.770 -0.4479 -0.4248 -0.0444
64678W        W 7694   8.573   9.101   3.155 -0.1018  0.0330  0.0994
64679W        W 7695  15.616   7.465  28.822  0.2130  0.0222  0.2738
64680W        W 7696  26.518  27.086   8.080 -0.6141  0.1629  0.0921
64681W        W 7697   0.203   9.739  24.715  0.2139  0.3503 -0.2900
64682W        W 7698   6.756  24.471   1.908 -0.1389 -0.0923  0.0475
64683W        W 7699  21.256   0.540   1.722  0.3989 -0.2010 -0.0681
64684W        W 7700   2.559  30.479   7.558 -0.2223 -0.0740  0.0196
64685W        W 7701  22.673  10.409  20.527 -0.0092  0.0102  0.1060
64686W        W 7702  16.760   6.260   2.584  0.0066  0.0845 -0.0525
64687W        W 7703  13.315  31.243  27.853  0.2415 -0.0718 -0.1045
64688W        W 7704   2.119  20.699  28.310 -0.1454 -0.0557 -0.3019
64689W        W 7705  25.414  34.689  29.320  0.0186  0.1661  0.2858
64690W        W 7706   5.737  22.425  19.063  0.1969  0.1917  0.2083
64691W        W 7707   9.504  31.572   1.428  0.0732  0.1522 -0.1578
64692W        W 7708   1.749  31.732   4.676 -0.0579 -0.0877  0.1818
64693W        W 7709  20.526  30.382   3.605  0.0839 -0.2323  0.1369
64694W        W 7710  19.522  17.417  19.666 -0.2293  0.2392 -0.1426
64695W        W 7711  30.109  11.120  27.857  0.0042 -0.0556  0.2574
64696W        W 7712   4.529  34.435  25.852 -0.0366 -0.0717  0.3422
64697W        W 7713  34.627  16.468   6.346  0.0742 -0.1069  0.0599
64698W        W 7714  29.621   1.882   7.615  0.1032  0.2158 -0.4369
64699W        W 7715   8.748  31.517  26.706 -0.0593  0.3866 -0.3110
64700W        W 7716  14.135  19.561  19.051  0.0545  0.2251 -0.1475
64701W        W 7717   5.514   5.926   5.652  0.1462  0.0428 -0.1756
64702W        W 7718  28.365  29.249  17.804  0.1488  0.2978  0.2974
64703W        W 7719  34.546  30.897  16.642  0.0422 -0.2185 -0.1971
64704W        W 7720  26.858  34.365   0.114  0.4032  0.0879 -0.1559
64705W        W 7721  10.891  27.465  29.050  0.1070 -0.0567 -0.1475
64706W        W 7722  31.057  17.308   2.974 -0.2822  0.2746 -0.1327
64707W        W 7723  33.746   1.043  11.136 -0.2763 -0.1318  0.0765
64708W        W 7724  31.659   1.801   7.834  0.1316  0.0152  0.0132
64709W        W 7725  10.325  18.348  29.135  0.1216  0.0444 -0.3584
64710W        W 7726   3.105  18.416   5.052  0.0642  0.2014 -0.1354
64711W        W 7727   9.318  28.661  28.113 -0.0050  0.0867 -0.0217
64712W        W 7728   3.258   4.727  21.108  0.0601  0.0590 -0.0799
64713W        W 7729  27.804  34.057   9.974  0.2700  0.0288  0.2211
64714W        W 7730   2.233  29.488   2.497  0.1494  0.1804 -0.0677
64715W        W 7731  26.383  15.805   7.172 -0.0106  0.0258 -0.1423
64716W        W 7732  20.528  15.173  28.760 -0.2058  0.1369  0.0428
64717W        W 7733  25.311   6.577   2.569  0.3478 -0.1601  0.1888
64718W        W 7734   2.685  34.368   9.963 -0.4229 -0.0190  0.0667
64719W        W 7735  10.162   6.769  26.772 -0.1432 -0.1080 -0.1160
64720W        W 7736  13.427  13.860  24.743 -0.3838  0.0104  0.2055
64721W        W 7737  34.770  22.470  18.539 -0.0694  0.0627 -0.0124
64722W        W 7738  16.973   6.139  20.496 -0.0214 -0.0390 -0.1955
64723W        W 7739  32.820   0.693   5.433 -0.2935 -0.3256 -0.1422
64724W        W 7740  28.867  29.828  10.693 -0.0698  0.1823  0.0513
64725W        W 7741  30.030  15.616  24.579 -0.4334  0.0583  0.3853
64726W        W 7742   2.290   8.074   3.790  0.0106  0.2880  0.2578
64727W        W 7743  19.762  19.871  26.535 -0.2352  0.0364 -0.2139
64728W        W 7744  14.013   9.707  25.796 -0.1541 -0.2813  0.3082
64729W        W 7745  27.159   2.814  25.549 -0.2467 -0.0380 -0.2979
64730W        W 7746  28.629  24.497  28.120 -0.2395 -0.1024  0.1091
64731W        W 7747  10.861   2.977   0.998 -0.3902 -0.0768  0.1040
64732W        W 7748  27.227  23.523   1.389 -0.1736  0.1681 -0.3879
64733W        W 7749   5.895  27.728  19.194  0.4553  0.0037  0.1471
64734W        W 7750   4.249   8.650   1.212  0.4471 -0.0142 -0.0641
64735W        W 7751  34.035  17.238   2.006  0.1033  0.1696  0.2223
64736W        W 7752   7.602   1.553   9.719  0.2111 -0.1063 -0.0362
64737W        W 7753   3.179   9.617   5.692 -0.0889 -0.0369 -0.2220
64738W        W 7754   0.002  24.293   5.137 -0.0178 -0.1485  0.1533
64739W        W 7755   7.190   1.458   4.682 -0.1553  0.1748 -0.0086
64740W        W 7756   2.010   9.410  28.063  0.1618 -0.0793 -0.2549
64741W        W 7757  34.545   6.235   3.022 -0.4139  0.1295 -0.2107
64742W        W 7758  16.041  31.641   7.746  0.0367 -0.2636 -0.0884
64743W        W 7759   5.696  30.779  21.350  0.3134  0.0603  0.1207
64744W        W 7760   4.117  26.929  19.723 -0.1258 -0.3283 -0.0223
64745W        W 7761  26.703   5.694  17.341  0.1226 -0.1303 -0.0902
64746W        W 7762  31.466  19.462  10.307  0.2571  0.1114  0.3137
64747W        W 7763  31.488  21.732  26.102 -0.0003  0.0300 -0.0989
64748W        W 7764  13.146  11.998  27.320 -0.1172  0.1279  0.3444
64749W        W 7765   0.570   3.349   2.017 -0.1586 -0.0788  0.0016
64750W        W 7766  30.887   4.402  19.314  0.1015 -0.0883 -0.2119
64751W        W 7767  13.738  19.108   0.189  0.1849 -0.2745  0.2440
64752W        W 7768   0.240  15.705   0.471  0.1442 -0.0385 -0.0575
64753W        W 7769  22.877  11.691   5.626 -0.1878  0.1510 -0.1367
64754W        W 7770   8.183  22.542   2.970 -0.2248  0.0861 -0.0247
64755W        W 7771  17.316   7.997   3.947  0.2696  0.0011 -0.0546
64756W        W 7772   4.802   0.375  26.470 -0.3683  0.0629 -0.0056
64757W        W 7773   4.687   1.679  17.406 -0.1676 -0.1283 -0.1955
64758W        W 7774  33.064   1.892  17.693  0.0032 -0.3095 -0.3230
64759W        W 7775   3.491  27.060   2.493 -0.3106 -0.1184  0.1849
64760W        W 7776   8.678  28.933   5.220  0.0742  0.1046  0.4967
64761W        W 7777   6.402  23.184   7.900 -0.0673  0.2648 -0.1648
64762W        W 7778  32.823  30.245   7.387 -0.1952 -0.0981  0.1367
64763W        W 7779  32.765   7.338  26.777  0.0082 -0.3179 -0.3749
64764W        W 7780   6.099  28.608  22.658  0.5515 -0.2060 -0.0294
64765W        W 7781  14.683  26.363  28.801  0.3635  0.4870  0.2476
64766W        W 7782  33.092  34.013   0.873 -0.2260  0.3377  0.1351
64767W        W 7783   6.811  28.613  28.088 -0.0956  0.1766  0.1803
64768W        W 7784   0.590   0.711  10.285 -0.4006  0.0766 -0.0633
64769W        W 7785  25.879  22.208   7.700 -0.1681 -0.5825  0.0340
64770W        W 7786  21.859  13.118  29.102  0.1916  0.0043  0.1398
64771W        W 7787  29.428  25.197  20.205  0.0254 -0.2880 -0.1553
64772W        W 7788   2.327  23.181   9.041  0.1054 -0.1684  0.1733
64773W        W 7789   2.606   3.576  18.493  0.2461  0.0210  0.3411
64774W        W 7790  30.414  26.056  25.630 -0.0599 -0.2087  0.0602
64775W        W 7791  27.516  26.193   7.335  0.1489 -0.0536  0.1964
64776W        W 7792  28.029  21.518   4.558 -0.1016 -0.0423 -0.0590
64777W        W 7793   4.621  26.119   2.047 -0.0225 -0.2866 -0.0217
64778W        W 7794  11.300   2.633   2.202 -0.1556 -0.0168 -0.0935
64779W        W 7795  29.078  26.624   1.491  0.0999  0.0501  0.0005
64780W        W 7796  27.434   0.194  24.532 -0.1207 -0.3065 -0.1179
64781W        W 7797   7.151  21.567   3.634  0.0101  0.1398  0.1975
64782W        W 7798  17.298  12.819   7.118  0.2689 -0.0997 -0.0930
64783W        W 7799  31.501   9.140  27.698 -0.1245  0.1120 -0.0723
64784W        W 7800  29.014  13.367  17.719  0.0501  0.1029 -0.0098
64785W        W 7801  23.004   3.901   8.374 -0.1061 -0.2055  0.1044
64786W        W 7802   6.564   0.803   7.843 -0.1786 -0.0222 -0.2720
64787W        W 7803  11.786  29.997   9.901 -0.1058 -0.0696  0.1833
64788W        W 7804  29.334  31.512   7.792  0.1104  0.0043  0.1417
64789W        W 7805  21.698  33.291   3.419  0.1325  0.2912  0.0044
64790W        W 7806  27.998  34.293  28.601  0.0989 -0.2637 -0.3315
64791W        W 7807   7.044  32.706   2.659 -0.0053 -0.0145  0.0328
64792W        W 7808   8.244  33.685   4.809 -0.0604 -0.3064 -0.2147
64793W        W 7809  26.762  20.016   7.597 -0.1120 -0.2175  0.1634
64794W        W 7810   8.781  29.918  26.979  0.2296  0.0345 -0.1386
64795W        W 7811   6.645  19.030   2.337  0.2197  0.2268 -0.0559
64796W        W 7812   5.743  30.845  23.158 -0.1157 -0.0698 -0.1675
64797W        W 7813   5.059   5.239   5.283  0.4464  0.0558  0.3128
64798W        W 7814   7.892  23.196   3.709 -0.2487 -0.0562 -0.4275
64799W        W 7815  31.779   1.281  24.809  0.0021 -0.1851  0.3699
64800W        W 7816  32.295   1.173   8.116  0.1472  0.0546 -0.1264
64801W        W 7817  15.761  11.204  22.584  0.1494 -0.1291 -0.1374
64802W        W 7818   4.297  11.469   1.585  0.0341  0.1725 -0.0339
64803W        W 7819  32.825  24.341   3.932  0.0981  0.0081 -0.5047
64804W        W 7820  32.180  13.042   4.517 -0.0401 -0.0688 -0.0913
64805W        W 7821  11.341  25.703  24.892 -0.0009  0.1622  0.2855
64806W        W 7822   1.826   5.387  27.690 -0.2792  0.2170 -0.0521
64807W        W 7823   0.537  21.199   2.546 -0.1554 -0.2563 -0.0215
64808W        W 7824  25.850  19.193   4.029 -0.0398  0.1688  0.1313
64809W        W 7825  31.110  22.126   9.913 -0.0672  0.0499  0.2931
64810W        W 7826  33.675  17.061   2.541 -0.2645  0.0753 -0.0259
64811W        W 7827  31.010  33.522   7.679  0.0726 -0.1702  0.1897
64812W        W 7828   3.754  28.760   3.430 -0.0897 -0.0151 -0.1269
64813W        W 7829  16.087  12.490   3.549 -0.1542 -0.0951  0.1884
64814W        W 7830  28.383  15.155   3.962  0.1946  0.0523  0.0750
64815W        W 7831  33.173   6.557  23.429 -0.1157  0.2087 -0.4725
64816W        W 7832  30.153  31.915  10.029 -0.3008 -0.4588  0.2997
64817W        W 7833   2.006  31.272  19.732 -0.0500  0.4393  0.0898
64818W        W 7834  12.739  26.808   2.104  0.0104 -0.0947  0.0257
64819W        W 7835   4.966   0.592   2.315 -0.3464  0.2723 -0.5103
64820W        W 7836   7.797  28.230  28.688 -0.0944 -0.0055 -0.0067
64821W        W 7837   8.017   1.546   6.121 -0.0197  0.0465 -0.5126
64822W        W 7838  16.596  28.939   1.977 -0.2889 -0.0059  0.1932
64823W        W 7839  29.662  27.179   6.627  0.0174  0.0005  0.0697
64824W        W 7840  23.732  17.789   7.826  0.1205  0.2810  0.2080
64825W        W 7841   3.183  26.662   8.243  0.0894 -0.3142  0.1576
64826W        W 7842   9.856  24.347  28.458  0.1386  0.1319  0.1399
64827W        W 7843  17.434  16.174  23.567  0.1369 -0.0264 -0.0592
64828W        W 7844   4.762   3.671  28.786 -0.0090 -0.0784 -0.1784
64829W        W 7845   5.123   5.605  26.779 -0.3633  0.1313  0.0257
64830W        W 7846   8.214  32.242   6.301 -0.0114 -0.1694 -0.2174
64831W        W 7847  17.538  30.496   5.173  0.1225  0.0661 -0.4122
64832W        W 7848   9.567  24.239  25.564 -0.2225  0.0247  0.0779
64833W        W 7849  29.960  28.941   6.548  0.2919  0.1154 -0.1283
64834W        W 7850  32.210  14.752   0.914  0.1398 -0.0015  0.1342
64835W        W 7851  24.904  26.839  10.796 -0.1759  0.0199 -0.0008
64836W        W 7852   1.242  32.562   2.929  0.1960  0.0930 -0.1336
64837W        W 7853  31.191  29.527   9.768  0.0516  0.1201 -0.2417
64838W        W 7854   5.620  23.949   5.205 -0.1401 -0.0515 -0.2076
64839W        W 7855  18.953  14.904   6.289 -0.0102  0.1819  0.1692
64840W        W 7856   9.645  24.842  25.072 -0.3306  0.2041  0.1540
64841W        W 7857   5.506  31.845  20.265  0.1131 -0.0883  0.2346
64842W        W 7858   6.384  30.482  28.875  0.0384 -0.2980  0.1011
64843W        W 7859   0.040  21.414   8.025  0.0714  0.0372  0.1095
64844W        W 7860  24.134  19.687   0.857  0.0211  0.0596 -0.0089
64845W        W 7861   0.416   3.585  27.786  0.2478 -0.1813 -0.3400
64846W        W 7862   0.789  11.143  22.799 -0.0097 -0.1118  0.5380
64847W        W 7863  29.165  34.182   5.926 -0.0958 -0.1740 -0.0934
64848W        W 7864   0.085  32.248  19.029 -0.1887  0.1901  0.3450
64849W        W 7865  29.773  22.246   3.388  0.2523 -0.1807  0.0626
64850W        W 7866   6.964  27.621   4.033  0.2984 -0.2364 -0.2925
64851W        W 7867  31.123  23.432   5.187  0.0420 -0.0652  0.4717
64852W        W 7868  26.591  24.342   5.168 -0.0786  0.0218 -0.1012
64853W        W 7869   1.796  19.347   5.328  0.0408  0.2720 -0.0691
64854W        W 7870  17.849  32.900   4.747  0.3813  0.0080  0.0492
64855W        W 7871  25.562  34.001   9.035  0.0841 -0.2251  0.0779
64856W        W 7872  14.594  32.269   9.612 -0.0787 -0.3313  0.0021
64857W        W 7873   9.700  22.834  28.052  0.1554  0.0488 -0.0840
64858W        W 7874  32.991  23.174  29.305 -0.0836  0.3079  0.2489
64859W        W 7875   0.366  19.651  10.231  0.0825 -0.1277 -0.1104
64860W        W 7876  22.269   2.588  26.146  0.1698 -0.0374 -0.3413
64861W        W 7877  32.993   0.665   2.999 -0.1807  0.1727 -0.1212
64862W        W 7878  32.512  29.868   8.558  0.2162 -0.1448  0.1705
64863W        W 7879  29.299  28.412   6.356  0.0224  0.0218  0.0794
64864W        W 7880  10.455   3.668  10.318 -0.0613 -0.0168  0.1110
64865W        W 7881  28.117  22.523   4.310 -0.2816 -0.0536  0.0619
64866W        W 7882  18.742  17.834   7.472  0.1193 -0.6101 -0.0429
64867W        W 7883   9.099  30.280  20.666  0.2741  0.3091 -0.2123
64868W        W 7884   9.056  33.786   3.674  0.0680  0.1322 -0.1753
64869W        W 7885  11.078   5.221   0.375 -0.0170 -0.0115 -0.0579
64870W        W 7886   7.563  20.726  27.417  0.1334  0.0542  0.0683
64871W        W 7887  29.523   6.839  24.853  0.2777  0.1958 -0.0686
64872W        W 7888  27.467   6.771   9.829  0.2482 -0.1465 -0.1095
64873W        W 7889  14.117  13.404   6.107  0.0545 -0.0693 -0.1815
64874W        W 7890  29.542  19.390  24.881  0.3236 -0.2081 -0.2603
64875W        W 7891   4.351  11.709   0.580  0.1200  0.0625 -0.0694
64876W        W 7892   1.194  29.644   3.700 -0.2997 -0.0804  0.1208
64877W        W 7893  24.438  31.753  25.517 -0.1949  0.0646  0.2771
64878W        W 7894  31.445   8.543   5.918  0.3967 -0.2138 -0.0864
64879W        W 7895  34.743   2.643  23.316 -0.0217  0.0617  0.1128
64880W        W 7896  32.295   6.257   2.898 -0.0671 -0.1474 -0.3570
64881W        W 7897   1.598  30.705   7.575  0.0647  0.0714  0.1600
64882W        W 7898   9.176   7.406   8.708 -0.2029 -0.2072  0.3580
64883W        W 7899  32.015   1.495   4.547  0.1308  0.0825 -0.2356
64884W        W 7900  25.405   3.002   1.700  0.0153  0.0631 -0.1783
64885W        W 7901  33.026   4.341   1.104  0.0326 -0.1619 -0.1432
64886W        W 7902  26.204  27.772   8.817  0.1876 -0.1287  0.1300
64887W        W 7903   8.064  27.509  28.075  0.1589  0.1561  0.0466
64888W        W 7904  10.916  14.167   2.956  0.1498 -0.0370  0.0996
64889W        W 7905  30.284  34.392   7.238  0.2558 -0.2774  0.2033
64890W        W 7906  32.771  32.576   6.831  0.1692  0.0782  0.0713
64891W        W 7907  25.125  14.000   8.438  0.0305  0.1615  0.1257
64892W        W 7908  18.982  29.998   2.537  0.0936  0.0070  0.0095
64893W        W 7909   0.873   3.189   2.777  0.1651  0.0462  0.1236
64894W        W 7910   0.679  27.965   4.592  0.1898  0.0391 -0.2879
64895W        W 7911  31.713  30.803   5.350  0.0827 -0.3044  0.1551
64896W        W 7912  33.427   0.255  18.600  0.0588  0.1929  0.0142
64897W        W 7913   1.248  28.026   4.628 -0.2428 -0.0711 -0.1868
64898W        W 7914  16.641  30.897  27.016  0.2001  0.1038  0.1649
64899W        W 7915  30.104  10.429   3.776 -0.1274 -0.4564  0.0752
64900W        W 7916  11.202  27.338   5.054  0.1815  0.0902 -0.1033
64901W        W 7917  30.707  14.079   1.765 -0.0312 -0.0724  0.0877
64902W        W 7918  19.443  30.200   0.534  0.1663  0.1198 -0.1539
64903W        W 7919  18.251  14.737  25.326 -0.0518 -0.2423  0.1010
64904W        W 7920  17.777  28.202   4.555 -0.0532  0.1335 -0.2467
64905W        W 7921   9.084   7.260   0.118  0.1152 -0.4835 -0.1654
64906W        W 7922  32.902   1.975   8.023  0.0213  0.0326 -0.1505
64907W        W 7923  28.730  28.443   2.269  0.2225 -0.0857 -0.0571
64908W        W 7924  20.353  19.477  27.810  0.0851 -0.0288 -0.2761
64909W        W 7925  28.804  32.506  10.030 -0.0857  0.0654  0.0288
64910W        W 7926  17.595  29.006   8.305  0.0878  0.2324  0.0454
64911W        W 7927  16.333  29.032  25.026 -0.1294 -0.1814 -0.4796
64912W        W 7928  29.211  21.926  27.916  0.0859 -0.0860  0.1736
64913W        W 7929   6.259   0.331  26.044  0.0295  0.2627 -0.0546
64914W        W 7930  26.150   1.480  11.800  0.4533  0.1504 -0.1479
64915W        W 7931   8.328  30.920   2.419  0.0994  0.4364 -0.0394
64916W        W 7932  21.947  16.332   6.094 -0.0004 -0.0742  0.4505
64917W        W 7933   9.987   6.424  21.952  0.1031  0.1087  0.0635
64918W        W 7934  27.006  28.064   9.353  0.1337 -0.3559 -0.1813
64919W        W 7935   0.580  34.623   2.411 -0.0985 -0.1955  0.0412
64920W        W 7936  11.769  13.132  23.293  0.1997 -0.0076  0.2828
64921W        W 7937   9.265  31.482  26.781 -0.1953 -0.0225  0.6343
64922W        W 7938  14.214  12.221  28.790  0.1091  0.1461  0.1676
64923W        W 7939  20.541  25.115   8.923 -0.1065  0.2541  0.1470
64924W        W 7940   2.549  33.504   5.081  0.2676  0.3416 -0.0515
64925W        W 7941  10.408   1.988   6.068  0.1017 -0.2474 -0.0089
64926W        W 7942   3.271  34.288  18.947 -0.2227  0.2085 -0.0423
64927W        W 7943  31.455  25.979  10.306 -0.4541  0.1910 -0.1880
64928W        W 7944  19.519  26.002   4.318 -0.0547  0.1804 -0.0340
64929W        W 7945  18.245  31.780  22.602  0.1098  0.1694 -0.1819
64930W        W 7946  33.959  25.678  10.484  0.0449 -0.0743 -0.0144
64931W        W 7947  32.881  25.916   0.966 -0.1151 -0.2195 -0.3706
64932W        W 7948   0.826  30.236  19.314  0.3070  0.1642 -0.2524
64933W        W 7949   1.598  24.000   9.958  0.1067 -0.1419  0.1785
64934W        W 7950   2.274  15.310  28.540  0.0154  0.2166  0.1371
64935W        W 7951  11.885  15.865  18.567  0.1514 -0.0029 -0.0130
64936W        W 7952  12.709  20.887  27.195 -0.0819 -0.0560  0.0296
64937W        W 7953  25.524   8.561   8.427 -0.0377 -0.0007  0.2819
64938W        W 7954  25.773   5.046   0.568  0.0561  0.1791  0.2030
64939W        W 7955  20.220  14.774  20.833  0.1224  0.0378 -0.0259
64940W        W 7956  22.620  27.460   8.483 -0.1349  0.1009  0.0830
64941W        W 7957  14.464   7.731  21.566 -0.2979 -0.2607  0.3215
64942W        W 7958  32.965   4.659   7.520 -0.0907  0.1716  0.2740
64943W        W 7959  25.839  34.349  17.947 -0.2103 -0.1480 -0.1103
64944W        W 7960  27.297  34.482   9.229  0.4010 -0.2763 -0.0404
64945W        W 7961   2.710  26.236  28.953  0.1719 -0.0322  0.1497
64946W        W 7962   4.352  20.252   6.748  0.1967  0.4743 -0.2099
64947W        W 7963  27.752  29.269  24.956  0.0793  0.2157 -0.1173
64948W        W 7964  24.777   6.196   5.302 -0.0226 -0.0679 -0.2103
64949W        W 7965  12.311  21.760   7.541 -0.0961  0.0488  0.1154
64950W        W 7966  14.495   5.144   6.506  0.1061  0.0086 -0.0702
64951W        W 7967   6.914  16.476  25.690 -0.1812  0.0944 -0.1415
64952W        W 7968  28.294   8.275   8.711 -0.1199  0.0316 -0.0075
64953W        W 7969  31.193  34.624   9.837  0.0128 -0.1239 -0.0105
64954W        W 7970   0.168  30.458   6.581  0.1404  0.0121 -0.0324
64955W        W 7971  14.963  27.417   3.829  0.3329 -0.1966 -0.0775
64956W        W 7972   5.092  29.483   9.041  0.1639  0.3064  0.0099
64957W        W 7973   5.897  32.049   9.914  0.1115  0.1243  0.1339
64958W        W 7974  27.846   3.740   3.641 -0.3726  0.0976  0.3684
64959W        W 7975  19.684   3.572  26.864 -0.0653 -0.1458  0.0043
64960W        W 7976  28.460   1.015  26.858  0.2141  0.0315  0.0928
64961W        W 7977   1.368   2.801  26.536 -0.0038 -0.1797 -0.0940
64962W        W 7978  33.397  16.876  24.726 -0.0720 -0.1264 -0.0946
64963W        W 7979  32.554  27.080   3.694  0.1452 -0.0996 -0.1949
64964W        W 7980  10.193  31.098   1.943 -0.0637  0.0593  0.0209
64965W        W 7981   7.511  30.922   9.152  0.0098 -0.0519  0.0190
64966W        W 7982  34.229  27.331  25.908  0.0138  0.3761 -0.0938
64967W        W 7983  22.570  30.241  22.986  0.0063 -0.1270 -0.2565
64968W        W 7984  31.801  29.515  22.845  0.0876  0.2108 -0.3638
64969W        W 7985   0.270  20.992   7.836  0.0269  0.2839 -0.0743
64970W        W 7986  20.953   5.018   3.118 -0.2179 -0.1933 -0.1693
64971W        W 7987  25.908  25.664  11.312  0.2452  0.0958 -0.0766
64972W        W 7988  16.721  19.459   5.956  0.5067  0.1108 -0.0568
64973W        W 7989  32.319   9.261   8.589 -0.1364 -0.1469 -0.1145
64974W        W 7990   7.538  27.157   3.590 -0.1285 -0.0663  0.0889
64975W        W 7991   0.509  33.195  19.166 -0.1509 -0.0026 -0.0208
64976W        W 7992   7.404  10.834  25.147 -0.1330  0.1047 -0.0229
64977W        W 7993   6.995  25.559   6.597 -0.0104  0.3803  0.1857
64978W        W 7994  11.979  21.720   2.169  0.2136  0.4624 -0.2844
64979W        W 7995  22.417  21.186   5.097  0.3673  0.2338  0.2294
64980W        W 7996   6.478  28.374   5.761  0.1422 -0.1478 -0.0981
64981W        W 7997  27.799  33.580  10.039 -0.0967  0.0246  0.0241
64982W        W 7998  28.164  24.401   2.663 -0.4488  0.0731 -0.0383
64983W        W 7999   2.888   5.850   7.008  0.4606 -0.0199 -0.0799
64984W        W 8000   0.071  25.904   0.142  0.1648  0.0039  0.1098
64985W        W 8001  31.877  19.124   4.377 -0.1677 -0.0170  0.0114
64986W        W 8002  22.972  27.859   1.296 -0.2236  0.0186  0.1668
64987W        W 8003   1.948  19.174   9.171 -0.1712 -0.1474  0.0590
64988W        W 8004  29.924   5.126   5.496  0.1753 -0.1856  0.1236
64989W        W 8005  11.513  15.264  18.527 -0.0066 -0.0364 -0.0860
64990W        W 8006  33.433  26.842   0.101  0.1838 -0.1619 -0.2353
64991W        W 8007   1.489   7.301  10.139  0.0740  0.1438 -0.2303
64992W        W 8008   3.740   0.589  27.873  0.1580 -0.0487 -0.1446
64993W        W 8009  21.167  27.161   7.875 -0.2343  0.2339  0.0323
64994W        W 8010  13.870  27.201   6.175  0.1084 -0.0326 -0.1002
64995W        W 8011   4.903   0.321   0.428  0.2843 -0.2554  0.2804
64996W        W 8012   6.679  28.741  25.723 -0.2134 -0.0168 -0.1488
64997W        W 8013  33.157   7.449   4.506 -0.1502  0.0699 -0.1522
64998W        W 8014  14.055  19.192   2.030 -0.3542 -0.0203 -0.0132
64999W        W 8015   1.477  29.120   5.055  0.3776 -0.5588  0.2587
65000W        W 8016  12.951  26.218   6.223  0.2238 -0.2151  0.0909
65001W        W 8017  17.213  28.781   4.122  0.0961  0.0015  0.1938
65002W        W 8018  22.278   0.417   4.730  0.2347  0.0377 -0.0344
65003W        W 8019  10.307  11.775  16.779 -0.0092  0.0284 -0.2452
65004W        W 8020  17.365  12.488  26.673 -0.1962  0.0489 -0.0388
65005W        W 8021  34.616   5.691  10.766  0.1978 -0.1905 -0.2154
65006W        W 8022   8.120   5.837   7.600 -0.1131 -0.0497 -0.1558
65007W        W 8023  10.725   6.214  24.293 -0.0569  0.1736 -0.1958
65008W        W 8024   2.380  32.617   3.668 -0.1523 -0.0881  0.1709
65009W        W 8025  21.337  14.484   2.133  0.0767 -0.1665 -0.2066
65010W        W 8026   3.952   0.235  29.093  0.3310  0.1382  0.1023
65011W        W 8027   9.982  33.559   7.603 -0.6037 -0.2360 -0.2072
65012W        W 8028  27.210  20.253   8.664 -0.0079  0.1538  0.4319
65013W        W 8029  31.197  28.330  26.338 -0.0832  0.0122 -0.3331
65014W        W 8030  18.457  14.579  21.418  0.0722 -0.1669  0.2997
65015W        W 8031  18.641   0.532   9.683 -0.1719 -0.1780 -0.2727
65016W        W 8032  32.260  32.262  27.132  0.2094 -0.2460  0.4442
65017W        W 8033  32.981  31.148   2.753 -0.2097 -0.0228  0.0534
65018W        W 8034  28.936  12.561   4.374  0.1221  0.0390 -0.5631
65019W        W 8035  13.795  28.593   6.034  0.0630 -0.3549 -0.0426
65020W        W 8036   4.054  29.520   6.687 -0.1672  0.0665  0.3843
65021W        W 8037  21.183  24.746   8.419 -0.0407  0.2927 -0.2795
65022W        W 8038  34.630   2.312   5.385 -0.0340 -0.0359  0.0873
65023W        W 8039  21.756  29.311   5.874 -0.0988  0.0598 -0.0396
65024W        W 8040  11.257  21.678   5.292  0.2989 -0.2104 -0.1462
65025W        W 8041  32.031  27.835   0.705 -0.1176 -0.0625 -0.1996
65026W        W 8042  11.195   0.094   9.040  0.0880  0.0567 -0.0365
65027W        W 8043  28.624  10.735   4.564  0.0457 -0.1758 -0.1978
65028W        W 8044  26.402  30.298   2.520 -0.1211  0.2431 -0.1271
65029W        W 8045   1.380   0.171  16.112 -0.4589  0.3600 -0.2272
65030W        W 8046  31.009  22.981   3.316  0.0364  0.1906  0.0586
65031W        W 8047   1.318  23.045  28.831 -0.1069 -0.0944 -0.2558
65032W        W 8048   3.104   0.655   5.807  0.3101  0.0322 -0.1302
65033W        W 8049  13.686  12.829   6.714 -0.1952  0.0313 -0.0920
65034W        W 8050  26.301  21.959   9.993  0.0779 -0.0456 -0.0076
65035W        W 8051  21.846  18.570   8.711 -0.1024 -0.1016 -0.0631
65036W        W 8052  11.287  17.088   7.557 -0.1080  0.1646 -0.3079
65037W        W 8053   6.679  19.628   1.008  0.0712  0.1494  0.0508
65038W        W 8054   8.678  16.746  18.392  0.1530 -0.1171 -0.2809
65039W        W 8055   0.039  10.052   3.459  0.2779  0.0309  0.1342
65040W        W 8056   0.617  18.735   4.802 -0.0751 -0.4174  0.0162
65041W        W 8057   1.545  32.252   4.759  0.1888 -0.0291 -0.3083
65042W        W 8058  31.925  16.495   6.716  0.1763 -0.3706  0.1806
65043W        W 8059  17.587  28.061   3.673  0.0436 -0.2139 -0.0570
65044W        W 8060  28.945  25.256   2.746 -0.1847  0.2234 -0.0936
65045W        W 8061   6.709   1.471   6.624  0.2690  0.0303  0.1690
65046W        W 8062  33.843  31.768   3.874  0.3512  0.1305 -0.1522
65047W        W 8063   2.866  13.643   3.173 -0.1858  0.0967 -0.2808
65048W        W 8064   1.638   7.350  20.157 -0.1919  0.0273  0.3384
65049W        W 8065  31.727  17.530  16.910 -0.0120  0.3411 -0.1198
65050W        W 8066  16.157  12.312   4.462  0.0804 -0.0940 -0.1857
65051W        W 8067  31.441  16.081   0.749  0.0424  0.1781 -0.2873
65052W        W 8068  23.484  30.140  26.244 -0.0526 -0.3267  0.1925
65053W        W 8069   5.825  18.447   5.817 -0.1079 -0.0062 -0.5121
65054W        W 8070  13.045  20.842   5.587  0.0472  0.1352 -0.1386
65055W        W 8071  14.627   0.394  26.118  0.1267 -0.2404 -0.1395
65056W        W 8072  28.804  18.958   0.594 -0.3065 -0.1346 -0.0549
65057W        W 8073   2.783   6.730  28.580 -0.0333  0.0226 -0.3532
65058W        W 8074   9.044  28.786  22.592  0.1392 -0.1189  0.1061
65059W        W 8075   1.521  22.017  28.028  0.3004  0.0270 -0.1128
65060W        W 8076  34.287   1.460   8.721 -0.0895  0.0304 -0.1679
65061W        W 8077  30.674  32.180  22.564 -0.0647 -0.2173  0.2658
65062W        W 8078  19.178   7.779   2.919  0.2798  0.1183  0.0776
65063W        W 8079  33.527  29.169   6.567 -0.2620 -0.3264 -0.0481
65064W        W 8080  12.345  22.001   0.112  0.0087 -0.0437  0.0185
65065W        W 8081  11.399  34.654   6.490  0.0750  0.0376  0.4669
65066W        W 8082  15.667  28.415  20.112 -0.0014 -0.0869  0.1571
65067W        W 8083   8.003   7.617   8.136  0.0436 -0.4277 -0.0699
65068W        W 8084  16.031   0.200  22.935 -0.3349 -0.2658  0.1117
65069W        W 8085  34.153  17.038  23.267  0.1583  0.3600 -0.2153
65070W        W 8086  26.689   2.983   9.456 -0.1612  0.0170 -0.0940
65071W        W 8087  25.506  30.429   9.039 -0.1158 -0.1036 -0.0138
65072W        W 8088  10.612  25.134   2.530 -0.0204  0.0231  0.1769
65073W        W 8089  12.167  19.885  27.034 -0.1767  0.0781 -0.2171
65074W        W 8090   4.665  27.254   3.341  0.3005  0.1960 -0.1284
65075W        W 8091  11.688   0.812  28.344 -0.0880  0.1016 -0.0320
65076W        W 8092   0.146   7.923   5.435  0.0175 -0.1183  0.2131
65077W        W 8093  25.169   0.973  10.287  0.1302 -0.0982  0.1500
65078W        W 8094   6.227  21.419   6.589  0.1788  0.2274  0.2066
65079W        W 8095  31.023  20.929   2.704 -0.3350 -0.2745 -0.2316
65080W        W 8096   2.529  29.317   6.496 -0.2415  0.1157 -0.3385
65081W        W 8097   8.697  34.621   4.070  0.0798 -0.2611  0.4285
65082W        W 8098  32.588  20.126  28.541 -0.1101 -0.4555  0.0823
65083W        W 8099   0.375  16.079   9.045 -0.0231 -0.0174  0.0104
65084W        W 8100   6.453  32.465  18.926 -0.2737 -0.0532  0.0071
65085W        W 8101  26.604   2.119   1.925  0.1430 -0.2007 -0.2991
65086W        W 8102   5.461  31.573  17.021  0.4302  0.2213 -0.3744
65087W        W 8103   5.788   5.269   7.733  0.1849 -0.0939  0.1667
65088W        W 8104  34.190  26.825   4.061  0.0714  0.1882 -0.2131
65089W        W 8105  29.872  31.960   4.219 -0.0281 -0.1912 -0.2698
65090W        W 8106  15.385  22.437   5.401 -0.1733 -0.2825  0.0024
65091W        W 8107  28.040  32.761   7.977 -0.0721  0.1193  0.2677
65092W        W 8108   3.099  27.348   3.326  0.2223 -0.0979 -0.1625
65093W        W 8109  11.927  23.959  13.874  0.1038 -0.1653  0.2776
65094W        W 8110   2.274  22.222   9.540  0.2536 -0.0238  0.4375
65095W        W 8111   9.265  19.590   3.412  0.4760 -0.2976  0.2037
65096W        W 8112  31.843   1.256  11.123 -0.2436  0.1349 -0.2922
65097W        W 8113   6.670  30.468   9.703  0.1635 -0.0717  0.1122
65098W        W 8114   4.041  31.799  29.096 -0.0897  0.1635 -0.0056
65099W        W 8115  25.611  19.071  19.369  0.1957  0.0351 -0.2221
65100W        W 8116   3.249  29.085   8.177 -0.0223 -0.1203 -0.1182
65101W        W 8117   2.660  31.461  20.522  0.1374  0.3333 -0.0241
65102W        W 8118  17.056   3.942  10.072 -0.1491 -0.0775 -0.0861
65103W        W 8119   3.193  18.571   6.000  0.0925  0.5990  0.1176
65104W        W 8120  14.391   0.662   2.496 -0.2299 -0.2789 -0.0956
65105W        W 8121  12.310  27.716   2.998 -0.4095 -0.1912  0.1400
65106W        W 8122   9.333   2.496   8.586 -0.2591 -0.0735  0.0656
65107W        W 8123   5.377  20.137   6.185 -0.2388  0.0702 -0.0724
65108W        W 8124  25.513  24.545  10.378 -0.0559 -0.2708  0.2257
65109W        W 8125  29.459  24.993   2.720  0.0180  0.0578  0.0050
65110W        W 8126  26.300  26.428   8.629  0.0320  0.1243  0.0439
65111W        W 8127   3.192  19.836   3.645 -0.0086  0.0718  0.0408
65112W        W 8128  16.818  17.587   4.166  0.1471  0.2279 -0.1402
65113W        W 8129   1.364  24.907   9.381  0.2444  0.1306  0.0924
65114W        W 8130  17.728   0.513   2.971 -0.1714  0.3215  0.2080
65115W        W 8131   1.497  27.705   4.968  0.2150  0.0842 -0.1666
65116W        W 8132   2.353  10.243  25.353 -0.1447  0.0221  0.1333
65117W        W 8133  21.385   5.794   9.454 -0.1625  0.1823  0.1076
65118W        W 8134  28.646  25.071  22.612  0.2687 -0.3301  0.0818
65119W        W 8135   5.406   4.826  28.629 -0.0838  0.0603 -0.0850
65120W        W 8136   4.176  30.014  27.643  0.1726 -0.0969  0.1527
65121W        W 8137  10.790   1.909   7.661  0.1154  0.0592  0.0917
65122W        W 8138  30.355  33.176  11.878 -0.0460  0.2860 -0.3530
65123W        W 8139   4.014  23.541   9.250  0.0205  0.0350 -0.0139
65124W        W 8140   3.203   1.498  22.247  0.0100  0.0860  0.0586
65125W        W 8141  16.897  30.022   5.134 -0.1363  0.0295  0.2665
65126W        W 8142   5.070  32.880   5.011 -0.0431 -0.0547  0.0864
65127W        W 8143  17.159  33.494  19.996 -0.1376  0.2796 -0.3054
65128W        W 8144   1.054   1.968   1.645 -0.0575 -0.2063  0.0792
65129W        W 8145   4.481   2.483   8.989  0.1438  0.3128  0.1383
65130W        W 8146   3.866   7.061  26.152  0.1580  0.1653 -0.1600
65131W        W 8147  17.280  31.941   7.659 -0.3853 -0.0213 -0.1804
65132W        W 8148   0.796  27.457  28.316  0.2453  0.0882  0.2205
65133W        W 8149   0.055   9.768   0.266  0.0078 -0.1859 -0.1558
65134W        W 8150  32.772  15.303   0.159  0.1255  0.0206 -0.0666
65135W        W 8151   3.031  15.419  27.315  0.2768 -0.1085 -0.2071
65136W        W 8152  23.629   1.066   0.842 -0.1900 -0.0805  0.0437
65137W        W 8153   7.842   4.457   3.043  0.0493 -0.1192  0.1330
65138W        W 8154  10.832  26.676  23.957 -0.2182  0.2834 -0.1323
65139W        W 8155  24.314   3.077   5.190  0.1643  0.1105 -0.0337
65140W        W 8156   5.203   1.073   7.297 -0.0298  0.1079 -0.0970
65141W        W 8157  13.015   1.577  14.233 -0.1576  0.2749  0.0206
65142W        W 8158   2.716   3.203   3.481  0.1281  0.0277  0.3708
65143W        W 8159   5.352  32.854   1.662 -0.1756  0.0303  0.0457
65144W        W 8160  29.645  31.251   3.353 -0.2808 -0.1513  0.1406
65145W        W 8161   6.720  23.908   9.012 -0.1105  0.2416 -0.0137
65146W        W 8162  22.017  13.745   1.027 -0.2501 -0.2214 -0.0911
65147W        W 8163  33.454  19.300  14.218  0.1706  0.0365  0.2714
65148W        W 8164   5.387  28.577  19.698  0.1801 -0.3506 -0.0826
65149W        W 8165   0.686  19.204  28.195  0.1839 -0.2049 -0.0691
65150W        W 8166  11.337  30.501   5.755 -0.1568  0.0055  0.1802
65151W        W 8167  32.151   0.266  20.936 -0.2105  0.2586 -0.0319
65152W        W 8168  15.445  32.349  27.705 -0.0623  0.0169 -0.0872
65153W        W 8169  10.468  17.151   8.213  0.0087 -0.4761 -0.0701
65154W        W 8170  14.536  29.710   4.868 -0.2078  0.0467  0.0080
65155W        W 8171   5.377   2.331   1.168 -0.0925 -0.1420  0.2963
65156W        W 8172  31.794  27.691   3.497  0.1927 -0.2884 -0.1582
65157W        W 8173   6.702  16.636   4.016  0.3011  0.1799 -0.2781
65158W        W 8174  10.748  21.897  25.526 -0.0667  0.2479  0.0064
65159W        W 8175  16.271   2.830   7.442 -0.4621  0.1902  0.1331
65160W        W 8176   1.939  16.851   3.604  0.3703  0.1201 -0.2277
65161W        W 8177   6.648  31.987   9.339 -0.1332  0.1931 -0.0872
65162W        W 8178  15.412  11.889  27.272  0.1152  0.0464 -0.1901
65163W        W 8179  17.914  23.068  26.293 -0.0607 -0.2799  0.0094
65164W        W 8180  20.924  18.861   8.788 -0.1385  0.1047  0.2444
65165W        W 8181  29.870  14.535   0.770  0.0347 -0.3669 -0.0840
65166W        W 8182  16.903   0.925   6.183  0.1569 -0.1604  0.0043
65167W        W 8183  30.363  28.455   5.737  0.1616  0.0081  0.2543
65168W        W 8184  25.302  33.604  20.147 -0.0641 -0.1606 -0.2506
65169W        W 8185   3.631  14.826  27.648  0.2005  0.1611 -0.1547
65170W        W 8186  31.094  25.417   1.753 -0.0456  0.0545  0.2478
65171W        W 8187  25.010  16.631   3.508  0.0559 -0.1836 -0.1804
65172W        W 8188   8.725   4.935   1.353  0.0497  0.0245 -0.0569
65173W        W 8189  32.201  22.774   2.234 -0.0262  0.2273 -0.1162
65174W        W 8190  11.758   3.536   8.207 -0.0387  0.0066 -0.1630
65175W        W 8191  10.132  32.691  26.247 -0.2545  0.3173  0.0546
65176W        W 8192  11.585   4.575  24.378 -0.3434 -0.2811  0.0619
65177W        W 8193  22.384  24.145  27.526  0.3437  0.2332 -0.5406
65178W        W 8194   7.050  17.426   8.239  0.1852  0.2830  0.2170
65179W        W 8195  28.105  34.122  10.741  0.2163  0.0641 -0.0538
65180W        W 8196   6.638  32.734   4.648  0.1346 -0.2586  0.2734
65181W        W 8197  18.497  23.312   9.575  0.1813  0.1798 -0.0559
65182W        W 8198   0.198  24.336   2.162  0.1903  0.0379 -0.0198
65183W        W 8199   8.904  29.773   1.734 -0.0709  0.1721  0.0511
65184W        W 8200   5.897  26.341   8.544  0.2638  0.1050  0.0099
65185W        W 8201  10.655  28.957  24.292  0.0652 -0.1499 -0.0636
65186W        W 8202  13.584  29.703  26.867  0.0385  0.0715 -0.2249
65187W        W 8203  11.982   7.158   5.873 -0.4000  0.2454  0.0683
65188W        W 8204  15.318   2.733   7.537 -0.4965  0.2485 -0.3503
65189W        W 8205  20.171  33.929   7.566 -0.1379 -0.0644  0.2634
65190W        W 8206  32.887  29.768  24.581 -0.4548 -0.0318 -0.1899
65191W        W 8207  25.683  33.237   0.768  0.2564  0.1675 -0.3643
65192W        W 8208  13.519  21.695   6.232 -0.0440 -0.0347  0.2979
65193W        W 8209   8.976   2.941  10.470  0.1180  0.1873  0.0434
65194W        W 8210   8.329  27.200   8.305 -0.0201 -0.2812 -0.0731
65195W        W 8211  29.143  30.797   8.460 -0.0246  0.1073  0.2396
65196W        W 8212   2.626  25.547  27.942 -0.3930  0.1944 -0.1169
65197W        W 8213  19.029   3.210   8.039 -0.1025 -0.0298  0.2386
65198W        W 8214   0.075  28.962   6.123  0.0685 -0.1002 -0.3585
65199W        W 8215  30.796  33.028   3.790 -0.1266 -0.3349 -0.2300
65200W        W 8216  29.772  30.084  11.432  0.2773  0.1007  0.0912
65201W        W 8217  32.524  21.550  10.203 -0.3903  0.0958 -0.1728
65202W        W 8218  33.794  15.923  21.708  0.0642  0.1577 -0.0619
65203W        W 8219  13.981   1.668   1.647 -0.1670 -0.5010 -0.0149
65204W        W 8220  20.146  34.614   3.321 -0.0025  0.1815  0.0159
65205W        W 8221  26.667  33.078   8.127 -0.0638  0.0514 -0.0654
65206W        W 8222  20.779   0.721   2.471 -0.2304  0.0745 -0.0285
65207W        W 8223   9.075   2.686   2.117  0.3105 -0.0181  0.1762
65208W        W 8224  34.146  16.703   9.931  0.0680  0.1376  0.3126
65209W        W 8225   8.818  32.763   1.802 -0.2908  0.0009  0.1395
65210W        W 8226   4.194   6.334   3.465 -0.1283  0.0872  0.1832
65211W        W 8227   3.779  21.664   7.963 -0.0445  0.1490 -0.2258
65212W        W 8228  26.805  21.401   7.860  0.2027  0.1714  0.0465
65213W        W 8229  32.659   1.231  10.323  0.0663 -0.0932 -0.1122
65214W        W 8230   6.320   6.774   6.132 -0.0303  0.1551 -0.3080
65215W        W 8231   9.962  15.764   8.657  0.2050 -0.4436  0.1299
65216W        W 8232   7.807   3.212   1.955 -0.0818  0.2061 -0.2283
65217W        W 8233   9.682  27.352   7.220  0.1570 -0.0540  0.1379
65218W        W 8234  30.309   2.665   5.605 -0.0808 -0.0497  0.2762
65219W        W 8235  32.372  18.338  26.132 -0.0055 -0.2313 -0.3482
65220W        W 8236  33.380  26.747  14.728  0.2002  0.0609  0.1939
65221W        W 8237   4.315  11.504   3.995  0.2168  0.0211  0.1385
65222W        W 8238   6.362   8.261   4.649  0.1300  0.0499  0.0599
65223W        W 8239  28.274  33.362  10.043 -0.0774  0.3256 -0.0134
65224W        W 8240  29.509  16.569   2.684  0.1551 -0.0379 -0.0395
65225W        W 8241  15.833  19.500  28.844  0.1986  0.0077  0.5450
65226W        W 8242  12.635  24.851  17.537 -0.0896  0.1561  0.2608
65227W        W 8243   6.851  17.627   6.035 -0.0269 -0.3569 -0.0562
65228W        W 8244  31.741   1.776   6.855 -0.0029 -0.3539 -0.3787
65229W        W 8245   8.258  27.473  28.624 -0.2413 -0.1097 -0.1132
65230W        W 8246  32.342  17.241  26.677  0.1556  0.1386 -0.1051
65231W        W 8247   5.961  34.066  23.539  0.6748 -0.0503  0.2121
65232W        W 8248   8.924  24.208   2.791  0.2527 -0.0560 -0.2079
65233W        W 8249   7.373  16.419   3.285 -0.0909  0.0765  0.1359
65234W        W 8250  34.045  23.507   8.476 -0.2518  0.2512  0.1314
65235W        W 8251  25.048   7.942   8.295  0.2974  0.2337 -0.1046
65236W        W 8252   1.955  29.084  28.349  0.1178  0.3420  0.2550
65237W        W 8253  22.942   7.805   4.227 -0.3117 -0.1741  0.2146
65238W        W 8254  17.402   6.414  23.064 -0.1835  0.0911  0.0524
65239W        W 8255   4.348  29.829   4.286 -0.0319 -0.1558  0.0309
65240W        W 8256   1.041  17.569  21.750 -0.0362  0.1376  0.1752
65241W        W 8257   1.620  21.364   9.483 -0.1971 -0.0484  0.2346
65242W        W 8258  22.362  13.084   7.408 -0.0263  0.0171 -0.0020
65243W        W 8259  30.633  17.567  21.555  0.1106  0.0694  0.1115
65244W        W 8260   7.390  30.810   0.278  0.0060 -0.1324 -0.2176
65245W        W 8261  15.261  30.033   8.685  0.0702 -0.3383 -0.0142
65246W        W 8262  26.087   2.456   8.360 -0.2743  0.1079  0.2267
65247W        W 8263   9.175  26.711   7.620  0.0787 -0.1635  0.0209
65248W        W 8264  16.483  10.358  18.482  0.0021 -0.3472 -0.1266
65249W        W 8265   9.638   7.724  25.634  0.2245 -0.2428 -0.1650
65250W        W 8266   0.132   4.807   6.188  0.0324  0.0333  0.1327
65251W        W 8267   0.394   4.111  11.017  0.1171  0.2219  0.3939
65252W        W 8268  30.808  23.448  24.336  0.0279  0.0577  0.2055
65253W        W 8269  30.092   4.470   8.344  0.0354 -0.1897 -0.1579
65254W        W 8270  10.857  31.076   9.513 -0.0848  0.0512  0.1038
65255W        W 8271  18.776  21.735  28.212 -0.3618  0.1808 -0.0178
65256W        W 8272  28.491  34.465   1.394 -0.3695 -0.0065 -0.2916
65257W        W 8273  33.477  20.657   6.051  0.1778  0.0729  0.2411
65258W        W 8274  26.506  32.419  19.972 -0.1425  0.1146  0.1175
65259W        W 8275   3.395  20.996   1.225 -0.2622  0.0891 -0.1668
65260W        W 8276  11.430  30.206   3.723  0.0521  0.3799  0.0103
65261W        W 8277  14.471  23.471  22.424  0.0499  0.0862 -0.2839
65262W        W 8278   7.086  22.008   0.758  0.1339  0.1699  0.0818
65263W        W 8279   1.922  26.597   8.329 -0.1198 -0.2292 -0.0489
65264W        W 8280   2.420  17.370  27.555 -0.0527  0.3261 -0.0235
65265W        W 8281  20.643  22.764   7.490 -0.1912  0.1391  0.1041
65266W        W 8282   0.226  28.568  23.156  0.0747  0.2406  0.0374
65267W        W 8283  21.119   8.693   6.203  0.0754  0.2443  0.0921
65268W        W 8284  17.870  21.009   3.687  0.3208 -0.1381  0.1906
65269W        W 8285  30.303  24.842   6.737  0.0010  0.2403 -0.0484
65270W        W 8286  11.708  23.503   1.341  0.3667  0.0941 -0.1073
65271W        W 8287  23.559   2.230   5.602  0.0273 -0.0683  0.1225
65272W        W 8288  31.141   3.630   8.118 -0.2176 -0.3753 -0.0226
65273W        W 8289   7.679  16.730  23.665  0.1577  0.4281 -0.0835
65274W        W 8290  28.862  16.923   3.655 -0.0344  0.0943  0.1969
65275W        W 8291   1.111  25.260   7.061  0.6430  0.1295 -0.3751
65276W        W 8292  16.446   7.724  27.117  0.0253  0.0706 -0.0110
65277W        W 8293  28.398   1.651  21.542 -0.2401  0.1095 -0.0467
65278W        W 8294  24.122  25.699  10.073  0.1821  0.2262  0.0549
65279W        W 8295  25.981  27.292   3.831  0.1115 -0.0305  0.0362
65280W        W 8296  30.728   3.998  28.430  0.4205  0.0065 -0.0164
65281W        W 8297  30.108  27.126   5.916  0.0598  0.2749 -0.0247
65282W        W 8298  10.994  21.956   4.097 -0.2159  0.0617 -0.0079
65283W        W 8299  13.026  29.747   7.763 -0.2395  0.2147 -0.1561
65284W        W 8300   3.072   8.854   8.857  0.1407  0.1537  0.2435
65285W        W 8301  27.016   3.099  16.773  0.0999 -0.1957  0.4178
65286W        W 8302   2.223  29.976   0.086 -0.0997 -0.0142  0.0582
65287W        W 8303  13.411  17.539  25.056 -0.0874 -0.0694  0.0874
65288W        W 8304  15.250  26.823   8.990 -0.0455  0.0493 -0.1768
65289W        W 8305  30.108  25.753   6.704  0.2212  0.1842  0.3617
65290W        W 8306   5.794   6.697   9.227  0.1002 -0.2069  0.0748
65291W        W 8307  34.055   7.259   2.043 -0.3650 -0.2686  0.1723
65292W        W 8308  22.478  19.469   7.101 -0.0903 -0.0812 -0.2445
65293W        W 8309   4.507  27.548  27.266 -0.2192  0.2577 -0.2783
65294W        W 8310  33.771  32.314  26.032  0.1298  0.0979 -0.2662
65295W        W 8311  32.611  10.585   0.500  0.0129 -0.0375 -0.4630
65296W        W 8312  29.190   5.337  11.375 -0.1691  0.0449 -0.1246
65297W        W 8313  32.429   7.111  10.441  0.1873 -0.0860 -0.1561
65298W        W 8314  27.805   7.825  11.262  0.1217  0.1007 -0.0265
65299W        W 8315  14.481  25.466   5.446  0.1843  0.1804 -0.2726
65300W        W 8316  19.323   5.997   9.934  0.1066  0.0423  0.0368
65301W        W 8317   0.601  30.808   8.835 -0.0477 -0.1517  0.0784
65302W        W 8318  13.432  27.062   6.999 -0.0320 -0.2260  0.0253
65303W        W 8319   4.159  27.849   6.327 -0.0572 -0.1971  0.3045
65304W        W 8320  31.504  30.096   6.384  0.3076 -0.0261  0.3369
65305W        W 8321   5.878  12.830   6.593  0.0945 -0.0647 -0.2304
65306W        W 8322  13.026   1.685   4.500 -0.1137 -0.1756 -0.1065
65307W        W 8323   2.247  29.413   4.987 -0.2269  0.1581 -0.1267
65308W        W 8324  27.908  34.705   9.850 -0.0863 -0.1112 -0.1655
65309W        W 8325   1.498  33.659  10.058  0.0235  0.1975  0.0107
65310W        W 8326  32.810  18.388  24.224 -0.3055  0.0428 -0.3244
65311W        W 8327   6.209  23.070   1.447  0.0867  0.1611  0.3032
65312W        W 8328  13.171  31.536   1.606 -0.1215 -0.0991  0.1304
65313W        W 8329  26.343   5.199  27.364 -0.2272  0.3586  0.3084
65314W        W 8330  28.225  23.391   3.056 -0.2038 -0.0845  0.3197
65315W        W 8331   7.605   6.149   3.022 -0.0005 -0.2295  0.0313
65316W        W 8332   7.524   3.450  24.635 -0.1494 -0.1982  0.3388
65317W        W 8333  28.758  27.507   9.941  0.2082 -0.0769 -0.0101
65318W        W 8334  28.477   3.182   6.379 -0.2430 -0.1749  0.1385
65319W        W 8335  23.153  33.515   3.876 -0.0374 -0.0181 -0.0482
65320W        W 8336  34.305  26.449  10.019  0.0846  0.3837 -0.0788
65321W        W 8337  12.309  28.700   2.830  0.2358 -0.0202  0.0892
65322W        W 8338  26.624  22.757   8.776 -0.1526  0.1080  0.0074
65323W        W 8339  33.924  14.870   9.008  0.1201 -0.1685  0.2811
65324W        W 8340  21.342   4.997  29.308 -0.0965 -0.1234  0.1246
65325W        W 8341  34.496  11.002  22.820 -0.0096  0.0303  0.0530
65326W        W 8342  29.503  29.582   8.899 -0.0190 -0.1905  0.3940
65327W        W 8343  23.293  20.976  24.509  0.0689  0.0778 -0.0960
65328W        W 8344  31.022  28.976  25.335 -0.1407  0.1447  0.0347
65329W        W 8345   6.646   9.100  25.581 -0.0266  0.2665 -0.5465
65330W        W 8346  11.921  30.131   9.077 -0.0714 -0.3758  0.0210
65331W        W 8347  33.086  30.091   9.853 -0.0287  0.0935 -0.0690
65332W        W 8348  10.230  17.421  25.064  0.0452 -0.0177 -0.0783
65333W        W 8349   2.807  13.396   0.904  0.5254  0.1544  0.0940
65334W        W 8350   4.009  29.763   3.598 -0.1646 -0.1662 -0.2343
65335W        W 8351   0.439  15.380   2.043  0.2631  0.1397  0.0991
65336W        W 8352  20.384   6.829   3.282  0.1904  0.1517 -0.0965
65337W        W 8353  13.792   1.153   1.553 -0.2245  0.1938  0.1304
65338W        W 8354  11.509  11.513   3.219 -0.0098  0.0799 -0.2882
65339W        W 8355  21.038  20.415   4.651 -0.1549  0.0759 -0.0462
65340W        W 8356   3.684  28.222   8.535  0.4086 -0.2471 -0.1105
65341W        W 8357   3.059  30.505   2.694  0.1728  0.2174  0.0218
65342W        W 8358  28.972  26.521  25.491 -0.3994  0.0228 -0.0758
65343W        W 8359  18.694  11.816  19.189  0.0104 -0.0446 -0.0147
65344W        W 8360  32.296   7.219   0.408  0.4024  0.2280  0.1025
65345W        W 8361  33.129  34.339  27.124 -0.1153 -0.0012 -0.1392
65346W        W 8362  18.561   4.431  15.696 -0.2873 -0.0552 -0.0644
65347W        W 8363  32.476  29.997   4.753  0.0082  0.0599 -0.1650
65348W        W 8364  32.435  15.669  10.067 -0.0513 -0.1909 -0.0064
65349W        W 8365   1.049  20.526   5.475  0.1749 -0.0603 -0.3820
65350W        W 8366   5.294  21.066   3.116 -0.2048 -0.1514  0.4074
65351W        W 8367  23.623  25.996   2.581  0.0044 -0.1274  0.0697
65352W        W 8368  28.446  25.224  10.776  0.0959 -0.2153 -0.2840
65353W        W 8369  17.626   0.697  28.264  0.2189  0.2068 -0.2196
65354W        W 8370   3.552   4.497   6.230 -0.0311  0.2773 -0.1422
65355W        W 8371   4.130  11.302  25.028  0.2188  0.2429 -0.4378
65356W        W 8372  28.839   4.076   7.213 -0.3520 -0.0967  0.1127
65357W        W 8373  10.512   4.010   8.671 -0.3911 -0.1424 -0.1663
65358W        W 8374  31.951  17.021   1.496 -0.1142 -0.0898  0.0265
65359W        W 8375  26.132  30.591   7.396 -0.0106 -0.4418 -0.0340
65360W        W 8376   6.779  33.883   8.073 -0.1427  0.0413  0.0748
65361W        W 8377  26.377   3.607   6.467 -0.0049  0.2554  0.0170
65362W        W 8378   5.248  14.046   5.204 -0.2521  0.1654  0.3983
65363W        W 8379   6.147   2.957  26.000 -0.1327  0.1648  0.2662
65364W        W 8380  32.495   3.247   9.304  0.1689 -0.1445 -0.0681
65365W        W 8381   2.017  34.033   4.358 -0.2239 -0.1175 -0.0225
65366W        W 8382  22.136  26.718  26.356 -0.1835 -0.1807 -0.3837
65367W        W 8383   8.759  30.876  29.066  0.3204  0.1345 -0.0750
65368W        W 8384  33.397   5.610  22.612  0.1099  0.0549 -0.2934
65369W        W 8385  33.088   8.794  10.359 -0.1492  0.1000 -0.0418
65370W        W 8386   7.277   0.185  26.179 -0.1076  0.2078  0.0425
65371W        W 8387  32.082  32.160  11.338  0.0862 -0.0603  0.3322
65372W        W 8388   6.966   7.122  29.157 -0.0905 -0.2562  0.1294
65373W        W 8389   1.428  23.357  14.939  0.1233 -0.2747 -0.3046
65374W        W 8390  28.463  34.361   8.699 -0.0310  0.2316  0.1059
65375W        W 8391  12.507  24.662  23.100  0.0887 -0.1900  0.0806
65376W        W 8392  33.309  24.749   3.392 -0.4708  0.1854  0.1717
65377W        W 8393  24.825   3.046   2.796  0.1488 -0.1653 -0.0402
65378W        W 8394  10.649  31.746   5.661 -0.0238  0.0366  0.1612
65379W        W 8395   3.069  32.151  22.229  0.1569  0.1050  0.1784
65380W        W 8396  17.157   6.380   0.529 -0.0521 -0.2384 -0.0354
65381W        W 8397  30.692  26.460  10.477  0.2663 -0.1355 -0.1898
65382W        W 8398  12.858  22.977  14.323 -0.1262  0.0203 -0.1572
65383W        W 8399  16.168   8.380   6.326  0.1274  0.1300 -0.0671
65384W        W 8400  28.693  25.551   9.602  0.5143 -0.0508  0.1967
65385W        W 8401   1.067   1.198   3.802 -0.0571 -0.0145  0.1975
65386W        W 8402  20.314   4.682  28.719 -0.1518  0.1335  0.3189
65387W        W 8403  26.659  20.433  26.785  0.2092  0.1398 -0.2187
65388W        W 8404   9.969  23.111   5.550  0.0494 -0.0321 -0.1338
65389W        W 8405  33.417  25.611   0.272 -0.0968  0.0098 -0.5277
65390W        W 8406  34.120   0.869   9.513 -0.2343 -0.0296  0.0606
65391W        W 8407  32.844   2.100   3.118 -0.0223 -0.0446  0.1727
65392W        W 8408  23.236   6.651   2.065  0.0245 -0.0997  0.0767
65393W        W 8409   7.361  34.073   9.104 -0.2230 -0.0694 -0.2738
65394W        W 8410  11.742  20.152  17.503  0.1496  0.1894  0.1820
65395W        W 8411  20.084  12.887   2.992  0.1450  0.0053 -0.2715
65396W        W 8412  28.337   5.543  10.113 -0.1733  0.0513 -0.0869
65397W        W 8413  30.920  25.911   3.993  0.0759 -0.1750  0.1826
65398W        W 8414   5.961  28.662   1.638 -0.4323  0.2468  0.0733
65399W        W 8415  26.045   1.197   2.890 -0.0019 -0.2080 -0.1386
65400W        W 8416   4.506   6.594   2.169  0.1042  0.2327  0.1268
65401W        W 8417  30.254   0.535   2.979  0.2119 -0.0927  0.1055
65402W        W 8418  32.558  10.621   1.871  0.0690  0.1915 -0.1706
65403W        W 8419  23.375   8.397   7.844  0.0396 -0.2619  0.0792
65404W        W 8420  29.559   7.077   8.623 -0.1069 -0.1376 -0.0426
65405W        W 8421  19.795  15.618  22.544  0.0110 -0.0110 -0.2185
65406W        W 8422  28.840  13.036   0.227  0.2642  0.0049  0.0762
65407W        W 8423   8.083  27.350  21.145  0.0169  0.2017 -0.2403
65408W        W 8424  15.963  25.780   8.623  0.2857  0.0103  0.1954
65409W        W 8425  14.381  17.047   3.514 -0.1573 -0.1017  0.2931
65410W        W 8426   2.501  31.930   2.476  0.1791 -0.0939 -0.1235
65411W        W 8427  11.679   6.910   9.614  0.0587 -0.1560 -0.0708
65412W        W 8428   4.126  27.133   9.604  0.0813  0.1251  0.1287
65413W        W 8429  20.597  28.545  26.624  0.1503  0.2530 -0.0729
65414W        W 8430  33.476  26.812   6.950 -0.2803  0.0903  0.0313
65415W        W 8431  19.278   8.174   5.354 -0.3470  0.2016  0.1598
65416W        W 8432  18.081  18.769   5.878  0.0590  0.1581  0.3851
65417W        W 8433  31.876  29.157   7.137  0.1515  0.1394  0.0625
65418W        W 8434  24.926  29.485  27.001  0.0737  0.2108 -0.1865
65419W        W 8435  16.657  32.809   2.760 -0.1291  0.0732 -0.0121
65420W        W 8436  27.197  23.740   4.750 -0.0506  0.2927  0.3455
65421W        W 8437  10.221  25.959   7.105 -0.0198 -0.0088  0.0620
65422W        W 8438  13.116  29.429   9.771  0.0878  0.0980 -0.0127
65423W        W 8439  14.047   6.147   8.674 -0.3390  0.0880  0.0950
65424W        W 8440  10.003   3.609  29.228  0.0309 -0.1330  0.1555
65425W        W 8441   0.551  19.121   2.689 -0.1727 -0.0375  0.1059
65426W        W 8442  33.445  26.609   3.556  0.0814 -0.1079  0.1177
65427W        W 8443  12.752  14.368   4.862  0.1516  0.1752 -0.1094
65428W        W 8444  14.228  15.737  21.349 -0.3387  0.2357  0.1812
65429W        W 8445  10.138  10.298  28.456  0.1030  0.2686  0.1044
65430W        W 8446  11.093  19.142  26.388  0.2757 -0.3560 -0.3450
65431W        W 8447  22.457  32.528   4.189 -0.5058 -0.0035 -0.1439
65432W        W 8448  24.793  34.577   5.163  0.0852 -0.1636 -0.0670
65433W        W 8449   3.762   7.645  24.504  0.1406 -0.1088  0.0732
65434W        W 8450  15.479  21.671  14.716  0.1683 -0.0293 -0.1819
65435W        W 8451  33.614  26.884   8.037  0.0636 -0.3156  0.0057
65436W        W 8452   3.197  21.331   1.528  0.2462 -0.1588  0.0369
65437W        W 8453   0.153  26.287  27.741  0.0085  0.1412  0.3118
65438W        W 8454   6.149   7.683   9.467  0.1468 -0.0207 -0.0018
65439W        W 8455   4.502  31.495  28.557  0.1837 -0.4369  0.2139
65440W        W 8456  12.442   3.891  15.864 -0.0876 -0.1534  0.3464
65441W        W 8457  22.468  32.678   7.387  0.0240 -0.1579 -0.0293
65442W        W 8458   9.205  27.087   2.563  0.0616 -0.1472  0.1252
65443W        W 8459   2.042  34.697  10.309  0.2687 -0.1605 -0.2373
65444W        W 8460   5.510  16.257  28.818  0.0922 -0.4078  0.1036
65445W        W 8461   1.030   5.550   9.328 -0.2708  0.0531  0.0286
65446W        W 8462  30.833   3.136   3.771 -0.2294  0.1869  0.1127
65447W        W 8463  32.114  26.039   4.690 -0.0736 -0.0334  0.2985
65448W        W 8464   7.168  20.064   8.496 -0.1250  0.2938 -0.2768
65449W        W 8465  20.970   8.246  26.516 -0.0448 -0.2625 -0.1545
65450W        W 8466  12.337  26.816   9.052 -0.0013 -0.0928  0.0908
65451W        W 8467   6.348  33.400   8.380  0.2844  0.0290 -0.0590
65452W        W 8468   6.131  21.525   0.641  0.1814 -0.1169  0.0584
65453W        W 8469  34.705  26.986   6.449 -0.0407  0.3286 -0.0879
65454W        W 8470  31.654  24.546   0.318 -0.1243 -0.0957  0.1055
65455W        W 8471   7.172  26.916  23.249 -0.0285 -0.2055  0.0985
65456W        W 8472  25.003  20.446   5.380 -0.0010 -0.1982 -0.5898
65457W        W 8473  32.252  33.242   7.096  0.0210  0.2548  0.0421
65458W        W 8474  27.253  14.084   0.424 -0.2268 -0.0422  0.0549
65459W        W 8475  21.906   6.000  28.054  0.4700  0.1547 -0.1203
65460W        W 8476   0.161  34.085   4.879 -0.1334 -0.2754 -0.2786
65461W        W 8477  32.476   8.700   5.294  0.2284  0.2520  0.3097
65462W        W 8478   4.640  30.481   8.767  0.0065  0.0023 -0.1945
65463W        W 8479   9.174  24.399  18.031  0.1061 -0.2431 -0.1777
65464W        W 8480   0.898  24.121   9.285  0.0458  0.2383  0.1678
65465W        W 8481  33.600   5.987  27.903 -0.1434  0.0241  0.1994
65466W        W 8482  32.035  25.768  15.655 -0.0960 -0.2049 -0.0321
65467W        W 8483  10.773  33.276  10.213  0.0702 -0.2033  0.0282
65468W        W 8484   6.266   6.663   8.481 -0.1840  0.1970  0.2227
65469W        W 8485  31.537   4.359  10.113  0.1064 -0.1555  0.2362
65470W        W 8486   9.915  32.288   5.494  0.2061  0.0553  0.0946
65471W        W 8487   9.685   7.358   6.903 -0.2676 -0.1507  0.0620
65472W        W 8488  14.145  32.943   0.145 -0.2737  0.2162  0.2205
65473W        W 8489   7.670   6.433   4.555 -0.1900 -0.2243  0.0458
65474W        W 8490  16.127  23.569   2.484  0.4840 -0.0168 -0.2014
65475W        W 8491  29.849  30.719   9.800  0.1421 -0.1527 -0.3467
65476W        W 8492   7.060  33.247   2.579  0.1688 -0.0609 -0.2854
65477W        W 8493   2.277  11.711   0.503  0.1245 -0.0076  0.3420
65478W        W 8494  33.192  17.041   4.152 -0.1004  0.0192  0.1697
65479W        W 8495  17.625   6.408   0.825  0.0068  0.2171 -0.2396
65480W        W 8496  27.745  32.530   3.186 -0.1385  0.2236 -0.0908
65481W        W 8497  24.805   4.907   0.912 -0.1226 -0.1201 -0.1402
65482W        W 8498   8.047  12.764   1.501  0.0432  0.1552 -0.0393
65483W        W 8499  34.715  27.268  27.007  0.1215  0.2300 -0.1146
65484W        W 8500  24.129   1.332  27.640  0.0938 -0.1022 -0.1049
65485W        W 8501  25.582   2.919   7.714 -0.0566  0.0696  0.3703
65486W        W 8502   7.466  33.634  22.030  0.0522 -0.1820  0.0352
65487W        W 8503  31.060  23.956   9.290  0.0838  0.0511  0.2327
65488W        W 8504  27.759   2.092   6.120  0.2489 -0.2438 -0.1059
65489W        W 8505  32.336   7.342  27.090  0.0366 -0.2077 -0.0928
65490W        W 8506  27.244  20.800   9.183  0.0321 -0.2574  0.0818
65491W        W 8507  10.167   7.749   5.540 -0.1637 -0.3393  0.1431
65492W        W 8508  19.390   6.406   2.407 -0.2437  0.1030 -0.1131
65493W        W 8509  10.729  31.865  16.955  0.2402  0.1329 -0.1029
65494W        W 8510   6.832  15.756  27.756  0.1176 -0.5199 -0.0434
65495W        W 8511   6.542  25.158  13.610  0.0162 -0.1443  0.0014
65496W        W 8512  28.961  26.645   2.326  0.0786  0.4272 -0.1161
65497W        W 8513   6.589  11.524   2.435 -0.1772  0.2368  0.0894
65498W        W 8514   9.557  33.480   2.236 -0.1434 -0.0810  0.2738
65499W        W 8515   9.045  20.985  27.416 -0.0099  0.1489 -0.1196
65500W        W 8516  15.117  14.801   2.630  0.3657 -0.0299  0.1016
65501W        W 8517  18.154   0.255   5.239 -0.1133  0.3181 -0.1625
65502W        W 8518   4.410  25.405   1.564 -0.1846  0.0977 -0.0451
65503W        W 8519  33.500  34.444   7.274 -0.1949 -0.1250 -0.1248
65504W        W 8520  29.004   6.271  26.396 -0.0353 -0.0198  0.0387
65505W        W 8521   3.668  26.082  26.491  0.1586 -0.1912  0.2474
65506W        W 8522  30.610  31.046   4.784  0.0490  0.0212  0.2799
65507W        W 8523   0.651  29.054  21.151  0.4459  0.0211  0.0398
65508W        W 8524  30.462  25.575  28.113  0.0113 -0.0676 -0.0797
65509W        W 8525  28.163   1.234  19.970 -0.2277 -0.1949 -0.0156
65510W        W 8526   7.143   7.247   5.088  0.0854  0.0287  0.3891
65511W        W 8527   2.854   5.105   8.487 -0.0022 -0.3451 -0.0660
65512W        W 8528  31.868  25.267  27.946  0.1724 -0.1915 -0.1708
65513W        W 8529   1.886   3.726   3.226  0.5274 -0.2971  0.2221
65514W        W 8530  33.754   5.197   9.664  0.4232 -0.0158  0.4303
65515W        W 8531   4.134   9.154   2.813  0.0594 -0.3383  0.3324
65516W        W 8532  31.509   2.198   6.431  0.0180  0.0454  0.0132
65517W        W 8533   5.572  23.306  27.224  0.2018  0.2954 -0.0569
65518W        W 8534   2.116   3.997   5.990  0.0543  0.0877 -0.0622
65519W        W 8535   0.007  28.774   8.433 -0.1688 -0.2628  0.1697
65520W        W 8536   2.332  34.714   3.215  0.2579  0.1629 -0.0599
65521W        W 8537   5.374  11.022   9.283 -0.2021 -0.0890  0.1145
65522W        W 8538  10.190  33.685   3.919  0.1829  0.0062  0.0836
65523W        W 8539  11.425  22.553   2.982  0.1417 -0.0757  0.0446
65524W        W 8540  23.446  13.648   4.524 -0.0569 -0.1269  0.1825
65525W        W 8541  23.647  19.097   0.448  0.1349  0.4183  0.1006
65526W        W 8542   5.824   7.860  28.695  0.0829 -0.1202  0.1221
65527W        W 8543  26.019  29.261   6.332 -0.1938  0.2191  0.1143
65528W        W 8544  32.406  33.131   1.723 -0.0065 -0.1827 -0.2705
65529W        W 8545  32.046  31.970  25.447 -0.3381  0.1660 -0.3160
65530W        W 8546  11.478  30.055   5.976  0.1199  0.2088  0.1705
65531W        W 8547  33.202  29.918  27.583  0.0144  0.0710 -0.0644
65532W        W 8548   3.647   1.133  28.688 -0.2110  0.1432 -0.0876
65533W        W 8549  29.206  30.563   9.641  0.1742 -0.1254 -0.1709
65534W        W 8550  27.612  15.229   6.141  0.0753  0.0789  0.0733
65535W        W 8551   3.508  32.602   7.975  0.0076  0.1070 -0.3269
65536W        W 8552   3.566  30.338  20.798 -0.0497  0.0558  0.1897
65537W        W 8553  14.116   1.370  17.541 -0.2558 -0.0390  0.0571
65538W        W 8554  32.113  27.170  27.915  0.0624 -0.1165  0.2125
65539W        W 8555   9.462  15.363  20.437  0.0580  0.0445 -0.0010
65540W        W 8556   0.507   7.309   0.990 -0.0233  0.0257 -0.0469
65541W        W 8557  29.311   4.085  26.351 -0.1152 -0.3062  0.0436
65542W        W 8558   1.183  33.796  15.232 -0.0992  0.1045 -0.1122
65543W        W 8559  28.873  33.623   0.257 -0.0215  0.0968  0.0087
65544W        W 8560   8.111   3.969  24.473  0.1737  0.0617 -0.0197
65545W        W 8561  34.253   4.643   6.099  0.1868 -0.3017  0.1687
65546W        W 8562  33.953   4.771  17.889 -0.0242 -0.1714  0.1792
65547W        W 8563  29.316  24.749  16.736 -0.1394 -0.3369 -0.0457
65548W        W 8564   5.472  31.092  27.211  0.1297  0.1680  0.0739
65549W        W 8565  19.154  14.304   3.343  0.3007 -0.1383  0.2166
65550W        W 8566   2.819  23.774  23.208 -0.3042 -0.1984 -0.2519
65551W        W 8567  34.299   7.827  24.311  0.1192  0.0555 -0.2608
65552W        W 8568   7.917   8.544  24.186  0.0908  0.0709 -0.2540
65553W        W 8569  19.156   8.177  29.145  0.1036  0.3712  0.0653
65554W        W 8570  12.433  21.806  22.099 -0.0903 -0.0461  0.0040
65555W        W 8571  12.666  15.592  25.286  0.2387 -0.0901  0.1129
65556W        W 8572  10.660  27.641  20.843 -0.1748 -0.0374  0.1226
65557W        W 8573   8.933   2.363   7.869  0.4529  0.0343  0.3198
65558W        W 8574   5.504   0.915  18.832 -0.0252  0.0445 -0.2052
65559W        W 8575   8.966  31.821   6.324 -0.1121 -0.2027 -0.0101
65560W        W 8576  31.358   9.133  22.818  0.2949 -0.1570  0.0715
65561W        W 8577  25.288   2.307   1.471  0.1361  0.2094  0.0878
65562W        W 8578  10.582  25.762  19.030  0.0358 -0.0621  0.2898
65563W        W 8579  32.595  28.935  21.589 -0.2466 -0.1637 -0.1600
65564W        W 8580   2.095   6.830   7.553  0.0443 -0.5058 -0.1394
65565W        W 8581   5.928  34.492   2.919 -0.0790  0.1674  0.1012
65566W        W 8582  23.872  29.095   1.185  0.2281  0.0550  0.1091
65567W        W 8583  24.206  20.430   3.667  0.0784  0.1633 -0.3119
65568W        W 8584  16.925  33.231   8.528 -0.0560 -0.1192  0.1789
65569W        W 8585   9.983  34.239   0.559  0.1463  0.0098 -0.1829
65570W        W 8586  32.202   0.214   5.958 -0.0449 -0.6388 -0.4299
65571W        W 8587   9.067   7.281   9.729 -0.1369 -0.0539  0.1554
65572W        W 8588  30.501   4.555   6.126  0.1090  0.1154 -0.0744
65573W        W 8589   3.602  29.301  16.134 -0.0498  0.0928  0.0100
65574W        W 8590  29.667  31.206   6.315  0.2767  0.0984  0.0266
65575W        W 8591   9.871   6.968   2.150  0.2546  0.2129  0.0172
65576W        W 8592  13.934  21.220  21.605 -0.1224  0.0525 -0.2090
65577W        W 8593   0.567   0.205  21.267  0.0185 -0.0206  0.1051
65578W        W 8594  19.069  15.560  22.417 -0.3985  0.3048 -0.0770
65579W        W 8595   1.742   2.238   6.619 -0.0762  0.1936 -0.2097
65580W        W 8596   8.235  14.343  21.592 -0.0150 -0.2192  0.2216
65581W        W 8597  26.039  29.742  25.947  0.2949 -0.0763 -0.3200
65582W        W 8598  22.923  33.062  21.431  0.1414 -0.2716  0.3570
65583W        W 8599  17.516   6.748   0.407 -0.0995 -0.1379  0.0895
65584W        W 8600  32.808  13.164   3.206 -0.0028 -0.0542 -0.0131
65585W        W 8601  27.784  24.050  20.121  0.1430  0.3773  0.1332
65586W        W 8602   6.907   4.510   1.034 -0.1062  0.1636 -0.2010
65587W        W 8603  27.208  33.394   2.997 -0.2709 -0.0534 -0.1289
65588W        W 8604  25.800  28.307   3.663 -0.1640 -0.0981  0.0060
65589W        W 8605   8.680  32.062  27.565  0.2593 -0.0854 -0.0548
65590W        W 8606  31.178  28.676  21.720 -0.0611  0.2329  0.1420
65591W        W 8607   2.580   0.867  29.273 -0.0542  0.0834  0.1151
65592W        W 8608  20.739  28.011   7.816 -0.0736  0.0942 -0.2419
65593W        W 8609  30.151  23.570  28.277  0.1786 -0.0910 -0.0088
65594W        W 8610   1.262  34.290   7.129  0.0656 -0.3438 -0.2749
65595W        W 8611  19.490  21.557  23.748 -0.3074 -0.1491 -0.1448
65596W        W 8612  31.621  26.215  28.009 -0.0658 -0.2631  0.0850
65597W        W 8613  17.953  22.446  19.285  0.2579  0.1118  0.2106
65598W        W 8614  32.827  30.330   1.571  0.1906 -0.3310  0.3160
65599W        W 8615  29.799  31.939   3.423 -0.0609  0.0886  0.2169
65600W        W 8616  30.961  29.120   8.723  0.2462 -0.0735  0.1948
65601W        W 8617   7.155   8.059   5.565 -0.1192  0.2311  0.2266
65602W        W 8618   5.408   7.497   8.687 -0.0596  0.3037  0.3112
65603W        W 8619  26.174  22.859   4.337 -0.0867 -0.1141 -0.0321
65604W        W 8620  23.992  10.875   5.885 -0.1247  0.0189 -0.0412
65605W        W 8621  34.026  27.998   9.111  0.2784 -0.3428 -0.3072
65606W        W 8622  20.381  30.872   3.445  0.4105 -0.2532 -0.0081
65607W        W 8623   0.148  32.275   3.094 -0.1814 -0.2401  0.3972
65608W        W 8624   7.002  29.453  25.036 -0.3213 -0.0293  0.0500
65609W        W 8625   5.208   7.593  17.049 -0.0729  0.4302 -0.2002
65610W        W 8626   8.241  26.072   6.276 -0.1429  0.0152 -0.0597
65611W        W 8627  31.986   4.603   8.774 -0.0929 -0.1629 -0.3771
65612W        W 8628   3.958   5.950   3.272  0.2622 -0.0659  0.2573
65613W        W 8629  33.880  20.832  24.884  0.2886 -0.1613  0.1957
65614W        W 8630  30.273  21.396  10.098 -0.0827 -0.0317  0.2249
65615W        W 8631   9.458   2.361  20.055 -0.3514  0.1826 -0.1502
65616W        W 8632   6.093   4.318   0.595 -0.1939  0.1690  0.0909
65617W        W 8633  23.163   6.426  28.790  0.2370  0.1343 -0.1523
65618W        W 8634  12.427   5.852   8.783 -0.0305  0.0437 -0.2046
65619W        W 8635  17.245  32.913  22.302  0.3352 -0.1209  0.3832
65620W        W 8636  10.297   3.997  21.168 -0.0908  0.1223  0.0958
65621W        W 8637  24.597   7.976   8.742  0.0048  0.1626  0.1246
65622W        W 8638  13.931   3.681   0.539  0.2125  0.3863 -0.0840
65623W        W 8639  11.549  14.724  22.986 -0.1901 -0.1980 -0.0344
65624W        W 8640  18.927   2.724  24.734 -0.2327 -0.0450  0.1318
65625W        W 8641  17.323  34.494   0.337 -0.3419 -0.0307  0.0582
65626W        W 8642  15.732   3.735  25.865  0.1379 -0.0985 -0.2898
65627W        W 8643   0.097   8.210   5.893 -0.0606 -0.0948 -0.1685
65628W        W 8644  16.728  22.194  27.160 -0.3432 -0.1901  0.1206
65629W        W 8645  18.451  31.883   0.904  0.2333 -0.1994 -0.0447
65630W        W 8646  29.904  33.234  18.974 -0.4593  0.0510 -0.0868
65631W        W 8647   8.376  23.985   4.929  0.0535 -0.0512  0.0140
65632W        W 8648   1.129   7.419   8.963 -0.0666 -0.0383  0.1657
65633W        W 8649  12.135  32.297   1.752 -0.2086 -0.1601 -0.1448
65634W        W 8650   9.314  32.411   8.745  0.2479  0.1644 -0.2237
65635W        W 8651   6.787   4.018  21.658 -0.3840  0.2282 -0.0442
65636W        W 8652   2.997  14.234  28.190 -0.0183 -0.0214 -0.0750
65637W        W 8653  10.191   8.629   2.713 -0.1739  0.0458 -0.0657
65638W        W 8654  30.022  32.549   0.330  0.1078 -0.2769  0.1476
65639W        W 8655  13.681  12.125   3.314  0.2748  0.1010 -0.3816
65640W        W 8656   5.753  29.884  25.976 -0.2945 -0.0409 -0.1208
65641W        W 8657  13.086  12.295  20.260 -0.4101 -0.1302 -0.0114
65642W        W 8658   5.501  27.090  23.450 -0.1186 -0.0257 -0.2611
65643W        W 8659  34.345   6.251  16.303  0.3085  0.0634 -0.1782
65644W        W 8660  22.807  14.268  28.159  0.1258  0.1390 -0.0994
65645W        W 8661   0.975  32.932   6.850  0.1881  0.1450  0.0424
65646W        W 8662  31.610  23.147  28.004 -0.0203 -0.3132 -0.2939
65647W        W 8663  32.459   4.294   8.184  0.0797  0.0686 -0.0620
65648W        W 8664   2.888  28.647  17.875 -0.1372  0.0476  0.1329
65649W        W 8665  24.595  18.746  18.024  0.3802  0.2004 -0.0349
65650W        W 8666   1.666  18.392  28.829  0.0696 -0.0379 -0.5168
65651W        W 8667   2.971  11.896   2.885 -0.2800  0.1183 -0.1889
65652W        W 8668  15.632  32.162   5.112  0.2230 -0.3668 -0.2064
65653W        W 8669  21.973  25.010  29.157  0.0168 -0.0872 -0.0225
65654W        W 8670  25.048  28.479  24.691  0.0573 -0.2064  0.3897
65655W        W 8671  12.900  30.007   0.389 -0.1073 -0.3253  0.3575
65656W        W 8672  24.971  14.457   8.237  0.0421 -0.2208 -0.0636
65657W        W 8673  13.515  30.835  27.609 -0.1938 -0.3057  0.0803
65658W        W 8674  27.508   0.158  27.710  0.0822  0.0637 -0.2051
65659W        W 8675  26.360  28.428   9.479  0.0983  0.3229 -0.1672
65660W        W 8676   4.460   4.869  23.332 -0.0080 -0.1344  0.0532
65661W        W 8677   2.759  29.770   6.505 -0.2083 -0.0328 -0.0491
65662W        W 8678   1.963  23.894   4.490 -0.3300 -0.0309 -0.1609
65663W        W 8679   7.746  34.777  21.179  0.0272  0.0880  0.1519
65664W        W 8680  34.578  23.420   8.652 -0.2954  0.0421  0.0118
65665W        W 8681  22.491  27.445  27.571  0.4714 -0.0680  0.1741
65666W        W 8682  28.709  31.398   6.453  0.2329  0.0163  0.0599
65667W        W 8683  14.677  17.822  14.002 -0.0886  0.2752  0.3140
65668W        W 8684  24.090  23.799   2.911 -0.1950  0.2376 -0.0259
65669W        W 8685   8.824   0.958   2.903  0.3528  0.2087  0.1481
65670W        W 8686   3.185   3.532   6.376 -0.1623 -0.1501  0.0369
65671W        W 8687  34.775   5.837  24.252  0.0174 -0.2587 -0.0100
65672W        W 8688   7.114  21.337  24.225 -0.4169 -0.1479 -0.0043
65673W        W 8689  31.278   0.826  23.456 -0.1234  0.0344 -0.0190
65674W        W 8690  28.330  29.602  20.207 -0.1228 -0.1343  0.1078
65675W        W 8691  33.452   5.436   2.718 -0.2954 -0.0211 -0.2760
65676W        W 8692  23.725  23.476  28.366 -0.1579  0.0825  0.1487
65677W        W 8693  28.989  13.505  10.019  0.0269  0.0262 -0.4812
65678W        W 8694  24.294  34.395   1.899  0.2747 -0.3050 -0.1826
65679W        W 8695   3.934  18.121   6.371 -0.1754 -0.2922 -0.1479
65680W        W 8696   2.031   3.027  20.654  0.2114 -0.0223  0.2394
65681W        W 8697   8.757   4.707  28.592  0.0059  0.0574 -0.2206
65682W        W 8698  32.626   4.377   7.234 -0.1281  0.0412 -0.1015
65683W        W 8699  34.661  23.115  25.454  0.0420 -0.1368 -0.1229
65684W        W 8700   8.210  31.477   1.205  0.1023  0.0265  0.0988
65685W        W 8701   0.343  26.241  10.380 -0.0996  0.1688  0.0345
65686W        W 8702  20.577  23.347  28.596  0.0592  0.0467  0.0157
65687W        W 8703   3.506  28.418   5.876 -0.0617 -0.1768 -0.1059
65688W        W 8704   0.139  13.951  23.297  0.1098  0.1300  0.2124
65689W        W 8705  13.220   3.879  27.419 -0.0695 -0.0866  0.0885
65690W        W 8706  32.880   8.015   3.248 -0.1090 -0.1265 -0.1600
65691W        W 8707  25.797   0.733  20.492 -0.0611  0.0851 -0.0453
65692W        W 8708   0.055   4.116  27.230  0.1417  0.0748  0.0727
65693W        W 8709  12.519  29.415   4.649  0.0532 -0.0270 -0.2265
65694W        W 8710  33.549   3.247  19.704  0.1707 -0.0884  0.1318
65695W        W 8711   9.103  10.514  17.164 -0.2073  0.0438  0.3022
65696W        W 8712  11.657  26.400   8.246  0.1033 -0.0916 -0.1707
65697W        W 8713  30.725  29.124  18.589 -0.1117 -0.2449  0.3559
65698W        W 8714  32.570   4.143   9.151 -0.1445  0.1994 -0.2609
65699W        W 8715  18.970  11.344   1.523 -0.2099 -0.1773  0.0302
65700W        W 8716  24.825   2.867  24.655 -0.2316 -0.3316 -0.3288
65701W        W 8717  13.371  13.936  19.518  0.3253 -0.1862 -0.0771
65702W        W 8718  26.536  23.214  11.192  0.3223  0.3525 -0.0384
65703W        W 8719  13.430   2.196  10.448  0.0103  0.0913 -0.4575
65704W        W 8720  12.660  27.569   9.334 -0.0895  0.3064  0.1239
65705W        W 8721   9.217  20.920  22.278 -0.3243  0.3043  0.0966
65706W        W 8722   6.373  19.441   4.976 -0.0069  0.0158 -0.4269
65707W        W 8723   4.604  21.058   5.476  0.0221 -0.0510  0.0741
65708W        W 8724  11.605  33.932  29.023 -0.1436  0.0200 -0.1171
65709W        W 8725  16.344  11.269  27.809  0.0835  0.0765  0.0354
65710W        W 8726  33.829  31.851  26.266  0.1134 -0.2434 -0.0818
65711W        W 8727   9.781  34.340  27.169 -0.0464 -0.1672 -0.0236
65712W        W 8728  34.770   8.170  10.251  0.1452 -0.1838 -0.0767
65713W        W 8729   7.236  25.049   8.641 -0.0492  0.1624 -0.2260
65714W        W 8730   1.409   8.048  24.044 -0.1675 -0.0233  0.0205
65715W        W 8731  13.391  17.435   4.991  0.1408  0.2858  0.2928
65716W        W 8732   4.953   3.203   3.247  0.6518 -0.3831 -0.1477
65717W        W 8733  30.837  20.513   4.439 -0.4852 -0.0091  0.0284
65718W        W 8734  17.038  29.819   4.649  0.3048 -0.0711  0.0169
65719W        W 8735  34.156  34.240  23.247 -0.0425  0.1050 -0.1483
65720W        W 8736   1.400   6.839   6.556 -0.0146  0.1401  0.0452
65721W        W 8737  16.109   5.403   9.885 -0.2511 -0.1199 -0.1593
65722W        W 8738  33.791   9.271  20.911 -0.1544  0.1837 -0.1409
65723W        W 8739   7.434  26.854   6.289 -0.1835 -0.1570  0.1500
65724W        W 8740  28.483  19.429  16.559  0.4320 -0.0081  0.0329
65725W        W 8741   9.069   5.564   4.988  0.3059 -0.2367 -0.1336
65726W        W 8742  17.756  21.055   2.648 -0.1821 -0.0217  0.1403
65727W        W 8743   8.062  30.880   8.507  0.1752 -0.2390 -0.5048
65728W        W 8744  12.483  31.639   9.114 -0.1049 -0.0987 -0.0122
65729W        W 8745   9.907  10.912  26.916 -0.3035  0.0603 -0.1920
65730W        W 8746  12.737  20.191   3.276  0.0323 -0.2466  0.2778
65731W        W 8747  27.282  31.306   9.220 -0.0534 -0.0608  0.3408
65732W        W 8748  28.255  23.474  18.354 -0.1919 -0.0687 -0.2451
65733W        W 8749  25.305  24.181  28.253  0.2058 -0.1541 -0.1812
65734W        W 8750  15.614  33.267   7.432  0.2331  0.0689 -0.2342
65735W        W 8751  23.213  15.219   7.616 -0.0838  0.0931 -0.0635
65736W        W 8752   7.981   6.964   4.486 -0.1464  0.1047  0.2192
65737W        W 8753   3.957  29.469   1.304 -0.2564  0.0381 -0.1020
65738W        W 8754  30.210   2.775   4.119  0.1465  0.3253 -0.1691
65739W        W 8755  12.986  13.787   3.306 -0.0615 -0.0890 -0.1351
65740W        W 8756  14.148  21.060  27.686  0.1822  0.0091  0.1809
65741W        W 8757  27.605   7.259  26.819 -0.1861  0.1632 -0.0969
65742W        W 8758  10.367  33.861   7.659 -0.3483 -0.1261  0.1691
65743W        W 8759   3.412  13.868   3.015 -0.1062  0.2735 -0.0160
65744W        W 8760  14.410  23.652  26.163 -0.2793  0.3137  0.1243
65745W        W 8761   7.651  26.112   4.184  0.1840 -0.0102 -0.4115
65746W        W 8762   1.018  29.854   4.615  0.0543 -0.0119  0.2472
65747W        W 8763   0.334  20.560   4.825 -0.0384 -0.2436  0.2205
65748W        W 8764   6.697  24.366   5.882  0.1219 -0.3028  0.1261
65749W        W 8765   2.962   3.233   6.812 -0.2243 -0.0103 -0.1647
65750W        W 8766  29.630  26.624  22.154  0.2358  0.1205 -0.2943
65751W        W 8767  29.801  27.640   0.183  0.2441  0.2753 -0.2103
65752W        W 8768   1.919  17.484   7.293  0.3946 -0.4529 -0.0151
65753W        W 8769   9.478   9.212   7.659  0.2006 -0.0822  0.1026
65754W        W 8770   7.024  30.715   4.750  0.1107  0.1254  0.0717
65755W        W 8771  10.116  18.580   2.898  0.4282  0.0865  0.0410
65756W        W 8772  20.702  28.224  28.833 -0.0158  0.1415 -0.1828
65757W        W 8773  29.775  18.146   9.592 -0.0428  0.0743  0.0406
65758W        W 8774  18.110  10.263  20.363  0.0335 -0.0468 -0.0172
65759W        W 8775  26.516   6.313   3.160  0.0201  0.0062 -0.3182
65760W        W 8776  27.728   4.667   2.248  0.0112 -0.1338  0.0300
65761W        W 8777   4.363   5.795   5.464 -0.5378 -0.2019  0.1543
65762W        W 8778  26.371   7.509   8.580  0.0663  0.0330  0.2474
65763W        W 8779  27.198  26.834  27.480  0.0771 -0.1475  0.0376
65764W        W 8780  25.669  13.694  18.102 -0.0099 -0.0556 -0.1599
65765W        W 8781  10.557  12.870  24.624  0.0996 -0.0127  0.0030
65766W        W 8782  12.082   1.583   8.127 -0.0813 -0.0053  0.3034
65767W        W 8783  31.211  32.987   4.049 -0.0313 -0.0092 -0.0693
65768W        W 8784  24.906  10.917  21.107 -0.0092 -0.0094 -0.0215
65769W        W 8785   4.828   5.273   3.015  0.0698  0.2435  0.2904
65770W        W 8786  14.355   6.280  27.848  0.0901 -0.0630 -0.0996
65771W        W 8787  30.965   0.391  18.771  0.0574  0.1020 -0.1271
65772W        W 8788  31.795  26.458   8.345  0.0312 -0.0385 -0.1275
65773W        W 8789  34.728  32.090   9.213  0.0227  0.3130  0.0377
65774W        W 8790  25.189   6.726  29.116 -0.0394  0.0168 -0.2480
65775W        W 8791  14.007  14.401  21.757  0.2047 -0.1645  0.2595
65776W        W 8792   4.876   6.075   3.640 -0.2030 -0.1455 -0.0119
65777W        W 8793  11.948   4.729   7.061  0.3454  0.0631  0.3025
65778W        W 8794   1.393  32.107   3.841  0.1547 -0.3139  0.1109
65779W        W 8795  17.120  22.377  28.884  0.0679  0.0896 -0.1047
65780W        W 8796  16.066   2.604   4.515  0.1595  0.2494  0.0270
65781W        W 8797  26.789  29.294   9.122 -0.1847 -0.0843  0.2933
65782W        W 8798   4.760  28.669  10.629  0.3367 -0.2111  0.2560
65783W        W 8799  22.946  28.837   9.714  0.2330  0.3861 -0.1491
65784W        W 8800  15.538  11.998  15.388  0.1960  0.0921 -0.1659
65785W        W 8801  26.594  18.882   6.694  0.1104 -0.1162 -0.2067
65786W        W 8802   5.783   1.857   8.159 -0.2206 -0.0203 -0.0818
65787W        W 8803  31.833  29.234  22.250 -0.1678  0.3451  0.0288
65788W        W 8804   1.907  12.969  26.885  0.0932  0.1896 -0.1379
65789W        W 8805   4.292   7.494   4.647  0.2748 -0.2609  0.2130
65790W        W 8806   2.764   7.048   9.535  0.1054 -0.0879  0.2446
65791W        W 8807   1.899  30.931  25.145  0.3111  0.1121  0.2856
65792W        W 8808  25.326  25.114  26.898 -0.0738  0.3158 -0.2640
65793W        W 8809  12.650  17.700   3.547  0.2506  0.1933 -0.1925
65794W        W 8810  10.345   7.729   8.512  0.1442  0.1624 -0.1358
65795W        W 8811  34.116  26.097  28.581  0.0105 -0.1306  0.3265
65796W        W 8812   2.074  31.540   2.793  0.1035 -0.0360 -0.1420
65797W        W 8813  15.707   8.838   5.495 -0.0344  0.0022  0.3429
65798W        W 8814  32.925  20.333  10.440  0.1701  0.2271  0.0710
65799W        W 8815  27.922  34.611  28.179 -0.0372  0.3358 -0.1677
65800W        W 8816  13.618  28.534   7.607  0.1569 -0.0533 -0.2958
65801W        W 8817  30.620   3.667  15.508  0.1040  0.3138 -0.2225
65802W        W 8818  23.195  24.555   2.463  0.3346 -0.1571 -0.0894
65803W        W 8819   6.639  15.385   8.258 -0.2975  0.3531  0.1228
65804W        W 8820   7.440  14.211   9.122  0.1152  0.3158  0.1820
65805W        W 8821  31.373  27.308   2.455 -0.0244  0.3344  0.1686
65806W        W 8822   5.206   7.862   6.639 -0.1528  0.4496  0.1221
65807W        W 8823  32.150   3.517   2.743  0.1874 -0.1020  0.0310
65808W        W 8824  14.086  27.434  28.729  0.0055 -0.0162  0.1932
65809W        W 8825   2.273  20.543  24.226 -0.2254 -0.4941  0.0844
65810W        W 8826  30.723  17.964  27.016  0.1804  0.0349  0.1906
65811W        W 8827   8.520  33.203   9.903 -0.0256 -0.1357 -0.0984
65812W        W 8828  25.887  34.164  10.470  0.0584  0.3134  0.1945
65813W        W 8829   1.987   3.465   1.450 -0.0169 -0.0721  0.0967
65814W        W 8830  21.470   8.108   4.130  0.1881  0.0145 -0.2037
65815W        W 8831  12.252  29.031   3.178 -0.0764 -0.2835 -0.3029
65816W        W 8832  26.923  28.802  11.662 -0.0434  0.2201 -0.4295
65817W        W 8833   6.646   8.671  28.004 -0.1360 -0.0440  0.1784
65818W        W 8834  20.933  33.723   0.755  0.2626 -0.0091  0.1782
65819W        W 8835   5.658  27.858  22.392 -0.0764 -0.2521 -0.2754
65820W        W 8836  30.087   0.987   7.781 -0.1868 -0.0378 -0.2150
65821W        W 8837  31.343  31.774  10.670  0.1067 -0.2356  0.0422
65822W        W 8838  33.239  25.560  23.425 -0.2431  0.1348  0.1273
65823W        W 8839   0.700  32.522   9.639 -0.1286  0.1515  0.1368
65824W        W 8840  12.118   2.570  27.406 -0.0277 -0.0269  0.1393
65825W        W 8841  32.440   9.417   6.125 -0.1126 -0.2568  0.2036
65826W        W 8842  18.436  13.634  24.465 -0.4689 -0.0632  0.1923
65827W        W 8843  29.157  27.116   6.732 -0.0715  0.0571  0.0745
65828W        W 8844  33.995   8.921   9.236 -0.1855  0.1748  0.1348
65829W        W 8845   9.144  21.817   7.306 -0.1208 -0.0978  0.0145
65830W        W 8846   7.402  34.073   3.191  0.1485 -0.0540 -0.0492
65831W        W 8847  19.299  24.918   4.191 -0.0675  0.1257 -0.2103
65832W        W 8848   9.400  31.078   9.506 -0.0786 -0.1324 -0.0691
65833W        W 8849  28.168  23.125  26.193 -0.1685  0.0145 -0.2287
65834W        W 8850   6.861  23.133  28.403  0.0473 -0.0140  0.3137
65835W        W 8851   3.499  15.304   4.253  0.0226  0.3398  0.0015
65836W        W 8852  27.197   5.388   4.698  0.0026  0.0365  0.0609
65837W        W 8853  34.192  18.253   8.658 -0.2558  0.0381  0.0943
65838W        W 8854   4.837  29.401   9.479 -0.2563 -0.3882 -0.2027
65839W        W 8855  24.687   7.004   8.446  0.1057  0.0337 -0.3905
65840W        W 8856  20.914   0.262   1.402  0.0280  0.3084 -0.0098
65841W        W 8857  28.583  23.249   9.593  0.2675 -0.3931  0.2356
65842W        W 8858  13.309   4.778   0.972  0.1462  0.0018  0.4764
65843W        W 8859   1.655  10.923  10.112  0.0629 -0.1323 -0.2001
65844W        W 8860   2.481   0.630   4.373  0.2814  0.0226  0.3693
65845W        W 8861  32.280  29.211   5.200  0.1757  0.0487 -0.0867
65846W        W 8862  32.514  10.161   0.051  0.1082 -0.0217 -0.1284
65847W        W 8863  10.308   3.714   5.604  0.1049  0.3183  0.1380
65848W        W 8864  24.118   8.446  20.775 -0.2979 -0.0733  0.2630
65849W        W 8865  33.473   5.650   5.029  0.1656  0.0236  0.0297
65850W        W 8866   3.349  32.951  10.665 -0.1286  0.1160  0.1548
65851W        W 8867   1.362  30.215   7.520 -0.0437 -0.1799  0.0914
65852W        W 8868  10.267  18.065  22.588  0.1632  0.1419 -0.0463
65853W        W 8869   9.387  13.153   4.091 -0.2139 -0.2847  0.1592
65854W        W 8870   4.450   8.197   2.899  0.1299 -0.2577  0.1944
65855W        W 8871  34.460  29.058   7.679  0.1060 -0.4824  0.0025
65856W        W 8872  17.142   5.442   5.546 -0.1189  0.3926  0.0944
65857W        W 8873  10.747   9.024  16.141 -0.0638 -0.0850  0.4656
65858W        W 8874   5.798   8.379   1.081 -0.3135  0.3349 -0.3163
65859W        W 8875   5.895  20.014  27.018  0.2120 -0.0968 -0.1114
65860W        W 8876  10.164  28.112  20.334  0.2217  0.1277  0.3690
65861W        W 8877  26.330  10.750   5.847  0.1441  0.0434  0.2222
65862W        W 8878   4.526   1.254   6.139 -0.0613  0.1321 -0.0699
65863W        W 8879   0.913  28.406   0.663  0.1237 -0.1338  0.1756
65864W        W 8880   3.343  28.489   4.568  0.1183  0.1458 -0.1198
65865W        W 8881   7.327  26.161   4.645  0.0655  0.1721  0.1665
65866W        W 8882   2.241  29.842  23.347  0.0228 -0.0964  0.2468
65867W        W 8883  30.730  33.822  24.889  0.0585 -0.0021 -0.2320
65868W        W 8884  25.392   9.093   7.373  0.1516  0.0811  0.3470
65869W        W 8885  26.811  25.775  11.441  0.0756 -0.3336 -0.0075
65870W        W 8886  33.677   8.005  16.466 -0.0451  0.2039 -0.2642
65871W        W 8887   9.551   8.983   6.502 -0.0378  0.0292  0.2655
65872W        W 8888  17.101  21.886  29.187 -0.2195 -0.1150 -0.0417
65873W        W 8889  33.038   3.545   4.068 -0.2041  0.0702 -0.1842
65874W        W 8890  10.521  31.172   5.704 -0.0975  0.0162 -0.0315
65875W        W 8891  22.968  14.578   2.005 -0.4279  0.1439  0.1379
65876W        W 8892  12.840  28.075  27.012 -0.0229  0.2574  0.0329
65877W        W 8893  31.613  32.718   7.535  0.0196 -0.0529 -0.1423
65878W        W 8894  23.645   2.884  27.185  0.0112  0.0066 -0.0399
65879W        W 8895   6.070   1.514  28.669 -0.0796 -0.3390 -0.0076
65880W        W 8896  30.537  20.831   9.673  0.0270  0.0315  0.3490
65881W        W 8897   0.122   8.377   9.453 -0.1555  0.1704 -0.0768
65882W        W 8898   3.352  29.340   9.650 -0.0915 -0.2869  0.2217
65883W        W 8899  26.441  10.772   0.918 -0.1720 -0.1833 -0.1189
65884W        W 8900  14.401   1.719   2.023  0.1774 -0.1703 -0.0102
65885W        W 8901  14.456   9.344   3.268 -0.3407  0.1710  0.0622
65886W        W 8902  13.309   5.655  20.742 -0.3355  0.0632  0.0056
65887W        W 8903   2.400   7.069   5.508  0.0070  0.3343  0.1134
65888W        W 8904   1.109  14.293  28.158 -0.2712  0.1638  0.1469
65889W        W 8905  10.365  17.006   1.152  0.1505  0.2095 -0.3743
65890W        W 8906  12.577  34.226  19.939 -0.1176 -0.0378  0.0104
65891W        W 8907  15.045   9.389   5.587 -0.4605 -0.2048  0.1110
65892W        W 8908  32.030   3.847  28.894  0.0662  0.0309  0.3105
65893W        W 8909  34.494  33.577  17.518 -0.2396  0.0414 -0.3019
65894W        W 8910  32.144  13.257   7.844  0.1311 -0.5051  0.1843
65895W        W 8911  27.372  25.788   8.618 -0.0693 -0.2298  0.1115
65896W        W 8912  12.170  23.450  23.653  0.0889  0.2745 -0.2369
65897W        W 8913  13.454  14.596  27.909 -0.0598 -0.2757  0.2915
65898W        W 8914   6.727  24.838   7.793 -0.0131  0.3243 -0.2129
65899W        W 8915   7.752  22.888  22.855  0.0199  0.4893  0.0091
65900W        W 8916   7.690  28.674   4.887  0.0363  0.2824  0.0542
65901W        W 8917  20.579  19.147   6.304 -0.1249 -0.0007 -0.0421
65902W        W 8918  28.714  32.190   9.640 -0.0023  0.2193 -0.2456
65903W        W 8919   8.437   1.070   3.987  0.1859  0.3846  0.0566
65904W        W 8920   0.178  26.087   7.952  0.0384 -0.0995 -0.1015
65905W        W 8921  21.722  29.733  23.901 -0.2275  0.0413  0.4026
65906W        W 8922  17.733  30.630   6.214 -0.3788  0.1412  0.4245
65907W        W 8923  12.502   2.199   9.420  0.0289  0.2152  0.0204
65908W        W 8924  26.673  20.383  23.389  0.2429  0.2887  0.0683
65909W        W 8925   3.215  14.810  25.263 -0.0633 -0.2176  0.2068
65910W        W 8926   3.230  34.116  14.238 -0.4223  0.0834 -0.2375
65911W        W 8927  25.260  27.433  29.223  0.0160 -0.1121  0.2846
65912W        W 8928  22.343  24.996  28.262 -0.1753  0.3805  0.1062
65913W        W 8929  32.854   3.053   7.069 -0.0995  0.1333 -0.1130
65914W        W 8930  28.962  29.150  22.921 -0.1620  0.2091  0.3951
65915W        W 8931  11.139  15.312   7.456 -0.0133  0.0162 -0.0214
65916W        W 8932  32.767  27.954   1.165 -0.1163  0.2714  0.1420
65917W        W 8933  28.924  26.222   3.616 -0.0583  0.3544 -0.0427
65918W        W 8934   5.869  23.825  21.801  0.2912  0.1786  0.0633
65919W        W 8935  32.369  18.476  10.934  0.2809  0.1452 -0.1792
65920W        W 8936  29.329  30.706   7.459 -0.0522  0.1941  0.3340
65921W        W 8937  22.335  13.920  28.953 -0.3094  0.3528 -0.1435
65922W        W 8938   0.075  32.425   7.589 -0.0248 -0.3133 -0.1957
65923W        W 8939   6.984  33.715  24.647 -0.1965 -0.0268 -0.0124
65924W        W 8940  33.800  34.542   1.181 -0.1297  0.0237  0.0730
65925W        W 8941  25.442  33.137  10.414 -0.3064  0.2712 -0.3223
65926W        W 8942   3.993   0.750   8.359 -0.0392  0.0179 -0.0553
65927W        W 8943  19.559  25.492   4.404  0.1755  0.1480 -0.0384
65928W        W 8944  22.736   0.489   3.784 -0.0517  0.1438 -0.0224
65929W        W 8945  29.853   5.657  27.563  0.2532 -0.2599  0.0675
65930W        W 8946  17.546  33.320  22.072  0.0013  0.0451 -0.4385
65931W        W 8947   9.057   6.297   8.481  0.4151  0.3625 -0.2780
65932W        W 8948   1.470  16.097  16.467  0.2491  0.0320 -0.0931
65933W        W 8949   5.446  13.323  26.993  0.0334  0.0544 -0.0294
65934W        W 8950  30.982   3.661   9.735 -0.1444 -0.1828  0.2825
65935W        W 8951  10.452   0.666   1.413 -0.0852  0.0372 -0.2999
65936W        W 8952   6.759  10.049  26.923  0.1486  0.1877 -0.1766
65937W        W 8953   3.375  28.837  26.864  0.1585  0.1660 -0.1466
65938W        W 8954   8.730   7.861  28.301  0.1189 -0.0021  0.1018
65939W        W 8955  15.454  15.968  28.345  0.1200  0.1139 -0.2267
65940W        W 8956  29.303   5.194  22.651  0.1417 -0.0279  0.1788
65941W        W 8957  27.893  31.093   6.708  0.5169  0.1753  0.1139
65942W        W 8958  14.561  29.444   6.727 -0.1393  0.2560 -0.0071
65943W        W 8959  17.680  34.666   1.054  0.2086 -0.0455 -0.3126
65944W        W 8960  12.607   7.214   5.910  0.2693 -0.0275 -0.0317
65945W        W 8961  14.807  24.117   0.304  0.0844 -0.0935 -0.0775
65946W        W 8962  13.091  23.749  24.586  0.2289 -0.2845  0.1102
65947W        W 8963   6.737  10.952  14.155  0.1460  0.0018  0.1415
65948W        W 8964   5.451  28.452   0.917  0.0461 -0.3103 -0.3042
65949W        W 8965   9.781   7.232  21.279 -0.0769  0.0339  0.0602
65950W        W 8966   7.591   9.024   0.631 -0.1241  0.2297 -0.4356
65951W        W 8967  32.820   8.356   2.406 -0.1098  0.1659  0.3119
65952W        W 8968  29.354  26.456   0.009 -0.3480 -0.0368  0.0014
65953W        W 8969  16.253  31.739   9.903 -0.2312 -0.3996 -0.2197
65954W        W 8970  33.857  28.034   4.430  0.0118 -0.1577 -0.2069
65955W        W 8971  21.774  27.943   8.588  0.0167 -0.0663  0.0797
65956W        W 8972  24.485  34.422   2.410  0.1349  0.1018 -0.2914
65957W        W 8973  33.092  27.674   8.110 -0.2467 -0.4046 -0.2228
65958W        W 8974  32.020  17.071  27.653  0.0662  0.1387  0.0419
65959W        W 8975   2.423   6.595   8.266 -0.0062 -0.0632 -0.2401
65960W        W 8976   4.255  18.720  22.974 -0.0228  0.1601  0.2410
65961W        W 8977   3.477   9.439   1.152  0.0100  0.0348  0.2148
65962W        W 8978   9.308  32.081   7.332 -0.1193  0.0116 -0.0038
65963W        W 8979   9.026  12.062   2.289  0.0101 -0.1408  0.0239
65964W        W 8980  12.327   6.765   2.889 -0.0050 -0.3613  0.1846
65965W        W 8981  21.848  18.294  28.526 -0.3510 -0.0574  0.2005
65966W        W 8982  29.051  10.942   8.762 -0.0370  0.0468  0.0391
65967W        W 8983  22.869   9.420  28.866  0.3340 -0.1763 -0.2224
65968W        W 8984  13.228   3.009  10.172 -0.2838 -0.1483 -0.2610
65969W        W 8985   1.812  24.211   5.716 -0.1730 -0.1826 -0.0768
65970W        W 8986  20.152  32.095   3.867  0.2386  0.0637 -0.2435
65971W        W 8987   5.354  25.260   4.231  0.2364  0.0974  0.2308
65972W        W 8988  34.527  33.214  21.730 -0.0536  0.1740  0.1391
65973W        W 8989   4.545   9.929   3.153 -0.2558  0.0757  0.0710
65974W        W 8990   6.325  17.114   5.133  0.0573 -0.1309 -0.2459
65975W        W 8991   6.995   3.149   4.215 -0.1310 -0.1976  0.2617
65976W        W 8992  30.837  22.669   6.505 -0.3317  0.1704  0.0445
65977W        W 8993  10.127  13.227  28.018  0.1988  0.0591 -0.1273
65978W        W 8994   1.238  14.133   6.503  0.0753 -0.2574  0.2514
65979W        W 8995  33.267  18.315  24.040 -0.0285 -0.0759  0.1185
65980W        W 8996   1.614   5.074   7.668 -0.0964  0.3246  0.3072
65981W        W 8997  29.676  12.211  22.992 -0.0880 -0.0146  0.1034
65982W        W 8998  34.613  11.811   6.766  0.0282  0.1663 -0.1521
65983W        W 8999  15.865   6.590  18.651 -0.1916 -0.1474 -0.0539
65984W        W 9000  22.022  33.270   0.713 -0.0172  0.0971 -0.0009
65985W        W 9001   1.382   4.313   7.456 -0.0852 -0.2466 -0.1961
65986W        W 9002  34.163  19.056   6.018  0.0290  0.1118 -0.3425
65987W        W 9003   5.118   5.961   6.086  0.1131  0.0359  0.2909
65988W        W 9004  11.335  30.712   0.765  0.0892  0.0093 -0.1327
65989W        W 9005  26.067   8.743   3.754 -0.0130 -0.0528  0.1465
65990W        W 9006  30.964   8.166  29.017 -0.0941  0.0777  0.2333
65991W        W 9007  19.606   4.929   2.973 -0.2538 -0.1433  0.3190
65992W        W 9008   5.760  26.980   2.017  0.0569  0.1317  0.0220
65993W        W 9009  25.193  29.948   2.542  0.1082  0.1655 -0.1322
65994W        W 9010  13.899   1.021  22.319  0.1487 -0.2141  0.0207
65995W        W 9011  15.550  26.773  24.782 -0.1094  0.0092 -0.0912
65996W        W 9012  21.820   2.330  24.974  0.1031  0.0893  0.3816
65997W        W 9013   3.964  20.158   6.401 -0.2372  0.0720  0.2449
65998W        W 9014  17.047  27.894   3.584  0.1153 -0.0820 -0.2815
65999W        W 9015   0.806  17.147   8.562 -0.2930  0.2818 -0.2741
66000W        W 9016   1.720   2.187   0.839  0.3778 -0.1318 -0.1170
66001W        W 9017   7.670  28.007   3.276 -0.0119  0.0153 -0.0736
66002W        W 9018  15.438  23.811   5.165 -0.1765  0.0432  0.1788
66003W        W 9019   8.187   6.245  26.531  0.1415 -0.2472 -0.2228
66004W        W 9020  25.081  12.564   0.451 -0.3309  0.3506  0.2213
66005W        W 9021   9.086  27.069   6.691 -0.1916 -0.1055 -0.0704
66006W        W 9022  13.948   1.717   9.699 -0.0064 -0.1188 -0.1482
66007W        W 9023   5.539  31.964   5.139  0.1938 -0.2945 -0.0658
66008W        W 9024   1.444   2.565   4.585  0.1310 -0.1419  0.3787
66009W        W 9025  15.757   5.664   9.209 -0.1611  0.1794  0.2103
66010W        W 9026   4.969   0.573   7.126  0.1566  0.1047  0.0412
66011W        W 9027   3.142   8.053   6.122  0.0828  0.2186 -0.0390
66012W        W 9028   8.259  24.423   4.586 -0.3408  0.1626 -0.3258
66013W        W 9029  30.521   8.268   4.422 -0.3719 -0.2817  0.0648
66014W        W 9030   9.884   2.874   6.377  0.2728  0.4303 -0.0877
66015W        W 9031  23.252  31.982   8.412  0.1375 -0.2363  0.0987
66016W        W 9032   3.182  27.654  27.297 -0.1358 -0.1530  0.1471
66017W        W 9033  34.657  34.515   8.059 -0.2643  0.0130 -0.0019
66018W        W 9034   2.997   0.460   3.734 -0.1781 -0.1461  0.0154
66019W        W 9035  10.789   7.669   1.880 -0.1187  0.0655 -0.0041
66020W        W 9036  10.061  23.731   1.514  0.0000 -0.0599 -0.0677
66021W        W 9037  33.720   1.273  20.600 -0.3965 -0.1796 -0.1123
66022W        W 9038   8.660  16.983   7.884 -0.0748  0.0376  0.0417
66023W        W 9039   2.372   1.994   5.142 -0.1452 -0.0201 -0.2084
66024W        W 9040   7.099  20.371   3.143 -0.0498 -0.0288  0.0403
66025W        W 9041   7.362   0.442  20.264  0.3317  0.0607 -0.0343
66026W        W 9042   1.304   4.323   8.753 -0.2574  0.1496 -0.0549
66027W        W 9043   0.931   0.329   3.513  0.0640  0.0257 -0.0668
66028W        W 9044   2.682   7.880   5.325 -0.0139 -0.1502 -0.1056
66029W        W 9045  32.072  34.130   6.783  0.0358  0.1204 -0.0242
66030W        W 9046   5.082  21.814   7.548  0.0588 -0.1487  0.1187
66031W        W 9047  23.419  30.079  14.864  0.2887 -0.2847  0.2083
66032W        W 9048   7.217  12.180   0.583 -0.0979  0.1354  0.2638
66033W        W 9049  33.523  26.602   0.508  0.1765 -0.1326 -0.1079
66034W        W 9050   8.544   8.072   7.409 -0.0047  0.0336  0.0110
66035W        W 9051  27.407   2.945   8.255  0.0685 -0.2237 -0.0110
66036W        W 9052   9.107  28.788   7.530  0.0613 -0.2083 -0.3156
66037W        W 9053  28.100  11.081  26.303 -0.2242  0.2272  0.0214
66038W        W 9054   0.255  32.794   0.652 -0.0000 -0.1827  0.0754
66039W        W 9055  32.291  33.118  17.476 -0.0824 -0.1088 -0.0607
66040W        W 9056  12.081  34.587   8.745  0.1920 -0.0602  0.0292
66041W        W 9057   8.918  31.322   5.215  0.0668  0.0161 -0.0173
66042W        W 9058  25.406   2.025   4.294  0.0571 -0.0746 -0.0048
66043W        W 9059  10.811  11.079   7.607  0.2242  0.3283  0.0875
66044W        W 9060   4.733   9.551   0.026  0.1306  0.0468 -0.3093
66045W        W 9061  29.764   6.462   5.833 -0.0384 -0.0586 -0.1529
66046W        W 9062  28.595  21.649  27.769  0.1677  0.0169 -0.0736
66047W        W 9063  29.676  18.180  28.635 -0.0642 -0.3089  0.1036
66048W        W 9064  22.389   5.464  10.005  0.1534  0.0608  0.1109
66049W        W 9065  20.301  33.027   7.814  0.1425 -0.3414 -0.0260
66050W        W 9066  29.407   1.236   7.012 -0.0234  0.2975 -0.3906
66051W        W 9067  29.932   5.489   9.858 -0.3377 -0.0852  0.1619
66052W        W 9068  25.332   6.034  10.609  0.0060 -0.1466  0.1090
66053W        W 9069   4.666   1.679   9.696  0.2184  0.0648  0.1223
66054W        W 9070   4.798   5.947  27.081  0.1472  0.0815 -0.0263
66055W        W 9071   5.773  30.785   1.700  0.1556  0.0560  0.2340
66056W        W 9072   5.355  28.291   1.413  0.1215  0.0884 -0.2455
66057W        W 9073   9.558  32.963   0.012 -0.0510  0.0193 -0.0426
66058W        W 9074   0.372   2.395   8.244 -0.2022  0.0839  0.0256
66059W        W 9075  27.357  34.123   0.148 -0.0392 -0.2556 -0.2572
66060W        W 9076   1.351  26.061  10.058 -0.0003  0.0305  0.0188
66061W        W 9077  33.831  28.542   9.313 -0.2137  0.3817 -0.2662
66062W        W 9078  13.882  22.446  25.734  0.0782  0.2104  0.1606
66063W        W 9079  31.129  22.004   1.773  0.0679  0.0053  0.2529
66064W        W 9080   3.142  13.979  27.718  0.2696  0.1552 -0.2144
66065W        W 9081   7.232  12.446  26.236 -0.1057 -0.0714  0.0995
66066W        W 9082  12.312  12.997  23.609 -0.0427  0.1799  0.1729
66067W        W 9083   9.812  27.905  28.382  0.0164 -0.1352  0.1135
66068W        W 9084  28.132  31.913  10.262 -0.3761  0.1165  0.1503
66069W        W 9085   2.281  34.264   5.611 -0.3519  0.0647  0.0058
66070W        W 9086  21.682   6.584   8.582 -0.0432  0.3161  0.0011
66071W        W 9087  23.582  20.371   2.240  0.2599 -0.0418 -0.1781
66072W        W 9088   4.663   0.651  27.597 -0.2790  0.1868 -0.1120
66073W        W 9089  15.056   4.939   9.508 -0.0086  0.2261  0.1361
66074W        W 9090  13.824  13.338   8.313 -0.2516 -0.0975  0.1734
66075W        W 9091  32.357  11.858   7.386  0.0774 -0.1935 -0.0757
66076W        W 9092  28.367   9.147  26.025  0.2839  0.0182  0.0359
66077W        W 9093   4.496   3.347   0.765 -0.1686 -0.1043 -0.2725
66078W        W 9094   4.159  29.965   9.477  0.2549  0.1034 -0.0957
66079W        W 9095  28.883   2.270  28.311  0.1701  0.0294  0.0763
66080W        W 9096  15.088  12.443   1.713  0.0630 -0.0020  0.1408
66081W        W 9097  23.127   3.177   1.853 -0.0201 -0.0621 -0.1100
66082W        W 9098   1.674   7.892   0.378  0.2255  0.0619 -0.3521
66083W        W 9099  34.665  17.846  18.186  0.0812  0.3439  0.2535
66084W        W 9100   9.766  17.682  17.938  0.2695  0.1636 -0.3169
66085W        W 9101  12.825  25.837   4.670 -0.0217  0.2576  0.5831
66086W        W 9102   5.192  20.697  18.661 -0.1767 -0.1225 -0.1657
66087W        W 9103  12.855   8.257  21.095 -0.2385 -0.0814 -0.2670
66088W        W 9104  15.391  11.498  21.581 -0.0415 -0.0521  0.1555
66089W        W 9105   1.191  15.881  20.706  0.1090  0.0426  0.0701
66090W        W 9106   4.735   9.778  22.252  0.1609 -0.0350  0.0009
66091W        W 9107  12.980   2.631  23.425 -0.3119  0.0908 -0.1390
66092W        W 9108   8.718  28.422   7.704  0.1250 -0.4481 -0.2617
66093W        W 9109   9.331  28.400  27.109 -0.0567 -0.1007  0.3299
66094W        W 9110  11.380  13.355  23.526  0.2601 -0.1038  0.1793
66095W        W 9111   0.043  27.179  28.550 -0.1642  0.0184 -0.0806
66096W        W 9112  34.320  12.618  25.913 -0.2044 -0.1033  0.0106
66097W        W 9113  24.818  15.514  14.604  0.2680 -0.1766  0.2358
66098W        W 9114   0.228   7.507  26.008  0.2991  0.1684  0.3130
66099W        W 9115  16.777  33.491   0.219  0.2666  0.2299 -0.0168
66100W        W 9116  30.535  10.969   4.977  0.1480 -0.1724  0.0189
66101W        W 9117   7.327   1.192  28.621 -0.2722  0.1051  0.0742
66102W        W 9118  12.462  17.801   8.222 -0.1624 -0.1937 -0.0172
66103W        W 9119  17.693  34.100  25.485  0.1161 -0.0616 -0.0401
66104W        W 9120  11.483  16.850  21.488  0.1746  0.0549 -0.1674
66105W        W 9121  33.899  33.965   0.914  0.2051 -0.0539 -0.2529
66106W        W 9122  10.314  34.080   8.133 -0.2513 -0.2103 -0.2662
66107W        W 9123  34.174  11.923  20.545  0.0567  0.0916  0.0567
66108W        W 9124  11.518  29.814  21.256  0.1182  0.2581 -0.0066
66109W        W 9125   3.894  14.219   9.633 -0.1590 -0.3864  0.1012
66110W        W 9126  32.269  33.689  23.478 -0.4575  0.2412  0.2232
66111W        W 9127  13.701  19.865  20.987 -0.1320  0.1018  0.2185
66112W        W 9128   2.521  15.444  27.415  0.0849 -0.1831  0.0803
66113W        W 9129   0.877   3.146   3.473 -0.3729 -0.0764  0.0872
66114W        W 9130  16.910   5.290   4.757 -0.0409 -0.1579 -0.2255
66115W        W 9131  22.261   8.799   4.140  0.2629 -0.2520 -0.0648
66116W        W 9132  15.665  19.710   2.167  0.1077  0.0339  0.1198
66117W        W 9133  16.189  11.373  26.814  0.1299 -0.1725  0.1526
66118W        W 9134   3.697  30.071   8.294  0.1987  0.1659  0.0961
66119W        W 9135   0.604  34.716  29.068 -0.1758  0.2097 -0.0871
66120W        W 9136   9.755   4.664  24.397  0.4283  0.2192  0.3055
66121W        W 9137   2.436  29.323   8.670  0.1469 -0.3322  0.5042
66122W        W 9138   9.991  31.348   1.207  0.1049 -0.0314  0.0773
66123W        W 9139  31.351  18.106  24.087  0.1193  0.0741  0.1225
66124W        W 9140  34.223  13.906  27.295  0.2031  0.2775 -0.3282
66125W        W 9141  29.167   4.463   1.018  0.2553  0.3646 -0.0594
66126W        W 9142   5.678  16.173  27.301 -0.0977 -0.0784 -0.0499
66127W        W 9143  32.897  15.125   8.130  0.1636 -0.0249 -0.0600
66128W        W 9144  31.856   8.014   4.542  0.1141  0.1498 -0.1896
66129W        W 9145   3.524   7.594  25.044  0.0925  0.1563 -0.0957
66130W        W 9146  25.952  22.261  27.282 -0.3515 -0.1890  0.0666
66131W        W 9147  12.674   5.925   0.532  0.3605 -0.0087 -0.2215
66132W        W 9148  11.829   0.879  27.825 -0.0883 -0.1710 -0.2251
66133W        W 9149   8.364   7.039   3.887 -0.1350 -0.0594  0.3049
66134W        W 9150  14.794   3.577   4.622  0.2662 -0.0128 -0.0452
66135W        W 9151  27.130   3.048  23.670 -0.0228  0.0097  0.0552
66136W        W 9152  32.974  22.887   5.117  0.1601  0.1484 -0.1268
66137W        W 9153   0.386  33.310  27.649 -0.0464 -0.1371 -0.0824
66138W        W 9154  12.226  31.659  23.049 -0.0144  0.1977 -0.1204
66139W        W 9155  34.165   9.031  28.999 -0.2349  0.3722  0.1972
66140W        W 9156   2.191  10.782  24.012  0.0841 -0.0384 -0.1638
66141W        W 9157  12.271  34.529   9.171 -0.0838  0.1011 -0.0986
66142W        W 9158  10.331   3.168  10.163 -0.3837  0.0601 -0.0522
66143W        W 9159   2.208   2.138  18.608 -0.0877 -0.3596  0.0458
66144W        W 9160   4.325  32.077   3.687 -0.1135  0.1701 -0.1583
66145W        W 9161   8.791  17.423  29.283  0.1877 -0.2607 -0.1073
66146W        W 9162  27.813  26.172  10.267 -0.4467 -0.0936  0.1211
66147W        W 9163  11.708   6.573  27.381 -0.0869  0.0799  0.0374
66148W        W 9164   9.775   5.800   7.736  0.2683  0.4157 -0.0825
66149W        W 9165   5.658  13.875   8.565 -0.0814  0.1352  0.2311
66150W        W 9166  13.162  14.247   6.182 -0.1550  0.2864 -0.0417
66151W        W 9167  31.004  28.345  23.556  0.0570 -0.1700 -0.0850
66152W        W 9168  18.780   9.419   0.098 -0.0063  0.0118  0.2268
66153W        W 9169   9.216   2.417  10.568 -0.1984  0.0683  0.0846
66154W        W 9170  32.086  31.286  10.465 -0.0080  0.3056 -0.2500
66155W        W 9171  12.520  29.323   5.801 -0.1239 -0.0531  0.3010
66156W        W 9172   6.387   5.317   1.928 -0.0320 -0.2059 -0.5115
66157W        W 9173  14.339   3.147   0.292  0.3315  0.2899  0.2416
66158W        W 9174   8.670  12.838  20.056  0.0864 -0.1424  0.0923
66159W        W 9175  11.040  32.014   4.412  0.2545  0.2327 -0.1507
66160W        W 9176   8.101   0.065  26.756 -0.0270  0.0971 -0.2608
66161W        W 9177   9.426  14.874  24.734  0.0007  0.0307  0.0177
66162W        W 9178  22.165   3.703   2.635  0.1096  0.1215  0.4106
66163W        W 9179   9.351   4.919  14.108 -0.1491 -0.2545 -0.2351
66164W        W 9180  26.869  32.588  17.707 -0.2848 -0.0742  0.2022
66165W        W 9181  28.293   0.612  21.614 -0.4258  0.0071  0.0956
66166W        W 9182  17.830   9.676  22.937  0.0400  0.0210  0.0332
66167W        W 9183  14.697  10.234  13.526  0.1404  0.3949 -0.0693
66168W        W 9184   3.628  33.223   3.760 -0.1884  0.0843  0.0591
66169W        W 9185  34.171  32.238   3.518  0.1680  0.1390 -0.0687
66170W        W 9186   6.606  34.025   6.068 -0.1971 -0.0088  0.1779
66171W        W 9187   5.054   2.720  24.402  0.1844  0.0306 -0.0535
66172W        W 9188  10.794  13.584   7.154 -0.0869  0.0484 -0.1223
66173W        W 9189   6.883   6.149   2.115 -0.0080 -0.1463  0.2802
66174W        W 9190  19.649  25.436   6.588 -0.0665  0.0712  0.1275
66175W        W 9191   5.789   5.405  18.888 -0.2574  0.0228 -0.0532
66176W        W 9192  27.116  23.077   1.199 -0.0015  0.1581 -0.0243
66177W        W 9193  32.162  25.313  23.658  0.1910 -0.3442 -0.0842
66178W        W 9194  13.899  15.365  28.205 -0.1143  0.2138  0.0924
66179W        W 9195  34.178  22.677   0.385 -0.1204  0.0580  0.0385
66180W        W 9196  31.303  27.865  26.133  0.1414  0.0714 -0.0177
66181W        W 9197  34.291  28.288  28.781  0.1579 -0.4197  0.0660
66182W        W 9198  32.464  16.260  15.998 -0.1076 -0.2169  0.3080
66183W        W 9199  14.310   1.943  28.339 -0.0536  0.0646  0.2806
66184W        W 9200  10.613  26.292  20.710  0.4617 -0.0721 -0.0481
66185W        W 9201  18.379   1.504  17.010 -0.1937 -0.2021  0.1014
66186W        W 9202   4.021   6.394  25.174 -0.1129  0.3347 -0.3929
66187W        W 9203  17.770   9.940  20.651  0.0859  0.1902 -0.1178
66188W        W 9204   4.084  33.420   8.251 -0.2046  0.1385  0.1634
66189W        W 9205  32.393  34.299   0.511  0.2207 -0.3467 -0.4188
66190W        W 9206  27.611   7.123  22.759 -0.0697  0.3445 -0.0120
66191W        W 9207   9.542  11.755   8.858 -0.0884  0.0746 -0.0013
66192W        W 9208   1.695  17.027   9.743  0.0857  0.0285  0.1411
66193W        W 9209  30.938   0.026   0.468  0.5473 -0.3513 -0.0817
66194W        W 9210  30.779  31.707  10.335  0.1938  0.3105 -0.2120
66195W        W 9211  13.502  19.300  21.515  0.3422 -0.3237  0.0347
66196W        W 9212  10.901   5.429  26.863 -0.2210  0.1871 -0.1304
66197W        W 9213   5.423   2.985   7.948 -0.0696 -0.0360 -0.0335
66198W        W 9214  21.993  16.986  27.510  0.1848  0.2145 -0.0295
66199W        W 9215   1.996   2.407  18.115  0.0096  0.1891 -0.1192
66200W        W 9216   6.817  31.070  20.597 -0.0012  0.0486  0.0291
66201W        W 9217  28.430  16.509  15.390  0.1185  0.0222  0.2324
66202W        W 9218   3.869   7.826  21.318 -0.1095  0.1731  0.1582
66203W        W 9219   1.291  24.364  17.584  0.3361 -0.0296  0.0675
66204W        W 9220  21.500  23.151  13.519 -0.2949  0.0996 -0.0336
66205W        W 9221   4.534  33.334  19.344  0.1344 -0.3477  0.1513
66206W        W 9222   5.383  10.420  28.320 -0.1329  0.2162  0.3691
66207W        W 9223  32.900  26.975   4.330  0.4020 -0.1780  0.1754
66208W        W 9224   5.308  21.629   4.907 -0.1390 -0.4708  0.2803
66209W        W 9225  18.401  13.736  27.092 -0.1846  0.0163 -0.0052
66210W        W 9226   8.767  34.629  19.159  0.0938 -0.0804  0.0777
66211W        W 9227  11.183   8.738   4.671  0.0791 -0.1853 -0.1023
66212W        W 9228   9.821  25.868   4.840  0.0919  0.3734 -0.0808
66213W        W 9229   2.118  29.767  26.985  0.3433 -0.1349  0.3038
66214W        W 9230   3.749   9.394  27.600 -0.1018 -0.0355  0.2282
66215W        W 9231  23.413  33.884  28.030  0.1266 -0.0020  0.1491
66216W        W 9232   5.989   9.068  17.695 -0.0873 -0.1480  0.1764
66217W        W 9233   7.292   1.395  21.212  0.0324  0.0401  0.2581
66218W        W 9234   9.745   3.729  18.113  0.0946 -0.2956  0.2489
66219W        W 9235   8.187  34.137   3.513  0.1412  0.0150  0.0721
66220W        W 9236   0.089   4.283   2.264  0.2142 -0.0408  0.0919
66221W        W 9237   2.894   5.510   2.576 -0.0610  0.0581  0.2412
66222W        W 9238  18.473  29.929  11.539  0.2707 -0.0041  0.0873
66223W        W 9239   8.082   1.675   4.466 -0.2283  0.1611  0.0087
66224W        W 9240  23.808  12.083   0.291  0.3640  0.1684 -0.1965
66225W        W 9241   2.547  34.223   1.268 -0.3668  0.1765  0.0746
66226W        W 9242  18.973  32.752  27.494  0.0571  0.1142  0.1964
66227W        W 9243  14.257   1.545   8.240 -0.0044 -0.1111 -0.0592
66228W        W 9244   3.325  11.053   5.724  0.4729 -0.0046  0.2335
66229W        W 9245   2.693  32.981   9.128  0.1658  0.1244 -0.1121
66230W        W 9246  11.785  32.652  28.349  0.2609 -0.0800 -0.2186
66231W        W 9247  16.382   5.801   2.315 -0.1388  0.0222 -0.2138
66232W        W 9248  23.336   7.092   1.703 -0.0196  0.0636 -0.1684
66233W        W 9249  21.889   5.559  21.287  0.3456  0.2010 -0.0359
66234W        W 9250   9.768   6.058  24.755 -0.0652  0.1146 -0.0696
66235W        W 9251  18.337  11.511  19.027 -0.1190 -0.1518  0.2242
66236W        W 9252  23.282  19.903   2.139  0.3757 -0.2360  0.0784
66237W        W 9253  10.611  31.542   6.165 -0.0648  0.0033  0.0435
66238W        W 9254  13.103   7.751   0.229 -0.0587 -0.2923 -0.0410
66239W        W 9255  11.297  13.449  21.644  0.0690  0.1505 -0.0135
66240W        W 9256   9.238   8.885   1.613 -0.0680 -0.0329 -0.0426
66241W        W 9257  31.677  10.290  19.755  0.1453 -0.0752 -0.3200
66242W        W 9258  31.432  10.920   5.247 -0.0471 -0.1666 -0.1379
66243W        W 9259   7.207  33.291   8.574 -0.1544 -0.0685 -0.2227
66244W        W 9260  25.514  21.547   7.118 -0.0849 -0.4155 -0.0387
66245W        W 9261   6.361   7.160  17.733  0.1698  0.0590 -0.1641
66246W        W 9262   6.742  13.891   1.743  0.0630 -0.2059 -0.0300
66247W        W 9263  29.316  34.522   6.371 -0.0582 -0.1686  0.3377
66248W        W 9264   2.670  11.142   8.280 -0.0833  0.0955  0.2633
66249W        W 9265  14.927  31.722  16.732  0.1140  0.1338 -0.1158
66250W        W 9266  17.211   1.487   3.216 -0.1943  0.1570  0.2888
66251W        W 9267  10.756   7.773   5.648 -0.0589  0.1773  0.2446
66252W        W 9268   9.363   9.259   3.282  0.0195  0.0723 -0.0433
66253W        W 9269  28.781  32.830  26.036 -0.1180  0.1578  0.1998
66254W        W 9270  31.948   2.256  10.133 -0.1249  0.0166 -0.2205
66255W        W 9271  31.602   6.159   3.530  0.0043  0.0944  0.2373
66256W        W 9272  31.139  24.324   1.295  0.1352  0.0318 -0.0738
66257W        W 9273  31.083   7.598   6.135  0.3278  0.0513  0.0847
66258W        W 9274   5.058  34.350   7.384 -0.2166 -0.0773 -0.4435
66259W        W 9275  30.619  34.574  15.063  0.2897  0.0998 -0.3808
66260W        W 9276  10.538   5.701   0.932  0.0492  0.2850 -0.1520
66261W        W 9277   9.131  21.195   2.319 -0.1482 -0.1475 -0.0803
66262W        W 9278   6.026   6.736   1.960 -0.1123 -0.1165 -0.2296
66263W        W 9279   6.533   0.077   4.748  0.2122  0.0850  0.2876
66264W        W 9280  15.260   8.108   4.084 -0.1645  0.2632  0.0376
66265W        W 9281   2.119  32.037  14.713  0.1295  0.0336  0.0110
66266W        W 9282  10.119  17.418  23.231 -0.2229 -0.3672  0.1702
66267W        W 9283  32.564   8.823  27.087 -0.0616  0.2211 -0.2117
66268W        W 9284  33.640   8.026  28.436  0.2878 -0.1197 -0.2051
66269W        W 9285  14.337  28.207   2.734 -0.1664 -0.0583 -0.3282
66270W        W 9286   4.025   5.849  21.101  0.0531  0.1092 -0.1905
66271W        W 9287   7.398  34.076   1.728  0.1377  0.0448 -0.1116
66272W        W 9288   8.354   0.214  17.762  0.0736  0.0706 -0.1436
66273W        W 9289  10.773  30.410   7.639  0.2050 -0.1395  0.3620
66274W        W 9290  34.436  33.402   6.737 -0.1180 -0.3355  0.0095
66275W        W 9291   0.677  20.733  18.722 -0.1244  0.2027 -0.2431
66276W        W 9292  10.771  30.261   5.203  0.1495  0.2381  0.2957
66277W        W 9293   4.337  30.865  22.128  0.1685  0.1813  0.2606
66278W        W 9294   6.187   9.304   4.448 -0.0593  0.0229  0.1212
66279W        W 9295  31.670   2.642   9.074 -0.0489 -0.0090  0.2732
66280W        W 9296  16.594   2.687   6.339 -0.1012  0.0959  0.2785
66281W        W 9297  26.300  11.210   3.638 -0.2012  0.1968  0.0308
66282W        W 9298  27.077  29.646  21.508  0.0691  0.2050  0.0431
66283W        W 9299  20.863  31.287   2.003  0.0032  0.0469 -0.2396
66284W        W 9300   2.878  11.931  19.445  0.3779  0.3382  0.3151
66285W        W 9301   7.836  15.052   3.796  0.1460 -0.1116  0.1077
66286W        W 9302   0.803  10.180   0.405 -0.1901  0.0316 -0.1209
66287W        W 9303  29.287  30.966   3.518  0.3187 -0.1747  0.2006
66288W        W 9304  24.942  21.334  24.971 -0.2474 -0.0427 -0.1617
66289W        W 9305  17.621   1.215   3.899 -0.0720  0.0655  0.1028
66290W        W 9306  31.957  34.442   3.933  0.3227  0.1422 -0.0012
66291W        W 9307  15.354  28.823  29.065 -0.0925  0.2537  0.1319
66292W        W 9308  10.211  10.622  15.437  0.3218 -0.1291  0.3938
66293W        W 9309  27.348   0.888  10.891  0.0060 -0.2027 -0.0639
66294W        W 9310   8.921   3.985  18.075 -0.1822 -0.1179 -0.0840
66295W        W 9311  11.726   8.569  24.701 -0.1005  0.0290  0.1710
66296W        W 9312  10.145  17.388  26.778  0.1941 -0.1426 -0.0468
66297W        W 9313  29.463  31.240  25.763  0.3372  0.0760 -0.1279
66298W        W 9314   2.844  14.973  27.456 -0.2041  0.0800 -0.1405
66299W        W 9315   7.156  13.266  16.550 -0.1043 -0.1750  0.1593
66300W        W 9316  34.541  28.646  23.505 -0.0877  0.0402 -0.0685
66301W        W 9317   5.984  32.787   1.947 -0.0252  0.1217  0.2946
66302W        W 9318   5.274  10.706   6.866 -0.1511 -0.1280  0.1803
66303W        W 9319  14.900   6.767   1.622 -0.0173  0.0067  0.3605
66304W        W 9320   0.457  30.569   2.223 -0.1736 -0.0092 -0.1053
66305W        W 9321  30.556   0.839   2.476 -0.1045 -0.0137  0.1246
66306W        W 9322   9.252  32.056  23.759  0.1003  0.0671  0.2347
66307W        W 9323   3.770   4.313   8.352  0.2109  0.0924  0.1450
66308W        W 9324  33.643  25.941  17.910 -0.0185  0.2868  0.2234
66309W        W 9325   5.954   3.183   3.969 -0.0942 -0.1237  0.3113
66310W        W 9326  10.787  13.931   1.158  0.0201  0.0808  0.1655
66311W        W 9327   3.648  25.595   0.879  0.0133 -0.1186  0.1594
66312W        W 9328   8.339   7.551  14.100  0.1392 -0.0247 -0.2155
66313W        W 9329   3.873   4.445   6.767 -0.4127  0.3034  0.1156
66314W        W 9330  18.829  32.642   8.024 -0.2324  0.1491  0.1565
66315W        W 9331  28.140  25.895   1.999  0.1145 -0.0646  0.2344
66316W        W 9332   3.477  18.389   6.386 -0.2273  0.0354  0.0412
66317W        W 9333  30.814  33.664   6.500 -0.0625  0.0830 -0.0925
66318W        W 9334  24.158  32.318  27.953 -0.1211  0.0792  0.2146
66319W        W 9335  11.919   5.332   4.780  0.4431  0.0511 -0.0150
66320W        W 9336  11.550  27.680  27.763 -0.1162 -0.4185  0.1668
66321W        W 9337   7.090   2.112  22.752  0.1068 -0.0078  0.0720
66322W        W 9338  14.669   6.579  26.743 -0.2000 -0.0876 -0.2409
66323W        W 9339  32.080   3.908   8.319  0.0544  0.4698  0.0745
66324W        W 9340   2.055  20.038  22.735 -0.1199  0.0185 -0.0606
66325W        W 9341  21.718  25.010   7.769 -0.0893  0.0696  0.0253
66326W        W 9342  32.017   2.384   3.193  0.3464 -0.2522 -0.1047
66327W        W 9343  32.439   0.510   8.790 -0.4251 -0.2863 -0.3717
66328W        W 9344  13.694   4.118   2.156 -0.0032 -0.2191 -0.1012
66329W        W 9345   3.285  28.697   3.858 -0.0820 -0.1559 -0.0874
66330W        W 9346   4.203   3.657   6.761 -0.0268 -0.3113  0.0806
66331W        W 9347  25.207  19.537  10.359  0.0262  0.0154 -0.4182
66332W        W 9348   2.666  33.202  22.428  0.1095  0.0965  0.3203
66333W        W 9349  29.848  30.013  10.472  0.2505 -0.1147  0.2824
66334W        W 9350  17.440  25.548   3.244 -0.0264 -0.0087 -0.2788
66335W        W 9351  15.772   6.806  22.638 -0.2191 -0.0373  0.0615
66336W        W 9352  19.352  12.896  20.605  0.1586  0.0675  0.1444
66337W        W 9353   3.484  21.907  28.322  0.1960  0.0862  0.0200
66338W        W 9354   5.125   2.821   1.095  0.1510 -0.0667 -0.0980
66339W        W 9355  20.712   0.835   8.534 -0.1541  0.0336 -0.0587
66340W        W 9356  25.184  15.213   6.068 -0.1171 -0.2114 -0.1108
66341W        W 9357   1.816  26.963  20.715  0.2407  0.0472  0.0144
66342W        W 9358  16.975   4.636   2.345 -0.1428  0.0201  0.0415
66343W        W 9359   7.609  31.246  20.234  0.2123  0.0374 -0.4041
66344W        W 9360  11.702  33.716   1.785 -0.0888 -0.0770  0.0481
66345W        W 9361  34.159  24.323   8.309  0.1519  0.1329 -0.1379
66346W        W 9362   5.509  27.610  16.470 -0.0438  0.1737  0.0641
66347W        W 9363  22.213  33.497   7.032  0.0159  0.0626 -0.0135
66348W        W 9364  34.448  11.205  27.139 -0.0048  0.0545  0.1423
66349W        W 9365   2.632  30.310   0.350  0.2028 -0.0548 -0.2670
66350W        W 9366  15.146   9.377  25.528 -0.1330  0.2405  0.1917
66351W        W 9367  13.289  32.322   4.113 -0.1276  0.0149 -0.2524
66352W        W 9368  22.180  10.435   0.101  0.2268 -0.1319  0.2056
66353W        W 9369  33.018  20.394   1.197 -0.1875  0.1754  0.0349
66354W        W 9370  31.629  34.241  20.872  0.1031  0.0751 -0.0965
66355W        W 9371  12.663  17.441  27.024  0.1079 -0.2287  0.1461
66356W        W 9372   4.184   7.834   4.287  0.2350 -0.2401  0.2860
66357W        W 9373  32.832   4.971  27.231 -0.2241  0.0821  0.1600
66358W        W 9374   4.794  22.175  18.814 -0.1249  0.0977 -0.4196
66359W        W 9375   9.392  18.402   2.448 -0.1466 -0.0102  0.0718
66360W        W 9376   4.564  34.166  18.151 -0.0316  0.3193 -0.1808
66361W        W 9377   7.477   0.562   4.920 -0.0993  0.2985 -0.0814
66362W        W 9378   4.402  31.988   1.111 -0.0082 -0.1548 -0.1520
66363W        W 9379  31.385  29.473   1.377 -0.1950  0.3950 -0.0352
66364W        W 9380  34.011  34.119  15.485 -0.2373  0.2422  0.0635
66365W        W 9381  28.315   6.482  11.243 -0.0888 -0.1477 -0.2613
66366W        W 9382   2.343  23.630  28.129  0.1216 -0.1031  0.3764
66367W        W 9383  24.841  23.586  14.972 -0.0455 -0.0007 -0.0536
66368W        W 9384   2.521  33.390  10.386  0.0360  0.3000  0.0438
66369W        W 9385   8.046   1.918  17.437 -0.1472 -0.1058 -0.0819
66370W        W 9386  12.771  14.707  25.791 -0.2502  0.1039 -0.1870
66371W        W 9387   6.184  12.864   1.627 -0.1259  0.2339 -0.0648
66372W        W 9388   7.199  22.436  26.532  0.1887  0.0800  0.0161
66373W        W 9389   5.961  10.793   6.519  0.0060 -0.3046  0.0278
66374W        W 9390   2.567   0.040   7.953  0.1545  0.3456 -0.2128
66375W        W 9391   9.478  30.333  24.776  0.2577 -0.1918 -0.3690
66376W        W 9392   8.429   4.423  22.996  0.3276  0.1456  0.0127
66377W        W 9393   2.353   2.113   7.397  0.1644 -0.0025  0.1927
66378W        W 9394  32.145  32.743  23.318  0.1254 -0.2121  0.2568
66379W        W 9395   2.625  14.018   9.007  0.3164 -0.2092 -0.1952
66380W        W 9396   3.230   7.248  19.296  0.1452 -0.1310 -0.0433
66381W        W 9397  30.498  33.907   7.253 -0.1026 -0.3914 -0.1558
66382W        W 9398  20.235  28.541  15.613  0.1423  0.0398  0.0812
66383W        W 9399  14.013  10.526  27.833 -0.0067 -0.1669 -0.3376
66384W        W 9400  28.637  13.997   0.189  0.0620 -0.0438 -0.1163
66385W        W 9401   5.511  28.676   6.529 -0.1452 -0.0058 -0.2303
66386W        W 9402  26.625   4.106  23.665  0.1564  0.1042  0.1202
66387W        W 9403  13.216  25.367  19.762  0.0741  0.0058  0.2671
66388W        W 9404   7.329   0.170   9.534  0.1742 -0.1028 -0.0900
66389W        W 9405  11.802  12.558   1.717  0.4222  0.0776 -0.0172
66390W        W 9406  16.799  27.566   2.069 -0.1205 -0.0459 -0.1659
66391W        W 9407  20.823   8.680   3.892 -0.1031  0.3872  0.1343
66392W        W 9408   4.116   9.201  10.404  0.2677 -0.0342 -0.2074
66393W        W 9409  33.867   5.536  27.994  0.0035  0.1937 -0.1047
66394W        W 9410  25.327  31.468   1.334  0.0314 -0.0301 -0.2471
66395W        W 9411  14.409  25.039   1.306  0.3087 -0.0203 -0.1386
66396W        W 9412   2.318  23.622   5.356  0.2325  0.0426 -0.0593
66397W        W 9413   8.912  32.605  27.671 -0.0115  0.2212 -0.1047
66398W        W 9414  16.384  33.268  28.016  0.1576  0.0014 -0.0802
66399W        W 9415   7.635  30.738  20.008  0.2419 -0.0740  0.0310
66400W        W 9416  25.012  18.397  28.158 -0.0406 -0.0335 -0.0181
66401W        W 9417  11.577   0.998   8.971 -0.1081  0.3999  0.4418
66402W        W 9418  28.106  27.579  28.109 -0.2497 -0.3377  0.0122
66403W        W 9419  33.529   3.332  29.049 -0.1574  0.0301  0.1145
66404W        W 9420  31.794  22.030  28.544  0.1343 -0.1843  0.1696
66405W        W 9421  16.104  32.780  10.215  0.1389  0.0394 -0.0564
66406W        W 9422  24.229   2.593   5.138 -0.3054 -0.0204  0.1177
66407W        W 9423  16.372  30.194  20.327  0.5739  0.0886 -0.2240
66408W        W 9424  29.017  26.888  10.542  0.2173  0.3277  0.2080
66409W        W 9425  11.852   4.047   2.398  0.0487  0.0528  0.1158
66410W        W 9426  11.075   0.418   1.559 -0.2758 -0.2736 -0.0706
66411W        W 9427   7.235   2.733   4.515 -0.1405 -0.3205  0.0235
66412W        W 9428  26.543  17.967   3.329 -0.2449  0.1509 -0.2854
66413W        W 9429   3.097  31.464  29.063  0.2998 -0.0894  0.1676
66414W        W 9430  30.014  28.650  11.286 -0.0122  0.0592  0.2013
66415W        W 9431   1.609  11.830   2.397  0.0401  0.3181 -0.2475
66416W        W 9432  11.155  19.341   7.670 -0.1280  0.5456  0.1334
66417W        W 9433  16.438  30.185  27.005  0.0077  0.1491 -0.2108
66418W        W 9434   5.588  16.729  28.425  0.1124 -0.2005 -0.2953
66419W        W 9435   4.919   7.463  27.597 -0.2160 -0.0466  0.1122
66420W        W 9436  15.347  31.213   3.068 -0.0438 -0.1516 -0.0810
66421W        W 9437  10.911  30.690  27.434 -0.2314  0.1700 -0.0376
66422W        W 9438  12.677  13.087  24.290  0.0657  0.2569  0.0453
66423W        W 9439   3.744  23.840  27.046  0.0087 -0.2619 -0.3095
66424W        W 9440  10.979   7.119   2.989  0.0521 -0.1984  0.2887
66425W        W 9441  22.477  28.957  24.123 -0.0652  0.0224 -0.0037
66426W        W 9442   2.143  32.955  22.164  0.0852  0.0715  0.2449
66427W        W 9443   7.119  33.660  20.516  0.0814  0.1800 -0.1219
66428W        W 9444   3.649  25.056   4.557  0.1818  0.0293 -0.0515
66429W        W 9445   8.686  22.750   2.889 -0.0181  0.0762 -0.2336
66430W        W 9446   3.659   4.615   9.366 -0.0511 -0.0933  0.0727
66431W        W 9447   5.213  27.386   7.026  0.2400 -0.0685 -0.2181
66432W        W 9448  14.587   2.849  22.131 -0.2348  0.2306 -0.0087
66433W        W 9449  21.116  28.595   4.771 -0.2889 -0.1407  0.0167
66434W        W 9450   9.228   6.117   1.146  0.1433  0.1147 -0.0436
66435W        W 9451   8.674  28.223  28.910 -0.1994 -0.1512 -0.1194
66436W        W 9452   5.872  23.486   5.132  0.0485 -0.2633  0.0578
66437W        W 9453  10.641  25.032  28.268 -0.4961  0.0850  0.0441
66438W        W 9454   2.777   7.926  28.539  0.3412 -0.2127  0.0975
66439W        W 9455  32.027  34.555   6.018 -0.0801 -0.0290  0.2756
66440W        W 9456  12.802  31.387   2.311  0.1275  0.0138 -0.1907
66441W        W 9457  27.097   8.206  18.994 -0.1385 -0.0007  0.1668
66442W        W 9458  12.130   8.348   5.296  0.0750  0.1403  0.1838
66443W        W 9459  33.529  20.815   5.049  0.1169 -0.2307 -0.1465
66444W        W 9460  27.805   6.322   7.296  0.1153 -0.0832 -0.1429
66445W        W 9461  18.551   9.882  27.229  0.1365  0.1849  0.2190
66446W        W 9462  10.663  10.144  27.351  0.0599  0.0415 -0.2734
66447W        W 9463   1.597  26.977  25.450 -0.0653  0.2046  0.5252
66448W        W 9464  34.562   4.172   6.916 -0.3158 -0.0178 -0.2424
66449W        W 9465  10.263   4.335   3.811 -0.0925 -0.1463 -0.0755
66450W        W 9466   7.774  16.872  27.619 -0.0708 -0.2055 -0.2295
66451W        W 9467  32.383  14.417  18.828  0.1277  0.1337 -0.1799
66452W        W 9468  13.309  34.432   4.764  0.0759  0.0101 -0.1004
66453W        W 9469  31.228  28.910   5.270  0.2551  0.0588 -0.2189
66454W        W 9470   8.791   2.806   1.716  0.2050 -0.2428  0.1083
66455W        W 9471  26.957   7.580  25.702 -0.4643 -0.0633  0.2932
66456W        W 9472   4.420  15.718  14.556  0.1379 -0.2213  0.1636
66457W        W 9473   8.256  17.628   6.399  0.0737  0.3067  0.0766
66458W        W 9474  31.390   6.073  10.740 -0.3064  0.0004  0.4837
66459W        W 9475   5.849  34.413   0.138 -0.0359  0.0322  0.0850
66460W        W 9476   4.747  13.113   7.047  0.3205  0.2046  0.3442
66461W        W 9477  27.891  31.562  11.150 -0.2548  0.0801  0.2652
66462W        W 9478  17.031  27.249   6.516 -0.1662  0.0784 -0.0353
66463W        W 9479  12.183  31.495  27.683 -0.0542  0.2231  0.1059
66464W        W 9480   1.675  29.200   0.263  0.0539  0.1904 -0.1192
66465W        W 9481  31.482   0.988   4.446 -0.0127 -0.0429  0.3146
66466W        W 9482   5.422   4.110   0.446  0.0028 -0.3528  0.0920
66467W        W 9483  12.108   1.249   4.458  0.2974 -0.0585  0.2398
66468W        W 9484   7.252   2.252  17.626 -0.0292 -0.0187  0.1810
66469W        W 9485   8.235  27.103   1.238  0.5877  0.1534  0.3800
66470W        W 9486   4.380  31.538   9.924 -0.0779 -0.1516 -0.0648
66471W        W 9487  29.011  28.069   8.825 -0.1340  0.0450  0.0349
66472W        W 9488   3.440  29.916  21.441 -0.1323 -0.0781 -0.0050
66473W        W 9489  13.759  34.218  26.474 -0.0045  0.3026  0.0071
66474W        W 9490   1.222  33.088   2.891  0.2004 -0.2186 -0.0150
66475W        W 9491   3.043  29.014   3.491 -0.0485  0.0558  0.0288
66476W        W 9492  28.987   6.015   1.170  0.2561 -0.3712 -0.0347
66477W        W 9493   6.041  32.832  23.109  0.2000 -0.0266  0.2027
66478W        W 9494   9.275  27.927  15.333 -0.0576 -0.0146  0.0164
66479W        W 9495  21.836   2.233   5.758 -0.0433  0.0083 -0.0369
66480W        W 9496   8.273  17.130   2.048  0.0771  0.0262 -0.2077
66481W        W 9497  14.057  12.847  25.627  0.1339  0.2330 -0.1170
66482W        W 9498   3.261  15.844  26.475 -0.0696  0.1573  0.1254
66483W        W 9499   3.479   7.805  27.266  0.3036 -0.1139 -0.2005
66484W        W 9500   0.417  15.526  22.560  0.2135 -0.0888  0.2576
66485W        W 9501  34.239  11.588  27.492  0.0275 -0.2573  0.2875
66486W        W 9502   7.663   0.319  10.022 -0.3462  0.3748 -0.0605
66487W        W 9503   2.442   5.331  21.645  0.3843  0.1273  0.5393
66488W        W 9504  26.956   9.181   8.961  0.0636  0.2937  0.1135
66489W        W 9505   5.126  26.454   3.815 -0.0803 -0.0795 -0.0780
66490W        W 9506  26.983   8.158   2.628 -0.1759 -0.0560  0.2707
66491W        W 9507   4.720   1.419   8.809  0.2714  0.0253 -0.0314
66492W        W 9508   9.496   0.069  10.660  0.0550  0.4091 -0.1327
66493W        W 9509   4.947  10.683   8.449 -0.1581  0.1471 -0.1080
66494W        W 9510  23.866  32.317   2.420 -0.2673  0.2321 -0.0655
66495W        W 9511  13.244  31.613  25.333  0.3939  0.1730 -0.2065
66496W        W 9512  25.944  23.542  10.378 -0.2566  0.1121  0.0099
66497W        W 9513  14.545  26.744   3.578 -0.0004  0.1303  0.0515
66498W        W 9514   6.618  33.221   7.453  0.0443 -0.0113  0.0781
66499W        W 9515   1.588  26.201   4.045 -0.0587  0.1567 -0.1795
66500W        W 9516  13.474  29.454  10.650 -0.2436  0.2127  0.1033
66501W        W 9517  34.454  23.450   9.328 -0.0159  0.1114 -0.2660
66502W        W 9518  14.936  15.050   7.098 -0.1547  0.0997 -0.0457
66503W        W 9519  23.542  31.118   8.894  0.1948 -0.2448 -0.0025
66504W        W 9520   8.282   0.033   7.810  0.0189  0.1648 -0.5038
66505W        W 9521  12.337  34.557   9.655 -0.0439 -0.1825  0.2708
66506W        W 9522  18.469  26.034   1.982 -0.2358  0.0528  0.0276
66507W        W 9523  12.080  13.680  27.313 -0.1172 -0.5078  0.2759
66508W        W 9524  21.953   1.519  28.173  0.0459 -0.3660 -0.0370
66509W        W 9525  17.854  11.126   0.661 -0.0238  0.1728  0.0953
66510W        W 9526  33.260   6.113   1.163 -0.1353  0.2092 -0.0145
66511W        W 9527   8.407   8.759   6.486 -0.0752 -0.3139  0.0313
66512W        W 9528   9.766  32.863   6.558 -0.0645  0.0256  0.0588
66513W        W 9529  14.826  31.461  15.156 -0.0662  0.0703  0.0410
66514W        W 9530   9.364   6.742  10.572  0.1600 -0.3100  0.1880
66515W        W 9531  11.446  19.882  27.337  0.2091 -0.0252 -0.1874
66516W        W 9532  20.343  12.656  21.802  0.1061  0.2473 -0.1413
66517W        W 9533   2.575  21.907   9.187  0.1812  0.0758  0.1263
66518W        W 9534   0.468   8.387  28.380 -0.2252  0.1420 -0.3562
66519W        W 9535   1.942  32.457   9.338 -0.0832  0.1736 -0.2945
66520W        W 9536  21.402   0.106   6.151  0.0649  0.3176 -0.1086
66521W        W 9537  13.700  25.327   4.686 -0.3026  0.3614 -0.2002
66522W        W 9538  31.833  33.972  18.284 -0.1531 -0.1923 -0.1520
66523W        W 9539  14.534  34.497   1.225 -0.1327  0.1088  0.0786
66524W        W 9540  32.130  20.441  26.927  0.3541 -0.0678  0.1941
66525W        W 9541  11.412   5.355   6.549 -0.0106  0.0153 -0.1027
66526W        W 9542   8.925   4.323  28.171  0.1545  0.0575 -0.0582
66527W        W 9543   1.947  19.077  28.803 -0.1463 -0.1871  0.5618
66528W        W 9544  29.841   3.255  21.945  0.0661 -0.2094 -0.2264
66529W        W 9545   6.515  27.928   1.206  0.0080 -0.2787 -0.2212
66530W        W 9546  10.606  29.208  27.395  0.1170 -0.0605 -0.5304
66531W        W 9547  21.907  20.453   3.415 -0.3768 -0.2001  0.1554
66532W        W 9548  25.481  28.398  10.226  0.2400 -0.2520  0.2881
66533W        W 9549   8.013  25.362   3.686 -0.1272 -0.1124 -0.1006
66534W        W 9550   6.721  21.333   6.351  0.2941 -0.0699  0.1397
66535W        W 9551   6.692   5.691   9.358  0.0519  0.0362 -0.0561
66536W        W 9552  30.328  10.745  24.006 -0.0130 -0.0141 -0.0570
66537W        W 9553  12.262  13.636  29.257 -0.1802  0.2306  0.1886
66538W        W 9554  33.085  19.264  22.339  0.0615  0.0004  0.1840
66539W        W 9555   0.011   9.303   6.024  0.0220 -0.0404 -0.0004
66540W        W 9556  26.409  25.453   5.959 -0.0450  0.4769  0.1989
66541W        W 9557   2.928  22.025   6.011  0.1586  0.0448  0.2085
66542W        W 9558   6.619  32.610   8.629  0.0739 -0.1253  0.1743
66543W        W 9559   0.944   8.168   4.656  0.1797 -0.1606  0.1497
66544W        W 9560  32.808  28.888   2.261 -0.2264  0.0513  0.3619
66545W        W 9561   0.413   6.085   8.057  0.1600 -0.2651  0.2330
66546W        W 9562  23.786  10.158   8.778 -0.1384  0.0332 -0.0958
66547W        W 9563  25.260  23.264   9.821  0.0289  0.0876 -0.4128
66548W        W 9564   1.631  30.431   5.615  0.1924  0.0981 -0.0729
66549W        W 9565  19.329  21.028  21.345 -0.1304 -0.0756 -0.2504
66550W        W 9566   2.285  30.786   0.557 -0.0978  0.0852 -0.3211
66551W        W 9567  15.843   9.093  24.530  0.2581 -0.2011  0.5146
66552W        W 9568   9.224  21.387  25.315  0.1124 -0.0675  0.3690
66553W        W 9569   5.485  19.558   1.956 -0.0763 -0.0109 -0.0653
66554W        W 9570   1.836   8.739  20.473  0.1487 -0.1668 -0.1691
66555W        W 9571   2.004   3.036   8.621  0.0345  0.0829  0.0692
66556W        W 9572  12.101   7.107   0.642  0.0197 -0.0554 -0.0597
66557W        W 9573  21.063  24.748   1.580  0.3301  0.4440  0.0373
66558W        W 9574  13.816  11.069   1.518  0.3769  0.0134  0.1447
66559W        W 9575  13.371  34.559   0.643  0.1696  0.1014 -0.0747
66560W        W 9576   8.220  10.704   9.464  0.1722  0.0965  0.2018
66561W        W 9577  16.714   1.805   1.542 -0.2711 -0.0394 -0.0201
66562W        W 9578   9.177  10.917  28.660  0.1648  0.2051 -0.1546
66563W        W 9579   6.616   3.141  19.555  0.1958 -0.2845 -0.4937
66564W        W 9580  26.305  22.982   6.247 -0.2141  0.1458 -0.3464
66565W        W 9581  15.149   8.119  26.771  0.3411  0.0196  0.1695
66566W        W 9582  17.096  31.889  26.242  0.1453  0.0490 -0.0749
66567W        W 9583  16.992  26.701  14.940 -0.3872  0.2926  0.1198
66568W        W 9584  14.841  14.255   5.318 -0.0460  0.1260 -0.3904
66569W        W 9585   1.509  15.580  21.369  0.1962  0.2241  0.1553
66570W        W 9586   0.889   1.453   3.163 -0.1961  0.3392  0.0623
66571W        W 9587   7.611  33.168   0.639 -0.3002 -0.1193  0.0685
66572W        W 9588  27.294   3.312   0.280  0.0323  0.0844 -0.1057
66573W        W 9589  10.505   0.313  26.509 -0.2125 -0.1079 -0.1812
66574W        W 9590  27.203  25.426   9.859 -0.3182  0.0432  0.0420
66575W        W 9591   2.567  24.943  27.724  0.0850  0.1769  0.2539
66576W        W 9592  31.573  31.429   5.909  0.2476  0.1558  0.2698
66577W        W 9593  12.429  11.496  20.449  0.0292 -0.1187  0.0605
66578W        W 9594  10.486  31.628  10.336 -0.0731  0.1824  0.0788
66579W        W 9595   7.645  13.288   5.734 -0.0630 -0.1734  0.2688
66580W        W 9596  33.969   3.906   2.525 -0.0475 -0.0180  0.0923
66581W        W 9597  30.092  22.957  25.335  0.0049 -0.2544 -0.0745
66582W        W 9598  33.416   1.038   8.017  0.2536 -0.0196  0.3550
66583W        W 9599  32.799   5.710  10.730  0.2767 -0.3710  0.2142
66584W        W 9600  30.504   3.655  19.828 -0.2574 -0.2979  0.2305
66585W        W 9601  14.533   6.188   7.232  0.0017 -0.4874 -0.1183
66586W        W 9602  34.333  25.367   0.539 -0.0233  0.2458 -0.2600
66587W        W 9603   3.424  17.028   0.663  0.0473  0.1861 -0.3957
66588W        W 9604   5.655   8.832   7.643 -0.0091  0.3358  0.3126
66589W        W 9605   7.508  31.033  22.909 -0.0031 -0.0717 -0.0118
66590W        W 9606   8.810   8.971  28.859 -0.0667 -0.1890 -0.0762
66591W        W 9607  33.815  12.094   6.499  0.0197  0.1467  0.2522
66592W        W 9608   6.176   4.394  25.874 -0.2121  0.1041 -0.2196
66593W        W 9609   6.747   4.201   6.100  0.2749 -0.0084 -0.0747
66594W        W 9610  30.457   2.915   9.387 -0.1112  0.0039 -0.0371
66595W        W 9611   5.537   9.068   1.657 -0.0540 -0.0295  0.0312
66596W        W 9612  15.341   9.349  20.423 -0.3765 -0.1878  0.0809
66597W        W 9613   7.650  28.538   7.687 -0.0810 -0.0744  0.0404
66598W        W 9614   0.998  13.948  23.341 -0.0360 -0.0188 -0.0853
66599W        W 9615  30.375  11.637  22.425 -0.1182 -0.3061 -0.1601
66600W        W 9616   5.331  13.062   0.772  0.0160 -0.0575  0.1717
66601W        W 9617  15.501  21.780   6.042  0.0409  0.1770  0.0685
66602W        W 9618   9.116  12.801  25.063 -0.1327 -0.2570 -0.1168
66603W        W 9619  25.186  26.824   9.452  0.1393  0.2655  0.0282
66604W        W 9620   6.227  11.722  15.934  0.1339 -0.2245 -0.3786
66605W        W 9621   4.681  10.410  27.478  0.0562 -0.0941 -0.2560
66606W        W 9622  26.393   8.274   6.145  0.3237  0.0384  0.1006
66607W        W 9623   3.537  12.700  24.266 -0.0113  0.2218 -0.0836
66608W        W 9624  17.568  33.861   9.996  0.2651 -0.0824 -0.1845
66609W        W 9625   0.704   2.428  24.422 -0.0698  0.3247 -0.0332
66610W        W 9626   1.568   0.133   5.808  0.1714 -0.0600 -0.0771
66611W        W 9627   3.292  33.319   5.881  0.4138 -0.1605 -0.1548
66612W        W 9628  13.866  34.121   1.909  0.0710 -0.1315  0.2744
66613W        W 9629  27.053   4.598   7.219 -0.1579 -0.0303  0.3021
66614W        W 9630   7.381  16.906   3.800  0.0955  0.1106 -0.0946
66615W        W 9631  13.512   7.129  29.145 -0.1315 -0.0330 -0.0920
66616W        W 9632  22.260  31.644  22.828  0.1578  0.1785 -0.0122
66617W        W 9633  33.000  26.770  26.726  0.1328 -0.0004  0.0538
66618W        W 9634  11.460  10.536  26.938  0.2462  0.2598  0.0871
66619W        W 9635  24.796  29.562   4.755  0.2710  0.2246  0.0820
66620W        W 9636   8.698   2.408   1.948 -0.0737 -0.0643  0.1434
66621W        W 9637  15.216   1.393   5.664 -0.0265  0.0397 -0.2767
66622W        W 9638   8.140   1.895   7.164 -0.2208  0.3259 -0.4346
66623W        W 9639  20.553   2.663   8.806 -0.0204 -0.2436 -0.1207
66624W        W 9640  31.328   4.362  28.171 -0.1585 -0.0073  0.0076
66625W        W 9641  28.140  20.888  25.895  0.2324  0.1499  0.2870
66626W        W 9642  34.001   3.002  25.745 -0.1216  0.3368 -0.2560
66627W        W 9643  20.267  14.385  27.405 -0.0430 -0.2683  0.0860
66628W        W 9644   9.632  10.441   5.759 -0.0615  0.1090 -0.1612
66629W        W 9645   3.873   0.670  28.762  0.1269  0.1106  0.0423
66630W        W 9646   4.310  13.894   4.386  0.4528  0.0028  0.1304
66631W        W 9647  12.646   3.039   6.728  0.1098 -0.0391  0.0585
66632W        W 9648  28.592  30.101  26.719  0.0154 -0.0558  0.2914
66633W        W 9649   6.665  10.972   8.558  0.0576 -0.1206  0.0469
66634W        W 9650  21.228  28.773  19.936  0.2808 -0.2926  0.0886
66635W        W 9651   9.640   7.703   7.622 -0.2251  0.0302  0.1016
66636W        W 9652  31.866  24.775  11.021  0.0568 -0.2863  0.0179
66637W        W 9653   4.671  32.112   7.504  0.0233  0.0228  0.1149
66638W        W 9654  13.259   0.600   7.855  0.0524 -0.3677  0.1787
66639W        W 9655   2.501  10.699   1.664  0.1237 -0.3466 -0.2289
66640W        W 9656  34.294   9.489  15.818 -0.3847 -0.1987 -0.2479
66641W        W 9657  20.156  27.570  29.139  0.3751  0.1954  0.2284
66642W        W 9658   2.990  25.386   3.750 -0.6482  0.2163  0.1717
66643W        W 9659  11.870  15.448  26.440 -0.1593 -0.0471  0.0555
66644W        W 9660   8.355  10.022   9.254 -0.1861  0.1618  0.0299
66645W        W 9661   1.117   6.888   5.368 -0.0012 -0.0057  0.1148
66646W        W 9662  19.691  13.884   2.567  0.0512 -0.0041  0.1120
66647W        W 9663  27.463  12.085  25.885 -0.0588 -0.3156 -0.1730
66648W        W 9664  28.756   8.873   3.598 -0.3180 -0.0377 -0.1214
66649W        W 9665  12.813  24.249  27.602 -0.3986 -0.1199 -0.2612
66650W        W 9666  20.663  20.544  25.801  0.3158  0.1819 -0.1528
66651W        W 9667  27.253  23.346   9.366 -0.1978 -0.2667  0.3659
66652W        W 9668  16.064  11.368   8.516  0.0100 -0.0868  0.0872
66653W        W 9669  17.579   0.301   4.499  0.2078 -0.1649 -0.1072
66654W        W 9670   7.391  27.635   3.124  0.3415  0.2801 -0.0979
66655W        W 9671  15.091  34.676   7.859  0.0398 -0.0356 -0.3456
66656W        W 9672   1.212   2.398   0.671  0.2076 -0.1865 -0.2648
66657W        W 9673   6.823  13.776  20.196  0.1687 -0.0276 -0.2069
66658W        W 9674  20.340  25.548   9.147 -0.2299  0.0032 -0.2449
66659W        W 9675   2.717   1.269   2.210  0.0788 -0.1163 -0.2037
66660W        W 9676  13.672   0.267  10.358  0.0551 -0.4976  0.1628
66661W        W 9677   3.423  26.911   3.561  0.0013  0.2395 -0.0958
66662W        W 9678  26.869   8.454  27.560  0.2938  0.0681  0.0013
66663W        W 9679  26.881  29.653   9.917  0.1372  0.1419 -0.1483
66664W        W 9680  28.292  34.704   0.039  0.1619  0.1810  0.3757
66665W        W 9681   4.721   4.916  28.166  0.1090  0.0750  0.1598
66666W        W 9682   8.210  30.086   3.007  0.0764  0.0054  0.1413
66667W        W 9683   9.785   4.199   3.021 -0.3532  0.0210  0.1174
66668W        W 9684   5.678  24.511   3.907 -0.3114  0.0445  0.0050
66669W        W 9685  34.387  23.137  17.878  0.2415 -0.2959 -0.2629
66670W        W 9686  30.735  10.291  28.092 -0.0193  0.2960  0.1252
66671W        W 9687  32.830   3.239   8.414  0.0642  0.1653 -0.1143
66672W        W 9688  14.914  20.607   5.586  0.0515  0.0554 -0.1243
66673W        W 9689  30.202   6.383   2.346  0.1760 -0.2582 -0.0571
66674W        W 9690  18.245   6.553   7.370  0.4973 -0.2434  0.1790
66675W        W 9691   2.049  10.333   4.521  0.0452  0.2309  0.1605
66676W        W 9692  21.195  23.726   2.546  0.0390 -0.3264 -0.0256
66677W        W 9693  17.004  34.267  22.076  0.0436  0.0693 -0.0158
66678W        W 9694   7.650  11.128   1.013 -0.0351  0.0536 -0.1750
66679W        W 9695  12.161  33.572   4.616  0.0207  0.0657  0.1099
66680W        W 9696   8.101   7.770   9.168 -0.0449 -0.2628 -0.2736
66681W        W 9697  13.811   0.166   8.040  0.0827 -0.1214  0.1372
66682W        W 9698  32.521   9.630  24.915 -0.0819  0.2360 -0.0315
66683W        W 9699  11.364  15.781   1.320 -0.0103 -0.0805 -0.2458
66684W        W 9700  33.198  30.295  26.592 -0.1299  0.2722 -0.0191
66685W        W 9701   5.583   3.555   8.678  0.2067  0.1112 -0.0965
66686W        W 9702  21.896  31.282   8.433  0.0410  0.1230  0.1097
66687W        W 9703   2.503   4.283   5.071  0.2138  0.0521 -0.2218
66688W        W 9704   9.018  33.329  24.896  0.2511 -0.0871 -0.2816
66689W        W 9705  33.577  19.974  27.660  0.1508  0.0187  0.0368
66690W        W 9706  25.948   0.859   6.312 -0.2450  0.1960  0.1542
66691W        W 9707  20.773  33.601  23.357 -0.0264 -0.1037 -0.0718
66692W        W 9708  28.334   7.659   1.037  0.1807  0.3009 -0.2676
66693W        W 9709  27.403   0.477  26.544  0.0810 -0.0636  0.0018
66694W        W 9710   4.216  18.816  23.527 -0.0957 -0.1790  0.2033
66695W        W 9711  24.085  30.026  10.993  0.0411 -0.0657 -0.2511
66696W        W 9712  21.367   7.379   5.714 -0.3821  0.0864  0.0336
66697W        W 9713  24.968   3.791   8.833 -0.0278 -0.1921 -0.1861
66698W        W 9714   0.775  31.439   5.767 -0.0299 -0.2585 -0.0975
66699W        W 9715   6.379  32.361  28.863  0.0577  0.0151 -0.1392
66700W        W 9716  33.461   0.894  28.622 -0.1359  0.0310  0.0786
66701W        W 9717  20.326   7.704  24.782  0.2121 -0.0009 -0.0946
66702W        W 9718   5.103  29.051   9.762  0.0731  0.2471 -0.2202
66703W        W 9719   6.223  31.491   3.804 -0.0548  0.3120  0.0494
66704W        W 9720  31.582   8.991  16.638 -0.1938 -0.0148 -0.0026
66705W        W 9721   5.569  22.942   8.930  0.1846 -0.0847  0.0753
66706W        W 9722  33.444  11.177   9.218  0.3761 -0.0415 -0.2595
66707W        W 9723  16.475  27.574  25.273  0.0955  0.2076 -0.3906
66708W        W 9724  31.829   2.910   3.323 -0.1870  0.1177 -0.1920
66709W        W 9725  13.927  27.058  29.030  0.1547 -0.0016 -0.0281
66710W        W 9726   2.867   0.770  28.905  0.0653 -0.1184  0.1345
66711W        W 9727  30.457  17.772   4.646 -0.1124 -0.0149 -0.1866
66712W        W 9728   7.228  30.156  27.977 -0.0856  0.0125  0.0336
66713W        W 9729   0.045   2.413   8.839  0.0986  0.0677 -0.0094
66714W        W 9730  30.772   0.945  10.297 -0.1234 -0.2390 -0.0766
66715W        W 9731  11.225  30.721   3.639 -0.1792 -0.0511 -0.0357
66716W        W 9732  13.200   3.851   9.348 -0.0880 -0.1150 -0.0610
66717W        W 9733  24.227  22.265   1.205 -0.0206  0.1935 -0.3828
66718W        W 9734  12.075  27.424   8.114 -0.1591 -0.2639 -0.1350
66719W        W 9735   2.752  33.393   1.935  0.0761  0.1094  0.5099
66720W        W 9736  33.197  11.751   9.757 -0.5126  0.1444  0.0908
66721W        W 9737   4.528   2.542   6.237 -0.3137 -0.1270  0.2224
66722W        W 9738  34.147  34.588  29.008 -0.1856 -0.2970  0.1908
66723W        W 9739   2.098   8.916  27.896 -0.2121  0.1025  0.4184
66724W        W 9740  28.461   2.769   9.502  0.2051  0.0757  0.5139
66725W        W 9741  21.101  12.497  24.070  0.0830 -0.0063  0.1007
66726W        W 9742  30.551   7.231  21.493 -0.3956 -0.0938 -0.0369
66727W        W 9743   2.926  27.662  24.708 -0.3129 -0.1031  0.0578
66728W        W 9744  34.253  26.121  10.369 -0.2351 -0.0890 -0.1800
66729W        W 9745   1.962   6.487  28.455  0.1970  0.0063  0.3141
66730W        W 9746   5.566  15.024  24.659  0.1726  0.1425 -0.4725
66731W        W 9747   5.768   6.565   6.273 -0.1835 -0.1101 -0.0095
66732W        W 9748   3.927  33.637  17.349 -0.3293 -0.3616  0.4822
66733W        W 9749  11.601  14.457  26.292  0.0060 -0.0176 -0.0865
66734W        W 9750   6.335   6.738  16.118 -0.1616  0.2132  0.0954
66735W        W 9751   5.232  34.433   4.602 -0.1212  0.0721 -0.0186
66736W        W 9752   7.430  12.100  19.988  0.0143 -0.1950  0.1923
66737W        W 9753  21.271  31.172   9.244  0.1628 -0.0615  0.0269
66738W        W 9754  30.583  32.242   2.888 -0.0955 -0.2782 -0.0790
66739W        W 9755  29.134  31.041  27.364  0.0934  0.1938 -0.3181
66740W        W 9756   6.480   0.311   9.473  0.2357 -0.0175 -0.1935
66741W        W 9757   8.164  10.566   3.923 -0.3505  0.0012 -0.3265
66742W        W 9758   1.014  13.620  29.088  0.2246  0.1576 -0.0904
66743W        W 9759  29.224  27.774   7.976  0.0231  0.4051 -0.0397
66744W        W 9760  32.460  19.045   2.136 -0.1446  0.1506 -0.0094
66745W        W 9761  32.409  26.733   6.831  0.0104  0.0091  0.3285
66746W        W 9762   7.082  23.373   1.662 -0.2380  0.0709  0.2115
66747W        W 9763   2.425  17.844  10.059  0.0715  0.0505  0.0334
66748W        W 9764  32.587  20.505   5.468  0.0062 -0.3583 -0.0537
66749W        W 9765   7.253   1.464   6.769 -0.3334  0.0662  0.1478
66750W        W 9766   0.163  25.438   0.472  0.5911  0.1246  0.2058
66751W        W 9767  17.703   8.648  28.988 -0.0737 -0.1200  0.0959
66752W        W 9768   3.785  22.160   2.543 -0.2187 -0.4297 -0.1880
66753W        W 9769   8.100   6.264   4.782 -0.0846  0.1642  0.0395
66754W        W 9770   3.462  11.796   4.561  0.0722 -0.0770  0.2851
66755W        W 9771   4.289  29.284  24.398  0.1713 -0.1613 -0.0280
66756W        W 9772   5.613   6.655   0.886  0.0822 -0.4887  0.0420
66757W        W 9773   8.657   2.213  15.879  0.0487  0.1677  0.0226
66758W        W 9774   2.891   5.594  25.987  0.1092 -0.3862 -0.1320
66759W        W 9775  11.831   6.965   0.097  0.2188 -0.0242 -0.2849
66760W        W 9776   8.918  22.249  21.342  0.0626  0.0420 -0.2080
66761W        W 9777  20.256  30.224   5.817  0.0250  0.2827  0.2229
66762W        W 9778   2.049   4.506  28.344 -0.0786 -0.0395  0.2950
66763W        W 9779   1.019   1.629   7.035  0.1171  0.3935  0.0172
66764W        W 9780   4.407  33.678   7.103  0.0708  0.1687 -0.2732
66765W        W 9781  34.082   9.105   5.119 -0.0468  0.2281  0.4298
66766W        W 9782  31.443  10.284   7.934  0.3510 -0.0597  0.1238
66767W        W 9783   1.130  34.308  19.822  0.0445 -0.1061  0.0659
66768W        W 9784   5.536  16.757  19.029 -0.4097  0.0840 -0.0401
66769W        W 9785   8.143  33.793   9.932 -0.4012 -0.0462  0.2948
66770W        W 9786  14.043   3.266   8.051 -0.0190 -0.2390 -0.1220
66771W        W 9787  19.584   0.064   0.078  0.1825 -0.0414  0.1774
66772W        W 9788  17.573   3.858  15.397 -0.0042  0.2281  0.1961
66773W        W 9789  18.805   9.521   4.887  0.1700  0.0462 -0.0531
66774W        W 9790   8.428   9.429  25.333 -0.3289 -0.1909 -0.2112
66775W        W 9791  29.304   8.602  11.041 -0.2895 -0.0612  0.2515
66776W        W 9792  31.601  30.602  23.852  0.0697  0.0894 -0.0900
66777W        W 9793   8.809  28.581   9.431 -0.0473  0.1276 -0.1080
66778W        W 9794   7.572   6.339   3.512  0.0979  0.0577 -0.4079
66779W        W 9795   3.346  22.184  14.595 -0.1118  0.1271 -0.1145
66780W        W 9796   8.155   2.138  27.816  0.1542  0.4843  0.0764
66781W        W 9797   4.953  12.440   9.767 -0.0464  0.1717 -0.2439
66782W        W 9798   5.590  18.744   6.171  0.0076  0.1962  0.1247
66783W        W 9799  34.585  26.925   5.823 -0.0876 -0.2064 -0.1617
66784W        W 9800  16.601   6.028   1.916  0.0872 -0.2399  0.0798
66785W        W 9801   3.009   8.294   0.461 -0.2183  0.1003 -0.0248
66786W        W 9802   5.534  12.484   1.992  0.2399  0.2694  0.2894
66787W        W 9803   8.262  29.751   7.999 -0.0414  0.1958 -0.2108
66788W        W 9804   4.873  12.636   1.398  0.0402 -0.2461  0.0092
66789W        W 9805  18.585  20.498  23.404 -0.0352  0.1722  0.2229
66790W        W 9806  17.122  10.566   1.820  0.0028 -0.0509 -0.1520
66791W        W 9807  14.447   0.565  14.315  0.2978  0.2105  0.3876
66792W        W 9808   2.411   4.509  18.107  0.0346  0.0117 -0.1671
66793W        W 9809  31.117  23.852  22.909 -0.1154  0.5365  0.1274
66794W        W 9810  23.209   8.045   8.920  0.1889  0.2949  0.0233
66795W        W 9811  11.245  32.745   0.292  0.1801  0.1720 -0.0687
66796W        W 9812  19.128   8.020   5.831  0.2459  0.2005 -0.1311
66797W        W 9813  11.519   0.317  27.641 -0.1447 -0.0202  0.3222
66798W        W 9814  33.770   6.486  26.189  0.3186 -0.2412 -0.1317
66799W        W 9815   0.942   2.233  23.799  0.1719 -0.1168 -0.0677
66800W        W 9816  13.046  10.686   1.964 -0.0979  0.0601 -0.2575
66801W        W 9817  29.640  31.401   0.916  0.0568  0.1745 -0.0286
66802W        W 9818  33.975   0.645   1.954 -0.0010 -0.2710 -0.0471
66803W        W 9819  10.216   5.984  25.097  0.0603 -0.1418 -0.4064
66804W        W 9820  11.287  34.198  27.696 -0.0740 -0.0475  0.4323
66805W        W 9821  28.054  30.607  10.939  0.1063  0.1694 -0.3111
66806W        W 9822  12.504   4.719   4.282  0.1965  0.2892  0.0975
66807W        W 9823   7.602  23.659  17.849 -0.1067  0.1738  0.1627
66808W        W 9824   6.776  14.051  27.671 -0.0512  0.1210  0.0175
66809W        W 9825  22.931  14.801   7.732  0.2046  0.0390 -0.0029
66810W        W 9826  22.216  30.463   0.503  0.0275  0.0629  0.0742
66811W        W 9827   7.402  18.737  20.116  0.0943 -0.2757  0.0969
66812W        W 9828   3.658   4.120  26.322 -0.1470  0.2031 -0.1992
66813W        W 9829   6.599  23.666   9.480  0.3488  0.1976  0.2260
66814W        W 9830  13.649  17.944   0.035 -0.3821 -0.2244  0.3021
66815W        W 9831   7.931   0.731  10.642  0.1464 -0.0546 -0.1361
66816W        W 9832  14.517  14.548  20.293  0.1853 -0.1440 -0.1559
66817W        W 9833  10.247  33.961   4.855  0.2971 -0.1843  0.1368
66818W        W 9834   2.812   4.450  20.304 -0.1315  0.0049 -0.2671
66819W        W 9835  15.724  11.543   0.245 -0.0398 -0.0203 -0.3882
66820W        W 9836   6.985  26.381   1.413  0.3664 -0.0879 -0.3164
66821W        W 9837  13.866  29.979  28.924  0.1106  0.0075  0.2208
66822W        W 9838   4.991  27.507  21.732 -0.0748 -0.1188 -0.2432
66823W        W 9839   6.222   7.384   4.631 -0.0445  0.2309  0.1775
66824W        W 9840   0.798   1.961   4.108  0.0594  0.1942  0.1537
66825W        W 9841  25.685  15.687   5.219 -0.0302 -0.1296  0.1687
66826W        W 9842  10.080  33.072   7.500 -0.1895  0.0488 -0.2589
66827W        W 9843   4.444  34.557   9.845 -0.1737 -0.2986  0.0655
66828W        W 9844  21.121   0.186   7.189 -0.0855 -0.0882  0.2331
66829W        W 9845   0.212  12.167   2.169  0.1765 -0.1055  0.0545
66830W        W 9846  20.651  34.670   1.869 -0.1191 -0.1035  0.0937
66831W        W 9847   4.708  25.097   4.966 -0.0854  0.1434 -0.0630
66832W        W 9848  25.407  10.736  26.818 -0.3528 -0.0530  0.2307
66833W        W 9849  32.278  27.929   9.822  0.0467 -0.1050 -0.1639
66834W        W 9850   4.173   1.055  16.187  0.1200 -0.0533 -0.1759
66835W        W 9851  19.949  18.917   0.589 -0.0721 -0.1303 -0.0977
66836W        W 9852   7.278  18.718   1.855 -0.0052  0.1700 -0.2505
66837W        W 9853   8.936  13.342  27.883  0.0704  0.0224  0.1806
66838W        W 9854  14.519  13.388  13.006  0.0779 -0.3602  0.1189
66839W        W 9855   7.238  13.976  27.418  0.1820 -0.0010  0.1939
66840W        W 9856  12.812  11.174   6.823  0.3557  0.0476  0.1294
66841W        W 9857  11.992  12.330   0.813 -0.2556 -0.3052  0.1892
66842W        W 9858  12.489   5.935   8.284  0.0980 -0.0291  0.1044
66843W        W 9859  14.937  29.581  19.090  0.1715  0.1803  0.0215
66844W        W 9860  15.543   6.189  24.902 -0.0614 -0.1321 -0.0176
66845W        W 9861   1.126  29.462  15.859  0.0606  0.0197 -0.1458
66846W        W 9862   2.609   8.788  27.602  0.1168  0.0863  0.0396
66847W        W 9863  26.912  31.576  12.015  0.1026  0.0951  0.0011
66848W        W 9864   5.750  31.662  26.211 -0.0084 -0.2111 -0.2406
66849W        W 9865  25.329   2.875   0.260  0.0599  0.3701 -0.0788
66850W        W 9866  10.915  17.894   3.144  0.0007  0.0867  0.0700
66851W        W 9867  24.484  31.096   8.781 -0.0873 -0.0698  0.1537
66852W        W 9868   4.888  29.690   6.135  0.0903  0.1077 -0.2064
66853W        W 9869   3.467   6.449  19.187  0.1193 -0.1236 -0.2010
66854W        W 9870  15.386  11.880   6.330  0.1439  0.2071 -0.3849
66855W        W 9871  21.738   1.710   5.925  0.0198 -0.0562 -0.0220
66856W        W 9872  29.568  30.515  27.852 -0.0672  0.2391 -0.0484
66857W        W 9873  14.530  26.404   5.279  0.1606  0.1857  0.0940
66858W        W 9874  11.758   8.915   7.456 -0.0302 -0.2960  0.2425
66859W        W 9875  33.188  32.831   0.683 -0.1822  0.0712  0.0089
66860W        W 9876  33.217  32.907  25.341 -0.3099 -0.0246  0.0183
66861W        W 9877  20.002  15.927  19.387  0.2674  0.1401  0.3982
66862W        W 9878   3.284   5.066  16.902  0.0903 -0.1013 -0.2893
66863W        W 9879  29.380  28.865  27.466 -0.0726 -0.0673 -0.4170
66864W        W 9880  32.906  18.033  22.160 -0.0337  0.1812 -0.0181
66865W        W 9881  14.436   8.632   1.857  0.1560  0.3726 -0.3315
66866W        W 9882  32.877   0.934   2.505 -0.0944  0.0320 -0.2952
66867W        W 9883  12.515   5.548   6.414  0.1653  0.0176  0.0799
66868W        W 9884  13.552  29.914   2.029 -0.0378 -0.1928  0.2304
66869W        W 9885   3.836  11.224   8.997 -0.1147  0.0242  0.2189
66870W        W 9886  14.655   6.157   0.191  0.3204 -0.2652 -0.1120
66871W        W 9887   1.658  28.140   2.281  0.1130 -0.2469 -0.1383
66872W        W 9888  34.663  14.416   1.209  0.0272  0.0482  0.2147
66873W        W 9889   6.646   7.648  24.993 -0.0611 -0.1896 -0.0286
66874W        W 9890   6.086  17.603  26.406  0.1379 -0.0242  0.1420
66875W        W 9891  31.160   8.012  25.315 -0.0368  0.1905  0.2316
66876W        W 9892  22.579   4.272   4.309 -0.1575  0.2528  0.2917
66877W        W 9893  23.747  31.918  22.268 -0.2754  0.1281 -0.1431
66878W        W 9894   0.161  14.458  18.990  0.2464 -0.0912  0.1187
66879W        W 9895  10.038   4.374  18.448 -0.1237  0.3862  0.3072
66880W        W 9896   3.229  22.679  26.854  0.2890 -0.2255 -0.2216
66881W        W 9897  18.646  27.897   6.328 -0.3013 -0.3789 -0.2242
66882W        W 9898   2.973   2.031   7.507 -0.2824 -0.1880  0.2300
66883W        W 9899  30.301  30.080   7.320 -0.0827  0.3924  0.1701
66884W        W 9900   7.641  21.507  23.694  0.4128 -0.1168  0.3573
66885W        W 9901  26.664   3.898  21.193  0.1906 -0.1189  0.0082
66886W        W 9902   6.573  23.610  23.863  0.1605 -0.2498  0.0744
66887W        W 9903  27.923   7.431   7.386 -0.1004  0.4866 -0.1010
66888W        W 9904  29.294   3.564  26.378  0.0909 -0.0172  0.1692
66889W        W 9905   2.214  21.250   9.382  0.0331 -0.0998  0.2066
66890W        W 9906  18.296   0.572   6.638  0.3680  0.0455  0.0383
66891W        W 9907   4.351  27.741   5.434 -0.0482 -0.1167  0.1177
66892W        W 9908  31.442  28.138   7.482 -0.0612 -0.0565  0.2567
66893W        W 9909   5.140   4.276   9.170 -0.2287  0.2200  0.0860
66894W        W 9910   4.309  32.495   4.461 -0.0041 -0.1669  0.2222
66895W        W 9911  29.300  27.919   4.142 -0.0572 -0.0727  0.1909
66896W        W 9912  31.988  25.540  28.339  0.0840  0.0623 -0.0833
66897W        W 9913  32.449   9.368  25.774 -0.3251 -0.0157 -0.1753
66898W        W 9914  18.925   0.824   0.086  0.0708  0.0645  0.1765
66899W        W 9915  30.967  24.926   8.219 -0.3046  0.2787 -0.0952
66900W        W 9916  25.760   6.506   2.913 -0.0870 -0.0857 -0.1035
66901W        W 9917   1.526   2.454   6.159 -0.0251  0.0670  0.1195
66902W        W 9918  19.240   7.927   6.318 -0.1522  0.2219  0.0493
66903W        W 9919  19.983  15.752  28.289 -0.0507 -0.2001  0.0688
66904W        W 9920   8.075   7.415   9.654  0.3043 -0.0422 -0.1134
66905W        W 9921  28.063   5.919   8.822  0.3983  0.0879  0.2387
66906W        W 9922   3.365  17.127  27.312  0.0477  0.0654 -0.2935
66907W        W 9923   5.798   5.113  16.247  0.1588  0.1703  0.0267
66908W        W 9924  28.601   4.212   7.696 -0.0035  0.1033 -0.2498
66909W        W 9925  29.717   1.064  27.166  0.1221 -0.0836  0.3906
66910W        W 9926   5.667   2.706  28.458  0.1645 -0.2214 -0.1614
66911W        W 9927  33.026  34.511   4.392  0.0239  0.1629 -0.1294
66912W        W 9928  28.965  24.211  27.023 -0.0878  0.4270  0.0361
66913W        W 9929  18.704  14.561   6.498 -0.0884  0.3111  0.2676
66914W        W 9930   0.725   4.652   7.901  0.0634  0.0885 -0.4628
66915W        W 9931   9.666   2.530   6.764 -0.0979  0.1797 -0.0607
66916W        W 9932  17.238  20.987   5.074 -0.3509 -0.3145  0.1439
66917W        W 9933   2.859  12.912   4.053  0.1840  0.0247  0.1134
66918W        W 9934   6.214   1.477  26.677 -0.0693  0.5355  0.2098
66919W        W 9935  21.474  28.943   4.901  0.2500  0.3716 -0.1668
66920W        W 9936   1.082   5.486   4.085  0.1062  0.0255 -0.0848
66921W        W 9937   7.389  25.013  27.877  0.1551 -0.1274 -0.3114
66922W        W 9938  32.307  14.280   7.061 -0.0638 -0.1278 -0.0814
66923W        W 9939  15.386   1.980  20.499  0.0357  0.0404  0.2516
66924W        W 9940   1.393  30.504   9.943  0.1217  0.1251 -0.1472
66925W        W 9941  12.972  33.005  17.472 -0.1254  0.0615 -0.2097
66926W        W 9942   7.010  29.585   2.058 -0.1178 -0.2887 -0.1705
66927W        W 9943  32.656  32.822   0.251  0.1783  0.0530 -0.0091
66928W        W 9944   5.253  31.165   4.626  0.1215 -0.0040 -0.1353
66929W        W 9945   9.747  10.889   1.583  0.2543 -0.0272  0.0352
66930W        W 9946  25.121  15.548   0.973 -0.2181  0.2288 -0.0954
66931W        W 9947  12.989  18.922  26.748 -0.0304  0.1675 -0.1432
66932W        W 9948   8.140   2.701   9.809  0.0290 -0.1941  0.2372
66933W        W 9949  23.140   0.210   9.020  0.1531  0.0807  0.0638
66934W        W 9950  16.555   1.468   5.342  0.1290 -0.0722  0.1043
66935W        W 9951   0.200  30.140   0.559 -0.0492 -0.0740  0.0657
66936W        W 9952  10.263   5.887  20.723 -0.0073  0.1364  0.0252
66937W        W 9953  14.447  33.499   9.185 -0.0734  0.0836 -0.0320
66938W        W 9954  17.627  17.634   2.349  0.1805 -0.1364 -0.0097
66939W        W 9955  11.255  33.728  28.403  0.3147  0.3830  0.0539
66940W        W 9956   0.260   9.914   6.369  0.3083  0.1825 -0.0593
66941W        W 9957   0.639   2.585  28.128 -0.2725  0.0383  0.1338
66942W        W 9958   1.354  23.859   6.857  0.1593  0.0184 -0.1765
66943W        W 9959   1.969  30.426   6.012 -0.4490  0.4399 -0.4228
66944W        W 9960   5.460  21.964   3.870  0.0513  0.0235  0.2109
66945W        W 9961  13.746   6.331  19.682  0.2053  0.1844 -0.1652
66946W        W 9962   5.354  23.981   2.000  0.0430  0.0647  0.1139
66947W        W 9963  13.203   4.236   0.928 -0.2080  0.2790  0.0157
66948W        W 9964   0.540  21.739  25.970  0.1776  0.1494 -0.0295
66949W        W 9965  28.513  10.855  17.824  0.1813 -0.2034 -0.0508
66950W        W 9966  21.962  28.173   0.005 -0.2761 -0.2510 -0.0311
66951W        W 9967   4.079  33.835   5.676 -0.0730  0.0639  0.1452
66952W        W 9968   1.542  13.139  28.379  0.1113 -0.1023  0.1186
66953W        W 9969   3.190   2.269   8.048  0.0172 -0.1669 -0.3635
66954W        W 9970  12.676   2.459   0.086 -0.0626  0.0326  0.1800
66955W        W 9971  27.928   0.558  11.878 -0.0287  0.0312  0.4672
66956W        W 9972   8.975  10.787   8.205  0.1734  0.2100  0.1499
66957W        W 9973   6.258   4.646   0.237 -0.1498 -0.1243 -0.0608
66958W        W 9974  25.905  28.329  11.381  0.2823  0.0722  0.0000
66959W        W 9975   9.466  31.197   4.134  0.0537 -0.2165  0.1881
66960W        W 9976  11.446  28.353  13.664  0.0234 -0.0076 -0.4541
66961W        W 9977   4.032  30.202   7.162 -0.3566 -0.2188 -0.1243
66962W        W 9978   7.800   7.709   8.578  0.2722  0.1014  0.1370
66963W        W 9979  18.058   0.190   3.182  0.1522 -0.1621  0.0466
66964W        W 9980   2.264  18.692   2.483 -0.1968 -0.1516  0.1951
66965W        W 9981  14.048  14.042  20.981 -0.0964 -0.0886  0.4208
66966W        W 9982  21.377  11.159   3.332 -0.3468  0.1970 -0.1018
66967W        W 9983   6.674   5.311   3.886  0.2495 -0.2233 -0.3152
66968W        W 9984  25.193  18.045  26.296 -0.0131  0.2085 -0.3576
66969W        W 9985  29.798  15.968  27.481 -0.1377  0.1564 -0.0130
66970W        W 9986  11.107   7.231  25.681 -0.4357  0.2528  0.0404
66971W        W 9987  17.792  33.275   5.929  0.1644  0.1744  0.1119
66972W        W 9988  14.549  34.575  10.214 -0.3440 -0.0794  0.1254
66973W        W 9989  11.935  11.175   4.368 -0.0093 -0.1165  0.2829
66974W        W 9990  31.890  22.125  29.066 -0.2970  0.2193 -0.0725
66975W        W 9991   8.157   2.751   0.582  0.1120 -0.1545 -0.0121
66976W        W 9992   0.650  21.922   5.507  0.0887 -0.0417 -0.1216
66977W        W 9993   3.766  30.420   0.450  0.1737  0.0774 -0.0062
66978W        W 9994  32.872  11.970   8.661 -0.0436  0.0002 -0.0626
66979W        W 9995  23.659  27.250  27.739 -0.0861 -0.4386 -0.0811
66980W        W 9996  33.843   7.526  26.173  0.2265  0.0227  0.1674
66981W        W 9997  10.701  21.924   2.661  0.0388  0.0476  0.1556
66982W        W 9998   3.490  34.410  10.699 -0.1780 -0.0050  0.1895
66983W        W 9999  17.267  15.711   7.445 -0.1273  0.0313  0.1793
66984W        W10000  15.308   8.819  23.354  0.0624 -0.0565 -0.0660
66985W        W10001   8.462   7.904   3.608 -0.0160 -0.0282 -0.0596
66986W        W10002  18.622   6.451   1.591  0.1666  0.0007  0.0189
66987W        W10003  26.008   9.524  24.829  0.3800  0.1676 -0.2220
66988W        W10004  26.931  12.127   7.235 -0.1862 -0.3179 -0.0769
66989W        W10005   0.159  14.398   0.282 -0.0841  0.3143  0.0556
66990W        W10006  29.849   7.914   8.049  0.1523  0.1174  0.0808
66991W        W10007  17.581  29.722   3.779  0.2233  0.2558  0.1518
66992W        W10008   1.757   4.854   1.537  0.3295  0.2113 -0.3104
66993W        W10009  14.411   3.636   0.377 -0.1534 -0.1251 -0.0294
66994W        W10010  11.085   6.151  23.895  0.1587 -0.0256  0.0124
66995W        W10011  28.691   0.009   8.582  0.0537 -0.1719 -0.2536
66996W        W10012   0.213  25.942   6.872 -0.4306  0.1651  0.0316
66997W        W10013  13.682  29.941  25.719 -0.3655  0.0197 -0.2091
66998W        W10014  33.524  27.240   0.534 -0.1867 -0.2945 -0.3131
66999W        W10015  32.246   0.500  23.197  0.4162 -0.2338  0.0293
67000W        W10016   1.608   3.625   8.040 -0.1655 -0.1738  0.3081
67001W        W10017   8.306  33.594   4.300  0.2383 -0.1951 -0.0805
67002W        W10018   6.268  34.642   3.223 -0.1511 -0.0950  0.0687
67003W        W10019   5.572  29.136   6.647 -0.1589  0.2014  0.4530
67004W        W10020  26.557  12.431   3.446  0.0348  0.0281 -0.0294
67005W        W10021   2.262  25.081  28.652  0.0717  0.1989  0.1491
67006W        W10022  27.579  12.395   3.413 -0.3758 -0.0906  0.1396
67007W        W10023  32.071   3.625   9.304  0.3657 -0.2124 -0.2389
67008W        W10024  10.590   2.318  27.532  0.1200  0.1653  0.1182
67009W        W10025  27.927   6.742  11.475 -0.1869  0.1111 -0.2480
67010W        W10026  13.161   0.775   7.369  0.3465 -0.0301 -0.3699
67011W        W10027  33.696  30.263  24.643  0.3672  0.1575  0.0502
67012W        W10028   1.356   9.191  10.963  0.2124  0.2407  0.1712
67013W        W10029  31.650  33.093   7.243 -0.0395 -0.1756  0.1524
67014W        W10030  11.201   5.317   8.106  0.0200 -0.0452  0.0205
67015W        W10031  19.217  32.803   4.427  0.0929  0.0818 -0.0544
67016W        W10032   5.420   6.495   9.712 -0.2188 -0.1520 -0.0832
67017W        W10033  10.825  34.224   3.840  0.0660 -0.1443 -0.3022
67018W        W10034  33.864  29.540   4.607 -0.2633 -0.1740  0.1677
67019W        W10035  32.774  24.302   4.420 -0.3059 -0.3011  0.5063
67020W        W10036   9.081  23.757  17.068  0.5468  0.0664 -0.2285
67021W        W10037   3.367   4.782   1.145  0.2912  0.0600  0.0749
67022W        W10038   7.346  29.685   1.195  0.0951  0.1543  0.1359
67023W        W10039  11.325  30.253  25.538 -0.1344 -0.0097  0.0782
67024W        W10040   2.249  29.153   3.520 -0.0594 -0.3901  0.0088
67025W        W10041   3.245  17.537   4.613 -0.1137  0.2717 -0.0261
67026W        W10042  32.337  34.554   7.760 -0.0066  0.2269  0.1402
67027W        W10043   0.200   2.977   1.987 -0.1281 -0.0899  0.1038
67028W        W10044  25.077   8.559   6.058  0.0553 -0.0944 -0.0990
67029W        W10045  31.457  30.752   4.461 -0.0656 -0.2598 -0.1630
67030W        W10046  12.210   4.357   7.992 -0.0218 -0.0087  0.2187
67031W        W10047   2.378   4.616   9.794  0.2783  0.0310  0.1611
67032W        W10048  30.828   5.136   6.175 -0.2916 -0.1405  0.0791
67033W        W10049   2.615   0.553   7.958 -0.0265 -0.1279  0.1467
67034W        W10050  34.407  30.644   5.360 -0.1778 -0.1723 -0.0193
67035W        W10051  21.687   3.935   3.394  0.0122  0.2754 -0.0192
67036W        W10052   9.583  27.561   0.372  0.1034  0.3154  0.1907
67037W        W10053   2.721   3.428  23.236  0.0842 -0.1734  0.3734
67038W        W10054  20.385   0.402   6.404  0.1067 -0.0217 -0.1501
67039W        W10055  21.247   3.862   6.311 -0.3717 -0.4359  0.1402
67040W        W10056   8.112  26.192   8.642  0.1039 -0.0226 -0.0506
67041W        W10057   5.153   6.930   6.471 -0.0719 -0.0663  0.0658
67042W        W10058   1.474   0.159   1.945  0.0852  0.0274  0.3471
67043W        W10059   7.866  16.794   2.117  0.1594  0.1153 -0.1539
67044W        W10060   2.527  28.887   7.491  0.1623 -0.1229 -0.0257
67045W        W10061   0.687  24.064   9.719 -0.0409 -0.1156  0.2347
67046W        W10062   9.355   3.210  19.193  0.0825  0.1806  0.2779
67047W        W10063  34.723  22.269  28.425 -0.0068 -0.0366  0.1320
67048W        W10064  27.985  32.390  23.719 -0.1630 -0.1446  0.1380
67049W        W10065   9.172  28.650  25.033 -0.3324  0.2740 -0.2030
67050W        W10066  14.800   6.882  24.758  0.0767  0.0523  0.0654
67051W        W10067   5.643  25.954  27.608  0.0150  0.0104  0.2172
67052W        W10068   9.464   3.305  28.543  0.0391  0.1114 -0.0009
67053W        W10069  28.889  20.123  27.420  0.1812 -0.0438 -0.1310
67054W        W10070   1.454   2.342  21.835  0.1956 -0.4224 -0.1889
67055W        W10071  18.124  16.386   6.835 -0.0134  0.4079 -0.0959
67056W        W10072   2.127  31.911   6.257 -0.0497  0.1738  0.1051
67057W        W10073   4.100   5.857   2.297 -0.0677  0.1580  0.3348
67058W        W10074  22.105   2.117  10.153  0.1904 -0.1353  0.1103
67059W        W10075  12.574  18.167  28.476 -0.4143  0.1991 -0.0282
67060W        W10076   3.588   5.519   7.893  0.1856  0.2130 -0.1161
67061W        W10077  27.358  34.656   6.157  0.0046 -0.0192  0.0607
67062W        W10078  21.734  23.946   1.869 -0.1828 -0.3636 -0.0782
67063W        W10079  17.843   8.243   9.208 -0.0968  0.0130  0.0962
67064W        W10080  21.018   6.541   8.269 -0.0386  0.1299  0.1667
67065W        W10081  25.859  30.096  27.295  0.1989 -0.0338  0.0424
67066W        W10082   7.546  30.966   7.506  0.0045  0.2175 -0.2597
67067W        W10083  33.718  34.209   4.686  0.2491  0.3095  0.0280
67068W        W10084  11.561  34.438   5.211  0.0514 -0.2694  0.2477
67069W        W10085  12.893   3.058   3.374  0.1182 -0.0478 -0.0544
67070W        W10086  13.812  25.922   0.154  0.2147 -0.1969  0.0701
67071W        W10087  32.492  17.591  28.160 -0.2382  0.4772  0.3247
67072W        W10088  28.168  18.644   3.966 -0.2173 -0.3667 -0.0557
67073W        W10089  21.076  20.924  19.019  0.0449 -0.0956  0.2200
67074W        W10090   1.198   1.839  27.854  0.1121 -0.2782  0.0776
67075W        W10091  12.052  10.129   9.735 -0.2247 -0.0166 -0.0373
67076W        W10092  10.419   7.035   9.123 -0.2264 -0.0869  0.0496
67077W        W10093  15.555  25.002  28.796 -0.1247  0.0530 -0.1261
67078W        W10094   9.178  13.778   6.585 -0.4352  0.1461  0.2430
67079W        W10095  12.346  32.244   3.490 -0.2777  0.0364  0.0711
67080W        W10096   0.686   9.288  10.205  0.2652 -0.1391  0.3147
67081W        W10097   4.415  27.739   0.953 -0.1135  0.0098 -0.3539
67082W        W10098   2.643   8.646   6.261  0.2283 -0.2243  0.3049
67083W        W10099  11.757   9.660   3.841  0.0559  0.1357 -0.0293
67084W        W10100  29.897  31.314  10.427  0.1882 -0.1310 -0.1223
67085W        W10101  10.577   0.908   5.493 -0.2585  0.0325  0.1678
67086W        W10102  15.131  33.549   4.918  0.0251 -0.0401 -0.1024
67087W        W10103   3.487   4.489  27.813 -0.2057 -0.0995 -0.2953
67088W        W10104   1.189   5.941   8.512 -0.1080  0.0602 -0.1686
67089W        W10105  14.009   0.812   8.311 -0.0819 -0.0334  0.1518
67090W        W10106  17.371  32.509   7.441 -0.0073 -0.1301 -0.0561
67091W        W10107   4.139   1.691   5.387  0.2619  0.2698  0.0913
67092W        W10108   7.373   5.355   7.432 -0.2091 -0.1307 -0.1948
67093W        W10109  31.632  23.809   3.715 -0.2148  0.1811 -0.2792
67094W        W10110   3.482  30.285   2.628 -0.1528 -0.0718  0.4687
67095W        W10111   3.003  13.337   2.282 -0.1518 -0.1326  0.1243
67096W        W10112  30.094  12.034   2.816  0.1663 -0.0183 -0.1384
67097W        W10113  30.202  10.110   6.417 -0.0978 -0.1767 -0.1076
67098W        W10114  17.917  25.867   2.831 -0.0475  0.1503  0.1265
67099W        W10115   6.503   4.242  25.468 -0.0431 -0.1628  0.2227
67100W        W10116  27.412  12.098   4.776 -0.0007  0.1248  0.3770
67101W        W10117  33.913  12.572   5.162  0.4317  0.4254  0.2343
67102W        W10118   6.563   3.445  25.176 -0.1833 -0.0460  0.1071
67103W        W10119   6.066   5.165   0.376 -0.2966 -0.0316 -0.3917
67104W        W10120  13.291  13.210   7.329  0.1585 -0.2658  0.0681
67105W        W10121  26.701  21.730   3.171 -0.0873  0.0272 -0.0606
67106W        W10122  32.905  23.590   9.506  0.1326  0.4851 -0.1467
67107W        W10123  30.287   1.940   0.612 -0.0443  0.1453 -0.0630
67108W        W10124  17.897   6.586  18.724  0.0956 -0.1920 -0.2574
67109W        W10125   9.878   4.368   0.931 -0.0135  0.2520  0.3579
67110W        W10126   6.030   7.380   6.753 -0.0291  0.2144  0.2218
67111W        W10127   5.205   2.805  28.683  0.0501  0.1099  0.3302
67112W        W10128  10.922  14.794  17.078  0.2892 -0.0406 -0.3153
67113W        W10129   7.127  13.285   7.980 -0.2844  0.1858 -0.3734
67114W        W10130  14.974   8.566   9.494 -0.1528  0.0395 -0.1217
67115W        W10131  30.651  32.820  11.088  0.3246 -0.0163  0.1188
67116W        W10132  30.501  17.601   7.487 -0.0903  0.0004 -0.0687
67117W        W10133   6.142   2.252   4.753  0.0778  0.0065 -0.2514
67118W        W10134   2.497  19.232   7.434 -0.1603  0.2409 -0.0019
67119W        W10135  27.687  28.747   9.111  0.0300  0.0588  0.2621
67120W        W10136  32.191  30.452   7.029  0.0106 -0.4955 -0.2228
67121W        W10137  29.870  22.860   2.367  0.2245  0.3899 -0.0361
67122W        W10138  27.405  28.137   9.013 -0.1718  0.3042 -0.2058
67123W        W10139   6.714   4.989   7.760  0.0504 -0.0974  0.3716
67124W        W10140  33.389  33.622   1.118  0.1192 -0.1704  0.0289
67125W        W10141  22.978  21.719  28.118 -0.0784  0.0096 -0.2499
67126W        W10142  28.871  34.171   7.298  0.1084  0.2433  0.2082
67127W        W10143  18.618  10.878   4.892  0.1316  0.2691 -0.1853
67128W        W10144  30.542  32.855  27.035 -0.1691 -0.1671 -0.0427
67129W        W10145  10.666   0.396   4.319  0.3634  0.3110  0.1859
67130W        W10146  29.690   7.941   2.372 -0.1570  0.0004  0.1167
67131W        W10147  32.751  32.011   3.522 -0.1764 -0.2903  0.1569
67132W        W10148  16.026   2.668   8.228  0.4034 -0.2571 -0.0507
67133W        W10149   1.406  12.749   9.928  0.1648 -0.0101 -0.2202
67134W        W10150  22.124  24.446   0.911 -0.2587  0.2432 -0.2854
67135W        W10151  14.073  32.746   7.766  0.0653 -0.1790 -0.0141
67136W        W10152   6.149   9.639   3.983  0.0531 -0.0113  0.0895
67137W        W10153   6.035  11.640   9.343 -0.2022 -0.0658  0.0444
67138W        W10154   1.084  17.297   6.064  0.0862 -0.1102  0.1340
67139W        W10155   4.864  21.379   4.859 -0.0380  0.2479 -0.0137
67140W        W10156   6.560   3.855   3.381  0.1399  0.0563 -0.0293
67141W        W10157   4.420   3.036  26.423  0.1028  0.0139 -0.1814
67142W        W10158  14.446  16.907  26.949  0.3451 -0.3597  0.4598
67143W        W10159  28.349  17.462   7.870  0.2029  0.0379 -0.1548
67144W        W10160  34.198  23.088  23.845  0.2912 -0.2953  0.2568
67145W        W10161  18.644  23.937   8.083  0.2249  0.1036  0.1695
67146W        W10162   0.736  32.559   9.157  0.1516  0.3309  0.0437
67147W        W10163  26.908   7.120   2.979  0.1050  0.2611 -0.1319
67148W        W10164  33.832   3.196   6.103 -0.1626 -0.0412  0.1560
67149W        W10165  25.241  26.020  20.929  0.1503 -0.1985 -0.1791
67150W        W10166  20.536  11.061   1.278  0.0440  0.1778  0.4704
67151W        W10167   0.049  12.832  21.544 -0.3977  0.2208  0.0100
67152W        W10168  26.232  25.643   0.055  0.0175  0.3036 -0.0984
67153W        W10169  15.587  10.804  28.036 -0.0090 -0.0860  0.1319
67154W        W10170  25.118   0.100   2.241 -0.3688 -0.0321  0.3318
67155W        W10171  23.612  16.920  24.145  0.0029 -0.0735 -0.3697
67156W        W10172  23.694  12.760  22.516  0.2928  0.1071  0.1713
67157W        W10173  17.596  33.804   8.236  0.0533  0.0352 -0.0694
67158W        W10174  33.503  19.032   4.693 -0.1450 -0.1569  0.0619
67159W        W10175   6.234  26.635   6.359 -0.2665 -0.0788 -0.2804
67160W        W10176  15.989   9.061   7.534  0.0120 -0.3074  0.2727
67161W        W10177  27.037  28.076   8.273 -0.0915 -0.1019  0.0429
67162W        W10178   8.588   0.114  26.951 -0.1205 -0.1645  0.2765
67163W        W10179   0.236  26.834  24.146  0.0509  0.0496  0.0881
67164W        W10180   7.045   1.776  28.278 -0.1494 -0.1299 -0.1629
67165W        W10181  17.731   0.611  28.788 -0.0049  0.1338  0.0535
67166W        W10182  12.408  32.238   5.473  0.0748  0.0462 -0.2128
67167W        W10183  21.738  28.949   6.820  0.0510  0.0678 -0.2476
67168W        W10184  10.952  33.172   1.490 -0.1385 -0.0396  0.1313
67169W        W10185   1.506  31.578   7.721  0.2605  0.0528 -0.1464
67170W        W10186  23.321  30.102  10.773  0.0683 -0.2625 -0.0718
67171W        W10187   4.167  34.228   9.512 -0.0767 -0.1725  0.4618
67172W        W10188  21.555  27.372   7.105 -0.2206  0.3852 -0.1313
67173W        W10189  23.655  33.778   2.304 -0.0996 -0.1103 -0.3296
67174W        W10190   5.198   7.063  25.754  0.1784 -0.2076  0.0706
67175W        W10191   5.137  24.877  18.546  0.1509  0.0005 -0.0966
67176W        W10192  27.299  33.309   8.679  0.0390  0.2445  0.1385
67177W        W10193   4.639   1.287  10.000  0.1388  0.3355 -0.0034
67178W        W10194  14.128   1.467  24.971 -0.1947  0.2443 -0.1287
67179W        W10195   8.300   6.317   8.582 -0.2160  0.0822  0.2439
67180W        W10196  25.472   5.471   2.724 -0.0755  0.0164  0.1948
67181W        W10197  14.004   1.192  28.238  0.0173  0.4403 -0.0641
67182W        W10198  25.068  16.265  26.237 -0.1518  0.2297  0.1866
67183W        W10199  10.368  29.188   9.233  0.1463  0.2166 -0.0520
67184W        W10200  14.341   6.232   1.925  0.4653 -0.0817 -0.0222
67185W        W10201  11.169   4.725   9.654  0.3131 -0.2181 -0.2460
67186W        W10202  10.016   9.868   4.890 -0.3399 -0.2184  0.1773
67187W        W10203  33.363   3.498   1.497  0.2245 -0.3164  0.3308
67188W        W10204   2.647  30.242   4.638 -0.3840  0.4657  0.0007
67189W        W10205  10.542   2.616   2.010 -0.0890 -0.3144 -0.0004
67190W        W10206  32.520  30.361  29.141 -0.3303  0.0008 -0.0696
67191W        W10207   2.721   2.779   6.863 -0.0781  0.0112 -0.1499
67192W        W10208  23.131   5.686  20.733  0.1430 -0.0952 -0.2715
67193W        W10209   7.081  31.509   6.555  0.2779  0.1103  0.4038
67194W        W10210  24.532  29.850   7.666  0.1171 -0.2547 -0.0006
67195W        W10211  21.880  28.488   8.616 -0.2054 -0.2034  0.1375
67196W        W10212  17.051   8.791  28.891  0.0551 -0.2720 -0.1245
67197W        W10213  28.714  24.493   9.638 -0.1534 -0.1430  0.1434
67198W        W10214   7.092  29.080  18.153 -0.0833 -0.0217  0.2981
67199W        W10215  24.629   8.277   4.775  0.0198  0.3301  0.2158
67200W        W10216   4.373  19.299   8.215  0.1463  0.0257 -0.1739
67201W        W10217   5.848  21.183   8.540 -0.0848  0.1618  0.1698
67202W        W10218  12.875  25.771  21.105 -0.1681 -0.3018  0.0704
67203W        W10219  34.407   6.133   8.882 -0.2187 -0.0451  0.0695
67204W        W10220  17.242  11.237   0.396 -0.1927  0.3487  0.1939
67205W        W10221  15.801  11.436  21.282 -0.0903  0.5797 -0.2378
67206W        W10222   2.516   4.310  18.972  0.1563  0.1243 -0.0438
67207W        W10223  13.318  12.403   4.167  0.2004  0.3537 -0.2628
67208W        W10224  25.694  28.413  12.435 -0.0446 -0.0665  0.0696
67209W        W10225   8.929  21.404  21.425  0.0144 -0.3458 -0.1074
67210W        W10226  31.760  33.011   0.040  0.0819 -0.0795  0.0436
67211W        W10227  15.908   3.127   8.175 -0.0586 -0.0693  0.1911
67212W        W10228  28.184  16.530   1.551 -0.2075  0.1010 -0.2483
67213W        W10229  26.792   3.242  19.954 -0.1383  0.2045 -0.0514
67214W        W10230   3.977   3.050   2.423  0.0015  0.0324  0.0489
67215W        W10231   4.228   9.055  22.154 -0.2862 -0.2097 -0.0105
67216W        W10232  16.076  23.723  28.598 -0.1801 -0.0892 -0.1740
67217W        W10233  32.440  25.836   4.143 -0.0987  0.1468  0.2742
67218W        W10234   4.135  30.179  23.236 -0.0443 -0.1389  0.0415
67219W        W10235   1.481  13.594   5.818 -0.1244 -0.3396  0.3418
67220W        W10236   2.730   4.730  22.106 -0.2058 -0.0424  0.0340
67221W        W10237  12.366   0.686   5.292 -0.5920 -0.2911  0.1616
67222W        W10238   7.153  18.523  18.093  0.1871  0.2501 -0.1362
67223W        W10239  13.011  33.387   1.323 -0.0993 -0.0661 -0.0913
67224W        W10240   8.378  23.398  21.491 -0.0514 -0.2915 -0.0237
67225W        W10241   6.649   2.503  25.178 -0.0149  0.0364  0.2779
67226W        W10242  12.371  31.060  24.302 -0.3466 -0.0206 -0.3676
67227W        W10243  31.459   6.043  20.840 -0.1386 -0.0132 -0.0520
67228W        W10244  33.717  23.605  19.228  0.0945  0.0006  0.2785
67229W        W10245   9.553   9.257  24.627 -0.1939 -0.2692 -0.1156
67230W        W10246  32.857  13.589  10.690 -0.1723  0.2326 -0.1412
67231W        W10247  21.389   3.212   3.629 -0.1329  0.1181  0.1473
67232W        W10248  30.632  22.103  28.097  0.2139 -0.1388  0.2786
67233W        W10249   5.269  32.930   8.230 -0.2272 -0.1873  0.2087
67234W        W10250  13.913   0.967   1.045 -0.0463 -0.0684 -0.2844
67235W        W10251   6.263   9.564  27.078  0.2267 -0.0849  0.1455
67236W        W10252   4.490  24.421   1.759 -0.0866  0.2418  0.1341
67237W        W10253  11.542  18.584  26.458 -0.2364 -0.0110  0.2115
67238W        W10254  18.845   9.646  28.973 -0.0794 -0.0095  0.1031
67239W        W10255   8.611  11.018  20.526 -0.0610 -0.1713 -0.0213
67240W        W10256  32.468  11.790   3.392 -0.2666 -0.0860 -0.3667
67241W        W10257   1.641  18.794   5.447  0.2097 -0.3798  0.0744
67242W        W10258  12.934   3.749  22.004  0.1582  0.2732 -0.2066
67243W        W10259   0.045   7.701   8.968 -0.1793  0.0376 -0.1377
67244W        W10260   4.934  11.591  26.719 -0.0610 -0.0953  0.1429
67245W        W10261  13.996  31.051  26.974 -0.1982 -0.1672  0.0670
67246W        W10262  27.696  24.271   2.344 -0.2202 -0.1404  0.1953
67247W        W10263  23.523  33.489  27.688  0.5547  0.0994 -0.1455
67248W        W10264   6.609  28.322  28.521  0.1124 -0.0602  0.1098
67249W        W10265  10.859  20.127  28.414  0.0485  0.0478  0.1459
67250W        W10266   9.066  28.248   0.707 -0.4781 -0.3695 -0.4436
67251W        W10267  15.051   2.705   8.046 -0.2130 -0.1010  0.0313
67252W        W10268  31.648   8.268  19.922  0.3332  0.0315 -0.0460
67253W        W10269   9.276  34.458  10.369 -0.1926 -0.1830  0.4660
67254W        W10270   7.694   6.920   8.850 -0.0713  0.4125  0.0747
67255W        W10271  34.279  25.077  18.688  0.2257  0.1416 -0.0739
67256W        W10272  12.202  33.262   0.808  0.2401  0.0224  0.1836
67257W        W10273   8.417   5.315   0.456  0.1196 -0.1897  0.1861
67258W        W10274  32.175   7.899  26.362 -0.0631 -0.1228  0.0585
67259W        W10275  34.637  33.543  18.047 -0.2004 -0.1643  0.2146
67260W        W10276  14.045   8.403  23.368  0.2385 -0.0648 -0.1138
67261W        W10277   2.561   5.993  24.234 -0.3548 -0.1403  0.1467
67262W        W10278   2.591   1.835   1.524 -0.2714  0.2365 -0.0557
67263W        W10279  16.845  32.464   7.306  0.0033  0.1310 -0.2861
67264W        W10280   4.199  10.159   7.342 -0.2674 -0.0024  0.1892
67265W        W10281  30.974  31.634  27.340 -0.4505 -0.1220  0.2365
67266W        W10282  26.413  12.600  15.233  0.0664 -0.0053 -0.0668
67267W        W10283  19.954   9.976  13.439  0.1805  0.4859  0.3573
67268W        W10284  12.746   6.261   4.903 -0.0089  0.0181 -0.0579
67269W        W10285   8.747  14.925   4.281  0.1297  0.2424 -0.1829
67270W        W10286  12.056  32.565  25.053  0.2231  0.0138 -0.0552
67271W        W10287  12.061  17.510  19.160 -0.1538  0.2464 -0.0736
67272W        W10288  33.813  12.288  16.885 -0.1983  0.1027  0.1824
67273W        W10289   0.618   0.799   5.744  0.0271 -0.1457  0.0204
67274W        W10290   0.590   7.618  26.414  0.0274  0.2209 -0.2097
67275W        W10291  17.312  28.657  26.125  0.3562  0.1820 -0.0814
67276W        W10292   3.484  10.348   9.832  0.0803  0.4868  0.1381
67277W        W10293  25.632  30.321  20.192 -0.0301 -0.0546 -0.0991
67278W        W10294   4.176  13.915  20.163 -0.1585  0.0236 -0.2108
67279W        W10295  30.161   6.390  17.122  0.0409 -0.2547  0.2496
67280W        W10296  23.533  14.444   2.207  0.2226 -0.1752  0.0654
67281W        W10297   8.629   9.966  15.478  0.1379 -0.0101  0.1978
67282W        W10298   5.000   8.739   5.485  0.1304  0.0807 -0.1945
67283W        W10299  27.101  16.095  18.146  0.0222 -0.1188  0.1291
67284W        W10300  31.704  32.403  23.391  0.1055 -0.2325  0.1649
67285W        W10301   0.335  26.964   6.143  0.0291  0.1062  0.3153
67286W        W10302  12.200   1.110  28.123  0.0490 -0.1918 -0.0559
67287W        W10303  33.111   1.040   5.803  0.0492 -0.5344 -0.2761
67288W        W10304  32.008   7.993  23.825  0.1976  0.1924 -0.2597
67289W        W10305   1.802  18.455   6.316 -0.1974 -0.1081  0.0896
67290W        W10306  13.535   3.228   0.886  0.2672 -0.1279  0.2678
67291W        W10307   0.465  34.491   0.159  0.2718  0.0979  0.0380
67292W        W10308   5.689   2.141  28.552  0.0274 -0.3353 -0.0202
67293W        W10309  32.970  15.813  22.778 -0.2339  0.2732  0.3833
67294W        W10310  17.034   0.497  24.129  0.4195 -0.0060  0.0032
67295W        W10311   9.868   2.514  10.287 -0.1419 -0.0026 -0.1994
67296W        W10312   4.160  32.604  24.896 -0.1609  0.0811 -0.3030
67297W        W10313  14.448   4.478  10.124 -0.0127 -0.0337 -0.1049
67298W        W10314   2.914  20.816   3.039  0.0648  0.3445  0.0002
67299W        W10315   6.389  16.554   3.067  0.0085  0.2444 -0.0914
67300W        W10316   1.757   6.001   8.785  0.0614 -0.2012 -0.2998
67301W        W10317  31.794  28.879  17.876 -0.0983 -0.1018 -0.0328
67302W        W10318  30.503  13.050   0.596  0.0583  0.2793  0.2485
67303W        W10319  33.245   9.326  28.815 -0.0793  0.4426  0.0639
67304W        W10320  24.181  29.096   9.209  0.0030 -0.0295  0.0139
67305W        W10321  13.966  18.491  20.387  0.3951  0.1576  0.1701
67306W        W10322  14.955   1.265   2.854  0.1929  0.0063  0.1297
67307W        W10323  13.182   3.464  14.732  0.0534 -0.3659 -0.4178
67308W        W10324   9.830   3.556  28.289  0.1567  0.0665  0.1614
67309W        W10325   3.916  31.142  27.407  0.0571 -0.2164 -0.0550
67310W        W10326  34.067   8.587  28.872  0.0340  0.2248 -0.0378
67311W        W10327  32.508   7.418   0.857  0.3957 -0.1875 -0.0144
67312W        W10328   5.178   6.538   3.973  0.2404 -0.1131 -0.0492
67313W        W10329  22.114  26.291   2.899 -0.2768  0.0594 -0.0133
67314W        W10330  15.916   7.306   3.539 -0.0047 -0.1283  0.0870
67315W        W10331  12.943   6.908   5.627  0.0636 -0.0482 -0.2027
67316W        W10332   7.681  12.185   4.608  0.1684 -0.5072 -0.2271
67317W        W10333   5.253  29.886   9.280  0.0229 -0.0061 -0.1333
67318W        W10334  31.846   3.383  29.168  0.0895  0.4592  0.2701
67319W        W10335  22.248  31.996   5.457 -0.0821  0.0517  0.0474
67320W        W10336  11.345   0.251  26.273  0.0557 -0.2799 -0.1696
67321W        W10337  33.505   8.209   4.022  0.1694  0.0598 -0.2435
67322W        W10338   2.303  11.744   4.791  0.4318  0.0958  0.2526
67323W        W10339  24.857   3.637   2.394 -0.1886  0.2797 -0.3947
67324W        W10340  29.960  19.048  27.562 -0.1570 -0.0372 -0.0425
67325W        W10341   3.531   0.841   8.125  0.0836  0.0041 -0.0821
67326W        W10342   2.360   9.214  22.144  0.0172  0.0549 -0.1138
67327W        W10343  10.734   9.959   6.904  0.2492  0.0425  0.2941
67328W        W10344  30.331  14.418  26.412  0.2464 -0.0888  0.0512
67329W        W10345   3.808  30.577  28.300  0.1315  0.1463  0.1347
67330W        W10346   8.606  23.446  23.152  0.2504 -0.1491 -0.2641
67331W        W10347  34.735  14.501   5.431  0.0200  0.0220 -0.0642
67332W        W10348  20.257  28.241  24.492  0.1516  0.3224 -0.3885
67333W        W10349  22.822   9.904  29.108 -0.2005 -0.2702 -0.1202
67334W        W10350   6.248  14.349   4.855  0.0698 -0.0886 -0.1687
67335W        W10351   6.176  13.481  20.670 -0.0200 -0.1841 -0.1991
67336W        W10352   9.689  33.897  23.976 -0.1515  0.0068 -0.0346
67337W        W10353   7.456   8.675   5.168  0.1098  0.0587 -0.3313
67338W        W10354  15.751   1.898   9.527  0.2260 -0.3329 -0.0375
67339W        W10355  24.220   9.784  28.762  0.3370  0.0374 -0.2653
67340W        W10356   2.404   9.885  19.955  0.0239  0.2930  0.1145
67341W        W10357  21.401  29.758   0.289  0.0930  0.1177  0.0202
67342W        W10358   7.171   0.571   1.738  0.1805  0.0634  0.1269
67343W        W10359   8.911   3.801  10.386  0.2513 -0.3099  0.0534
67344W        W10360  20.814  13.299  26.402  0.1523  0.1572 -0.0066
67345W        W10361   9.585   9.372  21.106  0.6191  0.1735 -0.1113
67346W        W10362  25.883   7.601  24.673 -0.0328 -0.1631  0.0502
67347W        W10363   3.066   5.217   1.307 -0.0234 -0.0189 -0.2779
67348W        W10364  28.694  12.047  17.213  0.1299 -0.0349  0.0966
67349W        W10365  20.906   9.134   4.878  0.0395  0.2034  0.1791
67350W        W10366  27.203  20.881  10.028  0.2350  0.0407 -0.2157
67351W        W10367  27.961  12.402  16.778 -0.0776  0.0191  0.4923
67352W        W10368   8.037  23.028  24.681 -0.1956 -0.1037  0.1240
67353W        W10369   1.104   9.883   8.090  0.4260 -0.4042 -0.1006
67354W        W10370  10.715   9.014  24.959  0.0889  0.0853  0.0870
67355W        W10371  19.975  31.021   0.338 -0.3143  0.1479  0.0827
67356W        W10372  22.889   3.549   5.458 -0.0428  0.2550 -0.3854
67357W        W10373  26.424   5.441  22.941  0.0697 -0.0440  0.1956
67358W        W10374  33.852  30.378  10.353  0.0151  0.1607  0.0055
67359W        W10375   4.797  10.553  25.241 -0.0740  0.4360 -0.2000
67360W        W10376  10.222  21.921   7.807 -0.2807  0.1178  0.1278
67361W        W10377   5.445   1.116  24.126  0.1069  0.1514 -0.1722
67362W        W10378  10.109  29.784  24.258  0.1291 -0.1526 -0.1400
67363W        W10379   2.757  12.298   6.127 -0.2784  0.2864  0.1161
67364W        W10380   1.807   9.180   7.861  0.0003  0.4285 -0.2978
67365W        W10381  29.471  12.272   6.284  0.3416  0.0180 -0.1291
67366W        W10382   2.848   7.785   3.150  0.3497  0.1585 -0.0437
67367W        W10383   7.257   8.965   1.641 -0.1784 -0.3101  0.0050
67368W        W10384  22.901  30.086   5.924 -0.0299 -0.3554 -0.0584
67369W        W10385  23.276   9.410   4.605 -0.0647 -0.2787  0.0503
67370W        W10386  13.493  30.235   2.509  0.1021  0.0188 -0.0293
67371W        W10387  32.870   7.039  27.804  0.0430  0.1246 -0.1052
67372W        W10388  22.533  15.244  26.978  0.4198 -0.2223 -0.0978
67373W        W10389   3.767   6.099  27.481  0.0123 -0.1163  0.1604
67374W        W10390  16.963  18.840  20.754 -0.0905 -0.0735 -0.0283
67375W        W10391  11.957  17.330  17.199  0.2928 -0.0796  0.0726
67376W        W10392   1.679  19.717   0.582 -0.0290  0.0624  0.1462
67377W        W10393   3.767  33.045   0.839 -0.0911  0.0629  0.0614
67378W        W10394   2.516  13.378   7.491  0.1466 -0.2639  0.1630
67379W        W10395   2.974  18.978  24.924  0.1948 -0.1143 -0.0051
67380W        W10396   1.514  10.681   5.893 -0.3636 -0.0980  0.3013
67381W        W10397  32.931  33.539  15.100  0.0905  0.3097 -0.0368
67382W        W10398  24.935   8.250   9.937 -0.0844 -0.0415 -0.1723
67383W        W10399  28.602   3.149   4.684 -0.3467  0.2857  0.1181
67384W        W10400   3.017   7.883  27.752  0.1993  0.0641 -0.0080
67385W        W10401  20.254  32.546   8.427  0.0932 -0.2245  0.0167
67386W        W10402   7.677  31.708  14.204  0.2396 -0.1664 -0.1433
67387W        W10403  28.447  12.114  28.026 -0.0078 -0.1828  0.1310
67388W        W10404   9.892  34.116  20.683 -0.1667  0.3109 -0.1898
67389W        W10405  28.962  19.516  22.038 -0.1379 -0.0057 -0.0423
67390W        W10406  15.314   9.220   7.033 -0.0512 -0.0304 -0.2779
67391W        W10407  21.364  27.380  22.983  0.1902 -0.1755 -0.3661
67392W        W10408  14.011   3.088   4.785 -0.0517 -0.0561  0.2167
67393W        W10409   3.259   4.252  28.692 -0.1707  0.2191  0.0133
67394W        W10410  32.774  10.575  26.631 -0.1210 -0.0292 -0.0057
67395W        W10411  12.343  10.789  27.960 -0.1085  0.1419  0.0918
67396W        W10412   7.016  28.835  26.064  0.2001  0.0226 -0.0652
67397W        W10413  20.668  18.052   7.220 -0.2039 -0.1988 -0.0903
67398W        W10414   7.001  12.527   6.596  0.1163  0.2321 -0.2337
67399W        W10415   6.116  11.729  18.771 -0.0691  0.0670  0.0266
67400W        W10416  30.780  26.739   1.826  0.1501  0.0971  0.0485
67401W        W10417  24.131   2.571   4.664  0.2018  0.0376  0.0297
67402W        W10418   3.179   4.745  26.256 -0.3415  0.3697 -0.1142
67403W        W10419  21.559  23.847  26.373 -0.0661  0.1074  0.1179
67404W        W10420  11.757  14.826  22.151  0.0070  0.2281 -0.1731
67405W        W10421  34.489  22.539  19.391  0.0201 -0.0734  0.0205
67406W        W10422   2.126   3.511  10.304  0.0670 -0.0768  0.0802
67407W        W10423  34.621   5.341  20.314 -0.1027 -0.5179  0.4713
67408W        W10424  10.645  33.879  24.166  0.0213  0.4451 -0.0169
67409W        W10425   6.994  12.757   1.072 -0.0957  0.0515 -0.2015
67410W        W10426  16.110   6.905   4.779  0.1093 -0.2988  0.2229
67411W        W10427  11.070   6.134  25.502 -0.3234  0.0286 -0.0346
67412W        W10428   4.667  21.674  27.628 -0.0045 -0.3475 -0.2220
67413W        W10429  32.246   0.367  20.446  0.1137 -0.0382  0.2875
67414W        W10430   8.827   7.392   2.077  0.0516  0.2978 -0.0759
67415W        W10431   5.762  33.474  22.470 -0.1077 -0.0862 -0.1866
67416W        W10432  31.978  10.146  18.404 -0.2012 -0.2127 -0.0591
67417W        W10433  24.660  30.166   1.096  0.1260 -0.1528 -0.0011
67418W        W10434   3.854  21.996   8.396  0.1010 -0.2690 -0.0948
67419W        W10435  25.270   5.330  26.043  0.1794 -0.0324  0.1571
67420W        W10436   6.534   9.827   3.789  0.0649 -0.0749 -0.0849
67421W        W10437   0.955   2.698   9.694  0.3232 -0.0923 -0.5505
67422W        W10438   6.780   5.919  16.959  0.0351  0.2771  0.1011
67423W        W10439  33.513  34.545   0.329  0.4908  0.1049 -0.1162
67424W        W10440  20.232   9.588  26.750 -0.2773  0.0486  0.0442
67425W        W10441  34.332  31.682  26.380 -0.0017 -0.0507  0.1084
67426W        W10442   8.508  10.215  27.703  0.2171 -0.2149  0.0974
67427W        W10443  29.387  29.167   3.617 -0.2089 -0.1854 -0.1209
67428W        W10444  20.191  21.117  14.614 -0.0245  0.1525  0.1436
67429W        W10445   9.325   9.532   5.507  0.1503 -0.0997 -0.1270
67430W        W10446   3.305   6.188   7.293 -0.2081  0.1607 -0.1717
67431W        W10447  11.285  16.037  24.258  0.0586 -0.2276 -0.0169
67432W        W10448  27.623  16.323   6.357 -0.2723  0.4752  0.1277
67433W        W10449  11.991  11.671  20.089 -0.0331  0.0845 -0.1163
67434W        W10450   0.036   3.331  19.069  0.3790 -0.0809 -0.0064
67435W        W10451  34.381   9.563   7.066  0.0407 -0.4603 -0.3360
67436W        W10452   4.733  30.240  25.299  0.1102 -0.0536  0.3501
67437W        W10453  17.035  16.670  20.653  0.0228 -0.1284  0.3700
67438W        W10454   8.050   3.103   0.993 -0.1135 -0.1086  0.0219
67439W        W10455  13.520  34.138   4.399 -0.1178 -0.1018  0.2414
67440W        W10456  15.014   2.821   0.925  0.0243  0.0433  0.0355
67441W        W10457  20.657  12.204  21.009  0.1267 -0.1114 -0.2968
67442W        W10458  17.543  13.549  14.265 -0.0252 -0.0208  0.1590
67443W        W10459  12.399  11.498   3.536 -0.0075 -0.1101  0.1393
67444W        W10460  14.213  12.031   3.362  0.0312 -0.1527 -0.1263
67445W        W10461  11.962  26.935   5.651 -0.2312 -0.0508 -0.0444
67446W        W10462   1.419  22.739  22.214 -0.1429 -0.1989 -0.1987
67447W        W10463   9.698  13.611  15.448  0.0758 -0.0815  0.0486
67448W        W10464  13.235  25.897   1.443  0.1401 -0.1776  0.0912
67449W        W10465   7.250  32.879   3.031 -0.2347 -0.0320 -0.1133
67450W        W10466  14.823  19.642  26.110  0.1472 -0.1929 -0.1666
67451W        W10467  13.939   1.437   1.118  0.2134 -0.0962 -0.3313
67452W        W10468  21.379   5.150   5.509 -0.3032 -0.0984 -0.2444
67453W        W10469  25.873  25.673   1.736 -0.0370 -0.2347 -0.0139
67454W        W10470   3.751  16.445  25.885 -0.0075  0.0021  0.2552
67455W        W10471  18.246  21.809   2.232  0.0272 -0.1967 -0.0194
67456W        W10472  13.029   5.593  19.889  0.1254  0.2233  0.0114
67457W        W10473   6.608  31.601   7.876  0.0716 -0.3292  0.1268
67458W        W10474   9.404   4.619  23.408 -0.1317 -0.6181 -0.0014
67459W        W10475   0.906   9.043  26.215  0.1074  0.1487  0.2833
67460W        W10476   5.258  17.552  20.453 -0.0257  0.1905  0.1050
67461W        W10477  10.463   2.103   1.917 -0.0551 -0.2538 -0.1282
67462W        W10478  17.607  10.831   0.279 -0.0231 -0.1206  0.3352
67463W        W10479   2.998   1.559  16.799  0.0837  0.0940 -0.2460
67464W        W10480  27.848   1.463  25.921  0.1962  0.2336 -0.3154
67465W        W10481  25.789   3.794   1.838 -0.1528  0.0002 -0.1296
67466W        W10482   1.948   5.300   8.219 -0.2471  0.3363  0.0852
67467W        W10483  11.111   2.328   9.578  0.3487  0.0895 -0.2307
67468W        W10484   4.967  25.527   5.517  0.0117 -0.2312  0.1555
67469W        W10485  32.044  14.762   3.119 -0.2254  0.3094 -0.2949
67470W        W10486  27.474   5.553  21.875 -0.0694  0.1396 -0.0222
67471W        W10487  16.339  12.368   0.437  0.2672 -0.0680  0.1543
67472W        W10488  12.122   6.651  15.621 -0.0260  0.0638 -0.0879
67473W        W10489   2.190  10.846  15.454  0.2211 -0.0500  0.1825
67474W        W10490   3.264   7.010   5.644  0.0411  0.1656 -0.0082
67475W        W10491  17.232  26.490   1.832 -0.1716 -0.0096 -0.1751
67476W        W10492   5.453  33.060   2.654  0.2246  0.1818  0.4067
67477W        W10493  31.192   2.644  22.928  0.1176 -0.1806 -0.1276
67478W        W10494   4.422   3.191  24.291 -0.4071 -0.3297 -0.0376
67479W        W10495  10.478  19.604   5.576 -0.0185 -0.0672  0.3294
67480W        W10496  31.892   8.796   5.694 -0.0444  0.0470  0.0273
67481W        W10497  22.187   6.970  27.972  0.0193 -0.0348 -0.0654
67482W        W10498  15.007   9.552  20.799 -0.0303  0.2099  0.2052
67483W        W10499   8.405   7.170  26.534  0.0099 -0.0350  0.0600
67484W        W10500   4.902  30.992   1.806  0.1103 -0.1758  0.0636
67485W        W10501  31.735  25.745  23.708 -0.1290  0.2287  0.0902
67486W        W10502   5.220   3.462  28.018  0.1312 -0.0249 -0.0709
67487W        W10503  10.882   7.290  17.702 -0.1832 -0.0780 -0.0579
67488W        W10504   8.862  28.664  27.799 -0.1160  0.0003  0.0430
67489W        W10505  24.496  20.120  22.806  0.0500 -0.1224  0.3026
67490W        W10506  12.523  31.468   3.683 -0.2176  0.1533 -0.4293
67491W        W10507  34.543  16.758   7.071 -0.0862 -0.0045  0.2312
67492W        W10508  28.197  14.596  23.534 -0.0519  0.1098  0.0507
67493W        W10509   3.775  24.328   5.402  0.0849  0.2851 -0.2805
67494W        W10510   0.880  25.777   6.115 -0.3376  0.1834 -0.1861
67495W        W10511   1.385   0.490   5.360 -0.1793 -0.0002 -0.0047
67496W        W10512  17.360   2.681  18.763  0.3749  0.1757 -0.2015
67497W        W10513   6.886   8.698  20.052 -0.0368 -0.1230  0.0343
67498W        W10514  15.009  12.810   0.912 -0.3356 -0.1898 -0.3739
67499W        W10515  32.746  16.954  11.482 -0.4109  0.2513  0.1149
67500W        W10516  34.694   0.095   4.519 -0.2150 -0.1635  0.0193
67501W        W10517   6.553  11.081   4.293  0.0569 -0.0812 -0.1411
67502W        W10518  34.717  10.274   9.592  0.0594 -0.2212 -0.2145
67503W        W10519  22.930  12.570   7.938  0.0116  0.1111 -0.2535
67504W        W10520  27.161  31.459  27.688  0.1440 -0.2154  0.0466
67505W        W10521  33.418   8.233   7.664 -0.0993 -0.2249  0.0443
67506W        W10522   2.769   0.390   2.645 -0.3229 -0.0784  0.0760
67507W        W10523   2.233   8.252   7.692 -0.0084  0.0230  0.2520
67508W        W10524  18.022  13.397   0.776  0.4211 -0.1367  0.1299
67509W        W10525   3.862  10.790  25.803 -0.0505 -0.0826 -0.3054
67510W        W10526  14.073  10.641  25.379 -0.1444  0.1944  0.1548
67511W        W10527   3.923   7.319  27.999 -0.1436 -0.1620  0.1358
67512W        W10528   0.361   2.091   9.076 -0.0025  0.3098  0.3017
67513W        W10529  31.296  15.492  17.458  0.0777 -0.3525  0.0789
67514W        W10530  31.929  25.774   0.031  0.2473  0.0400  0.1672
67515W        W10531   5.829   3.534   7.824 -0.0085 -0.2235 -0.2278
67516W        W10532  26.547   8.911  22.831  0.4435 -0.1016  0.1322
67517W        W10533   9.847   8.102  21.514  0.0115  0.0635 -0.2447
67518W        W10534  32.104  17.257  16.825  0.2278 -0.0828  0.0551
67519W        W10535  29.193  32.993  27.016  0.0136  0.2366  0.0158
67520W        W10536  18.266   7.879  26.753  0.0442 -0.4813  0.1784
67521W        W10537  10.128  12.675  24.902  0.2542 -0.1873  0.1331
67522W        W10538   9.458  33.185  22.528  0.0084  0.0349 -0.5046
67523W        W10539  20.641   8.080  17.282  0.1482  0.1391 -0.2364
67524W        W10540  30.454  11.070   5.505 -0.0282 -0.2331 -0.0878
67525W        W10541   2.137  30.085  15.199 -0.0450 -0.1888  0.2070
67526W        W10542  28.694   3.945   3.295 -0.0605 -0.0720  0.1116
67527W        W10543   4.493   3.096   7.898  0.0427  0.2580  0.0174
67528W        W10544  13.580  25.433   3.734 -0.1451  0.2891 -0.3250
67529W        W10545  21.325   5.880   3.628  0.0201 -0.2293 -0.0836
67530W        W10546   3.912   8.357   6.763 -0.3128 -0.2383  0.1284
67531W        W10547  17.152  12.334   5.328  0.0979 -0.0395 -0.2365
67532W        W10548   9.555   8.447   3.479 -0.1169  0.4332 -0.0084
67533W        W10549   5.098  34.756   9.461 -0.1821  0.0798 -0.1163
67534W        W10550   8.539   7.128   9.508  0.0251 -0.2809 -0.2716
67535W        W10551   8.434   3.925   5.762 -0.2133 -0.1341  0.1701
67536W        W10552   3.252  15.162   6.226  0.0177 -0.2367 -0.0016
67537W        W10553   4.495  33.828   9.406 -0.1381  0.0508 -0.1037
67538W        W10554  26.442   8.777  28.439  0.1899 -0.1721  0.1925
67539W        W10555  12.090  11.680  24.177 -0.2474  0.2047  0.5581
67540W        W10556  25.066   5.579  27.235 -0.0547 -0.1365  0.0583
67541W        W10557  12.431   9.546   6.001  0.0158 -0.0841 -0.0703
67542W        W10558   4.000   0.805  19.449  0.3306  0.0677 -0.1339
67543W        W10559  10.176  33.071  22.110  0.0651 -0.2474 -0.1660
67544W        W10560   7.532   2.184  21.929  0.2411  0.3681  0.1577
67545W        W10561  29.842  31.157   2.371  0.0719  0.0606  0.0330
67546W        W10562  20.676   1.619   6.446 -0.0422 -0.2988  0.0078
67547W        W10563  10.015  11.573  15.451  0.0152  0.1096 -0.0707
67548W        W10564   3.337   7.686  21.354 -0.0611  0.2831 -0.0042
67549W        W10565   0.304   5.083  23.096 -0.2310  0.1702  0.0996
67550W        W10566   7.698  18.685   3.066  0.1630  0.1809  0.0005
67551W        W10567   8.900   3.535  24.155 -0.2786  0.3323  0.1730
67552W        W10568  18.270   1.725  14.572 -0.1062  0.0020  0.2796
67553W        W10569   9.224  20.268   4.248 -0.1095 -0.0878 -0.2528
67554W        W10570  29.250  28.260   7.816 -0.1251 -0.0607  0.2043
67555W        W10571  22.495  28.506   4.315 -0.1832 -0.2066  0.1199
67556W        W10572   9.022  31.684   1.557 -0.1682 -0.2801 -0.2291
67557W        W10573   2.469  13.899   7.273  0.0034  0.0499 -0.1250
67558W        W10574  11.785   2.208  10.858 -0.1751 -0.0902  0.0251
67559W        W10575  32.329  24.203   4.716 -0.1675  0.2395  0.3989
67560W        W10576  24.627  18.427   1.679  0.2963 -0.0583 -0.0298
67561W        W10577  14.888  34.392   3.645 -0.2310  0.1934 -0.3172
67562W        W10578   4.823  28.037  22.867  0.0699  0.2439 -0.3332
67563W        W10579  11.488   2.455  17.575 -0.1350 -0.0423  0.1437
67564W        W10580   6.692   0.963   7.396  0.4341 -0.1144 -0.0899
67565W        W10581  29.695   8.143  20.724 -0.0742 -0.0028  0.0587
67566W        W10582   3.614  31.222   0.468  0.4211  0.1293 -0.3313
67567W        W10583   6.998  19.602  23.091  0.1045 -0.0737 -0.0664
67568W        W10584  29.963  11.627   6.407 -0.1051  0.4204  0.1629
67569W        W10585  21.819  15.365   1.854 -0.0351  0.0239 -0.1694
67570W        W10586   2.663   6.642  24.884 -0.0968  0.3340  0.0209
67571W        W10587   5.339  25.331  28.324 -0.2367  0.0417  0.0446
67572W        W10588  18.390  11.100  29.064 -0.0623  0.2190  0.0694
67573W        W10589  10.806   8.071  10.159  0.0694  0.0619 -0.2690
67574W        W10590  10.527  10.180  19.296  0.0584  0.0557 -0.0742
67575W        W10591  29.067   0.194  27.673  0.1179 -0.2336 -0.1044
67576W        W10592  25.910   9.203   3.959  0.0966  0.0708  0.1194
67577W        W10593   8.053  11.265  14.276  0.1145 -0.0294 -0.0230
67578W        W10594   6.169   4.859  28.037 -0.4136 -0.0819  0.1434
67579W        W10595   2.998  12.036  16.849 -0.1111 -0.1635 -0.0881
67580W        W10596  33.505  16.615   6.192  0.1837  0.2254  0.0778
67581W        W10597   1.127   6.002  25.817  0.4385  0.1952  0.2630
67582W        W10598   3.426  20.254   9.986  0.0684 -0.0406 -0.1679
67583W        W10599  18.734   6.832  26.088  0.0683  0.0745 -0.0545
67584W        W10600   2.575   8.707  22.161  0.4500 -0.3263 -0.1368
67585W        W10601   8.912   3.343  23.102 -0.0245 -0.1564  0.0310
67586W        W10602  33.220  23.695   1.021  0.1988 -0.0857  0.0236
67587W        W10603  20.578   7.476  21.436  0.2752 -0.3433 -0.2198
67588W        W10604  16.065   4.686   9.413  0.0218  0.2806 -0.0262
67589W        W10605  17.135  15.934   1.217  0.0153 -0.1012 -0.0778
67590W        W10606   2.644  21.371   6.738 -0.0658  0.0037 -0.2160
67591W        W10607   9.599  31.315  21.417  0.0504 -0.2124  0.1790
67592W        W10608   5.313   5.543   1.734 -0.0767 -0.1695 -0.0460
67593W        W10609  11.712  16.118   3.030  0.2629 -0.0425  0.2230
67594W        W10610   5.588  15.889   1.004 -0.1210 -0.1131  0.2492
67595W        W10611  15.066  18.801  27.473 -0.0369 -0.5983  0.1732
67596W        W10612  10.548  29.769   5.068 -0.1359  0.2681 -0.1074
67597W        W10613  17.029   5.583   3.037 -0.1923 -0.0924 -0.2003
67598W        W10614  34.142  31.249   8.424  0.1910  0.0342 -0.1278
67599W        W10615  32.412   9.245   7.806  0.0397 -0.0922 -0.1344
67600W        W10616  23.009  16.090   7.430 -0.2501 -0.2702 -0.1213
67601W        W10617   3.889  34.459   7.483  0.0076 -0.2867 -0.2666
67602W        W10618  10.851  29.454   8.334  0.2082 -0.0953  0.0770
67603W        W10619  33.080  21.095   9.839  0.0226 -0.3246  0.0501
67604W        W10620  11.391  12.852  27.154  0.2530 -0.0744 -0.0984
67605W        W10621  24.536  30.688   8.356  0.1111 -0.2273  0.0128
67606W        W10622  22.453   0.953   6.124  0.0915 -0.1617  0.0415
67607W        W10623   7.698   5.705   0.798  0.0757  0.2744  0.0703
67608W        W10624  24.481  22.410   6.535 -0.3508  0.0661 -0.1758
67609W        W10625   5.337  12.270  23.961 -0.1153  0.1527  0.0553
67610W        W10626  11.975  24.212  25.149  0.2611  0.4911 -0.1377
67611W        W10627  15.676   4.540   0.410 -0.3303  0.0900 -0.3401
67612W        W10628  23.166   5.387   3.355  0.1054  0.0868 -0.3474
67613W        W10629  10.272  27.083   1.120  0.1602 -0.1809 -0.2811
67614W        W10630  29.061  26.588  16.959  0.3270 -0.1552  0.1455
67615W        W10631  22.765   7.248   4.008 -0.1685 -0.2464  0.0198
67616W        W10632  27.603  28.821  11.047  0.0858 -0.3428 -0.0160
67617W        W10633  27.045  25.746  19.276  0.0881  0.3450 -0.1288
67618W        W10634  21.358  14.828   0.704 -0.1696 -0.0979  0.2361
67619W        W10635  14.997  33.162   0.354  0.2234  0.2100  0.0911
67620W        W10636  25.588   9.264   4.898 -0.0197  0.3404  0.2044
67621W        W10637  31.221  10.216   1.846 -0.0097  0.1557  0.0461
67622W        W10638   4.598   8.931  16.061 -0.1300  0.1713 -0.3057
67623W        W10639   2.211   5.739   8.696  0.0455 -0.0082 -0.0620
67624W        W10640  25.969  30.428  20.581  0.3386 -0.0393  0.1612
67625W        W10641   8.356  20.943   4.795  0.0496 -0.0274  0.2611
67626W        W10642   6.037   4.662   7.023 -0.3630  0.1313  0.0546
67627W        W10643   6.530  13.117  25.053 -0.1185  0.0631  0.1153
67628W        W10644  16.966  30.980  16.101  0.1012  0.0450  0.0769
67629W        W10645  25.138   4.725  10.243  0.0417 -0.1869  0.0999
67630W        W10646   1.617  13.690  15.439 -0.2111 -0.3269  0.0955
67631W        W10647  25.348   8.467   3.074  0.1214 -0.1331  0.1852
67632W        W10648   6.088   0.445  10.555  0.5272  0.1892 -0.2433
67633W        W10649  18.935   5.591   0.908 -0.2303 -0.1023 -0.0122
67634W        W10650  32.288  23.043  10.160  0.3911  0.2718  0.2064
67635W        W10651  10.354  13.087  17.756 -0.1631  0.0574  0.2514
67636W        W10652  16.856  14.912   7.764 -0.0532  0.0722  0.0827
67637W        W10653  17.385   9.278   5.246 -0.2011 -0.2426  0.1825
67638W        W10654  10.152   7.548  27.680 -0.2761  0.1007  0.0444
67639W        W10655  23.502   7.422  28.995 -0.0397  0.0568 -0.2935
67640W        W10656  25.291  13.355   2.407  0.2107 -0.2652  0.1644
67641W        W10657  10.284  12.555  21.023 -0.3001 -0.0118  0.0655
67642W        W10658   3.795   0.674   9.690 -0.1260  0.2000 -0.0513
67643W        W10659  16.474   3.491   5.992 -0.0954 -0.1652 -0.2283
67644W        W10660  19.455  30.206   4.763  0.1273 -0.2300  0.1560
67645W        W10661  19.626  16.787   0.715 -0.1127  0.1586 -0.2732
67646W        W10662   6.565   7.648  22.751  0.4329  0.1501 -0.0096
67647W        W10663  17.524  16.317   0.833 -0.1210 -0.1693  0.2573
67648W        W10664  34.268  32.981   9.987 -0.2112 -0.1174 -0.0936
67649W        W10665   8.247   8.892  27.983  0.2792  0.0329  0.1946
67650W        W10666   6.891  13.590  24.801  0.1890  0.3759  0.0764
67651W        W10667   6.972   1.547   8.081  0.0684 -0.0743 -0.0049
67652W        W10668  18.423   1.699  15.032  0.3113 -0.1403  0.2495
67653W        W10669  33.420  32.301   9.126  0.1872 -0.0620  0.2525
67654W        W10670  31.140   0.932   8.713 -0.0700 -0.1277  0.0935
67655W        W10671  17.097   4.170  25.824  0.2548  0.1304 -0.6084
67656W        W10672   1.692  11.795   9.984 -0.2376  0.1110  0.1705
67657W        W10673   7.968   4.269  22.756 -0.0304 -0.2795  0.2093
67658W        W10674  32.240  16.032  27.804 -0.1178 -0.3695 -0.1074
67659W        W10675   6.974  16.610  29.199 -0.2187 -0.1624  0.3710
67660W        W10676  34.725   1.509  28.692 -0.1843  0.2272  0.3107
67661W        W10677  20.061  25.278  23.299  0.0875  0.1074  0.1133
67662W        W10678  15.452  27.627   8.592  0.0271  0.1120 -0.2859
67663W        W10679  30.317  33.554   8.367  0.2969  0.0197 -0.0844
67664W        W10680   5.945   1.863  27.881 -0.4387 -0.3482  0.0929
67665W        W10681  23.965   8.617  20.283 -0.2594 -0.0437  0.2769
67666W        W10682   3.569   2.567   0.533  0.3177  0.1290  0.0880
67667W        W10683  15.424  12.700  25.796  0.1597 -0.1788 -0.1742
67668W        W10684  22.505   2.531  26.660 -0.0537  0.0730 -0.1366
67669W        W10685  19.161   9.040  26.222  0.4174 -0.1896  0.1786
67670W        W10686  28.550  23.776  29.281  0.0910 -0.1834 -0.2254
67671W        W10687  15.166   6.617  26.392 -0.2410 -0.0603  0.2844
67672W        W10688   6.265   5.923  10.401  0.2192 -0.1274  0.1039
67673W        W10689  14.923  21.892  16.061 -0.1634  0.1068 -0.2997
67674W        W10690  27.738   4.024  21.958 -0.0411  0.0228  0.0168
67675W        W10691  11.160   3.189  28.115  0.0726  0.2312 -0.4197
67676W        W10692  32.289  12.741  19.077 -0.0653  0.0681 -0.4287
67677W        W10693  28.091   0.166  21.706  0.0227  0.0865  0.2357
67678W        W10694   8.006   6.207   5.689 -0.0081  0.0366 -0.2091
67679W        W10695   2.022  10.915  20.586 -0.0308  0.1597 -0.0461
67680W        W10696  13.562  12.629  21.355  0.3977 -0.2547 -0.1923
67681W        W10697  15.749  16.012  13.021 -0.2660  0.1034 -0.1056
67682W        W10698  26.516   5.236   8.764 -0.1358  0.1854  0.1204
67683W        W10699   7.002  18.703   3.288  0.1533 -0.2051 -0.5011
67684W        W10700   2.517   6.350  23.466 -0.1576 -0.1772 -0.0605
67685W        W10701   2.215   2.828   8.215  0.3017 -0.0027 -0.0869
67686W        W10702   0.358   2.691   5.084  0.0903 -0.2468 -0.1413
67687W        W10703   3.333  14.369   6.014 -0.2267  0.2952  0.1000
67688W        W10704   1.789  22.652   1.592 -0.0735 -0.0299 -0.1766
67689W        W10705   5.424  31.870  25.937 -0.2025  0.2127 -0.1282
67690W        W10706  34.314   7.637   8.680  0.0144 -0.0137 -0.1375
67691W        W10707   1.747   0.267  28.121  0.0835 -0.1703 -0.0327
67692W        W10708  31.401  11.822   2.156  0.1395 -0.0894 -0.0660
67693W        W10709  10.654  12.762   3.812 -0.1845 -0.1278  0.1622
67694W        W10710  22.583  31.955   9.418 -0.0596  0.3862  0.3755
67695W        W10711  10.822   7.074  26.080 -0.1060  0.0227  0.2202
67696W        W10712  18.937   9.800  13.565  0.0603 -0.1069  0.2277
67697W        W10713  34.363   1.380   5.813  0.0956  0.3563  0.1389
67698W        W10714  28.270  10.486   6.090  0.1144  0.0030 -0.1277
67699W        W10715  12.078  10.469  28.862  0.3124 -0.0072  0.2944
67700W        W10716  32.577  28.270  10.147 -0.2576 -0.1908 -0.2014
67701W        W10717   4.213  34.269   6.321 -0.1740 -0.0520  0.0092
67702W        W10718  14.286   9.748  25.350 -0.5840 -0.0054  0.1311
67703W        W10719   3.196  19.921  23.656 -0.1677  0.0062 -0.1048
67704W        W10720   9.292  13.199   4.619 -0.3561 -0.2016 -0.2746
67705W        W10721   3.664  25.294   2.846 -0.2671 -0.5295  0.0710
67706W        W10722  16.629  19.700  20.373 -0.1777 -0.0690 -0.0900
67707W        W10723   6.154   8.531  26.499 -0.0273  0.0020  0.3040
67708W        W10724  24.358  26.782   4.493  0.1630 -0.1901 -0.2955
67709W        W10725  10.240  31.226  22.532  0.1869  0.2159  0.1106
67710W        W10726   3.247  21.862   5.620 -0.0052  0.1857 -0.3619
67711W        W10727  28.234   9.228  15.743  0.3038 -0.3308  0.1732
67712W        W10728   1.450  10.692  27.272 -0.0115  0.0507 -0.2474
67713W        W10729   7.917   9.793   9.425 -0.0608 -0.0710 -0.1802
67714W        W10730  15.098   7.847   0.969 -0.0926 -0.0297  0.2467
67715W        W10731   8.862  16.108   8.631  0.1321 -0.2326  0.0269
67716W        W10732   7.167  11.160   8.678 -0.3301 -0.0681 -0.1225
67717W        W10733  14.745  18.048   1.247  0.1648  0.2601 -0.0584
67718W        W10734   5.681  11.168   5.116 -0.0139 -0.0002  0.0776
67719W        W10735   4.672  20.778  17.991  0.2259 -0.2144  0.0419
67720W        W10736   2.407   8.755   1.742  0.1110 -0.3003 -0.1388
67721W        W10737   5.973  21.409  26.875  0.1324  0.0214  0.0515
67722W        W10738  13.298   0.676  17.977  0.0718  0.0990 -0.3065
67723W        W10739  25.659  13.706   0.202 -0.2862  0.1848  0.0752
67724W        W10740   3.265  11.472  28.599 -0.2600  0.1098 -0.0779
67725W        W10741   2.492  15.654   2.504  0.0164 -0.1607  0.1529
67726W        W10742  20.942   7.337   0.758 -0.0629  0.0744 -0.0361
67727W        W10743   6.720   4.096   0.823  0.2120 -0.4514  0.0670
67728W        W10744   9.078  13.170  21.302 -0.0659 -0.0304 -0.1869
67729W        W10745  14.104  28.875   9.305 -0.0911 -0.3825  0.1416
67730W        W10746  32.987  15.579   2.117 -0.0862 -0.1263 -0.0975
67731W        W10747   3.040  11.227  17.795  0.1913  0.1066 -0.0574
67732W        W10748   5.317  32.305   1.464  0.3057  0.2017 -0.0491
67733W        W10749  15.320  14.189   3.070 -0.0293 -0.0243  0.1258
67734W        W10750  29.618  12.989   5.034 -0.1260  0.0038  0.2165
67735W        W10751  14.512  32.966   7.866  0.0906  0.1965  0.2759
67736W        W10752  12.373   0.404   4.819  0.0339  0.0536  0.1200
67737W        W10753   8.695   4.257   3.877 -0.0669 -0.0046 -0.1427
67738W        W10754  11.788   6.471   4.986 -0.3775  0.1137 -0.2098
67739W        W10755   8.430  18.799  26.306  0.0755 -0.1857  0.1926
67740W        W10756   2.182  34.586   6.671  0.1353  0.0931 -0.3201
67741W        W10757  26.111  32.645  23.502 -0.3103  0.4080  0.1335
67742W        W10758  28.082   8.230  26.980  0.1647  0.0209  0.2351
67743W        W10759  24.137  10.641   7.333 -0.0352  0.0098 -0.0262
67744W        W10760   9.052  31.664  20.504  0.2159  0.1256 -0.0895
67745W        W10761   3.936  10.952  26.943  0.0476 -0.0926  0.4650
67746W        W10762   3.292  13.167  16.170  0.0113  0.1590 -0.1284
67747W        W10763  10.620   3.842   5.265  0.1407  0.0382  0.2295
67748W        W10764   3.933  25.652   6.006  0.0308  0.0484  0.3215
67749W        W10765  11.707   3.920   1.953  0.0541 -0.3830  0.1520
67750W        W10766   2.897  15.070  21.444  0.1396  0.1733 -0.1587
67751W        W10767  15.128  11.407  13.731  0.0758 -0.1757 -0.0116
67752W        W10768   4.157   5.189   1.757 -0.2476 -0.2115  0.4083
67753W        W10769  30.337  23.868  25.816  0.2216  0.2419 -0.0791
67754W        W10770  12.661   1.921  27.534 -0.2525 -0.1100 -0.0997
67755W        W10771  17.416  30.154   3.491  0.0940 -0.2768 -0.0100
67756W        W10772   1.815  13.247   7.339 -0.1646 -0.1147 -0.3333
67757W        W10773   7.046  27.189   5.619  0.2252  0.3017  0.0327
67758W        W10774  21.265   8.204  22.497  0.1096  0.1378 -0.0643
67759W        W10775   0.092  28.377  29.002 -0.1198  0.0162  0.0427
67760W        W10776  13.197   5.470  10.014  0.1107  0.3201  0.0525
67761W        W10777  29.657   9.780  10.085 -0.1999 -0.2753 -0.0816
67762W        W10778  25.573   8.720   7.115  0.1054 -0.0996 -0.2482
67763W        W10779  25.646  13.390   9.524  0.0362  0.1407  0.1685
67764W        W10780  15.256   9.554  22.776 -0.1789 -0.0704  0.1720
67765W        W10781   2.667   8.307   2.536 -0.0231  0.0528  0.0034
67766W        W10782   8.821  28.540   8.727 -0.1745  0.2674  0.1777
67767W        W10783  21.807   7.247  29.221  0.1449 -0.0226 -0.1293
67768W        W10784   9.790   5.197   7.054 -0.0186  0.0906  0.0391
67769W        W10785  30.757  12.199   9.582 -0.3328  0.0047  0.2190
67770W        W10786   4.191   2.845   2.850 -0.2190 -0.1412 -0.2062
67771W        W10787  25.345  23.681  29.014  0.0781  0.0646 -0.2870
67772W        W10788  17.407  34.647  27.868 -0.1365  0.3880  0.2614
67773W        W10789  29.434   9.063   7.210  0.2871  0.0003  0.0497
67774W        W10790   9.636  13.518   8.771  0.0266 -0.0371  0.0989
67775W        W10791  27.678   4.268   3.515  0.1118 -0.2697  0.0704
67776W        W10792  13.120  13.004   2.013  0.0506 -0.1129  0.0600
67777W        W10793  17.100   3.241   0.192  0.0688  0.0996  0.2093
67778W        W10794  33.927  11.021  23.963 -0.0064  0.1497  0.0218
67779W        W10795   0.080  21.503  24.541  0.2131  0.3928 -0.2158
67780W        W10796   8.009  31.314   2.989  0.0774  0.3427 -0.0585
67781W        W10797   6.924  28.919   5.026  0.0399  0.2048  0.0039
67782W        W10798  23.275   2.877   2.340  0.1019  0.1025 -0.0043
67783W        W10799   0.674  15.605  23.517  0.0647 -0.1833  0.1704
67784W        W10800   0.355  32.652  15.846 -0.3310 -0.1317 -0.0668
67785W        W10801   2.688   5.839  28.982 -0.0081  0.2450 -0.0557
67786W        W10802  16.447  11.918   7.555  0.0332 -0.0499 -0.0729
67787W        W10803   5.891  10.096   7.865 -0.0758 -0.2022 -0.0695
67788W        W10804  12.254  31.605   6.394  0.0342  0.1767  0.0337
67789W        W10805  28.220  31.874   7.117 -0.0147  0.2004 -0.3425
67790W        W10806  30.105   9.693  27.569 -0.1015  0.0680  0.1329
67791W        W10807  31.367   6.457  24.510  0.0357  0.3278 -0.0237
67792W        W10808  30.853  31.847  23.552 -0.2723  0.4576 -0.0646
67793W        W10809   7.424  13.151  21.016 -0.0032  0.0689  0.0421
67794W        W10810  26.861  25.530  10.400  0.0136  0.0819 -0.0099
67795W        W10811  28.989  11.047   2.894 -0.2244 -0.4114  0.3095
67796W        W10812   2.815   7.500   5.010 -0.1840 -0.0958  0.1274
67797W        W10813  31.720   1.026   3.513  0.0317 -0.5416 -0.0239
67798W        W10814   0.899   2.744   5.184  0.1543  0.1852  0.0820
67799W        W10815  29.234  21.802   2.281  0.2116 -0.1194  0.3771
67800W        W10816   0.745   7.710  19.105 -0.1395  0.1743 -0.1095
67801W        W10817  16.363  33.566   6.951  0.2336  0.3200 -0.2011
67802W        W10818   7.875  12.942  28.310 -0.2535 -0.1218  0.0438
67803W        W10819  13.087  14.871  26.597  0.0233  0.2978 -0.1089
67804W        W10820  21.111   7.369   6.927 -0.1319  0.0484 -0.0088
67805W        W10821  17.925   1.885  28.636 -0.4800  0.1119  0.0807
67806W        W10822   6.005  17.051   8.638  0.1818  0.0917  0.2228
67807W        W10823  15.533  11.659   6.745 -0.0989 -0.1539 -0.5122
67808W        W10824  15.929  34.157   5.406  0.2730  0.0590 -0.2455
67809W        W10825  15.221   1.903   7.017  0.0811  0.3806  0.2979
67810W        W10826   2.576   3.016   3.933  0.2818  0.0824  0.1612
67811W        W10827   0.502  31.465   3.421 -0.2097 -0.1005 -0.2617
67812W        W10828  20.117  11.073  24.212 -0.0907  0.0100 -0.1616
67813W        W10829   5.132  25.170   8.732 -0.0011 -0.1617 -0.3605
67814W        W10830  20.896  18.025  23.319 -0.0231  0.3003  0.0575
67815W        W10831  23.352  12.595   3.628  0.0841  0.0820 -0.0864
67816W        W10832   1.379  29.821   2.484 -0.1493 -0.1958  0.0635
67817W        W10833  33.413  25.842  19.669  0.3265 -0.3877 -0.1783
67818W        W10834   0.654  31.679   2.035  0.0271  0.0895  0.0208
67819W        W10835  25.036  30.803  21.965 -0.0453  0.3057 -0.1257
67820W        W10836   1.428   9.090   9.412  0.1523  0.1272 -0.0499
67821W        W10837  10.882   9.922  26.909  0.0241 -0.1518  0.1933
67822W        W10838  29.867  14.116   2.375 -0.0874  0.0723 -0.2869
67823W        W10839  12.680  18.210   6.011  0.0367  0.2991  0.1367
67824W        W10840   6.239  30.405   0.522 -0.1621 -0.0114  0.0193
67825W        W10841   1.273   6.182   5.742  0.2008 -0.0638 -0.4238
67826W        W10842  23.234   0.650   2.491  0.3027 -0.1034  0.1196
67827W        W10843  34.252   5.177   6.836  0.3836 -0.1723  0.1942
67828W        W10844   3.523  28.753  19.246  0.0568  0.0155  0.3930
67829W        W10845  27.352  27.952   6.682  0.1292  0.4774 -0.0737
67830W        W10846   0.704   1.590   7.832  0.2523  0.0741 -0.0111
67831W        W10847   8.746  14.117  23.667 -0.2212 -0.1175 -0.0257
67832W        W10848  34.357   0.757  28.735  0.0499 -0.0459  0.0293
67833W        W10849  17.231  27.662  19.163  0.2759  0.1684 -0.0732
67834W        W10850   4.808   0.339  25.875  0.1904  0.0925  0.0049
67835W        W10851   2.172  26.233  26.551  0.1736  0.3103  0.0387
67836W        W10852   7.021   4.863   3.102  0.0046  0.2422  0.0109
67837W        W10853   7.076  10.480   3.193  0.2167  0.1398 -0.0627
67838W        W10854   0.235  26.590   9.312  0.0472 -0.0959 -0.0636
67839W        W10855  26.745   6.175  25.430  0.0221 -0.1167  0.3661
67840W        W10856  13.422  10.467   1.376  0.0401 -0.0018 -0.1934
67841W        W10857  34.468   3.618   2.638  0.1423 -0.1632 -0.1365
67842W        W10858  14.484  18.746  26.460  0.2030 -0.2189  0.0681
67843W        W10859  29.270  19.198  23.871  0.1608 -0.4113 -0.2659
67844W        W10860  10.670   0.573   6.491  0.1223  0.3353 -0.0748
67845W        W10861  34.401  10.932   7.226  0.1963  0.1514  0.0253
67846W        W10862  31.784  32.012   8.517 -0.0430 -0.2826 -0.1251
67847W        W10863  15.903  27.766   5.833 -0.0288 -0.2575 -0.2410
67848W        W10864  13.922  28.662   3.494 -0.0206  0.1992  0.1432
67849W        W10865   3.279   4.513   4.898 -0.2379 -0.0745  0.0553
67850W        W10866  10.828  23.742  22.401  0.2143  0.0121 -0.1202
67851W        W10867   8.048  31.719   8.955  0.2810  0.2207  0.0909
67852W        W10868   2.729  12.655   4.499  0.0551 -0.2498 -0.1322
67853W        W10869  13.776  29.798   4.736  0.0317 -0.1022  0.0410
67854W        W10870  30.796   6.489  15.952  0.0202  0.0303  0.1816
67855W        W10871  34.080   4.516  27.340 -0.0092 -0.2274  0.0296
67856W        W10872   4.617   6.062  28.467  0.1917 -0.2772  0.2419
67857W        W10873  33.343  24.100   1.313 -0.0460 -0.0418  0.2170
67858W        W10874   4.566  34.314   8.492  0.1570 -0.2837  0.0618
67859W        W10875  12.106  26.722   8.572 -0.2290 -0.0921  0.1957
67860W        W10876  34.414  25.093   0.087 -0.0063  0.0872 -0.0517
67861W        W10877   0.298  23.460   6.156 -0.0671  0.3910 -0.3620
67862W        W10878   6.476   6.371  28.875  0.0621  0.2247 -0.0724
67863W        W10879   3.518   5.510  19.425  0.1239  0.3662  0.0388
67864W        W10880   7.460  34.649   9.887 -0.2057 -0.2401 -0.1194
67865W        W10881  16.000  14.042  24.895  0.2216 -0.2913  0.3145
67866W        W10882  19.151   5.419   7.892 -0.0784 -0.1750 -0.4002
67867W        W10883  13.260   4.533   3.756  0.0453  0.1314 -0.4842
67868W        W10884  15.553  33.377   2.132  0.1629  0.0392  0.2027
67869W        W10885   8.343   9.875   5.713  0.1027 -0.3816 -0.0423
67870W        W10886  29.151  16.339  14.784  0.0828  0.0624  0.0068
67871W        W10887  10.121   4.879   4.463 -0.0436 -0.0239  0.0082
67872W        W10888  34.501   0.982   4.105  0.0905 -0.3208  0.1639
67873W        W10889  14.695  12.973   4.705  0.0602  0.5204 -0.0616
67874W        W10890  33.711  12.442   0.440  0.0502 -0.0083  0.2517
67875W        W10891  16.185   2.938  19.562  0.2249  0.1181 -0.0240
67876W        W10892   4.254   7.595  26.577 -0.1810  0.1422  0.5902
67877W        W10893  23.741   1.910  18.977  0.2780 -0.1895  0.0032
67878W        W10894   7.863  25.027  13.485  0.1275  0.3890  0.3102
67879W        W10895  33.352  29.962  26.199 -0.1434  0.3011 -0.0103
67880W        W10896  27.591  11.090   5.718  0.2541 -0.2858 -0.2465
67881W        W10897  14.590   8.877  25.750  0.0509 -0.0296 -0.0860
67882W        W10898  31.892  12.244  25.102 -0.1321  0.2684  0.5679
67883W        W10899  17.231  31.981   6.060  0.2623 -0.3684  0.1298
67884W        W10900  14.758  32.204  21.068 -0.0460 -0.1177  0.0058
67885W        W10901  28.545   8.317   9.735  0.0122 -0.1157  0.1598
67886W        W10902  15.588  34.137   7.000  0.3400  0.0865 -0.1088
67887W        W10903  29.522   3.886   4.247  0.0387 -0.4440 -0.0123
67888W        W10904  15.994  12.422  29.252  0.3712 -0.0385  0.2605
67889W        W10905  25.637   1.271  28.495 -0.2285 -0.0677 -0.1849
67890W        W10906  14.816  10.195   3.371 -0.0280  0.1337  0.1269
67891W        W10907  20.373   7.892  29.012  0.0343  0.1751  0.1162
67892W        W10908  31.736  32.198   2.345 -0.0412 -0.0374  0.3582
67893W        W10909   0.802  31.997   0.498  0.2270 -0.4129  0.4090
67894W        W10910   7.086  13.813   4.164 -0.0244 -0.0360 -0.1258
67895W        W10911  25.827  14.679   8.126 -0.1030 -0.4208 -0.2802
67896W        W10912  29.207  22.324   3.006 -0.1527  0.0191 -0.1200
67897W        W10913  16.010  20.194  20.902  0.0036 -0.1406 -0.0778
67898W        W10914   1.823  11.330  20.407  0.0361  0.3202 -0.3282
67899W        W10915   3.095  33.199   3.927 -0.2567 -0.1214 -0.2335
67900W        W10916  32.248   0.682  23.741 -0.0350  0.1344  0.2372
67901W        W10917   3.993  23.025   5.431 -0.2261  0.1329 -0.0944
67902W        W10918   1.681   0.271   0.854  0.2687 -0.5104 -0.0082
67903W        W10919  11.092  12.107   0.297  0.1007 -0.3667  0.1083
67904W        W10920  20.742  23.146   7.162 -0.6059  0.4480  0.1957
67905W        W10921   7.822   0.683   2.163  0.0133 -0.0104 -0.1422
67906W        W10922   9.160  33.293  29.077 -0.0613  0.1917 -0.1384
67907W        W10923   3.857  26.615   7.544  0.1090 -0.0996  0.1179
67908W        W10924  23.554   7.805   3.313  0.0183  0.2546  0.0190
67909W        W10925  32.330   3.938   7.310 -0.1839 -0.2182 -0.0047
67910W        W10926  16.696   4.527  19.336  0.1666  0.2407 -0.2454
67911W        W10927  15.718   5.386   0.038 -0.1174 -0.0272  0.1575
67912W        W10928  14.736  12.116   4.666  0.1570 -0.1230 -0.0118
67913W        W10929   9.028  14.067  25.439  0.0226  0.0759  0.0954
67914W        W10930  12.509   7.084  27.595 -0.0166 -0.2233  0.1137
67915W        W10931   2.020  13.963  27.818  0.0998 -0.0568 -0.0389
67916W        W10932   0.048   6.870  29.310  0.2522  0.1799 -0.0770
67917W        W10933  23.421  14.056   9.776  0.0185 -0.1162 -0.2037
67918W        W10934   4.248  12.568  19.901  0.1284 -0.2973  0.2138
67919W        W10935   9.660   3.750  28.761  0.2005 -0.0743 -0.0957
67920W        W10936  34.445   4.112   2.960  0.0046 -0.2713  0.1121
67921W        W10937  20.442  13.080  22.281 -0.1894 -0.2855 -0.1383
67922W        W10938   2.370  19.407   7.897  0.2840  0.1972 -0.1102
67923W        W10939  19.906  17.678  23.059  0.0310  0.1638 -0.2259
67924W        W10940  22.645   2.648   0.248 -0.0570  0.1588  0.1621
67925W        W10941   2.450  18.047  18.135  0.0430 -0.0853 -0.0028
67926W        W10942   7.340  26.194  23.275 -0.0423 -0.1422 -0.1328
67927W        W10943  24.258  11.954   6.605  0.0410  0.0992  0.4616
67928W        W10944  13.474   7.665   5.101  0.1172 -0.1496  0.4534
67929W        W10945  19.074   1.616  22.744 -0.2767 -0.0717  0.3649
67930W        W10946   3.658  10.699   6.133  0.1865  0.2338  0.3039
67931W        W10947  11.889   4.021   8.397  0.1982 -0.0067  0.3534
67932W        W10948  30.503  11.636   7.780 -0.0265 -0.1737  0.0067
67933W        W10949   6.509  14.434  17.381 -0.2737  0.1209 -0.1319
67934W        W10950  31.977   6.671   9.403 -0.1129  0.1100 -0.1266
67935W        W10951   6.600   1.286   7.781  0.0849 -0.2053 -0.0473
67936W        W10952  33.272  13.594   9.061 -0.1877  0.0054  0.1251
67937W        W10953   6.443  31.196   8.168  0.0716 -0.1296 -0.2085
67938W        W10954  16.805   2.701   9.587 -0.0056 -0.4654 -0.2177
67939W        W10955  14.329   1.314   0.830 -0.1252  0.0348  0.0495
67940W        W10956   2.317  13.578   3.156  0.2303 -0.4739  0.3890
67941W        W10957   1.949  20.679   5.033 -0.0876 -0.2133  0.0692
67942W        W10958  32.774   6.954  10.115  0.2041 -0.0994  0.0305
67943W        W10959  13.161  12.794  21.559 -0.3172  0.0007 -0.1237
67944W        W10960  26.033   5.508  25.555  0.2689 -0.1521 -0.0175
67945W        W10961   0.678  12.841  22.219 -0.0456 -0.1204 -0.0719
67946W        W10962  22.505   3.113  29.219 -0.2470 -0.0727 -0.3212
67947W        W10963   1.183  11.022  28.633 -0.0005 -0.0604 -0.3073
67948W        W10964  29.746   6.192  19.457  0.0769 -0.2292  0.0366
67949W        W10965   8.234  30.787  23.896  0.0658  0.3205 -0.0213
67950W        W10966  19.768  17.172   1.466 -0.2214  0.2466  0.3069
67951W        W10967  22.802  10.529   5.211  0.1120 -0.3418  0.0193
67952W        W10968  17.235   0.285   8.774  0.0382 -0.0894  0.0731
67953W        W10969   3.011   7.605   1.039 -0.4113 -0.1393  0.0456
67954W        W10970   7.078   3.213   0.263  0.1062  0.1535  0.0148
67955W        W10971  27.255   6.844  17.876  0.1059  0.0295 -0.2045
67956W        W10972  14.088   6.621   4.625 -0.1172  0.1352  0.1464
67957W        W10973   6.879   8.333  10.081 -0.1219  0.1487  0.1385
67958W        W10974   8.566   6.279   5.069  0.1145 -0.1100 -0.2475
67959W        W10975   4.361   7.691   3.151 -0.1387 -0.1250  0.1159
67960W        W10976  21.764  19.932   7.233  0.2562 -0.2994  0.1014
67961W        W10977   6.327  15.792   8.274 -0.0346  0.3114 -0.1244
67962W        W10978   1.742   1.543   2.364 -0.0939  0.0083 -0.1026
67963W        W10979  16.638  18.728   1.817 -0.2232  0.0024 -0.0425
67964W        W10980   6.256   5.712  21.865 -0.2492 -0.0517 -0.3181
67965W        W10981  12.201   5.109  20.309  0.1809  0.0190 -0.3066
67966W        W10982  10.990  21.770  20.356  0.2421 -0.4797  0.0045
67967W        W10983  32.707  33.225  19.923 -0.4430 -0.0967  0.3157
67968W        W10984  11.639  23.611   0.882  0.2155  0.4620  0.0094
67969W        W10985  31.018   7.855   8.390 -0.2391  0.0430 -0.1165
67970W        W10986  29.962  26.947   2.828  0.2001 -0.1704 -0.1326
67971W        W10987  28.891  31.725  18.618  0.1092 -0.1514  0.0249
67972W        W10988   9.723  10.211  28.793  0.2682  0.2905 -0.0328
67973W        W10989  32.114  27.943  23.897  0.1472 -0.0386 -0.0915
67974W        W10990   0.181  24.188   8.752  0.0589  0.2742 -0.0453
67975W        W10991   8.390  26.490   3.505  0.4346 -0.0199 -0.2695
67976W        W10992  27.435  18.759   1.682  0.2295  0.3039 -0.1401
67977W        W10993   7.274  31.222   0.552 -0.0852 -0.2711  0.0995
67978W        W10994   5.656  28.805   8.016 -0.3242 -0.1882 -0.0062
67979W        W10995  21.828  15.351   6.515  0.1157  0.0770  0.0948
67980W        W10996  11.619  20.775  25.766  0.1081 -0.2459 -0.1002
67981W        W10997  26.307   3.214   2.137  0.0032  0.1176 -0.2314
67982W        W10998  28.837  16.846   5.998  0.1203  0.1567 -0.0532
67983W        W10999   5.087   5.781  15.909 -0.0142 -0.1373  0.3143
67984W        W11000  13.536   6.410  28.898 -0.3131 -0.0577  0.1788
67985W        W11001   1.334  28.734   6.882  0.1095  0.1164 -0.0427
67986W        W11002  13.066  32.669   6.670 -0.0548  0.5501  0.0738
67987W        W11003   2.267  16.535   5.533  0.1131 -0.5198 -0.3472
67988W        W11004  34.135  34.771   4.567  0.2237 -0.0893  0.2481
67989W        W11005  31.265  27.713  10.649  0.0162  0.0877 -0.0524
67990W        W11006   5.179   3.819  21.522  0.0003 -0.2028 -0.0722
67991W        W11007   4.872   6.327   7.401  0.0383 -0.2171 -0.2606
67992W        W11008   9.344   2.752   3.508 -0.2403 -0.0875 -0.0921
67993W        W11009  32.894   8.387   1.664 -0.2029  0.4486  0.0914
67994W        W11010  11.458  11.618   3.758 -0.1913 -0.4187 -0.2178
67995W        W11011  28.948  32.112   1.172 -0.3717 -0.2822 -0.0724
67996W        W11012   3.695   0.030  26.117 -0.2814 -0.2858  0.0884
67997W        W11013  10.558  33.863   6.109  0.2516  0.1929  0.1059
67998W        W11014  10.660  18.105   8.109  0.1884 -0.2324  0.1591
67999W        W11015   0.881  19.207   7.377 -0.2049  0.0194  0.0558
68000W        W11016   6.517   8.353   3.440 -0.4803  0.0777  0.2903
68001W        W11017  16.087  31.385   1.053 -0.1406  0.0458 -0.0678
68002W        W11018   7.084  16.688   6.205 -0.0532 -0.0242 -0.0043
68003W        W11019  11.379   1.323  26.304  0.0894  0.2342  0.2160
68004W        W11020   5.425   5.053  10.289 -0.4000 -0.1277  0.0692
68005W        W11021   1.247  22.384  19.243  0.0499 -0.1654 -0.4221
68006W        W11022  13.413  18.900   4.141  0.2403 -0.3615 -0.2884
68007W        W11023   5.900  12.514   8.906  0.1320 -0.3060 -0.1401
68008W        W11024  18.590  22.572   1.756 -0.2369  0.2767 -0.2500
68009W        W11025   0.802  21.345   7.112 -0.0788 -0.0943 -0.0374
68010W        W11026  15.968  33.705   5.956 -0.0536  0.0851 -0.0688
68011W        W11027  30.818  12.787   1.806  0.1311 -0.3857 -0.2396
68012W        W11028   9.370   2.899   0.109  0.2567 -0.0001 -0.4097
68013W        W11029  16.345  15.233   7.056 -0.0553 -0.1350  0.0170
68014W        W11030  12.246   2.814   7.024  0.0711  0.0609 -0.2686
68015W        W11031   4.365   7.129  10.731 -0.0399 -0.2492  0.2902
68016W        W11032  17.133  17.110   1.881 -0.1191 -0.1347  0.1892
68017W        W11033  28.879   3.661   6.937  0.0136  0.0962  0.1293
68018W        W11034  11.932   8.064  21.421  0.1667 -0.3134  0.2925
68019W        W11035  27.781   8.439   3.683 -0.1672  0.0580 -0.3965
68020W        W11036   5.733  32.234  23.830 -0.1643  0.1522  0.0203
68021W        W11037   1.588   2.505   3.698  0.0039 -0.3735  0.0706
68022W        W11038   2.701   8.490   7.472  0.0654  0.2181  0.2493
68023W        W11039  26.716  30.851   1.811 -0.0973  0.1663  0.1806
68024W        W11040  29.152   1.783   0.046  0.0701 -0.1480 -0.1099
68025W        W11041  19.149  25.661   5.354 -0.0283 -0.0584 -0.2065
68026W        W11042  23.436  24.399  10.069 -0.1924 -0.1256 -0.2567
68027W        W11043   3.888  13.231  24.081  0.0280  0.0172 -0.3037
68028W        W11044  13.425  34.500   3.113 -0.1071  0.1023  0.3388
68029W        W11045  27.576   1.737   4.609  0.1597 -0.2252 -0.1197
68030W        W11046  10.355  13.479   2.651 -0.0926  0.0240  0.0202
68031W        W11047   4.780  23.122   7.907 -0.0487  0.2424  0.0246
68032W        W11048   9.914  12.466   3.086 -0.3791 -0.3641 -0.2811
68033W        W11049  13.741  19.073  26.546 -0.0559  0.1481  0.0437
68034W        W11050  29.520  13.668   6.142 -0.1431 -0.1819  0.2430
68035W        W11051  33.560   4.832  27.031  0.0019 -0.0857  0.2872
68036W        W11052   9.140   5.650   2.552 -0.0449  0.1452 -0.0777
68037W        W11053   6.652  11.920   7.013 -0.1240 -0.0370 -0.3218
68038W        W11054  10.893  25.831  17.543 -0.1994 -0.0631  0.1770
68039W        W11055  32.238   6.754  25.376 -0.3567 -0.0837  0.3028
68040W        W11056  14.089  16.794   2.492  0.0308 -0.1359 -0.1773
68041W        W11057   3.032  33.660  25.771  0.2462  0.2412  0.0772
68042W        W11058   6.213  32.303  15.150 -0.0252 -0.3939 -0.1710
68043W        W11059  13.982   6.528  27.993 -0.1040  0.2389  0.3384
68044W        W11060   0.016  13.687  27.273  0.0776  0.1051  0.1899
68045W        W11061  18.982   2.311   8.516  0.1222 -0.0636 -0.2218
68046W        W11062  14.866  19.445   2.408  0.1886 -0.0162 -0.0537
68047W        W11063   8.070   2.794   5.368  0.0698 -0.1422  0.0404
68048W        W11064   7.595  19.882   8.532  0.1591  0.1242  0.2623
68049W        W11065   1.602   6.855   9.974 -0.1520  0.0004  0.1225
68050W        W11066  11.829   5.319  28.450  0.3761 -0.1027 -0.0253
68051W        W11067  17.761  17.619  28.919  0.1840 -0.0137  0.0778
68052W        W11068  16.169  11.638   7.247 -0.1215 -0.1517  0.0549
68053W        W11069   4.965  22.106  24.725 -0.2600  0.0864  0.0231
68054W        W11070   4.565   7.891   2.368 -0.0180 -0.1388 -0.0339
68055W        W11071  15.551  10.268   6.156  0.0861 -0.2396 -0.0641
68056W        W11072   5.567  14.797   8.341 -0.0943 -0.0829 -0.0055
68057W        W11073   7.272   6.743   4.851 -0.0377  0.3987  0.0911
68058W        W11074  27.913   4.544   9.720 -0.2099 -0.2083  0.1532
68059W        W11075  33.419  29.390   8.007  0.2895 -0.1003 -0.0084
68060W        W11076  26.325  12.717  27.643  0.1083 -0.0566 -0.2309
68061W        W11077  18.235  19.233  26.831 -0.0322 -0.1642 -0.2198
68062W        W11078  13.426   6.406   7.208 -0.1182 -0.3853 -0.1477
68063W        W11079   5.387  33.860  26.564 -0.1449 -0.3253  0.1624
68064W        W11080   3.171  17.788   5.919 -0.0100  0.0654 -0.3201
68065W        W11081   1.550  27.059   3.901  0.1586 -0.1189 -0.1583
68066W        W11082  10.714   1.718   0.136  0.2163 -0.0678  0.0853
68067W        W11083   3.663  19.202   8.913  0.2550  0.0175  0.1396
68068W        W11084  19.892  32.285   8.144  0.0044 -0.1068  0.2493
68069W        W11085   6.938  10.313  10.080  0.2409 -0.1109 -0.1009
68070W        W11086  28.493  28.800  26.695  0.3721 -0.0120 -0.2937
68071W        W11087  20.609  10.445  25.594 -0.1358 -0.3720 -0.1510
68072W        W11088  11.073   0.870   6.651  0.3930 -0.2698  0.2164
68073W        W11089   5.767  33.202   8.002  0.1181  0.2153  0.1746
68074W        W11090   8.315  12.447  22.019 -0.1660  0.4297 -0.1209
68075W        W11091   6.820   4.300  16.663  0.0969  0.2916 -0.0363
68076W        W11092  10.630   3.037   8.641 -0.0306  0.2810 -0.0439
68077W        W11093  29.047   6.844  10.982 -0.1308 -0.3748  0.3159
68078W        W11094  10.114   4.006   4.980 -0.0072  0.1960  0.0505
68079W        W11095   7.760   2.770   3.117  0.2975  0.4107  0.0259
68080W        W11096  16.188  32.251  10.051  0.0235 -0.1298 -0.2330
68081W        W11097  22.775   5.239   9.135  0.1981 -0.3289  0.2328
68082W        W11098   3.650  12.412   8.556  0.0492 -0.0543  0.0287
68083W        W11099   4.868  18.788   8.423  0.0026  0.4200  0.0000
68084W        W11100  32.834   8.143   0.178  0.1074 -0.0585  0.3790
68085W        W11101   3.518  23.692  28.308 -0.1362  0.5037  0.0657
68086W        W11102   5.321  18.304   1.829  0.4309 -0.0773  0.0227
68087W        W11103  19.311  28.780   2.673  0.1473 -0.1031  0.0109
68088W        W11104  19.931  14.162  20.836 -0.1457 -0.3941 -0.1371
68089W        W11105   9.774  13.943   1.769 -0.4358  0.1321 -0.1006
68090W        W11106   2.915  10.840   2.266 -0.0159  0.1104  0.0965
68091W        W11107   6.013  18.390  23.452 -0.1957 -0.1898 -0.1391
68092W        W11108   4.267  20.130   7.511  0.0232  0.0655  0.0154
68093W        W11109  14.703  15.550  20.239 -0.1042  0.0435 -0.1297
68094W        W11110  14.416  11.961  20.244  0.0504  0.2082  0.1598
68095W        W11111  34.558   3.276   0.088  0.2352 -0.0399 -0.0160
68096W        W11112  33.079  21.460   0.934 -0.0703 -0.0063  0.2811
68097W        W11113   4.203  34.186   7.809 -0.0830 -0.0810 -0.0657
68098W        W11114  27.094  10.200  23.698  0.1742 -0.3284 -0.0706
68099W        W11115  32.712   4.488   3.891  0.4927 -0.3326 -0.0003
68100W        W11116  25.587   1.375  11.695 -0.1027 -0.2204 -0.0924
68101W        W11117   0.085   0.648  28.354 -0.4035  0.0565 -0.0533
68102W        W11118   0.835   4.764  28.384 -0.0887 -0.1291 -0.4332
68103W        W11119   6.866  26.418  29.270  0.0030  0.4320  0.2476
68104W        W11120  30.695  17.861  10.391 -0.0469 -0.0618  0.0872
68105W        W11121  28.929  14.277   7.031  0.1418  0.0542 -0.5389
68106W        W11122   2.723  23.599   4.956  0.2806  0.3131 -0.2633
68107W        W11123  11.426   8.439   3.045 -0.2221  0.3646  0.2359
68108W        W11124   0.980   7.741   4.934  0.0662  0.1107 -0.1959
68109W        W11125  25.735  31.960   2.119 -0.0392 -0.1328  0.3288
68110W        W11126   1.361  21.763   3.193 -0.1960 -0.0652  0.1130
68111W        W11127   3.343   0.540   2.656 -0.2077  0.3954  0.1692
68112W        W11128  14.392   5.803  24.360  0.0259 -0.0121  0.2669
68113W        W11129   4.361  24.718   9.134 -0.1295  0.1764 -0.1673
68114W        W11130   0.649  12.671  26.402 -0.0751 -0.0050  0.0254
68115W        W11131   3.482  10.072  28.221  0.0624  0.0854  0.0754
68116W        W11132   3.074   9.948   9.624 -0.3178 -0.2208 -0.0795
68117W        W11133   0.625  14.723   6.599 -0.2501 -0.0006  0.1208
68118W        W11134   0.519  32.178  25.622 -0.1325 -0.3378  0.0770
68119W        W11135  14.709  21.374  20.579 -0.0205  0.0914  0.2375
68120W        W11136   8.452   0.260   4.511 -0.0299  0.2825  0.0337
68121W        W11137   5.131   3.843   6.105 -0.1271  0.0720  0.4320
68122W        W11138   5.920   1.573  27.314 -0.1681  0.2341  0.1879
68123W        W11139  30.718   5.552   8.263 -0.0760 -0.1236 -0.1052
68124W        W11140   2.328  14.122   9.462  0.0723 -0.2665  0.1486
68125W        W11141  14.067  12.076  19.862 -0.2342 -0.2447 -0.0245
68126W        W11142  32.325  17.012   3.746  0.1256 -0.0027  0.0411
68127W        W11143  16.060  27.983  27.287 -0.0440  0.1305 -0.2803
68128W        W11144  26.277  11.023   6.878 -0.0747  0.0113 -0.2116
68129W        W11145   4.981   0.700   6.655 -0.2382  0.3187  0.1413
68130W        W11146   4.044  21.522   8.348  0.0305  0.0127 -0.3860
68131W        W11147  22.667   6.918   5.437 -0.1021  0.0014  0.2535
68132W        W11148  11.727   3.378   7.682  0.2839 -0.2431  0.5076
68133W        W11149   3.987  21.930   4.352  0.4924  0.2259 -0.1060
68134W        W11150  32.808  10.840  27.395  0.2190 -0.0747 -0.1849
68135W        W11151  34.576   4.625   8.820 -0.0889  0.3057  0.0454
68136W        W11152  29.525  19.169  28.923 -0.2082 -0.2026 -0.0028
68137W        W11153  33.162   9.265  10.463 -0.3120 -0.3611 -0.1221
68138W        W11154  34.124   9.948  28.659  0.1301 -0.2570 -0.0590
68139W        W11155  34.670  25.380  15.377  0.3360  0.0360 -0.2089
68140W        W11156   5.998   6.160  10.940 -0.2596  0.0824 -0.0344
68141W        W11157   4.858  31.753   9.710 -0.0911  0.0164 -0.0068
68142W        W11158   8.617  16.298   4.169 -0.0983  0.3033 -0.2235
68143W        W11159  19.008  26.155   3.862  0.2927 -0.2794 -0.3478
68144W        W11160   0.079  21.313   3.776 -0.2003 -0.1210  0.0911
68145W        W11161  31.191   9.254  10.345  0.2484  0.1139 -0.0097
68146W        W11162  31.234   9.464  28.118  0.1482  0.0199  0.0863
68147W        W11163   7.403  14.956  20.138 -0.1108  0.1822 -0.1321
68148W        W11164  32.252  17.043   4.476  0.0173  0.1255 -0.1981
68149W        W11165  28.901   5.722   4.239  0.4389  0.1086 -0.0392
68150W        W11166  19.316  11.006   6.281  0.3310  0.0124 -0.4572
68151W        W11167   1.661  29.344  19.428  0.2761 -0.1180  0.5798
68152W        W11168  15.260  15.987   1.827 -0.2511  0.3732  0.2931
68153W        W11169   7.152  17.950   2.170 -0.3962  0.2882 -0.0141
68154W        W11170  20.293  17.989  27.295 -0.1267  0.0805  0.2130
68155W        W11171   5.718   9.222   7.069 -0.2663  0.0212  0.2253
68156W        W11172   9.294  21.559   0.019 -0.0314 -0.3337 -0.3224
68157W        W11173   8.350  15.915   3.783  0.0558  0.1749  0.0697
68158W        W11174   2.587  14.938  10.681  0.1651 -0.3876  0.0335
68159W        W11175  17.033   8.698   1.939 -0.0615  0.0477  0.0648
68160W        W11176   5.773  18.243   6.300 -0.1150  0.2297  0.4030
68161W        W11177  15.466  28.764   2.225 -0.1310  0.1687  0.0317
68162W        W11178  31.284   1.253  10.305  0.1232  0.4209  0.2175
68163W        W11179  16.092  14.887   2.856 -0.2755 -0.2158 -0.1216
68164W        W11180  32.448  24.639  22.909  0.1836 -0.1547 -0.1935
68165W        W11181   3.454  21.537  27.391  0.1781 -0.0418  0.0592
68166W        W11182  20.304  32.383   8.876 -0.3787  0.1044 -0.2279
68167W        W11183  27.165  34.538   6.975  0.1066  0.2639 -0.0832
68168W        W11184  18.063  14.221  22.583 -0.3488 -0.0110 -0.0836
68169W        W11185  30.730   6.036   2.013 -0.0085  0.1070  0.4347
68170W        W11186   9.526  17.112   0.616 -0.0491  0.3918 -0.2233
68171W        W11187   3.348  32.675   9.335 -0.2905  0.0722 -0.0511
68172W        W11188  34.522   4.419   8.324  0.0464 -0.2506 -0.1031
68173W        W11189  18.861   8.791  27.593 -0.0461 -0.0275 -0.1427
68174W        W11190   5.094  13.285   5.359 -0.0231  0.1185 -0.0713
68175W        W11191  15.772   9.223   5.801  0.0462  0.1405  0.1046
68176W        W11192   0.960  17.307   6.613  0.0518  0.0725  0.1875
68177W        W11193  17.463   6.916   9.154 -0.0284 -0.1124 -0.1422
68178W        W11194  15.042   2.854  22.521 -0.0761 -0.2245  0.0776
68179W        W11195  13.912  34.754  26.153  0.0096 -0.1592  0.0982
68180W        W11196  17.498   5.071   9.344 -0.3202  0.1151 -0.0640
68181W        W11197  12.750  11.796   5.945 -0.0557 -0.0329 -0.1612
68182W        W11198   2.717  23.724  29.086 -0.2670  0.1143 -0.1309
68183W        W11199   9.605   2.336   4.839  0.1125  0.0468 -0.1495
68184W        W11200  29.141  25.142  28.156 -0.1442 -0.3914 -0.2111
68185W        W11201   2.585   1.258   3.997 -0.0973 -0.0839 -0.1543
68186W        W11202  12.808   6.449   9.238  0.0412 -0.1314  0.0791
68187W        W11203  16.152  19.348  23.705  0.0098 -0.0628  0.1729
68188W        W11204  14.116  16.370   3.300 -0.2004 -0.1480 -0.2234
68189W        W11205  22.322  11.797   0.176 -0.1195 -0.0636 -0.3942
68190W        W11206  16.823   8.799  21.292 -0.1170 -0.0511  0.3015
68191W        W11207  26.335  32.877   5.802  0.0560  0.1251 -0.3806
68192W        W11208  29.137   8.717   1.894 -0.0402  0.0817  0.0885
68193W        W11209  29.065  16.743  16.670  0.3714 -0.0687  0.1800
68194W        W11210  11.617  12.886   2.241  0.0822  0.0862  0.1811
68195W        W11211  22.272   5.396   4.533 -0.1164 -0.3920 -0.1364
68196W        W11212  20.375  16.611  26.010 -0.3397  0.2261  0.0748
68197W        W11213  16.088  13.516  20.040 -0.1879  0.0898  0.5431
68198W        W11214  34.229   1.186  28.571 -0.0664 -0.0561 -0.0593
68199W        W11215   8.712   2.417   1.343 -0.0023 -0.0146 -0.0494
68200W        W11216   4.887   7.526   8.797  0.1431  0.0856  0.1134
68201W        W11217  15.340  12.470   1.236 -0.0485  0.1261  0.1532
68202W        W11218  32.254   5.807   7.353  0.1503 -0.2845 -0.0355
68203W        W11219  12.260   0.103  10.014 -0.1420 -0.1668  0.3544
68204W        W11220   3.617   7.968   4.556 -0.0563 -0.1897  0.1764
68205W        W11221   7.972  12.441   6.194 -0.0278 -0.0739 -0.0490
68206W        W11222   2.108   5.781  14.995 -0.2239  0.0835 -0.2940
68207W        W11223  27.722   7.470  24.078  0.4114 -0.1856 -0.2345
68208W        W11224   9.885  20.132   0.150 -0.0502  0.0985  0.1646
68209W        W11225   1.685  32.561  27.117  0.0667  0.0440 -0.1688
68210W        W11226  30.072   0.560   5.061 -0.0881  0.0452 -0.0537
68211W        W11227  10.207  13.577   6.461 -0.1123 -0.0248 -0.0886
68212W        W11228  19.596  31.277  27.378 -0.2095  0.0662  0.1824
68213W        W11229  16.130  17.496  25.925  0.1085 -0.3962 -0.2921
68214W        W11230   6.427   3.930  29.031  0.2018  0.1701  0.2196
68215W        W11231  17.510  18.257   0.483 -0.2170  0.0036  0.0331
68216W        W11232  12.298  24.739   2.014  0.2659  0.3973  0.0786
68217W        W11233   2.971  25.104   4.741 -0.3051  0.1058  0.3527
68218W        W11234  13.454   6.702  27.752 -0.1744  0.0141 -0.1376
68219W        W11235   8.001   8.446   4.462 -0.0400  0.1256 -0.3317
68220W        W11236   6.876   4.357   3.307  0.1748  0.0652 -0.2880
68221W        W11237  31.909  10.209  26.705 -0.1053 -0.0545  0.2537
68222W        W11238  14.105  12.092  26.225  0.1706 -0.3328 -0.0164
68223W        W11239   2.085   6.361   6.624  0.0555 -0.2796  0.0524
68224W        W11240  34.080  11.943  24.067 -0.0085  0.1731 -0.0051
68225W        W11241  30.582   3.333  20.542  0.0039  0.2197 -0.0163
68226W        W11242  34.401  19.374   2.251 -0.4146 -0.2965 -0.0482
68227W        W11243  31.140   3.350   6.032  0.1162 -0.0592 -0.0338
68228W        W11244  11.837   0.403   2.780 -0.1269  0.0565 -0.0114
68229W        W11245   6.479  12.005   4.417  0.1062 -0.3501 -0.1755
68230W        W11246  30.659  15.812   4.573  0.1153  0.2617 -0.1659
68231W        W11247  33.629   3.449  26.073  0.1048  0.2163 -0.4244
68232W        W11248  30.953   3.146   0.112  0.0509  0.1018  0.0415
68233W        W11249   0.912   1.024  28.168  0.1886  0.3679  0.0609
68234W        W11250  30.675   8.814  10.064 -0.0675  0.0469  0.3634
68235W        W11251   8.264  32.385   9.777 -0.1089 -0.0790  0.0003
68236W        W11252  30.161  11.909   6.818 -0.0347  0.0564  0.1608
68237W        W11253  24.959   3.909   6.231  0.2210  0.0300  0.1403
68238W        W11254  33.710   9.856   2.380 -0.2637  0.1791 -0.0456
68239W        W11255  24.586  10.871   5.079  0.0217 -0.0903  0.1089
68240W        W11256  17.878   2.250   8.184  0.2184 -0.0997 -0.2443
68241W        W11257   4.015   0.009   3.042  0.4644  0.5202 -0.2053
68242W        W11258  12.375  31.760  21.522 -0.0784 -0.1314  0.2545
68243W        W11259  14.699  12.666  23.746  0.4484  0.2687  0.1580
68244W        W11260   5.990  14.813  26.246 -0.0001 -0.2228  0.1943
68245W        W11261  13.883  15.367  26.169  0.1528 -0.2001 -0.2380
68246W        W11262   5.519   1.578  25.064 -0.0227  0.0491 -0.3881
68247W        W11263  30.459  23.503   3.323  0.1729  0.1066  0.1562
68248W        W11264   3.380   2.890   0.912  0.0803 -0.0137 -0.2434
68249W        W11265   7.403   4.735   8.274 -0.0145  0.0904  0.0198
68250W        W11266  12.227   7.114  23.572 -0.0488 -0.1912  0.1762
68251W        W11267  30.412   9.382   6.877  0.0904  0.4353 -0.1966
68252W        W11268   3.512  10.587  21.855  0.1708  0.1432 -0.0569
68253W        W11269  32.164  10.094   7.235  0.2482 -0.3624 -0.0238
68254W        W11270  26.835  15.738   2.222 -0.0114  0.0305 -0.0525
68255W        W11271  13.224   2.168   5.109  0.1142 -0.0487 -0.0011
68256W        W11272  11.210  30.160  23.642 -0.0466 -0.0562  0.3948
68257W        W11273   5.379  18.605  24.238  0.0062 -0.1863  0.2659
68258W        W11274  10.552  16.911  26.720  0.0488  0.3632 -0.1589
68259W        W11275   4.022   0.580  25.353 -0.1884  0.1009  0.3122
68260W        W11276  34.293  13.256   9.443 -0.3184 -0.0620  0.2593
68261W        W11277  16.259  10.083   6.443  0.1516  0.3104 -0.1192
68262W        W11278  34.381  30.656   7.352  0.0153 -0.1608 -0.0057
68263W        W11279   2.979  20.502   6.594 -0.2689 -0.4192  0.1632
68264W        W11280   3.642   9.760  25.153  0.2080 -0.0182  0.1224
68265W        W11281   3.616   8.576   3.878  0.1872  0.1563 -0.1989
68266W        W11282  31.269  34.133  10.693  0.0356 -0.0856 -0.0920
68267W        W11283  11.455   4.845   4.187 -0.0453 -0.2327 -0.4064
68268W        W11284  34.633  28.459  23.957  0.2503 -0.3396  0.0828
68269W        W11285   1.377   6.027  17.278  0.0722  0.0470 -0.0399
68270W        W11286   4.275  26.357   7.478 -0.3418  0.0007 -0.1958
68271W        W11287   3.822  22.030   1.085 -0.0518 -0.4118  0.0890
68272W        W11288  32.435   7.006   9.677  0.2304  0.1378  0.0938
68273W        W11289   6.732  25.251   8.731  0.2579 -0.0650 -0.0147
68274W        W11290  15.308   4.412  17.924 -0.2383 -0.0882  0.0081
68275W        W11291   0.512  28.385   4.807  0.1297  0.1883 -0.1388
68276W        W11292   6.742   2.464  15.598 -0.0621  0.0610  0.2628
68277W        W11293   6.804   3.233   4.661  0.1004  0.1397 -0.2584
68278W        W11294  31.076  13.833   9.365  0.1649 -0.0223 -0.3755
68279W        W11295  10.766  27.126  25.510  0.0135 -0.1105  0.1124
68280W        W11296  22.921  25.623   4.394  0.0202 -0.2607 -0.0051
68281W        W11297   5.520  22.889   1.059 -0.2657 -0.1278  0.0209
68282W        W11298   1.305  10.285  29.114 -0.0733  0.3800  0.1642
68283W        W11299  34.722  10.357   4.591  0.1793  0.0230 -0.0464
68284W        W11300   8.565   9.059   1.696 -0.0205 -0.0169  0.2681
68285W        W11301  13.433   2.898   5.169  0.0511 -0.1068 -0.5023
68286W        W11302   6.493  14.766   1.373  0.0005 -0.0801 -0.2670
68287W        W11303  27.537  20.342   4.292 -0.3528 -0.0010  0.3699
68288W        W11304   8.685  14.642   3.120  0.0427  0.0556 -0.1020
68289W        W11305   1.554   7.983   8.653 -0.1400 -0.0522 -0.2282
68290W        W11306  32.427  32.941   1.250 -0.1176 -0.0512 -0.1498
68291W        W11307  11.531  11.237   1.958  0.1657  0.1085 -0.0629
68292W        W11308   8.496   5.106   8.567 -0.1175 -0.0288  0.3535
68293W        W11309  34.591   0.926   5.197 -0.1719 -0.1997 -0.0014
68294W        W11310  31.008  12.947   6.288 -0.0825 -0.0103  0.0368
68295W        W11311   3.928  21.889   0.228  0.2352  0.2123 -0.1720
68296W        W11312  23.572  11.613  28.705 -0.0800 -0.2508 -0.4217
68297W        W11313  13.482  32.116  27.627  0.2393 -0.1657 -0.6630
68298W        W11314  12.400   8.917   2.618 -0.1527 -0.1495  0.0635
68299W        W11315   6.651  14.037  23.744 -0.0415  0.3668 -0.3887
68300W        W11316   1.910  15.733   5.230 -0.0176  0.0763 -0.0642
68301W        W11317  19.526  12.449   1.225  0.0019 -0.0990  0.0053
68302W        W11318  18.684   3.268   3.456 -0.3243 -0.0019  0.1487
68303W        W11319   5.463   1.871  27.828 -0.1635  0.1227 -0.0213
68304W        W11320  10.431  33.460   7.379 -0.3297 -0.0776  0.0117
68305W        W11321  11.521   6.234   1.231  0.4888  0.1638  0.0567
68306W        W11322  30.341   5.255  27.040 -0.0882 -0.0770 -0.0537
68307W        W11323  12.009  13.161   6.151  0.1096  0.1866  0.0664
68308W        W11324   1.347   2.614   8.739 -0.0840 -0.2840 -0.1918
68309W        W11325   5.542  24.048  26.498 -0.1132 -0.0471  0.3394
68310W        W11326   7.523  14.949  25.023 -0.0911  0.1975  0.0718
68311W        W11327  28.479  12.434  23.589  0.0036  0.0377 -0.0452
68312W        W11328   7.994  16.369  22.045 -0.2279  0.1498  0.1454
68313W        W11329   8.389  10.134  20.383  0.2547 -0.1783  0.0451
68314W        W11330  29.405   0.152   0.811 -0.0788 -0.0386 -0.0964
68315W        W11331   0.326  11.075  10.088  0.0695 -0.1027  0.0831
68316W        W11332   9.534  15.155   3.560 -0.1218 -0.3013  0.2584
68317W        W11333   4.008  18.168   1.900 -0.0894 -0.3950  0.0907
68318W        W11334  16.654  11.700  26.352  0.0486 -0.3272 -0.2473
68319W        W11335  30.008  10.770   9.812 -0.1051 -0.1994 -0.0418
68320W        W11336  28.148  30.876   9.480 -0.0910 -0.1462 -0.1098
68321W        W11337   9.287  17.215   8.874 -0.2758  0.1721 -0.0027
68322W        W11338  20.151   4.145   2.754 -0.2260 -0.0380 -0.2705
68323W        W11339   4.230   0.287  22.335 -0.0051 -0.0426 -0.2295
68324W        W11340   9.989  24.460  21.285 -0.0967 -0.2563  0.1205
68325W        W11341  21.727  16.451   5.575  0.1307 -0.2748  0.2733
68326W        W11342  26.531  16.125   2.036 -0.1170 -0.0054 -0.3042
68327W        W11343  12.723   2.676   8.741 -0.1158  0.1525 -0.0248
68328W        W11344   6.968   2.017   5.496 -0.0130 -0.1455 -0.3741
68329W        W11345  26.873  29.519  26.281  0.2318 -0.5240  0.1868
68330W        W11346   6.273  17.014  29.110  0.2526  0.1603 -0.0122
68331W        W11347  21.785   3.882  15.816 -0.0201 -0.0290  0.2472
68332W        W11348  33.503  11.281   5.591 -0.1402 -0.2607  0.0537
68333W        W11349   5.651  19.799  27.879 -0.2554  0.0327  0.1747
68334W        W11350  29.035  30.386   4.210  0.1306 -0.2854  0.3463
68335W        W11351   3.404   6.533   5.342  0.0929 -0.2114 -0.0572
68336W        W11352   7.368  19.368   2.468  0.0505  0.3985  0.0186
68337W        W11353  30.720  28.499   4.497 -0.2979  0.1845 -0.0987
68338W        W11354  14.717  19.218  24.612  0.1714  0.1269  0.1733
68339W        W11355   0.830  12.028  16.801  0.0932 -0.2352  0.0250
68340W        W11356   3.985   3.320   7.531 -0.1540  0.3956  0.0493
68341W        W11357  18.949   5.018  23.151 -0.2103  0.1119 -0.1188
68342W        W11358  10.183   8.225   2.357 -0.1825 -0.1732 -0.0726
68343W        W11359  11.562   6.534   7.379  0.1116  0.0523  0.1467
68344W        W11360  14.814   7.208   4.393 -0.2906 -0.1788  0.0552
68345W        W11361  13.514   6.636   6.391  0.0057  0.4978  0.2480
68346W        W11362  28.196   4.140   9.716 -0.0558  0.5384 -0.0696
68347W        W11363   8.386  11.199   5.894  0.3316 -0.1605  0.0657
68348W        W11364   4.261  17.777  26.274 -0.1440  0.4749 -0.0626
68349W        W11365  11.888  12.123  16.154 -0.0240 -0.0227  0.1800
68350W        W11366  13.722  32.561  27.633 -0.1000 -0.0454  0.0651
68351W        W11367  24.484   7.484  28.311  0.0593 -0.1832  0.0932
68352W        W11368  19.651   0.290  20.262 -0.2152 -0.1497  0.1600
68353W        W11369  21.976   8.072   2.013  0.2080  0.0927 -0.2295
68354W        W11370   0.355  33.830  27.959  0.0911 -0.3867  0.1339
68355W        W11371   1.884  15.305   4.470 -0.2341  0.0592 -0.0410
68356W        W11372  22.783   3.772  27.953 -0.0274 -0.0798  0.0647
68357W        W11373  14.001  13.547  21.015 -0.1386  0.2215 -0.1350
68358W        W11374  19.977   5.053  14.928 -0.2388 -0.0139  0.0499
68359W        W11375  17.591   4.669  23.228 -0.1135 -0.0551 -0.1383
68360W        W11376  18.825  32.376  26.491  0.0384 -0.0526 -0.2147
68361W        W11377  10.403  14.118  19.273 -0.0541 -0.1324  0.1179
68362W        W11378   8.234  26.619   1.274 -0.0085 -0.0016 -0.0914
68363W        W11379  22.848   0.614   2.059  0.0284  0.1606  0.0583
68364W        W11380  11.491  17.768   4.597 -0.0989 -0.0625 -0.2751
68365W        W11381   5.440  12.512   9.176 -0.1752 -0.4388 -0.0770
68366W        W11382   6.881   5.362  28.711  0.0753 -0.0866  0.1274
68367W        W11383  30.308  26.915  10.397  0.2698 -0.4448 -0.1750
68368W        W11384   4.020   7.146   4.295 -0.3148 -0.0670  0.1146
68369W        W11385  18.386  19.590  25.159  0.1445  0.1825 -0.3838
68370W        W11386  22.818  12.625  19.289 -0.0554 -0.2365 -0.1742
68371W        W11387   3.065  24.015   2.091  0.1462 -0.1288  0.1494
68372W        W11388  25.274  10.236  29.213  0.3590  0.3179  0.0484
68373W        W11389   2.514   7.484  20.841 -0.1072 -0.2229 -0.1240
68374W        W11390   5.900  31.800   2.439  0.4256 -0.0997  0.2006
68375W        W11391   5.368  27.237   4.028 -0.3478 -0.0623 -0.1090
68376W        W11392  20.164  33.004   3.706 -0.2874 -0.0907  0.1983
68377W        W11393  17.637  10.964   3.374 -0.0144  0.0031  0.1419
68378W        W11394  33.566  14.370   3.634 -0.1016  0.0871  0.1345
68379W        W11395  11.071   4.296   4.598 -0.1489  0.0919  0.1274
68380W        W11396  27.425   7.318   5.446  0.1129  0.1347  0.1413
68381W        W11397  10.850   4.566  17.220 -0.2236  0.0359 -0.1283
68382W        W11398   1.888  21.984  26.611 -0.1717 -0.1568  0.1567
68383W        W11399  10.855  34.438  27.836  0.0190 -0.2039 -0.1327
68384W        W11400   8.127  23.921   2.314 -0.0372 -0.2410 -0.0599
68385W        W11401  11.328  11.220   6.176  0.1922  0.3157  0.2139
68386W        W11402   3.785   9.827  28.625  0.0025 -0.0333 -0.1703
68387W        W11403   2.810   1.444   1.255 -0.0995  0.2203 -0.0455
68388W        W11404  11.164  33.549   3.095 -0.0446  0.0154  0.1962
68389W        W11405  27.084   9.021  26.224  0.1584 -0.0434  0.1866
68390W        W11406   8.299  30.485  15.656 -0.0211 -0.2800 -0.1616
68391W        W11407   7.356  14.747  29.272  0.0522  0.1678  0.1536
68392W        W11408  16.305   9.759   4.387 -0.0676  0.1458  0.2114
68393W        W11409   4.235   9.070   6.278  0.0710 -0.2219 -0.0534
68394W        W11410  10.772  16.166   5.600  0.0202 -0.0987 -0.1003
68395W        W11411   9.840  13.669  26.875 -0.1306 -0.3119 -0.0267
68396W        W11412   2.300  12.792  17.757 -0.1077  0.0871 -0.0841
68397W        W11413  25.048  25.870  22.217 -0.0662  0.1523 -0.4461
68398W        W11414   9.371  21.235   4.176  0.5722  0.0100 -0.1350
68399W        W11415  13.415   0.990   4.217  0.2209 -0.0145  0.1837
68400W        W11416  10.553   8.016  23.953  0.2028  0.1619 -0.1624
68401W        W11417  14.469  10.807  27.696  0.3484  0.0929 -0.0846
68402W        W11418   5.614  12.738   7.954 -0.1048 -0.3512 -0.0871
68403W        W11419   4.813  11.151   2.827 -0.1224 -0.2913  0.0818
68404W        W11420  12.183  12.373   3.889 -0.1304 -0.1877 -0.0325
68405W        W11421  30.027  19.028   0.027  0.3205 -0.1240  0.2901
68406W        W11422  20.283   7.747  24.294  0.4561 -0.1831 -0.0719
68407W        W11423  33.995  11.717  24.532  0.1019  0.2179 -0.1104
68408W        W11424   7.538  27.994   7.055  0.1001  0.0493 -0.0196
68409W        W11425  25.616  30.412  21.141  0.1919 -0.0246  0.0233
68410W        W11426   7.959  18.355   8.502  0.1672 -0.0721 -0.0590
68411W        W11427  12.082  19.693   7.475 -0.3334 -0.4265 -0.0665
68412W        W11428   5.979  14.842   2.819 -0.2836  0.0377  0.0540
68413W        W11429  24.775  30.711  23.404  0.0553  0.0314 -0.1044
68414W        W11430  29.019   8.862   6.568  0.0543 -0.4305 -0.2526
68415W        W11431   1.618   8.654   3.087  0.1266  0.3358 -0.0560
68416W        W11432   9.170  23.708   1.151  0.1471  0.0926  0.1583
68417W        W11433   5.767  22.166   1.313  0.3335  0.1571  0.0954
68418W        W11434  13.549  16.620   6.289  0.3438 -0.0427 -0.0730
68419W        W11435  11.707   8.613  22.883 -0.0687 -0.0751 -0.3061
68420W        W11436   0.403  20.231  26.433 -0.1135 -0.4623 -0.1344
68421W        W11437  32.377   7.480  17.222  0.0051  0.2055  0.2490
68422W        W11438   5.346  17.933  24.511  0.2157  0.0538 -0.1369
68423W        W11439  28.696  16.464  25.284 -0.1183 -0.3397 -0.5463
68424W        W11440  33.597  10.568  28.402  0.0708  0.3422 -0.1869
68425W        W11441  23.661   1.940  20.370  0.1337  0.2001 -0.3232
68426W        W11442  33.105   2.024   8.651 -0.2652 -0.1869 -0.0368
68427W        W11443  20.553  17.223  20.659  0.0809 -0.0211 -0.0227
68428W        W11444  17.470  13.855   5.566  0.1142 -0.1402  0.1262
68429W        W11445  31.093   5.501  15.466 -0.1596 -0.2850 -0.3224
68430W        W11446  31.693  26.188  24.791  0.0069 -0.1962  0.0471
68431W        W11447  13.531   4.468   3.109  0.0399  0.3003 -0.2218
68432W        W11448   1.023  10.741  26.914  0.1894 -0.1188  0.1837
68433W        W11449   6.831  22.704  23.348 -0.2238  0.0537 -0.0966
68434W        W11450  20.514  30.064  28.927  0.1798  0.1950  0.0912
68435W        W11451   6.298  23.068  28.744 -0.0908 -0.1818  0.1399
68436W        W11452   2.775   0.814   2.982  0.1348 -0.4007  0.0793
68437W        W11453   7.856   8.374   2.047 -0.1604 -0.0400 -0.1005
68438W        W11454  27.888  29.339   7.137 -0.1940 -0.0963 -0.0161
68439W        W11455   9.802  12.298   6.523 -0.3651 -0.0593 -0.6397
68440W        W11456  12.118   8.014   9.154  0.1110  0.1175  0.1538
68441W        W11457  32.775   4.762   3.023  0.0502  0.2915  0.0121
68442W        W11458  12.013  16.046   8.924  0.1329  0.1794 -0.2780
68443W        W11459  25.911  23.420  27.850  0.2633 -0.0680  0.1045
68444W        W11460   0.754  29.785   5.955 -0.1460 -0.2009  0.2009
68445W        W11461  16.026  28.214  16.882  0.2077 -0.2976 -0.0645
68446W        W11462  31.642  31.629  28.063 -0.1149 -0.1289 -0.1859
68447W        W11463  14.241   2.931   3.203  0.0522 -0.1513  0.1784
68448W        W11464  32.335  32.688  14.960  0.1431  0.1280 -0.2427
68449W        W11465  29.716  28.904  11.623  0.0609 -0.2080 -0.2247
68450W        W11466   5.154  26.284  24.707 -0.4968  0.0329 -0.2365
68451W        W11467  32.855  29.700   4.998  0.2516 -0.1168  0.1736
68452W        W11468  14.176   9.004  21.099 -0.0121  0.2488  0.3109
68453W        W11469  21.021  27.272   1.405 -0.3605  0.0422 -0.0958
68454W        W11470   1.173   9.426   0.326  0.2107 -0.0524  0.0483
68455W        W11471  20.772  28.736  18.415 -0.2218 -0.0595 -0.0295
68456W        W11472   2.377  25.384  23.718  0.0582 -0.0471 -0.3158
68457W        W11473   5.737  22.068   8.193 -0.0248  0.0030  0.3296
68458W        W11474  20.647  33.835   2.260  0.1507  0.0633 -0.3852
68459W        W11475  31.841  13.516   5.411 -0.0386  0.0866 -0.1748
68460W        W11476   5.028  27.966   4.841  0.2877  0.0263  0.0482
68461W        W11477   3.752  10.941  29.105  0.0547  0.0090  0.2689
68462W        W11478   5.049   4.697  17.188 -0.2765  0.0918  0.0307
68463W        W11479  11.313  12.692   8.590 -0.0388  0.0782  0.0286
68464W        W11480  13.472  12.832   5.683  0.0969  0.2718 -0.0175
68465W        W11481  33.882   2.639  23.020 -0.2351 -0.1677  0.2495
68466W        W11482  33.833   9.949   0.143 -0.0865 -0.1274  0.2596
68467W        W11483  30.652  15.551  27.034  0.1543 -0.1327  0.0879
68468W        W11484  12.533  27.174   0.446 -0.1067  0.1487  0.3418
68469W        W11485  13.730  14.799   4.057  0.1033  0.0080 -0.0072
68470W        W11486  13.736   1.175   3.825 -0.3070  0.0791 -0.1024
68471W        W11487   4.926   3.866   5.227  0.2084  0.2249  0.0704
68472W        W11488   7.456  32.941   2.532  0.1877 -0.4140  0.1735
68473W        W11489  24.993   9.419  24.599  0.1101  0.3796  0.0384
68474W        W11490  32.107  16.446  26.158 -0.0897 -0.1954 -0.2105
68475W        W11491  15.807  33.807  23.140 -0.0407 -0.3589  0.0888
68476W        W11492  18.927   7.456   8.897 -0.0660 -0.0533 -0.1604
68477W        W11493  33.727  10.185   4.391 -0.2019 -0.0886  0.2037
68478W        W11494   0.915  23.290  28.557 -0.2141  0.0413 -0.2125
68479W        W11495  11.153  25.608   0.114  0.0541 -0.1662 -0.1592
68480W        W11496   1.118  10.083   4.220  0.0879 -0.1307 -0.2543
68481W        W11497   3.223  30.266   6.421 -0.1899 -0.2630 -0.2860
68482W        W11498  30.954  32.994  23.007  0.0649  0.1482  0.0740
68483W        W11499  33.429  10.115  21.541 -0.2550 -0.1057 -0.2424
68484W        W11500   8.620  15.053  21.670 -0.1140 -0.4942  0.3292
68485W        W11501  30.875   5.844   0.730  0.0080  0.3108 -0.3842
68486W        W11502   3.140   0.267   0.843  0.0378 -0.1920  0.1237
68487W        W11503   9.472  20.061  27.646  0.1331 -0.2297  0.3298
68488W        W11504   7.082   0.624  27.351  0.5512  0.3185 -0.3185
68489W        W11505   4.610   6.879   6.285  0.0106 -0.1335 -0.1954
68490W        W11506  31.614   3.824  18.972  0.0769 -0.0249  0.1763
68491W        W11507   9.598  30.987   7.569  0.0914  0.0848  0.1788
68492W        W11508   7.768   2.341  24.413 -0.1321 -0.0383 -0.0772
68493W        W11509  33.838   7.895   6.792  0.0464 -0.0902 -0.0374
68494W        W11510   1.788  34.459  24.217  0.0541 -0.0845  0.0186
68495W        W11511  27.463  30.108  25.900 -0.2127  0.1205  0.0486
68496W        W11512  20.078  30.459  21.519 -0.0758  0.1930  0.0622
68497W        W11513  11.482  12.904   7.741 -0.0825 -0.0747  0.0220
68498W        W11514   1.126  17.354   1.661  0.4255 -0.0492  0.1032
68499W        W11515   7.947  29.162   7.307 -0.2095 -0.0437  0.0545
68500W        W11516   2.615   4.774   7.730 -0.1618 -0.3198  0.1200
68501W        W11517  22.703   3.612   6.586  0.0794 -0.0213  0.1988
68502W        W11518   8.209  15.557   3.470  0.0148  0.1589 -0.0911
68503W        W11519  33.120  12.047   4.003 -0.2976 -0.3282 -0.0041
68504W        W11520  12.327  26.428   2.714  0.1751  0.2222  0.1298
68505W        W11521   3.861   8.594   3.293  0.0374  0.0251  0.4284
68506W        W11522  32.008   8.811  16.779  0.1173 -0.1513  0.1012
68507W        W11523   0.089  12.727   2.371 -0.2274 -0.0353  0.2821
68508W        W11524  12.246  11.398   4.672 -0.0892 -0.1258  0.0083
68509W        W11525   0.523   6.370  27.980 -0.2465  0.2612 -0.1645
68510W        W11526   1.583  26.395   4.724  0.0086  0.1288  0.1480
68511W        W11527   3.749  17.111   5.723 -0.2933 -0.2428 -0.1251
68512W        W11528   5.296   6.483  29.184 -0.1931  0.0226  0.0212
68513W        W11529  16.137  17.633   2.579 -0.0191 -0.0771 -0.1044
68514W        W11530  30.530  11.094  16.236 -0.0006  0.1268  0.0433
68515W        W11531   2.989  25.395  23.187 -0.0736 -0.1759  0.0032
68516W        W11532   6.800   9.092  24.581 -0.0492 -0.2506  0.5378
68517W        W11533  13.333   8.582  28.168 -0.0831 -0.1773 -0.3871
68518W        W11534  30.045  11.679   1.607 -0.1476  0.0973  0.0328
68519W        W11535  19.572  13.536  16.058  0.0131  0.1492  0.3274
68520W        W11536  13.396  33.270   9.787  0.1132 -0.2176  0.0202
68521W        W11537   3.896  12.154  17.980 -0.0249 -0.2168  0.0675
68522W        W11538   8.485  10.434  22.695  0.1250  0.0084  0.2746
68523W        W11539   0.674   0.680   3.161 -0.0460 -0.1613  0.1776
68524W        W11540  31.623  31.677  22.826 -0.0555 -0.0358 -0.1360
68525W        W11541  22.502  31.266  10.175  0.0642 -0.0802  0.0304
68526W        W11542   4.228   8.545  28.637 -0.0166  0.2628  0.1903
68527W        W11543  12.513  18.402  26.093 -0.0495  0.1100  0.2771
68528W        W11544   3.106  22.170  13.586 -0.2339 -0.0348 -0.0274
68529W        W11545  10.227  28.767   6.461 -0.1257 -0.2291  0.2191
68530W        W11546  25.225   3.417   4.997  0.0762  0.3405  0.0693
68531W        W11547  22.938   6.184   6.878 -0.1405 -0.0478  0.1135
68532W        W11548   5.413  17.379   0.246 -0.0779  0.1673  0.0966
68533W        W11549   7.213   9.959  22.739  0.0809  0.1111 -0.0937
68534W        W11550   1.223   4.982  27.173  0.2375  0.3351 -0.2850
68535W        W11551   6.613   0.634  10.119 -0.3827  0.0184  0.1180
68536W        W11552  17.803   7.325   8.019 -0.2327 -0.0427  0.1276
68537W        W11553  32.385  31.738  19.045 -0.1005  0.0513 -0.0185
68538W        W11554   2.557  13.258  17.975  0.1314 -0.1420 -0.2304
68539W        W11555  26.153  13.988  10.142  0.0690  0.0354 -0.0558
68540W        W11556  14.632   7.472  29.036  0.0684 -0.2098 -0.1298
68541W        W11557   2.376   5.553   1.885  0.1954 -0.1713 -0.3688
68542W        W11558  15.282  32.125   1.939  0.1142  0.1548 -0.0705
68543W        W11559   0.313  12.449  25.492 -0.1125 -0.1306  0.0618
68544W        W11560  31.316  34.530  28.776  0.0604 -0.2146  0.3616
68545W        W11561  13.428   6.574  19.257 -0.1878 -0.1944  0.1938
68546W        W11562  32.331   6.744   7.433 -0.1124  0.1213 -0.0334
68547W        W11563  15.773  24.592  14.384 -0.0467 -0.0155  0.0372
68548W        W11564   8.619  26.234  13.534  0.2534 -0.0822 -0.0411
68549W        W11565  18.076   9.006   8.692 -0.0426  0.1759  0.2023
68550W        W11566  34.264  17.303  17.358 -0.1855 -0.0068  0.0048
68551W        W11567  26.997  33.455  28.559 -0.0632 -0.3525  0.0314
68552W        W11568  12.698  16.383  17.217 -0.3058 -0.2867  0.1198
68553W        W11569  13.211  29.227  18.546  0.0214  0.0013 -0.0139
68554W        W11570  34.242  10.213  23.459 -0.1004 -0.0192  0.2139
68555W        W11571  34.331  30.017  28.482 -0.2053 -0.0190  0.1971
68556W        W11572   5.577   5.488  21.017  0.0012  0.0436  0.1447
68557W        W11573  22.784  20.024  16.966  0.1715 -0.0223  0.0768
68558W        W11574  26.664  17.291   1.778  0.0437  0.3204  0.1858
68559W        W11575   2.274   1.849   9.209 -0.2053 -0.1921  0.0281
68560W        W11576  16.077  21.444  25.584 -0.1525  0.0831  0.2654
68561W        W11577   3.808  17.507   7.652 -0.2835  0.1341 -0.0529
68562W        W11578  33.341  10.926  28.108 -0.1185  0.1771  0.1095
68563W        W11579  15.810  34.556   8.784 -0.2434 -0.0024 -0.3849
68564W        W11580   6.609   3.562   2.926 -0.2054  0.2518  0.0317
68565W        W11581  17.319  17.278   6.037  0.1574  0.1904 -0.0596
68566W        W11582  11.505  27.759  28.429  0.2550  0.3704  0.0905
68567W        W11583  33.038  27.400   9.751  0.2204  0.1214  0.1971
68568W        W11584  28.709   1.239  21.876  0.1241  0.2608  0.1505
68569W        W11585  21.745   9.752   8.311  0.1431 -0.0839 -0.0829
68570W        W11586  23.805  17.701   2.670 -0.2418  0.1538  0.0747
68571W        W11587   5.673   4.737  28.192 -0.0485  0.0798 -0.2121
68572W        W11588   2.135   2.628  22.494 -0.1595  0.2356 -0.0476
68573W        W11589   2.030   5.306   4.171  0.1038  0.0070  0.1100
68574W        W11590   9.693   2.747   4.513  0.4914  0.0157  0.2207
68575W        W11591  25.641   8.406   6.720  0.1409 -0.4230  0.0932
68576W        W11592  12.390  29.314  28.300 -0.1149 -0.1486  0.0780
68577W        W11593   2.401  10.695  27.784  0.3851 -0.1135 -0.1076
68578W        W11594  16.948   8.926  18.266  0.2441 -0.0755  0.1728
68579W        W11595  10.158   6.991  23.500  0.2928  0.0538 -0.0420
68580W        W11596  10.810  26.048  15.950  0.0207 -0.1618  0.0227
68581W        W11597   3.029   2.180   7.003 -0.1845  0.2216  0.1090
68582W        W11598  34.199   7.112  20.138  0.0177 -0.2098 -0.0903
68583W        W11599   5.485  22.031   5.266 -0.0980  0.1412 -0.1353
68584W        W11600   4.372   3.952  27.414  0.0878  0.0037 -0.0788
68585W        W11601  15.451   6.589   7.098 -0.4765 -0.1689 -0.0067
68586W        W11602  10.686  21.370  28.289  0.3849  0.1223 -0.0989
68587W        W11603  20.597  29.286   2.474  0.0243 -0.1594  0.0808
68588W        W11604   2.070  32.046   1.242 -0.2422 -0.0603  0.2677
68589W        W11605   7.624   2.775   4.886  0.2017  0.0173  0.2000
68590W        W11606   5.710  11.266   2.007  0.1855 -0.0756  0.0946
68591W        W11607  10.370   5.657  19.777  0.0189  0.2590 -0.2084
68592W        W11608  31.728  18.889   9.433  0.0416 -0.0831 -0.0630
68593W        W11609   5.999   2.817   8.630 -0.1092 -0.0636 -0.2895
68594W        W11610  19.441  11.518  27.352 -0.2410 -0.1024 -0.3776
68595W        W11611  14.531  28.686   6.028 -0.4757 -0.1274  0.1105
68596W        W11612  18.799  10.880  28.060 -0.1674  0.2415 -0.0033
68597W        W11613   2.290  33.187   4.530  0.1578 -0.1671  0.1992
68598W        W11614  34.098  29.537   5.981 -0.0183  0.0634 -0.0179
68599W        W11615  20.483  10.696   3.306 -0.0773 -0.0685 -0.0078
68600W        W11616  30.178   9.551   8.854  0.2733  0.0436  0.1504
68601W        W11617   2.952  16.717  20.643  0.1057 -0.3690  0.1769
68602W        W11618  30.375   2.720  27.598 -0.0311  0.1719  0.0606
68603W        W11619  27.169  32.907   6.026 -0.0236 -0.2138  0.1623
68604W        W11620  19.861  14.268  24.717 -0.0355  0.1292 -0.2892
68605W        W11621  20.183  11.806  24.990  0.0660  0.2780 -0.2934
68606W        W11622  14.310  10.558  23.109 -0.2707 -0.0737  0.0199
68607W        W11623  11.377  28.585   6.679 -0.1449  0.1651 -0.1587
68608W        W11624  15.687  17.177  23.160  0.0558 -0.0096 -0.3616
68609W        W11625   8.256   5.580   6.850 -0.5028 -0.1097 -0.2840
68610W        W11626   1.305  25.760  25.170  0.0021  0.1867 -0.2729
68611W        W11627  11.352  29.933  22.289 -0.0347  0.1757 -0.2583
68612W        W11628   2.874   0.979   7.841 -0.0922  0.0248  0.1137
68613W        W11629  10.392  16.183   5.935  0.0506 -0.0417 -0.1695
68614W        W11630  28.088  23.074  23.145 -0.0250  0.0058  0.0755
68615W        W11631   4.012  21.880  20.637 -0.1143 -0.1330  0.1424
68616W        W11632  20.853   3.633  16.851  0.0421  0.0028  0.1268
68617W        W11633  15.396   6.277  27.225  0.0530 -0.1150 -0.1252
68618W        W11634  31.196  32.447   4.583  0.1517  0.0554  0.0283
68619W        W11635  12.538  17.277  28.557 -0.0644  0.0635  0.0863
68620W        W11636  25.995  14.860   7.604  0.0326 -0.2840 -0.3029
68621W        W11637  31.813   6.581  15.765 -0.2171  0.2033 -0.1669
68622W        W11638  10.465  33.344   0.289 -0.0783 -0.0447  0.2426
68623W        W11639  21.074   3.059  21.157 -0.3335  0.2575 -0.1324
68624W        W11640  10.233  13.342   7.463 -0.1209 -0.0426  0.0600
68625W        W11641  14.993  20.550  20.070 -0.0071  0.1041  0.3108
68626W        W11642   3.694   1.862  24.648  0.0445  0.2492 -0.1482
68627W        W11643  32.658  15.353   5.652  0.0086  0.0695 -0.4619
68628W        W11644   8.901  18.239   7.608 -0.0495 -0.1519  0.3081
68629W        W11645  13.527   6.834   6.901 -0.3815  0.0296 -0.2674
68630W        W11646  20.417  13.468   8.311  0.1241  0.1303 -0.0737
68631W        W11647   2.737  20.660  23.958  0.0228  0.1026  0.0455
68632W        W11648   3.483  30.506  21.428 -0.1111 -0.0629 -0.0124
68633W        W11649  11.176   6.845   5.493 -0.1846  0.0708 -0.1877
68634W        W11650  10.938   3.809   3.733  0.1531  0.0407  0.4488
68635W        W11651   8.863   7.764   0.684 -0.0253 -0.0010 -0.1586
68636W        W11652   7.072   4.766  20.670 -0.4579  0.2414  0.1624
68637W        W11653  17.452   7.366  28.605  0.2631 -0.1639  0.0986
68638W        W11654   4.565  15.893  24.590  0.0724 -0.0947 -0.1835
68639W        W11655   4.721  21.587   6.368 -0.1758 -0.1550  0.1252
68640W        W11656  14.729  19.562  29.022  0.4720  0.0203  0.1293
68641W        W11657   2.598  20.037  15.354  0.2090 -0.1530 -0.0991
68642W        W11658  10.543   7.048   8.129 -0.0401  0.2398  0.0781
68643W        W11659  14.483  14.001   4.115 -0.3141  0.0115  0.0507
68644W        W11660  13.086  29.536   9.230 -0.0103 -0.0276  0.2748
68645W        W11661   9.478   8.740   3.081  0.0011  0.0455  0.1794
68646W        W11662   6.265  10.545  27.228 -0.2043  0.0833  0.1525
68647W        W11663  11.223  32.164  19.677 -0.0958 -0.1171 -0.1284
68648W        W11664  29.362   7.518   7.134  0.0036  0.1063  0.0738
68649W        W11665  34.768  23.616  17.838 -0.2801 -0.1509 -0.2003
68650W        W11666  15.125  10.358   6.529  0.2587 -0.0200  0.1792
68651W        W11667  11.941   0.088   4.855 -0.0832  0.0980 -0.0807
68652W        W11668   3.999  28.609   7.824 -0.1748 -0.0978  0.2798
68653W        W11669   8.079  17.019   4.336 -0.1694  0.1335  0.2002
68654W        W11670  16.784   4.712   8.892 -0.2942  0.1688 -0.0808
68655W        W11671   3.071   0.620  24.465 -0.5039  0.3710 -0.3206
68656W        W11672  21.818  13.393   8.564 -0.2083 -0.0023  0.1743
68657W        W11673  20.552  18.317  28.798 -0.0392  0.0605 -0.3108
68658W        W11674   6.838  13.316   0.805  0.1852  0.0119 -0.0284
68659W        W11675   6.412  19.424  19.616 -0.2749  0.1242  0.0450
68660W        W11676  31.585  32.193   7.046  0.0989 -0.1762  0.1153
68661W        W11677  19.167  17.585  20.637  0.3751  0.2131  0.1027
68662W        W11678  13.525  13.801  27.335  0.1358 -0.0153  0.0837
68663W        W11679   8.194  31.861  22.863 -0.1058  0.1071  0.0136
68664W        W11680   3.407   7.489  26.767  0.1042  0.0888 -0.2276
68665W        W11681  24.342  12.053   1.906  0.0739  0.1177 -0.2347
68666W        W11682  17.490   6.543   9.528  0.2045 -0.1242  0.3879
68667W        W11683  29.492   3.113  10.574 -0.1119 -0.1523  0.0992
68668W        W11684  21.292  30.649  15.360 -0.1366  0.1353  0.2568
68669W        W11685  14.474   8.786  20.714  0.0694 -0.1986  0.1107
68670W        W11686  31.774  27.716   6.853  0.1652 -0.0809 -0.0901
68671W        W11687   9.235  18.617   6.082 -0.1919 -0.1048 -0.1452
68672W        W11688   5.604   5.331  15.699  0.2462  0.2519 -0.2401
68673W        W11689  14.387   9.946   0.432 -0.2627 -0.0868  0.2670
68674W        W11690  29.351   2.696   5.683  0.0729 -0.0850 -0.2853
68675W        W11691  24.930   1.604  18.491  0.3609  0.3514  0.0711
68676W        W11692  31.973  25.970   3.928 -0.1387 -0.1379 -0.0953
68677W        W11693  25.882   3.882  28.135 -0.0305  0.2579 -0.0209
68678W        W11694   7.134  21.999  27.982 -0.1338 -0.1531  0.2867
68679W        W11695  14.570  15.441  27.041  0.0771  0.3865 -0.1156
68680W        W11696   5.838  14.306   5.192 -0.1792 -0.1768 -0.2426
68681W        W11697   3.342  15.844   1.218  0.2157  0.2680  0.0846
68682W        W11698   9.248  28.984   5.644  0.1729  0.0908  0.2064
68683W        W11699   5.127  20.887  24.788  0.1115 -0.0397  0.0033
68684W        W11700  20.638  32.927  20.013  0.1847 -0.0184  0.2584
68685W        W11701   3.738   8.492  25.674 -0.1398  0.0200  0.1096
68686W        W11702  14.463  14.456  22.586  0.0240 -0.5298  0.0248
68687W        W11703   8.246   1.759   3.263  0.2729 -0.0827 -0.1756
68688W        W11704  19.452  12.911   7.505  0.3548 -0.1239 -0.0530
68689W        W11705   6.536  18.558  20.755 -0.0069  0.2912  0.2875
68690W        W11706  21.344  19.025  25.381 -0.2411  0.0423 -0.0834
68691W        W11707  26.523  28.175   5.413 -0.2651 -0.1519  0.0732
68692W        W11708   5.370  28.522  17.265 -0.0309 -0.1842  0.0184
68693W        W11709  14.465  23.408  19.572  0.0255 -0.3368  0.2564
68694W        W11710  16.863  34.685  26.054  0.2526 -0.1937  0.0054
68695W        W11711  30.855  33.358   5.151 -0.2197 -0.1734 -0.2363
68696W        W11712   5.147   2.203   7.273 -0.1292 -0.0918  0.2670
68697W        W11713  23.550  17.460   7.376 -0.2403  0.0589 -0.3033
68698W        W11714  33.892  10.899  18.430  0.0332 -0.1425 -0.0674
68699W        W11715  32.519  19.696   0.698  0.0074 -0.3761 -0.2474
68700W        W11716  33.102   6.848  26.901  0.1968  0.1391 -0.1774
68701W        W11717   8.095   0.839   6.463 -0.0981 -0.3548 -0.0803
68702W        W11718   5.339   6.121  26.752 -0.2724 -0.0442  0.1905
68703W        W11719  17.058  17.002  29.263  0.3548 -0.2512 -0.0583
68704W        W11720  10.207  22.810  17.749  0.0291 -0.1125 -0.1711
68705W        W11721  16.696   7.125   6.527 -0.0277 -0.2669 -0.0008
68706W        W11722  32.038   8.362   8.089 -0.1352 -0.1257  0.3878
68707W        W11723   9.146   4.174  19.957  0.0533 -0.2205  0.1919
68708W        W11724   8.279  25.750   1.531  0.0517  0.4159 -0.2423
68709W        W11725  34.298   1.352   5.249  0.2018  0.1474 -0.1335
68710W        W11726  17.135   1.403   1.946  0.0786 -0.0838 -0.1363
68711W        W11727  31.001  14.252  25.678  0.0722  0.0397 -0.1554
68712W        W11728  23.828   9.358   5.652 -0.1158  0.0763  0.1900
68713W        W11729  12.950  23.954   0.436  0.2049  0.0371 -0.0540
68714W        W11730   4.699  11.700   3.012  0.0256  0.1008  0.3348
68715W        W11731  12.003   1.661  19.429 -0.1593  0.2694  0.1915
68716W        W11732  11.996   1.235   5.706 -0.0404  0.2538 -0.0066
68717W        W11733   3.890  10.298   8.716 -0.3527 -0.1198  0.1721
68718W        W11734  22.727  32.380  27.865 -0.2018 -0.1817 -0.0670
68719W        W11735  34.109  11.772  27.963 -0.1346 -0.1825  0.0606
68720W        W11736  14.898   3.599  28.237  0.0246  0.1104 -0.0443
68721W        W11737   6.709   3.199   1.661  0.1674 -0.1486 -0.2145
68722W        W11738   7.277  18.006   3.421 -0.0933 -0.2104 -0.0837
68723W        W11739  26.334  27.257   6.795 -0.2656 -0.2735  0.0640
68724W        W11740   8.495  18.860   6.672 -0.2457  0.1618  0.1233
68725W        W11741  14.513   6.544  24.444  0.1717  0.1776 -0.0522
68726W        W11742  33.783  17.742   0.429 -0.3121 -0.1977  0.2160
68727W        W11743  30.755   1.934   4.554  0.3380  0.2933  0.0721
68728W        W11744   0.596  15.411   8.325  0.0864 -0.1192  0.0809
68729W        W11745  20.851  26.186   0.714 -0.1816 -0.3712  0.0547
68730W        W11746  20.033  11.770   7.619  0.0427  0.3523  0.3219
68731W        W11747   1.956   8.702   7.252 -0.1668  0.1354 -0.0491
68732W        W11748   4.565  23.568   7.714 -0.2592  0.0032  0.0567
68733W        W11749  24.514  29.763   3.652  0.1206  0.0271 -0.0277
68734W        W11750  19.304   9.480  24.315  0.1556  0.0364 -0.1024
68735W        W11751   5.314  32.616   9.934 -0.4195 -0.0019  0.0056
68736W        W11752  22.447  25.564   8.733 -0.2036 -0.2136 -0.1777
68737W        W11753   4.138   1.632   8.599  0.0608 -0.0574 -0.0242
68738W        W11754  24.794  29.491  24.595 -0.1187  0.0525  0.1125
68739W        W11755   1.147  12.232   7.234  0.1556  0.0346 -0.4943
68740W        W11756  12.583   1.228   6.114 -0.0732 -0.1400  0.1250
68741W        W11757  34.252  21.035   2.853  0.1549 -0.1218 -0.0665
68742W        W11758  34.439   6.743  28.593  0.0791  0.1138 -0.0970
68743W        W11759  23.194  10.123   3.454  0.0718 -0.0497  0.0611
68744W        W11760  10.620   3.499  22.425  0.4563 -0.0981  0.1893
68745W        W11761  11.341  12.539   2.461  0.1726  0.2900 -0.2912
68746W        W11762   4.825  15.042   8.406  0.1615  0.0918  0.2585
68747W        W11763  15.004   9.417  19.930 -0.0879  0.0255 -0.0503
68748W        W11764  17.136  12.388   2.658 -0.2242 -0.0801  0.1395
68749W        W11765  10.968  17.069   8.440 -0.1812  0.1038  0.1228
68750W        W11766  27.691   4.131   2.960 -0.4258  0.2733  0.1512
68751W        W11767  28.750  11.816  20.538  0.3941  0.0411 -0.1241
68752W        W11768   2.725  32.337  29.233  0.0306  0.1333 -0.0560
68753W        W11769   6.383   4.523   5.166  0.0404 -0.1081 -0.0270
68754W        W11770   8.585  12.544   1.175  0.2567  0.0617  0.4147
68755W        W11771  17.683   3.013   5.735  0.0500 -0.2355 -0.0611
68756W        W11772   0.941  12.837   2.751 -0.3095 -0.1485 -0.0232
68757W        W11773   0.279   7.973  19.019 -0.0076  0.0878 -0.0820
68758W        W11774  25.420   7.741  10.477 -0.1257  0.1078  0.2078
68759W        W11775   9.212   9.844   0.330  0.3360  0.3641  0.1763
68760W        W11776  21.367  12.542  23.678 -0.2306  0.1601 -0.0912
68761W        W11777  30.302  31.230   7.219 -0.2051 -0.0360  0.2136
68762W        W11778  15.754   3.882   8.928  0.0805 -0.0646  0.1598
68763W        W11779  29.478  10.554  18.683  0.0667 -0.0830  0.0801
68764W        W11780   2.340  16.657   9.051 -0.1950  0.2301 -0.1673
68765W        W11781  33.498  33.717   1.671  0.0336 -0.1284  0.2454
68766W        W11782  32.325  17.627   6.878  0.1053  0.0995  0.0273
68767W        W11783  33.405   4.651   9.567 -0.1022 -0.2060 -0.1114
68768W        W11784  26.427  12.265   1.827  0.0448  0.1626  0.1918
68769W        W11785  15.239  12.627  21.294 -0.0977  0.0546  0.1298
68770W        W11786   4.257  22.524   7.652 -0.1564 -0.0628 -0.0551
68771W        W11787  34.051  13.114   2.528  0.2672 -0.2079  0.2671
68772W        W11788  33.576   9.350  27.889  0.0347 -0.2305 -0.0120
68773W        W11789  16.007  14.001   6.494 -0.1905  0.0485 -0.0872
68774W        W11790   5.438  32.318   5.557  0.1505 -0.0589 -0.1734
68775W        W11791  21.041  10.728  24.752  0.1539  0.0725 -0.0865
68776W        W11792  23.117  32.554  10.335  0.1716  0.0406  0.0166
68777W        W11793   3.239   4.702  24.638 -0.0817  0.5018 -0.2609
68778W        W11794  27.404  16.983   2.723  0.0726 -0.0935 -0.2629
68779W        W11795  30.068   7.997   6.073  0.1010 -0.1305  0.0670
68780W        W11796  14.407   6.069  29.074 -0.0542 -0.3508  0.0591
68781W        W11797  32.210   2.618   0.480 -0.1361 -0.0385  0.0165
68782W        W11798  11.503  28.218  23.715  0.1336 -0.1470  0.1537
68783W        W11799  11.394  33.389  24.423  0.0352  0.0780 -0.2938
68784W        W11800  18.712  11.055  28.551 -0.2145  0.2003 -0.1141
68785W        W11801   6.071  20.969   1.850  0.2428  0.0667  0.0509
68786W        W11802  12.952   9.682  19.356 -0.1475  0.2831  0.4821
68787W        W11803  14.165  20.879  25.130  0.2244  0.0884  0.1227
68788W        W11804  22.009  13.167  28.511  0.0493  0.1915  0.1632
68789W        W11805  10.705  25.689   7.066  0.1671  0.1441  0.2095
68790W        W11806   4.729   6.628   5.053  0.0037 -0.1178 -0.2030
68791W        W11807   5.367   8.237   1.347  0.0972  0.0322 -0.0434
68792W        W11808  34.745   9.276  26.808 -0.0030  0.1965  0.1863
68793W        W11809  20.104  13.457   7.773 -0.1753 -0.0033  0.0686
68794W        W11810  26.175  13.122   6.019  0.0950  0.0610 -0.0363
68795W        W11811  23.367  26.108  24.319  0.0138 -0.4045 -0.0359
68796W        W11812   7.209   2.593  27.087  0.1659 -0.0055  0.1698
68797W        W11813   9.473   8.126   7.782  0.1757  0.1649 -0.2203
68798W        W11814  18.795   4.053   7.519  0.2178 -0.2247  0.3417
68799W        W11815  32.106  19.802  29.227  0.1760  0.1232  0.1118
68800W        W11816   7.958   2.739  10.686 -0.1302  0.4610  0.1844
68801W        W11817   0.487   3.929   2.923  0.1452  0.2884 -0.0648
68802W        W11818  15.719  17.207  19.508 -0.0355 -0.0941  0.0349
68803W        W11819   4.000  33.968   8.227  0.0897  0.1265 -0.1057
68804W        W11820   3.539  33.272   8.635 -0.1429 -0.1250 -0.2700
68805W        W11821   0.433   8.613   3.419  0.2263 -0.0609  0.0647
68806W        W11822  18.248   3.884   2.329 -0.2990  0.1680 -0.2509
68807W        W11823  18.625  17.347   2.055  0.1745  0.0892  0.0136
68808W        W11824  22.593  16.293  25.308  0.2906  0.2354  0.4684
68809W        W11825   4.759   6.623  10.136 -0.1535  0.0865  0.1608
68810W        W11826  31.945  32.971   2.979 -0.0608  0.2941 -0.0745
68811W        W11827   4.976   5.923   7.101 -0.1341  0.0311 -0.0562
68812W        W11828  11.994   6.189  27.104  0.0423  0.1599 -0.2256
68813W        W11829   5.688   5.482  22.078 -0.2947 -0.0890 -0.1922
68814W        W11830   9.645  15.947   9.047  0.3837 -0.0421  0.0159
68815W        W11831   5.529   8.296  28.768 -0.0245 -0.1172 -0.0099
68816W        W11832  15.380  12.743   6.633 -0.1977 -0.1011 -0.0646
68817W        W11833  12.455  14.343   2.482 -0.3230  0.1090  0.0229
68818W        W11834  24.638   0.316   5.311  0.0441 -0.0588 -0.1412
68819W        W11835   4.229  12.036   7.807 -0.0869  0.0292 -0.2113
68820W        W11836  20.317  21.629  23.336  0.0669 -0.0057  0.0645
68821W        W11837  29.930   8.774   3.864 -0.2723 -0.2316 -0.4541
68822W        W11838   6.381  16.872  14.790 -0.0581  0.1014  0.1058
68823W        W11839  12.099  32.320   8.902 -0.0345 -0.3622 -0.0497
68824W        W11840  25.492  15.706   2.647  0.6752  0.3212  0.5343
68825W        W11841   2.410  34.335  23.263  0.1969 -0.0530 -0.0787
68826W        W11842  34.287   1.791   4.702  0.0702  0.0590 -0.0079
68827W        W11843  21.140   4.192  27.001  0.3481 -0.0442 -0.2710
68828W        W11844  34.691  21.855   7.638 -0.0737  0.1038 -0.1748
68829W        W11845   0.370  10.526  28.647 -0.2556 -0.0573 -0.2296
68830W        W11846   6.238   8.667   0.071  0.3923 -0.1860  0.1731
68831W        W11847  19.380  26.666   5.302  0.2812 -0.2298  0.2084
68832W        W11848  29.728   5.587  20.332  0.0544  0.2559 -0.0938
68833W        W11849  15.368   8.852  23.858  0.0435  0.4649 -0.3620
68834W        W11850   4.078  34.144  23.386 -0.1376 -0.1808 -0.0502
68835W        W11851   0.361   6.585   6.984  0.0091 -0.2470  0.1563
68836W        W11852  10.000   1.648   6.324  0.1418  0.0732  0.0260
68837W        W11853  16.647  15.834   1.353 -0.0620  0.0560  0.0165
68838W        W11854  10.834   9.681   8.864  0.0306  0.1975  0.0092
68839W        W11855  20.260  10.597  24.260  0.0437 -0.0253  0.0533
68840W        W11856  30.492  34.601   0.523 -0.1279 -0.2364 -0.1229
68841W        W11857  17.283   1.504   8.279  0.0323 -0.0922  0.4561
68842W        W11858   4.309  22.201   8.552  0.1698 -0.0831  0.1743
68843W        W11859   4.591   1.668   8.401 -0.0135 -0.0406  0.1424
68844W        W11860  16.091   8.290   4.875 -0.1035 -0.0005 -0.4201
68845W        W11861   2.445  23.753  26.866  0.0848 -0.0403 -0.1717
68846W        W11862  21.630  23.720   6.423 -0.1759 -0.0771 -0.1283
68847W        W11863   5.160  25.720   5.898 -0.0431 -0.2530 -0.2509
68848W        W11864   7.112  13.729   0.918 -0.0489  0.3843  0.2308
68849W        W11865   2.825  17.690  28.513 -0.0529  0.0480 -0.1837
68850W        W11866  10.625   7.995   0.866  0.1157  0.5161  0.0714
68851W        W11867   1.171  20.176   4.167  0.0386 -0.0949  0.0992
68852W        W11868   3.005  17.212  22.876 -0.0064 -0.0759  0.1056
68853W        W11869  20.600   9.948   5.615  0.2944  0.4171  0.0778
68854W        W11870  12.364   0.837   3.204 -0.1824 -0.0786 -0.0045
68855W        W11871  11.085  11.643   0.454 -0.1966  0.0346 -0.0382
68856W        W11872   1.736   0.789  28.035  0.1895 -0.0798 -0.0269
68857W        W11873   0.487  19.885   6.657 -0.1985 -0.1327  0.2151
68858W        W11874   6.667  34.096  26.972  0.1055 -0.1231 -0.2165
68859W        W11875   7.117   9.082  23.633 -0.2019 -0.1562 -0.0897
68860W        W11876   8.020   9.999   3.809  0.1599 -0.0707  0.0887
68861W        W11877  15.338  23.041  14.406 -0.1178 -0.1292 -0.0457
68862W        W11878  11.287   5.905   1.635  0.4524  0.3084  0.2368
68863W        W11879  16.625  14.499   0.748 -0.0392  0.0372 -0.1383
68864W        W11880  34.374   2.729  14.818  0.1087  0.2248 -0.1173
68865W        W11881   6.926  23.340   0.754  0.0680  0.0294 -0.0392
68866W        W11882   3.637  28.905   2.215  0.1180  0.2800 -0.1828
68867W        W11883  20.376   8.087   5.373 -0.1713  0.0341  0.0759
68868W        W11884  11.411  14.153  25.060 -0.2985  0.0049 -0.1486
68869W        W11885   9.533   4.470  18.586 -0.2901 -0.1774 -0.3469
68870W        W11886   6.539   4.051   5.391 -0.2970  0.0379  0.3394
68871W        W11887  12.928  26.505   0.929 -0.3745 -0.1320  0.0169
68872W        W11888  23.992  28.817   9.573 -0.1207 -0.0082 -0.2197
68873W        W11889   7.530   7.626  21.195 -0.1232  0.1538  0.2502
68874W        W11890  32.154  23.210   3.775  0.0282 -0.0447 -0.0455
68875W        W11891  31.080   6.843  28.697  0.4137  0.2213 -0.1567
68876W        W11892   7.936   0.384   4.639 -0.1494 -0.1834 -0.0402
68877W        W11893   5.301   9.027   7.958  0.1470  0.0735  0.0072
68878W        W11894   1.901  16.422   8.253  0.2374  0.1395  0.0238
68879W        W11895  32.690  29.697   8.127 -0.0635 -0.2582  0.3637
68880W        W11896  12.320   3.166  26.604 -0.3082 -0.1847  0.1841
68881W        W11897  21.996   7.665   5.290  0.0542  0.0704  0.1938
68882W        W11898  30.267   4.810   5.476 -0.3777 -0.0029 -0.0183
68883W        W11899  28.563   8.214  21.433 -0.1996 -0.0338  0.1247
68884W        W11900  19.703  17.587  23.624 -0.3008  0.1250  0.3703
68885W        W11901  26.136   1.879   7.326 -0.0284 -0.0718 -0.1814
68886W        W11902  12.098  13.717   3.164  0.1975 -0.0944 -0.1965
68887W        W11903  10.077  19.027  25.547  0.1015  0.1522 -0.1412
68888W        W11904  13.419  14.645   4.573 -0.0766  0.0028 -0.0874
68889W        W11905   4.601   3.332   4.106  0.3914 -0.3953  0.1821
68890W        W11906  32.923   1.510   5.738  0.0020 -0.2522  0.4264
68891W        W11907  31.111  16.843   1.588  0.1322  0.3244  0.2699
68892W        W11908   1.385  15.048   4.500  0.1154  0.1672  0.0577
68893W        W11909  31.289  11.345  18.168  0.1478 -0.3490 -0.1004
68894W        W11910   6.146  11.400   2.275 -0.0067 -0.1913  0.0736
68895W        W11911  20.388  16.172   6.761 -0.0193  0.2400 -0.2159
68896W        W11912  24.237  31.739  10.216  0.1495 -0.1066  0.1069
68897W        W11913  16.484  21.680   5.665 -0.0410 -0.0786 -0.0682
68898W        W11914  30.201  14.327  24.576  0.0427  0.1064 -0.1822
68899W        W11915  32.413   0.895   7.308 -0.1061  0.1001 -0.0136
68900W        W11916   3.744  11.357   2.312  0.1174  0.0146  0.0607
68901W        W11917  25.003  12.165   5.584  0.2352 -0.1190 -0.1433
68902W        W11918   3.412  21.586  17.195 -0.1697  0.0840 -0.1255
68903W        W11919  13.729  30.599  18.971 -0.0839  0.2147 -0.0731
68904W        W11920   1.994  21.209   4.851  0.1816 -0.2603 -0.0269
68905W        W11921   1.579  13.996  25.163 -0.2890 -0.0582  0.0993
68906W        W11922   4.153  28.030  26.489 -0.4072 -0.3073  0.3325
68907W        W11923  16.145  25.034   3.419  0.2322 -0.0542  0.3224
68908W        W11924   6.650  12.853   5.434  0.4110  0.1216 -0.2400
68909W        W11925  31.326  28.794  11.037  0.0820  0.1085  0.1803
68910W        W11926  14.545   8.785   1.035 -0.2607  0.1579  0.2266
68911W        W11927  29.835  32.484   5.760 -0.0268 -0.0035 -0.0198
68912W        W11928  19.349  10.470  28.331 -0.0026  0.0376  0.1839
68913W        W11929  29.767  24.548   0.040 -0.5376  0.1246  0.1131
68914W        W11930  30.120  33.000  27.858  0.3795  0.0832 -0.0452
68915W        W11931   3.568   4.675   7.433  0.1030 -0.0480  0.1297
68916W        W11932   0.171   6.122  28.684  0.2086 -0.2364 -0.0682
68917W        W11933   7.211  11.367   6.589 -0.0738 -0.3158 -0.0978
68918W        W11934  33.419   5.092   8.326  0.1803  0.0626  0.0840
68919W        W11935  12.988   5.353   3.217  0.1991 -0.0325  0.2725
68920W        W11936  20.269   6.498   6.478 -0.3298  0.0610 -0.0201
68921W        W11937   1.723  28.184   6.294 -0.2266 -0.1748  0.1036
68922W        W11938  10.113  16.627  29.190  0.3017  0.1406 -0.2223
68923W        W11939  10.127   5.738   5.752 -0.1059  0.1585 -0.0360
68924W        W11940   3.353  23.401  19.764 -0.1202  0.0224 -0.2212
68925W        W11941  21.895  21.914   0.270 -0.2419  0.3596 -0.3226
68926W        W11942  22.769  26.184  26.964 -0.2333 -0.0413  0.1768
68927W        W11943   4.768   3.730   0.016  0.2179  0.2220  0.0737
68928W        W11944   0.812   7.720   1.716 -0.2182  0.0648 -0.2448
68929W        W11945  20.518  13.787   7.915 -0.2065 -0.0400  0.0587
68930W        W11946  17.318   8.428   4.233 -0.0395 -0.1517  0.1660
68931W        W11947   2.419   7.263   7.666  0.0871  0.0019 -0.2273
68932W        W11948   3.871   7.578   8.165  0.0550 -0.5215 -0.2610
68933W        W11949  12.349  10.919   8.600  0.2291  0.3500  0.0364
68934W        W11950   7.417  15.088  16.520  0.0912 -0.0788  0.3865
68935W        W11951  19.659   9.482   8.839 -0.1468 -0.0903 -0.2521
68936W        W11952   9.890  13.837   4.010 -0.1416  0.0687  0.1480
68937W        W11953  34.737  12.728   6.610  0.0715  0.1485 -0.0474
68938W        W11954   4.409   6.461   9.800  0.0840  0.2429 -0.1227
68939W        W11955  17.258   5.795   6.462 -0.0565 -0.0774 -0.4435
68940W        W11956   3.024   8.417   6.496 -0.0992  0.0895  0.2646
68941W        W11957  29.427  18.537   0.997 -0.1294  0.0019 -0.2414
68942W        W11958   6.295  11.979   0.381  0.0350  0.0431  0.5767
68943W        W11959   8.406   3.327   7.936  0.2592 -0.1452  0.2378
68944W        W11960  13.972  21.062  15.402 -0.1605  0.0743  0.0314
68945W        W11961   8.169   7.408   8.595 -0.0176 -0.1065 -0.0017
68946W        W11962  11.660   6.197  19.593 -0.0570  0.1571  0.1102
68947W        W11963   8.084   2.369   5.124 -0.1551 -0.0222  0.0891
68948W        W11964  19.451  32.847  10.023  0.1436 -0.0471  0.0103
68949W        W11965  29.089  17.790   2.638  0.5159  0.1727 -0.1248
68950W        W11966  15.293  19.206   6.843 -0.2166 -0.2002 -0.1649
68951W        W11967  33.479  34.236   0.736  0.0866  0.1707 -0.2140
68952W        W11968  12.897  24.316  25.837 -0.1875 -0.2442 -0.1521
68953W        W11969  26.342   0.547  26.930  0.0522 -0.1659  0.0729
68954W        W11970  28.824  13.489   1.832 -0.1758 -0.0115 -0.2799
68955W        W11971  17.598  21.924  27.449 -0.2760  0.1482 -0.0084
68956W        W11972  15.291  15.702   6.957  0.3124 -0.3882  0.3833
68957W        W11973   3.262   1.584   5.018 -0.0106  0.0414  0.0210
68958W        W11974  12.554  30.586   7.556 -0.0073 -0.0534 -0.0396
68959W        W11975  31.839   6.325  24.526 -0.0917  0.0524  0.1677
68960W        W11976   4.558   4.546   7.497 -0.1975 -0.2159  0.1862
68961W        W11977  32.668  22.482  28.824  0.1153  0.3514 -0.1321
68962W        W11978  25.865   3.701   6.675 -0.2794  0.2205 -0.2044
68963W        W11979  19.573  14.647  29.047  0.0808  0.0245  0.1745
68964W        W11980  29.593  16.765  25.592  0.0589  0.2324  0.1099
68965W        W11981  12.013  15.167   2.486  0.1037  0.0274 -0.2201
68966W        W11982  32.867   2.972   6.211  0.1631  0.2472 -0.1412
68967W        W11983   1.368   1.638  19.354  0.1121 -0.3231  0.1970
68968W        W11984   2.455  15.370  23.931  0.1525 -0.0351 -0.0844
68969W        W11985   7.726  15.927   6.065  0.2612 -0.2356 -0.2854
68970W        W11986   8.914  20.864   2.589 -0.0466  0.0232  0.1265
68971W        W11987  27.221  18.474  14.466  0.1932 -0.0587  0.1503
68972W        W11988   1.772   5.261   9.609 -0.1223 -0.0283  0.1892
68973W        W11989  10.303  12.380  23.952  0.0754 -0.0872 -0.4131
68974W        W11990   2.337   5.777  28.626 -0.0291  0.1075 -0.2259
68975W        W11991   2.222   9.101   8.204  0.3668 -0.1540 -0.4304
68976W        W11992   1.259   5.201  29.065  0.2664 -0.0522 -0.1019
68977W        W11993   4.748  21.822   5.869  0.0732 -0.0560 -0.0744
68978W        W11994  28.695   4.002  22.144  0.0406 -0.0776  0.1179
68979W        W11995  14.943  17.782  27.448  0.3371 -0.0960 -0.4483
68980W        W11996  20.594  24.821  26.997 -0.0604  0.0198  0.1007
68981W        W11997  10.339  14.994   2.279 -0.0797  0.0630  0.1306
68982W        W11998   7.706   8.095   1.133 -0.0689  0.0535 -0.3506
68983W        W11999  11.766  12.298  13.497  0.1080 -0.0901 -0.1052
68984W        W12000   0.384   6.332  19.547 -0.0461 -0.1365 -0.2256
68985W        W12001   1.829   1.356   7.911 -0.0212  0.2938  0.0797
68986W        W12002  10.099  22.458   3.030  0.0228 -0.1329  0.0868
68987W        W12003   5.227  18.469   8.416  0.1344  0.1747 -0.0185
68988W        W12004  11.631  25.783   9.295 -0.2226 -0.3077  0.2875
68989W        W12005  11.934   1.242   8.437  0.0018 -0.1280  0.1250
68990W        W12006   1.764  24.341  27.360 -0.0762  0.0176  0.0724
68991W        W12007   1.272   8.498   1.378 -0.2284  0.0871 -0.2427
68992W        W12008  13.654  10.389  28.126 -0.0213  0.1885 -0.0568
68993W        W12009  15.668  15.603  21.800  0.2535 -0.2778  0.1572
68994W        W12010  12.720   9.546  17.671  0.1593  0.1874  0.3018
68995W        W12011   2.140  25.774   7.609 -0.2235 -0.0444  0.2818
68996W        W12012  13.008  17.304  28.393  0.1385 -0.0117 -0.0187
68997W        W12013  21.761   0.197  27.709 -0.0973  0.1948 -0.2239
68998W        W12014   1.186  31.192   0.292  0.1538  0.0367  0.2035
68999W        W12015  10.786   8.423   9.218  0.2287  0.0451  0.3435
69000W        W12016   1.746  31.602   8.953  0.1867  0.1949  0.0768
69001W        W12017  33.026  13.781   1.362 -0.0452  0.0627  0.1219
69002W        W12018   6.706  30.729  23.546 -0.3966  0.1012 -0.2546
69003W        W12019  11.366  24.885   1.927 -0.3220  0.3319  0.0611
69004W        W12020  31.295   2.952   9.058  0.2235  0.2090  0.0672
69005W        W12021  17.493  10.968   8.130 -0.0009  0.3581 -0.2511
69006W        W12022  11.604   1.438   5.094 -0.3409  0.0005 -0.2097
69007W        W12023   5.515  13.479  23.422  0.1612 -0.0800  0.1170
69008W        W12024  26.893   5.846  26.516 -0.4808 -0.2680 -0.1460
69009W        W12025   4.017  21.855   9.933 -0.0481 -0.1280  0.2023
69010W        W12026  10.144  12.362  28.519  0.1432  0.3250 -0.1935
69011W        W12027  17.662   8.925   8.890  0.5448 -0.0427 -0.4010
69012W        W12028   3.333  13.053   1.981  0.1431 -0.2477 -0.0995
69013W        W12029   2.406  20.451   9.645 -0.3563 -0.1915 -0.3218
69014W        W12030   5.462  33.199  28.129  0.2789  0.0294 -0.0611
69015W        W12031  10.830   9.569  26.581  0.0428 -0.0365 -0.0469
69016W        W12032   2.827  11.097   1.663  0.1336  0.3052  0.0991
69017W        W12033  10.578  32.043   9.116 -0.0788  0.1733 -0.0933
69018W        W12034  31.699   5.609   5.235  0.0656  0.5169 -0.1247
69019W        W12035  11.273   6.150   7.235 -0.3483  0.0872 -0.3918
69020W        W12036   5.427   4.740   8.474 -0.1943 -0.0264 -0.3072
69021W        W12037   8.511   6.709  24.240 -0.2284 -0.0659 -0.0063
69022W        W12038  19.362  17.864   4.918 -0.2637  0.0901  0.0698
69023W        W12039   4.482  18.186   0.968 -0.2321  0.1965 -0.3366
69024W        W12040   8.594  19.031   2.582  0.0633 -0.1714 -0.1262
69025W        W12041  31.386   8.838  22.396  0.0544  0.1139  0.0131
69026W        W12042  17.581  25.621  25.939 -0.2062 -0.1497  0.1081
69027W        W12043   3.390   8.650   8.512 -0.4719 -0.2045 -0.2813
69028W        W12044  31.168  11.008   9.077 -0.1653 -0.0482 -0.2176
69029W        W12045   9.405  10.628  29.064 -0.0570 -0.0534  0.2255
69030W        W12046   9.830  12.701  20.859 -0.1482  0.4790  0.0537
69031W        W12047   9.162  30.701  23.406 -0.3102 -0.0058  0.3177
69032W        W12048  15.925  27.622   2.955  0.0090 -0.0769  0.0942
69033W        W12049  34.173   7.019   8.954  0.1774 -0.1388  0.2980
69034W        W12050  29.440   5.255   6.132  0.1596  0.0158 -0.3746
69035W        W12051  29.098  17.168   6.341 -0.0833  0.0829  0.2280
69036W        W12052  10.762   7.675   7.806  0.1083 -0.3286 -0.1813
69037W        W12053   8.199  21.270  15.243  0.0001  0.0788  0.0122
69038W        W12054   4.284   0.170  23.950  0.1839  0.2164 -0.0056
69039W        W12055  25.551  10.432  21.384 -0.3376 -0.0835 -0.2245
69040W        W12056   0.664  12.267   6.955  0.0215  0.0180  0.0071
69041W        W12057  25.769  29.007  26.919 -0.2066 -0.0443  0.0167
69042W        W12058  15.940   4.034   3.601 -0.1533  0.2838 -0.1893
69043W        W12059  22.469  14.718  17.749  0.0020  0.0255 -0.2333
69044W        W12060  22.265  17.517  27.479  0.0615  0.1654 -0.0019
69045W        W12061  13.162   7.071   6.021 -0.0542 -0.0693  0.1280
69046W        W12062  17.909  10.366   0.101  0.1373 -0.0547  0.0661
69047W        W12063  33.262  19.826   6.474  0.0259  0.2378 -0.3185
69048W        W12064   9.568  18.884  24.700 -0.2434 -0.0890  0.2582
69049W        W12065  11.215  28.341   5.482 -0.2113 -0.0413 -0.0336
69050W        W12066   3.445   0.638   3.394 -0.0580 -0.0929 -0.3815
69051W        W12067   9.041   2.298   2.672 -0.3178 -0.2943  0.1085
69052W        W12068  33.804  24.367  25.277 -0.2564 -0.1599  0.2370
69053W        W12069   6.836   0.622   2.182  0.0278  0.0157  0.1196
69054W        W12070  13.860  21.898   8.058  0.1264  0.1252 -0.0561
69055W        W12071  28.146  24.396   8.233 -0.0816  0.2248 -0.2069
69056W        W12072  26.423   1.231   9.188 -0.3146 -0.0696 -0.2195
69057W        W12073  16.303  18.116   2.862  0.3043  0.2489  0.1719
69058W        W12074   6.367   3.097  29.127 -0.1398 -0.2029  0.1126
69059W        W12075  20.526  11.524   4.157  0.0867  0.0638 -0.2092
69060W        W12076  24.270   3.555   2.411 -0.0925 -0.1330  0.0043
69061W        W12077   9.429  14.133  23.894 -0.0292  0.1484  0.0207
69062W        W12078   0.918  10.753   8.416 -0.3309  0.1373 -0.0920
69063W        W12079  10.992   6.402   5.681 -0.2273 -0.1212  0.2761
69064W        W12080   1.972  24.742   5.104 -0.1379  0.0498  0.2403
69065W        W12081  13.621  18.565  21.367 -0.2947  0.0186 -0.1859
69066W        W12082  31.918  28.953   9.270 -0.0694  0.1594 -0.1196
69067W        W12083   7.027   1.517   9.725 -0.0063 -0.0439 -0.2847
69068W        W12084   0.955  33.789   2.678 -0.0141  0.2023 -0.2328
69069W        W12085  19.666  21.681   2.571  0.2525  0.4474  0.2821
69070W        W12086  29.818   6.535  23.422  0.2760  0.0627 -0.1224
69071W        W12087  18.112   0.398  19.213  0.0003 -0.0312  0.2254
69072W        W12088   8.614  13.064  25.682  0.2574 -0.2059 -0.1731
69073W        W12089  15.932  24.673   2.295 -0.1095  0.0507  0.2327
69074W        W12090  30.805  18.194  23.292  0.1562 -0.0958 -0.0947
69075W        W12091  13.299  22.938   7.174 -0.3649 -0.0503  0.1696
69076W        W12092  10.498   1.008  24.319 -0.0485  0.1049 -0.1178
69077W        W12093   6.391  14.293  15.246  0.1183 -0.2062  0.1780
69078W        W12094   4.843  34.552  21.747  0.0189  0.1487  0.2009
69079W        W12095   2.798   0.237   5.543  0.2480 -0.1422  0.3775
69080W        W12096   0.196  34.036   7.890 -0.1138 -0.1966 -0.0728
69081W        W12097   7.544   5.833   7.581 -0.2499  0.2031 -0.3530
69082W        W12098  34.531  10.715   7.756  0.2126  0.0870 -0.1356
69083W        W12099  27.304  13.754   3.837  0.1602 -0.1117 -0.0233
69084W        W12100  30.734  15.148   8.742  0.2120  0.0738  0.1184
69085W        W12101  26.545   4.086   8.286 -0.0366 -0.2261  0.1740
69086W        W12102  31.139  21.641  20.663  0.2340  0.0239  0.0464
69087W        W12103  26.663  34.080  10.506  0.0828  0.2474 -0.3148
69088W        W12104   3.748  18.780  19.214 -0.1548  0.1378  0.2198
69089W        W12105   8.539   6.576   3.948  0.0158  0.0564  0.0257
69090W        W12106  32.404   8.403   8.975  0.0332  0.3983 -0.2864
69091W        W12107   7.440   9.874   3.610  0.1671  0.1706 -0.0648
69092W        W12108   8.138   2.829  19.801  0.1679 -0.1175  0.2034
69093W        W12109   8.747  29.449   9.884  0.0568 -0.0254 -0.2346
69094W        W12110   2.690   2.495   8.753 -0.0763 -0.1168  0.5354
69095W        W12111  24.441  18.750  27.166 -0.1494  0.1788  0.2267
69096W        W12112  14.753  12.560   4.425 -0.2540  0.2885  0.4742
69097W        W12113   9.856   3.705  20.434  0.0936 -0.2288 -0.2185
69098W        W12114  20.928   5.495   4.626 -0.3009  0.0139 -0.0044
69099W        W12115  27.910  29.235  25.626 -0.1284 -0.0163  0.2931
69100W        W12116  32.278  20.565   6.150  0.0481 -0.2580 -0.2375
69101W        W12117   7.251  15.303  26.965  0.2330 -0.1010 -0.1065
69102W        W12118  14.417   3.660   1.745 -0.3215  0.2672 -0.0663
69103W        W12119   2.305  18.704   8.670  0.0046  0.1733  0.0750
69104W        W12120  20.727  12.021   4.445  0.2694  0.1391 -0.0019
69105W        W12121  17.687   9.897   6.716  0.0652 -0.0471 -0.4801
69106W        W12122   5.447   8.464  28.292  0.1456 -0.1620 -0.0412
69107W        W12123   7.145  14.882   4.140  0.1946 -0.1085 -0.0165
69108W        W12124  10.047  25.670   7.774  0.4914 -0.0381 -0.2426
69109W        W12125  13.469  27.685   4.500 -0.0423  0.3089  0.2059
69110W        W12126  33.479  13.000   2.676  0.5046 -0.1131 -0.1348
69111W        W12127  34.332  33.031   9.099  0.2010  0.1132 -0.0622
69112W        W12128   0.573   3.371   9.673  0.0270 -0.0685  0.0492
69113W        W12129  10.729  14.245   2.477 -0.1346 -0.2417  0.1212
69114W        W12130  14.273  10.103  28.485  0.1351 -0.1137  0.0672
69115W        W12131  14.197  26.839   0.206 -0.2057  0.1573 -0.3517
69116W        W12132   2.308   3.489   3.343 -0.2007 -0.1393  0.0763
69117W        W12133   2.752  12.617   8.876  0.0640  0.0538  0.0216
69118W        W12134  13.517   5.836   7.094  0.2558  0.1740  0.0701
69119W        W12135  11.284  13.187   0.558  0.0813 -0.0304  0.3056
69120W        W12136  20.279  16.211  24.504  0.1465  0.1808 -0.0091
69121W        W12137   4.009   3.966   6.265  0.1729  0.3620  0.0644
69122W        W12138   0.077  18.342   6.682  0.0354  0.0364  0.2233
69123W        W12139   7.400  20.493   5.118  0.1421  0.0099 -0.0510
69124W        W12140   9.480  13.913   8.033  0.0102  0.2094 -0.0726
69125W        W12141   0.490  23.264  28.849 -0.0235 -0.2645 -0.0090
69126W        W12142  13.804  33.785   2.421 -0.0269 -0.1110  0.0535
69127W        W12143   3.578   8.024  25.349 -0.0932  0.2946 -0.0408
69128W        W12144  32.678   2.632   5.186 -0.0903 -0.0885  0.0665
69129W        W12145   8.909  17.862   5.821  0.0535 -0.0387  0.0365
69130W        W12146  16.204  28.704  10.810 -0.0038  0.0356 -0.1085
69131W        W12147  20.140   7.076  26.101  0.0968 -0.1541 -0.3391
69132W        W12148  16.587   9.234   6.697  0.2807 -0.0454 -0.0691
69133W        W12149   3.178  20.009   4.962 -0.0129 -0.1376 -0.0496
69134W        W12150   3.302  10.345   6.883 -0.1277 -0.1874 -0.1461
69135W        W12151  23.230   3.484  11.311  0.1431 -0.3417  0.1422
69136W        W12152  15.368   8.978   9.684 -0.0058  0.4178 -0.3121
69137W        W12153  23.502  16.937   7.427 -0.0263  0.1704 -0.1154
69138W        W12154   1.664   9.420  19.282  0.3019 -0.1597  0.2848
69139W        W12155  25.039  12.304   3.375  0.0033  0.2735 -0.1680
69140W        W12156  33.458  24.542   9.391  0.0412  0.2145 -0.0928
69141W        W12157   8.128  11.232   7.564  0.2189  0.1269 -0.1316
69142W        W12158  25.105  33.308   6.625  0.0771  0.1683  0.1262
69143W        W12159   6.452  25.538   8.329 -0.0116  0.2284  0.3041
69144W        W12160  29.817  27.730  10.909 -0.3397  0.1358  0.1462
69145W        W12161  15.342   9.862  27.385 -0.2665 -0.1283 -0.2645
69146W        W12162  29.770   9.876   9.593  0.1443 -0.1470 -0.5647
69147W        W12163  12.156  30.022  26.024  0.1176  0.2143  0.1765
69148W        W12164  21.048   3.317   9.889 -0.0349 -0.1681  0.1253
69149W        W12165  14.892   8.811  22.557  0.0711  0.1251  0.1501
69150W        W12166   8.187   4.861   7.437 -0.0873 -0.1690  0.0858
69151W        W12167  34.195   6.636  10.341  0.0834 -0.1752  0.1830
69152W        W12168   9.640  12.676  24.943  0.1149 -0.0793 -0.1672
69153W        W12169  30.002   2.868   0.870  0.0004 -0.3389 -0.2693
69154W        W12170   4.243   5.137   6.725  0.0599  0.2926 -0.1765
69155W        W12171   9.047  16.559   5.255  0.1162  0.1404  0.1224
69156W        W12172   2.109  16.150   1.516 -0.1713  0.2201 -0.2733
69157W        W12173  13.428   8.022  13.984  0.2290  0.2700  0.3480
69158W        W12174  11.020   4.924   3.188 -0.0414 -0.2613 -0.0372
69159W        W12175  28.432  18.098  19.733  0.2442 -0.1445  0.1480
69160W        W12176   7.910   4.553   9.107 -0.2900 -0.0359 -0.0643
69161W        W12177  18.583  18.239  24.811  0.3401 -0.2835 -0.0011
69162W        W12178   5.745  13.678   3.882 -0.0758 -0.2535 -0.0147
69163W        W12179  32.548   4.721   3.475 -0.5019 -0.1266  0.1664
69164W        W12180  29.967  20.154   7.890  0.0685 -0.0999 -0.2203
69165W        W12181  32.057  17.854  27.230 -0.1832 -0.0655 -0.3166
69166W        W12182   8.265   0.622   6.040 -0.3835  0.2413  0.0480
69167W        W12183  31.968  16.058   2.778  0.0851 -0.1176  0.1401
69168W        W12184  16.700  19.299  26.740 -0.1244 -0.0177  0.2771
69169W        W12185  20.204  12.430   0.250  0.2318 -0.1523  0.1446
69170W        W12186   2.867  20.917   1.310  0.1429  0.2530 -0.1831
69171W        W12187   4.052   0.547   5.162  0.0572 -0.0785  0.1268
69172W        W12188   4.997  31.508  29.070  0.0140 -0.0930 -0.1633
69173W        W12189   2.944   9.527   5.047  0.1349 -0.1396 -0.2124
69174W        W12190  31.373  10.849   9.628 -0.0938 -0.2329 -0.2060
69175W        W12191   1.601   1.585   0.860 -0.0895  0.0819 -0.0970
69176W        W12192  33.181  23.945  28.156  0.0875  0.3446  0.0259
69177W        W12193   3.324  18.070   3.403 -0.1727  0.1760  0.0763
69178W        W12194  27.355  32.188   3.009  0.1630  0.1656 -0.1825
69179W        W12195  31.724   5.965   5.665  0.0573  0.1981  0.0247
69180W        W12196   3.570   2.186   2.978 -0.1277  0.0118  0.1733
69181W        W12197   2.086   9.371   6.650  0.4127 -0.0131  0.0699
69182W        W12198   0.675  30.353   7.849 -0.1057 -0.3745 -0.0497
69183W        W12199  32.578   9.784   7.193 -0.0499  0.3684 -0.2049
69184W        W12200  28.365  14.438  15.353 -0.1635 -0.4309  0.0671
69185W        W12201   0.003  12.739  28.151 -0.3178  0.0157 -0.0332
69186W        W12202   3.741  19.719  27.894  0.0913  0.3654  0.0265
69187W        W12203   6.298  30.935  16.765  0.0929  0.2934 -0.0233
69188W        W12204   0.246   0.523   3.454  0.1116 -0.0399  0.2904
69189W        W12205  33.277   2.059  25.289  0.1918  0.1022  0.0428
69190W        W12206  18.921  29.364  27.471 -0.0709 -0.1735 -0.1364
69191W        W12207  14.642   7.667  28.601  0.2983 -0.1663 -0.2034
69192W        W12208  27.409   6.673   7.402  0.3105  0.2655 -0.3462
69193W        W12209  10.329  17.793   4.686  0.0405  0.0533 -0.0245
69194W        W12210  18.504   6.433   2.530  0.0310 -0.2152 -0.2521
69195W        W12211   6.270  17.050   4.104 -0.0439 -0.2332 -0.0505
69196W        W12212   9.128   4.559   6.900 -0.1012 -0.0226 -0.1801
69197W        W12213  28.713   8.043  11.081 -0.1858 -0.1111  0.2961
69198W        W12214  22.718  33.940  24.684  0.2066  0.1273  0.1983
69199W        W12215   6.809   3.159  21.311 -0.0342  0.1329  0.1735
69200W        W12216  13.142  33.507  10.273 -0.3561 -0.1661  0.0831
69201W        W12217   7.291  14.023   3.752 -0.1479  0.1586 -0.0035
69202W        W12218   9.555  13.387   6.186 -0.1925 -0.0006  0.3007
69203W        W12219   0.327  10.741   1.149  0.0974  0.3088  0.0316
69204W        W12220   6.741   7.482   8.852  0.2800  0.1190  0.3114
69205W        W12221   7.658   2.454   8.773 -0.0520  0.0563  0.0021
69206W        W12222  12.935  11.143   1.791  0.2209  0.1104  0.1298
69207W        W12223  31.466  18.044  25.301  0.0320 -0.1103  0.0252
69208W        W12224   3.125   8.311  10.424  0.0751  0.1234 -0.4093
69209W        W12225   1.529  10.739   2.409  0.4380  0.2518  0.4575
69210W        W12226   2.931  21.831  27.982 -0.0678  0.2455  0.0674
69211W        W12227  34.306  21.726   4.455  0.7411  0.3503  0.1025
69212W        W12228  33.324   8.102   0.068  0.4447  0.1192  0.2040
69213W        W12229  32.901   7.989  14.898 -0.3031 -0.0301  0.0657
69214W        W12230  32.480   0.790   2.786 -0.0147 -0.3438 -0.1032
69215W        W12231   7.538  11.084   6.154 -0.1413  0.2246  0.0997
69216W        W12232   7.702   8.185   2.527 -0.1921 -0.0331 -0.0542
69217W        W12233  30.354  14.649  29.312  0.3965 -0.2803  0.1087
69218W        W12234  10.790  29.507   6.022  0.0381  0.3107 -0.0132
69219W        W12235  15.773   5.174   1.972 -0.1322  0.1796  0.2855
69220W        W12236  26.894  15.896  25.361  0.1739 -0.2067 -0.0557
69221W        W12237  27.985  14.491   7.380  0.1208 -0.1259 -0.1409
69222W        W12238   5.356  10.854   8.258  0.0915  0.0336 -0.1570
69223W        W12239   0.539   0.163   7.522 -0.0046  0.1927 -0.1610
69224W        W12240   8.332  29.754   9.504 -0.1982  0.1219  0.0301
69225W        W12241  32.116  18.022   5.940 -0.1199 -0.3219 -0.0571
69226W        W12242  29.609  14.781   4.277 -0.0691  0.2098  0.0594
69227W        W12243  34.343  31.422   4.603 -0.1526 -0.3203 -0.0441
69228W        W12244   7.141  13.058   2.083 -0.0615 -0.1901  0.0060
69229W        W12245  11.660   3.540   3.702  0.1234 -0.3456  0.2914
69230W        W12246  26.835  22.697  21.284  0.0435 -0.0805  0.3933
69231W        W12247  13.088  33.298  16.490  0.2306  0.0633 -0.0704
69232W        W12248  29.387   3.397   9.972  0.0958 -0.1528  0.0843
69233W        W12249  31.199  33.474   2.479 -0.0706 -0.0587 -0.0552
69234W        W12250   4.462  29.228  26.175 -0.0378  0.0732  0.1988
69235W        W12251  19.977  18.782   3.043  0.1333 -0.2378 -0.0830
69236W        W12252   5.337   7.664  10.513  0.0306 -0.3046  0.0222
69237W        W12253  33.421  10.334  24.601  0.0382 -0.3644 -0.0350
69238W        W12254   8.319   9.514   5.303 -0.1262 -0.1403  0.2099
69239W        W12255  13.293  19.076  27.125  0.0496 -0.1258 -0.2798
69240W        W12256   6.026   9.152  28.599  0.2606  0.0105  0.1334
69241W        W12257  11.660  25.782  25.914  0.0966 -0.1395  0.2717
69242W        W12258   6.766  22.291  27.185  0.2295  0.1437 -0.4348
69243W        W12259   2.096   9.887   6.656 -0.1166 -0.1704  0.0387
69244W        W12260  14.861   6.133   9.009 -0.0950  0.0832 -0.1167
69245W        W12261   8.074   7.879  10.580 -0.1887 -0.0867 -0.0953
69246W        W12262   8.852  12.662  13.492  0.0217 -0.0689 -0.0162
69247W        W12263  30.343   5.500   1.346  0.0795 -0.0264 -0.0691
69248W        W12264  16.182   6.280   9.600 -0.3300  0.1823  0.0812
69249W        W12265  20.109  21.938   8.480 -0.2742  0.1058  0.3966
69250W        W12266   5.676  20.224   3.865 -0.0853  0.5195  0.0443
69251W        W12267   8.295   9.669   0.870  0.1093  0.0632 -0.1550
69252W        W12268  31.567   9.703   7.277  0.1361 -0.0687 -0.3799
69253W        W12269   3.843  20.067   7.754 -0.3052  0.0733  0.3363
69254W        W12270  15.189  14.220  28.072  0.1545  0.1372 -0.3294
69255W        W12271  10.473   9.041   9.490 -0.5739 -0.0009  0.0353
69256W        W12272  30.161  18.434   5.728 -0.1726 -0.2170  0.1091
69257W        W12273  14.327   3.868  26.320  0.0378 -0.1047 -0.0623
69258W        W12274   7.993  10.895  26.958 -0.1580  0.1303  0.3544
69259W        W12275   6.307  18.362  28.811  0.1755  0.2330  0.0182
69260W        W12276  28.868  17.163   8.567 -0.3373  0.2591  0.1813
69261W        W12277   3.671  12.582  29.084 -0.0651  0.0421 -0.0795
69262W        W12278  26.842  12.113  24.284 -0.0090  0.0927 -0.0858
69263W        W12279   6.246  14.417   8.877 -0.0141 -0.0307 -0.1810
69264W        W12280   5.248   3.133   2.707 -0.0958 -0.0193  0.2000
69265W        W12281  34.011  30.943  26.215 -0.2745  0.1648 -0.0379
69266W        W12282  15.286  16.405   2.772 -0.1149 -0.4008 -0.0915
69267W        W12283  29.330  11.227   4.088  0.1886 -0.5652 -0.1663
69268W        W12284  28.631   2.952   7.517 -0.1742 -0.2127  0.1543
69269W        W12285  33.511  29.572   3.128 -0.1762 -0.0910  0.1855
69270W        W12286   9.955  11.742   4.766 -0.5776 -0.2923 -0.2775
69271W        W12287   1.998  13.935   9.143 -0.3108  0.0479 -0.1998
69272W        W12288  28.965  10.930  11.113 -0.2069 -0.0107  0.0572
69273W        W12289   7.700  15.072   1.708  0.2414 -0.2511 -0.1041
69274W        W12290  34.065  30.084  22.084  0.0718  0.1564  0.4318
69275W        W12291  32.330  26.419   6.448 -0.0760  0.2386  0.0869
69276W        W12292   5.818  10.215   2.876 -0.2326  0.1261 -0.0725
69277W        W12293   7.300  16.522  22.864 -0.1113 -0.0522  0.1254
69278W        W12294  13.249   1.654   5.033 -0.1744 -0.0263  0.1967
69279W        W12295   4.987   7.620   4.749  0.2956  0.0199  0.0442
69280W        W12296  13.378   9.737  27.472 -0.1649 -0.0683  0.0144
69281W        W12297   4.122  29.491  22.449  0.0205 -0.2486  0.1610
69282W        W12298  10.460  28.426   7.704  0.1268  0.1634  0.0608
69283W        W12299  14.848  23.269  21.513  0.0519  0.1587 -0.2931
69284W        W12300  30.918   2.729   8.901 -0.3888 -0.0892  0.3950
69285W        W12301  31.278  29.526   6.301  0.2218 -0.0869  0.1370
69286W        W12302   2.253  10.877   1.266 -0.1722  0.1995 -0.2083
69287W        W12303  13.907  13.721  25.403 -0.5551 -0.4606  0.1415
69288W        W12304   6.981  11.131  25.036  0.1671  0.4622 -0.0061
69289W        W12305   3.643   3.274  27.788 -0.0282 -0.2117 -0.1046
69290W        W12306  12.085  15.840   7.938  0.1511  0.0420 -0.1436
69291W        W12307  14.967  12.097   4.144  0.5144 -0.0488  0.0246
69292W        W12308   2.789   6.354  21.757  0.0054 -0.0719  0.0174
69293W        W12309   5.937  22.313   4.562 -0.1182  0.2512  0.0836
69294W        W12310   2.475  15.142   9.782 -0.1477  0.0763 -0.0136
69295W        W12311  31.615  20.107   1.347 -0.0666  0.0582  0.1458
69296W        W12312  10.726  20.488  22.964 -0.2312 -0.0056 -0.2307
69297W        W12313   8.258   7.144  27.190  0.2038 -0.1050 -0.1182
69298W        W12314  12.178  14.278   7.286  0.0130 -0.1978  0.2831
69299W        W12315   9.984   9.447   1.363  0.0858 -0.3832 -0.0575
69300W        W12316   5.029  23.408   8.811 -0.0515 -0.1973 -0.0671
69301W        W12317  30.453  19.170  11.278  0.4334  0.3770  0.3458
69302W        W12318   1.101  15.978  17.798 -0.1567 -0.0567 -0.0643
69303W        W12319   6.683   2.869   7.815 -0.1530 -0.1565  0.0087
69304W        W12320   6.691  23.496  28.063 -0.0471  0.5382 -0.0592
69305W        W12321   4.555  14.889   5.643  0.0252  0.0724  0.2677
69306W        W12322  21.405  10.699  26.296 -0.2191 -0.3574 -0.2082
69307W        W12323  22.127  27.703   4.642 -0.3570  0.0083  0.2383
69308W        W12324  15.266   2.059   3.014  0.2157  0.0156 -0.0164
69309W        W12325  15.921  12.907  24.159 -0.1578 -0.2036 -0.0184
69310W        W12326   7.814  25.202  26.752 -0.0372  0.1885 -0.1264
69311W        W12327  10.526  28.606   0.289 -0.0112  0.2987 -0.1473
69312W        W12328   9.633  32.434  29.149  0.0456 -0.1302  0.1126
69313W        W12329   4.856   1.808  22.010  0.1677  0.0103 -0.0028
69314W        W12330  30.966  16.412   8.269  0.0931 -0.2134 -0.0368
69315W        W12331  22.652  18.229   0.780 -0.0575 -0.0605 -0.0107
69316W        W12332   2.953  23.040  29.291  0.2128  0.2246  0.0264
69317W        W12333  13.341  26.281  25.156  0.1940  0.0376  0.0422
69318W        W12334   0.303  14.283   8.396 -0.1046 -0.0186  0.1013
69319W        W12335   8.496  19.114   1.901  0.3008 -0.0603 -0.3741
69320W        W12336   6.258  10.930   7.512  0.1894 -0.3204  0.0671
69321W        W12337  21.307  10.282  24.890  0.1542  0.2287 -0.0710
69322W        W12338   2.407   1.210   6.455  0.1237  0.1105  0.2838
69323W        W12339  33.786   0.005   7.890 -0.2833  0.0547 -0.2240
69324W        W12340  31.001  17.702  27.417  0.1895  0.1377 -0.0056
69325W        W12341   2.240   8.593  28.374  0.1202 -0.0821  0.1604
69326W        W12342  26.532  32.675   0.371  0.2361  0.1035 -0.0105
69327W        W12343   2.055  11.322   9.063  0.0602  0.0689  0.0339
69328W        W12344   7.318   8.316   7.762  0.3256  0.0755 -0.1448
69329W        W12345   5.841   2.148   9.355  0.0871 -0.2357  0.3203
69330W        W12346   9.283   9.237  25.643  0.1491 -0.0799  0.0840
69331W        W12347  18.073  17.813  20.727  0.1563  0.2016  0.3175
69332W        W12348   8.321   2.135   1.082  0.0785  0.1855  0.5449
69333W        W12349  14.390  33.435  28.314 -0.1667  0.0534  0.2437
69334W        W12350   4.594   0.647   1.320 -0.1338 -0.1558 -0.0852
69335W        W12351   1.083   9.886   5.668  0.0387 -0.0344  0.0060
69336W        W12352  34.682  33.066   5.659 -0.1850 -0.5260  0.1625
69337W        W12353  30.439  22.629   2.844  0.0076 -0.3742  0.0239
69338W        W12354  13.987  20.481  22.979 -0.3532 -0.2245  0.3749
69339W        W12355  27.280  32.704   5.540 -0.0720 -0.1903 -0.0969
69340W        W12356   0.237  17.833  26.977 -0.0437 -0.1781  0.1096
69341W        W12357   2.441   1.657  25.122 -0.1646 -0.1010  0.4125
69342W        W12358  27.087  19.442   1.407 -0.2585 -0.1898  0.3031
69343W        W12359  25.367  13.550   7.767 -0.0302 -0.1072 -0.2722
69344W        W12360  27.726  19.307  21.824 -0.2388 -0.0023  0.1020
69345W        W12361  20.672   0.753   9.028  0.0812  0.1370 -0.2115
69346W        W12362  10.128   0.581  26.993  0.0752  0.0540 -0.5768
69347W        W12363   4.617   0.059   8.566  0.2121  0.3506  0.2998
69348W        W12364  12.372  32.344   3.977  0.0322 -0.0652  0.2218
69349W        W12365   5.409  15.649  28.636 -0.0561  0.0983 -0.1694
69350W        W12366   0.709  13.584  27.849 -0.0869 -0.0454 -0.0539
69351W        W12367   0.021   2.764  10.602 -0.1579 -0.2081 -0.1551
69352W        W12368  12.303  21.703   6.995  0.0103  0.0991 -0.1097
69353W        W12369  10.743  17.118  26.236 -0.1928 -0.0500 -0.1037
69354W        W12370   8.555  19.572   0.464  0.0511  0.0719  0.0905
69355W        W12371   1.526  18.641  20.451 -0.1056  0.0484  0.1573
69356W        W12372  16.535   9.038   7.477 -0.0578 -0.0841 -0.2336
69357W        W12373   1.719  13.991   4.290  0.3189 -0.2802  0.0407
69358W        W12374   2.153   3.576  27.038  0.1536  0.1034 -0.1119
69359W        W12375   4.449  18.648  24.195  0.2591 -0.3467 -0.3278
69360W        W12376  24.433  27.483   2.469 -0.3187 -0.2375  0.0219
69361W        W12377  18.698  11.084   2.918 -0.0268  0.0842  0.2680
69362W        W12378  20.398   5.104  15.675 -0.2017  0.0104  0.1751
69363W        W12379   0.936  22.016   9.714 -0.0391  0.1493 -0.2285
69364W        W12380  29.516  11.375   7.304  0.3834  0.2630  0.0172
69365W        W12381  17.136  19.005   4.605 -0.2320  0.3635  0.0384
69366W        W12382   4.725  12.151   8.999 -0.0234 -0.2103 -0.0946
69367W        W12383   9.350  13.235   1.965  0.0616  0.0854 -0.0056
69368W        W12384   5.082  10.754   2.475  0.0072 -0.0775  0.0510
69369W        W12385   9.879  15.672   5.861 -0.2763 -0.2224 -0.0082
69370W        W12386  13.460  12.101  13.694  0.1593  0.2791 -0.1978
69371W        W12387  10.863   1.151   9.929  0.3211 -0.0015  0.3692
69372W        W12388  16.975   2.296  26.915  0.1737  0.0206  0.0245
69373W        W12389  24.134  28.776   3.006 -0.1151  0.0960 -0.0706
69374W        W12390  32.707  27.032   5.825  0.3762  0.0108 -0.0935
69375W        W12391  11.728   1.263  28.169 -0.0161  0.1754 -0.0811
69376W        W12392  12.727   5.415   3.729  0.0659 -0.1164 -0.0234
69377W        W12393  25.856  13.597   3.256 -0.2143 -0.0792  0.0209
69378W        W12394   2.465   6.531  28.231 -0.2664 -0.0461 -0.0143
69379W        W12395  20.904   9.934   4.310  0.0276 -0.0979  0.1879
69380W        W12396   9.830   6.973  10.557 -0.0747  0.0762 -0.1693
69381W        W12397   8.746   6.621   9.339  0.0333  0.1470  0.1227
69382W        W12398  32.035  14.603   9.151 -0.4514  0.2905 -0.2450
69383W        W12399   6.005  12.508   5.720  0.0387  0.1547 -0.1720
69384W        W12400  28.435   8.154   7.622 -0.0685  0.0183 -0.1206
69385W        W12401  16.644  11.622  23.638  0.1988 -0.2497 -0.1001
69386W        W12402   0.698   7.046   8.842 -0.0546  0.0748  0.0753
69387W        W12403  33.536  22.715  28.760 -0.1022 -0.0280 -0.1230
69388W        W12404  34.473   6.183  10.500  0.0191  0.1722  0.0394
69389W        W12405  21.250  30.888  14.841 -0.1100 -0.1554  0.1284
69390W        W12406  14.176  11.877   4.654 -0.2722  0.0452 -0.2630
69391W        W12407   1.715   1.495   7.460  0.0447  0.1953 -0.1505
69392W        W12408  34.506  30.205   7.507 -0.2268  0.0043  0.2988
69393W        W12409  10.186   3.011   1.787  0.1502  0.0515 -0.1222
69394W        W12410  11.026   9.572   5.109  0.0330 -0.0154 -0.1396
69395W        W12411   8.754   5.404   3.430 -0.0840  0.0928  0.2018
69396W        W12412   1.279  14.338  21.386 -0.0219  0.0759  0.2948
69397W        W12413  27.980   9.961   1.960  0.0927 -0.2228 -0.0039
69398W        W12414   0.252  25.592   9.711  0.0015  0.0374  0.0528
69399W        W12415  21.318  10.697   7.687 -0.2201  0.0437 -0.0128
69400W        W12416   9.608  20.076  12.858 -0.2276  0.2555 -0.3768
69401W        W12417  29.837   6.027  26.135  0.1233 -0.0352  0.0363
69402W        W12418  26.651   0.280   4.165 -0.2397  0.3733 -0.2140
69403W        W12419   6.832   8.767   2.945  0.1899  0.1175 -0.1106
69404W        W12420  11.002   0.736   3.596  0.0565 -0.0056 -0.0319
69405W        W12421   6.689   3.682   5.890 -0.2366 -0.1905 -0.0150
69406W        W12422  31.905   6.557   9.901  0.1789 -0.1179 -0.1260
69407W        W12423   7.233  20.311   1.285 -0.1565 -0.0247 -0.2348
69408W        W12424   2.331  32.376   9.829  0.0438  0.1640  0.0262
69409W        W12425   3.024   9.426  29.145  0.2181 -0.0370  0.5036
69410W        W12426   9.082  15.695  29.011  0.0211  0.1267 -0.0399
69411W        W12427   4.925  25.656   7.017 -0.0006  0.0702 -0.2103
69412W        W12428   4.020   6.352   1.947 -0.0023 -0.3482 -0.2668
69413W        W12429  34.574  34.513  26.730 -0.2937 -0.1051 -0.0387
69414W        W12430  28.060  11.881  21.010  0.1185  0.1356 -0.1855
69415W        W12431  11.062  10.238   1.379 -0.2382 -0.0332 -0.2100
69416W        W12432   8.690  14.365   0.402 -0.0992 -0.2086  0.1171
69417W        W12433   4.295   2.114   5.678 -0.0119  0.1043  0.0449
69418W        W12434  29.503   5.675  21.144  0.1856 -0.3274 -0.2047
69419W        W12435   1.522  25.278  19.868  0.1906  0.0241  0.1793
69420W        W12436  11.120  13.739   6.567 -0.0046 -0.2196  0.0662
69421W        W12437   9.463  13.462  25.960  0.0066 -0.0102 -0.0932
69422W        W12438   1.104   5.525  18.402  0.1253  0.2936 -0.0142
69423W        W12439   5.308  11.144   5.948  0.0217 -0.0382 -0.1097
69424W        W12440  17.621   4.984  20.842  0.2435  0.0896 -0.1585
69425W        W12441  17.154   8.467  19.821  0.1569 -0.2274  0.1776
69426W        W12442  30.304  21.888   9.965  0.0872 -0.0927  0.2200
69427W        W12443  23.037   2.780  17.154 -0.2146 -0.0619 -0.0291
69428W        W12444  13.042  18.803  22.318 -0.0571 -0.1666 -0.0704
69429W        W12445  12.382  15.618  14.918 -0.1873  0.1295 -0.0791
69430W        W12446  18.935  10.106  25.106  0.0969 -0.3711  0.0300
69431W        W12447  25.311  19.687   1.704  0.1684  0.0783  0.0616
69432W        W12448  10.840  21.340  21.256  0.0446  0.0580  0.0771
69433W        W12449   8.255  30.870  29.194 -0.0191  0.1198  0.0643
69434W        W12450  32.644   4.934  26.257  0.1913 -0.1558  0.0713
69435W        W12451  11.252  17.054  16.968  0.0862 -0.0463  0.6612
69436W        W12452  29.126  15.535  28.182 -0.0741  0.2018  0.1845
69437W        W12453  19.699   7.315  28.489 -0.1118 -0.1800  0.4975
69438W        W12454   7.376  22.289   5.961  0.1814 -0.0469  0.4627
69439W        W12455  13.445  27.065   5.281 -0.3019  0.0288  0.1654
69440W        W12456  13.176   1.347   2.266  0.1595 -0.1019  0.1792
69441W        W12457   3.158  12.297  28.795 -0.0353 -0.0601  0.0038
69442W        W12458  10.305  11.575   7.589 -0.0747 -0.0307 -0.2764
69443W        W12459  10.251  15.545  17.191 -0.0064  0.0972 -0.1708
69444W        W12460   6.482  17.611  22.106 -0.1508  0.3427 -0.2256
69445W        W12461   2.323   5.542  27.617 -0.2719  0.0593  0.4526
69446W        W12462   4.907  24.836   2.956  0.1670 -0.2075  0.0627
69447W        W12463   7.888  20.784   2.345  0.4365  0.1179  0.1863
69448W        W12464   2.556   7.789  27.878 -0.1939  0.2577 -0.4542
69449W        W12465  30.457   7.673   2.799  0.1736 -0.2998 -0.0955
69450W        W12466   5.318  10.812  28.707  0.1737  0.1013 -0.1574
69451W        W12467   3.371  27.854  28.044  0.0865  0.0368  0.1121
69452W        W12468  20.947   7.341   7.474  0.1000 -0.1270 -0.1427
69453W        W12469  19.007   8.145  21.490  0.0896 -0.2202  0.0159
69454W        W12470   2.419  14.974   1.887  0.2347 -0.1243  0.0282
69455W        W12471  18.566  19.032  28.203  0.1177 -0.0980  0.3882
69456W        W12472  15.664  33.129   3.466 -0.0668  0.1386  0.0921
69457W        W12473   2.623  28.621  18.799 -0.2577  0.1151 -0.0916
69458W        W12474  29.782  27.847   7.141  0.1163  0.3545 -0.1980
69459W        W12475  10.281  20.537  27.677 -0.1338  0.1492  0.1410
69460W        W12476   0.047  31.662   3.687 -0.0504  0.0815 -0.0235
69461W        W12477   9.004  16.752   4.286  0.1629  0.1383 -0.1718
69462W        W12478  13.574  27.760  28.337 -0.3243  0.0634 -0.1494
69463W        W12479   1.708   1.152   3.277  0.0540  0.3556  0.0271
69464W        W12480   0.418  16.759   8.721 -0.1099 -0.0583  0.1241
69465W        W12481  15.101   7.621  19.454  0.0924 -0.0618  0.1253
69466W        W12482   4.424  15.889   5.635  0.4030 -0.2363 -0.1978
69467W        W12483   5.324  29.333  23.406 -0.0506 -0.1525  0.1108
69468W        W12484  10.360  12.760  22.926  0.0931  0.4830  0.4082
69469W        W12485   9.599  33.439   1.685 -0.0465 -0.0670 -0.5134
69470W        W12486  13.694   5.864   4.401 -0.2017 -0.2820 -0.1053
69471W        W12487   8.187   7.916   1.683  0.1234 -0.3600  0.2211
69472W        W12488  22.505  16.484   2.585  0.2019 -0.1038 -0.0004
69473W        W12489   4.763   9.810  27.906 -0.1238 -0.2568 -0.0058
69474W        W12490  15.585   1.167   0.963  0.4739  0.1775  0.3182
69475W        W12491  28.627  29.891   0.408 -0.1045 -0.2308 -0.0690
69476W        W12492  13.874  16.029   0.117  0.1359  0.1997 -0.2351
69477W        W12493  33.466  17.270  20.677  0.1403  0.0488  0.2493
69478W        W12494  19.019  25.899  14.617 -0.2058  0.0375 -0.0370
69479W        W12495  33.416   8.430   0.515  0.3776 -0.0669 -0.1475
69480W        W12496   2.102   3.962  29.056 -0.1785  0.0770 -0.1148
69481W        W12497   5.493  25.572  22.002  0.0314 -0.1479 -0.1904
69482W        W12498   6.807  16.164  20.463  0.1595 -0.0572  0.0651
69483W        W12499  22.063  17.208   0.613 -0.5358 -0.2805  0.4060
69484W        W12500  32.283   8.511   2.359  0.0135 -0.0823 -0.2733
69485W        W12501   5.899  18.577   3.737  0.0283 -0.3160  0.4170
69486W        W12502  32.578  18.608   9.758 -0.0812  0.1036 -0.1108
69487W        W12503  12.524  18.333   2.946 -0.1241  0.0923 -0.2586
69488W        W12504   8.444  17.786   4.923  0.2022 -0.3230  0.0329
69489W        W12505  21.937  18.977   1.365 -0.1591 -0.1446  0.2763
69490W        W12506  11.754   1.790   6.467 -0.0214 -0.0777 -0.0723
69491W        W12507   0.608   6.466  24.116  0.2484 -0.5315 -0.3109
69492W        W12508  13.248  27.662   7.723  0.1339 -0.0973 -0.0080
69493W        W12509  14.717  18.114  23.495 -0.5056  0.0714  0.1700
69494W        W12510  31.312  16.183  24.317  0.0017 -0.3321 -0.2026
69495W        W12511  29.006  27.359  25.267 -0.0532  0.2438  0.1979
69496W        W12512  28.728  15.121  25.581 -0.1191 -0.0995 -0.2358
69497W        W12513   9.298  13.699  20.089  0.0894 -0.1375 -0.0720
69498W        W12514  31.666  19.393   9.539 -0.1568  0.1100  0.1557
69499W        W12515   9.289  18.060   3.667  0.1126 -0.0768 -0.0843
69500W        W12516  12.430  16.978   3.941 -0.0448  0.1962  0.3532
69501W        W12517  31.857  17.551  18.392 -0.1016 -0.1209 -0.0785
69502W        W12518  19.195  17.765   2.123 -0.1880  0.2846 -0.2432
69503W        W12519  26.360  13.749   9.071 -0.2799  0.1547 -0.2610
69504W        W12520   8.555  12.162  22.434 -0.1480 -0.0014 -0.0079
69505W        W12521  23.135  31.579   9.939 -0.1155  0.0285 -0.0077
69506W        W12522  30.592  31.006  21.273  0.2606 -0.0194  0.0938
69507W        W12523  32.310  10.336   7.666 -0.2886  0.0055  0.0846
69508W        W12524   3.207   4.708  27.406  0.1299 -0.5035  0.0921
69509W        W12525  33.401  11.768   2.716 -0.0612  0.1578  0.2801
69510W        W12526  17.369  15.779  13.891 -0.0580 -0.2085 -0.1674
69511W        W12527   7.238   5.617  27.840  0.0118  0.0360 -0.0191
69512W        W12528   0.289  20.545  28.599  0.1598 -0.0799  0.1147
69513W        W12529  11.308   8.396   9.567  0.0969 -0.1534 -0.1129
69514W        W12530   1.249  18.066   4.929 -0.0832  0.1365 -0.2648
69515W        W12531   5.235   9.465   4.233  0.3608 -0.1254  0.0528
69516W        W12532  13.959  27.597  20.983 -0.3211  0.3554 -0.1862
69517W        W12533   5.841  11.335   7.308  0.4436  0.0175 -0.2477
69518W        W12534  18.785  34.412   6.675  0.3621 -0.0547 -0.2524
69519W        W12535   7.889  21.162  22.498 -0.1329  0.1222  0.2286
69520W        W12536   5.277  30.794   1.322  0.0496  0.2210  0.2562
69521W        W12537   9.858  19.319  20.228 -0.0001 -0.1175  0.2170
69522W        W12538   6.503  17.055  24.529 -0.0396 -0.0634 -0.1442
69523W        W12539   0.941  29.860   2.076 -0.0381  0.1863  0.0342
69524W        W12540   7.661  16.478   1.770  0.0539 -0.0345  0.3657
69525W        W12541  22.651  31.781  27.106  0.1972 -0.0008  0.2691
69526W        W12542  29.591   4.738   8.263  0.3090 -0.0613  0.1758
69527W        W12543   1.377   1.060  28.446  0.2462 -0.1712 -0.0386
69528W        W12544   4.557  13.777  28.965 -0.1764  0.2202  0.1442
69529W        W12545  31.284   8.103  18.619  0.0181 -0.0589 -0.0662
69530W        W12546  31.531  19.854   3.315 -0.3011  0.2966 -0.1312
69531W        W12547   2.340  18.379  17.749 -0.1269  0.0658  0.1310
69532W        W12548  31.056   4.080   0.225 -0.0656 -0.1509 -0.1634
69533W        W12549  29.922   3.174   2.243  0.3880 -0.0586 -0.2859
69534W        W12550   3.353  17.145  23.631 -0.1722  0.2329 -0.1580
69535W        W12551  26.091  19.096   4.727  0.1155 -0.0973 -0.2849
69536W        W12552  10.489  19.795   0.737  0.1570 -0.2734  0.0939
69537W        W12553   0.117  12.212   5.893  0.0166  0.3597 -0.1974
69538W        W12554   4.807  25.819  15.602  0.0422 -0.1091 -0.0258
69539W        W12555   1.126  15.429  17.720  0.0006 -0.0161  0.2299
69540W        W12556  13.416  20.349  26.224  0.0777  0.1010  0.1252
69541W        W12557   3.182   2.788  14.985 -0.0305  0.4552  0.1238
69542W        W12558   3.739  13.123   1.724 -0.0864  0.0175 -0.0002
69543W        W12559   9.528  10.986   7.124 -0.0464  0.1196  0.1462
69544W        W12560   4.571  20.206  28.149  0.0819 -0.1468  0.0238
69545W        W12561  32.490  33.523   8.891 -0.1704 -0.1915 -0.2749
69546W        W12562  29.024   8.699  25.643 -0.0747  0.0407  0.0405
69547W        W12563  22.563  32.378  22.421 -0.1150  0.0681 -0.0536
69548W        W12564   4.671  14.086   1.858  0.2068  0.1231  0.1428
69549W        W12565   5.190  29.826  20.271 -0.1880  0.0809 -0.1939
69550W        W12566   0.927  13.498  27.229  0.4125 -0.1035  0.0179
69551W        W12567   5.965   9.886   1.349 -0.0402 -0.1560 -0.1024
69552W        W12568  34.773  16.911   6.659  0.1831  0.1252 -0.1595
69553W        W12569  33.962   8.173   7.417  0.1693  0.0485 -0.1766
69554W        W12570   0.275  30.136   7.633  0.1745 -0.0711 -0.2110
69555W        W12571  28.805   5.929   2.573  0.0933 -0.0106  0.0324
69556W        W12572   4.677  19.465   4.592  0.0974  0.1174 -0.1912
69557W        W12573  25.169   3.563  11.437 -0.1321 -0.0179 -0.1914
69558W        W12574  16.049  15.334   8.221 -0.1403  0.0054 -0.0417
69559W        W12575  10.046  32.708  10.661  0.0188 -0.1018  0.3550
69560W        W12576   9.343  23.778   1.999  0.0427  0.0716  0.1798
69561W        W12577   3.882   1.548  16.878 -0.3141 -0.1395 -0.0434
69562W        W12578  32.332  10.071  25.768  0.2412  0.0232 -0.2367
69563W        W12579  28.278  11.086  27.698 -0.2087 -0.0160 -0.0532
69564W        W12580   6.342  10.884   9.009 -0.0999 -0.2532  0.1832
69565W        W12581   2.709   2.970   5.461 -0.1318  0.0189  0.3092
69566W        W12582   6.767  12.003   5.967  0.2140 -0.2291  0.0521
69567W        W12583  11.101  25.893  22.534 -0.0033 -0.2482 -0.3675
69568W        W12584   4.342  30.634   3.929  0.1895 -0.0812  0.2536
69569W        W12585  26.355  13.816  15.694 -0.4695  0.0414 -0.2017
69570W        W12586   3.947  31.284   5.254  0.0117  0.0510  0.2134
69571W        W12587   0.439   8.548   2.789 -0.1048 -0.3029 -0.1051
69572W        W12588  18.734  13.566   6.189 -0.2712  0.0373  0.0832
69573W        W12589  31.875  17.631   6.169 -0.0454 -0.0099  0.3118
69574W        W12590  13.844   8.046   6.339  0.0447 -0.2572  0.2156
69575W        W12591  32.160  12.675  18.390  0.1925  0.0294  0.0649
69576W        W12592  34.758  15.086  26.131  0.0527 -0.3721  0.1551
69577W        W12593   6.709  22.083   7.020  0.3530 -0.1752 -0.1316
69578W        W12594  16.514   3.396  25.238 -0.1343  0.2497  0.1359
69579W        W12595   2.762  16.504   7.226 -0.2488 -0.1226 -0.0781
69580W        W12596  19.910  13.392  22.290 -0.1807  0.1079  0.0411
69581W        W12597   3.007   0.563  24.932  0.3002 -0.2523 -0.3170
69582W        W12598   8.376  12.597  25.627 -0.1383  0.1296 -0.0900
69583W        W12599  28.830   3.106   8.474 -0.0011  0.0922 -0.1175
69584W        W12600  23.903  11.755   1.904 -0.1999 -0.0998 -0.0141
69585W        W12601   5.740   6.187   6.674  0.0802 -0.1157  0.0565
69586W        W12602  23.077  22.671   8.804  0.0389  0.2191  0.0934
69587W        W12603   7.979  24.091   6.465 -0.4497  0.1409  0.2574
69588W        W12604  19.561  13.293  26.858  0.0448 -0.0332  0.0580
69589W        W12605   9.263  18.099   1.145  0.0287  0.1467 -0.0367
69590W        W12606  34.764   7.270  27.673 -0.1021  0.1259  0.0274
69591W        W12607   7.995   7.692  27.122 -0.0421  0.0227 -0.2350
69592W        W12608   8.086  33.331   9.748 -0.1298 -0.0684  0.1404
69593W        W12609   2.614   8.631   6.782 -0.3708 -0.0183 -0.0878
69594W        W12610  27.605   2.216   8.584 -0.2889  0.1441  0.1855
69595W        W12611  13.504   4.124   3.511  0.1746  0.2734  0.1812
69596W        W12612  15.515  22.029   5.169 -0.1599  0.2768  0.1062
69597W        W12613  30.385   5.583   5.988  0.0957 -0.0607  0.3699
69598W        W12614  15.346  10.221   7.639  0.1461  0.0218  0.2385
69599W        W12615   0.562   1.833   1.628  0.0186 -0.1468 -0.0242
69600W        W12616  10.067   8.868   4.911 -0.0881  0.1795  0.1495
69601W        W12617  32.606  16.579   1.336 -0.0269  0.1004 -0.0294
69602W        W12618   3.863  21.199  23.543 -0.2853  0.0685 -0.2033
69603W        W12619  12.485   2.221   3.141 -0.1934 -0.1093  0.0158
69604W        W12620  13.053   3.894  29.161 -0.2010  0.1002 -0.1713
69605W        W12621  26.954  22.244  17.839  0.0247 -0.0942 -0.0833
69606W        W12622   4.377  29.537   9.671  0.1522 -0.3235  0.1682
69607W        W12623   7.227  11.649  19.895 -0.2872  0.0039 -0.0780
69608W        W12624   4.063   3.698  27.041 -0.4891  0.1891 -0.1888
69609W        W12625  26.328   7.871  23.575 -0.0575 -0.2375  0.1000
69610W        W12626   5.549  16.990   4.755  0.0771 -0.1503 -0.2136
69611W        W12627  14.562  14.049   8.450 -0.0124  0.0906  0.0736
69612W        W12628   9.269  17.126  24.899 -0.0867 -0.0009 -0.2071
69613W        W12629  27.129   8.952  25.549 -0.0657 -0.1871 -0.0737
69614W        W12630  10.610  29.760  18.786  0.3047 -0.1948  0.0983
69615W        W12631  33.935  23.909   5.774 -0.1236  0.1830 -0.1866
69616W        W12632   7.500   1.924  27.998  0.0893  0.0315  0.1737
69617W        W12633  33.544   6.135  29.255 -0.0984 -0.0252 -0.0292
69618W        W12634  28.152  17.465  26.750 -0.1706  0.1010 -0.2048
69619W        W12635  21.258  14.391  16.092 -0.0485 -0.1224 -0.0733
69620W        W12636  28.503  15.428   1.700 -0.0894  0.0168  0.1853
69621W        W12637   0.735  13.841   1.267  0.1672  0.2170 -0.0823
69622W        W12638  31.509  15.262  28.798  0.0931  0.1467 -0.1340
69623W        W12639  10.227   7.294   5.339  0.0324  0.2104  0.2297
69624W        W12640  32.365  17.853   4.534  0.0111 -0.3813  0.0765
69625W        W12641   8.275  17.803   8.639 -0.1378 -0.0235 -0.3086
69626W        W12642   0.721  18.645   2.859  0.0523  0.0161 -0.0756
69627W        W12643  11.439  10.354   6.372 -0.0372  0.1080  0.1068
69628W        W12644   1.144   2.881   3.054  0.2449 -0.1597 -0.1324
69629W        W12645  34.265  32.632   3.951  0.3612 -0.1915  0.0491
69630W        W12646  15.620   8.861   7.890 -0.3548  0.1822 -0.1508
69631W        W12647  26.749  27.469   6.109 -0.3152  0.2515  0.1823
69632W        W12648   5.444  21.926  24.286  0.0706  0.4672 -0.1166
69633W        W12649   6.401  15.372   7.429 -0.0732  0.1729 -0.3966
69634W        W12650  21.006  25.409  22.553 -0.2372  0.2300 -0.1669
69635W        W12651   4.700  28.413  25.774  0.1067  0.0902  0.1998
69636W        W12652   7.705   6.950  16.014 -0.1103  0.0578  0.1644
69637W        W12653  31.119  15.314   8.296 -0.4914  0.1738  0.0791
69638W        W12654   7.353  10.733   7.300  0.0182  0.1288 -0.0097
69639W        W12655  28.021  29.938  23.763  0.0980 -0.1124 -0.0437
69640W        W12656   7.711  23.384  18.321  0.0382 -0.0106 -0.3456
69641W        W12657  19.997  32.154   2.620 -0.1443 -0.2532  0.0360
69642W        W12658  22.926   5.796   0.932 -0.0208 -0.0480  0.0022
69643W        W12659   2.589  22.581  10.389  0.0043 -0.1543 -0.0391
69644W        W12660  32.229   1.636  26.575  0.0443 -0.1208  0.0744
69645W        W12661   2.588  16.962   6.995  0.0105 -0.0242  0.2034
69646W        W12662   7.369   5.991   1.729  0.0133  0.2013  0.2112
69647W        W12663   7.722   5.587   6.473  0.1947  0.0462 -0.0892
69648W        W12664   8.722  11.053   4.946 -0.0280  0.3084 -0.0479
69649W        W12665  12.076  11.259  27.081  0.0061  0.1139 -0.3237
69650W        W12666   0.538   4.429   3.241  0.0183 -0.0481 -0.2262
69651W        W12667   8.504  26.654   5.628 -0.0910 -0.1008 -0.4241
69652W        W12668  26.159  15.936   5.948 -0.0428 -0.1783  0.2474
69653W        W12669   8.731  12.428   4.218 -0.1917 -0.1126  0.1469
69654W        W12670   6.651  26.635  24.761  0.1712 -0.1469  0.0246
69655W        W12671   5.838  11.871  12.911 -0.2569 -0.1528 -0.0038
69656W        W12672  14.649  10.721  17.583 -0.2238 -0.1809 -0.0265
69657W        W12673   1.739   3.140  26.519 -0.0301 -0.1238 -0.0601
69658W        W12674  33.006  14.302  28.918 -0.2408  0.3228 -0.1905
69659W        W12675  25.462  15.820  28.848  0.3252 -0.0005 -0.2807
69660W        W12676  12.483  24.566   2.738 -0.0034 -0.0486  0.1915
69661W        W12677  32.444  10.508  10.155 -0.0821 -0.2860  0.1462
69662W        W12678   6.947  21.027   8.905 -0.1604  0.0160 -0.2483
69663W        W12679  20.066   2.024  10.388 -0.1019  0.3345  0.1684
69664W        W12680   1.164   6.008   9.017  0.0091 -0.1026  0.0814
69665W        W12681   8.120  11.935  25.527  0.0427  0.1644 -0.1882
69666W        W12682  33.315  15.950   7.828 -0.1852  0.3022 -0.2493
69667W        W12683  32.399  16.405  27.014  0.2046 -0.2030  0.2556
69668W        W12684  12.169  26.477   3.704  0.1328  0.1977  0.1853
69669W        W12685  19.555  25.761  21.927  0.1354  0.1213 -0.0625
69670W        W12686  28.751  11.197   4.824  0.0264 -0.2388  0.2110
69671W        W12687  17.649  22.139  28.879  0.0915  0.0279  0.0685
69672W        W12688  11.815   6.299   9.559  0.0840 -0.1402  0.3988
69673W        W12689   5.705  17.801   2.641 -0.2852  0.1395 -0.1433
69674W        W12690  13.225  16.099   0.742  0.0333 -0.3215 -0.3856
69675W        W12691  17.153  17.422  17.633 -0.0755 -0.0445  0.4366
69676W        W12692   6.344  21.882  21.499 -0.0246  0.1839 -0.0156
69677W        W12693  25.884  28.476  28.245  0.0147 -0.4408  0.0905
69678W        W12694  31.245  16.952  19.238 -0.0585  0.1377  0.3191
69679W        W12695  23.692  13.305  24.031  0.0349  0.4195  0.0368
69680W        W12696   1.341   5.518   0.119 -0.2057 -0.2107 -0.0650
69681W        W12697   5.911   3.587  26.846 -0.2584 -0.0030  0.4038
69682W        W12698  20.128  30.470  26.690 -0.1037  0.0247 -0.3190
69683W        W12699  29.254  12.621  24.381 -0.0336  0.0738 -0.4039
69684W        W12700   2.586  19.311  18.974 -0.5533 -0.0384  0.1072
69685W        W12701  30.918  31.752  24.618  0.0555 -0.0179 -0.2240
69686W        W12702   3.293   3.293  10.104 -0.1442 -0.0181 -0.1489
69687W        W12703   3.647  24.134   2.218  0.3007 -0.1250  0.1152
69688W        W12704   0.657  24.630  21.578  0.0355 -0.1745 -0.0411
69689W        W12705  13.223   8.090  18.038  0.0502 -0.1365 -0.0055
69690W        W12706  10.658   2.325   9.368  0.1042  0.0066 -0.1149
69691W        W12707   5.528  20.256  29.201 -0.0896  0.0190 -0.1594
69692W        W12708   8.997  16.483   6.474 -0.2576 -0.0639 -0.2285
69693W        W12709   1.409  32.922   5.506  0.2473 -0.2261  0.0054
69694W        W12710  20.492   6.837  22.552 -0.1699  0.0521 -0.0355
69695W        W12711  31.922  18.121  17.944  0.2619 -0.1249 -0.0081
69696W        W12712   6.345  21.546   3.843  0.2352  0.0560  0.2322
69697W        W12713  32.459  30.965   4.667  0.0729  0.1560 -0.2742
69698W        W12714   5.571   2.517   2.784 -0.0287 -0.1801  0.1771
69699W        W12715  13.733  32.774   0.409 -0.1761  0.1267 -0.3479
69700W        W12716   9.861  20.361  17.429 -0.2310 -0.0672 -0.0122
69701W        W12717   0.867   7.330  28.897 -0.0213 -0.0464 -0.0720
69702W        W12718  30.985  18.912   5.902  0.0092 -0.1972 -0.1547
69703W        W12719  12.359  14.189  27.159 -0.0429  0.1896 -0.3180
69704W        W12720   0.999  21.931   3.712 -0.0060  0.0374  0.0213
69705W        W12721   1.443   7.437  18.222  0.0224 -0.0400 -0.1033
69706W        W12722   8.632  32.046   9.638 -0.0427  0.1772 -0.2502
69707W        W12723   5.806   4.040   5.448  0.1409  0.2349 -0.2063
69708W        W12724  27.388   5.950  15.945  0.0312 -0.2337 -0.2688
69709W        W12725  14.600   7.016   0.123 -0.1928  0.0027  0.0982
69710W        W12726  32.118  33.865   7.769  0.0428  0.2123  0.1743
69711W        W12727  20.294  15.519   6.947  0.2514 -0.0773  0.2775
69712W        W12728   2.686  17.110   2.548  0.3539  0.1020 -0.2117
69713W        W12729   7.759  15.152   6.183 -0.0003  0.2481 -0.0159
69714W        W12730  23.992  20.070  20.009 -0.1349  0.0373 -0.1370
69715W        W12731  20.313   0.870  15.154  0.0030  0.1741 -0.0061
69716W        W12732  16.143   6.732  22.315  0.0007 -0.0526  0.0241
69717W        W12733  23.218   7.013  17.852  0.4969 -0.1367  0.1740
69718W        W12734  29.488  11.178  26.807  0.1326  0.1091 -0.0488
69719W        W12735  33.894  24.377   2.579  0.3940 -0.2112 -0.1755
69720W        W12736  14.991   7.135   1.018 -0.0428  0.0252  0.1656
69721W        W12737   7.655  19.257  28.057  0.1768  0.0245 -0.0898
69722W        W12738  16.956  23.526   7.952 -0.0981  0.3064 -0.1148
69723W        W12739  28.930  15.993   5.774  0.1322  0.0714  0.4932
69724W        W12740   9.482  16.106  14.345 -0.2230  0.3789 -0.1933
69725W        W12741  32.470  18.800  27.200 -0.0208  0.1910 -0.0325
69726W        W12742  21.290  18.199  23.614 -0.1814 -0.1635 -0.0416
69727W        W12743  15.514   5.730   2.739  0.1553 -0.0992  0.2064
69728W        W12744  34.735  12.985   5.816  0.3077 -0.1195 -0.0549
69729W        W12745   5.908   5.802  26.690  0.0159  0.3751 -0.0458
69730W        W12746  34.522  13.418  15.460  0.0330 -0.0897 -0.1115
69731W        W12747  30.395  28.968   3.671 -0.0904  0.1599  0.0505
69732W        W12748   7.446  12.507   5.704  0.2467 -0.1584  0.1922
69733W        W12749  29.941   5.048  26.134  0.1959  0.0566 -0.1027
69734W        W12750   8.711  15.830   4.117  0.1062  0.2337  0.0545
69735W        W12751   7.011  30.874   8.337 -0.1942 -0.1822  0.0236
69736W        W12752  23.919  22.927   5.885  0.2511 -0.1666  0.3774
69737W        W12753  15.097  12.161   2.322  0.0529 -0.2460 -0.1644
69738W        W12754   2.782  21.825  16.061  0.1872  0.0237 -0.0596
69739W        W12755  33.208   5.507   6.606  0.0724  0.1208 -0.0518
69740W        W12756   9.005   7.430   5.124 -0.1571  0.2342  0.1596
69741W        W12757  21.850   5.391   0.696 -0.0205  0.0948  0.3205
69742W        W12758   1.220  10.800   4.370 -0.0610  0.0489 -0.0268
69743W        W12759  20.114   0.320   6.821  0.2744 -0.0047  0.2502
69744W        W12760  10.179   8.225   8.327 -0.2481 -0.0643 -0.0443
69745W        W12761   5.452  10.436   9.177 -0.0159 -0.5616 -0.2532
69746W        W12762   7.241  19.134   4.419  0.4281  0.0346 -0.0016
69747W        W12763  27.366  30.407  10.427 -0.0454  0.0160  0.0830
69748W        W12764  12.057  31.649   5.505  0.1229 -0.1269 -0.0314
69749W        W12765  33.200  27.977   4.745 -0.0217  0.1032  0.3191
69750W        W12766  10.226   1.332  13.996 -0.4722 -0.0856 -0.0051
69751W        W12767   9.550   8.735  23.072  0.2749  0.1573  0.0480
69752W        W12768  11.555  23.583   5.708  0.0480  0.1175 -0.1796
69753W        W12769  33.884  17.746   7.418 -0.1575 -0.0720  0.0297
69754W        W12770   5.400  29.510  26.163  0.0504  0.1793 -0.7405
69755W        W12771  28.490   1.516  11.166  0.2315  0.3276  0.0485
69756W        W12772   1.120  31.092   2.722  0.2050  0.2147  0.3150
69757W        W12773  12.822   7.457   9.487  0.0314  0.1015  0.3045
69758W        W12774  10.234  13.394   4.487  0.1530 -0.0828  0.0599
69759W        W12775   8.261  16.823   3.313 -0.1936 -0.0881  0.0850
69760W        W12776   8.318  15.503  20.147  0.0126 -0.4925 -0.0129
69761W        W12777  13.137  22.858  20.414  0.0484  0.0946 -0.2579
69762W        W12778  30.053  10.527   1.609 -0.0439  0.1557  0.1272
69763W        W12779  26.164  18.549   9.379 -0.3600  0.0413 -0.1591
69764W        W12780  16.431  20.194   3.906  0.1566 -0.0713 -0.0663
69765W        W12781  34.773  31.534  20.030 -0.3632  0.3139 -0.1214
69766W        W12782  15.895  13.561  20.530  0.0710 -0.2386 -0.1366
69767W        W12783   2.792  18.109  23.998  0.1196 -0.0356 -0.1392
69768W        W12784   7.313  18.861  27.818  0.3248  0.1723 -0.0374
69769W        W12785   5.834  21.125   0.887 -0.0394 -0.1557  0.1098
69770W        W12786  15.704  27.292   5.705 -0.0870  0.0783 -0.1506
69771W        W12787   0.187  14.679   3.485 -0.1503 -0.2620 -0.0162
69772W        W12788   0.231  30.227   8.185 -0.1194  0.1548 -0.1019
69773W        W12789  34.699  16.088  22.861  0.0534 -0.2088 -0.1809
69774W        W12790  14.798  12.428  26.972 -0.4220  0.1656  0.0938
69775W        W12791   6.653  14.464   5.349 -0.1253  0.0466 -0.2025
69776W        W12792  11.716  16.617  18.148 -0.1427  0.0614  0.0897
69777W        W12793  10.137  11.011   2.360 -0.2175 -0.0255  0.2581
69778W        W12794  15.922   5.824  17.796  0.0311  0.0598  0.0928
69779W        W12795   1.061  27.873   0.064 -0.1628 -0.0641  0.0681
69780W        W12796  18.935  27.772  18.678 -0.0473  0.0345  0.0646
69781W        W12797  27.112  17.857  29.181  0.0078 -0.3736 -0.2361
69782W        W12798   1.597  28.942   8.334 -0.0811 -0.2836 -0.0806
69783W        W12799  14.597  34.632  19.440 -0.1532 -0.0106 -0.1354
69784W        W12800  30.439  23.530   6.271 -0.2850 -0.0293 -0.1301
69785W        W12801   2.946  11.556   8.537  0.0952  0.0511 -0.1352
69786W        W12802  12.805  16.161   0.402 -0.2347 -0.1426 -0.2128
69787W        W12803   5.885  11.540   8.305  0.1347  0.1110 -0.1013
69788W        W12804  10.696  29.029  21.556  0.3603  0.2625 -0.1167
69789W        W12805   1.386  30.454   7.081  0.0664 -0.2441  0.0749
69790W        W12806   2.937  12.884   3.452  0.4222  0.2961  0.0406
69791W        W12807  11.819  16.818  26.662 -0.1390 -0.1136  0.0518
69792W        W12808  25.213   9.783   2.565  0.0655 -0.3649 -0.1860
69793W        W12809   9.435  17.721   1.396  0.3485  0.3764 -0.0265
69794W        W12810  31.846  10.390   4.502 -0.0576 -0.1534  0.2357
69795W        W12811   9.917   8.859   5.642 -0.2825 -0.1566 -0.3623
69796W        W12812  32.381  10.985   4.932  0.0659  0.0288 -0.0020
69797W        W12813   9.061  20.643  25.964  0.1230 -0.2257  0.1483
69798W        W12814   4.007   3.732   9.055  0.1005 -0.1589 -0.3709
69799W        W12815  11.719  25.620  18.211 -0.1551 -0.2129 -0.3444
69800W        W12816  20.983   9.264   5.879 -0.4725  0.2473 -0.0012
69801W        W12817   6.286   9.079  23.505 -0.1557  0.2612 -0.1631
69802W        W12818  11.657   1.222   2.494 -0.1081 -0.0311  0.3212
69803W        W12819   9.976  26.575   3.169  0.0531  0.0640  0.0105
69804W        W12820   6.876   6.524   1.744  0.0016 -0.0559 -0.0757
69805W        W12821   9.835   8.614   0.879 -0.0138 -0.0899 -0.3348
69806W        W12822   7.757   9.048  17.903 -0.1747 -0.0277  0.1550
69807W        W12823   9.590   6.180  26.038  0.1573  0.0467  0.0885
69808W        W12824  26.092   7.893   8.658 -0.0997 -0.1520  0.0387
69809W        W12825  25.006  12.481   1.400  0.4243 -0.1992 -0.0488
69810W        W12826   0.454   3.761  24.437 -0.1845 -0.4480 -0.2287
69811W        W12827  16.915  25.872  13.231 -0.0134  0.0102  0.1059
69812W        W12828   1.962  15.487   9.418 -0.0419 -0.0396 -0.0220
69813W        W12829   6.185  32.027   7.009 -0.3014 -0.2642  0.2055
69814W        W12830   9.410   5.773  22.573  0.1593 -0.3076 -0.2829
69815W        W12831   2.650  26.455   2.245 -0.0950  0.0859  0.2832
69816W        W12832   3.207   4.028   7.215  0.0634 -0.0645 -0.0546
69817W        W12833   2.777   8.691   5.537  0.0912  0.0598 -0.1000
69818W        W12834  29.233   7.972   2.053  0.0218  0.0305  0.1223
69819W        W12835  16.222   7.896   3.265 -0.3305 -0.0997  0.0119
69820W        W12836  13.647   9.839  28.452 -0.1661 -0.0918 -0.0756
69821W        W12837  13.604   6.452  16.469  0.1245  0.4009  0.1718
69822W        W12838  22.367  18.680   1.613 -0.2245  0.2078 -0.1587
69823W        W12839  29.520  10.696   9.571 -0.1213  0.1715 -0.0102
69824W        W12840  10.199  14.768   7.778 -0.0240  0.2030 -0.3651
69825W        W12841  10.852  13.643  29.318 -0.2638  0.0625 -0.0059
69826W        W12842  16.837   1.389  26.359  0.2981  0.1228  0.2811
69827W        W12843  10.261  17.244   6.689 -0.0122 -0.2434  0.0982
69828W        W12844   9.033  21.821   9.338  0.0365 -0.1823 -0.0128
69829W        W12845   9.429  20.344   8.512 -0.1956  0.1803 -0.2083
69830W        W12846  27.724  12.522   2.948 -0.2833 -0.2653 -0.0746
69831W        W12847   7.472  18.982   5.386  0.3300  0.0291  0.0188
69832W        W12848  31.462  23.018  16.540 -0.2074  0.1015 -0.1815
69833W        W12849  17.258  17.823  20.595 -0.2123  0.0213  0.0086
69834W        W12850  14.035   9.248   5.974  0.1650  0.0862 -0.0700
69835W        W12851   3.882  34.601   9.799  0.1493  0.0609 -0.2856
69836W        W12852  31.017   3.136   2.406  0.1373  0.0004 -0.1377
69837W        W12853  10.767  17.453  21.010 -0.4726  0.0426  0.2019
69838W        W12854  13.458  24.511   0.078  0.0544  0.0924  0.4516
69839W        W12855   3.705  11.834  10.648 -0.2230 -0.1456  0.0083
69840W        W12856  11.135  20.369   7.127  0.1989 -0.0855 -0.0342
69841W        W12857   9.522  18.500   1.372  0.4283  0.0636  0.0562
69842W        W12858  27.157  12.921   4.583 -0.1316 -0.2690  0.2601
69843W        W12859  13.215  14.746  23.045  0.1592  0.0504  0.0435
69844W        W12860   7.098  26.477   8.416 -0.1491  0.3693 -0.1999
69845W        W12861  21.644   7.962   5.013 -0.0989 -0.0447  0.1236
69846W        W12862   2.027  32.375  24.868 -0.1601 -0.1113 -0.0369
69847W        W12863   9.914  11.840   3.745  0.0900 -0.1263 -0.2634
69848W        W12864  32.450  24.676  28.289 -0.0695  0.0468  0.2251
69849W        W12865  27.533   9.063   8.020  0.0379  0.2897  0.2741
69850W        W12866  12.833  13.802  23.995  0.0400  0.1450 -0.1766
69851W        W12867  12.839  21.303   4.709 -0.1045 -0.1249  0.0190
69852W        W12868  34.219   9.082   6.994 -0.2465 -0.0595  0.5080
69853W        W12869  20.259   1.132  23.856  0.1435 -0.0828  0.4165
69854W        W12870  32.533   6.592  26.252 -0.4424  0.0169  0.0837
69855W        W12871  32.491   1.016   8.938  0.5487  0.1918 -0.0523
69856W        W12872   1.494  23.777   1.978  0.1813  0.0809  0.0775
69857W        W12873   7.797  24.032   9.227 -0.0716 -0.2264  0.0490
69858W        W12874  29.293  31.222   5.934 -0.2167 -0.0253  0.0745
69859W        W12875  31.981  15.290  29.207 -0.0933  0.2936 -0.2870
69860W        W12876  12.383  28.211   3.049  0.2176 -0.0195 -0.1721
69861W        W12877  25.108  25.571  19.615  0.0897 -0.2037 -0.1075
69862W        W12878   2.413   0.563  15.148 -0.2021  0.2088  0.0636
69863W        W12879  25.446  34.114   2.835 -0.1265  0.2706 -0.0344
69864W        W12880   5.023  17.676  28.103  0.2753  0.1076  0.2884
69865W        W12881  28.132  17.327  28.420  0.2776  0.0075 -0.1197
69866W        W12882   1.195  24.379   9.745  0.0870  0.2921 -0.1621
69867W        W12883  24.878   3.125  27.772  0.0921 -0.0322 -0.0559
69868W        W12884  10.995   2.858  22.041  0.1073  0.1643  0.3696
69869W        W12885   7.037  11.405   7.555  0.1009  0.0007  0.0575
69870W        W12886  31.970  15.696   0.273  0.0166  0.0615 -0.3416
69871W        W12887  21.468  13.594  22.708  0.0015 -0.0658  0.0923
69872W        W12888  32.723  14.573  10.785 -0.2134  0.2021 -0.0794
69873W        W12889  24.298  29.872   6.634 -0.0623  0.1525 -0.5045
69874W        W12890  11.878   5.680   4.039 -0.0815 -0.2572 -0.1165
69875W        W12891  13.433  13.014   2.991 -0.0324 -0.0577  0.0267
69876W        W12892   6.464  26.187  29.169 -0.0063  0.1897  0.2102
69877W        W12893  15.705  12.321  24.845 -0.0823  0.0354  0.2521
69878W        W12894  34.682  14.577  28.110  0.0853  0.1321  0.1150
69879W        W12895  15.005  30.986  20.944  0.2169  0.3035 -0.0076
69880W        W12896  34.679  24.453  16.207  0.4379 -0.1018 -0.0750
69881W        W12897   0.965   2.648   8.412 -0.2134  0.3002  0.1049
69882W        W12898  18.784   9.916  26.368 -0.1125  0.0391  0.3333
69883W        W12899  25.642  13.204   3.427  0.1992  0.1266  0.2132
69884W        W12900  11.632  13.431   9.181 -0.2861 -0.1934  0.5152
69885W        W12901  10.338  16.324  20.979  0.2275  0.0374 -0.1897
69886W        W12902   7.872   7.927  17.191  0.4175  0.0949 -0.3369
69887W        W12903  21.167  17.252   1.392 -0.4489  0.1930  0.3169
69888W        W12904  10.768  16.092  25.585  0.1405 -0.1448  0.0892
69889W        W12905   7.424   9.879  23.233 -0.3351 -0.0745  0.0709
69890W        W12906   2.075   0.939  26.916 -0.2329 -0.1121  0.0111
69891W        W12907   8.982  26.088   7.945 -0.0015 -0.1057 -0.0952
69892W        W12908  14.190  19.462   7.348 -0.1393  0.0979 -0.3250
69893W        W12909   7.770  17.827  28.082 -0.2175 -0.4786 -0.0020
69894W        W12910  31.746  19.546  23.878 -0.1590 -0.3403 -0.1065
69895W        W12911  29.108  25.340  25.983 -0.0476 -0.1317 -0.3168
69896W        W12912   1.100   5.869   1.131  0.0079  0.0600 -0.0711
69897W        W12913  18.193  12.649   5.261 -0.6061  0.0234  0.0896
69898W        W12914   9.168  21.778  21.213 -0.0487 -0.0986  0.1125
69899W        W12915  10.537   7.308   7.064 -0.0681  0.0898 -0.0927
69900W        W12916   0.718  20.121   6.264  0.0525  0.0131 -0.2342
69901W        W12917  13.234   9.596  28.297 -0.4025 -0.2426 -0.2594
69902W        W12918  22.552   4.402   6.073 -0.4012  0.2193  0.0692
69903W        W12919  17.319  22.245   7.617 -0.2216  0.0679  0.0832
69904W        W12920  11.536  16.006   8.804 -0.0750 -0.1584  0.0613
69905W        W12921   2.137   8.610   9.374 -0.2416  0.1910  0.0466
69906W        W12922   3.716  16.059  24.655 -0.1455 -0.0474  0.1271
69907W        W12923   8.614  32.985  24.283  0.2275  0.1575  0.1464
69908W        W12924  16.520  16.582   1.541  0.1112 -0.0489 -0.2298
69909W        W12925   4.913   2.672  10.501  0.2632 -0.2241  0.2017
69910W        W12926  30.484   6.480   2.935 -0.1073  0.3851 -0.1192
69911W        W12927  12.259   5.562  14.936 -0.1571 -0.2505  0.0646
69912W        W12928   8.844   3.056  22.569 -0.0521  0.0965  0.0502
69913W        W12929  18.833  32.655   4.781 -0.1967  0.0407  0.1723
69914W        W12930   0.727   9.123   2.071  0.1072  0.0794 -0.0554
69915W        W12931  11.134  14.423   3.824 -0.0006 -0.0122  0.2708
69916W        W12932   5.936  19.620  20.513 -0.0886 -0.0264 -0.2323
69917W        W12933  11.352  14.991  28.330  0.1578  0.0653 -0.2011
69918W        W12934   1.463   6.286   7.997  0.0187 -0.4235  0.2455
69919W        W12935   9.794   3.398   7.712 -0.1474 -0.2307  0.1713
69920W        W12936  12.993  22.400   8.798  0.0575 -0.1519 -0.3248
69921W        W12937   4.899   3.790  21.037  0.2614 -0.0708  0.1480
69922W        W12938  14.702   1.970  25.377 -0.0591 -0.2603 -0.1596
69923W        W12939   4.105   5.827   7.808 -0.0590  0.1130 -0.3536
69924W        W12940  12.484  12.488   0.953  0.0600 -0.0445  0.0514
69925W        W12941  19.968  12.725  23.269 -0.2960 -0.2683  0.0400
69926W        W12942   7.937   0.504   0.440 -0.0758  0.1657 -0.1324
69927W        W12943  11.010   8.762   2.273  0.3766  0.3916 -0.0287
69928W        W12944  13.007  17.360  24.308 -0.1497  0.1868 -0.3035
69929W        W12945   9.526  30.261   8.395  0.0090 -0.0554  0.0867
69930W        W12946  16.845  12.837   3.272 -0.3693 -0.1731 -0.0569
69931W        W12947   7.670   6.750  29.043  0.1708 -0.4072  0.0817
69932W        W12948  15.799  13.852   7.276  0.0342 -0.1988  0.0971
69933W        W12949  28.040  12.220   3.327 -0.1485  0.0673 -0.1614
69934W        W12950  34.579   9.319  15.256  0.0171 -0.1474 -0.0866
69935W        W12951   9.726  25.641   6.548 -0.0872  0.0981 -0.1394
69936W        W12952  31.578  20.014  16.247  0.1733  0.3106  0.1688
69937W        W12953  21.137  27.462   6.137 -0.3735 -0.0465 -0.2779
69938W        W12954  19.620  15.263  20.859 -0.1569 -0.1941 -0.0338
69939W        W12955   7.058  31.645   5.358  0.0240  0.3043 -0.1831
69940W        W12956  16.455  30.617  21.915  0.1737 -0.1446  0.1445
69941W        W12957   8.125  21.771   3.895 -0.1713  0.0644  0.1433
69942W        W12958   5.222  20.878   9.751 -0.2343  0.2688 -0.3686
69943W        W12959   3.489   2.732  19.935 -0.0882 -0.1670 -0.1251
69944W        W12960  31.071   3.418   9.085 -0.2996  0.0768  0.2866
69945W        W12961  33.170  16.072   5.461  0.1642 -0.3832  0.1343
69946W        W12962   6.666  27.956   4.280  0.0521  0.0121  0.1413
69947W        W12963  15.815   5.653  27.245  0.0079 -0.1047  0.0896
69948W        W12964  22.388   7.190  22.712  0.1712 -0.0327  0.1142
69949W        W12965   8.005   6.804   7.328 -0.0550 -0.0649 -0.0623
69950W        W12966   6.743  12.216  26.251  0.1537 -0.0962 -0.0412
69951W        W12967  14.022   8.324   7.320  0.3342  0.0746  0.1744
69952W        W12968   7.611  13.432   4.984 -0.1862  0.1562 -0.0065
69953W        W12969   7.822  18.872   8.575  0.1773 -0.1007  0.4354
69954W        W12970  29.614  18.620  27.565 -0.1093 -0.2508  0.0604
69955W        W12971  26.701   1.610  19.748  0.0597 -0.0605 -0.4159
69956W        W12972   5.745  17.603  24.612 -0.0410  0.0285  0.0275
69957W        W12973   3.812   6.011  23.705 -0.2290  0.1576 -0.2614
69958W        W12974   9.559  11.458   4.510 -0.0824 -0.1483 -0.0230
69959W        W12975   7.932  20.166   7.446  0.1600 -0.0012  0.2066
69960W        W12976  29.737   2.690  10.651 -0.3054  0.1486 -0.0753
69961W        W12977  31.463   5.804   9.356  0.2141  0.2074  0.2938
69962W        W12978  12.934  13.658  26.655 -0.2688 -0.1451 -0.1122
69963W        W12979  17.068  10.628   0.180  0.1220  0.1090  0.3362
69964W        W12980  27.330   5.073   3.495 -0.3078 -0.1070  0.2532
69965W        W12981   9.980  29.652   4.519  0.3569  0.0278 -0.0047
69966W        W12982   0.289   1.017   8.496 -0.0483 -0.3731 -0.2544
69967W        W12983   4.549  19.685  21.369 -0.0520  0.0467 -0.1172
69968W        W12984   9.825   9.523   3.246 -0.0394 -0.3471 -0.1973
69969W        W12985   2.025  13.216   7.788 -0.0575  0.0057  0.2713
69970W        W12986   6.294   9.315   7.179 -0.0155  0.2298 -0.1049
69971W        W12987   1.304  21.701   2.489  0.0886  0.1609 -0.0188
69972W        W12988   6.558   3.621   7.817 -0.0869  0.0525 -0.0610
69973W        W12989   3.099  12.645  26.654  0.1833 -0.1861 -0.3908
69974W        W12990  27.481   5.347   1.782 -0.1243 -0.0073  0.1515
69975W        W12991  19.307  13.269   0.621 -0.2169 -0.0382  0.4765
69976W        W12992  13.677   4.844   6.038  0.0753  0.0377 -0.0453
69977W        W12993  22.886  21.779   1.349 -0.3292  0.1175 -0.2231
69978W        W12994  30.389  13.732   6.376  0.0668  0.1052 -0.1200
69979W        W12995   1.936  12.244   1.704  0.3401  0.1512  0.1174
69980W        W12996   1.400   3.523   4.196 -0.0900 -0.2305  0.3207
69981W        W12997  29.384  13.840   2.286 -0.0704 -0.0482  0.0635
69982W        W12998   1.938  13.065  25.543  0.1859 -0.0821 -0.1079
69983W        W12999   6.430   9.448  26.564  0.4188 -0.0251 -0.2769
69984W        W13000   0.439   9.853  28.649  0.2022  0.1922 -0.0886
69985W        W13001  13.376  33.893   5.377 -0.0558  0.2003 -0.1640
69986W        W13002   8.224  27.148  25.435 -0.2042 -0.1595  0.0953
69987W        W13003  24.813  21.442  20.299 -0.0434  0.2647  0.2432
69988W        W13004  14.454  18.142   4.148 -0.0299  0.0530 -0.1050
69989W        W13005   4.337  18.811  27.526 -0.1180 -0.0238  0.0692
69990W        W13006   4.022  20.190   4.930 -0.0026 -0.0635  0.0219
69991W        W13007  27.521  16.948  21.364  0.0090  0.0475 -0.3209
69992W        W13008   3.270  33.624   1.180  0.2375  0.1132  0.0325
69993W        W13009   1.751  25.732  20.050 -0.2683  0.2582  0.0339
69994W        W13010  11.811  32.780   5.094 -0.1087 -0.2044  0.0551
69995W        W13011   5.460  31.244   7.795 -0.3557 -0.0569  0.1372
69996W        W13012   3.128  14.202   6.490 -0.0766  0.1461  0.1787
69997W        W13013  34.706   2.105   9.818 -0.5006  0.1226  0.0583
69998W        W13014   8.522  15.616   1.787 -0.0401 -0.3179 -0.0683
69999W        W13015  12.298   9.544   1.177  0.0968 -0.0431 -0.0711
70000W        W13016  33.193  10.636   8.421  0.0268 -0.1314 -0.0143
70001W        W13017  30.448  24.207   8.066 -0.1919  0.1740 -0.0874
70002W        W13018  31.205   7.725  10.823  0.0925  0.0603  0.0271
70003W        W13019  26.563   8.409   2.137  0.0008 -0.0548 -0.1692
70004W        W13020  15.421  10.087  26.602 -0.1013 -0.2042 -0.3232
70005W        W13021  14.536  25.633   4.372 -0.0006 -0.0707  0.2265
70006W        W13022  32.739  15.868   6.466 -0.3295 -0.1927  0.0720
70007W        W13023   4.819   2.736   3.355  0.2097  0.4427 -0.1225
70008W        W13024   0.486  11.838   1.048  0.0826  0.1212 -0.1073
70009W        W13025  32.077   5.819   2.707 -0.2252 -0.3563 -0.0381
70010W        W13026  33.692  32.584  10.841  0.0376 -0.1962  0.1180
70011W        W13027   6.471  25.978   7.206 -0.0080 -0.3612 -0.0623
70012W        W13028  33.231   9.352   8.950  0.1602 -0.3156 -0.1216
70013W        W13029  31.395  16.860  25.629 -0.3137  0.2008 -0.2013
70014W        W13030   5.389   6.075   7.379  0.2411  0.0279 -0.1407
70015W        W13031  24.137  14.081   2.922 -0.1479  0.0116  0.1110
70016W        W13032   3.630   6.655  18.406  0.3118  0.1175 -0.1510
70017W        W13033   2.588  31.007   6.847  0.0974 -0.0546 -0.2281
70018W        W13034   1.645   9.687   5.228 -0.1715  0.1630 -0.1874
70019W        W13035  16.638  17.366  21.841 -0.0036 -0.0770  0.1151
70020W        W13036   0.613  26.050  25.376  0.1534 -0.1382  0.1434
70021W        W13037   1.325  26.930   9.685  0.1125  0.3158  0.1367
70022W        W13038  12.363  15.261   6.062 -0.0060 -0.0356  0.0882
70023W        W13039  21.580  11.862  25.337  0.0849 -0.0069  0.1315
70024W        W13040  16.222  12.512   6.556 -0.2083 -0.0493 -0.2372
70025W        W13041  16.359  21.442   4.699 -0.2920  0.1703 -0.0558
70026W        W13042   5.325  24.763  26.166  0.0429  0.1383 -0.1078
70027W        W13043  10.290  22.266  26.011  0.1004 -0.0213 -0.1972
70028W        W13044   5.673  33.136   7.190 -0.1271  0.0012  0.0369
70029W        W13045   8.872  11.188   6.337  0.1748  0.3217 -0.2052
70030W        W13046   9.041  27.146   7.987 -0.1335  0.1752  0.2135
70031W        W13047  33.397  23.555   5.360  0.2041  0.3867 -0.1306
70032W        W13048  13.589  17.714   4.466  0.2502  0.0265 -0.2867
70033W        W13049  24.874  15.728   8.805 -0.1090  0.3994 -0.0188
70034W        W13050  28.508  19.817  29.216  0.3777 -0.1484  0.1558
70035W        W13051  13.854   8.796   2.398  0.2545  0.0824  0.0624
70036W        W13052   2.476  25.429   3.785  0.2430 -0.1201 -0.0076
70037W        W13053  19.104  29.504   7.977 -0.0908  0.0463  0.0003
70038W        W13054  13.307  23.602  25.524 -0.0005 -0.0426 -0.2843
70039W        W13055  11.723   8.413   6.768  0.2487 -0.0513  0.1756
70040W        W13056   3.816  20.019  26.473  0.0158  0.0631 -0.2022
70041W        W13057  21.872  13.177  27.427 -0.4599 -0.2235 -0.1846
70042W        W13058  26.979  24.987   1.334  0.2863 -0.0200  0.1987
70043W        W13059  32.909   2.010  25.623  0.0748  0.0345  0.2116
70044W        W13060  23.140  10.405  26.351 -0.0722 -0.0805  0.0799
70045W        W13061  31.793  34.662   1.097 -0.0443 -0.2808 -0.1196
70046W        W13062  15.579  14.600  26.899 -0.0951  0.4191  0.3658
70047W        W13063  19.541  26.711  22.684  0.2232  0.0711 -0.0400
70048W        W13064   5.430   2.899   7.373 -0.1062  0.3363  0.1431
70049W        W13065  31.557  26.758  21.019  0.1437  0.0373  0.0981
70050W        W13066  29.947  22.631  10.101 -0.0526 -0.0352  0.0837
70051W        W13067  30.555  10.974   2.322 -0.2006 -0.1166  0.3506
70052W        W13068  14.327  24.915   1.969 -0.1158 -0.1642 -0.0621
70053W        W13069  24.823  13.613   0.594 -0.1621  0.0934 -0.0534
70054W        W13070  32.651  11.210   6.271  0.2582  0.3540  0.0787
70055W        W13071   7.276  17.910  22.315  0.1765  0.0752  0.0774
70056W        W13072  18.956   6.486  18.793 -0.1237 -0.3355 -0.1963
70057W        W13073  14.696  21.501   5.528  0.0295 -0.0396  0.0105
70058W        W13074  22.032  32.856   3.684  0.1549 -0.0738 -0.1279
70059W        W13075  31.914  33.946   1.713  0.2535 -0.4680 -0.2773
70060W        W13076  15.033  27.608   6.951  0.1096  0.2492  0.0983
70061W        W13077  33.847  13.005   1.475 -0.0545 -0.0018  0.3797
70062W        W13078   8.907   6.059  25.853  0.0205 -0.1765  0.1413
70063W        W13079   0.042   0.672   2.407  0.3683  0.1289 -0.3192
70064W        W13080  12.049   8.283   6.308 -0.2319  0.1173 -0.0222
70065W        W13081  12.170  26.579  20.630  0.0569 -0.2895 -0.1048
70066W        W13082   7.460  22.514  27.925 -0.0092 -0.2876  0.2488
70067W        W13083  17.329  27.277  25.385 -0.0883  0.0851 -0.0178
70068W        W13084   3.038  17.589  26.120  0.1656  0.0781 -0.0203
70069W        W13085  24.645   6.246  16.099  0.1833 -0.3114 -0.1333
70070W        W13086  31.696  33.324  28.493 -0.0395 -0.2117  0.1117
70071W        W13087   2.701  13.174   5.959 -0.1922 -0.3157 -0.0076
70072W        W13088   5.758  14.411   8.697  0.0856  0.1548  0.2922
70073W        W13089  24.009  30.111  10.448 -0.1198  0.2195 -0.1001
70074W        W13090  13.234  17.502  20.949 -0.1235  0.3528 -0.0427
70075W        W13091  12.680  27.868  16.852  0.0684 -0.2034  0.1734
70076W        W13092  17.533  19.747   1.441 -0.0371 -0.0723 -0.0927
70077W        W13093  28.890  14.200  28.481  0.0239 -0.0144  0.4210
70078W        W13094   3.795  21.504  19.592  0.1372  0.1148 -0.4630
70079W        W13095  16.281  12.799  27.922 -0.3514  0.0401  0.0441
70080W        W13096  12.950  10.569  24.446  0.0378 -0.1801 -0.0049
70081W        W13097  30.897   7.783  25.799  0.0226  0.2440  0.1868
70082W        W13098   4.838  20.791  23.067  0.0734 -0.0999 -0.0837
70083W        W13099  30.645  19.594  26.270 -0.1090  0.1848  0.1883
70084W        W13100  25.763  10.415  26.526  0.0270  0.2084 -0.1276
70085W        W13101  13.985   5.765   9.364  0.2068 -0.0070 -0.0862
70086W        W13102  24.312  28.873   5.398  0.2124  0.1054 -0.2640
70087W        W13103  16.831  27.160   7.053 -0.0775  0.3043  0.1302
70088W        W13104  33.117  16.663   1.636 -0.1932  0.1488  0.1996
70089W        W13105  10.875   8.174   7.073 -0.0495 -0.1469  0.4275
70090W        W13106   5.806  26.575   5.421 -0.2716  0.1442  0.1055
70091W        W13107   5.310  11.340   4.108  0.0696 -0.1862  0.1201
70092W        W13108  14.219  10.061   9.498  0.0428 -0.1595 -0.2840
70093W        W13109  16.771  17.077  20.342 -0.1463 -0.0944 -0.4569
70094W        W13110  30.195  12.865   1.100 -0.1114 -0.0029  0.0300
70095W        W13111  19.007  16.190   4.252 -0.0864 -0.0898  0.0458
70096W        W13112  19.761  13.040   8.848 -0.0064  0.3726 -0.0320
70097W        W13113  27.899  33.394   6.077  0.1732 -0.2614 -0.2344
70098W        W13114  22.608  34.666  27.831 -0.1226 -0.1041 -0.2611
70099W        W13115   7.483  14.715   5.736  0.3253 -0.3144  0.0229
70100W        W13116  29.423   0.681   0.973  0.2251 -0.0738 -0.1315
70101W        W13117  31.893  14.029  26.120  0.0373 -0.0171 -0.1244
70102W        W13118  12.592  11.562  27.792  0.1023  0.0885 -0.1985
70103W        W13119  14.707   7.813  23.311  0.0227  0.1632 -0.3556
70104W        W13120  10.884   3.309   6.746  0.0330  0.2153  0.1855
70105W        W13121  14.613  10.162   5.024  0.0707  0.0560 -0.0711
70106W        W13122  10.190   3.480   4.494  0.0970  0.2741 -0.3124
70107W        W13123  12.685   4.440   8.121  0.5302 -0.2217  0.1564
70108W        W13124   3.527  14.534   6.456  0.0843  0.2414  0.1925
70109W        W13125  24.472  27.032   9.017 -0.1456 -0.2720 -0.0290
70110W        W13126  23.039   0.540   7.274 -0.2494  0.0460  0.0833
70111W        W13127   3.691  20.321   3.026 -0.0716  0.0210 -0.0281
70112W        W13128  13.077  17.630  26.705 -0.1182  0.1435 -0.1854
70113W        W13129  33.201  24.722   2.608 -0.1906 -0.3243  0.0074
70114W        W13130  13.047  15.294  28.373  0.0482 -0.0739  0.1515
70115W        W13131  16.399  15.605  28.401  0.0527  0.1896  0.1673
70116W        W13132   6.270  18.651  26.901  0.0920  0.2215 -0.1824
70117W        W13133  17.311  23.456  25.680 -0.1856  0.0988  0.0271
70118W        W13134   3.029   3.579   7.285 -0.1914 -0.0552 -0.1197
70119W        W13135  16.990  12.804   8.205  0.2764 -0.1974  0.4999
70120W        W13136  15.310  14.583   0.256 -0.0990  0.1374 -0.1450
70121W        W13137  17.961   9.573  28.031 -0.1622 -0.1934 -0.1515
70122W        W13138   7.459  23.362   7.138  0.0537 -0.1223 -0.5776
70123W        W13139  29.258  34.763   0.379  0.1361  0.1992  0.2710
70124W        W13140  10.395  25.762  21.955  0.1107  0.0603  0.0647
70125W        W13141  25.459   3.435   4.450  0.0479  0.0670  0.0045
70126W        W13142  10.880   2.160  16.661 -0.0163  0.0098 -0.0932
70127W        W13143   8.878  19.677   5.297 -0.0612  0.2349 -0.1457
70128W        W13144  11.285  15.629   3.078 -0.0934 -0.1307  0.0089
70129W        W13145  23.436  20.754  27.446 -0.2733  0.1475 -0.1499
70130W        W13146   2.901  13.410   9.031  0.2777 -0.0245  0.1452
70131W        W13147  21.997  34.493   8.322  0.4182  0.1482 -0.1965
70132W        W13148   8.860  14.992  25.499  0.0421  0.2043 -0.0058
70133W        W13149  19.002  13.188   6.393 -0.0514  0.1205 -0.0227
70134W        W13150   0.342   6.912   1.978  0.3520 -0.0594 -0.0683
70135W        W13151   0.850  24.368   4.808 -0.0403  0.0007 -0.0599
70136W        W13152  13.348   3.779  28.065 -0.1075  0.2475  0.0076
70137W        W13153  18.107  16.420  23.711 -0.0322 -0.0505  0.0509
70138W        W13154  22.765   4.733   6.901 -0.0661 -0.1769 -0.0517
70139W        W13155   5.869  16.794  28.875  0.1142 -0.2143  0.0834
70140W        W13156  22.507  23.669  27.836  0.1006 -0.4499  0.2531
70141W        W13157  14.304  16.706  19.726  0.0255 -0.0164 -0.2294
70142W        W13158  29.496  30.049  18.977 -0.2893 -0.1095 -0.0476
70143W        W13159  24.605  20.172   2.600 -0.0101 -0.0008 -0.2800
70144W        W13160  15.315  11.295  26.420  0.2428  0.1354  0.2398
70145W        W13161  13.646  30.381   2.039 -0.2236  0.1682 -0.2397
70146W        W13162   9.402  34.753   6.458 -0.1194  0.3353  0.0215
70147W        W13163  12.932  13.633   4.670 -0.0593  0.0654 -0.0584
70148W        W13164   4.063  14.571   8.069 -0.0758 -0.1843  0.1324
70149W        W13165   3.009   2.153   1.544 -0.3146  0.0468  0.0229
70150W        W13166   5.197  10.010  21.649  0.3186  0.0440 -0.0970
70151W        W13167  17.519  11.647   4.968 -0.0904 -0.2605  0.2361
70152W        W13168   2.712  21.454   3.922 -0.0760 -0.1306  0.0617
70153W        W13169   1.314   6.354  10.405 -0.4669 -0.1604 -0.0366
70154W        W13170   6.498   9.880   7.926  0.0373 -0.1525 -0.1303
70155W        W13171   6.613  19.311   6.809  0.4847  0.1048 -0.0077
70156W        W13172  16.073  16.951  24.006  0.1081  0.3831  0.1366
70157W        W13173  30.178  32.834   4.443  0.0670 -0.4054  0.2525
70158W        W13174  18.399  16.650   8.310 -0.2885 -0.2034 -0.1638
70159W        W13175  15.188  10.748   8.882  0.1429  0.0474  0.1625
70160W        W13176  16.204  12.262   7.315  0.0013  0.0420  0.1162
70161W        W13177   6.656  11.431  21.998 -0.1378  0.1058 -0.1031
70162W        W13178   7.153   0.160   2.836 -0.0487 -0.0464  0.0299
70163W        W13179  15.603  14.701   2.848  0.1008  0.1255 -0.2141
70164W        W13180  29.608   6.831   1.676  0.1620 -0.0779 -0.0885
70165W        W13181  15.117  17.946   4.492 -0.1116  0.0194 -0.0320
70166W        W13182   8.363   0.977  23.655  0.0632 -0.0934 -0.0591
70167W        W13183   6.525  30.115  27.435 -0.0830  0.0651  0.0481
70168W        W13184   9.807  31.968   8.658  0.0901 -0.0861  0.0372
70169W        W13185   6.983   8.742   8.066  0.1129  0.0310  0.0654
70170W        W13186   4.898   2.099  17.497 -0.2807  0.3094  0.1490
70171W        W13187   8.696  34.301  24.485 -0.1754  0.4344  0.1251
70172W        W13188   6.315  12.141  25.453  0.1970  0.3292  0.2985
70173W        W13189   7.905   1.503   3.482  0.0607 -0.0913 -0.1887
70174W        W13190   6.264   8.625  23.670  0.0243 -0.1967 -0.0640
70175W        W13191  34.564  10.160  14.706  0.1498  0.0724  0.2486
70176W        W13192  29.055  31.332   2.102  0.0920 -0.1476  0.1990
70177W        W13193   8.357   7.896   8.691 -0.0677 -0.1394 -0.0393
70178W        W13194  26.135  22.259  29.157 -0.0935  0.3267 -0.1540
70179W        W13195  18.132  16.636   3.252  0.0126  0.3360 -0.0345
70180W        W13196  29.784   8.516   7.977  0.2651  0.1350 -0.0299
70181W        W13197  13.143  18.136  27.237  0.1668  0.2264  0.1479
70182W        W13198  31.149  17.777  24.429  0.2359 -0.0617 -0.0222
70183W        W13199  14.080  11.283   3.753  0.1933 -0.0387 -0.1009
70184W        W13200  23.955  17.654   5.354  0.0816  0.0110  0.1603
70185W        W13201   7.346   3.629   4.998 -0.1033 -0.1254 -0.0970
70186W        W13202  14.829   3.200   4.283  0.1234 -0.1247 -0.0399
70187W        W13203  13.807  23.918   4.378 -0.2518  0.0926  0.0865
70188W        W13204  12.344   4.380   5.816 -0.0829 -0.0279 -0.1404
70189W        W13205   9.544  13.672   3.588 -0.1375 -0.3247 -0.0216
70190W        W13206  26.551  11.279   7.238 -0.0434 -0.0397  0.4963
70191W        W13207  29.988  19.672   5.451 -0.0655  0.0543  0.1469
70192W        W13208   8.467  12.940   6.300 -0.1967 -0.1966 -0.1891
70193W        W13209   0.002  25.678  26.153 -0.1134  0.1748  0.0982
70194W        W13210  20.878  24.339   9.184  0.0738 -0.1194  0.0138
70195W        W13211  25.673  20.061   1.715 -0.4755 -0.1154  0.2355
70196W        W13212   9.676   7.973  29.130 -0.0132  0.0041 -0.0407
70197W        W13213   8.485  12.324   5.318 -0.1335 -0.0491 -0.0938
70198W        W13214  14.840  24.098   2.895 -0.0123 -0.1453  0.0162
70199W        W13215   8.507  27.215   5.924  0.0866 -0.1097 -0.3030
70200W        W13216  31.787   9.206   9.114 -0.0402  0.0441 -0.0914
70201W        W13217   4.809  11.520   4.279 -0.0522  0.2566  0.2493
70202W        W13218  22.832   9.038   1.610  0.2242  0.0400  0.1178
70203W        W13219   7.332  28.920   2.286  0.1900 -0.1200  0.0464
70204W        W13220  12.326  13.527  28.724 -0.0425 -0.0084 -0.1411
70205W        W13221  32.228  22.843   6.718  0.1964  0.0301  0.0357
70206W        W13222   1.345   2.329  10.466 -0.2059 -0.1948 -0.0806
70207W        W13223  13.040  20.663   0.449  0.2786  0.1168 -0.0960
70208W        W13224   4.257  25.537  27.865 -0.0520 -0.0422 -0.0071
70209W        W13225   7.930   2.416   7.558 -0.0026  0.1188 -0.4367
70210W        W13226  21.102  13.996   5.591  0.0218  0.0562 -0.3713
70211W        W13227  32.195  32.463   5.824 -0.0606 -0.1068 -0.4441
70212W        W13228  14.031   9.992  28.086 -0.2567 -0.0283  0.0094
70213W        W13229  28.763  16.089   9.306 -0.2506 -0.1106  0.0462
70214W        W13230  29.536  30.417  27.000  0.1464  0.0597  0.2053
70215W        W13231   7.743  16.382   6.913  0.4832 -0.3173  0.0276
70216W        W13232  13.323  12.453  15.483  0.2432 -0.0111  0.0069
70217W        W13233  20.468  12.901   2.661 -0.0061 -0.0319  0.3551
70218W        W13234  13.955  12.889   0.864  0.1004  0.2977 -0.1764
70219W        W13235  22.575  32.614  27.023 -0.0515 -0.0555 -0.1791
70220W        W13236  21.178  20.537  28.674 -0.0708 -0.3141  0.0816
70221W        W13237  15.003  11.623   2.202  0.0182  0.1080 -0.3561
70222W        W13238  20.604  18.984  28.090 -0.2287  0.3160  0.2142
70223W        W13239  21.708  32.515  29.082  0.0435 -0.2150  0.0949
70224W        W13240  19.287  18.366   7.085  0.1098  0.1830  0.0986
70225W        W13241   2.050  17.730   9.670  0.4965 -0.0517  0.0758
70226W        W13242   7.066  13.260   3.178 -0.0782  0.3141 -0.5020
70227W        W13243  17.334   6.058  26.536 -0.2565 -0.1861 -0.1674
70228W        W13244  11.406   7.622   6.187  0.1451  0.0217  0.0713
70229W        W13245   6.561   9.157   3.198 -0.0301 -0.3103 -0.2527
70230W        W13246  17.373  16.915  20.153  0.0226  0.4879  0.1130
70231W        W13247   3.359  15.950   9.408  0.2959 -0.0901  0.1013
70232W        W13248  21.487  17.492  27.800  0.5867  0.3073 -0.1527
70233W        W13249   9.389  17.342  26.095  0.0498 -0.1963 -0.1591
70234W        W13250   9.584  19.318   0.983 -0.1098 -0.2051  0.0650
70235W        W13251   0.186   9.949   9.321  0.2429 -0.0897  0.1738
70236W        W13252  12.282  10.454   9.061  0.2051 -0.3026  0.1076
70237W        W13253   1.867  22.402   1.993  0.3030  0.0398  0.0075
70238W        W13254   1.248   6.540  21.119  0.1583  0.3175 -0.1662
70239W        W13255   6.209  24.421  15.911 -0.0230  0.0876  0.2486
70240W        W13256  30.578  14.461   5.966  0.1708 -0.1354 -0.3196
70241W        W13257  19.662  22.810   2.774 -0.1787 -0.1106  0.1747
70242W        W13258  15.740   3.596   9.758 -0.0856 -0.1083 -0.2170
70243W        W13259  22.293   7.602  19.847 -0.0404 -0.1487 -0.1404
70244W        W13260  18.884  26.428   6.614 -0.1032  0.1265  0.0740
70245W        W13261   0.298   5.523   6.872 -0.1261  0.1926  0.2366
70246W        W13262  12.267   3.559   9.952 -0.1220 -0.1991 -0.3324
70247W        W13263  12.451   7.786   1.316  0.2915 -0.1001 -0.2461
70248W        W13264  29.465   7.768   3.351  0.1449 -0.0243  0.0979
70249W        W13265  17.909  15.915  12.977  0.1465  0.2246  0.3105
70250W        W13266  17.253  17.227   6.828 -0.0339 -0.1882  0.1727
70251W        W13267  13.225  11.772  25.007 -0.2274 -0.1442 -0.0416
70252W        W13268  26.191  18.870   5.235 -0.0679  0.1438 -0.0232
70253W        W13269   7.466   3.416  18.336  0.4472 -0.0698  0.1891
70254W        W13270  11.648  17.255  26.414 -0.3512  0.0799 -0.1444
70255W        W13271   2.237  11.303  10.176 -0.1480  0.3613  0.0109
70256W        W13272  31.699  16.120  24.748 -0.0225  0.2265  0.3796
70257W        W13273  22.973  30.598   5.882  0.1559  0.0628 -0.2648
70258W        W13274   6.507   5.344   5.191 -0.1945  0.0835 -0.2154
70259W        W13275  31.580  15.309  24.206 -0.0046 -0.4038  0.3178
70260W        W13276  10.270   6.410  24.300 -0.1299  0.0271 -0.1603
70261W        W13277   5.835   8.817   9.417 -0.1444 -0.1866 -0.1110
70262W        W13278   4.900  33.730  26.185 -0.0275  0.1661 -0.2326
70263W        W13279  14.207   3.368   3.815  0.0145 -0.1663 -0.1870
70264W        W13280  17.175  12.249   6.077 -0.0988 -0.2293  0.2980
70265W        W13281  16.308   1.861  28.844  0.0522 -0.1032 -0.0983
70266W        W13282   1.419   6.796   5.700 -0.2789 -0.2974 -0.0643
70267W        W13283  25.731   1.237   5.723  0.0746 -0.1013 -0.1189
70268W        W13284   3.187  16.629   4.803 -0.2320 -0.0473  0.0191
70269W        W13285   4.830  18.253   3.375 -0.0504 -0.0955 -0.1194
70270W        W13286  10.408   0.918   6.848 -0.0253  0.0561 -0.2259
70271W        W13287   9.024   0.391   7.843 -0.2565  0.3767  0.2697
70272W        W13288  12.829  20.630   7.004 -0.0639 -0.0696 -0.3154
70273W        W13289  14.188  29.438   5.902 -0.0268 -0.3728 -0.0271
70274W        W13290   5.422   4.070   6.991  0.1675  0.0875 -0.1893
70275W        W13291  33.338  21.535   7.375 -0.2307 -0.0731 -0.0822
70276W        W13292   6.900   9.281  26.505 -0.0041  0.2016  0.2765
70277W        W13293   5.915  27.249  27.232 -0.0326 -0.1153  0.3423
70278W        W13294   7.315  14.553   9.538  0.0654 -0.1264  0.3702
70279W        W13295  25.296   8.036   2.738 -0.0973 -0.0509  0.0550
70280W        W13296  29.313   1.642  28.957  0.1821  0.0979 -0.2700
70281W        W13297  32.966  20.154   6.798 -0.1234 -0.0380 -0.4149
70282W        W13298  22.981  31.461   1.825 -0.1464  0.0738  0.0960
70283W        W13299  34.527  17.862   6.674  0.0773 -0.1166  0.2101
70284W        W13300  16.397   9.761   1.675 -0.2198  0.2449  0.0628
70285W        W13301  12.575   0.600  27.357  0.0671 -0.1372  0.0626
70286W        W13302   3.177   5.717  27.128  0.0803  0.5731  0.1274
70287W        W13303  14.715  12.418   2.533 -0.0484 -0.1324 -0.2110
70288W        W13304  12.702  17.322   3.063 -0.2188  0.1250  0.1886
70289W        W13305  19.474   4.822  21.990  0.0655 -0.0395  0.1293
70290W        W13306  22.751   9.117  26.729 -0.0850  0.0226  0.4786
70291W        W13307   4.066   7.746   5.821  0.1439 -0.0588 -0.0035
70292W        W13308  10.480   4.387   2.349 -0.1164 -0.3300  0.0703
70293W        W13309   6.875  19.064  13.905  0.1376  0.0062 -0.1088
70294W        W13310   3.034   6.161   9.921  0.2299  0.0332  0.0104
70295W        W13311  15.195  10.971  28.276 -0.1580 -0.1765 -0.1587
70296W        W13312  10.595   5.145   4.685  0.1837 -0.1131 -0.0135
70297W        W13313   1.280  14.615   0.569  0.2239 -0.0350  0.0135
70298W        W13314   6.614  32.817  26.875 -0.0458  0.0869 -0.2170
70299W        W13315  14.564  21.547   8.301  0.0227  0.3079  0.0114
70300W        W13316   2.187  25.732   5.067  0.1255  0.2939  0.0990
70301W        W13317   0.583  13.939  28.180 -0.1149  0.2057  0.1108
70302W        W13318  14.004  15.988  22.245  0.0965  0.1123  0.3364
70303W        W13319   8.167  11.654   6.064  0.2171 -0.0661 -0.1022
70304W        W13320  13.503  12.584   1.941  0.1283  0.1807 -0.1753
70305W        W13321   6.393  23.459   4.321 -0.1374  0.6237 -0.3286
70306W        W13322   1.277  13.385  28.005  0.1296  0.0164  0.0328
70307W        W13323  24.445  17.809   6.509 -0.2692 -0.0619 -0.0082
70308W        W13324   2.787   8.350   3.977 -0.0916  0.0575 -0.0228
70309W        W13325  15.067   8.124   9.145 -0.1415 -0.2847  0.3216
70310W        W13326   1.306  19.540   6.711  0.1822 -0.4291  0.3082
70311W        W13327  29.431   4.497   1.453 -0.2077 -0.3731 -0.0564
70312W        W13328   7.103  14.811   8.487  0.0725  0.0194 -0.1176
70313W        W13329  34.597   9.212   8.715 -0.0634  0.1237  0.2319
70314W        W13330   6.282   2.247  26.668  0.1581  0.1574  0.0561
70315W        W13331   8.859  30.236  19.950 -0.2021  0.0214  0.0687
70316W        W13332   6.738  22.092  13.896  0.0284  0.0365 -0.0617
70317W        W13333  25.342  22.284  18.703  0.3738  0.0198  0.3736
70318W        W13334  18.953  31.982   9.689  0.0579 -0.1157  0.0810
70319W        W13335  12.954  20.302  23.527 -0.0986  0.0240  0.0331
70320W        W13336  27.378   4.210  10.272  0.0465 -0.0269  0.4112
70321W        W13337  11.495   9.794   3.356 -0.1776  0.4368 -0.0213
70322W        W13338   5.057  11.277   8.557  0.3626 -0.0793  0.0282
70323W        W13339  13.847  11.925   6.153  0.0872  0.1079 -0.2543
70324W        W13340  11.334   9.186  14.330 -0.1120 -0.1978  0.0087
70325W        W13341   3.485   7.959  28.650  0.0511  0.0749 -0.0358
70326W        W13342   9.326  11.592   8.439  0.0171  0.2386 -0.1139
70327W        W13343   5.110  19.573   6.478 -0.2418 -0.5923  0.2274
70328W        W13344  18.789  13.992  22.844  0.0826  0.2575  0.5074
70329W        W13345   8.674  21.279   2.515 -0.1277 -0.1587  0.0366
70330W        W13346  31.758  11.590  15.790 -0.1315  0.0304  0.4327
70331W        W13347   5.885  22.229   6.669  0.0720  0.2369  0.1363
70332W        W13348   4.180  15.787  29.058  0.2754  0.0893  0.1087
70333W        W13349  13.517  25.569   4.232 -0.0919 -0.0419 -0.2362
70334W        W13350  17.644  18.033   6.637  0.2841  0.0598  0.0331
70335W        W13351  12.882  10.497   7.150 -0.3282 -0.0258  0.0788
70336W        W13352  14.514   6.696   7.444  0.1601 -0.3834  0.1764
70337W        W13353   7.769  10.378  28.274 -0.0964  0.0603 -0.0988
70338W        W13354  28.423  24.948   1.579 -0.0774  0.0279  0.1535
70339W        W13355  10.849   6.152   8.755  0.0248 -0.0218 -0.0907
70340W        W13356   5.832  30.455   5.211  0.0524  0.0603  0.2880
70341W        W13357  11.716   1.904  10.487  0.0026 -0.1690  0.2062
70342W        W13358  33.677  13.257   5.015 -0.1406  0.1705 -0.2463
70343W        W13359  20.821   8.231   5.827 -0.0115  0.0419  0.0457
70344W        W13360  13.888  17.609   6.493 -0.0357 -0.1639 -0.2539
70345W        W13361  14.001  16.039  25.284  0.2050  0.1148  0.3542
70346W        W13362  31.937  24.231   8.233 -0.1657  0.3050 -0.2217
70347W        W13363  10.309   9.366   9.039  0.2516  0.0706  0.1327
70348W        W13364   8.164  12.964  25.918  0.1928 -0.1294  0.0058
70349W        W13365   9.010   6.791   3.170 -0.2114  0.1908 -0.2749
70350W        W13366   6.272  15.515   5.544 -0.0904  0.1625  0.1727
70351W        W13367  13.636  17.339  29.052 -0.0938 -0.1816 -0.0407
70352W        W13368  29.580   5.526   9.381 -0.2112  0.0063  0.4793
70353W        W13369   2.615  13.514   6.990 -0.0398  0.1250 -0.3320
70354W        W13370   4.063   8.280   5.721  0.1459 -0.0429 -0.1140
70355W        W13371   4.934  15.204   5.660 -0.0085  0.2173 -0.1752
70356W        W13372  19.690   1.476   3.298 -0.0985 -0.1374 -0.4628
70357W        W13373  11.271  13.013   5.744 -0.1505  0.1836  0.3309
70358W        W13374   6.248   5.811   1.782  0.1252 -0.0358  0.2038
70359W        W13375   6.283  12.039   3.582  0.0866 -0.2320 -0.2178
70360W        W13376   6.834  17.393   7.440  0.1493  0.1264  0.1200
70361W        W13377   6.762  12.331   4.717 -0.0247  0.1028 -0.0606
70362W        W13378  34.193  18.208  22.454  0.2816  0.2107  0.1605
70363W        W13379  17.487  12.632   1.574  0.0438 -0.2892 -0.1006
70364W        W13380  17.745  12.333  18.561 -0.0337  0.0249  0.2203
70365W        W13381   3.963   5.412   0.199  0.1039  0.2553 -0.2411
70366W        W13382  32.753  17.747   5.608 -0.0791 -0.0437  0.1554
70367W        W13383   0.755   9.103   0.161  0.0434  0.0075  0.0280
70368W        W13384  13.265  15.971   2.277  0.0198  0.0812  0.0992
70369W        W13385  22.672  17.418   6.067 -0.1363  0.0637  0.0357
70370W        W13386  15.357  16.174  25.510  0.3591  0.0338  0.1588
70371W        W13387   5.133  22.330   7.672  0.1708  0.0676 -0.0967
70372W        W13388   1.494  18.018   8.489 -0.5048 -0.4280 -0.0805
70373W        W13389  29.557   8.993  18.672  0.2982  0.1557 -0.3305
70374W        W13390  23.428  23.223  21.234  0.0072 -0.0844  0.3173
70375W        W13391   6.095  32.090   0.371  0.0156  0.0158 -0.1515
70376W        W13392   2.606  20.362  21.855  0.2970 -0.0650  0.1146
70377W        W13393   3.020  14.682   9.375 -0.0386 -0.0489  0.0920
70378W        W13394  15.780  20.620  20.549  0.2975  0.3560 -0.0416
70379W        W13395  10.138  19.644   5.192  0.2230 -0.0339  0.1839
70380W        W13396  15.833  19.318  27.405  0.2699  0.2803 -0.3270
70381W        W13397  10.481  21.043   7.347  0.2292 -0.3778 -0.1428
70382W        W13398   0.729   5.266   5.479 -0.0267 -0.1960  0.0514
70383W        W13399  14.365   7.278  24.940  0.0620  0.1790  0.0299
70384W        W13400  21.488  25.569   1.966 -0.3082  0.2579  0.1939
70385W        W13401   5.821  24.759   1.024 -0.1483  0.2639  0.0879
70386W        W13402  10.549  25.669   1.033 -0.1251  0.0160  0.1698
70387W        W13403  14.889  20.455  23.620 -0.0315  0.1027  0.0172
70388W        W13404  31.924   3.479   3.287  0.0985 -0.0077  0.0130
70389W        W13405  15.256  17.486  22.905 -0.0017  0.0526  0.0656
70390W        W13406  31.058  21.703   7.404  0.1422  0.3993 -0.3905
70391W        W13407  11.417  26.679   2.260  0.3641 -0.2266 -0.3753
70392W        W13408  16.908  18.099  26.471  0.0795 -0.1871 -0.0897
70393W        W13409  20.424  28.768   9.502 -0.1893  0.0650 -0.0477
70394W        W13410  19.718  34.622   2.416 -0.2587 -0.0357  0.1686
70395W        W13411   8.170  34.419  28.232 -0.2654  0.0924  0.0219
70396W        W13412  32.929   6.529   4.122 -0.0270 -0.2361 -0.4054
70397W        W13413  19.377  28.869   3.711 -0.0215  0.0658 -0.0960
70398W        W13414   6.911  19.103  21.290  0.1027  0.1435 -0.0897
70399W        W13415   5.647  24.772   4.306  0.0816 -0.1216  0.1351
70400W        W13416   7.912  34.123  23.892  0.1100  0.2130 -0.0539
70401W        W13417  21.774   3.255   6.764 -0.0029  0.0623  0.0595
70402W        W13418  14.334  27.573   9.679 -0.0159 -0.3331  0.0236
70403W        W13419  33.650  23.493  10.836 -0.0029 -0.0584 -0.4193
70404W        W13420  34.436   9.845   9.393 -0.1291 -0.2746  0.1343
70405W        W13421  10.000   0.230  16.569  0.0533 -0.1657 -0.0075
70406W        W13422   9.551  30.237  29.193  0.1610 -0.1585 -0.0952
70407W        W13423  12.797   9.881   7.117 -0.2887 -0.0825 -0.1039
70408W        W13424  33.603   8.627   3.722  0.1803 -0.0451 -0.0187
70409W        W13425   6.785   5.399   9.950  0.0955 -0.1283  0.0245
70410W        W13426  10.464   9.079   8.643  0.0462 -0.1580  0.0009
70411W        W13427   6.342   2.202   1.407  0.0362 -0.2521  0.1253
70412W        W13428  14.680  30.516  28.993 -0.1043 -0.0883  0.2836
70413W        W13429   9.809   6.551   4.993 -0.1446 -0.1732 -0.0502
70414W        W13430  18.775  15.829   0.743 -0.1912  0.3294  0.0261
70415W        W13431  30.704  23.076  17.687 -0.2036 -0.0385  0.0779
70416W        W13432  33.414   7.374  25.923  0.2304  0.1144 -0.2244
70417W        W13433   5.065  15.219  24.479 -0.0018 -0.0404  0.0059
70418W        W13434  27.518   7.391   2.614 -0.2273 -0.1154  0.0677
70419W        W13435  18.277  23.377  20.702 -0.0192  0.3443  0.3284
70420W        W13436   3.444   6.650  27.503  0.0513 -0.0037 -0.0919
70421W        W13437  11.795  27.786  20.729  0.0105  0.0935 -0.1977
70422W        W13438   2.254  16.646   1.625  0.4251  0.1321  0.3291
70423W        W13439  11.717  21.974  24.263  0.1021  0.5561  0.0623
70424W        W13440   8.096  16.555   8.529  0.0046 -0.1255  0.0447
70425W        W13441  13.553  14.353  20.833 -0.0052  0.0823  0.2707
70426W        W13442  17.381  20.293  23.716  0.1088 -0.0063  0.1603
70427W        W13443  14.532  19.110   7.562 -0.1852  0.0780  0.3922
70428W        W13444   4.596  23.738  24.568 -0.0431  0.0265 -0.1095
70429W        W13445   3.506  11.253   6.186  0.1517 -0.0630 -0.0398
70430W        W13446   5.140   3.939  24.271 -0.2205  0.1141 -0.2344
70431W        W13447  15.918  15.331  21.061  0.0855 -0.2386  0.0982
70432W        W13448   6.094  14.993   3.316 -0.0609 -0.3287 -0.1730
70433W        W13449  28.853  30.330   3.294  0.1301 -0.0871  0.0867
70434W        W13450  12.694   4.665  25.756 -0.0456  0.0281 -0.1561
70435W        W13451   5.385  13.922   7.021 -0.1222 -0.0272 -0.2713
70436W        W13452   0.843  33.623  29.297 -0.0343  0.1010 -0.3620
70437W        W13453  17.754  17.275  27.299 -0.0244 -0.1629 -0.0808
70438W        W13454   1.260  13.610   4.173 -0.1092  0.0307 -0.1021
70439W        W13455   0.299  19.458   6.343 -0.1509 -0.2163 -0.2714
70440W        W13456  10.861  16.809  25.819  0.3026  0.1019  0.0412
70441W        W13457   8.521  22.722   7.675 -0.1770  0.1013  0.2308
70442W        W13458   0.281   2.221   1.580  0.2577 -0.3486  0.4727
70443W        W13459  13.614  13.299   3.815  0.0158 -0.2799 -0.2023
70444W        W13460   6.511  18.537   9.108  0.0227  0.0778  0.3851
70445W        W13461  27.003  21.317   1.058  0.0300  0.1622  0.1064
70446W        W13462   7.206   3.181   3.724 -0.4814  0.0063 -0.1429
70447W        W13463  10.943   5.604   1.899 -0.3110 -0.1043  0.0904
70448W        W13464   2.376  16.253   8.800 -0.1501 -0.3161 -0.1859
70449W        W13465   2.140  28.891   8.375 -0.2588 -0.1735 -0.0010
70450W        W13466  27.007  18.560   6.553 -0.0531  0.1580  0.1489
70451W        W13467   4.991   2.433   8.921 -0.2962  0.3297  0.0297
70452W        W13468  28.908  22.292   3.850 -0.1026 -0.2667  0.0353
70453W        W13469   6.539  19.066   3.409 -0.0993 -0.0616  0.1027
70454W        W13470  13.467  19.519   7.268  0.0228 -0.0457  0.1454
70455W        W13471  15.976  15.213  25.193  0.0417 -0.0961  0.1189
70456W        W13472  31.089  13.133  11.029  0.1083  0.2511  0.1123
70457W        W13473   4.174  26.230  26.672 -0.1653  0.2791  0.3168
70458W        W13474   1.011   3.151   2.279 -0.0202 -0.0085 -0.4246
70459W        W13475   2.937  21.812   6.856  0.0621 -0.0442 -0.2176
70460W        W13476   7.924  11.963   2.677  0.0233 -0.0545  0.1715
70461W        W13477   5.666   9.621   2.480  0.1438 -0.0268  0.1593
70462W        W13478  18.040  31.161  10.530 -0.0573 -0.1431  0.0089
70463W        W13479  23.166   6.964   4.110  0.2816  0.0305 -0.2190
70464W        W13480  11.911  11.331   6.325 -0.0184  0.1450 -0.0979
70465W        W13481   5.874  27.490   8.161 -0.1295  0.2142 -0.0319
70466W        W13482  30.403  19.093  27.302 -0.2956 -0.0034 -0.1663
70467W        W13483   5.166   9.323   1.614  0.1750  0.3287 -0.1991
70468W        W13484  32.823  34.414   5.173  0.1733  0.0322  0.0275
70469W        W13485  11.401   7.623   4.264  0.3512 -0.1458  0.0481
70470W        W13486  13.785   8.131  23.657  0.0689 -0.0719  0.0178
70471W        W13487   6.238  30.316   8.364 -0.3638 -0.0200  0.0549
70472W        W13488   5.006  30.159   9.656 -0.3084  0.1411 -0.1311
70473W        W13489  13.246  13.542   0.956 -0.2201 -0.0292  0.1546
70474W        W13490   3.547   6.404  27.945  0.0327  0.1488  0.1272
70475W        W13491  11.484  19.793   3.516 -0.1911 -0.0500 -0.1667
70476W        W13492  27.734  17.146   4.824 -0.0157  0.0878  0.1323
70477W        W13493  13.924  25.229  12.951  0.0429 -0.1568  0.3105
70478W        W13494  23.127  30.458   8.388  0.1398  0.0692  0.2513
70479W        W13495  19.588  27.245   7.534  0.1123  0.2874 -0.4508
70480W        W13496   2.959   3.704   8.641 -0.3296  0.1224 -0.0371
70481W        W13497   3.186  12.731   4.326 -0.0253 -0.0371 -0.1301
70482W        W13498   7.757  15.934   7.199 -0.0455  0.2282  0.0354
70483W        W13499   0.571  22.890   0.800 -0.0511  0.0374  0.1410
70484W        W13500  14.352   4.183  28.126 -0.1578 -0.2033 -0.0785
70485W        W13501  34.344  25.257   6.059 -0.1110 -0.1422 -0.0095
70486W        W13502  14.247  21.542   8.801  0.1101  0.0899 -0.3185
70487W        W13503   6.452   9.355   3.673 -0.2862  0.1791 -0.1283
70488W        W13504  33.008  13.764   3.201 -0.3536 -0.0140 -0.0275
70489W        W13505   1.707  24.751   1.703 -0.1255 -0.0190  0.1154
70490W        W13506   9.380  13.639   4.220 -0.0352 -0.2105 -0.0843
70491W        W13507  32.407  16.331   5.748 -0.1829 -0.0417  0.0626
70492W        W13508   2.645  31.573   7.021  0.1678  0.2514  0.1593
70493W        W13509   3.486   9.885  24.618  0.0286  0.0860 -0.2444
70494W        W13510  17.141   9.194  21.191 -0.0702 -0.0206  0.2740
70495W        W13511   1.214  14.274   9.418  0.0897 -0.2714 -0.1683
70496W        W13512   2.777  31.435   4.251 -0.1566 -0.1583 -0.2683
70497W        W13513  14.670  22.613   1.308 -0.1906 -0.0126 -0.0048
70498W        W13514  27.969  22.564   6.065  0.0180 -0.2180  0.4190
70499W        W13515  10.878  13.367   1.280  0.0880  0.1410 -0.2094
70500W        W13516  16.980  17.134  28.008 -0.0386 -0.0937  0.1760
70501W        W13517   6.949   7.427   7.825  0.4243 -0.0297  0.0529
70502W        W13518   8.892  14.646   5.772  0.0789 -0.2757 -0.1387
70503W        W13519   6.371  17.775   3.539 -0.1023  0.0241  0.1481
70504W        W13520  33.235  18.273  10.778 -0.0124  0.1738 -0.1074
70505W        W13521   0.644  26.402   6.767  0.0570 -0.1624 -0.4889
70506W        W13522  29.944  19.232   4.209 -0.0196 -0.0023  0.2516
70507W        W13523   5.368  20.114   4.702 -0.0459  0.0838 -0.2068
70508W        W13524  20.768   7.055   3.878  0.0117  0.3146  0.1743
70509W        W13525  31.956  12.544  17.434 -0.0718  0.1999  0.0527
70510W        W13526   5.512   5.196  27.964  0.4419  0.4350  0.0680
70511W        W13527  28.023  10.378   8.676  0.0848 -0.1243 -0.2074
70512W        W13528   4.758  30.845  25.990  0.0158 -0.1173 -0.2866
70513W        W13529   9.771  33.207   7.929  0.0664  0.2429 -0.1276
70514W        W13530   3.966   5.485  28.191 -0.3116 -0.0535  0.0149
70515W        W13531   9.048  12.750   6.002 -0.1530  0.1383  0.0126
70516W        W13532  10.486  11.690   5.413 -0.2619 -0.0877  0.0547
70517W        W13533  31.056  15.859  27.127 -0.0309 -0.0136  0.1053
70518W        W13534   1.772  26.623   4.262  0.2256 -0.0762 -0.2054
70519W        W13535  33.107   1.401  10.075 -0.0596 -0.0950 -0.0789
70520W        W13536   6.106  22.000   6.281 -0.2502  0.2381 -0.1290
70521W        W13537   7.995  11.096   0.639 -0.0316  0.0727  0.0302
70522W        W13538  34.436   6.848   5.942  0.2137 -0.2060 -0.0744
70523W        W13539  19.056  33.097   3.001 -0.4391  0.0926 -0.3278
70524W        W13540  28.000  13.863   8.664 -0.1272 -0.0749 -0.2598
70525W        W13541  11.933  13.908   4.968  0.1051  0.1197  0.1848
70526W        W13542   9.274  10.653   3.944  0.3406 -0.2680 -0.2006
70527W        W13543   7.459   2.279   4.793 -0.0219 -0.0462 -0.3759
70528W        W13544  30.649  23.802  11.195  0.0329  0.2231 -0.0738
70529W        W13545  22.659  20.041  14.653  0.1318  0.1434 -0.1223
70530W        W13546   2.131   4.957  23.670  0.0762 -0.0023 -0.2177
70531W        W13547  11.667  14.890   1.565  0.0744  0.1153  0.0701
70532W        W13548   8.670  23.164   7.466  0.1420  0.2217  0.2735
70533W        W13549  32.739  18.861  25.742  0.0747  0.1778 -0.0039
70534W        W13550  12.915  11.938  14.674 -0.1362 -0.1273 -0.0394
70535W        W13551   1.009  19.191  29.041 -0.0016  0.3666 -0.0271
70536W        W13552  14.508   2.641   6.131  0.1482  0.1164 -0.1723
70537W        W13553   8.932   1.504   7.617  0.1669  0.1907 -0.0308
70538W        W13554   5.515  12.788  16.784 -0.0862 -0.2684 -0.1639
70539W        W13555   3.641  26.249  25.019 -0.1545  0.1020 -0.1204
70540W        W13556   6.575  13.010  16.062 -0.0875 -0.2803 -0.0972
70541W        W13557  34.204  16.902  25.272  0.0676  0.1838  0.1142
70542W        W13558  34.702  15.653  25.107 -0.0829 -0.1598  0.2888
70543W        W13559   7.147  11.368   1.108  0.2162 -0.3011  0.0662
70544W        W13560  14.135  15.878   3.508  0.2054  0.2317 -0.1064
70545W        W13561   0.157  21.267  26.092  0.1145  0.4300  0.2515
70546W        W13562  26.647  20.398  17.570  0.3312 -0.1171 -0.1081
70547W        W13563   2.035  28.094  10.369 -0.2247  0.1665 -0.0481
70548W        W13564   6.309  20.351   0.500 -0.2712  0.1276  0.1982
70549W        W13565  25.333  23.636   2.578 -0.1006  0.0387 -0.0925
70550W        W13566   4.675  24.223   5.570  0.2747 -0.0861 -0.1159
70551W        W13567   6.016  19.575   1.153  0.0580  0.4412 -0.0142
70552W        W13568   4.829   3.693  24.627  0.2646 -0.0369  0.1675
70553W        W13569  12.184  23.843  16.534 -0.1460  0.0877  0.4115
70554W        W13570   0.991   3.695   9.785  0.3778  0.2285 -0.0957
70555W        W13571  30.122   0.277   1.651 -0.1140  0.2832  0.2059
70556W        W13572  10.842  13.461  23.488 -0.1694  0.0202  0.0433
70557W        W13573   6.977  21.102  13.187  0.1357 -0.4567 -0.0946
70558W        W13574  25.466   0.422  10.524 -0.0116 -0.1699 -0.1038
70559W        W13575   0.460   0.226  10.229  0.0389 -0.0544  0.1228
70560W        W13576  11.754  22.342  23.736  0.1794  0.0725 -0.0589
70561W        W13577  16.008  15.040   6.745 -0.1391 -0.1062  0.2716
70562W        W13578   0.805  14.509   9.179 -0.0707 -0.2630 -0.3032
70563W        W13579   8.055  28.471   5.667 -0.1194  0.3260 -0.0457
70564W        W13580  10.014  17.767  15.965 -0.0041 -0.1961  0.0087
70565W        W13581  20.886  20.528  18.823  0.0882  0.0089 -0.0484
70566W        W13582  10.936  26.484  18.347  0.2313 -0.2722 -0.2073
70567W        W13583   3.462  34.675   8.972 -0.2968 -0.3201 -0.0693
70568W        W13584   2.276  15.499   0.105  0.3168  0.2882 -0.0943
70569W        W13585  22.785  25.100   2.182 -0.0728 -0.0106 -0.0758
70570W        W13586   3.627  17.200   9.148  0.0372  0.1172  0.0790
70571W        W13587  26.864  12.301  19.514 -0.1897 -0.1255 -0.1491
70572W        W13588  12.428   1.412   7.009 -0.0935 -0.1850 -0.1606
70573W        W13589   5.527  16.245   8.685 -0.0965 -0.1356 -0.1641
70574W        W13590   3.739  24.432   0.407 -0.0832  0.3606 -0.0537
70575W        W13591  33.439  31.442   8.134  0.0922 -0.0553 -0.1529
70576W        W13592  19.583  19.474  26.180 -0.0206 -0.3044 -0.1281
70577W        W13593  15.643   9.558   0.506 -0.0573  0.1044  0.1212
70578W        W13594   7.465  28.999   7.437  0.1351 -0.1011 -0.1531
70579W        W13595  24.343  18.860  25.102 -0.0354 -0.3178  0.0274
70580W        W13596  21.530  25.840  22.284  0.2761  0.0313 -0.0445
70581W        W13597  32.806  23.457  18.623  0.3518 -0.0131  0.0212
70582W        W13598  10.835  24.013  18.813 -0.0729 -0.1066 -0.0278
70583W        W13599  34.058  11.769   9.285 -0.3325  0.0618  0.2939
70584W        W13600   6.855  24.052   0.379  0.0163  0.2042  0.3878
70585W        W13601   7.479   4.224  25.022  0.0977 -0.1126 -0.2789
70586W        W13602   7.349  20.173   4.207 -0.0767 -0.0612 -0.2608
70587W        W13603  23.211  32.817   5.147  0.0115  0.1603 -0.0436
70588W        W13604  27.697  10.871   6.861 -0.1739  0.0787  0.2494
70589W        W13605   3.546  11.856  17.735  0.3019 -0.1470 -0.1334
70590W        W13606  26.412   8.161  28.639  0.0898  0.1139  0.0507
70591W        W13607   3.446  14.077  24.310 -0.1912  0.0166 -0.0359
70592W        W13608  15.860  33.189  10.718  0.0410  0.0141  0.0120
70593W        W13609  29.610   9.657   4.159  0.0760  0.0934  0.1133
70594W        W13610  17.147   3.962  28.207  0.3528 -0.3645 -0.2506
70595W        W13611  28.615  27.637  10.457  0.0163  0.1104 -0.1144
70596W        W13612  15.405  27.421  23.100 -0.2105  0.2683  0.1762
70597W        W13613   7.625  19.388   8.938  0.0484  0.1127  0.4529
70598W        W13614   6.057  20.743   1.382  0.2575  0.0324 -0.0562
70599W        W13615  27.099   3.038   1.794  0.2291  0.1339  0.1360
70600W        W13616   6.608   9.602   4.216 -0.1217 -0.1143  0.0584
70601W        W13617  29.022  18.217  14.623 -0.0016  0.0349 -0.0441
70602W        W13618  34.113  19.520   6.611  0.2744  0.1832 -0.3069
70603W        W13619   8.349  20.676   6.698 -0.0648  0.2571 -0.1575
70604W        W13620   4.802  15.773   4.168 -0.1118 -0.1689 -0.2085
70605W        W13621  27.077  22.990   7.162  0.1536  0.0345 -0.0423
70606W        W13622  26.680   3.279   1.631  0.0284  0.4032  0.0211
70607W        W13623  20.794  19.428  23.800 -0.1550 -0.0918  0.1873
70608W        W13624  19.256  16.531   0.031 -0.0712  0.1344 -0.1737
70609W        W13625  31.476  29.115   4.345 -0.2074  0.0036 -0.1391
70610W        W13626  12.249  13.867  12.818 -0.1802  0.1704  0.1932
70611W        W13627  10.560  32.584   9.155 -0.3275 -0.1576  0.3900
70612W        W13628  15.574  10.882  26.539 -0.0551  0.0693 -0.3137
70613W        W13629   3.425  28.199   9.916 -0.0488  0.0590 -0.1851
70614W        W13630  14.362  23.038  25.402 -0.2501 -0.1282  0.1430
70615W        W13631  12.440   1.597  28.838 -0.0279  0.0798  0.4513
70616W        W13632  19.558  17.884  20.478  0.6595  0.2798  0.3311
70617W        W13633  11.940   8.143  26.239  0.2594  0.0248 -0.1627
70618W        W13634  24.129  15.410  20.488  0.1291  0.4267  0.0135
70619W        W13635   3.744  10.489   6.654  0.2423 -0.1911 -0.4027
70620W        W13636  33.360  10.810   7.462 -0.2158  0.0915 -0.2425
70621W        W13637   8.400  25.071   7.942 -0.0402 -0.0567 -0.1506
70622W        W13638  34.198  13.666  19.533 -0.1467  0.3036  0.0111
70623W        W13639  10.452   0.002  23.388 -0.0880  0.0226  0.1510
70624W        W13640   0.496  29.236   4.388 -0.0639  0.2779  0.0183
70625W        W13641  13.878  21.437   7.873 -0.0434 -0.2199 -0.0106
70626W        W13642   7.016  11.391  20.362  0.1070 -0.1207  0.1409
70627W        W13643   5.102   5.560  25.946 -0.2542  0.2784 -0.2810
70628W        W13644  25.054   8.812  25.469 -0.0915 -0.1540 -0.1765
70629W        W13645  28.697   8.493   0.543  0.0884  0.2804  0.1157
70630W        W13646  17.524  14.894   3.867 -0.1996 -0.2870 -0.1850
70631W        W13647  34.286  18.978  21.973  0.3025  0.2352  0.1047
70632W        W13648  21.399   4.620   7.012  0.2756 -0.2073  0.3201
70633W        W13649   6.333   7.546  26.798 -0.0753 -0.0842  0.0304
70634W        W13650   8.042  16.539   9.439 -0.0167 -0.1130 -0.0015
70635W        W13651  29.206  18.688   6.317 -0.1127 -0.0683 -0.1308
70636W        W13652   6.483   9.651   2.905  0.0190  0.1557 -0.1695
70637W        W13653  31.543  10.375   3.459 -0.1971 -0.2229  0.0114
70638W        W13654  24.052  16.433  24.452 -0.4089 -0.2024  0.0388
70639W        W13655   2.571  16.238   9.257  0.2366  0.1088 -0.0572
70640W        W13656  19.911  13.407   8.479 -0.0901  0.0891 -0.1574
70641W        W13657   3.552  27.072  26.651 -0.1188  0.1070  0.1791
70642W        W13658  20.660  12.994  15.943 -0.0122  0.0010  0.3431
70643W        W13659  34.088  13.872   0.095  0.0842  0.0893 -0.2911
70644W        W13660   4.481  25.645   0.250  0.2289 -0.1370  0.3211
70645W        W13661  13.397  18.555  24.855 -0.2083  0.0962  0.3408
70646W        W13662  32.123  19.416  28.363 -0.0122 -0.2744 -0.2092
70647W        W13663   2.012  16.126   4.344 -0.0285  0.2759  0.2135
70648W        W13664  19.331   8.918   7.661 -0.0241  0.0651  0.2700
70649W        W13665  34.274   9.805   2.366 -0.0155  0.0825  0.1202
70650W        W13666  18.428   3.700  22.599  0.1988 -0.0495  0.0568
70651W        W13667   2.731  21.347  24.763  0.2347  0.0294 -0.1271
70652W        W13668   5.292  20.011   9.329  0.1398  0.1233 -0.0934
70653W        W13669   4.170  21.450   7.734 -0.1571  0.0109  0.0122
70654W        W13670  12.855  21.085   2.855  0.3270 -0.0147  0.1265
70655W        W13671  11.600  18.646   1.979  0.1785  0.0454  0.1639
70656W        W13672   5.474  12.149  19.579 -0.0390  0.1965  0.1270
70657W        W13673   0.681  19.642  25.118  0.2023 -0.2279 -0.1396
70658W        W13674  23.592   6.564   3.998  0.1993 -0.4170 -0.1367
70659W        W13675   8.522  17.342  28.310  0.3963  0.0323  0.0919
70660W        W13676  30.400  11.673  27.176  0.4248  0.0639  0.0062
70661W        W13677  33.004  34.362   3.554 -0.2142  0.0517 -0.0463
70662W        W13678  26.536   6.214   8.709 -0.4961  0.0888  0.0125
70663W        W13679   7.552  18.744  28.268 -0.1585  0.0155 -0.1612
70664W        W13680   4.707  22.418   3.649  0.1822 -0.1437 -0.1277
70665W        W13681  27.612  18.154  25.147  0.2404 -0.5639  0.3887
70666W        W13682  29.566  17.176  15.861 -0.1806  0.1410  0.0212
70667W        W13683  11.907  22.898   0.016 -0.3409  0.0930 -0.0915
70668W        W13684   1.456  18.828  21.682 -0.3013 -0.1848 -0.2564
70669W        W13685  13.726  20.886   2.934 -0.4876  0.1780  0.0502
70670W        W13686   9.502  23.758  18.998 -0.0032  0.1723  0.0785
70671W        W13687   2.088  29.292  27.759 -0.1423 -0.3396 -0.0943
70672W        W13688  25.839  17.495   4.285 -0.3608 -0.2313  0.4519
70673W        W13689  26.622  15.393   5.304  0.1142  0.0849  0.1972
70674W        W13690   0.977  23.143  29.225 -0.1199 -0.4249 -0.3718
70675W        W13691   5.741  25.168   1.751 -0.0866 -0.3009  0.0544
70676W        W13692  12.150  21.857  26.189 -0.1119  0.1380 -0.1960
70677W        W13693  32.823  20.040   9.177 -0.1496  0.0718 -0.1556
70678W        W13694  30.738  18.736  19.436 -0.0001 -0.0937  0.0725
70679W        W13695  19.300  21.300   2.624  0.1570 -0.1971 -0.0149
70680W        W13696   2.965  12.367   9.712  0.0032 -0.2120  0.1763
70681W        W13697   5.609  26.795   6.964  0.1650  0.1922  0.2054
70682W        W13698   3.050  10.890   8.509  0.1181  0.3600 -0.1572
70683W        W13699  27.584  16.383   2.238  0.1799 -0.0155  0.0508
70684W        W13700  31.646  21.869  10.479  0.2054  0.3593 -0.1966
70685W        W13701  16.949  15.856   2.209  0.0510  0.4525  0.2904
70686W        W13702  11.742  11.003  26.188 -0.2008  0.1975 -0.0814
70687W        W13703  23.230  19.762   8.827  0.1878 -0.3161 -0.3810
70688W        W13704  19.531  23.149  28.924 -0.0552  0.5933  0.1264
70689W        W13705  12.538  31.722   1.933 -0.0620 -0.0843 -0.1684
70690W        W13706  26.968   5.110   1.865  0.2673  0.0295 -0.0523
70691W        W13707   9.846   2.280  22.999  0.0258  0.0281 -0.3936
70692W        W13708  33.691  11.911  25.512  0.1183 -0.2423  0.2072
70693W        W13709  25.006  24.836   5.064 -0.0377 -0.0154  0.0026
70694W        W13710   9.670  19.096  29.150  0.0879  0.0006  0.1595
70695W        W13711  34.529   7.589  20.925 -0.0017 -0.2166  0.1819
70696W        W13712  27.954  32.326   7.150 -0.0608 -0.3368 -0.0289
70697W        W13713   5.417  15.324  25.003 -0.0313 -0.0604  0.3414
70698W        W13714   7.034   7.814   0.886 -0.0817 -0.0104 -0.2402
70699W        W13715  17.243  14.297   3.174  0.2539  0.2533  0.2225
70700W        W13716  32.499  22.010  15.509 -0.1937  0.2451 -0.1795
70701W        W13717  15.832   4.803  15.802  0.2778 -0.0724 -0.0225
70702W        W13718  10.193  25.626  27.088 -0.4537  0.1202 -0.0511
70703W        W13719  32.854   3.055  23.217  0.1786 -0.2109  0.0439
70704W        W13720  25.388   8.190  10.191 -0.0387  0.1117  0.3983
70705W        W13721   8.988   3.018   6.737 -0.0229 -0.0021 -0.0123
70706W        W13722   4.778  11.376  29.032 -0.2205 -0.1824 -0.0625
70707W        W13723   7.931  20.528  27.922  0.2700 -0.2384 -0.0438
70708W        W13724  27.056   8.944  24.191  0.1948 -0.1831 -0.1156
70709W        W13725  26.607  25.655   8.061  0.1743 -0.2319 -0.1596
70710W        W13726   5.398  15.709   8.314 -0.0911  0.4537  0.0834
70711W        W13727  15.904   2.728   5.053 -0.0442 -0.2931 -0.4071
70712W        W13728  26.175  26.078  10.462  0.4406 -0.0371 -0.1442
70713W        W13729  17.336  17.644  27.473 -0.3761 -0.0729  0.2477
70714W        W13730  27.762   1.835  10.884  0.4294  0.0191  0.1812
70715W        W13731  30.600  26.482  23.392  0.0441 -0.3407 -0.2609
70716W        W13732   6.269  10.406  19.735  0.2633 -0.1682 -0.3931
70717W        W13733   3.191   4.611   3.144 -0.0066 -0.3588 -0.2034
70718W        W13734   9.846  20.702   7.703  0.1819 -0.1052 -0.0256
70719W        W13735   7.449  24.531  18.178 -0.0210 -0.0076  0.3065
70720W        W13736   4.260   0.587   9.512  0.0414  0.0573  0.3737
70721W        W13737  14.019  29.007   5.699 -0.0525  0.0538  0.1280
70722W        W13738  26.618  24.925  27.922  0.0938  0.0349 -0.1296
70723W        W13739  33.695   7.073  21.342  0.1829  0.0431 -0.0412
70724W        W13740  11.549   4.527  28.069 -0.2241  0.2813 -0.0742
70725W        W13741  34.191   8.694  26.286  0.3495 -0.1522 -0.1824
70726W        W13742  31.762  24.544   3.209  0.0234  0.3829  0.0764
70727W        W13743   9.188  23.489   4.009 -0.1093  0.0881  0.4085
70728W        W13744   1.142  13.721   2.070 -0.1541 -0.2935  0.0268
70729W        W13745  10.884  14.461   6.873 -0.0552  0.0381  0.2592
70730W        W13746   3.148  15.438   6.681  0.1692 -0.0992  0.2255
70731W        W13747   9.221  27.206   3.136 -0.0294 -0.1896 -0.1582
70732W        W13748  33.301  13.578  23.096  0.2162  0.0080 -0.0790
70733W        W13749  15.390  13.890   5.538 -0.3684  0.2121  0.0775
70734W        W13750   2.345  16.164   8.296  0.1395  0.0118 -0.0213
70735W        W13751  27.650  22.173   8.929 -0.2133  0.1317 -0.3557
70736W        W13752  31.061  28.453   3.084  0.2009 -0.0133 -0.0822
70737W        W13753  16.781  23.701   6.733  0.0200  0.0434  0.2050
70738W        W13754   6.052  20.797   8.924  0.3384 -0.1925 -0.1536
70739W        W13755   6.268   7.906   3.670  0.2387  0.0718 -0.0267
70740W        W13756  14.963  13.428  14.800 -0.0347  0.5623  0.3264
70741W        W13757   6.448  17.493  24.117  0.0580 -0.0755  0.0183
70742W        W13758  10.707   9.822   0.412  0.3738 -0.2687 -0.0927
70743W        W13759   3.167  12.712   7.431 -0.2457  0.0104  0.0335
70744W        W13760   2.622  26.024   3.083 -0.1177  0.2182  0.0884
70745W        W13761   7.241  24.303  26.147 -0.0720  0.1306  0.3389
70746W        W13762   7.798  23.001   6.823 -0.0578 -0.1520 -0.1726
70747W        W13763  29.671  27.546  21.543 -0.0247  0.1188 -0.1140
70748W        W13764  18.081  26.872   1.962 -0.2776 -0.2086 -0.4605
70749W        W13765   8.427  17.310   0.543  0.1440  0.0457  0.1194
70750W        W13766  19.296   2.364   7.285 -0.3366 -0.1339 -0.1199
70751W        W13767  14.076  18.884   3.012  0.2227 -0.0607  0.1213
70752W        W13768  11.427  32.362   2.511 -0.0255 -0.2445  0.0542
70753W        W13769  32.601  31.603   2.534  0.2621 -0.3612  0.2485
70754W        W13770  11.417  29.689   0.094 -0.0659 -0.1947  0.2895
70755W        W13771   7.405  14.650   1.565 -0.0220 -0.0756  0.3122
70756W        W13772  31.043  34.635   6.162  0.1185  0.1853  0.3136
70757W        W13773   0.091  17.577  24.428 -0.0558 -0.1401  0.3315
70758W        W13774   2.403  28.703   4.243  0.2933 -0.0175 -0.2714
70759W        W13775   2.391   9.095   4.787  0.1861 -0.1297 -0.1851
70760W        W13776  32.899   2.651  29.019  0.3120  0.0620  0.0756
70761W        W13777   1.571  15.377  16.302  0.1260  0.1650  0.0379
70762W        W13778  15.020   6.744  23.216  0.0582 -0.1346 -0.4551
70763W        W13779  21.455  16.971  13.307 -0.0688 -0.0531 -0.2843
70764W        W13780  24.837  22.705  25.234 -0.0123  0.1863  0.0164
70765W        W13781   8.644  17.114   3.568  0.2302  0.0709  0.2441
70766W        W13782   0.305  20.553   0.423  0.0285  0.1486  0.1065
70767W        W13783  27.933  10.681   5.631 -0.0270  0.1725 -0.2902
70768W        W13784   6.936  28.255   5.007 -0.1650 -0.0175  0.5190
70769W        W13785   4.120  29.545   7.713 -0.0961 -0.0580  0.1506
70770W        W13786  28.412   9.041  27.477  0.3507 -0.0997  0.0795
70771W        W13787  18.267  19.248  15.233  0.1832  0.0031  0.0680
70772W        W13788   5.143  15.857   4.626  0.0211  0.0238 -0.1597
70773W        W13789  12.067  31.999  26.810  0.0178  0.0562 -0.0830
70774W        W13790  18.055  17.204   4.431 -0.1656  0.5856  0.3221
70775W        W13791  19.020  29.223   1.203  0.3688  0.3861 -0.1026
70776W        W13792   4.448  17.387  20.081 -0.1733  0.0002 -0.0275
70777W        W13793   0.721   9.686   2.838  0.3231 -0.1656  0.0563
70778W        W13794  12.728  21.167  13.216 -0.1457  0.0240  0.1607
70779W        W13795   5.272  29.384  20.486  0.3115 -0.0271  0.1842
70780W        W13796  20.966  24.048  22.081  0.1421  0.0893 -0.0411
70781W        W13797  21.008   4.990  19.960 -0.0361 -0.0648 -0.2411
70782W        W13798   1.047  13.324   4.510 -0.0349 -0.1543 -0.4451
70783W        W13799  26.886  13.311  18.472 -0.1967 -0.2216  0.0061
70784W        W13800  10.777  18.402   8.446  0.3667 -0.4411  0.1805
70785W        W13801   3.506   1.862   3.805  0.1376 -0.2024  0.4277
70786W        W13802  23.496  13.801   1.146 -0.0899 -0.0029 -0.1461
70787W        W13803   3.513  13.571  22.865 -0.0017 -0.3224 -0.2188
70788W        W13804   2.932  26.110   4.412  0.0421  0.1194 -0.1825
70789W        W13805  22.018  27.485   6.396  0.0752 -0.2074 -0.0040
70790W        W13806  34.397  15.591   9.198  0.2339  0.0422  0.0758
70791W        W13807  29.896  26.375   6.522 -0.0832  0.2953 -0.1797
70792W        W13808   6.258   3.523   6.698 -0.2329  0.3634  0.1428
70793W        W13809  28.348  23.012   5.958  0.0187  0.0735  0.0436
70794W        W13810   7.221  20.623   4.570  0.1138 -0.0095 -0.1066
70795W        W13811  21.497  16.368  24.294 -0.0132  0.5732 -0.1697
70796W        W13812  27.117  15.767   4.522 -0.2512  0.2012 -0.2120
70797W        W13813   2.132   4.662  14.240  0.0074  0.2011 -0.1029
70798W        W13814  18.659  25.733  19.311  0.0969  0.3869 -0.0490
70799W        W13815  34.543  18.421  26.206 -0.0796  0.0030 -0.0735
70800W        W13816   5.532  17.356   0.955 -0.0130  0.1343  0.0006
70801W        W13817   4.535  19.972   5.059  0.0544  0.0880 -0.3005
70802W        W13818   0.890  20.212  28.920  0.1879 -0.1921  0.2120
70803W        W13819  24.386  13.604   5.012  0.1534  0.1593 -0.1376
70804W        W13820  18.639  11.374   1.859 -0.0912 -0.0069  0.1675
70805W        W13821  26.276  21.547   9.004 -0.2303  0.0780 -0.2740
70806W        W13822   0.893  23.782   6.044 -0.2147 -0.1419 -0.0484
70807W        W13823   9.778  32.979  24.535 -0.0976 -0.2419  0.3226
70808W        W13824   4.040   6.263  26.421  0.1939  0.1695 -0.1365
70809W        W13825  30.420  20.452   2.136 -0.2140  0.3479  0.1076
70810W        W13826   4.772  24.420   8.948 -0.0776 -0.0014  0.1124
70811W        W13827  19.874  34.749  28.976 -0.1892  0.0347  0.0213
70812W        W13828   9.680  17.981   8.647 -0.0919 -0.3407 -0.1627
70813W        W13829   8.133   1.139   8.519 -0.1564  0.1395 -0.0292
70814W        W13830  17.050  14.727  15.753 -0.1067 -0.0778  0.2752
70815W        W13831  13.942  20.862   5.716  0.2989  0.0283 -0.0886
70816W        W13832  11.291  11.172   8.269  0.1011 -0.0514  0.0169
70817W        W13833   1.845  10.296   2.441 -0.1297  0.0536  0.1575
70818W        W13834  25.267  20.022   0.148  0.1131 -0.2608  0.0094
70819W        W13835   8.872  21.478   8.988 -0.3758  0.2960  0.1578
70820W        W13836  31.233  20.335  20.862 -0.4458 -0.0518  0.2694
70821W        W13837  13.652  15.154   2.169  0.0465  0.1219 -0.3040
70822W        W13838  12.677  12.735   1.312 -0.0100 -0.1987  0.1021
70823W        W13839  18.759  17.682  14.254  0.0814 -0.1684 -0.0079
70824W        W13840  18.021  12.160  28.205  0.0273  0.1978  0.0424
70825W        W13841   2.796   1.720   4.566  0.1965  0.0170 -0.2410
70826W        W13842  27.715  21.054   2.398 -0.1760 -0.0475 -0.1163
70827W        W13843  17.798  34.653  20.877  0.0224 -0.0487  0.1050
70828W        W13844   5.639   0.863   9.239 -0.1017  0.0612 -0.2307
70829W        W13845  10.150  17.657  25.858 -0.0711 -0.1179  0.1525
70830W        W13846  34.758   8.135   8.117 -0.1983  0.0052  0.2227
70831W        W13847  28.686   3.550   4.314 -0.2556 -0.0415  0.0339
70832W        W13848  33.465  17.463  25.630  0.0239 -0.1668 -0.2403
70833W        W13849  10.119  19.815  14.351 -0.0497 -0.4103 -0.1332
70834W        W13850   3.396  20.653   0.864  0.0075 -0.0491  0.0203
70835W        W13851  17.888  25.848   9.069  0.0770 -0.2802  0.0015
70836W        W13852  14.088  14.426   8.998  0.0848  0.0860  0.1243
70837W        W13853  29.587  15.155  21.257 -0.0208  0.3261  0.0454
70838W        W13854   7.131  13.242   1.204 -0.1770 -0.0964 -0.5943
70839W        W13855   7.287  15.154   6.107 -0.0441  0.0286 -0.0275
70840W        W13856  10.717  28.542   5.800 -0.1276  0.2513  0.0543
70841W        W13857  32.633   7.093   6.295 -0.0648 -0.0847  0.1409
70842W        W13858  27.272  28.290  16.912 -0.2267 -0.0122  0.2700
70843W        W13859  11.057  26.055  29.128  0.2304 -0.1580 -0.0656
70844W        W13860   7.106  17.933  17.347 -0.1480 -0.0677  0.0410
70845W        W13861  32.080  20.802  15.339 -0.0424 -0.2191 -0.1548
70846W        W13862  30.511   7.372  10.387  0.0247  0.0328 -0.3692
70847W        W13863   0.861  15.229   7.490  0.0827 -0.1295  0.1274
70848W        W13864   0.127   1.026  10.055  0.2627  0.1269  0.2392
70849W        W13865   2.181  23.258  15.883  0.0888 -0.0064 -0.3142
70850W        W13866   1.731  25.557   4.253  0.1451 -0.0532 -0.1052
70851W        W13867   2.943  25.056   0.504 -0.1456 -0.1906 -0.0015
70852W        W13868  32.322   8.244   5.058 -0.0210  0.2427  0.0276
70853W        W13869  12.095  20.679   4.374 -0.0758  0.1944 -0.1081
70854W        W13870  13.924  27.016   9.650  0.1441  0.0404 -0.2378
70855W        W13871  28.348  12.707   8.014 -0.1110 -0.0531  0.0791
70856W        W13872  29.044   3.687  24.179 -0.1177  0.1211 -0.2147
70857W        W13873   7.116  24.504   5.671 -0.1050  0.0171 -0.0192
70858W        W13874   7.404  16.557  27.615  0.1829  0.0860 -0.2392
70859W        W13875   1.100  16.793   0.695 -0.0647 -0.1965 -0.0436
70860W        W13876   2.072  31.020  27.127  0.2804 -0.0838 -0.1200
70861W        W13877   7.815   9.530  24.534 -0.0183 -0.1705 -0.0428
70862W        W13878  29.115  31.143  28.190  0.1159  0.1607  0.0368
70863W        W13879   4.225  15.201   7.419  0.0061  0.0494  0.0635
70864W        W13880   4.223  15.112   7.980  0.1061  0.3142 -0.1459
70865W        W13881   1.634  13.271   9.120 -0.0531  0.1309  0.0337
70866W        W13882   6.502  22.168   7.633 -0.0051  0.2773 -0.2338
70867W        W13883  22.767   9.166  22.932 -0.2743 -0.2293  0.2380
70868W        W13884  12.665  34.761   8.925 -0.1052 -0.2557 -0.1195
70869W        W13885   3.948   8.949  22.877  0.2384 -0.3117 -0.0624
70870W        W13886  11.924   5.044  23.288  0.1870  0.0930 -0.1223
70871W        W13887  19.046   3.371  17.625 -0.2858  0.0499 -0.1922
70872W        W13888   7.209  12.350  21.122  0.1523  0.2530 -0.3355
70873W        W13889  30.669  23.303  27.541 -0.0969 -0.0135  0.1961
70874W        W13890  25.735  23.490  23.723 -0.2664 -0.0083 -0.0469
70875W        W13891  25.342  20.413   0.463  0.4734 -0.1213  0.3010
70876W        W13892   6.058  11.053   8.653  0.0720 -0.1619  0.0446
70877W        W13893   7.052  21.602   7.657 -0.0043  0.2148 -0.2584
70878W        W13894  25.909  19.099   0.381  0.0890 -0.1034 -0.1182
70879W        W13895   9.737  30.144  27.787  0.1549  0.0663  0.2514
70880W        W13896   5.163  11.569   5.104  0.0613 -0.1222  0.3484
70881W        W13897  34.182  14.949   8.458 -0.0930 -0.1379  0.0336
70882W        W13898   8.482  24.552   6.695 -0.2577 -0.1294 -0.0616
70883W        W13899  30.726   7.366  28.520  0.0237 -0.2051 -0.1485
70884W        W13900   7.449  17.645   7.440  0.1883 -0.2386 -0.2015
70885W        W13901  33.837  19.706  26.307 -0.1645 -0.3113  0.0656
70886W        W13902   4.241  20.125  27.437  0.0773  0.1642  0.2169
70887W        W13903  34.235  12.077  18.838 -0.0887 -0.2124 -0.1473
70888W        W13904  33.698  24.260  27.004  0.1345 -0.0296 -0.0115
70889W        W13905   6.830   0.129   4.300 -0.2148  0.1800 -0.3023
70890W        W13906   6.051  18.827  28.690  0.0841 -0.1106  0.5994
70891W        W13907   0.043  18.006  26.459 -0.0578  0.0156  0.2531
70892W        W13908   1.342  12.130   1.535 -0.3288  0.1826  0.0121
70893W        W13909   1.222  12.247  27.075 -0.1074 -0.1312  0.2589
70894W        W13910   6.273  25.692   7.849  0.0693  0.1077  0.2664
70895W        W13911   2.057   1.604  28.752  0.0740 -0.2671 -0.1640
70896W        W13912  13.547  24.758  27.950  0.2701  0.3705 -0.1368
70897W        W13913  16.483  22.240  27.657 -0.1346  0.2638 -0.0513
70898W        W13914  12.517   8.288   6.142 -0.2748  0.0461 -0.1830
70899W        W13915  32.093  19.214  24.942  0.1400  0.2144  0.4328
70900W        W13916  33.907   8.917   5.550 -0.1260  0.3491 -0.3148
70901W        W13917  29.744  11.242   9.027 -0.3323 -0.2359 -0.1104
70902W        W13918   7.747  11.384   2.289 -0.0591  0.1609  0.1574
70903W        W13919   2.052  32.862   2.482  0.1290 -0.0764  0.2035
70904W        W13920   0.153  27.535   9.372  0.0739  0.1272  0.2998
70905W        W13921  19.704  14.176  21.257  0.3283 -0.0876  0.1199
70906W        W13922  34.587  32.854  27.252 -0.0202 -0.1219 -0.1587
70907W        W13923   2.179  11.083  23.225 -0.0813 -0.2431  0.1756
70908W        W13924  16.360  12.086   3.163 -0.3717 -0.2556  0.0320
70909W        W13925  22.113  19.818   0.545 -0.1522 -0.2006 -0.1095
70910W        W13926  14.435  15.930   0.738  0.0887  0.1575 -0.1129
70911W        W13927  16.914  16.392  28.733 -0.0471  0.1526  0.0320
70912W        W13928  31.585  28.807   6.950  0.0379 -0.2106 -0.0376
70913W        W13929  33.548  19.449  23.338  0.0926 -0.0274 -0.1517
70914W        W13930  21.398  17.925   1.034  0.2184 -0.0281  0.0625
70915W        W13931   1.843  18.428   3.856  0.0213 -0.0788  0.1933
70916W        W13932   9.913   0.453  15.532 -0.0678 -0.0632 -0.1549
70917W        W13933  20.665   6.271  28.717 -0.2450  0.0230 -0.0391
70918W        W13934  13.234  18.830   6.329 -0.4543  0.0993 -0.2325
70919W        W13935  22.644   5.189  22.174 -0.0888 -0.0556 -0.1316
70920W        W13936  11.969   3.319   6.665  0.1072 -0.0368 -0.0684
70921W        W13937   5.936  12.125  28.421  0.0513  0.0305 -0.1493
70922W        W13938   9.185  34.634   4.847 -0.3066  0.0863 -0.1404
70923W        W13939  13.689  15.444  16.127 -0.0008  0.0480 -0.1684
70924W        W13940   6.090  22.072   5.665 -0.3804 -0.0111 -0.1512
70925W        W13941   5.057  14.105   4.057 -0.4946  0.0945  0.0675
70926W        W13942  21.066  15.045  20.711 -0.0797  0.0451  0.1127
70927W        W13943   7.684   9.638   6.059 -0.2150 -0.0854  0.0273
70928W        W13944   5.709  22.265  29.020 -0.1791 -0.2382 -0.2111
70929W        W13945   6.043  22.580   7.068  0.2280 -0.0771 -0.1507
70930W        W13946  29.477  22.621   2.119 -0.0665 -0.0021  0.4395
70931W        W13947  15.891  24.781  28.388  0.1762  0.0353 -0.0473
70932W        W13948  11.402  21.325   4.936  0.0763 -0.2022  0.0756
70933W        W13949  16.449  19.360  28.232 -0.2533 -0.2269  0.1471
70934W        W13950  18.182  10.604   4.715  0.0438  0.2269 -0.0773
70935W        W13951  26.438   1.495   7.763 -0.1944  0.0588  0.3138
70936W        W13952  22.622  12.200   9.210  0.0169 -0.1854  0.1394
70937W        W13953  11.158  16.144   4.403 -0.0112  0.1457  0.1767
70938W        W13954  33.390   6.146  25.176 -0.1051 -0.0174  0.2797
70939W        W13955  33.243  17.852   6.799  0.0959  0.0323 -0.2889
70940W        W13956   6.806  16.646   8.801 -0.0940 -0.0045  0.0351
70941W        W13957  31.241   2.814   4.334 -0.1856  0.1528  0.2092
70942W        W13958   1.392  29.891  24.796 -0.0081  0.2588 -0.1661
70943W        W13959  26.191  18.833   3.349  0.0433  0.0030  0.1654
70944W        W13960   2.599  34.155   6.707 -0.2462 -0.1639  0.0019
70945W        W13961   8.143  22.361  16.086 -0.0077  0.0168 -0.2578
70946W        W13962  11.179  29.184  25.852  0.0888  0.0927 -0.2762
70947W        W13963  31.740  18.207  22.332 -0.0807 -0.0925  0.1021
70948W        W13964  18.100   4.236   1.366 -0.0185  0.0946  0.3159
70949W        W13965   3.882  11.538   3.833  0.1676 -0.1668  0.1262
70950W        W13966  29.598  17.683  10.004 -0.1413 -0.0588 -0.0988
70951W        W13967  14.116  18.469   2.416 -0.0753 -0.1436  0.0946
70952W        W13968  26.370  20.600   2.665  0.1048  0.1894  0.1054
70953W        W13969  29.206   7.322   6.244 -0.0959 -0.1155  0.2722
70954W        W13970  18.747   4.782  28.349 -0.1078 -0.4459 -0.0611
70955W        W13971  22.712   3.687   2.497 -0.1202  0.1264 -0.0314
70956W        W13972  34.008  18.591  29.207  0.0350  0.4843 -0.1578
70957W        W13973   6.400  16.251   2.053  0.2817  0.5118  0.2558
70958W        W13974  16.540   7.580   6.400  0.0551 -0.3200  0.3642
70959W        W13975  29.951  24.313   7.982 -0.2322 -0.2346 -0.0481
70960W        W13976   2.655  22.858   5.693  0.0681 -0.2141 -0.2560
70961W        W13977  11.568   4.237  16.044 -0.1387 -0.0773 -0.0735
70962W        W13978  11.835  27.203   8.534  0.0828 -0.0336 -0.3853
70963W        W13979  17.669  16.294   6.982 -0.0068 -0.0085  0.1708
70964W        W13980   5.069  22.253   3.933  0.4222  0.3441  0.1651
70965W        W13981   3.868  23.906  24.776  0.1838 -0.1931  0.5047
70966W        W13982  18.480  11.171   0.659  0.1938  0.0195 -0.3296
70967W        W13983  22.156  18.343  21.096 -0.2518  0.2608 -0.1442
70968W        W13984   4.464  24.478  16.245 -0.0800 -0.2184 -0.2596
70969W        W13985  24.219  20.781  20.614  0.0700 -0.1583  0.0427
70970W        W13986   0.381  13.392   8.350 -0.2211  0.2055  0.0333
70971W        W13987   5.930  21.752   5.320  0.1442 -0.3831 -0.0276
70972W        W13988   9.517  28.296   3.088 -0.0382  0.0091  0.0012
70973W        W13989  19.967  13.538  25.113  0.2272 -0.1206  0.1491
70974W        W13990  30.768  16.201  20.752  0.1532  0.1096 -0.2860
70975W        W13991   5.913  29.925   8.268 -0.0504  0.1410 -0.0421
70976W        W13992   9.873  24.159   3.756 -0.0593  0.0915  0.0927
70977W        W13993   6.320  26.207   6.582  0.1135 -0.0909 -0.2406
70978W        W13994  10.982   3.929   9.651 -0.1102  0.0679 -0.1764
70979W        W13995  22.237  11.187   5.725 -0.0580  0.1295 -0.0965
70980W        W13996   7.495  33.393  11.041 -0.2035 -0.0371  0.2138
70981W        W13997  31.232  22.824   9.052  0.2392 -0.1339  0.2043
70982W        W13998   3.857   4.939   3.827 -0.1538 -0.1260 -0.2891
70983W        W13999   2.864  25.912  10.069  0.0252 -0.2723  0.0773
70984W        W14000   1.834  15.402   7.338  0.3525 -0.7989 -0.1988
70985W        W14001  22.516  19.652  24.898  0.0791 -0.0227  0.1186
70986W        W14002  29.995   4.806   5.081  0.0924  0.0107  0.2733
70987W        W14003  30.587  16.351   4.677  0.1714 -0.0088 -0.3249
70988W        W14004  17.226   8.442   9.295  0.1019  0.2494 -0.2205
70989W        W14005  24.651  27.425  10.813  0.0625  0.1969  0.1812
70990W        W14006  13.598  15.080   4.680  0.1470  0.0319  0.0853
70991W        W14007  12.252   8.917   8.764 -0.0965  0.0713 -0.0766
70992W        W14008  34.130   8.827  24.620  0.4863 -0.3478  0.1628
70993W        W14009   8.191  14.013   4.266  0.0938 -0.0698 -0.1385
70994W        W14010   0.550   4.075   6.355 -0.1358 -0.0501 -0.2583
70995W        W14011  15.557   7.834   8.401 -0.0244  0.3475  0.0211
70996W        W14012  17.352  30.274   8.518 -0.1216 -0.0960  0.1212
70997W        W14013  17.212  13.825   0.496  0.3464 -0.0000  0.1660
70998W        W14014   3.410  23.523  16.877 -0.0271  0.1786 -0.0178
70999W        W14015  12.873  32.422   5.694  0.3029  0.0040  0.3501
71000W        W14016  21.955  21.812   6.497 -0.2869 -0.0211 -0.3555
71001W        W14017  10.594  20.183  23.328 -0.3534  0.1814  0.0322
71002W        W14018  30.590  27.396  26.414 -0.0121  0.0528  0.2168
71003W        W14019  26.091  11.863   0.118  0.0450  0.1629 -0.2160
71004W        W14020  25.238  13.618   9.683 -0.1605  0.1864  0.2635
71005W        W14021  31.418   0.802   7.432  0.2327  0.0569  0.1034
71006W        W14022  33.344  24.597   0.097  0.2156  0.1306 -0.2372
71007W        W14023  22.456  23.342   5.505 -0.1976  0.0297  0.0038
71008W        W14024  27.992  31.558   1.408 -0.3553  0.1492  0.0253
71009W        W14025   8.508  20.223   6.535 -0.1452  0.0203  0.2071
71010W        W14026   7.325  20.997   6.945 -0.0862  0.2557 -0.1037
71011W        W14027  15.295   8.405   6.611 -0.1628  0.1917  0.1266
71012W        W14028   5.289  34.016   8.199 -0.0542  0.0159 -0.0062
71013W        W14029  20.094  18.921   1.858 -0.1396  0.1601  0.3846
71014W        W14030  11.300  16.337   8.452  0.3185 -0.0883  0.1794
71015W        W14031  20.664   7.773   9.460 -0.0553  0.2197 -0.0930
71016W        W14032  33.518  11.529   0.604 -0.2555  0.0444  0.1009
71017W        W14033   1.827  14.771   3.510  0.2200  0.2156  0.4675
71018W        W14034  14.582  15.426  27.793  0.1464 -0.1000  0.0942
71019W        W14035   7.047  29.593  13.950 -0.1563 -0.1854 -0.1034
71020W        W14036  16.759  16.623  24.268 -0.0774 -0.1966 -0.1143
71021W        W14037  27.710  14.457  26.101  0.0505 -0.0129 -0.0014
71022W        W14038  32.771  19.689  21.535 -0.4504  0.0616  0.4206
71023W        W14039  21.185  32.667  26.869  0.2169 -0.3482  0.0840
71024W        W14040  23.062  19.120   2.772  0.1704 -0.2369  0.0833
71025W        W14041   0.781  32.406   8.318  0.3952  0.2896  0.0787
71026W        W14042  25.222  34.436  28.769  0.0176  0.0011 -0.2595
71027W        W14043  32.870  12.680  28.066 -0.1546  0.0385  0.0576
71028W        W14044  16.133  15.949  23.204  0.1844 -0.2524  0.4410
71029W        W14045  32.948  27.279   3.955 -0.0234 -0.0695  0.0371
71030W        W14046   5.049  16.652  24.619  0.1152 -0.0692  0.0414
71031W        W14047  21.621  30.036  23.340  0.3346  0.0643 -0.0907
71032W        W14048   6.879  32.453   3.133 -0.0904 -0.0449  0.0262
71033W        W14049   4.643  29.428   5.768  0.1186  0.3118 -0.0076
71034W        W14050  31.281   2.770   1.055  0.0176  0.0898 -0.1201
71035W        W14051  10.743  33.663   4.545 -0.0758  0.0301  0.1967
71036W        W14052   4.783   4.500   2.303  0.1702  0.0669 -0.0634
71037W        W14053  33.555  24.069  10.960  0.4498  0.0197  0.0348
71038W        W14054   7.495  10.175   9.345  0.2484  0.5324  0.1669
71039W        W14055  33.985  25.607   6.191 -0.1744  0.1170 -0.1476
71040W        W14056  20.916  16.975  20.833 -0.1616  0.1048  0.3324
71041W        W14057  23.271  28.707   2.964 -0.0283  0.0512  0.0124
71042W        W14058   3.151  18.001  29.228  0.2183  0.1206  0.1259
71043W        W14059  25.853  21.356   8.835  0.1187 -0.3854 -0.1224
71044W        W14060  32.511  28.100   5.871  0.2365  0.0885  0.0707
71045W        W14061  25.489  21.713   3.240 -0.0812  0.1633  0.3159
71046W        W14062  27.964  27.935   6.115  0.2647  0.2802 -0.0992
71047W        W14063  11.409  23.172   2.384  0.0223 -0.0255 -0.0615
71048W        W14064  18.653   5.884   6.740 -0.0084 -0.4084 -0.3365
71049W        W14065  26.065  31.088   0.542 -0.2355  0.2068  0.0332
71050W        W14066  33.346  28.266   5.285  0.3677 -0.0998 -0.2924
71051W        W14067  13.268   8.751   3.742 -0.3340 -0.1189 -0.1898
71052W        W14068   1.637   6.111   2.628 -0.2085  0.2025 -0.0449
71053W        W14069  10.998  15.269  19.856 -0.0656  0.1050 -0.4711
71054W        W14070  15.904  33.088   6.634  0.0117  0.1616 -0.1596
71055W        W14071   7.497  14.959   8.822  0.0263 -0.1561 -0.0467
71056W        W14072  14.358   3.587   5.821 -0.0377  0.1543 -0.2366
71057W        W14073  20.768  20.211   5.869  0.1792 -0.0308 -0.0304
71058W        W14074   5.587   5.473   8.969 -0.0988  0.1221  0.0390
71059W        W14075  23.110  13.092  18.000 -0.3063  0.0483 -0.0438
71060W        W14076  17.812   1.940   1.916  0.1547 -0.1927 -0.0595
71061W        W14077   2.998  27.210  17.321 -0.0024 -0.5407 -0.2525
71062W        W14078  10.423  15.864   6.725  0.2307  0.3227  0.0759
71063W        W14079  14.732  20.367  19.053  0.0238  0.0053  0.1563
71064W        W14080  18.015  23.779  22.205  0.0908 -0.0293 -0.0321
71065W        W14081   9.334   6.605   6.237 -0.1571  0.1547  0.1996
71066W        W14082   2.735  23.253   9.842  0.4170  0.2263  0.2850
71067W        W14083  15.279  17.094  14.899 -0.0459  0.2721 -0.2075
71068W        W14084   4.091  20.056   1.983  0.0159 -0.0040  0.0228
71069W        W14085   6.525  26.103   8.284 -0.0431 -0.1237  0.4922
71070W        W14086  32.766  25.411   3.208 -0.1452  0.1153 -0.1257
71071W        W14087   6.332   5.921  24.590 -0.1733 -0.0633 -0.1091
71072W        W14088  18.550  11.363  22.877  0.1273  0.0268 -0.0187
71073W        W14089   4.203  21.196   1.535 -0.2335  0.3171  0.0161
71074W        W14090   6.023  18.691  25.453  0.2122  0.0546  0.1416
71075W        W14091   2.683  30.311   1.059  0.0817 -0.0924  0.1026
71076W        W14092  20.662  16.459   2.637  0.1329 -0.4568  0.4588
71077W        W14093  21.548   0.072   8.452  0.1292 -0.0349  0.1171
71078W        W14094   7.978  11.509   9.380 -0.2373 -0.1639  0.1039
71079W        W14095  13.756  11.373  19.557 -0.1147 -0.0986 -0.3127
71080W        W14096   2.831  31.595   9.400  0.2067  0.0490 -0.0551
71081W        W14097  17.497  14.172  22.549  0.0214  0.1237  0.3219
71082W        W14098  15.056  12.239   5.430  0.3084  0.1420  0.2368
71083W        W14099   4.359  14.970   8.597 -0.0640 -0.0616 -0.1536
71084W        W14100  18.357  22.995  21.504  0.0423 -0.1086 -0.0017
71085W        W14101  16.140  15.085  26.691 -0.0210  0.4718  0.2019
71086W        W14102  30.024   8.459   2.355 -0.3244  0.0476  0.0728
71087W        W14103  16.401  11.078   4.783  0.0515 -0.5542  0.3207
71088W        W14104  14.470  11.276  29.027 -0.2813  0.0829  0.3616
71089W        W14105   4.262  13.196  26.850  0.3389 -0.1787  0.2155
71090W        W14106   5.326   1.348  10.217  0.0755 -0.1265  0.0108
71091W        W14107  33.650  13.752  29.279 -0.2139  0.0977  0.0173
71092W        W14108  29.475  29.746   8.379 -0.2006  0.0625  0.0491
71093W        W14109  17.995  23.176  23.696  0.0098 -0.0504  0.2843
71094W        W14110  22.180  21.531  26.474  0.0105  0.3108  0.0890
71095W        W14111   8.848   1.218   2.437 -0.2712  0.0005 -0.3065
71096W        W14112   5.885  31.116   3.049 -0.2307  0.0662 -0.2770
71097W        W14113   8.405  21.734   2.524 -0.0111  0.1680  0.2734
71098W        W14114  14.152  31.040   3.106  0.2271 -0.1476  0.0955
71099W        W14115   2.756  15.307   8.680  0.0465 -0.2096  0.0461
71100W        W14116  27.143  23.476  22.919 -0.1250 -0.1326  0.1695
71101W        W14117  32.568  27.327  18.572 -0.1267 -0.0379  0.2282
71102W        W14118  28.658  23.707   9.033  0.1668  0.1360 -0.1504
71103W        W14119  24.693  18.743   3.577 -0.2017  0.2954 -0.0323
71104W        W14120   3.034  26.463  20.381 -0.2472  0.1339  0.4201
71105W        W14121   7.155  15.093   5.553 -0.0300  0.0295  0.2140
71106W        W14122  33.107  34.080  21.933 -0.1972  0.0741 -0.1054
71107W        W14123  18.270   7.137   3.770 -0.1330  0.1252  0.0675
71108W        W14124   4.104  25.510   2.826 -0.0728  0.1062 -0.2539
71109W        W14125  10.085  21.311   2.384 -0.2338 -0.1140  0.2548
71110W        W14126  31.151  10.376   5.589 -0.4565  0.1228 -0.0637
71111W        W14127   6.135   6.743  15.665  0.0913  0.1533  0.3048
71112W        W14128  24.990  19.214  28.071  0.0397  0.0771  0.2694
71113W        W14129  32.812  27.191   5.328 -0.2081  0.2014 -0.1293
71114W        W14130  13.563  15.322   1.541  0.3750 -0.1282  0.0529
71115W        W14131  34.434   5.680   0.106  0.1318  0.1708  0.1007
71116W        W14132   9.525  26.355   4.170 -0.3067 -0.0649 -0.0515
71117W        W14133   7.544  18.197   1.735  0.1252 -0.0603  0.2574
71118W        W14134  13.647  20.725  29.063  0.0377  0.2648  0.3377
71119W        W14135   0.416  22.730  21.800  0.0062 -0.5043 -0.0792
71120W        W14136  10.163  16.994  18.832 -0.0532 -0.0337  0.3033
71121W        W14137  10.627  13.104   7.034  0.1146  0.3209 -0.1054
71122W        W14138  11.064  10.626  14.492 -0.2910  0.2219 -0.0840
71123W        W14139  32.563  26.242   6.863 -0.1980  0.5198 -0.2302
71124W        W14140  23.134  17.194   2.176 -0.3340  0.0962  0.3086
71125W        W14141  28.428  10.007   6.245  0.4524 -0.0560 -0.0671
71126W        W14142  28.338  17.284   4.924  0.2061  0.2772 -0.0843
71127W        W14143   8.632  21.518  20.643  0.0448  0.2110  0.1251
71128W        W14144   6.219  19.930  18.101  0.2361  0.0847 -0.0561
71129W        W14145   9.883  31.027  28.466 -0.0865  0.4340 -0.0987
71130W        W14146  25.243  23.844  10.406 -0.1851 -0.0342 -0.2179
71131W        W14147   0.183  20.645  26.664  0.4456 -0.0836  0.3089
71132W        W14148  23.000  29.956   3.380 -0.1365 -0.3633  0.1280
71133W        W14149   3.771  32.535   1.920  0.2030 -0.0801  0.2105
71134W        W14150   6.830  14.808   4.499  0.0080 -0.2286  0.0673
71135W        W14151  33.128  12.866  24.653  0.1464 -0.2497  0.2306
71136W        W14152  18.782  25.161   8.132  0.0336 -0.2615  0.0743
71137W        W14153  28.960  19.022   5.087 -0.0383  0.1153 -0.0600
71138W        W14154   5.784   9.174  27.851 -0.2387 -0.0152  0.0704
71139W        W14155  10.663  12.722   2.526  0.1747  0.2087  0.1147
71140W        W14156   4.531  30.042  28.471 -0.0169 -0.0004 -0.2142
71141W        W14157  30.987   1.556  25.143 -0.4624 -0.2693  0.0103
71142W        W14158   8.053   9.075   5.392 -0.2213  0.1514 -0.1591
71143W        W14159  31.690  18.582   1.402  0.3147  0.3273  0.1708
71144W        W14160  25.344  27.059   5.758 -0.1462 -0.0745 -0.4032
71145W        W14161   8.450   0.964  25.028  0.0747 -0.1495  0.0334
71146W        W14162  31.233  11.870  17.016 -0.0236 -0.0118  0.0129
71147W        W14163   8.487   3.661  21.940 -0.0656  0.0322 -0.2937
71148W        W14164   6.244  33.150   3.252  0.1997 -0.5060 -0.4684
71149W        W14165  10.622  15.677  22.115  0.0702 -0.1573 -0.1186
71150W        W14166   9.963  22.750   2.211 -0.3227 -0.1717 -0.1069
71151W        W14167  23.591  16.094   1.124  0.1149 -0.2423  0.0368
71152W        W14168  30.514  23.200   4.432 -0.2278 -0.0288  0.1497
71153W        W14169   3.098  14.216   3.387  0.0675 -0.0593  0.1129
71154W        W14170  32.345  15.201   8.342 -0.3135  0.1435  0.2449
71155W        W14171  21.660  18.551  23.338  0.3502 -0.0561 -0.1610
71156W        W14172  26.707  13.492  28.158  0.1150  0.2976  0.0617
71157W        W14173  31.852   9.806  27.096 -0.4253  0.3567  0.3349
71158W        W14174   3.611  10.935   3.938 -0.2542  0.1184  0.3307
71159W        W14175  11.144  22.311   4.405 -0.2963  0.3757 -0.1526
71160W        W14176  15.194  26.935  25.586 -0.1591 -0.3205 -0.2225
71161W        W14177  13.731  17.703   3.653 -0.1556 -0.2485  0.0411
71162W        W14178   6.348  34.712  25.340 -0.1496  0.2935  0.0746
71163W        W14179   3.434   5.445   2.965 -0.1891  0.2630  0.0434
71164W        W14180  16.977  16.747  23.021 -0.1032  0.1849 -0.2597
71165W        W14181  30.266  12.712  23.406 -0.2126 -0.2698 -0.1336
71166W        W14182  31.671  28.952   8.026  0.1151  0.2572  0.1806
71167W        W14183  26.721  15.029  20.198  0.2204 -0.1553 -0.4700
71168W        W14184   8.594  30.321   0.566  0.0353 -0.1523 -0.2315
71169W        W14185   9.527   2.982   2.286 -0.1876 -0.1688  0.0794
71170W        W14186   8.366  33.577  29.254 -0.1875  0.1590 -0.2156
71171W        W14187   5.360  24.241   5.863 -0.0871  0.1026  0.0179
71172W        W14188  23.314  20.562   6.434  0.2347 -0.0747 -0.2091
71173W        W14189   1.293  14.432   3.567  0.2871 -0.0642 -0.3948
71174W        W14190   9.951   8.490   1.448 -0.1130 -0.0310 -0.1342
71175W        W14191  12.577  20.528  23.713  0.0806 -0.1395  0.2009
71176W        W14192   7.481   7.885   4.404 -0.1436 -0.1274  0.1928
71177W        W14193  10.992  11.470   7.341 -0.1349  0.1977 -0.0205
71178W        W14194  33.197  17.931  27.151  0.1541  0.0395  0.0382
71179W        W14195  30.374  28.945  25.237  0.0828  0.0530 -0.2077
71180W        W14196  28.104   4.184  28.263  0.0987 -0.0431  0.0614
71181W        W14197   4.799  18.851   7.795 -0.0737  0.0794  0.0842
71182W        W14198   0.731  18.441   0.966  0.2685 -0.2457  0.0972
71183W        W14199   6.695  21.087   6.755  0.0269 -0.1981  0.0171
71184W        W14200   2.215  15.837   9.081  0.0146  0.2993  0.1450
71185W        W14201   2.774  16.019  25.810  0.0216 -0.0603  0.1440
71186W        W14202  31.793  26.676   4.780 -0.1707  0.0494 -0.0576
71187W        W14203   0.985  21.098  24.729  0.2041  0.0072 -0.1540
71188W        W14204  10.279   5.252  29.071  0.0271  0.2213 -0.0112
71189W        W14205   6.475   7.852   7.153 -0.2032 -0.3726  0.0877
71190W        W14206   4.251  17.158  27.101  0.1162 -0.0289  0.3855
71191W        W14207  14.267   2.199  29.225  0.1132 -0.1361 -0.1329
71192W        W14208  13.961  21.662  19.624  0.0069 -0.2044  0.2652
71193W        W14209  26.782  31.823  22.834  0.1731  0.0794  0.2573
71194W        W14210  20.211  16.617  20.808  0.1159 -0.0110  0.0843
71195W        W14211   7.961  21.981   9.463 -0.2365 -0.3084  0.2254
71196W        W14212  16.409  31.839   3.056  0.1712  0.0407  0.1098
71197W        W14213  26.236  20.781  10.003 -0.0860 -0.0263 -0.0168
71198W        W14214   1.448  15.893   2.652 -0.3274 -0.0749 -0.1756
71199W        W14215  30.006  11.726   9.200  0.1542 -0.1397 -0.0922
71200W        W14216  17.813  28.456   2.354 -0.1754 -0.0349 -0.0951
71201W        W14217  34.217  27.747  24.683 -0.0958 -0.1169  0.4155
71202W        W14218  11.597   0.003   7.559 -0.1524  0.3780 -0.0726
71203W        W14219  19.441  19.188  26.597 -0.2048  0.1397  0.1332
71204W        W14220   9.872  32.801  28.029 -0.1199  0.0110  0.1309
71205W        W14221   0.540  12.115   1.843  0.0253  0.0800 -0.1702
71206W        W14222   3.892  17.011   8.407  0.1669 -0.0788 -0.1423
71207W        W14223  19.949  17.565  28.477  0.2537  0.3701 -0.0798
71208W        W14224  31.561  19.272   5.651  0.0006 -0.1409  0.0140
71209W        W14225   1.405  14.252   6.958  0.2424  0.0775  0.0569
71210W        W14226   4.056  34.254   4.235 -0.1478  0.0512 -0.3406
71211W        W14227   8.691   7.406  24.682  0.1495 -0.2936 -0.0893
71212W        W14228  29.428  16.792   8.947 -0.0816  0.2535  0.0037
71213W        W14229  34.764  10.624   7.280  0.0189 -0.1479  0.1835
71214W        W14230   8.843  16.375   9.579 -0.0898  0.2067 -0.0908
71215W        W14231  30.210  21.287   7.793 -0.4592  0.1699  0.2138
71216W        W14232  32.046  27.427   5.185  0.2482 -0.0118 -0.0619
71217W        W14233  19.616   1.316  10.032  0.2298  0.0469  0.3423
71218W        W14234   1.072  27.083   6.959  0.0576  0.0385  0.0332
71219W        W14235  24.997  24.262  16.401 -0.0785 -0.1147 -0.1907
71220W        W14236  15.791  22.129  14.616  0.0570  0.0395 -0.2004
71221W        W14237  12.470  15.007   8.065  0.0968  0.0634 -0.0340
71222W        W14238  15.596  12.146   1.007  0.0853 -0.3003 -0.1757
71223W        W14239  11.860  15.157  25.967 -0.3266 -0.1050 -0.2149
71224W        W14240  26.792   6.198  26.912  0.0850 -0.2016 -0.1328
71225W        W14241  26.418   0.977  24.773  0.1380  0.2012 -0.1351
71226W        W14242  10.042  10.029   1.845  0.1015 -0.0423 -0.0505
71227W        W14243   9.840  17.955   7.838 -0.1201  0.0036  0.0117
71228W        W14244  11.611  29.049   6.773 -0.0407 -0.0664  0.0792
71229W        W14245  19.980  14.418  22.000  0.0783 -0.1070 -0.1268
71230W        W14246  15.287  30.146  22.671 -0.2567 -0.3141 -0.1486
71231W        W14247   5.248  13.750   2.804 -0.1735  0.0092  0.1797
71232W        W14248  31.701  16.931   0.984  0.0166  0.0598  0.4575
71233W        W14249  32.355  20.368  27.813 -0.2980 -0.0607  0.1228
71234W        W14250  16.435  22.590  27.206 -0.2418 -0.2425 -0.3464
71235W        W14251  12.291  12.112   8.282 -0.0007 -0.0236  0.3068
71236W        W14252  11.194  33.786   7.329  0.0679 -0.3670  0.1086
71237W        W14253  13.211   7.236   9.272 -0.0713 -0.1113  0.0357
71238W        W14254  27.882  19.909  10.029  0.1069  0.1038 -0.0380
71239W        W14255   8.648  16.871  22.973 -0.2718 -0.2800 -0.1573
71240W        W14256   6.730  10.046   2.989 -0.1845  0.0117  0.3560
71241W        W14257  33.955  23.821   7.546  0.2015 -0.0013 -0.0066
71242W        W14258   9.219  29.253  22.860  0.0636 -0.6094  0.1325
71243W        W14259  31.039  21.566  18.362 -0.1059  0.4032  0.4961
71244W        W14260   3.609  19.750   8.315  0.1063  0.4288 -0.1901
71245W        W14261  10.090  22.743  17.257  0.0870  0.2507 -0.0503
71246W        W14262   0.103   0.371   8.039 -0.1172  0.2105 -0.0069
71247W        W14263  16.795  29.274  27.634 -0.2354 -0.1312  0.0037
71248W        W14264   3.570  18.682   0.738 -0.0787  0.1718  0.1403
71249W        W14265  12.251   3.474  24.453  0.0534  0.1461  0.0015
71250W        W14266  19.613   0.111   6.649  0.4763  0.2061  0.0751
71251W        W14267  13.606  19.946   5.378 -0.2707 -0.2132  0.1397
71252W        W14268  27.531  29.192   9.557  0.1926  0.0670 -0.1939
71253W        W14269  10.100  12.555   0.200 -0.1280  0.1291 -0.2680
71254W        W14270  10.076   7.170  17.099  0.0561 -0.3727 -0.2112
71255W        W14271  10.705  17.101  23.805 -0.2007 -0.2139 -0.0640
71256W        W14272  11.131   7.503   2.218 -0.0238 -0.1062  0.0508
71257W        W14273  22.396  15.764  26.505  0.0507  0.2414 -0.1956
71258W        W14274  12.727  19.216   4.733  0.2086  0.4179 -0.1160
71259W        W14275  10.904  19.607   8.069 -0.0590  0.0399  0.2780
71260W        W14276  23.685  20.984  29.001  0.4333  0.3844  0.0471
71261W        W14277  11.832   6.093   7.917  0.0823  0.0338  0.3610
71262W        W14278   1.318  16.090  25.769 -0.0496  0.1331  0.0524
71263W        W14279   1.551  11.939   8.971  0.3782 -0.1632  0.2011
71264W        W14280   6.359  17.600  28.018 -0.2427  0.1375 -0.1288
71265W        W14281  31.932   7.357  16.238 -0.0842  0.0619 -0.1534
71266W        W14282  11.673   3.680   4.362 -0.4174  0.0486  0.1643
71267W        W14283  13.728  26.375   0.354  0.2228 -0.1645  0.1012
71268W        W14284  22.845  26.498  10.864  0.0127 -0.0186  0.0261
71269W        W14285  21.131  20.790   7.163 -0.2504  0.0262  0.0305
71270W        W14286   8.969  25.717   8.275  0.0427 -0.0988  0.1402
71271W        W14287  23.152  17.501  22.524 -0.1689  0.0073  0.3135
71272W        W14288  12.421  13.807  15.844 -0.0360 -0.0785 -0.1050
71273W        W14289  29.569   4.802  25.896  0.0061  0.1277 -0.3714
71274W        W14290  11.059  13.758   2.030  0.2164  0.1371 -0.5391
71275W        W14291   5.435  14.156   8.978  0.1898 -0.0030 -0.0761
71276W        W14292  29.337  18.362  27.132 -0.2169  0.3010  0.3575
71277W        W14293  11.840  20.131  19.854  0.5613  0.2046  0.3136
71278W        W14294   8.573  12.265  27.957 -0.2520  0.1410  0.1714
71279W        W14295  11.000  13.985   8.909 -0.0893  0.1214  0.4412
71280W        W14296  14.908  22.159   2.452  0.2367  0.1704  0.1582
71281W        W14297  12.129  23.345   4.932 -0.2009  0.4427  0.0570
71282W        W14298   3.323  17.000  20.829  0.3908  0.2676  0.1263
71283W        W14299  19.530  13.451   1.789 -0.1708  0.1848  0.0994
71284W        W14300  18.483  24.087   3.215  0.0662 -0.0178  0.2193
71285W        W14301  32.613  27.737   8.905 -0.0327  0.3139 -0.3764
71286W        W14302   2.240  14.138  28.922  0.0035 -0.2784  0.1885
71287W        W14303   9.672  15.504  15.254  0.1810 -0.0038 -0.0679
71288W        W14304  15.981  15.909  20.995 -0.1594  0.2570 -0.4089
71289W        W14305  19.440  10.567  25.818 -0.2105  0.0532  0.0728
71290W        W14306  17.529  11.441   3.277 -0.3454 -0.0080  0.0795
71291W        W14307   1.268   9.691   1.006  0.0915  0.0465  0.0314
71292W        W14308   9.652   1.980  20.543 -0.0342 -0.2264  0.1707
71293W        W14309   8.424  15.302  18.719 -0.0473  0.2925  0.1973
71294W        W14310  18.969  18.063   4.604  0.1462  0.2060 -0.0323
71295W        W14311  21.564  12.898   7.190 -0.0355  0.1280  0.1147
71296W        W14312  10.011  31.270   5.457 -0.1401  0.1520  0.0951
71297W        W14313   0.638   1.236   3.531 -0.0435 -0.2351 -0.1275
71298W        W14314  34.613  20.227   5.842  0.2186  0.0911  0.1016
71299W        W14315  11.202  12.683   3.872 -0.1130  0.0050 -0.0127
71300W        W14316   6.150  25.032  17.561 -0.2606  0.0282  0.1656
71301W        W14317   0.173  16.131   6.086  0.3688  0.1100 -0.3241
71302W        W14318  10.858  23.479   6.015  0.1630 -0.3088  0.2398
71303W        W14319  20.517  23.580   4.993  0.0462  0.0996 -0.0208
71304W        W14320   6.075  27.588  28.087  0.1468 -0.0382 -0.1050
71305W        W14321  13.119   2.186   4.587  0.0561 -0.2376 -0.3248
71306W        W14322  27.063  32.545   4.122 -0.1366 -0.0971  0.0149
71307W        W14323   8.248  19.363  29.275 -0.0819 -0.0306  0.0449
71308W        W14324  13.714  26.738   5.970  0.2678  0.0684  0.1306
71309W        W14325   6.927  23.176   5.827 -0.1432 -0.1166  0.1269
71310W        W14326  33.183  14.492   4.938 -0.1906 -0.0317 -0.0729
71311W        W14327   7.909  32.621  29.217  0.2364  0.0711  0.0764
71312W        W14328   9.007  21.336   3.779  0.1754  0.0418  0.2050
71313W        W14329  28.119  10.084   4.422  0.1195  0.2098 -0.0953
71314W        W14330   0.779  25.007   5.689 -0.2753 -0.1328  0.0283
71315W        W14331  33.250  22.226   5.530 -0.1205 -0.1420 -0.5881
71316W        W14332   7.517  13.528   8.160  0.2705 -0.0800  0.1152
71317W        W14333  11.171   8.050   2.161 -0.1661  0.1326 -0.1555
71318W        W14334  22.932  10.643   4.196  0.1449  0.2913  0.1467
71319W        W14335  24.609   9.636   5.018  0.0157 -0.0753 -0.1774
71320W        W14336   2.324  19.035  28.444  0.1395  0.1686  0.1916
71321W        W14337  34.536  18.704  27.122  0.4473  0.2326 -0.0524
71322W        W14338   2.758  30.553   6.435  0.2532  0.0529 -0.0954
71323W        W14339   1.349  28.736   3.778 -0.2153 -0.0178 -0.0575
71324W        W14340  24.809   7.509   4.810  0.1632  0.4151  0.0061
71325W        W14341  16.915  12.675  26.832  0.0499 -0.4409  0.0431
71326W        W14342  34.695   2.905   0.498  0.0950  0.2028 -0.1186
71327W        W14343  13.995  11.271   0.402 -0.0759  0.1089 -0.0910
71328W        W14344  12.720  15.873  18.673 -0.1155  0.0527  0.0144
71329W        W14345   9.773   7.500   3.355  0.1696  0.0278  0.1523
71330W        W14346  16.054   9.544   7.583  0.0307 -0.0321  0.0040
71331W        W14347   0.533  12.916  28.905  0.0825 -0.2646  0.1044
71332W        W14348   7.420  15.672   5.369  0.2057  0.0545 -0.0797
71333W        W14349  13.436  11.387   5.464  0.2454  0.1664 -0.4127
71334W        W14350  18.463  16.791   2.833 -0.1310  0.0868 -0.1450
71335W        W14351  19.260  13.908  27.045  0.1994  0.2213  0.0805
71336W        W14352  33.575  22.904   9.790  0.1879  0.2913  0.1514
71337W        W14353   5.158  16.970   1.128  0.2747 -0.1025 -0.0969
71338W        W14354   0.873   0.967  25.223 -0.0295  0.1177  0.0019
71339W        W14355  30.191   6.461   7.446  0.0899 -0.0408 -0.1319
71340W        W14356   8.782  11.662   2.168  0.1760  0.2170  0.2225
71341W        W14357   7.498  33.089  18.656  0.3315 -0.0160  0.1765
71342W        W14358   1.294  26.576  21.802 -0.2252  0.3981 -0.2839
71343W        W14359   2.108  29.684   3.457  0.1141  0.5266 -0.1867
71344W        W14360   5.828  21.909  28.197 -0.0285 -0.2746 -0.2329
71345W        W14361  15.391  11.228   0.155  0.1667  0.4163 -0.2268
71346W        W14362  10.505   6.937  27.814  0.0439  0.0711 -0.0171
71347W        W14363  34.428   5.052   0.908 -0.0374  0.2422  0.1804
71348W        W14364   9.870  24.435   4.875  0.3186  0.0947 -0.2609
71349W        W14365  34.085  17.009   9.480 -0.1807 -0.0956 -0.0236
71350W        W14366  34.715  16.761   8.596 -0.0215 -0.2649  0.0209
71351W        W14367  12.826  14.976  28.876 -0.1308 -0.2416  0.3979
71352W        W14368  33.151  22.039   9.191  0.0115  0.1935  0.3031
71353W        W14369  20.197   0.714   8.854 -0.1714  0.1728 -0.2364
71354W        W14370   2.344   6.718   6.994 -0.2331 -0.2153  0.1108
71355W        W14371  14.611   6.576  29.229  0.0310 -0.1531  0.0883
71356W        W14372   4.662  20.571   7.543 -0.1060  0.0185 -0.1369
71357W        W14373  21.536  23.108  25.002  0.0837  0.1747  0.1752
71358W        W14374   5.626  18.765  28.418  0.0393 -0.1787  0.1937
71359W        W14375   5.474  15.876  25.694 -0.0170  0.0428 -0.1992
71360W        W14376  12.556  12.892   3.264 -0.0919  0.1144 -0.1362
71361W        W14377   6.066   9.898  20.836  0.2281  0.0197 -0.0780
71362W        W14378   5.000  30.147   0.999  0.1023 -0.3582 -0.1779
71363W        W14379  20.214  18.871  22.410 -0.0246 -0.0517  0.0471
71364W        W14380  33.472  11.691  20.021 -0.0736  0.3381 -0.1708
71365W        W14381   4.750   8.945  19.320 -0.0958 -0.0756 -0.3037
71366W        W14382  14.596  11.974   2.871 -0.1161 -0.0299  0.1060
71367W        W14383   6.534  17.704   0.141 -0.5115 -0.4190  0.1567
71368W        W14384  14.028  11.666   5.623  0.1255 -0.2798 -0.0009
71369W        W14385  16.045  11.817  17.830 -0.0059  0.4315 -0.0352
71370W        W14386   2.519  21.409   0.545  0.2245 -0.0297  0.2440
71371W        W14387   0.640  33.946   4.369  0.4853 -0.1654  0.0395
71372W        W14388  21.120  13.239  25.848  0.0197  0.1688  0.0075
71373W        W14389   7.442  17.545   6.836  0.3754 -0.1365  0.2779
71374W        W14390   2.503  33.441  28.296  0.1831 -0.4496  0.0245
71375W        W14391   4.742  33.706  24.031 -0.2425  0.0338  0.0371
71376W        W14392  27.706  32.717  19.468 -0.0347  0.1000  0.1736
71377W        W14393  10.337   0.115  27.022 -0.4636 -0.2233  0.0523
71378W        W14394  22.472   4.521  10.394  0.1321 -0.1843  0.2125
71379W        W14395  32.625   8.600   0.381  0.1859 -0.1105 -0.2067
71380W        W14396   2.324  11.563   6.497  0.1141 -0.0934 -0.0940
71381W        W14397   5.542  18.004  28.867 -0.1135 -0.0795  0.0669
71382W        W14398   8.960  30.579   7.045  0.1886 -0.0158  0.2063
71383W        W14399  26.185  10.708  19.030  0.0471  0.1203 -0.1021
71384W        W14400  33.246  26.570  27.585 -0.0041 -0.3571  0.0009
71385W        W14401   0.245  19.174  28.454  0.1534  0.1973  0.0192
71386W        W14402   5.986  22.770  28.210 -0.0155  0.0846 -0.0427
71387W        W14403  13.738  14.895  22.085  0.0327 -0.2560  0.1886
71388W        W14404   1.685  18.092   8.962 -0.3196 -0.1348 -0.3801
71389W        W14405  24.311  30.649   4.176 -0.0447 -0.1917 -0.2063
71390W        W14406  13.916  10.328   6.224 -0.0910  0.1001 -0.4875
71391W        W14407  21.972  22.186   1.185  0.0313  0.0553 -0.0160
71392W        W14408  30.868  20.665  11.286  0.2208 -0.3587  0.0742
71393W        W14409   6.634  26.346   6.239  0.2427  0.2515  0.6282
71394W        W14410  32.440  30.534   7.553 -0.1189 -0.3546  0.1017
71395W        W14411   3.263   6.786   8.127  0.1869 -0.1432  0.2571
71396W        W14412   6.543  16.415   0.092 -0.0808  0.0300 -0.2222
71397W        W14413  12.139  12.420   1.318  0.2293  0.0633 -0.1210
71398W        W14414  14.880   8.847  29.256 -0.0145 -0.0047  0.0338
71399W        W14415  16.412   9.666   6.821 -0.3252  0.1690 -0.0272
71400W        W14416  34.257  13.833   5.673 -0.0352  0.1295 -0.2980
71401W        W14417  12.814   5.514   8.378  0.3554  0.3102 -0.1501
71402W        W14418  17.256  24.898  28.091  0.0762  0.3151 -0.0851
71403W        W14419  15.546  32.094   9.471  0.2415  0.1046  0.2182
71404W        W14420   9.711  13.608   5.131 -0.0296 -0.0483  0.1252
71405W        W14421   9.872  12.171   2.618  0.4928 -0.0053 -0.1931
71406W        W14422   4.974  11.076   4.488 -0.2198  0.0727  0.1314
71407W        W14423  18.993  26.851   8.714 -0.0504  0.0702 -0.0917
71408W        W14424  33.583  22.246   7.984 -0.1911  0.2550 -0.3999
71409W        W14425  11.728  22.405   8.187  0.1004 -0.2486 -0.0116
71410W        W14426  19.716  21.157   5.636  0.1572  0.0895 -0.0499
71411W        W14427  14.579  16.414   3.996  0.0095 -0.1847  0.2376
71412W        W14428  24.110  16.426  26.479 -0.0568 -0.0336 -0.0085
71413W        W14429  18.534  12.961   6.190 -0.1174 -0.2947  0.0580
71414W        W14430  22.812  21.368   1.055 -0.1229  0.0946 -0.0569
71415W        W14431  15.637   4.337   8.114 -0.1336  0.0671  0.0123
71416W        W14432  31.404  15.332   3.158 -0.1830 -0.0428  0.0736
71417W        W14433   8.949  20.883   7.706  0.3959 -0.1015 -0.2470
71418W        W14434  29.277  16.150  18.153 -0.2063  0.0164  0.0167
71419W        W14435   7.884   4.519   4.552 -0.0827 -0.1742  0.1440
71420W        W14436  19.239  25.498   4.834  0.0474 -0.1324 -0.3589
71421W        W14437   1.259  13.460   8.771 -0.0762 -0.1347 -0.5044
71422W        W14438   7.775  13.864  25.464 -0.0431 -0.1883  0.2330
71423W        W14439   0.953  25.893   0.998 -0.0739  0.1619  0.1707
71424W        W14440  32.616  13.076   8.021 -0.1346  0.0179  0.1396
71425W        W14441   2.953   5.152   6.182 -0.1058 -0.3553 -0.0155
71426W        W14442  17.760  18.640   8.549  0.1539  0.0181 -0.1644
71427W        W14443   2.073  17.938   8.191  0.2308 -0.0625 -0.0242
71428W        W14444  26.157  31.959  10.702  0.1170  0.1548  0.4042
71429W        W14445   5.202   0.481  26.776  0.1713  0.1306 -0.0841
71430W        W14446  12.213   9.069   4.706 -0.2788 -0.0402  0.0986
71431W        W14447   1.211  12.276   1.053  0.1374 -0.2256 -0.1984
71432W        W14448  10.318  31.201   1.518 -0.2285  0.2119  0.2567
71433W        W14449  32.407  17.637  26.954 -0.0543 -0.0988 -0.2232
71434W        W14450  32.652  16.416  28.761 -0.1860 -0.0633 -0.0679
71435W        W14451  14.201  19.343  26.604  0.1540  0.1614 -0.1389
71436W        W14452   9.788  23.725   3.437 -0.2492 -0.0034  0.1462
71437W        W14453   7.556  10.910   6.696  0.0674 -0.0467 -0.0235
71438W        W14454  27.786   5.518  28.567 -0.0638 -0.1123 -0.0532
71439W        W14455   4.301  28.850   7.491 -0.1741  0.1803 -0.1555
71440W        W14456  26.151  30.096  10.071  0.3911 -0.1686  0.1775
71441W        W14457   4.257  14.766   7.089  0.2102 -0.0349  0.2360
71442W        W14458  29.134   0.231   3.582  0.0967 -0.1332 -0.1524
71443W        W14459   7.318  22.406   3.817  0.1554 -0.1890  0.1063
71444W        W14460   6.488  16.468   4.470  0.3198 -0.0738 -0.1347
71445W        W14461   2.667  22.360   5.758 -0.1180 -0.0258 -0.0856
71446W        W14462   9.244  22.829  28.432 -0.0120 -0.0106  0.1014
71447W        W14463  14.726   5.426  20.292 -0.0988 -0.1728  0.0888
71448W        W14464  12.267  19.382   3.573 -0.1235 -0.0014 -0.2335
71449W        W14465   5.919  22.169   2.334  0.1297 -0.1583 -0.0341
71450W        W14466  11.155   8.233   3.466  0.0454 -0.1999 -0.0529
71451W        W14467   6.357  23.369   6.927 -0.0336 -0.0212  0.1731
71452W        W14468  13.543  20.701  28.004  0.1007 -0.1046  0.1279
71453W        W14469  28.941  25.518   7.897 -0.0243  0.3545 -0.1488
71454W        W14470  11.297  23.988   0.859  0.0440  0.0570  0.0549
71455W        W14471  27.619   2.531  27.576  0.0908 -0.0204  0.0064
71456W        W14472  10.245  24.124  25.353  0.0327  0.0051  0.1575
71457W        W14473  31.700  13.064  28.591  0.1851  0.0105  0.4831
71458W        W14474   1.548  19.132  27.284  0.2130  0.0638  0.0641
71459W        W14475  17.491  34.657  24.766 -0.0742 -0.0143  0.1736
71460W        W14476   7.496  11.469   3.884  0.1969  0.2625  0.0872
71461W        W14477  11.350  15.690   7.713 -0.1110  0.1692 -0.0732
71462W        W14478   0.303  15.565   4.276  0.0687 -0.1334 -0.0994
71463W        W14479  10.165  15.483   2.928 -0.0610 -0.2737 -0.3483
71464W        W14480   2.642   3.406  19.472  0.0804  0.2793 -0.3569
71465W        W14481   8.932   5.783   0.183  0.0183 -0.2677  0.0288
71466W        W14482  10.409  10.291   7.821 -0.1238  0.0012 -0.0646
71467W        W14483  33.038   5.899   1.579 -0.0782  0.2826 -0.1799
71468W        W14484  31.051  25.773  29.143  0.0418  0.2625 -0.0047
71469W        W14485  31.843  18.971   2.908  0.0948 -0.0331  0.1014
71470W        W14486  21.566  21.648   4.802 -0.1648 -0.2847 -0.2997
71471W        W14487  13.919  19.923   2.301 -0.1790  0.3698  0.0253
71472W        W14488  33.379  21.948   4.943  0.1137 -0.1298 -0.0317
71473W        W14489   5.422   8.026   8.962 -0.0613 -0.3124  0.2427
71474W        W14490  31.051  16.517   4.673  0.0488  0.0654  0.0168
71475W        W14491   2.981   7.738   8.749 -0.0066  0.1020  0.2401
71476W        W14492  29.728  22.157   8.006  0.0829 -0.1048 -0.0129
71477W        W14493  13.855  10.673   6.553  0.1286  0.0706  0.0173
71478W        W14494   8.188   1.891   7.869 -0.0146  0.3541 -0.0728
71479W        W14495  15.782  30.179   6.035 -0.1662  0.3010  0.0968
71480W        W14496  24.987  15.125   4.073 -0.2481 -0.0274  0.1668
71481W        W14497   6.088   4.077   8.433  0.2486  0.1108  0.3290
71482W        W14498   6.353  19.943   8.333 -0.0231 -0.4209 -0.0843
71483W        W14499   7.291  15.262  25.401 -0.0380 -0.0524  0.0358
71484W        W14500  22.575  20.342  23.463  0.1404 -0.2329 -0.2151
71485W        W14501   3.684   9.509   6.953  0.0798  0.3127  0.1496
71486W        W14502   5.076  29.839   3.916 -0.0970  0.1873  0.0467
71487W        W14503  18.088   7.423   0.774 -0.4236 -0.0425 -0.0009
71488W        W14504  12.827   9.785   2.857 -0.1261 -0.3318  0.0204
71489W        W14505  15.240  11.025   3.880  0.1372  0.1772  0.0398
71490W        W14506  31.253   8.294   5.049 -0.0096 -0.0296 -0.2351
71491W        W14507  14.873   8.052   4.964  0.0292 -0.2306  0.1261
71492W        W14508  22.536  13.825   5.501  0.2871 -0.1765 -0.0312
71493W        W14509  27.357  20.417   5.514  0.2634  0.2248  0.3132
71494W        W14510   2.444  21.660   8.269 -0.1486  0.4134 -0.1306
71495W        W14511   7.962   6.535   9.730 -0.2532  0.2304 -0.5839
71496W        W14512   8.353   7.168  27.823  0.3558  0.0186  0.0452
71497W        W14513  18.420   0.445   3.327 -0.0995 -0.0918 -0.1558
71498W        W14514  23.288   5.837   8.866  0.0809  0.1856  0.1486
71499W        W14515   7.500  28.450   4.432  0.0685 -0.2211  0.0539
71500W        W14516   4.476  17.732  27.027  0.0312 -0.3868  0.0078
71501W        W14517  22.331  18.508  28.597  0.0030  0.0285  0.1407
71502W        W14518   9.715  17.039  26.861 -0.4584 -0.2814 -0.0102
71503W        W14519  10.638  18.887   4.874  0.1934  0.0023  0.1478
71504W        W14520  23.425   1.922  10.344  0.1393  0.2012 -0.3537
71505W        W14521  16.854  24.065  25.109  0.1891 -0.3205  0.1788
71506W        W14522   5.228  23.648   6.916 -0.1066 -0.3074  0.0061
71507W        W14523  28.628  33.117  28.889 -0.0263 -0.0266 -0.1715
71508W        W14524  25.670   1.527   4.705 -0.0424 -0.1071  0.2170
71509W        W14525  16.328   2.860   1.217 -0.0960  0.1879  0.3506
71510W        W14526  33.870  24.062  28.779 -0.2030 -0.1065 -0.0779
71511W        W14527  10.798  19.078   1.735 -0.0580  0.0818  0.1499
71512W        W14528   9.640   3.667  14.769  0.0161  0.1627  0.0281
71513W        W14529  34.023  24.726   2.222  0.1816  0.1974  0.1656
71514W        W14530  21.652  16.815   4.681 -0.0042  0.2785 -0.1961
71515W        W14531  31.171  13.081   0.965 -0.4829 -0.1329 -0.2563
71516W        W14532  15.270  16.300   0.289  0.0987  0.0020  0.2287
71517W        W14533   1.347  19.450  17.789 -0.1196 -0.0117  0.0420
71518W        W14534   3.913  28.733   2.568 -0.3004  0.1991  0.2084
71519W        W14535   4.201  34.433   5.303  0.1868  0.0128 -0.2131
71520W        W14536   9.952  24.529   4.082  0.2565  0.0285  0.2566
71521W        W14537   7.267  23.833  24.874 -0.0915  0.2686 -0.1550
71522W        W14538   8.802  16.985   6.534 -0.3144 -0.4060 -0.1112
71523W        W14539  14.629  18.726   6.191  0.0238  0.1406  0.3037
71524W        W14540  20.646  26.380   4.623 -0.2576 -0.0343  0.2616
71525W        W14541  12.917  18.712  28.424 -0.3164 -0.1325 -0.0246
71526W        W14542  11.971  19.597   8.165  0.0650  0.0372 -0.0192
71527W        W14543  33.645  28.983  10.839  0.3317  0.1134 -0.3314
71528W        W14544  13.294  22.294   9.193  0.0832 -0.2818  0.1601
71529W        W14545  17.517  25.923  14.493  0.1745 -0.1673 -0.0737
71530W        W14546  18.290   7.526   7.344 -0.4262  0.2115  0.2194
71531W        W14547  29.897  27.087   8.381  0.1055  0.1261 -0.3544
71532W        W14548   7.065  32.591   5.392 -0.2713  0.3139 -0.2512
71533W        W14549  13.237  17.988   0.863 -0.2101 -0.0336  0.0210
71534W        W14550  10.061  23.705   8.323 -0.3924  0.1515  0.1049
71535W        W14551  12.997   9.841   8.921  0.1038 -0.1541 -0.0817
71536W        W14552  31.196  18.483   9.535 -0.2099  0.2753 -0.3251
71537W        W14553   2.688   3.399  27.202 -0.0572 -0.0704 -0.2135
71538W        W14554  22.631  15.227   7.666 -0.0584 -0.0297 -0.0043
71539W        W14555   6.564  16.645  28.100  0.0160  0.2456 -0.0527
71540W        W14556   8.008  13.454   0.096  0.0375  0.1716 -0.1223
71541W        W14557   6.830   5.747   6.335  0.0838 -0.0712 -0.3936
71542W        W14558  19.171  13.629   1.488 -0.2684  0.1035 -0.3380
71543W        W14559   1.274  23.377   7.041 -0.0697  0.0342 -0.1890
71544W        W14560  23.674  11.190  28.445  0.0886  0.0563 -0.1312
71545W        W14561  23.735  22.966   8.256 -0.0302  0.0897  0.1939
71546W        W14562  10.079  14.516  26.843  0.2076 -0.0184  0.1825
71547W        W14563  33.423   2.994   9.388 -0.0456 -0.0749 -0.1793
71548W        W14564  10.120  19.864  25.852 -0.1194  0.0119  0.1555
71549W        W14565  16.939  11.776  22.194 -0.1760  0.1406 -0.0762
71550W        W14566  33.458  34.756   4.486 -0.0129 -0.0176  0.0872
71551W        W14567   7.171   7.631  26.261  0.0558 -0.1200  0.3883
71552W        W14568  11.280  32.467   4.523  0.1114  0.3878 -0.0815
71553W        W14569  10.712   2.647   6.821 -0.0633 -0.0632  0.0634
71554W        W14570  13.289  33.668  10.780  0.0443  0.0909  0.1692
71555W        W14571  28.312  31.436   3.312  0.0584  0.0698 -0.0654
71556W        W14572  14.996  23.887  27.414 -0.1402  0.3930  0.1216
71557W        W14573   1.965  19.849   4.706 -0.3177 -0.1168  0.2457
71558W        W14574  24.151   5.986  16.758 -0.0632  0.5484 -0.3204
71559W        W14575  14.786  10.495   1.062  0.3439 -0.0117 -0.0023
71560W        W14576  33.840  34.466   4.304  0.2082 -0.0462  0.1814
71561W        W14577   7.456   2.627  20.854  0.0880 -0.0136 -0.1160
71562W        W14578   4.441  12.202  28.540 -0.0450 -0.0877  0.0842
71563W        W14579   1.605  13.009  28.865 -0.1427  0.1098  0.1479
71564W        W14580   3.842  23.511   1.766 -0.1649  0.2210  0.0469
71565W        W14581  13.371  20.846   0.750  0.0501  0.1188 -0.0931
71566W        W14582  23.408  13.516   4.998  0.2989 -0.0851 -0.0046
71567W        W14583  19.544   5.942   3.269 -0.1777  0.0375 -0.1173
71568W        W14584  31.998  14.438   2.692 -0.2230  0.1061  0.1070
71569W        W14585   2.187  19.857   7.028 -0.0088 -0.2081  0.1746
71570W        W14586  16.933  15.415   1.037 -0.0656 -0.0279 -0.1430
71571W        W14587  33.500  13.768   8.219 -0.1422 -0.0111 -0.0785
71572W        W14588   5.325  14.177  22.605 -0.0756 -0.1234 -0.0408
71573W        W14589  27.439  19.943   9.735 -0.5067  0.2241 -0.1548
71574W        W14590  12.421  14.533  24.072 -0.0134 -0.1080  0.3924
71575W        W14591   9.098   9.813   8.935  0.1290  0.0463  0.1799
71576W        W14592  10.780  13.648   9.457 -0.0302 -0.0882  0.0192
71577W        W14593  12.543  24.926   9.469  0.3512  0.0196  0.4352
71578W        W14594  11.051  11.263   4.013  0.1190  0.3566  0.0308
71579W        W14595  18.271   4.385   3.186 -0.0714  0.0975  0.0377
71580W        W14596  12.652  18.466  22.224  0.1088 -0.0537  0.0941
71581W        W14597  30.838  24.642  11.059  0.0408  0.1729 -0.2611
71582W        W14598   5.861  26.019   9.536 -0.3132  0.1412  0.0069
71583W        W14599  34.208  22.803  26.756 -0.1506  0.0762  0.0254
71584W        W14600  17.471  18.489  23.580 -0.0793  0.2965  0.0734
71585W        W14601  12.893  11.819  23.606 -0.3823 -0.1449  0.1420
71586W        W14602   0.951  25.101  24.396  0.0462 -0.0916  0.1806
71587W        W14603  34.763  21.735   5.280 -0.1818 -0.0495  0.0878
71588W        W14604  12.044  20.489   3.892  0.0848 -0.0877  0.2278
71589W        W14605  13.383  17.636   8.256  0.0222 -0.0732 -0.2714
71590W        W14606   3.070  14.771   6.013  0.0586  0.3597 -0.1931
71591W        W14607   8.420  18.822   3.147 -0.4142  0.2733 -0.3439
71592W        W14608   9.929  25.016   0.346 -0.3401  0.2162 -0.1403
71593W        W14609  32.454  16.520   6.997  0.0355 -0.1094  0.3352
71594W        W14610  31.952  13.977   5.379 -0.2986 -0.2258 -0.2682
71595W        W14611   2.662  33.908   9.177  0.0025  0.2981  0.2287
71596W        W14612  15.811  33.632   9.114 -0.3767  0.0262  0.3400
71597W        W14613  14.267   7.963   3.245 -0.0325 -0.1588  0.0137
71598W        W14614  19.190   6.932   0.035  0.0096 -0.3934  0.1369
71599W        W14615  15.568  26.040  18.332 -0.0285 -0.1621 -0.0960
71600W        W14616  26.983   1.160  21.712  0.0053  0.0514  0.0971
71601W        W14617   2.144  26.415  15.258  0.0859  0.0245  0.2106
71602W        W14618   7.586   2.941  24.758 -0.2465 -0.0140  0.0669
71603W        W14619  23.182   9.372   2.854 -0.0656 -0.0444  0.3878
71604W        W14620  24.100   8.546   4.057 -0.1212  0.0923 -0.3076
71605W        W14621   7.465  18.935   3.466 -0.0438  0.0692 -0.3635
71606W        W14622   4.650   2.323  25.579 -0.2271  0.0649  0.0854
71607W        W14623   1.241   6.939   2.408  0.2003  0.4622 -0.3443
71608W        W14624  13.819   7.371  19.032 -0.0923  0.0492  0.2021
71609W        W14625  11.071  10.450  26.520 -0.0496  0.0512 -0.1501
71610W        W14626   0.242  19.449   2.902 -0.2218 -0.1265  0.1157
71611W        W14627  14.669  31.441   7.120 -0.3507  0.0817  0.1452
71612W        W14628   2.583  18.874   4.250 -0.3197 -0.0751 -0.0862
71613W        W14629  23.217  30.098   1.923  0.2274  0.0190  0.0835
71614W        W14630  11.730  19.093  20.169 -0.2550 -0.3868 -0.0832
71615W        W14631   7.501  32.507  27.250 -0.1764  0.1651 -0.1161
71616W        W14632  15.263  13.159   8.369  0.0562 -0.1639 -0.1182
71617W        W14633   9.603  12.407   9.519  0.0843  0.0433 -0.0927
71618W        W14634   0.576  23.213  24.652  0.1708 -0.0156  0.1191
71619W        W14635  14.274  13.216   4.565 -0.0206 -0.2656  0.1106
71620W        W14636   7.354  33.187   2.050  0.1779 -0.0274  0.0798
71621W        W14637   1.502  29.162   1.307  0.1360  0.2496  0.3866
71622W        W14638   1.108  31.940  10.173  0.2157 -0.3031  0.0454
71623W        W14639  19.367  16.136   4.656  0.1593 -0.1137 -0.0589
71624W        W14640   6.260  33.939   8.453  0.0036 -0.0378  0.3580
71625W        W14641  16.240   3.751  18.111  0.0615  0.2396 -0.0134
71626W        W14642  10.056  19.774   2.854  0.3961  0.0639  0.0867
71627W        W14643   0.462   4.884   4.368  0.3021  0.1990  0.1929
71628W        W14644   7.488  27.921   9.289  0.1217 -0.1498  0.1524
71629W        W14645  14.855  22.556   3.476 -0.0735 -0.0532  0.1509
71630W        W14646   8.681   1.076   7.807  0.2838  0.1926  0.0342
71631W        W14647  10.554  17.222   5.768 -0.2234  0.2892 -0.2897
71632W        W14648  21.436   3.794   4.821  0.2545 -0.0127  0.3664
71633W        W14649  11.662  19.082   6.810 -0.0159  0.3516  0.2416
71634W        W14650  15.850  23.417   8.742  0.3172  0.0973  0.2881
71635W        W14651  28.441  11.664   8.463 -0.0477  0.5008  0.0968
71636W        W14652   1.471  17.696   0.657 -0.2183  0.0019 -0.0205
71637W        W14653   2.894   9.818   8.651  0.3262 -0.0707  0.3908
71638W        W14654   7.245  20.136   6.388 -0.1159  0.1454 -0.0135
71639W        W14655   6.420  14.735  23.933 -0.0421 -0.1422  0.0499
71640W        W14656   5.443  14.527   1.513 -0.0094  0.2598 -0.1373
71641W        W14657   3.812   2.399  24.609 -0.1419  0.4300  0.0100
71642W        W14658  11.944  17.185  20.518 -0.0516  0.1429  0.1937
71643W        W14659  28.865  18.381  18.844 -0.0593 -0.3198  0.0062
71644W        W14660   0.976  32.943  25.752 -0.5397 -0.4550 -0.1341
71645W        W14661   7.268  25.880   7.800  0.0014  0.2285  0.0818
71646W        W14662   2.831  33.944   4.851  0.0531  0.0708 -0.3596
71647W        W14663   0.133  31.446   7.952  0.0253  0.0872  0.0429
71648W        W14664   2.195   8.718  26.790  0.0633  0.2243  0.2471
71649W        W14665  15.164   9.974  28.387 -0.0029  0.0157 -0.1299
71650W        W14666  27.783  17.816  25.725 -0.1572 -0.1953 -0.0606
71651W        W14667  13.885  21.001   6.708  0.2437  0.0243 -0.0134
71652W        W14668   2.349  15.393  26.113  0.2329 -0.3312  0.0363
71653W        W14669   8.019  12.007   8.755 -0.1683  0.1265  0.1330
71654W        W14670   8.240   4.034   4.727  0.0384  0.1705 -0.0409
71655W        W14671  30.016  24.781   7.811 -0.0364  0.1801  0.1304
71656W        W14672   8.406  32.569  18.288 -0.0855  0.2261  0.0485
71657W        W14673  16.109   2.047  15.803  0.3100  0.1391 -0.0037
71658W        W14674  21.609  25.893  19.838  0.3046  0.1559  0.3168
71659W        W14675   5.069   5.104  17.677 -0.0016  0.0488  0.3408
71660W        W14676  16.665  12.460  23.269 -0.1259 -0.0105  0.2758
71661W        W14677  14.631  32.008  25.903  0.0086  0.1493  0.3732
71662W        W14678  19.544  22.565   5.713  0.1884 -0.0224 -0.1248
71663W        W14679  25.436  27.562  19.663 -0.0231  0.0522  0.2637
71664W        W14680   3.123  17.918   4.308 -0.2372  0.0788 -0.0572
71665W        W14681   7.984  13.785   0.764 -0.1670  0.0876 -0.0276
71666W        W14682   2.771  16.201   2.824 -0.0031 -0.1686 -0.3415
71667W        W14683  16.540  16.440   0.585 -0.0494 -0.5350 -0.0944
71668W        W14684  16.290  18.006   4.180 -0.0369 -0.0808 -0.0421
71669W        W14685  29.029  31.040  11.026  0.2491 -0.2154  0.0511
71670W        W14686  27.658  28.825  25.397  0.3821 -0.0287  0.1082
71671W        W14687  26.360  10.985   0.344 -0.2190 -0.1317 -0.3068
71672W        W14688   2.722  32.234   8.105 -0.1773  0.0294  0.2719
71673W        W14689  32.377  24.285  26.260 -0.0275 -0.0503 -0.4372
71674W        W14690   8.208  10.275   2.083  0.3694  0.2465  0.4491
71675W        W14691   5.697  19.445   3.723 -0.1092 -0.0937  0.2327
71676W        W14692   4.359  24.232   6.291 -0.1084 -0.4081 -0.0040
71677W        W14693   5.459  13.762  21.789  0.0448 -0.1667 -0.2678
71678W        W14694   3.889  22.457   9.624 -0.0474  0.0291  0.1461
71679W        W14695   2.788  27.397   1.323 -0.0286  0.1588  0.3084
71680W        W14696  11.799   8.122   2.752 -0.4975  0.1949 -0.0146
71681W        W14697   2.105  11.794   9.151 -0.2138  0.1034 -0.0414
71682W        W14698  18.911  11.122  17.151 -0.0100  0.2555 -0.1049
71683W        W14699  22.794  17.316  29.247 -0.1322 -0.2511  0.1392
71684W        W14700  11.404   1.226  27.814  0.0404 -0.2371 -0.3186
71685W        W14701  29.662  12.083  24.041 -0.0053  0.1925  0.0006
71686W        W14702  30.611  20.281   9.676  0.0250  0.0527  0.1976
71687W        W14703  13.799  13.136  21.319 -0.0823  0.0023 -0.3176
71688W        W14704  18.704  15.694  20.115 -0.0349 -0.1815 -0.0373
71689W        W14705   7.421  11.212   4.277 -0.2481 -0.0680 -0.1059
71690W        W14706  13.814  20.325  26.610 -0.1661 -0.1287  0.1509
71691W        W14707  10.324  30.072  18.455 -0.0876 -0.0161  0.1257
71692W        W14708  13.493   7.356   6.921  0.0115 -0.1106  0.2275
71693W        W14709   9.285  21.722   4.296 -0.0522  0.3313 -0.1824
71694W        W14710  13.488  13.709   0.278  0.2386 -0.1469 -0.0834
71695W        W14711  15.026  10.641  28.608 -0.2473 -0.2363  0.2000
71696W        W14712  33.210  23.178  27.555 -0.1578  0.0465  0.1973
71697W        W14713  31.893  13.716  21.550 -0.2409  0.1130  0.0701
71698W        W14714  32.427  32.442  11.576 -0.0899 -0.2081 -0.0269
71699W        W14715  26.877  10.403   3.780 -0.0672 -0.0074 -0.1146
71700W        W14716  11.637  14.094   7.364 -0.1761 -0.2493  0.0332
71701W        W14717   7.879  10.810  22.019  0.0196 -0.2828 -0.2081
71702W        W14718  24.882  17.038   8.020  0.1073  0.0241 -0.1440
71703W        W14719   1.303   2.740  22.478  0.2739  0.2278 -0.0828
71704W        W14720  16.909  11.375   6.993  0.0399 -0.0507  0.0895
71705W        W14721   0.328  20.827  26.217  0.0265 -0.2858  0.1054
71706W        W14722  14.472  28.639   7.692  0.3754 -0.2129 -0.2527
71707W        W14723   2.310  22.451  20.307  0.2732  0.1627 -0.2647
71708W        W14724  26.940  21.822  11.270 -0.0599  0.2648  0.3836
71709W        W14725   5.044  20.897   3.573 -0.1717  0.1439 -0.0359
71710W        W14726  13.184  20.564  27.310  0.0014 -0.0781  0.0817
71711W        W14727  22.632   9.113   4.311 -0.0587  0.1519 -0.0014
71712W        W14728   5.878   4.694  26.122  0.0612 -0.0314 -0.0121
71713W        W14729  10.157   6.929   4.990  0.1320 -0.1328 -0.0361
71714W        W14730  34.604  15.583   8.501 -0.0735 -0.0821 -0.1036
71715W        W14731   7.689  10.667  18.240 -0.0028  0.1970  0.2309
71716W        W14732  32.722  21.497  26.499 -0.3257 -0.1563 -0.0845
71717W        W14733  18.186  15.444   4.237 -0.1405 -0.0750 -0.1974
71718W        W14734   5.875  10.268   5.690 -0.1020  0.1796  0.1046
71719W        W14735   9.847  10.493  17.242 -0.2543  0.1975 -0.0635
71720W        W14736   5.358  18.280  15.168 -0.0779  0.5148 -0.2836
71721W        W14737  13.751  20.215   1.091  0.0942 -0.0005 -0.0614
71722W        W14738   8.598   7.453   9.946 -0.0103  0.0469 -0.2398
71723W        W14739  25.409   7.582  26.287 -0.0207 -0.2303 -0.0003
71724W        W14740  31.787  16.194  14.836 -0.2965  0.0813 -0.0365
71725W        W14741  20.321  32.876  17.983 -0.1294  0.0499  0.0154
71726W        W14742  25.075  19.506  23.506 -0.2950  0.0248 -0.1608
71727W        W14743  32.440  19.696   5.468  0.2162 -0.0392  0.0168
71728W        W14744   3.430  22.927  15.100  0.0169 -0.3549  0.0230
71729W        W14745  20.142  21.095  12.550  0.2736 -0.1111  0.0940
71730W        W14746  12.739   7.048  17.778 -0.0011  0.0120 -0.0577
71731W        W14747  33.609  28.213   4.837  0.1155  0.0806 -0.0407
71732W        W14748   8.936  20.051  16.449  0.1224 -0.2953  0.2829
71733W        W14749  34.716  19.700  29.270 -0.0893  0.1747 -0.1487
71734W        W14750   0.984  23.795  26.023  0.0688 -0.0699  0.1990
71735W        W14751  17.314  16.317  25.361 -0.0972  0.0289 -0.2684
71736W        W14752   5.659  25.626  21.438 -0.0769 -0.0783  0.1278
71737W        W14753  12.898  15.324  19.539  0.0873  0.2054 -0.1779
71738W        W14754  11.772  23.246  29.061  0.0376  0.1870 -0.3153
71739W        W14755  18.416   2.317  24.617  0.3227 -0.0267  0.1447
71740W        W14756   7.228  34.447  25.333 -0.4807  0.0807 -0.1923
71741W        W14757  27.801  24.913   6.210  0.0042  0.0798  0.1542
71742W        W14758   9.067   3.838  28.024  0.1384  0.1995  0.1869
71743W        W14759  16.062  18.670  22.438 -0.3217  0.1207  0.0162
71744W        W14760  14.715  25.446  23.544 -0.2689 -0.0284  0.1238
71745W        W14761  10.834  17.778   1.680 -0.0228  0.2546  0.0543
71746W        W14762   5.011  33.153  27.349 -0.2042 -0.3257 -0.0727
71747W        W14763  24.602  14.976  24.482 -0.0088  0.1750 -0.1516
71748W        W14764   0.517  14.292  23.316  0.1228 -0.0034  0.1316
71749W        W14765  13.810  32.286   1.874 -0.0320  0.0744 -0.0771
71750W        W14766  23.281  23.939  21.792  0.0528  0.0703  0.1439
71751W        W14767   9.865  15.590  21.450  0.3090 -0.1126  0.1542
71752W        W14768   2.959  13.271  18.830  0.0914 -0.0008 -0.1022
71753W        W14769  33.314  11.855  18.789 -0.0558  0.2966 -0.1419
71754W        W14770   1.570   7.635  26.140  0.0870  0.0033  0.1287
71755W        W14771  13.476  31.214  19.465  0.0277 -0.3809 -0.1100
71756W        W14772  14.788  27.662  25.890  0.1103  0.4987 -0.0136
71757W        W14773  14.596  14.062   3.541  0.0831 -0.2465 -0.0519
71758W        W14774   4.208  19.175   1.242  0.1675  0.1709  0.0068
71759W        W14775  32.688   6.369  21.871  0.3381 -0.0511 -0.2470
71760W        W14776  15.790  24.502  26.959  0.1383  0.1635 -0.0906
71761W        W14777   0.030   9.874   4.703  0.0358  0.0648  0.0412
71762W        W14778  33.144  18.567  10.365  0.1353  0.0893  0.3691
71763W        W14779   3.508  27.901   8.000 -0.0718  0.2218 -0.1654
71764W        W14780   5.725  32.229   7.695 -0.0292  0.1771  0.1450
71765W        W14781  24.694  17.511  14.951 -0.5917 -0.0624  0.0996
71766W        W14782  18.036  10.632  17.658  0.1236  0.4357 -0.3320
71767W        W14783  14.540  29.640   0.073  0.2187 -0.3103  0.1714
71768W        W14784   8.667  21.485  26.366  0.2200 -0.2373  0.0818
71769W        W14785  31.618   3.556   1.627  0.1481  0.0747  0.0844
71770W        W14786  34.607  17.815   7.463  0.0700  0.2259 -0.0775
71771W        W14787   2.541  11.972   1.760  0.0307 -0.0174 -0.2800
71772W        W14788  17.176  25.419  23.181 -0.0069 -0.1852 -0.0364
71773W        W14789  10.162  29.437   7.748 -0.1749  0.1329  0.4149
71774W        W14790   0.688  23.704  21.880  0.0374 -0.0448  0.0771
71775W        W14791   9.587  17.883  23.910  0.1185  0.2623  0.1556
71776W        W14792   4.459  21.689   8.539  0.0960 -0.2412 -0.1312
71777W        W14793  19.003  26.395  21.888 -0.0820  0.3327 -0.1386
71778W        W14794  18.804  15.927  11.568 -0.1717 -0.2187 -0.1808
71779W        W14795   6.827  16.011   1.883  0.0093  0.0412 -0.2116
71780W        W14796   7.280  26.284   7.439  0.5502 -0.2364  0.1384
71781W        W14797  13.065  13.763  27.697 -0.2497 -0.1935 -0.0295
71782W        W14798  11.570  16.783   1.241  0.2524 -0.2948 -0.1685
71783W        W14799   7.995  19.475  26.722 -0.4997 -0.1315  0.1949
71784W        W14800   9.717  18.776   3.301  0.0677  0.1735 -0.1648
71785W        W14801  24.335  10.231  24.537 -0.3524 -0.0909 -0.4126
71786W        W14802   6.737  30.944   6.569 -0.0444  0.1837  0.2235
71787W        W14803  34.637  13.711  28.433 -0.4221 -0.2631  0.0019
71788W        W14804  27.429  26.340   0.045 -0.0600  0.2295 -0.2442
71789W        W14805  31.501  19.247  27.496 -0.0684 -0.0135  0.0172
71790W        W14806  17.047  15.285   5.174  0.3544 -0.1043  0.0567
71791W        W14807  33.706   2.969  18.219  0.1401  0.2736  0.3333
71792W        W14808   2.222  13.266  27.290 -0.0147 -0.0851 -0.0468
71793W        W14809  25.164  15.798  26.061 -0.2175 -0.1070 -0.0790
71794W        W14810  15.981  34.226   8.462  0.0459 -0.0136  0.1354
71795W        W14811   1.275  32.764  27.372  0.3812 -0.1606  0.1808
71796W        W14812  33.216  22.814  17.451 -0.0826  0.0940  0.2568
71797W        W14813   4.659  27.010   7.113 -0.0371 -0.1566  0.2997
71798W        W14814   8.248   4.561  20.102 -0.1659 -0.1140  0.0154
71799W        W14815  10.374  18.124   3.707 -0.3124  0.1687  0.1568
71800W        W14816  10.387  21.089   1.402 -0.3021 -0.0631 -0.2038
71801W        W14817   4.207  16.510   2.778  0.0338 -0.2189  0.0253
71802W        W14818  17.364   1.053  16.175  0.1170 -0.3725 -0.1927
71803W        W14819  14.529  22.152   3.322  0.1145 -0.3824  0.1138
71804W        W14820  11.252  12.850  27.663 -0.0574 -0.0214 -0.0263
71805W        W14821   3.584  29.245  27.656 -0.0791  0.0723  0.1027
71806W        W14822   3.379  17.809   2.626  0.1385  0.1451 -0.0430
71807W        W14823   2.958  28.809  23.436  0.1635 -0.3249 -0.3512
71808W        W14824  22.524  22.466  28.892  0.1509 -0.1408 -0.0897
71809W        W14825  11.074  16.729   1.394 -0.0277 -0.2810  0.2525
71810W        W14826  28.681  26.555  24.367 -0.0125 -0.3156 -0.3331
71811W        W14827  34.304  27.414   6.147 -0.2172  0.1672 -0.3844
71812W        W14828   5.069  13.522   5.906  0.0504  0.2514  0.2228
71813W        W14829   7.666  22.063   4.187  0.0735 -0.2542  0.1600
71814W        W14830   0.909  24.013   3.015  0.2325 -0.1578  0.3401
71815W        W14831   9.360  20.473   7.720  0.1997  0.0648  0.2140
71816W        W14832  24.675  11.410   8.774 -0.1466 -0.0225  0.0801
71817W        W14833   3.935  12.138   6.418  0.0328 -0.0717  0.1161
71818W        W14834   6.929  13.782  25.489  0.1514  0.2161 -0.1580
71819W        W14835   1.662  28.785  29.220  0.0354 -0.3066 -0.1509
71820W        W14836  30.172  18.206   4.920  0.3302 -0.0919  0.1928
71821W        W14837   3.492   0.821   7.241 -0.2969 -0.2806 -0.0134
71822W        W14838   0.294   5.204   1.365 -0.4643  0.3296 -0.0064
71823W        W14839   2.291  15.279  21.483 -0.3336  0.0284 -0.1722
71824W        W14840  30.822  26.347   6.292  0.1998 -0.1977  0.0068
71825W        W14841   9.525   0.990  27.016  0.1743 -0.0516 -0.1129
71826W        W14842  28.792  34.110   1.590 -0.1687 -0.1700 -0.1660
71827W        W14843   0.174  29.059   3.532 -0.0013  0.3304 -0.1697
71828W        W14844   4.895  20.339  20.101 -0.2552 -0.0720  0.1782
71829W        W14845  34.166  27.745  23.518  0.3826 -0.1216  0.2668
71830W        W14846   3.820  31.544  18.300 -0.3678 -0.1369  0.4755
71831W        W14847  21.704  23.398  27.813 -0.2445  0.3712  0.1339
71832W        W14848  21.897  25.837  29.063  0.3129  0.0280 -0.1616
71833W        W14849   4.368  31.803   0.212  0.1833 -0.0628 -0.4159
71834W        W14850   8.792   4.075   7.696  0.2981  0.1671 -0.1178
71835W        W14851   5.398   0.566   7.384 -0.1538  0.0994  0.0287
71836W        W14852   2.651  12.629  26.483 -0.1386 -0.0222 -0.3009
71837W        W14853  30.972  18.820  21.764  0.2748 -0.0167  0.2049
71838W        W14854  17.832  18.452  26.505  0.3748  0.0442  0.1471
71839W        W14855   7.398  24.382   0.770 -0.2382 -0.0448 -0.1413
71840W        W14856  23.464  26.094  23.131 -0.0145 -0.0110 -0.0636
71841W        W14857   7.427  25.606  29.046  0.1115 -0.1005  0.0527
71842W        W14858  12.470  22.144   7.202  0.0871  0.0354  0.1355
71843W        W14859   8.450  12.196  28.602  0.0089 -0.0049 -0.0021
71844W        W14860   2.009  13.230  17.935  0.4281 -0.1081 -0.0610
71845W        W14861   0.422  25.194   1.824 -0.0965 -0.0184  0.5126
71846W        W14862  33.511   4.301  17.236 -0.1678 -0.0101 -0.1331
71847W        W14863  18.658  22.326  26.425  0.1642  0.3978  0.0736
71848W        W14864  11.232  26.025   7.069 -0.2137  0.0726 -0.0750
71849W        W14865  25.401  26.412  24.058 -0.1601 -0.1374 -0.2595
71850W        W14866  31.065  17.355   3.912 -0.0463  0.1712  0.0851
71851W        W14867  32.382  23.739   6.974  0.1719 -0.1578 -0.1151
71852W        W14868  12.025  18.160  15.651  0.2003  0.1024 -0.0546
71853W        W14869   7.080  17.920  24.482 -0.1156  0.2357 -0.2791
71854W        W14870  30.115  28.926  22.482  0.2058  0.0530 -0.0761
71855W        W14871   3.258  17.596  17.234 -0.1180  0.0793 -0.1610
71856W        W14872   6.433  32.284   3.025 -0.2876 -0.1043  0.1318
71857W        W14873  17.183  26.913  25.073 -0.1056  0.2491 -0.1433
71858W        W14874  11.314  12.380   4.682  0.0351  0.0563  0.0953
71859W        W14875   5.371  17.332   5.123  0.0079 -0.0404  0.3880
71860W        W14876  11.973  21.452  23.912  0.4251  0.0777  0.0848
71861W        W14877  29.367  29.923  24.117 -0.2332  0.0241  0.0917
71862W        W14878  33.708  15.334  10.079 -0.1199  0.1503 -0.0661
71863W        W14879  29.935  19.016  19.720 -0.0198  0.0433 -0.3445
71864W        W14880  31.616   2.674   1.795  0.2235  0.0285 -0.1596
71865W        W14881   8.020  18.987   4.831 -0.0041 -0.0105 -0.2969
71866W        W14882  17.603   8.641   4.611  0.1431  0.1630  0.0465
71867W        W14883   9.464   8.525   8.730  0.3878  0.0506 -0.0831
71868W        W14884  29.062   6.605  23.674  0.1685 -0.1079 -0.2164
71869W        W14885  26.031  18.224   6.579  0.0795 -0.0647  0.3325
71870W        W14886  21.982  14.909  23.548 -0.2416  0.2259 -0.1546
71871W        W14887   5.939  16.465   3.354 -0.2590  0.1560  0.2212
71872W        W14888  27.828  23.268  26.687 -0.0559  0.0314 -0.4167
71873W        W14889  33.337  14.055   1.991  0.2861 -0.1603 -0.3111
71874W        W14890  10.557  14.093   1.582 -0.0850 -0.0897  0.2663
71875W        W14891  13.801  17.664  20.187  0.1141 -0.2547  0.1865
71876W        W14892  28.702  21.587  20.103 -0.0975  0.1203  0.3069
71877W        W14893  15.272  33.658  25.528 -0.1443  0.0873  0.0333
71878W        W14894   4.104  21.124  17.368 -0.2925 -0.0545 -0.0759
71879W        W14895   5.066  19.989  20.887 -0.2068 -0.1635  0.0538
71880W        W14896  32.184  15.754  23.958 -0.1171  0.0003 -0.1243
71881W        W14897   1.884  25.487  14.987  0.1771  0.1806 -0.1272
71882W        W14898   9.212  29.018   0.497  0.1568 -0.0625  0.1516
71883W        W14899  22.592   6.645  18.342  0.3519 -0.0039  0.3446
71884W        W14900   2.289  32.110  17.177  0.0462 -0.0923 -0.0800
71885W        W14901  20.133  19.536  28.775  0.0303 -0.2084 -0.0333
71886W        W14902  19.014  15.544   2.368 -0.0267  0.2289  0.0727
71887W        W14903  29.673   8.094   6.467  0.0686  0.3019 -0.0233
71888W        W14904  32.989  25.222  23.138 -0.1009 -0.5409 -0.3474
71889W        W14905   9.944  15.531  12.979 -0.0331 -0.0674  0.1206
71890W        W14906  31.827  16.283   4.129  0.5235 -0.0794 -0.1109
71891W        W14907  10.049  30.062  28.644 -0.3273 -0.3971  0.2650
71892W        W14908   1.550   3.048   4.416 -0.3450  0.1631  0.2718
71893W        W14909   3.741  27.352   8.668  0.0217  0.0595  0.2117
71894W        W14910  13.263  14.981   2.513 -0.2479 -0.1447  0.3540
71895W        W14911   1.808  14.916  16.894  0.0917 -0.1148  0.0527
71896W        W14912  34.032  12.415   2.596  0.3850 -0.1192 -0.1486
71897W        W14913  30.335  30.144  11.371 -0.1648 -0.0867  0.1107
71898W        W14914   2.822   7.235   2.968  0.0835  0.0104  0.0284
71899W        W14915  11.082  13.066   7.415  0.3118 -0.1265 -0.0066
71900W        W14916  21.229   4.721   6.336  0.2793 -0.0772  0.1418
71901W        W14917   8.567  15.799   6.999 -0.0594 -0.1415 -0.1476
71902W        W14918  32.569  28.372   8.172  0.1175  0.1178  0.1731
71903W        W14919   3.707  23.460  26.692  0.2935  0.2839  0.1734
71904W        W14920  34.648  33.378   4.164 -0.3221 -0.0235  0.1367
71905W        W14921  23.717  19.892   8.908  0.2004  0.0343  0.1844
71906W        W14922  11.962  28.058  19.955 -0.3778  0.0828 -0.2801
71907W        W14923   4.225   5.319   7.770  0.2026  0.4433  0.0504
71908W        W14924  34.409  28.254   2.653 -0.1389  0.1278 -0.2680
71909W        W14925  21.559  19.555  24.445 -0.4138 -0.1094 -0.1324
71910W        W14926  20.246   2.831   0.645  0.1523 -0.0433 -0.2356
71911W        W14927  24.748   5.748  21.677 -0.0372  0.0955 -0.0910
71912W        W14928  11.036  14.878   7.188 -0.2319  0.7597 -0.2868
71913W        W14929   9.195  30.854   7.838 -0.1585 -0.0867  0.3464
71914W        W14930  26.560  24.612  10.030 -0.0251  0.1507  0.1621
71915W        W14931  34.499  21.912  27.854  0.2759  0.0127  0.0267
71916W        W14932   9.454  24.628  19.101 -0.3195  0.0246 -0.2281
71917W        W14933  15.644  32.579   3.122  0.2015  0.1433  0.1586
71918W        W14934   8.048  16.310  28.259  0.2466 -0.0850  0.2347
71919W        W14935  10.994  25.076   4.127 -0.0566  0.0763  0.1765
71920W        W14936   5.622   0.305  23.002 -0.0515  0.0084 -0.1511
71921W        W14937  15.083   5.406   8.128 -0.2437 -0.0528 -0.0440
71922W        W14938   7.591  18.175   4.479 -0.0960  0.2544  0.1495
71923W        W14939   8.038  29.350   4.376  0.0513 -0.1805  0.0307
71924W        W14940  10.715  13.248   0.226  0.0666 -0.0926 -0.2309
71925W        W14941  15.410  13.037   0.337 -0.0554 -0.1562  0.0004
71926W        W14942  15.199  16.879  22.213  0.0515  0.0867  0.3258
71927W        W14943  30.948   1.213  28.814 -0.0907 -0.0968 -0.1604
71928W        W14944   1.457   4.720   2.841 -0.0545  0.0521  0.0803
71929W        W14945  17.224  15.776  26.199  0.1637  0.1837  0.3370
71930W        W14946   9.894  20.163  14.048  0.0621 -0.2387 -0.0542
71931W        W14947   8.132  14.959   6.789  0.2881  0.0770 -0.2196
71932W        W14948   5.720  30.449   4.020 -0.3758 -0.3098  0.0457
71933W        W14949  21.737  17.274  23.290 -0.2916  0.4604  0.3772
71934W        W14950   1.379  29.375  27.107  0.2085 -0.0785  0.0369
71935W        W14951  18.953   8.524   7.757  0.0846  0.1156 -0.3008
71936W        W14952  16.119  19.104   1.194  0.0720  0.1892 -0.2793
71937W        W14953   0.239  12.175   0.198  0.0091  0.3787  0.4364
71938W        W14954  26.765  16.026  19.961  0.2091 -0.1679 -0.0422
71939W        W14955  16.517  13.842  27.670  0.0019  0.3079 -0.0627
71940W        W14956  26.067   1.036  26.962  0.0405 -0.2859  0.0539
71941W        W14957  11.064  20.477  22.560  0.0302 -0.0733 -0.0425
71942W        W14958   0.548  15.382   6.436 -0.0111 -0.0220  0.1894
71943W        W14959   4.657   7.470  24.097  0.0595 -0.0840  0.2700
71944W        W14960  21.207   3.231  18.174  0.1551  0.2372  0.2827
71945W        W14961  22.122  19.383  17.450  0.0437 -0.2489  0.1851
71946W        W14962  29.354  25.440  24.048 -0.0962 -0.3790  0.2882
71947W        W14963  14.988  28.733  26.805 -0.2416  0.1145  0.1340
71948W        W14964   9.304  18.784  17.300  0.1165  0.4249  0.2880
71949W        W14965  33.174  14.072  18.643 -0.1156  0.0515 -0.2692
71950W        W14966   3.767  25.247   5.765 -0.2357 -0.0306 -0.2179
71951W        W14967  17.829  17.134   4.870 -0.2278  0.0951  0.2444
71952W        W14968  12.323  27.868  26.963 -0.2019  0.1238  0.0312
71953W        W14969  10.562  15.352   7.441 -0.0254  0.3433  0.0559
71954W        W14970  18.921  14.260  28.600  0.0601 -0.1800 -0.2198
71955W        W14971   3.681  24.754  26.335  0.0282  0.0273 -0.0187
71956W        W14972  19.612  30.543  26.741 -0.4291  0.0052 -0.2698
71957W        W14973   4.215   2.214   2.082  0.2341 -0.1419  0.3814
71958W        W14974   6.219  18.908   9.246 -0.2158 -0.0151 -0.1883
71959W        W14975  30.459  32.557   0.031  0.1138 -0.3021 -0.1277
71960W        W14976   1.884  23.645  26.110  0.1746 -0.2905  0.0224
71961W        W14977   1.184   2.485  23.447 -0.3405  0.1379 -0.0616
71962W        W14978  31.774   7.388   2.733  0.1107 -0.0234  0.2009
71963W        W14979   7.870  30.206  21.311  0.1777 -0.1373  0.0933
71964W        W14980   1.486  19.861   7.644  0.2243 -0.0831  0.0524
71965W        W14981   8.098   6.556  18.647  0.2612 -0.4106 -0.0140
71966W        W14982  29.911  25.575  18.975 -0.1784  0.2345  0.0338
71967W        W14983  30.723  21.567  25.627 -0.1183 -0.0993 -0.0909
71968W        W14984  11.846  29.402   3.073 -0.1555 -0.0150  0.4063
71969W        W14985   1.840  24.989   8.024  0.1716 -0.0112  0.1229
71970W        W14986   3.341  10.918  22.163 -0.1031  0.0027 -0.1210
71971W        W14987   4.278  10.422   3.312 -0.2236 -0.1775 -0.0055
71972W        W14988   4.091   9.033   9.840 -0.1618 -0.1000 -0.0378
71973W        W14989   6.207  19.441   2.426 -0.5455 -0.3933  0.2670
71974W        W14990   4.018  23.651   0.749  0.0562  0.0804  0.2610
71975W        W14991   0.925  27.863  22.988 -0.2253  0.0198 -0.0266
71976W        W14992  30.967  21.726  27.898 -0.0435 -0.0092 -0.1073
71977W        W14993   7.402  17.139   7.320 -0.3624 -0.2222  0.0590
71978W        W14994  17.252  24.501   4.932  0.2225 -0.0213  0.2302
71979W        W14995  11.486  25.797   1.708 -0.1467 -0.3189  0.0172
71980W        W14996  33.348  24.906   5.125  0.1008 -0.1241 -0.4515
71981W        W14997  34.757   9.976  23.372  0.2072  0.1048 -0.0713
71982W        W14998   5.992  23.312  20.823  0.3051 -0.0627  0.2579
71983W        W14999   2.554   2.870  25.437 -0.0161 -0.1717 -0.0296
71984W        W15000  15.647  25.582   4.829  0.3540 -0.1653 -0.0469
71985W        W15001  10.807  16.880   2.326 -0.1984 -0.1134  0.2777
71986W        W15002  14.833   8.352  27.505 -0.1081  0.1229  0.3115
71987W        W15003  13.528   3.054  16.893 -0.0258 -0.1143 -0.0506
71988W        W15004   6.108  25.271  25.439 -0.1154  0.1310 -0.0602
71989W        W15005   4.319  32.986   8.225  0.1069  0.0789 -0.0467
71990W        W15006  12.230  30.291   0.019 -0.0383  0.1991 -0.3431
71991W        W15007  29.465  27.990  22.294  0.1517 -0.0057 -0.0342
71992W        W15008   4.749  30.262  24.755  0.4809 -0.0563  0.0333
71993W        W15009   8.340  26.275  24.450  0.0696  0.1598 -0.1936
71994W        W15010   9.205  29.799   9.860  0.0476 -0.1791 -0.2081
71995W        W15011  30.719   3.664   1.796  0.1282 -0.0875 -0.3361
71996W        W15012  14.599  12.051   3.860 -0.1426 -0.1064  0.1520
71997W        W15013   3.019  29.174   7.675 -0.0209 -0.1291  0.0060
71998W        W15014  12.226  16.964  21.799 -0.0337  0.1038 -0.1481
71999W        W15015  23.384   2.910  28.552 -0.0855  0.0228  0.2633
72000W        W15016  12.765  13.979  22.605 -0.1994 -0.3404 -0.3153
72001W        W15017  21.757  12.761  25.123 -0.0922 -0.1892 -0.0846
72002W        W15018  17.086  13.256   5.498  0.3963  0.3043 -0.0870
72003W        W15019   6.216  22.142   7.198  0.2136 -0.2214 -0.1077
72004W        W15020  28.122   9.261  26.432  0.1876 -0.4059 -0.4315
72005W        W15021  34.411  15.471   6.725 -0.1158  0.1981  0.0877
72006W        W15022   6.246  12.158   7.744  0.0946  0.2837  0.0724
72007W        W15023   2.078   8.178   0.179  0.1425  0.0107 -0.0381
72008W        W15024  15.650  28.219   8.976 -0.3515  0.0676 -0.0179
72009W        W15025  10.577  23.735   4.900 -0.5024  0.3133 -0.0954
72010W        W15026   3.695  34.640  23.278 -0.2307  0.2020  0.0338
72011W        W15027  24.606   7.147   0.247  0.0004  0.2472 -0.0236
72012W        W15028  16.016  21.387  21.721  0.2979 -0.2481 -0.3194
72013W        W15029  13.734  10.775  17.522 -0.1188  0.1123  0.2881
72014W        W15030   8.749  23.027  28.381  0.0697  0.2378  0.0487
72015W        W15031  28.283  32.194   9.364  0.1537 -0.1500 -0.2976
72016W        W15032   6.129  22.079  28.698 -0.1390 -0.2827 -0.0935
72017W        W15033  15.737   4.820  26.955 -0.0303 -0.0318 -0.0595
72018W        W15034  27.777  33.162  25.801  0.1838  0.1576 -0.1881
72019W        W15035   2.174  12.654  25.548  0.0291  0.0159  0.3100
72020W        W15036   6.092  11.575   8.804 -0.1448  0.1579  0.0575
72021W        W15037  15.804   7.224   0.603 -0.1878 -0.0099 -0.3345
72022W        W15038  15.127  20.229  25.789 -0.0390 -0.1388  0.2733
72023W        W15039  15.468   6.804  25.968 -0.0331 -0.3228 -0.0518
72024W        W15040   4.781  21.784   4.144  0.1128 -0.0462 -0.0909
72025W        W15041  33.008  18.413  26.019  0.4201 -0.2833  0.1152
72026W        W15042  23.012  24.614  23.257  0.1204 -0.1051 -0.1456
72027W        W15043  17.204   4.457   8.636 -0.0138  0.0010  0.0843
72028W        W15044   5.074   2.082   2.569 -0.0199  0.0001  0.0823
72029W        W15045  11.031  15.125  13.636  0.0822  0.0205  0.0915
72030W        W15046   9.667   2.693  15.645 -0.0501  0.0745  0.0015
72031W        W15047  10.927   7.843   4.627 -0.1990  0.1346  0.0531
72032W        W15048   2.333  22.391  25.371  0.1106  0.2093 -0.0431
72033W        W15049  23.925  14.341   1.872  0.2770 -0.0584 -0.2549
72034W        W15050   3.695  24.777  20.304 -0.0603  0.0035  0.3263
72035W        W15051   8.461  24.135  25.328 -0.0216  0.0838  0.1354
72036W        W15052  33.196  26.403   6.560 -0.0723  0.0173  0.1279
72037W        W15053   5.883  11.106   3.448 -0.2760 -0.1057 -0.0888
72038W        W15054  16.946  26.058  23.897  0.1179 -0.1108 -0.0160
72039W        W15055   6.715  32.418  20.079  0.1459  0.2463  0.1638
72040W        W15056  30.351  10.819   8.338  0.0394  0.1906  0.0518
72041W        W15057   0.969  17.170   9.408  0.1984 -0.0141 -0.0684
72042W        W15058  30.363  23.536   7.612 -0.2509 -0.1385  0.0001
72043W        W15059   6.998  31.656   6.046  0.0075  0.0438  0.0710
72044W        W15060  31.934  15.116  21.852 -0.0300 -0.3019  0.0497
72045W        W15061  29.714   0.640   1.861 -0.0091 -0.1848  0.2334
72046W        W15062   4.818  27.380  18.234  0.0920 -0.0382  0.0528
72047W        W15063  31.515  25.554   9.397 -0.2785 -0.0466 -0.2613
72048W        W15064   8.871  22.367  15.994  0.0239 -0.1011  0.2954
72049W        W15065   6.757  11.394  13.645  0.0915  0.0888  0.1966
72050W        W15066  30.198  24.756  23.353  0.2343 -0.0341 -0.1812
72051W        W15067  22.895  16.935   1.762 -0.1561 -0.0156  0.1915
72052W        W15068  23.319  26.991  22.794  0.0052 -0.2937  0.0823
72053W        W15069  10.907  30.550   1.947 -0.1181  0.1350  0.0073
72054W        W15070   6.478  14.280  26.384  0.2908 -0.0326  0.0553
72055W        W15071   5.823  22.347  27.846 -0.0099 -0.5932  0.1696
72056W        W15072  10.689  31.967  18.836  0.1337  0.0769 -0.1779
72057W        W15073   2.978  25.227  27.854 -0.5858 -0.0911 -0.1273
72058W        W15074  11.127  19.880   1.798 -0.1183 -0.1621  0.2568
72059W        W15075  13.416  21.904   1.926 -0.2588 -0.3656  0.3714
72060W        W15076   2.750  24.838   7.621 -0.3306 -0.2871 -0.2042
72061W        W15077   9.020  15.162   3.814  0.0330  0.3648  0.1026
72062W        W15078  34.368  20.004   8.959  0.1545 -0.0020  0.1652
72063W        W15079   4.743  28.254   8.178  0.0645  0.3329  0.0008
72064W        W15080  26.493  24.952  10.995 -0.3401  0.0363  0.0993
72065W        W15081   2.011  21.813   5.809  0.3472 -0.2284  0.2503
72066W        W15082   9.032  20.889  28.747 -0.0782 -0.0214  0.2089
72067W        W15083  19.550  30.568   2.281 -0.3112  0.0067  0.0413
72068W        W15084  21.698  16.823   6.718 -0.2774  0.2082  0.2344
72069W        W15085  17.950  16.922   5.340 -0.2068 -0.2965 -0.0350
72070W        W15086   9.993   3.179   9.718 -0.1002 -0.0635  0.1893
72071W        W15087  19.855   4.765   9.106 -0.1050 -0.0018 -0.1905
72072W        W15088  30.007  22.267  27.902  0.0463 -0.1472 -0.0800
72073W        W15089  29.969  18.549   0.007  0.1060 -0.0502 -0.0125
72074W        W15090   6.927  30.181  18.898  0.1322  0.1841  0.0113
72075W        W15091  10.739  22.034  27.039  0.0201 -0.1543  0.2598
72076W        W15092  30.991  13.060  26.693 -0.0331  0.0918 -0.0325
72077W        W15093  34.512   5.823   4.940 -0.4132  0.2187  0.0506
72078W        W15094  12.748   8.807   7.828  0.1550 -0.0966 -0.0393
72079W        W15095   7.480  25.896   2.400  0.1901  0.3477 -0.0821
72080W        W15096  29.217  22.579  22.586 -0.2022  0.1292 -0.1910
72081W        W15097   6.982  11.430   1.730  0.0621 -0.0185 -0.0351
72082W        W15098  10.363  26.650   1.372 -0.2209 -0.2403  0.2099
72083W        W15099  20.921   4.752   0.228  0.0389 -0.0127 -0.1092
72084W        W15100   5.880  16.107   8.333 -0.3244 -0.0936  0.0173
72085W        W15101  22.587  10.386  25.092 -0.0459 -0.2541  0.2385
72086W        W15102  22.322   3.267   7.077  0.3413 -0.1478  0.1140
72087W        W15103   8.312   8.682   4.125 -0.1340  0.2681  0.4732
72088W        W15104   4.985  24.926   3.466 -0.1476 -0.2863 -0.0879
72089W        W15105  13.097  24.188   2.351 -0.1799  0.0212  0.0697
72090W        W15106   4.355   6.732  23.825  0.1021 -0.1282 -0.1735
72091W        W15107   3.016  26.791   9.051  0.1850  0.0608 -0.1106
72092W        W15108  14.148  15.409  14.760  0.3153  0.2438  0.2956
72093W        W15109   3.757  20.961   1.614 -0.2248  0.0661  0.0758
72094W        W15110   9.222  30.789   2.953 -0.0742 -0.0713 -0.0071
72095W        W15111  33.762  25.494   0.626 -0.0952  0.1666 -0.0405
72096W        W15112  18.166  23.727   5.324 -0.0068  0.2417 -0.0033
72097W        W15113   0.502   7.399  17.391 -0.4067 -0.0292 -0.2330
72098W        W15114   3.865   8.047   9.863  0.0294  0.1968  0.0566
72099W        W15115  31.803  28.839  23.844  0.0191 -0.1676  0.0420
72100W        W15116   1.520  17.207  27.132 -0.0255 -0.4439 -0.1697
72101W        W15117  26.948  18.620   7.567  0.0923  0.1296 -0.4045
72102W        W15118  11.574  14.872   8.039 -0.0425 -0.0013  0.1764
72103W        W15119  28.382  12.215   9.153 -0.3505 -0.1476 -0.1025
72104W        W15120   8.876  31.529  28.915 -0.0758  0.2479 -0.2529
72105W        W15121   1.878  25.052  24.510 -0.2820 -0.1405 -0.2184
72106W        W15122   3.740  28.689   1.225 -0.0624 -0.1090 -0.0099
72107W        W15123  33.681  22.935   5.499  0.3866 -0.0595  0.1384
72108W        W15124   7.330  13.393   7.402  0.0057  0.4134  0.2953
72109W        W15125   9.043  26.300  19.372 -0.1480  0.1320  0.0528
72110W        W15126   9.551  22.979   5.867 -0.0380  0.3757  0.0797
72111W        W15127  17.885  16.802  23.433 -0.0145 -0.3671 -0.2008
72112W        W15128  27.537  15.110   4.973 -0.2221 -0.0180 -0.2186
72113W        W15129  16.497  22.139  18.354  0.1417 -0.2538 -0.1002
72114W        W15130  33.782  21.495  28.592 -0.0252  0.0327  0.1533
72115W        W15131  33.858  21.483   7.056  0.1365  0.0941 -0.0006
72116W        W15132  12.577  29.642   1.180 -0.0227 -0.2759 -0.0485
72117W        W15133   0.092  32.894  16.307  0.0157 -0.2253  0.0245
72118W        W15134   2.287  18.619   4.577  0.1451 -0.2449 -0.0979
72119W        W15135   2.658   4.719   6.081  0.1492  0.1312 -0.4390
72120W        W15136  15.702  15.872  25.262 -0.3850  0.1710  0.3361
72121W        W15137   2.533  17.479   8.925  0.1047  0.0683 -0.3445
72122W        W15138  30.700  23.034   2.833  0.1980  0.2695 -0.3387
72123W        W15139  19.379   4.996  19.305 -0.2132 -0.0492  0.0487
72124W        W15140  17.582  14.531  27.877 -0.1405 -0.0282  0.0459
72125W        W15141  31.376  25.957  11.220  0.3463 -0.0041 -0.1385
72126W        W15142  13.405  10.738   4.991 -0.2596 -0.0362 -0.3711
72127W        W15143   6.211  28.440   2.058  0.0143 -0.0277  0.1433
72128W        W15144  13.493   1.906   4.248  0.0830  0.0110  0.0879
72129W        W15145  19.496  16.026  14.974  0.1484 -0.1990  0.1505
72130W        W15146   8.499  18.115   7.336  0.3191 -0.0154  0.0825
72131W        W15147   0.345  20.597  27.523 -0.0170  0.0890  0.1287
72132W        W15148  20.943   1.448   3.710 -0.0337 -0.0464 -0.2308
72133W        W15149  19.177  23.967   4.386  0.2278  0.1758 -0.1617
72134W        W15150  14.231  14.136   6.632 -0.1450 -0.0237 -0.0860
72135W        W15151  23.614  30.363  20.611 -0.0610  0.1810  0.0453
72136W        W15152  17.768  20.215  24.077  0.1633 -0.4191 -0.2825
72137W        W15153  28.576  34.069   7.775 -0.2722 -0.0474 -0.0286
72138W        W15154  11.478   4.471   5.938 -0.0711 -0.1490  0.0572
72139W        W15155  28.857  32.996   6.274 -0.1796  0.0395 -0.4286
72140W        W15156   6.606  23.129  14.553 -0.1830 -0.1990  0.0545
72141W        W15157   3.409  28.462  21.528  0.1595 -0.1700 -0.1470
72142W        W15158   7.763  29.279  14.299  0.1206  0.1382  0.1640
72143W        W15159  15.737  20.302   4.318  0.1564 -0.1686 -0.0184
72144W        W15160  12.027  17.575   5.419  0.3267 -0.2308 -0.0801
72145W        W15161  29.409  16.829  22.664  0.0069 -0.0368 -0.0263
72146W        W15162  21.273  16.334   0.636  0.0137  0.3435 -0.1452
72147W        W15163  27.147  19.164  17.264  0.1302  0.3441 -0.1559
72148W        W15164   3.676  12.608   4.710 -0.4435 -0.1340 -0.2125
72149W        W15165   0.609   4.513   6.664  0.2994 -0.4398  0.0121
72150W        W15166   9.458  15.257  16.451  0.2016 -0.0385  0.1963
72151W        W15167  34.333   3.406  27.947 -0.0273 -0.0519 -0.0436
72152W        W15168   3.158   9.930  10.695  0.3578 -0.0213  0.3177
72153W        W15169   2.369  22.462   3.975 -0.0231 -0.0422 -0.0550
72154W        W15170  20.226  25.473  14.688  0.1654  0.0648  0.0513
72155W        W15171  15.280   9.703   0.139 -0.1855 -0.1489 -0.0060
72156W        W15172  18.066   1.203   5.686  0.0024  0.1685 -0.0673
72157W        W15173  17.836  18.847   3.456  0.0506 -0.0127 -0.1435
72158W        W15174   6.035  26.701   9.862  0.1179 -0.1342  0.0187
72159W        W15175  30.678   9.623   8.400 -0.2640  0.0673 -0.0956
72160W        W15176  26.476  19.721   5.633  0.0550 -0.1720 -0.0377
72161W        W15177   5.052  15.409  28.219 -0.0273 -0.2727  0.0858
72162W        W15178   6.211  31.719   2.039 -0.0593  0.1769 -0.1525
72163W        W15179  12.521  12.251  22.138  0.1665  0.0098  0.1744
72164W        W15180  14.265  26.274   6.154  0.0578  0.2042 -0.1508
72165W        W15181   3.852  24.988   6.764 -0.0170 -0.3474  0.0607
72166W        W15182  12.582  29.441   7.678  0.4164 -0.0221  0.1124
72167W        W15183  12.223  15.613  22.736  0.2122  0.1316 -0.0397
72168W        W15184   7.316  21.138   2.661  0.1404 -0.0982  0.0847
72169W        W15185  33.584  29.863   7.204  0.2459  0.1202  0.3494
72170W        W15186  32.405  13.191  19.854  0.0378  0.1615 -0.4505
72171W        W15187   9.083   7.236   7.598 -0.3260 -0.2422  0.0853
72172W        W15188  25.449   0.439  18.999 -0.1789 -0.0060  0.1700
72173W        W15189   1.798  11.435   4.585 -0.0462 -0.0854  0.0131
72174W        W15190   8.095  21.668   2.924  0.0709  0.0306  0.0020
72175W        W15191  26.229  12.461   5.391  0.3034  0.0083 -0.2311
72176W        W15192   3.631  29.773   1.709 -0.0679  0.2420 -0.2249
72177W        W15193  26.746  19.216  26.910 -0.2206 -0.0385 -0.3243
72178W        W15194   4.675  14.702  15.358  0.0213 -0.1976 -0.0449
72179W        W15195  16.731  29.245   6.842 -0.1689 -0.0770  0.0496
72180W        W15196  12.356  12.738  21.340 -0.0069 -0.1063  0.0081
72181W        W15197  31.668  12.482   5.686 -0.1110 -0.2538 -0.1789
72182W        W15198   3.753  32.346   5.815 -0.0263  0.1003 -0.0116
72183W        W15199  14.008  28.779   6.825  0.1646  0.2244  0.2637
72184W        W15200   6.013  13.391   9.308 -0.0048  0.2023  0.2260
72185W        W15201   4.943  20.129   6.367 -0.0689 -0.0593 -0.3902
72186W        W15202   7.282  12.170   3.336 -0.0129 -0.1201 -0.1173
72187W        W15203   3.498  28.545   8.069 -0.0323 -0.2196  0.0070
72188W        W15204  33.164  29.556  24.062  0.0468 -0.1808  0.0794
72189W        W15205  10.115  10.422  25.871  0.0316  0.0886  0.0728
72190W        W15206  32.531  20.494   9.207  0.2703  0.0917  0.1965
72191W        W15207  19.668  23.682   5.659  0.0186 -0.2100  0.2868
72192W        W15208   6.548   5.301  21.992  0.2022  0.0037 -0.2490
72193W        W15209  14.232   4.565   0.719  0.2870 -0.1342 -0.2532
72194W        W15210   6.273  12.503   1.272 -0.2738 -0.1826  0.1098
72195W        W15211   0.187  22.756  27.488 -0.1079  0.2213 -0.0880
72196W        W15212  32.055  31.329   6.831 -0.3573  0.2661 -0.5038
72197W        W15213   3.137  14.251  23.918 -0.2760 -0.1038 -0.0423
72198W        W15214   9.003  27.029   8.491 -0.1536  0.0988  0.0566
72199W        W15215  30.528   1.218   6.923  0.1522  0.2098 -0.1252
72200W        W15216  34.247  22.463   5.619 -0.0081  0.0941 -0.2145
72201W        W15217   6.637   6.774  21.085 -0.0981 -0.0973 -0.0047
72202W        W15218  16.716   8.160   5.673 -0.1300  0.4439  0.1947
72203W        W15219  12.782  20.187  22.764  0.0847 -0.1034 -0.0128
72204W        W15220   0.344  13.997   2.672 -0.1623  0.0262 -0.0887
72205W        W15221  17.532   9.282   3.944  0.2992  0.0153 -0.4460
72206W        W15222  28.100  16.562  17.198  0.1798  0.0217  0.3538
72207W        W15223  11.668  20.478   4.776  0.0006  0.0104 -0.2559
72208W        W15224   0.705  27.417  20.329 -0.0643  0.0102  0.2291
72209W        W15225  18.313   9.314   3.281 -0.1696  0.2295  0.1616
72210W        W15226  13.434  21.013   5.901 -0.1085  0.1217 -0.0849
72211W        W15227  33.360  24.988   7.350 -0.0619 -0.0757  0.1493
72212W        W15228  13.334  28.205  28.234  0.0507 -0.2100  0.2554
72213W        W15229  26.513  29.030  24.326  0.1074 -0.1132  0.0851
72214W        W15230  24.021  16.521  27.299 -0.0250  0.1639  0.1202
72215W        W15231  10.964  29.489   9.749  0.0899 -0.0165 -0.1460
72216W        W15232   1.230  21.220   7.478 -0.1307 -0.0913 -0.1293
72217W        W15233  11.663  10.061   4.743 -0.1049 -0.4066  0.0174
72218W        W15234   4.312  18.425   6.121  0.1436  0.1389  0.1092
72219W        W15235   9.031  21.268  14.767 -0.0243  0.4798  0.1040
72220W        W15236   4.301   7.263   9.452  0.1736 -0.1201  0.2761
72221W        W15237  28.829  24.378   2.417 -0.0703 -0.0285  0.1227
72222W        W15238   1.909  20.153   5.116  0.0176 -0.3843 -0.3761
72223W        W15239  25.104  24.172   8.112  0.0436 -0.1741 -0.0862
72224W        W15240  15.939  22.821  22.181 -0.0160 -0.3055 -0.0400
72225W        W15241  20.003  19.076   7.402  0.0982  0.0351 -0.0933
72226W        W15242  11.645   8.630   8.207 -0.0125  0.2096 -0.2844
72227W        W15243   5.836  11.140   1.113  0.0484 -0.2955  0.0706
72228W        W15244   7.434   8.605   7.334 -0.0455  0.4279  0.2477
72229W        W15245  19.846  25.982   7.084  0.1961 -0.2541  0.0050
72230W        W15246   5.281  29.634   2.992 -0.2145 -0.3553  0.0587
72231W        W15247  15.966  21.053  21.358 -0.0251 -0.1289 -0.0246
72232W        W15248  28.347  14.175   5.888  0.0702 -0.2468  0.1526
72233W        W15249  15.421  30.988  10.727  0.0021  0.1470  0.1869
72234W        W15250  20.697  30.088   5.698 -0.0278 -0.2117  0.1863
72235W        W15251  10.445  26.724   6.519  0.2406 -0.0854 -0.0410
72236W        W15252  14.014  10.109  22.745  0.0353 -0.2654 -0.4392
72237W        W15253   3.545   7.814  23.385 -0.2123 -0.2004 -0.0654
72238W        W15254   1.848   7.305   9.170 -0.0366  0.0608  0.1572
72239W        W15255  30.486  25.295  11.402 -0.1926  0.2874  0.1980
72240W        W15256   3.572  17.076   7.354 -0.2859  0.0467 -0.0778
72241W        W15257  15.250  17.744  25.003  0.0716 -0.0207 -0.0845
72242W        W15258  22.404  18.890   5.937 -0.2777  0.0861  0.3975
72243W        W15259  22.666   2.233   6.725  0.0575  0.1773 -0.2001
72244W        W15260   0.070  28.179   7.753  0.1614 -0.1443 -0.1720
72245W        W15261  10.014  11.873  29.105  0.0391  0.3059  0.2810
72246W        W15262   3.019  27.239  17.948  0.0768 -0.0433 -0.1281
72247W        W15263  12.948  12.437   6.366  0.1297  0.2204  0.1332
72248W        W15264   6.371  24.388  28.743 -0.3204  0.1672  0.1948
72249W        W15265   7.947   2.192   2.344 -0.2735  0.0215  0.0870
72250W        W15266   7.794  12.664   7.897 -0.0259 -0.2577  0.1529
72251W        W15267  11.759  22.069  13.685  0.0473 -0.0389  0.0635
72252W        W15268  32.614  17.236   5.485 -0.1064 -0.3594 -0.1904
72253W        W15269   0.029   6.564  10.336  0.1440 -0.1789 -0.0805
72254W        W15270  14.644  29.081   9.283 -0.2451 -0.2079  0.1302
72255W        W15271  33.142   9.812   6.598 -0.1745  0.2061 -0.0503
72256W        W15272   6.744  15.134   7.863  0.0549  0.2147 -0.0125
72257W        W15273   6.655  29.600   2.470 -0.1660 -0.1608  0.3589
72258W        W15274  20.566   9.405   2.576  0.2675  0.0094  0.2944
72259W        W15275  12.705   8.471  23.300  0.1249 -0.2841 -0.1395
72260W        W15276  24.718  17.443   8.403  0.3320  0.0402 -0.0802
72261W        W15277   3.901   7.824  10.259 -0.3930 -0.0716  0.0051
72262W        W15278   1.463  21.891  26.819 -0.0100  0.4247  0.2411
72263W        W15279  32.676  28.370  26.343 -0.1563 -0.3770  0.4035
72264W        W15280   8.513   7.034  19.880 -0.2307  0.0616  0.1316
72265W        W15281   2.162  12.737   1.107  0.1155  0.6007  0.3624
72266W        W15282   9.514  27.623  23.278  0.0403 -0.0555  0.1468
72267W        W15283  20.703  20.354   0.498  0.4379  0.1586  0.0225
72268W        W15284  27.963  13.348   8.481 -0.2388 -0.1768 -0.1648
72269W        W15285  32.119  12.323  28.647 -0.2092 -0.3828  0.1832
72270W        W15286  11.339  19.995   5.524 -0.0860 -0.0357 -0.2131
72271W        W15287  22.614   1.755   6.656 -0.0177  0.0096 -0.0765
72272W        W15288  32.777  26.864  21.462 -0.1595  0.4009  0.0861
72273W        W15289  27.580  10.274   5.659 -0.0286  0.0523 -0.0189
72274W        W15290   8.926  26.796   3.174 -0.3181  0.0635 -0.1732
72275W        W15291   0.992  34.774   1.964  0.0298  0.2931  0.1672
72276W        W15292  15.408  21.000   0.154  0.2147  0.0178  0.1017
72277W        W15293   9.596   2.069   8.412  0.0574 -0.0070  0.0202
72278W        W15294  33.132  21.812   6.487  0.0101 -0.1438  0.1516
72279W        W15295   3.633  18.141  27.435  0.0027 -0.1366 -0.0597
72280W        W15296   8.714  18.000  27.375  0.0629 -0.0090 -0.2293
72281W        W15297  33.029   3.265  20.553 -0.0988 -0.2140 -0.0995
72282W        W15298   2.767   7.860   4.155 -0.1856 -0.2218  0.2004
72283W        W15299  29.788  24.795   8.963  0.2581  0.1970  0.1998
72284W        W15300  10.352  14.720   8.932 -0.1572 -0.0228 -0.3932
72285W        W15301   9.403  31.690   2.385 -0.1089 -0.2410 -0.0145
72286W        W15302  14.870  14.269   2.887  0.1462 -0.1067 -0.2709
72287W        W15303   2.672  10.685  10.617  0.1238  0.0488  0.1508
72288W        W15304  25.869  25.030  23.468  0.1120  0.1486  0.2403
72289W        W15305  12.627  30.555   3.986 -0.2129  0.1823 -0.1877
72290W        W15306  15.853  11.523  13.238 -0.0089  0.0226 -0.2475
72291W        W15307  16.046  31.744  28.181 -0.1747 -0.2003 -0.0521
72292W        W15308  23.630  22.182   9.748 -0.1213  0.1227  0.1731
72293W        W15309   9.262  17.471  23.972  0.0551 -0.2092  0.0217
72294W        W15310  20.286   0.720   5.361  0.0484 -0.3845  0.2454
72295W        W15311  22.943  27.755   6.607  0.0246 -0.4229  0.2686
72296W        W15312   4.461  19.953   2.338 -0.4091 -0.0490 -0.3553
72297W        W15313  25.024  31.378   3.027 -0.2559 -0.1567 -0.0512
72298W        W15314  11.065  28.610   3.684  0.1922  0.0976 -0.1565
72299W        W15315   5.166  22.942   7.217 -0.3243  0.1141  0.0974
72300W        W15316  16.763  28.475   4.421  0.1526 -0.1259  0.1037
72301W        W15317  27.662  14.421   3.633 -0.3161  0.2736 -0.0667
72302W        W15318  34.539  18.247  19.734  0.1002  0.0431  0.1974
72303W        W15319   1.314  34.122  10.169  0.0081  0.1565  0.3481
72304W        W15320  22.474  25.595   9.915 -0.0634  0.2615 -0.1658
72305W        W15321   7.881  24.063  16.058  0.1026  0.1711  0.1439
72306W        W15322   8.449  19.943  24.608 -0.3136 -0.0683  0.0537
72307W        W15323   7.960  33.536  22.439 -0.1427  0.0478 -0.0289
72308W        W15324   8.943  26.852   5.352  0.1585  0.0472  0.3137
72309W        W15325  28.879   2.886  29.221 -0.0271 -0.1808 -0.1600
72310W        W15326  11.282  27.106  13.100  0.2869 -0.1194  0.0607
72311W        W15327   6.459  21.693   7.941 -0.4005 -0.1763  0.0845
72312W        W15328   0.375  16.913  23.027  0.1667  0.0414 -0.1500
72313W        W15329  29.380  25.453   5.813 -0.2803 -0.2585 -0.3724
72314W        W15330  19.201  15.573   8.656 -0.0865 -0.0792 -0.1335
72315W        W15331  12.863   5.182  23.811 -0.2058 -0.3708  0.3853
72316W        W15332  11.695  17.464   2.080 -0.1021 -0.2747 -0.0045
72317W        W15333   7.054  25.918   0.074  0.1184  0.1470 -0.0124
72318W        W15334   5.977  15.240   2.556 -0.1486  0.3730  0.3363
72319W        W15335   0.064  22.241  27.686 -0.2503 -0.0864  0.1627
72320W        W15336  21.565  15.482   0.323  0.1247 -0.2536 -0.0929
72321W        W15337  31.090  21.033   1.763 -0.1016  0.1615  0.0690
72322W        W15338  14.691  20.070  23.957  0.1224 -0.3113 -0.3347
72323W        W15339   4.097  20.206  25.382 -0.1570  0.1669  0.0769
72324W        W15340  11.866   2.150   8.418 -0.0146 -0.0393  0.1312
72325W        W15341   7.721  22.988  15.947 -0.0169 -0.1885 -0.1173
72326W        W15342  19.479  10.894   7.668 -0.0584 -0.1429 -0.0572
72327W        W15343  13.811  16.979   7.575  0.1168 -0.2075  0.2634
72328W        W15344  15.286  23.765  20.216 -0.1901 -0.0666 -0.2127
72329W        W15345   1.674  23.721  24.352  0.1593 -0.0637 -0.1396
72330W        W15346   1.659  22.947  19.939 -0.4224  0.2831  0.0670
72331W        W15347  32.137  12.055  18.925 -0.1015  0.3390 -0.0375
72332W        W15348   9.591   4.741   1.112  0.0230  0.1245  0.0437
72333W        W15349  33.951  28.678  28.507 -0.0496 -0.2239 -0.3337
72334W        W15350   3.638  26.862  21.552 -0.0885  0.1528 -0.0778
72335W        W15351  13.991  29.689  22.391  0.0646 -0.0144 -0.2228
72336W        W15352  32.597  31.377   4.854  0.0706 -0.4941 -0.0317
72337W        W15353   1.813  16.850   4.175  0.2942  0.0766 -0.1166
72338W        W15354  12.663  13.052   0.085 -0.1600 -0.2885  0.0523
72339W        W15355  26.675   4.391   6.102  0.1148  0.0503 -0.2034
72340W        W15356  13.845  27.431   2.849  0.0691 -0.0883 -0.4094
72341W        W15357  14.682  17.529   1.452 -0.1412  0.2255  0.0360
72342W        W15358   7.471  31.740   6.237  0.1886 -0.2366 -0.1617
72343W        W15359   8.841  33.461   6.103 -0.2090  0.1971 -0.0224
72344W        W15360   3.398  10.553   5.725 -0.0334 -0.3929 -0.1023
72345W        W15361  33.001  25.851  25.627  0.0351 -0.0265 -0.0772
72346W        W15362  11.875  31.714  25.438 -0.1574  0.0974 -0.0432
72347W        W15363  13.825  30.874   6.229 -0.0863  0.0276  0.3280
72348W        W15364  33.466  10.183  29.283  0.1394  0.0817 -0.1076
72349W        W15365  28.168  13.310   6.249  0.0085 -0.1503  0.1408
72350W        W15366  10.111  10.459  26.912  0.0232  0.0409  0.0854
72351W        W15367  13.164  28.486  27.185  0.0850 -0.1523  0.4393
72352W        W15368   2.019   5.719  29.051 -0.3697  0.0240 -0.2435
72353W        W15369  19.224  20.204   1.745  0.1541  0.0112  0.1080
72354W        W15370  31.733  17.291   4.382  0.1205 -0.1038 -0.2148
72355W        W15371  29.615  27.255   9.340 -0.0800 -0.0290 -0.1761
72356W        W15372  25.947   3.793   9.240  0.0310 -0.1673  0.1804
72357W        W15373  29.266  12.291   8.627  0.0020  0.0441  0.1577
72358W        W15374  19.142  12.376  29.179  0.2390  0.2080  0.2399
72359W        W15375  30.596  16.846  18.502  0.1544  0.0413 -0.2232
72360W        W15376  29.112  27.252  26.298  0.1955 -0.2106 -0.1899
72361W        W15377  19.402  32.675   6.113 -0.0910  0.0093  0.1510
72362W        W15378  12.575  33.818   8.340  0.2892 -0.0020  0.0568
72363W        W15379   9.967  27.567   2.850  0.0047 -0.3082  0.3972
72364W        W15380  33.930  13.529   3.534  0.1066  0.0782 -0.2541
72365W        W15381  21.894  23.878  19.653 -0.0356 -0.1258 -0.0015
72366W        W15382  11.548  20.942   1.511  0.3551  0.0603  0.3441
72367W        W15383  10.183  15.629   7.236 -0.1390 -0.2099  0.2902
72368W        W15384  28.200  25.638   1.178  0.3619 -0.1394  0.7764
72369W        W15385  12.421   1.050  29.061 -0.0260  0.1360 -0.1290
72370W        W15386  22.930  27.399   5.329 -0.1557 -0.2190  0.1884
72371W        W15387  10.146  19.242  28.986 -0.2475  0.0085 -0.1963
72372W        W15388   6.859  20.527   4.978 -0.1340 -0.2159  0.1288
72373W        W15389   9.760  31.527   8.971 -0.2214 -0.0791 -0.0538
72374W        W15390   6.973  17.421   6.919  0.0669  0.0487  0.3724
72375W        W15391   6.399  23.498   7.461 -0.0283  0.1002  0.3754
72376W        W15392   5.362  23.651  28.932  0.0234  0.0084  0.2507
72377W        W15393   8.387   7.704   4.644  0.1736 -0.2205  0.3706
72378W        W15394  31.329  20.337  25.424  0.2053 -0.1270  0.2141
72379W        W15395   0.075  14.114  22.363 -0.2657  0.1573 -0.2503
72380W        W15396   7.727  19.414  22.450 -0.0780  0.0506  0.2628
72381W        W15397  26.934  32.104   9.144  0.0952 -0.0817 -0.0118
72382W        W15398   5.860  28.741   0.795 -0.1364 -0.0522 -0.1159
72383W        W15399  34.604  19.134  19.740 -0.0165 -0.2088  0.0282
72384W        W15400  15.751  25.446   7.815 -0.0723  0.1762 -0.2315
72385W        W15401   3.652  23.121   1.955 -0.1463  0.1578 -0.1525
72386W        W15402  32.092  24.148   0.504  0.1046  0.3141 -0.0444
72387W        W15403  23.894  20.384  28.202 -0.2603  0.1031  0.2419
72388W        W15404   4.863  25.664   4.058 -0.2505 -0.0765  0.1877
72389W        W15405  33.244  26.047   0.345  0.1965  0.0987 -0.5852
72390W        W15406   0.637  13.133  24.817 -0.1282 -0.0227 -0.1647
72391W        W15407  34.014   8.482   6.898 -0.0542 -0.0835  0.4354
72392W        W15408  15.139   6.350   5.642  0.1130 -0.2028  0.0151
72393W        W15409  18.945  21.870   4.698  0.1048  0.0941  0.3293
72394W        W15410  19.760   5.834  25.360  0.0406 -0.0836 -0.0860
72395W        W15411  29.625  10.304   6.558  0.0212 -0.2980 -0.2271
72396W        W15412   6.174   7.237   3.684 -0.2680  0.4389  0.3460
72397W        W15413  16.494   9.452   3.542  0.1086 -0.0757  0.2351
72398W        W15414  32.264  26.528   1.415 -0.0236  0.1995 -0.0213
72399W        W15415  25.057  10.200  10.236 -0.0037  0.1988  0.2174
72400W        W15416   1.990  33.645   3.088 -0.0190  0.0324 -0.0213
72401W        W15417   1.996  16.051   2.005  0.0234  0.0880 -0.0875
72402W        W15418  14.994  27.854   2.205  0.0051  0.1861 -0.0756
72403W        W15419  32.499  15.150   6.493 -0.0257  0.2128  0.1417
72404W        W15420   1.157   8.405   8.559  0.1266 -0.1223 -0.2206
72405W        W15421  24.079  25.458  29.122  0.1224 -0.0746  0.0201
72406W        W15422  25.551  29.612   8.984  0.1975  0.0248  0.1945
72407W        W15423   4.913   9.019  25.459 -0.1125 -0.2083 -0.2000
72408W        W15424  12.765   9.866   5.046  0.0611 -0.0024 -0.0572
72409W        W15425   0.825  21.107   5.732 -0.0411  0.0388 -0.0035
72410W        W15426   2.353  18.324   1.575  0.1454 -0.0222  0.1060
72411W        W15427   2.007   9.580  26.980 -0.1060  0.2752 -0.1056
72412W        W15428   9.144  30.258  28.453 -0.0359  0.2402 -0.3257
72413W        W15429  13.268  10.040  24.453  0.0128  0.3556  0.0442
72414W        W15430  13.953   2.741   9.321  0.1487 -0.2560  0.1821
72415W        W15431  32.282  10.899  27.350  0.1709 -0.0804 -0.1376
72416W        W15432   8.503  19.584   3.801  0.3182  0.1280 -0.0230
72417W        W15433  34.600  19.533  28.299  0.2858 -0.1898 -0.2659
72418W        W15434   6.290  34.394  29.029 -0.0738 -0.1434 -0.1815
72419W        W15435  22.567   1.971  16.556  0.0881  0.0404 -0.1899
72420W        W15436   9.969  21.608   2.813  0.2133  0.0887 -0.1371
72421W        W15437  32.347  18.059  10.317 -0.2363  0.2857  0.0769
72422W        W15438  22.519  27.097  26.777  0.1447  0.2261  0.0198
72423W        W15439  15.429  26.152   6.064 -0.2100 -0.1170 -0.2431
72424W        W15440   8.095  17.395   5.230  0.3810 -0.1891  0.0894
72425W        W15441   1.496  30.020   5.987 -0.1159 -0.0449 -0.0176
72426W        W15442  16.358   6.772   7.445  0.1728 -0.2050  0.1850
72427W        W15443  19.535  25.273   5.212 -0.3566  0.1618  0.0159
72428W        W15444  25.987  10.426  10.507  0.2941 -0.3616 -0.0714
72429W        W15445   3.589  27.947   9.475  0.0723  0.1795 -0.1050
72430W        W15446   2.776  16.380   3.943  0.0195 -0.2449 -0.1259
72431W        W15447  10.423  19.081   7.219  0.1172 -0.2510 -0.0497
72432W        W15448  32.937  18.868   9.583  0.0640 -0.0104 -0.1272
72433W        W15449   9.436  13.946   7.410  0.0550  0.1028 -0.1165
72434W        W15450  14.659  22.668  22.865  0.1984 -0.0752  0.2495
72435W        W15451   5.945  24.377  18.886 -0.0580  0.2199  0.1133
72436W        W15452   4.573  10.859   3.169  0.1302  0.4421  0.2909
72437W        W15453   1.308  10.897   0.609 -0.1540 -0.0860  0.1142
72438W        W15454  10.492  33.529   9.497 -0.1966  0.1271  0.0982
72439W        W15455  11.150   8.183   0.832  0.0734  0.0177  0.3942
72440W        W15456  20.398  30.974   8.538 -0.0653  0.1415 -0.0664
72441W        W15457   3.485  13.813   8.388  0.1424  0.0037  0.2241
72442W        W15458   7.921  33.657   0.409  0.1696  0.0779 -0.0240
72443W        W15459  11.909  23.755   0.248  0.0190  0.0061 -0.0366
72444W        W15460   7.559  22.577   8.824 -0.0941  0.2871 -0.1046
72445W        W15461   5.621  22.218  26.155 -0.1125 -0.0360 -0.0148
72446W        W15462   8.778  21.308   4.262 -0.1545 -0.0629  0.2373
72447W        W15463   1.623  21.367   7.723  0.2092 -0.1128 -0.0843
72448W        W15464  16.820  17.359  29.013  0.1223  0.0906  0.1230
72449W        W15465  34.458  12.287   4.581 -0.1033 -0.3228 -0.0483
72450W        W15466  25.459  25.971   6.882 -0.0353  0.1968  0.0356
72451W        W15467   5.963   0.914   3.814  0.2114 -0.4015 -0.0643
72452W        W15468   5.621  29.614   7.953  0.0092 -0.0688 -0.2108
72453W        W15469  15.416  34.388   6.474 -0.1595  0.2343  0.2792
72454W        W15470  27.197   9.009   4.802  0.0194 -0.2438 -0.0829
72455W        W15471  13.470  25.130   2.410 -0.2804  0.1338  0.1677
72456W        W15472  26.924  23.426  27.769  0.1630 -0.1199 -0.3982
72457W        W15473  14.124  20.035  25.460 -0.1708  0.0858  0.1716
72458W        W15474   4.289  27.658  28.506  0.1887  0.1326  0.0348
72459W        W15475  16.680   6.643   6.484 -0.2042 -0.0145  0.1113
72460W        W15476   8.717   3.513   2.063  0.2329 -0.3015  0.1521
72461W        W15477   3.758  24.298  27.283  0.1269  0.0859  0.1307
72462W        W15478  31.225  17.139   9.468  0.0009 -0.0247 -0.0822
72463W        W15479  33.321  25.249  29.272 -0.0280 -0.0557  0.0506
72464W        W15480  29.968   9.103   1.557 -0.3591  0.0672  0.2162
72465W        W15481  19.275   0.981   9.844 -0.0167 -0.0071  0.0470
72466W        W15482  30.469  23.913   5.515  0.4232 -0.0694 -0.2299
72467W        W15483  12.490  11.507  21.347  0.3131  0.0293  0.1779
72468W        W15484   1.899   9.391   6.186 -0.0394 -0.3325 -0.2479
72469W        W15485  17.242  21.231   2.038  0.2298  0.2292  0.2352
72470W        W15486   7.805   5.554   5.496 -0.2763  0.0755 -0.0222
72471W        W15487   0.888  12.672   9.228 -0.0103 -0.0750 -0.2702
72472W        W15488  10.029   5.861  23.755  0.0179 -0.2375 -0.3228
72473W        W15489   6.053  26.150   5.560 -0.2686 -0.2250 -0.0074
72474W        W15490   4.274   7.452  23.815 -0.0248 -0.1878  0.1717
72475W        W15491   2.082  28.513   5.361 -0.0754  0.1338 -0.1656
72476W        W15492  11.983  20.050   2.396 -0.1904 -0.1143  0.2165
72477W        W15493  18.681  31.672   5.793 -0.2648  0.1356  0.0292
72478W        W15494  23.097  14.996  19.579 -0.2166  0.0922 -0.1004
72479W        W15495  11.540  18.579   5.588  0.1149 -0.0591  0.0053
72480W        W15496  32.679  19.421   8.413 -0.3049  0.2935  0.1856
72481W        W15497  21.536  29.458   3.773  0.0148 -0.1808 -0.2445
72482W        W15498  12.350  20.399  27.890 -0.1091 -0.1523 -0.1458
72483W        W15499  28.372  11.679  10.157 -0.1736 -0.2883 -0.0225
72484W        W15500  11.614  23.950  24.905  0.0468 -0.3263  0.2075
72485W        W15501  27.886  12.698   5.051 -0.2562 -0.1376  0.0688
72486W        W15502  14.235  14.346   1.039 -0.0282 -0.0597  0.0852
72487W        W15503   8.840  29.853   8.730  0.2413 -0.2241 -0.2435
72488W        W15504   1.433  26.603  22.670  0.2469 -0.2225  0.2997
72489W        W15505   3.265   4.389   7.674  0.0299 -0.3082  0.0432
72490W        W15506  24.672  10.096  10.508 -0.2533 -0.4491 -0.1451
72491W        W15507  28.637  30.865  10.139 -0.1446 -0.4847  0.0880
72492W        W15508  10.831  31.711   9.525 -0.1187 -0.0457 -0.2165
72493W        W15509   7.172  14.344   8.656 -0.0899 -0.1696  0.1300
72494W        W15510  16.103  21.459   7.563 -0.0313  0.1402  0.0052
72495W        W15511  33.735  18.496  10.843  0.1623  0.0555 -0.2349
72496W        W15512   9.311  16.065  28.589  0.0100 -0.1843  0.1259
72497W        W15513  33.753  14.123   7.797  0.1519  0.0558  0.1190
72498W        W15514   7.667  25.139  26.235  0.4858 -0.0541 -0.0261
72499W        W15515  10.583  13.913  26.492  0.0173 -0.1160 -0.0084
72500W        W15516  30.470  24.678   9.648 -0.1374  0.1042  0.0021
72501W        W15517  32.107  22.162   7.508  0.0316  0.3742  0.4694
72502W        W15518   0.327  30.585  26.640  0.1376 -0.3732  0.0070
72503W        W15519  18.517  13.512  20.143  0.1265 -0.0143  0.1110
72504W        W15520   2.291  12.902  21.351 -0.0369  0.2321 -0.0342
72505W        W15521  19.799   5.737   1.383  0.1219 -0.0360  0.1023
72506W        W15522  13.223   1.923  10.041  0.0334 -0.1190  0.3059
72507W        W15523  13.251   7.999  29.091 -0.1888 -0.0561 -0.4625
72508W        W15524   5.047  30.867  24.095  0.1015 -0.0682 -0.1330
72509W        W15525  32.114  31.525   2.726  0.1251 -0.1807  0.1035
72510W        W15526  10.152  22.525  28.791 -0.4336 -0.0207  0.2849
72511W        W15527  31.457  17.969   5.894 -0.1701  0.4560  0.1073
72512W        W15528   2.168  21.673   4.972  0.3823 -0.1729  0.1711
72513W        W15529  23.962   8.226   7.023 -0.3264 -0.0507  0.1222
72514W        W15530  14.000  24.818   1.558 -0.1635 -0.0991  0.1744
72515W        W15531  16.504  21.429  25.276  0.1365 -0.1877 -0.2864
72516W        W15532   2.516   6.921  25.704  0.1263  0.0525 -0.1854
72517W        W15533  13.180   6.785   7.723 -0.0492 -0.1726 -0.2962
72518W        W15534  17.483  20.498  21.285  0.2571  0.0054 -0.1718
72519W        W15535  21.756  18.641  25.188  0.2774  0.1823 -0.0206
72520W        W15536  27.382  25.323  23.659 -0.1010  0.7534  0.0246
72521W        W15537  19.099  19.335  23.823 -0.0647 -0.1417  0.2501
72522W        W15538   1.035   9.071   1.663  0.1562 -0.1913 -0.1054
72523W        W15539   3.747  20.893  21.665  0.0643 -0.0893 -0.0097
72524W        W15540  24.749  29.635  28.701  0.0280  0.1490 -0.2958
72525W        W15541   1.547  20.585   5.381  0.0496 -0.2514  0.2414
72526W        W15542  13.764  11.608   4.445 -0.0308 -0.0126 -0.0197
72527W        W15543  14.369  16.893  23.785  0.1871  0.0382  0.0678
72528W        W15544  24.341  21.981  14.740  0.2842  0.0235 -0.0281
72529W        W15545   1.889  12.768   5.863  0.0609 -0.0495 -0.0719
72530W        W15546   1.257  29.541  25.421  0.0498 -0.2086  0.2757
72531W        W15547  24.325  29.765  10.024  0.3706 -0.1257 -0.0017
72532W        W15548  18.743  25.935   2.808  0.1073  0.3158 -0.0225
72533W        W15549  10.644   8.539   4.569 -0.0006 -0.0269 -0.1663
72534W        W15550  16.140  16.229  25.487  0.0643  0.2987 -0.0337
72535W        W15551   2.120  22.056  28.831 -0.0309 -0.0449 -0.0627
72536W        W15552   2.487  21.002  28.148  0.1647  0.0149  0.0711
72537W        W15553  10.693  25.261   1.470  0.1252 -0.0572  0.2768
72538W        W15554   2.861  24.414   9.161 -0.1758 -0.1282 -0.0792
72539W        W15555  11.121  12.266   4.270 -0.0238 -0.0568 -0.3349
72540W        W15556  11.385  21.372  16.839 -0.1643 -0.0830 -0.0252
72541W        W15557   1.709  23.848   1.494 -0.0381 -0.0364  0.1635
72542W        W15558   6.546  26.110   5.195 -0.1828  0.3081  0.1847
72543W        W15559   9.938  25.186   1.825  0.1711 -0.4960 -0.1321
72544W        W15560  17.334   6.928   7.408  0.0841 -0.3622 -0.2799
72545W        W15561  33.180  17.092   7.522  0.0610 -0.0149 -0.1352
72546W        W15562  17.862  10.905   4.464 -0.0010 -0.1760 -0.0833
72547W        W15563   7.274   8.065  28.979 -0.2482 -0.0718 -0.2906
72548W        W15564  25.598  28.448  10.778 -0.0934  0.2288  0.0275
72549W        W15565  21.907  29.173   6.372  0.4492 -0.1773  0.0427
72550W        W15566  17.990  17.558   3.436 -0.0373  0.1569  0.1329
72551W        W15567   0.187   6.815   8.807  0.2475  0.2338 -0.1056
72552W        W15568   7.388  18.760   8.261  0.1027  0.0775 -0.1092
72553W        W15569  17.743   9.422   6.490  0.0538  0.1809  0.1454
72554W        W15570   3.610  11.979   4.090  0.0253  0.0247 -0.2691
72555W        W15571  24.420   2.832   3.100 -0.1067  0.0360  0.1531
72556W        W15572  24.959  24.133   7.542 -0.2222 -0.1698 -0.2541
72557W        W15573  29.298  25.426   5.059 -0.1443 -0.0477  0.0976
72558W        W15574   9.371  19.394   8.252 -0.1935  0.0670 -0.1839
72559W        W15575  31.703  12.719   3.196 -0.0452 -0.0170 -0.0952
72560W        W15576  26.643   6.252   2.623  0.1791 -0.0091  0.0784
72561W        W15577  27.120  25.876   7.985 -0.0118  0.1004 -0.0421
72562W        W15578  28.584  16.831   7.932  0.0113 -0.0856 -0.3221
72563W        W15579  14.190  21.653   5.542 -0.0683 -0.0675 -0.1436
72564W        W15580   5.747   1.606  25.847  0.0301  0.1179  0.0363
72565W        W15581  23.936   8.262   6.381  0.2389 -0.2444 -0.1746
72566W        W15582   0.868  16.828   3.936 -0.2724 -0.0856 -0.2122
72567W        W15583  22.899   7.681  24.908  0.0796 -0.1165  0.2577
72568W        W15584  31.031  22.067   8.313 -0.1849 -0.0177 -0.0735
72569W        W15585  28.795  21.205   6.481  0.0966 -0.1039  0.0021
72570W        W15586  16.141  21.791   4.406  0.2613  0.1797 -0.1709
72571W        W15587  15.229  24.271  20.251 -0.1274  0.4948 -0.1089
72572W        W15588   8.649  32.156   0.119  0.2206  0.1818 -0.0814
72573W        W15589  24.216  18.636  18.829 -0.1019  0.1427 -0.1082
72574W        W15590  28.980   0.257   8.945  0.3111  0.1193  0.0476
72575W        W15591   3.493  33.876  26.453 -0.1200  0.2341  0.0226
72576W        W15592  20.237  26.409   9.790 -0.0867 -0.2430  0.1298
72577W        W15593   7.958  20.481   1.906  0.0092 -0.0692  0.2645
72578W        W15594  11.431  24.416  22.142  0.0362  0.1191  0.1522
72579W        W15595  19.269  20.001  23.208  0.2096  0.1292  0.2120
72580W        W15596  12.251  11.132   5.456  0.2229  0.1149  0.0038
72581W        W15597  10.937  24.009  20.168  0.0174  0.0612  0.2211
72582W        W15598  26.244  28.502   5.791  0.0066  0.0139 -0.0829
72583W        W15599   4.170  19.984  22.560 -0.0320  0.1565 -0.0583
72584W        W15600  34.767  32.585  27.617  0.1084  0.0227 -0.0713
72585W        W15601  14.069  28.347   7.627 -0.0446 -0.1225 -0.4207
72586W        W15602   4.698  24.172  28.735  0.2460  0.0888 -0.0652
72587W        W15603   8.567  21.014   8.889 -0.0834  0.0661  0.1939
72588W        W15604   9.415  17.794   5.899 -0.1251 -0.2006 -0.1169
72589W        W15605   5.535  20.762   1.726 -0.0007 -0.4377 -0.0356
72590W        W15606  24.450  22.797   9.923 -0.2209 -0.3700 -0.0770
72591W        W15607   6.905  24.228   8.712  0.1975  0.2983  0.0053
72592W        W15608  14.086  12.567   6.829  0.0861  0.1180  0.1893
72593W        W15609  28.934  30.646   7.990  0.0689 -0.0818  0.2410
72594W        W15610   0.167  10.981   2.501  0.3477  0.1620  0.3023
72595W        W15611  20.659  20.129   7.595  0.3105  0.2308 -0.1664
72596W        W15612  28.621   6.813   4.144  0.2422  0.0882  0.0766
72597W        W15613  26.285  20.956   1.906  0.0986  0.0948 -0.0407
72598W        W15614  12.968   4.531   1.280  0.1631 -0.0528 -0.0050
72599W        W15615   8.711  32.749   3.635  0.0044  0.2340  0.1167
72600W        W15616  11.688  29.607   4.418 -0.1335  0.1322 -0.0405
72601W        W15617  33.514   0.717  24.960 -0.1062 -0.4358 -0.1995
72602W        W15618   3.118  19.963  22.529 -0.0117 -0.0910 -0.3982
72603W        W15619   2.598  21.566   1.991  0.0416 -0.0282  0.0463
72604W        W15620   7.399  27.194   0.812  0.0055  0.0683 -0.0207
72605W        W15621  33.718   9.674   3.752 -0.0551 -0.1492 -0.0810
72606W        W15622  15.010  18.838   0.930 -0.1906  0.0714 -0.2766
72607W        W15623   7.950   5.913   1.259 -0.2329  0.0646 -0.1509
72608W        W15624   2.707  30.827  10.359 -0.1058 -0.2144  0.0487
72609W        W15625   9.032   3.749   8.425 -0.0053  0.0554 -0.0041
72610W        W15626  27.827  17.183   2.660 -0.2688  0.1384  0.1319
72611W        W15627   9.546  23.477  25.984  0.1728 -0.1257  0.0630
72612W        W15628  29.955   1.963  26.557  0.3174 -0.4374  0.1874
72613W        W15629   7.918   5.265   9.695  0.5631 -0.0365  0.0082
72614W        W15630   0.917  32.379  22.901  0.2165 -0.2030  0.2013
72615W        W15631   6.268  26.002   4.692 -0.4815  0.2799 -0.0647
72616W        W15632   8.978  14.129   9.301 -0.1285  0.3232 -0.0913
72617W        W15633  12.991  18.766   1.804  0.0927  0.0232 -0.2767
72618W        W15634  14.864  18.850  13.844  0.0772  0.0962 -0.1621
72619W        W15635   3.607  25.161  26.867 -0.2534  0.4325 -0.2605
72620W        W15636   0.203  23.915   9.831 -0.0869  0.0886  0.3827
72621W        W15637  12.911  15.170   5.896  0.0474 -0.3370  0.0555
72622W        W15638   0.486  25.459  22.247 -0.3011 -0.0483 -0.1790
72623W        W15639   1.638  27.355   8.894  0.3256 -0.0485  0.1910
72624W        W15640   1.316  11.756  22.065  0.0598 -0.2427 -0.0648
72625W        W15641  34.039  20.463  10.104  0.1318 -0.0716 -0.0949
72626W        W15642   3.610  11.037  26.477  0.2194  0.1027  0.0110
72627W        W15643  29.461  32.124   9.170 -0.3147 -0.2448 -0.1881
72628W        W15644   1.722   5.657   4.347  0.1894 -0.4990  0.1337
72629W        W15645  32.843  29.267  26.406  0.5046  0.0179 -0.2792
72630W        W15646   9.286  18.640  26.573 -0.2086 -0.2377  0.1036
72631W        W15647   1.160  27.671   7.568  0.2686  0.1083  0.2261
72632W        W15648  26.685  29.259  22.344  0.0876  0.4358  0.1365
72633W        W15649   5.327  24.355   9.103 -0.0587  0.0896 -0.2767
72634W        W15650   2.775  15.260   7.459  0.1526  0.2222 -0.2939
72635W        W15651  23.456  14.559   3.307 -0.1502 -0.2677  0.4563
72636W        W15652   6.202  18.609   7.274  0.4204 -0.2098 -0.0548
72637W        W15653  11.403  25.643   8.093 -0.0028  0.3032 -0.2315
72638W        W15654   6.393   4.611   1.200  0.1552 -0.2433  0.0467
72639W        W15655   2.975  28.343   6.815 -0.2208 -0.1157 -0.2050
72640W        W15656  28.840   7.114  11.670 -0.1860 -0.2009  0.2064
72641W        W15657  16.321  14.675  29.244  0.3290 -0.0919  0.0860
72642W        W15658  17.023  16.621   7.430  0.1634 -0.0408 -0.1917
72643W        W15659   4.489  13.252  28.992 -0.2356 -0.2202 -0.1029
72644W        W15660   5.880  34.764   9.669 -0.2116  0.1108 -0.3225
72645W        W15661   9.313  29.320   7.071  0.1458 -0.1500  0.0616
72646W        W15662  18.426  13.639   3.474 -0.3008 -0.1888  0.0367
72647W        W15663  10.714  23.336   7.051  0.0954 -0.1189 -0.4191
72648W        W15664   7.479  13.309   9.037  0.0842  0.0875 -0.2127
72649W        W15665  29.786  34.730  29.102  0.0505  0.2518  0.0929
72650W        W15666  32.915  14.269   3.277  0.5175  0.0235  0.1558
72651W        W15667  13.519  26.661   8.086  0.0580  0.0592  0.1358
72652W        W15668  32.324  14.076  15.068 -0.1703  0.1439 -0.2421
72653W        W15669   3.835  15.399   7.756 -0.1494 -0.1224  0.2235
72654W        W15670  11.111  32.699   5.901  0.1221 -0.1333 -0.0219
72655W        W15671   8.379  31.438  25.529  0.3431 -0.0036 -0.0544
72656W        W15672  16.300  12.043  28.408 -0.0337  0.0464  0.0604
72657W        W15673  32.868  16.789   7.185  0.0015  0.0660 -0.1131
72658W        W15674  31.611   2.379  28.660  0.2418  0.2955 -0.1270
72659W        W15675  26.389   3.650  10.666  0.2295  0.2818  0.0262
72660W        W15676   1.178  16.502  10.693 -0.1110  0.0388 -0.1659
72661W        W15677  34.595  18.091  10.630  0.0025  0.2671  0.0359
72662W        W15678   5.847   8.107   3.588 -0.2301 -0.0994  0.1192
72663W        W15679   2.977  10.487   9.856 -0.1455 -0.0927  0.3763
72664W        W15680  31.871  24.258   2.325 -0.3322 -0.0552 -0.0698
72665W        W15681  15.335  12.395   6.288 -0.3028 -0.0908  0.1240
72666W        W15682  10.369  20.109  24.196 -0.0719 -0.1478 -0.2137
72667W        W15683   3.278  33.117   7.915  0.2393 -0.1409  0.2485
72668W        W15684  14.053  25.323   8.846 -0.2763 -0.1384  0.0869
72669W        W15685  22.663  22.677   1.103 -0.1390 -0.2682  0.1334
72670W        W15686  23.203  12.330   6.410  0.2077 -0.0540  0.2838
72671W        W15687  30.125  12.736   9.871  0.0476  0.3475  0.2539
72672W        W15688   6.794  30.821  28.048 -0.3261 -0.0326 -0.1845
72673W        W15689  11.617  25.726   5.054  0.1278  0.0635  0.2068
72674W        W15690  10.446  27.752   1.601 -0.0942  0.1229 -0.3054
72675W        W15691  21.955  26.851   8.888 -0.1264 -0.4031 -0.1354
72676W        W15692  33.933  24.941  25.742 -0.0180  0.3545 -0.1465
72677W        W15693   5.274  14.852   6.518  0.1548 -0.2051  0.1689
72678W        W15694   8.566   8.199   8.345 -0.0408  0.1074  0.2740
72679W        W15695   4.059   7.830  27.412  0.1794 -0.2774 -0.3058
72680W        W15696  12.766  18.067   6.493  0.4204  0.0527  0.0115
72681W        W15697  23.226  24.531   0.680 -0.0120  0.1006  0.3497
72682W        W15698  12.576  20.725   3.960 -0.0335  0.3049  0.3898
72683W        W15699  32.273  12.533   4.582 -0.0216  0.0772  0.1389
72684W        W15700  21.391  14.056  26.776  0.0749  0.2227 -0.0386
72685W        W15701   1.202  21.194  26.063  0.2715  0.3785  0.2302
72686W        W15702  32.584   2.857   9.595 -0.1535  0.1116 -0.0723
72687W        W15703   1.833  11.122   7.968  0.0641  0.2585  0.0324
72688W        W15704  16.558  25.841  26.077 -0.0030  0.1167 -0.0169
72689W        W15705   1.640  28.586  26.034 -0.1144 -0.2128  0.4440
72690W        W15706   5.225  33.670   7.839  0.0886 -0.0761  0.0198
72691W        W15707  31.512  28.117   3.642 -0.0013  0.0629 -0.0006
72692W        W15708   9.892  21.549  24.454  0.0344  0.1769  0.0242
72693W        W15709  10.653  20.042   6.268  0.0008  0.2739 -0.1790
72694W        W15710  27.088  14.968  26.086 -0.0118 -0.1266 -0.1005
72695W        W15711  34.571  30.968   3.100  0.0944  0.4149  0.1212
72696W        W15712  15.047   7.199  28.182 -0.0654 -0.0697  0.2486
72697W        W15713   2.417   7.786  26.570 -0.2570  0.0991 -0.1214
72698W        W15714  24.820  11.437  10.578 -0.0882 -0.1082  0.0344
72699W        W15715  34.687  26.992   7.575 -0.0018 -0.4159  0.2193
72700W        W15716   6.768  25.144   6.961  0.0718  0.3982 -0.1616
72701W        W15717   6.987   2.398   5.214 -0.0498  0.1736  0.3012
72702W        W15718  31.702  22.525  22.024 -0.1729 -0.1067 -0.0861
72703W        W15719   0.831  27.697   7.949  0.0603 -0.0896  0.0888
72704W        W15720   9.144  33.269   7.148 -0.3317 -0.2168  0.2892
72705W        W15721   3.128  13.587  21.500  0.0592  0.1796  0.3419
72706W        W15722  22.671  22.845   8.219  0.2474 -0.3977 -0.1216
72707W        W15723  32.246   7.561   1.327 -0.0324 -0.0281  0.0334
72708W        W15724   5.670  30.636   9.032 -0.2274  0.0443  0.1517
72709W        W15725  27.952  22.376  20.285 -0.1147  0.1026  0.0203
72710W        W15726  32.457   9.604   2.643 -0.3920  0.2499 -0.0520
72711W        W15727   1.915  28.796  28.741  0.0077  0.0820  0.1080
72712W        W15728  33.507  21.336   3.276 -0.0934  0.2604 -0.1303
72713W        W15729  28.231  17.409   6.970 -0.2724  0.2965  0.2560
72714W        W15730   1.162   6.292   7.536 -0.1830 -0.0812  0.1574
72715W        W15731  10.182  16.728   2.531  0.2585 -0.0006 -0.1993
72716W        W15732  17.920  26.491   7.370  0.0982 -0.0186  0.1489
72717W        W15733   6.405   1.368  27.124  0.0173  0.0157 -0.2770
72718W        W15734   2.509   5.647   4.978 -0.0499 -0.3525 -0.1375
72719W        W15735   5.791  32.439   1.695  0.0939  0.1439 -0.2863
72720W        W15736   4.947  26.253  18.480  0.1950 -0.1832 -0.0916
72721W        W15737   4.777  21.364  28.852 -0.1291  0.1212 -0.1047
72722W        W15738  32.834  15.625   4.476  0.0277  0.1607 -0.0169
72723W        W15739  34.576  29.113   3.886 -0.0587 -0.0418  0.0535
72724W        W15740  27.418  21.139   6.794  0.1221 -0.2451  0.0866
72725W        W15741  21.600  34.559   2.106  0.0194 -0.0629  0.0178
72726W        W15742  32.055  14.586  15.113 -0.0373 -0.1223 -0.2787
72727W        W15743  31.310  34.662   9.289 -0.0928  0.4025  0.1165
72728W        W15744  16.026  16.020  24.881 -0.0652 -0.0483  0.0881
72729W        W15745   9.012  24.341   1.967  0.1567 -0.2327 -0.1836
72730W        W15746  11.864  26.890  28.575  0.0872 -0.2184 -0.1623
72731W        W15747  16.818  17.070  18.531 -0.2533  0.0059 -0.0524
72732W        W15748   8.877  17.689   1.199 -0.1054 -0.3628  0.3053
72733W        W15749   2.611  21.929   6.463 -0.0489 -0.0275 -0.5079
72734W        W15750  12.436  14.806   0.750 -0.0449 -0.0225 -0.1557
72735W        W15751  33.123  34.355   2.970 -0.1673  0.2255 -0.5652
72736W        W15752  20.024   7.351   7.600 -0.0391 -0.2923  0.3039
72737W        W15753  30.318  31.758   4.146 -0.1924  0.1082  0.1978
72738W        W15754  11.076   5.940   3.747  0.1551  0.1015  0.0108
72739W        W15755  26.823  33.055   8.697  0.2396  0.0975  0.2044
72740W        W15756  33.971  20.814   1.059 -0.3189  0.0811 -0.3215
72741W        W15757  19.827  28.408  22.622 -0.0953 -0.4174 -0.0147
72742W        W15758   5.897  21.502   6.199  0.1793  0.1689  0.1674
72743W        W15759  24.582  19.144   6.357  0.2370 -0.0557 -0.1762
72744W        W15760  16.765  20.350   5.117  0.0540 -0.2337 -0.0988
72745W        W15761   8.568  32.731   7.305 -0.3028 -0.0768  0.0244
72746W        W15762  11.114  18.458   2.432 -0.1845 -0.0058  0.2474
72747W        W15763  14.002  28.232   4.746  0.1370 -0.0492  0.1810
72748W        W15764  18.575  17.595   1.053 -0.1707 -0.0215  0.1241
72749W        W15765  11.854   7.536   2.781 -0.1402 -0.0061  0.6153
72750W        W15766  11.525  28.038  22.769  0.3467 -0.0663  0.3391
72751W        W15767   6.128  19.345  21.363 -0.0665 -0.2820  0.1106
72752W        W15768  27.811  27.610  18.490  0.0668  0.1032 -0.0915
72753W        W15769  18.094  14.715  26.914  0.0156  0.0461 -0.1447
72754W        W15770   0.052  14.569   4.668  0.1032 -0.1643 -0.1737
72755W        W15771  24.426  30.597   3.192  0.2866  0.0055  0.1979
72756W        W15772   7.667  19.946   3.620  0.0145  0.2494  0.2562
72757W        W15773  30.538  12.740   5.182  0.2674  0.0379 -0.0142
72758W        W15774   9.359  27.509   6.810 -0.1567 -0.2949  0.0383
72759W        W15775  20.034  24.051   4.707 -0.2086  0.0999 -0.2111
72760W        W15776  31.412  19.762   8.645 -0.1044 -0.4506  0.0578
72761W        W15777  13.784  15.712  21.045 -0.2516  0.3899 -0.2787
72762W        W15778  31.007  17.599  18.151 -0.0008 -0.1674  0.0635
72763W        W15779  34.432  12.020  21.138  0.2314  0.0257  0.1542
72764W        W15780  11.260  16.479  18.145 -0.1308  0.1863  0.2033
72765W        W15781  15.823  34.306   5.918  0.0774  0.0095  0.1562
72766W        W15782  23.989  18.192  18.504 -0.0035 -0.0630 -0.0630
72767W        W15783   2.027  20.335   8.794  0.1086  0.1124 -0.1400
72768W        W15784   1.586  17.793   4.540 -0.0074  0.1105 -0.0382
72769W        W15785  20.370   9.118  17.495 -0.1930  0.1347  0.1177
72770W        W15786  27.654   1.042  19.167  0.3142 -0.0987  0.1055
72771W        W15787   7.857  28.893   2.239  0.1990  0.0329  0.4159
72772W        W15788   1.881  28.644   5.813 -0.1154  0.1156 -0.3905
72773W        W15789  30.417  17.771  28.104  0.0475 -0.1688  0.1387
72774W        W15790  10.892  30.310  24.895 -0.1665  0.2689  0.0240
72775W        W15791  13.806  21.033   1.027 -0.3336  0.2191  0.1119
72776W        W15792  14.403  20.264   5.162 -0.0476  0.0505  0.0470
72777W        W15793  11.673  20.596  11.704  0.0632 -0.1082  0.2854
72778W        W15794  32.130  22.489  28.552 -0.0367  0.0323  0.0324
72779W        W15795   9.105  27.786  21.039  0.0047  0.2131 -0.0501
72780W        W15796  26.176  15.440  23.062  0.2465  0.0901 -0.1631
72781W        W15797   2.637  26.738  19.573  0.1825  0.1205 -0.2328
72782W        W15798   4.124  32.956   6.430 -0.1198  0.2222 -0.0376
72783W        W15799  34.342  14.581   3.713 -0.0905  0.3266  0.0302
72784W        W15800  23.127  22.750  28.197 -0.0745  0.0009  0.0078
72785W        W15801  25.013  20.933  20.052 -0.0628 -0.1517  0.4516
72786W        W15802   8.738  11.772  29.029 -0.0330 -0.0628 -0.0133
72787W        W15803  11.674   9.261   1.822 -0.1539  0.1791  0.1505
72788W        W15804  32.023  21.432   8.238 -0.1225  0.1006 -0.2015
72789W        W15805  10.163   6.821  20.830 -0.3288 -0.1350  0.2216
72790W        W15806   1.248  19.196  21.235  0.2243 -0.1313  0.0003
72791W        W15807  33.431  28.645   3.571  0.2493  0.0922 -0.4452
72792W        W15808   7.315   9.580   2.534 -0.0249 -0.3296  0.0451
72793W        W15809  21.694  19.637  28.768  0.0610 -0.0119 -0.1883
72794W        W15810   0.773  28.940  27.279 -0.0947 -0.1299 -0.0445
72795W        W15811  24.181  22.373   3.312  0.0236  0.2164 -0.0027
72796W        W15812  20.372  27.093  26.213 -0.0005  0.1267 -0.0441
72797W        W15813   8.875  24.660   2.367  0.2111  0.0994  0.1262
72798W        W15814  14.089  32.604  23.342 -0.3403  0.0886 -0.0963
72799W        W15815   1.651  33.955   9.086 -0.3528 -0.2335 -0.1841
72800W        W15816  19.475  21.857  26.389  0.0438  0.1647  0.0695
72801W        W15817  15.126   0.887  28.903 -0.0753  0.2260  0.2686
72802W        W15818   3.987   9.989   3.322 -0.1113 -0.3113 -0.0017
72803W        W15819  32.484  31.682  21.860  0.1610 -0.1469  0.0607
72804W        W15820  34.170  15.883  18.646 -0.0356  0.1473 -0.0389
72805W        W15821  10.689  13.058  16.315  0.1183  0.1248  0.1071
72806W        W15822   4.596  18.211  19.465 -0.1059 -0.0409  0.0699
72807W        W15823  32.887  22.610  20.062 -0.1831 -0.1627 -0.1274
72808W        W15824   7.127  24.424  19.872  0.3184 -0.1983  0.1161
72809W        W15825  13.530  24.679  23.053 -0.0889 -0.1153  0.1693
72810W        W15826  13.607   8.348  22.885 -0.1714  0.1106 -0.2701
72811W        W15827   7.848  27.902  20.078  0.1119 -0.0751  0.1875
72812W        W15828   3.266  31.788   2.697 -0.0502  0.0090  0.1885
72813W        W15829  26.613  26.202   9.199 -0.1219 -0.1249 -0.0809
72814W        W15830   1.979  29.415   1.997  0.0568  0.0363 -0.2604
72815W        W15831   3.413  28.461   7.080 -0.2955 -0.2527 -0.1597
72816W        W15832  16.769   2.429  25.318 -0.1147  0.3679 -0.1980
72817W        W15833  28.964  21.137   0.461 -0.2436  0.3089 -0.2511
72818W        W15834  17.270   1.143   3.586  0.0427  0.1112  0.0806
72819W        W15835  34.002  27.077  16.119 -0.1348 -0.0545 -0.2579
72820W        W15836  25.184   2.519  23.763  0.0724 -0.1083 -0.0607
72821W        W15837   7.556   3.741   1.546  0.1185 -0.1371 -0.2303
72822W        W15838  32.754   3.885  25.754  0.1347  0.2218  0.0167
72823W        W15839  24.658  15.189  28.389 -0.1203  0.0091 -0.1679
72824W        W15840   6.879   9.039   0.236 -0.1143  0.3331 -0.0425
72825W        W15841   2.423  28.973  25.249 -0.1600 -0.0643 -0.2697
72826W        W15842  14.682  34.492   9.245 -0.0293  0.0235  0.2624
72827W        W15843   2.085  15.513  16.124 -0.3252  0.2209  0.1500
72828W        W15844   0.778  25.961  23.433  0.1159  0.1095 -0.1723
72829W        W15845  23.096  29.038   7.714  0.3197  0.2724  0.4170
72830W        W15846   9.504  24.987  23.117 -0.0455 -0.1426  0.0357
72831W        W15847  33.592  28.537  26.734  0.5009 -0.0392  0.0960
72832W        W15848   9.061  23.524  28.280  0.0775  0.1300 -0.1981
72833W        W15849  28.894  29.143  11.890 -0.1228 -0.1333  0.1781
72834W        W15850  10.846   6.727   8.438  0.1074  0.1631 -0.1755
72835W        W15851  21.157  19.636   0.188  0.2034 -0.1231  0.0455
72836W        W15852   1.522  25.492  25.781 -0.0516 -0.1385  0.1450
72837W        W15853  18.865   2.443   9.012 -0.2049 -0.4152  0.1909
72838W        W15854  32.575  20.346   2.909  0.1112  0.0025 -0.0117
72839W        W15855  10.825   5.471  27.437 -0.0667 -0.1150  0.1095
72840W        W15856   3.384   7.331   0.860  0.2220  0.1250  0.2053
72841W        W15857  20.024  31.496  23.081 -0.2907  0.2886  0.0397
72842W        W15858   7.728  25.530  24.860  0.1685 -0.0867 -0.1782
72843W        W15859   5.506  23.504   0.578  0.0283  0.1727  0.0281
72844W        W15860   1.702  10.071  26.167 -0.0759  0.2053  0.2612
72845W        W15861  16.451  20.522   2.416 -0.0397 -0.3015  0.1513
72846W        W15862   6.334  25.519   8.883  0.2179 -0.0922  0.2258
72847W        W15863  16.659  23.330   3.555  0.2740  0.2600 -0.0631
72848W        W15864   3.371   4.514   1.594  0.1218  0.0792 -0.0750
72849W        W15865   8.935  16.828  25.622  0.1988 -0.3387  0.0181
72850W        W15866  22.023  25.143   5.436 -0.0568 -0.0247  0.0167
72851W        W15867  32.911  25.600   2.801 -0.3633 -0.0727  0.2814
72852W        W15868  15.474  28.500   0.235 -0.0665 -0.0106  0.2138
72853W        W15869  11.938  11.177  19.379  0.1353  0.0461  0.3641
72854W        W15870  27.209  30.463  28.390  0.0695 -0.2435 -0.0843
72855W        W15871  13.975  30.504   8.519  0.0789 -0.2490 -0.1434
72856W        W15872  31.836  28.497  10.603  0.1108 -0.2027  0.4059
72857W        W15873   8.360  32.241   5.446 -0.2300  0.0708  0.0494
72858W        W15874   5.526  14.107  16.883  0.1527 -0.2008 -0.2200
72859W        W15875  14.520   1.336  26.543  0.0836 -0.2512 -0.0181
72860W        W15876   9.308  15.915   2.434  0.1787  0.2701  0.2073
72861W        W15877   0.273  30.893   4.120 -0.3356 -0.2157  0.1746
72862W        W15878  26.585  33.794   9.382 -0.0672  0.0373 -0.3769
72863W        W15879   3.219  27.311  26.956  0.0312 -0.2460 -0.0733
72864W        W15880  10.070  26.373   4.999  0.0310 -0.2056  0.2550
72865W        W15881  34.298  28.295  27.488 -0.4027  0.3780  0.2496
72866W        W15882  25.935  25.812   9.691 -0.1534  0.0455  0.1016
72867W        W15883   5.598  22.368   0.216 -0.1911 -0.0116  0.1817
72868W        W15884  17.320  30.877  26.511  0.0682 -0.0750 -0.2289
72869W        W15885  10.746  22.282   6.094  0.4336 -0.0629  0.2336
72870W        W15886   3.338   3.168  26.694  0.1956 -0.0766  0.0757
72871W        W15887  24.495  29.410  20.199 -0.1287  0.0825 -0.1210
72872W        W15888   6.636  27.437  27.832  0.1572 -0.2339  0.1054
72873W        W15889   0.843  25.445   0.290 -0.3335  0.3489  0.0684
72874W        W15890   1.697  27.161   8.364 -0.1433 -0.1267  0.0363
72875W        W15891  11.101  19.397  29.213 -0.2447  0.1077  0.3393
72876W        W15892  34.544  30.642  27.515  0.1447  0.0588 -0.4548
72877W        W15893  16.601  26.831  26.969  0.1907 -0.3183  0.0368
72878W        W15894  12.192  18.983  23.316 -0.3317  0.2566  0.0134
72879W        W15895  31.032   4.742   5.908 -0.1304 -0.1721  0.3984
72880W        W15896   4.315  18.240   3.175  0.2445  0.0536  0.0633
72881W        W15897   7.445   5.467  19.455 -0.0576 -0.1658  0.1359
72882W        W15898  15.066  22.780  21.071  0.0422  0.0442  0.0867
72883W        W15899   3.608   7.202  15.671  0.0626  0.1976  0.2492
72884W        W15900  29.977  17.199  25.784  0.1324 -0.1572  0.2130
72885W        W15901  34.505   0.335  27.765  0.1394 -0.1642 -0.2076
72886W        W15902   3.693   9.995  25.859 -0.0843  0.0527 -0.1412
72887W        W15903  19.857  27.357  26.585 -0.2353  0.2502  0.1841
72888W        W15904   4.861  31.552  18.859 -0.2662 -0.2965  0.1591
72889W        W15905  19.624  24.858  24.267 -0.0762  0.0129  0.0293
72890W        W15906   3.683  24.351   8.787  0.3204  0.1900  0.1377
72891W        W15907   4.027   1.526   7.089 -0.2619 -0.1611  0.0162
72892W        W15908   1.695  18.125  15.988 -0.1840 -0.2668  0.0511
72893W        W15909  15.974   5.181   9.302  0.1897  0.2584  0.0788
72894W        W15910  33.288  19.227   9.736 -0.4040  0.0076  0.2415
72895W        W15911  10.372   2.046   8.316 -0.2274 -0.1836 -0.0892
72896W        W15912  31.066  23.830   6.562 -0.2809  0.0879 -0.0445
72897W        W15913   3.423  26.105   2.502 -0.3809  0.0960  0.2640
72898W        W15914   7.664  17.874  25.104  0.1183  0.0897 -0.0783
72899W        W15915  13.572   3.436   7.438  0.0033 -0.2038  0.3199
72900W        W15916   3.784  21.682  25.229  0.1978  0.0036  0.1448
72901W        W15917   2.800  33.545   8.860 -0.0552 -0.4210  0.0001
72902W        W15918   2.990  22.367   4.967  0.0290  0.2826  0.0038
72903W        W15919   2.794  19.445  14.461  0.1644 -0.2502  0.1304
72904W        W15920   4.514   9.228  27.449 -0.0917 -0.1504  0.1682
72905W        W15921  20.313  10.961   0.174  0.0226  0.1709  0.1438
72906W        W15922   5.131  27.835  23.398 -0.0263  0.1592  0.2534
72907W        W15923  15.210  30.082   0.170 -0.1250  0.0992 -0.0071
72908W        W15924  34.255  15.712   4.687 -0.2745 -0.1012 -0.0302
72909W        W15925  16.515  30.565   7.799 -0.0097 -0.0761  0.1408
72910W        W15926  11.013  31.283  27.512  0.0587  0.0770  0.0998
72911W        W15927   4.565  19.620  29.025  0.1636 -0.0379 -0.1031
72912W        W15928  27.114  17.073  23.329  0.2271  0.3538 -0.1377
72913W        W15929  17.060  25.795  28.393  0.0492 -0.1462 -0.1106
72914W        W15930  11.674  19.747  26.737  0.0214  0.0388 -0.0602
72915W        W15931  19.110  31.763   8.140  0.1750 -0.1740  0.0301
72916W        W15932  13.238  16.428   1.118 -0.1904 -0.3259  0.0841
72917W        W15933  11.654  31.360   4.626 -0.0882  0.2211 -0.1688
72918W        W15934  22.324   2.666   5.163 -0.0837 -0.1496 -0.0060
72919W        W15935  11.649   4.816   5.539 -0.0796  0.1089 -0.1247
72920W        W15936   1.683  27.912  20.770 -0.0557 -0.0645 -0.2330
72921W        W15937   8.647   1.781   9.068 -0.0043 -0.0914  0.3855
72922W        W15938  20.901  21.365  16.761  0.2283 -0.0445 -0.1241
72923W        W15939  22.733  23.788  23.644 -0.0811 -0.1198 -0.1875
72924W        W15940   0.523  21.331  22.016 -0.3620 -0.0135 -0.0563
72925W        W15941  33.520  19.111   0.488 -0.0626  0.3315 -0.1054
72926W        W15942  13.325  27.138  15.717  0.0787 -0.1863 -0.3371
72927W        W15943  28.599   5.385  25.400 -0.0270 -0.1427 -0.0700
72928W        W15944  24.392   3.065  21.016  0.0908 -0.0908 -0.3303
72929W        W15945  19.243  14.279  14.487  0.1002  0.2187  0.1472
72930W        W15946  11.467  12.091  15.171 -0.0079  0.2271  0.0349
72931W        W15947  13.401  20.534   8.389 -0.1516 -0.0975  0.0013
72932W        W15948  29.584  16.618  18.406 -0.0463  0.2422  0.0179
72933W        W15949  13.584  21.803   9.086  0.0759  0.0358  0.2300
72934W        W15950   7.575  33.607  21.504  0.0300 -0.1090  0.0201
72935W        W15951  18.751  19.527   5.797 -0.2740  0.2795  0.1389
72936W        W15952  25.755  22.067  23.304  0.1704  0.0629  0.1491
72937W        W15953  30.367  25.349   2.558  0.1763 -0.4927  0.2406
72938W        W15954   4.224   9.588  25.021 -0.0837 -0.0597  0.0019
72939W        W15955   6.609   7.582   3.894 -0.1834  0.1426 -0.0759
72940W        W15956  33.903  31.397   3.000 -0.1017  0.0212 -0.0563
72941W        W15957  13.891  28.756  27.249  0.1846 -0.1765  0.3625
72942W        W15958   8.387  21.280  17.737  0.2526  0.0147 -0.1665
72943W        W15959   8.568  18.134  26.538 -0.1357 -0.0046 -0.0229
72944W        W15960   6.831  17.624   8.648  0.3031 -0.1502 -0.3998
72945W        W15961  12.261  18.793   0.281 -0.0834  0.0354  0.2372
72946W        W15962  34.399   0.422  22.241  0.1077 -0.1658  0.0640
72947W        W15963   3.370   1.468   1.472 -0.1268  0.0578 -0.0426
72948W        W15964   2.122  22.418  16.073 -0.1835 -0.1498 -0.0273
72949W        W15965   3.181   5.728  24.835  0.4226 -0.0449 -0.2186
72950W        W15966  13.484  25.707   8.045 -0.0778 -0.0219 -0.5123
72951W        W15967   7.343  32.504  26.763  0.0500  0.0750 -0.2419
72952W        W15968  11.755  25.971   7.859  0.4666  0.0740 -0.2050
72953W        W15969  13.530  21.513  24.739 -0.0180  0.2264 -0.2053
72954W        W15970  14.759  27.772  26.805 -0.1414 -0.1483  0.1317
72955W        W15971  16.693  23.160   4.127  0.2625  0.1299 -0.3661
72956W        W15972   1.165  30.081   9.782  0.1091  0.2609  0.0399
72957W        W15973  33.676  15.929   8.390 -0.0582 -0.1063 -0.1208
72958W        W15974  31.475  30.135  24.056  0.2049  0.2008  0.0536
72959W        W15975  11.724  26.370   3.864  0.0962  0.0357 -0.0986
72960W        W15976   1.110   7.940  28.067 -0.1085  0.1216 -0.2868
72961W        W15977  12.317  29.642  25.147  0.3675  0.1830  0.4125
72962W        W15978   3.920  13.082   6.194  0.3656 -0.0516 -0.0397
72963W        W15979   9.720  14.703  18.614  0.0432  0.0217 -0.0561
72964W        W15980   5.223  22.705   3.723  0.0782  0.0632  0.0132
72965W        W15981   3.762  30.456  24.919 -0.0870  0.1286 -0.3981
72966W        W15982  30.194  22.602  10.762  0.0468 -0.0814  0.2047
72967W        W15983   7.936   0.813   6.984 -0.0919 -0.2965 -0.2593
72968W        W15984   7.732   2.217   1.698 -0.3223 -0.2778 -0.2504
72969W        W15985  25.487  23.117   3.888  0.3276  0.1725 -0.0689
72970W        W15986   0.671  29.588   7.049  0.1192  0.1403  0.0202
72971W        W15987  34.062  20.884  27.900 -0.2375 -0.0203  0.1393
72972W        W15988   3.888  25.606  16.974 -0.2012  0.0259 -0.2473
72973W        W15989   5.822  22.768  26.950  0.2746 -0.2220  0.0933
72974W        W15990   7.822  16.871   6.841 -0.4669 -0.0329 -0.0588
72975W        W15991   9.341   9.843   1.005  0.2827  0.1257  0.1182
72976W        W15992   9.741  16.021  22.173 -0.0762  0.1159 -0.2498
72977W        W15993  25.844  17.389   8.226 -0.0389  0.0106 -0.1042
72978W        W15994   8.738  26.013  15.946 -0.2000 -0.1568 -0.0084
72979W        W15995  11.678   8.360   4.037 -0.3151  0.0486 -0.1762
72980W        W15996  21.098  33.535  26.476 -0.0662 -0.5004  0.0752
72981W        W15997  33.882  22.286  14.989 -0.2956 -0.0927 -0.0340
72982W        W15998   0.834   8.953   3.531  0.2333 -0.2776  0.2476
72983W        W15999  15.182   0.131  25.663 -0.1140  0.3288  0.2053
72984W        W16000  31.655  16.738   0.484 -0.1981  0.0762 -0.2589
72985W        W16001  33.447  16.112  22.567 -0.1516  0.2521 -0.3514
72986W        W16002  21.028  24.913   2.922 -0.1058  0.0617 -0.1332
72987W        W16003  17.285   7.215   0.649  0.1430 -0.1023  0.0027
72988W        W16004  14.008   1.757  27.342 -0.0082  0.0573 -0.2984
72989W        W16005   9.022  20.575   7.303 -0.1874  0.2122  0.1855
72990W        W16006  10.469  29.995  21.002  0.1091  0.2499 -0.0858
72991W        W16007  29.553  20.662  20.046 -0.2824  0.0669  0.2487
72992W        W16008   1.053  22.259   5.997 -0.0623 -0.1385 -0.1919
72993W        W16009  24.047  25.963   0.584  0.1348 -0.0768  0.0254
72994W        W16010   5.943   3.401   1.326  0.2483  0.1892  0.2850
72995W        W16011   2.995  23.111   6.863 -0.0790  0.1143 -0.2827
72996W        W16012  10.543  27.299  24.416  0.0678  0.2965 -0.2372
72997W        W16013  28.906   5.329  28.583  0.1378 -0.0614 -0.1713
72998W        W16014  31.292  29.849   0.578  0.1721 -0.0142  0.1807
72999W        W16015  22.816  26.032   7.374  0.2070 -0.1879  0.0840
73000W        W16016  33.604  25.086  15.924 -0.2290  0.1714 -0.0888
73001W        W16017  11.404  18.056  28.024  0.0544 -0.0303  0.0126
73002W        W16018  30.703  33.080  29.291 -0.1441  0.0228 -0.0481
73003W        W16019  32.866  26.986   6.580  0.1116  0.2920  0.0219
73004W        W16020   6.170   3.422  24.319  0.1119  0.2273  0.0778
73005W        W16021  29.719  16.108   9.569 -0.1955 -0.1559 -0.0446
73006W        W16022   7.169  27.556  24.097 -0.2562  0.1533 -0.0549
73007W        W16023   1.891   0.093   2.768 -0.3817  0.1554 -0.1861
73008W        W16024  22.785  19.553  21.717 -0.0522 -0.1629 -0.1903
73009W        W16025   9.727  29.898   6.030  0.0469 -0.1024 -0.3818
73010W        W16026   1.465   2.944   3.413 -0.0725  0.0437  0.3054
73011W        W16027  32.573  25.742  27.115 -0.0486  0.0105 -0.1595
73012W        W16028   9.508  16.892   2.642 -0.2221  0.3143  0.1904
73013W        W16029   6.223   4.388   6.125 -0.0941  0.0922  0.2399
73014W        W16030  13.471  18.632  27.856  0.0560 -0.2210 -0.1049
73015W        W16031   9.213  25.563  19.891 -0.1236  0.1835 -0.1637
73016W        W16032   4.686  23.982   4.699  0.1962  0.2113 -0.2729
73017W        W16033  22.008  29.849  28.916  0.0650  0.0748 -0.0353
73018W        W16034  16.170  25.970   0.429  0.1342 -0.0072  0.2505
73019W        W16035   9.305   2.687   9.295  0.1174 -0.0837  0.0823
73020W        W16036   0.938  21.466   1.631  0.3181 -0.1182 -0.1431
73021W        W16037  13.944  22.856   6.335 -0.0064 -0.0144 -0.1181
73022W        W16038  18.031  20.066  24.559  0.1055  0.0190 -0.1937
73023W        W16039   9.357  27.255  26.691 -0.2677  0.2214 -0.3576
73024W        W16040  10.935  13.312  17.208 -0.1879  0.0752 -0.5388
73025W        W16041   7.029  33.645   0.943 -0.1253  0.1943  0.0283
73026W        W16042   0.363  18.244   1.238 -0.1532  0.0517 -0.0580
73027W        W16043  25.119   0.436  21.549 -0.4322 -0.3595  0.1385
73028W        W16044  34.736  21.578   9.284 -0.0823 -0.1408 -0.0419
73029W        W16045  30.353  15.567   5.791  0.0666  0.0536  0.1274
73030W        W16046   7.856  25.888  25.906 -0.4077 -0.0766  0.2117
73031W        W16047   0.787  26.973  17.413  0.1978 -0.1179  0.1221
73032W        W16048  16.780   2.976   2.132  0.1759  0.1023 -0.2216
73033W        W16049  13.605  29.016  28.973 -0.1370 -0.0410  0.0901
73034W        W16050   8.290   0.534  20.517  0.1745  0.2478  0.0849
73035W        W16051  28.795  23.637  23.823  0.1539  0.0944  0.0320
73036W        W16052  14.554  34.539  16.163 -0.0708  0.0593 -0.0535
73037W        W16053  26.277   3.188   9.923  0.0953  0.1093 -0.0023
73038W        W16054   5.473  26.632  19.264  0.2538 -0.0664 -0.0070
73039W        W16055  17.035  16.600   5.342 -0.1272 -0.1327 -0.1659
73040W        W16056  23.538  10.110  28.652  0.0323 -0.1235 -0.0018
73041W        W16057  25.087   9.263   3.461 -0.0137  0.0615 -0.0860
73042W        W16058  31.553   3.615  28.795  0.0170  0.0858  0.2432
73043W        W16059  16.103   6.119   1.826 -0.0435  0.0693  0.0397
73044W        W16060   1.999  21.134  27.993  0.0367  0.1417  0.1657
73045W        W16061  25.745   8.635  10.208  0.2202  0.2443 -0.1514
73046W        W16062   6.617  29.076  23.225 -0.2347  0.0278  0.4278
73047W        W16063  33.305  21.522  23.274  0.0659  0.0861  0.1388
73048W        W16064  13.316  17.295  26.360 -0.2415  0.2466  0.3175
73049W        W16065  33.844  12.198  29.308  0.0782 -0.3589 -0.2000
73050W        W16066   9.921  23.095   6.955 -0.3030 -0.1522  0.1200
73051W        W16067  23.057  17.625  26.433  0.0706  0.0491 -0.1943
73052W        W16068   1.094  13.719   7.951 -0.0689  0.3845  0.0283
73053W        W16069   3.369  26.396  18.882  0.1140 -0.2260 -0.1283
73054W        W16070  34.347  34.352   8.467 -0.1272 -0.0668 -0.2513
73055W        W16071  10.663  28.484  26.749  0.0278  0.0877  0.0881
73056W        W16072  19.455   9.045   8.187  0.0085 -0.0470 -0.1868
73057W        W16073  12.061  15.185  17.939 -0.0179 -0.0181  0.0682
73058W        W16074  11.416  29.174  23.616  0.0574  0.1984 -0.1542
73059W        W16075  23.431  12.082   7.119  0.1066  0.0903  0.1075
73060W        W16076  13.870  23.737  21.625  0.4433 -0.1247 -0.0899
73061W        W16077   1.894  15.279  26.194 -0.1153  0.2452 -0.1958
73062W        W16078  26.478  24.202  23.707 -0.2975  0.0132  0.1433
73063W        W16079   9.040  19.746   8.494 -0.2450 -0.1040  0.4349
73064W        W16080   3.415  31.804   4.837  0.0409 -0.0707  0.0324
73065W        W16081   4.203  18.363   1.469 -0.1601 -0.0265  0.0029
73066W        W16082  18.350  18.338  21.106 -0.0887 -0.0033 -0.0449
73067W        W16083  11.895  11.033  15.516 -0.2495  0.0023 -0.0139
73068W        W16084   1.397  16.792  14.106 -0.0876  0.1226 -0.1106
73069W        W16085   5.302  23.341   0.114  0.2092 -0.0911 -0.1755
73070W        W16086  23.779  14.303  17.117 -0.1430  0.1397 -0.4806
73071W        W16087  33.915  11.684  10.407 -0.2531 -0.0341  0.1873
73072W        W16088  29.313  16.796   3.549 -0.0221 -0.0755  0.0233
73073W        W16089   7.751  32.810   2.103  0.1761 -0.0209 -0.0076
73074W        W16090  31.638  22.002  27.333 -0.0671  0.0477  0.1609
73075W        W16091   2.845  18.871  19.143  0.0485 -0.0152 -0.1811
73076W        W16092  24.902  32.999  25.922  0.2872  0.0295 -0.0595
73077W        W16093  10.858  16.914   4.750 -0.1095 -0.0787 -0.1889
73078W        W16094   2.020  24.376   6.609 -0.1077  0.1925 -0.1876
73079W        W16095   9.339  32.604  22.786 -0.0729 -0.0993  0.0706
73080W        W16096   1.025  15.330   4.827 -0.1203 -0.1159 -0.1089
73081W        W16097  15.878  25.912   5.101  0.0197 -0.2140 -0.1189
73082W        W16098  17.776  14.867  15.408 -0.3706  0.2160  0.3270
73083W        W16099   4.480  17.174   0.571 -0.2118  0.0261 -0.0547
73084W        W16100   0.620  23.938   4.786 -0.0513  0.2232  0.1207
73085W        W16101   9.248  23.833   7.531  0.2569  0.1128  0.0068
73086W        W16102  33.337  22.538   5.932  0.3832  0.2686  0.0876
73087W        W16103  21.320  26.543   6.717 -0.2608  0.0791  0.2867
73088W        W16104   8.601  26.134   8.281 -0.2235  0.2848  0.3285
73089W        W16105  27.416  26.824   5.791 -0.0818  0.1804 -0.3738
73090W        W16106  13.773  31.132   0.010 -0.2421 -0.2915  0.0946
73091W        W16107   8.456  13.289  23.011 -0.1579  0.1914 -0.2923
73092W        W16108   2.515  34.524  17.676 -0.1094  0.0389  0.2817
73093W        W16109   2.281  21.688   6.724 -0.0584  0.0543 -0.1214
73094W        W16110  21.692  29.502  19.962  0.0579  0.0374  0.2420
73095W        W16111   9.513  20.279   5.983 -0.2026  0.0921 -0.1545
73096W        W16112   0.970  18.000  26.656  0.1039 -0.0982  0.0581
73097W        W16113  13.973   0.798   0.520 -0.0057 -0.0919  0.1215
73098W        W16114  33.463   9.552   9.637  0.1268 -0.1044  0.2059
73099W        W16115   0.514  13.404  16.921  0.0352 -0.1385 -0.0607
73100W        W16116   7.285  11.765   0.912 -0.2027  0.3182  0.0262
73101W        W16117  13.151  26.375  27.121  0.2706  0.1052 -0.1193
73102W        W16118  14.879  23.422  24.735  0.1825 -0.2453 -0.2091
73103W        W16119   8.059  31.471   7.739 -0.2823 -0.0916  0.2788
73104W        W16120   4.228  32.725  10.351  0.1478 -0.3486 -0.0226
73105W        W16121  10.088  32.935   8.266  0.1066  0.2266  0.1557
73106W        W16122   1.955  31.123   5.129  0.0866 -0.0342  0.1456
73107W        W16123   6.793  13.926  21.791 -0.1622 -0.0639  0.0435
73108W        W16124  25.388  28.660   5.555  0.1004  0.1654  0.0516
73109W        W16125  11.904  33.390  27.133 -0.2675 -0.2153  0.0263
73110W        W16126  31.213  24.254   7.529 -0.0466  0.2213  0.0052
73111W        W16127  10.062  24.888  29.233 -0.2087  0.3139 -0.2090
73112W        W16128  26.450   2.727  25.233  0.0276 -0.0717 -0.1683
73113W        W16129  12.142   3.751   6.269 -0.0109  0.0387 -0.1578
73114W        W16130  11.233  17.800   7.058 -0.0585 -0.0571 -0.1129
73115W        W16131   4.428  11.565   7.965  0.1926 -0.0967  0.0229
73116W        W16132  32.888  22.495  22.036  0.1097  0.4735  0.0521
73117W        W16133  33.397  32.401   8.134 -0.0468  0.1508 -0.1633
73118W        W16134  27.791  20.985   5.466  0.1158 -0.3466 -0.3692
73119W        W16135   7.476   9.876   8.871  0.0021  0.0229 -0.3211
73120W        W16136  14.921  16.506  12.366  0.0357  0.0134 -0.3299
73121W        W16137   6.634   3.254  24.289 -0.2615  0.0584 -0.0536
73122W        W16138  30.670  26.916  23.097  0.0378 -0.1518 -0.2590
73123W        W16139  29.716  14.747  27.970  0.0797 -0.3927  0.4707
73124W        W16140  25.823  24.082  25.213 -0.0970  0.0428  0.0454
73125W        W16141   4.185   2.246  27.833  0.1259  0.1113 -0.2710
73126W        W16142   8.616  24.186  25.796 -0.0210 -0.1295  0.1584
73127W        W16143  10.563  17.568   7.596  0.0113  0.0083 -0.3402
73128W        W16144  25.250  11.061  27.712  0.1115 -0.2870 -0.2680
73129W        W16145   5.928  11.394  22.676  0.1846 -0.1492  0.3734
73130W        W16146   8.620   2.920  27.835 -0.0393 -0.1350 -0.1179
73131W        W16147   2.899  19.144  26.759  0.2290  0.0448 -0.1548
73132W        W16148   5.709  22.786  17.761 -0.2018 -0.1638  0.1169
73133W        W16149   7.281  29.312  25.430  0.0597  0.1079  0.2862
73134W        W16150   5.517  14.663  24.968  0.1762 -0.2537 -0.1896
73135W        W16151  17.116  25.252   6.604  0.2454  0.0714  0.1060
73136W        W16152   9.583  15.934  24.113  0.2149 -0.1507 -0.2024
73137W        W16153  13.270  25.537   9.908 -0.3142 -0.2992 -0.0406
73138W        W16154   9.923   0.399   5.716 -0.1042  0.0445 -0.1707
73139W        W16155  14.029  27.974   1.130  0.1647 -0.4641  0.0119
73140W        W16156   0.237  14.018  15.337  0.0757 -0.2284  0.0529
73141W        W16157  26.124   0.103   5.079  0.0215 -0.1603 -0.2075
73142W        W16158   9.272   4.744   2.887  0.2554  0.2568  0.0617
73143W        W16159  25.675  18.193   9.603 -0.0287  0.2228 -0.3328
73144W        W16160   9.925  15.476  19.938 -0.2284 -0.1289  0.3719
73145W        W16161  10.436  26.741  27.791 -0.3209  0.2671  0.0333
73146W        W16162  12.730  12.726  25.023  0.1839 -0.1085  0.2245
73147W        W16163   5.421  23.939  25.104  0.1712 -0.1610  0.3614
73148W        W16164  24.555  22.217  23.999 -0.0387  0.0400  0.1405
73149W        W16165   9.833  29.302   7.097 -0.0487 -0.1743  0.1271
73150W        W16166   8.933   8.209   0.559 -0.4093  0.1372 -0.0954
73151W        W16167  33.852  10.838   9.126 -0.0275  0.0420  0.0122
73152W        W16168   4.732   1.036  22.503 -0.2540 -0.2615  0.1477
73153W        W16169   2.247   7.448   5.175 -0.1867  0.1843  0.2551
73154W        W16170  34.224  21.881  25.719  0.1748  0.0625  0.0306
73155W        W16171  24.426  26.124   9.076 -0.3504  0.1923 -0.0317
73156W        W16172  19.168  14.318  26.800 -0.1036  0.2339  0.1210
73157W        W16173  31.656  32.885   8.606  0.0623 -0.2594 -0.3374
73158W        W16174  14.054  18.611   6.355 -0.2713 -0.0661 -0.1862
73159W        W16175  10.199  14.781  27.692 -0.3253  0.0724 -0.0004
73160W        W16176   5.626  14.911  28.693 -0.0121 -0.1167  0.0643
73161W        W16177  33.316   0.512   1.688 -0.1055  0.0985 -0.2379
73162W        W16178   8.242  15.838   7.354 -0.3406 -0.0751  0.2703
73163W        W16179  16.125   7.441   6.882 -0.1091  0.1292 -0.0006
73164W        W16180   6.977   4.425   8.937 -0.0843  0.1668  0.0702
73165W        W16181  31.991  31.784   7.152  0.1619  0.1581 -0.0950
73166W        W16182  29.140  12.051   8.153  0.0986 -0.1824  0.1286
73167W        W16183  31.206  11.686   5.221  0.1096 -0.2531 -0.0611
73168W        W16184   9.768  23.502   2.112  0.1450  0.2534  0.2489
73169W        W16185  12.222  13.561   7.834  0.1982  0.2776 -0.0095
73170W        W16186  23.546  18.964   8.574  0.1614 -0.2307 -0.0864
73171W        W16187  30.935  26.211  27.559  0.1995 -0.2317 -0.0286
73172W        W16188  13.492  31.620   5.204 -0.1763 -0.1209 -0.1164
73173W        W16189  11.487  22.320  17.744  0.2130  0.1271 -0.2368
73174W        W16190   7.064  13.202   6.104 -0.0367 -0.1651 -0.1001
73175W        W16191   1.486  11.933   6.611  0.3247  0.0543  0.0635
73176W        W16192   8.596  31.939  15.747 -0.3426 -0.3296  0.1592
73177W        W16193   3.524  19.538  23.488  0.1676  0.1783  0.0856
73178W        W16194  18.972  18.529  28.935  0.1370  0.2460  0.2905
73179W        W16195   0.021  18.616   9.469  0.0784  0.0713 -0.0230
73180W        W16196  12.058   0.302  25.925 -0.0046 -0.2628  0.0880
73181W        W16197   5.036  29.102   5.962 -0.3429  0.3910 -0.1815
73182W        W16198   7.865  22.239   8.562 -0.1369  0.4455 -0.1379
73183W        W16199   0.671  23.238   8.632 -0.4626  0.1558  0.1118
73184W        W16200   3.086  23.634   1.662 -0.2420 -0.1020 -0.0245
73185W        W16201  32.298  33.373   9.304 -0.0401 -0.0996 -0.0944
73186W        W16202  32.544   8.140  22.001  0.0713 -0.1033  0.1856
73187W        W16203   8.487  25.664   2.413  0.1678  0.0622  0.2437
73188W        W16204   6.788  33.817  10.280  0.0668 -0.1349  0.3251
73189W        W16205   0.687  27.934   5.454  0.2312 -0.2922  0.2709
73190W        W16206  29.286  19.970  26.110 -0.0753 -0.0954 -0.0784
73191W        W16207  18.361  31.184   5.089  0.0757 -0.2471 -0.1340
73192W        W16208   9.426  10.548   6.228 -0.2957 -0.0109 -0.0201
73193W        W16209  32.946  27.540  22.332  0.0134  0.0059 -0.0433
73194W        W16210  11.293  16.900  28.166  0.0982  0.0069 -0.0097
73195W        W16211   2.159  10.028   9.281 -0.1377  0.2982  0.3280
73196W        W16212   4.274   3.312   6.424  0.2821 -0.1593 -0.1904
73197W        W16213   6.451  26.756   7.141  0.1394 -0.0179 -0.1325
73198W        W16214  18.345   3.962   5.069  0.0072 -0.2706  0.1965
73199W        W16215  34.586   1.537  24.007  0.1304  0.1705  0.0609
73200W        W16216   3.971  33.940   1.982  0.3549 -0.1268  0.1476
73201W        W16217  14.519  13.215  14.585  0.2476 -0.1230 -0.2651
73202W        W16218  15.300  17.807   1.993  0.0270 -0.0300 -0.1402
73203W        W16219  17.199   3.220   7.582  0.2236  0.1006 -0.1334
73204W        W16220  22.322  19.535   2.656 -0.0301 -0.0870  0.0592
73205W        W16221  11.024  26.401   8.342 -0.1105 -0.0112  0.2035
73206W        W16222  21.877  23.511   4.351 -0.1926 -0.2550 -0.1834
73207W        W16223  31.223  28.180   2.203  0.2897 -0.2580 -0.2573
73208W        W16224   7.776  32.582  28.210 -0.3765 -0.2509 -0.0443
73209W        W16225  30.442  22.642  21.814 -0.1991 -0.0124 -0.1554
73210W        W16226  18.409  28.019   7.880  0.2622  0.2036 -0.0493
73211W        W16227  34.201   8.755   3.468  0.2827 -0.0472 -0.1115
73212W        W16228   2.771  23.383  27.856  0.0558  0.3182 -0.1612
73213W        W16229   5.771  32.250   4.784 -0.3379  0.0734  0.1457
73214W        W16230   2.668  29.557   9.693 -0.2323  0.0831 -0.1155
73215W        W16231   4.091  27.342  28.079 -0.0380 -0.0301 -0.1975
73216W        W16232   1.527  28.230   5.103 -0.1302 -0.1456 -0.1102
73217W        W16233   4.267  34.210  28.854  0.1919 -0.2483  0.0915
73218W        W16234  14.198  28.199   3.352 -0.0626 -0.0582  0.0933
73219W        W16235  33.171   8.110   7.269  0.2745 -0.1693 -0.1275
73220W        W16236  33.611  14.276   9.474  0.0485  0.1025  0.0178
73221W        W16237   3.939  29.202  19.706 -0.1300  0.0919  0.0656
73222W        W16238   3.528  10.791   7.095 -0.4578 -0.0113  0.0784
73223W        W16239  15.664   1.919   8.421 -0.2408 -0.0097  0.0337
73224W        W16240   2.533   5.354   7.987 -0.1167  0.0504 -0.0673
73225W        W16241   5.985  25.161  10.067 -0.0804 -0.1912 -0.1456
73226W        W16242  33.559  27.654   4.547 -0.4326  0.4646  0.1065
73227W        W16243  33.252   1.405   2.119  0.1829 -0.2835 -0.0732
73228W        W16244   7.076  13.033   6.572  0.0758  0.1051 -0.0960
73229W        W16245   3.669  33.560   9.072 -0.0217  0.1505  0.3159
73230W        W16246  27.907  23.158   7.268  0.2704 -0.0678 -0.0335
73231W        W16247  32.097  26.594   5.194  0.0782  0.1245  0.1507
73232W        W16248   5.395  19.150  18.079 -0.0368 -0.0675  0.2413
73233W        W16249  10.402  29.410   5.663 -0.3792  0.0910  0.3285
73234W        W16250  25.695  19.496   8.457 -0.1756 -0.2697 -0.1031
73235W        W16251  31.480   3.405  17.650 -0.4979 -0.3196 -0.2086
73236W        W16252  15.606  11.067  20.409 -0.3671 -0.2236  0.2224
73237W        W16253  11.823  21.046  26.108 -0.0719 -0.0036  0.1090
73238W        W16254  20.500   2.958   3.444  0.2353  0.1286 -0.0608
73239W        W16255  24.670  20.750  20.480  0.0941 -0.0211 -0.0173
73240W        W16256  30.464  23.993   4.088  0.4224  0.0132 -0.1116
73241W        W16257  33.107  13.315   6.620 -0.0144  0.1617 -0.0895
73242W        W16258  27.585  28.166   0.220 -0.2523 -0.0029  0.3102
73243W        W16259  11.448  20.869   1.068 -0.0671 -0.1023 -0.2769
73244W        W16260   0.976  11.031  16.267 -0.4460  0.1733 -0.3971
73245W        W16261  12.445  25.189  17.096  0.1208 -0.1192 -0.3357
73246W        W16262  11.158   5.982   2.752 -0.0713 -0.0997  0.0369
73247W        W16263  13.537   3.957   7.331  0.0803  0.3438 -0.0251
73248W        W16264   4.132  26.341   9.405 -0.0068  0.2590 -0.2885
73249W        W16265  34.110   2.348   5.275  0.0146  0.3074  0.3418
73250W        W16266   1.659  24.089   9.441  0.2804  0.1699  0.3249
73251W        W16267   8.125  30.830  17.091 -0.0393  0.0196 -0.2908
73252W        W16268  29.860   4.266   9.234 -0.0109 -0.2389 -0.2165
73253W        W16269  23.650  21.218  17.065 -0.0826 -0.0027 -0.1141
73254W        W16270  30.772  32.445  28.263  0.0111  0.0245 -0.1699
73255W        W16271  26.091  31.092   3.486 -0.1164  0.1583 -0.1120
73256W        W16272  32.641  23.485   0.155  0.2350 -0.0241  0.0328
73257W        W16273  16.799   5.861  24.783  0.0801  0.3636  0.1964
73258W        W16274   9.392  17.749  13.088 -0.1473 -0.2217  0.0485
73259W        W16275   1.285  23.277   5.407 -0.0131  0.1939 -0.1296
73260W        W16276   4.679   9.242   1.510 -0.1070  0.2406 -0.2002
73261W        W16277   2.167  19.734   5.196  0.2089 -0.1014 -0.1714
73262W        W16278  33.378   3.449  26.771 -0.0494  0.0560 -0.1427
73263W        W16279   2.406  18.666   5.698 -0.2021  0.0245  0.1201
73264W        W16280  24.681   9.672  29.090 -0.4154  0.0559  0.0835
73265W        W16281  30.019  26.093   3.143  0.0920 -0.0708  0.0333
73266W        W16282  11.717  27.751  23.624 -0.1388  0.1639  0.3727
73267W        W16283   4.425  25.616  22.037  0.3745  0.3904 -0.0582
73268W        W16284  18.881  13.113   2.982  0.3950  0.2241 -0.0357
73269W        W16285   1.438   0.208  16.628  0.2886 -0.1157  0.0905
73270W        W16286   4.014  16.785  27.900  0.0039  0.4310  0.2780
73271W        W16287   4.201  27.496  29.296  0.1503 -0.2530 -0.0022
73272W        W16288  14.253  20.295  19.856  0.2777  0.1241 -0.1319
73273W        W16289   0.965  31.878  28.857 -0.0049 -0.0502  0.3778
73274W        W16290  27.232  28.555  10.163  0.3261 -0.0291 -0.2794
73275W        W16291   4.345  20.594   7.104 -0.1346  0.0305 -0.3673
73276W        W16292  14.006   8.669   0.624 -0.2467  0.0330  0.0829
73277W        W16293  10.561  27.981   4.571  0.1888  0.0806 -0.1593
73278W        W16294   8.233  12.712   3.351 -0.0504  0.3433  0.0004
73279W        W16295   9.127  21.568   3.329 -0.3020  0.1417 -0.2638
73280W        W16296  34.279  33.623   5.486  0.1435  0.0422 -0.2762
73281W        W16297  27.225  31.244  23.602 -0.0456  0.0291 -0.1662
73282W        W16298  10.629  21.109   5.300  0.1858  0.0303  0.0227
73283W        W16299  31.922  33.656  28.865  0.0974 -0.3871  0.1432
73284W        W16300   0.836  12.266  25.415  0.1878  0.2324  0.1024
73285W        W16301  26.626  19.591   7.141  0.2228  0.1407  0.0736
73286W        W16302  25.998  18.433   3.830  0.0623 -0.0385  0.1485
73287W        W16303   5.878  23.890  22.323 -0.1422  0.0174 -0.1521
73288W        W16304   9.031  27.027  24.477  0.0192 -0.0869 -0.2263
73289W        W16305   3.213  23.865  25.021  0.3541  0.2097 -0.1057
73290W        W16306   6.271  27.907  15.228 -0.0148 -0.2066 -0.3284
73291W        W16307   9.727  25.101  17.493 -0.1741 -0.1259 -0.0619
73292W        W16308  13.531  17.414  23.461 -0.1312 -0.0985 -0.1666
73293W        W16309  21.531  18.806   6.370  0.0460 -0.2305 -0.2726
73294W        W16310  24.843  22.872   7.927  0.0855 -0.0451 -0.1816
73295W        W16311  29.287  25.269   2.327 -0.0887 -0.1621  0.0777
73296W        W16312   1.244  15.505  26.887 -0.1656  0.2270 -0.1169
73297W        W16313  30.523  34.487   5.960 -0.2830  0.1981 -0.2177
73298W        W16314   2.379  31.811   3.047  0.1686  0.1061  0.2169
73299W        W16315   8.368  10.251  23.193 -0.2522  0.1560 -0.0922
73300W        W16316  27.628  20.331  26.744  0.3307 -0.1207  0.0305
73301W        W16317  30.104  21.995   1.116  0.0235  0.1452  0.2906
73302W        W16318   1.284  13.116   7.872  0.1204  0.3509  0.0657
73303W        W16319   2.671   1.719   7.695 -0.2754 -0.3521  0.1498
73304W        W16320   0.417   7.851   6.535 -0.2073 -0.2967  0.0626
73305W        W16321  17.660  24.824  21.106 -0.0229 -0.0985 -0.1271
73306W        W16322   2.223  31.730   5.787  0.2656  0.1147  0.2022
73307W        W16323  23.921  21.303   7.953 -0.1242  0.3307  0.1473
73308W        W16324   6.697   0.263   3.783 -0.1271  0.4709 -0.0616
73309W        W16325   8.305  32.146   3.979 -0.2464  0.2405 -0.1798
73310W        W16326  32.809  18.519  24.813 -0.2123 -0.0404 -0.0466
73311W        W16327  33.785  18.228  26.865  0.1130  0.0596  0.1362
73312W        W16328   6.523  19.016  28.370 -0.0806 -0.0433 -0.3638
73313W        W16329   9.069  25.597   2.611 -0.1784  0.2282  0.0437
73314W        W16330  11.630  20.446  17.097 -0.1010  0.1787  0.0193
73315W        W16331  17.334  29.665   1.729 -0.0599  0.0140 -0.0374
73316W        W16332   2.506  22.406  16.766  0.1813  0.0567  0.1636
73317W        W16333   9.807  11.846   2.929  0.1231 -0.1131 -0.1158
73318W        W16334  11.427  30.678   1.958  0.1329 -0.0110  0.1655
73319W        W16335   5.937  16.316   9.291 -0.1369 -0.1457  0.0128
73320W        W16336  27.487  10.278  24.200 -0.0298 -0.0758  0.0326
73321W        W16337  11.171  28.341   2.298  0.0592 -0.0313 -0.2876
73322W        W16338  31.645  14.756  16.480  0.2495 -0.1118 -0.0788
73323W        W16339  15.011  19.974   2.292  0.1888  0.0106  0.0494
73324W        W16340  27.233   3.189  27.460  0.1578  0.1209 -0.1743
73325W        W16341   9.981   0.042   9.745  0.1745  0.0803 -0.1593
73326W        W16342  12.259  23.385  22.315 -0.0059  0.0037  0.0241
73327W        W16343  14.192  26.823   2.763  0.0662 -0.0932 -0.0657
73328W        W16344  14.207   9.936   2.451 -0.1395  0.2719  0.1167
73329W        W16345  14.452  27.534   3.907 -0.0053 -0.1239 -0.0102
73330W        W16346   7.614   4.988   4.236 -0.3618  0.2655  0.2359
73331W        W16347  18.343  23.556   4.368  0.2104 -0.2011  0.1796
73332W        W16348  22.695  10.555  26.804 -0.0468  0.4184 -0.1752
73333W        W16349   5.731  28.394   3.167 -0.1900  0.1262  0.1804
73334W        W16350  34.043  21.894   0.575  0.0376  0.0074 -0.3025
73335W        W16351  13.822  26.947  18.794 -0.2410  0.2564 -0.0736
73336W        W16352  21.153  12.198  20.527  0.0844  0.0935  0.1121
73337W        W16353   8.283  25.778  23.133  0.0545 -0.3875 -0.0358
73338W        W16354   3.997  19.911  26.982 -0.1688 -0.2303  0.0161
73339W        W16355   5.057  34.727  24.203  0.1766 -0.1445  0.0052
73340W        W16356  34.369   1.871   3.628 -0.1255 -0.0033  0.0193
73341W        W16357  14.363  33.568  26.562  0.2112  0.3420  0.0182
73342W        W16358  34.248   8.969  26.761 -0.1518 -0.1667 -0.0941
73343W        W16359  28.919  18.058   6.487 -0.1962 -0.0232 -0.3458
73344W        W16360  11.331  23.990  24.492  0.3149  0.3220  0.4377
73345W        W16361  29.706  14.900   6.693 -0.1163 -0.0274 -0.0859
73346W        W16362  27.145  30.577   8.658 -0.0614  0.1010 -0.1305
73347W        W16363   9.559  27.041   6.599 -0.0744  0.1237  0.0084
73348W        W16364   2.000   4.808   4.153  0.0549  0.1036  0.0580
73349W        W16365  32.799  20.789   3.477 -0.2644  0.0743 -0.2601
73350W        W16366   9.507  23.042   6.404 -0.3700  0.0952  0.0243
73351W        W16367  14.091   9.984  13.539 -0.0834 -0.2848  0.0061
73352W        W16368  18.585  10.819   9.037 -0.1170  0.1222  0.1815
73353W        W16369  24.308  22.166   5.960  0.0374  0.4167  0.1843
73354W        W16370  23.204   1.153  17.292  0.0232 -0.1364  0.1154
73355W        W16371  15.313  18.866   0.017  0.1986  0.1841 -0.1847
73356W        W16372  19.589  20.458  20.858 -0.1116  0.1323  0.0005
73357W        W16373   5.088  34.580   0.523 -0.1414  0.1595 -0.1683
73358W        W16374  32.817  34.436  20.443 -0.3714  0.2071  0.0435
73359W        W16375   8.401  15.538   7.687 -0.0261 -0.0210  0.1121
73360W        W16376  23.826  16.338   6.296  0.1237  0.2664 -0.0901
73361W        W16377   6.584  18.969   5.088 -0.0723 -0.1205  0.0593
73362W        W16378  21.808  24.097   5.220  0.3679 -0.1430  0.2273
73363W        W16379   2.382  17.575  24.185 -0.3504  0.3209 -0.0670
73364W        W16380  13.491   7.371   5.643  0.3506  0.1751  0.0165
73365W        W16381  15.651  17.368  24.989  0.3000 -0.1566 -0.2097
73366W        W16382  34.296  11.190   6.061  0.0266  0.1792 -0.1560
73367W        W16383  17.376  23.115   6.376 -0.3998  0.0117  0.0685
73368W        W16384  31.709  20.337  17.962  0.0568 -0.0431  0.1012
73369W        W16385  20.144  33.053   8.524 -0.0216  0.2425 -0.0800
73370W        W16386   3.162  15.146   8.934  0.2936  0.0359 -0.0294
73371W        W16387  10.729  10.724   4.909  0.2750  0.1376 -0.1649
73372W        W16388  33.430  32.708   8.730 -0.2203  0.0775 -0.1199
73373W        W16389   1.675  20.640   8.136 -0.0134  0.1430  0.2672
73374W        W16390   2.115   3.833  28.509  0.2494 -0.2129  0.1270
73375W        W16391   5.065  31.883   2.879 -0.0322 -0.0565 -0.3057
73376W        W16392   8.915  24.486   1.448  0.2141 -0.0028 -0.1311
73377W        W16393  26.618   0.042  28.703  0.2789  0.1005 -0.1395
73378W        W16394   8.279  17.141   8.672  0.0293 -0.3126 -0.2938
73379W        W16395   9.063  11.612  26.479 -0.4026 -0.2156 -0.2716
73380W        W16396  15.674  13.383   4.283  0.2809 -0.1965  0.1336
73381W        W16397  17.943  14.635  19.800  0.2184  0.1676  0.0619
73382W        W16398  25.610  20.978   4.878 -0.0779  0.2117 -0.1840
73383W        W16399   0.262  19.526   8.274 -0.3114 -0.0398 -0.3212
73384W        W16400  11.831  34.404   7.341 -0.1328 -0.0052  0.1401
73385W        W16401  15.478  19.908   4.095 -0.0201  0.1329  0.0661
73386W        W16402  29.155   9.460   6.562 -0.1582  0.0106 -0.0732
73387W        W16403  33.923  13.779   2.990 -0.2265  0.2948 -0.0291
73388W        W16404  18.192   3.886  28.055  0.0445  0.0937  0.1909
73389W        W16405  14.898  14.501   2.287  0.2311  0.0224  0.0280
73390W        W16406  17.964  19.731  28.935 -0.1494  0.2183  0.2905
73391W        W16407   1.142   2.188  23.047 -0.1997  0.0152 -0.0587
73392W        W16408   2.023  19.775   6.210  0.2289  0.0588 -0.0486
73393W        W16409  13.550  21.637  19.216 -0.1880  0.0973 -0.1101
73394W        W16410   1.886  11.086  25.477  0.1790 -0.1306  0.3153
73395W        W16411   8.127  23.582   5.119 -0.2458 -0.0303 -0.0675
73396W        W16412   1.746  29.566  28.030 -0.0688 -0.1282  0.1067
73397W        W16413  31.706  17.436   9.536 -0.0512  0.1213  0.0775
73398W        W16414   1.540  19.676   9.287  0.3599 -0.0478  0.1685
73399W        W16415   9.715  12.222  23.408 -0.0052  0.1602  0.0561
73400W        W16416  28.074  11.840   0.017  0.0548 -0.1183 -0.1277
73401W        W16417  26.643  25.532  10.963 -0.0588 -0.3189 -0.2188
73402W        W16418  12.804  19.727  15.689 -0.2678  0.2300  0.1516
73403W        W16419  32.500  17.276   0.366 -0.0433 -0.0671 -0.2972
73404W        W16420  10.837  18.313  19.720  0.0091 -0.0381 -0.3030
73405W        W16421  33.308  22.109  17.068 -0.4868 -0.1456 -0.0737
73406W        W16422  33.908  16.837   0.478 -0.1677  0.0163  0.1605
73407W        W16423   7.986  33.877  10.580 -0.0432  0.0638  0.2817
73408W        W16424  21.133   0.199  25.380 -0.1064  0.2596  0.0503
73409W        W16425  23.420   2.423   3.245  0.0248  0.2293  0.2579
73410W        W16426  22.844  13.168  15.237 -0.0288 -0.0376  0.1802
73411W        W16427   4.920  33.613  27.678  0.0969 -0.2500  0.0336
73412W        W16428  13.948   7.620   1.892 -0.2071 -0.1247 -0.4393
73413W        W16429  33.603  33.869   8.621  0.0414 -0.2182 -0.0783
73414W        W16430  10.723  21.534  15.682  0.2372  0.1936 -0.3076
73415W        W16431  29.058  20.318   7.902 -0.1257  0.0037  0.2363
73416W        W16432  14.345  31.734   8.422 -0.0369 -0.0670  0.1151
73417W        W16433   5.074  30.868  20.524 -0.2609  0.0836  0.1325
73418W        W16434   1.797  15.590   1.851 -0.1182  0.3260  0.1874
73419W        W16435  33.846  16.109   4.507 -0.0671 -0.1411 -0.2826
73420W        W16436  11.891   1.741  28.981  0.0038  0.1837 -0.0637
73421W        W16437   1.948  25.072   0.702  0.0348 -0.4789 -0.0374
73422W        W16438   8.421  12.715   2.894  0.3535  0.4537  0.1748
73423W        W16439   5.114  24.392  25.130  0.4405  0.3234  0.1966
73424W        W16440  29.395   2.606  20.876 -0.1136  0.2361 -0.4544
73425W        W16441   8.810  33.549  10.552  0.2129  0.1874 -0.4289
73426W        W16442  28.918  33.568  26.772  0.0443  0.0732  0.0279
73427W        W16443  32.130  26.166  18.681 -0.0862  0.0495  0.0110
73428W        W16444  25.739  21.370   2.164  0.0222  0.2704 -0.3249
73429W        W16445  32.204  10.662   5.416  0.2200 -0.2634 -0.2166
73430W        W16446   9.436  18.267   7.639  0.0489 -0.2235 -0.0086
73431W        W16447   9.166   0.691   2.636 -0.0554  0.2770 -0.1623
73432W        W16448   9.201  20.377   2.466  0.1588  0.0765 -0.1703
73433W        W16449  12.001  20.843  27.914  0.0851  0.4393 -0.3288
73434W        W16450   2.934  13.332   3.801  0.0604  0.0705  0.1303
73435W        W16451  33.699   3.876   1.518  0.1005 -0.4723 -0.0745
73436W        W16452  22.688  24.995   6.213 -0.2533  0.2233  0.0232
73437W        W16453  20.747  26.895   6.712 -0.0371  0.0426  0.2796
73438W        W16454  18.265   7.912   0.827 -0.1760 -0.0048  0.1246
73439W        W16455   2.591  30.556  17.767 -0.0818  0.0525  0.0054
73440W        W16456   8.317  29.092   1.340  0.0219 -0.1283 -0.0967
73441W        W16457   8.292  20.480   4.630 -0.2382 -0.0090  0.0981
73442W        W16458  13.949  18.793  19.722  0.0414 -0.0023  0.0380
73443W        W16459   5.128   0.981  14.857  0.1563 -0.1689  0.2289
73444W        W16460   0.667  31.299   5.276  0.1175 -0.0543 -0.1076
73445W        W16461  29.848  31.092  26.673  0.1336  0.3521  0.0248
73446W        W16462  12.820  28.716   1.497 -0.0768  0.0790 -0.1455
73447W        W16463   8.958   4.585   3.634 -0.2628 -0.2753  0.0361
73448W        W16464  11.999  21.979   7.877 -0.0264 -0.1700  0.0777
73449W        W16465  26.378  10.042   9.714 -0.0293  0.0151  0.1393
73450W        W16466   3.494  16.265  26.270 -0.1078  0.0337 -0.0359
73451W        W16467  30.600   9.870  15.391 -0.2684 -0.3030 -0.0267
73452W        W16468   5.026  23.178   5.204 -0.0278  0.0742  0.2302
73453W        W16469   4.247  16.188  28.778 -0.1525  0.0895  0.1336
73454W        W16470   6.269  13.702  18.926  0.0612  0.0076  0.0149
73455W        W16471  30.258   3.114  27.274  0.1982  0.1456 -0.0448
73456W        W16472  14.735   9.242  27.631  0.0356 -0.2458  0.2287
73457W        W16473   6.433  30.815   5.002  0.1865 -0.3536  0.0390
73458W        W16474   3.707  16.329   8.313 -0.1000  0.1438 -0.1851
73459W        W16475   4.525  24.650  23.193 -0.0515  0.0373 -0.0490
73460W        W16476  12.162   8.792  29.084 -0.0078 -0.0734 -0.1580
73461W        W16477  14.968  25.700  23.909 -0.1245 -0.2104  0.0751
73462W        W16478   7.689  20.642  16.186  0.0472  0.0028  0.2739
73463W        W16479   3.167   0.915   4.869  0.1612  0.2630 -0.0906
73464W        W16480  21.163  30.671   9.044  0.0471 -0.4127 -0.1343
73465W        W16481  27.044  29.156  10.100  0.1868 -0.1312  0.0909
73466W        W16482  10.946  24.947   1.094 -0.1635  0.1034  0.0852
73467W        W16483  31.639  31.380   5.382  0.0754  0.1086 -0.0148
73468W        W16484  33.810  18.553  27.423  0.1742  0.0886  0.2544
73469W        W16485   1.801  24.290   5.186 -0.1234 -0.2381  0.0304
73470W        W16486   8.909  18.128   8.139  0.0310 -0.2112 -0.0701
73471W        W16487   7.030  27.951  27.092  0.1768 -0.0917 -0.1701
73472W        W16488   5.909   8.144   9.724  0.1072  0.0673 -0.0882
73473W        W16489   0.509  17.464   7.678  0.1231 -0.0366  0.1231
73474W        W16490  22.179  11.937   7.746  0.3693  0.2525  0.3866
73475W        W16491   0.116  24.254  26.535 -0.2793 -0.1607 -0.0573
73476W        W16492  26.086  22.533  26.901  0.0401  0.0070 -0.0416
73477W        W16493   9.927  29.204   4.320  0.2240 -0.3176  0.1262
73478W        W16494  13.508   5.432   2.481  0.3994 -0.0845 -0.2160
73479W        W16495   1.435   9.920   8.460  0.0449  0.0784 -0.1367
73480W        W16496  21.798  28.119   7.819  0.0067  0.0892 -0.1246
73481W        W16497   4.102  20.803  28.231  0.0126 -0.0891  0.0262
73482W        W16498   9.464  14.007  25.077  0.0172 -0.0317 -0.0477
73483W        W16499   9.047   5.970   6.722 -0.4130  0.0889  0.0171
73484W        W16500   3.133  15.579   5.940  0.1703 -0.3018 -0.3009
73485W        W16501  32.465  27.717  10.227 -0.0430 -0.2368  0.2304
73486W        W16502  26.392  20.043   0.377  0.0201  0.0184  0.0563
73487W        W16503  23.141  18.108  14.411 -0.2098  0.2460  0.0449
73488W        W16504  29.803  15.759   3.009  0.0406 -0.2508 -0.1201
73489W        W16505   3.406  33.854  18.493 -0.2074 -0.2040 -0.2627
73490W        W16506  10.117  23.497   7.855  0.0367 -0.1877  0.3954
73491W        W16507  16.058   7.985  23.190  0.0307  0.0507  0.1487
73492W        W16508   6.375  16.572  28.923  0.1953  0.1782 -0.0102
73493W        W16509  32.973  29.509   5.984 -0.1371  0.2802 -0.2900
73494W        W16510   4.707  23.675   6.926  0.1266 -0.0905 -0.1333
73495W        W16511  33.637  22.956   9.314  0.0644  0.4014 -0.0946
73496W        W16512  18.844  33.318   2.572  0.2644  0.1952  0.2071
73497W        W16513  34.573  23.356   2.322  0.1040  0.1215  0.1915
73498W        W16514   1.074  33.376  14.934  0.1513 -0.2497  0.2321
73499W        W16515   2.445  11.520  19.502 -0.2327  0.1385 -0.0888
73500W        W16516   6.426  18.615   3.373 -0.0059  0.1162 -0.4954
73501W        W16517   6.034  25.144   8.857  0.0544  0.2370  0.3127
73502W        W16518  17.374  22.279  21.200 -0.1720  0.2532  0.3425
73503W        W16519   9.325  21.286   1.038 -0.1007  0.3120  0.3048
73504W        W16520  12.844  10.489  17.361 -0.1056  0.1017  0.4859
73505W        W16521   9.604   7.267  26.407 -0.0822  0.2039  0.3070
73506W        W16522  18.687  33.991   6.420 -0.0332 -0.1471 -0.0298
73507W        W16523  11.058  31.999   7.868 -0.0309  0.2031  0.1448
73508W        W16524   5.869  10.972   0.146  0.0039 -0.2339  0.1728
73509W        W16525   7.152  15.150   0.251  0.0129  0.0001  0.0788
73510W        W16526  31.428  31.256  11.297  0.1786 -0.0033 -0.1254
73511W        W16527  31.071  24.199   6.111  0.2291 -0.0532 -0.2879
73512W        W16528   1.293  33.858   6.983  0.2540 -0.0760  0.0115
73513W        W16529  25.347  34.746  27.566  0.1981  0.1456 -0.0444
73514W        W16530   8.579  15.863  29.136 -0.1175  0.3844  0.3388
73515W        W16531   8.872   0.493   3.287  0.0482  0.0047  0.0819
73516W        W16532   3.646  32.556   0.487 -0.2490  0.2584  0.0247
73517W        W16533  14.534  20.489   2.640  0.1070  0.1720  0.1142
73518W        W16534  17.470  24.999  22.889 -0.0540  0.1861  0.0040
73519W        W16535  33.415  17.890  16.298 -0.4984 -0.0747  0.0581
73520W        W16536  13.465  19.802   4.422 -0.1395  0.0646  0.2178
73521W        W16537  12.240  20.958  24.828  0.3323  0.2030 -0.1553
73522W        W16538  18.365  30.679  23.962 -0.0539 -0.0691  0.2349
73523W        W16539  12.035  30.024   6.901  0.0290 -0.2201 -0.2234
73524W        W16540  10.612  14.210  13.454 -0.0169 -0.0104 -0.1777
73525W        W16541   1.899  19.139   8.099 -0.0408  0.2240  0.0734
73526W        W16542  14.643  13.236   1.188 -0.1879 -0.0436  0.0710
73527W        W16543  29.992   8.832  15.836  0.0150 -0.4157 -0.2391
73528W        W16544  32.004  33.271   8.901 -0.1787  0.2162 -0.1981
73529W        W16545  19.101  17.553  27.496 -0.3835  0.0187  0.2048
73530W        W16546  19.797  22.596   7.424 -0.0943  0.1530  0.1824
73531W        W16547  12.337  15.259  26.284  0.1106  0.2389  0.0403
73532W        W16548  33.162   8.764   2.566 -0.2932 -0.0348  0.1087
73533W        W16549  33.286  27.011  25.195 -0.2815  0.2427 -0.0829
73534W        W16550  27.580  31.094  24.959 -0.0522  0.0042 -0.0933
73535W        W16551   5.420  19.754   4.001 -0.1444  0.1035 -0.0583
73536W        W16552  10.857  19.805   2.837  0.0564  0.3503  0.0518
73537W        W16553   5.318  30.282  26.636 -0.0686  0.0070 -0.1731
73538W        W16554   4.125  14.369   1.119 -0.0361 -0.1631  0.2385
73539W        W16555   5.940  33.523   9.346  0.1505 -0.0403 -0.0238
73540W        W16556   3.941   2.303   7.060  0.1940 -0.2735 -0.0161
73541W        W16557   7.959   3.458   7.684  0.3850 -0.2734 -0.0352
73542W        W16558  29.538  29.750   3.521 -0.0097 -0.2655 -0.0821
73543W        W16559   7.489  28.069   6.548  0.1121  0.0066 -0.0095
73544W        W16560  28.214   8.167  23.703  0.1864  0.0191  0.1514
73545W        W16561   8.055   1.337   2.992 -0.3379  0.4191 -0.1845
73546W        W16562  18.676  28.501   6.736  0.1982  0.1186 -0.0475
73547W        W16563  10.983  33.962   6.895 -0.1393  0.3165 -0.0068
73548W        W16564  29.730  25.506  23.258 -0.0759 -0.2679  0.3313
73549W        W16565  27.792  21.086   7.113  0.2805 -0.0699 -0.0061
73550W        W16566  12.885  28.506   2.553  0.0959  0.2180  0.0827
73551W        W16567  31.351  28.832  27.459 -0.2977 -0.2666  0.0728
73552W        W16568  11.918  14.116   3.716  0.1161  0.0212  0.0785
73553W        W16569   0.452  15.786   1.089 -0.0470 -0.3358  0.1002
73554W        W16570   8.938  18.821  16.676 -0.0342 -0.4065 -0.5082
73555W        W16571  27.529  17.353   7.974 -0.2136 -0.0109 -0.0688
73556W        W16572  11.605  28.116   5.257  0.0030 -0.2260  0.0771
73557W        W16573  28.900  26.458   7.226 -0.2101 -0.2872  0.1060
73558W        W16574  33.415   2.377   2.268 -0.0641  0.1232 -0.0961
73559W        W16575   9.410   1.138  22.035 -0.1849  0.0479 -0.1460
73560W        W16576  10.044  28.994   5.720  0.1256 -0.1688 -0.0383
73561W        W16577   3.951  16.964   9.902  0.0894  0.3114 -0.0451
73562W        W16578   2.570  21.169   5.635  0.2085  0.0550 -0.0557
73563W        W16579  17.801  26.252  20.262 -0.3256  0.0619  0.1714
73564W        W16580  12.419  25.484   6.682  0.3347  0.0686  0.3730
73565W        W16581  26.378  33.266   9.617  0.0248 -0.1410 -0.0934
73566W        W16582   0.928  14.234   9.840  0.0280 -0.0214  0.1218
73567W        W16583  24.523   4.205  29.011  0.0616 -0.0775  0.1116
73568W        W16584  28.769  17.641   1.492  0.3385 -0.2151 -0.0267
73569W        W16585  30.594  11.796   2.844 -0.0390 -0.0719 -0.0881
73570W        W16586  10.611  21.941  22.847 -0.4206  0.1492  0.2360
73571W        W16587   9.984   8.692  29.282  0.0937 -0.0990  0.1018
73572W        W16588   4.333  26.338  28.112 -0.0938 -0.0806  0.1582
73573W        W16589  10.070  14.800   5.989 -0.3288 -0.3131 -0.0605
73574W        W16590  34.437  17.710   4.326  0.0626  0.1724  0.2003
73575W        W16591  19.526   1.808  17.166  0.1762  0.0380  0.2621
73576W        W16592  11.641  29.475   5.037  0.1086 -0.0822 -0.1259
73577W        W16593  30.858   0.173  10.022  0.0113 -0.1370 -0.3542
73578W        W16594  23.878   7.890   0.257  0.1312 -0.3118 -0.1762
73579W        W16595  17.940  20.561  14.966 -0.0401  0.1963  0.0772
73580W        W16596   4.295  17.831   6.237 -0.1632 -0.0353 -0.1349
73581W        W16597  30.968  25.092  10.961  0.1368  0.0973 -0.2084
73582W        W16598  23.786   1.142   8.339 -0.0656  0.0972  0.0009
73583W        W16599   4.271  24.080   0.276  0.3366 -0.2784  0.4088
73584W        W16600   9.200  31.393  17.093 -0.2815 -0.0286  0.0176
73585W        W16601  29.484  26.841   1.319  0.1782 -0.0953  0.2007
73586W        W16602  23.167  33.629   6.326 -0.3581  0.0072 -0.0795
73587W        W16603  22.277  15.576  23.854 -0.0161 -0.4028 -0.2787
73588W        W16604   0.386  31.128  28.971 -0.3170 -0.3771  0.1244
73589W        W16605   2.629  21.035   9.232 -0.2574 -0.1962  0.4437
73590W        W16606  11.609  10.676   2.659  0.1731 -0.0149 -0.2680
73591W        W16607   0.580  24.423   8.972 -0.1535 -0.4737  0.3276
73592W        W16608   2.573   5.093  23.608 -0.1010  0.0636  0.1589
73593W        W16609  10.817  27.124  26.501  0.0668 -0.1553  0.1828
73594W        W16610   2.594   6.837   7.413  0.1022  0.1573 -0.4329
73595W        W16611  15.159  27.065   6.780  0.2507 -0.2264 -0.0561
73596W        W16612  30.600  13.483   7.331  0.0043  0.0327 -0.0241
73597W        W16613   6.706  16.111   1.125 -0.1437  0.0097  0.0175
73598W        W16614  34.765  14.819  10.121 -0.1892 -0.1105 -0.0004
73599W        W16615  30.188   4.009   0.245 -0.0446 -0.0301  0.3009
73600W        W16616  15.723  29.152   9.313  0.2372 -0.0843  0.1855
73601W        W16617   5.917  32.275  25.142  0.0831  0.0816 -0.0078
73602W        W16618   4.349  21.071   6.959 -0.3329  0.0083 -0.0142
73603W        W16619   2.589  29.410   3.244 -0.1368  0.3680  0.2781
73604W        W16620  17.592  17.344  20.424 -0.3428 -0.1792 -0.2792
73605W        W16621  10.056  26.821   9.517  0.3347 -0.2504 -0.0175
73606W        W16622  22.917   9.913   9.040  0.3014  0.1143 -0.2556
73607W        W16623  29.102  18.450   1.961  0.2033  0.2471 -0.1259
73608W        W16624  21.584  23.835   8.737  0.3320  0.3944  0.1162
73609W        W16625  12.596  32.777   4.869 -0.3002  0.0253  0.3023
73610W        W16626   4.973   4.686   2.938 -0.1368 -0.0872 -0.0471
73611W        W16627   8.118  26.001   2.786 -0.1109  0.1595  0.0369
73612W        W16628   9.969  21.652  23.511 -0.0841  0.4143 -0.4184
73613W        W16629  22.044  21.958  27.269 -0.0261  0.1753  0.0226
73614W        W16630   4.170  19.632   3.742 -0.1651  0.1124  0.0792
73615W        W16631   7.686  24.909   6.850  0.2499  0.3454  0.0647
73616W        W16632  30.740  21.672  10.046  0.0850 -0.0917 -0.1418
73617W        W16633  32.624  16.747   5.489 -0.2254 -0.1213 -0.2316
73618W        W16634  13.274  30.029   9.075 -0.0151  0.1200 -0.0415
73619W        W16635  10.149  25.410  20.880  0.1899  0.1433 -0.0333
73620W        W16636  33.546  10.481   2.952  0.0645  0.0502 -0.0655
73621W        W16637   5.390  19.742   2.492  0.0584 -0.0977 -0.1944
73622W        W16638  30.524  29.145  28.905  0.2671 -0.0902 -0.1206
73623W        W16639  16.575  19.451  26.279  0.2227 -0.0263 -0.0494
73624W        W16640  18.375  14.681  22.108  0.1447  0.2819 -0.2938
73625W        W16641   5.114  23.944  24.157  0.2584 -0.0534  0.2334
73626W        W16642  13.833   3.055  22.572  0.0368  0.0212 -0.5987
73627W        W16643  16.558  12.422   5.428 -0.0209  0.4130  0.0482
73628W        W16644  34.771  18.311  23.225 -0.2901  0.0236  0.2262
73629W        W16645   2.822  30.217  28.681 -0.0303  0.2536  0.1499
73630W        W16646  13.609   9.223   9.072 -0.1561  0.2927 -0.1160
73631W        W16647  10.820  19.147   3.978  0.0602 -0.1091  0.2739
73632W        W16648   7.851  17.295   6.519  0.3238  0.2275  0.3612
73633W        W16649   3.608  22.214   2.074  0.2510 -0.0876 -0.0027
73634W        W16650   6.034  13.281   2.663 -0.3733 -0.4162  0.3066
73635W        W16651   3.552  10.674  10.213  0.0080  0.1104  0.4143
73636W        W16652  11.191  25.752   5.657  0.0123  0.1517 -0.0919
73637W        W16653   6.700   0.432   5.666  0.0694  0.1172  0.0229
73638W        W16654   1.979  28.074   7.254  0.0542  0.0105 -0.2681
73639W        W16655   2.361  33.771   4.702  0.0017  0.0307  0.1017
73640W        W16656   0.875   9.721  10.027 -0.2465  0.2489 -0.4667
73641W        W16657  28.205  24.003  17.710  0.1993  0.1089  0.2421
73642W        W16658  33.249  30.766  28.203  0.1268 -0.0831  0.1480
73643W        W16659   6.474  12.465   5.736 -0.0487 -0.0675  0.1794
73644W        W16660  13.019  26.213   5.435  0.3263  0.0348  0.1372
73645W        W16661  10.668   6.020  28.860  0.0777 -0.0323  0.0455
73646W        W16662  13.054  19.413  28.386  0.0414 -0.1858 -0.2281
73647W        W16663  29.275  22.512   9.280  0.5111 -0.0825  0.3700
73648W        W16664  11.556  27.968   3.108 -0.0297  0.1781  0.3369
73649W        W16665  18.258   1.782   5.696 -0.0267  0.2638  0.1330
73650W        W16666  31.674   2.842   5.567  0.0936 -0.1051  0.1241
73651W        W16667  16.678  20.676  20.373 -0.1184  0.0067 -0.0986
73652W        W16668  14.126  16.258   0.480 -0.4650  0.0575 -0.2421
73653W        W16669  12.704  15.601   2.179  0.0507 -0.0188  0.1726
73654W        W16670  10.626  13.538  25.657  0.0386  0.2102 -0.2331
73655W        W16671  11.386  34.210   6.040  0.1404  0.1213 -0.0686
73656W        W16672  12.872  21.647  21.784  0.2650 -0.1706 -0.2269
73657W        W16673   2.088  22.030   2.693 -0.1290  0.1820  0.3283
73658W        W16674  10.396  22.872  26.724 -0.1595  0.0046  0.1067
73659W        W16675  11.460  23.652   8.104  0.1114  0.0767  0.2129
73660W        W16676   0.343   3.643   1.665  0.1710 -0.0805 -0.1371
73661W        W16677  27.504   7.015  23.374  0.2971  0.1651  0.1958
73662W        W16678   4.232  21.767   5.373  0.0049  0.1415 -0.4329
73663W        W16679  32.670  29.854   0.031 -0.0307 -0.1849 -0.2212
73664W        W16680  29.519  21.969   5.837 -0.2014  0.0552 -0.0462
73665W        W16681  33.104  28.612  26.115 -0.2632 -0.2093 -0.0052
73666W        W16682  12.369  20.132  29.195 -0.0493 -0.1147  0.1390
73667W        W16683   3.628  20.939  28.308  0.2585 -0.1791 -0.2403
73668W        W16684   9.962  30.590   8.536 -0.4679  0.0526  0.0351
73669W        W16685  16.779  20.500   0.530 -0.0656 -0.1236 -0.1762
73670W        W16686   1.455  11.520   7.964 -0.0552  0.0431 -0.1888
73671W        W16687  22.090   7.531   4.818  0.0757 -0.1191  0.0040
73672W        W16688   1.818  22.643   1.124 -0.2340 -0.0573 -0.1076
73673W        W16689   8.578  34.523   9.901  0.1465 -0.0759  0.0158
73674W        W16690  17.415  23.975   5.138  0.2545 -0.2094 -0.0520
73675W        W16691  32.665   6.565  10.454  0.2722  0.1096  0.2193
73676W        W16692   2.080  26.454   0.678 -0.0243  0.2082 -0.1816
73677W        W16693   7.421  25.757   1.950  0.3462 -0.0054 -0.4394
73678W        W16694   4.468  19.879  28.493 -0.1435 -0.0169  0.1118
73679W        W16695   4.437  23.980   9.096 -0.1091  0.2253 -0.1320
73680W        W16696  21.773  18.069   1.630  0.1933  0.1595 -0.1054
73681W        W16697  34.288  19.213   3.170  0.3438 -0.0979 -0.0843
73682W        W16698  10.205  13.724   1.679  0.1714 -0.0938  0.2365
73683W        W16699  33.418  34.573   3.410  0.0364 -0.0339 -0.2341
73684W        W16700   1.739  30.959  20.145  0.0116 -0.0043  0.1401
73685W        W16701  34.127  33.390  25.300 -0.1683 -0.0584 -0.0352
73686W        W16702  28.405  27.668   2.600  0.1135  0.0675  0.3447
73687W        W16703   0.582  23.813   7.446  0.1196 -0.0778 -0.1095
73688W        W16704   3.252  23.095  27.701 -0.3510 -0.0403  0.1340
73689W        W16705   8.332  25.172   4.563  0.2184 -0.1010  0.3610
73690W        W16706   5.361  24.582   8.306 -0.2217  0.0597  0.1515
73691W        W16707   3.487  13.103   4.626  0.2568 -0.1195 -0.0543
73692W        W16708  11.938  22.588   4.619 -0.0173 -0.0917 -0.0997
73693W        W16709   1.845   8.453   4.208  0.1496  0.0171 -0.2567
73694W        W16710  32.793  26.383  24.276  0.2814 -0.0316 -0.2047
73695W        W16711   2.310  29.910   4.675  0.0521  0.4164  0.0398
73696W        W16712  13.937  18.737  26.224 -0.0015 -0.0355  0.0439
73697W        W16713  10.200  30.885  28.913  0.1277 -0.0055  0.1434
73698W        W16714   6.900  28.623   0.565 -0.2705 -0.0383  0.0099
73699W        W16715  12.757  24.137  24.556 -0.0405  0.1218 -0.0072
73700W        W16716   2.849  26.650   5.143 -0.0987  0.2192 -0.5034
73701W        W16717  30.768  26.500   4.831 -0.2770  0.0186  0.1258
73702W        W16718  12.561  33.846   4.358 -0.2523  0.1358  0.1775
73703W        W16719  14.149  13.970  26.687  0.0048 -0.1766  0.0213
73704W        W16720   7.728  13.602   3.573  0.0201  0.0219 -0.1028
73705W        W16721   3.483  26.495   1.507  0.0883 -0.3483 -0.3615
73706W        W16722   2.144  29.394  26.212 -0.2861 -0.1781 -0.1183
73707W        W16723   5.192   3.064   2.089  0.2391  0.0707 -0.1308
73708W        W16724   0.191  10.467   7.772  0.0527 -0.1704  0.1327
73709W        W16725  19.888  29.698   7.166  0.4027 -0.3247 -0.0934
73710W        W16726  10.280  28.624   7.260 -0.1203 -0.2912  0.0499
73711W        W16727  30.987  22.048   1.223  0.2923  0.0575  0.0259
73712W        W16728   9.941  13.050   6.371 -0.0508 -0.3402 -0.0900
73713W        W16729   9.940  29.731  25.777 -0.1468  0.1058  0.1365
73714W        W16730  33.189  24.450   6.390  0.1221  0.0972  0.1781
73715W        W16731   9.934   2.828  28.827  0.1195  0.1781 -0.2359
73716W        W16732   0.636  18.104   8.656  0.0079  0.1702  0.2469
73717W        W16733   2.902  15.217  24.011 -0.1977  0.0449  0.1554
73718W        W16734   1.095  33.592  10.355 -0.1529  0.3557 -0.0077
73719W        W16735  13.896   6.248   7.024  0.0315 -0.0971 -0.3330
73720W        W16736   0.241  19.140   9.854 -0.1026  0.0425 -0.5435
73721W        W16737  28.566  18.887   4.154  0.5011  0.0316  0.2784
73722W        W16738  19.449  33.413  25.618 -0.1202  0.3761 -0.2055
73723W        W16739  19.399   1.436   1.970 -0.0253  0.1017  0.1702
73724W        W16740   0.749   0.328   5.595 -0.0349  0.0030 -0.0260
73725W        W16741  11.761  13.493   6.501 -0.1465 -0.2813  0.2276
73726W        W16742   5.301   1.648  23.078 -0.2053  0.0391 -0.0041
73727W        W16743  17.405  12.430  19.496 -0.4858 -0.0129  0.0709
73728W        W16744  10.548  18.287   3.175 -0.2394  0.0379 -0.1671
73729W        W16745  33.344   5.214   8.773  0.1735 -0.3581 -0.0933
73730W        W16746  12.320  19.114  27.487  0.0727  0.0692  0.1554
73731W        W16747  16.012  20.703   3.853 -0.0252  0.0729 -0.1554
73732W        W16748  12.350  27.036   7.900  0.1082  0.1102 -0.1269
73733W        W16749  17.320  29.085   5.579  0.0149 -0.1363 -0.1374
73734W        W16750   0.248   1.916  26.994  0.2304  0.0950  0.0058
73735W        W16751  11.792  30.386   5.914 -0.1708 -0.0219 -0.1971
73736W        W16752   7.553   1.935   1.283 -0.0121  0.1663 -0.0932
73737W        W16753  11.013  21.902  17.357 -0.2499  0.0140 -0.1602
73738W        W16754  29.523   0.102   7.399  0.1271 -0.0709 -0.0078
73739W        W16755  12.452  14.885   2.782 -0.2673  0.0790 -0.0065
73740W        W16756   6.863  20.377  22.445 -0.3189 -0.1160 -0.0098
73741W        W16757   4.543   4.845  16.803  0.0217 -0.0597  0.0068
73742W        W16758  24.426   5.154   6.075 -0.3950 -0.5205 -0.0087
73743W        W16759   3.260  23.522   6.741 -0.0537  0.0504 -0.0394
73744W        W16760   2.383  16.141   6.096  0.3870 -0.0336  0.0396
73745W        W16761   4.790  28.682   7.334 -0.0431 -0.0540  0.0160
73746W        W16762  14.779  14.978   1.557  0.0117  0.0105  0.1099
73747W        W16763   2.342   8.200  23.541 -0.0447  0.1738 -0.0657
73748W        W16764   2.353  28.574  24.029 -0.0524 -0.2561 -0.2883
73749W        W16765   6.987   1.523  28.691  0.1749  0.0765 -0.3750
73750W        W16766   8.017   7.907   9.720 -0.0748 -0.3545 -0.0094
73751W        W16767   8.223  22.132   8.897 -0.0504 -0.1225 -0.0373
73752W        W16768   5.215  26.425  24.057 -0.0624 -0.0421 -0.2137
73753W        W16769   8.188  14.256  23.789  0.0415 -0.0715  0.5404
73754W        W16770  11.091  27.839   3.529 -0.0493  0.1400 -0.1929
73755W        W16771   0.802  22.660  29.311 -0.0452  0.2581  0.1548
73756W        W16772  17.297  14.182   5.251  0.5349 -0.0103  0.3701
73757W        W16773   1.232  28.159   3.675 -0.1322  0.0882  0.0028
73758W        W16774  14.827   0.865   7.937 -0.1117  0.0353 -0.1603
73759W        W16775  11.935   2.233   4.389 -0.4818  0.0163  0.3158
73760W        W16776  33.178  23.499  20.381  0.3188 -0.1100 -0.0587
73761W        W16777  29.860   7.969  27.295 -0.1503 -0.1394 -0.0404
73762W        W16778  11.667   2.639   7.801 -0.4001 -0.3500  0.0589
73763W        W16779  13.898  24.096  22.782  0.1666 -0.1775  0.0853
73764W        W16780   2.253   0.934  28.139  0.1263 -0.2096 -0.2113
73765W        W16781  15.441  17.135   0.987 -0.4757 -0.0734  0.2192
73766W        W16782  29.330  30.456   3.416  0.0405  0.0112 -0.0049
73767W        W16783  11.780   1.413   2.982 -0.2313 -0.0732 -0.2174
73768W        W16784   9.007   0.284   2.861  0.0306  0.1384  0.0284
73769W        W16785   1.136  15.882  10.415  0.0501  0.1467 -0.0293
73770W        W16786   4.021  25.317   7.309  0.0305 -0.0460  0.0358
73771W        W16787   2.638  14.812   0.277  0.0905  0.1983  0.0082
73772W        W16788  29.326  31.419  27.639 -0.1405 -0.0472  0.1066
73773W        W16789   8.870  15.622   8.537  0.1288 -0.0225  0.1583
73774W        W16790  12.352  20.728   6.112 -0.3096  0.1279  0.2525
73775W        W16791   3.512  16.432  25.425 -0.1721 -0.4304  0.0310
73776W        W16792  15.357  10.701   7.381 -0.1953 -0.0509  0.1984
73777W        W16793   8.363  31.335  27.498 -0.1649 -0.3765 -0.2232
73778W        W16794  11.376  12.058   2.594 -0.2922  0.3410  0.0262
73779W        W16795   8.569  24.069   6.901 -0.1258 -0.1427 -0.0777
73780W        W16796   3.936   8.018   7.136 -0.0855  0.1843 -0.0723
73781W        W16797   0.278  29.740   6.134  0.0698  0.1063  0.0195
73782W        W16798  13.920  17.766  28.585  0.1236  0.0964  0.0252
73783W        W16799  27.337  32.091  11.032 -0.3465  0.0070  0.0401
73784W        W16800  25.548  16.536   2.068 -0.5439  0.1981  0.1570
73785W        W16801  28.625   6.931   8.245  0.0200 -0.2049 -0.0454
73786W        W16802  16.437  23.435   7.856  0.2416 -0.1680 -0.0605
73787W        W16803  22.006   1.914   7.763 -0.0842  0.0891  0.0045
73788W        W16804  13.658  23.452   8.493 -0.1962 -0.2292 -0.1352
73789W        W16805  34.649  12.369   2.594 -0.0365 -0.1337  0.0811
73790W        W16806  33.646  30.559  28.993 -0.0217  0.0338 -0.0559
73791W        W16807   2.785  14.870  16.580 -0.4804  0.0714 -0.1323
73792W        W16808   8.146  14.317  24.362  0.1563 -0.0813  0.1899
73793W        W16809   9.615  24.654   0.232  0.1077 -0.1241 -0.3885
73794W        W16810  12.829  20.935   6.083 -0.0377 -0.3399  0.0197
73795W        W16811  18.684  10.433   4.619 -0.2959  0.0959 -0.0014
73796W        W16812   2.811  20.097   9.488  0.3069  0.0060 -0.0817
73797W        W16813  16.419  26.785  29.054 -0.0769  0.0117  0.1819
73798W        W16814  10.416  12.196  19.024 -0.2279  0.0016  0.0117
73799W        W16815  11.621  33.335   5.817  0.0968  0.0459 -0.3306
73800W        W16816   8.300  20.126   0.543  0.2777  0.3653 -0.3714
73801W        W16817   4.920  31.503   9.031 -0.1172 -0.1734 -0.1271
73802W        W16818  31.306   0.283   6.400 -0.3445  0.2186 -0.3246
73803W        W16819  10.565   0.354   5.446  0.1583  0.1985 -0.1916
73804W        W16820   7.447  27.417   4.149  0.0223 -0.1231  0.1370
73805W        W16821  33.329  21.630   1.946 -0.0169 -0.1926 -0.1785
73806W        W16822  14.296  22.382  28.661 -0.0818 -0.1407 -0.2389
73807W        W16823   0.495  31.812   0.860 -0.3086 -0.1824  0.0476
73808W        W16824  10.004  26.357   6.088 -0.0174 -0.1160  0.3623
73809W        W16825  14.611  20.959   1.584 -0.0267 -0.3870 -0.2851
73810W        W16826   1.834  22.207   3.133 -0.0237 -0.2344 -0.1528
73811W        W16827   5.231  26.152   4.695 -0.0384 -0.0425  0.1421
73812W        W16828  26.712  25.630  27.311  0.1518 -0.2887 -0.0701
73813W        W16829   6.562  25.557  27.626 -0.1433 -0.1119 -0.2132
73814W        W16830  30.480  34.052   3.093 -0.2819  0.0540  0.2074
73815W        W16831  30.837  19.220   3.873 -0.1902  0.0033 -0.1608
73816W        W16832   2.715  17.831   5.982 -0.2177 -0.0445 -0.1111
73817W        W16833  29.461  21.767   7.024 -0.2004  0.0854 -0.0527
73818W        W16834  27.419  11.533  28.844  0.2391 -0.1414 -0.1807
73819W        W16835   3.974  23.615   2.828 -0.0776 -0.1800  0.5170
73820W        W16836  21.815  32.677  14.768 -0.1512  0.0901 -0.3526
73821W        W16837   3.417   3.481   8.585  0.2363 -0.1776 -0.4198
73822W        W16838  15.152   5.923  21.552  0.0726 -0.0479 -0.2281
73823W        W16839  33.670  31.117   6.793  0.1445 -0.1862 -0.2778
73824W        W16840  33.539  17.210   1.727  0.1803 -0.1666 -0.3733
73825W        W16841   4.335   6.703   4.253 -0.0894 -0.1162 -0.0170
73826W        W16842   7.524  27.962  26.902  0.0115 -0.0627  0.1495
73827W        W16843  26.114  18.220   8.033 -0.1018  0.2178  0.0991
73828W        W16844  26.016  31.198  28.324  0.0008  0.3354 -0.2899
73829W        W16845   5.255  11.386  25.834 -0.1680 -0.1107 -0.0689
73830W        W16846  15.201  15.665   7.423 -0.0588 -0.3346 -0.2694
73831W        W16847   0.175  22.184   7.308 -0.0706 -0.1904 -0.0392
73832W        W16848   0.215  24.444  24.488 -0.1937 -0.2503 -0.0664
73833W        W16849   6.482  15.919   0.135  0.1633  0.1166 -0.3571
73834W        W16850   0.021  22.411   9.764 -0.0374 -0.0987 -0.0786
73835W        W16851   3.088  27.010  10.238  0.1294 -0.4406  0.0803
73836W        W16852   3.593  24.690   5.744  0.0083 -0.3118  0.2453
73837W        W16853   5.581  30.417   7.623 -0.1427  0.0235 -0.0506
73838W        W16854   0.701  24.197   0.402 -0.3066  0.2954  0.0534
73839W        W16855  10.582  29.925   3.745 -0.0913 -0.1658  0.1217
73840W        W16856  33.849  17.454   7.933  0.0268  0.0636 -0.0665
73841W        W16857   7.367  26.898   8.639 -0.1443 -0.2443  0.0676
73842W        W16858  34.591  23.918   1.432  0.2179  0.0268 -0.2053
73843W        W16859  13.121  22.585   3.176 -0.1415 -0.1043 -0.0674
73844W        W16860   0.684  27.027  15.463  0.2995  0.1050  0.1512
73845W        W16861   0.102  28.580  26.265 -0.0549 -0.1882 -0.0793
73846W        W16862   6.853  12.463   8.934 -0.0016  0.2026  0.1018
73847W        W16863   6.740  20.993  25.772  0.2532  0.0504  0.1634
73848W        W16864   8.446  32.687   6.342  0.1642  0.0864 -0.0033
73849W        W16865  16.908  27.729   7.738 -0.0458 -0.0271  0.1835
73850W        W16866   9.133  18.226   2.887 -0.0986 -0.0233 -0.1134
73851W        W16867  12.477   3.823   7.162  0.0224  0.4065  0.2800
73852W        W16868   2.002  14.695   8.490  0.1742 -0.1420  0.0781
73853W        W16869  10.569   9.185  26.365  0.2657 -0.0018  0.1659
73854W        W16870   2.946  26.206   4.915 -0.1665  0.0405 -0.0581
73855W        W16871   2.034   5.363  28.637  0.2772 -0.0063 -0.3570
73856W        W16872  12.626   8.986  14.615 -0.0471  0.1105 -0.0053
73857W        W16873  34.265  18.755   8.808  0.0932 -0.0495 -0.0989
73858W        W16874  13.987  17.125  25.805 -0.2216  0.0391  0.0397
73859W        W16875  25.802  21.426  25.477  0.2955  0.0653 -0.0722
73860W        W16876  28.063  26.724   2.104  0.0029  0.0858 -0.2079
73861W        W16877  31.423  30.352  17.194  0.0919  0.2065 -0.2069
73862W        W16878  31.163  28.657  22.449  0.0208  0.1975  0.1105
73863W        W16879  27.322  19.567  29.262  0.0304  0.4093  0.0320
73864W        W16880   5.343  33.324  29.056 -0.1280  0.0542  0.0127
73865W        W16881  24.578   0.424   7.676 -0.0187 -0.2377  0.2119
73866W        W16882   2.503  32.513   9.395 -0.1977 -0.0342  0.2182
73867W        W16883   6.886  30.381  21.937  0.1383 -0.1246  0.0194
73868W        W16884  12.292  32.406  25.921  0.1896 -0.1910  0.1829
73869W        W16885   2.804   7.900  18.180 -0.1488 -0.2193  0.0024
73870W        W16886   7.458  33.360   9.732  0.1014 -0.1503  0.1678
73871W        W16887   6.831  29.305   3.041 -0.1682  0.1685  0.0690
73872W        W16888  25.830   4.515  21.407 -0.0745 -0.2845 -0.1800
73873W        W16889  21.305  19.653  28.413 -0.4096  0.0225  0.1729
73874W        W16890  12.048  16.304  21.230 -0.1978  0.0507  0.2065
73875W        W16891   6.922  29.907  22.137  0.3950  0.0422 -0.3585
73876W        W16892   4.710  32.168  23.847 -0.0442  0.0256  0.1764
73877W        W16893   1.553  14.041  27.896  0.1462  0.2807 -0.1089
73878W        W16894   8.233  32.595   5.944 -0.3681  0.4393  0.1827
73879W        W16895  16.702  30.040   3.576  0.2215  0.2596  0.0905
73880W        W16896   8.513   5.774  20.410  0.0965  0.2156  0.0709
73881W        W16897   2.756  22.590  29.174 -0.2634 -0.2292 -0.0450
73882W        W16898   2.310  25.025  20.415 -0.0245  0.0361  0.1366
73883W        W16899  31.882  20.229   6.185 -0.2816 -0.0894  0.1048
73884W        W16900   5.434  24.655   7.709  0.0539  0.1997 -0.3034
73885W        W16901   0.868  23.484   7.787 -0.2475 -0.2616 -0.0286
73886W        W16902   9.807   2.718   0.348  0.0795 -0.0260 -0.1169
73887W        W16903   9.680   2.521  29.150  0.0542  0.1598 -0.2251
73888W        W16904  18.868  16.012   7.801 -0.2963  0.0424  0.0694
73889W        W16905   4.311  15.302   0.567 -0.4607 -0.2319 -0.1711
73890W        W16906   0.261   7.883  21.033 -0.3045 -0.0265  0.1725
73891W        W16907   7.235   1.760   2.925  0.0295 -0.2518  0.2376
73892W        W16908  15.345  27.134   7.746  0.1398  0.0346  0.0517
73893W        W16909  14.320  34.645   2.798 -0.0012 -0.0649  0.1770
73894W        W16910  11.866   0.661  26.825  0.3399  0.2182 -0.0702
73895W        W16911  11.967  26.815   2.968  0.0964 -0.2318  0.0130
73896W        W16912  19.185  33.090  16.363 -0.0300 -0.0322 -0.0268
73897W        W16913   5.907  20.422   2.871  0.2075 -0.1625 -0.2421
73898W        W16914   4.807  26.990  10.161  0.1192 -0.0629 -0.0413
73899W        W16915  26.924  22.468  28.881 -0.0228 -0.4124  0.0816
73900W        W16916   0.683  14.797   2.912 -0.0008 -0.0543  0.1193
73901W        W16917  30.299   0.141  16.860  0.0808  0.3018  0.1908
73902W        W16918   4.395  28.912  21.135 -0.0322  0.3087 -0.2738
73903W        W16919  25.987  25.136  25.276 -0.1485  0.0968 -0.2072
73904W        W16920  16.380  21.861  19.978  0.0322  0.0275  0.2615
73905W        W16921  32.386  22.696   6.258  0.3754 -0.3281 -0.1612
73906W        W16922  33.195  26.381   5.375  0.0017  0.2646 -0.0618
73907W        W16923   2.794  27.876   6.920  0.1431  0.3527 -0.1293
73908W        W16924  15.497  17.077  24.089  0.2686 -0.0334  0.1337
73909W        W16925   2.181  23.761  29.184 -0.0807 -0.0571 -0.1162
73910W        W16926  30.363  23.290  21.806  0.0668  0.1433  0.0179
73911W        W16927  19.307  20.481  29.165  0.1325  0.1308  0.1742
73912W        W16928   9.746  10.655   4.993 -0.0882 -0.1148 -0.1059
73913W        W16929  34.668   5.110   0.038  0.0115 -0.0233 -0.2566
73914W        W16930   5.217  26.189  14.891 -0.0960 -0.3095 -0.2135
73915W        W16931   9.225  22.577   6.174  0.1782  0.2215  0.0992
73916W        W16932  12.574  31.795   5.276  0.2264 -0.4104 -0.2323
73917W        W16933  32.143  26.934   2.581  0.1027  0.2800 -0.3017
73918W        W16934   6.230   0.464  23.520 -0.0287  0.1781  0.1006
73919W        W16935   4.481   5.027   7.392  0.1343 -0.0342 -0.2216
73920W        W16936  11.581  24.147  27.888  0.1272  0.1186 -0.3036
73921W        W16937   5.476  20.195   5.234 -0.0225 -0.2599 -0.0445
73922W        W16938  12.538   0.666   2.705 -0.0003 -0.0958 -0.0417
73923W        W16939  27.847  32.075  11.184  0.1416 -0.0807  0.0412
73924W        W16940   7.383  24.368  22.857  0.0025 -0.1094 -0.0134
73925W        W16941  29.971  28.108   5.755 -0.1861 -0.0177  0.0226
73926W        W16942  23.753  29.490   3.031 -0.0090 -0.0744 -0.0040
73927W        W16943  13.925  18.637  13.281  0.0932 -0.2524 -0.0682
73928W        W16944  17.548  21.952   3.193  0.1551  0.1075 -0.0072
73929W        W16945   4.338  33.553  24.995  0.0847  0.1044  0.2110
73930W        W16946   5.304  30.723  26.943 -0.3759  0.1803 -0.2263
73931W        W16947   4.870  29.237   8.032  0.1078 -0.3097 -0.1096
73932W        W16948  18.479   8.411   4.739  0.2181 -0.0380  0.0697
73933W        W16949  33.635   4.398  15.996 -0.1571  0.1461  0.3635
73934W        W16950   5.348  12.803  29.298 -0.3802  0.0509 -0.0261
73935W        W16951  14.870  24.845  27.715 -0.0303  0.0084 -0.1367
73936W        W16952  32.287  33.890  24.380 -0.2872  0.0208  0.0692
73937W        W16953  24.902  23.827   4.462 -0.0488  0.0891  0.1886
73938W        W16954  26.887  11.646   5.473  0.0795  0.1199 -0.0480
73939W        W16955  30.190  27.731  23.984  0.1034  0.1713  0.0201
73940W        W16956  10.327  25.982   3.243 -0.0431  0.3118 -0.5313
73941W        W16957  14.800  34.715  22.191  0.0712 -0.2953  0.2730
73942W        W16958  29.683  31.434  25.191 -0.1731 -0.1463 -0.3273
73943W        W16959   7.902  13.117  15.662 -0.2465  0.1285  0.2318
73944W        W16960  11.890  28.592  24.094 -0.0789 -0.0309  0.1098
73945W        W16961   7.269   0.074   8.851 -0.0422 -0.3140  0.1884
73946W        W16962   6.075   3.978   2.843 -0.2317  0.0363  0.1381
73947W        W16963  10.715  28.881   3.578 -0.1638 -0.0539  0.0806
73948W        W16964  29.826  16.825  26.070  0.1158  0.1885  0.0857
73949W        W16965   2.962  25.158  21.913 -0.2023  0.1369  0.3444
73950W        W16966  33.532  28.393   9.765 -0.2309  0.0536  0.3584
73951W        W16967  30.991  16.266   0.834  0.2864 -0.0196  0.1058
73952W        W16968  29.387  34.585   1.335 -0.1230  0.3351 -0.0037
73953W        W16969  33.241   5.166  24.930 -0.0323  0.1798  0.2647
73954W        W16970   0.187  17.074   3.602  0.2544 -0.4060  0.0055
73955W        W16971  16.185   2.629  16.077  0.0505 -0.1350  0.2001
73956W        W16972   5.576  13.412  17.746 -0.1222  0.2628  0.0609
73957W        W16973   7.822  28.348   9.003 -0.1986 -0.1684  0.1950
73958W        W16974  22.360  24.069  26.120 -0.2034 -0.0724 -0.1046
73959W        W16975   4.222  14.222   7.006  0.1240 -0.0156  0.1038
73960W        W16976   3.077  17.701   2.118  0.0518  0.0680 -0.0957
73961W        W16977   5.137  18.008  26.185 -0.3842 -0.0602  0.0084
73962W        W16978  29.006  16.088   9.826  0.0066  0.0743  0.1994
73963W        W16979   0.941  17.624   5.681  0.0406  0.0321 -0.0835
73964W        W16980   8.959  32.724   8.778 -0.0618  0.1143 -0.0656
73965W        W16981  29.431  24.264  26.727 -0.0796 -0.0341  0.0354
73966W        W16982  19.683  20.547  26.932 -0.3683  0.1337 -0.5599
73967W        W16983  29.450  29.387  27.681 -0.0887 -0.1970  0.4195
73968W        W16984  28.839  24.628   7.346  0.0226 -0.0382 -0.2676
73969W        W16985  34.731  19.830   9.949  0.3355 -0.1641  0.0714
73970W        W16986  18.014  24.703  13.681 -0.3757  0.2432 -0.0062
73971W        W16987  12.547  26.809  19.703  0.3304  0.4275 -0.0411
73972W        W16988   6.035  32.427   8.009 -0.0008 -0.1096 -0.2103
73973W        W16989   6.098  27.624  23.134  0.0070 -0.0775 -0.0487
73974W        W16990  13.026  27.784  27.615  0.1060 -0.0422  0.0656
73975W        W16991  21.085  16.627  25.587 -0.0480  0.3062 -0.4177
73976W        W16992  15.892  19.953   6.917  0.0108 -0.1605 -0.1682
73977W        W16993  15.555  22.172   0.803  0.0915 -0.1489 -0.3058
73978W        W16994  10.065  13.266  26.092 -0.2845 -0.0614  0.4575
73979W        W16995   4.062  25.871   6.993 -0.1081 -0.0316  0.1218
73980W        W16996  16.478  26.748   1.517  0.0324 -0.1067 -0.2308
73981W        W16997   9.329  18.424  29.220 -0.0840 -0.1379  0.2542
73982W        W16998  11.235  25.603  15.121 -0.4111  0.0514 -0.2778
73983W        W16999   6.217  28.710   2.624 -0.3391 -0.0483  0.3399
73984W        W17000   0.750  13.471  15.565  0.0003  0.1723 -0.1332
73985W        W17001  11.090  28.475  14.050 -0.1923  0.0619 -0.1343
73986W        W17002  28.820  30.499  24.825  0.2152 -0.1281 -0.4585
73987W        W17003  29.473  26.307  26.868  0.0999  0.1335  0.0636
73988W        W17004   8.172  27.550  29.191 -0.1614 -0.0521  0.1493
73989W        W17005  33.180   0.019  28.734  0.1953 -0.2260  0.1558
73990W        W17006  13.786  20.192   4.953  0.2443 -0.5302  0.1758
73991W        W17007  33.690  21.310   1.783  0.0105 -0.1459 -0.2312
73992W        W17008  14.208  26.996   1.982 -0.2863  0.1618 -0.2078
73993W        W17009  28.929  14.471  16.037 -0.0391  0.0342  0.0950
73994W        W17010  27.617  25.275  19.646  0.1483 -0.0275 -0.4553
73995W        W17011   9.937   1.943  23.375  0.1574 -0.1970 -0.0621
73996W        W17012  30.689  22.680  26.428  0.0213  0.1802  0.2682
73997W        W17013  19.656  26.812   3.917 -0.2437  0.0510  0.2129
73998W        W17014  10.078  22.293  19.413  0.0971  0.1421 -0.1796
73999W        W17015  12.574   7.333   2.153 -0.0630  0.2949  0.1240
74000W        W17016  24.831  22.281  15.839 -0.0890  0.0454 -0.0222
74001W        W17017   4.977  13.912  26.319 -0.2347 -0.1330  0.0967
74002W        W17018  28.890  30.225   8.764  0.0534 -0.1371  0.5199
74003W        W17019  31.594  31.220  21.802  0.3645 -0.3427  0.3163
74004W        W17020  14.565  24.042  27.284 -0.2362  0.1747 -0.2628
74005W        W17021   8.520  22.200   6.009 -0.2290 -0.0384  0.1210
74006W        W17022  15.288  24.115  27.705 -0.0262 -0.1998  0.1122
74007W        W17023  15.584  17.099  12.436  0.2580 -0.0027  0.0354
74008W        W17024  29.533  15.616  27.897 -0.1850 -0.1144  0.2461
74009W        W17025   2.980  28.785  16.590 -0.1419 -0.1430  0.2257
74010W        W17026  11.333   1.518   3.982 -0.0530  0.2093 -0.0965
74011W        W17027   0.512  23.431  26.744  0.0220 -0.1822  0.2565
74012W        W17028  25.187  30.045  27.787  0.1420  0.1124  0.0375
74013W        W17029   9.022  33.948   9.587  0.1345  0.0076  0.0780
74014W        W17030  19.050   3.746  24.364 -0.1581 -0.0345  0.0513
74015W        W17031   1.933  15.376  16.638 -0.1648 -0.1162 -0.1219
74016W        W17032  31.767  31.461  23.724  0.0663 -0.1189 -0.1391
74017W        W17033  11.665  23.964   2.257  0.2557 -0.1855  0.1617
74018W        W17034  23.509   8.422  25.526 -0.3290 -0.4174  0.0486
74019W        W17035   7.581   3.068  24.314 -0.0301 -0.2151 -0.1154
74020W        W17036  17.960  24.314   3.986  0.1782  0.2983  0.3825
74021W        W17037  26.357   6.612   3.643 -0.3591 -0.5411  0.4225
74022W        W17038  23.101  25.881  27.336  0.0947  0.1939 -0.3036
74023W        W17039  22.420  25.013  28.777  0.1792  0.1105 -0.0034
74024W        W17040   6.077  24.121  26.618  0.0501  0.0362 -0.3303
74025W        W17041  15.215  18.127  22.081 -0.1910  0.2899 -0.5114
74026W        W17042   8.761  30.046   5.958  0.0930 -0.0711 -0.2174
74027W        W17043  20.279   0.793   4.806  0.3392  0.1106 -0.0379
74028W        W17044  24.346  17.980  28.233  0.1705 -0.3515  0.2129
74029W        W17045  16.826  24.206  20.958  0.0360 -0.2560  0.1111
74030W        W17046  31.855  26.841   6.862 -0.1049  0.1047  0.1850
74031W        W17047  11.766  26.318  28.717 -0.3250  0.0075  0.0567
74032W        W17048   0.391  29.376  10.284  0.1857  0.2912 -0.2350
74033W        W17049  11.883  16.394  16.954  0.1020  0.2557  0.3447
74034W        W17050  27.794   7.129   8.154  0.0078  0.2676 -0.0033
74035W        W17051   9.703  24.870   5.754  0.3333  0.1354  0.0427
74036W        W17052  31.634   1.003   2.143  0.1477  0.2955  0.3934
74037W        W17053  23.401  14.135  23.453  0.0079  0.0055  0.2380
74038W        W17054  23.953  20.868   8.159  0.0128  0.1578 -0.4476
74039W        W17055  21.512  19.572   2.119  0.1954  0.2431  0.1316
74040W        W17056  16.279  16.825  17.724 -0.1799 -0.0049  0.1313
74041W        W17057  10.389  30.677   0.653 -0.0764 -0.1833  0.0372
74042W        W17058  12.607  31.182  20.033 -0.0601  0.1080  0.2514
74043W        W17059  18.944  22.821  18.339  0.1812  0.2158 -0.1939
74044W        W17060  11.827  10.435  21.827 -0.2199  0.1515  0.2325
74045W        W17061   0.004   1.326  26.298  0.0376  0.0039 -0.0082
74046W        W17062   4.631  27.206  20.981 -0.3657 -0.2544 -0.1505
74047W        W17063   7.649   7.842   3.001  0.1036 -0.3931 -0.0546
74048W        W17064  11.302  31.283  21.411 -0.0293  0.0058  0.1007
74049W        W17065  15.171   7.042   6.503  0.1285 -0.0936 -0.2597
74050W        W17066   5.601   9.977  21.017  0.1725 -0.0916 -0.1375
74051W        W17067   8.034   0.096  28.219  0.1317 -0.0056  0.0533
74052W        W17068   0.724  31.391   0.091  0.0000  0.2438  0.5615
74053W        W17069  26.206  17.849  18.417 -0.0631 -0.0431  0.0770
74054W        W17070   7.876  12.963  26.514 -0.2284  0.0027  0.1336
74055W        W17071   3.463  19.660  24.320 -0.1060  0.1562 -0.1281
74056W        W17072   0.087  24.171  20.865 -0.0067 -0.0442  0.1044
74057W        W17073   2.728  10.699  23.563 -0.1662 -0.0918  0.0717
74058W        W17074  10.522  28.830   5.345  0.0909  0.2860  0.2119
74059W        W17075  27.679  24.444   5.985 -0.1655  0.1182  0.4082
74060W        W17076  29.141  25.965  21.394 -0.2126 -0.1602 -0.1838
74061W        W17077   8.413  18.125  28.581 -0.3230  0.2037  0.0334
74062W        W17078  22.545  20.749  27.561 -0.5943 -0.2830  0.3198
74063W        W17079  14.779   5.675  20.772 -0.3222  0.1654  0.1269
74064W        W17080   3.258  25.263   9.027 -0.1832 -0.1387 -0.1266
74065W        W17081   3.090  23.602   8.535  0.0339 -0.0360 -0.0426
74066W        W17082   2.291  31.737  28.815  0.1714 -0.0265  0.0952
74067W        W17083   4.290   5.269  29.090 -0.0156  0.0309  0.3781
74068W        W17084  15.084  17.641  18.631  0.0119  0.4344  0.1603
74069W        W17085  24.185  24.005  26.392 -0.2443 -0.2820 -0.2053
74070W        W17086  30.847   3.990  22.440  0.3241  0.0318  0.1440
74071W        W17087   7.632  15.283  27.364 -0.1113  0.1188  0.1849
74072W        W17088   2.638  19.445   2.279 -0.1279  0.1125 -0.1059
74073W        W17089   2.117  23.557   8.798 -0.3909 -0.0499 -0.1077
74074W        W17090   4.389  26.998  22.058 -0.5962 -0.1168 -0.3284
74075W        W17091   0.595  20.172   7.660 -0.0959 -0.0312 -0.3950
74076W        W17092  10.937  28.271   7.806 -0.4568 -0.0779 -0.0176
74077W        W17093   3.548  16.160  21.127  0.1416  0.1923  0.4341
74078W        W17094   4.241  15.147   9.138 -0.2864 -0.2414 -0.2322
74079W        W17095  10.484  28.174  26.339  0.2584  0.1679 -0.1339
74080W        W17096   0.048  22.148  10.198 -0.3278  0.1397 -0.1521
74081W        W17097   8.230  24.820  23.485 -0.0007  0.1672  0.1021
74082W        W17098   5.815  29.882   3.039 -0.1652 -0.1068  0.1409
74083W        W17099  25.023  25.465  21.013 -0.1659  0.1217 -0.0578
74084W        W17100  10.056   1.516   6.800 -0.1228 -0.1820 -0.0976
74085W        W17101  14.163  14.362  20.615  0.0194 -0.0473  0.0616
74086W        W17102  29.865  11.606  28.651  0.1722 -0.0728 -0.0864
74087W        W17103   4.596  18.388  18.337 -0.0493 -0.2263  0.0012
74088W        W17104   1.368  23.528   2.433  0.2361  0.2879  0.0469
74089W        W17105  27.869  28.451   0.870  0.4142  0.2921 -0.2431
74090W        W17106   0.012   6.438  28.342 -0.2578  0.3519 -0.1261
74091W        W17107   6.699  18.749   5.494 -0.0901 -0.0085  0.0264
74092W        W17108  22.178  25.949  25.373  0.0036  0.0127  0.0693
74093W        W17109   4.503  12.338  27.945 -0.0443  0.5414 -0.0859
74094W        W17110  16.413  21.683  14.206 -0.1671 -0.1020  0.0328
74095W        W17111  18.867  30.201   4.048  0.3884 -0.1876 -0.1100
74096W        W17112  30.175  18.070  10.542 -0.0150 -0.1642  0.2017
74097W        W17113   7.380  17.778   8.265 -0.4393 -0.3636 -0.0414
74098W        W17114   9.705  20.451   1.432  0.1153  0.3114  0.1840
74099W        W17115   6.930  18.647   8.746 -0.1570  0.0941 -0.0524
74100W        W17116   4.156  24.863  26.485  0.1244  0.3032 -0.2633
74101W        W17117   3.187  18.207   6.774 -0.0271  0.2483  0.0300
74102W        W17118  10.840  10.766  23.008  0.0205  0.1048  0.0473
74103W        W17119  34.603  26.594  24.456 -0.0127  0.1220  0.0777
74104W        W17120  31.357  18.883   4.099 -0.1738  0.0100  0.0837
74105W        W17121  29.200  26.708  21.835  0.1787  0.0994 -0.1186
74106W        W17122  26.197  31.008  21.203  0.1810  0.0560 -0.0300
74107W        W17123   0.645  24.974  21.118  0.3797  0.0647  0.1877
74108W        W17124  22.822  26.461   7.800 -0.0750  0.1104 -0.1252
74109W        W17125   9.757   0.025  24.213 -0.0722  0.1241  0.1386
74110W        W17126   9.876  16.677  22.648  0.3702  0.1128 -0.2610
74111W        W17127   9.486  20.088  15.566 -0.0892 -0.1228  0.1967
74112W        W17128   3.227   2.118  28.703  0.0821 -0.3241 -0.1541
74113W        W17129  25.147   6.288  15.987  0.1656 -0.3926  0.1832
74114W        W17130  22.939  33.282   7.779 -0.1451 -0.0090  0.0250
74115W        W17131  24.175  15.068   3.656  0.0395 -0.1763 -0.1033
74116W        W17132  13.270  34.318  28.148 -0.1378  0.1426 -0.2538
74117W        W17133  23.540  19.048  25.014  0.0644  0.2868  0.1019
74118W        W17134  12.581  27.933   5.665 -0.1399 -0.0149  0.0725
74119W        W17135   1.646  31.905  20.402  0.0643 -0.1973  0.0143
74120W        W17136  32.990  18.787  27.274  0.1343  0.0273  0.0536
74121W        W17137   0.036  21.382   8.805  0.0624 -0.0362 -0.1398
74122W        W17138   5.144  16.250  22.295  0.3208  0.1442 -0.4161
74123W        W17139  32.565   0.752  24.179  0.6468  0.0560 -0.0635
74124W        W17140   6.069  25.312  22.230  0.0297 -0.1086 -0.0859
74125W        W17141  27.712  26.187  22.422 -0.1741 -0.2871  0.1864
74126W        W17142   6.257  26.063  10.368  0.3005  0.2066 -0.0041
74127W        W17143  10.827  10.520  13.485 -0.2088 -0.1746  0.1382
74128W        W17144  33.256  34.160   9.896  0.3852  0.0828 -0.1793
74129W        W17145   9.167  17.079  23.269 -0.0452 -0.1299 -0.0841
74130W        W17146  18.299   6.700   0.712  0.0541  0.0607  0.0630
74131W        W17147  31.772  27.670  25.885  0.0513 -0.0683  0.2641
74132W        W17148  10.727   0.182  18.085  0.0780 -0.0092 -0.2206
74133W        W17149   6.150  29.630  20.956 -0.2831  0.1579 -0.2584
74134W        W17150  29.728  29.005   1.028  0.0734  0.1964 -0.1910
74135W        W17151  29.706  31.839   1.837  0.0211 -0.0881  0.0598
74136W        W17152  11.970  22.840  28.761 -0.2201 -0.1437 -0.0751
74137W        W17153  13.939  30.507  19.724 -0.0896 -0.0612 -0.1111
74138W        W17154   0.849  19.240   5.424  0.1376 -0.2257  0.0081
74139W        W17155  10.245  28.497   8.622 -0.0744 -0.3881 -0.1336
74140W        W17156   7.430  26.822   7.115 -0.0520 -0.1156  0.3565
74141W        W17157   0.288  27.872   8.047  0.0630  0.0113  0.2526
74142W        W17158  12.070   7.492   0.066  0.0388 -0.0238  0.0964
74143W        W17159   3.717  20.031  22.889 -0.0572  0.2536  0.0384
74144W        W17160   1.634   2.507  26.220  0.1847 -0.1889  0.0703
74145W        W17161   8.539  20.733   5.702  0.3591 -0.0741 -0.0138
74146W        W17162  18.196  13.949   3.069 -0.0021  0.3687 -0.1505
74147W        W17163   2.842  26.846  28.622  0.0065  0.0084  0.1137
74148W        W17164   0.549   3.318  21.040  0.2458  0.1377  0.0890
74149W        W17165   3.950  22.371  24.066  0.2113 -0.0667 -0.0197
74150W        W17166   4.822  11.710   9.307  0.1132 -0.0950  0.0324
74151W        W17167  20.956  22.590  22.110  0.2301  0.1159  0.0267
74152W        W17168   0.215  22.206   5.479  0.0146  0.1584 -0.3327
74153W        W17169   3.966   0.171  24.417 -0.0699 -0.2775  0.0009
74154W        W17170  12.710  28.467   8.664  0.1316  0.0678  0.0671
74155W        W17171   1.915  19.317  17.567  0.0833  0.0653  0.1927
74156W        W17172  27.992  33.755  27.168 -0.2670 -0.1081  0.1128
74157W        W17173  14.962  16.603  21.053 -0.0627 -0.0420  0.2154
74158W        W17174   6.634  21.408  27.592 -0.0929 -0.0221 -0.0936
74159W        W17175  12.523  22.749  26.143  0.0491 -0.1255  0.2046
74160W        W17176   7.640  20.224  19.081  0.0965 -0.0636 -0.0208
74161W        W17177   5.683   2.666   5.581 -0.0443  0.0027 -0.0824
74162W        W17178   9.394  14.918   8.205  0.1573  0.0975  0.1407
74163W        W17179  30.643   4.418   2.691  0.1198 -0.2028  0.0943
74164W        W17180  13.537  27.944  24.137 -0.3231  0.6782  0.0029
74165W        W17181  16.502  33.742  24.758  0.0412 -0.0495 -0.1417
74166W        W17182  12.506  33.344  21.367 -0.0504  0.0651 -0.0636
74167W        W17183   4.664   4.240  27.812 -0.0819 -0.0400 -0.0366
74168W        W17184  31.167  31.344  28.945 -0.0767  0.1127 -0.1394
74169W        W17185  11.409   2.068  27.710 -0.4180  0.0120 -0.0388
74170W        W17186  15.067  27.869  14.416 -0.2910 -0.0664 -0.0983
74171W        W17187  21.787   2.526   9.877 -0.1659  0.1503 -0.0503
74172W        W17188  18.696  31.365  14.833  0.2854  0.0696  0.2268
74173W        W17189  29.830  11.251  25.589  0.2921 -0.2513  0.1515
74174W        W17190  13.808   7.806  25.883 -0.2229 -0.2918 -0.1100
74175W        W17191  23.535  25.376  26.513  0.2212  0.2451 -0.1101
74176W        W17192   5.554  16.694   8.120  0.0027 -0.2035 -0.4233
74177W        W17193  16.493   8.975  27.739  0.1315 -0.1204 -0.0963
74178W        W17194  34.394  28.226  23.180 -0.0460 -0.0294  0.0186
74179W        W17195   2.197  16.666   3.142 -0.0110 -0.2167  0.1766
74180W        W17196  18.736   1.355   8.074 -0.0221 -0.4309  0.0963
74181W        W17197  11.295  14.019   0.491  0.2156 -0.0967  0.0633
74182W        W17198   0.063  31.973  28.291  0.1586  0.1616 -0.0558
74183W        W17199  34.374  27.318   6.789  0.1475  0.2579  0.1896
74184W        W17200  32.290  34.081  22.595  0.0674  0.2262 -0.1799
74185W        W17201   5.841  33.670   8.310 -0.0434  0.1411  0.0842
74186W        W17202  33.230  17.520  27.414 -0.0617 -0.1077  0.2711
74187W        W17203   0.478  23.498   9.032  0.2383  0.0206 -0.1781
74188W        W17204  23.697  29.226  21.069 -0.1303 -0.1464 -0.0540
74189W        W17205  21.504   5.380  22.460 -0.1168 -0.0273 -0.1556
74190W        W17206   8.859  27.937  23.189 -0.1656 -0.0726 -0.0392
74191W        W17207   1.788  24.732   6.916  0.1969  0.3837 -0.2214
74192W        W17208   5.761  33.745   7.100  0.2308 -0.0197  0.0479
74193W        W17209  11.965  15.014  26.831  0.0603 -0.4736 -0.2406
74194W        W17210  10.299   1.945   0.331 -0.0139  0.4743 -0.0252
74195W        W17211  26.176  23.727   6.302 -0.0328 -0.2623 -0.2107
74196W        W17212   9.357  23.041   8.901  0.1755 -0.0450 -0.3585
74197W        W17213   8.639  16.070   1.428  0.0139  0.0869 -0.1651
74198W        W17214   8.558  15.498  24.439  0.3213 -0.1818 -0.1275
74199W        W17215  19.665  34.655   7.644 -0.0468 -0.0261 -0.1887
74200W        W17216   3.272  15.060  28.358  0.0464  0.1439 -0.0701
74201W        W17217   1.150  29.200   7.061  0.1813 -0.0986  0.1668
74202W        W17218  11.631  16.641   8.059 -0.2683  0.2020 -0.3423
74203W        W17219  13.423  30.339  27.454  0.2134  0.2275  0.1610
74204W        W17220   7.830  20.355   3.959  0.1412 -0.0773 -0.1259
74205W        W17221  20.489  19.685  12.291  0.2129  0.1916  0.0689
74206W        W17222  34.631  22.496  25.795 -0.1606 -0.3180 -0.0932
74207W        W17223  12.444  31.286  14.392 -0.0229 -0.0572  0.2365
74208W        W17224  10.495  21.512   2.728  0.2450  0.1015 -0.1258
74209W        W17225  12.105   3.940  25.792  0.1713 -0.1500  0.0100
74210W        W17226   9.955  33.685   9.205  0.0862 -0.1275 -0.2187
74211W        W17227  32.500  23.858   9.730 -0.0522  0.4945  0.1168
74212W        W17228  19.467  17.423  27.024  0.1357 -0.4141 -0.0481
74213W        W17229   4.929  11.247   1.135  0.1622 -0.3667  0.1674
74214W        W17230   6.046  17.156  19.608 -0.2987  0.1158  0.0387
74215W        W17231   7.320   3.053  25.448  0.2781 -0.0018 -0.2840
74216W        W17232  32.908  24.205   8.965 -0.2555  0.1249 -0.1383
74217W        W17233  32.425  20.176  16.621  0.3457 -0.0069  0.1045
74218W        W17234  18.162  34.757  20.539  0.0624 -0.0575 -0.1541
74219W        W17235   5.295  22.073  22.958 -0.1045 -0.2757  0.3087
74220W        W17236   5.944   0.114  28.510  0.1723  0.1345  0.0304
74221W        W17237  26.781  28.240   3.310 -0.0573 -0.0000  0.1765
74222W        W17238   0.924   4.230  21.862 -0.0409 -0.0547 -0.1743
74223W        W17239   1.001   2.139   7.056  0.1030 -0.2935  0.0557
74224W        W17240  24.477   8.714   8.351 -0.2276  0.0521 -0.0897
74225W        W17241  10.857   5.194  28.841 -0.0826 -0.5924 -0.0335
74226W        W17242  15.287  12.267  19.139  0.0567  0.1865 -0.1939
74227W        W17243  34.591  25.304  27.442  0.1911  0.0982 -0.4505
74228W        W17244  13.046  26.141   7.116 -0.1854 -0.0306  0.1832
74229W        W17245  30.721  30.662  25.577  0.1972  0.0645 -0.2647
74230W        W17246   4.576  24.169  17.598  0.1569  0.2349 -0.0908
74231W        W17247  27.129  21.636   2.763 -0.1722  0.1241 -0.1396
74232W        W17248   7.028  20.797  28.926 -0.0289  0.2001 -0.2715
74233W        W17249  28.141  20.844   1.533 -0.0643 -0.0901  0.1356
74234W        W17250  32.637  24.689  26.392 -0.3045 -0.2371 -0.1656
74235W        W17251  32.509  26.178  17.051 -0.2066  0.1636  0.1687
74236W        W17252  12.023   8.880  16.459 -0.1939 -0.1855  0.2079
74237W        W17253   3.289  20.122  21.078 -0.1206  0.3114 -0.0931
74238W        W17254   6.798   4.263   4.385 -0.1699  0.0831 -0.2768
74239W        W17255   4.461   8.944  28.432  0.1895 -0.0083 -0.0731
74240W        W17256   0.170  21.768   0.292  0.2176 -0.2513  0.0064
74241W        W17257  31.308  26.195   8.398 -0.0729 -0.0463 -0.2717
74242W        W17258   4.046  24.797   2.307 -0.0219  0.2488 -0.1428
74243W        W17259   1.342  27.426   2.873  0.0188  0.2459 -0.0482
74244W        W17260  28.054  18.140  26.052 -0.0079  0.3756  0.0231
74245W        W17261  23.464  33.540   2.705  0.3000 -0.2283  0.0672
74246W        W17262  30.865   9.394   1.821  0.1065 -0.0981 -0.2266
74247W        W17263   3.800  31.320   9.208 -0.0960 -0.2893  0.0888
74248W        W17264   0.960  26.698  28.738  0.0581  0.1499  0.1120
74249W        W17265  33.066  32.227  20.478 -0.2568 -0.1775  0.1581
74250W        W17266  21.240  25.015   8.014  0.1569 -0.2399 -0.1250
74251W        W17267   6.370  28.553   9.044 -0.0546 -0.0728 -0.1243
74252W        W17268   1.869  30.796  28.991 -0.0607 -0.0341  0.0485
74253W        W17269  30.818  20.689   2.291 -0.1425  0.3721  0.1283
74254W        W17270  31.355  21.817   5.945 -0.0080 -0.0881 -0.4046
74255W        W17271   7.407  23.117   3.784  0.0628 -0.0456  0.1231
74256W        W17272   9.083  33.442   6.679  0.0770  0.1764  0.1808
74257W        W17273   0.053  11.446  26.549 -0.0441 -0.3408 -0.0727
74258W        W17274  28.634  30.681   5.147 -0.0294  0.1834 -0.2567
74259W        W17275   9.459  27.412  26.016 -0.2590  0.0905 -0.0819
74260W        W17276   5.253  34.498  25.134  0.2658  0.2151  0.0908
74261W        W17277  34.196  24.368  10.004  0.3169  0.1116 -0.0809
74262W        W17278  11.927  23.791   4.027 -0.2261 -0.1719  0.2249
74263W        W17279   9.704   7.483   4.279 -0.0645 -0.0022  0.2043
74264W        W17280  14.184  24.562   0.626  0.4795 -0.0914 -0.0209
74265W        W17281  32.649  27.043   0.259  0.1408 -0.1968 -0.3848
74266W        W17282   8.926  31.555  17.531 -0.0674 -0.0778  0.0728
74267W        W17283   0.115  33.165   2.059 -0.0597  0.1769  0.0299
74268W        W17284   1.098   2.175   3.718 -0.1224 -0.0917 -0.1014
74269W        W17285   0.494  29.676  24.594  0.0477 -0.1144 -0.0674
74270W        W17286   7.148  27.042   6.711 -0.3633 -0.1529  0.0185
74271W        W17287  28.604  16.296   2.665 -0.0016  0.4003 -0.1187
74272W        W17288   4.398  10.787   8.213 -0.1370  0.2615  0.2007
74273W        W17289  32.803   0.465   7.161 -0.0566  0.0231 -0.0444
74274W        W17290  34.018  21.841   2.707 -0.3263 -0.0111  0.2238
74275W        W17291   6.226  14.993  20.051  0.2040 -0.3337  0.1056
74276W        W17292  25.132  28.245   0.146 -0.1098  0.3975  0.4006
74277W        W17293   0.312  24.566  27.425 -0.1980  0.1565  0.0079
74278W        W17294  30.476  23.902  10.701  0.2024 -0.0537 -0.0535
74279W        W17295   3.706  17.593   3.664  0.0841  0.2251  0.0973
74280W        W17296   2.610  23.375   8.634  0.0888  0.3129 -0.1985
74281W        W17297  19.119  27.536  27.346  0.0613 -0.0814 -0.1837
74282W        W17298   5.627  27.169   2.429 -0.1965  0.3040 -0.0301
74283W        W17299   6.545  28.759   2.117 -0.1640 -0.0927 -0.0862
74284W        W17300   9.678  24.580   7.471  0.2387 -0.4002  0.0696
74285W        W17301  32.335   5.024   8.783 -0.1366 -0.0227 -0.2069
74286W        W17302   1.692  33.599   9.622  0.1059  0.3015 -0.0297
74287W        W17303  17.986  10.683   8.165  0.1629 -0.0631  0.1857
74288W        W17304   1.073   3.849   6.497  0.2462 -0.1510 -0.0545
74289W        W17305  29.941   5.928   2.183 -0.0704 -0.4120  0.1717
74290W        W17306  10.933   5.656  23.985  0.1241  0.0457 -0.0631
74291W        W17307  22.572   1.789  25.822 -0.2164  0.1537  0.0196
74292W        W17308   6.751   8.370   5.559 -0.0981 -0.0302 -0.3924
74293W        W17309   4.297  19.711   7.867 -0.2184  0.2855 -0.1732
74294W        W17310   7.694  29.456   6.704  0.0055  0.2654 -0.0299
74295W        W17311   9.779   1.509   9.884 -0.0656 -0.1221  0.1418
74296W        W17312  10.236  29.670   9.370  0.2931  0.0320  0.4574
74297W        W17313  26.914  27.214   3.245  0.1063 -0.0494 -0.1720
74298W        W17314  34.493  15.901   5.944 -0.0923 -0.1306  0.1036
74299W        W17315   7.557  27.203  23.881  0.2434  0.2667 -0.0318
74300W        W17316   6.555  23.830   7.063  0.1719 -0.0677 -0.1915
74301W        W17317   1.288  30.669  21.512 -0.1363  0.1236 -0.2793
74302W        W17318  31.168  10.802  20.895 -0.3798 -0.1662 -0.0459
74303W        W17319  34.140  28.918   4.155 -0.2021 -0.1622  0.1760
74304W        W17320  14.459  15.341   4.176 -0.1058 -0.0901 -0.0027
74305W        W17321  15.315   7.616   7.990 -0.0933  0.0250 -0.0110
74306W        W17322  34.721   4.536  28.873 -0.1281  0.1532  0.2112
74307W        W17323   9.054  16.317  12.665  0.3132  0.0927 -0.2150
74308W        W17324  11.340  17.059   3.438  0.0324 -0.1331  0.0197
74309W        W17325  20.724  15.792  27.594  0.0089  0.0630 -0.0261
74310W        W17326  19.015  17.074  27.612 -0.0407 -0.2713 -0.1310
74311W        W17327   7.428  21.166   0.949  0.3049  0.2832  0.2043
74312W        W17328   1.914  26.288   6.429 -0.0182 -0.1600 -0.0063
74313W        W17329  23.530  33.044   6.061 -0.0497  0.0316  0.2008
74314W        W17330  33.671  27.198  10.140 -0.0067 -0.4715 -0.0388
74315W        W17331   1.821  31.234  23.453 -0.1216  0.0565 -0.0508
74316W        W17332  20.028  13.018  25.078 -0.1374  0.2033  0.2561
74317W        W17333  30.714   2.942  27.217 -0.1926  0.0794  0.3884
74318W        W17334  23.068  33.556   5.347 -0.0377 -0.2036  0.1618
74319W        W17335  32.141  17.705  26.455 -0.0738  0.1791 -0.1957
74320W        W17336   1.246  33.016   4.142 -0.2940 -0.0362  0.1087
74321W        W17337  10.664  26.117   7.954  0.1136  0.0721 -0.1839
74322W        W17338  31.442  25.251  25.817 -0.4010 -0.0108  0.1420
74323W        W17339  12.051  28.546  28.883  0.0648  0.1281  0.2203
74324W        W17340  14.843   6.258   7.759  0.1664 -0.2062  0.5493
74325W        W17341  13.545  24.958   7.571 -0.6453  0.2877  0.1750
74326W        W17342  33.857   2.135   5.647 -0.0982  0.1348 -0.0954
74327W        W17343  27.627  30.882   4.402  0.1384 -0.2112  0.0051
74328W        W17344  34.200  15.303   9.704  0.3169 -0.2138 -0.2994
74329W        W17345   8.737  10.901   3.182  0.1477 -0.1995  0.1368
74330W        W17346   6.151  26.683  24.941  0.0725 -0.1014 -0.0175
74331W        W17347  25.747   3.434   4.929 -0.0300 -0.0804  0.1068
74332W        W17348  30.927  12.741   8.188 -0.1537  0.0332 -0.0024
74333W        W17349  19.469  23.659   1.485 -0.0003  0.0082  0.0916
74334W        W17350  30.935  18.104   6.042 -0.1528 -0.1831  0.2168
74335W        W17351  15.810  25.065   0.383 -0.1089 -0.2560 -0.2396
74336W        W17352  31.350  26.333   5.594  0.0664 -0.1986 -0.0033
74337W        W17353  10.844   1.584  28.982 -0.2581  0.0352  0.2402
74338W        W17354  12.814  16.835   1.046  0.1452  0.1214  0.0138
74339W        W17355   9.218  18.835   1.330 -0.0655  0.1638  0.1453
74340W        W17356   8.172  27.817   7.625 -0.1825  0.1736  0.0912
74341W        W17357   1.227  29.645   1.299 -0.1855 -0.0780  0.0196
74342W        W17358  29.471  26.999  26.095 -0.1233 -0.0085 -0.0045
74343W        W17359  11.251  11.500   5.075 -0.0041  0.3486 -0.2420
74344W        W17360  11.495   4.943   7.959  0.0221 -0.0424  0.2609
74345W        W17361  17.684  29.968   4.466  0.1298 -0.4859  0.1290
74346W        W17362  14.341  10.976   3.434 -0.0734 -0.3070  0.0436
74347W        W17363  29.991  17.181   6.047  0.1048 -0.1900  0.0283
74348W        W17364  31.412   4.349   7.374  0.0016  0.1444 -0.1749
74349W        W17365   6.132  15.073  24.167 -0.2677  0.1875 -0.0650
74350W        W17366   1.281  33.774  27.509 -0.0129  0.0147 -0.0302
74351W        W17367  29.460  22.963  10.180 -0.0744  0.2027 -0.0558
74352W        W17368   0.466  17.679   3.138  0.1451  0.0450 -0.0028
74353W        W17369   5.827  21.748  13.368  0.0701 -0.0255 -0.0163
74354W        W17370  28.274  19.647  19.017  0.0269 -0.0587  0.0374
74355W        W17371  30.012  32.789   9.434  0.2504 -0.0176  0.2433
74356W        W17372  11.655  12.340   1.178 -0.2509  0.1420  0.2238
74357W        W17373  13.853   0.474   6.050  0.0163  0.2158 -0.0204
74358W        W17374   9.470   2.262   7.143 -0.0488 -0.0398 -0.2085
74359W        W17375  10.164  16.709   1.539 -0.1091  0.0003 -0.5201
74360W        W17376  33.508  30.732   7.610 -0.2091 -0.0220  0.1512
74361W        W17377  24.293   1.374   2.257  0.1873  0.3178 -0.2849
74362W        W17378   4.740  19.102   6.350  0.0092 -0.0235 -0.0922
74363W        W17379   9.100  26.015   4.841  0.2794  0.3316  0.0296
74364W        W17380  14.597  14.648   2.658  0.2771 -0.1544 -0.5631
74365W        W17381  24.907  23.760   8.304 -0.0964 -0.0018 -0.1173
74366W        W17382  21.975  26.588  10.867  0.3830 -0.0676 -0.0055
74367W        W17383   5.991  34.293  10.304 -0.0495 -0.1573  0.2446
74368W        W17384  31.225  27.754   7.689  0.0870 -0.1156  0.1205
74369W        W17385  11.333   5.471  24.362  0.0441 -0.2821 -0.0477
74370W        W17386   5.555  32.301   7.052 -0.3846  0.1078 -0.1043
74371W        W17387   0.344   0.696  24.940  0.1115 -0.0860 -0.0117
74372W        W17388   6.490  22.718   1.223  0.1046  0.1511  0.0831
74373W        W17389  32.072  25.145   5.643 -0.2098 -0.0544 -0.0286
74374W        W17390  21.384  31.351   6.392  0.0562 -0.0973  0.1134
74375W        W17391  33.865  21.857   6.344 -0.1651 -0.2220  0.1270
74376W        W17392  28.530   9.235   6.967  0.0273  0.1550 -0.3683
74377W        W17393   6.873  29.001   8.320  0.1965 -0.0914 -0.0105
74378W        W17394   2.210  13.883  26.580 -0.4071  0.0139 -0.1486
74379W        W17395  33.084  12.874  29.161 -0.0347  0.1257 -0.1689
74380W        W17396  33.187   6.711   5.704 -0.0197  0.2023  0.3528
74381W        W17397  30.181   9.793   8.313  0.1169  0.0367 -0.0713
74382W        W17398   9.880  29.787   6.882 -0.1059  0.3098 -0.1895
74383W        W17399   6.996   9.143   0.761 -0.1540 -0.2119  0.1338
74384W        W17400  27.488   7.375   2.026  0.0240  0.1372  0.0622
74385W        W17401  14.001   0.030   4.147 -0.0686 -0.3280  0.0148
74386W        W17402   9.382  31.785  10.228 -0.0744 -0.0564  0.1916
74387W        W17403  32.461  17.028   5.970 -0.0465 -0.2605 -0.3693
74388W        W17404   4.654  18.651   2.984 -0.1838  0.0535 -0.0988
74389W        W17405  10.192  20.181   7.840 -0.1247  0.2059 -0.0629
74390W        W17406   1.173  17.712  27.979 -0.3047  0.0279 -0.2183
74391W        W17407   5.336  27.168   0.798  0.4869  0.1480  0.1642
74392W        W17408  14.477  29.709   9.166 -0.4631 -0.1052  0.2245
74393W        W17409  16.446  18.245   4.626 -0.1108 -0.1421  0.0066
74394W        W17410  31.966  23.820  10.551 -0.1452 -0.1545  0.0089
74395W        W17411   8.705  26.015   3.762  0.0225 -0.1143 -0.1490
74396W        W17412   7.850  17.163   1.349  0.3310  0.0585 -0.1050
74397W        W17413  14.260  22.180   7.973  0.0903  0.0924 -0.1552
74398W        W17414   7.708  18.904   9.117 -0.1929  0.0345 -0.1260
74399W        W17415  33.610  22.050   0.231  0.1202  0.0089 -0.0837
74400W        W17416   7.416   2.100   0.269 -0.1546  0.1834  0.0227
74401W        W17417   7.036   9.050   2.576  0.0320  0.1997 -0.3080
74402W        W17418   6.920  15.684  26.778 -0.1521  0.0354 -0.2238
74403W        W17419  28.979   3.925   9.419  0.0626 -0.3894  0.1944
74404W        W17420  24.295  27.936   2.642  0.0634  0.0986  0.1127
74405W        W17421  30.687  19.900  15.739  0.4243 -0.0594 -0.0297
74406W        W17422   3.906  22.840   7.871  0.0943 -0.1607  0.4125
74407W        W17423  13.817  23.022   8.916 -0.2146 -0.0397 -0.0231
74408W        W17424  32.836  30.491  11.364 -0.3821  0.0006 -0.1952
74409W        W17425   7.236  24.258  28.959 -0.0600 -0.0633 -0.1382
74410W        W17426   4.752   5.181   0.027  0.0403  0.0701  0.1689
74411W        W17427   8.515  30.640  18.133 -0.1492 -0.0154  0.2100
74412W        W17428  17.236  18.576  23.108  0.2396  0.2225  0.1820
74413W        W17429  13.443  26.191   3.456  0.0979  0.0371 -0.2154
74414W        W17430   4.872  31.636  26.908  0.0412  0.1684  0.0800
74415W        W17431  14.966  11.310  28.992 -0.0962  0.0016 -0.0823
74416W        W17432  14.144  30.240   7.032 -0.0508  0.4520  0.0183
74417W        W17433  33.147   0.567  28.416 -0.1195  0.1130  0.0226
74418W        W17434  29.339  31.471   9.848  0.2248 -0.1423 -0.2646
74419W        W17435  34.777  17.690   5.787  0.1002 -0.1794  0.1276
74420W        W17436   7.701  21.013  27.812 -0.0630 -0.1663  0.1557
74421W        W17437   9.665   9.725   8.172 -0.1039 -0.0314 -0.1068
74422W        W17438  33.372  20.222  28.113 -0.1251  0.1560  0.1313
74423W        W17439  11.446  17.228   5.784 -0.1369 -0.1763  0.0488
74424W        W17440  17.630  27.241   3.330 -0.1643  0.1680  0.5379
74425W        W17441  33.973  14.787   3.459  0.0877  0.2206 -0.0401
74426W        W17442   0.684  11.107   7.690 -0.3716  0.1072 -0.2789
74427W        W17443   5.728   0.610   1.464  0.1993  0.1184 -0.1504
74428W        W17444  23.317   6.443   5.780 -0.0170  0.2046  0.2689
74429W        W17445   7.650   7.784   4.841 -0.1468 -0.1565 -0.3480
74430W        W17446  25.096   6.751   3.780 -0.3715  0.1492  0.2117
74431W        W17447   1.142  21.261   2.025 -0.4352 -0.1281  0.0386
74432W        W17448  15.814  17.078  20.035  0.1439 -0.0936  0.0426
74433W        W17449   5.170  31.557   7.361 -0.1238 -0.1960 -0.1474
74434W        W17450   9.666  24.854   2.475 -0.2300  0.1082 -0.1258
74435W        W17451  33.938  22.313  20.623 -0.1211 -0.1509  0.3392
74436W        W17452  29.487  21.484   5.776  0.1066 -0.0744 -0.2284
74437W        W17453   4.303  30.563   0.113  0.3493  0.1628 -0.0402
74438W        W17454  15.421  33.545   3.690  0.0979 -0.1505  0.3296
74439W        W17455   6.452   8.264   1.693  0.3913  0.3772 -0.0274
74440W        W17456  28.790   9.474  16.484  0.2350  0.0912  0.2104
74441W        W17457  33.298  28.005   8.598  0.0420  0.0903 -0.2901
74442W        W17458  29.529  23.124  26.719 -0.1114 -0.1797  0.2638
74443W        W17459  33.594  19.613   4.186  0.0116  0.0504 -0.2894
74444W        W17460   6.646   4.189  10.474  0.1602  0.0236  0.1040
74445W        W17461  24.575  29.261  28.322  0.2187 -0.1195 -0.3626
74446W        W17462   4.259  29.186   9.298 -0.0979 -0.1139  0.4198
74447W        W17463  26.874   7.433   4.115  0.1118 -0.2905  0.0423
74448W        W17464   2.937  22.813   7.637  0.1354 -0.2722  0.3034
74449W        W17465   9.341  23.179  22.703  0.0426 -0.0067  0.1047
74450W        W17466   3.520  24.900   4.031  0.1433  0.0666  0.0231
74451W        W17467  14.856  21.693   1.630 -0.3582 -0.2373 -0.1235
74452W        W17468   5.482   1.078   5.929 -0.2672 -0.1062  0.0716
74453W        W17469  34.610   8.550  26.761 -0.2399 -0.0761 -0.0220
74454W        W17470  27.083  23.577   2.600  0.1007 -0.1902 -0.0171
74455W        W17471  28.165   5.717   5.629  0.0716  0.0386 -0.2968
74456W        W17472   7.297  32.767   8.554 -0.0319  0.1275 -0.0522
74457W        W17473  18.999   2.280  27.043  0.2578  0.2735  0.0552
74458W        W17474   8.928  32.313   7.505 -0.0157  0.0893  0.1746
74459W        W17475   4.301   0.471   1.782 -0.3981 -0.0721 -0.0811
74460W        W17476   9.998  14.036   6.533  0.2413  0.1044 -0.1758
74461W        W17477  29.283   5.730   3.849  0.1974 -0.2114 -0.2605
74462W        W17478   7.549  13.033   6.189  0.0469 -0.0139  0.2746
74463W        W17479   5.050  23.704   7.396 -0.3183 -0.2369 -0.1814
74464W        W17480  15.494   8.286  24.634  0.2029  0.0871  0.2645
74465W        W17481   7.003  27.029  27.902  0.1902 -0.4355 -0.1450
74466W        W17482  16.419  12.612  15.130  0.0768  0.1466  0.1629
74467W        W17483   5.981  30.280   9.231 -0.1023  0.0872 -0.1063
74468W        W17484  32.089   7.683  10.167  0.2283  0.0402  0.0957
74469W        W17485  30.830  19.354  28.235 -0.0413  0.0827 -0.2059
74470W        W17486  18.760  20.805   0.942  0.1155 -0.0632  0.2506
74471W        W17487   4.466  31.103   9.507  0.2141  0.0572 -0.3240
74472W        W17488   2.186  26.907  14.531 -0.2882 -0.0387  0.0693
74473W        W17489  21.932  23.432   3.486  0.1365 -0.0423 -0.2770
74474W        W17490   9.977  26.694   8.112  0.2443  0.0925 -0.2183
74475W        W17491  28.479  20.709   2.187  0.2938  0.1626  0.1377
74476W        W17492   5.706  25.680   1.450  0.2776  0.0574  0.2176
74477W        W17493   2.920  20.565  17.861 -0.1362  0.0012  0.1132
74478W        W17494  15.678  16.196  19.378 -0.1190  0.1773  0.2434
74479W        W17495  32.272  25.831  26.768 -0.2308  0.2778  0.1622
74480W        W17496   3.762  34.246   6.553 -0.3399  0.1327 -0.2863
74481W        W17497  14.124  26.625   8.172  0.0520  0.3078  0.2244
74482W        W17498  10.373   4.684   0.064  0.0498  0.2168 -0.2987
74483W        W17499  24.625  29.387  10.334 -0.1487  0.2290 -0.0478
74484W        W17500   0.199  18.364  27.074  0.4301 -0.3212 -0.2303
74485W        W17501   2.204  30.246  17.670  0.2976  0.1311 -0.0876
74486W        W17502   1.894   8.291   9.028  0.1552  0.0933 -0.1358
74487W        W17503  31.800  21.794  23.145  0.3630 -0.0947 -0.0447
74488W        W17504  14.228  21.073   5.353 -0.1362  0.1037 -0.1520
74489W        W17505   9.310   1.446   3.448 -0.0606  0.1316 -0.0556
74490W        W17506  25.432  32.603  25.926  0.1754  0.1745  0.1053
74491W        W17507   3.850  25.079   9.352  0.0104  0.1148 -0.3169
74492W        W17508   4.408  10.124   2.707  0.2287  0.0765  0.0371
74493W        W17509   8.511  28.306   0.437 -0.1275  0.0885 -0.3738
74494W        W17510  30.350   6.511  24.202  0.1479 -0.0279 -0.2904
74495W        W17511  32.162  27.144  20.686  0.1698  0.1018 -0.0111
74496W        W17512   2.502   2.752  26.302 -0.1809  0.3055 -0.1569
74497W        W17513  12.615   2.999   4.510 -0.0406 -0.2319 -0.1114
74498W        W17514   8.329   6.765   5.735  0.1481  0.0099  0.4224
74499W        W17515   6.266  30.770  23.757 -0.0309 -0.0848 -0.0547
74500W        W17516   7.101  17.736   7.782 -0.1452  0.2474  0.0287
74501W        W17517  25.128  26.510   6.515 -0.0572 -0.0900  0.1084
74502W        W17518   1.145   3.694   8.731 -0.2041 -0.1452 -0.2798
74503W        W17519  31.059  33.650  10.792 -0.0872 -0.3294  0.0559
74504W        W17520  27.746  11.910   5.051  0.0073  0.2829  0.1590
74505W        W17521  32.175  22.196   6.005 -0.1197  0.3036 -0.0082
74506W        W17522  10.566   1.287   1.732 -0.1234  0.3508 -0.0085
74507W        W17523  13.542  20.149  21.389  0.0776 -0.3408  0.1975
74508W        W17524   4.609  15.178  24.814 -0.0614  0.0434  0.0695
74509W        W17525  13.534  31.784  16.021 -0.0399  0.0462  0.0048
74510W        W17526   7.709   5.724   9.750  0.0925 -0.0752  0.2434
74511W        W17527   7.611  31.631  28.983  0.0818 -0.0515 -0.2433
74512W        W17528  18.626   1.578   2.554 -0.0132 -0.0264  0.1537
74513W        W17529  32.638  15.520   7.236  0.0459  0.0120  0.1697
74514W        W17530  23.993  13.424   0.843  0.3019 -0.1180  0.3020
74515W        W17531  34.547  14.770   8.904 -0.2400  0.4466  0.0540
74516W        W17532   5.608  23.691  28.464 -0.1713  0.0229  0.2196
74517W        W17533  25.744  31.236   8.993 -0.0635  0.1016  0.2013
74518W        W17534  25.761  32.814   7.682 -0.1769  0.0445 -0.1404
74519W        W17535   1.683  31.150   7.360 -0.1385  0.1196  0.2383
74520W        W17536  17.227  27.273  27.497  0.0890  0.0136  0.0368
74521W        W17537  32.893  27.494   0.324  0.0438  0.1625 -0.0050
74522W        W17538   5.626  31.998   9.014  0.1588 -0.0441 -0.0986
74523W        W17539   4.255  31.537   1.500  0.3724 -0.0255  0.2510
74524W        W17540  33.090  32.587   9.349  0.0871  0.0018  0.0788
74525W        W17541   2.580  13.714   8.451  0.1876 -0.2079 -0.0841
74526W        W17542  13.097   2.077   8.725  0.1907 -0.1830 -0.2376
74527W        W17543   2.801   0.834   4.108 -0.0731 -0.2052  0.1067
74528W        W17544  20.549  28.484   9.014  0.1995  0.1011 -0.1264
74529W        W17545   5.472  21.444   5.405 -0.0853  0.0778 -0.1612
74530W        W17546  31.766   2.656   0.263 -0.2726 -0.2791  0.1558
74531W        W17547  29.880   9.570   1.289 -0.0206  0.0281  0.3912
74532W        W17548  33.756  31.620  10.828  0.0667 -0.0857 -0.1317
74533W        W17549   6.337  11.127   0.020 -0.3133  0.1135 -0.0463
74534W        W17550  29.654  33.710  10.617 -0.0618 -0.0736 -0.0374
74535W        W17551  30.123  30.646   9.405 -0.1390  0.2901 -0.1404
74536W        W17552  22.031  27.045   5.406  0.1097  0.1599  0.1458
74537W        W17553  10.218  20.920   4.961 -0.3068  0.2581  0.2031
74538W        W17554  22.646  20.795   1.795  0.4832 -0.1120  0.0847
74539W        W17555  11.326   1.827  25.796 -0.0703  0.0391  0.1346
74540W        W17556   0.566   2.911   8.262  0.2828  0.4112  0.3000
74541W        W17557   9.484  25.852  24.582 -0.0122 -0.2035 -0.0691
74542W        W17558   4.962   5.947   8.794  0.1417 -0.1017  0.1318
74543W        W17559  13.835  21.694  23.513  0.0533 -0.1948 -0.1028
74544W        W17560   3.776  26.745   3.086 -0.0264 -0.1344 -0.0371
74545W        W17561  18.334   7.700  19.790 -0.2834 -0.4072 -0.0236
74546W        W17562  34.389  13.070   9.984  0.2564  0.0944  0.0181
74547W        W17563   2.091  13.433   9.374  0.2020  0.0683  0.0968
74548W        W17564  11.431  26.279  25.670 -0.0910  0.1808 -0.0579
74549W        W17565  12.303  27.327   5.662  0.0902  0.2480 -0.0234
74550W        W17566   1.887  31.591   9.426 -0.0327 -0.0867  0.1717
74551W        W17567  14.027  19.802  27.192  0.0956  0.0686 -0.1130
74552W        W17568   7.902  26.184  23.151  0.0894  0.0575  0.2815
74553W        W17569  11.827  18.930  22.033 -0.1101  0.1344  0.1087
74554W        W17570  23.690  25.506  28.877  0.2718 -0.0593  0.1034
74555W        W17571   0.691  34.575   7.004 -0.1269 -0.0729 -0.2107
74556W        W17572  21.199  22.438  22.491  0.1637 -0.1667  0.2025
74557W        W17573   5.546   1.416   6.349  0.0507  0.0153 -0.0368
74558W        W17574  34.379   3.875   6.516  0.2664 -0.3890 -0.2031
74559W        W17575  11.317  22.691  20.417 -0.2843 -0.0200 -0.3337
74560W        W17576  10.203   1.302   6.013 -0.0113  0.3190 -0.2959
74561W        W17577   3.353   1.024  28.056 -0.0287  0.3441 -0.4820
74562W        W17578  26.554  15.783   1.631  0.1190 -0.0256 -0.1365
74563W        W17579   8.322  31.750  21.900  0.0977  0.1306  0.1422
74564W        W17580   6.830  29.453  24.027 -0.1432  0.0464 -0.1698
74565W        W17581   8.210  23.650   6.423 -0.1453  0.3293  0.4149
74566W        W17582   5.648  17.936   3.717  0.0181  0.1215  0.1913
74567W        W17583   7.553  17.115  17.987 -0.0094 -0.3524  0.1027
74568W        W17584  33.007   0.044  25.635 -0.0814 -0.0457  0.2887
74569W        W17585  17.623  33.661   5.118 -0.1735 -0.0984 -0.1887
74570W        W17586   8.443  13.336   1.603  0.2531  0.0434  0.0549
74571W        W17587  31.237  28.610   0.827  0.1207  0.1166  0.1399
74572W        W17588  13.172  17.329  22.502 -0.0502  0.1006 -0.0821
74573W        W17589  23.899  32.475  26.219  0.2008 -0.1134  0.0458
74574W        W17590  34.595  22.900   8.450 -0.1826 -0.0240  0.1610
74575W        W17591  32.523  27.983   6.334 -0.1845  0.1416 -0.1039
74576W        W17592  25.685  32.337   9.443 -0.1302 -0.1517 -0.0437
74577W        W17593   8.170  27.273  16.223  0.1211 -0.0923 -0.2943
74578W        W17594   6.836  11.441   7.101 -0.0604 -0.2633 -0.2383
74579W        W17595   6.669   2.033   5.931 -0.1737 -0.1676  0.1129
74580W        W17596  20.980  15.731   5.194  0.1192  0.0392  0.2268
74581W        W17597  23.484  31.184   9.995  0.0113  0.0989  0.3875
74582W        W17598   5.340  28.340   6.841  0.0693  0.0840  0.0245
74583W        W17599  30.949   9.010   9.177 -0.2887  0.0081  0.1293
74584W        W17600  13.594  27.600  22.407 -0.1952  0.1815  0.1059
74585W        W17601   8.180  19.283   6.794 -0.3008 -0.3100 -0.2393
74586W        W17602  29.809  26.231   5.059  0.1151  0.0285 -0.1759
74587W        W17603   9.354  23.556   9.244 -0.3863  0.2128 -0.2596
74588W        W17604  25.483  31.854  15.690 -0.0012 -0.1475  0.0276
74589W        W17605   7.527   4.811   3.103 -0.0839 -0.0918  0.0475
74590W        W17606  14.031  17.874   0.395  0.1226 -0.0158 -0.0569
74591W        W17607  10.168  34.322  28.603  0.0778 -0.2065 -0.0049
74592W        W17608   4.505   0.324   4.230 -0.0013  0.2166  0.2910
74593W        W17609  29.318  15.016  29.295  0.0899  0.1490 -0.0471
74594W        W17610  14.134  19.330  27.445 -0.2256 -0.0013 -0.1171
74595W        W17611   7.172  15.279   3.119  0.0868  0.0585 -0.0580
74596W        W17612  31.642  29.667  11.498  0.3251 -0.4051 -0.1401
74597W        W17613   1.466  19.700   5.050  0.0186  0.0368  0.1618
74598W        W17614  22.022  27.753  19.170  0.0555  0.0074 -0.4239
74599W        W17615  27.275  34.260   6.456 -0.2754 -0.1093  0.1893
74600W        W17616  10.863  25.067   5.355  0.0038 -0.2584  0.1044
74601W        W17617  23.691  30.250   4.951  0.2213 -0.1945  0.0085
74602W        W17618   9.492  30.652   6.513 -0.1855  0.2573  0.0547
74603W        W17619   2.551  32.196   6.807 -0.2491  0.0010 -0.2647
74604W        W17620   8.429  20.167   1.089 -0.2451  0.1925  0.0857
74605W        W17621   5.608  26.263  28.037 -0.1170  0.1482 -0.1601
74606W        W17622   1.892  26.826   6.566 -0.0140  0.3127 -0.0046
74607W        W17623  21.090  31.727  21.394 -0.2061  0.2036 -0.0977
74608W        W17624  34.632   2.070   6.023  0.1968  0.0692 -0.3211
74609W        W17625  33.622  13.734   6.805 -0.2237  0.0727 -0.0627
74610W        W17626   7.430  31.613   3.777  0.1361  0.0467  0.3005
74611W        W17627  11.529  13.845   3.822  0.1511  0.2587 -0.1921
74612W        W17628   4.530  16.355   2.383 -0.3217  0.1751  0.4139
74613W        W17629  29.299   7.234  10.117 -0.3975 -0.2282  0.1798
74614W        W17630   9.436  26.706   5.605 -0.0158  0.0833 -0.2191
74615W        W17631  32.442  21.236   1.667 -0.0401 -0.2154 -0.2147
74616W        W17632   6.061  22.949  23.861 -0.1146  0.3368  0.1242
74617W        W17633  34.400  24.189   4.788  0.1205 -0.1663  0.3764
74618W        W17634   4.281  31.751   2.381 -0.3733  0.2546  0.0873
74619W        W17635   0.927   4.671   1.670 -0.2318  0.5445 -0.4969
74620W        W17636  28.116   7.658   3.606  0.1741 -0.4599  0.2396
74621W        W17637  13.173  25.296   7.553  0.0738 -0.0537 -0.0002
74622W        W17638  29.883  28.536   3.062  0.0821 -0.1609 -0.0169
74623W        W17639  25.825  24.635  22.969 -0.1378 -0.2378 -0.1244
74624W        W17640  10.106  28.086  22.081 -0.2676  0.0964 -0.2468
74625W        W17641  20.567  33.020   8.233 -0.1549  0.3189  0.2183
74626W        W17642   3.233  32.061   6.181  0.0409  0.0526 -0.8027
74627W        W17643  17.778  24.538  25.753 -0.2475  0.3112 -0.1958
74628W        W17644   8.079  27.929   8.094  0.1230  0.0240 -0.2339
74629W        W17645  26.409  19.033  23.930  0.2273 -0.0267 -0.0603
74630W        W17646   5.416   1.104   1.383 -0.0073 -0.3677  0.1871
74631W        W17647  11.978  11.454   3.855  0.0366 -0.4145 -0.1143
74632W        W17648  16.107  29.805  10.225 -0.0001 -0.1474 -0.2682
74633W        W17649  12.806  33.571   3.990 -0.1847 -0.0433 -0.0946
74634W        W17650   3.190  20.956  26.744  0.1783 -0.1001  0.1269
74635W        W17651  28.736  24.907  28.358  0.4579 -0.0316 -0.1004
74636W        W17652  31.355  10.364   9.792  0.2417  0.4439 -0.0186
74637W        W17653   6.829  23.926   7.473  0.0071  0.2314 -0.0775
74638W        W17654   5.682  33.686  28.894  0.2609  0.1087  0.1171
74639W        W17655  27.287  32.594   6.460  0.1315 -0.4167 -0.2329
74640W        W17656  29.165  17.496  28.441 -0.0585 -0.3044 -0.0313
74641W        W17657   7.063  12.991   4.273  0.1897 -0.0499  0.1552
74642W        W17658   3.003  33.952   8.285 -0.0293 -0.0349  0.2087
74643W        W17659   8.268  26.942   1.751  0.0993 -0.0159 -0.2106
74644W        W17660  26.223   6.779   7.804  0.1002 -0.1274  0.2622
74645W        W17661   4.185  13.808   7.261  0.1154  0.0505  0.3761
74646W        W17662  15.901   9.507   4.373  0.1246 -0.1921 -0.1440
74647W        W17663  26.343  24.154  28.077 -0.1994 -0.1776 -0.0868
74648W        W17664   1.974  28.339   6.670  0.2594  0.1141 -0.0565
74649W        W17665  30.714  23.186  19.622 -0.0419  0.0746  0.1714
74650W        W17666  25.488  31.665   1.753  0.2349 -0.0866  0.0777
74651W        W17667   5.037  26.869   4.143 -0.0895 -0.0175  0.0260
74652W        W17668  27.468  30.273  12.000 -0.0157  0.3887 -0.2397
74653W        W17669   4.906  14.381   4.972  0.1515  0.0213  0.4094
74654W        W17670  33.170  21.870  27.765 -0.2120 -0.1508  0.0418
74655W        W17671  30.265  18.740   2.821  0.2704  0.0038  0.0486
74656W        W17672  10.287  21.210   4.076 -0.1015 -0.2094  0.2594
74657W        W17673  17.936   0.584  13.913 -0.0260  0.0793  0.1563
74658W        W17674  25.370  17.615   4.343  0.0929  0.0416 -0.1979
74659W        W17675  25.928  31.791   2.609  0.2335 -0.1361 -0.0703
74660W        W17676   8.618  21.228   7.964 -0.2648  0.0816  0.3104
74661W        W17677  33.632  26.051   8.239  0.1108  0.1247 -0.2109
74662W        W17678   2.388  23.077   5.142 -0.1385  0.2196  0.1682
74663W        W17679  33.473  28.444   4.307 -0.0506 -0.1104 -0.3780
74664W        W17680  25.015  26.538  28.044  0.2275 -0.2211  0.3149
74665W        W17681   3.783  17.808   2.329  0.3238 -0.0194  0.1506
74666W        W17682  26.942   9.905   5.072 -0.0444  0.0022  0.1262
74667W        W17683   5.500  30.946  28.670  0.0553  0.0064 -0.2895
74668W        W17684  26.372  21.976   4.236 -0.0009 -0.0473  0.0861
74669W        W17685   1.357  24.684   3.275  0.1031  0.1479 -0.1351
74670W        W17686   9.320  23.824   8.483 -0.0947 -0.0406  0.0339
74671W        W17687   7.780  32.468   9.432 -0.0267  0.1276 -0.0997
74672W        W17688  13.840  30.357  16.244 -0.0360  0.1626  0.0226
74673W        W17689  26.693   1.500  10.904 -0.0928  0.1894 -0.0457
74674W        W17690  22.630  22.289   6.921  0.1292  0.1206 -0.0775
74675W        W17691   0.233  23.872  22.523 -0.0487  0.0634 -0.2305
74676W        W17692  22.868  13.060   7.508  0.4148  0.0015  0.1642
74677W        W17693  15.542  21.133   6.989  0.3418  0.1750 -0.1338
74678W        W17694   6.760  34.350  25.257  0.0433  0.0535 -0.0482
74679W        W17695  14.599   8.112   0.577 -0.1749  0.0661  0.3597
74680W        W17696  32.389  26.959   5.005 -0.0472 -0.2270 -0.3233
74681W        W17697   2.378  22.566  27.864 -0.1151  0.1248  0.0910
74682W        W17698   4.779  22.931  21.933  0.3235 -0.5192  0.3387
74683W        W17699  10.050  27.057   7.383  0.1617 -0.1222  0.1668
74684W        W17700  16.326  17.727   7.915  0.0692  0.1802  0.1364
74685W        W17701   1.802  34.412   6.335  0.3268 -0.1814 -0.0911
74686W        W17702   6.303   5.425   9.470 -0.0449  0.0000  0.0695
74687W        W17703   9.177  17.568  22.066 -0.2520  0.2275 -0.2864
74688W        W17704  28.668  29.849   9.085  0.0468  0.1022  0.0172
74689W        W17705   1.395  30.103  27.353  0.0520  0.4525 -0.1287
74690W        W17706  31.490   4.193   0.488  0.5224  0.0591  0.1535
74691W        W17707  28.048  33.551  10.883  0.2752  0.0256 -0.0777
74692W        W17708   4.543  13.696   5.855 -0.2545  0.0025  0.0955
74693W        W17709  33.793  10.385   9.797 -0.1369 -0.0751 -0.1769
74694W        W17710  28.416   3.282   5.185 -0.3133 -0.0818 -0.0352
74695W        W17711  33.574   2.710  21.638 -0.0678 -0.0939  0.2403
74696W        W17712   9.441  27.650   3.056 -0.1912 -0.1022  0.2068
74697W        W17713   1.878  31.376   3.211 -0.2281 -0.0694  0.2531
74698W        W17714  27.880  20.063  10.900  0.1261 -0.5970 -0.2245
74699W        W17715  30.391  27.217  22.669  0.2112  0.0202  0.0126
74700W        W17716   5.006  32.063   5.656 -0.0585  0.2918  0.2386
74701W        W17717  26.285  32.417   4.461 -0.0801  0.1578 -0.0493
74702W        W17718   0.954  18.728  29.050 -0.1010 -0.2587 -0.0224
74703W        W17719   3.786  31.226   7.921 -0.0958 -0.1251  0.0807
74704W        W17720  25.705  29.040   4.866 -0.0424  0.1213 -0.2061
74705W        W17721  26.076  31.248  10.081 -0.2227  0.1047 -0.2284
74706W        W17722  11.100  21.268  23.628  0.1637 -0.0399 -0.1800
74707W        W17723   2.013   2.547   2.685 -0.0803  0.0633 -0.0425
74708W        W17724  15.666   3.637   5.238 -0.1414  0.0851  0.1098
74709W        W17725   7.691  23.573   6.762  0.3790  0.6017 -0.5437
74710W        W17726  12.640   2.970  23.373  0.0713 -0.0417 -0.0009
74711W        W17727  10.675  17.605  21.856  0.3761 -0.0628 -0.0329
74712W        W17728   5.118  20.433   2.791 -0.2442 -0.1044 -0.0331
74713W        W17729  29.481   0.192   8.821 -0.0253  0.0487 -0.1944
74714W        W17730   0.570  30.157   4.556  0.0604  0.0305 -0.1625
74715W        W17731  13.601  10.059   6.618  0.3137 -0.1260  0.0735
74716W        W17732   0.686  23.828  25.222 -0.0081  0.1745  0.2321
74717W        W17733   1.448   8.241  21.424  0.1745  0.0972 -0.2104
74718W        W17734   5.541  28.088   2.684 -0.3907 -0.3822  0.1148
74719W        W17735  11.983  15.396  22.381 -0.0939  0.1212 -0.0788
74720W        W17736   8.974  16.007   1.046 -0.1843 -0.0307 -0.2192
74721W        W17737   9.526  22.697  27.177 -0.0676 -0.2008  0.3984
74722W        W17738  28.692   6.468  26.713 -0.4190  0.1110  0.4435
74723W        W17739   9.196  21.642   5.976 -0.0830 -0.2468 -0.1194
74724W        W17740  25.894  17.803   6.209 -0.2264  0.3653  0.2996
74725W        W17741   7.309   4.693   3.584 -0.0788 -0.1063  0.2006
74726W        W17742  10.975  31.192   5.889 -0.3641 -0.0186 -0.1337
74727W        W17743   2.290  16.738   8.460 -0.0858 -0.0782 -0.1648
74728W        W17744  22.898  17.824   6.122  0.0754  0.0442 -0.3413
74729W        W17745  33.542  22.904   7.923 -0.2806 -0.1979 -0.4487
74730W        W17746  17.621   4.105   7.301 -0.0776 -0.2734 -0.1265
74731W        W17747  19.425   4.298   5.825 -0.3087  0.0472 -0.3323
74732W        W17748  11.409   1.232   6.987  0.3447 -0.0029  0.1145
74733W        W17749  24.281  32.282  26.078  0.2072 -0.0247  0.0344
74734W        W17750  29.236  27.776  11.044 -0.3982  0.1851 -0.3085
74735W        W17751  10.691  28.456   4.726  0.2462 -0.1941  0.1210
74736W        W17752  11.210  13.582   3.469 -0.0047  0.1361  0.1969
74737W        W17753  12.900  30.925   4.114 -0.2166  0.2795  0.1314
74738W        W17754   8.163  15.400   7.013 -0.1218 -0.2113  0.2503
74739W        W17755  29.951   3.989  10.520  0.5218  0.0072  0.0639
74740W        W17756  22.438  33.030   3.854  0.0029  0.0512  0.1411
74741W        W17757  18.887  30.921  10.613  0.2007  0.2541  0.0248
74742W        W17758  29.537  11.925   8.948  0.2077  0.0305  0.0045
74743W        W17759  34.401  33.574   1.511 -0.0030 -0.4585 -0.0250
74744W        W17760   7.164   2.881   9.620 -0.1033  0.0166 -0.0797
74745W        W17761  31.935  29.351  10.056  0.1631 -0.0755 -0.0872
74746W        W17762   6.879   6.099   9.143  0.1379  0.2918 -0.0824
74747W        W17763  15.041   4.991  21.500 -0.4122 -0.1133  0.0114
74748W        W17764  13.951  16.423   7.872 -0.0735 -0.5248 -0.2628
74749W        W17765  33.595  24.179   7.233 -0.0574  0.2799  0.1987
74750W        W17766  15.556  12.826   7.515 -0.0953 -0.0343  0.1817
74751W        W17767  10.251  18.744   6.003  0.1313 -0.1303  0.0012
74752W        W17768  32.701  18.228   5.377 -0.0298  0.0176 -0.1646
74753W        W17769  26.746   0.648   7.441  0.1446  0.1427  0.1527
74754W        W17770  30.292  31.667  23.428  0.1559  0.2779 -0.0503
74755W        W17771   1.127  23.852   9.659  0.2180 -0.0468 -0.1382
74756W        W17772  26.921  24.816   2.453 -0.3366  0.0463 -0.0623
74757W        W17773   4.675  18.676  20.912 -0.0051  0.0248  0.2852
74758W        W17774  20.494   3.210   9.878 -0.1612 -0.1382 -0.0801
74759W        W17775  12.475  33.812   7.345  0.2170 -0.0931  0.0156
74760W        W17776   4.833  25.897  16.730 -0.4032  0.2756 -0.1341
74761W        W17777   6.680  32.087   0.378 -0.3124  0.0955 -0.1293
74762W        W17778  15.084  13.646   5.100  0.5841  0.1836  0.0662
74763W        W17779  14.992   1.122   6.598 -0.0640 -0.1940 -0.1789
74764W        W17780  31.695  30.729   0.994 -0.1614 -0.0304  0.0946
74765W        W17781   4.763  32.555   6.354  0.0364  0.2826  0.0495
74766W        W17782   1.123  30.551  27.404 -0.1625 -0.1179  0.1315
74767W        W17783  23.978  16.277   8.001 -0.5418  0.1066 -0.0095
74768W        W17784  13.971   6.055   5.242 -0.0414 -0.1390  0.2985
74769W        W17785  21.103  23.158   7.602  0.0442  0.3448 -0.0395
74770W        W17786  32.127  10.086  10.004 -0.1294  0.1059 -0.3537
74771W        W17787   5.177  27.700   6.578 -0.0296  0.1940  0.0584
74772W        W17788  22.407  21.651   9.799  0.0522  0.0771 -0.0951
74773W        W17789  17.724  25.057   4.326 -0.0885  0.2197 -0.0918
74774W        W17790  27.382   3.724  10.049 -0.0891 -0.2069  0.0333
74775W        W17791  19.822  28.356  24.739 -0.0084 -0.1542 -0.1795
74776W        W17792  29.769  12.368  25.949  0.0449 -0.1890 -0.3061
74777W        W17793  27.722  15.943   4.258 -0.3897 -0.1054  0.1111
74778W        W17794  33.884  17.535  24.335  0.0593 -0.0757  0.0004
74779W        W17795   5.900  27.201   7.137  0.0126  0.1792  0.0493
74780W        W17796  16.025   5.481   5.714  0.5087 -0.1201  0.1497
74781W        W17797  34.449  23.978  26.704 -0.2032  0.3189  0.4476
74782W        W17798  27.039  11.439  28.319 -0.2665  0.1414  0.0367
74783W        W17799  13.938  20.968  28.209  0.1593  0.1597  0.2148
74784W        W17800   9.032   1.207  27.284 -0.0130  0.1848 -0.0019
74785W        W17801  14.963  14.763   3.703 -0.0774 -0.1345 -0.0330
74786W        W17802  12.258  29.811  21.906 -0.1625 -0.1142 -0.2424
74787W        W17803  31.107   2.884   2.992  0.0735  0.0034  0.2217
74788W        W17804   9.758   2.269   7.583 -0.1031  0.2807  0.0933
74789W        W17805   9.459  31.504  24.315 -0.0225  0.1938 -0.1467
74790W        W17806  11.047  33.053   7.731 -0.2620 -0.3167  0.1513
74791W        W17807  17.099  26.345   5.012 -0.1013  0.1366  0.1317
74792W        W17808  31.773  17.242   5.752  0.0882 -0.1392 -0.2924
74793W        W17809  15.513  21.260   5.429  0.0929  0.1074  0.4338
74794W        W17810   1.777  16.793   7.869 -0.2506  0.0233 -0.2695
74795W        W17811  11.417  25.612  20.831 -0.0555 -0.1659  0.0951
74796W        W17812  25.283  17.637  28.611  0.1505  0.2757  0.2317
74797W        W17813   5.206  20.737  28.720  0.0678 -0.1380  0.1138
74798W        W17814   6.182  28.497   7.137 -0.0092 -0.1113  0.0025
74799W        W17815   8.762  27.098   1.114  0.1101  0.2070 -0.0327
74800W        W17816   4.905  21.508   8.688 -0.0155  0.0182 -0.3277
74801W        W17817   0.428  31.924  22.957  0.0218 -0.1170  0.0060
74802W        W17818   3.177  23.636   5.800  0.2919  0.0744 -0.3431
74803W        W17819   5.161  23.061   4.569 -0.0077  0.2202  0.0605
74804W        W17820   1.552  22.527   6.051  0.0099 -0.1573 -0.1418
74805W        W17821   0.686  27.362   7.528  0.1186 -0.2165  0.1862
74806W        W17822  10.615  15.717  23.134  0.0095 -0.1139 -0.3261
74807W        W17823  18.634  28.082  10.401  0.4081 -0.3186 -0.1463
74808W        W17824  32.810  21.044  24.242  0.1085 -0.1875  0.1918
74809W        W17825  13.154  31.653  19.433  0.2670  0.0348 -0.0478
74810W        W17826   4.624  26.473   0.643 -0.3213 -0.1181 -0.0704
74811W        W17827  34.616  22.036   5.801  0.0474  0.3367 -0.0103
74812W        W17828   9.268  27.513   8.594 -0.0816  0.3748 -0.0953
74813W        W17829  31.751   5.146   1.033 -0.1642  0.2986  0.0363
74814W        W17830   6.229  25.732  20.919  0.1332 -0.2553  0.1307
74815W        W17831  31.485  33.711  27.193 -0.2488 -0.0575  0.1720
74816W        W17832  18.132  27.376   6.495  0.1133  0.1044  0.2262
74817W        W17833  11.539   0.113  14.348 -0.2033 -0.2510  0.3173
74818W        W17834   2.256  30.060   3.112  0.0213 -0.2558  0.0385
74819W        W17835  33.764  14.863  19.632  0.1047 -0.1568 -0.3557
74820W        W17836   8.317  21.155   6.619  0.1262  0.1680 -0.0880
74821W        W17837   7.607  15.391   5.756 -0.2168 -0.2345  0.2912
74822W        W17838   4.655  31.680   6.526 -0.4121 -0.0933  0.2818
74823W        W17839  11.792   2.619   7.013  0.0159 -0.0755 -0.0332
74824W        W17840  34.398  21.391   3.581 -0.1193  0.4506  0.1808
74825W        W17841   6.674  31.251   5.213  0.0655  0.0575  0.3471
74826W        W17842   6.907   9.393   8.975  0.1268  0.1384 -0.4282
74827W        W17843   6.122  14.729  25.103  0.1618  0.2230  0.2263
74828W        W17844  11.182  18.021  25.898 -0.0418  0.3185  0.1819
74829W        W17845   4.427  34.381  10.612 -0.1880  0.0902  0.2631
74830W        W17846  28.115  26.701  10.916  0.0886  0.0274  0.2021
74831W        W17847  17.159  19.747  22.370  0.1384  0.0492  0.0310
74832W        W17848  16.251  20.608  21.463 -0.0544 -0.2196  0.4844
74833W        W17849   3.590   8.861  27.886  0.1569  0.0769 -0.1474
74834W        W17850  32.592  27.856  20.169  0.1241 -0.0103 -0.0886
74835W        W17851  28.292   7.345   8.173  0.1359  0.0109 -0.0272
74836W        W17852  26.979  22.589  25.752  0.0925  0.1597  0.2158
74837W        W17853  27.805  32.862   5.525  0.0699  0.1357  0.0388
74838W        W17854  29.243  16.962   1.902  0.3094  0.1867 -0.0665
74839W        W17855  10.954  30.118   6.025 -0.0082  0.2853  0.4553
74840W        W17856  17.954  31.163  11.435  0.1817  0.1070 -0.1303
74841W        W17857  32.501   1.851   5.777 -0.0002  0.2434  0.1383
74842W        W17858  13.599  32.644   8.623 -0.2525 -0.4374  0.0351
74843W        W17859  18.847  18.991   4.176  0.3511 -0.1273  0.1295
74844W        W17860  27.717   8.210   7.149 -0.2879  0.0876  0.0002
74845W        W17861  33.116  34.148   4.096  0.0563  0.2179 -0.2729
74846W        W17862  11.765  20.596  28.692 -0.0032 -0.0460 -0.1575
74847W        W17863   7.588  24.357   6.190 -0.1509  0.0725 -0.2292
74848W        W17864   0.145  10.434  27.124  0.0595  0.1304 -0.1401
74849W        W17865  32.689  14.176  10.352 -0.1819  0.1874  0.0992
74850W        W17866   0.883  34.349   0.006 -0.2276  0.1444 -0.1074
74851W        W17867  30.343  25.167  26.662  0.0538 -0.3512  0.1283
74852W        W17868   6.308   7.324   8.025  0.0274 -0.0924 -0.0341
74853W        W17869   2.967   6.090  23.332  0.1140 -0.2484 -0.2103
74854W        W17870   2.845  29.984  26.264 -0.1176 -0.1481 -0.4469
74855W        W17871   1.574   0.601  28.494 -0.0673 -0.1098  0.0975
74856W        W17872  18.207  17.755  23.457  0.2325  0.0606 -0.1222
74857W        W17873  18.949  30.172   1.642  0.2247 -0.1589 -0.1491
74858W        W17874   0.241  29.814   1.835  0.1206 -0.1655  0.0297
74859W        W17875   1.699  29.312   7.806  0.1312 -0.1764 -0.1072
74860W        W17876   5.746  15.135   8.696 -0.2422  0.1376  0.0649
74861W        W17877   1.563  34.108   1.916 -0.1000  0.3186  0.1191
74862W        W17878  12.101  28.760   4.642 -0.1111  0.0528 -0.0440
74863W        W17879  33.741  32.881  11.251 -0.2149 -0.2371  0.2721
74864W        W17880  18.081  31.323  17.245  0.0461 -0.1319 -0.1446
74865W        W17881   7.748  20.894  29.275  0.1695 -0.0815  0.0301
74866W        W17882  18.427  18.882  25.815 -0.2871  0.1185 -0.0579
74867W        W17883   2.094  27.445   8.519 -0.0118 -0.0098 -0.2086
74868W        W17884   1.376   1.165   0.907  0.1039  0.2703 -0.2219
74869W        W17885  10.751   7.215   8.724  0.1577  0.0374 -0.0463
74870W        W17886   3.844  32.046   8.792  0.0732  0.1594 -0.0182
74871W        W17887  11.793  22.834   3.774  0.0203 -0.1395 -0.0151
74872W        W17888   2.546   1.342  26.849  0.1485 -0.1109 -0.2511
74873W        W17889   8.813  33.100   8.039 -0.4325 -0.1453  0.4652
74874W        W17890   7.337  26.266  27.273 -0.0479 -0.2507 -0.2067
74875W        W17891   5.458  13.963  16.344 -0.1898 -0.0182  0.0911
74876W        W17892   5.810   8.487   8.907  0.1750  0.3117  0.0140
74877W        W17893   0.379  32.681  10.043 -0.0506  0.2249 -0.2665
74878W        W17894   3.682   2.567   7.861 -0.2200  0.0944  0.1265
74879W        W17895   5.282  28.913   0.597 -0.2547 -0.0212 -0.1343
74880W        W17896  34.444  16.657   2.243  0.2089  0.2943 -0.2394
74881W        W17897   5.243  32.949   0.128  0.4968 -0.1598  0.1026
74882W        W17898  31.408  26.450  28.407  0.0715  0.2801  0.1618
74883W        W17899  18.119  22.311  26.244  0.0189 -0.1021 -0.0235
74884W        W17900   4.269  22.308  28.266  0.3309 -0.1785  0.0000
74885W        W17901  21.595   8.427   3.785 -0.0692 -0.0939 -0.0664
74886W        W17902   3.787  19.297   2.974 -0.2233 -0.1353 -0.0925
74887W        W17903  20.066  34.373   1.366 -0.1594 -0.1761 -0.1229
74888W        W17904  22.872  29.547  28.501 -0.0935 -0.0211  0.0039
74889W        W17905   1.564  24.597   5.477 -0.0496 -0.0543  0.1782
74890W        W17906  10.438  26.808  25.636 -0.1641  0.2071 -0.1290
74891W        W17907  10.952  24.266   5.942 -0.2246  0.1991  0.0366
74892W        W17908  18.833  34.250   3.765 -0.3308 -0.1408 -0.1515
74893W        W17909   3.585  11.663   8.941 -0.1198 -0.1007 -0.0836
74894W        W17910  17.238  26.536  23.904  0.1905  0.3303  0.4890
74895W        W17911   4.771  34.570   7.026  0.1348 -0.2122 -0.1181
74896W        W17912  34.768  16.002  17.831  0.0727 -0.1191 -0.2857
74897W        W17913   3.244  22.232   1.664  0.0541  0.0476  0.0281
74898W        W17914   1.330  23.414   6.440 -0.0183 -0.0562 -0.0920
74899W        W17915   2.408  29.721   6.845  0.1031  0.1846 -0.2263
74900W        W17916  18.893  16.103  28.899 -0.4671 -0.4582 -0.0845
74901W        W17917  33.835  11.117   4.078  0.0462  0.0007 -0.4042
74902W        W17918  34.030  30.520  27.606 -0.1969 -0.0013  0.0146
74903W        W17919  31.800  13.041   5.383 -0.0663  0.2076 -0.0592
74904W        W17920  10.009   6.783   3.308  0.1086  0.0266 -0.0178
74905W        W17921   4.233  27.139   6.811 -0.0116 -0.1815 -0.0290
74906W        W17922  25.492  30.822   4.197 -0.1907 -0.0830  0.0567
74907W        W17923  13.064  29.360  25.217  0.0714 -0.2875 -0.2902
74908W        W17924   3.483   8.972   7.707  0.0768  0.1167 -0.2894
74909W        W17925  16.947  30.912   9.052 -0.0518 -0.0123 -0.2327
74910W        W17926  26.574  26.344   7.610 -0.0996  0.0981 -0.2102
74911W        W17927   9.110   0.138  26.953 -0.2044  0.0472  0.1651
74912W        W17928  12.133  31.453   4.507 -0.1849  0.2016 -0.1768
74913W        W17929  33.356  19.655  10.021 -0.1310  0.1681  0.2472
74914W        W17930  32.640  22.962   6.984  0.1991  0.0802  0.0379
74915W        W17931   8.962  15.927   3.278  0.0817 -0.0238 -0.0807
74916W        W17932   2.425  20.768  29.039  0.0827  0.1068 -0.0372
74917W        W17933   5.308   2.014  18.562  0.0758 -0.1429  0.0530
74918W        W17934  12.381  25.882  28.248 -0.1725 -0.1487 -0.4384
74919W        W17935   1.277  17.703  27.107 -0.0488 -0.2121  0.0101
74920W        W17936   5.055  20.357  27.935  0.1505 -0.1697 -0.1732
74921W        W17937  34.363  33.478   8.129 -0.1249 -0.3221 -0.2289
74922W        W17938  31.948   2.701   6.015 -0.0434 -0.2828 -0.0024
74923W        W17939  13.952  31.749   8.962  0.0342 -0.1361  0.0965
74924W        W17940  34.081  31.325   8.902  0.3252  0.0159  0.2636
74925W        W17941  10.908  23.886   2.753 -0.0053  0.0643  0.0375
74926W        W17942  34.132  20.926   6.376 -0.0681 -0.0447 -0.1617
74927W        W17943   7.554  21.345   1.462 -0.3310 -0.0299  0.0370
74928W        W17944   4.381  15.424  27.720  0.1567  0.3910  0.0916
74929W        W17945   8.424  27.879   4.037  0.1416  0.0998 -0.0280
74930W        W17946  22.829  27.746   7.715 -0.0936  0.0798 -0.0830
74931W        W17947   3.127  24.805  21.547 -0.0461 -0.3032 -0.2297
74932W        W17948  16.771  23.455   3.075 -0.1222 -0.1645  0.1148
74933W        W17949   6.824  19.106  25.301 -0.0766 -0.2570 -0.2905
74934W        W17950   9.869  24.533   8.449  0.0561 -0.0131  0.0532
74935W        W17951  23.784  14.997   0.036  0.1716 -0.2398  0.2693
74936W        W17952   1.382   0.873   6.844 -0.1138  0.0052 -0.3675
74937W        W17953  13.813  31.622   6.919 -0.0026  0.3852 -0.1377
74938W        W17954  10.999  13.455   6.122 -0.1236  0.0231  0.1920
74939W        W17955  25.904  24.889  28.632  0.1874 -0.1147  0.1302
74940W        W17956  14.642  21.800   1.060  0.0740 -0.2388 -0.2298
74941W        W17957   9.258  24.548  25.831 -0.2314  0.2447  0.1349
74942W        W17958   3.865   0.188   5.431  0.3129  0.1139 -0.0045
74943W        W17959  27.894  26.200  27.547  0.0392 -0.2175  0.0917
74944W        W17960   7.297  30.685   3.939 -0.1248  0.2440  0.0051
74945W        W17961  13.332  29.341  28.632 -0.1125  0.0118 -0.2216
74946W        W17962  17.654  14.444  26.853 -0.3090 -0.0267  0.0297
74947W        W17963  19.158  16.640   4.847  0.3612  0.2638 -0.0746
74948W        W17964   9.434   2.991  26.740 -0.1819  0.3013 -0.1900
74949W        W17965   3.936  28.231   8.133  0.1474 -0.1129 -0.1777
74950W        W17966  20.199  13.152  28.712  0.0577  0.1008 -0.0756
74951W        W17967   5.807   1.900   2.839 -0.1223 -0.1456  0.1155
74952W        W17968  11.769   2.118  28.664  0.3150  0.0442  0.0738
74953W        W17969  32.801   4.644   2.508  0.0380 -0.2199  0.0003
74954W        W17970   1.839   3.469   9.000  0.0685 -0.0931 -0.1430
74955W        W17971   2.688  32.975   6.263  0.4527  0.1576 -0.2079
74956W        W17972   4.362   8.237   6.563  0.3980 -0.1658 -0.3005
74957W        W17973  20.145  12.469   4.661 -0.0395  0.0406  0.1957
74958W        W17974  11.877  21.872   1.668 -0.0305  0.0303 -0.1469
74959W        W17975  12.913  14.712   1.544  0.1136 -0.1058 -0.0526
74960W        W17976   6.533  33.486   4.563 -0.0030 -0.0212  0.3537
74961W        W17977   7.771  33.005   9.519 -0.0408  0.0991 -0.0017
74962W        W17978  33.230  23.944  10.081  0.0562 -0.0810 -0.2141
74963W        W17979   6.765   1.001   8.249 -0.0315 -0.0360  0.0905
74964W        W17980  34.526   4.832   9.295 -0.1605 -0.0956  0.1429
74965W        W17981   3.787  20.376   7.257 -0.0874  0.2613 -0.0422
74966W        W17982  20.000  15.491   1.953 -0.1127 -0.1419  0.0853
74967W        W17983  16.194   5.008   8.689 -0.1449 -0.1279 -0.0113
74968W        W17984  14.596  12.532  28.888 -0.2771  0.1937  0.2322
74969W        W17985   2.145  24.393   7.133 -0.2505 -0.1862  0.2799
74970W        W17986   2.950   3.358   6.009 -0.1792  0.0743 -0.0404
74971W        W17987  11.268   0.857   9.534 -0.1095  0.0698 -0.3840
74972W        W17988   9.900   4.769   1.675  0.0141 -0.1720  0.2604
74973W        W17989   7.286  25.991   0.662 -0.1128  0.1458  0.0247
74974W        W17990   4.763   2.465   4.191  0.1919 -0.0571  0.2455
74975W        W17991  32.826  34.330  28.193  0.4076 -0.0233 -0.2280
74976W        W17992  26.746  25.078  21.309  0.0732 -0.1483 -0.0725
74977W        W17993  15.192  28.284  23.559 -0.1015  0.3876 -0.0657
74978W        W17994  27.844  12.437  24.891  0.0392 -0.0746 -0.0093
74979W        W17995   4.459  33.417   7.919  0.0670  0.0355  0.1157
74980W        W17996   7.808   5.860   2.557 -0.1764  0.2777 -0.2001
74981W        W17997  23.206   7.348  26.909  0.1661  0.2080  0.0640
74982W        W17998   8.741   4.542  20.288  0.2356  0.0214  0.0049
74983W        W17999   5.376  30.386   3.739  0.1025  0.0642 -0.2775
74984W        W18000  10.158   3.415   0.825 -0.0433 -0.1654 -0.3621
74985W        W18001   3.193  33.938   4.387 -0.1471  0.0741  0.0328
74986W        W18002   1.255   7.769   6.396 -0.1308  0.1265  0.0085
74987W        W18003   2.938  28.309  18.440  0.2195 -0.1662 -0.1354
74988W        W18004  30.184  17.980  24.868  0.2821 -0.1059  0.0464
74989W        W18005  18.290   2.676   4.390 -0.2460 -0.1785  0.0471
74990W        W18006   9.159   6.763   8.719  0.0912  0.0056  0.2776
74991W        W18007  24.591   8.243   8.253 -0.0632 -0.2114 -0.1809
74992W        W18008  25.480  21.825  21.934 -0.0477  0.3187 -0.3956
74993W        W18009   2.039  23.842   3.475 -0.1740 -0.2871  0.2856
74994W        W18010  11.103   0.401  14.494  0.1706 -0.1144  0.1357
74995W        W18011  18.091  11.104  22.782 -0.0260  0.0240  0.0197
74996W        W18012  29.398  21.048   9.965  0.1590 -0.0376 -0.1726
74997W        W18013   8.319   2.347  10.612 -0.0569  0.0689 -0.2911
74998W        W18014  11.796  11.171   3.449  0.2958 -0.0320  0.1882
74999W        W18015  32.877  19.542   1.038  0.2940 -0.1747 -0.2666
75000W        W18016  30.623  33.800  27.648 -0.0478 -0.0596 -0.1750
75001W        W18017  10.058  10.671   7.852 -0.2898  0.0510 -0.1507
75002W        W18018  20.089   5.878   8.627  0.0823 -0.1910  0.1090
75003W        W18019   1.942  27.778  27.494  0.1096  0.1885 -0.3069
75004W        W18020   9.780  18.544   7.936  0.1481  0.0633 -0.0017
75005W        W18021  34.431   0.530  14.944  0.1369 -0.3229 -0.0480
75006W        W18022   5.022   3.874   2.394  0.0432  0.0749  0.1468
75007W        W18023   6.172  16.985   1.240 -0.2453 -0.1145 -0.2162
75008W        W18024   5.428   2.419  23.694 -0.0089  0.1937  0.0127
75009W        W18025  13.284  20.371   1.353  0.0038 -0.1131  0.3358
75010W        W18026  31.661   9.223  26.251  0.1026 -0.5120 -0.0769
75011W        W18027  30.273   6.196   1.894  0.0530 -0.0513  0.0605
75012W        W18028  10.987   8.503  25.789 -0.0688  0.2426  0.0699
75013W        W18029  30.953   4.697  28.041 -0.2181  0.0409 -0.1212
75014W        W18030  10.366  19.053   4.064  0.0273 -0.1845 -0.1580
75015W        W18031  20.550  23.501  25.223 -0.1341  0.0705 -0.3402
75016W        W18032  24.366  28.149  26.455  0.0219 -0.3480  0.1589
75017W        W18033  29.255  28.703   9.405  0.1935  0.0350  0.1150
75018W        W18034  14.858  22.408  25.853  0.1534 -0.0259 -0.3310
75019W        W18035  19.816  26.589   8.386 -0.2472 -0.0553 -0.0384
75020W        W18036  32.128   4.121   5.877  0.0592 -0.0720 -0.1122
75021W        W18037   3.435  18.203  15.070  0.1378  0.0123  0.1838
75022W        W18038   2.337  18.673   2.998  0.0845  0.1893  0.0732
75023W        W18039   4.980  26.675  23.532 -0.1506 -0.1164 -0.1348
75024W        W18040   0.856   8.985  28.987  0.2022 -0.0861  0.2813
75025W        W18041  29.352  13.972  27.282  0.1502  0.0890  0.3308
75026W        W18042  20.977   1.347   7.435 -0.0911 -0.1353 -0.1249
75027W        W18043   7.922  30.843   7.869  0.0993  0.1491 -0.0451
75028W        W18044   7.344  31.834  23.235  0.0534  0.3217 -0.0758
75029W        W18045  33.991   2.377  19.485 -0.4876  0.3260  0.0499
75030W        W18046   3.313  24.704   0.276  0.0046  0.0046  0.0243
75031W        W18047   3.388  32.555  28.027 -0.3288 -0.2621  0.0852
75032W        W18048   1.827  29.891   0.760 -0.0705 -0.2422  0.4070
75033W        W18049   8.504  23.273  28.725  0.2307  0.1530  0.0332
75034W        W18050  19.067   4.449   6.897 -0.0326  0.3025  0.0045
75035W        W18051   9.573  31.926   5.223 -0.0420  0.0451 -0.0306
75036W        W18052   1.901   0.911  26.399  0.0898 -0.1640  0.2150
75037W        W18053   0.806  19.858  16.552  0.3726  0.4356  0.0114
75038W        W18054   1.388  27.653   2.397  0.1021 -0.3348  0.2344
75039W        W18055   3.797  17.585  16.851  0.0249  0.2132  0.3411
75040W        W18056  14.593   3.493   9.911  0.0693 -0.1242 -0.2603
75041W        W18057   3.036  31.344  26.118  0.0487  0.0229  0.1482
75042W        W18058   3.141  13.383  15.773 -0.0399  0.0971 -0.1004
75043W        W18059  11.825  16.626   0.868 -0.0642  0.0597 -0.0438
75044W        W18060   2.579   7.786   1.146  0.2075 -0.0713  0.1550
75045W        W18061  10.859  23.666  28.227 -0.0519 -0.3897  0.0067
75046W        W18062   7.504   6.493   8.727 -0.3908 -0.0634 -0.0599
75047W        W18063   2.546   9.125  26.522 -0.0585  0.2172 -0.1595
75048W        W18064   9.138   8.376   9.086  0.3482 -0.3556 -0.0985
75049W        W18065  10.141  28.337  23.538  0.3378  0.1742  0.0970
75050W        W18066  32.589  12.222   6.999  0.0325 -0.3168 -0.0264
75051W        W18067  33.086  22.813  28.979  0.0548  0.1982  0.0070
75052W        W18068   5.748  34.470   1.085  0.1314  0.3232 -0.0708
75053W        W18069  28.073  20.712   1.033  0.0684  0.1157 -0.0906
75054W        W18070   3.307  23.204  28.557  0.2343  0.0663 -0.2043
75055W        W18071   3.076  10.867   7.325 -0.0732 -0.3335  0.1059
75056W        W18072  15.450  27.016  23.472 -0.4718  0.1108 -0.0056
75057W        W18073  11.361  21.093  18.353 -0.0320 -0.1817 -0.2195
75058W        W18074   6.747  26.608  13.276 -0.1569 -0.1317  0.0315
75059W        W18075   1.293  30.850   8.548 -0.0290  0.1297  0.0754
75060W        W18076  18.473  32.391   8.742 -0.0203  0.0769 -0.0196
75061W        W18077  10.679   3.485  20.000 -0.0494  0.2192 -0.1968
75062W        W18078   0.278  31.802   4.752  0.0278  0.1914 -0.1593
75063W        W18079   7.902   4.191   9.555 -0.0267 -0.1060  0.0105
75064W        W18080  11.931  25.545   5.770 -0.0829  0.5589  0.0530
75065W        W18081  30.144  30.470   4.015  0.0831 -0.3001 -0.1375
75066W        W18082  28.588  34.298   2.034 -0.5083 -0.0012  0.4434
75067W        W18083   1.710   2.905   9.078 -0.0053 -0.1267  0.0493
75068W        W18084   9.495  30.452   5.321  0.1126  0.0153 -0.2726
75069W        W18085  31.846  21.980   8.933  0.1117  0.0636  0.1097
75070W        W18086  11.049  22.620  24.230 -0.1811 -0.4386  0.1286
75071W        W18087  33.159  26.742   8.084  0.1063  0.0045 -0.0209
75072W        W18088  16.559  33.057   3.712 -0.2249 -0.1801  0.0407
75073W        W18089  10.391   1.819   6.609  0.0403 -0.4029 -0.2437
75074W        W18090   1.704  33.327   0.490 -0.0012 -0.2984  0.2794
75075W        W18091  34.404  31.030  20.630  0.2995 -0.1232 -0.0643
75076W        W18092  19.619  34.303  25.752 -0.4475 -0.2387 -0.0406
75077W        W18093  27.119  13.946  24.182 -0.1293  0.3158  0.0702
75078W        W18094  23.534   1.997  25.775  0.0977  0.0790 -0.2782
75079W        W18095   6.674  12.700   2.289 -0.0598  0.0169  0.1965
75080W        W18096  16.232  28.607  20.940 -0.3056 -0.2400  0.1116
75081W        W18097  10.449  28.128   0.750  0.0411  0.2597 -0.4946
75082W        W18098   1.810  22.847   2.171  0.0589  0.1055  0.0424
75083W        W18099   7.500  28.361   0.921 -0.1263  0.0822 -0.1175
75084W        W18100  11.290  19.722  20.070 -0.2175  0.3457  0.0184
75085W        W18101   5.523  15.960  21.377  0.0488  0.2113  0.1689
75086W        W18102  33.250   5.922   6.286  0.0752 -0.2074 -0.0463
75087W        W18103   7.476  32.285   1.352  0.1149 -0.1063  0.0573
75088W        W18104   7.031  28.758   7.223 -0.0041 -0.1846  0.2041
75089W        W18105  12.508  21.995  21.053 -0.0539 -0.0184 -0.4113
75090W        W18106  21.036   7.007  19.173 -0.1145 -0.0928  0.1577
75091W        W18107  25.716   3.684   2.438 -0.5688  0.1265  0.4822
75092W        W18108   6.109  21.891   0.302 -0.0551  0.0078  0.1325
75093W        W18109  11.309  12.598  25.913  0.1223  0.0012 -0.1811
75094W        W18110  27.280  27.420   6.832 -0.0495 -0.0889 -0.1666
75095W        W18111   8.742  16.310   9.081 -0.1206 -0.1968  0.0764
75096W        W18112  15.423  10.441  27.769  0.1766 -0.1843  0.0603
75097W        W18113   5.779  33.771   4.256 -0.0680 -0.0591  0.0787
75098W        W18114  15.381  25.558  23.094  0.0486  0.3437  0.0446
75099W        W18115   2.818   2.539  10.528 -0.1066  0.0837  0.0921
75100W        W18116  21.490  18.374  22.222  0.1680 -0.0350 -0.3434
75101W        W18117  25.681  18.741  20.028  0.0340  0.0830 -0.1050
75102W        W18118   6.112  11.714   7.526  0.0185 -0.1353 -0.0101
75103W        W18119  29.143  21.158   2.932 -0.0268 -0.0493 -0.0615
75104W        W18120   4.185  11.566   5.409  0.0724  0.3459 -0.0875
75105W        W18121  31.610   5.217   2.904 -0.5396  0.3814  0.2021
75106W        W18122  12.692  34.194   4.612 -0.2208 -0.1153  0.0922
75107W        W18123  12.470  24.114   0.404  0.0867 -0.3562  0.3029
75108W        W18124  19.120   2.769  25.185 -0.3240  0.3131  0.1294
75109W        W18125  13.535  31.509  10.016  0.4245  0.0963  0.1860
75110W        W18126  28.664   5.995   8.839 -0.0202 -0.0133  0.0089
75111W        W18127   6.514  32.432   7.077  0.2291 -0.1339 -0.2712
75112W        W18128   6.969  29.181  22.582 -0.0182 -0.3197  0.0385
75113W        W18129  25.624  27.770   6.404 -0.1047 -0.0529  0.4050
75114W        W18130  13.379  22.816  27.168 -0.1270 -0.2737 -0.3021
75115W        W18131  32.153   4.450  19.306 -0.0596  0.0228 -0.4659
75116W        W18132  30.793  32.545   9.154 -0.0208 -0.2539  0.2629
75117W        W18133   4.091   4.105   4.834  0.0311 -0.1259  0.0711
75118W        W18134  32.443  18.623  10.265  0.0449  0.0035 -0.1044
75119W        W18135   1.870  28.281   9.601  0.0372  0.4020 -0.1473
75120W        W18136  33.649  34.585  20.488 -0.2347 -0.0829  0.1467
75121W        W18137  13.398  33.445   8.315  0.2247 -0.0675  0.1803
75122W        W18138   8.291  32.312  16.620 -0.1775  0.0873 -0.1221
75123W        W18139  26.192  22.816  27.432  0.1652 -0.4876  0.1709
75124W        W18140  17.908  23.526   1.945  0.3124  0.0291  0.0885
75125W        W18141   1.833  20.595   2.176 -0.0223 -0.2005 -0.0705
75126W        W18142   1.744  27.415   7.727  0.1665  0.2440 -0.0322
75127W        W18143  31.469  14.498   0.635 -0.0186 -0.1338 -0.0803
75128W        W18144  15.874  15.205  22.953  0.2795  0.0097  0.1064
75129W        W18145  32.553  13.008  21.568 -0.1108  0.1578  0.0442
75130W        W18146  19.430  25.018   4.755 -0.0428  0.1227  0.0542
75131W        W18147   0.960   8.838   0.599 -0.2850  0.1058  0.2205
75132W        W18148   8.745  24.798  22.606  0.3330 -0.0041 -0.1956
75133W        W18149   1.957  27.859   9.921  0.0511  0.2691 -0.0470
75134W        W18150   7.618  17.607  24.100 -0.0971 -0.2434 -0.0220
75135W        W18151   5.947   1.169   0.571 -0.0631 -0.0108 -0.2839
75136W        W18152  33.687  34.251  25.250  0.0772 -0.0547 -0.1731
75137W        W18153   7.387  20.497  23.256 -0.1878  0.1557 -0.0567
75138W        W18154  34.656  29.185  27.376 -0.0567  0.2446 -0.1536
75139W        W18155   7.228  33.457  25.022 -0.1102  0.1602 -0.0100
75140W        W18156  30.898  26.548   5.824 -0.0471  0.1133  0.2067
75141W        W18157   7.602   8.991   9.891  0.2169 -0.0035 -0.0030
75142W        W18158   1.913  24.936  28.311  0.3853  0.0769 -0.3411
75143W        W18159  28.462  23.010  10.049  0.0168  0.0885 -0.1213
75144W        W18160  15.147  20.884  22.579 -0.2164 -0.0178  0.0090
75145W        W18161   2.062  12.700   1.644 -0.2003 -0.1266 -0.0513
75146W        W18162  10.970  27.329   3.482 -0.2443  0.0564 -0.1079
75147W        W18163  34.234  23.659   8.936 -0.0271 -0.1052 -0.0800
75148W        W18164   3.313  31.372   9.369 -0.1489 -0.5434  0.2092
75149W        W18165  27.897  26.503   2.907 -0.3738  0.2950  0.1097
75150W        W18166   3.145  31.790   4.397  0.0833 -0.2002  0.2284
75151W        W18167   5.293  11.734  23.520  0.1916  0.0579  0.1312
75152W        W18168  17.606   3.645   5.182 -0.1453 -0.1103  0.1218
75153W        W18169  17.328  30.278  29.313  0.1471  0.1436 -0.3292
75154W        W18170  28.626  32.390  25.028  0.1851 -0.0934  0.2009
75155W        W18171  10.741  19.808  22.211 -0.3619  0.0098  0.0186
75156W        W18172  34.749   6.973   6.909  0.3096  0.0187 -0.1513
75157W        W18173  32.749  24.528  27.855 -0.1629 -0.1065 -0.3910
75158W        W18174   4.165  30.452  24.377 -0.3016  0.0664  0.0403
75159W        W18175   5.024   1.955   1.343 -0.0753  0.0797 -0.0133
75160W        W18176   5.351  25.174  27.425 -0.3724 -0.1330  0.1112
75161W        W18177   2.122  31.168   7.652  0.0672  0.0189 -0.0595
75162W        W18178   2.393  31.312   3.931 -0.4019 -0.2094 -0.1319
75163W        W18179  33.492   1.941  16.855  0.2000 -0.1747 -0.1888
75164W        W18180  31.986   0.099   4.149  0.0639 -0.0681  0.1110
75165W        W18181   2.259  32.480  23.124 -0.0421 -0.2598  0.2770
75166W        W18182  11.456   7.607  27.169  0.1664 -0.2553  0.0317
75167W        W18183  16.252  19.311  22.940  0.4935  0.1288  0.3101
75168W        W18184  11.256  29.785  15.410 -0.2650 -0.0988 -0.0618
75169W        W18185  29.213  28.279  25.556 -0.1783  0.0088 -0.0938
75170W        W18186  12.301  12.565  23.823 -0.1939  0.1372 -0.0161
75171W        W18187  30.731  30.607  22.645  0.1755  0.0938  0.1552
75172W        W18188  15.563  33.642  24.503 -0.3370  0.2113 -0.0618
75173W        W18189   5.299  32.958  10.253  0.0096  0.1113 -0.2915
75174W        W18190   1.544  34.257  27.626  0.2353 -0.1011  0.0873
75175W        W18191  10.588  31.521   3.764 -0.0680  0.3530  0.1043
75176W        W18192  20.815  20.171  20.724 -0.1479  0.0057 -0.2144
75177W        W18193  10.710  30.503  26.070  0.3737 -0.1812  0.0771
75178W        W18194  27.818  34.777   5.059 -0.0443  0.1170 -0.0788
75179W        W18195  14.935  33.987   1.507 -0.0937 -0.0125 -0.0188
75180W        W18196  28.343  13.445   1.880  0.0220  0.1056  0.1937
75181W        W18197  27.048   8.901   6.734 -0.2533  0.2985 -0.4294
75182W        W18198  13.317  28.744   6.172  0.1268 -0.1095 -0.1571
75183W        W18199  33.395  29.716   5.607  0.0022  0.1450  0.2678
75184W        W18200  30.638  17.980  24.515  0.1362 -0.0636  0.0832
75185W        W18201  13.306   3.524  28.818  0.1610  0.3214 -0.1680
75186W        W18202  30.023  30.353  22.760 -0.1840  0.0267  0.2866
75187W        W18203  32.487  28.318  24.334  0.2376 -0.1726  0.0605
75188W        W18204  32.314  27.147   6.588  0.0126  0.3692  0.0363
75189W        W18205  31.271  11.584   2.644  0.0732  0.0048 -0.2742
75190W        W18206  16.824  18.937  27.670 -0.0663  0.1031 -0.0270
75191W        W18207   6.645  18.055   1.503 -0.1728  0.0636  0.2148
75192W        W18208  29.143   3.547  25.449  0.0685 -0.0216  0.1314
75193W        W18209   6.821  25.296  20.078  0.0681 -0.2034 -0.4069
75194W        W18210   8.258  23.671  21.992  0.1817 -0.2999 -0.6524
75195W        W18211  27.338   2.947  11.215 -0.0414  0.0848  0.0413
75196W        W18212  28.974  23.629   5.267  0.1292 -0.2021 -0.1472
75197W        W18213  24.330   3.536   4.307  0.0189  0.1272 -0.0333
75198W        W18214  12.061  32.729   7.841 -0.0043 -0.0487 -0.5445
75199W        W18215  33.165  23.512  18.081 -0.0072  0.2895 -0.1133
75200W        W18216  11.303   3.720   9.998 -0.0473 -0.0123  0.0085
75201W        W18217  30.200  19.594  25.093 -0.1616 -0.0752 -0.2631
75202W        W18218   8.964  19.539   3.894 -0.4023 -0.0886 -0.0109
75203W        W18219   3.655   4.191   7.383  0.2664 -0.2422  0.0108
75204W        W18220  30.022  33.687  10.202 -0.1694  0.2500 -0.2801
75205W        W18221  11.970  24.968  26.286  0.0139 -0.0154 -0.2587
75206W        W18222  31.080   8.729  25.899 -0.1298 -0.0424 -0.0281
75207W        W18223   0.389  28.275   5.865 -0.2501  0.0636 -0.1384
75208W        W18224   6.359   1.999   0.819 -0.0865 -0.1272  0.1252
75209W        W18225  14.600  20.878   8.409 -0.0750 -0.0410 -0.0972
75210W        W18226   1.428  21.612  28.882 -0.1599 -0.1358 -0.0463
75211W        W18227   3.516   4.559  23.614 -0.0508 -0.1028 -0.1268
75212W        W18228  10.337  27.175  25.255 -0.0061 -0.0157  0.2079
75213W        W18229  18.354  32.768   1.826 -0.1440 -0.0895  0.0841
75214W        W18230  11.185  15.694  20.152  0.1604  0.1525 -0.2812
75215W        W18231   5.801  34.614   6.901 -0.2798  0.0343 -0.0271
75216W        W18232  12.764  25.000   1.229 -0.2084  0.4903  0.0865
75217W        W18233   6.559  19.673  20.162 -0.1950  0.1907 -0.0379
75218W        W18234   3.274  12.856  28.905 -0.0567 -0.1982  0.0375
75219W        W18235  11.685   6.984   4.097 -0.0934  0.1696 -0.2429
75220W        W18236   8.955  27.418  21.511  0.2186  0.1358  0.2930
75221W        W18237   5.260   6.722  10.194 -0.1126 -0.0175 -0.2030
75222W        W18238   6.622   4.023  19.825  0.2367  0.1396 -0.1030
75223W        W18239   6.421  15.042  21.663  0.1094  0.2298 -0.2590
75224W        W18240  12.133  27.056  17.369 -0.0773 -0.4263 -0.0909
75225W        W18241  33.943  26.407   8.086  0.0438  0.1802 -0.2531
75226W        W18242   8.761  25.439   3.888  0.0194  0.1630 -0.1137
75227W        W18243  10.158  33.201  23.818  0.1849  0.0820  0.1571
75228W        W18244  27.389  34.122   5.070  0.1448 -0.0771 -0.1585
75229W        W18245   7.158   3.971  19.613 -0.0097  0.0573 -0.2201
75230W        W18246   5.579  34.098   4.684  0.1641 -0.0880  0.0680
75231W        W18247   3.857  33.227  20.453  0.1573 -0.3883  0.2717
75232W        W18248  33.258  34.205   2.060 -0.1764  0.1726 -0.0293
75233W        W18249  30.301  34.462  10.736 -0.0062  0.0736 -0.0208
75234W        W18250  18.843   3.815   6.245 -0.0261 -0.0565 -0.0531
75235W        W18251   5.567   3.069   5.088  0.1449  0.0846  0.1079
75236W        W18252   9.729  34.478  25.501 -0.2722  0.1750 -0.0504
75237W        W18253  10.681   5.090   0.072 -0.1552 -0.2250  0.1926
75238W        W18254  33.220  32.202  16.779  0.1926 -0.1189 -0.2384
75239W        W18255  17.171  22.709   0.037 -0.2065 -0.1976 -0.0404
75240W        W18256  22.092  33.396   2.418 -0.0395 -0.0517  0.1584
75241W        W18257  14.391  30.817  28.584 -0.2955 -0.0075 -0.1215
75242W        W18258   0.980   6.390  26.245 -0.1799 -0.1419  0.0375
75243W        W18259   6.655   6.655  25.273 -0.1212 -0.2633 -0.0928
75244W        W18260   3.079   6.425  22.279 -0.1107 -0.1254  0.0583
75245W        W18261   3.428  21.237   1.982 -0.3378  0.0057  0.1239
75246W        W18262   5.840  28.263   9.682 -0.1240  0.1244  0.0060
75247W        W18263  19.987   8.616   4.132  0.0332  0.1608 -0.1834
75248W        W18264   6.773   9.485  29.238 -0.3877  0.0879  0.0053
75249W        W18265  17.390  34.393  22.986 -0.1216  0.3686 -0.0007
75250W        W18266  17.728  29.969   1.716 -0.2195 -0.0434 -0.2324
75251W        W18267   9.056  22.128   6.139  0.1372 -0.2939  0.0953
75252W        W18268  12.798  20.016   0.050  0.1281 -0.0287  0.0952
75253W        W18269   4.232  23.039   4.673 -0.1183  0.1517 -0.0920
75254W        W18270   4.022  24.260   1.553  0.2152  0.1806 -0.0671
75255W        W18271   6.537   9.601   5.657  0.2824  0.2272  0.1275
75256W        W18272   2.340  17.071   3.411 -0.1341  0.0147  0.0246
75257W        W18273  16.638  20.966   7.758 -0.0038  0.1215  0.4053
75258W        W18274  12.671   2.062  24.388 -0.0942  0.0445 -0.2095
75259W        W18275  30.740  24.593   6.835 -0.4045 -0.2208 -0.1262
75260W        W18276  27.257  10.536  25.646 -0.1869  0.1496 -0.1624
75261W        W18277   6.529  29.620   6.042  0.1682 -0.0081  0.3388
75262W        W18278   8.913  24.676  17.728  0.0787 -0.2138 -0.0739
75263W        W18279   6.819  29.976   0.080 -0.0735 -0.0528  0.2213
75264W        W18280  12.455   1.957   8.198  0.2605  0.0180 -0.1692
75265W        W18281  28.402  32.984   2.625  0.1331  0.0020  0.1511
75266W        W18282  27.291  13.147  28.142 -0.3072 -0.1213  0.0517
75267W        W18283   5.220  14.710   9.765  0.1319 -0.0346 -0.1066
75268W        W18284  10.438   7.688  25.016 -0.3180  0.2233  0.0393
75269W        W18285   6.923  34.615   9.927  0.0115 -0.0037  0.0154
75270W        W18286  25.559   4.644  25.604 -0.2340 -0.2172  0.3384
75271W        W18287  13.409  19.718  20.566 -0.2522 -0.1097  0.1304
75272W        W18288  12.828  19.018   1.316 -0.2728 -0.5007 -0.2327
75273W        W18289  32.964  33.536  20.790  0.1397  0.1861  0.1863
75274W        W18290   7.251  11.416   3.185  0.2902 -0.3434 -0.0507
75275W        W18291   9.077  25.598  24.783  0.0110 -0.0448 -0.0417
75276W        W18292  14.042  21.561  19.157 -0.0270  0.3413 -0.2488
75277W        W18293   0.897  22.524  25.367  0.0978  0.0105 -0.2562
75278W        W18294  12.999  25.386   0.334 -0.0328 -0.1536  0.2577
75279W        W18295  31.148  30.495   8.897  0.0651 -0.2225 -0.1337
75280W        W18296   6.355  13.452   1.068 -0.0414  0.0325 -0.0603
75281W        W18297  31.046   2.236   8.780 -0.1303  0.2121 -0.1158
75282W        W18298   7.681   0.985  17.417  0.0861 -0.1585  0.1134
75283W        W18299   5.369   9.546  25.500 -0.1308 -0.4019  0.1718
75284W        W18300   3.131  23.887   2.545  0.0615 -0.3769  0.3198
75285W        W18301   1.313  34.148  21.925  0.0249 -0.1716 -0.3293
75286W        W18302  34.219   6.278  22.658 -0.2427  0.0096  0.0410
75287W        W18303  26.117  10.031   0.610 -0.0298  0.1059  0.1170
75288W        W18304  27.997  27.598  20.396 -0.1639 -0.1108  0.2974
75289W        W18305  14.017  25.801   5.441 -0.1183 -0.1605  0.0551
75290W        W18306  24.124  15.845  25.003 -0.0598 -0.3665 -0.0273
75291W        W18307  18.114  23.198   2.364 -0.1958  0.0242 -0.0617
75292W        W18308   3.375  30.845   4.807  0.2040  0.0023  0.0488
75293W        W18309   7.673  21.464  16.478  0.0847  0.2459  0.0869
75294W        W18310  21.563  30.570  24.216  0.1582  0.0265  0.4679
75295W        W18311   0.066  27.490  24.203 -0.4121 -0.1895 -0.1936
75296W        W18312   2.049  13.148   8.879 -0.3073  0.2454 -0.0251
75297W        W18313  16.045  11.990   0.187 -0.0027 -0.1454  0.0136
75298W        W18314  17.663  19.698  20.863  0.0417  0.0110  0.0133
75299W        W18315   1.472  30.226   2.712  0.0111  0.0073 -0.1686
75300W        W18316   9.591  20.451  13.663 -0.1474 -0.0842  0.1155
75301W        W18317   4.309  13.609   8.475 -0.0177 -0.0772  0.1032
75302W        W18318  25.045  20.439   8.725 -0.1335  0.2949  0.2829
75303W        W18319  33.540  14.520   5.326 -0.1786 -0.0038 -0.3208
75304W        W18320  34.073  33.506  28.817 -0.0348 -0.1339  0.1208
75305W        W18321  14.438  31.656  18.679  0.2468  0.0976  0.1092
75306W        W18322   1.778   7.414   0.406  0.0587 -0.3360 -0.1432
75307W        W18323   4.902  20.213   8.444  0.0242  0.1359  0.0604
75308W        W18324  27.514   9.835   2.026  0.0116  0.0980  0.5545
75309W        W18325   6.854  15.890   6.048 -0.0193  0.0189 -0.0114
75310W        W18326  16.749  20.092   2.590  0.1335  0.0371 -0.2106
75311W        W18327  24.890  25.118  15.533  0.1188  0.2703  0.2220
75312W        W18328  17.269   1.466  18.435  0.0130  0.0899 -0.0632
75313W        W18329  26.543  32.156  11.717  0.0787 -0.3465  0.3485
75314W        W18330  33.101   5.835  24.380 -0.0749 -0.1121 -0.0165
75315W        W18331  31.125  31.523   9.770 -0.0230 -0.1360  0.1644
75316W        W18332   2.071  27.695  16.383 -0.1158  0.0989 -0.2538
75317W        W18333  18.673  26.156   5.157  0.0790 -0.1245 -0.0298
75318W        W18334  33.648   5.951   2.947 -0.1616  0.1260 -0.0084
75319W        W18335  27.551  13.128   6.926 -0.1792  0.0940 -0.0630
75320W        W18336  32.372  34.370  23.204  0.0035  0.2180  0.0949
75321W        W18337  31.201  19.656  27.177 -0.2555 -0.0277  0.2903
75322W        W18338   5.773  20.000   7.534 -0.0651 -0.0744 -0.0432
75323W        W18339  14.202  25.884  24.838 -0.1248  0.2702  0.0148
75324W        W18340   1.784   0.802  22.920 -0.0373 -0.1139 -0.0451
75325W        W18341  20.702   3.697   0.368  0.0510  0.3827 -0.1540
75326W        W18342   7.041  20.397  23.686  0.1522 -0.0292 -0.1589
75327W        W18343  19.536   5.443  28.288  0.0801  0.0977 -0.1415
75328W        W18344   2.485  34.247   8.371  0.0927 -0.3367  0.0025
75329W        W18345  10.498  28.187   8.183 -0.3449  0.5064  0.4489
75330W        W18346   8.945  18.527   3.798  0.3490 -0.2700 -0.0801
75331W        W18347   4.663  12.899  23.449 -0.1266  0.0481 -0.0090
75332W        W18348  16.854  13.557  21.237  0.0951 -0.1011  0.3198
75333W        W18349  25.715  20.764  27.788 -0.2075 -0.2504  0.0102
75334W        W18350   3.184  32.289  24.742  0.2351  0.1587  0.2384
75335W        W18351   6.131  20.649   7.192 -0.0708  0.0231 -0.0336
75336W        W18352   8.758  28.172   2.497  0.1702  0.2934 -0.0669
75337W        W18353  30.283  23.524   5.793 -0.1496 -0.0153 -0.1680
75338W        W18354  24.242  32.845  27.840  0.0140  0.2888  0.1881
75339W        W18355  11.712  25.229   7.130 -0.1724  0.0205 -0.1799
75340W        W18356  18.493   1.855  17.374  0.2053  0.1477 -0.2916
75341W        W18357  23.572  24.678  19.671  0.0339  0.1012  0.2367
75342W        W18358   0.198  33.329  28.719 -0.0592  0.0965  0.1151
75343W        W18359  14.091  20.339  28.387  0.0047 -0.0620  0.1525
75344W        W18360   1.454  25.291  26.316 -0.4485 -0.0362  0.2145
75345W        W18361   3.200  32.511  23.004 -0.3573 -0.2578  0.0981
75346W        W18362   1.683   0.120  17.445 -0.0245  0.1469  0.0879
75347W        W18363  26.309  21.323  28.186  0.1950  0.4747 -0.2826
75348W        W18364   1.503   1.480   3.929  0.1012 -0.0324  0.0598
75349W        W18365  10.279  27.227  27.255 -0.0409  0.1325 -0.3337
75350W        W18366  23.672   7.017  19.036 -0.2493 -0.0611 -0.1087
75351W        W18367  31.507  18.208  19.314  0.2584  0.1335  0.0019
75352W        W18368  26.813   5.120  28.353  0.0808 -0.1069 -0.1381
75353W        W18369  13.386  33.506   2.366  0.0209 -0.1366 -0.1479
75354W        W18370  28.058  33.697  20.396 -0.0775 -0.0260  0.2290
75355W        W18371  26.267   1.729  24.797  0.3213 -0.1060 -0.0420
75356W        W18372  21.018  14.803  22.341 -0.0296  0.0887  0.0751
75357W        W18373   6.759   7.124  22.882  0.2375  0.0403 -0.2687
75358W        W18374   7.158  13.883   1.997  0.0229 -0.0822  0.0078
75359W        W18375  17.595  15.215  20.391 -0.0291  0.0069  0.2432
75360W        W18376  32.804  28.441   7.636  0.1571 -0.0688 -0.0374
75361W        W18377  15.138  17.222   5.559  0.1557  0.0737 -0.0311
75362W        W18378  25.628  13.151  15.918 -0.0278  0.2824  0.0298
75363W        W18379   1.890  33.656   8.716 -0.1735 -0.2359  0.1113
75364W        W18380  31.431  25.749   7.801  0.2103 -0.0841 -0.4871
75365W        W18381  26.624  28.850  18.693  0.1672 -0.2781 -0.2762
75366W        W18382  31.096  26.199   4.950 -0.1446 -0.1459  0.4620
75367W        W18383  33.624  16.424  28.701  0.2377  0.3266 -0.0221
75368W        W18384  31.021   1.171  19.235  0.0984  0.0024 -0.0964
75369W        W18385  29.364  13.164  10.281  0.0236 -0.1355  0.0225
75370W        W18386  11.446   2.304  21.597 -0.1565  0.0396 -0.0695
75371W        W18387   9.029   5.960  14.100 -0.4735 -0.0584  0.2942
75372W        W18388   3.197  24.934  28.870  0.0848 -0.3147 -0.2045
75373W        W18389   7.873  27.480  23.528 -0.2492  0.0248 -0.2461
75374W        W18390   2.162   0.523   4.848  0.1404 -0.2054  0.0767
75375W        W18391   4.461   1.196   5.608 -0.1489 -0.2290 -0.2207
75376W        W18392  30.642  27.134   5.287 -0.1010 -0.3348  0.0595
75377W        W18393   5.612  25.969   5.392 -0.0652  0.0405 -0.1360
75378W        W18394   7.836  32.593   9.919 -0.0843 -0.2348  0.2448
75379W        W18395  21.152  30.462   6.018 -0.2307  0.0763  0.1657
75380W        W18396  27.079   9.037   1.912  0.2079  0.2076 -0.0560
75381W        W18397   7.049  26.628   3.833  0.1617 -0.4467 -0.3965
75382W        W18398  16.382   2.162   4.690 -0.4023  0.0047  0.2175
75383W        W18399   6.861  28.624   5.965 -0.3035 -0.1953  0.1659
75384W        W18400  11.234  31.394   8.679 -0.1502  0.0661  0.1850
75385W        W18401   8.227  31.991   5.034 -0.0655  0.1869  0.0912
75386W        W18402   6.214  16.545   4.978  0.1261  0.0981  0.2831
75387W        W18403  22.935  14.448   8.438  0.0595  0.3300 -0.3163
75388W        W18404   2.795  31.858  25.393 -0.0445 -0.0241 -0.2815
75389W        W18405  17.346  14.930  28.125  0.1880  0.1533  0.0424
75390W        W18406  28.982   8.191  25.750  0.4723 -0.2129  0.0003
75391W        W18407   5.076  29.513   0.322 -0.1705  0.2867  0.1914
75392W        W18408   5.682  29.860   6.453 -0.1331  0.2169  0.1175
75393W        W18409  12.712  27.270  27.582 -0.0431  0.0312  0.1839
75394W        W18410   1.652  16.688  23.896  0.0150  0.2181 -0.3641
75395W        W18411   1.138  18.462   0.649 -0.1549 -0.1675 -0.1587
75396W        W18412  21.123  11.711  28.768 -0.1502  0.0037  0.2753
75397W        W18413  18.306  29.192  28.790  0.0177  0.1088 -0.0939
75398W        W18414  11.107  20.424  21.063  0.0362  0.2277 -0.1409
75399W        W18415  23.579   5.806   2.635 -0.0848  0.0465  0.3501
75400W        W18416  29.933  26.596  11.189  0.1052  0.1581 -0.0673
75401W        W18417   3.159  32.163  19.946 -0.2542  0.1719  0.2523
75402W        W18418  31.626  19.598   0.620  0.4416 -0.3765  0.2692
75403W        W18419   4.387   4.561  18.039  0.0083 -0.1819 -0.1077
75404W        W18420  22.136  22.695  27.399 -0.2827 -0.1136  0.0968
75405W        W18421   5.455  23.699  15.644 -0.1103  0.0002  0.0435
75406W        W18422  31.333  10.465   5.122  0.0253  0.2367 -0.0420
75407W        W18423   5.541   2.391  28.970  0.0144 -0.2511 -0.0142
75408W        W18424  26.859  15.466  28.616  0.0408 -0.0853  0.0994
75409W        W18425   3.277  21.627  19.407 -0.0511  0.1601 -0.2058
75410W        W18426  33.875  31.083   2.604  0.1145  0.0180 -0.1463
75411W        W18427  29.367  26.288   0.537  0.0257  0.1548 -0.2398
75412W        W18428  20.982  21.950   0.619 -0.1841  0.0498 -0.0831
75413W        W18429   0.719   5.782  24.758 -0.0812  0.2190 -0.0822
75414W        W18430  33.393   2.796   2.526  0.1230  0.2628  0.0580
75415W        W18431  11.207  31.648  23.895 -0.2185  0.0801  0.0078
75416W        W18432   7.797   4.963  20.693 -0.1752  0.0064 -0.1115
75417W        W18433  25.776  26.978   6.776 -0.3713 -0.0107  0.0206
75418W        W18434   0.370  31.621   6.273  0.1934 -0.1048 -0.0313
75419W        W18435  14.392  22.075  21.093  0.0713 -0.1423 -0.5066
75420W        W18436  10.131  29.553   8.916  0.3173  0.1489 -0.0409
75421W        W18437   4.365  26.563   8.369 -0.0186 -0.1729  0.2114
75422W        W18438   4.648  29.922  23.182 -0.1221  0.2390  0.0032
75423W        W18439  32.390  16.497   8.553  0.0540  0.0279 -0.1407
75424W        W18440   7.295   2.380   2.096  0.2223  0.0564 -0.1162
75425W        W18441  27.101  14.496   6.944  0.1214  0.1935 -0.3031
75426W        W18442  27.337  19.430  15.973 -0.1673  0.3814  0.1985
75427W        W18443  13.273   4.693   7.262 -0.6271 -0.0391  0.1016
75428W        W18444  14.730  21.919   5.262  0.0978  0.0506  0.2861
75429W        W18445   6.407  19.136  25.023  0.0569 -0.1372  0.0244
75430W        W18446   4.901  33.334   3.258 -0.1728  0.0230  0.0451
75431W        W18447  33.022   3.316  21.444 -0.0845  0.0716  0.0646
75432W        W18448  33.624   4.608   5.041  0.2394 -0.3991  0.1134
75433W        W18449  13.060  19.517  22.083  0.0383 -0.4344  0.2091
75434W        W18450  32.340  29.502   4.748  0.0866  0.2297  0.0795
75435W        W18451  34.031   0.683  25.592  0.0216  0.2344  0.1532
75436W        W18452  32.407   1.098   5.477  0.1173  0.0156  0.1928
75437W        W18453  30.495  30.583   9.052 -0.0914 -0.0911 -0.5719
75438W        W18454   6.018   6.712   9.711  0.1092 -0.0463 -0.0477
75439W        W18455  13.354  24.773  16.312  0.1336  0.0757 -0.5758
75440W        W18456  10.399   7.818   5.984  0.0085 -0.0574  0.2291
75441W        W18457   1.609  17.900   5.678 -0.1890 -0.1499 -0.2296
75442W        W18458   2.439  28.067  27.659 -0.2146  0.0811  0.0702
75443W        W18459   5.796   7.433   8.402 -0.0386 -0.0992  0.0310
75444W        W18460  17.791   4.986   3.667 -0.0016 -0.1000  0.1286
75445W        W18461  12.625  17.621  26.466 -0.0434  0.0499 -0.0057
75446W        W18462  30.345  31.845   3.623 -0.0186 -0.0064  0.2134
75447W        W18463  18.492   0.052  21.427  0.0243 -0.3055  0.0482
75448W        W18464  30.694   0.096   2.967  0.0459 -0.0743  0.0671
75449W        W18465  31.634  29.583   3.520  0.3544  0.0258  0.0760
75450W        W18466  26.174   2.506   1.695 -0.1645 -0.2431  0.0630
75451W        W18467  30.371  20.742  25.569  0.2723  0.0564 -0.1428
75452W        W18468   3.687  26.991   8.197  0.3257 -0.0178  0.0653
75453W        W18469  27.299   4.151   7.207 -0.3375 -0.1045 -0.0291
75454W        W18470  13.517   0.675   3.866  0.0778  0.1028  0.2531
75455W        W18471  16.726  27.918   9.538  0.0339  0.1296 -0.1090
75456W        W18472   5.857  29.144   5.743 -0.2617 -0.0998  0.1953
75457W        W18473  32.609   2.068  24.509  0.1354 -0.1598 -0.1124
75458W        W18474  31.527   2.567   4.673 -0.0793 -0.1273 -0.1699
75459W        W18475   8.097  28.485   9.390 -0.3131  0.0998 -0.0716
75460W        W18476  33.949   7.274  23.095  0.1899  0.3341  0.0080
75461W        W18477  28.157  29.404   6.282  0.0702 -0.1946  0.0704
75462W        W18478  34.697  20.753   5.711 -0.2810 -0.0431  0.0187
75463W        W18479   5.172   7.914   4.370 -0.0066  0.1166  0.1849
75464W        W18480   6.329   2.256   8.722  0.0045  0.0611  0.3162
75465W        W18481   7.648   4.121  28.583  0.1523 -0.0219 -0.1583
75466W        W18482  14.617  11.953   1.450 -0.2499  0.0949 -0.2022
75467W        W18483  18.049  19.949  22.671  0.0221  0.1885 -0.2309
75468W        W18484  18.886  15.577   1.744  0.0354  0.0866 -0.3775
75469W        W18485  17.911  12.902   8.147  0.0388 -0.6075  0.0265
75470W        W18486   5.099   5.115   4.525 -0.0637 -0.1521 -0.1875
75471W        W18487  21.935  19.897   8.334  0.0606  0.0204  0.4441
75472W        W18488  32.601  11.276   3.261  0.0453 -0.0169  0.3120
75473W        W18489  26.283  25.744  10.080  0.1155  0.1384  0.2190
75474W        W18490  15.522  26.271   4.834  0.0895  0.0735 -0.2221
75475W        W18491  31.476  33.623  10.225 -0.1468  0.1706 -0.1046
75476W        W18492  18.279  25.602  21.763  0.1356 -0.1771  0.0860
75477W        W18493  31.471  26.010  25.399 -0.0554  0.2468 -0.0125
75478W        W18494  31.814  11.734   5.161  0.1040  0.2856 -0.1844
75479W        W18495  10.664  28.226   3.016  0.4126  0.1786  0.0102
75480W        W18496   2.632   6.046   5.243  0.2474  0.3113  0.0589
75481W        W18497   7.830  32.554   7.644  0.0874  0.0562  0.0143
75482W        W18498  27.861  18.943   6.796 -0.0509  0.1338  0.0720
75483W        W18499  11.832  23.522   3.060  0.1127  0.1417 -0.0286
75484W        W18500   3.998  24.756   5.998 -0.0556 -0.2444  0.2712
75485W        W18501  10.980  11.897   1.686  0.3375 -0.0594  0.2504
75486W        W18502  24.745  28.560   7.783 -0.1424 -0.3525  0.0051
75487W        W18503  21.398  25.309   9.754  0.0256  0.0685  0.0179
75488W        W18504  11.096  12.083   2.987  0.0995 -0.1382 -0.2230
75489W        W18505  16.898  32.400   2.484  0.1698 -0.0635  0.1674
75490W        W18506   3.916  29.054   3.002  0.1589  0.1263  0.1318
75491W        W18507  16.179  22.419   9.021 -0.3499  0.1938  0.1162
75492W        W18508  12.398   1.590  10.488  0.1103 -0.0361 -0.2774
75493W        W18509  26.303  31.040  24.294 -0.0568 -0.1235 -0.1620
75494W        W18510  19.426  34.688  21.068 -0.0796  0.1501  0.4330
75495W        W18511   2.346  32.405  25.409 -0.0789 -0.0349  0.0391
75496W        W18512   0.076   8.106  28.508 -0.1500 -0.2904 -0.0523
75497W        W18513  13.219  27.545   3.212 -0.2080  0.0162  0.1607
75498W        W18514   3.391  34.368   7.685 -0.2590  0.4195  0.2030
75499W        W18515   8.611   5.406   4.523  0.4225 -0.2518  0.1685
75500W        W18516  10.176   1.732  24.754 -0.0916 -0.1879 -0.3547
75501W        W18517   0.360  33.173  24.782  0.0171 -0.0379 -0.0302
75502W        W18518  33.917  21.078   4.969 -0.0975  0.1144 -0.2898
75503W        W18519  15.432  27.310   7.256  0.2843 -0.1926  0.1417
75504W        W18520   9.380   5.513   7.880  0.0561 -0.1154  0.1111
75505W        W18521  28.855  11.103  27.549  0.2379 -0.0034 -0.0227
75506W        W18522   0.736  28.391   2.072  0.2809 -0.0478 -0.1238
75507W        W18523  34.604  27.514  28.869 -0.1951  0.4092  0.2625
75508W        W18524   3.342  17.861   3.874  0.1170  0.0264 -0.2327
75509W        W18525  13.644  19.041   6.519 -0.0056  0.2103  0.2373
75510W        W18526   3.687  13.100   0.911  0.1134 -0.1497  0.1106
75511W        W18527  14.006  14.246  15.743 -0.2320  0.0982  0.2377
75512W        W18528  17.287  29.376  25.085  0.4271 -0.1097  0.0548
75513W        W18529  26.957  29.026   7.540  0.1768 -0.0611  0.1144
75514W        W18530   1.056  28.235   1.446 -0.0285 -0.0337  0.1050
75515W        W18531   1.873  16.755   2.768 -0.0586  0.3480 -0.0359
75516W        W18532   6.983   5.844   5.454  0.1379 -0.0189  0.4709
75517W        W18533  24.489  28.651   3.369 -0.0284 -0.0050  0.0197
75518W        W18534   2.799   5.672   4.510  0.2915 -0.2380 -0.2963
75519W        W18535   0.110  22.422   1.993 -0.0804 -0.0944 -0.0483
75520W        W18536   2.142  34.090   6.532  0.0044 -0.1273  0.0475
75521W        W18537   3.331   2.895   1.784  0.3555  0.0127 -0.1566
75522W        W18538  19.945  23.779   9.650  0.2085 -0.0543 -0.1330
75523W        W18539  33.099   3.821  23.903  0.0088  0.1568 -0.2719
75524W        W18540  21.202  34.663   7.615  0.1432  0.1684 -0.2530
75525W        W18541  32.463  30.801   8.681  0.0825  0.0241 -0.1190
75526W        W18542   3.829  16.711  17.947 -0.0795  0.2327  0.3744
75527W        W18543   1.514  19.430  23.282  0.0227  0.2840  0.0113
75528W        W18544   9.707   1.048   4.181  0.0789 -0.0722  0.0479
75529W        W18545   7.367  25.412   2.355  0.1661  0.0087  0.0974
75530W        W18546  32.455  10.612  28.294 -0.0601 -0.5692  0.0151
75531W        W18547   5.254  20.372  13.885 -0.1341  0.2038  0.3461
75532W        W18548  28.164  27.244  10.171  0.0403 -0.2716  0.0025
75533W        W18549  31.935   3.156   6.271  0.0148 -0.1630 -0.0136
75534W        W18550   2.119  26.356  17.662  0.1023 -0.1681  0.0307
75535W        W18551  34.441  24.460   9.444 -0.1625 -0.1833  0.2177
75536W        W18552   8.145  33.059   2.306 -0.1744 -0.3493 -0.0804
75537W        W18553  14.634   2.578   3.933  0.2294 -0.2392  0.1209
75538W        W18554  31.595  17.516  25.657  0.0809 -0.0760 -0.0478
75539W        W18555  21.340  23.804  22.449 -0.1660 -0.1354 -0.2443
75540W        W18556  32.273  27.460   0.405  0.1339 -0.2495 -0.1772
75541W        W18557  33.298   0.944  28.109 -0.3143  0.2345  0.0498
75542W        W18558  13.499  11.570   8.456  0.1189 -0.4555 -0.1320
75543W        W18559   2.726   0.265   5.056 -0.0588  0.2697  0.1562
75544W        W18560   2.159  14.857  22.516 -0.0266  0.1628 -0.0855
75545W        W18561   6.862  16.358   0.445 -0.3416  0.0647 -0.0616
75546W        W18562  26.793   1.117   0.810  0.0688  0.0413  0.1296
75547W        W18563  14.326  30.681   0.607  0.2438 -0.2543  0.0784
75548W        W18564  18.736  27.963  26.557 -0.0593  0.2987 -0.0867
75549W        W18565   8.010  11.860  26.600  0.1028 -0.1456 -0.1521
75550W        W18566  31.721  11.449   2.377  0.1200  0.2935  0.1237
75551W        W18567   8.145   3.642   3.777 -0.0881  0.1608 -0.1190
75552W        W18568  24.413   4.760  21.710 -0.1285 -0.1090 -0.1297
75553W        W18569  13.840   5.377  25.189 -0.1133 -0.1243 -0.1922
75554W        W18570  16.900  33.795   2.575  0.0128 -0.3360  0.1725
75555W        W18571   6.249  22.305   1.423 -0.1726  0.1961  0.0483
75556W        W18572  28.682  24.152  23.902 -0.2299 -0.1290  0.2017
75557W        W18573   3.521  30.733   2.346 -0.0170  0.0850 -0.2488
75558W        W18574  17.310  26.262  25.449  0.0678 -0.0853  0.0719
75559W        W18575  16.334   9.668  19.897  0.2665  0.0487  0.5003
75560W        W18576  15.667   6.575   8.653 -0.3636 -0.0822 -0.2438
75561W        W18577   7.154   5.525  10.258 -0.0672 -0.1669  0.3743
75562W        W18578  13.793   2.770   3.944 -0.5384 -0.0542  0.0589
75563W        W18579   8.384  22.944   7.101  0.0191 -0.2718  0.0405
75564W        W18580  24.197   0.638  25.794 -0.0536  0.1791 -0.0929
75565W        W18581   0.162  26.824  25.617  0.2387  0.3892 -0.0025
75566W        W18582   2.545  23.582   6.822  0.2106 -0.1038  0.1047
75567W        W18583  11.220   3.939   5.512 -0.0899  0.1131 -0.0797
75568W        W18584   0.589  34.724  25.267  0.1978 -0.2274 -0.2225
75569W        W18585   5.275   6.644  24.902  0.1691  0.0535 -0.3902
75570W        W18586  10.303  18.784  28.734 -0.0214 -0.0661  0.2884
75571W        W18587  18.101  28.038   1.300 -0.1732  0.2205  0.0883
75572W        W18588   4.780  20.605   8.660  0.1650 -0.1573  0.0404
75573W        W18589   8.745   5.949   8.399 -0.0935  0.1677 -0.0161
75574W        W18590  18.857   0.610  23.733  0.0638 -0.1750  0.0643
75575W        W18591   6.598  19.718   5.503 -0.0221 -0.1253 -0.0468
75576W        W18592  34.338  28.512   3.953  0.4299 -0.5369 -0.2297
75577W        W18593  12.172  20.233  13.399  0.2438 -0.1428 -0.0812
75578W        W18594  10.793  31.534   9.063 -0.2294  0.1267  0.0792
75579W        W18595  16.256  12.816  21.681  0.1634 -0.0435 -0.0327
75580W        W18596  12.825  29.063  24.954 -0.0297  0.0589  0.1433
75581W        W18597  18.028  32.478  20.792  0.3194  0.2019 -0.0762
75582W        W18598   9.130  26.446   9.667 -0.2250 -0.2631  0.0057
75583W        W18599  11.109  21.679  26.859 -0.0221  0.1072 -0.0206
75584W        W18600  19.180   5.002   8.967 -0.0713 -0.2948  0.0804
75585W        W18601  14.977  27.816   4.599 -0.2075 -0.0561  0.0012
75586W        W18602   7.190   5.287   2.492 -0.2903  0.0821 -0.4769
75587W        W18603  25.670  14.928   3.388 -0.1186 -0.0339  0.0768
75588W        W18604  10.585  32.927  27.407 -0.0727  0.4673  0.2510
75589W        W18605  14.873  33.041   6.740  0.2393  0.3172  0.0065
75590W        W18606   7.382  28.175   9.848 -0.0341  0.0349  0.3638
75591W        W18607  30.631  11.284  27.945 -0.1296 -0.1672 -0.0482
75592W        W18608  13.503   3.748   1.056 -0.0215  0.1238  0.0767
75593W        W18609  12.091  27.290  27.157 -0.1863 -0.1505 -0.2648
75594W        W18610  29.795   5.927  21.689  0.2559  0.1347 -0.0552
75595W        W18611   3.841  12.066   9.846  0.4661 -0.0149  0.0379
75596W        W18612   7.273  28.449   8.216 -0.0109 -0.0048  0.1617
75597W        W18613   1.747   2.876   7.313  0.2766  0.1770  0.3256
75598W        W18614  10.263  22.937   3.193  0.2352 -0.2712 -0.2373
75599W        W18615   5.100  22.126   4.957  0.1357  0.2594  0.3552
75600W        W18616   4.476   1.959   5.002  0.5081 -0.4214 -0.0788
75601W        W18617   6.929  11.834   5.479 -0.2507 -0.2427 -0.4009
75602W        W18618  15.744  25.865   2.993 -0.1254 -0.0158  0.4360
75603W        W18619  30.239  19.681   0.933  0.1688  0.1899 -0.0561
75604W        W18620  33.032  19.101   1.873  0.1871  0.2051  0.0503
75605W        W18621  30.506  24.271   2.734  0.0480 -0.1461  0.0053
75606W        W18622  31.064  22.482   9.551 -0.3373 -0.0130  0.2960
75607W        W18623   9.699   2.471   9.468 -0.1139 -0.1073  0.0745
75608W        W18624  14.925  29.365   4.650 -0.0892  0.0926  0.1437
75609W        W18625  23.659  31.229   9.364 -0.0562  0.0544 -0.0516
75610W        W18626  10.132  23.964   2.362 -0.2215 -0.1230 -0.0679
75611W        W18627   3.525  29.586   4.964  0.1742  0.0265  0.2223
75612W        W18628  12.139  10.074  16.753 -0.1231 -0.0200 -0.0946
75613W        W18629   0.156   0.924   5.591 -0.0909  0.1271 -0.4490
75614W        W18630   7.772  13.727  26.195 -0.0864  0.2249 -0.0504
75615W        W18631   2.064  12.643  20.453  0.1585  0.2169 -0.5050
75616W        W18632  31.865  20.253  25.141  0.2581 -0.0909 -0.1453
75617W        W18633   7.058   4.523   1.829  0.0002 -0.1165  0.2686
75618W        W18634   0.651  22.719   9.426  0.3684  0.0292 -0.1268
75619W        W18635   2.267  22.465  25.962  0.0756  0.0497  0.1589
75620W        W18636  12.038   1.289   7.339  0.0158 -0.2423  0.0078
75621W        W18637  11.896  11.154   8.424 -0.0937  0.0673  0.2000
75622W        W18638  24.146   2.486   2.578 -0.1372  0.1348 -0.0901
75623W        W18639  15.417  27.049  17.493 -0.3227  0.1190 -0.2012
75624W        W18640   7.635  31.244   6.258 -0.1218  0.0506 -0.1740
75625W        W18641  19.267  25.788   2.112  0.0024  0.1398  0.1782
75626W        W18642  30.649   4.363  25.568 -0.0314  0.1458  0.0263
75627W        W18643  12.612  30.680   4.944  0.3028 -0.2056 -0.0037
75628W        W18644   9.617  31.652   5.694  0.2810  0.1024  0.0614
75629W        W18645  13.574  33.024   6.559  0.0894  0.0129  0.1879
75630W        W18646  11.109  31.051   2.184  0.2507 -0.3012 -0.0391
75631W        W18647   6.687  22.294   8.655 -0.3565  0.1961 -0.1320
75632W        W18648  10.848   3.132   7.269  0.1642 -0.3461 -0.0511
75633W        W18649  16.080  16.727  26.415 -0.0340  0.1954 -0.0053
75634W        W18650  10.799  25.644   5.938  0.0829  0.1178 -0.0558
75635W        W18651   2.129  10.812  22.646  0.2193  0.2476 -0.1758
75636W        W18652   5.613  19.958  17.701  0.2515  0.2402 -0.0537
75637W        W18653  33.461  20.294   1.608  0.3111 -0.1735  0.2620
75638W        W18654  24.964  31.124   5.546 -0.0050  0.1176  0.0544
75639W        W18655  33.718   4.229   0.705  0.0235 -0.1155  0.1716
75640W        W18656  30.525   6.793   6.179 -0.0264  0.1393  0.0993
75641W        W18657  14.121  31.616   7.878 -0.0524 -0.1288 -0.1597
75642W        W18658  34.579  19.845  23.724 -0.1642  0.1724  0.3448
75643W        W18659   1.128  33.110   3.534  0.1154 -0.4418  0.0884
75644W        W18660  21.488  29.281   4.498 -0.2219  0.0047  0.3975
75645W        W18661   0.751  34.396  20.370 -0.0661 -0.0568  0.0553
75646W        W18662   2.463  29.395   7.355  0.1038 -0.0339 -0.1936
75647W        W18663  25.432   1.000  10.717  0.3559 -0.1975 -0.0550
75648W        W18664   4.095  31.668   9.527  0.0182 -0.0291  0.1590
75649W        W18665  28.551  22.215   1.649  0.2106  0.0048  0.3785
75650W        W18666  34.368  29.881  24.043 -0.1012  0.4138 -0.0591
75651W        W18667  27.673  21.527   0.412 -0.0394 -0.1349  0.1719
75652W        W18668  28.189  32.297   0.517 -0.0563 -0.0013  0.0396
75653W        W18669   8.958  16.424   1.392  0.1324  0.0251  0.0946
75654W        W18670  11.409  16.911   6.730  0.1776  0.0508  0.2615
75655W        W18671   9.693   1.521   1.952 -0.2376  0.0841 -0.2387
75656W        W18672  12.679  24.044  28.802  0.1345  0.0387  0.1263
75657W        W18673  24.728   3.401  25.792 -0.1646 -0.2022  0.1294
75658W        W18674   3.082  19.666  24.566  0.2557 -0.0462 -0.0496
75659W        W18675  28.857  18.253  10.203  0.1865 -0.3122 -0.1737
75660W        W18676   5.472  26.139  18.740 -0.0061  0.0761 -0.0726
75661W        W18677  12.131  12.921   8.600  0.1082  0.1740  0.2725
75662W        W18678  22.129  17.630  19.260 -0.1667  0.0569  0.0744
75663W        W18679  27.523  26.220   8.382  0.0947 -0.1321  0.2696
75664W        W18680  34.771   1.362   4.798  0.0673  0.0382 -0.1026
75665W        W18681  32.137  11.810  29.302 -0.1164 -0.0214  0.2492
75666W        W18682  12.102  32.397   0.300  0.0250  0.0560  0.2771
75667W        W18683   0.376  22.060   6.029 -0.0523  0.0815  0.0598
75668W        W18684   3.064  32.773   5.446  0.1721 -0.0456 -0.0257
75669W        W18685   8.362  26.102   3.179 -0.2005 -0.1307  0.2145
75670W        W18686  19.040   9.908  24.228  0.0970 -0.1690  0.0817
75671W        W18687  31.162  31.364   4.060  0.1084 -0.2234 -0.1797
75672W        W18688  19.801  25.806  25.457 -0.5337 -0.0911 -0.0952
75673W        W18689   7.542  33.389   7.793 -0.1365 -0.2294  0.4356
75674W        W18690   4.166  13.422   5.154 -0.0686 -0.1232 -0.1647
75675W        W18691  11.105  17.993  23.746  0.0414 -0.1133 -0.1711
75676W        W18692   3.068  30.935   1.459 -0.3565  0.0049 -0.0167
75677W        W18693  16.181  27.886   6.874 -0.1052 -0.2681  0.1158
75678W        W18694   8.059   2.075   8.957  0.0523 -0.2838 -0.0363
75679W        W18695   1.856  24.196  29.282 -0.4169 -0.0382 -0.2924
75680W        W18696  18.322  32.606   5.506 -0.0210 -0.1072  0.0760
75681W        W18697  21.412  19.649  24.973 -0.0835  0.3908 -0.0352
75682W        W18698   8.729  27.138   2.364 -0.0663  0.3538 -0.0740
75683W        W18699  23.474   6.460  21.253 -0.1512  0.2199  0.1652
75684W        W18700   8.615   9.151   8.563 -0.1417 -0.2757  0.1400
75685W        W18701   3.793   6.062   2.840  0.1710  0.1914 -0.1704
75686W        W18702  10.746  34.396  23.937 -0.0887 -0.1628 -0.2355
75687W        W18703  28.816  25.463   0.281  0.2293  0.1346  0.0399
75688W        W18704  20.825  32.401  20.149 -0.3995  0.4165 -0.0275
75689W        W18705  33.374  30.239   6.412 -0.0698 -0.3392  0.0188
75690W        W18706  31.074  34.433  10.282  0.1150 -0.1991 -0.1390
75691W        W18707  10.468   6.230  22.137 -0.0875 -0.0803  0.1291
75692W        W18708  12.566  20.815   0.608  0.3794 -0.0995  0.2118
75693W        W18709  34.021   4.346   1.498  0.1111 -0.0689 -0.1169
75694W        W18710   4.566   1.173   1.148  0.2294  0.0531  0.2042
75695W        W18711   7.196   8.199   7.164 -0.0886  0.0183 -0.1886
75696W        W18712  14.880  32.488   5.072  0.2058 -0.2178  0.2119
75697W        W18713  15.049  15.170  26.172  0.2927  0.0072  0.2534
75698W        W18714  32.854  29.302   1.018 -0.1097 -0.0165 -0.0508
75699W        W18715   9.620  30.345   5.937 -0.2647 -0.3026  0.0946
75700W        W18716   3.260  13.807  18.992 -0.0239  0.1253  0.0519
75701W        W18717   7.664   5.820  24.900  0.0247 -0.1250  0.0032
75702W        W18718   7.945  34.484   6.510 -0.0695  0.1768 -0.0051
75703W        W18719   8.853   7.818  25.381 -0.2321 -0.0808  0.1042
75704W        W18720  21.748  34.051   6.211  0.1771 -0.0005 -0.2000
75705W        W18721   8.001  16.796   4.728  0.2069  0.1847  0.3517
75706W        W18722  15.581   3.147   4.985 -0.0021 -0.2696  0.4900
75707W        W18723  34.633  30.505   4.470 -0.1055  0.1350  0.1950
75708W        W18724  10.674  22.655   1.544  0.1888 -0.1522  0.1558
75709W        W18725  26.839  29.469   0.310 -0.0823 -0.0350  0.1143
75710W        W18726   6.051  25.564   7.307 -0.0570  0.0328 -0.0198
75711W        W18727  32.938  32.671   8.898  0.0345 -0.3417  0.3017
75712W        W18728   0.260  33.468   7.983  0.0264  0.3175  0.0540
75713W        W18729   5.185   7.027   4.076 -0.1371 -0.0045  0.1150
75714W        W18730  11.952  19.425  27.089 -0.1539 -0.0018  0.1736
75715W        W18731  15.774  28.282   9.747  0.1096  0.0152  0.1461
75716W        W18732   8.475  30.396   7.238  0.0008  0.0888 -0.2029
75717W        W18733   7.098  29.037   5.665  0.0971  0.3273 -0.0931
75718W        W18734  27.779   0.660   0.243 -0.2035  0.0477  0.3603
75719W        W18735  34.495  11.432  26.214  0.1530  0.0859  0.1808
75720W        W18736   8.437  15.286   6.576  0.2617  0.0142  0.2751
75721W        W18737   4.997  33.224   8.606 -0.0245  0.0057  0.0192
75722W        W18738  24.804  22.390  26.173 -0.1056  0.0131 -0.1108
75723W        W18739   4.223  14.111   6.226  0.1317  0.2131  0.0686
75724W        W18740  31.603   6.613   4.826  0.0717 -0.0818  0.0048
75725W        W18741   0.433  10.967   3.947 -0.3002 -0.0030  0.1784
75726W        W18742   1.600  27.026   0.890 -0.3158  0.1893 -0.0209
75727W        W18743   9.330   3.759   7.514 -0.4135 -0.0346 -0.0102
75728W        W18744   8.168   2.484   0.168  0.0195  0.0430 -0.0106
75729W        W18745  32.965  20.355   0.161 -0.3179 -0.1494 -0.1037
75730W        W18746   2.143   7.669  29.256 -0.0861 -0.1556  0.0313
75731W        W18747   0.074  20.185   6.533 -0.3620  0.2295 -0.1777
75732W        W18748   9.820   3.024   2.728  0.0609 -0.1574 -0.1501
75733W        W18749   5.188   6.319   5.785  0.1247  0.0789  0.0804
75734W        W18750   2.284  13.771  24.320  0.1506  0.1207  0.2246
75735W        W18751   0.336  32.599   5.898 -0.0848 -0.1917 -0.3589
75736W        W18752  31.482  23.945   1.142 -0.0742  0.0101  0.0536
75737W        W18753   4.046  23.051  25.540  0.2817 -0.0018  0.3923
75738W        W18754   5.006  18.352   0.123 -0.0485 -0.4051 -0.1794
75739W        W18755   2.792  18.470   2.798  0.0979 -0.4280  0.0429
75740W        W18756  12.101  29.390   7.920  0.0134  0.3358 -0.2961
75741W        W18757  24.446  10.344  27.080 -0.3084  0.3331 -0.0480
75742W        W18758   7.946  19.199  25.231  0.0522 -0.0153  0.1798
75743W        W18759  10.494  22.436   5.649  0.0994 -0.3674  0.3198
75744W        W18760  11.367  32.724   6.680  0.1103  0.2171  0.3041
75745W        W18761   7.392  30.471  23.876  0.4683 -0.0066  0.1115
75746W        W18762  29.185  33.172   5.988 -0.2047 -0.3741  0.4181
75747W        W18763  26.958  32.282   6.159 -0.0575  0.0922  0.0729
75748W        W18764   2.868  27.613  21.431  0.1509  0.2615  0.2197
75749W        W18765   9.680  29.426   3.737  0.3056 -0.3229 -0.2862
75750W        W18766  33.790  33.367   7.432 -0.1264  0.1822 -0.1065
75751W        W18767   2.266   1.586   2.616 -0.4246  0.2526 -0.2020
75752W        W18768  25.036  20.083   1.865  0.0299 -0.0130 -0.2557
75753W        W18769   4.034  16.211   8.831 -0.2359 -0.3373  0.0662
75754W        W18770  30.401   2.699   0.680  0.1960 -0.0997  0.0580
75755W        W18771   9.088  23.030   1.640  0.0281 -0.0456  0.1974
75756W        W18772  10.074  11.805   1.845  0.1903  0.0567  0.0175
75757W        W18773  15.346  34.775  26.618 -0.2373 -0.0733  0.0698
75758W        W18774  24.555  11.366  19.377 -0.2028  0.1686  0.1009
75759W        W18775   4.791   0.632   4.578  0.2630 -0.1200 -0.0799
75760W        W18776  34.661  29.953   7.965  0.0529 -0.3524 -0.1100
75761W        W18777  33.383   9.703  20.256  0.2881 -0.0664 -0.1336
75762W        W18778  11.314  27.221   4.432 -0.1726 -0.2736 -0.2934
75763W        W18779  25.099  31.074  27.553  0.1899  0.0638 -0.0931
75764W        W18780   1.748  33.838  27.800  0.1921  0.0112 -0.3591
75765W        W18781  30.825  27.478  15.235  0.1594 -0.1660  0.2451
75766W        W18782   3.922  24.522   3.362 -0.0054  0.0544  0.0341
75767W        W18783  24.105  11.613  29.304 -0.0313 -0.0193 -0.3509
75768W        W18784   0.923   2.698   4.707 -0.1438  0.0102  0.0340
75769W        W18785   9.237  33.013   1.900  0.2158  0.1022 -0.2893
75770W        W18786   5.418  12.416  26.490  0.0647 -0.1251 -0.1539
75771W        W18787  13.373  14.494   2.736  0.0649  0.2388 -0.3475
75772W        W18788  12.830  11.826   9.116  0.1716  0.0235  0.1412
75773W        W18789   4.827   4.104  21.846 -0.0791 -0.1736 -0.1552
75774W        W18790  29.992  20.822  27.240  0.1051 -0.1445 -0.0741
75775W        W18791  31.878   1.689  26.861  0.0356 -0.3704 -0.2121
75776W        W18792  34.326  13.460   2.921 -0.0558 -0.0121  0.0349
75777W        W18793  31.636  17.166  10.477 -0.3308  0.0167 -0.0894
75778W        W18794  11.659   2.775  22.833  0.2403  0.0049 -0.0840
75779W        W18795  14.743   5.151  25.362 -0.2112 -0.0586 -0.1017
75780W        W18796  11.187  23.113   8.838 -0.2318  0.1883 -0.1408
75781W        W18797  24.883  21.442   6.427 -0.3248  0.0105  0.1347
75782W        W18798   8.531  25.222  26.297 -0.0704 -0.1075  0.0794
75783W        W18799   6.146  26.998  28.448  0.1252  0.2798 -0.3294
75784W        W18800   5.839  28.444   2.421  0.0863 -0.4252 -0.0063
75785W        W18801  16.577   9.229   5.606 -0.2009 -0.2369  0.0450
75786W        W18802  14.766  22.467  24.311 -0.1515  0.1039 -0.0454
75787W        W18803  12.839  24.388   6.281 -0.0108 -0.0398 -0.0478
75788W        W18804   8.756  32.186   0.629  0.0525 -0.1526  0.0389
75789W        W18805   9.965  34.209  26.485 -0.0432  0.0931 -0.0142
75790W        W18806   2.792  32.653   8.417 -0.0417 -0.2839 -0.0275
75791W        W18807   5.771  26.079   6.580  0.0935 -0.0863  0.1687
75792W        W18808  18.612  19.857  23.786  0.1841 -0.1862 -0.1295
75793W        W18809  27.650  18.175  10.981  0.0650  0.0692  0.2110
75794W        W18810   0.428   2.927  23.265 -0.0543  0.0100  0.2096
75795W        W18811  14.260  26.771  23.061 -0.4820  0.1302 -0.2480
75796W        W18812  19.725   9.557   2.426  0.1471  0.1451 -0.1404
75797W        W18813  10.804   8.997   6.566 -0.0156 -0.3146  0.0369
75798W        W18814  18.127  25.218   4.019  0.1847  0.3672  0.0800
75799W        W18815   8.713  17.542  13.710 -0.1278 -0.0928  0.1107
75800W        W18816   4.287   7.841  25.663  0.4251 -0.1841 -0.0359
75801W        W18817  28.906  32.244  12.117  0.2453  0.0267 -0.1763
75802W        W18818  33.333   3.723  24.878  0.1167  0.2823 -0.0873
75803W        W18819  33.628  19.017   8.953  0.2757  0.0981  0.1210
75804W        W18820   1.703   6.171   4.320  0.0188  0.3148  0.0654
75805W        W18821  27.318  18.951   8.926 -0.3169  0.2290  0.1011
75806W        W18822  22.762  15.470  23.558  0.0284 -0.1610  0.1501
75807W        W18823   4.027  24.495   6.462 -0.1424  0.0361  0.3323
75808W        W18824  31.224   3.873  26.917 -0.0870 -0.0370  0.1048
75809W        W18825  15.939  17.699   6.081  0.1265  0.0348  0.0904
75810W        W18826  34.120   9.813   6.670  0.0577  0.3052 -0.0008
75811W        W18827  21.409  16.839   3.667 -0.1246 -0.0127  0.0719
75812W        W18828  24.147  27.333   5.247 -0.0428  0.2651 -0.0193
75813W        W18829  25.390  34.522   2.530  0.0636  0.1579  0.3454
75814W        W18830   4.377  20.884  22.710 -0.2302 -0.2523 -0.0796
75815W        W18831   3.571   0.543   7.659  0.1597  0.0335  0.2247
75816W        W18832  14.655  34.157   5.188  0.2390  0.3564 -0.1843
75817W        W18833  19.046  16.211  24.894  0.0908 -0.3692  0.3187
75818W        W18834  31.683  12.708   4.706 -0.3826 -0.0483 -0.2537
75819W        W18835  33.427   1.626  27.080  0.0309  0.0149 -0.1530
75820W        W18836  29.350   6.808   4.969  0.1784  0.1000  0.1178
75821W        W18837  22.394  12.385  25.186 -0.3439  0.3304 -0.0540
75822W        W18838  30.550  29.376  27.782  0.1185  0.1161 -0.2997
75823W        W18839  12.038  30.615  26.138 -0.0345 -0.0480  0.1730
75824W        W18840   9.736  13.204  20.855  0.2602 -0.1184 -0.0566
75825W        W18841  34.758   2.840  29.285  0.0119  0.3151 -0.3553
75826W        W18842  31.292  28.747   6.294  0.1456 -0.0804 -0.0987
75827W        W18843  33.845  33.602  23.936 -0.3691 -0.2531  0.1374
75828W        W18844  17.144   9.275   5.690  0.2999  0.0098 -0.0332
75829W        W18845   7.920  11.122   1.910 -0.0810 -0.2653  0.2619
75830W        W18846   4.986  25.473  29.081  0.1822 -0.3307 -0.1934
75831W        W18847  30.456  25.672   6.157  0.2298 -0.0672 -0.3422
75832W        W18848  23.704  21.338  24.100 -0.1566  0.1261  0.0052
75833W        W18849   5.305  15.842   6.184 -0.0523 -0.0815  0.1415
75834W        W18850   9.500   0.070  25.790 -0.0024  0.2650 -0.3150
75835W        W18851   0.747  23.420   3.828 -0.1741  0.0750  0.1857
75836W        W18852   8.764   9.836  28.430  0.1279 -0.4906  0.0983
75837W        W18853  22.505  25.288   9.277  0.0871  0.0257  0.0324
75838W        W18854  32.128  33.242   0.962  0.0676 -0.1242 -0.1237
75839W        W18855  30.550  25.672   8.294 -0.3998  0.1804 -0.0522
75840W        W18856  18.112  23.505  22.629 -0.1561 -0.1002  0.0308
75841W        W18857   2.339  20.812   4.161  0.2460  0.0916  0.0606
75842W        W18858  18.758   8.359  16.740  0.1726  0.0174  0.3976
75843W        W18859   7.536  21.009   5.348  0.2520  0.0966 -0.0778
75844W        W18860  28.984  29.419   6.345 -0.2091 -0.0574  0.1085
75845W        W18861   7.276  27.378   7.380  0.2995  0.2997  0.2277
75846W        W18862  30.944  30.272   3.287  0.3237  0.2177 -0.0171
75847W        W18863   4.766  33.571  27.182  0.1392  0.1800 -0.0810
75848W        W18864  33.925   2.126   3.735  0.1588 -0.0923 -0.1332
75849W        W18865  11.430   0.831   2.735  0.1515  0.0764 -0.0654
75850W        W18866  10.986   2.143   5.792  0.1267 -0.1389 -0.1798
75851W        W18867  30.075   6.781   6.630  0.0747 -0.0350 -0.2266
75852W        W18868  10.211  18.066   4.258 -0.0066  0.2416 -0.1676
75853W        W18869   7.355  15.521  28.141 -0.4364 -0.0107 -0.0588
75854W        W18870   7.900  27.196   6.412  0.1661  0.1392 -0.1427
75855W        W18871  30.802   9.013   4.517  0.1769 -0.2809  0.1902
75856W        W18872  10.802  32.436   9.992  0.3511 -0.2379  0.2772
75857W        W18873   2.029  29.355   8.212 -0.1760 -0.1681 -0.3289
75858W        W18874  32.431   3.026   7.881 -0.2719 -0.1105  0.0808
75859W        W18875   2.060   0.680   4.134  0.0365 -0.1055 -0.1149
75860W        W18876  29.329  30.002  28.958 -0.0120 -0.1287 -0.0867
75861W        W18877  26.454  32.405   6.932  0.1006 -0.2126 -0.0390
75862W        W18878   5.928  29.775   3.507  0.1057  0.2453  0.1074
75863W        W18879  32.632  31.075   1.787  0.0395  0.2623  0.1195
75864W        W18880  29.179  31.841  23.369 -0.0703 -0.0226  0.0496
75865W        W18881  33.879  16.755  26.561  0.0621  0.1647  0.0406
75866W        W18882   7.920  17.326   0.479 -0.3325  0.1939 -0.2466
75867W        W18883  28.492  23.435  27.748 -0.2165  0.0495 -0.0140
75868W        W18884  30.070  21.552  23.124  0.0347  0.1145  0.4518
75869W        W18885   6.460  26.092  27.968  0.2725 -0.0276  0.0320
75870W        W18886  16.704  18.169   6.519 -0.2090  0.0146 -0.1459
75871W        W18887   8.143  13.393   1.122 -0.0160 -0.3963 -0.1452
75872W        W18888  30.573  15.942   6.747 -0.0616  0.2249 -0.2672
75873W        W18889  12.119  32.305   7.044 -0.0312 -0.1482  0.1924
75874W        W18890   6.275  21.084  26.180 -0.1809  0.1374  0.0568
75875W        W18891  13.554   0.960   8.028  0.2429 -0.0085 -0.0883
75876W        W18892   0.144  32.807  28.958  0.1560  0.3679  0.0374
75877W        W18893  15.394   9.025   3.627 -0.0600  0.2142  0.2870
75878W        W18894   1.181  26.752   6.104  0.1430 -0.0696 -0.2269
75879W        W18895  12.354  17.886   3.086 -0.0407  0.0505  0.1390
75880W        W18896   0.305   5.585   7.884  0.0006  0.0357  0.2066
75881W        W18897  31.163  25.164   6.669 -0.4808  0.0131 -0.1114
75882W        W18898   7.257  28.770   3.689  0.1811  0.1117 -0.2942
75883W        W18899  10.060  23.572  27.756 -0.2750 -0.0876  0.2200
75884W        W18900   5.497  24.801  10.130 -0.0492  0.1821 -0.1627
75885W        W18901   8.938   2.006  26.719 -0.0040 -0.0234  0.0315
75886W        W18902   1.227  26.004   4.507 -0.1034 -0.2308  0.0039
75887W        W18903  12.900  18.049   0.104 -0.0809 -0.1868 -0.0903
75888W        W18904   3.755  30.374   4.091  0.1883 -0.2347 -0.3264
75889W        W18905   8.211  34.235   6.939  0.4347  0.1479 -0.0131
75890W        W18906   2.654  17.199   8.340 -0.1102  0.0973 -0.0248
75891W        W18907  25.440  12.491  26.991 -0.0680  0.1179 -0.2538
75892W        W18908  33.649  26.535  26.520 -0.2171 -0.1832  0.1409
75893W        W18909   3.067  13.352   9.503  0.0801  0.0986  0.0303
75894W        W18910   0.767  19.685   0.982  0.1587  0.0709 -0.1798
75895W        W18911   7.595  17.983   7.054  0.3608 -0.0144 -0.0036
75896W        W18912  33.205  25.668   8.230  0.0303 -0.2538 -0.1379
75897W        W18913  18.300  24.172   5.523 -0.0054 -0.2646 -0.2798
75898W        W18914  15.448  24.366   3.924  0.0772  0.0464  0.0697
75899W        W18915   2.174  13.156  23.097  0.0750 -0.1515  0.2143
75900W        W18916   6.943  17.144   3.648 -0.0221 -0.1195 -0.0089
75901W        W18917   2.454  30.591  10.819  0.2348 -0.2024 -0.0775
75902W        W18918   8.255   0.475  23.752  0.2367  0.0266 -0.2299
75903W        W18919  20.135  27.257   9.044  0.2283 -0.0667  0.0907
75904W        W18920  33.192  20.115   7.943  0.1163  0.0437 -0.1918
75905W        W18921   7.416   2.654   7.151 -0.0032 -0.1149  0.3042
75906W        W18922  10.422  33.384  18.301  0.2967 -0.0002  0.0305
75907W        W18923  12.450   8.620  26.535 -0.3599  0.3700  0.3913
75908W        W18924  31.779   2.235   0.505  0.2426 -0.0262  0.0068
75909W        W18925  22.288  29.565   5.981  0.2694  0.0221 -0.0168
75910W        W18926   0.694  18.073   8.112  0.0761  0.1304 -0.4429
75911W        W18927  13.706  24.958   3.719  0.1673 -0.2632  0.1781
75912W        W18928  33.821  33.194   9.266 -0.0304 -0.1228  0.1125
75913W        W18929  12.838  30.198   7.385  0.3938 -0.1375  0.0195
75914W        W18930   5.714  21.753   6.621  0.0316  0.1466 -0.2397
75915W        W18931   1.884  11.409  28.938  0.0784 -0.3786 -0.0418
75916W        W18932   7.973  31.865  10.509  0.1639 -0.0598  0.0451
75917W        W18933  22.643   3.154   5.706 -0.0084 -0.0300  0.2120
75918W        W18934  32.356  18.598  16.504  0.1394  0.0941  0.0881
75919W        W18935  33.653  31.793  18.933  0.0025  0.1783 -0.0546
75920W        W18936  15.333   7.897   2.034 -0.1203 -0.2556  0.2052
75921W        W18937   6.486  30.377  28.161 -0.0765  0.2544  0.2874
75922W        W18938   3.237   0.735   6.809  0.1361  0.3535 -0.0917
75923W        W18939  24.851  26.844  28.442  0.0910 -0.2118  0.0260
75924W        W18940   3.010   5.071   8.976 -0.0520  0.2202 -0.1262
75925W        W18941   4.855  27.436  27.627  0.0742  0.1888 -0.3631
75926W        W18942  15.280   1.260   8.003  0.1454 -0.0847 -0.0843
75927W        W18943  28.429  16.921  23.943 -0.0253 -0.2300  0.3013
75928W        W18944  10.189   7.040   0.586 -0.5757 -0.1391  0.0298
75929W        W18945   1.470  34.684   3.923  0.3684  0.0168 -0.0417
75930W        W18946   3.647   5.935   8.918 -0.3015  0.0014  0.0758
75931W        W18947  20.369  20.968   2.034 -0.1139  0.2675  0.2906
75932W        W18948   2.215  24.826   7.736 -0.0439  0.0473  0.2400
75933W        W18949  17.263  19.745  24.603 -0.1746  0.4851  0.1199
75934W        W18950  12.585   8.018  27.934  0.0080 -0.2053 -0.5642
75935W        W18951  20.552  31.967   7.144  0.2803  0.2523 -0.1308
75936W        W18952  11.308  32.471  21.146 -0.0626 -0.1155 -0.0246
75937W        W18953  32.110  27.310   3.536  0.0242 -0.0825  0.2844
75938W        W18954  11.105  16.242  28.552 -0.0910 -0.2684  0.2313
75939W        W18955  12.049   9.026  21.548  0.2655 -0.3688  0.1083
75940W        W18956   8.977  32.893   4.045 -0.0223 -0.4524  0.4011
75941W        W18957  32.470   3.395  28.469  0.2393 -0.1169  0.1624
75942W        W18958  34.165  22.811  20.732 -0.1667  0.1288  0.0851
75943W        W18959   1.233  28.954   6.373  0.1962  0.0660  0.0243
75944W        W18960   6.444  30.225   6.616 -0.1954  0.4804 -0.2939
75945W        W18961  28.044  28.036  27.662  0.4668 -0.2876 -0.1230
75946W        W18962   4.201  11.687  18.733  0.1846 -0.1404 -0.0558
75947W        W18963   5.871   1.311   8.990  0.2468 -0.0508  0.0729
75948W        W18964   1.894  34.362   3.969 -0.0897  0.1202 -0.4919
75949W        W18965  28.253  27.076   0.630 -0.0386  0.0411 -0.1521
75950W        W18966   7.892  18.221   0.594 -0.1998  0.0519  0.2801
75951W        W18967   9.666   4.312   8.713  0.0914 -0.1330  0.0992
75952W        W18968   5.078  15.345   4.868  0.1752 -0.0202 -0.2562
75953W        W18969  27.758  25.744   7.776  0.1654  0.1469 -0.2750
75954W        W18970  21.495  23.864   4.169  0.2971  0.1287 -0.2697
75955W        W18971   5.603  26.885   9.609  0.4258  0.1246  0.0068
75956W        W18972   3.768  32.593   6.262  0.2427 -0.2210  0.0467
75957W        W18973  12.388  18.874   7.180  0.2006 -0.2129  0.1089
75958W        W18974   8.030  33.183   4.247  0.0308 -0.4288  0.1350
75959W        W18975   5.855  27.326  18.478  0.1092  0.2021  0.1533
75960W        W18976  32.344  23.324  24.532 -0.0718 -0.0509 -0.0758
75961W        W18977   1.297  32.164   0.493  0.1970  0.0850  0.1389
75962W        W18978  24.278   9.439   7.816 -0.0573  0.1458  0.0091
75963W        W18979   4.883   6.692   4.382  0.2291 -0.2139  0.0324
75964W        W18980   6.483  28.852   3.312 -0.0277 -0.3366  0.1780
75965W        W18981  17.679  26.132   6.133 -0.0558  0.1493 -0.1714
75966W        W18982   1.289  34.269   6.034  0.0786  0.0439 -0.1498
75967W        W18983  31.997  27.317   0.780  0.1856  0.2658 -0.3148
75968W        W18984  34.650  11.328  10.820 -0.1617  0.1346  0.0666
75969W        W18985  13.386  30.162   3.988 -0.0078  0.0887  0.2114
75970W        W18986  18.241   4.112  21.855  0.0635  0.0880 -0.1014
75971W        W18987  25.974   6.317   3.832 -0.1007  0.2883 -0.0097
75972W        W18988  15.222  18.028  29.052 -0.0751  0.0037  0.4019
75973W        W18989  11.046   9.223   8.807 -0.2198  0.1108  0.3783
75974W        W18990  17.431  25.582   7.523 -0.0072  0.1373  0.0429
75975W        W18991   0.197  32.407   6.749 -0.4148  0.1645  0.1219
75976W        W18992   8.969  27.082  29.229  0.0458  0.1057 -0.0185
75977W        W18993   8.582  34.385  11.013  0.4217 -0.0014  0.0243
75978W        W18994   2.769   1.757   5.102  0.2143  0.0447 -0.1379
75979W        W18995  27.536   0.320   5.922  0.0613  0.0537 -0.1026
75980W        W18996   6.632   3.675  24.732 -0.1227  0.2721 -0.0178
75981W        W18997   2.423  23.454  19.513 -0.0531  0.2459 -0.0214
75982W        W18998   9.526  22.662   0.708  0.3316  0.0385 -0.5509
75983W        W18999   4.301   1.309   9.619  0.0364  0.4663  0.0955
75984W        W19000  17.709  26.366   8.222 -0.1289 -0.2657 -0.1119
75985W        W19001  10.630  24.042   7.592  0.1474 -0.1880  0.0979
75986W        W19002  10.075  27.766  23.734 -0.0037 -0.0197  0.3899
75987W        W19003   5.966   8.669   1.415 -0.1583  0.0601 -0.2317
75988W        W19004   8.918  20.176   6.071  0.0492  0.0120 -0.0172
75989W        W19005  13.572  19.702  19.934  0.0715  0.0204  0.0475
75990W        W19006  24.996  22.605  18.316 -0.2616  0.1860  0.1283
75991W        W19007  12.771   9.775   8.496  0.1108 -0.1029  0.2287
75992W        W19008  33.375  22.455   9.497 -0.2263  0.1249  0.0967
75993W        W19009  11.371  31.145  22.802  0.0115 -0.0224 -0.3420
75994W        W19010  27.994   1.574   6.245  0.0074 -0.0226  0.3495
75995W        W19011  20.199  29.552   5.059 -0.3815 -0.1766  0.2481
75996W        W19012  22.553  13.602  20.540  0.0283 -0.3117 -0.0713
75997W        W19013   6.321   1.185   5.844 -0.3122  0.0180 -0.0146
75998W        W19014  14.263  28.453   9.568  0.0244  0.2014 -0.0283
75999W        W19015  19.908  28.484   7.929 -0.0203 -0.1193 -0.1620
76000W        W19016  23.243   9.834   2.594  0.0555  0.2037 -0.1912
76001W        W19017   2.139  33.791   8.292 -0.0392 -0.3777 -0.0939
76002W        W19018  26.831   2.288   9.246 -0.1849  0.0544 -0.2745
76003W        W19019   0.509  23.401   2.808  0.1166 -0.1101 -0.0146
76004W        W19020  27.451  33.453  22.488  0.0445  0.2086 -0.0960
76005W        W19021  18.213  21.549  24.207  0.0314 -0.1119  0.0505
76006W        W19022   5.872  25.966   7.103  0.0410 -0.1581  0.1612
76007W        W19023  33.660   4.360   1.160  0.0513 -0.4010  0.1346
76008W        W19024   6.256   2.652   5.548 -0.1893 -0.3970 -0.1094
76009W        W19025  12.711   0.976  28.101  0.0510 -0.2443 -0.3791
76010W        W19026   1.623  11.344  28.094 -0.1165 -0.0283  0.5677
76011W        W19027   8.865   1.983  27.930 -0.0119 -0.1524 -0.3089
76012W        W19028   5.205   1.225   2.913 -0.1169 -0.0422  0.0420
76013W        W19029  21.454  26.694   0.419 -0.1033  0.0272  0.3097
76014W        W19030  34.656  25.538  28.200 -0.0329 -0.0223  0.0098
76015W        W19031   8.316   4.602   2.952 -0.1350 -0.0520  0.0280
76016W        W19032  26.753   1.645  11.870  0.1499 -0.3324 -0.2719
76017W        W19033  11.410  32.879   4.747 -0.0700 -0.0569 -0.0857
76018W        W19034   4.951  19.587   7.131  0.0298 -0.0069 -0.0309
76019W        W19035   9.324   7.131   5.498 -0.1140  0.1398 -0.0833
76020W        W19036  33.821  26.546   3.845  0.0401  0.0066 -0.0919
76021W        W19037   5.894  23.911  27.091  0.2029 -0.3078 -0.1136
76022W        W19038   8.922  32.885   2.704  0.0878  0.2815 -0.0649
76023W        W19039  32.257   1.903   8.657  0.1337  0.0708  0.0073
76024W        W19040   5.854  22.151   0.606  0.0697 -0.0322 -0.3528
76025W        W19041  18.366  25.796   2.517  0.4456  0.3130  0.0438
76026W        W19042   9.504  24.035   7.078  0.0080  0.2488  0.1840
76027W        W19043   7.517  17.153  21.105  0.1784 -0.2537  0.3336
76028W        W19044   2.301  29.930  10.717 -0.0333 -0.2837  0.0693
76029W        W19045  22.630  10.815   0.028  0.0082  0.0276 -0.0336
76030W        W19046   5.703   3.686   6.860  0.1212  0.3738 -0.1302
76031W        W19047  30.616  25.969   5.349  0.1432 -0.0284 -0.1040
76032W        W19048   6.012  22.820   2.217  0.0516 -0.1735 -0.2477
76033W        W19049  12.627   4.912   1.154  0.1176  0.1971  0.1335
76034W        W19050  16.684  21.635  24.773  0.0030 -0.1805  0.2804
76035W        W19051  25.387  25.482  10.446 -0.0465 -0.2891 -0.3632
76036W        W19052  15.926  32.820   0.876 -0.0288 -0.0520  0.2812
76037W        W19053   3.384  21.533   5.244  0.0234 -0.0655 -0.1829
76038W        W19054  30.241  28.027   8.697 -0.0456  0.2500 -0.1106
76039W        W19055  18.798  32.878   1.576 -0.0520  0.0526  0.2213
76040W        W19056   0.044   2.011   7.370  0.0825 -0.1634  0.0625
76041W        W19057   9.100  28.912   6.569 -0.0443  0.1073  0.2355
76042W        W19058   3.200   2.924  28.941  0.1843 -0.3157 -0.4033
76043W        W19059  20.565  30.914   4.815  0.1550  0.4624  0.1875
76044W        W19060  12.637  26.098   5.081 -0.0024  0.2699  0.3371
76045W        W19061   6.766  30.428   3.808  0.1047  0.1402  0.0343
76046W        W19062  12.105  29.786   0.715 -0.0561 -0.1994  0.1809
76047W        W19063   6.194  24.514   7.597  0.3514 -0.2074 -0.1565
76048W        W19064  11.003  25.767   3.288 -0.2562 -0.1176  0.0650
76049W        W19065   0.821   2.014   7.547 -0.1255 -0.1205 -0.1267
76050W        W19066   0.886  25.041   0.952  0.2621 -0.0701 -0.2082
76051W        W19067   7.435   3.734  24.109  0.0133 -0.2568 -0.1999
76052W        W19068   9.666   8.000  24.814  0.0701 -0.0062  0.0155
76053W        W19069  32.188   0.506   9.220  0.2224  0.3610  0.1045
76054W        W19070   8.224  21.560  22.715 -0.1502  0.0347 -0.2827
76055W        W19071  17.399  16.536  22.401 -0.2383 -0.0048 -0.1539
76056W        W19072   7.173  16.109  21.699 -0.4743 -0.1707  0.0032
76057W        W19073  25.353  32.834  27.907 -0.0466 -0.0910 -0.0793
76058W        W19074  25.864  31.923  11.165  0.1872  0.1687  0.2152
76059W        W19075  10.451  33.009   3.274  0.1223  0.2603 -0.1857
76060W        W19076  11.588  27.842   2.117 -0.0942  0.2931 -0.1505
76061W        W19077   7.240  12.248   4.944  0.1336  0.2786  0.0052
76062W        W19078   1.296  26.876  10.202  0.1791 -0.2990 -0.1728
76063W        W19079  17.550  14.123   1.116 -0.3290 -0.2267  0.4824
76064W        W19080   9.051   3.797   2.516 -0.1711 -0.0367  0.0055
76065W        W19081   7.835   1.249   6.553  0.1418 -0.2600 -0.2284
76066W        W19082   8.155  26.171   7.472  0.1259 -0.0338 -0.0844
76067W        W19083   3.653   2.203   8.211 -0.3202  0.0374 -0.0806
76068W        W19084   9.324  27.218   4.492  0.0780 -0.1041 -0.4504
76069W        W19085  25.649  15.816  23.806 -0.3057 -0.2164 -0.1020
76070W        W19086  12.745  32.114   6.210 -0.0728  0.1319  0.0690
76071W        W19087  25.418  32.429  10.057  0.1805  0.1793  0.1305
76072W        W19088   4.392   3.483   9.315 -0.1878  0.0433 -0.1172
76073W        W19089   2.260   3.249   9.276  0.3380  0.0109 -0.0342
76074W        W19090  19.253   4.863   4.030  0.0778  0.0734 -0.1144
76075W        W19091  30.722  32.848   3.336  0.1278  0.0400 -0.2159
76076W        W19092  33.060  22.893  27.188 -0.0573 -0.0283 -0.0492
76077W        W19093   3.911  24.737   7.302 -0.0588  0.1712 -0.1356
76078W        W19094   6.042  33.053   9.460 -0.3089  0.1698  0.1614
76079W        W19095  31.194  14.423   4.700  0.4598  0.3206  0.0650
76080W        W19096  16.936  22.594  26.869 -0.0055  0.0030  0.2642
76081W        W19097   3.846  32.290   6.812  0.2268  0.1915  0.0013
76082W        W19098  32.489  25.784   3.461  0.1953 -0.1298  0.0297
76083W        W19099   1.522  31.108  26.626  0.3210  0.2781  0.0037
76084W        W19100  24.017   7.525   0.579 -0.0976  0.1415  0.2318
76085W        W19101  29.786   3.963  22.505  0.2461 -0.0005 -0.1502
76086W        W19102  33.856  27.040   4.448 -0.0599  0.3501  0.3255
76087W        W19103  25.127  16.410   8.724  0.2960  0.0384 -0.1591
76088W        W19104  32.602  31.134  22.066 -0.0573 -0.3814  0.2166
76089W        W19105   0.305   8.607  19.866  0.2049 -0.4016  0.0757
76090W        W19106  11.606  28.165  28.197 -0.1212 -0.1119  0.0179
76091W        W19107  24.842   4.744  28.360 -0.2170  0.2106  0.1625
76092W        W19108  20.856  23.640  15.364  0.1050 -0.2877 -0.1952
76093W        W19109  15.001  11.491  17.689  0.0283 -0.3952 -0.0540
76094W        W19110   2.905   1.535  17.950 -0.1507 -0.0216  0.1811
76095W        W19111  32.237   2.009   4.517 -0.2011 -0.3825 -0.1018
76096W        W19112   0.907  31.014   0.635  0.3284  0.1706 -0.3743
76097W        W19113  31.831   1.318   7.997 -0.1038  0.1067 -0.3030
76098W        W19114   2.334   4.402  25.063  0.0943 -0.0620 -0.0712
76099W        W19115   1.926   5.164  29.122  0.0773  0.1718 -0.1741
76100W        W19116   1.343  34.688   6.344  0.0031 -0.1012  0.3660
76101W        W19117  10.478   5.429  16.866  0.0672 -0.0538  0.2445
76102W        W19118   2.855  19.427   6.759 -0.0734  0.0515 -0.2166
76103W        W19119   0.544  18.675  10.237  0.3161 -0.2445  0.1727
76104W        W19120  25.109  26.204   4.517  0.1628  0.0117  0.3494
76105W        W19121  33.211  27.666  15.492 -0.1788  0.2868 -0.0520
76106W        W19122   1.462   9.395   7.409  0.1148 -0.3273 -0.2277
76107W        W19123  34.616  28.352   3.145 -0.0760  0.2849 -0.1323
76108W        W19124   1.978  18.273  22.761 -0.0009  0.3271 -0.3186
76109W        W19125  22.766  31.105   2.316 -0.1872 -0.1908 -0.1762
76110W        W19126   5.464   7.535  29.132  0.0472 -0.1112  0.0645
76111W        W19127  29.808   1.257  16.552  0.2485 -0.1389  0.2377
76112W        W19128   3.854  28.673  27.287  0.0880 -0.1340 -0.0358
76113W        W19129   6.200   6.388   6.818  0.2832 -0.1785 -0.0000
76114W        W19130  30.085   3.177   2.708 -0.1325  0.3301 -0.2380
76115W        W19131   0.296  28.466   3.441 -0.1633  0.1320  0.4205
76116W        W19132  25.663  26.812   9.688 -0.1935  0.0175  0.1773
76117W        W19133   5.878  12.186  26.860 -0.0884  0.3882 -0.0642
76118W        W19134  23.221  31.283   0.566  0.1136 -0.0062  0.3772
76119W        W19135  11.055  31.568   6.927 -0.0343 -0.3176  0.0480
76120W        W19136  32.729   5.870   7.582  0.1274 -0.1056  0.3438
76121W        W19137   4.383  29.955   7.474  0.2085  0.0355 -0.1264
76122W        W19138  11.782  16.971  28.230  0.1844 -0.0855 -0.1288
76123W        W19139  29.788   3.296  27.588 -0.0606  0.3050 -0.0765
76124W        W19140   4.365   8.374  16.789 -0.0786 -0.0747 -0.0835
76125W        W19141  12.019   7.312  28.439  0.2237  0.0244  0.2419
76126W        W19142  16.973  28.850  23.329  0.3215  0.1326 -0.2328
76127W        W19143   2.785   7.803   5.790 -0.0495 -0.1919 -0.2079
76128W        W19144   1.320   3.467   0.232 -0.0002  0.1552  0.0764
76129W        W19145  21.443  32.111   9.991 -0.3190  0.1004 -0.0686
76130W        W19146  11.808   9.619   8.242  0.5441 -0.0141  0.4892
76131W        W19147  32.352  34.138  28.260  0.1463  0.2698 -0.1168
76132W        W19148   9.474  14.564  19.776  0.0697 -0.2605  0.2426
76133W        W19149  11.933   6.173   8.737 -0.1094 -0.1503  0.2043
76134W        W19150   8.671   3.270  15.578 -0.4807  0.0523  0.1415
76135W        W19151  29.152  27.906   3.020 -0.2675 -0.0911  0.0926
76136W        W19152  26.689  20.792   2.983 -0.0581  0.0098 -0.2080
76137W        W19153   1.286  21.067   6.013  0.1736  0.2324  0.0213
76138W        W19154   3.716  33.248   3.245  0.3613 -0.1593  0.2040
76139W        W19155   3.216  22.268   7.385 -0.4316  0.1381  0.0712
76140W        W19156  32.217  25.985   8.456 -0.0260  0.2929 -0.1650
76141W        W19157   2.128  23.233  23.557 -0.2474 -0.1066  0.1725
76142W        W19158  12.292  16.217  18.785 -0.0033 -0.2903  0.0248
76143W        W19159   4.486  12.667   0.960 -0.0659  0.0249 -0.1576
76144W        W19160   3.772   0.660   1.473 -0.2256 -0.2858  0.0718
76145W        W19161  30.817   9.128   3.229  0.2516 -0.3676  0.2633
76146W        W19162   5.788   4.969   6.705  0.2299 -0.1127 -0.0600
76147W        W19163  21.629   8.353   3.257  0.1102 -0.6137 -0.0589
76148W        W19164   8.468   3.228  22.297  0.1387  0.0774 -0.3341
76149W        W19165  30.994   3.156  22.741 -0.0782 -0.0535 -0.3026
76150W        W19166  34.387   8.011   3.990  0.1318 -0.0076  0.1450
76151W        W19167  16.441  33.125  22.618 -0.0133 -0.1401  0.2978
76152W        W19168   9.556  24.657  28.241 -0.1598 -0.2462  0.0761
76153W        W19169   6.118   7.990   6.686 -0.0565 -0.2575 -0.3279
76154W        W19170  26.703  13.661  25.180 -0.1403 -0.1030 -0.1145
76155W        W19171  15.449  20.590   3.115  0.3402  0.1794  0.1565
76156W        W19172   9.312  32.532   1.785 -0.0189 -0.2511  0.1943
76157W        W19173  10.518  15.236  22.980 -0.0994 -0.2477 -0.0619
76158W        W19174  17.755  30.470  27.314  0.0788 -0.2344 -0.1096
76159W        W19175  24.434  22.496   5.606  0.0014  0.0649 -0.2014
76160W        W19176  31.536  30.934   4.920  0.0068 -0.3772 -0.0554
76161W        W19177   0.979   5.814   7.291 -0.2025  0.1698 -0.2799
76162W        W19178  16.315  33.912   5.560 -0.3115  0.2248  0.1786
76163W        W19179  10.418  22.411  26.867  0.4461 -0.1066  0.0335
76164W        W19180  17.614  13.995  26.555 -0.0781 -0.1489 -0.1897
76165W        W19181   5.364  27.981   1.948  0.0423 -0.0387  0.0311
76166W        W19182   6.657  30.126   4.283  0.1782 -0.0229 -0.0027
76167W        W19183  24.271  30.119  28.752  0.0965 -0.0031 -0.0684
76168W        W19184  14.894  12.699   5.510 -0.3053 -0.0143  0.3796
76169W        W19185  10.058   1.834  19.094  0.1952  0.2018  0.1628
76170W        W19186  20.846  33.715   8.652 -0.0281 -0.0416 -0.1808
76171W        W19187   9.126  30.123  26.540 -0.2316  0.2875  0.2054
76172W        W19188   9.232   1.144   5.112  0.0925 -0.1349 -0.1494
76173W        W19189  16.620  18.773  26.758 -0.0020 -0.1247  0.1523
76174W        W19190  27.746   0.483  25.579  0.0554  0.0539  0.3401
76175W        W19191  12.243   3.969   8.781  0.1526 -0.0666 -0.0981
76176W        W19192  18.076  10.229   2.848  0.2449 -0.0925 -0.0916
76177W        W19193   4.614   4.571   9.318 -0.0181 -0.5171  0.0355
76178W        W19194  17.175  34.615  28.770  0.1071  0.1222  0.1402
76179W        W19195  21.868   0.306   1.507 -0.0388 -0.3537 -0.0543
76180W        W19196  15.414   9.740   7.739 -0.1865  0.1450  0.1040
76181W        W19197  31.482  30.558   9.948 -0.0190 -0.4515 -0.1573
76182W        W19198   2.770  29.472  24.961 -0.0601 -0.0003  0.0549
76183W        W19199  16.890  33.050  22.701 -0.0919 -0.0744 -0.2874
76184W        W19200  32.642  20.852  20.225 -0.0499 -0.1449  0.0562
76185W        W19201   8.850  32.648  22.856 -0.2027  0.1713 -0.0763
76186W        W19202   9.980  27.090   6.324  0.2199 -0.0177 -0.2447
76187W        W19203  17.981   1.901  10.487 -0.2306 -0.0488 -0.0145
76188W        W19204  17.074  33.349   1.812  0.0374 -0.0625  0.3819
76189W        W19205  34.510  33.659   3.150  0.2217  0.3071  0.1388
76190W        W19206   9.486  33.497  23.184 -0.0585 -0.1456  0.0533
76191W        W19207   4.560  32.175   4.828  0.2146 -0.0256  0.2430
76192W        W19208  31.334   6.469   7.177 -0.0185 -0.0065  0.0886
76193W        W19209  29.228   3.264   3.648 -0.3055 -0.2707 -0.2458
76194W        W19210  34.257   1.901   7.977  0.0871 -0.0924  0.2108
76195W        W19211  34.657  17.248  20.918  0.1638  0.1309  0.3085
76196W        W19212  12.765  29.918  22.513  0.1008 -0.3369  0.1485
76197W        W19213  18.089  22.156  22.838  0.1934  0.0734 -0.2167
76198W        W19214  17.012   5.312   2.466 -0.0653 -0.0045 -0.0621
76199W        W19215  10.871   7.680   4.142  0.0931  0.1171  0.0198
76200W        W19216   4.246   5.925   2.827  0.1356  0.0574  0.1105
76201W        W19217   7.691  28.781   5.656  0.3060 -0.1078  0.2343
76202W        W19218   5.802   3.286  29.186  0.0739  0.0450 -0.1026
76203W        W19219  18.143   9.575  18.572 -0.2696  0.2487 -0.1016
76204W        W19220   9.030  34.057  22.651 -0.0567  0.0395  0.0135
76205W        W19221   2.455   5.195  28.455 -0.4308  0.0119 -0.1796
76206W        W19222  15.588   9.091  25.271  0.2563  0.0071 -0.1337
76207W        W19223   9.740  34.455   7.456 -0.2334  0.1153  0.3960
76208W        W19224   4.187  31.063  26.376  0.0766 -0.0116  0.1736
76209W        W19225   5.597  32.827  24.655 -0.6122 -0.1245 -0.1118
76210W        W19226  19.323   2.008  29.264  0.0802  0.0606 -0.1854
76211W        W19227  23.231  14.037  13.840 -0.0625 -0.0558  0.0055
76212W        W19228  10.280  23.807   3.423  0.1530  0.0991 -0.2406
76213W        W19229  25.508  30.252   2.217 -0.0148  0.2188 -0.0977
76214W        W19230   0.270   3.598  18.060  0.1664  0.2266  0.1892
76215W        W19231  34.499  14.120  20.829 -0.0176 -0.0026  0.2316
76216W        W19232  34.420  29.485  14.881  0.4021 -0.0973 -0.0707
76217W        W19233  14.814  10.320  12.993 -0.3024  0.0947 -0.0695
76218W        W19234   8.032  27.866  26.405 -0.2797  0.1485 -0.0510
76219W        W19235  31.277   1.736  29.165 -0.0287 -0.3054 -0.1550
76220W        W19236  10.004  33.607   8.699  0.0254  0.3220 -0.0665
76221W        W19237   7.046  32.898  25.256 -0.0625  0.4098 -0.1821
76222W        W19238  18.071  30.362  19.741 -0.0852  0.1832  0.0531
76223W        W19239  20.230   5.241  27.572 -0.0490  0.0882  0.1861
76224W        W19240  31.445  28.520   0.225  0.0248 -0.1305 -0.1364
76225W        W19241   5.963  10.569   7.369  0.0114 -0.1588  0.0756
76226W        W19242  22.683  24.092  27.036  0.0907 -0.2940 -0.2510
76227W        W19243   3.137   8.970   9.367 -0.0358  0.1741 -0.0164
76228W        W19244   0.423  14.137   2.066 -0.0827 -0.0361 -0.1924
76229W        W19245  19.606  21.935   8.602  0.0292 -0.1436 -0.1767
76230W        W19246   2.260   1.615  21.077 -0.4398 -0.4030 -0.1767
76231W        W19247   4.076  31.260  20.558 -0.2192 -0.2528  0.2539
76232W        W19248   5.594  21.899  23.407 -0.1486  0.3165 -0.0330
76233W        W19249   2.795  22.398   9.434 -0.0183  0.3416  0.1664
76234W        W19250  21.735   7.938   3.711 -0.0614 -0.1836  0.3654
76235W        W19251   3.366  11.958  25.459  0.1230  0.2114  0.0886
76236W        W19252  18.679   6.549  22.519  0.0046  0.2308  0.0527
76237W        W19253   2.724   5.148  10.269  0.1765 -0.1107 -0.1942
76238W        W19254   1.486  19.045   8.905 -0.1121 -0.3952 -0.2765
76239W        W19255  33.200   0.386  20.325 -0.1325 -0.0889 -0.0144
76240W        W19256   6.831  32.677  19.647  0.0398 -0.0912  0.1293
76241W        W19257  22.761   9.517  25.773  0.2062  0.0136 -0.0142
76242W        W19258   6.857  33.436  25.380  0.0369  0.1538  0.1776
76243W        W19259  17.521   1.574   8.710  0.1837  0.1131  0.0670
76244W        W19260   4.286   2.526  18.688  0.2175 -0.2381 -0.0547
76245W        W19261  32.566   7.386   0.030 -0.1648  0.0998 -0.1838
76246W        W19262  12.787  33.252  27.505  0.2230 -0.0896 -0.0219
76247W        W19263  33.683  21.448  26.619  0.5276 -0.2230 -0.0705
76248W        W19264   2.279   3.796   2.863 -0.1579 -0.0823 -0.0961
76249W        W19265  14.350   5.324   8.901 -0.1699 -0.4847  0.1138
76250W        W19266   7.501   8.248   8.523  0.0894 -0.0542  0.1010
76251W        W19267   7.059  14.489   4.813  0.1155  0.1856  0.1351
76252W        W19268   3.789  31.630   2.351  0.1493  0.2300  0.0888
76253W        W19269   9.623   0.477  26.135 -0.1456  0.1286 -0.0446
76254W        W19270  27.835  28.826  22.211  0.0623 -0.2929 -0.3237
76255W        W19271   0.717   9.739   4.362  0.0860 -0.6217  0.1917
76256W        W19272   6.311  23.740   5.206  0.1062  0.2061  0.1075
76257W        W19273   4.389  14.707   6.087 -0.0331 -0.0411 -0.2183
76258W        W19274   5.138  22.277  28.679  0.1566 -0.2878  0.0198
76259W        W19275   5.085   1.005   1.819  0.1224  0.0074 -0.0610
76260W        W19276  31.716  13.665  27.046 -0.2849 -0.1313  0.1113
76261W        W19277   6.713  14.149  28.727 -0.2680 -0.2363 -0.1497
76262W        W19278   9.001   3.483  18.289  0.0482  0.0196  0.1856
76263W        W19279   3.984  26.446  27.212  0.1979 -0.3524 -0.4413
76264W        W19280   7.679  21.612  28.935  0.2002 -0.0571  0.1715
76265W        W19281  33.192  34.672   9.238  0.0534  0.1889 -0.1839
76266W        W19282   9.270  28.378  25.424  0.0963 -0.0694  0.1959
76267W        W19283  22.987  32.772   9.910 -0.1883 -0.1787  0.2340
76268W        W19284   5.507  18.240   2.623 -0.0856 -0.0595 -0.2364
76269W        W19285  17.187  27.872   8.958  0.1036  0.3396  0.1385
76270W        W19286  25.126  33.105  28.284  0.2872  0.1574  0.1279
76271W        W19287  21.991  24.997  20.861  0.1942  0.1256 -0.1706
76272W        W19288   0.192   3.184   4.202  0.1686 -0.2066 -0.4697
76273W        W19289  11.830  28.393  27.359 -0.0590 -0.0453  0.2648
76274W        W19290   0.433  13.615   9.285  0.0299  0.0439  0.1014
76275W        W19291  28.821  34.339   9.437 -0.2864  0.1901 -0.2961
76276W        W19292  11.428   9.425   0.902  0.0971  0.0083  0.1103
76277W        W19293   7.246   7.203   8.124 -0.1508  0.1406 -0.0288
76278W        W19294  29.212  22.107   0.231  0.1334 -0.1873 -0.0698
76279W        W19295  30.303   1.338  10.791  0.3814  0.2200 -0.1332
76280W        W19296   8.419   7.188   4.591  0.1271 -0.0880 -0.0989
76281W        W19297  27.366  10.133  27.086  0.1027 -0.1645  0.2562
76282W        W19298  13.368  20.122  27.757  0.2070 -0.1471 -0.0610
76283W        W19299   5.753  32.595  27.061 -0.1545  0.2285 -0.1347
76284W        W19300  34.345  26.827  10.913 -0.0589  0.3260 -0.0912
76285W        W19301   4.671  27.761   3.191  0.5916 -0.0442  0.3265
76286W        W19302  27.588   3.973  28.432  0.1264 -0.1454 -0.1005
76287W        W19303  31.693  31.452  26.254  0.0603 -0.1072 -0.0449
76288W        W19304  13.095   6.626   2.273  0.0831  0.0317 -0.1664
76289W        W19305   7.568  30.329  16.075  0.0940  0.1091  0.2255
76290W        W19306  32.808  33.888   8.969 -0.4650  0.0158  0.1050
76291W        W19307  31.014   7.341  26.488  0.0450 -0.1825 -0.0165
76292W        W19308  12.141   3.430  16.016 -0.1387  0.2144  0.1790
76293W        W19309   4.260  13.517  24.254  0.0697 -0.0473 -0.0478
76294W        W19310  27.429   8.702  24.513 -0.2477  0.0836 -0.0300
76295W        W19311  34.536  25.617   7.951  0.0619  0.2943  0.0071
76296W        W19312  33.994  31.853  28.791 -0.2080  0.2681  0.0075
76297W        W19313   4.617  29.196  19.865 -0.0018 -0.1702 -0.2831
76298W        W19314  23.452   7.045   7.917 -0.0812  0.5125 -0.3209
76299W        W19315  13.825  33.081   5.310 -0.0371 -0.1373  0.0464
76300W        W19316  20.498  21.736  27.173 -0.1875 -0.1758  0.1167
76301W        W19317  26.700  27.637   8.097 -0.0663  0.2334  0.0006
76302W        W19318   3.021   1.465  28.107  0.3323 -0.0618 -0.0652
76303W        W19319  30.236  10.292  14.621  0.1627 -0.0068 -0.0484
76304W        W19320   4.262   5.394   5.734  0.0223  0.2956 -0.3184
76305W        W19321   2.723   1.101  22.524 -0.2173 -0.5386  0.1604
76306W        W19322   9.474   2.284   5.749 -0.1471  0.2337 -0.1759
76307W        W19323   8.386  31.833   0.474  0.0163 -0.0436  0.1540
76308W        W19324  15.602  20.207  27.542  0.0089  0.0875  0.1713
76309W        W19325   5.287   0.576  16.909 -0.0538  0.0053  0.2150
76310W        W19326  34.136  12.083  25.581  0.0630  0.1071  0.0078
76311W        W19327  27.399  24.678  26.349  0.0658 -0.1671 -0.1288
76312W        W19328   2.361   3.549   8.142  0.1720 -0.0607  0.1575
76313W        W19329   3.824  16.955  19.408  0.0371  0.1573  0.1774
76314W        W19330  28.864   0.649  26.489 -0.3808 -0.0098 -0.0001
76315W        W19331  12.058   1.384  23.983 -0.3490  0.0652  0.2321
76316W        W19332   8.845  21.283   0.159  0.0245 -0.0512 -0.2448
76317W        W19333   3.847  26.593  26.752 -0.2246  0.1407  0.0135
76318W        W19334   1.826  30.371   3.213  0.0925  0.1515  0.2930
76319W        W19335  32.838   8.314   7.726  0.0858 -0.1471 -0.0688
76320W        W19336   7.937   2.934  26.662 -0.0400  0.0007  0.2580
76321W        W19337  13.366   6.548  24.045  0.2153  0.4571 -0.2810
76322W        W19338   9.840  33.768  10.603  0.2267  0.0467 -0.1195
76323W        W19339  24.311   4.905   0.137  0.1496 -0.1534  0.0999
76324W        W19340  18.762  18.486   8.736  0.0111 -0.2671  0.1926
76325W        W19341  16.574  25.378   4.754  0.1082  0.1832  0.0238
76326W        W19342   1.192   6.058  26.811  0.0372 -0.0915 -0.0278
76327W        W19343   5.389  33.757   8.652  0.2517  0.1398 -0.1493
76328W        W19344   8.506  11.884  21.887 -0.0836 -0.1019  0.2695
76329W        W19345  28.504   9.603  26.209 -0.1056 -0.1354 -0.1533
76330W        W19346   5.875  18.319   7.535  0.1105  0.0783  0.0167
76331W        W19347   2.681   3.566   1.467  0.0514 -0.2722  0.0857
76332W        W19348  19.734  30.625   0.080  0.1016 -0.0246 -0.6784
76333W        W19349  29.542   7.537  10.493  0.0880 -0.2411 -0.0472
76334W        W19350  18.493   1.628   8.794  0.0434 -0.0323  0.0342
76335W        W19351   0.928   4.536   4.486 -0.1372  0.1493 -0.1670
76336W        W19352  23.238   5.503   1.217  0.3388 -0.2626 -0.1670
76337W        W19353   7.732  25.670   4.635  0.1770  0.0012  0.3030
76338W        W19354  29.936  11.463  27.469 -0.4646  0.1492  0.0456
76339W        W19355  18.921   6.416   9.330  0.2807 -0.2277  0.0880
76340W        W19356   8.512  19.968  18.177  0.0559 -0.1700  0.0047
76341W        W19357  10.487  30.158  25.204 -0.2050  0.0189 -0.0186
76342W        W19358   7.399  15.236   2.511  0.0831 -0.0197  0.2037
76343W        W19359  26.369  31.191   4.956 -0.0958  0.2682 -0.0812
76344W        W19360  33.318  30.953  27.005 -0.1413  0.1753 -0.0402
76345W        W19361  33.572  27.781   9.167  0.2611 -0.0133 -0.1130
76346W        W19362   8.585   6.007  17.351 -0.0900 -0.2272 -0.3862
76347W        W19363  10.320  33.165   9.964  0.1046  0.0419  0.1946
76348W        W19364   3.216  28.786   6.798  0.0137 -0.0878  0.1498
76349W        W19365  27.826  27.041   7.767 -0.0154  0.1853 -0.1480
76350W        W19366  17.593  16.348  26.197  0.0392  0.0238  0.0343
76351W        W19367  29.002  32.834   5.676 -0.1557  0.0097 -0.0104
76352W        W19368  12.258   1.745   7.352  0.1213  0.3167 -0.2365
76353W        W19369  32.834   6.120  17.879 -0.0565  0.2888  0.0146
76354W        W19370  13.836  33.051  19.768  0.0567 -0.1493  0.1029
76355W        W19371  14.682  32.114   7.354  0.0728 -0.0983 -0.0577
76356W        W19372   3.262   6.427  18.631 -0.2087 -0.3481 -0.0954
76357W        W19373  30.639   6.079   9.744  0.0386  0.0472 -0.1925
76358W        W19374   4.579   2.710  24.249 -0.2849 -0.1556 -0.1995
76359W        W19375   2.094   1.937   6.948  0.1928 -0.0330  0.3650
76360W        W19376   6.212   5.692  19.139 -0.1212  0.3761  0.0789
76361W        W19377  11.245  24.725  20.658  0.4981  0.1366  0.2321
76362W        W19378  15.768  18.801  25.218 -0.1416 -0.1136  0.0799
76363W        W19379   2.326   6.111   1.840 -0.1954 -0.0988 -0.2478
76364W        W19380  29.762  10.985  28.238  0.3222 -0.0720 -0.0189
76365W        W19381  22.886   2.634   2.029  0.2969  0.0182 -0.0875
76366W        W19382  28.569   4.165  20.887 -0.1074  0.0180  0.3160
76367W        W19383   2.965  27.305   7.733  0.1257 -0.0520 -0.0610
76368W        W19384  29.932  33.679   8.686 -0.0420 -0.3673  0.2134
76369W        W19385  18.072  22.373   4.149 -0.0218 -0.0519  0.1657
76370W        W19386  13.875  28.394   1.514 -0.2308 -0.1619 -0.0078
76371W        W19387  28.517  24.372  21.281 -0.1829 -0.1040 -0.1105
76372W        W19388  31.766  34.536   9.119 -0.0174 -0.0433  0.1129
76373W        W19389  13.464   1.897  20.603 -0.2263 -0.2256 -0.1083
76374W        W19390  10.790  31.702   4.804  0.1307 -0.2447 -0.1864
76375W        W19391  16.438  21.063  29.063  0.1005  0.1881 -0.0450
76376W        W19392   1.540  31.233   4.642  0.2075  0.0048 -0.0815
76377W        W19393   8.474  27.420  16.743  0.0327 -0.0709  0.0776
76378W        W19394   0.850  16.454  29.091 -0.2565 -0.1943 -0.2483
76379W        W19395  11.150  10.025   2.349 -0.0071  0.2039 -0.0088
76380W        W19396   3.033  32.210  21.649 -0.0753  0.0540 -0.0675
76381W        W19397   4.613  34.110   2.612  0.1030 -0.0690  0.0923
76382W        W19398   8.483  20.503   3.622 -0.0691 -0.3189 -0.1557
76383W        W19399  32.309  17.910   5.413 -0.2625 -0.2391  0.1323
76384W        W19400   3.279  17.687  28.760 -0.2737 -0.1316  0.1151
76385W        W19401  24.073  10.447   8.516 -0.1258 -0.3707  0.0955
76386W        W19402  34.454   3.886   0.868  0.0572  0.1167  0.1842
76387W        W19403   0.671  32.426   7.259  0.2342  0.0491  0.0670
76388W        W19404  28.603  10.827   3.094 -0.1900  0.1195 -0.0294
76389W        W19405   8.063   3.289  24.096 -0.1614 -0.0459 -0.1263
76390W        W19406   1.191  22.232   8.776 -0.1874 -0.1396  0.0163
76391W        W19407  28.207  20.193  10.373  0.1382 -0.1799 -0.1918
76392W        W19408  31.328  32.125  24.647  0.1904  0.2839  0.0780
76393W        W19409   3.596  27.926   6.185 -0.0477  0.3306  0.2657
76394W        W19410   8.398  17.533  19.624  0.0720  0.0433 -0.0393
76395W        W19411  16.269   8.271  28.453  0.0687  0.0972 -0.0419
76396W        W19412   8.439  29.557   3.112 -0.2594 -0.0652  0.1197
76397W        W19413  26.635  31.587  11.583  0.2969 -0.0282  0.1413
76398W        W19414   5.631  11.028   6.813 -0.1067 -0.0478  0.1099
76399W        W19415  13.483   3.188   4.700 -0.1258  0.0230  0.3727
76400W        W19416  15.495   2.816   8.955  0.3607  0.0164 -0.3018
76401W        W19417   9.516   8.435  14.008  0.0742  0.1314  0.0799
76402W        W19418   0.293   0.995   2.044 -0.0372 -0.1223 -0.0225
76403W        W19419   3.729   2.281  10.238  0.0993  0.3068 -0.1845
76404W        W19420  33.927  10.955   7.420 -0.0288  0.0367 -0.0737
76405W        W19421  18.530   5.930   2.545  0.1483  0.0962 -0.1301
76406W        W19422  33.211  30.347   8.969 -0.0558  0.0515 -0.0983
76407W        W19423  24.862  32.971  28.928 -0.2425 -0.1333 -0.0489
76408W        W19424   0.066   7.646  23.425 -0.0130 -0.0535  0.1339
76409W        W19425  17.376  27.314  14.226  0.2924 -0.2123 -0.1202
76410W        W19426  14.151  21.699   6.467  0.0675  0.2346  0.0893
76411W        W19427  33.718  30.084  25.869  0.1474  0.3660  0.1799
76412W        W19428  23.004  32.399  28.293  0.1127 -0.2575 -0.0735
76413W        W19429   3.162   8.663   4.192  0.0329 -0.2180 -0.1172
76414W        W19430  12.882  31.758   6.572 -0.1812 -0.1367  0.1766
76415W        W19431   8.420  19.217   8.942 -0.1615 -0.2331  0.2706
76416W        W19432   2.495  18.019   9.535  0.0912 -0.1670 -0.0947
76417W        W19433   4.643   0.195   9.482  0.0241 -0.0709 -0.1406
76418W        W19434  33.665  30.682   1.277 -0.0167 -0.1362 -0.1210
76419W        W19435   4.070  28.381  24.283 -0.1564 -0.0353  0.1925
76420W        W19436   0.454   0.353   1.458 -0.4263  0.5108 -0.1206
76421W        W19437   8.894   0.435   4.812 -0.1063  0.0286 -0.1059
76422W        W19438   0.023  10.833  28.843 -0.0949 -0.0759  0.3066
76423W        W19439  32.959   3.557  27.179  0.2351 -0.1424 -0.2327
76424W        W19440   9.839   1.076  28.767 -0.1145 -0.1215  0.0163
76425W        W19441   4.369   3.108  28.686 -0.1078 -0.2520  0.0024
76426W        W19442   9.202  31.216  27.790  0.0714 -0.2555 -0.3723
76427W        W19443  27.819  33.738   6.500 -0.3130 -0.0146  0.3332
76428W        W19444   6.072  33.997  21.443 -0.1753  0.2163 -0.0161
76429W        W19445  30.604  33.062  10.504 -0.1015  0.1705 -0.0243
76430W        W19446   4.340  19.721   5.812  0.0852 -0.0019 -0.1334
76431W        W19447  34.756   3.103  28.387 -0.3658  0.1984 -0.2230
76432W        W19448   0.215   1.523   9.861  0.2878 -0.0516  0.0183
76433W        W19449  11.994  32.152  29.181  0.0623  0.1291 -0.0841
76434W        W19450  18.165   9.192   6.800 -0.0776  0.2749  0.0676
76435W        W19451  31.368  24.286   2.411 -0.2998 -0.0240  0.1290
76436W        W19452  34.283  20.250   4.602  0.0540  0.0033  0.3761
76437W        W19453  22.446   5.056  23.925  0.2143  0.1480  0.3573
76438W        W19454   5.410  18.455   3.675 -0.1698 -0.0624 -0.1058
76439W        W19455  11.035  12.927   6.848 -0.2700 -0.0457  0.0298
76440W        W19456  30.425  30.708   4.362 -0.0304  0.1545  0.2896
76441W        W19457  18.719  31.434   3.441  0.0558  0.0359  0.3860
76442W        W19458  33.091  27.970  22.069 -0.0224 -0.3504  0.0647
76443W        W19459   5.445  21.841  13.698 -0.0423  0.1221  0.0855
76444W        W19460  15.037  33.458   4.001 -0.0841 -0.0671  0.3878
76445W        W19461   3.926  24.378   4.871 -0.0421  0.2869  0.2383
76446W        W19462  28.240  27.560   9.673  0.3002  0.3772 -0.4792
76447W        W19463   5.309   9.877  24.132 -0.1413  0.2525 -0.2905
76448W        W19464  18.880  34.611   2.753  0.0757  0.3376 -0.1482
76449W        W19465  12.305  28.709   6.387  0.0968  0.0179  0.0558
76450W        W19466  29.838  32.147  27.963 -0.0951  0.2527 -0.0941
76451W        W19467   4.042  29.051   0.939  0.1514 -0.1654  0.3291
76452W        W19468  12.622  30.291   9.742  0.0216  0.0215 -0.1315
76453W        W19469  30.239  26.153   7.464  0.1231  0.1515 -0.0566
76454W        W19470  34.747  33.207  29.190  0.0482 -0.0473 -0.1341
76455W        W19471  22.089  18.960  28.295 -0.2135 -0.1100  0.2642
76456W        W19472   7.111  22.447   7.250 -0.0400 -0.1070 -0.1469
76457W        W19473  29.560  16.734  10.091 -0.2639  0.0319 -0.0598
76458W        W19474  13.509   2.965  23.870  0.3985  0.1821 -0.2499
76459W        W19475  31.282  25.901  26.644 -0.0118  0.0574 -0.0401
76460W        W19476   3.091  11.717  28.966 -0.1894  0.0407  0.4267
76461W        W19477  31.771  32.893  26.724 -0.0167  0.1782  0.0423
76462W        W19478   3.238  11.679   6.357  0.0127 -0.2231  0.1507
76463W        W19479  10.037   7.407   4.704  0.2443  0.2160  0.0289
76464W        W19480   8.736   5.073  27.209 -0.1223 -0.0625 -0.0218
76465W        W19481  33.154  32.393  22.816  0.2755  0.0231  0.0851
76466W        W19482   0.984   4.298  28.163  0.0435 -0.0253  0.0076
76467W        W19483  28.113  11.630   6.032  0.4704 -0.1415  0.0262
76468W        W19484  32.754  31.489  11.028  0.0861  0.0738  0.0146
76469W        W19485  11.852  30.720  14.469 -0.3076  0.1478  0.0203
76470W        W19486  13.852  31.002   4.452 -0.0089 -0.1779 -0.3311
76471W        W19487   2.753  30.451   5.472 -0.0871 -0.1396 -0.0958
76472W        W19488   3.070   8.776   3.238  0.0789  0.2410  0.2625
76473W        W19489  24.252  31.743   1.147 -0.0981 -0.2226 -0.1320
76474W        W19490   8.502  20.774   6.200  0.2989  0.0968  0.1077
76475W        W19491  28.516  22.957   7.153  0.0780 -0.1243  0.1292
76476W        W19492  14.034  11.714   8.002 -0.1397  0.0148 -0.3030
76477W        W19493   8.164  31.540  21.482  0.3369 -0.2037  0.0739
76478W        W19494  34.002  33.978   8.253  0.2304 -0.2495  0.1058
76479W        W19495   3.715   1.088  16.628  0.0160 -0.3437  0.4294
76480W        W19496  19.586   7.649   2.601  0.0604 -0.2045 -0.1008
76481W        W19497   2.251  34.288   7.989  0.1841 -0.3470 -0.0659
76482W        W19498  33.113  30.808  26.575 -0.2147 -0.1592  0.1099
76483W        W19499   8.240  32.903   3.307  0.0077  0.1349 -0.4473
76484W        W19500  16.683   7.632   9.540 -0.1188  0.1171  0.6825
76485W        W19501  14.892   7.634   1.978  0.0397  0.5112 -0.0210
76486W        W19502  29.270  34.081   9.766 -0.1833  0.0428  0.0836
76487W        W19503   1.017  32.605   8.745  0.1497  0.2901 -0.0855
76488W        W19504  15.083  21.791  25.439 -0.0533  0.2245 -0.0947
76489W        W19505  21.003  13.150  20.244  0.1034 -0.2298 -0.0640
76490W        W19506  28.586  16.643  23.529  0.0935  0.1224  0.1768
76491W        W19507  34.676   9.902   6.748 -0.1762 -0.3657 -0.2323
76492W        W19508  25.642  22.561   5.196  0.0876 -0.1501  0.1548
76493W        W19509  31.462   4.525   2.149  0.0097  0.1673  0.2915
76494W        W19510  34.215  27.830   9.718 -0.0108 -0.1147  0.1001
76495W        W19511  23.983  29.174   8.325 -0.1041 -0.1102  0.3408
76496W        W19512  30.246   7.998   5.541 -0.0613  0.0702  0.0051
76497W        W19513   5.604  31.577   0.985 -0.0783 -0.2583  0.1704
76498W        W19514  29.147  19.865   0.766 -0.2351 -0.2706  0.1152
76499W        W19515  31.215   0.894   9.552  0.0639  0.1225  0.5396
76500W        W19516  22.924  26.464  24.535  0.0957  0.0293 -0.1408
76501W        W19517   9.130  27.612   3.747  0.2736  0.1794 -0.0186
76502W        W19518   3.370  32.380   2.770 -0.3568  0.0891  0.0143
76503W        W19519  16.631  29.565   9.221 -0.0487  0.0569 -0.0409
76504W        W19520  12.637  12.864   6.226  0.3005 -0.0700  0.0438
76505W        W19521  28.691  19.326   6.765  0.2790  0.0922  0.1102
76506W        W19522   6.791  21.888  27.522 -0.2432 -0.0300 -0.5229
76507W        W19523   2.451  10.094  24.666 -0.0333 -0.1836 -0.2071
76508W        W19524   6.309  33.205   2.643 -0.0355 -0.1441  0.0651
76509W        W19525   0.665   9.711  15.653 -0.0677 -0.3560  0.5231
76510W        W19526  14.736  32.641   3.021 -0.0337  0.2203  0.0862
76511W        W19527   7.897   1.327   0.924 -0.4464  0.0756  0.3004
76512W        W19528  24.947   2.371   0.120  0.1436 -0.3224  0.1206
76513W        W19529  33.788  13.575   5.409  0.1763  0.0070 -0.1407
76514W        W19530   0.617   1.493  22.800  0.1262 -0.1253  0.2308
76515W        W19531  18.090  18.669   3.042  0.0099 -0.2124  0.3421
76516W        W19532  20.560   1.816   3.660  0.3590 -0.1368  0.1172
76517W        W19533   3.987   0.806  26.315  0.3455 -0.0881 -0.1006
76518W        W19534  11.858  24.321  16.323 -0.0275 -0.0197 -0.1910
76519W        W19535  33.864   0.812  28.207  0.0788  0.3610  0.2541
76520W        W19536   5.848  28.018   5.936 -0.0588 -0.1506  0.2278
76521W        W19537   3.702  21.994   3.443  0.2099 -0.3904  0.3896
76522W        W19538  30.528  25.567  10.020  0.1059 -0.1703 -0.2534
76523W        W19539  15.835  22.572   0.648  0.0161 -0.0746  0.0017
76524W        W19540   4.559  28.913   5.225 -0.1960 -0.0545 -0.0970
76525W        W19541  14.382  26.033   2.568  0.1103  0.1594  0.1049
76526W        W19542  32.248   3.359   4.752 -0.2234 -0.0355  0.2552
76527W        W19543  27.636  19.828   4.500  0.3031  0.1280 -0.2672
76528W        W19544   7.565  26.669   3.908 -0.2434 -0.4175 -0.2524
76529W        W19545   3.816   0.987   3.301  0.1322  0.3114  0.3575
76530W        W19546  31.148  24.958  10.509 -0.0125 -0.1210  0.3445
76531W        W19547   4.611   3.794   0.583  0.0323 -0.3590  0.1765
76532W        W19548   3.021   3.074   9.623 -0.3521 -0.0098 -0.1200
76533W        W19549  27.077  16.174  22.950  0.0739  0.3702 -0.2640
76534W        W19550   0.372  27.280   3.859  0.0567  0.0760  0.0184
76535W        W19551  23.327   1.595  26.144 -0.0584  0.0878  0.0105
76536W        W19552  22.533  11.452   3.159  0.2004 -0.0708  0.0077
76537W        W19553  10.861  19.752   0.340  0.5179 -0.0651 -0.0445
76538W        W19554  31.787   6.110   5.024 -0.0456  0.1646 -0.3137
76539W        W19555   6.173   3.742  16.882 -0.1932 -0.0603  0.1776
76540W        W19556   1.552  34.583   6.822 -0.1605  0.2587  0.0147
76541W        W19557   7.703  30.304   0.901 -0.1509 -0.0419 -0.1999
76542W        W19558  11.947  15.338   4.711  0.1090  0.4043  0.3257
76543W        W19559  34.673  20.775   9.611 -0.0765 -0.0763 -0.0999
76544W        W19560  15.707  23.248  27.742 -0.0502 -0.1048  0.2930
76545W        W19561  15.441  21.627  23.946 -0.0370  0.0762  0.1652
76546W        W19562   6.461  10.682   1.770 -0.2985 -0.3020  0.2185
76547W        W19563   5.207  19.897  27.727 -0.2235 -0.3638 -0.0476
76548W        W19564  15.153   2.332   5.462 -0.0422 -0.0189 -0.1482
76549W        W19565  33.648  11.443   6.864  0.0465 -0.0917 -0.2484
76550W        W19566  28.037   4.507  10.849 -0.2326  0.4653  0.1413
76551W        W19567   2.200   4.847  28.793  0.1628 -0.0453  0.1751
76552W        W19568  11.809  34.351   6.741  0.0660 -0.3659 -0.2947
76553W        W19569   5.771  30.374  18.771  0.0620 -0.1407 -0.3358
76554W        W19570   5.917   3.184   6.741 -0.1002 -0.0180 -0.1387
76555W        W19571  29.607  12.696   6.590 -0.1045  0.1445  0.4474
76556W        W19572  29.908  10.727   6.944  0.1390 -0.1777 -0.1440
76557W        W19573  33.498   8.708  18.299  0.4352 -0.1833 -0.2107
76558W        W19574   9.749   0.705  25.640 -0.3907  0.2765 -0.1419
76559W        W19575   8.716   1.198  10.242 -0.0437  0.1294  0.2230
76560W        W19576  11.850  29.230   2.401  0.0341  0.2938 -0.2165
76561W        W19577   5.689   7.067   1.182  0.1966 -0.3090  0.1199
76562W        W19578   6.789   3.497   8.944 -0.1216  0.0215  0.0626
76563W        W19579   2.396  27.349  24.480 -0.0396 -0.2143 -0.2600
76564W        W19580  23.085  20.669   4.922 -0.0402 -0.2569  0.1068
76565W        W19581  24.218   2.375   5.634  0.0654 -0.0004 -0.3413
76566W        W19582  29.790  22.084  10.659  0.1516  0.0691 -0.0120
76567W        W19583   2.851  14.965  29.034  0.3091 -0.0963 -0.1188
76568W        W19584  15.676  11.155   8.288  0.0358 -0.2528 -0.1176
76569W        W19585  31.271  19.718   8.099 -0.1822 -0.0313  0.0598
76570W        W19586  32.218  13.692   2.648  0.1671  0.1562  0.2020
76571W        W19587   1.447  15.712  21.863  0.1459  0.2649 -0.1647
76572W        W19588  11.864  10.508   4.024 -0.1007  0.4302  0.1261
76573W        W19589  16.382  34.657   3.045 -0.0104 -0.0934 -0.0086
76574W        W19590  11.279  28.895  28.111  0.3508 -0.0335  0.0478
76575W        W19591   8.424  28.863   3.069  0.0164  0.0090  0.1222
76576W        W19592   0.736   2.241   0.895 -0.0940  0.0076 -0.1667
76577W        W19593   6.953   0.998   5.951 -0.1777 -0.0327  0.0465
76578W        W19594  15.559   1.538   4.190  0.1750  0.2762  0.1569
76579W        W19595   6.016  23.478  21.332 -0.4001  0.1069  0.0215
76580W        W19596   1.771   6.600  17.167  0.2987 -0.0684 -0.0349
76581W        W19597  11.270  29.164  24.889 -0.0237 -0.1723  0.0981
76582W        W19598   1.014   1.158   7.144 -0.1769  0.0255 -0.1851
76583W        W19599  15.508  27.532  21.908  0.0285 -0.2427  0.1357
76584W        W19600  28.022   0.689   8.279  0.2114  0.1841  0.2105
76585W        W19601  30.286   1.585  11.188  0.1031  0.2177  0.2170
76586W        W19602   8.611   1.025   8.304  0.3094  0.0868 -0.1632
76587W        W19603   2.907  13.885   6.861  0.1772 -0.0047 -0.1796
76588W        W19604   2.071  32.756   8.372  0.1177 -0.0708  0.1001
76589W        W19605  29.281  31.286   0.108  0.0362  0.2708 -0.1038
76590W        W19606   9.579  28.830   0.091 -0.0289 -0.1610 -0.1587
76591W        W19607   1.342  11.462  27.597 -0.1045 -0.2450 -0.3191
76592W        W19608   5.270  11.466  27.157  0.0673 -0.1098 -0.2081
76593W        W19609   5.503   2.572  24.176 -0.1104 -0.1952 -0.1311
76594W        W19610   0.685   5.475   3.655  0.2296 -0.1728  0.1373
76595W        W19611   8.948  13.858   6.034 -0.2154 -0.1320  0.0575
76596W        W19612  27.082  20.852   5.657 -0.3195 -0.2383 -0.1040
76597W        W19613  15.926  11.902   6.508 -0.5599  0.0792  0.1709
76598W        W19614   9.412  22.079  27.886  0.0405 -0.0938  0.0689
76599W        W19615   5.143  13.184   8.332 -0.3255  0.1991 -0.1254
76600W        W19616   8.774  20.514   0.883  0.1091  0.2096  0.3143
76601W        W19617  13.709  29.464   6.649  0.3653 -0.1645 -0.0955
76602W        W19618  14.410  10.849  20.702  0.1820 -0.1970  0.0681
76603W        W19619  32.170  11.834   1.191 -0.0107  0.0113 -0.1114
76604W        W19620  29.277   3.190   5.517 -0.0471  0.0847 -0.1709
76605W        W19621  22.957  21.036   9.358  0.0145 -0.2139 -0.1216
76606W        W19622  12.805  24.430   4.377 -0.2626  0.0674  0.0115
76607W        W19623  11.240  27.989  26.124 -0.2044  0.1468 -0.7365
76608W        W19624   7.403  24.385   8.708  0.2825  0.4355 -0.0384
76609W        W19625   2.649  30.389   8.800  0.2118  0.2613  0.0051
76610W        W19626   8.260  16.305   7.052 -0.0316 -0.0449  0.5701
76611W        W19627  14.249   0.887   1.504  0.1491  0.0246 -0.0762
76612W        W19628   5.022   7.028   8.764 -0.0230  0.0762 -0.0947
76613W        W19629  34.521  33.894  10.538  0.1291 -0.1700 -0.1798
76614W        W19630  29.348  28.784  10.086 -0.3794 -0.3905 -0.0818
76615W        W19631  24.930  27.809   5.891 -0.0587  0.0012  0.0967
76616W        W19632  11.230  26.803   1.411  0.1042 -0.0276 -0.1370
76617W        W19633   4.005   3.154  28.998 -0.0625  0.0617  0.1837
76618W        W19634  19.463  30.929   1.075  0.2239 -0.0526 -0.2031
76619W        W19635  31.979  30.558   7.780 -0.0266  0.0531  0.1465
76620W        W19636   3.651  34.108   7.140  0.2362  0.0542  0.1249
76621W        W19637   9.607   2.513  28.105 -0.2191 -0.0383 -0.2472
76622W        W19638   2.976  27.142  29.194 -0.2660  0.1231  0.1074
76623W        W19639  18.198   1.418   3.171 -0.1690  0.0684  0.0671
76624W        W19640  28.808  30.208   5.042 -0.1187  0.1694 -0.3655
76625W        W19641  29.649  20.778  24.438  0.2581 -0.1993 -0.0198
76626W        W19642  18.725  15.732  26.370 -0.0535  0.1158  0.1186
76627W        W19643  29.449  29.384  11.874 -0.0409  0.3677  0.0533
76628W        W19644   2.310  28.947   5.878 -0.0681 -0.0938  0.0674
76629W        W19645  33.336  26.925   9.914 -0.0199 -0.1741 -0.2222
76630W        W19646   7.913  17.562  29.060 -0.1829  0.0478  0.1866
76631W        W19647  13.443  32.509   7.700  0.0709 -0.1977  0.6623
76632W        W19648   3.831   9.113   4.650  0.0049 -0.2399  0.0111
76633W        W19649   4.548   7.879  24.675  0.1297  0.1148  0.0280
76634W        W19650  14.882   6.212  29.098 -0.3488 -0.2071  0.1519
76635W        W19651  22.189  33.587   3.595 -0.0219 -0.0942  0.2390
76636W        W19652   9.103  31.113   2.514  0.1208 -0.0118  0.0516
76637W        W19653   7.495  10.072   1.723  0.0157  0.1042 -0.0540
76638W        W19654   6.130  33.984   9.238 -0.1124  0.1928 -0.0618
76639W        W19655   2.821  10.622  28.269 -0.0687  0.0929 -0.0799
76640W        W19656   7.687   1.202  24.521  0.0763 -0.1715 -0.2603
76641W        W19657  10.324  17.806   1.989 -0.1888 -0.1296 -0.0597
76642W        W19658  16.644  14.200  28.411 -0.0478 -0.0339 -0.2016
76643W        W19659  24.040  31.312  10.483  0.1508  0.3916  0.3396
76644W        W19660  24.764   6.590   4.969  0.0435 -0.0412 -0.0088
76645W        W19661   4.310   0.140   5.133 -0.0434  0.1276 -0.3346
76646W        W19662  18.382  16.513  22.817 -0.0136 -0.0434  0.0581
76647W        W19663  24.803  25.937   9.400  0.2154 -0.0283  0.0563
76648W        W19664   1.166   0.603  25.294  0.2125  0.1059 -0.0446
76649W        W19665   1.766  17.975   0.346 -0.0836  0.1246 -0.3142
76650W        W19666  12.554  29.800  27.143 -0.2057 -0.0021  0.5309
76651W        W19667   0.194   2.741   6.663  0.0322  0.0894 -0.2445
76652W        W19668  17.448  20.232  26.550 -0.2440  0.0523 -0.1408
76653W        W19669   6.731   3.774   6.518 -0.3757  0.4361 -0.1020
76654W        W19670  26.884  18.648  25.016  0.0073  0.0136  0.2822
76655W        W19671  32.202  14.185  27.836 -0.3959 -0.3350  0.0868
76656W        W19672  11.715  32.364  25.442  0.0400 -0.0439  0.1754
76657W        W19673  14.330   9.137   5.157  0.0500  0.0620 -0.2214
76658W        W19674  11.123   2.635   2.685 -0.1651 -0.1704  0.2991
76659W        W19675   9.222  30.190   0.964 -0.4031  0.0497 -0.1611
76660W        W19676  29.702  19.799  10.332 -0.0321 -0.0157  0.2256
76661W        W19677  33.086  28.037  27.427  0.0019  0.1194 -0.1173
76662W        W19678  27.607  25.474   9.598  0.0008 -0.0477 -0.0639
76663W        W19679   2.762   3.609  29.315  0.0805  0.2009 -0.1403
76664W        W19680   1.387  30.199  24.402  0.3063 -0.0377  0.0691
76665W        W19681  27.202  30.341  25.459  0.0784 -0.1178  0.1870
76666W        W19682  33.042  30.511   5.351 -0.0436  0.0788 -0.1313
76667W        W19683  10.327  26.037   9.329  0.1533  0.0909 -0.2441
76668W        W19684  19.208   1.647   7.332  0.3652  0.0160 -0.2407
76669W        W19685   4.092   7.216   5.658  0.0944  0.4963 -0.0910
76670W        W19686   5.459   4.952   7.428  0.0690  0.3747 -0.2204
76671W        W19687   8.466  15.844   2.622 -0.0979  0.0495 -0.0491
76672W        W19688  32.117   2.189   9.666  0.0337  0.1959 -0.1993
76673W        W19689  29.613   1.949   6.272  0.2884  0.2642 -0.0953
76674W        W19690  23.484  33.725  26.858  0.2723 -0.1744  0.1304
76675W        W19691   4.290   4.022   5.903  0.0689 -0.1720  0.2339
76676W        W19692  32.638  25.434  10.247 -0.1686  0.0671 -0.0209
76677W        W19693  30.464  30.895  28.870 -0.2655  0.0186 -0.3748
76678W        W19694  30.146  29.296   0.903 -0.1873 -0.1874 -0.0079
76679W        W19695  24.696  34.505   9.425 -0.2661 -0.0968 -0.4688
76680W        W19696   7.977   3.556  26.276  0.4420 -0.1651 -0.3643
76681W        W19697  17.498  25.967   7.994 -0.1866 -0.0708  0.5072
76682W        W19698  11.608   4.321   5.407 -0.0835 -0.0514  0.1808
76683W        W19699  13.236  23.987  24.169  0.1525 -0.0238 -0.2099
76684W        W19700  16.175  22.897  18.773  0.1600 -0.2093  0.4372
76685W        W19701   5.024  11.565  18.696 -0.2251 -0.0991 -0.2726
76686W        W19702  28.943   3.083   9.870  0.0032 -0.0828  0.2605
76687W        W19703  28.542  14.242  19.651  0.0300  0.0052  0.1966
76688W        W19704  17.114   9.588   0.951 -0.1876  0.3838  0.2112
76689W        W19705  10.368   8.654   5.918  0.3539 -0.0711  0.0706
76690W        W19706   5.503  12.854   8.814 -0.1705 -0.0030 -0.0127
76691W        W19707  14.532  27.117  19.413 -0.1885 -0.1064  0.2155
76692W        W19708  25.002   4.120   7.968 -0.0070 -0.0771  0.0489
76693W        W19709  13.795  31.799   5.958  0.2667 -0.2854  0.4350
76694W        W19710  33.362   8.209  26.452  0.0852 -0.0003  0.3487
76695W        W19711   4.778  34.479  26.723  0.0983  0.2712  0.2219
76696W        W19712   3.480   3.556  23.536  0.0303 -0.0851  0.0727
76697W        W19713  22.331  18.103   5.238  0.0660  0.0011 -0.2283
76698W        W19714   9.292  31.083  23.909  0.0006  0.2358  0.1367
76699W        W19715   4.318   8.274   7.094 -0.1610 -0.0054 -0.0355
76700W        W19716  34.745  34.417   5.325 -0.3183 -0.1046  0.3571
76701W        W19717   5.382  31.650  23.427 -0.2663 -0.0084  0.0168
76702W        W19718   5.749   8.656  26.764 -0.3102 -0.3240 -0.0795
76703W        W19719   4.656  12.369  23.750  0.1765  0.0635 -0.2370
76704W        W19720   7.740  25.286   2.023 -0.1098 -0.3539  0.0483
76705W        W19721   7.631  25.434  27.712  0.1772 -0.1009 -0.0613
76706W        W19722   0.895  25.223   9.189 -0.2523  0.2634  0.0581
76707W        W19723  31.596   3.933  24.860 -0.2791  0.1828  0.1084
76708W        W19724   6.577   0.219  28.485 -0.1091  0.1661 -0.0926
76709W        W19725  32.511  29.001  24.469 -0.3095 -0.0062 -0.0104
76710W        W19726  27.851  22.119  11.452  0.4168  0.1143  0.1712
76711W        W19727  18.473  34.220   9.708 -0.0383 -0.0538  0.0216
76712W        W19728   3.819  11.714  22.237 -0.0437  0.0887  0.2251
76713W        W19729  30.500  25.607   5.014 -0.1909  0.1504  0.2903
76714W        W19730   0.674   4.450   5.103  0.0233 -0.1263  0.2394
76715W        W19731  13.440   0.980  13.360  0.0387  0.2359  0.3894
76716W        W19732   2.214  31.047   8.248 -0.1737 -0.0510  0.0767
76717W        W19733  12.359   0.121   8.100  0.1498  0.2489 -0.2517
76718W        W19734  23.346   3.720   2.039  0.2748  0.1948  0.2316
76719W        W19735   8.896   7.952  17.674  0.0292  0.2847 -0.2640
76720W        W19736  31.495  31.525  19.560 -0.1245 -0.2432 -0.0906
76721W        W19737  25.240   3.337   8.994  0.1064  0.2268 -0.0534
76722W        W19738  23.093  30.811   0.479 -0.0662  0.0574  0.0410
76723W        W19739  31.274  31.029   5.708 -0.0904 -0.0171  0.1475
76724W        W19740  30.142  31.986   9.070 -0.1835 -0.1194  0.1925
76725W        W19741  19.813  22.274   8.954 -0.1694 -0.0936 -0.0218
76726W        W19742   8.735  31.810   2.444 -0.2417 -0.2936 -0.2645
76727W        W19743   4.210   0.679  22.739 -0.2109  0.3371  0.1849
76728W        W19744  13.313  12.395  27.862 -0.1050  0.2308  0.3874
76729W        W19745  10.915  28.795  23.904  0.1531 -0.2113 -0.2108
76730W        W19746  15.181  11.901  23.585  0.2063  0.0898  0.0933
76731W        W19747   1.012   2.110   8.416 -0.0233  0.0399 -0.1395
76732W        W19748   0.305  25.980  27.088  0.1992  0.3350 -0.1169
76733W        W19749  11.832   3.216  23.630 -0.0264 -0.2433 -0.2681
76734W        W19750  32.510   3.278  23.597 -0.0317  0.1438  0.1982
76735W        W19751  11.031   0.385   9.441 -0.0475 -0.2662 -0.0759
76736W        W19752   7.720  16.395  25.999  0.0847  0.0492  0.0859
76737W        W19753  21.134   2.495  20.320 -0.2322  0.0255 -0.3724
76738W        W19754   7.848   5.098  21.627  0.1801  0.2128  0.0711
76739W        W19755   5.186  31.636   4.257  0.1037 -0.0972  0.0581
76740W        W19756   9.187   7.118  16.223 -0.0990  0.0180  0.0593
76741W        W19757   5.469  31.061   7.320 -0.1019 -0.0524  0.1677
76742W        W19758   0.485   2.749   7.722 -0.2781  0.3697 -0.0692
76743W        W19759  21.840  28.951   9.783 -0.0446 -0.0160  0.0799
76744W        W19760   3.039  19.957   9.879 -0.0802 -0.0971  0.4394
76745W        W19761  21.319  18.524   4.666 -0.1464  0.0983  0.0833
76746W        W19762  10.504  31.093   3.997  0.1672  0.0121  0.0088
76747W        W19763  12.338  18.271   3.499  0.0227  0.0496  0.0557
76748W        W19764   3.214  31.871   9.122 -0.0757  0.2339  0.1164
76749W        W19765  13.111  20.504  18.269 -0.0662 -0.0593  0.2252
76750W        W19766  12.535  27.202  13.956  0.0187  0.2488 -0.0363
76751W        W19767  11.908   8.811   5.040 -0.3647  0.0220 -0.0301
76752W        W19768  11.569  27.739   3.602  0.0744  0.2683 -0.0898
76753W        W19769  19.830  32.809  25.574  0.0108 -0.4910  0.0458
76754W        W19770   5.739   0.909   8.724 -0.0140 -0.1443 -0.0614
76755W        W19771   0.956  31.317  21.186 -0.1676  0.1942  0.2587
76756W        W19772  15.678   0.510   4.001  0.0603  0.0413  0.0591
76757W        W19773  30.567  32.516   8.384  0.3468  0.0305 -0.0044
76758W        W19774  19.169   0.717   2.083  0.0194 -0.0440  0.1794
76759W        W19775  32.613  23.026   5.481  0.0439 -0.1462  0.5095
76760W        W19776  28.808  12.389   8.926 -0.1017 -0.1918  0.1680
76761W        W19777  20.827  31.521   0.467  0.4684  0.0372  0.1495
76762W        W19778  15.740  23.366  22.979 -0.0796  0.2838  0.0577
76763W        W19779  15.866   5.255   7.207  0.4057 -0.1314 -0.2851
76764W        W19780  25.406   7.662   9.969  0.1310 -0.1640 -0.1447
76765W        W19781   7.879   0.100   9.546 -0.0090  0.2251  0.2410
76766W        W19782  18.667  32.087   9.142  0.2140  0.1451  0.2536
76767W        W19783   0.658  13.856   8.072  0.1499 -0.1113  0.2692
76768W        W19784   9.498  21.406  13.230 -0.1271  0.1608 -0.2842
76769W        W19785   2.541  29.887  17.027  0.0271 -0.2019  0.1545
76770W        W19786  12.875  29.500  20.848 -0.1675  0.0004  0.1639
76771W        W19787  12.644   2.524   2.770  0.1353  0.1111 -0.0283
76772W        W19788  33.823  18.420   3.346 -0.2571  0.3761 -0.0499
76773W        W19789   5.021   4.148   3.158 -0.1748 -0.0964 -0.0672
76774W        W19790  11.667  31.797  19.335  0.0252  0.0028  0.0551
76775W        W19791  33.705  15.584   7.904 -0.0946  0.3420 -0.1309
76776W        W19792  31.409  28.968  26.667  0.1233 -0.1030  0.0055
76777W        W19793   6.541  10.116  27.835  0.1589  0.2495  0.0681
76778W        W19794  16.658  33.105   2.093  0.3325  0.3837  0.0976
76779W        W19795  27.947  20.889  20.658 -0.3770  0.2017 -0.0870
76780W        W19796  11.015  14.873  29.320  0.2331 -0.1300  0.2074
76781W        W19797  15.914  27.421   7.150 -0.1882 -0.2261  0.1945
76782W        W19798   2.750  32.102  16.942  0.0534 -0.1735  0.1252
76783W        W19799  14.994  32.743   0.005  0.1823 -0.3325  0.1350
76784W        W19800  30.590   6.922   6.675  0.2248  0.2116 -0.2424
76785W        W19801  16.511   5.115   1.254  0.1308  0.0628 -0.0729
76786W        W19802   0.422  32.681  23.599 -0.2044 -0.0629  0.1600
76787W        W19803  33.914  30.673   0.833  0.0827 -0.2945 -0.2367
76788W        W19804  11.110  11.092  28.182  0.2768  0.0519 -0.0092
76789W        W19805   7.661  16.114   0.874  0.0074  0.1952  0.0398
76790W        W19806   8.840  20.671  22.529  0.1889 -0.0131 -0.2688
76791W        W19807   8.554  32.936  14.788  0.1710  0.2381  0.2505
76792W        W19808  18.736   4.078  21.868 -0.1448  0.1659  0.1758
76793W        W19809   0.863   4.762   7.446  0.2601  0.2709  0.1414
76794W        W19810  16.005  18.211   4.998 -0.1874  0.1769  0.0217
76795W        W19811  25.338   8.894   7.993 -0.1502 -0.1011  0.4035
76796W        W19812   8.307   8.948  29.033 -0.1406  0.3195 -0.0468
76797W        W19813   5.892  31.153  28.988 -0.1059  0.0282 -0.0300
76798W        W19814   4.565  33.621   0.847  0.0372  0.1672  0.1258
76799W        W19815  33.404  33.953  25.584 -0.1705  0.1420 -0.3130
76800W        W19816  10.274  29.569   3.594 -0.0764  0.0167  0.1923
76801W        W19817   4.723  26.004   5.447  0.0320  0.1083 -0.0914
76802W        W19818   6.110   9.377  28.170  0.0588  0.0322 -0.1976
76803W        W19819   8.640  28.538  14.906  0.2654  0.2095 -0.1852
76804W        W19820  16.103   5.445   6.757 -0.1016 -0.1557 -0.0669
76805W        W19821  23.845   9.112   7.492 -0.3236  0.0520  0.0762
76806W        W19822   3.627   7.812   8.894  0.2608  0.1188  0.0513
76807W        W19823  34.310  10.165  28.277  0.2081 -0.3711  0.0738
76808W        W19824   9.536  27.845  18.015 -0.2098 -0.1296  0.2128
76809W        W19825  13.458  23.527  21.973 -0.1855  0.0132 -0.0131
76810W        W19826   7.275  27.903  19.594  0.0245  0.1020  0.2468
76811W        W19827   8.016  15.572  20.730  0.2689 -0.0708  0.2710
76812W        W19828  23.361  19.238  25.742  0.3275  0.0801  0.1906
76813W        W19829  21.843  19.389  22.215 -0.0456 -0.1321  0.0637
76814W        W19830  12.297  29.214  21.270 -0.1438 -0.1168  0.0653
76815W        W19831  23.940  26.999   8.102  0.3635  0.1531  0.0193
76816W        W19832  17.477  12.732   7.993  0.0500 -0.3503  0.0776
76817W        W19833  15.972  21.140   0.641  0.0012 -0.1853 -0.1374
76818W        W19834  11.346  16.734  14.672  0.1345 -0.1322  0.0585
76819W        W19835   2.587  33.937  28.294 -0.0368 -0.1499  0.0751
76820W        W19836  18.115   9.113   8.151  0.0799 -0.0078  0.2889
76821W        W19837  26.838  14.030   3.860  0.2338 -0.1617 -0.0418
76822W        W19838  15.097  11.169  21.371 -0.0987  0.2037 -0.0861
76823W        W19839  16.572   6.624   4.392 -0.0055 -0.1720 -0.0287
76824W        W19840  32.615  28.179   9.375 -0.0149  0.2318  0.1208
76825W        W19841  23.301  12.689  19.540  0.0985 -0.3898 -0.1151
76826W        W19842   6.932  14.666  25.764  0.1275 -0.3813  0.0520
76827W        W19843   4.225  25.856   9.537  0.2855 -0.0970  0.0225
76828W        W19844  33.008   2.761  21.476  0.2602 -0.0113  0.2105
76829W        W19845   0.716  31.005   3.055  0.2008  0.0766 -0.1004
76830W        W19846   9.474   3.125   6.779  0.1145 -0.1054 -0.1715
76831W        W19847   1.317  28.535   8.066  0.1681  0.3626 -0.3565
76832W        W19848  19.266   6.469  28.470  0.3854 -0.1161  0.0154
76833W        W19849  12.235  10.607   0.905  0.2763 -0.2816 -0.0144
76834W        W19850   2.152   7.386  28.430 -0.0616 -0.2122  0.0448
76835W        W19851  19.211  23.140   8.043 -0.1761 -0.0177  0.0146
76836W        W19852   9.192  11.466   6.030 -0.1277  0.0672  0.2278
76837W        W19853  14.096  26.533   4.232 -0.3971 -0.0052 -0.1825
76838W        W19854   1.448  29.534   9.053 -0.1510 -0.0419 -0.1618
76839W        W19855  19.428  32.549  25.740 -0.0335  0.1028 -0.1257
76840W        W19856   2.911   8.096  26.324 -0.1121 -0.1434 -0.2200
76841W        W19857  33.603  23.408   7.530 -0.0767  0.2018  0.0427
76842W        W19858   9.643   7.822   0.987  0.0946 -0.4408 -0.2223
76843W        W19859  11.585  27.085  24.330  0.0936 -0.3098  0.0801
76844W        W19860  28.267  26.479   6.029 -0.2517  0.0815 -0.1929
76845W        W19861  33.877  24.921  21.991  0.1791  0.4496 -0.2967
76846W        W19862  15.734   2.161   4.555 -0.0076 -0.0070 -0.0795
76847W        W19863  11.859  28.609  23.213  0.1587  0.0290  0.0735
76848W        W19864   7.167  28.449  25.801 -0.0025 -0.2030 -0.0449
76849W        W19865  11.382  26.395   6.068  0.4071  0.0346 -0.0966
76850W        W19866  26.064   5.990   4.320  0.1618 -0.3494 -0.0315
76851W        W19867   7.941  18.993  24.634 -0.3244 -0.1137 -0.0147
76852W        W19868   0.819  32.893   2.662  0.0831 -0.1094 -0.0127
76853W        W19869   0.995  23.721  26.879  0.0207  0.0957 -0.2756
76854W        W19870  32.993   5.433   6.132  0.0536  0.1660 -0.1558
76855W        W19871   1.999  27.964   4.000 -0.2434  0.1175  0.0112
76856W        W19872  31.287  24.806   2.382  0.4346 -0.2912 -0.1790
76857W        W19873  30.162  12.991   7.714 -0.1885 -0.0583 -0.0866
76858W        W19874   1.806  32.075   5.884 -0.2611  0.2914  0.2970
76859W        W19875  18.894  24.336   6.793 -0.2676 -0.0345  0.1594
76860W        W19876   4.181  23.701   3.924 -0.0814  0.0723  0.1188
76861W        W19877   0.602   3.621   2.515  0.0722  0.3099 -0.2973
76862W        W19878  13.113  33.914   2.644  0.0494  0.0990 -0.0317
76863W        W19879   5.598   7.044  22.041  0.0765 -0.0814  0.1033
76864W        W19880  27.765  29.757  18.896 -0.0319 -0.0625 -0.1123
76865W        W19881   2.636  22.907  14.027  0.1071 -0.1572  0.0057
76866W        W19882  10.309  30.230   7.502 -0.0147 -0.1739 -0.3557
76867W        W19883  19.352  25.787  16.214  0.0486 -0.2828  0.1642
76868W        W19884  27.120   8.309   7.878  0.3548  0.1137 -0.1775
76869W        W19885  11.790  29.992  20.848  0.1708  0.0189 -0.2048
76870W        W19886   8.422  26.201  25.846 -0.0540  0.2987  0.1313
76871W        W19887  25.993  27.597  11.281  0.4444 -0.0418  0.1645
76872W        W19888  18.575  19.887   6.106 -0.0321 -0.1795  0.3188
76873W        W19889   3.709   2.012   2.259  0.0970 -0.1482 -0.2352
76874W        W19890  25.597   7.372  20.509 -0.0031 -0.1342 -0.3973
76875W        W19891  13.089  30.005  16.833  0.1827 -0.2075  0.2275
76876W        W19892  16.565   0.880   6.577  0.0828 -0.3548 -0.1318
76877W        W19893   9.330  19.199  27.221  0.0931 -0.0492 -0.1678
76878W        W19894   7.194  32.569  22.967 -0.1762  0.2823  0.1670
76879W        W19895   0.247  27.308   4.340 -0.0540  0.1386  0.3187
76880W        W19896   7.639   6.874   1.245 -0.1541 -0.0934 -0.2379
76881W        W19897   9.592  27.125   8.794 -0.0232  0.1059 -0.1457
76882W        W19898  33.402  21.928   1.136 -0.1884  0.1770 -0.0082
76883W        W19899  33.596  23.687   0.561 -0.1401  0.0557  0.0463
76884W        W19900   5.681   6.708   1.627 -0.0380  0.0412  0.1797
76885W        W19901   7.676  25.931   8.698 -0.4403  0.0041  0.0090
76886W        W19902  15.197  19.086   3.527  0.0275 -0.1623 -0.1161
76887W        W19903  11.898  31.560  10.091  0.0801 -0.0026 -0.0226
76888W        W19904  13.584  34.217   0.918 -0.0356 -0.1018  0.1815
76889W        W19905  12.419  26.822  24.325  0.2932  0.2590  0.1602
76890W        W19906  10.571  11.858  19.328 -0.3326 -0.2742 -0.1784
76891W        W19907  34.400  13.750   3.318 -0.0174  0.0585 -0.1796
76892W        W19908  23.903   0.064  22.356 -0.0301 -0.1934 -0.0198
76893W        W19909  33.392  33.085  28.928  0.2682 -0.1615  0.0072
76894W        W19910  18.275   3.064   5.191  0.0357  0.2517 -0.0104
76895W        W19911   6.361   9.250   9.786  0.0160 -0.1627  0.1311
76896W        W19912   2.712  33.788  26.719  0.2960  0.0392 -0.0717
76897W        W19913   9.932  31.492   9.517  0.1643 -0.3442  0.0314
76898W        W19914  10.722  34.416  26.136  0.0703  0.4503 -0.0122
76899W        W19915  33.813  34.251  23.872 -0.0019  0.3503  0.0229
76900W        W19916  14.316   3.788   9.622 -0.2126 -0.3189  0.2165
76901W        W19917  25.763   8.679   2.903 -0.0134  0.1416 -0.1696
76902W        W19918   7.444   9.208   6.383  0.4326 -0.0319  0.0786
76903W        W19919  10.780  30.268  18.747  0.1660 -0.2867 -0.2392
76904W        W19920  18.802   4.619  27.814  0.3679 -0.2558  0.1504
76905W        W19921   9.744   7.587  24.407  0.0236 -0.0401  0.0220
76906W        W19922  12.895   8.750  23.625 -0.0736  0.0565 -0.4673
76907W        W19923  33.699  31.738   5.042 -0.1011  0.1935  0.0540
76908W        W19924   4.225   6.846   7.864 -0.2823  0.1973 -0.1547
76909W        W19925  18.560   2.927   6.237  0.9031  0.0254  0.1620
76910W        W19926   1.254  31.616  20.189 -0.1997  0.1981 -0.0558
76911W        W19927  33.773   9.428   0.167 -0.0415  0.2547 -0.1948
76912W        W19928  19.398   8.362   8.685 -0.0193  0.0565 -0.1532
76913W        W19929  18.797  27.621  25.610  0.0304 -0.1557 -0.1107
76914W        W19930  20.635   7.664   5.622 -0.1060 -0.1731  0.0663
76915W        W19931   8.017  31.772   6.152  0.2234  0.2357 -0.0236
76916W        W19932   2.171   6.283  21.541  0.3823 -0.0481  0.0357
76917W        W19933  10.465  24.645   5.206  0.2714  0.2327 -0.3284
76918W        W19934  21.529   0.313   0.499 -0.0341 -0.1204 -0.0429
76919W        W19935  17.899  12.508   1.325 -0.1626 -0.0182  0.0463
76920W        W19936  18.955   3.329   4.961  0.0051  0.0878  0.0660
76921W        W19937  26.608  34.103   3.393  0.0069 -0.1211  0.0580
76922W        W19938  26.623   9.359  26.176  0.1157  0.1551 -0.2230
76923W        W19939  17.371  18.909   8.794  0.0063 -0.2960 -0.1260
76924W        W19940   9.924   9.630   2.319  0.1797  0.2093 -0.3781
76925W        W19941   8.395   6.425  27.122  0.1613 -0.2846  0.0612
76926W        W19942  21.732  28.122   0.494 -0.1597 -0.1659 -0.1539
76927W        W19943  32.298  33.656   1.530  0.2274 -0.0663  0.1318
76928W        W19944   0.265  34.078   5.712  0.1707  0.1290 -0.1485
76929W        W19945  16.543   3.340   5.281 -0.0031  0.4132 -0.2669
76930W        W19946  32.400   0.151  15.347  0.1009 -0.2251  0.0566
76931W        W19947  17.881   1.535   9.767 -0.1105  0.3405 -0.5494
76932W        W19948   4.002   1.552  21.760  0.0584  0.1805  0.3424
76933W        W19949  30.994  32.613  26.995  0.4049  0.4062 -0.0788
76934W        W19950   4.813  10.014  28.418  0.0574 -0.0059  0.0865
76935W        W19951  13.203   6.734  16.662  0.0224  0.0503 -0.0082
76936W        W19952   8.025   1.676  10.568 -0.1768 -0.0798 -0.0146
76937W        W19953  19.212   5.297   0.606  0.2418 -0.2814 -0.1324
76938W        W19954   7.095  15.457   7.767  0.1703  0.1671 -0.1774
76939W        W19955   1.302   8.745   3.470  0.2098  0.1282 -0.1710
76940W        W19956   9.778  34.464   8.028  0.0684 -0.3054 -0.2588
76941W        W19957   9.290  24.552   4.202 -0.2037 -0.2437 -0.2477
76942W        W19958  16.969   5.593  29.080 -0.0360  0.0796 -0.0512
76943W        W19959  10.954  18.403  20.975  0.0514 -0.1970 -0.2168
76944W        W19960  13.374  10.184  21.209  0.1765 -0.0885  0.0682
76945W        W19961  11.134  29.393  27.152  0.1299 -0.0093  0.4845
76946W        W19962   5.608  28.696   2.779 -0.2941 -0.2328  0.0962
76947W        W19963   1.920  30.723  23.789  0.2462 -0.3048  0.3722
76948W        W19964  32.745   9.756   0.972  0.1540 -0.5063  0.4748
76949W        W19965  14.844   2.315   0.696 -0.0497  0.2867 -0.1467
76950W        W19966   9.957  16.155  26.773  0.1141  0.2863 -0.0474
76951W        W19967  17.401   0.621  15.852 -0.1587  0.0020  0.1239
76952W        W19968   7.335  14.270   7.611  0.2348  0.3130  0.1093
76953W        W19969   1.102  10.388  15.615  0.0560  0.0370  0.0135
76954W        W19970   1.400  19.145  16.262 -0.2827  0.1813  0.3354
76955W        W19971   2.869  19.036   9.334  0.2041  0.0965 -0.1497
76956W        W19972  11.376  29.254  24.182 -0.0512  0.1885  0.3696
76957W        W19973   5.198   3.780   2.901 -0.1676 -0.0810 -0.0301
76958W        W19974  31.862   0.504  28.089 -0.0301  0.0174 -0.0523
76959W        W19975  15.459  25.833  15.694  0.1160 -0.0612 -0.0065
76960W        W19976   4.013  12.692  26.075 -0.0629 -0.0341  0.3165
76961W        W19977  33.657  19.859   2.590  0.1434 -0.2119  0.0950
76962W        W19978  34.133  15.618  27.677  0.0153  0.2254 -0.1080
76963W        W19979   7.845   7.439   4.431 -0.1132  0.2920  0.0045
76964W        W19980   9.113  18.126  28.822  0.0152  0.0944 -0.4299
76965W        W19981   7.935   4.174  18.113 -0.0253  0.0308  0.3446
76966W        W19982   6.933   0.775   3.142  0.3022 -0.0390  0.0546
76967W        W19983   8.925   8.438   2.830  0.1056  0.1900  0.1595
76968W        W19984   9.459   4.951  27.616  0.0100  0.1194 -0.2017
76969W        W19985  28.092  28.785  10.255 -0.1989  0.0981  0.1263
76970W        W19986  23.978   0.165   0.767  0.0751  0.1133 -0.2005
76971W        W19987   9.314   4.181  21.579 -0.0810  0.1672 -0.2828
76972W        W19988  20.719   3.185  29.051  0.1268 -0.1078 -0.2765
76973W        W19989  11.969   2.353  26.951 -0.0796  0.0764  0.1322
76974W        W19990  12.804  34.292  27.873 -0.1092  0.3222  0.1067
76975W        W19991  16.495  25.238  20.391  0.4238  0.1811  0.2644
76976W        W19992   5.406  27.225  19.933 -0.1557 -0.1875  0.0174
76977W        W19993  12.540  10.391  21.958  0.2342 -0.2573  0.0160
76978W        W19994   7.185  18.002  27.443 -0.1206  0.1928 -0.0023
76979W        W19995   9.599  27.633  23.743  0.1450 -0.1608  0.0463
76980W        W19996  19.403  22.343   6.823  0.0925 -0.3042  0.0574
76981W        W19997  10.433   6.208  19.183  0.1145 -0.1885 -0.2156
76982W        W19998  15.511  31.224  24.377  0.0179 -0.0072 -0.1070
76983W        W19999  12.343  11.454  22.675  0.0712 -0.0944 -0.4187
76984W        W20000   4.390  33.662  26.378  0.1293  0.1316 -0.1119
76985W        W20001  21.703  19.515  19.799  0.0262  0.4845  0.1453
76986W        W20002   5.558  28.173  28.590  0.1267 -0.1540  0.2011
76987W        W20003   0.146  10.412  15.546 -0.0008  0.0216 -0.1396
76988W        W20004  20.113  27.921   9.041 -0.0172 -0.1756  0.1112
76989W        W20005  32.807  30.556   9.979  0.0441 -0.6198  0.0304
76990W        W20006   5.343   1.148  25.187  0.0523 -0.0307  0.1862
76991W        W20007  13.509  14.281   4.238  0.0800  0.1298  0.1110
76992W        W20008  10.376  28.637  15.346 -0.1099 -0.0626 -0.0459
76993W        W20009   3.211  11.322   3.019 -0.2699  0.1182 -0.1488
76994W        W20010   3.680  11.847   2.390  0.0842  0.0154 -0.0116
76995W        W20011  18.155  29.505   9.851  0.2632  0.0056 -0.0461
76996W        W20012  12.958  12.233  24.760 -0.0420 -0.1682  0.2590
76997W        W20013  15.614  20.759   2.636  0.2137 -0.0307 -0.1615
76998W        W20014  15.772   8.836  16.552 -0.0754 -0.2848  0.1124
76999W        W20015  34.756  32.032  19.511 -0.4182  0.0537 -0.1255
77000W        W20016  24.769  23.234  20.714  0.0998 -0.2105  0.0903
77001W        W20017   4.101  33.201  13.698  0.2553  0.0397  0.0860
77002W        W20018  20.614   0.597   5.667 -0.2598  0.2200  0.0245
77003W        W20019  11.614  32.333  21.531  0.1379  0.1718  0.1284
77004W        W20020   6.199   0.433   9.888  0.1021 -0.0173  0.0578
77005W        W20021  34.167  31.979  11.074 -0.1814  0.0556 -0.2039
77006W        W20022  24.810  29.001  26.829 -0.1966 -0.3321 -0.0848
77007W        W20023  12.956   0.997  28.961 -0.0798 -0.1556  0.0101
77008W        W20024  11.492  29.150   2.003 -0.1101 -0.1900 -0.1160
77009W        W20025  24.693  30.608  19.958  0.3209 -0.1974  0.1993
77010W        W20026  20.070   7.303   8.178 -0.2005  0.0711  0.0444
77011W        W20027  11.324  29.938  10.045 -0.0299  0.2077 -0.3332
77012W        W20028  20.109  26.908   5.442  0.1840  0.1066 -0.1082
77013W        W20029  20.071   4.654  26.221  0.0496 -0.0157 -0.0411
77014W        W20030  28.597  32.205   8.484 -0.0644 -0.0907  0.0282
77015W        W20031   2.620  29.321   5.490 -0.1632  0.2563 -0.1424
77016W        W20032  11.381  24.291  16.214 -0.2190  0.0602  0.0244
77017W        W20033   2.142   0.162   0.045 -0.0438 -0.2817  0.2992
77018W        W20034   5.255   9.293  10.286  0.1085 -0.0768  0.0945
77019W        W20035  15.078   7.954  25.237  0.0665  0.0865 -0.3479
77020W        W20036  25.374  30.442   3.869  0.0401  0.1006 -0.2480
77021W        W20037  24.700  13.007  27.643 -0.0009  0.1826 -0.1337
77022W        W20038  34.456  30.736   1.795 -0.0209 -0.3280  0.1796
77023W        W20039  34.594  25.564  25.334 -0.3290 -0.1335  0.3180
77024W        W20040  11.804   5.542  23.461 -0.0639  0.0337  0.1223
77025W        W20041  19.995   3.184   4.764 -0.1412 -0.2126  0.1273
77026W        W20042   2.820  28.929   5.768  0.2479  0.1202 -0.2639
77027W        W20043  10.598   8.636   6.919  0.0255  0.1855  0.1333
77028W        W20044  13.109   1.072   3.841 -0.0037  0.0118  0.0137
77029W        W20045  24.107  28.366  17.809  0.1487 -0.3118 -0.0876
77030W        W20046   2.796   5.551  28.494 -0.0953 -0.0920  0.3014
77031W        W20047  34.350  29.730   8.359 -0.0684 -0.0113  0.1388
77032W        W20048  31.982  29.153  17.459 -0.1552  0.0667  0.1721
77033W        W20049  33.173  31.007  10.313 -0.0599  0.0839  0.2099
77034W        W20050  21.178   2.880  28.758 -0.1272 -0.1632 -0.0116
77035W        W20051  30.226   9.675  19.301 -0.0194 -0.2258 -0.1269
77036W        W20052  14.172  33.057   0.817 -0.2269  0.0073 -0.0709
77037W        W20053  18.540   6.043   8.074  0.0048 -0.1712 -0.0476
77038W        W20054   9.928   9.062  27.039 -0.5056 -0.0248 -0.0515
77039W        W20055   5.525   6.545  27.632  0.1602 -0.1428 -0.0708
77040W        W20056  34.203  34.396  25.376  0.4835 -0.1134 -0.0277
77041W        W20057  14.356  16.789   6.670  0.1925 -0.1698  0.2474
77042W        W20058  14.272  18.191   2.059  0.1512  0.0688  0.2122
77043W        W20059   7.397  12.378   1.156 -0.0300 -0.0004  0.1245
77044W        W20060  29.786  34.166  10.847  0.3589 -0.0634 -0.1131
77045W        W20061  17.840  15.834   7.927 -0.4355  0.3500  0.1898
77046W        W20062  18.981  22.467   7.497 -0.1368  0.4334  0.0094
77047W        W20063   7.784   1.846   0.873 -0.3058 -0.2357  0.1401
77048W        W20064  21.657  15.532   6.075 -0.1873 -0.0954 -0.1215
77049W        W20065   4.224   6.747   9.276  0.1132  0.0517 -0.2004
77050W        W20066   5.054   4.663  29.151 -0.0153  0.1531 -0.0351
77051W        W20067  15.468   2.798  24.801  0.1158  0.1206 -0.1105
77052W        W20068  29.214  27.313   3.758  0.3061 -0.1192 -0.2431
77053W        W20069  16.541   0.316  14.461  0.0454 -0.2177  0.3457
77054W        W20070   8.045  21.538  28.580 -0.1101  0.0293 -0.1979
77055W        W20071  20.250   0.838  28.287  0.0346  0.4334  0.0293
77056W        W20072   1.366  29.174   3.380 -0.1119  0.1050  0.2136
77057W        W20073   9.172  27.211   0.490  0.1436 -0.1228  0.0748
77058W        W20074  34.303  28.337  21.704 -0.1605 -0.2168 -0.1828
77059W        W20075  27.964  30.638   7.476  0.0639  0.0071  0.1859
77060W        W20076   9.393  18.537  28.193  0.0262  0.3128  0.1503
77061W        W20077  30.993  16.795  14.727 -0.0671 -0.2212  0.0777
77062W        W20078   8.801   8.214   9.458  0.0421 -0.0759  0.0686
77063W        W20079   2.838  31.908  22.670 -0.0639  0.2770 -0.0310
77064W        W20080  11.136  11.439   7.802  0.2673 -0.1395  0.2431
77065W        W20081  14.173   0.939   3.676 -0.0554 -0.2781 -0.0630
77066W        W20082  15.577  30.869   1.502  0.1523  0.2093  0.2589
77067W        W20083  33.989  11.734   8.636  0.1356  0.1071  0.0441
77068W        W20084   4.166  33.384  23.015 -0.1075 -0.1022 -0.3846
77069W        W20085   5.882  32.374   5.259 -0.1161  0.0152 -0.1539
77070W        W20086  30.961   5.451  23.075 -0.1136 -0.0172 -0.2470
77071W        W20087  30.924  22.624  28.362 -0.1249  0.0749  0.0872
77072W        W20088   8.282   5.240   9.105  0.1508 -0.1214  0.1022
77073W        W20089  20.184   0.403  24.411 -0.3591  0.0053 -0.2177
77074W        W20090   6.730  26.164  20.603 -0.0958  0.1373  0.0014
77075W        W20091  12.331  26.489   4.914  0.0573 -0.1053  0.1462
77076W        W20092  13.880  22.616   0.214  0.1172  0.0778 -0.0140
77077W        W20093  20.639  30.033  28.316 -0.3613  0.1199 -0.0125
77078W        W20094   8.750   5.326  23.703 -0.2113  0.1969  0.0071
77079W        W20095   9.133  12.046   0.877 -0.1935 -0.0536  0.3317
77080W        W20096  15.351  29.494  27.736 -0.2003 -0.1917  0.3967
77081W        W20097   9.188   9.923  10.245  0.1318 -0.2032 -0.3049
77082W        W20098   3.526  11.699   9.978  0.1458  0.1425  0.1022
77083W        W20099  12.180  13.858   6.465 -0.0290 -0.2630  0.0783
77084W        W20100  14.647  11.806  17.047  0.3247  0.1571  0.1924
77085W        W20101   8.461  33.222   7.265  0.0538  0.0317  0.3573
77086W        W20102  15.697   2.433   9.216 -0.1419  0.2165 -0.0010
77087W        W20103  12.608  28.599  27.182  0.3350 -0.1885 -0.1191
77088W        W20104   5.920   8.802   0.834  0.1607  0.0846 -0.3224
77089W        W20105  32.073   3.852  25.564 -0.1120  0.3660 -0.1061
77090W        W20106   9.116   1.105  18.427  0.3426 -0.0559  0.1519
77091W        W20107  10.893   4.166   8.394 -0.4241  0.0146  0.0240
77092W        W20108   0.256   5.635  27.022  0.1699 -0.0173  0.3348
77093W        W20109  11.344   0.801   8.568  0.3457  0.0887  0.0420
77094W        W20110   8.812  26.522  29.194  0.1293  0.1789  0.0640
77095W        W20111   3.176  33.006   6.347 -0.0009  0.0816 -0.0257
77096W        W20112   7.502  17.277   8.249 -0.3103 -0.2294 -0.0012
77097W        W20113  33.392   1.574  28.702  0.0435 -0.2553  0.0383
77098W        W20114  18.598   7.539   8.063 -0.0099 -0.1631  0.1017
77099W        W20115  28.251  17.337   3.033  0.2808  0.2321 -0.2581
77100W        W20116   3.904  13.334   9.643  0.0463  0.0888 -0.0004
77101W        W20117   1.200  26.976   8.398 -0.0922  0.2346  0.0605
77102W        W20118  11.213  27.206  18.997  0.1583  0.1391  0.2677
77103W        W20119  29.968  30.137   5.639  0.1453 -0.0755 -0.1601
77104W        W20120  19.530  29.430   5.790 -0.0938 -0.0450 -0.0797
77105W        W20121   6.722  29.760   4.660  0.1912  0.0784  0.1791
77106W        W20122   6.800   8.638   4.815 -0.5391 -0.0350  0.2636
77107W        W20123  27.244   9.219   7.053  0.3790  0.1912 -0.1481
77108W        W20124  33.951  34.370  19.335  0.3589  0.2136  0.2822
77109W        W20125  21.796  17.921   2.710  0.0079 -0.3820  0.2210
77110W        W20126  31.515  27.102  27.138 -0.2363  0.2476 -0.0436
77111W        W20127  30.187  21.200   4.580  0.0915 -0.0500 -0.0241
77112W        W20128  11.253  29.782  19.322  0.0292 -0.5127  0.1601
77113W        W20129  20.928  21.227   7.860  0.0268 -0.0863  0.1247
77114W        W20130  10.673   8.070   7.548 -0.2724 -0.1959  0.3010
77115W        W20131  30.334  21.497   5.341 -0.0593  0.0083  0.3713
77116W        W20132  17.285   5.972   4.341 -0.4562  0.1139 -0.1944
77117W        W20133   7.153   8.556  27.986 -0.2627 -0.1366  0.1891
77118W        W20134   2.629   0.738   4.877 -0.2078 -0.0360  0.0287
77119W        W20135   5.049  26.988   5.206 -0.4091  0.1575 -0.0291
77120W        W20136   6.716   2.726  16.345  0.1766  0.1992 -0.1327
77121W        W20137  12.800  13.869  28.102 -0.2740  0.2392 -0.0539
77122W        W20138  33.014   9.033   4.341  0.1006 -0.1138  0.0545
77123W        W20139   1.792  29.569   4.954  0.0220  0.1859  0.2270
77124W        W20140  12.283   3.225   6.240  0.0457  0.2355 -0.1657
77125W        W20141  13.225  25.357  26.894 -0.0341  0.0748 -0.3335
77126W        W20142  34.097   2.434   1.058  0.0736 -0.3031 -0.2553
77127W        W20143   5.999  34.564   7.337 -0.2179 -0.0759  0.0265
77128W        W20144   7.657  10.498  24.842 -0.1195  0.0465 -0.0573
77129W        W20145  20.479   7.507   8.503  0.2931 -0.6264  0.2413
77130W        W20146   3.697   1.568  25.936 -0.2647 -0.0252  0.1162
77131W        W20147  18.455  11.808  23.272 -0.2061  0.2784  0.0587
77132W        W20148  16.125  31.930  20.603 -0.0114 -0.2422 -0.1253
77133W        W20149   6.254  16.770  28.484  0.3565 -0.1595  0.0643
77134W        W20150  32.780   7.445  16.857 -0.2067  0.1701  0.1423
77135W        W20151  31.749  17.428   7.561  0.1558 -0.2819 -0.0440
77136W        W20152   9.096  27.424   6.315 -0.1689 -0.0623 -0.0213
77137W        W20153  15.478   9.856   5.206 -0.0344 -0.0634 -0.0106
77138W        W20154  19.328  15.231  27.738 -0.2949 -0.1023  0.2742
77139W        W20155  15.035  21.933  23.988  0.0452 -0.1403  0.0581
77140W        W20156   2.768  11.513   0.295 -0.2444  0.1798  0.2171
77141W        W20157   7.444  10.589  25.595  0.2627 -0.0454  0.1773
77142W        W20158   6.052  33.900   5.931 -0.1602  0.1604 -0.2436
77143W        W20159  23.502   8.108   7.182 -0.3972  0.0001  0.1582
77144W        W20160  16.480   7.498  28.657 -0.2863 -0.5852 -0.0385
77145W        W20161  31.592   5.855  10.313  0.1724 -0.1992  0.0602
77146W        W20162  16.501  12.358   8.387  0.0149 -0.0733 -0.1095
77147W        W20163  34.594  34.276  20.419  0.0717 -0.1898 -0.1762
77148W        W20164   6.506   8.233   6.863 -0.1183 -0.0448 -0.0096
77149W        W20165  15.984   0.981  26.906  0.1139  0.3933 -0.1666
77150W        W20166  11.829  11.107   5.933  0.1490 -0.2058 -0.0505
77151W        W20167  24.053   9.399  23.264 -0.0409  0.0242  0.0355
77152W        W20168  11.964  31.139  20.104  0.0940  0.2252 -0.0674
77153W        W20169   2.562   0.306   6.932  0.3362  0.0257 -0.3349
77154W        W20170   4.993   0.486   0.990 -0.1009 -0.1017  0.0432
77155W        W20171  11.085   8.731  21.173 -0.1350  0.1199 -0.3861
77156W        W20172  34.635  26.794   4.185  0.2484  0.0808  0.2059
77157W        W20173  10.240  34.257  26.043  0.2148 -0.0078  0.1042
77158W        W20174   7.655   0.257   7.296 -0.3116  0.1261  0.0830
77159W        W20175   5.355   0.020   0.873 -0.0170  0.1633  0.3033
77160W        W20176  34.306  25.323  21.977  0.1357 -0.0037 -0.0199
77161W        W20177  12.332   9.021  26.302  0.2075  0.1751 -0.0100
77162W        W20178   3.953  11.527   3.204  0.1256 -0.1570 -0.1907
77163W        W20179   1.263  33.475   0.289  0.2448 -0.0086  0.0982
77164W        W20180  16.221  14.336  22.404  0.1637 -0.0478  0.0156
77165W        W20181   0.359  30.623   5.594 -0.2307  0.1537  0.0912
77166W        W20182  18.483  11.503   4.138 -0.1405 -0.2479 -0.3454
77167W        W20183   8.854   2.248  24.976 -0.1032  0.1401  0.0133
77168W        W20184  22.625   0.818  25.862 -0.0555 -0.0452 -0.1151
77169W        W20185  30.280   0.028   5.656  0.1320  0.3414 -0.0522
77170W        W20186  11.493  28.697  26.305  0.1614  0.1433 -0.2826
77171W        W20187   7.476  21.714   1.970 -0.0099 -0.1439  0.3215
77172W        W20188  31.211   1.446  26.296  0.1128  0.2933 -0.1133
77173W        W20189  22.546   5.644   1.322 -0.0190 -0.0617  0.1795
77174W        W20190   2.316  11.641  21.109 -0.0700  0.1950 -0.0289
77175W        W20191  17.399  28.267   8.748  0.0744 -0.1165 -0.0009
77176W        W20192   4.181   2.692   2.019  0.2069  0.2913 -0.1130
77177W        W20193  10.826   5.940   7.375  0.0013 -0.2318 -0.0001
77178W        W20194   7.930   4.997   5.162  0.2970  0.0140 -0.1118
77179W        W20195  12.138  25.340   3.261  0.2619  0.2381  0.0999
77180W        W20196   9.903  20.522   8.492 -0.0772  0.0952 -0.1930
77181W        W20197  28.421  10.128   3.814  0.1727 -0.1933  0.2940
77182W        W20198   8.873   3.323   0.177 -0.1207 -0.0819  0.2339
77183W        W20199   9.000  30.345   1.997 -0.0608  0.1038 -0.0039
77184W        W20200  19.853  14.927   4.929  0.0645  0.0548  0.4054
77185W        W20201  31.953  12.392  19.279  0.1143  0.0267  0.4022
77186W        W20202   2.804  32.496   9.993  0.1206  0.1320 -0.2262
77187W        W20203  18.474  33.735  21.496 -0.1504  0.2245 -0.0896
77188W        W20204   6.442   5.235  25.579  0.0311  0.1460 -0.3050
77189W        W20205  13.882   1.327   2.799 -0.3461  0.0264  0.1840
77190W        W20206   2.311   9.671   3.848  0.0721 -0.0266  0.1270
77191W        W20207  13.917  22.085  20.815  0.4146  0.0266  0.4404
77192W        W20208  16.217  11.597  25.964 -0.1693 -0.0116 -0.1532
77193W        W20209  21.904  19.916   9.934 -0.0884 -0.0233  0.0925
77194W        W20210  13.761  27.046   2.605 -0.1758 -0.2910 -0.0500
77195W        W20211  13.079  33.898   4.560  0.3892 -0.0688 -0.1144
77196W        W20212   0.532   5.704   5.890 -0.0919 -0.3080 -0.2047
77197W        W20213  18.873  21.194   2.332  0.0713 -0.1657  0.2351
77198W        W20214  14.961  31.712   6.004  0.3083  0.0588  0.0822
77199W        W20215  30.237  15.466   4.643 -0.0663  0.3091  0.0046
77200W        W20216   5.897  23.898  26.005 -0.0572  0.3812  0.1303
77201W        W20217  18.144  13.071  25.051 -0.0053  0.1157 -0.1513
77202W        W20218  33.342   4.931   4.657  0.0426 -0.1179 -0.1751
77203W        W20219  12.686   3.748  17.674  0.1976 -0.1009  0.2709
77204W        W20220   9.633  12.590   5.069  0.0105  0.0929 -0.0018
77205W        W20221  25.423   6.419   9.617 -0.1520  0.0540  0.1288
77206W        W20222   3.240  10.267  17.923 -0.2912 -0.0928 -0.1151
77207W        W20223  32.989  13.223  28.160  0.3525  0.0852 -0.0584
77208W        W20224  12.030  29.342  24.629 -0.2724 -0.1715 -0.2494
77209W        W20225  27.104  33.833  11.149 -0.0030  0.1675 -0.1443
77210W        W20226   9.825  32.578   8.633 -0.2769  0.1859 -0.0183
77211W        W20227  34.320   7.984  10.034 -0.2472  0.0196  0.2324
77212W        W20228  21.092  17.561   9.070  0.1040 -0.1799  0.1913
77213W        W20229  28.348  18.706   6.713  0.0863  0.2419 -0.0313
77214W        W20230  19.457  23.674   9.891  0.1114  0.1350  0.0401
77215W        W20231  26.982  32.168  27.451  0.1395 -0.1735  0.1918
77216W        W20232   4.102  28.963   1.980 -0.1509  0.1991  0.2275
77217W        W20233  18.285  33.454   6.795  0.0524  0.2920  0.2413
77218W        W20234   0.426   7.939   8.003 -0.0345 -0.0844 -0.0156
77219W        W20235  26.685   1.015   9.520 -0.1499 -0.3293 -0.0207
77220W        W20236   2.726  17.966   9.070  0.0798  0.0233  0.0116
77221W        W20237   0.292  32.762   1.126  0.0679  0.0852  0.0680
77222W        W20238   5.318   5.101   5.689  0.0801  0.0997 -0.1544
77223W        W20239   0.531  32.245   4.972 -0.1886 -0.0079  0.2751
77224W        W20240  17.218  21.556  26.439  0.1733 -0.2627  0.2030
77225W        W20241  20.315   5.566   0.386  0.3116  0.0460 -0.1608
77226W        W20242  32.075  26.774   7.287  0.1870  0.0090 -0.2651
77227W        W20243  10.374  24.004   7.098 -0.1661 -0.1089  0.0088
77228W        W20244   2.981   3.900   4.338 -0.1103 -0.1206  0.1357
77229W        W20245  15.088  18.497   7.541 -0.0171 -0.2727 -0.0797
77230W        W20246   5.074  33.955  28.530  0.0579  0.0677  0.3131
77231W        W20247  31.219   5.761  20.475  0.1479 -0.1842  0.0902
77232W        W20248  29.608   0.246   5.041  0.0800 -0.0881  0.0549
77233W        W20249  23.415  18.720   5.877  0.1361  0.2658  0.0804
77234W        W20250   9.008  29.499   3.043 -0.3279 -0.1985 -0.0290
77235W        W20251   5.443  31.759  27.713 -0.0255 -0.3881 -0.1092
77236W        W20252  29.277   6.393   9.262 -0.0800 -0.1178 -0.3187
77237W        W20253   9.685  27.215  22.966  0.3499  0.2403 -0.0072
77238W        W20254  27.264  26.002  16.808 -0.1006  0.3647  0.0467
77239W        W20255  16.067  34.220   6.340  0.1362 -0.3720 -0.1954
77240W        W20256   9.786  31.931   9.401  0.4290 -0.1423 -0.0416
77241W        W20257   3.019  29.106  25.998 -0.3086  0.3950 -0.0984
77242W        W20258   7.053  33.182   3.792 -0.2470  0.2140  0.3241
77243W        W20259  16.989  17.503   0.677  0.1583 -0.0818 -0.0929
77244W        W20260   6.951  32.931   8.921 -0.1077  0.1001  0.0449
77245W        W20261  15.501  13.870   0.026 -0.0343 -0.0157  0.4039
77246W        W20262  12.025  17.867   8.523  0.0509 -0.2007  0.0786
77247W        W20263   9.535  17.987  20.992  0.1396  0.1441 -0.0978
77248W        W20264  16.307  14.349   0.370  0.0315 -0.1133  0.4206
77249W        W20265   2.597  25.453  28.448 -0.0035 -0.0074 -0.2258
77250W        W20266   7.267  11.533  20.787  0.0047 -0.1705  0.1277
77251W        W20267  27.831   7.706   5.910  0.0712 -0.0247 -0.0678
77252W        W20268   2.702  25.439   8.368 -0.2145 -0.2839  0.0053
77253W        W20269   3.899   7.026   4.755  0.1757 -0.1005 -0.1392
77254W        W20270  15.127  26.716   1.058  0.0406  0.0732  0.0933
77255W        W20271  31.045  27.873  27.615 -0.0538  0.1905 -0.1350
77256W        W20272   7.013  17.932  16.791  0.3240 -0.0789 -0.2193
77257W        W20273  15.823  33.837   2.664 -0.1336  0.1480 -0.1735
77258W        W20274   8.763  22.098   0.779  0.0638  0.0643 -0.0571
77259W        W20275  19.149  31.485   5.960  0.1927  0.1657 -0.1673
77260W        W20276   9.805  32.246  28.332 -0.2428  0.1045 -0.0884
77261W        W20277  26.985  31.277   3.255 -0.1586  0.0547  0.0186
77262W        W20278   7.473  33.095  27.253 -0.0277 -0.0068 -0.2015
77263W        W20279   9.130  27.707   4.283  0.2471 -0.0033  0.1511
77264W        W20280  13.827  12.252  29.296 -0.0001 -0.3203  0.0362
77265W        W20281   3.671  30.873  29.267  0.0415  0.3787  0.2567
77266W        W20282  15.835  32.577   5.783 -0.0924 -0.1786  0.1242
77267W        W20283  10.571   4.428  22.695 -0.1135  0.1009 -0.0813
77268W        W20284  10.444   6.428   4.888  0.1930 -0.1771 -0.0961
77269W        W20285   4.415   7.966  28.303  0.0332  0.1821 -0.0292
77270W        W20286   3.880  10.386   2.992  0.0380 -0.1541 -0.2740
77271W        W20287  22.814   4.932   8.048 -0.1232  0.0466 -0.1759
77272W        W20288  14.886  11.606  25.822 -0.1851  0.0910  0.0782
77273W        W20289  25.086   0.265   0.016 -0.1402  0.0420 -0.0161
77274W        W20290   9.020  34.164   4.040  0.1799 -0.0184  0.1408
77275W        W20291  22.711  23.194  16.444 -0.2596  0.1031  0.2660
77276W        W20292   5.900   5.267   3.812  0.2226  0.1920 -0.2283
77277W        W20293  20.781  30.674  16.077  0.1423 -0.0542  0.1485
77278W        W20294   6.047   2.280   4.224  0.2365  0.0454  0.0597
77279W        W20295   3.599  34.343  26.620  0.0998 -0.0285 -0.0016
77280W        W20296  22.785   2.994  16.162  0.0905  0.1840  0.0932
77281W        W20297  30.332  27.368  28.914  0.0323  0.0313  0.0336
77282W        W20298  12.757   1.938  17.417 -0.0781  0.0503  0.4014
77283W        W20299  13.505  11.441   8.964 -0.0232 -0.0658 -0.4325
77284W        W20300   7.597   4.320   0.414 -0.1020 -0.1568 -0.1971
77285W        W20301   8.484  30.864   6.217  0.3679 -0.0428 -0.3256
77286W        W20302   8.029  31.797   0.883 -0.1127  0.0292 -0.0166
77287W        W20303   8.682   3.440   9.584 -0.0953 -0.1847  0.3097
77288W        W20304  16.249   0.107  25.729  0.0381  0.0963  0.1331
77289W        W20305  17.896  28.504   0.455  0.0637 -0.0052  0.0954
77290W        W20306   6.124  26.932   2.385 -0.3975  0.3836 -0.0703
77291W        W20307  34.337  34.220   4.002 -0.1208  0.0224 -0.2647
77292W        W20308  20.662   6.961   2.440  0.3360  0.0920  0.0287
77293W        W20309  29.133  32.059   6.305  0.0169 -0.0468  0.1776
77294W        W20310  12.810  14.318   4.007 -0.1575  0.1478  0.2559
77295W        W20311  14.559  30.643  10.228 -0.2272  0.1054 -0.1651
77296W        W20312  10.496   2.115  24.768 -0.1191  0.0097  0.0850
77297W        W20313   3.189  34.587   0.115  0.2751 -0.2151 -0.1706
77298W        W20314   5.229  30.369   8.757  0.1566 -0.3048  0.3084
77299W        W20315   6.611  34.695   9.093  0.1021 -0.3104  0.0254
77300W        W20316  25.880   7.312   3.102  0.3138  0.2801  0.1930
77301W        W20317  14.879   0.648   6.894 -0.2399 -0.0355 -0.0628
77302W        W20318  10.478   7.482   6.351  0.1691  0.0601  0.1373
77303W        W20319  24.611  16.751  20.813 -0.2240 -0.2073 -0.2514
77304W        W20320  25.594   1.117   7.730 -0.0570  0.1877  0.1438
77305W        W20321  10.570   3.868  24.852  0.0542 -0.2607  0.0581
77306W        W20322  11.233   7.849   7.806  0.0242  0.0701  0.1248
77307W        W20323  13.014   2.315   9.603 -0.0832  0.0691  0.1060
77308W        W20324  34.630   3.192   9.143 -0.0910  0.0169  0.1782
77309W        W20325  19.675   2.460   3.051  0.0646  0.1782 -0.0068
77310W        W20326   8.933  27.653   9.673  0.2671 -0.3192  0.0039
77311W        W20327  15.230  32.983   8.439 -0.0798 -0.0320  0.1761
77312W        W20328   7.764  10.687  21.472 -0.0232 -0.0964  0.1888
77313W        W20329   2.001  33.519  27.472  0.3008 -0.2212 -0.0694
77314W        W20330   2.263  34.222  25.981 -0.1579 -0.0646  0.0924
77315W        W20331  13.460   8.892  22.801 -0.2231 -0.3039 -0.1201
77316W        W20332   9.029   1.977  28.696  0.0927  0.0129  0.1198
77317W        W20333   2.781  19.120   5.501  0.5293  0.0546  0.0982
77318W        W20334   8.748   1.910   0.912 -0.1465 -0.0368 -0.4883
77319W        W20335  15.482  34.392   2.149  0.2779  0.1132  0.2923
77320W        W20336   4.970  27.899   2.401 -0.2309 -0.2025  0.2162
77321W        W20337   5.989  18.376   2.611 -0.3080 -0.3739 -0.0486
77322W        W20338  19.074   7.298   2.809 -0.0658  0.1245  0.0540
77323W        W20339  13.679  17.836   4.959 -0.1279 -0.0855 -0.0240
77324W        W20340   9.183  26.840   0.878 -0.0868  0.2577 -0.1328
77325W        W20341   5.351  29.472   9.527  0.0222 -0.2020  0.2060
77326W        W20342   3.793   3.447   6.945 -0.1407  0.6370 -0.1840
77327W        W20343   2.343  16.779  25.120  0.1020  0.0214  0.2547
77328W        W20344  18.744  14.157  19.865  0.0656  0.0929 -0.1071
77329W        W20345  22.714  20.335   1.548  0.1478 -0.2909 -0.0131
77330W        W20346  24.543   2.200   5.348 -0.0894 -0.1296  0.2635
77331W        W20347  12.425  33.726  11.070 -0.5869  0.3337 -0.0526
77332W        W20348   9.110  32.817   7.392  0.1112 -0.0555 -0.6229
77333W        W20349  30.080  11.145   2.474 -0.3759  0.1782  0.1716
77334W        W20350   1.963  16.065  16.516 -0.2114  0.0293 -0.2794
77335W        W20351  30.017  31.801  28.344  0.2790 -0.1378  0.0718
77336W        W20352  21.168  33.672  25.938  0.0920 -0.0416 -0.0540
77337W        W20353  32.637   7.841   1.226  0.1816 -0.1107 -0.0722
77338W        W20354  33.621  31.248  21.563 -0.3763 -0.2090  0.2873
77339W        W20355  12.113  30.616   4.051  0.0248  0.0437  0.1164
77340W        W20356   8.694   1.575   4.172 -0.0549  0.5432 -0.2895
77341W        W20357  18.922  18.205  25.843 -0.3290 -0.2825  0.0337
77342W        W20358   8.639   3.330  10.564 -0.2281  0.0190 -0.2190
77343W        W20359   8.635  12.037   1.215  0.0383 -0.1356 -0.0047
77344W        W20360  25.284  10.701   7.782  0.0492 -0.1031  0.0390
77345W        W20361  30.720  25.337   5.909  0.2438 -0.0664 -0.0691
77346W        W20362  11.067  15.245   3.400 -0.2662  0.3298 -0.0525
77347W        W20363   3.758  23.593   6.931 -0.2108 -0.0223 -0.1679
77348W        W20364  31.945  26.468  25.144  0.0104  0.1731 -0.0569
77349W        W20365   2.501   4.728  27.404  0.1475  0.2006  0.0071
77350W        W20366  17.945  22.726  24.042  0.0773  0.2386  0.3686
77351W        W20367  17.303  14.121  27.077  0.2298  0.3844  0.0238
77352W        W20368  21.723   1.871  25.862 -0.0835 -0.0026  0.1098
77353W        W20369   2.638   4.767  19.023  0.0679  0.0431 -0.1333
77354W        W20370  30.302  26.036  10.372 -0.1466  0.1940  0.0828
77355W        W20371  22.560  13.507   4.935  0.3887  0.2909  0.3566
77356W        W20372  11.207   5.038   3.743 -0.0010  0.0507 -0.0319
77357W        W20373   8.052  14.560   7.134  0.2621 -0.2375 -0.0801
77358W        W20374   6.385  24.291   3.229 -0.2349 -0.0976  0.1852
77359W        W20375  28.131  33.628  17.012  0.3191  0.3730  0.0680
77360W        W20376  30.921  17.098   1.215  0.3501  0.1657 -0.1688
77361W        W20377   7.552   7.178   2.538 -0.2251 -0.1366 -0.1830
77362W        W20378   4.974   2.493  20.488  0.1317  0.0808 -0.2269
77363W        W20379  15.225   0.897   7.660  0.0040  0.0310 -0.1865
77364W        W20380   0.298   3.650   3.450 -0.1385  0.0291  0.1887
77365W        W20381   5.190  21.926   7.023  0.3663  0.0655 -0.0995
77366W        W20382  28.313  29.537   9.336  0.3662  0.1189  0.0729
77367W        W20383  12.052   7.123   9.330 -0.3640 -0.1416 -0.0359
77368W        W20384   6.911  30.120   6.271 -0.4001 -0.0160  0.0273
77369W        W20385   7.016   2.315   9.786 -0.3217 -0.3882 -0.2819
77370W        W20386   3.105  27.361   2.306  0.1591 -0.0361 -0.3152
77371W        W20387   9.539  31.980   3.065 -0.3408 -0.1399 -0.0763
77372W        W20388  27.902   6.447   2.870 -0.1187  0.1129 -0.1917
77373W        W20389  24.929  29.045  21.293 -0.0537 -0.0651 -0.1138
77374W        W20390  15.841  23.207   3.008 -0.0332  0.1426  0.0732
77375W        W20391  18.599   0.626  22.210  0.0541 -0.0678 -0.2277
77376W        W20392   9.472  29.126  23.344 -0.1660 -0.2920  0.2465
77377W        W20393  11.462  22.768   5.715 -0.3207  0.2519 -0.1698
77378W        W20394  12.159  22.227  24.234 -0.1349 -0.2079 -0.2873
77379W        W20395  27.468  33.811   2.602 -0.1591  0.0647 -0.1345
77380W        W20396  12.934  29.790  18.254 -0.3379  0.0463  0.2681
77381W        W20397  16.567   7.734   2.809 -0.0554 -0.3530  0.1188
77382W        W20398   7.511  12.567  28.388  0.0205 -0.2428  0.0777
77383W        W20399   8.590  14.752   1.719  0.0872 -0.1451  0.2087
77384W        W20400  19.782   5.483   0.559  0.0755  0.1329 -0.3666
77385W        W20401  34.446   4.693   4.544  0.0025  0.2598  0.2838
77386W        W20402  15.059   3.403   9.710  0.3363 -0.0398 -0.1944
77387W        W20403  17.263   9.192   6.526  0.2762 -0.2172 -0.0445
77388W        W20404  19.234  25.367   8.881  0.2307  0.0650  0.1856
77389W        W20405  11.406  15.571  19.042 -0.3062 -0.1473  0.2158
77390W        W20406  21.396  19.430  16.616 -0.0944  0.2766 -0.2068
77391W        W20407  12.553  31.040   5.881 -0.0487  0.0877 -0.1075
77392W        W20408  12.938   4.856   4.714 -0.0016  0.0837 -0.2384
77393W        W20409  19.800  12.552  28.970  0.1268 -0.4366 -0.0839
77394W        W20410  34.739   9.366   4.663 -0.0573 -0.1699 -0.2725
77395W        W20411  11.656   0.208  27.175 -0.1670 -0.0430  0.1589
77396W        W20412  14.185   8.733   9.546  0.2187  0.1414  0.0458
77397W        W20413   3.041  25.559  23.641  0.0588  0.0642 -0.3259
77398W        W20414  30.418  12.612   3.992  0.3717  0.2443  0.2457
77399W        W20415  15.549  10.657  25.067 -0.0394 -0.2544 -0.2420
77400W        W20416   7.724   2.591   2.162  0.0820  0.1696  0.3464
77401W        W20417  28.785  23.672  26.911  0.4063  0.1637 -0.0610
77402W        W20418  16.227   8.010  26.718 -0.2453 -0.1858  0.1285
77403W        W20419   0.379  28.781  24.205  0.0754  0.0481 -0.2285
77404W        W20420   6.734   6.224  24.965  0.1895  0.2489 -0.2198
77405W        W20421  30.668  27.726   8.561 -0.0337  0.2002  0.1370
77406W        W20422   7.928  30.724  22.848  0.0119 -0.1193 -0.1591
77407W        W20423  17.132   4.940  10.190 -0.0784  0.0534 -0.0214
77408W        W20424  23.216   4.712   8.416  0.0651 -0.0375  0.1486
77409W        W20425   7.321   7.663  10.301  0.1559 -0.0820 -0.0739
77410W        W20426  12.253  13.920  24.689 -0.2321  0.3508 -0.1396
77411W        W20427   9.276   7.046  28.115  0.0912 -0.0601  0.0730
77412W        W20428   3.208   4.740   9.577  0.0736  0.1301  0.4702
77413W        W20429  33.609  30.865  26.624 -0.2123  0.1290 -0.0336
77414W        W20430  22.257   0.127  10.511 -0.2056 -0.0736 -0.0252
77415W        W20431  11.167  14.808   6.214 -0.2209  0.3611  0.1039
77416W        W20432  29.851  31.106  11.244  0.0412  0.2808 -0.3531
77417W        W20433  12.195  33.092   4.965  0.1232  0.0529  0.1343
77418W        W20434   0.718  32.727  10.408  0.0582  0.0052 -0.0958
77419W        W20435  31.837   7.364   7.302 -0.0291 -0.4594 -0.2451
77420W        W20436   6.632  11.009   3.763  0.2220  0.0038 -0.1442
77421W        W20437  12.276  10.915   7.556 -0.0244  0.0308 -0.1816
77422W        W20438   6.223  10.355   9.541 -0.0750  0.0394  0.1453
77423W        W20439  17.931  15.353  23.090 -0.0399  0.1955 -0.0780
77424W        W20440   8.732  27.331   9.325 -0.2352  0.0101  0.0553
77425W        W20441   0.065  30.413   7.234  0.0588 -0.1913 -0.1568
77426W        W20442   1.799  10.345  25.763  0.0894  0.1560  0.0421
77427W        W20443   5.790   3.165   4.547  0.2238  0.2987 -0.0898
77428W        W20444  29.242  11.306  15.318 -0.0414  0.2711 -0.1834
77429W        W20445  19.106  10.547  25.423 -0.1376 -0.2817 -0.1291
77430W        W20446   5.373   7.329   6.698  0.0355 -0.1237 -0.0441
77431W        W20447  30.501   2.599   8.043  0.1986  0.0122 -0.0302
77432W        W20448   3.601  12.896  14.561 -0.1464 -0.0053  0.3070
77433W        W20449  33.331   9.931  20.818 -0.2907 -0.2400 -0.0824
77434W        W20450   0.913   5.924  23.978  0.0697 -0.2029  0.1400
77435W        W20451  17.031   6.832   4.330  0.3850 -0.0311  0.1604
77436W        W20452  19.619  33.870   8.772 -0.0772  0.1118 -0.1887
77437W        W20453   5.005   7.432   8.332  0.0270 -0.1369 -0.1951
77438W        W20454  26.768   6.416   6.783 -0.0790  0.1254  0.1423
77439W        W20455   4.134  32.465   9.925  0.1011  0.2898 -0.0175
77440W        W20456  14.972   9.405   4.356 -0.1978 -0.2444  0.0374
77441W        W20457  20.397   1.516   1.076  0.5768  0.0781  0.1510
77442W        W20458  28.215  24.483  10.068 -0.1737 -0.1742 -0.2370
77443W        W20459  11.727  10.891  25.699 -0.1086 -0.1264 -0.3595
77444W        W20460  21.748  30.348  24.632 -0.0354  0.1215  0.0750
77445W        W20461  16.979  28.336   9.025 -0.0924 -0.2374  0.0129
77446W        W20462  16.794   3.127   6.118  0.3776  0.3696 -0.2467
77447W        W20463   8.574   8.988   5.047  0.0989  0.1095 -0.1813
77448W        W20464  34.616   8.750  20.043 -0.1815  0.2225 -0.2899
77449W        W20465  30.526  10.436  26.195  0.1169 -0.0091  0.2362
77450W        W20466  18.759   1.880   5.954  0.1110  0.0166  0.0015
77451W        W20467   8.591  28.073  23.709  0.3133  0.1517  0.0898
77452W        W20468  12.364  15.697   4.650 -0.0477 -0.0433 -0.0995
77453W        W20469  17.935  21.100  24.232 -0.3752 -0.1023  0.0251
77454W        W20470  18.853  29.569  23.238  0.3490  0.0679 -0.4028
77455W        W20471  31.940  30.824   8.783 -0.0926  0.0957 -0.0538
77456W        W20472   5.456  33.705  26.094  0.1580  0.0346  0.0298
77457W        W20473   8.886  11.979   2.812  0.0322  0.1551 -0.2244
77458W        W20474  24.577  17.887   5.932 -0.2813 -0.0895 -0.1349
77459W        W20475  14.133   6.797   0.747  0.2256 -0.2737 -0.0454
77460W        W20476   4.590   4.120   8.482  0.1031 -0.3492 -0.2402
77461W        W20477   8.530   0.019   9.513  0.2749  0.3594 -0.0273
77462W        W20478  29.424  21.682  22.337  0.5267 -0.0509  0.2333
77463W        W20479  30.248  33.002  21.973 -0.3756  0.2929  0.2845
77464W        W20480  13.841  10.093   5.703 -0.0029  0.1189 -0.1136
77465W        W20481  17.959  14.663   3.762 -0.0196 -0.1125  0.1045
77466W        W20482  14.602  18.264   7.666  0.1140 -0.1840  0.1285
77467W        W20483  11.643   1.365   0.004 -0.0828 -0.1688 -0.1533
77468W        W20484  34.592   0.049  28.894  0.1207  0.1099  0.1366
77469W        W20485  24.295  33.269   6.346 -0.0669  0.1613  0.2616
77470W        W20486   6.071  13.198  26.499 -0.0898 -0.0366  0.0952
77471W        W20487  16.008   4.001   0.907 -0.0970 -0.2630 -0.0518
77472W        W20488  33.140  29.743   8.351 -0.1644  0.0244 -0.0867
77473W        W20489   4.030   5.890   7.305  0.2778  0.0046 -0.2548
77474W        W20490  24.486  24.322  26.151 -0.0934  0.0595 -0.1029
77475W        W20491  22.017  32.894  25.319 -0.1868 -0.0139 -0.1806
77476W        W20492  10.712   9.548   5.538  0.0775 -0.0414  0.0750
77477W        W20493   9.435  29.880   3.741  0.4448 -0.0187 -0.0415
77478W        W20494   1.773  27.734  21.723  0.1455 -0.0479 -0.0601
77479W        W20495   6.211  23.770   6.653  0.3571 -0.0477  0.0206
77480W        W20496  17.795   9.288   3.315 -0.4271  0.1318 -0.2478
77481W        W20497  30.980  13.354  23.882 -0.2209  0.2153 -0.1958
77482W        W20498   7.525  12.922   1.216  0.2889 -0.2706  0.1466
77483W        W20499  21.032  30.517   6.886  0.1175 -0.1684  0.2268
77484W        W20500  28.298   9.599   7.645 -0.2374  0.0888 -0.0863
77485W        W20501  10.251  27.131  19.115  0.0803  0.1499  0.2005
77486W        W20502  34.498  11.596  25.514 -0.2066  0.0619  0.2787
77487W        W20503  29.424  32.944  11.172  0.0613  0.2109  0.1448
77488W        W20504  27.038  34.475   1.107 -0.3774 -0.1235 -0.1791
77489W        W20505  31.204   9.409  25.373 -0.1249 -0.0041  0.1200
77490W        W20506   5.475   0.490  16.106  0.0075  0.3578  0.3784
77491W        W20507  12.872  26.823  26.413 -0.1048 -0.1757  0.1699
77492W        W20508   2.309   8.400   7.124 -0.0333 -0.0878  0.0348
77493W        W20509  12.323  22.174  27.613 -0.1959  0.1705 -0.1180
77494W        W20510   2.475  16.345  25.439 -0.0109 -0.0856  0.3549
77495W        W20511  10.289  29.581  27.955 -0.1195  0.3340  0.1937
77496W        W20512  26.167   4.725  10.054 -0.0961 -0.0746  0.0552
77497W        W20513  27.550   1.593  27.895 -0.3213 -0.0050 -0.1181
77498W        W20514  18.703   5.513   7.037  0.0647  0.1461 -0.3513
77499W        W20515   6.175  17.948   2.550  0.0348 -0.1250  0.0078
77500W        W20516  28.737   7.335  26.473  0.0215 -0.3101 -0.3482
77501W        W20517   7.855  10.626  28.896  0.1547  0.0773  0.0458
77502W        W20518  13.113  28.304   6.428  0.0808 -0.0303  0.0547
77503W        W20519   4.655  28.602  29.133 -0.1339 -0.0891  0.2552
77504W        W20520   2.502  11.774  19.016  0.1503 -0.0159  0.1122
77505W        W20521  29.940  20.962   5.986 -0.0653  0.2640 -0.5048
77506W        W20522  14.935  10.194   8.326 -0.6252 -0.0975 -0.3456
77507W        W20523  28.761  10.160  20.526  0.0807  0.0259  0.0035
77508W        W20524   4.741  17.116   5.571 -0.4053 -0.3396  0.0424
77509W        W20525   5.240  20.944  16.920  0.3633 -0.1049 -0.0019
77510W        W20526  13.145  33.805   9.549 -0.1445 -0.1930  0.0841
77511W        W20527  20.855   5.631   2.119 -0.1927  0.0720 -0.3597
77512W        W20528  15.512  22.270   1.643 -0.0401  0.0795 -0.0129
77513W        W20529  33.351  26.413  10.046 -0.0371  0.1690  0.0208
77514W        W20530   5.553  11.648   6.369 -0.0041 -0.1892  0.0408
77515W        W20531  20.900  14.981  20.151  0.3737  0.4499  0.0703
77516W        W20532  30.300  32.444   2.410  0.0821  0.3981 -0.0027
77517W        W20533  13.352  14.201   2.339  0.2256  0.0998 -0.1261
77518W        W20534  14.311   1.433   2.408  0.0614  0.2827 -0.0685
77519W        W20535  29.118  33.496  10.414  0.0929  0.2442  0.0086
77520W        W20536   4.726  30.174  27.919  0.0361 -0.0795  0.1417
77521W        W20537  27.639   9.670  27.168 -0.3503 -0.2251  0.1782
77522W        W20538  12.167  11.143  17.791  0.2969  0.1489 -0.5086
77523W        W20539   7.489   7.399  17.717  0.3881 -0.0521 -0.1970
77524W        W20540  28.349  23.430   8.348 -0.1861 -0.0873 -0.0840
77525W        W20541  13.770  24.743  26.270  0.1431  0.1763 -0.3105
77526W        W20542  16.318   2.133  25.936 -0.0808 -0.1416 -0.0466
77527W        W20543   5.491   0.708  26.355  0.2136 -0.1985  0.1395
77528W        W20544   1.463  11.738   4.338 -0.0554  0.2519 -0.1569
77529W        W20545  14.434   6.541   0.420  0.0087 -0.4311  0.0541
77530W        W20546   3.335   3.697  26.166  0.1356  0.2365 -0.1282
77531W        W20547  32.649   6.975   7.677 -0.3107  0.1163  0.2242
77532W        W20548  16.848  32.624   9.415  0.0593  0.2033  0.2094
77533W        W20549  13.169   3.393  26.857  0.1049  0.1844  0.0987
77534W        W20550  32.408  30.226   1.960 -0.1588  0.3212  0.2073
77535W        W20551  13.674  28.877   3.103  0.0470  0.0834 -0.0196
77536W        W20552   0.593   1.200  26.657  0.1426 -0.3379 -0.2239
77537W        W20553  17.721   5.064   8.814 -0.0768 -0.1576 -0.2869
77538W        W20554   7.535  34.150   7.415 -0.2531  0.0057  0.3413
77539W        W20555  17.452  31.877   8.134  0.0316 -0.3069  0.1463
77540W        W20556  12.058  27.298  24.393 -0.0756  0.0184  0.0231
77541W        W20557  32.366  18.781   7.629  0.2157  0.3333  0.2173
77542W        W20558   1.724   2.822  17.918 -0.2112 -0.0827 -0.1595
77543W        W20559   5.545   3.881   9.183 -0.1217 -0.0034  0.0223
77544W        W20560   8.841  34.332  27.235 -0.0913  0.1840 -0.1619
77545W        W20561  10.087  16.823  23.044  0.1831 -0.1038  0.0062
77546W        W20562  29.400   4.735   4.661 -0.0450 -0.0755 -0.1806
77547W        W20563  33.835   1.243  28.900 -0.0128  0.0068 -0.0336
77548W        W20564  12.453  29.985   2.555 -0.2872  0.0272 -0.3069
77549W        W20565  15.375   1.792   4.582 -0.3312 -0.0798  0.0165
77550W        W20566  21.637  14.926   9.301 -0.0832 -0.0040  0.1764
77551W        W20567   5.059  34.723   1.769  0.1027  0.4367  0.2234
77552W        W20568   4.321  31.316   7.920 -0.3938 -0.0969 -0.0533
77553W        W20569   8.408  29.891   4.339 -0.2951  0.1288  0.1765
77554W        W20570  31.008  30.604  25.994  0.1334  0.1123  0.0368
77555W        W20571  29.671   1.526   1.486 -0.3344 -0.1075 -0.0769
77556W        W20572  15.132   3.166   9.259  0.0080 -0.0017 -0.1182
77557W        W20573  17.142  15.321  19.607 -0.0816 -0.1403 -0.0969
77558W        W20574  15.401  22.830   0.686 -0.2282 -0.0085  0.1020
77559W        W20575  22.657   0.051  23.905 -0.1404  0.1043 -0.0711
77560W        W20576   6.489  10.599   2.250 -0.0277  0.1727  0.1005
77561W        W20577  29.635   0.333   9.371 -0.0695  0.2668  0.1045
77562W        W20578  32.627  13.077  28.925  0.2028  0.0635 -0.3035
77563W        W20579   6.293   3.229   7.654  0.0339  0.2308  0.1261
77564W        W20580   6.412   6.336   8.936  0.0172  0.3043 -0.0161
77565W        W20581  18.344  15.418  24.761 -0.1986  0.1731 -0.0861
77566W        W20582  10.272  33.724  26.284  0.0658 -0.0842 -0.1332
77567W        W20583  33.433   3.704   0.014 -0.1737  0.1761  0.0829
77568W        W20584   6.268   6.157  25.016 -0.4219  0.3539  0.0219
77569W        W20585   4.141  16.524  28.329 -0.1253 -0.0097  0.2332
77570W        W20586  21.424  22.188   6.980 -0.1274  0.1175  0.2512
77571W        W20587   4.670  11.274   0.722  0.0048 -0.0118 -0.2683
77572W        W20588  32.337  16.190   6.599 -0.1539 -0.2506 -0.0793
77573W        W20589  15.966  28.539  28.719 -0.1706  0.2018 -0.0662
77574W        W20590  19.560  11.768   3.096  0.0578  0.1427 -0.0626
77575W        W20591  11.692   5.735   2.268 -0.1998 -0.1101  0.1429
77576W        W20592  27.767  16.604   5.336 -0.1634 -0.0689 -0.0076
77577W        W20593  30.629  32.801  10.089  0.0088 -0.0417 -0.3833
77578W        W20594  21.220  31.840  24.598  0.1866  0.1095 -0.1642
77579W        W20595  33.704  27.825   9.710  0.0508  0.3165  0.0975
77580W        W20596  13.843  33.530   6.872  0.0918  0.2702  0.0751
77581W        W20597  30.572  12.879   9.666  0.0694 -0.1420 -0.0650
77582W        W20598   5.333   4.763   6.936 -0.0121 -0.0844  0.1199
77583W        W20599   8.348   9.723   3.399 -0.0972  0.0356 -0.1556
77584W        W20600  13.381  16.693  15.564 -0.2466 -0.0836 -0.1570
77585W        W20601  11.676  33.377  23.776 -0.0063 -0.5205 -0.0735
77586W        W20602  26.787   0.609   0.564 -0.1412  0.0048 -0.0631
77587W        W20603  13.968   2.177   1.477  0.1471 -0.0666  0.0344
77588W        W20604  14.407   8.647   5.497  0.0876 -0.3528 -0.2754
77589W        W20605   6.170  19.704   4.547 -0.3015 -0.4695  0.0432
77590W        W20606  14.373   9.609   6.278 -0.2108 -0.2660  0.2658
77591W        W20607  13.438  34.575   7.467 -0.0314  0.0607 -0.3665
77592W        W20608  12.696  14.105  13.982  0.1917  0.2636 -0.0242
77593W        W20609  12.431  18.592   0.739  0.4293 -0.0049 -0.0966
77594W        W20610   1.770   3.685  15.456 -0.0973 -0.0269 -0.2441
77595W        W20611  30.985  28.422  10.998  0.0026  0.1885 -0.2460
77596W        W20612   7.951   8.632  29.302 -0.3163  0.0825  0.0511
77597W        W20613  34.449   4.138  29.021  0.0218 -0.0217  0.3150
77598W        W20614  17.738   2.928  28.517 -0.4088  0.2192 -0.2384
77599W        W20615  14.601  10.976   0.867 -0.0566 -0.1584 -0.0081
77600W        W20616   5.359  28.111   0.631  0.0288 -0.2581  0.1084
77601W        W20617  33.692  31.312  27.029 -0.0029  0.0613  0.1134
77602W        W20618   7.288   8.227   6.700 -0.2481  0.0050  0.1031
77603W        W20619  11.461   5.382   4.208  0.2543 -0.1343  0.2454
77604W        W20620   7.192  34.019  27.495  0.0809  0.3044 -0.0526
77605W        W20621  13.230  33.477   1.825 -0.1335 -0.1480  0.1406
77606W        W20622   4.760  30.310  20.255 -0.1911  0.0688 -0.1067
77607W        W20623   1.328  31.095   2.220  0.2996  0.0426 -0.2354
77608W        W20624   6.910  34.471  27.374  0.1639  0.1651 -0.1189
77609W        W20625  16.375  31.688   3.750 -0.0074 -0.0707  0.0009
77610W        W20626  10.052   9.265   6.068 -0.2467  0.3590 -0.0542
77611W        W20627   0.661  25.854   7.774  0.2779  0.1501  0.1199
77612W        W20628  20.014  17.789   7.905 -0.0644 -0.2937 -0.0566
77613W        W20629  14.142  32.675   1.917 -0.1420 -0.5345 -0.1255
77614W        W20630  31.805  11.470  22.579  0.0261 -0.0620  0.1218
77615W        W20631   5.524  33.654   4.880 -0.0780  0.0725  0.1887
77616W        W20632   2.815  20.100   1.546 -0.1244 -0.3740 -0.3481
77617W        W20633  31.650  25.963   8.638  0.2163  0.4797 -0.0805
77618W        W20634  17.965   2.161  21.570  0.0525 -0.0001  0.2346
77619W        W20635   4.128  34.546   8.291  0.2007 -0.2095 -0.2899
77620W        W20636  22.767   4.079   2.112  0.0742 -0.0053  0.0296
77621W        W20637   6.888  11.782   0.143  0.0329 -0.2329  0.3091
77622W        W20638  11.539  12.521   5.681 -0.1015  0.1956 -0.1942
77623W        W20639  30.852  21.213  27.147 -0.0826  0.2772 -0.2342
77624W        W20640   7.930   7.059   6.484 -0.2791 -0.3270 -0.1782
77625W        W20641  19.097  34.395   4.901 -0.0625  0.1237 -0.1501
77626W        W20642  29.991  18.401   1.927  0.3469 -0.1616 -0.2606
77627W        W20643  29.290  13.887   1.821 -0.0335 -0.3965  0.2366
77628W        W20644  30.330   7.690   9.405 -0.0921 -0.0144  0.3932
77629W        W20645  13.622  10.208   1.846  0.2241  0.0856 -0.3473
77630W        W20646  14.983  10.936  14.816  0.3046  0.1558 -0.0803
77631W        W20647   1.490  14.357   6.026  0.1003  0.1410  0.2969
77632W        W20648   1.725   5.608   2.384 -0.0574 -0.2028 -0.0087
77633W        W20649  18.046  25.777   7.136 -0.2309 -0.0332 -0.1802
77634W        W20650   7.613   0.064  26.965 -0.3916 -0.2499  0.1663
77635W        W20651   2.472  33.600  28.776  0.1279  0.0363 -0.0136
77636W        W20652   4.850  16.589   1.398 -0.0817  0.0570 -0.2629
77637W        W20653   4.127  10.509   9.574 -0.7090 -0.0101 -0.0758
77638W        W20654  20.883  14.381   7.339  0.1259 -0.0678 -0.3994
77639W        W20655   5.486  32.618  27.484  0.0653  0.0166  0.2754
77640W        W20656  24.543   2.792  20.250  0.0895 -0.1964  0.0275
77641W        W20657  32.467  22.179   6.419  0.1702  0.0518 -0.0179
77642W        W20658  28.099   5.951  25.005  0.1842  0.1422 -0.0178
77643W        W20659  12.433  20.278   5.728  0.4087 -0.1478  0.0248
77644W        W20660  17.130  18.961  25.529  0.0312  0.3235  0.4726
77645W        W20661  32.393   8.055   2.208  0.3133  0.1136  0.0375
77646W        W20662  13.891  10.199   7.536  0.0739 -0.0549 -0.3389
77647W        W20663   3.634   0.215   9.413  0.0263  0.0379 -0.2045
77648W        W20664  17.434  15.875  28.409  0.2522 -0.0348  0.2611
77649W        W20665   9.344   1.925   2.570  0.0452 -0.2409  0.0056
77650W        W20666  18.985  13.044  26.474 -0.2819  0.1631 -0.1988
77651W        W20667  32.115   8.822   7.726 -0.1406  0.0498 -0.1152
77652W        W20668  22.061  27.289  10.182  0.0291 -0.2192 -0.3441
77653W        W20669  24.916  31.084   8.473 -0.4026 -0.2208 -0.3255
77654W        W20670   8.130  32.444   7.199 -0.0518 -0.1482  0.1326
77655W        W20671   6.966   0.224   9.248 -0.0647  0.2288  0.2527
77656W        W20672  18.527  28.033   8.328  0.1505  0.0393  0.0990
77657W        W20673   9.767  19.125  28.621 -0.1066  0.0798 -0.3121
77658W        W20674   7.004  17.736  26.819 -0.0318 -0.1229 -0.0267
77659W        W20675   2.436   7.989   3.338 -0.0445  0.2435  0.2940
77660W        W20676   0.211  24.640  21.452  0.3134 -0.3874  0.2091
77661W        W20677  25.715   2.436   5.750  0.1153 -0.0289 -0.0726
77662W        W20678   9.683  32.235  24.879  0.1202 -0.1178 -0.1289
77663W        W20679   3.769   8.791  28.754 -0.2352  0.0977  0.3897
77664W        W20680   5.047  19.459  19.826  0.1337 -0.1525  0.0294
77665W        W20681  21.568  24.636   8.135  0.0107 -0.0576  0.0385
77666W        W20682   9.035  15.686  24.746 -0.0629 -0.2395  0.1627
77667W        W20683  30.159  32.634   1.441 -0.1528 -0.0610 -0.4494
77668W        W20684  23.287  33.972   3.513  0.0256  0.2094  0.1191
77669W        W20685   3.503  19.437  16.791 -0.1728 -0.0510  0.0411
77670W        W20686  14.401  20.127   5.654  0.1620 -0.0863 -0.0682
77671W        W20687   5.699   1.690   2.153  0.2330  0.2242 -0.0760
77672W        W20688  31.285  19.869   4.633 -0.0695  0.3553  0.0672
77673W        W20689  15.497  31.700   2.864  0.0282  0.3573  0.0889
77674W        W20690   5.443  29.791   8.497  0.3765  0.2560 -0.2074
77675W        W20691  11.477   2.316   5.011  0.1668 -0.3614 -0.0593
77676W        W20692  32.129  13.690   2.051 -0.0179  0.1488 -0.0484
77677W        W20693  19.720   5.678  10.156  0.0419  0.1312  0.7100
77678W        W20694  15.345  31.606   9.763  0.3026  0.0309 -0.4090
77679W        W20695  31.770   3.046   4.709  0.0840 -0.1896  0.1517
77680W        W20696   5.492   8.488   8.025 -0.0350 -0.3981 -0.0228
77681W        W20697  19.797  32.891   3.307  0.0907 -0.0284 -0.0988
77682W        W20698  12.120  29.264  27.291 -0.0094 -0.0425  0.1155
77683W        W20699  14.205  33.341   7.733 -0.1931  0.1013 -0.3206
77684W        W20700  10.077  14.176  22.625 -0.1029 -0.1853 -0.2487
77685W        W20701  21.243  30.564   8.479  0.1317  0.0040  0.0937
77686W        W20702   2.921  34.341  28.043 -0.2363  0.3135  0.1493
77687W        W20703   5.993  30.719   5.916 -0.3301 -0.1587 -0.0273
77688W        W20704  32.465   8.216   3.332 -0.0118  0.3711  0.1888
77689W        W20705  28.299  31.587  28.709 -0.0205  0.3717 -0.2120
77690W        W20706   5.724  16.009  21.957  0.1856 -0.2169  0.5935
77691W        W20707   5.610  29.359  24.968  0.0677  0.0987 -0.2692
77692W        W20708  16.419   7.377   2.479 -0.0720 -0.0527  0.4264
77693W        W20709  34.000   2.088  26.614  0.1287  0.0845 -0.0990
77694W        W20710   3.546  32.989   5.586 -0.0066 -0.1808 -0.1345
77695W        W20711   8.047   3.164   2.993 -0.0639 -0.2663  0.0712
77696W        W20712  26.497   4.277  10.139 -0.1191 -0.2023  0.2240
77697W        W20713  34.372  13.052  20.720 -0.0841 -0.0426  0.0631
77698W        W20714  12.482  33.173   9.015 -0.2330 -0.0114 -0.0085
77699W        W20715   6.098   9.126   7.632  0.2513  0.0344  0.1571
77700W        W20716   6.486   7.935   0.603  0.3172 -0.0637  0.1724
77701W        W20717   4.305   0.186  25.913 -0.0991  0.1008  0.2122
77702W        W20718  26.659  32.706   1.366  0.1038  0.3026 -0.0146
77703W        W20719   9.671  15.917   7.784  0.1729  0.3658 -0.1491
77704W        W20720   4.251  13.683  23.749  0.0091  0.1803 -0.1221
77705W        W20721  14.135  10.456   7.097  0.0853  0.0050 -0.0852
77706W        W20722  11.249  24.271  28.856  0.1356 -0.1315 -0.0475
77707W        W20723  30.221   3.448   5.795 -0.0287  0.0099 -0.0548
77708W        W20724   0.688  10.103  22.107 -0.1857 -0.0907  0.0048
77709W        W20725   8.017  34.072   7.406 -0.1241  0.0334  0.1964
77710W        W20726  30.192  32.503   9.890 -0.3284 -0.0572 -0.2438
77711W        W20727   1.433   0.800  26.689  0.1892  0.0841 -0.0366
77712W        W20728  34.588   1.321   9.566  0.0557 -0.1971  0.1459
77713W        W20729  17.315   2.338   4.464 -0.2517  0.2498 -0.5878
77714W        W20730   9.134   1.676   4.332  0.0360  0.2737  0.0967
77715W        W20731   3.929  32.885  10.004 -0.3364  0.3362  0.2940
77716W        W20732   3.991  33.456   1.621 -0.0618 -0.0244  0.0124
77717W        W20733   0.035  34.565  26.277  0.1911 -0.3314 -0.0310
77718W        W20734  33.391  29.871   8.796  0.2660 -0.1162  0.0136
77719W        W20735   8.171  31.948   9.439  0.1090 -0.0535 -0.0100
77720W        W20736  11.197   9.656   6.869  0.0941 -0.0114 -0.0326
77721W        W20737  14.126  34.391   5.978 -0.1136 -0.1301 -0.0464
77722W        W20738  12.914  26.288   1.734  0.1859  0.0980 -0.0491
77723W        W20739   3.360   3.700  29.279 -0.2640  0.1895 -0.0096
77724W        W20740  13.379   6.211  23.656 -0.2659 -0.1454  0.1211
77725W        W20741   2.789  20.100   6.237 -0.0772  0.2117  0.0103
77726W        W20742   1.716  32.346  10.021  0.1324  0.3048  0.1554
77727W        W20743  34.320  14.279   5.408  0.1080  0.1523 -0.0359
77728W        W20744   1.432   5.888   7.637 -0.0769 -0.0652 -0.3949
77729W        W20745  18.041  32.423   4.552 -0.0101 -0.1458 -0.1241
77730W        W20746  32.925   1.193   8.820  0.0596  0.0491  0.0273
77731W        W20747  26.809   7.338  24.421 -0.2889  0.0480  0.1183
77732W        W20748  14.486  16.228  29.282  0.0987  0.0466 -0.0987
77733W        W20749  34.523  16.355  24.219  0.2489  0.1070 -0.3105
77734W        W20750  34.299  18.311   6.313 -0.2753  0.0470 -0.3641
77735W        W20751   5.582   8.876   8.405 -0.0030 -0.2708 -0.2000
77736W        W20752   7.156  22.021  27.020  0.1620 -0.3424  0.1275
77737W        W20753  26.048   0.343   5.466  0.2431 -0.0910  0.1377
77738W        W20754   8.692   3.459   2.614  0.2736  0.0289  0.0603
77739W        W20755   9.108  25.503   4.657  0.0271 -0.1496 -0.1296
77740W        W20756  33.258  22.370   8.388 -0.2078 -0.0843 -0.4804
77741W        W20757  27.341   3.314   6.543 -0.1256  0.0631 -0.1671
77742W        W20758  24.733  12.136  18.652  0.0167  0.0902  0.1267
77743W        W20759   9.022  28.086   8.490 -0.1363 -0.1184 -0.1835
77744W        W20760  11.129  12.624  17.940  0.5670  0.2560 -0.1221
77745W        W20761   4.230  34.708   9.410 -0.0111 -0.0511  0.1473
77746W        W20762  14.036   7.301   7.557  0.2003 -0.4151 -0.1401
77747W        W20763  31.853   9.340  18.851 -0.1089  0.0902 -0.3170
77748W        W20764  10.499   1.102   8.618 -0.3892  0.0590  0.0335
77749W        W20765  18.072  31.292  25.016  0.0842 -0.0301  0.1401
77750W        W20766  29.987  10.509  10.342  0.0124 -0.0493  0.1752
77751W        W20767   9.797   2.101   9.800  0.0019  0.2691 -0.2930
77752W        W20768   8.757   5.602   5.471 -0.2997 -0.1050  0.0626
77753W        W20769  31.329  22.600  20.158  0.4078 -0.1644 -0.4428
77754W        W20770  32.527  15.236  17.863 -0.0183 -0.0518  0.1346
77755W        W20771   2.715   2.463   5.661  0.2796  0.2862 -0.1703
77756W        W20772  16.277  22.209  25.772  0.1488  0.1964  0.2017
77757W        W20773  30.026  33.895   6.685 -0.1705  0.2322  0.1362
77758W        W20774  18.615  17.606  23.746  0.1129  0.1003 -0.0541
77759W        W20775  34.698   2.920   6.177  0.6256 -0.1820 -0.1917
77760W        W20776   1.278   6.362  21.627  0.0966  0.0555 -0.0014
77761W        W20777   7.129  28.655   4.697 -0.1609 -0.0574 -0.0197
77762W        W20778  25.284  25.258   8.339  0.0845  0.3493  0.0739
77763W        W20779  34.468   9.158   3.193  0.0660 -0.2129 -0.0134
77764W        W20780  19.514  31.041  25.872  0.2152  0.2278  0.1291
77765W        W20781   9.531   0.814   9.611  0.0002 -0.3544 -0.1557
77766W        W20782   0.287  32.238   1.076 -0.1402  0.1466  0.0211
77767W        W20783  15.289   0.962   0.192  0.0861  0.0505 -0.1173
77768W        W20784  19.083   7.725   7.389  0.2078  0.0775  0.0789
77769W        W20785  26.104   4.832  11.525 -0.3782 -0.0024 -0.1149
77770W        W20786  12.020  14.349   3.318 -0.4093  0.0768  0.0348
77771W        W20787  21.490   0.165  11.204 -0.0719  0.3230  0.3263
77772W        W20788  26.642  15.161   2.007  0.1992 -0.0431  0.0452
77773W        W20789   5.915   8.071   9.153 -0.2533  0.1440 -0.1037
77774W        W20790  11.870  27.277   6.025  0.3358 -0.1223  0.0457
77775W        W20791  19.740   2.729   2.390  0.2092  0.0254  0.0661
77776W        W20792  24.015  23.098  28.511 -0.1701 -0.2660  0.1603
77777W        W20793  14.322   3.949   3.778 -0.0832 -0.1573  0.2534
77778W        W20794   3.804   3.905   2.894 -0.2216 -0.0583  0.0318
77779W        W20795  14.566  26.944  23.406  0.1392 -0.1244  0.1395
77780W        W20796  32.149   6.145  25.794  0.1358 -0.1101  0.1282
77781W        W20797  25.918  34.222  27.692  0.0354 -0.1216 -0.1076
77782W        W20798  16.684   8.589  17.562 -0.0370 -0.2299  0.0426
77783W        W20799  29.075   2.758  25.336  0.2620 -0.0020  0.1721
77784W        W20800   6.965   7.774   4.223  0.0016  0.0973 -0.1159
77785W        W20801  16.687   3.619  21.617 -0.0948 -0.2008 -0.1473
77786W        W20802  15.094   6.072  25.157  0.2258  0.1943  0.1604
77787W        W20803   6.545   3.769  22.943  0.1636 -0.1604 -0.5344
77788W        W20804  17.606  33.199   2.983 -0.1928  0.1112 -0.1962
77789W        W20805   0.785  31.066   7.309 -0.0516 -0.2172  0.2793
77790W        W20806  10.075  31.059   2.438  0.2440 -0.2311 -0.0339
77791W        W20807  18.186  33.502  28.823  0.0420  0.1119 -0.0108
77792W        W20808  34.485  34.208   0.769 -0.1054  0.0739 -0.2838
77793W        W20809   6.472   9.151  22.092 -0.0676 -0.2626  0.0173
77794W        W20810   7.496   0.159  15.090 -0.0836  0.1056 -0.0504
77795W        W20811   5.876  11.982  16.969  0.3639  0.2185  0.0127
77796W        W20812  16.301   2.504   0.283  0.2135  0.0208  0.2426
77797W        W20813  31.192  18.973   9.329  0.0658 -0.0005  0.1377
77798W        W20814  14.833   3.581   0.688  0.1074 -0.1893 -0.1548
77799W        W20815   7.490  30.037   8.608 -0.2693  0.0018  0.0207
77800W        W20816   5.994  18.254  29.225 -0.2919 -0.1295  0.2335
77801W        W20817  15.820   2.819   1.438 -0.1944 -0.2055  0.2228
77802W        W20818  27.919   9.367   7.718  0.3209 -0.2382 -0.1932
77803W        W20819   8.739  15.416   5.052  0.3331  0.0161 -0.2285
77804W        W20820  25.993   8.730   2.457 -0.0536  0.0090 -0.3154
77805W        W20821   2.639   8.266   8.002 -0.0347  0.0852  0.1811
77806W        W20822  15.525   8.189   7.158  0.1625  0.0235  0.1767
77807W        W20823   3.460   0.386   3.837 -0.2065 -0.0962  0.0983
77808W        W20824  17.298   1.547   5.920 -0.2017  0.0266  0.1643
77809W        W20825  17.764  34.063  19.847 -0.0867 -0.0731  0.1718
77810W        W20826  21.433   5.248   4.438 -0.1092 -0.2096  0.0821
77811W        W20827  11.747  16.462  19.403 -0.1582 -0.0026  0.0096
77812W        W20828  27.457  19.446  20.839  0.2885  0.0457 -0.0311
77813W        W20829  12.540  27.102  22.734 -0.1684 -0.0300  0.2485
77814W        W20830   7.221  29.578  28.282  0.0587  0.2362 -0.1649
77815W        W20831  32.129   0.230  28.419 -0.0654 -0.0154  0.1017
77816W        W20832   3.991   8.072  17.079 -0.0778  0.0645 -0.0331
77817W        W20833  23.540  16.189  27.859 -0.0163  0.1806  0.1323
77818W        W20834   6.987  32.083  21.497 -0.0119  0.1725  0.2130
77819W        W20835   7.497  22.539   7.587 -0.0343  0.0468 -0.0134
77820W        W20836  16.899  31.240  26.860 -0.1645  0.1608  0.0011
77821W        W20837   5.057   6.087  28.973 -0.2545 -0.1657 -0.0827
77822W        W20838  10.579  25.212  19.238 -0.1376 -0.3571 -0.3048
77823W        W20839   4.175   8.301   5.202 -0.3059  0.6446  0.1099
77824W        W20840   0.056   8.280   2.303  0.2764  0.1430 -0.2160
77825W        W20841   4.563   6.199   5.228  0.0270 -0.0273  0.1115
77826W        W20842  12.687  17.912  21.564  0.1566 -0.0277 -0.1627
77827W        W20843  22.279   9.859  14.718 -0.1166  0.0638  0.1619
77828W        W20844   7.983  30.507   4.505 -0.2626  0.2102 -0.0966
77829W        W20845  15.367  34.609   4.753 -0.0405 -0.1759 -0.0542
77830W        W20846  10.758   6.724   8.941 -0.2139 -0.0131  0.2445
77831W        W20847   7.882  27.120  24.391  0.1887  0.1136 -0.0548
77832W        W20848  31.234   1.376   0.203  0.1323 -0.1502 -0.0136
77833W        W20849   1.653  16.774   2.219 -0.1633  0.1230  0.3090
77834W        W20850   9.453   6.263   9.800  0.0421  0.2519  0.0781
77835W        W20851  26.120  32.987  26.703  0.0624  0.2092 -0.0409
77836W        W20852  20.626   8.757   7.510 -0.0757 -0.2660  0.0535
77837W        W20853  19.237   1.747   4.789  0.1636 -0.1084 -0.2429
77838W        W20854   9.128  14.986  21.550  0.2083  0.1870  0.0222
77839W        W20855  13.680  33.602  20.785  0.0682 -0.1608 -0.0445
77840W        W20856  16.370  32.771   2.364 -0.1414  0.0671 -0.0873
77841W        W20857   5.226  11.034  24.534 -0.0887 -0.0072 -0.1084
77842W        W20858  27.449  32.883   3.811 -0.0758  0.0677  0.2458
77843W        W20859   5.262   5.132   2.638 -0.1089 -0.1997  0.0996
77844W        W20860  17.267  16.146  18.396 -0.2603  0.1673 -0.3209
77845W        W20861  25.323  10.942  19.258 -0.0816 -0.0525  0.1156
77846W        W20862  34.596   0.303   6.098  0.1332 -0.0735  0.3997
77847W        W20863  11.584   9.357  27.358 -0.3533  0.0942  0.1739
77848W        W20864  27.434  29.477  23.111  0.0243 -0.0442  0.0470
77849W        W20865  11.318  10.552   3.154 -0.0110  0.0122  0.1706
77850W        W20866   3.563   2.823   4.825  0.0344  0.1204 -0.0269
77851W        W20867  33.043  28.561   0.591  0.3579  0.0086 -0.1201
77852W        W20868   1.478  18.861  27.952 -0.1768 -0.0204  0.0954
77853W        W20869   5.877  17.298   4.377  0.1349 -0.0984 -0.0592
77854W        W20870  11.781  13.019  13.597 -0.2683  0.0471 -0.0511
77855W        W20871   1.725  11.960  26.827 -0.0199  0.3155 -0.1426
77856W        W20872   2.860   1.756  26.180  0.3021 -0.0330  0.2162
77857W        W20873  28.859  27.765   3.405 -0.0917 -0.1644  0.0001
77858W        W20874   2.857   1.224   9.016 -0.1631 -0.2306 -0.1428
77859W        W20875  31.119   9.457   7.703  0.0996  0.0989 -0.2720
77860W        W20876  16.638  16.431  20.674  0.0844  0.1809 -0.3340
77861W        W20877  16.542   5.943   0.991  0.1735 -0.1752 -0.4660
77862W        W20878   6.536   1.881  19.225  0.1197 -0.0286 -0.2442
77863W        W20879  16.323   7.880  27.736  0.1313 -0.2476  0.3329
77864W        W20880  13.029   3.346   2.951 -0.2015 -0.0877 -0.1741
77865W        W20881  17.831  16.088  18.176 -0.1390  0.0687 -0.2225
77866W        W20882   4.005  13.960   5.761 -0.1017  0.2013  0.1091
77867W        W20883  20.676  33.506  27.149 -0.2546 -0.0275  0.0600
77868W        W20884  31.396   1.969   4.977 -0.0539 -0.1241 -0.1368
77869W        W20885   6.959   6.109  25.721  0.1002  0.1008  0.0526
77870W        W20886  32.894   8.396  26.303  0.3397  0.2511  0.1498
77871W        W20887  14.791  16.879   3.805 -0.0149  0.0905 -0.0747
77872W        W20888   9.594  16.478   9.101 -0.2017  0.1621 -0.0684
77873W        W20889  16.331  34.367  27.268 -0.1224  0.1237  0.2792
77874W        W20890  15.815   0.438   9.973  0.0121 -0.1533 -0.1010
77875W        W20891  23.663  12.879   0.988 -0.0502  0.1573 -0.2690
77876W        W20892   1.331  26.344   7.353 -0.1701 -0.1981 -0.0551
77877W        W20893   8.542  10.362   2.522  0.2216 -0.0891  0.0130
77878W        W20894  10.904   1.702  10.753 -0.0399 -0.1344  0.1639
77879W        W20895  10.289  22.944  26.237 -0.1347 -0.2083  0.1988
77880W        W20896   7.541  29.431   9.317  0.0986 -0.0361  0.0589
77881W        W20897  30.981  23.457  28.976 -0.2733  0.1090 -0.0060
77882W        W20898   6.641  31.231   1.257 -0.0593  0.0083  0.0433
77883W        W20899  19.729  19.041  26.266 -0.2790  0.0410  0.2342
77884W        W20900  10.694  20.518  13.449 -0.2286 -0.0368  0.1880
77885W        W20901  28.515   5.060   8.937  0.2345 -0.1288  0.2834
77886W        W20902   3.196  34.612  18.521  0.1215 -0.0980  0.1204
77887W        W20903  33.410   0.117   1.241  0.0507 -0.1567  0.0933
77888W        W20904   3.546   4.734   0.004 -0.3176  0.1791  0.0468
77889W        W20905  13.026  32.108  22.243  0.2789  0.0959  0.1795
77890W        W20906  13.813   9.875  25.316 -0.1302  0.0057 -0.0664
77891W        W20907   1.829  32.317  29.107 -0.2282  0.0122 -0.4255
77892W        W20908   8.763   5.800  27.573  0.0096 -0.0780  0.1917
77893W        W20909  16.221   6.185  23.963  0.0452 -0.0242 -0.0500
77894W        W20910   9.169  12.343  29.265  0.2118  0.2517  0.1762
77895W        W20911  10.926   4.489  14.973 -0.0431 -0.0882  0.0102
77896W        W20912  10.715  14.016   6.695 -0.3311 -0.1269 -0.0792
77897W        W20913  33.847  26.171  21.314  0.1839  0.3519  0.1699
77898W        W20914   3.010   1.704  18.380  0.0738 -0.0687  0.0858
77899W        W20915  14.837   5.444   6.803  0.0399  0.0836  0.1198
77900W        W20916   6.120  26.000   1.476  0.2117 -0.3326 -0.2889
77901W        W20917   8.294   2.989   8.537 -0.1915 -0.1180  0.1324
77902W        W20918  20.804   8.390  24.599  0.1196  0.0421  0.2457
77903W        W20919  23.157  15.500   6.338 -0.2041  0.0346 -0.0389
77904W        W20920  22.517  24.706   1.892  0.1522 -0.2436 -0.0352
77905W        W20921   3.124   4.053   4.824  0.2784  0.2102  0.1238
77906W        W20922   7.418  19.464  24.837  0.1148 -0.0521  0.0795
77907W        W20923   3.155  16.108   7.637  0.0327  0.0542  0.0372
77908W        W20924   4.653  25.029  24.442  0.2049 -0.1071  0.1552
77909W        W20925   5.039   7.623   7.115  0.0535 -0.1525  0.0009
77910W        W20926   5.544  13.633   6.100 -0.1927 -0.0172  0.0632
77911W        W20927  31.192  23.425   4.593 -0.6122  0.0414  0.2473
77912W        W20928   8.044  25.683   8.469  0.3207  0.2265 -0.1635
77913W        W20929   2.727  10.455   4.016 -0.0319  0.1216  0.0071
77914W        W20930  10.992  10.446  19.227 -0.1622 -0.2535 -0.1540
77915W        W20931  11.918   9.189   9.050  0.0072 -0.0802 -0.2460
77916W        W20932   7.976   7.120  21.316 -0.1660 -0.1051 -0.0663
77917W        W20933  15.854  11.510  18.210  0.0477 -0.0209 -0.4856
77918W        W20934  14.129  19.848  20.060 -0.0249  0.1455 -0.1244
77919W        W20935   9.910  29.735   7.415 -0.0845  0.3205  0.1459
77920W        W20936  27.717  11.084   0.292  0.2464 -0.0040  0.0613
77921W        W20937   1.462   4.038  10.149 -0.0542 -0.2207  0.0182
77922W        W20938  24.660  27.427  27.803 -0.1501  0.0807 -0.0093
77923W        W20939   2.047  30.822   7.270  0.0326  0.0675  0.2661
77924W        W20940  15.531   6.835   0.478  0.1330  0.3146 -0.0055
77925W        W20941  31.066   8.179  27.713  0.0990 -0.3080  0.0890
77926W        W20942  14.203   8.371  19.589  0.2972 -0.3105 -0.3399
77927W        W20943  24.947  31.203  16.570 -0.2144  0.0513 -0.0285
77928W        W20944   2.807  11.919  27.264  0.0459  0.2483 -0.0875
77929W        W20945   4.652  11.844  20.234  0.2091  0.2593 -0.2001
77930W        W20946   9.527   0.209   5.036  0.1228 -0.4031 -0.1838
77931W        W20947   6.382   1.595  25.000 -0.0200  0.0500 -0.2512
77932W        W20948  32.970  29.329  19.851  0.0592 -0.0103 -0.0647
77933W        W20949   7.938   2.568  27.929 -0.1020  0.1244  0.1661
77934W        W20950  33.649   6.369  18.012  0.1357  0.0563 -0.1812
77935W        W20951  31.980  31.495   4.120 -0.0428 -0.1158 -0.0932
77936W        W20952   2.111  29.497   3.970 -0.2061 -0.0858 -0.1399
77937W        W20953  12.189  25.622   4.080  0.0284  0.0656  0.1578
77938W        W20954  17.549  23.887  20.998 -0.1588 -0.4747 -0.2180
77939W        W20955   5.545  23.695   6.374  0.4035 -0.3510 -0.4031
77940W        W20956  10.118  23.313   3.577 -0.1035 -0.3678  0.1928
77941W        W20957  16.088  28.097   1.605  0.2942 -0.3245 -0.0552
77942W        W20958   5.890   2.452  19.617 -0.2326 -0.2536 -0.0412
77943W        W20959   5.835  19.334   7.234 -0.0861  0.1778 -0.0487
77944W        W20960   9.553  15.058  19.521  0.2064 -0.0462 -0.0977
77945W        W20961  11.748  14.469  25.267  0.1653 -0.1020 -0.1235
77946W        W20962  14.823   8.619   6.865 -0.0694 -0.0436 -0.1015
77947W        W20963  23.252  29.708  16.203 -0.0915  0.0137 -0.0785
77948W        W20964   8.302  31.019   1.681 -0.5442  0.2118 -0.0771
77949W        W20965  31.139  28.941   8.107  0.2221 -0.1484  0.1827
77950W        W20966  11.482   8.212  27.073 -0.0146  0.0702  0.0387
77951W        W20967  20.539  32.742   5.863  0.1987 -0.0190 -0.1097
77952W        W20968   7.651  19.423  21.900  0.0763 -0.1056  0.0266
77953W        W20969   7.446  13.213   0.755  0.2546 -0.1415 -0.0542
77954W        W20970  21.801  13.206  18.088 -0.0854 -0.2082 -0.1404
77955W        W20971   8.091  16.349   6.554 -0.1315 -0.3116  0.1203
77956W        W20972  31.563  33.773  18.974 -0.0607 -0.0602 -0.3397
77957W        W20973   2.732  28.093   6.376 -0.1026  0.2374  0.0010
77958W        W20974  27.131   4.155   6.300  0.0297 -0.2254 -0.0724
77959W        W20975  17.051  24.411  25.904  0.1212 -0.0333 -0.0995
77960W        W20976   5.097  33.005   7.251  0.2891  0.1164  0.0056
77961W        W20977  27.834  11.093  26.752  0.1091  0.0509 -0.0039
77962W        W20978   4.022  29.615   3.165 -0.4112  0.2661 -0.0491
77963W        W20979  26.218  34.190  10.841 -0.0588 -0.0307 -0.0608
77964W        W20980   2.394  13.244  27.750  0.2171  0.2326  0.0560
77965W        W20981  10.383   8.506  29.013  0.3036 -0.1358 -0.0565
77966W        W20982  32.244  23.001   9.618 -0.1374  0.1437 -0.3606
77967W        W20983  18.847   0.469   6.212 -0.0761 -0.0830  0.3637
77968W        W20984  10.667  12.653  28.421  0.5157 -0.0974 -0.2803
77969W        W20985   9.630  14.563  27.012  0.0124 -0.2772 -0.1208
77970W        W20986  14.767   4.895  29.217  0.0896  0.0417 -0.2635
77971W        W20987  10.122  16.487  19.955  0.1960  0.2612 -0.1534
77972W        W20988  18.434   6.639   2.045 -0.2386  0.0772 -0.1857
77973W        W20989  15.936   9.333   3.557 -0.0555  0.0684  0.0931
77974W        W20990  32.645  15.827   4.054 -0.1694  0.0361  0.0309
77975W        W20991   6.599   1.395   2.816 -0.0596  0.0731  0.0258
77976W        W20992  28.645  19.560   5.231  0.4220 -0.0035  0.0622
77977W        W20993  17.273  10.021  26.709  0.2618  0.0791 -0.0631
77978W        W20994   9.020  10.436  24.505 -0.0772  0.0863  0.1544
77979W        W20995   3.534  27.313  28.093  0.2623  0.4037 -0.4003
77980W        W20996  28.206  29.918   6.264  0.3028 -0.1613  0.1775
77981W        W20997  18.487  23.901  26.810  0.1283  0.1811  0.0758
77982W        W20998   9.756   0.434  23.967  0.0444  0.1257 -0.0107
77983W        W20999   2.850   7.047  26.089 -0.1875 -0.1415  0.0247
77984W        W21000  17.707  13.095  25.531 -0.3013 -0.0874  0.3257
77985W        W21001   8.698  11.554   6.012  0.3230 -0.1652 -0.1073
77986W        W21002  19.038  26.017   8.270  0.0213  0.2666 -0.3065
77987W        W21003  15.347  11.704  25.590 -0.0441 -0.1012  0.0271
77988W        W21004  29.915   9.060   9.460 -0.0825 -0.2662 -0.0009
77989W        W21005   8.370   8.323   6.851 -0.1473 -0.1571 -0.0849
77990W        W21006  11.791  30.135  27.013  0.1822  0.1941  0.3015
77991W        W21007   9.674  25.774  20.742  0.1007 -0.4422 -0.0403
77992W        W21008   9.391  14.683   1.677  0.0801  0.0648  0.2970
77993W        W21009   5.590  16.568  20.469 -0.3032  0.3569 -0.0732
77994W        W21010  30.701  27.767  19.920 -0.2795  0.0760  0.2353
77995W        W21011  27.888  13.548  21.616  0.0649  0.3484  0.0995
77996W        W21012  14.731  31.303   1.636  0.0403  0.5428  0.1071
77997W        W21013  18.924  31.016  26.539  0.0889 -0.1233 -0.2017
77998W        W21014   4.818   5.089   8.655 -0.0528  0.1988 -0.2759
77999W        W21015   8.154   6.755  22.586  0.0911  0.3782 -0.1724
78000W        W21016   5.944   4.068   6.461  0.0571 -0.3309 -0.0886
78001W        W21017   3.453  16.277   0.804  0.1664  0.4382 -0.0595
78002W        W21018   8.113  11.670   8.387 -0.0144  0.1172 -0.3511
78003W        W21019  15.374   5.167   9.957  0.1087 -0.2567  0.0162
78004W        W21020  28.613   5.420  29.064 -0.0358 -0.1908  0.0683
78005W        W21021   4.557  25.839  24.514 -0.0741  0.2592  0.2330
78006W        W21022   8.264   4.027   7.672 -0.0515 -0.0525 -0.2952
78007W        W21023  24.678   0.776   4.458  0.0877 -0.0284 -0.1981
78008W        W21024   4.072   1.854   8.138 -0.0097 -0.1330 -0.0512
78009W        W21025  20.269   1.445  25.464  0.3081  0.1906 -0.0337
78010W        W21026  21.156  10.319  10.010  0.3264  0.0922  0.1155
78011W        W21027  16.181  30.620   2.226 -0.0178 -0.3123  0.1596
78012W        W21028   7.036  32.417   8.240 -0.2125 -0.0618 -0.1229
78013W        W21029  19.324  28.355   4.729 -0.2038  0.0830 -0.0838
78014W        W21030   0.523   8.851  15.061 -0.5365  0.0592  0.1565
78015W        W21031  10.393   8.011   9.939 -0.0665  0.1221 -0.2627
78016W        W21032  18.694   3.665  27.135 -0.1523  0.2070  0.0490
78017W        W21033   6.401  20.089   4.488  0.1501 -0.0327  0.0864
78018W        W21034  33.536  24.784   6.550  0.0400 -0.1453  0.0538
78019W        W21035  23.000  15.731  28.566 -0.2943 -0.0589 -0.0373
78020W        W21036   6.276   0.982   4.933  0.0728  0.2909  0.1631
78021W        W21037  12.956   0.050   8.554  0.0317  0.1414 -0.1701
78022W        W21038  13.156  32.205   6.485  0.1027 -0.2882 -0.1249
78023W        W21039  12.247   6.560   7.074  0.0666 -0.2623  0.1642
78024W        W21040  13.967   6.514  16.208  0.3240 -0.0075  0.2004
78025W        W21041   1.328   7.949   1.779 -0.0904 -0.3003  0.0177
78026W        W21042  13.255  24.662   4.509  0.2137 -0.2518  0.2778
78027W        W21043  21.274  10.625  23.978  0.3594 -0.0211  0.1096
78028W        W21044   9.522   7.429  20.495  0.0769  0.4765 -0.2457
78029W        W21045  11.034   0.677   3.036  0.0419 -0.0786 -0.1373
78030W        W21046  29.842  26.587  10.571  0.1038  0.2148  0.1136
78031W        W21047   1.739  33.293   4.143 -0.3230 -0.2156 -0.3596
78032W        W21048   6.078  31.278   8.459  0.1367 -0.3582 -0.1496
78033W        W21049  19.784  15.646   4.288 -0.1330  0.0996 -0.4227
78034W        W21050  22.539   7.052   1.342 -0.0962 -0.2453 -0.0795
78035W        W21051  18.698   1.185  19.098 -0.1374  0.1132  0.2779
78036W        W21052  16.175  12.291  27.097  0.0702 -0.2392 -0.5302
78037W        W21053  10.654  10.686   8.163  0.1671 -0.0547  0.0273
78038W        W21054   8.724   4.434   1.124 -0.0731  0.1205  0.3583
78039W        W21055  11.512  11.194  28.971 -0.0960  0.0931  0.0238
78040W        W21056  15.603  23.561  27.179  0.0284 -0.1973  0.0530
78041W        W21057  31.712   3.054   8.766  0.1610 -0.0118  0.1074
78042W        W21058   8.725   4.891  21.728  0.0949  0.1718  0.7600
78043W        W21059   0.609   1.917  29.303 -0.1065 -0.1653  0.0425
78044W        W21060  14.429   6.963  28.091 -0.1796 -0.0319 -0.1790
78045W        W21061  13.280   7.550   4.270  0.3049 -0.0949  0.1344
78046W        W21062  30.102   2.707   1.324  0.0534  0.1544  0.4332
78047W        W21063  15.574  21.411   1.418  0.2335 -0.1178 -0.1523
78048W        W21064  19.585  19.820   9.642  0.1812 -0.1164 -0.0135
78049W        W21065  19.345  33.632  28.859 -0.0734 -0.1192  0.0634
78050W        W21066   0.196  14.675  27.157 -0.0807  0.2283 -0.3336
78051W        W21067   9.674  27.160   1.966 -0.0734  0.0426 -0.2322
78052W        W21068   5.932   7.479  27.585 -0.0334 -0.2639  0.1893
78053W        W21069  25.013   6.166   1.713  0.1654  0.2011 -0.1079
78054W        W21070  27.517  33.498  10.651 -0.1351 -0.0563 -0.0483
78055W        W21071   9.733   5.973   0.525  0.0278 -0.2045  0.1461
78056W        W21072  15.636  34.211  10.300 -0.2168 -0.0160 -0.4587
78057W        W21073  14.625  28.596  24.942  0.1944 -0.2066  0.2678
78058W        W21074   5.154   2.977  10.205  0.3215  0.0691  0.3995
78059W        W21075  16.419  26.253   2.499  0.0507  0.2411 -0.0255
78060W        W21076  31.963  32.260  24.039 -0.2877 -0.2123 -0.1588
78061W        W21077  17.369   0.721  10.319  0.2427  0.3058  0.0773
78062W        W21078   3.832  12.211   5.169  0.1234 -0.0914 -0.3052
78063W        W21079  10.687   9.136   2.169  0.1299 -0.0637  0.0540
78064W        W21080  32.804   3.149   4.210  0.0125  0.2365 -0.0570
78065W        W21081   6.047  19.194  29.188  0.0420  0.2827  0.0135
78066W        W21082   2.215   1.968  21.525  0.1751  0.1690 -0.0107
78067W        W21083   1.945  23.013   8.549  0.2668 -0.4524 -0.1280
78068W        W21084  11.502  33.195  19.326 -0.4031 -0.0894  0.1610
78069W        W21085  11.032  32.280   9.228 -0.0339  0.1232 -0.0609
78070W        W21086  18.085  29.472  16.388 -0.2760  0.2637 -0.1729
78071W        W21087   3.132  34.632   3.522  0.0597  0.0220 -0.1044
78072W        W21088  29.261   3.766   7.241 -0.0269 -0.0106  0.2081
78073W        W21089  30.306   6.753  23.710  0.1091 -0.1765 -0.0599
78074W        W21090  30.357  32.952   5.038  0.2273  0.1481  0.0346
78075W        W21091  18.576  20.758   1.395  0.1395 -0.2727  0.1542
78076W        W21092  22.316  23.967   3.682 -0.1921 -0.0777  0.1018
78077W        W21093   5.245   6.162  27.930 -0.0689  0.0763 -0.0660
78078W        W21094  32.604  28.219  27.540  0.0141  0.0168 -0.0714
78079W        W21095  10.119   5.240   1.435 -0.1228 -0.1395 -0.0676
78080W        W21096  26.054   2.381   8.926  0.3186  0.0468 -0.0959
78081W        W21097  17.750   9.101   5.660  0.1079 -0.2840  0.0108
78082W        W21098  15.356  21.121   2.254 -0.1417  0.3269 -0.0349
78083W        W21099   9.217  16.735  29.231  0.0628  0.1768  0.1888
78084W        W21100  10.308  33.378   5.999 -0.1338  0.0125  0.0249
78085W        W21101   5.547   0.963  21.567  0.1162 -0.0436  0.0324
78086W        W21102   1.622  31.764   8.337 -0.0218 -0.2016 -0.2981
78087W        W21103  12.327  15.422  13.774  0.0660 -0.1494 -0.3271
78088W        W21104  18.439   6.092  26.374  0.1776  0.1897 -0.0958
78089W        W21105  11.593  20.390  28.262 -0.0446  0.2026  0.0655
78090W        W21106  10.378  34.270  20.352  0.1402  0.0411  0.0650
78091W        W21107  27.845  21.034   4.886  0.1263  0.0070  0.1526
78092W        W21108  16.941  34.466   5.894  0.2067  0.1665  0.3231
78093W        W21109  12.900  16.057   6.070  0.1248  0.2142 -0.1975
78094W        W21110   1.792  28.032   8.948  0.2492  0.2251  0.1824
78095W        W21111  22.943  11.229   3.610 -0.0617 -0.0057  0.1806
78096W        W21112   4.046   7.715   3.578 -0.1520 -0.0385 -0.1741
78097W        W21113  12.841  20.753   2.430 -0.1917 -0.3211 -0.5536
78098W        W21114  10.656  21.557   4.178 -0.1015 -0.0788 -0.0112
78099W        W21115  17.079   0.103  18.858 -0.3405 -0.2853  0.1013
78100W        W21116  13.733   6.741   1.419  0.0990  0.3620 -0.0439
78101W        W21117  30.744  30.922  26.996 -0.2693  0.2510 -0.0696
78102W        W21118  16.783  26.716   2.367 -0.2124 -0.0262  0.1249
78103W        W21119  19.626  18.520  24.107  0.3797 -0.1646  0.1036
78104W        W21120  24.949  14.688   6.288  0.0382  0.0068  0.2438
78105W        W21121   9.042  33.822   7.399 -0.1036 -0.3059 -0.1954
78106W        W21122  15.006  28.369  19.929  0.0515  0.0742 -0.0347
78107W        W21123  33.162  23.159   9.455 -0.4141  0.3428 -0.2108
78108W        W21124  20.921  15.336  27.193 -0.4517 -0.0515 -0.2024
78109W        W21125  32.554  25.220   5.457  0.4666 -0.0146  0.2006
78110W        W21126  31.320  10.938  27.803 -0.2608  0.1125  0.1403
78111W        W21127   7.709  28.836   1.181  0.2016  0.0604  0.2082
78112W        W21128  15.067  25.586   3.327 -0.0235 -0.1287 -0.2367
78113W        W21129  15.514  10.643   6.888  0.2258  0.0002  0.0157
78114W        W21130  19.478   2.596   4.143  0.0786 -0.0249 -0.0678
78115W        W21131   9.311  20.415  18.493 -0.1570  0.1556  0.3528
78116W        W21132   8.220  16.660  19.818  0.2161 -0.2769  0.3801
78117W        W21133  15.840  14.237  26.578 -0.1337 -0.2565  0.0196
78118W        W21134  28.046  33.917  15.793  0.0483  0.1326  0.1598
78119W        W21135  21.292   2.971  20.507 -0.0712  0.3669 -0.0063
78120W        W21136  25.160  33.704   8.286  0.4247 -0.1343 -0.3090
78121W        W21137  12.260  22.034   5.647 -0.2074  0.1086 -0.1649
78122W        W21138   3.064   0.895   2.575 -0.1027 -0.2842  0.0936
78123W        W21139   4.274  20.315   1.018  0.0863 -0.0693  0.0195
78124W        W21140  23.523   2.162   3.728  0.3728  0.4317 -0.1180
78125W        W21141   2.657   9.788   1.926  0.1108  0.2417 -0.0936
78126W        W21142  14.710   8.034  27.204  0.2729 -0.0714 -0.0373
78127W        W21143  10.362  31.079  17.546  0.1787  0.1564  0.1727
78128W        W21144   7.716  34.067  27.454  0.0323 -0.2715  0.0133
78129W        W21145  13.019   6.391  27.631 -0.0317 -0.0408 -0.1422
78130W        W21146   8.099   8.059   8.314  0.0745  0.3472  0.1624
78131W        W21147  18.838  14.391  20.328 -0.1365 -0.0917 -0.1910
78132W        W21148  32.845   7.163  18.803  0.2732 -0.2406  0.0049
78133W        W21149   0.633   7.931   3.849 -0.1167  0.3801  0.1575
78134W        W21150   1.946  32.240  25.711  0.4194 -0.1623  0.1751
78135W        W21151   8.182  34.054  28.607 -0.1057 -0.0617  0.1191
78136W        W21152  31.494   0.120  20.472  0.0030  0.4063 -0.0379
78137W        W21153   9.065  22.784  22.642  0.1047 -0.1946 -0.0563
78138W        W21154  27.808   4.067   0.819 -0.0393  0.1732  0.2724
78139W        W21155  15.612  30.118  20.966 -0.3166 -0.2297  0.2764
78140W        W21156  17.539  34.453   5.729 -0.3166 -0.1877  0.1601
78141W        W21157   8.664  12.787   1.695  0.2910 -0.1782 -0.0243
78142W        W21158   5.946   5.457   6.826 -0.1478  0.4296  0.3817
78143W        W21159   5.985   4.704   4.945 -0.0411  0.2060  0.2687
78144W        W21160  11.449  26.546  29.170  0.2441 -0.0844 -0.3181
78145W        W21161  30.667   9.812   7.488  0.0746 -0.3956  0.0250
78146W        W21162  13.862   6.430  26.049 -0.1082  0.2654 -0.1186
78147W        W21163  29.347  26.225   4.353 -0.0897 -0.0911  0.0521
78148W        W21164  17.540  34.453  19.615 -0.0961 -0.0443 -0.0178
78149W        W21165  28.970  33.420  22.863  0.0177 -0.2073 -0.0757
78150W        W21166  34.263  11.851   3.885 -0.1791  0.2554 -0.2033
78151W        W21167  22.270  12.371  28.713  0.0263  0.1811 -0.1425
78152W        W21168   9.296   8.048   8.700  0.0997  0.0497  0.0390
78153W        W21169   7.429  30.069  23.273  0.2399  0.0513  0.1230
78154W        W21170  14.741   2.832  17.517 -0.3047 -0.0760  0.2596
78155W        W21171   0.863  14.165  19.042  0.2049  0.0827  0.2651
78156W        W21172  18.082  19.924  14.445 -0.2597 -0.1665 -0.1833
78157W        W21173   9.140  25.161  17.993  0.2387  0.0395 -0.0938
78158W        W21174  17.023   5.909  15.490 -0.1178  0.1464  0.0409
78159W        W21175   2.299  25.425  15.394  0.3703  0.1330  0.0026
78160W        W21176   7.634  26.531  26.948  0.3093 -0.0867  0.3426
78161W        W21177  13.344   7.659  17.739  0.1771  0.2702  0.1652
78162W        W21178  32.895  33.602   7.820  0.3746  0.4120 -0.3983
78163W        W21179  24.101  34.388   4.021  0.1718  0.0963 -0.1074
78164W        W21180  20.387  33.541   0.931 -0.3552 -0.0591  0.3270
78165W        W21181   9.889  33.036  10.249 -0.1256  0.3980  0.1631
78166W        W21182   7.275  17.306  18.902  0.1216  0.1948  0.0396
78167W        W21183  30.777  11.699  10.220 -0.0750 -0.1339 -0.2434
78168W        W21184  14.262  16.396  13.751 -0.3056  0.1143 -0.0019
78169W        W21185  33.523   3.974  25.250 -0.2074 -0.0678  0.4015
78170W        W21186  28.786  34.259   9.924 -0.1129 -0.0171 -0.0948
78171W        W21187   7.267  18.653  15.774  0.2802  0.0090  0.1484
78172W        W21188  20.641  27.549   3.333  0.1864 -0.2786 -0.0066
78173W        W21189  33.358  15.881   3.664 -0.0169 -0.0444 -0.2739
78174W        W21190   5.289   2.783   0.298 -0.1150 -0.2799 -0.0687
78175W        W21191  24.175  34.304   7.720  0.0826  0.1140 -0.0735
78176W        W21192  16.767  19.981   5.900 -0.1956 -0.1134 -0.0146
78177W        W21193   2.833  20.272   7.707  0.2580  0.0711 -0.2594
78178W        W21194  13.204  33.260   3.855  0.0645  0.1484 -0.1341
78179W        W21195  12.682   9.535  27.017  0.1045  0.1053 -0.0383
78180W        W21196   8.996   1.251  21.620  0.1560 -0.3019  0.1932
78181W        W21197   2.274   0.560  24.245 -0.0584  0.2371 -0.3121
78182W        W21198  19.994  17.591   5.232  0.2528 -0.1123 -0.1817
78183W        W21199   8.703  21.569  18.416 -0.3074  0.0129 -0.1604
78184W        W21200  18.195  27.954  28.941  0.0347  0.1044  0.1907
78185W        W21201   7.962  32.184   9.049  0.1138  0.0193  0.0556
78186W        W21202   5.149   0.881   3.257 -0.0291  0.0924  0.0574
78187W        W21203   4.950  33.237   8.039  0.1853 -0.0753 -0.0935
78188W        W21204  17.436  14.112  12.350 -0.1298  0.0848  0.2763
78189W        W21205  14.433  32.805  21.777 -0.3398 -0.2990 -0.2044
78190W        W21206  34.363  14.103  19.351 -0.3490 -0.1444 -0.0938
78191W        W21207  15.477  14.945  24.849 -0.2208  0.1827  0.4005
78192W        W21208  22.827  10.882   6.573 -0.3022  0.0438  0.2429
78193W        W21209   2.875   3.480  10.205  0.1255  0.0029  0.2770
78194W        W21210   4.588  27.136   5.425  0.2945 -0.0840 -0.2775
78195W        W21211  21.591  20.590  19.565 -0.0567 -0.0461 -0.0675
78196W        W21212  13.362  30.605  19.670 -0.2382  0.1633  0.0032
78197W        W21213  11.886   8.993   2.980 -0.0370  0.0172  0.1617
78198W        W21214  32.831  18.825  22.470 -0.2033  0.1761 -0.3535
78199W        W21215   9.465  16.354   4.311 -0.0316  0.0366  0.0885
78200W        W21216  13.419   2.898  19.806  0.1337 -0.4160  0.0265
78201W        W21217  12.800  17.073  25.510  0.1343 -0.1082  0.2144
78202W        W21218  30.280   7.920  10.243 -0.1768  0.2253 -0.0119
78203W        W21219  16.252  10.216   1.832 -0.2641 -0.2163 -0.0005
78204W        W21220  28.766  13.214  18.722  0.4169  0.0430 -0.0328
78205W        W21221  27.060   4.395   4.751 -0.2182  0.3255 -0.2005
78206W        W21222   8.146   8.061  24.388  0.1031  0.1595 -0.0468
78207W        W21223  30.436  15.987  20.278  0.3487  0.1771 -0.1184
78208W        W21224   5.853  14.221  28.369 -0.1545 -0.0428 -0.0707
78209W        W21225  23.252  19.911  24.752  0.2099 -0.0857  0.0354
78210W        W21226   9.359   7.232   4.744 -0.0758  0.7620 -0.0114
78211W        W21227  17.276   5.504   1.921 -0.5257  0.3133 -0.1497
78212W        W21228  31.143   9.233  25.993  0.1580  0.1995  0.0635
78213W        W21229  29.290   4.934  18.305 -0.3988  0.5677 -0.0832
78214W        W21230   2.089  21.322   0.987  0.0087 -0.1243  0.1629
78215W        W21231  11.334   1.288   9.816  0.1190  0.0831  0.2252
78216W        W21232  12.859   9.457  21.727 -0.2497 -0.2597 -0.0660
78217W        W21233  13.945  33.161  10.632  0.1788 -0.3144 -0.0426
78218W        W21234  12.079   5.203  23.786  0.1530  0.1270  0.0418
78219W        W21235  22.195  15.232  27.378  0.3981  0.0918  0.1257
78220W        W21236  19.217   7.614   8.253  0.0101 -0.2994  0.0879
78221W        W21237   1.736   8.269   1.519  0.1525  0.1191 -0.0508
78222W        W21238  30.133  13.967   6.013 -0.0782  0.1219 -0.0231
78223W        W21239   5.180   9.270   8.365 -0.0442 -0.0127  0.0189
78224W        W21240   6.214  30.471   9.634  0.2967 -0.4801 -0.0027
78225W        W21241   1.058   6.544  29.170 -0.2015 -0.0800 -0.1373
78226W        W21242   8.852  13.148   3.094 -0.0288  0.0633 -0.0119
78227W        W21243   8.804  19.707   4.800  0.2069  0.0232 -0.5391
78228W        W21244  19.971  17.739  26.814  0.3269 -0.2440  0.2011
78229W        W21245  12.192   5.800   0.823 -0.0254  0.3538 -0.0714
78230W        W21246  28.912  24.462  11.895 -0.1322  0.1637 -0.1919
78231W        W21247  15.404   9.237   8.353  0.0200  0.3021 -0.0562
78232W        W21248  32.553  13.203  19.255  0.0848 -0.0673 -0.1230
78233W        W21249   6.509   5.470   6.672  0.1492  0.5276  0.2440
78234W        W21250  14.289  16.559  22.062 -0.2508  0.0842  0.2499
78235W        W21251  32.151  10.894  10.323  0.1362 -0.0523 -0.2018
78236W        W21252   7.528   0.418   5.398 -0.1539  0.0061  0.1220
78237W        W21253  19.488   9.050  27.209  0.1542 -0.2223 -0.2493
78238W        W21254   5.306  24.972   1.492 -0.0191 -0.0045  0.0690
78239W        W21255  30.486  15.867   8.538 -0.0772 -0.1078  0.1178
78240W        W21256  14.655  18.365  23.038  0.2667 -0.1398  0.1224
78241W        W21257   0.112  13.018  20.622  0.3561  0.1003  0.0744
78242W        W21258  14.456  20.480  25.238 -0.1084 -0.2504 -0.1984
78243W        W21259  25.118  13.615   9.216 -0.1507  0.0477  0.0899
78244W        W21260   5.675  34.720   2.554  0.1687 -0.0954 -0.0361
78245W        W21261   7.981  11.199   6.269  0.0434 -0.1727  0.0379
78246W        W21262  33.116  13.025   3.760  0.0566 -0.4559 -0.0923
78247W        W21263  17.701  34.149   6.919  0.1550 -0.2062 -0.1048
78248W        W21264   5.432   6.637   8.899  0.0835  0.2857 -0.0483
78249W        W21265  14.168   7.005   3.433  0.0318  0.1652  0.0602
78250W        W21266  28.322  30.177   5.225 -0.2646 -0.1684  0.3037
78251W        W21267  14.716  13.187  26.444  0.2473  0.0700 -0.0981
78252W        W21268   2.169  24.407   4.580  0.0152 -0.1899 -0.3519
78253W        W21269  29.538  13.307  14.969 -0.0652 -0.1490  0.2293
78254W        W21270  33.765   2.489  27.376 -0.1534  0.1305 -0.0364
78255W        W21271   5.748  33.355   4.033 -0.1353  0.3302 -0.0826
78256W        W21272   1.902   0.258   8.598  0.0261 -0.1908  0.2005
78257W        W21273   4.667   3.218  21.717  0.0561 -0.0043 -0.1147
78258W        W21274   3.719   4.396  26.836  0.3470 -0.0464  0.1429
78259W        W21275   1.262  29.549  22.734  0.0877  0.0084  0.0819
78260W        W21276  21.207  25.603  11.006  0.0101  0.1281  0.0003
78261W        W21277  10.978  12.462  17.243  0.0274  0.1603  0.1326
78262W        W21278  29.457   2.261   4.365  0.1201 -0.1600 -0.0629
78263W        W21279  33.620  14.449   6.083  0.0062 -0.3398  0.1173
78264W        W21280  32.973  29.430  10.845 -0.0720  0.0282  0.1097
78265W        W21281  29.527  28.342  15.618 -0.2121  0.0187  0.1090
78266W        W21282  16.959   9.355  28.951 -0.1227 -0.2250  0.1455
78267W        W21283  14.444  20.693  28.292  0.3760 -0.0140 -0.2523
78268W        W21284   1.565  12.682   2.811  0.3160  0.1412  0.0164
78269W        W21285  12.546   5.474   0.920 -0.2219 -0.0538 -0.0771
78270W        W21286  18.680  34.393   3.243  0.1523  0.4597 -0.1167
78271W        W21287  24.859   0.980  25.207  0.2240 -0.0733 -0.1322
78272W        W21288   7.651  14.674   2.978 -0.1546  0.4117  0.0408
78273W        W21289  15.396  15.907  19.644 -0.0269  0.0285  0.0553
78274W        W21290  33.698   8.605   9.613  0.3353 -0.3854  0.1464
78275W        W21291   8.324   9.491   1.659 -0.1289  0.0797 -0.0471
78276W        W21292   0.702  14.929  29.303  0.0629  0.0791  0.1059
78277W        W21293  33.932  17.263  10.180 -0.2218 -0.0968  0.0627
78278W        W21294   1.006   2.269   2.821  0.1944  0.3060  0.1046
78279W        W21295   6.645  28.485   6.965 -0.1616 -0.2665 -0.0670
78280W        W21296   0.479   5.411  19.883 -0.1434 -0.0473  0.1870
78281W        W21297   8.307  20.650   0.629 -0.0575  0.1410 -0.0127
78282W        W21298  13.034   9.571  18.227  0.1292 -0.0354 -0.0038
78283W        W21299  21.003   7.564   4.743 -0.3359 -0.0217  0.1813
78284W        W21300   9.964  12.250  24.398 -0.2817 -0.1223 -0.2950
78285W        W21301   7.938   2.374  23.617 -0.0736  0.4275 -0.2607
78286W        W21302   8.506   6.780   7.198  0.2046  0.0230 -0.1626
78287W        W21303  22.594  22.242   4.109  0.1810 -0.2931 -0.0156
78288W        W21304  32.268  15.739   5.740  0.0203  0.0579 -0.1129
78289W        W21305   4.829   1.551   4.296  0.1007  0.2914  0.3591
78290W        W21306   3.958   0.268  19.142  0.2767  0.2517  0.4309
78291W        W21307  24.490  31.507   8.347 -0.1826 -0.2086  0.3585
78292W        W21308  14.594   5.409  24.592  0.0918 -0.0763 -0.1223
78293W        W21309  27.364  27.543   6.182 -0.0087 -0.1030 -0.0876
78294W        W21310  11.929  14.653   3.819  0.1140  0.0091  0.1464
78295W        W21311  34.773   3.973  25.817 -0.1742  0.2745  0.1065
78296W        W21312   9.013  12.793   4.573 -0.0274  0.1812  0.1528
78297W        W21313   5.990   6.005   4.986 -0.1594  0.2014 -0.2773
78298W        W21314  22.107   5.564   2.644  0.0324 -0.0037 -0.3577
78299W        W21315   3.192   4.611   7.006 -0.3423 -0.0956 -0.0448
78300W        W21316   7.546   1.967   5.488  0.1684 -0.4513 -0.3531
78301W        W21317  27.634  17.506   9.779  0.3401 -0.0444 -0.2215
78302W        W21318   2.881   2.853   9.165 -0.0845 -0.1789 -0.0586
78303W        W21319   8.526  16.069  26.430 -0.2342 -0.3432  0.0514
78304W        W21320  11.893  12.488   7.238 -0.1576 -0.0706 -0.0344
78305W        W21321  31.178  29.362   7.030 -0.1235  0.0691 -0.1609
78306W        W21322   7.724  31.536   8.628  0.1749 -0.1086 -0.1393
78307W        W21323  23.550   6.154   5.037  0.0341 -0.4537 -0.2078
78308W        W21324  27.678  26.642   4.417 -0.3709 -0.0017 -0.1628
78309W        W21325   7.852   9.882  10.347 -0.0703 -0.0572 -0.1435
78310W        W21326   0.373   3.468  21.520  0.1715 -0.4711 -0.1268
78311W        W21327   7.436  33.476  24.361  0.2068  0.0778  0.0474
78312W        W21328  29.935  33.114   0.765  0.1114  0.3031  0.0576
78313W        W21329  31.190   8.544   7.748  0.0329 -0.1769  0.4227
78314W        W21330  34.533  32.139   2.716  0.0614  0.1742 -0.1644
78315W        W21331  34.378   0.964   2.362 -0.1283 -0.0775 -0.0429
78316W        W21332   1.450   6.483  22.307  0.1216  0.2524 -0.0553
78317W        W21333   5.200  17.045  24.986 -0.3650 -0.1046 -0.3000
78318W        W21334  17.901  12.374  19.507 -0.1141 -0.0850 -0.1563
78319W        W21335  28.573  12.025   3.141 -0.3934 -0.0113  0.1762
78320W        W21336  23.799  11.639  26.864 -0.0852  0.0767  0.0481
78321W        W21337  11.027  26.455   4.357 -0.2038 -0.0504  0.0285
78322W        W21338   5.821  12.870  17.115 -0.0761  0.0329 -0.0994
78323W        W21339   0.990   4.951   5.946  0.2527 -0.4228  0.0230
78324W        W21340  31.780  29.589  26.397  0.1711  0.3485 -0.1555
78325W        W21341   6.280  25.666   9.401  0.1610  0.0891 -0.0696
78326W        W21342   2.416   6.452   4.859  0.1281  0.2432  0.1985
78327W        W21343   0.790   6.148   6.243  0.5910 -0.2223 -0.0141
78328W        W21344  11.052   8.880   3.661 -0.0357 -0.5039  0.0690
78329W        W21345   8.386   3.620  28.648 -0.2009 -0.0468 -0.0153
78330W        W21346  20.007   4.480   3.148 -0.0619 -0.0562  0.1146
78331W        W21347   2.470   0.190  25.788  0.0514 -0.0637 -0.0076
78332W        W21348   0.413   3.907   2.127  0.0372  0.1661  0.2298
78333W        W21349   0.774   0.395   7.982 -0.0165  0.0904 -0.3541
78334W        W21350   2.118   1.751  22.332 -0.3012 -0.2532 -0.1855
78335W        W21351   8.373  21.579   1.984  0.4270 -0.1247 -0.0479
78336W        W21352  14.506  24.473   6.707 -0.0769 -0.0378 -0.1262
78337W        W21353  11.097   1.636   8.831 -0.2144 -0.0631  0.1156
78338W        W21354   4.166  14.492   6.469  0.1935 -0.2001  0.0783
78339W        W21355   7.800  21.036  13.790 -0.0829 -0.1169  0.1051
78340W        W21356  10.092   8.142  29.294  0.1549 -0.1307 -0.0728
78341W        W21357  19.903  10.425   6.949  0.0959 -0.0049 -0.0070
78342W        W21358  31.269   7.646  29.226 -0.1742  0.0530 -0.0981
78343W        W21359   6.911  18.778  21.726 -0.1750 -0.2566  0.1365
78344W        W21360   1.722  21.615  27.172 -0.1457 -0.4990  0.0471
78345W        W21361  18.057   8.643   1.603 -0.0771  0.5253  0.2413
78346W        W21362   9.584   9.553   8.639 -0.1832 -0.0594  0.2097
78347W        W21363  20.028   4.786   6.775  0.1532 -0.1475  0.0690
78348W        W21364   8.960  24.098  27.171 -0.2086 -0.0735  0.1471
78349W        W21365   1.074  14.601   8.328  0.0208  0.0933  0.0004
78350W        W21366  32.854   7.631   7.071 -0.2296 -0.3346  0.1549
78351W        W21367   9.640   7.322   8.005 -0.0448  0.1010 -0.0140
78352W        W21368  13.826   5.262   3.856 -0.1798  0.0551 -0.0477
78353W        W21369  33.421  23.818  19.801 -0.1323 -0.0991 -0.2155
78354W        W21370   2.595   1.746   3.018 -0.1641  0.2731 -0.0860
78355W        W21371   3.722   1.929  27.797 -0.0483  0.0821 -0.3687
78356W        W21372  12.810  31.727  25.134  0.1982  0.0435  0.2191
78357W        W21373  10.042  29.303  10.184  0.1463 -0.1439 -0.0184
78358W        W21374  34.679   0.769   1.129 -0.2476  0.2297 -0.2608
78359W        W21375  31.921  24.658   6.516  0.0540  0.0223  0.1449
78360W        W21376  21.971   4.056   7.337  0.1458 -0.0807 -0.3052
78361W        W21377   5.564  11.535  17.207  0.2058 -0.5255  0.2160
78362W        W21378  13.920   3.314   6.187  0.2421 -0.1815 -0.1494
78363W        W21379  18.353  25.179   2.264 -0.2482  0.1239  0.0217
78364W        W21380   3.232  32.351   9.007 -0.3156 -0.1181 -0.1768
78365W        W21381   0.695  10.098   5.460 -0.1835 -0.1517  0.2127
78366W        W21382  21.611  16.150  28.861 -0.5983  0.2509  0.3691
78367W        W21383   8.091  11.435  25.268  0.2589  0.0420  0.1080
78368W        W21384   1.383  12.509   8.485  0.1071 -0.1491 -0.0594
78369W        W21385  19.521  14.464   7.310 -0.1885  0.0287  0.4234
78370W        W21386  20.942  28.987   3.856  0.0989 -0.0932 -0.2938
78371W        W21387  13.580  31.424  27.469  0.1742 -0.0687 -0.0100
78372W        W21388   7.496   1.567   5.107 -0.2196  0.1490  0.2848
78373W        W21389  27.540  19.396   2.842 -0.2086 -0.2038  0.2904
78374W        W21390   5.217  26.729   8.155  0.3429  0.0681  0.1396
78375W        W21391   6.286   8.420   9.209  0.3021 -0.3149  0.0240
78376W        W21392  22.457  16.762  26.262  0.1850 -0.3295  0.1020
78377W        W21393   6.303  23.210  28.165  0.4368 -0.1652 -0.1715
78378W        W21394  10.169  14.657  26.029  0.0620 -0.1838 -0.3200
78379W        W21395   5.624  10.899   1.595 -0.0758  0.0553  0.0436
78380W        W21396  30.469  10.550  29.291 -0.2039 -0.1233 -0.2853
78381W        W21397   4.227   0.856  27.832  0.2711 -0.1110 -0.4327
78382W        W21398  15.797  11.497  18.810  0.0331  0.0260 -0.1411
78383W        W21399   1.545   4.348   3.855 -0.0628 -0.1121  0.0583
78384W        W21400   8.086   6.893   9.399  0.1675 -0.1180 -0.2608
78385W        W21401  13.312  10.109   5.060 -0.0977 -0.0612  0.0093
78386W        W21402  15.860   3.948  16.891 -0.1403  0.1032  0.1402
78387W        W21403   8.254  16.415   2.880  0.2112 -0.2113  0.1881
78388W        W21404  11.322   9.317  23.318 -0.1211  0.1178 -0.4287
78389W        W21405  34.745  33.591   0.625  0.1193 -0.1531 -0.0813
78390W        W21406  34.511   4.480   7.595 -0.0925  0.1427  0.0005
78391W        W21407  10.275  32.034   8.472 -0.0678  0.4003  0.0704
78392W        W21408  13.490   5.617   0.928 -0.1437 -0.0996 -0.0607
78393W        W21409   1.534  19.656   4.493  0.0025  0.2246 -0.3378
78394W        W21410   7.534   5.169   8.593 -0.0038 -0.1075 -0.3369
78395W        W21411  13.462  29.604   8.898  0.0845 -0.3477 -0.2516
78396W        W21412  33.419  10.207  20.359 -0.2702  0.1655  0.1686
78397W        W21413   0.912  17.839   1.720  0.3365 -0.0373  0.0232
78398W        W21414  20.037   4.098  22.450 -0.0893 -0.1493 -0.1034
78399W        W21415   6.508  17.354  22.623 -0.4157 -0.0636  0.0847
78400W        W21416   3.195  32.319   5.700 -0.0857 -0.0892  0.0565
78401W        W21417   0.445  25.163   7.492 -0.2134  0.0476  0.2175
78402W        W21418  18.800  16.280   0.549 -0.1667  0.1402 -0.0555
78403W        W21419  33.611  17.163  23.091  0.3363 -0.1924 -0.1595
78404W        W21420   1.662  15.970  10.771  0.0359 -0.5747  0.1222
78405W        W21421   8.260   0.338   7.400  0.1519  0.2904  0.2372
78406W        W21422  10.232  24.420   8.110 -0.0995  0.1095 -0.0556
78407W        W21423  18.659   2.718  24.306 -0.3863 -0.0037 -0.1694
78408W        W21424  34.153  28.751   6.395  0.0153  0.3267 -0.2736
78409W        W21425  10.908  12.925  24.156  0.0738 -0.2600  0.1406
78410W        W21426   0.280  29.789  25.492 -0.0917  0.1059 -0.1002
78411W        W21427   8.000  27.368   1.639  0.1705 -0.3418  0.0836
78412W        W21428   9.419   0.987  18.918 -0.0875  0.1255  0.2062
78413W        W21429  12.519   3.055   9.283  0.1055 -0.2378 -0.4145
78414W        W21430  30.774  23.274   4.910 -0.0847  0.0159 -0.0867
78415W        W21431  33.297   0.424  17.710 -0.1434 -0.0489  0.0209
78416W        W21432  27.769   4.797  26.681 -0.1621 -0.0763  0.2635
78417W        W21433   2.497  17.336   3.796 -0.0116  0.0491 -0.1228
78418W        W21434  31.758  25.695  27.437  0.1843 -0.0268 -0.1845
78419W        W21435   3.408   5.067   7.151 -0.1013  0.0026  0.4080
78420W        W21436  20.510  34.125  18.227 -0.3396  0.0724 -0.3252
78421W        W21437   6.617  24.628   8.676 -0.0541  0.0318 -0.3147
78422W        W21438  25.362   6.343   1.393  0.0597 -0.2194  0.0134
78423W        W21439  18.324   4.757   0.625 -0.2018 -0.2237 -0.1656
78424W        W21440  20.297  21.014   6.083 -0.2263 -0.2529 -0.2681
78425W        W21441   3.215   7.932   0.732  0.1327 -0.2982 -0.4184
78426W        W21442  11.546  25.732  27.295  0.1210 -0.1003  0.1295
78427W        W21443   5.119   3.774   8.280 -0.1219 -0.1099 -0.2786
78428W        W21444   8.561   5.438   5.026 -0.1893 -0.1617 -0.1493
78429W        W21445   5.889   1.390   2.554 -0.0260  0.0233  0.1983
78430W        W21446   9.797  20.298   9.245  0.0606  0.0860 -0.0276
78431W        W21447  15.173  12.305  27.417 -0.2083  0.1711 -0.1414
78432W        W21448   8.899  31.036  26.771 -0.1831  0.3155  0.2306
78433W        W21449   9.741  32.920   1.683 -0.1330  0.1216  0.0485
78434W        W21450   7.802  11.037   2.788 -0.0903 -0.1264 -0.1248
78435W        W21451  12.591  34.028   7.846  0.0557 -0.1697  0.0452
78436W        W21452   6.959   6.413  10.027 -0.3166  0.2035 -0.1955
78437W        W21453  12.448  24.240  26.528 -0.0644  0.1406  0.0179
78438W        W21454   4.462   0.726   8.647  0.0132  0.2276  0.0567
78439W        W21455  34.604  15.190   1.373 -0.1797  0.1572 -0.0562
78440W        W21456   3.047   2.866   3.395  0.0285  0.2520  0.0758
78441W        W21457   6.953  31.104   6.100 -0.2189  0.1917  0.2581
78442W        W21458  10.780  30.732  25.661 -0.0354  0.2485 -0.1742
78443W        W21459   6.914  33.284  19.905  0.1140 -0.2184  0.0934
78444W        W21460  14.955  26.711  26.021  0.2293  0.2572 -0.1612
78445W        W21461  10.114   5.969   8.082 -0.2174  0.3316  0.2280
78446W        W21462   5.658  15.867   3.220  0.1055 -0.1138 -0.0214
78447W        W21463   5.014   1.720   2.927 -0.0736  0.3132  0.1848
78448W        W21464   8.298   0.944  10.952  0.1233  0.0391  0.0260
78449W        W21465  19.777   4.162  25.521  0.2977  0.2929  0.2137
78450W        W21466   4.934  21.443   3.280 -0.1994  0.1891 -0.2473
78451W        W21467   4.510   2.334  23.866 -0.2564 -0.1294  0.1565
78452W        W21468  12.148  23.082   2.497  0.0601 -0.2036  0.0270
78453W        W21469  11.607   0.365   5.324 -0.1643  0.0793 -0.0272
78454W        W21470  13.449  26.422   3.884  0.0494 -0.0420 -0.0300
78455W        W21471  34.670   8.079  22.183  0.1041  0.0729 -0.1090
78456W        W21472  20.797   9.503  19.989  0.1695  0.0701  0.0458
78457W        W21473  31.276  34.104   1.594 -0.0044 -0.1459  0.3394
78458W        W21474  24.994  15.609   3.338  0.2439 -0.0533  0.1482
78459W        W21475   5.167  31.812   3.405  0.1282  0.1048 -0.0761
78460W        W21476  14.564   3.966   7.258 -0.0616  0.2102  0.0043
78461W        W21477  10.625   0.622  14.181  0.1029 -0.1357 -0.1186
78462W        W21478  20.912  10.132  25.759  0.1328 -0.2196  0.0059
78463W        W21479  32.933  31.895  21.916  0.0793 -0.1491 -0.0196
78464W        W21480  25.052  10.397   2.546 -0.1987  0.1581  0.1985
78465W        W21481  13.019  14.024   2.728 -0.1785 -0.0664  0.0251
78466W        W21482  20.320  21.357  19.591 -0.0772 -0.0997 -0.0398
78467W        W21483  33.523  32.719  24.955 -0.0723  0.0100 -0.1781
78468W        W21484  22.307  32.346   5.057 -0.2221  0.2293 -0.1414
78469W        W21485   7.030   2.012  18.063  0.1419 -0.0264 -0.1072
78470W        W21486   1.114  18.642   6.244  0.3903  0.1466  0.3345
78471W        W21487  10.392   2.769  18.247  0.1759 -0.1313 -0.1830
78472W        W21488  11.517   8.023   8.549 -0.1057  0.2361  0.3969
78473W        W21489  12.149   2.507  26.005  0.0056 -0.2254  0.2267
78474W        W21490  14.323   7.816   7.559 -0.0721  0.2361  0.1110
78475W        W21491   8.261   5.998   0.722  0.0765  0.3449 -0.0383
78476W        W21492  30.274  13.471  20.471 -0.1317  0.0517  0.0841
78477W        W21493   8.483   7.524  25.103 -0.0198 -0.0272  0.0308
78478W        W21494   9.075  26.882   2.021  0.0442  0.1110  0.4528
78479W        W21495   9.221  22.308   2.438 -0.1874 -0.1153 -0.1397
78480W        W21496   9.220  10.019  26.185  0.1006 -0.3613  0.2437
78481W        W21497   1.704  18.783   2.515  0.0539  0.1989 -0.2015
78482W        W21498   6.557  19.669   4.061  0.1321  0.1060  0.2448
78483W        W21499   7.202   1.555  18.163 -0.1634 -0.1992 -0.0767
78484W        W21500   2.403   8.424  23.990 -0.1903  0.1136 -0.0615
78485W        W21501   6.144  12.812   3.012 -0.0427  0.1420  0.2286
78486W        W21502  11.696   3.145   5.613  0.3354  0.1538  0.1520
78487W        W21503  18.120  34.627  28.476 -0.2719 -0.1041 -0.0576
78488W        W21504  16.856   4.964   5.664  0.0353  0.0445 -0.0670
78489W        W21505  18.922  15.289  23.255  0.1183 -0.2706  0.1757
78490W        W21506  12.403  16.141  23.208  0.1700  0.2486 -0.1350
78491W        W21507  26.430  31.588  23.144 -0.0978 -0.1177 -0.0031
78492W        W21508  12.203  14.351  21.931  0.0798  0.2604  0.1266
78493W        W21509  28.498  18.587   9.933 -0.0126  0.1534 -0.1171
78494W        W21510  27.255  10.215   1.797  0.1850  0.1208  0.1107
78495W        W21511  14.594   7.767  15.597 -0.1341 -0.0599 -0.0137
78496W        W21512  22.085  11.665   4.407 -0.0458 -0.0587 -0.4094
78497W        W21513  22.271  11.946  19.520  0.1232 -0.0171  0.1879
78498W        W21514  11.499   2.169   9.266  0.1398  0.0198  0.0200
78499W        W21515  16.405   1.524  21.019  0.0870  0.1476 -0.1509
78500W        W21516  23.859   6.186   3.723 -0.1987  0.0696  0.1937
78501W        W21517   8.167  29.832   5.221 -0.0799 -0.2016  0.1910
78502W        W21518   8.514  34.323   5.018  0.0900  0.2786  0.0534
78503W        W21519  13.524  13.046  27.194 -0.1195  0.0733  0.2995
78504W        W21520  32.538  21.578  15.737 -0.0943 -0.3713 -0.1173
78505W        W21521   1.396  12.032   2.848 -0.1450 -0.0784  0.0598
78506W        W21522   6.360  20.288   2.678 -0.5604 -0.3218  0.1141
78507W        W21523  25.426  31.028   9.662  0.3038  0.0318  0.1980
78508W        W21524   7.666   1.208   1.381  0.1722 -0.2864 -0.1150
78509W        W21525   8.219   7.528  28.396  0.0756  0.1060  0.0359
78510W        W21526  10.151  32.628  29.239  0.0448 -0.0474 -0.1824
78511W        W21527   9.399  23.616  21.579 -0.1661  0.0594 -0.0001
78512W        W21528   7.720  26.153  23.786 -0.0012  0.2397  0.1516
78513W        W21529  28.450   4.006  29.253 -0.0263  0.1101  0.1039
78514W        W21530  17.505  20.628   6.695  0.0158 -0.2096 -0.0906
78515W        W21531   6.066   6.040   2.195 -0.1466 -0.3696 -0.1252
78516W        W21532  10.168   6.534   4.480 -0.3379  0.1344  0.3940
78517W        W21533  32.170  16.357  28.203 -0.0578 -0.1468  0.1847
78518W        W21534   9.350  31.696   6.604 -0.3204 -0.0801 -0.1238
78519W        W21535  16.278  18.212  28.997  0.3483  0.1108  0.1268
78520W        W21536   0.206   8.742  20.357  0.1449  0.2411  0.0884
78521W        W21537   7.030  31.820   4.122  0.1781 -0.1257  0.2302
78522W        W21538   9.396   0.231   1.827 -0.4995  0.2363  0.0867
78523W        W21539  10.525   7.307   5.771 -0.1460 -0.0998 -0.2290
78524W        W21540  18.023  12.645   3.406 -0.2282 -0.0444 -0.0792
78525W        W21541   4.363  11.789   9.045 -0.0646  0.0537  0.1755
78526W        W21542  19.930  18.675   8.304  0.0952  0.1265 -0.1954
78527W        W21543  11.955  10.422  20.405  0.4001 -0.3388 -0.2841
78528W        W21544   5.644  32.993   4.458  0.0219 -0.1990 -0.1548
78529W        W21545  34.201   6.631   7.635 -0.1486 -0.4295  0.1517
78530W        W21546  10.889  30.177  25.706 -0.2024 -0.0867 -0.0295
78531W        W21547   7.479  18.799  14.353  0.1814 -0.2815  0.0637
78532W        W21548  17.985   3.790  22.380  0.1346 -0.4836  0.2184
78533W        W21549   6.225  20.995  22.123 -0.0060  0.2678 -0.4901
78534W        W21550  31.866   0.607   6.135 -0.0587 -0.1962  0.1223
78535W        W21551   1.107  29.992   6.325 -0.1144 -0.0693  0.3201
78536W        W21552  14.923   3.960   3.737  0.1018 -0.0805 -0.0807
78537W        W21553  16.892  16.089  25.515  0.0252  0.0507 -0.0667
78538W        W21554  29.920   1.569   6.182 -0.1317 -0.0119 -0.1203
78539W        W21555   0.252   5.868  26.509 -0.1280 -0.1932  0.3632
78540W        W21556   4.780   6.475   1.352 -0.2190  0.1078  0.1393
78541W        W21557  26.195  23.534  28.684 -0.2378  0.0077 -0.0593
78542W        W21558  17.815  20.472   5.161 -0.4420 -0.0999 -0.4080
78543W        W21559  31.569  31.693   2.799 -0.1975  0.1919 -0.3688
78544W        W21560  29.905  32.781   2.687  0.1859 -0.2414 -0.1257
78545W        W21561   7.361  13.480   3.932 -0.0773 -0.2312  0.0310
78546W        W21562   3.925   5.960   3.833  0.0160  0.1587  0.0508
78547W        W21563   8.255   7.798  29.253 -0.0907  0.1589  0.1140
78548W        W21564   4.653  32.406  27.237  0.3709  0.0172  0.1312
78549W        W21565  13.344  16.921  28.345 -0.2037  0.1439 -0.0784
78550W        W21566  33.572  15.829   4.131  0.0200 -0.1934  0.1077
78551W        W21567  32.669  11.880   9.533 -0.0857  0.0962 -0.0900
78552W        W21568  28.258  24.911   3.543  0.3161 -0.0545  0.0949
78553W        W21569   9.585   6.119   8.080 -0.1152 -0.0806  0.1695
78554W        W21570  18.138  11.096  17.835 -0.0001  0.1577  0.0107
78555W        W21571   4.994   9.154   9.717  0.0681  0.1995 -0.0775
78556W        W21572  31.749   6.545   2.206 -0.0067 -0.5112 -0.2350
78557W        W21573  14.875  10.946  27.230 -0.0816  0.2830 -0.0751
78558W        W21574  16.609   7.382   4.193  0.0404  0.0412 -0.0316
78559W        W21575  12.537  11.302   8.254 -0.2759  0.0342  0.0390
78560W        W21576   2.570   0.249   7.531  0.3138  0.1026  0.1727
78561W        W21577  15.565  11.078  28.927  0.3152  0.4309 -0.2392
78562W        W21578   5.820  13.386  24.800  0.0493 -0.3839 -0.1500
78563W        W21579   7.164  15.561  26.329 -0.1359 -0.0341  0.0422
78564W        W21580  16.399   1.458  23.905 -0.0700  0.1437 -0.1212
78565W        W21581   8.035  30.032   2.273  0.1576 -0.1642  0.0872
78566W        W21582  10.787   6.591   6.608 -0.0760  0.0308 -0.1137
78567W        W21583   4.715  14.009   4.681  0.4054 -0.2407  0.0545
78568W        W21584   4.634  12.944  20.273 -0.0561  0.2679  0.3484
78569W        W21585  33.730  18.697   0.304 -0.0449 -0.0563 -0.0080
78570W        W21586   9.104   6.669   8.126 -0.0039  0.2371  0.1479
78571W        W21587  21.284  30.927   3.671  0.2410 -0.1091 -0.2169
78572W        W21588  26.838  34.295  18.687 -0.0841 -0.1192 -0.3045
78573W        W21589   8.416  32.347   4.504  0.3320  0.1623 -0.6989
78574W        W21590  12.399  13.869   5.948 -0.1169  0.1062 -0.1261
78575W        W21591   8.683   1.383   8.666  0.1349  0.0384 -0.0051
78576W        W21592  16.161  16.830   4.630 -0.1714  0.4168  0.2015
78577W        W21593   6.959  27.665  10.106  0.0302  0.3327  0.2138
78578W        W21594   6.945  12.537   0.663  0.0856 -0.0534  0.3257
78579W        W21595   6.296  34.168  22.692  0.1547 -0.0030 -0.0795
78580W        W21596  17.959  15.696   3.839  0.0491  0.0073 -0.1210
78581W        W21597  24.601  25.661  10.365  0.0292  0.0446 -0.0553
78582W        W21598  16.893   9.937  26.068 -0.1848 -0.3856 -0.0617
78583W        W21599  23.313   7.376  27.815  0.1028  0.2059 -0.2011
78584W        W21600  34.692   0.632   4.443 -0.0972  0.3941 -0.2055
78585W        W21601   2.902   2.010  17.645  0.1065  0.1227  0.2222
78586W        W21602  22.316  17.484  28.757  0.2991  0.1460 -0.0100
78587W        W21603   5.194   2.045   3.694 -0.0444  0.0847 -0.0302
78588W        W21604  12.164  14.920  27.868 -0.4245 -0.0536  0.1719
78589W        W21605  16.108  24.356  19.113  0.4047  0.2030  0.0152
78590W        W21606  30.233   6.830   3.193  0.0735  0.3896  0.1516
78591W        W21607  10.206  11.418   5.073  0.0176 -0.0538 -0.1230
78592W        W21608  30.927  13.824  22.935  0.1572 -0.0773 -0.0569
78593W        W21609  18.549  32.920   6.302  0.0640  0.1821  0.1710
78594W        W21610  28.157  26.724   5.174  0.1598  0.1694  0.0687
78595W        W21611  19.873   7.212  27.957 -0.1768  0.0402 -0.1147
78596W        W21612   8.196  12.187   8.329 -0.1114 -0.2995 -0.0144
78597W        W21613   6.961   5.725   2.537 -0.0512  0.0035  0.2491
78598W        W21614   7.169  14.060   6.746 -0.0871 -0.2061 -0.3002
78599W        W21615  20.594  12.031   5.608  0.1943  0.4095 -0.2745
78600W        W21616  10.496   0.669  24.724  0.0266 -0.3100  0.1341
78601W        W21617   6.487  10.432   7.749 -0.0555 -0.2124 -0.0228
78602W        W21618  26.794   7.091  10.256  0.1537 -0.0648 -0.0370
78603W        W21619   4.866   8.767   9.227  0.1528  0.0477 -0.0264
78604W        W21620   2.538  13.174   8.644  0.0158  0.2690  0.1473
78605W        W21621  19.063   4.510   5.473 -0.2068  0.0461 -0.1764
78606W        W21622   4.223   0.255   9.855  0.0966  0.0463  0.1644
78607W        W21623  12.510  33.930   2.013 -0.2762  0.1529 -0.2230
78608W        W21624   0.267  31.636   9.259 -0.1975  0.0353 -0.1888
78609W        W21625  25.367   4.427   3.487 -0.0214  0.0283  0.0354
78610W        W21626  29.955  12.573  24.550 -0.0122  0.1396  0.2770
78611W        W21627   3.712  14.257  25.801 -0.1880 -0.1203 -0.3921
78612W        W21628  12.960   5.239   7.998 -0.2050 -0.0426  0.3814
78613W        W21629   4.547  10.802   9.692 -0.1187 -0.3055  0.1291
78614W        W21630  12.459  33.451  22.903 -0.1285 -0.1754 -0.1085
78615W        W21631  16.494   5.571   8.475  0.2003  0.0066 -0.1590
78616W        W21632   0.150   9.968   8.471  0.3582  0.5157 -0.1742
78617W        W21633  14.348   2.272   9.163 -0.3308 -0.2869 -0.0770
78618W        W21634   4.848  28.674   8.352 -0.0183 -0.1450  0.2925
78619W        W21635   3.290   7.209   3.819  0.1141 -0.0743 -0.0145
78620W        W21636   9.505  25.082   0.554  0.2034 -0.2446  0.3125
78621W        W21637  34.776  15.649   3.820  0.0184 -0.1808  0.2669
78622W        W21638   4.435   6.056  10.764  0.2121  0.1055 -0.0947
78623W        W21639   6.919  27.367   6.100 -0.0837 -0.2101  0.0566
78624W        W21640  26.236  26.518  11.226 -0.2816 -0.2284 -0.0080
78625W        W21641  18.613  33.358   7.159  0.4966 -0.2050  0.2225
78626W        W21642  10.490   3.592  29.109  0.2565  0.3300 -0.2130
78627W        W21643  13.373   6.798   5.368  0.2578  0.1472 -0.0441
78628W        W21644  10.822  34.272  28.759  0.0297  0.0496  0.1154
78629W        W21645  12.528  14.258   6.290  0.2724 -0.2796  0.0415
78630W        W21646   0.261   7.198   9.111 -0.3580 -0.0375  0.0334
78631W        W21647   1.945  31.889   3.315 -0.2789  0.0233 -0.2044
78632W        W21648  17.390   7.482   7.684 -0.0460  0.1328 -0.0132
78633W        W21649  18.206  30.962   4.077  0.0352 -0.0978 -0.1314
78634W        W21650   2.403  27.353  14.580  0.0595 -0.0588  0.0777
78635W        W21651  21.640   6.032  23.327 -0.0188 -0.3282 -0.0612
78636W        W21652   4.501  25.643  23.326 -0.1942 -0.0706 -0.0836
78637W        W21653  32.550   8.634   8.156  0.0238  0.1807 -0.3173
78638W        W21654   6.930   8.245   2.405 -0.1814 -0.0744 -0.0489
78639W        W21655   1.407  13.587   2.532  0.1770  0.0076  0.2572
78640W        W21656  13.362  14.920  24.710 -0.0648 -0.0522 -0.0298
78641W        W21657  12.378  23.984  29.251  0.2831 -0.0447 -0.0207
78642W        W21658   3.010  20.137   7.112 -0.1725  0.0350  0.0915
78643W        W21659  31.523   5.967   0.451  0.0646 -0.0296 -0.2987
78644W        W21660  16.005   8.082  22.169 -0.0585  0.1470  0.1445
78645W        W21661  33.011  16.885  24.380 -0.0260 -0.0037 -0.3272
78646W        W21662  24.121  16.826  18.237 -0.2533 -0.1759  0.1813
78647W        W21663   7.245  29.808   5.038  0.0083 -0.2613 -0.0827
78648W        W21664   3.623   4.960   8.425  0.1005  0.1094 -0.0233
78649W        W21665   8.569  27.389   7.912 -0.1288 -0.0077 -0.1345
78650W        W21666   7.342  11.533   9.363  0.1938  0.1519  0.0049
78651W        W21667  10.505   2.996   5.094  0.0123 -0.0327 -0.0473
78652W        W21668  19.580   1.485   5.414 -0.2551 -0.0838  0.1500
78653W        W21669  16.905  11.592  20.423 -0.0802 -0.1285 -0.3972
78654W        W21670  12.688   5.517   5.328  0.0557 -0.0538 -0.0047
78655W        W21671  22.907  34.691  10.529  0.0630  0.1744  0.1252
78656W        W21672   3.645  13.970  10.001  0.1678 -0.1299  0.0163
78657W        W21673   8.661  33.217  25.776 -0.3178  0.3256  0.0816
78658W        W21674  14.587  19.075  27.368 -0.3167  0.0982  0.0805
78659W        W21675  15.665  17.637  20.385  0.1003 -0.1148 -0.0692
78660W        W21676   6.708   6.107  28.029  0.0572  0.0882  0.1427
78661W        W21677   8.766  26.688   0.622  0.1159 -0.1336  0.0341
78662W        W21678  24.532  13.747  20.925  0.7895  0.0379  0.0733
78663W        W21679  17.273  34.648   2.653 -0.2726  0.0332 -0.0821
78664W        W21680   3.272   6.678   0.917  0.3381  0.2459  0.1910
78665W        W21681  15.421   9.280   2.456 -0.1983 -0.1753 -0.1457
78666W        W21682  15.983  26.458   4.624 -0.1025 -0.0751 -0.3338
78667W        W21683  14.233  14.036   4.965  0.2229  0.1003 -0.0611
78668W        W21684   7.663   6.978   6.922 -0.2798 -0.2665  0.4099
78669W        W21685  12.680  18.565   4.729 -0.0138  0.0676  0.2417
78670W        W21686   4.102   6.187   6.894  0.2643  0.0179 -0.0403
78671W        W21687  33.517  12.703  24.333  0.1297 -0.0344 -0.2066
78672W        W21688   7.890   9.558   0.399  0.2465 -0.1832 -0.2543
78673W        W21689  24.266   3.105   9.814  0.2041 -0.0487 -0.1950
78674W        W21690   9.181  17.568   6.326 -0.0310  0.0902 -0.0083
78675W        W21691  23.993  17.588  28.870 -0.1191  0.0486 -0.1915
78676W        W21692  18.308   1.446   6.122  0.0466  0.0424  0.2936
78677W        W21693  11.091   9.758   2.778 -0.0767  0.1802 -0.1094
78678W        W21694  14.177   6.693  26.748  0.0452  0.1605  0.0854
78679W        W21695   5.803   7.548   1.503  0.0296  0.1947  0.1937
78680W        W21696   5.642  21.257   1.885  0.1013 -0.0883  0.3020
78681W        W21697  12.434   5.890   5.111 -0.0001 -0.1581 -0.1594
78682W        W21698  32.809  26.484   7.707  0.1965 -0.1037 -0.3304
78683W        W21699  34.385  34.434  24.273 -0.3630 -0.0223 -0.0299
78684W        W21700   7.677   5.040   5.642 -0.4051 -0.3630 -0.2118
78685W        W21701  14.764   0.175   3.490  0.0436  0.2255 -0.0556
78686W        W21702  32.931   7.276   5.808 -0.0838  0.0669  0.0860
78687W        W21703  25.050  14.744   7.706 -0.2982  0.1257 -0.0242
78688W        W21704  32.231  34.751  26.771  0.2506 -0.2031  0.0011
78689W        W21705   1.023  19.326   4.959  0.0053  0.0120 -0.3224
78690W        W21706  30.839  27.805   7.311  0.1067  0.0368  0.2495
78691W        W21707   2.814  15.975   8.147 -0.1680 -0.0143 -0.0282
78692W        W21708  20.049  10.161  29.008  0.1139 -0.0195 -0.0274
78693W        W21709  23.741  27.317   0.499 -0.0532 -0.0506  0.2725
78694W        W21710   9.566  11.106   3.742 -0.3038 -0.2515  0.2398
78695W        W21711   4.728  14.745  24.590 -0.0552  0.2004 -0.2853
78696W        W21712   2.570  21.428  27.182 -0.2800  0.2271 -0.2497
78697W        W21713  15.856  14.342   8.595 -0.0224  0.1089 -0.1595
78698W        W21714   7.271  24.132   7.400 -0.0245  0.0853 -0.0941
78699W        W21715  25.543   3.991  10.271 -0.0610 -0.0382  0.0480
78700W        W21716   0.375   8.133   7.466  0.2833  0.0283  0.2329
78701W        W21717   0.763  12.881  10.587 -0.0558 -0.0043 -0.0418
78702W        W21718   0.662  26.321  27.420  0.2624 -0.3390 -0.0356
78703W        W21719   1.367  33.702   8.782  0.1078 -0.0771 -0.2394
78704W        W21720  29.661  30.313  23.723  0.3260  0.1760 -0.0131
78705W        W21721   6.814  13.720   2.450  0.1184  0.3985 -0.1593
78706W        W21722   4.608   1.968   3.934  0.2723  0.0560 -0.0835
78707W        W21723  21.135  33.446   9.028  0.1440 -0.1328  0.1998
78708W        W21724  33.132  11.252   7.465 -0.2870 -0.3893 -0.4715
78709W        W21725  14.913  21.482  25.081  0.4725 -0.1190  0.1893
78710W        W21726  12.054  12.236   4.408  0.2728  0.1036 -0.0151
78711W        W21727  27.499   5.659  23.865 -0.0063  0.2108  0.0883
78712W        W21728   7.730  18.087   2.849 -0.1411  0.0910  0.0969
78713W        W21729  20.194  18.692  15.590 -0.4315 -0.2093  0.0925
78714W        W21730   9.847  11.415  29.284  0.0547  0.1588 -0.1943
78715W        W21731   5.836   9.398  27.439  0.3089 -0.3330  0.0581
78716W        W21732  17.752  22.565  26.016  0.0457 -0.0986  0.2060
78717W        W21733  29.011  30.321   2.754 -0.0610  0.1274  0.2005
78718W        W21734   8.271   2.109   1.671  0.2991 -0.1379  0.0143
78719W        W21735  29.869  16.030   5.156  0.0378 -0.2687  0.1116
78720W        W21736   1.097  18.756   8.908  0.2717  0.2325 -0.1535
78721W        W21737  30.248  15.820   2.162  0.1763 -0.4195  0.0620
78722W        W21738  12.645  27.107   7.063  0.0585 -0.0504 -0.1384
78723W        W21739  20.357   4.464  29.209  0.0106 -0.1722 -0.0361
78724W        W21740   4.488   3.162   5.595  0.1440  0.0068 -0.3615
78725W        W21741  27.020  33.457   8.301 -0.1682 -0.0234  0.0014
78726W        W21742   4.175  22.901   1.929  0.0115 -0.0397  0.0703
78727W        W21743   5.359  12.925   5.188  0.1609 -0.1855  0.0983
78728W        W21744  15.388   2.785   0.075 -0.0121  0.2093 -0.2035
78729W        W21745   1.971  32.688   9.775  0.2311  0.0827  0.0543
78730W        W21746  16.179   6.189   5.844  0.0316  0.2675 -0.2469
78731W        W21747  20.994   3.787  18.247 -0.2205 -0.1324  0.1027
78732W        W21748  29.267  17.505   7.125 -0.0838  0.0844  0.1230
78733W        W21749  17.037   1.730  29.045 -0.1361  0.0382  0.0047
78734W        W21750  29.575   3.227   5.108  0.0474  0.0721  0.1491
78735W        W21751  17.957   0.886  10.106 -0.1902 -0.0620 -0.1384
78736W        W21752  17.963  29.222   7.889  0.0552  0.0302 -0.1388
78737W        W21753   4.151   5.484  25.161  0.5961  0.2683 -0.3921
78738W        W21754   9.303   1.278  19.502 -0.1515 -0.2148  0.2625
78739W        W21755  19.857   0.525   5.395 -0.0798 -0.0125 -0.1723
78740W        W21756   2.388  31.789   4.884  0.4534  0.1520 -0.0585
78741W        W21757   7.548   4.500   9.465 -0.0317 -0.0577  0.2440
78742W        W21758   0.553  10.909  28.025 -0.0510  0.1111  0.1362
78743W        W21759  33.474  19.373   0.013 -0.1385  0.2299  0.3496
78744W        W21760  20.923  29.589  27.125 -0.0775 -0.0394  0.1230
78745W        W21761  34.660   1.746   5.126  0.3928 -0.2195  0.1210
78746W        W21762  25.527  26.065  10.675 -0.0953 -0.1821  0.0225
78747W        W21763   6.001   6.994   8.237  0.1607 -0.3529  0.0976
78748W        W21764  20.757   6.212   8.758  0.0408 -0.0647 -0.2163
78749W        W21765   2.883   4.628   4.002  0.1508 -0.1484  0.5412
78750W        W21766  27.599  24.410   5.320  0.1487  0.2421 -0.0661
78751W        W21767  29.136   9.332  26.436  0.1412  0.1543 -0.2820
78752W        W21768   2.293  12.655   5.241 -0.2427 -0.0781  0.0336
78753W        W21769   7.495   9.907  23.722 -0.3007  0.2683  0.0904
78754W        W21770   9.724  28.892   3.634 -0.1271  0.1332 -0.1882
78755W        W21771  20.495  31.974   2.581  0.2288  0.0306 -0.2749
78756W        W21772   7.799  12.830   3.707 -0.1637  0.1256 -0.1129
78757W        W21773   4.600  33.420   9.097  0.0904 -0.0466 -0.2279
78758W        W21774  28.417   1.261   7.714 -0.0147 -0.2322 -0.3861
78759W        W21775   4.316  16.383  26.566 -0.3476  0.0801 -0.2132
78760W        W21776  17.783  30.789  11.201 -0.1200  0.1168 -0.0405
78761W        W21777  31.663   5.668   8.476  0.0311 -0.2624  0.4680
78762W        W21778  13.839  33.567   5.446 -0.2352 -0.2612  0.0792
78763W        W21779   9.767   8.852   7.994 -0.4508 -0.0973 -0.0500
78764W        W21780  19.315  13.395  29.182  0.1316 -0.1860 -0.1488
78765W        W21781  13.682  19.430  14.936  0.1965 -0.3050  0.1671
78766W        W21782  23.763  33.430  10.232  0.0829  0.3697  0.0084
78767W        W21783  17.892   5.275  28.446 -0.0910  0.0354  0.2105
78768W        W21784  12.828   2.534   3.297  0.3416  0.0231 -0.1479
78769W        W21785   0.036  31.889   6.611 -0.2314 -0.2699 -0.0020
78770W        W21786  30.720   3.556   5.845 -0.3083 -0.1401 -0.3388
78771W        W21787   3.183  30.081   2.998 -0.1057  0.1030 -0.0732
78772W        W21788  19.263   0.314   6.935  0.1675  0.0952 -0.3234
78773W        W21789  15.532  20.447  24.034 -0.0373 -0.0525  0.1158
78774W        W21790  33.274  30.458   2.226  0.2080 -0.0345  0.2364
78775W        W21791  19.451  32.103  25.534  0.0127  0.0815 -0.2686
78776W        W21792  12.870  10.426  18.748  0.0761 -0.0226  0.2113
78777W        W21793  28.595  12.429  28.820 -0.1351 -0.1225  0.2365
78778W        W21794  17.887  29.812  10.753  0.1497 -0.2446  0.4284
78779W        W21795   7.353   2.695  25.840  0.1094  0.2067  0.3017
78780W        W21796   7.170   8.650   9.886  0.1516  0.1515 -0.2631
78781W        W21797  14.179  21.245  22.569  0.0181 -0.1977 -0.1000
78782W        W21798   7.323  31.365   1.377  0.0451 -0.0164  0.2233
78783W        W21799  10.790  16.872   5.949  0.5256 -0.0707 -0.0089
78784W        W21800  13.478  27.654   3.866 -0.1621  0.4922 -0.1086
78785W        W21801  10.137   7.943  18.980  0.3259  0.1581 -0.1493
78786W        W21802  33.924   4.655   3.658 -0.0587  0.1199  0.1189
78787W        W21803   1.978  15.898  23.570 -0.1717 -0.3725  0.1142
78788W        W21804   3.876  13.068   5.507  0.1531  0.3617 -0.1094
78789W        W21805  14.201  15.968   6.098  0.1051 -0.0171 -0.0014
78790W        W21806   5.183   2.094   6.351  0.2079  0.0364 -0.2618
78791W        W21807   6.335   9.103  24.816 -0.0554  0.0982  0.1721
78792W        W21808  24.888   1.507  23.062  0.0153 -0.0899  0.0787
78793W        W21809  21.416  13.038  28.402  0.1518 -0.0883 -0.0114
78794W        W21810   7.821  26.469   7.204 -0.3159  0.2537  0.1414
78795W        W21811  22.347  10.694  27.249 -0.2246 -0.1256  0.0498
78796W        W21812   2.960  10.607   5.328  0.0918 -0.1760 -0.1522
78797W        W21813   6.947  28.446  21.902  0.0187 -0.1092  0.1585
78798W        W21814  21.107   5.490  22.714 -0.2596  0.0079  0.0385
78799W        W21815   3.884   9.775  26.693  0.3607  0.1165  0.2704
78800W        W21816   4.243  16.663   0.737  0.0860  0.1118 -0.1940
78801W        W21817   5.531  23.349   8.632 -0.4569  0.0180 -0.0401
78802W        W21818   9.573  10.747  10.173  0.2874 -0.3173 -0.1425
78803W        W21819  16.147  34.270  28.407  0.0314 -0.1691  0.0431
78804W        W21820   9.981  29.634   2.291  0.0604  0.0290  0.1982
78805W        W21821   2.703   3.554   2.041  0.3289 -0.0710  0.5637
78806W        W21822   3.799  33.858   0.320  0.0813 -0.1912  0.0558
78807W        W21823  31.667  30.226  24.542 -0.0750  0.0438 -0.1541
78808W        W21824  18.449  16.117   6.345  0.1862  0.0617  0.0624
78809W        W21825   2.462   0.897  21.598  0.0409  0.0714 -0.0333
78810W        W21826   9.554  10.835  25.213  0.0811  0.0454  0.4028
78811W        W21827  24.623   3.152   2.222 -0.0520 -0.0781 -0.3421
78812W        W21828  18.852   7.052   2.040  0.1149  0.1353  0.0224
78813W        W21829   4.463  30.548   1.441 -0.4090 -0.3236 -0.0003
78814W        W21830   4.792   8.999   8.051 -0.0700  0.2487  0.1367
78815W        W21831  18.384  10.700   2.023 -0.1658  0.1484  0.0728
78816W        W21832   1.007   6.540   4.470 -0.0939 -0.0450 -0.0494
78817W        W21833  15.538   9.414   5.367 -0.0374 -0.2758  0.0459
78818W        W21834   0.137  14.760   6.986  0.0725  0.1555  0.0531
78819W        W21835   8.612   9.441   2.103  0.0957 -0.0706  0.0426
78820W        W21836  15.405  17.081  22.627 -0.1894 -0.2531 -0.0104
78821W        W21837  34.245  11.154  25.215  0.2346  0.2047 -0.2032
78822W        W21838  15.377  29.156  15.619 -0.0832  0.1198 -0.0787
78823W        W21839  16.459  12.541   3.021  0.0403 -0.3228  0.5308
78824W        W21840   2.046   8.260  27.072 -0.0629  0.4664  0.3726
78825W        W21841   2.244   4.728   7.396 -0.0267 -0.0083  0.3182
78826W        W21842  13.373  19.195  22.358 -0.1218  0.0121 -0.0457
78827W        W21843  10.252  33.247   2.869 -0.1824 -0.0221  0.0533
78828W        W21844  18.023   5.957   8.099 -0.2943 -0.1809 -0.3253
78829W        W21845   6.779  14.361   6.738  0.0084 -0.3357 -0.4052
78830W        W21846   0.513   7.945   5.772  0.2752  0.2992  0.0657
78831W        W21847   8.506  17.812  26.932  0.3598  0.0992  0.1587
78832W        W21848  10.627   1.358   2.573 -0.2115 -0.0376 -0.1056
78833W        W21849  12.213  32.556   8.309  0.1403  0.2106 -0.0989
78834W        W21850   7.321   4.439   7.295  0.0525 -0.0236 -0.0426
78835W        W21851   9.250  29.568   0.484 -0.2007  0.2648  0.1404
78836W        W21852  12.103   9.333  26.925  0.1644 -0.0158 -0.0791
78837W        W21853  10.602  15.142   8.819 -0.0547  0.0171 -0.2526
78838W        W21854   4.764  10.288  24.383 -0.1273  0.2906  0.3504
78839W        W21855  25.423   8.243  11.036 -0.0282 -0.0417 -0.1067
78840W        W21856  21.028  27.665  21.696  0.2163 -0.0869 -0.3175
78841W        W21857   8.959   1.405   8.195  0.2965  0.0832  0.0802
78842W        W21858   1.244   9.120   7.858 -0.0739  0.0178 -0.1392
78843W        W21859   8.209  27.444   4.262  0.2042 -0.0100  0.2105
78844W        W21860   0.243   1.943  10.689  0.3092  0.5433  0.1512
78845W        W21861  12.654  31.655   0.076  0.0628  0.1377 -0.0687
78846W        W21862  34.239  11.574   0.056  0.4419  0.0969 -0.2079
78847W        W21863  34.568   5.819  26.325 -0.3960  0.2647 -0.1410
78848W        W21864   5.412  14.193  26.239 -0.1630 -0.0973  0.2147
78849W        W21865   9.339  10.819  26.321  0.3467 -0.2017 -0.0579
78850W        W21866  20.431   9.100   0.779  0.1302  0.0033  0.1060
78851W        W21867  22.768  13.549  23.508  0.1696  0.0722 -0.1826
78852W        W21868   5.241   2.628  26.670  0.0652  0.0592 -0.1643
78853W        W21869  33.123   0.983   8.429 -0.0480 -0.2079 -0.1968
78854W        W21870  17.085  32.155   0.577 -0.1673  0.1309 -0.1329
78855W        W21871  25.735   5.778   6.140 -0.2335  0.2909 -0.0168
78856W        W21872   8.742  34.771   9.045  0.2750  0.1413 -0.0166
78857W        W21873  11.779   2.338   0.566 -0.0622  0.1428  0.2613
78858W        W21874  28.774   1.783   8.781  0.0165  0.1765  0.0494
78859W        W21875  33.869  28.347   7.616  0.1496  0.1880 -0.1425
78860W        W21876  27.508   1.525  10.489  0.1994  0.0229 -0.0867
78861W        W21877  27.529  20.547  14.722 -0.2155  0.1333  0.0732
78862W        W21878  27.837   2.343  10.773 -0.1138  0.1356 -0.1785
78863W        W21879   6.642  16.929  28.797 -0.3112  0.3294 -0.0548
78864W        W21880  34.373   2.318   3.352  0.1012 -0.2242 -0.0963
78865W        W21881  28.056  27.257   0.192  0.0162  0.0816 -0.1482
78866W        W21882   2.781   4.367   7.424  0.1351 -0.0321 -0.0646
78867W        W21883  11.069  12.230  20.852  0.1462  0.1048  0.0525
78868W        W21884   8.818  33.482  27.766 -0.0764  0.1049 -0.0390
78869W        W21885  16.988  30.315  24.240 -0.2428  0.0002  0.3056
78870W        W21886  21.338   4.478  26.632  0.1230 -0.1051 -0.1671
78871W        W21887  21.493  10.181  27.813 -0.0383 -0.1598  0.1930
78872W        W21888  20.428  19.094  15.407  0.0492 -0.2088  0.2714
78873W        W21889  11.844   4.177   4.016 -0.0167 -0.3351  0.0355
78874W        W21890  34.625   0.859   3.578  0.1074  0.3551 -0.1165
78875W        W21891  32.172  21.104   4.875 -0.0375  0.2643  0.4050
78876W        W21892   6.455   8.547   7.582 -0.1930  0.0899  0.1481
78877W        W21893  14.433  31.959   5.329  0.0458 -0.0354  0.0426
78878W        W21894  17.797  31.446   5.813  0.0903  0.0868 -0.2100
78879W        W21895  33.697   6.129   6.131 -0.0049  0.0749  0.4390
78880W        W21896   1.291  12.220  23.789  0.0545  0.0472 -0.0366
78881W        W21897  10.935  22.984  26.285  0.0557 -0.0550 -0.1538
78882W        W21898  16.001  15.030  24.717  0.0563 -0.0064  0.0521
78883W        W21899  14.874  11.271   0.231 -0.0466  0.0582 -0.2148
78884W        W21900  10.013   4.580   9.219 -0.0496  0.1296  0.0208
78885W        W21901   6.659   6.104   0.023  0.1377 -0.0642 -0.1767
78886W        W21902  31.992  13.394  23.342 -0.0998 -0.0771 -0.0246
78887W        W21903  23.174  29.769  29.279  0.1175 -0.0622  0.0764
78888W        W21904  27.182  31.301   1.185 -0.0868  0.1791 -0.0651
78889W        W21905   0.903  34.422   8.922  0.1482 -0.2507  0.1491
78890W        W21906  33.638  10.035  24.260 -0.2351  0.0445 -0.1417
78891W        W21907   6.987  24.431   4.177 -0.1168 -0.1381 -0.4857
78892W        W21908  34.467   2.831   8.793  0.0583 -0.0583 -0.2610
78893W        W21909  14.818  10.149   3.951  0.0657 -0.3095 -0.3656
78894W        W21910  30.738  33.718  26.705  0.2462  0.0397  0.1464
78895W        W21911  14.186  30.756   9.929  0.0819 -0.0395 -0.0879
78896W        W21912  20.922  11.481   2.564  0.2541  0.0437  0.0621
78897W        W21913   5.876   1.402   5.838  0.0343 -0.1302 -0.1556
78898W        W21914  14.136   3.245   2.840 -0.1112 -0.1679  0.2150
78899W        W21915   1.364  13.797   4.693  0.3953 -0.0335 -0.0791
78900W        W21916  15.044   1.576   9.060 -0.0865  0.1139  0.1971
78901W        W21917  23.091   9.884   4.708  0.0055 -0.1389 -0.0561
78902W        W21918  17.970   4.837   2.339 -0.1700  0.1706 -0.1902
78903W        W21919  11.048   1.366   7.828  0.1762 -0.1821 -0.1538
78904W        W21920  15.845   5.675   2.354 -0.1379  0.1733  0.0235
78905W        W21921   7.761   5.338   6.929 -0.0823  0.1144  0.0608
78906W        W21922  20.498  21.036  14.194 -0.0943 -0.2281 -0.1582
78907W        W21923  27.239  18.572   5.218  0.1345 -0.1966  0.1971
78908W        W21924  14.413   2.990   2.537  0.5140  0.2093 -0.0613
78909W        W21925  16.639   3.852   8.205  0.0954 -0.1724 -0.0871
78910W        W21926  10.276  11.214  22.117 -0.0887 -0.0380 -0.2360
78911W        W21927  22.649  34.430  17.980 -0.0642  0.0994  0.2336
78912W        W21928  17.744  34.154   6.415 -0.0032 -0.1660  0.0300
78913W        W21929   7.801  20.579  14.167 -0.2397 -0.1354  0.1303
78914W        W21930   6.983  10.054   9.246  0.0867 -0.0444  0.2610
78915W        W21931  11.408   6.388   2.296  0.0254 -0.0643  0.0618
78916W        W21932  30.450   2.800   5.044 -0.2700 -0.0332  0.0899
78917W        W21933   0.402   7.451   6.196 -0.0124  0.0381  0.0333
78918W        W21934  22.456   0.894  26.812  0.4046  0.1593  0.1142
78919W        W21935  17.229   4.648   0.671 -0.0678 -0.2543  0.1289
78920W        W21936  27.619   1.816   2.030  0.1176 -0.1588  0.0854
78921W        W21937   7.827  13.274   3.974 -0.0524 -0.1748  0.0387
78922W        W21938  32.172  15.764  17.172  0.1261  0.1190  0.1940
78923W        W21939   2.008  25.151  22.535 -0.2791 -0.0776 -0.2128
78924W        W21940  29.678  30.793  25.935 -0.0260 -0.0821 -0.1735
78925W        W21941  11.146  10.783  28.942  0.1502 -0.0745  0.0509
78926W        W21942  16.775  25.847  22.819 -0.0714 -0.1097  0.0982
78927W        W21943  17.625   6.437   4.181 -0.0825  0.0591  0.0403
78928W        W21944   7.071  17.300  25.672 -0.0643 -0.2033 -0.1133
78929W        W21945   8.706  34.370  25.597 -0.0619  0.1147 -0.2014
78930W        W21946  25.884   3.982   0.689  0.1579 -0.2795  0.0352
78931W        W21947  32.045  20.375   7.267 -0.2918 -0.0975 -0.0129
78932W        W21948   7.387   1.074   3.246  0.0157  0.1962  0.1348
78933W        W21949  31.623  15.120  28.313  0.0583 -0.2791 -0.2322
78934W        W21950  12.921  11.555  21.767  0.1248 -0.0903 -0.0074
78935W        W21951  10.165  22.295  18.906 -0.1811  0.2590 -0.2424
78936W        W21952   5.732  18.838   9.080 -0.0125 -0.0417 -0.1410
78937W        W21953  11.258   4.093   0.182 -0.1338 -0.0677 -0.0614
78938W        W21954   7.164   3.900   8.966 -0.3754 -0.3045 -0.0302
78939W        W21955   0.738   0.538   6.139  0.1057 -0.0481 -0.0512
78940W        W21956  17.319  18.753  27.627  0.4167  0.1065  0.0742
78941W        W21957   7.536   4.875   9.825 -0.4095 -0.1319  0.0063
78942W        W21958  13.287   3.753  24.942 -0.1090  0.1834  0.2688
78943W        W21959   8.957  18.710   6.899 -0.2835  0.1444 -0.1004
78944W        W21960   8.865  15.385  20.637 -0.0681  0.2371  0.2267
78945W        W21961   7.532  18.835  27.324  0.0604 -0.2666  0.0516
78946W        W21962  21.628   2.651  17.133  0.2282 -0.5458 -0.1425
78947W        W21963   6.046  31.973  10.434  0.1705  0.2226 -0.0597
78948W        W21964  22.778  21.547  10.085 -0.2555  0.0852 -0.3269
78949W        W21965   1.266   6.636   7.165  0.0674 -0.2258  0.0573
78950W        W21966  13.346  18.536   5.331 -0.2372  0.1246 -0.1232
78951W        W21967   2.386  34.739  16.779  0.0523 -0.1310  0.2343
78952W        W21968  10.261   0.502  20.793 -0.3008 -0.1763 -0.1227
78953W        W21969  12.002   6.920  27.207  0.3240 -0.1147 -0.1109
78954W        W21970   3.027  13.385  18.076 -0.0593  0.1255  0.1128
78955W        W21971   6.477   5.929   4.032  0.0936  0.2554 -0.1299
78956W        W21972  10.180  11.460  27.919 -0.2035 -0.0392 -0.2744
78957W        W21973   3.457  18.180   5.871 -0.2822 -0.0476 -0.2888
78958W        W21974  20.667  10.091  26.483  0.0702  0.1561 -0.2030
78959W        W21975  11.792  27.288  28.895 -0.0518  0.0689 -0.0403
78960W        W21976  31.968  29.258  16.164 -0.1194  0.1723 -0.3629
78961W        W21977  19.264  12.015  16.627 -0.0075  0.2056  0.1472
78962W        W21978  25.303  17.316   0.251 -0.2833 -0.3599  0.0416
78963W        W21979   6.798  10.441   8.197  0.2516 -0.2354 -0.0769
78964W        W21980  31.014  18.639  20.500 -0.1577  0.2808  0.3048
78965W        W21981   6.249   7.978   7.555 -0.0045  0.2212  0.3667
78966W        W21982   8.691  15.287  23.233  0.2694  0.1360  0.0939
78967W        W21983  18.072   6.250   4.771 -0.4860  0.0226  0.2949
78968W        W21984  10.326   0.431   6.880 -0.2116  0.0445 -0.3670
78969W        W21985  17.062   4.122  24.066  0.7553 -0.1531 -0.2365
78970W        W21986  20.704   0.785   6.201 -0.0014 -0.0718 -0.0487
78971W        W21987  10.039  13.962  14.675  0.1206 -0.0926  0.2641
78972W        W21988  18.028  28.415  28.459 -0.3111  0.2132 -0.0780
78973W        W21989  22.238  19.432   8.643 -0.0239  0.1609 -0.2215
78974W        W21990   3.899   3.132  24.234 -0.1425  0.0435  0.2600
78975W        W21991  12.061   1.672  28.087  0.0613 -0.0982  0.1617
78976W        W21992  17.548  10.045   7.588 -0.2745  0.0890  0.0755
78977W        W21993  10.248  24.437   3.500  0.1630 -0.0032  0.0586
78978W        W21994  28.679  15.802  23.863  0.2209 -0.0350  0.1693
78979W        W21995   4.017  33.686   9.539 -0.3680  0.1267  0.2999
78980W        W21996  18.294  20.425   6.742 -0.1322  0.1652 -0.0874
78981W        W21997   9.701   3.505   0.785 -0.2591 -0.2099 -0.2417
78982W        W21998  11.078  10.202  25.994 -0.0514  0.3160 -0.0334
78983W        W21999   8.524   7.521  22.925 -0.0785 -0.3585 -0.1807
78984W        W22000  30.894  29.031  16.953  0.0382 -0.0415 -0.3708
78985W        W22001   0.243   4.592   7.683  0.0368  0.0843 -0.2923
78986W        W22002  24.730  12.526   3.794  0.3793 -0.2965  0.1285
78987W        W22003   5.950   3.447   9.363  0.3109 -0.0884  0.3461
78988W        W22004  23.594  29.478   7.958 -0.2441  0.1996 -0.0629
78989W        W22005   6.787  11.012  22.235 -0.3856 -0.4141 -0.4684
78990W        W22006  22.981  10.120   2.257 -0.0275  0.0851 -0.1935
78991W        W22007  12.791  14.505   1.118  0.0232  0.1346  0.0589
78992W        W22008   7.423   5.744   5.193  0.0703  0.0102 -0.1446
78993W        W22009  10.052   2.183   6.444 -0.0651 -0.1794  0.2686
78994W        W22010  26.170  14.669   7.091 -0.0051  0.1547 -0.0181
78995W        W22011  16.952   1.664  23.077 -0.0708 -0.1600  0.1432
78996W        W22012   5.132   3.321   9.783  0.1637 -0.0693  0.3029
78997W        W22013  15.698   1.543   1.260  0.2125  0.1963  0.0902
78998W        W22014   1.606  24.282   1.881 -0.1083 -0.1606 -0.1025
78999W        W22015   6.121  13.666   6.083  0.2162  0.2951  0.2755
79000W        W22016  17.394   3.177   9.182  0.0569  0.1681  0.0889
79001W        W22017  20.189  25.606   5.098 -0.3064 -0.0520  0.1518
79002W        W22018   8.472  21.010  27.282  0.0220  0.1259  0.0770
79003W        W22019   9.372  12.158   6.690 -0.0525  0.0719 -0.1964
79004W        W22020   7.779   4.104  24.155 -0.3744  0.0167 -0.1374
79005W        W22021  17.725  16.812   4.474 -0.0462  0.2757  0.0898
79006W        W22022   1.430   1.728   5.749  0.1501  0.0273 -0.1373
79007W        W22023   7.715  32.448   3.806 -0.0599 -0.2509 -0.0425
79008W        W22024   6.981   4.306   9.454 -0.2328  0.1938  0.1264
79009W        W22025   6.663   8.249  16.593 -0.3260  0.0144  0.1268
79010W        W22026  14.405  14.806  21.744  0.0338 -0.0824  0.2883
79011W        W22027  13.728   7.154   9.453  0.1078  0.3490  0.1408
79012W        W22028   8.862   8.895  27.528  0.2063  0.0503  0.3260
79013W        W22029  30.897  13.378   4.637  0.0294 -0.0349 -0.0555
79014W        W22030  11.539   3.130  20.941  0.2656 -0.0041 -0.0590
79015W        W22031  29.481  18.587   7.682  0.2905 -0.4188 -0.0298
79016W        W22032   2.027   9.079   1.736 -0.1579  0.1736  0.1139
79017W        W22033  17.569   6.890   3.101 -0.3174  0.2442 -0.0532
79018W        W22034  12.104  32.942   8.644 -0.0018 -0.1629  0.1570
79019W        W22035  18.166   1.284  25.112  0.0383  0.1988 -0.1961
79020W        W22036  21.548  18.950   8.372  0.0673 -0.1604  0.2729
79021W        W22037   3.739   6.312   6.044 -0.2349 -0.0282  0.2692
79022W        W22038   0.984   2.268  20.068  0.0704  0.0222  0.0456
79023W        W22039  29.968  10.764  14.535 -0.1643  0.0623 -0.0322
79024W        W22040  27.173  21.098  29.230 -0.1545 -0.1095  0.1110
79025W        W22041  13.847   4.218   1.700 -0.1846  0.1019 -0.1045
79026W        W22042   5.583  27.058   6.580 -0.0001  0.1084 -0.0737
79027W        W22043   6.621   8.778   9.730  0.1934  0.5225 -0.1089
79028W        W22044   8.190  22.100   4.334  0.1025  0.3042  0.4647
79029W        W22045  30.128  32.647  24.049 -0.1034  0.3149 -0.0089
79030W        W22046   2.495   7.916   7.393 -0.4623  0.4040 -0.1046
79031W        W22047   8.021   9.714  24.932 -0.0686  0.0248  0.0696
79032W        W22048  19.909  18.028  28.235  0.0883  0.1783  0.2937
79033W        W22049  10.170   6.590   1.862 -0.1247 -0.3141 -0.1266
79034W        W22050   9.157  28.940   3.708  0.0716 -0.1238 -0.0123
79035W        W22051  14.566   5.847   1.001 -0.5987  0.0270 -0.0235
79036W        W22052  14.927  14.480  19.908  0.1793 -0.1816  0.3078
79037W        W22053  17.950  13.507  24.763  0.1179  0.2848  0.4235
79038W        W22054  25.946   9.091   2.814 -0.1434  0.0089  0.3006
79039W        W22055  11.272  32.522  25.225  0.3460 -0.1836 -0.2461
79040W        W22056  18.350  15.586  20.623  0.1611  0.1824  0.0874
79041W        W22057  32.358  31.852   3.179 -0.2713  0.1474 -0.1995
79042W        W22058   9.699   6.793   6.868  0.0707 -0.0052 -0.1034
79043W        W22059   6.429   8.753   6.972  0.1379 -0.2022 -0.2481
79044W        W22060  16.618  18.593   4.269 -0.0445 -0.1038 -0.2341
79045W        W22061  12.306   8.274  21.045  0.1093 -0.2594 -0.1566
79046W        W22062  10.139  29.114   5.217 -0.0825  0.1943 -0.0994
79047W        W22063   2.142  29.088   6.310 -0.1219 -0.3669 -0.0803
79048W        W22064  10.745   6.989  22.204  0.0626  0.1909 -0.2971
79049W        W22065   4.584  11.939   7.472 -0.0382  0.2663 -0.0631
79050W        W22066   6.406  11.540  28.067  0.0132 -0.0747 -0.2929
79051W        W22067  10.143  14.259  29.288  0.2191  0.0479 -0.1193
79052W        W22068  14.303   1.533  28.032  0.0561 -0.3034  0.0403
79053W        W22069  10.881  15.798   4.527 -0.0081  0.1069 -0.1274
79054W        W22070  28.432   4.407  18.620 -0.3688  0.1387 -0.1547
79055W        W22071  11.918  27.242   6.851  0.1492 -0.1057  0.1090
79056W        W22072  17.744   5.871   8.474 -0.0093  0.1157 -0.1182
79057W        W22073   0.579  10.825   2.868  0.3506  0.2233  0.1383
79058W        W22074  18.297   6.350   9.932  0.2989  0.0866  0.1878
79059W        W22075   5.254   5.828  21.247  0.1702 -0.1809 -0.1772
79060W        W22076   7.665  17.817   7.830  0.1405 -0.0939  0.0639
79061W        W22077  15.427  32.631  20.925 -0.4265 -0.1591 -0.1312
79062W        W22078  21.722  31.924  24.229 -0.1148  0.0794  0.2059
79063W        W22079  13.097   4.414  26.753 -0.0388 -0.5597  0.1147
79064W        W22080  15.899  21.059  20.673 -0.1912  0.4050 -0.0887
79065W        W22081  20.176   3.604  14.660 -0.0935 -0.2297 -0.2876
79066W        W22082   0.911   6.972   4.108  0.0226 -0.2809  0.1922
79067W        W22083   3.244  18.178  28.764  0.3287  0.3629  0.2630
79068W        W22084   1.763   1.498   0.407 -0.2160 -0.0705  0.1753
79069W        W22085  20.741  28.319  24.835  0.1991  0.0782 -0.0064
79070W        W22086   1.883  12.311  25.818  0.1544 -0.0023  0.3442
79071W        W22087  27.763  33.942   3.980 -0.0542  0.2884 -0.0185
79072W        W22088  26.069  22.953   1.535 -0.2069 -0.0944 -0.0012
79073W        W22089  34.472   2.037  28.707 -0.1318 -0.0090 -0.1779
79074W        W22090  11.547   7.256  23.161 -0.3178 -0.1953 -0.2165
79075W        W22091   3.704   1.773   2.780  0.1070 -0.2919 -0.0640
79076W        W22092  20.626   2.991  23.777  0.4036  0.0947 -0.1371
79077W        W22093  16.749  12.262   1.788  0.0256  0.2303  0.1385
79078W        W22094  32.008   0.226  24.730 -0.1437  0.1747 -0.1962
79079W        W22095  28.374  20.462  18.009  0.0232 -0.0140  0.2897
79080W        W22096   4.046  33.025  26.902 -0.0992  0.2413  0.0055
79081W        W22097   6.240  15.707   3.941 -0.0058  0.0101  0.1278
79082W        W22098  11.355   4.671  17.258 -0.0072  0.0127 -0.1000
79083W        W22099  28.195  23.890  16.750  0.2206  0.1938 -0.0914
79084W        W22100   0.019  12.572   5.532  0.1355 -0.0031  0.2730
79085W        W22101   8.336  13.274   3.755 -0.1655 -0.2410 -0.1629
79086W        W22102  18.431   8.265  14.325 -0.0195 -0.2434 -0.3329
79087W        W22103  22.786   9.859   6.143 -0.0134 -0.0373 -0.0874
79088W        W22104  17.907   3.542   3.996 -0.2838  0.0087  0.1487
79089W        W22105  14.057  32.224  27.815  0.2738  0.2824  0.2461
79090W        W22106   4.541   5.938  21.967 -0.0581  0.0799 -0.0246
79091W        W22107  17.845   5.334   8.271  0.1104  0.1436  0.2539
79092W        W22108  27.700  34.600   2.388  0.0727 -0.0348  0.2200
79093W        W22109  33.556   7.083  28.469 -0.2406 -0.0038  0.0901
79094W        W22110  27.396  24.462  23.910  0.0678  0.0229  0.4161
79095W        W22111  34.045  20.805  23.170 -0.2873  0.0661 -0.1951
79096W        W22112  29.262  17.759   8.884 -0.2684  0.3832  0.1272
79097W        W22113  25.498  18.327  24.606  0.4327 -0.0905 -0.3712
79098W        W22114   5.041  20.080  15.245  0.1760 -0.1663 -0.2716
79099W        W22115   1.853  29.727   6.809  0.2666  0.3693  0.1947
79100W        W22116  32.036  11.960  25.635 -0.1560  0.1191 -0.0286
79101W        W22117  11.975  15.194  29.168  0.0932 -0.1639 -0.0179
79102W        W22118  30.188  16.424  23.092 -0.0342 -0.0343 -0.0531
79103W        W22119   5.686   8.453   7.111  0.0862 -0.0750  0.1352
79104W        W22120  25.459  11.924   2.855 -0.3887 -0.0049 -0.0480
79105W        W22121  34.757   3.663   3.078 -0.0879  0.0803 -0.1720
79106W        W22122  16.188  25.374   7.097  0.3665 -0.0193 -0.1885
79107W        W22123   7.358  15.602   4.659 -0.1129  0.2042  0.6718
79108W        W22124  12.767   1.455  17.323 -0.2021 -0.1225  0.0007
79109W        W22125   7.334   7.717   1.808 -0.1047 -0.0742  0.1563
79110W        W22126  14.681   8.783  27.971 -0.0813 -0.0861  0.1503
79111W        W22127  13.246  28.403  23.836  0.0079  0.0423  0.1077
79112W        W22128   6.871  25.077   8.174  0.1696 -0.1710 -0.0383
79113W        W22129  25.813  13.223   2.449  0.1197 -0.0194  0.2230
79114W        W22130   4.709  12.413  17.586 -0.1706  0.1609 -0.0477
79115W        W22131  18.234   7.972   8.853 -0.1886 -0.0888 -0.0720
79116W        W22132   1.312  21.315   9.879 -0.0288 -0.1470 -0.2832
79117W        W22133   7.057   6.373  26.145  0.3893 -0.0374 -0.0187
79118W        W22134  13.750  31.997  26.195 -0.1672 -0.2028 -0.1398
79119W        W22135   5.717  15.251   3.599 -0.0356  0.0959  0.3319
79120W        W22136  12.774  13.940  17.737 -0.2821  0.0775 -0.0901
79121W        W22137   6.980  12.256   2.089  0.1168  0.0436 -0.2316
79122W        W22138  17.472  15.135   5.020 -0.0764 -0.1868  0.0340
79123W        W22139  13.313  23.330  20.677 -0.0722  0.2092 -0.0726
79124W        W22140  12.615   2.020  28.973 -0.0816  0.1981 -0.1377
79125W        W22141  16.875   1.799   9.809 -0.0435 -0.0081  0.0661
79126W        W22142  25.174  17.138  28.540 -0.1828  0.0444  0.0521
79127W        W22143  33.727  15.669   6.503  0.1215  0.1796  0.2229
79128W        W22144  15.886  16.462  23.557 -0.1046 -0.3036  0.2958
79129W        W22145   0.104  28.370   4.051 -0.1159 -0.0948  0.1224
79130W        W22146  10.358   8.188   1.329 -0.0546  0.0134 -0.0577
79131W        W22147  11.875   9.404  25.544 -0.1257  0.0944  0.1143
79132W        W22148  11.797  20.025   0.693  0.1273 -0.1063 -0.0412
79133W        W22149  22.988  32.807  16.243  0.1850 -0.1187 -0.2703
79134W        W22150  13.238   7.834   4.670 -0.1001 -0.1539  0.0307
79135W        W22151  24.684  13.383   9.031 -0.1122 -0.3458 -0.2902
79136W        W22152  16.485  11.210  20.756 -0.3255  0.2392 -0.3575
79137W        W22153  27.014  18.333  18.137 -0.0473 -0.1861 -0.0180
79138W        W22154  17.278  17.216  24.499 -0.1358 -0.0064 -0.1710
79139W        W22155   2.507  21.473  25.298 -0.0948  0.1484 -0.3028
79140W        W22156  18.438   6.044  23.698 -0.1129 -0.1315  0.0492
79141W        W22157  13.932  13.014  15.922 -0.0818 -0.0210  0.3357
79142W        W22158  18.004  11.262  25.781 -0.4294 -0.0978 -0.2315
79143W        W22159  11.880   2.961  26.816  0.2270 -0.3766  0.0965
79144W        W22160  26.827   4.117   0.015 -0.0234 -0.2474  0.0280
79145W        W22161  13.097   4.744   5.235 -0.0385  0.2652  0.3730
79146W        W22162   7.023  14.600   1.213 -0.2697  0.1163 -0.1394
79147W        W22163  24.048   6.354   4.829  0.1123 -0.0545 -0.1793
79148W        W22164  14.177   4.494  17.811 -0.1225  0.1057  0.2120
79149W        W22165   3.188   5.259   4.401  0.1638  0.1624  0.3313
79150W        W22166  17.104   4.354  28.693  0.0247 -0.0127  0.1674
79151W        W22167  12.589   2.306   2.328  0.1841 -0.0711  0.0109
79152W        W22168  13.271  13.082   6.863 -0.0793 -0.1604  0.0121
79153W        W22169  32.074  19.803  24.411 -0.0629 -0.1455  0.2501
79154W        W22170  31.135  17.573   6.594  0.2468  0.1747  0.0488
79155W        W22171  11.686  15.882  26.188  0.1920  0.0149 -0.0121
79156W        W22172   4.036  18.371  22.075  0.0121 -0.0515  0.1989
79157W        W22173  13.365  33.455  26.111 -0.0714 -0.1678 -0.1874
79158W        W22174  12.797   8.058   0.564  0.4841 -0.1242 -0.1331
79159W        W22175  21.631   5.702   2.889  0.0955 -0.0698 -0.0220
79160W        W22176  13.979   3.150  24.712 -0.1242 -0.2355 -0.0673
79161W        W22177  27.994  14.955   7.638  0.1078  0.0242 -0.0979
79162W        W22178  22.323  32.028   8.751  0.3192  0.0830 -0.3767
79163W        W22179  32.145   5.722  25.376 -0.1302 -0.1213 -0.1843
79164W        W22180   1.465  16.467   6.144  0.1004 -0.2936 -0.1295
79165W        W22181  24.116   7.596  28.629  0.0260  0.0698  0.0992
79166W        W22182   9.695  16.273  19.729 -0.1494  0.1848  0.0213
79167W        W22183  18.219  12.367  28.690  0.3847 -0.1564  0.1257
79168W        W22184  15.886   8.533  21.936 -0.3353 -0.1117  0.2208
79169W        W22185  24.844   2.115  23.895 -0.1602  0.0490  0.1210
79170W        W22186  13.072  33.878   7.068  0.1359 -0.3120 -0.1276
79171W        W22187   7.383  11.800  20.387 -0.0279 -0.4300  0.2400
79172W        W22188  10.609  29.705   2.485  0.2830 -0.0882  0.1179
79173W        W22189  10.574  30.836   9.873  0.3744 -0.0283  0.1146
79174W        W22190   2.551   2.344  17.560  0.2471 -0.1245  0.2268
79175W        W22191  17.385  34.496  13.916 -0.1611  0.1517 -0.0101
79176W        W22192   1.009   1.437   1.637 -0.1167  0.0455  0.0581
79177W        W22193  15.832  33.435  15.640 -0.1022  0.1527  0.0781
79178W        W22194   2.361  13.021  26.763 -0.4016 -0.0337 -0.0984
79179W        W22195  18.591  33.022   6.775 -0.1959  0.2270 -0.0691
79180W        W22196  15.987  14.091   3.948 -0.0216  0.0933 -0.0699
79181W        W22197   1.400  15.079   9.884  0.1938 -0.2516  0.1164
79182W        W22198  19.382  17.367  26.181  0.0539 -0.1259  0.2295
79183W        W22199  16.009  21.986   4.871 -0.3277  0.0555 -0.2685
79184W        W22200  13.673   6.099   7.481  0.0447 -0.3435  0.0186
79185W        W22201  10.040  20.816  19.857  0.0195  0.0293 -0.1344
79186W        W22202  17.011  14.284  14.460  0.0673 -0.0294 -0.1097
79187W        W22203  12.265  13.225  22.051  0.2746  0.1963 -0.0378
79188W        W22204  12.280  28.809  20.628  0.1052 -0.0712 -0.1917
79189W        W22205  18.402  11.929   7.622 -0.1519 -0.2343 -0.2018
79190W        W22206  15.774  15.032  19.763  0.1427  0.0190  0.3964
79191W        W22207   3.636   3.803   5.550  0.0152  0.1047  0.0463
79192W        W22208  22.366   4.073   3.908  0.0232 -0.0514  0.1094
79193W        W22209  26.433  13.970   8.653  0.0733 -0.1062 -0.0014
79194W        W22210  19.816  12.867  21.481  0.2704 -0.3876  0.1758
79195W        W22211   7.304   3.183  20.147  0.0056  0.0215  0.3058
79196W        W22212   8.075  12.552   8.857 -0.0574  0.1588  0.1231
79197W        W22213   7.878  30.463   6.803  0.1819 -0.1085 -0.0436
79198W        W22214   9.405  16.493  27.578 -0.1626  0.0795 -0.2124
79199W        W22215  15.634  18.330  22.314  0.0513 -0.1036 -0.0289
79200W        W22216  14.707   6.922  25.823  0.2153 -0.1562  0.1443
79201W        W22217  28.427   3.722   8.845 -0.2143 -0.2456  0.0205
79202W        W22218  32.654   6.422   0.249  0.0868  0.3376  0.1316
79203W        W22219   4.701   5.533  20.484 -0.0165  0.0496  0.1763
79204W        W22220   8.553  12.675  25.131 -0.0691  0.0013  0.1501
79205W        W22221  20.907   0.271  28.539 -0.0871  0.3657 -0.0611
79206W        W22222  10.774   8.890   0.490 -0.1610 -0.1560 -0.0688
79207W        W22223   9.050   3.735  16.450  0.2485  0.1578  0.0256
79208W        W22224  33.708   6.680   0.779 -0.1956  0.2936  0.1833
79209W        W22225  21.854  13.714  27.682  0.0652  0.1774 -0.2099
79210W        W22226  16.550  27.727   8.476  0.3498  0.0614  0.1388
79211W        W22227  24.439   9.915  28.100  0.2443 -0.1036  0.0363
79212W        W22228  14.872  10.035  21.180  0.0185 -0.2766  0.0016
79213W        W22229   1.720  15.136  27.206  0.0183  0.0976 -0.2980
79214W        W22230  31.181  10.421   6.431  0.2085  0.0906  0.0386
79215W        W22231   1.659   8.491   4.819 -0.3512 -0.1376  0.0301
79216W        W22232  15.715   4.749   7.834 -0.0496  0.1952 -0.1837
79217W        W22233  12.785  32.610   9.407  0.0474  0.2286  0.4563
79218W        W22234  13.027   3.831  18.087  0.2444  0.0417 -0.0797
79219W        W22235   6.773  15.158   0.560 -0.1259  0.4195 -0.1927
79220W        W22236  10.158   6.471   7.071 -0.0366  0.0155 -0.2474
79221W        W22237  20.599  12.344  22.699 -0.2198 -0.1486 -0.3714
79222W        W22238   5.341  21.472  22.366  0.1940 -0.2247  0.0425
79223W        W22239   2.794   4.258  15.444 -0.0252 -0.0023 -0.0676
79224W        W22240  16.642   4.473   5.822  0.3801  0.0617  0.1396
79225W        W22241  19.155  12.665  27.756 -0.0302  0.1335  0.1983
79226W        W22242  33.459   6.304   7.971  0.2792 -0.1204  0.1325
79227W        W22243  22.418   6.178  18.338  0.3074  0.1343  0.1345
79228W        W22244  19.965  12.642   1.119  0.0649  0.1275  0.0130
79229W        W22245   6.059  33.277   6.212 -0.2620  0.1353  0.1753
79230W        W22246   2.145   1.099  22.608 -0.1370 -0.1436  0.4109
79231W        W22247   5.632   4.258   3.128 -0.2954 -0.1402  0.0111
79232W        W22248  22.300  30.432  23.363  0.0522 -0.0357  0.1582
79233W        W22249   4.573   3.906   8.039  0.0072  0.1023  0.4502
79234W        W22250  22.230  11.111   0.846  0.0143  0.2220  0.4091
79235W        W22251   8.320  12.356  24.761  0.2100 -0.0609  0.1665
79236W        W22252  11.769  17.521  27.829 -0.0097 -0.2478  0.1280
79237W        W22253  24.924   8.445  10.443 -0.2599 -0.0992  0.0875
79238W        W22254  31.203  19.599  25.220 -0.1815 -0.0279  0.0337
79239W        W22255  17.882   2.633   7.923  0.1129  0.0129  0.1082
79240W        W22256  31.945  13.816  27.590  0.0006  0.3620 -0.3510
79241W        W22257  22.310  11.241   1.678 -0.0462  0.1459  0.1100
79242W        W22258  30.706  18.297   9.157  0.0066 -0.1057 -0.5131
79243W        W22259  31.577  15.753   7.146 -0.1401 -0.0496 -0.1220
79244W        W22260   3.821  12.163  24.917 -0.0432  0.2625  0.1149
79245W        W22261  26.405  31.064  22.179  0.0094 -0.1593 -0.2145
79246W        W22262  24.907  23.314  25.273 -0.2952  0.3189  0.1210
79247W        W22263  12.378  33.410   4.122 -0.0212  0.0766 -0.0121
79248W        W22264   1.769  15.243   0.036  0.3070  0.1174 -0.0721
79249W        W22265  25.556  25.560   3.410 -0.1584  0.3029 -0.0640
79250W        W22266  16.201   8.427  27.890 -0.0238 -0.2652 -0.2496
79251W        W22267  33.611  12.731  14.639 -0.0552  0.0758  0.2210
79252W        W22268  31.014  34.731  23.705 -0.0186 -0.1111  0.0390
79253W        W22269  10.444  16.722  26.189  0.4025 -0.1706 -0.0176
79254W        W22270  18.991  12.700   6.150 -0.3828  0.2009 -0.1975
79255W        W22271   3.236   5.605   0.297  0.3430 -0.1626 -0.0804
79256W        W22272   3.741  19.842  27.388  0.2327  0.2937  0.0923
79257W        W22273  34.066   3.996  20.112  0.1690  0.5861  0.2018
79258W        W22274  16.448  33.358   8.336  0.4122 -0.0876 -0.2220
79259W        W22275  33.219  10.606   1.810  0.1167 -0.2337  0.1254
79260W        W22276  19.946  30.567  28.660  0.0080  0.1754 -0.2223
79261W        W22277  16.948  13.375  25.114  0.0537  0.0776  0.1495
79262W        W22278  12.448  29.226   6.307 -0.1785  0.3452 -0.0087
79263W        W22279   9.414  29.970  28.117  0.0211  0.1592 -0.1823
79264W        W22280  11.624  33.462   5.326 -0.1218 -0.0912 -0.1748
79265W        W22281   6.812   3.188   9.494 -0.1306 -0.1539  0.1243
79266W        W22282   7.233   0.951   0.715  0.1481  0.0048 -0.0091
79267W        W22283  34.242   8.047  16.533 -0.4462 -0.1035  0.1536
79268W        W22284  30.354   4.656  19.506  0.0702 -0.1456  0.1240
79269W        W22285   1.037  19.901   0.544 -0.0581  0.1181 -0.0976
79270W        W22286  33.797  17.602  10.559  0.1972  0.1082  0.0201
79271W        W22287  25.702  28.868   8.836 -0.1531 -0.2803  0.0483
79272W        W22288  10.361   9.942   4.542  0.1041  0.1006  0.1896
79273W        W22289   5.596  32.419   3.575  0.0328  0.0461  0.1876
79274W        W22290   8.850  23.230   6.911 -0.2075 -0.1394  0.0326
79275W        W22291  32.916  20.531  15.504 -0.0789  0.3386 -0.2200
79276W        W22292  10.551  17.090  21.895 -0.1401  0.0371  0.1261
79277W        W22293   5.849  12.922   7.147 -0.0391  0.1778 -0.0643
79278W        W22294   1.541  24.294  24.371 -0.3277  0.0253  0.2037
79279W        W22295   4.973   8.469   7.295  0.3588  0.1440 -0.0014
79280W        W22296   6.620  17.687  27.193  0.2553 -0.2543  0.0661
79281W        W22297   2.690   3.435   9.746 -0.0329 -0.0514 -0.0527
79282W        W22298  25.559   6.681  26.125  0.0798  0.2130 -0.1989
79283W        W22299  29.415  12.003   5.809 -0.2735  0.1889  0.1138
79284W        W22300  34.463   9.068  23.232 -0.0664 -0.4293  0.1229
79285W        W22301  33.547   2.889  24.972 -0.1056  0.2319  0.3434
79286W        W22302  11.406  12.738   4.383  0.1905  0.0383 -0.3444
79287W        W22303  28.035   5.642   1.868 -0.2400  0.0428  0.1185
79288W        W22304   4.876   1.012   8.532 -0.1305  0.1882  0.1557
79289W        W22305  31.788   4.387   6.240  0.2908 -0.0564 -0.1168
79290W        W22306   4.940  14.533   0.245 -0.0433  0.1655  0.1386
79291W        W22307  22.291   2.437   7.058  0.1600 -0.2617  0.3319
79292W        W22308  33.233  26.733  16.914 -0.1086 -0.2048 -0.2699
79293W        W22309  17.559  15.188   6.911 -0.0362 -0.0300  0.2418
79294W        W22310  22.163   8.554   5.109 -0.2497 -0.0662  0.0420
79295W        W22311  28.834   2.138   1.607  0.0995 -0.0565 -0.0073
79296W        W22312   4.428   3.197   4.699  0.0359  0.2133 -0.0247
79297W        W22313   6.896  11.319  14.997 -0.4536 -0.1501  0.0872
79298W        W22314  11.037  29.657   0.815 -0.0805 -0.0377  0.1630
79299W        W22315  33.653  15.038   8.048  0.0346 -0.1768  0.2023
79300W        W22316  27.124   9.189  28.968 -0.2931 -0.2373 -0.1154
79301W        W22317  31.488  14.532   9.455 -0.0233  0.0196 -0.0331
79302W        W22318  24.445   1.684  28.578 -0.2014  0.1223 -0.0698
79303W        W22319  15.314  16.964   2.031  0.0851 -0.1013  0.1535
79304W        W22320  18.152  11.947  22.289 -0.2197 -0.0692  0.1412
79305W        W22321  16.413  14.953  27.121 -0.1795 -0.1834  0.0323
79306W        W22322  31.480  15.956  25.652  0.1456 -0.1993  0.3308
79307W        W22323   9.686   9.204   5.241 -0.0322  0.1689  0.0186
79308W        W22324  19.733   2.408  23.897 -0.0664 -0.0167  0.3750
79309W        W22325   5.490  10.716   5.772 -0.3210 -0.0898 -0.1337
79310W        W22326  27.970   8.465   5.372  0.1313 -0.2130  0.1315
79311W        W22327  14.691  21.671   3.476  0.1376  0.1931 -0.1836
79312W        W22328  10.028  18.060   1.134 -0.1655  0.1270 -0.0312
79313W        W22329  23.645  25.978  29.123 -0.2396  0.1740 -0.1332
79314W        W22330   3.873  25.461   9.682 -0.0894  0.3138 -0.2020
79315W        W22331   7.912   3.763  21.619  0.1165  0.2162  0.0072
79316W        W22332  10.361  10.236  25.456 -0.4007 -0.1262  0.1138
79317W        W22333  28.834  11.832   9.984 -0.2632  0.0678 -0.0703
79318W        W22334  20.100   8.325  24.231 -0.1746  0.1340 -0.1069
79319W        W22335   2.832  25.620  25.488 -0.1430  0.2672  0.2613
79320W        W22336  14.958  30.350   8.991  0.1470  0.2718 -0.2509
79321W        W22337   4.480  16.779  27.997 -0.2405  0.0253 -0.0708
79322W        W22338  10.415   2.810  28.742  0.1713  0.3469  0.0893
79323W        W22339  13.825  17.393   7.279 -0.1793  0.1593 -0.2152
79324W        W22340  10.609  11.533   4.104  0.1237  0.3453 -0.0295
79325W        W22341   5.368   8.110  27.149 -0.3830 -0.2353 -0.2054
79326W        W22342  32.903   2.289   4.846  0.0415  0.1887 -0.1432
79327W        W22343   6.799   6.686   9.130 -0.1540  0.0908  0.1881
79328W        W22344  19.343  29.394  22.413 -0.2496  0.2375  0.0221
79329W        W22345  26.085  17.755   9.793  0.0455 -0.0104 -0.0608
79330W        W22346   4.584  21.451   3.699 -0.0561  0.1738  0.1021
79331W        W22347   9.831   9.415   9.073  0.2259  0.0107 -0.2011
79332W        W22348  10.377  11.041  27.791 -0.2524 -0.0692  0.1971
79333W        W22349   1.436  12.684  16.314 -0.1309  0.1409  0.0075
79334W        W22350  12.061  25.820   2.618  0.0586 -0.3101 -0.1239
79335W        W22351  23.113   8.216   1.097  0.0591 -0.1103  0.3572
79336W        W22352   9.572   5.744  17.236  0.0045 -0.4105 -0.0496
79337W        W22353   1.166  10.231   3.705  0.4459 -0.3317  0.0765
79338W        W22354  13.943   3.666  26.002  0.2507  0.4851  0.0700
79339W        W22355   4.240   4.238  10.356  0.1481  0.1369 -0.1367
79340W        W22356   8.802  20.039   0.819 -0.2487  0.1970  0.0686
79341W        W22357   9.975   5.092   3.558  0.0332 -0.0579  0.1219
79342W        W22358  26.580  10.945  22.599  0.0052  0.0893 -0.0979
79343W        W22359  32.424  26.354  29.011  0.0538 -0.0056 -0.1478
79344W        W22360   3.585  27.044   4.173 -0.3552 -0.2461  0.1460
79345W        W22361  17.420  32.224   5.320 -0.0433 -0.0531  0.1168
79346W        W22362  26.772   3.845   4.614  0.3242  0.2500 -0.2926
79347W        W22363  18.085   3.580   5.366 -0.2627  0.1867  0.1625
79348W        W22364  16.632  15.350   4.825  0.1690 -0.0734  0.0793
79349W        W22365  18.321   1.929   3.893 -0.1560 -0.0745  0.1872
79350W        W22366   9.513   5.903  21.369 -0.0156  0.2463  0.0737
79351W        W22367  28.572  10.990  26.628 -0.1701  0.1349 -0.0536
79352W        W22368   3.970  16.693   6.526 -0.3089 -0.0847  0.0558
79353W        W22369  13.259  19.804  13.655  0.0314  0.0780  0.1612
79354W        W22370   9.639  21.052   6.663 -0.1592 -0.2079 -0.1648
79355W        W22371  33.860  25.911   4.099 -0.1028 -0.0284  0.2758
79356W        W22372  20.743  12.624   7.565 -0.1186 -0.2534 -0.1290
79357W        W22373  32.959  26.752   3.829  0.1353 -0.1522  0.1896
79358W        W22374  33.570  21.664  27.562  0.1951  0.1465 -0.2296
79359W        W22375  33.643  10.160   6.426  0.3675  0.1994 -0.1213
79360W        W22376   4.544  13.424   4.247 -0.4936  0.0588  0.1405
79361W        W22377  34.220  10.149  16.375 -0.1538 -0.3582 -0.3105
79362W        W22378  10.547   5.745   8.702 -0.3924 -0.1100 -0.2206
79363W        W22379   9.141   2.385   6.142 -0.0758  0.3690  0.0512
79364W        W22380   4.492  10.810   6.555 -0.1772 -0.3674 -0.2002
79365W        W22381   9.704   4.316   4.988  0.0667 -0.0053 -0.3105
79366W        W22382   0.818  22.029  24.027  0.0423  0.0065  0.0518
79367W        W22383  31.339  28.632   7.763 -0.1285 -0.2533  0.0484
79368W        W22384   4.551   6.257   4.455  0.0753  0.0060 -0.1197
79369W        W22385  12.016  10.456  25.605 -0.0180 -0.0161 -0.3034
79370W        W22386  11.897   5.904  29.266  0.1920  0.0871 -0.0095
79371W        W22387  12.935  10.743   5.015  0.1971  0.1850 -0.0252
79372W        W22388  19.610  26.494  27.443  0.0841  0.3614  0.0316
79373W        W22389  31.295  22.872  28.970  0.1858  0.0024  0.1351
79374W        W22390  20.129  24.093   9.231  0.0799 -0.0871  0.2683
79375W        W22391  16.275   1.071  25.346 -0.0746  0.0746 -0.2062
79376W        W22392  16.676  14.431   1.381 -0.1534  0.1650 -0.1170
79377W        W22393   0.031   2.372   3.644  0.1257 -0.0139 -0.1944
79378W        W22394  11.305   8.027   5.291  0.0665 -0.1672 -0.3776
79379W        W22395  17.870   9.432   8.970 -0.2094  0.1457  0.0650
79380W        W22396   7.865  28.065  25.348  0.0737 -0.0634 -0.1806
79381W        W22397  10.706  20.052  29.140  0.0157  0.1743  0.0216
79382W        W22398  21.760  15.189  19.188  0.1090  0.0298  0.3399
79383W        W22399   8.103   3.619  28.233  0.4100  0.1929 -0.3135
79384W        W22400  28.058  13.541   9.395  0.1639  0.3194 -0.1261
79385W        W22401  33.113   9.114   7.271 -0.3539 -0.1242 -0.0869
79386W        W22402   4.461  29.969  23.658  0.4091 -0.1457 -0.2828
79387W        W22403  13.599  11.255   6.741 -0.0283  0.1505 -0.2059
79388W        W22404  13.510  14.689  25.516  0.2932  0.1596 -0.1674
79389W        W22405  32.234   5.654   6.796  0.0579 -0.0077  0.2456
79390W        W22406  10.600  28.000   7.495  0.2312  0.0108  0.0314
79391W        W22407  12.964  11.429   7.461  0.1136 -0.0278  0.1106
79392W        W22408  32.041  13.278   7.328 -0.1100  0.0899 -0.1583
79393W        W22409   7.109   7.557   1.285 -0.1145 -0.1411  0.0210
79394W        W22410   0.660  21.569  27.384  0.0559 -0.0166  0.2462
79395W        W22411   7.395   7.824   6.365 -0.2827  0.1830  0.2053
79396W        W22412  10.191   4.578   4.933  0.1485 -0.0411 -0.1371
79397W        W22413   3.631   5.554   7.319  0.1834  0.1491  0.0517
79398W        W22414  33.083   4.513   1.591  0.0952 -0.0838 -0.0825
79399W        W22415  13.979  33.928   7.726 -0.0979 -0.0109 -0.0551
79400W        W22416  10.219  13.985  26.805 -0.2726  0.0790  0.2300
79401W        W22417  10.841  34.315   9.389  0.0267 -0.0098  0.0209
79402W        W22418  12.544   6.113  27.195  0.2278 -0.0214 -0.0895
79403W        W22419  12.586  16.315  23.655  0.3046 -0.0153 -0.2609
79404W        W22420   2.858   7.184   8.138 -0.0035 -0.0327 -0.2037
79405W        W22421   1.416  12.251   6.227 -0.0555  0.0610 -0.0373
79406W        W22422  16.845  13.486  22.496  0.0893  0.1540  0.2248
79407W        W22423  12.994   7.799   5.336  0.1890  0.1575 -0.0268
79408W        W22424  11.962  15.169   7.906 -0.2053 -0.2458 -0.2850
79409W        W22425   7.439   5.490   8.968 -0.0139  0.0745  0.2332
79410W        W22426  14.352   5.707   5.713 -0.1592  0.2131  0.3995
79411W        W22427  19.311  17.954  25.679  0.0002  0.1397 -0.0875
79412W        W22428  12.922  34.716   4.951 -0.0979 -0.0718  0.0061
79413W        W22429  10.280  10.350   6.885  0.1241 -0.0744 -0.1089
79414W        W22430  11.002  22.054  13.693 -0.2033  0.0105 -0.0532
79415W        W22431   6.729  21.833   6.486 -0.0583 -0.1023 -0.0380
79416W        W22432  31.433  18.717   4.715 -0.2442 -0.3517 -0.0572
79417W        W22433  17.870  34.725  26.928 -0.3184 -0.3190  0.1193
79418W        W22434   9.882   9.702   0.888 -0.3046 -0.3185 -0.1828
79419W        W22435   9.478  33.737   8.065  0.1246 -0.1849  0.1577
79420W        W22436  16.548  18.917  15.500 -0.0673  0.1099 -0.0405
79421W        W22437  20.815   3.378   8.239 -0.1222 -0.0091  0.2115
79422W        W22438   2.276  16.252  26.474  0.0897 -0.0609 -0.1141
79423W        W22439  10.201   4.998  10.117  0.0141 -0.0030  0.0470
79424W        W22440  12.474  21.684   1.299 -0.5039  0.1670 -0.1284
79425W        W22441  13.266  14.325  20.349 -0.1668 -0.3282  0.0738
79426W        W22442  20.001   3.293  10.113 -0.0232 -0.0588 -0.1522
79427W        W22443   5.260  18.953  22.582  0.1811 -0.1523 -0.2107
79428W        W22444   3.069  32.675   3.795 -0.0731  0.1357  0.0132
79429W        W22445  23.581  33.936   4.735  0.2913  0.1786  0.3829
79430W        W22446  12.925  34.070   4.109 -0.0738  0.0005 -0.2966
79431W        W22447  18.228  10.396  21.307  0.0313  0.1714 -0.2211
79432W        W22448  33.108   0.175   6.378 -0.1808  0.0704  0.0024
79433W        W22449  31.751   3.965   9.193  0.0890  0.1583  0.0794
79434W        W22450  10.729  31.128   1.860  0.4387 -0.0255  0.1275
79435W        W22451  11.572  19.112  28.414  0.0153  0.3134 -0.2018
79436W        W22452  23.153  10.987   2.515 -0.1265 -0.5008  0.0817
79437W        W22453   3.815  10.910   5.627  0.1316  0.0186  0.0950
79438W        W22454  21.392  17.287  28.569  0.1369  0.0451 -0.1003
79439W        W22455  25.271  19.951   8.439  0.0174 -0.0993  0.0324
79440W        W22456   5.954  26.149   8.980 -0.3778 -0.2295  0.0114
79441W        W22457   3.950   1.752  23.394 -0.4727  0.2593  0.0219
79442W        W22458  31.023  22.876   7.943  0.0498  0.1359  0.1790
79443W        W22459   8.461   5.806  28.601  0.2262  0.1196 -0.1630
79444W        W22460  10.756  31.204   7.133  0.0632  0.2530  0.2036
79445W        W22461  20.760  10.954  25.220 -0.0670 -0.0409  0.0504
79446W        W22462  14.148  22.673  17.291  0.3912  0.2682 -0.0554
79447W        W22463  10.102  11.313   6.564  0.1199  0.3202  0.2880
79448W        W22464  10.862   9.215   8.297  0.1200  0.1575 -0.1062
79449W        W22465   3.509  20.476  18.753  0.2056  0.4987 -0.1119
79450W        W22466  14.081   8.245   4.712  0.2080  0.1357  0.1098
79451W        W22467  17.270   7.733   0.723  0.0953 -0.1025  0.1280
79452W        W22468   8.218   6.600  10.195 -0.0816 -0.0529  0.3665
79453W        W22469   8.538   6.315   3.423  0.1959  0.0157 -0.0609
79454W        W22470  18.000  33.530   1.231 -0.0011 -0.0940  0.3266
79455W        W22471  34.688   4.612   5.791 -0.0157 -0.0798 -0.0349
79456W        W22472  32.055  15.171   6.773  0.0786 -0.3082 -0.1554
79457W        W22473   5.119   4.222   4.239  0.1897  0.2356  0.2442
79458W        W22474  12.563  31.449   5.616 -0.3485 -0.4925  0.7326
79459W        W22475  11.777  10.775   3.133 -0.2314 -0.0986  0.1307
79460W        W22476  24.929  20.156  27.519 -0.1113  0.3273 -0.2586
79461W        W22477   2.439  15.260   2.825  0.0903 -0.1750  0.1391
79462W        W22478  31.350   4.617   6.265  0.1114  0.3016 -0.0351
79463W        W22479  34.274  10.083   9.781  0.1692  0.1093 -0.1936
79464W        W22480  18.293  14.467   5.634  0.0435 -0.0514  0.2675
79465W        W22481   2.896   5.071  27.582 -0.1559  0.0521  0.0174
79466W        W22482   6.827  14.077   2.845  0.0001  0.1521 -0.3669
79467W        W22483  19.736   8.699   7.804  0.0066  0.1178 -0.0092
79468W        W22484  20.597  33.371   2.465  0.4985  0.0146 -0.0642
79469W        W22485  30.529   8.603   9.130  0.1012  0.0839 -0.0390
79470W        W22486  25.282   3.598   2.102 -0.3701  0.3010 -0.0201
79471W        W22487  28.331  10.978  24.611 -0.0190 -0.0156  0.1548
79472W        W22488  31.295   6.448  15.502 -0.0494 -0.1672  0.2846
79473W        W22489  14.581  34.613   5.552  0.0433  0.0945 -0.1453
79474W        W22490  21.106  17.690   8.142  0.0723 -0.0976 -0.0728
79475W        W22491  26.274  16.136   1.071  0.1561  0.0465 -0.0974
79476W        W22492  29.733  21.682  28.713 -0.1237  0.1998 -0.0573
79477W        W22493  13.282  15.817  26.639  0.3057  0.1652  0.2463
79478W        W22494  34.520  10.529   8.659  0.0947 -0.3580  0.2300
79479W        W22495   0.582  34.050   0.326  0.0585  0.2153 -0.2422
79480W        W22496  18.034  15.302   2.313 -0.0762 -0.0988  0.3818
79481W        W22497   9.863  17.175  28.375  0.3019  0.2213  0.4142
79482W        W22498  14.929  31.747  28.013 -0.1617  0.1113  0.0056
79483W        W22499  23.898   0.269  28.507  0.1184 -0.0933 -0.0459
79484W        W22500   8.865  12.196   6.688  0.0586 -0.0261 -0.2864
79485W        W22501  15.670  10.683  28.525  0.0710 -0.1732 -0.0430
79486W        W22502   3.705  14.924  16.928 -0.0348 -0.0130 -0.0425
79487W        W22503  33.597  32.746  25.761  0.2847 -0.0346  0.2002
79488W        W22504  21.542   0.353   7.536  0.0652  0.0146 -0.0640
79489W        W22505  16.591  20.033  23.522 -0.0856  0.1218  0.0911
79490W        W22506  10.951   5.456   3.895 -0.0593  0.5545  0.2860
79491W        W22507  27.957  13.241   2.739 -0.0098 -0.0999  0.2838
79492W        W22508  13.081  28.827   8.774 -0.2670  0.0693 -0.0010
79493W        W22509  17.720  12.126   4.082  0.1748  0.0191 -0.3537
79494W        W22510   5.990  16.647   8.323  0.1357  0.0753  0.1922
79495W        W22511  10.986   4.559   6.016  0.1391 -0.2322 -0.1167
79496W        W22512  11.253   7.274   0.637 -0.1032  0.4387 -0.0894
79497W        W22513   2.572  25.845  22.379 -0.0224  0.1557 -0.1632
79498W        W22514  16.727  14.583   2.436 -0.2211  0.1162  0.1020
79499W        W22515  14.171   0.718   6.407 -0.0927 -0.1382  0.0766
79500W        W22516  10.371  14.541   4.422 -0.2466 -0.0610 -0.0815
79501W        W22517  32.261  14.431   3.315  0.2245  0.2472  0.1307
79502W        W22518  11.094  11.072   4.872  0.0214 -0.0010  0.3904
79503W        W22519  30.527   6.335   4.648 -0.1327  0.2487  0.1327
79504W        W22520   2.777   7.770  22.799 -0.0601  0.0082  0.1200
79505W        W22521  29.144  16.559  25.571  0.0684 -0.1413  0.0125
79506W        W22522  17.719   6.820  27.878 -0.4187  0.0339 -0.1774
79507W        W22523   3.837  20.749   4.054  0.0507 -0.0915 -0.0481
79508W        W22524  19.566   9.808   7.508  0.1433 -0.2180 -0.1223
79509W        W22525  13.329   1.231   9.040 -0.2058  0.0492 -0.1380
79510W        W22526  32.992   3.533  15.929  0.0396  0.2495 -0.1530
79511W        W22527  27.810  15.907  27.512 -0.0800  0.0645 -0.2669
79512W        W22528   5.507   3.419   9.159  0.0946  0.3200 -0.0481
79513W        W22529   6.026  24.238   7.054 -0.1582  0.3355 -0.2219
79514W        W22530  18.340  14.516  23.148  0.0756 -0.1496 -0.0218
79515W        W22531  12.389  12.911   0.470  0.3942 -0.0381 -0.3351
79516W        W22532   5.921   9.122  24.417  0.2343  0.1601 -0.5107
79517W        W22533  24.660   7.151   5.688  0.0731 -0.4971 -0.1100
79518W        W22534  15.792  11.584  26.249 -0.3681 -0.3893 -0.2256
79519W        W22535  29.177  20.686   4.008 -0.0557 -0.1858  0.1934
79520W        W22536  18.225  29.034  10.018 -0.0450 -0.1756 -0.2060
79521W        W22537   4.036  19.665  28.680 -0.0543  0.0022  0.0340
79522W        W22538   4.589   9.455   2.043 -0.1825  0.1518  0.2479
79523W        W22539   7.503   9.424  17.690  0.1282 -0.1915 -0.2478
79524W        W22540  21.096  16.068  16.703 -0.1484 -0.0452  0.2104
79525W        W22541  10.626  17.341  17.704  0.1238  0.1312 -0.1820
79526W        W22542   8.400   4.502   7.717  0.1604 -0.0309 -0.0056
79527W        W22543  10.232   0.030   9.254 -0.0635 -0.1383 -0.2766
79528W        W22544   3.367  29.059   2.627  0.2619  0.1129 -0.0786
79529W        W22545   3.119  30.293   7.476 -0.1080  0.1493 -0.1445
79530W        W22546  17.694  19.248  22.426 -0.0501 -0.0800 -0.2782
79531W        W22547   0.667  13.039  27.227 -0.0190 -0.2762  0.0197
79532W        W22548   5.343  20.973   7.416 -0.1118  0.0073  0.1132
79533W        W22549  21.523  25.196  18.469 -0.5255 -0.2544  0.1608
79534W        W22550  13.135  15.837   3.962 -0.0574  0.1332 -0.1871
79535W        W22551   5.244   4.333  27.794 -0.0139  0.2467  0.0464
79536W        W22552  15.081  25.513   8.536 -0.1011 -0.0732  0.0353
79537W        W22553  32.872   3.433   6.127 -0.2102 -0.1050 -0.0887
79538W        W22554   6.197   9.315  18.723 -0.0334  0.0813  0.0776
79539W        W22555   0.792  12.220  10.744  0.1228 -0.1199 -0.1780
79540W        W22556  20.477   7.490   7.356  0.2055 -0.2004  0.1591
79541W        W22557   9.654   8.712  25.482  0.2575 -0.2225 -0.4868
79542W        W22558   9.082   1.725   1.763 -0.2393  0.0458 -0.1514
79543W        W22559   6.693  10.638   2.809  0.0358  0.1784 -0.3642
79544W        W22560  24.352  19.769   5.220  0.0776 -0.3521 -0.2472
79545W        W22561   5.605  11.303   8.629 -0.2086  0.0744 -0.3099
79546W        W22562  28.929  19.273  25.863 -0.1713  0.0347  0.2656
79547W        W22563  31.670   9.537  22.875  0.1581  0.3527  0.0679
79548W        W22564   4.602  20.590  28.521 -0.1373 -0.2793 -0.1510
79549W        W22565   8.081   8.281   2.922 -0.1427  0.0016  0.2841
79550W        W22566   6.733   7.631   9.493  0.0266 -0.4241 -0.3257
79551W        W22567  26.648  23.899   3.266  0.5523 -0.1635  0.1986
79552W        W22568  28.304  20.098   5.310  0.1808  0.0566 -0.0791
79553W        W22569  18.652   4.003   4.190 -0.1795  0.2033  0.0404
79554W        W22570  32.761   5.647  26.205 -0.0274  0.2932 -0.0326
79555W        W22571  21.194   5.210   4.908  0.0948 -0.0264  0.2004
79556W        W22572  22.996  13.842   2.959  0.1448  0.0352  0.1241
79557W        W22573  18.466   8.276  28.404 -0.0655 -0.0043 -0.0585
79558W        W22574  24.741   5.244  26.527  0.4099 -0.1605 -0.3866
79559W        W22575   9.403   3.090   6.016  0.0203 -0.2617 -0.0326
79560W        W22576   3.026  16.688  23.798 -0.2569  0.0495 -0.2200
79561W        W22577  26.435   5.345   0.049 -0.4725 -0.0703 -0.0073
79562W        W22578  18.872  13.554  25.158 -0.0077 -0.1169  0.1091
79563W        W22579   8.597  34.295   5.544 -0.2558 -0.0001  0.4361
79564W        W22580  22.035  26.976   6.331 -0.1766 -0.2314 -0.1200
79565W        W22581  32.191   0.866   0.194  0.3539 -0.1407 -0.0863
79566W        W22582  25.019  15.851  27.759  0.1595  0.3981 -0.0559
79567W        W22583  32.915  31.297   3.803  0.1159 -0.2833  0.2005
79568W        W22584   2.643  23.567  17.654  0.0121 -0.0752  0.2695
79569W        W22585  13.248   3.594  22.470 -0.2982 -0.0854 -0.1172
79570W        W22586  11.140  20.427  26.407  0.0419  0.1283 -0.2711
79571W        W22587  16.744   7.520  26.047 -0.3236  0.0747  0.0340
79572W        W22588   8.331   3.913  20.188 -0.1146  0.2466 -0.1132
79573W        W22589   5.440  19.458   6.975 -0.0901 -0.2727  0.0378
79574W        W22590  11.009  19.098   9.111 -0.1351  0.2480  0.0108
79575W        W22591  12.639  17.451  14.950 -0.1042  0.0308  0.2041
79576W        W22592  11.843   8.354  24.216 -0.0691 -0.3441 -0.2340
79577W        W22593  10.733  12.918  25.196 -0.0282  0.1212 -0.1185
79578W        W22594  17.868  19.237  28.437  0.1044 -0.1342 -0.0693
79579W        W22595   8.739  34.266   2.811 -0.1722 -0.0404  0.1436
79580W        W22596  18.054   8.419   8.737  0.0212  0.1467  0.1935
79581W        W22597  29.550  30.075  26.598  0.1583  0.0368 -0.1974
79582W        W22598   0.729   2.348   1.850 -0.1031  0.0773 -0.1134
79583W        W22599  10.904  20.272   6.704 -0.1419  0.3357  0.2391
79584W        W22600   5.056  20.311  29.228 -0.0050  0.1710 -0.3119
79585W        W22601  28.702  29.496  28.358 -0.1364 -0.1887 -0.0976
79586W        W22602  22.787  10.949   7.121 -0.2033 -0.3094  0.2416
79587W        W22603  12.506   6.150  23.830  0.0867 -0.2660  0.2229
79588W        W22604  21.982   4.680   3.583 -0.0878 -0.2249  0.0292
79589W        W22605   7.206   0.994   1.453  0.4117 -0.0263  0.4645
79590W        W22606   4.790   2.011   7.545  0.3725  0.3765  0.1399
79591W        W22607   2.339   4.125   7.410 -0.2877  0.1171  0.1320
79592W        W22608  16.249   7.036   4.269 -0.3692  0.1612 -0.5765
79593W        W22609  27.289   5.070   2.363 -0.1526 -0.0311 -0.2240
79594W        W22610   3.933  14.866   2.414 -0.4226  0.0427 -0.1096
79595W        W22611   3.148  10.442  22.497  0.1035  0.1426  0.1235
79596W        W22612   5.707  25.903  25.644 -0.0478  0.0896  0.1819
79597W        W22613   4.314   7.283   6.611 -0.0581 -0.1450  0.1423
79598W        W22614  20.184   0.077   9.585 -0.0404 -0.1270 -0.0198
79599W        W22615   2.713  11.887  25.648 -0.0331 -0.1764 -0.0379
79600W        W22616  17.958  30.691  16.087  0.0959  0.0385  0.1688
79601W        W22617  15.909  10.091   2.363  0.1397  0.0687 -0.1518
79602W        W22618   9.009  20.377   2.961 -0.0446 -0.0459 -0.0269
79603W        W22619  11.559   0.300   8.138  0.3621 -0.0344  0.2425
79604W        W22620  10.891   3.652   5.708 -0.1276 -0.1790 -0.0484
79605W        W22621   4.646  12.470   2.133 -0.2581  0.2474  0.2861
79606W        W22622  12.464  32.032  28.740 -0.1243 -0.0172  0.0774
79607W        W22623  19.947   1.456   0.829  0.1045 -0.1715 -0.0708
79608W        W22624  13.018   3.790   0.800  0.1367  0.2547 -0.0200
79609W        W22625  15.144  34.328  26.583  0.0001  0.0115  0.3689
79610W        W22626   1.771  30.527   8.395  0.1955  0.0132  0.2324
79611W        W22627  16.783  10.096  26.610 -0.0879  0.2586  0.0894
79612W        W22628  17.406  12.754   3.931  0.0825  0.1703  0.0066
79613W        W22629  19.314   4.063  10.245  0.0935  0.1033  0.0970
79614W        W22630   9.778  13.089   3.726  0.1577  0.0080 -0.0209
79615W        W22631   6.997  14.817  25.245  0.0424  0.0135 -0.0080
79616W        W22632  11.388   4.238   8.431  0.4708 -0.0296 -0.2435
79617W        W22633   2.032  18.782   1.634  0.1544  0.0193 -0.2599
79618W        W22634   8.675  27.895  21.101 -0.0944  0.0839 -0.1663
79619W        W22635   7.383  33.814  10.296 -0.2756  0.1071  0.0500
79620W        W22636  11.565   4.959   7.406 -0.0286 -0.2921 -0.3224
79621W        W22637  14.630  15.277  16.012 -0.2161  0.0858 -0.3374
79622W        W22638   0.114  22.536   1.528  0.1110 -0.0846  0.0849
79623W        W22639   7.266  10.276   9.732  0.0957  0.2797 -0.0781
79624W        W22640   9.432  12.881   0.941 -0.2406  0.0893  0.0553
79625W        W22641  14.164  27.063   5.668 -0.5166  0.0542  0.0061
79626W        W22642   5.092  30.652   4.651 -0.0685 -0.1435 -0.0554
79627W        W22643  30.265   9.757   4.756  0.0928  0.1804 -0.2082
79628W        W22644  19.154  11.936  24.925 -0.1797 -0.1946 -0.2746
79629W        W22645  30.814  17.114  18.921 -0.0168 -0.0379  0.0137
79630W        W22646   4.796   5.149   6.808  0.0025  0.1058  0.2915
79631W        W22647  18.788  18.098  21.284  0.1579 -0.0806 -0.0045
79632W        W22648  33.090   2.559  27.051  0.1627  0.1577  0.3962
79633W        W22649  18.079  12.603   2.914 -0.0331 -0.0005 -0.0885
79634W        W22650  33.763  14.272  22.599 -0.0786  0.2249 -0.2655
79635W        W22651  17.334  11.235   3.769  0.0436 -0.0901 -0.4256
79636W        W22652   7.175   1.265   8.681 -0.1235 -0.0217 -0.0104
79637W        W22653   6.486  19.688   7.830 -0.2430 -0.1221 -0.0472
79638W        W22654   5.664  13.420   2.943 -0.2313  0.1570  0.0771
79639W        W22655  14.567  29.198   5.762 -0.0798  0.2593 -0.3004
79640W        W22656  17.789  21.246   9.058  0.6084 -0.1136 -0.0370
79641W        W22657  12.644  12.503   3.562  0.0142  0.1045 -0.2911
79642W        W22658  13.471  22.176   8.720  0.1005 -0.2595  0.1785
79643W        W22659   0.520  16.144  14.427 -0.1881 -0.1355 -0.0302
79644W        W22660  15.695  19.304  25.018 -0.2008  0.5166 -0.0012
79645W        W22661  31.333  18.990  25.559 -0.3073 -0.0718 -0.0463
79646W        W22662  14.347  18.833  24.352 -0.1501  0.3716  0.4184
79647W        W22663   7.768  23.102  28.602 -0.0732 -0.1290  0.0973
79648W        W22664  26.284  31.102   9.158  0.2660  0.2740 -0.3221
79649W        W22665  22.179  11.468  28.219 -0.1797  0.2499  0.0089
79650W        W22666   2.792  13.224   1.406  0.1701  0.1055  0.0581
79651W        W22667   9.819   1.409   3.667 -0.0996 -0.0150  0.1569
79652W        W22668  17.377  13.354   3.269  0.0939  0.1933  0.1335
79653W        W22669   9.499  12.119   7.811 -0.0091 -0.0736  0.0024
79654W        W22670   2.481  24.192  29.239 -0.4147  0.0150 -0.1674
79655W        W22671  29.542  24.790  25.357  0.0655 -0.3709  0.1268
79656W        W22672  19.638  13.564   3.534 -0.0713 -0.1062  0.1028
79657W        W22673   9.468  33.674   7.082  0.2304  0.4657  0.0530
79658W        W22674  12.749   6.541  18.632  0.3369  0.3653  0.0090
79659W        W22675   9.394  18.603  24.030 -0.1052  0.1893 -0.3646
79660W        W22676  33.375  14.832   6.762 -0.0205 -0.0468  0.0680
79661W        W22677   9.270   3.625   6.496 -0.0734 -0.1492  0.4267
79662W        W22678   3.663   2.449   8.949  0.1049 -0.0865  0.1846
79663W        W22679   4.030   2.755   7.476 -0.3539  0.0770 -0.0097
79664W        W22680  29.996  19.224   2.756  0.3738  0.1153  0.1236
79665W        W22681  29.212   4.992   0.777 -0.1027  0.0157  0.0985
79666W        W22682  18.486  32.932  24.629  0.1644 -0.0785 -0.2435
79667W        W22683   3.862  10.361   1.508  0.2730 -0.0145  0.1060
79668W        W22684  14.566  15.899  18.948 -0.1500 -0.2102  0.3453
79669W        W22685  16.265  10.886  18.295  0.1324  0.1531 -0.1400
79670W        W22686  17.719  16.032   7.430  0.2756  0.1361  0.3486
79671W        W22687   7.019  15.612   2.768  0.1421 -0.0750  0.2488
79672W        W22688   4.141   8.500   9.011 -0.3315 -0.0777  0.0449
79673W        W22689  12.360  18.139   4.791  0.1508 -0.0760  0.0986
79674W        W22690  32.056   2.555  22.912  0.0030 -0.1052  0.1054
79675W        W22691  14.307  15.089  28.070  0.1329  0.1538 -0.1128
79676W        W22692  15.434  18.530  22.877  0.1788 -0.1951  0.1517
79677W        W22693  17.081  13.130   6.770  0.1507  0.0243 -0.0595
79678W        W22694   7.775  22.992  24.236  0.1547 -0.3953  0.0913
79679W        W22695  13.806  13.865  22.007  0.0676 -0.0754 -0.1061
79680W        W22696   0.991   2.509   7.429 -0.0822  0.0241  0.3375
79681W        W22697  15.432  27.642   4.786 -0.1303  0.1016 -0.2358
79682W        W22698   9.756  13.268  24.234 -0.0068 -0.1503  0.4890
79683W        W22699  32.648  12.788   0.144  0.0120 -0.1324 -0.0795
79684W        W22700  13.030  16.821   7.895 -0.0253 -0.3256 -0.1572
79685W        W22701  13.217   8.014   2.119 -0.0364  0.0496 -0.1675
79686W        W22702   3.301  12.537   6.898 -0.0455 -0.0028  0.0614
79687W        W22703  21.570  13.371  15.893 -0.0263  0.1046  0.3596
79688W        W22704  20.126  18.913   6.874 -0.1423  0.1322 -0.1668
79689W        W22705  30.891   6.039   7.987  0.0394  0.0661 -0.0472
79690W        W22706  14.646  21.369  29.079  0.0817 -0.0652  0.0798
79691W        W22707  12.983  26.938   6.764  0.2354 -0.0268  0.1684
79692W        W22708   5.363   2.910  27.672  0.1033  0.2449  0.1219
79693W        W22709   1.792   8.205   5.232 -0.3625  0.0984  0.1241
79694W        W22710  16.017  29.059   0.593  0.2717  0.0913 -0.0140
79695W        W22711  26.342  15.452   6.804  0.2137  0.1072  0.2081
79696W        W22712  30.171   1.232   9.283 -0.3935  0.1277 -0.1455
79697W        W22713   2.062   7.664   2.681  0.1163  0.1446  0.5418
79698W        W22714  26.697  15.243   6.444 -0.0255 -0.0213  0.1924
79699W        W22715  14.142   1.521   6.946  0.4290  0.2990  0.2080
79700W        W22716   9.911   6.960   8.287 -0.1153 -0.1522 -0.0970
79701W        W22717  14.359   4.758  26.857 -0.3170  0.1619 -0.3354
79702W        W22718  11.133   7.612   3.117  0.0785 -0.0686  0.0262
79703W        W22719   6.784   7.903   5.289 -0.2962  0.1608  0.0912
79704W        W22720  30.300   8.006   0.199 -0.1823 -0.0857 -0.2986
79705W        W22721   8.537  13.134   4.450  0.3652  0.2441  0.0190
79706W        W22722   7.518   1.792  10.553 -0.0777 -0.3781 -0.1043
79707W        W22723   5.546   7.353   0.265  0.1092 -0.0417 -0.0748
79708W        W22724  18.610  13.324  28.869  0.2412 -0.0759  0.2765
79709W        W22725   1.464   4.257  24.441 -0.0596  0.0360 -0.2398
79710W        W22726  10.362  12.469   3.337  0.2622 -0.1206  0.1297
79711W        W22727  31.861  24.635   5.653  0.3491  0.0062  0.1126
79712W        W22728  12.412  14.042  20.027 -0.0714 -0.0614  0.0083
79713W        W22729  14.926   9.897  22.326 -0.0486 -0.3861 -0.0546
79714W        W22730   2.360  32.802   8.760  0.2237 -0.0906  0.2747
79715W        W22731  18.218   3.287   1.553  0.3228  0.1090  0.2363
79716W        W22732  13.309  11.962   0.197 -0.1315 -0.2132  0.1611
79717W        W22733   4.695  14.597   6.562  0.0749 -0.0309  0.0622
79718W        W22734  12.781   4.947   9.298 -0.5827  0.1621 -0.1118
79719W        W22735   1.430  16.416  26.819 -0.2233 -0.1532 -0.4783
79720W        W22736   7.854  21.445   6.263 -0.0154 -0.0946 -0.2179
79721W        W22737  10.690  18.497   2.664 -0.0290  0.1671 -0.3367
79722W        W22738  17.126  18.502  23.913  0.0324  0.0117 -0.2475
79723W        W22739  16.725  29.933   8.020  0.0856 -0.1787  0.1430
79724W        W22740   6.941   9.425   2.877  0.0217 -0.0977 -0.0779
79725W        W22741  18.494   5.715   5.809 -0.0266  0.0044 -0.2455
79726W        W22742  22.691   2.525   2.506  0.1906 -0.1293 -0.4066
79727W        W22743  33.100  22.262  16.593  0.1935 -0.2190  0.0286
79728W        W22744   8.718  12.447   2.144 -0.1135  0.1474 -0.0174
79729W        W22745  15.768   4.724   1.813  0.2842 -0.4605 -0.2167
79730W        W22746   9.348  15.800   0.068  0.2165  0.1653  0.2191
79731W        W22747   4.118   6.771  21.130  0.1761  0.0738 -0.0002
79732W        W22748  21.274   7.138   2.575  0.2128  0.0031 -0.2219
79733W        W22749   2.263   2.751   5.758  0.1003 -0.0597  0.1469
79734W        W22750  13.365  16.677  24.689  0.2275 -0.0136 -0.0058
79735W        W22751  15.615  12.072   5.335 -0.3519  0.1794 -0.2219
79736W        W22752  26.248  21.915   5.838 -0.1201 -0.0671 -0.1098
79737W        W22753   6.597   0.296   8.793 -0.1638 -0.1671  0.4145
79738W        W22754   6.693   4.941  28.405 -0.2157  0.1595  0.0489
79739W        W22755  12.412  29.413   0.227 -0.2044  0.0825 -0.1466
79740W        W22756   8.235  32.927  24.862  0.0589  0.1137  0.2364
79741W        W22757   6.544  21.850  20.663  0.2054  0.0989 -0.0346
79742W        W22758   9.635  15.690   8.238  0.0618 -0.2533  0.0165
79743W        W22759  16.436  34.306  25.347 -0.1198 -0.0563 -0.0136
79744W        W22760  16.926  15.471  18.963  0.0876  0.0035 -0.0672
79745W        W22761  11.357   5.950   0.194  0.0952 -0.1111  0.1223
79746W        W22762  13.212  22.979  24.335 -0.1068 -0.2553 -0.3170
79747W        W22763  17.768  14.701   4.628 -0.1458  0.2007 -0.1554
79748W        W22764  16.234  24.180   4.069 -0.0515  0.0107  0.0631
79749W        W22765   3.989   0.604  23.922 -0.0899  0.0857 -0.2836
79750W        W22766  28.090   0.904  27.692  0.1228 -0.1491 -0.0416
79751W        W22767  19.109  31.257   3.874  0.0845 -0.3235 -0.0024
79752W        W22768  14.676  11.201   4.025 -0.1976 -0.1427  0.3983
79753W        W22769  17.139  34.056   9.439 -0.0193 -0.1011 -0.1527
79754W        W22770  34.049  13.622   6.280 -0.1932  0.4597  0.0847
79755W        W22771  19.696  33.575  18.444 -0.0550  0.0628  0.0880
79756W        W22772   7.940  11.001   5.152  0.3837 -0.0946 -0.1990
79757W        W22773  11.837  10.579   6.750  0.3285 -0.0483 -0.1073
79758W        W22774   3.670  18.198  25.089  0.3507 -0.3275  0.0019
79759W        W22775  10.581   1.104   4.160 -0.1669 -0.0210 -0.0216
79760W        W22776  31.328  11.202  25.860  0.0767  0.1941  0.0304
79761W        W22777   7.601  34.223   8.266  0.0151 -0.2291 -0.1322
79762W        W22778  17.753   1.132   3.417 -0.2971  0.2275 -0.0672
79763W        W22779  15.481  13.913  24.793  0.1234 -0.0985  0.1480
79764W        W22780   7.543  19.657   2.051  0.1247 -0.0356  0.2648
79765W        W22781  31.752  13.593   7.656  0.5663  0.1437 -0.3065
79766W        W22782  14.629  18.256   6.487  0.0259  0.3744 -0.2134
79767W        W22783  12.672  15.311  20.396 -0.2270 -0.2618 -0.1787
79768W        W22784   8.257   2.305  26.753  0.0133 -0.0852  0.0906
79769W        W22785  11.572   3.868   7.397  0.4000  0.2220 -0.1358
79770W        W22786  14.633  26.720   9.956  0.0744  0.0481  0.3619
79771W        W22787  20.768  13.541  15.863  0.1503  0.3233 -0.3397
79772W        W22788  14.553  24.445   3.659  0.1367  0.0807 -0.2556
79773W        W22789  19.291  14.660   5.920 -0.0340  0.1246  0.1670
79774W        W22790  22.915  13.101   1.795 -0.0591  0.1061  0.3832
79775W        W22791  31.990   5.955  26.203  0.0921 -0.0649 -0.1917
79776W        W22792  16.915   4.991   5.159 -0.3774 -0.0280 -0.0592
79777W        W22793  10.029  11.288   3.496  0.0998  0.3275 -0.1357
79778W        W22794   5.912   0.847   9.667  0.0003 -0.1342 -0.0325
79779W        W22795   2.685   6.802   7.886 -0.4284 -0.1529 -0.0480
79780W        W22796   5.741  34.721  27.597  0.2045 -0.0581 -0.0745
79781W        W22797  23.955  14.047   3.725 -0.0477  0.0731  0.3410
79782W        W22798   7.390  15.674  23.260  0.1895 -0.2924 -0.6506
79783W        W22799  25.490  16.890   0.516  0.0839  0.0857 -0.0757
79784W        W22800  12.242   9.407   8.500 -0.1299  0.1027  0.2619
79785W        W22801  20.843  14.054   3.549  0.2159  0.1593 -0.0297
79786W        W22802  15.695  20.862   8.042 -0.2111  0.1157  0.0997
79787W        W22803  28.256   6.217   2.518 -0.2245 -0.1870  0.0590
79788W        W22804   4.401  13.380   7.752 -0.1866 -0.0547 -0.3386
79789W        W22805  20.004  12.279  18.916  0.3225  0.1779 -0.1890
79790W        W22806   4.703  17.898  25.959  0.0297 -0.0127  0.1668
79791W        W22807   4.121  11.343   0.368  0.2550 -0.0654  0.1424
79792W        W22808  10.065  29.106   8.681 -0.1369  0.0682  0.1408
79793W        W22809  22.288  14.496   0.474  0.1420  0.3239  0.0667
79794W        W22810  15.917  34.736   8.347 -0.2462 -0.0654 -0.0635
79795W        W22811  20.265  22.860  18.178  0.5653  0.1355 -0.3281
79796W        W22812   3.160  27.834   7.679  0.0762 -0.2650 -0.0130
79797W        W22813  21.678   6.857   9.840 -0.0613 -0.1907 -0.0237
79798W        W22814  28.618   6.734   3.201 -0.1496  0.2096 -0.1525
79799W        W22815  14.021  15.855   1.066  0.3116  0.0356 -0.1359
79800W        W22816   8.594  11.348  27.586 -0.1167 -0.3796 -0.0193
79801W        W22817  34.041   1.291   9.825  0.0981 -0.0419 -0.2841
79802W        W22818  16.719  14.631  28.715  0.2862 -0.2235 -0.0054
79803W        W22819   6.083   8.244  28.749 -0.3360 -0.0751  0.0997
79804W        W22820  22.170   8.169   8.656 -0.3145  0.1688 -0.2737
79805W        W22821  11.063   8.183   8.639  0.0286  0.1891  0.1571
79806W        W22822   5.992  11.845   7.003  0.1059 -0.0971 -0.1052
79807W        W22823   7.684  11.333   6.987 -0.1203 -0.1330  0.1067
79808W        W22824  11.674  13.233   7.284 -0.3034 -0.0229 -0.1893
79809W        W22825  31.980  30.811   4.574 -0.1653 -0.0974  0.0281
79810W        W22826  10.855   5.660   0.370 -0.3059  0.1374 -0.1434
79811W        W22827   2.368   0.270   2.328 -0.2466 -0.3584  0.0823
79812W        W22828   3.317  26.610  10.020 -0.0300 -0.0076 -0.0391
79813W        W22829  14.053  18.679   4.569  0.1208  0.0998 -0.1154
79814W        W22830   2.172   2.187   4.487  0.0198  0.2434  0.1354
79815W        W22831   5.168  10.833  23.744  0.0246  0.2098  0.3755
79816W        W22832  13.818  34.708   2.485  0.3783 -0.1045 -0.1855
79817W        W22833  27.171   9.234  27.227 -0.3278  0.0131 -0.1179
79818W        W22834  11.693   6.536  26.843 -0.0005 -0.2106 -0.0995
79819W        W22835  14.910  20.091   5.549 -0.0756 -0.1697 -0.0656
79820W        W22836  12.974  27.328  23.320  0.1476  0.1392  0.2260
79821W        W22837  12.901  16.569   4.833 -0.1633  0.0763  0.0228
79822W        W22838  11.181  29.530   7.950 -0.3006  0.3436  0.1636
79823W        W22839   6.460   6.434  27.052  0.1640  0.3081  0.0891
79824W        W22840  25.602   9.622   1.529 -0.2549 -0.1729  0.2080
79825W        W22841  14.094  13.275  14.794 -0.0888  0.2165  0.1684
79826W        W22842  15.635  14.579  23.224 -0.1058 -0.2032 -0.1054
79827W        W22843   4.481   8.077   8.719 -0.1976 -0.0294  0.0217
79828W        W22844  23.494  29.583  19.479  0.2245 -0.2743  0.2782
79829W        W22845   3.544  25.928  15.686  0.3580  0.0980  0.0210
79830W        W22846  12.039  26.309  29.129 -0.0200 -0.3695  0.2716
79831W        W22847   8.818  32.907  29.149 -0.2161 -0.0547 -0.1605
79832W        W22848  22.143  28.123   8.301 -0.3681  0.0990  0.1293
79833W        W22849  17.107  13.141  22.084  0.1196 -0.0529  0.0871
79834W        W22850  10.236   0.207  10.191  0.1615  0.1457 -0.0815
79835W        W22851   0.719   9.323   4.035  0.1392 -0.0334  0.3442
79836W        W22852   7.291  32.524  25.521  0.2932  0.2028 -0.3807
79837W        W22853   7.350   6.928   6.146 -0.0839 -0.0671 -0.0882
79838W        W22854  23.764   4.239  27.066 -0.1157 -0.0765  0.3245
79839W        W22855  11.544   2.548   8.784 -0.0670  0.1714 -0.1865
79840W        W22856   0.805  16.918   7.573 -0.2851  0.2783 -0.1584
79841W        W22857  10.709   4.106  21.816 -0.2261 -0.0102 -0.2445
79842W        W22858  31.264  11.672   9.124 -0.0791 -0.0972 -0.0567
79843W        W22859   8.487   7.646   9.461  0.0218  0.0235 -0.1627
79844W        W22860  20.067  11.519  26.289  0.0549 -0.0422  0.1243
79845W        W22861  14.603   3.986  26.902  0.0588 -0.0774  0.1011
79846W        W22862  31.915  15.877   6.724 -0.0326 -0.2945 -0.0859
79847W        W22863  19.651  12.327   4.333  0.0872  0.1107  0.4003
79848W        W22864  31.341  12.707   7.832 -0.2502  0.0479  0.0552
79849W        W22865   4.983  13.194  29.198 -0.7073  0.0994  0.3740
79850W        W22866  11.666  15.005  26.449  0.5437 -0.0084  0.4998
79851W        W22867  11.134  17.722   4.933  0.1627 -0.0424  0.1308
79852W        W22868  16.128  16.682  27.103 -0.1200 -0.4228 -0.1891
79853W        W22869  11.738  13.310   4.386 -0.0864  0.0557 -0.0078
79854W        W22870   6.103  27.705   1.279 -0.0860 -0.1830 -0.0628
79855W        W22871  14.423  10.895  25.614  0.4138 -0.1397 -0.4467
79856W        W22872   9.807  14.419   2.040 -0.0946  0.1576  0.0553
79857W        W22873  10.853  13.611   3.134 -0.2919  0.0290  0.0978
79858W        W22874   3.786  13.846   7.756  0.1588 -0.4260  0.0663
79859W        W22875   9.064  30.896   4.395 -0.1759 -0.2490 -0.2504
79860W        W22876  12.868   9.036   9.387  0.0844 -0.2528  0.2251
79861W        W22877   0.931   5.495   3.170  0.1497 -0.0264 -0.0090
79862W        W22878  22.143  10.316   2.529 -0.0521 -0.2209  0.1056
79863W        W22879  29.371   7.141  28.452 -0.4211  0.1053 -0.3592
79864W        W22880   2.363  10.194  28.232 -0.2210  0.0677  0.1920
79865W        W22881  12.714  26.567   6.463  0.0092 -0.1331  0.3495
79866W        W22882   8.725   9.911  24.285 -0.1119  0.0549  0.4461
79867W        W22883   5.681  17.403   6.749 -0.0842  0.2769  0.1599
79868W        W22884   0.736   6.501   7.920  0.4704  0.2223 -0.2481
79869W        W22885  24.284   6.252  27.861 -0.2866  0.2754  0.0601
79870W        W22886  18.693  18.530  23.830 -0.1082 -0.1147  0.1182
79871W        W22887  31.906  11.593   9.754  0.1683  0.1893 -0.0167
79872W        W22888  19.658  14.598  25.938  0.1061  0.3297  0.0653
79873W        W22889   5.680   6.274  28.171 -0.0013 -0.0105  0.0475
79874W        W22890  22.326   4.601   1.563 -0.1064  0.2485  0.4621
79875W        W22891  18.523   3.543   5.886 -0.1499 -0.2305 -0.0416
79876W        W22892  11.206  10.536   4.894 -0.2437  0.4930  0.1410
79877W        W22893   8.989  14.414   3.410  0.0604  0.3200 -0.0561
79878W        W22894  18.881  11.660  22.145  0.0386 -0.0799  0.0663
79879W        W22895   8.050  17.726   7.299  0.0382  0.2826 -0.0947
79880W        W22896  22.896   5.195   6.019  0.0156  0.0819  0.1165
79881W        W22897   7.269   0.146   6.964 -0.0043  0.1583 -0.2035
79882W        W22898  10.325  15.216  27.919 -0.0323  0.1245 -0.2531
79883W        W22899   3.547   0.379   8.163  0.1654  0.2330 -0.0258
79884W        W22900  33.988   9.709  26.856 -0.1561 -0.0201  0.1384
79885W        W22901   6.933  16.972  24.269  0.0944  0.0434 -0.2918
79886W        W22902  11.077  34.518  16.695  0.0505  0.1427 -0.4335
79887W        W22903  11.921  24.651   0.666  0.3622  0.1006 -0.1783
79888W        W22904  17.440   6.046   9.523  0.0093  0.4967 -0.0149
79889W        W22905   6.126  28.801  25.808  0.4166  0.0725 -0.0699
79890W        W22906   8.820  28.000   6.033  0.1238  0.1895  0.0178
79891W        W22907  12.223   5.619  28.937 -0.0003 -0.1106 -0.2144
79892W        W22908   7.244  23.404   6.710 -0.2917 -0.0989 -0.1237
79893W        W22909   7.305   3.143   4.791  0.4895 -0.1020 -0.2095
79894W        W22910  16.537  13.882   4.984  0.1456 -0.0731 -0.2272
79895W        W22911  16.489  22.245   6.203  0.2573 -0.1160 -0.0586
79896W        W22912  18.728  17.880   7.971 -0.0956  0.0457 -0.0124
79897W        W22913  12.760  10.180   0.671  0.2060  0.0475  0.2528
79898W        W22914  32.043  32.202   3.345 -0.0370 -0.2738  0.2555
79899W        W22915  13.279  13.660   5.963  0.0926 -0.1982  0.0675
79900W        W22916   9.273  19.544   5.019  0.1296  0.0989  0.3420
79901W        W22917  14.527   5.125   9.335  0.0652 -0.1732  0.1852
79902W        W22918   6.225   2.514  21.509  0.1010 -0.3900 -0.0627
79903W        W22919  24.723  12.436   9.078  0.0360 -0.0012  0.2753
79904W        W22920   7.526   2.298   6.163  0.1232 -0.1265  0.3175
79905W        W22921   3.849  16.702   7.508  0.8348 -0.1808  0.0340
79906W        W22922  23.642  19.785  25.671  0.3094 -0.5632  0.2858
79907W        W22923  16.899   9.445   5.179  0.5184  0.1234 -0.2920
79908W        W22924  25.085  33.376  10.775  0.2234  0.2111  0.0990
79909W        W22925  22.554  24.673  10.146  0.2520 -0.1179  0.3564
79910W        W22926  11.577   7.396   1.435  0.1083  0.2074  0.4070
79911W        W22927  25.124   4.401   6.527 -0.0236 -0.2806  0.2059
79912W        W22928   8.476   2.586  20.420  0.1335  0.1479  0.3098
79913W        W22929  12.274   8.161   3.473 -0.2575 -0.2116 -0.2318
79914W        W22930  31.102   7.730  23.487 -0.3945  0.1528 -0.1067
79915W        W22931   1.865   4.849   3.669  0.2267  0.1526  0.1664
79916W        W22932  11.508  24.532   2.186 -0.2395 -0.1753 -0.2212
79917W        W22933   7.416  29.456   7.414 -0.0368  0.2936  0.0542
79918W        W22934  23.955  13.608  21.019  0.0951 -0.1425 -0.3074
79919W        W22935   4.815  13.916   7.890 -0.0998 -0.4597 -0.0545
79920W        W22936  20.335   5.446   7.138  0.0488  0.1761 -0.2497
79921W        W22937   4.352  14.907   0.952 -0.0274 -0.2060 -0.0210
79922W        W22938   6.387   2.282  24.213 -0.0424  0.1314  0.1538
79923W        W22939  15.876   4.500   0.922 -0.3047 -0.0134 -0.3202
79924W        W22940  27.765  12.890   8.795 -0.2409 -0.0667  0.1215
79925W        W22941   9.966   0.736  10.277  0.0610  0.2778 -0.0953
79926W        W22942   0.947  30.628   9.489  0.1515 -0.0708  0.0673
79927W        W22943  21.701  16.952   9.177  0.1854  0.2971 -0.1537
79928W        W22944   6.417   4.426  20.903 -0.1108 -0.0526 -0.0413
79929W        W22945   5.557  12.232   7.746  0.0390 -0.1889  0.0532
79930W        W22946  22.938   7.894  27.974  0.0551 -0.0409 -0.1895
79931W        W22947   9.403  18.857   6.678 -0.0253 -0.6393  0.0468
79932W        W22948  22.064   8.046   9.197 -0.1207 -0.3881 -0.0435
79933W        W22949  28.012   2.806   2.869 -0.0033  0.1997  0.0197
79934W        W22950   4.949  20.202   5.207 -0.0555 -0.2742 -0.1455
79935W        W22951  33.947   0.437  14.827 -0.0351  0.0514 -0.0756
79936W        W22952  25.223  27.501   6.127 -0.2282  0.0681 -0.1803
79937W        W22953  12.235  31.519  25.101 -0.2487  0.1913  0.2039
79938W        W22954  13.119   3.924   2.227  0.0613  0.2553 -0.1698
79939W        W22955   8.305  27.797  23.263  0.3037  0.0560  0.1880
79940W        W22956  11.677   5.654  10.198  0.2842  0.0257  0.0376
79941W        W22957   2.053  14.775   4.405  0.0718 -0.0797 -0.0773
79942W        W22958  32.102  32.580   9.855  0.4477 -0.0054 -0.0002
79943W        W22959  30.490  14.765   3.307 -0.3162 -0.1732  0.1444
79944W        W22960  22.912  15.275  26.403  0.1520  0.1850 -0.2281
79945W        W22961  16.827  27.287   7.569 -0.1382 -0.5596 -0.3801
79946W        W22962  31.610   6.148  21.656 -0.1597 -0.0328  0.4627
79947W        W22963  21.631   1.307  25.843  0.0011 -0.2167 -0.1375
79948W        W22964   2.293  13.965  20.331 -0.2118  0.1928 -0.0329
79949W        W22965   5.392  11.896   0.194 -0.3017  0.0527 -0.0389
79950W        W22966  17.645  12.366  28.567 -0.1742 -0.0582 -0.1915
79951W        W22967  13.689   2.174  27.468 -0.4262 -0.2271 -0.0533
79952W        W22968  15.127  22.490   6.998  0.0071 -0.2016  0.2115
79953W        W22969  14.870   8.290   8.727 -0.0407 -0.0164  0.0761
79954W        W22970  10.079  34.404   3.228 -0.4156 -0.0197  0.1213
79955W        W22971  34.021   6.519   0.454 -0.0595  0.0528  0.2541
79956W        W22972   6.956   6.454  18.212 -0.2987  0.2534 -0.0538
79957W        W22973   3.095   5.976   1.555  0.0632 -0.0072 -0.0438
79958W        W22974  24.697   2.741   7.384 -0.0159 -0.4035  0.1814
79959W        W22975  24.625   1.735   3.082  0.3306  0.0932  0.2026
79960W        W22976  32.165   6.829   7.937 -0.3708 -0.1179 -0.1504
79961W        W22977  25.395  19.031   3.521 -0.0662 -0.2335 -0.2396
79962W        W22978   7.991   8.547   9.761 -0.0343  0.0692 -0.0608
79963W        W22979  27.455   6.162   7.621  0.3041  0.1423  0.1552
79964W        W22980  33.450   6.250   4.355  0.4147 -0.1991 -0.2147
79965W        W22981  13.828   5.375   1.601  0.1252 -0.3167 -0.1575
79966W        W22982   1.322  25.201   8.970 -0.1473 -0.3646  0.0916
79967W        W22983  13.206  10.925  29.131  0.0936  0.0284 -0.0140
79968W        W22984  14.517   9.561   0.758  0.0281  0.3761  0.0679
79969W        W22985  14.919  18.726  20.876  0.3537 -0.0950 -0.3628
79970W        W22986  13.777  18.916  24.209 -0.2513  0.1763 -0.0242
79971W        W22987  11.442  32.539   7.165  0.1245  0.0998 -0.2111
79972W        W22988   4.312   6.718  28.494 -0.0615  0.3479 -0.0081
79973W        W22989  11.132  23.956   7.768 -0.3596  0.1215  0.1213
79974W        W22990   7.323  11.988  21.740  0.2391  0.0952  0.0069
79975W        W22991   3.251  10.253  26.788  0.0559  0.0479 -0.2063
79976W        W22992  16.429  10.638   8.026 -0.0262 -0.0052  0.0390
79977W        W22993  34.103   7.991   2.404 -0.0920 -0.1612  0.2788
79978W        W22994  14.806   0.751   3.512  0.1160 -0.0201  0.4333
79979W        W22995  14.104  12.660  18.688  0.4419 -0.1764  0.0977
79980W        W22996  12.680   6.264   8.600  0.0278  0.0649  0.1820
79981W        W22997  18.092  10.774  13.424  0.1121  0.2440 -0.0326
79982W        W22998  16.833  33.331  28.956  0.1500  0.2901 -0.2339
79983W        W22999  12.203   8.063   5.812 -0.0092 -0.0567  0.0772
79984W        W23000  14.928   1.408   7.662 -0.1335  0.2736  0.1720
79985W        W23001   4.446  11.300   8.401 -0.1537  0.0140 -0.2696
79986W        W23002   7.238  21.098   9.398  0.1183 -0.3154 -0.0021
79987W        W23003  17.705  31.495   3.001  0.2808  0.1943 -0.5498
79988W        W23004  25.316   6.791   7.514 -0.1162 -0.1017  0.3181
79989W        W23005  13.155   7.818   7.399 -0.0109  0.0159 -0.1062
79990W        W23006  16.100  20.882   2.630  0.1709 -0.1370  0.0922
79991W        W23007  28.416  34.503  28.367  0.1966  0.0030  0.4988
79992W        W23008  14.707   9.120   3.955  0.3976  0.0735  0.1222
79993W        W23009   3.331  34.668   6.664 -0.0786  0.1867 -0.0100
79994W        W23010  26.007  19.830   6.539  0.1545 -0.1000 -0.1100
79995W        W23011   9.284  16.311   8.470 -0.0753  0.3277 -0.1909
79996W        W23012  23.202   8.994   4.351 -0.2457 -0.1037  0.0385
79997W        W23013   0.987   6.381  28.676 -0.3435  0.0349 -0.1155
79998W        W23014  24.011  15.795   2.030 -0.1939  0.0511  0.2452
79999W        W23015  23.155  10.359   7.815  0.0008 -0.2123 -0.2395
80000W        W23016  21.723   7.381   8.932  0.0798  0.1712 -0.0478
80001W        W23017   0.832   9.284   8.142  0.0925  0.1533  0.0486
80002W        W23018   4.581  12.621   6.260  0.1602 -0.2698  0.0662
80003W        W23019  12.519  13.312   6.912 -0.0177 -0.2190 -0.1481
80004W        W23020   9.427  14.687   5.945 -0.2913  0.6942  0.1595
80005W        W23021  12.694   6.415   5.891  0.0356  0.0124  0.1958
80006W        W23022  27.624   1.535   0.070 -0.2042 -0.1249  0.0310
80007W        W23023   6.779  16.538   2.130 -0.2578  0.0261  0.0806
80008W        W23024   9.972   6.577  10.764 -0.0457 -0.1603  0.1482
80009W        W23025  10.915  14.105   6.126  0.0221  0.0772 -0.0074
80010W        W23026  17.520  17.452  24.917  0.0870  0.1364 -0.2040
80011W        W23027   4.973   4.803  22.848  0.1512 -0.0799 -0.1225
80012W        W23028   5.352  34.734   7.202 -0.3147 -0.0308  0.1125
80013W        W23029   0.132  18.677  23.599 -0.1202 -0.0751 -0.2151
80014W        W23030  18.265  16.871  28.868 -0.2009 -0.0955  0.1816
80015W        W23031  27.959  12.483   6.457  0.2138  0.4173  0.1227
80016W        W23032  19.248   3.615  29.307 -0.1372 -0.1467  0.0600
80017W        W23033   6.911   1.731   3.460 -0.0362 -0.1149  0.2153
80018W        W23034  31.445  29.667  18.014 -0.0211  0.0795 -0.2369
80019W        W23035   5.008  14.805   7.006 -0.2874  0.2957 -0.0216
80020W        W23036   0.250   3.555  27.338  0.0704 -0.0612  0.2135
80021W        W23037   0.254  18.852   0.662 -0.2221 -0.2345 -0.0627
80022W        W23038   1.524  10.719  28.818 -0.3032 -0.3036  0.1573
80023W        W23039   5.060   7.114   7.685  0.3607  0.4885 -0.0368
80024W        W23040  12.878  13.438  20.144  0.0794 -0.0190  0.0088
80025W        W23041  33.993  22.816   6.781  0.1184 -0.0504  0.0989
80026W        W23042  27.182   4.864  17.523 -0.2606  0.1313 -0.0667
80027W        W23043   8.561   5.497   7.402 -0.4421  0.0635 -0.3045
80028W        W23044  16.018  23.712   6.471 -0.0648  0.0657 -0.0961
80029W        W23045  12.119  13.204   0.169  0.0580 -0.0057 -0.0639
80030W        W23046  11.014   6.077   0.614  0.1324 -0.1844  0.1703
80031W        W23047   4.975   1.865  26.361  0.1446 -0.0227 -0.0702
80032W        W23048  13.204  18.321   6.207  0.0239 -0.0529  0.0422
80033W        W23049  24.376  13.588  26.062 -0.2272 -0.0794  0.0424
80034W        W23050  16.173  12.821   0.583 -0.1391 -0.1650  0.2309
80035W        W23051   9.616   7.192  29.251 -0.2698  0.1743  0.0290
80036W        W23052   5.403  27.593   7.964 -0.0334 -0.0881 -0.0540
80037W        W23053  34.007   1.600  26.477  0.0824 -0.3778  0.0903
80038W        W23054   1.219  11.109   5.783  0.0613  0.1022 -0.2357
80039W        W23055  32.921  19.472   3.099 -0.0531 -0.0372  0.1177
80040W        W23056   0.309  24.719  21.991 -0.1405 -0.1314 -0.0100
80041W        W23057  12.879  13.821   7.817 -0.0164 -0.0945 -0.5114
80042W        W23058   2.494  18.621  28.760  0.1988  0.0259 -0.0860
80043W        W23059  14.517   9.657  26.766 -0.1291  0.1674  0.1611
80044W        W23060  10.652  33.139   2.043  0.0640 -0.1104 -0.1522
80045W        W23061  10.247  13.962   2.573  0.0114 -0.2122 -0.0250
80046W        W23062   5.328  25.512   3.783  0.1039 -0.2088  0.2870
80047W        W23063   5.937  14.734   4.842  0.0595  0.3000  0.1200
80048W        W23064  11.027  16.573  20.007 -0.3275  0.3575 -0.0253
80049W        W23065   4.137  21.420  26.868  0.1863 -0.0607  0.0220
80050W        W23066  31.160  12.031  28.702  0.0264 -0.2701  0.1847
80051W        W23067  17.220  32.167   8.460  0.0506  0.2607 -0.2099
80052W        W23068   3.066  13.782  25.703 -0.1653 -0.1336  0.3346
80053W        W23069  16.026   9.144  19.209 -0.0726 -0.1328  0.0145
80054W        W23070  32.506  18.428   0.280 -0.3134 -0.0502 -0.2179
80055W        W23071   7.904   7.004  18.422 -0.0066  0.2006 -0.1223
80056W        W23072  11.365   3.026  27.665 -0.1458 -0.0082  0.1154
80057W        W23073  17.304  31.180  21.705 -0.2916 -0.1959  0.1711
80058W        W23074  18.996  25.758  27.647 -0.2602  0.0774 -0.1955
80059W        W23075  31.926  22.127  22.822  0.0142 -0.1667  0.0869
80060W        W23076  13.453   4.456  22.931  0.3114 -0.0904 -0.2212
80061W        W23077   3.741  10.706  20.310  0.0323 -0.1541  0.2364
80062W        W23078   1.878  16.423  28.245  0.1330 -0.0063  0.0011
80063W        W23079  33.841   6.313   3.358  0.0656 -0.2650 -0.0819
80064W        W23080  34.554   2.379  18.952 -0.0132 -0.3232 -0.0129
80065W        W23081   6.001  14.713   0.128 -0.0995 -0.0410  0.1078
80066W        W23082   7.817  28.682   6.424 -0.0329 -0.0137 -0.0190
80067W        W23083   9.669  12.345   0.301 -0.0509  0.0042 -0.0769
80068W        W23084  18.006  13.972  23.440  0.0754  0.1680 -0.1485
80069W        W23085   8.012  25.305   1.527 -0.1044  0.3047  0.0910
80070W        W23086   4.234  11.158   2.072  0.0804 -0.1774 -0.3193
80071W        W23087  17.237   0.410   2.974 -0.0612 -0.1750  0.0240
80072W        W23088  26.206   8.546  26.419  0.2321  0.0324  0.1470
80073W        W23089  17.103  18.714   1.167 -0.2693  0.1503  0.2351
80074W        W23090   3.390  15.320   7.961  0.2019  0.3008  0.0268
80075W        W23091  12.876  22.763  12.212  0.2675 -0.0241  0.3185
80076W        W23092   9.574  12.729  24.184  0.0628 -0.3437  0.1644
80077W        W23093   7.118   4.264  26.177 -0.1328 -0.2197  0.1547
80078W        W23094  32.300  29.637  26.812  0.1331 -0.0593  0.2363
80079W        W23095   0.872   5.254   7.377 -0.0586 -0.1013 -0.1964
80080W        W23096   6.940   4.149   6.745  0.2513  0.0991  0.0834
80081W        W23097  14.188  21.082   8.635 -0.0272 -0.0081 -0.0170
80082W        W23098  32.394  12.432   5.320  0.0492 -0.1721  0.0805
80083W        W23099   7.784  32.590  26.453  0.1850  0.0060  0.1640
80084W        W23100  25.746  11.195  16.148  0.0159 -0.0813  0.0395
80085W        W23101  31.081  16.926   7.912 -0.3653 -0.1084  0.1219
80086W        W23102  24.702  17.202  20.542 -0.0995 -0.0836 -0.0323
80087W        W23103  16.558   2.958  21.504 -0.1989 -0.0533 -0.2253
80088W        W23104  18.625  13.977  24.196  0.1631  0.2407 -0.2855
80089W        W23105  23.704  22.354   7.853 -0.3016  0.1310  0.0138
80090W        W23106   5.921  21.772   3.653 -0.0146  0.0340 -0.1841
80091W        W23107  19.698  33.488  21.270 -0.2092 -0.0804  0.2692
80092W        W23108   9.930  20.179  28.536  0.0015  0.2912 -0.2912
80093W        W23109   0.712  27.560  20.864  0.0352  0.2433 -0.1308
80094W        W23110  27.662  14.501   1.087  0.2363  0.2364 -0.1773
80095W        W23111  12.896   3.655  19.693 -0.3714 -0.0847  0.1652
80096W        W23112  17.816  16.918  17.978 -0.0249 -0.0962 -0.0943
80097W        W23113   6.851  17.391   5.017  0.2257  0.0524 -0.0882
80098W        W23114   9.057   9.514   2.437  0.0103  0.0084  0.2823
80099W        W23115  11.183  12.865  24.581  0.3799  0.0075  0.2640
80100W        W23116  13.283   8.982  23.317  0.1478  0.2409  0.0531
80101W        W23117  14.452  21.365   2.968  0.1648  0.1721 -0.3557
80102W        W23118  13.762  15.280  26.682  0.1371  0.0032 -0.2545
80103W        W23119  17.505  21.754  26.955  0.0438 -0.0279 -0.0886
80104W        W23120   7.793  22.737   6.396  0.0609 -0.1129  0.1134
80105W        W23121  20.337  14.134   7.247  0.2746 -0.2125 -0.0137
80106W        W23122   8.310  33.043   1.713 -0.2136  0.0983  0.3977
80107W        W23123  13.573  20.352  21.829 -0.0628 -0.1214  0.3080
80108W        W23124  33.758  22.737   2.356  0.1837 -0.3642  0.1521
80109W        W23125  11.277  25.456  28.943 -0.0544 -0.3116 -0.0843
80110W        W23126   0.141  24.749   1.803 -0.2351 -0.1754  0.0931
80111W        W23127  24.144   8.983   7.888 -0.2493 -0.0152  0.2270
80112W        W23128   4.561  34.637   6.105 -0.3025  0.1151 -0.2994
80113W        W23129  24.013  21.078   2.738 -0.4172  0.0238 -0.0198
80114W        W23130  14.807  15.528  14.572 -0.1039 -0.2895 -0.1825
80115W        W23131  34.552  21.664  28.298  0.0395  0.0442 -0.0537
80116W        W23132   3.263  23.715  21.960 -0.4942  0.0198  0.0955
80117W        W23133  25.151  18.785   0.327  0.0202  0.0913 -0.1682
80118W        W23134  13.146  16.045  28.659 -0.1235 -0.0611 -0.2234
80119W        W23135   8.326   2.498   9.385 -0.0227 -0.1465  0.0794
80120W        W23136  30.529   9.336   6.029  0.1374 -0.0979 -0.1984
80121W        W23137  14.123  11.938   6.694 -0.0563 -0.0556  0.0587
80122W        W23138  32.269  34.339  28.922  0.0989 -0.1200 -0.1355
80123W        W23139  15.674  17.572  23.965 -0.0261  0.2109  0.2957
80124W        W23140  10.039  34.455   2.614  0.0428 -0.0791 -0.3627
80125W        W23141   5.508  33.850   9.155  0.1323  0.3619 -0.0240
80126W        W23142  24.839  16.945  25.570 -0.0850  0.1454  0.1745
80127W        W23143   7.797  22.608   5.926 -0.0151 -0.1611 -0.2573
80128W        W23144  10.224   6.398   4.005 -0.1864  0.3490  0.1032
80129W        W23145  14.175  19.670  20.939 -0.2264 -0.0462 -0.0383
80130W        W23146  21.354   5.197  15.396  0.0640 -0.2683 -0.2901
80131W        W23147   7.537  30.855  26.906 -0.0050 -0.0751  0.1029
80132W        W23148  32.627   2.163   2.508 -0.1612  0.0712  0.0493
80133W        W23149  26.061  11.710  23.776  0.0147 -0.1511 -0.2397
80134W        W23150   1.154  14.174   1.148  0.1629  0.0463  0.2179
80135W        W23151  30.246  18.345  21.696 -0.0992  0.1293 -0.1013
80136W        W23152   0.260  27.958   8.876  0.1250 -0.1056  0.2343
80137W        W23153  21.401  28.960  29.008 -0.0632 -0.1500  0.2915
80138W        W23154   5.130   2.603   3.757  0.0380  0.0568 -0.1381
80139W        W23155  14.262  24.009  17.645 -0.4017  0.1995  0.1173
80140W        W23156  13.185  14.808  22.060 -0.0215 -0.1867  0.0700
80141W        W23157  18.681   7.845   0.475  0.1560  0.2883  0.2509
80142W        W23158  19.314  23.361  28.439  0.1536 -0.0514  0.0244
80143W        W23159   9.696  14.103   5.102 -0.1493 -0.1650  0.3400
80144W        W23160  14.479   9.015  13.301 -0.2155  0.1729  0.1582
80145W        W23161  18.473   5.136   6.525  0.1017 -0.2346  0.3557
80146W        W23162   3.832  17.409  21.580  0.2763  0.3037  0.0458
80147W        W23163   1.942  10.492  10.116  0.0631  0.1226  0.1157
80148W        W23164  34.225  16.832   8.599 -0.1041 -0.2360  0.3353
80149W        W23165   2.628   8.906   9.196 -0.3326 -0.1479 -0.1282
80150W        W23166   7.649  27.724   1.599 -0.0364 -0.0440  0.4179
80151W        W23167  15.102  17.775  16.141 -0.0218 -0.0380 -0.2154
80152W        W23168  15.140   1.439  26.717 -0.1074 -0.0097  0.1178
80153W        W23169   8.046  16.603  14.334 -0.1814 -0.0559 -0.0455
80154W        W23170  24.135  10.784  23.946  0.2272 -0.1325  0.2155
80155W        W23171  34.761   2.649   7.998 -0.1999 -0.0511 -0.1732
80156W        W23172  28.270   7.007   1.901 -0.1593  0.2515 -0.1668
80157W        W23173   4.105  13.597  29.169 -0.2552 -0.1463 -0.1075
80158W        W23174   0.331  11.157  29.250 -0.4467 -0.0269 -0.0695
80159W        W23175   4.126  25.382   6.755 -0.1010  0.0721  0.1127
80160W        W23176   1.013  15.154   6.468 -0.0246 -0.1214 -0.0312
80161W        W23177   6.277  26.980  14.019  0.0499  0.1171 -0.0823
80162W        W23178  11.059   6.979   0.077  0.2281  0.3256  0.2816
80163W        W23179  13.799  29.885  20.401  0.1247  0.1329 -0.0497
80164W        W23180   2.314   8.226   1.099  0.1142  0.2760 -0.0383
80165W        W23181  10.875  20.758   3.589 -0.1051  0.0357  0.0239
80166W        W23182  10.216  10.472   1.460 -0.2538  0.0365 -0.0319
80167W        W23183   8.421  24.471   8.217  0.1477  0.1511 -0.0218
80168W        W23184   4.810  32.209   0.324 -0.0736 -0.0334  0.1359
80169W        W23185   8.253  33.979   1.529 -0.0462 -0.2078 -0.0845
80170W        W23186  32.211  29.042   1.462  0.0678  0.3237 -0.3758
80171W        W23187   6.811  12.277  18.332  0.1076 -0.1059 -0.2355
80172W        W23188   8.977  17.969  21.708  0.4995  0.3121  0.2276
80173W        W23189  32.473  15.232  26.131 -0.0642  0.1723  0.1224
80174W        W23190   9.976  10.278   4.559  0.0874  0.0265  0.0465
80175W        W23191   2.709   7.726   9.401  0.1895  0.0897  0.1128
80176W        W23192  23.990  33.810  27.126 -0.0997  0.0499 -0.2819
80177W        W23193  31.183  10.654   1.577 -0.1383  0.0008  0.2797
80178W        W23194   8.845  24.127  20.539 -0.1904  0.1045 -0.0718
80179W        W23195   7.450   1.215   3.759 -0.2257  0.2689 -0.1356
80180W        W23196  22.026   4.189   8.925 -0.5736  0.0917 -0.1337
80181W        W23197  26.542  33.036  23.361 -0.2021  0.3371  0.0494
80182W        W23198   7.320   9.930  18.667  0.1192 -0.0225 -0.2212
80183W        W23199  23.920  29.823   7.117 -0.0283 -0.2378 -0.0553
80184W        W23200   0.524   9.907   1.636  0.3527  0.0104 -0.4687
80185W        W23201   3.784  19.503   6.954 -0.0801  0.1538 -0.2638
80186W        W23202  18.573  13.315  24.809  0.1560  0.0166  0.0322
80187W        W23203  33.967  13.365  27.745 -0.1858  0.1969 -0.2005
80188W        W23204   4.999  33.859   0.978 -0.1304 -0.1852 -0.1819
80189W        W23205   1.697  14.169   9.429  0.1260 -0.0857  0.1939
80190W        W23206  17.478  17.958  20.153 -0.3095 -0.1585 -0.1743
80191W        W23207  11.155  21.705  24.323 -0.0672  0.0685  0.0454
80192W        W23208  28.793   0.588   3.320 -0.1632  0.4474  0.0850
80193W        W23209   4.017   6.469  28.761 -0.2721 -0.1697 -0.3032
80194W        W23210   7.289   6.437   1.991 -0.1031 -0.1848 -0.0451
80195W        W23211  34.162  10.479   7.515  0.0454  0.4553  0.0998
80196W        W23212   5.516  20.676  25.250  0.0151 -0.0820 -0.1785
80197W        W23213   7.464  16.742  15.470  0.5127 -0.4300  0.0275
80198W        W23214   9.393  18.777   3.711 -0.1977 -0.2589 -0.3437
80199W        W23215  20.430   5.002   7.581 -0.2576  0.3148  0.1343
80200W        W23216  11.750  29.037   1.124  0.2614  0.1978 -0.0474
80201W        W23217  29.777  27.329   5.472  0.2963 -0.3163  0.0335
80202W        W23218  24.536  21.390  24.537 -0.0061  0.0864  0.0877
80203W        W23219   1.703  19.437  10.388 -0.3288  0.2246  0.0297
80204W        W23220  20.905   1.780   5.259 -0.1870  0.2904 -0.0212
80205W        W23221  15.584  16.197  15.168  0.1788 -0.0781  0.1818
80206W        W23222   4.126  31.372  28.214  0.1920 -0.1984 -0.1166
80207W        W23223   4.695  26.445  23.915 -0.1175  0.1412 -0.2761
80208W        W23224  26.461   2.856   8.414 -0.0088  0.0191  0.0963
80209W        W23225  10.632   3.915  22.717  0.0399  0.0825 -0.1333
80210W        W23226  14.635   2.104   1.092 -0.1849  0.0136  0.1706
80211W        W23227  10.641   1.381  21.807  0.0826 -0.0311 -0.0723
80212W        W23228   2.727  23.154  15.612  0.1696 -0.1516 -0.1783
80213W        W23229  19.496   3.683   7.052 -0.1572 -0.0843  0.2537
80214W        W23230  12.973  10.330   2.589 -0.1760  0.0900 -0.0773
80215W        W23231   8.205  17.339  15.303 -0.0734 -0.0469 -0.1448
80216W        W23232  34.452  11.680   7.746  0.0172  0.1370  0.0911
80217W        W23233  26.317  11.628   9.187  0.0045  0.0050 -0.2671
80218W        W23234  11.415  16.479   8.927  0.0840 -0.2250  0.1033
80219W        W23235  19.567  17.636   0.778  0.1509  0.0290 -0.1852
80220W        W23236   7.228   8.251   0.948 -0.0764  0.1030  0.0551
80221W        W23237  27.995  21.682  25.525 -0.1802  0.0028 -0.1560
80222W        W23238  25.152  26.233  18.222 -0.1074  0.2744  0.3551
80223W        W23239  19.759  27.598   3.206 -0.0119  0.1571  0.2067
80224W        W23240   5.972  14.388  25.899 -0.2640 -0.0167 -0.2420
80225W        W23241  14.130   9.671   5.536  0.0670  0.2632 -0.1167
80226W        W23242   9.407  23.877  27.361 -0.2072  0.3715 -0.0356
80227W        W23243  17.518  18.731  26.277  0.0377  0.2445  0.1714
80228W        W23244   4.997  10.823   6.463 -0.1821  0.1714  0.2332
80229W        W23245  14.790  16.060  21.409 -0.1068 -0.1204  0.0419
80230W        W23246   2.078   2.127   0.371  0.0172 -0.0907 -0.3253
80231W        W23247   4.326   8.822  26.938 -0.1225  0.0436 -0.1618
80232W        W23248  16.133   8.298  18.349 -0.0518  0.0155 -0.0052
80233W        W23249   4.638   6.913   6.766  0.1558  0.0676 -0.0648
80234W        W23250  17.737  34.036   5.421  0.0674 -0.0170  0.0269
80235W        W23251   7.760  12.737   4.880 -0.0711  0.2276  0.0164
80236W        W23252   8.448  22.694  15.958 -0.1454  0.1456  0.0168
80237W        W23253   2.027  17.063   6.978 -0.1192  0.1722 -0.0832
80238W        W23254  11.313  18.503   3.558 -0.2619 -0.0869 -0.0514
80239W        W23255   9.903   7.599   9.356 -0.1499 -0.2599  0.2739
80240W        W23256  34.757  21.531  18.415  0.0912  0.0568  0.1786
80241W        W23257  14.154  15.659  21.918 -0.1299  0.0812  0.2249
80242W        W23258  10.653   6.542  24.677 -0.0068  0.3087 -0.1750
80243W        W23259   5.176  24.094   8.089 -0.0990 -0.0058  0.0019
80244W        W23260   1.626  19.238  25.437 -0.0646  0.2116  0.1202
80245W        W23261  33.489  10.682  22.962  0.0085  0.0683 -0.0836
80246W        W23262   8.081   1.193  24.822 -0.1498 -0.0645  0.3166
80247W        W23263   9.835  27.337   1.118  0.0595 -0.0207 -0.1776
80248W        W23264  28.362   7.809  18.983  0.0674  0.0308  0.2863
80249W        W23265  10.260  19.731   4.207 -0.0668  0.2836  0.0906
80250W        W23266  32.945   5.679   2.569  0.0343 -0.1604 -0.4120
80251W        W23267  12.792  18.378   5.488  0.1700  0.1101 -0.3284
80252W        W23268  17.021  11.665   3.839 -0.0183 -0.1231 -0.2183
80253W        W23269  13.003  11.781  19.258  0.1089  0.2313  0.3646
80254W        W23270  18.581  12.344  15.305  0.0242  0.2240 -0.5686
80255W        W23271   6.163  18.777   5.353 -0.0632 -0.2145 -0.3406
80256W        W23272   5.081  11.623   2.775 -0.2240 -0.0600 -0.0111
80257W        W23273  11.078  30.403  16.445  0.0768  0.3254 -0.0990
80258W        W23274  26.858   7.880  23.725  0.2859  0.1253  0.0207
80259W        W23275  13.149  31.417   7.727  0.1620  0.2091  0.3767
80260W        W23276  16.888   3.834   2.696  0.0823 -0.0607  0.0720
80261W        W23277  23.633   5.422   1.015  0.0198  0.0922 -0.1439
80262W        W23278   7.219  29.955   9.011  0.0862  0.1564 -0.1843
80263W        W23279   8.631   6.841  16.917 -0.4954  0.0887 -0.0075
80264W        W23280  10.557  18.215  16.939  0.1209  0.0383 -0.2102
80265W        W23281  28.413  10.096   6.787 -0.3020 -0.3940  0.0962
80266W        W23282  29.026  16.216   7.941 -0.0892 -0.2929  0.0464
80267W        W23283   5.836  21.763  21.708  0.2908 -0.1011 -0.1491
80268W        W23284  14.776  18.632   5.062  0.2658 -0.0578  0.1259
80269W        W23285   9.453   9.332   1.680  0.1005  0.1241  0.0945
80270W        W23286  11.628  15.496  18.023 -0.0352  0.1361  0.4425
80271W        W23287  24.303  19.351  15.459  0.0634 -0.2314 -0.1869
80272W        W23288  33.173  22.093  10.673  0.0954  0.1128 -0.0298
80273W        W23289  17.490  25.048  26.607  0.0976 -0.1537 -0.0039
80274W        W23290   7.794  16.861   3.527 -0.0203 -0.2494 -0.4985
80275W        W23291  10.498  15.683  29.143 -0.0689 -0.0983 -0.0111
80276W        W23292   9.662  25.024  19.366  0.0022  0.0670  0.1323
80277W        W23293  10.364  13.083   1.120  0.0066  0.0680  0.3055
80278W        W23294  32.465  33.592   7.557 -0.0320 -0.2148 -0.1313
80279W        W23295   9.594   5.954  27.364 -0.1209 -0.2206  0.2505
80280W        W23296  18.766  20.777   0.445 -0.0783 -0.2677  0.0881
80281W        W23297  14.449  15.004   1.100 -0.2203 -0.1663  0.5266
80282W        W23298  29.444   3.248   1.595 -0.0420  0.0516 -0.1252
80283W        W23299  30.300   8.663   6.735 -0.2908  0.0408 -0.0629
80284W        W23300  18.335   9.380  14.128  0.0717 -0.3917  0.1456
80285W        W23301   0.002  16.617   7.555  0.0022 -0.1752 -0.3217
80286W        W23302   0.279   9.019   8.434 -0.2571  0.0993 -0.1482
80287W        W23303  17.655  18.970   5.772 -0.1546  0.2398 -0.2056
80288W        W23304  20.676  23.485  20.928  0.0704 -0.1067  0.0400
80289W        W23305   6.209  16.314  14.816  0.0296  0.2330 -0.1101
80290W        W23306  16.900  17.386   1.237 -0.1773  0.2320  0.3140
80291W        W23307   4.882  11.981  24.042  0.2566 -0.1523 -0.1004
80292W        W23308   2.242  19.212   1.180  0.3990 -0.0868 -0.0862
80293W        W23309  14.558  12.355   5.637 -0.2154  0.1344 -0.3238
80294W        W23310  12.368  22.212   1.448  0.3249  0.2533  0.1473
80295W        W23311  13.560  23.275  22.470  0.0430  0.1873  0.0030
80296W        W23312  18.074  21.677   2.784  0.1084  0.1242  0.0821
80297W        W23313   0.312  23.942   5.349  0.0173 -0.1647  0.1557
80298W        W23314  13.187  21.071  13.089 -0.3057  0.2306 -0.0566
80299W        W23315  13.903   7.647   2.980  0.0012  0.3783 -0.0924
80300W        W23316  29.842  12.269  19.891 -0.2525  0.0046 -0.1214
80301W        W23317   0.031  10.985  26.229  0.1200  0.2035 -0.1102
80302W        W23318   8.411   4.756  27.568 -0.1033  0.1992  0.1500
80303W        W23319  11.476   7.684   8.952  0.0207 -0.0280  0.1894
80304W        W23320  23.094  20.208  14.905  0.1905  0.2289  0.1114
80305W        W23321  30.632   8.458   3.828  0.1502  0.1376  0.1109
80306W        W23322   6.502  32.016  28.508 -0.0863  0.1450 -0.1283
80307W        W23323  11.866   0.927   4.064 -0.0832  0.1222 -0.0630
80308W        W23324  11.513   5.607   9.667  0.2289  0.0127 -0.1414
80309W        W23325  26.155   6.439   5.179 -0.0005 -0.1140 -0.1421
80310W        W23326   5.059   9.393   5.104  0.0898 -0.1096 -0.3338
80311W        W23327  34.748   5.622  22.591 -0.0122 -0.0256  0.1923
80312W        W23328  17.953  21.837  23.789  0.1737  0.0861 -0.0594
80313W        W23329  13.194  12.754  22.641 -0.0762 -0.0817  0.1644
80314W        W23330   1.771  16.232  26.281  0.0700  0.1344 -0.0038
80315W        W23331   9.232  32.278   6.495  0.2814 -0.0165  0.2002
80316W        W23332   9.549  30.608  27.739  0.2200  0.1391  0.1111
80317W        W23333   5.126  32.251  26.117  0.1780 -0.0147 -0.0293
80318W        W23334   8.502  17.241   4.128  0.1602 -0.0925 -0.0581
80319W        W23335  11.521  25.483  25.391  0.1050  0.2600 -0.0015
80320W        W23336  22.810  25.795  14.124 -0.1028  0.0916  0.0442
80321W        W23337   4.139  28.866   9.826  0.0211  0.1916  0.0629
80322W        W23338  19.727  30.774  22.837 -0.4111  0.1791  0.2445
80323W        W23339  14.035  34.536  10.387 -0.0528  0.1291  0.0269
80324W        W23340   2.956   9.230   5.495 -0.0875 -0.0886 -0.1921
80325W        W23341   4.835   0.763   8.039 -0.2627  0.0659 -0.0382
80326W        W23342   1.211  15.550   3.531 -0.1961 -0.1537  0.1898
80327W        W23343  32.288  21.563   6.987  0.0077  0.2854 -0.3681
80328W        W23344   9.324  25.866  29.235  0.2444  0.1508  0.3297
80329W        W23345  23.809  14.768   9.177 -0.0709  0.0144 -0.1689
80330W        W23346  18.922  24.299   2.448 -0.0118 -0.3359  0.1644
80331W        W23347  12.016  20.832   8.884 -0.0864  0.2428 -0.3536
80332W        W23348  12.336  23.832  24.671  0.0915 -0.0930 -0.0680
80333W        W23349   4.739   7.726  25.426 -0.0712  0.3417  0.2072
80334W        W23350   7.504   8.682   6.555  0.1063  0.0650 -0.1312
80335W        W23351   8.227   8.199   3.992 -0.1881  0.2452 -0.1742
80336W        W23352  23.036  19.906   6.714  0.0201  0.0435  0.1049
80337W        W23353  14.653  15.419  29.317 -0.1627  0.2829 -0.2047
80338W        W23354  15.605   9.813   8.875 -0.2969  0.1132 -0.0500
80339W        W23355   5.924  21.940   4.132 -0.2660  0.1480  0.0023
80340W        W23356  29.115  12.884   6.742  0.0753  0.1496 -0.0702
80341W        W23357   8.406   7.245   3.002 -0.1198 -0.1110  0.1895
80342W        W23358  10.562  18.750  27.836 -0.0739  0.0982  0.0400
80343W        W23359   2.741  16.476  26.693  0.3158 -0.0819  0.2909
80344W        W23360  22.768  33.097   5.752  0.3444 -0.1920 -0.1917
80345W        W23361   8.810   8.387  25.140  0.0187  0.0809  0.1434
80346W        W23362  17.586  11.898   5.449  0.0470 -0.0733 -0.1412
80347W        W23363   5.323  29.676  19.805 -0.2440  0.1568 -0.0632
80348W        W23364  32.890  29.389  21.020 -0.1201  0.1623 -0.1164
80349W        W23365  18.290   8.192   0.406  0.1879  0.1184  0.2752
80350W        W23366  13.145   1.675   7.711  0.1406  0.3083 -0.3620
80351W        W23367  23.535  13.359  29.180 -0.1191 -0.3071  0.0117
80352W        W23368   5.296  10.591   9.716  0.2040 -0.1408  0.0200
80353W        W23369  15.003  27.432   7.488 -0.1545  0.3321  0.0873
80354W        W23370  14.942   8.102   3.668 -0.1612  0.0022 -0.0008
80355W        W23371  23.292  10.073   6.597 -0.0623  0.2188  0.1573
80356W        W23372  26.251  32.077   9.976 -0.2381 -0.0865 -0.0579
80357W        W23373   4.310  21.651  21.403  0.0514  0.0065  0.1178
80358W        W23374  15.473  12.073  27.843  0.1907  0.3059 -0.2241
80359W        W23375  14.137  29.058  26.457 -0.1968  0.2368  0.0171
80360W        W23376  22.295  12.720   2.440  0.0468  0.0830 -0.1159
80361W        W23377  33.548   5.115  18.623 -0.2907  0.1134  0.0447
80362W        W23378  31.476  17.651  10.434 -0.1247  0.1139 -0.1063
80363W        W23379  25.394   9.260   9.808  0.2550 -0.4175 -0.1934
80364W        W23380  21.477  32.385  24.118  0.0361  0.2013  0.2656
80365W        W23381  14.813   9.563   8.611 -0.2764  0.2036  0.2560
80366W        W23382   7.717  30.839  27.609  0.2945 -0.1735 -0.2641
80367W        W23383   8.896   5.034   9.876 -0.3160  0.3216 -0.2478
80368W        W23384   5.647   9.855   8.685 -0.0569  0.2367  0.3112
80369W        W23385  34.613  20.489  28.796  0.0413 -0.1519  0.0690
80370W        W23386   9.060  16.099   4.473  0.2770  0.0682 -0.1906
80371W        W23387  14.472  14.237  23.213 -0.1682 -0.0910 -0.3478
80372W        W23388  15.672  14.133  26.083  0.0855  0.4197  0.0983
80373W        W23389  24.029  13.891  15.543 -0.0887  0.0477 -0.1050
80374W        W23390  27.718  30.141   2.611 -0.1702  0.0952  0.1336
80375W        W23391  10.117   6.380   2.671 -0.1258  0.1661  0.0601
80376W        W23392  33.689   6.037   8.319  0.1279 -0.0066 -0.0817
80377W        W23393  10.311  13.225  18.610 -0.2318  0.2005 -0.0693
80378W        W23394   5.598   5.161  13.871 -0.0111  0.2083 -0.0070
80379W        W23395   7.418  16.643  19.324  0.0915 -0.0290  0.0180
80380W        W23396   8.811  10.103   5.632  0.0262  0.1260  0.2654
80381W        W23397  12.691  25.320  29.234  0.1075 -0.0642 -0.0830
80382W        W23398  13.061   3.237   1.194 -0.1884 -0.0355 -0.2808
80383W        W23399   1.036  27.833  18.495  0.2161 -0.0029 -0.0001
80384W        W23400   9.510   3.665   6.925  0.2363 -0.0016  0.0559
80385W        W23401   9.144  26.359   0.685  0.1352 -0.2372  0.3701
80386W        W23402   5.602  20.515   7.556 -0.0459 -0.0470  0.1084
80387W        W23403  26.131  28.736  10.355  0.1916 -0.0246  0.1745
80388W        W23404   4.119  14.639   5.660 -0.0360  0.1712 -0.4235
80389W        W23405   0.854  28.359   3.403  0.2030 -0.0903 -0.1753
80390W        W23406  31.802  14.161  21.228  0.1385  0.2686  0.1870
80391W        W23407   6.274   1.959  14.148 -0.0615 -0.1174  0.2766
80392W        W23408  21.867  30.248   1.863 -0.1468  0.0221  0.3234
80393W        W23409  18.153  27.119   8.807 -0.0169  0.0477 -0.0578
80394W        W23410  13.647  14.497   7.815 -0.3557 -0.0456  0.0904
80395W        W23411  28.578  12.496  27.260  0.2609 -0.0488 -0.1228
80396W        W23412   9.706   9.574   5.794 -0.1024  0.1323 -0.0042
80397W        W23413  20.578   8.091  26.978 -0.3588 -0.1210  0.3160
80398W        W23414  10.803  30.035   8.944  0.0771 -0.1113  0.0819
80399W        W23415   5.408  15.905   7.603  0.2136 -0.0336  0.0443
80400W        W23416  14.780  14.154   1.105 -0.3990  0.2337  0.0363
80401W        W23417  18.892   6.348   7.011 -0.1479 -0.0039 -0.2812
80402W        W23418  32.709  29.952  23.244 -0.1989 -0.0957 -0.3937
80403W        W23419  13.737   2.958   3.150 -0.1819  0.4053  0.0068
80404W        W23420   8.023  23.217   8.257 -0.0297  0.1741 -0.0266
80405W        W23421  26.111  19.253   1.987 -0.2883  0.3335 -0.0698
80406W        W23422  20.665  14.077   1.036 -0.3425 -0.0354  0.2339
80407W        W23423  15.092  16.943  12.195  0.0054  0.1657  0.2881
80408W        W23424  11.482  15.842   2.627 -0.0819 -0.0690  0.0626
80409W        W23425  16.489  13.640  23.435  0.0447  0.0512 -0.0844
80410W        W23426   0.518  17.731  25.080  0.0735  0.2728  0.0495
80411W        W23427  17.692  17.547   7.847 -0.1031  0.1145 -0.0114
80412W        W23428   3.028  15.005   9.744  0.0103  0.0885 -0.2191
80413W        W23429   6.995  24.095   3.800 -0.1394  0.2797  0.0524
80414W        W23430   9.309  14.676   1.123 -0.0339  0.0776  0.1275
80415W        W23431  32.965   9.274  27.914  0.1125  0.2182 -0.1967
80416W        W23432   5.500  12.530   6.432  0.2640 -0.0357 -0.0483
80417W        W23433  12.364  19.574  15.846  0.2429 -0.0284 -0.0845
80418W        W23434  24.840  22.910   7.362 -0.1541 -0.0554  0.1835
80419W        W23435  31.438   5.851  15.077  0.0694  0.0551 -0.0714
80420W        W23436  32.540   8.536   4.726 -0.2284  0.0930  0.1977
80421W        W23437  28.155   4.474   6.511  0.1603 -0.1045 -0.1051
80422W        W23438  10.607  24.685  13.536  0.2230  0.2012  0.3293
80423W        W23439  11.878  31.621  27.276  0.0804  0.2288 -0.1606
80424W        W23440  31.167  32.951   2.285  0.0300 -0.1411  0.2369
80425W        W23441  10.565   4.439  19.931 -0.2221 -0.1660 -0.0963
80426W        W23442   8.557  26.335   8.790  0.1443  0.0214 -0.0090
80427W        W23443   2.078  21.179   2.543 -0.3500 -0.1320  0.0431
80428W        W23444  17.085   5.073   4.328  0.1198 -0.0012  0.0821
80429W        W23445  14.224   8.851   7.180  0.0299  0.2698 -0.0426
80430W        W23446  16.142  30.892  26.985 -0.1130  0.2636 -0.0463
80431W        W23447  13.321  27.213   8.758  0.1521 -0.4780 -0.3213
80432W        W23448  25.057  10.788   3.538 -0.1323 -0.2286  0.0870
80433W        W23449  17.036  18.171   3.357  0.2172 -0.1826 -0.0496
80434W        W23450  13.670   9.641   3.079 -0.1471 -0.2084  0.0113
80435W        W23451   1.322   7.248   0.662 -0.1419 -0.0399  0.0900
80436W        W23452  22.994  25.338   9.145  0.0448  0.1286 -0.2593
80437W        W23453  34.062   6.097   1.626 -0.2017  0.0374  0.2368
80438W        W23454   3.766  33.354  26.506  0.0731 -0.3963 -0.1958
80439W        W23455   9.172  17.028   8.371  0.2666 -0.0152 -0.1028
80440W        W23456  15.150   5.015  22.486 -0.1744 -0.0110 -0.2624
80441W        W23457  13.082  32.070   9.673  0.1215 -0.0828  0.2257
80442W        W23458  19.888  26.375   9.300 -0.0185 -0.1567 -0.3266
80443W        W23459  16.332  14.890  24.324  0.1731  0.0432 -0.0586
80444W        W23460   9.665  26.095   5.298  0.1307 -0.0161 -0.2116
80445W        W23461  21.161  13.803   0.050 -0.2216  0.0402  0.1578
80446W        W23462  21.470  27.720  15.649  0.0435  0.1363  0.1782
80447W        W23463   4.740  18.586   4.333 -0.0848  0.1751  0.2866
80448W        W23464  33.990  19.080   8.516  0.1547  0.1667 -0.2811
80449W        W23465   6.683  17.159   1.201  0.2398 -0.1800 -0.0356
80450W        W23466  13.592  23.959  28.867 -0.0977 -0.2665 -0.0396
80451W        W23467  32.464  13.707  17.420  0.0051 -0.0456  0.1607
80452W        W23468   5.229  18.786   4.113 -0.2358  0.3409  0.0471
80453W        W23469  34.318   7.998  23.460 -0.1781  0.1875 -0.1941
80454W        W23470  13.696   5.474   5.899  0.2469 -0.2106  0.3026
80455W        W23471   1.433  25.934   9.518  0.0995  0.1155  0.0416
80456W        W23472  25.352  33.458  27.968  0.2000 -0.0322 -0.0176
80457W        W23473  32.337  15.208  10.274 -0.1210 -0.2970 -0.1324
80458W        W23474   4.780  10.534   1.664  0.0140 -0.4914 -0.1533
80459W        W23475   3.685  12.698   4.163  0.0373 -0.0890 -0.1308
80460W        W23476  17.931   0.795   3.868 -0.0465 -0.1333 -0.1079
80461W        W23477  11.167  12.895  22.653  0.0341  0.3343  0.2307
80462W        W23478  14.610  15.882   5.761 -0.3301 -0.0702  0.2750
80463W        W23479  11.156  20.765   7.451 -0.4590 -0.0109  0.0271
80464W        W23480  13.075  21.868   4.631  0.0859 -0.0919 -0.2743
80465W        W23481   1.278  15.750   5.850  0.2374 -0.0508 -0.0044
80466W        W23482  13.264  26.266   9.282  0.0779 -0.0532 -0.2387
80467W        W23483  16.314  15.545   0.429 -0.2886  0.1842  0.0176
80468W        W23484   8.697  18.332  27.007 -0.1604 -0.2103  0.0231
80469W        W23485  18.417  20.504  28.981  0.0005  0.1483 -0.3346
80470W        W23486  10.123  33.469  10.347 -0.1128 -0.3000 -0.1856
80471W        W23487  15.684  22.031  20.894 -0.1273 -0.0061 -0.0114
80472W        W23488  17.114  25.490  26.124 -0.1768 -0.1271 -0.0579
80473W        W23489  10.087  10.871   8.780 -0.0771 -0.1280  0.0029
80474W        W23490  14.551  23.729   4.578 -0.3108  0.0081  0.0387
80475W        W23491  15.072   4.218  20.385  0.1131 -0.3137 -0.1316
80476W        W23492  17.036   1.883   6.192 -0.0284  0.0157  0.0910
80477W        W23493  34.687   5.728  28.690  0.1887  0.0469 -0.0449
80478W        W23494  16.566  24.097   1.602 -0.0230 -0.2760 -0.1188
80479W        W23495   6.045  18.976  27.454  0.1380  0.0178  0.0302
80480W        W23496   3.618  19.287   2.151 -0.1273 -0.2590 -0.1820
80481W        W23497  11.688   1.658   5.639  0.0007  0.1871  0.0810
80482W        W23498   8.264  34.096   6.380 -0.3053 -0.1429 -0.1412
80483W        W23499   9.989  16.931  18.367  0.1121 -0.0743 -0.1318
80484W        W23500  17.808  17.211  18.857 -0.2987  0.2814  0.0269
80485W        W23501   3.928  23.776   9.678  0.3554 -0.2390 -0.1054
80486W        W23502   9.347   0.734   8.788 -0.1099  0.0252 -0.3239
80487W        W23503  11.579  29.869  14.789  0.0601  0.2196  0.2444
80488W        W23504  34.102  10.213  10.262  0.2764 -0.1883  0.0287
80489W        W23505  13.158  25.047   7.083  0.2606 -0.3339  0.0190
80490W        W23506  16.184   2.352   8.868 -0.1026  0.2116  0.0409
80491W        W23507   1.808   3.169  10.105  0.1199 -0.1892 -0.2030
80492W        W23508  16.576  20.993   0.451  0.1811  0.0793 -0.2071
80493W        W23509  10.638  13.466  16.605  0.1147 -0.5924 -0.1703
80494W        W23510   6.102  10.494   2.570 -0.0606 -0.2469 -0.3513
80495W        W23511   2.173   9.458   9.440  0.0535 -0.0769  0.0147
80496W        W23512  19.367  10.250   7.685  0.0289  0.0842  0.1541
80497W        W23513   9.846   5.660   7.253 -0.0656  0.1973  0.0018
80498W        W23514  30.353   4.132   2.440 -0.0224  0.0787  0.2015
80499W        W23515  21.423  22.867   9.053  0.1449  0.1180  0.2118
80500W        W23516  10.407  15.603   4.643 -0.1544 -0.1364  0.3212
80501W        W23517   6.658  22.242  28.483  0.2417  0.0945  0.3434
80502W        W23518   9.835  20.593  21.505  0.2075 -0.0264 -0.0392
80503W        W23519  12.526  30.362  28.396 -0.0306  0.0314 -0.0206
80504W        W23520   0.113  12.559   9.369 -0.1120  0.0515 -0.1015
80505W        W23521   7.780  12.074   5.927 -0.1488  0.1470 -0.1880
80506W        W23522   7.783   0.317  10.954 -0.5783  0.1762  0.0388
80507W        W23523  17.230  18.988  22.680  0.3672  0.0010  0.2961
80508W        W23524  23.164   5.169  29.158  0.0075  0.1680  0.1040
80509W        W23525   0.698  24.208   5.217 -0.1374 -0.0262  0.1367
80510W        W23526  11.178  10.204  29.093 -0.2219 -0.4077  0.1028
80511W        W23527   1.882   8.689   1.994 -0.2385 -0.0809 -0.2317
80512W        W23528  20.164  11.995  20.646 -0.2374 -0.0210  0.5710
80513W        W23529  14.320  24.221  17.149 -0.1357  0.0006 -0.0271
80514W        W23530  31.779   6.570   5.772  0.0542 -0.0655  0.0621
80515W        W23531   0.433   0.016   0.585  0.0421  0.5378  0.1361
80516W        W23532  11.724  28.485   4.935  0.1725 -0.1672  0.1084
80517W        W23533  13.476  13.771   2.735  0.4853  0.2040  0.0626
80518W        W23534  10.699  27.071   5.171 -0.1225  0.0442 -0.0058
80519W        W23535  16.079  14.409   3.152 -0.3093 -0.2278  0.0224
80520W        W23536   8.586   8.349  22.563 -0.1462 -0.0020  0.1944
80521W        W23537  18.653   5.873  19.979  0.1125  0.2554 -0.1597
80522W        W23538  19.612  15.465  29.066 -0.0290  0.0331  0.2855
80523W        W23539  13.389  16.322   4.993  0.3295 -0.3077  0.1426
80524W        W23540  34.294  21.715   7.400 -0.1859 -0.0328  0.2204
80525W        W23541  16.905  17.076   5.181  0.2516 -0.0168  0.3503
80526W        W23542  33.120   5.888  27.759  0.1304 -0.1015  0.0768
80527W        W23543  16.396  10.392   5.244  0.2094 -0.2791 -0.0483
80528W        W23544  13.487  15.188   5.932 -0.0657  0.1051 -0.1669
80529W        W23545  32.265  16.555   4.604 -0.2064 -0.0985 -0.1651
80530W        W23546  32.856  10.114   7.797 -0.3236 -0.1059 -0.0568
80531W        W23547  10.105  31.275  29.220 -0.0241 -0.0576 -0.0657
80532W        W23548   6.096  23.298   3.515 -0.0688 -0.1399  0.0600
80533W        W23549  15.688  16.981   4.808 -0.0310 -0.2159 -0.2420
80534W        W23550  17.192  14.685   0.346 -0.3757  0.2664 -0.0721
80535W        W23551   9.443  16.033   4.799 -0.0815 -0.0205 -0.2293
80536W        W23552  18.596  16.888  18.433 -0.1006  0.1170 -0.0544
80537W        W23553  12.845  17.910  24.274  0.1228 -0.1314  0.0304
80538W        W23554  32.834  19.081  14.973 -0.0401  0.0917  0.0558
80539W        W23555  28.626   9.392  23.701 -0.2190  0.0040  0.1204
80540W        W23556   6.778   9.992   7.452  0.0783 -0.0457 -0.0238
80541W        W23557   6.043  13.028   8.871  0.0843  0.1130  0.0674
80542W        W23558   6.113  24.421  22.370 -0.0008  0.3412 -0.1299
80543W        W23559  19.075   4.470   7.564  0.2594  0.5969  0.4577
80544W        W23560   4.360   1.767  22.074  0.1079 -0.0036  0.2916
80545W        W23561  11.592  33.899  20.178 -0.0028  0.3006 -0.1730
80546W        W23562  10.816   6.689   5.127  0.1085  0.0301  0.0372
80547W        W23563  28.297   2.325  26.404 -0.1145  0.0371  0.1389
80548W        W23564  28.082  20.018  25.668  0.2365  0.0174  0.3189
80549W        W23565  27.030  27.172   6.484  0.1066 -0.2408  0.2631
80550W        W23566   3.199   3.660   9.795  0.0175  0.1617 -0.1379
80551W        W23567  12.675   7.621  15.441  0.2061 -0.5075  0.1365
80552W        W23568   6.169  11.204  16.311  0.0709 -0.0152  0.0504
80553W        W23569  12.188  19.455   8.617 -0.3261 -0.0153  0.2989
80554W        W23570  14.263  10.946   6.259 -0.2020 -0.1852  0.0948
80555W        W23571   2.083   9.074   1.243 -0.0309 -0.2690 -0.3565
80556W        W23572   4.034   3.973  20.798 -0.0238  0.0347  0.3196
80557W        W23573  25.681   3.068  10.914 -0.2615  0.2480 -0.0520
80558W        W23574  22.111  30.951  23.384  0.0051  0.0011  0.1606
80559W        W23575   3.610  14.562   0.417  0.2261 -0.1271 -0.3453
80560W        W23576   6.985  13.330   9.030  0.0685 -0.1539 -0.0991
80561W        W23577  26.106  12.328   1.397  0.2093  0.2579  0.2905
80562W        W23578  22.735  11.980   5.178 -0.1891 -0.1384 -0.1297
80563W        W23579  18.350  20.843   0.120 -0.1225 -0.1627 -0.2872
80564W        W23580   8.173  19.898  18.508 -0.2190 -0.0040  0.0394
80565W        W23581  18.636  25.564  24.710  0.0014 -0.0713  0.0028
80566W        W23582  10.901  21.880   1.833  0.4195 -0.3413  0.0980
80567W        W23583  32.207  16.813   9.335 -0.1474 -0.0220  0.1095
80568W        W23584  14.333  27.363  16.655 -0.3684 -0.1117 -0.3396
80569W        W23585  31.685  21.248  23.461 -0.1940 -0.2903 -0.1768
80570W        W23586  13.156  32.189   2.472  0.0061  0.1972  0.0725
80571W        W23587   0.412   5.185  20.953  0.3562  0.2615 -0.1676
80572W        W23588   5.552  27.865  28.214 -0.2053  0.2137  0.3489
80573W        W23589  18.018  28.979   5.018 -0.4104  0.1079  0.2767
80574W        W23590  13.959  17.763   4.118 -0.2039  0.1349 -0.0039
80575W        W23591  19.962  20.170   4.309  0.2198 -0.0982 -0.3435
80576W        W23592  17.064   8.402   5.978  0.2633  0.1355 -0.0752
80577W        W23593   8.633   7.488   8.786 -0.3259 -0.2309  0.0941
80578W        W23594   1.892  27.240  18.003 -0.2709  0.0553 -0.0695
80579W        W23595  17.260   8.364  27.077 -0.1775 -0.3733  0.0430
80580W        W23596   0.289  27.588  25.187 -0.0742  0.2795  0.1887
80581W        W23597   6.648  12.378   5.239 -0.2973  0.1393  0.0153
80582W        W23598  11.124  28.266  10.490  0.0696  0.0388 -0.1641
80583W        W23599  11.047  17.421   2.599  0.3363 -0.1743  0.1983
80584W        W23600  33.606  26.703  18.676 -0.0096 -0.1310  0.2187
80585W        W23601   2.438  34.758   2.774 -0.1586  0.1518  0.0748
80586W        W23602   7.507  16.271  25.021 -0.0939  0.1584  0.3174
80587W        W23603  10.297  18.051  26.032  0.1022  0.0347 -0.0594
80588W        W23604  13.933   5.497   2.172  0.1143 -0.3520  0.2662
80589W        W23605  25.669  14.577   6.028 -0.1792 -0.1923  0.1365
80590W        W23606  34.352   6.274   2.102  0.0288  0.1168  0.0996
80591W        W23607  16.873  13.249  25.764  0.1165  0.2186 -0.5073
80592W        W23608   3.480  12.984   3.669  0.1828  0.2068  0.3104
80593W        W23609   2.264   6.661   0.714 -0.0620 -0.0772 -0.1458
80594W        W23610   2.068  19.684   9.226  0.1340  0.0681  0.1872
80595W        W23611  21.227  30.451   7.590  0.0758 -0.0695 -0.0407
80596W        W23612  13.002   7.335   2.464 -0.2413  0.2691 -0.1441
80597W        W23613   7.669  20.444   6.277  0.0940 -0.0758  0.2733
80598W        W23614  14.436  14.813   5.903  0.1120  0.2317  0.0162
80599W        W23615   7.610   7.129   5.732 -0.0068  0.0973 -0.1910
80600W        W23616   6.295  18.352  24.209  0.4184  0.1321 -0.4019
80601W        W23617   3.475  33.514   0.053 -0.0483 -0.1290 -0.1529
80602W        W23618  11.779  12.548  20.072 -0.1595 -0.2335 -0.2700
80603W        W23619  16.060  22.530   7.322 -0.0299 -0.0197  0.0956
80604W        W23620  18.947  23.487   0.097  0.2005  0.3192  0.2672
80605W        W23621  21.652   4.539   6.493 -0.0525  0.2004  0.0101
80606W        W23622   1.300  24.572  27.396  0.0281 -0.0563  0.1302
80607W        W23623   3.219  24.640   1.241  0.1351 -0.0598  0.1172
80608W        W23624   4.115   2.634   1.037 -0.0524  0.1955  0.4074
80609W        W23625  20.973   5.676   5.641  0.4514 -0.1481 -0.0506
80610W        W23626  28.414  16.680   4.242  0.0843  0.1305  0.0442
80611W        W23627  33.422   5.401  24.511  0.1487 -0.0085  0.0580
80612W        W23628  13.051   0.306   3.728 -0.1657 -0.1662 -0.3426
80613W        W23629   5.501   3.373  23.106  0.1508  0.0732 -0.0094
80614W        W23630   4.753  13.740  27.668 -0.1002  0.3437  0.2406
80615W        W23631  11.720  12.541  27.368  0.0160  0.3601 -0.0963
80616W        W23632  15.861  18.704   4.283 -0.0271 -0.1183 -0.0922
80617W        W23633  33.707   7.767   7.308 -0.0643 -0.3325  0.0492
80618W        W23634  22.238   7.749   2.245  0.0390 -0.0579  0.0979
80619W        W23635   5.029  12.625   0.927  0.1995 -0.2922  0.1053
80620W        W23636  13.192   8.533   8.636 -0.0431 -0.0712 -0.0632
80621W        W23637  19.395   5.875   3.768 -0.1243  0.3057 -0.1065
80622W        W23638  20.005  13.740   0.168 -0.2773  0.2266  0.0868
80623W        W23639  13.703  19.131  23.395  0.1229 -0.3161 -0.0786
80624W        W23640   8.137  10.184  18.175  0.0609  0.1649  0.1109
80625W        W23641  32.084  15.353  27.086  0.1503 -0.0535  0.3060
80626W        W23642   4.272   6.067   8.231 -0.1911 -0.0191 -0.1498
80627W        W23643  28.436  24.274   7.319 -0.2483 -0.1122  0.1601
80628W        W23644  27.723  33.208   4.581 -0.0685 -0.1076 -0.1986
80629W        W23645  29.736  34.157  28.422  0.4274 -0.2552  0.1376
80630W        W23646  13.464  19.330  29.083 -0.1504 -0.1244  0.0208
80631W        W23647  13.664  10.767  29.071 -0.1535  0.1891  0.2366
80632W        W23648   8.851  24.928  13.570  0.3758 -0.0917  0.0645
80633W        W23649  10.676  13.499  28.006 -0.0052  0.3603 -0.2187
80634W        W23650   5.601  19.938  20.779  0.0768  0.1566 -0.0059
80635W        W23651  16.312   0.356  15.798  0.0890 -0.3048 -0.3990
80636W        W23652  16.398  16.303  24.670 -0.2702 -0.3479 -0.1014
80637W        W23653   3.814   5.350   8.738 -0.0371  0.1083 -0.0962
80638W        W23654  14.001  22.910   0.650  0.0067 -0.1564 -0.3535
80639W        W23655  16.705  14.061   4.113 -0.1783  0.2404  0.1270
80640W        W23656   3.323  15.883   8.079 -0.1374 -0.2051 -0.0867
80641W        W23657  20.377  20.566   2.512 -0.0493 -0.0680  0.1551
80642W        W23658   7.094   1.143   9.162 -0.3345  0.1124  0.1092
80643W        W23659  30.700   2.599   7.038 -0.1388 -0.0423 -0.2848
80644W        W23660  19.154  31.936  10.192 -0.1896  0.0765  0.2011
80645W        W23661  10.130  13.954   8.022  0.2035  0.1109 -0.5771
80646W        W23662  26.991   1.342   2.892  0.0478 -0.1610  0.0757
80647W        W23663   9.468  25.597   5.686  0.0681  0.0150 -0.2194
80648W        W23664  12.945   6.678   6.313 -0.2090  0.1167 -0.2296
80649W        W23665  13.966   4.143   9.776 -0.0740 -0.0776 -0.1646
80650W        W23666   0.218  17.463   7.267  0.1183  0.0190  0.0077
80651W        W23667  17.925  25.232  27.582 -0.2627 -0.1955  0.1076
80652W        W23668   1.100  11.409  10.620  0.1646 -0.0675  0.2446
80653W        W23669  21.617   7.005   4.637 -0.5980 -0.0808 -0.2100
80654W        W23670   5.244  17.124   4.181  0.1397 -0.0966  0.0795
80655W        W23671  31.300  16.852   3.083  0.0267  0.1574  0.2424
80656W        W23672  31.657  25.686  23.171  0.0428 -0.1563 -0.0959
80657W        W23673   8.789  26.631   6.643  0.1099 -0.1909 -0.1268
80658W        W23674   7.529   6.668   6.553 -0.3062  0.1550  0.0742
80659W        W23675  13.173  10.479  26.222  0.2366 -0.0991  0.1152
80660W        W23676   9.318  19.392   5.802  0.0689 -0.0276 -0.1098
80661W        W23677  32.320  29.703  28.679 -0.0635 -0.0667 -0.1354
80662W        W23678  14.097   8.021   9.881  0.1430  0.0060 -0.1359
80663W        W23679   2.222  12.719   7.844  0.1330 -0.1033  0.2833
80664W        W23680  34.627  19.082  28.110  0.0034  0.2165 -0.2143
80665W        W23681   0.858  10.899   7.141  0.1352  0.2192  0.0822
80666W        W23682  21.286  15.354  27.611 -0.0352  0.2064 -0.0023
80667W        W23683   9.576   7.708   8.900 -0.0281  0.1292  0.2078
80668W        W23684   1.370  34.151   3.798 -0.1264  0.1206 -0.3479
80669W        W23685   0.470  21.286  27.849  0.1354  0.2268 -0.1570
80670W        W23686  11.632  14.801  27.480  0.2527 -0.3892 -0.2990
80671W        W23687   7.999  26.557  23.505 -0.0819 -0.0316 -0.3732
80672W        W23688   9.801  17.508   6.899 -0.2210  0.3972 -0.5905
80673W        W23689  10.821  20.933   8.648 -0.1790 -0.1991 -0.2313
80674W        W23690  10.949  12.485   8.337  0.0729  0.2104  0.1478
80675W        W23691   8.459   8.257  28.581 -0.3691 -0.0472 -0.1230
80676W        W23692  21.550  14.515   6.269  0.0082 -0.1274  0.3092
80677W        W23693  16.251   6.810  27.540 -0.1296 -0.0014 -0.2883
80678W        W23694   8.127  34.701  10.943 -0.1531  0.0666  0.0977
80679W        W23695  19.542   7.467   0.077  0.0297 -0.2971 -0.1117
80680W        W23696  21.784   4.077   4.296 -0.1734  0.2746  0.1541
80681W        W23697  15.025  11.936  27.675 -0.2508 -0.3758 -0.5168
80682W        W23698  32.683  18.737  28.609 -0.2004 -0.1992 -0.0252
80683W        W23699  20.126  23.889   4.155  0.0274  0.2668  0.1634
80684W        W23700  20.940  10.387   0.656  0.0042 -0.1502 -0.3926
80685W        W23701   0.316  10.273  21.208 -0.3556  0.1697  0.2352
80686W        W23702  17.880  22.821   9.207  0.2983  0.0697 -0.1594
80687W        W23703  10.389  28.656   9.540 -0.0021  0.2241  0.0646
80688W        W23704   4.623  13.104  25.004  0.0803 -0.1000  0.0745
80689W        W23705  28.694  25.202  21.908 -0.1055  0.0478 -0.2849
80690W        W23706  28.513  32.097  26.668 -0.0665  0.1012 -0.1439
80691W        W23707  11.100   4.712   6.608 -0.4253 -0.1244 -0.2245
80692W        W23708   6.548  18.110   0.446  0.0659 -0.0605 -0.1325
80693W        W23709  31.325  24.947   4.269  0.1939  0.0870 -0.0087
80694W        W23710  18.839   2.704   7.040 -0.1062  0.0745 -0.1890
80695W        W23711  32.238  19.013   5.200 -0.0338  0.0619  0.1621
80696W        W23712  11.565  15.552   5.097 -0.1984  0.3519  0.0011
80697W        W23713  17.582  15.786   8.430 -0.4897 -0.4325  0.2633
80698W        W23714   5.092   8.947  20.448 -0.2637 -0.0006 -0.1833
80699W        W23715  13.580  24.043   2.526  0.3311 -0.0356  0.4528
80700W        W23716  23.382  34.628   6.768 -0.0120 -0.0920 -0.2790
80701W        W23717   7.225  21.412   5.069 -0.0791 -0.1196  0.3459
80702W        W23718  12.686  16.591   0.069 -0.2683  0.3259 -0.4623
80703W        W23719   8.414  24.093  20.160  0.0445 -0.0064  0.2340
80704W        W23720  23.639  12.421   9.160  0.1681  0.1360  0.1638
80705W        W23721  16.913  34.587  25.443  0.2292  0.0380  0.2857
80706W        W23722   6.925  10.586   3.680 -0.0138 -0.1336  0.0462
80707W        W23723  15.014  30.997   3.892 -0.0127 -0.1023  0.0849
80708W        W23724  30.015   2.515   3.711 -0.0976 -0.0625  0.2435
80709W        W23725  25.003   6.186  26.573 -0.2558 -0.0188  0.2071
80710W        W23726  21.911   2.996   7.764 -0.1597  0.2301  0.1000
80711W        W23727  12.040  15.156  27.434 -0.1054 -0.1833 -0.1032
80712W        W23728  20.122  20.022   1.145  0.1236 -0.1771 -0.1427
80713W        W23729  21.470  16.140   8.605 -0.1076  0.3140  0.2854
80714W        W23730  13.604  15.522  22.706 -0.0149 -0.2632 -0.2590
80715W        W23731  12.040  20.656   3.152  0.0123 -0.1898 -0.1154
80716W        W23732  17.668  13.286   5.409 -0.0701  0.3492 -0.2411
80717W        W23733  32.041  13.357   6.805 -0.0018 -0.0382 -0.3296
80718W        W23734  31.582  15.097   7.021  0.1726  0.1647  0.1191
80719W        W23735  13.788  19.837  27.633 -0.0965  0.1012 -0.0457
80720W        W23736   0.039   5.682   5.951  0.1332  0.0002 -0.2955
80721W        W23737  15.747  15.012   2.418  0.1269 -0.1006  0.1631
80722W        W23738  24.145   9.786   0.798  0.0070 -0.0269 -0.0339
80723W        W23739  20.688  33.061   2.121  0.4649  0.2057  0.3873
80724W        W23740  16.822  31.088   0.163 -0.0212  0.0589  0.1900
80725W        W23741  31.043  15.447   7.418 -0.1133 -0.4148 -0.0126
80726W        W23742   0.430  19.111   3.185 -0.1223 -0.1780 -0.0367
80727W        W23743  18.870  20.671   7.945  0.3205 -0.3254 -0.4737
80728W        W23744  22.569  13.885   7.217  0.0368 -0.0617  0.1688
80729W        W23745   9.549  15.233  28.311  0.2102  0.2188  0.0055
80730W        W23746  10.458   8.707   0.144  0.0465  0.4396  0.1569
80731W        W23747   8.063  10.905   7.985 -0.1025  0.0596 -0.2974
80732W        W23748  11.109  21.900  29.138 -0.3529 -0.1654  0.2056
80733W        W23749  10.117  21.188   7.671  0.2299 -0.1452 -0.1853
80734W        W23750  34.649  19.588  21.821  0.0231 -0.1059  0.0925
80735W        W23751  23.703  10.724  22.575 -0.1094 -0.0177 -0.4581
80736W        W23752   2.662  11.946  14.828  0.0261  0.3393  0.1389
80737W        W23753  34.776  11.598   7.384 -0.5038 -0.3944 -0.1294
80738W        W23754  30.620  27.259   8.834 -0.1754 -0.2301  0.0919
80739W        W23755  21.266   6.251  28.286 -0.2251 -0.2165  0.1741
80740W        W23756   1.399   4.787   9.815 -0.3147  0.0062  0.3074
80741W        W23757  19.741  16.178   5.547 -0.1234 -0.5143  0.4315
80742W        W23758  20.013  17.978   2.577  0.2367 -0.0796  0.2176
80743W        W23759  15.289   8.019   5.914  0.1623 -0.1493 -0.2122
80744W        W23760  18.729   8.083   5.472  0.0195  0.2790 -0.0605
80745W        W23761  14.469  19.046   4.024 -0.2766 -0.1954  0.0303
80746W        W23762  19.425  24.691  22.055 -0.0841 -0.0766  0.4329
80747W        W23763  29.747  16.188   0.225 -0.0874  0.1772  0.1674
80748W        W23764  11.690  12.961   3.934  0.1491 -0.0003  0.0339
80749W        W23765   7.793  18.771  26.475 -0.3814 -0.0396 -0.1248
80750W        W23766  16.248  32.457  26.163 -0.3793 -0.4212  0.1493
80751W        W23767  34.657  29.048  21.763 -0.2110  0.4717 -0.0999
80752W        W23768   7.309  33.765  14.964 -0.2860 -0.2348  0.0077
80753W        W23769  28.715  31.048  26.314 -0.1717 -0.0795  0.2813
80754W        W23770  12.729  14.964   4.100 -0.1246  0.1260  0.0979
80755W        W23771  17.329  14.535  12.630  0.1821 -0.3195  0.3262
80756W        W23772  21.066   7.486   9.908  0.1103 -0.3694  0.1383
80757W        W23773  15.640   6.270  26.735  0.6137 -0.1122  0.0150
80758W        W23774  13.433   4.024  28.495  0.0505 -0.2088  0.0374
80759W        W23775  20.270  30.078  17.395  0.0286  0.0398 -0.1949
80760W        W23776  30.945  11.118   1.211  0.3062  0.1995 -0.0939
80761W        W23777  17.392  25.477   8.059 -0.4218 -0.0157  0.0220
80762W        W23778  20.625  10.939   5.933 -0.2285  0.2221  0.1355
80763W        W23779   2.520  16.127   2.382 -0.1512  0.1517 -0.1716
80764W        W23780  31.256  20.942  26.457  0.0144 -0.2822  0.4050
80765W        W23781   4.145  12.684  29.294  0.0236 -0.0494 -0.1176
80766W        W23782  22.021  22.464  27.975  0.3036  0.3343  0.1758
80767W        W23783   2.176  11.772   2.526  0.0488 -0.0353 -0.4005
80768W        W23784   5.156  15.559  21.472 -0.1378  0.1192 -0.3161
80769W        W23785  31.983  32.497   7.837  0.0142 -0.2057 -0.0702
80770W        W23786   9.859   8.416  28.937  0.3088 -0.1969 -0.2657
80771W        W23787  14.451  18.250   8.167 -0.1250  0.1527  0.1432
80772W        W23788  30.579   2.267  22.482  0.1457  0.0602 -0.1690
80773W        W23789  31.419  16.483   6.979 -0.1033 -0.0442  0.1736
80774W        W23790  28.969   0.041   6.101  0.2664  0.3333 -0.1351
80775W        W23791   5.954   4.154   6.984  0.0149 -0.1168  0.1559
80776W        W23792  18.378  13.806   7.356  0.0058  0.1384 -0.1064
80777W        W23793  29.898   1.803   9.899  0.0929 -0.4015  0.4050
80778W        W23794  14.233  10.234   5.427  0.1795  0.1439  0.0193
80779W        W23795  10.278   6.885  28.585  0.0768  0.0060  0.0658
80780W        W23796  18.150   8.926  26.210  0.0384  0.0032 -0.4806
80781W        W23797  19.445  12.493   5.941  0.2811  0.0549 -0.1152
80782W        W23798   4.835  16.338  24.273 -0.0541 -0.0519 -0.0529
80783W        W23799  13.650   1.600   2.405  0.0437 -0.3024  0.0035
80784W        W23800  15.405  25.769  17.559 -0.2915 -0.0064  0.1264
80785W        W23801  14.876  18.943  19.416  0.1572 -0.0159  0.0251
80786W        W23802  26.958   6.645   5.855 -0.4212 -0.1702  0.0072
80787W        W23803  11.422  12.695   6.543  0.3362 -0.0049  0.0367
80788W        W23804   7.617  31.948   9.555  0.2699 -0.0492  0.0716
80789W        W23805  13.872  24.024   3.579 -0.0856  0.0567 -0.0336
80790W        W23806   0.508  22.786   7.835 -0.0753 -0.1446 -0.0359
80791W        W23807   5.254  20.483   8.842 -0.2485  0.0605 -0.4539
80792W        W23808  18.462  34.119   2.324 -0.0866  0.2770 -0.2699
80793W        W23809   1.761  12.275  23.292 -0.0767 -0.0885 -0.1470
80794W        W23810   9.836  17.066  25.338 -0.0747 -0.1483  0.0076
80795W        W23811   4.712  16.830  21.020 -0.1362 -0.1820  0.0805
80796W        W23812  20.684  10.425   1.349  0.0118 -0.0017  0.1011
80797W        W23813  21.748  12.375  25.953 -0.1124  0.1053  0.2666
80798W        W23814   3.358   6.025   3.022  0.1735  0.1057  0.0852
80799W        W23815  15.693   7.260   7.942  0.0686  0.1696  0.1297
80800W        W23816  17.633  17.381  28.145  0.0434  0.1337 -0.1005
80801W        W23817  18.130  13.790  12.572  0.3201 -0.1239 -0.1101
80802W        W23818  33.133  23.262   7.790 -0.0652 -0.0936  0.3031
80803W        W23819  19.498  16.085  24.934 -0.1272  0.0882 -0.1944
80804W        W23820  23.850  20.620   2.844  0.1386  0.2318 -0.0387
80805W        W23821  21.990  23.467   5.834 -0.1893 -0.0050  0.3477
80806W        W23822   3.625  17.565  29.126 -0.3956  0.1695  0.1450
80807W        W23823  24.702  10.446   5.499  0.1008  0.5192  0.0512
80808W        W23824  13.192  12.881   6.411  0.3546 -0.0562  0.0668
80809W        W23825  11.594   6.960  26.582 -0.2456  0.0027  0.0816
80810W        W23826  11.715  34.312  19.053 -0.1107  0.0783  0.0424
80811W        W23827   5.249  34.330  28.259  0.0647 -0.0955  0.0728
80812W        W23828  20.646  17.613  24.035 -0.1126 -0.1326  0.1012
80813W        W23829  31.447  25.308   4.595 -0.3286  0.0125  0.2284
80814W        W23830   2.182  23.550   0.335 -0.2532  0.0504 -0.0351
80815W        W23831   5.677  13.912  29.309  0.0061  0.0833  0.0800
80816W        W23832   0.591   8.563   0.850  0.5852  0.0752  0.2565
80817W        W23833   6.177  15.719   7.049 -0.1735 -0.2248  0.0516
80818W        W23834  22.768   6.156   2.885  0.4577 -0.0890 -0.1042
80819W        W23835  24.439  11.556   7.206 -0.0369 -0.3106  0.3483
80820W        W23836  16.640  24.833  25.056 -0.0336  0.1824 -0.1324
80821W        W23837  20.288  20.329   3.816  0.2797 -0.2327 -0.3588
80822W        W23838  20.011   6.738   1.267  0.0140 -0.0593  0.1172
80823W        W23839   3.656   4.628   8.765  0.3925 -0.0231  0.1544
80824W        W23840  33.651  17.228   7.521  0.0358 -0.0582  0.3089
80825W        W23841  10.115   2.575  10.822 -0.2139  0.2840 -0.0272
80826W        W23842  15.129  34.705   3.267  0.1558  0.2542 -0.1497
80827W        W23843  13.592  16.532   5.475  0.1111  0.2719 -0.0317
80828W        W23844  21.612  20.196   2.998 -0.0934 -0.0187  0.1524
80829W        W23845  21.364  14.377   7.788 -0.0104 -0.2216 -0.1851
80830W        W23846   3.991  32.510   2.829  0.0879  0.0225 -0.0359
80831W        W23847   5.711  33.015   9.833  0.2637  0.0534  0.0874
80832W        W23848   4.025   9.156  24.183  0.3360  0.0482  0.0227
80833W        W23849   7.110   0.282   7.415 -0.0512  0.0181 -0.0874
80834W        W23850   9.516   4.788   6.562 -0.1361  0.2119 -0.0354
80835W        W23851  13.467   2.046   8.271 -0.1013 -0.0592  0.1350
80836W        W23852  22.947   1.691   4.916 -0.0532 -0.1655  0.4389
80837W        W23853   0.669  15.998  29.100 -0.0909  0.0309 -0.0945
80838W        W23854  16.393  16.628  19.747 -0.1156  0.0041  0.0366
80839W        W23855   6.051   9.254   2.310  0.1774  0.2351 -0.2397
80840W        W23856   5.273   8.264   3.606  0.1481  0.1473 -0.2086
80841W        W23857  33.953  14.652   2.375 -0.1569  0.1193  0.1009
80842W        W23858  15.347  26.257   9.049  0.2819 -0.1761  0.4009
80843W        W23859   8.478   7.949   9.919  0.2196 -0.0332 -0.1013
80844W        W23860   0.578   9.199   1.542 -0.0127  0.0565 -0.1911
80845W        W23861   9.870   3.964   5.455 -0.1831  0.2810 -0.2177
80846W        W23862   3.428   4.527   5.395 -0.2368 -0.1156  0.0700
80847W        W23863  10.359  25.577   5.695  0.0678  0.1616 -0.1221
80848W        W23864   5.122   2.921  26.271  0.0001 -0.1827  0.0976
80849W        W23865  14.433  13.423  26.829 -0.0391  0.2920  0.2532
80850W        W23866   9.130  19.659  28.370 -0.1208  0.0757  0.2218
80851W        W23867   4.615   5.856   9.137 -0.2564  0.4014  0.2307
80852W        W23868  18.500  17.327  28.964 -0.0691 -0.0730 -0.2920
80853W        W23869  21.694  13.412  20.553 -0.0533 -0.0129 -0.2323
80854W        W23870   9.559  28.911   7.207 -0.0576 -0.2596 -0.2591
80855W        W23871   6.311  11.803  10.186 -0.0915  0.0148  0.0875
80856W        W23872  11.888   8.580   4.612  0.3897 -0.2378  0.2441
80857W        W23873  23.484   2.455   1.963  0.2591 -0.1157  0.1481
80858W        W23874  13.449  20.091   7.319  0.0104  0.1475 -0.3199
80859W        W23875  24.533  19.728   9.236 -0.0176 -0.0316 -0.2008
80860W        W23876  12.549  18.651  23.534 -0.1701 -0.1241 -0.0703
80861W        W23877  13.085  13.301  25.301  0.4322  0.2526 -0.2676
80862W        W23878  15.870  12.937  23.246 -0.1385  0.1269  0.0270
80863W        W23879  14.752  21.759   0.153  0.2004  0.2177  0.2114
80864W        W23880   6.026  18.017   5.491  0.1524  0.0141  0.0186
80865W        W23881   4.038  15.690   7.376 -0.0998 -0.0205  0.5567
80866W        W23882   9.515  10.659   8.058  0.1800  0.0589  0.0237
80867W        W23883  14.390  24.528  25.018  0.2921  0.1838  0.0590
80868W        W23884  11.267  19.834  28.287 -0.1810 -0.1187 -0.0311
80869W        W23885  11.579  15.462   0.821 -0.1828 -0.1340 -0.1528
80870W        W23886   8.596  10.459   1.036 -0.1714  0.3130  0.0473
80871W        W23887  17.974  12.911   6.529 -0.1508  0.2743  0.1103
80872W        W23888  16.076   4.851  23.713 -0.4355 -0.0323 -0.1131
80873W        W23889  11.433  23.881  21.792  0.0580 -0.4796 -0.1755
80874W        W23890  16.386   1.436  26.204  0.0714 -0.1952  0.3106
80875W        W23891  17.235  11.411   1.743 -0.1268 -0.0542  0.0446
80876W        W23892  13.467  29.915   7.999 -0.0600  0.2095 -0.1437
80877W        W23893   9.658  19.563   3.052  0.2039  0.0899 -0.0755
80878W        W23894  33.758  23.620   6.166 -0.0399  0.3168 -0.0800
80879W        W23895   2.886  19.323   4.960 -0.1451  0.1440  0.0848
80880W        W23896   9.164  16.524  27.081 -0.1799 -0.1056 -0.3158
80881W        W23897   3.034   3.940   9.404  0.0634 -0.0956  0.1809
80882W        W23898  18.195  32.645  10.439 -0.3333 -0.3885  0.0517
80883W        W23899   5.985  11.632  26.632 -0.1201 -0.0318  0.1436
80884W        W23900   5.128   5.011  24.806  0.0837 -0.0778  0.0662
80885W        W23901   0.543  24.896   9.088  0.0753 -0.0952 -0.4157
80886W        W23902  19.603   8.137   6.020 -0.1834  0.3257  0.5663
80887W        W23903  21.042  13.477   4.260  0.2711  0.1012 -0.3875
80888W        W23904  20.016   7.534   2.977 -0.1992  0.2069  0.0839
80889W        W23905  18.814  17.590  25.597  0.1098  0.1167 -0.3393
80890W        W23906   4.911   7.951   8.441 -0.4173  0.1748  0.1739
80891W        W23907  21.514  20.898  28.409  0.0344  0.1027 -0.4911
80892W        W23908  12.232  24.155   3.656 -0.3075  0.1848 -0.0348
80893W        W23909   8.606   3.279  25.743 -0.0520  0.0542  0.0864
80894W        W23910   9.242  24.830   7.211 -0.0307 -0.0073 -0.0601
80895W        W23911  26.161  23.286   9.857 -0.1505 -0.0918 -0.0247
80896W        W23912  13.210   9.959   8.419 -0.6608  0.1327  0.0150
80897W        W23913  12.855  11.027   8.718 -0.0965  0.0015  0.0177
80898W        W23914   7.207  14.735  16.240  0.0083 -0.1011 -0.1691
80899W        W23915  31.752   6.124   2.437  0.3127  0.0603 -0.0234
80900W        W23916   1.729   5.510   7.772  0.0057  0.3567  0.2382
80901W        W23917  33.013   5.000   0.217 -0.2175 -0.1269  0.1800
80902W        W23918   0.924  20.143  24.330  0.0293  0.1823  0.1683
80903W        W23919   3.784   3.743   3.664  0.0374 -0.0586  0.2206
80904W        W23920   5.092  18.138   6.702 -0.1578 -0.1501 -0.0344
80905W        W23921  15.620  25.190  26.372 -0.0225 -0.4422  0.0463
80906W        W23922  15.455  16.178   4.404 -0.1673 -0.0381  0.1193
80907W        W23923  15.303   2.789   7.025 -0.1066 -0.0052 -0.1523
80908W        W23924  17.317  22.164   6.515  0.0390  0.2097  0.0418
80909W        W23925  32.242  12.573   8.544  0.0612 -0.3054 -0.0556
80910W        W23926  11.095  19.468  23.519 -0.3205 -0.0442  0.0994
80911W        W23927   1.681  13.773   7.347  0.0586  0.0107 -0.0008
80912W        W23928   2.764  14.421   5.508 -0.1200 -0.0198 -0.0882
80913W        W23929   0.693  16.955  11.087  0.1337 -0.1762  0.0030
80914W        W23930  18.935  15.940   2.888  0.4353  0.3512 -0.0435
80915W        W23931   7.426   6.312  27.404  0.0116  0.4016  0.0081
80916W        W23932   9.779   0.753  29.167  0.3903 -0.1805  0.2957
80917W        W23933   0.527  15.534  21.551  0.1323 -0.2190  0.0919
80918W        W23934  10.372   6.099   9.710 -0.1902  0.1076 -0.0063
80919W        W23935   1.751   9.112   7.012  0.1233 -0.1736  0.0565
80920W        W23936   6.765  24.864   5.620 -0.1513  0.0177 -0.0900
80921W        W23937  10.721  18.111   2.246  0.2044 -0.0731  0.0492
80922W        W23938  10.681  18.178  27.174  0.1517 -0.0104 -0.2091
80923W        W23939  34.378   7.155  16.669  0.1064  0.0655 -0.0441
80924W        W23940   1.875  14.551  28.736  0.0084  0.3116  0.0670
80925W        W23941   4.773  16.214  22.586  0.1451 -0.0583 -0.2813
80926W        W23942   6.826   9.016   1.226  0.0224 -0.0831 -0.0480
80927W        W23943  16.292   8.819   9.314 -0.0554 -0.0977  0.0507
80928W        W23944  11.286  18.742   6.960 -0.0311  0.2302  0.0115
80929W        W23945   2.174  25.207  29.274 -0.2081 -0.0467 -0.1053
80930W        W23946  11.893  18.218   6.710 -0.1358 -0.1952 -0.2094
80931W        W23947   7.980  12.561  27.494 -0.0167 -0.1564 -0.1284
80932W        W23948  12.471   3.553   1.699  0.1449 -0.0690 -0.1794
80933W        W23949   9.266  12.576  20.539  0.1539 -0.0113  0.0810
80934W        W23950   1.287  24.906   4.555  0.2447  0.1784 -0.0185
80935W        W23951  20.637  10.149  18.852 -0.4128  0.1220 -0.0493
80936W        W23952  23.795  10.069   9.381  0.5515  0.1236  0.1018
80937W        W23953   8.782   8.042  23.072  0.0927 -0.2223  0.0648
80938W        W23954   4.531   7.380   5.708  0.0944  0.0641 -0.0945
80939W        W23955   1.910  22.795   7.167 -0.2152  0.2771 -0.2691
80940W        W23956   9.579   3.725   1.735  0.4297  0.1032 -0.0775
80941W        W23957   7.666   8.086   0.071 -0.2446 -0.1017 -0.0092
80942W        W23958   9.655   5.069   2.130  0.0442  0.0735  0.0330
80943W        W23959  12.266   0.596   1.108  0.2299 -0.0291 -0.1441
80944W        W23960  16.285   3.698  28.028 -0.0989 -0.2094 -0.4207
80945W        W23961   9.491   7.597  20.949  0.2984  0.1648 -0.1182
80946W        W23962  25.670  34.522  11.203  0.0688 -0.1897  0.1151
80947W        W23963  10.012   8.543   8.706  0.1799  0.1759 -0.0727
80948W        W23964   7.057  25.481   0.936 -0.0184  0.0841  0.1248
80949W        W23965  34.344   5.937   4.371  0.1049 -0.0999 -0.0114
80950W        W23966   8.975  19.181   1.725 -0.3056 -0.1248  0.0541
80951W        W23967  18.842  19.245  12.954  0.0629  0.0173  0.0991
80952W        W23968  17.968  11.041  17.315 -0.4029 -0.4512 -0.3466
80953W        W23969  31.011  17.690  15.325  0.0952 -0.0019  0.1018
80954W        W23970  29.614  33.782   1.461 -0.0167  0.0569  0.1184
80955W        W23971  20.884  16.707   4.712 -0.2002 -0.1078  0.1046
80956W        W23972  10.857  10.422  27.007  0.2376  0.0677  0.0761
80957W        W23973   1.255   2.201   7.702 -0.1652 -0.0948 -0.2045
80958W        W23974   0.437  34.554   5.481  0.1713 -0.1362  0.0406
80959W        W23975   4.917  32.550   4.219  0.0429  0.0062 -0.2037
80960W        W23976  15.156  34.099  27.060 -0.0714  0.0602  0.1602
80961W        W23977   8.903  16.808  28.281 -0.2254  0.2272 -0.1107
80962W        W23978  22.774   5.818   9.001 -0.0841 -0.2936 -0.2086
80963W        W23979   9.518  13.433   8.264 -0.6396  0.0766 -0.0481
80964W        W23980   6.956  14.409  22.515 -0.2616  0.4349 -0.1037
80965W        W23981  30.831  15.641   6.065  0.0423 -0.1540 -0.0703
80966W        W23982  14.275   0.717  28.019  0.1469  0.3068 -0.0798
80967W        W23983  34.107   4.398   7.198 -0.1708 -0.1621  0.0913
80968W        W23984   2.397  15.222   0.533  0.1709  0.2058  0.5852
80969W        W23985  16.501   1.548   7.821 -0.2127 -0.3214  0.0327
80970W        W23986   1.411  15.014  10.831 -0.2500  0.1653 -0.3408
80971W        W23987  10.323  21.691   8.809  0.1069  0.1589  0.1233
80972W        W23988  10.539   4.582  10.135 -0.0400 -0.1171 -0.0498
80973W        W23989   5.177  21.483   6.635 -0.2671  0.2867 -0.0896
80974W        W23990  13.337  16.146   1.577  0.0101  0.0804  0.2375
80975W        W23991  20.717  21.048   7.440 -0.1095  0.3012  0.1718
80976W        W23992  15.683  16.075  23.097  0.0420 -0.1200 -0.3580
80977W        W23993  25.481  10.869   8.691 -0.0256  0.5513  0.0143
80978W        W23994   1.978  10.418  28.529 -0.2037 -0.2314 -0.2623
80979W        W23995  33.869  16.848   6.357  0.0377  0.2270 -0.1565
80980W        W23996  34.375  25.125  25.481 -0.0804 -0.1181  0.1480
80981W        W23997   4.870   5.281  22.686 -0.2302  0.1012 -0.3302
80982W        W23998   1.240  10.903   3.599 -0.1906 -0.2475 -0.0735
80983W        W23999  13.368  18.696  26.523 -0.0621 -0.2236  0.1126
80984W        W24000  11.311   8.151   6.836 -0.1811 -0.0690 -0.2866
80985W        W24001   5.947  28.530   5.950 -0.0412  0.1145 -0.0246
80986W        W24002  16.881   5.805  26.326  0.0031  0.3412 -0.3236
80987W        W24003  22.166  15.019  28.675 -0.1516  0.0937 -0.0203
80988W        W24004  29.645   9.662   8.683 -0.5033  0.0282  0.1842
80989W        W24005   8.732  17.404   8.685  0.2448  0.1633 -0.1523
80990W        W24006  11.318   3.839  26.368 -0.2132 -0.3307  0.1370
80991W        W24007  20.939  29.966   3.721  0.1730 -0.2571 -0.0483
80992W        W24008  11.804  14.457   1.844 -0.2302  0.0180 -0.0523
80993W        W24009   5.150   7.736   5.633 -0.0412 -0.0313  0.3034
80994W        W24010  18.949   4.805   7.238 -0.0407  0.1788  0.3064
80995W        W24011  11.808   2.810   5.067 -0.2326 -0.2682  0.1110
80996W        W24012   8.256   6.378   6.059 -0.2894  0.1827 -0.1778
80997W        W24013  33.003  34.241   6.790 -0.0963  0.0157 -0.0814
80998W        W24014  34.440   4.383   1.816 -0.1328  0.1196 -0.0501
80999W        W24015   9.116  33.135  27.480  0.2393  0.3664  0.2824
81000W        W24016  20.893  11.200  28.370 -0.2081 -0.2230  0.0495
81001W        W24017  15.233   5.948  21.045 -0.3358  0.2544 -0.0069
81002W        W24018   8.495   4.997   3.247 -0.0092 -0.0253  0.5091
81003W        W24019   6.655  22.546  21.783 -0.0703  0.1356 -0.0689
81004W        W24020   7.522   6.684  23.370  0.0003 -0.1554  0.0891
81005W        W24021  12.159  13.413  24.555  0.1596  0.0351 -0.1367
81006W        W24022  16.501  33.015   7.034 -0.0994 -0.0432 -0.2326
81007W        W24023   8.649  13.868   8.980 -0.2120  0.0936  0.3929
81008W        W24024   3.845   5.504   1.499 -0.1624  0.2445  0.0879
81009W        W24025   6.010  11.414   4.292  0.0093 -0.0946  0.1627
81010W        W24026  12.110  15.131   2.974  0.5395  0.0955 -0.0804
81011W        W24027  31.988  22.214   0.663 -0.0609 -0.0880 -0.2665
81012W        W24028   0.978  33.501   5.084  0.1293  0.1314 -0.5354
81013W        W24029  23.661   8.619  28.392 -0.0296 -0.2217  0.3701
81014W        W24030   1.719   8.254   9.632  0.0253 -0.1047  0.2695
81015W        W24031  29.063   2.079  27.395 -0.0228 -0.1240 -0.1946
81016W        W24032  12.516  25.747   8.165  0.0938 -0.2010  0.0497
81017W        W24033   2.842  12.322  10.820 -0.3928  0.2910  0.1875
81018W        W24034  12.083  11.431   8.928  0.0935  0.1379 -0.0904
81019W        W24035  15.853  20.911   1.097  0.1346  0.0801  0.0069
81020W        W24036  16.170   9.486   5.792  0.0829 -0.4654 -0.0782
81021W        W24037   4.039  20.138   5.886  0.2970  0.0827 -0.0476
81022W        W24038  19.480  19.695   3.392 -0.0014 -0.0003  0.0210
81023W        W24039   3.066  11.882   4.243 -0.0433  0.1265  0.4282
81024W        W24040   1.156   4.980   2.570  0.0001  0.0609 -0.1704
81025W        W24041  30.671  24.730   0.536  0.3254  0.1979 -0.3485
81026W        W24042  10.425  14.405   2.850 -0.1081 -0.3323  0.0899
81027W        W24043  10.626  12.356  24.385  0.1749 -0.1178  0.1266
81028W        W24044   7.495  12.858  23.260 -0.0575 -0.0388  0.0059
81029W        W24045   6.586   5.655   4.451  0.0667  0.0890  0.2925
81030W        W24046  15.818  18.245   2.009  0.1238  0.1541 -0.0386
81031W        W24047   1.032   3.129   8.397 -0.0742 -0.1630 -0.0732
81032W        W24048  21.021   6.114   6.545  0.1538 -0.1470 -0.0307
81033W        W24049   8.713  29.373   8.076  0.0431 -0.4646 -0.3519
81034W        W24050  21.873  20.641  26.482  0.1182 -0.2236  0.2714
81035W        W24051  20.341   8.407  27.297  0.0185  0.3424 -0.2882
81036W        W24052  31.906  19.005  27.351 -0.0643  0.0028  0.1821
81037W        W24053  11.829  13.257   7.917  0.4492  0.2450  0.0084
81038W        W24054  10.325   9.776  16.474 -0.2061 -0.2131  0.0453
81039W        W24055   3.989  31.263  10.538  0.1137  0.0048  0.2126
81040W        W24056   8.008  14.183   1.788  0.0861  0.2504  0.2811
81041W        W24057   9.899   2.534   2.649  0.2844  0.0704  0.0612
81042W        W24058  28.777  18.973  26.781  0.2812  0.1232  0.1601
81043W        W24059  13.358  34.465  24.788 -0.0553 -0.1618  0.0756
81044W        W24060  10.262  14.303   5.344 -0.0659 -0.1012 -0.0200
81045W        W24061  11.465   3.394   6.349  0.1656  0.0128 -0.1033
81046W        W24062  28.197   7.508   9.392  0.0982 -0.4925  0.3186
81047W        W24063   2.378  10.211   1.785  0.0213  0.0868  0.1780
81048W        W24064  17.651   8.562   7.046  0.0118 -0.2417 -0.2246
81049W        W24065  11.009   0.530  23.170  0.0844 -0.2099 -0.0514
81050W        W24066  31.716  24.019  28.014 -0.4722 -0.2402 -0.1655
81051W        W24067   2.193  11.603   7.136 -0.1691  0.0965 -0.1141
81052W        W24068  26.503   3.395   8.617  0.1014 -0.3217  0.2465
81053W        W24069  30.811  11.294   6.805 -0.0576 -0.0034  0.0543
81054W        W24070  12.154  34.305   6.307 -0.0709  0.1123  0.1845
81055W        W24071   4.283   2.353   6.653 -0.2011  0.3448  0.3397
81056W        W24072   8.816  11.855  27.717  0.0291  0.1500 -0.0086
81057W        W24073  17.023  21.929   0.331  0.2043 -0.2451 -0.3100
81058W        W24074   8.562  10.849   7.739  0.0525 -0.1576 -0.0879
81059W        W24075  18.225  15.864   7.652 -0.0095 -0.1890  0.0196
81060W        W24076  25.571   0.223  26.707 -0.0395 -0.1217 -0.1423
81061W        W24077  26.964   4.887   2.812  0.0236 -0.2514 -0.2246
81062W        W24078  25.588   6.408   7.726 -0.0847  0.0106  0.1605
81063W        W24079  10.500   4.442   6.087  0.0249 -0.1196  0.0294
81064W        W24080   5.181  26.044   8.530 -0.1311 -0.1807  0.4280
81065W        W24081  30.596  14.021   5.422  0.1471  0.2358  0.0247
81066W        W24082   1.209  18.552   7.709  0.1089  0.0498 -0.0016
81067W        W24083  13.132  10.208   0.048 -0.1022 -0.1463 -0.0290
81068W        W24084   8.796  12.280   7.262  0.2294  0.2842  0.0417
81069W        W24085  20.817  12.717  24.819  0.1047 -0.1807  0.2465
81070W        W24086   8.607  14.515  23.977  0.1099 -0.3591 -0.2372
81071W        W24087  19.387  32.415  27.735 -0.1313 -0.2597 -0.1042
81072W        W24088  19.970  29.724   5.830 -0.1834 -0.2909 -0.1880
81073W        W24089   8.114  10.053   6.642  0.1342 -0.1610 -0.0210
81074W        W24090  28.991  13.189   1.441 -0.0098  0.0765  0.2286
81075W        W24091  13.538  14.866   8.278 -0.1048  0.0813  0.0021
81076W        W24092  10.451  14.631   0.780 -0.2002  0.3816 -0.1451
81077W        W24093  28.195  10.685   0.106  0.1434 -0.3994  0.1686
81078W        W24094  15.880  16.822   6.701 -0.0150 -0.2729 -0.0364
81079W        W24095  10.153  15.386  21.848  0.1990  0.1636 -0.1801
81080W        W24096  15.005  16.836  23.919 -0.1035 -0.0399 -0.1562
81081W        W24097  17.801   6.911   8.323  0.0907 -0.1162 -0.1125
81082W        W24098  29.070  27.945   0.644  0.1128  0.0673  0.0332
81083W        W24099   9.791   3.801   8.752 -0.2472  0.0619 -0.1432
81084W        W24100  29.551  11.446  23.166  0.1676  0.4656 -0.0089
81085W        W24101  24.040  24.411  22.909 -0.0142 -0.3465 -0.0288
81086W        W24102   2.217  17.935  27.366  0.0007 -0.0369 -0.1481
81087W        W24103  14.917  18.231   4.055 -0.2920  0.2311 -0.4101
81088W        W24104   1.726   2.135  25.682 -0.1758 -0.2329 -0.0930
81089W        W24105   7.718  17.955  26.980  0.2741 -0.2069  0.1087
81090W        W24106  11.874  15.460  25.244 -0.0366  0.0992  0.6252
81091W        W24107  11.311  12.643   1.930 -0.2253 -0.1381  0.0640
81092W        W24108  16.868  18.336  22.863 -0.0334 -0.0681 -0.1387
81093W        W24109  22.414   3.221   7.708 -0.0973 -0.0034  0.1618
81094W        W24110  27.447  10.592   3.118  0.3434  0.3251  0.0353
81095W        W24111   6.325  22.224   0.627 -0.3360  0.1745 -0.0801
81096W        W24112   6.915  21.349  28.488 -0.1359 -0.0741 -0.0219
81097W        W24113   5.569  14.249   8.217 -0.3180 -0.1017 -0.0671
81098W        W24114  14.162  17.691   8.314 -0.0530 -0.1602  0.3123
81099W        W24115  26.140  22.024   6.871 -0.0698 -0.3574  0.0553
81100W        W24116   5.983   7.966   5.863 -0.0035  0.0564  0.0776
81101W        W24117  25.688  15.229   7.434 -0.0490  0.2134 -0.0155
81102W        W24118  13.800  20.334   0.224 -0.0363  0.1324 -0.0774
81103W        W24119  20.495  15.737  24.386  0.1340  0.3022 -0.1535
81104W        W24120  34.140   6.269   4.909  0.1181  0.1490  0.3724
81105W        W24121  22.726  14.274   1.074 -0.2094  0.0613  0.0323
81106W        W24122  20.569  15.031  19.771 -0.0793 -0.5129  0.1350
81107W        W24123  13.579  21.827   5.278  0.2707 -0.1873 -0.1548
81108W        W24124  11.231   6.608   8.134  0.0747  0.1992  0.1012
81109W        W24125   5.620  26.512   3.102  0.2352 -0.3322  0.2450
81110W        W24126   1.755  13.597   8.822 -0.0814  0.1033 -0.2355
81111W        W24127  14.989   4.160   2.078  0.2955  0.0949  0.0805
81112W        W24128  12.631   7.031   2.573 -0.0313 -0.1661  0.0740
81113W        W24129   4.639   6.039   9.682  0.0684  0.0714  0.0438
81114W        W24130  12.512   4.945  28.578 -0.0119  0.2992 -0.2760
81115W        W24131   9.296  21.354   4.718  0.1674  0.1499 -0.2018
81116W        W24132   1.480   5.530  10.435 -0.1041  0.0423  0.1462
81117W        W24133  12.354   7.881   4.371  0.0174  0.2410  0.0781
81118W        W24134  18.149   4.716  25.181 -0.1719  0.0635 -0.0557
81119W        W24135  27.701  18.075   6.450  0.0417 -0.0214 -0.0427
81120W        W24136  19.372  22.085   5.451 -0.0016  0.2014 -0.0803
81121W        W24137  19.704  17.741   3.688 -0.1660  0.2216 -0.1152
81122W        W24138  20.794   9.159   6.346 -0.3268 -0.1106  0.1180
81123W        W24139  15.578   9.434   4.773  0.1186  0.0613 -0.0637
81124W        W24140  16.180  28.180   1.068 -0.0469  0.5490 -0.1195
81125W        W24141  19.372   5.521   8.372 -0.0898 -0.0281 -0.0800
81126W        W24142  30.152  23.330   0.716  0.0436  0.1810 -0.3890
81127W        W24143  34.684  19.999  25.384  0.5086  0.1138  0.2727
81128W        W24144  18.558  15.353  14.121 -0.0226  0.0639  0.1546
81129W        W24145   6.717  25.294  28.079  0.3328 -0.1934 -0.0981
81130W        W24146  19.956  31.735  16.184 -0.2776  0.0957 -0.1272
81131W        W24147  15.033  10.486   2.954 -0.0919 -0.0411 -0.1837
81132W        W24148  12.350  18.075  24.298 -0.1006 -0.2975  0.0178
81133W        W24149   8.907  12.938   8.255 -0.2931 -0.3005  0.2995
81134W        W24150   9.027  23.113   4.292  0.3424  0.0038 -0.1732
81135W        W24151  29.017   6.513   3.389 -0.2607 -0.3969 -0.1913
81136W        W24152  14.142  11.377  24.647  0.1268 -0.0323  0.1615
81137W        W24153  33.757   9.051  22.513 -0.0147  0.1431  0.0324
81138W        W24154   6.089  14.935  28.922 -0.1202  0.0143  0.0573
81139W        W24155  34.379  14.303  10.750 -0.2008 -0.2539 -0.1520
81140W        W24156  14.215  25.389   6.647 -0.0630  0.1233  0.0998
81141W        W24157  19.499  23.213   1.902 -0.1435 -0.1465  0.0244
81142W        W24158  10.434  16.414  15.262  0.0476 -0.0300 -0.0813
81143W        W24159  32.953   2.785  24.187 -0.1578 -0.1898 -0.0248
81144W        W24160  12.026  26.790   9.438 -0.0425  0.2158  0.1210
81145W        W24161  32.071  15.753  18.107 -0.0394  0.1038  0.0272
81146W        W24162  25.531  31.461   5.151  0.0275  0.0746  0.1358
81147W        W24163  20.517  10.243  22.916 -0.0909 -0.0908 -0.1902
81148W        W24164  17.722  17.794   4.156 -0.0818 -0.0302 -0.0413
81149W        W24165   8.439  11.430  20.247 -0.1497  0.1146 -0.1928
81150W        W24166  16.166  14.820  25.578  0.0751 -0.1536 -0.1191
81151W        W24167   4.190   6.591  26.763  0.0948  0.0409 -0.0028
81152W        W24168   2.008   0.412  25.600  0.2346 -0.0305  0.4757
81153W        W24169  27.609  12.555  28.533  0.0720  0.3561 -0.3185
81154W        W24170   2.930  13.659   7.324  0.1703 -0.2007 -0.1231
81155W        W24171  32.074  24.819  21.536 -0.2817 -0.0248  0.2057
81156W        W24172  12.416  15.655   3.146  0.2698  0.0883 -0.1711
81157W        W24173   7.366  10.584  26.533  0.1605  0.0723  0.2480
81158W        W24174   7.055  20.858  28.465 -0.0024 -0.3694  0.0105
81159W        W24175  33.256   6.811  24.436 -0.1200  0.0376 -0.2074
81160W        W24176  26.779  14.324   5.906 -0.1922 -0.1080  0.3640
81161W        W24177  19.466  17.037   6.126  0.0383  0.0755 -0.2564
81162W        W24178  29.891  18.002  28.125  0.2276  0.1684 -0.3144
81163W        W24179   7.087  25.507  26.541  0.1484 -0.0196 -0.1712
81164W        W24180  13.673  26.792   7.333 -0.0578 -0.0297 -0.1239
81165W        W24181  34.209  18.735   0.484  0.1079  0.1888  0.0193
81166W        W24182  15.048  15.516   1.393 -0.2173 -0.1654 -0.1441
81167W        W24183   1.617  26.991   5.569 -0.0036 -0.2452 -0.0608
81168W        W24184  30.769  15.540  25.804 -0.3282 -0.1451 -0.0293
81169W        W24185   8.778   5.063   4.816  0.1135  0.1670 -0.2354
81170W        W24186   3.475   3.700  22.397 -0.0169  0.1467 -0.1949
81171W        W24187  14.993  11.034   2.985 -0.2672 -0.0728  0.0426
81172W        W24188   7.534  25.384   6.574 -0.0047  0.0627 -0.4386
81173W        W24189   7.559  14.986   1.066  0.2031  0.1854 -0.0985
81174W        W24190  10.222  26.090  29.230  0.0229  0.1453  0.0830
81175W        W24191  11.412  20.083  14.147  0.0704  0.1967  0.0911
81176W        W24192  19.727   2.291  26.440  0.1068 -0.1662 -0.1586
81177W        W24193  12.235  17.142  27.618 -0.0004  0.2084 -0.2039
81178W        W24194  17.070   8.435   7.003 -0.2976  0.0912 -0.4637
81179W        W24195   6.286  27.572   7.867  0.2208 -0.3406 -0.1028
81180W        W24196  10.111  20.540   0.411 -0.0078  0.0801 -0.0246
81181W        W24197  13.926  18.669   1.993 -0.2791  0.3946  0.0486
81182W        W24198   9.258   6.675   2.706 -0.2138 -0.1726 -0.0434
81183W        W24199   7.702  17.734   3.451 -0.0637  0.1121 -0.0280
81184W        W24200  10.640  19.811   4.641  0.2086  0.0638  0.1733
81185W        W24201  29.996  15.110   4.282 -0.0271 -0.0388 -0.0423
81186W        W24202  18.347  21.987   0.632 -0.0080 -0.0688  0.0006
81187W        W24203  34.529  13.936  11.052 -0.1456 -0.1938 -0.0625
81188W        W24204  10.836  22.358   7.560 -0.0349  0.1828  0.1376
81189W        W24205  20.765  19.834  27.715 -0.1430  0.3601  0.2739
81190W        W24206  15.960  15.421  27.119  0.0397 -0.0204 -0.3382
81191W        W24207   1.566   5.518   3.852 -0.2622 -0.1789 -0.1880
81192W        W24208  18.103  29.169   6.021 -0.0742 -0.0847  0.2363
81193W        W24209   1.172  26.740   4.678 -0.1896 -0.2624  0.1375
81194W        W24210  14.948   9.332  29.243 -0.2561  0.1777  0.1970
81195W        W24211   6.053  26.783   4.916  0.0325 -0.1344 -0.2888
81196W        W24212   5.643  26.385   2.075  0.0990 -0.0643 -0.0745
81197W        W24213  19.704  23.412  23.836  0.1602  0.1521 -0.0143
81198W        W24214   7.942   3.868   9.218  0.1945 -0.0703  0.1249
81199W        W24215  32.493  20.109  15.630  0.0921 -0.0440  0.3799
81200W        W24216   5.177  33.955  18.937  0.3302  0.0838  0.0013
81201W        W24217  21.684  27.341   8.699 -0.1953 -0.1052  0.2119
81202W        W24218  13.456  20.000  24.645 -0.2595 -0.2786  0.0629
81203W        W24219   6.558  11.158  28.322 -0.0279  0.0824 -0.4941
81204W        W24220  21.337   3.056   9.094 -0.4690 -0.0949  0.0743
81205W        W24221   0.849  30.391   0.357 -0.1104 -0.1859 -0.1549
81206W        W24222   1.332  10.179   2.455  0.3817  0.3549  0.1474
81207W        W24223   3.147  26.346   7.852 -0.1860 -0.0731 -0.0954
81208W        W24224   5.657  30.024  22.798  0.2224  0.0999  0.0486
81209W        W24225  11.878  17.827   6.394 -0.0021 -0.0913  0.1060
81210W        W24226  33.907  34.065  10.813 -0.0995  0.1133 -0.3066
81211W        W24227  12.733  19.159  16.019 -0.0325 -0.0355  0.1532
81212W        W24228   1.147  19.357  25.670 -0.3064 -0.1049 -0.1382
81213W        W24229  11.042   8.309  26.568 -0.1428 -0.2165 -0.0836
81214W        W24230   9.709  26.384   0.755  0.0779  0.1225 -0.1555
81215W        W24231  23.632  19.147  14.809 -0.2388 -0.2245  0.0913
81216W        W24232   3.210  16.456   7.977  0.1939 -0.1208 -0.0632
81217W        W24233  14.194  18.637  21.574 -0.0691 -0.0451  0.4083
81218W        W24234  12.292  14.969  28.756 -0.0319 -0.1714  0.0840
81219W        W24235   8.484   9.733   9.627 -0.3094  0.1359 -0.0255
81220W        W24236   9.222  30.709   9.167 -0.0712  0.2403  0.0337
81221W        W24237  15.109  25.379  15.319 -0.1245 -0.0133  0.4158
81222W        W24238  15.419  32.833  27.461  0.0622 -0.1106  0.0063
81223W        W24239  20.014  31.874  20.927 -0.3183 -0.0651  0.1846
81224W        W24240   5.131   8.132  25.475  0.3862 -0.0063 -0.0243
81225W        W24241  34.187  16.905   0.075 -0.2256  0.1911  0.0694
81226W        W24242  26.946  18.337  27.536 -0.1145 -0.2268  0.0548
81227W        W24243  24.029  18.954   9.868 -0.3141 -0.2337  0.0626
81228W        W24244  16.030  32.264   0.088  0.1392  0.5587  0.2329
81229W        W24245  12.601  21.219  24.502  0.0775 -0.0008 -0.1254
81230W        W24246   8.188  24.428   5.160 -0.2234 -0.1235 -0.0412
81231W        W24247   9.021  11.411   1.701 -0.1785  0.1636  0.1094
81232W        W24248  33.554  30.367  17.872 -0.1284  0.0614  0.1221
81233W        W24249  10.299  20.232   8.405  0.1205  0.2814  0.0451
81234W        W24250   4.741  13.832   8.702  0.0807  0.0585  0.2237
81235W        W24251   6.279  10.576  25.477 -0.1584  0.1228  0.1740
81236W        W24252  17.512   7.833  26.237 -0.0148 -0.0020 -0.4047
81237W        W24253  16.586  30.544  18.093 -0.1388 -0.1557 -0.0333
81238W        W24254  12.263   4.836  27.680  0.1021 -0.0660 -0.0664
81239W        W24255   5.510   3.272  26.327  0.1400  0.2672  0.0743
81240W        W24256  21.875  13.542   4.007  0.2108 -0.1155  0.2651
81241W        W24257   1.429  18.125  14.449  0.0580  0.2591 -0.2232
81242W        W24258   7.017  33.635  24.091 -0.0534 -0.1208 -0.1580
81243W        W24259  19.405  15.133   6.361 -0.0788 -0.0260 -0.1663
81244W        W24260   4.845  18.766  20.363  0.0548 -0.1107  0.1979
81245W        W24261   5.544   6.014  10.845 -0.0237  0.0959  0.2017
81246W        W24262  18.297   6.474   8.384 -0.4191 -0.0120 -0.2079
81247W        W24263  27.551   9.488  10.990 -0.0167  0.0004  0.1044
81248W        W24264  25.720  14.960   9.133  0.1114 -0.4506 -0.0393
81249W        W24265  33.571  24.650   7.036 -0.2128 -0.2662  0.0545
81250W        W24266  11.559  22.669   1.958 -0.1846 -0.0581  0.1496
81251W        W24267  24.249   5.667  28.777  0.3766  0.3803 -0.1399
81252W        W24268   4.199   6.497   6.072  0.0478 -0.0513  0.1407
81253W        W24269   0.384   2.913  19.745  0.0210  0.1450  0.4350
81254W        W24270  25.336  17.951   2.587  0.1820 -0.0673 -0.2041
81255W        W24271   0.278   8.839  21.172 -0.1825 -0.4021  0.2620
81256W        W24272   9.426  32.327   2.302 -0.0262  0.4585  0.0942
81257W        W24273  22.117  18.179  27.261  0.2375 -0.0465 -0.0680
81258W        W24274  10.591   5.730   5.573 -0.0293 -0.2327  0.1655
81259W        W24275   7.228   9.666   6.317 -0.0550 -0.1649 -0.1287
81260W        W24276  11.878  27.461   3.212  0.0160 -0.3448 -0.0621
81261W        W24277  32.705  24.823   1.893 -0.1362  0.0661  0.1456
81262W        W24278  25.144  23.306   0.686 -0.2580  0.1454  0.1027
81263W        W24279   8.968  19.961  18.317 -0.1441  0.1045  0.2527
81264W        W24280   0.283  24.676   7.461  0.1470  0.0783 -0.2015
81265W        W24281  14.423  22.797  18.155 -0.0623 -0.0007  0.4612
81266W        W24282   6.591  15.100   5.287 -0.0330 -0.2528 -0.1955
81267W        W24283  21.905   8.176   5.413 -0.2187  0.1850 -0.0360
81268W        W24284  20.982  28.674  24.532 -0.1370 -0.0161 -0.0449
81269W        W24285  26.711  27.549  22.583  0.1808  0.1190  0.2464
81270W        W24286   4.202  28.259  23.501  0.0606  0.1744  0.1803
81271W        W24287  11.498   6.676   0.987 -0.0738  0.0938 -0.0995
81272W        W24288  25.681   5.158  11.857 -0.2683  0.2470  0.0532
81273W        W24289   8.043   8.048   5.663 -0.3944 -0.1483 -0.0630
81274W        W24290  30.059   5.149   3.950 -0.1038 -0.0059 -0.3292
81275W        W24291   6.691  20.564   4.399 -0.1909 -0.0280 -0.0623
81276W        W24292   1.480  19.156   5.719  0.0170  0.1093  0.3464
81277W        W24293  11.649   9.008   0.598  0.1635  0.0576 -0.0129
81278W        W24294  30.379  22.674   7.068 -0.0350 -0.1402  0.3268
81279W        W24295  26.427   6.307   0.114  0.1782  0.2045  0.0456
81280W        W24296   5.476  12.087   6.909 -0.0159 -0.2798  0.2073
81281W        W24297  25.110  22.453   6.742  0.0123  0.1367 -0.3536
81282W        W24298  34.170  23.747   0.329  0.1278 -0.1249  0.1760
81283W        W24299  25.243  23.168  22.740 -0.1972 -0.0897  0.0009
81284W        W24300   8.156  13.519   6.910  0.0241 -0.0267  0.0877
81285W        W24301  18.636  15.227   6.102 -0.0322 -0.2555  0.0004
81286W        W24302   3.234  25.582   1.575  0.0215 -0.1084  0.0972
81287W        W24303   8.555  18.969  25.310  0.0488 -0.4511 -0.1084
81288W        W24304   4.302  23.565  13.860 -0.2699 -0.0105  0.0580
81289W        W24305  13.714   4.599   3.691  0.4720 -0.3098  0.1239
81290W        W24306  12.175  12.228  28.494  0.4196  0.2256 -0.1777
81291W        W24307  26.089  20.108   5.195 -0.0109  0.0060 -0.2708
81292W        W24308  11.825   4.555  10.033 -0.0395 -0.1783  0.2790
81293W        W24309   9.536  15.858  24.826 -0.2620 -0.2702  0.1670
81294W        W24310   1.862   9.747  18.188 -0.1965 -0.0379 -0.1898
81295W        W24311  21.709  19.543  27.127  0.2662  0.1468 -0.1225
81296W        W24312  30.377  23.168  28.700 -0.0667  0.1303 -0.1415
81297W        W24313   0.541   6.817   3.187  0.1597  0.0762  0.0910
81298W        W24314  19.330  22.810  20.015 -0.0893  0.2287 -0.0376
81299W        W24315  12.438  10.927  26.919 -0.0148 -0.0050  0.2274
81300W        W24316  16.978  33.478   9.926 -0.1640  0.2306  0.2365
81301W        W24317   0.733  28.245  14.140 -0.4548 -0.1179 -0.0533
81302W        W24318  24.419  14.925   1.319  0.3182 -0.3406  0.1535
81303W        W24319   7.742  20.453   0.409 -0.1169 -0.5087  0.2365
81304W        W24320  21.812  24.515  19.396  0.1999 -0.3636  0.1914
81305W        W24321  30.469  19.212  23.095  0.0046  0.0582  0.1710
81306W        W24322  11.976  16.894  22.396  0.0508  0.2593  0.0922
81307W        W24323  30.328  19.169  28.257 -0.1415 -0.2533  0.0871
81308W        W24324  21.969   5.024   1.597  0.1544 -0.0222 -0.0564
81309W        W24325  34.312  20.834   9.158  0.0466 -0.3527  0.3111
81310W        W24326   5.536   0.727   4.193 -0.2018  0.2018  0.3037
81311W        W24327   5.003   9.538  21.781  0.2858 -0.0091  0.1187
81312W        W24328   7.441  23.172   8.017 -0.1108 -0.0217 -0.3353
81313W        W24329  20.963  14.136  20.983 -0.0168  0.0317  0.1078
81314W        W24330  24.841   5.644  20.148  0.1306 -0.1350  0.2125
81315W        W24331   7.779  25.543   6.954  0.1298  0.1586  0.4178
81316W        W24332  10.847  18.584  25.529  0.2143  0.0375 -0.2124
81317W        W24333  29.751  26.827  16.619 -0.1028 -0.2632 -0.3182
81318W        W24334   0.304  11.959   3.692 -0.1638 -0.1576  0.2671
81319W        W24335   6.810   6.474  17.497  0.1953 -0.0406 -0.1469
81320W        W24336  13.022  12.041   4.505 -0.0988 -0.0151  0.0382
81321W        W24337   6.745  28.713  26.955  0.3843 -0.0129  0.0440
81322W        W24338   2.738  16.822   5.745 -0.2179 -0.3225 -0.1566
81323W        W24339  11.018  31.248  23.725  0.0286  0.1209 -0.0556
81324W        W24340  29.893  30.081   3.770  0.0736  0.2513 -0.1337
81325W        W24341  25.359  27.278   2.504  0.0550  0.2981  0.0945
81326W        W24342   6.909  23.768   4.997 -0.1123 -0.0070  0.1801
81327W        W24343  15.339  19.078  23.032 -0.1702  0.2166 -0.1147
81328W        W24344  28.765   2.733  10.399 -0.0192  0.0170 -0.0270
81329W        W24345  24.639  25.949   3.487 -0.1044  0.2213  0.1696
81330W        W24346  10.727  23.148   0.490  0.0641 -0.2585 -0.0640
81331W        W24347  10.545   6.163   7.746  0.1295  0.3098 -0.1332
81332W        W24348  12.428  27.967  27.816  0.0624 -0.0062 -0.0240
81333W        W24349  14.222  28.303   8.576 -0.0804 -0.2691  0.1755
81334W        W24350   2.671  19.683   7.182 -0.4352  0.0843  0.2553
81335W        W24351  16.838  15.820  13.081 -0.0554 -0.2439 -0.0731
81336W        W24352  30.643  15.377  22.628 -0.0189 -0.0291 -0.2751
81337W        W24353  14.836  18.739  26.089 -0.1862 -0.1829 -0.1171
81338W        W24354  18.415  25.117  20.794  0.0879 -0.0117 -0.0489
81339W        W24355   9.822  30.513   2.381  0.2280 -0.2355 -0.2130
81340W        W24356  11.006  12.615   2.836  0.1668  0.0050  0.0895
81341W        W24357   3.094  13.752   0.819 -0.0872  0.0845  0.2598
81342W        W24358  17.329  27.301   8.952  0.0633  0.0495  0.2271
81343W        W24359   5.298  26.580   1.715 -0.0246 -0.1502 -0.0368
81344W        W24360  34.143  17.529   6.613  0.4392  0.1183 -0.5193
81345W        W24361   9.411  18.836  23.513  0.2074 -0.1653  0.0178
81346W        W24362   4.711   6.924   3.987  0.1683  0.1491 -0.0927
81347W        W24363   5.885  14.379  23.353 -0.1511  0.0926  0.1064
81348W        W24364  13.453  15.489  13.542  0.0386  0.0311 -0.1910
81349W        W24365   9.787  13.306   4.391 -0.0266  0.1354 -0.3612
81350W        W24366   2.500  20.873   6.675  0.2214 -0.0944 -0.0233
81351W        W24367  12.042  18.210   2.627  0.1893 -0.3167  0.0379
81352W        W24368  12.626  19.800   5.769  0.0366  0.1400 -0.2051
81353W        W24369   1.589  17.724   6.994  0.1298  0.3443  0.1995
81354W        W24370   6.830  14.572   2.684 -0.1482  0.2495 -0.3575
81355W        W24371   6.128   2.822   2.051 -0.0341  0.1544 -0.0970
81356W        W24372  16.260  20.330   7.198 -0.0516 -0.1766 -0.3738
81357W        W24373  11.380  15.124  24.752 -0.0504  0.0361 -0.0056
81358W        W24374   3.082   5.287   7.802 -0.0593 -0.2706 -0.2449
81359W        W24375  18.048  15.255   6.427 -0.0851 -0.0700  0.0695
81360W        W24376  10.355  16.364  26.598 -0.0561 -0.2517  0.1982
81361W        W24377   7.462  17.777   0.505  0.2195 -0.2551  0.1414
81362W        W24378  21.193  17.225   2.760 -0.0286  0.0983 -0.0909
81363W        W24379  16.699  26.098   4.094 -0.0977 -0.2607 -0.0384
81364W        W24380   9.748  14.200   8.725  0.0736 -0.0077 -0.0404
81365W        W24381  25.524  16.293   4.342 -0.1088  0.1168 -0.3195
81366W        W24382   9.795   1.804   0.455 -0.0343 -0.0428 -0.0657
81367W        W24383  12.721  18.272  27.521  0.1799  0.1370  0.1562
81368W        W24384   0.376  14.982  28.039 -0.1184  0.1096 -0.1557
81369W        W24385   4.890  23.756   2.670 -0.3069  0.1889 -0.2022
81370W        W24386  31.060   5.651   6.504  0.4187  0.1251 -0.2078
81371W        W24387   5.872  25.486  27.397  0.1669  0.0019 -0.1204
81372W        W24388  22.962  30.646  25.220 -0.1710 -0.0939  0.0328
81373W        W24389   7.598  15.423   7.871  0.0431  0.0021 -0.2406
81374W        W24390  16.798   7.549   0.668 -0.0178 -0.0653 -0.1851
81375W        W24391  22.983  15.674  13.921 -0.0333 -0.1255  0.2008
81376W        W24392  22.229  15.692   3.178 -0.1773  0.0547  0.1208
81377W        W24393   5.520  33.550  20.249 -0.1686  0.1268 -0.1050
81378W        W24394   6.495  15.005  19.111  0.3375 -0.0696  0.1372
81379W        W24395  19.173  30.009  26.722  0.0109  0.1663 -0.2036
81380W        W24396   9.105   4.190  26.795  0.1331  0.5228  0.0423
81381W        W24397  18.803  10.542  19.901  0.2608 -0.0038  0.0263
81382W        W24398  16.481  17.941  18.737  0.0368 -0.0615  0.1203
81383W        W24399  20.213  19.097  21.922  0.1421  0.1377 -0.1376
81384W        W24400  20.743  21.183  27.015  0.3140  0.1393  0.0029
81385W        W24401   5.487  30.206   5.529 -0.1113 -0.0546 -0.0484
81386W        W24402  30.652  27.975  29.080  0.2266  0.2058 -0.0299
81387W        W24403  18.041   8.270   7.920  0.0237  0.1671 -0.2126
81388W        W24404  13.059   3.858   5.403  0.1393  0.4331  0.0105
81389W        W24405  24.590  21.916   6.434  0.0413  0.0120 -0.0559
81390W        W24406  11.406  21.500  27.240 -0.0757 -0.3382  0.1223
81391W        W24407   7.580   3.556   9.070 -0.1534  0.2059  0.2016
81392W        W24408  20.353  11.264  24.988 -0.0726  0.0646 -0.2137
81393W        W24409  33.934   6.905   5.719  0.0472 -0.3630  0.1281
81394W        W24410  19.441   0.203  28.803 -0.0463  0.1477  0.1267
81395W        W24411  13.501  23.646  28.458 -0.1002  0.0242 -0.0529
81396W        W24412  13.949  10.972  24.449 -0.0539 -0.0518 -0.2378
81397W        W24413  33.388  12.542   3.878 -0.0111  0.2850  0.2007
81398W        W24414   8.846   8.675   1.782  0.0976 -0.3512 -0.1832
81399W        W24415   1.594  16.793  26.429 -0.1656 -0.2437  0.0167
81400W        W24416   0.929  13.518  28.361 -0.3830 -0.0187  0.0685
81401W        W24417   3.488  14.484   9.760 -0.1345 -0.0259  0.0443
81402W        W24418  14.608   9.146   5.691 -0.1680 -0.0105 -0.0702
81403W        W24419  13.374   9.398  21.701  0.0613 -0.2202  0.2090
81404W        W24420   4.237  11.034  24.619 -0.0170 -0.0639  0.1462
81405W        W24421  20.893  28.933   7.330  0.0996 -0.0905  0.2826
81406W        W24422  10.858  16.396   6.059  0.0161 -0.0881 -0.2868
81407W        W24423  31.725  13.597  28.066 -0.2430  0.0313 -0.0375
81408W        W24424   0.719  12.835  24.384  0.0438  0.1323  0.2588
81409W        W24425   1.158  21.105  25.204  0.0983 -0.1589 -0.1962
81410W        W24426   9.239   6.628  17.101 -0.1008 -0.0929  0.1531
81411W        W24427  12.311  33.811  14.950  0.0171  0.1342 -0.0392
81412W        W24428   5.276  10.590   0.738 -0.0828 -0.2823  0.1038
81413W        W24429   2.234  33.458   7.883  0.1635 -0.0093  0.0135
81414W        W24430  14.224   3.204  18.629  0.1701  0.0522  0.3640
81415W        W24431  18.122   0.615  21.352 -0.2564 -0.0861  0.2970
81416W        W24432   0.170  22.172   0.526 -0.0294 -0.3282  0.0539
81417W        W24433  13.030   0.435   8.852  0.0701  0.2496  0.0472
81418W        W24434  33.052   6.539   2.321 -0.0157  0.1008 -0.2669
81419W        W24435   8.045  31.927   1.814 -0.1161  0.2731 -0.0961
81420W        W24436  18.080   3.851   5.853 -0.2033 -0.3281  0.0499
81421W        W24437   5.755   6.146   8.445  0.1553 -0.1157 -0.3847
81422W        W24438  14.903  10.672   0.214  0.2691 -0.2033  0.0342
81423W        W24439  20.659  24.297   4.102 -0.5171  0.1675 -0.1498
81424W        W24440  19.116   5.442   4.188  0.1686 -0.0649 -0.0498
81425W        W24441   0.288  20.914  24.765 -0.2006  0.1868  0.1440
81426W        W24442  13.439   9.477  23.550  0.1900  0.1963 -0.0031
81427W        W24443  27.924   9.614  20.701 -0.1671 -0.1034  0.0189
81428W        W24444   3.413  15.991   6.024 -0.0163  0.2041 -0.0820
81429W        W24445  24.089  33.791  28.998 -0.0486  0.0557 -0.0920
81430W        W24446  13.190  23.307  23.074 -0.2134  0.1743 -0.0956
81431W        W24447   8.548  18.463  25.287 -0.2864  0.1635  0.0671
81432W        W24448  11.270  32.118  15.525  0.3648 -0.0741 -0.0126
81433W        W24449   3.858  10.393  24.952  0.2395 -0.1192  0.2882
81434W        W24450  12.008  23.535  15.945  0.0372 -0.0381  0.0336
81435W        W24451   6.719  27.704  26.693  0.2761 -0.1119  0.0550
81436W        W24452   1.230  11.702  26.956  0.0556  0.1603 -0.0475
81437W        W24453  19.022  16.083  20.027  0.0282  0.2921  0.2542
81438W        W24454  10.180  23.921   0.356 -0.0900  0.0535 -0.1222
81439W        W24455  23.114   6.679   6.695  0.1500  0.0581  0.1551
81440W        W24456   1.225  17.740  19.636 -0.2213 -0.0523 -0.2653
81441W        W24457   1.488   2.955  26.022 -0.0345 -0.1712  0.2132
81442W        W24458   7.850  20.303   2.772  0.1023 -0.0574  0.2571
81443W        W24459  31.353  12.581   9.112 -0.1316 -0.1321 -0.0653
81444W        W24460  18.370  26.843   3.130 -0.2296  0.1738  0.1552
81445W        W24461   5.548   5.864  24.987 -0.0639 -0.0479  0.0054
81446W        W24462  13.682  13.224  26.207 -0.0983  0.3606 -0.0868
81447W        W24463   4.010  13.378  20.542 -0.0938 -0.1820 -0.0907
81448W        W24464  15.324  23.381   5.037  0.0714  0.0980  0.3109
81449W        W24465  33.270  17.148  27.105  0.2378 -0.0879  0.2861
81450W        W24466  12.119  23.459  17.308  0.0176 -0.0648  0.2450
81451W        W24467   6.758  15.823   7.998 -0.0496 -0.2421 -0.1240
81452W        W24468   4.636  20.240   1.828  0.0059  0.0916 -0.1524
81453W        W24469   5.591  30.195  20.433  0.1210  0.1488  0.1615
81454W        W24470  19.078  26.626  25.623 -0.3477 -0.0659 -0.0432
81455W        W24471   6.236  18.747   8.737  0.3062  0.0648  0.0497
81456W        W24472   3.675   1.008  20.791 -0.1129  0.0056  0.0710
81457W        W24473  25.064  29.540   9.032  0.2306 -0.2098 -0.0050
81458W        W24474  11.322  15.939  27.959  0.0407  0.1850 -0.0957
81459W        W24475  10.624  14.664  21.734 -0.2724 -0.2675 -0.0291
81460W        W24476  20.977   8.024  27.198 -0.1663  0.1494  0.0975
81461W        W24477  34.452  13.911   1.068  0.1420 -0.0285  0.2256
81462W        W24478   2.985  19.415  23.506 -0.1192 -0.0382  0.1507
81463W        W24479   2.128  17.202   8.702  0.3395 -0.2980  0.0433
81464W        W24480   4.696  28.339   4.704 -0.0054  0.5242  0.0276
81465W        W24481  32.968  11.899  10.340  0.4847  0.2494 -0.1043
81466W        W24482  11.242  14.729  25.011  0.1656  0.2217 -0.0034
81467W        W24483   4.543  29.277  24.869  0.1628 -0.1501  0.3870
81468W        W24484  14.258   3.971  16.075 -0.1510 -0.1350  0.1880
81469W        W24485   6.884   7.646   5.797  0.0973  0.1199  0.0060
81470W        W24486  24.852   4.535  28.866 -0.1151 -0.2348  0.0300
81471W        W24487   5.411  17.299   8.410  0.0008 -0.0847  0.1361
81472W        W24488   2.843   4.379   4.569 -0.0110 -0.2369 -0.1839
81473W        W24489   8.992  31.875   4.684  0.0791 -0.1175 -0.2419
81474W        W24490  10.519  18.052  15.279 -0.0403  0.1036  0.0549
81475W        W24491  11.040   9.667   7.364  0.1032 -0.0630 -0.1130
81476W        W24492  16.657  19.185  29.238  0.0808  0.3497 -0.1530
81477W        W24493   1.410  16.907   2.645  0.0153 -0.1667 -0.1646
81478W        W24494  21.956  15.396  28.406  0.2978  0.0508  0.0056
81479W        W24495   6.901   4.800   5.949  0.0016  0.1085  0.0712
81480W        W24496  33.864   9.981  18.162 -0.4021  0.2725 -0.0348
81481W        W24497  16.682   4.288   6.879 -0.2808 -0.0569 -0.1233
81482W        W24498  18.319  21.301   3.101  0.4140 -0.1132  0.2391
81483W        W24499   6.675  15.023  24.236  0.3135  0.0304  0.0906
81484W        W24500  33.686  32.314  19.554  0.0680  0.0777 -0.2598
81485W        W24501  33.998  20.447   1.472 -0.0005 -0.5357  0.3455
81486W        W24502   4.810  20.580   2.243 -0.1185  0.1162 -0.1366
81487W        W24503   4.656  29.756  17.976 -0.0724 -0.0985  0.0452
81488W        W24504  22.490  26.988   9.782  0.2350 -0.0624 -0.0418
81489W        W24505  21.664  13.835   3.121 -0.0130  0.0855 -0.1019
81490W        W24506   0.961  15.209   3.040  0.0034  0.1959  0.0563
81491W        W24507  16.894  29.049   3.382 -0.0779 -0.1260  0.2562
81492W        W24508  16.910  24.489   4.532 -0.4018 -0.2379 -0.0688
81493W        W24509   7.612  18.830  16.252  0.2600 -0.1032 -0.2927
81494W        W24510  17.496  28.005   9.341 -0.1349  0.0369  0.1438
81495W        W24511  20.679  12.332  14.379 -0.0482  0.0079  0.1680
81496W        W24512  10.722  25.602   4.211 -0.1915 -0.0923 -0.3558
81497W        W24513  33.551  13.935   1.485 -0.1527  0.2914 -0.3299
81498W        W24514   3.327   1.319   9.583  0.1881  0.2726  0.2146
81499W        W24515   8.057  21.821   5.295 -0.1599 -0.3185  0.0669
81500W        W24516   5.630   7.401  24.557  0.0388 -0.0431 -0.0510
81501W        W24517   5.245  33.198   4.108  0.1784  0.0305 -0.0007
81502W        W24518   7.782  10.794  26.495 -0.1359 -0.1324 -0.1655
81503W        W24519  11.002  13.075  28.525 -0.1702  0.1245  0.1133
81504W        W24520  12.137  17.476  22.452  0.0609  0.1665  0.2042
81505W        W24521  14.036  15.285   3.935 -0.0719 -0.0046  0.2033
81506W        W24522  17.890  12.054   5.847  0.6327  0.0424  0.2957
81507W        W24523   4.712  12.446   7.734  0.1422 -0.0642 -0.3417
81508W        W24524  17.244  15.210  20.775  0.0934  0.1353  0.1749
81509W        W24525  13.619  19.396   2.296  0.0571 -0.2138  0.0722
81510W        W24526  30.791  10.475   1.124 -0.0704 -0.1173  0.0317
81511W        W24527  15.459  34.667  22.801 -0.0580 -0.0685  0.3785
81512W        W24528  32.452  32.240  21.612  0.0281  0.0331 -0.2960
81513W        W24529  10.787  20.347  27.657 -0.0336  0.0917 -0.0134
81514W        W24530  19.011   8.154  26.948  0.1579 -0.1017  0.2668
81515W        W24531  10.910   1.626  27.153  0.0948 -0.0129 -0.3308
81516W        W24532   4.399  13.265   2.520  0.2059 -0.1021 -0.0260
81517W        W24533   6.416   6.603   5.059  0.2105 -0.0442 -0.0970
81518W        W24534   3.086  12.643   1.128 -0.2987 -0.0064 -0.1896
81519W        W24535  32.302  32.248  28.996  0.0272 -0.0666 -0.2311
81520W        W24536  13.381  21.789  23.752 -0.1704  0.2115  0.4749
81521W        W24537  10.986  21.220  15.969  0.3824 -0.2158  0.2674
81522W        W24538  34.278  12.760   5.427  0.1391 -0.1778 -0.0709
81523W        W24539   3.513  13.347  20.238  0.0176 -0.1160 -0.1484
81524W        W24540  26.981   0.002   8.948  0.1369 -0.3002  0.0758
81525W        W24541  27.531  25.612  10.150  0.3597  0.2356 -0.1025
81526W        W24542  30.696  20.626  22.419  0.2923  0.0301  0.1713
81527W        W24543  11.300   6.951  24.430 -0.3032  0.2904  0.2127
81528W        W24544   3.842  27.036   5.981 -0.1226 -0.0374  0.0860
81529W        W24545   8.448  16.532   6.122 -0.0172 -0.0948 -0.4026
81530W        W24546   7.885  33.613   1.027 -0.2120  0.0817  0.0174
81531W        W24547   1.372  25.473   4.556 -0.0976  0.0106 -0.1842
81532W        W24548  13.753  11.005   6.180  0.1636  0.1114 -0.1265
81533W        W24549  11.041  15.026   8.629 -0.0358 -0.3354 -0.1206
81534W        W24550  12.177  13.597   4.600 -0.2971 -0.0146  0.1919
81535W        W24551  11.990  32.153   5.741  0.0925 -0.0036  0.1713
81536W        W24552   4.337  10.678  26.736  0.1854 -0.4133 -0.2516
81537W        W24553  18.872   6.464   3.423 -0.1565 -0.1142  0.2029
81538W        W24554  11.450  25.166   3.985 -0.0463  0.0899 -0.3197
81539W        W24555   3.526   1.175   0.228 -0.2176  0.2883  0.0897
81540W        W24556  34.003  24.910   4.219  0.2180 -0.5559  0.0900
81541W        W24557  13.039  16.362  22.575  0.0755  0.3106 -0.0666
81542W        W24558  17.722  16.906  22.278  0.0477  0.0413  0.0380
81543W        W24559   6.485  20.580   8.700 -0.0504 -0.1206 -0.2494
81544W        W24560  19.390  20.276   9.321 -0.0264 -0.3009  0.2084
81545W        W24561  18.806  13.501  28.299  0.1328 -0.2087 -0.2263
81546W        W24562  17.994  20.910   8.095  0.0939  0.2063 -0.2818
81547W        W24563  11.637  29.350   7.670  0.1408 -0.0446 -0.1745
81548W        W24564  32.735   8.816  25.595 -0.1192  0.0900 -0.0764
81549W        W24565  13.487  15.733  19.816 -0.2449 -0.0537 -0.0866
81550W        W24566  23.707  15.728   1.628  0.0267 -0.1310  0.0051
81551W        W24567   6.986  21.985   7.973  0.1079 -0.2844  0.0317
81552W        W24568   2.448   7.207  10.267 -0.1326 -0.0447  0.2429
81553W        W24569  10.589  17.428  16.032  0.1454  0.0524  0.2107
81554W        W24570   1.208   8.678  16.454  0.2716  0.1064 -0.3073
81555W        W24571  25.533  10.567   3.769  0.0700 -0.1331 -0.0959
81556W        W24572  30.277  26.336  22.508  0.4171  0.1088 -0.5475
81557W        W24573   0.624   0.568   2.227  0.0135 -0.0571 -0.1382
81558W        W24574  15.320  11.029   9.273  0.1968 -0.2214 -0.3198
81559W        W24575  32.006   1.685   0.718  0.0623 -0.0054 -0.2138
81560W        W24576  33.931   4.391   7.738 -0.1685 -0.2597 -0.1040
81561W        W24577  12.172  20.485  28.321  0.0789  0.0819  0.1806
81562W        W24578  28.890  22.513   5.428 -0.3786 -0.3766  0.1995
81563W        W24579  31.081  14.055   5.253  0.0674  0.2144  0.0260
81564W        W24580   7.482   1.019  10.579 -0.0157 -0.0564 -0.1497
81565W        W24581   9.423   1.862  14.749 -0.2815 -0.1249 -0.0064
81566W        W24582  32.232  20.733   1.450  0.0294  0.2362  0.3683
81567W        W24583  13.005  18.428   2.267 -0.3176  0.2440  0.0621
81568W        W24584  34.101   4.726   9.040  0.2136 -0.0327  0.3898
81569W        W24585  27.155  30.902   2.196  0.2916  0.0162  0.0754
81570W        W24586  24.493  10.881   6.350 -0.3330 -0.3546  0.0630
81571W        W24587  17.367  13.037   0.116 -0.0426 -0.1952  0.0499
81572W        W24588  11.452  27.054   6.951  0.2888  0.1622  0.1829
81573W        W24589  32.822  18.511  27.747  0.0812  0.0866 -0.3490
81574W        W24590  29.832  23.513  10.206 -0.2626 -0.1083 -0.3634
81575W        W24591  23.285  25.672  19.521 -0.0958  0.3276 -0.0095
81576W        W24592  10.466  17.977   6.339  0.0288 -0.1347  0.2249
81577W        W24593  16.966  15.645   8.367  0.1860 -0.1264 -0.1542
81578W        W24594  33.522  17.397  17.631  0.2100 -0.0076  0.0175
81579W        W24595   3.638  17.929   6.792 -0.2099  0.1426 -0.2285
81580W        W24596   1.606  19.632  21.341 -0.0799  0.1465  0.1499
81581W        W24597  28.716  29.261   0.345 -0.3477  0.1669  0.2491
81582W        W24598   7.190  14.486   5.377 -0.1457 -0.1485 -0.1311
81583W        W24599  21.895  32.648  27.926 -0.1403 -0.2543 -0.0368
81584W        W24600   3.260  10.732  18.617  0.0293 -0.1038  0.1421
81585W        W24601  34.132  14.444   1.329 -0.0767  0.0395 -0.1205
81586W        W24602   6.390  16.895   6.528  0.0489 -0.0656  0.1364
81587W        W24603   4.603   0.402   6.782 -0.1549 -0.1025  0.0919
81588W        W24604  12.025  15.374  24.124  0.0056  0.1988 -0.1286
81589W        W24605   8.765  27.437   4.014  0.0810 -0.2830 -0.2486
81590W        W24606   9.616  12.085   4.986 -0.0600 -0.0968  0.0940
81591W        W24607  13.589  27.796   0.353  0.2891  0.1641  0.0689
81592W        W24608   5.440  11.536  26.648  0.0451  0.0456  0.1444
81593W        W24609  26.345  25.643  22.407 -0.0525 -0.1252  0.0767
81594W        W24610  24.373  17.845  18.326  0.3743  0.3703  0.0904
81595W        W24611  33.779  17.529   2.757  0.3978 -0.0358  0.2055
81596W        W24612   8.347  15.162  25.515  0.0210 -0.0522  0.1915
81597W        W24613   9.083  20.637   0.249  0.1826  0.0454 -0.0563
81598W        W24614   9.610   2.609  24.758  0.0222  0.6152 -0.1956
81599W        W24615  33.400   4.791   6.737 -0.2195  0.0309 -0.2683
81600W        W24616  29.617  12.850  21.600  0.1358  0.3129 -0.0084
81601W        W24617  19.686  19.631   5.055 -0.0142 -0.1312 -0.2104
81602W        W24618  33.093   1.823   5.297 -0.0587  0.0453  0.0012
81603W        W24619   8.614  17.135   7.438 -0.0482 -0.1419 -0.3713
81604W        W24620   3.940  28.960   6.855  0.1367 -0.1076  0.0666
81605W        W24621   9.754  16.095  19.277 -0.0658 -0.2051 -0.2638
81606W        W24622  31.686  32.408   6.001  0.2030 -0.0075 -0.2804
81607W        W24623   1.544  17.850   8.051 -0.0666  0.1297  0.3265
81608W        W24624   8.731  16.263  25.540 -0.0235  0.0275  0.0722
81609W        W24625  22.326   6.880   7.705  0.0208 -0.1921 -0.1312
81610W        W24626   4.688  20.186  27.672 -0.2882 -0.0497  0.0961
81611W        W24627  14.354   4.184   1.780 -0.3188  0.0875  0.0067
81612W        W24628  33.839  17.409   5.632 -0.1543 -0.1389  0.3064
81613W        W24629   8.567  12.391   8.673 -0.0229  0.1069  0.0220
81614W        W24630  12.869  25.826   2.755 -0.2835 -0.1930  0.1241
81615W        W24631  14.314  15.417  25.082  0.5291  0.1233 -0.2903
81616W        W24632   6.647  12.441  27.682 -0.2594  0.0538  0.2405
81617W        W24633  17.421   6.828  28.305 -0.3934 -0.1258 -0.1321
81618W        W24634  14.681   0.774   6.400 -0.3679  0.1247 -0.3390
81619W        W24635   0.201   2.372  20.017  0.1774  0.1072  0.0033
81620W        W24636   9.587  11.250   2.338 -0.2172 -0.3241  0.0461
81621W        W24637  29.454   7.122   5.311 -0.0181  0.1389 -0.1856
81622W        W24638  16.463  13.620   8.164 -0.1881  0.1686  0.0036
81623W        W24639   1.032   9.034  10.608 -0.1007  0.2058  0.0727
81624W        W24640  14.277  13.269   0.733  0.2051 -0.0284 -0.3034
81625W        W24641  28.038  19.192   9.575 -0.0518  0.1496  0.1472
81626W        W24642  17.020  20.989  27.238 -0.4015 -0.1427 -0.1124
81627W        W24643  15.205  19.740  26.759 -0.0043  0.0190  0.3207
81628W        W24644   2.491   5.105   3.321 -0.3244 -0.2102  0.1205
81629W        W24645  22.845   2.713   6.579  0.0110 -0.0989 -0.0475
81630W        W24646  11.166  14.491   0.269  0.2731 -0.2352 -0.0428
81631W        W24647  24.004  34.151  25.558 -0.0436  0.2386 -0.1427
81632W        W24648   7.663  18.796   3.947 -0.3596 -0.2503 -0.0620
81633W        W24649  32.674  33.269   5.704 -0.1450 -0.1673 -0.1112
81634W        W24650  10.834  14.798   0.471 -0.2236 -0.2688 -0.0963
81635W        W24651  33.830   8.201   7.980 -0.0120  0.0044  0.1029
81636W        W24652   6.981   0.629  19.892  0.1772  0.2474  0.3531
81637W        W24653  16.870  16.870  28.802  0.1347  0.0832  0.1213
81638W        W24654  10.202  11.012  28.301 -0.0191 -0.1859 -0.1029
81639W        W24655  13.110  22.677  27.858  0.0924  0.0922  0.3327
81640W        W24656  18.420  20.390  27.355 -0.1038  0.1831 -0.1393
81641W        W24657  23.301  16.359  24.814  0.2258  0.0144 -0.1076
81642W        W24658  13.455   9.690   7.952 -0.2766 -0.1239 -0.1453
81643W        W24659   4.652  12.810   0.016  0.2666  0.0623  0.0985
81644W        W24660  33.082  24.261  24.102 -0.0064  0.3172  0.1936
81645W        W24661  10.244  13.102  19.181  0.1430  0.1236  0.0927
81646W        W24662   8.042   3.113  25.163 -0.0932 -0.1263  0.1475
81647W        W24663  24.531  12.197   5.149 -0.0090 -0.0506 -0.0477
81648W        W24664  22.433  14.598   4.043  0.1029 -0.1466 -0.0169
81649W        W24665   6.439  27.487  28.390  0.3034 -0.2406 -0.0553
81650W        W24666  34.160  26.859  25.866  0.1531 -0.1823  0.1876
81651W        W24667   4.056  20.016   8.189 -0.0184  0.0327 -0.0378
81652W        W24668   4.330  22.111   5.686  0.3211 -0.3525 -0.0293
81653W        W24669   9.303  19.128  26.206  0.0524  0.0632 -0.2285
81654W        W24670  14.083  29.013  19.104  0.2301 -0.0338 -0.0514
81655W        W24671  29.668  17.271   5.702 -0.1503 -0.1008  0.1594
81656W        W24672   6.846  19.061  18.154 -0.1843 -0.1196 -0.0402
81657W        W24673  17.337  14.537  21.626 -0.3886  0.0074  0.1442
81658W        W24674  19.044  17.947   6.222 -0.4610 -0.1551 -0.0318
81659W        W24675  15.678   2.336   5.351  0.0259  0.3718  0.1947
81660W        W24676  22.378  23.340  16.078  0.2198 -0.0015 -0.1907
81661W        W24677  22.860   6.414   7.340  0.0440 -0.0377  0.0983
81662W        W24678  11.805  27.370   1.899  0.0406 -0.2065 -0.0916
81663W        W24679   7.889   0.764  28.918  0.0472  0.0423 -0.1264
81664W        W24680  20.053  19.056   8.649 -0.2610 -0.1081  0.1709
81665W        W24681  18.871  27.912   5.202 -0.2256  0.1132  0.1244
81666W        W24682   1.921  17.620   6.525 -0.0097 -0.4890 -0.0949
81667W        W24683  10.485  20.970   2.279  0.1556 -0.0651  0.0764
81668W        W24684  12.166  21.376  26.320 -0.0045 -0.2003  0.0037
81669W        W24685   4.365  19.827   9.655 -0.0255  0.1752  0.1393
81670W        W24686  11.994  13.570  25.675  0.3744 -0.0899 -0.1592
81671W        W24687   6.197   3.271   2.291 -0.0067  0.1902 -0.1013
81672W        W24688  32.446   2.563   2.931 -0.1713 -0.1368 -0.3839
81673W        W24689   7.431  14.475  27.499  0.0204  0.1143 -0.0361
81674W        W24690  10.018  19.192   4.909  0.1396 -0.1074 -0.1189
81675W        W24691   7.118  16.279  14.393  0.1551 -0.2021 -0.0556
81676W        W24692  17.538  14.497   1.477  0.1342  0.0220  0.0714
81677W        W24693  31.168  15.817   0.369  0.0862  0.0330  0.0359
81678W        W24694   8.165   6.548   2.031  0.0718  0.0274 -0.0819
81679W        W24695  15.292  12.137   0.250  0.3472 -0.1277  0.0447
81680W        W24696  12.867  18.783   5.125 -0.0760 -0.2356 -0.4083
81681W        W24697   2.412  21.932   7.291 -0.0508 -0.2432 -0.1699
81682W        W24698   7.166   9.859  10.161  0.2515 -0.0343 -0.3751
81683W        W24699  20.458  19.246  26.417  0.1738 -0.0075  0.0935
81684W        W24700  14.951   3.234   2.540 -0.0242 -0.5416 -0.2072
81685W        W24701  30.358  23.510   2.804 -0.1493 -0.1163  0.2075
81686W        W24702  28.401  20.235   3.948 -0.1306  0.1754  0.0937
81687W        W24703  16.102  19.832  13.937 -0.1197 -0.0679 -0.2244
81688W        W24704   2.879  26.971   8.653 -0.2419  0.0224  0.2289
81689W        W24705  10.777   2.614   7.321 -0.2186  0.0942 -0.1795
81690W        W24706  31.477   7.963   9.747 -0.0066 -0.0971  0.2649
81691W        W24707   2.209  13.144   2.976  0.2309 -0.1948  0.3015
81692W        W24708  10.315   3.440  22.015 -0.3232  0.0927  0.0364
81693W        W24709   9.062   3.143   2.402  0.0485  0.0525 -0.2707
81694W        W24710   8.341  24.731   2.270  0.1366 -0.1068  0.0830
81695W        W24711   1.978  16.273   9.210  0.1109  0.0082 -0.1135
81696W        W24712  13.557  16.255  26.403 -0.0178 -0.0456 -0.2672
81697W        W24713   8.279   0.774   2.263  0.0540  0.0382 -0.2185
81698W        W24714   3.700   8.042   6.018  0.2227 -0.3928 -0.0117
81699W        W24715  33.924   7.938   4.145  0.0511  0.1044  0.0451
81700W        W24716  12.383  20.163   1.919  0.1007 -0.1850  0.0655
81701W        W24717  23.420  33.305   5.037 -0.3404  0.0067  0.2757
81702W        W24718  11.548  20.570   1.852 -0.0775  0.0278  0.1415
81703W        W24719  34.221  26.217   1.630 -0.0045  0.1232  0.2048
81704W        W24720   6.547  23.562   0.454  0.1379  0.1333  0.0725
81705W        W24721  12.122  27.797   5.354 -0.2591  0.0878  0.0954
81706W        W24722  16.674  19.679   2.292 -0.2726 -0.0430 -0.0543
81707W        W24723   3.406   4.595  24.131 -0.0562  0.1180 -0.2260
81708W        W24724  20.906  24.213   5.730 -0.2479  0.0379 -0.0187
81709W        W24725  12.247  16.822  28.335 -0.0189  0.3518 -0.0822
81710W        W24726  27.366  20.369   3.860  0.1414 -0.2040  0.2939
81711W        W24727   0.837   3.928   5.024 -0.1930  0.0471  0.0441
81712W        W24728  17.003  10.948   5.406 -0.2376 -0.1752  0.0006
81713W        W24729  13.011  15.471  28.869  0.0597  0.4474  0.0161
81714W        W24730   4.363  23.193  26.903 -0.0838  0.1677 -0.2880
81715W        W24731   1.912  25.867   0.495  0.0129  0.0377 -0.0482
81716W        W24732   3.682  33.314  18.926 -0.0189 -0.0961 -0.1005
81717W        W24733  29.485   4.157  10.731  0.1460 -0.0512  0.0756
81718W        W24734   9.095  14.787   2.881 -0.1208  0.0289 -0.0397
81719W        W24735  15.267  11.731  26.126 -0.1816  0.2223 -0.0109
81720W        W24736  20.039  19.139   2.740 -0.0074  0.1439  0.3524
81721W        W24737  14.891  25.488  26.064 -0.1900 -0.0575  0.0414
81722W        W24738   4.945   9.867   6.591  0.0567 -0.0800  0.1155
81723W        W24739   6.453  20.487   5.248 -0.0093 -0.1257 -0.1851
81724W        W24740  21.272  26.854  27.915 -0.2238 -0.0984  0.3720
81725W        W24741   4.034  13.112   4.666  0.1180  0.0587  0.1562
81726W        W24742  12.038  18.245   3.949  0.2453 -0.0901 -0.2858
81727W        W24743  19.439  18.472  27.201 -0.3874 -0.0839  0.1019
81728W        W24744  34.425  18.863   2.390 -0.0010 -0.0705 -0.0030
81729W        W24745  32.931  14.993   9.086  0.3497 -0.2507 -0.1587
81730W        W24746   7.107  23.534  23.257 -0.0717  0.1198 -0.0673
81731W        W24747   4.224  20.653   8.766 -0.1461  0.1846  0.4635
81732W        W24748  34.288  15.084   9.258 -0.0686  0.0998  0.2552
81733W        W24749   9.400  17.685  21.607  0.0095  0.4104  0.0282
81734W        W24750   4.944  25.445  10.158 -0.0091 -0.0417 -0.1626
81735W        W24751  15.917  26.785   2.973 -0.2922  0.0729 -0.1697
81736W        W24752   4.856   4.306   9.639  0.0123  0.3088 -0.1865
81737W        W24753  32.220   4.857   7.043 -0.3917  0.0446 -0.0842
81738W        W24754   9.697  25.619   0.511 -0.1017  0.0946 -0.0801
81739W        W24755  18.949   6.888   9.149  0.0309  0.0987 -0.0006
81740W        W24756   3.853  10.354   5.769 -0.0595 -0.0434 -0.1438
81741W        W24757  15.542   7.533  15.689 -0.0656 -0.1508  0.1019
81742W        W24758   2.650  21.581   4.741  0.3736 -0.0421 -0.1288
81743W        W24759   6.196  10.789   3.621  0.1179  0.1590 -0.0107
81744W        W24760  24.893   2.620  10.046 -0.0004 -0.0557  0.1850
81745W        W24761  13.635  17.757   6.887 -0.2009 -0.1399  0.0008
81746W        W24762  25.406  19.502  20.349 -0.0867 -0.0524 -0.0296
81747W        W24763  12.107  34.392   5.267 -0.3122 -0.0999  0.0451
81748W        W24764  15.916  16.080  24.188 -0.3151  0.2260  0.0199
81749W        W24765   1.566   6.431  29.308 -0.0336 -0.1734 -0.0124
81750W        W24766   4.888  17.415   6.148  0.0339  0.2845 -0.3017
81751W        W24767  24.479   9.524   9.813 -0.2054  0.1222  0.0909
81752W        W24768   6.808   8.929  27.599  0.0113 -0.1782 -0.0529
81753W        W24769  14.001  15.140  24.813  0.1842  0.0242 -0.0285
81754W        W24770   4.978   8.740  23.741  0.1563  0.0617  0.0577
81755W        W24771  13.717   7.740  24.798 -0.0167  0.3127  0.0367
81756W        W24772  10.166  24.006   7.893 -0.2560  0.0769  0.0011
81757W        W24773  23.385  18.561   0.437 -0.4633  0.1203  0.1140
81758W        W24774  10.537  14.355  26.749  0.0530 -0.1032 -0.0163
81759W        W24775  27.419  19.605  23.358  0.3701  0.1514  0.0263
81760W        W24776   6.611  27.960   7.689 -0.1637 -0.0663 -0.1259
81761W        W24777   2.130  10.789   7.240  0.2890  0.1507 -0.0016
81762W        W24778  11.061  12.469   3.391  0.1260  0.0227  0.0883
81763W        W24779  13.811  12.097  21.220 -0.2264  0.1247  0.1531
81764W        W24780   8.872   9.096   5.407  0.0777 -0.0923  0.3207
81765W        W24781  30.503   6.204   7.131 -0.0724 -0.1698  0.1230
81766W        W24782  15.968  27.266  26.915  0.3972  0.0560  0.2528
81767W        W24783  24.428  15.415   8.424 -0.1185 -0.0060  0.1468
81768W        W24784  11.242  15.717   7.154  0.2872  0.1062 -0.2379
81769W        W24785   7.829  12.784   6.964  0.0453 -0.2962  0.1223
81770W        W24786   7.744  17.305   3.222 -0.2075  0.0124 -0.1921
81771W        W24787   5.874  11.466   6.744 -0.1285  0.3370  0.2137
81772W        W24788   7.779  11.436   7.906  0.3727 -0.2417 -0.3975
81773W        W24789  23.581  26.078  10.761  0.2207 -0.2412  0.2177
81774W        W24790   2.019  18.752   7.382  0.2687 -0.0203 -0.4471
81775W        W24791   9.663  13.166   4.931  0.0007  0.3613 -0.2120
81776W        W24792   6.397  12.477   9.671  0.1297  0.2248  0.1233
81777W        W24793  32.689  10.118  28.580  0.0435 -0.0026 -0.1324
81778W        W24794   9.166  34.055  21.642 -0.0122  0.1464 -0.0448
81779W        W24795  16.906  21.928   5.697  0.0377  0.2277 -0.0435
81780W        W24796   9.737   8.697  17.963 -0.0196 -0.2035 -0.1930
81781W        W24797   5.558  31.936   1.859 -0.1917  0.0524 -0.2174
81782W        W24798   9.762   4.267   1.514  0.2282 -0.0766  0.1282
81783W        W24799  14.747   6.947   0.602  0.0358 -0.0363  0.0300
81784W        W24800  17.075  22.892  26.030 -0.0541 -0.1555 -0.1896
81785W        W24801  15.621  31.640  27.342  0.1383  0.0673 -0.1124
81786W        W24802  23.023  22.917   3.634  0.0814 -0.3024  0.0759
81787W        W24803  13.271  20.330   0.843 -0.0090 -0.1705 -0.0774
81788W        W24804   4.779  15.473   2.774  0.2218  0.2379 -0.0124
81789W        W24805   6.690  13.690   3.117  0.0284  0.0877  0.2097
81790W        W24806  13.472  10.688   3.488  0.3975 -0.1016  0.2590
81791W        W24807  11.393   8.725   9.206 -0.3098 -0.0176  0.0372
81792W        W24808  16.139  25.568   3.766  0.2542 -0.1856  0.1822
81793W        W24809  25.450  19.846   8.875  0.0627 -0.2204 -0.1204
81794W        W24810  12.885  29.409  28.164  0.3600  0.0101  0.0535
81795W        W24811  12.528  17.522   4.037  0.0144  0.2390 -0.1076
81796W        W24812   4.191  23.000   6.393 -0.0131  0.0629 -0.0414
81797W        W24813   6.800   7.695  29.056  0.1187  0.0545  0.0207
81798W        W24814  20.768   3.923   5.547  0.2975  0.1370 -0.3865
81799W        W24815   3.293  17.403   0.168  0.0396 -0.0249  0.2521
81800W        W24816   6.256   8.462   6.202  0.0848 -0.3368  0.2149
81801W        W24817  19.903  28.079   9.760  0.1999  0.2990 -0.1912
81802W        W24818  12.262   5.175   9.129  0.1206 -0.1352 -0.0275
81803W        W24819  10.628  26.692   0.919 -0.0567  0.0367 -0.5110
81804W        W24820   5.539  11.603  15.036 -0.4778 -0.0921  0.0587
81805W        W24821  10.432   3.868   9.514  0.1497 -0.1040 -0.1330
81806W        W24822   2.612  22.050  27.725 -0.0152 -0.0607 -0.3134
81807W        W24823  31.382   3.970  10.860 -0.0105  0.1652  0.2475
81808W        W24824   5.609  22.029   4.798 -0.0263 -0.1863 -0.3549
81809W        W24825   4.545  13.845   1.371 -0.0699  0.0244 -0.1053
81810W        W24826  19.656  14.143   5.449  0.1944 -0.1785 -0.5850
81811W        W24827  18.475  12.791   3.650  0.2157 -0.3900 -0.0396
81812W        W24828   0.399   2.285   7.710 -0.0264 -0.1088 -0.3772
81813W        W24829  15.237   6.593   6.128  0.1280  0.0122 -0.1650
81814W        W24830  17.667  14.705  28.520 -0.1264  0.0429 -0.1816
81815W        W24831  15.465  16.577  21.893  0.1215  0.1233  0.5145
81816W        W24832  26.969  26.690   6.344 -0.0226  0.1361  0.0770
81817W        W24833  17.435  19.500  24.999  0.1530 -0.0111  0.1269
81818W        W24834   4.918  28.326   7.679 -0.1641  0.2594  0.0558
81819W        W24835   6.983  12.841  24.618  0.3910 -0.1497  0.1743
81820W        W24836  10.100   8.433   0.459 -0.4165  0.0749  0.0921
81821W        W24837   1.905  14.382  22.430  0.1590 -0.0906  0.0534
81822W        W24838  30.659  15.031   6.773  0.0267 -0.1040 -0.1230
81823W        W24839  32.721  22.237   2.604  0.0232 -0.0433  0.2371
81824W        W24840  11.596  31.896   2.801 -0.2546  0.1882  0.1786
81825W        W24841   0.428  31.206   9.073 -0.2226 -0.1039  0.0221
81826W        W24842  13.175  20.029  23.064  0.0161  0.3827 -0.0994
81827W        W24843   0.413  10.363   2.086  0.0078  0.0551  0.2301
81828W        W24844   3.682   1.052  26.052  0.1324  0.1746 -0.3229
81829W        W24845  31.195   3.447   2.083  0.2610  0.2181  0.3190
81830W        W24846  11.628  13.213   0.929  0.1907 -0.4198  0.1731
81831W        W24847   9.926   3.177   5.997 -0.1582 -0.3887  0.1164
81832W        W24848  33.773  20.562   8.527  0.4014 -0.1111 -0.3366
81833W        W24849  32.242  24.831   2.060 -0.2310  0.0250  0.0316
81834W        W24850  25.998  13.722   9.364 -0.2577  0.0618  0.2333
81835W        W24851   5.253  12.068   6.325  0.0608  0.1394 -0.0477
81836W        W24852  17.785  17.937   8.131 -0.1293  0.2595 -0.0725
81837W        W24853  20.793   6.542   6.398  0.0408  0.2393 -0.0277
81838W        W24854   3.279  15.768  27.662  0.2554 -0.1580 -0.2698
81839W        W24855  30.509   8.663   4.830  0.1281  0.1022 -0.0930
81840W        W24856   7.869  18.375   4.857  0.0197  0.5070 -0.0244
81841W        W24857   5.834  19.531  17.895  0.3800 -0.1334 -0.4429
81842W        W24858  12.443  13.074   2.820  0.3985  0.0025 -0.1295
81843W        W24859   4.087  34.245   1.006  0.0730  0.3346 -0.0330
81844W        W24860  19.229  29.548   9.366  0.0631 -0.1736  0.2761
81845W        W24861   1.370   6.935  29.130 -0.1064 -0.0231 -0.1007
81846W        W24862  12.948  11.063   2.857 -0.1906 -0.1457 -0.2176
81847W        W24863  14.312   4.211  27.606 -0.1615 -0.0070  0.0047
81848W        W24864   5.738  12.860   0.326  0.0059 -0.1855  0.2176
81849W        W24865  18.988  32.200   4.884  0.1470  0.0508  0.0810
81850W        W24866   8.576  12.808  29.197 -0.0047  0.1517  0.0612
81851W        W24867  22.402   9.197   3.436  0.2338  0.0739  0.0789
81852W        W24868  27.499  14.914   7.415 -0.1729  0.0136 -0.1884
81853W        W24869  23.608  17.085  29.194 -0.1381  0.0711 -0.1727
81854W        W24870  30.257  13.246   9.674 -0.0809  0.0695  0.1014
81855W        W24871  12.017  22.389  28.960 -0.2649  0.2108 -0.0690
81856W        W24872  21.873   3.642  24.585  0.0466 -0.0600  0.2044
81857W        W24873   4.580  18.070   2.795  0.0017  0.2671  0.0223
81858W        W24874   7.882  17.623  20.262  0.1827  0.1421 -0.3395
81859W        W24875   5.007   8.054   2.443  0.0155 -0.1754  0.0299
81860W        W24876  34.676  12.201   4.028 -0.0296 -0.2377 -0.2109
81861W        W24877  17.807  18.594  20.555 -0.0551 -0.0264 -0.1218
81862W        W24878  32.469   8.486  22.366 -0.0195 -0.0543 -0.2726
81863W        W24879  11.983  17.728  24.213  0.0351 -0.2471  0.0444
81864W        W24880  11.549  20.278  22.234  0.0945 -0.1115  0.2374
81865W        W24881  17.470  25.178  16.080 -0.0047 -0.0091 -0.1018
81866W        W24882  14.260  16.209   4.605 -0.0309  0.1673  0.0496
81867W        W24883   6.396  33.596   6.163  0.0725  0.3469  0.1607
81868W        W24884  28.722  16.055  14.490  0.0420 -0.0989  0.2632
81869W        W24885   8.435   1.749   5.829  0.0696 -0.1217  0.0502
81870W        W24886  13.219  22.623  15.838 -0.1015  0.1199  0.1258
81871W        W24887  11.447  19.191  26.022  0.1323  0.0405  0.0019
81872W        W24888  34.003  19.856  25.032  0.0084 -0.1862  0.0827
81873W        W24889   4.241  25.713   3.412  0.1112 -0.5289 -0.0694
81874W        W24890   3.807  10.724   1.015  0.0882 -0.0885  0.1340
81875W        W24891   8.772  25.490  27.762 -0.0311 -0.0745  0.2070
81876W        W24892  30.658  13.114   8.073  0.0831  0.0820  0.3240
81877W        W24893   0.383  10.931   6.505 -0.0858  0.0044 -0.1472
81878W        W24894  26.861   6.454   1.987  0.1192  0.1772 -0.1708
81879W        W24895  10.076  33.661   1.489  0.1011 -0.2725 -0.5876
81880W        W24896  32.918  29.497   3.981  0.0044  0.0833  0.1899
81881W        W24897  12.091  20.165   4.766  0.0223 -0.2559  0.2885
81882W        W24898   2.101  32.150  21.514 -0.1909 -0.0423  0.3153
81883W        W24899  20.063   7.142   9.109  0.1254 -0.1002 -0.0610
81884W        W24900  14.795  20.356  24.710  0.4405  0.4012 -0.2194
81885W        W24901  15.982  14.306  29.200  0.3738 -0.2394 -0.1438
81886W        W24902   1.319   2.670   5.374  0.1482 -0.2484  0.0560
81887W        W24903  30.588   5.918  28.100  0.0013 -0.1111 -0.1486
81888W        W24904   8.967  15.654   5.698 -0.1506  0.1738  0.1802
81889W        W24905  18.038   6.865  19.198 -0.2078  0.0906  0.0463
81890W        W24906   4.581  17.265  22.145 -0.5491  0.1118 -0.2239
81891W        W24907   4.449  16.604   4.222 -0.4234 -0.0775 -0.0575
81892W        W24908  13.337  10.594   0.829 -0.0110  0.1198 -0.0254
81893W        W24909  24.459  24.117   2.732  0.0814 -0.0864 -0.0566
81894W        W24910  19.263  17.522  29.065  0.0451  0.1764 -0.0207
81895W        W24911   5.902  12.413  18.608 -0.0337  0.0619 -0.2349
81896W        W24912  16.457  10.767   3.527 -0.3188  0.0107  0.1252
81897W        W24913   1.318  28.774  20.234 -0.2932  0.1071  0.0286
81898W        W24914  10.437  16.304   2.683  0.1104  0.2909  0.1912
81899W        W24915  12.875  12.504  21.253 -0.2287  0.1907 -0.0537
81900W        W24916  15.392  18.078  28.132 -0.1159  0.1187 -0.1217
81901W        W24917   4.635  27.136   2.003 -0.2095  0.2538  0.1358
81902W        W24918   9.533  28.930   4.077  0.0418 -0.0413 -0.0168
81903W        W24919  15.701  16.365  26.595 -0.2041 -0.0125 -0.0504
81904W        W24920  33.766  22.776   8.856 -0.0709 -0.0154 -0.0945
81905W        W24921  13.678  21.297   3.333  0.0913  0.2698  0.0034
81906W        W24922   0.453  25.634  17.024  0.2767  0.2005 -0.0428
81907W        W24923  29.218   5.104  16.039  0.1443 -0.0923 -0.1649
81908W        W24924  18.682   8.939  24.143 -0.1120 -0.1523  0.0916
81909W        W24925   7.150   8.102   8.177 -0.0583  0.0151 -0.4752
81910W        W24926  17.891   5.375  21.041  0.2442 -0.2980  0.3525
81911W        W24927  29.522  25.319  22.795  0.1870  0.2031  0.0310
81912W        W24928  11.537  21.214   6.256  0.0601 -0.1592 -0.0918
81913W        W24929   8.470  31.649   7.451  0.0703  0.2264  0.2634
81914W        W24930   2.284   9.032   3.589 -0.0778 -0.2404 -0.0568
81915W        W24931   7.393  20.095   4.777 -0.0760 -0.0452 -0.0892
81916W        W24932  21.702   2.169   6.217  0.2104 -0.0829 -0.1636
81917W        W24933  12.179  23.783   5.099 -0.1658 -0.2785  0.1672
81918W        W24934  32.070  20.072  23.931  0.1883 -0.0925  0.2629
81919W        W24935  33.718  13.438  21.500  0.0649  0.0964 -0.1597
81920W        W24936  25.733   9.458  26.265  0.1301 -0.2072 -0.0897
81921W        W24937  15.997  31.776   4.194  0.2626 -0.3644 -0.0726
81922W        W24938  24.579   7.454   8.744  0.1329  0.4649 -0.1196
81923W        W24939  16.501  28.007   7.305  0.1132  0.0121 -0.0131
81924W        W24940   3.299  17.117   5.060 -0.0563  0.0094 -0.0307
81925W        W24941  22.819  14.664   0.756 -0.3588  0.3188  0.3659
81926W        W24942  21.520  12.773   4.973 -0.0870 -0.2340  0.0822
81927W        W24943  18.095   5.732  17.680 -0.0646 -0.0442 -0.0482
81928W        W24944  12.993  30.001   9.496 -0.1520 -0.1193  0.3668
81929W        W24945   3.173  11.886   5.302  0.1222 -0.2134 -0.0367
81930W        W24946   4.147  21.683   3.578 -0.2566  0.1438  0.0734
81931W        W24947  31.522   7.760  24.680  0.1552 -0.1522  0.0044
81932W        W24948   2.488  11.148  22.745  0.0553 -0.2533  0.0432
81933W        W24949   7.742  12.739  25.652 -0.0997  0.0392 -0.0864
81934W        W24950  12.611  13.249   5.183 -0.0335 -0.1132 -0.2556
81935W        W24951   9.562  24.146   1.052  0.0575 -0.1533 -0.2293
81936W        W24952  22.690  11.791  26.755  0.1707  0.1328 -0.2879
81937W        W24953  25.671  11.722   9.115  0.1062 -0.2055 -0.1321
81938W        W24954   1.752   8.307   8.359 -0.0498 -0.2745 -0.1350
81939W        W24955   6.425  13.151   7.328 -0.1092  0.0136 -0.0134
81940W        W24956   1.020   0.696  28.507 -0.2618  0.0574 -0.3724
81941W        W24957  33.901  26.400  24.436 -0.4801  0.0607  0.0944
81942W        W24958   9.193  27.998   6.975 -0.2325  0.1302  0.3499
81943W        W24959   5.777  19.635   4.941  0.2634  0.0739  0.1351
81944W        W24960  14.804   0.706   7.476 -0.0289 -0.2673 -0.0571
81945W        W24961  18.866  22.620  19.756  0.0828  0.3948  0.0766
81946W        W24962  15.426  18.841  26.340  0.0461 -0.1391 -0.1142
81947W        W24963  27.613  30.566   1.404 -0.2451 -0.1897 -0.2002
81948W        W24964  16.052  22.483  14.289 -0.0604  0.0214  0.2618
81949W        W24965  12.621  15.298  27.953 -0.0212  0.2489 -0.1422
81950W        W24966   5.036  34.290   5.506  0.1389  0.2116 -0.0934
81951W        W24967  25.915  15.333   7.020 -0.0629  0.0833  0.2131
81952W        W24968  33.231  22.868   6.793  0.3706  0.1854 -0.0170
81953W        W24969   5.226  21.844  21.173  0.1451 -0.3517 -0.0570
81954W        W24970  11.324  16.370  26.131 -0.0582  0.2918 -0.1452
81955W        W24971  10.612   8.915   0.983 -0.1593 -0.1692  0.2023
81956W        W24972  23.101  24.229   1.075  0.1856 -0.3728 -0.1851
81957W        W24973  31.635  27.012   4.309 -0.2058 -0.1929 -0.1027
81958W        W24974  18.784  15.612  19.567  0.2263 -0.2430 -0.0374
81959W        W24975  16.930  33.500   9.406  0.0112  0.0425  0.0746
81960W        W24976  11.967  18.490  26.849  0.0549  0.0074  0.0479
81961W        W24977  16.024  14.769   0.824 -0.1855  0.2097  0.0382
81962W        W24978  16.838  11.216  28.084  0.3130 -0.0619 -0.1629
81963W        W24979  32.524  15.396   9.106 -0.2377 -0.0718  0.4164
81964W        W24980  13.754  29.200  26.790 -0.0268 -0.4565 -0.4210
81965W        W24981  16.040   2.273   9.553 -0.1043 -0.1835  0.2977
81966W        W24982   4.204  20.020  29.083 -0.1965  0.3652 -0.0876
81967W        W24983   7.201  13.967  22.501 -0.0687 -0.0609 -0.0658
81968W        W24984  16.848   6.609   2.997 -0.5138 -0.1535 -0.0345
81969W        W24985  17.744  18.044   5.104 -0.1550 -0.2696  0.1113
81970W        W24986  22.228  14.626   7.984 -0.0947 -0.0436 -0.2886
81971W        W24987  20.938  29.990   9.254 -0.0493 -0.2039 -0.1999
81972W        W24988   6.885   0.568   0.767 -0.0667  0.0609 -0.1229
81973W        W24989   4.013  33.426   2.145  0.1603  0.2396  0.0463
81974W        W24990  31.430   9.200   1.172  0.1594 -0.4412  0.3715
81975W        W24991   2.828   4.182   8.997 -0.1550 -0.2554 -0.5033
81976W        W24992   0.140  10.224  26.276 -0.1896  0.3421 -0.0820
81977W        W24993  13.924   3.217   7.105  0.2552 -0.2414 -0.0209
81978W        W24994   6.032  16.528  18.676 -0.1974  0.0615 -0.1559
81979W        W24995  26.013  10.624   7.241 -0.2792  0.0954 -0.3296
81980W        W24996   1.160  13.433   9.327  0.1674 -0.2905 -0.1107
81981W        W24997  17.792  19.912   3.553 -0.0054  0.0702  0.1619
81982W        W24998   3.661  10.251   8.087  0.1669 -0.0250 -0.3125
81983W        W24999   8.185   7.846   6.603 -0.0897  0.0572 -0.0937
81984W        W25000  18.066  24.005   6.867 -0.1245 -0.4150 -0.0560
81985W        W25001   3.454  25.588   9.968 -0.0465 -0.1984 -0.1080
81986W        W25002   1.892   8.228  25.756 -0.1284 -0.2955 -0.1435
81987W        W25003  21.711  18.820  26.187 -0.2508 -0.4991  0.2494
81988W        W25004   8.552  25.214  20.968 -0.2679 -0.3351  0.1469
81989W        W25005  21.967  21.125  26.248  0.3748  0.1452  0.2192
81990W        W25006  17.909   6.575   7.883  0.0770  0.2365  0.0544
81991W        W25007  14.361  29.317  10.560  0.3192  0.2146  0.0279
81992W        W25008   4.659  23.300   4.843 -0.0096  0.2594 -0.2279
81993W        W25009   9.998  21.237  24.906  0.1357  0.0840  0.0090
81994W        W25010  16.170   9.295   1.345  0.2286 -0.0378  0.0635
81995W        W25011  13.761  12.428  13.446 -0.0127  0.1718  0.1584
81996W        W25012   5.398   9.928   3.063  0.3075  0.0654 -0.1592
81997W        W25013  11.731  11.090   6.940 -0.0109 -0.1425  0.1643
81998W        W25014  12.540   3.949   5.240 -0.2096 -0.0764 -0.1803
81999W        W25015   9.736   9.744  24.756 -0.0736 -0.0415  0.0014
82000W        W25016  16.422  12.844  23.150 -0.3377  0.0382  0.1286
82001W        W25017  23.162  13.519   2.167  0.0643  0.1567 -0.1088
82002W        W25018   5.922   8.429   7.658 -0.4724 -0.1290 -0.1301
82003W        W25019  10.825  24.127   5.195 -0.1398  0.2023  0.2753
82004W        W25020   2.574  26.148   5.217  0.3387  0.3375  0.0620
82005W        W25021  27.231  21.912   5.112  0.3216 -0.0123 -0.0062
82006W        W25022  10.178  11.993   0.286  0.0876  0.0301 -0.1716
82007W        W25023  12.428  11.198   1.710  0.5562  0.1495 -0.1244
82008W        W25024  12.362   4.678   3.829  0.0220  0.1913  0.2005
82009W        W25025  15.315  16.636   7.880 -0.0825  0.2540 -0.0549
82010W        W25026   7.309  15.983   4.978  0.1060 -0.1200 -0.1386
82011W        W25027  12.410  21.528  19.182  0.1509  0.2480  0.0659
82012W        W25028  13.965  34.717   8.997  0.2588 -0.1359  0.0484
82013W        W25029   3.489  16.928  25.572  0.1491  0.0735 -0.2143
82014W        W25030  27.492  19.829   3.394  0.0471 -0.0641  0.4488
82015W        W25031  29.760  18.261  21.731 -0.0300  0.1294  0.2591
82016W        W25032  14.829  19.093   1.398  0.0389  0.3193 -0.0551
82017W        W25033   3.118  28.541   6.341  0.1043  0.0328  0.2471
82018W        W25034  17.186   8.731   7.928 -0.3217  0.3116  0.1898
82019W        W25035  13.896  17.556  27.618  0.2471 -0.0107 -0.0533
82020W        W25036   8.256   8.340   3.440 -0.0038  0.1913 -0.0515
82021W        W25037  22.149  10.070   7.969 -0.1782 -0.1484 -0.1762
82022W        W25038   8.544  12.281   3.174 -0.1664 -0.1519  0.2398
82023W        W25039  11.850  17.430  26.796 -0.0401  0.0071  0.0494
82024W        W25040  10.143  16.107   3.960 -0.0393 -0.2772 -0.1118
82025W        W25041  14.324   9.806   7.054  0.2135 -0.1470 -0.0483
82026W        W25042  14.216  17.923   7.850 -0.3463 -0.2737  0.1002
82027W        W25043  14.714  14.574   4.914  0.0176  0.1438  0.0243
82028W        W25044  10.204  11.987   3.325 -0.3495 -0.0983  0.1578
82029W        W25045  11.900   2.691  21.345  0.0688  0.2637  0.1724
82030W        W25046   5.946  23.030   7.868 -0.0493 -0.2206  0.1215
82031W        W25047   7.584  22.586   5.476 -0.1653  0.1072 -0.1376
82032W        W25048  15.232  21.135  28.428 -0.1999  0.0984 -0.1363
82033W        W25049  33.179  11.603   4.633  0.0018  0.0470 -0.0703
82034W        W25050  26.016  13.549   8.721  0.2131 -0.2144  0.1776
82035W        W25051  13.263  14.865   7.840  0.2365 -0.1588  0.0547
82036W        W25052   6.382  11.282  22.539 -0.2193 -0.0712  0.0126
82037W        W25053  12.729  14.094   5.347 -0.1545 -0.0510 -0.2972
82038W        W25054  26.261   6.601  27.413  0.1199  0.1133 -0.1473
82039W        W25055   8.459   4.583   8.507  0.0388  0.1122  0.0569
82040W        W25056  24.307  21.090  24.244 -0.3946  0.0903  0.0062
82041W        W25057  10.774   5.207  18.129 -0.1941 -0.0309  0.0301
82042W        W25058   9.258  19.539   7.713 -0.0073  0.1423  0.0612
82043W        W25059   6.495  15.999   0.607 -0.1200 -0.4153  0.2724
82044W        W25060   1.831  33.369   9.140 -0.1135 -0.1318  0.0948
82045W        W25061   7.213  11.111   7.003  0.0961 -0.1026  0.3008
82046W        W25062  11.033  16.676  20.527  0.0720 -0.2786 -0.3361
82047W        W25063  14.691  14.969  22.599  0.0792 -0.3118  0.1391
82048W        W25064  11.494  19.065   2.928 -0.3451 -0.1527 -0.0716
82049W        W25065   2.473   3.429   8.816 -0.0444  0.1952  0.2476
82050W        W25066  12.882  33.131   2.034 -0.0699  0.1403 -0.1892
82051W        W25067  20.173  19.914   6.834  0.0895 -0.2479 -0.3006
82052W        W25068  24.834  18.704  28.659 -0.1860 -0.1894 -0.1904
82053W        W25069  29.102  15.104   1.782  0.0900 -0.0545 -0.1571
82054W        W25070  31.850  29.822   5.506 -0.3640  0.0584 -0.1147
82055W        W25071   5.930   9.622   7.280  0.0762 -0.4105 -0.4383
82056W        W25072  33.825  20.256  27.308  0.0075 -0.2752 -0.3731
82057W        W25073   3.068   1.357   0.055 -0.0938  0.2370  0.0898
82058W        W25074  17.295  15.679   8.032 -0.0757  0.1129  0.0137
82059W        W25075   4.595   3.927   6.314 -0.1253 -0.1951  0.2146
82060W        W25076  30.393  16.204   5.134 -0.0105  0.1140  0.1290
82061W        W25077  24.809   6.605   6.824  0.4782  0.0188 -0.1806
82062W        W25078  18.730  21.758  24.489  0.0142 -0.2219  0.0273
82063W        W25079  22.838  25.263   9.654 -0.1277  0.0055 -0.0143
82064W        W25080  15.274  18.924   7.533 -0.0285  0.2323 -0.0399
82065W        W25081   4.185   9.148   2.120 -0.1068 -0.0409 -0.1127
82066W        W25082   0.410   9.111   7.835 -0.1791  0.1469 -0.1668
82067W        W25083  29.983   6.998   8.257 -0.2807  0.1683 -0.2606
82068W        W25084   7.908   2.860   7.195 -0.0772 -0.0729  0.2211
82069W        W25085  14.694  30.966   7.346  0.1201 -0.0146 -0.0002
82070W        W25086  17.476  33.300   9.996  0.0939  0.2202 -0.1292
82071W        W25087   6.798  25.390   5.910 -0.0521 -0.2987  0.1159
82072W        W25088   0.470   3.293  26.968  0.1265 -0.2244 -0.1307
82073W        W25089  10.663  12.170   1.930  0.1989 -0.2997 -0.0417
82074W        W25090   7.162  10.929  27.889  0.5286  0.3916  0.0536
82075W        W25091  12.960  10.582   3.666  0.2157 -0.2726 -0.0646
82076W        W25092  33.560  11.397   8.257 -0.0485  0.2994 -0.3754
82077W        W25093  11.532  13.554   4.878  0.1696 -0.1757 -0.1410
82078W        W25094  17.655  24.129   9.489 -0.1720  0.0766 -0.2433
82079W        W25095  15.265  15.982  29.220  0.0568  0.1569 -0.2272
82080W        W25096   3.479  34.491   9.482  0.2191 -0.0030 -0.1663
82081W        W25097  25.354  23.553   6.652 -0.3056 -0.0604 -0.3055
82082W        W25098  32.566   0.055  14.909 -0.0016  0.1867 -0.1276
82083W        W25099  17.236  25.887  22.080  0.3071 -0.4039 -0.1806
82084W        W25100  23.049  22.651   6.611  0.0684  0.0094 -0.0831
82085W        W25101   4.338  27.926   8.946  0.0468 -0.0507 -0.1141
82086W        W25102   4.710  24.245  24.225  0.1200  0.2091 -0.0426
82087W        W25103   7.263  30.800  27.896  0.2188  0.0962 -0.0352
82088W        W25104   5.612   3.300   3.382  0.0452 -0.4048  0.2076
82089W        W25105  34.261  10.567   9.552  0.4504 -0.3477  0.0560
82090W        W25106  32.857  26.970   7.678 -0.1356 -0.2684 -0.0115
82091W        W25107   7.168   7.426   9.720 -0.2700  0.0515 -0.0616
82092W        W25108  27.081  24.554   0.389  0.0301 -0.3272  0.3702
82093W        W25109  14.685  17.443   8.593  0.1931 -0.1081  0.1304
82094W        W25110   3.863   2.893   9.294  0.0039 -0.1561  0.0175
82095W        W25111   4.383  27.558   5.870 -0.2074  0.1266  0.0983
82096W        W25112   6.149   9.118   6.696 -0.1465 -0.2029 -0.2001
82097W        W25113   8.856  12.191  24.543 -0.0728 -0.0422  0.2945
82098W        W25114  10.115   4.102   2.522  0.2379  0.0182  0.1884
82099W        W25115  18.469  16.814   5.936  0.0787  0.2840  0.2610
82100W        W25116  14.114  11.996   1.164 -0.0348 -0.0304  0.0376
82101W        W25117  25.314  30.041  28.730 -0.1385 -0.1890 -0.1802
82102W        W25118  20.493  25.638   2.102 -0.1265  0.3483 -0.0758
82103W        W25119  15.697  15.075  28.967  0.0441  0.4253 -0.0396
82104W        W25120   0.965  13.686  10.052  0.0978 -0.1433 -0.0458
82105W        W25121  19.847  28.275  25.996 -0.1723  0.1626 -0.0725
82106W        W25122  24.616  16.532   0.156 -0.0406  0.4868  0.0380
82107W        W25123  13.247   1.498   4.048 -0.1428 -0.2541  0.1458
82108W        W25124   6.836   9.373   6.422  0.2176 -0.1457  0.1607
82109W        W25125  18.014  20.969   5.178  0.0813 -0.2293 -0.0426
82110W        W25126  10.891  23.468   6.550 -0.2500 -0.3111 -0.1132
82111W        W25127  30.534  19.882   7.878  0.1163 -0.2932 -0.1241
82112W        W25128   8.220   2.704   4.845  0.0744 -0.0508  0.2288
82113W        W25129  10.545  16.566  19.552 -0.0139 -0.1228 -0.5293
82114W        W25130   5.949  17.557   8.486 -0.1429 -0.1141 -0.1693
82115W        W25131   6.879  23.959   8.157 -0.2022  0.1747 -0.0122
82116W        W25132   8.014  19.527  23.844 -0.2365  0.0821 -0.0525
82117W        W25133   0.435  34.017   9.314 -0.3100 -0.1632 -0.0512
82118W        W25134  28.419   0.331   1.523  0.1634 -0.0674 -0.1639
82119W        W25135  32.683   4.596   6.394 -0.0522 -0.3006  0.0681
82120W        W25136   2.718  11.640  10.244  0.1175 -0.3552  0.0252
82121W        W25137  15.104  23.188   4.074  0.2052 -0.1164  0.0045
82122W        W25138   5.518  12.277   9.629  0.0833 -0.2891 -0.2078
82123W        W25139  12.730  15.172   0.549 -0.1905 -0.0138 -0.5770
82124W        W25140   8.925  31.988  15.223  0.1340  0.0840 -0.2524
82125W        W25141  20.653   5.204  27.272  0.0584 -0.2415 -0.1950
82126W        W25142  15.769  18.195   1.227  0.3314 -0.0754  0.2604
82127W        W25143  11.370   6.085   4.770  0.2223  0.2424  0.3701
82128W        W25144  18.534   8.140  19.900 -0.0957  0.0347 -0.0398
82129W        W25145  18.229  20.949   2.760 -0.0190  0.0186  0.0415
82130W        W25146  10.641   7.698  19.243 -0.0262  0.1643 -0.3291
82131W        W25147  13.373  34.467   6.437  0.0342 -0.0194  0.1003
82132W        W25148   3.295  21.839   8.087 -0.0839 -0.0304  0.0024
82133W        W25149  16.459   6.348   5.441 -0.0853  0.0649  0.1241
82134W        W25150  13.999  27.879  27.239 -0.0317  0.1484  0.2826
82135W        W25151  17.097  20.930   5.614  0.0833 -0.1991 -0.0083
82136W        W25152  32.533  15.578   8.637  0.2139 -0.3136 -0.1285
82137W        W25153   9.596  18.103  26.377 -0.1766  0.0247  0.2220
82138W        W25154   4.534   3.679   2.295  0.4647 -0.3365  0.0053
82139W        W25155  29.198  22.640   9.887  0.2622  0.0022 -0.2509
82140W        W25156  15.995   9.907   6.031 -0.3110  0.0546  0.3510
82141W        W25157   7.994   5.244   8.260 -0.1551  0.1241 -0.0381
82142W        W25158   9.382  19.320   1.442 -0.3666 -0.2335 -0.0300
82143W        W25159  31.016   4.119   7.854  0.0780 -0.0872 -0.2299
82144W        W25160  13.375  16.928  23.597 -0.0272 -0.3467 -0.1157
82145W        W25161  14.231  23.955  27.789 -0.2736  0.0942  0.2024
82146W        W25162  10.582  26.161   5.068  0.0492 -0.1376  0.0315
82147W        W25163  25.150   2.873   7.413 -0.3129  0.2637  0.0926
82148W        W25164   8.272   1.236  22.913  0.1166 -0.0675 -0.2330
82149W        W25165  11.009  32.114   8.372 -0.0946  0.1812 -0.0519
82150W        W25166  13.212   5.523   6.135 -0.0030 -0.0118  0.1910
82151W        W25167  24.916  17.837  28.254 -0.0589 -0.1253  0.0549
82152W        W25168   6.792  17.901  24.051 -0.1528 -0.2134  0.1373
82153W        W25169  29.324  27.756  23.031 -0.0156 -0.0450 -0.0210
82154W        W25170  33.613  28.782   2.320  0.3112 -0.0285 -0.0716
82155W        W25171   6.864  16.571   8.315  0.2271 -0.0714  0.1553
82156W        W25172   5.930  15.489   7.486 -0.1244 -0.0408 -0.1366
82157W        W25173  10.179   5.130   9.495  0.1079  0.1405  0.1066
82158W        W25174  16.771   0.554  25.074  0.1497  0.2634 -0.3076
82159W        W25175   4.176  27.383   6.350  0.2098  0.0652  0.1927
82160W        W25176  34.025   2.263   6.162  0.1508  0.0545  0.0434
82161W        W25177  10.298  20.805   8.610 -0.1553 -0.3129 -0.1900
82162W        W25178  14.325   8.919   8.011  0.3237 -0.1394  0.3475
82163W        W25179   9.322  25.243   8.821  0.0313  0.2723  0.1958
82164W        W25180  29.097  23.571  11.877  0.2565 -0.2576  0.0488
82165W        W25181  29.483   6.400  26.509 -0.1751 -0.0310 -0.0315
82166W        W25182   2.524  31.983   1.619  0.1792 -0.1094  0.2149
82167W        W25183  19.795   8.181   4.956 -0.2339 -0.2323  0.0232
82168W        W25184   8.854  13.964   1.087 -0.0546  0.4226 -0.1420
82169W        W25185  23.323  17.862   1.848  0.1818  0.0273  0.4114
82170W        W25186  13.130   7.284   5.341  0.1414  0.3526  0.1290
82171W        W25187  14.860  11.863  24.008 -0.1329  0.3262 -0.0131
82172W        W25188  15.130  12.059   5.927 -0.1822  0.0909  0.0109
82173W        W25189  10.988  34.767  23.322  0.0454 -0.1541 -0.2135
82174W        W25190   8.176  13.507  21.594 -0.1244  0.0884  0.0491
82175W        W25191   2.566  19.577   8.361  0.3890  0.1248 -0.3375
82176W        W25192   1.687  12.326   3.307  0.2791 -0.1370  0.0609
82177W        W25193  34.628  16.340  27.898  0.1373 -0.1759  0.2880
82178W        W25194  26.341  13.392   9.448 -0.1586  0.2017  0.0601
82179W        W25195  15.560  21.600   3.123 -0.0652  0.0240  0.1218
82180W        W25196  14.938   8.016   9.627 -0.0224 -0.1970 -0.0969
82181W        W25197  28.596  19.972  22.503  0.0466 -0.0226  0.2455
82182W        W25198   7.980  11.919   5.541  0.0196  0.0386 -0.0822
82183W        W25199  30.931   4.334  24.265  0.0214  0.0634 -0.1222
82184W        W25200  10.070   3.414  27.724 -0.0051  0.1532 -0.1304
82185W        W25201  34.536  20.485  24.007  0.1693 -0.0073 -0.1272
82186W        W25202   0.572  21.346  24.624  0.2250  0.0613  0.0012
82187W        W25203   7.897  14.629   5.284 -0.4585 -0.1622  0.0058
82188W        W25204  19.652  14.336   2.849  0.0062  0.0295  0.1147
82189W        W25205  13.035  11.546  17.524 -0.1319 -0.1799 -0.1107
82190W        W25206  13.457  21.103   8.425  0.0289  0.0723  0.0118
82191W        W25207   8.907  15.819  18.971 -0.1245  0.6049 -0.0907
82192W        W25208   2.833  14.549   2.995  0.0152  0.0778 -0.0926
82193W        W25209  26.281  18.969   6.001 -0.1124  0.0442 -0.0521
82194W        W25210  10.645  14.609   7.433 -0.0026 -0.0676 -0.1143
82195W        W25211  23.882  18.693   0.596 -0.0874 -0.1349  0.2250
82196W        W25212  12.940  15.185  18.107  0.0964 -0.0482 -0.1408
82197W        W25213   0.965  17.658   4.812 -0.0055 -0.1365  0.0331
82198W        W25214  17.684  12.439   0.809  0.0525 -0.2850 -0.2603
82199W        W25215   6.525  22.861   2.227  0.5436  0.1127  0.2407
82200W        W25216  19.268  14.954   4.839 -0.2832 -0.1244  0.0291
82201W        W25217  20.550   5.707   8.558 -0.1151  0.0808 -0.2503
82202W        W25218   6.218  13.549  19.360 -0.2748 -0.0654  0.1035
82203W        W25219  15.079   0.904   9.711  0.0689 -0.2237 -0.0825
82204W        W25220  34.259  20.652  28.492  0.1709 -0.1743  0.2582
82205W        W25221  21.407   1.047  28.697 -0.0547 -0.1298 -0.0126
82206W        W25222   0.473  28.857   6.677 -0.0705 -0.2758  0.2971
82207W        W25223   1.428  14.809   7.014  0.1096  0.0388 -0.2105
82208W        W25224  16.220  31.384   5.200 -0.0889  0.0310 -0.0310
82209W        W25225   8.918  15.184  24.539 -0.1746 -0.3691  0.0423
82210W        W25226  15.096  16.752   5.807 -0.0962 -0.0874 -0.2878
82211W        W25227  13.988  19.976   3.203 -0.0364 -0.0522 -0.2099
82212W        W25228  13.219  24.572   5.428 -0.0479 -0.1051 -0.2729
82213W        W25229  20.094   9.242   2.826 -0.1905  0.1462 -0.0396
82214W        W25230   0.966  27.547   4.432  0.3399  0.0613  0.2828
82215W        W25231   7.927   7.907   6.171  0.1153  0.0439 -0.3432
82216W        W25232  22.110   6.324   0.891 -0.1852 -0.2321 -0.0627
82217W        W25233  13.039  21.093  19.463 -0.0626 -0.3128  0.2601
82218W        W25234  24.144  11.319   2.355 -0.0728  0.1448  0.2322
82219W        W25235  16.368  20.574   1.909  0.1449 -0.1922  0.2142
82220W        W25236  29.037  15.734   8.065  0.2468 -0.0518 -0.0739
82221W        W25237  11.477  21.759   5.918  0.0208 -0.1995 -0.0374
82222W        W25238  32.808  20.866   2.994 -0.1667 -0.0044 -0.0504
82223W        W25239  14.156  20.411   5.931 -0.4990  0.3156 -0.1476
82224W        W25240  27.316   7.411   1.411  0.1422  0.1746  0.1110
82225W        W25241  14.594  22.130  22.821  0.1526 -0.2005  0.0670
82226W        W25242   4.940   6.567   8.790  0.1053  0.3271  0.0011
82227W        W25243  28.559  21.900  10.946  0.0439  0.0997  0.0245
82228W        W25244  11.397  27.200   3.749 -0.0083  0.1014  0.2162
82229W        W25245  15.820  14.411   8.079  0.3518 -0.0320 -0.2638
82230W        W25246  17.951  11.544   6.908 -0.0304 -0.2435 -0.1858
82231W        W25247  16.191   9.732   8.037  0.3582 -0.1508 -0.0158
82232W        W25248  32.921  16.767   6.653  0.0363  0.1460 -0.0012
82233W        W25249  16.762   0.659   2.889  0.4476 -0.1241 -0.1986
82234W        W25250  30.020  19.852   6.284  0.0932 -0.1209 -0.2384
82235W        W25251  13.796  21.188  16.523 -0.1632 -0.2114 -0.1465
82236W        W25252   7.095  30.125   4.613 -0.1559  0.1431  0.0049
82237W        W25253  14.317  34.099   3.048  0.1644 -0.0974 -0.0170
82238W        W25254  30.132   5.903  19.492  0.1498  0.1136  0.0316
82239W        W25255   1.799   8.753   8.170  0.4484 -0.2155  0.2853
82240W        W25256  28.193   5.837   6.956  0.1066  0.0922  0.4558
82241W        W25257  34.206  14.176   1.766 -0.0601  0.1892 -0.0178
82242W        W25258   3.056  24.813  25.633  0.3403  0.0592 -0.2376
82243W        W25259  16.554  24.086   4.463  0.2387 -0.3658  0.2385
82244W        W25260  29.655  23.229  27.929 -0.2971  0.0138  0.1977
82245W        W25261  14.746  29.560   3.580 -0.0785  0.0137 -0.0394
82246W        W25262   0.015  15.469  28.908 -0.2561 -0.0610 -0.0125
82247W        W25263   5.159  24.059   6.568 -0.0773 -0.0025  0.0737
82248W        W25264  22.815  23.090  23.260 -0.4897  0.1334  0.1124
82249W        W25265   7.294  23.538   2.135  0.0091  0.1795 -0.2439
82250W        W25266  15.783  21.759   0.518  0.0459  0.0020  0.2571
82251W        W25267  15.090  24.652   8.954 -0.0618  0.0998  0.0670
82252W        W25268   8.457  23.956   5.815  0.0398  0.0357  0.0241
82253W        W25269  14.102  26.151  20.670  0.1748 -0.1467  0.0966
82254W        W25270  15.663  22.967   7.504 -0.1004  0.2025  0.3224
82255W        W25271  19.068  20.003  29.201  0.3579 -0.0958 -0.0733
82256W        W25272  26.143  25.268  22.048  0.0770  0.0107  0.1227
82257W        W25273   0.427  29.882   0.152  0.0635 -0.3122  0.0618
82258W        W25274  21.503   6.928  27.740  0.1976 -0.2377 -0.0772
82259W        W25275  17.091  16.327  23.245 -0.2423  0.1536  0.0492
82260W        W25276  27.965  18.461   6.942 -0.0659  0.1281  0.3901
82261W        W25277   0.809  24.169  24.590 -0.0618 -0.0887  0.1009
82262W        W25278  11.688  26.224   6.942  0.2514  0.0518  0.0969
82263W        W25279  15.981  28.924  26.537 -0.0942  0.0627 -0.2746
82264W        W25280  14.719  19.297   4.399  0.1563  0.3570  0.2248
82265W        W25281  33.247  33.955  28.801 -0.0832  0.0065 -0.3347
82266W        W25282   6.256  16.725   5.468 -0.1301  0.0474  0.1203
82267W        W25283   3.028   1.190  27.155  0.0222  0.3525 -0.0685
82268W        W25284   8.563  24.204   1.096 -0.0336 -0.0086 -0.2350
82269W        W25285  29.345  24.694  10.567 -0.1476  0.1908 -0.2008
82270W        W25286  32.180  22.582  27.611  0.0036  0.0081  0.1889
82271W        W25287  11.430  11.374  20.730  0.3142  0.3840 -0.3266
82272W        W25288  26.093  25.255  20.066  0.3148  0.0692 -0.2256
82273W        W25289  29.972  26.886  20.650 -0.1953  0.4247 -0.2180
82274W        W25290   8.164  10.203   7.288 -0.0631  0.0415  0.1419
82275W        W25291  16.002  18.578  28.753 -0.1367 -0.1311 -0.0092
82276W        W25292  32.013  17.378   5.278 -0.1222  0.1615  0.4847
82277W        W25293  15.424  17.628   0.035  0.0471 -0.0044 -0.2083
82278W        W25294  20.505   1.646   9.687  0.1216 -0.0846  0.0263
82279W        W25295   1.238  13.842   9.698  0.1235 -0.1356  0.0290
82280W        W25296   3.971  11.584   2.742  0.0897 -0.3802 -0.2222
82281W        W25297  14.776  18.534  24.500  0.3934 -0.4777  0.2646
82282W        W25298  14.862  16.749   0.443 -0.1300  0.1599 -0.2651
82283W        W25299  21.516  21.774  20.479  0.5960  0.2105  0.4257
82284W        W25300   4.205  28.772   6.447  0.1014  0.5408 -0.2359
82285W        W25301   7.820   3.895  18.626 -0.0015 -0.0734 -0.2974
82286W        W25302  10.748  24.798   5.743  0.1864 -0.2199 -0.0296
82287W        W25303  12.296  15.241  25.024  0.1512 -0.0664 -0.1717
82288W        W25304  31.902  22.659   1.655 -0.1617 -0.1804  0.0752
82289W        W25305   8.039  26.814  15.978 -0.2892 -0.1283  0.1259
82290W        W25306  33.884  33.572   7.869  0.2228  0.0154 -0.1134
82291W        W25307  21.190  31.762  28.617 -0.1878 -0.1724  0.1004
82292W        W25308  32.928  10.142   1.746  0.1133 -0.0581 -0.0695
82293W        W25309  11.177  27.102   2.568  0.1207 -0.0567 -0.1648
82294W        W25310  32.851  26.091  17.462  0.2638  0.2929 -0.1685
82295W        W25311  10.821  24.852  20.887 -0.0429  0.1156 -0.0754
82296W        W25312  15.134  26.712  15.473  0.3338  0.0259 -0.0984
82297W        W25313   0.293   7.370   8.665  0.1076  0.1826  0.2474
82298W        W25314   1.892   0.590  27.268 -0.1566 -0.0116  0.1087
82299W        W25315  21.129  16.273  28.678  0.0720 -0.0192 -0.2620
82300W        W25316  13.041  28.032  26.483  0.1615  0.0580  0.1991
82301W        W25317   8.773  14.816  25.978  0.0533  0.0899  0.0134
82302W        W25318  10.182  14.169   1.886  0.0180  0.0765  0.0330
82303W        W25319  15.442  20.228   0.138 -0.0369 -0.0410 -0.0219
82304W        W25320  33.081  16.423  26.535  0.1097 -0.0492  0.0384
82305W        W25321  17.509   8.480   1.839  0.1146 -0.1481  0.2570
82306W        W25322  13.514  20.639   5.514 -0.2322 -0.0622 -0.0137
82307W        W25323  11.842   1.023   1.264  0.0551 -0.1212  0.1240
82308W        W25324  11.580   0.329   5.968  0.1433 -0.1334 -0.0319
82309W        W25325   2.627   9.951   4.160  0.1263  0.0936 -0.1349
82310W        W25326  21.162  33.763   1.613 -0.2993  0.1668  0.0690
82311W        W25327  12.680  23.238   2.686 -0.0450  0.0548 -0.0062
82312W        W25328   1.809  12.634   8.706  0.2446  0.1643 -0.0345
82313W        W25329   1.259  13.326   5.141  0.0326 -0.2390  0.0205
82314W        W25330  31.088  11.727  16.500 -0.1219  0.2678  0.1463
82315W        W25331   4.064   8.879  25.529  0.2392  0.2033 -0.0846
82316W        W25332   3.330  25.309  25.512 -0.3868  0.1694 -0.0372
82317W        W25333  34.503  19.454  27.786 -0.2089  0.1422 -0.0124
82318W        W25334   7.449  18.505  16.617  0.0327 -0.2763 -0.2732
82319W        W25335   7.359  30.064   5.902 -0.2218  0.3351 -0.0365
82320W        W25336   2.525  15.821  26.426  0.0352 -0.0813  0.0460
82321W        W25337  11.796  29.012  27.666  0.0801  0.0205 -0.0497
82322W        W25338  29.207  14.815   3.930 -0.1928  0.2067 -0.1270
82323W        W25339  29.142  20.531  24.402 -0.2616 -0.0098 -0.1170
82324W        W25340   9.609  23.551  16.112 -0.0007 -0.1130 -0.0788
82325W        W25341  12.559  28.377  26.712 -0.1950  0.1285 -0.1195
82326W        W25342   5.405  21.082  19.027 -0.3465  0.4237 -0.3036
82327W        W25343   0.358  21.503  28.614  0.0825  0.1837 -0.1625
82328W        W25344   2.555  11.071  28.296 -0.0953  0.0232 -0.0426
82329W        W25345  22.877  13.474  15.618  0.0963 -0.1763  0.5250
82330W        W25346  14.159  19.953  29.217 -0.0259  0.1932  0.2433
82331W        W25347   0.534  11.430   4.122  0.0273 -0.2869 -0.0775
82332W        W25348   6.653   7.803  28.145  0.0454  0.1942  0.4102
82333W        W25349   1.511  32.817   3.337  0.3222  0.0737  0.0603
82334W        W25350  14.642  30.026   5.209  0.0435 -0.3399  0.1215
82335W        W25351  13.848  23.955   8.638  0.1393 -0.1590  0.4813
82336W        W25352  13.088  18.354   0.517  0.6361  0.2660  0.3538
82337W        W25353  11.101   5.455  17.663 -0.2069  0.0601  0.0002
82338W        W25354   4.797   0.173   5.168  0.3649 -0.4878 -0.1723
82339W        W25355  17.987  26.818   5.019  0.0676 -0.4978 -0.1249
82340W        W25356  17.927  17.908   7.098 -0.0024  0.2935 -0.1157
82341W        W25357  17.947  29.454  26.391  0.0827 -0.2830 -0.0349
82342W        W25358  31.014  17.924  21.674  0.2004  0.1430  0.2488
82343W        W25359  18.154  14.981  24.462 -0.1249 -0.2603 -0.2911
82344W        W25360  25.808  19.489  15.720 -0.3995 -0.1677  0.0551
82345W        W25361  28.421   1.494   9.009 -0.0935 -0.0643  0.1624
82346W        W25362   8.790  10.417   5.004 -0.0860  0.0654 -0.2763
82347W        W25363  16.204  25.560   3.275 -0.0695 -0.1077  0.4869
82348W        W25364  18.518   9.926   1.947  0.1410 -0.2243  0.0861
82349W        W25365  17.312  18.153  27.697  0.3355 -0.0193  0.1901
82350W        W25366  16.258   0.150  29.081 -0.0233 -0.1868  0.2705
82351W        W25367   0.355  12.852   9.003  0.0423  0.0122  0.0591
82352W        W25368   7.952  17.216  24.549 -0.1137 -0.0576  0.0614
82353W        W25369   8.434  28.850  27.762 -0.0363  0.1736 -0.0779
82354W        W25370  16.070  24.453   5.605  0.0860 -0.0705 -0.0980
82355W        W25371   3.659  25.321  28.063  0.0781  0.0583 -0.0315
82356W        W25372  16.629  15.607  27.402  0.0399 -0.0740 -0.1458
82357W        W25373  14.690  34.411   6.022  0.2610 -0.1873  0.1870
82358W        W25374   1.492  19.011  28.500 -0.2770  0.1155  0.3985
82359W        W25375  27.651  10.443  10.903  0.3619 -0.1089 -0.1000
82360W        W25376   4.623   5.408   4.290 -0.0332 -0.1812  0.2119
82361W        W25377   1.872  21.413  26.709 -0.1490 -0.0197 -0.2033
82362W        W25378  14.899  29.062   5.397 -0.2332  0.0715 -0.0353
82363W        W25379   6.141   7.115   7.612 -0.2476 -0.1736 -0.1608
82364W        W25380   4.687  29.559   6.664 -0.0593  0.0604  0.3657
82365W        W25381   5.315  11.057   3.610 -0.0405  0.1006  0.1503
82366W        W25382  13.596   4.092  25.980 -0.0618 -0.0083  0.1084
82367W        W25383  22.722  25.684  25.419 -0.2571  0.0240  0.0342
82368W        W25384   0.874  14.254   7.782  0.2284  0.1047 -0.0564
82369W        W25385  13.021  30.683   5.695  0.2405 -0.0211 -0.0385
82370W        W25386   6.421   6.479  16.557  0.3094  0.1161 -0.3538
82371W        W25387  20.487  25.211  16.073 -0.0340 -0.0706 -0.3649
82372W        W25388   6.690  26.097  14.999 -0.1253  0.1324 -0.1469
82373W        W25389   5.420  26.267  17.669  0.0944  0.0182 -0.1685
82374W        W25390  21.342  15.639   5.570  0.1979 -0.5918  0.1060
82375W        W25391   5.573  32.052   4.375  0.3559  0.0905  0.0586
82376W        W25392  17.757  16.961   1.165  0.0647  0.1646  0.0732
82377W        W25393  33.458  20.465  10.708 -0.3482 -0.0868 -0.2571
82378W        W25394   8.763  19.692  24.894 -0.1347 -0.2663 -0.1169
82379W        W25395  15.532  33.854   4.646  0.0519  0.0990 -0.1542
82380W        W25396  18.521  13.967  20.321 -0.2310  0.0548 -0.3439
82381W        W25397   4.501  18.344   5.515 -0.0557  0.1745 -0.0374
82382W        W25398  20.708  33.507  27.651 -0.0086 -0.2039  0.1532
82383W        W25399  22.245  24.055  28.029  0.0214  0.1320 -0.1847
82384W        W25400  20.005  32.589   7.706  0.2018  0.1239  0.2256
82385W        W25401  15.875  26.004  15.894 -0.0605  0.0554 -0.5121
82386W        W25402  14.978  13.006  19.586  0.1102  0.0159  0.1322
82387W        W25403  33.828  10.735   4.736  0.0677 -0.0423 -0.2841
82388W        W25404  11.954  16.049  16.384 -0.1483  0.0090  0.1401
82389W        W25405  19.422  21.726  22.801  0.0089 -0.0813 -0.0784
82390W        W25406   8.014  25.215   7.293 -0.0611  0.2445  0.3098
82391W        W25407  10.152  19.965  29.016  0.0405  0.1813 -0.0085
82392W        W25408  34.415   6.039   1.191 -0.0487 -0.0067 -0.0120
82393W        W25409  15.027   5.602   2.617  0.2220 -0.1865 -0.1912
82394W        W25410   8.571  23.867   8.029  0.0058 -0.3230  0.2885
82395W        W25411  14.952  21.037  13.629 -0.1347  0.0853  0.1770
82396W        W25412  15.660  33.320  10.294  0.1763  0.0665 -0.0293
82397W        W25413   0.233  11.936  27.962  0.0191  0.1034  0.0139
82398W        W25414  33.673  17.041   5.370  0.2107 -0.4125  0.3534
82399W        W25415  20.613  28.027  26.638 -0.1960 -0.0226 -0.3167
82400W        W25416   3.809  12.020  27.355  0.1172 -0.1911 -0.2944
82401W        W25417  21.050  22.973  18.705 -0.0505  0.3360  0.0316
82402W        W25418  18.309  24.409   4.730 -0.1724  0.0222 -0.2617
82403W        W25419  34.049  25.813   8.916  0.2890  0.0370 -0.1679
82404W        W25420   6.484   9.090   2.677  0.0669 -0.2090 -0.0820
82405W        W25421  20.766  31.588   5.531  0.2991 -0.0087 -0.2802
82406W        W25422  31.758  11.792   4.134  0.2883  0.2513 -0.0630
82407W        W25423   1.566   5.578  26.473  0.2013 -0.0926 -0.0929
82408W        W25424  14.302  24.459  24.129 -0.1836 -0.0148 -0.4721
82409W        W25425  12.375  32.926  25.905 -0.2669  0.3898  0.0009
82410W        W25426   4.870  28.011   4.370 -0.3033  0.0415 -0.1047
82411W        W25427  11.025   8.074   2.914  0.2617  0.1472 -0.0986
82412W        W25428  34.718   9.765  10.587  0.2073  0.2506 -0.2912
82413W        W25429   2.796  17.752  22.768 -0.1280  0.0592 -0.1208
82414W        W25430   6.788  29.781   9.262 -0.1285  0.1658 -0.0057
82415W        W25431  26.028   2.495   3.377 -0.0325 -0.0078  0.0054
82416W        W25432   5.231  18.622   1.166  0.2548  0.3139  0.0407
82417W        W25433  15.568  19.541   6.226  0.0851  0.0100  0.3104
82418W        W25434  17.302  31.384   4.877  0.1309 -0.1152 -0.2397
82419W        W25435  29.305  29.833  16.286  0.2660 -0.3234  0.0091
82420W        W25436  14.177  34.112  22.560  0.1277  0.0491  0.3534
82421W        W25437  24.587  13.823   7.984  0.2694  0.1067 -0.3198
82422W        W25438   6.220  17.938  18.016  0.2132  0.0013  0.0516
82423W        W25439  10.853  16.800  19.210 -0.1292  0.0088  0.0881
82424W        W25440  19.959  25.664  24.903  0.1966  0.0025 -0.0739
82425W        W25441  12.817  17.833   5.578 -0.1469 -0.0017  0.0570
82426W        W25442  15.737  17.929  18.986  0.0991 -0.3148 -0.0644
82427W        W25443  10.565  26.683  24.457  0.4210 -0.1158  0.0567
82428W        W25444   2.894  13.456   5.534 -0.0772 -0.3142  0.0515
82429W        W25445  22.970   3.881   4.188  0.2603  0.3482 -0.3969
82430W        W25446   9.968  15.389   4.375 -0.0832 -0.0604  0.1059
82431W        W25447   6.450  17.393  26.742 -0.0134  0.0348 -0.1463
82432W        W25448  10.501  12.514  26.372  0.0420  0.0250  0.1545
82433W        W25449   7.050  17.313  14.040  0.0839 -0.2722  0.2723
82434W        W25450  12.546  19.206  20.640 -0.0007  0.0494  0.3917
82435W        W25451   2.562  19.238  13.671  0.0259  0.3536  0.0621
82436W        W25452  29.455  12.959  29.178 -0.1469 -0.1243 -0.1450
82437W        W25453  30.489  16.065   5.967  0.0005 -0.0042  0.2624
82438W        W25454  19.511  12.408   6.815 -0.0043  0.2311  0.1081
82439W        W25455  10.061   1.845  27.696  0.1633  0.1348 -0.0907
82440W        W25456   0.066  23.547   7.297  0.1290  0.0726 -0.0171
82441W        W25457   4.462  24.312  29.187  0.0125  0.2198 -0.0831
82442W        W25458   6.610   8.452  17.899  0.0434 -0.0575  0.0964
82443W        W25459  10.672  13.445   1.713 -0.0689  0.1387 -0.0099
82444W        W25460   7.099  23.670  17.696 -0.0821  0.1165  0.0813
82445W        W25461   1.653  27.718  16.163  0.0592 -0.0172 -0.1186
82446W        W25462   1.978  31.809   1.732 -0.1720 -0.1158  0.0114
82447W        W25463   9.646  29.357   8.876 -0.0502  0.0723 -0.0397
82448W        W25464  29.916  32.473   1.859  0.2102 -0.1043 -0.1118
82449W        W25465  24.866  20.085  20.386  0.0861  0.0170 -0.2314
82450W        W25466  18.420   9.762  28.249 -0.1326  0.1250  0.0315
82451W        W25467  17.541  17.284   3.365 -0.3919  0.3832 -0.1998
82452W        W25468   8.811  17.677  24.275 -0.1798  0.2353  0.3989
82453W        W25469   3.210   0.147   1.845  0.1590 -0.1106 -0.0516
82454W        W25470  11.502  11.888   9.169  0.1646  0.0506 -0.4126
82455W        W25471   4.455  17.950  22.313 -0.0818  0.0902 -0.2036
82456W        W25472   7.864  31.595  19.826  0.2116  0.1056 -0.0814
82457W        W25473  33.973   7.028   6.202  0.1025 -0.1595  0.0956
82458W        W25474  11.116  18.861  25.841 -0.2155 -0.1461 -0.1379
82459W        W25475  16.715  31.664  17.253  0.2163 -0.0477  0.1606
82460W        W25476  25.436   1.749   3.017  0.1437  0.0950 -0.0996
82461W        W25477  17.294  25.183  20.822  0.3208 -0.3230 -0.5555
82462W        W25478   9.968   0.707  25.193 -0.1214 -0.2649 -0.1314
82463W        W25479  22.363  21.618   1.216 -0.1506  0.0300 -0.4667
82464W        W25480   4.710  11.364   5.320 -0.5203 -0.2045  0.1479
82465W        W25481  33.176  18.045   6.304 -0.2295  0.1124 -0.1059
82466W        W25482   7.149  13.171  27.641 -0.0889  0.1929  0.2222
82467W        W25483  13.201   9.098   4.955  0.2333 -0.1520 -0.3684
82468W        W25484  27.624  31.060  11.280 -0.2669  0.2825  0.1240
82469W        W25485  22.107   6.228  28.779  0.0721 -0.1099 -0.0989
82470W        W25486   9.038   4.218  15.406 -0.1188  0.0670 -0.2268
82471W        W25487  10.096  11.569  26.444 -0.0067 -0.0196 -0.0794
82472W        W25488  15.380   8.510   4.593  0.0185  0.1973  0.1198
82473W        W25489  17.913   4.636   8.095 -0.1983 -0.0786 -0.2805
82474W        W25490  14.261   8.355  20.551 -0.0551  0.0089  0.0218
82475W        W25491   7.321  34.467  24.835  0.0341  0.1475 -0.0909
82476W        W25492  34.533   5.779   8.532 -0.1738  0.1492  0.0864
82477W        W25493  34.053  14.057   9.752 -0.1780  0.1928 -0.2424
82478W        W25494  17.347  11.721  29.205 -0.1999 -0.1893 -0.2034
82479W        W25495  10.015  13.084  21.912  0.2349  0.1430  0.3258
82480W        W25496   4.186  24.884   7.699  0.3648 -0.2488 -0.0670
82481W        W25497  12.380   0.082  10.505  0.0959  0.0332 -0.0135
82482W        W25498   1.496  30.214   6.639  0.0270 -0.0820  0.1797
82483W        W25499   1.899  27.091   1.260  0.0624 -0.2113  0.1778
82484W        W25500   4.766  12.034  10.068  0.0964  0.0997 -0.0405
82485W        W25501  25.723   6.020   8.184 -0.0073  0.0229 -0.1993
82486W        W25502   1.918  15.434  25.222 -0.1273 -0.1740  0.1387
82487W        W25503   9.935   5.857  24.302 -0.0833 -0.0622 -0.1197
82488W        W25504  10.385  21.843  28.406 -0.1457  0.0305 -0.0064
82489W        W25505   9.701   6.384  15.740  0.1625 -0.1118  0.0287
82490W        W25506  11.343   2.640  28.136  0.1256  0.0726 -0.0750
82491W        W25507   8.707  26.358   2.976  0.1337  0.1018 -0.2292
82492W        W25508  31.208  25.613  21.804  0.1076  0.0223  0.1855
82493W        W25509  12.690  24.991  15.792 -0.1605 -0.3028 -0.1213
82494W        W25510  10.614  34.163   2.823  0.2875 -0.1478  0.1328
82495W        W25511  33.747  24.588  10.897 -0.0507  0.0884  0.1787
82496W        W25512  34.579  25.030  10.843  0.0075 -0.1907 -0.0074
82497W        W25513  10.088  13.536   5.491  0.1528 -0.3515 -0.1894
82498W        W25514  18.046  22.087   4.910  0.2746  0.0573 -0.4504
82499W        W25515  23.274  10.683   5.041 -0.0820  0.0909  0.0467
82500W        W25516  34.408  17.283  10.022  0.0351 -0.1819 -0.0678
82501W        W25517   6.784  17.778   6.538  0.3937  0.2923  0.0780
82502W        W25518   2.949   6.309   9.423 -0.0224  0.2369 -0.0514
82503W        W25519  14.572  10.851   2.516 -0.2040 -0.3756 -0.1205
82504W        W25520  28.120   3.463  17.696  0.0451  0.2133 -0.2720
82505W        W25521   4.640  12.742  26.219 -0.0385  0.1523 -0.0645
82506W        W25522  26.281  23.782   6.779 -0.2158 -0.0499 -0.0479
82507W        W25523   6.685  13.979   6.246  0.1722  0.1367 -0.1705
82508W        W25524   5.141  22.696   4.242  0.1450 -0.1684 -0.0159
82509W        W25525  11.141   2.267   3.005 -0.0807 -0.0326  0.1484
82510W        W25526  16.028  14.028  20.716 -0.1515 -0.0294 -0.0457
82511W        W25527   9.430  26.231  15.833 -0.0456  0.0073 -0.4103
82512W        W25528  20.532  18.007   7.923  0.1385 -0.3017 -0.1779
82513W        W25529  32.553  11.504   4.612 -0.1101  0.2347 -0.1252
82514W        W25530  12.271   3.413   8.012 -0.1557 -0.2646 -0.0224
82515W        W25531  28.740  21.949   5.327  0.1590  0.0835  0.0482
82516W        W25532  14.805  20.544  15.163  0.0356 -0.4186  0.2761
82517W        W25533  16.820  10.361   9.725 -0.0455  0.2580 -0.2844
82518W        W25534  15.920  11.825   8.401 -0.3542  0.0774 -0.1008
82519W        W25535   3.567  16.406  28.020 -0.0663 -0.1284 -0.0664
82520W        W25536   9.291   7.860  22.846  0.0264 -0.1444  0.2085
82521W        W25537   6.290  21.907   6.748 -0.1400 -0.1253  0.1025
82522W        W25538   0.977  19.601  14.890 -0.0694 -0.0898  0.1341
82523W        W25539  29.424  19.323   4.984  0.0656 -0.0925  0.3109
82524W        W25540   8.631   4.954  28.106  0.2711  0.0787  0.0690
82525W        W25541  15.249  21.568   7.873 -0.2046  0.1501  0.0292
82526W        W25542   7.941  33.736  15.098  0.1308  0.0233  0.1302
82527W        W25543  15.854  29.236   5.833 -0.1585 -0.1462 -0.0206
82528W        W25544  26.039  29.388  10.448 -0.0638  0.2106 -0.1183
82529W        W25545  15.054  23.892  24.471 -0.0556  0.1679  0.0375
82530W        W25546  13.600  34.247   9.669  0.3791  0.1793  0.0623
82531W        W25547   5.150   5.199   9.878  0.0944 -0.1750 -0.3404
82532W        W25548   5.391  18.155  24.048 -0.1833  0.0665  0.3016
82533W        W25549   4.499  22.086   6.283  0.0162  0.0896  0.2061
82534W        W25550   7.624  24.605   5.791  0.1733 -0.0490  0.1648
82535W        W25551   0.510  25.207   6.983 -0.0274 -0.3486  0.1618
82536W        W25552  22.816  16.197  19.182 -0.1253  0.3445  0.2807
82537W        W25553  16.212  22.846   0.363  0.1257 -0.2187  0.2073
82538W        W25554  33.861  21.422  27.163  0.1494  0.1731  0.0366
82539W        W25555  22.140  21.723  19.726  0.1433  0.1571  0.1331
82540W        W25556  24.357   4.388  22.706 -0.0187 -0.2160  0.2926
82541W        W25557  31.854  22.354  24.937  0.2151  0.0657  0.1168
82542W        W25558  27.219   9.000  19.540  0.0007 -0.0171 -0.1018
82543W        W25559  30.427   8.650  19.012  0.0958  0.1233  0.0650
82544W        W25560   6.281  14.189  29.193  0.0792  0.2602 -0.2882
82545W        W25561   2.177  26.519   2.393  0.1792  0.0571  0.0976
82546W        W25562  10.107   8.931   1.212  0.1646  0.1078 -0.1514
82547W        W25563  30.964  31.385  20.710 -0.1799  0.0755  0.2568
82548W        W25564  25.277  13.721   1.058  0.3863 -0.0774 -0.0278
82549W        W25565  20.676  19.937  26.447 -0.1720  0.1023 -0.1193
82550W        W25566   8.645  12.400   5.792 -0.0151 -0.1227 -0.0801
82551W        W25567   4.443  13.662  28.493  0.4218  0.1056 -0.1354
82552W        W25568  21.362  16.143  25.440  0.1397  0.0416  0.1460
82553W        W25569  25.182  13.891  15.245  0.1886 -0.1054  0.1447
82554W        W25570  18.004  13.376   7.278 -0.2569 -0.1175  0.0477
82555W        W25571  13.588  16.403   8.246 -0.2690 -0.1257  0.1976
82556W        W25572  32.150  10.915   3.002 -0.1073  0.4600  0.0281
82557W        W25573  13.218  27.727  25.729 -0.1768 -0.1434  0.0654
82558W        W25574  11.212  21.610  18.933 -0.0251  0.1542  0.2394
82559W        W25575   2.880  19.493   9.516  0.1195 -0.0059 -0.1978
82560W        W25576  27.954  22.470   0.526 -0.0675 -0.1897 -0.0078
82561W        W25577   2.754  16.376  27.669  0.4084  0.0997 -0.2883
82562W        W25578   7.205  19.782   1.110 -0.1910 -0.1078  0.5798
82563W        W25579   9.614  33.027  27.258  0.0587  0.1226 -0.2450
82564W        W25580  10.301  13.862   9.225 -0.0681  0.1477  0.1219
82565W        W25581  18.808  12.550  23.819 -0.3804 -0.2542  0.0010
82566W        W25582  33.672   8.474   0.084 -0.0437 -0.1826 -0.0500
82567W        W25583  24.531  12.600   8.511  0.1780  0.1743  0.1152
82568W        W25584   5.101   6.983   9.843  0.3392 -0.1902 -0.2631
82569W        W25585  11.093  18.901   2.753  0.2939  0.1477  0.0666
82570W        W25586   8.619  23.999  17.167 -0.0051  0.0357  0.0098
82571W        W25587  32.609  14.726  29.121  0.0892 -0.1798  0.0501
82572W        W25588  19.761  22.543   7.952  0.2586 -0.0673 -0.0778
82573W        W25589   7.400  18.618   0.015 -0.0881 -0.0624  0.1355
82574W        W25590  14.323  12.183   6.338 -0.3691  0.1184 -0.0012
82575W        W25591  21.744  21.916  22.281  0.0164 -0.0401  0.1583
82576W        W25592   0.348  21.926   9.895 -0.0340  0.0601 -0.0625
82577W        W25593  16.223   8.244  27.403  0.1175  0.2326 -0.0731
82578W        W25594  11.522  14.628  24.320  0.0890  0.0189 -0.0171
82579W        W25595   8.705  28.692  21.491 -0.2962 -0.5459 -0.1402
82580W        W25596  16.039  27.447  25.530  0.4541 -0.0348  0.2259
82581W        W25597  12.402  22.802   8.892 -0.1378  0.2810 -0.1156
82582W        W25598   5.534  26.006  21.093  0.2599  0.0839  0.1958
82583W        W25599  23.920  22.068  25.998 -0.1021  0.0850  0.0516
82584W        W25600   8.861  17.586   4.075 -0.1363  0.0785  0.0290
82585W        W25601  26.147  14.204  28.919  0.0846  0.2040  0.0241
82586W        W25602  13.699  15.607   5.113 -0.0416  0.1593 -0.0525
82587W        W25603   9.247  17.964  14.774  0.1784  0.1326  0.1431
82588W        W25604   0.352  23.407  25.390 -0.2083 -0.0953 -0.1077
82589W        W25605   5.680  31.196  27.689 -0.4571  0.3634  0.2880
82590W        W25606   0.536  18.938  28.915  0.0850 -0.1635  0.0767
82591W        W25607  30.310  22.163  25.038  0.1002  0.2676  0.0581
82592W        W25608   9.290  28.396   0.276  0.2940 -0.3094 -0.0918
82593W        W25609   7.212  10.546  15.458  0.0705 -0.3165 -0.0251
82594W        W25610   3.212  31.487  10.058  0.1011  0.0261  0.1968
82595W        W25611  13.689   8.973   7.247  0.1540  0.0631 -0.1900
82596W        W25612  32.689  14.706   3.250 -0.2322  0.3671  0.2591
82597W        W25613  18.947  22.863   0.531 -0.0092  0.0613  0.1304
82598W        W25614   3.860  31.031  28.052  0.2648 -0.2558  0.3187
82599W        W25615  13.465  18.505   3.095 -0.1334 -0.3481 -0.0991
82600W        W25616   5.596  24.862  27.085  0.4286 -0.0035 -0.2114
82601W        W25617  18.402  17.657   0.036 -0.2251 -0.1538 -0.2947
82602W        W25618  31.111  12.634  21.561  0.2742  0.0388 -0.0217
82603W        W25619   4.120  18.305  23.742  0.1550 -0.0158  0.0096
82604W        W25620  16.001  19.233  22.533  0.2451 -0.0225 -0.0493
82605W        W25621  20.240  31.393  28.852 -0.0294  0.0841  0.2388
82606W        W25622   9.125  20.885   4.433  0.2242  0.1020 -0.0187
82607W        W25623  14.303  20.302  26.382  0.1033 -0.1433  0.3921
82608W        W25624  21.182  19.011  13.156 -0.0604 -0.3207 -0.0411
82609W        W25625  11.451  11.780  21.719  0.1716  0.1646 -0.1270
82610W        W25626  30.564  11.878   9.105 -0.0413 -0.0143  0.0561
82611W        W25627  18.818  10.123  16.830  0.0004  0.2911 -0.2581
82612W        W25628   3.749  21.507   1.458  0.0613 -0.1857 -0.3707
82613W        W25629   4.517   9.278   9.881 -0.1810 -0.0612  0.3821
82614W        W25630  12.877  16.099   2.563 -0.2320  0.1057 -0.0672
82615W        W25631  13.382  18.508  26.968 -0.0703 -0.2151  0.0761
82616W        W25632   6.011  30.337  23.035 -0.0238 -0.1808 -0.0453
82617W        W25633  20.594  11.966  12.956 -0.0407  0.1163 -0.3283
82618W        W25634   6.707  21.180   1.073 -0.1294  0.2832  0.1684
82619W        W25635   9.013  18.058   4.205  0.2148 -0.2720  0.0514
82620W        W25636  24.886  26.287   6.164 -0.0138 -0.1273 -0.1272
82621W        W25637   7.786  11.698   0.913  0.1845 -0.2108  0.2359
82622W        W25638   6.978  33.089   1.645  0.1800 -0.1238 -0.1518
82623W        W25639  11.542  17.056   0.789 -0.2789  0.2272 -0.0352
82624W        W25640   1.117  25.147  25.872  0.1764 -0.1293  0.0119
82625W        W25641   6.149   4.149  19.916  0.1906  0.0461 -0.0279
82626W        W25642   6.989  15.787  25.507  0.2312 -0.1491 -0.2334
82627W        W25643  12.475  18.042   1.992  0.0919 -0.0645 -0.2045
82628W        W25644  18.167  23.067  23.002 -0.2392  0.3730  0.2769
82629W        W25645   4.225  11.203  25.778 -0.0608  0.2109  0.1862
82630W        W25646  19.422   5.692  27.094  0.1078  0.3015 -0.1687
82631W        W25647  11.071  20.800   6.937  0.0674  0.2971 -0.0010
82632W        W25648   3.195  12.365  28.285 -0.2327  0.0614 -0.0017
82633W        W25649  30.427  25.367  25.732  0.0008 -0.0169 -0.1984
82634W        W25650  29.400  19.935  25.261 -0.1847 -0.0709  0.0939
82635W        W25651   6.746  32.980   0.951 -0.0590 -0.1648 -0.3091
82636W        W25652   9.555  13.170   1.360  0.2371 -0.0175  0.0934
82637W        W25653  11.774  18.048   0.846 -0.1827  0.1667 -0.0958
82638W        W25654   5.553  18.892  28.971 -0.1781 -0.3560  0.1033
82639W        W25655   7.398  18.875  24.631  0.0674  0.3002  0.2415
82640W        W25656   6.035  26.389  27.219 -0.0578  0.0493  0.1716
82641W        W25657  27.547  11.095  28.969 -0.0646  0.0440  0.1064
82642W        W25658   4.031  27.289   5.545  0.1335  0.3023  0.0462
82643W        W25659  23.494  31.901  17.323  0.1387 -0.0027 -0.0481
82644W        W25660  28.042  32.075   5.779 -0.0250  0.3857 -0.0645
82645W        W25661  25.545  17.236   7.027  0.0769  0.0817 -0.0523
82646W        W25662  13.545  29.345   4.849 -0.0565  0.1313  0.0832
82647W        W25663  11.785  22.852   7.951 -0.1672 -0.1604 -0.3019
82648W        W25664   8.834  20.557   4.032  0.2125  0.0949  0.1818
82649W        W25665   6.024  20.070  15.561 -0.0875 -0.1271 -0.0564
82650W        W25666  30.927  12.157   6.224 -0.0750  0.1308 -0.3241
82651W        W25667   6.538  20.778   9.133  0.3024 -0.1585 -0.4268
82652W        W25668   9.624   1.313   3.110 -0.0722  0.0039 -0.0750
82653W        W25669  18.632   9.241  26.161 -0.2713  0.1953  0.2051
82654W        W25670   9.651  14.764   3.041  0.3463 -0.0385 -0.0429
82655W        W25671  14.944  11.605   1.255  0.1304  0.0137  0.1012
82656W        W25672  26.605   6.835   5.498  0.0897  0.1347 -0.0005
82657W        W25673  32.378  33.530  14.963 -0.1164 -0.2207 -0.2598
82658W        W25674  31.693  23.394  23.747 -0.0052 -0.0398  0.1424
82659W        W25675  33.833  23.094  20.562 -0.0331 -0.1275 -0.0824
82660W        W25676  17.953  18.926   2.006  0.1800 -0.3285 -0.0210
82661W        W25677  30.187  16.308   5.569  0.0773  0.2191  0.2510
82662W        W25678  32.027  27.290  26.155  0.1438 -0.1789 -0.2917
82663W        W25679  27.570  20.182  29.277  0.0132 -0.1383  0.2035
82664W        W25680  22.628   8.689   1.933  0.2150  0.0751 -0.0127
82665W        W25681   2.481  24.662  10.044  0.1786  0.0784 -0.0460
82666W        W25682  29.762  22.775  28.899 -0.1002  0.1519  0.2978
82667W        W25683  29.000  20.285   6.999  0.3794  0.3622  0.4500
82668W        W25684  16.637  12.135  20.667  0.0985  0.2263  0.0698
82669W        W25685   6.825  17.554   1.583 -0.2064  0.2089  0.1578
82670W        W25686  27.066  16.967   5.455  0.3584  0.1226  0.0123
82671W        W25687   5.765   0.464  24.765  0.2861 -0.0184 -0.2140
82672W        W25688   7.301  13.413   4.417 -0.2011  0.1000  0.2874
82673W        W25689  13.373  15.985   5.797 -0.0736 -0.0784  0.0272
82674W        W25690  31.845  22.678   9.534 -0.3263  0.1365  0.2442
82675W        W25691   7.014  26.601   7.115  0.2342  0.0531 -0.0934
82676W        W25692  30.944  20.761  18.913 -0.4537 -0.0242  0.1119
82677W        W25693   8.052  24.391  20.349  0.1064 -0.0535 -0.0096
82678W        W25694  10.966  17.668   8.615  0.2783 -0.2280 -0.3091
82679W        W25695   5.916   1.816   4.537  0.0014 -0.1430 -0.1752
82680W        W25696   2.322  16.610   6.491 -0.1542  0.0342  0.3669
82681W        W25697  25.849  19.541   4.871  0.2203 -0.0299  0.1978
82682W        W25698  14.476  13.197  24.534  0.3305  0.4077 -0.0229
82683W        W25699   1.747   9.269  28.915 -0.1192 -0.1031 -0.0508
82684W        W25700  15.374  30.943  20.421  0.0907 -0.0614 -0.0917
82685W        W25701  29.186  16.189   5.365 -0.1505  0.0542 -0.1181
82686W        W25702  34.114  19.661  20.827  0.1184  0.2382  0.6370
82687W        W25703   6.151  12.273   5.318  0.0849 -0.1135  0.0568
82688W        W25704  20.172  34.627   2.803 -0.2172 -0.2076  0.0961
82689W        W25705   2.307  18.888  21.993 -0.0745 -0.0648  0.0141
82690W        W25706  13.385  28.236  21.743  0.1620  0.2072 -0.0001
82691W        W25707   5.199  25.774  20.152  0.0373  0.0235  0.0982
82692W        W25708   4.120  19.258   5.374 -0.1135 -0.1355 -0.0323
82693W        W25709   9.932  25.927   3.548  0.1442 -0.2453  0.0636
82694W        W25710  20.613   6.448  28.130  0.2723 -0.1226 -0.0997
82695W        W25711  28.891  22.824  10.873  0.0091 -0.0422 -0.1275
82696W        W25712  28.816   0.816   8.499  0.4402 -0.2616 -0.1523
82697W        W25713  24.044   8.309   9.954  0.0816  0.0846 -0.4142
82698W        W25714   1.356  28.870   8.855  0.4258  0.0965  0.0295
82699W        W25715  32.213   4.550   2.366 -0.4182 -0.2615  0.1356
82700W        W25716  23.399  23.068   0.480  0.1646 -0.1991  0.1527
82701W        W25717   1.648  19.599  26.910 -0.0702 -0.0456 -0.0924
82702W        W25718  21.170  32.788  29.147  0.1768  0.0251  0.4678
82703W        W25719  16.775  24.587   8.115  0.3358  0.1479 -0.1106
82704W        W25720   2.031  16.283  28.730 -0.0388  0.4064  0.0949
82705W        W25721   7.427  11.392  27.880 -0.1671 -0.1175  0.4752
82706W        W25722   3.551   5.159   9.700  0.3656  0.0732 -0.0878
82707W        W25723  15.903  13.983  21.545 -0.0073 -0.2520 -0.0576
82708W        W25724   4.188  12.013   3.887 -0.0832  0.0380 -0.0200
82709W        W25725   7.281   9.932   4.789 -0.1748 -0.0501 -0.3523
82710W        W25726  31.381  13.705   6.085 -0.2485 -0.1776 -0.3182
82711W        W25727  24.437  24.586   0.230  0.0260 -0.0319 -0.0392
82712W        W25728   9.369  12.207   2.896  0.1857 -0.0792  0.3103
82713W        W25729  27.815   5.285   5.695 -0.3308  0.0901  0.0094
82714W        W25730  19.670  14.802  26.722  0.0448 -0.2798  0.0810
82715W        W25731  12.260  25.842   5.404  0.2276 -0.2246  0.5248
82716W        W25732   4.496  22.925   7.161  0.1351  0.0205 -0.1006
82717W        W25733  11.578  14.286   4.071  0.0526  0.0663  0.1981
82718W        W25734  15.929  15.791   0.235 -0.2873 -0.0704 -0.1050
82719W        W25735  12.868   2.188   6.103  0.1035  0.0222  0.0446
82720W        W25736  32.515  11.584   0.242 -0.1919 -0.0409  0.1592
82721W        W25737   3.746   7.342   2.658  0.2947  0.0401 -0.0250
82722W        W25738  20.796  19.480   1.827  0.0864  0.1615  0.2291
82723W        W25739   0.270  13.047  24.196  0.3063 -0.0793 -0.0174
82724W        W25740  21.634  18.964  23.060  0.1287  0.1100  0.2840
82725W        W25741   0.881  21.262   3.035 -0.1268 -0.2562 -0.0692
82726W        W25742   6.881  29.391  10.693 -0.1184  0.0076  0.0184
82727W        W25743  14.764   7.555   7.116 -0.0149 -0.1398  0.0326
82728W        W25744  11.621  13.072   1.764  0.1503  0.1916 -0.0281
82729W        W25745   4.805  25.415  27.257 -0.0689 -0.0310  0.1064
82730W        W25746  14.902   4.367  25.897  0.0861  0.1101  0.3667
82731W        W25747  21.029  33.264  19.808 -0.1363 -0.0217  0.0934
82732W        W25748  26.695  19.898  10.330 -0.0325 -0.1637  0.0815
82733W        W25749  16.056  22.640  27.677  0.0150  0.3908  0.0877
82734W        W25750  14.144  30.859   5.582  0.2284  0.2254 -0.4145
82735W        W25751  11.565   2.189   6.938 -0.1758  0.2809 -0.0612
82736W        W25752  15.263  13.752  20.252  0.0429 -0.0424 -0.2699
82737W        W25753  14.446  13.795  21.122 -0.0493 -0.0703  0.1602
82738W        W25754  12.017   4.032   5.530  0.0920 -0.0674  0.1187
82739W        W25755  18.403  17.197  13.120  0.1224  0.1915  0.2440
82740W        W25756   0.718  16.828   9.718  0.1300  0.1277 -0.0015
82741W        W25757  13.227  29.931   7.159 -0.3158 -0.0182 -0.1745
82742W        W25758  29.983  17.754  28.564  0.2729 -0.1274 -0.2462
82743W        W25759  20.450  14.131   5.364 -0.3897  0.4394 -0.0506
82744W        W25760   6.862   2.100  26.133 -0.2963  0.3373  0.3274
82745W        W25761   8.651   2.883  27.314 -0.2971 -0.1772  0.1391
82746W        W25762  31.616   7.866   2.679  0.0216  0.1664  0.1206
82747W        W25763  13.171  19.099  27.603  0.3352 -0.4216 -0.2366
82748W        W25764   3.784  30.874   7.538 -0.0481 -0.3016 -0.0590
82749W        W25765  14.021  15.712   6.532 -0.0260 -0.3387 -0.0492
82750W        W25766   0.808   1.182   8.671 -0.0586 -0.0041 -0.2119
82751W        W25767  27.399  27.388  24.416  0.0866  0.3888  0.0927
82752W        W25768  16.924  28.756   1.585  0.0683  0.0450  0.2159
82753W        W25769  27.892  27.967  21.781  0.1878  0.4952  0.0755
82754W        W25770   5.220  13.239   9.863 -0.0424  0.1681  0.0089
82755W        W25771  10.858  23.915  27.201 -0.2709 -0.1179 -0.1297
82756W        W25772   2.768  17.471   6.381 -0.0282  0.1125 -0.2656
82757W        W25773   3.147  27.542  21.925 -0.2240 -0.0401  0.1374
82758W        W25774  11.503  23.401   6.780 -0.1153 -0.1188  0.0995
82759W        W25775  28.556  24.052   1.313 -0.2912 -0.3317 -0.1118
82760W        W25776   4.305  22.608  14.923 -0.0160 -0.3689 -0.0069
82761W        W25777   4.313  14.338  21.543 -0.2573 -0.2561  0.0300
82762W        W25778  15.209  12.802  28.764 -0.2680  0.4391  0.1400
82763W        W25779  26.093  16.087  17.151 -0.0956  0.1897  0.2055
82764W        W25780   1.940  23.711  15.805 -0.1819  0.0724 -0.1862
82765W        W25781  20.193  11.999   1.956 -0.2203  0.1138 -0.2165
82766W        W25782  23.073  23.558   4.263 -0.0263  0.4596  0.0048
82767W        W25783   1.820   0.763   9.972  0.1398 -0.1388 -0.1023
82768W        W25784  16.750   7.087   8.400 -0.1052 -0.3716  0.2012
82769W        W25785  11.251  22.637   6.885  0.1263  0.0034 -0.2145
82770W        W25786   6.444  15.567   6.033  0.1906  0.1637 -0.0432
82771W        W25787   8.558  31.595   5.503 -0.2458 -0.0610 -0.2128
82772W        W25788   1.723  14.624   9.869  0.0577 -0.0093 -0.2039
82773W        W25789   2.822  15.691  24.874 -0.1108  0.0330  0.2462
82774W        W25790  25.320  24.109   6.043 -0.0096  0.0817 -0.1352
82775W        W25791  16.812  26.651   0.124  0.1301 -0.1770  0.0809
82776W        W25792  19.976  22.791   6.953  0.1225 -0.0317  0.1053
82777W        W25793   5.974  15.326   4.103 -0.2214  0.0889 -0.0783
82778W        W25794  12.652  23.974  27.974 -0.3251  0.1175 -0.0287
82779W        W25795   6.319  14.993  22.658  0.1444  0.1443  0.2713
82780W        W25796   7.883  30.440   8.801 -0.1180 -0.0532 -0.3605
82781W        W25797  30.878   7.459  21.777 -0.2696  0.3226  0.3320
82782W        W25798  21.834   6.305   3.632 -0.0659 -0.1446  0.1505
82783W        W25799   1.810  16.229   5.129  0.0107  0.2020  0.1221
82784W        W25800  26.108  28.107   3.314  0.1500  0.1734  0.2264
82785W        W25801  18.373   4.484   2.281  0.2201  0.0366  0.0185
82786W        W25802  17.259  14.107  23.007 -0.1633  0.0559  0.1875
82787W        W25803  14.626  30.566   3.048 -0.0745  0.1433  0.1104
82788W        W25804  23.363  23.338  18.506 -0.0177  0.0563  0.0163
82789W        W25805  14.505   9.724  23.477 -0.0046  0.0630 -0.1983
82790W        W25806   6.942  16.900   0.764 -0.0180 -0.0482  0.0972
82791W        W25807  14.552  16.751  29.113  0.2176  0.1630  0.1869
82792W        W25808  21.537  28.747   4.420  0.4572 -0.0582  0.0554
82793W        W25809   5.266  20.191  26.335  0.0734  0.0569 -0.2145
82794W        W25810   4.878   1.437   7.488 -0.0716  0.0944 -0.1588
82795W        W25811  32.697  16.080   2.820 -0.0137  0.1741 -0.1703
82796W        W25812  14.143  12.240   3.897 -0.0060  0.2270 -0.0028
82797W        W25813   5.621   1.065  25.525  0.0813 -0.0998  0.0533
82798W        W25814  13.273  34.102   3.441 -0.1931 -0.0920 -0.0044
82799W        W25815   8.690  19.155   7.002  0.1823 -0.0447  0.0123
82800W        W25816  32.505  20.174  10.107  0.0645  0.1962 -0.0446
82801W        W25817  14.724  20.333   7.999  0.4765  0.0219  0.0168
82802W        W25818  33.324  20.617  19.004  0.0093 -0.1117  0.0308
82803W        W25819  32.782  17.755   1.775 -0.0124  0.0191  0.3525
82804W        W25820   8.736  31.058  27.710 -0.0594 -0.2046 -0.1810
82805W        W25821   9.926  11.772   6.774  0.1585 -0.1884 -0.2447
82806W        W25822  19.384  20.887  12.977 -0.2016  0.0483 -0.0598
82807W        W25823  29.449  17.397  17.827 -0.0345  0.1898 -0.0430
82808W        W25824  17.804  27.300   9.483  0.0076 -0.0147  0.2094
82809W        W25825  31.598  15.268   4.986  0.0027 -0.3019  0.2349
82810W        W25826   1.672  30.883   8.051 -0.0155 -0.2008 -0.0528
82811W        W25827   6.896  15.133   7.389 -0.2349 -0.1392 -0.0291
82812W        W25828  33.162  20.923   7.372 -0.1410 -0.0276 -0.2339
82813W        W25829  11.276  17.292  12.731  0.1862 -0.0016  0.2362
82814W        W25830  12.233  16.155   1.500 -0.0553 -0.4545 -0.0605
82815W        W25831  19.454   7.970  23.435  0.1329  0.0213  0.0239
82816W        W25832  22.853  28.681   1.721 -0.0214 -0.1497  0.1178
82817W        W25833  12.287  22.125  22.545  0.1712  0.0788 -0.4228
82818W        W25834  11.919   5.981   5.002  0.1526 -0.1965  0.0395
82819W        W25835   1.094  19.546   7.931  0.2073 -0.0301  0.2518
82820W        W25836  23.919  28.649   5.492  0.2172  0.1435 -0.0325
82821W        W25837   2.471  20.416   0.685 -0.0307 -0.0466 -0.1306
82822W        W25838  16.664  20.622   7.350  0.0006  0.0068 -0.4045
82823W        W25839  20.877  24.330  15.427  0.0014  0.1775  0.0627
82824W        W25840  34.006  17.008  27.597 -0.0987  0.1617  0.0401
82825W        W25841  25.547   5.355  28.615  0.0840  0.1782  0.1017
82826W        W25842   7.036  22.516   7.784 -0.1846  0.2033 -0.0859
82827W        W25843  14.338  12.069  25.711  0.1794  0.1533  0.1230
82828W        W25844   8.721  14.901   6.752 -0.0058 -0.1131 -0.0839
82829W        W25845  13.449   4.321  28.077  0.0606 -0.3392 -0.0356
82830W        W25846  19.959  11.066   0.996  0.0388 -0.0171 -0.0922
82831W        W25847  14.784  14.999  28.886 -0.2494 -0.4704  0.1286
82832W        W25848  13.764   3.748   4.076 -0.3077  0.4000  0.2743
82833W        W25849  33.536  20.578   1.233  0.0773  0.0718  0.0767
82834W        W25850  12.775  22.248  28.610  0.2979  0.4449  0.0638
82835W        W25851  16.661  24.022  15.696  0.1312 -0.3120 -0.2015
82836W        W25852   7.998  13.187   7.284  0.0049  0.1675 -0.2333
82837W        W25853  20.355   5.087   2.017 -0.2573  0.0655  0.1932
82838W        W25854   5.786  26.811   8.335 -0.1456  0.2645  0.1382
82839W        W25855   3.258  18.998   4.264  0.0247 -0.2025  0.0601
82840W        W25856  20.520  11.247  19.658  0.2087  0.3651  0.3717
82841W        W25857   2.743  16.667  19.787 -0.0643  0.2307 -0.0152
82842W        W25858   6.888   7.117   0.335 -0.0860  0.0701  0.0186
82843W        W25859   7.925  14.979   7.394 -0.0997  0.1080 -0.1265
82844W        W25860  16.306  27.375  27.774  0.3128 -0.0449 -0.1799
82845W        W25861   7.796   6.524   9.232 -0.2611  0.2290  0.0799
82846W        W25862   8.535  14.349   9.134 -0.2531 -0.1039 -0.0667
82847W        W25863   0.266  23.105   2.231 -0.1287  0.0939  0.1747
82848W        W25864   3.826  21.123   4.733 -0.1858  0.3732 -0.3694
82849W        W25865   8.491  18.144   1.729  0.0096 -0.0553 -0.2379
82850W        W25866   9.884  14.260  20.864 -0.2108  0.0776  0.1264
82851W        W25867   1.987   1.571   6.342 -0.0485 -0.0128  0.1993
82852W        W25868  17.334   6.119  17.602 -0.3489  0.0049  0.1670
82853W        W25869   5.574   9.786   9.270 -0.1148 -0.1031 -0.3376
82854W        W25870   4.148   5.025   3.459 -0.2890  0.1497 -0.0647
82855W        W25871   1.126  17.897   8.786  0.0747  0.0676  0.3437
82856W        W25872   0.178  13.386   9.911 -0.2982  0.0937 -0.5306
82857W        W25873   1.756  20.704  15.383 -0.1176 -0.0950  0.3301
82858W        W25874   1.313  15.549  28.873 -0.2219 -0.0420 -0.0431
82859W        W25875   5.806  15.827   7.927 -0.1895  0.2441  0.1573
82860W        W25876  17.597  15.955  26.509 -0.0536  0.0371  0.2427
82861W        W25877  10.296  34.692   8.756 -0.1701 -0.0826  0.7938
82862W        W25878   8.258   5.092  20.973  0.3136 -0.0832 -0.1197
82863W        W25879  17.888  20.813   0.289  0.3481  0.1408 -0.0700
82864W        W25880   5.222  13.355  19.514 -0.1640 -0.0491  0.3038
82865W        W25881  14.938   7.101   3.288  0.0566  0.0347 -0.2882
82866W        W25882  20.965  17.959   3.107 -0.0570 -0.2477  0.1265
82867W        W25883  17.401  16.368   4.411 -0.1610 -0.2642  0.1344
82868W        W25884  29.357  21.222  24.597  0.0001 -0.1123  0.1797
82869W        W25885  28.649  24.225  23.006  0.1073 -0.0349  0.0848
82870W        W25886   5.252  19.884   0.161  0.0581  0.0800  0.0002
82871W        W25887   0.367   1.973   0.540  0.0088  0.0778 -0.1778
82872W        W25888  32.423  30.803  10.187 -0.2972  0.0618  0.1010
82873W        W25889  24.330  11.112  25.747  0.0446 -0.2329  0.0403
82874W        W25890  12.455  18.013  22.222 -0.0052 -0.1026 -0.1018
82875W        W25891   1.212  12.935   8.931 -0.2519 -0.1905 -0.0436
82876W        W25892  14.912  23.095  19.479  0.1748  0.0578 -0.0906
82877W        W25893   7.550  22.166  17.013 -0.1916  0.0233  0.1613
82878W        W25894  17.064  19.928  23.637  0.0147 -0.1548 -0.2198
82879W        W25895  32.060  33.719  25.754 -0.2060  0.0022  0.1175
82880W        W25896  32.480  27.318   8.560 -0.0741  0.3201 -0.2157
82881W        W25897   0.318  19.775  25.607 -0.0083  0.1913  0.0664
82882W        W25898  21.414  32.415   5.542  0.0181 -0.0663 -0.0749
82883W        W25899  23.528  22.566   6.391 -0.2293 -0.1011 -0.2546
82884W        W25900  29.064  33.256  11.361  0.1277  0.4821  0.1477
82885W        W25901  27.127  20.198  27.009 -0.1816  0.2052  0.1572
82886W        W25902  28.555  25.363  28.239 -0.0445 -0.1396 -0.1378
82887W        W25903  19.968  20.046  16.289  0.0064 -0.2809  0.1031
82888W        W25904  11.222  21.912  26.280  0.0038  0.0482  0.0439
82889W        W25905  10.492   1.394   7.077  0.0900  0.1280 -0.1549
82890W        W25906   1.460   4.026   9.642  0.3256  0.1698  0.1237
82891W        W25907   2.243  21.877  25.199 -0.2716 -0.2448 -0.1804
82892W        W25908   5.290  21.867  27.322 -0.1766  0.2131 -0.1094
82893W        W25909   4.684  31.207   5.693  0.3144 -0.2470 -0.0950
82894W        W25910  18.292  18.417  26.318  0.2617  0.2559 -0.0753
82895W        W25911   7.818  23.428  24.555  0.0379 -0.0454  0.3212
82896W        W25912   9.958   0.447  23.347  0.1020  0.3026  0.0026
82897W        W25913  17.581  28.806   1.713 -0.0754 -0.0685 -0.0639
82898W        W25914  33.689  10.792   2.031  0.0364 -0.1919 -0.1357
82899W        W25915  16.831  15.197   8.271 -0.2143 -0.0451 -0.2350
82900W        W25916  18.765  22.396  22.925  0.0287 -0.2863  0.3248
82901W        W25917  17.243   3.826  25.477  0.0207 -0.3740  0.0978
82902W        W25918  11.545   1.576   7.953  0.0878 -0.0414 -0.1186
82903W        W25919  21.494  26.746   7.181 -0.4314  0.0263  0.2243
82904W        W25920  18.944  17.967  23.890  0.0925 -0.0589  0.2183
82905W        W25921  25.330  21.122   7.399 -0.0779 -0.0143  0.3028
82906W        W25922  12.725  28.016   2.718 -0.0800 -0.0048 -0.0930
82907W        W25923   9.753   9.824  27.733 -0.2772 -0.1682 -0.0162
82908W        W25924  12.096  25.463  23.542  0.0253 -0.1074  0.0291
82909W        W25925  12.697  15.724  23.035  0.0341  0.1210  0.0542
82910W        W25926  10.182  26.181  28.691 -0.3132 -0.3040 -0.1027
82911W        W25927  24.075  16.129   5.193 -0.3826 -0.1248 -0.0234
82912W        W25928  32.852  31.636  25.163  0.0920  0.2678  0.0213
82913W        W25929   4.258  26.264   0.996 -0.2632  0.1203 -0.1489
82914W        W25930   8.580  21.539  23.326  0.1500 -0.0461 -0.1953
82915W        W25931  15.230  20.097   8.010 -0.1247 -0.2079  0.3144
82916W        W25932  12.431  31.014   6.411  0.0175 -0.2093  0.0689
82917W        W25933   8.113  13.059  25.289  0.0345 -0.1265  0.2117
82918W        W25934  10.031  11.294   1.377 -0.0666  0.0043 -0.3087
82919W        W25935   9.240  12.323   4.275  0.1795 -0.1223 -0.0123
82920W        W25936  28.270  25.915   8.468 -0.0107  0.1782 -0.0318
82921W        W25937   9.273  22.820   0.249  0.0297  0.0622  0.0638
82922W        W25938   2.946   8.844  28.647 -0.3001 -0.2015  0.2548
82923W        W25939  16.355  25.944   7.329 -0.0429  0.3148  0.3182
82924W        W25940   8.217  31.422   8.572  0.0006  0.1760  0.0748
82925W        W25941   8.453   1.210  28.190  0.0652  0.0361 -0.0609
82926W        W25942   6.358  29.402   7.415  0.0248 -0.1114 -0.0941
82927W        W25943   4.196  11.842   2.354  0.2334 -0.2195 -0.0588
82928W        W25944  20.219  18.940   3.744 -0.1109 -0.3583  0.1352
82929W        W25945  22.104   1.351  29.064 -0.0835 -0.1679  0.0474
82930W        W25946  13.878   5.388  28.454  0.0854 -0.1432 -0.3346
82931W        W25947   1.054  22.187  29.313  0.0945 -0.0206  0.0051
82932W        W25948  34.487  30.152  10.181 -0.2143 -0.3779  0.0325
82933W        W25949  16.486  15.244   5.321  0.4898  0.1237 -0.6066
82934W        W25950   9.503  30.837   6.064  0.1495 -0.0471  0.0629
82935W        W25951  12.023  10.087   9.272  0.0391  0.1422  0.0821
82936W        W25952  34.254  28.253  11.063 -0.3524 -0.0821 -0.1265
82937W        W25953   3.973  20.215  24.215  0.0713 -0.2440 -0.0097
82938W        W25954   0.724  19.716  18.826  0.0079 -0.0650  0.0002
82939W        W25955  20.488   6.606   7.781  0.0964  0.2040  0.2530
82940W        W25956   6.617  25.194   0.067  0.1672 -0.0317  0.2950
82941W        W25957  13.896  24.298   9.046 -0.0992  0.1626  0.1555
82942W        W25958  14.387  19.798   3.494 -0.0822  0.2134 -0.0702
82943W        W25959  12.704  12.834  17.153 -0.0588 -0.3342 -0.1808
82944W        W25960   9.638  10.140  26.463  0.1054 -0.1307 -0.0390
82945W        W25961  19.322  15.509   1.961 -0.2359 -0.0124  0.0733
82946W        W25962  18.976   3.516   2.310  0.2553 -0.2429 -0.1087
82947W        W25963   8.909  30.494  27.127  0.1150  0.3027 -0.2646
82948W        W25964   9.527  26.302   7.875 -0.0552 -0.3441 -0.1053
82949W        W25965  34.705  33.422   8.777 -0.0185  0.2195  0.0378
82950W        W25966  19.808  28.102   5.837 -0.1800 -0.2353  0.1660
82951W        W25967  10.335  11.306   8.750  0.2817  0.0850 -0.1670
82952W        W25968  18.212  21.703  27.528 -0.1814  0.0968  0.0472
82953W        W25969   1.651  19.700  23.961  0.0077  0.2056 -0.3618
82954W        W25970   7.324  24.845  16.223  0.0961  0.3102  0.0036
82955W        W25971  13.264  17.921   0.386  0.0286  0.0332  0.1694
82956W        W25972  31.864  34.060  17.187 -0.0480 -0.2335 -0.1999
82957W        W25973  31.137   4.914  28.559 -0.2607 -0.0167 -0.3571
82958W        W25974  18.150  22.737   5.720 -0.0230 -0.0946 -0.1148
82959W        W25975  14.775  22.928   1.671  0.1522  0.1478 -0.0718
82960W        W25976  13.183  18.567  27.443  0.0624  0.0736  0.0810
82961W        W25977  14.040  29.850   9.338 -0.1472  0.0712  0.2684
82962W        W25978  19.220   2.987   3.672  0.0010 -0.1721 -0.0169
82963W        W25979  15.095  20.298  24.296 -0.1686  0.3359  0.1919
82964W        W25980  13.523  18.436  15.255  0.2498  0.0210 -0.0855
82965W        W25981   6.821  26.282   8.793 -0.1736 -0.0704  0.0026
82966W        W25982  23.643   8.038   4.802  0.0269 -0.0037  0.1922
82967W        W25983  25.824  16.873  28.260  0.0065 -0.1593  0.0003
82968W        W25984  16.161  16.753  19.136 -0.3579 -0.3069 -0.0713
82969W        W25985  26.795  12.928  27.947  0.1449 -0.0765  0.0735
82970W        W25986  13.417  22.868   2.012 -0.0299 -0.0976  0.0419
82971W        W25987   5.495  12.886  26.807  0.1534 -0.2582 -0.0455
82972W        W25988   4.652  21.803   4.992  0.0352  0.1927 -0.0800
82973W        W25989  11.922  31.051   4.258 -0.1224 -0.0377  0.2426
82974W        W25990   1.294  28.149  26.717  0.1284  0.2130  0.0682
82975W        W25991   5.386  17.201  26.454 -0.2464 -0.1272  0.1961
82976W        W25992  21.989   4.799   1.129  0.0787  0.1482 -0.1761
82977W        W25993  24.969   3.892  25.758 -0.0298 -0.1692 -0.1924
82978W        W25994   8.763  13.750  27.611  0.2491 -0.0496  0.1793
82979W        W25995   5.560   0.932  23.626 -0.0277 -0.1865  0.2860
82980W        W25996   1.270  18.453   1.115  0.1761 -0.1487 -0.1448
82981W        W25997   3.422   9.232  23.948 -0.1767 -0.0597  0.1853
82982W        W25998  26.362  21.897   0.553  0.1433  0.0938  0.2169
82983W        W25999  33.890  10.142   0.656  0.0664  0.0851 -0.1630
82984W        W26000  12.801  25.835  13.549 -0.2132 -0.0495 -0.0515
82985W        W26001  24.887  23.386   2.650  0.0696  0.1514 -0.1123
82986W        W26002  32.264  17.180   2.276 -0.0656 -0.1479 -0.0491
82987W        W26003   7.907   1.586   8.297 -0.3615 -0.2922  0.5103
82988W        W26004   9.051  15.926   6.535  0.0388  0.3527 -0.4691
82989W        W26005  30.263  32.854  11.358  0.1668 -0.1363 -0.1938
82990W        W26006   6.273  33.709  26.196  0.1079  0.1330 -0.0509
82991W        W26007  13.293   7.066   6.486 -0.0952  0.4837  0.0798
82992W        W26008   4.661   4.280   4.453  0.3797  0.0758  0.2345
82993W        W26009  19.832  11.251   9.134  0.0003  0.0288  0.0714
82994W        W26010  32.789  22.314  10.323 -0.1479  0.1101 -0.0125
82995W        W26011   9.581  17.337   4.414  0.2527 -0.0864  0.2546
82996W        W26012  19.385  20.095  26.762 -0.2139 -0.0198 -0.0093
82997W        W26013   1.398  19.141  17.315 -0.0306  0.0044  0.2536
82998W        W26014  27.976  16.704  15.152  0.0322 -0.1962  0.1356
82999W        W26015  18.799  15.098   7.620 -0.1622  0.0282  0.0690
83000W        W26016  11.530   0.504   3.226  0.0833  0.2635 -0.0378
83001W        W26017  24.106   1.665   3.147  0.0436  0.0569 -0.0098
83002W        W26018  33.087  22.752   8.081  0.0075 -0.1096  0.1416
83003W        W26019  24.417  19.344  15.943 -0.2614  0.0330 -0.4149
83004W        W26020  14.796  16.670  22.083  0.0149  0.3041  0.1226
83005W        W26021  19.550   8.406  28.842  0.3494  0.0415  0.0947
83006W        W26022  19.649  29.925  22.276  0.0351  0.3964 -0.2685
83007W        W26023   5.147  26.619  14.430 -0.1263  0.2461 -0.4513
83008W        W26024  13.079  21.591  27.196 -0.0211 -0.1389  0.1030
83009W        W26025   4.427  15.737   7.802  0.4096 -0.0673  0.4036
83010W        W26026  27.445  16.303   8.718 -0.0459 -0.1027  0.3605
83011W        W26027  19.211  16.827   2.241 -0.3287 -0.1034  0.4431
83012W        W26028   9.879  29.663   5.554 -0.0947  0.2171  0.1319
83013W        W26029  14.737  13.212   7.133 -0.1638  0.0470 -0.0977
83014W        W26030  32.795  21.168  27.393  0.1709  0.0641 -0.0294
83015W        W26031   4.996  14.380   7.915 -0.2545 -0.1296  0.2658
83016W        W26032  11.598  18.624  21.381 -0.2871  0.0183 -0.3164
83017W        W26033  27.007  34.631  28.907 -0.1954  0.2811  0.1211
83018W        W26034   7.123  32.499   0.093 -0.1263 -0.0458  0.1616
83019W        W26035  15.962  17.904  24.216  0.0178  0.0365 -0.0991
83020W        W26036   7.012   5.452   1.459 -0.1324  0.3018 -0.2256
83021W        W26037  12.686   3.152   2.643 -0.1334 -0.0963  0.0982
83022W        W26038   6.237  29.480   5.588  0.0531  0.0277  0.0861
83023W        W26039  18.827  24.328   7.295 -0.0726 -0.2419  0.0227
83024W        W26040   9.451  20.316  28.614  0.0870 -0.1595 -0.2846
83025W        W26041  31.169  29.281   0.902  0.1730  0.0084  0.0563
83026W        W26042   8.138  27.867  19.654  0.1584 -0.1074 -0.1652
83027W        W26043   8.721  29.624  13.451  0.0271 -0.0158 -0.4361
83028W        W26044  17.553  18.710  25.214  0.1302 -0.1625 -0.2040
83029W        W26045  14.824  23.902  17.592 -0.3131 -0.0880 -0.4530
83030W        W26046  29.259  29.993   4.362 -0.2438  0.0785  0.1004
83031W        W26047   3.933  27.172  10.598 -0.1782  0.0993 -0.1087
83032W        W26048  20.446  24.842   6.678  0.0702 -0.1654  0.1222
83033W        W26049  10.618  24.514  26.759  0.0580  0.1515 -0.1781
83034W        W26050  10.903  18.511   5.735 -0.0687  0.2198 -0.0914
83035W        W26051  34.625  10.901   5.667  0.2179 -0.1544  0.0046
83036W        W26052  33.898   9.107   0.652  0.2467  0.4383  0.0614
83037W        W26053   9.574  27.783  19.614  0.2682 -0.1673  0.2236
83038W        W26054  14.993  18.552  19.097 -0.2907  0.1300  0.4571
83039W        W26055  13.779  34.073   5.561  0.1070  0.4165 -0.0812
83040W        W26056  32.250  14.711  27.599 -0.1063  0.0962 -0.1298
83041W        W26057  16.837   3.247  25.793  0.1568  0.1331 -0.3065
83042W        W26058   7.100   1.918   4.406  0.1649  0.1191  0.1256
83043W        W26059   1.054  26.273   2.438  0.2224 -0.2049 -0.2567
83044W        W26060  10.343  16.554   4.362 -0.1108  0.2601 -0.0735
83045W        W26061  28.974  10.178   5.533  0.1155 -0.1122 -0.1392
83046W        W26062   0.230   0.337   5.783 -0.0244 -0.1281  0.2218
83047W        W26063  17.650  18.667  24.627  0.2999  0.0538 -0.1206
83048W        W26064   9.375  22.998   6.939 -0.0758  0.1279 -0.0681
83049W        W26065  15.902  16.441   7.158  0.1976 -0.1252  0.1834
83050W        W26066  31.250   9.168  23.398 -0.1299  0.0080 -0.1063
83051W        W26067   6.797  17.462  28.611  0.1325  0.1040  0.0231
83052W        W26068  19.105  28.128  25.782 -0.0668  0.0505 -0.1152
83053W        W26069   5.224  26.399   1.255  0.0938  0.0852  0.0047
83054W        W26070  32.834  11.849   7.632  0.1016 -0.0074 -0.0932
83055W        W26071  17.158  32.954   4.723  0.0595  0.1659  0.1786
83056W        W26072   9.091  17.257   4.366  0.4661  0.1354 -0.2215
83057W        W26073  26.589  12.539   8.376  0.0673  0.0001  0.1179
83058W        W26074  12.850  13.085   7.194 -0.1100  0.1737 -0.1221
83059W        W26075  14.225  16.988  21.115  0.2428  0.1321  0.1077
83060W        W26076  10.997  15.209   2.868 -0.0972  0.3948 -0.1668
83061W        W26077   2.771  27.928  27.260  0.1325 -0.1990 -0.1605
83062W        W26078  15.220  13.401   6.763  0.2037 -0.0705 -0.0829
83063W        W26079  14.626  16.965   7.465 -0.0547  0.1567 -0.1909
83064W        W26080  22.050  32.453   2.783  0.4752  0.1725 -0.1567
83065W        W26081  12.269  22.603   7.323 -0.3452 -0.1549  0.3170
83066W        W26082   5.862   9.149  19.616  0.2845  0.0731  0.1298
83067W        W26083  16.068  15.566  26.123 -0.3161 -0.0492 -0.2906
83068W        W26084   9.886  10.972   7.500 -0.2176  0.0698 -0.1741
83069W        W26085  13.787  25.330  28.454 -0.0742 -0.0745  0.2691
83070W        W26086  34.076   5.181  16.431 -0.0087  0.1909  0.0447
83071W        W26087   9.587  31.081  28.928  0.0262  0.2191 -0.1050
83072W        W26088  19.479   4.024   9.131 -0.2421 -0.0175  0.2135
83073W        W26089  22.752  15.171  25.250  0.0629 -0.0592 -0.0234
83074W        W26090  18.478  18.933   8.963  0.2669 -0.1477 -0.2317
83075W        W26091  34.375   2.738   3.574 -0.0833 -0.1740  0.1582
83076W        W26092   6.016  32.300   2.713 -0.2830 -0.0909  0.0655
83077W        W26093  32.566  32.526   1.684 -0.1676 -0.3141  0.1219
83078W        W26094  18.413  22.293  20.703  0.0982  0.0385  0.1569
83079W        W26095  10.778   7.671  25.337  0.2110 -0.0519  0.0531
83080W        W26096  33.246  30.949   9.759  0.1305 -0.1965  0.1122
83081W        W26097  16.633   1.757   2.129  0.2367 -0.0434 -0.1138
83082W        W26098  12.102  14.807  23.896  0.0868 -0.1628  0.1958
83083W        W26099  11.201  27.349  19.889  0.0903  0.2551 -0.0594
83084W        W26100   4.755  16.714   3.721 -0.2372  0.1109 -0.0675
83085W        W26101  21.500  20.089  21.143 -0.2645 -0.2022 -0.1273
83086W        W26102  12.467  25.090   2.872  0.0797 -0.0486 -0.1278
83087W        W26103   3.428  32.990  23.004 -0.1052  0.1532  0.1856
83088W        W26104  28.848  25.885   9.149 -0.0560 -0.1017 -0.0404
83089W        W26105   3.925  29.161   6.379  0.1479 -0.1392 -0.1892
83090W        W26106   9.679  26.846   7.674 -0.1497 -0.0592  0.0086
83091W        W26107  10.386  22.149  24.247  0.1387  0.2830 -0.0121
83092W        W26108  12.265  15.952  26.917 -0.0519  0.0548  0.0272
83093W        W26109  17.175  19.240   5.102  0.1740 -0.1146  0.0513
83094W        W26110   1.835  24.490  24.692 -0.1194 -0.0490  0.1706
83095W        W26111   1.157   3.407  24.747  0.3237 -0.0591  0.2343
83096W        W26112  11.898  28.496   3.983 -0.0783  0.0448 -0.1535
83097W        W26113   7.784  22.634   4.888 -0.1092  0.0209 -0.1862
83098W        W26114   8.530  18.442   4.074 -0.1791  0.0090 -0.0009
83099W        W26115   9.038   8.273   6.884  0.1154 -0.0330 -0.1249
83100W        W26116   7.421  21.849   6.397 -0.0936  0.1240 -0.1790
83101W        W26117  15.008  13.078   5.792 -0.0499 -0.2330 -0.1986
83102W        W26118  18.220  24.342  28.743 -0.1373  0.3816  0.1572
83103W        W26119   3.511   6.785   3.621  0.1979  0.0711  0.1030
83104W        W26120  28.990   1.479   5.231 -0.0202 -0.2840  0.2830
83105W        W26121  30.276   4.050   3.010  0.0718  0.0121  0.4401
83106W        W26122  32.313  25.271   2.245  0.2621 -0.1979  0.1053
83107W        W26123   9.528  25.186   5.395 -0.1558  0.0779  0.2486
83108W        W26124  13.464  20.289   3.885  0.0520  0.1817  0.1955
83109W        W26125   3.021  21.720   1.696  0.0436  0.0295 -0.3806
83110W        W26126   4.439  10.975   7.163 -0.1602 -0.4663 -0.0314
83111W        W26127  15.735  12.786   3.364  0.1564  0.1761 -0.3112
83112W        W26128   3.197  24.055   3.806 -0.2182  0.2069 -0.0799
83113W        W26129  19.998  33.854   9.103 -0.5637  0.0497  0.1465
83114W        W26130  15.691  14.871  21.111  0.1948 -0.1673 -0.1262
83115W        W26131  30.294  16.482  15.981  0.0982  0.2342  0.0566
83116W        W26132  14.425  15.024   3.721 -0.1515 -0.1413 -0.0525
83117W        W26133  11.713  31.864  20.548 -0.1785 -0.0532  0.0997
83118W        W26134  10.353  11.406  29.073 -0.1708 -0.2159 -0.1043
83119W        W26135  28.434  25.130   4.900 -0.1640 -0.1413 -0.1391
83120W        W26136  29.764  24.331  10.781 -0.0810 -0.1153  0.1254
83121W        W26137   0.417  34.214  29.084  0.1523  0.1023  0.3774
83122W        W26138   6.330  11.661   7.987 -0.1987 -0.0267 -0.1174
83123W        W26139  11.647  22.977   4.861 -0.0012  0.2029  0.1540
83124W        W26140  24.081  18.640   7.640  0.1628 -0.0797  0.0526
83125W        W26141   1.270  23.199   9.087 -0.2581  0.0078  0.0964
83126W        W26142  26.785  22.125   9.360  0.1630  0.1997 -0.2276
83127W        W26143  33.107  16.347  20.213  0.1571  0.0717  0.2536
83128W        W26144   5.036   3.385   8.766 -0.0272  0.4994  0.0055
83129W        W26145  16.857  27.966   4.125 -0.0500 -0.1713 -0.0940
83130W        W26146  12.276  15.471   0.340  0.3897 -0.1067 -0.3034
83131W        W26147  15.643  23.699   2.326 -0.0068  0.1507 -0.1989
83132W        W26148  12.693  16.237  26.839 -0.3429 -0.0481  0.1731
83133W        W26149   6.105  11.684   5.107 -0.0637  0.2557 -0.0202
83134W        W26150  12.721  22.137   5.818 -0.0175  0.1944  0.4031
83135W        W26151  20.302  17.793   4.700  0.1180  0.0247  0.0450
83136W        W26152   1.529  22.407  27.252 -0.0109  0.1007 -0.1177
83137W        W26153  11.337  14.362  25.619  0.0610  0.3158 -0.1161
83138W        W26154  33.233  12.097  19.657  0.1588  0.0075 -0.0799
83139W        W26155   9.530  23.878   6.564 -0.0992 -0.1336  0.1082
83140W        W26156   4.315  28.905   4.707 -0.0578  0.3471 -0.1455
83141W        W26157  12.515  17.904  26.071  0.1008  0.0972 -0.0499
83142W        W26158  15.332  22.716   6.622 -0.2563  0.4787 -0.4759
83143W        W26159   7.581  22.949  29.002  0.2247 -0.0298  0.3097
83144W        W26160  19.428  16.479   3.962  0.2392 -0.2048 -0.1907
83145W        W26161  15.330  17.466   7.483  0.1074 -0.2546  0.2917
83146W        W26162  15.415  24.491   2.607  0.1173  0.3075  0.0736
83147W        W26163  13.281   8.744   7.239  0.3747 -0.0999  0.1178
83148W        W26164  10.016  30.135   9.366 -0.2011 -0.0052 -0.1485
83149W        W26165   9.098  25.781  28.670  0.0818  0.1755 -0.0304
83150W        W26166  20.141  31.063  25.188 -0.2058 -0.0769  0.0729
83151W        W26167   5.431  30.282   8.220  0.0628 -0.1522  0.0027
83152W        W26168  12.775  21.940   7.520  0.0531  0.0564  0.0765
83153W        W26169  14.300  29.757   7.097  0.0382 -0.0368  0.1181
83154W        W26170   8.305  25.321  27.766 -0.0252 -0.1858  0.1590
83155W        W26171   8.534  22.797   8.172  0.2471 -0.0374  0.5206
83156W        W26172   5.200  23.424  24.158  0.0813  0.0835 -0.2733
83157W        W26173   2.626  14.779   1.407  0.0605 -0.3435  0.0540
83158W        W26174  15.517  29.351   0.828 -0.0110  0.2976 -0.0267
83159W        W26175   0.189  15.723   8.067  0.2669  0.3659  0.0106
83160W        W26176  17.652  21.175   1.820 -0.1289  0.0622 -0.2539
83161W        W26177   2.757  18.558   8.410 -0.0004 -0.0273  0.0296
83162W        W26178  11.346   3.446   2.708  0.0255 -0.4376 -0.0885
83163W        W26179   1.409  27.272  20.815 -0.2320  0.0578 -0.2334
83164W        W26180  17.391  22.092  23.479 -0.0727 -0.1169 -0.1956
83165W        W26181  13.612  21.928  18.582  0.0287  0.4433  0.2919
83166W        W26182   6.070  10.189  29.029 -0.0623 -0.3102  0.4604
83167W        W26183   9.776  17.445  26.455 -0.2590 -0.1509  0.1952
83168W        W26184  32.492   7.917  29.169  0.0617  0.2506  0.0438
83169W        W26185  25.573  19.513  24.424 -0.4480  0.1564  0.2414
83170W        W26186   7.536  33.172   7.352  0.3303 -0.0867  0.1948
83171W        W26187  11.139   1.246  28.851 -0.0770 -0.0173 -0.0497
83172W        W26188  10.090  23.065   6.051  0.2562 -0.0264  0.1015
83173W        W26189  33.821   0.520   0.302 -0.0074 -0.0855  0.1356
83174W        W26190   5.299   0.120  25.474  0.1024 -0.1128  0.0338
83175W        W26191  33.250  29.568   9.229  0.1903 -0.1907  0.1544
83176W        W26192   6.926  30.884   5.558  0.1861  0.2635 -0.0368
83177W        W26193   9.574   3.324   4.580 -0.0108  0.2225  0.0566
83178W        W26194  15.950  27.742  27.758 -0.0538  0.2728 -0.0431
83179W        W26195  14.067  10.182   8.310  0.1951 -0.1040 -0.1778
83180W        W26196   0.912  26.213   5.824 -0.1654  0.0060  0.0160
83181W        W26197  30.598  17.027   6.273  0.2461 -0.0049  0.2447
83182W        W26198   9.645   6.213   2.695  0.1319 -0.2899 -0.1199
83183W        W26199  10.073  11.534   9.089  0.1496 -0.0188  0.1429
83184W        W26200  27.039  19.413  26.355  0.0833 -0.0335  0.2545
83185W        W26201   5.755  33.773   3.706  0.3204  0.0552  0.0386
83186W        W26202  11.693  29.106   3.749  0.3123  0.1081 -0.2593
83187W        W26203   1.545  22.322  26.511  0.2057 -0.1196  0.2023
83188W        W26204  10.779  13.141   2.797  0.0529 -0.0283  0.0422
83189W        W26205  28.120   4.216  26.904  0.0405 -0.1764 -0.1933
83190W        W26206  22.915  33.993   5.587  0.0500  0.1379 -0.2835
83191W        W26207   7.331  15.677  25.852  0.0258 -0.0889 -0.0654
83192W        W26208  34.032  28.443   4.945 -0.1296 -0.2342 -0.3826
83193W        W26209   6.033  14.191   3.889  0.0645 -0.0917  0.0974
83194W        W26210  13.083  16.477  26.045  0.0055  0.0876 -0.2677
83195W        W26211  14.592  18.495   2.573  0.1885  0.2691  0.1270
83196W        W26212  11.704  20.927  24.280  0.1640 -0.2050  0.3391
83197W        W26213  17.398   0.329   6.512 -0.5397 -0.0489  0.0527
83198W        W26214  10.204   8.857  28.752 -0.0252 -0.0741  0.2812
83199W        W26215  12.015  21.592   8.168  0.1281 -0.1997 -0.4087
83200W        W26216  32.946  11.769   2.493 -0.1731  0.0644  0.0370
83201W        W26217   2.439  27.252   7.620  0.1117 -0.0609 -0.0426
83202W        W26218   6.041  12.475   2.194 -0.2858  0.2280 -0.2792
83203W        W26219  30.096   3.942   7.649 -0.5092  0.1022 -0.0371
83204W        W26220  24.325  20.952   4.455 -0.0240  0.1125  0.1928
83205W        W26221  18.652  20.403   7.602  0.1814 -0.2160 -0.1002
83206W        W26222   9.515   0.064   7.334 -0.1258 -0.2615 -0.0813
83207W        W26223  11.521  14.773  25.908  0.3564  0.0333  0.0443
83208W        W26224  28.615   6.616  18.941  0.1178 -0.1130 -0.2199
83209W        W26225  29.489  15.995   3.963 -0.2357  0.1337 -0.3221
83210W        W26226  12.560   5.370  10.010 -0.1903  0.1895 -0.0227
83211W        W26227  23.266  10.484  28.691 -0.2606  0.3225 -0.1792
83212W        W26228   6.128  13.922   0.271  0.0907  0.2452  0.1426
83213W        W26229  10.356   9.986   2.309 -0.0731  0.0125  0.1632
83214W        W26230   4.707  26.601  19.184  0.0859 -0.2248  0.1294
83215W        W26231   3.197   1.706  23.047  0.0833  0.0590  0.0460
83216W        W26232  14.310  14.187   5.427 -0.2012  0.3042 -0.2435
83217W        W26233   4.752  19.833  24.601  0.0244 -0.1450 -0.0076
83218W        W26234   7.736   5.990   8.900  0.1323 -0.0619  0.1087
83219W        W26235  22.583  16.374   9.660 -0.1651  0.2491 -0.0189
83220W        W26236  10.425   6.638  27.266 -0.1309  0.0894  0.1461
83221W        W26237  12.645  25.204   6.351 -0.1937 -0.1656 -0.0407
83222W        W26238  12.855  30.242   5.891  0.1694  0.0985 -0.3424
83223W        W26239  12.401   9.612   5.364  0.1335  0.4893  0.1361
83224W        W26240  12.339   7.333  18.968  0.3816 -0.1718  0.1653
83225W        W26241   4.332  10.533   5.512 -0.0599  0.0245  0.0141
83226W        W26242  29.184  28.125  24.007  0.3266  0.2935 -0.2223
83227W        W26243  25.594  26.012   5.809  0.0976  0.0143  0.0305
83228W        W26244   1.269  20.109  25.223 -0.0801  0.1965 -0.3729
83229W        W26245  19.534   5.191   5.939 -0.2701  0.2523 -0.1207
83230W        W26246   3.946  21.364   1.980  0.1387 -0.1378  0.0258
83231W        W26247  32.510  12.881   7.575 -0.0354  0.0679 -0.0749
83232W        W26248   1.494  14.228   9.872 -0.3654  0.2938 -0.0071
83233W        W26249   2.940  27.157   4.916 -0.2486  0.0404 -0.2243
83234W        W26250  34.554  10.392   5.534  0.1919  0.3698 -0.0048
83235W        W26251  14.762  30.452   1.553  0.0625  0.0223  0.0237
83236W        W26252   6.348  33.381  24.939  0.3758  0.3142  0.1289
83237W        W26253   6.485  26.246  26.214  0.1550 -0.0895 -0.0557
83238W        W26254   6.337  24.671   8.065 -0.2244  0.0081 -0.1872
83239W        W26255   7.946  27.887   5.563 -0.1501  0.3111 -0.0739
83240W        W26256  13.704   3.803   5.436 -0.2880  0.2443 -0.0493
83241W        W26257   0.938  10.808   9.468  0.1421  0.1728 -0.0265
83242W        W26258   2.655  12.567   9.386 -0.1115  0.0796  0.1045
83243W        W26259  34.069  11.384  28.882 -0.0006  0.0430 -0.1495
83244W        W26260  28.244   6.245   0.020  0.1838 -0.2468  0.2951
83245W        W26261  12.481  25.934  26.928  0.0579  0.1174  0.3554
83246W        W26262   2.849  11.566   1.876 -0.0903  0.0012 -0.3670
83247W        W26263  12.699  17.329   4.796 -0.0915 -0.0519  0.0646
83248W        W26264  13.726  19.689  14.434 -0.2206 -0.1412  0.1033
83249W        W26265  21.469  26.331  27.981  0.0854  0.2609  0.0062
83250W        W26266  15.321  27.334   0.712  0.1046  0.2960  0.4964
83251W        W26267  29.402   2.262  28.525 -0.0177 -0.1359  0.1457
83252W        W26268  23.964  17.237   4.946  0.0919  0.0717 -0.2914
83253W        W26269   8.005  23.070   4.990 -0.2114 -0.0906 -0.4291
83254W        W26270   2.750  21.028   3.580 -0.0900 -0.0854  0.3167
83255W        W26271  13.527  11.862   2.931 -0.3256  0.0980 -0.1218
83256W        W26272   9.490  19.263  20.848 -0.0456  0.2129 -0.1560
83257W        W26273   3.182  16.917   6.070 -0.2066 -0.3492 -0.0299
83258W        W26274  22.936  21.809  28.664 -0.2037 -0.4574 -0.0518
83259W        W26275  23.705  16.853  26.350  0.0960  0.1512 -0.2103
83260W        W26276  29.083  12.191  27.005 -0.0956 -0.3100  0.1846
83261W        W26277  10.778  15.887   2.117  0.1755  0.1269  0.2375
83262W        W26278   3.166   0.362  26.986 -0.2828 -0.0166  0.4033
83263W        W26279  15.057  11.194   7.490 -0.1785 -0.1072  0.0451
83264W        W26280   6.822   3.749   7.428  0.0607  0.2161 -0.1201
83265W        W26281   2.729   5.279  23.087 -0.0605 -0.0428 -0.1181
83266W        W26282   4.276  29.646  27.029  0.0453  0.0948  0.1369
83267W        W26283   5.117  16.565   5.543  0.1183  0.0468  0.4335
83268W        W26284   6.300  14.980   8.935  0.0394  0.0092 -0.0702
83269W        W26285   5.383  32.050   2.353  0.5020  0.0903  0.2628
83270W        W26286  27.627  19.889   7.238 -0.1472  0.0501  0.0406
83271W        W26287   3.923   6.828   7.436 -0.1752  0.0156 -0.0075
83272W        W26288  11.814  22.742   0.504 -0.3499 -0.1569 -0.6547
83273W        W26289  12.121   7.816   6.563  0.2360  0.0445  0.0379
83274W        W26290  12.680   9.730   9.280 -0.1527  0.0431 -0.4194
83275W        W26291  30.166   8.518   2.897  0.1024 -0.1272  0.1290
83276W        W26292   8.435  24.369  23.422  0.1248 -0.0565  0.0360
83277W        W26293   3.967  21.062   8.585  0.2015 -0.3805  0.2413
83278W        W26294   3.661   3.364   9.195 -0.1511  0.1096 -0.0313
83279W        W26295  16.191  26.505  27.674  0.2174 -0.1175  0.1188
83280W        W26296  26.188  27.703   3.584 -0.4220  0.1482 -0.1481
83281W        W26297  34.561  13.296   4.749  0.0763  0.0559 -0.2194
83282W        W26298   5.587  24.720   9.318  0.1040 -0.0013 -0.0105
83283W        W26299  32.344  24.123   9.108 -0.3076 -0.2276 -0.0153
83284W        W26300  11.047  23.358   7.921  0.1001  0.0887 -0.0498
83285W        W26301  33.196  20.761   2.619 -0.0903  0.0261  0.0003
83286W        W26302   3.299   5.633   6.905 -0.3251  0.2195 -0.1059
83287W        W26303  33.772  25.629  10.044  0.0333  0.1186 -0.1852
83288W        W26304  23.947  12.039   9.220 -0.2350 -0.2994 -0.0322
83289W        W26305   4.573   7.008   8.521  0.3936 -0.0098  0.1572
83290W        W26306   6.387   9.691   1.541  0.0586  0.0444  0.2514
83291W        W26307   5.945  23.367   7.399 -0.2382 -0.0165  0.0441
83292W        W26308  11.296  23.676   7.163  0.1389  0.1893 -0.0828
83293W        W26309  19.983  20.888   7.006 -0.1350 -0.1884 -0.0311
83294W        W26310   7.772  34.196   2.305  0.0584 -0.2395  0.2114
83295W        W26311   8.737  17.840  26.100  0.2207 -0.1830 -0.0455
83296W        W26312  25.792  13.709   6.722  0.1928 -0.0271 -0.1418
83297W        W26313   6.222  29.995  25.833 -0.1881 -0.0101 -0.2144
83298W        W26314  20.418   4.363   8.486  0.0753 -0.0237  0.2275
83299W        W26315  10.251  27.040   0.284 -0.1784  0.0833  0.0814
83300W        W26316   7.689  13.837  28.138 -0.1126 -0.2048 -0.0156
83301W        W26317  13.926  18.794   0.559 -0.1307  0.1565 -0.1328
83302W        W26318   2.962   3.043  20.982 -0.2900 -0.2052 -0.2987
83303W        W26319  17.457   6.563   8.205 -0.0975 -0.3970  0.2994
83304W        W26320   3.870  13.479   1.292 -0.2426  0.0960 -0.0040
83305W        W26321  26.581  12.974  16.284  0.1290 -0.0465  0.0632
83306W        W26322   8.356  17.670  29.270 -0.1140 -0.3111 -0.0198
83307W        W26323   0.678  20.177   9.128  0.0505 -0.2288 -0.0829
83308W        W26324  10.582   3.256  20.838 -0.1115 -0.0345 -0.0953
83309W        W26325  16.528  23.175  26.084  0.1689  0.2602 -0.0145
83310W        W26326   0.646  11.802  25.416  0.1634 -0.1821  0.0378
83311W        W26327   6.194  25.813   4.211 -0.0967 -0.1216  0.0791
83312W        W26328   3.400  23.219   9.144 -0.0649  0.2175  0.3069
83313W        W26329  25.087  29.198   5.458 -0.0399  0.1079 -0.1759
83314W        W26330  15.245  24.697   8.154  0.3443  0.1826  0.2799
83315W        W26331  12.257  23.776   1.319  0.1022 -0.0731  0.1955
83316W        W26332   4.054  17.139   7.327  0.1648 -0.0662 -0.1314
83317W        W26333   5.409  25.782   8.148  0.0337 -0.0051  0.2226
83318W        W26334  18.685  17.950  27.370 -0.1890  0.1086  0.1122
83319W        W26335  14.864   5.964   9.518 -0.1594 -0.1574  0.0817
83320W        W26336  34.624  21.854  10.623 -0.4911  0.0762 -0.0769
83321W        W26337   5.270  11.253   6.562 -0.0582 -0.0074  0.2226
83322W        W26338   8.937  25.860  21.849 -0.0743 -0.2812 -0.1985
83323W        W26339  34.463  23.256  27.746  0.1111  0.1364  0.0694
83324W        W26340  18.177   5.064   7.989  0.3774  0.0556 -0.0126
83325W        W26341   8.754  24.060   4.008  0.0083  0.3507  0.1126
83326W        W26342   4.848  31.967   3.791 -0.0285  0.1325  0.0364
83327W        W26343  25.354   6.686   6.676  0.1742 -0.3092  0.0126
83328W        W26344  34.368  16.521   5.367 -0.1454  0.0131 -0.1703
83329W        W26345   0.840   1.195  10.558  0.1403  0.2070  0.0116
83330W        W26346   4.157   4.708   8.509 -0.1156 -0.1909 -0.2751
83331W        W26347  12.193  17.280  23.515  0.1546  0.3129  0.2298
83332W        W26348  15.065  22.226  22.580  0.0162  0.1378  0.0246
83333W        W26349  15.153   6.635  29.162 -0.0728  0.2952  0.0209
83334W        W26350  31.821  18.192  27.656 -0.0433  0.0227  0.1157
83335W        W26351  27.132   7.703   5.757  0.0365  0.0788  0.0284
83336W        W26352  15.876  29.543   9.691  0.0184 -0.0134  0.2059
83337W        W26353  11.320  15.734  21.318  0.0833  0.0068  0.0796
83338W        W26354   4.647  32.063  29.188  0.3211 -0.0287  0.0411
83339W        W26355  22.593  20.520  23.938  0.0042  0.0130 -0.4020
83340W        W26356   1.471  23.480   9.850 -0.1305  0.1879  0.1095
83341W        W26357  12.490  17.371  26.024 -0.1017 -0.2028 -0.0254
83342W        W26358  26.724   1.550   8.484 -0.4629  0.0359 -0.0456
83343W        W26359  13.507  24.828   6.853 -0.4408 -0.0473  0.0651
83344W        W26360   5.537  28.543   0.339 -0.3860  0.0512  0.0553
83345W        W26361   7.914  29.259   9.777 -0.1500  0.1677  0.1500
83346W        W26362  32.650  34.106   3.936 -0.0746 -0.1128 -0.1554
83347W        W26363  19.086  22.887  28.518 -0.2600  0.1416 -0.0547
83348W        W26364  17.714  21.490   4.257  0.1040  0.0008 -0.1366
83349W        W26365  10.525  24.938   7.470 -0.2746  0.2004  0.2462
83350W        W26366  20.980  16.040  20.501 -0.1020 -0.0244 -0.1151
83351W        W26367   3.993  16.201   7.435 -0.2091  0.0684  0.1769
83352W        W26368  30.757   3.825  25.322 -0.2420  0.0601 -0.1949
83353W        W26369  33.970   3.807  27.247 -0.2182  0.1273  0.1749
83354W        W26370  10.855  22.170  23.988 -0.1004 -0.1595 -0.0268
83355W        W26371  11.132  32.917  26.601  0.1851  0.1361 -0.0409
83356W        W26372  11.623  18.552   3.963 -0.2152  0.0089 -0.2300
83357W        W26373   9.305  27.106  24.039  0.1650 -0.2189  0.0082
83358W        W26374  24.914  22.575   9.349 -0.0540 -0.0070  0.0361
83359W        W26375   2.708  12.674  18.147 -0.2277  0.0375 -0.1991
83360W        W26376   5.642  27.685  28.975  0.0832  0.0658  0.0502
83361W        W26377  12.240  21.201   5.222  0.0264 -0.0230  0.1140
83362W        W26378  10.609  10.729  28.141 -0.0262 -0.0527  0.0513
83363W        W26379   1.766  28.283  28.980  0.1074 -0.0471 -0.3100
83364W        W26380   6.261  12.227   7.202  0.1455 -0.0168  0.1450
83365W        W26381  14.926  16.172  23.543 -0.0755  0.0872  0.0668
83366W        W26382  21.122   2.778   7.383  0.1002  0.0216 -0.1850
83367W        W26383  20.089  23.551  23.559 -0.1356 -0.1484  0.0304
83368W        W26384  15.221  23.108  24.386 -0.3193 -0.1776 -0.1218
83369W        W26385   8.500  30.791   9.932  0.2741 -0.0550  0.0577
83370W        W26386  25.908  26.558   3.957 -0.1657 -0.2421  0.2951
83371W        W26387  13.755  12.363  24.395 -0.0556 -0.2465  0.2325
83372W        W26388   4.289  26.689  26.871  0.2227  0.1651  0.0973
83373W        W26389   0.941  29.475   8.140 -0.0135  0.2011  0.1279
83374W        W26390   3.928  34.646   4.919  0.0582 -0.2318  0.0063
83375W        W26391  22.674   7.748  23.483  0.3695  0.0664 -0.0267
83376W        W26392  25.414  28.600   6.170 -0.0807 -0.0739  0.2147
83377W        W26393  16.952  34.353  14.707 -0.2238 -0.1506  0.1808
83378W        W26394  19.923  22.179  19.511 -0.1404 -0.0245  0.1807
83379W        W26395  11.447  27.024   1.828 -0.1389  0.1793 -0.2357
83380W        W26396  25.029   5.072   4.884 -0.3812  0.2131  0.1021
83381W        W26397  19.118  18.748  26.680  0.2373  0.0530 -0.0027
83382W        W26398  27.778   6.174  22.842 -0.2206  0.2014  0.0987
83383W        W26399  23.820  21.243   0.491  0.0556 -0.1548  0.3142
83384W        W26400  33.481  31.820  22.382 -0.1927  0.1332  0.0780
83385W        W26401  34.708   8.963  27.172 -0.0230  0.0277  0.1241
83386W        W26402   6.489   2.706   8.790 -0.0097 -0.1933 -0.0709
83387W        W26403  11.322  12.633  15.478 -0.1486  0.1359  0.1347
83388W        W26404   4.926  30.960   3.007 -0.0157  0.0214  0.0778
83389W        W26405  17.270  30.871   6.016  0.1670 -0.3910 -0.4410
83390W        W26406   3.951  17.589  28.147 -0.2291  0.1647  0.0834
83391W        W26407  23.897  26.856   0.276  0.0554 -0.0882  0.2103
83392W        W26408  14.556  19.593  27.566 -0.0682  0.3159  0.1232
83393W        W26409  20.810  21.868  16.153 -0.2233 -0.2212 -0.1093
83394W        W26410  29.310  17.893  29.187  0.3207  0.0368 -0.1832
83395W        W26411  14.729  33.208  25.466 -0.0399  0.3906 -0.3000
83396W        W26412  10.152   3.081  26.772  0.1349 -0.2003 -0.2926
83397W        W26413  13.138   0.674   6.615  0.2346 -0.0088 -0.0668
83398W        W26414  33.579   7.869  22.400  0.2265  0.0807 -0.2747
83399W        W26415  12.582  21.759   2.292  0.1268 -0.2712 -0.4121
83400W        W26416  11.550   0.548  15.348  0.3082  0.2952  0.1824
83401W        W26417  25.596  28.963  25.855  0.0545  0.0921  0.1164
83402W        W26418   5.417  26.352   6.984  0.0887 -0.0877  0.1585
83403W        W26419  18.628  24.971   1.890  0.0771 -0.0004  0.0263
83404W        W26420  11.184  15.075   2.311  0.1463  0.3175 -0.1574
83405W        W26421   8.062  29.421   9.238 -0.3569 -0.0052 -0.0720
83406W        W26422  15.040  19.913   7.194  0.0772 -0.2410 -0.0812
83407W        W26423  20.866  30.288  24.452  0.2937  0.0672  0.0821
83408W        W26424  27.421  21.896   2.067  0.1467  0.0087 -0.0908
83409W        W26425  10.201  10.232   3.620  0.2861  0.1419 -0.1870
83410W        W26426  10.934  20.441   1.065 -0.1046 -0.1856 -0.0123
83411W        W26427  14.495  22.871  13.598 -0.0570 -0.1442 -0.0292
83412W        W26428   0.846  29.270   1.970 -0.0878 -0.0112 -0.0588
83413W        W26429  16.215   9.923  27.256  0.2691  0.1562  0.3008
83414W        W26430  25.933  26.023  18.138 -0.0417 -0.0623  0.1769
83415W        W26431  11.944  16.710  20.297  0.1275  0.0233  0.1373
83416W        W26432   7.687  23.111  18.732 -0.1870 -0.1836  0.1264
83417W        W26433   3.315  28.264   1.348  0.0724  0.1747  0.3344
83418W        W26434  16.857  19.063  26.286  0.0228 -0.1510  0.6537
83419W        W26435  15.044  30.024   1.384 -0.1105  0.1064  0.0867
83420W        W26436  33.488  28.441  22.808  0.0522  0.1802 -0.1197
83421W        W26437  18.582  25.750  10.213  0.1336 -0.2091  0.0156
83422W        W26438  16.439  22.170  14.016 -0.0337  0.0539 -0.1652
83423W        W26439   6.707  31.578  10.166 -0.0968 -0.3065 -0.0818
83424W        W26440  11.973   7.904  24.443  0.3152 -0.3510 -0.2806
83425W        W26441   9.670   1.460   2.541  0.1410  0.1462 -0.4061
83426W        W26442  23.851  15.292  27.790 -0.2843  0.3270  0.0010
83427W        W26443  15.432  19.402  27.162 -0.1206 -0.3582  0.0206
83428W        W26444  13.986  32.603  15.508  0.1263  0.2718 -0.0109
83429W        W26445   0.499  32.881   8.325  0.2667  0.1132  0.1504
83430W        W26446   7.299  24.754   5.241  0.1032 -0.0338 -0.2685
83431W        W26447  31.403  25.354  28.189 -0.0337 -0.1152  0.1980
83432W        W26448   8.811  15.199  27.963  0.1049  0.3300  0.0348
83433W        W26449   4.635  28.283  21.958  0.1856 -0.2337  0.0898
83434W        W26450  10.903  29.236   5.551  0.2999  0.2893  0.0905
83435W        W26451   2.093  18.400  25.142 -0.2083  0.1873  0.1123
83436W        W26452   4.995  21.601  19.910  0.0597  0.1621 -0.1220
83437W        W26453  14.860  10.581  16.472 -0.1309 -0.1047  0.2514
83438W        W26454  11.364  22.759  13.048 -0.0998 -0.2166 -0.1020
83439W        W26455  13.400  21.471   5.782 -0.0783  0.0894 -0.1195
83440W        W26456  31.260  22.838   9.828  0.2632  0.4918  0.1746
83441W        W26457   2.761   9.275  22.406  0.0031 -0.0556 -0.0232
83442W        W26458  10.039   9.563   4.425  0.1467  0.0649 -0.1802
83443W        W26459  11.285  21.624  18.368 -0.1713  0.1600  0.1041
83444W        W26460   3.097  20.702   7.920 -0.0595  0.1911  0.1510
83445W        W26461  10.806  18.269  22.227  0.0467 -0.0995  0.2932
83446W        W26462   7.740  15.994  16.987 -0.1853 -0.2411  0.0830
83447W        W26463   9.975  31.009   3.299  0.0810  0.0533 -0.1625
83448W        W26464   7.482   7.948  25.431  0.1571 -0.0366  0.4406
83449W        W26465  17.321  25.911   4.840 -0.0630  0.4418 -0.1118
83450W        W26466  12.594   7.943   7.548  0.2261 -0.0440 -0.0573
83451W        W26467   2.214  33.083  27.278 -0.2539 -0.0075 -0.0489
83452W        W26468   5.393  26.636  15.782 -0.0657  0.0258 -0.0567
83453W        W26469   3.121  34.753  19.722  0.0147 -0.0588  0.0870
83454W        W26470  18.900  18.087  12.834 -0.0144 -0.0622 -0.0500
83455W        W26471  15.678  21.686  24.662 -0.2226 -0.1263 -0.2555
83456W        W26472   6.603   2.513  28.161 -0.0890  0.2568 -0.0164
83457W        W26473   6.971  24.464  25.029 -0.3764  0.2305 -0.0166
83458W        W26474  11.898  24.829   3.988 -0.1251 -0.0966  0.2227
83459W        W26475  31.690  27.899   1.849 -0.2277 -0.0826 -0.0212
83460W        W26476   2.675  11.380   4.793  0.2421 -0.1469 -0.1899
83461W        W26477  16.025  24.207   4.605  0.1572  0.0592  0.0117
83462W        W26478   0.692  31.476   6.630 -0.1025  0.0130  0.2697
83463W        W26479  14.071  22.840  27.897 -0.0665 -0.4191  0.1392
83464W        W26480   4.731  29.255  10.030  0.0379  0.0260 -0.0507
83465W        W26481  16.228  19.661   5.833 -0.0383  0.1007  0.1530
83466W        W26482  10.907   1.098  27.196  0.0794 -0.2665 -0.0667
83467W        W26483   4.936  21.893   9.876  0.1454 -0.0873 -0.0981
83468W        W26484  32.151  17.081   2.764 -0.3645  0.0451  0.1149
83469W        W26485  21.448  28.337  28.260 -0.1157  0.4581 -0.0652
83470W        W26486  29.817   8.563  28.018 -0.1264 -0.1011 -0.4493
83471W        W26487  12.613  32.190  25.121 -0.2334  0.1139 -0.1113
83472W        W26488  23.075  16.300   8.445  0.2743 -0.1788  0.0835
83473W        W26489   3.850   5.520   3.580 -0.1387  0.0884 -0.0254
83474W        W26490  13.733  14.300  21.314  0.3734 -0.1748 -0.1036
83475W        W26491   7.445   1.936   3.687  0.4201  0.0344 -0.0342
83476W        W26492   9.167  30.740  20.886  0.0144  0.0612 -0.1454
83477W        W26493   5.969  27.184  25.746  0.1212 -0.2100  0.1016
83478W        W26494  19.738   0.517  19.539  0.1650 -0.0311  0.1012
83479W        W26495   9.720  13.433   7.315  0.5520  0.2608  0.1328
83480W        W26496  33.832  15.404  24.745 -0.1565  0.0041  0.1809
83481W        W26497  24.075  17.307  29.286  0.0273 -0.0240  0.0298
83482W        W26498  17.250  31.255  10.307 -0.0120  0.1886 -0.1696
83483W        W26499  12.497  10.068   8.808 -0.2694  0.0943  0.2168
83484W        W26500  17.312  13.554   6.536 -0.1539 -0.0292  0.4139
83485W        W26501  10.713  22.659  23.153  0.0182 -0.2390 -0.1183
83486W        W26502  18.605   2.785  23.364  0.1631  0.1500  0.1689
83487W        W26503  27.364  25.451   0.710  0.2211 -0.1173  0.2176
83488W        W26504   3.101  14.148  20.944  0.0774 -0.0408 -0.3137
83489W        W26505  10.619  11.967  17.143  0.2375 -0.1482  0.1212
83490W        W26506  18.255  17.576  27.511  0.1936  0.1411 -0.2566
83491W        W26507   7.419  25.664   4.089 -0.3165 -0.1963  0.2350
83492W        W26508   6.221  17.532  25.954  0.0735  0.1114 -0.3904
83493W        W26509  34.733  28.647   6.655  0.0701 -0.0450  0.1576
83494W        W26510   1.050   1.362  27.720 -0.2671  0.0407 -0.1158
83495W        W26511  23.409  25.513   8.292  0.1113  0.0575  0.2220
83496W        W26512  15.074  34.268   2.398  0.2341  0.1021  0.0182
83497W        W26513  10.344  27.008   8.835  0.0218 -0.2500  0.1994
83498W        W26514  16.247  24.385  18.005 -0.3835 -0.2470 -0.1139
83499W        W26515  26.273  26.807   9.027  0.0572  0.0282  0.2404
83500W        W26516   6.674   5.095  26.657 -0.2494  0.1512 -0.1753
83501W        W26517   8.303  16.101  26.013  0.0072  0.0819  0.3812
83502W        W26518  28.816   3.385   7.786 -0.0506 -0.0504  0.1129
83503W        W26519  13.560   4.902  21.783  0.1911  0.1233 -0.1319
83504W        W26520   9.791  24.264   6.350  0.0204  0.1732  0.3759
83505W        W26521  10.287  16.428   0.973  0.1323  0.2100  0.1973
83506W        W26522   7.289  18.739   1.295  0.3023  0.3977 -0.1176
83507W        W26523   8.361  19.102  26.737  0.1466 -0.2868  0.0547
83508W        W26524  11.371  19.058   1.703 -0.0150 -0.2433 -0.0105
83509W        W26525   6.897  33.483   5.133 -0.1739  0.3165 -0.2662
83510W        W26526  23.124  12.166   2.007  0.1689 -0.0519 -0.2693
83511W        W26527   9.130  26.362  18.124  0.1005 -0.1276 -0.1916
83512W        W26528  12.734  32.519   1.541 -0.1822  0.2386  0.3387
83513W        W26529   5.462  15.467   2.710  0.1807 -0.0596 -0.2334
83514W        W26530  19.091  14.453  13.508 -0.0349  0.0060 -0.1997
83515W        W26531  11.599   3.255   4.600  0.1459  0.0059 -0.0296
83516W        W26532   5.978   7.838  27.931 -0.1917  0.4582 -0.0270
83517W        W26533  34.164  21.368   1.959  0.2222  0.1145 -0.0593
83518W        W26534   6.277   8.274   8.153  0.1632 -0.1434 -0.0940
83519W        W26535  10.089   4.819   7.168 -0.3359  0.0984 -0.0562
83520W        W26536   6.144  28.042   9.334 -0.0885  0.1410 -0.3081
83521W        W26537  32.131   0.301   7.923  0.1252 -0.0451 -0.2368
83522W        W26538  23.222  32.106  25.764 -0.3936 -0.0395  0.1597
83523W        W26539   0.772   3.112  21.471 -0.0288 -0.0065  0.0358
83524W        W26540   3.156  34.433   8.517  0.0969  0.2567  0.1388
83525W        W26541   8.013   0.536   2.650  0.0621 -0.2097 -0.1299
83526W        W26542   5.687  31.187   0.227 -0.0363  0.0010  0.1807
83527W        W26543   4.453  29.901   5.862  0.1289  0.0338  0.0245
83528W        W26544  34.731  31.091   2.573  0.1732 -0.1535  0.2686
83529W        W26545  12.945  24.492  17.599  0.7859  0.1718 -0.2022
83530W        W26546  22.401  19.985  26.079 -0.0739  0.1493  0.0208
83531W        W26547  29.356  25.418   0.262  0.2124 -0.3048 -0.4372
83532W        W26548  21.847  28.401   9.190  0.0677  0.1023  0.1614
83533W        W26549  13.952  23.856  26.236  0.3030  0.1502  0.1510
83534W        W26550  26.748  21.160   4.436  0.3576  0.2728 -0.1425
83535W        W26551  12.050  34.609  26.167  0.0778 -0.1086 -0.3418
83536W        W26552  12.690  19.315  16.463 -0.0752 -0.0893  0.2524
83537W        W26553   9.341  26.678   3.858  0.0326 -0.0040  0.1079
83538W        W26554  15.103  25.483   0.669  0.0225  0.1270 -0.1076
83539W        W26555  19.008   8.755   4.106  0.4722  0.1472  0.1837
83540W        W26556  28.930  21.164  24.814 -0.1143  0.0661  0.0003
83541W        W26557   0.211  10.206   5.473  0.0613 -0.0785  0.0553
83542W        W26558  10.778  26.857   3.478 -0.1164  0.0431  0.1196
83543W        W26559  14.924   7.605   0.138 -0.0745 -0.2224  0.1197
83544W        W26560  16.068   9.673   8.622  0.1342  0.2491  0.1594
83545W        W26561  30.601  19.540   0.569 -0.4391 -0.2741  0.0832
83546W        W26562  17.978  29.830  25.505 -0.0492  0.3156  0.1032
83547W        W26563  10.325  27.390   5.137  0.1834  0.0679 -0.0696
83548W        W26564   3.372  34.357  22.281 -0.1146  0.0959 -0.0358
83549W        W26565   4.578   5.535   6.519  0.0506 -0.2700  0.1501
83550W        W26566   9.817  15.129  27.845  0.2530  0.1316 -0.0644
83551W        W26567  23.081  28.477  19.068  0.1263 -0.2276 -0.0697
83552W        W26568  12.707  33.510   1.752 -0.0682  0.0250 -0.0768
83553W        W26569   0.840  17.868  24.740 -0.1345 -0.0043 -0.4757
83554W        W26570   5.865  30.527   8.016 -0.0900  0.1267  0.0729
83555W        W26571   1.109  23.484   2.005  0.4503  0.2935 -0.0040
83556W        W26572  17.846  17.595  27.741 -0.1889  0.3454  0.2838
83557W        W26573  12.632  22.524  20.437  0.0902 -0.2249  0.1613
83558W        W26574   7.549  32.790   1.127 -0.0355  0.2094 -0.1263
83559W        W26575  14.752  11.167   3.388 -0.0875  0.1554  0.1487
83560W        W26576  12.121  19.644  21.073 -0.1230 -0.2348  0.3517
83561W        W26577  34.141   0.510  23.335  0.0477 -0.1014  0.1876
83562W        W26578  24.333  28.687   2.266 -0.0913  0.4656  0.0223
83563W        W26579   7.153  26.805  24.762 -0.0083 -0.1978 -0.0419
83564W        W26580   8.151   2.779  27.070  0.2981 -0.1335  0.0366
83565W        W26581   6.368  25.055   8.521  0.0400 -0.0174 -0.3321
83566W        W26582  26.669  23.322  23.086  0.3693 -0.0682  0.4020
83567W        W26583  14.552  20.520  22.231  0.1756 -0.0040 -0.0211
83568W        W26584   0.016  20.381   7.591  0.0158  0.3035  0.0385
83569W        W26585  25.805  30.362   9.851  0.0776 -0.2160  0.0334
83570W        W26586  23.686  17.162  28.245  0.0518  0.0460 -0.2415
83571W        W26587  15.703  19.955  19.908  0.0805  0.1245  0.0986
83572W        W26588  22.218  19.093  15.160 -0.3118  0.0299 -0.0212
83573W        W26589   9.159  22.465  18.352  0.1536 -0.4032 -0.1771
83574W        W26590  19.927  14.805   2.683 -0.0940 -0.4133 -0.1170
83575W        W26591  10.535   2.458   4.979  0.2542  0.2460 -0.1738
83576W        W26592  19.673   5.923  13.988 -0.1080  0.1186  0.0781
83577W        W26593  15.154  30.705   5.188  0.0583  0.1779 -0.2000
83578W        W26594   5.954  18.327  21.440 -0.2140 -0.1749  0.3199
83579W        W26595  33.853  23.741  20.147  0.0220  0.0195  0.1028
83580W        W26596  10.509  23.875  21.607 -0.1823 -0.0234 -0.0730
83581W        W26597   3.016  23.960  21.627  0.1356 -0.1522 -0.2000
83582W        W26598   7.076  25.208   9.124  0.1712 -0.1295 -0.2247
83583W        W26599  19.634  21.455  29.275  0.0760  0.1291  0.0559
83584W        W26600  33.074  28.648  14.876 -0.1954 -0.0956 -0.0578
83585W        W26601   8.781   1.229  26.353  0.3512  0.4451  0.0693
83586W        W26602  18.147  26.912  27.317  0.0764  0.3675  0.0302
83587W        W26603  17.975  33.690  17.542 -0.0607  0.0555  0.0374
83588W        W26604   3.402   2.387   3.948 -0.0865 -0.0560  0.0027
83589W        W26605   4.183  13.658   3.937 -0.0359 -0.3956  0.1750
83590W        W26606  25.564  33.218   2.733 -0.1621 -0.0262  0.0595
83591W        W26607  12.770  31.208  22.314  0.0666 -0.0942 -0.1527
83592W        W26608   7.971  24.515  26.785 -0.2574  0.2903 -0.0315
83593W        W26609  18.630  24.609  25.216 -0.0200 -0.1843  0.0545
83594W        W26610  17.270  19.545   4.692  0.0601  0.2156  0.0044
83595W        W26611  22.773  15.978  14.814  0.2829 -0.1639  0.1773
83596W        W26612  23.475  12.823  25.845 -0.1694 -0.1621 -0.1610
83597W        W26613  21.336   1.828   1.477  0.2342  0.0989 -0.0920
83598W        W26614  16.383   0.994  27.205  0.3039 -0.2166  0.0118
83599W        W26615   6.500  23.287  27.639  0.1391  0.1193  0.1611
83600W        W26616   1.577  28.290  10.176 -0.0139 -0.2739 -0.1116
83601W        W26617   8.922  29.583  25.168 -0.3703  0.3518 -0.1665
83602W        W26618  25.568  28.670   0.343 -0.0130 -0.4462  0.3568
83603W        W26619  15.808   0.450   7.626  0.1738  0.1396  0.0450
83604W        W26620  33.672  24.444  21.843 -0.0194  0.0965  0.0204
83605W        W26621   0.876   6.389   3.188 -0.3732  0.0186  0.0797
83606W        W26622   7.815  18.948   7.541  0.2748  0.1716  0.2666
83607W        W26623  23.924  23.206  21.626  0.2036  0.0179 -0.1340
83608W        W26624   4.206  20.403   1.583  0.1283  0.0853  0.0199
83609W        W26625   5.755  33.766   7.784  0.0388  0.0478 -0.2208
83610W        W26626   1.436  20.496  16.257 -0.1159  0.0971 -0.0222
83611W        W26627   8.417   6.544   0.713  0.0382  0.1530  0.0049
83612W        W26628   0.636  11.039  28.816 -0.0145 -0.0919  0.2973
83613W        W26629  17.751  16.976   0.289  0.2791 -0.1199 -0.1508
83614W        W26630   3.700  34.024  18.086 -0.0401 -0.2676 -0.2276
83615W        W26631  29.579  26.322  25.500  0.1857 -0.1047 -0.2545
83616W        W26632  22.658  33.771   9.861 -0.0694  0.0824 -0.1099
83617W        W26633  11.080  25.704   6.612 -0.0192 -0.0002 -0.1270
83618W        W26634  14.196   2.006  14.621 -0.0134  0.0406 -0.0529
83619W        W26635   7.980  27.517   8.525  0.3266  0.5761 -0.3823
83620W        W26636   5.886   7.206   9.387 -0.3303  0.1220  0.0367
83621W        W26637  13.058  16.777  21.690 -0.0444 -0.1505  0.1997
83622W        W26638   5.385  14.278  26.760  0.2122  0.3047 -0.1055
83623W        W26639  32.995  10.196  21.793 -0.3127 -0.1262  0.3886
83624W        W26640  20.255  17.416   6.015  0.1656 -0.4621  0.0856
83625W        W26641  29.378   3.808  10.336  0.1558 -0.2878 -0.0254
83626W        W26642   8.905  20.705  17.034 -0.2330  0.1157  0.1936
83627W        W26643  11.786   2.468   1.044  0.0802  0.1861  0.0028
83628W        W26644   8.657  21.070  23.227 -0.0655 -0.0312  0.1638
83629W        W26645   8.536  24.894   6.084  0.2779  0.0473  0.1618
83630W        W26646  17.544  25.954   2.059  0.1696  0.1261  0.0413
83631W        W26647  31.839  13.277   4.837 -0.2554 -0.0264 -0.0161
83632W        W26648  10.105   4.072  26.667  0.0696 -0.1316  0.0226
83633W        W26649   9.793   7.554  27.328  0.1432  0.3672 -0.1355
83634W        W26650   1.184  29.330   0.934  0.0076  0.1089 -0.1623
83635W        W26651  17.489  19.012  27.203 -0.0534  0.0599  0.1945
83636W        W26652  19.413  28.554  10.774  0.0271 -0.2649 -0.0584
83637W        W26653  11.714  14.706  13.997  0.2079  0.2097  0.3258
83638W        W26654  20.798  17.846   0.756 -0.2061 -0.0712 -0.1925
83639W        W26655  11.673  27.202   2.844  0.2778 -0.1219  0.0738
83640W        W26656   9.226  30.744   0.136 -0.2969 -0.1531 -0.1295
83641W        W26657  10.761  27.075  19.058  0.0515  0.1668 -0.2679
83642W        W26658   0.117  16.773  27.847  0.2061  0.2895  0.0493
83643W        W26659  22.778  23.741   3.806 -0.2405  0.0274 -0.3691
83644W        W26660  20.674  32.966   0.460  0.2766  0.1444  0.2090
83645W        W26661   3.705  25.601   1.351 -0.2782 -0.3850  0.0030
83646W        W26662  31.357  24.046  17.411 -0.0824  0.1811  0.0400
83647W        W26663  12.110  20.942  25.659 -0.1856 -0.3444  0.3984
83648W        W26664  26.156  31.993   1.004 -0.1045 -0.2313 -0.2814
83649W        W26665   9.498  24.866  14.757  0.2739 -0.0070  0.2804
83650W        W26666  30.192  22.818   0.586  0.1362 -0.2997 -0.0808
83651W        W26667   0.041   5.758   0.844 -0.3199 -0.0559  0.1046
83652W        W26668   8.653  21.559  28.605  0.0897 -0.0029  0.3199
83653W        W26669   0.814  14.765  22.349  0.0244  0.2221  0.0963
83654W        W26670  14.345  30.744   1.466 -0.0964 -0.2525 -0.1638
83655W        W26671   7.320   5.629   1.068 -0.1719  0.2707 -0.4226
83656W        W26672  10.330  30.778   0.139  0.1620  0.1353  0.1146
83657W        W26673  23.173  26.521   3.291 -0.1609 -0.1964 -0.0108
83658W        W26674  10.593  28.061  22.816 -0.1409  0.0526 -0.1750
83659W        W26675  17.583  31.234  26.314 -0.0756  0.0782 -0.0532
83660W        W26676  12.360  11.280  19.680  0.1106  0.1024  0.0670
83661W        W26677   8.135  33.518  20.364  0.2910 -0.1920 -0.4091
83662W        W26678   5.423   7.599  19.101 -0.0908 -0.3251 -0.2565
83663W        W26679   6.046  10.213  18.975  0.3184 -0.3312  0.3461
83664W        W26680  30.334   5.293  10.179 -0.1675 -0.1006  0.1300
83665W        W26681   1.766  19.851   5.475  0.0194 -0.0884 -0.0780
83666W        W26682  14.649  11.334  19.756  0.1674  0.1149 -0.0434
83667W        W26683   1.765  11.423   6.548 -0.0288 -0.3226  0.0786
83668W        W26684  14.236  20.299  24.009  0.0461  0.2662  0.2850
83669W        W26685  15.615  30.773   3.869 -0.1111  0.1764  0.1160
83670W        W26686  34.125  23.053   1.005 -0.3798 -0.0378 -0.1259
83671W        W26687  34.173  34.225  20.610 -0.1259  0.2488 -0.0342
83672W        W26688  12.581  16.505   6.006 -0.0621  0.0785 -0.2380
83673W        W26689   2.854  14.454   6.994  0.2608 -0.1153 -0.1692
83674W        W26690   5.639   2.559   7.644 -0.0172 -0.0683  0.2164
83675W        W26691  12.199  17.914   4.346 -0.2615  0.1770 -0.0086
83676W        W26692  18.241  21.983   6.076 -0.1022 -0.3642  0.0785
83677W        W26693  14.087  21.633  16.679 -0.2120  0.2101 -0.0311
83678W        W26694  21.043  22.895   2.541  0.0322  0.3634  0.2288
83679W        W26695   0.218  18.530   1.653 -0.0028 -0.2100  0.0684
83680W        W26696   8.262  23.711   3.666 -0.3289  0.0184  0.2911
83681W        W26697   9.826  25.568   7.103 -0.0456  0.1683  0.0325
83682W        W26698  25.707  18.633   6.929  0.1494  0.0752  0.2162
83683W        W26699  22.970  10.476  27.787 -0.3896 -0.2397 -0.1196
83684W        W26700  18.815  25.160  28.930 -0.3089 -0.1003 -0.4903
83685W        W26701   4.342   1.408  25.778 -0.2229 -0.2883 -0.1417
83686W        W26702   3.141  11.431   4.395  0.3126  0.1579  0.0349
83687W        W26703   8.915  29.763  23.546  0.2766  0.0107  0.1972
83688W        W26704  10.905  32.136   1.035  0.1198 -0.0919  0.0576
83689W        W26705  24.501   0.083   7.332 -0.0334 -0.1059  0.1405
83690W        W26706  10.920  20.784   5.770 -0.2545  0.3093  0.0525
83691W        W26707   0.312  31.067  10.148 -0.1067 -0.1069  0.1222
83692W        W26708   7.516  28.225   8.631 -0.2026 -0.0211  0.1126
83693W        W26709   5.964  24.019  20.281  0.1314  0.2075  0.1366
83694W        W26710   2.023  30.172   9.520 -0.0711 -0.0857  0.1021
83695W        W26711   9.406  32.867   0.892  0.2035  0.0258 -0.1283
83696W        W26712  34.343  22.226   9.957 -0.2116  0.1934  0.0427
83697W        W26713  15.261  18.796  25.840 -0.2774  0.1639  0.1467
83698W        W26714  13.394  24.029   0.107  0.0433 -0.2503  0.0057
83699W        W26715  18.503  26.070   6.518 -0.2874  0.2217  0.0653
83700W        W26716   9.897  19.491  26.843 -0.0046 -0.0061  0.0721
83701W        W26717   0.976  16.186  17.345  0.0050  0.2392  0.3361
83702W        W26718  15.390  18.870  20.841  0.1874 -0.1158  0.1790
83703W        W26719  28.468  21.307  24.471 -0.0180 -0.5025 -0.4243
83704W        W26720  11.763  27.265  20.695 -0.0015 -0.1515 -0.0943
83705W        W26721  17.322  23.698   7.584 -0.0842 -0.0220  0.3117
83706W        W26722  11.293  16.255  27.424 -0.0828 -0.1279  0.0868
83707W        W26723  17.210   4.302   1.914 -0.1988 -0.5770  0.3030
83708W        W26724   3.858  19.621  15.968 -0.2372  0.1100 -0.0776
83709W        W26725   3.704  13.776  22.451  0.1014  0.3462  0.1617
83710W        W26726  22.609  33.763  20.426 -0.0380  0.1203  0.3690
83711W        W26727  31.832  25.661   6.564  0.2876 -0.0673  0.1010
83712W        W26728  11.598  20.076   2.034 -0.0386 -0.0594  0.0359
83713W        W26729   5.623  29.085   1.864  0.3654  0.1394 -0.0925
83714W        W26730  16.762  23.039  17.038 -0.2264 -0.0812  0.3153
83715W        W26731  22.258  21.289  13.730  0.0348 -0.2449 -0.1627
83716W        W26732  33.102  23.026  24.685 -0.0049 -0.1583 -0.1983
83717W        W26733  22.806  29.961  10.537 -0.1155  0.0989 -0.0041
83718W        W26734   5.343  22.254  28.161  0.1751 -0.1276 -0.2660
83719W        W26735  19.968   7.888   0.035  0.2546  0.0618  0.2751
83720W        W26736  31.179  15.309   9.710 -0.1335  0.1299  0.1960
83721W        W26737  32.741  11.891  26.701 -0.1618 -0.0774 -0.0209
83722W        W26738  33.042  28.104   5.762  0.1721  0.1659 -0.2719
83723W        W26739   4.749   5.037   6.138  0.2110  0.2620 -0.0241
83724W        W26740  18.228  26.131   8.721 -0.0307 -0.3811  0.0164
83725W        W26741  12.563  26.861   8.506  0.5514  0.0775  0.3695
83726W        W26742   9.879  27.363  27.684 -0.0156 -0.2561 -0.2278
83727W        W26743   7.092  25.280  17.964 -0.0504  0.1209  0.4091
83728W        W26744  23.259  25.559   6.861 -0.2958  0.0971 -0.0994
83729W        W26745   0.125  18.631   4.926  0.2282  0.0018  0.0591
83730W        W26746  15.777  16.690  17.894  0.1955  0.0127  0.5028
83731W        W26747  23.095  15.463  17.551 -0.2104 -0.3038 -0.0326
83732W        W26748  27.813   7.805  22.212  0.1511 -0.0584  0.0634
83733W        W26749   4.706   5.126   5.595  0.3071 -0.1110  0.0462
83734W        W26750  19.637  21.587  18.275  0.0997  0.1253 -0.0566
83735W        W26751  13.401  22.116  24.854 -0.0644  0.1074 -0.0549
83736W        W26752  13.066  32.497  20.867 -0.3580 -0.1227  0.2231
83737W        W26753   8.493   7.796  23.483 -0.0751  0.0766  0.1595
83738W        W26754  15.612  24.020   8.565 -0.2163 -0.0760  0.4777
83739W        W26755  10.140   0.394   3.534 -0.0006 -0.0513  0.2441
83740W        W26756  23.265  15.705   1.235  0.0503  0.0752 -0.1150
83741W        W26757  17.923  17.630  26.518  0.0077 -0.0782  0.2349
83742W        W26758  33.430  17.205   8.833  0.3304  0.1206  0.0317
83743W        W26759  16.330  20.952  20.530  0.0216 -0.1474  0.1143
83744W        W26760  23.997  23.054   7.820  0.0223 -0.3745 -0.0961
83745W        W26761  32.452  17.527  23.087  0.1190  0.2034 -0.4405
83746W        W26762  14.732  26.865   6.553  0.1550  0.1647 -0.1233
83747W        W26763  30.742  22.370   6.929 -0.0795  0.2479  0.1101
83748W        W26764  16.187   9.240   8.820  0.1256  0.2592 -0.2184
83749W        W26765  18.756   1.736   2.100 -0.0676 -0.5249 -0.2308
83750W        W26766  28.355  24.204   4.132 -0.0029  0.0267 -0.0496
83751W        W26767  20.596  18.812  23.149  0.0197 -0.2012  0.3561
83752W        W26768  12.369  30.205   5.888  0.2513  0.0868 -0.0005
83753W        W26769   6.477  23.970  17.603  0.1656  0.0425 -0.0603
83754W        W26770  14.135  34.520  23.435 -0.0309  0.4988  0.2050
83755W        W26771   3.438  21.045  23.306 -0.2300  0.0027  0.3646
83756W        W26772   6.441  18.399   3.896 -0.3197 -0.2295 -0.0445
83757W        W26773  14.001   1.808   2.672  0.1660  0.0085 -0.0267
83758W        W26774  26.006  12.706  28.877  0.0581  0.2911  0.2428
83759W        W26775   2.421  14.973   3.186  0.0202  0.3616 -0.1060
83760W        W26776  34.137   1.431  28.143  0.0398  0.2278  0.2623
83761W        W26777  13.273  20.450   7.612 -0.1668 -0.0876 -0.0133
83762W        W26778  19.878  24.222   8.774 -0.1117  0.1646  0.0802
83763W        W26779  18.861  31.401   4.296  0.1489 -0.0737 -0.0605
83764W        W26780  10.744  13.282   0.800  0.2023 -0.0416 -0.1951
83765W        W26781  34.651  15.305   5.886 -0.3103  0.3118 -0.1516
83766W        W26782  28.566  26.776  11.335 -0.0274 -0.1105  0.1670
83767W        W26783  14.026   9.877  21.239 -0.1220  0.1388 -0.1527
83768W        W26784   2.242  21.169   8.427  0.1010  0.0318  0.2791
83769W        W26785  14.459  32.705   3.741  0.1431 -0.1012 -0.0291
83770W        W26786   2.733  19.811   5.128  0.0486  0.3058 -0.0498
83771W        W26787  18.913  31.622  28.185  0.1359  0.0149  0.1208
83772W        W26788   6.602  27.457   7.129  0.0351  0.2302  0.0480
83773W        W26789  30.570   4.321   3.323  0.1087  0.2963  0.1366
83774W        W26790  23.209   5.663   7.852 -0.0708 -0.1125 -0.0374
83775W        W26791  28.740  10.758   6.171  0.1687  0.0481  0.0902
83776W        W26792  21.709   4.472   9.454  0.2196  0.1919  0.2279
83777W        W26793   2.111  22.084   8.321 -0.0589  0.1132  0.1861
83778W        W26794   9.742  28.367  29.147  0.0248  0.2005 -0.1149
83779W        W26795  23.651  28.665   6.248 -0.2046 -0.4009 -0.3369
83780W        W26796  12.588   3.555   4.077 -0.1337 -0.1146 -0.2558
83781W        W26797  32.921   6.914   0.925 -0.1670  0.1764 -0.2579
83782W        W26798  11.628  14.187   8.485 -0.0173  0.0962 -0.2476
83783W        W26799  20.565   8.464   8.359  0.0720 -0.0185 -0.0445
83784W        W26800  20.135  22.795   3.083  0.3127  0.0609  0.1862
83785W        W26801  20.878  26.976   4.666 -0.1488  0.0162 -0.1691
83786W        W26802   8.396  32.735   5.219 -0.1975  0.0774  0.0002
83787W        W26803   4.276  16.495   3.686  0.2315  0.0927 -0.1710
83788W        W26804  12.961  16.871   0.418 -0.0591  0.1516  0.2687
83789W        W26805  23.845  26.675   7.670  0.0312 -0.1048  0.0181
83790W        W26806   6.358  20.397  28.067 -0.0033  0.3242  0.1341
83791W        W26807  15.065  19.866  25.178  0.0266  0.3123 -0.0585
83792W        W26808   5.498   3.102   1.262 -0.0108  0.0322 -0.2911
83793W        W26809  23.389  25.336  23.627  0.0368 -0.1601  0.1169
83794W        W26810   9.151   0.471   0.971 -0.1610  0.2059  0.2099
83795W        W26811   8.097  19.035   6.357  0.2627  0.0754 -0.0465
83796W        W26812  22.358  17.188  26.045  0.0886 -0.2624 -0.3729
83797W        W26813  17.215  21.144  23.425 -0.0172 -0.2411 -0.1614
83798W        W26814   4.003  12.489   9.650 -0.1321  0.3052 -0.0173
83799W        W26815   3.321  15.799   0.680  0.1509  0.4792 -0.2720
83800W        W26816  10.238  27.759  16.445  0.0720  0.1459 -0.1548
83801W        W26817   4.758  24.300   7.647  0.5807  0.3262 -0.3477
83802W        W26818  25.558  27.992   9.247  0.0062 -0.1544  0.0192
83803W        W26819   5.189  20.830   1.384  0.0562 -0.1022  0.2293
83804W        W26820  17.322  23.511  23.423  0.1172 -0.4231  0.0077
83805W        W26821   5.508  12.102   4.545 -0.0655 -0.0282 -0.0517
83806W        W26822   5.070  19.392  17.472  0.1209 -0.2692 -0.3550
83807W        W26823  33.224   9.161   6.735  0.3619 -0.0607  0.0783
83808W        W26824   1.628  19.305   6.191  0.0116 -0.2675  0.2033
83809W        W26825  19.146  30.471   6.887  0.1369 -0.1277  0.2248
83810W        W26826   4.635  25.387   0.765 -0.0307  0.2374  0.1664
83811W        W26827  16.408  24.348   0.695  0.3459  0.0624  0.0885
83812W        W26828  16.146  29.532   7.505  0.1480  0.0432  0.2077
83813W        W26829  13.590  29.065   7.320  0.1559  0.0811 -0.2027
83814W        W26830  33.785  13.754  11.091  0.1200  0.1233  0.3283
83815W        W26831   3.053   9.092   9.863  0.1851 -0.0988  0.0123
83816W        W26832  16.958  24.416   1.905 -0.0556 -0.0301 -0.1647
83817W        W26833   1.467  28.092  28.092  0.2517 -0.1133 -0.2302
83818W        W26834  27.193  12.437  25.649  0.0546 -0.0735  0.0300
83819W        W26835  25.625   4.403   5.338  0.0080  0.1427 -0.0096
83820W        W26836  30.092  31.689   8.648 -0.2532 -0.1062  0.1357
83821W        W26837  18.206  29.441   7.559 -0.0715 -0.1304 -0.1666
83822W        W26838  25.519  29.532  10.665  0.1046  0.0408  0.1449
83823W        W26839   2.207  20.032  26.308 -0.3298 -0.0855  0.1910
83824W        W26840   3.388  23.965  20.237  0.1687  0.1781  0.2475
83825W        W26841   9.913  19.836   2.382 -0.3595  0.0148 -0.0083
83826W        W26842  27.482  24.700  24.472  0.2322  0.2298 -0.0065
83827W        W26843   2.724  34.164  21.703 -0.3654  0.0497  0.0407
83828W        W26844  31.162  18.760   7.334  0.1242 -0.1847 -0.2340
83829W        W26845  23.499  22.840   7.742  0.2704 -0.1047 -0.0414
83830W        W26846  29.679  20.304   1.339  0.1707 -0.1736  0.0374
83831W        W26847  16.848  12.556   2.267 -0.0385  0.2515  0.3433
83832W        W26848  14.886  26.500  28.107  0.5863  0.1791 -0.2579
83833W        W26849  19.564  28.019  25.619  0.1292 -0.3043 -0.0378
83834W        W26850   6.262  28.998   9.745  0.0173  0.0977 -0.0421
83835W        W26851  14.138  33.038   9.347  0.1126 -0.1503  0.0175
83836W        W26852   4.137  21.675   1.173 -0.3287 -0.0609  0.0501
83837W        W26853   6.172  18.577   7.806 -0.0847  0.0962 -0.3033
83838W        W26854   4.439  23.421   7.230 -0.0944  0.0629 -0.1287
83839W        W26855   6.986  20.604   5.524 -0.0497 -0.3893  0.0351
83840W        W26856  10.152  30.219  21.664  0.0882  0.0511 -0.1008
83841W        W26857   6.590  22.197   0.172 -0.0279  0.1115 -0.4522
83842W        W26858  12.967  27.849   8.096  0.1167 -0.0302  0.0157
83843W        W26859   1.884  20.156  26.678 -0.0253  0.0665 -0.0264
83844W        W26860  14.699  21.987  22.286  0.2477 -0.0964  0.1463
83845W        W26861   3.413  27.545   8.369  0.0389 -0.0900 -0.0533
83846W        W26862   0.791  28.944  22.133  0.1430  0.1978  0.1063
83847W        W26863  22.470  21.148   5.735  0.3014  0.0091  0.0606
83848W        W26864  15.059  13.568  26.907  0.0982 -0.0704  0.0525
83849W        W26865  16.740  24.069   7.965 -0.3763 -0.1830 -0.3020
83850W        W26866  14.451  32.829  18.406  0.0241  0.1255 -0.1975
83851W        W26867   7.917  32.515   5.559 -0.0672  0.0624  0.2782
83852W        W26868   8.409  10.665   0.612 -0.1600 -0.2795 -0.0016
83853W        W26869  14.955  25.601  22.178 -0.2379 -0.2035 -0.2315
83854W        W26870  14.135  28.657   6.336  0.1788 -0.1081  0.0949
83855W        W26871   8.778  25.437  23.675  0.0424 -0.4012 -0.0121
83856W        W26872  14.319  21.683   7.886  0.0374  0.1954  0.1224
83857W        W26873   8.844   0.894  24.543  0.1193  0.0238 -0.0671
83858W        W26874  15.267  16.652  27.578  0.1617 -0.1161 -0.1591
83859W        W26875   2.297  23.302   0.892  0.0607 -0.0723 -0.0873
83860W        W26876  19.422   3.223   4.056  0.1969 -0.2519  0.2156
83861W        W26877  10.546  15.135  28.371  0.1796 -0.1539 -0.1528
83862W        W26878  22.506  23.869  18.359 -0.1384  0.0645  0.1893
83863W        W26879  13.424  21.589  20.502 -0.0686 -0.1030  0.2861
83864W        W26880  34.335  21.894   6.574 -0.1966  0.3048 -0.1102
83865W        W26881   1.859  22.686  10.161  0.2034 -0.2906  0.3627
83866W        W26882   7.772  27.315  25.218  0.0273  0.1240  0.1066
83867W        W26883   7.327  21.273  28.276  0.0485 -0.0112  0.2074
83868W        W26884   2.334  24.015   1.264 -0.2442  0.0862 -0.0391
83869W        W26885  31.160  18.048  29.129  0.0622 -0.2017 -0.0353
83870W        W26886  17.213  19.754  27.850 -0.1052  0.1361 -0.1112
83871W        W26887  10.168  22.354  17.584 -0.0188 -0.0782 -0.3633
83872W        W26888  14.074  16.386   0.970  0.0009  0.0030 -0.1554
83873W        W26889  13.398  18.339   1.183 -0.0805 -0.0256  0.0199
83874W        W26890   7.936   2.008   3.648  0.0676  0.2301 -0.0417
83875W        W26891   7.910   9.466   4.260 -0.2540 -0.1433  0.0817
83876W        W26892  31.280  22.259   5.699 -0.1237 -0.0298  0.3136
83877W        W26893  14.194  22.748  27.015 -0.0235 -0.0435 -0.0741
83878W        W26894  10.614  19.505  29.074 -0.0760  0.0276  0.0159
83879W        W26895  13.437  27.881   8.276  0.1258  0.0498  0.0871
83880W        W26896  34.057  29.579   2.808 -0.0913  0.0223  0.1595
83881W        W26897   5.564  16.354   6.412  0.1951  0.2515  0.2240
83882W        W26898  31.182  17.591  25.398 -0.1714 -0.1099 -0.1219
83883W        W26899  29.212  23.370  25.169 -0.1205 -0.2737 -0.1721
83884W        W26900  32.622  26.681   0.667  0.0815  0.1885  0.2848
83885W        W26901   6.879  28.270   8.504  0.0284 -0.3224  0.0490
83886W        W26902  32.355   3.533   8.386 -0.1074  0.4716 -0.0365
83887W        W26903  27.275  14.681   4.362 -0.0179  0.3063  0.0533
83888W        W26904   8.080  26.534  22.265 -0.1815  0.0799  0.2663
83889W        W26905  26.941   8.372   3.759  0.0568  0.0175  0.0007
83890W        W26906  12.246   3.482   9.228 -0.0957 -0.2943  0.0155
83891W        W26907  11.022  21.094  27.707 -0.3039  0.2828 -0.1731
83892W        W26908  22.186  19.384  27.224 -0.0763 -0.3314 -0.2462
83893W        W26909  31.061  23.845   3.371  0.0377  0.1984  0.1417
83894W        W26910  16.355   3.935   6.981 -0.0955 -0.1286  0.3375
83895W        W26911  18.476  29.371   6.675 -0.1251 -0.1188  0.1385
83896W        W26912  17.193   9.839   4.964 -0.2646 -0.1522  0.2433
83897W        W26913  15.566  18.115  13.168  0.1257  0.1656 -0.1667
83898W        W26914   5.255  34.632  27.685 -0.1684 -0.1780  0.1907
83899W        W26915  15.749  19.372  22.949  0.1783 -0.3303  0.0786
83900W        W26916   8.926  22.147  23.478  0.0309  0.1714  0.3243
83901W        W26917  24.375  33.790  25.726 -0.1219 -0.1416 -0.1508
83902W        W26918  11.153  25.635  26.952  0.2268 -0.5657 -0.2121
83903W        W26919  23.104  32.747  27.157 -0.1640 -0.0302  0.0669
83904W        W26920  14.141  30.440  28.944 -0.0163  0.2173  0.0257
83905W        W26921   7.357  24.199  20.411  0.0100  0.0537  0.1123
83906W        W26922  17.285  22.881   1.969 -0.2579  0.3083 -0.0027
83907W        W26923  22.192  22.600   0.866 -0.1311  0.1422 -0.3182
83908W        W26924   8.761  22.542   6.312 -0.1515 -0.1824 -0.1787
83909W        W26925  16.856  20.203  26.840  0.1055 -0.2369 -0.2215
83910W        W26926   1.894  15.096  20.144  0.1467  0.0303 -0.3384
83911W        W26927  16.533  23.972  28.463  0.2528  0.0420  0.2880
83912W        W26928  30.698  19.327   1.060  0.0317 -0.2804 -0.1342
83913W        W26929  27.051   8.928   2.453  0.1708  0.2117  0.0675
83914W        W26930  30.247  20.117   5.346 -0.0990  0.2860 -0.2170
83915W        W26931  34.471   9.388  27.598  0.0964 -0.2779  0.0478
83916W        W26932   0.345  19.746  26.641  0.3857  0.1273 -0.2249
83917W        W26933  12.039   6.709  14.464  0.5143  0.0456  0.0567
83918W        W26934  17.566  17.611   5.251 -0.1442  0.0534  0.0949
83919W        W26935  18.999  22.635   4.622  0.0379 -0.1409  0.0665
83920W        W26936   7.278   7.681   0.016 -0.0600 -0.0083  0.0366
83921W        W26937   9.896  10.693   8.386  0.0780  0.0093  0.1233
83922W        W26938   9.907  29.796   0.626  0.1938  0.0478  0.2321
83923W        W26939  33.293  21.804   4.440  0.0050  0.2567  0.0174
83924W        W26940  16.336  29.467  16.660 -0.2059  0.0663 -0.1092
83925W        W26941  15.186  15.681   2.202  0.0079  0.0063 -0.0254
83926W        W26942   5.941  13.423   4.695  0.0190  0.2219 -0.1612
83927W        W26943   5.971  22.173  26.550  0.0037 -0.1014  0.0102
83928W        W26944   4.084   1.847  10.460 -0.0140 -0.1797 -0.2189
83929W        W26945  28.956  22.691  16.545 -0.1751 -0.0940  0.0017
83930W        W26946  11.652   6.593  23.712 -0.1093  0.1498 -0.0859
83931W        W26947  34.173  22.058  10.414  0.1549  0.2319  0.1519
83932W        W26948  13.318   9.556  24.165  0.4148  0.1220  0.0120
83933W        W26949   9.349  20.520   4.705  0.0607 -0.0619  0.2126
83934W        W26950   1.311  22.546  25.867 -0.3871 -0.1706 -0.0600
83935W        W26951  18.018  28.929   7.492  0.1819  0.1478 -0.0871
83936W        W26952  15.986  30.700   6.962  0.1140  0.1755  0.1068
83937W        W26953   6.849  32.187  20.592 -0.1816 -0.4389 -0.2107
83938W        W26954  16.202  31.641   6.785 -0.2008 -0.0773 -0.0146
83939W        W26955   9.807   0.673   8.545 -0.0137 -0.1484 -0.3055
83940W        W26956  11.037  27.544   3.928 -0.0454  0.2794 -0.1917
83941W        W26957  33.776  25.222   9.739  0.2126 -0.0911  0.1006
83942W        W26958  12.300   7.952   7.118  0.1924 -0.0244 -0.2067
83943W        W26959   3.264  26.771  26.987  0.5567 -0.5048 -0.3944
83944W        W26960   1.208   8.018   1.319  0.2440 -0.0284  0.2867
83945W        W26961   9.055  19.611  21.574  0.1575  0.2132 -0.3130
83946W        W26962  30.016  23.520   3.119  0.2410 -0.1490 -0.0124
83947W        W26963   2.868  25.147  17.569 -0.1887  0.2736 -0.1766
83948W        W26964  24.654  20.927   0.963 -0.0320 -0.2561  0.1296
83949W        W26965  11.011  21.294   4.415 -0.0730 -0.3298  0.1876
83950W        W26966  33.035  31.396   0.650 -0.1249 -0.1940 -0.3588
83951W        W26967   4.356  33.313   7.422 -0.2626  0.0569 -0.0900
83952W        W26968  20.480   1.324   8.571 -0.1438 -0.0067 -0.0318
83953W        W26969   9.527  26.274   3.374 -0.0649 -0.1405 -0.0264
83954W        W26970  34.118   5.298  27.554  0.1913  0.5012  0.1127
83955W        W26971   4.055  27.977   0.696 -0.1627  0.1526 -0.1492
83956W        W26972  29.352  22.983  29.161  0.0158  0.0245  0.0175
83957W        W26973   3.745  34.687   4.394 -0.1340  0.0349  0.1663
83958W        W26974  11.148  22.177  25.508  0.0290 -0.3781 -0.1489
83959W        W26975  30.381  29.209   4.090  0.0289  0.0362 -0.0763
83960W        W26976   4.777  31.909  23.332 -0.2095 -0.0021  0.2543
83961W        W26977  10.564   7.436   2.305 -0.1925 -0.1193 -0.2120
83962W        W26978  24.279  24.536  15.449 -0.1723  0.0246  0.0336
83963W        W26979   3.726  27.209   6.539  0.0951 -0.1745 -0.0434
83964W        W26980   4.123  18.378  22.627  0.0215 -0.0509 -0.1003
83965W        W26981  32.270  23.491   6.119 -0.0527  0.2511 -0.1389
83966W        W26982  13.057   6.058  24.153 -0.0907 -0.1015  0.2124
83967W        W26983  25.639  23.341  28.750  0.3102  0.0674  0.0997
83968W        W26984  12.740  26.295  19.671  0.0657 -0.0221 -0.2512
83969W        W26985  19.274  30.828   5.187  0.1591  0.1788 -0.4022
83970W        W26986   1.605  23.262   4.877  0.0657  0.0516  0.0817
83971W        W26987  15.325  13.690  27.801 -0.3770  0.0113 -0.1206
83972W        W26988  13.960  23.390   6.426  0.0257 -0.2623  0.0136
83973W        W26989  29.329  30.048   1.140  0.0125  0.0240  0.1210
83974W        W26990   9.402  28.965  16.864  0.1458 -0.2051 -0.0442
83975W        W26991   2.225  27.505  15.945  0.3775 -0.1612  0.5031
83976W        W26992   5.864  13.516  22.829  0.2395  0.2829 -0.2547
83977W        W26993  17.175  14.970  24.161  0.0660  0.1534  0.2181
83978W        W26994   4.667   2.167   9.816 -0.1227  0.1630  0.2653
83979W        W26995  11.648  31.985   0.247  0.0426 -0.2794  0.3874
83980W        W26996  20.040  13.946   5.094 -0.4735  0.1729 -0.0589
83981W        W26997   2.523  15.203  20.474 -0.3224  0.1776 -0.0703
83982W        W26998  13.732  29.246  22.383 -0.1226  0.2612  0.0328
83983W        W26999  27.569  19.809   0.246 -0.0714  0.0451  0.1645
83984W        W27000   3.853  12.242   1.612 -0.0758  0.0367 -0.0336
83985W        W27001   7.031   0.229   5.975 -0.1444  0.1850  0.0337
83986W        W27002  23.287  25.592  25.348 -0.3650  0.1879 -0.0347
83987W        W27003  10.159  23.396   5.177 -0.1033  0.1721 -0.0244
83988W        W27004   4.111  24.994  28.897 -0.0257 -0.2355  0.1225
83989W        W27005   3.626  34.718   8.478 -0.0895  0.1000 -0.2193
83990W        W27006  32.508  25.274   1.715 -0.0562 -0.2319  0.3150
83991W        W27007   5.830  18.691   0.043 -0.0557  0.4391  0.2743
83992W        W27008  18.229  30.319  10.053  0.1702 -0.1867 -0.1107
83993W        W27009   6.987  19.473  14.666 -0.2206  0.2751  0.1100
83994W        W27010  20.114   7.358  23.297 -0.0607 -0.0739 -0.3187
83995W        W27011  19.525  18.750  28.043  0.1582  0.0106  0.4459
83996W        W27012  17.237  19.023  28.986 -0.0754 -0.1195 -0.1026
83997W        W27013   8.190  19.646  16.920 -0.1041 -0.0530 -0.2883
83998W        W27014  11.428  20.051  27.847  0.2374  0.0735  0.1422
83999W        W27015  14.155  34.194  21.577 -0.0478  0.1089  0.0300
84000W        W27016   6.333  17.006  24.052  0.1430 -0.3386  0.1932
84001W        W27017  24.924  18.398   8.990 -0.0757  0.2405  0.1364
84002W        W27018  34.058  31.790   4.396  0.1910 -0.0184 -0.3328
84003W        W27019  10.614  32.011   2.176  0.0990 -0.1591  0.0178
84004W        W27020  17.756  15.857  23.028  0.1324 -0.1699 -0.1387
84005W        W27021   8.856  11.965   5.147  0.0508  0.1625 -0.1269
84006W        W27022   4.070   1.652   7.572  0.1315  0.0243 -0.1375
84007W        W27023  13.658  24.230   3.166 -0.0776 -0.0891 -0.2093
84008W        W27024  17.643  23.669  28.955  0.0599 -0.0992 -0.0156
84009W        W27025   4.612  28.255  26.238 -0.0106 -0.3581  0.0328
84010W        W27026  22.218  14.936  21.651 -0.1124 -0.0717  0.1681
84011W        W27027  27.478  25.528   6.167 -0.1500 -0.0005 -0.1604
84012W        W27028  20.543   8.014  10.109  0.0648 -0.1176 -0.0949
84013W        W27029   4.862  31.277  18.326  0.0036  0.1498  0.2153
84014W        W27030  14.643   6.024  25.496 -0.0811  0.0934  0.0129
84015W        W27031  29.334  29.632  24.927 -0.1208  0.0131 -0.0132
84016W        W27032  22.046  34.407  24.438  0.1096 -0.1383  0.1097
84017W        W27033  13.771   5.461  19.945  0.0233 -0.4129 -0.3037
84018W        W27034  12.168   2.093   3.502 -0.2268  0.0162 -0.1099
84019W        W27035   4.669   1.008  25.127  0.5070  0.0763  0.2181
84020W        W27036  12.379  32.889  28.248 -0.0147 -0.0965  0.0195
84021W        W27037   5.032  29.609   1.680  0.1702  0.0483  0.2390
84022W        W27038  13.431   3.087  26.450 -0.0368  0.1608 -0.1526
84023W        W27039  16.838  21.117   3.860 -0.2847 -0.5052 -0.1334
84024W        W27040  29.249  28.009  27.896  0.1804  0.2053 -0.1476
84025W        W27041  26.989  13.137   8.709  0.0985 -0.2264  0.2007
84026W        W27042   4.286  14.779  27.997  0.1351 -0.0628  0.0136
84027W        W27043  18.554   3.570   3.876 -0.1148 -0.0730  0.1345
84028W        W27044   1.413  20.092   3.154  0.1019  0.2862  0.2024
84029W        W27045  33.706  22.689  20.876  0.2892  0.1119 -0.0758
84030W        W27046  13.383  12.935   4.201 -0.1968 -0.2210  0.3235
84031W        W27047   9.577  21.506   6.413 -0.0536  0.1255 -0.2984
84032W        W27048  15.582  23.812   6.311  0.1316 -0.1466  0.0905
84033W        W27049  28.386   0.651  10.960 -0.2601  0.2628  0.1517
84034W        W27050  12.070  34.470  23.954  0.1324  0.2009  0.1076
84035W        W27051   0.785  13.807  24.170 -0.0679  0.2311 -0.0778
84036W        W27052   7.959  26.203   1.611  0.0920 -0.5422  0.1430
84037W        W27053  15.068  33.541  10.280  0.0488 -0.0183 -0.0453
84038W        W27054  13.399  21.291   2.870 -0.3851 -0.1996  0.0529
84039W        W27055  18.240  30.478  18.396 -0.1162 -0.2177 -0.1916
84040W        W27056  21.624  14.795  21.494  0.0023  0.0175 -0.0689
84041W        W27057   2.445  13.053   4.809 -0.0218 -0.1554  0.0182
84042W        W27058  24.089  20.651   5.031 -0.1389 -0.3521  0.1578
84043W        W27059  19.469  17.710  25.281  0.2783  0.2677 -0.1786
84044W        W27060   8.755   8.458   7.206  0.1370 -0.0079  0.1313
84045W        W27061   4.792   3.207  23.865  0.2562  0.0771 -0.0677
84046W        W27062  27.683   7.638  10.336 -0.0554 -0.1538 -0.0168
84047W        W27063  31.361  20.538  23.622 -0.1459 -0.0700 -0.3023
84048W        W27064   8.818   4.516   1.632 -0.0269  0.1368 -0.3495
84049W        W27065  16.169  20.576  25.033 -0.1324 -0.1643 -0.0561
84050W        W27066  24.885  25.303   0.004 -0.1476  0.1100  0.0245
84051W        W27067   0.976  21.948   0.441 -0.1327 -0.0320 -0.1466
84052W        W27068  13.282  20.797   2.710  0.0513  0.3825  0.0505
84053W        W27069  17.695  22.434   3.446 -0.1516 -0.0224  0.0036
84054W        W27070  25.924  29.190   9.924 -0.0766 -0.0091  0.1692
84055W        W27071   7.010  25.131  25.785  0.1151  0.2434  0.0206
84056W        W27072  33.107  26.856   1.888  0.0835 -0.1762  0.1865
84057W        W27073   5.096  31.397   6.711  0.0676  0.1815  0.0515
84058W        W27074  11.216  14.053   5.719 -0.0553 -0.1877 -0.2419
84059W        W27075  29.739  26.581   4.570 -0.1351 -0.1191 -0.2666
84060W        W27076   5.346  33.222  24.007 -0.0054 -0.1100 -0.0251
84061W        W27077  23.221  34.457   9.242  0.1494 -0.2326 -0.0704
84062W        W27078   9.777  21.389   0.861  0.2250 -0.0860 -0.1233
84063W        W27079   2.374   7.343  27.933 -0.0953  0.0180 -0.1006
84064W        W27080  30.677  29.845   8.507  0.1437  0.3731 -0.1167
84065W        W27081  13.070  11.621  25.503  0.0252 -0.2471  0.1337
84066W        W27082  16.048  20.907   4.372 -0.2458 -0.1307  0.0069
84067W        W27083  12.823  32.751   7.765 -0.1294  0.1017 -0.0123
84068W        W27084   3.539   4.367   2.951  0.0146  0.0550  0.0915
84069W        W27085  11.444  23.117  23.444 -0.0810 -0.0557  0.1084
84070W        W27086  17.847  21.391   8.523 -0.1731 -0.0654  0.2654
84071W        W27087   4.831  13.460   9.121 -0.3488 -0.2343 -0.2002
84072W        W27088  29.815   5.495  23.406  0.1978 -0.0080  0.0265
84073W        W27089   3.348  24.646  27.250  0.1815 -0.1664 -0.1255
84074W        W27090   4.678  26.047  29.294  0.1294 -0.1806 -0.2361
84075W        W27091   7.006  21.136   5.453 -0.2419 -0.0578 -0.2661
84076W        W27092  17.909  19.044   2.640  0.1587 -0.1527 -0.2081
84077W        W27093  17.187  20.819  15.124 -0.2441 -0.0767 -0.1965
84078W        W27094   7.416  23.050   1.480 -0.0385  0.0852  0.0028
84079W        W27095  31.493  14.552  27.242  0.2644  0.3020  0.0543
84080W        W27096   9.365   3.999   2.196 -0.3754 -0.3289 -0.1872
84081W        W27097  14.657   3.073   8.832  0.0490 -0.0158  0.1113
84082W        W27098   7.584   4.542   4.031 -0.1613 -0.0677  0.0610
84083W        W27099   9.796  17.465   0.402  0.2921  0.3438  0.3032
84084W        W27100   5.508  13.463  29.169  0.2015 -0.0276  0.0209
84085W        W27101   1.958  32.836  23.889 -0.0741 -0.1570 -0.3451
84086W        W27102  29.064  22.059  25.053 -0.1934 -0.0151 -0.2723
84087W        W27103  14.973   3.920   7.597 -0.0350 -0.2391 -0.0658
84088W        W27104   2.101  20.977   5.426  0.0138  0.1030  0.1328
84089W        W27105  31.009  19.943   3.967 -0.1186  0.3072 -0.1003
84090W        W27106   6.376  29.563  23.181 -0.0753  0.1360 -0.1438
84091W        W27107  12.819  25.367   4.740 -0.0247 -0.1094 -0.0077
84092W        W27108  17.824  26.865   2.390 -0.2919 -0.2615  0.3413
84093W        W27109  29.947  22.572   2.915 -0.2230  0.0797  0.0740
84094W        W27110   9.623  16.745   1.607  0.0278  0.0614 -0.4278
84095W        W27111  13.971  29.915   1.077  0.0330 -0.0365  0.2213
84096W        W27112  20.426   4.176  10.017 -0.0034  0.0190  0.0265
84097W        W27113  28.627  29.594   3.774  0.3492 -0.0141 -0.0857
84098W        W27114   6.644   5.481   8.569 -0.2398  0.0702 -0.1605
84099W        W27115   7.385   8.645  24.262 -0.1187  0.2117 -0.2258
84100W        W27116  16.250  18.941   5.211  0.0762 -0.1883  0.2028
84101W        W27117   6.632  18.736   7.610  0.2093 -0.0085  0.0228
84102W        W27118  31.658  20.290  17.257 -0.2363  0.3257  0.1661
84103W        W27119   7.613  25.106  22.026  0.1505  0.0171 -0.2843
84104W        W27120  14.596  27.644   5.155 -0.1870 -0.1224 -0.1731
84105W        W27121   4.043  16.655   8.046 -0.4045  0.0793  0.2038
84106W        W27122   0.689  28.041   0.435  0.0962  0.3185  0.3362
84107W        W27123  11.554   0.456   4.721 -0.5037 -0.2860 -0.2302
84108W        W27124   6.210  15.350   7.940 -0.2680 -0.4523 -0.1018
84109W        W27125   9.092  23.475   8.185  0.0452 -0.3786 -0.1667
84110W        W27126  22.917  26.984   6.698  0.3809  0.1537  0.1806
84111W        W27127  32.771  31.034  11.454  0.1259 -0.0900  0.0865
84112W        W27128   3.063  25.001   6.252  0.0757  0.0054 -0.1485
84113W        W27129  10.699  12.881   9.373  0.1308 -0.3130 -0.2653
84114W        W27130  18.425  25.776  26.984  0.1020  0.0698 -0.3966
84115W        W27131   6.298  27.709  23.970 -0.1127  0.0040 -0.0435
84116W        W27132  19.713  23.687  21.420 -0.1270  0.0003 -0.0501
84117W        W27133   1.017  27.382   8.687  0.0140 -0.1789  0.4652
84118W        W27134  10.031  20.462   1.017 -0.1301 -0.0485  0.5281
84119W        W27135  32.629  19.489  25.298  0.1535  0.3048 -0.0072
84120W        W27136  27.498  31.370   7.094 -0.1221  0.1325  0.0871
84121W        W27137   3.376  31.193  21.892  0.2216  0.0222  0.2981
84122W        W27138  12.047  12.755   3.627  0.2790  0.2333  0.0166
84123W        W27139   8.832  17.009   8.922 -0.0983  0.1176 -0.2383
84124W        W27140  20.415  20.051  20.402  0.0368  0.1123  0.0296
84125W        W27141  27.049   0.911  23.317 -0.1300  0.0504 -0.4036
84126W        W27142   9.080   9.894   1.518  0.1153 -0.3451  0.2200
84127W        W27143   3.866  23.700  18.478  0.2126 -0.0860 -0.0571
84128W        W27144   4.710  24.722   9.606 -0.2327 -0.1192 -0.0408
84129W        W27145  26.340  16.702  15.315  0.1205 -0.1152  0.0217
84130W        W27146  14.054  15.436   1.340 -0.1548  0.0919  0.0121
84131W        W27147  15.549  14.574   1.814 -0.1036 -0.1088  0.1402
84132W        W27148  20.018  25.190   2.721  0.0843 -0.3207 -0.2541
84133W        W27149  13.868  27.378   7.163 -0.0461 -0.1973 -0.2658
84134W        W27150   3.728  29.842   7.377  0.4231  0.0555  0.0181
84135W        W27151  12.254   4.103  10.042  0.0787 -0.0537 -0.1578
84136W        W27152  11.960  10.495   4.536  0.0877  0.1953  0.2604
84137W        W27153  14.539  20.074  25.951  0.2577 -0.0934 -0.0555
84138W        W27154  14.357  22.023  24.344 -0.2370  0.2848  0.0945
84139W        W27155  20.535  16.311  21.717  0.0516 -0.2175  0.0697
84140W        W27156   6.478  13.531   4.937 -0.0917 -0.2013 -0.1673
84141W        W27157  10.027   1.365   7.302  0.0889 -0.1484  0.3438
84142W        W27158  31.465  11.918   0.499 -0.0755  0.2381 -0.1520
84143W        W27159  15.977  15.499   3.102  0.0394  0.1678  0.2627
84144W        W27160  15.756  34.642   1.846  0.1638  0.3455 -0.1084
84145W        W27161  13.289  28.249   2.654 -0.3107 -0.1630 -0.0470
84146W        W27162  31.193  31.707  25.097 -0.2815  0.1662  0.2319
84147W        W27163   2.005  18.190   2.429  0.2718  0.3290  0.1056
84148W        W27164   6.860  10.128   1.310 -0.1553  0.0727 -0.0178
84149W        W27165   4.510  20.462  14.018 -0.2797  0.3597 -0.1387
84150W        W27166   8.941  30.397   8.842 -0.0758 -0.2179 -0.1262
84151W        W27167  13.542  28.249   9.057  0.0368 -0.0125  0.0786
84152W        W27168  14.083  23.413   3.042 -0.2908  0.3505  0.2209
84153W        W27169  11.364   8.384   1.413  0.2368  0.2809  0.2016
84154W        W27170  12.028  12.221   3.398  0.0869  0.0180 -0.2353
84155W        W27171   8.089   1.928  20.231  0.4720  0.1440  0.0598
84156W        W27172  15.991  21.658  24.213 -0.0699  0.1802  0.4006
84157W        W27173   1.422   3.528   9.320 -0.0621  0.1481 -0.0257
84158W        W27174  22.867  28.998   7.263  0.1820 -0.2540  0.1392
84159W        W27175   2.915  23.488   6.387 -0.0599 -0.3336 -0.1757
84160W        W27176  28.045  34.617   5.472  0.1231  0.3340 -0.1760
84161W        W27177  31.450  10.216   2.309  0.1766 -0.2041 -0.1144
84162W        W27178  23.908   5.390   2.513  0.2534  0.0058 -0.1292
84163W        W27179  11.238  27.457  28.658  0.1847  0.0081  0.2748
84164W        W27180  10.263  23.650  24.361  0.6245 -0.1669 -0.1115
84165W        W27181  18.358  13.238   2.120 -0.0172 -0.0249  0.2749
84166W        W27182   3.102   6.968   3.293 -0.1360 -0.1983  0.0867
84167W        W27183  27.398  19.697   0.985  0.0824 -0.0735  0.0375
84168W        W27184  28.523   8.140   8.192  0.0037  0.2831  0.0824
84169W        W27185  16.189  26.301   8.644  0.1545  0.0837  0.0709
84170W        W27186  32.926  18.892   2.349  0.2096 -0.0604  0.0002
84171W        W27187   0.571  17.685  23.872 -0.0489  0.2405 -0.2875
84172W        W27188   4.333  28.670   8.167 -0.0943  0.0779  0.0331
84173W        W27189  31.361  21.892  29.283 -0.0471 -0.1919  0.0143
84174W        W27190  15.865  25.750   6.367  0.1200  0.0760  0.1026
84175W        W27191  31.990  16.795   8.103 -0.0953 -0.0129  0.0793
84176W        W27192   8.433  27.843   6.820 -0.1993 -0.0581  0.1975
84177W        W27193  10.630  24.457  24.482 -0.1143 -0.4795 -0.0081
84178W        W27194   8.426  13.447   2.435  0.0443  0.2531  0.1367
84179W        W27195   2.059  20.184  27.969 -0.1045 -0.0626 -0.2677
84180W        W27196  19.537  27.790  24.273  0.0684 -0.2501  0.0468
84181W        W27197   7.845  12.860   5.621  0.1072  0.1648  0.0612
84182W        W27198  17.208  16.679  14.604  0.1467 -0.0570  0.0766
84183W        W27199  31.185  17.078  22.195  0.2919 -0.1224  0.2204
84184W        W27200  11.928  18.544   0.828  0.0951  0.0215 -0.0373
84185W        W27201  14.368  25.951   4.992  0.0322  0.5302  0.0870
84186W        W27202  16.858   9.842   3.574 -0.0379  0.3073 -0.0034
84187W        W27203  30.088  17.791   2.647  0.0371 -0.1221 -0.0359
84188W        W27204   7.990  26.505   8.162  0.0385 -0.0509 -0.3331
84189W        W27205  11.000  33.802   6.336  0.0479 -0.1422  0.0222
84190W        W27206  15.608  28.245   1.713 -0.1225 -0.1882 -0.1649
84191W        W27207  12.800  25.017  25.519 -0.4607  0.2714  0.1845
84192W        W27208   8.617  12.742   0.659  0.0458 -0.1905  0.0594
84193W        W27209   3.901  13.254   8.564  0.0191 -0.2179 -0.0739
84194W        W27210  18.243  14.837  21.049 -0.2941  0.1065 -0.1583
84195W        W27211  14.840  30.059   9.450  0.1756 -0.2274  0.2683
84196W        W27212  17.584  16.713   2.523 -0.2168  0.1599 -0.1545
84197W        W27213   6.403  29.291   8.451 -0.0818 -0.5506  0.1397
84198W        W27214   2.455  26.345   0.107  0.0961  0.1998 -0.1563
84199W        W27215   6.324  12.114   8.878  0.0294  0.1960 -0.0883
84200W        W27216  17.795  16.725  18.589 -0.0271  0.1258 -0.1722
84201W        W27217   0.513  16.441   0.749  0.3213 -0.3653  0.0603
84202W        W27218  14.105  20.283   1.431  0.3023  0.0159  0.1402
84203W        W27219  23.252  32.357   5.405 -0.0325  0.0617 -0.0562
84204W        W27220   2.727  23.638   3.939  0.2611  0.1053  0.1438
84205W        W27221  19.082  30.430   5.674 -0.3302 -0.1309  0.1503
84206W        W27222  23.060  14.738  15.110 -0.0746  0.3513  0.0814
84207W        W27223  14.115  22.326  27.956 -0.0425  0.1480 -0.0027
84208W        W27224   0.635  21.635   3.891 -0.1969 -0.0923 -0.1307
84209W        W27225  14.304  31.859   9.728  0.1448  0.1277 -0.0706
84210W        W27226  24.908  29.936   3.879  0.1661 -0.3212  0.3408
84211W        W27227  17.660  11.483  27.487 -0.1227 -0.4180 -0.3580
84212W        W27228  11.568  30.777   7.236 -0.0082  0.0345 -0.0045
84213W        W27229   1.827  20.404   9.528 -0.3189 -0.1690  0.1602
84214W        W27230   1.963  15.685  28.389 -0.2908  0.0593  0.3090
84215W        W27231   9.631  11.475   9.593  0.2287 -0.0543  0.0333
84216W        W27232  12.517  11.519   1.345 -0.2307  0.1173 -0.0718
84217W        W27233  11.064  20.777  15.636 -0.0334 -0.0309  0.0641
84218W        W27234  11.742  14.615   7.595 -0.0594 -0.0114 -0.1899
84219W        W27235   6.673   7.025  14.983 -0.0036  0.1167 -0.2291
84220W        W27236  33.761  27.164   3.939 -0.0486  0.0149  0.1806
84221W        W27237  17.188  16.169  16.665  0.0322  0.0311  0.0754
84222W        W27238  33.876  18.547   6.619 -0.1713  0.0641 -0.2902
84223W        W27239   5.708  27.976  10.574  0.2606 -0.2574  0.3378
84224W        W27240  14.044  28.797   8.712 -0.3406 -0.2688  0.2615
84225W        W27241  32.848  16.144   7.848  0.0078  0.3263  0.3991
84226W        W27242  16.444  32.927   6.039 -0.1336  0.2249 -0.1324
84227W        W27243  16.089  12.232   7.787 -0.0241 -0.2254 -0.2597
84228W        W27244  25.399  29.140   9.767 -0.1129  0.3491 -0.0532
84229W        W27245  21.556  25.275  27.816 -0.0500  0.1368  0.0343
84230W        W27246  22.110  14.711   4.806 -0.3070 -0.3683  0.2371
84231W        W27247   8.248  28.903  29.012 -0.0475  0.1658  0.0847
84232W        W27248  16.393  21.312  22.033 -0.0544 -0.1417 -0.1834
84233W        W27249   9.400   6.320  18.056  0.1918 -0.0084 -0.0675
84234W        W27250   6.852  34.145   2.441 -0.0838  0.0095  0.0028
84235W        W27251   5.539  22.517   5.179  0.1181  0.0263  0.0129
84236W        W27252  30.317  22.479  23.515  0.1234 -0.1066 -0.2616
84237W        W27253  19.666  25.755   4.923  0.1029 -0.0778 -0.1908
84238W        W27254  13.322  30.990   8.464  0.1638  0.0223 -0.2558
84239W        W27255   1.642  14.999  28.629 -0.1225  0.0645 -0.1550
84240W        W27256   2.005  15.690  22.618  0.0389  0.1000  0.0694
84241W        W27257  17.289  32.964  17.416  0.0516  0.1185  0.2789
84242W        W27258  14.261  24.981   3.241 -0.1857  0.4170 -0.0334
84243W        W27259  30.695  26.543   0.701  0.2514 -0.0009  0.2246
84244W        W27260   7.374   0.182  11.247 -0.1069 -0.1185 -0.1448
84245W        W27261  14.425  23.707   2.787  0.0460 -0.1411  0.2830
84246W        W27262   1.832  22.542   8.792 -0.0136  0.1200 -0.1848
84247W        W27263  10.545  32.901   3.995  0.2222  0.1012  0.0348
84248W        W27264   9.232  32.884   4.519 -0.0052  0.2239 -0.1390
84249W        W27265  10.203   3.164   5.575  0.2966  0.1926 -0.1203
84250W        W27266   3.361  16.863   5.494  0.3884  0.0548 -0.0875
84251W        W27267  14.964  21.052  20.913 -0.0374  0.2078  0.0327
84252W        W27268  19.464  14.511   4.648  0.0334  0.0483  0.1119
84253W        W27269  18.916   1.190   6.627 -0.2092 -0.0475 -0.0293
84254W        W27270  10.859  21.691   1.367  0.1794  0.2290 -0.1692
84255W        W27271  17.726  14.230  11.775 -0.0106  0.0974 -0.0740
84256W        W27272  11.740   0.822   6.104 -0.0656  0.2610  0.1717
84257W        W27273   8.814  18.691   0.460  0.1109 -0.2125  0.0385
84258W        W27274  18.006  33.672   1.761 -0.0407 -0.1768  0.3384
84259W        W27275  25.195   0.372   5.345  0.1337 -0.0068  0.0788
84260W        W27276  11.770   9.161   3.762 -0.2863 -0.2176  0.2199
84261W        W27277  15.013  25.482  29.028  0.0537  0.0421  0.3611
84262W        W27278  11.923  20.312   7.577 -0.4047 -0.0722 -0.2255
84263W        W27279  15.328  19.397  28.834  0.0545  0.4766  0.0776
84264W        W27280  30.315  31.570  10.445 -0.0705  0.1042 -0.1467
84265W        W27281  25.280  29.904  18.146 -0.0020  0.2154 -0.0575
84266W        W27282  25.144  24.344   1.540  0.0108  0.0766  0.1055
84267W        W27283  10.101  26.582   4.411  0.0049  0.2924  0.0673
84268W        W27284  19.663  21.245   0.429  0.5154  0.0954  0.1899
84269W        W27285  17.983  14.923   4.243  0.0398 -0.0123 -0.0855
84270W        W27286  16.260  31.217   8.528 -0.2253 -0.0466  0.0603
84271W        W27287  29.943  28.251  27.147  0.1723  0.1843  0.0525
84272W        W27288  11.255  32.361   3.520  0.0793  0.0037  0.0666
84273W        W27289   9.779  31.516   6.745 -0.0143 -0.0459 -0.2849
84274W        W27290   3.281  22.631   7.046 -0.1099 -0.0961  0.0563
84275W        W27291  20.999  14.833   5.061 -0.1177 -0.0261  0.1974
84276W        W27292  33.970   9.865   1.481 -0.0892 -0.2788 -0.0509
84277W        W27293  13.105  21.853  25.213  0.1182  0.2748 -0.0810
84278W        W27294  14.334  20.840  25.578 -0.0481  0.3015 -0.0960
84279W        W27295   8.120   0.987  26.932  0.0300 -0.0785  0.2091
84280W        W27296  33.473  12.784   5.075  0.2798  0.1549 -0.2129
84281W        W27297  27.482  28.357  12.319 -0.1048 -0.0265 -0.2435
84282W        W27298   1.581  15.552   8.182  0.1966  0.0671  0.1910
84283W        W27299  14.288   8.341   0.882 -0.0096 -0.0986 -0.1081
84284W        W27300  12.738  16.164  12.009  0.2080  0.2311  0.0931
84285W        W27301  31.371  30.263   1.894  0.0745  0.1223  0.3149
84286W        W27302  24.229  32.006   0.140  0.0459 -0.1587 -0.1109
84287W        W27303  17.022   4.422  18.108 -0.2945 -0.1230  0.2101
84288W        W27304  11.097  24.364   2.909  0.0763  0.1854 -0.0674
84289W        W27305   0.002  29.828   2.235  0.1533 -0.0302 -0.5124
84290W        W27306   9.521  20.592   3.420  0.2188  0.0199 -0.0303
84291W        W27307  22.473   0.054   7.288  0.0615  0.1476 -0.0796
84292W        W27308  10.202  34.587   4.860  0.0880  0.1694 -0.0233
84293W        W27309   8.960   7.063  27.774 -0.0669  0.1239 -0.3807
84294W        W27310  11.721  16.996   7.286  0.2103 -0.0742 -0.2466
84295W        W27311  34.394  25.222   8.684 -0.3922  0.0336 -0.2070
84296W        W27312  14.931   1.624  25.068 -0.0401 -0.2053 -0.2938
84297W        W27313   7.300  27.954   1.291 -0.2101  0.1389  0.2091
84298W        W27314  30.804   7.125   2.041 -0.0788 -0.0213 -0.0660
84299W        W27315  18.944  11.179   7.030  0.1037 -0.0698  0.1139
84300W        W27316  19.953  19.514   8.888  0.0291 -0.1645 -0.0464
84301W        W27317   1.404  20.892   4.179  0.2808  0.1473  0.0883
84302W        W27318   2.145  14.758   2.266 -0.0769 -0.0946 -0.1480
84303W        W27319   1.518  28.097   2.746 -0.0193 -0.1854  0.0091
84304W        W27320  13.973  28.969   4.029  0.0844 -0.0729  0.0717
84305W        W27321   7.288  31.830   1.138  0.2254  0.2065 -0.3012
84306W        W27322  12.606  17.377  19.523 -0.0936 -0.1663 -0.1251
84307W        W27323  17.295   9.489  27.988  0.1146 -0.0158 -0.0534
84308W        W27324  22.396  19.676   8.255  0.0170  0.2406  0.0748
84309W        W27325  33.290  26.117  16.639  0.1047 -0.0284 -0.1651
84310W        W27326   3.887  26.081   5.158  0.3387  0.0145  0.0989
84311W        W27327  10.267  28.970   1.146  0.5302  0.1883  0.0934
84312W        W27328  17.953  24.893   7.162 -0.1025 -0.3145  0.2695
84313W        W27329   7.608  17.025   5.891 -0.0301 -0.0817  0.1524
84314W        W27330  17.963  17.728  21.715 -0.1066  0.0415  0.0618
84315W        W27331  19.614  28.478   3.075  0.2950  0.0144  0.1663
84316W        W27332  30.473  20.741   0.715  0.3323 -0.0464 -0.1748
84317W        W27333   1.818  12.035  10.969  0.0900 -0.0373  0.0088
84318W        W27334  15.134  12.582   4.872 -0.1053  0.0621 -0.3035
84319W        W27335   7.448  17.965  13.456 -0.0428 -0.1093 -0.0155
84320W        W27336   2.920  21.886   8.801  0.1116  0.2486  0.0992
84321W        W27337   5.353  22.838   1.675  0.0516 -0.1419 -0.0206
84322W        W27338   5.183  17.288   3.384  0.1087 -0.0531 -0.1070
84323W        W27339  16.808  25.528  26.852 -0.2468 -0.0672 -0.0924
84324W        W27340  13.446  15.949  27.392 -0.0876 -0.2432 -0.0701
84325W        W27341   4.324  34.319   1.984 -0.0116  0.0997 -0.1208
84326W        W27342  19.059  27.374   7.430 -0.0964  0.3974  0.2723
84327W        W27343   7.363  11.099   2.611 -0.3498 -0.1765 -0.0325
84328W        W27344   8.119  29.298   2.313  0.0232 -0.1042  0.0237
84329W        W27345  15.079  11.141  18.295  0.0179  0.0857 -0.1212
84330W        W27346  32.166   3.508  14.578 -0.0622 -0.1005 -0.4238
84331W        W27347  16.984  30.801  18.028  0.0615 -0.0430 -0.2696
84332W        W27348  14.350  12.838   0.406  0.2418 -0.3136 -0.2352
84333W        W27349  17.304  22.694   3.571  0.2748 -0.1579  0.3599
84334W        W27350   8.791  22.559  23.722 -0.1998  0.0092 -0.0613
84335W        W27351  17.947  32.785   2.654 -0.0383 -0.2231  0.0553
84336W        W27352  13.990  19.772   4.406 -0.1976 -0.0654 -0.0928
84337W        W27353  31.718  13.854  10.372  0.1742  0.0561  0.3114
84338W        W27354  10.564  23.162   7.584 -0.1798  0.1543 -0.0410
84339W        W27355  14.963  31.483  10.107 -0.1613 -0.1212  0.1546
84340W        W27356   8.459  17.525   5.599  0.1788 -0.2366  0.0680
84341W        W27357  12.193  21.980   0.978  0.1072 -0.0734  0.1169
84342W        W27358   7.140  28.604  27.265  0.1709 -0.1086  0.1825
84343W        W27359  31.463  18.401  26.075 -0.0118  0.3346 -0.0529
84344W        W27360  22.064  14.378  28.798 -0.0420  0.2179 -0.0619
84345W        W27361   4.386   3.515  28.337  0.1575  0.1939  0.0832
84346W        W27362  10.971  12.020   0.810 -0.0074  0.1404  0.0198
84347W        W27363  16.862  33.320   7.311 -0.1757  0.0869  0.2329
84348W        W27364   4.009  15.898   0.202  0.0502  0.0138  0.0056
84349W        W27365   1.249  21.108   9.181  0.1683  0.0819  0.0627
84350W        W27366  30.683  17.617   2.961 -0.3859  0.1977  0.0029
84351W        W27367  22.852  21.843   3.665 -0.0340 -0.2091  0.0483
84352W        W27368  15.864  18.591  24.610  0.0638 -0.0414  0.1396
84353W        W27369   9.170  32.162   9.930 -0.2178  0.0449 -0.1133
84354W        W27370  33.604  27.376  18.018 -0.0104 -0.1874  0.0577
84355W        W27371   2.463  28.598  27.333 -0.0857 -0.1457  0.1258
84356W        W27372  32.762  27.274   8.157  0.3325  0.0939  0.0015
84357W        W27373  11.898  32.226   2.573  0.1321 -0.4740  0.0590
84358W        W27374   7.084  21.077   6.182 -0.2468  0.0058  0.0374
84359W        W27375  25.358  24.547  16.534 -0.0414  0.0572  0.0257
84360W        W27376   9.820  31.411  22.317 -0.1940  0.2564 -0.0206
84361W        W27377  17.816  24.140   5.393  0.3494  0.0750  0.1029
84362W        W27378   3.350  11.647   5.777 -0.0234 -0.1839 -0.0307
84363W        W27379   7.027   0.587   7.948 -0.1236  0.3527 -0.2306
84364W        W27380   5.425  23.173   6.341  0.0416  0.0775  0.1356
84365W        W27381   6.367  20.287   1.577  0.2958 -0.3335  0.0293
84366W        W27382  20.700  22.247   7.505 -0.0072 -0.1591 -0.0163
84367W        W27383  22.364   9.748   7.686  0.0348  0.2675  0.0905
84368W        W27384   2.312  13.930   5.067  0.2648 -0.2975 -0.1735
84369W        W27385   7.371  34.180   9.618 -0.0221 -0.1052  0.1276
84370W        W27386  23.265  24.610   5.952 -0.0530 -0.0965  0.0424
84371W        W27387   2.318  17.825   7.357 -0.0236  0.0110  0.1846
84372W        W27388   4.778  11.935  27.021 -0.1373  0.0564 -0.1061
84373W        W27389  14.046  26.948  24.970  0.2266  0.0261  0.2954
84374W        W27390  29.944  22.200   5.769  0.1035  0.1510 -0.1119
84375W        W27391   9.507   5.861  23.102  0.2262  0.0740  0.0256
84376W        W27392  33.022  32.335   5.654  0.0491 -0.0551 -0.0561
84377W        W27393   8.051  25.280   5.340  0.1963  0.2137  0.0368
84378W        W27394   9.308  30.366   7.867  0.0558  0.2191 -0.0079
84379W        W27395  31.748  28.065  10.073  0.2195 -0.1882  0.1643
84380W        W27396  12.595  34.129   9.229  0.2367 -0.0597  0.0178
84381W        W27397  33.498  25.199  22.882 -0.0670 -0.0913 -0.1744
84382W        W27398  12.929  22.499  23.560  0.2850  0.1310 -0.1188
84383W        W27399   9.410  21.653   6.862 -0.0000 -0.0576  0.1900
84384W        W27400   5.998  17.386   9.625  0.2330 -0.2830 -0.3218
84385W        W27401  31.413  17.150   1.333 -0.1114 -0.1426 -0.0820
84386W        W27402   1.940   9.962  27.860  0.0709  0.0045 -0.0585
84387W        W27403  32.961  30.487   6.411 -0.2719  0.0469  0.1139
84388W        W27404   7.052   2.609   0.899  0.0430  0.2003 -0.1980
84389W        W27405  18.059  28.353   4.229  0.2077 -0.0996 -0.0708
84390W        W27406   4.394  25.318  26.440 -0.0484  0.0487 -0.2980
84391W        W27407   7.275  33.433  27.648  0.0336 -0.0931 -0.1074
84392W        W27408   8.293   5.807   9.019 -0.0951  0.1656 -0.0069
84393W        W27409  10.143  29.666   6.450  0.2567  0.0270 -0.2364
84394W        W27410   9.777  19.753   4.579  0.1870  0.1601 -0.3409
84395W        W27411  16.474  21.098  21.550 -0.0562 -0.3048 -0.3110
84396W        W27412  26.070  23.420  10.855  0.2419 -0.1650 -0.1361
84397W        W27413  25.330   2.474   9.356  0.2064  0.1786  0.0440
84398W        W27414  30.139  15.654   1.002  0.1380 -0.1557 -0.1398
84399W        W27415  33.910  21.952  27.369  0.2725 -0.1847 -0.0556
84400W        W27416  11.949  16.679   5.824  0.4683  0.3160  0.2700
84401W        W27417  28.961  24.048   7.497 -0.0920 -0.1441 -0.1785
84402W        W27418   0.270  18.635  27.525 -0.2970  0.3631 -0.1201
84403W        W27419  15.119  18.036  28.535  0.0845 -0.0428 -0.2453
84404W        W27420  26.379  29.792   7.387  0.1431  0.2106  0.1052
84405W        W27421  31.780  25.177   2.413  0.2623 -0.1345 -0.0592
84406W        W27422  11.105   1.442  10.411 -0.2765  0.0372  0.0763
84407W        W27423   5.718  22.895   3.815 -0.0103  0.1036  0.0539
84408W        W27424  13.307  13.934  22.111  0.1972 -0.0526 -0.0882
84409W        W27425   8.284  28.137   7.216 -0.1947 -0.3118  0.0683
84410W        W27426   4.151   0.937  25.873 -0.2910 -0.3676 -0.2852
84411W        W27427  22.018  24.394   8.083 -0.5155  0.4437 -0.0514
84412W        W27428  17.320  11.793  27.309 -0.3509 -0.2419 -0.1823
84413W        W27429   7.039  22.559   2.907  0.3509 -0.3577  0.4928
84414W        W27430   4.805  26.887  29.217  0.0887  0.0447  0.0189
84415W        W27431   2.425  22.599   5.255 -0.0570  0.1063  0.1561
84416W        W27432  34.199  31.478  24.111  0.0914  0.1362  0.1867
84417W        W27433  24.747  18.247  21.844 -0.3059 -0.0891 -0.0501
84418W        W27434  21.853   4.899   8.019  0.0439  0.1574 -0.1381
84419W        W27435  26.006   2.384  24.640  0.2413 -0.0512  0.4278
84420W        W27436  26.949  18.750  25.990  0.0936  0.1237 -0.2693
84421W        W27437   9.832   7.818   0.401 -0.1020 -0.3075 -0.4201
84422W        W27438  10.255  12.249   5.525  0.0354  0.0730 -0.2829
84423W        W27439  26.580  20.037   5.271  0.1532  0.1130 -0.2916
84424W        W27440   2.877   4.484  28.959 -0.2605 -0.3247 -0.0712
84425W        W27441  29.920  13.458   6.549 -0.3018  0.1093 -0.2193
84426W        W27442  10.917  29.729   4.241  0.0915  0.1579 -0.1160
84427W        W27443  15.848  18.239   6.196  0.2586 -0.0224  0.2633
84428W        W27444  17.030  17.774   1.664  0.1009  0.0894  0.1002
84429W        W27445   6.359  31.008   7.113 -0.0654  0.0907 -0.1895
84430W        W27446  13.890  26.142   2.735 -0.1130 -0.1329 -0.1511
84431W        W27447  13.890  31.815  27.617 -0.0529  0.0154  0.2347
84432W        W27448   8.245  34.369   9.324 -0.0203 -0.1232  0.2246
84433W        W27449  15.365  25.679   6.573 -0.4441 -0.1839  0.1620
84434W        W27450   2.717  16.340   5.562 -0.2841 -0.0589 -0.0676
84435W        W27451   8.705  34.674   0.548  0.1685 -0.1294 -0.0750
84436W        W27452  13.508  15.722  12.575  0.2260 -0.0315  0.1731
84437W        W27453   6.041  22.632   5.690  0.1677 -0.2209 -0.0617
84438W        W27454  31.799  17.783   2.073  0.1699  0.1076 -0.1074
84439W        W27455   6.456  13.837   5.730 -0.0529  0.3938  0.0095
84440W        W27456  13.283  19.695  28.717  0.0537 -0.2830 -0.0877
84441W        W27457  15.745  17.188   0.563 -0.0661 -0.1851 -0.0042
84442W        W27458   3.460  16.769   8.422  0.1490  0.2771  0.0557
84443W        W27459  20.030  16.592   5.366 -0.4159  0.0577  0.1442
84444W        W27460  13.174  25.788  25.518 -0.0742 -0.0065  0.0405
84445W        W27461  32.654  18.095   1.376 -0.2051  0.2429  0.2458
84446W        W27462  27.924  16.939   5.767  0.2972  0.4429 -0.2561
84447W        W27463  19.165  14.324   4.972  0.5207 -0.2242 -0.5097
84448W        W27464  17.333  29.670  28.788  0.0038 -0.0912 -0.2284
84449W        W27465  16.883  21.665  27.279  0.2055  0.2777  0.0302
84450W        W27466   2.793  25.098   5.823 -0.2261 -0.0959  0.0713
84451W        W27467   7.584  26.249   8.079 -0.0696 -0.1910 -0.0083
84452W        W27468   5.943  16.795   9.545 -0.0534  0.0953  0.2712
84453W        W27469   5.610  23.268  16.396 -0.3142 -0.3117  0.1087
84454W        W27470   8.618  13.983   6.462 -0.2495  0.1256  0.1053
84455W        W27471  32.635  15.118   6.945 -0.1798  0.2215 -0.0493
84456W        W27472  17.185  28.528  26.625  0.3722 -0.1111 -0.0912
84457W        W27473  15.060  26.476   5.329 -0.1146 -0.2673  0.0628
84458W        W27474   3.378  20.100  27.944  0.2648  0.1339 -0.0913
84459W        W27475  17.848  10.890  23.297  0.0679  0.1465 -0.5390
84460W        W27476   2.575  16.473   0.365  0.2253 -0.0241 -0.0008
84461W        W27477   7.795   8.772  20.257 -0.2569 -0.0111  0.1328
84462W        W27478  19.914  20.997  24.067 -0.0097  0.0523  0.3433
84463W        W27479  33.640  32.071   0.575 -0.0021  0.0563  0.2528
84464W        W27480   3.671  20.452  22.014  0.1343 -0.0581 -0.0965
84465W        W27481   9.235  32.741  28.930 -0.0037 -0.0045 -0.3999
84466W        W27482  13.811  25.211   6.883 -0.0177 -0.1804 -0.0332
84467W        W27483   7.300  33.422  21.098 -0.0356  0.1456  0.1953
84468W        W27484  15.728  21.366  21.005 -0.1212  0.1963 -0.1884
84469W        W27485  32.571  29.756  22.005 -0.1884 -0.4186 -0.1224
84470W        W27486  12.117  21.884  26.724 -0.1922 -0.1360 -0.1241
84471W        W27487  13.829  16.180   2.490  0.4581 -0.2208 -0.2307
84472W        W27488   3.052  23.304   7.721  0.1537  0.1662  0.1321
84473W        W27489   4.604   2.652  28.823  0.1118  0.0753  0.1256
84474W        W27490   5.232  24.284  14.942 -0.0106 -0.0697  0.1779
84475W        W27491   4.779  34.156   0.555 -0.1131  0.3821  0.1406
84476W        W27492  17.584  21.473  22.410  0.0649 -0.3033  0.0906
84477W        W27493   8.108  13.353  18.668  0.3164 -0.2834  0.1347
84478W        W27494  12.150  18.722   2.361 -0.1052  0.0508  0.1897
84479W        W27495  29.258  27.132   9.740  0.2568 -0.2633  0.1116
84480W        W27496  29.191  14.270  28.868 -0.1608 -0.0935  0.4177
84481W        W27497  19.481  16.491  13.587 -0.1789  0.2430  0.1835
84482W        W27498  17.473  21.464  22.889  0.1542  0.0096 -0.2872
84483W        W27499  10.615  24.504   0.955 -0.0775  0.3074  0.1130
84484W        W27500  29.503  21.010   3.347  0.0638  0.1487  0.1223
84485W        W27501  10.560  29.205   4.386  0.0951  0.1007  0.0121
84486W        W27502  11.840  18.253   4.397 -0.0596 -0.0461  0.3449
84487W        W27503  33.938  29.885   1.849 -0.0956 -0.0004 -0.1662
84488W        W27504   6.529  13.248   3.470 -0.2077  0.2233 -0.0987
84489W        W27505  11.321   1.790   7.471 -0.0041 -0.0155 -0.2183
84490W        W27506   9.363   0.609  28.938  0.0396 -0.2249 -0.0228
84491W        W27507  12.457  32.808   0.575 -0.2583  0.0453  0.0033
84492W        W27508   5.066  29.282   2.064 -0.0771 -0.0419 -0.1358
84493W        W27509  13.565  13.093   0.525 -0.1882 -0.0593  0.1474
84494W        W27510  23.707  31.637  29.080 -0.5631 -0.0320  0.1779
84495W        W27511  17.417  31.177   6.933  0.0658 -0.0796 -0.1451
84496W        W27512   8.011  25.520  13.650 -0.0139 -0.0993 -0.3323
84497W        W27513  23.272  34.092   2.488  0.0227 -0.1377 -0.1912
84498W        W27514  12.057  25.189  22.148 -0.1616  0.0400  0.0737
84499W        W27515  10.273  16.284   6.433  0.0128 -0.2969 -0.1337
84500W        W27516  12.755  17.200   1.419 -0.2743  0.0721 -0.2977
84501W        W27517  10.203  17.544   5.420 -0.1179  0.0641  0.0467
84502W        W27518  18.766  22.565  28.166 -0.0565  0.0471 -0.3362
84503W        W27519  28.372  19.525  22.291 -0.0867 -0.0305  0.0589
84504W        W27520  12.555  17.400   5.913  0.0138 -0.3661  0.1708
84505W        W27521   3.389  29.811  25.720 -0.2808  0.2605 -0.0336
84506W        W27522  13.904  32.866  22.474  0.0046  0.1292 -0.3155
84507W        W27523  11.261  21.982  27.351  0.1914 -0.3376 -0.1617
84508W        W27524  33.042   3.286  18.856 -0.1698 -0.1644  0.2671
84509W        W27525  34.588  24.402   6.898 -0.3424 -0.0825 -0.2351
84510W        W27526  10.558   5.125  26.629 -0.0582  0.1686 -0.2531
84511W        W27527   9.797   2.694   7.869  0.1011  0.0514  0.2954
84512W        W27528  21.931  17.349   5.280 -0.0692  0.0746 -0.4147
84513W        W27529  28.239  14.621   0.463 -0.0251  0.0865 -0.0817
84514W        W27530  27.619  30.025   4.095 -0.1204 -0.0902  0.0341
84515W        W27531  12.962   1.221   6.407  0.0387  0.1482 -0.2140
84516W        W27532  15.774  30.887   6.570  0.0704  0.0561 -0.1717
84517W        W27533  12.045  23.456  14.521  0.1062  0.0530 -0.0279
84518W        W27534  30.542   7.498  18.921  0.2076 -0.2070 -0.0665
84519W        W27535  16.691  20.721  24.250  0.1967  0.1117 -0.1414
84520W        W27536  22.322  27.815  28.534  0.2276 -0.0927 -0.0558
84521W        W27537   0.734   4.118   1.589  0.0862  0.3948  0.0077
84522W        W27538  16.760   0.281   8.101 -0.0196 -0.0819 -0.1895
84523W        W27539  30.293   3.036   9.813  0.0334  0.0206 -0.0129
84524W        W27540  13.807   0.230   1.830  0.0936 -0.1247 -0.1247
84525W        W27541  29.939  22.554   3.859  0.1047  0.3267 -0.2119
84526W        W27542  11.920  16.685  25.805 -0.1196  0.2144  0.2449
84527W        W27543   5.507  26.720   3.576 -0.0115  0.0592  0.2313
84528W        W27544  14.087  14.393  22.939  0.1968 -0.1514 -0.1537
84529W        W27545  28.977  27.567  27.799  0.3853  0.2092  0.0979
84530W        W27546   4.277  34.693   0.011 -0.1566 -0.2209 -0.2630
84531W        W27547  16.925  14.657  15.167 -0.0557 -0.2207 -0.1257
84532W        W27548   5.238  16.160  18.351 -0.0298  0.1008 -0.2465
84533W        W27549   5.869  17.351   4.970  0.0126  0.2889  0.0085
84534W        W27550   1.179  28.600  10.106 -0.0140 -0.0784  0.1479
84535W        W27551  34.338  21.443  20.057 -0.2003 -0.0775  0.0462
84536W        W27552  25.213   6.983  24.143  0.1560 -0.0028  0.0469
84537W        W27553   2.655  24.646   1.434  0.0245  0.0501  0.2031
84538W        W27554  19.180  27.516  21.168 -0.2374 -0.1339  0.1519
84539W        W27555  29.805   9.899  19.096 -0.3567  0.0551  0.0426
84540W        W27556  32.816  14.887  23.122 -0.0233 -0.0479  0.1512
84541W        W27557  16.152  27.637   1.410 -0.2567 -0.1253  0.3069
84542W        W27558   5.802  26.080   3.235 -0.0189  0.1105 -0.2265
84543W        W27559  23.160   7.794   4.713  0.0004 -0.0193 -0.1839
84544W        W27560   1.822  27.043  10.206 -0.2517 -0.2009 -0.1046
84545W        W27561   6.958   8.766  14.096 -0.1595  0.0230 -0.0414
84546W        W27562  20.217  23.022  14.782 -0.1764 -0.1282 -0.3112
84547W        W27563   5.251  19.259   8.732 -0.0215 -0.2406  0.1378
84548W        W27564  14.532  19.902   1.338  0.0230  0.0510 -0.2324
84549W        W27565   6.136   3.275  19.461 -0.1699 -0.1422 -0.0907
84550W        W27566  22.554  10.602  21.967  0.0022  0.1351 -0.0780
84551W        W27567   1.582  20.700   0.725 -0.4464 -0.0036 -0.2539
84552W        W27568  11.538   1.967   0.817 -0.1488  0.1947  0.0882
84553W        W27569   8.961   6.403   6.476  0.0434  0.3727 -0.4003
84554W        W27570  17.591   5.639  18.719  0.0862 -0.1759  0.2755
84555W        W27571  18.493  22.599   7.238  0.1238  0.1180 -0.2431
84556W        W27572  10.727  28.021   5.564  0.1027  0.1361 -0.0219
84557W        W27573  32.931  33.897  29.212 -0.1317  0.0491  0.0548
84558W        W27574  21.122  22.048   2.204  0.1045 -0.1447  0.2341
84559W        W27575   6.506  29.191  28.700  0.1011 -0.0164 -0.2042
84560W        W27576  15.034  23.686   7.932  0.2459  0.1817  0.1368
84561W        W27577   6.612   4.257   0.291 -0.1608  0.1345  0.1919
84562W        W27578  28.047  16.129   3.490 -0.2544 -0.1291 -0.2934
84563W        W27579  13.552  25.472   0.269 -0.0705 -0.1641 -0.0602
84564W        W27580  12.559  27.350  27.048 -0.0663 -0.2491 -0.0527
84565W        W27581   1.372  11.306  25.018  0.1077  0.2592 -0.2234
84566W        W27582  15.508  24.355  25.821  0.1296 -0.2028 -0.1558
84567W        W27583   8.708   0.993  21.271 -0.1828  0.4815  0.1471
84568W        W27584  26.717  25.420   1.942 -0.2009 -0.0050 -0.2811
84569W        W27585  18.832  24.531  14.078 -0.1556 -0.1138 -0.1046
84570W        W27586   5.720  31.408  22.204 -0.0202  0.0792 -0.2018
84571W        W27587  16.401  31.931  16.115  0.1179 -0.3031 -0.2089
84572W        W27588   1.612  19.453   3.211 -0.2830  0.2065 -0.0319
84573W        W27589  11.959   2.466   0.148 -0.0672 -0.1279 -0.0236
84574W        W27590  23.707  30.826   2.252  0.2316 -0.1441 -0.2705
84575W        W27591  20.526  28.098   1.513 -0.2283  0.1852  0.1480
84576W        W27592   0.083  25.147  24.066  0.2116  0.0149 -0.3770
84577W        W27593   3.622  20.093  15.074  0.1353 -0.2664  0.1709
84578W        W27594   1.917  20.687  21.962  0.0239 -0.2201  0.1037
84579W        W27595   5.585   7.826  24.197 -0.2053 -0.1872  0.0105
84580W        W27596   0.288  31.500  21.487 -0.1752  0.0113  0.2196
84581W        W27597  24.075  24.467   2.117 -0.0530  0.0435  0.4504
84582W        W27598  15.657   9.900   2.775 -0.0976  0.0300  0.0343
84583W        W27599   7.395  29.940  26.786 -0.1838  0.1867  0.2014
84584W        W27600  18.600  24.744  27.069 -0.1350  0.1747 -0.2419
84585W        W27601  17.063  34.575  19.586 -0.1805 -0.0335  0.0892
84586W        W27602   1.850  30.082   5.060 -0.0374  0.0421 -0.0094
84587W        W27603  15.204  11.498  23.891  0.1673 -0.0410 -0.1178
84588W        W27604   7.986   8.870   7.245  0.1278 -0.0531 -0.2706
84589W        W27605  21.908  29.332   4.095 -0.1087  0.0140 -0.3666
84590W        W27606  14.536   1.231  28.810 -0.1277  0.0803 -0.1761
84591W        W27607  13.266  30.487   4.342 -0.1170 -0.0058 -0.1232
84592W        W27608  14.913  16.571   7.466  0.2086  0.1650  0.2727
84593W        W27609   5.816  24.540  23.191 -0.2128  0.1565 -0.1693
84594W        W27610  34.157  30.787  17.601  0.0410 -0.0054  0.1672
84595W        W27611  28.775   3.221  25.598  0.0254 -0.0161  0.2230
84596W        W27612  30.595  29.152   1.814  0.0407  0.4039  0.2815
84597W        W27613   1.746   3.255  18.688 -0.0796 -0.2218  0.1553
84598W        W27614   1.789  25.980  23.065 -0.1225  0.1978 -0.1194
84599W        W27615   3.029  18.102   1.215  0.1357 -0.0953 -0.1470
84600W        W27616   3.209  29.468   4.378 -0.0707  0.1963  0.0713
84601W        W27617   1.032  20.316  25.670 -0.0301  0.1526  0.1438
84602W        W27618  18.509  15.817  26.791  0.0625  0.0984  0.0598
84603W        W27619   0.437  21.671   2.415  0.4228 -0.1235  0.1299
84604W        W27620  13.637  27.759  16.297 -0.1411  0.1109  0.1743
84605W        W27621   7.011  32.047   0.057  0.0178  0.0555 -0.1190
84606W        W27622  26.128  24.258   4.164  0.0738 -0.1518 -0.0240
84607W        W27623  20.949  10.785   2.156 -0.1448  0.0570 -0.2180
84608W        W27624   9.736  27.821   6.970  0.3873  0.2354  0.1474
84609W        W27625   5.378   0.353   5.756  0.1379  0.0192 -0.1195
84610W        W27626   5.386   8.428   8.582  0.3492 -0.1097 -0.2641
84611W        W27627  15.556   7.101   2.997 -0.1291 -0.2364 -0.0051
84612W        W27628  22.423  23.165  21.925 -0.2394 -0.0172 -0.2697
84613W        W27629  16.687  16.165  24.181 -0.4228 -0.0767  0.2200
84614W        W27630   1.065  24.771  23.304  0.0725 -0.0054 -0.0317
84615W        W27631  22.734  21.013  22.635  0.3007  0.5270 -0.0516
84616W        W27632  14.638   4.967   0.476  0.2019 -0.0995 -0.2069
84617W        W27633  34.472  30.715   9.208 -0.0493  0.1126  0.2562
84618W        W27634  15.211  16.350  28.796 -0.0699  0.0898 -0.1280
84619W        W27635  26.170  24.740  10.307 -0.0560  0.1094  0.0080
84620W        W27636   5.537   2.151   4.218 -0.1339 -0.2854  0.1534
84621W        W27637  11.147  15.337   4.353  0.1408 -0.2280 -0.0243
84622W        W27638   2.434  23.719   4.410  0.1194 -0.1056  0.0811
84623W        W27639  15.084   0.907  24.318 -0.1188 -0.3180 -0.0543
84624W        W27640   1.005  31.647  24.309  0.1127  0.1112 -0.0293
84625W        W27641   8.175   3.350  14.734  0.0692 -0.0415 -0.3768
84626W        W27642   9.399  30.361  10.230  0.0826  0.3097 -0.0207
84627W        W27643  11.786  29.604   2.081 -0.0411 -0.2358 -0.0971
84628W        W27644   7.688  25.799  23.355  0.0768 -0.0229  0.0548
84629W        W27645  20.901  14.947   5.563  0.1091 -0.3295  0.1149
84630W        W27646   5.887  12.464  27.847  0.1109 -0.1428  0.0242
84631W        W27647   0.966  15.071  26.634 -0.1454  0.0388 -0.1472
84632W        W27648   4.441  20.549  20.279  0.1497 -0.0492  0.1187
84633W        W27649  31.563  27.179   6.076 -0.0644  0.2671 -0.1814
84634W        W27650  16.501  17.241  15.932 -0.1758  0.2648 -0.1745
84635W        W27651  28.461  13.235   9.466  0.0341 -0.1640 -0.1542
84636W        W27652  11.064  31.791  27.928 -0.2894 -0.3361  0.1042
84637W        W27653   8.135   6.177  15.006  0.2064 -0.1002  0.1914
84638W        W27654  28.968  25.646   6.091 -0.0150  0.0462  0.1132
84639W        W27655  14.328  28.377   1.822 -0.1909 -0.0894  0.0765
84640W        W27656   5.376  25.717  20.659 -0.0418 -0.1278 -0.3346
84641W        W27657  33.969  32.734   4.859 -0.0340  0.1074  0.1086
84642W        W27658   9.066  29.385   1.338  0.3234 -0.1701  0.0198
84643W        W27659   2.589  30.022   9.766 -0.0420 -0.1340  0.1595
84644W        W27660  18.109  32.028  17.223 -0.1145 -0.0653  0.1729
84645W        W27661  29.160  15.844  19.066  0.3725 -0.2777 -0.1025
84646W        W27662   5.764   7.531   2.256 -0.0234 -0.0224  0.0961
84647W        W27663   7.474  19.386  18.596 -0.1420  0.0354 -0.2389
84648W        W27664  16.077  23.587  27.216  0.0510 -0.2395 -0.3863
84649W        W27665   2.359  30.671  22.943  0.2324  0.1679  0.2977
84650W        W27666  11.120  29.669  14.454  0.0204  0.2030  0.3177
84651W        W27667  14.501   1.622  10.116 -0.0591  0.1978 -0.0679
84652W        W27668  28.640  25.320   3.631 -0.1631 -0.2713  0.1524
84653W        W27669  12.367   1.513   0.874 -0.1050 -0.1756 -0.2802
84654W        W27670  16.869  26.996  26.068  0.1771 -0.2452  0.2522
84655W        W27671  17.098  17.128  25.952  0.1188 -0.3880 -0.2100
84656W        W27672  27.878  24.882   8.879 -0.2500  0.0684  0.1551
84657W        W27673  11.823  20.868  18.692  0.0023 -0.3859  0.1183
84658W        W27674   3.649   3.972  20.470  0.2473  0.0734  0.1212
84659W        W27675  26.567  26.362   4.702 -0.0162  0.0072  0.1525
84660W        W27676   1.128  11.543  16.800 -0.2262 -0.0153 -0.1910
84661W        W27677  16.884  30.474  17.602 -0.0835 -0.5575 -0.1542
84662W        W27678  14.058   4.163   9.317 -0.0328  0.2454 -0.1942
84663W        W27679  12.502  19.014  23.979 -0.2266  0.0939 -0.5826
84664W        W27680  33.975  31.896  22.249  0.0852 -0.1164  0.0362
84665W        W27681   8.653  23.105  15.580  0.0254 -0.0300 -0.1800
84666W        W27682  15.002  25.893  21.770 -0.1877 -0.1525  0.2446
84667W        W27683  16.810  21.171  12.839 -0.2455 -0.0054 -0.0122
84668W        W27684  27.246  19.265   1.838 -0.2119  0.3490 -0.1440
84669W        W27685  21.855   1.415  17.678  0.0728  0.5620  0.1445
84670W        W27686   4.747  14.297   6.154 -0.4078  0.1351  0.0843
84671W        W27687  11.954  30.063   3.352  0.0081  0.1889 -0.3751
84672W        W27688   6.418  31.262   2.871 -0.0103 -0.0830 -0.1511
84673W        W27689   5.289   1.569   1.745 -0.0725 -0.0672  0.1017
84674W        W27690  11.492  11.983  23.399  0.2718  0.0867  0.0883
84675W        W27691  34.582  28.702  24.793  0.1409  0.1091 -0.1172
84676W        W27692  31.794  32.325  28.530  0.3815  0.0220 -0.1427
84677W        W27693  22.556   8.867   0.144  0.4368 -0.1581  0.1666
84678W        W27694   0.202  28.345   8.323 -0.1016  0.2540  0.2385
84679W        W27695  14.340  19.515  25.815  0.1673  0.0397 -0.2780
84680W        W27696  33.858  30.900  23.621 -0.0575 -0.2384  0.0163
84681W        W27697  30.135   0.970   2.728 -0.2262 -0.0158 -0.1179
84682W        W27698  15.332   1.665   2.182  0.2086 -0.0337 -0.1644
84683W        W27699  16.597  26.781  15.214  0.3381  0.1317  0.1675
84684W        W27700  14.756   8.344  22.570 -0.0721  0.0211  0.0279
84685W        W27701  13.828  28.504   8.235 -0.1337  0.1845  0.0458
84686W        W27702  26.688  25.391  23.158  0.2416  0.0741  0.0767
84687W        W27703   3.749  22.936  21.058  0.2227 -0.1607 -0.0798
84688W        W27704   8.055   9.969   7.793  0.3184 -0.0327  0.1105
84689W        W27705  13.927  15.551   7.600  0.3565 -0.0372 -0.0297
84690W        W27706   4.879  12.539  23.198  0.0283 -0.0634 -0.1747
84691W        W27707   4.229   2.301   4.186 -0.1990  0.2691  0.1358
84692W        W27708  13.031  32.696   2.286 -0.2907 -0.1093  0.3193
84693W        W27709  14.763  13.205  15.666  0.1451 -0.1591  0.1598
84694W        W27710  31.577  23.507   5.086 -0.0621  0.0601 -0.1426
84695W        W27711  10.991   3.989  15.142  0.0961  0.2852  0.0778
84696W        W27712  16.714  11.568   5.722  0.1891  0.4329  0.1086
84697W        W27713  34.219   4.361  25.936  0.0223  0.2604 -0.0321
84698W        W27714  15.665  29.147   1.894  0.0202 -0.2441  0.0001
84699W        W27715   3.855  33.001  27.524 -0.3007 -0.0157  0.0828
84700W        W27716   5.207  14.981   9.306  0.1197  0.1283  0.0145
84701W        W27717   2.326  16.345  24.332 -0.0454  0.0523 -0.1193
84702W        W27718   3.473  26.905  24.299 -0.4575  0.3242  0.2147
84703W        W27719   0.049  27.664  22.485  0.0802 -0.0676 -0.1391
84704W        W27720  34.727  20.792   8.730  0.0286 -0.2149  0.0783
84705W        W27721  21.468  18.267   5.712 -0.1195  0.0752  0.1146
84706W        W27722  28.839  32.331   4.260  0.3389 -0.0607 -0.2359
84707W        W27723   6.442   4.575   2.581 -0.1277 -0.1803  0.0003
84708W        W27724  10.183  31.550   0.745  0.0191 -0.3614 -0.5386
84709W        W27725  15.632  29.496  28.190  0.1548  0.0145 -0.1633
84710W        W27726  34.434  16.970   9.028  0.0551 -0.0954  0.0103
84711W        W27727  10.700  28.310  27.583  0.0106  0.2143 -0.1788
84712W        W27728  10.384  33.341   4.745 -0.0065 -0.2332  0.2598
84713W        W27729   2.735  20.152   0.245  0.0007 -0.1001 -0.3703
84714W        W27730  14.406  22.638  23.413 -0.2432  0.0244 -0.1723
84715W        W27731  15.583  24.033  25.328 -0.1273 -0.1396  0.2650
84716W        W27732   5.499   7.887   8.341 -0.1150  0.0259 -0.1931
84717W        W27733  12.661   3.443  20.093 -0.0105  0.0138  0.0359
84718W        W27734   8.659  27.257   4.466 -0.1406  0.1288 -0.2401
84719W        W27735  17.806  28.144   2.014 -0.2080 -0.0941  0.0332
84720W        W27736   3.474   3.650   4.909 -0.1254  0.1874  0.1263
84721W        W27737  24.779  18.093  14.214  0.2171  0.0329 -0.0765
84722W        W27738   0.765  23.703   0.476 -0.2166 -0.2997 -0.0031
84723W        W27739  13.399  33.666  15.102  0.3504  0.1876 -0.1127
84724W        W27740  15.506  30.814   8.448 -0.2988 -0.2358  0.3507
84725W        W27741  29.447  25.966   5.270  0.0264 -0.1520 -0.1857
84726W        W27742   9.210  32.509   4.854  0.3417 -0.1677  0.2063
84727W        W27743  28.609  22.527   8.783  0.1119 -0.0690  0.4137
84728W        W27744  16.973  20.601  29.213  0.1731 -0.0012  0.0731
84729W        W27745  11.641  27.159   5.218  0.2879 -0.1432 -0.1205
84730W        W27746  13.175  17.387   1.811  0.0634  0.1329 -0.0248
84731W        W27747   6.439  20.787   3.603  0.1969  0.2457 -0.0934
84732W        W27748   1.556  19.399  28.766  0.1317 -0.1280  0.0081
84733W        W27749  20.790  21.066   3.802  0.1420 -0.1478  0.0806
84734W        W27750  11.080  13.425  22.596  0.0356 -0.0263  0.1284
84735W        W27751  33.750  29.691   3.561 -0.2719 -0.2077 -0.2209
84736W        W27752  16.790  25.436  16.358  0.1655  0.3061  0.1664
84737W        W27753  27.954   6.024  18.384  0.1138  0.1553 -0.2506
84738W        W27754   9.215  28.920   8.561  0.0197  0.1723  0.2411
84739W        W27755   6.809  32.415  26.636 -0.2719  0.0168  0.0182
84740W        W27756   6.836  25.939   3.271  0.1144 -0.1055  0.1486
84741W        W27757  23.398  17.116  27.320  0.1077 -0.1121  0.3434
84742W        W27758   2.312  22.322   2.322 -0.1071 -0.0392 -0.0354
84743W        W27759  17.148  28.499   6.731 -0.0079  0.0196  0.0455
84744W        W27760  19.839  16.569   7.022 -0.2522  0.3756 -0.3729
84745W        W27761  17.939  22.371   3.009 -0.3763 -0.1350  0.2918
84746W        W27762  15.312  15.894  20.333 -0.2250  0.0501 -0.3755
84747W        W27763  12.069  18.401  22.168  0.1802 -0.0298  0.1814
84748W        W27764  14.149   7.698  25.059  0.3966  0.2638 -0.0357
84749W        W27765  15.404  24.703  28.418 -0.1048 -0.0084  0.2080
84750W        W27766   6.998  11.255   3.993 -0.3646 -0.0826  0.1932
84751W        W27767  14.681  34.041   8.402 -0.0108  0.2195  0.1635
84752W        W27768  32.958   1.677  26.816 -0.0732  0.1500  0.1088
84753W        W27769  13.481  10.188  13.716 -0.1150  0.0252 -0.0617
84754W        W27770  27.139   1.039   9.037  0.1187  0.1536  0.1528
84755W        W27771  14.205  17.342  27.159  0.1839 -0.1580  0.2850
84756W        W27772  33.144   4.064   2.396 -0.2598  0.3128 -0.2160
84757W        W27773  11.786  29.142   8.436 -0.1129 -0.0460  0.2341
84758W        W27774  30.724  31.888   5.187  0.0362 -0.2592 -0.0103
84759W        W27775   6.988  30.528   4.281  0.1492 -0.3719  0.3175
84760W        W27776  33.581  24.717   4.723  0.0771  0.0458 -0.4033
84761W        W27777  16.351  18.936  11.624 -0.3138  0.1706 -0.0966
84762W        W27778   9.760  21.099   9.240  0.0400  0.3332  0.0560
84763W        W27779  12.001  17.670   7.540 -0.1536  0.2007  0.0931
84764W        W27780   9.613  22.463   3.157 -0.0290 -0.2512  0.1750
84765W        W27781   8.553  24.782  26.615  0.0832 -0.3210 -0.2984
84766W        W27782   9.410  32.049   1.505 -0.0266  0.3578 -0.1886
84767W        W27783  26.413  32.012  28.089 -0.3801 -0.2209 -0.1205
84768W        W27784  11.200  12.108   6.048 -0.0195 -0.0844  0.4459
84769W        W27785   5.261  25.583   2.796 -0.3027 -0.1251 -0.1381
84770W        W27786  29.407  29.642  22.641 -0.1872 -0.3798 -0.3238
84771W        W27787  11.051  31.573   1.999 -0.0194  0.1589  0.2295
84772W        W27788  33.541   0.604   0.816 -0.0103 -0.1885 -0.1812
84773W        W27789  23.854   4.080  21.312  0.0134 -0.2616  0.0912
84774W        W27790   9.376  32.977   3.050 -0.0168  0.0597  0.1856
84775W        W27791  12.043  30.335  19.600  0.1822 -0.1424 -0.0789
84776W        W27792  17.233   6.414   3.341 -0.0413 -0.0287 -0.0401
84777W        W27793   9.347   2.673   7.644 -0.0926 -0.0350 -0.1598
84778W        W27794  28.931  24.886  23.661 -0.1484 -0.4363  0.0870
84779W        W27795  17.367  15.784  15.286 -0.0860  0.3159  0.0020
84780W        W27796   9.481  18.217  25.912  0.1391 -0.0183  0.1154
84781W        W27797  28.289  19.916   1.404  0.1154  0.0335  0.1803
84782W        W27798  12.947  22.751  28.626 -0.0462  0.2962 -0.0349
84783W        W27799  34.013   0.797   8.895 -0.0446 -0.4285 -0.1067
84784W        W27800   3.955   2.536   1.556  0.1879  0.1007  0.0058
84785W        W27801  10.134  27.936   2.474 -0.1099  0.0688  0.3539
84786W        W27802   8.812  33.845   5.435  0.0463  0.1322 -0.4745
84787W        W27803   2.886  25.739   2.822 -0.2128 -0.0800  0.0773
84788W        W27804   3.312   0.322   5.408 -0.0285 -0.1465  0.1173
84789W        W27805  14.517   2.316   5.725  0.3395  0.2949  0.0621
84790W        W27806  13.615  16.593  27.374 -0.0908 -0.1513  0.5837
84791W        W27807  19.115  27.559   4.920  0.2361  0.1051 -0.3286
84792W        W27808  14.418  33.847  28.738 -0.0937 -0.1602  0.3242
84793W        W27809  30.783   4.489   0.131  0.0069 -0.0130 -0.2226
84794W        W27810  17.511  27.934  16.657  0.1084  0.1518 -0.0557
84795W        W27811  11.186  23.526  26.974  0.0382  0.0193  0.0800
84796W        W27812  34.536   9.591  25.529 -0.3006 -0.0757  0.0425
84797W        W27813   6.430  24.210   3.769 -0.3274 -0.1616  0.0685
84798W        W27814   3.891  29.537  20.638 -0.3823 -0.3131  0.0488
84799W        W27815   7.773   6.028  17.093 -0.2124 -0.1866  0.1313
84800W        W27816   9.266  28.259   7.575 -0.0052 -0.0209  0.1895
84801W        W27817  20.626  19.331  22.666  0.4432  0.2402 -0.3177
84802W        W27818  27.618   4.256  11.001  0.0284  0.0280  0.0285
84803W        W27819  32.457  12.122   9.020 -0.0819 -0.1726 -0.0561
84804W        W27820   5.495  33.731  17.108  0.2045  0.1010  0.1089
84805W        W27821   1.476   3.872   3.522 -0.2031 -0.0134 -0.0991
84806W        W27822  22.369  32.953  10.835 -0.0644 -0.0323  0.1844
84807W        W27823   4.278  22.316   9.100  0.0844  0.0173  0.0526
84808W        W27824  13.731  32.555   9.371  0.1009 -0.0708  0.3462
84809W        W27825  18.661  17.596   3.767 -0.1999  0.0283 -0.0492
84810W        W27826  22.995  20.708  23.632  0.1990  0.1922 -0.3028
84811W        W27827   2.687  21.118  21.417  0.1478 -0.0301  0.1296
84812W        W27828  31.336  30.720   6.624  0.0260 -0.0279  0.0648
84813W        W27829  31.769  29.720  22.376  0.1382  0.1247  0.0321
84814W        W27830  12.420  19.347   3.103  0.1404  0.0127 -0.3018
84815W        W27831  23.270   0.977  28.264  0.0185  0.1649  0.1385
84816W        W27832  17.861  20.391  21.551 -0.3475  0.1942 -0.0448
84817W        W27833  19.825  22.963  23.650 -0.0244 -0.0403 -0.5382
84818W        W27834  15.500   6.545  19.964  0.1680  0.1811  0.2539
84819W        W27835  17.839  24.273   4.849  0.1760  0.3319 -0.1146
84820W        W27836  15.584  12.942   4.720 -0.1382  0.2053  0.0347
84821W        W27837  12.552  12.737  27.408  0.1634  0.0235  0.3383
84822W        W27838  11.341  31.469  28.956 -0.0075 -0.3700  0.2098
84823W        W27839   3.843  34.264   2.916  0.4633 -0.0904 -0.0840
84824W        W27840  28.929  25.045  10.866 -0.1119 -0.0945  0.1141
84825W        W27841  15.442  17.111  27.101 -0.1189  0.2099  0.1429
84826W        W27842  16.155  18.496   3.086  0.1733 -0.1581 -0.1004
84827W        W27843  13.283  17.503   7.188 -0.1956  0.2562  0.2200
84828W        W27844  12.506  25.763  23.363 -0.1674  0.1329  0.1046
84829W        W27845   0.700  23.790   1.004  0.0059 -0.1798  0.0426
84830W        W27846  20.745   5.173   2.361  0.0542 -0.0740 -0.1580
84831W        W27847   6.565   4.990  27.220 -0.1815  0.0437 -0.0611
84832W        W27848   3.070  26.406  23.180 -0.1931  0.1695  0.2954
84833W        W27849  12.164  15.212  20.804  0.1786  0.1275  0.1531
84834W        W27850   7.539  29.855   2.158  0.2056  0.0178  0.0525
84835W        W27851  23.498  26.330   7.053  0.0291 -0.1408  0.3600
84836W        W27852   8.427  14.830  28.556 -0.0309  0.0085 -0.0861
84837W        W27853   8.891  25.262   0.335  0.0560  0.0620  0.0337
84838W        W27854   2.351  18.737   9.242  0.0468  0.1433 -0.2263
84839W        W27855  25.887   4.672   1.347  0.2673 -0.0774 -0.1713
84840W        W27856  11.894   3.774  28.683  0.0840  0.0199 -0.1995
84841W        W27857   7.015  22.479  14.105 -0.0455  0.0066 -0.0536
84842W        W27858  10.490  13.451   6.006 -0.0299  0.1123 -0.1873
84843W        W27859  30.629  13.996  29.222  0.2492 -0.1351 -0.2160
84844W        W27860  18.454  32.068  20.072 -0.1675  0.1602  0.3375
84845W        W27861   7.374  20.857   8.566  0.0531 -0.1387 -0.0003
84846W        W27862  10.378  25.208   0.157 -0.1087 -0.3011 -0.2318
84847W        W27863  32.524   0.072  21.219 -0.0044 -0.3006 -0.2564
84848W        W27864  10.513  24.893   3.449 -0.2545  0.0638  0.1369
84849W        W27865   5.238  32.301  24.038  0.0969 -0.0790 -0.0141
84850W        W27866  13.880  19.627  20.412 -0.0068  0.1081 -0.4255
84851W        W27867   6.689  17.734  19.843 -0.1343  0.0644 -0.4165
84852W        W27868  12.503   7.558  27.795 -0.1518  0.0486  0.1287
84853W        W27869  29.963   0.922   9.928  0.2155  0.0351 -0.0448
84854W        W27870  13.540  11.210  21.203 -0.1830 -0.0974 -0.0398
84855W        W27871   9.969  23.973  29.133 -0.0065 -0.0132 -0.3708
84856W        W27872  17.648   2.936  24.360 -0.2709 -0.1310 -0.0097
84857W        W27873  28.903  19.100   4.600 -0.2240  0.0029 -0.0385
84858W        W27874  13.771  14.992   7.715 -0.0247 -0.0223  0.0664
84859W        W27875  30.151   5.154   9.509 -0.0452  0.0459 -0.2151
84860W        W27876  25.496  23.256   5.648  0.1365  0.0230 -0.1777
84861W        W27877  33.725  20.123  25.325 -0.2159 -0.1105 -0.0791
84862W        W27878   4.842  20.875   5.001  0.2654  0.2697  0.1184
84863W        W27879  25.803  30.574  29.032  0.1387  0.2027  0.0699
84864W        W27880   3.418   2.074   5.119 -0.0554 -0.2849  0.0387
84865W        W27881  13.566  20.114  12.239  0.0137 -0.0754  0.1068
84866W        W27882  15.742  33.009   2.943  0.3386  0.1720  0.0752
84867W        W27883  16.717  28.566  29.177  0.2585  0.2769 -0.1654
84868W        W27884   6.530  33.702   9.361 -0.3450  0.0203 -0.0910
84869W        W27885   4.450  26.185   7.001 -0.2385 -0.0300  0.1767
84870W        W27886  11.687  31.115   6.943 -0.6688 -0.0333  0.0908
84871W        W27887  32.164  28.022   8.060 -0.1524  0.1479  0.0066
84872W        W27888  14.242  26.220   2.089 -0.0780  0.0705 -0.3047
84873W        W27889  12.690  31.638  19.882  0.1656 -0.2670  0.0577
84874W        W27890  27.236   4.392   7.735 -0.0244 -0.2183 -0.1841
84875W        W27891  28.823  32.196   0.273  0.1571 -0.0052 -0.0719
84876W        W27892  21.595   8.407   2.612  0.3774 -0.2353 -0.0277
84877W        W27893  18.091  14.251  26.588 -0.1509 -0.0609  0.3572
84878W        W27894   5.704   3.821  25.422 -0.2953  0.3055  0.1992
84879W        W27895   7.080  25.286  29.206  0.1287 -0.0410 -0.1492
84880W        W27896   9.830  27.306  26.352 -0.0435 -0.2479  0.1310
84881W        W27897  19.015  34.125   7.014 -0.1574  0.0777 -0.2608
84882W        W27898  13.158  14.796   5.647  0.0258  0.1873 -0.0776
84883W        W27899  12.752   4.411  28.725 -0.1582 -0.3814 -0.0919
84884W        W27900  27.466  33.974  11.475 -0.0750 -0.0781 -0.2130
84885W        W27901  33.358   0.981   2.400  0.0001 -0.4827 -0.0154
84886W        W27902  25.922  34.168  23.207 -0.3758  0.0144 -0.2645
84887W        W27903  20.661  10.491   5.650 -0.1326 -0.1414  0.2455
84888W        W27904  11.523  14.890   7.222 -0.3219 -0.1659  0.0623
84889W        W27905   9.171  24.393  28.673  0.0411 -0.3828 -0.0947
84890W        W27906  10.270   4.055   6.422 -0.1455 -0.2184 -0.1331
84891W        W27907   4.458   1.916   8.883 -0.2146  0.1915  0.1896
84892W        W27908  17.358   9.138  19.686 -0.1483 -0.2457 -0.4579
84893W        W27909   2.080  27.265   3.623  0.0436 -0.1656  0.3489
84894W        W27910  27.180  15.611  19.557 -0.0664  0.1368 -0.2967
84895W        W27911  18.982   4.487   3.108 -0.2391 -0.0634 -0.1627
84896W        W27912  10.790   3.841   0.271  0.0175 -0.1780  0.0404
84897W        W27913   3.126  21.384   6.764  0.0485  0.2563  0.4875
84898W        W27914   4.111  21.152   7.353 -0.0166  0.1534  0.0134
84899W        W27915   0.843  14.324   1.622  0.2036  0.2813  0.2170
84900W        W27916  26.081  20.752   7.890  0.2140  0.0366 -0.0942
84901W        W27917  24.538  19.904   7.616  0.2935 -0.1282  0.1346
84902W        W27918  15.835  29.796   4.615 -0.4000 -0.0131  0.1739
84903W        W27919  11.480  30.299  26.637 -0.3461 -0.0806 -0.1066
84904W        W27920  19.475  19.210  12.492  0.0125  0.1528 -0.1055
84905W        W27921  25.207  32.111   3.713 -0.0301  0.1003 -0.1983
84906W        W27922   4.676  32.935  23.405 -0.4207 -0.2268  0.1174
84907W        W27923   9.415  17.393   0.144 -0.1465  0.0907  0.1172
84908W        W27924  16.195  17.527   0.416  0.0419  0.0283  0.2216
84909W        W27925   6.262  29.784   2.231  0.0520  0.2074 -0.0420
84910W        W27926   3.304  15.311   4.899 -0.1046  0.2251 -0.0107
84911W        W27927   9.552  26.230   5.860 -0.3098 -0.0303  0.1802
84912W        W27928  18.730  13.010   4.381 -0.0748 -0.2471  0.0698
84913W        W27929   7.224   0.396  29.279 -0.1170  0.1230  0.0053
84914W        W27930   8.186   8.704  10.228 -0.1590 -0.0353 -0.0204
84915W        W27931  11.697  18.634   4.832  0.0366  0.0182  0.0371
84916W        W27932  33.362  34.497  20.998  0.0562  0.1327  0.1795
84917W        W27933   6.184  33.295  10.635  0.0920  0.0134 -0.0853
84918W        W27934   1.702  27.780   9.413 -0.0732 -0.0498 -0.0978
84919W        W27935   6.288   2.396   2.265  0.3922 -0.0677  0.1463
84920W        W27936   8.948  21.702  15.814 -0.4436  0.2473  0.1258
84921W        W27937  12.364  24.241  24.251 -0.1938  0.2475 -0.0716
84922W        W27938  15.616   8.747   2.616  0.0455 -0.2193  0.2200
84923W        W27939   2.604  15.868   3.292  0.1949 -0.1803 -0.1491
84924W        W27940  17.408  18.076   1.924  0.1934  0.1442  0.4716
84925W        W27941  28.972  18.222  22.243 -0.1485  0.0576 -0.2515
84926W        W27942   0.307  13.328   5.993 -0.1203  0.3174 -0.0774
84927W        W27943  22.272  26.626   5.299  0.1785  0.1243 -0.1657
84928W        W27944  11.411  28.757  28.908 -0.1119 -0.1820 -0.2091
84929W        W27945  31.152  13.174  10.007 -0.1546 -0.1919 -0.1430
84930W        W27946  12.217   3.443   1.280 -0.1390 -0.2064 -0.0688
84931W        W27947  28.511   3.090  24.096  0.2776 -0.1754 -0.0845
84932W        W27948   7.583   3.373  27.391  0.2855  0.0391 -0.0857
84933W        W27949  18.494   1.525  19.342 -0.2105 -0.3181 -0.0005
84934W        W27950   9.417  18.783   7.224 -0.0601 -0.1955  0.0473
84935W        W27951  23.515  16.097  20.745 -0.1060  0.0169 -0.1260
84936W        W27952  13.501  18.937  13.347 -0.0665  0.0183  0.0196
84937W        W27953  11.984  14.513   8.073 -0.0982  0.0020  0.1648
84938W        W27954  17.300  10.563  28.504  0.2560  0.0806  0.0475
84939W        W27955   6.908  26.280  23.906  0.0543  0.4062  0.4768
84940W        W27956  28.115  10.703  18.538 -0.2791  0.0938 -0.1435
84941W        W27957  16.346  17.907   7.291  0.3382  0.1691 -0.0456
84942W        W27958   7.904  33.828  29.049  0.2813 -0.1673 -0.3487
84943W        W27959   8.007  24.253   7.515  0.0908 -0.0028  0.1607
84944W        W27960  28.000  15.914  24.839  0.1635  0.0575  0.1206
84945W        W27961  30.793   1.980   4.035 -0.0317  0.0531 -0.2568
84946W        W27962  15.096  29.083   9.109  0.0325  0.0603  0.1046
84947W        W27963  15.847  15.582  23.329  0.0064  0.0317  0.0171
84948W        W27964   0.924  19.048   3.153 -0.1575  0.4166 -0.0785
84949W        W27965   4.360  34.407   3.484  0.1533 -0.1955  0.1751
84950W        W27966  15.132   9.440   5.059  0.2303  0.0652  0.1165
84951W        W27967   0.471  17.510   5.884 -0.1708  0.1519 -0.0178
84952W        W27968  24.662  33.578  10.956  0.2785  0.0348 -0.2927
84953W        W27969  17.653   2.451  17.264  0.4251  0.1467 -0.2396
84954W        W27970  20.934  11.785   6.959  0.0267  0.1313  0.4590
84955W        W27971   5.563   6.928  10.596  0.4484 -0.3219 -0.1110
84956W        W27972  33.017   1.135  25.770  0.0750 -0.0816  0.1198
84957W        W27973  33.673  28.764   8.795  0.0653  0.2368 -0.0562
84958W        W27974   3.765  33.304  10.312 -0.1681 -0.1395 -0.0295
84959W        W27975  32.482   3.623  15.509 -0.1134 -0.1938  0.1284
84960W        W27976   6.981  18.729  28.194 -0.1213  0.1472 -0.1197
84961W        W27977  15.773  30.655  26.620  0.0529 -0.2314  0.1894
84962W        W27978   0.492   2.657   6.216 -0.0495  0.1698 -0.0857
84963W        W27979  18.375   2.240  21.125  0.0030  0.0925 -0.1418
84964W        W27980  17.276  11.897  19.411  0.0661 -0.1447 -0.2590
84965W        W27981  13.821  32.296   3.344  0.0173  0.2386 -0.2671
84966W        W27982  12.971  29.749   5.562 -0.2554 -0.2630  0.4579
84967W        W27983   5.712  17.811  21.712  0.0644  0.0372  0.1467
84968W        W27984  22.091  10.351  19.922  0.0774  0.0233 -0.1944
84969W        W27985  34.272  19.498  24.968 -0.0600 -0.3977  0.0743
84970W        W27986  30.278  18.448   1.272 -0.4000  0.1698  0.1014
84971W        W27987  10.106  26.897  23.725 -0.4831  0.2819 -0.2310
84972W        W27988  32.945   7.506  24.594 -0.1608 -0.0005  0.2415
84973W        W27989   8.256   8.817  21.627  0.1890  0.1049  0.0176
84974W        W27990  33.093  22.917   6.236 -0.1471 -0.0490 -0.3923
84975W        W27991   2.671  13.295   1.930  0.1323 -0.1140 -0.0464
84976W        W27992  27.914  26.696   9.394  0.1487 -0.1814  0.2048
84977W        W27993  18.317   7.796   7.753 -0.2377 -0.2042  0.1234
84978W        W27994  31.144  17.880   2.096 -0.0318  0.4353 -0.0113
84979W        W27995  30.131  18.906   3.260  0.1262  0.3760  0.2253
84980W        W27996   5.865  32.069   8.383 -0.0264  0.0951  0.1170
84981W        W27997  19.028  22.268  16.539  0.0783  0.1541 -0.2172
84982W        W27998   6.812  31.353  15.909  0.2586 -0.3096  0.1094
84983W        W27999  17.434  22.204  15.323  0.1819  0.3925 -0.4084
84984W        W28000  30.187  13.374  25.638  0.0949 -0.0164 -0.2018
84985W        W28001  32.190   4.082   4.521 -0.0004  0.1583 -0.0476
84986W        W28002  30.258  26.919  25.683  0.0751 -0.0750  0.0504
84987W        W28003   1.250  11.617  22.544 -0.0386 -0.1920  0.1135
84988W        W28004  11.029  34.018   2.992 -0.2090 -0.1173  0.1916
84989W        W28005   9.759   9.394   2.726  0.3241 -0.2223 -0.0952
84990W        W28006  13.356  31.625   9.562  0.1121 -0.1406  0.2250
84991W        W28007   6.401  33.690   8.845  0.1450 -0.0241  0.1037
84992W        W28008  20.970  21.489   4.874  0.0943 -0.1414  0.0871
84993W        W28009   9.146  33.608  28.648 -0.1001  0.4586 -0.3266
84994W        W28010  19.642  33.523  24.290  0.0677  0.0769  0.0634
84995W        W28011   3.249  32.460   8.516 -0.2407  0.0822  0.0947
84996W        W28012  31.395  20.167   8.328  0.0271 -0.1188 -0.0157
84997W        W28013  13.862   3.370   5.548  0.1580  0.0639  0.2360
84998W        W28014   3.607  23.942   1.726  0.1625  0.3098  0.0386
84999W        W28015  25.903  21.894   8.737  0.1288 -0.3946  0.2649
85000W        W28016   6.458  16.440  26.846  0.1662 -0.2881 -0.0357
85001W        W28017  11.280  24.107   1.879  0.0670  0.1091 -0.1999
85002W        W28018  11.043   8.167  23.670 -0.0240 -0.0315  0.1585
85003W        W28019   9.619  20.982  16.088 -0.2162 -0.1110 -0.3155
85004W        W28020   5.887  29.800  29.231 -0.3052  0.3749 -0.4046
85005W        W28021  20.628  13.396   3.984 -0.2767  0.0661 -0.1608
85006W        W28022   7.171  24.407   0.156 -0.3596  0.0436  0.2121
85007W        W28023   4.874  24.693   1.461  0.2771 -0.1976 -0.1414
85008W        W28024  16.227  22.950   7.059 -0.0136  0.1552 -0.0548
85009W        W28025  14.335  14.222   1.679 -0.2979  0.0142  0.0051
85010W        W28026   0.822   2.263   9.470 -0.1561  0.0191 -0.1256
85011W        W28027  18.700   7.458   7.578  0.1984 -0.0201 -0.4419
85012W        W28028   8.707  24.406   0.199 -0.0843 -0.0538 -0.0143
85013W        W28029   6.025  30.085  19.196 -0.0146 -0.0588 -0.0553
85014W        W28030   2.327  17.276  17.379  0.1972  0.2568 -0.0282
85015W        W28031   2.033   2.434  28.659  0.0867  0.0043  0.0631
85016W        W28032  17.097  17.859   5.195 -0.1799 -0.0542  0.1089
85017W        W28033   2.900  28.195   7.353 -0.1201 -0.1058  0.1216
85018W        W28034   7.596  25.587  28.565  0.0440  0.1761  0.1178
85019W        W28035   5.033  26.397  17.983 -0.0353  0.3003 -0.2977
85020W        W28036   3.875  28.582   0.763 -0.0544 -0.1376 -0.2524
85021W        W28037  10.540   0.605  25.991 -0.1097 -0.1278 -0.3342
85022W        W28038  12.859   9.493   5.373 -0.2715 -0.0435  0.0253
85023W        W28039  30.094  16.962   4.499  0.1234  0.1380  0.0686
85024W        W28040   3.914  26.713   9.877 -0.1438 -0.0786  0.1706
85025W        W28041   5.550   2.283  20.103 -0.3533  0.1433 -0.0955
85026W        W28042  30.930  20.030  25.376  0.0067  0.2082  0.2719
85027W        W28043   3.931  29.258   9.688 -0.1320 -0.0992 -0.2330
85028W        W28044  29.250  20.758  24.792  0.4584 -0.2229  0.1069
85029W        W28045  27.748  24.383  28.269  0.2367  0.1153 -0.0296
85030W        W28046  20.421  21.657   0.626  0.0473  0.2863  0.0793
85031W        W28047  13.631  27.701  25.460  0.3661 -0.1888 -0.1271
85032W        W28048  19.825  25.047   0.755 -0.4275  0.2397  0.0415
85033W        W28049  15.266  24.397   0.980 -0.0398  0.0532 -0.0031
85034W        W28050  13.389  19.497  24.235  0.3308  0.1388 -0.1164
85035W        W28051  15.875  32.021   3.774  0.1190 -0.0473  0.2669
85036W        W28052  23.427  29.342   1.055  0.2346  0.2092  0.1694
85037W        W28053   6.756   7.299   4.271 -0.2547  0.1263 -0.0748
85038W        W28054  14.041  30.954   8.698  0.2642 -0.1204  0.5481
85039W        W28055   1.315  34.178   6.547  0.1504  0.1549  0.1117
85040W        W28056  10.076   4.718  19.763  0.1632  0.1644 -0.2711
85041W        W28057  23.706   1.508   6.107 -0.0290 -0.0547  0.0614
85042W        W28058  22.304  23.489  19.390  0.4172 -0.1406  0.2218
85043W        W28059  12.703   1.162  17.755 -0.1134 -0.2312 -0.1248
85044W        W28060  22.267  22.578   8.165 -0.3942 -0.1112  0.2234
85045W        W28061  30.370  16.493   1.506  0.3857 -0.2354 -0.0903
85046W        W28062  18.876   7.318   5.521 -0.2374  0.1341 -0.0593
85047W        W28063   1.667   7.554  27.595  0.0524  0.1691 -0.0187
85048W        W28064  23.975   4.187   9.678  0.2856  0.1273 -0.2809
85049W        W28065   4.237   2.029   1.612  0.2008 -0.1370 -0.1606
85050W        W28066   9.448  29.649   2.320 -0.2099  0.0888 -0.0707
85051W        W28067   2.975  31.693   8.406  0.0394  0.0343  0.2539
85052W        W28068   4.006  18.457   0.295 -0.0346  0.1721  0.0172
85053W        W28069   1.551  25.172   3.194  0.0534 -0.0160 -0.1541
85054W        W28070  32.822  18.370  22.565  0.2951  0.0643 -0.1546
85055W        W28071  31.637   5.644   3.161 -0.4230 -0.0258 -0.1838
85056W        W28072  28.291  32.054  11.401 -0.2024  0.3673 -0.0251
85057W        W28073  16.202  25.476   7.604  0.1904  0.1543  0.0891
85058W        W28074   0.662  23.002  26.295 -0.2333  0.0612  0.1177
85059W        W28075   1.788   0.984   9.563 -0.1089  0.2560 -0.2016
85060W        W28076  24.600  23.474   5.357 -0.1243 -0.2521 -0.1620
85061W        W28077   1.491  24.237   0.874  0.3216 -0.0724 -0.3343
85062W        W28078   6.212   1.827   2.223 -0.4272  0.0497 -0.0330
85063W        W28079   0.575  30.343   9.055 -0.0425 -0.2185 -0.0414
85064W        W28080  32.411  29.878   6.529  0.0107  0.1252  0.1221
85065W        W28081  14.472  20.386  28.704  0.3138 -0.1035  0.1715
85066W        W28082  15.931  19.040  20.756  0.2155  0.1962 -0.0294
85067W        W28083   6.538  30.739   9.227 -0.1505  0.0419  0.4062
85068W        W28084  13.128  11.809   5.444  0.2394 -0.0350  0.0166
85069W        W28085  10.114  28.789   9.104  0.1056 -0.2509  0.0278
85070W        W28086   1.080  22.919  24.983  0.1942 -0.2161  0.2348
85071W        W28087   7.419  23.966   0.491  0.2105  0.0952  0.3100
85072W        W28088  30.405  12.292  25.074  0.1958  0.0416  0.0850
85073W        W28089   2.382   6.022  27.319 -0.1461  0.2163  0.1341
85074W        W28090  25.693   7.980   6.039 -0.3522 -0.0131 -0.0902
85075W        W28091  22.851  32.572  19.825  0.2933  0.0946  0.2507
85076W        W28092  24.013  23.407  16.958 -0.0087  0.0871  0.2228
85077W        W28093  30.954  33.177   9.743  0.1148 -0.0722 -0.4975
85078W        W28094   0.888  32.823   3.190 -0.2835  0.0263 -0.1720
85079W        W28095  14.942  24.515   6.228 -0.1210 -0.4620  0.1867
85080W        W28096   2.913  15.675  26.143  0.1274 -0.0610  0.0840
85081W        W28097  20.644   8.188   0.656 -0.0224  0.0320 -0.0494
85082W        W28098   5.940  31.144   5.719 -0.1687  0.1459 -0.4017
85083W        W28099  10.647  25.772  29.300  0.2178 -0.1457  0.0598
85084W        W28100   5.894  29.383  23.565  0.4514  0.1406 -0.0303
85085W        W28101  15.552  17.089  27.682 -0.1865 -0.2665 -0.2354
85086W        W28102   8.175  32.274   2.920 -0.0755  0.1518 -0.0692
85087W        W28103   4.712  33.084   6.420  0.3096 -0.3203 -0.0441
85088W        W28104   7.177  32.847   4.449 -0.0510  0.0479 -0.2680
85089W        W28105  12.877   0.545   9.345  0.0837 -0.1437 -0.2203
85090W        W28106  29.398  21.971   1.296  0.0176 -0.0070  0.0494
85091W        W28107   8.359  18.438   1.237 -0.1320 -0.1383  0.1730
85092W        W28108  30.437   3.141   2.354  0.1171 -0.2203  0.1262
85093W        W28109   0.883  26.599   8.363  0.1000  0.1944  0.1057
85094W        W28110   5.369  11.848   3.189  0.3931 -0.1303  0.1458
85095W        W28111   9.687  22.090   4.671  0.0824  0.3461  0.0890
85096W        W28112   3.250  17.308   6.410  0.3725 -0.1603  0.1127
85097W        W28113  12.733  18.655  14.587 -0.0297  0.0866 -0.2330
85098W        W28114   1.741  14.797   0.243  0.1752 -0.1114 -0.0484
85099W        W28115   4.661  27.793   9.803  0.1799 -0.1249  0.0668
85100W        W28116   8.190  30.909   4.822  0.1230 -0.1371  0.5085
85101W        W28117  18.683  14.468   1.469  0.1758 -0.0785  0.2369
85102W        W28118  34.578  34.278   7.643  0.1511 -0.1168 -0.0532
85103W        W28119   6.609  23.132  24.592  0.1152  0.2481  0.0992
85104W        W28120  30.266  31.866   6.394  0.0777  0.3262 -0.2259
85105W        W28121  17.212  23.870   2.543  0.2451 -0.1003 -0.0962
85106W        W28122  24.979  11.496   7.979  0.3635 -0.1957 -0.1255
85107W        W28123  17.047  29.888   9.219 -0.1545  0.0375  0.2124
85108W        W28124   3.192  28.613  24.310 -0.0776 -0.2010 -0.0437
85109W        W28125  13.004  31.752  16.121  0.2513  0.0376  0.0222
85110W        W28126  31.513  26.517   9.884 -0.4521  0.0498  0.0942
85111W        W28127  17.798  12.707  25.831 -0.5343  0.1745  0.0451
85112W        W28128   9.822  20.070   8.692 -0.0988  0.1743  0.0022
85113W        W28129  27.469  22.722   5.474  0.1867  0.2678  0.5181
85114W        W28130  11.840  30.366   7.633  0.4953 -0.0052  0.1348
85115W        W28131  26.313  27.471   5.847  0.0739 -0.0143  0.3000
85116W        W28132  17.367  30.115   1.413 -0.1869  0.2112  0.2571
85117W        W28133  10.797  21.107   2.669 -0.2167  0.2432 -0.1764
85118W        W28134  11.145  34.091   9.749 -0.0994 -0.2206 -0.0602
85119W        W28135  14.074  15.468  27.663  0.1221  0.3493 -0.2891
85120W        W28136   6.130  24.757  25.955  0.5488  0.2340  0.1362
85121W        W28137   8.132  32.095   7.612 -0.3613  0.0826  0.1330
85122W        W28138  34.486  23.002  24.693  0.1953  0.0455  0.2452
85123W        W28139   6.297  34.577   6.859 -0.0204 -0.1296 -0.5483
85124W        W28140   0.872  19.611  10.078 -0.1608 -0.2385  0.1651
85125W        W28141   7.326  16.431  28.952 -0.5604  0.2874  0.1290
85126W        W28142  10.311  18.673   5.142 -0.2159  0.2852  0.0027
85127W        W28143  34.683  28.878   4.323 -0.0174  0.6531 -0.0817
85128W        W28144  11.595  26.714   8.691 -0.0168 -0.1881 -0.0149
85129W        W28145  21.606  23.995  20.061  0.2144  0.0318 -0.1844
85130W        W28146  12.425  20.300  14.885 -0.3167 -0.0337  0.0813
85131W        W28147   4.182  22.732   3.261  0.1088  0.0675 -0.0726
85132W        W28148  19.751  34.513   5.660  0.0105  0.0014 -0.1301
85133W        W28149  16.482  15.016  23.027  0.1095 -0.1201  0.1821
85134W        W28150  20.768  12.064   2.091  0.0122  0.0197  0.2264
85135W        W28151   8.388  34.361   2.500 -0.0441 -0.3003  0.2065
85136W        W28152   8.773   0.562  21.823  0.3146  0.2759  0.2054
85137W        W28153  11.028  17.073  21.569  0.1415 -0.1430  0.3046
85138W        W28154  10.656  11.726   8.016 -0.0596  0.0915  0.1970
85139W        W28155   3.187  29.513   6.239 -0.0575  0.0374 -0.2897
85140W        W28156  22.849  28.363   9.417  0.2774 -0.1723  0.2699
85141W        W28157   8.038  15.657   2.944  0.1565  0.0416  0.1874
85142W        W28158   4.416   4.860   1.000 -0.4208  0.0474 -0.1265
85143W        W28159   6.865   2.915   8.292  0.1261  0.1532  0.1632
85144W        W28160   7.293   1.905   5.927  0.1025  0.1358  0.2154
85145W        W28161  31.383  20.909   6.196 -0.3260  0.1683  0.2425
85146W        W28162  31.302  19.782   0.139 -0.3020  0.2725  0.0324
85147W        W28163  14.851  19.722  27.214 -0.0623 -0.2146 -0.3548
85148W        W28164   7.861  23.818  15.560  0.0642 -0.3089 -0.4123
85149W        W28165  18.272  23.905  18.310  0.4640  0.1618  0.0016
85150W        W28166   9.753  12.658  22.003 -0.1708  0.2086 -0.1465
85151W        W28167  12.002  14.421   4.334 -0.3173 -0.0924  0.1366
85152W        W28168   8.979   6.647   4.228  0.3350  0.0179  0.3817
85153W        W28169  30.619  22.054  24.159 -0.2338 -0.1648  0.0978
85154W        W28170  20.622   3.827  18.634  0.2311 -0.1384 -0.1934
85155W        W28171  24.910  28.933  11.672  0.0956 -0.0700  0.1522
85156W        W28172  12.268   9.475  26.482 -0.4583  0.0985 -0.0845
85157W        W28173   1.014   5.719   5.786 -0.0766 -0.0813  0.0145
85158W        W28174  10.528  21.540   7.828 -0.0810 -0.0548  0.2705
85159W        W28175  14.393  30.751   4.489 -0.0359 -0.2892 -0.1734
85160W        W28176   7.012   2.578  10.191  0.0551  0.0616 -0.0311
85161W        W28177  30.150   4.620   9.006  0.2826 -0.1729 -0.1254
85162W        W28178  33.914   1.669  20.841  0.1943  0.1357 -0.2100
85163W        W28179  21.157   4.526   3.248 -0.0390 -0.2310  0.1542
85164W        W28180  31.249  29.978  16.041 -0.0184 -0.2241  0.1421
85165W        W28181   8.255  15.028   0.209  0.1113  0.0362  0.0077
85166W        W28182   0.738   5.476  23.964  0.0188 -0.1782 -0.2940
85167W        W28183  29.665  26.158   8.188 -0.1651  0.0700  0.1473
85168W        W28184   6.840  33.715  25.874 -0.0117 -0.0037  0.2308
85169W        W28185  19.281  18.132   3.797 -0.1194  0.3074  0.2202
85170W        W28186  15.620   1.644   6.464 -0.0925  0.0959 -0.1993
85171W        W28187  23.396  27.429  23.891 -0.0203  0.1803 -0.2200
85172W        W28188  18.648   7.078  28.030 -0.1990  0.0486 -0.0234
85173W        W28189  25.554  33.437   6.964 -0.0509 -0.0158 -0.2339
85174W        W28190  12.346  25.090   8.969 -0.0520 -0.1441  0.0627
85175W        W28191   6.187  25.175  24.883  0.2066  0.3593  0.1159
85176W        W28192  14.259   8.451   2.424  0.0433  0.1240  0.1568
85177W        W28193   8.391  23.818   0.670 -0.2627  0.1556  0.6299
85178W        W28194   9.515  31.592  26.016  0.0788  0.0942 -0.0594
85179W        W28195   4.716  24.585   3.785  0.1062  0.1432 -0.4558
85180W        W28196   5.999   0.524   4.245 -0.1779 -0.0819 -0.0863
85181W        W28197  21.717  16.147   9.746 -0.2472 -0.1930 -0.0467
85182W        W28198  18.537  27.685   1.429 -0.0415 -0.0066 -0.1188
85183W        W28199  12.275  17.858  26.783 -0.2137 -0.2577 -0.0324
85184W        W28200   7.726  22.690   3.751 -0.0940  0.0419 -0.0517
85185W        W28201  20.027  30.297   6.237 -0.3140  0.1968 -0.1519
85186W        W28202   1.827   4.124   8.721 -0.0749 -0.1702 -0.2683
85187W        W28203   6.911   6.210   5.906 -0.0687 -0.0470  0.1944
85188W        W28204  13.900  23.880  14.320  0.0473  0.0736  0.1067
85189W        W28205   7.647   3.918   2.431  0.0341  0.2633  0.0320
85190W        W28206  32.839  22.688  16.494  0.3020 -0.0146 -0.1717
85191W        W28207  18.299  29.109   9.487  0.4308 -0.2649  0.4289
85192W        W28208  33.934  26.953  22.294 -0.1402 -0.1540  0.1121
85193W        W28209  33.969  27.657   7.024  0.0324  0.3559  0.2817
85194W        W28210  31.029   3.921   3.176 -0.1059  0.1131  0.0879
85195W        W28211  14.782  33.755   6.528 -0.1788  0.1036  0.1276
85196W        W28212  17.535  28.622   9.132 -0.0888  0.0797  0.1208
85197W        W28213   3.878  24.983   4.980  0.3424  0.2712 -0.0311
85198W        W28214   0.653   3.446   8.459 -0.0977 -0.2135 -0.0124
85199W        W28215  14.773  33.560   7.144  0.0208  0.0437 -0.3057
85200W        W28216  25.583  29.288  17.129  0.0774 -0.3670  0.0534
85201W        W28217   8.690  27.700   2.240 -0.0425 -0.2949  0.2084
85202W        W28218  14.869  25.715   1.957 -0.0376  0.2379  0.0012
85203W        W28219  28.586  10.466  21.759  0.1511  0.1854 -0.0531
85204W        W28220  29.256  31.455  22.484 -0.1624 -0.1669 -0.0929
85205W        W28221   6.241  27.817  10.603  0.3301 -0.0427  0.0124
85206W        W28222   1.939  19.212   2.436 -0.3293  0.1150 -0.1760
85207W        W28223  14.860  23.645   7.351 -0.3404  0.1211 -0.0966
85208W        W28224  34.456  30.246   4.056 -0.2837 -0.0779 -0.0396
85209W        W28225   9.099   5.509  25.033 -0.1010  0.3018 -0.0657
85210W        W28226  14.699  20.003  11.176  0.1056 -0.0498  0.0446
85211W        W28227   2.292   8.560  15.862  0.0880  0.2015  0.0929
85212W        W28228   9.169  31.974  29.220  0.0061  0.0773  0.0202
85213W        W28229  34.683  25.196  22.239 -0.1360 -0.0101 -0.2103
85214W        W28230  10.125   9.992   3.240 -0.1973  0.1928  0.0652
85215W        W28231  16.934  18.972  14.037 -0.0880 -0.2985  0.3014
85216W        W28232  16.867  19.540   1.347  0.3091 -0.1718 -0.1876
85217W        W28233  29.437  15.492  16.929 -0.2587  0.0438 -0.0347
85218W        W28234  23.317   4.684   5.492 -0.0116  0.0268 -0.2514
85219W        W28235   8.958  32.248   9.081  0.3192 -0.2177  0.3662
85220W        W28236  13.733  17.179  21.014 -0.1972 -0.1318  0.2025
85221W        W28237  15.039  24.013   6.308 -0.1997 -0.3576  0.2953
85222W        W28238  17.795  25.786  28.183  0.1654 -0.1242  0.2601
85223W        W28239  33.448  18.065  25.500  0.0046 -0.0517 -0.1635
85224W        W28240  17.430   3.300   4.844  0.0799  0.1282  0.0155
85225W        W28241  20.470   3.142   6.667 -0.2116 -0.0203  0.0262
85226W        W28242  10.883  10.410   7.712  0.1588 -0.0804  0.0167
85227W        W28243   8.345  24.256  28.367  0.2759  0.2144 -0.0077
85228W        W28244   8.478  23.303   7.985  0.1122  0.0999  0.0885
85229W        W28245   9.886  33.799   2.077 -0.2876  0.1589  0.1109
85230W        W28246  19.507  18.333   5.153 -0.0787 -0.0398  0.4989
85231W        W28247   2.341  24.129  28.237 -0.1586  0.0842  0.1370
85232W        W28248  28.340   2.467  10.691 -0.1957  0.0808  0.0983
85233W        W28249   3.349  29.273  25.550  0.2732 -0.0202  0.2219
85234W        W28250  16.654   5.358   9.920 -0.1285 -0.0016  0.0170
85235W        W28251  14.922  19.612   5.742 -0.1668  0.2407  0.0544
85236W        W28252  23.455  28.540  10.721  0.1336 -0.3326  0.2849
85237W        W28253  22.119  25.795   6.013  0.1042 -0.1900  0.1668
85238W        W28254  34.325  28.859   8.538  0.2130 -0.1262 -0.0063
85239W        W28255  13.037  31.473   5.401 -0.1023 -0.4094  0.1453
85240W        W28256   0.716  23.926   8.730  0.2340 -0.0523  0.0068
85241W        W28257   8.391  30.093   6.738 -0.0070  0.2017 -0.1593
85242W        W28258  17.768  27.409   5.852 -0.1430  0.1605 -0.0015
85243W        W28259  14.348   1.517   3.572  0.1764 -0.0960  0.4528
85244W        W28260   9.330  19.989   7.522  0.1092 -0.1282  0.2266
85245W        W28261  11.078  24.350  28.111  0.2880  0.0048  0.0440
85246W        W28262  34.160   4.570   9.971 -0.2281  0.0572 -0.1808
85247W        W28263  16.553   1.155   2.920  0.0349  0.1338  0.0679
85248W        W28264  18.916  30.237   0.399  0.1257 -0.0368 -0.4125
85249W        W28265   2.188  33.818   9.153  0.2762 -0.0343 -0.0555
85250W        W28266  15.454   6.065   0.643  0.0946  0.0902 -0.1219
85251W        W28267   2.838  29.673  27.630  0.1039  0.1794 -0.0920
85252W        W28268  19.598  10.314   4.805  0.0450  0.0643  0.1080
85253W        W28269   5.140  20.535   1.846 -0.0629  0.0226  0.1373
85254W        W28270  17.366   2.726  28.813 -0.2861 -0.2833  0.4261
85255W        W28271   8.332   2.800   3.302  0.1378 -0.0462 -0.1821
85256W        W28272  26.814  28.155  10.117 -0.1558 -0.0743 -0.0748
85257W        W28273   0.604   1.235   6.815  0.3146  0.0240 -0.1058
85258W        W28274  32.932  29.255   8.238  0.1023 -0.1924  0.0783
85259W        W28275  13.221   7.569   3.151 -0.1950  0.0418  0.1252
85260W        W28276   4.177  32.306  29.059  0.0063  0.2848 -0.0875
85261W        W28277   2.376  31.249   5.772  0.1039 -0.0533 -0.0828
85262W        W28278  21.955  22.325   2.680 -0.1264 -0.1159  0.0496
85263W        W28279  30.353  30.584   6.820  0.0493 -0.1877  0.2005
85264W        W28280   7.073  32.801   1.225  0.0721  0.3589  0.0092
85265W        W28281  32.699  26.124   2.073 -0.0107 -0.1113 -0.0348
85266W        W28282   8.822  22.109  15.515 -0.0704  0.0944 -0.1619
85267W        W28283  12.721  18.440  25.406  0.1645 -0.0786 -0.2132
85268W        W28284  13.342  14.570   3.223 -0.1467 -0.0629 -0.0488
85269W        W28285  19.016  17.393  19.854  0.1547 -0.2146 -0.0598
85270W        W28286  17.761  31.806   6.191 -0.2078  0.1567  0.0621
85271W        W28287   2.441   3.642   7.210 -0.0519 -0.1007 -0.0185
85272W        W28288  12.983  29.242  19.401  0.2951  0.3025  0.1942
85273W        W28289   4.466   3.857  25.387  0.2601  0.1889  0.3205
85274W        W28290  15.277  21.833   1.781  0.2597 -0.0042  0.1689
85275W        W28291   9.992  14.585  28.949 -0.0344  0.1303 -0.0157
85276W        W28292  15.000   2.479   0.116 -0.1071  0.1837 -0.2501
85277W        W28293   6.915  16.085   8.392  0.0171 -0.0090  0.4185
85278W        W28294  18.793  34.087   4.247 -0.0550  0.2692 -0.0233
85279W        W28295  11.369  16.618  21.998  0.0228 -0.0511 -0.0970
85280W        W28296  16.307  28.864  28.918  0.3035 -0.0796 -0.0357
85281W        W28297  33.771   1.516  19.703 -0.0995 -0.0244 -0.0640
85282W        W28298  14.338   0.406   8.228 -0.1945  0.1175 -0.2269
85283W        W28299   7.509   0.437  10.527 -0.2534  0.0167 -0.3089
85284W        W28300   7.701  25.123   5.837  0.4253  0.1226 -0.0711
85285W        W28301  25.097  19.255  27.479 -0.1984 -0.0342 -0.1681
85286W        W28302  15.241  16.506   1.874  0.0766 -0.1594 -0.1604
85287W        W28303  32.586  14.554   6.279  0.1796  0.0129 -0.2399
85288W        W28304  17.750  19.425  29.317  0.2850 -0.0108 -0.1002
85289W        W28305  14.486  34.124   5.681 -0.1449  0.1988  0.0411
85290W        W28306  10.989  28.985   8.552  0.0198  0.0410  0.3254
85291W        W28307  23.309  21.983   0.597  0.2384  0.4904  0.1855
85292W        W28308  33.159   6.136   2.582  0.3057  0.0176  0.1647
85293W        W28309  21.534  16.778   2.690 -0.1863  0.1188 -0.0129
85294W        W28310  20.555  34.200   5.918  0.0729 -0.1445 -0.0515
85295W        W28311  25.323  17.281  24.052 -0.0878 -0.4365 -0.0017
85296W        W28312   3.980  32.233   9.510 -0.0310  0.0648 -0.2396
85297W        W28313  11.758  22.845  25.848  0.1216 -0.2461 -0.1459
85298W        W28314  17.326   4.417  28.198  0.0296 -0.1906 -0.0952
85299W        W28315  33.433  19.479   6.151 -0.0882  0.4505 -0.1749
85300W        W28316  14.576  17.854   5.442  0.1414 -0.2264 -0.2883
85301W        W28317   2.703  21.782  23.132 -0.1228 -0.1838 -0.3467
85302W        W28318   8.856  33.991   8.214 -0.1376 -0.0544  0.0770
85303W        W28319   8.294  24.929   6.932 -0.1903 -0.1172  0.0555
85304W        W28320  32.101  24.307  10.818 -0.2084  0.0207  0.3502
85305W        W28321  12.652  25.383   8.583  0.1338  0.4673  0.0697
85306W        W28322   1.668   1.246  22.670  0.0664 -0.0549  0.2156
85307W        W28323  18.613  14.851  19.264  0.0439 -0.2551 -0.1584
85308W        W28324  16.543   8.167   5.229 -0.0728  0.3361 -0.1262
85309W        W28325  30.704  30.710   2.564  0.1192  0.2019  0.1403
85310W        W28326  20.035  25.486  26.516 -0.0696  0.1145 -0.2553
85311W        W28327   7.331  31.302   8.324  0.0279  0.0700 -0.0253
85312W        W28328  11.180  32.004  29.002  0.2597  0.0376  0.2414
85313W        W28329  10.617  17.698   5.872 -0.3272 -0.2149  0.0574
85314W        W28330  25.861   3.312  28.552  0.2857 -0.0936  0.0743
85315W        W28331  19.988  31.675   9.515 -0.4292  0.2071 -0.0545
85316W        W28332  31.032  11.702   6.717 -0.1363  0.4018  0.0841
85317W        W28333   7.426  10.426   6.329 -0.1663 -0.0826  0.3829
85318W        W28334   8.260  32.024   6.819  0.1009  0.1506  0.3443
85319W        W28335   0.067  31.799   8.272 -0.0597  0.0280  0.0727
85320W        W28336  33.842  19.182  10.588  0.0612 -0.2454  0.0530
85321W        W28337  16.538  23.071   5.506 -0.3249 -0.0675 -0.0321
85322W        W28338   3.584  20.966   9.022 -0.0511  0.1204 -0.1148
85323W        W28339  34.656  31.316   9.815  0.2429  0.0179  0.1446
85324W        W28340  31.477   8.898  29.097 -0.3502  0.3370  0.1203
85325W        W28341  24.721   2.188   9.837  0.0670 -0.1841  0.0078
85326W        W28342   8.626  14.237   5.940 -0.1441  0.2533  0.0175
85327W        W28343   9.217  17.417   5.100  0.2040 -0.2206 -0.2584
85328W        W28344  17.767   0.330   7.449  0.0740  0.2454 -0.2243
85329W        W28345  10.700   0.374   8.905  0.4166 -0.0979  0.1128
85330W        W28346  16.344   3.220   9.615 -0.0309  0.0481  0.1559
85331W        W28347   1.715  23.721   6.543  0.2613  0.1352 -0.1012
85332W        W28348  14.309  19.860  28.759  0.1510 -0.3627 -0.1093
85333W        W28349   7.389  17.369  28.251 -0.0032 -0.2090 -0.1645
85334W        W28350   8.301  34.233   8.831  0.0997  0.0100  0.1223
85335W        W28351   6.549  19.996  24.821 -0.0413 -0.3303  0.1844
85336W        W28352  23.301  33.024   7.444  0.0547 -0.2156  0.0696
85337W        W28353  25.339   3.133  22.643  0.1957 -0.1254  0.0184
85338W        W28354  20.951   7.890   3.941 -0.0066 -0.1860  0.1389
85339W        W28355   1.419  23.066   6.164  0.3053 -0.1992 -0.2190
85340W        W28356  15.182   0.979   8.364  0.0586  0.2598 -0.2886
85341W        W28357  21.817  16.142  22.363 -0.1083  0.2240  0.1256
85342W        W28358  31.468  22.641   3.760  0.2226  0.2251  0.1096
85343W        W28359   7.420   4.494  26.509 -0.2256  0.1187 -0.2294
85344W        W28360   6.623  22.156  27.909  0.0168 -0.0653  0.2809
85345W        W28361  34.667  27.289  18.345 -0.2819 -0.1264  0.1895
85346W        W28362   1.469  15.904   4.854  0.3087 -0.1230 -0.1168
85347W        W28363  15.113  21.366  23.682  0.1425 -0.0791 -0.1181
85348W        W28364  32.855  27.506   4.406 -0.1386 -0.0148  0.1698
85349W        W28365   3.421   7.644   9.920 -0.2252 -0.1365 -0.1514
85350W        W28366   3.602  14.533  10.369 -0.1537  0.2012 -0.1149
85351W        W28367  10.431  29.739   1.479 -0.0749  0.2206 -0.1298
85352W        W28368  33.247  27.267   7.833  0.1335 -0.1944 -0.2932
85353W        W28369  29.853  28.061  12.211  0.0205  0.0595  0.1736
85354W        W28370   5.516   4.950  26.839  0.3715  0.0192 -0.1527
85355W        W28371  14.127  25.021   4.674  0.1429  0.1959 -0.1337
85356W        W28372  30.928  28.861   7.525 -0.0063 -0.0974 -0.0163
85357W        W28373  34.289   2.219  27.409  0.4516 -0.0972 -0.0616
85358W        W28374  21.748  11.906  17.268 -0.2097 -0.1831 -0.1129
85359W        W28375   4.052  22.411   1.305 -0.1073  0.2777 -0.0789
85360W        W28376   2.461   2.543   6.170 -0.3250  0.1257  0.0763
85361W        W28377  28.433  12.868  17.476 -0.2684  0.1572 -0.2046
85362W        W28378  34.762   6.331   5.139 -0.0843 -0.2565 -0.1025
85363W        W28379  14.447  23.517   4.964  0.1415  0.0185  0.0901
85364W        W28380  13.239   0.084   5.831 -0.1161 -0.0410 -0.3852
85365W        W28381   8.071  29.161   1.789  0.0476  0.2025  0.0837
85366W        W28382  34.191  23.085  27.157  0.1439  0.0511  0.1758
85367W        W28383  21.208  15.281  13.404 -0.3055 -0.2210 -0.0353
85368W        W28384  11.934  34.010  10.400 -0.0731 -0.1387  0.2370
85369W        W28385   9.745  12.634   9.057  0.1771  0.1855 -0.0520
85370W        W28386   9.767  23.526   5.956 -0.2060 -0.0574 -0.1026
85371W        W28387   7.092  28.048   8.861  0.1764  0.0134 -0.0780
85372W        W28388  32.875  26.403   5.796 -0.1112 -0.3781 -0.0132
85373W        W28389  10.187  30.676  26.152  0.2226  0.1542 -0.1912
85374W        W28390  10.015  21.551   8.019 -0.2199 -0.0495 -0.0617
85375W        W28391  28.739  20.158   1.576  0.0885 -0.2514  0.3005
85376W        W28392   1.113  11.452   8.866  0.1312  0.4069  0.0576
85377W        W28393  12.127  28.745   5.588 -0.1261  0.0426  0.0990
85378W        W28394  14.219  28.953   9.777  0.0439  0.0056 -0.0463
85379W        W28395   7.957   1.335   9.114 -0.0617 -0.1920 -0.0239
85380W        W28396  14.212  30.162   7.527 -0.2795  0.4315 -0.0113
85381W        W28397  13.326   7.012  23.802 -0.2628  0.0632  0.2455
85382W        W28398  12.963  23.079   1.273 -0.1234 -0.1969  0.3346
85383W        W28399  30.251  28.614   4.680  0.0413 -0.0862  0.0960
85384W        W28400  18.780   0.438   7.601 -0.1793  0.0410  0.0659
85385W        W28401  17.799  28.257   6.070  0.1071 -0.2239 -0.1424
85386W        W28402  27.911  29.048  28.745  0.2255  0.0738  0.2497
85387W        W28403   5.950  30.426   3.172  0.4700  0.0414  0.2073
85388W        W28404   2.642  32.019   9.744 -0.0804  0.0558 -0.1350
85389W        W28405   3.809  27.555   5.977  0.0738  0.0286 -0.0129
85390W        W28406   5.800  26.680   8.887 -0.1308  0.1307  0.1914
85391W        W28407   3.300   3.735   9.030 -0.0420  0.3083 -0.1933
85392W        W28408   4.281   4.159   6.636 -0.1318 -0.3172 -0.0482
85393W        W28409   1.220   4.789   8.895 -0.2170  0.0971  0.1065
85394W        W28410  28.807   0.954   6.475 -0.0050 -0.0083 -0.1264
85395W        W28411  13.353   3.078  25.935  0.0281  0.0203  0.0892
85396W        W28412  10.479   9.975   5.958 -0.0203  0.0045 -0.3079
85397W        W28413   7.428  24.651   2.997  0.1002  0.3292  0.1607
85398W        W28414  29.510  15.941  26.549  0.0415  0.1697  0.2725
85399W        W28415   0.219  32.077  16.734  0.0375  0.0225 -0.0984
85400W        W28416   0.218  31.062   3.439 -0.2822  0.3331  0.0021
85401W        W28417   7.191  33.577   1.833 -0.0170  0.0403 -0.1355
85402W        W28418   2.111  27.521  27.948 -0.2709 -0.1377 -0.3405
85403W        W28419  30.582  20.479   6.482  0.3399 -0.2150  0.0123
85404W        W28420  12.885  33.661   0.907  0.0014 -0.0938  0.3578
85405W        W28421   6.478  30.766   4.418 -0.0148 -0.1324 -0.0533
85406W        W28422   1.441   5.436   4.692 -0.0455 -0.2738  0.0048
85407W        W28423  10.933  34.446   2.046  0.0595  0.1200 -0.1185
85408W        W28424  25.241   7.055   7.042 -0.1041  0.2613  0.0182
85409W        W28425  18.899  18.461   4.298  0.0296  0.0034  0.0732
85410W        W28426   1.044   9.368   3.665  0.0215 -0.0388 -0.0488
85411W        W28427   4.716  23.171  23.153  0.1799 -0.0516 -0.0966
85412W        W28428  12.817   1.376   2.597  0.1237 -0.2154  0.1104
85413W        W28429  21.785  22.222   4.034 -0.0225  0.0017 -0.0670
85414W        W28430  20.671  22.856   5.249 -0.0124  0.0013  0.3763
85415W        W28431  16.276  15.012   5.819  0.0306  0.0354  0.3765
85416W        W28432  22.281  33.865   0.841 -0.0539  0.0900  0.1041
85417W        W28433   4.524   1.702   1.249 -0.1413 -0.0967 -0.1908
85418W        W28434  16.762   0.506   5.428 -0.1756  0.0649  0.1867
85419W        W28435  32.114  20.302   1.699  0.1922 -0.1351 -0.0520
85420W        W28436   4.617  29.299   4.763 -0.1312  0.3665 -0.3612
85421W        W28437  10.532  34.301   5.733  0.0811  0.0576  0.2110
85422W        W28438  32.451  22.971  28.597 -0.0771  0.1384  0.0908
85423W        W28439   6.898  27.196   9.397  0.1449  0.0041 -0.2565
85424W        W28440  31.695  21.332   4.983  0.0388 -0.2048  0.1684
85425W        W28441  11.261  13.291   5.294 -0.4232  0.0355 -0.0297
85426W        W28442  20.815  17.054   5.228  0.1377  0.0773  0.0403
85427W        W28443  28.279  22.532   7.840 -0.0368  0.1363 -0.0607
85428W        W28444   7.824   1.969   6.502 -0.3326  0.3159  0.1872
85429W        W28445   4.346  15.849   8.980 -0.0544 -0.0378  0.0117
85430W        W28446  33.089  21.803  23.696  0.0050 -0.1940  0.3168
85431W        W28447   1.226  28.865  23.911  0.0453  0.0836  0.1780
85432W        W28448   4.425  12.841  28.072 -0.2684  0.1936 -0.0096
85433W        W28449  30.653  33.420   1.170  0.0429 -0.1960  0.1222
85434W        W28450  13.966  28.806   2.631  0.1026  0.0703 -0.3107
85435W        W28451   8.549  32.480   3.220  0.0242 -0.0831 -0.1002
85436W        W28452  13.601  33.026   7.098  0.0703 -0.2749  0.0595
85437W        W28453   7.541   6.205   6.689 -0.1373 -0.1801 -0.0102
85438W        W28454   7.483  13.214  27.963 -0.0304  0.1093 -0.1914
85439W        W28455   8.657  14.992  22.170  0.1182 -0.0831  0.0586
85440W        W28456   6.224  20.613  27.091  0.2125 -0.1894  0.3839
85441W        W28457   9.644  27.519   3.615 -0.2262  0.1731  0.3734
85442W        W28458  10.223  24.426   1.663 -0.2175  0.0065 -0.0400
85443W        W28459   6.047  19.145  28.249  0.0952  0.0234  0.0207
85444W        W28460   7.361  22.218   8.531 -0.2458  0.0769  0.0527
85445W        W28461   6.558  25.480   7.288 -0.0292 -0.2440  0.1172
85446W        W28462  31.173   8.956   0.769 -0.2987 -0.0034 -0.0283
85447W        W28463  15.468  18.878   1.502 -0.2279  0.0255 -0.3367
85448W        W28464   6.624  27.235   8.109 -0.4066  0.0001  0.2074
85449W        W28465   0.170   0.883   4.822 -0.1405  0.1304  0.2103
85450W        W28466   2.697  18.743  25.964 -0.0243 -0.2927 -0.0527
85451W        W28467   4.966   4.573   3.964 -0.0052 -0.3703  0.1674
85452W        W28468  13.738  18.385  28.197 -0.2104  0.0251  0.2702
85453W        W28469  23.204  28.693   8.048  0.1077 -0.3095 -0.1135
85454W        W28470  10.351   6.337   6.516 -0.1344  0.0436  0.0354
85455W        W28471  21.170   2.752   4.246  0.0730 -0.3023 -0.0852
85456W        W28472   2.228  14.656   3.903 -0.2221  0.0711  0.3980
85457W        W28473   4.557   6.036   1.551  0.0528 -0.2631 -0.2394
85458W        W28474  34.375  24.561   3.234  0.1446  0.1444  0.1447
85459W        W28475  12.529  21.572   1.834  0.3989 -0.2227 -0.1119
85460W        W28476   4.361   9.284   6.755 -0.2838  0.0261 -0.3863
85461W        W28477  28.060  24.894   5.093  0.4045 -0.0346  0.0445
85462W        W28478   7.925  23.415   3.285 -0.0227 -0.1119  0.1575
85463W        W28479  30.095  24.213   3.705 -0.1995 -0.3002 -0.0978
85464W        W28480  10.663  14.815  20.646  0.0314 -0.3929  0.1389
85465W        W28481  29.173  18.146  16.623 -0.2161 -0.0267  0.0738
85466W        W28482  31.079   6.454   4.745  0.0970  0.2083 -0.2642
85467W        W28483  29.658  25.071   6.137  0.0850 -0.1374 -0.1232
85468W        W28484  34.260  33.384  27.301  0.0453  0.2357 -0.2468
85469W        W28485  23.951  29.829   9.720  0.0814 -0.1497  0.1332
85470W        W28486  15.637  18.778  28.322 -0.0581 -0.0355  0.7331
85471W        W28487   5.891  25.225   0.283 -0.0406 -0.0586  0.0937
85472W        W28488   9.457   3.248  10.476  0.4260 -0.1108 -0.3364
85473W        W28489   3.602   2.725   7.108  0.3004  0.1439 -0.0066
85474W        W28490  27.818  13.847   0.763  0.1773 -0.1429 -0.1103
85475W        W28491  33.565  24.595   7.546  0.0785  0.0580 -0.3756
85476W        W28492   4.275  28.491   5.881  0.4420 -0.0850 -0.0647
85477W        W28493  17.703  30.595   7.801  0.1360 -0.2661 -0.0187
85478W        W28494   6.936   0.898   9.735 -0.1300 -0.0360  0.2180
85479W        W28495  10.174  18.786  20.111 -0.1931  0.1093 -0.1989
85480W        W28496  20.655  27.375  27.084 -0.0157 -0.0797 -0.0275
85481W        W28497   4.485  25.253  28.650 -0.1408 -0.2980  0.0578
85482W        W28498   3.632  15.323   6.597 -0.1146  0.1270 -0.1227
85483W        W28499  20.335   1.563   4.080 -0.0056  0.2144 -0.0317
85484W        W28500  24.758  28.869  20.327  0.1103  0.0636 -0.1245
85485W        W28501  16.545   6.877  15.152  0.0278 -0.0132 -0.0209
85486W        W28502  19.262  21.161  25.762 -0.4391 -0.2163  0.2362
85487W        W28503   9.485  18.624   8.736 -0.1696  0.3601 -0.2231
85488W        W28504  16.805  33.872   6.851  0.2717 -0.0404 -0.0859
85489W        W28505   2.616  16.989   8.765  0.3607 -0.4496 -0.0359
85490W        W28506   9.717  29.716   9.249  0.3490 -0.1821 -0.3224
85491W        W28507  13.616  23.802  24.457  0.1662 -0.1860 -0.4631
85492W        W28508  31.520  28.796  11.564  0.1434  0.1131 -0.0293
85493W        W28509  31.400  14.874   3.878 -0.0763 -0.0718  0.2502
85494W        W28510   9.430   0.642   5.840 -0.0707  0.1522  0.0176
85495W        W28511   9.877  27.158   4.408 -0.2531 -0.1275 -0.0624
85496W        W28512  32.067   2.723   8.763 -0.0607  0.0850 -0.2201
85497W        W28513   9.313  33.319  17.271  0.0249  0.0076  0.0021
85498W        W28514  14.173  32.762  27.487  0.0078  0.1687 -0.0693
85499W        W28515   2.281  31.384   8.600 -0.0589  0.3636 -0.1998
85500W        W28516  14.207  27.480   5.425 -0.0194 -0.1329 -0.2621
85501W        W28517  34.505   8.997   4.901  0.0914  0.0192 -0.0423
85502W        W28518  12.868  16.432  27.260  0.2252 -0.0255  0.0629
85503W        W28519  10.050  13.723  25.824 -0.0384  0.2260 -0.3921
85504W        W28520  33.992  11.146   5.445  0.0463  0.2872 -0.1922
85505W        W28521  19.829   3.398   7.287 -0.1106 -0.2527 -0.0878
85506W        W28522   8.613  33.925   5.947 -0.0278 -0.0825 -0.2207
85507W        W28523   7.619  15.616  22.768 -0.0191 -0.1536 -0.0211
85508W        W28524   5.891  31.790   4.728  0.1726 -0.6545  0.0433
85509W        W28525  32.229   4.873   5.066 -0.0476  0.2716  0.0800
85510W        W28526  14.824  28.505   1.620  0.1571 -0.1081  0.0769
85511W        W28527  15.776  22.610   6.890 -0.1970  0.3269 -0.1417
85512W        W28528  18.529  29.295  29.201  0.1516 -0.0945  0.0890
85513W        W28529  12.412  21.253  28.740  0.0068  0.0135  0.0798
85514W        W28530  25.620  21.744   7.997  0.3358  0.0389  0.0386
85515W        W28531  19.664  16.011   0.446  0.0452  0.0132  0.4492
85516W        W28532   7.684  14.869   6.914 -0.1628  0.0157  0.2545
85517W        W28533   7.996  34.378   7.910  0.2501 -0.2194  0.1538
85518W        W28534  19.278   0.175  22.916  0.0492 -0.1849 -0.1484
85519W        W28535  34.744  32.320   5.857  0.0279 -0.1968  0.0698
85520W        W28536  20.267  18.602   4.072 -0.0960 -0.1055 -0.0688
85521W        W28537   1.114  28.872  29.152 -0.0228  0.2038 -0.0377
85522W        W28538  12.411   5.742  23.017  0.1080 -0.4152 -0.1155
85523W        W28539   9.801   1.990  26.063  0.0198 -0.1128 -0.1333
85524W        W28540  18.617   4.805   7.696 -0.1156 -0.0987 -0.1299
85525W        W28541   4.113  18.200  25.272 -0.1573 -0.1172  0.1850
85526W        W28542  32.480  25.075   1.204  0.3895  0.1710  0.0187
85527W        W28543  29.322  17.469   2.917  0.1570 -0.0840 -0.1262
85528W        W28544   3.160  19.383   2.200 -0.1774  0.3553  0.2325
85529W        W28545  21.200  24.724   9.597  0.0842  0.3207  0.0299
85530W        W28546   1.194  25.611   9.196  0.0949 -0.1162 -0.0979
85531W        W28547   3.000  23.168   8.318  0.0898 -0.1003 -0.1451
85532W        W28548  14.175  34.157   8.440 -0.2928 -0.0736  0.1843
85533W        W28549   4.486  18.356   1.925 -0.5600  0.0803  0.0754
85534W        W28550  18.721  31.418   0.837 -0.0909 -0.1135 -0.4714
85535W        W28551  21.285  11.368   5.503  0.2437  0.1009  0.0770
85536W        W28552   1.795  22.894   4.521  0.0446 -0.0046 -0.0862
85537W        W28553  12.101  34.222   2.555 -0.0187  0.0670  0.0798
85538W        W28554   3.826  32.706   9.498  0.1435  0.0291  0.0313
85539W        W28555   5.885  34.470   3.545  0.2104 -0.2991  0.2091
85540W        W28556  26.301  27.744   5.302 -0.1069 -0.2857 -0.2338
85541W        W28557   9.786  15.740   2.569 -0.1347 -0.1183  0.1358
85542W        W28558  10.850  26.452  23.136  0.1445 -0.1573 -0.1500
85543W        W28559  29.057  29.434   3.331  0.0246 -0.1791  0.0809
85544W        W28560  32.025   7.229   9.527  0.1707  0.3178  0.1523
85545W        W28561  20.481  28.858  10.037 -0.1246 -0.0523 -0.3092
85546W        W28562  23.428  28.450  18.151  0.0172 -0.0914 -0.1158
85547W        W28563  32.565  23.437   0.665 -0.0105  0.0263 -0.0916
85548W        W28564  13.223  22.915   4.953  0.1228 -0.2877 -0.2197
85549W        W28565   8.380  24.877   5.009  0.1996  0.1266 -0.0079
85550W        W28566   7.212  29.462   8.925 -0.0853 -0.3352 -0.5065
85551W        W28567  20.759   5.460  28.735 -0.2678  0.2117 -0.3956
85552W        W28568  16.719  33.142   4.173  0.0891 -0.0455  0.3558
85553W        W28569   4.218  30.321   4.369  0.0352 -0.1051 -0.1086
85554W        W28570  28.357  30.693   5.912 -0.1800 -0.0849 -0.2431
85555W        W28571   2.618  24.088  15.173 -0.0090  0.0485  0.2446
85556W        W28572  24.429  27.336   1.995 -0.0140 -0.0311 -0.1777
85557W        W28573  18.032   1.286   4.187 -0.1761  0.2669  0.2002
85558W        W28574   8.739  30.073   3.895 -0.2884 -0.2715  0.2398
85559W        W28575  12.389  33.170   7.469  0.3604  0.0304 -0.2351
85560W        W28576  11.349  33.569   0.943 -0.1734  0.0559  0.0173
85561W        W28577  12.483  27.716   2.355 -0.2190  0.1164  0.2225
85562W        W28578   3.197   8.528   6.960  0.1989 -0.1493 -0.2728
85563W        W28579   2.603  23.723   9.090  0.2306  0.0356 -0.0971
85564W        W28580   0.666  24.558   9.846 -0.0382  0.0660 -0.0544
85565W        W28581  34.188   6.257   7.155 -0.1071  0.0380  0.1512
85566W        W28582  17.185  15.941   0.008  0.3840 -0.2771 -0.2436
85567W        W28583  27.814  33.669   8.766  0.2380  0.0682  0.0147
85568W        W28584   5.338  22.285   6.729 -0.0969  0.1570 -0.1652
85569W        W28585  21.408  34.739  10.380 -0.0872  0.2314 -0.1024
85570W        W28586  10.258   4.696   3.497 -0.1246 -0.1817  0.0407
85571W        W28587   9.741  14.526   5.478  0.1718 -0.2072  0.1073
85572W        W28588  11.633  18.888   3.475  0.0143 -0.0113 -0.1316
85573W        W28589  33.143   0.873   7.609 -0.2038  0.1133 -0.4139
85574W        W28590  14.306  30.288  26.556  0.0279 -0.2312 -0.1068
85575W        W28591   5.472  10.346  22.670 -0.1436  0.0119  0.1933
85576W        W28592  26.057  32.769   6.809  0.0158 -0.2307  0.2048
85577W        W28593  22.876  11.488   6.979  0.0263  0.2955  0.2455
85578W        W28594   5.144  29.171   7.354 -0.1989  0.1491  0.0349
85579W        W28595  24.843  24.575  28.829  0.0009  0.1971  0.0599
85580W        W28596  32.238  10.854   4.078  0.0011  0.2696  0.0087
85581W        W28597   8.142  18.389  26.331  0.1056 -0.0239  0.1490
85582W        W28598  13.554  22.789  25.475 -0.0735 -0.1563  0.0167
85583W        W28599   9.354   5.468   9.244 -0.0494 -0.0543 -0.1744
85584W        W28600   9.880   1.380   1.265 -0.0481  0.1522  0.1038
85585W        W28601   0.650  21.106  25.058 -0.2463  0.1578 -0.2915
85586W        W28602  23.438  27.671  16.540 -0.0383  0.0668 -0.0281
85587W        W28603   3.741  25.756  14.000  0.3518 -0.0627  0.3792
85588W        W28604   1.131   7.315   6.914  0.0332  0.0136 -0.0333
85589W        W28605  30.391  27.567   1.584  0.1059  0.0341 -0.2995
85590W        W28606   9.445  33.536   8.714  0.2463  0.1019 -0.2153
85591W        W28607  33.035   7.110   4.855  0.0298 -0.3114 -0.1428
85592W        W28608   9.328  16.468  21.760  0.1695  0.0376 -0.2791
85593W        W28609  33.392   2.772  24.480 -0.1646  0.0822 -0.2194
85594W        W28610  22.901   6.088  27.479 -0.1007  0.0289  0.1898
85595W        W28611  19.022  34.504  27.055 -0.0611 -0.2006  0.2736
85596W        W28612  10.901  19.422   4.702  0.1832  0.0637 -0.0244
85597W        W28613  16.765  29.154   6.233  0.0241 -0.0414 -0.2035
85598W        W28614  27.803  30.116   6.528  0.4066  0.0132  0.2171
85599W        W28615  11.673   3.192  25.752 -0.1880 -0.0460  0.0770
85600W        W28616  24.636   3.868   9.451 -0.2029  0.3903 -0.0342
85601W        W28617  17.850  30.383   0.517 -0.1602 -0.1443  0.0745
85602W        W28618  19.966  31.363   4.217 -0.1972  0.1785  0.3002
85603W        W28619  25.726  32.431   2.190 -0.2859 -0.1210 -0.0703
85604W        W28620  25.776   0.661  26.188  0.0440 -0.0999  0.0237
85605W        W28621   3.143   3.707   2.233 -0.3097 -0.0233 -0.1390
85606W        W28622  28.082  26.976   7.283  0.2327 -0.0230  0.1208
85607W        W28623  33.905  28.189   1.111 -0.2460 -0.1934 -0.2092
85608W        W28624  19.737  19.254   6.905 -0.0146  0.2603 -0.2021
85609W        W28625  11.074  22.454  29.139  0.0004 -0.0531  0.2238
85610W        W28626   7.805  13.698  23.303  0.0564 -0.1307  0.0033
85611W        W28627  21.547  29.692  21.710  0.1768  0.2983 -0.0347
85612W        W28628  30.081  29.338  20.939 -0.1244  0.0208 -0.2600
85613W        W28629   1.152  30.799  25.537 -0.1851 -0.1201  0.1621
85614W        W28630  17.701  33.833   8.708 -0.0052  0.1523  0.0379
85615W        W28631   6.240   2.862   0.537  0.2045 -0.0876  0.0896
85616W        W28632  11.377  26.701   7.735 -0.2074  0.0016 -0.1925
85617W        W28633   5.614   3.036   6.351  0.1461 -0.0414 -0.1124
85618W        W28634   4.759  30.132   4.186  0.1209  0.1715 -0.1114
85619W        W28635  34.486  26.200   0.803 -0.0991  0.0584 -0.3910
85620W        W28636   4.378  29.462  25.494 -0.1683 -0.1727  0.0941
85621W        W28637   0.630   3.643  16.774 -0.0789 -0.0714  0.2462
85622W        W28638  20.319  19.674   2.367 -0.0343  0.1308  0.3020
85623W        W28639   8.288  29.596  22.681  0.0032 -0.2212 -0.1455
85624W        W28640  13.418  30.172  20.453  0.1251  0.1325  0.0008
85625W        W28641  31.508   1.285   6.166 -0.0170 -0.2682 -0.0173
85626W        W28642  11.627   5.235   9.926  0.1464  0.1735 -0.1896
85627W        W28643  12.816  23.873  26.723  0.1679 -0.1495  0.0774
85628W        W28644   8.857  23.612   3.476  0.1110  0.1869 -0.0079
85629W        W28645  29.987   0.487  26.283  0.0890  0.0351 -0.2136
85630W        W28646   8.516  33.349  26.802 -0.2235  0.0473  0.2833
85631W        W28647  34.077  23.247  20.162  0.3454 -0.1118 -0.0545
85632W        W28648  29.320  23.185   0.401 -0.0958  0.0406  0.1612
85633W        W28649  14.894   1.633   4.543 -0.1501  0.1922  0.1706
85634W        W28650   7.705  19.502   0.009  0.0192 -0.0337  0.0251
85635W        W28651  26.235  24.295  25.869  0.1774  0.2763 -0.0516
85636W        W28652  21.324  24.058   4.924 -0.2066 -0.0149  0.1355
85637W        W28653  31.100  33.968  27.615 -0.2317 -0.1163  0.0915
85638W        W28654  11.571  20.617   4.257  0.1774  0.1933  0.1898
85639W        W28655   0.638  14.485  20.934 -0.2228  0.2990 -0.0874
85640W        W28656  16.976  20.722  25.154  0.0875  0.0392  0.3666
85641W        W28657   0.539  18.602   0.112  0.1027 -0.2316  0.1155
85642W        W28658  15.987  19.411  16.152  0.2654 -0.1983 -0.0647
85643W        W28659  18.056  28.895   4.138 -0.2741  0.0077 -0.0015
85644W        W28660  10.699  24.240   3.319  0.0193 -0.2819  0.1340
85645W        W28661   5.833  21.752  29.014 -0.1193 -0.0058  0.1076
85646W        W28662  15.463  26.627   0.121 -0.1725  0.0937  0.0568
85647W        W28663  26.090   5.192  28.885 -0.1212  0.1029 -0.1829
85648W        W28664  14.505  12.431  26.314  0.3098  0.1613  0.0684
85649W        W28665   9.568  12.398   0.842 -0.0236 -0.1030 -0.2186
85650W        W28666  25.152  34.471  24.735  0.0585 -0.0781  0.2341
85651W        W28667  11.417  32.204   6.205 -0.2117 -0.0055  0.1507
85652W        W28668   2.376   0.656  21.174 -0.4338  0.3213 -0.2287
85653W        W28669  13.274   6.464  15.727  0.0270 -0.1871  0.1522
85654W        W28670   2.466   1.442   6.057  0.1023 -0.2124 -0.1509
85655W        W28671  15.466  33.425   5.913 -0.0237 -0.0726  0.3262
85656W        W28672  17.565  22.390   3.928  0.1394  0.3104  0.1458
85657W        W28673  31.002  31.493   8.436 -0.2975  0.1064  0.3121
85658W        W28674   4.349  31.826  23.999  0.1017  0.0863 -0.0311
85659W        W28675  21.938   2.438  28.461 -0.3311  0.2344 -0.2293
85660W        W28676  21.103  24.408  15.911  0.3885 -0.0315  0.2380
85661W        W28677   8.132  20.096  27.647 -0.0328 -0.0114 -0.0408
85662W        W28678  19.628  33.779  26.826 -0.2088 -0.0313 -0.1031
85663W        W28679   5.740   2.038   4.972  0.2087 -0.0640  0.0533
85664W        W28680  11.307  29.167  10.788 -0.1435  0.1384 -0.0930
85665W        W28681  26.907  15.445   4.826  0.3554 -0.1191 -0.5119
85666W        W28682  10.145  33.147   6.705 -0.1345  0.1295 -0.3387
85667W        W28683  10.727  20.251  25.283  0.2549  0.0130  0.0719
85668W        W28684  29.994  31.999   9.580  0.4028  0.0858 -0.0920
85669W        W28685  26.233  13.468  23.808 -0.0605 -0.0449 -0.1686
85670W        W28686   2.980   5.659   4.056  0.0399  0.1327  0.2453
85671W        W28687  15.479   4.693  24.869  0.1295 -0.0854  0.2445
85672W        W28688   8.317  10.389   5.485  0.1052  0.0123  0.4759
85673W        W28689   5.986   0.600  24.338 -0.0318  0.1959  0.1120
85674W        W28690   6.238  14.828   4.480  0.1584  0.0108  0.1012
85675W        W28691  32.798  32.621   1.223 -0.0255  0.1695 -0.3150
85676W        W28692  31.120  32.774   9.942  0.1725 -0.2586 -0.2207
85677W        W28693  25.913   6.426   9.622  0.1412  0.0428 -0.1407
85678W        W28694   3.326   4.237   9.675 -0.1062 -0.3271 -0.0226
85679W        W28695   8.413  20.484  25.287 -0.4549  0.0453 -0.1996
85680W        W28696  15.310  14.071   1.075  0.0956 -0.0767 -0.3523
85681W        W28697   9.434   1.429   4.002 -0.3113  0.0927  0.0472
85682W        W28698   9.819  25.140   6.648 -0.0879  0.1548 -0.1104
85683W        W28699  25.090   3.982  27.679 -0.1282  0.0241  0.0948
85684W        W28700  33.861  24.717   5.158  0.4853 -0.0622 -0.0136
85685W        W28701   4.916  14.144  23.321 -0.0417  0.0884 -0.1726
85686W        W28702   6.723  32.703  14.398  0.1868  0.0149 -0.1321
85687W        W28703   5.093  28.268  21.434 -0.4325 -0.5267 -0.0877
85688W        W28704   5.263   8.259  19.536 -0.0173  0.1305  0.3335
85689W        W28705   2.307  22.718   0.891  0.4115 -0.0313 -0.0111
85690W        W28706   4.455  30.088   9.850  0.1829 -0.2068 -0.3457
85691W        W28707  11.856   8.999   0.038 -0.0343 -0.1122  0.2094
85692W        W28708   8.144  25.081   6.401 -0.0615  0.0734  0.0313
85693W        W28709   9.127  31.043  28.728  0.3216 -0.1842  0.1038
85694W        W28710   0.566  18.080  25.489 -0.0774 -0.0933  0.0698
85695W        W28711  31.652  24.374  26.672  0.2295 -0.0694 -0.0391
85696W        W28712   8.126  17.890  25.380 -0.2050 -0.0544  0.1398
85697W        W28713   0.216   2.420  10.353  0.0868 -0.0329 -0.0055
85698W        W28714   4.471  21.494  17.263  0.3755  0.1093  0.0867
85699W        W28715   8.494   8.846  25.060 -0.4887  0.1334  0.2740
85700W        W28716  13.621  18.568   7.288  0.0214 -0.0852 -0.2593
85701W        W28717   8.978   8.516   5.166 -0.4280  0.0517 -0.0529
85702W        W28718   9.885  22.747  15.825  0.1647  0.0251  0.2097
85703W        W28719  15.043  21.721  27.205 -0.3631 -0.4173 -0.0197
85704W        W28720  15.468  10.621  13.959 -0.1360 -0.1646 -0.1964
85705W        W28721  15.357  34.065  27.563 -0.0268  0.1636  0.1214
85706W        W28722  20.385  24.581   3.272  0.0142  0.1474 -0.0544
85707W        W28723   4.339   1.509   1.896  0.0965 -0.1256  0.0579
85708W        W28724   8.573  29.395   4.416  0.1696  0.1383  0.1373
85709W        W28725  10.455   6.264   1.387 -0.2557  0.1918 -0.0282
85710W        W28726  13.467   3.527  26.059  0.2629 -0.0696  0.0631
85711W        W28727   1.221  31.086   3.242  0.1940  0.0122  0.0207
85712W        W28728   5.200  31.914   0.519  0.0125 -0.0548  0.0210
85713W        W28729   2.735  26.771  15.789 -0.1055  0.2891 -0.1798
85714W        W28730   5.176  19.507   2.867  0.0798  0.0465  0.5129
85715W        W28731  15.648  33.553   5.062  0.0838 -0.0453  0.1015
85716W        W28732  16.708  20.274   6.972  0.0079 -0.1734 -0.0447
85717W        W28733  23.539  34.225   4.194 -0.3304 -0.2577  0.1387
85718W        W28734  26.097   5.611   2.498 -0.1732  0.1068  0.1509
85719W        W28735  34.109  30.233  25.528  0.0220 -0.0252  0.1864
85720W        W28736   4.907  31.409  28.186  0.0047 -0.2647  0.1530
85721W        W28737   6.884  27.082   7.166  0.0506 -0.3161  0.2534
85722W        W28738  29.422  32.505   6.686 -0.0141  0.3956  0.0200
85723W        W28739   7.954  30.526   2.294  0.1016 -0.2134  0.0828
85724W        W28740   2.419   4.983   2.270  0.0088  0.0283  0.0491
85725W        W28741   2.307  23.087   4.527 -0.0328 -0.0625  0.0596
85726W        W28742   9.016   4.062   3.476 -0.1232  0.1462 -0.3060
85727W        W28743  30.904   4.144   2.266 -0.3094 -0.1966 -0.0125
85728W        W28744   8.015   4.772   4.089 -0.0942  0.2013  0.0452
85729W        W28745  29.937  24.023  21.306  0.3348  0.0444  0.0552
85730W        W28746  21.389  32.858   5.265 -0.1580 -0.0999  0.1215
85731W        W28747   8.490  24.639  19.329  0.1131  0.0605 -0.3405
85732W        W28748   7.376  27.034   5.125 -0.4627  0.1488 -0.0828
85733W        W28749   2.684   9.802  16.305  0.2040 -0.0504 -0.1101
85734W        W28750  16.635  18.171   1.853  0.0139  0.0070 -0.3189
85735W        W28751  31.254  24.638   7.056 -0.2462 -0.0408  0.1984
85736W        W28752  12.006  13.033  16.238 -0.0617  0.2835 -0.1685
85737W        W28753   7.888   3.682   1.939 -0.0786  0.0270 -0.0477
85738W        W28754  28.101   3.922   3.211  0.3102  0.3231 -0.2436
85739W        W28755  28.887   6.448  19.380 -0.0544  0.0010 -0.1967
85740W        W28756  21.871  32.333   2.318  0.1153  0.1799 -0.0645
85741W        W28757  13.924   4.354  28.830  0.0175 -0.3313  0.2101
85742W        W28758   1.974  25.772  27.096  0.2989 -0.4171 -0.0383
85743W        W28759   4.957   1.131  28.862  0.1080  0.0524 -0.1162
85744W        W28760  27.392  31.822   2.480 -0.2268 -0.2440  0.2273
85745W        W28761  23.347   8.018  25.334 -0.0373  0.2502 -0.2437
85746W        W28762   6.412  21.877   8.736 -0.0352  0.1808  0.0984
85747W        W28763  10.614  18.360  14.826  0.3554 -0.0062 -0.0783
85748W        W28764  13.527  27.107   3.069  0.3277 -0.0058 -0.0961
85749W        W28765  14.888  33.761   7.997 -0.1264 -0.0294  0.2512
85750W        W28766   6.398  17.273  19.259  0.2698  0.2760  0.1060
85751W        W28767   8.472  12.848   2.267 -0.0511  0.0754  0.1553
85752W        W28768   7.257  23.406  29.241 -0.2390  0.0315  0.0981
85753W        W28769  12.951   8.675   4.149 -0.3344  0.0835  0.2676
85754W        W28770  19.593  11.250   5.279  0.0901 -0.2325  0.4497
85755W        W28771   4.242   9.015   3.296  0.0544 -0.1137 -0.1586
85756W        W28772  14.931   9.972   1.436  0.0308 -0.2025  0.1412
85757W        W28773   9.329  32.567   9.241 -0.2506  0.0318  0.3426
85758W        W28774  32.636  18.485  26.793  0.1508 -0.1914 -0.2329
85759W        W28775  33.565  25.009   2.354  0.1196  0.2765 -0.2737
85760W        W28776   3.179  29.856  29.245 -0.1486 -0.1732  0.2618
85761W        W28777  11.154   6.191  28.921  0.0465 -0.1483  0.0421
85762W        W28778  22.080  13.110   4.308 -0.1480 -0.0582 -0.1271
85763W        W28779  10.574  31.096  26.891  0.2750  0.0984 -0.0403
85764W        W28780  12.609   4.181  24.846 -0.0692  0.6082  0.1965
85765W        W28781   1.534   6.221   2.084 -0.1232  0.1184 -0.0253
85766W        W28782  15.314  30.556  24.833 -0.0968 -0.1022  0.0383
85767W        W28783  11.744  32.898  25.259  0.0308 -0.0640  0.0389
85768W        W28784  11.407   2.254   1.263 -0.0969 -0.1718 -0.0514
85769W        W28785  12.791   2.121   5.310 -0.1079  0.1633  0.0118
85770W        W28786   6.794  20.954  23.967 -0.2053  0.0804 -0.0031
85771W        W28787   7.489  22.701  24.620 -0.1015 -0.1108  0.1152
85772W        W28788  17.785   1.380   7.383 -0.0118  0.2716 -0.0241
85773W        W28789  34.006  25.761  25.528  0.0964  0.1691 -0.1818
85774W        W28790  32.513  20.157   5.063  0.0779 -0.0449 -0.2459
85775W        W28791  19.773  30.737  18.689 -0.2373 -0.1398 -0.1195
85776W        W28792  15.441   7.201   5.518 -0.0858 -0.1118  0.0894
85777W        W28793  18.401  12.387   2.567 -0.0222  0.0504  0.3347
85778W        W28794  29.048  19.845   8.192 -0.2439  0.3071  0.0597
85779W        W28795  24.489  16.117  21.337  0.1237 -0.0361  0.1334
85780W        W28796   6.597  26.767   3.617  0.1558 -0.0123  0.4199
85781W        W28797   3.575   6.416   0.097 -0.1211 -0.3603  0.0620
85782W        W28798  34.363  23.871   8.458 -0.0697 -0.0051 -0.0132
85783W        W28799  15.760  30.666  21.946 -0.0530 -0.2352 -0.0593
85784W        W28800  24.555   1.698  24.370 -0.0306  0.0092 -0.2331
85785W        W28801  19.749   2.287   6.608  0.1741 -0.1233  0.1582
85786W        W28802   6.858  32.969   8.342 -0.1849 -0.3113 -0.2760
85787W        W28803   1.103  23.999   6.431  0.0418  0.0328 -0.2134
85788W        W28804   7.713  10.242  16.684 -0.2873 -0.1456  0.1671
85789W        W28805  25.864   6.526   6.593  0.0773  0.3312  0.1914
85790W        W28806  21.329  28.244   9.336  0.0832  0.0266 -0.0197
85791W        W28807  11.749  15.626   8.575 -0.1138 -0.1730 -0.4006
85792W        W28808  15.418  29.828   4.056 -0.2850  0.1078  0.0811
85793W        W28809   5.259   0.762   8.715  0.2654  0.4346  0.2800
85794W        W28810  19.602  34.723   8.597 -0.1512  0.4802 -0.0879
85795W        W28811  16.549  32.917   8.671 -0.1059  0.1791  0.0144
85796W        W28812  21.226  25.837  29.121  0.0305  0.1732  0.0404
85797W        W28813  16.578  34.531   7.855 -0.1677  0.1023 -0.4904
85798W        W28814  22.771  27.330   0.565  0.1572  0.1325 -0.0176
85799W        W28815   8.842   7.602   3.281  0.0922  0.1746 -0.0137
85800W        W28816  24.932  31.999   4.176  0.2386  0.0354  0.1637
85801W        W28817   8.834  27.175  23.851  0.1570  0.0826 -0.0412
85802W        W28818  12.228   2.240   5.279 -0.2291  0.0279 -0.1015
85803W        W28819   4.814  33.128  28.981  0.3342  0.0916  0.2265
85804W        W28820   0.959  33.331   7.625 -0.0124  0.1001  0.0094
85805W        W28821   0.566  12.177  21.658 -0.0250 -0.1358 -0.4980
85806W        W28822  20.721  27.970   8.918 -0.0705  0.0340 -0.1823
85807W        W28823  26.563  11.264  28.199 -0.1758  0.3038  0.0142
85808W        W28824  11.356  31.421  15.324 -0.1479  0.0960  0.1989
85809W        W28825  20.123  25.978  29.126 -0.2626  0.5316 -0.0169
85810W        W28826  21.451  21.619  27.630  0.0860 -0.3943  0.0813
85811W        W28827   1.074  33.797   9.830 -0.0687  0.0655  0.1902
85812W        W28828   9.208  18.164  26.746 -0.1640 -0.0804 -0.0512
85813W        W28829  16.895  12.452   4.953  0.2177 -0.0236 -0.0605
85814W        W28830  33.138  32.998   5.843  0.3851  0.4131 -0.1135
85815W        W28831   6.929  31.082  15.387  0.2174  0.2643  0.2727
85816W        W28832  13.327  25.680   3.369 -0.1436 -0.0327  0.0877
85817W        W28833  25.737  25.536  11.785  0.0420  0.2501  0.0736
85818W        W28834  17.151  17.270  21.872 -0.0232 -0.2027 -0.0048
85819W        W28835   5.447   3.287   6.995 -0.0742 -0.0627 -0.1385
85820W        W28836   7.765   0.728   7.465 -0.1650  0.1744  0.1567
85821W        W28837  21.552   2.115   7.695 -0.0933 -0.1011  0.0108
85822W        W28838  23.160   3.695   9.248 -0.1871 -0.0750  0.0270
85823W        W28839  34.748  32.347   4.092 -0.2348  0.2982 -0.1173
85824W        W28840  32.384  34.100  18.149 -0.1279 -0.1096 -0.1742
85825W        W28841   5.623  25.531   9.420 -0.1134 -0.1774 -0.0527
85826W        W28842  10.172  15.809  22.360 -0.1451  0.2909  0.2405
85827W        W28843  13.566  27.157  25.434  0.0807  0.1382  0.2082
85828W        W28844   3.857  27.257   2.799  0.2231  0.0259 -0.1037
85829W        W28845  10.789  27.270  23.609 -0.1541 -0.0111  0.1279
85830W        W28846   5.375  24.363  23.018  0.3328  0.0053 -0.0755
85831W        W28847  15.558  15.446  23.706 -0.0719 -0.2170  0.0195
85832W        W28848  12.747   2.940  10.176 -0.2414  0.1552 -0.1224
85833W        W28849   8.534   0.802  27.766 -0.1874 -0.0298  0.0840
85834W        W28850  31.758  18.760   1.866  0.0328 -0.0748 -0.0636
85835W        W28851  19.716   2.914  23.794 -0.2101 -0.0202 -0.1816
85836W        W28852  34.149  19.259  10.196 -0.0001  0.2405 -0.1261
85837W        W28853  15.862  19.539  20.645 -0.2130  0.0107  0.1377
85838W        W28854  17.055  11.827   8.285 -0.1006 -0.1387  0.0768
85839W        W28855   7.187   8.996  26.196  0.0578  0.2458  0.0788
85840W        W28856  27.735  28.177   5.768 -0.1156  0.1544 -0.1698
85841W        W28857  18.424  31.544  28.967 -0.0417 -0.0264  0.0064
85842W        W28858   7.393   1.584   3.350 -0.2849 -0.1579 -0.1295
85843W        W28859   4.906  24.941  23.509  0.3010  0.1818  0.2045
85844W        W28860  17.344  25.394  28.364 -0.0322  0.0703 -0.0231
85845W        W28861  22.130   1.685  28.680  0.1722 -0.1324 -0.2678
85846W        W28862  25.985   5.256  10.069 -0.3237  0.0388 -0.0923
85847W        W28863  17.155  11.974  28.735  0.0747 -0.2113  0.3467
85848W        W28864  26.265  17.007  21.961 -0.2016 -0.0488  0.1648
85849W        W28865  27.724  27.627   6.605 -0.1171  0.0706 -0.3013
85850W        W28866  15.332  17.014  19.233 -0.1701  0.1875 -0.2465
85851W        W28867  14.262  27.978  26.860 -0.0213 -0.1463 -0.1439
85852W        W28868   0.764   0.508  24.647 -0.3127  0.0758  0.2510
85853W        W28869  30.716  33.444  20.718  0.2943 -0.2574  0.2186
85854W        W28870   3.019   0.765   8.843  0.3534 -0.0720 -0.2176
85855W        W28871  18.021  20.823  12.718 -0.2331  0.0873 -0.1509
85856W        W28872  17.615  33.372   1.993 -0.1458 -0.1458  0.0472
85857W        W28873  28.919  28.872  18.463  0.0145 -0.2555 -0.1492
85858W        W28874  16.511  18.360  26.283  0.0252  0.0372 -0.3064
85859W        W28875  33.834  31.699  27.698 -0.0589 -0.0115 -0.1616
85860W        W28876  31.966  25.217   4.746  0.1325 -0.3902 -0.0807
85861W        W28877  20.487   6.776  25.656 -0.2698  0.0839  0.2226
85862W        W28878   4.250  34.730  28.230 -0.0300 -0.2782 -0.2712
85863W        W28879  15.187  25.048  24.441 -0.1689  0.0955 -0.2438
85864W        W28880  34.116   9.843   8.940 -0.0570 -0.0783  0.1257
85865W        W28881  11.445   4.147  24.179 -0.0873 -0.0366  0.2058
85866W        W28882  31.630  27.110  11.135 -0.1367  0.6071 -0.2447
85867W        W28883   5.981  26.533   3.410  0.1373  0.1502  0.0748
85868W        W28884   0.984  32.885  20.249  0.1883  0.3208  0.2441
85869W        W28885  13.407  33.708   0.981  0.0789 -0.0468  0.1479
85870W        W28886   3.347  21.019  24.329 -0.1279  0.1657 -0.0001
85871W        W28887  15.716  21.438   0.949  0.0652  0.2764 -0.4524
85872W        W28888   1.628  24.567  26.324  0.0275  0.0198  0.1341
85873W        W28889  15.833  30.489   3.489 -0.1931 -0.2014 -0.1544
85874W        W28890   6.505   3.257   1.224  0.3356 -0.2293 -0.2764
85875W        W28891  11.785  21.842  25.477  0.1199  0.0240  0.0250
85876W        W28892  25.640  22.613  24.045 -0.0412 -0.0477 -0.0485
85877W        W28893   4.647  22.361   4.909 -0.2695 -0.0486  0.0303
85878W        W28894   0.765  28.262  24.515  0.0956 -0.0257 -0.1557
85879W        W28895  13.061   9.334   3.498 -0.0167 -0.0741 -0.1683
85880W        W28896  25.788  32.467  11.474  0.1862 -0.1477  0.0216
85881W        W28897   8.215  24.907   3.735 -0.3256 -0.0065  0.0728
85882W        W28898  14.419  25.890   5.784  0.1789 -0.1053  0.0467
85883W        W28899   1.053  24.035   0.712  0.0929 -0.3695 -0.0745
85884W        W28900  26.879  11.834   5.943  0.1709  0.0565  0.2728
85885W        W28901   7.209  34.546  28.662 -0.0112  0.3412 -0.0390
85886W        W28902  18.468  15.543   3.739 -0.0995  0.0210 -0.0602
85887W        W28903   4.641   0.761  24.730 -0.1286 -0.1459  0.0504
85888W        W28904  34.184  25.801   9.593  0.3615 -0.1438  0.1975
85889W        W28905  11.498  24.170   7.289  0.2544  0.0637 -0.0039
85890W        W28906   2.940   2.587   9.655 -0.0286  0.0836  0.2640
85891W        W28907  34.442  12.755  19.417 -0.0164 -0.0603 -0.1621
85892W        W28908  25.853  11.898   3.808 -0.1579 -0.0331  0.2714
85893W        W28909   8.896   9.693  25.242 -0.0851  0.2222 -0.1590
85894W        W28910  15.166  22.843   2.070 -0.1681 -0.1063  0.2647
85895W        W28911  32.349  26.598  28.566  0.1309 -0.0749  0.2506
85896W        W28912  13.384  10.434  17.583 -0.0598 -0.0455  0.1629
85897W        W28913   3.222  32.003   3.223 -0.0687 -0.1664 -0.0861
85898W        W28914  18.232  27.420  24.005  0.1207  0.1166 -0.1460
85899W        W28915  19.738  11.760   3.659  0.0542 -0.1739 -0.1656
85900W        W28916  14.423   2.948  17.033 -0.3315  0.2255 -0.1728
85901W        W28917   0.210   3.187  16.336  0.0295  0.0288  0.0412
85902W        W28918  26.634  28.674  10.231  0.1012  0.0211 -0.0532
85903W        W28919  20.937   2.171  24.179  0.1837  0.3714 -0.2900
85904W        W28920   6.245   0.809   0.831  0.1437  0.2802 -0.0016
85905W        W28921  14.213   8.002  26.129  0.0039 -0.1926 -0.0205
85906W        W28922   3.697  28.986  23.646  0.1083  0.1939  0.1307
85907W        W28923  18.317  30.943   9.322 -0.3609 -0.3560 -0.2022
85908W        W28924  10.304  24.402  14.423  0.2229 -0.1164  0.1316
85909W        W28925  18.047   5.101   0.363  0.3520  0.0130  0.0545
85910W        W28926   4.932   1.416   1.489 -0.2737 -0.1883  0.2227
85911W        W28927  27.034  17.022   6.053 -0.2969  0.2678 -0.0786
85912W        W28928   6.943  12.489   7.516  0.3448  0.4831  0.0960
85913W        W28929  10.600   5.316   2.142  0.1654 -0.2022 -0.2721
85914W        W28930  29.622   6.086   6.129 -0.0567  0.0528  0.1578
85915W        W28931  12.255  31.468   8.430 -0.1120  0.0842 -0.0816
85916W        W28932  12.886   1.263   7.652 -0.2733  0.0525 -0.3989
85917W        W28933   5.899  18.770  15.688 -0.2525 -0.0343  0.0285
85918W        W28934   9.272  32.030  23.219  0.0870  0.1334 -0.1458
85919W        W28935  33.080   7.084  24.911  0.0476 -0.1223  0.0895
85920W        W28936   0.401  30.675  17.277 -0.4189 -0.1710  0.3091
85921W        W28937   3.397   3.123  24.119  0.0220 -0.0512  0.1246
85922W        W28938   1.795  24.078   0.520  0.4457  0.1123  0.2175
85923W        W28939   0.827  32.787   3.745 -0.0673  0.1311  0.0562
85924W        W28940  15.253  30.900   6.524  0.1259  0.2928 -0.1156
85925W        W28941  16.874  26.870  21.196  0.1719 -0.0947  0.1509
85926W        W28942   6.028  32.274   3.258 -0.0276  0.4639  0.1603
85927W        W28943   4.090  26.156   8.523 -0.0816 -0.2317  0.2422
85928W        W28944   9.621   3.111  15.959  0.0571 -0.2564 -0.0369
85929W        W28945  16.838  29.594   2.727  0.0360  0.0035  0.0090
85930W        W28946  25.971   3.074  27.290 -0.2092  0.0172 -0.2298
85931W        W28947  14.867   5.520  22.797 -0.0005 -0.0401  0.1282
85932W        W28948  23.748  26.838  20.091 -0.3338 -0.3116  0.1837
85933W        W28949   4.953  28.333   5.819 -0.4235 -0.0946  0.2095
85934W        W28950   3.508  29.222   6.587  0.3402  0.0211  0.0566
85935W        W28951  12.015   1.926   3.034  0.1086  0.3158  0.0421
85936W        W28952  32.769   1.181  25.226 -0.1909  0.1796  0.1564
85937W        W28953   6.274   1.122   1.454  0.3041 -0.1951 -0.1158
85938W        W28954   0.006  15.967  14.301  0.1452  0.0953  0.2234
85939W        W28955   3.676  34.335   8.089 -0.1335  0.1343  0.1268
85940W        W28956  29.988   8.710  29.000 -0.2061  0.4920 -0.1757
85941W        W28957  15.025   2.115  25.703  0.1307 -0.1760  0.1970
85942W        W28958   7.570  27.050  24.751 -0.0707 -0.1392  0.3097
85943W        W28959  21.611  25.906   8.326  0.0479 -0.0796 -0.2367
85944W        W28960  14.742  31.378   4.843 -0.1276 -0.1963  0.2627
85945W        W28961  11.222   0.307  25.604  0.0601  0.1678 -0.2839
85946W        W28962  30.603  34.717  25.861 -0.5247  0.0720  0.3002
85947W        W28963   3.736  19.620  21.891 -0.1535  0.0240 -0.1884
85948W        W28964  15.707  16.498  25.710  0.1711 -0.0397 -0.2483
85949W        W28965   6.267  26.491   5.877 -0.2829  0.4384 -0.1819
85950W        W28966  26.338  20.327  28.807 -0.0725 -0.0290  0.0541
85951W        W28967   8.690   8.878   2.204  0.1107  0.3987  0.3080
85952W        W28968  11.556   9.849   7.357  0.0835  0.4748 -0.0886
85953W        W28969   3.774   2.657  24.171 -0.0866 -0.2195 -0.0024
85954W        W28970  11.946  21.412   6.076  0.1285  0.2624 -0.0846
85955W        W28971   3.441  29.936  21.961 -0.0368 -0.2931  0.0814
85956W        W28972  18.540   0.223  22.488  0.2442 -0.2978  0.0910
85957W        W28973  13.553   3.588   2.198  0.2107  0.0606 -0.0492
85958W        W28974  26.444  26.432   1.965 -0.0077 -0.3648  0.0342
85959W        W28975  14.175  29.193   2.325  0.3039 -0.1033  0.1832
85960W        W28976  20.579  34.269  25.644 -0.1058 -0.0231 -0.3061
85961W        W28977  32.657   6.291   4.627  0.0159  0.1763  0.1199
85962W        W28978   7.692  15.231  14.173  0.1025  0.1144  0.4221
85963W        W28979  14.030  32.012  10.126 -0.3315 -0.4369  0.0347
85964W        W28980  28.342  14.214  20.550 -0.3371 -0.1177  0.2989
85965W        W28981  16.688   8.659  24.012 -0.1239  0.1641  0.0684
85966W        W28982   1.729  32.444  28.018 -0.0287 -0.1981 -0.0158
85967W        W28983  20.455  32.019  25.674  0.2291  0.0022  0.1166
85968W        W28984   2.006  26.226  24.794 -0.0319  0.1005  0.0445
85969W        W28985  26.046   6.719   6.119  0.1113  0.3305  0.0299
85970W        W28986   1.745  28.663  16.888 -0.1356 -0.4139  0.3328
85971W        W28987   3.559  32.941  19.350  0.0362  0.0862  0.2551
85972W        W28988   3.481   2.617  25.398 -0.0955 -0.0902  0.1272
85973W        W28989  18.063  33.016   6.744  0.2790  0.0524  0.1053
85974W        W28990  11.682  29.527   8.764 -0.0598  0.0794 -0.0526
85975W        W28991   7.762  33.651   1.569  0.0617  0.2405 -0.1938
85976W        W28992  10.053   9.867   9.102  0.2695 -0.1958 -0.0755
85977W        W28993   7.765   6.602   2.981  0.1439 -0.1264  0.2100
85978W        W28994  12.093  27.781   5.888  0.0575 -0.1875 -0.1847
85979W        W28995  15.963  22.028  28.250 -0.0502 -0.1411 -0.1013
85980W        W28996  18.630  15.997   3.471  0.1419  0.0572 -0.2072
85981W        W28997  17.684  19.641  24.281 -0.0009 -0.1305 -0.0447
85982W        W28998  18.906  28.457  29.032  0.2912  0.2645  0.1781
85983W        W28999  15.007   8.715  20.885  0.0041 -0.0049  0.0804
85984W        W29000   4.077  30.507  25.348 -0.2034  0.1315  0.1422
85985W        W29001  24.807  28.681   2.012 -0.0744  0.0791  0.1685
85986W        W29002  15.958  20.660  21.008 -0.2079 -0.0135  0.1589
85987W        W29003  13.001  26.989   1.283  0.0223 -0.0319 -0.0717
85988W        W29004  19.391  27.351  10.031 -0.0524  0.1868  0.0256
85989W        W29005   0.276   7.559  27.287  0.0551  0.2821 -0.0232
85990W        W29006   1.658  14.547  27.769  0.1101  0.2417 -0.0886
85991W        W29007   4.296  34.318   1.483  0.0352  0.1466  0.0854
85992W        W29008  13.717   5.724   3.768  0.2771  0.4148  0.0107
85993W        W29009  18.853  17.912  28.277 -0.3026 -0.1963 -0.2121
85994W        W29010  13.057  20.568  11.730  0.0998 -0.2244  0.3183
85995W        W29011  13.158  29.710  18.693 -0.0269 -0.0253 -0.0444
85996W        W29012   6.138  26.856   7.984 -0.0701 -0.0358  0.0712
85997W        W29013   9.688  34.118   2.970  0.2290  0.5026 -0.0591
85998W        W29014   6.628  23.080   4.596 -0.0482  0.0406 -0.2162
85999W        W29015  31.140  16.823   6.589 -0.3086 -0.0727 -0.1991
86000W        W29016  25.693  30.466   5.851  0.2349 -0.1923  0.0088
86001W        W29017  32.716  24.862   2.381  0.2842 -0.1090  0.0920
86002W        W29018  12.615  30.945  10.605 -0.0403  0.1313  0.4654
86003W        W29019   7.291  28.750   6.718  0.0298  0.1412 -0.0085
86004W        W29020  32.335  16.586  20.852 -0.0829  0.0894 -0.1606
86005W        W29021  15.594   4.209  26.836 -0.1550  0.0846  0.1222
86006W        W29022   6.586  27.818   1.691  0.1077  0.0015 -0.1521
86007W        W29023  20.637  31.907   3.070  0.2323  0.0498  0.0639
86008W        W29024   2.531   2.338   6.936 -0.1047 -0.2232 -0.1644
86009W        W29025   8.512  20.819  12.935 -0.1156  0.0603  0.2343
86010W        W29026  12.988   5.399   6.619 -0.1405  0.0670 -0.2015
86011W        W29027  32.041  34.102   0.776 -0.3400  0.0094  0.0517
86012W        W29028  10.324   5.616  22.777  0.4703 -0.3603  0.0753
86013W        W29029  13.655   6.845   2.910  0.1955  0.1836 -0.0964
86014W        W29030   6.957   4.164  20.179  0.2247 -0.3125  0.0837
86015W        W29031   9.525   0.549   2.269 -0.2254 -0.0703  0.0381
86016W        W29032  33.694  28.748  25.653  0.1554 -0.1121  0.2639
86017W        W29033  14.717  19.711  22.852 -0.3072 -0.1015 -0.1977
86018W        W29034   1.113  28.867  28.185 -0.1471  0.0221 -0.3107
86019W        W29035  15.335   0.402   7.591  0.2906  0.0934 -0.1114
86020W        W29036   8.464  14.153   1.365 -0.2604 -0.0115 -0.2465
86021W        W29037  34.446  33.785   9.516  0.2906  0.0036 -0.1823
86022W        W29038   1.475   3.115   8.034 -0.1453  0.0180  0.2492
86023W        W29039   5.563  34.688   1.822 -0.1184  0.1291  0.0978
86024W        W29040  30.154  14.678   9.283 -0.0612  0.3588 -0.0417
86025W        W29041  10.614  30.039   9.434  0.1177 -0.1062  0.1185
86026W        W29042  12.602  32.692   1.974 -0.0025 -0.1820 -0.1179
86027W        W29043  26.786   5.776  10.807 -0.2926 -0.0793  0.2001
86028W        W29044   9.165   5.907   0.609  0.2455 -0.0841  0.0271
86029W        W29045  20.074   0.570   0.815 -0.1216  0.3313  0.0483
86030W        W29046   2.363  29.882   9.004  0.3100 -0.0472 -0.0870
86031W        W29047  20.139  23.660   3.669  0.3458  0.0197 -0.2155
86032W        W29048  12.876  12.006  25.257 -0.1360  0.0089  0.1925
86033W        W29049  12.681  14.169  25.525 -0.2519  0.4106 -0.3816
86034W        W29050  28.325  32.972   2.025  0.1841  0.1250  0.2325
86035W        W29051  20.926  24.610   6.583  0.0397 -0.1290 -0.1407
86036W        W29052  32.470  10.671  27.785  0.4233  0.0519  0.0209
86037W        W29053   9.325   0.587   3.512 -0.3505  0.2515 -0.4971
86038W        W29054  15.072  15.032  24.392 -0.0255 -0.0850 -0.1758
86039W        W29055  11.579  11.594   5.967  0.4064 -0.2117  0.0640
86040W        W29056  15.912  18.064  14.076  0.0751 -0.0021 -0.2827
86041W        W29057   5.733  33.496   9.834 -0.1577  0.1511 -0.0656
86042W        W29058   3.648  21.844  24.715  0.1287  0.3160  0.1496
86043W        W29059   6.331   1.767   6.974 -0.2969 -0.0812  0.1426
86044W        W29060  22.697  34.434   9.373 -0.1014  0.0013  0.1910
86045W        W29061  19.500  28.471   5.544 -0.0567 -0.2350 -0.1215
86046W        W29062  12.367   0.999   4.898  0.1996 -0.1365 -0.1095
86047W        W29063  32.506   0.835   5.018 -0.0539  0.0326  0.0014
86048W        W29064   5.573  29.130   4.309 -0.0724 -0.4244  0.2613
86049W        W29065  21.338  24.745   6.282  0.0344  0.2506 -0.3631
86050W        W29066   1.489   4.750  10.717 -0.0684 -0.1213 -0.2530
86051W        W29067  33.514   2.348  26.340 -0.1062 -0.0693 -0.2945
86052W        W29068  28.094  12.955  26.304  0.1804 -0.1096 -0.1072
86053W        W29069   4.012  33.267   4.199 -0.1823 -0.2641 -0.1988
86054W        W29070   8.601  20.014  28.592  0.2153 -0.1673  0.0638
86055W        W29071   7.662  10.223  27.752  0.2485 -0.1862 -0.3440
86056W        W29072  15.929  11.371   7.667  0.2153  0.3161 -0.0257
86057W        W29073   8.189   3.121  20.939  0.0839 -0.4484  0.2200
86058W        W29074  14.349   9.881   3.702  0.0600 -0.0815  0.0007
86059W        W29075   4.377   2.825   9.360 -0.1883 -0.0419  0.0700
86060W        W29076   1.394   7.849  26.599  0.4643  0.0456  0.1269
86061W        W29077  34.439  27.008   3.463  0.3253  0.1393  0.1250
86062W        W29078   8.324  27.437   3.693  0.1143 -0.1044 -0.4097
86063W        W29079  32.335   5.089   1.924 -0.1523 -0.0941  0.2290
86064W        W29080  10.642  30.991   9.055  0.1126  0.0976 -0.1042
86065W        W29081  22.796  19.619   3.649  0.0773  0.3718  0.3064
86066W        W29082  16.722  31.420   1.870 -0.1285 -0.0273 -0.1242
86067W        W29083   2.897   8.301  25.838  0.0899  0.0160 -0.4833
86068W        W29084   6.825  24.740   6.673 -0.1655 -0.1845 -0.1094
86069W        W29085  15.620  12.324  14.857 -0.0413 -0.1349  0.1954
86070W        W29086  16.011   7.087  16.982  0.0510  0.1229 -0.3083
86071W        W29087  11.522  18.325  17.555  0.0371 -0.0889 -0.1803
86072W        W29088  12.302  33.025   6.984  0.3774  0.0033  0.1963
86073W        W29089  25.939  18.810   2.218  0.2288 -0.1138 -0.0863
86074W        W29090  17.296  32.423  18.333 -0.1097  0.6652  0.2014
86075W        W29091  10.728  10.476  29.011  0.2575  0.0449 -0.0807
86076W        W29092  14.719  28.450   8.552 -0.1502  0.0692 -0.0164
86077W        W29093  14.096   0.549  25.047  0.1742 -0.1587 -0.0531
86078W        W29094   1.925  19.459   4.274  0.0712 -0.1590  0.1873
86079W        W29095  11.465  29.078   8.040 -0.3618 -0.1513 -0.0307
86080W        W29096  19.655  13.035   5.320 -0.1415 -0.1646 -0.1017
86081W        W29097   2.781  28.506   6.003 -0.0531  0.0886  0.0749
86082W        W29098  19.119   0.567  22.495  0.2589 -0.0389 -0.1327
86083W        W29099  30.731  25.177  25.357 -0.0155  0.0285 -0.0429
86084W        W29100  16.921  16.721  28.292  0.1144  0.1412  0.0639
86085W        W29101  23.337  23.657  28.603  0.0918  0.0027 -0.1643
86086W        W29102  29.386  21.640  27.493  0.1084  0.0184 -0.2629
86087W        W29103  34.184   3.555   3.571  0.2924 -0.2132  0.2279
86088W        W29104   4.448  34.047  24.847  0.0730 -0.0945  0.1211
86089W        W29105  20.111  23.246  27.531  0.1937 -0.2699 -0.2089
86090W        W29106  26.547   5.520   5.508  0.1128  0.0635  0.2036
86091W        W29107   1.087  17.778   8.286 -0.1371  0.0400 -0.0393
86092W        W29108  12.924  30.872  23.589  0.0137  0.2450  0.1676
86093W        W29109  26.423   9.651  21.253  0.0547  0.2598 -0.0211
86094W        W29110   4.673  13.314   8.636  0.0035  0.2376 -0.1295
86095W        W29111  33.223  18.072   4.367  0.0014 -0.1688 -0.0296
86096W        W29112   6.720  32.806   6.701 -0.1865  0.1228  0.0779
86097W        W29113   4.425  28.221   3.139 -0.0739  0.1569 -0.0999
86098W        W29114   5.310  17.834  26.699  0.0382 -0.2397  0.0449
86099W        W29115   1.744  26.578   5.159 -0.2263  0.0218 -0.2224
86100W        W29116  32.503   1.531   9.882 -0.1228 -0.2458 -0.0619
86101W        W29117  14.774  27.409  24.917 -0.1033  0.0361  0.0871
86102W        W29118   7.932   5.961   6.839 -0.1548  0.1275 -0.1950
86103W        W29119  16.211   0.582   0.189  0.0796  0.0478  0.1326
86104W        W29120  19.294  19.688   2.031  0.1784  0.0715  0.4965
86105W        W29121   6.720  26.732   5.763  0.1440 -0.1285 -0.2201
86106W        W29122  19.272  34.139   0.880  0.0750 -0.0503  0.1319
86107W        W29123  21.816   2.491  28.963 -0.2019 -0.1154  0.0078
86108W        W29124   7.995  33.179  27.441 -0.0561  0.1297 -0.1976
86109W        W29125   9.708  11.795  22.634  0.1006 -0.0088 -0.1167
86110W        W29126   9.455   7.022   1.155  0.3160  0.0880  0.2761
86111W        W29127   0.090  31.457  29.251  0.3075  0.2182 -0.0330
86112W        W29128   8.138   1.840   2.136 -0.2441  0.2078 -0.1466
86113W        W29129   4.118  20.100  23.227  0.0584  0.1239  0.2581
86114W        W29130   2.219  10.888   3.704  0.1293 -0.0256  0.2217
86115W        W29131   8.237  31.762  21.006 -0.1400 -0.1812 -0.1505
86116W        W29132  10.621   4.883   7.463  0.0409  0.0247 -0.1235
86117W        W29133   3.433  10.289  29.173 -0.0688  0.2355 -0.1172
86118W        W29134  27.068  31.674   8.859  0.0698 -0.0239 -0.2277
86119W        W29135  24.671  34.639  28.131 -0.0030 -0.2011 -0.0097
86120W        W29136  10.018  10.328   8.776  0.0394  0.3621  0.1518
86121W        W29137   2.427   0.610   5.359 -0.0977 -0.3614 -0.0115
86122W        W29138  31.453  18.443   7.555 -0.0259  0.1297  0.0344
86123W        W29139  14.761  15.287   5.538  0.2336 -0.0015 -0.0092
86124W        W29140   2.365  22.079   5.432  0.0739 -0.0432 -0.1268
86125W        W29141  26.697   3.220  22.874  0.0288 -0.0296  0.0744
86126W        W29142   4.232   6.820   6.991  0.0147  0.0980 -0.0536
86127W        W29143  27.745   5.630  19.126  0.2821  0.1739  0.0377
86128W        W29144  25.193   3.116  10.296 -0.1685 -0.0924  0.0797
86129W        W29145   0.705   9.426  21.631  0.1054 -0.0903 -0.1446
86130W        W29146  28.671  22.965   3.746  0.1087  0.0046  0.1340
86131W        W29147  12.565  27.801  25.223 -0.1063 -0.0720  0.0229
86132W        W29148  10.787  27.421  18.675 -0.4173  0.3091  0.1629
86133W        W29149  12.682   4.239   8.780 -0.0132  0.0353 -0.2808
86134W        W29150  28.388  24.780  10.992 -0.1428  0.5236 -0.2578
86135W        W29151  16.761   3.896  27.822 -0.3033  0.3295 -0.0371
86136W        W29152  33.256  18.177   1.050  0.1129  0.0073 -0.2985
86137W        W29153   7.114  31.947  22.819  0.2044  0.5009  0.0222
86138W        W29154   2.776  27.658  25.748  0.0596  0.2161 -0.2607
86139W        W29155  33.661  27.708   2.767  0.1063  0.1339  0.2644
86140W        W29156  32.679   1.618  23.639 -0.3092 -0.0928  0.0562
86141W        W29157   9.805   1.002   5.941  0.1094  0.3043 -0.0184
86142W        W29158  19.685  30.726  23.666 -0.2338 -0.1248  0.2647
86143W        W29159   2.380  32.014  25.754 -0.0107 -0.1849  0.1242
86144W        W29160   1.883   2.225   8.665 -0.0333 -0.2060 -0.0006
86145W        W29161   2.970  29.284   7.198 -0.0529 -0.3504 -0.1533
86146W        W29162  14.224   1.394   4.044  0.2128 -0.1109  0.0485
86147W        W29163  10.942  27.505   9.136 -0.0826  0.2646  0.0536
86148W        W29164  32.709  30.265  25.290  0.2595 -0.2138 -0.0571
86149W        W29165  11.879   2.890   3.594  0.1374 -0.0922  0.3185
86150W        W29166  32.745  20.858   5.778  0.1677 -0.1391 -0.1858
86151W        W29167   3.479  11.894  20.247  0.1116 -0.1473  0.0288
86152W        W29168   7.516   9.382   3.321  0.1041 -0.1293 -0.3024
86153W        W29169   9.120   4.546   4.617 -0.0095  0.0182  0.2743
86154W        W29170  13.672  24.190   9.538 -0.3225 -0.1652  0.0103
86155W        W29171  20.498  13.910   6.255  0.0100  0.0839  0.1897
86156W        W29172  28.633   4.662   6.265  0.1054  0.4146 -0.5396
86157W        W29173   5.839  19.090   3.982 -0.0086 -0.1890  0.0036
86158W        W29174   0.206  10.956   7.917 -0.1840 -0.0455  0.0484
86159W        W29175  13.449  28.194  14.691 -0.2229 -0.2359  0.0127
86160W        W29176  28.522  25.588  24.720 -0.3766  0.1266 -0.1876
86161W        W29177  18.383   2.042  18.398 -0.0535  0.1315 -0.1151
86162W        W29178  30.605  13.190   2.056  0.1904  0.2800  0.0287
86163W        W29179  33.244  31.884   5.389  0.1679  0.1007 -0.1776
86164W        W29180   9.556  34.398   4.553 -0.0570 -0.1278  0.0348
86165W        W29181  23.834  27.387   6.069  0.0982  0.3625  0.2376
86166W        W29182   6.576  22.709   2.792  0.0452  0.0126 -0.3427
86167W        W29183  32.099   0.894   8.477  0.1491 -0.1027  0.4698
86168W        W29184   2.471  20.914   0.616 -0.1857 -0.0828  0.0419
86169W        W29185  15.096  26.919  16.023  0.2416  0.1646 -0.0010
86170W        W29186   4.237  34.489  22.528 -0.2745 -0.1420 -0.0637
86171W        W29187  33.276  12.408   4.393  0.1440 -0.0625 -0.0158
86172W        W29188  16.562  23.973  29.035  0.0707  0.1458 -0.3168
86173W        W29189  24.406  23.739   4.781 -0.0451 -0.2129  0.1181
86174W        W29190  17.032   0.370  18.021  0.3460  0.1565 -0.2337
86175W        W29191   5.890  23.221   6.495  0.0529 -0.5561 -0.0232
86176W        W29192   6.922  25.130   9.752  0.3979  0.3347 -0.0884
86177W        W29193   4.603  28.998  23.055  0.0528  0.1280 -0.3350
86178W        W29194  13.140  29.508   0.201  0.0082  0.0649 -0.2045
86179W        W29195   2.463   1.481   9.744  0.0513  0.0620  0.0190
86180W        W29196  11.676   1.888  14.616 -0.1208  0.2796  0.0590
86181W        W29197   8.961   6.960   5.261 -0.0848 -0.2307  0.2050
86182W        W29198   6.491  12.779  17.947  0.3802  0.1650 -0.0154
86183W        W29199  17.175  28.007  22.872  0.1402 -0.1646  0.3841
86184W        W29200  13.991  19.291  25.081  0.1743 -0.1469 -0.2102
86185W        W29201  17.144  32.280   4.180  0.0377 -0.2224 -0.1481
86186W        W29202   2.983   8.284   5.229  0.0897  0.0882  0.2095
86187W        W29203   9.161  25.982   5.590  0.0968  0.0459 -0.0942
86188W        W29204  20.509  24.074  24.937  0.4420 -0.0339  0.2436
86189W        W29205   4.368   0.377   9.079  0.0074 -0.1585  0.0787
86190W        W29206  17.000  29.231   7.645  0.1023  0.2272  0.3702
86191W        W29207  18.217  25.996   4.432  0.1413 -0.1498  0.1882
86192W        W29208   5.926  27.501  10.236 -0.0260  0.1241 -0.0328
86193W        W29209   0.154  19.402   1.598 -0.1589  0.1421 -0.2831
86194W        W29210  20.533  26.025   5.412 -0.2820  0.0735 -0.3037
86195W        W29211   1.961  23.713  16.299 -0.0913 -0.2680 -0.1707
86196W        W29212  11.936   3.206  10.740 -0.0350 -0.3437  0.0326
86197W        W29213  10.207  15.796   6.172  0.0503  0.0007 -0.0793
86198W        W29214   9.972  24.571   1.149  0.3911  0.0996 -0.2533
86199W        W29215  11.725  26.454  28.202 -0.0258  0.0514 -0.2606
86200W        W29216  22.325   9.291  15.386  0.5307 -0.2835 -0.1554
86201W        W29217   8.056  24.672   1.343  0.0129  0.0691 -0.0594
86202W        W29218   5.634   3.825   0.051  0.0190  0.1091 -0.2639
86203W        W29219  27.470  26.560  10.623 -0.0292 -0.2208 -0.3342
86204W        W29220   4.022  30.699   6.206  0.1168 -0.0592 -0.1376
86205W        W29221   2.096  21.051   0.061  0.2188  0.0194 -0.0604
86206W        W29222   1.132  32.490  21.799 -0.0461 -0.1013 -0.0770
86207W        W29223   6.301   7.530   2.357  0.0357 -0.0593 -0.1490
86208W        W29224   9.141  25.313  23.305 -0.2185  0.1424  0.4677
86209W        W29225  25.396  17.438   3.867 -0.0999  0.0479  0.2004
86210W        W29226  19.367  31.092  10.392  0.1733  0.0008 -0.1195
86211W        W29227  31.395  20.224  10.789 -0.0612  0.1526  0.0478
86212W        W29228  34.640  34.206  25.510 -0.1342 -0.3514  0.2158
86213W        W29229  19.199  32.387   9.867 -0.0073  0.1565  0.0248
86214W        W29230   6.060  21.850   4.755  0.1099  0.2445 -0.2365
86215W        W29231  10.865  32.542   7.736 -0.0393 -0.1039 -0.2883
86216W        W29232  26.343  34.223  12.092 -0.0047 -0.0048 -0.0781
86217W        W29233  15.515  27.662   7.640 -0.2353 -0.0580  0.0376
86218W        W29234   9.262   4.570   9.830 -0.0999  0.0690 -0.1656
86219W        W29235   5.909  20.634  22.961 -0.0459 -0.2427  0.0175
86220W        W29236   7.689   0.139  24.526  0.1192 -0.0404  0.0442
86221W        W29237   6.655   2.103  23.805  0.1429 -0.0380  0.1333
86222W        W29238   9.921  10.006   7.064 -0.3555  0.1967 -0.1024
86223W        W29239  31.706   2.905  29.061  0.0188  0.0770  0.0279
86224W        W29240   8.281  25.218   5.786 -0.0683  0.0435 -0.0827
86225W        W29241   1.623  25.907   7.603  0.2722  0.2912 -0.0809
86226W        W29242   2.387   3.531  16.768 -0.0979 -0.2020 -0.0101
86227W        W29243  14.962  24.303  24.801 -0.0834 -0.0135 -0.2043
86228W        W29244  28.211  23.827   6.326 -0.3114  0.1850 -0.0014
86229W        W29245  25.529   1.325   2.698 -0.2872 -0.0115  0.2504
86230W        W29246   4.643  34.204   9.005 -0.0754  0.0928  0.0690
86231W        W29247  18.966   1.274  24.415 -0.1950  0.2553  0.4329
86232W        W29248   5.273   5.952   3.960 -0.4698 -0.1121  0.1782
86233W        W29249  13.770  30.785  26.621 -0.0319  0.3757  0.0794
86234W        W29250  31.979  24.808  28.164  0.2689  0.1672  0.3022
86235W        W29251  32.324   2.560  29.101  0.0840 -0.1260 -0.0258
86236W        W29252  33.707   1.901   7.186  0.1449 -0.1684 -0.0764
86237W        W29253  32.864  16.751   7.711  0.1196 -0.2289  0.3827
86238W        W29254   3.661   7.600   7.480 -0.1121 -0.1225  0.0696
86239W        W29255   2.499  26.751   2.723  0.0092 -0.1595  0.0261
86240W        W29256  10.646  26.709   1.841  0.0796 -0.0787  0.3126
86241W        W29257  16.468  27.886  26.493  0.0722  0.0764 -0.0605
86242W        W29258   9.068   7.076   2.384 -0.0427  0.0840 -0.0940
86243W        W29259  10.957  30.046  26.601 -0.2404 -0.0546 -0.0544
86244W        W29260   4.945   2.783  21.445 -0.1028 -0.0693 -0.1001
86245W        W29261  30.741   2.366   5.291 -0.3228 -0.0832 -0.0783
86246W        W29262   8.061  15.587   6.137 -0.2948 -0.1297  0.1551
86247W        W29263  11.113  21.798  22.151 -0.0203 -0.0604 -0.1549
86248W        W29264  13.776   5.512   5.389 -0.1095 -0.1443 -0.0398
86249W        W29265  15.848   0.759  23.015  0.0047  0.0548 -0.2143
86250W        W29266  34.304   5.382  23.715 -0.3536 -0.1456 -0.1042
86251W        W29267   8.892   7.425   9.245  0.1391  0.0993  0.2273
86252W        W29268  32.505   7.734  28.069  0.0121  0.2279 -0.2806
86253W        W29269   8.606  29.705  18.321 -0.0134 -0.1680  0.0333
86254W        W29270   6.887  31.013   4.131  0.1030 -0.2834 -0.0202
86255W        W29271   8.280  24.624   7.749  0.2197  0.0736  0.1967
86256W        W29272   0.234   5.640  24.772  0.1456  0.1552  0.0255
86257W        W29273   6.828  29.916   6.793  0.0068 -0.0083 -0.3964
86258W        W29274   6.525  25.638   2.385  0.0183 -0.0014 -0.2293
86259W        W29275  18.186  17.387   7.096 -0.1603  0.1657 -0.2047
86260W        W29276   9.418  16.243  25.102 -0.1237  0.1551 -0.0798
86261W        W29277  18.168   8.750  15.633 -0.1553 -0.1745 -0.0020
86262W        W29278  10.547   6.536  28.765 -0.0792 -0.2865 -0.2966
86263W        W29279   2.473  28.508  25.850  0.1558 -0.1722  0.1212
86264W        W29280  22.793   8.506   0.704 -0.0318 -0.0260  0.2584
86265W        W29281  33.840   8.353   1.330 -0.0291  0.3489  0.2448
86266W        W29282   8.349  16.274   2.410 -0.1650 -0.1667  0.2456
86267W        W29283   5.888   8.308  18.093  0.2022  0.0834 -0.2794
86268W        W29284  18.123  21.278  21.363 -0.3007 -0.2147  0.0660
86269W        W29285  21.057   1.396   5.029 -0.0678 -0.0942 -0.0503
86270W        W29286   1.248  31.444  10.233  0.3714  0.0497 -0.2621
86271W        W29287   6.590  29.107   5.886 -0.2421 -0.1845  0.0545
86272W        W29288   8.148  11.720   3.479 -0.1236 -0.1090  0.2037
86273W        W29289  12.677  13.605   2.594 -0.0964 -0.0195  0.0996
86274W        W29290   5.357  28.216  22.142 -0.1502 -0.0071  0.1823
86275W        W29291   0.860  26.034  26.366  0.0958 -0.1747  0.1293
86276W        W29292   2.766  28.434   4.484 -0.0031 -0.0919 -0.4277
86277W        W29293  15.011  16.318  24.121 -0.2545 -0.1048  0.1413
86278W        W29294   1.130  32.682   9.416  0.3254  0.2379 -0.1249
86279W        W29295   6.006  28.805   3.054  0.1187 -0.1348  0.0353
86280W        W29296  15.772  14.279   4.760 -0.0841 -0.0455 -0.1158
86281W        W29297  28.928   1.025   4.019  0.3364  0.3805 -0.3261
86282W        W29298  21.786  11.299   2.030 -0.3472  0.0126  0.1667
86283W        W29299   3.411  15.538   9.701  0.0126 -0.1215  0.1960
86284W        W29300  21.859  24.987  16.443 -0.3880  0.3009  0.0371
86285W        W29301  30.535  32.385   7.893  0.1349 -0.2893  0.1103
86286W        W29302   4.096   5.792   0.582 -0.1941 -0.0882  0.1478
86287W        W29303  29.177  23.730   1.903  0.5638  0.1002 -0.0982
86288W        W29304  16.023   7.585   5.604  0.3344 -0.1797  0.4072
86289W        W29305   5.917  20.517   5.406 -0.0558 -0.2885  0.1173
86290W        W29306   2.708  28.851   3.824  0.1220 -0.0711  0.0405
86291W        W29307   8.052  19.599   3.408 -0.1662  0.0228  0.1073
86292W        W29308  15.010  23.953  22.191 -0.1157  0.0815  0.3844
86293W        W29309  25.454  13.320  24.917  0.0019 -0.2104 -0.2363
86294W        W29310  19.711   0.491   1.150 -0.1465 -0.1009  0.1629
86295W        W29311   8.104  10.233  28.598 -0.0047 -0.2058 -0.2283
86296W        W29312  12.763  22.911   7.088  0.1064  0.1356  0.2160
86297W        W29313  33.136   2.840  16.211  0.1722 -0.1041 -0.1958
86298W        W29314  23.644   5.346   3.148  0.1021 -0.2199 -0.3247
86299W        W29315   0.583  23.224   8.146  0.3125  0.2078  0.6660
86300W        W29316  18.182   1.770  10.078  0.2214 -0.1248 -0.1658
86301W        W29317   5.144  21.113  29.052 -0.0291 -0.1264  0.1631
86302W        W29318  10.484   0.608   0.901  0.0504  0.0183  0.1874
86303W        W29319  14.214   0.105   5.820  0.0115  0.0579  0.1200
86304W        W29320  17.788   9.501   2.186  0.1217 -0.3798  0.1654
86305W        W29321  33.929  17.694  15.981  0.0314 -0.1656 -0.1014
86306W        W29322   0.380  32.001   8.865  0.2534  0.1896  0.0135
86307W        W29323  16.117  16.736   5.924  0.0146 -0.0346  0.0253
86308W        W29324  31.022  12.325   8.458  0.0881 -0.3397  0.1509
86309W        W29325  19.678  19.372  22.712 -0.0171  0.0329 -0.1035
86310W        W29326   6.614  18.978  23.561  0.1838 -0.1444  0.0832
86311W        W29327   5.453  33.113   3.686  0.1225  0.1022  0.1286
86312W        W29328  19.484   0.607   3.053 -0.2086  0.0086  0.5395
86313W        W29329   4.957  22.259  27.122 -0.2352 -0.1004  0.1804
86314W        W29330  14.653  21.095  20.050  0.1102 -0.4318 -0.0123
86315W        W29331  29.927  13.682   1.124  0.1000  0.1676  0.0765
86316W        W29332   4.970  31.994   5.076 -0.1524 -0.0773 -0.1733
86317W        W29333  30.236  26.547   3.156  0.2365 -0.2729 -0.3456
86318W        W29334  22.649  19.210   7.869 -0.1864 -0.2601 -0.0424
86319W        W29335  11.952  19.701   3.277  0.0184  0.2658 -0.3560
86320W        W29336  19.250  21.604   0.481 -0.0830  0.1283  0.2221
86321W        W29337  34.527  15.420  15.990 -0.0181 -0.1868  0.1142
86322W        W29338  12.895  12.194  28.861  0.2052 -0.0007  0.0230
86323W        W29339   6.023  10.962  27.234 -0.0953 -0.2149 -0.1439
86324W        W29340   9.250  14.195   6.955 -0.1033  0.1884  0.1536
86325W        W29341  23.933  11.481  19.670 -0.0828 -0.2274  0.2632
86326W        W29342  14.322  31.358  16.389 -0.4338 -0.1837  0.0713
86327W        W29343  22.752  30.793   8.201 -0.1524  0.0280  0.0050
86328W        W29344  28.279   0.485   0.185 -0.2695 -0.3149  0.0042
86329W        W29345   1.895  27.409   4.723  0.0662 -0.1929 -0.1732
86330W        W29346  21.504   8.971  22.734 -0.1185  0.1915  0.3015
86331W        W29347   8.681   8.402   2.397 -0.0277 -0.3124  0.2359
86332W        W29348  13.021  20.817  29.281  0.1309 -0.1260 -0.2908
86333W        W29349  31.432  13.374   0.288 -0.0664 -0.1852  0.0462
86334W        W29350  20.575  16.106  28.896 -0.0751  0.1428 -0.0348
86335W        W29351   4.947   5.099   4.062  0.3003  0.3492  0.0854
86336W        W29352  11.014  29.565  27.717 -0.0568  0.1080  0.0714
86337W        W29353   3.299   0.915  20.444  0.0966 -0.2044  0.1571
86338W        W29354  32.039  20.430   1.154 -0.1377 -0.0249  0.4017
86339W        W29355  34.679  20.900   0.416 -0.0294 -0.0046  0.0701
86340W        W29356  11.858  32.762  28.908  0.0944 -0.1415 -0.0278
86341W        W29357   7.070  26.671   8.956  0.2071  0.2284  0.1226
86342W        W29358   0.267   2.382  26.805 -0.0562  0.1379 -0.1841
86343W        W29359   3.339  31.590   7.103 -0.0117  0.0993 -0.0216
86344W        W29360  15.363   7.342   2.099  0.0260  0.0545  0.0185
86345W        W29361  12.959  19.964  22.361  0.2572  0.3524  0.2236
86346W        W29362  32.317   5.590  24.897 -0.0567  0.0805  0.0112
86347W        W29363  16.018   2.481  22.744  0.0970 -0.3871 -0.3099
86348W        W29364  14.808   8.136   3.083  0.0740 -0.0813  0.0456
86349W        W29365   2.962   3.372  28.941 -0.0222  0.1439 -0.0397
86350W        W29366  19.734  32.065  27.010 -0.2173 -0.1761  0.0823
86351W        W29367   9.088   9.090  24.470  0.1581  0.0460 -0.2290
86352W        W29368  12.228   6.350   4.748 -0.1195  0.2294 -0.0723
86353W        W29369  22.554  32.377   9.034 -0.1459 -0.1500 -0.0680
86354W        W29370  24.587  30.697  21.859  0.2086  0.1944 -0.0699
86355W        W29371  26.956   0.686   6.697  0.0950  0.0125 -0.2619
86356W        W29372   8.685  28.336  22.457 -0.1227  0.2025 -0.0564
86357W        W29373   2.984  27.769   8.149 -0.0363 -0.2067 -0.3379
86358W        W29374  29.678  12.730   7.730  0.0525 -0.0015 -0.1358
86359W        W29375   9.868  26.339  26.779 -0.3981  0.0959  0.0112
86360W        W29376  12.198   1.583   2.641 -0.1867 -0.0566  0.0154
86361W        W29377  34.106   2.559   8.579  0.3032  0.0252  0.2197
86362W        W29378   2.140  24.302   9.947 -0.0940 -0.3550  0.0883
86363W        W29379   3.877   7.406   9.826  0.2827 -0.3460 -0.0611
86364W        W29380   0.124   3.080   9.585  0.0478 -0.0610 -0.2323
86365W        W29381  14.680  34.148  27.210 -0.1625 -0.0099 -0.2466
86366W        W29382  32.388   7.907   7.839 -0.0329 -0.2722 -0.0197
86367W        W29383   5.455   1.236   2.132 -0.1822  0.0654 -0.0101
86368W        W29384  17.349  18.284  28.503 -0.0821  0.0716  0.1662
86369W        W29385  26.076  26.953   7.907  0.0601  0.3798  0.1116
86370W        W29386  31.268  27.397  27.566  0.4003  0.1728 -0.1408
86371W        W29387  11.106  31.768  23.408  0.1063  0.0296  0.0741
86372W        W29388   2.454  21.881   3.992 -0.2268  0.0287  0.0177
86373W        W29389  10.809   2.235   2.302 -0.1274 -0.0304  0.0854
86374W        W29390  15.833   1.104   1.385 -0.0067  0.0626 -0.1048
86375W        W29391   3.819  28.496  14.390  0.2858  0.3066  0.0417
86376W        W29392   4.513  30.529  25.674  0.0853  0.2939  0.0402
86377W        W29393   1.816  23.789  10.737  0.0749  0.0442  0.1090
86378W        W29394  10.062   6.461  28.868  0.1240 -0.3231 -0.0610
86379W        W29395  27.311   5.690   7.632  0.1239 -0.0854  0.1089
86380W        W29396   9.436  24.683   3.209  0.4977  0.0839  0.0280
86381W        W29397   7.704  30.311   1.920  0.0424 -0.4272 -0.3213
86382W        W29398   2.658  26.466   9.994  0.0348 -0.0176  0.0578
86383W        W29399   1.741   7.220   4.791 -0.2423 -0.2115 -0.1717
86384W        W29400  15.652  19.922  28.667  0.1342 -0.0404 -0.0054
86385W        W29401   1.641  21.111   1.195 -0.1753 -0.0022  0.1380
86386W        W29402  12.526  26.270  24.104 -0.1225  0.2829  0.0217
86387W        W29403  10.966  24.595   4.318  0.2432 -0.0462 -0.0053
86388W        W29404   2.460  17.817   7.823  0.0275  0.0679  0.0687
86389W        W29405   3.899  34.115  10.612  0.0088 -0.3884 -0.0896
86390W        W29406   2.980  34.619   8.946  0.1697 -0.0288  0.0344
86391W        W29407   5.796  10.461  27.217 -0.1649  0.3345 -0.1652
86392W        W29408  13.735  13.299   4.395 -0.2037  0.0063 -0.2632
86393W        W29409  30.531  20.520  10.575 -0.0138  0.2391  0.0501
86394W        W29410  33.765  29.279  25.706 -0.0323 -0.2839 -0.0282
86395W        W29411   5.021  15.341   8.952  0.2204 -0.1242  0.2177
86396W        W29412  15.763   9.068   3.952 -0.2052 -0.0881  0.1765
86397W        W29413  14.559   9.209  14.457 -0.1173  0.2355 -0.0434
86398W        W29414  33.591  18.598   5.662 -0.0634 -0.1695 -0.1225
86399W        W29415   5.345  19.695  18.393 -0.1172 -0.0241  0.0154
86400W        W29416  18.297  26.253  26.012  0.0595  0.1207  0.0881
86401W        W29417   4.936  30.966   0.799 -0.0485 -0.0380 -0.2622
86402W        W29418  13.698  13.944  26.430  0.2314  0.1448 -0.2860
86403W        W29419  27.041  33.514   1.250 -0.1010 -0.0266 -0.0480
86404W        W29420   3.674  22.750  18.081 -0.0992  0.0667 -0.3252
86405W        W29421  18.991  32.266   3.604  0.0510 -0.3660 -0.0892
86406W        W29422  11.174  18.108  26.401  0.0114 -0.1088 -0.0491
86407W        W29423   9.246  18.598  20.514 -0.0728  0.0105  0.0776
86408W        W29424  32.570  31.781   6.243  0.2988 -0.0406 -0.0960
86409W        W29425  11.620  28.229   6.341 -0.0685 -0.0521  0.1924
86410W        W29426   2.340   2.567   4.180 -0.1533 -0.2118  0.0875
86411W        W29427   3.402   7.642   6.292  0.1410  0.1622  0.1536
86412W        W29428  12.240  33.086   3.783  0.1660 -0.1903  0.0972
86413W        W29429  13.989  21.659  13.142  0.0452  0.1696 -0.1082
86414W        W29430  15.345   2.477  24.004  0.1345 -0.1627  0.2585
86415W        W29431   6.375   2.634  25.658 -0.1773 -0.1100  0.2815
86416W        W29432  21.531  30.555   6.710 -0.3477 -0.3261 -0.3777
86417W        W29433  31.000   0.952  29.228 -0.4298 -0.1179 -0.0052
86418W        W29434  16.469   7.629   5.818 -0.0762 -0.2331  0.3327
86419W        W29435   7.656   4.134   1.954 -0.0754 -0.2307 -0.0576
86420W        W29436   2.970  22.639  15.790  0.0277 -0.3679  0.2405
86421W        W29437  10.864  22.425   5.276  0.1559 -0.1285 -0.3430
86422W        W29438   5.477  27.060  14.537 -0.1244 -0.3582  0.1026
86423W        W29439  34.354  33.901  27.417  0.1080 -0.2726  0.1675
86424W        W29440  13.777  26.648   2.991 -0.0899 -0.0964 -0.1524
86425W        W29441  21.547  21.936   9.154 -0.2427 -0.1461 -0.0897
86426W        W29442   0.295   6.800  27.984 -0.0587  0.2324  0.4367
86427W        W29443   7.001  18.183   3.759 -0.0185  0.1071 -0.2610
86428W        W29444  14.942  31.178  27.658 -0.1056 -0.0270  0.0584
86429W        W29445   9.270  32.374  25.961 -0.1637  0.1105  0.0337
86430W        W29446   5.044   8.587  28.010  0.0432 -0.0669  0.0797
86431W        W29447   0.145  21.575  10.316  0.1234 -0.0484  0.3388
86432W        W29448  13.373  26.698   5.635  0.2171  0.0798 -0.1267
86433W        W29449  11.322   7.861   2.582  0.1065  0.2313  0.1779
86434W        W29450   5.767  28.564  27.234 -0.1351 -0.1775  0.1792
86435W        W29451  15.385   2.092   1.892  0.0773  0.1522 -0.1198
86436W        W29452  20.231   6.321   8.151 -0.1535  0.3484 -0.0584
86437W        W29453   6.335  25.440   0.380 -0.4142  0.3926 -0.1033
86438W        W29454  33.386  32.056  27.885 -0.3763  0.0389 -0.1981
86439W        W29455  12.946  28.116  25.995 -0.1889  0.1256 -0.1522
86440W        W29456  16.426  32.476   5.776  0.1768  0.3501 -0.2638
86441W        W29457   5.517  23.739   8.321  0.5145 -0.0085 -0.2207
86442W        W29458  32.311  29.604  22.576  0.1371  0.1677  0.1209
86443W        W29459   1.629  33.972   2.978 -0.2183  0.2095 -0.0817
86444W        W29460   1.041  23.182  26.586 -0.0596  0.0964 -0.0374
86445W        W29461   4.156  15.451   1.626 -0.0622 -0.0144  0.0170
86446W        W29462   5.950  31.599   4.206 -0.1291 -0.0798 -0.2904
86447W        W29463  13.629  23.514  19.859  0.1168 -0.0020 -0.2295
86448W        W29464  11.193   7.351   9.830 -0.2274 -0.2216 -0.0854
86449W        W29465  32.261  16.262   8.078 -0.0743 -0.1221  0.0642
86450W        W29466  19.810  10.246  24.409 -0.3095  0.2852  0.1454
86451W        W29467  12.631  32.218   7.395 -0.1533  0.3698  0.0920
86452W        W29468   3.806  27.478  25.395  0.3474 -0.1879  0.3574
86453W        W29469   9.543  20.967  20.022  0.1363 -0.3227  0.1792
86454W        W29470   9.149  24.279   3.264  0.0351  0.0817 -0.0215
86455W        W29471   4.539  28.413   9.014 -0.2042  0.0274  0.2636
86456W        W29472   5.168  17.926   4.858  0.1383 -0.0890 -0.0804
86457W        W29473  12.251  30.691   6.089 -0.1773  0.0540 -0.3938
86458W        W29474   4.627  19.595   6.707  0.0666  0.0265 -0.0349
86459W        W29475  11.521  27.846   8.832 -0.0668  0.0605  0.2057
86460W        W29476   1.321  27.124   6.509 -0.1908 -0.0710 -0.1065
86461W        W29477  30.790  30.444   8.569  0.0413 -0.0967 -0.2457
86462W        W29478   5.821  21.607   7.868  0.1146 -0.1442  0.1575
86463W        W29479  24.419   6.106   2.237 -0.0759  0.1019  0.0442
86464W        W29480   8.733  30.582   5.908 -0.2442 -0.1740 -0.1390
86465W        W29481  10.081  15.772  28.763  0.1059  0.0960  0.1270
86466W        W29482   9.849   0.455   4.328  0.0820  0.0156  0.3834
86467W        W29483  22.497  18.255   7.251  0.0533  0.0633 -0.2253
86468W        W29484   1.624  20.298   2.539  0.2719 -0.1153  0.1493
86469W        W29485  10.133  25.315   4.139  0.3831  0.0458  0.2941
86470W        W29486  27.244  24.349   7.621  0.1891 -0.0572 -0.2087
86471W        W29487   2.992  30.937   5.520 -0.1388  0.3758  0.1146
86472W        W29488   0.287  17.757   8.820 -0.3596 -0.0659  0.0424
86473W        W29489  23.371  32.230  27.052  0.4371  0.3021  0.0452
86474W        W29490  13.948  11.346  29.090  0.2541 -0.2940 -0.1459
86475W        W29491   9.285   1.339  25.906  0.1844  0.0223 -0.1149
86476W        W29492  34.135  30.728   1.342 -0.0215  0.0448 -0.1401
86477W        W29493  34.331  32.620   8.760  0.0438  0.1108  0.2156
86478W        W29494  12.047   3.689   3.448 -0.1391  0.2658  0.1436
86479W        W29495  10.180   6.886   2.852 -0.2067 -0.1772 -0.1788
86480W        W29496   6.247  29.504  21.973  0.1370 -0.1217  0.0542
86481W        W29497   6.652  16.510  14.587  0.1522 -0.1251  0.2778
86482W        W29498  10.438  11.727   6.359 -0.1947  0.1906  0.0557
86483W        W29499   2.720  22.686   2.694  0.2408  0.1130  0.0710
86484W        W29500  22.297  30.523   4.140 -0.1586 -0.3135 -0.0660
86485W        W29501   9.385  31.653   8.483  0.1756 -0.0286  0.0834
86486W        W29502  19.252  21.960  20.841  0.4022  0.1692 -0.2120
86487W        W29503   7.978  13.561   2.206 -0.0003  0.0666  0.0971
86488W        W29504  16.163  17.726   3.637 -0.1260  0.1685 -0.2992
86489W        W29505   7.090   5.231   3.485 -0.0418 -0.2404 -0.1684
86490W        W29506   7.504   0.001   6.539  0.0940 -0.4114  0.1524
86491W        W29507  10.697  24.938   8.708  0.2660 -0.0792 -0.1524
86492W        W29508   6.197  33.550   0.427  0.2805 -0.0525  0.0630
86493W        W29509  30.444   2.256   6.789 -0.2344  0.0893  0.1654
86494W        W29510  29.710  24.099   4.989  0.2612  0.1728  0.0266
86495W        W29511  11.710   6.312   4.508 -0.0844 -0.0362  0.2162
86496W        W29512   7.086  33.397  10.136 -0.0746 -0.0308  0.0850
86497W        W29513   2.953  27.291   5.555  0.0819  0.0102 -0.1363
86498W        W29514   9.889  11.237  23.879 -0.0137 -0.1873  0.0362
86499W        W29515  16.538  29.379  19.533 -0.1726  0.0784 -0.2203
86500W        W29516   2.195  33.086   3.765  0.0427 -0.3741 -0.0433
86501W        W29517   4.463  26.484   6.004  0.1446  0.1497 -0.0622
86502W        W29518  13.378  21.924   6.884  0.2286  0.3601 -0.4043
86503W        W29519  13.239  21.758   0.647  0.3267 -0.0076 -0.3399
86504W        W29520  12.656  31.517   6.136 -0.2961  0.0282  0.2417
86505W        W29521   4.913  11.985   4.897  0.5126 -0.0519 -0.1437
86506W        W29522   9.790  32.694   7.771  0.0539 -0.1799  0.1584
86507W        W29523   0.748   1.733   2.115  0.0799 -0.1382 -0.1322
86508W        W29524  26.980  31.271   6.841 -0.0389  0.0482  0.2584
86509W        W29525  13.170  20.331   8.852 -0.1819 -0.1211  0.3268
86510W        W29526  17.674   4.685   5.445 -0.1747  0.0880 -0.1415
86511W        W29527  15.699  28.547  18.795  0.0252  0.2337 -0.0134
86512W        W29528  28.900  14.771  28.701  0.2091  0.0785  0.0908
86513W        W29529  13.188   2.693   4.640 -0.0461 -0.0406  0.0824
86514W        W29530  24.617   0.941   5.606  0.0832  0.0486 -0.4222
86515W        W29531   5.046  32.867   7.731 -0.1695  0.0995  0.2552
86516W        W29532  14.793  23.888  26.469  0.1929 -0.2466  0.0212
86517W        W29533   8.505  33.598  22.492 -0.1450  0.1770 -0.5042
86518W        W29534   3.072  20.780  19.087 -0.0851 -0.1495 -0.1552
86519W        W29535   7.798  28.205   1.333  0.2176 -0.4608 -0.0767
86520W        W29536  10.831  22.926   2.970 -0.1850  0.1873  0.2608
86521W        W29537   8.084  23.017   5.896 -0.1913  0.0719 -0.0367
86522W        W29538   1.198   0.407   6.193  0.2494 -0.1321  0.0771
86523W        W29539   4.161  10.684   3.806 -0.2081  0.2256  0.0542
86524W        W29540   5.474  23.816   7.830 -0.0995  0.1508 -0.7112
86525W        W29541  20.027   5.545   3.143 -0.1368 -0.2959 -0.1381
86526W        W29542   8.296   0.157   2.365 -0.0184 -0.1101 -0.0369
86527W        W29543   7.893  26.939   8.475 -0.2863 -0.1000 -0.0009
86528W        W29544   5.004   3.277   7.189 -0.1591  0.5092 -0.3833
86529W        W29545   4.706  15.685   1.126  0.2770  0.1216  0.1195
86530W        W29546  28.536  26.887  26.094  0.1820 -0.0631 -0.1160
86531W        W29547  15.284  33.385  10.799 -0.3334  0.1082  0.1502
86532W        W29548  10.188   2.304   4.597 -0.3607 -0.0814 -0.1421
86533W        W29549   1.680  11.755  10.587  0.3593  0.2922  0.0653
86534W        W29550  12.600   6.731   4.611 -0.0352 -0.0459 -0.0902
86535W        W29551  27.813  27.700  28.911 -0.3068  0.0823  0.1258
86536W        W29552   7.768   0.604   6.096  0.1880  0.1257  0.2302
86537W        W29553  17.537  24.030   4.573 -0.0686 -0.0424 -0.3217
86538W        W29554   1.819  28.487   8.221  0.0873  0.0503 -0.1053
86539W        W29555  34.731  30.221   2.977  0.3205  0.1870  0.2862
86540W        W29556   5.871  27.326   7.696 -0.1682  0.1197 -0.0133
86541W        W29557  30.906   7.220   4.875 -0.1620 -0.1159  0.1573
86542W        W29558  15.267  29.676  28.563  0.2261  0.1067  0.1463
86543W        W29559   3.715  16.967  28.670 -0.1910  0.2404 -0.0633
86544W        W29560   8.639  31.649  27.177  0.1365 -0.2851 -0.2506
86545W        W29561  32.771   6.505  17.332 -0.0914 -0.2263 -0.0398
86546W        W29562   7.168  22.141   6.853  0.0071  0.0054 -0.0882
86547W        W29563  14.977   5.747   6.394 -0.0015 -0.4498  0.1052
86548W        W29564  15.970  14.843  27.885 -0.2151 -0.0385  0.2589
86549W        W29565  20.196   1.705   4.518 -0.4149 -0.1062  0.0724
86550W        W29566  33.447  27.906  26.196 -0.2426  0.0391  0.1625
86551W        W29567  32.740  25.658   5.579 -0.0662  0.2203 -0.0565
86552W        W29568   5.495  29.181   8.772 -0.2712  0.2380 -0.3782
86553W        W29569   9.367  31.236   5.640  0.1088  0.0747  0.0159
86554W        W29570   1.638  10.611   5.409 -0.1546 -0.0460  0.0305
86555W        W29571  33.856  32.849   6.673 -0.0616 -0.0656  0.5206
86556W        W29572  15.979   5.630   7.601 -0.1459 -0.0575  0.0492
86557W        W29573   6.378  29.148   2.918  0.3764  0.3054  0.2416
86558W        W29574   7.652  26.487   5.885  0.1436 -0.3300  0.0496
86559W        W29575  11.120   5.768   4.288  0.3215 -0.1358  0.1362
86560W        W29576  31.844   0.663  10.068 -0.1491 -0.3213 -0.2653
86561W        W29577  11.053  25.721   1.402 -0.0645  0.0884  0.2145
86562W        W29578  14.796  11.359   7.915 -0.0524  0.1645  0.3708
86563W        W29579  12.678  11.978  18.081  0.3615  0.0663  0.1390
86564W        W29580   9.143  25.214   2.950  0.2718  0.0314 -0.1816
86565W        W29581  17.592  11.304  22.871 -0.2541  0.0581  0.2535
86566W        W29582  16.621  26.326   1.224 -0.3313  0.0408 -0.0617
86567W        W29583   5.382  23.932  20.468  0.1741 -0.0774 -0.1416
86568W        W29584   2.237   6.931   9.515 -0.0847  0.1482  0.0391
86569W        W29585   6.176  33.374   7.825 -0.1123  0.3274  0.2087
86570W        W29586   5.623  23.668  27.918  0.0696 -0.1485  0.0359
86571W        W29587   6.119  24.631  26.960  0.1985  0.0039 -0.2410
86572W        W29588  16.226   3.602   6.604  0.3928 -0.0455  0.1712
86573W        W29589   8.041   4.827   8.519  0.1932 -0.2939 -0.0686
86574W        W29590   4.967  24.231  21.718 -0.0995 -0.1073 -0.0140
86575W        W29591  11.814  10.068   6.423  0.0117  0.0993  0.1832
86576W        W29592  33.781  28.763  27.234 -0.1406  0.0249 -0.1181
86577W        W29593   0.927  27.187   1.405 -0.1952 -0.2488 -0.0085
86578W        W29594   1.013  16.970  28.424  0.0592  0.0640 -0.1343
86579W        W29595   6.194  30.673   6.416 -0.0624 -0.1266  0.2923
86580W        W29596  13.498   2.055   2.167  0.0331  0.1012  0.0425
86581W        W29597  10.553   1.016   7.391  0.1677  0.3116 -0.1786
86582W        W29598   1.953   3.888   8.182 -0.2046  0.0276 -0.1779
86583W        W29599   7.642   0.433   6.698  0.3727 -0.1723  0.0407
86584W        W29600  14.134  32.273   7.566  0.1020 -0.0729  0.1470
86585W        W29601  23.986  13.774   7.297 -0.2061  0.2093 -0.1813
86586W        W29602  16.043   9.815   1.337  0.1461  0.0213 -0.0097
86587W        W29603  30.133  33.751   4.133  0.0632  0.2625 -0.0295
86588W        W29604  34.769  24.599   3.639  0.0901  0.1139  0.1521
86589W        W29605  22.799   2.559  10.726 -0.0382 -0.3156  0.0144
86590W        W29606  17.134  31.724  27.466  0.0596  0.0676  0.0719
86591W        W29607   6.963  20.003  28.727 -0.0876  0.0979 -0.0288
86592W        W29608  34.155  27.795   6.559 -0.0055  0.1189 -0.2358
86593W        W29609  33.462  23.776   5.844 -0.0968  0.0061  0.3406
86594W        W29610  32.803   2.092   0.485  0.1126 -0.1735 -0.1768
86595W        W29611  14.922  17.816  20.972  0.0776 -0.4818  0.3708
86596W        W29612  12.678  28.192   8.258 -0.2445  0.0397 -0.0056
86597W        W29613  19.764  32.331   6.285  0.3564 -0.2641 -0.0135
86598W        W29614  13.086  34.619  25.858  0.0521 -0.1275  0.0226
86599W        W29615   0.635   2.540   6.638 -0.0113 -0.2573  0.0283
86600W        W29616   3.172  32.525   3.244  0.2476 -0.0304  0.3038
86601W        W29617   7.854  32.709  24.999 -0.1704 -0.3344 -0.1605
86602W        W29618  14.218  31.393   4.547 -0.0293 -0.1081 -0.0753
86603W        W29619  12.695  26.598   1.457  0.5297 -0.0386  0.1676
86604W        W29620  23.923  25.289  27.296  0.1715 -0.0964 -0.2315
86605W        W29621  12.993  34.461   0.294 -0.1561  0.2098 -0.2304
86606W        W29622  17.611   1.934  29.170 -0.3304  0.2345  0.1097
86607W        W29623  29.817  12.402  26.433  0.1996  0.0930  0.0236
86608W        W29624  14.569  22.896   4.080  0.2134 -0.2518 -0.0848
86609W        W29625  11.788   1.150   7.868  0.0696 -0.2420 -0.1473
86610W        W29626   6.049  11.482   9.813  0.0579  0.1521 -0.0486
86611W        W29627  34.574   7.655  28.797 -0.0640 -0.1129  0.0064
86612W        W29628   1.258  28.405  24.202 -0.3594 -0.2041 -0.2725
86613W        W29629  15.654   4.422   3.604 -0.0935 -0.0281 -0.0691
86614W        W29630  13.051   5.993   0.884  0.0673 -0.2564  0.1511
86615W        W29631   9.687  34.241   4.062 -0.1212 -0.1967 -0.1494
86616W        W29632  26.016  27.851  28.946 -0.1319 -0.1680 -0.1011
86617W        W29633  21.001   0.728  10.665 -0.0994 -0.3520  0.3139
86618W        W29634  20.103  20.887   5.035  0.2424 -0.0607 -0.0747
86619W        W29635   5.852   5.355   2.794 -0.3169  0.2236  0.0294
86620W        W29636  14.859  34.496   7.257  0.2980 -0.3683  0.0847
86621W        W29637  21.394  32.748  23.731  0.1708  0.0273  0.0703
86622W        W29638  24.959   7.967   3.461  0.2383 -0.3930 -0.1018
86623W        W29639   5.700  11.319  27.341  0.1320 -0.0336 -0.1472
86624W        W29640   7.477  29.413  24.880  0.0069 -0.2068 -0.0356
86625W        W29641  25.369   0.844   3.981 -0.1579  0.0508 -0.0809
86626W        W29642  15.741  28.094   6.694 -0.1817  0.1577  0.0310
86627W        W29643  32.581  28.116  19.223  0.0802  0.0088 -0.2148
86628W        W29644   6.405  34.026   5.613  0.0455 -0.0320 -0.0186
86629W        W29645  10.395   8.771   2.210  0.0135  0.0240  0.0105
86630W        W29646   6.235  34.593   9.981  0.3917  0.0747 -0.0882
86631W        W29647   1.426   7.052   3.965 -0.1153  0.1461 -0.3855
86632W        W29648   9.873   0.762   6.761  0.3516 -0.1220 -0.1433
86633W        W29649   2.771   1.006   6.120 -0.4852 -0.0436  0.0804
86634W        W29650  18.770   0.766   8.820 -0.0647 -0.1511 -0.1983
86635W        W29651   8.520  24.199  27.587  0.0145  0.1473  0.1838
86636W        W29652   6.290   7.544   6.190 -0.0916 -0.4160  0.1121
86637W        W29653  14.798  22.336   7.842  0.0536 -0.3061  0.0700
86638W        W29654  12.101  33.814   2.965  0.2116 -0.0612 -0.1510
86639W        W29655  34.235  31.812   5.830  0.0493 -0.0551  0.1933
86640W        W29656  12.026  21.846   0.522 -0.0100  0.0777 -0.2200
86641W        W29657  34.669   1.517  25.271  0.0888  0.0277 -0.0805
86642W        W29658  18.026  18.975  27.172 -0.0568 -0.0765  0.1368
86643W        W29659  12.789  32.195   4.847 -0.0987 -0.3525  0.0154
86644W        W29660  11.043   9.731   5.968 -0.1604  0.1746 -0.1043
86645W        W29661   2.416  21.922   7.796  0.4289 -0.1358  0.1288
86646W        W29662  34.442   8.085   5.605 -0.0850 -0.1623 -0.1132
86647W        W29663   2.059  17.052  26.462  0.1243  0.1131  0.1144
86648W        W29664  24.004   2.400   8.690  0.2336 -0.2109 -0.0994
86649W        W29665  14.695   1.337  18.238 -0.0433 -0.0138 -0.0572
86650W        W29666  17.173  18.004  27.088  0.0792  0.1569  0.0000
86651W        W29667   9.676  26.770  25.465 -0.2062  0.5212 -0.1671
86652W        W29668   3.170  24.299  24.701  0.0623 -0.0924  0.3989
86653W        W29669  14.412  19.040  28.290  0.1280 -0.3184 -0.0447
86654W        W29670   0.045  25.095   8.963 -0.1826  0.1214 -0.0903
86655W        W29671  26.233   1.789   2.216  0.2505  0.1164  0.3512
86656W        W29672   3.428  32.992  10.126  0.3341 -0.0835 -0.1163
86657W        W29673   0.408   1.151   0.218 -0.0432 -0.2118  0.0315
86658W        W29674  32.506  31.033   3.387  0.1833 -0.1843 -0.4048
86659W        W29675  10.611  17.875  20.036  0.2440  0.1607 -0.1439
86660W        W29676   0.551  14.424  21.414 -0.1138  0.0827  0.1587
86661W        W29677   2.503  15.535   9.489 -0.0856  0.0231  0.0148
86662W        W29678  15.680  23.225  21.840  0.0247 -0.1234  0.1507
86663W        W29679  10.017  23.157  27.475  0.0936 -0.1943 -0.0511
86664W        W29680  31.164  12.493   0.806 -0.3154  0.2448  0.1986
86665W        W29681   1.677   4.960  27.921  0.2123  0.0441  0.1930
86666W        W29682   9.730  30.734  24.891 -0.0185  0.0532 -0.2090
86667W        W29683  22.196   6.802   6.694 -0.0295 -0.0039  0.3673
86668W        W29684  20.024  26.830   2.041  0.0369  0.0082  0.0520
86669W        W29685   9.763  22.920   8.120 -0.1272 -0.0706  0.0707
86670W        W29686  33.458   4.979  25.341  0.1663  0.1456  0.0486
86671W        W29687  19.399  17.983   8.498 -0.0287 -0.0622  0.0587
86672W        W29688  34.550   5.593   6.834 -0.2631 -0.1620  0.1277
86673W        W29689   4.099  12.003   7.238  0.0486  0.1169  0.1330
86674W        W29690   6.527  26.948  28.105  0.3021 -0.0577 -0.1063
86675W        W29691  33.466  25.921   1.690 -0.0350 -0.2902 -0.0405
86676W        W29692   9.851  20.742  24.827  0.2030 -0.2313  0.2519
86677W        W29693  13.233  32.625   9.585  0.0933 -0.2522 -0.3554
86678W        W29694  16.135   9.547  26.502  0.0686  0.1639  0.2276
86679W        W29695  16.289  23.751   3.850 -0.2315  0.0044  0.0020
86680W        W29696  13.170  26.964  29.277 -0.1601 -0.0096 -0.0292
86681W        W29697  15.315  33.704  22.825 -0.0155 -0.0218  0.1136
86682W        W29698  28.441  34.534   9.203 -0.1080  0.0027  0.2433
86683W        W29699  30.998  29.358   7.532 -0.2947 -0.0923  0.2970
86684W        W29700  22.586  20.722  24.528  0.1378  0.1973  0.1199
86685W        W29701  18.486  28.038   3.962  0.0736 -0.2225  0.1596
86686W        W29702   7.174   9.755   0.956  0.3157 -0.2525 -0.0256
86687W        W29703  17.203  14.282   0.709 -0.1308 -0.2165 -0.0764
86688W        W29704  12.717  29.270   3.207 -0.0933  0.0632  0.0904
86689W        W29705   6.983  18.794  29.091  0.2731  0.0450 -0.0895
86690W        W29706   2.849  33.613  21.642  0.0232  0.0389 -0.0784
86691W        W29707  18.889   4.317   0.216  0.0417  0.1927 -0.0718
86692W        W29708   7.641   0.274   9.137  0.0960 -0.0868 -0.2659
86693W        W29709   1.185  14.668  28.481 -0.1418  0.1636  0.0793
86694W        W29710   5.903   7.402   0.602  0.1240  0.2319 -0.0005
86695W        W29711  13.310   5.661  25.978 -0.0716  0.2361 -0.2083
86696W        W29712  21.461   3.955  16.856 -0.1215 -0.0240 -0.1582
86697W        W29713  26.226  16.654   7.522  0.1517  0.1015  0.0935
86698W        W29714  24.947  33.029  11.210  0.0390 -0.0434 -0.1923
86699W        W29715   6.071   2.059   0.367 -0.0069  0.1397  0.0570
86700W        W29716   9.078  31.116   8.224  0.1104  0.0486 -0.0662
86701W        W29717   8.799   6.930  21.219  0.0232  0.2124  0.3015
86702W        W29718   9.512  30.652  19.466 -0.2793  0.0423  0.0046
86703W        W29719  13.973  16.332  28.172 -0.1631  0.1017 -0.0740
86704W        W29720  11.937   0.010  26.876  0.3773 -0.3706 -0.1123
86705W        W29721   6.298  31.743   9.580  0.0824 -0.1775 -0.3018
86706W        W29722   7.030  21.814  15.807 -0.0169 -0.3210  0.3282
86707W        W29723  32.567  32.963  15.951 -0.0498  0.0973  0.0288
86708W        W29724  10.597   3.326  17.693  0.2995  0.2127 -0.0569
86709W        W29725   6.609   4.294  26.383 -0.3335  0.3793 -0.0726
86710W        W29726  15.026   1.739   6.574 -0.3701  0.2127 -0.0219
86711W        W29727   4.089  26.205   3.273  0.3553  0.1413  0.3281
86712W        W29728  25.840  22.210  24.825  0.0493 -0.0992 -0.1913
86713W        W29729   2.271   2.080   2.727 -0.0106 -0.0026  0.3512
86714W        W29730  13.794  12.840  24.607 -0.0688 -0.0857  0.0072
86715W        W29731  11.103  32.361   4.032  0.5501 -0.0234  0.1803
86716W        W29732   3.378  21.929  23.710 -0.0314  0.0685  0.0330
86717W        W29733  16.769  20.457   4.190  0.0551  0.0900  0.2948
86718W        W29734  32.181  10.635  23.551 -0.1878 -0.1277  0.3467
86719W        W29735   7.447   4.440   0.890 -0.0197 -0.2354 -0.3354
86720W        W29736  28.386  27.550  27.493  0.1009  0.1378 -0.2451
86721W        W29737  12.722  17.737  27.476  0.1596  0.0225  0.0969
86722W        W29738  18.813   7.885  28.387 -0.0450 -0.0379  0.0138
86723W        W29739  10.643  33.680   6.717  0.0996  0.0895  0.2136
86724W        W29740  12.795  31.130  28.700 -0.0504  0.1192  0.0828
86725W        W29741  31.996   0.970   8.995  0.3036 -0.3145  0.0747
86726W        W29742  26.595  12.141   6.258 -0.0343  0.1773  0.1165
86727W        W29743  18.618   9.566  18.407  0.0096  0.0743  0.2560
86728W        W29744   5.603   2.512  25.304 -0.1111  0.1599  0.2037
86729W        W29745   3.896  16.502  22.150  0.0357 -0.0922 -0.1842
86730W        W29746  11.923  27.961   4.906 -0.4843  0.2120  0.1023
86731W        W29747   2.444  29.605  10.288 -0.0744  0.2683  0.1272
86732W        W29748   8.506   5.382   9.711  0.0579  0.2285  0.0625
86733W        W29749  12.570  22.861  19.997  0.1400  0.2998 -0.2987
86734W        W29750  33.364  33.353  25.164  0.0714 -0.1050 -0.3943
86735W        W29751  25.727   9.725   6.574 -0.0175 -0.2611  0.0661
86736W        W29752   3.612   4.111   4.556 -0.1689  0.1396 -0.1811
86737W        W29753   2.335  25.270   5.484 -0.4514  0.1685 -0.1022
86738W        W29754  11.049   6.454   1.478 -0.1628 -0.3022  0.0750
86739W        W29755  32.475  22.183   7.822  0.0425  0.0911 -0.1640
86740W        W29756   5.563  21.770   9.067 -0.2127  0.1271  0.0161
86741W        W29757  28.242  31.756   5.076 -0.1873 -0.2994  0.0354
86742W        W29758   5.817   7.359  23.231 -0.2864  0.0622  0.1709
86743W        W29759   9.297  28.180  18.245 -0.4111  0.3442 -0.0873
86744W        W29760  18.578  11.527  28.178 -0.2980 -0.0025 -0.0358
86745W        W29761   1.811   3.654   0.047  0.0607  0.4257  0.0683
86746W        W29762   2.368   9.149  26.973  0.0313  0.2961 -0.1521
86747W        W29763   9.312  23.565  24.025  0.0066 -0.1694  0.1264
86748W        W29764  13.482   5.830   9.342  0.0212 -0.0570  0.4908
86749W        W29765   2.286  32.485   5.053  0.3205  0.0985  0.2604
86750W        W29766  14.113  31.244   3.940 -0.2088 -0.2315 -0.3900
86751W        W29767   7.542  26.073   0.126  0.1200  0.2048  0.0070
86752W        W29768   9.684   5.741   2.507 -0.0765 -0.1019  0.0724
86753W        W29769   2.367   4.308  21.012  0.1997 -0.1475  0.0765
86754W        W29770  17.758   1.789  23.342  0.1482 -0.0744 -0.1807
86755W        W29771  16.046   3.401  21.072 -0.0376  0.1171 -0.3186
86756W        W29772   8.151  25.310  17.811  0.3363  0.1196  0.0148
86757W        W29773  26.525   3.848   8.794 -0.2505  0.0487  0.1265
86758W        W29774  11.272  22.164  23.638  0.1087  0.1398 -0.0012
86759W        W29775  29.150  11.196  25.227 -0.1761  0.0838  0.1680
86760W        W29776  16.370  31.292  28.145  0.1261 -0.2133  0.0303
86761W        W29777  11.493  31.550  20.943 -0.1901 -0.2112  0.1330
86762W        W29778  18.914   2.235  27.516  0.4261 -0.1593 -0.0925
86763W        W29779   6.636   1.161  27.997  0.4067  0.0845 -0.0453
86764W        W29780  15.030  31.494  29.080  0.1913  0.0834 -0.1576
86765W        W29781  14.176   6.857  14.925  0.0256  0.0253  0.1175
86766W        W29782  12.698   0.273   0.728  0.2114 -0.0453 -0.0238
86767W        W29783   6.879  20.348   0.793 -0.0671  0.1068  0.0989
86768W        W29784   9.615   2.316  27.223 -0.0043 -0.2585  0.2797
86769W        W29785  14.100  27.160  20.191  0.0277 -0.1907  0.0028
86770W        W29786  11.079  31.975  26.230  0.0555 -0.0660 -0.1354
86771W        W29787  20.160  23.766  18.737  0.2993  0.0739  0.1674
86772W        W29788   4.259  33.296  19.972  0.1891 -0.2012 -0.2588
86773W        W29789  34.612  32.574   2.540  0.1263 -0.0691  0.2201
86774W        W29790  11.060   4.342  25.617  0.3162  0.1254  0.0681
86775W        W29791  31.527   9.996   6.427  0.1934 -0.0893 -0.0967
86776W        W29792   6.133   7.628   0.195 -0.2905 -0.0650  0.0072
86777W        W29793   2.613   6.790   2.057  0.1736  0.1461  0.4708
86778W        W29794   4.765  32.293   2.801  0.1154 -0.3565  0.0513
86779W        W29795  22.975  34.249  27.380  0.0025 -0.0404  0.1665
86780W        W29796  17.014  34.495  24.893 -0.0571  0.0957 -0.0951
86781W        W29797   5.839   7.855  17.562 -0.2738  0.0206 -0.2854
86782W        W29798  17.430   3.055   8.710 -0.0304 -0.0848 -0.2064
86783W        W29799  10.550  31.061  26.044  0.2263 -0.2462 -0.1070
86784W        W29800  12.123   7.219  23.090 -0.0795 -0.0215 -0.4444
86785W        W29801   3.201  25.026  22.478  0.1448 -0.0970  0.3251
86786W        W29802  21.588  10.946  25.352  0.0034 -0.1275  0.2191
86787W        W29803   4.215  26.980  13.605  0.1798 -0.0947 -0.0240
86788W        W29804   1.109  29.996   5.662  0.0281 -0.0748  0.0293
86789W        W29805  16.348   4.832   4.158  0.4071 -0.1760 -0.1271
86790W        W29806  33.813  24.935   1.793 -0.0701  0.3860 -0.0300
86791W        W29807   8.256  29.915   5.969  0.0914  0.3314  0.2792
86792W        W29808   5.724   1.345  29.029  0.2001 -0.0389 -0.3206
86793W        W29809  33.945  18.287  10.124  0.0575 -0.2211 -0.1504
86794W        W29810  23.950  25.388  26.791  0.0268 -0.5294  0.0888
86795W        W29811  25.693   0.561   5.187 -0.0590 -0.0570  0.0502
86796W        W29812   9.754  29.546  26.990  0.0265  0.1229  0.0512
86797W        W29813   6.965  10.368  13.618  0.4715 -0.1992 -0.1824
86798W        W29814  33.226  15.051   4.007  0.2514 -0.1014 -0.2683
86799W        W29815  33.247  32.097   4.946  0.0255 -0.3653  0.0094
86800W        W29816  14.044  32.292   8.926 -0.4479  0.0025 -0.0111
86801W        W29817   9.650  21.176   3.052  0.2158  0.3588 -0.0317
86802W        W29818  12.961  21.917  28.174  0.0120  0.0540  0.3789
86803W        W29819  20.327  33.484  15.932  0.0947  0.2093  0.0776
86804W        W29820  20.236  27.878  28.779 -0.0507  0.1737 -0.0689
86805W        W29821  34.435  31.675   8.001  0.1125  0.1185 -0.0983
86806W        W29822   8.493  24.033   6.387  0.0870 -0.1539 -0.0547
86807W        W29823  16.211  22.480  26.568  0.2931 -0.3372  0.4720
86808W        W29824  22.994   0.397   0.386  0.0726 -0.0020  0.0994
86809W        W29825   5.812  33.400  22.997  0.0169 -0.1719  0.1857
86810W        W29826   6.017   6.601   7.629  0.0084 -0.0771  0.2903
86811W        W29827   5.667   4.352  28.620 -0.2225  0.3116  0.0047
86812W        W29828  34.085   3.009  27.839 -0.3286 -0.4169 -0.2457
86813W        W29829  31.516   0.961  17.926 -0.2031  0.2254  0.2904
86814W        W29830   0.718   1.667  27.860  0.1065  0.0657 -0.1992
86815W        W29831   3.528  29.148  25.999  0.1407  0.0674 -0.0367
86816W        W29832  34.769  26.047   6.374 -0.1388  0.2275  0.0186
86817W        W29833  12.974  23.140  15.779 -0.3495  0.0403  0.3795
86818W        W29834  31.840  18.720  28.916  0.0481  0.3474 -0.0103
86819W        W29835  31.560  29.858  27.773 -0.3220  0.2647 -0.0520
86820W        W29836  34.148   3.787   1.250  0.0235 -0.3353  0.2893
86821W        W29837   6.824  21.777   2.650 -0.2177 -0.1390 -0.0384
86822W        W29838   6.406  33.475   2.149  0.0639  0.0578  0.0244
86823W        W29839  21.573   6.676   3.348 -0.0326  0.0656  0.0931
86824W        W29840  24.915  15.885   2.520  0.1199  0.0391  0.4111
86825W        W29841   7.479  31.914  17.507 -0.1120  0.0536  0.1057
86826W        W29842   8.819   9.516   3.091  0.0664  0.0147 -0.0597
86827W        W29843   2.499  23.705  18.610 -0.0747  0.0805 -0.1248
86828W        W29844  10.066  32.890   4.023  0.1194 -0.1946  0.0042
86829W        W29845  10.923  31.277  22.615 -0.0538  0.3560 -0.0927
86830W        W29846   3.140  30.063   5.537 -0.0505 -0.5437 -0.2837
86831W        W29847   3.180  15.613  22.824  0.1370 -0.1924  0.3599
86832W        W29848  17.956  22.872  18.557  0.2776  0.6821  0.0326
86833W        W29849   1.692  34.726  24.760 -0.0659 -0.1619  0.1110
86834W        W29850  30.536  19.051  20.974 -0.0682 -0.3416 -0.3779
86835W        W29851   8.500  18.234   8.395 -0.0156  0.1464 -0.0117
86836W        W29852   2.486  29.806  27.325 -0.0613  0.0552 -0.1004
86837W        W29853   9.175  24.290   0.297  0.0789 -0.0457 -0.4989
86838W        W29854   8.183   5.359   3.427  0.3094 -0.1496 -0.3406
86839W        W29855  25.983   1.644  25.937 -0.0155  0.2206  0.0360
86840W        W29856   2.237  11.736  22.007  0.0056 -0.1566 -0.2290
86841W        W29857   9.944   1.976   1.774  0.2171 -0.2340  0.2856
86842W        W29858   3.754  25.852   8.897  0.0897  0.1050  0.1158
86843W        W29859  12.202  32.492   5.086 -0.1361  0.0157  0.1757
86844W        W29860  33.962   1.465  10.646  0.2550  0.2193  0.2098
86845W        W29861   3.750   1.845   3.293 -0.2491  0.0432  0.0981
86846W        W29862   6.025  31.538   6.141  0.2417  0.2996  0.2163
86847W        W29863  34.757   1.923   8.745  0.1149 -0.2124  0.1199
86848W        W29864   4.132   3.578  24.427 -0.0057 -0.0310  0.0307
86849W        W29865  24.449   7.701   8.328 -0.0511  0.1941 -0.1646
86850W        W29866  30.412  33.292   6.510 -0.0971 -0.2233 -0.0061
86851W        W29867  15.585  34.185   5.038  0.1620  0.1507  0.0303
86852W        W29868  34.022  34.018  10.317 -0.4905  0.1358  0.0892
86853W        W29869  26.832  30.205  24.391 -0.0462 -0.0028  0.2861
86854W        W29870  22.719  25.824  17.746 -0.1176 -0.1600 -0.0738
86855W        W29871   0.561  17.773  28.859  0.0608  0.2400  0.2331
86856W        W29872   7.014  29.984  19.871  0.0413 -0.1189 -0.4175
86857W        W29873   6.010   5.071   2.344 -0.2316 -0.2990  0.1941
86858W        W29874   6.048  19.478   1.923  0.2448  0.0771  0.1956
86859W        W29875   4.682  28.263   2.653  0.2616  0.0052  0.0127
86860W        W29876  26.762   6.470  27.325  0.1193  0.1494 -0.0241
86861W        W29877  24.740   0.587  11.170 -0.1442  0.0846 -0.1918
86862W        W29878  25.293  15.870  15.261  0.2074  0.3542  0.0668
86863W        W29879  22.698  27.046   2.614  0.2266  0.0593 -0.0074
86864W        W29880  20.779  24.099  22.715 -0.1260  0.0218  0.1685
86865W        W29881   6.698  26.862   7.568 -0.4521 -0.3195 -0.0844
86866W        W29882  17.445  22.680  12.616  0.3167  0.1103  0.0023
86867W        W29883   5.510  33.757   0.058  0.1515 -0.1398 -0.3149
86868W        W29884  26.016  23.018  23.304  0.2552  0.0585  0.0441
86869W        W29885  22.224  20.196   5.189 -0.0811  0.4567 -0.1155
86870W        W29886   3.834  15.137   1.815 -0.1923 -0.0444 -0.0246
86871W        W29887  11.416   5.727  17.333 -0.0101 -0.2398  0.0313
86872W        W29888  11.903   3.820  20.161  0.2013 -0.0741 -0.1597
86873W        W29889  31.353   4.771  19.925  0.0864  0.0779 -0.2778
86874W        W29890  28.866  33.390   0.680  0.2012  0.1340  0.0005
86875W        W29891  32.647   5.308  16.561  0.3534 -0.0701  0.0265
86876W        W29892   4.517  14.736   5.200  0.0922 -0.2476 -0.0203
86877W        W29893  12.132  30.948  10.773  0.1599 -0.3039 -0.0457
86878W        W29894  14.425  32.667   2.548  0.0145  0.0784  0.0421
86879W        W29895  22.692  25.542   1.400 -0.2177 -0.1645  0.0678
86880W        W29896   8.092  15.228   5.790 -0.3450  0.0562  0.2506
86881W        W29897  13.378  18.768   6.868 -0.0281  0.1227 -0.0484
86882W        W29898  17.683  21.042  24.669  0.1388 -0.1305 -0.0008
86883W        W29899   8.909  31.613  27.643 -0.2312 -0.1864 -0.0609
86884W        W29900   5.980   3.427  18.552  0.0270 -0.0539  0.1318
86885W        W29901   5.185  23.791   3.715 -0.1459  0.0291 -0.1431
86886W        W29902  20.452  25.231   4.694  0.2372  0.1146 -0.1358
86887W        W29903  15.072   3.276   1.072  0.1423  0.0594  0.2567
86888W        W29904   4.888   7.283   3.666  0.1099  0.0276 -0.1378
86889W        W29905  32.002   1.418  18.596 -0.0673 -0.0747 -0.1212
86890W        W29906  14.773   2.915  10.682 -0.1763 -0.0755  0.4566
86891W        W29907  15.142  22.989   4.798  0.0965  0.0189 -0.0929
86892W        W29908   6.464  27.114   9.146  0.0926  0.1732 -0.0345
86893W        W29909  24.816  29.757   5.707  0.0515  0.1890  0.0878
86894W        W29910   7.500  17.056  14.014 -0.0786  0.2589  0.4205
86895W        W29911   5.999  24.636   6.228  0.2410  0.0059  0.2163
86896W        W29912   9.689  12.347  29.094 -0.4547 -0.0581  0.0854
86897W        W29913   7.049   1.674   1.487 -0.2323 -0.1381 -0.2646
86898W        W29914  14.965  17.995   7.393  0.0604  0.0781 -0.2036
86899W        W29915   3.403   1.289   4.084  0.1979  0.1764  0.3716
86900W        W29916   5.231  31.293  17.924  0.0093  0.1206 -0.3161
86901W        W29917  23.541  28.377   4.844 -0.0272 -0.0559 -0.2229
86902W        W29918  23.972   5.258   0.315 -0.1315 -0.0874 -0.1683
86903W        W29919   0.832  18.270   1.486 -0.2236 -0.3382  0.0586
86904W        W29920   5.644  10.233   5.257 -0.0750  0.2254 -0.3167
86905W        W29921   9.590   3.208   9.442 -0.2499 -0.2034  0.0437
86906W        W29922   1.253  30.121   1.496 -0.0581 -0.1346 -0.0433
86907W        W29923  11.973  13.699  26.195 -0.0473  0.1876 -0.2451
86908W        W29924   7.921  21.423   1.895  0.0533  0.0865  0.2641
86909W        W29925   4.090   5.706   8.499 -0.1137  0.2307 -0.2325
86910W        W29926  15.859   9.446   7.126  0.0385  0.3744 -0.1061
86911W        W29927  20.846  23.133   3.453  0.3090  0.0904  0.1899
86912W        W29928  26.235  30.364  27.253 -0.0752 -0.2041 -0.1271
86913W        W29929  32.950   1.585   9.638  0.0315 -0.1105  0.1198
86914W        W29930   3.038  17.974  23.357 -0.0897 -0.0238  0.0154
86915W        W29931   9.052  28.189   4.337 -0.2151 -0.1122  0.0955
86916W        W29932  23.091  15.700   7.832  0.1049  0.1085 -0.4445
86917W        W29933  16.082   0.123   0.828 -0.0244 -0.0608 -0.1667
86918W        W29934   9.854  16.633   2.948  0.0569 -0.0434  0.0635
86919W        W29935  11.781  33.920  23.106 -0.0862 -0.0228  0.1818
86920W        W29936  16.139  32.959  28.807  0.0433 -0.1651  0.3313
86921W        W29937  21.161  29.135   5.933  0.0535  0.2587  0.2856
86922W        W29938  15.752  27.702   6.366  0.2010 -0.0947  0.1680
86923W        W29939  27.755  33.962   4.627  0.2216 -0.3416 -0.0524
86924W        W29940   3.255   6.855  19.002 -0.2180  0.1225 -0.4643
86925W        W29941  20.125  25.706  28.297  0.0477 -0.3435  0.3650
86926W        W29942  34.778  28.058  19.012  0.2030  0.0476  0.1508
86927W        W29943   1.809   1.609   3.489  0.3160 -0.1462 -0.0475
86928W        W29944  32.525   2.900   0.103 -0.0526 -0.2753 -0.0492
86929W        W29945  18.915  24.356   4.782  0.3637  0.2857  0.0106
86930W        W29946  12.973  17.456  25.992  0.0774 -0.2868 -0.1241
86931W        W29947  12.507  28.673   6.984  0.1609  0.2926 -0.0686
86932W        W29948   9.366  33.571  24.533  0.1703  0.0129  0.0069
86933W        W29949  33.095  12.822   5.870 -0.0749 -0.0113 -0.1017
86934W        W29950  21.457  22.037  20.932 -0.2200  0.1398  0.4429
86935W        W29951  10.428   6.831   9.931  0.1114 -0.0029 -0.1416
86936W        W29952  22.725  22.679   7.308  0.0275 -0.0475 -0.2472
86937W        W29953   9.143  13.288  28.763 -0.0693  0.1409 -0.0385
86938W        W29954  17.549  29.165   9.097 -0.1056  0.1192  0.2690
86939W        W29955   9.287   2.676   1.333 -0.1194 -0.0688 -0.1348
86940W        W29956  28.311   8.604   7.991 -0.0220 -0.1060 -0.0857
86941W        W29957  24.738  22.475   0.344  0.0783  0.0523  0.0553
86942W        W29958  10.620  31.698   8.571  0.4024 -0.0289  0.1485
86943W        W29959   5.518  21.935  28.656  0.1988  0.0392  0.0870
86944W        W29960   6.243  22.408  26.174 -0.0677  0.1397 -0.2121
86945W        W29961  14.326   4.300   5.299 -0.5251  0.0395 -0.2165
86946W        W29962  24.421  17.830   3.207 -0.1141  0.0530 -0.2061
86947W        W29963  16.648   1.488   8.785 -0.1467 -0.1270  0.0216
86948W        W29964  10.113  26.779   0.725 -0.0960 -0.0586  0.0430
86949W        W29965  14.898  22.985  24.017 -0.0405  0.1112  0.3042
86950W        W29966   3.832   0.082  25.561  0.1235  0.0045  0.1227
86951W        W29967  29.141  28.155   3.733 -0.1163  0.0081 -0.1800
86952W        W29968   6.996   9.545  28.766  0.1050  0.1757  0.1718
86953W        W29969  23.474  24.127   9.238 -0.0524 -0.2925 -0.0910
86954W        W29970   0.988   2.009   0.467 -0.1968 -0.0433  0.1659
86955W        W29971  34.177  24.030   9.227 -0.0979  0.0814  0.2021
86956W        W29972  32.170  17.565   5.705 -0.4693 -0.2076 -0.1378
86957W        W29973  10.373   4.275   8.268  0.0229 -0.1290 -0.1963
86958W        W29974  23.121  33.503   3.255 -0.0476 -0.2436  0.0702
86959W        W29975   8.630  32.198   3.637  0.0101  0.2491  0.0810
86960W        W29976  33.247  20.762   6.655 -0.1691 -0.0382 -0.0457
86961W        W29977   3.907   1.107  28.290  0.1753  0.1715  0.1491
86962W        W29978  27.406  20.924   5.150  0.1066  0.0676 -0.0079
86963W        W29979   8.407  34.636   6.309 -0.2499 -0.2869 -0.0053
86964W        W29980   2.110  13.076  29.123 -0.3638  0.0545  0.2861
86965W        W29981   4.459   6.661   8.858  0.4181 -0.0313  0.1679
86966W        W29982  15.159  24.968   2.652  0.0380 -0.0761  0.1727
86967W        W29983  29.265   0.626   9.190  0.0958  0.1824  0.1593
86968W        W29984   0.047   6.332   8.559  0.0468 -0.1341 -0.2221
86969W        W29985   6.148   2.771   7.829 -0.3878  0.2213  0.0295
86970W        W29986  13.485  19.519   1.691 -0.0943 -0.0141 -0.0482
86971W        W29987  27.858  26.310   6.440 -0.1299 -0.1119 -0.1149
86972W        W29988   4.053   3.654  28.733  0.0187  0.1566 -0.0870
86973W        W29989  13.041  30.683   7.618  0.0421 -0.0339 -0.3113
86974W        W29990  12.606  18.844  26.072 -0.2427  0.2991 -0.4402
86975W        W29991  28.808  27.162   2.498  0.0201  0.2897 -0.1803
86976W        W29992  12.740   7.763   1.728 -0.1157 -0.1214 -0.3086
86977W        W29993  10.314  30.140   8.961 -0.1219  0.0527  0.1085
86978W        W29994  25.393  27.131   9.959  0.2147  0.0810  0.0141
86979W        W29995  20.161   2.654   1.488  0.0522  0.1554  0.1954
86980W        W29996  21.934  26.774   8.236 -0.1797 -0.0076  0.0375
86981W        W29997   8.248  34.758   0.264 -0.0008 -0.1398  0.1208
86982W        W29998  12.284  12.320   5.205  0.0768 -0.0585 -0.2859
86983W        W29999   1.231  27.351  10.118  0.0387  0.1472 -0.0668
86984W        W30000   2.242   5.685   7.699  0.3478 -0.2063 -0.1051
86985W        W30001   0.145  13.085  19.307  0.2627  0.4160  0.0574
86986W        W30002   7.375  22.574  24.020 -0.1746 -0.1144 -0.1568
86987W        W30003  18.538  33.443   6.322  0.1980  0.0910 -0.0739
86988W        W30004  30.341  33.636   2.727 -0.0821  0.1607  0.0344
86989W        W30005   9.501  16.917   5.851 -0.1368  0.0428 -0.0440
86990W        W30006  34.355  30.494  29.287  0.2195 -0.1743  0.0127
86991W        W30007  32.712   5.343  10.374 -0.0692 -0.2139 -0.0898
86992W        W30008  18.243  24.789   8.105  0.1222 -0.3025 -0.2945
86993W        W30009  16.239   4.373  27.332  0.3806  0.0541 -0.2465
86994W        W30010   6.124  12.001   3.020  0.1210  0.0295 -0.2616
86995W        W30011  16.269  25.268   5.225  0.0127  0.1495 -0.0397
86996W        W30012   3.751  23.716   7.448 -0.0022 -0.0855 -0.0603
86997W        W30013  26.331  11.936  20.992 -0.2021 -0.1877 -0.0262
86998W        W30014  34.373  10.271  26.137 -0.1077  0.1495  0.0141
86999W        W30015  15.949  34.750  27.299 -0.0522 -0.0167 -0.2339
87000W        W30016  29.057  19.154  27.128 -0.1217 -0.0201  0.1616
87001W        W30017  11.083  10.730   1.452  0.2269 -0.0232 -0.0107
87002W        W30018  24.239  34.714  11.786 -0.0524 -0.1756  0.0650
87003W        W30019   8.282  29.912  27.454 -0.0881  0.2488  0.0728
87004W        W30020   5.363   6.628  28.674 -0.0217 -0.1259  0.2207
87005W        W30021   9.691   8.380   8.225 -0.1205 -0.2642 -0.1186
87006W        W30022  32.973  25.752  10.374  0.2813 -0.1240  0.0866
87007W        W30023   4.719   3.578   6.696 -0.0179 -0.0860  0.0006
87008W        W30024  13.326  32.614  23.030  0.1169  0.0755  0.0024
87009W        W30025   2.799   2.415   3.252 -0.1520 -0.0353  0.0677
87010W        W30026  23.805   9.157   2.107 -0.2864 -0.0759 -0.1087
87011W        W30027   6.295  32.841  24.977  0.1221  0.2567 -0.1251
87012W        W30028  19.343  28.820  28.255 -0.1085 -0.1200  0.0746
87013W        W30029  15.871   3.918  19.540 -0.0023  0.2696  0.1367
87014W        W30030   9.054   3.146   9.682 -0.0674  0.0283  0.1158
87015W        W30031   5.805  33.383  27.251 -0.1948  0.2218 -0.0761
87016W        W30032  27.605   5.387   7.400 -0.1542  0.2003  0.1906
87017W        W30033  16.458  13.139   4.702 -0.0156  0.0865  0.0760
87018W        W30034  10.649  32.231  23.851  0.1230 -0.0468  0.0288
87019W        W30035   0.446   2.034   8.609 -0.3613 -0.2192 -0.1429
87020W        W30036  14.859  15.085  19.464  0.0271  0.2312 -0.1961
87021W        W30037   2.530  12.763   1.496 -0.0905 -0.0187 -0.1562
87022W        W30038   2.860   6.134   3.041  0.2711 -0.3215 -0.0217
87023W        W30039  10.605  31.495   6.704  0.0124  0.0500  0.0215
87024W        W30040   0.132  24.621   2.622  0.1340  0.1084  0.2427
87025W        W30041  12.952  25.922  26.067  0.1384  0.1241 -0.1792
87026W        W30042   7.170  12.296   1.603  0.0519  0.0019  0.2438
87027W        W30043  28.985  13.162  27.216  0.3369  0.1300  0.0238
87028W        W30044  16.943   6.691   4.866 -0.1899 -0.0943  0.0394
87029W        W30045  19.049  19.148  27.402 -0.0395  0.0303 -0.2657
87030W        W30046  21.196  25.688  19.077 -0.0623  0.1898  0.2280
87031W        W30047  17.828  27.501   5.357  0.2688  0.1288  0.0621
87032W        W30048  13.157   6.928  25.755  0.0969  0.1546  0.0871
87033W        W30049  29.995   2.911  26.762  0.0147 -0.1587 -0.3418
87034W        W30050  28.130   1.791   2.894  0.1939  0.0977  0.4059
87035W        W30051  14.967   3.496   7.231  0.0670  0.1473 -0.0557
87036W        W30052   1.060  34.096  19.396  0.0752  0.1035  0.2926
87037W        W30053   8.107  25.367  28.342 -0.0965 -0.2604  0.1486
87038W        W30054   1.960   6.317   9.068 -0.1474 -0.2016 -0.1514
87039W        W30055  16.508  12.798   1.019 -0.0704  0.0821 -0.2124
87040W        W30056  33.849  19.706   6.182  0.0929  0.3266 -0.0873
87041W        W30057  28.992  32.794   8.271  0.0298  0.1725 -0.0557
87042W        W30058  20.631  20.552  24.948  0.3673 -0.0019  0.3469
87043W        W30059   7.498  33.608   8.236 -0.4076  0.2490 -0.3382
87044W        W30060  29.161  24.508  11.474  0.0161 -0.1941  0.0168
87045W        W30061   8.430  33.452   3.245  0.0038  0.2466  0.0458
87046W        W30062  24.382  30.352  10.738  0.2760 -0.0105  0.4383
87047W        W30063  29.121  10.703  16.061 -0.1026 -0.0591 -0.0932
87048W        W30064   3.758   0.595  16.856 -0.0292  0.0723  0.1419
87049W        W30065  31.822  19.862  18.658 -0.3644  0.0309 -0.2018
87050W        W30066  22.680  28.939   8.026  0.0588  0.0702 -0.1052
87051W        W30067   5.847  28.199   1.450  0.0142 -0.0215  0.3541
87052W        W30068   1.915   9.237  22.376  0.2725  0.4206 -0.0516
87053W        W30069   2.965  12.084  23.695 -0.0857 -0.1123 -0.2269
87054W        W30070   2.178   5.889   9.158  0.0552 -0.3770 -0.3251
87055W        W30071   9.287   6.363  28.006  0.0206 -0.2584  0.0416
87056W        W30072  14.391  21.587   6.009 -0.0400 -0.1073 -0.0569
87057W        W30073  14.664  22.366  29.047  0.0374  0.0524 -0.0944
87058W        W30074  14.061   2.917   6.430 -0.2197 -0.2343 -0.1372
87059W        W30075   0.708  14.298   6.875  0.2942 -0.0847 -0.0231
87060W        W30076  33.059   1.497   7.844 -0.1446  0.0537 -0.1605
87061W        W30077  11.321   4.227  18.989 -0.1780 -0.0918  0.0622
87062W        W30078  34.523  11.148  17.022  0.0712  0.1947 -0.2448
87063W        W30079  12.032  20.123  28.648  0.1578  0.0770  0.1886
87064W        W30080   2.572  17.997   4.224 -0.3071  0.0155 -0.0410
87065W        W30081  25.517   3.724   8.894 -0.0131  0.1685  0.1457
87066W        W30082   7.818   5.074  22.749  0.0270 -0.1523  0.0765
87067W        W30083   6.379   6.269   5.827  0.5086 -0.0759  0.2570
87068W        W30084  33.486  30.556  26.144  0.1524  0.0939  0.0677
87069W        W30085  12.953  23.956  18.214 -0.1451  0.0161 -0.1088
87070W        W30086   6.678  25.132  24.037  0.0527  0.2088  0.3411
87071W        W30087  17.640   8.593   5.966 -0.1741 -0.3376 -0.1400
87072W        W30088   6.167   0.845  10.170  0.0053 -0.1133  0.5209
87073W        W30089  27.053   6.089   8.722 -0.2327 -0.0171 -0.2892
87074W        W30090   6.375  31.110  28.832  0.0161  0.1200  0.3040
87075W        W30091   9.499   7.082   0.602  0.1711  0.0677  0.1943
87076W        W30092  33.978   3.954  10.000 -0.0532  0.0971 -0.0702
87077W        W30093  14.719  10.443  27.251  0.0333 -0.2097 -0.1874
87078W        W30094  12.195  33.489   5.824  0.0274  0.4122  0.2114
87079W        W30095  21.049   0.928  18.619 -0.2690 -0.2403  0.0192
87080W        W30096   6.563  28.788  17.341  0.0254 -0.0106  0.4104
87081W        W30097   6.379  10.344   0.708  0.2244  0.0115 -0.1698
87082W        W30098  23.282  32.027   1.863 -0.0176  0.0074 -0.0784
87083W        W30099   5.288  19.509   0.524 -0.2334 -0.2268  0.1087
87084W        W30100  26.064  27.112  10.432 -0.1416 -0.1379  0.4702
87085W        W30101  18.226   5.537  15.116  0.1214  0.3125 -0.0707
87086W        W30102   0.814  22.206   7.165 -0.1825 -0.1799 -0.1596
87087W        W30103  18.691  12.646   0.188 -0.0505 -0.3413 -0.0347
87088W        W30104   8.081  32.953   7.418 -0.0899  0.3286 -0.1964
87089W        W30105   3.578  29.273   9.230  0.1725  0.0403  0.1510
87090W        W30106  18.651  17.877  26.858  0.0263 -0.0091  0.2483
87091W        W30107   5.470  16.438  25.025  0.1247 -0.2162 -0.1311
87092W        W30108  21.641  26.199   2.769 -0.0453  0.0987  0.2593
87093W        W30109  29.286  33.235   2.944 -0.2055 -0.1020  0.0444
87094W        W30110   2.462  24.903   8.544  0.1363  0.2494  0.2253
87095W        W30111   3.997   0.282   7.475  0.2027 -0.1799  0.2619
87096W        W30112   9.406  25.454   8.373 -0.1482 -0.1325 -0.6818
87097W        W30113  10.329  22.027   2.928 -0.0040  0.1630 -0.1859
87098W        W30114  23.655   5.345   7.724  0.2163  0.0629 -0.1855
87099W        W30115   4.545  31.931   1.881  0.2057  0.0105  0.3496
87100W        W30116  24.366   0.473   5.790  0.0886  0.2531 -0.1181
87101W        W30117   1.574  33.060   6.810  0.2533 -0.0614  0.0207
87102W        W30118   3.428   6.081   5.579  0.0712 -0.1393 -0.1694
87103W        W30119  25.619  16.936  21.857  0.0181  0.0434  0.2626
87104W        W30120  31.976  30.679  28.901 -0.0636 -0.0377  0.0795
87105W        W30121   4.772  13.215   3.367 -0.0405 -0.1641  0.0944
87106W        W30122  24.945  27.004   1.331  0.1200  0.2308  0.3318
87107W        W30123  11.079  14.223   1.492  0.1404 -0.2393  0.0242
87108W        W30124  33.721  10.444   7.302 -0.1766  0.0852 -0.1036
87109W        W30125  12.229   6.213   0.507 -0.0545 -0.0543 -0.0661
87110W        W30126   6.634   2.516   1.872 -0.0384 -0.2275  0.0098
87111W        W30127   0.970  32.118   7.926 -0.1467  0.1559  0.3070
87112W        W30128  17.484  21.063  27.731  0.0506 -0.1073 -0.3314
87113W        W30129   8.870   0.061   6.519 -0.0001  0.0880 -0.0370
87114W        W30130   3.116  13.901   2.158 -0.0506  0.0136 -0.0300
87115W        W30131   9.512  20.837   8.479  0.5222  0.0504 -0.2671
87116W        W30132   4.879   0.008  24.795 -0.0448 -0.0203 -0.4332
87117W        W30133   6.979   0.567   2.661 -0.0810 -0.0551 -0.1758
87118W        W30134   9.204   9.178   5.072 -0.1864 -0.2484 -0.0903
87119W        W30135  13.069  11.061  25.526  0.4026 -0.1113  0.0719
87120W        W30136  29.706  34.095   9.442 -0.1627  0.0463  0.1027
87121W        W30137   4.200  10.938  20.562 -0.1202 -0.1302  0.1078
87122W        W30138  14.669  33.114   0.018 -0.0907  0.2793 -0.0967
87123W        W30139  27.057   3.914  28.930 -0.1383  0.0510 -0.3906
87124W        W30140  12.412  11.069  27.562  0.0005 -0.0612 -0.1256
87125W        W30141   9.289   3.926   4.598 -0.1621 -0.0200 -0.5588
87126W        W30142   4.171  12.591   2.990  0.1701 -0.0284 -0.3024
87127W        W30143   8.530   7.095   7.612 -0.0873 -0.0529  0.1839
87128W        W30144   3.668  13.440   3.711 -0.3015 -0.1802 -0.0621
87129W        W30145   9.546  20.308  28.091  0.2682 -0.0549  0.1962
87130W        W30146   6.465  15.371   3.632  0.0387  0.1056 -0.4166
87131W        W30147   4.649  23.144   8.557 -0.1292  0.0510  0.0386
87132W        W30148   2.477   9.761   6.278 -0.0499  0.0477 -0.0530
87133W        W30149   8.441   8.687   8.474  0.1711 -0.1097  0.1037
87134W        W30150  30.042  18.526  10.193  0.1292  0.2737 -0.0570
87135W        W30151  17.746   1.740  25.598  0.1362  0.0586  0.0900
87136W        W30152   9.322  29.469   5.513 -0.1486 -0.1355  0.0323
87137W        W30153  25.629  26.563   7.771 -0.3113 -0.3015 -0.0257
87138W        W30154  16.578   7.255   7.746 -0.3342 -0.0822  0.0088
87139W        W30155   2.093  26.200  25.381 -0.1003 -0.3424  0.2641
87140W        W30156   0.282  26.536   7.190 -0.0605 -0.1936  0.0431
87141W        W30157   6.643   0.779   9.282 -0.0682 -0.0626  0.4810
87142W        W30158  11.079   4.761   8.685  0.2567 -0.2442  0.1097
87143W        W30159  15.150   3.375   5.872  0.4350 -0.1101 -0.0055
87144W        W30160   7.936  10.868  28.367  0.2494  0.2107 -0.0048
87145W        W30161  30.933   5.442   0.019 -0.0713 -0.0256  0.5683
87146W        W30162  25.944  27.845   1.560 -0.0000  0.0500 -0.2300
87147W        W30163  25.559  32.705   9.147  0.1417 -0.3556  0.3596
87148W        W30164  24.732  20.423   0.223 -0.2391 -0.2762 -0.2685
87149W        W30165  12.037  28.867  24.732 -0.1914 -0.3822 -0.1556
87150W        W30166   1.840  11.845   6.192  0.3493 -0.2757  0.0670
87151W        W30167  20.528  30.858  26.553  0.0142  0.2341  0.0969
87152W        W30168  16.439   6.204  26.247  0.1024 -0.2177  0.0560
87153W        W30169   4.820   7.609   0.629 -0.1060  0.1136  0.0241
87154W        W30170   5.123  26.772   7.662  0.3209 -0.7099  0.0357
87155W        W30171  28.576   0.679  29.003 -0.2311  0.0342 -0.0078
87156W        W30172  32.608  15.590  27.486  0.0827  0.4069 -0.2920
87157W        W30173  34.347   1.782   1.822  0.1796 -0.1694 -0.3282
87158W        W30174  33.761  27.329   7.693 -0.0239 -0.0016 -0.1466
87159W        W30175  29.070   1.420   1.770  0.0368  0.2111  0.3690
87160W        W30176  11.369  20.321   6.604 -0.0049  0.1237 -0.4747
87161W        W30177  30.167   7.698  27.594  0.0886 -0.0838 -0.2460
87162W        W30178   7.621  10.828   8.739 -0.2089  0.0015  0.0117
87163W        W30179  31.566   0.200  25.086  0.1328 -0.1285 -0.1038
87164W        W30180   6.477  15.417  27.123  0.2354 -0.0034  0.0277
87165W        W30181   9.981  29.286   2.687  0.0473 -0.2572 -0.1778
87166W        W30182  12.950   7.046  28.492 -0.1044 -0.0097  0.2413
87167W        W30183  11.548   3.188   0.055  0.1903  0.0746 -0.1870
87168W        W30184   9.374  31.408  25.435 -0.1431  0.0270  0.0403
87169W        W30185  14.284   8.966  26.202  0.0603  0.1592  0.1956
87170W        W30186   5.360  11.399   7.447  0.1443  0.0394  0.2375
87171W        W30187  13.103   2.313  28.314  0.1514  0.0007  0.2615
87172W        W30188  18.997   5.719  24.252 -0.2056 -0.3358  0.2901
87173W        W30189   8.548  32.653   8.277  0.0295  0.0582  0.0365
87174W        W30190   5.083   4.875   2.185  0.0221 -0.2736 -0.0497
87175W        W30191   6.128  31.063   8.953  0.0642  0.1997  0.3136
87176W        W30192  27.411  21.954  28.828  0.1782  0.0520 -0.2620
87177W        W30193   9.427  34.508   1.754  0.2866 -0.2244  0.1137
87178W        W30194  29.339   1.883   5.252  0.1611 -0.0010 -0.1902
87179W        W30195   7.604   1.178   8.431 -0.2649 -0.4059 -0.2100
87180W        W30196   3.717  30.465   7.894 -0.2169 -0.0860 -0.1240
87181W        W30197  12.073   8.964   3.416  0.1298  0.1838 -0.4487
87182W        W30198   0.630  20.974   8.356  0.1145  0.2781  0.2910
87183W        W30199   6.166   3.522  24.838 -0.0967 -0.1347 -0.1351
87184W        W30200  30.445  16.844   9.984  0.0253 -0.5338 -0.2751
87185W        W30201  19.095   4.534   8.493  0.2841 -0.0214 -0.1168
87186W        W30202  13.724  30.273   7.662  0.0695 -0.0357  0.1295
87187W        W30203  12.321   7.428   1.762 -0.1188 -0.2282  0.0648
87188W        W30204  11.942   4.712   7.711 -0.0306  0.2718  0.1941
87189W        W30205   7.067   9.070  28.908 -0.0655 -0.1459  0.1379
87190W        W30206  17.714   6.586   7.323 -0.0313  0.1517  0.0823
87191W        W30207  13.288  17.028   6.474  0.0680 -0.0433  0.1994
87192W        W30208  16.532  28.700   9.923  0.2774 -0.2098  0.2386
87193W        W30209  18.896  25.888  16.306 -0.0465 -0.0636 -0.2050
87194W        W30210  29.795   9.600  23.950  0.1264 -0.2135 -0.0053
87195W        W30211   6.234  13.755   7.946 -0.1231  0.2563  0.1525
87196W        W30212   2.947  30.687   9.098 -0.0384 -0.1405  0.0703
87197W        W30213   8.562  14.976   5.810 -0.1107 -0.0643 -0.4483
87198W        W30214  11.310  29.703  20.721 -0.5233  0.0138 -0.0007
87199W        W30215   8.498  11.201   0.683 -0.0808 -0.0254  0.3073
87200W        W30216   5.889  30.793   7.497  0.1256 -0.0343 -0.4229
87201W        W30217  23.375  16.391  12.861  0.1827 -0.1088  0.0770
87202W        W30218  14.202  21.597  21.828 -0.2740 -0.2168  0.0446
87203W        W30219   4.736   2.798   9.909 -0.2119  0.3453 -0.2351
87204W        W30220   6.196  14.692   5.303 -0.2559  0.0243 -0.1516
87205W        W30221   0.502  22.361   8.073 -0.0586 -0.0347  0.1842
87206W        W30222  16.195  31.695  10.831  0.1026 -0.0866 -0.0057
87207W        W30223  24.501  10.490  24.137  0.1320  0.1123 -0.2087
87208W        W30224  14.205  31.000   9.431 -0.0991 -0.2625  0.2063
87209W        W30225   4.786   5.997   8.190  0.0669 -0.0189 -0.0165
87210W        W30226  26.648  18.421   1.841  0.0475  0.2111  0.0365
87211W        W30227  18.041  18.920  24.468 -0.0543  0.0014 -0.1118
87212W        W30228   0.697  26.469   9.641  0.0052  0.0860 -0.1442
87213W        W30229  29.655  24.754  27.469  0.2482  0.1098 -0.0260
87214W        W30230  14.660  32.600   8.322 -0.0310 -0.1716  0.1692
87215W        W30231   6.020  24.173  23.433  0.0181  0.0921  0.1681
87216W        W30232  31.420   0.793   3.144  0.0889 -0.0002 -0.0935
87217W        W30233  24.363  28.294   9.594  0.2503  0.3366 -0.1515
87218W        W30234  12.741  12.665  29.062  0.0550  0.0713 -0.0618
87219W        W30235  31.704  14.342   1.637 -0.0252 -0.0557  0.0587
87220W        W30236  17.256  22.431   4.442 -0.3968 -0.0521  0.0580
87221W        W30237   0.334  11.464   3.661 -0.1296 -0.0384  0.0298
87222W        W30238  18.383  27.962  24.054  0.0751  0.2613  0.0058
87223W        W30239   0.989  31.438   4.398 -0.1004 -0.0636 -0.1519
87224W        W30240   0.599  15.028  22.733 -0.3404 -0.0666  0.1900
87225W        W30241   1.969   1.442   6.894 -0.0369 -0.4497 -0.2036
87226W        W30242  33.488  14.581   7.732 -0.0697 -0.1103  0.2235
87227W        W30243  18.117  13.783   0.345  0.0186 -0.1309  0.0256
87228W        W30244  29.800  34.514   9.189 -0.0623 -0.1583 -0.0795
87229W        W30245   9.106  26.430   8.454 -0.1775  0.4264 -0.4172
87230W        W30246  11.644  10.454   9.607 -0.1206  0.2555 -0.2521
87231W        W30247  33.161   9.587   1.222  0.0211  0.3395  0.0317
87232W        W30248  15.626  15.476  19.959 -0.4165  0.0831 -0.3761
87233W        W30249  16.224  25.357   0.094 -0.0292  0.0520 -0.1786
87234W        W30250   6.800  32.527  15.975 -0.0660  0.0295  0.0853
87235W        W30251  11.677  23.924   6.433 -0.4169  0.4343  0.2428
87236W        W30252  10.361  22.213   0.730  0.1326 -0.0290 -0.1877
87237W        W30253   9.837  28.197   4.959 -0.1575 -0.0608  0.0039
87238W        W30254  27.549  17.702   4.037  0.1362 -0.2186 -0.2946
87239W        W30255  12.291   7.993  29.227 -0.1416  0.0594 -0.0931
87240W        W30256   0.311  32.679   3.402 -0.1334 -0.0929  0.0558
87241W        W30257  23.172   3.705   6.358  0.1057  0.0704 -0.1011
87242W        W30258  12.234  13.298   7.410  0.0984  0.0384  0.1961
87243W        W30259   9.130   4.658  27.325 -0.1501  0.0357  0.0798
87244W        W30260  11.761   6.421   8.338  0.0120 -0.0962 -0.1877
87245W        W30261   4.367   3.551  29.091  0.3176  0.0174  0.0857
87246W        W30262   6.810   1.039  26.457 -0.3314  0.1893  0.3244
87247W        W30263   6.463   6.002  10.815 -0.0375 -0.0480 -0.2231
87248W        W30264  24.905   3.553   1.821 -0.2093  0.1362 -0.1878
87249W        W30265  13.581  24.353   6.705 -0.1162 -0.4358 -0.1064
87250W        W30266  14.673  30.306   4.756  0.1336  0.0028 -0.0213
87251W        W30267  16.124  30.477   3.059  0.0291  0.0658  0.1659
87252W        W30268   1.031  28.819   8.320  0.1375 -0.4253 -0.1016
87253W        W30269  11.007  11.536  24.103 -0.1383  0.0087  0.2526
87254W        W30270  11.651  20.653  26.947 -0.0511  0.1944  0.1628
87255W        W30271   7.272  31.030   9.733  0.0643  0.0221 -0.4940
87256W        W30272  33.144  31.120   5.195  0.0197 -0.3844 -0.0204
87257W        W30273   6.408  19.661  27.349  0.1000 -0.0200  0.1213
87258W        W30274  14.022   3.522   8.513  0.1372 -0.3269 -0.5242
87259W        W30275   7.429  32.896  23.565  0.0960  0.3698 -0.2544
87260W        W30276  15.405  34.483  27.062  0.0868  0.0172 -0.1126
87261W        W30277  18.362   7.221   5.628  0.0603 -0.0663  0.5169
87262W        W30278   5.523  10.671   4.813 -0.1016  0.1080  0.0324
87263W        W30279   9.196  28.965   2.262  0.0239 -0.3211 -0.2259
87264W        W30280  20.046   7.024  28.695  0.2462  0.1489 -0.3969
87265W        W30281  10.446  15.568  24.735 -0.4898 -0.0026  0.2340
87266W        W30282  12.746  32.591   0.205  0.1024  0.0114 -0.0352
87267W        W30283   9.924  29.868  28.225 -0.4082  0.1813 -0.0306
87268W        W30284  30.962   4.475   7.230 -0.1249  0.1356  0.0663
87269W        W30285   9.535  26.785  23.170  0.0220 -0.1094  0.3300
87270W        W30286   1.490  23.109  10.260 -0.0112  0.1155 -0.2523
87271W        W30287  20.864  23.474   8.960  0.1383 -0.0730  0.0502
87272W        W30288  13.647  22.079   3.803 -0.0255  0.0448 -0.0839
87273W        W30289  14.171  30.425   6.116 -0.3194  0.1302  0.1998
87274W        W30290  26.882  19.169  28.952  0.2156 -0.1107  0.1623
87275W        W30291  13.423  23.500   0.310 -0.3193  0.3812 -0.4382
87276W        W30292  11.765  20.369   3.462 -0.3175 -0.0366 -0.5541
87277W        W30293   9.578  20.740   4.317  0.0721  0.0562 -0.4646
87278W        W30294   9.708  30.738   4.118  0.0194  0.0663  0.1583
87279W        W30295  26.022   4.684   4.786  0.2103 -0.0091 -0.0688
87280W        W30296  29.733  11.954   1.250 -0.0020 -0.0864 -0.0979
87281W        W30297   6.164   2.866  21.850  0.0136  0.1929 -0.2119
87282W        W30298  12.911  29.147   7.861 -0.1430 -0.1715  0.0345
87283W        W30299   7.724  25.743   1.461 -0.1950 -0.2083 -0.2037
87284W        W30300  23.582  23.647   4.896 -0.3042 -0.0674 -0.1624
87285W        W30301   8.449  10.718   7.196  0.0439  0.1860  0.1591
87286W        W30302   5.322   5.567   2.863  0.0651  0.1237  0.0521
87287W        W30303  16.438  26.345  15.816  0.3184  0.0595 -0.1334
87288W        W30304  25.967  18.100   7.602  0.1483 -0.3244 -0.3883
87289W        W30305  23.017  19.417  16.320 -0.1998  0.1321  0.1703
87290W        W30306  21.857   9.495  24.406 -0.1246  0.0919 -0.2982
87291W        W30307   4.812   6.381  20.641  0.1399  0.0475  0.2450
87292W        W30308   9.006   2.988  25.253 -0.3931 -0.0727  0.1200
87293W        W30309   6.481  34.668   0.376 -0.2440  0.1369 -0.0374
87294W        W30310  20.655  13.144  17.871  0.0035  0.0801  0.0470
87295W        W30311   1.193  26.447  21.309  0.1647 -0.2170 -0.0473
87296W        W30312  27.676  33.035   3.261 -0.2580 -0.1011 -0.0993
87297W        W30313  22.243  17.456   1.160 -0.0465  0.1547 -0.0511
87298W        W30314  21.129  23.266   0.115 -0.0358  0.0972  0.0472
87299W        W30315   9.806  32.801   9.161  0.2756 -0.2239  0.0253
87300W        W30316  13.471  30.627  20.236 -0.2028  0.3707  0.2299
87301W        W30317  11.943  25.478   6.781  0.0226  0.0311 -0.1362
87302W        W30318   1.526  26.504  28.101 -0.0822 -0.1323 -0.0720
87303W        W30319  27.340   5.126   0.108 -0.0793  0.0766 -0.2532
87304W        W30320   4.400  29.503  28.996  0.0049  0.1114 -0.2416
87305W        W30321  13.850  30.915   8.076  0.1047  0.1344 -0.2602
87306W        W30322  21.997  28.022   5.435  0.3119  0.0145 -0.0302
87307W        W30323  21.231  32.685  19.058 -0.2013  0.3276  0.2563
87308W        W30324  10.273   0.774   5.898 -0.2217 -0.0329  0.1906
87309W        W30325   8.827   1.295   3.783  0.0606 -0.2140  0.1946
87310W        W30326   7.688   3.010   3.680  0.0098 -0.0114  0.0006
87311W        W30327   8.650  24.446   3.186  0.1998  0.1550 -0.1203
87312W        W30328   9.001  19.329   4.467  0.0580 -0.0363  0.1094
87313W        W30329   7.336   7.279   3.035  0.1045  0.0120 -0.1256
87314W        W30330  11.738  32.759   8.391 -0.0915 -0.2240 -0.1679
87315W        W30331  15.133  13.789  28.379 -0.3181 -0.1335  0.3118
87316W        W30332   4.579   5.626   2.283  0.0510  0.2019 -0.3969
87317W        W30333   4.207   1.661   9.881 -0.2677  0.0473 -0.1581
87318W        W30334  12.216  22.630   8.194  0.0498  0.1626  0.0479
87319W        W30335  22.684   5.378  18.746  0.2213  0.1959 -0.1466
87320W        W30336  21.527  10.578   7.179  0.0879 -0.1592 -0.1973
87321W        W30337  20.142  30.667   6.544  0.0352 -0.2896 -0.0929
87322W        W30338  34.375   3.208   9.611 -0.1748  0.0379 -0.3678
87323W        W30339  24.116  25.153   7.994  0.1083  0.1108 -0.0218
87324W        W30340  25.922  30.773   8.935 -0.1524 -0.2276  0.0798
87325W        W30341   7.121  26.567  16.957  0.0393  0.0412  0.0106
87326W        W30342  17.823   4.704   9.497 -0.1691 -0.1770 -0.0759
87327W        W30343  25.452  33.595  24.893 -0.1091  0.3650  0.3021
87328W        W30344  31.584  32.845  25.923 -0.0541  0.1938  0.0275
87329W        W30345   7.238  15.326  14.692 -0.1386 -0.0426 -0.0717
87330W        W30346  13.326   7.530  14.481  0.1395 -0.0654  0.0834
87331W        W30347  21.153  28.271  21.503  0.1605 -0.0982  0.0409
87332W        W30348  21.906  19.549   5.093  0.2441 -0.2135 -0.3976
87333W        W30349  11.140   4.664  27.787 -0.0465 -0.1534  0.0282
87334W        W30350   5.727  30.169  24.562  0.1266  0.3134  0.3473
87335W        W30351  27.992   2.017   8.402 -0.4238  0.1737  0.1426
87336W        W30352  12.709  10.103  13.476 -0.1316  0.2702  0.1050
87337W        W30353   8.742  23.085  23.610 -0.0692 -0.2294 -0.0510
87338W        W30354  15.025  31.007   2.746  0.0198  0.0999  0.1512
87339W        W30355  34.127   3.766   3.123  0.1245 -0.2435 -0.0120
87340W        W30356  24.369   4.561  23.409  0.2764 -0.2650  0.2363
87341W        W30357  10.028   2.030   4.953  0.2451  0.0644 -0.4621
87342W        W30358  28.486  25.646  19.170  0.2225 -0.0516  0.0405
87343W        W30359   3.703  32.132  29.290 -0.2006 -0.2753 -0.0269
87344W        W30360  18.037  14.478  21.758  0.3351  0.1808  0.3712
87345W        W30361  10.993  29.744  15.818 -0.2938 -0.3544 -0.2391
87346W        W30362  12.724  30.687   3.153 -0.0069 -0.1814 -0.0520
87347W        W30363  14.647  34.285  26.584 -0.2704  0.0028  0.1212
87348W        W30364  33.562   8.670   8.738  0.1587  0.0555  0.1137
87349W        W30365   8.781  27.416   6.737  0.2478  0.1927  0.1859
87350W        W30366  18.986  27.684  10.415  0.3122  0.1867  0.1515
87351W        W30367  21.905   2.626  10.393  0.3390  0.0835 -0.2149
87352W        W30368  10.125   6.000  22.467  0.0040 -0.0453 -0.0116
87353W        W30369  14.809   1.671   7.211  0.0787  0.0682 -0.1540
87354W        W30370  13.438  12.498   6.190  0.1246  0.0182  0.1200
87355W        W30371  14.680  32.950   5.312 -0.1292 -0.3601  0.0586
87356W        W30372  33.733  31.228  18.209 -0.1267  0.0635 -0.0548
87357W        W30373  12.389  25.128  21.650  0.1794  0.1008 -0.0894
87358W        W30374  10.762  24.816  27.148 -0.1011  0.0518  0.3188
87359W        W30375   3.521   0.127   3.103 -0.0828 -0.0277 -0.2386
87360W        W30376  28.939  12.518   5.354  0.3073 -0.2939 -0.2266
87361W        W30377   0.509   1.780   3.167  0.0840 -0.0093  0.0278
87362W        W30378   9.389   1.670  21.361 -0.2248 -0.2354  0.0093
87363W        W30379  18.108  14.006  29.235 -0.3558 -0.0817 -0.0825
87364W        W30380  21.887   5.417   5.669  0.2571  0.0602 -0.2101
87365W        W30381  15.347   1.111  21.355  0.2117  0.0483  0.2825
87366W        W30382  10.254  29.946  22.337 -0.0012  0.0361 -0.1292
87367W        W30383  21.225   2.096  25.971 -0.1008  0.0462  0.0185
87368W        W30384  12.158   1.043   9.802 -0.4000 -0.3319 -0.0741
87369W        W30385   3.128  33.966   1.519 -0.1340 -0.0546  0.1358
87370W        W30386   3.672  33.485  28.115 -0.0968 -0.2104 -0.0796
87371W        W30387  15.862  11.467   2.458 -0.1448 -0.2136 -0.3142
87372W        W30388   3.843  27.615  21.265 -0.0533  0.0105 -0.1362
87373W        W30389  18.677  33.072   0.032 -0.0595 -0.0191  0.0867
87374W        W30390  24.598  23.047  19.957 -0.1535 -0.0537 -0.3023
87375W        W30391  16.865   3.099   4.900  0.1733  0.1841  0.3410
87376W        W30392   9.469   7.081  24.154  0.1395 -0.0040  0.1727
87377W        W30393  30.400  25.423   0.613  0.2650  0.0088 -0.0731
87378W        W30394  11.208  30.544  15.641 -0.0245 -0.0741 -0.2844
87379W        W30395   1.131  27.003   2.957  0.0078  0.0929 -0.0901
87380W        W30396  14.314   4.735   6.671  0.2668 -0.1951  0.2937
87381W        W30397  27.450   9.244  24.392  0.4556 -0.1648 -0.0320
87382W        W30398   9.641  14.341  26.187  0.1509 -0.2687  0.1533
87383W        W30399  21.014   0.534   6.456  0.2919  0.1250 -0.2912
87384W        W30400  16.160  23.797  17.926  0.0520  0.0239 -0.1414
87385W        W30401   6.895   3.700   9.395  0.2226 -0.0131 -0.4904
87386W        W30402  24.096  31.577   7.176  0.0176 -0.1676 -0.0594
87387W        W30403   4.160  26.627   3.543 -0.5327 -0.0994 -0.3201
87388W        W30404   3.244  32.936   8.368  0.1318 -0.2114  0.2061
87389W        W30405  26.839  20.178  24.355 -0.0284  0.0554  0.0276
87390W        W30406  18.363  19.964   2.909  0.1452  0.0147  0.2047
87391W        W30407   9.744  13.738  21.340 -0.1126  0.0453 -0.0234
87392W        W30408  28.952  13.886  20.921  0.0368  0.1862  0.1299
87393W        W30409  11.429  28.543   5.938 -0.2101  0.3143  0.0172
87394W        W30410  21.703  28.482   2.392  0.1053 -0.0773 -0.1335
87395W        W30411  19.675   0.235  18.953  0.0632  0.2122 -0.1746
87396W        W30412  32.332   3.293   1.474  0.4282 -0.0219  0.0263
87397W        W30413   6.052   2.036  19.995  0.1949 -0.1814  0.3843
87398W        W30414  18.429   6.552   7.900  0.3362  0.3068  0.0917
87399W        W30415  27.895  16.691  25.647 -0.1015  0.0478  0.2722
87400W        W30416  14.658   3.337  28.638 -0.0998  0.1809 -0.0018
87401W        W30417  10.367  22.289  24.726  0.0491 -0.0748  0.2244
87402W        W30418  12.957  24.553   0.236 -0.1856 -0.0639  0.1198
87403W        W30419  20.353   1.775   2.535  0.1635  0.2152 -0.3019
87404W        W30420  12.063   3.014   7.465  0.0649 -0.0596 -0.0343
87405W        W30421  11.622  10.157  22.433  0.2652 -0.0036 -0.1469
87406W        W30422  34.258  26.308  21.764  0.0936 -0.0106 -0.3117
87407W        W30423   7.609  27.273   8.268 -0.1172  0.1022 -0.4725
87408W        W30424  18.823   2.741   8.023 -0.0137 -0.1597  0.1023
87409W        W30425  19.035  18.486  27.921  0.4297  0.1602 -0.0240
87410W        W30426  19.156  26.458   7.362 -0.3898 -0.1732  0.0358
87411W        W30427  13.079   9.151   0.007  0.1740  0.1309  0.0247
87412W        W30428  10.288  32.141  26.468  0.2308  0.0784  0.1555
87413W        W30429  14.231  26.802  19.775 -0.2278  0.0011  0.2233
87414W        W30430  17.563   2.805  19.622  0.0510  0.3375 -0.0851
87415W        W30431  14.921   3.123   8.224 -0.0390 -0.1482 -0.1917
87416W        W30432  16.575  30.712  25.108 -0.1794 -0.1675 -0.1414
87417W        W30433  10.147   6.897  16.712  0.0297  0.1406  0.0631
87418W        W30434  17.581   4.727  22.139  0.2542  0.4102 -0.3569
87419W        W30435  16.333   0.253   5.750 -0.0921 -0.0853 -0.1160
87420W        W30436  20.674   2.225   5.152  0.0738  0.2983 -0.4151
87421W        W30437  26.551   2.943  26.957  0.0289  0.0384  0.2983
87422W        W30438  10.753   6.819   4.653  0.1147 -0.1082  0.0757
87423W        W30439  34.582   5.028  28.351 -0.1130 -0.1589  0.4307
87424W        W30440  33.443  18.964  27.241 -0.3097 -0.0357 -0.1102
87425W        W30441  19.520  24.358   1.115 -0.3101 -0.2950  0.0473
87426W        W30442  11.101  26.407  26.111 -0.0487  0.1127 -0.2098
87427W        W30443  12.265   4.531   9.788  0.4021 -0.0374 -0.1021
87428W        W30444  14.151  22.818  25.945  0.1062  0.3998  0.0526
87429W        W30445  13.877   7.187   9.922  0.1095  0.2248 -0.3999
87430W        W30446  33.810   4.739  18.376  0.2339  0.0745 -0.0173
87431W        W30447  18.719  27.396   9.309  0.3160 -0.2491  0.1183
87432W        W30448  34.164  34.169   5.439  0.1220  0.3067 -0.1566
87433W        W30449   8.269  34.471   0.635  0.3132  0.2657 -0.0409
87434W        W30450  10.758   3.600   4.870  0.1175  0.1255  0.0529
87435W        W30451   3.645   2.062  16.631 -0.1389  0.0587 -0.1715
87436W        W30452   6.878  25.300  24.850  0.2822 -0.0092  0.0896
87437W        W30453  27.149   6.531   2.471 -0.2442  0.1207 -0.0270
87438W        W30454  25.213  30.374  18.949  0.1673  0.1455  0.1931
87439W        W30455   1.642   3.582  10.358  0.0636  0.0339 -0.0360
87440W        W30456  15.730  13.300   7.442 -0.2250  0.2605 -0.0673
87441W        W30457   8.612   0.918   6.315 -0.0489  0.0772 -0.2811
87442W        W30458   7.939  27.113   2.078  0.2753 -0.3763 -0.1948
87443W        W30459   4.297  30.672   4.791 -0.5259 -0.4378  0.2968
87444W        W30460  30.963   1.171  23.683  0.2458  0.1730 -0.2295
87445W        W30461  21.286   1.841   4.196 -0.0236  0.2043 -0.0866
87446W        W30462  32.666  34.186   1.033 -0.0159 -0.2137 -0.2003
87447W        W30463  14.338  11.779  23.824  0.1678  0.1449 -0.1222
87448W        W30464   9.462   6.043  25.603 -0.1838  0.2049  0.1416
87449W        W30465   5.862   4.875   8.125  0.4037  0.1399  0.0637
87450W        W30466  16.477  26.657   3.364 -0.1725 -0.1261 -0.0260
87451W        W30467  29.875  32.180  27.195  0.2323  0.1083 -0.0102
87452W        W30468  23.573  28.439  29.188  0.0879  0.0025  0.3318
87453W        W30469  29.129  16.460   5.825 -0.0591 -0.0989  0.2290
87454W        W30470   3.533   6.237   1.694  0.1790  0.1906 -0.0959
87455W        W30471  31.089   0.864  16.203  0.0527 -0.2885  0.2003
87456W        W30472  11.832  33.716  24.538 -0.3100  0.0042 -0.1704
87457W        W30473   7.935  28.935   9.441  0.1943 -0.0926 -0.0220
87458W        W30474  24.382  34.340   1.386  0.2926  0.1764  0.2097
87459W        W30475   3.343  30.699  19.095  0.3127 -0.0843  0.1386
87460W        W30476  30.535  13.016   5.682 -0.1766 -0.1654  0.2499
87461W        W30477  14.998   4.032   0.888  0.1446  0.0707 -0.0224
87462W        W30478  20.988  14.843   4.044 -0.2600  0.0351 -0.0026
87463W        W30479  10.940  26.016   0.956 -0.0694  0.1313 -0.2589
87464W        W30480  26.639   2.230   8.305  0.2556  0.0045 -0.1404
87465W        W30481  12.118   6.614  28.533  0.2709 -0.0588  0.0457
87466W        W30482   1.878  10.446   9.110  0.2358  0.2584  0.3530
87467W        W30483  11.687  20.775  16.671  0.1945 -0.0197  0.1224
87468W        W30484   0.199   3.334  24.589  0.1464 -0.0677 -0.1848
87469W        W30485  13.940  32.386  27.111  0.0133 -0.0608  0.1552
87470W        W30486  14.414   2.792   5.152  0.0284  0.1480  0.0963
87471W        W30487  14.949  33.361  16.886 -0.0783  0.0330  0.1103
87472W        W30488  12.772  13.133  19.769 -0.2270  0.2342  0.0210
87473W        W30489  11.940   9.871   5.100  0.2906  0.3574 -0.0733
87474W        W30490  19.505  26.818  25.840 -0.0438 -0.2870 -0.2009
87475W        W30491   0.718   3.161  20.505  0.1870  0.0895  0.0650
87476W        W30492   5.024  32.089  26.742 -0.0494  0.1719 -0.0205
87477W        W30493  11.596   0.656  25.699  0.1735 -0.2797  0.0655
87478W        W30494  24.189   1.962  26.236 -0.2192 -0.0551  0.2637
87479W        W30495  13.286  10.791  22.057 -0.1866 -0.0486  0.1027
87480W        W30496  21.473   6.232  18.599 -0.1655  0.3653 -0.4976
87481W        W30497   6.765   9.558   1.156 -0.2264  0.0005  0.1502
87482W        W30498  16.115  34.504  21.098  0.0452  0.1121 -0.0751
87483W        W30499  32.531   2.574  23.554 -0.0561  0.3001  0.0104
87484W        W30500   1.799   2.375   7.635  0.1158  0.3978 -0.0114
87485W        W30501   4.124  31.770  20.494 -0.1293  0.0504 -0.1058
87486W        W30502  32.621   0.436   4.632 -0.0486 -0.0948 -0.0390
87487W        W30503  14.624  13.853  26.946  0.1427 -0.0068  0.0433
87488W        W30504  23.765   3.255   0.622 -0.2375 -0.0437  0.0300
87489W        W30505  23.314  34.314   5.489 -0.0921  0.0284 -0.0630
87490W        W30506  26.208  23.343  17.414 -0.3197  0.0707 -0.1999
87491W        W30507  18.202  29.260  26.951  0.1018  0.1795  0.0187
87492W        W30508  30.743   1.074  27.947  0.0886 -0.1212  0.1315
87493W        W30509  28.850   0.382  16.430  0.2187 -0.4099  0.2501
87494W        W30510  14.421  12.721  24.641 -0.0740  0.1369 -0.0598
87495W        W30511   7.059   2.452  16.078  0.2426 -0.2910 -0.1045
87496W        W30512   2.659  31.991  27.754 -0.1862 -0.0248 -0.0179
87497W        W30513  33.182  12.132   8.105 -0.0165  0.0135 -0.1304
87498W        W30514  29.352  28.732   0.673 -0.0868 -0.4429  0.1828
87499W        W30515  18.601  16.107   7.337 -0.0709 -0.0310 -0.0415
87500W        W30516  33.521   9.072  21.397 -0.5913 -0.3396 -0.0677
87501W        W30517  21.277  15.030  24.305 -0.3648  0.0324  0.1067
87502W        W30518  12.723  11.908   8.501  0.0925 -0.1321  0.1575
87503W        W30519   3.711  33.359   1.253 -0.2342 -0.0092 -0.2714
87504W        W30520  11.963  33.259  24.238  0.1178  0.1278 -0.2088
87505W        W30521   5.221  34.767  14.462 -0.1183 -0.0710 -0.2839
87506W        W30522  10.250  16.172   4.793  0.2371  0.1713 -0.2661
87507W        W30523  14.223   1.205  26.977 -0.1950  0.0671 -0.2569
87508W        W30524  13.278  31.430   6.949 -0.0173 -0.0944  0.0857
87509W        W30525   7.035  29.865   1.545 -0.1873 -0.0032  0.1188
87510W        W30526   8.508  12.446   0.277  0.1223  0.1326 -0.2629
87511W        W30527  21.939   2.799  19.397  0.0816  0.0234 -0.0727
87512W        W30528  17.661  25.007   3.349 -0.2325 -0.0521 -0.4485
87513W        W30529   1.518  14.712   8.701 -0.2499 -0.0675 -0.4219
87514W        W30530  21.658  32.231  28.032  0.3745  0.0317 -0.0687
87515W        W30531   5.700  11.108  23.943 -0.0051 -0.3053 -0.1447
87516W        W30532   9.651   6.144   5.933 -0.0400  0.2090 -0.3108
87517W        W30533  14.243   0.478  27.027  0.0406 -0.0810 -0.0454
87518W        W30534   9.693  22.300  13.166  0.2989 -0.1189 -0.0546
87519W        W30535   9.977  28.723   7.629 -0.0840 -0.2078 -0.0433
87520W        W30536  12.930   3.398  15.185 -0.2732 -0.2345  0.0618
87521W        W30537  27.888   3.571   1.121  0.0746 -0.2901  0.1411
87522W        W30538  31.324  31.558   6.362 -0.1661  0.0214 -0.2965
87523W        W30539  18.397  10.657  20.761  0.0177 -0.3116 -0.0113
87524W        W30540  33.831  26.622   9.139 -0.1501  0.0141  0.1463
87525W        W30541  34.745   6.652   2.190  0.1337 -0.0211 -0.1275
87526W        W30542  18.333   7.742  23.351  0.0560 -0.5169  0.1198
87527W        W30543   0.297  21.064  23.739 -0.1840  0.2133 -0.0296
87528W        W30544  15.161   8.109   5.451 -0.0953 -0.1410 -0.1931
87529W        W30545  27.311  29.216   1.569  0.2001  0.2162  0.0624
87530W        W30546  20.768   2.152  17.189  0.0097 -0.0627  0.0952
87531W        W30547  14.593   6.817  19.567 -0.0586  0.1350 -0.0990
87532W        W30548  34.765  11.864   2.595  0.2186  0.4775 -0.2531
87533W        W30549   0.406  25.971   8.760  0.0217  0.1857  0.1253
87534W        W30550  34.584   2.298   8.404  0.1104  0.1456  0.0875
87535W        W30551  11.011  31.668   1.239  0.1018  0.1686  0.0526
87536W        W30552  31.307   9.049  24.289 -0.1568 -0.0186  0.3237
87537W        W30553  23.839   2.954  19.524 -0.0162 -0.0556  0.1953
87538W        W30554  23.212  13.827   7.709 -0.0475  0.1780 -0.1649
87539W        W30555  17.079  24.005   1.663  0.1633  0.0854  0.0480
87540W        W30556  23.721   2.765  26.328  0.0004  0.0543  0.5839
87541W        W30557   6.189  33.166  27.596  0.3262  0.0340  0.3450
87542W        W30558   5.233  31.312  22.206  0.2143  0.3275  0.0241
87543W        W30559   4.867  25.995  22.894 -0.2360 -0.1124 -0.0069
87544W        W30560  23.904  34.724  15.294  0.2827 -0.0845 -0.0224
87545W        W30561  12.908   8.902   5.283  0.3705 -0.0543  0.4195
87546W        W30562   7.789  27.439  22.958 -0.4153 -0.3447  0.2843
87547W        W30563   5.129   7.023   4.878 -0.1921  0.1589  0.0972
87548W        W30564  16.165  32.865   8.378 -0.2240  0.0903  0.1030
87549W        W30565   7.480   7.660   2.470  0.2468 -0.2335  0.0959
87550W        W30566  14.553   0.297   3.001 -0.3278 -0.0844  0.1719
87551W        W30567  15.674  23.562   0.609  0.3165  0.0817  0.1217
87552W        W30568   2.941   4.410  25.746  0.1928  0.1548  0.2287
87553W        W30569   3.939  21.316  22.640 -0.0500  0.0751  0.2897
87554W        W30570  15.430   7.734  15.247  0.1834 -0.2708  0.0537
87555W        W30571   4.152   9.212  20.083 -0.7470 -0.0739  0.0785
87556W        W30572  21.341   2.196  17.771 -0.1556 -0.2029 -0.0512
87557W        W30573  19.507  14.148  25.564 -0.0454 -0.0002 -0.0944
87558W        W30574   8.093  27.104  23.823  0.1317 -0.2250 -0.2071
87559W        W30575  14.457  28.461  28.727 -0.1687  0.0716  0.3437
87560W        W30576  15.277  13.546  21.325  0.0857 -0.1145 -0.0868
87561W        W30577   6.225   7.495  20.290  0.0331  0.2622  0.1295
87562W        W30578  34.406   6.562  27.993 -0.0494 -0.0980 -0.0492
87563W        W30579   5.068  33.918   4.519 -0.0035  0.1176 -0.0237
87564W        W30580  21.896  32.178  26.546 -0.2118 -0.0566 -0.0449
87565W        W30581  16.355  19.465  24.249 -0.1252  0.0444  0.2112
87566W        W30582  15.694   5.913   1.572 -0.0545  0.1119  0.0893
87567W        W30583  13.571  10.263   8.284 -0.1660  0.2015 -0.0268
87568W        W30584  14.347   4.991   2.283 -0.1191  0.2437  0.1899
87569W        W30585  23.057  28.087  22.449 -0.3508 -0.1878  0.0776
87570W        W30586  21.954   1.076   2.118 -0.1111 -0.0202 -0.0035
87571W        W30587  10.412  28.762   1.625  0.0244 -0.0526 -0.0521
87572W        W30588   1.211  15.998  28.341 -0.1270  0.0399  0.0615
87573W        W30589  12.842   1.246   1.882  0.0275 -0.0457 -0.1158
87574W        W30590   6.580   2.799   0.933 -0.1632 -0.5401 -0.0186
87575W        W30591  15.404   5.600   0.369 -0.1293  0.1666 -0.1400
87576W        W30592   0.469   2.543   9.262 -0.0017 -0.0745 -0.0365
87577W        W30593  11.553  19.732  23.696 -0.3980 -0.0501 -0.0306
87578W        W30594  22.184  34.630  20.102  0.2807  0.0439  0.0426
87579W        W30595  16.359  34.599   8.821  0.0591  0.1928  0.3173
87580W        W30596  29.575   0.739  11.204  0.2542 -0.2149  0.1663
87581W        W30597  21.229  12.687  19.978  0.0163  0.2470  0.2366
87582W        W30598  14.375   4.182   2.763 -0.2803 -0.3781 -0.1878
87583W        W30599  24.969  16.135   1.769  0.2176  0.1217 -0.0110
87584W        W30600  29.123  33.311   8.272 -0.0366 -0.0914 -0.1974
87585W        W30601  15.530  21.292  25.382 -0.1793 -0.0793  0.1002
87586W        W30602  15.157   2.758  23.475 -0.1641 -0.1802 -0.0845
87587W        W30603  12.003  32.474   1.324 -0.0338 -0.1366  0.1891
87588W        W30604  16.080  30.167   5.535  0.1257  0.0948  0.3045
87589W        W30605  20.411   3.490   2.099  0.0424  0.2626  0.0092
87590W        W30606   9.973  25.057  26.108  0.0070  0.4356  0.1706
87591W        W30607  31.296   6.565  17.903 -0.0182 -0.0928 -0.0124
87592W        W30608  10.887  22.844  28.895  0.0208  0.1395 -0.1701
87593W        W30609  11.011   0.902  21.859  0.0099 -0.2580  0.2801
87594W        W30610  16.130  15.414  24.340  0.4433  0.4440 -0.3832
87595W        W30611  19.990   3.683   2.631  0.0106  0.2215  0.0989
87596W        W30612  29.273  32.564  26.737 -0.3970  0.2822  0.0961
87597W        W30613  12.654   3.924   6.621  0.1466 -0.1273 -0.0793
87598W        W30614  15.693  17.839   6.552 -0.1911 -0.0734 -0.0290
87599W        W30615   2.575   0.248   9.653 -0.1652  0.1436 -0.1326
87600W        W30616  12.949  10.941  26.097 -0.0776  0.1192  0.2809
87601W        W30617  27.132   2.051   0.667 -0.0451 -0.0844  0.1504
87602W        W30618  30.890  25.458  24.134  0.1187 -0.2464  0.1779
87603W        W30619  17.886  33.870   4.132  0.0948 -0.1584  0.2609
87604W        W30620  13.181  14.109  21.163 -0.2945  0.2192  0.0384
87605W        W30621  31.536  20.837  22.819  0.0916 -0.0820  0.0874
87606W        W30622   0.200   9.837   2.056 -0.0209 -0.0817 -0.2467
87607W        W30623  22.103  11.411  29.262  0.0997  0.0105 -0.1742
87608W        W30624  16.121  18.097  19.732 -0.0038 -0.0231 -0.1975
87609W        W30625  19.623   0.824  27.780 -0.2908 -0.2268  0.1089
87610W        W30626  21.947  13.750  24.220  0.0608  0.1563  0.1445
87611W        W30627  23.879  29.088  26.654  0.1375  0.0311 -0.1437
87612W        W30628  21.465  32.702   3.528  0.1090  0.2905 -0.2219
87613W        W30629  30.366   5.231   8.291  0.2024  0.3232  0.1458
87614W        W30630  11.355   3.496   5.878  0.2501  0.2602  0.0985
87615W        W30631   8.601   3.007   5.442 -0.0886  0.2934  0.3198
87616W        W30632   6.094   2.865   1.416  0.0179  0.0781  0.1196
87617W        W30633  11.967  18.977  20.609  0.0180 -0.0507 -0.0684
87618W        W30634   8.347  31.070   9.361 -0.3816 -0.0144  0.1567
87619W        W30635  24.682  33.488  23.180 -0.0909  0.0426  0.2626
87620W        W30636  11.159   2.665  22.808 -0.0209 -0.0064 -0.1836
87621W        W30637  32.699  24.000  24.709  0.0246 -0.1729 -0.4050
87622W        W30638   2.493  11.312  18.467 -0.1069  0.2115  0.1135
87623W        W30639  28.933  27.282  24.763 -0.1087  0.1366  0.0365
87624W        W30640   6.473  12.951  27.043  0.1304 -0.4044 -0.1370
87625W        W30641  14.558  15.320  21.970 -0.0764  0.0651  0.1622
87626W        W30642  18.575   1.619  22.592 -0.1154 -0.0366 -0.2840
87627W        W30643   9.362  30.868   7.094  0.1580  0.2283  0.1008
87628W        W30644  23.787   2.831   9.018 -0.0567 -0.0392 -0.0731
87629W        W30645  15.530   1.444  18.928 -0.0910 -0.0892  0.1801
87630W        W30646  10.743  22.156  23.261 -0.0514 -0.2070  0.4671
87631W        W30647  14.219  34.426   4.938 -0.0576  0.0709 -0.1715
87632W        W30648  14.703  10.454  18.919  0.1189  0.1242 -0.3005
87633W        W30649   1.616  14.021  16.591 -0.0206  0.1259  0.0925
87634W        W30650   9.179  22.165   1.931  0.3173 -0.0570 -0.1123
87635W        W30651   7.285   6.182   7.213  0.1374 -0.0382  0.0381
87636W        W30652   4.138  31.169   3.707  0.0968  0.0626 -0.1417
87637W        W30653  15.309  27.749  25.780  0.1780  0.2987  0.2376
87638W        W30654   9.440   3.231   3.559 -0.4073 -0.2353  0.1534
87639W        W30655  13.398  29.821  27.339  0.2017 -0.2160 -0.0964
87640W        W30656  13.006  18.352  24.501 -0.3939 -0.2458 -0.0850
87641W        W30657  18.184  12.404  26.230 -0.3099 -0.1519 -0.0990
87642W        W30658   4.623  27.456  28.157 -0.0100 -0.1467 -0.0047
87643W        W30659  15.886  13.217   6.001 -0.3209  0.1519  0.0108
87644W        W30660  16.577  27.976   3.678 -0.0186  0.2482  0.2281
87645W        W30661   8.866  14.164  17.462  0.1941  0.0553  0.3395
87646W        W30662  15.395  25.506   6.010  0.2125 -0.0539 -0.0883
87647W        W30663   9.325  11.541   7.925 -0.0270  0.0528  0.0902
87648W        W30664  22.175   7.928   1.001 -0.3182 -0.0286 -0.0316
87649W        W30665  12.185  22.352  26.324  0.2132 -0.1053  0.2196
87650W        W30666  30.714  31.146   4.263 -0.2650  0.1947  0.5365
87651W        W30667   5.700  13.234  28.285  0.0533  0.0545 -0.3267
87652W        W30668   5.868  31.006   6.994 -0.2357 -0.2380 -0.2221
87653W        W30669   0.741   7.512   0.020 -0.1089 -0.1137 -0.0635
87654W        W30670  27.588  18.202   5.487  0.1831 -0.3704  0.0776
87655W        W30671  20.673   0.345  24.476  0.2296 -0.3239 -0.2982
87656W        W30672   3.684   2.377  23.717 -0.0575  0.0810 -0.0209
87657W        W30673  10.370  28.584   3.223  0.0179  0.2263 -0.1281
87658W        W30674  18.719  23.377   0.577 -0.0760  0.0049  0.2598
87659W        W30675   8.261   1.761   6.665 -0.3493  0.0581 -0.0050
87660W        W30676  14.251   7.009   3.924 -0.0225 -0.1537 -0.1413
87661W        W30677  15.420  16.148  24.219  0.0226 -0.2536  0.3617
87662W        W30678  11.583  34.254  23.904 -0.1075 -0.3144 -0.3315
87663W        W30679  15.708  27.837   3.349 -0.0408  0.2218 -0.1353
87664W        W30680   9.548  25.558   2.370 -0.0335  0.1124 -0.0095
87665W        W30681   1.992   6.532  23.113 -0.0527  0.0585  0.3724
87666W        W30682   7.583  29.861  25.717 -0.1935  0.2094 -0.3000
87667W        W30683  19.116  30.330  16.629 -0.0059  0.0142 -0.0333
87668W        W30684  20.726  12.817   4.896 -0.3637 -0.0982  0.1219
87669W        W30685   6.445  11.953  19.800  0.1650 -0.2758 -0.2905
87670W        W30686  10.723   3.036  28.401  0.0548 -0.0862 -0.1336
87671W        W30687   5.760   5.484  14.445 -0.1504 -0.0823  0.0145
87672W        W30688  15.988  34.152  24.102 -0.1360  0.0701 -0.0430
87673W        W30689   4.670  18.821  25.689  0.0395 -0.0169 -0.0710
87674W        W30690   3.416  33.001   5.069  0.1058  0.0412  0.4242
87675W        W30691  21.688  34.175   4.861  0.0428  0.0462 -0.0625
87676W        W30692  24.807  24.059   9.601  0.0209 -0.1668 -0.0646
87677W        W30693   1.662   3.150  22.554 -0.0446  0.0545 -0.0294
87678W        W30694  21.219   3.692  26.183  0.0677 -0.1856  0.0390
87679W        W30695   8.293   7.668  27.684 -0.0676 -0.1573 -0.1304
87680W        W30696  14.406   0.254  28.796 -0.0033 -0.0106  0.4304
87681W        W30697   7.636  32.665   7.133  0.0336  0.2740  0.2020
87682W        W30698  14.814  32.443  15.426 -0.1419 -0.0700  0.1316
87683W        W30699  19.677  14.291  23.830  0.0767  0.0212  0.0649
87684W        W30700  14.392  33.665  18.955  0.0227 -0.1328 -0.1003
87685W        W30701   7.578  28.098   7.959 -0.0303  0.0731  0.2962
87686W        W30702  15.064  10.330  25.238  0.1889 -0.0610 -0.3243
87687W        W30703  25.740   0.336   3.426 -0.1017  0.1099 -0.1548
87688W        W30704   0.264   2.228   6.812 -0.1713 -0.0118  0.1119
87689W        W30705   9.608   1.120   1.651  0.0542 -0.2919 -0.1665
87690W        W30706  17.605  18.787  12.817  0.1492 -0.0731 -0.2171
87691W        W30707   2.446   8.506   3.423  0.0698 -0.2543 -0.0299
87692W        W30708   5.474   2.871  29.101  0.1789  0.1001 -0.0134
87693W        W30709   7.567  11.315   8.984  0.1746 -0.2460  0.3940
87694W        W30710   8.134  29.828  22.262 -0.1245  0.0426 -0.2152
87695W        W30711  18.780  12.162   4.629 -0.1959  0.1541 -0.0544
87696W        W30712  14.638   9.962  27.903  0.3419  0.3383 -0.0420
87697W        W30713  14.807  22.522   2.120 -0.2248  0.0025  0.3022
87698W        W30714   7.448  10.934   2.038  0.1604 -0.0226 -0.2215
87699W        W30715  21.096  14.950   6.339 -0.4610 -0.1538  0.1978
87700W        W30716   9.805  27.078   3.810  0.4464  0.0146  0.1751
87701W        W30717  29.419   6.187   2.186 -0.1488 -0.0945  0.1366
87702W        W30718  17.021  33.910  16.106  0.0578 -0.0421 -0.0535
87703W        W30719  11.876  31.372   8.032  0.6314  0.0981  0.2482
87704W        W30720  19.309  33.460  26.094  0.2160  0.1496 -0.0295
87705W        W30721  12.003   7.841   5.221 -0.5561 -0.0935 -0.0013
87706W        W30722   2.219   7.198   2.807  0.0675  0.1225 -0.2194
87707W        W30723   2.330  11.378   0.877 -0.0309  0.1215  0.0556
87708W        W30724  29.908  27.747   8.852  0.1516 -0.1285  0.0924
87709W        W30725   2.935  22.226  18.788  0.0657 -0.0052  0.1486
87710W        W30726   0.705  17.061  17.372 -0.0071 -0.0639 -0.1312
87711W        W30727  19.345   3.998   3.259 -0.2337  0.1779 -0.2772
87712W        W30728   7.883  32.342   2.072  0.0219 -0.2387 -0.0538
87713W        W30729  32.893   8.026   9.149 -0.0581  0.1601 -0.0989
87714W        W30730   4.480  12.204   9.461  0.1080  0.0418 -0.0805
87715W        W30731  13.963   6.024  22.651  0.3358  0.0014  0.2361
87716W        W30732  27.499  11.178   1.756  0.2220  0.0309 -0.0662
87717W        W30733  16.748   1.415   8.300  0.0154 -0.1710 -0.2333
87718W        W30734  23.705   1.346   3.341 -0.0381 -0.2289  0.3022
87719W        W30735  20.978   5.796   7.705 -0.0162 -0.0113  0.0716
87720W        W30736   5.830  13.242   1.874  0.3417 -0.1119 -0.2606
87721W        W30737   5.442  26.998   4.591 -0.0531  0.0940  0.2115
87722W        W30738  10.854  32.165  28.311  0.3590 -0.0015  0.2586
87723W        W30739  15.525  16.425   3.858 -0.0441  0.0398  0.0310
87724W        W30740   5.146   3.112   6.603  0.0055  0.2927 -0.0583
87725W        W30741   6.834   3.541   3.845  0.0230  0.5798  0.0573
87726W        W30742  13.695  16.087  27.817  0.0594 -0.0233  0.1576
87727W        W30743   7.392  14.412  26.981  0.0563 -0.2095  0.0049
87728W        W30744   3.167   1.510   7.673  0.0491 -0.0075  0.0293
87729W        W30745  18.326  10.292   1.016 -0.0250 -0.3825  0.1915
87730W        W30746  25.280   5.106  23.294  0.3846 -0.2463 -0.3490
87731W        W30747  11.859   1.359   6.778 -0.0061  0.1489 -0.1033
87732W        W30748   6.237  24.641   3.577  0.1446  0.0408  0.3167
87733W        W30749  23.033   2.692  25.616 -0.0843 -0.0288  0.0617
87734W        W30750  11.029  25.118   6.271  0.0300  0.0039 -0.0962
87735W        W30751  21.564  32.154  18.997  0.1682  0.2654  0.1502
87736W        W30752  28.966   6.185   6.753  0.0060 -0.2323  0.3627
87737W        W30753  15.155  28.695   6.933 -0.1133 -0.2626 -0.1652
87738W        W30754  19.430   9.956   9.098  0.2283  0.1438  0.2821
87739W        W30755   8.113   8.695  19.849 -0.0302  0.0315 -0.1127
87740W        W30756   9.842  11.198   8.468  0.0570  0.0045 -0.2026
87741W        W30757   1.098   4.357  29.120 -0.3650 -0.1366 -0.1556
87742W        W30758   0.193  13.951  25.984  0.0494  0.0890  0.3082
87743W        W30759  23.779  11.354  18.256 -0.0125 -0.1183 -0.0960
87744W        W30760  25.895  26.976  28.671 -0.1035 -0.2686  0.1227
87745W        W30761  10.980  28.306  23.070 -0.0444  0.0987  0.2558
87746W        W30762   5.820  28.962  26.893 -0.0411 -0.1685  0.4634
87747W        W30763   1.207   5.431   1.525  0.1226  0.3149 -0.2356
87748W        W30764   9.504  30.887   4.604 -0.3659  0.0923 -0.4890
87749W        W30765  33.326  18.185   5.861  0.1709 -0.1377 -0.1864
87750W        W30766  16.257   8.282   8.551 -0.1999 -0.0308  0.2956
87751W        W30767  24.084   5.138  28.665 -0.0582  0.0924 -0.1586
87752W        W30768   0.683  33.627  22.311  0.2876 -0.0794 -0.3206
87753W        W30769   4.712  14.014   0.142  0.2504 -0.1381 -0.0600
87754W        W30770  13.036   2.117   4.098  0.0518  0.3213 -0.0583
87755W        W30771  14.938  33.607   0.039 -0.0529  0.0360 -0.1671
87756W        W30772  16.061   9.640   2.667 -0.2574 -0.1139 -0.3913
87757W        W30773  21.385  28.974   7.450 -0.0180  0.3160  0.2311
87758W        W30774   1.753  25.016  28.780 -0.1589 -0.2090 -0.1727
87759W        W30775  22.278  11.095   7.114  0.0312 -0.0110 -0.0353
87760W        W30776  18.014  29.930  10.258  0.1488  0.4380  0.1298
87761W        W30777  20.735  20.267   3.402  0.0119  0.2044 -0.1593
87762W        W30778  16.283  30.227   8.098 -0.0347  0.1673 -0.0540
87763W        W30779  18.654  32.981   9.407  0.1966  0.1541  0.1311
87764W        W30780  20.737   9.960   6.295  0.1014  0.1352  0.2367
87765W        W30781  31.892   4.884   2.109 -0.1701 -0.0150  0.1238
87766W        W30782  18.213   0.443   8.401 -0.3512 -0.0878 -0.0699
87767W        W30783  13.962   5.993   7.868 -0.0432 -0.1065  0.1140
87768W        W30784  11.263  31.164  28.603 -0.0539 -0.1043  0.0637
87769W        W30785  25.025  14.930  21.859  0.0906 -0.1429 -0.0942
87770W        W30786  22.615  31.407   0.755  0.1572  0.2259 -0.0960
87771W        W30787  18.499   8.286   7.671 -0.3915 -0.0124  0.1441
87772W        W30788  16.692  34.185   4.650  0.1376 -0.0233 -0.1890
87773W        W30789   1.538  10.408   4.450 -0.0469 -0.0116 -0.2351
87774W        W30790  17.468   1.496   7.000  0.3114 -0.0659  0.0308
87775W        W30791  16.186   3.102   0.534  0.2635  0.1039  0.0391
87776W        W30792  27.992   8.726   7.184  0.0923  0.4886 -0.2994
87777W        W30793  20.783  19.303  23.141  0.2189  0.2446  0.2431
87778W        W30794   9.679  24.476   2.806  0.2081  0.1689 -0.1356
87779W        W30795  34.718  22.828  26.812 -0.2238 -0.0484  0.2967
87780W        W30796  28.836  34.286   5.504  0.0999  0.1068  0.3320
87781W        W30797  23.903   3.359   1.510 -0.0457 -0.2870  0.4022
87782W        W30798  28.110   1.788   4.108 -0.0393  0.3024  0.0985
87783W        W30799  21.541   0.877   4.194  0.2355  0.1932  0.2993
87784W        W30800   4.302  31.367   8.387  0.1493  0.2686 -0.1291
87785W        W30801  29.536  30.219   2.589 -0.0043 -0.4157  0.1972
87786W        W30802  33.110   2.599  21.021 -0.2358  0.2462 -0.1494
87787W        W30803  23.998   0.668  10.987 -0.0665 -0.1291 -0.0843
87788W        W30804   1.864  11.189  10.491 -0.0915  0.0659  0.0264
87789W        W30805  22.375  21.506   0.067  0.3723  0.1270 -0.1803
87790W        W30806  15.523  22.150   3.192  0.1634 -0.0625 -0.0399
87791W        W30807  16.843   0.281   6.025  0.0400 -0.2567  0.2407
87792W        W30808  19.334  12.175   7.262 -0.0329  0.1363  0.0928
87793W        W30809   0.958  13.118  11.439  0.2674 -0.0839  0.0598
87794W        W30810   1.703  25.508  28.887 -0.0476 -0.0776  0.1491
87795W        W30811  23.333  30.990  10.781 -0.1081 -0.0147 -0.1777
87796W        W30812  18.081   3.016   9.715  0.2383 -0.0880  0.0959
87797W        W30813  11.912  20.529   2.655  0.2377 -0.2300  0.3416
87798W        W30814   9.716  31.918  29.058  0.1048 -0.2804 -0.0798
87799W        W30815   0.663   1.986   6.599  0.0881  0.2058  0.0750
87800W        W30816  22.731   1.497  10.691 -0.3983 -0.1734  0.2065
87801W        W30817  32.193   7.938   1.627  0.1075 -0.1324 -0.1944
87802W        W30818  10.282  11.564   8.232 -0.1292 -0.0359  0.0730
87803W        W30819   9.902   8.018  25.951  0.0937  0.3273  0.1673
87804W        W30820   1.983   3.548   0.511 -0.0352 -0.2702 -0.0759
87805W        W30821   3.847  14.627   9.331 -0.3892  0.1982 -0.0149
87806W        W30822  11.065  34.401  22.936  0.1351 -0.1497 -0.1371
87807W        W30823  10.867   6.924   1.430  0.1208  0.0718 -0.2753
87808W        W30824  34.200   2.437   7.948  0.0214 -0.0871 -0.0069
87809W        W30825  20.842   1.627   0.822 -0.0557 -0.2526 -0.0743
87810W        W30826  19.964   7.032   0.601 -0.0989 -0.0323  0.1792
87811W        W30827  15.453  12.649   5.333 -0.1860 -0.1708  0.0190
87812W        W30828  30.885  29.551   0.515  0.1502 -0.1001  0.3456
87813W        W30829  21.009  22.052   4.048  0.0970 -0.0585 -0.0555
87814W        W30830  24.120   2.021  27.055 -0.4206 -0.1141  0.1596
87815W        W30831  20.939  21.773  27.601 -0.3431 -0.0185 -0.1455
87816W        W30832  18.499  31.533   2.156 -0.1312 -0.1630 -0.0401
87817W        W30833  15.901  33.982  28.047 -0.1729  0.0458  0.0907
87818W        W30834  12.511  27.876   6.137 -0.3027 -0.2390 -0.3389
87819W        W30835  10.005  34.493  24.529 -0.1909  0.0406  0.2231
87820W        W30836  11.248  23.278  27.526 -0.0301 -0.1681 -0.2508
87821W        W30837  13.784   7.155   1.021 -0.1835  0.1791 -0.2996
87822W        W30838   7.624  29.754   1.642  0.1587  0.0355 -0.0499
87823W        W30839  17.063   0.622  20.654  0.2847  0.0044  0.0316
87824W        W30840   2.845  15.925   5.206 -0.0499  0.1379  0.0038
87825W        W30841   9.298  27.914  22.290 -0.1486 -0.2133 -0.1177
87826W        W30842  25.407   6.268  24.631 -0.3954  0.2774 -0.2678
87827W        W30843  18.708  22.062   7.872  0.1024 -0.1492 -0.0765
87828W        W30844  31.171  11.336   6.329 -0.1379  0.0013  0.2429
87829W        W30845   9.965  17.027   6.290  0.2066 -0.0641 -0.0537
87830W        W30846  10.380   7.447  15.169 -0.2089  0.0704 -0.1699
87831W        W30847   2.025   3.464   6.005  0.2807  0.2066 -0.1776
87832W        W30848  12.731   4.405   4.658 -0.0877  0.0960 -0.0122
87833W        W30849   0.718   7.429   3.971 -0.3620  0.2167 -0.0272
87834W        W30850   7.573  29.172   3.488 -0.0626  0.1038  0.0662
87835W        W30851  23.080  29.645  28.059 -0.1146  0.1234  0.1653
87836W        W30852   4.234  34.561   8.871  0.0939  0.0208  0.2046
87837W        W30853  11.817  34.526   3.543 -0.0517 -0.1118 -0.2273
87838W        W30854   0.041  33.711  24.379 -0.1399 -0.0701 -0.1949
87839W        W30855   7.850  17.475  16.484  0.0128 -0.0601 -0.1641
87840W        W30856   4.033  12.267   8.296 -0.3615 -0.1349 -0.1175
87841W        W30857   7.754  24.779  27.578 -0.4790  0.0836  0.3642
87842W        W30858  18.348  30.952  14.895  0.3738 -0.0991 -0.0035
87843W        W30859  33.185  31.866   2.485 -0.1331  0.1211  0.2138
87844W        W30860   9.533  12.158   3.857 -0.0026 -0.1466  0.1060
87845W        W30861   3.557  30.118   9.733  0.0089 -0.3677 -0.1495
87846W        W30862  10.323  22.431   1.266 -0.0438  0.0820  0.0710
87847W        W30863   2.089  33.418   7.426  0.2567  0.0765 -0.2013
87848W        W30864  23.472  33.055   4.013 -0.1037  0.3798 -0.0566
87849W        W30865  22.958  31.874   9.088 -0.2779  0.0450 -0.1341
87850W        W30866  18.692   8.968   5.544 -0.3784 -0.1889  0.1755
87851W        W30867   5.064  11.591   5.637  0.2652  0.1287  0.0464
87852W        W30868   8.668  17.829  21.265  0.0071 -0.1195  0.1349
87853W        W30869   3.793  16.866  22.533  0.1935 -0.1484  0.0848
87854W        W30870   2.801  34.140   5.365 -0.2996  0.0823 -0.1036
87855W        W30871  13.181   8.824   2.927  0.1536  0.2019  0.3965
87856W        W30872  12.028   9.410  20.483 -0.2719 -0.0191  0.1839
87857W        W30873  14.531  31.396  28.808 -0.2103 -0.5233 -0.2931
87858W        W30874   4.947   2.959   7.678 -0.2407 -0.2796 -0.0088
87859W        W30875  15.577  27.492   8.101 -0.0680 -0.0168 -0.2884
87860W        W30876  11.105   4.491  27.316  0.0588 -0.0130 -0.0489
87861W        W30877  16.868  14.057   3.464 -0.2593  0.0975 -0.0775
87862W        W30878   2.739  19.714  18.569  0.0354 -0.2126 -0.1941
87863W        W30879  11.181   2.852   6.557  0.0543 -0.1270 -0.4190
87864W        W30880  24.399  19.420   2.809  0.2620 -0.0519 -0.0130
87865W        W30881  31.812  31.949   6.075 -0.2648  0.1413  0.2793
87866W        W30882  10.231  11.378  18.632  0.0145  0.2744 -0.2539
87867W        W30883  16.204  13.974   2.956 -0.1375  0.0046  0.3362
87868W        W30884  19.935  18.965  23.309 -0.0750 -0.1029  0.2178
87869W        W30885   7.614   8.289  17.414 -0.0659  0.0610  0.1073
87870W        W30886  22.655   7.270  27.036  0.1993 -0.1838  0.2502
87871W        W30887  13.435  34.005  26.022 -0.0442  0.2822 -0.1768
87872W        W30888  21.383  21.008   1.020  0.1797 -0.0948 -0.2051
87873W        W30889  19.088   6.465   8.846  0.2988  0.0414 -0.0526
87874W        W30890  14.324  22.307  19.760 -0.1968  0.0890 -0.0341
87875W        W30891  29.875   5.039  27.069 -0.0618  0.3450 -0.0877
87876W        W30892  25.627  33.387  29.101 -0.0176 -0.1647 -0.2029
87877W        W30893  16.386   7.392   8.180  0.1723 -0.3752  0.0690
87878W        W30894  11.648   4.096  25.546 -0.0155  0.3426  0.2156
87879W        W30895   8.489  13.455  22.524 -0.2399  0.3675 -0.2244
87880W        W30896  24.931  30.756   7.214  0.1227 -0.2189 -0.1234
87881W        W30897   4.422  26.554   3.067  0.2814  0.0008  0.1024
87882W        W30898   9.973   0.452   8.002  0.1427  0.2531  0.0744
87883W        W30899  24.543  11.910  21.687  0.0175 -0.0608  0.1199
87884W        W30900  22.575  26.279   3.164  0.1667  0.0128 -0.1318
87885W        W30901  12.138  32.001  15.737 -0.0655 -0.0058 -0.3335
87886W        W30902   5.384   5.182  22.440 -0.2141  0.1181 -0.0407
87887W        W30903   5.435   9.989   7.732  0.2927 -0.0162 -0.1583
87888W        W30904  19.689  20.707  21.263 -0.1822 -0.1473  0.1231
87889W        W30905   5.484   6.751   4.568 -0.1458  0.2606 -0.0155
87890W        W30906   2.758   4.429  27.104  0.1233  0.1495 -0.2105
87891W        W30907  18.003  34.523  25.441 -0.0645  0.0911  0.1030
87892W        W30908   0.879  22.636  28.307  0.0753  0.2067 -0.2721
87893W        W30909  24.584   2.708  27.379 -0.4365  0.2389  0.3152
87894W        W30910  10.873  12.510  22.831  0.2133  0.0296 -0.1578
87895W        W30911  27.860  15.439   8.661 -0.3267  0.1608  0.0380
87896W        W30912   2.974  33.818  29.183 -0.3116 -0.1376 -0.1003
87897W        W30913  25.817   2.825   8.114  0.0345  0.1892 -0.0050
87898W        W30914  22.948   7.287   6.097  0.3710  0.0393 -0.0300
87899W        W30915  17.811   6.156   8.917  0.0727 -0.0849  0.0300
87900W        W30916  17.185   4.667  25.575  0.0663 -0.0729  0.1407
87901W        W30917  18.033  22.991   1.625 -0.2114 -0.2824  0.0320
87902W        W30918  11.841  26.798   2.026  0.2972  0.0198  0.0422
87903W        W30919  19.008  34.556   0.720  0.2038  0.3467  0.2344
87904W        W30920  29.628  24.317   2.176  0.0414 -0.2575 -0.1213
87905W        W30921  14.666   9.611   1.678 -0.2752  0.1410 -0.0394
87906W        W30922   2.313  14.440   1.920  0.2610 -0.1896 -0.0117
87907W        W30923   3.005   9.364   8.939 -0.1804 -0.0575  0.3665
87908W        W30924  20.844  26.351  27.003  0.1332 -0.0743  0.1564
87909W        W30925  33.897   4.632  27.804  0.0401 -0.0947  0.1374
87910W        W30926  33.563   2.887  26.981  0.0084  0.2275 -0.0797
87911W        W30927  31.882   6.490   3.823 -0.0527 -0.2471  0.0982
87912W        W30928  13.107   1.080  10.062  0.0743 -0.0844 -0.1337
87913W        W30929   6.434  11.439  26.617  0.1793  0.0003 -0.1093
87914W        W30930  12.527  11.206  28.662  0.0196 -0.0437  0.2405
87915W        W30931  30.476   1.835  21.942 -0.0546  0.3001  0.1431
87916W        W30932   9.781   2.999  28.393 -0.0987 -0.0504  0.0663
87917W        W30933   0.317   9.152   3.651  0.0594  0.0432 -0.0719
87918W        W30934   0.407  26.211   4.644  0.0849  0.0163 -0.0672
87919W        W30935  14.287  10.205  24.938 -0.0220  0.3134 -0.1366
87920W        W30936  12.154  13.258  25.071  0.1012 -0.0280  0.0314
87921W        W30937  32.400   9.594   5.644 -0.0505  0.2294 -0.0242
87922W        W30938  17.048  23.353  22.566  0.1496  0.0854  0.1624
87923W        W30939  25.062   0.913  24.347 -0.2738  0.2299 -0.0862
87924W        W30940  23.955   7.288   9.406  0.2765  0.2676  0.3966
87925W        W30941  12.829  29.697   2.712 -0.0673 -0.2632 -0.0819
87926W        W30942  20.751  18.520  20.868  0.1507  0.1139  0.1837
87927W        W30943  34.329  22.034  28.637  0.0266 -0.0048 -0.0104
87928W        W30944  15.097  11.837   7.963  0.1163  0.0426  0.2288
87929W        W30945  10.643   7.372   3.207  0.0855 -0.0906 -0.1042
87930W        W30946  16.556  21.773  26.935 -0.0701  0.0996 -0.3536
87931W        W30947  28.007  12.699   7.440 -0.3618  0.1232 -0.1819
87932W        W30948   3.300   6.553   5.831  0.2299  0.1341  0.2451
87933W        W30949  16.794  19.339   7.775  0.2054 -0.1139 -0.4255
87934W        W30950  30.920   6.120   4.378 -0.0437  0.2264  0.0203
87935W        W30951  14.745   2.600   7.528  0.1350  0.1088 -0.2178
87936W        W30952  14.124   0.834  27.331  0.6531  0.0050 -0.1278
87937W        W30953   9.781  10.594   7.027 -0.1108  0.0879 -0.2606
87938W        W30954   2.649  27.761   8.989  0.0439  0.1372  0.0873
87939W        W30955  20.982  14.500   2.529  0.4146  0.0661  0.0005
87940W        W30956   5.600  28.656   8.955  0.0410 -0.0397  0.3597
87941W        W30957  16.520  30.490  28.370  0.0508 -0.3227 -0.1506
87942W        W30958   2.254   8.878   2.248 -0.0108  0.2036 -0.4082
87943W        W30959   3.748   6.751   5.665 -0.0438  0.4010  0.2484
87944W        W30960   5.058   1.265  26.433  0.2329 -0.4030 -0.1744
87945W        W30961  17.669  27.716  18.847 -0.0485  0.0857 -0.0635
87946W        W30962  15.264   9.794   8.557  0.0681 -0.3199 -0.2405
87947W        W30963  17.301  32.575   3.745 -0.2243 -0.0190 -0.0122
87948W        W30964   5.437  27.683   5.861  0.0414  0.1788 -0.2421
87949W        W30965  31.384   8.172   4.589  0.4053 -0.0205 -0.1575
87950W        W30966   1.985  12.927  28.600 -0.1353 -0.4748  0.2323
87951W        W30967  29.204   5.919   9.008 -0.1522 -0.0322 -0.1328
87952W        W30968  12.077  31.981  25.061  0.1756  0.2963 -0.0333
87953W        W30969  17.652   8.408  24.243  0.0936 -0.4234 -0.0865
87954W        W30970  16.673  32.906  26.109 -0.0633 -0.2557 -0.0660
87955W        W30971  16.316   6.490  22.742 -0.1940  0.0374  0.1901
87956W        W30972   7.194   9.745   5.422 -0.2113 -0.0809  0.0967
87957W        W30973  16.674  10.320  24.150 -0.2514 -0.1348  0.0587
87958W        W30974  11.796   9.577   6.099  0.3039 -0.4555  0.1272
87959W        W30975  11.736   4.620  25.973  0.0933 -0.3345  0.1953
87960W        W30976  14.704   1.329  27.057  0.1724 -0.1599  0.0135
87961W        W30977   1.049   3.396  25.415  0.0239 -0.2963 -0.2149
87962W        W30978  17.461  13.934  21.536  0.1603  0.2996  0.1050
87963W        W30979   4.383   5.489   9.527  0.0381 -0.0670 -0.2430
87964W        W30980   9.846  19.719  27.732 -0.0254  0.3065  0.1747
87965W        W30981  20.599  29.679  25.348  0.2083  0.0527  0.0936
87966W        W30982  14.080   6.372  29.299 -0.1166  0.3984 -0.1290
87967W        W30983  14.620  16.070   3.624 -0.0919 -0.1286 -0.0859
87968W        W30984  18.160  22.314  25.554 -0.1228 -0.3083  0.3818
87969W        W30985  12.963  21.678  20.285  0.0782  0.0259  0.0382
87970W        W30986  13.008  11.797  24.119  0.1212  0.0730 -0.0995
87971W        W30987  31.752  34.723   3.055 -0.2948 -0.0003 -0.1264
87972W        W30988  28.188  10.053   1.204 -0.1398  0.0228  0.1650
87973W        W30989  18.803  22.945   3.615  0.0172  0.0947  0.4565
87974W        W30990  21.268  21.671   9.493  0.2352 -0.1206 -0.0184
87975W        W30991  21.401  25.333  26.790 -0.1552  0.0466 -0.0019
87976W        W30992  12.713  27.745   3.279  0.2319  0.2036 -0.0883
87977W        W30993   8.850   9.971   9.418  0.1406 -0.0505 -0.0314
87978W        W30994  31.189   6.835  23.771  0.0637 -0.2563 -0.2138
87979W        W30995   5.216  23.830  24.620 -0.4136 -0.2304  0.0400
87980W        W30996   6.939   6.055   4.438 -0.0712  0.1752  0.0830
87981W        W30997  32.117  11.633   8.851  0.0573 -0.0179  0.0321
87982W        W30998   9.937  27.694   5.388  0.1153  0.0040 -0.1266
87983W        W30999   0.624  34.292   4.984 -0.0994  0.2012 -0.0945
87984W        W31000   4.447  26.752   9.494  0.0561  0.0477  0.1927
87985W        W31001   5.412  14.618   2.554  0.2037 -0.7003  0.2689
87986W        W31002  13.652  14.255  23.285  0.0315 -0.1055 -0.0305
87987W        W31003  14.075  22.152   2.989 -0.2575  0.1249  0.0818
87988W        W31004  27.956   4.509  18.374  0.1742 -0.1430  0.0006
87989W        W31005  19.926   7.201   5.608 -0.1831  0.3926  0.1367
87990W        W31006  26.520  30.143  28.808 -0.3152 -0.0179 -0.4367
87991W        W31007  11.242  30.667   9.689 -0.2009 -0.1709 -0.0351
87992W        W31008  11.551   7.152   6.827 -0.1978  0.2989  0.0247
87993W        W31009  34.365  12.333   5.075 -0.2023  0.1033 -0.0640
87994W        W31010  20.859   7.466   4.198 -0.2084  0.0816  0.2620
87995W        W31011  20.148  14.510  23.798  0.2474 -0.0478  0.0318
87996W        W31012   9.920  30.827  22.291 -0.2681  0.1146  0.0332
87997W        W31013  15.815   2.240   8.021 -0.1224 -0.2382 -0.0891
87998W        W31014   6.625  28.519   1.105 -0.4762  0.3031  0.1070
87999W        W31015  16.110   8.072  21.698  0.1354 -0.2172  0.2186
88000W        W31016   5.872   0.931   4.504  0.4711  0.1059 -0.0867
88001W        W31017   9.245  29.814   6.062  0.3154 -0.2253  0.0295
88002W        W31018  23.800   2.639  10.661 -0.2490  0.2333  0.3893
88003W        W31019   7.518   7.436  25.281 -0.0988  0.1269 -0.1693
88004W        W31020  13.634  28.350  18.046 -0.3368  0.2543 -0.1415
88005W        W31021   1.753  33.094   7.291  0.1462 -0.1066  0.0953
88006W        W31022  17.755   9.138  19.392 -0.2296 -0.0147 -0.1044
88007W        W31023  14.446  13.139   7.579  0.0343  0.2340  0.2632
88008W        W31024  10.187  14.872  20.368 -0.0155 -0.2010 -0.0250
88009W        W31025   5.227   9.755   8.464 -0.1854 -0.1620 -0.0609
88010W        W31026  16.920  21.038   0.116  0.1038  0.0952  0.0377
88011W        W31027  10.157   9.726  22.006 -0.2048 -0.3552 -0.0963
88012W        W31028  28.530   1.614   6.307 -0.2543 -0.0590 -0.1063
88013W        W31029   5.245  10.347   6.417 -0.1487  0.2436 -0.0772
88014W        W31030  18.533  20.140   0.235 -0.0086 -0.0835  0.1335
88015W        W31031  33.548  27.710   8.299  0.0431 -0.3254  0.2826
88016W        W31032  10.769  14.472   1.110  0.0924 -0.0237 -0.2771
88017W        W31033  19.166  12.697  26.891  0.2532  0.1115 -0.0530
88018W        W31034   8.339  34.129  27.191  0.2740 -0.0671  0.1435
88019W        W31035   8.697   7.795   4.192  0.0572  0.1332 -0.3094
88020W        W31036  16.730  29.523  23.751 -0.1545 -0.0242 -0.0156
88021W        W31037   7.552   3.461   6.331  0.2374 -0.2810 -0.1625
88022W        W31038   6.671  20.346   3.597 -0.0382  0.2790 -0.1562
88023W        W31039  25.830   1.813  23.535 -0.1088 -0.1057 -0.2196
88024W        W31040  16.156   3.540   4.238 -0.1007 -0.2393 -0.1283
88025W        W31041   2.049   5.331  22.050 -0.2392 -0.0144 -0.1941
88026W        W31042   5.105   1.079   7.784  0.1939 -0.1108  0.1130
88027W        W31043  11.130  33.572   8.202 -0.2912 -0.3600  0.1620
88028W        W31044  16.881   1.439  25.695 -0.2296 -0.0466  0.1201
88029W        W31045  15.089   0.541   3.916 -0.3420  0.1933  0.2101
88030W        W31046  31.842   1.938  21.917 -0.4181 -0.1547  0.0237
88031W        W31047  25.598  24.553  11.443 -0.1566  0.1809  0.1344
88032W        W31048  17.938   6.724  28.730 -0.1707  0.0152 -0.3330
88033W        W31049  16.427   1.141  10.210  0.2498  0.1258 -0.2123
88034W        W31050  12.627  10.041   3.699 -0.1224  0.0420 -0.5151
88035W        W31051  17.143  20.418  28.795  0.0788 -0.2955 -0.0118
88036W        W31052   4.520  11.779   5.861  0.0507  0.0611  0.0653
88037W        W31053  14.723  21.361   7.876  0.0054 -0.2241 -0.0778
88038W        W31054   4.172   0.223   8.533  0.4109 -0.1848  0.0782
88039W        W31055  10.786  18.031   4.665  0.0725  0.1377  0.0846
88040W        W31056   1.312  11.287   4.635 -0.1432  0.0911 -0.0108
88041W        W31057   5.229  24.612   1.114 -0.2034  0.0151  0.1159
88042W        W31058  11.027  16.097   2.540 -0.0525 -0.2069  0.0182
88043W        W31059   7.317  34.099  22.164  0.3709  0.2014 -0.0762
88044W        W31060  14.961  33.254   0.861 -0.1478  0.0352 -0.1650
88045W        W31061   8.897  19.584  14.322  0.0903  0.2518  0.1018
88046W        W31062   2.826   2.803   1.915 -0.1054  0.0207 -0.1038
88047W        W31063   7.357  30.871   5.201 -0.1264  0.2011  0.3978
88048W        W31064  13.998  24.433  17.447  0.4191  0.0276 -0.1686
88049W        W31065   0.307  34.224  23.019  0.0864 -0.2366 -0.4024
88050W        W31066  17.974   8.580   2.650  0.0706 -0.1499  0.2370
88051W        W31067  25.841  33.572  10.153  0.0416 -0.1835 -0.0853
88052W        W31068   4.419   1.540  28.558  0.0989 -0.0787 -0.0978
88053W        W31069  30.015   1.278   7.009 -0.0490  0.0379 -0.0899
88054W        W31070  17.682  30.403   8.829 -0.0591  0.0557  0.0049
88055W        W31071  10.170  22.108  13.143  0.0616 -0.1882  0.1633
88056W        W31072  13.641  31.996  27.130 -0.0489 -0.1475  0.0433
88057W        W31073  15.769  23.047  24.339 -0.2424  0.0434  0.2219
88058W        W31074  23.294  11.135   8.475 -0.0454  0.0521 -0.0954
88059W        W31075  12.704  34.378   1.753 -0.0793 -0.0107 -0.1530
88060W        W31076  10.715  28.167   3.480 -0.0345 -0.1585  0.1092
88061W        W31077   9.975   8.624  22.790  0.0891  0.0091  0.0107
88062W        W31078  13.727  26.078   2.210 -0.0957  0.2684  0.0522
88063W        W31079  25.923  27.070  18.947  0.0240  0.0461  0.0168
88064W        W31080  31.020   1.154  26.697 -0.0050 -0.1595  0.0719
88065W        W31081  28.364   9.801  21.854 -0.3416  0.0005  0.0789
88066W        W31082  19.427   9.501  25.502 -0.1254  0.2910 -0.2797
88067W        W31083  15.776   7.019   8.766  0.1457  0.0923  0.3384
88068W        W31084  10.233  34.366  26.928  0.1222  0.0316 -0.3017
88069W        W31085  12.606  14.159  23.675  0.1286 -0.0244  0.0579
88070W        W31086  11.411   9.043   6.375  0.0994 -0.3430 -0.3348
88071W        W31087  25.154  33.182  25.040  0.2562  0.5431  0.0041
88072W        W31088  28.551   1.498  27.181  0.0533  0.2210  0.2218
88073W        W31089  15.011  25.261   1.521  0.0447 -0.0467  0.1985
88074W        W31090  17.266  34.066  19.846  0.0573 -0.0512 -0.0225
88075W        W31091  12.264   5.820  20.823 -0.0614 -0.1740  0.2393
88076W        W31092  22.972  11.396  19.923  0.1788  0.0819 -0.0996
88077W        W31093  28.779   0.025   1.158 -0.1738 -0.2940 -0.2802
88078W        W31094  23.380   5.135   4.373  0.0875  0.1444  0.1866
88079W        W31095   7.627  11.039  28.741 -0.0479  0.1827  0.2708
88080W        W31096  15.600   9.410  26.997  0.1006  0.1551 -0.1809
88081W        W31097  10.319   2.401   3.694 -0.0734  0.1245 -0.0841
88082W        W31098  15.582   4.469  28.402 -0.0457 -0.2276 -0.1089
88083W        W31099  33.300   0.797   1.263 -0.0237 -0.3219  0.0949
88084W        W31100   2.769  33.110   8.626  0.0025  0.0479  0.2035
88085W        W31101  17.412  21.232  25.508  0.2290  0.0753  0.0685
88086W        W31102  13.652  24.532   4.039 -0.0141 -0.2047  0.0702
88087W        W31103  32.052  11.931   6.083 -0.0223  0.2010  0.1705
88088W        W31104  32.453   2.457   8.899 -0.2530  0.0661 -0.2765
88089W        W31105  16.433   3.139  24.832 -0.2489  0.1916 -0.3693
88090W        W31106  12.675  17.354  20.743 -0.2324 -0.0398  0.1593
88091W        W31107   3.817  12.901  26.908  0.1651  0.1678 -0.1216
88092W        W31108   9.099  32.627   8.247  0.0837  0.0553  0.3201
88093W        W31109  20.128  27.311  27.072 -0.0920  0.1158 -0.1204
88094W        W31110  22.963  14.379   3.014 -0.0978  0.2325  0.2469
88095W        W31111   5.749  24.247   7.554  0.0602  0.0847  0.4875
88096W        W31112   7.492  28.972  17.894 -0.3305 -0.2977  0.0994
88097W        W31113  23.099   4.922   8.929 -0.1296  0.1800 -0.2208
88098W        W31114  31.433   8.059   8.556  0.3113 -0.1678 -0.2311
88099W        W31115  10.286   0.720   4.107  0.0557  0.0494 -0.0080
88100W        W31116  19.140   4.935   7.657  0.0677 -0.0376  0.1734
88101W        W31117   5.227   9.377  29.141  0.0900  0.0767 -0.0870
88102W        W31118   6.083  27.861   3.114  0.2791 -0.0451  0.0616
88103W        W31119  29.620  27.748   3.114  0.1641  0.0425 -0.2816
88104W        W31120   4.701  33.097   4.673 -0.1193 -0.1048 -0.1055
88105W        W31121   5.127  26.893   7.099 -0.2155 -0.1403 -0.3861
88106W        W31122  34.424  32.577   9.288  0.2544 -0.0572 -0.0246
88107W        W31123  22.869  22.657   4.006  0.0559  0.0263  0.0799
88108W        W31124   7.156   2.181   1.199  0.3781 -0.2737 -0.1742
88109W        W31125   8.864  31.647   3.435  0.1476  0.1508 -0.0834
88110W        W31126   1.878  25.729   2.746 -0.0689  0.0684 -0.0848
88111W        W31127   4.426   8.800   8.522  0.2048 -0.0070  0.3803
88112W        W31128  25.445  17.249  10.194  0.1011  0.0567  0.1625
88113W        W31129  24.077   8.355   2.060  0.0167 -0.0829  0.0275
88114W        W31130   2.929   2.531   3.932 -0.0188 -0.1098  0.0359
88115W        W31131  25.185  10.247   8.023 -0.0865  0.1815 -0.0774
88116W        W31132  22.617  23.072   7.706 -0.1015 -0.2011 -0.0074
88117W        W31133   6.173   1.068   8.130 -0.2121  0.0447  0.0810
88118W        W31134  15.949   7.921   5.216  0.1124 -0.0731 -0.1265
88119W        W31135   0.095  31.122  20.638 -0.0725 -0.2526 -0.4176
88120W        W31136   7.352   1.042  25.638  0.1697 -0.0068 -0.1288
88121W        W31137  28.283  26.397   1.674 -0.3091 -0.2524 -0.1166
88122W        W31138  16.024   1.458  24.868  0.1705 -0.0372  0.1836
88123W        W31139  11.222   1.868   6.324  0.1587  0.0493 -0.0455
88124W        W31140   3.763  22.570   1.758 -0.2847 -0.3719  0.1122
88125W        W31141   8.803  31.159   3.569  0.0959  0.2299 -0.2074
88126W        W31142  23.187   6.244   3.904 -0.0531  0.1123  0.3457
88127W        W31143  31.158  16.396  10.084  0.2943  0.0811  0.2991
88128W        W31144  31.621  29.587   6.950  0.1758  0.3272  0.2009
88129W        W31145  19.123  22.787   3.248  0.0805  0.1750  0.1045
88130W        W31146  18.769  33.625  25.266  0.1279  0.0057 -0.0643
88131W        W31147  18.464   8.610   8.501 -0.0560 -0.0682  0.1863
88132W        W31148   9.795  20.898   0.608  0.0501 -0.3294  0.1414
88133W        W31149  29.684   9.025   8.059 -0.1317 -0.1363 -0.2864
88134W        W31150   9.489  10.612  27.844 -0.1981  0.1760  0.0173
88135W        W31151   6.350  13.925   1.322  0.2729 -0.0166  0.0668
88136W        W31152  11.825  31.369  24.906 -0.0654 -0.0965 -0.1239
88137W        W31153  13.108  21.404  28.438 -0.0119 -0.4173 -0.3853
88138W        W31154  13.372   4.452   2.280 -0.2024  0.0316 -0.1603
88139W        W31155  24.557  12.686   6.447  0.2909 -0.0083 -0.1725
88140W        W31156   7.634  11.382   8.450  0.4988  0.0154 -0.0719
88141W        W31157  11.342  28.998  25.418 -0.2799 -0.1770  0.2083
88142W        W31158  11.326   9.284   5.935 -0.0249 -0.5081 -0.0032
88143W        W31159  13.057  33.502   5.080 -0.0952  0.0097 -0.0281
88144W        W31160   6.500  24.492  21.621  0.2490  0.1452 -0.0657
88145W        W31161  19.138  13.815   4.776 -0.1928 -0.1086  0.3899
88146W        W31162  25.407  20.566   2.632 -0.1728  0.0576  0.1654
88147W        W31163   8.734   8.797   0.041  0.0283  0.0837  0.1198
88148W        W31164   7.464   4.193  10.831  0.0643  0.1034 -0.0425
88149W        W31165  16.867  29.715   6.706  0.0731  0.1922 -0.3908
88150W        W31166  18.974  19.802  28.622 -0.1977  0.1715 -0.0367
88151W        W31167   5.710   1.538  24.276 -0.3022  0.1522 -0.1317
88152W        W31168   7.884   2.103   4.180 -0.2696  0.0078 -0.1312
88153W        W31169  17.914  22.863   3.059 -0.0048  0.3643 -0.1365
88154W        W31170  13.228  22.879  29.049  0.2423  0.1048 -0.0211
88155W        W31171   8.343  31.315   3.370 -0.1115 -0.0048  0.1714
88156W        W31172  27.583  34.103   7.763 -0.2473  0.4267  0.0611
88157W        W31173  11.143   9.531  27.882  0.2314 -0.1877  0.2459
88158W        W31174  19.694   3.784   5.279  0.1489  0.1886 -0.0945
88159W        W31175  28.006   0.299   6.588  0.0181 -0.0114  0.1612
88160W        W31176  15.607  33.301   9.693  0.1184 -0.0918 -0.1299
88161W        W31177   2.479  15.391   5.730  0.5024  0.0716 -0.1486
88162W        W31178  17.494   5.081   2.214  0.1216 -0.1334 -0.4211
88163W        W31179  17.860  17.258  13.173  0.3707 -0.0126  0.0895
88164W        W31180  26.382  21.191  10.694  0.0453  0.1646  0.1535
88165W        W31181  14.643  32.411   7.836  0.2452  0.0145 -0.1652
88166W        W31182  19.758   4.602  21.146 -0.0460  0.0886  0.0011
88167W        W31183  12.789   7.994  19.852  0.2765  0.0613 -0.2775
88168W        W31184  15.837  13.466   0.209  0.1431 -0.2923 -0.2646
88169W        W31185   7.331   5.440   3.847  0.0209  0.2386 -0.1207
88170W        W31186  25.847  18.358  26.055  0.1494 -0.1203  0.0364
88171W        W31187   0.897   7.784   4.278  0.1171  0.1400  0.0095
88172W        W31188   2.534   4.665   5.499  0.0073 -0.0050 -0.0226
88173W        W31189  13.120  23.444  24.167  0.0371  0.0442  0.2498
88174W        W31190  12.594  34.549   1.309 -0.1155 -0.0931  0.0236
88175W        W31191  23.993  32.326   7.071 -0.1944  0.2200 -0.0260
88176W        W31192  17.079   0.365   9.847 -0.2328 -0.0130  0.1649
88177W        W31193  13.310   0.265   4.743  0.2401  0.1300  0.0847
88178W        W31194  14.903   6.501   7.195  0.0779  0.0519 -0.0364
88179W        W31195  24.847  19.686  25.252 -0.2115 -0.1572  0.1527
88180W        W31196  16.264  11.935   4.158 -0.0405  0.0713 -0.1758
88181W        W31197   6.662   0.949  20.638 -0.0751 -0.0818  0.1047
88182W        W31198   4.694   6.424   2.730 -0.0723  0.5551 -0.1534
88183W        W31199  31.947   1.247   0.862 -0.0283 -0.1544  0.1633
88184W        W31200  32.929  11.212  28.741  0.0959  0.1370 -0.0614
88185W        W31201  22.072  19.033  25.024  0.0391  0.1355  0.3085
88186W        W31202  31.066  26.060   2.799  0.0382 -0.0113 -0.1569
88187W        W31203  17.230  14.229  25.277 -0.0828  0.3774  0.2382
88188W        W31204  21.552  27.318   1.194  0.1649  0.1166 -0.0595
88189W        W31205  26.136  10.664  23.906  0.0483 -0.0269  0.0841
88190W        W31206  15.769  28.424   8.094  0.1154  0.0629 -0.1304
88191W        W31207   8.269   0.839   5.447 -0.3075 -0.0639 -0.2399
88192W        W31208  15.553   2.458   5.840  0.2206  0.0180 -0.4669
88193W        W31209  15.464   1.360  28.730  0.0676  0.1486 -0.2683
88194W        W31210   3.251  18.520   2.586  0.1190  0.4526 -0.1264
88195W        W31211   0.862  33.563   0.516 -0.0948 -0.0397  0.1475
88196W        W31212  27.330  32.290   4.534 -0.2787  0.3061  0.1969
88197W        W31213   2.850   5.831   9.597  0.0248 -0.2596  0.1955
88198W        W31214  11.541  29.890   7.734  0.3861  0.2442  0.0335
88199W        W31215  27.375   9.448   2.273 -0.0793 -0.0019 -0.0346
88200W        W31216   2.880   7.405   3.433 -0.1715 -0.1617  0.2184
88201W        W31217  26.047   0.248   6.558  0.2184 -0.0606  0.2691
88202W        W31218  18.737   1.022  10.589  0.0941  0.0621 -0.2753
88203W        W31219  12.412  34.669   4.815 -0.2110  0.0428  0.1337
88204W        W31220  10.907  33.116  24.831  0.0743 -0.4712 -0.3086
88205W        W31221   2.591   8.565   4.904 -0.0160  0.0850  0.0083
88206W        W31222  15.467   8.443   8.149  0.1084  0.4110 -0.1029
88207W        W31223  22.932   0.152   5.983 -0.1971  0.0463 -0.0096
88208W        W31224  11.096  34.308   8.956 -0.1070 -0.1181 -0.0610
88209W        W31225   4.800   7.579  29.097 -0.0087  0.1615  0.0479
88210W        W31226   1.208  23.670   5.073 -0.0372 -0.0297  0.1882
88211W        W31227   5.952   7.303  20.690  0.0725  0.3072 -0.1034
88212W        W31228  20.990   5.641  10.362  0.0562 -0.3439  0.2975
88213W        W31229  21.324  18.130   6.674 -0.5657  0.1719 -0.1577
88214W        W31230   2.088  24.492  24.299 -0.0696 -0.2178  0.2018
88215W        W31231  19.348   2.142   8.754  0.0517 -0.0505 -0.0792
88216W        W31232   2.530  33.828   6.359  0.1078 -0.2810 -0.1124
88217W        W31233  27.550  17.927   5.130  0.0599 -0.1515  0.1534
88218W        W31234  21.356   6.367   3.716  0.0370  0.0450  0.0384
88219W        W31235  13.923  34.309  10.813 -0.1797  0.1304  0.0563
88220W        W31236   4.382   2.879  20.288  0.2218 -0.1128  0.0411
88221W        W31237   8.034   6.191  27.785 -0.0476 -0.1795 -0.1962
88222W        W31238  18.971  12.516  23.295  0.0410 -0.0099  0.1141
88223W        W31239   8.157   6.835   6.831  0.0425 -0.0765 -0.3288
88224W        W31240  14.703  24.611  23.411 -0.0160  0.0430  0.1660
88225W        W31241  18.877  12.649   2.791  0.1192 -0.2092  0.2354
88226W        W31242   8.224   8.818  24.534  0.5551 -0.0250  0.0140
88227W        W31243  11.727   2.974   2.278 -0.2432  0.0306  0.0640
88228W        W31244  18.871   5.601   2.787 -0.1506 -0.0253 -0.2028
88229W        W31245  12.473  30.527  24.444  0.0716  0.1026 -0.1450
88230W        W31246  11.704   9.031  25.077 -0.2680 -0.1304 -0.0602
88231W        W31247  29.483  28.888   1.509 -0.1563 -0.0456  0.0406
88232W        W31248  10.274  12.160   4.576 -0.0308  0.0484 -0.1405
88233W        W31249  14.718   1.384   4.137 -0.3446 -0.0414 -0.3021
88234W        W31250   9.942  16.900   0.659 -0.0080 -0.2242  0.2763
88235W        W31251  24.056  18.044   2.945 -0.0582 -0.0158  0.0859
88236W        W31252  11.925  27.647   9.992 -0.0484 -0.0112 -0.2578
88237W        W31253   3.643  10.704   9.491 -0.0276  0.0387  0.2431
88238W        W31254  13.174   5.578   5.321 -0.0630  0.1013  0.4570
88239W        W31255  15.037   6.997  27.666  0.1348  0.3825  0.1944
88240W        W31256  18.337   0.197   2.068  0.1087 -0.0855 -0.3215
88241W        W31257   5.446   9.129   9.795 -0.7226  0.1322 -0.4046
88242W        W31258  15.177   4.533   4.673  0.0260  0.1190 -0.1929
88243W        W31259  20.015  21.083   4.243 -0.1189 -0.0950  0.1182
88244W        W31260   4.696  11.337   6.834  0.3481  0.0379  0.0138
88245W        W31261  10.309   0.948  27.340  0.1603  0.1126  0.0797
88246W        W31262  15.551  22.788  25.849  0.1819  0.1102 -0.3428
88247W        W31263  13.091  19.137   0.087  0.0349  0.2335  0.0403
88248W        W31264  15.601  33.521  29.179 -0.4335 -0.1944  0.1571
88249W        W31265   7.336   7.729   6.883  0.0245 -0.0379 -0.1735
88250W        W31266  12.826  26.286  26.642 -0.0183 -0.1822 -0.1094
88251W        W31267  20.821  28.406  27.058  0.2913  0.2752  0.1840
88252W        W31268  10.885  33.575  27.177 -0.3212  0.2261  0.3489
88253W        W31269  16.647   4.224   8.984 -0.2632 -0.3955  0.1782
88254W        W31270   7.567  10.447   6.919 -0.2601 -0.0514 -0.0987
88255W        W31271   4.198   3.661   3.940  0.2167  0.0261  0.1407
88256W        W31272  12.195   4.271  20.106 -0.0046 -0.1284 -0.1928
88257W        W31273  13.619   7.559   7.448  0.2640  0.3989 -0.1949
88258W        W31274   3.817  10.562   3.448 -0.3081 -0.0490 -0.4441
88259W        W31275  19.631   4.435  27.140  0.0188 -0.0645  0.1974
88260W        W31276   6.758   0.041  24.499 -0.2311  0.0921 -0.0669
88261W        W31277  11.042  34.433   5.072  0.1803 -0.1607  0.2341
88262W        W31278   9.295  25.122   5.904  0.1295 -0.0662  0.0986
88263W        W31279   1.608  10.773   8.434  0.0674  0.1815  0.1724
88264W        W31280  13.189  33.815  28.431 -0.0939  0.0090 -0.2922
88265W        W31281  15.706   0.604   9.119  0.0059 -0.3028  0.3591
88266W        W31282  26.964  28.627   6.862  0.1124  0.1907 -0.2703
88267W        W31283  27.383   9.359   5.712  0.2049  0.1269 -0.2090
88268W        W31284  21.284  27.382   9.070  0.0998  0.0579  0.2091
88269W        W31285   6.555   4.174  23.758 -0.1209 -0.0770 -0.0428
88270W        W31286  21.014   6.156   4.984  0.2784 -0.2714 -0.3458
88271W        W31287  10.666  10.025  25.012  0.3434 -0.0462 -0.0088
88272W        W31288  14.195  31.961  27.028  0.0003  0.1208  0.3422
88273W        W31289  24.087  30.630  20.844  0.0205  0.0866  0.0441
88274W        W31290  27.397   4.030  25.643 -0.1792 -0.1830 -0.1523
88275W        W31291   8.693  30.197   5.115  0.2341 -0.0057 -0.0205
88276W        W31292   3.407  30.717   5.743  0.1301 -0.0602  0.1328
88277W        W31293  34.013  34.699   9.675 -0.3219  0.0840  0.1205
88278W        W31294  18.353  16.269  23.296  0.0062  0.0670  0.2818
88279W        W31295   7.195   7.745  18.051  0.2343  0.1986  0.1395
88280W        W31296   9.857  26.517   3.666 -0.1175  0.1654  0.1901
88281W        W31297  16.708  23.050  28.139  0.2223  0.2140 -0.1718
88282W        W31298  11.158   4.860   2.684 -0.2395 -0.1402  0.1566
88283W        W31299   7.352   6.335   9.123  0.1938 -0.1192 -0.3663
88284W        W31300  15.412  26.489   2.228  0.1895  0.2988  0.1112
88285W        W31301  10.998   5.351   1.443  0.2890 -0.3352  0.0628
88286W        W31302   9.532   6.117   3.480 -0.2383  0.1262  0.1354
88287W        W31303   7.721  13.789   9.088  0.1839  0.1325  0.0274
88288W        W31304   0.363  10.326   7.303 -0.0016  0.0959  0.3767
88289W        W31305  10.402   9.864  17.860 -0.0323  0.0919  0.0939
88290W        W31306   5.354  10.006   2.509  0.0272  0.1077 -0.1349
88291W        W31307   8.895  19.388  28.679  0.0032 -0.1228 -0.1670
88292W        W31308   9.183   4.543  10.368  0.3020 -0.0165  0.1522
88293W        W31309  16.922  30.994   1.653 -0.3452  0.0059  0.2338
88294W        W31310  11.077   7.662   5.080 -0.1187  0.2665 -0.1645
88295W        W31311  34.498   3.408  24.366 -0.0747  0.3796 -0.3818
88296W        W31312   9.795   4.122   6.865 -0.0180  0.0841  0.0011
88297W        W31313  34.137  28.123  25.938  0.0091  0.1464  0.0907
88298W        W31314   3.376   5.127   2.432  0.0924  0.0905 -0.1427
88299W        W31315  33.236  34.592  21.838  0.1453  0.1038 -0.2193
88300W        W31316  16.694   3.776   9.355 -0.3837  0.1576 -0.1032
88301W        W31317   7.248  14.356  23.416 -0.1736  0.0439  0.0051
88302W        W31318  22.908  25.745   5.232 -0.1675 -0.0497 -0.1017
88303W        W31319   8.569   8.393   7.873 -0.1199  0.1100 -0.1231
88304W        W31320  15.729  18.583  29.198  0.1925  0.0066 -0.1573
88305W        W31321  24.508   8.403  29.035 -0.0987  0.1785  0.0314
88306W        W31322  18.464   9.304  20.540  0.1794  0.1386  0.1846
88307W        W31323  10.724  31.100   8.033  0.0923  0.0735 -0.0341
88308W        W31324  30.460  30.115   3.354  0.2058 -0.0899  0.0696
88309W        W31325  23.881  11.869   1.167  0.2115  0.0346 -0.0035
88310W        W31326   2.861  18.967  20.197 -0.1789 -0.0863 -0.0905
88311W        W31327  28.650  14.052  18.643 -0.0264 -0.0347  0.0571
88312W        W31328   8.628   1.206   5.870  0.0617 -0.0665  0.1192
88313W        W31329  10.726   4.499   3.371 -0.3133  0.0955 -0.0580
88314W        W31330  12.599   6.114   2.704  0.1936  0.0971  0.3150
88315W        W31331  26.846  33.429  29.042 -0.1194  0.0351 -0.2012
88316W        W31332  11.571  31.147   1.863  0.1642  0.1033  0.0660
88317W        W31333  15.883   4.165   7.114 -0.1361 -0.0935  0.1274
88318W        W31334  17.468  13.894   6.240 -0.1945 -0.0601 -0.0780
88319W        W31335  26.156  27.168   5.106 -0.0925  0.0656  0.1195
88320W        W31336  15.157  31.961  24.797  0.2707  0.1184  0.1494
88321W        W31337   2.761  20.096  15.821  0.0798  0.1963  0.0038
88322W        W31338  18.254  33.805   9.604 -0.0753  0.1436  0.0283
88323W        W31339   2.864  16.664   4.319 -0.3225 -0.0525  0.2997
88324W        W31340  11.179  26.341   2.637 -0.0891 -0.1081  0.0581
88325W        W31341  24.136   9.797   2.362  0.0345  0.0129  0.1065
88326W        W31342   4.209   6.340  22.791  0.0321 -0.0060 -0.2881
88327W        W31343  21.692  13.623   8.032 -0.2762 -0.0160 -0.1234
88328W        W31344   7.916  28.209   6.379 -0.1092  0.2709  0.2873
88329W        W31345   7.411  33.662  28.899 -0.0582 -0.0667  0.1263
88330W        W31346  23.965   9.078   6.039  0.2128  0.0919 -0.1041
88331W        W31347  19.854  33.361   1.944  0.0712 -0.0310 -0.0699
88332W        W31348  23.635  28.887   2.569 -0.1456 -0.0062  0.1482
88333W        W31349  15.003   3.666  10.108  0.0052  0.0237 -0.2486
88334W        W31350   6.993   6.373  29.084  0.2601 -0.1755 -0.0227
88335W        W31351   0.756  33.780   7.971  0.1564 -0.0708  0.1227
88336W        W31352  17.066  33.130  10.313 -0.3151  0.4720  0.4160
88337W        W31353   4.190  11.454   7.020 -0.2030  0.1143 -0.1304
88338W        W31354  16.092  10.631  16.018 -0.0677  0.1236 -0.0969
88339W        W31355  10.111   5.613   6.610  0.3158  0.0786 -0.1811
88340W        W31356   8.549  28.304  10.586  0.1520  0.1721 -0.1342
88341W        W31357   5.964   3.176   9.808 -0.0314  0.3166  0.0904
88342W        W31358  24.800  14.457   0.037 -0.0855 -0.0361  0.3017
88343W        W31359  10.971  19.341   5.699 -0.0411  0.1212 -0.1937
88344W        W31360   6.576  11.900   7.523 -0.0587  0.2066 -0.0273
88345W        W31361  14.275  27.845   7.302  0.1072  0.0474 -0.2782
88346W        W31362  20.960  12.387   8.440  0.1938 -0.1051  0.0247
88347W        W31363  33.024  16.787   6.014  0.1702  0.2090  0.0515
88348W        W31364  12.563   4.475   3.345 -0.2789  0.0047 -0.0486
88349W        W31365  30.029   4.053   8.812  0.0267 -0.1895  0.0545
88350W        W31366  25.613   2.874  10.371 -0.0731 -0.1053  0.0785
88351W        W31367   6.134  14.228  25.468  0.0611 -0.2755  0.2292
88352W        W31368  21.702   5.828   8.409 -0.2306  0.5219  0.1112
88353W        W31369  12.996  31.917   8.262 -0.0321  0.3529 -0.0134
88354W        W31370   4.421  34.659   6.622  0.2241 -0.0699 -0.2776
88355W        W31371   2.173   1.804  20.024 -0.4431 -0.1556  0.0371
88356W        W31372  28.866   0.119   5.605 -0.2558 -0.1830 -0.0269
88357W        W31373  29.472   7.643   9.863 -0.1179  0.0845 -0.2944
88358W        W31374  16.302   5.877   5.347  0.0787 -0.2660  0.0775
88359W        W31375  21.071   7.822   7.161  0.1847 -0.1720  0.0933
88360W        W31376  13.934  33.244   8.155 -0.1708 -0.2300  0.1657
88361W        W31377  29.841  11.569  24.150 -0.3320  0.1300 -0.4759
88362W        W31378  16.186   9.099  19.840  0.2052  0.1652  0.0486
88363W        W31379  23.377   0.052   3.244  0.2554  0.2297 -0.2983
88364W        W31380   3.705  10.985  21.665 -0.1992  0.1056 -0.1112
88365W        W31381  13.968  31.032  10.843 -0.0411 -0.0332 -0.0647
88366W        W31382  10.836  20.339   7.596 -0.0389 -0.1671  0.2524
88367W        W31383  12.671  33.725  27.746 -0.3169  0.1500  0.0601
88368W        W31384  18.773  16.520  28.485  0.0009  0.1611  0.0752
88369W        W31385   5.022   5.560   0.335  0.1435 -0.0597 -0.0347
88370W        W31386  12.338  13.658   1.431 -0.3034 -0.1237  0.0367
88371W        W31387  14.214  13.328  19.369 -0.1291  0.0086 -0.2818
88372W        W31388   3.557  29.073  26.494 -0.1996 -0.0611 -0.0829
88373W        W31389  11.686  13.665  23.854  0.0598  0.3017 -0.2795
88374W        W31390   9.980  32.043   5.885  0.2175 -0.0197  0.0672
88375W        W31391  11.246   0.866  10.700  0.2317  0.1482 -0.0293
88376W        W31392  17.067   5.154   9.672 -0.2500 -0.3795  0.3296
88377W        W31393  17.580  28.034   1.453  0.2213  0.0375  0.2050
88378W        W31394   2.929  13.379   6.430  0.1095  0.0237 -0.1639
88379W        W31395   7.449   7.671   8.188 -0.0710 -0.3819 -0.2543
88380W        W31396  32.884  33.643   2.406 -0.0188  0.0789  0.3967
88381W        W31397   7.234   0.842   8.364 -0.3184  0.1005  0.0523
88382W        W31398   9.602  19.272  21.418 -0.3288 -0.1907 -0.0832
88383W        W31399  16.285  34.472   5.563 -0.1969  0.2305  0.1783
88384W        W31400   9.184  33.809   6.101 -0.1179  0.2070 -0.4392
88385W        W31401  22.141   9.791   1.827  0.3247  0.0010 -0.0339
88386W        W31402  17.961   1.133   2.110  0.2865 -0.0938  0.2708
88387W        W31403  15.848  30.854  22.775  0.1128 -0.0108 -0.1884
88388W        W31404   3.972  12.459  24.479  0.1211  0.2905 -0.2692
88389W        W31405  17.836   5.265   5.502  0.0968 -0.1125  0.0208
88390W        W31406   9.059   1.035   6.595 -0.0646  0.1355  0.0225
88391W        W31407   5.500  29.604   1.812  0.1355 -0.0209  0.3486
88392W        W31408  23.955   2.062   9.549  0.0408  0.1472 -0.1126
88393W        W31409  13.598  29.362   3.236  0.1480 -0.4185  0.0296
88394W        W31410   3.166  10.879   9.647 -0.2599  0.0300 -0.1826
88395W        W31411  19.544  32.257   1.693  0.0401 -0.0214  0.5279
88396W        W31412  13.597  24.900  23.805 -0.0587  0.1129 -0.2579
88397W        W31413  16.240   2.791  26.082 -0.0047 -0.2488  0.0052
88398W        W31414  18.291  27.486   5.628  0.2595 -0.0692 -0.0433
88399W        W31415   6.540   2.772  27.771  0.1837  0.2791 -0.1252
88400W        W31416   4.863   1.916  15.589  0.1360 -0.0293 -0.0118
88401W        W31417  21.173   0.336  18.646 -0.0335 -0.2434  0.1349
88402W        W31418  15.672  16.243  20.412 -0.2137  0.3607 -0.0609
88403W        W31419   8.122   0.211  27.296 -0.3455 -0.2436 -0.2341
88404W        W31420  31.214   7.860  26.215  0.3777 -0.0768  0.2164
88405W        W31421  21.419  11.067  27.644 -0.1578  0.2520 -0.1585
88406W        W31422  13.201   0.042   2.739 -0.0626 -0.0665  0.0644
88407W        W31423  25.365   5.968   7.850  0.1048  0.2118  0.0434
88408W        W31424   2.359   2.742   7.238 -0.0327  0.0173 -0.1471
88409W        W31425  23.686  19.837  28.078 -0.1032 -0.0459  0.1717
88410W        W31426  12.860  11.052  27.214 -0.0324  0.2269 -0.0321
88411W        W31427   6.185  17.621   5.247  0.1498 -0.2812 -0.1138
88412W        W31428  21.575   6.540   5.399  0.0940 -0.0870 -0.0105
88413W        W31429  10.836  33.326  26.303  0.1224 -0.0042  0.2023
88414W        W31430  11.316  17.357  27.465  0.3872  0.0805  0.3161
88415W        W31431  30.214   3.583   8.747  0.1718  0.2509  0.1661
88416W        W31432   7.992   4.419  22.287  0.0112  0.0372  0.2060
88417W        W31433  12.578   5.746  18.337  0.1125 -0.0808  0.2630
88418W        W31434   8.075   0.253   5.124 -0.0216  0.0295  0.0638
88419W        W31435  34.778  32.288   0.026 -0.3829 -0.0242 -0.1342
88420W        W31436  12.659  29.128   8.944 -0.2619 -0.1095 -0.0765
88421W        W31437   7.667  32.329  15.673  0.2967  0.0971  0.3539
88422W        W31438  18.751  11.852   8.987  0.0899  0.3141 -0.0316
88423W        W31439  11.725   8.829  14.348  0.1068  0.0034 -0.1312
88424W        W31440  24.678   0.775   9.422 -0.0708  0.1195  0.2095
88425W        W31441  15.011  23.368   8.396 -0.4800  0.1481  0.0038
88426W        W31442  12.369  11.031   2.296  0.2256 -0.0701  0.2222
88427W        W31443   5.910  32.507   7.349 -0.1022 -0.2123 -0.3766
88428W        W31444  22.462  13.468   6.576  0.0866 -0.1415 -0.4053
88429W        W31445  10.949  21.488  25.951 -0.1365  0.2471  0.0128
88430W        W31446  32.901  13.589  27.696 -0.0341 -0.0522  0.0342
88431W        W31447  12.189  17.521  25.488 -0.2591  0.0644 -0.3364
88432W        W31448  22.501   9.735  20.815 -0.2149 -0.2064 -0.1740
88433W        W31449  21.040   3.631  28.191  0.1751 -0.0704 -0.0248
88434W        W31450   7.827  14.023  22.908 -0.1864 -0.2773 -0.2781
88435W        W31451   5.377   7.623  28.343 -0.0038  0.0132 -0.2592
88436W        W31452  19.305  10.101   9.582 -0.0539 -0.1075  0.2190
88437W        W31453   5.290   8.854   2.075  0.0478  0.4828  0.0969
88438W        W31454  25.761  31.823   7.250  0.2121  0.3949  0.3012
88439W        W31455  14.038   5.046   0.725  0.0699 -0.0082 -0.0253
88440W        W31456  21.861  12.159  18.219  0.0274  0.1541  0.0061
88441W        W31457   7.859   7.813  17.649  0.0108  0.0929  0.0925
88442W        W31458  11.189  22.704  25.324 -0.1139 -0.0058 -0.2191
88443W        W31459  20.397   3.958  29.305  0.0517  0.2738  0.1062
88444W        W31460  19.632  15.486  19.517 -0.0282  0.1576  0.2209
88445W        W31461  22.742  21.733  20.290  0.0421  0.0195  0.0325
88446W        W31462  13.852   3.495  18.705  0.4228 -0.4499 -0.5084
88447W        W31463   3.449  15.308   1.225  0.1098 -0.0705 -0.2075
88448W        W31464  19.618  30.354  18.950 -0.4710 -0.3646  0.1109
88449W        W31465   4.197  10.202   3.787  0.0204 -0.2490 -0.1259
88450W        W31466  33.986   0.870   4.454 -0.0443  0.0342  0.1251
88451W        W31467  13.965  14.617  14.130 -0.0616 -0.3571  0.0092
88452W        W31468  11.676  17.923  15.421  0.3295 -0.0056  0.3096
88453W        W31469  17.153  14.621   8.430 -0.0184 -0.0041  0.0893
88454W        W31470   8.229  18.295  27.198  0.1724 -0.1875 -0.0304
88455W        W31471  11.977  30.651  21.962  0.0771 -0.0904 -0.0006
88456W        W31472   8.204  13.599   7.409 -0.0004 -0.1464 -0.1412
88457W        W31473  22.918  23.852  17.981  0.1692  0.0804 -0.2921
88458W        W31474  22.815   0.686  24.943 -0.0916  0.0636 -0.2824
88459W        W31475   0.882  15.116  28.837  0.3360 -0.0539  0.0059
88460W        W31476  14.139  22.853  17.743 -0.2888 -0.1589 -0.2399
88461W        W31477  21.439  28.720   9.155  0.0710 -0.0658 -0.3603
88462W        W31478  11.239  14.337   6.547 -0.0597 -0.1489  0.0140
88463W        W31479  16.490  32.147   7.000  0.0311 -0.0449  0.1489
88464W        W31480   7.360   5.543   4.720  0.2144  0.2523  0.1637
88465W        W31481  16.001  30.630   7.840 -0.1207  0.2760 -0.1799
88466W        W31482  23.437   9.103  16.059 -0.0979 -0.2498  0.0125
88467W        W31483  11.466  31.864   8.472 -0.1691  0.3750 -0.0354
88468W        W31484   6.177   4.956   5.280 -0.1192 -0.1851 -0.2047
88469W        W31485  15.220   6.355  28.377 -0.0596  0.2136 -0.2224
88470W        W31486  15.701  27.404  26.497  0.0816  0.5081  0.1297
88471W        W31487   7.468  30.467   4.540 -0.3480  0.1864 -0.0305
88472W        W31488  16.257  20.508  25.648 -0.3397 -0.0639  0.0666
88473W        W31489   3.171  18.447   8.661 -0.1684 -0.2344 -0.3047
88474W        W31490  23.509   2.007  27.469 -0.0780 -0.2552 -0.0202
88475W        W31491  13.068   1.414   9.620  0.0247 -0.0488  0.0451
88476W        W31492  15.030   2.706  25.379  0.0298  0.1754 -0.0584
88477W        W31493  14.112  11.155   1.921 -0.3016  0.0090 -0.1517
88478W        W31494   7.863  11.426   4.379 -0.1088  0.0463  0.2814
88479W        W31495  23.465   2.522  22.194 -0.0136  0.0145  0.3142
88480W        W31496   6.742   6.835   9.894  0.3643  0.1105  0.2803
88481W        W31497  10.716   5.238   5.560 -0.1192  0.1332 -0.1131
88482W        W31498   1.568   4.225   5.554 -0.0863  0.2108  0.2861
88483W        W31499  10.592  24.722   6.713 -0.1938 -0.3209 -0.3380
88484W        W31500   7.394  16.608   0.683  0.1858 -0.1303  0.0172
88485W        W31501   8.382   3.106   1.467  0.0895  0.1528 -0.1623
88486W        W31502  12.942  33.686  25.856 -0.0966 -0.1124  0.1768
88487W        W31503  28.125   3.950  18.661  0.0868  0.2926  0.1616
88488W        W31504  10.028  21.709  21.253  0.2134 -0.1403 -0.0398
88489W        W31505  13.757   3.778  23.792  0.0089 -0.1269 -0.0044
88490W        W31506   1.485  27.223  10.586 -0.2161 -0.2931  0.1668
88491W        W31507  30.674  34.596  16.740  0.1387  0.3291 -0.3158
88492W        W31508  31.553   0.598   9.654  0.0353 -0.3659 -0.0175
88493W        W31509   8.161   4.084  28.494 -0.0292 -0.0444 -0.1180
88494W        W31510  20.819  22.642  17.210 -0.2946  0.0396 -0.0830
88495W        W31511   0.156  13.199  24.753  0.0204 -0.2518  0.2801
88496W        W31512  31.908   2.666   2.240  0.2482  0.0428  0.2478
88497W        W31513   9.852  25.172  21.884 -0.2696 -0.0583 -0.0877
88498W        W31514  12.438   0.524  26.666  0.0016  0.2485 -0.1803
88499W        W31515   2.992   5.517  24.373 -0.1897 -0.0735  0.2858
88500W        W31516  12.460  14.008  20.901  0.1224  0.0273  0.4154
88501W        W31517   6.239   3.171  20.071 -0.0496  0.1122 -0.1496
88502W        W31518   1.708   0.765   8.776 -0.0300 -0.1522  0.0679
88503W        W31519   8.188   0.746   0.829 -0.1379 -0.0068  0.3153
88504W        W31520  13.931  27.865   8.299  0.1250 -0.0602 -0.0452
88505W        W31521  16.922   1.879   0.632 -0.0716 -0.0988  0.1662
88506W        W31522   1.430   4.261  20.382 -0.2202 -0.0752 -0.0823
88507W        W31523   3.427   7.756   5.691  0.2767 -0.3789  0.0146
88508W        W31524  34.461  34.587  18.437 -0.1168  0.1979  0.1891
88509W        W31525  10.047  25.504  27.598 -0.1407  0.0028  0.2784
88510W        W31526  17.803   7.674   7.453  0.1329  0.4350  0.1381
88511W        W31527   3.640  12.606   7.313 -0.3523  0.1294  0.1230
88512W        W31528   5.538  11.673  19.628 -0.0468 -0.2215 -0.1321
88513W        W31529  26.642  12.482  28.052  0.1255  0.1189  0.3891
88514W        W31530  15.199  27.934   3.216 -0.0780 -0.0039  0.1321
88515W        W31531  22.777   3.925   0.828 -0.3156  0.4163  0.0310
88516W        W31532  10.017  26.059   2.449 -0.3276  0.3914 -0.3492
88517W        W31533  11.597   7.078  28.728 -0.1628  0.3062 -0.2147
88518W        W31534  32.448  26.287   4.285 -0.1563 -0.3335  0.1512
88519W        W31535   6.678   1.838  24.217  0.0925  0.2689  0.0828
88520W        W31536   8.937  26.093  27.953  0.2851 -0.1411  0.0854
88521W        W31537   3.026   3.302  23.610  0.1141  0.2223  0.0186
88522W        W31538   1.781  27.871   5.320  0.1892 -0.2217  0.0742
88523W        W31539  12.506  32.615   8.860 -0.2180  0.0044 -0.2838
88524W        W31540  27.721   5.341  26.716 -0.0273  0.3913  0.1651
88525W        W31541   8.281  22.117   3.260  0.1602  0.2891 -0.0198
88526W        W31542   7.609  29.855   2.760 -0.0626  0.1178  0.0742
88527W        W31543  32.823  25.353  25.426 -0.0934  0.1613 -0.0840
88528W        W31544   9.776   6.890  28.863 -0.0693 -0.1037  0.2044
88529W        W31545  10.772   6.593   7.984  0.1332  0.1075  0.3514
88530W        W31546   6.925  23.960  17.347 -0.0025  0.1321  0.0049
88531W        W31547  19.096  31.062   8.383  0.1137  0.0752 -0.1343
88532W        W31548   2.850   0.790  15.025 -0.1292 -0.0993 -0.0823
88533W        W31549  21.135   8.085  19.574  0.1458 -0.0970 -0.0001
88534W        W31550  20.378  21.240  23.002  0.2682 -0.0025  0.0931
88535W        W31551   7.034   4.579   0.580  0.1632 -0.3158 -0.0887
88536W        W31552  19.922   2.743  19.505 -0.1495  0.0390  0.1455
88537W        W31553  11.005  33.480  21.735  0.0529 -0.1435  0.0150
88538W        W31554  13.191   3.728  23.583  0.1365  0.3854  0.1428
88539W        W31555  24.397  17.300   5.294 -0.0838  0.2486 -0.0858
88540W        W31556  11.678  11.853  12.645  0.1858  0.1537 -0.1976
88541W        W31557   9.054   8.870   8.656  0.2678  0.0828 -0.1179
88542W        W31558  16.573  12.141  26.158  0.1405  0.0286  0.3213
88543W        W31559  14.332   4.582  21.498 -0.2284  0.0588 -0.0498
88544W        W31560  21.598  11.032   0.520 -0.1530 -0.2054 -0.2613
88545W        W31561  19.693  23.448  18.697  0.1243  0.1699  0.1046
88546W        W31562  11.411   3.452   8.690 -0.2675  0.0296 -0.1631
88547W        W31563   7.347   2.213  10.331  0.0004 -0.1170 -0.0162
88548W        W31564  19.250   8.719   5.902 -0.2928  0.0726 -0.0794
88549W        W31565  10.611   9.798   9.931  0.3322  0.2174  0.0299
88550W        W31566  18.749  31.212  28.778  0.3755  0.0553 -0.1312
88551W        W31567  11.649   8.209   2.241 -0.1131 -0.2745  0.2658
88552W        W31568  31.798   9.226   8.598  0.1245  0.0378 -0.1375
88553W        W31569   3.692   4.125   5.172 -0.1655 -0.1361  0.0556
88554W        W31570   5.066   5.196  15.598  0.1802 -0.1508  0.0424
88555W        W31571   6.953   8.519   1.378  0.1882 -0.3323 -0.1543
88556W        W31572  11.619  30.629  27.846 -0.0221 -0.0248  0.1627
88557W        W31573  17.194  12.063   4.388 -0.1103 -0.1187  0.0637
88558W        W31574   1.069   6.430  24.057 -0.3603 -0.0144  0.2162
88559W        W31575  32.472  33.534   2.627 -0.1748 -0.1190 -0.1864
88560W        W31576  22.413   7.977  17.349  0.0014 -0.2187  0.1200
88561W        W31577   3.325  10.405   7.428 -0.0016  0.2399 -0.2463
88562W        W31578   6.668  12.785  24.160 -0.0892 -0.1188  0.4803
88563W        W31579  18.834   8.541   5.150 -0.0780 -0.1109 -0.0477
88564W        W31580  21.946  13.997   3.672 -0.0531 -0.0445 -0.2992
88565W        W31581  25.497  25.541  23.018 -0.0691 -0.2905  0.1687
88566W        W31582   8.348   0.513  19.926  0.0491  0.1768 -0.0741
88567W        W31583  28.976  30.207   6.987  0.0307  0.0280  0.1861
88568W        W31584  15.020  34.379  27.694 -0.0553 -0.0808 -0.1580
88569W        W31585   9.181   0.533  23.956 -0.0114  0.1221 -0.2044
88570W        W31586  25.723   8.239  10.618 -0.3528 -0.1025  0.0959
88571W        W31587  19.246   9.323  19.739 -0.4171 -0.0630 -0.0693
88572W        W31588   0.969   8.259   4.091 -0.0351 -0.0954 -0.0192
88573W        W31589  25.715  13.263   0.381 -0.0814 -0.1398 -0.0773
88574W        W31590  12.284  27.120   4.480  0.1815  0.0896  0.1265
88575W        W31591  34.654  13.628   9.490  0.0577  0.2306 -0.0751
88576W        W31592  10.662  10.350  24.478  0.2084  0.0961 -0.0802
88577W        W31593  30.262  16.370   7.590 -0.1522  0.0184 -0.0394
88578W        W31594  11.893  33.500  28.234 -0.0324 -0.1945  0.1058
88579W        W31595   4.074   4.891  18.984  0.0993  0.0216  0.1515
88580W        W31596  33.935   0.713  18.137  0.3357  0.0303  0.1341
88581W        W31597   5.081  17.109  17.977  0.0581  0.1251 -0.0473
88582W        W31598  15.892   8.167  25.493 -0.2873 -0.1886 -0.0082
88583W        W31599  23.642  27.602  25.023  0.3142 -0.1080 -0.0107
88584W        W31600  10.075   2.418  15.629 -0.2627  0.1013  0.1901
88585W        W31601  11.002  19.174  18.524  0.0304 -0.2791  0.1035
88586W        W31602  15.664   2.533  21.465 -0.0279 -0.1645  0.0073
88587W        W31603  10.259   7.875  23.186 -0.0518  0.0873  0.3005
88588W        W31604  13.764  26.283   4.651  0.0384 -0.0053 -0.0084
88589W        W31605  10.350  34.632  26.471 -0.0435  0.0023 -0.1837
88590W        W31606  32.881   9.196   2.416 -0.3065  0.3288  0.1420
88591W        W31607  31.081  20.924  24.880 -0.1900  0.2573  0.0953
88592W        W31608  12.744  17.620  25.599 -0.2566  0.1787 -0.0575
88593W        W31609  13.493  24.539   2.678  0.1007 -0.1293 -0.1265
88594W        W31610  18.124  29.974  25.075  0.1071  0.0183  0.0578
88595W        W31611  14.958   7.078  18.637 -0.1403 -0.3440 -0.2053
88596W        W31612  13.102  14.802   5.112 -0.3931 -0.2297  0.0989
88597W        W31613   8.664  12.699   9.120 -0.1664  0.1373  0.1145
88598W        W31614  14.410  30.551   6.647 -0.0015 -0.1168  0.2938
88599W        W31615   7.546  16.159  14.730 -0.2250 -0.0485 -0.1441
88600W        W31616  29.543   2.337  23.525  0.1811  0.0596  0.0863
88601W        W31617  12.618   9.283  19.510  0.1203 -0.0242 -0.0942
88602W        W31618  34.329   1.163  27.781 -0.0674 -0.0056 -0.1701
88603W        W31619   5.473  12.867  18.045  0.0501 -0.0079 -0.2440
88604W        W31620  33.958  18.050   9.629  0.0928 -0.0152 -0.0023
88605W        W31621   2.278   2.581  27.564  0.1989  0.0888 -0.0690
88606W        W31622  17.115  11.656  21.339  0.0452  0.1105 -0.1008
88607W        W31623  12.525  17.011  22.306 -0.1399  0.1818  0.1747
88608W        W31624  18.405  13.905   5.868  0.2855 -0.2456  0.0190
88609W        W31625   7.103  17.833  19.564  0.1275  0.0297  0.2504
88610W        W31626  12.663   3.586   1.169 -0.1648  0.1811  0.2557
88611W        W31627  13.016   8.455   9.118 -0.0063  0.0635  0.1307
88612W        W31628  16.040   5.252  15.963 -0.7018  0.0629 -0.1443
88613W        W31629  24.090   6.955   3.097  0.0504 -0.0927 -0.0915
88614W        W31630   5.976   0.227   3.000  0.3488 -0.1518 -0.0114
88615W        W31631  34.717  31.429  16.630  0.3181 -0.0676  0.1770
88616W        W31632   7.638   5.205  28.033 -0.2944 -0.1605  0.1537
88617W        W31633  21.354  12.164   8.186 -0.2761 -0.0708  0.0498
88618W        W31634   8.869   1.214  24.950  0.1039  0.0951  0.0347
88619W        W31635  10.951   5.570   6.464 -0.0794 -0.0115  0.0764
88620W        W31636  11.459  17.686  27.104  0.0138 -0.2962 -0.0361
88621W        W31637  24.246   3.372  10.269  0.1673  0.3895  0.1132
88622W        W31638  13.641   7.543  13.872  0.1251  0.2823  0.0396
88623W        W31639  12.415   1.433   0.381 -0.5263  0.0914  0.0259
88624W        W31640  27.030  16.996   4.815  0.1027  0.1163  0.2695
88625W        W31641  15.070  29.218  24.114 -0.1984 -0.0219  0.0076
88626W        W31642   4.802   4.196  29.082 -0.1962 -0.1443  0.0191
88627W        W31643   8.771   4.266   5.870 -0.1571  0.0611 -0.0589
88628W        W31644  30.290   2.649  27.105 -0.0977 -0.1897  0.1646
88629W        W31645  14.865   0.533   8.359  0.2010  0.1464 -0.0270
88630W        W31646   8.182  21.711  25.129 -0.1213  0.1711 -0.1478
88631W        W31647  11.284  10.430   0.955  0.2444 -0.1085 -0.1323
88632W        W31648   1.178  28.833   1.213 -0.1918 -0.3453  0.3865
88633W        W31649   1.529  13.569   3.741  0.1351  0.1191 -0.0881
88634W        W31650  14.937  28.871   8.292 -0.0712 -0.1712  0.0952
88635W        W31651   8.709  22.203   2.723  0.1821  0.0691 -0.1256
88636W        W31652  23.514  17.473  20.324 -0.0528  0.0594  0.0106
88637W        W31653  17.743  25.126   2.382 -0.2794 -0.0134  0.2444
88638W        W31654   9.142   9.550   9.460  0.0247 -0.0068 -0.1480
88639W        W31655  17.455   0.314   7.821 -0.0469 -0.2176 -0.0905
88640W        W31656  18.124  33.049   3.587  0.0661  0.0250 -0.0735
88641W        W31657   1.188   6.158   0.200 -0.0007  0.2910 -0.1064
88642W        W31658  12.587  32.620  23.536  0.2659  0.0916  0.0506
88643W        W31659  13.398   2.341   0.248  0.0101  0.3117  0.4037
88644W        W31660   7.972   5.374   7.413 -0.0156 -0.1719 -0.0078
88645W        W31661  16.078   2.243   5.030 -0.0089  0.1181  0.2042
88646W        W31662  21.615  14.214  28.655 -0.0453  0.0082  0.1721
88647W        W31663  34.599  17.902  24.926 -0.1568 -0.1361 -0.0587
88648W        W31664   8.939   0.540   6.620 -0.0329 -0.2237 -0.1386
88649W        W31665   9.455  15.082  28.798  0.1374  0.1714  0.0734
88650W        W31666  30.632   5.479  24.645  0.2418  0.2324  0.0847
88651W        W31667   9.411   2.829  10.204  0.2177 -0.1056  0.0353
88652W        W31668   2.251  29.820  27.852  0.1790  0.0333 -0.0926
88653W        W31669  13.488  33.425  26.688  0.3023 -0.0018  0.0336
88654W        W31670   7.998   3.849   8.050 -0.0054  0.1132 -0.2261
88655W        W31671  17.702   0.999  25.121 -0.0880 -0.2175 -0.0953
88656W        W31672   3.186  12.988   6.686 -0.0590  0.3119 -0.1415
88657W        W31673   8.412  27.655  22.174 -0.0681  0.1055 -0.4080
88658W        W31674  32.858   9.897  20.407  0.3953 -0.1159 -0.4569
88659W        W31675  21.597  31.859   8.021 -0.2659  0.0003 -0.1683
88660W        W31676  27.983   2.383  10.266  0.0513  0.0368 -0.1902
88661W        W31677  14.351  15.331   6.347  0.2090 -0.0147  0.4347
88662W        W31678  32.479   5.948   4.321  0.1927 -0.3076  0.3328
88663W        W31679  24.931   9.366   9.658 -0.0862 -0.1561 -0.3495
88664W        W31680   9.622   8.958   4.386  0.1669  0.3041  0.1777
88665W        W31681   5.969   6.662   5.489 -0.1972  0.2162  0.1572
88666W        W31682   5.472  27.658   0.113 -0.0516  0.0484 -0.0347
88667W        W31683  12.161   3.732   5.065  0.4760 -0.0205  0.0031
88668W        W31684  32.174   8.616  27.380  0.0051  0.1731 -0.1530
88669W        W31685  15.529   4.054  24.181  0.0433  0.0565 -0.1129
88670W        W31686  22.387   3.792   7.043 -0.2165  0.0119 -0.1116
88671W        W31687   7.344   1.769   7.704  0.1803  0.0522  0.0533
88672W        W31688   4.241  23.396   8.565 -0.2986  0.1149 -0.1270
88673W        W31689  13.715   7.505   9.118  0.1624 -0.0117 -0.0860
88674W        W31690  15.655  14.107  27.621 -0.0469 -0.4755 -0.0081
88675W        W31691  32.852  11.798   4.320  0.3155 -0.2266  0.1979
88676W        W31692   0.290   1.690   2.444  0.1036  0.4342 -0.1969
88677W        W31693  21.143  10.348  28.211 -0.1945  0.2239  0.2255
88678W        W31694  25.096  17.284   6.165 -0.4072  0.0510  0.1078
88679W        W31695  23.478  11.978   6.195  0.1168 -0.5088 -0.0871
88680W        W31696  20.165   4.395   1.394  0.3814  0.3213 -0.0369
88681W        W31697   8.786  30.550  28.647  0.0838  0.1844  0.0503
88682W        W31698  19.785   7.485  21.127  0.0323 -0.0099  0.2977
88683W        W31699  18.973  20.766  23.669  0.0675 -0.6350 -0.0215
88684W        W31700  15.690   9.353   8.845  0.2591  0.1779  0.0192
88685W        W31701   8.550  17.557  27.371 -0.0725  0.1649  0.1199
88686W        W31702  14.111   1.018  25.250 -0.0537  0.2697  0.1304
88687W        W31703  14.616  20.918  16.075 -0.4267 -0.0982 -0.2055
88688W        W31704   1.619   2.061   9.716  0.0192  0.2349  0.0404
88689W        W31705  12.975  11.803  29.105  0.3148  0.3359  0.0035
88690W        W31706  29.317   6.292  21.812  0.1900 -0.0661 -0.1178
88691W        W31707   4.879  17.619  18.226 -0.0025  0.1069  0.2826
88692W        W31708   9.027   0.820   6.066 -0.2961  0.3843  0.0778
88693W        W31709  22.054   4.273   2.734  0.0508 -0.1712 -0.1916
88694W        W31710  32.298   6.266  25.300 -0.0137  0.2752 -0.1949
88695W        W31711   5.770  34.347  22.988  0.0346  0.3306  0.0056
88696W        W31712  25.903  14.726   4.974  0.0248 -0.3034  0.0810
88697W        W31713   9.152  17.592  21.152  0.1172  0.2100  0.1881
88698W        W31714  29.786  31.066   5.289  0.1051 -0.0561  0.3427
88699W        W31715   3.822  24.431   2.637 -0.1314  0.2419 -0.1142
88700W        W31716  23.759  25.642   3.231  0.1048 -0.1749  0.1890
88701W        W31717  15.356   7.969  21.041  0.0613 -0.2830 -0.2685
88702W        W31718   9.467   6.012   5.048  0.1981  0.1791  0.0526
88703W        W31719   8.018  31.742   7.239 -0.0496  0.1472  0.1840
88704W        W31720   7.588   5.598  17.024 -0.1391 -0.1654 -0.0641
88705W        W31721  15.957  20.582   2.246  0.2318  0.1181 -0.3251
88706W        W31722   5.763  34.194   2.228  0.2762  0.2330  0.0450
88707W        W31723   4.688   0.717   3.142  0.2151 -0.0177 -0.0199
88708W        W31724  13.353   8.046  19.812  0.0580  0.1802 -0.1884
88709W        W31725  22.238   1.528   0.510  0.1067 -0.1351 -0.1858
88710W        W31726  33.424   2.679   1.519 -0.2463 -0.1543  0.1050
88711W        W31727  10.609  12.781   8.250  0.0924 -0.0885  0.1791
88712W        W31728  16.137   1.204   6.772 -0.0461  0.2477  0.3305
88713W        W31729   0.063   2.597  26.333 -0.2680 -0.0127  0.2977
88714W        W31730   8.591   9.829   7.623  0.2794 -0.0967  0.3239
88715W        W31731  13.398  28.054   5.376 -0.0027 -0.0406 -0.2212
88716W        W31732  22.512  11.927  25.371 -0.0053 -0.0384  0.3298
88717W        W31733  23.397  15.408   4.684  0.3398 -0.1489  0.2130
88718W        W31734   5.324  18.255   3.190 -0.3047  0.1135 -0.2836
88719W        W31735   5.490   5.187  21.768 -0.0801 -0.0783 -0.1132
88720W        W31736  11.290   4.341   1.177 -0.4339  0.3408 -0.1560
88721W        W31737  24.624  15.524  27.498  0.0962 -0.1211 -0.0063
88722W        W31738  13.532  22.515   6.832 -0.0547 -0.0682 -0.0458
88723W        W31739  13.861   3.722   1.654 -0.1787 -0.1799 -0.1761
88724W        W31740  22.621  17.411   3.683 -0.1069 -0.1298  0.1027
88725W        W31741   6.346  31.991  29.282 -0.1657  0.0202 -0.1088
88726W        W31742  24.380  10.502   4.435 -0.3453 -0.0665 -0.3097
88727W        W31743   5.604  33.900  23.223 -0.0084 -0.2381  0.0474
88728W        W31744  21.625  33.936   5.302  0.0460  0.4282 -0.2530
88729W        W31745   1.238   1.565   0.538  0.3483  0.4395  0.2029
88730W        W31746  22.585   8.055  19.063 -0.3612  0.0091  0.0332
88731W        W31747   1.342  30.223  21.971  0.0138 -0.0512  0.0865
88732W        W31748  12.265  33.823  27.462  0.1362  0.3632 -0.0036
88733W        W31749  11.021  29.041   6.017 -0.1309  0.0850 -0.0169
88734W        W31750  16.932   0.852   2.037 -0.1370 -0.0367  0.2298
88735W        W31751   6.172  23.778   0.755 -0.2270  0.0757  0.0038
88736W        W31752   5.609   1.445   0.854 -0.1005  0.1698  0.4448
88737W        W31753   4.528   9.420  26.209 -0.0151 -0.0763  0.1259
88738W        W31754  32.937   9.655  28.539  0.0763  0.1595 -0.3627
88739W        W31755  11.996   0.981   5.270 -0.0902 -0.0458 -0.1101
88740W        W31756   6.566   6.895  25.688 -0.0704 -0.0513 -0.3769
88741W        W31757  21.355  11.980  23.950 -0.0015  0.1172  0.0170
88742W        W31758  28.367  13.056   7.581  0.2899  0.1939  0.3302
88743W        W31759   7.889   7.895   6.997 -0.2435 -0.1251  0.1725
88744W        W31760  25.718   9.966  28.285 -0.0423  0.0078 -0.1931
88745W        W31761  11.861   3.523   8.815  0.1295 -0.0637  0.1024
88746W        W31762   3.899  22.976  26.888 -0.1693  0.0645 -0.0041
88747W        W31763  15.985   2.464   3.377 -0.3492  0.1152  0.0316
88748W        W31764   2.065   0.307   1.644 -0.1090  0.0042 -0.0968
88749W        W31765  20.258  13.517   5.981  0.0879 -0.0173 -0.0943
88750W        W31766   9.188   9.544  28.096  0.3777  0.0001 -0.1625
88751W        W31767   3.219  25.954  16.592  0.0641 -0.1941 -0.2464
88752W        W31768  26.978  33.064   3.953 -0.3554 -0.1173  0.2711
88753W        W31769  31.836  27.993  22.407  0.1456  0.1740 -0.0434
88754W        W31770  11.646  22.917   6.704 -0.0563  0.1284 -0.0659
88755W        W31771  14.217   4.680   1.855 -0.3063 -0.0815  0.2113
88756W        W31772   1.874   5.457   0.185 -0.1130  0.0611 -0.1289
88757W        W31773  13.220  12.397  24.319 -0.2204 -0.0598 -0.2901
88758W        W31774  16.294   4.506   1.160 -0.0740 -0.0254 -0.1602
88759W        W31775   1.765   6.587   4.777  0.1204  0.2754 -0.1111
88760W        W31776   0.400   9.598  20.270  0.1196  0.1410 -0.0689
88761W        W31777  10.579   9.852   2.963  0.1838 -0.0234  0.0643
88762W        W31778  23.806   0.930   4.351 -0.1599 -0.0387 -0.2195
88763W        W31779  23.071  10.544   6.869 -0.0267 -0.3853 -0.0612
88764W        W31780  18.865  31.035  22.272 -0.2367 -0.2366 -0.1463
88765W        W31781  18.501  28.953   6.259 -0.4267 -0.0347 -0.1389
88766W        W31782  18.585  19.883   1.725 -0.1307 -0.1278 -0.1167
88767W        W31783   7.251  34.647   4.218 -0.2325  0.0474 -0.0084
88768W        W31784  24.919   2.617   1.403  0.1298 -0.0825  0.0401
88769W        W31785  18.762  32.948   9.873 -0.0562  0.2420 -0.2242
88770W        W31786  16.159   7.663  24.945 -0.0228 -0.0150  0.0879
88771W        W31787   2.079  15.820  26.178  0.1150 -0.0730  0.4536
88772W        W31788   7.852  31.229   8.211  0.0575  0.1857  0.1122
88773W        W31789   7.891   0.940  23.884 -0.2057  0.1318  0.2898
88774W        W31790  32.520   2.259   7.500 -0.0092  0.2593  0.2392
88775W        W31791  22.960   9.457   4.282  0.0624  0.0158  0.0933
88776W        W31792   2.666  16.631   8.183 -0.0480  0.0759  0.1226
88777W        W31793  13.687   1.928   6.748 -0.1082 -0.2369  0.1227
88778W        W31794  10.667  34.505   7.931  0.1628 -0.0175 -0.1830
88779W        W31795  11.095  29.784   3.755 -0.0669 -0.1886  0.1070
88780W        W31796  20.631  31.548  19.735 -0.0248 -0.1166  0.1028
88781W        W31797  23.429   5.354  28.367 -0.3863 -0.1069  0.5447
88782W        W31798  33.268   2.053   0.880 -0.0464 -0.1261 -0.0007
88783W        W31799  19.938  33.183   4.133  0.1237 -0.2098 -0.3318
88784W        W31800   7.470   2.040   9.130  0.0044 -0.1281  0.2456
88785W        W31801  14.606  14.579  27.384  0.0529 -0.0677 -0.1475
88786W        W31802  16.074  12.706   7.509  0.1145  0.0680  0.0556
88787W        W31803   8.972   5.210   3.837  0.0806  0.0825 -0.0080
88788W        W31804  33.556   1.432   4.501 -0.0545 -0.0565  0.4149
88789W        W31805  10.205   6.005   6.203  0.0394  0.0041  0.0855
88790W        W31806   9.581  22.853  21.735 -0.4024 -0.1923  0.1038
88791W        W31807  10.697   4.884  28.482  0.0650 -0.2382 -0.1984
88792W        W31808   8.301   5.029  17.669 -0.0972  0.2142 -0.1996
88793W        W31809  12.148  15.527  24.582 -0.0844  0.0996  0.1560
88794W        W31810   8.570   5.994  16.380 -0.0443  0.1405  0.0849
88795W        W31811  22.800   4.960   7.440  0.0529  0.3066 -0.0109
88796W        W31812   5.804  10.313   4.568 -0.1524  0.0143 -0.0878
88797W        W31813  21.459   6.410   9.029  0.3268  0.1579 -0.0048
88798W        W31814  20.748  15.291   5.170 -0.2397 -0.0321  0.1345
88799W        W31815  20.767   7.896   7.621 -0.0380 -0.2207  0.4657
88800W        W31816  20.955  16.657   3.975  0.0113  0.3877 -0.0024
88801W        W31817   1.628   2.336  27.241  0.1064 -0.2656  0.1357
88802W        W31818  26.241   5.403  22.490  0.0642  0.1708 -0.0571
88803W        W31819  14.117   9.500   2.915 -0.1530 -0.2445  0.3116
88804W        W31820  33.147   5.168   1.319 -0.0174 -0.2045 -0.0031
88805W        W31821  24.703   3.124  10.080  0.1112 -0.1732  0.2747
88806W        W31822   7.617  25.111  28.394  0.4714  0.0037 -0.1898
88807W        W31823   3.489  10.498   8.962 -0.1874  0.1434 -0.1065
88808W        W31824  29.377   7.067   0.531 -0.0654 -0.0287  0.0378
88809W        W31825  20.988  11.248  28.864 -0.2998  0.0609 -0.3416
88810W        W31826  16.088  24.120  29.257  0.0784  0.2655 -0.0444
88811W        W31827  12.636  11.659   0.829 -0.3066 -0.2430 -0.0430
88812W        W31828  24.172  14.837   6.850 -0.0372  0.1888  0.0459
88813W        W31829  26.180  20.340   9.843 -0.2540  0.0426  0.3699
88814W        W31830   1.765   1.008   7.086 -0.1245  0.0570 -0.1363
88815W        W31831  12.201   1.865   9.671 -0.0520 -0.0437 -0.4185
88816W        W31832  20.478  34.516   9.970  0.1469  0.0181 -0.0302
88817W        W31833  12.558  21.310  21.852 -0.0968  0.1870  0.2679
88818W        W31834   0.803   2.099  25.941 -0.1663  0.0970 -0.0700
88819W        W31835  23.201  13.032   5.941 -0.0847  0.4710  0.0573
88820W        W31836  18.924  11.489  25.008 -0.1223  0.1602 -0.1889
88821W        W31837  12.015   4.366   8.855  0.2539 -0.3277 -0.0109
88822W        W31838  27.067   3.101  10.646  0.1156  0.0381 -0.1471
88823W        W31839  17.947   7.856   4.684  0.3563 -0.0513  0.1540
88824W        W31840  12.615   6.747   8.725  0.1271 -0.1280  0.1328
88825W        W31841  11.470   8.439  21.930 -0.3668 -0.0512  0.2508
88826W        W31842  24.263   4.745  24.922 -0.1214  0.2693  0.0138
88827W        W31843  25.763   0.378   7.195  0.1810 -0.0118 -0.1824
88828W        W31844  19.520   6.865   5.804  0.0150 -0.1332 -0.2544
88829W        W31845  24.193  15.965  16.624  0.3221 -0.1630 -0.3150
88830W        W31846  13.748   6.736  26.435 -0.0311 -0.1435  0.1758
88831W        W31847   9.922  11.719   8.588 -0.3707 -0.0967  0.1623
88832W        W31848  23.873  33.010   9.497 -0.0517 -0.1663 -0.1037
88833W        W31849  18.202  12.928   7.107 -0.1871 -0.1403  0.0044
88834W        W31850   3.257  17.354   4.139  0.0213  0.0150  0.0180
88835W        W31851   4.362  11.167  14.581 -0.2927 -0.0820  0.0611
88836W        W31852  15.317   2.280   6.710  0.0044  0.2824  0.0215
88837W        W31853  16.015   2.953  22.169  0.0931  0.3540 -0.0206
88838W        W31854  17.203   7.369   6.320 -0.0853  0.1536  0.2732
88839W        W31855   5.941   5.374   1.679  0.0047  0.1345 -0.0792
88840W        W31856  29.173   8.831   6.083 -0.5045  0.2220  0.2520
88841W        W31857  19.567  30.206   1.833 -0.1232 -0.2072 -0.0600
88842W        W31858  32.488  31.857  24.717  0.1026 -0.0294  0.1363
88843W        W31859  11.060  10.600   8.770  0.0690 -0.0327  0.1096
88844W        W31860   8.771   8.806  19.712 -0.2439  0.1676  0.2903
88845W        W31861  15.673  16.904  23.614 -0.0933 -0.2481  0.0172
88846W        W31862   5.322  31.111  23.223 -0.0056 -0.0943  0.0502
88847W        W31863  25.998  15.305   7.808 -0.0482 -0.1352 -0.3081
88848W        W31864  22.460  19.287  25.341 -0.1276 -0.2542  0.1067
88849W        W31865   1.627  23.796   0.997  0.0500 -0.3198 -0.1263
88850W        W31866   2.140  34.453   1.415  0.1651  0.2640 -0.1437
88851W        W31867  29.976   5.258  28.976 -0.2925  0.2747 -0.0744
88852W        W31868  27.620   5.030  10.155  0.0368  0.0013  0.2598
88853W        W31869  33.705   8.487   1.758 -0.0092 -0.2902 -0.0162
88854W        W31870  27.755  13.048  24.043  0.0296 -0.2590 -0.0956
88855W        W31871  21.116   0.526   4.117 -0.4588  0.0606 -0.1170
88856W        W31872   2.017  33.889   2.564  0.0944 -0.1599  0.1953
88857W        W31873  19.960   6.216   6.849  0.0410  0.0873  0.1832
88858W        W31874   6.399  28.603  22.121  0.0833 -0.0063 -0.1288
88859W        W31875   7.884  33.330  26.897 -0.4474  0.0492 -0.1830
88860W        W31876  17.391   5.343  13.828  0.1903 -0.2251  0.0947
88861W        W31877  14.295  15.685  23.252  0.0429  0.3873 -0.2762
88862W        W31878   8.497  16.188   1.940 -0.4702 -0.2504 -0.1953
88863W        W31879   8.701   7.768   2.431  0.1743  0.0402 -0.1522
88864W        W31880  29.762   9.950   2.830 -0.1285 -0.1311  0.0893
88865W        W31881  28.831  10.284   6.516  0.0383 -0.1763  0.2759
88866W        W31882   4.799  11.894  23.133 -0.2804  0.0763  0.1504
88867W        W31883   4.371  28.068  22.546 -0.2309  0.0267  0.2101
88868W        W31884   6.998   9.602   5.855  0.2548  0.2104  0.0959
88869W        W31885  10.359  14.037  28.562  0.1102  0.1971  0.3015
88870W        W31886  34.021   7.181  28.102 -0.0415  0.1310 -0.0096
88871W        W31887   8.458  15.027   9.182 -0.1347 -0.2044 -0.0827
88872W        W31888   3.364  17.053   3.702  0.0391 -0.0744 -0.1247
88873W        W31889  14.708  33.503  27.892 -0.2301  0.2203  0.2409
88874W        W31890   5.881  14.370   2.620 -0.2351  0.3681 -0.1479
88875W        W31891   3.221   0.072  26.590 -0.0154  0.1369  0.0866
88876W        W31892  21.461   0.791   7.904  0.3646 -0.0668  0.2497
88877W        W31893  18.641   1.454   7.532  0.4866  0.2816  0.0126
88878W        W31894  31.980  12.441  10.027  0.3921  0.2090  0.0791
88879W        W31895  11.082  10.739   7.307 -0.2603 -0.0401 -0.2098
88880W        W31896   9.374  32.828  26.814 -0.1160 -0.0280 -0.1762
88881W        W31897  20.538  11.626   2.119 -0.1791  0.0715  0.0350
88882W        W31898  13.414   8.729  27.696 -0.1677 -0.0102 -0.0627
88883W        W31899   5.158  18.056   8.104  0.1476 -0.1854 -0.1367
88884W        W31900  18.670  24.897   9.830 -0.1730  0.1656 -0.0180
88885W        W31901  11.434   1.164   8.201  0.2616 -0.2289 -0.0186
88886W        W31902  12.702  17.603  22.551 -0.1106 -0.0494 -0.1152
88887W        W31903  32.396  34.399   1.823 -0.1077 -0.2956 -0.0416
88888W        W31904  12.991  11.490  28.109 -0.0732  0.0514  0.1671
88889W        W31905   4.889  10.551   9.430  0.1816 -0.0186 -0.1556
88890W        W31906   1.314   1.886   4.293 -0.3197  0.1607  0.4503
88891W        W31907  33.675   8.850  22.051  0.3289  0.3115  0.1155
88892W        W31908  15.074   7.774   1.525  0.0432 -0.1697  0.1335
88893W        W31909  16.635  16.904   4.679 -0.3378  0.0658 -0.0278
88894W        W31910  21.419  12.409   1.220  0.0002 -0.2875 -0.2556
88895W        W31911  20.416   5.406   0.915 -0.0212  0.0701  0.2138
88896W        W31912  23.915   8.408   1.583 -0.2273  0.1103 -0.0166
88897W        W31913  22.453  10.341  27.729  0.1807 -0.1288 -0.0405
88898W        W31914   3.864   6.321   7.316  0.0345 -0.0387 -0.1952
88899W        W31915  12.221  34.630   7.612 -0.2870  0.2202  0.0909
88900W        W31916  28.783  12.667  20.890 -0.0191 -0.0986  0.3315
88901W        W31917   6.956   1.352  25.471  0.0995 -0.0091 -0.0529
88902W        W31918   5.006   8.650   0.363 -0.0846 -0.2243  0.0355
88903W        W31919  13.234   9.136   7.566 -0.0164  0.2639 -0.0156
88904W        W31920   7.444   4.240   2.777 -0.1041  0.1628 -0.0279
88905W        W31921   8.188  22.749   3.497  0.2793  0.0009  0.4540
88906W        W31922  20.090   8.555   0.841  0.1687 -0.2220  0.2282
88907W        W31923  16.598  17.143   4.212  0.1245  0.1072 -0.0205
88908W        W31924  13.980   4.481   6.154 -0.0453 -0.2852  0.1132
88909W        W31925   2.524  33.009  26.316  0.1130 -0.0833  0.1273
88910W        W31926  11.656   4.625   3.790 -0.1947 -0.1432 -0.0229
88911W        W31927  14.062   5.911   0.945  0.1356 -0.3232  0.1424
88912W        W31928  10.519   7.415  28.614  0.0238 -0.0411 -0.0113
88913W        W31929  11.519   2.415  10.362  0.0598  0.3467 -0.1796
88914W        W31930  15.776  18.036  25.897  0.2316 -0.0936 -0.0503
88915W        W31931   1.661  30.651  24.584 -0.0813 -0.1728 -0.0597
88916W        W31932  11.698   7.698   5.660 -0.0643 -0.1390 -0.1357
88917W        W31933   9.264  28.774   6.079 -0.3262  0.0383  0.1779
88918W        W31934   3.233  15.144  16.616 -0.1332  0.2530 -0.0209
88919W        W31935  10.904   1.282  19.729  0.0040  0.4672 -0.0226
88920W        W31936   1.601   7.482   8.683  0.3613 -0.0915 -0.0774
88921W        W31937   8.829   0.393  27.842 -0.1928 -0.2787 -0.2999
88922W        W31938   4.721   0.788  21.893 -0.1733 -0.2990 -0.0930
88923W        W31939  14.909  32.764  28.797  0.0138 -0.1413  0.0721
88924W        W31940  26.694  15.204  26.302 -0.1115 -0.1950 -0.1568
88925W        W31941  19.466  10.394  23.785  0.0783  0.3494  0.0653
88926W        W31942   9.561  16.177  15.906 -0.1923  0.1764  0.0458
88927W        W31943  21.334  16.588   6.997  0.0014  0.2369 -0.0211
88928W        W31944  15.281  13.326   5.419  0.4520  0.1884  0.1345
88929W        W31945  23.749   3.493   3.601 -0.1103  0.1632 -0.1366
88930W        W31946   6.905  14.512  26.237  0.2588 -0.4109 -0.1734
88931W        W31947  11.970   9.954   0.269  0.0972 -0.2847 -0.4162
88932W        W31948   8.903  15.777   0.575 -0.1505  0.0399  0.2543
88933W        W31949   3.458   3.378   5.336  0.0512  0.0256 -0.0546
88934W        W31950   3.961  27.327  18.890  0.4788  0.1329 -0.1929
88935W        W31951  13.240  26.630  14.406  0.0702 -0.1968  0.2098
88936W        W31952  18.677  19.783  22.010 -0.2835 -0.1778 -0.2818
88937W        W31953   3.620  34.022   9.334 -0.2448  0.0531  0.2748
88938W        W31954  29.630   0.987   6.027 -0.1051 -0.4315 -0.2935
88939W        W31955  12.936   9.607  23.713  0.0500  0.0769  0.0130
88940W        W31956  18.826   2.284   5.577 -0.1382 -0.0284  0.0208
88941W        W31957   3.345  11.270   7.279  0.0965 -0.2184 -0.0291
88942W        W31958  12.193  10.751   5.804  0.1365 -0.0559 -0.1749
88943W        W31959  17.700   9.142   9.329  0.2958 -0.5631 -0.1047
88944W        W31960  18.664  23.112  25.057  0.0110 -0.2466 -0.1576
88945W        W31961  14.816  17.923   0.775  0.0821  0.1872 -0.0580
88946W        W31962  14.108  17.314  26.662 -0.0505  0.1248 -0.1740
88947W        W31963  12.749  17.905   0.602 -0.1941 -0.5789  0.1875
88948W        W31964  14.242  18.329  26.385  0.0477 -0.0294  0.1919
88949W        W31965   7.354   0.761   6.988 -0.2699  0.1717 -0.0386
88950W        W31966  32.740   1.080   0.582 -0.0354  0.2083  0.1552
88951W        W31967  14.382   7.540  25.799 -0.3239  0.1426  0.0756
88952W        W31968  14.282   7.300   2.829 -0.2470  0.0290 -0.4237
88953W        W31969  31.390   4.807  23.361 -0.0709 -0.0573  0.1200
88954W        W31970  13.479  13.737  14.707  0.3217  0.1168  0.0763
88955W        W31971   6.444  10.320   3.699  0.1381 -0.3002  0.1714
88956W        W31972   8.629  13.132  25.152  0.3584 -0.1721  0.0813
88957W        W31973  25.994   9.929   7.572 -0.0104 -0.1874  0.1322
88958W        W31974  29.077   7.811   0.584 -0.1262  0.1585 -0.1571
88959W        W31975  15.332   6.945  18.367 -0.0217 -0.3550  0.1084
88960W        W31976   3.223  11.504   9.189  0.1732 -0.1361  0.1282
88961W        W31977   9.971   7.933  28.735 -0.1230 -0.0652 -0.0606
88962W        W31978  23.513   8.020   6.220 -0.0169  0.0737 -0.2611
88963W        W31979  24.718  11.364   1.676 -0.5265 -0.0896  0.0183
88964W        W31980  15.486  33.890   4.047 -0.2869 -0.1569  0.1550
88965W        W31981   3.198   1.193   1.021 -0.1752 -0.0705  0.0031
88966W        W31982  28.577   4.995   5.137 -0.1166 -0.0209 -0.1145
88967W        W31983   7.217  32.136   5.225  0.0130 -0.2077  0.2453
88968W        W31984  22.208  16.925   8.895  0.3644  0.1909 -0.0427
88969W        W31985  10.450   2.968   9.686 -0.1308  0.0492  0.2722
88970W        W31986  12.153   9.280   5.630 -0.1454 -0.1112  0.1728
88971W        W31987  21.562   1.084   7.053  0.1436 -0.0330  0.1349
88972W        W31988   5.911   6.665   3.600  0.0398 -0.3223 -0.0181
88973W        W31989   2.682   8.224  22.884 -0.1499  0.1657  0.2626
88974W        W31990   2.985  25.051  25.165  0.1491 -0.1350 -0.1248
88975W        W31991   9.613   9.443   6.235 -0.1519 -0.0483 -0.1564
88976W        W31992   2.847  10.191   3.373 -0.2589  0.1838  0.0906
88977W        W31993   5.342  22.852   5.449 -0.0463  0.1991 -0.0030
88978W        W31994  32.979  30.912  21.747 -0.3021 -0.0968  0.0125
88979W        W31995  17.929  21.321  16.395 -0.2757  0.0336  0.1502
88980W        W31996  13.286   0.761   4.605  0.0386 -0.0576 -0.2450
88981W        W31997   0.445   0.684   5.268 -0.1035  0.1088 -0.0250
88982W        W31998   9.528  27.839   5.053 -0.0827 -0.2616  0.1266
88983W        W31999  17.326  23.427   8.335  0.3116 -0.1550  0.3813
88984W        W32000   3.334   9.491  19.931  0.0460  0.4451 -0.1184
88985W        W32001  26.375  27.467  10.487 -0.0592  0.1301 -0.4111
88986W        W32002  13.632   5.370   9.191  0.1757  0.3396  0.1304
88987W        W32003  13.919   7.173   7.123  0.0851  0.0636  0.0291
88988W        W32004  24.020  15.551   5.367 -0.0450  0.5608  0.0848
88989W        W32005  25.416   2.000  29.107 -0.1771  0.0618  0.1231
88990W        W32006   0.185  11.717   5.687  0.0889 -0.1152  0.1754
88991W        W32007  22.496   3.173   6.509  0.2876  0.0710  0.1620
88992W        W32008  12.179  29.314   1.952 -0.2957 -0.0126  0.1503
88993W        W32009   6.420  28.936   6.729 -0.1002 -0.0069 -0.0977
88994W        W32010  23.556   0.162   1.556  0.0170 -0.1288  0.1161
88995W        W32011  10.398  30.337   8.044  0.6087  0.2611  0.3267
88996W        W32012  10.561  17.822  17.831  0.0615  0.3953  0.3308
88997W        W32013  25.977  14.056   8.829 -0.0614 -0.0144  0.2457
88998W        W32014  31.200  32.213   9.050 -0.0386  0.1126 -0.0075
88999W        W32015  21.410  33.306   4.701  0.0885 -0.3982 -0.1280
89000W        W32016   2.557  20.103   9.995 -0.1951 -0.0645 -0.1374
89001W        W32017   6.236   6.186  28.093  0.1259 -0.1249 -0.2017
89002W        W32018   8.901  34.220  10.099 -0.2199  0.0614 -0.3529
89003W        W32019  12.700  16.931  27.165 -0.0413 -0.0319  0.0818
89004W        W32020  16.910  15.507   3.817  0.2162 -0.1808  0.1442
89005W        W32021  22.517  30.956   4.731  0.0461 -0.0808 -0.0367
89006W        W32022  15.830   3.655   7.057 -0.1389 -0.0673  0.0535
89007W        W32023   4.675   8.416   3.764  0.1491  0.0876 -0.2497
89008W        W32024  17.189  34.359   6.967  0.0333  0.2265 -0.0366
89009W        W32025   9.392  29.932   4.612 -0.0860 -0.2400 -0.1787
89010W        W32026  23.355  19.098   2.355  0.2650  0.3073 -0.0321
89011W        W32027  34.219   4.667   7.996  0.1541  0.1951 -0.0407
89012W        W32028  21.825   4.934   9.403 -0.3137  0.0049  0.2794
89013W        W32029  12.645  21.214  28.246  0.0838  0.0674  0.2988
89014W        W32030   9.522  30.320   0.522  0.0617  0.2365 -0.1623
89015W        W32031   6.942   8.798  18.027 -0.0432  0.2018 -0.0158
89016W        W32032  27.762  15.892  28.387 -0.1040  0.1362 -0.3793
89017W        W32033   2.238  12.935   7.401 -0.1182  0.1709  0.1676
89018W        W32034  11.126  10.868  25.480  0.0378  0.2566  0.3398
89019W        W32035  14.957   7.002   5.946 -0.1152 -0.0088 -0.0396
89020W        W32036  19.369  17.425  20.190 -0.1769  0.1585  0.0395
89021W        W32037   7.376   8.937   2.975  0.1717 -0.1633  0.0236
89022W        W32038  21.492  13.888  27.322  0.0396 -0.1537  0.0970
89023W        W32039  23.160   2.460   1.200  0.2357  0.0429 -0.3130
89024W        W32040  18.341   0.528   7.933 -0.0088  0.0458  0.0926
89025W        W32041   3.881   0.548   7.087  0.1430 -0.2385 -0.2716
89026W        W32042   9.695   9.512  28.684  0.2249  0.1316 -0.0148
89027W        W32043  17.275  30.597  27.980  0.0501 -0.1864  0.0919
89028W        W32044  28.419   9.488   6.117  0.0715  0.1479 -0.1973
89029W        W32045  20.580  33.402   9.871  0.1182  0.2293  0.2969
89030W        W32046  15.344  20.801   4.356  0.1043  0.2006  0.2792
89031W        W32047  10.459   3.249  25.481 -0.0274 -0.3085 -0.0091
89032W        W32048  29.028  10.304   8.597  0.0733  0.1424 -0.1621
89033W        W32049  24.240   0.820   9.102  0.2473 -0.0355  0.0779
89034W        W32050  18.700  14.992   1.544  0.2225  0.0273  0.0458
89035W        W32051  19.342  33.501   3.757  0.0331 -0.0130  0.1767
89036W        W32052  13.408   8.198   4.099  0.0716  0.2703  0.2419
89037W        W32053  25.085  12.296   1.894 -0.3989 -0.0217  0.2030
89038W        W32054   1.695   8.742   9.175 -0.2866  0.0809  0.0100
89039W        W32055  24.966  32.501  25.859  0.2844 -0.5711 -0.3251
89040W        W32056  13.370  17.773   2.632  0.0551  0.0252 -0.2739
89041W        W32057  32.238  33.996  23.843  0.0896  0.1762 -0.1182
89042W        W32058  18.544   4.486   7.312 -0.0628 -0.1208  0.1919
89043W        W32059  16.659  17.197   5.909 -0.2332 -0.3467  0.0978
89044W        W32060   7.650  25.467   3.358 -0.1454  0.1911  0.1291
89045W        W32061   1.683   5.594   5.172 -0.2168 -0.2971 -0.1327
89046W        W32062  20.407   1.705   8.084  0.0374 -0.0675 -0.1516
89047W        W32063  16.365   0.051  14.874  0.0620  0.2674 -0.0150
89048W        W32064  18.522   5.675  27.934 -0.1631  0.2170  0.2380
89049W        W32065  15.647  10.588  29.138 -0.1762 -0.2333 -0.0202
89050W        W32066   3.927  16.441   2.070 -0.1838 -0.0366  0.0748
89051W        W32067  12.675  28.561   0.276  0.0307  0.0203  0.3569
89052W        W32068   3.528  14.537   2.419  0.0550 -0.5864 -0.2173
89053W        W32069  18.746  12.499   8.405  0.1764 -0.0918 -0.0182
89054W        W32070  17.115  14.065   7.578  0.0174  0.2871 -0.1984
89055W        W32071  19.238  34.048  29.310  0.0793  0.0056 -0.3738
89056W        W32072  14.869   6.362   1.134 -0.2369  0.1098 -0.1006
89057W        W32073  30.550  30.253  22.942 -0.0684  0.1711 -0.0338
89058W        W32074   0.728   8.588   4.517  0.1030 -0.0485  0.1925
89059W        W32075  14.863   1.901  22.132  0.0536 -0.1581  0.0026
89060W        W32076  30.446  30.674  23.549  0.3572 -0.0919 -0.0547
89061W        W32077   3.846   1.132   9.375  0.1770 -0.0750  0.2602
89062W        W32078  12.814   0.587   3.146 -0.1172  0.0542 -0.0651
89063W        W32079   2.031  11.152   4.064  0.2991  0.0296 -0.1491
89064W        W32080  22.006   1.751  20.522  0.1266  0.0859  0.0591
89065W        W32081   8.185  19.117  12.636 -0.1663  0.2441  0.1433
89066W        W32082  17.340  14.208  24.268  0.0398 -0.1044  0.0433
89067W        W32083  33.017   0.893  17.924 -0.2782  0.1316 -0.0268
89068W        W32084  20.516   8.707   5.117  0.3094  0.1218  0.0022
89069W        W32085  10.863  16.013  27.214  0.4203  0.0483 -0.3171
89070W        W32086  14.715   4.511   0.756 -0.3048  0.2099  0.0891
89071W        W32087  15.874   7.174   5.787  0.1725  0.1984  0.0312
89072W        W32088  14.615   8.256  23.449 -0.2344  0.1580  0.4551
89073W        W32089  19.502  15.195   4.497 -0.1216  0.0278  0.0089
89074W        W32090  10.788  10.318   2.169 -0.0651 -0.4230  0.0274
89075W        W32091   4.895   3.423   6.263  0.2830  0.0946  0.1972
89076W        W32092  27.393   5.919   9.614  0.0347  0.0487  0.3364
89077W        W32093  29.345  20.939   5.791  0.0594 -0.0648  0.1001
89078W        W32094   9.360  27.012  25.740  0.1438  0.0090  0.1459
89079W        W32095   9.813   2.118  26.590  0.1248  0.1344  0.0013
89080W        W32096  14.381  18.318   1.019 -0.1296  0.1112  0.1312
89081W        W32097   9.366  11.048   1.348  0.0149  0.1998  0.2383
89082W        W32098  18.732  11.438   5.563  0.1650  0.1620 -0.1475
89083W        W32099   0.873   9.049   9.204  0.2664 -0.0513  0.0539
89084W        W32100  18.164  11.431  24.503  0.0454  0.0662 -0.2586
89085W        W32101  12.864  25.449   7.893 -0.0325 -0.0689  0.0172
89086W        W32102   1.623  19.203   0.469  0.1281 -0.0724 -0.0970
89087W        W32103  22.222  14.040  23.402 -0.1584 -0.0955  0.2387
89088W        W32104   2.238  34.327   3.547 -0.0732 -0.2900  0.0342
89089W        W32105  10.803   7.257   5.362  0.0089 -0.0109 -0.0591
89090W        W32106  17.429  12.299   7.489 -0.0923 -0.1554 -0.1280
89091W        W32107  18.950   5.088   4.757  0.0944  0.0033 -0.3401
89092W        W32108  33.991  21.901  27.875 -0.1747 -0.1589  0.1108
89093W        W32109   5.792  22.109  17.271  0.1049 -0.0823  0.0318
89094W        W32110  14.797  11.099   8.721  0.2791  0.2745 -0.0703
89095W        W32111  15.171  20.627  21.095  0.1929  0.1267  0.2975
89096W        W32112  32.166  30.824  27.329 -0.1019 -0.2600 -0.0731
89097W        W32113  18.225  19.181  14.765 -0.0338 -0.1444 -0.0574
89098W        W32114   4.967   0.216   8.023 -0.0497 -0.2642  0.1172
89099W        W32115  10.563   8.600  18.529 -0.0195 -0.3081  0.0133
89100W        W32116  15.800  16.149  21.577 -0.0986  0.0369 -0.0950
89101W        W32117  24.567   0.833   1.453 -0.0716  0.0959  0.4766
89102W        W32118   8.262   4.093  18.677 -0.3656 -0.2110 -0.1858
89103W        W32119  11.876   9.207   0.989 -0.2516 -0.0312 -0.2153
89104W        W32120   6.554   7.871  24.043 -0.3146  0.1579  0.2451
89105W        W32121  23.018   7.550   7.496 -0.1420 -0.2172  0.1679
89106W        W32122   9.206  15.098   6.941 -0.2997 -0.1201  0.2971
89107W        W32123  22.340  20.331  25.774 -0.1131  0.0623  0.0162
89108W        W32124  26.928  18.144   1.503  0.0397  0.0986  0.1196
89109W        W32125  24.667   2.564   5.913 -0.1794 -0.0886 -0.1842
89110W        W32126  16.371   4.365   0.551  0.0273 -0.0646 -0.0478
89111W        W32127  32.975  29.155  23.490 -0.0434 -0.3016  0.1868
89112W        W32128  19.919   7.734  26.019 -0.1197  0.1644  0.0231
89113W        W32129  15.886  32.622  24.431  0.2055 -0.1440  0.0270
89114W        W32130   4.668  34.378   5.154 -0.0990  0.0116 -0.2216
89115W        W32131  16.593  20.023  15.561  0.4424 -0.0363 -0.3313
89116W        W32132  20.368   6.676   1.604  0.0882  0.0400 -0.1687
89117W        W32133   1.512  22.144   3.511 -0.2576  0.2484 -0.0179
89118W        W32134   5.238  16.125  27.791 -0.2091  0.0020 -0.1152
89119W        W32135   4.914  22.382  29.186  0.0593  0.0546 -0.1594
89120W        W32136  34.355  19.473   5.582  0.1002 -0.0492 -0.0218
89121W        W32137  13.041  16.217  26.487  0.0313  0.0492  0.2989
89122W        W32138   7.038   8.672   9.400 -0.1637 -0.1414 -0.2999
89123W        W32139  20.786   2.257   8.478 -0.0994  0.1010  0.0765
89124W        W32140  10.761   2.591   6.154 -0.2315  0.0666  0.0441
89125W        W32141  17.145   3.327   4.135 -0.3135 -0.0590  0.0331
89126W        W32142  10.980  13.095   8.627 -0.0606  0.0784 -0.1247
89127W        W32143   9.207  30.360  21.223  0.1865 -0.2322 -0.0818
89128W        W32144  11.391  11.211  19.496  0.0148  0.0558  0.2269
89129W        W32145  14.127  11.039   6.727 -0.1828 -0.2232  0.2242
89130W        W32146   0.990   4.064  14.991  0.1901 -0.1862 -0.2429
89131W        W32147  21.171   6.672   8.700  0.1452 -0.1167 -0.1393
89132W        W32148   0.618  17.145   6.256  0.3202 -0.2222  0.2749
89133W        W32149  29.966   9.135  17.898 -0.2284 -0.0904 -0.0488
89134W        W32150   4.014   5.006   8.938  0.0388 -0.0504 -0.0782
89135W        W32151  11.568  10.572  28.991  0.0930 -0.2535 -0.1568
89136W        W32152  21.832  29.482  26.300  0.0468 -0.1046 -0.2983
89137W        W32153  24.751  14.447   5.555  0.2312 -0.1597 -0.2031
89138W        W32154  11.162  13.005   0.957 -0.1222  0.0849 -0.1612
89139W        W32155  32.890   3.163   5.270 -0.1272 -0.3088  0.0617
89140W        W32156  21.914   0.801   4.920  0.1829  0.0187 -0.2473
89141W        W32157  25.601   6.819   5.600 -0.0806  0.2566 -0.3497
89142W        W32158  12.580  32.878   2.467  0.0024 -0.2061  0.1347
89143W        W32159  34.645  11.594   1.505  0.1004  0.0678 -0.3849
89144W        W32160   7.350   7.412   8.644  0.1536  0.3345 -0.1956
89145W        W32161  18.804  11.282  26.793 -0.1248  0.1954  0.0959
89146W        W32162   5.213  30.565   5.305  0.1597  0.5947 -0.1150
89147W        W32163  22.707  17.693   7.323  0.1621 -0.1857 -0.1446
89148W        W32164   5.352  27.093  28.446  0.2674 -0.0414 -0.0875
89149W        W32165  29.130   4.051   1.365  0.0090  0.1238 -0.5522
89150W        W32166   2.955  12.255   2.459 -0.0666 -0.2915  0.0913
89151W        W32167  16.682  24.977  25.561  0.1252 -0.1258 -0.1988
89152W        W32168  22.419  32.345  28.448 -0.0041 -0.0386  0.2113
89153W        W32169   5.645  32.232  10.299 -0.0516 -0.2078  0.1174
89154W        W32170  17.661  34.572   9.515  0.1363  0.1140 -0.1081
89155W        W32171  15.103   7.443  28.608  0.0448 -0.0210  0.0253
89156W        W32172   5.055   3.504  21.877 -0.2033  0.0584 -0.0414
89157W        W32173   4.312   5.014  16.067 -0.4204  0.1961 -0.1673
89158W        W32174  12.528  33.015  26.897  0.0935  0.5109 -0.0376
89159W        W32175   6.683   6.302   6.347  0.0098  0.0317 -0.1090
89160W        W32176  17.073   4.428  26.388 -0.2960 -0.1985 -0.1100
89161W        W32177   5.571  21.431  24.340 -0.1631 -0.0510  0.1380
89162W        W32178   8.143  32.907  10.207  0.0666  0.1519 -0.0157
89163W        W32179  10.676  14.370  16.315 -0.1249 -0.2127 -0.3833
89164W        W32180  18.826  28.830   0.594  0.2234  0.0322  0.4796
89165W        W32181  29.623  15.415  19.667  0.0279 -0.4737 -0.1070
89166W        W32182  14.599   2.709   8.416 -0.0481 -0.0305 -0.1643
89167W        W32183  14.584   7.643  19.900 -0.0402  0.0025  0.2451
89168W        W32184  34.544   7.981  18.912  0.0683 -0.3069  0.0213
89169W        W32185  17.127  18.959  23.646 -0.5431 -0.1430  0.0778
89170W        W32186  11.033  15.348  18.766  0.3211  0.1420  0.2107
89171W        W32187  20.908  25.715   5.393 -0.1021 -0.0946 -0.0548
89172W        W32188   8.438   4.572   3.474  0.0976 -0.0023 -0.1120
89173W        W32189   3.076   4.833   7.465  0.2476  0.2722  0.0320
89174W        W32190  13.709   4.930   5.491  0.0324 -0.1219  0.0501
89175W        W32191   2.659  16.653   5.202 -0.1329  0.0539 -0.0831
89176W        W32192   2.877  28.220  10.673 -0.1106  0.0611  0.0256
89177W        W32193  15.646   5.226   3.597  0.0165 -0.0512  0.0394
89178W        W32194   8.510  26.360  26.876 -0.0701  0.4779 -0.0916
89179W        W32195   2.711  33.969   9.689  0.0500  0.2848 -0.4307
89180W        W32196  15.818   3.056  27.691  0.1039  0.0746  0.1045
89181W        W32197  12.913   8.597   4.844 -0.0181  0.0588 -0.1660
89182W        W32198  25.188   3.018   4.693 -0.3265 -0.0070 -0.1091
89183W        W32199  12.901   4.115  23.888  0.0530  0.1280  0.2159
89184W        W32200  13.702   3.804  21.017  0.0229  0.3614 -0.2426
89185W        W32201  26.296  15.599  23.550  0.1892  0.0195 -0.0272
89186W        W32202  20.604  20.420  28.166 -0.0137 -0.0768  0.1560
89187W        W32203  12.382  17.206  25.161  0.1689 -0.0944  0.1742
89188W        W32204  31.295  25.970   9.832  0.1499  0.1425  0.4723
89189W        W32205   1.945  19.059  20.622 -0.3830  0.0530 -0.3702
89190W        W32206  18.544  10.642   8.102 -0.5143  0.0935 -0.1630
89191W        W32207   8.000  20.057   3.177 -0.2066 -0.1165 -0.2303
89192W        W32208  18.798   0.381   9.162 -0.3383 -0.1972 -0.2248
89193W        W32209  21.323   6.184   1.377  0.1717 -0.0783  0.3537
89194W        W32210  16.315   5.033   9.689 -0.1750 -0.0422  0.2670
89195W        W32211  13.544  10.258  16.534 -0.2228 -0.0371 -0.0776
89196W        W32212  19.480  31.339   5.415  0.0930 -0.1345 -0.2327
89197W        W32213  19.258  12.270  24.015  0.0817 -0.0166 -0.1733
89198W        W32214  27.107  13.861  27.456 -0.1742  0.0447 -0.0261
89199W        W32215   0.756   4.676   2.241  0.0883 -0.0767  0.4466
89200W        W32216   1.667   7.141   2.581  0.1038 -0.0069 -0.0597
89201W        W32217  10.288  14.500   2.269  0.1007  0.0918  0.2060
89202W        W32218   8.764  11.527   7.781 -0.3793  0.0004 -0.0436
89203W        W32219  26.267   3.992   0.091  0.2444 -0.0390 -0.0159
89204W        W32220   9.249   9.258  28.867  0.0528 -0.0279  0.2044
89205W        W32221  28.040   4.984   2.578  0.2018  0.4403 -0.2773
89206W        W32222  13.615   2.947   6.668  0.4262  0.0052  0.2483
89207W        W32223  12.314   2.485  21.683  0.1507 -0.1260 -0.1365
89208W        W32224  18.480  17.619   8.975 -0.2131 -0.0892 -0.1158
89209W        W32225   9.976   8.265  26.354  0.0905 -0.6125  0.3504
89210W        W32226  16.556   0.922   8.730  0.0711 -0.1399  0.1317
89211W        W32227  14.542  29.400   0.540  0.0169  0.0659 -0.1758
89212W        W32228  14.452  14.000   2.624 -0.0677 -0.0263 -0.3301
89213W        W32229  34.355   8.265  18.523  0.0972  0.2409 -0.0740
89214W        W32230  20.322   3.767   6.609 -0.1784 -0.0843  0.0246
89215W        W32231   3.300  10.782   0.297 -0.2598 -0.2217 -0.0875
89216W        W32232  16.782   0.858  26.309  0.0972  0.0211 -0.1336
89217W        W32233   9.770  17.990   5.392  0.0138  0.2900 -0.1719
89218W        W32234  13.766   2.105  26.454  0.1631  0.2666  0.2501
89219W        W32235  22.565  24.350  26.489  0.0089 -0.2776 -0.1087
89220W        W32236  30.276  12.562   1.969 -0.2134 -0.4687 -0.0717
89221W        W32237  31.263  11.131   3.004 -0.0059  0.0465 -0.1552
89222W        W32238   0.454   3.757   9.327  0.1371 -0.2896  0.0869
89223W        W32239  13.701  28.941   4.513 -0.1412 -0.3190  0.0836
89224W        W32240  26.175   8.801   6.112  0.0228  0.0621 -0.1944
89225W        W32241   8.750  27.096   7.496 -0.2156  0.0510  0.3087
89226W        W32242  23.378  14.048   3.519  0.1143 -0.3550  0.1249
89227W        W32243  13.224  13.660   2.371  0.0465 -0.0427 -0.0534
89228W        W32244   2.408   8.165  25.981 -0.3850 -0.0282  0.0055
89229W        W32245  21.032  30.275  10.195 -0.2090 -0.3761  0.4677
89230W        W32246  20.820  34.024   1.790  0.0199 -0.6101 -0.2050
89231W        W32247  21.048   6.523  21.131  0.2620 -0.0195 -0.2382
89232W        W32248  18.780  29.838  28.589 -0.2090 -0.1408 -0.2274
89233W        W32249   6.874   0.445  10.503  0.0994 -0.0492  0.2751
89234W        W32250   4.729   7.876   6.550  0.1406 -0.2410 -0.0286
89235W        W32251  24.567   0.223   9.611  0.0639  0.1114 -0.0551
89236W        W32252  20.116   8.602   9.906 -0.1837 -0.0367 -0.2895
89237W        W32253  31.971  22.154   1.172  0.2660 -0.1024  0.0187
89238W        W32254  11.693   2.196   3.370 -0.4374  0.2992  0.1515
89239W        W32255  21.700   4.558   4.182 -0.0048 -0.0407 -0.1338
89240W        W32256  25.806   5.360   8.096 -0.2771 -0.2557  0.1010
89241W        W32257  10.447   9.086  27.255 -0.2295 -0.0219 -0.0001
89242W        W32258  31.550  34.335   2.892 -0.2773 -0.0912 -0.2580
89243W        W32259  27.460   4.784   8.612 -0.0769  0.2026 -0.2208
89244W        W32260  12.837  25.016   5.612  0.1802  0.0081 -0.1367
89245W        W32261  29.526  30.074   8.755  0.1288  0.2277 -0.0613
89246W        W32262  27.067  30.812   6.123  0.0140  0.0120  0.1089
89247W        W32263  20.807  11.119   3.801 -0.2761  0.1547 -0.1485
89248W        W32264  14.249  14.897  22.803 -0.1919  0.2357  0.0852
89249W        W32265  27.070  27.785   7.825 -0.0758 -0.0401 -0.1350
89250W        W32266  25.967   5.201   8.544  0.1236 -0.0612 -0.2567
89251W        W32267  20.757  10.492   7.398  0.0615  0.0376  0.2379
89252W        W32268   2.508  21.465   7.607 -0.1194  0.1906  0.0136
89253W        W32269  31.815  29.488   2.835 -0.0699  0.0360  0.1849
89254W        W32270   0.010  11.155   5.098 -0.1057  0.0162 -0.2174
89255W        W32271  20.304  13.178   6.334 -0.0545 -0.1137  0.1182
89256W        W32272   7.973   2.748   1.546 -0.0241 -0.0628  0.0859
89257W        W32273   4.354  29.684   6.269 -0.1563  0.2125  0.1918
89258W        W32274   9.518   0.241   9.739  0.0946  0.1221  0.2699
89259W        W32275   6.893  11.633   9.537  0.3554  0.1035  0.1372
89260W        W32276  13.002   1.963   0.008 -0.0811  0.1279 -0.0679
89261W        W32277  13.058  32.020  27.119  0.1270 -0.0339 -0.3271
89262W        W32278  11.877  25.041   7.631 -0.0729  0.0086  0.0881
89263W        W32279  11.242   5.951   9.437  0.1525  0.1859  0.0425
89264W        W32280  20.518   9.284   9.419 -0.3322 -0.0075 -0.1312
89265W        W32281  19.929  18.602  28.469 -0.0257  0.1616 -0.3996
89266W        W32282  29.360  18.763   4.469  0.1643 -0.2355  0.0902
89267W        W32283   1.946   0.689  18.693 -0.0626  0.0208 -0.0293
89268W        W32284   8.692  30.745   3.883 -0.1408 -0.3376 -0.0368
89269W        W32285   9.867   4.963  21.662 -0.3292 -0.2855 -0.0914
89270W        W32286  27.362  23.055   9.884 -0.1191  0.1700 -0.2853
89271W        W32287  25.774  13.356   1.351 -0.1182 -0.0766 -0.1545
89272W        W32288   1.933  11.699   5.629 -0.2290 -0.0808 -0.0538
89273W        W32289   2.586  25.041   8.086 -0.1083 -0.0965 -0.0179
89274W        W32290   2.866  20.602   6.085  0.0196 -0.1619  0.3841
89275W        W32291  11.673   2.251   2.858  0.0649  0.1507  0.1631
89276W        W32292   6.302   1.848  27.547  0.3224  0.0414  0.0978
89277W        W32293   3.247   3.898   8.337 -0.1030  0.0367 -0.0641
89278W        W32294  13.469  13.468   7.899  0.1527 -0.1619 -0.0858
89279W        W32295  21.836   3.945  27.776  0.1738  0.0786  0.0594
89280W        W32296  17.556  31.109  26.846 -0.0202 -0.3043  0.0653
89281W        W32297   4.961   3.938   8.828  0.1914 -0.1653  0.0093
89282W        W32298  13.935  34.502   3.035 -0.2924  0.0067  0.3885
89283W        W32299   1.440  32.301   9.302 -0.2219  0.2173  0.2259
89284W        W32300  14.978   3.760   2.519  0.3146 -0.1757  0.2035
89285W        W32301  32.733  34.144   4.412  0.1214  0.1900  0.1505
89286W        W32302  25.939   5.479   6.477  0.2079  0.0194 -0.0617
89287W        W32303   6.077   4.604   6.544  0.1797  0.1278  0.1162
89288W        W32304   2.469  34.179   1.859 -0.0324 -0.2470 -0.2671
89289W        W32305  17.825  10.858  21.890  0.1859 -0.0507  0.0559
89290W        W32306   9.677  32.239  22.927 -0.0816 -0.1169 -0.2006
89291W        W32307   9.804  28.443   2.693  0.0202  0.2206  0.1148
89292W        W32308   2.454  15.976   4.680  0.0958  0.1065 -0.2067
89293W        W32309  11.263  34.184   6.530 -0.0702  0.1535 -0.1991
89294W        W32310  22.688  15.220   5.128 -0.0973  0.2916 -0.0291
89295W        W32311  20.525   1.593   1.591 -0.2681  0.0470 -0.0891
89296W        W32312  31.594  30.300  10.919  0.1382 -0.0677  0.1333
89297W        W32313  23.840  25.167   6.303  0.0003 -0.3389  0.1461
89298W        W32314  19.280   4.487  26.084  0.1161 -0.0139 -0.0899
89299W        W32315  17.646  15.259  27.538  0.0939 -0.1869 -0.1488
89300W        W32316  14.432  14.106  27.493 -0.0279  0.0034 -0.0798
89301W        W32317  18.854  26.739   7.035 -0.3857 -0.1284 -0.0548
89302W        W32318   9.106  27.743   0.416  0.0601  0.0366 -0.2434
89303W        W32319  15.832  34.598   7.247 -0.1130 -0.0146  0.0500
89304W        W32320  10.246  26.792   5.286 -0.3927 -0.1938 -0.4430
89305W        W32321  24.645  31.316   9.591 -0.3747  0.0417 -0.3597
89306W        W32322  17.318   5.313   7.655 -0.0635  0.2301  0.1936
89307W        W32323   4.685   9.327   1.013  0.0581  0.1622 -0.1297
89308W        W32324  12.868  14.264  24.103  0.0534 -0.1424  0.1057
89309W        W32325  17.354   5.651  21.784  0.4931  0.3650 -0.1057
89310W        W32326  26.452  33.826   8.833 -0.4618  0.2639 -0.1647
89311W        W32327  18.463  13.013   0.920 -0.2837 -0.2017 -0.0603
89312W        W32328  13.377   9.164   1.665  0.0601 -0.0968  0.0616
89313W        W32329  11.190   0.328  17.954 -0.1633 -0.0383  0.1948
89314W        W32330  24.993  32.330   8.340 -0.0476 -0.3169  0.0433
89315W        W32331  16.401  19.335  19.899 -0.1348  0.2236 -0.0133
89316W        W32332  13.802  25.710   0.656 -0.3693  0.0459  0.1346
89317W        W32333  32.152  14.420   6.079  0.3821  0.2039 -0.2280
89318W        W32334  30.081  16.586   7.990 -0.0140 -0.1082  0.0580
89319W        W32335  13.023  31.116   1.842 -0.5014  0.0830 -0.0031
89320W        W32336  11.230  25.740   7.634  0.1432 -0.1294  0.1658
89321W        W32337   2.282   6.849  28.631 -0.0645  0.1814  0.1272
89322W        W32338  22.934  29.697   2.048  0.2713 -0.0349  0.1606
89323W        W32339   0.834  26.805  22.053  0.1577  0.1413 -0.0287
89324W        W32340  12.968   8.845   1.986  0.1495 -0.1250  0.2628
89325W        W32341  26.984  17.687  26.526 -0.0009  0.0402  0.0782
89326W        W32342  13.293  30.951   7.970 -0.2480 -0.1001 -0.2021
89327W        W32343  19.946   8.649  23.883  0.3154  0.1465 -0.0203
89328W        W32344  27.033  17.392  25.622 -0.0751 -0.0340  0.0879
89329W        W32345  14.080  17.958  21.599  0.1432 -0.2552 -0.0321
89330W        W32346   6.570  18.410  23.786 -0.1101 -0.2409  0.2308
89331W        W32347   7.432  26.258   1.538  0.0722 -0.3077  0.3883
89332W        W32348  11.210   8.419   2.577  0.3810  0.0645 -0.1890
89333W        W32349  25.315   0.662  27.262  0.1613  0.0808  0.4744
89334W        W32350  13.523  22.899   4.048  0.0508 -0.1405  0.3200
89335W        W32351  18.082   1.179   2.624 -0.1979 -0.1372 -0.0427
89336W        W32352  14.009  15.159   5.038  0.0051  0.1646  0.0822
89337W        W32353  22.773  23.314  24.266 -0.0904  0.1023  0.1105
89338W        W32354   5.447  15.569   1.821 -0.1792 -0.0873 -0.0490
89339W        W32355  29.335   1.317  25.478 -0.2427  0.2236 -0.1434
89340W        W32356  11.752  13.452   5.586 -0.1305 -0.0586  0.0681
89341W        W32357  25.382  20.286   3.197  0.0931 -0.1326 -0.1679
89342W        W32358  21.558   9.956   8.759  0.1889  0.4756 -0.2152
89343W        W32359  28.270   7.538  15.988 -0.0563 -0.0416 -0.0505
89344W        W32360  13.860   2.233  25.696  0.0528 -0.0069 -0.0375
89345W        W32361  21.688  26.853   2.916  0.2673  0.0211  0.1694
89346W        W32362   5.786  12.039   3.523 -0.0389 -0.4597 -0.0878
89347W        W32363  24.050  10.322  28.815 -0.1003  0.0740 -0.2464
89348W        W32364   3.408  19.352   8.134 -0.0657 -0.1633 -0.3564
89349W        W32365  26.723   5.447  26.205 -0.2779 -0.1509  0.2722
89350W        W32366  16.753  16.685  17.478  0.2373 -0.1036 -0.2836
89351W        W32367  18.827  14.730  24.563  0.0933 -0.0177 -0.0387
89352W        W32368  10.668   5.895  27.624 -0.1549 -0.0179 -0.2996
89353W        W32369  20.454   9.274   8.297  0.2779  0.2066  0.1064
89354W        W32370   9.036  12.575   0.957 -0.3220  0.2892 -0.2538
89355W        W32371   1.465  23.593  27.709  0.1602  0.0131 -0.1942
89356W        W32372   4.084  13.679   1.696 -0.0376  0.2723 -0.1239
89357W        W32373   8.759   7.345  28.187  0.0314 -0.1729 -0.1569
89358W        W32374  12.320  12.032   5.623  0.1064 -0.1070 -0.4184
89359W        W32375   8.577   2.168   7.019 -0.0481 -0.4726  0.3540
89360W        W32376  19.827  15.388   7.082  0.0573  0.0612  0.0165
89361W        W32377  20.136   4.141   7.312 -0.2755  0.2279  0.0567
89362W        W32378  12.130  28.841  28.138  0.0250 -0.0070 -0.1424
89363W        W32379  24.440  21.866  27.972 -0.0816 -0.1426  0.2708
89364W        W32380   5.243   5.899  10.489  0.0143 -0.0735  0.1347
89365W        W32381   7.542   3.178   4.122  0.0483 -0.1348  0.0109
89366W        W32382  11.408  15.501  25.099 -0.1839  0.0269 -0.1283
89367W        W32383   6.320  11.001   2.619 -0.1390 -0.0497 -0.2378
89368W        W32384   5.360   1.504  25.571 -0.0771  0.1562  0.1284
89369W        W32385  25.629  12.718   8.297 -0.0761  0.4406  0.0662
89370W        W32386  18.123  11.578   8.372 -0.2449 -0.2712  0.0271
89371W        W32387  19.735  10.942   1.798 -0.0249  0.0342 -0.1944
89372W        W32388  17.732   3.706   9.375 -0.3011 -0.0965 -0.0349
89373W        W32389  10.042  19.689   3.327  0.0648 -0.3477 -0.2003
89374W        W32390  22.442   1.732  10.292  0.2698 -0.0250  0.2166
89375W        W32391  26.782  17.721   8.377 -0.0703  0.0043  0.1398
89376W        W32392   6.068  24.345  25.162  0.1250 -0.3321 -0.0805
89377W        W32393  13.316  19.404   3.090 -0.3032 -0.0134  0.0814
89378W        W32394   9.030   1.567   3.047  0.0305  0.0679 -0.0008
89379W        W32395  18.651  21.460   6.516 -0.1379  0.0514  0.0965
89380W        W32396   1.193  22.303  26.899  0.1714 -0.0073  0.0309
89381W        W32397  14.405   0.950  18.126  0.0090  0.1115 -0.0211
89382W        W32398   3.538   4.830   4.520  0.0613  0.1781 -0.1819
89383W        W32399  10.359   5.987   4.467 -0.2153 -0.0594  0.0981
89384W        W32400  32.751  10.737  25.392 -0.0518  0.3737  0.1042
89385W        W32401  34.228  19.253   9.685 -0.2768 -0.3040 -0.2082
89386W        W32402   8.294  11.901   3.015  0.0399 -0.1328 -0.0748
89387W        W32403  15.396  16.290   5.036  0.2142  0.3430  0.1986
89388W        W32404  23.714  15.895   8.195 -0.3046  0.0461 -0.0520
89389W        W32405  24.476  28.479   2.817  0.1327 -0.1471  0.2052
89390W        W32406   9.133  10.300  28.589 -0.3799  0.1989  0.0942
89391W        W32407   3.911   8.028   0.034  0.2077 -0.0296  0.1524
89392W        W32408  24.838  23.661   0.784  0.1870 -0.2560  0.0929
89393W        W32409   9.160   1.500  26.829  0.0082  0.0388  0.1630
89394W        W32410  12.324  31.278   0.156 -0.0826 -0.0062 -0.1217
89395W        W32411  17.923  11.957   1.213 -0.2121 -0.1374 -0.1030
89396W        W32412  20.759   0.809   7.343  0.0339 -0.0552  0.0211
89397W        W32413   9.443   9.736  27.236 -0.1459  0.3415 -0.0998
89398W        W32414  16.619  26.331  22.409  0.1354 -0.4836  0.2398
89399W        W32415  22.363  17.269   2.459 -0.1851 -0.3384  0.2602
89400W        W32416  16.031  20.760  27.419 -0.3439  0.1850 -0.3279
89401W        W32417  16.698  16.832   1.998  0.2926  0.0595  0.0114
89402W        W32418  14.100   9.414  24.473 -0.1120 -0.0728 -0.3131
89403W        W32419  30.135   5.917   7.097  0.0488 -0.1353 -0.1966
89404W        W32420  13.604  34.723  28.938  0.1675 -0.2820 -0.2804
89405W        W32421  25.389  20.033   2.287 -0.2150  0.1108  0.0351
89406W        W32422   1.780   4.034   6.720  0.0553  0.0955  0.1125
89407W        W32423   1.630  30.497  29.293 -0.1832 -0.1514 -0.0678
89408W        W32424  23.520  13.668  26.389  0.1522  0.3852  0.0490
89409W        W32425  21.091  31.291   1.530  0.1562  0.0504  0.0999
89410W        W32426  13.403  34.376   2.519  0.0867  0.0666  0.0041
89411W        W32427  33.417  20.188   0.657 -0.1944  0.2255 -0.1184
89412W        W32428  10.589  12.977  26.544  0.0143  0.2839 -0.3753
89413W        W32429  26.363  25.797  25.821  0.0670  0.2156  0.2652
89414W        W32430  20.023  12.288  26.694 -0.1276 -0.3672 -0.1808
89415W        W32431  27.799  15.066   6.571  0.1204 -0.2109  0.2398
89416W        W32432  19.048  11.264   8.497  0.1084 -0.0850  0.0120
89417W        W32433   5.271   4.245   8.280  0.3380  0.0819  0.0275
89418W        W32434   4.144  16.581   8.507  0.0112  0.2506  0.2047
89419W        W32435  24.380  12.608   7.354  0.5413  0.0022 -0.1035
89420W        W32436   8.379   9.178   4.208  0.0045  0.0824 -0.0763
89421W        W32437  12.212  23.142   8.174  0.1158 -0.1281  0.1704
89422W        W32438  31.409  11.346   9.561  0.0994 -0.0158  0.0925
89423W        W32439   3.811  27.062   0.728  0.0866  0.1325 -0.2229
89424W        W32440   2.658  25.290  26.830  0.3375 -0.1811 -0.1616
89425W        W32441   5.152  23.981  27.899 -0.3199 -0.2966 -0.2748
89426W        W32442  19.888   5.168   3.759 -0.2045 -0.0021 -0.2247
89427W        W32443  20.467  34.599  26.791  0.2378  0.0151  0.0105
89428W        W32444   5.805   1.911  29.147  0.0581  0.0253 -0.0463
89429W        W32445  25.097   8.385  24.104  0.0491 -0.3659  0.3070
89430W        W32446  15.319  18.383   1.940  0.0610  0.0012 -0.0542
89431W        W32447   7.487  32.733  22.534 -0.1401 -0.0888 -0.0510
89432W        W32448  19.247  27.247  10.506  0.0782  0.0289  0.2358
89433W        W32449   9.968   5.078   4.067 -0.2486  0.5450  0.0915
89434W        W32450  19.665  33.976  28.997 -0.5758 -0.2451  0.4929
89435W        W32451  29.334   1.034  26.875 -0.3077  0.0407  0.0824
89436W        W32452   3.329   0.628   9.465  0.1429  0.1737 -0.0046
89437W        W32453  16.292   6.879   8.667  0.1438 -0.0095  0.1947
89438W        W32454  24.370  30.791  27.418  0.1583  0.1454 -0.1030
89439W        W32455  25.670   5.254   9.298 -0.1547  0.0421 -0.0556
89440W        W32456  18.082   3.620   1.897  0.0158 -0.0202  0.0197
89441W        W32457  17.146   0.484   1.389  0.2953 -0.2230 -0.1821
89442W        W32458  11.795  17.429   4.910  0.0677  0.2134  0.1312
89443W        W32459  10.811  31.949   1.637 -0.2291 -0.2211 -0.0874
89444W        W32460  34.450   8.516   4.719  0.1358 -0.0129  0.1051
89445W        W32461   5.595  13.730  28.797  0.0167 -0.1183 -0.1923
89446W        W32462  33.472  27.539   3.775  0.3590  0.2482 -0.1783
89447W        W32463   6.092  29.182  15.755 -0.0044 -0.0889 -0.0203
89448W        W32464  27.080  17.998   5.063  0.1568  0.0493 -0.1311
89449W        W32465   5.692   5.779   2.013  0.0038 -0.0099 -0.0381
89450W        W32466  29.649   2.885   6.889 -0.0409  0.1546  0.1696
89451W        W32467   8.785   2.117  24.404 -0.2252  0.1815  0.2052
89452W        W32468  13.300  14.960  27.575 -0.2986 -0.1582  0.1685
89453W        W32469  22.587  24.128   6.633  0.1897 -0.3005 -0.0761
89454W        W32470  26.007   9.139  29.185  0.0453  0.4723  0.0708
89455W        W32471  26.939   9.361  24.505 -0.2047 -0.0202 -0.0802
89456W        W32472   3.483   8.928  21.830  0.0487  0.1286  0.0480
89457W        W32473   3.795  29.152   4.755  0.1712 -0.3855  0.0841
89458W        W32474  18.839   4.781   1.455  0.1411 -0.0257 -0.0652
89459W        W32475   5.784  25.522   6.748  0.0249  0.1558 -0.0061
89460W        W32476  20.656   0.372  28.991 -0.0296 -0.2558  0.1640
89461W        W32477  10.977   8.212   4.357  0.3844  0.0536 -0.2348
89462W        W32478  18.503   8.295   7.146  0.0069 -0.1167 -0.0516
89463W        W32479  13.054   2.058   1.544 -0.0782 -0.2313  0.4200
89464W        W32480  19.362   3.928   6.204  0.1592 -0.0391  0.2246
89465W        W32481  12.104  28.199  25.922 -0.0741  0.0296  0.0375
89466W        W32482  11.103   6.250   6.314 -0.0701  0.3107  0.0404
89467W        W32483   0.350   5.380   4.637  0.4147  0.0761 -0.0351
89468W        W32484   8.432   1.304   4.539 -0.1629 -0.2505 -0.2321
89469W        W32485  26.199   3.209   1.232 -0.2334 -0.0288  0.2745
89470W        W32486  14.162  28.006   0.224 -0.2199 -0.1073  0.2223
89471W        W32487  12.234  10.017   6.057 -0.0074 -0.1616  0.0143
89472W        W32488  15.561  16.633   0.614 -0.0674  0.2361  0.3779
89473W        W32489  17.450  10.065   9.076 -0.0941  0.2503 -0.0824
89474W        W32490  34.141   5.594   0.476  0.2420  0.2511  0.0620
89475W        W32491  20.507  31.723   9.518 -0.1376  0.0492  0.0006
89476W        W32492  33.820  31.606   0.792 -0.1941 -0.1213 -0.2427
89477W        W32493   4.311   2.682  17.566  0.0841 -0.3983 -0.2827
89478W        W32494   7.060  28.641  25.310 -0.0418  0.0310 -0.0725
89479W        W32495   8.099  26.659   3.950  0.2431  0.2141 -0.1152
89480W        W32496  12.055   3.444  29.046 -0.1185  0.0795  0.0293
89481W        W32497   3.323   2.828   8.086 -0.0153  0.0168  0.1527
89482W        W32498  23.637  15.962   5.551 -0.1443 -0.0376 -0.1854
89483W        W32499  16.365   3.093  27.941  0.0019 -0.1387 -0.1767
89484W        W32500  18.072  31.331  27.552  0.0208 -0.1520 -0.0031
89485W        W32501  11.842  10.950   7.817  0.1225  0.1236  0.5611
89486W        W32502  11.576  21.198  29.137  0.1464 -0.1442 -0.1413
89487W        W32503   3.393   1.953   8.728  0.1973  0.0286 -0.0058
89488W        W32504   9.201   3.359  28.039  0.2678  0.0526  0.3387
89489W        W32505  19.075  10.705   4.824  0.1671 -0.2338 -0.1111
89490W        W32506  25.322   7.185   9.210 -0.2890  0.1187 -0.2516
89491W        W32507  15.269  10.614  19.662 -0.0714 -0.0067  0.0524
89492W        W32508  16.455   6.616  27.105  0.1159 -0.0138  0.0014
89493W        W32509  19.338   6.411   9.597 -0.0515 -0.0962 -0.1295
89494W        W32510   9.136   1.753   8.701 -0.0946 -0.0983 -0.0681
89495W        W32511  17.588  15.813   6.839 -0.4045 -0.1475 -0.0224
89496W        W32512  16.857  16.370  19.696  0.1589 -0.1479 -0.0708
89497W        W32513  10.844   3.430   7.687  0.1129  0.0254  0.1524
89498W        W32514   0.826   3.521  21.757  0.0974 -0.1377 -0.2096
89499W        W32515  33.704   6.618   6.175  0.2968  0.0575  0.0171
89500W        W32516   8.041  31.576  27.883  0.2332 -0.1312 -0.1816
89501W        W32517  18.104  11.901  28.619 -0.0851  0.0790  0.1784
89502W        W32518  19.166  14.130   7.269 -0.4457  0.0491 -0.1058
89503W        W32519  16.763  25.860   4.868  0.1490  0.0829 -0.3217
89504W        W32520  15.345   1.800   9.908 -0.0554  0.0381  0.0516
89505W        W32521  11.756   2.672   1.864 -0.0850 -0.0110  0.2878
89506W        W32522  24.818  19.843   9.829  0.0939  0.1581 -0.1353
89507W        W32523   0.512   7.639   5.173 -0.1657 -0.0438 -0.0634
89508W        W32524  34.200  12.776   3.691  0.2011  0.0292 -0.2245
89509W        W32525  21.014  12.825   0.456  0.1941 -0.5415  0.1691
89510W        W32526   9.699   6.396   5.462  0.2120 -0.3764  0.0842
89511W        W32527  32.496  12.059   0.571 -0.0107  0.0279 -0.1955
89512W        W32528  20.254  14.489  19.116  0.1678  0.0354  0.0453
89513W        W32529  21.428   8.794   3.065 -0.1718  0.1309 -0.3035
89514W        W32530  13.347  15.134  23.990 -0.1839  0.2267 -0.1101
89515W        W32531  13.511  16.323  25.675  0.0889  0.1710  0.2186
89516W        W32532   9.157  34.585   2.776  0.0124 -0.2851 -0.1491
89517W        W32533  23.035   5.748  27.071  0.1367  0.1038 -0.0229
89518W        W32534  26.654   9.072   5.179  0.1596  0.4277  0.0896
89519W        W32535   1.681  32.837   0.778 -0.4332 -0.0564 -0.2768
89520W        W32536   5.317   8.799  26.581  0.0155  0.0830  0.1868
89521W        W32537  13.576   8.859   5.698  0.0429 -0.0384  0.0452
89522W        W32538  12.125  28.550  27.700 -0.0559  0.0406  0.0963
89523W        W32539   8.383   5.305  29.024 -0.2683  0.0838  0.2636
89524W        W32540  34.523   5.412  25.450 -0.3981  0.0508  0.1424
89525W        W32541  24.626  11.475  15.228 -0.0646  0.2651 -0.0211
89526W        W32542  22.827  29.235  23.792  0.1363 -0.0091  0.2766
89527W        W32543  24.530  11.395  28.721  0.2101 -0.1107 -0.1912
89528W        W32544   3.617  30.750   9.661  0.0656 -0.2268 -0.0776
89529W        W32545  16.198  33.304  10.353 -0.1913 -0.0286 -0.2910
89530W        W32546  11.677  31.530   9.627  0.0588  0.2300 -0.1678
89531W        W32547  12.589  10.256  24.364 -0.0327 -0.2673  0.0326
89532W        W32548  25.648  13.418   5.319 -0.2562 -0.1329 -0.0087
89533W        W32549   4.573  11.796  28.885  0.1159  0.1558  0.1383
89534W        W32550  15.492  12.213  21.161  0.0997  0.1847  0.2491
89535W        W32551  14.103  23.533  17.609 -0.1566  0.2104 -0.1120
89536W        W32552  20.852   9.481   0.938 -0.2568 -0.1799  0.1513
89537W        W32553  19.954  14.358   6.443 -0.1263 -0.0729  0.1609
89538W        W32554   8.931  17.509   2.301 -0.3104 -0.0694  0.1859
89539W        W32555   7.505  16.601  25.435  0.0849  0.0993 -0.2740
89540W        W32556  24.113   0.113   3.950 -0.1680  0.2590  0.0492
89541W        W32557   2.934  18.969  28.727 -0.1925  0.1473 -0.1682
89542W        W32558  17.347   9.622  28.502  0.2748  0.3902 -0.2383
89543W        W32559   7.243   9.002  27.972  0.0207  0.0478 -0.1785
89544W        W32560  21.864   6.147   7.546  0.1274  0.1310  0.1501
89545W        W32561  32.455  30.707  21.245 -0.0050 -0.0039 -0.1325
89546W        W32562  32.432  10.493   3.729 -0.1683 -0.0197  0.2828
89547W        W32563  13.896   6.783   4.192  0.1759  0.0153 -0.1610
89548W        W32564  14.853  11.901  25.441  0.1970  0.1525 -0.2590
89549W        W32565   2.188  18.251   7.706  0.0701 -0.1747 -0.3443
89550W        W32566   3.391  34.009   0.027 -0.1839 -0.2079 -0.0927
89551W        W32567  33.782  18.317   7.649 -0.3312  0.4669  0.2565
89552W        W32568  22.834   6.123  24.371  0.0585 -0.2097  0.1785
89553W        W32569  12.844  27.157  28.187  0.1712 -0.0870  0.0863
89554W        W32570  12.124  28.298   5.278  0.0415  0.0235  0.0523
89555W        W32571  13.185  13.398  18.857 -0.2048  0.1639 -0.1559
89556W        W32572  25.223   3.297   1.158 -0.0970 -0.3644 -0.2904
89557W        W32573   7.719   8.243   5.009  0.2157 -0.0483 -0.1084
89558W        W32574  31.881   4.097   7.698 -0.0121 -0.2953 -0.1415
89559W        W32575  33.727   2.809   7.673  0.1973 -0.2017 -0.0921
89560W        W32576  32.230  34.755  27.315 -0.0054 -0.3217  0.0296
89561W        W32577  16.497  30.677  10.671  0.0730 -0.1385  0.1417
89562W        W32578  17.242   6.984   8.386 -0.2127  0.0495  0.1850
89563W        W32579  13.755  10.829   3.938  0.0470 -0.0795 -0.1466
89564W        W32580  17.987  10.516  27.823 -0.0615  0.1417  0.1878
89565W        W32581  28.882   2.337   3.023 -0.3018 -0.1987  0.1825
89566W        W32582  12.413  25.810  20.717 -0.0055  0.2445 -0.1182
89567W        W32583  12.417  13.224   2.367  0.0303  0.0939 -0.1148
89568W        W32584   5.129   6.482   4.785  0.0245 -0.1473 -0.3087
89569W        W32585  17.458  17.330  29.192  0.1826 -0.0966 -0.3613
89570W        W32586  25.548   0.902  17.540 -0.2651 -0.2134 -0.3213
89571W        W32587  14.021  34.105   0.456  0.4936  0.0548 -0.2076
89572W        W32588  24.451  11.562  25.535 -0.1336 -0.0702  0.0806
89573W        W32589  27.367   2.688  23.901 -0.0205  0.1586 -0.1316
89574W        W32590  15.641   3.605  19.021  0.3186  0.0604  0.4537
89575W        W32591  34.129  16.392  26.856 -0.1716  0.0596  0.0425
89576W        W32592  18.461  11.110  23.280 -0.0008  0.2394  0.1414
89577W        W32593  11.354  17.332   8.734 -0.0034  0.0244  0.1907
89578W        W32594   4.331   2.995   6.021  0.0847 -0.1687  0.2295
89579W        W32595  16.725   1.009   7.937  0.1522  0.1261 -0.0445
89580W        W32596  14.170   9.192  12.943  0.2283 -0.1257 -0.0817
89581W        W32597   4.512  10.411  28.127 -0.0239  0.3892  0.0571
89582W        W32598   6.703  16.159  27.439  0.0558 -0.2386  0.1478
89583W        W32599  12.069  14.758   0.196 -0.1381 -0.0979 -0.1531
89584W        W32600  14.941  14.331   3.344 -0.1739  0.0451 -0.2402
89585W        W32601   3.340  21.956   0.872  0.0427  0.1651 -0.3794
89586W        W32602  32.973  15.568  28.376 -0.0828  0.1531  0.0581
89587W        W32603  34.427  20.093   0.149 -0.0264  0.1360 -0.1929
89588W        W32604   4.658  18.520  18.926  0.0998 -0.1553 -0.2047
89589W        W32605  11.971   5.874   8.313  0.1129 -0.0128  0.2416
89590W        W32606   0.741  19.720   5.914 -0.3606 -0.3241 -0.3494
89591W        W32607   8.244  29.215  16.293  0.4799  0.4788  0.0120
89592W        W32608  17.906  16.981  20.086 -0.0304 -0.0716  0.1000
89593W        W32609   5.423  26.077   2.907 -0.2579 -0.1033  0.1112
89594W        W32610  25.298  21.448   7.791  0.1625  0.1109  0.2376
89595W        W32611  34.112  25.469   7.217  0.1928 -0.1659 -0.1379
89596W        W32612  24.123  31.367   3.326  0.0511 -0.1104  0.3667
89597W        W32613   9.756  26.126  21.750  0.1844 -0.0686 -0.2487
89598W        W32614   9.355  16.328   0.242 -0.2038  0.2841  0.0336
89599W        W32615  11.108  13.787  28.811  0.2797 -0.1896  0.2230
89600W        W32616   4.300   6.091  26.019 -0.0397  0.1471  0.3075
89601W        W32617  18.711  16.022  27.557  0.0375 -0.0613  0.4034
89602W        W32618  10.576  14.905  26.944 -0.1436  0.1638 -0.2257
89603W        W32619   7.945  17.625  19.398 -0.1478  0.1212  0.0437
89604W        W32620  21.045  22.463   3.187  0.1934 -0.0777 -0.0190
89605W        W32621  28.092  30.400   4.208  0.1469 -0.2539 -0.0362
89606W        W32622   2.003  10.989   2.273 -0.1486 -0.0820  0.3096
89607W        W32623  14.072  13.641   2.571 -0.0888 -0.0918  0.0099
89608W        W32624  16.286   1.560   2.496 -0.1418  0.0270 -0.2628
89609W        W32625  20.957  15.705   6.078 -0.1913 -0.1316  0.0015
89610W        W32626  18.032  33.687   5.447  0.0348  0.3906 -0.0810
89611W        W32627  11.195  13.962   4.245  0.0905  0.3048  0.0362
89612W        W32628   7.724   2.048   7.899 -0.1920 -0.2745 -0.0922
89613W        W32629  19.621   1.371   4.745  0.1755  0.1208 -0.1714
89614W        W32630  16.276   9.852  24.940  0.0446 -0.0386  0.3628
89615W        W32631   7.129  13.607   4.858  0.1161 -0.1371 -0.3620
89616W        W32632  31.691  16.799  22.113 -0.3002 -0.3107  0.0161
89617W        W32633   3.361   9.622  28.387  0.0583  0.0498 -0.1966
89618W        W32634  17.485  11.357   2.741 -0.0978 -0.0203  0.3608
89619W        W32635  30.743   0.062   4.144  0.0972  0.2002  0.1002
89620W        W32636  13.663   1.456  20.721  0.0724  0.2389  0.2535
89621W        W32637  16.664  17.028  23.316  0.2038 -0.2732  0.1243
89622W        W32638  34.111   5.620   9.585  0.4634  0.0686  0.1280
89623W        W32639  13.556  31.805   3.198  0.0485 -0.0132 -0.2079
89624W        W32640  18.879   8.083   5.003 -0.0130  0.0031  0.1411
89625W        W32641  14.947  16.250   5.837 -0.0280 -0.0272 -0.0805
89626W        W32642  30.825  30.252  16.195 -0.0641 -0.2178 -0.2858
89627W        W32643  17.835   7.984  28.734 -0.0384 -0.1556 -0.1681
89628W        W32644   2.535  32.242   2.030 -0.4158  0.2534 -0.0687
89629W        W32645  15.393   6.248  26.054 -0.4272 -0.2415 -0.1855
89630W        W32646  21.610   1.494  27.320  0.0744 -0.0343 -0.1766
89631W        W32647   2.147   8.349  23.028  0.0434  0.0412 -0.4066
89632W        W32648   9.624  19.899   3.524 -0.2358 -0.2017 -0.0400
89633W        W32649  10.069   9.700  23.744 -0.1059  0.1309  0.3192
89634W        W32650  10.990  14.683  25.764  0.0641 -0.0666 -0.3821
89635W        W32651  12.865  13.419  27.181  0.0553  0.6820  0.3591
89636W        W32652  17.037   7.295   9.320 -0.2270 -0.0302 -0.0090
89637W        W32653  13.428   2.011  16.788  0.3010 -0.4005 -0.2461
89638W        W32654   6.796   0.627  14.508  0.0358 -0.0251  0.2221
89639W        W32655   0.516   9.662  18.403 -0.1484 -0.0831 -0.2430
89640W        W32656   9.460  22.987   2.075  0.0180  0.2358  0.3060
89641W        W32657  23.053  21.718  27.395  0.2869 -0.1860  0.0505
89642W        W32658  28.823   6.912   3.667 -0.2166  0.0659  0.1024
89643W        W32659  12.343  11.333  23.232  0.1369 -0.2851 -0.2123
89644W        W32660   3.867  11.625   6.254  0.0532  0.1353  0.0116
89645W        W32661  24.084  14.868  26.809 -0.2044  0.0929  0.2877
89646W        W32662   5.567  18.631   1.554 -0.0327  0.0805 -0.0684
89647W        W32663  14.825   6.624  28.796 -0.0562  0.1916 -0.4797
89648W        W32664  26.767   6.553   8.402 -0.1230  0.0919 -0.0133
89649W        W32665   6.717   6.238   7.581 -0.0533 -0.0136 -0.2189
89650W        W32666   0.514   3.675  29.315  0.0742  0.1078 -0.2792
89651W        W32667  14.719   5.748   8.087 -0.0442  0.0257 -0.1471
89652W        W32668   1.664   7.303  19.215 -0.0796  0.0167 -0.0229
89653W        W32669  16.002  30.982   4.730  0.1866 -0.1230 -0.1418
89654W        W32670  14.301  20.984  29.145  0.1829  0.1261 -0.3195
89655W        W32671  34.247   3.474   2.086 -0.0037 -0.0489  0.0549
89656W        W32672  13.050  13.802   0.562  0.0193  0.0513  0.3112
89657W        W32673   8.516  16.275   5.121  0.5094 -0.3563 -0.0986
89658W        W32674  14.639  25.104   2.364 -0.4960 -0.0611  0.2852
89659W        W32675  21.442  29.768   4.163 -0.0457 -0.2031  0.0501
89660W        W32676  14.248   7.699   0.936  0.0170 -0.0421 -0.1709
89661W        W32677  14.331   8.378   6.225  0.0034 -0.1216  0.0189
89662W        W32678   4.626   0.023  22.374  0.3521 -0.1493  0.0299
89663W        W32679  16.628   6.205   3.123 -0.0664  0.2487  0.0035
89664W        W32680  27.732   9.964   8.609 -0.0729 -0.2428 -0.0292
89665W        W32681   0.199  13.074   9.425  0.0321  0.2148 -0.2019
89666W        W32682  19.740   0.235  25.043  0.0228  0.0996  0.1339
89667W        W32683  15.342  19.915  26.180 -0.1933  0.0459 -0.0977
89668W        W32684   9.570   8.874   9.746 -0.2832 -0.1701 -0.1563
89669W        W32685   5.637   5.631   4.742 -0.0729 -0.0876  0.1441
89670W        W32686  16.177   3.609   0.104 -0.2776  0.2397 -0.1153
89671W        W32687  25.997  17.599  27.998  0.4104 -0.0693 -0.2140
89672W        W32688  28.725   7.318  27.714 -0.0315  0.0633  0.1830
89673W        W32689   2.007  15.931  26.760 -0.1542  0.0029 -0.4470
89674W        W32690  21.455  18.785   0.492 -0.2264  0.0534  0.1977
89675W        W32691  10.388  27.497   7.545 -0.0037  0.1418 -0.0233
89676W        W32692  10.838  19.817   5.844 -0.2539 -0.3242  0.3405
89677W        W32693  10.038  33.192  20.028 -0.0931 -0.0495  0.2533
89678W        W32694   4.115  10.102   1.185  0.1209  0.0115  0.0779
89679W        W32695   7.572   4.997   6.566 -0.0479 -0.1416  0.1058
89680W        W32696   0.604  12.120  11.215  0.1897 -0.0022  0.1989
89681W        W32697  30.939  15.861   8.365  0.1285  0.1139  0.3669
89682W        W32698   4.648  32.034   9.340  0.0208  0.1295 -0.3546
89683W        W32699  17.979   5.672  27.053  0.2565  0.2664  0.1719
89684W        W32700  14.753  10.593   8.566 -0.0267  0.1284  0.0779
89685W        W32701   5.347  33.543   3.486  0.4456 -0.0882 -0.0731
89686W        W32702   6.899  17.024  28.194 -0.0863  0.1466  0.1648
89687W        W32703  30.918  30.884  23.700  0.0193 -0.0031  0.2562
89688W        W32704   5.850  14.062  22.690  0.1093 -0.3804 -0.1086
89689W        W32705  19.035  15.642  29.086 -0.1278  0.1569  0.2658
89690W        W32706  15.679   0.364   8.589  0.0906  0.2488 -0.1158
89691W        W32707  30.527  26.094  16.813 -0.1934 -0.0713  0.2145
89692W        W32708  15.759   7.904   4.633 -0.2305 -0.0250 -0.0409
89693W        W32709  27.620   3.750   0.421  0.0377  0.1093  0.1608
89694W        W32710  29.913   2.340   4.143  0.0379 -0.0137  0.0795
89695W        W32711   3.647   7.558   7.001 -0.0259  0.0985 -0.0902
89696W        W32712   1.847   9.740   2.374  0.1998  0.1367 -0.0387
89697W        W32713   1.117   4.195  28.667 -0.2462 -0.1557  0.0055
89698W        W32714  11.991  21.487  23.228  0.0630  0.1017 -0.4580
89699W        W32715  33.038   2.470   3.747  0.1454  0.0693  0.1838
89700W        W32716   1.369   4.623   6.880 -0.1136  0.0289 -0.0015
89701W        W32717  20.282  10.447  17.106 -0.1451  0.2091 -0.1038
89702W        W32718   5.467  20.218  25.567  0.1281  0.1808 -0.0300
89703W        W32719   6.656  31.202   9.097 -0.2235  0.1016  0.0527
89704W        W32720  20.142  21.222   0.840  0.1132  0.0913  0.0712
89705W        W32721  27.794  11.672  11.082 -0.1817  0.3762  0.1415
89706W        W32722  21.098   0.823  18.159 -0.1616 -0.1222 -0.1969
89707W        W32723  17.540   7.129  27.527 -0.1928 -0.1185  0.1675
89708W        W32724  11.643  20.385   5.877  0.0638 -0.0374  0.1290
89709W        W32725  10.155   3.922  27.728  0.2237 -0.0837 -0.4142
89710W        W32726  18.513  34.095   2.895  0.0944  0.1399 -0.5202
89711W        W32727  11.103  16.469   6.650 -0.0346  0.4056  0.2302
89712W        W32728  13.793  30.804   1.483 -0.1399 -0.2410 -0.2240
89713W        W32729  30.431  16.616   6.016 -0.0069  0.0270  0.1109
89714W        W32730  17.001  14.660  27.953 -0.3212  0.2545 -0.0018
89715W        W32731   5.261  27.514  23.748 -0.0951 -0.1998 -0.3611
89716W        W32732  19.594   8.591   0.389  0.1603  0.0712  0.1060
89717W        W32733  22.710  18.500   3.928 -0.1827 -0.0083 -0.0804
89718W        W32734   9.232   5.484   7.042  0.2819  0.1456  0.1527
89719W        W32735  21.189  33.629   3.149  0.0262 -0.3160 -0.1534
89720W        W32736   5.700  12.811  27.421 -0.2311 -0.0438  0.1278
89721W        W32737   2.920   5.544  29.267  0.2025 -0.0712 -0.2186
89722W        W32738  31.478   6.961   2.893 -0.0221  0.4009 -0.0185
89723W        W32739  27.246  29.667   3.769 -0.2447 -0.1502 -0.1635
89724W        W32740   6.607  32.396   0.003  0.2521 -0.1858 -0.1692
89725W        W32741  10.085   5.218  25.835 -0.3168  0.2369 -0.0403
89726W        W32742   5.714  24.428  26.753  0.1602  0.1893  0.1886
89727W        W32743   5.505  10.745   6.273  0.0482  0.0135 -0.0150
89728W        W32744  17.928  14.677  20.365 -0.3502  0.0412  0.0906
89729W        W32745  11.175  16.871   8.003  0.1473 -0.0271  0.1937
89730W        W32746  12.266   6.702   5.108 -0.3961 -0.0948 -0.4013
89731W        W32747   3.876  32.655   0.027  0.0236 -0.0626 -0.0651
89732W        W32748  19.174  34.108   8.325  0.0434 -0.3982  0.0455
89733W        W32749   8.607  14.297  27.678 -0.0935 -0.1023  0.1041
89734W        W32750   3.540  14.063  28.449  0.1523  0.0707 -0.3730
89735W        W32751  18.612  13.841  22.114  0.0927  0.1382 -0.1693
89736W        W32752   8.839  16.936  26.123  0.1700  0.0778 -0.0645
89737W        W32753  24.253   4.394  15.727  0.2224 -0.2057  0.2000
89738W        W32754   3.854  12.682   3.394 -0.0597 -0.1394 -0.3856
89739W        W32755   9.332   1.394  24.799  0.2679  0.0097 -0.0219
89740W        W32756  34.379  20.350  25.076  0.1568 -0.1148 -0.3049
89741W        W32757  10.099  18.890  24.698  0.0325  0.2130 -0.0634
89742W        W32758   0.398   7.022   4.170  0.1363 -0.0933 -0.0285
89743W        W32759  22.949   1.321  27.430 -0.1133 -0.3638  0.0974
89744W        W32760  22.599  11.532   5.158  0.1811 -0.0582 -0.0783
89745W        W32761   5.388   9.474  16.527  0.3127  0.3826  0.0090
89746W        W32762  25.152   5.390  21.462  0.1217  0.4079 -0.2231
89747W        W32763  28.239  16.199   3.975 -0.0070 -0.2109 -0.2624
89748W        W32764  21.693  20.916  17.294 -0.0338 -0.2089  0.0241
89749W        W32765  24.101  24.017   7.917 -0.1202  0.1369 -0.0774
89750W        W32766  11.061   1.358  24.774 -0.0825 -0.2162 -0.0177
89751W        W32767   6.713  30.821  19.830 -0.2256  0.2098  0.1662
89752W        W32768  20.548  17.623   3.170 -0.2042  0.0360 -0.2459
89753W        W32769   9.196  12.690  27.956  0.0724  0.3228  0.0631
89754W        W32770   3.333  19.051  19.213  0.0888 -0.0184 -0.1672
89755W        W32771  20.322  28.527  27.862 -0.2107 -0.1218 -0.0351
89756W        W32772  12.578  14.092   6.997  0.0106  0.1296 -0.0247
89757W        W32773  30.093   2.520  25.900 -0.1624 -0.3402  0.0428
89758W        W32774  12.648   9.788  25.151 -0.2037 -0.0053  0.0619
89759W        W32775  13.816  33.123   4.826 -0.2250 -0.3430 -0.1215
89760W        W32776   6.288   8.557   5.123 -0.2165  0.1678  0.0974
89761W        W32777   4.263  30.340  21.437 -0.1445 -0.1328 -0.0171
89762W        W32778   5.344  13.265  26.021 -0.1498  0.2853  0.0332
89763W        W32779   7.412  10.479   3.531  0.0899 -0.3161 -0.0733
89764W        W32780  22.099   7.419   0.861 -0.0370 -0.2950  0.0124
89765W        W32781  29.213  14.110   6.165 -0.0925  0.0571  0.2002
89766W        W32782   6.552   6.690   5.588 -0.0439 -0.0345 -0.2234
89767W        W32783   4.189  18.959   6.159 -0.3037 -0.2323 -0.4297
89768W        W32784  21.946  19.342   7.011 -0.0846 -0.1543 -0.0962
89769W        W32785  32.282  15.864  24.542 -0.0270  0.0076  0.2651
89770W        W32786  28.671  14.460   7.893  0.2278  0.2515 -0.2513
89771W        W32787  16.126   9.606  28.533  0.0077 -0.2445 -0.0803
89772W        W32788  20.413  13.956   4.367  0.0622  0.1483 -0.3108
89773W        W32789  10.064   7.880  24.182  0.1193 -0.1176 -0.0173
89774W        W32790  13.407  12.479  17.730  0.0306 -0.1264  0.0064
89775W        W32791  16.548  27.354  14.279 -0.1562 -0.0549  0.1235
89776W        W32792  15.667   9.725  20.537  0.1236 -0.5529 -0.0821
89777W        W32793  21.168  14.800   9.055  0.2762 -0.0310 -0.0002
89778W        W32794  11.201  16.415  28.033  0.1986 -0.0983  0.2045
89779W        W32795  12.385  20.946   3.003 -0.2481 -0.0212  0.2672
89780W        W32796  22.838   0.210   2.788 -0.2976 -0.0594  0.3475
89781W        W32797  18.904  27.877   4.253 -0.1327  0.2903 -0.1367
89782W        W32798  17.156  14.185  21.949 -0.4938  0.0162 -0.2149
89783W        W32799  33.449   7.881   6.435  0.1038  0.1595 -0.2000
89784W        W32800  13.831  13.373   6.838  0.2571  0.5879  0.0773
89785W        W32801  15.653  23.076   6.931 -0.3131 -0.1650  0.0886
89786W        W32802  32.157  19.724  22.966 -0.0199  0.2748 -0.0226
89787W        W32803  15.703   9.802  13.510  0.1011  0.0673  0.0754
89788W        W32804  14.761  13.170   5.289  0.0930  0.1980  0.0386
89789W        W32805  26.422  15.612  28.442 -0.0870  0.0830  0.0422
89790W        W32806  19.417   9.867   3.817 -0.2056 -0.0818 -0.0980
89791W        W32807  23.718   9.304  17.621  0.0806  0.1296  0.0820
89792W        W32808   2.878  16.076  28.935  0.2632  0.5416  0.0839
89793W        W32809   7.504  24.184   3.970 -0.2757  0.0034 -0.3264
89794W        W32810  15.696   0.216   2.219 -0.1753 -0.0334  0.1430
89795W        W32811  25.111  25.476   7.579  0.2805 -0.0301 -0.2128
89796W        W32812   3.982  29.548   9.128 -0.0055 -0.3435 -0.1113
89797W        W32813  12.607   7.725  27.351  0.2190 -0.2028 -0.4103
89798W        W32814  29.255  31.499  19.750  0.0973  0.0666  0.1549
89799W        W32815  34.551  34.132  27.834 -0.3686 -0.0142 -0.0055
89800W        W32816  20.765   5.107   7.936  0.2942  0.2697  0.0927
89801W        W32817  12.649   4.254  22.278  0.0843  0.0919  0.1064
89802W        W32818   9.507  30.438  15.633 -0.0873 -0.3158  0.0812
89803W        W32819  33.695  15.718  10.434  0.0077  0.2346 -0.0185
89804W        W32820   5.557  22.671  23.971  0.0542 -0.1497 -0.0583
89805W        W32821  13.583  16.044   1.161 -0.0359  0.2195  0.0341
89806W        W32822   8.721  17.133  27.905  0.0553 -0.0524  0.2311
89807W        W32823  31.917  24.115   3.342 -0.3574 -0.2523 -0.0944
89808W        W32824   8.770  11.241  10.101  0.1204  0.4084  0.1063
89809W        W32825   8.985  10.987  27.769  0.2127  0.3687  0.2321
89810W        W32826  17.468  15.544   5.518  0.0267 -0.1871 -0.0940
89811W        W32827   5.536  12.521   5.904 -0.2959 -0.0687 -0.1043
89812W        W32828  11.162  19.108  16.070 -0.3628  0.0481  0.2879
89813W        W32829  13.535  34.591   8.479 -0.2079 -0.2928  0.2256
89814W        W32830   2.585  13.908  25.553  0.1064  0.1585 -0.0186
89815W        W32831  27.764  33.886   1.124 -0.0289  0.1539 -0.0595
89816W        W32832  14.304  30.170   1.846  0.0851 -0.2020  0.1170
89817W        W32833  13.672  30.935   5.752 -0.0376  0.0195  0.0431
89818W        W32834   8.201  13.479   7.941 -0.0909 -0.0912  0.0326
89819W        W32835  21.687  28.632  16.550  0.2280  0.2873  0.1509
89820W        W32836  20.475  11.192  29.064  0.0263  0.2818 -0.1357
89821W        W32837   4.831   7.305  18.218  0.1855  0.1798 -0.0705
89822W        W32838   5.440  17.570   4.632  0.1143 -0.2487  0.0189
89823W        W32839  29.354   4.382   6.624  0.0899 -0.0881 -0.3702
89824W        W32840   8.409  30.323   2.614  0.3142 -0.1898 -0.2992
89825W        W32841  20.306  32.713   6.902 -0.0409 -0.0187  0.0165
89826W        W32842  24.099  31.346   2.818 -0.0611  0.1377  0.1895
89827W        W32843  23.822   8.664   7.786 -0.0966 -0.1914  0.1271
89828W        W32844   8.750   8.109  27.229  0.1770  0.0680  0.1606
89829W        W32845   2.882  11.104   2.732  0.0647 -0.3905 -0.1006
89830W        W32846  33.155  13.581   3.864 -0.2072 -0.2182  0.2106
89831W        W32847  17.149  16.668  27.760  0.2191  0.1635  0.0619
89832W        W32848  24.066  18.072   7.613  0.4609  0.0918 -0.0269
89833W        W32849  25.469  18.346   3.908 -0.0953 -0.2376 -0.1144
89834W        W32850  17.240   9.976   2.623 -0.0204  0.1800 -0.2770
89835W        W32851   9.754   8.946   8.527  0.0633 -0.1462 -0.2134
89836W        W32852  17.896  15.132   5.414 -0.0796  0.0917 -0.3953
89837W        W32853   8.541  12.692   3.815  0.1256 -0.3183 -0.0634
89838W        W32854  17.104  18.574   3.057 -0.4035  0.0911  0.2479
89839W        W32855  25.038  28.282   7.085 -0.1293  0.0684  0.1653
89840W        W32856  17.683  11.108  22.345  0.0453 -0.0860 -0.1291
89841W        W32857   8.461   0.547   1.876 -0.0066 -0.0826  0.1879
89842W        W32858   0.569   3.029   5.362 -0.0171 -0.3610  0.3352
89843W        W32859   1.614  28.804   7.806 -0.1476  0.1982  0.3381
89844W        W32860  15.760  32.903  20.699 -0.0420 -0.2013  0.0736
89845W        W32861  32.404  14.570   0.428  0.3776  0.1120  0.2661
89846W        W32862  22.972   6.764  25.168 -0.3001  0.2811  0.0401
89847W        W32863   8.878  14.831   6.268  0.1420  0.0213 -0.0118
89848W        W32864  17.598  12.102   6.971  0.0483  0.1745 -0.0870
89849W        W32865  15.674  16.982   7.657 -0.4040  0.1168 -0.0450
89850W        W32866   9.435   0.808  28.377  0.0395 -0.0911 -0.3118
89851W        W32867  18.188  12.992  23.742 -0.0738  0.1812  0.2796
89852W        W32868  25.564  18.012  15.846 -0.2063  0.0405 -0.0518
89853W        W32869  25.371   5.095  25.420  0.1657 -0.3677  0.0443
89854W        W32870  12.767   9.804   6.217  0.0356 -0.0805  0.0498
89855W        W32871  22.356   5.181   2.807  0.1170  0.0069 -0.0173
89856W        W32872  14.607   3.592  22.835 -0.0782  0.2859 -0.0101
89857W        W32873  10.375  21.441  21.065  0.2507 -0.2793 -0.1399
89858W        W32874   5.143   4.468   7.491  0.0907 -0.5714 -0.1162
89859W        W32875  26.562  11.221   5.438 -0.0400  0.0923 -0.2888
89860W        W32876  27.069  20.009  21.533 -0.1186 -0.1657  0.2532
89861W        W32877  12.221  10.128   6.828  0.1143 -0.1295  0.2097
89862W        W32878  10.414   4.392   6.887  0.0205 -0.0696 -0.0584
89863W        W32879  32.012  11.989  28.180  0.1468 -0.0818  0.1545
89864W        W32880  23.379   6.225  10.010  0.0241  0.4521  0.3516
89865W        W32881  23.344  12.483  23.131 -0.1657  0.1705 -0.2428
89866W        W32882  12.541   9.924  28.413 -0.3421  0.1657  0.1119
89867W        W32883  11.067  18.506  28.017 -0.1114 -0.0387 -0.0259
89868W        W32884  17.617   8.725   7.598 -0.2366 -0.3733 -0.0404
89869W        W32885  29.414   5.318  26.009  0.1336 -0.1264 -0.0452
89870W        W32886  29.719  14.863   1.317  0.2278 -0.1769 -0.0363
89871W        W32887   1.917  19.011   2.982 -0.0033  0.2383  0.0963
89872W        W32888  22.670  19.799  22.554 -0.0728  0.3612 -0.0059
89873W        W32889  31.667  19.521   9.062 -0.3370 -0.0983 -0.1427
89874W        W32890  22.331  20.491  22.985  0.0090 -0.1516 -0.1492
89875W        W32891   8.972   4.436  23.135 -0.1416 -0.0903 -0.0094
89876W        W32892  26.642  30.073   0.006  0.2164 -0.0785  0.2536
89877W        W32893  14.755  15.201  12.647 -0.1516  0.0158  0.0617
89878W        W32894   4.541  15.450   8.788 -0.0999 -0.0930 -0.0899
89879W        W32895  10.868  14.503  14.841 -0.0461  0.0536  0.1478
89880W        W32896  18.412  32.001   8.385  0.0952  0.1619 -0.0922
89881W        W32897  21.288   1.570  19.313  0.4103  0.0313 -0.2475
89882W        W32898  12.593   3.698  25.795  0.0152 -0.2462 -0.1209
89883W        W32899  34.415  24.208   8.853 -0.2368  0.2596 -0.1682
89884W        W32900  11.173   6.841   9.840 -0.1994 -0.3153  0.0848
89885W        W32901   3.616   3.945  25.366 -0.0089  0.1567  0.3307
89886W        W32902   9.726   6.683   5.887 -0.1358  0.3430  0.2337
89887W        W32903  28.642  21.488   0.127 -0.3844  0.1053 -0.1000
89888W        W32904  10.443  15.576  24.212  0.1661 -0.1999  0.2043
89889W        W32905  18.383  11.821  22.729  0.0964  0.0875  0.0844
89890W        W32906  10.542   4.189   2.832 -0.1926  0.1779  0.0467
89891W        W32907   9.561  21.185  16.661 -0.0227 -0.0971 -0.0106
89892W        W32908  33.638  13.781  15.954 -0.0028  0.1200  0.1444
89893W        W32909   9.575  32.477   7.362 -0.1097 -0.1617  0.1115
89894W        W32910  11.633  24.600  28.504  0.2896 -0.0242  0.1222
89895W        W32911  15.899  12.034  27.483  0.0218  0.0005  0.3608
89896W        W32912  29.188  28.400  27.477  0.0846  0.1745  0.0596
89897W        W32913  12.436  20.970   7.693 -0.1445 -0.0520  0.0683
89898W        W32914  15.531   3.240   9.517 -0.0024  0.1084  0.0223
89899W        W32915  25.249  32.782  16.296  0.0946  0.0812 -0.0969
89900W        W32916   3.875  17.699  27.615 -0.1116  0.0481 -0.0050
89901W        W32917  21.480  18.554  12.953 -0.0276  0.0605  0.0015
89902W        W32918  22.419  28.286   7.910  0.1720  0.2374  0.3219
89903W        W32919  20.639  19.517   3.395 -0.3699  0.4571  0.0421
89904W        W32920   9.202  30.606  26.773  0.2030 -0.1259  0.2630
89905W        W32921   9.024  21.833   0.299 -0.0663  0.0159  0.1372
89906W        W32922  14.996  13.270  23.939  0.0063  0.0736  0.1255
89907W        W32923   3.167  22.984   2.868 -0.1422 -0.0654 -0.1233
89908W        W32924  19.291  27.637   4.487  0.2020  0.2526  0.0594
89909W        W32925  16.013  10.838   3.774 -0.1446 -0.5211 -0.1677
89910W        W32926  22.049   6.023   2.806  0.0021 -0.0962 -0.1011
89911W        W32927  16.760  21.462   0.610  0.2090  0.3518  0.1081
89912W        W32928  18.469  19.377   4.233  0.1528  0.1576  0.0726
89913W        W32929  29.116  33.270   1.954 -0.1503 -0.1258 -0.0410
89914W        W32930  18.515  11.512  23.652 -0.1159 -0.1461  0.1163
89915W        W32931  27.961  20.424   2.947  0.1703  0.0591  0.3363
89916W        W32932  20.320  24.830   2.374 -0.2869  0.1009 -0.3576
89917W        W32933  25.309  17.208   5.667 -0.0729  0.0114  0.0938
89918W        W32934   0.691  14.216   6.366 -0.0492  0.2509 -0.3310
89919W        W32935  25.520  10.187   9.933 -0.0032  0.1570  0.2240
89920W        W32936  13.337  18.284  26.150 -0.0515  0.0438  0.0356
89921W        W32937  28.160  13.371  10.468 -0.1857 -0.0877 -0.1761
89922W        W32938   0.847  19.192  24.726  0.3186 -0.1445  0.0214
89923W        W32939  19.671  24.283   3.688  0.1555  0.0711 -0.1946
89924W        W32940  10.816  10.980   8.481  0.1927 -0.1134  0.1351
89925W        W32941  21.171   4.328   6.089 -0.0239 -0.1504 -0.1284
89926W        W32942  16.802  11.646  27.267 -0.1288 -0.0604  0.1683
89927W        W32943   1.203   0.053   5.493  0.0345  0.0867 -0.3348
89928W        W32944   8.299   5.434  10.261  0.0145  0.0911  0.1944
89929W        W32945  21.141  20.179   5.554 -0.2343  0.2709  0.0277
89930W        W32946  31.473   3.290  22.787 -0.0260  0.1782 -0.1784
89931W        W32947  33.397  16.795  26.304  0.0776 -0.0665 -0.3397
89932W        W32948   0.581  15.932   2.037  0.0645  0.1559  0.2445
89933W        W32949  21.529   5.316  21.606 -0.0787 -0.0462 -0.0411
89934W        W32950  23.488  20.527  15.104  0.1352 -0.0885  0.0770
89935W        W32951   8.064  29.491  21.872  0.1382 -0.2217 -0.2401
89936W        W32952   1.134  30.909   4.438  0.3492  0.0923 -0.5624
89937W        W32953   2.031  34.624   9.163 -0.0447  0.1062 -0.0553
89938W        W32954   7.667   7.269   7.393 -0.0083  0.1125 -0.2226
89939W        W32955   6.095   3.654   4.192  0.2545 -0.3266 -0.1645
89940W        W32956   4.053   3.004  14.903 -0.1001  0.2015  0.1660
89941W        W32957  24.899  20.001  10.285  0.2198 -0.1199 -0.0565
89942W        W32958  18.111  12.275   2.088  0.1562  0.0501 -0.3276
89943W        W32959  15.401   9.361   6.180 -0.0638 -0.1187  0.2073
89944W        W32960   8.348   5.928   7.192  0.0420 -0.1646  0.2851
89945W        W32961   3.853   5.394  26.150  0.0534 -0.2005 -0.1088
89946W        W32962  34.338  12.290   5.610 -0.1174 -0.0381 -0.3299
89947W        W32963  13.781  25.460  26.780  0.1775  0.0732  0.2424
89948W        W32964  22.096   6.502  27.170  0.0432 -0.3033  0.0378
89949W        W32965  11.365  23.035  21.248 -0.0238  0.1731 -0.0964
89950W        W32966  14.971   6.654   2.967 -0.1011 -0.0168 -0.1571
89951W        W32967  17.359  19.306   3.174  0.0532  0.2014 -0.1704
89952W        W32968   6.050   5.561  23.540  0.0183  0.2958  0.0036
89953W        W32969  10.167  25.420   8.499  0.2089 -0.0546  0.1384
89954W        W32970  34.144  18.522   5.519  0.0350  0.0030 -0.1139
89955W        W32971  32.235  32.827  28.094 -0.0891 -0.0649  0.1156
89956W        W32972   2.156  18.498   5.246 -0.3141 -0.0194 -0.0527
89957W        W32973  10.298  15.937   3.040  0.3502  0.0071 -0.2433
89958W        W32974  12.180   9.551   3.531 -0.1680  0.0874 -0.2675
89959W        W32975  17.567   5.109  26.073 -0.3685  0.3602 -0.1795
89960W        W32976  11.361   9.110   5.110  0.2082  0.1295 -0.2240
89961W        W32977  22.039  27.054   7.807  0.2674 -0.0846 -0.0389
89962W        W32978  33.285   5.222   4.123  0.1633  0.1200 -0.1957
89963W        W32979   6.515   9.324   0.645  0.1196  0.1557  0.1753
89964W        W32980   9.611  29.037  19.063 -0.0398  0.0199 -0.0873
89965W        W32981  22.478   6.182   4.948 -0.1386  0.0949  0.0899
89966W        W32982  16.721  17.412   6.931  0.1227 -0.0209 -0.1713
89967W        W32983   6.522  12.938   7.825 -0.4191 -0.1975  0.0103
89968W        W32984  31.090  17.960  10.681 -0.2370  0.0954 -0.3152
89969W        W32985   1.094  13.260  28.752  0.1461 -0.0438 -0.0002
89970W        W32986  16.218  11.341  17.885 -0.0260  0.4337  0.0706
89971W        W32987  34.341   5.261   3.065  0.1028 -0.0534 -0.3607
89972W        W32988  21.122  13.269  28.042 -0.0529 -0.2239 -0.2981
89973W        W32989  13.219  32.434  24.349  0.1208 -0.0387 -0.0418
89974W        W32990   8.989  33.093  28.601  0.0299  0.0146 -0.2330
89975W        W32991  12.627  27.561   7.803  0.0806 -0.2908 -0.0692
89976W        W32992  33.404  25.952   9.117 -0.3307 -0.1353  0.0688
89977W        W32993  11.514   6.322   1.751 -0.2938  0.1046  0.1349
89978W        W32994  34.087  29.339   8.619  0.0728 -0.1735 -0.1163
89979W        W32995  31.599  23.948  16.070 -0.0155  0.1225 -0.1649
89980W        W32996  19.550  20.463   4.600  0.1197  0.1177  0.0997
89981W        W32997  21.860   5.116  26.992  0.1631  0.0381 -0.1893
89982W        W32998   7.342  22.407   1.761  0.1365  0.2079  0.1441
89983W        W32999  17.772   8.553  28.045  0.0142  0.1485 -0.2258
89984W        W33000  11.807   2.683   9.195  0.0070  0.0685 -0.0768
89985W        W33001   8.652   4.150  28.579  0.1528 -0.0635  0.1116
89986W        W33002  14.909   8.800  26.095  0.2648  0.1069 -0.2995
89987W        W33003   4.631   8.528  21.194  0.0454  0.0015  0.2278
89988W        W33004  14.923  14.397  29.179 -0.1538 -0.0738 -0.0409
89989W        W33005   7.899  30.845  26.529 -0.0052  0.0586  0.2783
89990W        W33006   9.351   9.601  25.959 -0.0157  0.1688 -0.2419
89991W        W33007  19.272   9.485   8.433  0.1879 -0.2003 -0.4839
89992W        W33008  15.821   0.156   9.510  0.2731 -0.3411  0.3060
89993W        W33009   4.716  27.516   6.970 -0.2578 -0.1909 -0.0896
89994W        W33010  15.357  10.087   8.122 -0.4682  0.1864 -0.0867
89995W        W33011  13.062  26.679  28.864 -0.3538  0.2347  0.2717
89996W        W33012  33.055  33.474   1.427  0.3285 -0.1704  0.1060
89997W        W33013  20.542  12.666   6.032 -0.0764  0.2909 -0.0382
89998W        W33014  23.398   7.002   4.501  0.0036 -0.2429  0.0657
89999W        W33015  27.296   5.616   6.333  0.1871  0.0271 -0.1563
90000W        W33016  18.502  21.749   3.428 -0.0709  0.1026 -0.0422
90001W        W33017  10.720   1.095   8.082  0.0578 -0.1224 -0.1352
90002W        W33018   9.991  17.067   5.309  0.1026  0.0680  0.0810
90003W        W33019   6.921   7.575   8.366 -0.0923  0.0649 -0.0719
90004W        W33020   7.628  21.710   7.554 -0.0604 -0.5059  0.1093
90005W        W33021  19.005  10.698  24.496  0.1986  0.0557  0.2361
90006W        W33022   7.050  14.914   5.093 -0.2312  0.1479 -0.0348
90007W        W33023  23.987   6.971   6.819  0.0742  0.2118 -0.0276
90008W        W33024  13.447  18.583  24.319 -0.1506  0.0858 -0.0286
90009W        W33025  15.608  13.715   2.014 -0.2022 -0.1847 -0.0454
90010W        W33026   1.548   0.216   3.200 -0.0723  0.0210  0.2728
90011W        W33027  32.673   8.922   7.020  0.0355  0.2251  0.0965
90012W        W33028  27.848  33.420  27.515  0.0438  0.1706 -0.2892
90013W        W33029  28.683  19.415  10.192 -0.0135  0.3713 -0.3406
90014W        W33030  21.083  10.150   8.818  0.0086 -0.2708  0.1378
90015W        W33031  17.881  17.756  28.448  0.1078  0.1065 -0.1554
90016W        W33032  20.647  11.731  16.931  0.0180  0.0489  0.0661
90017W        W33033   9.382  16.521   9.644  0.1123 -0.0613  0.0464
90018W        W33034  11.865   5.230   7.008 -0.2610 -0.0729 -0.0016
90019W        W33035   7.959  27.754   6.989 -0.3399 -0.1836 -0.3019
90020W        W33036  19.676  11.216   4.741 -0.1758 -0.0354 -0.2956
90021W        W33037  23.422   4.415   9.207  0.1220  0.1753  0.1436
90022W        W33038  24.698  29.786  23.019  0.2686  0.0719  0.1170
90023W        W33039  34.274  17.567   5.788  0.1634  0.0218  0.0491
90024W        W33040   5.257  13.155   9.300 -0.1256  0.1030 -0.0773
90025W        W33041  18.683   4.458   9.022 -0.0204  0.1961  0.2664
90026W        W33042   5.278  12.398   4.862 -0.1543 -0.2284 -0.0844
90027W        W33043  19.472  25.959   6.403  0.1482 -0.3338 -0.2088
90028W        W33044   1.502   3.410  16.970  0.2119  0.0859 -0.3026
90029W        W33045  12.140   3.066   8.981  0.0631 -0.1386  0.0246
90030W        W33046  20.352  13.891   3.824  0.2860  0.1087  0.1921
90031W        W33047   6.459   4.686  23.915 -0.1001  0.1339 -0.1660
90032W        W33048   2.152  32.650  29.280 -0.1357 -0.0294  0.0046
90033W        W33049  15.978   3.069   4.071 -0.1049  0.0146  0.1897
90034W        W33050  15.329  24.210   8.099  0.2549 -0.1206  0.0468
90035W        W33051   9.627  19.765   0.345  0.3202  0.1784  0.0073
90036W        W33052  11.651  24.205  18.247 -0.1731  0.0546 -0.1396
90037W        W33053  28.291  31.368   0.223 -0.2695 -0.1372 -0.0630
90038W        W33054   7.042  14.252  19.345  0.0829 -0.1295  0.1324
90039W        W33055   9.397  34.346   9.409  0.0800 -0.0379 -0.2559
90040W        W33056  34.553  32.759   0.099  0.1817  0.0362 -0.0880
90041W        W33057   5.843  10.084  13.501  0.0673 -0.0312 -0.1140
90042W        W33058   7.169   6.922  24.105  0.1859 -0.1399  0.1746
90043W        W33059   2.009  10.579   1.555 -0.0664 -0.1360  0.2811
90044W        W33060   4.242   8.389   7.549 -0.1042  0.3723  0.2091
90045W        W33061  17.836  21.138   1.338  0.0566  0.1433  0.3222
90046W        W33062   3.679   8.364   8.807 -0.4228  0.1911 -0.2932
90047W        W33063  13.878   2.766   1.873 -0.0883  0.0646 -0.2321
90048W        W33064   8.032  16.436   0.633 -0.1177 -0.3590  0.2825
90049W        W33065  23.210  14.259   9.344  0.0147 -0.2474  0.1398
90050W        W33066  16.780  17.741  17.822  0.0521  0.1979  0.0695
90051W        W33067   9.576  11.417   2.791  0.0976 -0.3815 -0.5116
90052W        W33068  15.832   1.914   1.719  0.2514 -0.0588  0.3662
90053W        W33069  13.391  30.146  24.658 -0.1837 -0.0008  0.0022
90054W        W33070  19.874   3.990   3.312  0.0433  0.1636  0.4280
90055W        W33071  20.128   4.130  28.269  0.1944  0.3149 -0.1847
90056W        W33072   7.156   2.054  23.858  0.3053  0.0835 -0.1910
90057W        W33073  14.314   0.355   4.345  0.2579  0.2661  0.2324
90058W        W33074  20.287  12.364  13.684  0.0474  0.2268  0.0601
90059W        W33075  11.192  16.462   2.168 -0.0693 -0.1796 -0.1347
90060W        W33076  14.891   2.421   6.366 -0.0428  0.2858 -0.1062
90061W        W33077  19.780  15.099   4.068  0.2201 -0.0813 -0.0533
90062W        W33078   5.027   4.408   8.652 -0.1145  0.2311 -0.1947
90063W        W33079   4.521   5.299   9.022 -0.3598  0.1834 -0.0442
90064W        W33080  24.671   3.889   8.454  0.1110 -0.1809 -0.0509
90065W        W33081  24.900  18.962   1.068 -0.1270 -0.1631 -0.0436
90066W        W33082  18.911  10.375   5.254  0.0291  0.2778  0.2602
90067W        W33083  18.005   5.352  29.208  0.2858 -0.1207 -0.1083
90068W        W33084  13.634  10.838   4.540  0.1082  0.1715  0.2617
90069W        W33085   2.817  33.802   1.073  0.1752  0.0467 -0.1227
90070W        W33086  20.696   7.975  28.494 -0.0547  0.0116 -0.2633
90071W        W33087  23.475   6.960   5.820 -0.1067  0.4291  0.1441
90072W        W33088   3.673  16.622  14.337  0.0199  0.0078 -0.0323
90073W        W33089  29.705   8.467  11.392 -0.0321 -0.0129 -0.1314
90074W        W33090  21.720  21.772   8.751 -0.0495  0.2737 -0.1160
90075W        W33091   5.040   7.321  22.983 -0.2980  0.0394  0.1057
90076W        W33092  17.403   2.471   0.462  0.0733  0.3056  0.0522
90077W        W33093   5.750  17.609   1.774  0.1221  0.4027  0.1720
90078W        W33094  17.360   8.505   3.225 -0.2010 -0.0562 -0.3561
90079W        W33095  22.533   8.854   5.966 -0.0609 -0.2849  0.1763
90080W        W33096  19.041  15.631  26.727  0.0597 -0.0661 -0.1386
90081W        W33097  19.050  16.505  20.290 -0.1305 -0.3005  0.1262
90082W        W33098  13.188   6.352   5.037 -0.2001 -0.1997  0.1621
90083W        W33099   9.783  11.775   8.071  0.2349  0.0250  0.1770
90084W        W33100  22.453  12.682   8.491  0.2415  0.0900  0.0581
90085W        W33101  11.945  16.801  27.266  0.0958  0.2718  0.5178
90086W        W33102  17.136  25.306   8.957  0.0681 -0.3637 -0.2224
90087W        W33103   1.278   3.402   3.311  0.1499 -0.2857  0.1610
90088W        W33104  30.872  12.242   1.621 -0.0418 -0.1271 -0.0115
90089W        W33105  19.436  11.996   0.194  0.2350  0.0635  0.1041
90090W        W33106   5.774  24.998   8.439  0.1127 -0.3099 -0.0989
90091W        W33107  29.452  11.228   4.652 -0.0370 -0.0050 -0.3714
90092W        W33108   7.744  10.092   2.744 -0.0501 -0.1194  0.2215
90093W        W33109  14.411   3.119  10.234  0.0484  0.1353 -0.3176
90094W        W33110  15.056   7.282  18.116 -0.0575  0.0715  0.2544
90095W        W33111   6.166  24.501   1.250 -0.3843  0.1267 -0.0186
90096W        W33112  17.709   8.839   5.150 -0.3234 -0.1835 -0.6877
90097W        W33113   2.515   9.722   0.630  0.3028  0.0149 -0.1771
90098W        W33114   7.838   4.113  28.078 -0.0311  0.2787  0.1873
90099W        W33115  15.517  16.643   8.459 -0.0562 -0.4589  0.1518
90100W        W33116   3.943  16.974  29.129  0.1119  0.1478  0.0883
90101W        W33117  18.987  30.004  22.165  0.1709 -0.2121  0.0064
90102W        W33118  18.824  14.012   5.479 -0.0246  0.2576  0.1695
90103W        W33119   4.188  16.405   1.585 -0.1296  0.3451 -0.1857
90104W        W33120   4.636  14.477   7.070  0.2591  0.1515  0.1561
90105W        W33121   8.041  19.891   2.234 -0.2833  0.2272  0.1677
90106W        W33122  11.375  34.618   2.391 -0.1853 -0.0376 -0.0861
90107W        W33123  10.182  13.004  22.438  0.1109  0.1507 -0.3340
90108W        W33124   7.750  11.796  27.777  0.1091 -0.0449  0.0585
90109W        W33125  14.743  17.281  20.472 -0.3869  0.0820 -0.0022
90110W        W33126   6.485  27.185  20.469 -0.2499 -0.1638 -0.3029
90111W        W33127  26.022   0.361  26.622 -0.0159 -0.3329 -0.3046
90112W        W33128  26.461  11.166  24.404 -0.0044  0.0678 -0.0447
90113W        W33129  15.073  25.291   2.144 -0.2207 -0.1599 -0.0541
90114W        W33130  12.731   4.585   0.294  0.3403  0.0427  0.0635
90115W        W33131   6.555   5.963   6.684  0.4207  0.0700  0.0170
90116W        W33132   5.429   4.005   5.085  0.1516  0.0185 -0.1751
90117W        W33133  14.643  13.026   6.280  0.1514 -0.2575 -0.1133
90118W        W33134   2.716  10.265   9.412 -0.0804  0.0766  0.0466
90119W        W33135  17.347   5.221   2.848  0.2403  0.1674 -0.2451
90120W        W33136   4.865   4.805   9.751 -0.1364  0.1147 -0.1380
90121W        W33137  34.105   4.408  28.795  0.2108 -0.3488 -0.1922
90122W        W33138   9.814  15.220  18.598  0.0201  0.0994 -0.3058
90123W        W33139   6.778  23.137   4.098  0.2069  0.0540 -0.0859
90124W        W33140  26.463  10.173   2.594  0.0021 -0.2052  0.1003
90125W        W33141  15.194  11.957   3.115 -0.0603 -0.2647 -0.0584
90126W        W33142  16.434  30.389   1.683 -0.0397  0.1464  0.1128
90127W        W33143   8.145  15.497   3.967  0.0322  0.0336 -0.3411
90128W        W33144  16.001  18.299  28.155  0.0370 -0.2706  0.3516
90129W        W33145   7.875  19.392   2.373 -0.0769 -0.2579  0.0034
90130W        W33146  29.189   3.296   6.811  0.0165 -0.0332 -0.5420
90131W        W33147   3.001  14.360   5.031  0.1253  0.0518  0.1327
90132W        W33148  16.543  12.897   4.237  0.1325  0.2599 -0.1662
90133W        W33149  32.302   3.843  27.745  0.0132 -0.4931 -0.2865
90134W        W33150  14.472  19.373  21.337 -0.1513 -0.1086 -0.1357
90135W        W33151  13.098  18.415   6.683  0.0444  0.5602  0.2084
90136W        W33152   5.456   8.629   3.033 -0.1344  0.1394  0.1138
90137W        W33153  17.464   8.918   2.803 -0.4051  0.0950  0.1812
90138W        W33154  14.426  10.920   5.732 -0.1527  0.3516  0.0957
90139W        W33155   8.487  34.532   3.549 -0.0409 -0.0335  0.1657
90140W        W33156  19.505  20.043  16.511 -0.1365 -0.2268  0.1215
90141W        W33157  22.017  20.732  27.489 -0.1140 -0.0131  0.8146
90142W        W33158  17.381   3.694   1.093  0.1494 -0.0991 -0.0651
90143W        W33159  15.995  10.756   5.125 -0.1925  0.0532  0.0119
90144W        W33160  19.103   5.132  24.727  0.0495  0.0504  0.3662
90145W        W33161  14.682  16.390  23.077 -0.3360  0.1694 -0.1247
90146W        W33162  11.171  11.887   4.690  0.1576 -0.1139  0.0379
90147W        W33163  16.866  14.734  22.157 -0.0163 -0.0150 -0.2289
90148W        W33164   4.328   5.504   1.401  0.2997  0.1423  0.3263
90149W        W33165  21.424   7.618  24.941  0.0551 -0.0173 -0.1687
90150W        W33166  13.458   4.323  27.132  0.1201 -0.0238  0.1841
90151W        W33167   0.700  31.607   8.745 -0.2425  0.2819  0.1742
90152W        W33168  15.905  33.109  29.258 -0.1205  0.2260 -0.2339
90153W        W33169  23.429  19.225  21.371 -0.0784 -0.2088 -0.0003
90154W        W33170  13.203  25.646  28.665  0.0495  0.1130 -0.1068
90155W        W33171  26.042  27.609   3.011 -0.2710 -0.0740  0.0453
90156W        W33172  15.715   5.904  21.776 -0.1415  0.1048  0.0160
90157W        W33173  26.038  11.910   3.004  0.0161 -0.3721  0.2817
90158W        W33174  32.887  16.304   6.829  0.1956  0.0906  0.2152
90159W        W33175  15.288  18.907  25.160 -0.1169 -0.0774 -0.0284
90160W        W33176  21.266   6.739   6.208 -0.0062 -0.1211 -0.0003
90161W        W33177  27.193   5.451  25.253 -0.0303  0.3262 -0.2683
90162W        W33178   8.430   8.764   2.762 -0.3428 -0.0686 -0.2335
90163W        W33179  22.198  16.785   4.806  0.0208  0.0882  0.1089
90164W        W33180  23.315   5.065  20.264 -0.1748  0.0473 -0.1005
90165W        W33181  13.033  13.422   0.144 -0.2110  0.1654  0.0195
90166W        W33182  16.617  28.490   9.426 -0.1243 -0.0796  0.3250
90167W        W33183  32.127  16.578   3.552 -0.3031  0.4015 -0.1336
90168W        W33184  11.551   1.784   0.359  0.2255 -0.0764  0.0780
90169W        W33185  13.477   1.436  26.830  0.0845  0.0857  0.3159
90170W        W33186  15.985  10.884   7.899  0.5863 -0.0463  0.2407
90171W        W33187  34.545  29.132   5.180 -0.0356 -0.0540 -0.2927
90172W        W33188   6.954   7.297  25.175 -0.0588  0.2206 -0.0356
90173W        W33189  21.996  21.671   6.036 -0.3612 -0.3349 -0.0218
90174W        W33190  17.556  11.957  27.961 -0.1360  0.2929  0.0123
90175W        W33191  34.305   5.649   9.142 -0.1353 -0.1860  0.1913
90176W        W33192  16.881   1.846   3.276  0.1890 -0.0692  0.0449
90177W        W33193  32.673  13.789   6.619 -0.2182  0.3532  0.0813
90178W        W33194   3.563  12.836  26.221  0.1308  0.3204 -0.0611
90179W        W33195  19.024   0.788   7.958 -0.1261 -0.0835 -0.1776
90180W        W33196  29.724   2.003   9.113 -0.1153 -0.0277  0.0287
90181W        W33197  33.952  23.401   7.936 -0.0366 -0.2025  0.0538
90182W        W33198  19.664  11.171   5.877 -0.2598 -0.0492 -0.3850
90183W        W33199  11.583  28.111   2.558  0.0765  0.1668  0.0620
90184W        W33200  24.602  14.250   3.976 -0.1005  0.1243 -0.1750
90185W        W33201  27.091  27.423  15.860 -0.1411  0.2714 -0.0632
90186W        W33202   0.480  10.942   9.253  0.2235  0.2108 -0.0291
90187W        W33203  15.982  26.280   2.778  0.0326 -0.0697  0.0050
90188W        W33204   9.187  30.946  26.327 -0.0484 -0.1626 -0.4010
90189W        W33205  10.648  20.751   4.383  0.1085 -0.0564  0.0108
90190W        W33206  14.601  12.318   8.547 -0.0124  0.0032 -0.1080
90191W        W33207  15.219  27.954   1.660 -0.0310  0.3110 -0.3154
90192W        W33208  26.067   8.561   9.375  0.1274  0.2550  0.2051
90193W        W33209   2.916  12.526  25.988  0.0754 -0.0353 -0.1996
90194W        W33210   7.317  20.142  28.306  0.0217  0.5377  0.2823
90195W        W33211   8.282   5.316   7.764 -0.0193 -0.0852  0.0656
90196W        W33212   9.299  33.014   7.888 -0.1291 -0.1853 -0.1542
90197W        W33213  10.317   7.511   0.708  0.1364  0.1150  0.1406
90198W        W33214   6.392  12.350   6.686  0.0071 -0.2160  0.2421
90199W        W33215   3.979  31.563  24.932 -0.0703 -0.1574 -0.0413
90200W        W33216   2.775   3.504  28.269  0.3789 -0.4000 -0.2512
90201W        W33217  23.312   6.974  25.530  0.0611  0.0164  0.2368
90202W        W33218   7.894  17.920  28.573 -0.2653  0.4356  0.0727
90203W        W33219  24.140   7.265   7.818 -0.0031 -0.0344  0.2073
90204W        W33220  23.487  19.921   6.050 -0.0809  0.3746 -0.1266
90205W        W33221  15.322  33.589  27.737 -0.0669 -0.1428 -0.1302
90206W        W33222  12.209  13.213   3.667  0.4019  0.0992  0.2814
90207W        W33223  10.262   3.455   7.292 -0.0081  0.2670 -0.0823
90208W        W33224  18.818   3.645   8.510  0.0525 -0.1803 -0.1832
90209W        W33225   9.914  26.464   5.576 -0.2155  0.0954 -0.1389
90210W        W33226   7.677  18.693   4.465  0.1716  0.0527 -0.0845
90211W        W33227  17.331  10.590   8.448 -0.0661 -0.4154 -0.0505
90212W        W33228   3.349   9.987  28.714  0.3135 -0.5118 -0.1677
90213W        W33229  25.584  10.318   7.526 -0.3634  0.0365  0.2378
90214W        W33230  25.664   3.916   7.260 -0.1529 -0.1166 -0.0158
90215W        W33231  12.957  10.925   0.849  0.3784 -0.1698  0.0553
90216W        W33232  19.068  28.162  21.850  0.1658 -0.1563  0.1864
90217W        W33233  12.185  18.516  24.656 -0.4613 -0.0841  0.1015
90218W        W33234  12.680  14.004   4.459 -0.2093  0.0026  0.0350
90219W        W33235  22.576  12.467  13.655  0.1081  0.2144 -0.0214
90220W        W33236  13.887  31.756   5.454  0.0257  0.1760  0.2286
90221W        W33237  22.895  24.711  29.235 -0.0596 -0.0059  0.0320
90222W        W33238  24.554  12.481   3.330 -0.2724 -0.1221 -0.4454
90223W        W33239   8.655   8.838  10.122  0.0301  0.0731  0.2948
90224W        W33240   6.735   4.157   4.898 -0.1201 -0.2739 -0.3539
90225W        W33241  14.902  15.942  25.606 -0.0689  0.3311  0.0879
90226W        W33242   6.270  34.038   6.436  0.1488  0.1207 -0.2548
90227W        W33243  23.807  13.983  28.154 -0.0342 -0.1239 -0.1693
90228W        W33244  14.158  12.088  13.321 -0.0997  0.0901 -0.2309
90229W        W33245   9.784   4.114   4.049 -0.0607 -0.1460  0.2061
90230W        W33246   9.416  22.667   1.686  0.2416 -0.0070  0.1849
90231W        W33247  27.669  23.065  27.741  0.0947 -0.0362 -0.4149
90232W        W33248  13.846   8.691  28.022 -0.0228  0.2143  0.4669
90233W        W33249  17.055  23.588   1.312  0.1336  0.0154 -0.2410
90234W        W33250  20.006  16.788   4.836  0.0091 -0.3883 -0.2367
90235W        W33251   7.510   3.135   8.658 -0.5108 -0.0818 -0.1780
90236W        W33252   9.635  12.585   4.076 -0.0750  0.1561  0.2764
90237W        W33253  14.143  18.245  28.658  0.1503  0.1369 -0.0064
90238W        W33254   8.672  26.568   7.424 -0.0455  0.2613 -0.1075
90239W        W33255  34.569  23.183   3.504 -0.1856 -0.2478  0.2035
90240W        W33256   1.473   4.886  19.582 -0.1456  0.1789  0.2330
90241W        W33257   9.279   8.190  29.178 -0.1578 -0.1075  0.1427
90242W        W33258  28.272  33.936   9.872  0.2418  0.4041 -0.1752
90243W        W33259  13.884  12.694  27.111  0.1682  0.3322 -0.1325
90244W        W33260   4.994   4.947   7.263  0.2685 -0.1857  0.0811
90245W        W33261  12.752  15.568   6.323  0.0534 -0.0767  0.0466
90246W        W33262  16.122   1.138  25.861 -0.2074 -0.0571  0.1496
90247W        W33263  17.792   7.856  23.433  0.0695 -0.1240  0.2598
90248W        W33264   1.834   8.496   3.738  0.1571 -0.1572  0.2835
90249W        W33265  20.311   9.347  27.598 -0.1011  0.0458 -0.1323
90250W        W33266  26.449  32.255  22.855 -0.3037 -0.1080 -0.0684
90251W        W33267  15.279  33.603   1.467  0.1347  0.1420 -0.4745
90252W        W33268  21.409  10.566   4.902  0.0588 -0.1526 -0.0806
90253W        W33269   4.653   8.414  24.410  0.0419  0.0345  0.2542
90254W        W33270   0.897   7.616  27.228  0.2293  0.1622  0.0081
90255W        W33271  13.592  34.470   9.219  0.0053 -0.2811  0.2600
90256W        W33272  14.917  14.390   8.064  0.0423  0.0840 -0.4049
90257W        W33273  19.931  23.225  26.892 -0.0964 -0.2332  0.0956
90258W        W33274   9.587   9.943   8.969  0.3433  0.2751  0.0079
90259W        W33275  17.249  29.676   4.152 -0.0658  0.0932  0.2204
90260W        W33276  14.611   5.603  29.292 -0.1221  0.1688  0.0612
90261W        W33277  12.594   4.000   1.490  0.1585 -0.2914  0.1000
90262W        W33278  22.759  16.675   6.654  0.4303 -0.2301 -0.2160
90263W        W33279  14.152   6.852   0.184 -0.0569 -0.0647 -0.2119
90264W        W33280  16.857   4.163   5.413 -0.3018  0.1620 -0.0378
90265W        W33281   4.382   3.681   7.614  0.0325  0.1502 -0.0802
90266W        W33282  10.832   2.335   0.526 -0.1510  0.0919  0.0817
90267W        W33283  10.770   9.232   4.291 -0.0224 -0.2497 -0.1976
90268W        W33284  11.336   7.813   1.761  0.0686 -0.0836 -0.2951
90269W        W33285  23.751   8.267   8.140  0.0913 -0.1569  0.3147
90270W        W33286  13.028  15.251  25.472 -0.1303 -0.1168 -0.1047
90271W        W33287   8.520  34.174   4.021  0.0853  0.0290  0.0863
90272W        W33288  18.268  18.685   7.195  0.0572  0.1727 -0.1177
90273W        W33289  25.804   2.319   4.200  0.0312 -0.1691  0.1283
90274W        W33290  31.665   8.748   8.004 -0.1142  0.2056 -0.0176
90275W        W33291   7.188   3.654   5.727  0.2645  0.0206 -0.1920
90276W        W33292  15.871   9.337   7.970 -0.0362  0.1423  0.1365
90277W        W33293  11.085   5.398   3.397 -0.0223 -0.0449 -0.3862
90278W        W33294  28.129   3.429   4.707 -0.0445  0.0801 -0.1441
90279W        W33295  13.695  10.600   8.835  0.1987  0.4004 -0.2858
90280W        W33296  32.258   5.556  10.220  0.0357  0.1604  0.0050
90281W        W33297   8.588  19.078   8.168  0.1562  0.1597  0.0099
90282W        W33298   7.869  21.222   5.743  0.2037 -0.3957 -0.0122
90283W        W33299  16.987   8.055   6.727  0.1975 -0.0783  0.2573
90284W        W33300  21.939  31.319  24.938 -0.1244 -0.3274 -0.1807
90285W        W33301  13.395   4.236   5.395  0.0750  0.2067 -0.1560
90286W        W33302  10.151  28.315  28.506 -0.1936 -0.1674 -0.1264
90287W        W33303  12.976  13.675  19.280  0.0188 -0.1011 -0.2952
90288W        W33304  21.857  14.442   9.438 -0.1664 -0.3998 -0.1481
90289W        W33305  24.380   7.048  28.621  0.0104 -0.2621 -0.0460
90290W        W33306   2.595  23.303   3.469 -0.2310  0.0246  0.0882
90291W        W33307   5.680   5.870   2.992 -0.0656  0.1056  0.2141
90292W        W33308  14.681  15.221  23.911 -0.1673 -0.1351  0.1293
90293W        W33309  12.068  17.798  24.736 -0.0074  0.1029 -0.0633
90294W        W33310  25.931   7.578   1.960 -0.0933  0.1064  0.0397
90295W        W33311  12.407  18.464  16.094  0.1750 -0.2539 -0.1013
90296W        W33312  11.514   8.406   7.261  0.1990  0.0027 -0.1666
90297W        W33313  15.369  14.126  26.888  0.1233  0.4155 -0.4663
90298W        W33314  23.715  11.453   0.923 -0.1929  0.0866 -0.1145
90299W        W33315  15.046  31.272   6.747 -0.3340 -0.2436  0.1325
90300W        W33316   9.387  30.684  17.747 -0.0405  0.1466 -0.1406
90301W        W33317  13.948  16.027   8.272 -0.0467 -0.1547  0.0660
90302W        W33318  29.944   4.001  25.995 -0.3458  0.2723 -0.0455
90303W        W33319   0.779  17.145  15.566  0.3106  0.0524  0.3041
90304W        W33320  20.496   5.875   5.828  0.1501 -0.1533  0.0504
90305W        W33321   6.083  13.218  14.775 -0.2032 -0.1202 -0.2869
90306W        W33322   7.243   0.150  24.652 -0.4795 -0.0682 -0.2212
90307W        W33323  11.848   5.824   0.499  0.0236 -0.1797  0.0169
90308W        W33324  12.669   8.174   4.935  0.1909  0.0217  0.1774
90309W        W33325  24.490  21.073   8.356  0.0241  0.1422  0.0358
90310W        W33326   5.391  10.165  27.223  0.0369  0.2217 -0.2417
90311W        W33327  11.230   2.491  10.795  0.1608 -0.0955  0.3049
90312W        W33328  15.635   9.944   0.873  0.1475  0.1310  0.1111
90313W        W33329  25.075  28.536   9.012  0.0242  0.0028  0.3638
90314W        W33330   2.049  29.786  22.838  0.1794 -0.1141  0.2440
90315W        W33331  15.420  23.531  16.789 -0.4995  0.1688 -0.3752
90316W        W33332   3.775  12.090   7.631 -0.0778 -0.1431 -0.1783
90317W        W33333   2.026   1.708   9.909  0.3054  0.0655  0.2905
90318W        W33334  14.429  18.656   8.535  0.2925 -0.2992  0.0224
90319W        W33335   0.146  30.760   8.993  0.0260 -0.1322  0.3572
90320W        W33336  18.004  14.243   4.454  0.0166  0.1118 -0.0778
90321W        W33337  19.660   9.159   5.807 -0.4700  0.0156  0.3040
90322W        W33338  15.015  32.821  25.791 -0.3265 -0.1613 -0.1576
90323W        W33339  16.443   6.874   0.577 -0.1310  0.1181 -0.0756
90324W        W33340  20.989  10.735  26.643 -0.1207  0.0157  0.2799
90325W        W33341  26.501  29.454   1.891  0.0457 -0.0239  0.0886
90326W        W33342  18.305  11.780   2.439 -0.2060 -0.0745  0.3937
90327W        W33343   5.824  16.725   9.070 -0.0830  0.1085 -0.0637
90328W        W33344  22.379   3.772   5.164 -0.0526 -0.0012  0.1143
90329W        W33345  17.438  14.991  21.829 -0.0336 -0.2325 -0.1226
90330W        W33346   7.517   1.134  25.022 -0.0865 -0.1973  0.0071
90331W        W33347  12.427   3.501   6.632  0.1733 -0.5236  0.2055
90332W        W33348  13.836   7.425   8.577  0.2851  0.2207 -0.1472
90333W        W33349   3.167   0.471   9.952  0.1237 -0.0898  0.0438
90334W        W33350  11.306  16.975   2.556 -0.0498 -0.2900 -0.0969
90335W        W33351  13.187   4.470  24.504  0.2360  0.1310 -0.0083
90336W        W33352  22.027  15.902   4.868  0.0616 -0.0178 -0.2557
90337W        W33353   9.456  13.118   6.957  0.2821 -0.0409 -0.1792
90338W        W33354  20.208   7.142   2.396  0.3128 -0.1609 -0.0696
90339W        W33355  10.616  12.524   4.234  0.3140 -0.1482  0.0204
90340W        W33356   7.046   2.293  24.671  0.3505  0.0334  0.0594
90341W        W33357   8.614   6.106   8.873 -0.0339 -0.1250  0.2411
90342W        W33358  13.689   6.195   6.554 -0.3195 -0.2143  0.2218
90343W        W33359   6.927  27.746   3.373  0.1420  0.0275  0.4532
90344W        W33360  18.274  19.878   3.766  0.0418  0.0236  0.0576
90345W        W33361  17.889  16.079  26.889  0.2207 -0.0625 -0.1973
90346W        W33362  15.984   5.697   8.472  0.2715  0.0735 -0.0992
90347W        W33363   3.352   4.506   8.161  0.0481 -0.2692  0.1460
90348W        W33364  13.758  23.285   1.412  0.2539  0.2178 -0.0229
90349W        W33365  16.123  13.275  28.151 -0.1314 -0.0821 -0.4827
90350W        W33366  11.283  21.532   3.283  0.4907 -0.4744 -0.1489
90351W        W33367  16.681  12.358  25.022  0.0346  0.0642 -0.1370
90352W        W33368   6.286  18.853   3.851 -0.1060 -0.0812 -0.1881
90353W        W33369  30.078  12.517   8.530 -0.0014  0.1261 -0.1208
90354W        W33370  29.704   8.650   9.831  0.0072 -0.0719  0.2308
90355W        W33371  12.209   5.231   5.222 -0.0594  0.2009 -0.0457
90356W        W33372  14.747   7.196   8.036  0.1755 -0.0666  0.0073
90357W        W33373  22.024   5.150   5.219  0.0258  0.2364 -0.2427
90358W        W33374   0.821  19.228  18.859 -0.0900 -0.0429  0.1049
90359W        W33375   9.509  32.981   4.042  0.1261  0.0470 -0.1145
90360W        W33376  27.225  10.365   8.230  0.0685 -0.0639 -0.1206
90361W        W33377   3.214   2.533   6.166  0.4338 -0.0823  0.3215
90362W        W33378  31.602   8.925   6.890 -0.1093 -0.1255 -0.0716
90363W        W33379  19.715  10.104  27.336 -0.2498  0.1656 -0.2333
90364W        W33380  25.754  18.908   0.868  0.0905 -0.3422  0.0406
90365W        W33381   5.923  15.436  29.320 -0.1391  0.1131 -0.0018
90366W        W33382  19.681  13.978  28.203 -0.0314 -0.0540  0.4776
90367W        W33383  14.542  13.343   3.183  0.2647  0.0298  0.1015
90368W        W33384  17.306  24.334  28.992  0.1190  0.1508 -0.0040
90369W        W33385  20.580  11.338  26.252  0.3498  0.2513  0.0603
90370W        W33386  26.318   4.738  28.642 -0.0536 -0.0022 -0.1168
90371W        W33387  16.554   5.425   0.733  0.3143  0.2077  0.0692
90372W        W33388   5.160   6.952   8.185  0.1122  0.0978  0.2291
90373W        W33389  10.143   4.643   5.753  0.1181 -0.1419 -0.0786
90374W        W33390  16.098  28.968   7.432 -0.3079 -0.1680  0.3283
90375W        W33391  30.184  17.184   6.589 -0.2717  0.3347  0.2164
90376W        W33392  20.925   6.688   7.447  0.1405 -0.0061 -0.4442
90377W        W33393   6.523   4.290  24.930  0.1964  0.2115 -0.1008
90378W        W33394  18.621   2.214   3.607 -0.2402 -0.0911  0.2063
90379W        W33395   2.433   5.763   6.748 -0.3499  0.0305 -0.0188
90380W        W33396   0.319  21.752  20.276  0.0267  0.1483  0.1766
90381W        W33397  28.642   7.787   3.715  0.2181 -0.0651 -0.0179
90382W        W33398  25.760  10.895   7.814  0.1687 -0.1868  0.0292
90383W        W33399   1.748   1.773  27.879 -0.2203 -0.1595 -0.2053
90384W        W33400   6.942   1.055  10.642 -0.0655  0.2169 -0.0072
90385W        W33401  10.386   6.405   3.165  0.0581  0.0383  0.1793
90386W        W33402  11.616  21.733   6.408 -0.2324 -0.0031  0.1780
90387W        W33403  21.539  12.263   6.673  0.2755  0.0961 -0.1949
90388W        W33404   4.310  33.051   5.563 -0.0278  0.2876 -0.0700
90389W        W33405  17.744  28.094  24.294  0.0612  0.0758 -0.1711
90390W        W33406  31.115   1.024   1.697  0.0941 -0.0143  0.1516
90391W        W33407  15.060   6.915  26.761  0.5054  0.0947 -0.1035
90392W        W33408  11.134   5.191  27.765  0.2192  0.1419  0.0753
90393W        W33409  30.114  33.324  11.463  0.0958 -0.1590  0.0420
90394W        W33410  11.334  23.586  20.389 -0.1465 -0.0177 -0.0506
90395W        W33411  18.039  12.139   6.627  0.0856 -0.1930 -0.4560
90396W        W33412  12.469   7.721   3.295 -0.2646 -0.0874  0.3025
90397W        W33413  16.866   6.385   5.836 -0.4313  0.1232  0.1356
90398W        W33414  11.133  33.154   5.682 -0.2239  0.0735 -0.1971
90399W        W33415  31.963   8.677   5.038 -0.3159 -0.1145  0.0771
90400W        W33416  14.484   0.757   0.209  0.0109  0.3557 -0.0291
90401W        W33417   3.512   8.480   7.869  0.0650  0.0311  0.2645
90402W        W33418   6.460  30.546  25.923  0.4417  0.1007  0.0778
90403W        W33419  18.137   8.700   9.629  0.1914  0.0701  0.0389
90404W        W33420   0.242   6.800   5.034  0.3981  0.2481 -0.0655
90405W        W33421  21.713   0.359   5.732  0.0834 -0.0408  0.4178
90406W        W33422  10.921   2.318   1.711  0.0081  0.0169  0.2342
90407W        W33423  10.090  11.940  18.659  0.1521  0.0138  0.3292
90408W        W33424  14.179   7.078   8.070 -0.1872  0.0360 -0.1570
90409W        W33425  22.224  17.488   4.425  0.1259  0.0627 -0.0961
90410W        W33426   6.930   6.872  28.277  0.1359 -0.0903 -0.1785
90411W        W33427   2.809  13.516  29.214  0.5464 -0.0698  0.1305
90412W        W33428  24.825   9.019   9.317  0.0853  0.1636  0.0987
90413W        W33429  23.225  19.521  28.069 -0.1208 -0.1517 -0.0167
90414W        W33430  17.757  16.527   6.409 -0.1167 -0.1615  0.0874
90415W        W33431  15.764  30.588  28.045  0.1674  0.2418  0.2576
90416W        W33432  25.722  10.437   8.631 -0.0677 -0.3440 -0.0067
90417W        W33433  26.623   2.791   3.731 -0.3795  0.0283 -0.0173
90418W        W33434   5.004  27.681   7.369 -0.0522 -0.2188  0.0158
90419W        W33435  28.487   9.096  10.420 -0.0066 -0.0070  0.0416
90420W        W33436  16.680  14.268  22.195 -0.0735  0.2492  0.0917
90421W        W33437  31.396  21.931  22.646  0.0040  0.0291 -0.0501
90422W        W33438   7.504   3.102   7.001  0.0213 -0.0218  0.1683
90423W        W33439  10.331  10.043  27.997 -0.1209 -0.1794 -0.2256
90424W        W33440  14.215  14.871   4.204  0.0504  0.0759 -0.0881
90425W        W33441  15.982  10.293  28.961  0.2084  0.1042 -0.0853
90426W        W33442   1.797   4.572  25.273 -0.2004  0.0382  0.0466
90427W        W33443  14.529  17.897   7.263 -0.2085 -0.5182  0.0614
90428W        W33444  13.898   7.658  20.061  0.0227  0.0183  0.3977
90429W        W33445  14.943  16.449  29.193  0.0010 -0.1049 -0.2408
90430W        W33446   8.658  33.081   8.520  0.1974  0.0297  0.3124
90431W        W33447   7.721   8.225   7.495 -0.0985 -0.1085 -0.1591
90432W        W33448   8.694  32.902  10.322  0.3573  0.1050 -0.0154
90433W        W33449   1.852  22.496  27.958  0.1573 -0.0409 -0.1913
90434W        W33450  13.611  22.139  28.221  0.2954  0.0237  0.0667
90435W        W33451  27.082   4.380  22.343  0.0815  0.1634 -0.0019
90436W        W33452   0.827   4.013  10.158  0.0647  0.0267 -0.3436
90437W        W33453  23.058  24.172   5.827  0.1945  0.0539  0.0742
90438W        W33454   4.380   2.429   0.688 -0.0066  0.0361  0.0255
90439W        W33455  32.165   2.511   5.553 -0.2853  0.0386 -0.3931
90440W        W33456  12.575   4.687   6.204 -0.1107 -0.0675 -0.1116
90441W        W33457   5.849  10.656  28.162  0.0357  0.3646 -0.1469
90442W        W33458  16.258  31.169   7.886 -0.0716  0.0927  0.0254
90443W        W33459  31.034  29.454   1.915 -0.3675 -0.0139  0.4209
90444W        W33460   8.818  17.739   7.661  0.0127 -0.1233  0.0283
90445W        W33461  17.002   6.733   9.352  0.0723  0.0003 -0.1802
90446W        W33462   5.852   0.518  20.765 -0.1196  0.0256  0.2925
90447W        W33463  28.455   7.657   5.851  0.1651  0.1548 -0.0572
90448W        W33464   8.975   6.815   7.314 -0.1957  0.3300  0.0853
90449W        W33465  34.244  21.565   9.206 -0.3219 -0.0438  0.1666
90450W        W33466  13.772  14.600  17.782  0.1578 -0.2100  0.2513
90451W        W33467   6.335   9.398   8.125 -0.4034 -0.0171  0.2317
90452W        W33468   1.398  15.946   1.746  0.2464 -0.2375  0.0420
90453W        W33469  33.176   2.179   4.407  0.0032  0.0103 -0.0621
90454W        W33470   4.290  12.775   2.390 -0.0348 -0.1418  0.1244
90455W        W33471  13.489  14.847  26.221 -0.2414 -0.0079  0.2113
90456W        W33472  31.252  19.259   7.682 -0.2198 -0.3292  0.1164
90457W        W33473  15.379   2.035  24.214  0.0154  0.0249 -0.1427
90458W        W33474   7.604   0.845  27.132 -0.2079  0.0403 -0.2838
90459W        W33475  31.491  14.034   8.597 -0.1158  0.1638  0.3369
90460W        W33476  12.699   6.748  26.794  0.1323  0.0155  0.0926
90461W        W33477  21.629  34.399   9.559 -0.0026  0.1587  0.0361
90462W        W33478   8.848   7.255   0.612 -0.2417  0.0742  0.0333
90463W        W33479  19.630   2.246   9.291  0.5465 -0.2249  0.1800
90464W        W33480  16.967  26.645   1.427 -0.0725  0.2139  0.0002
90465W        W33481  32.196  12.201  27.780  0.0928 -0.0771 -0.0230
90466W        W33482  15.135  23.656   1.663 -0.3422  0.0473  0.3230
90467W        W33483  11.928  31.510  26.745 -0.1605 -0.2691  0.0360
90468W        W33484   6.561   1.508   0.650  0.1795 -0.3394  0.1978
90469W        W33485  23.810  23.930  10.885 -0.2678 -0.0491  0.1538
90470W        W33486   9.504   4.004   0.729 -0.1409  0.3785 -0.0019
90471W        W33487   3.044  30.116   9.981 -0.1431  0.2122 -0.0939
90472W        W33488  18.519  12.044   6.934  0.3813 -0.3065  0.3025
90473W        W33489  21.822   7.212   5.410 -0.3004 -0.1509  0.1427
90474W        W33490  18.592  14.840   4.411 -0.2181  0.0374  0.2699
90475W        W33491  22.615  34.077   4.288 -0.2749  0.0326 -0.2656
90476W        W33492   0.049   2.841   2.512 -0.3562  0.3172 -0.2190
90477W        W33493   5.601  16.932   6.320  0.2113 -0.1112  0.1491
90478W        W33494  33.598  20.675   7.117  0.0224  0.0540  0.4815
90479W        W33495  26.381  12.276   2.532  0.1121 -0.1137 -0.1771
90480W        W33496  22.852  32.117  24.362 -0.3600  0.0740  0.0125
90481W        W33497  17.928  16.890   1.630  0.3072  0.1495  0.1652
90482W        W33498  17.569  10.007   5.811  0.1292 -0.0812 -0.2825
90483W        W33499   8.584  18.745   7.372 -0.0837 -0.1426  0.2142
90484W        W33500  33.027  21.043  26.390  0.1885  0.1439  0.1707
90485W        W33501  21.612  29.971   1.044 -0.1419 -0.2726 -0.1011
90486W        W33502  13.347   7.938   6.549  0.0287  0.0313 -0.3252
90487W        W33503  21.762   1.036   9.375 -0.0390  0.2471  0.0639
90488W        W33504  29.576  15.428  28.384 -0.3454 -0.0467  0.0637
90489W        W33505   7.773  32.070   7.008  0.1105 -0.1028  0.3838
90490W        W33506  26.232  32.331  29.107 -0.1135 -0.0031 -0.1036
90491W        W33507  14.744  11.819   5.218  0.0610  0.0996 -0.0732
90492W        W33508  30.493  24.642  27.591 -0.0565 -0.2821 -0.1324
90493W        W33509   9.879   6.150   9.983  0.1523 -0.2340  0.2758
90494W        W33510   0.107  10.715   0.042  0.1035 -0.1986 -0.4105
90495W        W33511   4.665   7.286   0.200  0.1756 -0.0136 -0.0568
90496W        W33512  16.132  16.539  21.484  0.1473  0.1516  0.0499
90497W        W33513  32.398   3.334   3.883 -0.0289  0.0011 -0.2662
90498W        W33514  13.593  17.624   2.184  0.1991  0.0533 -0.1133
90499W        W33515   7.683  16.778   4.230 -0.1147 -0.0350  0.0781
90500W        W33516   2.362  11.217   6.849 -0.2647  0.0253 -0.1602
90501W        W33517  15.967  18.214   4.478 -0.0694  0.0190 -0.0258
90502W        W33518  13.916  29.661  23.508  0.1032 -0.3400  0.0228
90503W        W33519  30.092  34.170  17.996  0.0081 -0.0280  0.0557
90504W        W33520   2.871   9.608  26.843 -0.3294  0.2071  0.1750
90505W        W33521  22.306  20.599   1.374  0.2094 -0.3292  0.0865
90506W        W33522  20.798   0.202   8.101 -0.0561  0.0657 -0.2735
90507W        W33523   3.839  15.174   2.792 -0.1947 -0.2069  0.1228
90508W        W33524  16.998  34.198   1.502  0.0359 -0.0946 -0.1610
90509W        W33525  21.290  24.133   2.788  0.2321  0.0129 -0.2381
90510W        W33526  12.456   1.276   2.915  0.0910  0.0526 -0.0316
90511W        W33527  30.892   4.282   6.279 -0.0202  0.0136  0.0964
90512W        W33528  19.303   0.374  24.802 -0.2239  0.1412 -0.1140
90513W        W33529  10.291  22.160  29.177  0.2789  0.1063  0.0480
90514W        W33530  13.087  27.688   2.435 -0.3003  0.0019  0.0632
90515W        W33531   8.483   9.586  25.844 -0.0834 -0.4222  0.0312
90516W        W33532  16.179   9.147  25.704 -0.4230 -0.2629 -0.0644
90517W        W33533  17.767   4.890   2.867  0.1550  0.1435 -0.0813
90518W        W33534  10.665   6.237   0.945 -0.0179 -0.1933 -0.4809
90519W        W33535   2.174   5.912  21.170 -0.0516 -0.1994 -0.0881
90520W        W33536  32.046  21.265  23.084  0.3972 -0.0880 -0.0314
90521W        W33537   8.022   6.657  15.783  0.2109  0.0916  0.4236
90522W        W33538  14.527  13.263   0.123  0.0730  0.0332 -0.2097
90523W        W33539  16.560  20.359  25.233  0.1443 -0.0743 -0.2505
90524W        W33540   8.648  11.768   0.658 -0.0536 -0.0752  0.0106
90525W        W33541  31.080   2.415   3.242 -0.0854  0.1752  0.0733
90526W        W33542  23.289  22.876   2.230 -0.1489  0.1411 -0.2436
90527W        W33543  11.036  18.895   7.677  0.3580 -0.1040 -0.0093
90528W        W33544  17.930  22.465   6.293  0.1774 -0.0158  0.2374
90529W        W33545  21.230  25.618   4.987 -0.1233 -0.0465  0.0393
90530W        W33546  15.480   3.536  16.314 -0.1990 -0.1849  0.0114
90531W        W33547  26.328  30.212   5.145  0.1525 -0.0460  0.0361
90532W        W33548   3.991   3.243   3.831 -0.1575 -0.0040  0.2264
90533W        W33549  17.049  11.944   5.681  0.1387  0.0420  0.0550
90534W        W33550  27.540  23.223   6.831  0.1025 -0.2205 -0.2550
90535W        W33551  15.737  12.026  25.812 -0.0550  0.3075 -0.0333
90536W        W33552   9.727  17.197  19.341  0.1257 -0.1270 -0.2874
90537W        W33553  15.865  34.594   5.138  0.3179 -0.0483  0.0531
90538W        W33554  17.566   0.274   2.544  0.0157 -0.0788  0.1792
90539W        W33555   9.588  32.930   4.889 -0.0323  0.3944 -0.2177
90540W        W33556  24.903  32.570  10.841 -0.3462  0.0403  0.1390
90541W        W33557  30.337   5.796  10.112 -0.1026 -0.2892 -0.0482
90542W        W33558  10.651   4.698   8.232 -0.0609 -0.1996  0.1523
90543W        W33559  24.277  14.657   5.821 -0.0371  0.2862 -0.1321
90544W        W33560  11.717  19.656  28.636 -0.2399 -0.2840  0.0540
90545W        W33561   1.483  14.562  27.281  0.1669  0.3323  0.1492
90546W        W33562   0.460   3.716   8.819 -0.0647  0.2073  0.2561
90547W        W33563  34.721   0.345   6.578 -0.2026  0.0105  0.0536
90548W        W33564   3.108  17.076  25.941 -0.2068 -0.1091  0.1989
90549W        W33565  30.107   6.756  28.210  0.1884 -0.0857 -0.1037
90550W        W33566  29.751  13.620   6.956 -0.1883  0.0105 -0.2059
90551W        W33567  13.745  29.027   8.190  0.1406 -0.4837  0.1849
90552W        W33568  30.842   7.299   3.123 -0.1547  0.2465  0.2487
90553W        W33569  12.748   6.834   3.205 -0.0916  0.2487 -0.0167
90554W        W33570  17.466   8.139  14.363 -0.0083 -0.1980 -0.2163
90555W        W33571  29.530  27.951   9.774 -0.0288  0.3152  0.0142
90556W        W33572   8.705   7.464   3.794  0.2625 -0.1212 -0.0024
90557W        W33573  13.058   8.297   6.112 -0.4144 -0.1950 -0.1008
90558W        W33574  11.079  18.101  29.316 -0.1130 -0.0111  0.1692
90559W        W33575  32.169   3.869  22.393  0.3436  0.0969  0.1913
90560W        W33576  19.171  21.741   1.738  0.0331  0.2855  0.2645
90561W        W33577  20.877   2.176   2.936  0.0006 -0.0207 -0.0312
90562W        W33578   7.361   4.519   4.500  0.1970 -0.0604 -0.0692
90563W        W33579  27.355   5.844  27.967  0.2505  0.2159 -0.0157
90564W        W33580  17.886  31.166   9.525  0.2768  0.1549  0.2810
90565W        W33581   1.462   5.139   8.175 -0.2787 -0.1362 -0.4298
90566W        W33582  18.469  10.460   8.598  0.0582 -0.0902  0.0358
90567W        W33583  18.022  32.878   5.208 -0.0014  0.1446 -0.1725
90568W        W33584  11.029   2.613   0.135  0.1769 -0.3127 -0.0582
90569W        W33585   9.643   5.938   9.045 -0.2017  0.2835  0.2286
90570W        W33586   3.759  30.557  24.041  0.1399 -0.3732 -0.0291
90571W        W33587  24.237  22.291   7.840 -0.0213 -0.0991  0.1149
90572W        W33588   5.160  32.361   7.820  0.2412 -0.3989 -0.2897
90573W        W33589  28.201   9.523   8.582  0.3480  0.0048  0.1285
90574W        W33590  12.295  22.165  23.434 -0.0340 -0.0420  0.0052
90575W        W33591   1.136  15.437   7.852  0.1112  0.0126 -0.0363
90576W        W33592  11.627   6.541   7.877  0.0101  0.1046  0.0870
90577W        W33593  14.425   7.147   7.074 -0.0264  0.4209 -0.0767
90578W        W33594  23.572  24.573  26.576  0.1338 -0.1634 -0.0383
90579W        W33595   8.193  25.832   3.549 -0.3046 -0.1747 -0.1901
90580W        W33596   2.232  11.212   9.509  0.2309  0.1241  0.1372
90581W        W33597  15.096  21.895  23.505 -0.2798 -0.0649 -0.2990
90582W        W33598  23.071  18.147   3.761 -0.2640 -0.0043 -0.0826
90583W        W33599  16.879   7.548   6.738  0.0293 -0.2558  0.0615
90584W        W33600  19.716  22.480   5.280  0.2101  0.4396  0.0099
90585W        W33601  10.651   5.925   6.498  0.0048 -0.0945 -0.2230
90586W        W33602  11.947  12.198   0.315 -0.1214  0.0110 -0.1422
90587W        W33603  21.787  13.263  22.962 -0.0283  0.1898 -0.0640
90588W        W33604   8.756  33.783   6.519  0.0877 -0.0910 -0.1141
90589W        W33605  15.034  12.300  28.601  0.0162  0.1348  0.2004
90590W        W33606  11.395  15.270   1.406 -0.1408 -0.3302 -0.2178
90591W        W33607  34.751   0.923   9.300  0.0861 -0.0857 -0.0100
90592W        W33608  17.492  13.160   2.164 -0.1662 -0.2069  0.2327
90593W        W33609  34.621  27.288   9.663  0.1182 -0.3011 -0.3605
90594W        W33610  19.738  25.520   9.058 -0.2470  0.0715 -0.0532
90595W        W33611   6.140   7.329  16.812  0.3948  0.0546  0.1613
90596W        W33612   1.282  18.307  24.461 -0.3115  0.2234  0.2725
90597W        W33613  11.795   9.317   7.143 -0.1571 -0.0353  0.0811
90598W        W33614  13.757  12.912  22.041 -0.0534  0.2140  0.1067
90599W        W33615  15.762  15.025  23.448  0.0592 -0.1739  0.0927
90600W        W33616  11.816   6.910  28.257 -0.2311  0.2306  0.0371
90601W        W33617  12.664   1.066   9.839  0.3007 -0.1163  0.2400
90602W        W33618   9.799   5.084   8.001  0.0190 -0.0166 -0.4013
90603W        W33619  20.182   4.375   9.639  0.1238 -0.0013  0.0211
90604W        W33620  16.091  10.821  27.983  0.0691  0.1433  0.0367
90605W        W33621  14.790  19.677   3.214  0.1666 -0.1229 -0.3378
90606W        W33622  11.941   9.874   5.626  0.0425  0.2924  0.0480
90607W        W33623  14.768   4.849   1.966 -0.0726 -0.1280 -0.1574
90608W        W33624   2.865   6.205   0.117  0.0701  0.1100 -0.1858
90609W        W33625   8.086  14.682   5.822 -0.0197  0.1557 -0.0005
90610W        W33626  14.374   3.509   7.106  0.3967  0.2188  0.1635
90611W        W33627  10.660  23.714   8.663 -0.3429  0.3133  0.0391
90612W        W33628   7.370  12.598  29.071  0.1048  0.2145  0.0801
90613W        W33629  14.054  14.515   1.484  0.2164 -0.3258 -0.4192
90614W        W33630   7.289   8.119  10.229 -0.1722 -0.0972 -0.0949
90615W        W33631  16.460  16.759   1.040  0.0127 -0.2579  0.0630
90616W        W33632   8.103  10.525   6.905 -0.2541 -0.0289  0.0045
90617W        W33633  22.168   0.464   1.089  0.1742 -0.0426 -0.2162
90618W        W33634   1.707  20.027   8.943 -0.0219 -0.1207 -0.0054
90619W        W33635  13.822   5.849   3.102 -0.1741  0.1662 -0.1817
90620W        W33636  16.989  31.383   7.365  0.4280 -0.1872 -0.0356
90621W        W33637  27.033   9.746   9.209  0.1131  0.2603 -0.1421
90622W        W33638   2.780   7.530   6.796  0.1412 -0.1137 -0.0928
90623W        W33639   5.270  19.611  17.844  0.3437  0.0668  0.2218
90624W        W33640  30.862   6.351  28.361  0.1345 -0.3919  0.2628
90625W        W33641   9.142  18.691   1.835 -0.0362  0.0902  0.3234
90626W        W33642  13.991  14.411  25.415 -0.3417  0.2630 -0.2721
90627W        W33643  28.642   7.857  29.011 -0.0918 -0.1522  0.2159
90628W        W33644  20.033  16.258   8.244  0.0726  0.2695 -0.0972
90629W        W33645  16.420  28.528  20.461 -0.2993  0.3730  0.1034
90630W        W33646  18.220   2.605   5.045  0.0509  0.4176 -0.0768
90631W        W33647   6.872  20.844   8.444  0.2365  0.3702 -0.1477
90632W        W33648  10.230   4.956  17.018  0.1121  0.0781  0.0327
90633W        W33649  13.337  33.487   5.633 -0.2221 -0.1731 -0.1154
90634W        W33650  29.799  24.492   0.546  0.2876  0.2363 -0.2837
90635W        W33651  10.631  25.904   6.626  0.0184  0.0516 -0.1259
90636W        W33652   8.810  13.884  18.447 -0.1199 -0.0194 -0.0166
90637W        W33653   9.761   3.761  24.762 -0.2825  0.1044 -0.0427
90638W        W33654  25.733  16.291   8.135 -0.1321  0.0345 -0.1811
90639W        W33655  18.231  14.453   3.131  0.1799 -0.0125 -0.0858
90640W        W33656  21.723  34.524   6.147  0.3120  0.0118 -0.0577
90641W        W33657  14.922  14.484   7.156 -0.0690  0.1018 -0.1242
90642W        W33658  22.249  10.145   4.912 -0.0051  0.3383 -0.2939
90643W        W33659  29.804  13.642  25.389 -0.1002  0.1537 -0.2589
90644W        W33660   8.510  11.053   1.328 -0.2861 -0.1712 -0.0388
90645W        W33661  30.784  12.828  16.349 -0.1457 -0.0728 -0.0737
90646W        W33662  25.885  31.176  24.754  0.1486  0.2246  0.0513
90647W        W33663  18.566  17.361  20.603 -0.0111 -0.0292  0.1776
90648W        W33664  32.939   8.760  17.621 -0.5619  0.1020 -0.0233
90649W        W33665  17.269  12.276  22.294  0.2803  0.1066  0.3023
90650W        W33666   5.924  17.687   3.300  0.3816  0.2509  0.1287
90651W        W33667  31.230  15.433   1.611  0.1690 -0.0339 -0.1359
90652W        W33668   6.123  32.048   4.310 -0.1530  0.2399  0.0505
90653W        W33669  33.932  15.544   9.328  0.3827  0.1700  0.1835
90654W        W33670  11.288   3.514   9.552 -0.0004  0.4486  0.1212
90655W        W33671  10.109  16.429  19.426  0.0284 -0.1362  0.0271
90656W        W33672   9.129  28.032   1.400 -0.0807  0.4124  0.0794
90657W        W33673  27.452  30.429  24.493 -0.3053  0.0735 -0.0699
90658W        W33674  27.629  20.149  10.403  0.0146 -0.1475 -0.0611
90659W        W33675  21.310  34.436   1.673 -0.1387 -0.0856 -0.0460
90660W        W33676   6.941   6.624  18.721 -0.1385  0.0930  0.0557
90661W        W33677   3.227  21.457   8.773  0.1116 -0.0366 -0.1341
90662W        W33678   9.504  11.655   7.201  0.2811 -0.2034  0.0977
90663W        W33679  10.877   9.105   6.121  0.2890  0.0100  0.1762
90664W        W33680  21.954   0.427  21.358  0.1971  0.1571 -0.2061
90665W        W33681  11.234   4.175   6.876 -0.3471 -0.1687 -0.0135
90666W        W33682   5.481  13.835  17.941  0.0018 -0.0182 -0.3436
90667W        W33683  11.645  13.357  25.325  0.1953  0.1621 -0.0523
90668W        W33684  22.402  12.625  22.809 -0.0381 -0.1059  0.2120
90669W        W33685  16.657  15.939  23.198  0.0400 -0.2643 -0.1544
90670W        W33686  17.946   8.554  17.626  0.0955  0.2478 -0.3213
90671W        W33687   6.211   9.520   1.090 -0.0129 -0.2090 -0.1202
90672W        W33688  17.182  12.337   6.967 -0.1920  0.1305  0.2534
90673W        W33689  17.600  17.602   2.942  0.0359  0.3878  0.0223
90674W        W33690   7.384   2.659   2.533 -0.0657  0.0740 -0.1439
90675W        W33691  20.064  14.047  27.772 -0.0689 -0.4096 -0.0281
90676W        W33692  13.462  11.793  27.704  0.4036  0.0084  0.1496
90677W        W33693   4.016  21.064   3.473 -0.0923 -0.0324 -0.1563
90678W        W33694  18.718   9.223  24.884  0.1282 -0.0157 -0.0122
90679W        W33695   6.751  28.541   8.066 -0.0480  0.1165  0.2124
90680W        W33696  14.889  17.348   7.263  0.1128  0.3074  0.3643
90681W        W33697  13.058  22.916   2.759  0.0297  0.4174  0.0376
90682W        W33698  15.091  13.878  15.945  0.1877  0.1831 -0.1543
90683W        W33699  19.311  26.957   5.707 -0.1069  0.1638  0.0121
90684W        W33700   9.610   9.761   9.448  0.1051  0.1541  0.0882
90685W        W33701  19.612  13.381   7.919  0.2470  0.0035  0.0082
90686W        W33702  17.079   6.324   9.690 -0.3166 -0.3867  0.2108
90687W        W33703  14.778   6.608   5.443  0.0571  0.0632 -0.0874
90688W        W33704   7.739  10.070   6.334  0.1170  0.1011 -0.0740
90689W        W33705  33.601  16.141  25.983 -0.3193 -0.2619  0.0537
90690W        W33706  14.164  16.725   4.802 -0.2690  0.1809  0.0112
90691W        W33707  26.485   7.505  10.537  0.0553  0.1174  0.1379
90692W        W33708  21.447  17.626   0.097  0.2744  0.0203  0.0780
90693W        W33709   6.010   7.475   5.130  0.0929 -0.1150 -0.0353
90694W        W33710  32.243  23.940   2.129  0.0399 -0.0772 -0.1303
90695W        W33711  12.800  23.187  16.681 -0.3818  0.1134  0.0411
90696W        W33712  12.710   5.664   2.114 -0.1809  0.0669 -0.0874
90697W        W33713  14.480  13.443  13.503 -0.3455 -0.0658  0.0301
90698W        W33714   9.143  19.624  18.681  0.0497 -0.0031  0.1579
90699W        W33715  11.968  10.580  15.264  0.0363 -0.3546 -0.1350
90700W        W33716   6.451  17.413   2.487 -0.0222 -0.1110  0.0772
90701W        W33717  15.539   2.759  28.066  0.0478 -0.1588 -0.0989
90702W        W33718   1.223  13.131  27.105 -0.2829  0.0161  0.0183
90703W        W33719  20.018  12.936  20.437  0.2978 -0.0555  0.0463
90704W        W33720   1.689  26.304   8.944 -0.0928 -0.1695 -0.2029
90705W        W33721  19.736  34.640   7.137  0.1730 -0.0834  0.0172
90706W        W33722  13.102  16.273   2.993  0.0262  0.2098 -0.1517
90707W        W33723   2.528  12.764  10.678 -0.3679  0.1069 -0.0987
90708W        W33724  22.938   0.764   5.288  0.0726  0.2674 -0.2138
90709W        W33725  25.869  25.716  22.126  0.1359  0.2152  0.2006
90710W        W33726   4.139  23.693  27.583 -0.0045  0.1335  0.0557
90711W        W33727  12.441  15.873   2.590  0.1884 -0.1335 -0.2715
90712W        W33728   1.069   3.183   0.568 -0.2150 -0.1926  0.1593
90713W        W33729  13.010  11.815   7.880  0.0423  0.1016 -0.2933
90714W        W33730  33.698  34.360  21.979 -0.0077 -0.0676 -0.3693
90715W        W33731  15.837  16.817   8.099 -0.0965 -0.1031  0.0584
90716W        W33732   3.468   4.926   7.854  0.1172 -0.1297 -0.1163
90717W        W33733  21.834  16.661   9.705 -0.0802 -0.1000  0.1427
90718W        W33734  24.533  21.913   9.513  0.0619  0.3049  0.0674
90719W        W33735  14.011   7.824   0.375 -0.2698  0.2708  0.0747
90720W        W33736  33.104  28.891   7.383  0.0144 -0.1907  0.2177
90721W        W33737  31.000  20.422   0.701  0.1488 -0.0109 -0.1637
90722W        W33738  29.038  15.983   3.708  0.1458 -0.1635 -0.1984
90723W        W33739  20.484   2.528  18.668  0.1099 -0.0069  0.2225
90724W        W33740  14.777  19.226  26.452 -0.3570 -0.3144 -0.1584
90725W        W33741  14.992  18.205   5.202 -0.0528  0.0141 -0.1983
90726W        W33742  24.610   2.607   1.893 -0.0297  0.2461  0.2585
90727W        W33743  23.591  33.480   0.534  0.0339  0.0050 -0.2345
90728W        W33744   6.730  13.667  13.886  0.1802 -0.0878  0.0240
90729W        W33745  13.296  10.873  26.516  0.1950  0.2712  0.0033
90730W        W33746   4.454   4.023  22.205  0.4545 -0.0129 -0.0610
90731W        W33747   0.752  31.006   4.119 -0.2617  0.2522  0.0861
90732W        W33748   4.982  16.218   6.452 -0.0482  0.0936  0.1780
90733W        W33749   7.248  34.633  20.263  0.1770 -0.0364 -0.1052
90734W        W33750   8.740   9.238  27.940 -0.1366 -0.2585 -0.0123
90735W        W33751  21.845  15.347  23.715 -0.5976 -0.0430  0.1939
90736W        W33752   5.775   8.977  27.112  0.1518  0.1026 -0.3428
90737W        W33753  30.162  21.029  26.468  0.1508 -0.2548  0.0913
90738W        W33754  13.341   5.049   2.966  0.1419  0.0525  0.0609
90739W        W33755  13.487  24.598   7.295 -0.0048 -0.1114 -0.0026
90740W        W33756  18.986  20.089  27.513  0.5380 -0.1487  0.1589
90741W        W33757  11.081  30.739   7.224  0.1977  0.1170  0.3633
90742W        W33758  16.320  13.978   8.623 -0.0578 -0.2023 -0.2058
90743W        W33759  11.933  20.790  20.726 -0.0445  0.0303  0.1930
90744W        W33760   9.082  10.544   9.553  0.3278  0.0785 -0.0332
90745W        W33761   6.229  22.570  24.168  0.2553  0.0316  0.1867
90746W        W33762  13.525  21.632   0.216  0.4045  0.0372 -0.1196
90747W        W33763   9.045  16.118  17.819  0.1504 -0.2514  0.1625
90748W        W33764   5.932  10.443  19.358 -0.3518  0.0109 -0.0865
90749W        W33765   7.820   7.626   5.741  0.0975 -0.1596 -0.1181
90750W        W33766  31.961  22.483   0.156  0.2883  0.2822 -0.1647
90751W        W33767  32.498  17.785  19.137 -0.0306  0.1181  0.1633
90752W        W33768   2.908  27.650  28.273 -0.0853 -0.2146 -0.3762
90753W        W33769   7.410   8.654   4.199 -0.1118  0.1309  0.1614
90754W        W33770   6.673   8.656   5.991  0.2245  0.0661  0.0374
90755W        W33771   9.224  21.488  17.529  0.2738 -0.1393  0.1861
90756W        W33772   4.126   1.885  28.207  0.0358  0.0044  0.0598
90757W        W33773  15.477   7.846   8.897 -0.3251 -0.2559 -0.2000
90758W        W33774   7.762  26.189  26.349 -0.0347 -0.3640  0.2502
90759W        W33775  12.094  20.426  24.854  0.1881 -0.2589 -0.1339
90760W        W33776  15.657   6.124   8.412 -0.4577 -0.1550  0.0589
90761W        W33777  16.865  17.081   2.930 -0.0260  0.1305 -0.2901
90762W        W33778  20.290  15.933  23.663 -0.0233  0.1389 -0.0993
90763W        W33779  18.184  14.021   4.816 -0.1839 -0.1693  0.0444
90764W        W33780   2.616  23.724  25.200 -0.1428 -0.0427 -0.1853
90765W        W33781  19.169  15.947  26.319  0.2092  0.0885 -0.0345
90766W        W33782  28.330   4.554   8.073  0.0697 -0.4556  0.4145
90767W        W33783  26.704  22.587   4.364  0.2353 -0.0301 -0.0961
90768W        W33784  21.381   9.273  24.164 -0.3416 -0.0876  0.1508
90769W        W33785  26.718  22.965  18.909  0.0533  0.0948 -0.1228
90770W        W33786  17.463  34.307   9.877 -0.1372  0.2236  0.0761
90771W        W33787   4.350  19.844  27.779 -0.1020  0.5881 -0.1068
90772W        W33788  28.437  16.187  22.141  0.0865  0.2908  0.0061
90773W        W33789   7.574   4.581  28.719 -0.0640  0.1166  0.0062
90774W        W33790  16.283  12.088   6.854  0.0053 -0.1156  0.3821
90775W        W33791  29.064  22.030   1.626  0.0417  0.0093  0.1492
90776W        W33792  11.566  18.296  16.522  0.1648  0.2859 -0.2484
90777W        W33793   7.244   7.821   5.124 -0.0387  0.0291  0.1989
90778W        W33794  12.134  29.004   6.794 -0.0849 -0.1216 -0.0113
90779W        W33795  13.675  12.187   8.170  0.1194 -0.0118  0.0473
90780W        W33796  18.898   6.118   4.860  0.0768 -0.0809 -0.1490
90781W        W33797  12.515   5.534   2.648  0.1876 -0.0939  0.0667
90782W        W33798   6.235  20.673  21.454  0.0498 -0.1470 -0.2062
90783W        W33799  10.003   6.842  21.717 -0.3852  0.2602  0.1957
90784W        W33800   6.668   8.837   5.320 -0.2732  0.1097 -0.0334
90785W        W33801  19.721   9.999   6.647  0.1745  0.3099  0.3886
90786W        W33802   9.879  23.948   2.904 -0.1585 -0.0436  0.0362
90787W        W33803  26.735  17.798   6.555 -0.0775  0.0286 -0.0332
90788W        W33804   2.519  13.452   5.230  0.1564 -0.0456 -0.1632
90789W        W33805  31.929   8.383   1.464 -0.1458  0.2001  0.3385
90790W        W33806  15.217  28.240  25.669  0.0841 -0.0187 -0.3754
90791W        W33807  11.421  33.189   6.594 -0.1313  0.0060  0.3373
90792W        W33808   4.175  10.561  14.634  0.1002  0.0536  0.1145
90793W        W33809  12.557  11.479  17.629  0.0590  0.0355 -0.1510
90794W        W33810  10.893  21.650  23.448 -0.1137  0.2590  0.3539
90795W        W33811   0.627  16.025  10.466 -0.1319 -0.3673 -0.0879
90796W        W33812  11.929  12.840   4.327 -0.1216  0.3240 -0.0589
90797W        W33813  21.089  15.754   4.696 -0.1721 -0.2853 -0.1377
90798W        W33814   7.830  14.039  21.820 -0.0426  0.1505  0.0942
90799W        W33815  12.379  13.495  17.682 -0.3979 -0.0480 -0.2039
90800W        W33816  10.745   8.923   7.938  0.1460 -0.0249  0.0844
90801W        W33817  29.601  21.828   0.243 -0.3002  0.0858 -0.1140
90802W        W33818  16.369   6.815  13.867 -0.1079  0.1815 -0.2700
90803W        W33819   0.112  18.046  28.951 -0.2440 -0.1204  0.1296
90804W        W33820  14.824   3.817   9.486 -0.1102 -0.3805  0.2015
90805W        W33821  12.597  20.746  28.111 -0.2332  0.0461 -0.1080
90806W        W33822   1.642  24.471   3.828  0.0788 -0.1182 -0.1904
90807W        W33823   4.173  15.412   0.113  0.1924 -0.1540  0.0646
90808W        W33824  18.092   9.578  20.311 -0.1860 -0.2219  0.0124
90809W        W33825   5.169   1.165   3.996  0.2777 -0.1828 -0.1208
90810W        W33826  19.570  17.260   7.462  0.1675  0.0121  0.2175
90811W        W33827   3.477  13.857   3.565 -0.2539  0.2831 -0.1734
90812W        W33828   3.507  30.726   1.739 -0.0508 -0.2866  0.0320
90813W        W33829   5.717  22.531  24.421  0.3742 -0.0455 -0.2371
90814W        W33830   0.831  17.745   7.324 -0.0533  0.2689 -0.1642
90815W        W33831  34.200  11.138   9.632 -0.3681  0.0780 -0.0702
90816W        W33832  13.139  29.213   6.830 -0.0672  0.2399 -0.1699
90817W        W33833  13.188  25.826   9.007  0.1769 -0.0265  0.1690
90818W        W33834  11.800  12.065   6.865 -0.3243  0.3848  0.1599
90819W        W33835   4.659  13.428  23.950 -0.1768 -0.0963 -0.0358
90820W        W33836  15.089  12.828  22.926 -0.0270  0.1235  0.3088
90821W        W33837  14.492  20.275   6.334 -0.2255 -0.0203  0.0011
90822W        W33838  21.187  33.567  22.154  0.3029 -0.0971 -0.0165
90823W        W33839   8.612  10.982   9.249 -0.0635  0.0873 -0.1137
90824W        W33840  11.212  25.185  14.807  0.1732  0.1403 -0.1599
90825W        W33841   6.578  33.507  27.461  0.2284  0.0257  0.0099
90826W        W33842  10.734  19.653   4.200 -0.0584 -0.2116  0.2577
90827W        W33843   2.867   8.352  26.763 -0.1681  0.0534 -0.1172
90828W        W33844   9.394  10.792  21.964  0.1499 -0.4029  0.3010
90829W        W33845  14.339  20.173  19.266 -0.1962 -0.1030 -0.0495
90830W        W33846   8.302   7.510   6.258 -0.0755  0.1937 -0.0845
90831W        W33847  14.598  34.640   7.650 -0.2915 -0.1292 -0.2785
90832W        W33848  16.287  16.439  27.560  0.0662 -0.0407  0.0575
90833W        W33849  11.843  13.560   3.551 -0.3103 -0.0374 -0.0071
90834W        W33850  15.832  32.748  25.988  0.0215  0.1533  0.1595
90835W        W33851   5.920  30.260   6.776 -0.3695  0.4866 -0.0932
90836W        W33852  31.943   7.838   2.110  0.1810  0.2205 -0.0729
90837W        W33853   4.990  21.548  29.253 -0.1130  0.0785 -0.0485
90838W        W33854  26.848  25.513  25.669 -0.2075  0.0305 -0.0848
90839W        W33855  24.506   4.966   4.755  0.2185  0.2215 -0.2409
90840W        W33856  24.814  20.814   8.017 -0.1008  0.3414  0.0292
90841W        W33857  12.205   4.585   4.749 -0.2481  0.3072  0.1754
90842W        W33858  18.307  15.359  19.240 -0.0413  0.1768  0.1479
90843W        W33859  10.146   4.155  15.512 -0.3787 -0.5045 -0.0567
90844W        W33860   6.467  25.051   4.797  0.3517  0.2301 -0.3239
90845W        W33861   1.715  11.716   6.982 -0.3147  0.0072  0.0013
90846W        W33862  20.320  13.623   5.423  0.1181  0.0160 -0.0224
90847W        W33863  33.280   9.472   7.646  0.1858 -0.0786  0.0577
90848W        W33864  24.153  22.325   9.555 -0.2061  0.1265  0.4302
90849W        W33865   6.489  33.681  21.244  0.0312 -0.2700 -0.0350
90850W        W33866   9.879  21.476   4.843  0.0459  0.2439  0.2240
90851W        W33867   1.466  10.813  25.280 -0.0190  0.0433  0.3190
90852W        W33868  11.537  26.390  21.063  0.1753 -0.2745 -0.2843
90853W        W33869   9.034   9.722  22.624 -0.1960  0.2133  0.0103
90854W        W33870  22.902   0.754  21.177  0.2908  0.2065  0.1042
90855W        W33871  18.739   8.528   3.756  0.0999  0.2002 -0.1428
90856W        W33872  17.863  12.598  23.706  0.1668  0.0864 -0.1918
90857W        W33873   6.440  10.766  16.634  0.0224  0.1231  0.5728
90858W        W33874  16.343  18.431   3.889  0.0289  0.0272  0.5163
90859W        W33875   5.072  16.758   4.529 -0.0989  0.3352 -0.2248
90860W        W33876  12.906  14.277   3.124  0.3357  0.1994 -0.0091
90861W        W33877  15.071   8.019  23.684  0.1377  0.0557 -0.1752
90862W        W33878   3.998   9.262  28.046  0.0319  0.0630 -0.2502
90863W        W33879  24.930   6.855  10.406 -0.0075 -0.0897 -0.0220
90864W        W33880  12.305  28.378   7.320 -0.0874 -0.1752  0.0299
90865W        W33881  14.881  22.818   0.849  0.1142 -0.3326  0.0192
90866W        W33882  16.272  18.413  20.793 -0.2509 -0.2466 -0.2063
90867W        W33883  24.479   9.157  19.338 -0.3074  0.2146 -0.2243
90868W        W33884   2.926   8.517   9.152 -0.3016  0.2866 -0.3095
90869W        W33885   4.577   2.550  27.801 -0.0973  0.3297  0.0110
90870W        W33886  10.283  11.847   2.770 -0.4289 -0.0572  0.0655
90871W        W33887   0.747  24.820   2.627  0.2660  0.0174  0.0719
90872W        W33888  10.231  10.984  20.926  0.3283 -0.0800  0.0106
90873W        W33889  19.438  18.333  25.967 -0.0568  0.0026 -0.1055
90874W        W33890   7.678  13.526   1.239  0.0377 -0.0491 -0.1749
90875W        W33891  12.179  11.895  27.748 -0.0919 -0.2395  0.3088
90876W        W33892  10.756  13.558   4.492  0.0381 -0.0864  0.3092
90877W        W33893  13.186  15.512  23.217 -0.3430  0.1351 -0.1561
90878W        W33894  20.741  11.319  23.583 -0.2334  0.1510 -0.1881
90879W        W33895  32.231  15.978   6.169 -0.3800  0.0914 -0.0004
90880W        W33896  12.946   7.462  27.538 -0.1915  0.0520  0.0545
90881W        W33897  24.708  15.842  26.276 -0.3035  0.4408  0.1773
90882W        W33898  30.967  29.792  28.845  0.1255  0.0337  0.3999
90883W        W33899   7.575  24.711   8.350 -0.2036  0.3292  0.2449
90884W        W33900  21.842  32.437   5.833 -0.0739 -0.0876 -0.0852
90885W        W33901   4.570  30.178   7.064  0.1449 -0.1527  0.4104
90886W        W33902   4.813  29.886   8.772  0.0333 -0.0603  0.1908
90887W        W33903  28.948  12.371   1.603  0.1291 -0.1226  0.1585
90888W        W33904   8.651  18.810   4.757 -0.0804  0.0951 -0.2351
90889W        W33905   7.826  17.850  23.112 -0.3927  0.1131  0.1334
90890W        W33906  13.800  13.299  18.983 -0.0401  0.1600  0.0511
90891W        W33907   2.991  17.097   7.355  0.0588 -0.0501  0.1055
90892W        W33908   0.482  21.525  15.822  0.1483  0.2714  0.0246
90893W        W33909   5.369  21.363   8.757  0.0659 -0.0477  0.2299
90894W        W33910   5.544  24.623  18.625  0.0217 -0.1267 -0.0063
90895W        W33911  14.535  27.398   7.430  0.1137  0.3078  0.3523
90896W        W33912   4.727  17.251  28.239  0.4579 -0.2384  0.0200
90897W        W33913  12.308  25.149   5.941 -0.0174  0.3071  0.1856
90898W        W33914  27.991   2.157  25.367 -0.1972  0.2360  0.0022
90899W        W33915  11.930   7.686   0.981 -0.2285 -0.5694 -0.0651
90900W        W33916  27.692  10.761  26.373 -0.0471  0.0369 -0.3173
90901W        W33917   2.689  19.092  23.331  0.0551  0.3058  0.1385
90902W        W33918   5.036   4.761   5.208  0.1405  0.0294  0.0999
90903W        W33919   9.203   2.963   4.362  0.2061 -0.0033  0.0172
90904W        W33920  24.998   6.509   9.237  0.3387  0.0091 -0.0219
90905W        W33921  14.879  15.957   6.664  0.3478  0.1887 -0.0043
90906W        W33922  27.560  22.012  10.480 -0.3772 -0.3662 -0.1878
90907W        W33923   9.208   5.127   1.316  0.1200 -0.1763 -0.1749
90908W        W33924  13.627  18.062  14.258  0.3086 -0.0863 -0.1732
90909W        W33925  19.028   8.626  17.540 -0.1999 -0.0120 -0.0535
90910W        W33926  17.400  15.315  14.283  0.1176 -0.0517  0.3690
90911W        W33927  19.426  17.358  23.278 -0.1278  0.1142 -0.0638
90912W        W33928   7.959  26.384  25.960  0.2969  0.4546  0.2214
90913W        W33929   6.374  21.708   4.328  0.0152  0.2173 -0.2612
90914W        W33930  10.953  18.981   7.195  0.2371  0.2915 -0.1901
90915W        W33931  17.283  17.177   0.452  0.1199  0.1175  0.1191
90916W        W33932  25.506  17.354   3.214 -0.1006  0.2166 -0.2600
90917W        W33933  17.911  28.325  21.889  0.0551 -0.0048  0.3743
90918W        W33934  15.173  22.079   7.466  0.1783  0.0114 -0.2382
90919W        W33935  13.780  13.647   5.842  0.1593  0.2264  0.0016
90920W        W33936  28.288  11.313  21.946 -0.0383  0.2126  0.0880
90921W        W33937   8.073  32.729  22.146 -0.0381  0.1291  0.2179
90922W        W33938  27.871   0.488   4.470 -0.0990 -0.0171  0.0945
90923W        W33939  18.090   4.945   9.906  0.3680 -0.0402 -0.1102
90924W        W33940  11.768  15.529  28.273 -0.0374 -0.0466 -0.1381
90925W        W33941   4.944  11.103  20.324 -0.2346 -0.2654  0.2211
90926W        W33942  21.611  13.474  19.625  0.0992  0.1667  0.0475
90927W        W33943  20.463  15.889  24.865  0.0114  0.1617 -0.1163
90928W        W33944  17.021   4.527   4.087 -0.0735 -0.1014  0.0222
90929W        W33945  25.710  11.297  10.846  0.2293  0.0765  0.0951
90930W        W33946  14.776  21.892   8.075  0.0413 -0.1073 -0.1803
90931W        W33947  12.929  16.634   6.311  0.0088 -0.1965 -0.1616
90932W        W33948  25.141   5.001   8.905  0.3032  0.0528 -0.2350
90933W        W33949  10.455   5.921   3.007 -0.3194  0.2694  0.2219
90934W        W33950  19.404  16.258   3.488  0.0059 -0.0484  0.2537
90935W        W33951  16.499  15.518   8.459  0.0334 -0.1638 -0.3037
90936W        W33952  26.322  11.150  23.787 -0.2461 -0.1160  0.3100
90937W        W33953  19.343  21.222   6.180 -0.3036  0.0448 -0.1796
90938W        W33954  10.076  28.023   7.325  0.1696 -0.1076  0.2612
90939W        W33955  10.999  26.544  27.607 -0.4999  0.0963 -0.0340
90940W        W33956  16.739   8.471  28.661 -0.0447 -0.2741 -0.1016
90941W        W33957  15.790  23.906   5.464 -0.0241  0.5260  0.0416
90942W        W33958  17.430  16.108   3.124 -0.0651 -0.0910  0.0703
90943W        W33959   0.204  19.297  24.444 -0.0570  0.1516  0.0307
90944W        W33960  10.359  15.725   5.708  0.1843  0.3405  0.1650
90945W        W33961  18.384   4.822  23.523 -0.0724 -0.1152  0.1959
90946W        W33962  25.056  23.629   2.147 -0.0878 -0.1176  0.1243
90947W        W33963  13.446  15.764   7.466 -0.1731 -0.0322 -0.0018
90948W        W33964  15.591   9.297   7.508  0.0679 -0.3822  0.0117
90949W        W33965   5.134  33.034   9.139 -0.1354 -0.0201  0.3498
90950W        W33966  23.322  29.216  10.174 -0.0125 -0.1915  0.0109
90951W        W33967  21.239  27.224   8.445  0.0642 -0.1537  0.6466
90952W        W33968  11.999   9.072  20.974  0.0010  0.2902  0.3670
90953W        W33969   9.069  14.909   3.349 -0.1344 -0.1729  0.1343
90954W        W33970   3.189  21.493  24.528 -0.0355 -0.1765 -0.3808
90955W        W33971  28.164  31.440   2.764  0.3571  0.2826  0.1517
90956W        W33972  13.710  20.900  22.965  0.0210  0.2147  0.3543
90957W        W33973  27.028   4.863   8.216  0.0163  0.0460  0.0771
90958W        W33974  25.760   0.182  11.333  0.1265 -0.2323  0.0451
90959W        W33975  17.512  28.521  28.421  0.1158  0.3705 -0.1533
90960W        W33976  16.380  15.215   6.471 -0.3952 -0.1953  0.0179
90961W        W33977  25.044   7.918  19.709 -0.2361  0.2901 -0.0282
90962W        W33978   7.994   8.218   0.703  0.0952  0.0792  0.0264
90963W        W33979   7.635   9.877   9.859  0.1174 -0.0720  0.0637
90964W        W33980  16.220  22.393  19.164  0.0921  0.0183  0.1446
90965W        W33981  11.188  12.294  27.539  0.0429 -0.1313  0.2990
90966W        W33982  21.596  10.141   4.077 -0.0519 -0.0346  0.0868
90967W        W33983  21.119  15.694  23.499  0.1488 -0.0193  0.1942
90968W        W33984  16.397   8.833   8.532  0.1101  0.4291  0.0724
90969W        W33985  14.347   3.030  19.212 -0.1357 -0.0362 -0.0103
90970W        W33986  23.254   4.157   7.185 -0.1160 -0.6163 -0.0648
90971W        W33987  13.879  19.359   5.792 -0.1017  0.0943  0.3564
90972W        W33988   3.372  30.995  28.902  0.0867  0.0697 -0.4380
90973W        W33989   5.960  20.111   5.022 -0.1087  0.0686 -0.1846
90974W        W33990   4.821  11.998  28.246  0.1978  0.3896  0.1258
90975W        W33991  17.478  24.985   6.927  0.1216 -0.0373  0.1242
90976W        W33992  23.747   1.102  16.928  0.0368  0.0372  0.3028
90977W        W33993   6.406   0.230  20.036  0.1678 -0.0711  0.2151
90978W        W33994   0.872   7.547  28.435  0.3321  0.1236 -0.0245
90979W        W33995  20.825  14.277   9.066  0.2718  0.1490  0.2212
90980W        W33996  32.039  12.596   0.404 -0.2633 -0.0649  0.3124
90981W        W33997  21.622  12.758  23.202 -0.1830  0.0541 -0.0435
90982W        W33998  14.571   4.486   2.299 -0.4173  0.0405 -0.3886
90983W        W33999  19.767  29.275  25.250  0.2824  0.0259 -0.2597
90984W        W34000  16.099   7.659   7.824 -0.0370 -0.3465  0.1567
90985W        W34001   8.013  14.640  25.225 -0.1324  0.2993 -0.0431
90986W        W34002  26.035  20.038  27.214 -0.3953 -0.1453  0.4727
90987W        W34003   9.603  29.403   1.772 -0.1144 -0.3848  0.1529
90988W        W34004  27.960  21.434   3.685  0.0613  0.1006 -0.0062
90989W        W34005  33.193  25.258   4.103 -0.1037  0.2592 -0.1157
90990W        W34006  19.190  14.482  22.197 -0.0258 -0.1333  0.3427
90991W        W34007   5.872  28.807   5.280  0.0201  0.1119 -0.0618
90992W        W34008  10.320  19.706   0.203 -0.0900 -0.2005  0.0440
90993W        W34009  33.145   6.203   0.240  0.2639  0.0667  0.3252
90994W        W34010  18.313  17.243   2.602  0.1985  0.2806  0.0092
90995W        W34011   2.383   6.844  26.969 -0.0821  0.0105  0.2763
90996W        W34012  13.466  15.338   8.565 -0.1642  0.1967  0.1010
90997W        W34013   9.088  25.405   1.746 -0.1205 -0.1662  0.5178
90998W        W34014  16.644  15.172  20.908  0.0517 -0.3836  0.0489
90999W        W34015  21.247  12.233  28.768 -0.1791  0.1284  0.3295
91000W        W34016   8.944  23.580  26.100  0.3028 -0.3105  0.1515
91001W        W34017  21.725   3.762   8.803  0.0385 -0.2014 -0.0451
91002W        W34018  17.609   2.858   7.074  0.1651 -0.0806  0.2847
91003W        W34019  20.307  12.090  24.590  0.0415  0.0233  0.0863
91004W        W34020   9.470  28.267   6.668 -0.1087 -0.2403 -0.0867
91005W        W34021  31.136   8.748  10.166  0.4061  0.2506 -0.4101
91006W        W34022  10.793  13.777   5.746 -0.2082  0.1279  0.1806
91007W        W34023  33.404  12.237   9.442 -0.3363  0.2698 -0.0634
91008W        W34024  13.240  17.023   4.148 -0.3056  0.0467  0.1204
91009W        W34025  16.347  21.192  23.006 -0.0951 -0.1049 -0.3230
91010W        W34026  29.517  16.587  26.476 -0.0755  0.1163 -0.0085
91011W        W34027  28.666  14.419   1.177 -0.1707  0.2385 -0.0726
91012W        W34028  33.646  15.059   5.355 -0.1060 -0.0163  0.0480
91013W        W34029   3.760  28.266   1.505  0.1721  0.2387 -0.1688
91014W        W34030  15.384   3.170   3.506 -0.0250  0.1093  0.0236
91015W        W34031   6.612  29.433  28.266 -0.0727 -0.0017 -0.0403
91016W        W34032  23.583  15.993   3.572 -0.0843  0.1547  0.2560
91017W        W34033   0.617  15.219   4.530 -0.1427 -0.2407  0.0249
91018W        W34034  33.236   3.233   4.501  0.0622 -0.0197 -0.2123
91019W        W34035  18.450  20.383   1.106  0.0460 -0.0264 -0.3342
91020W        W34036   0.538  14.230  10.279  0.0892 -0.3006  0.2960
91021W        W34037   5.607  29.467  23.069 -0.2691 -0.3549  0.0133
91022W        W34038  16.392   4.123   0.032 -0.0867 -0.0176  0.1937
91023W        W34039  13.817   1.615   7.871  0.2025 -0.1184 -0.0294
91024W        W34040  17.492   5.895   0.592 -0.0570  0.1106  0.0134
91025W        W34041  21.163   8.737   7.724  0.5215  0.1241 -0.0685
91026W        W34042  14.502   1.401   9.088  0.2043 -0.3234 -0.0150
91027W        W34043  21.428   2.566  10.763 -0.0013 -0.2798 -0.0851
91028W        W34044   4.096  20.165  21.032  0.0724 -0.2829 -0.0395
91029W        W34045  28.024   4.379  26.394  0.3606  0.0427 -0.0750
91030W        W34046  29.298  17.020   8.269 -0.1108  0.4522 -0.4422
91031W        W34047  14.259  33.449  18.563 -0.0096 -0.1259  0.2363
91032W        W34048  26.509   6.393   7.969  0.3492  0.2144  0.0879
91033W        W34049  31.342  11.535   0.991 -0.4286 -0.0716 -0.1253
91034W        W34050   9.941  27.175   9.197  0.0530  0.0959 -0.2078
91035W        W34051  32.140  21.919  16.706 -0.0904 -0.5796 -0.1739
91036W        W34052  19.544   4.920   0.813  0.0610  0.0568  0.0481
91037W        W34053  30.053  13.235   0.832  0.2137  0.0623  0.0306
91038W        W34054  13.441   7.586  27.942  0.0149  0.1453  0.0096
91039W        W34055  19.159  20.131   8.089 -0.2549 -0.0990 -0.0856
91040W        W34056   7.916  33.064  28.165 -0.1516  0.0415 -0.2346
91041W        W34057  16.316   4.457   8.309 -0.0801  0.5425 -0.0413
91042W        W34058   7.490  31.320   6.714  0.1062  0.4501  0.1367
91043W        W34059  11.790   7.270  18.038  0.1339  0.2915 -0.3170
91044W        W34060  30.054   5.580   6.354  0.0448 -0.1637 -0.2684
91045W        W34061  15.394  21.963   6.995 -0.0044  0.0167 -0.0910
91046W        W34062  34.212  27.022   9.982  0.0663 -0.0471 -0.0311
91047W        W34063  34.240  26.513   4.971 -0.1603  0.1700 -0.0354
91048W        W34064  33.864  20.843   8.998 -0.2555 -0.0456  0.2571
91049W        W34065  16.484  24.586   7.682  0.1127  0.2158 -0.2198
91050W        W34066   9.116   0.760  24.924  0.0826  0.0520  0.0332
91051W        W34067   6.545  26.586  18.860  0.0563 -0.0212  0.1763
91052W        W34068  12.525  25.282  22.219 -0.0000 -0.3744 -0.1428
91053W        W34069   9.348  10.107  23.158 -0.0172  0.0342 -0.0766
91054W        W34070  16.467  18.711  20.290 -0.2679 -0.2382 -0.2054
91055W        W34071  13.589  14.526   3.650  0.2959 -0.0409  0.2449
91056W        W34072  25.783  34.636   9.616 -0.0854 -0.0530 -0.0693
91057W        W34073  22.329  22.758   1.920  0.0373 -0.4413 -0.1679
91058W        W34074  14.002   8.660   5.937  0.1277 -0.1528  0.2046
91059W        W34075  33.196   2.291  28.853  0.0906 -0.4303  0.0147
91060W        W34076  30.471  19.087   5.795 -0.1206  0.0759  0.4450
91061W        W34077  10.359   2.233   7.680  0.0618 -0.2419 -0.1637
91062W        W34078  15.307   6.481   1.780  0.1845 -0.1559 -0.4730
91063W        W34079  22.581   4.576  27.295  0.0042  0.1524 -0.0894
91064W        W34080  15.441   2.019   4.109  0.2641 -0.1806 -0.1934
91065W        W34081  15.003  34.700  23.626  0.2549 -0.0807 -0.2539
91066W        W34082  13.856   7.940   7.613 -0.3925  0.1234  0.3929
91067W        W34083  19.830  30.263   1.349 -0.1439 -0.1323 -0.2575
91068W        W34084  11.504  32.323   2.991 -0.1610 -0.0922  0.0829
91069W        W34085  18.352  13.775  26.536 -0.1341  0.2158 -0.2065
91070W        W34086   4.400  28.598   2.306  0.3016 -0.0053  0.0495
91071W        W34087   8.887  15.574   2.677 -0.1673 -0.2379  0.0158
91072W        W34088  15.926   5.852   9.645  0.1527 -0.1985 -0.1467
91073W        W34089  24.450  16.464  19.485  0.0718  0.0856  0.1516
91074W        W34090  19.199   9.353   8.989  0.3411 -0.0810  0.1788
91075W        W34091  21.510  20.245   4.493  0.0729 -0.1788  0.1298
91076W        W34092   6.247  31.159   9.505  0.2373 -0.0142 -0.4235
91077W        W34093  19.279  15.410  22.873  0.0825 -0.2109  0.0665
91078W        W34094   3.102  27.328  26.073 -0.1948  0.2403 -0.2457
91079W        W34095  34.677  15.471  26.659  0.0986 -0.2612  0.0385
91080W        W34096   1.173   1.243   5.798  0.2315 -0.1599 -0.0370
91081W        W34097  14.734   7.614   2.922  0.3331 -0.0305 -0.0312
91082W        W34098   6.619   8.984   7.399 -0.1343  0.0660 -0.3077
91083W        W34099  20.513  21.645   4.609  0.0092 -0.0634 -0.1218
91084W        W34100   8.331   8.848   4.577 -0.0404 -0.3149 -0.1028
91085W        W34101  28.428  32.563  10.375 -0.1999 -0.0181  0.0119
91086W        W34102   4.046  34.562  25.873 -0.1044 -0.0067 -0.2108
91087W        W34103  19.716   3.062   7.699  0.2060 -0.0186  0.1362
91088W        W34104  18.764  34.592   4.516 -0.1180  0.1755 -0.0333
91089W        W34105   7.649  13.965   2.216 -0.1162  0.2586 -0.0888
91090W        W34106   6.189   3.866   5.018 -0.0262  0.0496  0.0858
91091W        W34107   0.992  19.059  28.520 -0.2106 -0.1072 -0.0394
91092W        W34108  23.779  17.234   7.812 -0.0289 -0.0049  0.1321
91093W        W34109  32.824  13.481   9.388 -0.0281 -0.1416  0.4340
91094W        W34110   8.405  20.579   7.190 -0.1734  0.0873 -0.0969
91095W        W34111  28.991   5.296  26.508  0.0235  0.0152  0.0507
91096W        W34112  15.085  16.121   7.600  0.1076 -0.3919  0.0750
91097W        W34113   2.921  24.005   9.426  0.1659  0.1363  0.0185
91098W        W34114   3.438   7.030  10.624  0.0287  0.2197 -0.0283
91099W        W34115   9.629  31.992   6.879 -0.1112 -0.0808 -0.2639
91100W        W34116  34.202  12.172   6.133 -0.2239 -0.1164  0.2393
91101W        W34117  24.511   6.397   6.279  0.3292  0.0167  0.0776
91102W        W34118  19.807   0.959   7.407  0.0244 -0.0901 -0.3232
91103W        W34119  19.178   2.765   8.654 -0.0694  0.0129  0.0129
91104W        W34120   1.691   7.863  24.457  0.1736  0.1524  0.0042
91105W        W34121   8.050   5.143   6.506  0.0746 -0.4777 -0.1783
91106W        W34122  30.478  11.306   6.397 -0.0665  0.2735  0.0272
91107W        W34123  10.403  31.947   4.560  0.2564  0.0251 -0.2415
91108W        W34124  25.323  21.101   6.256 -0.1131  0.2301 -0.0509
91109W        W34125  15.002   3.759  26.565  0.3375  0.0625  0.1741
91110W        W34126   2.292  22.451   9.053 -0.0197  0.2981  0.2415
91111W        W34127  18.197  25.769   4.878  0.3139  0.2034 -0.1777
91112W        W34128   7.856  34.018   9.302 -0.0524 -0.0534  0.1430
91113W        W34129  25.979   1.586   9.992 -0.0189 -0.0679  0.1840
91114W        W34130   6.499  12.425   1.901  0.1660 -0.0472 -0.0302
91115W        W34131  23.527   7.056  26.626 -0.1261  0.0710 -0.0380
91116W        W34132   1.757  19.528   8.839  0.1651 -0.0131  0.3304
91117W        W34133  18.581   7.795   9.507 -0.1209 -0.0878  0.0067
91118W        W34134  19.172  15.826   3.337  0.0278  0.2635 -0.2401
91119W        W34135  16.830  16.129   8.243 -0.1613 -0.0940  0.2008
91120W        W34136  25.439  23.183   3.349  0.0657  0.0092 -0.0170
91121W        W34137  27.297  15.728   5.138 -0.1019  0.1870  0.1597
91122W        W34138  17.934   7.495  23.127 -0.0151  0.2400  0.0102
91123W        W34139  30.099  27.263  25.314 -0.2664 -0.1366  0.0146
91124W        W34140   1.164  12.364   6.722  0.1369  0.1803  0.0607
91125W        W34141   4.863  34.643  16.308 -0.2230 -0.2127  0.4223
91126W        W34142   5.219   6.724   7.436 -0.0012  0.3966 -0.1409
91127W        W34143  17.585   2.146   8.556 -0.1639 -0.0020 -0.1232
91128W        W34144  29.289  17.677   5.939 -0.4109  0.0282 -0.2524
91129W        W34145  18.812  21.277   3.066  0.0655 -0.2938 -0.2303
91130W        W34146  28.839   4.023   4.365  0.1025  0.2485  0.2401
91131W        W34147   5.231  22.333  21.853 -0.0923  0.1490  0.0029
91132W        W34148  32.453  29.367   3.845 -0.2142  0.0778  0.1166
91133W        W34149  19.569   9.789   5.706 -0.0694 -0.1625  0.1246
91134W        W34150  18.303   6.047   9.081 -0.2634 -0.0112 -0.0085
91135W        W34151   9.058   4.558   4.111  0.1030 -0.1286 -0.0002
91136W        W34152   4.946  24.633  24.402  0.0522 -0.1449  0.1134
91137W        W34153   6.378   0.121   4.124  0.0973 -0.2357 -0.1197
91138W        W34154   4.313   8.612  15.835 -0.2255 -0.2765 -0.1896
91139W        W34155  19.901  27.646  27.962 -0.0496  0.2671 -0.0189
91140W        W34156  10.287  10.356   2.880  0.1947 -0.0395  0.3010
91141W        W34157  10.777   4.261   0.061  0.1151 -0.0098 -0.0302
91142W        W34158  34.207   7.569   9.127 -0.0417  0.0534  0.0710
91143W        W34159   7.398  22.493  19.482 -0.2382  0.1415  0.1615
91144W        W34160  11.284  19.622  26.477  0.1806 -0.0587 -0.2676
91145W        W34161  10.946  24.919   2.975  0.1417 -0.0844  0.2926
91146W        W34162  12.393  28.682   5.088 -0.0363 -0.1466 -0.1038
91147W        W34163  18.892  23.583   8.745 -0.1822 -0.3242 -0.0634
91148W        W34164   6.636  28.165   9.199  0.1262 -0.0256  0.2127
91149W        W34165  20.867  20.112  25.964  0.0663  0.1577  0.0105
91150W        W34166  27.091  18.419   4.619 -0.1383  0.0940 -0.0185
91151W        W34167  14.172  13.372   2.082  0.3980  0.0362 -0.0119
91152W        W34168  26.450  12.744   6.103  0.2315  0.2775 -0.0692
91153W        W34169  18.273  12.786   1.328 -0.4039 -0.2708  0.4366
91154W        W34170  13.038  27.812   9.141 -0.2263  0.1155 -0.1201
91155W        W34171   9.395   5.137   8.316  0.2084  0.0376 -0.0433
91156W        W34172   4.019  11.124   4.107  0.0492 -0.1198  0.2732
91157W        W34173  26.695   4.922   1.468  0.0315  0.3029  0.1388
91158W        W34174  17.781  16.254  22.336  0.0681 -0.1657 -0.2498
91159W        W34175  26.850  27.966  18.947 -0.2421 -0.0990 -0.1025
91160W        W34176  15.362  27.981   6.127 -0.0964 -0.1241  0.4312
91161W        W34177  24.990  18.469  13.940 -0.1719 -0.0048  0.0857
91162W        W34178  13.404  11.776  21.170  0.0789 -0.1714 -0.0177
91163W        W34179   6.875  17.691   3.605  0.1712  0.3594 -0.2500
91164W        W34180   7.243   9.571   4.411  0.2302 -0.2629 -0.0070
91165W        W34181   8.000   0.214   6.346  0.0633 -0.1174  0.1649
91166W        W34182   1.576  11.760  29.210  0.3348  0.0534  0.5216
91167W        W34183   5.728  11.450   3.798  0.2297 -0.0337 -0.0346
91168W        W34184   4.339  24.972   3.723  0.2342 -0.0517 -0.1546
91169W        W34185   6.080  18.987   6.829  0.3418 -0.3252 -0.1173
91170W        W34186   9.216  11.783   9.260  0.2313 -0.2617  0.0240
91171W        W34187  15.844  27.137   7.706  0.3858 -0.1220  0.1956
91172W        W34188   6.544   4.138   2.853 -0.0770  0.0787  0.0970
91173W        W34189  16.644   9.961  16.134  0.0929 -0.1278  0.3204
91174W        W34190  28.444   3.004  23.099  0.3684 -0.1778 -0.2122
91175W        W34191   1.472   4.387   3.209 -0.0655  0.2014 -0.0830
91176W        W34192  27.304   5.544   6.985 -0.0958  0.0768 -0.0332
91177W        W34193   1.058  15.568   8.322  0.2278 -0.0632 -0.0782
91178W        W34194  17.570   8.185   6.609  0.2010  0.2761 -0.2348
91179W        W34195  23.084  24.984   4.170 -0.3127  0.6400  0.2693
91180W        W34196   3.784   8.572   7.247  0.2298  0.1708 -0.3495
91181W        W34197   7.866  10.141   5.775 -0.0126  0.2444  0.0049
91182W        W34198  18.746  12.935  28.468  0.0581  0.0921 -0.2812
91183W        W34199  13.984  18.942   4.098 -0.2184 -0.1243  0.1843
91184W        W34200  13.938   0.132   3.321  0.0975  0.0022 -0.1193
91185W        W34201  16.231  34.260  18.350 -0.2997  0.3504  0.2476
91186W        W34202  19.587   1.766  27.747  0.0530 -0.0856 -0.1202
91187W        W34203  14.648   2.023   6.787  0.2413  0.1555  0.1650
91188W        W34204   9.323  13.845   5.264  0.0815 -0.0402 -0.0699
91189W        W34205   2.336  34.483   2.382  0.1732 -0.1741  0.2512
91190W        W34206  22.833  13.148   2.292  0.0088  0.0050  0.1952
91191W        W34207  24.605  13.540  10.038 -0.0202 -0.1070  0.1535
91192W        W34208   5.468   5.271   7.020 -0.2238 -0.0978 -0.0865
91193W        W34209  12.573  12.800   4.373 -0.2788 -0.2840 -0.0670
91194W        W34210  16.751  12.299   4.337  0.1266  0.2377 -0.0838
91195W        W34211  17.410  27.523   6.819 -0.2952  0.0725  0.2185
91196W        W34212  20.921  13.875   4.009  0.0605 -0.1623 -0.0088
91197W        W34213  13.635  20.268   2.589  0.0169  0.1029  0.0230
91198W        W34214  17.909  21.905   8.457 -0.1679  0.1215  0.1332
91199W        W34215  15.346  15.207   4.810 -0.1659  0.3211 -0.1619
91200W        W34216  29.519  31.822   7.454 -0.1515  0.1382 -0.1512
91201W        W34217  16.597  16.075   6.547  0.2151  0.1011 -0.1010
91202W        W34218  14.309  25.305  23.215  0.3692 -0.1755  0.2273
91203W        W34219  12.117  15.489  27.836 -0.1196 -0.0563 -0.1998
91204W        W34220   7.920  10.091  26.528  0.0792  0.0024 -0.0380
91205W        W34221  15.534  26.715   4.445 -0.1435  0.2611  0.1245
91206W        W34222   5.080   7.873   9.891 -0.0851 -0.2341  0.2732
91207W        W34223  10.185  12.094   7.782 -0.2274 -0.4392  0.2302
91208W        W34224  32.364   0.517   5.486  0.0672 -0.3013  0.4997
91209W        W34225  10.845   9.029   7.058 -0.2770  0.2808  0.3800
91210W        W34226  19.217  10.936  28.598  0.1262 -0.1217  0.0338
91211W        W34227   7.161   4.353  24.367 -0.2187 -0.1025 -0.5194
91212W        W34228  21.251  16.707   5.061  0.0905 -0.1479  0.1115
91213W        W34229   7.725  18.659   1.495  0.0799 -0.1369  0.2515
91214W        W34230  26.410  26.969  16.409  0.4408 -0.1382  0.0110
91215W        W34231  17.497  12.466   4.503  0.3625  0.2193  0.0306
91216W        W34232  18.453  18.336  28.861  0.0312 -0.2514 -0.1901
91217W        W34233  26.609   8.071   1.640 -0.0888 -0.0644  0.0686
91218W        W34234   6.912  26.077   6.515 -0.1596 -0.0703 -0.0569
91219W        W34235   4.364   8.449  25.824  0.0336 -0.1569 -0.1801
91220W        W34236  31.142  30.575   8.176  0.0402 -0.1536 -0.1237
91221W        W34237  15.420   9.045  29.166 -0.0014 -0.3807 -0.2306
91222W        W34238  22.755  34.499   7.553 -0.2681  0.2713  0.0989
91223W        W34239  15.058  17.600   5.993  0.1523  0.1624 -0.1733
91224W        W34240   8.206   1.279   7.091 -0.0094 -0.2761  0.3886
91225W        W34241  14.477  26.903  13.243 -0.2230  0.2121 -0.0808
91226W        W34242   4.188  27.018   8.500  0.0216 -0.0492  0.3783
91227W        W34243  14.394   0.331  24.677  0.0930 -0.1600  0.0326
91228W        W34244  28.569  22.738   2.371 -0.0145  0.0294 -0.0342
91229W        W34245  14.927   0.013   9.989 -0.1146 -0.1679  0.1459
91230W        W34246   5.734  12.012  26.354  0.0252  0.0467 -0.1223
91231W        W34247   6.202  15.619   9.436 -0.0400  0.0766  0.0671
91232W        W34248  18.299  16.355   4.526 -0.1458  0.1063 -0.0576
91233W        W34249   5.135   5.820  25.492  0.1825 -0.2144 -0.0142
91234W        W34250  22.028  11.386  28.779  0.3440  0.0300 -0.2485
91235W        W34251  15.657  10.541   8.226  0.2317  0.0070 -0.2207
91236W        W34252  18.867  28.825   7.117 -0.3861  0.1065  0.0164
91237W        W34253   1.208  13.991   2.729  0.0527  0.0409  0.1178
91238W        W34254   8.750  22.473   4.805 -0.0674 -0.0807 -0.2105
91239W        W34255   9.712   6.531   8.812  0.1924  0.0045 -0.2432
91240W        W34256  10.773  14.297  28.502 -0.0596  0.0670  0.0003
91241W        W34257  16.939  10.177   9.264  0.0283  0.0221  0.0215
91242W        W34258   2.200  19.997  28.395 -0.1090 -0.1920  0.2277
91243W        W34259   3.780  16.454  28.639 -0.1244 -0.1177 -0.2803
91244W        W34260  21.769  16.385   5.008 -0.0443  0.1712  0.1719
91245W        W34261   7.498  12.295   7.666  0.2617  0.1380 -0.1034
91246W        W34262  18.109   6.781  17.476  0.4847  0.1970  0.1302
91247W        W34263  20.301  17.053   5.207 -0.1986 -0.1196 -0.1722
91248W        W34264   7.772   5.332   6.011 -0.0133 -0.1664 -0.0724
91249W        W34265  15.750  18.112  24.979  0.1023 -0.0668  0.0143
91250W        W34266  13.572   1.495   9.429 -0.2417  0.2001  0.1102
91251W        W34267  21.874   7.935   3.223  0.1321  0.1325 -0.1662
91252W        W34268  31.021   6.069  22.034  0.1311 -0.2481 -0.2308
91253W        W34269   8.733  10.956   6.825 -0.3334  0.1752 -0.0402
91254W        W34270  18.886  23.325   6.640 -0.0647 -0.1895  0.2128
91255W        W34271   0.682  15.717  26.241 -0.0848 -0.1792  0.0277
91256W        W34272  18.267  15.801  23.162 -0.2253 -0.1776 -0.1024
91257W        W34273  28.688  15.603   9.128 -0.1030  0.4637  0.3143
91258W        W34274  15.705  21.260   5.917  0.1499  0.4722 -0.0643
91259W        W34275  33.449   9.262  23.162 -0.0992  0.2550 -0.0559
91260W        W34276  31.299  20.390   4.587 -0.2888 -0.1526 -0.0186
91261W        W34277  19.672   6.922  14.967  0.1322  0.0598  0.0749
91262W        W34278  10.126   8.837  23.319 -0.1356  0.0740 -0.1785
91263W        W34279  11.109   9.785   3.864 -0.2009  0.1621  0.1698
91264W        W34280  12.806   2.289   8.337 -0.0831  0.0856 -0.2416
91265W        W34281   6.409  13.054  14.386 -0.3274  0.1229 -0.0356
91266W        W34282  15.781   9.447   0.954  0.1333 -0.0841  0.1635
91267W        W34283  22.584  33.623  27.203 -0.2779 -0.0254 -0.1509
91268W        W34284  14.045   7.614   2.379 -0.2162  0.0636 -0.1447
91269W        W34285   9.320  33.910   1.534 -0.1481  0.2250 -0.1791
91270W        W34286  12.820  23.429   2.039  0.3663  0.0302  0.0880
91271W        W34287  22.626   8.183  27.740 -0.0014 -0.0057  0.1134
91272W        W34288  25.747  23.005   9.718 -0.0637  0.1163  0.2251
91273W        W34289  29.861   5.921  25.371 -0.2870  0.2668  0.1055
91274W        W34290   6.511   7.183  28.883 -0.0180 -0.3066 -0.0884
91275W        W34291  31.244   8.375  26.409 -0.2294 -0.1836 -0.2650
91276W        W34292   0.392  27.387  27.233 -0.2341  0.0655 -0.2939
91277W        W34293   1.583  22.278   5.606 -0.0184 -0.0930  0.0290
91278W        W34294  12.823   2.942  26.500 -0.1408 -0.3468 -0.0473
91279W        W34295  19.104  16.852  19.507  0.2397  0.0148 -0.1000
91280W        W34296   3.871  13.457  21.356  0.0752  0.0158  0.1496
91281W        W34297   7.481  21.068  10.074 -0.0443  0.1967 -0.1161
91282W        W34298   6.058  31.019   5.246  0.3339  0.0673 -0.4103
91283W        W34299  27.951  17.281   5.301 -0.1130 -0.0257 -0.0241
91284W        W34300  20.639  12.526   0.492  0.0263 -0.3430 -0.0740
91285W        W34301   4.035   6.622  17.536  0.2645  0.2019  0.1830
91286W        W34302   6.787  24.346   9.203 -0.0762 -0.1788  0.1480
91287W        W34303  16.542  18.259   0.092  0.1231  0.2413 -0.0969
91288W        W34304  17.000  17.606  22.715 -0.1389  0.0619  0.3586
91289W        W34305   1.841  31.355   8.057 -0.2364  0.0799  0.1363
91290W        W34306  20.490  27.211   3.691 -0.1062 -0.0396  0.3520
91291W        W34307  33.787  13.291   3.098 -0.1547 -0.2036  0.0024
91292W        W34308  10.099  14.817   5.013 -0.0907  0.2691 -0.1518
91293W        W34309  16.667  26.370  19.375 -0.0482  0.3866 -0.1344
91294W        W34310  10.525   0.271   0.379  0.1586 -0.1524  0.0652
91295W        W34311  18.377  15.009   3.916  0.1821 -0.0778 -0.2141
91296W        W34312  18.502  18.217   8.306  0.1540  0.0557 -0.3529
91297W        W34313  17.745  21.510   0.905  0.0866 -0.2596  0.0736
91298W        W34314  33.651   8.387  27.961  0.1713  0.2919 -0.2555
91299W        W34315  24.740  21.749   2.225 -0.3322 -0.0815  0.0204
91300W        W34316  11.128  11.222  24.532 -0.0960  0.0970 -0.0501
91301W        W34317  27.141   9.986   5.888  0.0680  0.2174 -0.1387
91302W        W34318  19.803  16.471   3.082  0.0627 -0.1152  0.0780
91303W        W34319  13.288  18.043   7.877 -0.1980 -0.0531 -0.0100
91304W        W34320  15.420  31.682  10.295 -0.1340 -0.2905  0.2864
91305W        W34321  16.493  21.964  29.152  0.0171 -0.2807  0.1262
91306W        W34322   5.206  18.982   6.288  0.3227  0.1125  0.0994
91307W        W34323  22.028  27.119   9.739 -0.1001 -0.0211 -0.0765
91308W        W34324  13.898  14.101  27.622 -0.2674 -0.2107  0.3832
91309W        W34325  15.142   0.869   6.195  0.0536  0.0741  0.3798
91310W        W34326  29.760   5.659   4.806  0.0268 -0.0692 -0.3871
91311W        W34327  10.167  21.022  14.764 -0.0207 -0.0084 -0.1932
91312W        W34328  16.492  13.729   3.791 -0.1577 -0.1086  0.1036
91313W        W34329   8.822   7.084  22.395 -0.1087  0.3556  0.1306
91314W        W34330   6.355  13.399   8.972 -0.0942 -0.3516  0.1799
91315W        W34331   2.630  11.584   2.624 -0.1973  0.1515 -0.1156
91316W        W34332   2.274  13.714   9.785 -0.0030  0.0626 -0.2184
91317W        W34333  19.861  12.111   7.276  0.1898 -0.0683 -0.0566
91318W        W34334   7.088  22.959  29.169  0.2142 -0.1301  0.1307
91319W        W34335  34.458  11.826   5.872  0.2305  0.0381 -0.0390
91320W        W34336  14.780  29.709   2.622 -0.1679  0.0065  0.0527
91321W        W34337  16.290  11.312  26.365  0.2978 -0.3017  0.3507
91322W        W34338   7.965  12.870   6.517 -0.1158  0.1331  0.0403
91323W        W34339  13.471   1.508   9.906  0.3466  0.4662 -0.1360
91324W        W34340   9.749   8.121   2.513 -0.0147 -0.1221 -0.1067
91325W        W34341  13.356  25.001   6.117  0.0825  0.0747 -0.0868
91326W        W34342  17.440  26.411   8.717  0.0397  0.1475 -0.0397
91327W        W34343  12.184  11.866   7.232 -0.1862 -0.3229  0.2436
91328W        W34344   4.939  11.830   6.629 -0.0783  0.1600 -0.1063
91329W        W34345  22.195  29.362   9.582 -0.2313  0.1184 -0.1760
91330W        W34346  15.503  10.295  28.285  0.1724 -0.0869 -0.1946
91331W        W34347  20.306  11.684   6.464  0.1019  0.0474 -0.4996
91332W        W34348  21.576  31.381   5.805 -0.0965 -0.1516  0.0453
91333W        W34349  10.775  21.666  15.219  0.2035  0.0065 -0.1436
91334W        W34350  22.337  24.134   2.677 -0.1830 -0.1016  0.0159
91335W        W34351   9.966  13.193   5.857 -0.0159  0.1623  0.0391
91336W        W34352   5.743  32.988   6.524  0.3748  0.1799  0.1563
91337W        W34353  16.642  32.407   9.043 -0.0459 -0.0794 -0.0860
91338W        W34354  26.201  11.435   4.692  0.1593  0.0284  0.1190
91339W        W34355  27.209  33.048   9.081 -0.0459  0.2168  0.0058
91340W        W34356   8.336  22.218  25.300  0.3002 -0.0580  0.1145
91341W        W34357  16.940  10.681   4.470  0.1580 -0.2112 -0.0445
91342W        W34358  33.233  16.586  17.204 -0.2057  0.0259 -0.2310
91343W        W34359  23.902   9.621  26.280 -0.0071 -0.2969 -0.1736
91344W        W34360  15.081  27.817  21.839 -0.0125 -0.0475  0.0486
91345W        W34361  17.685  15.947   3.517  0.0003  0.2759  0.0828
91346W        W34362  10.877   9.098   5.332 -0.0623 -0.2743 -0.2067
91347W        W34363  18.632  16.618  24.566  0.2269 -0.1473  0.1558
91348W        W34364  19.880  24.167   5.748  0.1389  0.2421 -0.0360
91349W        W34365  17.208  19.011  21.106  0.3736 -0.0116  0.3039
91350W        W34366  21.528   7.528   2.864 -0.2088 -0.3922 -0.1507
91351W        W34367   8.328  30.069   4.769  0.2186 -0.0887 -0.0580
91352W        W34368  33.990   4.185   9.004  0.2072  0.1078  0.0602
91353W        W34369  11.188  15.285   6.886  0.3232 -0.0436 -0.1785
91354W        W34370  19.389   7.991  17.912 -0.0904 -0.1856 -0.3250
91355W        W34371  33.865  22.276   8.824 -0.1166 -0.0942  0.1734
91356W        W34372  25.298  14.799   8.351 -0.0321 -0.2194  0.0931
91357W        W34373  18.192  10.625   4.207 -0.0376 -0.0009 -0.2111
91358W        W34374  15.032   7.162  22.349  0.1998 -0.0040 -0.1772
91359W        W34375   8.626  34.400   1.456  0.2785  0.0494  0.1953
91360W        W34376  24.212   4.065   7.628  0.1031 -0.3872 -0.0441
91361W        W34377  26.457   0.797   6.510  0.3855 -0.0772 -0.1602
91362W        W34378  29.113  11.896   7.690  0.3575  0.0959  0.3359
91363W        W34379   1.603  11.850  23.490  0.2229  0.5646  0.2289
91364W        W34380  22.594  32.080  15.790  0.1816  0.1593 -0.0711
91365W        W34381  20.490  15.324   8.534 -0.0743 -0.2679  0.3502
91366W        W34382  23.845   6.392   8.455  0.1200 -0.3819  0.1118
91367W        W34383   8.078  14.091  27.963 -0.1140  0.1598 -0.3448
91368W        W34384  12.634  10.771  25.404  0.0971 -0.1035  0.0676
91369W        W34385  13.385  24.978   2.902  0.0930 -0.1689  0.0920
91370W        W34386  23.758  19.226  29.267  0.1066 -0.0646  0.4203
91371W        W34387  24.035  16.699  27.757  0.1934 -0.3505  0.2431
91372W        W34388  20.323  16.615   7.584  0.1031 -0.0077  0.2748
91373W        W34389  17.387  19.285   6.621 -0.0492  0.1582 -0.1793
91374W        W34390  14.905  22.801   5.621  0.0591 -0.2054 -0.0803
91375W        W34391  20.251  17.929   7.005  0.0084 -0.1486  0.2276
91376W        W34392   7.161  18.666   2.756 -0.1307  0.0895  0.1040
91377W        W34393  13.636  17.391   1.634 -0.1173 -0.0305 -0.1259
91378W        W34394  23.427  19.730   9.336  0.0018  0.0124 -0.0509
91379W        W34395   5.241  34.132  25.809 -0.2407 -0.0725  0.1682
91380W        W34396  16.731  21.767  21.167  0.0199  0.0647 -0.3781
91381W        W34397  14.850  12.916   0.368  0.1645  0.2600  0.2492
91382W        W34398  25.220   5.534   5.250 -0.1590 -0.0864 -0.1041
91383W        W34399  18.530   6.845   3.431  0.1421  0.0666 -0.0202
91384W        W34400  30.663   9.589  21.132  0.1612  0.0381 -0.3843
91385W        W34401  11.980   6.102   5.824 -0.1976 -0.2719 -0.2372
91386W        W34402  12.539  27.765   5.130  0.0162 -0.1956  0.2203
91387W        W34403  26.644  33.498   5.822  0.0423  0.0930 -0.0771
91388W        W34404  24.252  10.919   6.856  0.2161 -0.0377 -0.1530
91389W        W34405  13.359   8.528   1.779 -0.3748  0.0789 -0.1578
91390W        W34406   5.367   4.333   3.549  0.1118  0.2185  0.1638
91391W        W34407   4.739  10.065  23.249 -0.2105  0.0492 -0.0792
91392W        W34408  16.743  14.702   3.332  0.0152  0.2546 -0.1394
91393W        W34409  14.227   4.743   9.236 -0.0115  0.3382  0.0588
91394W        W34410  22.319  13.379  24.218  0.2756 -0.1033  0.1648
91395W        W34411  28.867  25.005   6.974  0.2560 -0.3265  0.1251
91396W        W34412  15.454  18.228  24.599  0.0531 -0.1394 -0.0108
91397W        W34413   6.305  17.517   1.467  0.3910  0.2801  0.0096
91398W        W34414  24.938   6.008  17.916  0.0053  0.2094 -0.2672
91399W        W34415   7.948   9.351  27.670 -0.2466  0.1908 -0.2373
91400W        W34416  34.073  18.570  22.107  0.0144 -0.1106 -0.3370
91401W        W34417  28.105  17.881   8.586 -0.1153 -0.0388 -0.2447
91402W        W34418  17.150  12.071  25.242  0.4250 -0.3793 -0.1480
91403W        W34419  31.265   5.359   8.553  0.2877  0.1657  0.0407
91404W        W34420   4.348   8.917   4.600  0.1206 -0.2182  0.0343
91405W        W34421  26.908   7.264   7.243 -0.1992  0.0768 -0.1096
91406W        W34422   8.080  25.298   9.429 -0.0775  0.1225  0.0865
91407W        W34423  10.974  28.406  28.833  0.1913  0.1863  0.3005
91408W        W34424  19.686  14.032  25.978  0.2063  0.1300 -0.4917
91409W        W34425  10.079  18.323   6.235  0.1151 -0.0027  0.1857
91410W        W34426  19.044   5.332   9.465  0.1355  0.0752  0.0135
91411W        W34427  23.692  11.926   7.498  0.1816 -0.3545  0.0185
91412W        W34428  32.863   4.716   6.950  0.0675 -0.1613 -0.1009
91413W        W34429  31.555  16.000   5.453  0.0008  0.0097 -0.2482
91414W        W34430  15.251  12.986   2.581 -0.1226  0.2075 -0.1715
91415W        W34431  12.110  13.148   4.724  0.2037 -0.0221 -0.2395
91416W        W34432  19.970   4.261   9.163  0.3601  0.2477  0.3468
91417W        W34433  30.081   5.588   3.054 -0.0891  0.3448  0.0274
91418W        W34434  17.234  15.885  22.970 -0.0037 -0.0276 -0.0340
91419W        W34435  20.879  14.225   5.988 -0.0853 -0.0815  0.1115
91420W        W34436   9.460  31.395   5.178 -0.0008 -0.1458  0.0154
91421W        W34437   9.724   1.880   7.955  0.1751 -0.3743 -0.2097
91422W        W34438  18.808  11.224  26.051  0.2765 -0.6095  0.2091
91423W        W34439   3.976  18.951  28.108 -0.2204 -0.0351 -0.2012
91424W        W34440   1.286   8.688   6.389 -0.0612  0.1171  0.2032
91425W        W34441   2.346  11.861   1.229  0.1912  0.1888 -0.0405
91426W        W34442  10.806  12.216  26.583 -0.0011 -0.0380 -0.1347
91427W        W34443   3.209   7.576   7.719 -0.3605 -0.3785  0.1414
91428W        W34444  14.406  19.930  23.616  0.0662  0.1131  0.0860
91429W        W34445  19.276  13.501  19.947  0.0067 -0.2361 -0.1907
91430W        W34446  12.459   3.267   0.375  0.0898 -0.0058 -0.0132
91431W        W34447  17.764   9.569   4.866 -0.0087  0.3266  0.1133
91432W        W34448  26.656  11.403   8.901 -0.0675 -0.5057  0.0685
91433W        W34449  18.484  10.341   2.296  0.0489 -0.1111 -0.0743
91434W        W34450  20.317  14.874   4.108  0.0801  0.1105  0.3272
91435W        W34451  27.820   5.485  10.299 -0.0477  0.0149 -0.1596
91436W        W34452  32.730  21.758  28.575 -0.1460 -0.0941  0.2798
91437W        W34453  20.150  14.023   6.774  0.0585  0.3699 -0.1851
91438W        W34454  15.346  17.872   7.081 -0.1072 -0.1453 -0.0606
91439W        W34455  24.239  11.198   2.896  0.1754  0.1204  0.0944
91440W        W34456  12.113  23.483  20.644 -0.0240  0.0627  0.0389
91441W        W34457   8.720  28.597   3.956  0.4372  0.2244  0.0559
91442W        W34458  12.521  17.000   3.460 -0.2361  0.1169  0.1739
91443W        W34459  20.083   3.464   5.189  0.0220 -0.0263 -0.0285
91444W        W34460   8.409  20.027   4.840  0.0820 -0.1705  0.1729
91445W        W34461  13.182  24.113   6.549  0.0159 -0.1142 -0.0348
91446W        W34462   7.720  27.236   1.229 -0.0422 -0.3174 -0.0482
91447W        W34463  28.832   9.013   1.647  0.1312 -0.1793 -0.1071
91448W        W34464  17.468   7.566   5.928  0.0949  0.1900  0.0481
91449W        W34465  24.778   4.476   4.345 -0.0343  0.0404  0.1240
91450W        W34466   1.209   8.805   5.755  0.2870 -0.0360 -0.1965
91451W        W34467  30.521  11.433   9.444 -0.0375  0.1482  0.2586
91452W        W34468  26.936   2.376   6.120 -0.1071 -0.1708 -0.2964
91453W        W34469   5.814  14.719   0.574  0.0700  0.3852 -0.2895
91454W        W34470  14.600   3.003  22.636 -0.1519 -0.1568 -0.0085
91455W        W34471  16.330  19.043  27.719 -0.2369  0.3075 -0.0715
91456W        W34472   7.044  12.047   7.337  0.0845  0.1907  0.0194
91457W        W34473   7.117   8.647   5.733  0.2330  0.0024  0.0905
91458W        W34474  13.218  16.023  28.129  0.2371  0.1180  0.2518
91459W        W34475  10.075  17.823  26.505  0.0823 -0.2726 -0.3347
91460W        W34476  10.180  15.332  25.273  0.0944 -0.3335  0.0534
91461W        W34477  10.413  14.198   7.718 -0.0587  0.0159  0.2425
91462W        W34478   9.925  16.588  26.461  0.1527 -0.4163 -0.0441
91463W        W34479  21.769  17.378   7.565 -0.2524 -0.2681 -0.2682
91464W        W34480  20.623  25.643  18.459 -0.3111 -0.0528 -0.1031
91465W        W34481  32.609   8.663   2.750  0.1149  0.2570  0.2309
91466W        W34482  10.396   7.318  26.166 -0.0914  0.0918  0.0010
91467W        W34483  15.835  19.234   2.156 -0.1051 -0.0664  0.3011
91468W        W34484  15.383   8.720   7.038  0.0804  0.2112  0.1151
91469W        W34485  16.750  20.372   3.397 -0.0577  0.0928  0.1833
91470W        W34486  10.317   0.220   1.503  0.1422 -0.0489  0.1691
91471W        W34487  33.486   6.627  26.615  0.0039 -0.1342 -0.0505
91472W        W34488   4.274  25.146   5.834 -0.0233 -0.4960 -0.0364
91473W        W34489  17.770  11.776   2.842  0.0774  0.2299  0.0906
91474W        W34490   6.948  34.678  19.282 -0.1567 -0.1507 -0.1447
91475W        W34491  12.549   4.979   0.173 -0.0253 -0.1786 -0.2070
91476W        W34492  11.782  22.214   2.105 -0.0370 -0.0297 -0.1680
91477W        W34493  17.646   9.428   1.110  0.1347  0.2952  0.3710
91478W        W34494  19.374  12.054   5.544  0.1028  0.4275  0.0620
91479W        W34495  28.343  10.573  25.250 -0.1387  0.0164  0.1452
91480W        W34496  16.946  21.007   7.279 -0.1251 -0.1909 -0.3080
91481W        W34497  13.025   7.525   5.776  0.1365 -0.0775  0.1680
91482W        W34498  17.931  12.739  24.170  0.2567  0.1942 -0.0687
91483W        W34499  22.484  13.162   4.574 -0.1173 -0.3001 -0.4445
91484W        W34500  16.253  10.748   0.518 -0.0159  0.1721  0.1281
91485W        W34501  15.102  20.803   2.684 -0.0832  0.1253 -0.0292
91486W        W34502  27.125  13.257   4.232 -0.0234 -0.0230 -0.3136
91487W        W34503  11.573  14.662   4.513 -0.1147  0.3564 -0.0591
91488W        W34504  20.564   8.432  14.409 -0.1319 -0.1609 -0.0048
91489W        W34505  12.895  26.476  29.311 -0.0091  0.2267  0.2330
91490W        W34506  31.713  16.676   3.276 -0.0554  0.0972  0.0677
91491W        W34507  17.443  17.425  22.939  0.1498  0.1352  0.2328
91492W        W34508  15.983   6.315  21.770 -0.3926  0.0571 -0.1382
91493W        W34509  20.789  20.682  13.826 -0.0136  0.1965  0.3092
91494W        W34510  15.567  18.843  23.376  0.0164 -0.2578  0.1022
91495W        W34511  33.930  26.932  29.214 -0.1922  0.1839  0.0001
91496W        W34512  21.128  13.723  22.227 -0.1634 -0.1782 -0.0693
91497W        W34513  13.388   0.892  26.151 -0.1359 -0.1730  0.2972
91498W        W34514  19.814  18.957   3.468  0.2133 -0.1661 -0.2371
91499W        W34515  13.446  18.361  20.402  0.0604 -0.0801 -0.0622
91500W        W34516  22.724  13.979   0.341  0.2809 -0.0385  0.0144
91501W        W34517  12.007  11.272   2.073 -0.0691  0.2369 -0.1850
91502W        W34518  33.556  19.281   7.938 -0.0086 -0.1300  0.1643
91503W        W34519   6.690   4.840   4.215  0.0130  0.1905  0.1556
91504W        W34520   9.774  18.891   1.143  0.0775  0.2326  0.2359
91505W        W34521  19.020  21.675  27.035 -0.0009  0.2440  0.0527
91506W        W34522   9.526  23.275  28.263 -0.3501 -0.1126 -0.3862
91507W        W34523  29.377   4.931  26.365 -0.1690 -0.0610  0.5220
91508W        W34524  20.526  20.825  26.162 -0.3807 -0.0668  0.0424
91509W        W34525  12.031  24.875   9.339 -0.3103 -0.0682  0.1150
91510W        W34526  21.446  13.702   8.747  0.2069  0.4679 -0.1489
91511W        W34527   5.125  10.646   7.304 -0.1685 -0.0325  0.0669
91512W        W34528  16.652   9.595   4.001 -0.2703 -0.0983 -0.1561
91513W        W34529  14.706  27.366  28.909 -0.0245  0.0078  0.0167
91514W        W34530  26.955   6.743   6.430 -0.0011 -0.3201  0.0386
91515W        W34531   1.700  19.440   3.791  0.0677 -0.1109  0.3145
91516W        W34532  18.116  33.236   0.802  0.2683  0.1860 -0.2824
91517W        W34533   8.878  12.892   7.746  0.2610 -0.2518 -0.0460
91518W        W34534   2.728   0.445   6.148 -0.6394 -0.0380  0.1071
91519W        W34535  11.429   5.110   8.584 -0.3684 -0.1419  0.1310
91520W        W34536  11.434  28.778   8.451 -0.2330 -0.0712 -0.0137
91521W        W34537  24.157  20.930   0.649 -0.1704 -0.6192  0.1412
91522W        W34538  11.197  26.912  17.072 -0.0991 -0.0469 -0.2879
91523W        W34539   2.409  10.614  28.607 -0.2820 -0.2177 -0.0583
91524W        W34540  20.644  33.095   3.577  0.0751  0.1006  0.0630
91525W        W34541   6.461  23.071  21.048  0.2316 -0.4312  0.0169
91526W        W34542  22.125   1.721   2.021 -0.1023 -0.0164  0.2336
91527W        W34543   9.257  11.207   4.177  0.5337 -0.0338 -0.0498
91528W        W34544  30.568   2.918  29.077 -0.3496  0.2425 -0.0030
91529W        W34545  25.556   5.896   5.144 -0.2128  0.1577  0.1645
91530W        W34546  31.990  17.896  29.034 -0.2639  0.0840 -0.2594
91531W        W34547  18.187   0.741   4.956 -0.0567  0.3922  0.2114
91532W        W34548  15.431   6.042   6.424 -0.0578 -0.0979  0.2153
91533W        W34549  12.609   6.174   0.111  0.0817  0.0604 -0.1809
91534W        W34550  11.926  12.907  28.170  0.0853 -0.3053  0.1745
91535W        W34551  32.336  18.999   4.681  0.3870  0.3014 -0.0369
91536W        W34552  26.163  19.325   3.663 -0.3144 -0.0077 -0.2230
91537W        W34553  14.417   9.983   1.302  0.2607  0.0540 -0.0149
91538W        W34554  12.663  33.297   0.589 -0.0396  0.1653  0.1687
91539W        W34555   5.668   7.822   1.168 -0.0344 -0.1675  0.0239
91540W        W34556  12.771  14.519  26.307 -0.4542 -0.1517 -0.1321
91541W        W34557  16.273   6.560   6.147  0.0842  0.1401 -0.0819
91542W        W34558   6.718  12.019   6.501 -0.1297 -0.1889  0.5559
91543W        W34559   8.174  12.453   4.044  0.0969  0.0627  0.1121
91544W        W34560   1.768  23.509  10.280  0.0248 -0.2711  0.0197
91545W        W34561  29.124  17.158   4.467  0.1097 -0.0675 -0.2128
91546W        W34562  34.484  23.060   0.319 -0.3989 -0.1106  0.4602
91547W        W34563  27.862  23.786   3.115  0.0006 -0.0705  0.0177
91548W        W34564  28.531  15.173  24.315  0.2477 -0.3889 -0.2270
91549W        W34565  18.073  18.814  28.184 -0.1370  0.0540  0.1798
91550W        W34566  21.789  10.955  17.450  0.3397 -0.0050  0.1186
91551W        W34567  12.529  19.823   6.253 -0.0939 -0.0226 -0.0961
91552W        W34568   5.841  24.972   7.589  0.2639  0.0170  0.2099
91553W        W34569  22.682   0.700   7.738  0.0040  0.1395  0.0145
91554W        W34570  10.498   9.577   8.451  0.1489  0.0109 -0.1250
91555W        W34571  12.038   9.584   2.597  0.0167 -0.0424 -0.3709
91556W        W34572  23.176  16.950   6.498 -0.1404  0.0254  0.1846
91557W        W34573   6.016  12.722  26.687  0.0627  0.1944  0.2148
91558W        W34574  21.733   5.557   7.166 -0.0921  0.0838  0.0166
91559W        W34575  18.330   1.999   6.204 -0.3242 -0.1917  0.0275
91560W        W34576  15.889   4.693   7.334 -0.0746 -0.2550  0.1228
91561W        W34577   7.651  11.966   5.095  0.0686 -0.1605  0.2122
91562W        W34578   4.811  27.520   5.169  0.2779  0.1776 -0.0067
91563W        W34579  19.744  13.454   3.030  0.1806  0.1475 -0.0411
91564W        W34580  14.930  15.281  23.088 -0.0463  0.0830 -0.1421
91565W        W34581  21.395  15.317   7.401 -0.0098 -0.1077 -0.1563
91566W        W34582  28.661   5.770   7.595  0.0642  0.1801  0.2395
91567W        W34583   6.260  23.554   9.140 -0.0307 -0.0321 -0.1220
91568W        W34584  27.876   7.918  28.445  0.2891 -0.0428  0.1582
91569W        W34585  16.312  10.248  18.982  0.1591  0.3242  0.2717
91570W        W34586  20.320  26.711   7.742 -0.0634  0.0628  0.0435
91571W        W34587  19.101  14.408   3.890  0.0465  0.1088 -0.0789
91572W        W34588  22.025  13.616   4.501 -0.0468  0.5092 -0.2644
91573W        W34589  11.388  33.418  27.211  0.1054 -0.3204 -0.1135
91574W        W34590  30.629   3.077   2.837 -0.1196  0.0478 -0.0174
91575W        W34591  11.909  16.859   4.023 -0.2828  0.1871 -0.0296
91576W        W34592  21.245  17.056   4.127  0.0572  0.3252 -0.0913
91577W        W34593   6.606   8.072  15.782 -0.1724 -0.1232 -0.0414
91578W        W34594   7.708  20.382   4.512  0.2333 -0.2515 -0.2278
91579W        W34595  20.368  13.149   3.630 -0.0586  0.1610 -0.5639
91580W        W34596   7.726   4.938   3.681 -0.2271  0.2113 -0.2007
91581W        W34597   3.365   7.979   2.396 -0.0546 -0.1848 -0.2454
91582W        W34598   9.592  16.800  27.254  0.1199 -0.3413 -0.0985
91583W        W34599  11.115  10.123  10.127  0.1333  0.1475 -0.2240
91584W        W34600  18.489  21.872  26.209 -0.0436 -0.1690 -0.2104
91585W        W34601  16.806  15.872   0.325  0.0383  0.2281 -0.1113
91586W        W34602  11.825   9.844  21.737  0.0054 -0.1068 -0.1761
91587W        W34603  26.822  17.490   9.150  0.2539 -0.1819 -0.0058
91588W        W34604  17.094  14.425  27.518  0.3002  0.2832  0.0239
91589W        W34605  14.863  10.833   4.209 -0.0127 -0.1243  0.1867
91590W        W34606  13.840   8.344   8.475  0.3095  0.0710 -0.0885
91591W        W34607  20.525  15.424  24.783 -0.1095  0.1273 -0.2328
91592W        W34608   8.175   0.980   9.441 -0.1454 -0.0111 -0.1848
91593W        W34609   9.216  21.157   6.984  0.1761 -0.3418 -0.0031
91594W        W34610  13.188   9.737  26.867 -0.1797  0.1558 -0.0319
91595W        W34611  20.341  10.199  26.019 -0.0938 -0.1166  0.2275
91596W        W34612  11.616  10.088   5.976 -0.3009  0.1732 -0.3861
91597W        W34613  17.424  17.998  21.043  0.0965 -0.0360 -0.0315
91598W        W34614  33.432  31.972  19.846  0.3772  0.1436 -0.4481
91599W        W34615  22.094   4.184   9.450 -0.0037  0.5417 -0.1267
91600W        W34616   7.119  16.471   5.151 -0.1327  0.0573  0.0457
91601W        W34617  15.124  18.643   5.468 -0.1643  0.3673 -0.0770
91602W        W34618  15.901   7.514   2.953 -0.1134  0.0130 -0.0166
91603W        W34619  20.501  26.746  10.715  0.2181 -0.0065  0.1868
91604W        W34620  26.830  19.756   4.880 -0.1552  0.1054 -0.1358
91605W        W34621  16.459  16.930  21.379 -0.3157 -0.0538 -0.2266
91606W        W34622  15.085   5.846   4.743  0.2102  0.0138 -0.3767
91607W        W34623  30.803  21.304  15.675 -0.1217  0.2826 -0.0110
91608W        W34624   4.318  31.291   7.355  0.1764 -0.0608  0.1138
91609W        W34625  27.273  10.843   0.499  0.0355  0.2232  0.2449
91610W        W34626  23.817  27.942   5.430 -0.1544 -0.0304  0.0348
91611W        W34627  34.731  17.691   8.367  0.1894  0.0372 -0.2504
91612W        W34628  14.493  17.572   5.001  0.1291 -0.0782 -0.2774
91613W        W34629   4.815   1.406   2.024  0.1650 -0.0885 -0.0445
91614W        W34630  30.832  13.451   8.936  0.1987 -0.3015  0.2220
91615W        W34631   2.490  12.694   3.034  0.1710 -0.1102  0.2407
91616W        W34632  17.186   4.960   0.217  0.0720 -0.2008 -0.0166
91617W        W34633  25.458  11.046  10.263 -0.1234  0.1020  0.1446
91618W        W34634  12.951  24.180   8.886  0.1158 -0.0790 -0.3300
91619W        W34635  26.503  17.148  21.229  0.4709 -0.2940  0.0129
91620W        W34636   7.287  11.583   8.167 -0.0372  0.2044  0.0480
91621W        W34637  17.184  21.548   0.997 -0.1223  0.2346 -0.0228
91622W        W34638  10.144   5.623   5.296 -0.1257  0.2690  0.0948
91623W        W34639  22.385   8.495   8.195 -0.1309  0.1270 -0.1104
91624W        W34640  12.855   2.734   9.230 -0.1872  0.1644 -0.1088
91625W        W34641  12.474  17.383   5.304  0.2142 -0.2632 -0.0203
91626W        W34642   6.656  12.880   1.865 -0.0651 -0.2520 -0.0395
91627W        W34643  10.464  28.635  24.693 -0.0362  0.4098  0.0820
91628W        W34644  11.760  29.567   6.817  0.2022 -0.0350  0.1790
91629W        W34645   9.162   6.056  25.232  0.1500 -0.0384 -0.0097
91630W        W34646   6.736   8.670   0.901  0.2154  0.3233 -0.3088
91631W        W34647   5.434   7.128   9.058 -0.2131 -0.0825  0.2143
91632W        W34648  19.942  22.268   7.010 -0.1094  0.3362  0.0095
91633W        W34649  28.487   5.233   7.615  0.3370  0.3659  0.1424
91634W        W34650  22.095  17.303  23.994 -0.0178  0.0495  0.3263
91635W        W34651  12.248  14.699  18.156  0.1284 -0.0382 -0.2926
91636W        W34652  18.581  11.782  21.361  0.0919 -0.0586 -0.0701
91637W        W34653  31.176   9.131   7.252 -0.6799  0.3099  0.0579
91638W        W34654  14.720  19.207   6.048 -0.3221  0.1323  0.2769
91639W        W34655  25.673   2.547  29.313  0.1691  0.2040 -0.3128
91640W        W34656  26.134  11.204   2.136 -0.0069  0.0415 -0.2105
91641W        W34657  10.158  22.379   8.233 -0.0323  0.2182  0.4292
91642W        W34658  24.016  29.588  26.644 -0.1795  0.3048  0.2179
91643W        W34659  25.012   3.550   9.399  0.0872 -0.0350 -0.0683
91644W        W34660  33.049  32.179   6.385 -0.1732  0.1015  0.2290
91645W        W34661   3.886  17.094   6.812  0.1266  0.0111  0.0687
91646W        W34662   3.123  15.992  17.613 -0.2487 -0.2817 -0.0660
91647W        W34663  13.687  24.971  29.280 -0.0883  0.1822 -0.0378
91648W        W34664  12.181  25.268  22.649 -0.0497 -0.0792 -0.2490
91649W        W34665   3.483   6.840   8.832 -0.0622  0.0689  0.0192
91650W        W34666  14.922  25.429   2.769 -0.0915 -0.0173  0.3443
91651W        W34667   1.515  16.311   8.948 -0.3192  0.0765  0.0733
91652W        W34668  31.844  24.224  15.708  0.0267 -0.0874 -0.2383
91653W        W34669   0.484  15.225   8.792  0.1211  0.0484  0.1977
91654W        W34670   9.370  21.118   0.382  0.0070  0.0808  0.2442
91655W        W34671  22.773   0.827   2.935 -0.0511 -0.0938 -0.3716
91656W        W34672  22.634  29.989   4.678  0.0145  0.0971 -0.2558
91657W        W34673  18.818   1.209  10.039  0.0093  0.0433 -0.0459
91658W        W34674  19.779   4.075   8.696  0.1588  0.1078 -0.1398
91659W        W34675  24.341  15.513  26.261 -0.0887 -0.0569 -0.1740
91660W        W34676  21.157   1.177   6.317  0.1596 -0.2474  0.1225
91661W        W34677  25.379  12.992  10.335 -0.0171 -0.0050 -0.0507
91662W        W34678  24.440  12.413   7.830  0.4038 -0.0542  0.2545
91663W        W34679  13.022   7.948  27.718  0.2349 -0.1208 -0.1694
91664W        W34680  18.153  15.716   3.322 -0.2545 -0.1677  0.1717
91665W        W34681   3.466  11.176  23.956  0.0125 -0.2567 -0.0909
91666W        W34682  14.657  17.372  27.304  0.1745 -0.3058 -0.1637
91667W        W34683   9.252  14.950   4.215  0.1164 -0.2461  0.0210
91668W        W34684  17.230  15.398   4.180  0.0882  0.1354  0.4200
91669W        W34685  14.197   9.020  27.958 -0.2693 -0.3496  0.0125
91670W        W34686   0.837  19.736   7.486 -0.0357 -0.0265  0.1715
91671W        W34687  10.092  15.352   9.674  0.0213  0.1007  0.1463
91672W        W34688  18.286  21.278   6.848 -0.0073 -0.1555  0.0048
91673W        W34689   4.804  26.615   4.478  0.0987 -0.1213 -0.0986
91674W        W34690  19.639  18.195   3.428  0.1313 -0.0079  0.1911
91675W        W34691  33.675   6.139   5.052 -0.0085  0.0470  0.2008
91676W        W34692  11.550  34.308  15.872  0.2649  0.1957  0.1407
91677W        W34693   3.033  15.423   9.420 -0.1697 -0.1351 -0.1446
91678W        W34694  15.301  20.590  28.223 -0.1726  0.3617  0.1154
91679W        W34695  10.403   9.060   6.329 -0.0197  0.3113 -0.3933
91680W        W34696  25.540  12.091   7.258 -0.3906 -0.2574 -0.1059
91681W        W34697  28.757   4.778  11.343  0.1118 -0.1272 -0.1715
91682W        W34698  11.687  16.272  25.861  0.1388  0.2492  0.0624
91683W        W34699  10.140   6.214   5.767  0.0679 -0.0797  0.1657
91684W        W34700  14.466   6.704   8.020 -0.0782 -0.3242 -0.1784
91685W        W34701   7.996   7.475   2.865  0.2121 -0.0411 -0.1260
91686W        W34702  20.226  15.930   7.819 -0.0968 -0.2605  0.1047
91687W        W34703  20.334  18.832   5.100 -0.2791 -0.1605 -0.0037
91688W        W34704   9.259  11.749   3.050  0.2323 -0.1679 -0.2075
91689W        W34705  24.242  32.531   8.782 -0.0109  0.1011 -0.0681
91690W        W34706  19.515   4.718   6.870 -0.1169  0.2710  0.3349
91691W        W34707  23.617   0.047   9.242  0.1623  0.2593 -0.1016
91692W        W34708   6.465   7.061   8.704  0.2351  0.0744  0.1453
91693W        W34709  13.725   3.259  23.119 -0.2143 -0.0704 -0.1784
91694W        W34710   4.847  22.963   3.897 -0.2227 -0.1499  0.0303
91695W        W34711  15.062  16.613   2.365  0.0416  0.1820  0.0700
91696W        W34712  32.001  18.835  21.224  0.1227 -0.3934 -0.2259
91697W        W34713  10.033   7.199   2.559 -0.0413  0.0799 -0.2299
91698W        W34714  30.970  14.695   4.280  0.0226  0.1467 -0.2504
91699W        W34715   7.667  34.467  28.423 -0.0825 -0.0870  0.1115
91700W        W34716   8.602  16.960   6.081 -0.1417 -0.0558  0.2636
91701W        W34717  24.527   9.945   9.159  0.1443  0.0831  0.0006
91702W        W34718  23.485  14.789  21.097 -0.0332  0.1098 -0.0925
91703W        W34719  25.370  17.946   1.791 -0.2286  0.2813 -0.1477
91704W        W34720  23.851  32.782   2.210 -0.2580 -0.1399 -0.1297
91705W        W34721  28.628   8.705   2.654  0.2057  0.3093 -0.0141
91706W        W34722  14.742  24.860   0.600 -0.4050 -0.0770 -0.1583
91707W        W34723  13.916  13.910   2.929  0.1092 -0.4058  0.3951
91708W        W34724  10.641  34.675   3.980 -0.2757  0.1595 -0.1096
91709W        W34725  27.643  34.733   2.996  0.0968 -0.0880  0.1071
91710W        W34726  32.685   9.471  10.574 -0.2796  0.0374  0.0963
91711W        W34727   0.879  17.227   7.977 -0.0837  0.1518  0.0175
91712W        W34728  19.370  16.943  29.011  0.2104  0.1774 -0.1878
91713W        W34729  26.860  18.099   7.476  0.1248  0.2466  0.0752
91714W        W34730  32.222  16.604  10.509 -0.1844  0.0403  0.1395
91715W        W34731  11.450  22.397   3.943  0.1514 -0.3118  0.1195
91716W        W34732  11.180  11.721   2.315 -0.0146 -0.1232  0.2746
91717W        W34733  16.416  22.867  19.650 -0.2004 -0.0371  0.0517
91718W        W34734   4.974   2.395   1.582  0.1643 -0.0453  0.0329
91719W        W34735  32.955   6.436  28.592 -0.0487  0.1198 -0.1282
91720W        W34736  10.007  21.768   6.425 -0.2660 -0.3862  0.1174
91721W        W34737  27.279   3.267   2.452  0.1597  0.1104 -0.0133
91722W        W34738  16.351  13.156   8.173 -0.1374  0.0748 -0.3480
91723W        W34739   8.770  28.488  17.660  0.0654 -0.0876  0.0297
91724W        W34740  14.921   3.660   1.829  0.0251 -0.0718  0.1794
91725W        W34741  14.767  22.890   7.451 -0.3046  0.1120 -0.5274
91726W        W34742  31.358  22.454  24.929 -0.0275 -0.0847 -0.0480
91727W        W34743   3.615  16.311  27.130 -0.4848  0.2181  0.0056
91728W        W34744   3.716   8.918   1.891 -0.1209 -0.0983 -0.1856
91729W        W34745  16.370  14.161   4.594  0.0559 -0.0304  0.2192
91730W        W34746  15.215  33.031   9.481  0.0067  0.0044 -0.1633
91731W        W34747  20.734  14.914   8.392  0.1560 -0.3194 -0.0241
91732W        W34748  28.048   3.719  28.367  0.0287 -0.1978  0.0134
91733W        W34749  33.592  12.109   3.884  0.0968 -0.1455  0.0175
91734W        W34750  12.059  18.298  20.016  0.0686  0.0294 -0.1714
91735W        W34751  12.690  24.268   6.762 -0.3303  0.0227 -0.3821
91736W        W34752  12.046  22.943   5.763 -0.0096 -0.1087 -0.0844
91737W        W34753  33.716  17.943  19.543 -0.1636 -0.2359 -0.0480
91738W        W34754   1.376  13.017  16.665 -0.3941 -0.1933 -0.0439
91739W        W34755  20.212  13.642   7.266  0.2270 -0.0338  0.2151
91740W        W34756  22.661  28.274   5.307  0.1710  0.3759  0.3490
91741W        W34757  34.203   9.302   7.418 -0.0414  0.1464 -0.0704
91742W        W34758  12.557  16.539   2.730 -0.2739 -0.2384  0.1240
91743W        W34759   9.934  32.779   3.053  0.2309  0.1482 -0.1174
91744W        W34760   8.597  15.715   6.456 -0.0258  0.1566 -0.0610
91745W        W34761  23.581  12.485  16.681 -0.2358  0.1648  0.3084
91746W        W34762   7.516  15.578  26.684  0.0090  0.2156 -0.1038
91747W        W34763  19.167  29.872   2.005  0.0484  0.3424  0.2166
91748W        W34764  17.040   4.716  14.500  0.1692 -0.0662  0.0819
91749W        W34765  24.113  31.788   3.065  0.1281 -0.0639 -0.2256
91750W        W34766  29.268  28.178   5.536  0.2633  0.4309 -0.3467
91751W        W34767  24.704   6.962  27.186 -0.0406  0.4205 -0.1798
91752W        W34768  18.742  21.243   8.627  0.1097 -0.1325 -0.2687
91753W        W34769  14.455  12.982   5.745 -0.1375 -0.1423 -0.0466
91754W        W34770  23.985  14.816  22.455  0.2350 -0.2134 -0.3125
91755W        W34771  17.702  29.917   5.285  0.3199  0.3139  0.1154
91756W        W34772  22.180  20.196   9.610 -0.3216  0.1450 -0.1077
91757W        W34773  14.580  34.639   1.776  0.0391  0.0537 -0.2027
91758W        W34774   7.017   7.896   9.161 -0.3201  0.0464 -0.0435
91759W        W34775   4.608  10.774  26.302  0.0403 -0.1065 -0.0290
91760W        W34776   9.857  24.626   0.687 -0.2200  0.2258 -0.2672
91761W        W34777  11.162  16.373  25.660  0.1622 -0.0978  0.0461
91762W        W34778   9.669   6.287  26.885  0.0599 -0.0612  0.1732
91763W        W34779  30.976  11.908   7.484 -0.0218 -0.2477  0.0135
91764W        W34780   1.223  27.065  27.627 -0.0292  0.1143  0.1851
91765W        W34781  33.668  16.062   2.568  0.3274 -0.0750  0.1073
91766W        W34782  10.842  33.155   2.923  0.2317  0.1160 -0.2601
91767W        W34783  15.302   4.878  26.558 -0.4082 -0.0206 -0.1596
91768W        W34784  16.214  17.732   4.997  0.4547  0.0467  0.0803
91769W        W34785  17.918  26.990   4.497  0.1048 -0.0390  0.2360
91770W        W34786   8.689  23.789  24.560  0.0569  0.0533  0.0448
91771W        W34787  14.235  11.865   7.173 -0.2412  0.0728 -0.1712
91772W        W34788   4.784  27.854  25.910 -0.2431 -0.1274 -0.2895
91773W        W34789  19.619   6.624   7.598  0.1156  0.1918  0.0592
91774W        W34790  30.530  25.820   7.815  0.1375 -0.3596  0.0833
91775W        W34791  14.527   9.064  20.218  0.1849  0.1219 -0.0654
91776W        W34792  15.279  15.305  21.000  0.1558  0.0037  0.1232
91777W        W34793  24.430  15.843   8.626 -0.0101 -0.5533  0.1927
91778W        W34794   6.352  17.015   7.532  0.4218 -0.2279 -0.1148
91779W        W34795  18.225  25.725   0.123  0.0854 -0.2143 -0.3206
91780W        W34796  30.025   8.893  27.651 -0.0039 -0.2928  0.4267
91781W        W34797  17.893  11.789  24.286  0.2203  0.2922 -0.2006
91782W        W34798  14.008  14.933  27.034 -0.0509  0.0182 -0.0656
91783W        W34799  15.039  22.596  27.308  0.0811  0.1653  0.3137
91784W        W34800  17.956  27.568  10.123 -0.1146 -0.3381  0.0777
91785W        W34801   9.376  15.011   6.401  0.2254  0.1615 -0.1029
91786W        W34802  13.007  26.249   3.673  0.2968  0.2554 -0.0424
91787W        W34803  27.466  13.807  29.133  0.1996 -0.1032 -0.1377
91788W        W34804   4.546  34.395  20.780  0.0714  0.1280 -0.1199
91789W        W34805   2.979  34.635  26.972  0.0347 -0.0180  0.4317
91790W        W34806  14.944   8.848   6.381 -0.0422 -0.1561  0.0357
91791W        W34807  30.400   2.538  23.431  0.3490 -0.1304  0.2060
91792W        W34808  26.302   3.420   9.086  0.2455  0.2827  0.1670
91793W        W34809   2.036   0.942   7.538 -0.0461  0.0884 -0.2008
91794W        W34810  17.684  30.312  10.471 -0.0878  0.0282  0.0989
91795W        W34811   0.724  13.820  28.759  0.1055 -0.1274 -0.2690
91796W        W34812  30.849  16.356  26.281 -0.2593 -0.0248 -0.1174
91797W        W34813   7.318  19.652  28.688 -0.1107  0.1538  0.0048
91798W        W34814  12.412   3.377   3.644  0.1593  0.0259 -0.0348
91799W        W34815  11.846   7.259   1.996 -0.2982 -0.2521 -0.0285
91800W        W34816  11.953  19.217   7.740  0.5824  0.0289  0.0683
91801W        W34817  22.207  23.446  21.060  0.0722  0.1482  0.1019
91802W        W34818  17.076  24.629  28.531  0.1889  0.2068  0.1376
91803W        W34819  17.027  10.588   8.067  0.1286  0.2878 -0.0469
91804W        W34820  34.068  34.493   5.041 -0.0219 -0.2026  0.1114
91805W        W34821  18.955  27.950   4.737 -0.3360  0.0192 -0.2643
91806W        W34822  29.919  12.807  19.833 -0.1132  0.1294 -0.0823
91807W        W34823  13.621  19.858  23.974 -0.0847  0.0701 -0.1461
91808W        W34824  13.300  15.831   4.875 -0.2257  0.4131 -0.1321
91809W        W34825  12.205  13.418  14.260 -0.1092 -0.0184 -0.0989
91810W        W34826   3.453  18.003  16.906  0.0919 -0.0364  0.0976
91811W        W34827   6.489  23.830  24.701 -0.1046  0.3651  0.1603
91812W        W34828  12.416   5.967   3.949 -0.3591  0.3225  0.1181
91813W        W34829   3.354  15.385   2.723 -0.3204 -0.0730 -0.3851
91814W        W34830  14.773  15.411   0.940  0.2145 -0.0416 -0.2471
91815W        W34831   3.609  16.294   4.007 -0.0782  0.0043 -0.0534
91816W        W34832   4.512  12.687   9.548  0.3677  0.2201 -0.2452
91817W        W34833  18.185  26.194   6.953 -0.0248 -0.2317  0.2127
91818W        W34834  27.019   9.911   0.453  0.0828  0.1621 -0.0294
91819W        W34835   8.740  25.024  27.994 -0.0661 -0.0469 -0.0196
91820W        W34836  13.849  25.704   6.802 -0.1358 -0.0478  0.1241
91821W        W34837  13.682   7.003  24.253  0.0546 -0.0531 -0.2047
91822W        W34838   5.900   5.798  28.162  0.0065 -0.2514  0.0824
91823W        W34839  32.987  13.163   2.000  0.2116 -0.0847 -0.0534
91824W        W34840  27.453  25.902   1.751  0.1851 -0.0438 -0.2508
91825W        W34841   6.776  16.566  24.689 -0.2082  0.4468  0.1732
91826W        W34842  14.350  26.561   3.160  0.2031  0.0994 -0.1509
91827W        W34843   1.436  23.070   8.596 -0.3712 -0.1384  0.1753
91828W        W34844   2.582  20.148   3.239  0.0142 -0.3029  0.4587
91829W        W34845   0.093  25.190  22.825 -0.1384  0.0956 -0.0409
91830W        W34846  22.596  18.134  26.955 -0.0636 -0.2316 -0.0266
91831W        W34847  14.557  16.570   3.408 -0.0128 -0.1514  0.0441
91832W        W34848  12.989  18.273   1.821  0.1306  0.1935 -0.0228
91833W        W34849  30.027   6.379   3.272 -0.0353  0.1205 -0.1163
91834W        W34850   5.026  30.815  14.220  0.3923  0.4743  0.1235
91835W        W34851  11.901  14.175  27.306  0.0244 -0.2825  0.2687
91836W        W34852  19.911   9.344   4.985 -0.1289 -0.1228 -0.3825
91837W        W34853   6.448  24.225   8.487  0.3238 -0.0635  0.1248
91838W        W34854  25.692  20.705  28.543 -0.3098  0.2141 -0.3138
91839W        W34855  28.059  34.095   6.758  0.0580 -0.2476 -0.1293
91840W        W34856  10.036   2.924   9.325 -0.2710  0.0908 -0.0646
91841W        W34857  23.011  20.731   2.722 -0.1378  0.3141  0.3735
91842W        W34858  32.888   8.967   3.787  0.2452 -0.0236  0.1453
91843W        W34859   4.206  24.359   2.170  0.0475 -0.2020 -0.1345
91844W        W34860   5.211  24.942  27.981  0.1497  0.0494  0.1165
91845W        W34861   7.499  24.862   0.809 -0.1001 -0.2739 -0.1221
91846W        W34862  25.340  27.369   4.773 -0.0380  0.3242  0.2458
91847W        W34863   8.123  25.914  24.091  0.1307 -0.5312  0.1367
91848W        W34864   8.737   6.559   5.996  0.1754 -0.0222 -0.3654
91849W        W34865   9.550   7.163  15.454  0.2490  0.3672 -0.0455
91850W        W34866   1.963  29.637  10.464 -0.4025  0.1065  0.0157
91851W        W34867  10.116  18.846   4.424 -0.0426 -0.0047 -0.3666
91852W        W34868  22.611  24.146  24.120  0.0851 -0.0461 -0.0552
91853W        W34869  24.926  18.470   7.502  0.2682 -0.0942 -0.0185
91854W        W34870  16.537  18.242  26.776 -0.1324  0.2058 -0.0078
91855W        W34871   1.613   5.488   5.669  0.0319  0.1037 -0.0027
91856W        W34872   1.983  18.720   3.447  0.0152  0.0902 -0.1889
91857W        W34873  27.150  21.426   3.219  0.1344 -0.0116  0.4460
91858W        W34874  20.260  34.503  24.212  0.1424  0.0940 -0.0228
91859W        W34875  29.210   6.434  23.084 -0.0820 -0.2460  0.0267
91860W        W34876   7.217  10.587   7.969 -0.2376  0.2662  0.1125
91861W        W34877  20.115  15.637   4.692 -0.2848  0.3512  0.1898
91862W        W34878   7.698  15.758  20.377  0.1080 -0.0599 -0.0592
91863W        W34879  14.720   3.688   4.111 -0.1275  0.1447  0.4348
91864W        W34880   6.352  10.826  15.718 -0.0660 -0.0675 -0.1363
91865W        W34881  34.556   2.014   4.316  0.0572  0.2382 -0.2367
91866W        W34882  23.091  19.073  19.625  0.0563  0.1856  0.1327
91867W        W34883  13.255  19.147  21.897  0.1460  0.2489  0.0320
91868W        W34884  21.468   5.001  20.301 -0.1438  0.0663  0.1373
91869W        W34885   8.140  13.462   8.461  0.1627  0.2085  0.0864
91870W        W34886  17.663   3.472  27.875  0.1435 -0.1095  0.2221
91871W        W34887  10.537  25.150   4.950 -0.1270 -0.0065  0.0212
91872W        W34888  14.196   3.335  26.323 -0.2580  0.1503  0.0199
91873W        W34889  15.123  25.764  26.904 -0.0545  0.1101  0.0203
91874W        W34890  13.930  23.385  26.123  0.1243 -0.1983  0.2840
91875W        W34891  20.963  25.797  23.596  0.1567  0.0700  0.0373
91876W        W34892  19.639  13.114   0.210 -0.0462 -0.0613  0.2463
91877W        W34893   2.267   1.240  29.034 -0.0284 -0.0868 -0.1421
91878W        W34894   7.789   9.996   7.051 -0.5238  0.4285  0.2293
91879W        W34895   4.794  13.858  23.772  0.2302  0.1241  0.0007
91880W        W34896   3.488  11.728   2.969 -0.0754 -0.4577  0.1962
91881W        W34897   7.087   9.122   3.422  0.0041 -0.0964  0.0752
91882W        W34898  11.971  31.905   4.766 -0.2045  0.1027  0.2998
91883W        W34899  16.096  34.677   6.063 -0.0065 -0.1832  0.0075
91884W        W34900  10.222  15.933   0.785  0.2323 -0.3422  0.2152
91885W        W34901  12.344  24.768  22.594  0.2563 -0.1287  0.0479
91886W        W34902  18.986  20.022   3.809  0.1563 -0.0511  0.3298
91887W        W34903  26.039  19.435  25.916 -0.2707  0.0063  0.0297
91888W        W34904  18.245   5.101   2.774  0.3114 -0.0217  0.2692
91889W        W34905   5.050  15.098   2.546 -0.4090  0.0168 -0.0803
91890W        W34906   9.134  12.495   8.709  0.3435 -0.0339  0.2806
91891W        W34907   3.446  22.611  27.816  0.2267  0.1932 -0.2761
91892W        W34908  13.614  27.243  23.209  0.0915 -0.2881  0.0440
91893W        W34909   3.901   9.965   4.358  0.1432 -0.0792 -0.1645
91894W        W34910  10.082  14.735  13.900 -0.1117 -0.2709  0.0396
91895W        W34911   1.750   4.393   9.843 -0.0905 -0.2574 -0.2465
91896W        W34912  21.660  15.801   4.545 -0.2902  0.0442 -0.3159
91897W        W34913  17.572  19.638   4.029  0.0499 -0.2003  0.1514
91898W        W34914  25.121  14.785   5.682 -0.1889  0.1241  0.1292
91899W        W34915  21.002  14.999   1.009  0.2349 -0.0756  0.1911
91900W        W34916  11.787  30.589  25.643 -0.1963  0.0078 -0.1863
91901W        W34917  16.706   4.859  26.338  0.2097  0.2774 -0.1447
91902W        W34918   5.269  14.172   1.829 -0.2257  0.0587 -0.0061
91903W        W34919  11.561   1.367   7.506 -0.0392  0.0152  0.0061
91904W        W34920  11.309  29.622   7.379  0.0991  0.2968  0.0314
91905W        W34921  26.611  27.797   5.729 -0.1759  0.1217  0.1009
91906W        W34922  20.441  28.556   2.596  0.0957  0.1534  0.0258
91907W        W34923  14.172   8.943   9.126  0.3637 -0.1428  0.0562
91908W        W34924  22.936  22.861   2.715  0.3240  0.1124  0.2558
91909W        W34925  22.656  13.914   8.515  0.2576  0.1554  0.0727
91910W        W34926   8.234  23.784   9.311 -0.2434 -0.0546  0.3110
91911W        W34927  16.437  19.465   0.918  0.2225  0.0198 -0.0690
91912W        W34928   8.104   8.633   8.064  0.0298 -0.0958 -0.0709
91913W        W34929  18.936  13.159   5.919  0.2481  0.0193 -0.1545
91914W        W34930  11.889   3.015   8.015  0.0216  0.0443 -0.1052
91915W        W34931  27.158  32.559   1.559 -0.0362  0.2120 -0.2781
91916W        W34932  23.741  13.815   4.126 -0.2488  0.1536  0.1635
91917W        W34933  18.504  26.216  14.526 -0.1294  0.0803  0.0082
91918W        W34934   1.967  20.141   7.329  0.0625  0.1328 -0.0978
91919W        W34935  11.825  30.414   8.670  0.1562  0.3530 -0.0374
91920W        W34936   3.270  19.864   5.902  0.1889  0.0473 -0.2065
91921W        W34937  16.309   4.179  22.130  0.1052 -0.2719  0.0471
91922W        W34938  33.379  31.190   7.309 -0.1453  0.0559  0.0969
91923W        W34939  13.327  13.950   8.561 -0.1054 -0.0526  0.3165
91924W        W34940  24.077  18.366   1.997  0.1851  0.0275  0.2118
91925W        W34941   3.236  24.654  20.103 -0.2355 -0.3199  0.2161
91926W        W34942  13.733  19.576   3.459  0.3000 -0.0881 -0.0615
91927W        W34943   8.459  12.519  23.397  0.0877  0.0214 -0.0025
91928W        W34944   6.487  26.525   7.870  0.4235  0.1269  0.3185
91929W        W34945  32.242  19.552   4.448  0.1522 -0.2594  0.0911
91930W        W34946   0.491  24.635   0.663 -0.2535  0.3128  0.3858
91931W        W34947  18.057  19.162   3.101 -0.0780  0.2780 -0.1340
91932W        W34948  18.719  23.603  23.718 -0.2302  0.0740 -0.0797
91933W        W34949  11.176  31.099   6.858  0.1458 -0.1051 -0.1420
91934W        W34950  10.253  18.083   0.223  0.4057  0.0637 -0.1069
91935W        W34951  20.208  20.240   1.593 -0.0415  0.0409 -0.4203
91936W        W34952  16.664  12.647   7.483  0.0643  0.0849 -0.1014
91937W        W34953  19.740  29.651  10.446  0.2675 -0.0055 -0.0709
91938W        W34954   5.082  32.027  16.342 -0.1383 -0.1867 -0.3770
91939W        W34955   3.820  10.778   2.152  0.1465 -0.1676  0.0740
91940W        W34956  31.049   9.950  21.203  0.2502  0.1509 -0.2633
91941W        W34957   5.026  22.435   6.369  0.3502  0.0693 -0.0229
91942W        W34958  10.901  20.686   3.023 -0.2041  0.0770  0.1047
91943W        W34959  12.102  18.955  29.203 -0.1092  0.0111  0.0884
91944W        W34960  24.595  20.723   3.457 -0.1611 -0.1733  0.1298
91945W        W34961  13.343  16.071   0.128  0.3289 -0.1070 -0.4226
91946W        W34962   5.973  21.308   5.603  0.1173  0.0466  0.1479
91947W        W34963  16.122  18.348  21.288 -0.0725  0.0100  0.3025
91948W        W34964  14.616  11.882   8.099 -0.1496 -0.0590 -0.0011
91949W        W34965  22.412   6.852  27.158 -0.3375 -0.0713  0.1462
91950W        W34966  24.681  28.558  10.090  0.3816 -0.1982  0.2070
91951W        W34967  15.549  14.534  27.935  0.2528  0.1876 -0.1330
91952W        W34968  32.833   6.686   5.026  0.0566  0.1209 -0.1881
91953W        W34969  19.007   8.542   3.299  0.0201 -0.0674 -0.0042
91954W        W34970  18.712  13.333   7.723 -0.2165  0.3492  0.1131
91955W        W34971  24.464  17.950   1.694  0.1537  0.3867 -0.2889
91956W        W34972  28.759  17.404   9.867 -0.2458 -0.2274  0.0387
91957W        W34973  21.687  25.395   3.007 -0.2467  0.0131 -0.2708
91958W        W34974  13.189  18.413   4.814  0.2018  0.0118 -0.0664
91959W        W34975   2.817   3.924   7.595 -0.1407 -0.2233 -0.0693
91960W        W34976  13.922  13.113   0.155  0.0750  0.2150 -0.0398
91961W        W34977   5.505  15.615   7.197 -0.0260  0.0697  0.1791
91962W        W34978  15.557  17.726  23.324  0.0722 -0.0799  0.1441
91963W        W34979  11.605  13.602  19.178  0.0731 -0.1980 -0.0135
91964W        W34980  17.061  16.400   5.767  0.2079  0.0337 -0.1614
91965W        W34981  26.899  12.119  23.345  0.1846  0.1475 -0.1242
91966W        W34982   3.460  10.427  20.609 -0.3482  0.2129  0.2230
91967W        W34983  30.563  27.866  22.657 -0.0598 -0.1319  0.0191
91968W        W34984  17.291  13.717  25.251 -0.3733  0.1672 -0.1284
91969W        W34985  25.556   6.491  28.853 -0.1165 -0.0046 -0.1109
91970W        W34986  27.051  22.360   9.712  0.2372  0.0683  0.0348
91971W        W34987  34.118  11.336   7.049  0.2865  0.0754  0.0072
91972W        W34988  19.034  13.154   7.402  0.2857  0.1089 -0.1203
91973W        W34989   7.798  18.426  20.358 -0.0768  0.2832  0.2617
91974W        W34990  13.779   7.162   6.564 -0.3921  0.0917 -0.1636
91975W        W34991  24.416  30.322   3.726  0.5776  0.1641  0.1360
91976W        W34992  17.947  24.162  27.460 -0.3818 -0.0323 -0.1147
91977W        W34993  22.661  17.219  24.195 -0.0964  0.2889 -0.1251
91978W        W34994  15.489  24.981   7.727  0.3596  0.2256  0.2191
91979W        W34995   7.524   6.928   5.292 -0.0303  0.1363  0.0560
91980W        W34996   6.054  20.363  23.643  0.1996  0.0387  0.0073
91981W        W34997  24.856  24.654  23.757  0.0513  0.1108  0.2438
91982W        W34998   8.662  15.541   4.498 -0.1128  0.1817 -0.0542
91983W        W34999  10.277  11.173   3.949 -0.0393 -0.2538 -0.1337
91984W        W35000  13.707  17.366  25.430 -0.0954 -0.2824 -0.0961
91985W        W35001  28.005  10.084   7.329 -0.0941  0.2301  0.1570
91986W        W35002  28.657  22.418  19.072 -0.0029 -0.0454 -0.2048
91987W        W35003  13.013  11.413   0.818 -0.0885  0.0185 -0.5426
91988W        W35004   5.318  24.539   9.733 -0.4801  0.1314  0.2248
91989W        W35005  16.973   6.243  23.338 -0.0706 -0.2049 -0.1483
91990W        W35006  17.015  13.577   7.102 -0.0510 -0.0822 -0.1228
91991W        W35007   9.383   7.072   8.354 -0.0096 -0.2306 -0.1694
91992W        W35008  25.148  31.149  12.078  0.0687  0.1851 -0.0331
91993W        W35009  11.636  22.156  25.132  0.2427  0.0838  0.0003
91994W        W35010   8.816   7.454   2.816 -0.0249  0.2764  0.2727
91995W        W35011   9.625  11.073  28.535 -0.1224  0.1511 -0.0920
91996W        W35012  12.708   4.677   7.102 -0.1999 -0.3459 -0.0638
91997W        W35013   6.863  11.302  22.759 -0.3617  0.0112 -0.0939
91998W        W35014  13.005  24.005   5.975  0.0250  0.1511  0.0885
91999W        W35015   9.657  22.212  18.923  0.0355 -0.3851 -0.0412
92000W        W35016   8.976  11.064   2.762 -0.2487  0.0409 -0.1780
92001W        W35017  26.932  14.105   7.214 -0.2122  0.1704  0.3133
92002W        W35018  21.087  17.917   0.253 -0.1456 -0.1044 -0.0674
92003W        W35019   3.879  20.470   6.802  0.3905  0.1921  0.0247
92004W        W35020   4.768   4.257  27.202 -0.0814  0.4275 -0.1314
92005W        W35021  13.993  14.440  28.591 -0.1371 -0.1591 -0.0424
92006W        W35022  27.046  22.653  25.160  0.1999 -0.1877  0.0869
92007W        W35023  34.627  27.227   3.897  0.0212 -0.1693  0.1048
92008W        W35024  32.830   8.792  22.505  0.1040 -0.0830  0.2077
92009W        W35025  14.829  17.416  26.001 -0.0832 -0.0791  0.2851
92010W        W35026   8.491   5.860   4.237  0.1072 -0.1322 -0.0480
92011W        W35027   2.075   2.331   1.717  0.0757  0.0556  0.1531
92012W        W35028   8.349   9.048  25.790 -0.2595  0.1689  0.0511
92013W        W35029  14.909  31.863   7.850 -0.1317  0.2301  0.1710
92014W        W35030   4.804  13.356   6.585  0.4412 -0.2227  0.4457
92015W        W35031  25.414  17.411  19.438  0.3820  0.0617  0.1872
92016W        W35032   4.755  11.482  27.175  0.1981  0.0144  0.1139
92017W        W35033  20.078  32.291  24.002  0.1462  0.2067 -0.2140
92018W        W35034   7.946  30.867   2.733  0.1388 -0.1647 -0.2452
92019W        W35035  19.558  12.893   0.833  0.0313  0.0913  0.2011
92020W        W35036  14.125  11.075   7.284  0.0550  0.0066  0.0746
92021W        W35037  21.317  23.066   3.478 -0.0967  0.0971 -0.2068
92022W        W35038   7.176  27.691   5.792 -0.0405 -0.4627  0.0435
92023W        W35039  10.844  20.747  27.253 -0.1351  0.0317 -0.0467
92024W        W35040  15.670  19.440  23.450  0.0727  0.1433  0.2230
92025W        W35041  16.651   9.731  17.472 -0.0074  0.0411  0.2871
92026W        W35042  17.313  33.028  10.763  0.2385 -0.1779  0.0481
92027W        W35043  26.826  27.777  17.563 -0.0787 -0.1168 -0.0579
92028W        W35044  16.034  19.717   4.861  0.3051 -0.2505 -0.0891
92029W        W35045  33.238  13.355  24.619 -0.1185  0.3867  0.1375
92030W        W35046  12.868   0.231   4.533  0.0112 -0.2988  0.0853
92031W        W35047  21.050  17.146   1.966  0.3789  0.0722  0.0124
92032W        W35048  30.408  21.564   4.219 -0.0267  0.1097  0.2142
92033W        W35049  16.961  24.352   0.591  0.2036  0.0118 -0.0049
92034W        W35050   8.358  22.194  16.564 -0.0404 -0.2022  0.1601
92035W        W35051   9.320  33.513  27.304  0.0924 -0.2969  0.6644
92036W        W35052   4.988  12.812  16.939  0.2493  0.2323  0.1558
92037W        W35053  25.361  27.215  11.937 -0.3136 -0.0394 -0.2519
92038W        W35054   3.212   7.277  18.758 -0.0686  0.3183  0.2491
92039W        W35055  17.297  18.126   3.847  0.1691 -0.2133 -0.2849
92040W        W35056   8.935  15.106  26.404  0.3252  0.1358  0.0834
92041W        W35057  12.719  14.818   0.034  0.0749 -0.0770 -0.1597
92042W        W35058  17.902  13.423   1.985  0.2651  0.0166  0.1993
92043W        W35059  30.686  13.889   6.016 -0.1683 -0.0557 -0.0559
92044W        W35060   3.807  29.672  27.922 -0.2536 -0.1373 -0.1968
92045W        W35061   6.520   1.257  22.582  0.0945  0.1652  0.0713
92046W        W35062   6.685  22.870   0.778  0.0806 -0.1378 -0.4490
92047W        W35063   5.733  24.244   1.812  0.2243 -0.1669  0.1995
92048W        W35064   2.565  13.215   4.333  0.1801  0.2288  0.1017
92049W        W35065  27.707   7.737   5.074 -0.2163 -0.1822  0.1780
92050W        W35066  22.102  16.729   8.457 -0.0768  0.3857 -0.2876
92051W        W35067  22.434  17.294   7.436 -0.2085  0.0224  0.2516
92052W        W35068  33.637  27.595  16.919 -0.2326  0.0393 -0.0887
92053W        W35069  18.148   3.334   7.607  0.4126 -0.0527 -0.0711
92054W        W35070  15.726  11.231  24.847 -0.3612  0.0783 -0.0610
92055W        W35071  16.775   3.386   7.015  0.2247  0.0822  0.1994
92056W        W35072   6.500  21.865  26.350  0.0140 -0.4297 -0.0033
92057W        W35073  29.475   6.295   8.142 -0.0125  0.0404 -0.2096
92058W        W35074  24.006  26.713  15.130  0.0285  0.1704  0.3086
92059W        W35075  22.479  10.147   2.171 -0.0384 -0.0656  0.0964
92060W        W35076  20.623  15.677   4.855 -0.1089 -0.0264 -0.3805
92061W        W35077  15.203  26.593   6.441  0.0550 -0.0802 -0.0924
92062W        W35078  16.095  32.192   7.822 -0.1229 -0.0950  0.0832
92063W        W35079  28.545  30.491  15.211 -0.2406  0.0135  0.3117
92064W        W35080  29.813  26.739  21.118 -0.1418 -0.0106  0.1080
92065W        W35081  26.705  26.746   9.260 -0.0075 -0.0354  0.0304
92066W        W35082  24.146  24.778  10.392  0.0501  0.2809 -0.0679
92067W        W35083   1.350  22.491   7.971 -0.2387  0.2172 -0.3193
92068W        W35084  22.569  23.845  15.865  0.0750  0.1134 -0.0345
92069W        W35085  12.489  26.682  25.002  0.0688  0.0926  0.0725
92070W        W35086   9.034   9.314  20.702 -0.0435 -0.0472 -0.1347
92071W        W35087  16.123  23.021   8.941 -0.1317  0.0312 -0.0446
92072W        W35088  23.271  29.720  25.243 -0.1406  0.0127 -0.0807
92073W        W35089   3.288   5.809  22.552  0.1827 -0.3310  0.3129
92074W        W35090  20.371   5.727   1.274  0.0250 -0.2164  0.2045
92075W        W35091  21.463  30.509   9.955  0.5005  0.1462 -0.2113
92076W        W35092  18.272  10.184   4.535  0.0697 -0.1309 -0.1054
92077W        W35093   9.185  22.268   4.812  0.1874  0.4089  0.0818
92078W        W35094  15.370  16.427  27.989  0.2637  0.1319 -0.0267
92079W        W35095  24.600   9.210   4.165 -0.2103 -0.0103  0.3245
92080W        W35096  12.869  18.220   4.368 -0.2448  0.1626  0.3031
92081W        W35097  19.295  11.869   6.518 -0.0434  0.1718 -0.1614
92082W        W35098  15.524  29.476  29.035  0.0933  0.0014  0.0127
92083W        W35099  14.622  22.816   8.452 -0.1598  0.2336 -0.4062
92084W        W35100  13.659  11.445  25.816  0.4030 -0.1952 -0.1932
92085W        W35101  20.370   7.593   0.056 -0.1324  0.0980 -0.2502
92086W        W35102   9.487  10.485  24.203  0.1714  0.1089 -0.0146
92087W        W35103  24.090  11.839   8.478  0.0563  0.0470 -0.2999
92088W        W35104   5.524  21.122   8.219 -0.1581  0.4551  0.0470
92089W        W35105  13.710  12.508   7.188 -0.3214  0.0699  0.1914
92090W        W35106   1.291   4.188  27.824 -0.3626  0.0267  0.1246
92091W        W35107   4.116  11.831   6.749  0.0261  0.0607  0.2434
92092W        W35108   4.471  34.474   4.064  0.1024 -0.1167 -0.2450
92093W        W35109   0.922  15.774   9.597 -0.1117  0.0059 -0.1786
92094W        W35110  25.666   6.309  28.410  0.0582  0.1977 -0.1827
92095W        W35111  17.225   2.782   0.131 -0.0127 -0.0245 -0.0351
92096W        W35112   7.434   6.782   8.351  0.1591 -0.0905  0.1074
92097W        W35113  10.098  12.807  24.330 -0.0292  0.1364 -0.2120
92098W        W35114  21.567  30.924  24.722  0.0594  0.1158 -0.2182
92099W        W35115  10.586  12.411   7.551  0.1494  0.1131  0.0797
92100W        W35116  20.432  14.934  29.211  0.1082 -0.0268 -0.1796
92101W        W35117  15.949  20.167   3.807  0.0880 -0.3650 -0.6250
92102W        W35118   2.890  34.612   7.615 -0.2592  0.0279 -0.1346
92103W        W35119  16.724  31.465   9.983 -0.1176  0.1419 -0.2891
92104W        W35120  16.666  23.032   0.620  0.0067  0.1065 -0.5712
92105W        W35121   9.495  14.611   0.687 -0.0179  0.0907  0.0245
92106W        W35122  16.137  20.410  13.267 -0.0976  0.1678  0.1125
92107W        W35123   9.465  29.791   8.466 -0.1559  0.0974  0.0944
92108W        W35124  26.679   6.959   9.795  0.3894 -0.1982 -0.2558
92109W        W35125   0.706  17.865   9.104  0.1469 -0.0571  0.1070
92110W        W35126   1.967  13.733   3.551 -0.1326 -0.2473 -0.2790
92111W        W35127  10.961  21.170  19.756  0.0546  0.0546  0.0487
92112W        W35128  12.353  22.164  19.719 -0.1082 -0.2981 -0.1641
92113W        W35129  13.073  26.759   9.361 -0.2322 -0.1154 -0.1549
92114W        W35130  27.950   9.183  11.044  0.0050  0.3298 -0.1508
92115W        W35131   5.516   5.307   0.187 -0.0277 -0.1271 -0.1202
92116W        W35132  34.447   9.326  23.829 -0.2019  0.1474  0.3549
92117W        W35133  26.131   0.868   1.274  0.2968 -0.1063  0.1066
92118W        W35134  28.300  28.466  26.998 -0.0776 -0.2616 -0.1852
92119W        W35135   4.802  17.517  25.155  0.1275  0.0973 -0.3042
92120W        W35136  19.676  34.339   6.221  0.1363  0.2560 -0.0946
92121W        W35137   8.210  33.755   8.901 -0.3560  0.1372 -0.0278
92122W        W35138   7.501  23.335  21.781 -0.0948  0.3900 -0.2071
92123W        W35139  15.447   4.931   7.487 -0.1177 -0.0529  0.0943
92124W        W35140  18.485  11.658  26.931  0.1641  0.0764 -0.0417
92125W        W35141   1.934  24.748  10.038  0.1521  0.0818  0.4384
92126W        W35142  23.341  22.928   5.221  0.1808  0.2573  0.1541
92127W        W35143   6.578   4.618   1.688 -0.2727 -0.1042  0.2413
92128W        W35144  15.292  23.941  26.331  0.3118  0.3068 -0.2186
92129W        W35145  16.063  13.951  21.985  0.3401 -0.1839 -0.0430
92130W        W35146  16.541   1.709   6.211  0.1072 -0.0068  0.1406
92131W        W35147  17.777  17.257   0.694  0.0623 -0.0340 -0.0869
92132W        W35148   1.640  20.031   9.748 -0.0066  0.0498  0.1100
92133W        W35149   7.453   8.859   8.580  0.0652  0.1593  0.1439
92134W        W35150   5.288  23.083  27.626 -0.0872  0.3826  0.0130
92135W        W35151  13.591  22.137   6.485  0.1232  0.0516 -0.0697
92136W        W35152   7.905  26.322   3.592 -0.3480  0.0453  0.1998
92137W        W35153  12.258  14.038   8.690 -0.1818 -0.2344 -0.2034
92138W        W35154  16.437  17.709   5.967  0.0430 -0.0145 -0.0135
92139W        W35155   2.719  10.927  26.617  0.0801 -0.1345  0.0678
92140W        W35156   7.308  20.758   0.070 -0.1586 -0.0452 -0.2218
92141W        W35157  27.785  15.437  27.814  0.1807  0.1363 -0.0794
92142W        W35158   0.083  30.081   4.710  0.1897  0.2736 -0.3631
92143W        W35159  24.230   7.800   6.432  0.4389  0.3335  0.1516
92144W        W35160  21.729  23.936   0.106  0.0876 -0.2019 -0.0111
92145W        W35161  31.228  12.494   0.244  0.1030  0.0390 -0.0525
92146W        W35162  25.588   2.355   6.283  0.1145 -0.2683  0.1930
92147W        W35163  22.390   3.518  22.162 -0.0259  0.0551  0.1622
92148W        W35164  17.666  31.988  28.501  0.0050 -0.3058 -0.0343
92149W        W35165  26.027   6.604   7.324 -0.3850  0.2426 -0.1065
92150W        W35166   8.680   9.807   2.675  0.0036  0.1361 -0.0016
92151W        W35167  11.501  13.850   6.243  0.1344  0.2302  0.1783
92152W        W35168  12.009  22.283  18.840 -0.0305 -0.0071  0.1981
92153W        W35169   4.838  11.172   5.890 -0.0794  0.0749  0.2195
92154W        W35170  19.985  10.167   3.095  0.0216  0.0207 -0.2325
92155W        W35171  19.780  26.625   6.173 -0.1593 -0.0708  0.3096
92156W        W35172  23.368  16.866   4.429 -0.0770  0.1496 -0.0846
92157W        W35173  20.200  10.450  21.966  0.4169  0.0575 -0.0398
92158W        W35174  28.314   8.409   6.949 -0.0215  0.0025  0.0436
92159W        W35175  14.334  22.313   7.188  0.0205 -0.4719  0.1130
92160W        W35176   7.062  32.754   2.101  0.2643  0.1683 -0.0880
92161W        W35177  21.099  30.317   1.724 -0.2531  0.3614 -0.0350
92162W        W35178  26.431  14.433   2.543  0.4650  0.1502 -0.1540
92163W        W35179  16.578  21.295  27.178 -0.3820  0.1945  0.1556
92164W        W35180   4.301   1.788  27.671  0.1628 -0.1150 -0.0559
92165W        W35181  16.993  17.288   4.481 -0.2772 -0.1258  0.0875
92166W        W35182  13.586  21.449  18.713 -0.0124  0.2717  0.1889
92167W        W35183  18.020   1.385   8.694  0.1734 -0.0380 -0.3714
92168W        W35184  33.356  17.678   1.047 -0.0606  0.1300  0.2912
92169W        W35185  28.155   2.710   6.431 -0.0311  0.0000  0.0767
92170W        W35186  12.108  16.433   6.248 -0.0451 -0.0956  0.2082
92171W        W35187  23.064   6.156  19.701 -0.0927  0.0753  0.0266
92172W        W35188  15.943   0.181   8.966 -0.1681  0.0473  0.1005
92173W        W35189  14.576   8.098  24.593 -0.2786 -0.0701  0.0453
92174W        W35190  33.841  24.752   9.974 -0.3914  0.2334  0.4757
92175W        W35191  14.783  29.176   2.821 -0.1981 -0.1768  0.1342
92176W        W35192  28.281  16.178   8.456  0.0020 -0.1035  0.0174
92177W        W35193  20.932  33.960   9.126 -0.0933 -0.1134 -0.2515
92178W        W35194  18.979   0.052   5.019  0.1272 -0.0770  0.0246
92179W        W35195   6.903  22.214  25.392  0.0396  0.1000 -0.1160
92180W        W35196  26.063  33.612   7.253 -0.1932  0.2137 -0.1964
92181W        W35197  13.648  13.999   5.057  0.1065  0.2144 -0.0017
92182W        W35198  30.100  24.783  26.434 -0.0309 -0.3021 -0.0567
92183W        W35199  27.537   7.994   7.815 -0.1129 -0.0823 -0.3820
92184W        W35200  18.207  13.417   6.018  0.0324  0.0509 -0.1232
92185W        W35201   1.473  21.590  27.650 -0.0066 -0.1097 -0.3205
92186W        W35202  12.782  28.582   9.282  0.1573 -0.1015 -0.0515
92187W        W35203  22.166   2.758   7.422  0.0341 -0.1624 -0.0738
92188W        W35204  22.625  33.495   0.741  0.2450  0.0786 -0.1169
92189W        W35205  10.059   2.165  25.126  0.1048 -0.0409 -0.3282
92190W        W35206  17.505   7.564   4.504 -0.1995  0.0845 -0.2153
92191W        W35207   2.542   1.861  23.657 -0.0999  0.1107 -0.3174
92192W        W35208  24.623  16.519   3.172  0.1519  0.0846 -0.1052
92193W        W35209  18.343  12.450   7.313 -0.0994  0.0882 -0.1070
92194W        W35210  34.636  16.805  24.475 -0.0890 -0.0533 -0.6290
92195W        W35211   6.888  24.630   2.931 -0.1000  0.0490  0.2493
92196W        W35212   8.078  10.843   5.617  0.2260  0.2453 -0.2681
92197W        W35213  17.729  32.105  11.011 -0.0621  0.0816  0.0035
92198W        W35214  16.960   3.529   5.977  0.1547 -0.1242  0.0533
92199W        W35215  23.494   6.125   6.463 -0.1602 -0.3064  0.1100
92200W        W35216   8.696  20.515   8.513 -0.0223  0.2556  0.2786
92201W        W35217   7.998   9.543  22.920 -0.0209 -0.3300 -0.0437
92202W        W35218  13.846  20.068  22.175  0.0261 -0.1154  0.0788
92203W        W35219  22.271  10.796  23.827 -0.2911  0.0297  0.3036
92204W        W35220  17.397  19.971   8.736 -0.0474  0.0277  0.1633
92205W        W35221  16.258  12.274  25.752 -0.2029  0.3082  0.2557
92206W        W35222  13.905  15.131   5.621 -0.1412 -0.1990  0.0708
92207W        W35223   4.522  30.903   8.380 -0.0800  0.0151 -0.4812
92208W        W35224  15.004  17.379   1.893  0.1395  0.2306 -0.1359
92209W        W35225  33.727  26.223   8.771 -0.0424  0.1887 -0.0054
92210W        W35226  13.745  16.566   6.794 -0.0496 -0.0841 -0.3392
92211W        W35227  11.019   6.596   0.912  0.0693  0.3532  0.0328
92212W        W35228  10.571  27.304   3.186  0.0085 -0.2883 -0.3235
92213W        W35229  20.924  16.331   2.113 -0.0075  0.2482 -0.1361
92214W        W35230  19.290  20.745   0.289 -0.0227 -0.2916 -0.1578
92215W        W35231  13.697   8.628   4.851 -0.1069 -0.1682 -0.2643
92216W        W35232   2.319  13.574   8.962  0.1546  0.0170  0.0558
92217W        W35233  25.873  21.687   9.781  0.0933  0.0547  0.0821
92218W        W35234  15.121  21.521   6.860  0.2385 -0.0776 -0.2112
92219W        W35235   5.804  12.081  24.323 -0.1590 -0.1522  0.0107
92220W        W35236   8.223   9.754  29.243 -0.1675  0.1050  0.0147
92221W        W35237  11.644  12.005  25.143  0.0991  0.1816  0.1108
92222W        W35238  13.222  19.106   8.353 -0.1562 -0.2721  0.0174
92223W        W35239  27.327  24.994  25.464 -0.1634  0.1840 -0.2806
92224W        W35240  18.362  22.174   3.664  0.0237  0.1278  0.0826
92225W        W35241  10.151  32.747   2.598  0.0676  0.3367 -0.0006
92226W        W35242  11.257  11.198   6.776 -0.3699  0.1828  0.2660
92227W        W35243  13.684  20.652   1.419  0.0956  0.0710  0.0865
92228W        W35244   8.526  20.562   1.754  0.1837  0.2751 -0.5033
92229W        W35245  12.936  17.784   2.849  0.3089  0.0862 -0.3385
92230W        W35246  17.307  12.780   2.449 -0.4857 -0.0324 -0.0770
92231W        W35247   9.640  25.590  28.041 -0.0289 -0.1766  0.2008
92232W        W35248  23.015  13.501   5.835 -0.5125  0.0941 -0.1207
92233W        W35249  21.471  18.434   3.746  0.0688 -0.1434 -0.1329
92234W        W35250  14.674   5.202   8.408  0.0067  0.0507  0.0779
92235W        W35251  16.743   8.320  28.088  0.2958 -0.2236 -0.2213
92236W        W35252  11.132  19.684  26.969  0.0644  0.1406  0.2354
92237W        W35253  29.581  22.411   0.514  0.0264  0.0736  0.2960
92238W        W35254  14.061  30.991   4.936 -0.0788  0.1185 -0.0659
92239W        W35255   8.030  33.983  26.247 -0.1394 -0.1151  0.1040
92240W        W35256  16.093  14.766   7.173  0.2241  0.0297 -0.0011
92241W        W35257  18.484  17.126   8.121  0.0050  0.2732  0.1411
92242W        W35258   1.766   9.957   8.907 -0.1331  0.2733  0.0072
92243W        W35259  31.468  14.078  27.050  0.0997 -0.1303  0.3269
92244W        W35260   1.222   3.312   7.271  0.2089  0.2419 -0.3189
92245W        W35261  21.581   4.782   2.858 -0.1556  0.1574 -0.2924
92246W        W35262  21.702  18.043  26.290 -0.0526  0.1987 -0.0104
92247W        W35263  27.623   3.287   3.488  0.2160 -0.4000  0.0695
92248W        W35264  16.300  28.985   6.633 -0.0518 -0.2985 -0.0137
92249W        W35265  16.264  17.014   0.659  0.1927 -0.1641 -0.2552
92250W        W35266  19.079  30.673   6.449  0.1061  0.2385 -0.0646
92251W        W35267  15.747  18.063  29.053  0.2355  0.1199 -0.1074
92252W        W35268  31.276  14.341  27.960  0.1593  0.1402 -0.1705
92253W        W35269   3.705  25.218  28.620 -0.1177 -0.1036  0.1253
92254W        W35270  23.906  16.136   2.843  0.2303  0.0091 -0.0836
92255W        W35271  34.252   3.759  17.731 -0.1918 -0.0246 -0.1812
92256W        W35272  15.719  18.625  18.918 -0.0648  0.1512  0.3070
92257W        W35273  31.320  19.610  24.116  0.0645  0.3061 -0.0414
92258W        W35274   9.793  20.610  14.887  0.2134  0.2130 -0.1906
92259W        W35275  13.417   0.395  10.758 -0.1617 -0.2259  0.0649
92260W        W35276  19.337  11.425   4.429  0.0490 -0.0697  0.0994
92261W        W35277  18.850   3.638  28.963  0.1257  0.0586  0.1218
92262W        W35278  20.981  13.708   1.626 -0.0395  0.0358  0.0852
92263W        W35279  29.206  15.940  17.056  0.2754  0.3988  0.1719
92264W        W35280   6.198   5.593   3.690  0.0629 -0.0760 -0.1161
92265W        W35281  19.264  16.404   5.549 -0.0711 -0.3382  0.2064
92266W        W35282  15.063  29.317   8.074  0.1785 -0.2579 -0.0925
92267W        W35283  23.824   4.350   4.706  0.1367  0.0199  0.2932
92268W        W35284   7.367  29.362   5.032 -0.0969 -0.3534  0.3407
92269W        W35285  17.320  16.009  21.726 -0.0196  0.0326  0.2861
92270W        W35286  13.230  18.934  23.340 -0.0966  0.1939  0.1205
92271W        W35287  13.218  11.280  19.141  0.3376 -0.0005 -0.1160
92272W        W35288   5.110  12.285   1.631  0.1872  0.3580 -0.1098
92273W        W35289  14.833   7.990  16.127 -0.0407 -0.1663 -0.0826
92274W        W35290   1.762  31.561  20.021 -0.0684 -0.0955  0.1214
92275W        W35291  15.399   0.951   1.649  0.2015  0.3763  0.2354
92276W        W35292   0.199  18.183  27.723 -0.0984 -0.1099  0.0410
92277W        W35293  18.867  25.078  28.447  0.0121  0.0536  0.1142
92278W        W35294  16.250  13.079   6.438 -0.1810  0.2327 -0.1058
92279W        W35295  22.501  18.744  28.054 -0.0223 -0.1448  0.0993
92280W        W35296  14.572  15.756   4.575 -0.3766  0.2724  0.1530
92281W        W35297  12.664  15.031   6.353 -0.3923  0.0559 -0.0108
92282W        W35298  13.747  16.086   4.749  0.0345  0.0097 -0.1681
92283W        W35299  16.446  11.390   5.176  0.0571  0.3150 -0.0554
92284W        W35300  10.779   9.406   9.279  0.4162  0.1220  0.0445
92285W        W35301  11.191  21.456   3.979 -0.2748 -0.2344 -0.4358
92286W        W35302   6.654  17.323  29.084  0.1129  0.1731 -0.0676
92287W        W35303   1.626  18.225   7.710  0.0066 -0.0407  0.3076
92288W        W35304  26.114  10.278   6.329  0.0302  0.0229 -0.1154
92289W        W35305   1.202  10.699  19.631 -0.3455  0.1253  0.0957
92290W        W35306  23.416  16.636  25.903  0.0979 -0.1711  0.2343
92291W        W35307   8.784  30.795   7.450 -0.0874 -0.1631  0.3432
92292W        W35308  29.442  25.294  20.766 -0.4119 -0.0578  0.1529
92293W        W35309  31.534  22.174   5.177  0.2174  0.3533  0.0340
92294W        W35310   5.119  14.649   8.357  0.0860  0.0682 -0.1111
92295W        W35311  11.903  15.696   3.253  0.0998  0.1944  0.1539
92296W        W35312  34.018  19.358   1.686 -0.0838  0.1415  0.1869
92297W        W35313   4.076  28.548  25.617  0.0022 -0.2587  0.1717
92298W        W35314  16.678  19.851  12.956 -0.0674  0.0676 -0.0923
92299W        W35315   8.476  21.725   8.021  0.0361  0.3309  0.2367
92300W        W35316  19.912  16.835   7.933  0.5675  0.0083  0.0003
92301W        W35317   2.575   2.095  19.032 -0.0346 -0.2891 -0.2721
92302W        W35318  10.809  26.565  28.282 -0.0445 -0.1176 -0.0053
92303W        W35319  26.608  14.181  20.497 -0.2022  0.1087  0.2221
92304W        W35320  34.605  33.869   2.642 -0.4195  0.3931  0.3032
92305W        W35321  19.418  15.081   7.991 -0.1283 -0.2584  0.0066
92306W        W35322  24.726   2.448   3.624 -0.0095 -0.0165  0.1666
92307W        W35323   1.798  23.270  16.576 -0.0341 -0.1534 -0.0639
92308W        W35324  18.294  16.418  19.324  0.0166  0.3604 -0.2491
92309W        W35325  11.246   0.784  10.091 -0.2191  0.2194  0.0079
92310W        W35326  20.158   7.034  27.547  0.1679 -0.0839 -0.0289
92311W        W35327  16.560  28.121   6.079 -0.3548 -0.2590  0.1730
92312W        W35328  31.898  20.793   6.469  0.0769  0.0118  0.2450
92313W        W35329   1.440  28.550   2.062  0.1983 -0.0697 -0.3101
92314W        W35330  14.568  15.605  20.947  0.0530 -0.2363  0.1375
92315W        W35331  15.841  24.169   9.119  0.2380  0.0197 -0.1518
92316W        W35332  11.632  32.836   4.309 -0.1537 -0.2686 -0.0176
92317W        W35333   1.241  33.791   1.199  0.2575  0.0725 -0.1982
92318W        W35334  17.028  18.042   2.196 -0.4379  0.0932 -0.1404
92319W        W35335  19.521  10.278   2.861  0.2697 -0.0290  0.0277
92320W        W35336  15.507  11.560   4.914  0.2369  0.0172 -0.0365
92321W        W35337   8.303  23.189   5.487 -0.1719  0.2354 -0.0177
92322W        W35338   9.935  14.720   4.547 -0.0360 -0.2962 -0.2505
92323W        W35339  13.323  20.674  20.529 -0.1226  0.0254 -0.0583
92324W        W35340  32.198  29.536   9.442 -0.0999  0.0593  0.3040
92325W        W35341  10.665  28.591   6.774 -0.1892  0.2192 -0.2973
92326W        W35342  25.184  29.544  22.311  0.1536  0.0486  0.2649
92327W        W35343  15.184  20.609   0.318  0.0907 -0.0269 -0.1934
92328W        W35344   8.960  22.722   2.079 -0.2995 -0.2834  0.3091
92329W        W35345  12.459  25.027   5.113  0.1302 -0.3368 -0.1838
92330W        W35346  18.585   3.451   8.915  0.3055 -0.0396 -0.2244
92331W        W35347  20.495  20.513   7.864  0.0366  0.2461  0.0184
92332W        W35348  13.503   8.182  27.915 -0.1640 -0.1965  0.0399
92333W        W35349   7.648  10.698   7.772  0.4059  0.0166 -0.2205
92334W        W35350  14.776  17.149   5.993 -0.2655  0.0177  0.2051
92335W        W35351  13.044  14.887   7.388  0.0049 -0.1856  0.0170
92336W        W35352  30.857  14.895   7.197  0.2037  0.0330  0.1567
92337W        W35353  26.724  25.176   8.227  0.1444 -0.1049  0.0706
92338W        W35354  14.878  18.322   8.394  0.0499  0.2434 -0.0955
92339W        W35355   8.944  13.124   0.446  0.4801  0.1388 -0.3887
92340W        W35356   6.288  20.708  23.951 -0.3066  0.0598  0.4109
92341W        W35357  24.217  14.553   2.816 -0.0051 -0.0388  0.2744
92342W        W35358   8.823   3.642   6.087  0.1770  0.4077  0.0117
92343W        W35359  15.697  22.702   1.577 -0.2058 -0.2092 -0.1350
92344W        W35360   7.355  21.734   8.242 -0.1897  0.2192  0.0427
92345W        W35361  19.873  12.791  14.742 -0.2405  0.1504  0.0784
92346W        W35362  15.637  10.561   3.982  0.1234 -0.0397  0.0065
92347W        W35363  22.034  23.231   4.927 -0.3497 -0.2024 -0.6988
92348W        W35364  17.950   8.179   9.712 -0.0404  0.1519 -0.0785
92349W        W35365   6.359  19.956  28.810  0.0894  0.1461  0.0860
92350W        W35366  17.198  22.893   4.264  0.1784 -0.1770  0.1977
92351W        W35367   6.350  11.313   8.361 -0.1298  0.2992 -0.0760
92352W        W35368   6.167  20.527   6.449  0.2227  0.0110 -0.1441
92353W        W35369  14.230   7.903  23.433 -0.0255 -0.0621 -0.2656
92354W        W35370   8.901  11.486   8.938  0.0215  0.2694  0.0089
92355W        W35371   5.850  18.056  23.045 -0.2870 -0.1372  0.2274
92356W        W35372  17.329   9.568   2.393 -0.0536 -0.0469  0.2366
92357W        W35373  19.625   5.547   7.194 -0.3588 -0.1553 -0.1290
92358W        W35374   1.628   4.025  26.265 -0.1654  0.0489 -0.3367
92359W        W35375   3.503  21.760   6.045 -0.3046  0.2577 -0.1049
92360W        W35376  31.684  27.065   8.222 -0.4294  0.1879  0.1937
92361W        W35377  19.572   4.421   0.717  0.2614  0.0211  0.0791
92362W        W35378  23.694   7.328   3.370  0.1514 -0.1802 -0.0120
92363W        W35379  11.485  19.512   1.843 -0.0658 -0.0549  0.3281
92364W        W35380  34.352  10.956  15.963 -0.0615  0.3478  0.0777
92365W        W35381   3.300  12.914   8.535 -0.0366 -0.3844  0.4513
92366W        W35382  22.088  22.072   8.238 -0.0245  0.0771  0.1966
92367W        W35383  21.847   8.740   0.670 -0.2661 -0.2929  0.1385
92368W        W35384   9.954   2.373   8.552 -0.0141 -0.1184  0.1025
92369W        W35385  21.624  21.049  27.300 -0.1059  0.1705 -0.0649
92370W        W35386   4.144   4.202   8.738 -0.3021 -0.0131 -0.0886
92371W        W35387   6.941  26.487  25.140  0.0981  0.2497 -0.1611
92372W        W35388   1.381  27.235   7.374 -0.0327 -0.0685 -0.0951
92373W        W35389  28.283  18.400  28.675 -0.3570 -0.4106 -0.1534
92374W        W35390  19.841  21.918   2.128 -0.1485  0.0414 -0.2865
92375W        W35391   3.646  15.767   6.410  0.0801 -0.2143 -0.0276
92376W        W35392  19.701  14.757   5.612 -0.0993  0.2215  0.0702
92377W        W35393  24.254  13.065   8.650  0.1599 -0.0446 -0.1356
92378W        W35394  16.368  24.040   5.428  0.0775  0.2406  0.0064
92379W        W35395   3.105   7.447   5.931  0.1527  0.1412 -0.1013
92380W        W35396  10.956  26.515   5.758  0.0060 -0.0900 -0.3477
92381W        W35397   5.715   8.861   3.695  0.1847 -0.0005 -0.2162
92382W        W35398  10.136  17.952   8.985  0.1411  0.0469  0.1580
92383W        W35399   3.527  15.730  17.580 -0.0157  0.3776  0.1548
92384W        W35400  25.840  34.494   4.875  0.2468  0.0416 -0.2843
92385W        W35401  34.375   9.067   5.797 -0.0912 -0.2849  0.0030
92386W        W35402  19.506  25.140  14.374 -0.0185 -0.1399 -0.2294
92387W        W35403  10.876  12.439   9.406 -0.1543  0.4322 -0.1139
92388W        W35404   5.604  31.842   3.920  0.0379  0.2648  0.4627
92389W        W35405   8.162  12.163   4.465  0.0783 -0.3502  0.0063
92390W        W35406  22.962  22.698   3.195 -0.0051  0.0496 -0.0354
92391W        W35407  13.976  21.995   0.301 -0.1343 -0.1276 -0.1483
92392W        W35408  22.069  13.661   5.798  0.0788  0.1051  0.1284
92393W        W35409   8.117  15.329  14.478  0.4725  0.0309 -0.1172
92394W        W35410  18.281  30.758   5.446 -0.0906  0.2292 -0.2148
92395W        W35411  23.064  18.914  15.439 -0.0783 -0.2271 -0.1237
92396W        W35412  14.879   8.353  28.999 -0.0682  0.0603 -0.1230
92397W        W35413   3.710  14.699   1.119 -0.0644 -0.0354 -0.2136
92398W        W35414  17.987  12.073   8.587  0.0457 -0.1262  0.1475
92399W        W35415  30.846  10.754   5.382  0.0888 -0.2962  0.0159
92400W        W35416  11.966  24.760   8.849  0.1389  0.0420  0.2598
92401W        W35417  25.889   9.595  28.799 -0.2106  0.3675 -0.1272
92402W        W35418   2.799   4.857   9.822 -0.0146  0.0361  0.0594
92403W        W35419  23.657  25.853   6.887  0.2175  0.1411  0.3000
92404W        W35420  18.179  18.959   0.854  0.0290 -0.1258 -0.2601
92405W        W35421  27.580  13.920  25.125  0.0499 -0.1847 -0.1109
92406W        W35422  10.978  30.618   6.087 -0.0761 -0.3389  0.1825
92407W        W35423   9.676  15.368   2.885 -0.1505 -0.0650  0.0253
92408W        W35424   0.851  10.288   8.373 -0.2667  0.1880 -0.3564
92409W        W35425   4.341   9.156  23.066 -0.1308  0.0807  0.3977
92410W        W35426  13.822  17.154  23.919 -0.4991 -0.0176  0.0380
92411W        W35427  21.720   8.313   7.468  0.0328 -0.1038 -0.0798
92412W        W35428  22.419  10.318  17.578 -0.2115 -0.0558  0.1090
92413W        W35429  23.181  12.201  19.313  0.1093 -0.1918  0.1615
92414W        W35430   2.180  18.868  10.041 -0.0297  0.1152 -0.0939
92415W        W35431  29.013  28.405   0.851  0.4474  0.1915 -0.2163
92416W        W35432   5.922   9.832   5.330 -0.0079 -0.0163  0.0856
92417W        W35433  17.613  16.533   7.426  0.1998  0.1263 -0.2247
92418W        W35434  13.261  10.564  28.395 -0.2978 -0.0902 -0.2913
92419W        W35435   7.164  10.099  26.300 -0.1809 -0.0150 -0.0865
92420W        W35436  20.953   5.267   5.323  0.0035  0.0665 -0.0153
92421W        W35437  26.432  32.645   2.831 -0.0834 -0.0799  0.2290
92422W        W35438  14.530  10.736   3.023 -0.2229  0.2955 -0.0228
92423W        W35439  23.210   5.469   2.869 -0.0298 -0.3553 -0.0027
92424W        W35440  16.200  10.172  19.945  0.3189  0.1749 -0.0637
92425W        W35441  16.077  21.222  24.999 -0.0984 -0.1382  0.0218
92426W        W35442  33.312  19.251   6.997  0.2319  0.0629  0.3046
92427W        W35443  15.614  24.009  24.370 -0.1158 -0.1280 -0.0997
92428W        W35444  25.275  11.472   7.110 -0.3552  0.1283 -0.0378
92429W        W35445   3.875  14.515   6.054 -0.1537 -0.4992 -0.0685
92430W        W35446  34.011  17.322   6.098  0.0486 -0.2752 -0.0912
92431W        W35447   9.230   5.829  27.867  0.1239 -0.2782 -0.0725
92432W        W35448  21.522  20.681  25.732 -0.1690 -0.0286  0.0514
92433W        W35449  29.334  16.980   4.880 -0.2210  0.1979  0.0434
92434W        W35450   7.911  26.926   7.941 -0.0010 -0.0782  0.0274
92435W        W35451  22.177  14.019   7.712  0.2077  0.0598 -0.3733
92436W        W35452  34.303  32.653  26.720  0.0722  0.2357 -0.0702
92437W        W35453  20.851  15.187   3.004  0.0933  0.0144  0.1230
92438W        W35454  27.022  26.806  17.724  0.0162 -0.0607 -0.1191
92439W        W35455   5.781  34.259  21.090  0.1508 -0.0712 -0.3623
92440W        W35456   2.941  25.164  26.442 -0.3394 -0.0672 -0.0439
92441W        W35457  29.054   9.750  28.253 -0.1106  0.1866 -0.1939
92442W        W35458  22.085  10.398  15.433  0.0191  0.1426 -0.1992
92443W        W35459  32.918   4.590   8.370  0.1571  0.0674 -0.0304
92444W        W35460  19.252   9.007   2.482 -0.0068 -0.2822  0.2722
92445W        W35461   8.060  12.371   9.581 -0.1384  0.0388 -0.0911
92446W        W35462  17.863   7.632   3.471 -0.0546  0.0435  0.0895
92447W        W35463  23.590   7.540  26.447  0.1188 -0.1747  0.1054
92448W        W35464   2.117  17.372  21.810 -0.1773  0.0701 -0.0599
92449W        W35465  17.282  18.405  16.612  0.0145 -0.1605 -0.1748
92450W        W35466  17.878  12.974   1.001  0.1584 -0.0660  0.0837
92451W        W35467  23.215  19.557   2.543 -0.0244 -0.1792  0.1577
92452W        W35468  22.126  25.546  18.264  0.2134 -0.0191  0.2051
92453W        W35469   9.227  23.024  13.621 -0.2961 -0.1697  0.1682
92454W        W35470  16.354  20.512  23.311  0.1293 -0.0921  0.0115
92455W        W35471   7.313  20.259   0.377 -0.2361  0.0948 -0.3037
92456W        W35472  30.391  20.253   4.514 -0.1745  0.3816 -0.0525
92457W        W35473  20.101  13.978   5.676  0.0754 -0.1078  0.2323
92458W        W35474  18.800  21.979   6.074 -0.1275  0.0489  0.3108
92459W        W35475  19.509   2.750   6.721 -0.0317  0.2384  0.1903
92460W        W35476  15.750   9.895   4.679 -0.0382  0.2232 -0.0620
92461W        W35477   5.140  27.845   2.871 -0.0451 -0.2156 -0.2784
92462W        W35478  19.962  28.872   4.625 -0.1109  0.1493 -0.4486
92463W        W35479  33.381  30.911   2.513 -0.1021 -0.2042 -0.3253
92464W        W35480  21.618   2.590   0.079  0.0053 -0.2764 -0.0326
92465W        W35481  15.658   3.445   5.716 -0.2001 -0.0774  0.2016
92466W        W35482  13.492  19.180   0.873  0.2272  0.0066  0.2024
92467W        W35483  12.565  11.203   0.964 -0.1959  0.1713 -0.0246
92468W        W35484  27.458  16.679   3.217  0.0396 -0.0089 -0.0913
92469W        W35485  30.354  10.346   6.019 -0.4260 -0.0913 -0.1255
92470W        W35486   8.689   0.411   1.254  0.0477  0.0972 -0.3504
92471W        W35487  20.222   9.189  25.362 -0.3772  0.1012 -0.0568
92472W        W35488   9.861  13.109   2.210  0.2082  0.1148 -0.2719
92473W        W35489  34.243   7.565   9.794 -0.0360  0.1599  0.1406
92474W        W35490   4.440  29.558   8.608  0.0718 -0.2100 -0.1666
92475W        W35491  20.678  16.447   4.313 -0.0340 -0.2807  0.0377
92476W        W35492   6.517  26.637   4.776 -0.2171 -0.1249  0.0962
92477W        W35493  15.963   4.945   4.952 -0.0552 -0.1310  0.0072
92478W        W35494   0.848   7.783   2.456 -0.3496 -0.0900  0.2142
92479W        W35495  21.307  27.576   7.571  0.1511  0.1148 -0.0079
92480W        W35496  18.644  19.871   4.926 -0.0960  0.1718  0.1955
92481W        W35497   6.087   3.460  25.410  0.0316 -0.6545 -0.1406
92482W        W35498  15.458  25.419  22.147  0.1694 -0.0962  0.0511
92483W        W35499   5.914  19.962  24.472 -0.0483  0.3265 -0.1607
92484W        W35500  12.371  15.002  27.070  0.0614  0.3277 -0.0071
92485W        W35501  10.013  12.327   1.715 -0.1410 -0.0829 -0.1535
92486W        W35502  11.378  11.694  22.210  0.0871  0.0757  0.0183
92487W        W35503  20.293  24.308  25.411  0.0932  0.2665  0.3320
92488W        W35504  34.271  24.135   2.405  0.2311 -0.0357  0.1335
92489W        W35505   7.080   5.713  17.337  0.1139 -0.1106 -0.1317
92490W        W35506  16.243  32.465   8.697  0.2644  0.0578 -0.0028
92491W        W35507  20.245  15.158   7.375  0.0891  0.1570  0.3003
92492W        W35508  11.623  25.478   7.635  0.3581  0.0341 -0.4256
92493W        W35509  16.640  32.519   5.309 -0.2091 -0.2665  0.0044
92494W        W35510  25.321  14.516   3.377  0.0910 -0.1704 -0.0890
92495W        W35511  21.718  22.837   5.418 -0.0945  0.2586 -0.1183
92496W        W35512  29.064  29.280  24.290 -0.1640  0.0097  0.4033
92497W        W35513  13.584  11.896   5.639 -0.0353  0.0396  0.1951
92498W        W35514  29.990   8.209   0.536  0.0224 -0.0516 -0.2314
92499W        W35515  29.328   7.419   4.263 -0.2757  0.1378  0.3179
92500W        W35516  23.493  27.739   7.902 -0.3946  0.0042  0.1576
92501W        W35517  16.356  11.717  29.236  0.6345  0.5103  0.1488
92502W        W35518   8.836  11.550   4.218  0.0364 -0.1803  0.0995
92503W        W35519   9.376  11.102   0.708  0.1035  0.3714  0.1082
92504W        W35520  33.546  25.886   6.827  0.1429  0.0659  0.1384
92505W        W35521  24.500  16.745   7.127  0.0267 -0.0974 -0.1659
92506W        W35522  12.011  21.438   7.765 -0.0775  0.3795  0.0403
92507W        W35523  32.450   5.591   6.082  0.0345  0.1733 -0.2785
92508W        W35524   2.262  15.241   6.172  0.0896 -0.3236 -0.0421
92509W        W35525  21.656   3.632   5.227 -0.2606  0.0653 -0.1570
92510W        W35526  22.082  16.679   6.478  0.1178  0.1701 -0.2798
92511W        W35527  22.942   1.124   6.111  0.0598 -0.0979 -0.1225
92512W        W35528   2.815  21.302   2.938 -0.0624 -0.0531 -0.1758
92513W        W35529  16.464  26.868   8.297  0.1253  0.1722 -0.0286
92514W        W35530  27.571   2.358  26.822 -0.1282  0.2715  0.2804
92515W        W35531   9.695  22.833   8.579  0.0645  0.1000  0.4819
92516W        W35532   2.610  25.057   5.163  0.3486  0.2913  0.2773
92517W        W35533  21.993  16.440   3.869  0.0133 -0.1392 -0.2373
92518W        W35534   7.877  31.685  25.819 -0.2222  0.2604  0.0752
92519W        W35535  16.342  11.477  14.399  0.0085  0.0221 -0.1297
92520W        W35536   1.919  16.012   8.730  0.1087 -0.1013  0.0174
92521W        W35537  20.338  21.399   7.597 -0.2883 -0.0639  0.0046
92522W        W35538  33.153  19.197  28.183 -0.1200  0.0857  0.0402
92523W        W35539  15.338  18.369  20.896  0.2422 -0.0318 -0.2037
92524W        W35540   7.248  24.633   3.764  0.2171  0.0212  0.1842
92525W        W35541  26.358  28.944  23.854  0.0073 -0.4505 -0.0835
92526W        W35542  13.730  12.301   2.413  0.0406 -0.0702  0.0128
92527W        W35543   8.996  24.045   6.620 -0.1765 -0.1806  0.0631
92528W        W35544  10.873  30.767   5.046 -0.0449 -0.2439  0.0298
92529W        W35545  26.870  25.185  23.571 -0.1136 -0.0027 -0.3983
92530W        W35546  18.768  24.779   6.364  0.1993  0.4526 -0.0060
92531W        W35547  18.982   5.786   2.303  0.0323 -0.0399  0.3155
92532W        W35548  15.555  17.748  24.584 -0.3665 -0.2166 -0.2193
92533W        W35549  29.814   9.755   7.349 -0.1362  0.2578  0.0439
92534W        W35550  14.135  12.842  22.848  0.2594  0.2034  0.1472
92535W        W35551   1.151   8.413  20.081  0.1382 -0.0657 -0.3168
92536W        W35552  23.558   2.142   8.226  0.0622 -0.2623  0.0950
92537W        W35553  21.000  30.501   3.550  0.2101  0.1789  0.0205
92538W        W35554  25.761  22.474   8.167  0.2162 -0.0788 -0.0935
92539W        W35555  23.612  27.626   7.438 -0.3063  0.0907 -0.0677
92540W        W35556  12.367  12.336   7.070 -0.2223 -0.1240 -0.1235
92541W        W35557  27.497  12.641   6.648  0.2244 -0.0411  0.1512
92542W        W35558  21.347  18.638   2.755  0.0791 -0.3699 -0.0648
92543W        W35559   7.697   8.099   8.010 -0.1368  0.1300 -0.1271
92544W        W35560  10.999  17.683   0.762  0.1185  0.1513  0.0115
92545W        W35561   5.102  21.587  24.676 -0.2066  0.0062 -0.0822
92546W        W35562  22.116   2.212   4.670  0.3123  0.1825  0.0092
92547W        W35563  22.133  18.803   6.410  0.2583  0.0736  0.0077
92548W        W35564   8.545  34.644   7.191  0.2068 -0.0727  0.2121
92549W        W35565  23.135   6.254   7.948 -0.1493  0.0246 -0.0083
92550W        W35566   6.318  31.565   1.461  0.1512 -0.0621 -0.0559
92551W        W35567   2.875  11.053  26.134 -0.0869  0.1353 -0.5319
92552W        W35568  25.395  18.298   8.328 -0.3261  0.0881 -0.2022
92553W        W35569  22.078  14.851  13.634 -0.0295  0.0314  0.0081
92554W        W35570   3.916  15.601  14.964 -0.1118 -0.1010  0.1985
92555W        W35571  19.510  21.350   7.016  0.1916  0.5019  0.0759
92556W        W35572  34.208  23.034   5.617  0.0699  0.1534  0.1717
92557W        W35573  30.922  30.331   1.742 -0.0755 -0.1245  0.0686
92558W        W35574   4.821  18.557   0.848  0.0757  0.0863  0.0619
92559W        W35575  25.220  16.086   8.296 -0.1049 -0.2862  0.0590
92560W        W35576  12.230  16.364   7.493 -0.0588  0.1944 -0.1890
92561W        W35577  20.467  20.533   8.868 -0.1273  0.0474  0.3324
92562W        W35578   2.886  34.195   6.238 -0.2988  0.0586 -0.1879
92563W        W35579  15.079  14.054  26.084 -0.1113 -0.2938  0.2540
92564W        W35580   1.350   9.201  29.238 -0.0653  0.0301  0.0734
92565W        W35581  24.825   4.416  10.637  0.3940  0.0604 -0.0487
92566W        W35582  26.637  14.531   7.184 -0.1715  0.1022 -0.1371
92567W        W35583   8.629   7.105   1.721 -0.0526 -0.6230  0.2165
92568W        W35584  16.198  20.688   0.597  0.1009 -0.0415  0.1542
92569W        W35585  19.894  12.695   7.708  0.0426  0.2860 -0.2692
92570W        W35586   4.424  13.864  23.228 -0.3194 -0.2078 -0.2293
92571W        W35587  33.906  34.693   7.209 -0.4440 -0.1899  0.1290
92572W        W35588   9.567  17.639   2.149  0.1175  0.0062  0.2876
92573W        W35589  19.184  17.392   5.927  0.2307 -0.0965  0.1399
92574W        W35590  13.737  15.155   2.683  0.0783 -0.0846  0.3399
92575W        W35591  21.760  33.360  27.103  0.0170 -0.0081  0.1772
92576W        W35592  12.930   7.503  26.979 -0.0499 -0.0425 -0.1179
92577W        W35593  18.809  12.729  21.549  0.0117 -0.4864 -0.1017
92578W        W35594   1.940  17.791   7.722  0.0181 -0.1175  0.0920
92579W        W35595  12.166   9.690   9.053  0.2717 -0.3606  0.1098
92580W        W35596  11.424  34.561   9.956 -0.1882 -0.1637  0.0065
92581W        W35597  18.166  14.479  29.087 -0.0180  0.3548 -0.3239
92582W        W35598   4.784   5.705   5.207 -0.0828  0.1493 -0.0924
92583W        W35599  32.133  12.877   1.924 -0.2791  0.0636  0.1198
92584W        W35600  22.078  23.071  26.213  0.0150  0.0848  0.3477
92585W        W35601  28.502  19.135   5.942 -0.2084  0.1372 -0.3441
92586W        W35602  15.623  29.202   7.310  0.3175  0.0592  0.1289
92587W        W35603  19.983  13.707  19.917  0.3729 -0.3448 -0.0900
92588W        W35604  17.724  14.205   4.905  0.0914 -0.0533 -0.0200
92589W        W35605   8.932  20.847   3.455  0.0692 -0.0501 -0.0978
92590W        W35606  19.748  11.817   8.020 -0.2585 -0.2297 -0.1012
92591W        W35607   9.363  11.378  20.620  0.1095  0.2658 -0.0468
92592W        W35608   6.683  28.696   2.878 -0.1981 -0.1924  0.0253
92593W        W35609   0.047  17.982   3.898 -0.2341  0.2164  0.0313
92594W        W35610  19.898  10.467   2.521 -0.0409  0.2531  0.1794
92595W        W35611  12.754  29.966   6.419 -0.2078 -0.0445  0.0836
92596W        W35612  20.821  23.994   7.774  0.1763  0.2950  0.1600
92597W        W35613  24.151  18.231   5.676  0.1006 -0.0672 -0.0684
92598W        W35614  31.461  29.640   4.075 -0.4345 -0.2228 -0.0176
92599W        W35615  15.775  20.665   7.013 -0.2720  0.1193 -0.0688
92600W        W35616  17.540  33.582   5.645  0.4119  0.0687 -0.1438
92601W        W35617  21.000  14.034   8.031  0.1334  0.1059  0.1034
92602W        W35618  11.029  28.359   6.262 -0.2064  0.2146  0.0140
92603W        W35619  14.124  14.562   5.087  0.0903  0.1524  0.3836
92604W        W35620  16.772  16.942  19.788  0.0719  0.1724 -0.2026
92605W        W35621  15.567   8.074   7.815 -0.1239 -0.0224  0.0229
92606W        W35622  25.906  14.598   8.802  0.1793  0.1158 -0.2476
92607W        W35623  13.336  22.230  26.154 -0.0061 -0.0118  0.1631
92608W        W35624   0.677  21.561   1.170 -0.0133 -0.2512  0.0225
92609W        W35625  13.450   6.996   7.402 -0.0975 -0.0706  0.3745
92610W        W35626  17.654  19.099   3.823  0.2759 -0.4907 -0.1161
92611W        W35627   7.902  31.434   1.869  0.1031  0.3655 -0.2788
92612W        W35628  32.280  17.443   4.145  0.2308 -0.1252 -0.1754
92613W        W35629  14.452  25.068   5.086 -0.4579  0.0051  0.1781
92614W        W35630   9.128   8.403  22.792  0.0919  0.0179  0.2008
92615W        W35631  11.437  31.837   6.484  0.1112  0.1529 -0.2805
92616W        W35632   2.616  14.123   2.884 -0.3591  0.2542 -0.1511
92617W        W35633  21.113  18.281   4.271 -0.1829  0.0372 -0.2546
92618W        W35634  32.222  20.059   2.681  0.1546  0.1680  0.1119
92619W        W35635  23.187  22.837   8.198 -0.2231 -0.0823  0.0445
92620W        W35636   6.980   0.261   0.397  0.2345 -0.2208 -0.0945
92621W        W35637  28.486  16.533  18.626 -0.1118  0.0357  0.1499
92622W        W35638  17.427  12.257   0.375  0.1389 -0.0078 -0.0630
92623W        W35639  32.218  22.671   7.192 -0.0569 -0.0439 -0.0012
92624W        W35640  33.079   5.550   2.032 -0.2213  0.0415 -0.0977
92625W        W35641   0.024  23.169   4.958 -0.4405  0.2508 -0.0881
92626W        W35642  12.634  19.724  24.165  0.2227  0.3893 -0.0993
92627W        W35643  11.882  10.560   6.266  0.0843  0.1470  0.0193
92628W        W35644  11.779  28.636  19.141 -0.3953  0.1124  0.0826
92629W        W35645  17.402  11.246   0.848 -0.0412 -0.0397 -0.0524
92630W        W35646  34.112  22.583   7.203  0.0581 -0.3575 -0.1389
92631W        W35647  17.157  33.968   4.904  0.1162 -0.3231  0.0013
92632W        W35648  26.294  16.719   4.595 -0.0427 -0.1569  0.2339
92633W        W35649   0.274  24.246  22.936 -0.0355 -0.2804  0.0726
92634W        W35650  16.425   1.607   3.031 -0.2677  0.1567  0.2094
92635W        W35651  17.212   3.388   2.938 -0.2266  0.0236 -0.1495
92636W        W35652   7.870  17.404   2.292  0.0907  0.0037  0.1264
92637W        W35653  30.945  13.449   2.331  0.2293  0.0325 -0.0552
92638W        W35654   7.643  11.828   9.018 -0.0061 -0.1962  0.0266
92639W        W35655  25.567  12.003  26.789  0.2117  0.1568 -0.3744
92640W        W35656  25.441   3.129   2.855  0.0559 -0.0301  0.1615
92641W        W35657   9.811  21.301   1.584  0.0714  0.0805  0.1570
92642W        W35658  34.532  28.574   6.095 -0.2270  0.0081 -0.1634
92643W        W35659  18.702   8.693   6.905  0.1391  0.1829 -0.0555
92644W        W35660  15.293   3.664   9.327 -0.2869  0.0117 -0.0069
92645W        W35661   4.196  12.105   0.977 -0.2486 -0.0865 -0.2342
92646W        W35662  23.905  13.901   9.860 -0.2014 -0.1043  0.0431
92647W        W35663  20.330  18.297   4.760  0.3190 -0.1645 -0.0975
92648W        W35664  24.199  25.462   3.505  0.0454 -0.0386  0.2435
92649W        W35665   7.269  29.806   0.343 -0.1501  0.0302 -0.1191
92650W        W35666  31.798  15.936   8.249  0.1097 -0.0390 -0.4621
92651W        W35667  22.040  18.445   1.356 -0.1618  0.1776  0.0876
92652W        W35668   2.581  18.677   7.356 -0.0289 -0.0435  0.1704
92653W        W35669   6.733  14.090   4.929  0.1569  0.0828  0.1034
92654W        W35670   3.309  14.649   7.321  0.1736  0.0747  0.2796
92655W        W35671   4.908   2.347   5.235 -0.0449  0.0238  0.3934
92656W        W35672  16.688  11.701  27.851  0.1456  0.3794 -0.0635
92657W        W35673  11.654   2.955   6.631 -0.0383 -0.4407 -0.0435
92658W        W35674   9.105   5.185  20.184  0.2783 -0.1959 -0.2092
92659W        W35675  19.994   9.096   3.373  0.6013  0.0394  0.0193
92660W        W35676  14.079  14.651   5.578  0.1664  0.3123 -0.3423
92661W        W35677  19.709   4.623   6.016  0.0670  0.0679 -0.1477
92662W        W35678   1.625  14.669   8.127 -0.3124 -0.1308  0.1786
92663W        W35679   4.602  29.493   9.061  0.2439 -0.0993  0.0482
92664W        W35680   9.058   9.733   5.925 -0.2052  0.0222  0.0275
92665W        W35681  23.137  31.686   0.305  0.0178 -0.0040  0.3498
92666W        W35682  14.339  22.542   3.126 -0.1327 -0.1411  0.4097
92667W        W35683   9.633  10.198   7.424  0.0232  0.3865  0.1785
92668W        W35684  12.922   1.680   9.182  0.0955 -0.0649  0.1762
92669W        W35685  21.022  11.671  15.604  0.0876 -0.2714 -0.1161
92670W        W35686  11.510  15.324  22.670  0.0868 -0.0820  0.2695
92671W        W35687   5.037  18.457  25.931  0.0887  0.6383  0.5253
92672W        W35688   6.550  20.859   1.570  0.0347  0.3824 -0.0518
92673W        W35689   8.560   6.048  26.257 -0.1697  0.1482 -0.1973
92674W        W35690  11.459   1.824   3.010 -0.2165  0.0716 -0.1088
92675W        W35691   1.891  11.201   6.988  0.2467 -0.0480 -0.2830
92676W        W35692  18.066  25.692   7.637  0.3146 -0.0186 -0.0133
92677W        W35693  21.428   6.987  25.404  0.1024  0.0428  0.1141
92678W        W35694   5.329   2.443   3.290 -0.0437  0.4152 -0.1150
92679W        W35695  10.183  19.729   6.038  0.3365 -0.1943 -0.0029
92680W        W35696  28.446   7.250  10.243  0.0448  0.1557 -0.2380
92681W        W35697  15.561  15.834   4.071 -0.1849 -0.3240 -0.0441
92682W        W35698  14.921  15.803   8.439  0.0376 -0.1317  0.1129
92683W        W35699  33.788  26.917  26.930 -0.1851 -0.0401 -0.2437
92684W        W35700   3.455  10.802   4.433 -0.5285 -0.1455 -0.1311
92685W        W35701  18.212  14.193  27.046  0.1040  0.0733 -0.2132
92686W        W35702  22.976  21.208   7.977  0.0739 -0.2104  0.2463
92687W        W35703  21.235  13.103   3.246  0.1686  0.1073  0.0221
92688W        W35704  20.597   5.645   2.557 -0.1999  0.1223 -0.1243
92689W        W35705  25.159  21.292   1.073 -0.3109  0.0968  0.2496
92690W        W35706  33.247  19.120   6.469  0.1925 -0.0483  0.2229
92691W        W35707   8.527  14.158   3.587  0.1960  0.0469 -0.0316
92692W        W35708  32.920  23.678   1.553  0.0799  0.2270 -0.0507
92693W        W35709   5.126  18.165   9.290 -0.0446  0.2806 -0.0014
92694W        W35710  22.745  19.494   2.938  0.1790 -0.0764 -0.2646
92695W        W35711   2.834  12.661   7.031  0.1224 -0.2370  0.0474
92696W        W35712  26.097  19.793   3.433  0.3140 -0.1491 -0.0867
92697W        W35713  11.396  17.250  19.714 -0.0973  0.1567  0.0883
92698W        W35714  14.178  14.138  29.000  0.0723  0.0693  0.0009
92699W        W35715   7.813  16.273  20.840 -0.0169 -0.2551 -0.2443
92700W        W35716  23.110  22.486   7.659  0.3784  0.1644  0.1302
92701W        W35717  20.476  15.203  26.118  0.3667  0.1378 -0.1153
92702W        W35718  10.876  34.257  25.651  0.0765  0.1048  0.0620
92703W        W35719  20.559  19.932   3.695 -0.1696 -0.1792 -0.2165
92704W        W35720  18.148  17.552  26.070  0.1759 -0.0687 -0.1016
92705W        W35721   5.506  16.335   3.234  0.3501 -0.1692  0.2443
92706W        W35722  12.684  28.122   7.028  0.0451 -0.3480  0.3335
92707W        W35723  10.962   8.195  24.560  0.0744 -0.2639  0.2898
92708W        W35724  21.529  15.912  22.873 -0.3548 -0.0273 -0.4327
92709W        W35725  21.651  14.173   1.287  0.2107  0.2708  0.1677
92710W        W35726  12.313  23.352   2.140  0.0089 -0.0734  0.5278
92711W        W35727  25.620  12.971  29.173  0.2493  0.4072  0.1404
92712W        W35728  16.343  30.744   8.241  0.2627 -0.2527  0.0364
92713W        W35729  26.345   8.652   8.334  0.0970  0.0226 -0.2541
92714W        W35730  18.105  32.475   8.434  0.2706  0.2783 -0.0319
92715W        W35731  18.885  14.802   8.489  0.0469  0.3260 -0.1550
92716W        W35732  19.265   6.252   7.658 -0.1815 -0.4408  0.4238
92717W        W35733  22.862   2.464   7.196 -0.1720 -0.3149 -0.0982
92718W        W35734  20.389  12.875   4.201  0.0973 -0.0920  0.0047
92719W        W35735   8.756   9.309   9.967 -0.2144 -0.0963  0.1768
92720W        W35736  28.089   7.492   9.927 -0.0983 -0.1119 -0.0707
92721W        W35737   5.433  14.188   2.755  0.1339 -0.4154 -0.3422
92722W        W35738   3.073  12.883   8.058  0.0023  0.0237  0.1889
92723W        W35739  31.828  22.653  22.519  0.0346 -0.2733  0.1605
92724W        W35740  23.088  19.801  22.219 -0.0208  0.2931 -0.0095
92725W        W35741  23.960  30.101   9.287 -0.1296  0.1772 -0.1669
92726W        W35742  12.756  18.578   6.392  0.4053 -0.3331  0.1442
92727W        W35743  12.296  30.020   4.075 -0.2819  0.1121  0.1063
92728W        W35744   3.108  17.612   9.098 -0.1591 -0.1246 -0.0460
92729W        W35745  27.238   9.102   8.503  0.0994 -0.1181 -0.1278
92730W        W35746   0.458  21.130  28.980 -0.0083  0.1994  0.4031
92731W        W35747  22.275  12.705   1.542  0.0911 -0.4310  0.6059
92732W        W35748   5.450  26.050   7.733  0.0968 -0.0286 -0.0318
92733W        W35749  27.240  26.905   4.444  0.0628  0.0567  0.1163
92734W        W35750  23.849  18.606  22.027  0.0107  0.0111 -0.3775
92735W        W35751  29.171  11.631   3.421 -0.1063 -0.2785  0.0852
92736W        W35752   0.395  16.473   9.535  0.3043  0.1330 -0.0787
92737W        W35753  19.617  33.343  10.029 -0.1293  0.1863 -0.2026
92738W        W35754  26.515  25.500   4.159  0.1077  0.2752  0.3099
92739W        W35755   0.692  19.755  20.538  0.2571 -0.3670  0.3367
92740W        W35756   8.277  24.479  28.823  0.1736 -0.0215 -0.1556
92741W        W35757  17.955  18.729   3.942 -0.0268 -0.0887 -0.1534
92742W        W35758  14.230   9.968   4.571  0.0015 -0.0488  0.0299
92743W        W35759  16.452  19.151   1.563 -0.3278 -0.0319  0.1445
92744W        W35760   5.970  25.486   8.430  0.0421 -0.0302 -0.1891
92745W        W35761  26.448   4.333  28.116  0.0677 -0.0657 -0.3157
92746W        W35762  21.104   3.199   5.951  0.1020  0.1332 -0.1591
92747W        W35763  12.843   5.867  10.048 -0.0169  0.1418  0.2068
92748W        W35764  33.108  32.888  10.501  0.3465  0.2928  0.2446
92749W        W35765   1.119  10.883   8.869  0.0976 -0.2331 -0.0232
92750W        W35766  29.182   9.495   8.843  0.3016  0.3900 -0.0412
92751W        W35767  23.234  11.450  28.048  0.1249  0.2447 -0.1815
92752W        W35768   2.042  17.720   4.869  0.0433  0.0028 -0.1145
92753W        W35769  24.436   6.274   6.998 -0.2777  0.0191 -0.0805
92754W        W35770  14.693  18.005   5.916 -0.0757 -0.1743 -0.1044
92755W        W35771  22.560  18.814   3.568  0.0620  0.3353  0.0689
92756W        W35772  12.645  28.327   6.568 -0.0031  0.1579 -0.1969
92757W        W35773  17.197  19.462   1.723  0.2008  0.0939  0.3322
92758W        W35774  12.185  12.586   3.010 -0.2187 -0.0706 -0.0260
92759W        W35775  31.505  19.684  11.168 -0.1926  0.0984 -0.1309
92760W        W35776  29.135  32.798  25.654  0.1896 -0.0656 -0.1264
92761W        W35777  26.462   5.442   3.812 -0.3101  0.4115 -0.1111
92762W        W35778  13.837   0.594   3.375 -0.0022 -0.0789  0.0545
92763W        W35779   7.637  20.411  29.199 -0.0921  0.1527  0.0470
92764W        W35780  12.700  23.829  26.235  0.1756 -0.0623 -0.0545
92765W        W35781   3.759  21.457   8.790  0.1157 -0.1009 -0.1470
92766W        W35782  21.939   1.469   2.415  0.0272  0.0903  0.0107
92767W        W35783  19.678  27.928   4.821  0.2314 -0.0057  0.1055
92768W        W35784  20.423   1.348   3.630 -0.1319 -0.0086 -0.1468
92769W        W35785  26.237   7.679   3.280  0.0795  0.2447  0.2604
92770W        W35786  10.518  18.267   1.241 -0.0265 -0.3712 -0.3032
92771W        W35787   3.087  15.511   1.501  0.1577  0.1186 -0.0206
92772W        W35788   3.723  22.729   2.241  0.0761 -0.1281 -0.2224
92773W        W35789  27.879  29.464   7.627  0.1799 -0.1812 -0.1173
92774W        W35790  30.371   3.333   0.663  0.4561  0.2558  0.1474
92775W        W35791  21.381  17.808  22.243  0.3197 -0.1110  0.2166
92776W        W35792  24.464  26.115   3.950  0.0181  0.1846  0.0586
92777W        W35793  29.308  11.094   5.511 -0.0038 -0.0464 -0.1326
92778W        W35794   4.065  26.673  28.655 -0.1612 -0.0272  0.0087
92779W        W35795  10.118  19.909  26.881  0.0528  0.0848  0.0871
92780W        W35796  27.390  19.152  10.176  0.0752 -0.3290 -0.0617
92781W        W35797  14.907  11.351   5.168 -0.1297 -0.0449 -0.3939
92782W        W35798   8.890   1.875   9.512  0.2917  0.1829  0.3284
92783W        W35799   9.339   6.766  27.674  0.4307  0.0922 -0.1335
92784W        W35800  12.538  16.062  20.978  0.0331 -0.0428 -0.2356
92785W        W35801  17.131  10.968  26.149 -0.0297  0.3462  0.0999
92786W        W35802  13.617  12.442   8.692 -0.1192 -0.2413  0.0806
92787W        W35803  13.611   4.028   9.038  0.2655  0.0448  0.1400
92788W        W35804  13.496  19.892   2.115  0.1660  0.2515 -0.4892
92789W        W35805   1.024  19.227   8.744  0.2016 -0.0825 -0.6129
92790W        W35806  14.236  26.757   6.065  0.1714  0.0055  0.0968
92791W        W35807  14.887  23.854   5.088  0.1106  0.2985 -0.1470
92792W        W35808  29.271   9.315   4.475  0.0462  0.2243  0.0298
92793W        W35809  14.407   9.516   4.213 -0.0600  0.0377 -0.1333
92794W        W35810   8.169  14.250   6.699  0.2955  0.3303  0.0582
92795W        W35811  25.593  12.768  27.427  0.2692 -0.0286 -0.1093
92796W        W35812  24.122   6.459   8.935  0.3159  0.2214 -0.0099
92797W        W35813  16.825  20.156   6.414 -0.3168 -0.0819 -0.1275
92798W        W35814   6.437   2.171   5.541 -0.2513  0.1355  0.0229
92799W        W35815  17.326  34.409   6.256 -0.0490  0.2208 -0.2925
92800W        W35816  18.402   6.267   3.482  0.1505 -0.0467 -0.3350
92801W        W35817  14.791  21.885   8.603 -0.1416  0.1347  0.0229
92802W        W35818  13.006  24.864   2.335  0.3486 -0.3118  0.0830
92803W        W35819  16.309  22.707   0.856  0.2451  0.0997  0.0427
92804W        W35820  30.998   5.869  28.993 -0.1364 -0.0512  0.1244
92805W        W35821   7.476   6.822   4.076  0.0568 -0.0373  0.1410
92806W        W35822  14.714  22.830  29.267 -0.0044 -0.0166 -0.0794
92807W        W35823  12.020  30.341  16.487  0.1461 -0.0933  0.1532
92808W        W35824   5.491  11.845   8.359 -0.2643  0.0934 -0.2627
92809W        W35825  15.321  18.084   0.695 -0.2028 -0.0565 -0.0872
92810W        W35826   3.897  25.668   8.361 -0.2767 -0.0830  0.0178
92811W        W35827   6.731  12.387   8.477  0.0627 -0.1683 -0.1665
92812W        W35828  19.725  33.142   6.620  0.0454 -0.0958 -0.2279
92813W        W35829   2.390  24.408   7.611 -0.2762 -0.0489  0.1929
92814W        W35830  27.454  21.354  26.149 -0.2427 -0.0233  0.0157
92815W        W35831  16.925  17.415  28.446  0.0617 -0.1972  0.2703
92816W        W35832   6.935   0.340   9.810 -0.1821 -0.0282  0.0975
92817W        W35833  32.306  25.934  28.549 -0.3070  0.0894  0.0921
92818W        W35834  25.331   3.877  28.197 -0.2228 -0.2083 -0.0452
92819W        W35835  16.774  15.791  26.498  0.0802 -0.2830 -0.2936
92820W        W35836  16.902  24.766  29.000  0.0482  0.0671 -0.0275
92821W        W35837  23.046   7.771   6.251  0.1318 -0.1036 -0.1997
92822W        W35838  25.418  24.852  21.148  0.3531  0.0460 -0.1307
92823W        W35839   8.245  18.050   4.074 -0.1236  0.1672  0.0946
92824W        W35840   9.819  21.262   4.388  0.1756 -0.3521  0.2781
92825W        W35841  16.672  11.298   1.989 -0.1400  0.2745 -0.1872
92826W        W35842  22.075  10.487   5.787 -0.1764  0.0232 -0.2007
92827W        W35843  17.937  19.180  13.408  0.1283 -0.1397 -0.1071
92828W        W35844  13.452  13.571   5.320 -0.1061  0.0317 -0.4673
92829W        W35845  19.444  24.547   3.124  0.2397 -0.3820  0.1990
92830W        W35846  18.169  12.538   0.944  0.0604 -0.1981 -0.2279
92831W        W35847   6.669  25.351  28.833  0.4706 -0.1191 -0.0592
92832W        W35848  17.505  25.572   2.692  0.0467 -0.0280  0.1798
92833W        W35849   5.594   9.610   1.601  0.2131  0.1139 -0.0285
92834W        W35850  17.061  20.462   7.730  0.1385 -0.0471 -0.1602
92835W        W35851  32.692  22.410  23.870  0.3094 -0.1684 -0.1131
92836W        W35852  13.212  12.507   5.482  0.2654  0.2287  0.0060
92837W        W35853  17.399   4.312   3.058 -0.0943 -0.2595 -0.1274
92838W        W35854  23.010  19.452   5.403  0.2380 -0.0455  0.0036
92839W        W35855   7.058  20.554   6.032  0.2505 -0.0178  0.0324
92840W        W35856   5.648  11.740   4.214  0.0774  0.0659  0.1576
92841W        W35857  11.013  23.865   5.707  0.0966  0.0727 -0.2293
92842W        W35858  10.139  25.230   1.398 -0.2395 -0.0229 -0.1863
92843W        W35859  31.913   8.597  28.956  0.0375 -0.0903 -0.2024
92844W        W35860  27.923   3.277   5.618 -0.1904  0.2993 -0.0492
92845W        W35861  20.721  19.082   3.086 -0.1328  0.0271 -0.1240
92846W        W35862  11.431   3.108   7.939 -0.1455  0.0522 -0.2651
92847W        W35863  11.358   0.304   2.741 -0.1477  0.3194  0.2313
92848W        W35864  27.193  20.826   1.703  0.1209 -0.1846  0.2416
92849W        W35865  16.924  12.564   5.719  0.1748  0.1998  0.0984
92850W        W35866   8.704  22.015   6.477  0.0161  0.1973 -0.1768
92851W        W35867  27.715   9.446   8.413  0.3626 -0.0615  0.2366
92852W        W35868  14.212  25.674  15.028 -0.0351  0.1257  0.2476
92853W        W35869  33.078  17.761  16.001  0.3221  0.3615  0.0288
92854W        W35870  22.074  30.284   9.223  0.1459 -0.0499 -0.2713
92855W        W35871   5.744  25.579   4.343  0.0458  0.0338  0.0589
92856W        W35872  28.624  21.502  20.682 -0.1199  0.0487  0.0389
92857W        W35873  19.343   4.115   5.364 -0.0538 -0.1279  0.0782
92858W        W35874   7.362   8.497   6.130  0.2813  0.5348  0.2158
92859W        W35875   6.390  18.556  16.958  0.3870  0.0166 -0.0628
92860W        W35876   4.147   5.733   6.728  0.2159 -0.1718 -0.3532
92861W        W35877  12.145  16.764  12.248 -0.1476  0.0370  0.2720
92862W        W35878   8.387  23.347  27.302  0.1850 -0.0319 -0.1475
92863W        W35879   6.234  27.397  28.905  0.0515 -0.0149  0.3388
92864W        W35880  12.229  11.167  24.237 -0.3656 -0.0270  0.1457
92865W        W35881  19.508  14.356  28.639  0.1760 -0.3420  0.0532
92866W        W35882  19.781  29.755   2.071  0.0471 -0.2137  0.1070
92867W        W35883  33.746  10.276  21.900 -0.2326 -0.1904  0.0309
92868W        W35884  25.218  10.610  11.008  0.0596  0.4043 -0.1202
92869W        W35885  14.146  15.732   4.916 -0.0272 -0.0787 -0.1105
92870W        W35886  15.311  29.992   6.208  0.1359  0.1494 -0.1941
92871W        W35887  23.685  17.091   2.302  0.0457 -0.2399 -0.1803
92872W        W35888  23.553  20.825   5.827 -0.3719 -0.1784  0.2374
92873W        W35889  32.253  20.160   5.742 -0.0322 -0.1651 -0.0800
92874W        W35890  13.158  22.935  23.823  0.0931 -0.2764 -0.0210
92875W        W35891   8.548  26.018  14.842 -0.2388 -0.2016 -0.1837
92876W        W35892   8.212  23.170  15.982  0.0994 -0.0461 -0.0024
92877W        W35893   1.721  19.885   3.593  0.0621 -0.3721 -0.1391
92878W        W35894   1.365  27.056   1.678  0.1863 -0.1360  0.1094
92879W        W35895  17.185   9.337   1.384 -0.3008 -0.1105  0.3259
92880W        W35896  17.168  10.688   2.731  0.0516  0.1595  0.1706
92881W        W35897  13.360  25.235   6.612 -0.0981  0.0102 -0.0912
92882W        W35898  20.163   8.738   6.938 -0.0829 -0.1802 -0.0369
92883W        W35899  23.951  29.052   0.311 -0.0238 -0.1935 -0.2140
92884W        W35900  10.780   3.560  28.278 -0.1844  0.1768  0.2390
92885W        W35901  30.359   6.693   8.086 -0.0321  0.1108 -0.1581
92886W        W35902   7.185  32.907  24.060 -0.2921 -0.1683 -0.2911
92887W        W35903   6.709  21.890   3.921  0.0239 -0.0546 -0.2573
92888W        W35904  21.754  26.858   5.083  0.0278  0.1497 -0.1143
92889W        W35905   4.235   7.351  25.783  0.0196  0.0103  0.2469
92890W        W35906  18.564  25.299   0.891  0.1122  0.2286  0.1122
92891W        W35907  15.123  14.147  21.608 -0.0406  0.0336 -0.1242
92892W        W35908  23.461   1.416  28.456 -0.0607  0.0253  0.3762
92893W        W35909   4.177  21.770   2.993  0.1006  0.5360 -0.0309
92894W        W35910   8.821  16.450  19.358 -0.0569  0.1614  0.0387
92895W        W35911  20.249   3.566  21.679 -0.2310 -0.1512 -0.2687
92896W        W35912  27.469   6.877  25.438 -0.1785 -0.1799 -0.1039
92897W        W35913  14.097  14.025  25.064 -0.1624  0.1426  0.0945
92898W        W35914   9.276  15.597  25.665 -0.1735 -0.3752 -0.1438
92899W        W35915  17.172  16.883   4.816  0.2498 -0.3785  0.4241
92900W        W35916   7.885  12.460   1.129 -0.0665 -0.4424 -0.0179
92901W        W35917  17.872  12.173   2.530 -0.4192 -0.0489  0.0377
92902W        W35918  15.656   7.282   7.091  0.4085  0.1151  0.2712
92903W        W35919  21.001  20.730   5.559  0.2023  0.3910 -0.1233
92904W        W35920  11.653  20.385   5.314  0.2785 -0.3171  0.1192
92905W        W35921  34.272   2.019   1.374 -0.1421 -0.1252  0.6507
92906W        W35922  16.609  17.737  15.688 -0.4583 -0.0386  0.3753
92907W        W35923   5.837  26.007  20.665 -0.1301 -0.2397 -0.0559
92908W        W35924   9.216   4.768   7.361 -0.4640  0.1463  0.0346
92909W        W35925  23.222  18.935   0.106  0.2165 -0.1388  0.0870
92910W        W35926  20.634  16.073  26.801 -0.2597 -0.0796  0.0980
92911W        W35927  14.564  23.241   8.647  0.4232  0.0665 -0.0505
92912W        W35928  12.893  21.407   1.435  0.1647 -0.4572  0.3178
92913W        W35929  20.752  16.447   5.953  0.2150 -0.3223 -0.2581
92914W        W35930  17.517  26.342   0.774 -0.1098  0.3504  0.2038
92915W        W35931   4.284  13.812   7.875 -0.0515 -0.3403 -0.1260
92916W        W35932  20.830  19.880  24.252 -0.0790 -0.2769 -0.1004
92917W        W35933  16.167  27.200   2.765  0.0626  0.1715 -0.2563
92918W        W35934  14.084  33.060   6.378  0.1869 -0.0306 -0.1040
92919W        W35935  18.961  30.882   2.490 -0.3988 -0.1464  0.1940
92920W        W35936  10.851   5.321  22.260  0.0329 -0.2780 -0.1113
92921W        W35937  18.686  19.403   7.622  0.2179  0.1371 -0.2193
92922W        W35938  16.302   0.892  28.696 -0.4948  0.0085 -0.0891
92923W        W35939  12.740  22.491   6.876  0.2758  0.2238  0.2386
92924W        W35940  16.302  16.565   0.215 -0.0637 -0.1596  0.1014
92925W        W35941   4.468  18.786   9.694  0.1395 -0.6117 -0.0448
92926W        W35942  34.725  13.153   7.137 -0.1617 -0.0659  0.0507
92927W        W35943  12.300  19.762  24.957 -0.1622  0.5141  0.3317
92928W        W35944  20.691   3.610  21.925 -0.0006  0.2594 -0.0276
92929W        W35945  18.955  15.439  20.515  0.0288  0.5048 -0.0774
92930W        W35946  11.973  16.587   4.781  0.0258  0.1222  0.0154
92931W        W35947  19.050  14.456   5.533  0.0099 -0.0463 -0.2110
92932W        W35948   6.708   6.701   0.013 -0.1291 -0.0633  0.0098
92933W        W35949  16.484  20.478  15.720  0.0258  0.1247 -0.2546
92934W        W35950  24.386  23.048   8.749  0.2594 -0.1443  0.1414
92935W        W35951  13.977  16.162  23.288 -0.1134  0.1831  0.1843
92936W        W35952  13.390  18.869  20.327 -0.0319  0.1306  0.2853
92937W        W35953   1.321   9.777   1.489  0.2209  0.0162 -0.0306
92938W        W35954   1.064  20.109  10.013 -0.1977  0.1215  0.3019
92939W        W35955  28.457  15.559   0.549 -0.1026 -0.2163 -0.1211
92940W        W35956  11.242  27.239  26.726  0.0949  0.0788  0.2304
92941W        W35957  18.498  30.318  25.111  0.3556  0.2314 -0.2117
92942W        W35958  23.069  34.754   5.476 -0.1201 -0.2923  0.1718
92943W        W35959  32.324  28.256  21.526 -0.4994 -0.2865  0.2296
92944W        W35960  24.485  13.037  15.897 -0.3073 -0.1108  0.0331
92945W        W35961  34.634  14.386  19.986 -0.2508  0.0506 -0.1934
92946W        W35962  10.554  27.558  22.802 -0.0644  0.1209 -0.2943
92947W        W35963  11.813  19.775  14.323  0.1500 -0.1057 -0.3526
92948W        W35964  17.730  17.470   8.482 -0.0516 -0.1511 -0.0181
92949W        W35965  24.615  28.041  24.632  0.2630  0.2299  0.1729
92950W        W35966   3.068  17.093   4.549 -0.0210  0.2189 -0.2137
92951W        W35967  16.838  21.610  15.045 -0.0288 -0.1744  0.2570
92952W        W35968  10.949  13.542   3.899 -0.2193 -0.0592  0.0644
92953W        W35969  25.490  17.157  27.116 -0.2682  0.3751 -0.0264
92954W        W35970   3.494  14.699  29.225 -0.0921  0.2424 -0.1915
92955W        W35971   7.093  29.938  28.618  0.0381  0.1571 -0.1406
92956W        W35972  14.400   5.283   6.988 -0.0864  0.2687 -0.0426
92957W        W35973  15.092  21.843   3.905  0.1366 -0.2508  0.3784
92958W        W35974  23.938  12.883   7.047 -0.2132 -0.1418 -0.0735
92959W        W35975  12.492  20.453   4.574  0.1219  0.2318  0.2403
92960W        W35976  11.929  12.703  25.798  0.1733 -0.1927  0.2673
92961W        W35977   7.974  14.449  27.594  0.2451  0.0236 -0.1598
92962W        W35978  13.857  21.936  24.698 -0.0201 -0.0602  0.0327
92963W        W35979  10.350  25.449  24.085 -0.2948  0.4071 -0.1915
92964W        W35980  16.171  25.425  24.183 -0.0106 -0.0024 -0.0973
92965W        W35981   8.590  31.456  24.835  0.0738 -0.0736 -0.0394
92966W        W35982  20.933  17.232   8.012  0.1155 -0.1621 -0.0155
92967W        W35983   2.523  26.946  25.271 -0.2030  0.1026 -0.2716
92968W        W35984  18.373   0.338  21.799 -0.1195 -0.3267  0.0018
92969W        W35985  21.129  17.925   3.937  0.0399  0.0154  0.1752
92970W        W35986  21.786  27.172   0.573  0.3023  0.1620  0.2156
92971W        W35987   0.775   6.552   7.373 -0.0670 -0.1923  0.0944
92972W        W35988  12.785  25.730   7.017 -0.1386 -0.0314  0.0530
92973W        W35989  15.690  17.476   1.872 -0.0285 -0.1325 -0.2172
92974W        W35990   7.787  28.776   9.883  0.0278 -0.0910 -0.1933
92975W        W35991  24.886  11.720  22.036  0.1747 -0.2922  0.0610
92976W        W35992  23.223  34.639   0.463  0.1505 -0.0402  0.2294
92977W        W35993   2.902  24.613   4.918  0.1699 -0.0588 -0.2166
92978W        W35994  10.802  17.330   1.057 -0.0894 -0.0380 -0.3319
92979W        W35995   1.927  22.817   9.655 -0.2072 -0.0825 -0.3637
92980W        W35996  17.358  29.722   2.681  0.0943  0.1048 -0.1424
92981W        W35997   4.408  23.547   2.535  0.1469 -0.2553 -0.0925
92982W        W35998  32.755  22.149  22.983  0.1584 -0.1909  0.0453
92983W        W35999  22.031  29.015  18.598  0.1044  0.2881  0.1665
92984W        W36000  23.136   6.565   3.108  0.1141 -0.4624 -0.0628
92985W        W36001   4.546  31.530   9.380  0.0557  0.0800 -0.3166
92986W        W36002  13.578  20.724  26.572 -0.0840 -0.0483 -0.0786
92987W        W36003  11.473  21.629  29.287  0.0466  0.0871  0.0234
92988W        W36004   8.948  29.939   2.300 -0.1886  0.0243 -0.1495
92989W        W36005   9.334  21.852   0.654  0.0421  0.0577  0.2081
92990W        W36006  31.759  14.181  28.085  0.1867 -0.3413  0.1345
92991W        W36007  17.707  13.985  13.779 -0.2259 -0.0522  0.1601
92992W        W36008  30.714  15.920  21.654 -0.0642 -0.0270  0.1348
92993W        W36009   5.286  25.943   4.128 -0.0472  0.1808 -0.0462
92994W        W36010  12.397  34.286   7.319 -0.0919  0.1744 -0.1210
92995W        W36011  14.208   2.009   4.789 -0.0444  0.3137  0.2004
92996W        W36012  22.540  19.936   6.701 -0.0117 -0.0855  0.2726
92997W        W36013  32.445   5.720   9.144  0.0185  0.1471  0.3059
92998W        W36014   4.261   6.384   2.980  0.1350  0.2301  0.1902
92999W        W36015  20.164  25.085  26.120 -0.0918  0.1616 -0.0325
93000W        W36016   7.453  19.862  20.947 -0.0190  0.2972 -0.1420
93001W        W36017  23.741  11.559   6.782  0.1699 -0.2924  0.0605
93002W        W36018  26.380  27.633   9.408 -0.0538  0.3137 -0.0885
93003W        W36019   6.195  31.961   6.354  0.2224 -0.1779 -0.0155
93004W        W36020   9.764  12.586   3.572 -0.0935 -0.3646 -0.1552
93005W        W36021  22.779   0.837  10.226  0.4315  0.2343  0.0022
93006W        W36022  16.739  14.874  27.494 -0.1377  0.0901 -0.0772
93007W        W36023  22.194  33.536  29.181 -0.2530  0.1351 -0.0841
93008W        W36024  16.439  15.385   1.435  0.1303  0.2087 -0.0300
93009W        W36025  14.698  14.912   6.357 -0.2008  0.3877 -0.0109
93010W        W36026   4.647  32.129  24.761  0.0852  0.0126  0.0784
93011W        W36027  19.824  17.050   5.235 -0.2621  0.0288  0.1069
93012W        W36028   3.414  18.500   7.668 -0.0487  0.1299 -0.6281
93013W        W36029  29.980  21.262  28.961 -0.0641 -0.1346 -0.0426
93014W        W36030   2.856  13.761  28.243 -0.2315  0.0927 -0.2043
93015W        W36031  15.333  12.498  26.408  0.1006  0.1086  0.0591
93016W        W36032  21.026  28.137   5.165 -0.1024 -0.1812  0.0067
93017W        W36033  15.924  17.814  28.098  0.0924  0.1572  0.1349
93018W        W36034  19.261  30.053   9.320  0.1832 -0.1799  0.2475
93019W        W36035  12.161  13.459  23.426 -0.0322  0.0574  0.1816
93020W        W36036  34.020  29.111   6.896 -0.1443  0.2453  0.4377
93021W        W36037  10.445  17.868   2.850  0.2132 -0.0574  0.6074
93022W        W36038  12.315  28.952  15.541  0.1234  0.0378  0.5070
93023W        W36039  27.089  19.922   4.118  0.0407 -0.0659 -0.0846
93024W        W36040  18.714   0.410  25.712 -0.1912 -0.0880  0.0413
93025W        W36041  33.010  17.574   7.283  0.3777 -0.0423 -0.4717
93026W        W36042  26.057  24.296  22.603  0.0921  0.1797  0.0199
93027W        W36043  10.913   3.827   7.998  0.2004 -0.0660 -0.0160
93028W        W36044  10.633  22.324  28.812  0.0378 -0.1798 -0.0780
93029W        W36045  25.235  25.497   6.453  0.1989 -0.1205  0.0187
93030W        W36046  14.043  17.967  27.446  0.2775 -0.2192  0.2159
93031W        W36047  12.004  19.657   4.586  0.2592 -0.1378 -0.0628
93032W        W36048  31.337   0.760   1.232 -0.1112 -0.2725 -0.0742
93033W        W36049  14.886  17.047   0.064  0.1655  0.1337 -0.0375
93034W        W36050  19.686  24.710   7.389 -0.0957  0.0934  0.2044
93035W        W36051  17.205   2.720   6.285 -0.0790 -0.0741  0.0483
93036W        W36052   4.321  22.649   5.630  0.0481  0.2105  0.3174
93037W        W36053  11.649  24.019   3.053 -0.3135 -0.0055  0.0959
93038W        W36054  11.942  15.094  24.753 -0.1460 -0.1170  0.0629
93039W        W36055  32.235   4.669   6.013  0.2503  0.1139 -0.1056
93040W        W36056   7.617  12.179  28.884  0.0075  0.0168  0.0153
93041W        W36057  15.078  30.124  28.636 -0.1482  0.2586  0.1711
93042W        W36058  26.215  23.968   0.293  0.1153 -0.1750 -0.2601
93043W        W36059  18.233   7.059  26.966 -0.0995  0.0074 -0.1659
93044W        W36060  11.639  30.443   2.382  0.2867  0.1051  0.1012
93045W        W36061  23.012  14.029   1.950  0.0043 -0.3427  0.2234
93046W        W36062   9.368  21.839  27.413  0.1719 -0.0220 -0.3145
93047W        W36063  22.303  26.521  17.395 -0.0830 -0.1592  0.0624
93048W        W36064   5.532   9.578  25.035  0.0048  0.1682 -0.0284
93049W        W36065  20.385  27.304   9.607 -0.1291 -0.1034 -0.0249
93050W        W36066  22.877   5.727   3.212 -0.0233 -0.1984 -0.0490
93051W        W36067  14.939  17.393  24.757 -0.1786 -0.4311 -0.1223
93052W        W36068   5.336  29.301  25.697 -0.1646  0.2379 -0.1716
93053W        W36069   9.150  24.318  26.731 -0.0979 -0.0121 -0.3017
93054W        W36070  23.302  20.851  10.138  0.2624 -0.0375 -0.0346
93055W        W36071  28.658  22.896   7.719 -0.2977 -0.2515 -0.2220
93056W        W36072  12.288  23.379   4.046 -0.0648 -0.0967  0.0373
93057W        W36073  10.566  29.485  16.040 -0.4898  0.3079  0.1515
93058W        W36074  16.952  17.546  25.059 -0.0573  0.1841 -0.0840
93059W        W36075  12.138  25.873   3.110  0.0340  0.1758  0.1906
93060W        W36076  16.324  20.155  14.286 -0.0695 -0.5282  0.1575
93061W        W36077  10.115   2.262  27.358  0.1059  0.1511  0.1148
93062W        W36078  11.946   0.281  24.942 -0.0720 -0.1404 -0.0662
93063W        W36079   3.612  29.862  24.743  0.1867 -0.0457 -0.2129
93064W        W36080  10.996  26.941   4.039 -0.0101 -0.4211  0.0532
93065W        W36081   7.174  21.875   1.586 -0.1483  0.0249  0.0963
93066W        W36082  12.965  15.200   1.311 -0.1069 -0.0812 -0.1564
93067W        W36083  26.632  19.002   3.482 -0.2551 -0.2238 -0.0665
93068W        W36084   5.845  29.675   1.035  0.2673  0.1002 -0.3657
93069W        W36085  32.541   2.656  17.352  0.0292 -0.1418 -0.2198
93070W        W36086   3.858  31.273   7.151 -0.1275  0.3886 -0.3438
93071W        W36087  19.551  17.001  21.929  0.2449  0.3782 -0.4093
93072W        W36088  10.233  17.334  28.724  0.0884  0.3559 -0.0134
93073W        W36089  22.959  18.180  27.666  0.1451  0.0212 -0.0949
93074W        W36090  30.248  13.082   3.852  0.2962 -0.2514 -0.1847
93075W        W36091  16.741  34.271   9.745  0.2319  0.1099  0.1721
93076W        W36092   0.379  13.250   7.824 -0.1398 -0.0152  0.0219
93077W        W36093   3.705  10.469  28.825  0.0079  0.3688  0.2801
93078W        W36094  18.381  12.474  29.204  0.0824  0.1085  0.1722
93079W        W36095  27.350  13.566   6.822 -0.1961  0.2041  0.0033
93080W        W36096  20.607  21.472   8.165  0.2729 -0.2793  0.4240
93081W        W36097  32.180  15.306   9.824 -0.1329 -0.1965 -0.5099
93082W        W36098  26.281  21.635  23.764 -0.2506 -0.1802  0.0157
93083W        W36099  28.421  21.140  11.620  0.0391 -0.0925 -0.0469
93084W        W36100  34.343  24.939   5.083 -0.0380 -0.2298  0.1331
93085W        W36101   3.023  31.151   7.020 -0.2705 -0.0587  0.0944
93086W        W36102  26.193  30.638   4.881  0.1307  0.0191  0.1468
93087W        W36103   5.932  29.303   5.222  0.4249 -0.0017  0.1486
93088W        W36104  10.463  21.141   5.799  0.3758  0.1131  0.3157
93089W        W36105   8.648  26.803  19.412 -0.1570 -0.1706 -0.1384
93090W        W36106  31.514  25.551  20.954  0.1665 -0.2235 -0.0044
93091W        W36107  13.627   2.647   2.282 -0.2430 -0.1680  0.0887
93092W        W36108  11.031   2.781   1.783  0.3845 -0.3754 -0.0694
93093W        W36109  11.827  29.037   1.608 -0.3997  0.0988 -0.1635
93094W        W36110  11.283  23.394  28.095  0.2412  0.0599 -0.1462
93095W        W36111  13.767  22.915  26.842  0.0968 -0.2606  0.2451
93096W        W36112   4.783  17.031   2.479 -0.2819  0.0785  0.0675
93097W        W36113  11.313  12.125   8.452  0.0518 -0.3660  0.2131
93098W        W36114  17.278   2.690  24.545 -0.0944 -0.3917  0.0485
93099W        W36115  22.198   6.097   9.166  0.0942 -0.1103 -0.1807
93100W        W36116  34.540  23.081   9.618 -0.1920  0.0464  0.0404
93101W        W36117  14.040  31.270   5.868  0.2818 -0.0015  0.3164
93102W        W36118  16.561  32.537   7.759 -0.0922  0.1646 -0.0512
93103W        W36119  18.028  34.167   2.575 -0.1278 -0.4050 -0.0980
93104W        W36120  21.626  18.553  24.725  0.0709  0.1937 -0.2450
93105W        W36121  13.073  13.865  21.645  0.1436 -0.2332  0.0019
93106W        W36122  12.718  17.305  13.519 -0.3134 -0.1371  0.0210
93107W        W36123  28.290  15.625   8.379  0.0693 -0.0665  0.1010
93108W        W36124  25.755   9.323   9.438 -0.2482 -0.2664 -0.1086
93109W        W36125  25.914  12.777   6.591  0.0973 -0.1102  0.0059
93110W        W36126  17.609  14.684   5.213 -0.0415  0.4061 -0.0995
93111W        W36127  21.184  12.950  23.398  0.3456  0.2172 -0.0278
93112W        W36128  10.244   2.162  10.062  0.4088  0.0328  0.1150
93113W        W36129   5.083  28.838   4.248 -0.2673  0.0719 -0.0376
93114W        W36130  13.008  11.766   6.754 -0.5209  0.0824  0.0466
93115W        W36131  15.092  19.006  28.933  0.1714 -0.0980 -0.0812
93116W        W36132  10.004  31.779   8.158  0.2106 -0.4190 -0.1821
93117W        W36133  31.203  19.050  18.458  0.1004 -0.1301 -0.1236
93118W        W36134  15.595  19.092  20.402  0.0292  0.3126 -0.1725
93119W        W36135  13.325  14.200   0.311  0.0192 -0.1519 -0.1795
93120W        W36136   5.988  30.549  28.215  0.0709  0.3671 -0.2088
93121W        W36137  11.271  29.881  28.394 -0.1189  0.0122 -0.1667
93122W        W36138  15.278  20.007   3.621 -0.0376  0.0244 -0.0360
93123W        W36139  16.660  27.041   2.766 -0.1691 -0.0344 -0.0911
93124W        W36140  31.911  20.623   4.757 -0.1382 -0.0203 -0.0632
93125W        W36141  15.364  23.087  17.203  0.1337  0.2518 -0.3275
93126W        W36142  18.938  21.138  28.291  0.0236 -0.1459  0.0251
93127W        W36143  24.033  19.939  23.766  0.1900 -0.1023 -0.0559
93128W        W36144  13.087  23.411   8.450  0.0108 -0.0918  0.0398
93129W        W36145  15.891   6.850  21.901  0.0734  0.0782  0.0011
93130W        W36146  12.226  23.232  23.266  0.0307  0.1379  0.1190
93131W        W36147  32.609  19.098   7.921 -0.0996  0.1847  0.0755
93132W        W36148   7.436  26.599   3.416  0.1481 -0.1320 -0.2353
93133W        W36149  22.654  33.607   4.367 -0.2584 -0.0096  0.4068
93134W        W36150  12.705  22.705   0.425  0.1661  0.0929  0.0128
93135W        W36151  26.364  22.298   2.839  0.1692 -0.0003  0.0869
93136W        W36152  14.962  21.305   0.181 -0.2502  0.0069 -0.1334
93137W        W36153  14.541  23.409   8.144  0.2917 -0.0898 -0.0705
93138W        W36154  31.033  25.356  23.258 -0.0046 -0.0675  0.0709
93139W        W36155   6.036  18.423   8.270  0.0992 -0.1291 -0.1116
93140W        W36156  15.020  29.953   4.866  0.0701 -0.0734 -0.0959
93141W        W36157  21.695   0.513  23.839  0.0036 -0.3250  0.1003
93142W        W36158   7.295  29.838  22.830 -0.3300  0.0040  0.3341
93143W        W36159  15.964   4.976  22.752  0.0189 -0.1092 -0.3428
93144W        W36160   6.688  11.533   6.598 -0.0248 -0.3224 -0.1257
93145W        W36161  14.913  33.697  23.249 -0.1833  0.1758 -0.1667
93146W        W36162  27.605   6.461   5.451 -0.0589  0.1557 -0.0021
93147W        W36163  15.043  21.031   0.601 -0.4063  0.1322 -0.2349
93148W        W36164   6.802  23.521  18.395 -0.1810  0.0785 -0.3095
93149W        W36165  20.863  30.129   6.635  0.1809 -0.2963 -0.1880
93150W        W36166   9.146   8.384   1.482 -0.0258  0.4076  0.0156
93151W        W36167  33.403  30.727   6.534 -0.0677  0.0746 -0.1165
93152W        W36168   8.088   2.297   0.723 -0.2890  0.0576 -0.0529
93153W        W36169   3.590  29.719   9.442  0.1300  0.1453 -0.3262
93154W        W36170  16.471  23.292   7.330  0.1495 -0.1358  0.0593
93155W        W36171  24.495  17.256  24.462  0.4419 -0.2350 -0.0136
93156W        W36172   4.915  31.074  29.254 -0.0869  0.3524 -0.4296
93157W        W36173  10.925  19.632  18.470  0.2438  0.0801  0.1937
93158W        W36174  16.128  28.528  21.636  0.0831  0.0314  0.2574
93159W        W36175   9.507  14.949   4.606 -0.0372  0.4307 -0.1008
93160W        W36176  12.991   6.862   5.038 -0.1113 -0.0005  0.0068
93161W        W36177  12.049   7.407   4.288  0.0695  0.1918 -0.0584
93162W        W36178  13.478   3.445   5.807  0.0278 -0.2359  0.0752
93163W        W36179   1.654   5.627  18.386 -0.0127 -0.1722  0.1377
93164W        W36180   5.893  21.207   2.290  0.0730 -0.1620 -0.3086
93165W        W36181  16.111  25.823   8.106  0.0842 -0.0917  0.2456
93166W        W36182  16.968  19.810   6.816  0.3834 -0.0456 -0.2597
93167W        W36183  12.565  13.758   7.415  0.0171  0.0688  0.0662
93168W        W36184  12.675  33.052   1.000 -0.2269  0.0670  0.2182
93169W        W36185   7.052  17.571  15.817  0.3620 -0.3253  0.0525
93170W        W36186  21.220  18.695   6.753  0.3542  0.0504  0.0066
93171W        W36187  21.897  23.760  23.564  0.0977 -0.3413  0.3998
93172W        W36188   9.781  24.313   2.321 -0.0893 -0.2593 -0.0381
93173W        W36189  29.602  24.662  28.877 -0.1859  0.1838  0.2697
93174W        W36190   3.228  28.454   5.097 -0.0532  0.0230 -0.1766
93175W        W36191   7.917  11.167  26.041  0.0901  0.1081  0.1125
93176W        W36192  18.225  25.367   6.420  0.2571 -0.1603  0.1182
93177W        W36193  24.573   6.899   6.137  0.2355 -0.2083  0.1752
93178W        W36194  11.895   4.707   4.334  0.0853  0.0303  0.1236
93179W        W36195  12.691   7.161   7.597  0.0954 -0.0795 -0.0539
93180W        W36196  29.792  28.401  11.645  0.0616  0.2534  0.0669
93181W        W36197   9.699  22.767  23.369 -0.1284 -0.2676  0.0897
93182W        W36198  23.662  11.993  27.865  0.0242 -0.2322  0.0469
93183W        W36199  14.683  33.284  28.761  0.1288  0.2339 -0.0433
93184W        W36200   5.636  20.356   7.129 -0.1253 -0.0004 -0.1901
93185W        W36201  17.059   0.580   7.898  0.1340  0.2544 -0.0129
93186W        W36202  12.800  26.389   9.739 -0.2489 -0.2739  0.2975
93187W        W36203   6.759  24.622   4.668  0.0202 -0.0094 -0.3680
93188W        W36204  33.138  27.087  28.851  0.0115 -0.0530 -0.2462
93189W        W36205  19.523  18.973   8.581 -0.4607  0.0329  0.0869
93190W        W36206   2.495  10.097  27.734  0.0213  0.6258 -0.1893
93191W        W36207  23.062  27.794   8.248 -0.0069  0.2715  0.1117
93192W        W36208  20.442  31.212  26.837  0.0238 -0.1280  0.0173
93193W        W36209  13.859  12.922   8.603 -0.1287 -0.0133 -0.0974
93194W        W36210  22.965  18.397   7.972  0.0870 -0.3241 -0.1442
93195W        W36211  22.692  13.553  27.386 -0.0668  0.0141  0.1426
93196W        W36212   5.135  10.171  19.090  0.3576  0.0290 -0.1099
93197W        W36213  13.652  12.688  25.225 -0.0097  0.1201 -0.2188
93198W        W36214   5.151  21.201   6.210  0.1799  0.4373  0.2634
93199W        W36215  13.952  27.590  29.247 -0.0075 -0.0342 -0.0395
93200W        W36216  24.858  15.445   6.408 -0.0024  0.0392  0.0640
93201W        W36217  11.417  30.460   6.279  0.3897  0.4841  0.1137
93202W        W36218   4.799   8.978   1.924 -0.0202  0.1491 -0.0220
93203W        W36219  16.861   0.614   4.300  0.0951 -0.0424  0.1906
93204W        W36220  11.700  32.179   2.086  0.2413 -0.0548  0.0449
93205W        W36221   0.708  18.761  27.321  0.0799  0.0231 -0.2528
93206W        W36222  20.844  28.717   5.556  0.0811  0.2768 -0.0166
93207W        W36223  10.872  22.852   7.298 -0.2345 -0.0098 -0.0784
93208W        W36224  16.624  17.044  23.929  0.0581 -0.3010 -0.2501
93209W        W36225  15.451  17.264   8.045  0.0549 -0.0809 -0.0230
93210W        W36226  19.996  13.719  15.771  0.4455  0.0003 -0.2658
93211W        W36227  11.395  19.102   6.290  0.1375  0.2759  0.0440
93212W        W36228  21.094  22.642  14.973 -0.1267 -0.0137 -0.0695
93213W        W36229  21.971  22.705   8.995 -0.1381  0.1774 -0.1701
93214W        W36230  10.954  22.272   6.744 -0.2082  0.0927  0.0630
93215W        W36231   4.736  22.391   9.884 -0.1465  0.4750  0.2574
93216W        W36232  24.906  10.057   8.479  0.0358 -0.0109 -0.1889
93217W        W36233  29.611  18.156  26.247  0.0408  0.3915 -0.2085
93218W        W36234  10.132  22.292   7.342 -0.0872 -0.0209  0.5567
93219W        W36235  34.653   3.403   3.856  0.2767  0.0355  0.0062
93220W        W36236  14.257  10.209   1.937  0.4622  0.0276  0.0970
93221W        W36237  33.545  16.759   7.777 -0.2759  0.0189  0.0697
93222W        W36238  29.916  22.250   9.712 -0.1761 -0.2533 -0.0087
93223W        W36239  10.877  25.898  24.645  0.1318 -0.1661  0.1069
93224W        W36240  12.451  24.135  15.483 -0.0390 -0.2663  0.0431
93225W        W36241  16.717  15.269  24.328  0.3593 -0.2305  0.0536
93226W        W36242  27.563  23.459   3.484  0.0960  0.0856  0.3138
93227W        W36243  12.901  29.525   4.288  0.0870 -0.1742 -0.1757
93228W        W36244  13.319  31.053   5.430 -0.2009 -0.1448  0.0208
93229W        W36245   4.399   4.584  28.016  0.2414  0.0612 -0.1571
93230W        W36246  17.673  29.288   1.804  0.3603 -0.1322 -0.0690
93231W        W36247  10.029  21.234   6.369  0.2865 -0.2534 -0.0207
93232W        W36248   9.553  17.438   7.789  0.3459 -0.2217 -0.0492
93233W        W36249   2.556  11.461  22.320  0.0567 -0.1088 -0.0159
93234W        W36250  11.793   0.276  15.791 -0.2149 -0.2235 -0.3666
93235W        W36251  15.515  23.252   2.594  0.1699  0.1189  0.3643
93236W        W36252  18.589  11.667   6.033 -0.3234  0.0893  0.1338
93237W        W36253  12.848  28.692   8.033  0.0320 -0.1186 -0.0558
93238W        W36254   8.678  27.797  25.017 -0.2482  0.4135 -0.2479
93239W        W36255  20.896  12.840  26.232  0.0827  0.1300 -0.1435
93240W        W36256  23.872  30.855   1.365  0.0773 -0.3416  0.2840
93241W        W36257  26.371  20.511   1.596  0.0245  0.2755  0.0508
93242W        W36258   9.783  16.063  22.686 -0.1267  0.1243 -0.3197
93243W        W36259  23.537  23.530  26.887  0.0133 -0.0017 -0.1069
93244W        W36260  12.119  17.429   6.659  0.0988 -0.1826  0.1007
93245W        W36261   5.839  21.032  20.290  0.3172 -0.3400  0.0393
93246W        W36262   9.705  22.732   5.414  0.2802  0.1401  0.2048
93247W        W36263  26.860  20.749   6.372  0.1313 -0.0478 -0.0634
93248W        W36264  17.952  15.162   0.386 -0.0572  0.1780  0.5433
93249W        W36265  31.391  19.146   3.072 -0.0796  0.3147 -0.1930
93250W        W36266  17.003  11.240  21.604  0.3161 -0.1795 -0.1411
93251W        W36267  23.331  16.096  26.818 -0.2164  0.0447 -0.1320
93252W        W36268  11.570  28.240   9.305  0.1661  0.2418 -0.0368
93253W        W36269  13.783  11.035  17.066  0.0329 -0.2671  0.3928
93254W        W36270   3.729  14.714  25.247 -0.1295 -0.0745  0.0067
93255W        W36271   6.855  20.527  28.099  0.1988 -0.2159 -0.2800
93256W        W36272  18.135  12.796  20.183  0.0984  0.0616 -0.1503
93257W        W36273  16.435  21.174   7.290  0.2721 -0.0662 -0.0257
93258W        W36274  10.950  18.946   6.031  0.2735 -0.0061  0.2496
93259W        W36275  15.543   4.998  21.794 -0.1009 -0.2084 -0.4124
93260W        W36276  31.118  29.651   8.763 -0.2475  0.2787 -0.4000
93261W        W36277  32.127  20.458   5.177  0.2089  0.2532 -0.0606
93262W        W36278   3.730  18.521   3.338  0.1826 -0.1461 -0.1407
93263W        W36279  21.411  23.526   0.464  0.0254 -0.3198 -0.1417
93264W        W36280  21.625  19.508   5.678 -0.1211  0.0600 -0.5186
93265W        W36281  26.361  17.926   6.269 -0.0609 -0.0231 -0.0788
93266W        W36282   9.697  11.529  14.977 -0.1976 -0.0674  0.0372
93267W        W36283   0.819  13.194   8.707 -0.1627  0.1153 -0.2639
93268W        W36284  16.948  22.724  25.406 -0.2011  0.0126  0.5552
93269W        W36285   7.166  20.606  24.211 -0.0052  0.1778  0.0579
93270W        W36286  16.366  27.211   9.684 -0.2088 -0.3187 -0.4164
93271W        W36287   0.889  32.459  24.782  0.1211 -0.1276  0.2813
93272W        W36288  13.884  20.295   6.394  0.1741  0.4068 -0.1551
93273W        W36289  11.582  24.789   6.333  0.0397  0.3954  0.1365
93274W        W36290  24.202  14.489   3.628  0.0988 -0.1974  0.2020
93275W        W36291  17.242  12.157   1.765 -0.1914  0.2482 -0.1044
93276W        W36292  18.935  19.037   1.862 -0.0226  0.2496  0.1113
93277W        W36293  18.582  14.159   0.131  0.2086 -0.2578  0.1947
93278W        W36294  18.961  31.047   8.890  0.0865  0.2821 -0.0222
93279W        W36295   4.404  15.364   5.665  0.1892  0.0950 -0.2138
93280W        W36296   8.611  32.296  25.989 -0.2062 -0.0457  0.0554
93281W        W36297  19.329  33.773   1.344 -0.0766  0.0017  0.0539
93282W        W36298  22.069  27.301   3.785  0.2288 -0.1227  0.1831
93283W        W36299  29.607  20.764   5.417  0.0217  0.0557 -0.0121
93284W        W36300   5.143  18.977  28.052 -0.1098  0.1191 -0.2451
93285W        W36301  22.137  14.942   8.412  0.1122  0.0514  0.1340
93286W        W36302  17.455  30.031   6.149  0.1943  0.1140  0.2350
93287W        W36303   3.181  33.447   2.581 -0.1844  0.0086  0.0272
93288W        W36304   5.611  27.699   3.630  0.2597 -0.3391 -0.1454
93289W        W36305  28.613  21.919   4.012  0.1415 -0.2310  0.1051
93290W        W36306  25.551  21.572   8.484 -0.0398 -0.3820 -0.0108
93291W        W36307   8.672  16.000  24.601  0.1627 -0.1469 -0.1616
93292W        W36308  27.625  23.341  22.632 -0.2100  0.0555  0.0846
93293W        W36309  17.573  25.580  21.771  0.0364 -0.1054 -0.1283
93294W        W36310  13.619   1.375   7.047 -0.1295 -0.1530  0.0658
93295W        W36311  27.148  26.528  23.388  0.0453 -0.1448 -0.0687
93296W        W36312   8.796   1.519   5.508  0.1625  0.0372 -0.0668
93297W        W36313  12.202  13.263   1.068  0.0766 -0.0708 -0.0594
93298W        W36314  12.733  15.030  19.979 -0.4074  0.1593  0.1421
93299W        W36315  13.741  18.642   1.519  0.1106 -0.1074  0.2426
93300W        W36316  12.549   5.218  27.815 -0.1522  0.1999  0.2601
93301W        W36317  19.342  25.159   9.385 -0.0917 -0.0562  0.0668
93302W        W36318  17.097  16.924   5.642 -0.1527 -0.2626 -0.2328
93303W        W36319   3.137  15.376  17.525 -0.0383 -0.0339  0.3449
93304W        W36320   2.937  30.982  28.274 -0.1388 -0.2160 -0.0594
93305W        W36321   5.500   4.287   9.495 -0.1361  0.1979  0.1438
93306W        W36322  14.866  13.525   7.807 -0.0577 -0.0286  0.3701
93307W        W36323   1.953  14.453   6.155 -0.3252 -0.0826  0.0293
93308W        W36324  11.464  19.588   1.369  0.0228 -0.0719  0.0857
93309W        W36325   7.650   6.468   5.075 -0.2555  0.2900 -0.2510
93310W        W36326  10.525  10.030  25.923 -0.0850 -0.3348 -0.1915
93311W        W36327  21.333  11.870   5.462  0.0452  0.2115  0.5124
93312W        W36328  14.871   2.806   3.108  0.2962 -0.2794 -0.0742
93313W        W36329  21.482  12.380   9.139  0.0864 -0.0829  0.1453
93314W        W36330  16.366   8.093   7.887 -0.1033  0.0867  0.2182
93315W        W36331  12.749  28.908  23.076  0.3102 -0.0099 -0.2064
93316W        W36332  14.639  13.055   4.204 -0.2425 -0.0356 -0.1514
93317W        W36333  16.933  24.504   7.251  0.2264  0.0806  0.1825
93318W        W36334  34.526  19.053   9.257  0.1286  0.0470 -0.0109
93319W        W36335  31.920  13.129   0.462 -0.1535  0.1818 -0.1393
93320W        W36336  26.046   3.898   3.200 -0.3507  0.0611  0.2472
93321W        W36337  14.034  29.480   0.307  0.0570  0.3512  0.1334
93322W        W36338  13.454  28.170   6.007 -0.2634 -0.0302 -0.2034
93323W        W36339  11.525  10.122   9.100  0.3836  0.1128 -0.1742
93324W        W36340   4.290  16.847   2.392  0.1395  0.1865 -0.0931
93325W        W36341  14.606  24.863  17.923 -0.1545  0.0603  0.2410
93326W        W36342  21.307   6.559   9.483  0.1351  0.1526  0.0185
93327W        W36343  10.265  18.397   7.947  0.1207 -0.1515 -0.1442
93328W        W36344  27.615  10.497   3.655  0.2096 -0.2695 -0.2564
93329W        W36345   4.283  24.464   5.706  0.1472  0.1478  0.0238
93330W        W36346  11.383  24.752   2.653  0.0218  0.0075 -0.2919
93331W        W36347  11.297  33.636   8.925  0.1553 -0.1301  0.0608
93332W        W36348  14.700  26.075  21.335 -0.0939  0.2430 -0.1312
93333W        W36349   7.297  17.696  28.606 -0.3876 -0.1959 -0.0779
93334W        W36350  25.415  22.334   5.552 -0.0060  0.2243 -0.0957
93335W        W36351   2.072   6.681  29.100 -0.0573 -0.0952  0.0965
93336W        W36352   9.868  15.895   1.709 -0.1074 -0.0032  0.5498
93337W        W36353  19.776  18.010   7.029 -0.0597 -0.3002 -0.0612
93338W        W36354   5.323  14.524  28.051 -0.3265 -0.2516  0.1919
93339W        W36355  14.923  15.764  18.545  0.1645  0.4913  0.3296
93340W        W36356  10.851   8.338  20.863  0.0411 -0.1245  0.2536
93341W        W36357  17.050   7.846   7.680 -0.0373  0.3771 -0.0011
93342W        W36358   1.571  22.509  20.836 -0.1380 -0.2163 -0.3333
93343W        W36359   2.086  31.157   6.654  0.0301  0.1237  0.4125
93344W        W36360  20.755  22.686   6.925  0.0198 -0.0107  0.1362
93345W        W36361  11.650  26.055   2.464  0.0599 -0.0296 -0.3221
93346W        W36362  29.019  25.282  22.317 -0.2179 -0.2166 -0.2657
93347W        W36363  23.178   2.206   9.984  0.0612 -0.2466  0.3033
93348W        W36364  20.037  13.950   6.138 -0.2210  0.0009  0.1992
93349W        W36365  21.393  20.073  28.723  0.0954  0.2263  0.1770
93350W        W36366  14.438  15.976   1.412  0.0356  0.0179 -0.1617
93351W        W36367  22.686  15.224  19.257 -0.0162 -0.0271 -0.0853
93352W        W36368  23.968  22.484  20.172  0.0828 -0.2665 -0.1420
93353W        W36369   9.217  30.289   3.172  0.0757 -0.1770 -0.2729
93354W        W36370  21.876   9.392   8.648 -0.2058  0.0834 -0.2544
93355W        W36371  25.804  10.803   6.817 -0.1864 -0.1371 -0.1583
93356W        W36372   8.381  27.133  27.867 -0.2245  0.0345 -0.1035
93357W        W36373  13.537   2.200  28.606  0.1247  0.0508  0.1927
93358W        W36374  20.730  22.820   6.430 -0.1428 -0.1936  0.2118
93359W        W36375  14.605   4.170   1.213 -0.1251 -0.1862  0.1137
93360W        W36376  13.164  32.143  28.231  0.0187 -0.0090  0.3724
93361W        W36377  26.111  19.690   1.083  0.0431 -0.4502  0.0642
93362W        W36378  11.461  23.394  20.936  0.0950  0.7032  0.0195
93363W        W36379   8.015   9.373   5.817  0.2056  0.1560 -0.3294
93364W        W36380  14.261  24.201  28.224  0.0842  0.0456 -0.1269
93365W        W36381   5.462   9.400   6.019 -0.0653  0.1368  0.1158
93366W        W36382   1.513  25.599   9.993  0.0449 -0.1364 -0.0944
93367W        W36383  28.003   4.600   6.965  0.1425 -0.3435 -0.0140
93368W        W36384  19.882   9.640  28.670  0.0636  0.0091 -0.0094
93369W        W36385   5.734   6.712  10.147  0.0491 -0.1317  0.1726
93370W        W36386   8.841  25.250   4.313  0.0019 -0.0397  0.1260
93371W        W36387  16.419  15.578   0.939 -0.1312 -0.2385 -0.1317
93372W        W36388   8.646  25.263   0.799  0.1710  0.0456 -0.1518
93373W        W36389  29.174  14.954   6.520  0.2167  0.2796 -0.1049
93374W        W36390  13.188  28.605  10.206 -0.0923  0.2997 -0.3339
93375W        W36391  16.944  30.357  27.048  0.1877  0.3225  0.0437
93376W        W36392  15.408   3.813   3.809 -0.1527  0.1553 -0.2799
93377W        W36393   5.083  32.640   2.747  0.0019  0.1478  0.1317
93378W        W36394  14.326  28.865  29.032 -0.1945  0.1877 -0.0194
93379W        W36395   8.141  26.639   8.891  0.2495  0.1443 -0.1413
93380W        W36396  20.103  13.206   5.164  0.3559 -0.0726  0.0181
93381W        W36397   5.944   0.332  23.921 -0.4000  0.0328 -0.3551
93382W        W36398   5.209  21.422   4.418  0.2204  0.0865 -0.2345
93383W        W36399   5.873   1.059  28.408  0.2163  0.1860  0.0576
93384W        W36400   7.854  16.313  24.188  0.0539 -0.1160 -0.1384
93385W        W36401  11.857  12.576   6.771  0.0764  0.1197  0.1137
93386W        W36402  33.245  16.663  28.466 -0.1212 -0.1651 -0.3000
93387W        W36403   9.267   8.588   7.852  0.0592  0.1406  0.1841
93388W        W36404  32.269   4.028  15.280  0.1656  0.0803  0.0311
93389W        W36405  10.011  12.296   0.672  0.1732  0.0002 -0.3226
93390W        W36406  11.677  23.200  27.892  0.1156 -0.1752  0.1812
93391W        W36407  28.297   6.218  27.383  0.1487  0.2031 -0.0264
93392W        W36408   6.359  12.657   8.654 -0.0815 -0.0707 -0.0771
93393W        W36409   8.703   0.563   7.471 -0.1125  0.0650 -0.2675
93394W        W36410   7.312   9.522   1.863  0.0538  0.1236  0.1299
93395W        W36411  33.683  33.451   8.298  0.1917 -0.1493  0.1797
93396W        W36412  25.430  15.588  26.471  0.1538  0.1690  0.0239
93397W        W36413  16.357  29.400   5.462 -0.2126 -0.0483  0.0415
93398W        W36414  20.411  18.898  24.984 -0.3046  0.1629  0.0576
93399W        W36415  19.506  30.216  15.246 -0.2088 -0.3025 -0.0603
93400W        W36416  28.836   5.165   1.512  0.0694 -0.1064  0.0653
93401W        W36417   0.290   1.550   9.368 -0.1399  0.0618 -0.0518
93402W        W36418  30.163   6.276   0.908 -0.2307 -0.0105 -0.0108
93403W        W36419   4.867  34.757   3.810 -0.0318 -0.1553  0.1214
93404W        W36420  34.758  19.469   4.065 -0.1076  0.1107  0.1556
93405W        W36421  25.685  19.847   5.229  0.0135 -0.0339  0.0606
93406W        W36422   6.765  18.762  20.321 -0.0327 -0.1334 -0.1250
93407W        W36423   4.792  24.607   4.670 -0.1880 -0.2146  0.1821
93408W        W36424  30.386  22.402   9.893  0.1555 -0.0059 -0.0681
93409W        W36425   7.450  17.962  12.271  0.3574 -0.0867  0.0544
93410W        W36426   8.755  21.824   3.517  0.0401 -0.1094  0.0540
93411W        W36427   8.453  32.857   2.870 -0.0359  0.0099  0.3141
93412W        W36428  16.124  13.688   2.057  0.0276 -0.0456  0.4173
93413W        W36429   8.793  19.318   0.065 -0.0933 -0.1509  0.0458
93414W        W36430   4.542  17.610  25.577  0.0378 -0.3307  0.2489
93415W        W36431  23.407  18.432  25.198 -0.2933 -0.0449  0.0841
93416W        W36432  14.072  33.994   4.765 -0.1415  0.0088 -0.0900
93417W        W36433  28.390  22.362   7.330 -0.2516  0.1595  0.0590
93418W        W36434   7.859  13.102  21.311  0.0382 -0.3007 -0.1949
93419W        W36435  16.921  33.844   7.456 -0.1620  0.2313 -0.0324
93420W        W36436  28.919  29.936  10.143 -0.0432  0.0518 -0.2571
93421W        W36437  15.588  22.273  29.150  0.1576 -0.1242 -0.2249
93422W        W36438  15.392   5.370   2.366  0.0574 -0.0927 -0.0492
93423W        W36439  24.734  15.646  25.258 -0.3605 -0.1266  0.0945
93424W        W36440  32.905  13.745  24.264  0.2465 -0.0242  0.2614
93425W        W36441  13.983  15.860  22.746 -0.0767 -0.1240  0.1855
93426W        W36442  13.461   3.352   6.347 -0.1810 -0.0917 -0.0463
93427W        W36443  28.856   1.406   3.492  0.2070 -0.0151  0.3207
93428W        W36444  15.042  15.196   3.054 -0.1446 -0.5611  0.4060
93429W        W36445  12.212  19.128  20.987  0.0058 -0.1217  0.1321
93430W        W36446  26.252  26.644   0.685  0.1718 -0.0672 -0.2618
93431W        W36447   9.927   9.344   7.866  0.2227  0.0690 -0.0291
93432W        W36448   4.161  30.890   1.193  0.2912 -0.0690 -0.4109
93433W        W36449  14.048  27.433   7.618  0.1731  0.1699 -0.0795
93434W        W36450  33.681  24.699  26.645 -0.3000 -0.2221 -0.0854
93435W        W36451  16.933  20.530  26.375  0.0938 -0.2592 -0.1015
93436W        W36452   1.549  14.678  26.620 -0.3074 -0.0396 -0.0905
93437W        W36453  31.392   8.044   7.546  0.4261 -0.1281 -0.1124
93438W        W36454   5.237  25.550  21.273  0.2775 -0.2327  0.0194
93439W        W36455   1.786  21.166  25.397  0.1510  0.1399 -0.0892
93440W        W36456  34.647  23.889   4.268  0.2936 -0.0946 -0.0049
93441W        W36457  25.696  31.663   8.676  0.2652  0.2117 -0.1060
93442W        W36458  19.059  34.179   2.999  0.0603  0.1383  0.0221
93443W        W36459   6.948   7.010   8.783  0.0809 -0.0587 -0.2162
93444W        W36460  19.370  30.239   5.257  0.4544 -0.0618  0.1266
93445W        W36461  17.785   7.678   8.654 -0.1009 -0.1935  0.0589
93446W        W36462   5.281  18.141   1.363 -0.0226 -0.0966  0.1499
93447W        W36463  26.434  25.485  17.375 -0.1516  0.1019 -0.0254
93448W        W36464  26.959  18.185   8.009 -0.1533 -0.4085 -0.2678
93449W        W36465  24.150  26.239  10.840 -0.2667 -0.1511  0.0818
93450W        W36466  23.276   9.614   5.084  0.1845 -0.1204 -0.1393
93451W        W36467  18.313  16.608  18.748  0.0563 -0.0367 -0.1481
93452W        W36468  10.065   0.941   4.507  0.1123 -0.1123  0.1746
93453W        W36469  31.801  15.902  27.117 -0.0302  0.1896  0.1629
93454W        W36470  14.162  11.928  17.108 -0.0128  0.2762  0.0428
93455W        W36471  27.109  32.662  10.260 -0.2513  0.1735 -0.1842
93456W        W36472  19.277   6.609   6.766  0.1727 -0.2673  0.1094
93457W        W36473  14.406  24.284   2.742  0.3351 -0.2679  0.0977
93458W        W36474   5.859  22.836  19.405 -0.1696  0.1442  0.0676
93459W        W36475  26.766  15.300  26.784  0.2885  0.0969  0.0469
93460W        W36476  15.197  21.686   8.408 -0.0196 -0.0468  0.0658
93461W        W36477  18.175   9.011   1.971  0.0756 -0.1742 -0.2041
93462W        W36478  20.932  22.091   9.674 -0.1585 -0.1820 -0.0736
93463W        W36479   6.052  19.196  17.488  0.2600 -0.1006 -0.3126
93464W        W36480  22.688  22.708  23.562  0.0003  0.1417 -0.2017
93465W        W36481  14.460   4.511  26.115 -0.1743 -0.0195  0.0368
93466W        W36482   4.618  19.196   8.712  0.4697  0.3535 -0.0712
93467W        W36483  16.514  24.067   8.638 -0.2134 -0.3458  0.1805
93468W        W36484  17.501   7.186   2.042  0.1295  0.2233  0.0117
93469W        W36485  34.704  32.517  26.375 -0.0143 -0.1546  0.0276
93470W        W36486   4.608  33.096   4.148 -0.3208  0.1608  0.1904
93471W        W36487   2.111  29.034   7.769  0.1061  0.3397  0.1946
93472W        W36488  10.005  22.003  22.531  0.0429 -0.0181  0.1155
93473W        W36489   8.994   2.786   8.093  0.0298 -0.2226  0.0046
93474W        W36490  26.805  13.403  10.522 -0.3248 -0.2298  0.2418
93475W        W36491   8.349  20.075   1.892  0.1549 -0.1127  0.3077
93476W        W36492   1.708  33.556  10.678 -0.0982 -0.0793 -0.1248
93477W        W36493  17.972  15.349  29.211 -0.1981 -0.1805 -0.4356
93478W        W36494  18.300  19.945   8.447  0.0102  0.1876 -0.0111
93479W        W36495  15.671  16.908  24.713 -0.1428  0.1075 -0.0057
93480W        W36496  11.935  18.626   8.045 -0.5259  0.0592 -0.0629
93481W        W36497  27.369  13.167   7.539  0.0448 -0.2543  0.0091
93482W        W36498   8.225  16.891   7.229  0.2061 -0.0048  0.0041
93483W        W36499  12.417   0.956  22.514 -0.2621 -0.1075  0.2938
93484W        W36500  12.694  21.209   2.240 -0.0975  0.1684 -0.0748
93485W        W36501   9.640  23.068   7.386  0.1680  0.4505 -0.0535
93486W        W36502   8.861   7.028   4.764 -0.1757 -0.1281  0.1493
93487W        W36503  12.711   0.743   3.818 -0.2397 -0.1378 -0.0698
93488W        W36504  16.253  13.001   1.539 -0.0412 -0.0873  0.1864
93489W        W36505  26.612  12.458  10.619  0.4087  0.3231  0.0902
93490W        W36506  10.909  14.156  25.688  0.0154 -0.3465 -0.3358
93491W        W36507  18.278  16.461  28.556  0.1659  0.0316  0.1721
93492W        W36508   8.122  34.613   3.862  0.0842 -0.0011 -0.2487
93493W        W36509  30.987  20.475   8.123  0.0672 -0.1872 -0.1197
93494W        W36510  22.789  31.997   9.867 -0.0200  0.1694 -0.0935
93495W        W36511  24.309   0.953   9.906 -0.1115  0.0342  0.1198
93496W        W36512  15.412  17.574  28.857  0.1960 -0.1765 -0.2990
93497W        W36513  16.542  19.666   7.078  0.0797 -0.2141 -0.0762
93498W        W36514  11.006  11.461   5.494 -0.2583 -0.2346  0.2729
93499W        W36515  12.058  16.957   4.489 -0.2428 -0.0203 -0.2100
93500W        W36516   9.873   8.286   3.891 -0.0426 -0.0338  0.3502
93501W        W36517  18.290  11.678   6.560 -0.1817  0.0761  0.0139
93502W        W36518  34.478  24.840   5.777  0.1502  0.1339 -0.0030
93503W        W36519  20.165   0.635   4.309 -0.0525 -0.2043  0.2453
93504W        W36520  32.337   9.698  26.855 -0.2014 -0.2702  0.2784
93505W        W36521  33.835  23.268   7.051  0.3366  0.2444 -0.0627
93506W        W36522  15.422  19.805   1.308 -0.1051  0.0333  0.2914
93507W        W36523  15.287  27.566   9.518 -0.0514  0.2077 -0.1157
93508W        W36524   3.743  33.250   7.686 -0.2057 -0.2100  0.2547
93509W        W36525  20.367  15.871  14.724 -0.0083 -0.1668 -0.0020
93510W        W36526  30.467  13.425  27.309 -0.2254 -0.2204 -0.1462
93511W        W36527   6.658  26.960  24.284 -0.2220  0.0237 -0.1130
93512W        W36528  28.643   9.770   8.683 -0.1154 -0.1312 -0.3403
93513W        W36529  12.763  22.649   6.396 -0.0709 -0.0117 -0.1481
93514W        W36530   0.326  16.962  10.661 -0.5231 -0.3558 -0.1202
93515W        W36531  20.491  21.487  26.686 -0.0393 -0.3069  0.1300
93516W        W36532  15.561  24.654   0.217 -0.0918  0.0365 -0.2244
93517W        W36533   3.974  21.006  26.081  0.2547 -0.2512 -0.0621
93518W        W36534  10.214   1.001   1.106 -0.1553  0.1750  0.1445
93519W        W36535  16.777  27.527   4.431  0.0765  0.0254 -0.0064
93520W        W36536  10.496  22.661  29.165  0.2960 -0.2223 -0.3195
93521W        W36537  22.065  17.807   4.952  0.0394  0.0689 -0.2493
93522W        W36538   7.026  17.799   0.284 -0.1331  0.0463 -0.2563
93523W        W36539  16.354  33.873  29.300 -0.0025  0.0523 -0.0520
93524W        W36540  19.123  12.411   0.364  0.0237 -0.0795  0.0621
93525W        W36541   2.106  26.898   7.640 -0.1960  0.0157 -0.1130
93526W        W36542  22.500  20.874  16.654 -0.3826  0.2672  0.2548
93527W        W36543   6.021  22.774  26.422  0.0728  0.0684  0.4487
93528W        W36544  32.244   3.193  15.535 -0.2142 -0.0950  0.0296
93529W        W36545   5.679  17.984   5.878  0.1229  0.0434 -0.1104
93530W        W36546  23.276  28.549   7.553  0.2323 -0.0876  0.2049
93531W        W36547  33.097  13.194  26.782 -0.4244 -0.1817 -0.0557
93532W        W36548  13.196  14.649  24.339 -0.0247 -0.0666  0.0088
93533W        W36549  20.654  15.848  22.954 -0.0464 -0.0984 -0.1790
93534W        W36550  15.981  21.672   3.941 -0.3820  0.1815  0.1291
93535W        W36551  22.004  28.264   3.834 -0.2361  0.1753  0.4734
93536W        W36552  23.318   5.347  27.443 -0.4109  0.0896 -0.0351
93537W        W36553  10.048  16.695  27.522  0.3660 -0.1207 -0.0940
93538W        W36554  20.815  15.471   5.661  0.0718  0.0439 -0.1959
93539W        W36555  15.279  15.969   3.659  0.1670  0.1545 -0.2536
93540W        W36556   8.891   0.306   4.246 -0.1602 -0.2238 -0.1589
93541W        W36557  25.979  28.752   9.385 -0.0600 -0.2036 -0.4854
93542W        W36558  27.324  20.374  10.051 -0.0821 -0.0279 -0.2036
93543W        W36559   4.599  28.368  28.177 -0.0663 -0.1356 -0.2402
93544W        W36560   0.364  10.472   8.402 -0.4078  0.0756 -0.1199
93545W        W36561  16.277  15.292  25.689  0.3019  0.0394  0.1362
93546W        W36562  19.357  17.102   1.880  0.2044 -0.1911  0.1551
93547W        W36563  18.707  21.668   2.479 -0.0129  0.2385  0.1256
93548W        W36564  32.098  21.551  10.579 -0.2571 -0.0001 -0.3491
93549W        W36565   8.833  31.437   3.941  0.0001  0.0923 -0.0123
93550W        W36566   2.976  21.116   7.584  0.2575  0.0517 -0.0063
93551W        W36567  27.611  12.742   9.690 -0.1284  0.3846 -0.0965
93552W        W36568  20.832  15.541   0.227  0.1711 -0.0766 -0.1358
93553W        W36569  21.666   4.875   5.009  0.1447  0.0508 -0.1137
93554W        W36570   2.674  20.606   8.218 -0.1630  0.0735  0.0601
93555W        W36571  19.846   1.170  25.250 -0.0588 -0.0632  0.4186
93556W        W36572   3.264  32.603   6.076  0.1047  0.1020  0.0407
93557W        W36573   6.605  12.837   4.435  0.0826 -0.1475 -0.2607
93558W        W36574  33.780   7.026   2.371  0.0462 -0.0812 -0.1784
93559W        W36575  22.468  19.272  21.004 -0.2379  0.1148  0.1468
93560W        W36576   8.225  25.922  26.235  0.3067 -0.0268 -0.2290
93561W        W36577   8.593  19.609  27.072  0.2780 -0.3630  0.1302
93562W        W36578  17.254  34.483   4.971  0.0231 -0.0463 -0.0123
93563W        W36579  14.217  32.837   5.517  0.0618  0.3693 -0.0838
93564W        W36580   9.037  15.202   4.565  0.0479 -0.1429 -0.0361
93565W        W36581  21.003  15.686  27.997 -0.3474  0.0914  0.3260
93566W        W36582  28.961  12.279  20.689 -0.1240  0.1402 -0.1273
93567W        W36583  17.898  13.924   2.157  0.0329  0.2672  0.0593
93568W        W36584  21.154  16.403   1.113 -0.1758  0.0580  0.0421
93569W        W36585  22.980   8.617   8.269  0.2341  0.0523 -0.0727
93570W        W36586  17.126  23.284  23.902  0.1356  0.0066  0.0852
93571W        W36587   4.953  27.125   6.637 -0.1930  0.0949 -0.0479
93572W        W36588  16.089   2.159   8.408 -0.0878  0.1347  0.0006
93573W        W36589  16.235  17.227   7.865 -0.0231 -0.1148  0.3949
93574W        W36590  11.572  16.190  19.763  0.0735  0.1966  0.1562
93575W        W36591  14.803   8.697  28.462 -0.0273  0.2934  0.0092
93576W        W36592  34.323   6.800  23.470 -0.0844 -0.1542  0.3843
93577W        W36593  14.085   2.322  27.137 -0.0821 -0.1319  0.0811
93578W        W36594   6.458  30.059   3.550 -0.2663  0.3848  0.0158
93579W        W36595   2.873  26.564   4.172 -0.3745 -0.2739  0.0167
93580W        W36596  11.253  14.438   7.339  0.2833  0.1528  0.2276
93581W        W36597  12.960  18.612   3.159  0.1007  0.1228  0.0088
93582W        W36598  19.651  30.506  20.656  0.0457 -0.2843 -0.0292
93583W        W36599  28.624   8.632  28.251  0.1038 -0.0380  0.1270
93584W        W36600  23.651   2.725   0.520 -0.1523 -0.0633 -0.0877
93585W        W36601  22.802  15.741   5.473  0.1580  0.3852  0.2160
93586W        W36602  21.282   8.929   9.162 -0.1029  0.0878 -0.2393
93587W        W36603  10.564  21.181  27.682  0.0862 -0.1022 -0.0424
93588W        W36604  26.831  21.554   4.153 -0.1854  0.3427  0.0591
93589W        W36605   1.009  22.901   7.225  0.0697  0.0944  0.4832
93590W        W36606  14.317  21.422  20.286  0.1455  0.0975 -0.1882
93591W        W36607  30.198   9.835   7.689 -0.2023  0.0745 -0.2696
93592W        W36608  19.068   7.749   6.808 -0.0024 -0.0177  0.0228
93593W        W36609  19.317   6.238   8.416 -0.3903 -0.2969  0.0220
93594W        W36610  17.633  20.043   4.921  0.2146  0.0847  0.1392
93595W        W36611  20.284  11.261  23.783 -0.0401  0.1641  0.1808
93596W        W36612   1.652  13.410   4.712  0.7667  0.1384  0.0718
93597W        W36613  15.263  12.284   4.526  0.0174  0.2425  0.0208
93598W        W36614  14.542  19.718   2.755  0.2360  0.2819 -0.2652
93599W        W36615  17.130  24.145   9.353  0.2747 -0.4007  0.1755
93600W        W36616  12.706  32.170  17.284 -0.2661  0.1055 -0.2793
93601W        W36617   9.860  13.010   3.201  0.1782  0.0605  0.2669
93602W        W36618   9.307   9.191   3.806 -0.1849  0.0505 -0.2397
93603W        W36619   2.217  21.363  22.174 -0.0420 -0.2124  0.0336
93604W        W36620  12.918  14.516   7.071  0.1983 -0.0450  0.0245
93605W        W36621  10.873  12.204   2.538 -0.3151 -0.0515 -0.2224
93606W        W36622  14.207  15.410   2.253  0.1017  0.0622  0.0428
93607W        W36623  10.094  27.951  26.494  0.1405 -0.1037  0.0262
93608W        W36624  34.416  32.508   9.828  0.0552  0.0764 -0.1010
93609W        W36625  23.798  25.122   3.413  0.1027 -0.1416  0.5187
93610W        W36626  31.233  27.615   0.518 -0.0858 -0.2668 -0.0573
93611W        W36627   5.527  28.764  21.830 -0.2367 -0.2543  0.1743
93612W        W36628  16.858  25.716   6.471  0.0494  0.0425  0.1821
93613W        W36629  12.940   1.521  28.757  0.0099 -0.1324 -0.0459
93614W        W36630  17.234  30.893   7.811  0.1855  0.1414 -0.0280
93615W        W36631   8.685   8.899   3.914 -0.0122 -0.0285  0.1875
93616W        W36632  11.986  20.481   2.130 -0.1891 -0.0104 -0.1116
93617W        W36633   9.547   8.066   6.377 -0.1802  0.1084 -0.2848
93618W        W36634  14.490   0.202   9.869 -0.2864  0.0718  0.0041
93619W        W36635   4.468  26.560   0.083  0.1527 -0.0111 -0.3021
93620W        W36636   9.059  28.792  29.311 -0.0422  0.2339 -0.2730
93621W        W36637  18.629   6.229   2.993  0.0232 -0.1066 -0.0431
93622W        W36638  23.218  24.817  27.051 -0.0344 -0.0615 -0.1034
93623W        W36639  18.669  17.242   5.699 -0.1500  0.2410 -0.1285
93624W        W36640  15.105   4.765   1.611 -0.1963 -0.0118  0.0693
93625W        W36641   5.440   8.148  23.146  0.0903  0.0330 -0.1190
93626W        W36642   5.271  33.615  17.629  0.2148  0.1175 -0.1532
93627W        W36643   3.541  14.201   9.261  0.0871  0.3184 -0.3872
93628W        W36644   9.029  16.513  25.200  0.0650 -0.3644 -0.0670
93629W        W36645   0.137  13.772  20.911 -0.1428 -0.2302 -0.3482
93630W        W36646   7.799  19.253   3.743  0.1374  0.2445  0.0882
93631W        W36647   7.568  32.400   4.319  0.0593  0.1243  0.1099
93632W        W36648  30.110  21.044   9.737  0.0544  0.1786  0.1841
93633W        W36649  16.940  12.853   6.105 -0.1864 -0.0165  0.1512
93634W        W36650  13.424  13.101   8.270 -0.1099  0.2093  0.3888
93635W        W36651  10.443  26.965  28.387  0.0237  0.2181  0.1162
93636W        W36652  14.174  20.873  23.290  0.1917 -0.0398 -0.0251
93637W        W36653  16.607  23.320  26.746 -0.1126 -0.1261 -0.0165
93638W        W36654   9.457  24.207   4.924  0.0000  0.1879 -0.0200
93639W        W36655  13.792  17.071   3.031 -0.1973 -0.4414 -0.2405
93640W        W36656   3.061  21.091  23.781  0.3781  0.2467 -0.5706
93641W        W36657  22.242  21.623  27.569 -0.1892  0.2513 -0.2913
93642W        W36658  11.608   2.185  29.270 -0.1336 -0.2373  0.1952
93643W        W36659   3.730  10.742   2.696  0.3103 -0.3044  0.0816
93644W        W36660   3.188  24.291   4.639  0.2194 -0.1913 -0.1380
93645W        W36661  11.745  25.522  28.767  0.2164 -0.3541  0.3476
93646W        W36662  23.189  13.118   8.622 -0.0209 -0.0311  0.4293
93647W        W36663  30.492  10.884   6.686 -0.0081  0.1843  0.0906
93648W        W36664  19.570   9.995  29.051  0.0972 -0.3028 -0.1738
93649W        W36665  23.495  16.469   8.782 -0.1135  0.0289  0.0040
93650W        W36666  10.379  13.430  27.611  0.1375  0.0355 -0.0081
93651W        W36667  26.195  12.691   0.989 -0.0450  0.2297 -0.0100
93652W        W36668  15.311  30.449  14.628  0.0072  0.0643 -0.2510
93653W        W36669   2.931  33.488   7.858  0.2285  0.1440  0.2910
93654W        W36670  32.426  27.400   4.698  0.0469 -0.1751  0.1843
93655W        W36671  13.761  19.564   6.730 -0.2277  0.1821  0.1382
93656W        W36672  32.480  13.188   2.762 -0.1756  0.1597  0.1832
93657W        W36673  31.070   8.219   2.617 -0.0737  0.2595 -0.0884
93658W        W36674   5.521  11.971  25.815 -0.0879  0.0318 -0.0369
93659W        W36675  11.519  15.724   6.152 -0.0779  0.1132 -0.1605
93660W        W36676  20.216  15.412   5.132 -0.0970  0.0670  0.1686
93661W        W36677  11.977  16.690   7.704  0.4418  0.3743  0.0091
93662W        W36678  17.650  16.435  28.327 -0.1511 -0.2278  0.4474
93663W        W36679   4.073  17.123  18.731 -0.2725 -0.0088  0.1192
93664W        W36680  15.323   6.332   4.779  0.1881 -0.1655 -0.1686
93665W        W36681  23.336  17.944   9.093  0.1558 -0.2871  0.0830
93666W        W36682  24.803  29.907   4.400  0.0998 -0.2712  0.0951
93667W        W36683  13.174  23.707   2.264 -0.0036 -0.1065 -0.1034
93668W        W36684   7.764  28.874   8.457 -0.1952  0.0686 -0.1265
93669W        W36685   8.724  21.167  28.305 -0.1199  0.4407  0.2261
93670W        W36686  17.264  28.828   8.686 -0.2760  0.1017 -0.1061
93671W        W36687   5.064  18.128  21.170  0.2827  0.0271 -0.0206
93672W        W36688  13.150  17.398  20.412 -0.0928 -0.0745  0.1571
93673W        W36689  22.241  18.689   9.086  0.1642  0.3209 -0.0498
93674W        W36690  32.893   9.539  29.050 -0.0942 -0.0529 -0.1523
93675W        W36691  13.019   4.823   3.307 -0.1297  0.0450 -0.0268
93676W        W36692   5.252  20.584   4.896  0.0840  0.1304 -0.0263
93677W        W36693  12.734  27.423   9.903  0.1341 -0.2699  0.0843
93678W        W36694  20.003   2.486   9.522  0.1097  0.0978  0.0022
93679W        W36695   7.499   3.162   5.662  0.1536  0.2744 -0.2454
93680W        W36696  15.209   1.847  24.701  0.1414 -0.0283 -0.3196
93681W        W36697   8.443  17.286   8.225  0.2687  0.1153  0.1978
93682W        W36698  28.506  29.951   8.468  0.0931  0.0970 -0.2126
93683W        W36699  17.077  22.796   0.663  0.1780 -0.0824  0.1563
93684W        W36700  18.304  28.585   1.794  0.1158  0.2838 -0.1173
93685W        W36701  13.112  19.338   5.055 -0.0873 -0.0049 -0.1149
93686W        W36702  16.848  26.967   1.866  0.2347  0.1353  0.3286
93687W        W36703  25.445  24.532   8.885 -0.0122  0.1012  0.3026
93688W        W36704  33.042  16.720  20.517  0.2172 -0.3142  0.0340
93689W        W36705  31.856   1.691   6.282 -0.0448  0.0554 -0.1381
93690W        W36706  33.048  25.189  20.421  0.1329  0.0476  0.0152
93691W        W36707  11.694  11.584   2.417 -0.3725  0.1599  0.1214
93692W        W36708  23.769  23.092   3.902 -0.1280  0.2790 -0.0233
93693W        W36709  13.919  29.866   6.764 -0.2871  0.2573  0.3838
93694W        W36710  25.227  22.490  26.659 -0.3315  0.2706 -0.0609
93695W        W36711  16.973  18.989   1.559  0.0020  0.1137  0.3140
93696W        W36712  13.612  15.326   6.520 -0.0399 -0.0082 -0.0319
93697W        W36713  18.459  26.624   6.659  0.2886  0.0362 -0.4621
93698W        W36714  31.720  18.969   5.280  0.0847 -0.4112  0.1563
93699W        W36715  33.175  21.004  23.937  0.1406  0.4656 -0.1438
93700W        W36716  15.629   7.295  28.346 -0.1597  0.1183 -0.0027
93701W        W36717  15.674  20.877   6.204  0.1316 -0.1334 -0.0941
93702W        W36718  10.994  15.382  29.260  0.1788  0.1323 -0.0004
93703W        W36719  13.726  19.735   2.877  0.1088  0.2417 -0.1719
93704W        W36720  26.079  17.158   4.625  0.0526 -0.0886 -0.2557
93705W        W36721  26.112  14.790  25.783  0.1974 -0.0908 -0.1419
93706W        W36722  12.635  11.956  27.370  0.2384 -0.2643  0.1583
93707W        W36723  20.444  28.408   8.003 -0.1832  0.2971  0.1312
93708W        W36724  10.555  26.675   0.448 -0.1231  0.0119  0.1659
93709W        W36725  22.870  22.272   6.256 -0.0897  0.0983  0.1432
93710W        W36726  19.442  28.140   7.136 -0.0740  0.1635 -0.0083
93711W        W36727  16.023  20.303   6.606  0.1144 -0.2542 -0.1333
93712W        W36728  25.884  22.612  28.875 -0.0441 -0.1602  0.0279
93713W        W36729  31.013   8.651   3.600 -0.1551  0.0104  0.1538
93714W        W36730  26.021  13.344   7.274  0.0558  0.0933 -0.0030
93715W        W36731   9.993  16.078   7.123  0.1542 -0.0828 -0.0508
93716W        W36732  14.242  20.928  14.516 -0.4113 -0.3431  0.2082
93717W        W36733   1.943  10.399   5.779 -0.0670 -0.1778 -0.0195
93718W        W36734  15.371  24.717   6.745 -0.2709  0.0979  0.1303
93719W        W36735  15.603  31.526   3.348  0.0685 -0.0124  0.1300
93720W        W36736  17.720  15.733   3.037  0.4065  0.1516 -0.2040
93721W        W36737  24.534   8.723   4.952  0.0688  0.1448 -0.0847
93722W        W36738  15.741  20.327  29.050 -0.0959  0.2203 -0.4148
93723W        W36739  12.126  29.469   7.410 -0.2851  0.0880 -0.1233
93724W        W36740  28.093  29.057   9.759 -0.0740 -0.1654  0.0427
93725W        W36741  14.512  29.034   3.413 -0.1193 -0.2909  0.2381
93726W        W36742  15.822  18.327   6.859  0.0323 -0.0805  0.0467
93727W        W36743  19.952  21.285   2.838  0.1287 -0.2181  0.3436
93728W        W36744  12.322  12.424  29.005 -0.1991 -0.0507 -0.0765
93729W        W36745   4.673  17.775   4.004 -0.2356  0.0694 -0.3863
93730W        W36746   7.557  13.577   0.334  0.1887 -0.1427 -0.2943
93731W        W36747  12.441  19.068   2.662  0.1362 -0.0188  0.1604
93732W        W36748  24.215  13.283   2.290  0.1328 -0.2634  0.1332
93733W        W36749  12.118  21.339   3.076 -0.1370  0.1977 -0.1893
93734W        W36750   3.359   2.299  22.449 -0.0932  0.2407 -0.2174
93735W        W36751  15.396   3.493   8.330 -0.1027  0.1425  0.1444
93736W        W36752  20.049  18.660   7.808  0.1590 -0.1283  0.0990
93737W        W36753  20.279  22.862  23.967 -0.1786  0.2131  0.2915
93738W        W36754   9.367  20.216   7.007  0.2180 -0.0247 -0.3147
93739W        W36755  25.864  20.973   0.455  0.2779  0.0767  0.3768
93740W        W36756  24.286  17.520   5.734 -0.1047 -0.0014  0.1135
93741W        W36757  11.641  13.281  27.419 -0.2794  0.0544 -0.1105
93742W        W36758  19.393  17.995   4.261 -0.1917 -0.1617  0.0753
93743W        W36759  11.055  17.982  17.055  0.0866 -0.0529  0.0043
93744W        W36760  27.962  22.896   0.781  0.0849 -0.1275 -0.2427
93745W        W36761  30.784  17.716  28.460 -0.1741 -0.1618 -0.0779
93746W        W36762  13.575  16.663   3.919  0.1461  0.0801 -0.2915
93747W        W36763  12.966  20.637   4.554 -0.0502  0.1471  0.1103
93748W        W36764  23.718  23.537   3.334  0.3082  0.0144 -0.1802
93749W        W36765  23.386  16.996   5.130 -0.1231 -0.3647  0.2710
93750W        W36766  12.148  25.274   2.235 -0.3791  0.1679 -0.1226
93751W        W36767   4.156  28.062   4.812  0.3993  0.0182  0.1261
93752W        W36768  24.074  12.846   5.247  0.0706 -0.3612  0.0142
93753W        W36769  11.533  13.981   1.513  0.0776  0.3499 -0.2990
93754W        W36770   8.104  14.071   2.294 -0.2230  0.1512 -0.2226
93755W        W36771   2.837   2.240  24.325 -0.0724 -0.2648 -0.1952
93756W        W36772  11.386  11.161   7.345 -0.4512 -0.1326 -0.2974
93757W        W36773  20.283  23.078   4.966 -0.1902  0.0512 -0.1668
93758W        W36774  11.076  18.824   3.278  0.0134  0.0349 -0.2273
93759W        W36775  10.802  11.627  25.973  0.0838 -0.0339 -0.0553
93760W        W36776  23.824  32.990   6.472 -0.0935 -0.1417 -0.0493
93761W        W36777  12.820  22.470   2.798 -0.1268 -0.1335  0.2470
93762W        W36778  10.103  18.560   5.555  0.0198  0.0827 -0.0998
93763W        W36779  14.572  33.719  24.737 -0.0574 -0.2894  0.4045
93764W        W36780  30.926   0.238   6.811 -0.2225  0.3232 -0.2114
93765W        W36781  15.790  10.533  19.744  0.4122  0.0432 -0.0767
93766W        W36782  18.402  13.415   4.385 -0.0120  0.3170 -0.4575
93767W        W36783   8.182  28.624  10.230  0.0182  0.2968  0.0577
93768W        W36784  33.951  11.057   1.567 -0.1175 -0.1239 -0.2591
93769W        W36785  20.184  17.320   4.804  0.1175  0.1311  0.1360
93770W        W36786  19.198  24.790   6.961  0.0112 -0.1112  0.3343
93771W        W36787   7.466  24.572  26.978 -0.3104 -0.1132  0.1016
93772W        W36788  21.218   3.621   8.378 -0.0543  0.3276 -0.0007
93773W        W36789  20.169  11.830   6.953  0.5998  0.4989  0.2889
93774W        W36790   2.955   4.315   5.265 -0.1006  0.2490 -0.0132
93775W        W36791   9.326   3.354   5.128 -0.0625  0.0368 -0.0938
93776W        W36792  26.854  26.407   8.847 -0.1605 -0.1588  0.1138
93777W        W36793   9.884  17.545  25.442  0.1574  0.3482 -0.2075
93778W        W36794  33.617  27.200  28.983 -0.0522  0.0225 -0.0513
93779W        W36795  17.751  13.648  22.391  0.1577 -0.0061  0.0215
93780W        W36796   9.828   4.822   5.234  0.2227  0.0534  0.0118
93781W        W36797  19.834  29.465   5.361  0.0705 -0.2240  0.3035
93782W        W36798  24.328  24.369   8.607 -0.4099 -0.1238  0.0299
93783W        W36799  16.190  27.374  10.173  0.0269 -0.0695  0.1121
93784W        W36800  14.963  11.264   4.586 -0.0944  0.1979  0.0315
93785W        W36801  15.253  19.091   6.315 -0.0868  0.1468  0.3181
93786W        W36802   9.059  17.991   1.610 -0.0457 -0.1177  0.3150
93787W        W36803  15.419  11.306   4.445 -0.1361 -0.3379 -0.0163
93788W        W36804  14.822  23.454   6.299  0.0746 -0.1006 -0.0545
93789W        W36805  10.248   9.652   5.690  0.0335  0.1898  0.1551
93790W        W36806  15.350  15.202   7.448 -0.4296  0.0463  0.2262
93791W        W36807  33.397  25.598   9.705  0.0082 -0.1789  0.1985
93792W        W36808  21.488  10.961   9.068  0.2153 -0.0579  0.1961
93793W        W36809   0.696  24.963  25.616  0.5244 -0.2399 -0.2355
93794W        W36810  29.240  32.622   1.266 -0.2423 -0.0634 -0.1638
93795W        W36811   3.747  20.605   1.276  0.0188 -0.0075 -0.0538
93796W        W36812  16.835  19.493   3.227  0.2538  0.2125  0.1005
93797W        W36813  11.931  23.947   5.967 -0.2657 -0.1377 -0.3365
93798W        W36814   8.225  31.176   9.884 -0.0270  0.1584 -0.0290
93799W        W36815  13.751  21.670   7.251 -0.0222 -0.0833  0.0772
93800W        W36816  15.741  27.870  25.573  0.0390 -0.2675 -0.2787
93801W        W36817   5.072  11.969   9.639 -0.0884  0.0837  0.3509
93802W        W36818  16.236  18.861  23.767 -0.2003 -0.2545  0.1928
93803W        W36819   3.862  16.908  23.532 -0.1095  0.0413 -0.0520
93804W        W36820  17.284   4.261   6.990 -0.1218  0.1487  0.1263
93805W        W36821  27.669  33.602   7.497  0.0452 -0.3698 -0.0541
93806W        W36822  14.791  15.665   3.215 -0.2547 -0.0719  0.0861
93807W        W36823  23.629  16.836  23.253  0.1366 -0.0656 -0.1716
93808W        W36824  12.601  24.092   7.643 -0.0810 -0.2359 -0.0542
93809W        W36825  19.866  20.453   3.560  0.0851 -0.2653  0.2756
93810W        W36826  10.799  14.486   6.400  0.3454 -0.1490  0.0006
93811W        W36827  29.066  18.969   3.134  0.0229 -0.1444  0.2248
93812W        W36828  19.466   7.905   4.055  0.3653  0.0006 -0.1355
93813W        W36829  19.375  15.431  23.607  0.3335 -0.0567 -0.0858
93814W        W36830  13.840  27.769  15.472  0.2446 -0.1765 -0.0883
93815W        W36831   4.098  17.962   8.310  0.2236 -0.0265  0.2644
93816W        W36832  12.766  15.022   6.867  0.0128 -0.1972 -0.1138
93817W        W36833  15.377  22.391   0.394 -0.3908 -0.0997  0.1737
93818W        W36834  12.458  13.450   0.595  0.4800  0.1701 -0.1582
93819W        W36835  19.729  23.064   8.417 -0.1125 -0.3540  0.1143
93820W        W36836  20.238  31.083   4.498  0.0556 -0.0491 -0.1325
93821W        W36837  10.627  16.163  18.678  0.1724 -0.0830  0.0980
93822W        W36838  17.246  17.252  22.373  0.1548 -0.0320  0.0435
93823W        W36839  20.649  24.891   8.012  0.0111  0.2875  0.1215
93824W        W36840   7.864  12.486  27.980  0.1690  0.0685  0.0663
93825W        W36841  15.056  21.871   4.424  0.0745 -0.0413  0.1660
93826W        W36842  15.711   9.458   1.448 -0.0248  0.3201  0.0947
93827W        W36843  10.968  14.858   4.659 -0.2847 -0.3385 -0.0355
93828W        W36844  15.180  20.295  27.329 -0.0026 -0.0687 -0.0943
93829W        W36845  32.893  17.327   8.763 -0.3690 -0.0331 -0.1180
93830W        W36846  14.979  19.874  23.547 -0.0178 -0.2736  0.0755
93831W        W36847  15.487  31.284   9.252 -0.0362  0.1889  0.2680
93832W        W36848   5.167   6.901   5.326  0.1040  0.2832  0.2119
93833W        W36849  19.251  27.830  23.686  0.1412  0.0930 -0.2244
93834W        W36850  16.958  13.945   2.284  0.0197  0.0071  0.2135
93835W        W36851   9.877  10.611   2.490 -0.1650 -0.1171 -0.3874
93836W        W36852  22.869   8.690   4.592 -0.1147 -0.2260  0.1092
93837W        W36853  33.067  27.021   0.538  0.3892  0.1380  0.1503
93838W        W36854  15.663  26.190  27.762  0.2414  0.0844  0.0093
93839W        W36855  32.036  19.628   3.274  0.4024 -0.3125 -0.2089
93840W        W36856  17.369  21.261   4.013  0.2440  0.2556 -0.1975
93841W        W36857  20.632  23.582   3.330  0.0685 -0.1823 -0.0438
93842W        W36858  34.496   0.475   3.317  0.2963  0.0260 -0.1673
93843W        W36859  23.272   5.960   5.485  0.4114 -0.0886 -0.0874
93844W        W36860  11.040   5.085   6.290 -0.1230 -0.1318 -0.1000
93845W        W36861   8.506  10.786   3.657 -0.0443  0.1855  0.1162
93846W        W36862  12.494   7.728   4.996  0.2757  0.0804 -0.1688
93847W        W36863  12.014  18.651  16.594 -0.0466  0.0313  0.0557
93848W        W36864  30.380  33.009  26.099 -0.4285  0.0375  0.3253
93849W        W36865  19.078  23.705  24.401  0.0167  0.0828  0.0474
93850W        W36866  17.468  14.068  27.659  0.2365  0.1025 -0.3864
93851W        W36867  27.961  18.430  10.676 -0.2179  0.0911 -0.1045
93852W        W36868  18.632  23.650  25.304 -0.2274 -0.2125  0.0545
93853W        W36869  17.643  24.352  27.809  0.0379  0.3084  0.1799
93854W        W36870  13.852  26.137   5.920  0.1412  0.3996  0.1746
93855W        W36871   1.741  22.833  28.359 -0.3781 -0.1345 -0.1271
93856W        W36872  21.671  28.490  10.968 -0.2319  0.0169 -0.2655
93857W        W36873  18.985  22.587   9.051  0.0399 -0.0839 -0.0810
93858W        W36874   2.395  10.325   7.355 -0.0149  0.1277 -0.0727
93859W        W36875  19.769  24.349   8.312  0.1972 -0.2111 -0.3901
93860W        W36876  16.026  17.113  22.705 -0.2272 -0.0800 -0.1714
93861W        W36877  18.505   3.771   7.768  0.0702 -0.0665 -0.0360
93862W        W36878  24.246   9.401   7.304  0.3243  0.3347  0.0664
93863W        W36879  30.154  26.468  25.974  0.1774 -0.1075 -0.0654
93864W        W36880  16.498  10.666   7.084 -0.2203 -0.0951  0.0808
93865W        W36881  17.162  15.805   0.710  0.0776 -0.1143  0.0514
93866W        W36882  12.173  11.579   5.110  0.4320 -0.1109 -0.3961
93867W        W36883  16.098  22.461  23.080  0.0631 -0.2133 -0.0924
93868W        W36884  17.487   8.788   8.441 -0.0562  0.1877 -0.1074
93869W        W36885  13.159  15.096   6.337  0.2553  0.0992  0.2039
93870W        W36886   3.876  25.343  26.503  0.0416  0.4369 -0.3401
93871W        W36887   6.158   2.451  28.428  0.1301  0.2558 -0.0076
93872W        W36888  25.573  18.841   5.612  0.2554 -0.2145  0.0223
93873W        W36889  16.754  13.626   5.922 -0.2208 -0.1204 -0.1942
93874W        W36890  11.994  32.147   3.069  0.2479 -0.0339  0.1769
93875W        W36891  28.217  16.486  28.368  0.1559  0.1472 -0.3867
93876W        W36892   6.766  11.466   7.984  0.0479 -0.2252  0.2021
93877W        W36893  15.433  14.344  29.140 -0.2156  0.0269  0.1310
93878W        W36894   4.971   1.021  27.277  0.0001 -0.0447  0.2342
93879W        W36895   0.941   5.960   8.008  0.1615 -0.3700  0.1428
93880W        W36896   3.195  33.435   8.276  0.0076  0.1183  0.2766
93881W        W36897  17.203  11.000   7.657 -0.3540  0.0342 -0.1977
93882W        W36898  20.149  12.618   8.688  0.1878 -0.0552 -0.1233
93883W        W36899   2.157  11.704   9.716 -0.1633  0.0989  0.2015
93884W        W36900   4.496  19.353   4.109  0.4042  0.1143  0.3609
93885W        W36901  12.763  11.313  19.935  0.2554  0.1946 -0.1461
93886W        W36902  10.503  15.230   3.737 -0.0467 -0.1322  0.1710
93887W        W36903  26.192  21.233   6.670  0.1488 -0.0023 -0.2151
93888W        W36904   8.659   1.917   7.419 -0.0209  0.0154  0.0597
93889W        W36905   8.272  12.958  22.633  0.4852 -0.0880  0.2499
93890W        W36906   8.841  12.978  26.744 -0.2144 -0.0983 -0.1838
93891W        W36907  18.604   6.468   8.958 -0.1485 -0.0107 -0.0178
93892W        W36908   9.408  13.879   9.530 -0.2745  0.1091 -0.0426
93893W        W36909  19.687  11.465   1.033 -0.1159 -0.0262  0.0269
93894W        W36910   5.072  21.376   3.802  0.0636  0.0050  0.2427
93895W        W36911   9.428  16.610   0.652  0.0371 -0.1657  0.0139
93896W        W36912   3.264   4.167   5.656  0.0606  0.1851 -0.0128
93897W        W36913  32.012  23.349   9.326 -0.1881 -0.0068 -0.0293
93898W        W36914   4.910  15.388  28.680 -0.0642 -0.1836  0.0963
93899W        W36915  24.962  16.728   5.566 -0.2382  0.2369  0.4245
93900W        W36916  18.466   3.223  27.312  0.1755 -0.1559  0.0839
93901W        W36917  13.019   8.292   4.439 -0.0514 -0.1161  0.0322
93902W        W36918   1.548  16.979   4.625  0.0986 -0.2550  0.0824
93903W        W36919  16.792   5.775   8.092  0.0421  0.0830 -0.0239
93904W        W36920  25.960  21.827  27.003  0.1324 -0.0360 -0.1002
93905W        W36921  27.564  16.902  26.180  0.2103 -0.0120  0.0128
93906W        W36922  22.110  19.359   6.013  0.3370  0.0380 -0.0665
93907W        W36923  11.332  16.179   7.354 -0.2349  0.0367 -0.0431
93908W        W36924   9.066   9.298   8.975 -0.0397  0.0930 -0.2372
93909W        W36925  16.309  24.028   2.496 -0.0309 -0.3135  0.1967
93910W        W36926  12.748  25.819  16.060  0.0407 -0.1221  0.2490
93911W        W36927   7.570  27.580   6.470  0.2674  0.2488  0.0779
93912W        W36928  32.568   9.714   8.412  0.1468 -0.2197  0.0650
93913W        W36929  19.686  18.989   2.261 -0.2633  0.1027  0.0498
93914W        W36930  33.279  17.150  28.080  0.1384 -0.2216 -0.2511
93915W        W36931  22.166  21.356   7.359 -0.1674 -0.3543  0.1811
93916W        W36932  24.623  17.912   9.911  0.2874 -0.1046 -0.1423
93917W        W36933  18.737   4.575   6.412 -0.2166 -0.0805 -0.3082
93918W        W36934  22.826  15.840  24.537 -0.2232  0.0318 -0.0619
93919W        W36935   3.588  16.234   7.767 -0.3752  0.0354  0.1841
93920W        W36936  17.368  16.429  18.901 -0.2797 -0.0668  0.1509
93921W        W36937  33.892   3.702  21.249  0.1860  0.3225 -0.0779
93922W        W36938  14.206  29.680   2.594 -0.1215  0.1365 -0.0591
93923W        W36939  26.945  13.194  25.001  0.1674  0.0090 -0.0030
93924W        W36940   3.060   8.980   7.214  0.2154  0.1555 -0.2810
93925W        W36941  21.621  14.989  22.540  0.1132 -0.1646 -0.1683
93926W        W36942  17.998  20.224   2.067 -0.1462  0.0580 -0.0178
93927W        W36943   9.271  14.365  26.659  0.0498 -0.1010 -0.1998
93928W        W36944  16.337  20.231   0.613  0.0662 -0.1470 -0.1077
93929W        W36945  16.264  16.142   7.130  0.2944  0.0312  0.5200
93930W        W36946  22.116  18.534   6.952 -0.0651  0.1840 -0.1664
93931W        W36947  18.665  20.040   8.860  0.1200 -0.0999 -0.1515
93932W        W36948  13.200   7.021   2.794 -0.3619 -0.0671 -0.0638
93933W        W36949  13.047  14.376   2.010  0.2443 -0.1856 -0.2065
93934W        W36950   0.671  29.922   8.276  0.1913  0.2222  0.3553
93935W        W36951  11.589  19.553   7.547 -0.2657 -0.2111  0.1421
93936W        W36952  17.206  19.954  24.161 -0.1993  0.1341 -0.2422
93937W        W36953  11.351  30.886   9.240  0.1261 -0.0962 -0.2113
93938W        W36954  31.515  33.804   0.746 -0.1746  0.1802 -0.4575
93939W        W36955  22.350   4.780   7.769  0.0509 -0.0385 -0.0445
93940W        W36956  15.694  24.937   2.661 -0.1539 -0.2026  0.0482
93941W        W36957  17.949   8.604   8.281  0.0027  0.3204  0.0083
93942W        W36958  21.098  11.475  27.447 -0.4871  0.3465  0.0263
93943W        W36959   8.971   8.236   7.608 -0.0103 -0.0020  0.3620
93944W        W36960  29.124   8.311   6.332  0.0948 -0.0724 -0.4642
93945W        W36961  15.472  22.463   1.214  0.2373  0.2181  0.0627
93946W        W36962  28.578  19.072   1.002 -0.2946 -0.2623 -0.3604
93947W        W36963  19.312  28.963   6.354 -0.0733  0.1012 -0.0200
93948W        W36964  13.559  23.024   0.450 -0.2651 -0.2456 -0.0024
93949W        W36965   1.707  10.777   7.672  0.0537  0.0292 -0.1698
93950W        W36966  14.695  10.589   5.233  0.0192 -0.2142 -0.1117
93951W        W36967  10.985   1.607   9.953 -0.2466 -0.2369  0.0807
93952W        W36968  19.247   3.508   5.375  0.0435 -0.3123 -0.0437
93953W        W36969  21.628  27.140   8.050  0.1918 -0.0490  0.2451
93954W        W36970  12.430  19.493  23.264 -0.0251 -0.3420 -0.2960
93955W        W36971   7.506  30.112  22.470  0.4073 -0.1623 -0.2557
93956W        W36972   9.514  21.771   1.090  0.0856 -0.0381  0.2241
93957W        W36973  15.990  32.536   2.798 -0.1726  0.0530  0.4916
93958W        W36974   4.462   4.834   8.859  0.2175 -0.2009 -0.2097
93959W        W36975   8.514  28.972   6.502  0.0094  0.0667 -0.0268
93960W        W36976   3.770  34.124   9.841  0.0130 -0.1475  0.0106
93961W        W36977  15.148  19.673   8.225  0.0420  0.2662  0.4507
93962W        W36978  30.029  16.847  10.248  0.0534  0.0828  0.1301
93963W        W36979   3.902  31.054   1.553 -0.3803  0.0584  0.3465
93964W        W36980   6.159   4.433   9.672 -0.1969  0.0433  0.0818
93965W        W36981   5.237  24.215  26.121  0.4443  0.2204  0.1094
93966W        W36982   2.093   9.738   5.485 -0.2340  0.1148  0.0746
93967W        W36983  14.944   1.741   5.916  0.0869 -0.0947  0.0231
93968W        W36984  19.405  19.634   3.927 -0.1525 -0.0197 -0.0409
93969W        W36985  15.444  13.689   7.535  0.0720 -0.2413 -0.1909
93970W        W36986  17.068   2.454   3.945  0.3247  0.0449  0.2536
93971W        W36987   0.299   6.884  20.817 -0.3452 -0.0971  0.0583
93972W        W36988   4.980  22.399  17.475 -0.3143  0.0755 -0.2871
93973W        W36989  18.460  30.224   5.652 -0.1123 -0.2640  0.0403
93974W        W36990  15.807  27.306  21.140 -0.3418 -0.3548 -0.0244
93975W        W36991  31.844  18.701  21.647  0.3679  0.1012 -0.1125
93976W        W36992  13.197  17.648  27.677  0.1186  0.1131  0.2920
93977W        W36993  15.881  24.301  22.890 -0.2771 -0.3305  0.0094
93978W        W36994  14.692  29.197   9.872  0.1827 -0.0837  0.1640
93979W        W36995   6.202  12.726  27.497 -0.3149 -0.2857 -0.1979
93980W        W36996   8.328  27.397   2.111 -0.3458 -0.1336  0.2379
93981W        W36997   3.318  33.449  21.754  0.2827  0.1127  0.2727
93982W        W36998  23.381  24.137   2.660  0.2539  0.1212  0.2713
93983W        W36999  20.956   9.311  18.931  0.0763  0.3194  0.0887
93984W        W37000  27.174  22.467  24.421  0.0565  0.0329 -0.0760
93985W        W37001  17.119  18.444  26.771  0.0628 -0.1196  0.1865
93986W        W37002  19.239  16.055  28.538 -0.1991  0.2482 -0.2357
93987W        W37003  12.342  15.517   7.725  0.2477  0.2275  0.2772
93988W        W37004   3.751  16.625  21.542 -0.0384 -0.3585  0.1686
93989W        W37005   6.348  18.822  18.260 -0.0653 -0.0610  0.0595
93990W        W37006  16.859  27.249  16.665  0.2980  0.2058  0.1640
93991W        W37007  12.197  27.544  26.074  0.0310  0.0387  0.0783
93992W        W37008   8.796  23.061  26.152 -0.1118 -0.5720  0.1992
93993W        W37009  23.803   3.422   9.968  0.3473 -0.2415  0.0088
93994W        W37010  13.561  30.500   6.024  0.2077  0.0212 -0.1023
93995W        W37011  16.384  23.778  19.206 -0.0961  0.0394  0.1002
93996W        W37012  31.586  25.871  25.883 -0.2457  0.2121  0.3614
93997W        W37013  19.887  14.973   7.869  0.0953 -0.0997 -0.0782
93998W        W37014   9.406   0.834   3.061  0.0236 -0.0434  0.1213
93999W        W37015  34.680  10.364   8.238  0.0250  0.0804 -0.1250
94000W        W37016  20.049  20.907   9.256 -0.0423 -0.2477  0.0947
94001W        W37017  16.286  34.315   5.018  0.2432  0.1762  0.3372
94002W        W37018  24.390  26.239   0.908  0.0988 -0.0877  0.0022
94003W        W37019  14.597  26.622  18.470  0.2643  0.0472 -0.1944
94004W        W37020  26.703  29.548   3.585 -0.0423 -0.1416  0.2348
94005W        W37021   4.297  21.048   6.121 -0.0888  0.2815 -0.1143
94006W        W37022  20.587  24.778  19.041 -0.0638 -0.0251  0.1514
94007W        W37023  14.046   3.110   4.252  0.0335 -0.1519 -0.0045
94008W        W37024  25.745  21.073  22.998 -0.2246 -0.0709  0.1839
94009W        W37025  31.854  18.283  20.146  0.1872 -0.0304 -0.0665
94010W        W37026   1.542  31.633   6.113 -0.1769 -0.3230  0.0232
94011W        W37027  31.991  24.322  21.655 -0.1727  0.0238 -0.3738
94012W        W37028   6.136  27.705   9.785 -0.2085 -0.0021 -0.1117
94013W        W37029   7.688  22.989   7.402 -0.4375 -0.1018 -0.2359
94014W        W37030  22.262  33.373   4.119 -0.0525 -0.0587 -0.4086
94015W        W37031   6.487  23.469   3.189  0.1257 -0.0483  0.0830
94016W        W37032  16.350  18.274   6.885  0.0931 -0.0489 -0.1085
94017W        W37033   6.460  27.895  10.126  0.0468  0.1597  0.3492
94018W        W37034  23.810   2.018  17.299  0.2609 -0.3924 -0.1118
94019W        W37035   9.590  22.619   9.117 -0.0758  0.0404 -0.1431
94020W        W37036  34.322  30.945   4.181 -0.2553 -0.2404 -0.1468
94021W        W37037  18.670   1.166   9.553  0.0734 -0.0880  0.2249
94022W        W37038   9.285  22.137   2.916  0.1326  0.0684  0.0513
94023W        W37039  12.578  31.591   4.196 -0.0780  0.1618  0.0568
94024W        W37040  13.064   1.555   1.492  0.1881 -0.0994 -0.0490
94025W        W37041  17.067  21.852  20.822 -0.2262  0.0159 -0.0060
94026W        W37042   3.870  31.620  22.671 -0.3234 -0.0363  0.1050
94027W        W37043  12.750   3.982  26.307  0.2347 -0.1835 -0.3469
94028W        W37044  11.904  28.719   3.456 -0.1198 -0.0957 -0.2340
94029W        W37045   4.979  28.291   3.102  0.1916 -0.1516  0.0179
94030W        W37046  16.554  30.279  17.231 -0.0991 -0.0877 -0.3077
94031W        W37047  17.771  27.629   0.266  0.2007  0.0184 -0.4743
94032W        W37048  27.715  21.587  16.741 -0.2283 -0.0760 -0.1370
94033W        W37049  34.557  15.970   8.108  0.0193  0.1775 -0.0902
94034W        W37050  16.032  16.061   7.539  0.3529  0.5045 -0.1855
94035W        W37051  30.989  15.902  20.247  0.0379  0.0420  0.4164
94036W        W37052   6.584  25.671  29.267  0.0293  0.0550 -0.0670
94037W        W37053  14.946  29.691   0.406 -0.3790  0.0105 -0.2564
94038W        W37054  12.115   6.264  21.476 -0.2173 -0.2398 -0.0653
94039W        W37055  15.259  21.062  22.152  0.0831  0.0299 -0.0162
94040W        W37056  10.908  21.354  19.235 -0.2456 -0.0932  0.0511
94041W        W37057  18.094  11.146  28.085  0.0942 -0.2241  0.0103
94042W        W37058  14.282   9.497   0.269 -0.0099  0.1850  0.1409
94043W        W37059   6.011  15.026  19.049 -0.1566  0.2574 -0.0501
94044W        W37060  18.760  30.464  10.420  0.1652 -0.0010 -0.2120
94045W        W37061  10.628  20.210   2.001  0.1320 -0.0861 -0.2693
94046W        W37062  22.252  16.103   7.986  0.1392 -0.0980 -0.2265
94047W        W37063  24.973  28.029  24.187 -0.1151  0.1555  0.4545
94048W        W37064  21.077   1.556  27.590  0.1086 -0.1021  0.2647
94049W        W37065  27.150  15.846  26.944 -0.1439  0.2989 -0.0110
94050W        W37066  28.705  20.365   7.387 -0.0478  0.1455  0.0278
94051W        W37067   1.461  31.930   5.131  0.1256  0.1805 -0.0491
94052W        W37068  24.322  30.162  18.475  0.2958  0.3066 -0.4049
94053W        W37069  24.966  11.971  27.644  0.2683 -0.0785 -0.1469
94054W        W37070  22.295  17.077   6.775 -0.1103 -0.1851  0.2379
94055W        W37071  15.949  21.968  23.780  0.0265  0.1546  0.1623
94056W        W37072  30.204  14.640   1.167  0.2800 -0.0985 -0.0820
94057W        W37073  22.226  30.455   7.380 -0.0985  0.2593  0.0026
94058W        W37074  28.365  28.945  11.864 -0.0994 -0.0743  0.2664
94059W        W37075  30.871  18.824   4.871 -0.2896 -0.0838 -0.1221
94060W        W37076  13.002  11.490   3.452  0.1632 -0.1931  0.1783
94061W        W37077  17.886  26.478  28.765  0.2458  0.0925  0.0328
94062W        W37078   8.343  20.141  19.789 -0.0948  0.0210  0.3435
94063W        W37079  11.443  20.846  20.872 -0.2889  0.0506 -0.1412
94064W        W37080  22.362   2.691   6.511  0.0730 -0.1982 -0.0219
94065W        W37081   8.789  19.078   3.761  0.2018 -0.0301  0.2000
94066W        W37082  14.451  18.466   4.743 -0.0363  0.1966 -0.0156
94067W        W37083   0.973  32.347   4.525 -0.0568 -0.3563 -0.2349
94068W        W37084  18.608  28.860  28.988 -0.0047 -0.3083  0.0648
94069W        W37085   8.966  14.094  24.851  0.0587  0.0269 -0.0038
94070W        W37086  15.513  19.774   7.278 -0.2642 -0.0118  0.2311
94071W        W37087  15.928  16.128   5.831 -0.0092  0.0140  0.1555
94072W        W37088   3.613  28.297   0.379 -0.0474 -0.1805  0.1049
94073W        W37089  19.224  33.647   9.238  0.1548 -0.0779 -0.1661
94074W        W37090  20.247  19.964  27.505  0.2623  0.1455  0.0934
94075W        W37091   0.955  26.470  11.036 -0.1018 -0.2441 -0.0008
94076W        W37092  19.977  11.820  17.405  0.1200 -0.1079 -0.0348
94077W        W37093  21.763  20.200  20.681 -0.2589  0.3005  0.0594
94078W        W37094  10.802  23.282   4.630 -0.1682 -0.1275  0.5032
94079W        W37095  16.793  27.691   1.118 -0.0919  0.1010  0.0079
94080W        W37096  20.663  27.324   8.445 -0.0987  0.5397  0.0715
94081W        W37097  34.721   1.435  27.476 -0.0973 -0.0775 -0.1048
94082W        W37098   2.387   9.449   8.446 -0.0640 -0.2075 -0.1446
94083W        W37099  29.027  25.167  18.338  0.0757 -0.2434  0.2285
94084W        W37100  22.522  32.721  20.302 -0.0521 -0.1103 -0.0244
94085W        W37101  13.250  12.687  16.443  0.3755 -0.3693 -0.1141
94086W        W37102  21.714  25.065   6.361 -0.1903 -0.0751 -0.2698
94087W        W37103  14.333  29.590   2.081  0.3412 -0.1438 -0.4334
94088W        W37104  30.201  27.716  28.232 -0.0116  0.0621  0.0438
94089W        W37105  16.251  19.612  14.412  0.1909  0.0698  0.0534
94090W        W37106  14.861  14.119  22.901  0.0925  0.1332  0.1966
94091W        W37107  34.024  31.427  26.020  0.2280  0.0449  0.0332
94092W        W37108  12.350  25.538   0.894 -0.0938  0.0181  0.0217
94093W        W37109   8.165   1.590  21.602  0.0585 -0.0709 -0.2107
94094W        W37110   9.910  20.637   6.205  0.2408 -0.1249 -0.4332
94095W        W37111  23.648  19.689  26.240 -0.0880  0.3147 -0.0569
94096W        W37112  10.886  11.227   2.987 -0.1148 -0.1999 -0.2743
94097W        W37113  14.486  34.507   8.793  0.4172 -0.0443 -0.3606
94098W        W37114  13.785  20.902  24.760 -0.4407  0.3110  0.2300
94099W        W37115  10.108   6.752   8.858  0.0434  0.2596  0.0589
94100W        W37116  23.754  17.661   9.870 -0.2301  0.1578  0.0348
94101W        W37117   2.537  25.498  25.918 -0.3459 -0.0617 -0.3162
94102W        W37118  33.858   5.629  27.253  0.1729 -0.2031  0.2027
94103W        W37119  24.165   7.837  25.864 -0.0852  0.0536  0.0777
94104W        W37120  21.854  18.285  25.600  0.1882 -0.2870 -0.0221
94105W        W37121  21.126  27.873   5.560 -0.2596  0.1939  0.0631
94106W        W37122  31.934   6.164  19.862 -0.0347  0.0004 -0.0219
94107W        W37123   7.902  17.423  25.283  0.1151  0.2904 -0.1198
94108W        W37124  12.930  19.938   1.181  0.1709  0.0533  0.1050
94109W        W37125  24.480   0.047   1.607 -0.4739 -0.1908 -0.3668
94110W        W37126  15.573  27.478  27.171  0.2736  0.2870 -0.0996
94111W        W37127  31.339  30.478  16.114  0.2603  0.2255 -0.0992
94112W        W37128   5.766  25.440  16.496 -0.1660 -0.1486 -0.1997
94113W        W37129  17.204  33.526  28.601 -0.0367  0.2341 -0.3464
94114W        W37130   5.991   0.437   9.372  0.0685  0.1584 -0.0055
94115W        W37131   4.774  23.322   6.020  0.1386  0.1277  0.3009
94116W        W37132  30.723  24.088   7.685  0.2367  0.1519 -0.2140
94117W        W37133  16.103   2.565  23.741 -0.0686  0.0130 -0.1227
94118W        W37134   4.230  10.759  25.087  0.1059 -0.0958  0.0918
94119W        W37135  13.777  15.799   1.576 -0.0789  0.1053  0.1467
94120W        W37136  33.564  20.023  18.147  0.2766 -0.0918  0.1315
94121W        W37137   3.709   2.093   4.261  0.0969 -0.0179  0.0299
94122W        W37138   6.193  21.304  28.928 -0.0073 -0.1782 -0.1489
94123W        W37139   4.582  17.394  26.015  0.1429 -0.1761  0.1138
94124W        W37140   1.374  31.171  21.398  0.1700  0.2604  0.2204
94125W        W37141   6.819  18.320   7.739  0.0444  0.0318 -0.3165
94126W        W37142  19.284  21.680   3.808  0.2602 -0.1382  0.0425
94127W        W37143  13.219  26.713  25.464 -0.0849  0.3374 -0.0578
94128W        W37144  16.902  16.029  27.296  0.0007  0.2278  0.0946
94129W        W37145  15.256   9.326  23.913  0.1632 -0.1385 -0.0253
94130W        W37146  31.994  24.341   1.778 -0.2351 -0.0776 -0.0155
94131W        W37147  23.238  32.385   1.539  0.0109 -0.2168 -0.0534
94132W        W37148  23.672  24.987   5.883  0.1212 -0.1874 -0.1377
94133W        W37149  31.327  18.286  11.109  0.1054  0.0973 -0.0952
94134W        W37150  15.857  18.101   2.691 -0.0414  0.2009 -0.1193
94135W        W37151  13.110  31.233   4.942  0.1841  0.0930  0.0558
94136W        W37152  16.732  24.088   2.220 -0.0228  0.0495 -0.1095
94137W        W37153  14.357  20.921   3.727  0.0344  0.1445  0.0264
94138W        W37154   2.067  20.354   4.049 -0.0064  0.1271 -0.3950
94139W        W37155  23.962  27.559   2.540  0.0079  0.2929  0.0827
94140W        W37156  18.660  17.027  26.800  0.4294  0.1580  0.0034
94141W        W37157  22.364   2.586   1.692  0.2990 -0.0798  0.0205
94142W        W37158  30.776  21.163  10.075 -0.2579  0.1545 -0.0396
94143W        W37159  14.546  24.075   6.390 -0.0036  0.1141 -0.0830
94144W        W37160   8.819  15.187   7.534 -0.1269  0.1381 -0.2945
94145W        W37161   8.324  34.422   3.047 -0.0015 -0.0657  0.0510
94146W        W37162   2.966  11.803   2.305  0.1912  0.0196 -0.1914
94147W        W37163  34.777  20.466  16.342 -0.1124 -0.0534  0.3231
94148W        W37164   8.110  29.001  24.350  0.1479 -0.1839 -0.0374
94149W        W37165  21.407  18.797   5.549 -0.2464 -0.1437  0.2117
94150W        W37166  14.640  22.270  19.386  0.1870  0.0874 -0.0380
94151W        W37167  20.631  24.523   7.563 -0.0615 -0.0282  0.4120
94152W        W37168  32.588  20.270  25.183 -0.1355  0.1618 -0.0534
94153W        W37169   4.974  13.600   4.905  0.0357 -0.0502  0.1554
94154W        W37170  17.154  10.996  26.671  0.0355  0.1960 -0.0782
94155W        W37171  10.087  14.891  28.229 -0.0374 -0.1708  0.2895
94156W        W37172  17.627  16.744  17.372 -0.0243 -0.2069 -0.1559
94157W        W37173  25.326  30.469   3.395  0.3452 -0.1966  0.0903
94158W        W37174  13.696  11.541  22.777  0.1112  0.1230  0.2259
94159W        W37175  17.796  22.177   1.410 -0.0656 -0.0284 -0.0277
94160W        W37176  16.805  18.104   2.828  0.3013 -0.2886  0.1229
94161W        W37177  18.993  16.450   7.593 -0.1957 -0.0052 -0.1607
94162W        W37178  33.036   0.667  29.227 -0.1812  0.0662 -0.0680
94163W        W37179  12.737   3.148   1.978 -0.1582  0.0776  0.1893
94164W        W37180  23.234  31.049  24.937  0.4729 -0.3199 -0.0977
94165W        W37181  17.772  23.181  27.059  0.0409 -0.1623 -0.0828
94166W        W37182  19.406  22.537  28.201  0.0736  0.2340 -0.0543
94167W        W37183   0.876  17.316  25.281 -0.2721 -0.1057 -0.1543
94168W        W37184  14.383  17.605   0.580  0.1455  0.2395 -0.2508
94169W        W37185  10.483  28.935   8.346 -0.1952 -0.0474  0.1123
94170W        W37186  12.836  29.083   3.672 -0.1012 -0.2084 -0.0106
94171W        W37187   6.307  21.628  23.814 -0.1561  0.2236 -0.2133
94172W        W37188   9.033  23.071   6.427 -0.0357 -0.1454  0.2242
94173W        W37189   7.334  10.350  23.477  0.1792 -0.2638  0.1182
94174W        W37190  11.711  11.416  21.995 -0.0928  0.0746 -0.3235
94175W        W37191  26.239  31.882   2.199  0.1834 -0.0703  0.0214
94176W        W37192   5.478  34.381   8.481 -0.3084  0.1258 -0.2079
94177W        W37193  10.858  14.242   0.598 -0.0699 -0.0450 -0.1343
94178W        W37194  20.782   1.521  25.597 -0.1788  0.2515  0.0665
94179W        W37195   5.397  15.329  20.779 -0.0731 -0.2464  0.2247
94180W        W37196  10.852  19.324   2.555 -0.0491  0.2733 -0.3230
94181W        W37197  28.007  26.008   4.041 -0.0507 -0.0662 -0.2833
94182W        W37198  15.033  14.693   6.096  0.0265  0.0217 -0.0446
94183W        W37199  11.000   0.898   5.755 -0.1650  0.1371  0.1487
94184W        W37200   2.456   0.025   5.919  0.1797 -0.0384  0.3154
94185W        W37201  17.610  26.890   8.907 -0.2123  0.0220 -0.0634
94186W        W37202  30.758  33.570   3.170  0.1746 -0.1170 -0.1383
94187W        W37203  16.043  26.568   6.611  0.5721 -0.0329 -0.2041
94188W        W37204   6.494  23.635  28.545 -0.0349  0.1119  0.2014
94189W        W37205  20.341  13.866  20.734  0.2053 -0.0010  0.0608
94190W        W37206   7.361  17.692   2.930  0.2182 -0.2171 -0.1456
94191W        W37207  20.939  15.079   7.990  0.0727  0.4654 -0.3061
94192W        W37208  31.211  24.530   8.465  0.1286  0.0977  0.2133
94193W        W37209  14.567  13.869   1.470 -0.1011 -0.1131  0.0564
94194W        W37210  10.636  28.015   2.546 -0.1980 -0.2264  0.2875
94195W        W37211  25.716  26.063  21.574  0.0212 -0.0611 -0.0393
94196W        W37212   8.744  19.215   7.583 -0.4250 -0.1938 -0.1165
94197W        W37213   4.045  21.908  22.636 -0.0839 -0.1558 -0.1034
94198W        W37214  16.666  16.807  18.162  0.3370 -0.2377 -0.0090
94199W        W37215  18.727  20.332   0.707 -0.1579 -0.4017  0.0209
94200W        W37216  20.342  16.307  21.218 -0.0307  0.1027  0.3338
94201W        W37217   2.715  16.188  18.346 -0.0119  0.2272 -0.3916
94202W        W37218  26.937  19.873   1.032  0.2032 -0.2527 -0.0494
94203W        W37219  23.831   0.752  26.092  0.0628 -0.1931  0.1888
94204W        W37220   7.401  23.790  28.751 -0.1057 -0.0065 -0.2226
94205W        W37221  18.595  29.725   2.836  0.2488 -0.1677  0.1054
94206W        W37222  10.551  26.318  27.577 -0.1982  0.3317 -0.2163
94207W        W37223   2.614  17.140   9.280 -0.2325  0.0137 -0.0847
94208W        W37224  14.004  16.626  21.564 -0.0339  0.1926  0.2549
94209W        W37225  33.216  16.333  23.173  0.2066  0.0612  0.0157
94210W        W37226  13.050  27.234   7.970  0.1925  0.0888  0.1450
94211W        W37227   6.411  29.813   8.410 -0.0966  0.1654  0.1056
94212W        W37228   9.087  19.093   7.940  0.2752 -0.1017 -0.1619
94213W        W37229  20.915   9.063   2.975 -0.3138  0.0558 -0.0421
94214W        W37230  18.300  22.079   1.193  0.2902  0.0643  0.2632
94215W        W37231  14.160  11.864   0.559 -0.0507  0.0111  0.1896
94216W        W37232  13.873  25.250  26.146 -0.2573  0.1621 -0.0062
94217W        W37233  15.351  21.592   7.351  0.0570  0.0168  0.0334
94218W        W37234  10.008  19.169   3.098 -0.2167 -0.1250 -0.0003
94219W        W37235   4.984  25.358   6.152  0.1987 -0.4650 -0.0955
94220W        W37236  22.345  23.766   9.328  0.2200 -0.1963  0.1160
94221W        W37237   7.029   3.933   2.079  0.2303  0.0687  0.0065
94222W        W37238  11.877  34.392   4.829  0.1406  0.3362 -0.0444
94223W        W37239  32.858  23.253  28.740 -0.1144 -0.0298 -0.0908
94224W        W37240  11.930  30.765   2.107 -0.1956 -0.1561 -0.0020
94225W        W37241  16.464  33.288  24.522  0.1429 -0.0758 -0.0907
94226W        W37242  30.025  28.683   9.733  0.2188 -0.0367 -0.2154
94227W        W37243   6.556  10.997  26.408  0.1874  0.1083  0.0667
94228W        W37244  31.454  24.864   5.320 -0.2621 -0.1553  0.1913
94229W        W37245  17.190   3.285  26.888 -0.2365 -0.1317  0.1862
94230W        W37246   5.978  28.200   8.873 -0.0567 -0.3704 -0.0155
94231W        W37247   9.734  24.842  28.698 -0.0041 -0.1953 -0.3471
94232W        W37248  32.951  19.402   7.261 -0.2493 -0.0759 -0.2626
94233W        W37249   6.660  26.160  25.395  0.1879  0.0442 -0.1488
94234W        W37250  16.876  23.135   2.219  0.2475  0.0125  0.1297
94235W        W37251   6.048  23.695  23.190  0.2401  0.0453  0.2243
94236W        W37252  12.782  19.336  27.548  0.3279 -0.0193  0.0006
94237W        W37253   4.813  16.438  28.085 -0.0728  0.0418 -0.0264
94238W        W37254  33.104  25.786  29.196  0.4349 -0.0408 -0.2007
94239W        W37255  19.918  33.577  17.473 -0.0937 -0.0110  0.2854
94240W        W37256  33.012   0.578   8.084 -0.1670  0.3014 -0.2916
94241W        W37257   6.519  19.238   0.664 -0.4624 -0.1533 -0.1234
94242W        W37258   3.150  28.136   0.881  0.2902  0.5139 -0.0025
94243W        W37259  33.570   0.232   7.496  0.5605 -0.4118 -0.1032
94244W        W37260  20.775  17.263  15.235 -0.0870 -0.0070  0.0444
94245W        W37261  10.467   8.011  14.349 -0.2028 -0.1443  0.0267
94246W        W37262  10.689  21.406   8.538 -0.2004 -0.0202  0.0104
94247W        W37263  21.510   2.690  24.773 -0.1422  0.0854  0.1357
94248W        W37264  15.733  34.757   4.167 -0.5859 -0.1763  0.1934
94249W        W37265   3.774  14.473  14.195  0.4577 -0.0595 -0.2880
94250W        W37266  18.129  20.900  27.294 -0.0680  0.3092 -0.1341
94251W        W37267  10.963  20.040  15.590  0.0724  0.1512  0.3456
94252W        W37268  18.556  26.002   9.145 -0.0836  0.1254 -0.3283
94253W        W37269   9.562  26.871   7.121 -0.3066  0.0531  0.1077
94254W        W37270  12.828   5.465  26.536 -0.1018 -0.3365 -0.0497
94255W        W37271  10.133  29.404   1.845  0.1155 -0.1848  0.0137
94256W        W37272  31.785  12.095  28.872  0.0455 -0.2046  0.0411
94257W        W37273   3.016  31.992   5.324 -0.0718  0.0746  0.0535
94258W        W37274   8.842  20.099   1.844  0.2985 -0.3240 -0.1973
94259W        W37275   3.584  22.735   6.281 -0.3584 -0.1202  0.0021
94260W        W37276  26.597  34.275   4.398 -0.1112 -0.0451 -0.0691
94261W        W37277  28.177  31.315   4.834  0.1839 -0.3582  0.0144
94262W        W37278  11.574   8.552   6.310  0.3664 -0.3074 -0.0610
94263W        W37279  21.686  15.540   2.405  0.1160  0.0048 -0.1486
94264W        W37280  14.050  21.281  14.869 -0.0788 -0.3658  0.0212
94265W        W37281   5.850  21.427  25.995 -0.0172  0.3107  0.1571
94266W        W37282   8.492  33.931  26.784 -0.0215  0.2904  0.0618
94267W        W37283  16.591  32.288   9.654 -0.2668 -0.3122  0.0791
94268W        W37284  17.178  33.920   4.357  0.0655 -0.1503 -0.2193
94269W        W37285  14.129  23.118   5.372 -0.3022 -0.1088 -0.1090
94270W        W37286  25.390  21.068  25.474  0.1394 -0.1683  0.1102
94271W        W37287  25.575  23.410  23.283 -0.1159 -0.0260  0.0489
94272W        W37288   8.436  18.132  16.185 -0.0028 -0.1010 -0.3093
94273W        W37289  29.675  23.948   3.621  0.0606 -0.0156  0.2101
94274W        W37290  29.861   4.980   0.216  0.0469 -0.0620  0.1795
94275W        W37291   3.456  29.906   6.044 -0.0885  0.0377  0.1026
94276W        W37292  23.426  24.078   0.721 -0.0153  0.3362 -0.1394
94277W        W37293   4.345  11.784   6.333  0.1677 -0.1281  0.1466
94278W        W37294   4.108  25.160   8.508  0.2402 -0.0866  0.0038
94279W        W37295  11.762  23.973  15.954  0.1552 -0.0096  0.1092
94280W        W37296   9.902  16.470   1.931 -0.0181 -0.1128  0.1428
94281W        W37297  14.104  29.248  17.597  0.1293  0.0697  0.1592
94282W        W37298   4.640  26.123   3.563 -0.0266 -0.0220  0.1213
94283W        W37299  20.582   3.684  28.810 -0.2199  0.1163 -0.1559
94284W        W37300  14.470  32.466   4.699 -0.0975  0.0046  0.0183
94285W        W37301  10.841   2.855  25.409  0.1158 -0.0151  0.1012
94286W        W37302  10.030  19.501   0.631 -0.0241 -0.0934  0.1657
94287W        W37303   6.079  12.399  26.327 -0.1971  0.1470 -0.3953
94288W        W37304   1.617   3.770  27.095 -0.0407  0.0701  0.0220
94289W        W37305  11.249  27.484  23.620  0.0728 -0.0937  0.0363
94290W        W37306  27.354   1.756  11.286  0.2343 -0.0709  0.0187
94291W        W37307  18.600  14.771  28.735  0.4642  0.3513  0.3277
94292W        W37308  30.609  19.943   6.239  0.0769 -0.2329  0.0706
94293W        W37309  23.999   5.867   0.155  0.0507  0.0408  0.0868
94294W        W37310  11.457  30.759  21.888 -0.2984 -0.0434 -0.0648
94295W        W37311  16.209   9.658  23.815 -0.0071 -0.1593 -0.0199
94296W        W37312  16.486  31.419   4.171  0.0933 -0.1699 -0.0812
94297W        W37313  18.431  18.941   2.780  0.0045  0.0001 -0.0329
94298W        W37314  14.175  21.460  25.551  0.0899  0.0678 -0.2193
94299W        W37315  11.064   1.134   8.951 -0.0323  0.0824  0.2033
94300W        W37316  11.961   4.529   2.840 -0.0228  0.0543 -0.1868
94301W        W37317   6.536  27.752   6.266 -0.0791  0.0838  0.1854
94302W        W37318  14.714  21.157   5.151  0.0500  0.0654 -0.1868
94303W        W37319   2.430  27.448  24.960 -0.1102  0.0592 -0.0194
94304W        W37320  31.993  15.505   2.649  0.0775  0.0926  0.3012
94305W        W37321  15.271   9.874  25.225 -0.1998  0.0048 -0.1355
94306W        W37322  23.408   7.972   4.268 -0.2576 -0.0661  0.0925
94307W        W37323  20.206   0.892   6.511 -0.0565  0.2142  0.0557
94308W        W37324  30.513  24.332   4.646 -0.1224 -0.0940 -0.2050
94309W        W37325   2.439  34.502   4.245 -0.4510 -0.1397  0.0608
94310W        W37326  22.687  17.386   2.083  0.0005  0.1389  0.0690
94311W        W37327  21.043  31.950   5.882 -0.2511 -0.3307 -0.1264
94312W        W37328   3.739   0.136  28.057  0.2739 -0.1633 -0.1743
94313W        W37329   7.333   1.371  26.418 -0.1510  0.1082 -0.0849
94314W        W37330  26.341  19.380   1.542 -0.1989  0.1038  0.2093
94315W        W37331  16.722  15.137   2.544 -0.1059  0.0044 -0.1041
94316W        W37332  19.646  19.919   2.929 -0.0435  0.0758 -0.0648
94317W        W37333  17.881  15.960  23.474 -0.1910 -0.0142  0.2465
94318W        W37334  16.344  24.844  18.213  0.0646  0.0099 -0.2650
94319W        W37335  15.456   8.307   3.691  0.1228 -0.0285 -0.1673
94320W        W37336  12.915  21.547  23.690 -0.0567 -0.0797 -0.2979
94321W        W37337  16.549  25.814  27.190  0.0023 -0.3183 -0.0344
94322W        W37338  33.881  23.956  24.104  0.2084  0.1734 -0.1742
94323W        W37339  31.058  28.391  18.255 -0.2616  0.3055  0.4148
94324W        W37340  22.949  22.982   6.941 -0.1093 -0.0011  0.3662
94325W        W37341  16.863  16.814   0.423  0.1114  0.1097  0.2726
94326W        W37342   5.885  29.604   4.295  0.0232  0.0542 -0.3287
94327W        W37343  12.549  19.616  22.487 -0.3890 -0.0808  0.1009
94328W        W37344  23.854  21.430   3.741 -0.0834  0.0981 -0.0569
94329W        W37345  10.801  22.199   1.099 -0.0171  0.0601  0.1988
94330W        W37346  13.720  29.747   5.264 -0.3573 -0.0407  0.0677
94331W        W37347  21.695  27.734  21.408 -0.2214 -0.4041  0.1749
94332W        W37348   1.384  34.623  20.076 -0.0257 -0.2893  0.2891
94333W        W37349  30.499   9.204  19.080  0.1858  0.0455 -0.1004
94334W        W37350  34.524  19.964   9.521 -0.3368 -0.3108  0.2980
94335W        W37351   7.699  19.577   0.792 -0.1230  0.3653  0.1521
94336W        W37352   8.052  28.638  20.603  0.5270  0.1752  0.1864
94337W        W37353  10.362  19.442  20.244 -0.0703  0.0813 -0.1004
94338W        W37354  33.965   7.865   1.247 -0.0074 -0.0861 -0.1183
94339W        W37355  11.826  19.261   4.954  0.0856 -0.4560  0.2260
94340W        W37356   9.799  27.946   3.375  0.1969 -0.0592 -0.5280
94341W        W37357  32.510   4.972  18.652  0.0842 -0.0814  0.1322
94342W        W37358  30.587  31.536   2.041  0.0573  0.0622 -0.0303
94343W        W37359   1.904  32.484   6.245  0.0904  0.0525 -0.2175
94344W        W37360   1.026   5.887   0.597 -0.0188  0.3620 -0.0002
94345W        W37361  17.783  30.167  20.221 -0.1288  0.0198  0.0256
94346W        W37362   4.625  33.289  18.402  0.0655 -0.2113 -0.1152
94347W        W37363  33.596  25.101   7.747  0.3945 -0.0017  0.3367
94348W        W37364   8.788   8.698  16.068 -0.1290  0.1325  0.1330
94349W        W37365  30.955  33.325  28.135 -0.1588  0.0773 -0.1301
94350W        W37366  32.871  34.512   1.788 -0.0914 -0.2908  0.1073
94351W        W37367  10.602  24.806  29.194 -0.0087  0.1039  0.0648
94352W        W37368  11.295   7.396  21.844  0.0713  0.1618 -0.3255
94353W        W37369  14.232   1.697   8.737  0.1336 -0.2578  0.2134
94354W        W37370   7.705   1.691   8.828 -0.1060 -0.0798 -0.0853
94355W        W37371  18.511  20.198   5.683  0.2945 -0.0118  0.1770
94356W        W37372  11.973   0.189   8.469 -0.1227  0.3566  0.1768
94357W        W37373  19.436  11.068  27.592  0.1599  0.0960 -0.1587
94358W        W37374  16.461  33.640   4.856  0.0389  0.1902 -0.0400
94359W        W37375  15.190  30.903   8.911 -0.1672  0.1588  0.1407
94360W        W37376  31.319  11.851   6.315 -0.0597 -0.3839 -0.2692
94361W        W37377   0.334  28.313  24.059 -0.0262  0.0143 -0.2363
94362W        W37378  19.390  11.109  22.674 -0.2364  0.1769 -0.0763
94363W        W37379   9.559  24.755  21.262  0.2587  0.0921 -0.1278
94364W        W37380  14.155  31.901   6.558  0.0272  0.0640  0.1447
94365W        W37381   9.764  31.175   7.150 -0.1118 -0.1548 -0.0738
94366W        W37382   0.150  24.717  26.244 -0.1344 -0.1146 -0.0472
94367W        W37383   5.117  21.463   8.250  0.1942 -0.0729  0.1677
94368W        W37384   3.540  23.630   8.305  0.0642  0.2194 -0.0942
94369W        W37385  19.933  33.848  21.598 -0.2225  0.2655  0.1303
94370W        W37386  25.970  23.264   5.415  0.3025  0.0863 -0.0882
94371W        W37387   5.206  24.794   4.953  0.3141 -0.1684  0.1378
94372W        W37388   3.187   3.651  16.173  0.0261  0.0441 -0.2264
94373W        W37389   8.734  22.776  27.896 -0.2555  0.0348 -0.2879
94374W        W37390  10.538  27.158   7.212 -0.2133 -0.0679  0.1543
94375W        W37391  10.900  24.808   9.188  0.1709  0.2545 -0.2603
94376W        W37392  15.001  21.025  29.016 -0.4338  0.0420 -0.0238
94377W        W37393  12.351  16.663  26.659  0.1916 -0.1093 -0.2504
94378W        W37394  12.415  22.437   4.280  0.1549  0.3181  0.1529
94379W        W37395  16.356  33.022  21.456  0.0706  0.1063 -0.0795
94380W        W37396  25.003  22.331   0.774  0.1145 -0.0210 -0.0674
94381W        W37397  27.820   5.165  25.864  0.0793 -0.1664  0.3336
94382W        W37398  26.954  19.881   6.883 -0.0196  0.1187  0.0216
94383W        W37399  29.424  30.451   7.042  0.1537 -0.0954  0.2320
94384W        W37400  14.126  23.533   7.710  0.0622 -0.1229  0.1123
94385W        W37401  12.334  16.258   6.927 -0.0495 -0.1711 -0.0622
94386W        W37402  34.621  21.682  25.185  0.0300  0.5022 -0.2872
94387W        W37403  13.345   5.217  19.962  0.2055  0.3294  0.0633
94388W        W37404   3.197  20.284  22.010 -0.5108  0.2412  0.2503
94389W        W37405   5.047  32.918   2.115 -0.4331  0.3192  0.0735
94390W        W37406  30.040  17.783   9.692  0.1187 -0.0767  0.1531
94391W        W37407  19.535  24.200   7.538  0.1309  0.1107  0.0355
94392W        W37408  15.036  16.806   2.871 -0.0511  0.1406 -0.1123
94393W        W37409  14.364   6.490   6.303  0.0136  0.1482 -0.1249
94394W        W37410  14.733  25.669   9.339 -0.2645  0.1730  0.3531
94395W        W37411  16.890  13.078   7.281 -0.2391  0.0389  0.0712
94396W        W37412  19.870   2.776  15.246 -0.0405 -0.0388 -0.1500
94397W        W37413  28.035  10.846   2.976  0.0151 -0.0798 -0.1115
94398W        W37414   7.461  20.529   6.743  0.2119 -0.0365 -0.3886
94399W        W37415   3.797  27.751  28.295  0.3782 -0.1020  0.1154
94400W        W37416   8.627  10.782   9.729 -0.3806  0.0141 -0.0395
94401W        W37417  29.729  15.198  20.718  0.1617 -0.2171  0.0499
94402W        W37418  33.985  26.150   9.284  0.0620  0.1734 -0.3192
94403W        W37419  10.846  14.415  27.138 -0.2393  0.4162  0.3501
94404W        W37420   6.993  32.740   7.867  0.0874 -0.0112  0.0863
94405W        W37421  11.875  18.099  21.291 -0.0709  0.2009 -0.0823
94406W        W37422  31.916  33.415  10.996 -0.0588  0.1122  0.0101
94407W        W37423  16.514  25.604   4.319  0.1782  0.2375  0.0070
94408W        W37424  17.101   0.132   3.543  0.1543 -0.1385 -0.0698
94409W        W37425  14.148   8.346  26.621 -0.3586 -0.2167 -0.1135
94410W        W37426  22.346  17.888   8.256 -0.1967  0.1638 -0.3187
94411W        W37427  20.773   2.495  27.485 -0.0830  0.0262 -0.3456
94412W        W37428   8.907   8.272   9.926 -0.3079  0.1078  0.0134
94413W        W37429  18.279  15.807  18.359  0.0708  0.2166 -0.2552
94414W        W37430   7.421  25.207  18.799 -0.2656 -0.2281  0.0064
94415W        W37431  30.741  34.447   0.066 -0.0194  0.3024  0.0583
94416W        W37432   4.117  33.366   9.103  0.1697  0.0574 -0.0841
94417W        W37433  17.205  22.661  28.490 -0.1394  0.1034  0.3805
94418W        W37434  27.986  16.406   8.891  0.0559 -0.1117  0.0256
94419W        W37435  18.429  11.167   6.267 -0.0172 -0.2026 -0.0098
94420W        W37436  16.718  10.023  27.230  0.1367  0.0467  0.1974
94421W        W37437  22.313  18.780  29.117 -0.1502  0.1205 -0.1004
94422W        W37438  10.958  11.714  16.900 -0.1601  0.4611  0.0072
94423W        W37439  25.150  32.872   9.325 -0.4380 -0.0272  0.0312
94424W        W37440  15.373   0.195   7.165 -0.0223  0.0651  0.0975
94425W        W37441  22.161  32.057   3.442 -0.3408 -0.2152 -0.0214
94426W        W37442   4.896   3.032   5.928  0.0362 -0.0073 -0.2305
94427W        W37443  16.069  23.885   8.810 -0.0155 -0.4365  0.0132
94428W        W37444  10.480  31.469  27.752 -0.0472 -0.0012  0.0877
94429W        W37445  26.425  16.792  27.540  0.2078 -0.0408  0.1368
94430W        W37446   9.488  22.778  28.916 -0.0361 -0.2414 -0.0455
94431W        W37447  32.012  27.556  23.559  0.0877 -0.0302 -0.0845
94432W        W37448   8.932  18.834  24.384  0.2739  0.1762  0.0092
94433W        W37449  15.438  33.036   7.919 -0.3606  0.0995  0.0406
94434W        W37450  20.749  28.046   2.632  0.0032  0.3908 -0.1122
94435W        W37451  10.736  13.327  28.975  0.4812 -0.1516 -0.2125
94436W        W37452  32.064  20.777   3.717 -0.0193 -0.0043 -0.1155
94437W        W37453  23.014  14.404   3.527  0.2305 -0.1182  0.1013
94438W        W37454   5.647  33.056  20.323 -0.0854  0.0040  0.1864
94439W        W37455   3.265  22.642   2.043  0.1129 -0.1696  0.2737
94440W        W37456  16.712  24.418   6.746 -0.1308  0.1163  0.0259
94441W        W37457  14.334  25.025   7.011  0.0981 -0.2570  0.1653
94442W        W37458  16.776  10.238   0.047  0.2137 -0.0365  0.0557
94443W        W37459  10.500  11.604   3.226  0.0489 -0.1486 -0.3888
94444W        W37460  32.515  18.495   8.687  0.0193  0.2884  0.4124
94445W        W37461   8.945  28.146  27.296  0.0378  0.0534 -0.2783
94446W        W37462  11.159  32.611  17.388  0.1105  0.3526  0.0286
94447W        W37463  30.829  12.893  26.287  0.1191  0.1464  0.1036
94448W        W37464  27.290  23.870  29.299  0.0651  0.1707 -0.2068
94449W        W37465   6.851  18.724   3.786 -0.0192 -0.1092  0.2493
94450W        W37466  14.915  22.778  28.361 -0.1986  0.0085  0.0604
94451W        W37467  13.994  25.824   7.298 -0.2694  0.0373 -0.0906
94452W        W37468   0.711  10.704   7.955 -0.0643 -0.2295 -0.0750
94453W        W37469  24.615  29.997   2.005 -0.4208 -0.2369 -0.0576
94454W        W37470  18.781   6.952  18.765 -0.0192 -0.3899  0.0657
94455W        W37471  19.981  23.122   4.508 -0.0348  0.0699 -0.1047
94456W        W37472  20.435  27.130   2.652  0.3754  0.2579 -0.1557
94457W        W37473  16.705  31.313  23.928 -0.0370 -0.1889 -0.0389
94458W        W37474   5.918  34.393  28.595 -0.0802 -0.0090  0.0307
94459W        W37475  15.551  20.359  20.931 -0.0200 -0.2570 -0.0522
94460W        W37476  21.159  22.905   5.223  0.0078 -0.1258 -0.3376
94461W        W37477   7.200  22.151  25.792 -0.0215  0.3348  0.1267
94462W        W37478  13.980   9.145   8.233 -0.0196 -0.2604 -0.1295
94463W        W37479  34.141   1.807   4.098 -0.3978 -0.0508 -0.0754
94464W        W37480   6.994  19.128  23.180  0.1869  0.0266  0.0303
94465W        W37481  18.012  32.536  29.212 -0.1247  0.0140 -0.0809
94466W        W37482   5.658  33.537   0.507 -0.0348 -0.2824 -0.1724
94467W        W37483  16.960  29.947  29.150  0.2545 -0.2535 -0.0941
94468W        W37484  10.866   4.922  27.482  0.2259  0.1266 -0.0745
94469W        W37485  32.073  20.766  19.161 -0.1032 -0.2728 -0.5040
94470W        W37486   6.978   2.963   7.114  0.3045  0.0686 -0.1952
94471W        W37487  28.481  24.064   2.365  0.0167 -0.2817  0.2372
94472W        W37488  18.466  17.827  20.197 -0.1187  0.0823 -0.0776
94473W        W37489   9.522  17.843   4.962  0.1543 -0.0744 -0.2359
94474W        W37490  18.365  24.683   7.486  0.0303 -0.2161  0.1948
94475W        W37491  20.775  12.679   7.006 -0.0196  0.2721  0.1681
94476W        W37492  16.689   1.548   9.358 -0.2519 -0.1290  0.0660
94477W        W37493  30.966  10.721   3.816 -0.1154  0.2108 -0.2922
94478W        W37494  13.316  23.857   2.995  0.0723 -0.0113 -0.1707
94479W        W37495  27.173  10.749   3.510 -0.1921  0.1097  0.0930
94480W        W37496   5.872  16.207   6.904  0.1099  0.2128  0.2103
94481W        W37497  19.004  13.750  29.264 -0.1471  0.0031  0.2613
94482W        W37498  12.210  30.260   7.301 -0.0063  0.2088  0.1125
94483W        W37499  11.353  28.660   9.221  0.0607  0.0964 -0.3873
94484W        W37500  12.837  27.810  19.568 -0.2280 -0.1395  0.0777
94485W        W37501  10.925   2.505   5.246  0.0669  0.0177  0.0101
94486W        W37502   4.420  31.270  25.883 -0.0323  0.2570  0.1166
94487W        W37503  17.720  27.723   8.941 -0.0825 -0.0536  0.1405
94488W        W37504  13.045   8.923   6.467 -0.0202 -0.2084  0.0787
94489W        W37505  34.557  15.787   4.260  0.3292  0.0804 -0.3885
94490W        W37506  10.553  31.048  22.942 -0.1199  0.0804 -0.0049
94491W        W37507  25.226   1.425  10.667  0.0373 -0.0819 -0.1003
94492W        W37508  13.193  26.670   6.156 -0.1237  0.0789 -0.2065
94493W        W37509  26.706  32.088   5.703 -0.4299  0.5058  0.0196
94494W        W37510  14.230   2.039   3.620  0.0662 -0.0087 -0.2210
94495W        W37511  21.746  11.481  26.405 -0.2444  0.3437 -0.0520
94496W        W37512   6.777  30.288   0.569 -0.4869 -0.0935  0.0552
94497W        W37513  24.939  13.747  26.008  0.0374  0.0269 -0.1173
94498W        W37514  17.459  24.960  28.502 -0.0479  0.1039 -0.0027
94499W        W37515  16.441  24.342  25.292 -0.1181 -0.0181  0.2744
94500W        W37516  32.665  26.227  19.708 -0.0573 -0.1913  0.1798
94501W        W37517  16.471  22.712  21.089  0.0735 -0.1874  0.1102
94502W        W37518   9.014  29.593   0.904  0.0179 -0.1086 -0.2325
94503W        W37519  34.570  30.725   6.917 -0.0962  0.2674 -0.3767
94504W        W37520  15.054  16.284   4.162 -0.3040  0.1994 -0.2162
94505W        W37521   4.392  19.422  24.303 -0.0493  0.3960 -0.0928
94506W        W37522  14.465   0.214   6.330  0.0638  0.0684 -0.4410
94507W        W37523  14.916   3.070   7.596  0.0415  0.4677  0.3681
94508W        W37524  14.545  29.998   1.346 -0.0491 -0.0396  0.0867
94509W        W37525   8.758  23.051   2.472 -0.0961  0.1570  0.1602
94510W        W37526  14.918  30.453   9.696  0.3112  0.0030 -0.2389
94511W        W37527  34.283   3.149   2.548  0.1679  0.0372 -0.1932
94512W        W37528  15.239  15.864  23.868 -0.0909  0.3785  0.4323
94513W        W37529   5.245  29.584  28.699  0.2211 -0.5922  0.0403
94514W        W37530   3.964   9.708   7.400 -0.1645  0.0683  0.0915
94515W        W37531  15.821  12.641   1.487 -0.1714  0.1642 -0.1084
94516W        W37532   8.848   2.390   7.396  0.2692  0.0855 -0.2423
94517W        W37533  21.661  25.367   4.097 -0.2248 -0.1022  0.0959
94518W        W37534   6.430   0.536   2.548  0.0944  0.0498 -0.1664
94519W        W37535  20.945  13.085  25.169 -0.1251  0.3239  0.0686
94520W        W37536  10.931  27.796  19.891  0.3114  0.0182 -0.0901
94521W        W37537  26.216  30.101  10.615  0.0662  0.2549 -0.2561
94522W        W37538  14.952   8.543  22.989 -0.0566  0.0798 -0.0301
94523W        W37539  14.858  24.646   5.634  0.0317  0.0116 -0.1340
94524W        W37540  11.922   0.240   3.465 -0.1684  0.0147  0.0878
94525W        W37541   8.425  31.712   3.647  0.1136 -0.0606  0.0690
94526W        W37542  24.202  15.319   4.839  0.0279 -0.1917 -0.3021
94527W        W37543   7.655   4.537   6.906  0.0152 -0.2771 -0.0281
94528W        W37544  25.876   2.769   6.657 -0.0261 -0.2636  0.1449
94529W        W37545  17.033  25.350   4.970  0.2942 -0.1104  0.3172
94530W        W37546  18.394  33.360   8.560 -0.0844  0.0479  0.0537
94531W        W37547  24.139  31.967   9.252  0.1941 -0.0494  0.3717
94532W        W37548  12.591  22.897   8.427 -0.1735 -0.1006  0.1932
94533W        W37549  21.283  23.306   2.126  0.0503 -0.4712 -0.1494
94534W        W37550  11.154  18.981  20.198  0.0560 -0.0109 -0.1437
94535W        W37551   6.067  19.525   7.632  0.0318 -0.1657  0.2660
94536W        W37552  18.243  19.329   7.827  0.1707 -0.1438  0.0442
94537W        W37553  19.113  31.655  24.487  0.2148 -0.3238  0.0352
94538W        W37554  14.394  18.379  21.991 -0.0355 -0.2835 -0.0398
94539W        W37555  34.761  32.694   7.135  0.0700  0.4636  0.0557
94540W        W37556  14.328   5.284   1.886  0.2097  0.1345 -0.1681
94541W        W37557  13.449   1.293   5.583 -0.1754  0.2678  0.0155
94542W        W37558  18.378  17.386  26.510 -0.2182 -0.0731 -0.0866
94543W        W37559   1.938   7.507   5.589 -0.0580 -0.0276  0.1574
94544W        W37560  27.033  22.146   5.960 -0.1790 -0.0382  0.2241
94545W        W37561  16.584  29.871   5.544  0.1047 -0.0488  0.1940
94546W        W37562  13.608  23.742   5.941 -0.0095  0.0834  0.0270
94547W        W37563  34.053  23.558   3.064  0.2642  0.0591  0.0001
94548W        W37564   6.706  28.262   1.940 -0.0671 -0.2011 -0.0842
94549W        W37565  12.431  16.718   8.368 -0.1074 -0.0705  0.0146
94550W        W37566   8.230   3.148   5.088 -0.1079  0.1907 -0.0554
94551W        W37567  11.171  14.774  27.188 -0.3944 -0.1762 -0.0473
94552W        W37568  27.711  24.543   0.635 -0.4442 -0.6390  0.0055
94553W        W37569   4.924  16.774  17.650 -0.0601  0.0688  0.0032
94554W        W37570  13.621  19.643   0.174 -0.1194 -0.0853  0.2203
94555W        W37571  32.340  14.983   9.323 -0.1999  0.0813 -0.0178
94556W        W37572   9.384  27.995  24.085 -0.0085 -0.0993  0.2453
94557W        W37573  10.598  25.590  20.755 -0.1316 -0.1069  0.1519
94558W        W37574   5.711  16.145  23.767  0.2633 -0.0302 -0.0152
94559W        W37575  16.325  22.925   7.664  0.0699 -0.1994 -0.0492
94560W        W37576  27.235  23.871   3.247 -0.2742 -0.1815  0.2370
94561W        W37577   9.243   4.035   2.882 -0.1643 -0.0172 -0.2715
94562W        W37578  14.075   7.665   7.184 -0.1289  0.1684  0.2751
94563W        W37579  10.817   9.191   1.461  0.0886  0.2512 -0.1204
94564W        W37580  12.992  33.154   5.443  0.1194 -0.0855 -0.1526
94565W        W37581   6.095  18.200   3.478 -0.0394 -0.4459  0.0318
94566W        W37582  16.797  15.492   0.007 -0.3187 -0.1003  0.1810
94567W        W37583  14.342  28.937   5.291 -0.3292 -0.0438 -0.0704
94568W        W37584  15.230  21.330   4.427  0.1481 -0.2031  0.1650
94569W        W37585  11.860   3.276   9.759 -0.0251 -0.2767 -0.0655
94570W        W37586  12.896  27.583  22.628 -0.3402 -0.0268  0.1582
94571W        W37587   9.038  22.516  27.032  0.1482 -0.0416 -0.5059
94572W        W37588  16.655  14.539  23.668  0.1802 -0.3545  0.0424
94573W        W37589  13.609  33.249   2.879 -0.3283 -0.0608  0.1796
94574W        W37590  13.173  24.548  20.377 -0.3992 -0.0507 -0.0524
94575W        W37591  17.653  32.381   7.861  0.2123 -0.0497  0.0138
94576W        W37592  14.790  11.324  20.759  0.0353 -0.3047  0.1199
94577W        W37593  18.529  13.509   8.187  0.0448  0.1543  0.0210
94578W        W37594  18.393  11.145   5.363  0.0702  0.1812  0.1241
94579W        W37595  13.632  13.329   2.503  0.0590 -0.0876 -0.1913
94580W        W37596  17.194  31.766   3.137  0.1843 -0.1073 -0.1221
94581W        W37597  33.939  28.180  27.916 -0.1345 -0.1734 -0.0642
94582W        W37598  29.455  22.214  10.231 -0.0359  0.0670 -0.0259
94583W        W37599  12.970  31.765   7.303 -0.1598 -0.0762  0.1320
94584W        W37600   1.210   1.494   2.644 -0.0603  0.0892 -0.1476
94585W        W37601  27.329  18.154  10.141  0.1492 -0.1523  0.1307
94586W        W37602  16.809   0.643  24.568  0.2848 -0.3706  0.2790
94587W        W37603  23.283  31.336   6.283  0.0485  0.1057  0.1915
94588W        W37604  12.498  21.737  23.903 -0.0350 -0.1349  0.0671
94589W        W37605   4.783  33.304   7.034 -0.0456  0.0346  0.0444
94590W        W37606  13.289  16.991  28.840 -0.3806  0.0841 -0.0499
94591W        W37607  16.599   5.695   6.696  0.3818 -0.1459 -0.1050
94592W        W37608   0.326  18.807  24.043  0.2800 -0.0720  0.0196
94593W        W37609  23.801  17.040  25.073 -0.1577 -0.1560  0.1366
94594W        W37610  15.598   0.855  28.752  0.2282  0.0630  0.2892
94595W        W37611  21.554  25.783   9.641  0.1527  0.1943  0.0360
94596W        W37612  12.730  10.504   8.810 -0.0811 -0.2114 -0.1435
94597W        W37613  10.461  26.579   8.090  0.0404 -0.0377  0.0189
94598W        W37614  10.786   7.681   6.754  0.2008  0.2522  0.2774
94599W        W37615  18.245  17.102  27.057 -0.0690 -0.1451 -0.1765
94600W        W37616  19.709  22.335   0.166 -0.1790  0.2254 -0.0649
94601W        W37617  15.039  11.737  20.765 -0.0254 -0.0622  0.1413
94602W        W37618  13.927  32.695  23.829  0.3962 -0.1214 -0.3033
94603W        W37619  15.689  15.009  25.516  0.1685 -0.3354  0.5117
94604W        W37620  21.000  29.900   1.359 -0.0474  0.1395 -0.0686
94605W        W37621  16.337  27.071   9.156 -0.1612 -0.2240 -0.1612
94606W        W37622  20.749  12.617  28.568  0.3422 -0.4150 -0.6011
94607W        W37623  16.740  26.872   5.876 -0.4167 -0.0456  0.3268
94608W        W37624  24.214  26.030  24.985 -0.1651 -0.4373 -0.2442
94609W        W37625  13.859  24.703   8.691 -0.0691  0.2372  0.0707
94610W        W37626  12.143  25.646  27.913 -0.1061 -0.1021 -0.1298
94611W        W37627  11.414  18.085   6.673 -0.1346  0.2213 -0.2123
94612W        W37628  14.960  15.558  22.651  0.2669  0.2342  0.0847
94613W        W37629  12.429  32.448   5.926 -0.0928 -0.0229  0.1454
94614W        W37630   1.431  23.600   4.499 -0.1668 -0.2013 -0.1947
94615W        W37631  16.677   6.680  20.335 -0.1628 -0.1413  0.1040
94616W        W37632  23.345   7.706   2.432  0.2528 -0.1720  0.1120
94617W        W37633  12.475  30.916   9.776 -0.0679  0.2085  0.2567
94618W        W37634   3.480  29.764   3.360 -0.2176 -0.0602 -0.1776
94619W        W37635   9.394  19.277  25.382  0.1882  0.2424  0.0408
94620W        W37636  10.671  29.114   9.615  0.0721  0.0945  0.1889
94621W        W37637  31.571  20.287   9.438  0.1556 -0.2460  0.0231
94622W        W37638  11.351  29.017  10.038 -0.0014  0.1467 -0.1698
94623W        W37639  18.151  27.087  16.535 -0.0140  0.1384 -0.0557
94624W        W37640  21.017  30.166   2.237  0.0222 -0.1385 -0.3405
94625W        W37641  11.202   0.109   0.315 -0.2600  0.1727 -0.1302
94626W        W37642   6.277  19.911  21.400  0.5620 -0.1565 -0.1686
94627W        W37643  18.608   2.216   4.205  0.2574  0.1354  0.1045
94628W        W37644  15.210  23.872  23.992  0.0639 -0.2516  0.1772
94629W        W37645   7.605  10.663   8.292 -0.2078 -0.1694 -0.1088
94630W        W37646  25.535  26.236   6.489  0.1700 -0.0896  0.1673
94631W        W37647  12.864   0.195   8.110 -0.1118 -0.0063  0.4024
94632W        W37648  14.027  20.090  18.580  0.0836  0.0508  0.1577
94633W        W37649  31.042  22.002   2.519  0.0584  0.0445 -0.0256
94634W        W37650  16.066  23.358   0.349 -0.1755  0.3623  0.5273
94635W        W37651  25.863  15.088   1.927 -0.2106 -0.3855 -0.2364
94636W        W37652  18.397  12.494   4.450 -0.0236 -0.2672  0.0255
94637W        W37653  13.974  23.516   5.117 -0.4527 -0.0405 -0.1192
94638W        W37654  16.526  34.076   1.075  0.2314 -0.1413 -0.2941
94639W        W37655  14.899  12.280   7.179 -0.0601  0.0583 -0.0472
94640W        W37656   8.201  29.140  16.825  0.3303 -0.1541  0.1785
94641W        W37657  28.627  32.120   5.081  0.1973 -0.1634 -0.4527
94642W        W37658   9.436  22.715   7.795  0.0509  0.0210  0.4212
94643W        W37659   7.114  30.623   7.736  0.0761  0.0147  0.2387
94644W        W37660  31.010  21.369  23.006 -0.0856 -0.1403  0.2721
94645W        W37661  21.746  16.447  23.301 -0.3125  0.1320 -0.0381
94646W        W37662  15.053  14.091   0.268 -0.1825  0.3756  0.1916
94647W        W37663  11.832  32.445  18.530 -0.1367 -0.2204 -0.3006
94648W        W37664  29.606  13.696   8.230  0.0200  0.4339  0.0314
94649W        W37665  28.505  24.537   2.068 -0.3185  0.1731  0.1858
94650W        W37666   7.581   1.093   8.970 -0.1139 -0.1490 -0.1583
94651W        W37667  13.906  20.029  19.110  0.3941 -0.1721 -0.0361
94652W        W37668   9.188   5.963   9.393 -0.0109  0.0612  0.0267
94653W        W37669  31.757   8.715  17.738  0.0640 -0.0792  0.0157
94654W        W37670  10.347  12.186   3.825  0.0847 -0.1560 -0.0832
94655W        W37671  27.707  31.828   7.227 -0.1560  0.0677  0.1103
94656W        W37672  25.242   1.493  16.866  0.3733  0.1306  0.2319
94657W        W37673  15.687  18.651  23.799  0.0658 -0.0033  0.0512
94658W        W37674   9.944  32.241   7.175 -0.0148  0.1755 -0.1600
94659W        W37675  30.661  22.141  10.256  0.1973  0.2166  0.1008
94660W        W37676  12.264   2.402  22.176 -0.3010  0.0018  0.1266
94661W        W37677  13.882  33.622  26.469  0.0814  0.2240  0.5048
94662W        W37678  25.587  18.514  23.704  0.1114 -0.2632 -0.1983
94663W        W37679   5.903  24.076  22.887  0.0973  0.2032 -0.0966
94664W        W37680  16.493   8.748   3.222 -0.1675  0.0965  0.0824
94665W        W37681  21.912  21.848   7.784 -0.1170  0.2262 -0.0916
94666W        W37682  25.132  21.933  26.709  0.0658 -0.1412 -0.2902
94667W        W37683  15.400  18.407   8.539 -0.1660 -0.2712  0.2721
94668W        W37684  11.238  16.253   7.844  0.1635  0.0679 -0.0885
94669W        W37685   6.675  20.151   4.095 -0.3517  0.1639  0.1562
94670W        W37686  16.815  19.478  27.744 -0.2828 -0.1551 -0.0261
94671W        W37687  23.308  15.935  23.127 -0.0125 -0.2530  0.0997
94672W        W37688  13.411  17.971   4.071 -0.1686 -0.1893 -0.1702
94673W        W37689  16.290  27.596   0.903 -0.2390 -0.0803 -0.0670
94674W        W37690   8.016  31.269  24.049  0.0114 -0.0096 -0.2765
94675W        W37691  22.008  22.671   6.307  0.2561  0.0092  0.2562
94676W        W37692  17.971   8.444   5.416 -0.1689 -0.0647  0.2965
94677W        W37693  27.917  24.996   7.319  0.0210 -0.0267 -0.2511
94678W        W37694  17.400  19.041  23.171  0.0831 -0.0530  0.0841
94679W        W37695  18.574  17.263   6.609 -0.2393 -0.4562 -0.2518
94680W        W37696   0.897  24.457  27.792 -0.2580 -0.2536 -0.1574
94681W        W37697  10.285  32.357   8.827  0.2239 -0.1244  0.0389
94682W        W37698  13.846   5.921  28.899 -0.0251 -0.0081  0.1190
94683W        W37699   5.758  14.894  20.342  0.0898  0.0539 -0.0950
94684W        W37700  17.505  22.731  19.424 -0.1156 -0.0206 -0.3202
94685W        W37701   7.185  30.913  23.668  0.0967  0.3015 -0.0645
94686W        W37702  22.919  19.145   4.525  0.2674 -0.1347  0.1052
94687W        W37703  31.305  22.447  27.286  0.2354  0.0634  0.0300
94688W        W37704   8.510  33.282   4.655 -0.1743  0.0799 -0.3307
94689W        W37705  15.194  32.044   5.246  0.0227 -0.1308 -0.0741
94690W        W37706  18.635  21.220   0.608  0.1672 -0.0403 -0.0241
94691W        W37707   9.056   3.431   1.706  0.0183 -0.0598 -0.0781
94692W        W37708  15.997  16.295   2.361  0.1246 -0.0115  0.0288
94693W        W37709  10.846  17.284   3.958  0.0735  0.0307 -0.0686
94694W        W37710  23.482  32.628   9.607  0.1429  0.2403  0.0637
94695W        W37711  33.773  11.369   9.576  0.2707  0.3239 -0.1934
94696W        W37712  32.354  20.617   3.326  0.2286 -0.3077  0.0421
94697W        W37713  12.697   8.246   0.110  0.1420  0.1897 -0.3712
94698W        W37714   6.040  10.054   3.754 -0.0791  0.1686 -0.2796
94699W        W37715   1.448  20.250   4.984 -0.2583  0.0868 -0.1030
94700W        W37716  26.692   3.189   4.057 -0.3984  0.0687  0.6033
94701W        W37717  19.143  16.617  24.411 -0.0863  0.0609  0.0713
94702W        W37718  12.851  20.983  25.454  0.1250 -0.2276 -0.2675
94703W        W37719   7.201  27.617   2.546 -0.4569 -0.2121 -0.1085
94704W        W37720  17.367  10.668   0.851 -0.3366 -0.0573 -0.1591
94705W        W37721  20.724  19.991  15.078  0.0433 -0.3096  0.1031
94706W        W37722  15.229  28.110  27.735 -0.2571 -0.0085  0.1890
94707W        W37723   9.506  18.255   8.216 -0.0962  0.0009  0.0228
94708W        W37724  21.754  23.031   1.968 -0.0729  0.0051  0.1548
94709W        W37725  18.225   6.529  26.718  0.1594 -0.0109 -0.3207
94710W        W37726  17.353  31.662   0.453 -0.2161 -0.0490  0.6001
94711W        W37727  22.560   9.880  16.413 -0.2327 -0.1680 -0.1976
94712W        W37728  10.436  20.928   3.618 -0.1134  0.1441 -0.1419
94713W        W37729  18.453  24.228   6.504 -0.0741 -0.1304 -0.2052
94714W        W37730   0.642  26.741  24.532  0.2992  0.4616 -0.2010
94715W        W37731   4.776  12.094   6.183  0.0328 -0.0390 -0.2516
94716W        W37732  23.224  27.465   1.157  0.1052  0.1715 -0.0540
94717W        W37733   9.454  14.130  19.267 -0.1724  0.2282 -0.1955
94718W        W37734  11.119  21.607   2.767  0.0284 -0.0538  0.1888
94719W        W37735   1.705  17.543   8.971  0.1247 -0.1320  0.1508
94720W        W37736  22.677   3.040   3.178  0.2191 -0.1613 -0.2210
94721W        W37737  10.548  25.193   6.011 -0.1064 -0.1708  0.3595
94722W        W37738  11.805  31.368  17.756  0.1147 -0.3737  0.0691
94723W        W37739   4.367  33.763  29.132  0.2020  0.3099  0.1115
94724W        W37740  22.203   1.436   9.394 -0.1061 -0.3743 -0.0309
94725W        W37741  11.036  17.432  24.080  0.2179  0.1422 -0.0220
94726W        W37742  17.071  31.053   9.820  0.1660 -0.0026 -0.0188
94727W        W37743  28.486  18.911   9.518  0.0046  0.1133 -0.0051
94728W        W37744  14.809  12.010   6.340  0.1436  0.0347 -0.0279
94729W        W37745  13.396  25.352   9.368 -0.2558 -0.1995  0.2313
94730W        W37746  32.979  31.217  25.310 -0.0670  0.3654 -0.0076
94731W        W37747   0.777  25.899   4.241 -0.0794  0.1499  0.2360
94732W        W37748   8.455  23.585   3.180 -0.2542 -0.0290 -0.0814
94733W        W37749  15.460  29.914  26.666  0.2795  0.0931  0.1625
94734W        W37750  23.761  34.043   3.795  0.0729 -0.1162  0.3607
94735W        W37751  21.526  29.896   8.494  0.0482  0.0580 -0.2064
94736W        W37752  31.976   0.155  10.025  0.1644 -0.1777 -0.0695
94737W        W37753   1.883   6.025   7.833 -0.1537  0.1165 -0.1185
94738W        W37754  27.166  14.238   4.614  0.2517 -0.1037  0.3289
94739W        W37755   7.069   0.134  17.816  0.3045  0.1670  0.0495
94740W        W37756  27.536   7.767  24.850 -0.3038  0.0871  0.0229
94741W        W37757  23.818  32.469  27.172  0.1146 -0.0622 -0.6685
94742W        W37758  11.835  15.684   3.840 -0.0707 -0.1295 -0.0894
94743W        W37759  34.362  25.689   5.847  0.2993 -0.2608 -0.0170
94744W        W37760  25.313  16.332  28.055 -0.1414 -0.0342 -0.0639
94745W        W37761   8.148  33.232   9.282 -0.0900  0.2197  0.0324
94746W        W37762  13.189  22.997   3.607  0.1275  0.0500 -0.0499
94747W        W37763  17.719  19.170   8.474 -0.2076  0.0162 -0.1250
94748W        W37764  10.355  11.212   7.295  0.2156  0.0564  0.2172
94749W        W37765  13.668   4.493   4.336 -0.0405  0.0006  0.1973
94750W        W37766  14.807  11.573  28.105 -0.1253  0.1837 -0.1849
94751W        W37767  18.987  22.430   4.063  0.0990 -0.3648 -0.2084
94752W        W37768  12.303   0.377   3.135 -0.1756 -0.0433 -0.0736
94753W        W37769  28.781  17.398   4.683 -0.1086  0.0355  0.0651
94754W        W37770   9.691  20.366  18.181  0.0830  0.1262 -0.1957
94755W        W37771   6.011  24.760   7.167  0.0723 -0.0360  0.1539
94756W        W37772  19.443   7.460   7.163 -0.0586 -0.5146 -0.0784
94757W        W37773  18.972   5.575  24.877  0.2646 -0.4144 -0.1849
94758W        W37774  15.723  24.835  25.661 -0.1532 -0.1119  0.1625
94759W        W37775  12.455  31.737  26.787 -0.1837  0.3929 -0.1310
94760W        W37776  26.564  34.347   1.270  0.2546  0.1764  0.0101
94761W        W37777  10.805  16.609  28.264  0.0685 -0.0447  0.0600
94762W        W37778  13.324  22.475   8.379  0.2452  0.0950 -0.1325
94763W        W37779  15.887  17.997  18.265  0.4100 -0.0992 -0.2010
94764W        W37780  11.538  30.693   4.079  0.1410 -0.1757  0.1254
94765W        W37781  10.486   6.971   6.274  0.1805 -0.1594 -0.0425
94766W        W37782  16.718  26.667  27.520 -0.0683  0.1498  0.0056
94767W        W37783  31.832  30.054   7.741 -0.3282 -0.1497 -0.0582
94768W        W37784  28.917  21.416  24.264 -0.2694  0.0207 -0.2477
94769W        W37785  11.414  27.351   7.398  0.0462  0.0650  0.0515
94770W        W37786  33.415  18.465   8.774  0.0426 -0.3777  0.3057
94771W        W37787   7.160  20.118   2.706 -0.0999 -0.3657 -0.0266
94772W        W37788   5.522  19.155   3.157  0.1803  0.0562 -0.0040
94773W        W37789  23.086   3.125   1.206  0.1285 -0.0680 -0.2829
94774W        W37790  12.523  18.328   0.373  0.1640 -0.1560  0.1314
94775W        W37791  19.453  19.419   0.057  0.2407 -0.0936 -0.0426
94776W        W37792  12.751  29.070   1.085  0.0439 -0.1147 -0.0573
94777W        W37793  20.939  19.816  26.878  0.1912 -0.0742 -0.0556
94778W        W37794  17.768  33.947   0.398 -0.0246  0.0176  0.1345
94779W        W37795   6.760  10.374   9.579  0.1842  0.0081  0.2505
94780W        W37796   0.342  14.015  27.730 -0.1562  0.1799 -0.0702
94781W        W37797  30.338  31.350  11.204 -0.0382 -0.2783 -0.0088
94782W        W37798  15.865  17.238   8.372  0.0495 -0.0327  0.0917
94783W        W37799  15.980   0.855   4.345 -0.0439  0.1647  0.3796
94784W        W37800  22.071  13.153   4.815  0.0791 -0.1758  0.2256
94785W        W37801   4.832  10.822   5.339 -0.2559  0.1280  0.1316
94786W        W37802   9.880  18.084   2.066  0.3404 -0.2978 -0.1127
94787W        W37803  19.519  31.641   3.451  0.5608 -0.2679 -0.1348
94788W        W37804  23.961  22.641  26.726 -0.0397  0.2182 -0.0427
94789W        W37805  33.777  27.324  26.572 -0.1134 -0.3283  0.0773
94790W        W37806  18.787  19.517   4.550  0.0412  0.0225 -0.3099
94791W        W37807  17.655   3.258   4.375  0.3036  0.0880 -0.2069
94792W        W37808  17.846  21.579   5.978 -0.0350  0.2826 -0.1472
94793W        W37809  15.134  26.427  28.616  0.2398 -0.0591  0.1579
94794W        W37810  28.311   5.090   3.645 -0.1047 -0.1578 -0.1086
94795W        W37811  27.889  23.326  23.738  0.2258 -0.2141 -0.0687
94796W        W37812  27.863  18.198  28.701 -0.1676 -0.0369 -0.0967
94797W        W37813   9.436   1.521   6.365  0.0991  0.2463  0.1402
94798W        W37814  17.189  13.367   5.985  0.3218 -0.5190  0.3670
94799W        W37815  29.075  16.096   0.842  0.0196 -0.0320 -0.0638
94800W        W37816  14.215  18.370   2.902 -0.3349 -0.0856  0.0214
94801W        W37817   6.013  10.623   7.855 -0.0230  0.4796  0.0042
94802W        W37818   5.049  15.018   3.022  0.0545  0.0006 -0.0471
94803W        W37819  18.412  28.471   0.468  0.4960 -0.0194  0.1991
94804W        W37820   7.947  13.399   6.296 -0.1710  0.1290  0.2388
94805W        W37821   9.211  34.092   2.594 -0.3189  0.0422  0.1371
94806W        W37822  26.613  16.542   7.221 -0.1538  0.0947 -0.0750
94807W        W37823  11.468  14.948   0.942  0.3749  0.2572 -0.3638
94808W        W37824  31.260  26.232   3.744 -0.1835 -0.0484 -0.1643
94809W        W37825  16.999  12.808  15.069  0.0476  0.1041 -0.0861
94810W        W37826  30.599  10.349   9.734  0.0024  0.2749  0.0149
94811W        W37827  24.263  31.189   4.125 -0.0069 -0.1046 -0.1866
94812W        W37828  14.776  24.801   1.636 -0.2788 -0.0336  0.0694
94813W        W37829   6.106  26.244  16.158 -0.0354 -0.1766 -0.2752
94814W        W37830  16.308  16.123  28.605 -0.0602  0.1200  0.2588
94815W        W37831  14.513  28.556   3.608 -0.0409  0.1593  0.0935
94816W        W37832  17.870   6.249  23.042  0.2582  0.1031  0.0877
94817W        W37833   5.020  26.502   8.919 -0.1763 -0.1324 -0.0315
94818W        W37834   1.694  24.481  26.859  0.2012  0.3030 -0.2012
94819W        W37835  24.284  12.277   8.858 -0.0795 -0.0090  0.1202
94820W        W37836  11.769  23.757  28.884  0.2596  0.0988 -0.1842
94821W        W37837   9.160  33.723  10.139 -0.0309  0.0823  0.0264
94822W        W37838  11.645  28.560  27.817 -0.1231  0.0405 -0.0694
94823W        W37839   8.471  33.475   0.490 -0.2718 -0.3110  0.1051
94824W        W37840   9.671   5.010   9.432  0.2085 -0.2972  0.4170
94825W        W37841  23.408  23.415   5.304  0.0436 -0.0198  0.2017
94826W        W37842  15.596  21.780   6.517  0.3065 -0.0831  0.1725
94827W        W37843   2.971  15.734   2.425 -0.2731  0.3295 -0.1883
94828W        W37844  15.753  15.440   4.628  0.3038 -0.3284 -0.2908
94829W        W37845  21.866  32.279   4.785 -0.0096 -0.1596  0.0837
94830W        W37846  22.366   1.227   2.344  0.1543 -0.0739 -0.3254
94831W        W37847  16.045   1.449   4.965  0.1041 -0.0225  0.2475
94832W        W37848  10.142  24.993   2.309  0.2878  0.0401  0.0126
94833W        W37849  31.919  23.577   4.077  0.0305 -0.1195  0.0888
94834W        W37850  30.754  30.405  26.872 -0.1136 -0.1222 -0.2290
94835W        W37851  21.662  32.343  27.020 -0.0923 -0.4804  0.1011
94836W        W37852  34.369  27.522   3.595 -0.0079 -0.0155 -0.3180
94837W        W37853  16.589  23.474  27.225 -0.0475  0.1239 -0.1474
94838W        W37854  10.490   9.151   5.821  0.2703  0.0460 -0.3970
94839W        W37855   9.631  18.127  23.339 -0.0906 -0.0942  0.1244
94840W        W37856  28.620   5.083  28.260  0.0555 -0.0860  0.0440
94841W        W37857   1.148  27.748  19.360  0.1150  0.0063  0.0951
94842W        W37858  33.188  21.654   5.326 -0.2924 -0.3129 -0.0662
94843W        W37859   7.444  21.441   7.190  0.0069  0.2463 -0.3498
94844W        W37860  15.574  26.612   9.337 -0.0037  0.0405 -0.0668
94845W        W37861   9.492  25.418  25.124  0.3021 -0.1667 -0.2368
94846W        W37862  21.911  21.068   8.142  0.4386  0.0908  0.3035
94847W        W37863   3.856  28.106   9.087 -0.0849 -0.1216  0.3964
94848W        W37864  27.556  22.238   1.488 -0.2085  0.3084  0.0027
94849W        W37865  13.637  19.212   3.830 -0.1461 -0.1558 -0.1621
94850W        W37866   5.729  26.928   0.978 -0.0535 -0.3709  0.2062
94851W        W37867  18.086  10.971   0.173 -0.1152  0.2444  0.0703
94852W        W37868   9.500  31.738  22.631  0.0984  0.0070 -0.0894
94853W        W37869  20.017  25.782   7.518  0.1046 -0.0952  0.1934
94854W        W37870  14.910   4.013  27.927 -0.1732  0.0304 -0.0520
94855W        W37871  14.249  11.496   6.853 -0.3051 -0.2634  0.1181
94856W        W37872   9.821   4.355   3.569  0.0344 -0.3257  0.4704
94857W        W37873  31.145  25.242   5.550  0.1761  0.0382  0.0659
94858W        W37874  14.961  33.641   3.490  0.0523  0.2156 -0.0606
94859W        W37875   0.169  11.602  10.487  0.1237 -0.0590 -0.2853
94860W        W37876  10.300   1.326   8.185 -0.0759 -0.0513  0.1427
94861W        W37877  14.797  21.176  27.683  0.2712 -0.1697  0.0052
94862W        W37878   9.753   0.565   4.801  0.0719 -0.0924  0.0135
94863W        W37879  11.875   5.042  25.107 -0.1455 -0.2506  0.0632
94864W        W37880   7.450  33.326   1.221 -0.0679  0.0835 -0.1080
94865W        W37881  12.421  32.616  10.253  0.2056  0.0467  0.4331
94866W        W37882   7.548   8.265   9.759  0.0733  0.0839 -0.2103
94867W        W37883  18.456  17.658  24.814 -0.2914  0.1123 -0.1931
94868W        W37884  12.211  26.740   7.121 -0.0709 -0.2575 -0.0139
94869W        W37885  23.866  30.546   5.871 -0.2871 -0.2565 -0.1681
94870W        W37886   8.651  33.336  27.286  0.2093  0.0273 -0.2183
94871W        W37887   2.109  12.212   3.659 -0.1641  0.0379 -0.3316
94872W        W37888  19.266  24.234   9.064  0.0213  0.1414  0.0173
94873W        W37889  11.483   6.854   3.635 -0.2185 -0.0189  0.1604
94874W        W37890  15.033  10.419  28.108  0.1303  0.0513 -0.0679
94875W        W37891  17.086  28.780  22.371 -0.1720  0.0397  0.0535
94876W        W37892  16.051  22.052   6.230 -0.0356  0.0649 -0.1927
94877W        W37893  20.440  29.915   3.790  0.0449  0.0793 -0.1084
94878W        W37894  32.233  23.231   7.114  0.0119 -0.1800  0.2598
94879W        W37895  13.681  20.949   1.857  0.2109 -0.0032 -0.0003
94880W        W37896  27.255  25.639  17.138  0.1745 -0.1581  0.2275
94881W        W37897  11.428  21.264   5.772 -0.2075  0.1853  0.1589
94882W        W37898  33.476  27.429   8.791  0.0882 -0.2161  0.1075
94883W        W37899  19.064  18.426  28.446 -0.0822  0.0509  0.1221
94884W        W37900   6.015   4.504  23.445  0.0785 -0.2296  0.0062
94885W        W37901   5.695  25.907   8.535  0.0226 -0.0812  0.0104
94886W        W37902  16.870  28.527   1.156 -0.0673 -0.2165  0.1705
94887W        W37903   8.360  20.976  19.839 -0.1551  0.2573 -0.0099
94888W        W37904   2.073   3.562   6.795  0.2172 -0.0419  0.2410
94889W        W37905  20.093   8.042  25.192  0.2425  0.0021  0.1653
94890W        W37906   7.830  17.526   2.775  0.0879 -0.2645 -0.3011
94891W        W37907  12.321  24.940   4.607  0.0686  0.1751  0.0050
94892W        W37908   8.438   9.280   3.696 -0.1233  0.1353  0.1992
94893W        W37909  10.999  32.708   7.266  0.2960 -0.0998  0.2782
94894W        W37910  11.094  11.741   3.301  0.1201  0.1260  0.0213
94895W        W37911  14.658  28.410   0.923 -0.1113  0.2150 -0.1622
94896W        W37912  13.471  17.893   6.360  0.2645 -0.2038  0.0057
94897W        W37913   5.789  26.320  28.566  0.1358  0.1435  0.2561
94898W        W37914   4.034   9.472   4.417 -0.1496  0.0814 -0.1463
94899W        W37915   2.814  15.553  27.777  0.1873  0.0095 -0.2541
94900W        W37916  14.137  20.399   2.311  0.0904  0.0580 -0.0820
94901W        W37917  23.654  29.158  27.785 -0.1062 -0.3092 -0.2580
94902W        W37918  20.870  20.948   8.991  0.3620 -0.1470  0.2808
94903W        W37919  15.797  18.254   0.606 -0.2426  0.0605  0.2153
94904W        W37920  22.492  29.328   5.616 -0.0909 -0.3593  0.0453
94905W        W37921  19.588  30.582  10.502 -0.1447  0.2933 -0.2388
94906W        W37922  14.789  30.932   0.523 -0.0060  0.0288 -0.1021
94907W        W37923   5.178  23.161  26.334  0.3834 -0.6557  0.1054
94908W        W37924  22.915  14.537   4.267  0.0836  0.0297  0.1069
94909W        W37925  15.162  27.176  22.620 -0.1909  0.0817 -0.0662
94910W        W37926   1.566  20.163   0.473  0.1946  0.2074 -0.2051
94911W        W37927   9.073  29.867  21.947  0.0832  0.1711  0.3952
94912W        W37928  32.101   1.465   5.256  0.0427 -0.1280 -0.1053
94913W        W37929  20.275   9.141   7.736 -0.0252 -0.0758 -0.3352
94914W        W37930  22.064   0.485   8.555  0.2756 -0.1286 -0.4689
94915W        W37931   8.605  29.285   1.669  0.1158 -0.0939  0.0729
94916W        W37932  26.004  13.208   6.785 -0.0402  0.1014  0.1968
94917W        W37933  24.412  34.219   5.879 -0.0549 -0.0985 -0.0011
94918W        W37934  19.127   5.084   8.227 -0.0189  0.3584 -0.0806
94919W        W37935  14.236  24.616  27.213 -0.2013 -0.4918  0.2278
94920W        W37936   3.348  13.433   5.355 -0.3851  0.1394 -0.1486
94921W        W37937  23.947  16.766   8.041 -0.0974 -0.0710 -0.1770
94922W        W37938  20.356  26.337   6.593 -0.2295 -0.0931 -0.0089
94923W        W37939  30.306  32.983   3.633  0.0796 -0.0559 -0.1037
94924W        W37940  18.857   0.721   6.693  0.1598  0.1800 -0.1035
94925W        W37941   7.173   6.370   4.173 -0.4145 -0.2683  0.1214
94926W        W37942  23.487  24.568   9.623 -0.0256 -0.0115 -0.0737
94927W        W37943   8.103  10.202  25.666 -0.1865  0.0806  0.0222
94928W        W37944  34.224  31.698   7.450 -0.0514 -0.1300  0.0602
94929W        W37945  26.637  16.396   8.301 -0.0436  0.4776  0.1050
94930W        W37946   1.640  12.896  17.127 -0.1250  0.0696  0.0075
94931W        W37947  15.072  20.561   0.815 -0.0998 -0.0209 -0.0220
94932W        W37948   9.463   0.405   5.447  0.3538 -0.0046  0.2291
94933W        W37949  21.072  13.927   6.409 -0.0352  0.3955 -0.0516
94934W        W37950   8.871  28.312   3.320  0.2664 -0.1617  0.0198
94935W        W37951  13.134  27.522  26.235 -0.1705  0.0899  0.3310
94936W        W37952   4.260  19.221   3.012 -0.3592 -0.2710  0.0222
94937W        W37953   8.807  29.117   0.803  0.0625  0.1526  0.4197
94938W        W37954   9.444  27.079   1.244  0.1916  0.1246  0.1115
94939W        W37955  12.048  33.748   6.610  0.2301 -0.4025  0.1129
94940W        W37956  19.245  19.420   5.831 -0.2100  0.0358  0.2792
94941W        W37957  10.502  24.211   2.612  0.0867 -0.0622 -0.1840
94942W        W37958  20.382  21.996   5.770 -0.1728 -0.1333 -0.0273
94943W        W37959  33.785  33.165   3.471  0.3721 -0.1693  0.0696
94944W        W37960  26.700   7.898   3.889 -0.1027 -0.3796 -0.0470
94945W        W37961  13.061  21.407   6.157  0.0619 -0.1335  0.1563
94946W        W37962   5.326  26.942  26.339  0.1332  0.0240  0.3242
94947W        W37963   6.672  29.353   1.573 -0.0456  0.1212  0.1831
94948W        W37964  34.404  22.545   6.745 -0.0678 -0.0140 -0.2736
94949W        W37965  19.588  11.741   7.036  0.1772  0.3162  0.0348
94950W        W37966  19.078  17.244  28.654 -0.0762 -0.0971  0.0907
94951W        W37967  25.197  20.845   5.765  0.1872  0.1178  0.0722
94952W        W37968  13.059  24.215   7.837  0.0764  0.1177 -0.2440
94953W        W37969  19.839  20.077   6.472  0.0636  0.3361  0.0376
94954W        W37970  32.405  10.850   7.841 -0.0863  0.0882  0.0628
94955W        W37971  16.293  14.405   5.660  0.1736 -0.2181  0.1031
94956W        W37972  14.129  20.112   8.073  0.1064  0.4676  0.1412
94957W        W37973  21.545  25.541  10.596  0.1313  0.2451 -0.2789
94958W        W37974  18.197  31.971  21.580 -0.0080  0.0784  0.0635
94959W        W37975   7.574  26.694   1.904  0.0794 -0.0669  0.1117
94960W        W37976  34.661  28.763   8.970  0.0004 -0.1239  0.2565
94961W        W37977  18.508  11.185   1.276  0.1583 -0.1673 -0.3721
94962W        W37978  33.150  26.851   5.596 -0.0176  0.0667  0.0537
94963W        W37979   9.819  25.172   8.703 -0.1171 -0.1745 -0.1027
94964W        W37980   9.694  30.916   2.116  0.0624 -0.0753 -0.1793
94965W        W37981   0.858  18.460   9.883 -0.1584  0.1213  0.0841
94966W        W37982  30.721   8.696   0.649 -0.1554  0.2563  0.2692
94967W        W37983   0.119  13.692   7.031 -0.3293 -0.0134 -0.0013
94968W        W37984  25.379  15.626  26.962  0.4628 -0.1365 -0.1003
94969W        W37985  21.878  17.387  24.590 -0.0396 -0.1654  0.0704
94970W        W37986  18.380  30.523   1.294 -0.1516 -0.0670  0.1096
94971W        W37987  26.251  17.192   7.466 -0.0991 -0.0412  0.0935
94972W        W37988   9.071   4.768   0.995  0.0897 -0.0373 -0.2228
94973W        W37989  32.829  14.371   8.404 -0.2812 -0.0939 -0.0583
94974W        W37990  12.188  23.954   3.208  0.2833 -0.0838  0.0338
94975W        W37991   5.771  11.166   6.251  0.0306 -0.3099  0.0164
94976W        W37992   8.343   2.919   6.825 -0.2233  0.0685 -0.3429
94977W        W37993  20.239   6.634   0.318 -0.2609 -0.3910  0.1026
94978W        W37994   9.055  32.069   5.116  0.0501  0.1601  0.1740
94979W        W37995  10.048  18.048  20.979  0.2560  0.0331  0.0585
94980W        W37996  10.667  19.666   1.224 -0.1508 -0.1878  0.1418
94981W        W37997  14.529  22.982  22.519  0.0110  0.0397 -0.2312
94982W        W37998  22.197  25.552   5.110 -0.1366  0.1854 -0.0591
94983W        W37999  19.100   5.321   1.712 -0.3224  0.0464  0.2262
94984W        W38000  11.920  18.147   7.520 -0.1283 -0.2257  0.0617
94985W        W38001  10.674  10.194   5.048  0.0705  0.0283  0.1790
94986W        W38002  16.550  18.900   6.971  0.0428  0.1779 -0.2585
94987W        W38003   7.861  11.619  24.309  0.2597 -0.2675 -0.2590
94988W        W38004   0.375  34.402  25.672 -0.0406 -0.1668 -0.0109
94989W        W38005   8.438  11.016  25.919  0.0661 -0.0811  0.0278
94990W        W38006  11.195  26.243  22.879  0.1149 -0.0126  0.1024
94991W        W38007  22.209  19.339   0.852  0.0159  0.1470  0.1251
94992W        W38008  23.725  24.826   5.054  0.4344  0.0922 -0.0689
94993W        W38009   3.937  28.842   0.179  0.0646 -0.3066  0.0318
94994W        W38010  11.230  15.110   0.392  0.0605  0.0085 -0.1711
94995W        W38011  11.250  33.919   7.782  0.2578 -0.0631 -0.2521
94996W        W38012  17.836  18.459  16.629  0.0557  0.5365  0.1318
94997W        W38013   6.317  29.978  29.044  0.1709 -0.0712  0.0615
94998W        W38014  22.708  29.435   8.263  0.3032 -0.3140 -0.0796
94999W        W38015   7.198  26.567   6.647 -0.0387 -0.1024 -0.1690
95000W        W38016  15.290   3.373   5.360 -0.2592  0.0075 -0.1342
95001W        W38017  15.733  18.482   1.629 -0.1488 -0.2136 -0.2863
95002W        W38018  13.035  27.360   3.898 -0.0569  0.0140 -0.3028
95003W        W38019   2.729  29.824   9.262  0.0302  0.1819  0.0921
95004W        W38020  12.204  26.964   3.375 -0.0250 -0.1070 -0.0134
95005W        W38021  11.970   0.281  26.404  0.0932 -0.0743  0.0507
95006W        W38022   5.732  18.223   4.665  0.1164 -0.2735  0.1536
95007W        W38023   0.676  22.392   6.275 -0.1146  0.0371  0.2229
95008W        W38024  24.666   1.499   7.890  0.1869 -0.1372 -0.0953
95009W        W38025  15.300  31.539   6.390  0.1689  0.1616 -0.1101
95010W        W38026  21.473  23.544   9.529 -0.0438 -0.0356 -0.2267
95011W        W38027  12.299  18.272  25.142 -0.1057  0.0119  0.1267
95012W        W38028  11.801  19.367   0.959  0.1352  0.2175  0.4530
95013W        W38029  14.462   2.551   2.861  0.1623 -0.0289 -0.3761
95014W        W38030  13.932   3.478   1.090 -0.2026 -0.2447 -0.0323
95015W        W38031   7.827   9.512   3.674  0.4111  0.1407 -0.1887
95016W        W38032   3.705  15.623   1.476  0.1316  0.1522  0.1016
95017W        W38033   0.557  34.342   9.826  0.2614  0.0094 -0.2054
95018W        W38034  26.415  22.687  11.232  0.1344 -0.0968  0.0193
95019W        W38035  16.478  11.697   4.768  0.1589  0.1643  0.0984
95020W        W38036   7.440  33.828   0.627  0.0819  0.0683  0.0302
95021W        W38037  16.947  15.751  19.367 -0.0999  0.0533  0.0983
95022W        W38038  13.334   0.580   2.986 -0.0916  0.3166 -0.1029
95023W        W38039  10.048  34.490   6.703  0.1448 -0.0537  0.0319
95024W        W38040  12.374  25.144  25.208  0.1176 -0.2717  0.1433
95025W        W38041  15.106  22.718   3.864 -0.2128 -0.1775 -0.1347
95026W        W38042  32.789  29.215   5.335  0.1014  0.2677 -0.3136
95027W        W38043  20.914  10.996   7.492  0.0850 -0.2076 -0.2758
95028W        W38044  11.199  25.451   4.291 -0.2417 -0.1816  0.3253
95029W        W38045  14.479  34.080   0.744  0.4021 -0.1026  0.1153
95030W        W38046   5.561  31.419   7.029 -0.2449 -0.2375  0.1731
95031W        W38047   9.559  15.456   4.775 -0.2341  0.1024  0.0721
95032W        W38048  11.449  31.566   7.862 -0.1481 -0.1964  0.0649
95033W        W38049  13.441  21.810  23.139  0.0295 -0.0973  0.3455
95034W        W38050  34.763   9.158  28.832 -0.1529  0.1143 -0.0647
95035W        W38051  13.493  24.070   9.006  0.1905  0.3483  0.1205
95036W        W38052  12.565   1.582   7.925 -0.3670  0.1258 -0.3047
95037W        W38053  16.363   9.987  26.216  0.0701 -0.0628  0.0096
95038W        W38054  19.939  26.506   3.676 -0.1862  0.2632  0.0617
95039W        W38055   4.932   4.688  28.683  0.0276 -0.1498 -0.0840
95040W        W38056  17.130  29.706   1.035  0.0262  0.1165  0.2229
95041W        W38057  22.621  30.855   9.641 -0.2756  0.0578 -0.0894
95042W        W38058   2.077  27.480  26.423  0.1227  0.0018  0.0517
95043W        W38059  24.022  18.186   3.420 -0.0793  0.0963  0.1451
95044W        W38060  23.947  28.082  10.003  0.0147  0.0774  0.1193
95045W        W38061  18.976  32.675   8.545  0.0473  0.2885 -0.1369
95046W        W38062   8.644   9.880   1.755  0.0252 -0.3602 -0.0727
95047W        W38063  33.716  30.980   9.631  0.2248 -0.0033  0.3030
95048W        W38064  20.740  21.724   5.399 -0.1361  0.4215  0.2506
95049W        W38065  30.856   9.234   8.681  0.0532 -0.1661 -0.1178
95050W        W38066  18.314  22.771  19.051 -0.1063 -0.1306  0.1332
95051W        W38067  19.976  14.455   7.071  0.1818 -0.1692 -0.1876
95052W        W38068  13.065  17.378   2.324 -0.2127 -0.1078 -0.1103
95053W        W38069  13.840  29.763  10.189 -0.1136 -0.3328  0.0907
95054W        W38070  10.709  32.453  26.526 -0.1801  0.0360 -0.7576
95055W        W38071   3.528   8.937   9.660  0.1215 -0.0829 -0.2639
95056W        W38072   1.941  29.641   4.467  0.0585  0.1036  0.1686
95057W        W38073  15.264  17.062   0.405 -0.3693  0.0445 -0.2889
95058W        W38074  34.081  21.828   3.665 -0.2839  0.1705 -0.1756
95059W        W38075   5.707   5.094  27.273 -0.1868  0.0937 -0.1657
95060W        W38076   5.512  28.904  24.713  0.5441 -0.1430  0.2810
95061W        W38077  24.251  12.012  27.021  0.1245 -0.0186  0.2481
95062W        W38078  25.768  31.180   1.543 -0.0106  0.3098 -0.2358
95063W        W38079  32.736   8.870   9.756 -0.0591  0.1512  0.2313
95064W        W38080  11.130  15.564   5.847 -0.0719 -0.2454  0.0951
95065W        W38081  13.587  17.231   6.857  0.1861  0.0583  0.1304
95066W        W38082  26.143  16.758  24.061 -0.1408  0.1297  0.4655
95067W        W38083  14.645  22.630   6.945  0.0841  0.2369  0.0884
95068W        W38084  27.571  22.694   3.470 -0.2733  0.0099  0.1647
95069W        W38085  22.011  27.973  21.876 -0.2344 -0.0326  0.0180
95070W        W38086   5.941  32.414   1.189  0.0812 -0.1662 -0.0963
95071W        W38087   6.509  31.626   0.852 -0.0863  0.0923 -0.0226
95072W        W38088  18.620  28.281   9.860 -0.0256 -0.1130  0.3097
95073W        W38089  12.530  22.541  22.694  0.2981  0.1305  0.4285
95074W        W38090  12.760  34.004  15.757  0.1766  0.2335 -0.1538
95075W        W38091  13.840  27.830   6.882 -0.0202  0.0579  0.1784
95076W        W38092   9.069  19.838   2.956  0.1725  0.0845  0.0741
95077W        W38093   5.267  25.673  27.301 -0.0121  0.0004 -0.1665
95078W        W38094   0.117   0.118  24.963 -0.2108  0.3831  0.0638
95079W        W38095   5.503  22.467  20.434 -0.0108  0.1100 -0.1585
95080W        W38096  18.514  21.026   4.906  0.0489 -0.1935 -0.0409
95081W        W38097  18.769  30.304   9.940 -0.0266 -0.4234 -0.2844
95082W        W38098   4.924  26.590   2.023  0.1875  0.1007  0.0376
95083W        W38099  24.987  14.167   7.199  0.1740  0.0032 -0.5728
95084W        W38100  23.022  23.491  27.797  0.2545 -0.2079 -0.1547
95085W        W38101  24.352  28.790   7.604 -0.2765  0.1446 -0.0295
95086W        W38102   8.348   2.184   4.419 -0.0585 -0.0253 -0.0470
95087W        W38103   1.839  25.277   7.619 -0.1558  0.0064 -0.2566
95088W        W38104   3.981  20.604   8.326  0.0736 -0.4658 -0.3456
95089W        W38105  29.247   5.885  10.086  0.0150  0.1210  0.1996
95090W        W38106   1.734   2.045   2.608 -0.3948 -0.1760  0.0995
95091W        W38107  33.487  23.275   0.898  0.0314 -0.2956 -0.4291
95092W        W38108  16.944   5.159   0.932 -0.2720 -0.2129  0.1725
95093W        W38109  12.435  10.644   5.330  0.0844 -0.1221  0.0595
95094W        W38110   0.969  22.606  27.271 -0.2845  0.0640  0.0967
95095W        W38111   6.002  20.846  22.510  0.1829 -0.0872 -0.2379
95096W        W38112   1.577   7.772   9.173 -0.0526  0.1820 -0.2901
95097W        W38113  15.870  28.456  27.304  0.1286  0.3229 -0.0289
95098W        W38114   8.189  32.350  28.813  0.1942  0.1806 -0.0319
95099W        W38115  34.765  20.668   6.753  0.0534  0.2173 -0.1687
95100W        W38116   7.083   8.688   3.736  0.2179  0.1434 -0.2848
95101W        W38117  22.137  34.600   9.298 -0.2601  0.0769 -0.3005
95102W        W38118   8.672  30.422  19.403 -0.2028 -0.0213  0.1527
95103W        W38119  15.305  25.609  19.710  0.1919 -0.2373  0.2781
95104W        W38120  14.282  20.408  23.435  0.0034  0.3849 -0.0824
95105W        W38121  19.562  20.720   5.447  0.1297 -0.0614  0.3495
95106W        W38122   8.811  31.536  15.552 -0.3096  0.0600  0.1183
95107W        W38123  11.909  33.228   8.148 -0.0062  0.1138  0.0049
95108W        W38124  27.114  32.411   5.080 -0.1785  0.1223 -0.1923
95109W        W38125  26.738  19.873  25.121 -0.0873  0.0297  0.3058
95110W        W38126  34.613  19.836   4.787 -0.0652  0.4685 -0.1308
95111W        W38127  18.403  27.204  14.815  0.1612  0.2581  0.4897
95112W        W38128   9.682  15.087   5.121 -0.3708  0.1378 -0.1040
95113W        W38129   4.143  29.158   8.428 -0.3012 -0.2593  0.0917
95114W        W38130  10.946  23.808   3.307  0.0747  0.0332  0.0734
95115W        W38131  14.977  22.780   4.372  0.0864 -0.0667 -0.3816
95116W        W38132  12.586  18.647  24.292  0.3209 -0.1516 -0.1220
95117W        W38133   7.444  29.582  26.364 -0.2601  0.2291  0.0028
95118W        W38134  13.628  10.271  22.454  0.2868 -0.1607  0.0379
95119W        W38135   8.987  26.307   9.078 -0.2588  0.3082  0.2697
95120W        W38136  23.453  24.207   7.368 -0.0121 -0.1238  0.1576
95121W        W38137  10.390  20.372  13.829  0.1028  0.0864 -0.0261
95122W        W38138  13.805   0.095  21.184  0.2597  0.1635 -0.1711
95123W        W38139  11.140   4.453   5.565 -0.1924  0.0227  0.2171
95124W        W38140   2.844  15.177  26.134  0.2190  0.0825  0.1092
95125W        W38141  10.486   2.109   1.369 -0.2310  0.0231  0.3208
95126W        W38142  16.295  15.988   5.440  0.1775  0.1252 -0.5257
95127W        W38143  12.898  28.857  28.745  0.2797 -0.0111  0.0796
95128W        W38144  27.742   2.838   0.566  0.1608 -0.0115  0.0578
95129W        W38145  17.253  30.259  24.738 -0.1508 -0.2081 -0.1304
95130W        W38146   7.054  23.383  21.791 -0.0510 -0.1661  0.0314
95131W        W38147   9.010  12.458   5.400  0.0306 -0.2305 -0.0240
95132W        W38148  16.936  22.981   3.290  0.0232  0.0900  0.0019
95133W        W38149   2.473  29.651   8.227  0.2677 -0.0830  0.1279
95134W        W38150   3.717  32.281   4.878  0.1459  0.1915 -0.0937
95135W        W38151   9.674  27.959  28.883  0.0931 -0.2507  0.1971
95136W        W38152  31.426  31.014   6.160  0.0483  0.1310  0.0456
95137W        W38153  11.366  18.322  28.950  0.4008  0.0592  0.0520
95138W        W38154  19.574  24.912   6.579 -0.0604  0.1389  0.0911
95139W        W38155  12.400  33.404  27.186  0.3932  0.1125  0.1515
95140W        W38156  21.468   8.513   1.820  0.1634  0.0047  0.0185
95141W        W38157  12.345  30.757   4.485 -0.3963  0.1823  0.0486
95142W        W38158  20.068  33.351   8.106 -0.3927 -0.0830  0.2170
95143W        W38159  11.816  23.760  26.295  0.1719 -0.1608  0.0008
95144W        W38160   8.508  21.214   1.076  0.0161 -0.0515 -0.3792
95145W        W38161  18.143  29.080   8.635 -0.4435  0.1866 -0.1196
95146W        W38162   4.853  21.164   2.308  0.1156 -0.3666 -0.0483
95147W        W38163   8.207  15.681   1.343  0.1740  0.2311  0.0491
95148W        W38164   8.870  21.804   8.310 -0.0383 -0.0305  0.1778
95149W        W38165  32.996  33.284  25.540  0.0660 -0.3346  0.1136
95150W        W38166  34.000  30.744  10.667  0.2481 -0.1574 -0.1389
95151W        W38167  22.171   7.020   9.295  0.0435 -0.3059 -0.2278
95152W        W38168   8.573  14.188  18.775 -0.2441  0.0607  0.0038
95153W        W38169   7.988  14.118   5.179  0.3242 -0.0491 -0.1216
95154W        W38170  27.265  25.849   7.009  0.0266  0.0576 -0.0928
95155W        W38171  13.475  27.562   9.134 -0.0406 -0.0051 -0.1438
95156W        W38172  25.449   0.158   4.363  0.1273 -0.5004 -0.3610
95157W        W38173   4.631   6.937   9.755  0.1553 -0.1308  0.1759
95158W        W38174  21.401  18.211   7.549 -0.3182  0.2901  0.0036
95159W        W38175  13.977  19.114  15.120 -0.2780  0.1044  0.0548
95160W        W38176  33.192  18.791   3.665  0.2276  0.2604 -0.0657
95161W        W38177   6.691  23.313  15.564 -0.1512  0.2569 -0.0563
95162W        W38178   4.828  15.556  29.171 -0.0636  0.3442 -0.0598
95163W        W38179  23.245  19.804   3.827  0.4089 -0.0711 -0.1908
95164W        W38180  27.297  11.907  14.446  0.0287  0.1708  0.2864
95165W        W38181  24.260  22.137  26.397 -0.0639  0.1461  0.1742
95166W        W38182  15.033  31.032  18.033  0.3572  0.1907 -0.3874
95167W        W38183  16.628  17.909  14.614 -0.1875 -0.3144  0.1222
95168W        W38184  25.850  22.846  26.165  0.3974 -0.0290  0.0576
95169W        W38185  12.091   8.766   0.864  0.1218  0.1896  0.0637
95170W        W38186  16.725  25.986   8.347  0.0723 -0.0341 -0.2750
95171W        W38187  22.372  16.698   3.444 -0.0392 -0.0954 -0.0703
95172W        W38188  10.412   1.852   2.355  0.1216 -0.0713 -0.1549
95173W        W38189  17.454  28.644   0.327  0.2055  0.0336 -0.2485
95174W        W38190  11.295   2.224   0.332 -0.2462  0.0895 -0.2839
95175W        W38191  14.354  23.113  18.561  0.0482 -0.0100  0.0471
95176W        W38192  33.359  13.205  17.942  0.1634 -0.1077 -0.1841
95177W        W38193  32.404  27.771  18.243  0.0960 -0.0016 -0.2096
95178W        W38194  20.958  18.786  28.810  0.2063  0.0430  0.2271
95179W        W38195  22.346  19.523   3.357 -0.0794 -0.0975  0.0397
95180W        W38196  26.838  30.459  21.062 -0.0482  0.1634 -0.1195
95181W        W38197   3.121  32.100   7.820 -0.2453  0.1940  0.1196
95182W        W38198   8.726  14.156  15.371  0.1113 -0.0533  0.1469
95183W        W38199  16.035  21.083  14.756  0.0147  0.1325 -0.0362
95184W        W38200  12.443  18.505  29.118 -0.0119  0.1000 -0.2367
95185W        W38201  17.791  19.341   1.758 -0.1221 -0.1165 -0.2458
95186W        W38202   7.954  19.691   3.974  0.3330 -0.0690 -0.1154
95187W        W38203  15.035  29.853  28.173 -0.0859 -0.0342 -0.2553
95188W        W38204  13.108  31.656  27.502  0.1388  0.4488 -0.2671
95189W        W38205  13.919  17.493  23.173  0.1256  0.0627  0.3352
95190W        W38206  11.677  20.073   7.180  0.1744  0.3030 -0.1390
95191W        W38207  20.863  22.923  28.667 -0.2649 -0.0158  0.1546
95192W        W38208  12.002  13.128   0.617 -0.0254  0.2245  0.2674
95193W        W38209  14.816  23.640   4.180  0.1452  0.0042  0.1793
95194W        W38210   7.964   6.102  21.620  0.1278  0.1221  0.0147
95195W        W38211  10.436   9.258  16.469 -0.2167  0.1450  0.1581
95196W        W38212  12.783  23.323   3.628 -0.2878  0.2649 -0.2867
95197W        W38213   2.457  19.187  14.739  0.0558  0.2698  0.1069
95198W        W38214  12.262   0.454  21.704 -0.0749  0.3317 -0.1159
95199W        W38215   6.928  10.054  28.844 -0.2997  0.2663 -0.2197
95200W        W38216  14.336   3.398   4.464  0.0538  0.1998 -0.0233
95201W        W38217  33.801   1.955  26.156 -0.1076 -0.1072  0.2339
95202W        W38218  13.449  31.669   6.529 -0.0002  0.2298  0.2085
95203W        W38219  25.621  22.762  17.187  0.0350  0.0492 -0.6121
95204W        W38220  32.264  33.815   2.020  0.2619 -0.1618 -0.0347
95205W        W38221  25.381  33.936   2.220  0.2330  0.0351 -0.0932
95206W        W38222  29.366   2.849  26.777 -0.0498  0.0436 -0.0040
95207W        W38223  19.515  26.632   8.786  0.0057 -0.3647  0.1261
95208W        W38224  31.317  15.870   7.528  0.0009 -0.1000  0.0001
95209W        W38225  21.564   1.247   4.979  0.3041  0.3552  0.1238
95210W        W38226   5.441  18.500   6.588  0.3047  0.1401 -0.1151
95211W        W38227   7.566   2.497   5.310 -0.0958 -0.0557 -0.0905
95212W        W38228   9.942  25.037   4.476 -0.1706  0.3006 -0.1918
95213W        W38229   8.832  23.469   4.638  0.1137 -0.1779  0.3048
95214W        W38230  23.028  18.165   7.494 -0.2836 -0.1078  0.1255
95215W        W38231  23.186  24.523   4.046  0.1644 -0.1339 -0.0985
95216W        W38232  19.119  15.841  23.639  0.1196 -0.1928  0.2194
95217W        W38233   4.657   3.284  27.979 -0.4632 -0.2494 -0.0436
95218W        W38234   7.198  14.342  28.852  0.0081 -0.0130 -0.0416
95219W        W38235  30.185  33.149  25.083 -0.1098 -0.0041  0.1927
95220W        W38236  28.161   7.798   4.783 -0.0092 -0.0493 -0.5612
95221W        W38237  33.106  25.611   6.801  0.1134  0.2031  0.4665
95222W        W38238   4.876   6.770   3.567  0.0895 -0.2579  0.0223
95223W        W38239  12.239  32.387  17.508  0.1692  0.1994 -0.1177
95224W        W38240  27.887  26.224  20.063 -0.1073 -0.0891  0.0046
95225W        W38241  13.172  28.561   0.958  0.1472 -0.0554  0.0612
95226W        W38242  14.237  21.984  21.561 -0.1013 -0.0024 -0.2266
95227W        W38243   8.436  28.495   5.347  0.0091  0.0735  0.3038
95228W        W38244  34.374  16.425  10.279  0.2511 -0.0626 -0.2070
95229W        W38245  17.815  30.100  24.120  0.3966 -0.0076  0.1024
95230W        W38246   3.687  23.729   4.255 -0.2011  0.0103  0.0326
95231W        W38247   2.095   1.296   9.372 -0.3999  0.2504 -0.0158
95232W        W38248  23.038   3.381   4.951  0.1467  0.0181 -0.1379
95233W        W38249  25.970  10.015   8.985  0.2108  0.1273  0.0348
95234W        W38250   7.195  21.546  27.818  0.0771  0.1249 -0.1321
95235W        W38251  14.273  13.264  28.570 -0.1728 -0.2043 -0.0649
95236W        W38252   7.372  10.686   4.399  0.0381  0.0358  0.3551
95237W        W38253  10.864  24.897  24.718 -0.1834 -0.0220  0.0072
95238W        W38254  15.385  15.671  25.551 -0.1005  0.1080  0.1428
95239W        W38255   3.821   2.704  17.330  0.2793  0.0575 -0.0394
95240W        W38256  34.244  20.628  21.550  0.0023 -0.2335 -0.2869
95241W        W38257  18.126  20.694   3.377  0.1322  0.5044  0.0364
95242W        W38258  21.392  29.084   3.468  0.0454 -0.0253  0.1832
95243W        W38259   8.167   0.164   8.298  0.2684  0.0384 -0.0164
95244W        W38260  27.782   0.047   8.391 -0.0755 -0.0451 -0.3765
95245W        W38261  14.021  31.131  22.822  0.1749 -0.1017  0.2984
95246W        W38262  13.389  10.061   2.301  0.0212  0.2035 -0.1211
95247W        W38263   7.399   3.964   9.407 -0.3187 -0.1360 -0.0547
95248W        W38264  14.374  19.288   0.485  0.0880 -0.1965 -0.2245
95249W        W38265  21.311  31.583   9.967 -0.1319  0.0326  0.2621
95250W        W38266  16.496   7.046  28.875  0.2512 -0.0393  0.0727
95251W        W38267  31.451   0.440   5.310  0.1306 -0.1131  0.1973
95252W        W38268  18.652  21.014  24.969  0.1650  0.0971 -0.2152
95253W        W38269  22.472   2.309   7.558 -0.0187  0.2478 -0.1496
95254W        W38270   1.129  29.073   4.671  0.0964 -0.1295  0.1115
95255W        W38271   8.274  17.564   4.426  0.4242  0.3868  0.1166
95256W        W38272   0.470   0.158  25.741 -0.0708 -0.2782 -0.1719
95257W        W38273   6.522  21.753   1.544 -0.0855  0.2118 -0.2815
95258W        W38274  23.335  19.517  25.311  0.0819  0.1302 -0.0732
95259W        W38275  34.412   0.504   2.150 -0.0500  0.2199 -0.0324
95260W        W38276  13.595  27.351   9.837  0.0320  0.2342  0.0114
95261W        W38277  12.865   7.283   4.072  0.1789  0.0305 -0.2300
95262W        W38278  10.173   7.968  24.657  0.1454 -0.2136  0.1239
95263W        W38279  33.274  14.974   7.576  0.1054 -0.2050 -0.0714
95264W        W38280   5.510  26.118  23.542  0.1156  0.1778 -0.2510
95265W        W38281   2.948   6.729   9.011 -0.1281  0.0960  0.2064
95266W        W38282  10.444  13.993   6.276  0.1617  0.2085  0.0066
95267W        W38283  18.661  24.913   0.629  0.1342 -0.1471  0.3033
95268W        W38284  11.087  23.532   1.159  0.1432  0.0040 -0.1674
95269W        W38285   3.690  29.556  19.915  0.2045  0.0317  0.0279
95270W        W38286  10.130  19.382  25.990  0.1977  0.1040 -0.1129
95271W        W38287   0.026   0.975   7.946  0.0444 -0.1125 -0.2706
95272W        W38288  10.069  33.225   9.389  0.0887 -0.2048 -0.0993
95273W        W38289  24.250  28.276  18.453  0.3771  0.2081 -0.2971
95274W        W38290  14.876  34.171   8.857 -0.1362 -0.0489  0.0304
95275W        W38291   9.970  22.937   5.049 -0.0640  0.0446 -0.1740
95276W        W38292   8.582   3.149  10.072 -0.0076 -0.0178 -0.0937
95277W        W38293  11.111  24.848  24.257  0.1938  0.3079 -0.0147
95278W        W38294   4.861  26.804   5.972 -0.1038 -0.0189 -0.1338
95279W        W38295  21.035  16.442   3.008 -0.1890  0.3314  0.0973
95280W        W38296  13.362  33.002  19.718  0.0007  0.0404 -0.0737
95281W        W38297   4.768  32.596   4.710  0.0033 -0.0445  0.0407
95282W        W38298  17.830  15.547  28.264  0.0700  0.2867  0.1149
95283W        W38299  18.558  25.120   3.096  0.3416  0.0361  0.2128
95284W        W38300  14.448  10.408   0.069  0.1898  0.0837 -0.2429
95285W        W38301  10.246  29.391  25.573 -0.2843  0.1595 -0.1463
95286W        W38302  33.139  23.836  17.007  0.1629 -0.0644  0.1833
95287W        W38303  24.885  25.717   1.929 -0.0614  0.0548 -0.2061
95288W        W38304  16.402  26.483   7.654 -0.0558  0.0126  0.0486
95289W        W38305  10.469  14.338  28.938 -0.0031 -0.0817 -0.1983
95290W        W38306   0.390  25.624   4.438  0.0437  0.1209  0.2976
95291W        W38307   9.624   7.544   6.277  0.1819  0.0518 -0.2803
95292W        W38308  30.723   0.433   0.983 -0.1636  0.0353 -0.0225
95293W        W38309  14.801  22.950  24.567  0.2754  0.1186 -0.2294
95294W        W38310  26.645  30.931   5.679 -0.0853 -0.0408  0.2877
95295W        W38311  14.465  19.647  28.327  0.2943  0.2244  0.1309
95296W        W38312  16.127  29.695   5.807  0.1315  0.2598 -0.0013
95297W        W38313  18.851  10.862   5.364  0.1401  0.0085  0.2853
95298W        W38314   4.293  12.619  24.154 -0.0087  0.0772  0.0182
95299W        W38315  10.871  20.972  28.778 -0.0666  0.0126  0.0744
95300W        W38316  12.876  18.130   3.292 -0.0484  0.0383 -0.2296
95301W        W38317  14.730   4.381   4.919  0.0446 -0.2291  0.0607
95302W        W38318  20.204  25.620   5.762 -0.2555 -0.1617  0.2238
95303W        W38319   5.354   6.055  17.509  0.0967  0.0034 -0.0806
95304W        W38320  13.357  24.287   5.086  0.0861 -0.3138 -0.0332
95305W        W38321   3.713   6.321  16.842 -0.1114 -0.0873  0.2392
95306W        W38322  15.790  25.694  25.519 -0.1240  0.2892 -0.2470
95307W        W38323   6.771   9.415  21.407 -0.2129 -0.1531 -0.1177
95308W        W38324  10.190  30.634   9.551  0.3869  0.1583 -0.1070
95309W        W38325  16.722  24.415  24.760  0.1196  0.0594  0.1014
95310W        W38326  24.456  29.108   3.607  0.0759 -0.2102 -0.0574
95311W        W38327   3.381  22.948  19.559  0.2231  0.2727 -0.0752
95312W        W38328  31.035  32.434  24.249 -0.4539 -0.0197 -0.1602
95313W        W38329   6.228  29.763   9.198 -0.1895  0.1581  0.1473
95314W        W38330  19.985  15.271  23.519 -0.2335 -0.1313  0.1797
95315W        W38331  10.818  27.298   4.309  0.1862 -0.1417  0.0425
95316W        W38332  11.297  14.865  15.217 -0.2780 -0.1594 -0.3570
95317W        W38333   1.557  32.227  26.713 -0.0005 -0.1928 -0.1991
95318W        W38334   5.743   4.255  27.660 -0.0649 -0.1007 -0.0402
95319W        W38335  22.637  26.000  22.945 -0.2029  0.1601 -0.0484
95320W        W38336  14.948  32.342  21.560 -0.0325 -0.0679  0.0090
95321W        W38337   6.633  32.097   4.035  0.2355  0.1378 -0.0429
95322W        W38338  14.039  25.222   5.458 -0.3406 -0.1201  0.1376
95323W        W38339  23.721  24.636   7.184 -0.0449  0.3478  0.1740
95324W        W38340  10.952  23.798  20.675  0.2406  0.0758 -0.2719
95325W        W38341   9.789   4.129  29.215 -0.1474 -0.2700 -0.0108
95326W        W38342  18.475  21.058   6.338 -0.0290  0.0412 -0.1918
95327W        W38343  21.323  30.646  22.953 -0.0452  0.2053 -0.2625
95328W        W38344  13.047  10.718   5.997 -0.2131 -0.0470  0.0342
95329W        W38345   5.722   4.716  19.104 -0.3495  0.0006  0.0939
95330W        W38346  22.956  34.523  17.449 -0.2028  0.1858  0.2042
95331W        W38347  16.512  25.704  23.928 -0.3338 -0.1575  0.0295
95332W        W38348  25.622  28.225  27.733 -0.1110 -0.0635  0.2003
95333W        W38349  28.231  27.791  10.145  0.0244 -0.1310  0.2479
95334W        W38350  20.457  33.645   8.973 -0.1643 -0.0121 -0.0353
95335W        W38351  22.888  27.853  26.888  0.0323  0.0779  0.0417
95336W        W38352  28.116  19.976  22.486  0.2966 -0.0895 -0.0099
95337W        W38353  14.869  24.324  29.098  0.3569  0.2280  0.0307
95338W        W38354  28.074   4.976  27.930  0.2067 -0.0548 -0.0374
95339W        W38355  20.050  28.392   9.194 -0.0301 -0.0322 -0.1806
95340W        W38356  25.581  32.908  11.760 -0.2954 -0.1805 -0.2241
95341W        W38357  11.381  28.119  17.800 -0.4840 -0.1723  0.0687
95342W        W38358   6.322  32.333  27.517  0.2073  0.0965 -0.1602
95343W        W38359   4.505  24.482  27.625  0.3032 -0.0353  0.0019
95344W        W38360  10.859  33.724  23.701 -0.1037  0.2798 -0.1785
95345W        W38361  22.960  25.072  26.592 -0.1242 -0.2072  0.3661
95346W        W38362  19.407  31.968   7.130 -0.0506 -0.1319  0.0784
95347W        W38363  24.424  28.511  20.517 -0.3534  0.0725 -0.1131
95348W        W38364  30.012  29.670   7.055  0.0757  0.2923  0.3784
95349W        W38365  12.320   0.588  28.338 -0.4274 -0.0822 -0.4553
95350W        W38366   4.176  15.868  27.511 -0.1318 -0.3190  0.0337
95351W        W38367   5.296  31.994  14.241  0.0118  0.0562  0.0995
95352W        W38368  32.465  24.322   1.903  0.2295  0.0046 -0.0592
95353W        W38369  23.938   8.688   8.297 -0.0407 -0.2018 -0.1585
95354W        W38370  11.430  25.611  17.346  0.2078 -0.0526 -0.1732
95355W        W38371   7.828  31.222   7.116  0.0181 -0.0133 -0.2010
95356W        W38372  14.098  33.528   4.990  0.3620  0.0652 -0.2717
95357W        W38373   2.562  24.814  21.700  0.0524  0.0554 -0.0132
95358W        W38374   0.142  31.903   2.171  0.0671  0.0177  0.0751
95359W        W38375  18.834  25.988  20.928  0.1167  0.1888  0.1779
95360W        W38376  25.277  23.584   4.808  0.1047 -0.1222  0.1308
95361W        W38377  11.611  19.258  23.805 -0.1183 -0.0809 -0.2348
95362W        W38378  13.263   6.609   3.086 -0.2540  0.0996 -0.2157
95363W        W38379  15.572   1.453  28.149 -0.2194  0.1237 -0.0985
95364W        W38380  11.910  11.963   1.404 -0.1574  0.0304  0.0881
95365W        W38381   0.834   1.645   0.783 -0.1354 -0.0402 -0.1438
95366W        W38382  33.837  32.603   9.962  0.2070  0.2062 -0.1405
95367W        W38383  21.412   4.908  22.444 -0.0964  0.0764 -0.0868
95368W        W38384   6.041  24.324  21.562 -0.3737 -0.1925 -0.3284
95369W        W38385  17.862   1.766   0.775  0.0505  0.0277 -0.1169
95370W        W38386  14.195  25.146   6.141 -0.3091  0.5052 -0.1575
95371W        W38387  29.964  33.476  23.956 -0.1648 -0.1611  0.2931
95372W        W38388   5.965  28.807   6.634 -0.1089  0.0568 -0.0806
95373W        W38389  30.036  27.285   8.855 -0.3782 -0.0387 -0.0197
95374W        W38390   5.394   0.754   0.277 -0.1104  0.1894 -0.1246
95375W        W38391  33.758  32.681   8.350 -0.0371  0.0081 -0.1268
95376W        W38392   9.549  33.262   3.524  0.2447  0.3670 -0.1176
95377W        W38393  10.578  32.985   7.509  0.0510  0.0663  0.1254
95378W        W38394  19.870  31.683  23.582  0.0620 -0.3873 -0.0422
95379W        W38395  22.551  20.463  28.440  0.0430 -0.0836  0.6282
95380W        W38396  11.721  11.637   8.339 -0.1017  0.1717 -0.0782
95381W        W38397   5.705  23.229  26.616 -0.1649 -0.0016 -0.0354
95382W        W38398  14.388  26.329  26.508  0.0958  0.2014 -0.0917
95383W        W38399  12.429   6.287  25.994 -0.1995 -0.0788 -0.1366
95384W        W38400  28.019  32.115   4.122 -0.0654  0.0203  0.3100
95385W        W38401   2.154  14.344  21.406 -0.0566 -0.3546 -0.0357
95386W        W38402   9.029   6.408   3.477 -0.1027 -0.1513  0.2213
95387W        W38403  29.210  25.515  26.927 -0.1797 -0.3341  0.1079
95388W        W38404   3.210   8.017  28.181  0.2179  0.1308 -0.1080
95389W        W38405   7.937  24.732   2.896 -0.2232 -0.0287  0.1764
95390W        W38406  19.284   6.971  18.460  0.1441  0.0327 -0.1639
95391W        W38407  25.661  11.696   0.025 -0.3005  0.2573 -0.1838
95392W        W38408   9.468  32.425  20.577  0.3656  0.0386 -0.0314
95393W        W38409   3.937  14.483  21.117 -0.3523  0.0480 -0.0447
95394W        W38410   8.375   0.180  10.015  0.2597 -0.2381  0.2795
95395W        W38411  17.582  34.751  27.335 -0.2810 -0.0053 -0.1385
95396W        W38412  10.677  27.939   1.179 -0.0341  0.1588  0.1221
95397W        W38413  30.426  28.361  28.671  0.1797 -0.0311  0.2776
95398W        W38414   4.430  31.671  22.624 -0.2822 -0.1578 -0.1710
95399W        W38415  18.778  31.905  28.731  0.0139 -0.1641 -0.0687
95400W        W38416   9.044  31.992   6.881  0.0230 -0.0207 -0.0231
95401W        W38417  13.849  20.916   8.014 -0.0169 -0.0527 -0.1875
95402W        W38418  34.700  29.765   2.727  0.0830 -0.1054  0.0110
95403W        W38419   1.346  15.163   0.586  0.1442  0.0502 -0.1351
95404W        W38420   7.179  19.300   6.730 -0.0369  0.1761  0.1232
95405W        W38421  10.736  22.684  17.594 -0.1264  0.2353  0.0953
95406W        W38422  28.908  14.152   1.549  0.1496  0.1793  0.0644
95407W        W38423  33.976   4.016   5.818 -0.0306 -0.4586 -0.0625
95408W        W38424  11.545  18.232   2.287 -0.0424 -0.1156  0.1727
95409W        W38425  17.336  23.593   4.796  0.3077  0.3240 -0.0272
95410W        W38426  33.815  16.513   5.332 -0.1344  0.3049  0.1710
95411W        W38427   6.475  11.979   5.563 -0.3846  0.1596  0.0170
95412W        W38428  10.691  19.193  23.110 -0.3131 -0.0535  0.1010
95413W        W38429   3.022   0.638   7.460 -0.1550 -0.3325 -0.1963
95414W        W38430  10.618  26.956  26.914 -0.0458  0.1122 -0.1082
95415W        W38431  15.580  28.718  15.979 -0.0075 -0.0380  0.0543
95416W        W38432  23.562   2.581   7.891  0.0773  0.1594 -0.0343
95417W        W38433   9.443  21.361  27.571 -0.5036  0.0485  0.0428
95418W        W38434  14.867   1.534   2.365 -0.1143 -0.1342  0.2456
95419W        W38435  19.563   0.881  16.915  0.0365 -0.1445  0.1857
95420W        W38436   2.096  17.836  16.222  0.1302 -0.0159 -0.0024
95421W        W38437   9.378  26.601  13.427  0.1091 -0.2738  0.3073
95422W        W38438   3.430  19.650   1.867 -0.0380 -0.5469 -0.0884
95423W        W38439   8.993   8.829   6.570 -0.2000 -0.2296 -0.0107
95424W        W38440  22.368  15.509   1.808 -0.0267  0.1515 -0.0774
95425W        W38441  24.953  12.822   7.680 -0.4581  0.0373  0.2623
95426W        W38442  26.176  33.620  11.003 -0.2032 -0.0744 -0.0607
95427W        W38443  11.062  32.633  23.758 -0.0585 -0.0230 -0.5596
95428W        W38444   7.211   3.217  18.704  0.0678 -0.1555  0.0354
95429W        W38445   1.949  18.596   2.066 -0.4472 -0.2184  0.1982
95430W        W38446  21.534  18.373   1.972 -0.0430 -0.0158  0.0790
95431W        W38447  26.886  15.915   9.208 -0.1796 -0.0529 -0.1557
95432W        W38448  16.176   3.286   7.726  0.2759  0.3044 -0.1387
95433W        W38449   8.269   7.822   3.159 -0.1188 -0.0325 -0.0945
95434W        W38450  16.772   3.812   1.693  0.2289  0.2420  0.0746
95435W        W38451  12.215  23.034   3.490 -0.3235  0.1573  0.2897
95436W        W38452  11.227  18.128  27.571  0.0361 -0.1887  0.0717
95437W        W38453   9.331  27.442   2.203 -0.1799  0.1992 -0.2171
95438W        W38454   6.462   0.019  22.235 -0.0995 -0.2584 -0.1981
95439W        W38455  27.691   8.785   2.655  0.2555 -0.2167  0.3970
95440W        W38456  31.277  31.757  23.750  0.1600  0.1351  0.1667
95441W        W38457   9.716  28.370  17.871 -0.0577 -0.0092  0.0051
95442W        W38458  12.280  17.921   6.760  0.0639  0.3006  0.0923
95443W        W38459  12.528  13.859  19.098  0.2055  0.0114  0.2912
95444W        W38460  21.474   0.894   5.652 -0.0571  0.1227 -0.1183
95445W        W38461  13.137  34.386  10.363 -0.1437 -0.2788 -0.2721
95446W        W38462  31.426  17.903  22.020 -0.2875  0.0886 -0.3241
95447W        W38463  10.362  32.223  28.307 -0.1711  0.0335 -0.0009
95448W        W38464  16.801   3.206   5.652 -0.0986 -0.0347 -0.3010
95449W        W38465   9.600  11.644   5.245 -0.1529 -0.2323  0.2744
95450W        W38466  12.982  16.891  20.500 -0.0552 -0.0824 -0.0990
95451W        W38467   3.476  13.507   2.370  0.1213 -0.1305 -0.0260
95452W        W38468   7.064  31.976  28.415  0.2120  0.0976 -0.0756
95453W        W38469  32.652  30.155   2.413  0.0399  0.2841 -0.0705
95454W        W38470  31.877  28.406   3.842  0.0559  0.2421  0.0442
95455W        W38471  18.755  27.187   5.714 -0.1659 -0.0392  0.1206
95456W        W38472  20.145  11.017   7.677  0.0928 -0.1903 -0.4282
95457W        W38473  21.513  29.928   3.488  0.3532  0.0039 -0.1485
95458W        W38474  26.542  17.315  19.679  0.0556  0.1634  0.0001
95459W        W38475   4.000  34.479   6.896 -0.0731 -0.0982 -0.0575
95460W        W38476  25.868  20.412   2.495  0.1320  0.0372  0.3456
95461W        W38477   5.381  18.995  17.234  0.1627  0.3456 -0.1559
95462W        W38478   4.503  16.188   8.641  0.1394 -0.1909 -0.0660
95463W        W38479  34.427  16.619   0.540 -0.0297 -0.2513 -0.0664
95464W        W38480   2.241  23.048  27.900  0.0976  0.1142  0.0241
95465W        W38481  11.007  18.198  18.414  0.0957 -0.0026  0.0509
95466W        W38482   6.875  29.127   6.839  0.0066  0.0726 -0.1007
95467W        W38483  11.497  27.159  25.963  0.1297 -0.0563  0.0751
95468W        W38484  16.608  16.500   5.151 -0.1464 -0.2088 -0.0013
95469W        W38485  17.457  32.057   6.573  0.1967 -0.2002  0.1109
95470W        W38486   5.540  16.025   3.655  0.1518 -0.3419  0.1318
95471W        W38487   5.289  26.836  23.057  0.3693  0.0928  0.0061
95472W        W38488   5.758  30.442  26.835 -0.0743 -0.0526  0.1794
95473W        W38489  23.580   1.111  10.597 -0.1330 -0.0822  0.0373
95474W        W38490   8.130  19.143  28.839 -0.4168  0.0276  0.0525
95475W        W38491  23.993  27.882   1.684  0.2999 -0.0736  0.0462
95476W        W38492  34.003  26.257   7.632  0.1295 -0.0841 -0.0198
95477W        W38493  10.347   5.755   3.883 -0.0329 -0.0199  0.4253
95478W        W38494   6.123  21.236   8.021  0.1397 -0.0129  0.1450
95479W        W38495  13.041  20.094   3.643  0.0351 -0.2631  0.2222
95480W        W38496   7.314  19.206   8.022  0.1685  0.0289  0.0388
95481W        W38497  10.588  20.919  15.694 -0.0554  0.0622 -0.0338
95482W        W38498   4.409  25.579  26.873  0.0020  0.1138  0.0008
95483W        W38499   1.281  29.023  10.420 -0.1787  0.2048 -0.3466
95484W        W38500  18.248  30.581   3.102  0.4092 -0.0239 -0.3274
95485W        W38501   5.837   2.253   3.244  0.1257 -0.0089 -0.0004
95486W        W38502  10.317  24.354  22.123  0.3816 -0.0887  0.0558
95487W        W38503  13.559  29.743  22.662  0.0272 -0.0669  0.3595
95488W        W38504  12.508  30.078   6.910 -0.1350 -0.0547  0.3570
95489W        W38505   7.273  17.409  22.435  0.0868 -0.0840 -0.2604
95490W        W38506  28.434  32.247  11.906  0.1420 -0.0472  0.2356
95491W        W38507  15.358  29.040   6.181 -0.1051 -0.1472  0.2695
95492W        W38508   5.718  29.447   6.208  0.2908 -0.1593  0.1805
95493W        W38509  24.676   8.848   5.462 -0.5045  0.2471  0.2012
95494W        W38510  14.322  10.526   7.576 -0.2662  0.2255  0.1410
95495W        W38511  32.049  26.962   3.988  0.1383 -0.0566  0.0396
95496W        W38512  18.029  30.788  10.157  0.3838  0.0641 -0.0667
95497W        W38513   6.787  31.677   4.919 -0.0562 -0.1229  0.0880
95498W        W38514  14.420   0.578   5.944 -0.1357 -0.1180 -0.0490
95499W        W38515   3.670  24.115   9.937  0.1218  0.3744 -0.0907
95500W        W38516  32.353  26.516   9.625  0.4639 -0.2892  0.0352
95501W        W38517  30.533  12.832  25.881  0.0593  0.1417  0.2850
95502W        W38518   7.125   7.605  28.455  0.2181 -0.3296 -0.1004
95503W        W38519  32.959  31.359  21.620  0.0362  0.1098 -0.1521
95504W        W38520  14.281  25.338  28.352  0.0157  0.3355  0.1359
95505W        W38521  16.373  30.545  23.724  0.0841  0.0791  0.1207
95506W        W38522   5.503  27.037   7.424 -0.2074 -0.1043 -0.0285
95507W        W38523  18.673  33.748  27.540 -0.0446 -0.0925 -0.3535
95508W        W38524  10.341  29.478   2.941 -0.0434 -0.2012 -0.2982
95509W        W38525  20.545  22.774  16.764  0.0305  0.4056  0.1403
95510W        W38526   7.442  26.537  16.058 -0.1795  0.1150  0.0203
95511W        W38527  13.623  29.548   6.108 -0.1466  0.0002 -0.1376
95512W        W38528   7.750  20.533   5.433 -0.2544  0.1510  0.2903
95513W        W38529  11.911  26.535  19.174 -0.0716  0.0342 -0.0289
95514W        W38530   8.501  10.493   3.169 -0.3146 -0.1867 -0.0299
95515W        W38531   0.111   4.899   4.817 -0.2430  0.0156 -0.1391
95516W        W38532   6.558  27.471   1.356  0.3103 -0.1435  0.0119
95517W        W38533  20.243  34.638  22.924 -0.3064  0.1749 -0.0868
95518W        W38534  16.267  32.236  22.199 -0.1003  0.1612 -0.4077
95519W        W38535  28.935  23.389   2.379 -0.2194  0.0253  0.0528
95520W        W38536   9.953   3.682   9.463  0.4925  0.1332  0.1057
95521W        W38537  23.269  28.664   6.613 -0.2809 -0.0218 -0.2455
95522W        W38538  11.022   0.958   0.736  0.3030  0.0632 -0.2155
95523W        W38539  22.089  17.228  22.988  0.3353  0.2542  0.0947
95524W        W38540  11.073  29.704  20.264  0.0594  0.0097  0.3410
95525W        W38541  10.658   9.347  27.806  0.0586  0.2070 -0.0821
95526W        W38542  14.033  30.310  10.115  0.1521  0.1290  0.1375
95527W        W38543  13.188   0.058   9.238  0.0550 -0.0811  0.0622
95528W        W38544  16.264  24.949   2.849 -0.1588  0.1741 -0.0045
95529W        W38545  33.384  13.263   2.276  0.1547 -0.1912  0.3043
95530W        W38546  21.188  17.945   7.128  0.1040  0.1096 -0.3654
95531W        W38547   0.820  34.598  23.178 -0.0228 -0.0085 -0.0034
95532W        W38548  16.477   4.970   1.870  0.0185  0.1191 -0.3313
95533W        W38549  26.668  30.722   9.375 -0.2421 -0.1040  0.2597
95534W        W38550   2.647  22.167  28.916 -0.1227 -0.0384 -0.1313
95535W        W38551  20.138  30.565  25.219  0.0057 -0.0184 -0.0563
95536W        W38552  21.510  18.138   6.156 -0.0898  0.2165 -0.0302
95537W        W38553   2.996   4.852   5.160  0.1033 -0.1803  0.1097
95538W        W38554   6.871  12.826  27.924  0.0169  0.1333 -0.0705
95539W        W38555   5.401  33.190   7.632 -0.3693 -0.1210  0.0001
95540W        W38556  26.797   0.229   3.701 -0.1649 -0.0349  0.0566
95541W        W38557  11.144  30.346  27.031  0.0487 -0.0326 -0.0072
95542W        W38558   8.490  30.251   5.530  0.1828 -0.1790 -0.1498
95543W        W38559  14.380  33.611   2.613  0.1193 -0.5040  0.0454
95544W        W38560  31.461  22.997  10.373  0.0656 -0.0639 -0.2462
95545W        W38561   1.604  17.611   3.114 -0.1499  0.0181 -0.0798
95546W        W38562  20.032  18.127  21.206  0.1127 -0.1527 -0.1841
95547W        W38563   4.397  20.514   4.113 -0.0911  0.2671 -0.1955
95548W        W38564  25.799  30.212   8.353  0.0014  0.0108  0.0857
95549W        W38565   9.137  30.412   1.473 -0.1010 -0.0321  0.0451
95550W        W38566  26.917  13.010   6.695 -0.0293  0.3546  0.0269
95551W        W38567  18.232  15.245   0.797  0.3390 -0.0593 -0.0274
95552W        W38568   5.763  33.834   1.829  0.1426  0.4820 -0.3086
95553W        W38569  14.658  22.686   5.038  0.5427 -0.2861  0.1419
95554W        W38570  11.816   0.890   3.173  0.1734  0.0184  0.1369
95555W        W38571  24.302   5.416   4.369  0.3532 -0.2930  0.1660
95556W        W38572   9.594  12.569   1.355  0.2089 -0.0390  0.0698
95557W        W38573   8.587  32.122   7.770 -0.3090  0.0755  0.0459
95558W        W38574   5.742  23.056  15.932 -0.2996  0.4349 -0.0159
95559W        W38575  11.580  21.497   8.642 -0.4555  0.0393  0.3947
95560W        W38576  23.165  33.105   2.572 -0.1350 -0.2417 -0.1693
95561W        W38577   8.736  31.156   0.315 -0.1221  0.1870  0.2496
95562W        W38578  22.697  23.565   6.546 -0.4284 -0.1328 -0.2212
95563W        W38579   1.070  31.865   5.720 -0.0733 -0.0689  0.2510
95564W        W38580  12.621  11.725  22.944  0.0832 -0.2459  0.1394
95565W        W38581   3.747  17.367  23.397 -0.1721  0.0819  0.1791
95566W        W38582  34.492   1.980  24.427 -0.0944  0.3590  0.6026
95567W        W38583   2.706  25.513  24.990  0.1058  0.0067 -0.0028
95568W        W38584  10.315   1.805  25.345  0.0226 -0.1201  0.0928
95569W        W38585  25.465   2.475   6.961 -0.3964 -0.1516  0.0461
95570W        W38586   1.771  17.554  23.850  0.3362 -0.1090 -0.0175
95571W        W38587  34.097   5.858   2.665 -0.0038 -0.0696 -0.1814
95572W        W38588   4.904  13.300   2.205  0.2897  0.0832  0.2935
95573W        W38589   9.454  22.744   4.916 -0.0340  0.1574 -0.2191
95574W        W38590  15.497  16.291   5.569 -0.0972 -0.1826  0.0754
95575W        W38591   9.054  13.555   5.604 -0.0593  0.1102 -0.1058
95576W        W38592  11.644   4.929   2.852 -0.1010 -0.1708  0.0173
95577W        W38593  18.866   1.987  25.069  0.2188 -0.1217 -0.0918
95578W        W38594  27.294  29.045   8.378  0.1842  0.0621 -0.1185
95579W        W38595  12.001  27.206  19.438  0.0169 -0.3110 -0.0842
95580W        W38596   7.652  20.788  26.580 -0.1641  0.1130 -0.1230
95581W        W38597  16.277  15.318  22.008 -0.2970 -0.1548  0.3005
95582W        W38598  12.315  22.859   4.670  0.1939  0.0617  0.1056
95583W        W38599   9.233  10.717   0.360 -0.0917  0.0496  0.1628
95584W        W38600   5.691   4.552   6.197  0.0480  0.1172  0.0267
95585W        W38601   6.197  34.476   9.321 -0.0940 -0.1534  0.1530
95586W        W38602   4.480  25.769   6.719  0.2217  0.0650  0.0263
95587W        W38603  22.509  28.079   5.708  0.0854 -0.0149  0.0960
95588W        W38604  14.698  22.924  12.737  0.2101 -0.1615 -0.1357
95589W        W38605   3.489   4.785   6.677  0.3686  0.0869  0.2815
95590W        W38606  20.172  33.821  22.457  0.0064  0.0017 -0.0066
95591W        W38607  16.933   5.565   6.038  0.1128 -0.2087  0.1304
95592W        W38608   2.241   9.901   3.221  0.1512 -0.1829 -0.0714
95593W        W38609  25.644  32.893   8.455 -0.0604 -0.1017  0.1159
95594W        W38610   7.484  17.216  25.045  0.2672 -0.2167  0.3436
95595W        W38611  15.820   3.975  25.446  0.2267  0.0252  0.0845
95596W        W38612  14.383  25.432  22.698  0.2791  0.2678  0.3114
95597W        W38613   7.950   1.172   2.456 -0.3522 -0.0634  0.1190
95598W        W38614  16.634  24.260  26.188  0.2992  0.1127  0.2067
95599W        W38615  26.050  23.844   9.915 -0.4554  0.3253  0.2600
95600W        W38616  12.130  15.020   5.756  0.0763 -0.0601  0.2437
95601W        W38617  21.314  25.695   7.889  0.2155  0.2699 -0.1123
95602W        W38618   7.206  20.241  20.496  0.1255 -0.0581 -0.0558
95603W        W38619   9.542  29.239   8.391  0.2169  0.0340  0.2181
95604W        W38620  13.562  22.669   3.590  0.1192  0.0106 -0.0581
95605W        W38621   4.980  28.496  20.484  0.0156  0.0196  0.1943
95606W        W38622  12.145  16.085   0.868 -0.2687 -0.1645 -0.3882
95607W        W38623   7.370  12.304  20.511  0.1628  0.1104 -0.0789
95608W        W38624  12.515   6.162   0.965 -0.1226 -0.2456 -0.0718
95609W        W38625   8.718  30.555   2.994  0.4705  0.1611 -0.1125
95610W        W38626  30.394  21.725   6.686 -0.3501  0.1547 -0.2813
95611W        W38627  13.049  18.676   0.913  0.1185 -0.0153 -0.2887
95612W        W38628  11.117  13.301  27.463  0.1973  0.1134  0.2000
95613W        W38629   1.175  15.915   7.992  0.0438  0.1263  0.0092
95614W        W38630  12.407   9.401   4.350  0.2105  0.2223 -0.0270
95615W        W38631  29.475   4.016   1.709 -0.1474  0.1189 -0.2367
95616W        W38632   3.552  27.521  19.564 -0.0696  0.2183  0.1455
95617W        W38633  10.651  18.926  28.319  0.4672  0.3189  0.1367
95618W        W38634   1.473  11.079   5.272  0.0324 -0.1374  0.0766
95619W        W38635   9.593   4.557   9.460  0.0773 -0.4042 -0.2945
95620W        W38636  26.347  21.806  19.792  0.2803  0.1005  0.1155
95621W        W38637  11.858  17.990   4.817  0.0482 -0.0741 -0.1410
95622W        W38638   0.709  23.578   9.553  0.0051 -0.1079  0.0749
95623W        W38639  14.823   7.831   4.186  0.1011 -0.1910  0.0355
95624W        W38640   1.188  29.646   6.837  0.0955  0.0607 -0.0210
95625W        W38641  28.899   1.857   4.419 -0.0144  0.0812  0.4886
95626W        W38642  22.594   3.637  26.248 -0.2281  0.0667 -0.0474
95627W        W38643  31.997  34.300  21.696 -0.1438 -0.1428 -0.1277
95628W        W38644  20.995  30.047  19.967  0.1022 -0.2276  0.0443
95629W        W38645  26.587  23.922   1.991 -0.2642  0.0097  0.2061
95630W        W38646  25.150  29.868   2.017  0.0297  0.0166 -0.4472
95631W        W38647  17.397  32.149  10.264  0.0382 -0.0326  0.1762
95632W        W38648   9.985  12.308   9.798  0.2421  0.1299  0.1783
95633W        W38649  27.159   2.404   4.622  0.0660 -0.0623  0.0994
95634W        W38650   2.912  18.493   4.259  0.0475  0.3903  0.1327
95635W        W38651   9.528   3.661  19.086  0.2572  0.0981 -0.0651
95636W        W38652  16.488  11.265   2.490 -0.1280  0.1654 -0.0743
95637W        W38653  15.034  26.473   3.451 -0.1532 -0.0353 -0.1671
95638W        W38654   6.578  24.304   7.806  0.1285 -0.1545  0.0615
95639W        W38655   9.775  29.177   7.608  0.0841  0.1932 -0.0612
95640W        W38656   7.544   0.464   8.268  0.0996  0.1342  0.0396
95641W        W38657  14.333  31.352   5.165  0.0246  0.0155  0.0840
95642W        W38658  15.737  29.000  10.526  0.1285  0.1283  0.0347
95643W        W38659  19.200   5.558   6.887  0.0185 -0.1225  0.1752
95644W        W38660  32.836  24.584   3.419 -0.1874  0.1628  0.3239
95645W        W38661  27.575   6.752   9.195 -0.0285  0.2040 -0.0111
95646W        W38662   4.894  14.126   2.834 -0.1023  0.2091 -0.3312
95647W        W38663  13.022  12.911  27.296 -0.0250 -0.0036  0.1187
95648W        W38664   1.183  34.621   8.405 -0.1158  0.4073  0.1628
95649W        W38665  18.955  22.248   4.992 -0.2819  0.1480  0.0030
95650W        W38666  18.563  21.659   4.427 -0.0716 -0.2362 -0.0779
95651W        W38667   8.449  26.879   7.930 -0.0905  0.0821 -0.3789
95652W        W38668  10.658  15.223  17.149  0.0618  0.2191  0.1682
95653W        W38669  10.640  27.294   7.878  0.2444 -0.1535 -0.1256
95654W        W38670  13.331   7.425   8.244 -0.1742  0.3656 -0.5141
95655W        W38671   5.499  31.614   6.383  0.1369 -0.0199 -0.2228
95656W        W38672   8.222  22.050  24.518  0.4019 -0.3229  0.0585
95657W        W38673  34.265   2.249   9.490  0.3701 -0.2218 -0.1554
95658W        W38674   4.409  33.826   8.663 -0.1161 -0.1906  0.4600
95659W        W38675  10.676  33.411  27.624  0.2075  0.1389  0.0670
95660W        W38676  11.822  22.403  17.361  0.0494 -0.0328  0.1992
95661W        W38677  21.383  12.495   2.741 -0.0253 -0.0058 -0.2543
95662W        W38678  11.211   1.621  26.660 -0.1790  0.0885  0.1002
95663W        W38679  16.505  33.841   9.801 -0.3756 -0.0133 -0.0245
95664W        W38680  13.790  20.803   8.672 -0.1750  0.2161  0.5117
95665W        W38681   5.754  30.680   6.672 -0.0414  0.0061  0.3030
95666W        W38682   8.566  13.900  25.640  0.0947 -0.0903  0.0997
95667W        W38683  15.334   5.475  28.574  0.1135  0.2034  0.0464
95668W        W38684   0.057  33.214   8.321 -0.2246  0.0297  0.2319
95669W        W38685   6.170  25.386   2.682  0.1255 -0.0179  0.3535
95670W        W38686  11.122   8.920  19.443 -0.1872 -0.2815 -0.0854
95671W        W38687   2.661  11.507   7.993 -0.0840 -0.1527 -0.0447
95672W        W38688   2.337  24.013   0.376 -0.1576 -0.1429  0.0600
95673W        W38689  18.790  27.548   4.560 -0.0453 -0.0673  0.0730
95674W        W38690   5.805  33.187   8.545 -0.2215 -0.1819 -0.0077
95675W        W38691  31.291   0.343   8.464  0.2461  0.1788  0.2646
95676W        W38692   5.176  11.057   5.005 -0.0430 -0.1085 -0.0175
95677W        W38693  10.186   1.653   0.833  0.0209 -0.0813  0.0477
95678W        W38694  16.561  25.963   7.766  0.1377 -0.0205  0.1310
95679W        W38695   7.950  34.324   5.485 -0.1996 -0.1478 -0.1888
95680W        W38696  19.339  34.329   8.770 -0.2774  0.0441  0.3850
95681W        W38697  11.847  26.846   8.096 -0.3330  0.0038  0.0119
95682W        W38698   0.982   4.031   9.100  0.3536  0.0695  0.0172
95683W        W38699  16.118  13.455   7.133 -0.2361  0.2233  0.1116
95684W        W38700  18.995  32.791  10.260  0.0769  0.1320 -0.0316
95685W        W38701  14.104  29.468   5.114  0.0703 -0.0223 -0.0904
95686W        W38702  26.305  20.193   8.290  0.0845  0.0488 -0.2555
95687W        W38703  19.656  26.126   2.077  0.4546  0.0809  0.1051
95688W        W38704  26.466  22.145  18.034  0.2785 -0.0626 -0.1595
95689W        W38705  17.163  25.362   1.431 -0.1133  0.4635  0.0009
95690W        W38706  33.965  24.509   8.979 -0.2422 -0.1620 -0.1654
95691W        W38707   4.868  19.173  19.374  0.0415 -0.1011  0.0687
95692W        W38708   6.813  17.948  27.844 -0.0785  0.1064  0.0818
95693W        W38709  16.515  14.091   5.963  0.0885 -0.2065  0.1508
95694W        W38710  28.463  15.512  26.514 -0.0171  0.2518 -0.1325
95695W        W38711   7.087  29.365   3.438 -0.1714  0.0854 -0.0330
95696W        W38712   8.433   2.390   3.832  0.0475 -0.0941 -0.0389
95697W        W38713  14.953  28.678   4.427  0.2194 -0.5388  0.1172
95698W        W38714  21.928  33.400   8.454  0.1149  0.2770  0.0946
95699W        W38715  17.597  25.331  28.891 -0.0630  0.1014  0.1894
95700W        W38716  21.007  28.395   8.144  0.0651  0.1237 -0.0813
95701W        W38717  21.119   3.098  24.775  0.4584 -0.0394  0.0416
95702W        W38718   3.180  30.365   4.723 -0.0304  0.1852  0.1344
95703W        W38719  20.417  24.254   2.779 -0.2340  0.3496 -0.0799
95704W        W38720  15.965  23.986   3.064  0.0247  0.2886 -0.3165
95705W        W38721  15.436  32.532   4.215  0.2268  0.1748  0.2121
95706W        W38722  21.620  13.114   3.554  0.1548 -0.0984 -0.3681
95707W        W38723   8.677   1.949   2.983 -0.3633 -0.0521 -0.0720
95708W        W38724  28.854  11.225   0.420 -0.0243  0.0671  0.0248
95709W        W38725   3.555  30.393   3.244 -0.0635  0.3673  0.1893
95710W        W38726  20.167  14.999  25.197 -0.0407 -0.2823  0.0710
95711W        W38727  32.698   7.650   6.196 -0.1031  0.1262 -0.2272
95712W        W38728  24.461  31.920   2.683 -0.3277  0.2670 -0.0264
95713W        W38729  12.194  27.619   0.453 -0.0924 -0.0686  0.1095
95714W        W38730  14.837   0.383  27.117 -0.2033  0.2122  0.0488
95715W        W38731  31.746  18.779  15.702  0.1282 -0.0809 -0.3735
95716W        W38732   4.563  22.294  20.577 -0.0590 -0.1716 -0.5158
95717W        W38733  20.780   9.525   9.828  0.2249  0.4448  0.1025
95718W        W38734  16.588  14.265  24.131 -0.1202 -0.1142 -0.0915
95719W        W38735   7.058   9.438  27.778 -0.1573  0.0832  0.2026
95720W        W38736   6.357   7.987  15.344 -0.2448  0.2187 -0.0808
95721W        W38737  15.544  24.137  27.232  0.0485 -0.1209  0.1461
95722W        W38738  33.423  16.318   3.907 -0.0126  0.1639  0.0553
95723W        W38739  10.564  10.591   9.533  0.0934 -0.0935 -0.0732
95724W        W38740  10.474  32.376  14.547 -0.0250 -0.0360 -0.0371
95725W        W38741  32.557  19.200   5.840  0.0540  0.1306  0.1262
95726W        W38742   7.077  34.684  22.556  0.2144 -0.0153  0.2275
95727W        W38743  15.848  24.530   6.994 -0.0591  0.0429  0.1094
95728W        W38744  11.075  31.989   2.769 -0.0431  0.0806 -0.0050
95729W        W38745  10.409  26.226   2.718 -0.0243  0.0618 -0.1821
95730W        W38746  21.431   1.681   8.218  0.0690 -0.2887  0.2737
95731W        W38747   1.972   2.217   3.490  0.1740 -0.1378 -0.0563
95732W        W38748  20.317  18.726  23.576  0.2280  0.1697  0.2598
95733W        W38749  28.601  32.733   5.938 -0.0258  0.0198 -0.0569
95734W        W38750   7.852  28.670  16.966  0.1368  0.3202 -0.0985
95735W        W38751   6.170  20.104   3.996  0.1497  0.2210 -0.2093
95736W        W38752   8.840  15.341  25.100  0.1336  0.0785 -0.1489
95737W        W38753  13.739  34.498  28.055  0.1262  0.0622 -0.2134
95738W        W38754   1.978   6.009   0.222 -0.0243  0.1477 -0.1902
95739W        W38755  21.100  32.846   6.199 -0.1310  0.0586 -0.1542
95740W        W38756  24.721  18.076  15.805  0.1041  0.1557  0.3237
95741W        W38757   9.780  30.614  27.023 -0.2655  0.0583  0.1876
95742W        W38758  18.336   2.013   2.007  0.0765 -0.1667 -0.1782
95743W        W38759   6.044   5.360  27.821 -0.1736  0.2365  0.0981
95744W        W38760   5.263   4.701   9.426  0.0206  0.3368 -0.2873
95745W        W38761  16.515   6.927   1.497 -0.2501  0.0457 -0.0100
95746W        W38762  10.958  34.755  26.461 -0.2164  0.0626 -0.0818
95747W        W38763  16.433  30.481  20.787 -0.1186 -0.1417  0.3982
95748W        W38764   3.212   4.224  26.194  0.3478 -0.0420  0.1324
95749W        W38765   9.076   2.189   1.618 -0.0416  0.4464 -0.1824
95750W        W38766   5.775   1.774  22.520 -0.0529  0.2648  0.1172
95751W        W38767   8.813  13.256  15.777 -0.0996  0.1679  0.0854
95752W        W38768   8.659  16.068  27.903  0.0015  0.1245 -0.3662
95753W        W38769  10.156  20.420  26.631  0.0199  0.0672 -0.0932
95754W        W38770  26.304  25.452   8.376  0.3180 -0.2249  0.0553
95755W        W38771  10.678  13.496  26.696 -0.0128 -0.2069  0.3012
95756W        W38772  17.650  22.675   1.422 -0.0776 -0.2040  0.0859
95757W        W38773   8.610  33.923   9.056 -0.2990  0.1007  0.0812
95758W        W38774  13.753  28.489   9.451  0.1763  0.0564 -0.2346
95759W        W38775  19.570   2.012   7.480  0.1857  0.2323 -0.0892
95760W        W38776  17.207  18.861  21.576 -0.4175 -0.1750  0.1055
95761W        W38777  23.464  22.989  24.877  0.1676  0.0848  0.2882
95762W        W38778  18.142  22.693   1.097  0.0240  0.0336 -0.0613
95763W        W38779   1.254   2.969  29.171 -0.1169  0.1613 -0.3312
95764W        W38780  33.848  34.372   6.360  0.0346  0.2953  0.0618
95765W        W38781   3.073  33.344   0.285 -0.1595 -0.2870  0.2804
95766W        W38782  31.850   0.487  22.309 -0.0823 -0.0911 -0.0580
95767W        W38783  18.120   4.375   0.873 -0.2620  0.1091  0.4718
95768W        W38784  10.521  16.858  17.838  0.0551 -0.0083 -0.1479
95769W        W38785   7.748  28.959   6.856 -0.2850 -0.1420 -0.1478
95770W        W38786  23.307   5.614   4.149  0.1270  0.2013 -0.0505
95771W        W38787  16.426  25.095   0.431 -0.1516 -0.1637  0.0595
95772W        W38788  11.345  17.614   3.624  0.2612  0.4133 -0.0389
95773W        W38789  33.410  15.255  26.986 -0.1595 -0.0199 -0.0381
95774W        W38790   9.921  25.347   5.724  0.1598  0.0129 -0.0094
95775W        W38791  30.187  33.341  27.387  0.1038  0.0059 -0.1418
95776W        W38792  14.183  33.336  19.916 -0.0994  0.1850  0.3997
95777W        W38793  13.040  14.379   4.441  0.1544  0.0867 -0.1692
95778W        W38794  12.005   6.905   1.572 -0.1155  0.2168 -0.0230
95779W        W38795  21.181  20.762   2.167  0.1631  0.2148 -0.3008
95780W        W38796  23.538  32.353   4.614 -0.3519 -0.1298 -0.5083
95781W        W38797   2.008   0.979   5.555  0.0903 -0.1215  0.1412
95782W        W38798   5.045  22.524  16.513 -0.4550  0.0625 -0.4666
95783W        W38799  16.236  22.173   4.111 -0.2244  0.0718  0.1107
95784W        W38800   0.763  34.043   3.837  0.0853 -0.0259  0.4403
95785W        W38801  28.261  26.264  10.080  0.4118 -0.0111  0.0913
95786W        W38802  12.697  33.404  15.080 -0.1871  0.2618 -0.3425
95787W        W38803  24.300  32.115   2.202  0.2849 -0.2582 -0.2254
95788W        W38804  14.546   8.226   5.752 -0.1379  0.0021 -0.0660
95789W        W38805   9.907  29.274  13.923  0.0173 -0.0336 -0.1820
95790W        W38806   4.927  27.591   9.457 -0.2773 -0.1624 -0.1073
95791W        W38807  34.392  26.154   8.059  0.0782  0.0114 -0.0621
95792W        W38808  13.978   6.271   3.444  0.0981  0.2507  0.1240
95793W        W38809  21.132  32.541   6.584 -0.1174 -0.0950 -0.1044
95794W        W38810  18.982  15.946   6.332 -0.1506  0.0741 -0.1912
95795W        W38811  32.812   1.615   2.233 -0.0084 -0.3476  0.0858
95796W        W38812  12.538  20.283   8.219 -0.3036 -0.0219  0.1121
95797W        W38813  29.177  34.100   1.295  0.1786  0.1516 -0.0822
95798W        W38814   8.480   5.016   6.282 -0.1592 -0.2047  0.0097
95799W        W38815   9.152  33.243  26.936  0.0601 -0.0965 -0.0659
95800W        W38816   6.041  25.173   9.316  0.2111  0.0646  0.2100
95801W        W38817   7.911  24.509  20.842 -0.3513  0.2951  0.0727
95802W        W38818  11.975  33.975   7.138  0.1002 -0.0062  0.1860
95803W        W38819  18.194  17.738   3.899  0.0314 -0.1946  0.2319
95804W        W38820   5.537  27.159  26.823 -0.1061  0.0180 -0.4965
95805W        W38821  14.322   2.207  24.998 -0.0430  0.0456 -0.2265
95806W        W38822  12.246  29.626  10.282  0.2502  0.0452 -0.0712
95807W        W38823  10.731  15.176   8.248  0.0149  0.1169  0.1813
95808W        W38824  19.314  32.660   2.310 -0.4579  0.1464 -0.4953
95809W        W38825   7.108  34.263  10.168 -0.1088  0.0923  0.0311
95810W        W38826  13.603  27.375   6.695 -0.1278 -0.1242 -0.1012
95811W        W38827   8.886  31.661   8.785 -0.0237 -0.1418 -0.3220
95812W        W38828   8.321  11.512  29.048  0.2450 -0.2193  0.1801
95813W        W38829  23.622  25.571  10.695 -0.1729  0.0318  0.1596
95814W        W38830  15.258  18.668   0.514 -0.2626 -0.0072  0.0165
95815W        W38831  13.016  16.913  22.218  0.0878 -0.2371  0.0362
95816W        W38832   0.153  29.378   5.237 -0.4939 -0.0229  0.0111
95817W        W38833  12.068  24.708   6.024  0.1827 -0.0180  0.2374
95818W        W38834  13.646   2.395   4.991 -0.0791 -0.1657 -0.1320
95819W        W38835  14.907  18.994  25.546  0.1912  0.0752  0.0484
95820W        W38836  16.604   0.315   0.532  0.0675  0.3116  0.0289
95821W        W38837  23.433  18.387  19.254  0.0415 -0.2700 -0.0011
95822W        W38838  14.432  25.158   4.141 -0.0612  0.0116  0.4369
95823W        W38839  14.278   1.214  29.250  0.1476  0.1394  0.0020
95824W        W38840  20.040  20.430   6.843  0.0133 -0.0002  0.1038
95825W        W38841   7.184  30.991   1.096  0.0817  0.1876  0.0214
95826W        W38842  20.559  23.718   8.079 -0.0429 -0.0101  0.1344
95827W        W38843  16.075  10.353  23.245 -0.1892  0.0273  0.2176
95828W        W38844  12.860  12.139   3.954 -0.0363 -0.1089  0.1773
95829W        W38845  24.578  13.697   2.037  0.1543  0.0186  0.2281
95830W        W38846  29.776   1.536   3.500  0.0695 -0.1272  0.1389
95831W        W38847   8.369  30.919   1.180  0.0667 -0.0343  0.0052
95832W        W38848   3.917  29.128   7.515 -0.1716  0.1581 -0.1096
95833W        W38849  19.801  33.978  19.847  0.3814 -0.1621 -0.3449
95834W        W38850  32.308  29.981   9.649  0.1774  0.1276  0.0831
95835W        W38851  18.918  32.377   4.388 -0.1844  0.0954 -0.1776
95836W        W38852  15.783   0.180  29.136  0.0393  0.2487 -0.1802
95837W        W38853  16.430   0.696   6.050  0.0118 -0.2531  0.2249
95838W        W38854  10.851  14.489  25.266  0.3333  0.1762  0.1843
95839W        W38855  19.371   1.116   5.153  0.0990  0.1959  0.1428
95840W        W38856   4.808  19.134   3.114 -0.0426 -0.1768  0.0434
95841W        W38857   1.963  20.500   3.590  0.0281  0.1642 -0.0870
95842W        W38858  17.731  17.823  27.183  0.3285  0.4367 -0.0038
95843W        W38859  16.953  20.209  24.983  0.0711 -0.1389 -0.2665
95844W        W38860  12.566   5.838   3.494  0.1643 -0.0491  0.0325
95845W        W38861  23.502  33.571   8.944  0.1509  0.0832  0.0069
95846W        W38862  16.938  28.280  17.215 -0.2167  0.1413 -0.1156
95847W        W38863  30.515   1.005  23.866  0.0780 -0.4507  0.0223
95848W        W38864  15.079  10.780   2.455 -0.0270  0.0920 -0.0084
95849W        W38865  28.427  15.735   4.459 -0.0636  0.2318  0.0554
95850W        W38866   1.519  22.359   7.539 -0.0410 -0.1345 -0.3235
95851W        W38867   9.820   0.281   6.644  0.2429  0.0783  0.1328
95852W        W38868  12.328   9.797   3.037 -0.1099 -0.2020 -0.1375
95853W        W38869  21.402  22.267   1.460  0.2674 -0.0110  0.1717
95854W        W38870   9.268  22.313   7.087  0.1582  0.1421  0.0687
95855W        W38871  27.680  16.169   6.823 -0.2562  0.2346 -0.1882
95856W        W38872  11.184  28.605  26.801  0.2642 -0.0180 -0.1289
95857W        W38873  32.562   1.218  22.588  0.0802 -0.1178 -0.1620
95858W        W38874   6.418  17.407   1.962 -0.2509 -0.0699 -0.1180
95859W        W38875  18.416   0.689   7.380 -0.2319  0.1316 -0.1142
95860W        W38876  17.470   4.639   9.040 -0.0053  0.0159 -0.0778
95861W        W38877  17.970  16.159   3.155 -0.1321 -0.0860 -0.0841
95862W        W38878   4.354   9.362   7.263 -0.3283  0.1213 -0.0892
95863W        W38879   1.969  27.290   6.830 -0.0625 -0.0189  0.0018
95864W        W38880   9.074   0.970   7.512 -0.3141  0.0149 -0.0781
95865W        W38881   5.734   3.301   0.867  0.1680 -0.1604  0.0973
95866W        W38882  20.122  19.420  22.482 -0.1433  0.1415 -0.2218
95867W        W38883   8.555  16.507   5.599 -0.0187  0.0891 -0.1401
95868W        W38884  24.529  24.180   8.232 -0.2518  0.1963  0.0970
95869W        W38885  27.019   0.047   7.408 -0.2040  0.1981 -0.1236
95870W        W38886  12.939  27.869  18.982 -0.0687 -0.0758 -0.2048
95871W        W38887  18.503  24.244   7.704  0.3075  0.0711  0.2357
95872W        W38888  33.028   6.789   0.435 -0.1936 -0.0434  0.0276
95873W        W38889  19.022  18.289  27.436 -0.1800 -0.1805  0.2232
95874W        W38890  15.926  19.317  21.703  0.0976 -0.3500  0.1742
95875W        W38891  21.905  20.085   1.966  0.2000 -0.0506  0.0378
95876W        W38892  34.547  23.272   5.365  0.2948 -0.0778  0.0794
95877W        W38893   7.950  33.541   3.833  0.1360  0.1763 -0.3861
95878W        W38894   9.081  32.762  24.207 -0.0756  0.1734 -0.2128
95879W        W38895   7.894   7.148   3.926  0.0084 -0.2716 -0.1730
95880W        W38896  15.203   6.455   3.842  0.0663  0.0323 -0.2666
95881W        W38897  23.101  31.398   9.440 -0.1690  0.1073  0.0308
95882W        W38898  29.929  27.217   3.949 -0.0716  0.0015  0.0417
95883W        W38899  15.323  18.442   3.812  0.0696 -0.0893 -0.0621
95884W        W38900   8.203  25.602  12.907  0.0832  0.0315 -0.0951
95885W        W38901  21.464  29.025   1.213 -0.1069 -0.2012  0.0554
95886W        W38902  30.589   3.933   0.942  0.1848  0.0635  0.1639
95887W        W38903   9.637   3.923   6.380 -0.0956 -0.1489 -0.0799
95888W        W38904  23.599  34.053   2.864 -0.0439 -0.0042  0.0352
95889W        W38905  24.516  32.614   5.750  0.0104  0.0977  0.2488
95890W        W38906  12.060  25.285   2.713  0.1395 -0.1933 -0.2177
95891W        W38907  25.856  15.765  20.137  0.0075  0.1468  0.0433
95892W        W38908  19.899  24.654   0.259 -0.0735  0.0610 -0.3366
95893W        W38909  12.343  27.369  28.349 -0.0073 -0.1008 -0.1053
95894W        W38910   9.042  33.200   8.956  0.0182  0.1401 -0.1430
95895W        W38911   7.013  27.175   8.916  0.2059  0.3395  0.0905
95896W        W38912  12.198   2.698   6.519 -0.3423  0.3327  0.1842
95897W        W38913  13.603   0.117   3.836 -0.0947 -0.2450 -0.0661
95898W        W38914  17.321  18.288   6.946  0.4175 -0.3158  0.1796
95899W        W38915  25.409   8.621   7.582  0.0253  0.0117  0.2008
95900W        W38916  21.032  29.990   9.798  0.0414  0.0585 -0.1900
95901W        W38917   8.160   7.899   2.526  0.2727 -0.1096 -0.1452
95902W        W38918  13.297  19.995   0.355  0.0946 -0.0770  0.0554
95903W        W38919  17.479  32.557   9.765  0.2237  0.0260 -0.1478
95904W        W38920  11.372  17.793  21.282 -0.4229  0.2260  0.0606
95905W        W38921  24.532  21.386  27.826 -0.1602 -0.1643  0.1233
95906W        W38922  13.474  28.785  23.468  0.0531 -0.0857 -0.2045
95907W        W38923  26.270  26.026   6.503 -0.1053  0.0258  0.0405
95908W        W38924  22.936  17.994   2.858  0.0796 -0.2950 -0.0773
95909W        W38925  12.703   1.408  22.655 -0.0385  0.2466  0.3286
95910W        W38926  11.627   3.011   2.801  0.0556  0.0684  0.1289
95911W        W38927   5.546  29.185   7.658  0.1818  0.3598  0.1729
95912W        W38928  16.568  15.602  20.263 -0.0620  0.0562  0.4976
95913W        W38929  13.088  22.932   8.422 -0.1820 -0.3016 -0.1242
95914W        W38930   3.925  20.228   3.855  0.0421  0.3332 -0.1453
95915W        W38931  12.944  30.281   2.538  0.2532  0.0382 -0.1147
95916W        W38932   5.822  34.766  16.697 -0.2111  0.0607 -0.0239
95917W        W38933   8.463   6.453   2.479  0.1280  0.2150 -0.3241
95918W        W38934  12.905  26.701   8.055  0.0275  0.2178  0.0994
95919W        W38935  16.002  25.331  23.723 -0.1344  0.1732  0.2011
95920W        W38936   3.367  21.644  25.531 -0.0834 -0.2568  0.3437
95921W        W38937  19.750  26.749   7.539  0.1195  0.1052 -0.1019
95922W        W38938  23.633  23.746  14.914 -0.4819 -0.0942 -0.3363
95923W        W38939  34.018  19.915   7.614  0.0755 -0.3171  0.0961
95924W        W38940   4.844   4.125   0.310 -0.3363  0.0644 -0.1957
95925W        W38941  34.630  28.143   3.726  0.0286 -0.1483  0.1247
95926W        W38942  14.741   8.152   1.815 -0.0717 -0.3898  0.1208
95927W        W38943  22.048  12.152   4.560  0.4558 -0.2913  0.2287
95928W        W38944   6.154  27.152   8.371 -0.0484  0.1573 -0.2182
95929W        W38945   9.192  29.980   4.169 -0.1447 -0.0790 -0.1967
95930W        W38946   9.315  24.790   2.116  0.0933  0.3152 -0.0794
95931W        W38947   9.134   0.530   9.612 -0.0612 -0.1479  0.1130
95932W        W38948  20.381  25.108   3.083 -0.1244 -0.3671 -0.0073
95933W        W38949  27.149  23.602   0.391 -0.1270 -0.1007 -0.3659
95934W        W38950  26.087  29.374   7.255 -0.3209 -0.2759 -0.2907
95935W        W38951  21.629  26.272   5.967  0.1912  0.1802  0.1319
95936W        W38952   3.656  10.732   7.786  0.0783  0.1473  0.0203
95937W        W38953  16.612  14.731   1.967 -0.1385 -0.1287  0.0319
95938W        W38954  20.889  30.209   2.719 -0.1039 -0.0701  0.0802
95939W        W38955   6.061  34.613   6.454 -0.0614  0.1106  0.5085
95940W        W38956  31.469  25.336   5.097 -0.1542 -0.1321  0.2520
95941W        W38957  14.327  20.564  27.402 -0.1364 -0.2618 -0.1505
95942W        W38958  24.085  26.002  19.701  0.1141  0.0545  0.2974
95943W        W38959  15.782  10.618  19.100  0.1492  0.0241 -0.1960
95944W        W38960   7.918  33.522   5.174 -0.0762 -0.0882  0.1972
95945W        W38961   9.575  33.906   9.488  0.1030  0.3052  0.0092
95946W        W38962  11.993  23.475   5.455  0.1978 -0.1700 -0.0960
95947W        W38963  16.588  21.492  24.061  0.0246 -0.0929 -0.1866
95948W        W38964  18.585  26.445   9.444  0.1374 -0.0632 -0.1493
95949W        W38965   7.251  28.366   3.932 -0.1022 -0.2469  0.1197
95950W        W38966   8.377  17.402  21.149 -0.0199  0.1696  0.0312
95951W        W38967  14.134  19.767   5.351 -0.0347 -0.3366  0.1823
95952W        W38968  21.879  29.380  28.201 -0.0365 -0.2306 -0.0399
95953W        W38969   6.552  28.932   9.317  0.0051  0.1000  0.0353
95954W        W38970   7.635   4.139   8.926  0.0706  0.2798  0.0945
95955W        W38971  21.391  17.993   9.130 -0.1178 -0.0254  0.0284
95956W        W38972   5.431  21.484  19.458 -0.2389 -0.3179  0.0663
95957W        W38973  19.306  14.977   7.466  0.2838  0.0300  0.1470
95958W        W38974   8.211  29.744   0.278 -0.3311  0.0743 -0.0398
95959W        W38975  11.024  10.086   9.159  0.1751  0.0263  0.0869
95960W        W38976  13.734  27.500   8.604 -0.1738  0.0989  0.0932
95961W        W38977  19.394  20.820   4.324 -0.2717 -0.2529 -0.2164
95962W        W38978  33.497  34.387   5.722 -0.1126 -0.0018 -0.1674
95963W        W38979   3.177   6.677   2.311  0.0403  0.1911 -0.0778
95964W        W38980  20.768  15.525   8.960  0.4309 -0.2403 -0.0789
95965W        W38981  10.157   9.630   0.448  0.0422 -0.2187 -0.1724
95966W        W38982  12.762  11.930   3.436 -0.0177 -0.0895  0.0351
95967W        W38983  11.621  29.628   0.559  0.0860 -0.0954  0.0753
95968W        W38984  30.859  29.941  20.922 -0.1021 -0.3564 -0.1975
95969W        W38985  16.794   2.068   9.123 -0.2858 -0.0249 -0.0287
95970W        W38986   6.185   2.506   0.987 -0.0460  0.2477 -0.0809
95971W        W38987   4.748   6.303  29.265  0.1845  0.1163 -0.1687
95972W        W38988   4.439  18.966   2.624  0.2326  0.1661 -0.2370
95973W        W38989  13.648   9.463   8.416 -0.1323 -0.2475 -0.3386
95974W        W38990  12.000  25.551  25.031  0.0414  0.0885  0.5088
95975W        W38991  13.022  29.715  27.780  0.4023  0.1935 -0.3044
95976W        W38992  19.220   9.098   6.785 -0.4042  0.1459 -0.3637
95977W        W38993   9.590  28.957   2.609 -0.1160  0.0671 -0.0136
95978W        W38994  30.016  12.464  27.384 -0.0238  0.0915  0.1920
95979W        W38995  18.931  12.674   1.483 -0.0648  0.2527 -0.1581
95980W        W38996   9.172  21.066  29.205 -0.0530  0.0791  0.2280
95981W        W38997  24.307  16.118   9.847  0.0229 -0.0278 -0.1248
95982W        W38998   5.441  25.617  26.020  0.0835  0.0355  0.0869
95983W        W38999  14.153  27.871   7.798  0.2247  0.2246 -0.0493
95984W        W39000   9.405   6.962  10.096 -0.0007 -0.2534 -0.1988
95985W        W39001  19.769   6.538   7.122 -0.0326  0.2908  0.0702
95986W        W39002  34.679  26.619  18.481  0.1444 -0.0750 -0.2548
95987W        W39003  17.019  12.908  15.696 -0.2373  0.0417 -0.0734
95988W        W39004  16.570  20.992   4.397  0.3193  0.1644 -0.1809
95989W        W39005   3.856  16.384  23.554  0.1553  0.1074 -0.2736
95990W        W39006   4.273  26.655  26.363  0.1922 -0.1853 -0.1696
95991W        W39007  13.462   7.485   2.246 -0.1159 -0.0016 -0.0137
95992W        W39008   1.131   0.724   5.757 -0.0660  0.1627 -0.1888
95993W        W39009  13.246  11.182   3.781 -0.2147  0.0953 -0.2016
95994W        W39010  28.741   8.780   9.565  0.3034  0.0256  0.1291
95995W        W39011  18.283  22.845   5.295 -0.1337  0.2408  0.0533
95996W        W39012   6.893  24.936   5.042  0.2113 -0.4825  0.2612
95997W        W39013  20.868  17.404  24.469  0.3728  0.1833  0.2963
95998W        W39014   7.346  25.330   7.055 -0.2061 -0.1141  0.1065
95999W        W39015  27.034  15.896   2.639 -0.0709 -0.3225 -0.0940
96000W        W39016   2.790  24.744   5.466 -0.1326 -0.0818 -0.0432
96001W        W39017  15.749  32.233   6.121 -0.0160  0.2510  0.0711
96002W        W39018  15.466  20.604  23.545 -0.4160  0.4355  0.1308
96003W        W39019  12.626  17.557   8.629  0.2881  0.1406 -0.5553
96004W        W39020  33.782   9.422   4.841  0.1822 -0.2252 -0.1166
96005W        W39021  14.567   2.881   4.707  0.1501 -0.1566  0.0945
96006W        W39022   9.582  33.922  18.798  0.1148  0.0085 -0.0942
96007W        W39023   5.859  21.417  22.573  0.1555  0.1757  0.2263
96008W        W39024   4.559  32.479   7.108  0.2042 -0.3261 -0.3396
96009W        W39025  12.459  32.319   0.623  0.1341 -0.1893 -0.1571
96010W        W39026  15.342  25.860   0.010  0.3026 -0.3404  0.0617
96011W        W39027  14.804  34.684  28.960 -0.0334  0.0639 -0.1160
96012W        W39028  14.553  31.698   7.537  0.3434  0.0269  0.0650
96013W        W39029   6.701  19.599  28.635  0.0140  0.0392 -0.1345
96014W        W39030  14.918  24.219   2.373  0.3263 -0.1590 -0.1529
96015W        W39031  19.164  26.867   9.197 -0.2712 -0.1215  0.1013
96016W        W39032  12.922  28.306  14.579  0.1051 -0.1483 -0.0311
96017W        W39033  16.422  23.323  17.851  0.0015 -0.2627  0.2777
96018W        W39034  10.854  29.041  10.105 -0.2350  0.2042  0.2568
96019W        W39035   7.703  32.024   5.287  0.4480  0.0039  0.1315
96020W        W39036   8.356   5.106   6.964 -0.1665  0.1854  0.2081
96021W        W39037  19.490  20.930   6.796 -0.3266 -0.0583 -0.3722
96022W        W39038  18.817  23.401   8.263 -0.0510  0.1218 -0.0442
96023W        W39039  32.875   4.790   5.921 -0.2885 -0.0696 -0.1417
96024W        W39040  32.653  25.210  27.444  0.0880  0.2308 -0.2772
96025W        W39041  17.815  32.350  14.876 -0.0896  0.2885 -0.0404
96026W        W39042  24.655  33.695   9.321  0.4544  0.1100 -0.0892
96027W        W39043  26.540  18.399   1.254  0.2583 -0.1347  0.2214
96028W        W39044  11.656   2.101   6.095  0.0640  0.0160 -0.0397
96029W        W39045   7.745  30.209  10.059  0.0603 -0.0378 -0.1297
96030W        W39046   9.625   5.878  29.143  0.3124  0.0643 -0.4259
96031W        W39047  15.757  21.276  28.472  0.1061  0.0823 -0.4108
96032W        W39048  11.563  25.355   8.493  0.0149 -0.0974 -0.1579
96033W        W39049  11.721  24.513   5.235  0.1737 -0.0761  0.0110
96034W        W39050  17.910  34.681   1.600  0.2821 -0.7754  0.0607
96035W        W39051   4.287  29.979   6.715 -0.4410  0.0856  0.2173
96036W        W39052   2.037  28.651   1.522 -0.0208  0.1322 -0.0482
96037W        W39053   2.257   1.364   0.703 -0.1212 -0.0819 -0.0631
96038W        W39054  16.763  22.267   4.349 -0.0467 -0.0042 -0.1888
96039W        W39055   8.373   1.498  17.592  0.4651  0.5416 -0.1843
96040W        W39056  21.113  12.839   8.588  0.2619 -0.1775 -0.2078
96041W        W39057   1.402  26.187  28.426 -0.2697 -0.4211 -0.0581
96042W        W39058   1.870  23.660  16.934 -0.0183 -0.1178 -0.3416
96043W        W39059  22.191  32.938   8.251  0.0544  0.2392  0.1437
96044W        W39060  22.283  10.188   7.390  0.0832  0.1288  0.1846
96045W        W39061   4.291  16.560  10.029  0.1130  0.0140 -0.2181
96046W        W39062   0.713  23.784   1.756  0.0485  0.0242 -0.2564
96047W        W39063  22.568  29.873   6.804  0.0428  0.2407 -0.1068
96048W        W39064  31.391  25.082   9.775  0.5156 -0.0217 -0.0310
96049W        W39065  12.852   0.479   7.139 -0.2473 -0.1092 -0.0509
96050W        W39066  11.729  22.311   0.701 -0.0870  0.2365  0.2347
96051W        W39067   7.286  19.173   5.808 -0.1765 -0.1280  0.2640
96052W        W39068  21.901  32.023   3.001  0.2069  0.0754  0.1095
96053W        W39069  10.788  21.775   7.007 -0.1417 -0.0340 -0.0255
96054W        W39070  12.788  20.422   2.053  0.0171  0.0860  0.2475
96055W        W39071   0.218   3.908  15.453 -0.0483 -0.1729  0.1409
96056W        W39072   2.815  33.980   2.963 -0.1279 -0.0826  0.0328
96057W        W39073  13.052   2.415  22.963 -0.0244  0.0432 -0.0132
96058W        W39074   9.456   9.968  29.150  0.0929  0.0106  0.2979
96059W        W39075  32.547  33.042   2.581 -0.2290 -0.4927 -0.0181
96060W        W39076  25.628  10.868  11.180  0.1217 -0.2256 -0.0120
96061W        W39077  26.903  30.988  19.752  0.2654 -0.0293 -0.2616
96062W        W39078  24.062   1.232   2.927 -0.1817 -0.1965 -0.2529
96063W        W39079  18.946   5.895   9.649 -0.1411  0.1136  0.0155
96064W        W39080  14.865  19.222  23.006 -0.2566  0.3811  0.2270
96065W        W39081   6.146  30.001   4.111  0.0117 -0.0123 -0.2400
96066W        W39082   5.882  23.685   8.844  0.3412 -0.1270 -0.0957
96067W        W39083  25.234  13.798   4.307 -0.1093 -0.3618  0.0064
96068W        W39084   3.551  23.721   9.412  0.1070  0.1811  0.0861
96069W        W39085   1.997  32.459   7.967  0.1297  0.0390  0.1870
96070W        W39086   8.730  30.716   7.947  0.1238 -0.0057 -0.1237
96071W        W39087  13.972  19.458  28.345  0.3327  0.1471  0.3970
96072W        W39088   7.658  33.810   9.754 -0.3652  0.2769  0.0264
96073W        W39089   8.281  22.474   0.095  0.1017  0.1742 -0.0218
96074W        W39090  18.145  30.689   3.597 -0.0345 -0.0605 -0.3802
96075W        W39091  24.641   0.400   2.677  0.0318  0.1218  0.0298
96076W        W39092  10.628  22.082  18.654 -0.0106  0.1074 -0.0991
96077W        W39093  15.672  27.769   1.493  0.1976  0.0586  0.0114
96078W        W39094  12.425  23.272  26.777  0.0925 -0.1021  0.2485
96079W        W39095  10.892  31.276  25.563 -0.1465 -0.0004  0.2001
96080W        W39096  17.880  30.407  26.332  0.1866  0.1781  0.0593
96081W        W39097  33.256  18.511   7.315 -0.3174 -0.0013  0.0539
96082W        W39098  11.246  29.547   5.869  0.2901  0.0743  0.2362
96083W        W39099   9.470   0.626  27.925 -0.0620  0.2697  0.1618
96084W        W39100  31.360  24.800   8.003 -0.3341 -0.0523  0.0209
96085W        W39101  33.414  20.905   8.736 -0.1966 -0.0631  0.0236
96086W        W39102  11.705  18.650  20.323  0.3285 -0.2950 -0.0566
96087W        W39103  29.550   7.956   0.831 -0.1808 -0.1018  0.2896
96088W        W39104  14.036  32.029   4.961  0.1695  0.0624  0.1730
96089W        W39105  26.542  16.273   5.314 -0.1869  0.2912  0.0085
96090W        W39106  21.568  16.389  21.561  0.2342 -0.1153 -0.0427
96091W        W39107  15.989  29.913  28.937  0.1654 -0.0042 -0.2359
96092W        W39108  30.401  17.768  27.495 -0.2130 -0.0148 -0.1675
96093W        W39109  21.165  20.225   7.794  0.0540 -0.0177 -0.1367
96094W        W39110  18.015   3.091   6.621 -0.1136 -0.0386 -0.0987
96095W        W39111  32.978  23.222   6.596 -0.0452 -0.1787 -0.0514
96096W        W39112  20.912  23.270  25.019  0.0384  0.1799 -0.1392
96097W        W39113   3.000  18.056  19.506 -0.0251 -0.0398  0.1545
96098W        W39114   6.875   0.297  28.101  0.0655 -0.2285 -0.0659
96099W        W39115  13.422  30.042   8.527  0.0031  0.0327  0.1655
96100W        W39116  12.859  23.604   5.637 -0.2945  0.5047  0.1925
96101W        W39117   2.566  22.244   4.479 -0.2665 -0.0701  0.1976
96102W        W39118  14.623  28.029   9.341  0.1558  0.1630  0.1243
96103W        W39119  11.270  34.484   1.566  0.2267 -0.3733  0.1538
96104W        W39120  16.467  14.135   6.624  0.1005  0.0631 -0.1176
96105W        W39121  25.621   1.312   3.235  0.0297 -0.0239 -0.3065
96106W        W39122  13.476  20.939  15.236 -0.1693 -0.2668  0.0996
96107W        W39123  16.248   8.314  17.381  0.1859  0.2249 -0.1531
96108W        W39124   3.309  14.705   3.303  0.2368  0.2190  0.0392
96109W        W39125  17.269  26.461   3.365  0.3517 -0.0148 -0.0375
96110W        W39126  20.850  20.351   7.098 -0.0835  0.0194 -0.1037
96111W        W39127   0.971  22.594   1.800 -0.0854 -0.0876  0.0854
96112W        W39128   5.459   8.764   1.094  0.1813  0.0807  0.2079
96113W        W39129  21.929   7.435   9.417  0.1044 -0.5034 -0.1957
96114W        W39130  12.949  23.965  29.231  0.4722 -0.0665 -0.2466
96115W        W39131  22.023   9.057   5.046  0.0484  0.1871  0.0583
96116W        W39132   8.829   1.065  29.076  0.0424 -0.0976  0.2778
96117W        W39133   1.526  21.642   7.290 -0.2054  0.0279  0.1385
96118W        W39134  13.165  29.220  27.770 -0.0767 -0.0094  0.1178
96119W        W39135  29.523   1.657   2.022  0.2128 -0.0781 -0.2357
96120W        W39136  27.412  22.778  22.070 -0.0525 -0.1751 -0.0106
96121W        W39137  21.681  20.226   7.770  0.1830 -0.0748 -0.4448
96122W        W39138   4.317  23.111   5.858 -0.3653 -0.2206  0.2144
96123W        W39139  17.292  17.160  18.723  0.2460 -0.0824  0.0608
96124W        W39140   9.247   1.199  28.098  0.0916  0.1256 -0.0892
96125W        W39141  26.046   9.971   5.317  0.3969  0.0079 -0.1265
96126W        W39142   3.880   3.991   0.172  0.0446 -0.2480 -0.0106
96127W        W39143  11.954  28.077   9.025  0.1626 -0.1443 -0.1878
96128W        W39144  18.757  18.878  27.749 -0.0378 -0.3450 -0.1371
96129W        W39145   6.604  31.239  27.922  0.3638  0.1439  0.3022
96130W        W39146  25.782  25.570   1.117 -0.2743 -0.1331  0.1479
96131W        W39147  16.537   1.294   0.493  0.0124  0.1748  0.3097
96132W        W39148  12.068  28.046   1.357  0.0174 -0.0482  0.1199
96133W        W39149  14.918  32.189  27.596 -0.4137 -0.0537  0.1364
96134W        W39150  20.747  25.042   0.902 -0.2203 -0.0014  0.2456
96135W        W39151  23.939  26.842   5.994 -0.0997 -0.1196  0.1076
96136W        W39152  33.026  13.202   8.265  0.2002 -0.0267 -0.1940
96137W        W39153  25.358  32.236   6.264  0.0694 -0.1746 -0.2320
96138W        W39154  18.541  18.295   6.059 -0.1968 -0.0203  0.4089
96139W        W39155  31.817  16.492   9.380 -0.3528 -0.3113  0.0395
96140W        W39156  15.324  22.989  29.301 -0.1607 -0.1540 -0.1851
96141W        W39157   6.467   5.365  28.295 -0.1964  0.0444 -0.1017
96142W        W39158  20.273  23.132  28.234 -0.0621 -0.4142 -0.0367
96143W        W39159  30.565  20.335   5.020  0.5337  0.0731  0.3637
96144W        W39160  16.576  22.694  25.795  0.2473 -0.1526 -0.2736
96145W        W39161  17.064  24.266   8.480  0.0367 -0.3212 -0.4165
96146W        W39162   0.680  18.863  26.167  0.1300  0.0469  0.1559
96147W        W39163   0.663  15.286  22.175  0.0065  0.0594  0.0563
96148W        W39164   7.589  29.532   4.379 -0.0204 -0.1178  0.0552
96149W        W39165  13.218  19.409   4.111 -0.1895  0.1923  0.1845
96150W        W39166  20.057   5.117  23.471  0.2869  0.2636 -0.0613
96151W        W39167  22.792  10.967  20.345  0.1465  0.2094 -0.1641
96152W        W39168   8.855  16.086  28.771 -0.0088  0.0177 -0.1625
96153W        W39169   2.596   6.859  27.767  0.0297  0.1323 -0.0860
96154W        W39170  29.887  27.181   1.253 -0.0403  0.1148  0.1239
96155W        W39171   5.901  25.539   9.800 -0.3628  0.0037  0.0565
96156W        W39172   3.022  25.760   9.598 -0.3145 -0.1109 -0.2209
96157W        W39173  21.950  31.076   2.444 -0.1960 -0.1876  0.1816
96158W        W39174   6.646  26.516   4.041  0.3351 -0.1567  0.4043
96159W        W39175  11.502  25.323   6.550 -0.0853  0.0771  0.1261
96160W        W39176  15.476  25.671  21.738  0.0170 -0.1492  0.0382
96161W        W39177  13.200   2.880   2.058  0.0084 -0.0434  0.1302
96162W        W39178  16.559  24.856   3.686  0.1857  0.4305  0.0083
96163W        W39179   0.580  25.334   6.477 -0.1574 -0.2128 -0.0747
96164W        W39180   7.798  27.974  10.137 -0.3077 -0.1858 -0.0418
96165W        W39181  19.432   2.828   1.946  0.2587  0.0849 -0.0343
96166W        W39182   7.465  29.034   9.594  0.5472  0.1358 -0.0524
96167W        W39183   6.603  29.830   1.777 -0.1993 -0.0757 -0.0235
96168W        W39184  19.288  27.674  29.203 -0.2545  0.0629  0.2396
96169W        W39185   4.541  33.846   7.604  0.0175 -0.1923 -0.2208
96170W        W39186   9.215  20.220  26.317 -0.0573  0.0651 -0.1113
96171W        W39187  13.281   9.478  27.829 -0.0538 -0.1016 -0.2252
96172W        W39188   7.718  24.915   8.769  0.0903 -0.0314  0.2492
96173W        W39189  19.414  27.812  22.050 -0.1806 -0.1858 -0.0836
96174W        W39190  34.765  22.503   8.216 -0.2208  0.0834 -0.0881
96175W        W39191  11.274  29.491   3.384 -0.1382 -0.1398 -0.0809
96176W        W39192  13.439   0.537  16.110 -0.3188 -0.0327  0.0056
96177W        W39193  10.398  11.814  28.197  0.1763 -0.2289 -0.0852
96178W        W39194  19.315  22.871  25.447 -0.2760  0.1971 -0.1732
96179W        W39195  15.471  26.138   5.333  0.0901 -0.1381  0.2804
96180W        W39196   6.654  26.526  22.616  0.1502  0.0647 -0.0577
96181W        W39197  14.372  19.600  25.271  0.0590  0.1208 -0.1215
96182W        W39198  10.094   0.996   1.640 -0.0836  0.0472 -0.0209
96183W        W39199   2.744   2.455   7.403 -0.0957 -0.1173  0.0436
96184W        W39200  21.497  24.571  28.587  0.1486  0.2213  0.0566
96185W        W39201  14.880  24.455   7.980  0.1030  0.0909 -0.1885
96186W        W39202   3.412  29.564   3.862  0.1703 -0.0640  0.1151
96187W        W39203  21.160   0.206   5.107  0.2331 -0.1229  0.2244
96188W        W39204  10.810  29.700   5.555 -0.3992  0.2633  0.2820
96189W        W39205  22.461  22.658   3.212  0.2207 -0.4212  0.1037
96190W        W39206  11.708  22.639  26.882 -0.1010  0.0371  0.2590
96191W        W39207  24.399   3.245   6.943 -0.0537 -0.1080  0.0541
96192W        W39208  12.202  26.272  28.091 -0.0765  0.1187  0.0523
96193W        W39209  15.773  33.972  19.520  0.2398 -0.0020 -0.1584
96194W        W39210  22.817   0.212  24.438 -0.2590  0.0903  0.3576
96195W        W39211  19.839   8.998  20.536 -0.1336  0.0901  0.3317
96196W        W39212  24.578  20.803  22.892  0.2773 -0.0212 -0.2003
96197W        W39213  14.073  31.872   2.120 -0.3094  0.0054 -0.0387
96198W        W39214  14.641  19.205  20.700  0.0578 -0.0579 -0.3873
96199W        W39215  21.820   2.634  16.588  0.1701 -0.0914  0.0625
96200W        W39216   7.976   4.134  19.919  0.1020 -0.0605  0.0741
96201W        W39217   6.710  20.220   6.399  0.2476 -0.2431 -0.0540
96202W        W39218  13.993  28.705  28.741  0.3702  0.2027 -0.0378
96203W        W39219  33.496   6.175   9.790  0.0570 -0.2274 -0.1870
96204W        W39220  20.459  30.861   6.194 -0.0818  0.1584  0.0869
96205W        W39221  20.342   9.879  27.901  0.2572  0.2814  0.1309
96206W        W39222  12.998  14.807  28.430 -0.2161  0.0934 -0.2070
96207W        W39223  10.932   1.785   2.872  0.1410  0.0973  0.2518
96208W        W39224  16.741  29.440   8.080 -0.1042  0.0599  0.3630
96209W        W39225   9.923  26.360   9.325 -0.1666  0.1193 -0.0438
96210W        W39226   1.234  10.182   3.034  0.1844  0.2435 -0.1117
96211W        W39227  22.634   1.273   0.874  0.3147  0.3171 -0.1915
96212W        W39228  10.952  18.957   4.464 -0.0490 -0.2710  0.0085
96213W        W39229  32.645  23.792   8.799 -0.1199  0.1312  0.1649
96214W        W39230  23.537   4.297   2.062 -0.0998 -0.3016  0.0315
96215W        W39231   0.804   1.203  13.944  0.0939 -0.3103 -0.2534
96216W        W39232  18.885  25.569   3.292  0.0627  0.2127  0.0129
96217W        W39233  18.155  30.727  20.120  0.1806  0.0902 -0.0291
96218W        W39234  20.931  11.703  21.130 -0.0845 -0.0213  0.2252
96219W        W39235  12.738  23.524  20.818  0.0467  0.0650 -0.0082
96220W        W39236  21.363  24.225  19.374  0.0558  0.1348 -0.0188
96221W        W39237  19.902  23.408   4.052 -0.3146 -0.3291  0.1848
96222W        W39238  17.246   3.700   9.320 -0.3422 -0.0829  0.1412
96223W        W39239   8.697   0.251   3.725 -0.1031  0.1744  0.2001
96224W        W39240  15.261  15.545  15.792 -0.0087  0.0335  0.5009
96225W        W39241  16.037  25.905  21.044 -0.1421  0.1005 -0.2759
96226W        W39242  12.811  17.766  28.524 -0.4100  0.0687  0.0937
96227W        W39243  32.646  27.418   3.380 -0.0630  0.3131  0.6696
96228W        W39244  23.925  26.372   8.758 -0.0309  0.3606  0.1825
96229W        W39245   0.023  26.550   0.957  0.0675  0.2757  0.1889
96230W        W39246  28.885  20.165   2.468  0.2593  0.0417  0.1884
96231W        W39247  19.093  11.844  21.699  0.2518 -0.2142  0.1432
96232W        W39248  10.457  28.957   2.839  0.1056  0.0586  0.0350
96233W        W39249   2.515  34.572  22.744 -0.0140  0.0372  0.3000
96234W        W39250  15.113  26.724   9.926 -0.0084  0.0989 -0.1307
96235W        W39251  21.758  30.069   6.612 -0.1177 -0.1134  0.0397
96236W        W39252   0.566  14.836  18.421  0.1254  0.1151  0.2801
96237W        W39253  19.903  29.435   1.579  0.1957  0.0687 -0.1696
96238W        W39254   6.654  12.957   9.787 -0.2486  0.0688 -0.0418
96239W        W39255  23.747  33.684   3.413 -0.1330  0.3314  0.2057
96240W        W39256   8.090   7.898   5.015 -0.2855 -0.1443 -0.0234
96241W        W39257   4.195  33.477  15.397  0.0499  0.1310  0.2170
96242W        W39258  13.886  30.098  26.667 -0.4083  0.0903  0.1444
96243W        W39259  18.130  20.891   6.595  0.0027  0.0978 -0.0993
96244W        W39260   2.810  22.684   1.560  0.0831  0.0860 -0.1931
96245W        W39261  14.962   7.873  28.265 -0.1300  0.1366  0.2597
96246W        W39262  22.937  28.140   4.213  0.1666  0.2691  0.1985
96247W        W39263  30.605  30.161  10.480 -0.0891 -0.2379  0.0715
96248W        W39264  21.511   9.076   4.984  0.0765  0.1445  0.0432
96249W        W39265   2.340  33.963   5.170  0.3680  0.0466  0.2634
96250W        W39266  10.174  27.264  28.740  0.0242 -0.2330  0.1387
96251W        W39267  10.900   1.820  17.168 -0.0385 -0.0153  0.0758
96252W        W39268   8.751   2.479  10.859 -0.0510  0.1007 -0.3230
96253W        W39269   4.985  22.419  15.005  0.1693 -0.1711 -0.2122
96254W        W39270  24.820  27.017  26.918  0.2094 -0.1378 -0.0016
96255W        W39271  11.074  15.138  22.540 -0.1732 -0.3975 -0.1359
96256W        W39272  22.174   1.323  20.982  0.3980  0.3188  0.2672
96257W        W39273  11.454  19.866  23.214  0.1568 -0.1889 -0.1384
96258W        W39274  13.432   7.853   1.183 -0.1603  0.1415 -0.1943
96259W        W39275   6.842  25.257   1.396  0.0205 -0.0427 -0.0052
96260W        W39276   5.264  33.843  16.093 -0.1287 -0.0519 -0.1557
96261W        W39277   5.542   7.069  26.916 -0.1329 -0.0086  0.0757
96262W        W39278   5.404  27.123  24.951  0.1954 -0.3073  0.0680
96263W        W39279  32.580  34.138   8.544  0.0175  0.1763 -0.3326
96264W        W39280  34.231  34.398  10.544  0.2774 -0.2161 -0.3725
96265W        W39281  23.828  16.447  25.500 -0.0482 -0.0467  0.1855
96266W        W39282  15.791  24.045   4.089  0.0975  0.2868  0.3209
96267W        W39283  17.307  31.898  23.733 -0.2485 -0.0664  0.0218
96268W        W39284  12.845   1.665  21.850  0.3693 -0.0851 -0.0467
96269W        W39285  30.129  26.790  28.186 -0.2326  0.1107  0.0718
96270W        W39286  24.327  34.188  15.768  0.1034  0.2385 -0.1692
96271W        W39287   4.847   0.796  29.255  0.3158 -0.1318 -0.0543
96272W        W39288   5.420  34.127   4.187 -0.0423  0.1779 -0.5937
96273W        W39289  14.576  18.580  27.560 -0.0023  0.0098 -0.1093
96274W        W39290  16.173  29.075   2.249 -0.0898 -0.1300  0.1004
96275W        W39291   7.687  30.632   3.441 -0.0620 -0.2878 -0.0186
96276W        W39292  31.952  24.083  22.504 -0.0775 -0.1544  0.2325
96277W        W39293   2.156  31.869  19.081  0.1694  0.2224 -0.2118
96278W        W39294   6.271  25.197  26.485 -0.0043  0.0299  0.0928
96279W        W39295  33.474  14.403  19.505 -0.1081  0.1048  0.2407
96280W        W39296  22.926  19.243  15.854  0.0335  0.4083 -0.1686
96281W        W39297  28.112   3.072   6.059 -0.0693 -0.1519  0.0275
96282W        W39298  33.095  29.050   1.881 -0.3412 -0.0614  0.0808
96283W        W39299  20.526  27.573   2.053 -0.4227 -0.0801 -0.0075
96284W        W39300  10.879   0.184  15.889  0.0101 -0.3460 -0.1802
96285W        W39301  31.044  26.653   3.601 -0.3806  0.0638 -0.0142
96286W        W39302  19.923  28.957   9.284  0.1313 -0.1007  0.0681
96287W        W39303  32.797   4.805   0.632  0.1933 -0.0219 -0.2360
96288W        W39304   3.259   4.845  28.945  0.2183  0.2700 -0.1091
96289W        W39305   5.255  30.529   9.884 -0.1549  0.1015  0.3065
96290W        W39306   6.821  23.090   1.294 -0.2910  0.0803 -0.0612
96291W        W39307  17.476  31.986  25.824 -0.4711  0.2336  0.3700
96292W        W39308  24.136   0.898  17.341  0.1030  0.0857  0.2929
96293W        W39309  10.242  31.801   6.956 -0.0291 -0.2001 -0.1607
96294W        W39310  21.600  34.177   1.354 -0.0945  0.2866  0.1555
96295W        W39311  11.288  30.705  16.128  0.1278 -0.1213  0.1064
96296W        W39312   8.901  10.800   1.723 -0.0399 -0.3665  0.2390
96297W        W39313  13.992  23.286   2.560  0.4845  0.1552 -0.0824
96298W        W39314  29.985  25.594  16.157 -0.0550  0.1181 -0.1293
96299W        W39315  10.068  22.965   7.710 -0.2049 -0.1481 -0.2296
96300W        W39316  13.525   1.607  26.298  0.0524 -0.1627 -0.0370
96301W        W39317  20.882  33.021   5.196 -0.1535  0.0683 -0.0241
96302W        W39318  11.667  23.787  20.736 -0.2488  0.1488 -0.1620
96303W        W39319  10.551   9.899   9.309 -0.1723 -0.1876  0.2374
96304W        W39320  10.959   6.947   3.545  0.0720 -0.0008 -0.0293
96305W        W39321  31.227  31.552  28.510 -0.0010  0.1293 -0.0719
96306W        W39322  17.087  17.640   3.078 -0.1809 -0.1434  0.0281
96307W        W39323  10.408   5.957  15.139 -0.0820 -0.2998  0.0681
96308W        W39324   9.624  14.608   4.934  0.2625 -0.0457 -0.1837
96309W        W39325  18.880  21.374  23.653  0.4299  0.1453  0.0437
96310W        W39326   7.748  33.026   6.695  0.3260  0.0183  0.0768
96311W        W39327   4.505  28.115  25.467 -0.1318  0.0498  0.4780
96312W        W39328  18.558  29.523  24.571  0.1306 -0.2390 -0.1013
96313W        W39329  15.324  22.346   2.115  0.1416 -0.2235  0.1117
96314W        W39330   7.844  34.174   1.714 -0.3124 -0.1071 -0.1996
96315W        W39331  29.018   1.735   8.268  0.1938 -0.2507  0.1121
96316W        W39332   8.486   7.405  17.016 -0.1178 -0.4012  0.0562
96317W        W39333  12.935  31.926   1.675  0.1277  0.0588 -0.2174
96318W        W39334   8.216  15.204  19.603  0.0042 -0.0464  0.1867
96319W        W39335   8.134  14.394   3.826  0.0144  0.3161  0.1837
96320W        W39336  17.154  29.702   3.539  0.3026  0.1454 -0.2441
96321W        W39337   6.557  20.992  15.646 -0.1348 -0.1331  0.1472
96322W        W39338  18.519  33.415   3.971  0.1343 -0.0335 -0.0672
96323W        W39339  12.761  23.581   9.363 -0.0692 -0.1489 -0.1487
96324W        W39340  17.824  25.264   7.414 -0.3750 -0.1856 -0.0124
96325W        W39341  27.759   1.008  10.589  0.1862 -0.1309 -0.0080
96326W        W39342  28.865  31.920   5.437  0.0457  0.5485 -0.3591
96327W        W39343   4.880   1.988   8.080 -0.0592 -0.1053  0.0806
96328W        W39344   6.340  27.220  26.880 -0.0154 -0.0256  0.2674
96329W        W39345  12.142  34.718  18.408 -0.1357 -0.0750  0.0327
96330W        W39346  10.652  28.401   9.901  0.2076  0.2001 -0.0318
96331W        W39347  13.960   0.480   3.851  0.0517  0.2091  0.2886
96332W        W39348   2.279  32.379   2.564  0.0012  0.3627 -0.1081
96333W        W39349  11.089  30.214  29.021 -0.0898  0.1136 -0.4606
96334W        W39350  29.772  17.275  27.754  0.1013  0.0604  0.1033
96335W        W39351  19.013  33.287   0.715  0.2827  0.1026 -0.0332
96336W        W39352  15.134   9.894   6.713 -0.0844  0.2050 -0.1707
96337W        W39353  34.347   1.950   5.639 -0.0084 -0.0080 -0.1405
96338W        W39354  20.775  24.028  19.495  0.0086  0.4251 -0.2174
96339W        W39355  18.334  18.409   0.036  0.1424 -0.1987 -0.3104
96340W        W39356  34.323  33.704   3.902 -0.3217 -0.0629  0.3438
96341W        W39357  19.105   3.692  28.190  0.3366  0.1349  0.0953
96342W        W39358  17.911  23.680   9.363  0.0986  0.2006  0.1220
96343W        W39359   7.507  34.365   0.513  0.0760 -0.0166  0.2068
96344W        W39360  33.940  33.522  24.433  0.0626  0.1155  0.1573
96345W        W39361   9.071   2.678  19.757 -0.0498 -0.2340 -0.3017
96346W        W39362   4.914   6.841   2.963 -0.4557 -0.2221  0.2783
96347W        W39363   5.026   1.517  23.437 -0.2493  0.3379  0.2040
96348W        W39364  23.489  34.680  22.112 -0.2005 -0.2672  0.0577
96349W        W39365  27.177  17.837  15.274 -0.1802  0.1780  0.1338
96350W        W39366  12.257  25.607   6.174  0.4143  0.0150  0.2621
96351W        W39367  18.787   1.532   1.079 -0.1913 -0.2035  0.1432
96352W        W39368  14.475   6.535   3.675  0.2487 -0.0979  0.2143
96353W        W39369   2.485  26.154   1.452  0.0375 -0.0119 -0.0057
96354W        W39370   2.887  24.104   5.150 -0.2439 -0.3172 -0.0827
96355W        W39371  11.380  19.497  15.707 -0.0948 -0.2893  0.0671
96356W        W39372  23.229  17.409  28.908  0.2427 -0.0607  0.0637
96357W        W39373  10.540  22.135  16.500  0.0105  0.3528 -0.0927
96358W        W39374  29.261  13.545  25.841 -0.0359 -0.0219 -0.1582
96359W        W39375   9.655  27.643   9.541  0.1327  0.1218  0.1157
96360W        W39376  14.884   6.380   2.127 -0.2897 -0.3607 -0.0314
96361W        W39377  13.717  11.911  27.217 -0.0494  0.0233  0.0097
96362W        W39378   3.281   2.709  25.944  0.3377  0.0306 -0.1366
96363W        W39379  15.476  30.802  23.287 -0.2173 -0.1154  0.1689
96364W        W39380   9.386   6.663  28.439  0.1895  0.0813 -0.1783
96365W        W39381  18.766  22.607  20.764 -0.0452 -0.0985  0.0224
96366W        W39382  11.644   2.081   9.929 -0.2337  0.1630 -0.1856
96367W        W39383  14.854  24.433  26.396 -0.2969  0.0610 -0.1446
96368W        W39384   5.537   4.038  28.140 -0.0842  0.1257  0.0529
96369W        W39385  31.279  20.553   2.153 -0.1897 -0.2747 -0.3425
96370W        W39386   1.635   4.050   1.352 -0.1729 -0.1270  0.0094
96371W        W39387  29.436   3.544   8.978  0.0851 -0.0547 -0.1101
96372W        W39388   3.317  34.769  16.199 -0.0588 -0.1064  0.0544
96373W        W39389  12.588  33.970   6.927 -0.0868 -0.0568  0.1567
96374W        W39390  23.716   0.188  24.993 -0.2614  0.1808 -0.0578
96375W        W39391  15.635   4.260   5.376  0.1108 -0.1994  0.0316
96376W        W39392  21.658   5.869  19.574 -0.0149 -0.3053  0.1128
96377W        W39393  13.301   8.371  28.625  0.1568 -0.0849  0.1056
96378W        W39394  14.018   9.846  19.081  0.2806  0.4786  0.0915
96379W        W39395  22.549  12.363  16.874  0.2067 -0.0535 -0.0227
96380W        W39396  24.953  24.379   1.065  0.0869 -0.0621 -0.4147
96381W        W39397  29.167  32.179   9.994  0.0491 -0.1279  0.0375
96382W        W39398  23.009  27.813   3.182  0.2446 -0.0610  0.0114
96383W        W39399  12.122  10.219  24.477 -0.0429  0.0802  0.0345
96384W        W39400  32.102   3.290   8.968 -0.2759 -0.2289  0.2158
96385W        W39401  21.978  30.374   8.273 -0.1402 -0.2168  0.0327
96386W        W39402  17.295  19.212  21.906  0.2613 -0.1906  0.0345
96387W        W39403  19.670  25.975  28.291 -0.0901  0.1216  0.1885
96388W        W39404  29.978  33.004   4.010  0.4125  0.0482  0.3088
96389W        W39405  25.244  34.515   3.073  0.0656  0.0696 -0.2326
96390W        W39406  10.174   4.974   6.221 -0.1047 -0.1757  0.0640
96391W        W39407   0.693  16.205  22.352  0.3166  0.2644  0.0847
96392W        W39408   8.716   1.841   4.635 -0.0514 -0.2315 -0.4099
96393W        W39409   3.562  29.410   2.095  0.3075 -0.0895  0.0669
96394W        W39410  11.503  31.471  27.662 -0.0247  0.0613  0.0161
96395W        W39411  15.432  22.407   4.118  0.0216  0.0767  0.1724
96396W        W39412   8.925   3.541   8.928 -0.0301  0.3648  0.2808
96397W        W39413  22.541   1.242   0.200  0.1562 -0.3079  0.0405
96398W        W39414  19.235  20.586  20.579  0.0257  0.2451 -0.2969
96399W        W39415   3.447   3.977   6.211 -0.2209 -0.1221 -0.0815
96400W        W39416  14.120  31.387   3.477 -0.0435  0.1635  0.4709
96401W        W39417  11.708  25.438  26.897 -0.2897 -0.1318  0.0287
96402W        W39418  22.350  18.750  23.713  0.2491 -0.0606 -0.1758
96403W        W39419   8.560  18.422   2.793  0.1481 -0.0236  0.0672
96404W        W39420   2.110  28.853  25.607  0.0818  0.0852 -0.0177
96405W        W39421   8.987   3.744  19.134 -0.1402  0.1811  0.3559
96406W        W39422  32.377  16.731   7.843  0.0896  0.2357 -0.0874
96407W        W39423   9.893   5.950  20.211  0.2403  0.2448 -0.1920
96408W        W39424  15.217   9.967  23.201 -0.5208 -0.0543  0.0700
96409W        W39425  11.317  19.635  14.323 -0.0968 -0.0179  0.1401
96410W        W39426  17.158  34.654   5.437 -0.1713 -0.2200 -0.0738
96411W        W39427  28.280  28.228  28.116  0.2522 -0.0572 -0.0071
96412W        W39428  15.568  32.034   3.312  0.0173 -0.2038  0.3668
96413W        W39429  33.490   5.672   5.903 -0.0072 -0.0770  0.1596
96414W        W39430   5.915  27.741  28.525 -0.1405  0.0470 -0.4253
96415W        W39431  22.544  12.652  26.540  0.1935 -0.2060  0.3408
96416W        W39432   3.768  17.407   5.294  0.3091 -0.1960 -0.1570
96417W        W39433  20.455  26.355  18.944 -0.0887 -0.0676 -0.3437
96418W        W39434   9.743  14.161  26.645 -0.0183 -0.1616  0.1140
96419W        W39435  24.388  26.700   0.615  0.0909 -0.0784  0.2468
96420W        W39436  17.570  23.022  25.892  0.0326  0.0810 -0.4160
96421W        W39437  13.698   9.026   5.156  0.1037  0.2325  0.3252
96422W        W39438   7.422  31.384   7.774 -0.2644  0.0160 -0.1547
96423W        W39439  11.348   2.687   5.380 -0.3746  0.0183 -0.0721
96424W        W39440  14.245  34.295   7.996  0.3121 -0.3834  0.2551
96425W        W39441  15.432  33.821  10.496 -0.0176  0.0668  0.0986
96426W        W39442  10.038   1.817  19.673 -0.2592  0.3105 -0.0546
96427W        W39443  17.967   5.999   0.600  0.0445 -0.0993  0.1616
96428W        W39444  15.193  21.574   5.330 -0.3271 -0.0405 -0.2604
96429W        W39445  21.165  21.702  15.345  0.0488  0.1758  0.0466
96430W        W39446  13.719  24.331  25.342 -0.2420  0.1120 -0.2873
96431W        W39447  21.619  14.400   0.549  0.1067  0.1726 -0.2143
96432W        W39448   8.615  24.544   5.756  0.1347 -0.3408 -0.0284
96433W        W39449  20.625  34.415  21.880 -0.1418 -0.2151 -0.5065
96434W        W39450  20.451  34.467   4.110 -0.3556 -0.2885 -0.0819
96435W        W39451  10.823  27.767  22.406 -0.3491 -0.0197 -0.0384
96436W        W39452  18.767  19.205  25.041 -0.1507 -0.1656 -0.0942
96437W        W39453  15.992   9.311   6.582  0.0437  0.0077 -0.0733
96438W        W39454  33.995  26.020  18.308 -0.1575 -0.2254  0.0996
96439W        W39455  11.399  27.762  15.952 -0.1087  0.0485  0.0861
96440W        W39456  16.143   6.233  15.688  0.0074 -0.1264 -0.2384
96441W        W39457   3.267  18.874   2.068 -0.1448 -0.2338  0.0616
96442W        W39458  30.217  30.984   5.060  0.2441 -0.0335  0.1545
96443W        W39459   4.888   5.494   1.379  0.1127  0.0670  0.3517
96444W        W39460  18.360   0.720   2.421 -0.1098 -0.1221  0.0998
96445W        W39461   7.600  11.358  14.365 -0.0202 -0.2178 -0.1247
96446W        W39462   3.893  28.108  23.852 -0.3882  0.0848 -0.0019
96447W        W39463  28.857   2.740  24.433  0.0871  0.1605 -0.2177
96448W        W39464  13.124  23.757  28.780  0.0459 -0.2490  0.4652
96449W        W39465  13.435  20.873   3.807 -0.3111 -0.1389 -0.0977
96450W        W39466   2.193  22.999  10.414 -0.0785  0.0240  0.3694
96451W        W39467  22.178  26.690  22.546  0.1026  0.4484  0.3322
96452W        W39468  17.143  18.414  19.666 -0.0210 -0.1902 -0.1146
96453W        W39469  26.875  17.680  25.228  0.2475  0.2902 -0.3352
96454W        W39470  18.580  29.208  20.572  0.2535 -0.2943 -0.0430
96455W        W39471   9.743  32.254   1.842  0.2535 -0.4045  0.1369
96456W        W39472  17.158   7.853   8.574  0.0863 -0.1412 -0.0757
96457W        W39473  17.074   4.220   5.862 -0.2872  0.1634 -0.2739
96458W        W39474  20.264   0.148  10.691 -0.1140  0.0866 -0.0141
96459W        W39475   2.480   1.011   8.219 -0.1041 -0.0127 -0.1291
96460W        W39476  23.343  26.873   4.506 -0.1029  0.4721  0.2722
96461W        W39477  11.830  12.188   8.279  0.0650 -0.0311  0.1005
96462W        W39478  21.637  23.544   0.993 -0.0119  0.0159 -0.2671
96463W        W39479  24.260  29.064   4.736  0.1195 -0.1050  0.0647
96464W        W39480  17.644  13.775  28.558  0.1417  0.0125 -0.1617
96465W        W39481  18.393  23.532   7.998 -0.2054 -0.2732 -0.1724
96466W        W39482   3.178   6.760  28.889 -0.0371 -0.1063  0.0340
96467W        W39483  25.557   7.803  19.731 -0.2766 -0.1475  0.1653
96468W        W39484  18.710  12.206  26.173 -0.2508  0.0201 -0.1828
96469W        W39485  11.498  21.631   0.539 -0.1360 -0.3063  0.1156
96470W        W39486   8.776  31.115  23.891 -0.0159  0.1525  0.1174
96471W        W39487  15.294  10.982   5.839  0.0874 -0.1471  0.0258
96472W        W39488   4.053   2.818   4.724 -0.0777 -0.0936 -0.4491
96473W        W39489   4.566  16.034  25.310 -0.1183 -0.0150  0.4918
96474W        W39490  21.112  31.090   9.779 -0.0693 -0.2937 -0.3034
96475W        W39491  18.241  29.436  23.025  0.1326  0.1539 -0.5639
96476W        W39492   2.758  22.674   4.286  0.2182 -0.1485  0.0710
96477W        W39493  16.962  27.057  24.651 -0.1669 -0.0874  0.0234
96478W        W39494  25.639   1.036  24.633  0.2696  0.1191 -0.1626
96479W        W39495  11.696   1.667  27.758  0.0331 -0.1306  0.3996
96480W        W39496  22.344   2.302   2.801  0.0722  0.3979 -0.1661
96481W        W39497  19.829  16.867  13.574  0.0741  0.1820  0.2628
96482W        W39498   3.963   9.125   0.217 -0.2238  0.1642  0.1373
96483W        W39499  29.604  25.849   8.611  0.3326  0.0176  0.1291
96484W        W39500  12.770   0.176  29.069 -0.1681  0.0939  0.0555
96485W        W39501  23.931  27.596  24.086 -0.0399 -0.1743 -0.0601
96486W        W39502  32.792  33.813   7.223 -0.2443  0.1086 -0.0565
96487W        W39503  25.192   8.753  26.082 -0.5078  0.2028 -0.1472
96488W        W39504  27.750   5.049   3.846 -0.1987  0.0909  0.0101
96489W        W39505  19.314  28.640  28.745 -0.3515 -0.2919  0.0433
96490W        W39506   8.940   2.667   0.880 -0.1346 -0.2847 -0.0373
96491W        W39507  15.057  28.551  24.508 -0.0564 -0.2239  0.0619
96492W        W39508  27.337  33.736  29.037  0.1839  0.0906  0.2256
96493W        W39509   1.325  31.903  27.859  0.3089  0.0395 -0.1691
96494W        W39510  17.932   9.181  24.508 -0.2886 -0.0879 -0.0375
96495W        W39511  28.345   6.739   7.462  0.1011  0.2654  0.0542
96496W        W39512  15.743  31.054   7.800  0.4316  0.1419  0.0567
96497W        W39513  12.700  32.440  22.418  0.3634 -0.1711 -0.1972
96498W        W39514  15.813   3.882   4.065  0.1881 -0.2340 -0.0022
96499W        W39515  29.300   5.346  10.057  0.0757  0.3209 -0.3803
96500W        W39516  24.919  20.638   2.627 -0.2433 -0.0170  0.3267
96501W        W39517  16.818  22.951   2.825 -0.1855  0.7063 -0.2529
96502W        W39518  30.578   2.614  25.568 -0.0071 -0.0614 -0.0334
96503W        W39519   5.560  29.971   5.936  0.1796  0.1698 -0.1077
96504W        W39520  12.991   3.586   0.248 -0.0640 -0.0880  0.0446
96505W        W39521  11.251  21.390   1.711 -0.3138  0.3289 -0.1306
96506W        W39522  21.812  13.528  25.087 -0.2044  0.0349  0.0092
96507W        W39523  15.557  19.743   4.583  0.0742 -0.0102 -0.0154
96508W        W39524   4.924   5.871   7.666 -0.0413  0.0772  0.1152
96509W        W39525  11.097  13.482  20.237  0.2893  0.1659 -0.0980
96510W        W39526   6.093  23.700   6.167  0.1741 -0.0023  0.2512
96511W        W39527   7.165   6.670   0.122 -0.0283 -0.1885  0.1569
96512W        W39528  15.270  29.299   2.802 -0.0699 -0.0091  0.0585
96513W        W39529  13.820  14.118   2.339 -0.0375  0.0383  0.1148
96514W        W39530  10.522   3.664   8.306  0.2786 -0.0076  0.0501
96515W        W39531  10.016  23.340  26.400  0.4187 -0.3437  0.1308
96516W        W39532   7.055  28.283   7.210 -0.1047 -0.3222  0.0787
96517W        W39533  11.065  28.515  24.795 -0.0982  0.2254 -0.0629
96518W        W39534   9.542   4.220  22.693 -0.2227 -0.2473  0.2740
96519W        W39535  10.613  18.623   7.690  0.0455  0.0284  0.0895
96520W        W39536  20.367  31.793  15.427  0.1608  0.0441 -0.1922
96521W        W39537  23.685  12.266   2.543  0.1452 -0.2024  0.0232
96522W        W39538  13.455  20.217  23.543  0.0652 -0.0055  0.3835
96523W        W39539  10.056  26.198   7.869 -0.0929 -0.0789 -0.0551
96524W        W39540  15.674  22.757  13.972 -0.0730 -0.0876 -0.0490
96525W        W39541   2.955  30.640   7.119 -0.1217 -0.3233 -0.1570
96526W        W39542   7.945   4.009   5.633 -0.1328 -0.0831  0.1808
96527W        W39543  27.989  26.822   9.993 -0.1045  0.0538  0.0061
96528W        W39544  30.895  11.447   7.388 -0.0335 -0.0121 -0.2590
96529W        W39545  14.117  13.733  18.527  0.1680 -0.3868  0.2561
96530W        W39546  13.091   7.439   1.486  0.3757 -0.0482 -0.2537
96531W        W39547  30.206   6.197  10.509  0.1988 -0.1556 -0.0364
96532W        W39548   7.757  30.800  21.541 -0.0176  0.0119 -0.1539
96533W        W39549   5.617  32.806  25.811 -0.2069 -0.0130  0.0221
96534W        W39550  14.720  33.038  24.852 -0.3214 -0.0086  0.1204
96535W        W39551  29.262  17.521  26.450  0.2090  0.1974  0.1293
96536W        W39552  14.021  24.527   9.519  0.0807  0.3773 -0.0473
96537W        W39553  13.191  34.393   5.375 -0.3250  0.0029 -0.0591
96538W        W39554  15.332  16.286  26.024 -0.3744  0.0069 -0.4763
96539W        W39555  29.217  12.273   7.251 -0.4228  0.1113  0.0918
96540W        W39556   6.505  32.960  24.489  0.0694 -0.2625 -0.2067
96541W        W39557  24.889   7.815   2.511  0.1460  0.0025 -0.2568
96542W        W39558  11.359   9.453  13.887 -0.4487  0.0233 -0.3938
96543W        W39559  26.589  29.997   6.578 -0.1840 -0.2887 -0.1973
96544W        W39560   7.960  32.082  23.644  0.0785 -0.2505 -0.5545
96545W        W39561   4.230   9.696   8.376  0.0872  0.0062  0.3174
96546W        W39562  18.092  21.992  18.432 -0.1866  0.0483 -0.0666
96547W        W39563  34.398  23.344  24.221  0.0990 -0.3170 -0.0764
96548W        W39564  23.755   2.031   7.408 -0.0480 -0.0755  0.0260
96549W        W39565  14.471  30.337  24.076  0.1006 -0.2525 -0.1245
96550W        W39566   1.788  17.545  28.881 -0.2615 -0.1978  0.1107
96551W        W39567  33.107   4.268  26.326  0.0046  0.0774  0.1143
96552W        W39568  16.065  31.257   6.430 -0.0815 -0.2049  0.1272
96553W        W39569  26.230  33.048   0.139  0.1435 -0.1568  0.0765
96554W        W39570  13.463   6.282  27.397 -0.2212 -0.1329  0.1578
96555W        W39571  11.812   3.112   8.514  0.1171  0.0472  0.0599
96556W        W39572  18.985  31.787  17.430 -0.1581  0.0293  0.0336
96557W        W39573   6.235   3.318  10.210  0.1404  0.1342 -0.0233
96558W        W39574  18.295   0.940   8.726  0.0180 -0.3381 -0.0673
96559W        W39575  11.637  26.558  26.138  0.2680 -0.2398 -0.1140
96560W        W39576  10.599  21.475   2.204 -0.0514  0.1695 -0.1981
96561W        W39577  21.517   2.738   1.238  0.1369 -0.0347 -0.0249
96562W        W39578  27.174  25.460  27.143 -0.0123 -0.0412 -0.0955
96563W        W39579   8.762  11.216  22.361  0.1321  0.2351  0.0801
96564W        W39580  14.147  18.103   4.583 -0.3925  0.1112  0.1300
96565W        W39581  12.916  24.126  28.382  0.1597 -0.2756  0.3437
96566W        W39582  26.772   1.823   6.088  0.1023  0.0614  0.1874
96567W        W39583  23.568  31.977  15.892  0.0660 -0.4966  0.2484
96568W        W39584  28.231  24.727   7.016  0.1826 -0.2358  0.1349
96569W        W39585  10.218  20.683   8.114 -0.2655  0.3508 -0.0961
96570W        W39586  27.298   4.020   0.116  0.3541  0.2476  0.0690
96571W        W39587   7.833  26.270  27.425 -0.1007  0.1111  0.2933
96572W        W39588  19.463   8.874   8.788  0.0477 -0.0317 -0.0782
96573W        W39589  34.747  21.220   3.209 -0.0749  0.3212 -0.3203
96574W        W39590   4.729   4.742  20.120 -0.2601  0.0053  0.0102
96575W        W39591  14.983  21.210  21.761 -0.3196 -0.1330  0.0378
96576W        W39592  22.360  28.310  23.190 -0.0731 -0.2237  0.1106
96577W        W39593  23.419   0.440   1.988 -0.3320  0.0324  0.1679
96578W        W39594  14.008   3.807   2.609  0.2137 -0.2467  0.0790
96579W        W39595  26.272  27.587   6.373  0.1391 -0.0903 -0.1399
96580W        W39596  16.470  26.692   8.753  0.2595 -0.1371 -0.2329
96581W        W39597   4.190  26.775   5.511  0.0427  0.1798  0.0471
96582W        W39598  25.450  27.682  11.001  0.0377  0.0339 -0.0185
96583W        W39599  13.230  33.442   7.351  0.0708 -0.2252 -0.4731
96584W        W39600   3.880   1.877   5.841 -0.1785 -0.0634 -0.0820
96585W        W39601  11.991  31.228   2.799  0.0551  0.1263 -0.0440
96586W        W39602   2.313  34.422  21.464 -0.1173 -0.2732 -0.1231
96587W        W39603  24.182  33.377   0.372  0.1933  0.0785 -0.0318
96588W        W39604  32.363  27.274  23.158  0.1171  0.0861  0.1756
96589W        W39605  18.472  31.513  27.322  0.0055 -0.0652 -0.2767
96590W        W39606  18.675  29.285   4.130  0.0960 -0.0808 -0.1028
96591W        W39607  10.370  26.426   5.733  0.0897 -0.2902 -0.2279
96592W        W39608   8.423   1.920  10.304  0.1762 -0.5385 -0.0719
96593W        W39609  26.277  21.961  26.005 -0.1017  0.0729 -0.0092
96594W        W39610  33.743   0.189   3.522  0.2407  0.0666  0.1824
96595W        W39611   8.898  12.014   6.078  0.1950 -0.1088  0.0396
96596W        W39612  18.225  28.169   6.961 -0.2099  0.3156 -0.0904
96597W        W39613  32.374  24.354   5.760 -0.1080 -0.1583 -0.2352
96598W        W39614  31.378  30.315   6.991 -0.0550  0.1604 -0.2185
96599W        W39615   8.496  30.144   8.351  0.0066  0.1981 -0.1124
96600W        W39616  11.116   0.343  20.783 -0.2025  0.1383  0.0196
96601W        W39617  34.614   1.806   8.265  0.0510  0.2239 -0.0932
96602W        W39618  16.723  24.712  26.595  0.0147  0.0787  0.0500
96603W        W39619  24.135  24.224  24.296  0.1849 -0.1535 -0.0454
96604W        W39620   6.438  32.627  28.364 -0.1817 -0.0953 -0.0740
96605W        W39621  12.937  20.588   8.502  0.0969  0.1419 -0.0429
96606W        W39622  30.692  29.591   9.981  0.4242 -0.0834  0.1822
96607W        W39623   2.923   5.123   2.260 -0.0201  0.0126  0.2272
96608W        W39624  12.564  22.580  27.472  0.3905  0.1177  0.2201
96609W        W39625   7.824  27.536  16.538 -0.4895 -0.1839 -0.0264
96610W        W39626   9.194  14.475   0.309  0.1417 -0.1404  0.1578
96611W        W39627  10.485  32.925   1.645 -0.0722  0.1604  0.0366
96612W        W39628   2.666  31.334   8.268 -0.0826  0.0755  0.3270
96613W        W39629  21.757  20.704   0.980 -0.1607 -0.0211  0.0742
96614W        W39630   2.423  33.390   6.007 -0.0955 -0.1036  0.1947
96615W        W39631  20.154  23.243   5.972 -0.0535 -0.0673 -0.0007
96616W        W39632  13.613  14.094   6.030 -0.2018  0.0094 -0.2589
96617W        W39633  14.537   0.244   1.040 -0.0242  0.2990  0.1030
96618W        W39634  13.180   9.104  17.927 -0.3970 -0.0951  0.0523
96619W        W39635  16.628   0.195  22.973 -0.1335 -0.1261 -0.3020
96620W        W39636   4.767  20.859   1.714  0.0602 -0.1655  0.1185
96621W        W39637  16.243   4.544   8.974 -0.0432 -0.2537 -0.1408
96622W        W39638  11.956  21.233   8.558 -0.3859 -0.1465 -0.0291
96623W        W39639  16.778  16.210  21.606 -0.0354 -0.2793  0.0204
96624W        W39640  21.786  25.303  25.851  0.2749 -0.2224 -0.0842
96625W        W39641  22.596  11.033  25.534  0.0366 -0.1357  0.0278
96626W        W39642  28.286  29.697  10.662  0.2798 -0.0714 -0.1711
96627W        W39643   7.527  34.340  27.965 -0.1272  0.0078 -0.1731
96628W        W39644  22.427   9.941   4.078 -0.0120  0.3248 -0.1862
96629W        W39645  30.790   7.142  28.064  0.0258 -0.0536 -0.0397
96630W        W39646  10.871   8.794  27.556 -0.1443 -0.1366  0.0260
96631W        W39647  30.871  22.212  25.034  0.2025 -0.1176 -0.3723
96632W        W39648   7.908  25.071   4.873 -0.0504 -0.5464  0.0432
96633W        W39649  29.616  30.293   9.844  0.0364 -0.3796 -0.2050
96634W        W39650  13.396  28.412  21.277 -0.1693  0.2363  0.0805
96635W        W39651  21.437  33.854   8.914 -0.2225  0.0124 -0.3118
96636W        W39652   1.956   9.124   8.620  0.0311 -0.0856  0.0815
96637W        W39653  18.916   2.405  28.214  0.0023  0.0701 -0.1585
96638W        W39654  14.898   0.056   8.972 -0.3479  0.2771 -0.2115
96639W        W39655  22.024  25.264   7.263  0.5758 -0.2051  0.2059
96640W        W39656  14.450  23.301   7.405 -0.2954 -0.0945  0.0562
96641W        W39657  19.726  32.627   6.706  0.3720 -0.0905  0.1350
96642W        W39658  26.889  13.957   0.732 -0.1717 -0.0964 -0.1626
96643W        W39659   5.198  34.361   1.127  0.1037 -0.0540 -0.0444
96644W        W39660   5.756  27.263  28.666  0.1440  0.1277  0.1028
96645W        W39661   7.959  12.636   8.381 -0.1262 -0.0876  0.4353
96646W        W39662   0.419   2.857  26.628  0.1129 -0.2661 -0.0915
96647W        W39663  34.119  18.610  11.197  0.2551 -0.0336  0.1494
96648W        W39664   2.421  21.928   8.665  0.0000  0.1014 -0.2473
96649W        W39665   4.957  13.995   5.676  0.1297 -0.0018  0.1828
96650W        W39666  20.453   8.937  27.162 -0.2205  0.3886 -0.1755
96651W        W39667  13.900  29.892  15.361 -0.1689  0.2745 -0.2842
96652W        W39668   6.871  26.795   8.046 -0.3768 -0.0792 -0.1164
96653W        W39669  32.974  28.413  22.919  0.0781 -0.0941 -0.3414
96654W        W39670  34.468  24.542   2.209 -0.3821  0.0411 -0.1632
96655W        W39671  27.825  27.200   9.605 -0.0502 -0.0116  0.1130
96656W        W39672  14.747  34.297  28.669  0.0228  0.1609  0.1751
96657W        W39673   5.569  26.760   7.840  0.0638 -0.1419 -0.1844
96658W        W39674  11.994  14.677   2.716  0.2088  0.3184  0.0933
96659W        W39675  12.523  12.444  17.942 -0.0073  0.1897  0.0539
96660W        W39676  34.751  31.699  22.813  0.2690 -0.3404 -0.1656
96661W        W39677   9.182  19.030  28.983  0.0486  0.0565  0.1455
96662W        W39678  14.734  28.740  15.823 -0.1156 -0.0475  0.2671
96663W        W39679  23.688  16.106   6.750  0.0062  0.1365  0.1635
96664W        W39680  33.046  33.764   9.666  0.1197  0.1796  0.0334
96665W        W39681   8.241  26.068   9.096 -0.3415  0.2402 -0.0845
96666W        W39682  21.628  25.961  26.031  0.3240  0.2207 -0.1651
96667W        W39683   9.858  21.517   6.849 -0.1569  0.0156  0.1852
96668W        W39684  31.263  27.227   6.754  0.2637 -0.1705  0.1404
96669W        W39685  10.272  27.295   2.499  0.2902  0.0095  0.0904
96670W        W39686  26.598   9.527   6.564 -0.2175  0.1238  0.0555
96671W        W39687  17.749   4.115  26.519 -0.2331  0.2245 -0.0353
96672W        W39688   9.742  27.156   3.300 -0.0251  0.2669  0.1566
96673W        W39689   1.153  27.358  26.065 -0.0126 -0.0497 -0.2025
96674W        W39690  20.309  29.591  10.352  0.3548  0.1069  0.0830
96675W        W39691  30.529  32.174   1.439 -0.0100 -0.0192 -0.0070
96676W        W39692  31.198   3.913   1.872  0.0816 -0.0383 -0.2309
96677W        W39693  18.211  12.014   6.219  0.1900 -0.0045  0.4266
96678W        W39694  20.809  30.772  10.143  0.0958  0.1745  0.1307
96679W        W39695  12.830  16.180   4.311  0.4025 -0.1968 -0.0020
96680W        W39696  17.095   7.759   7.193 -0.1337  0.2509  0.0629
96681W        W39697  20.758   4.659   3.563  0.1334  0.1655 -0.0732
96682W        W39698  30.362  19.075   5.222  0.0185  0.3045  0.1506
96683W        W39699  11.248   7.060   8.726 -0.0384 -0.1638 -0.2083
96684W        W39700  27.910   0.630  10.999 -0.2109  0.0539 -0.4058
96685W        W39701  18.445   5.212   7.473 -0.3119 -0.2416 -0.0294
96686W        W39702  16.112  23.004  14.436  0.0213 -0.1799 -0.0977
96687W        W39703  22.150  29.927   3.162 -0.2300  0.1353 -0.2518
96688W        W39704  32.817  12.306  25.895  0.0337 -0.5400  0.0008
96689W        W39705  15.099  23.508  14.561 -0.0637 -0.2371 -0.0564
96690W        W39706  31.501   1.014   5.343  0.0483  0.0977  0.2991
96691W        W39707   8.750  33.395   2.848  0.0640 -0.0904  0.2146
96692W        W39708   3.755  23.986  25.819 -0.1588 -0.1594 -0.1664
96693W        W39709   7.080  26.365   1.980  0.2314 -0.3468 -0.0680
96694W        W39710  21.205  28.181   1.179  0.0632  0.0182  0.3326
96695W        W39711   9.650   7.053  23.180  0.2332 -0.2189 -0.1546
96696W        W39712  17.052  29.229   3.924 -0.2260  0.2051 -0.0233
96697W        W39713  27.309   2.486   6.711  0.2076  0.0203 -0.3418
96698W        W39714  21.366  13.342   7.811 -0.0475 -0.1090  0.0022
96699W        W39715  19.273  15.679   4.897  0.3476  0.0734 -0.0314
96700W        W39716  18.095  33.512   4.446 -0.3827  0.2681 -0.1196
96701W        W39717  13.138  22.317   6.550  0.0077  0.0065 -0.0825
96702W        W39718  13.385  32.768   5.118  0.1101  0.1167 -0.0157
96703W        W39719   8.491  19.225  22.447 -0.0517  0.2451  0.0821
96704W        W39720  16.055  23.154   5.605 -0.3910  0.2017  0.0540
96705W        W39721  13.001   7.289  26.573 -0.0484  0.0714  0.0190
96706W        W39722   4.763  25.071   5.692  0.3110  0.1648 -0.0977
96707W        W39723  20.367  20.826   4.035  0.1124  0.0704  0.1060
96708W        W39724  15.142   4.403   7.806  0.0035  0.2857 -0.2020
96709W        W39725  28.504  21.654   4.465  0.2420  0.0366 -0.2376
96710W        W39726  15.267  19.376  25.319 -0.0189  0.2692  0.3516
96711W        W39727   6.793  34.516  28.904  0.2580 -0.0659 -0.1580
96712W        W39728  11.293  31.393   9.272 -0.0040  0.0598 -0.0286
96713W        W39729   1.135   4.099   2.949  0.2416 -0.0373  0.1463
96714W        W39730  25.009  26.777   9.897 -0.1216 -0.1074  0.1703
96715W        W39731  23.633  23.512  27.865 -0.0711 -0.0455  0.0332
96716W        W39732   5.221  34.112   5.067 -0.1581  0.0720 -0.2595
96717W        W39733   1.163   3.555  10.259 -0.0501 -0.0595 -0.0233
96718W        W39734  17.270   4.934  28.629  0.1982  0.1957  0.0327
96719W        W39735  19.393  19.728  23.617  0.0340 -0.3534  0.1390
96720W        W39736  16.282  31.181  10.713  0.1683 -0.2101  0.0009
96721W        W39737   9.358  23.197   8.431  0.3763  0.3371  0.1862
96722W        W39738  25.332   9.401   6.514  0.0099 -0.3507  0.0282
96723W        W39739   7.024  32.061   3.575  0.2111 -0.1940 -0.0184
96724W        W39740  21.022   0.282   9.132 -0.1138  0.2209 -0.0433
96725W        W39741  14.290  24.098   0.312  0.0459  0.0552 -0.1723
96726W        W39742   3.253   1.797   8.144 -0.0510  0.1243  0.0375
96727W        W39743  10.447  29.089   0.176  0.1131  0.1275  0.1128
96728W        W39744   9.407  32.692   6.290  0.0082 -0.4364  0.3577
96729W        W39745   0.504   2.957  24.359 -0.1134 -0.0456  0.2996
96730W        W39746  10.236  34.076  23.049  0.1877  0.2277  0.1091
96731W        W39747  17.880  33.531   9.397 -0.2000  0.1879  0.0534
96732W        W39748  11.762   2.476   2.423  0.2587  0.0443  0.1868
96733W        W39749   9.362  29.487   4.097 -0.1550 -0.2271  0.0213
96734W        W39750  12.259  21.586  28.411 -0.1546  0.0543 -0.0698
96735W        W39751  13.274  33.123  28.767  0.4308 -0.3340 -0.2795
96736W        W39752  29.193   1.688  15.768  0.0626 -0.2271  0.1089
96737W        W39753  18.370  21.570  23.627  0.0531 -0.0229  0.1250
96738W        W39754   2.289  11.076   6.413  0.0472 -0.2199 -0.1629
96739W        W39755  15.341  18.575  21.361 -0.3590 -0.0072  0.1183
96740W        W39756   3.682  33.063   4.687 -0.1490 -0.1123  0.0171
96741W        W39757   8.798   9.594   5.572  0.0174 -0.3348 -0.2514
96742W        W39758  26.317   6.147  10.112  0.2761  0.4073  0.1751
96743W        W39759  18.008  25.269  18.705 -0.2003 -0.2141 -0.1580
96744W        W39760  13.741  32.029   7.139  0.0783  0.1531 -0.3859
96745W        W39761  11.370   2.336  28.851  0.3858  0.0495 -0.1962
96746W        W39762  18.276   6.858   4.795  0.1261 -0.2308 -0.3545
96747W        W39763   8.168   0.579  25.941  0.1242  0.2737 -0.0726
96748W        W39764   3.221   1.190   5.345  0.1916  0.3190 -0.0163
96749W        W39765  12.867  24.981  28.117 -0.1773 -0.2530  0.0402
96750W        W39766  14.276   5.204  25.533  0.1740  0.0556 -0.0387
96751W        W39767  14.903  29.672   7.124 -0.2226 -0.1676 -0.1381
96752W        W39768  18.177  19.518  23.589  0.3140 -0.0776 -0.1023
96753W        W39769  15.282  20.700   7.131  0.2489  0.0007  0.0182
96754W        W39770  14.736  22.570  25.300 -0.0295 -0.2494 -0.1716
96755W        W39771  20.635  14.954   6.608  0.5465 -0.0084  0.1658
96756W        W39772  20.900  23.859  26.007  0.1149 -0.0688  0.1467
96757W        W39773  11.732  33.317   4.793 -0.0357 -0.0750  0.1915
96758W        W39774   2.154   0.744   9.357  0.2684  0.0101 -0.0148
96759W        W39775   1.927   2.567  20.389  0.0764 -0.2328 -0.1024
96760W        W39776  10.110   8.777   3.860 -0.2061 -0.2123  0.1650
96761W        W39777   8.140  20.836   5.353  0.2162  0.3629 -0.0124
96762W        W39778  14.212   0.780  24.176 -0.4735 -0.1824  0.0200
96763W        W39779   3.117  24.233  26.363 -0.1443  0.0640 -0.0171
96764W        W39780  13.087  14.620  16.575  0.1451 -0.0202 -0.0253
96765W        W39781   9.152  22.660   4.511  0.0622 -0.4043  0.1352
96766W        W39782  31.554  27.332  10.611 -0.0856 -0.0347  0.0005
96767W        W39783  10.398   4.784   4.081 -0.0361 -0.0278 -0.2362
96768W        W39784  13.998  30.661  22.400 -0.0146  0.0513 -0.2703
96769W        W39785   9.475   2.916   8.246  0.0163  0.2586  0.1166
96770W        W39786  21.736   7.917  21.630  0.2276  0.0774 -0.1121
96771W        W39787  13.678  25.071  19.692  0.1278  0.1945 -0.1921
96772W        W39788   2.437  34.459  27.318 -0.1379 -0.0909  0.1029
96773W        W39789  14.944  22.393  26.859 -0.0346  0.1824  0.1255
96774W        W39790  18.776  20.690  20.297  0.3109 -0.2853  0.1289
96775W        W39791  31.912  30.873   3.956 -0.1428 -0.0598 -0.1187
96776W        W39792  18.840  18.526   0.167  0.1101  0.0433 -0.2084
96777W        W39793  16.274  34.032   4.380  0.0305 -0.0733 -0.2067
96778W        W39794   7.601  21.150   8.900  0.0451 -0.0770 -0.1816
96779W        W39795  15.352   0.884  14.815  0.0257  0.0903 -0.2664
96780W        W39796  12.096  25.984   6.516 -0.0876 -0.0226 -0.0501
96781W        W39797  10.596   1.088  18.401 -0.0796 -0.0154 -0.3505
96782W        W39798  10.639  15.328  27.487 -0.2099 -0.1268 -0.1737
96783W        W39799   6.709   8.174   1.084  0.0869 -0.1051  0.1822
96784W        W39800  23.383  12.575  25.428 -0.0108  0.0471  0.0377
96785W        W39801  12.940  18.484  26.325  0.2586  0.4400 -0.0918
96786W        W39802   1.986  11.675   5.139  0.4487  0.1246  0.0868
96787W        W39803  18.163   1.572   2.252  0.2025 -0.1437 -0.1990
96788W        W39804  23.183   2.266  10.653  0.0945  0.2150  0.0025
96789W        W39805  17.171  26.978  28.045 -0.0746  0.1780  0.0900
96790W        W39806  20.732  16.414   0.706  0.2232  0.2785  0.0482
96791W        W39807  12.705  28.095   9.457  0.0853  0.2277  0.0255
96792W        W39808  11.396  34.349   3.768  0.1448  0.4111 -0.1107
96793W        W39809  10.111   2.510   1.790 -0.0178 -0.1828 -0.0200
96794W        W39810  26.656  22.076   6.353 -0.1285 -0.2684 -0.0493
96795W        W39811  10.857   9.584   1.957 -0.1106  0.0810  0.0367
96796W        W39812  16.089  24.531  15.763  0.2442  0.1788  0.1284
96797W        W39813  20.912  24.415   2.592 -0.2652 -0.0250 -0.1656
96798W        W39814   8.234   3.924  27.891 -0.3123  0.1295  0.0101
96799W        W39815  24.428   0.245   8.119 -0.1297  0.0287 -0.2083
96800W        W39816   7.949  26.461   2.540 -0.0357 -0.0249  0.1747
96801W        W39817  19.641  34.235  26.257  0.1330  0.2580 -0.0675
96802W        W39818   5.167  24.039   5.473  0.2340 -0.1633  0.1514
96803W        W39819  15.932   7.857  27.202  0.1146 -0.1755  0.1607
96804W        W39820  29.632  18.847  24.188 -0.0120  0.0624 -0.1044
96805W        W39821  15.071  11.730  18.779 -0.0166 -0.0706 -0.0555
96806W        W39822  34.337  31.577   6.935 -0.1743 -0.2898  0.3500
96807W        W39823  16.969   2.723   4.349  0.0751  0.1107 -0.1638
96808W        W39824   7.731   9.342  15.001 -0.0862  0.1274 -0.5652
96809W        W39825  14.368  24.253   5.960 -0.0253 -0.0594  0.1073
96810W        W39826  32.075   5.457   3.077 -0.0936  0.0890 -0.0661
96811W        W39827  12.905  24.771   2.986 -0.2255 -0.0482 -0.0159
96812W        W39828  16.543  33.267   9.762  0.2419 -0.0265 -0.0081
96813W        W39829   9.851  24.476  22.387  0.2558 -0.0314 -0.1233
96814W        W39830   2.418  26.372   6.403 -0.1372 -0.2070  0.3251
96815W        W39831  29.462  33.921  12.057  0.0054 -0.1987  0.1550
96816W        W39832  11.209  26.648  28.073  0.2051 -0.0659 -0.0379
96817W        W39833   7.123  11.235   2.215  0.1097 -0.1208 -0.0317
96818W        W39834   9.191   9.839   7.470 -0.2139  0.0388  0.1741
96819W        W39835  17.566  14.761  13.558 -0.0494  0.2585  0.0341
96820W        W39836   7.147   3.937   4.683  0.1749 -0.2461  0.1867
96821W        W39837  11.440   7.855   4.799 -0.3366  0.0377 -0.1434
96822W        W39838  14.696   9.165   4.750 -0.0193  0.3339  0.1668
96823W        W39839   2.096  26.679   6.097 -0.0553  0.1864  0.1081
96824W        W39840  31.042  34.765   7.271 -0.1487 -0.2680  0.0334
96825W        W39841  17.738  15.500  26.336  0.0821  0.0169  0.1488
96826W        W39842  12.291  17.537  21.566 -0.3741 -0.0347  0.0901
96827W        W39843  27.611  26.724  11.106  0.0307 -0.0404  0.1458
96828W        W39844   1.400   5.392  24.309 -0.0024  0.1092 -0.0419
96829W        W39845  13.759  34.072  25.532  0.0470  0.3334  0.1154
96830W        W39846  31.368  30.026  27.320  0.1453 -0.0077 -0.2247
96831W        W39847  20.528   4.516  26.158  0.0031 -0.1759  0.0045
96832W        W39848  13.239  32.549  27.799  0.1629  0.0825 -0.0325
96833W        W39849   2.557  32.915   6.751  0.0929  0.2547 -0.2794
96834W        W39850  13.142  25.602  29.194 -0.2458  0.0208  0.0969
96835W        W39851   6.725   7.062   8.309  0.0188 -0.1158 -0.0678
96836W        W39852  17.785  32.471  10.162  0.0395  0.0290 -0.0395
96837W        W39853  17.871  31.068   9.033  0.2485  0.0036  0.1333
96838W        W39854   0.354  23.895   1.314  0.1178  0.1073  0.3755
96839W        W39855   0.049  19.150  21.950 -0.1917 -0.0312 -0.1310
96840W        W39856  11.608  10.228   2.245  0.1608  0.0867 -0.2474
96841W        W39857   6.694  17.405   0.605  0.2059 -0.1963  0.5925
96842W        W39858  22.818  17.125   5.231  0.1664  0.1153 -0.4223
96843W        W39859  16.439   3.539   0.892 -0.1718  0.0951 -0.1367
96844W        W39860  31.318   4.608   0.240 -0.0454  0.1709 -0.2481
96845W        W39861  14.312   3.910   8.434 -0.0344  0.0826 -0.2223
96846W        W39862  14.855  26.429  24.510  0.2720  0.4828 -0.2743
96847W        W39863  21.068   1.687   2.934 -0.1011  0.0741  0.2471
96848W        W39864   9.235  12.304   5.855  0.0106 -0.2661 -0.0054
96849W        W39865  21.306  11.047   7.250  0.0062  0.2097  0.2197
96850W        W39866  20.297  20.459  28.584  0.4259 -0.1968  0.2472
96851W        W39867   7.249   5.326   3.002  0.0964 -0.1343 -0.2299
96852W        W39868  23.408  19.090   4.266  0.0892 -0.1593  0.0620
96853W        W39869  10.829  30.732   5.562 -0.2218 -0.4017  0.0061
96854W        W39870   7.934  10.472   0.659 -0.0538 -0.0888  0.1415
96855W        W39871   5.298  18.315   5.075  0.4097 -0.0768 -0.0696
96856W        W39872  10.649  32.240   8.034 -0.1007  0.0687 -0.2198
96857W        W39873  27.801  33.676  21.265 -0.0520  0.1418  0.0300
96858W        W39874   7.794   3.584   4.156 -0.0112 -0.0512  0.0862
96859W        W39875  12.157  18.794  22.612  0.2349 -0.0620  0.0556
96860W        W39876  33.558  22.322  27.030  0.1884  0.2262  0.1304
96861W        W39877  13.164  14.398   7.567  0.0420  0.1757 -0.0924
96862W        W39878   9.834  32.596  27.031 -0.0311 -0.1196  0.0565
96863W        W39879  15.593  24.642  24.421  0.0849 -0.1166 -0.0698
96864W        W39880   9.308  28.837   4.633 -0.4224  0.1586 -0.0406
96865W        W39881   2.695  32.481   1.601 -0.2175 -0.0501  0.0646
96866W        W39882  17.985  27.715   2.215  0.0087  0.1185  0.0118
96867W        W39883  30.101  30.997   1.569 -0.0066 -0.0677 -0.2345
96868W        W39884   2.873  26.906   2.153  0.1672 -0.2636  0.2101
96869W        W39885   2.066   2.765   9.862 -0.4803 -0.3847 -0.1297
96870W        W39886   8.297   6.838  19.462 -0.1894 -0.1952  0.1840
96871W        W39887   7.916  28.484   8.181 -0.3806 -0.2075  0.0279
96872W        W39888   9.194   4.210   5.008 -0.3886  0.1476  0.0304
96873W        W39889  16.736   3.530   6.476 -0.0991 -0.0080 -0.0218
96874W        W39890   9.707   5.333  27.251  0.0264  0.3470  0.0912
96875W        W39891  22.451   0.392  27.045 -0.0395  0.0765  0.2720
96876W        W39892  21.211  31.112  25.049 -0.0028 -0.0492  0.0307
96877W        W39893  15.017  30.356  27.272 -0.1697  0.0277 -0.1667
96878W        W39894  12.432   7.144   3.397  0.2026 -0.0507 -0.0163
96879W        W39895  13.459  12.877  25.687  0.1008 -0.3799 -0.3065
96880W        W39896   7.288  28.309   0.447 -0.2235  0.3102 -0.1334
96881W        W39897  10.862  21.134  14.294 -0.0052  0.2174 -0.0177
96882W        W39898  15.639  32.946   3.948  0.0836 -0.2662 -0.1517
96883W        W39899  30.551   0.461  28.601  0.2138  0.2392 -0.2444
96884W        W39900  13.366   5.672  25.425  0.3160 -0.0106 -0.0936
96885W        W39901   5.419  11.696  25.419  0.0074 -0.0916 -0.1684
96886W        W39902  16.391  26.622   5.583 -0.0575  0.2112 -0.0230
96887W        W39903  10.936  13.960  25.237  0.3207 -0.1873  0.1808
96888W        W39904   5.833   5.949   8.895  0.1506  0.0826 -0.2994
96889W        W39905   7.946  14.636   6.485  0.0673  0.0376 -0.2387
96890W        W39906   0.759   7.356  19.626  0.0309 -0.5794  0.4134
96891W        W39907  14.666   7.179   9.663  0.4534  0.1139 -0.3240
96892W        W39908  18.541   5.612  19.169  0.1646 -0.0140  0.3222
96893W        W39909  21.166   5.199   0.428 -0.0660  0.1451  0.0972
96894W        W39910  12.809  28.106  28.562  0.2457 -0.0069 -0.0527
96895W        W39911  24.539  13.167   6.029  0.2430  0.1879  0.0561
96896W        W39912  26.729  26.888   1.826  0.0984  0.0187  0.2099
96897W        W39913  18.513  28.856   4.934 -0.0964 -0.2425 -0.0044
96898W        W39914  26.899  26.441  25.163 -0.1457 -0.2325 -0.2005
96899W        W39915  21.780  30.349   9.646  0.0370  0.0470 -0.2956
96900W        W39916  21.424  34.527  27.300 -0.1606 -0.0811  0.0659
96901W        W39917   3.979  30.123   5.496 -0.0379  0.4349  0.0479
96902W        W39918  17.604  19.981   4.343 -0.2345  0.1691 -0.0043
96903W        W39919  19.991  29.812   1.213 -0.1483  0.0201  0.1292
96904W        W39920  21.067  29.415   4.060 -0.0713 -0.2463  0.2299
96905W        W39921  26.237  29.202  10.898  0.1950 -0.1591  0.1886
96906W        W39922  12.050  27.896   3.529  0.0051  0.0712 -0.1654
96907W        W39923  34.055  26.920   7.694  0.0311 -0.1004 -0.0892
96908W        W39924  11.654   5.760   5.718  0.1096 -0.1799 -0.0331
96909W        W39925  16.345  30.159   5.139  0.2361  0.2058  0.1858
96910W        W39926  22.732   4.489   8.295 -0.0840 -0.2408 -0.1007
96911W        W39927  10.480  30.600   6.427  0.1300 -0.0059  0.0512
96912W        W39928   2.261   3.234   0.131 -0.2151 -0.1224  0.1156
96913W        W39929  21.016  21.366  18.339  0.1268  0.0368  0.1840
96914W        W39930  18.442  24.894  22.960  0.4240  0.1179 -0.0544
96915W        W39931   0.319   2.339   3.133  0.0123 -0.1102 -0.0373
96916W        W39932   1.080  32.093   1.933 -0.0718 -0.3040 -0.2197
96917W        W39933  20.974  24.339  25.612  0.2453  0.1550 -0.0539
96918W        W39934  13.721  17.994  23.238 -0.1840 -0.3525  0.2042
96919W        W39935  15.033  16.527   5.326 -0.0847 -0.1068 -0.0818
96920W        W39936  30.287   6.713   7.059  0.3302 -0.1024  0.1516
96921W        W39937   6.015  15.972  29.317  0.0810 -0.1459 -0.1706
96922W        W39938  34.205   0.578  17.270  0.2004  0.1343 -0.0061
96923W        W39939   8.528  28.307   5.766 -0.0573  0.0362 -0.2820
96924W        W39940   5.894   2.173   5.562  0.1537 -0.1344 -0.0727
96925W        W39941  29.659   0.504   5.994  0.4034  0.1568  0.0774
96926W        W39942   8.078  33.525  26.430 -0.2561  0.1575 -0.0652
96927W        W39943  14.235  29.133   2.938  0.3356  0.0037 -0.0724
96928W        W39944  17.958  32.164   3.522  0.0660 -0.0163  0.0314
96929W        W39945  26.657   5.738  29.127  0.1695 -0.1725  0.0483
96930W        W39946   8.508  31.833   8.542 -0.1866 -0.0652  0.0726
96931W        W39947  22.175   8.099   7.283 -0.0432 -0.0758  0.2336
96932W        W39948   8.918  13.428   4.291 -0.0937 -0.2551 -0.0713
96933W        W39949  12.407  30.873   8.826 -0.1404 -0.1722  0.1532
96934W        W39950   1.158  21.949   5.658 -0.2109 -0.1306  0.0317
96935W        W39951  17.134  31.892   8.998  0.2246 -0.0756  0.4107
96936W        W39952  14.011  32.263   9.702  0.0402  0.0849  0.2463
96937W        W39953  13.741  32.384   0.742 -0.0386 -0.0548 -0.0014
96938W        W39954   0.623  22.418   5.722  0.0024  0.0721 -0.0500
96939W        W39955  11.194   9.204  24.370 -0.0603  0.2515  0.2029
96940W        W39956  10.244   0.399  28.847 -0.0743 -0.1905 -0.5814
96941W        W39957  11.228  29.545   9.325  0.0465 -0.1545  0.0113
96942W        W39958  24.557  15.509   7.932 -0.2500 -0.0462 -0.0529
96943W        W39959  13.545   0.414   9.856 -0.0403 -0.0814 -0.0735
96944W        W39960   2.268   9.716  15.389 -0.4552  0.0954 -0.1061
96945W        W39961   4.925  15.569   8.477  0.0817 -0.1159  0.1686
96946W        W39962   5.346  29.511   5.844 -0.2347 -0.1399  0.1589
96947W        W39963  10.878  33.849   9.156 -0.0362 -0.2893 -0.0227
96948W        W39964   3.468  33.945  16.526 -0.3316  0.0293  0.0784
96949W        W39965  19.888  23.233   6.536  0.0155 -0.0406 -0.0531
96950W        W39966   5.336  29.343   1.392 -0.1379  0.1431  0.0361
96951W        W39967  13.127  24.357  18.460  0.1243  0.1729  0.0911
96952W        W39968  14.203  33.231  27.887  0.4139  0.1645 -0.1056
96953W        W39969  11.427  34.685  29.281  0.1885 -0.1541 -0.0212
96954W        W39970  31.788   1.357  21.088  0.1789  0.1900  0.1002
96955W        W39971  22.106  28.377   7.401 -0.0820  0.0279 -0.1465
96956W        W39972  14.124  19.870   6.482 -0.2400  0.3506 -0.2322
96957W        W39973   9.931  13.651   6.054 -0.0341  0.3082  0.1105
96958W        W39974  34.541  30.961   6.388 -0.1628  0.3012  0.1324
96959W        W39975  11.192  15.180  27.530 -0.3654  0.1854 -0.3283
96960W        W39976  19.669   5.245   6.763 -0.1831  0.1809  0.0540
96961W        W39977   8.396  20.371  18.762 -0.2700 -0.0148  0.0521
96962W        W39978  15.222  15.770   4.515  0.1248 -0.0687 -0.3569
96963W        W39979  25.006  15.511  16.079 -0.0191 -0.3723  0.0907
96964W        W39980  15.320  24.524   7.670 -0.1075  0.0994 -0.4017
96965W        W39981  14.795  27.194   7.039  0.5122  0.0789 -0.4156
96966W        W39982  28.639  21.924  24.250  0.3985 -0.2301  0.0885
96967W        W39983   4.824  29.982  16.138 -0.2222 -0.5198 -0.1873
96968W        W39984  16.654  14.434   7.842  0.0215  0.1324 -0.2979
96969W        W39985  25.613  24.772  15.613  0.0208 -0.1133  0.0361
96970W        W39986  34.441   0.270   8.788 -0.2773 -0.0169 -0.1116
96971W        W39987  31.271  31.337  22.461  0.1190 -0.4623  0.1171
96972W        W39988   7.951  24.154   0.953  0.2556 -0.1044  0.2600
96973W        W39989  21.183   0.352   9.609 -0.2041  0.1353 -0.0166
96974W        W39990   6.782  13.022   6.975 -0.0743 -0.2565 -0.0599
96975W        W39991  13.389  17.480   4.045 -0.2069 -0.0579 -0.1625
96976W        W39992  24.477  30.864   9.328  0.1498 -0.0004  0.0082
96977W        W39993  19.933  13.078  26.095 -0.2016  0.0051  0.3818
96978W        W39994  16.379  22.854   2.191  0.2363  0.2407 -0.2794
96979W        W39995  11.084   1.565  28.502  0.3026 -0.2875 -0.3173
96980W        W39996  12.410  21.488   0.349  0.1768  0.1312  0.0063
96981W        W39997  11.086  29.951   8.517 -0.1201  0.0354 -0.1162
96982W        W39998  10.241  30.055   4.188  0.0380  0.0995  0.0023
96983W        W39999  11.740   3.979  10.112 -0.1399  0.2648  0.2585
96984W        W40000  14.887  32.327  10.119  0.3729 -0.0274 -0.2815
96985W        W40001  13.340   6.041   9.807  0.0132  0.0650  0.1594
96986W        W40002  11.295  24.173   8.221  0.0064 -0.2067 -0.5255
96987W        W40003   7.328  16.907   3.234  0.4366  0.1170 -0.1287
96988W        W40004   1.390  21.408  22.557  0.1900  0.1385 -0.5384
96989W        W40005  14.689  20.249   4.719 -0.1237 -0.1862 -0.0074
96990W        W40006  17.294  32.461  17.268  0.1556  0.2741  0.0451
96991W        W40007  23.386  20.693   9.260  0.1921  0.3210  0.0802
96992W        W40008  12.003   7.477   6.896  0.0578 -0.1734  0.2749
96993W        W40009  22.467   3.511   8.340  0.0138  0.1187 -0.2751
96994W        W40010  10.900  26.946   8.167  0.0052  0.1334  0.1899
96995W        W40011   5.956   6.464   4.774  0.1123  0.0537  0.2894
96996W        W40012  17.993  28.046   2.638 -0.0061 -0.1243  0.1069
96997W        W40013   7.845  34.737  22.880 -0.1405  0.3755  0.2129
96998W        W40014  17.505  31.048   1.395 -0.1485  0.0984 -0.1169
96999W        W40015  17.509  32.999   8.758 -0.0008  0.0157 -0.0663
97000W        W40016   5.804   3.818  24.907  0.0377 -0.1902  0.2581
97001W        W40017   8.426  19.614   5.602 -0.1758  0.0447  0.0609
97002W        W40018  17.154  29.130  25.573  0.2059 -0.4138  0.0412
97003W        W40019   8.693  29.197  28.598  0.1025  0.1900 -0.1814
97004W        W40020  11.539  33.263  26.463  0.0954  0.0381  0.3156
97005W        W40021  12.331  24.187   8.116 -0.0128 -0.0700  0.2485
97006W        W40022  15.819   7.733  21.405  0.1347 -0.0132 -0.2012
97007W        W40023  21.463  32.870   9.203 -0.1211  0.1109  0.1487
97008W        W40024   6.896   2.429   8.487 -0.1228 -0.1240  0.2623
97009W        W40025   8.646  33.170   6.540 -0.2501 -0.0111 -0.0266
97010W        W40026  21.434  21.976  15.880  0.3946  0.0126  0.2824
97011W        W40027  31.857  20.616   7.737  0.4172 -0.0573  0.0267
97012W        W40028   9.505  26.629   1.835  0.2102 -0.0903 -0.0213
97013W        W40029   2.319   9.403   5.956  0.2313 -0.1562  0.0559
97014W        W40030  22.790   3.923   7.446 -0.1818  0.1355  0.3955
97015W        W40031   8.842  24.704   7.494 -0.0887 -0.3269 -0.1420
97016W        W40032  17.582  19.041   5.290  0.4778  0.0389  0.2459
97017W        W40033   5.120  27.011  25.300 -0.3439 -0.1790  0.1350
97018W        W40034   7.113   5.856   9.835  0.0568  0.0569  0.2139
97019W        W40035  17.670  31.695   6.806  0.2066  0.2800 -0.1215
97020W        W40036  17.605  25.288   6.497  0.2274 -0.3861 -0.3311
97021W        W40037  27.451  21.677   3.497 -0.1206  0.2569  0.0998
97022W        W40038   3.427  26.931  29.315 -0.3867 -0.1100 -0.0063
97023W        W40039  21.868  34.190   9.106 -0.2329  0.0120 -0.1384
97024W        W40040   7.319   0.687   9.184 -0.0587  0.1732 -0.2366
97025W        W40041  19.168  24.918  29.216  0.0200 -0.2458  0.1730
97026W        W40042  13.236  27.337   2.713 -0.2110  0.0429 -0.1669
97027W        W40043  27.069  25.796   4.937 -0.1921  0.2497 -0.0823
97028W        W40044   6.649  19.344  24.446  0.0093 -0.1878  0.1267
97029W        W40045  17.425   5.136   7.200  0.2647  0.0564 -0.1533
97030W        W40046  26.362   2.303  10.628  0.1590 -0.0687  0.1610
97031W        W40047  24.183   7.279   8.310  0.1905 -0.3448 -0.0346
97032W        W40048  11.004  31.647   8.187 -0.0695  0.0521  0.2200
97033W        W40049  18.644  23.604  29.070 -0.0285 -0.0826 -0.0744
97034W        W40050   3.369  18.083   4.710 -0.2739  0.2364 -0.1842
97035W        W40051  12.006  23.810   4.588  0.2971 -0.0614  0.0664
97036W        W40052  14.672   3.591   3.456  0.1608  0.2034  0.0117
97037W        W40053  31.597   3.444   9.043 -0.1196  0.1819 -0.4728
97038W        W40054   1.397  33.045   7.705 -0.0595  0.1451  0.1798
97039W        W40055  18.047   3.849  22.850  0.0819  0.0194 -0.0327
97040W        W40056   6.638  29.376  10.020  0.2825  0.1827  0.1550
97041W        W40057  17.840  26.548   1.667  0.0688  0.0021 -0.4467
97042W        W40058   9.528  29.266  19.614 -0.1907 -0.2457  0.0252
97043W        W40059  10.752  12.116  28.405 -0.2523 -0.3104 -0.1351
97044W        W40060  26.949   3.733  10.999 -0.6130  0.2154  0.1677
97045W        W40061  28.685  13.226   4.729  0.0695 -0.1223  0.1670
97046W        W40062  22.757  10.010   5.146 -0.1439 -0.0305 -0.0397
97047W        W40063  14.203  31.615  24.533 -0.0418  0.0485 -0.1315
97048W        W40064   7.307  32.084  28.953 -0.0499 -0.3207 -0.0093
97049W        W40065   8.493   4.868   9.465 -0.2845  0.0295 -0.0017
97050W        W40066  12.862   5.037  26.112 -0.1952 -0.0985  0.0971
97051W        W40067  14.286   4.311  26.585 -0.2228 -0.2056  0.0043
97052W        W40068  22.122   3.401   4.904  0.0914 -0.0681  0.3802
97053W        W40069  17.981  20.342   0.899  0.0609 -0.1817 -0.0270
97054W        W40070   2.480  28.296  10.382 -0.0955 -0.2337  0.2449
97055W        W40071  11.767  12.918  27.734 -0.2394  0.2485 -0.1619
97056W        W40072  12.356  25.869   8.614  0.0695 -0.0740  0.1629
97057W        W40073  32.243  25.922   7.171  0.1996 -0.1458  0.2422
97058W        W40074  14.825  18.830  28.069  0.4700 -0.1595  0.1138
97059W        W40075  31.200   1.460   5.223  0.3544 -0.1217  0.1383
97060W        W40076  17.745   8.156   2.242 -0.2049  0.0718 -0.1213
97061W        W40077  18.360  29.240   4.635  0.2783 -0.1711 -0.3168
97062W        W40078  24.737   1.328  28.749  0.1950 -0.3788 -0.3525
97063W        W40079   6.823   9.565   7.297 -0.1057  0.2402  0.2486
97064W        W40080  11.255   2.584   7.087 -0.4176 -0.5068 -0.0115
97065W        W40081  12.840  31.231   8.429  0.0195 -0.0454 -0.0891
97066W        W40082  13.533   5.284   4.688 -0.0559  0.0855 -0.0221
97067W        W40083  12.227  16.785   3.111 -0.1833  0.0169 -0.0768
97068W        W40084  27.510  30.016   6.134  0.3194  0.1857 -0.2758
97069W        W40085  21.096  24.724   5.031  0.2335  0.2706  0.0866
97070W        W40086  11.885  32.347   7.595  0.0011  0.2706 -0.0867
97071W        W40087  16.019   1.914   6.294 -0.0170  0.0948 -0.0490
97072W        W40088  25.157  32.196  10.666  0.2225  0.1332  0.0258
97073W        W40089  27.282  13.367   2.503  0.0625  0.0376  0.0094
97074W        W40090   8.261   0.234   0.743  0.3289  0.1632 -0.1717
97075W        W40091  20.232  16.627   2.876 -0.0561  0.2274 -0.0638
97076W        W40092   5.096   2.420  25.382  0.2704 -0.2326  0.1830
97077W        W40093   8.460   0.030  29.096  0.0513 -0.1713  0.0459
97078W        W40094  27.299  12.164   3.760 -0.0749 -0.3672 -0.1420
97079W        W40095  23.266   2.773  10.684  0.0196 -0.0969 -0.0307
97080W        W40096   1.815  34.280   9.483 -0.1345 -0.0366 -0.3048
97081W        W40097  17.134   0.921  27.700  0.0672 -0.0345  0.2489
97082W        W40098  10.680  23.324   5.422  0.3097 -0.2043  0.1077
97083W        W40099  34.214   3.015   6.313  0.1725  0.0153 -0.2567
97084W        W40100  12.693   5.690   7.412  0.0582 -0.2429 -0.1071
97085W        W40101  20.289   1.074   6.940 -0.2153  0.2717  0.2014
97086W        W40102  20.126  17.909   6.129  0.4371 -0.1225  0.1525
97087W        W40103  17.706   4.536   1.803  0.1726 -0.1710  0.1434
97088W        W40104   6.000  22.675   4.188 -0.0634 -0.0026  0.0678
97089W        W40105  20.751  27.520   7.543  0.2688 -0.0569 -0.0271
97090W        W40106  24.428   1.828  25.457 -0.3000 -0.1916 -0.2978
97091W        W40107  11.128  27.411  26.211  0.3286 -0.0062 -0.0051
97092W        W40108  17.812  17.257  17.570  0.1066 -0.3831  0.2379
97093W        W40109  19.681  10.149  28.588  0.2459 -0.0808  0.3332
97094W        W40110  25.815   5.120   5.312 -0.2433  0.1440 -0.2955
97095W        W40111   5.809  31.179   2.508 -0.0203 -0.0736  0.0575
97096W        W40112  27.644  28.822  28.378  0.0961 -0.1646  0.0052
97097W        W40113  16.516  30.335   3.999  0.2228 -0.0417 -0.2374
97098W        W40114  17.798   3.126   1.016  0.2765  0.0592  0.0361
97099W        W40115  24.739  24.036   8.673 -0.0340  0.0189 -0.0531
97100W        W40116   9.796   9.789  21.295 -0.1625  0.2607 -0.2697
97101W        W40117   9.410  21.100   3.527  0.2518 -0.0949 -0.2127
97102W        W40118   0.253  16.344  27.437  0.1803 -0.4488 -0.3865
97103W        W40119  20.034  20.139  23.723 -0.0370 -0.1004 -0.3247
97104W        W40120   4.417   8.764  27.392 -0.0354  0.0307 -0.2509
97105W        W40121   2.598  31.258   9.037 -0.0258 -0.2481 -0.0475
97106W        W40122  16.705  20.583  24.766 -0.2033  0.0981  0.1674
97107W        W40123  18.271  30.281  20.314  0.0512 -0.2169  0.3709
97108W        W40124  16.324   7.185   1.149  0.2934 -0.1059 -0.2277
97109W        W40125  12.450  30.970  25.305 -0.0360 -0.1719  0.0771
97110W        W40126   0.557   1.952   4.622 -0.1355  0.2208 -0.2677
97111W        W40127  15.566   0.878  16.317 -0.3050  0.0290 -0.0251
97112W        W40128  17.120   5.253  21.618  0.0223 -0.0183 -0.0126
97113W        W40129  12.513   1.658  17.909 -0.1312  0.1388 -0.2508
97114W        W40130  31.616  31.391  25.743 -0.1964  0.2547  0.0398
97115W        W40131  10.149  25.544   6.159 -0.0921  0.0545 -0.2060
97116W        W40132  34.090  30.909   3.024 -0.2226  0.0215  0.0133
97117W        W40133   3.534   2.939   7.563 -0.3731  0.3906  0.0352
97118W        W40134  31.528  10.147   0.925  0.1054  0.0362 -0.0237
97119W        W40135   0.717   5.611  26.620  0.2033 -0.1278 -0.2032
97120W        W40136  26.081  25.143   7.478 -0.0831  0.3906  0.1179
97121W        W40137  17.564  29.086   4.023 -0.0246 -0.1366  0.0922
97122W        W40138   3.225  15.074  24.861 -0.0470 -0.3336 -0.2547
97123W        W40139  26.134  20.293   9.325 -0.0026  0.1861 -0.3421
97124W        W40140  26.820  26.018  24.670 -0.2220 -0.0945 -0.1911
97125W        W40141  26.125  32.802  24.861 -0.2537  0.3406  0.0365
97126W        W40142  16.028  26.999   4.440  0.3211  0.1434 -0.2018
97127W        W40143  11.509   4.998   0.293 -0.2346  0.1393 -0.0863
97128W        W40144   8.147   0.988  17.608  0.0989 -0.0664  0.0805
97129W        W40145  13.407  24.584   7.860  0.2378  0.0164 -0.0355
97130W        W40146  14.415   7.104  10.048  0.0349  0.0559  0.1307
97131W        W40147  16.687   9.087   9.018 -0.1024  0.0379 -0.0347
97132W        W40148  17.378  10.140  27.632 -0.0148 -0.1559  0.0104
97133W        W40149  15.714  23.405  29.216  0.3693 -0.1591  0.0806
97134W        W40150  22.320  25.094  21.290 -0.0533  0.0243  0.0706
97135W        W40151   3.022  29.898  27.176  0.1691 -0.2743 -0.0378
97136W        W40152   7.431  31.453   2.373 -0.0365  0.0973  0.0535
97137W        W40153  19.989  30.434   9.915  0.2772 -0.0417  0.2459
97138W        W40154  17.404   3.013  10.435  0.2206 -0.0832 -0.2449
97139W        W40155   5.223   4.384   6.063 -0.0484 -0.1073  0.1683
97140W        W40156   3.655  29.573   8.096  0.1666 -0.3695  0.4072
97141W        W40157   6.955  32.250   2.051 -0.3669 -0.3059  0.0544
97142W        W40158  21.648  33.930   9.494 -0.5743  0.0155  0.3407
97143W        W40159   5.706  32.923  26.313 -0.1046  0.3510 -0.1549
97144W        W40160  16.505  32.510  10.337  0.0518  0.2901 -0.1349
97145W        W40161  21.757  33.237   5.122  0.0398  0.0925  0.2758
97146W        W40162  21.787  21.166  21.034  0.3107 -0.0168 -0.1292
97147W        W40163  15.109  24.727   3.277  0.1311 -0.1535 -0.2755
97148W        W40164   6.950  26.970   4.849  0.0340 -0.2173 -0.0108
97149W        W40165  11.908  34.342   3.110 -0.1619  0.1857 -0.5238
97150W        W40166  11.849  27.397  28.422  0.0531 -0.2485 -0.2099
97151W        W40167   2.447  13.457   6.475 -0.0607 -0.3010 -0.3000
97152W        W40168  21.936  19.216  15.546  0.0296 -0.3698  0.0853
97153W        W40169   8.377  28.544   8.372 -0.0373  0.2329  0.0537
97154W        W40170  11.190  21.350  25.003  0.0807  0.2764  0.1581
97155W        W40171  12.419   6.041  19.406 -0.0043 -0.1217 -0.2859
97156W        W40172   6.794  30.210   7.696 -0.0093  0.4693  0.0903
97157W        W40173   5.166  32.287  28.421  0.1488 -0.0864  0.1326
97158W        W40174  12.770  33.421   5.841 -0.1044 -0.1761 -0.1608
97159W        W40175   3.824  21.227   3.953  0.0246  0.2892  0.0649
97160W        W40176   2.344  32.050  14.270 -0.2617  0.3283  0.0702
97161W        W40177   2.032  14.480  25.697 -0.1206 -0.0180  0.3766
97162W        W40178   6.151  27.006  10.628 -0.0401  0.1269 -0.0003
97163W        W40179  20.711  27.073   6.166  0.0912  0.1436  0.1848
97164W        W40180   9.634   1.439  10.535 -0.1318  0.1185 -0.1203
97165W        W40181  33.956   2.197   2.246 -0.0946 -0.0733  0.2020
97166W        W40182   9.211  14.433  23.225  0.2913 -0.0198  0.0897
97167W        W40183  34.488  33.027  20.096  0.0704 -0.3985 -0.0006
97168W        W40184  13.647  25.620  16.510 -0.2114  0.1814  0.1648
97169W        W40185  27.157  30.846   1.457  0.4238  0.2113  0.0122
97170W        W40186  20.119  21.703   4.330 -0.2085  0.1867  0.0441
97171W        W40187  15.940  16.593   7.654  0.1943 -0.2947 -0.2865
97172W        W40188  10.074   5.958  26.551 -0.1020 -0.2140  0.0183
97173W        W40189  14.248  12.897   3.232 -0.1060 -0.0331  0.1994
97174W        W40190   6.241   3.242  27.928 -0.0994  0.3882 -0.1771
97175W        W40191  10.259  29.341   4.735 -0.1230 -0.2430 -0.0805
97176W        W40192  19.441   9.701  16.526  0.0984  0.3638  0.0607
97177W        W40193  11.882  26.875   4.389  0.0302 -0.0563 -0.0885
97178W        W40194  17.569  33.320  28.937 -0.0324 -0.0715  0.1547
97179W        W40195   0.204  27.200  15.559 -0.1632 -0.0629  0.1747
97180W        W40196  25.891  28.480  24.240  0.3823 -0.1217 -0.0075
97181W        W40197   7.763  27.602   4.442  0.1818 -0.0808 -0.0971
97182W        W40198  24.766  32.247   9.283 -0.2645 -0.0505  0.0172
97183W        W40199  15.332  33.733  21.091  0.1049 -0.2256  0.1753
97184W        W40200  12.943  31.140  21.790 -0.2905 -0.0120 -0.4465
97185W        W40201  32.157  17.076   0.742  0.3037 -0.1510  0.0189
97186W        W40202  34.734  18.055   7.928 -0.1108  0.1140  0.0983
97187W        W40203   1.058  11.659   8.207 -0.1496  0.0151 -0.0973
97188W        W40204  18.977   2.939  20.222  0.2015  0.0708 -0.2369
97189W        W40205  14.391  17.614   5.975  0.0170 -0.0683  0.1251
97190W        W40206  11.590  11.539   4.213 -0.4480 -0.1376  0.0002
97191W        W40207   6.509  23.043   3.612 -0.0727  0.1168  0.5501
97192W        W40208  10.508  16.020   4.244 -0.0262 -0.1840 -0.0671
97193W        W40209   6.128  17.975   4.023 -0.0723  0.1461  0.2494
97194W        W40210  14.955   2.523   9.893 -0.1680  0.1233 -0.0961
97195W        W40211  10.764  27.346   2.225  0.2065 -0.0832  0.0709
97196W        W40212   7.802   8.175   9.375 -0.0984  0.1004  0.1569
97197W        W40213  17.835  11.101  24.743 -0.2200  0.1554 -0.0277
97198W        W40214  22.656  26.058  10.167 -0.0502  0.3129  0.1249
97199W        W40215  13.151   5.404   9.365  0.0333  0.2695 -0.1021
97200W        W40216   1.665  14.837   4.878  0.4072  0.2014  0.4933
97201W        W40217  11.163  19.254   1.142 -0.1023 -0.2235 -0.1181
97202W        W40218   9.965  25.571   3.195  0.0254 -0.0117 -0.1531
97203W        W40219   8.238  26.961   2.497 -0.0338  0.1822  0.3118
97204W        W40220  14.097  32.307   2.908  0.1195  0.0959  0.0274
97205W        W40221  10.303  30.569   4.280 -0.2418  0.0737 -0.0422
97206W        W40222  33.345  32.279   4.492  0.1397  0.0129 -0.0464
97207W        W40223  16.859  16.382   1.214  0.1802 -0.0642  0.1355
97208W        W40224  17.665  33.417  25.450  0.0051 -0.0277  0.0957
97209W        W40225  17.169  29.203   8.234 -0.0194  0.2149 -0.2077
97210W        W40226   6.867   3.539  27.291 -0.1315  0.0769  0.0367
97211W        W40227  10.184  32.237   7.824  0.2769 -0.3916  0.1888
97212W        W40228  18.679  13.154   1.362 -0.0000  0.1815  0.2150
97213W        W40229   0.545  33.381   5.273 -0.0782 -0.1486  0.2803
97214W        W40230   3.818  34.463  20.918  0.1371 -0.0641  0.0851
97215W        W40231  21.281  16.290   6.016  0.1022  0.1535  0.2041
97216W        W40232  28.339  34.738   4.992 -0.0709 -0.0942  0.2534
97217W        W40233  14.576  24.093   8.225  0.2976 -0.2038 -0.0219
97218W        W40234   1.777   8.945   3.490  0.1876  0.0506  0.1948
97219W        W40235  17.312  15.988  25.753 -0.0114  0.1242  0.2678
97220W        W40236  20.264   1.230   9.888 -0.1871 -0.2528 -0.0898
97221W        W40237  21.574  26.619   9.577  0.0818  0.2691  0.0506
97222W        W40238   8.685  30.381   1.046 -0.3895  0.0879 -0.0797
97223W        W40239  15.980  20.596   1.498 -0.0468 -0.0150 -0.0091
97224W        W40240   4.459   1.086   7.111  0.2523  0.2344 -0.1986
97225W        W40241  17.219  19.231  27.857  0.0885 -0.1485 -0.1457
97226W        W40242   5.859  19.554  24.169  0.3226 -0.0890  0.2454
97227W        W40243   6.996  18.858  22.401  0.2210  0.0606  0.0306
97228W        W40244   6.352  34.467  27.603 -0.3086 -0.4494 -0.1440
97229W        W40245  15.173  29.807  10.494 -0.1245 -0.3395  0.1995
97230W        W40246   8.286  12.568   1.919 -0.0225  0.0721 -0.3783
97231W        W40247  21.579  10.662  27.854 -0.1313  0.0404  0.0510
97232W        W40248  13.837   6.648   5.062  0.3612 -0.2145  0.2951
97233W        W40249   8.029  14.857   4.840  0.0419 -0.0103  0.0867
97234W        W40250   7.106  23.826   7.022  0.2774 -0.1038  0.2989
97235W        W40251  11.994  25.075  28.680  0.3233  0.0043 -0.1981
97236W        W40252  14.564   3.560   7.596  0.1007  0.0990  0.1434
97237W        W40253  16.095  29.402  29.050 -0.3040 -0.0422  0.1964
97238W        W40254   6.461  25.457   9.847  0.0415  0.0098 -0.0958
97239W        W40255   8.368  29.579   6.556 -0.0280  0.1174  0.0669
97240W        W40256  27.983  11.174   5.994 -0.1754  0.0788  0.0964
97241W        W40257  13.623  14.470  24.588 -0.0123 -0.2681  0.0170
97242W        W40258  34.292  32.461   8.306 -0.1683 -0.0781 -0.1728
97243W        W40259   2.670  28.618   6.547  0.1456 -0.1665 -0.1322
97244W        W40260   3.613  33.248   9.673 -0.2543  0.1559 -0.1112
97245W        W40261  17.188  29.887  23.034 -0.1425 -0.1383  0.1635
97246W        W40262   7.771   5.507   7.919 -0.2704 -0.3906 -0.2042
97247W        W40263   1.274  15.342  25.079  0.0510 -0.0062 -0.2281
97248W        W40264   4.534  32.287   2.271  0.0837  0.0508 -0.1271
97249W        W40265   9.474  16.847  25.833 -0.3462  0.3389  0.1384
97250W        W40266  12.890  11.909   0.440  0.1119  0.1570  0.1231
97251W        W40267   4.469  21.646  24.430 -0.2692 -0.0386  0.0253
97252W        W40268   1.269   3.198   3.777 -0.1173 -0.1083 -0.1574
97253W        W40269   4.823  23.163   6.832  0.0379  0.0496 -0.1733
97254W        W40270   6.614  33.269   7.982 -0.1417  0.1056  0.1534
97255W        W40271   3.537  21.370   8.323  0.0742  0.1139 -0.1788
97256W        W40272  12.724  25.388  12.890  0.1231 -0.1153 -0.1882
97257W        W40273  16.889  19.668  25.002  0.0139  0.2751 -0.2280
97258W        W40274  11.237   1.170   1.123 -0.1757  0.1331  0.0120
97259W        W40275   5.097   2.403  10.104 -0.3760  0.1172  0.1574
97260W        W40276  10.876   1.342   6.682  0.0101 -0.0959 -0.1187
97261W        W40277  16.172   3.690  24.352 -0.0625  0.1078 -0.0716
97262W        W40278  18.645  20.538  26.259 -0.2931 -0.1065  0.0592
97263W        W40279  21.645   5.424  27.331  0.0376  0.0277  0.1855
97264W        W40280   7.138   5.086   4.174 -0.0836 -0.3266  0.2641
97265W        W40281  13.502   2.941   7.145 -0.0535 -0.2475 -0.2656
97266W        W40282   8.356  30.943   7.185  0.2286 -0.0485 -0.0161
97267W        W40283  27.401   1.660   5.368 -0.0875  0.2499 -0.0857
97268W        W40284  21.104   3.824   9.275 -0.1191  0.1322  0.0300
97269W        W40285  13.412  25.254  23.091  0.0844 -0.0185 -0.3073
97270W        W40286  22.782   0.530   4.757 -0.1261  0.0925 -0.0192
97271W        W40287   7.516   6.913  21.246  0.0662 -0.1780  0.0738
97272W        W40288  32.378  30.927   5.666 -0.0728  0.1714 -0.1514
97273W        W40289   5.733  29.520   9.114  0.1795 -0.1381  0.0541
97274W        W40290  10.372  23.744   2.980 -0.0930 -0.0859 -0.2009
97275W        W40291  31.203   8.552   0.423 -0.1943  0.3279 -0.0059
97276W        W40292  14.258  15.020  18.808  0.0609  0.1852  0.0075
97277W        W40293  25.577   4.270   8.680  0.0028  0.1488 -0.4475
97278W        W40294  12.532  32.935   6.105  0.0548  0.0418 -0.0616
97279W        W40295  21.441  32.962   1.953 -0.0767 -0.2042  0.0937
97280W        W40296  31.467  30.932  25.970  0.1136 -0.1155  0.2270
97281W        W40297  10.132   1.376   9.483 -0.2876 -0.3377  0.1244
97282W        W40298  32.345  20.340   4.615  0.1585  0.1339 -0.0234
97283W        W40299  23.628  10.543   7.017 -0.3064  0.0581  0.0622
97284W        W40300  13.441   0.727  19.634 -0.0242  0.0637 -0.0117
97285W        W40301   8.177  23.140  22.810  0.2214 -0.0833  0.4010
97286W        W40302   6.780  15.312  27.956  0.0061  0.0738  0.2002
97287W        W40303  21.504  33.760   1.165 -0.0312  0.3231  0.3449
97288W        W40304   4.658   1.124  23.313 -0.1135  0.0268 -0.0438
97289W        W40305   1.530   6.588  28.779  0.0835 -0.1964 -0.1111
97290W        W40306  16.938   9.261   7.185 -0.0004  0.0589 -0.3058
97291W        W40307  28.322  33.857  27.706 -0.1343 -0.0574 -0.1100
97292W        W40308   7.897  33.070   0.262  0.1078 -0.1651  0.3046
97293W        W40309  14.462   3.595  10.487  0.0403 -0.1778  0.0117
97294W        W40310  15.589  23.799  27.949  0.1949 -0.1324  0.1524
97295W        W40311  14.036  29.585  28.128  0.2632  0.0459  0.5817
97296W        W40312   8.823   1.273  22.966  0.3512  0.0030  0.3054
97297W        W40313  13.414  11.494   1.073 -0.0965 -0.1292 -0.2478
97298W        W40314  14.496   9.980  14.082 -0.3119  0.1146  0.1013
97299W        W40315  33.004  24.295  19.940 -0.1394 -0.1542 -0.0063
97300W        W40316  11.656  24.393   5.909  0.0577 -0.0570  0.1804
97301W        W40317   8.734   9.215   4.581  0.2604  0.1949  0.0189
97302W        W40318   4.804  32.175  14.310  0.1120 -0.1287  0.1492
97303W        W40319  14.518   6.503   1.433 -0.2837 -0.1476  0.3352
97304W        W40320  10.836   5.660   9.626  0.2120  0.1608  0.1201
97305W        W40321  10.256  19.247   3.519 -0.2468 -0.1954  0.0741
97306W        W40322  14.311  13.766  25.671 -0.1212  0.0656  0.0232
97307W        W40323  20.782  27.381   6.534 -0.1839  0.0775  0.3379
97308W        W40324  11.554   0.618  20.999 -0.3444  0.0717  0.1700
97309W        W40325   3.457   6.119   6.520 -0.2235 -0.1541  0.2778
97310W        W40326  24.935   1.253   9.857  0.2711  0.0716 -0.0965
97311W        W40327  20.580  31.283   4.201 -0.3107  0.4645 -0.3982
97312W        W40328   7.247  33.079   8.090 -0.3164 -0.0022  0.0849
97313W        W40329  19.350  23.000   9.042 -0.0821 -0.0038 -0.0567
97314W        W40330  20.068   5.751   0.864  0.1706 -0.0186  0.0081
97315W        W40331  32.717   2.028   9.565 -0.0576 -0.1489  0.2283
97316W        W40332  26.528  19.474  26.559  0.3318 -0.3123  0.0830
97317W        W40333   6.245  13.888   4.665  0.0689  0.1429 -0.2288
97318W        W40334  17.520  16.083  14.893  0.1562  0.2073 -0.0853
97319W        W40335  15.109  32.649   8.063 -0.0045 -0.0739 -0.2349
97320W        W40336  20.665  30.489  23.944 -0.3567 -0.0518  0.0707
97321W        W40337  28.564   1.004  20.633  0.0159  0.2897 -0.1999
97322W        W40338  22.416   6.322   7.575  0.0759 -0.5625 -0.2025
97323W        W40339  11.670  23.186  13.025 -0.4458 -0.2369  0.0048
97324W        W40340  12.101   8.754   6.508 -0.1394 -0.0513  0.3612
97325W        W40341  14.900  33.088   1.643 -0.1395 -0.2572  0.0472
97326W        W40342   7.412  18.219   5.030  0.1833  0.1050 -0.1229
97327W        W40343   7.862  25.337  25.656 -0.0024  0.0058  0.2577
97328W        W40344  11.847   0.839  10.508  0.0800  0.2684 -0.1078
97329W        W40345  16.736  12.556   8.796 -0.0075  0.2330 -0.0372
97330W        W40346   3.741  29.437   4.318 -0.2440 -0.1138  0.0102
97331W        W40347  28.205  26.206  22.250  0.3920  0.0107  0.1393
97332W        W40348  29.741  26.554   0.308 -0.0286  0.0957  0.1180
97333W        W40349  24.345  21.680   1.269 -0.0566 -0.0285  0.2679
97334W        W40350  24.550  30.424   2.542 -0.1092  0.0030  0.3248
97335W        W40351  27.937   3.874  16.338  0.0660  0.3307 -0.1818
97336W        W40352  31.441  28.606  10.257 -0.1132  0.0277  0.1556
97337W        W40353  18.852  24.133  20.538 -0.3917 -0.0912  0.2076
97338W        W40354  12.304   1.561   5.907 -0.0487  0.0383 -0.0330
97339W        W40355  26.398   2.462  22.244 -0.1738  0.0758 -0.1147
97340W        W40356  23.769  21.004   5.275 -0.0115 -0.0257  0.1040
97341W        W40357  22.136   4.345  22.910 -0.3568  0.2854  0.1172
97342W        W40358  20.981  30.134  26.534 -0.3414 -0.3189 -0.0536
97343W        W40359   7.916  21.889  29.253  0.1131 -0.1091  0.0718
97344W        W40360   9.202   9.914   6.974 -0.2836 -0.0981  0.1845
97345W        W40361  11.444  33.222  21.785 -0.1788 -0.1909  0.2643
97346W        W40362   9.177  16.463   2.441  0.2084 -0.0004  0.2472
97347W        W40363  18.053   8.340   4.434 -0.0066  0.1658  0.2563
97348W        W40364  32.355  22.757  19.451  0.1620 -0.0668 -0.1825
97349W        W40365   4.491  32.228  15.534  0.3234 -0.1978  0.2448
97350W        W40366   8.421  30.559  25.095  0.5088 -0.0795 -0.1895
97351W        W40367  34.161  21.973  19.316  0.3060 -0.0650 -0.0283
97352W        W40368   1.293   2.095   9.300  0.1604  0.1696 -0.1386
97353W        W40369  14.074  24.982  28.802  0.1400  0.2195  0.1325
97354W        W40370  25.826  25.353   3.766 -0.2695 -0.2069 -0.0428
97355W        W40371  18.483   0.375  20.804 -0.2999 -0.1318  0.1915
97356W        W40372  14.904  12.909   6.679  0.2393  0.1066  0.4267
97357W        W40373   9.727   3.853   1.184  0.4306 -0.2566  0.0649
97358W        W40374  18.266  11.590  14.388  0.1909 -0.2418 -0.2329
97359W        W40375  26.335  32.773  26.315  0.0486 -0.3380  0.2518
97360W        W40376  31.753  14.043   4.056  0.0617 -0.1036  0.0496
97361W        W40377  31.958  24.316  20.415 -0.0912 -0.1064 -0.2301
97362W        W40378   2.490  21.737  28.630 -0.2001 -0.1517 -0.1812
97363W        W40379  19.306  24.193  20.844 -0.1690  0.0266  0.3343
97364W        W40380  27.740  31.756  18.418 -0.1487 -0.0476  0.1657
97365W        W40381  19.066   4.055  14.945 -0.0636 -0.2214 -0.4287
97366W        W40382  18.765  24.651   7.998  0.1610 -0.0390  0.0740
97367W        W40383   6.988   2.484   7.912 -0.4330  0.2905 -0.0008
97368W        W40384  23.338  18.518  27.520 -0.0352  0.0339  0.1972
97369W        W40385   4.008  32.275   4.151  0.1902  0.0797 -0.1812
97370W        W40386  32.928  23.194   0.929  0.1009  0.1020 -0.0282
97371W        W40387  25.347  19.540  28.094 -0.2892 -0.0739  0.0158
97372W        W40388  21.666  11.553   3.005  0.1102  0.2000 -0.2052
97373W        W40389   9.524  10.613   3.516 -0.1085 -0.1667  0.0960
97374W        W40390   2.403  24.362   1.751 -0.0509 -0.2275  0.0434
97375W        W40391   0.019  30.910   7.350  0.2251 -0.1096 -0.2108
97376W        W40392   2.270  31.298   9.446 -0.2450 -0.2303 -0.0341
97377W        W40393  25.338   0.892   2.465  0.1199  0.1496 -0.2455
97378W        W40394  11.855   4.716  15.104  0.2801  0.1015  0.0467
97379W        W40395   3.869  10.266  27.964 -0.0124 -0.2346  0.1677
97380W        W40396  16.440  26.618   6.161  0.4515  0.1300  0.2603
97381W        W40397  12.749   0.444  28.078  0.0096  0.2123  0.0229
97382W        W40398  21.099   2.223   9.614 -0.0149 -0.1559  0.0202
97383W        W40399   5.249   7.400  14.262 -0.1031  0.1959  0.1863
97384W        W40400  25.409  29.247   8.652 -0.1619  0.0046  0.0579
97385W        W40401  17.334   3.723   7.508 -0.3209 -0.1734  0.5044
97386W        W40402  10.849   1.959   1.052 -0.0457  0.1200  0.1678
97387W        W40403  33.467  31.287  22.336  0.1391 -0.0274 -0.1870
97388W        W40404  20.616   1.307  26.706  0.0588  0.2310 -0.0296
97389W        W40405  10.114   3.027   7.661  0.1444 -0.0424  0.0979
97390W        W40406  17.715   1.270  19.233  0.2701 -0.0852 -0.2429
97391W        W40407   7.565   8.629   4.710  0.0427 -0.2780 -0.3033
97392W        W40408  27.531   0.587  18.290  0.1948 -0.0397 -0.2692
97393W        W40409  34.040  31.961  26.857 -0.1843 -0.1395 -0.1157
97394W        W40410  17.926  14.804  27.460 -0.0308  0.0725  0.0628
97395W        W40411  14.858  17.110  21.910 -0.3149 -0.4139  0.1834
97396W        W40412   9.377  14.509  27.557 -0.1273 -0.0563  0.0153
97397W        W40413  15.127   2.377  18.880 -0.1176 -0.0405 -0.4029
97398W        W40414   8.366  15.137   8.357  0.0362  0.1171  0.6870
97399W        W40415  21.729   5.628   3.384 -0.0077  0.2466  0.3281
97400W        W40416  21.402  23.474   8.956  0.1715  0.2946 -0.0151
97401W        W40417   0.020  26.542   8.113 -0.2803  0.0278  0.0151
97402W        W40418  30.601   2.479  10.350 -0.0755  0.2265  0.0592
97403W        W40419  20.514  33.628   4.643  0.0290 -0.1588  0.0873
97404W        W40420  13.662   2.833   0.580  0.0008  0.1116  0.3624
97405W        W40421  10.157   0.614  24.134  0.2076  0.0528 -0.2203
97406W        W40422  16.846  32.055   1.274  0.2319  0.0047  0.0584
97407W        W40423  25.386  30.288   8.110 -0.0505  0.2541 -0.2060
97408W        W40424  17.771  23.921   0.910 -0.1304 -0.1775  0.4239
97409W        W40425  33.410   3.654   7.370 -0.2197 -0.2207  0.0607
97410W        W40426  27.162  23.835  10.067 -0.2769 -0.0253 -0.0654
97411W        W40427  22.030  10.471  27.995 -0.1167  0.0139  0.0036
97412W        W40428  10.345  27.029  26.503  0.0487  0.0776  0.1623
97413W        W40429   4.434  27.998  16.506 -0.2518 -0.1421  0.1082
97414W        W40430  21.110  27.642   7.068  0.0330  0.3259  0.0111
97415W        W40431   3.381  29.718  10.007 -0.1636  0.0438 -0.2741
97416W        W40432  10.984  23.305  14.090 -0.0740 -0.1647 -0.1984
97417W        W40433  16.803  28.596  23.746  0.0142 -0.0628 -0.2194
97418W        W40434   2.186  18.278   0.214  0.1108 -0.1395 -0.2377
97419W        W40435   7.731  15.666  28.930 -0.0775 -0.2568  0.0075
97420W        W40436  27.197  28.771   9.690  0.3652  0.1660  0.1258
97421W        W40437  29.857   0.772   3.284 -0.0071  0.2029 -0.1340
97422W        W40438  12.379   0.764  27.797  0.2250  0.1430 -0.0312
97423W        W40439   0.495  15.233  27.581 -0.2120  0.3115  0.1137
97424W        W40440   8.942   6.018   4.890  0.2002  0.1293  0.1148
97425W        W40441  11.006  26.624  28.887 -0.3486  0.1021  0.0629
97426W        W40442  28.072   7.101   7.722 -0.0464  0.1962 -0.1057
97427W        W40443  19.415   5.669  24.585  0.0451  0.1231 -0.1158
97428W        W40444  30.107  30.052   0.906  0.1429 -0.2688  0.3127
97429W        W40445   7.645  33.157  26.486 -0.1992  0.0961 -0.0304
97430W        W40446  12.402  25.153   7.651  0.1469 -0.3164 -0.1809
97431W        W40447  27.237  14.364  20.882 -0.5408  0.2713  0.1185
97432W        W40448   1.002   9.276   2.586  0.0211  0.5572  0.1001
97433W        W40449  21.583  30.110  16.187 -0.0467  0.1208  0.3514
97434W        W40450  18.821   9.050   5.018  0.1157 -0.3721 -0.1340
97435W        W40451  19.750  24.757   4.103  0.2204  0.0286 -0.1045
97436W        W40452   9.111  11.875   4.013 -0.1032  0.3617 -0.1388
97437W        W40453  30.384  21.822   4.940  0.3802  0.0479 -0.1394
97438W        W40454  34.415   1.076   4.656  0.0903  0.0787 -0.0039
97439W        W40455   4.805  26.658  14.094  0.0324  0.1708  0.2234
97440W        W40456   8.008  29.148  27.822  0.1352 -0.1613  0.0478
97441W        W40457   9.998   7.556   3.799  0.1810 -0.1390 -0.2729
97442W        W40458  13.388  25.066   0.411  0.0155  0.4372  0.0593
97443W        W40459  18.101   6.459  24.714  0.3286  0.1019 -0.3720
97444W        W40460  19.017  14.528   4.368 -0.5173  0.3266 -0.0565
97445W        W40461   8.170   1.501   4.001 -0.0717  0.1495  0.0484
97446W        W40462  11.925  21.927   6.032  0.0803  0.0669  0.0046
97447W        W40463   4.899   8.994   0.019  0.0299 -0.0641  0.1624
97448W        W40464  15.163   9.031   4.767  0.2334 -0.0972 -0.0259
97449W        W40465  17.410   0.261  20.760  0.0806  0.3617  0.0680
97450W        W40466   6.971  33.687  27.255  0.0221 -0.3073 -0.2253
97451W        W40467  11.263  26.756  15.769 -0.1903 -0.1287 -0.0657
97452W        W40468   5.744  31.583   8.298 -0.1319  0.0907 -0.1078
97453W        W40469  14.485   2.655  29.259  0.0081 -0.0854  0.0698
97454W        W40470   2.529  29.105   6.949  0.1644 -0.0432  0.1451
97455W        W40471  19.240  17.893  21.083 -0.0618  0.0064 -0.2096
97456W        W40472  17.771  27.295  24.999 -0.1525 -0.2303 -0.1565
97457W        W40473  33.850  33.981  28.946 -0.1828 -0.2487  0.1348
97458W        W40474  22.633   2.816   6.103  0.0694  0.1211 -0.1827
97459W        W40475  27.696  14.785  25.294 -0.1779  0.2354 -0.2507
97460W        W40476  29.682   0.211  28.013 -0.1843 -0.0578 -0.1840
97461W        W40477   3.203  28.476  28.049  0.2663  0.0594  0.0607
97462W        W40478   2.607  21.522  26.117  0.0746  0.1198  0.0111
97463W        W40479  21.659  18.407   9.117 -0.0028  0.0614 -0.0670
97464W        W40480  17.913   3.255   8.622 -0.0333 -0.0658  0.1949
97465W        W40481   2.886   3.284  25.358  0.0442  0.2111 -0.0313
97466W        W40482  26.490  25.420   7.513  0.0311 -0.0430 -0.0781
97467W        W40483  21.504  31.780  28.225 -0.1141 -0.0989 -0.0759
97468W        W40484  16.804   4.889   2.843  0.1033  0.1532 -0.1430
97469W        W40485   9.769  15.780  20.398 -0.0415 -0.0587 -0.1457
97470W        W40486  16.600  10.904  25.283  0.0122  0.1636  0.2606
97471W        W40487   0.544  10.178  23.387 -0.0110  0.0290  0.2784
97472W        W40488  10.929  33.281   7.322  0.1804 -0.1741 -0.1562
97473W        W40489   7.440  29.564  28.757  0.1350 -0.0230  0.1807
97474W        W40490  10.782  22.219  28.329 -0.0921 -0.0287 -0.6908
97475W        W40491  31.421  22.230  27.730 -0.0745  0.1289 -0.1023
97476W        W40492  24.685  25.443  23.999 -0.0246  0.2042 -0.2667
97477W        W40493  29.409  17.175   0.258 -0.3816 -0.1078 -0.3401
97478W        W40494   2.798   3.403   2.555  0.1466  0.1317  0.1964
97479W        W40495   2.815   2.653  28.917  0.3456  0.0927  0.1387
97480W        W40496   6.986   6.444  27.825  0.2020  0.0842  0.0180
97481W        W40497  31.887  30.359  27.163  0.1444  0.1052 -0.1330
97482W        W40498  15.235   1.837  22.484 -0.1976  0.1123  0.4929
97483W        W40499   6.252  30.465  20.601 -0.0989 -0.3298  0.0654
97484W        W40500   6.845  34.182  25.721  0.2111  0.1092 -0.3530
97485W        W40501  21.852  16.167   2.947  0.0904 -0.1998  0.0782
97486W        W40502  30.515  31.394  29.127 -0.1212  0.0089 -0.1933
97487W        W40503   6.034  33.718   1.024 -0.0328 -0.3943  0.2857
97488W        W40504  14.727   1.685   0.759  0.3874 -0.1609  0.4004
97489W        W40505  10.184   5.503   7.989  0.0141 -0.0251 -0.3929
97490W        W40506  13.491  10.455   9.403 -0.2649 -0.1652  0.1398
97491W        W40507   8.066  31.114  27.969 -0.4520 -0.3778  0.1125
97492W        W40508   2.896   4.670   1.499 -0.3699  0.0040 -0.2334
97493W        W40509  20.791  34.020  20.911  0.0405 -0.2391  0.0695
97494W        W40510  25.295  29.035  11.998  0.4078  0.2246 -0.3709
97495W        W40511  17.799  32.700  14.312 -0.1665  0.0978  0.0460
97496W        W40512  33.165  17.254   0.164 -0.1818  0.0059  0.1436
97497W        W40513   9.640  24.651   4.538  0.3138  0.0436  0.0860
97498W        W40514  29.235   4.825   4.053  0.0655  0.1553 -0.3357
97499W        W40515  24.747  32.760  23.424 -0.0102  0.0692  0.0501
97500W        W40516   4.569  19.194   0.012  0.1808 -0.0212  0.0256
97501W        W40517  15.354  28.289   4.120  0.3852  0.1371  0.0810
97502W        W40518  13.672  26.965  20.346  0.2049  0.1882  0.1262
97503W        W40519  23.899   0.384   5.958 -0.1106 -0.0812 -0.2402
97504W        W40520  27.602   1.226   2.495 -0.2143 -0.1360 -0.0260
97505W        W40521  28.468  29.735   4.883  0.0067  0.1189  0.4945
97506W        W40522  29.503  28.200  29.053  0.2310  0.3381  0.0440
97507W        W40523  11.288  22.925   7.632  0.1644 -0.0922 -0.0034
97508W        W40524  10.452   4.160  10.409 -0.2693  0.2391  0.1502
97509W        W40525   9.633  23.587  28.794  0.1825 -0.0404  0.2179
97510W        W40526  17.629  30.827   0.592  0.2110  0.0315  0.0496
97511W        W40527  25.295  30.857   9.211 -0.3329 -0.3895  0.1408
97512W        W40528   6.953  32.436   4.320  0.2016  0.0307  0.3538
97513W        W40529   7.940  29.709  20.145  0.0736 -0.1056 -0.0523
97514W        W40530  25.972   3.125  25.414  0.4375  0.0321 -0.0666
97515W        W40531   1.536   1.490   8.776  0.2239  0.3203  0.0047
97516W        W40532  22.960  11.157   6.123  0.1016 -0.1142 -0.0220
97517W        W40533  14.551   2.422   7.995  0.2863 -0.1570 -0.1564
97518W        W40534  29.124   0.961   3.446 -0.3787  0.0544 -0.0087
97519W        W40535  26.792   2.312  28.424  0.0195  0.1946  0.1723
97520W        W40536  20.418  30.540   1.119  0.1109  0.1119 -0.1474
97521W        W40537  18.033  18.678  13.115 -0.2003 -0.1310  0.0537
97522W        W40538  31.669  27.660  10.963 -0.2257  0.0338 -0.0323
97523W        W40539  10.807   2.923  10.099  0.3415  0.0569  0.1999
97524W        W40540  23.059  23.197   5.605  0.1208 -0.2504 -0.0487
97525W        W40541  12.663  11.270  22.061 -0.1142  0.0129  0.2092
97526W        W40542  26.415  28.546   7.576 -0.0420 -0.1986 -0.2916
97527W        W40543  21.515  17.142   4.955 -0.1471 -0.2260  0.0854
97528W        W40544   6.830   6.483   4.699  0.1874  0.2256 -0.4894
97529W        W40545  18.673  17.083   0.884  0.0373 -0.1091 -0.1171
97530W        W40546  22.964  11.199  25.226 -0.1558  0.1042 -0.2342
97531W        W40547  30.657   4.934  28.410 -0.0091 -0.1756  0.0147
97532W        W40548  31.469  18.553  18.255  0.0324  0.1044  0.1368
97533W        W40549  23.687   7.598   7.827  0.1005 -0.0430  0.2953
97534W        W40550   8.506  24.924   8.409 -0.1689 -0.1130 -0.0573
97535W        W40551  22.198  20.173   7.948  0.0301  0.3024  0.1707
97536W        W40552  20.879   4.444   9.972 -0.0851 -0.2272  0.0393
97537W        W40553  24.084  27.027  22.563  0.0883  0.0862 -0.4464
97538W        W40554   6.013  29.094   7.796 -0.0264 -0.0376 -0.2662
97539W        W40555  12.517  25.348   1.394 -0.4237 -0.0502 -0.1033
97540W        W40556  14.901  28.781   6.419 -0.0307  0.2924  0.1286
97541W        W40557  14.643  28.101   7.669  0.0959  0.2325  0.1678
97542W        W40558  22.843   5.274  10.736 -0.0180 -0.2530 -0.1585
97543W        W40559  11.158  12.403  28.435  0.1879 -0.2584  0.3764
97544W        W40560  28.034   6.731  10.627  0.2431 -0.1722 -0.0491
97545W        W40561  27.762   2.436   3.753 -0.0473  0.2763 -0.1795
97546W        W40562   8.178  16.808  27.870 -0.2312  0.1969 -0.0264
97547W        W40563  17.739  17.056  21.148  0.0189 -0.2379  0.0208
97548W        W40564  22.959  10.640   9.879 -0.1321 -0.0491  0.0789
97549W        W40565  19.153   6.859   5.401  0.1252 -0.0925  0.1208
97550W        W40566  22.641  17.900   3.751  0.0334 -0.1460 -0.1181
97551W        W40567   5.701   3.946  21.419  0.1474 -0.0772  0.1200
97552W        W40568   8.815   2.432  22.259  0.0559  0.1411  0.2147
97553W        W40569  34.072  16.924   5.138 -0.2033 -0.0655  0.0177
97554W        W40570  22.526  29.294  26.760 -0.4348  0.1741 -0.2413
97555W        W40571  24.366  14.065   8.776  0.0594  0.2454 -0.1581
97556W        W40572  23.371  12.508   2.847  0.0754  0.2123  0.0491
97557W        W40573  29.110  26.073  25.607  0.3741  0.3989  0.1414
97558W        W40574  31.094  34.399  15.587 -0.1124  0.0189 -0.1099
97559W        W40575  30.398   8.055  24.245 -0.3292  0.1271  0.3694
97560W        W40576  12.787   7.867   4.554 -0.1120 -0.1164 -0.2160
97561W        W40577   4.813  33.070   5.494 -0.2936 -0.3104  0.1143
97562W        W40578  17.558   9.380   7.022  0.0116  0.1412 -0.0335
97563W        W40579   8.150   4.792  15.482  0.1688  0.0611 -0.2706
97564W        W40580  28.218   5.030   4.707 -0.0318 -0.1405  0.3414
97565W        W40581  12.707  10.539  17.876 -0.1109 -0.2738  0.1134
97566W        W40582  20.737  29.202   0.274  0.4930 -0.1557  0.3851
97567W        W40583   4.201   1.571   6.351  0.1318  0.2219  0.1341
97568W        W40584  32.449   2.375   9.396 -0.1383 -0.2221  0.0398
97569W        W40585   0.832  14.173   8.421  0.1483  0.0872  0.1385
97570W        W40586   3.174  30.097   0.339  0.1884  0.0570 -0.1175
97571W        W40587   5.193   6.041   2.888 -0.1558  0.2035 -0.2324
97572W        W40588  14.505   4.242   9.585  0.0293  0.4973  0.1142
97573W        W40589  11.326  23.650   2.646 -0.0360  0.1327  0.0303
97574W        W40590  22.268  18.163  21.810  0.1167 -0.2434 -0.0811
97575W        W40591   2.809  11.040   5.547  0.0151  0.0150 -0.0711
97576W        W40592   5.173   5.554   4.872  0.2383 -0.1944  0.0996
97577W        W40593  32.913  29.935   6.403 -0.2281 -0.0773 -0.1000
97578W        W40594  12.762  34.222   8.743  0.1599  0.3339  0.0931
97579W        W40595  14.636  32.022   6.362 -0.0033  0.1321  0.0129
97580W        W40596  20.646  30.411  27.963 -0.1158  0.0092 -0.0259
97581W        W40597  13.415  32.461  10.049  0.1996  0.2245 -0.3179
97582W        W40598  31.559   0.114  28.403 -0.0623  0.0741 -0.1711
97583W        W40599   8.578   3.832  28.236 -0.3688 -0.5277  0.2487
97584W        W40600  34.664  32.879   4.240  0.1952 -0.4312  0.2036
97585W        W40601  15.256  29.196  10.484 -0.0459  0.0680 -0.1254
97586W        W40602  18.381   0.029   6.636 -0.0487  0.1680  0.0757
97587W        W40603   1.005  21.783   0.892  0.1466  0.0439 -0.0637
97588W        W40604   0.638  10.930   1.417 -0.1290 -0.0893 -0.0922
97589W        W40605  16.274  24.747  26.975 -0.0518 -0.0321 -0.0307
97590W        W40606  11.761  31.774   4.343  0.3451 -0.0613  0.0177
97591W        W40607   2.283   4.899  19.261 -0.1780 -0.1948 -0.1752
97592W        W40608   1.108  13.194  18.182 -0.1226 -0.1744 -0.0221
97593W        W40609  13.719  28.269  27.492  0.1896  0.1434  0.0152
97594W        W40610  18.751  12.227  14.186 -0.2432 -0.2547  0.2370
97595W        W40611  18.517   6.949  26.570  0.1676  0.4128 -0.0628
97596W        W40612   8.078  10.645   7.540 -0.1938  0.0163  0.2126
97597W        W40613   7.957  27.444  26.161  0.0344 -0.3277  0.2036
97598W        W40614  20.937   6.122   4.024 -0.0566  0.0312  0.1197
97599W        W40615  21.625   5.001   6.672  0.3111  0.0399 -0.0715
97600W        W40616  20.984  29.904   8.365 -0.0645  0.1463 -0.1282
97601W        W40617  31.251   5.999   3.204  0.2186 -0.2933 -0.1310
97602W        W40618  33.418  15.822  22.972  0.1595 -0.2209 -0.2153
97603W        W40619  24.547   1.554  27.690  0.0136 -0.0631 -0.2438
97604W        W40620  11.024  30.640  25.240 -0.1546 -0.2426 -0.1647
97605W        W40621  13.114   3.007   6.177  0.1000  0.2145 -0.0455
97606W        W40622  14.415  11.096  25.137 -0.0937  0.4702 -0.3563
97607W        W40623  20.111  25.077   4.363 -0.0645  0.3918  0.0423
97608W        W40624   7.404  34.497  27.513 -0.0312 -0.2010  0.0514
97609W        W40625  33.221   1.339  26.178 -0.0912  0.1580 -0.2096
97610W        W40626  34.364  27.101  23.714  0.0629  0.1846  0.1639
97611W        W40627  21.286  23.092   4.429 -0.1094 -0.0491 -0.1396
97612W        W40628  16.664   2.291   3.359 -0.2361  0.2193  0.3180
97613W        W40629  19.279  13.580   7.601  0.1813 -0.0634  0.1301
97614W        W40630  19.435  21.329   1.444 -0.2550 -0.0749  0.2720
97615W        W40631  12.413  29.184  13.552 -0.0333 -0.0633 -0.0964
97616W        W40632  21.166   0.353  18.172 -0.2403 -0.0809 -0.0651
97617W        W40633  23.513  13.784   6.434 -0.0350  0.4477  0.1795
97618W        W40634  34.507  17.845  27.746 -0.0557 -0.1767  0.0466
97619W        W40635   8.179  18.000   3.532  0.0357 -0.2138 -0.3178
97620W        W40636  24.732  33.562   3.019  0.1299 -0.0408 -0.0627
97621W        W40637  19.736  31.953  25.163 -0.0076 -0.0448 -0.1493
97622W        W40638  29.692  28.882   7.475  0.2973  0.1006  0.2349
97623W        W40639  28.618   3.380  16.307 -0.1036  0.3283 -0.1382
97624W        W40640  32.717  24.140   6.948  0.1053  0.0108 -0.4157
97625W        W40641  18.163  12.774   2.273 -0.2500 -0.1799  0.0425
97626W        W40642  19.169   4.476   9.137  0.2594 -0.0936 -0.1611
97627W        W40643  30.490   0.814   0.538  0.0205 -0.3549  0.2175
97628W        W40644  29.256  23.018   3.254 -0.0374  0.0947 -0.1791
97629W        W40645   0.235  21.851   4.240  0.0679  0.1800  0.0315
97630W        W40646   5.284  34.434  24.538  0.0036 -0.0633  0.3239
97631W        W40647  18.156  25.221   1.803 -0.1056 -0.2565 -0.1058
97632W        W40648   9.532  24.102  17.089 -0.0146  0.1056  0.0226
97633W        W40649  11.654   2.644  25.831  0.3204  0.2069  0.1903
97634W        W40650  17.258  28.318   0.662 -0.0572  0.2223  0.0735
97635W        W40651  16.247   0.275   8.590  0.0232 -0.1695  0.2079
97636W        W40652   5.692  26.588   6.478 -0.1314  0.2021 -0.2666
97637W        W40653   7.151  27.155   7.865 -0.0703  0.1836  0.0612
97638W        W40654   4.609  28.206  24.814  0.0104  0.1976 -0.4600
97639W        W40655  33.110   0.937  22.443 -0.3134 -0.0608  0.0672
97640W        W40656  19.119   6.142   1.959 -0.0847  0.1678  0.3733
97641W        W40657  12.424   2.962   8.468  0.1525 -0.0353 -0.0623
97642W        W40658  32.165   8.468   8.550 -0.2325 -0.0937 -0.1235
97643W        W40659   5.821  12.461   6.891 -0.1456  0.0419  0.4335
97644W        W40660  13.478  10.086   0.420 -0.0185 -0.6537  0.1032
97645W        W40661  18.369  32.652   9.915 -0.3636  0.3283 -0.0030
97646W        W40662   8.086   4.276  26.897  0.0460  0.1158 -0.0711
97647W        W40663  26.385  33.205   3.068  0.1319  0.1069 -0.0260
97648W        W40664  22.761   9.869   9.703 -0.1145 -0.3228  0.2612
97649W        W40665  21.350  25.704   3.281  0.1442 -0.2271 -0.2707
97650W        W40666   4.904  30.851   2.320 -0.0292  0.1861 -0.0710
97651W        W40667  13.078   4.156   8.205 -0.4222  0.0490  0.0007
97652W        W40668   8.955  28.247  26.430 -0.0954  0.0366 -0.3978
97653W        W40669  15.352  33.114   2.615  0.1248  0.0579  0.0101
97654W        W40670  21.107  30.359   8.056 -0.1420 -0.0770  0.2591
97655W        W40671  15.010  17.332  20.969 -0.0421  0.1388  0.1846
97656W        W40672  11.325   3.655   7.785 -0.1008 -0.1143 -0.1112
97657W        W40673   3.384  10.154  21.014 -0.0392  0.0993  0.0084
97658W        W40674  15.791  17.368  21.211  0.2539  0.5031 -0.0293
97659W        W40675  24.330   7.654   9.153  0.4822 -0.1779 -0.2544
97660W        W40676   8.321   1.864   5.344  0.2144  0.0543 -0.2657
97661W        W40677  20.530   2.994   8.041  0.1816 -0.1511  0.0449
97662W        W40678  24.938  30.673  20.691 -0.1456  0.2179 -0.1849
97663W        W40679  14.008  19.919   5.975 -0.0992 -0.0305  0.1082
97664W        W40680  16.556   6.837  25.107  0.1134  0.1956  0.1155
97665W        W40681  14.006  14.332  26.337 -0.1014  0.0504  0.0230
97666W        W40682  15.879  13.892   6.032 -0.2051  0.0874 -0.0688
97667W        W40683  15.927   7.938   8.665 -0.0805 -0.0622  0.0642
97668W        W40684  14.806  11.354  24.778  0.1768 -0.2109  0.0327
97669W        W40685  10.544  33.329   5.474 -0.0311 -0.3288  0.2202
97670W        W40686  24.232  14.958  24.118 -0.1380 -0.2521  0.2405
97671W        W40687  18.921   2.989   7.506 -0.0475  0.5596  0.0863
97672W        W40688   8.041  27.423   5.979  0.0759 -0.1766 -0.0045
97673W        W40689  30.421  31.928  11.792  0.0951  0.3793 -0.1133
97674W        W40690  31.390   5.584   9.847 -0.2713 -0.1808  0.0242
97675W        W40691  12.158  34.748   3.907  0.0854 -0.0354  0.0195
97676W        W40692   5.611  10.325   0.198 -0.3694  0.4395  0.0298
97677W        W40693  30.406  26.750   7.621 -0.0419  0.3814  0.1815
97678W        W40694  29.223  23.634  16.426  0.2317 -0.0373 -0.0632
97679W        W40695  15.644  10.300   5.538  0.0282 -0.0178  0.1321
97680W        W40696   2.023  16.418  29.268  0.1290  0.2562 -0.0192
97681W        W40697   4.143  30.405   7.610  0.1503 -0.0981 -0.2563
97682W        W40698  15.481  20.903  23.055 -0.2256 -0.1594  0.2933
97683W        W40699  20.173  28.123  22.842 -0.0934  0.1754 -0.2488
97684W        W40700  15.291  29.557   9.036  0.2307  0.0675 -0.0359
97685W        W40701  25.679  17.694  22.248 -0.1079  0.4288  0.3519
97686W        W40702  24.197  33.811   3.845 -0.0405 -0.1762  0.0367
97687W        W40703  17.418  23.415   5.839  0.0624 -0.0062  0.4950
97688W        W40704  11.871   7.574   9.293 -0.2595 -0.1303  0.0123
97689W        W40705   9.598   5.535  24.416 -0.0848 -0.1432 -0.5924
97690W        W40706  19.644  29.111  27.871  0.0686 -0.0457 -0.2961
97691W        W40707   3.054  30.454  10.405 -0.2610 -0.0343  0.0280
97692W        W40708   9.354   7.649  28.454  0.0679  0.1519 -0.1869
97693W        W40709  13.747  30.920   2.155  0.0570 -0.3564  0.1220
97694W        W40710  12.781  29.645  29.205  0.0344  0.0170 -0.0932
97695W        W40711   3.337  31.376   8.413 -0.0632 -0.0280 -0.0079
97696W        W40712   6.466  27.029   5.191  0.0830 -0.0611  0.0288
97697W        W40713  31.800  31.516  10.038  0.0037  0.3853 -0.0942
97698W        W40714  20.677  15.595   2.744  0.3235  0.0505 -0.1476
97699W        W40715   5.211  24.579   6.853  0.0401 -0.1463 -0.1526
97700W        W40716  13.296  33.095  23.146  0.3892 -0.0261 -0.3044
97701W        W40717   8.819  24.503  29.042 -0.1148 -0.2865  0.2500
97702W        W40718   9.222  24.858   5.438 -0.0892 -0.3151 -0.1851
97703W        W40719  22.953  33.175  17.325  0.0920 -0.1879 -0.1961
97704W        W40720  10.806  24.722   0.444 -0.0912  0.0456  0.1691
97705W        W40721   7.654  29.655  29.257  0.1039 -0.2991  0.2188
97706W        W40722  33.018  32.402   0.273  0.1628  0.1339  0.2663
97707W        W40723  17.560  16.598   4.914  0.0511 -0.0365  0.1286
97708W        W40724  14.258   0.043  25.201 -0.1674  0.0250  0.2217
97709W        W40725   0.212  30.196  10.090 -0.0359  0.0391  0.0170
97710W        W40726  23.133  26.655   9.385 -0.0803 -0.1540  0.1569
97711W        W40727  15.160   5.656   3.103  0.2231  0.0614  0.0323
97712W        W40728  12.529  33.099   0.139 -0.1449  0.0273  0.3541
97713W        W40729  34.171  30.273   6.047  0.3229 -0.4031 -0.1524
97714W        W40730  34.107   6.701  23.017  0.1113 -0.4608 -0.1432
97715W        W40731  13.291  23.155  26.828  0.0036  0.0097 -0.1278
97716W        W40732   4.737  23.870  23.870 -0.2792  0.3588  0.0163
97717W        W40733  21.284   6.711  10.109 -0.0493  0.1988  0.0660
97718W        W40734  21.809  33.766   2.703  0.0024  0.1432 -0.0942
97719W        W40735   0.687  31.586   4.890 -0.0330 -0.1491  0.0599
97720W        W40736  13.201   2.786   1.174 -0.0228  0.3117  0.1751
97721W        W40737  29.457  13.472   1.560 -0.0167 -0.0509  0.2561
97722W        W40738  17.538   5.467   4.182  0.0375 -0.0316  0.0823
97723W        W40739  13.563   7.592   0.080  0.1207 -0.1895 -0.1990
97724W        W40740  32.079   4.326   5.401  0.2859  0.1207 -0.2033
97725W        W40741  31.847  19.092  26.630  0.3724  0.1403 -0.0086
97726W        W40742  17.429  10.784  24.806  0.0540  0.1794 -0.0321
97727W        W40743   3.597  31.374  27.009 -0.1078  0.2429 -0.1073
97728W        W40744   3.313  32.474   5.132 -0.0230  0.0051 -0.0841
97729W        W40745   5.343   3.705   1.293 -0.2648 -0.1192 -0.0545
97730W        W40746   9.736  22.623  28.510 -0.0206  0.0862  0.1966
97731W        W40747  15.695   5.692   6.651  0.0113 -0.0447 -0.1323
97732W        W40748   2.334  25.846  24.549  0.5218 -0.1378  0.3672
97733W        W40749   4.227   5.951   5.877  0.1687  0.1652  0.1278
97734W        W40750  19.248  14.133   1.323  0.2691  0.2695 -0.0649
97735W        W40751   7.359  17.629   6.042 -0.1058  0.3639  0.2377
97736W        W40752  18.378  34.683   9.851 -0.0491 -0.1744  0.1466
97737W        W40753  10.583  10.644   5.978  0.4708 -0.3574  0.1777
97738W        W40754  15.381  19.076  14.566 -0.3403 -0.0914 -0.2620
97739W        W40755   8.702   8.115  29.301  0.0535 -0.1206 -0.2118
97740W        W40756  11.415  21.335  26.173 -0.0033  0.0441  0.0100
97741W        W40757  32.592  28.603   0.400  0.0566  0.1951 -0.0783
97742W        W40758   5.873   4.449   9.214 -0.0560  0.1414  0.3443
97743W        W40759   2.890  20.589   0.437  0.0399  0.2233  0.1962
97744W        W40760  14.411   1.652   4.497  0.1479 -0.2495  0.0376
97745W        W40761  16.376   5.800   3.163 -0.2151 -0.1542  0.0806
97746W        W40762  19.998   0.971  10.244 -0.2184 -0.0897  0.0357
97747W        W40763  15.830  25.881  28.891  0.0554 -0.4483 -0.1742
97748W        W40764  17.673  17.245  19.353 -0.6047  0.3539 -0.1332
97749W        W40765  15.127   0.962  26.950  0.2106 -0.0296 -0.1371
97750W        W40766   6.436   6.312   8.229 -0.1855 -0.0283 -0.0383
97751W        W40767  13.471  24.109   7.548  0.2235  0.2130  0.0758
97752W        W40768  20.849   6.093   2.399  0.1297  0.2183 -0.0930
97753W        W40769  12.480  16.743   4.579 -0.0683  0.1925 -0.1580
97754W        W40770   7.886  34.229   2.919  0.4443 -0.0006 -0.2411
97755W        W40771  20.718  27.585  25.692  0.0016  0.2072  0.1069
97756W        W40772   0.869  34.061   6.772 -0.2959  0.0898 -0.3014
97757W        W40773  12.941  10.075  24.076 -0.0465 -0.1970  0.2364
97758W        W40774  10.615  10.114   8.235  0.2902  0.1171 -0.1681
97759W        W40775  25.787  13.813  28.653 -0.1329 -0.0971 -0.1322
97760W        W40776  33.845   4.834   4.607  0.1967 -0.1858  0.2048
97761W        W40777   9.264  28.137   5.696 -0.0584  0.0724  0.1171
97762W        W40778   5.854  30.105   7.304  0.0948  0.1064  0.0046
97763W        W40779   8.612  11.726  16.083 -0.0586  0.0116  0.0232
97764W        W40780  10.687   5.282  21.450 -0.1133  0.1194 -0.2144
97765W        W40781  17.540   2.329   7.152 -0.1134 -0.1574 -0.2137
97766W        W40782  23.590   0.668   1.473  0.0537 -0.0695 -0.1314
97767W        W40783   2.403  26.336  22.356 -0.1029  0.2227 -0.2435
97768W        W40784  29.640  14.277   2.823  0.3572  0.1217  0.0779
97769W        W40785  17.666  28.548   4.972 -0.0072 -0.0120  0.2196
97770W        W40786  10.374  27.708   5.678  0.0176  0.2876 -0.1974
97771W        W40787   3.017  32.805   1.445 -0.1823 -0.2209 -0.1396
97772W        W40788  17.928   4.881   0.845 -0.0346 -0.1607 -0.2563
97773W        W40789  18.869  29.676  25.514  0.0401  0.1407  0.2487
97774W        W40790  18.792   5.905   9.183 -0.2109  0.2300 -0.1942
97775W        W40791  14.467  29.709   8.673  0.1970 -0.1419  0.2144
97776W        W40792  12.228   5.556   3.730 -0.0130 -0.0094 -0.0075
97777W        W40793  16.157  10.371   7.458  0.0541  0.0305  0.0462
97778W        W40794   7.767   6.034   9.386  0.2711  0.1933  0.0604
97779W        W40795   0.600   6.310   3.626  0.2068  0.0458  0.2987
97780W        W40796   5.101  32.839   0.768  0.1466  0.0135  0.0186
97781W        W40797  34.150   6.428   5.975  0.2130  0.1774 -0.0422
97782W        W40798  22.774  12.589   8.910  0.2192  0.3066  0.1355
97783W        W40799  23.790  16.760  28.563 -0.3136 -0.0656 -0.2630
97784W        W40800  10.903  23.240   2.528 -0.0593  0.0019 -0.1767
97785W        W40801   3.421   2.479   1.469 -0.3227  0.0387 -0.0420
97786W        W40802  14.138  14.117   7.497 -0.0715  0.0076  0.3201
97787W        W40803  13.309  11.471   6.402 -0.1531 -0.0647 -0.1173
97788W        W40804  10.648  24.079  26.502  0.1752  0.0641 -0.0271
97789W        W40805  17.073  22.533  18.927  0.1143  0.2205 -0.2671
97790W        W40806  18.371   0.449  24.174  0.0701 -0.3469 -0.2567
97791W        W40807  22.923  31.757   3.807 -0.2551  0.0162  0.1852
97792W        W40808  17.676  29.507   4.259  0.2713  0.0147 -0.1390
97793W        W40809   2.410   2.091  17.138 -0.0130 -0.1630 -0.0651
97794W        W40810  23.498  14.477  28.738  0.2800  0.0344  0.1321
97795W        W40811   1.610  23.363   5.804  0.1956 -0.1092  0.0608
97796W        W40812  26.406  13.769  26.118  0.1507 -0.3319  0.2161
97797W        W40813  11.380   2.115   8.544 -0.3289  0.0497  0.0003
97798W        W40814   9.876  21.012   8.132  0.0757 -0.0076 -0.1328
97799W        W40815  20.829  28.359   6.988  0.0772 -0.1589 -0.2095
97800W        W40816  23.314  34.594   6.261 -0.1552 -0.0951 -0.0665
97801W        W40817  25.121  23.057   2.900  0.0434 -0.2556  0.0176
97802W        W40818  24.045   9.369   3.843 -0.2832  0.0551 -0.1640
97803W        W40819   2.793   0.871   7.097 -0.1509  0.0808  0.1802
97804W        W40820  10.079  20.572  14.423 -0.1181  0.2535  0.1968
97805W        W40821  15.407  17.652  27.844 -0.0062  0.1884  0.0241
97806W        W40822  15.622  28.851   3.095 -0.3811  0.1207 -0.0489
97807W        W40823  20.913   1.724   8.915  0.1572  0.0461  0.2949
97808W        W40824  16.285  33.985   2.848 -0.3378 -0.0792 -0.1450
97809W        W40825  10.507  34.691   2.951  0.0040 -0.0429  0.0253
97810W        W40826  33.153  28.216   1.564  0.1046 -0.0404  0.1995
97811W        W40827  25.219  19.688   5.153  0.2279 -0.0322 -0.2364
97812W        W40828  22.117   1.051   8.514  0.0577 -0.0634 -0.0071
97813W        W40829   5.097   7.734   3.478 -0.0125  0.1539 -0.1259
97814W        W40830  28.173   5.950   4.663 -0.0751 -0.0544 -0.1054
97815W        W40831  16.453  30.978   2.480  0.0351 -0.4107  0.0873
97816W        W40832   8.968  22.928  17.216  0.2996 -0.2539 -0.1274
97817W        W40833  17.914  24.735   4.725  0.1440 -0.1017  0.0653
97818W        W40834   4.169  17.804   3.951  0.1319  0.1157  0.2374
97819W        W40835  23.816   3.832   7.172  0.2451 -0.0853 -0.1487
97820W        W40836   9.489  12.943  28.974 -0.2106 -0.0683 -0.1788
97821W        W40837   5.649   5.998  27.166  0.2320 -0.0046 -0.1752
97822W        W40838   4.497   6.173  26.804  0.1308  0.0446 -0.1840
97823W        W40839  26.765  17.213   5.124  0.0464  0.0055 -0.1665
97824W        W40840  34.414   6.537  24.764 -0.0230 -0.2646 -0.0123
97825W        W40841  13.265   9.371  28.893 -0.2593  0.1730  0.1195
97826W        W40842  21.847  14.553   7.624 -0.2333  0.1526  0.1268
97827W        W40843   9.239  11.434  28.523  0.1442  0.0080 -0.2290
97828W        W40844   9.385   5.856   7.342  0.1458 -0.0240  0.2525
97829W        W40845  15.825   7.750   7.125 -0.4038 -0.2112  0.0885
97830W        W40846  22.337  25.852   7.256  0.2768 -0.1115  0.0878
97831W        W40847  27.378   0.423  18.742 -0.0804 -0.3069 -0.0791
97832W        W40848   7.422  10.596  28.495  0.0541 -0.0218 -0.0183
97833W        W40849   3.055  13.645   8.189  0.0407 -0.1905  0.1402
97834W        W40850   2.865   5.493  26.749 -0.2529  0.0818 -0.4433
97835W        W40851  34.540   4.115  10.109  0.0199  0.2281 -0.0287
97836W        W40852  18.858  25.262  19.530  0.0636 -0.0511  0.2546
97837W        W40853   0.192   9.768  27.888  0.1553  0.2193  0.2530
97838W        W40854  28.128   3.630   7.113  0.0741  0.0504 -0.1618
97839W        W40855  22.296  25.908   0.117  0.1733 -0.2367  0.1737
97840W        W40856  23.535  20.884   3.597  0.3999  0.2497 -0.0261
97841W        W40857  11.657  34.686  26.500 -0.3880 -0.2491  0.0457
97842W        W40858  12.611  10.038  14.309 -0.0437 -0.2103 -0.1152
97843W        W40859  16.140   4.736   2.237  0.0969 -0.1027 -0.0224
97844W        W40860  23.935  20.621   9.418  0.0275  0.1710  0.2013
97845W        W40861  16.748   2.809  26.085 -0.2805 -0.1277 -0.0863
97846W        W40862  13.764  31.956  22.275  0.2060  0.0353  0.3367
97847W        W40863   4.837   0.487   8.910  0.0742 -0.1494 -0.1176
97848W        W40864  32.717   2.832   6.644  0.0525 -0.2683 -0.0564
97849W        W40865   9.803  33.768   0.699 -0.0712 -0.0122 -0.1902
97850W        W40866  30.703  18.689   9.560  0.1078 -0.1515  0.0705
97851W        W40867  15.770  30.176   7.472  0.0484  0.1983 -0.0583
97852W        W40868  13.940   5.018   8.945  0.1588  0.1786 -0.0483
97853W        W40869   4.963  29.038   8.773  0.1791  0.0461  0.0573
97854W        W40870  12.691  21.994  14.169  0.4794  0.1146  0.0828
97855W        W40871  11.237  27.807   5.396 -0.0531 -0.0946 -0.2875
97856W        W40872  14.481   7.153   1.712  0.1093  0.0241 -0.0951
97857W        W40873  25.140   4.485   1.717 -0.0147 -0.0290 -0.0270
97858W        W40874   2.751  31.720   8.818  0.0064 -0.2660 -0.1522
97859W        W40875  16.671   3.765   8.763 -0.1136  0.3360 -0.0733
97860W        W40876  21.612  16.782  27.786 -0.0413  0.0084  0.1110
97861W        W40877  14.173   6.038   6.393  0.0407 -0.0999  0.1207
97862W        W40878   5.295   3.096   0.733 -0.2200 -0.0217  0.0452
97863W        W40879   0.567  33.989   7.527  0.0359 -0.0908  0.2576
97864W        W40880   5.101   6.864   5.921 -0.1878 -0.1283 -0.1268
97865W        W40881   4.936  33.756   2.472  0.0604  0.1612 -0.1347
97866W        W40882   0.179  25.800   3.928  0.1294 -0.1472  0.0457
97867W        W40883   5.992  24.808  21.428  0.1666 -0.0270  0.0289
97868W        W40884  25.472  17.527  22.660 -0.1366 -0.1671 -0.1280
97869W        W40885  15.648   7.284   0.117 -0.3115  0.0226 -0.1301
97870W        W40886  14.488  30.581   7.665  0.2476  0.0870 -0.2219
97871W        W40887   6.877   5.457   7.967  0.3181  0.1364  0.1393
97872W        W40888  16.078  33.312   7.261  0.1485  0.2736 -0.5343
97873W        W40889  33.808   9.139  24.863 -0.3051 -0.0465 -0.1595
97874W        W40890  13.066  19.662  21.529 -0.1821 -0.2646 -0.0170
97875W        W40891  12.908  28.972  23.535 -0.3885 -0.2210  0.1200
97876W        W40892   8.482   2.956   3.777  0.1066  0.0005  0.1700
97877W        W40893   0.687   6.539   9.058  0.0185  0.0069 -0.1363
97878W        W40894  18.005  26.177  29.192 -0.0384  0.2404  0.0129
97879W        W40895  15.949  34.538  28.787 -0.3166 -0.0466  0.0827
97880W        W40896  13.693  33.738   0.606  0.1849  0.0919 -0.1719
97881W        W40897  17.987   5.268   6.288  0.0044 -0.0005  0.2233
97882W        W40898  11.683  29.509   1.542 -0.0753 -0.1034 -0.1646
97883W        W40899  33.479  24.810   4.218  0.0725 -0.0011  0.2443
97884W        W40900   5.136  18.827  21.161 -0.2774  0.0201 -0.1550
97885W        W40901  28.164   3.367  22.715  0.0242  0.3071 -0.2069
97886W        W40902   9.191  30.850   3.898 -0.4889 -0.0232 -0.1659
97887W        W40903   9.907  29.218   9.335  0.1346  0.0692 -0.1213
97888W        W40904   2.311  11.398  24.692  0.1598 -0.2677 -0.0419
97889W        W40905  15.245  20.212  27.873  0.0072  0.0531  0.0505
97890W        W40906  10.989  14.773  23.564 -0.1071 -0.0692 -0.2305
97891W        W40907  18.138  18.309   1.394  0.1370 -0.1166 -0.1012
97892W        W40908  23.608  10.934  28.915  0.1226 -0.0959  0.0986
97893W        W40909  18.015  30.125   3.167  0.0650  0.4596  0.2505
97894W        W40910  13.411  19.903   1.294 -0.1927  0.2834 -0.2698
97895W        W40911  34.003   2.956  19.621  0.1068 -0.0730  0.0880
97896W        W40912   7.842   5.898   1.742 -0.2087  0.0134 -0.2023
97897W        W40913  27.022  32.599  27.137 -0.3681 -0.0749 -0.1379
97898W        W40914   0.902  18.564   4.355  0.0595 -0.0025 -0.1595
97899W        W40915   8.899  14.670  27.851 -0.0376  0.1672  0.0767
97900W        W40916  18.022  16.620   2.824 -0.0390  0.2763  0.2300
97901W        W40917   5.764   4.581  26.609  0.0956 -0.0091 -0.1134
97902W        W40918   5.899   8.498   3.288 -0.1608  0.1471 -0.1119
97903W        W40919  19.561  20.989   2.879  0.0479  0.1089  0.1560
97904W        W40920  12.819   2.727  28.327  0.0867 -0.0183  0.2026
97905W        W40921  29.958   7.057  26.134 -0.0247 -0.2875 -0.2032
97906W        W40922   2.826   4.459  17.671  0.1270  0.0182 -0.1085
97907W        W40923  13.197   4.210  26.316 -0.1189  0.3023  0.0361
97908W        W40924   7.148  12.098   4.483  0.1144 -0.0492  0.0908
97909W        W40925   6.467  13.588   2.071 -0.0698 -0.0561  0.0858
97910W        W40926   5.319   2.039  24.026  0.1355 -0.0091 -0.0915
97911W        W40927  11.193  25.465   5.039  0.0139 -0.3345  0.1232
97912W        W40928  29.194   7.433  20.554  0.0477  0.1636  0.2408
97913W        W40929  25.846   6.255  22.042 -0.0365  0.1394  0.1080
97914W        W40930  12.663   5.217  26.936  0.1060  0.0410  0.0538
97915W        W40931  19.756   3.509  24.810  0.0343 -0.1222 -0.0400
97916W        W40932  30.832  12.910  19.042  0.0565  0.0545  0.0363
97917W        W40933   7.816  32.390  25.422 -0.1091 -0.2231 -0.2318
97918W        W40934  25.021   8.405  20.374  0.3437  0.0240  0.0842
97919W        W40935  17.217  11.444   5.646  0.0308  0.0656 -0.1095
97920W        W40936  21.776   9.504  16.735  0.1187  0.0195 -0.1699
97921W        W40937  30.066  11.518  23.285  0.0159  0.0714 -0.0777
97922W        W40938  24.682   2.479  22.174 -0.2555 -0.0798  0.1121
97923W        W40939  17.734   3.284   1.717  0.0857 -0.1300  0.0705
97924W        W40940  13.362   0.631   2.130  0.3436  0.2549  0.2703
97925W        W40941   6.823  27.224  26.901 -0.1535  0.1421  0.0384
97926W        W40942  10.866  12.497  18.804  0.0373  0.0952 -0.1224
97927W        W40943  26.984   3.293  15.400 -0.3086 -0.1886 -0.1174
97928W        W40944   8.174  26.464  19.215  0.0094  0.1726  0.0446
97929W        W40945   1.470  12.337  26.598  0.0707  0.3131 -0.0679
97930W        W40946  24.552  10.453   0.089  0.2893  0.0193 -0.0747
97931W        W40947  32.274  12.592  23.458  0.1112  0.0475 -0.4486
97932W        W40948  19.672  31.568  20.830 -0.2228 -0.3367 -0.0950
97933W        W40949  15.984  12.287   2.718  0.1295  0.1425  0.1467
97934W        W40950   5.968  31.609   2.876 -0.1560  0.0568  0.1148
97935W        W40951  22.292   3.724   2.109  0.0942 -0.0852  0.0102
97936W        W40952  16.816  10.797  24.091 -0.2088  0.0620 -0.1437
97937W        W40953  17.490   1.086  26.799 -0.0649 -0.1399 -0.1857
97938W        W40954  16.166   3.831  29.027 -0.1398  0.0218 -0.0275
97939W        W40955  13.338  31.084   2.591  0.1845 -0.1455 -0.1799
97940W        W40956  15.568   0.479   5.506 -0.4053 -0.0464  0.1254
97941W        W40957  12.951  15.630   5.834  0.0352  0.1159 -0.0750
97942W        W40958  19.202  23.659   6.128 -0.0751 -0.1944 -0.0008
97943W        W40959  27.187   7.573  27.123 -0.1036 -0.2938 -0.3005
97944W        W40960  30.652  15.599  24.242 -0.0349  0.0636  0.2341
97945W        W40961  27.462  12.277  10.580  0.0914  0.2569  0.0019
97946W        W40962  15.248  12.233  18.202  0.0787 -0.3265  0.0372
97947W        W40963  13.284  27.399   1.169  0.1943  0.2652 -0.0348
97948W        W40964   9.431  22.657  22.969  0.1364  0.1698  0.2707
97949W        W40965  25.272   4.645  17.459  0.3022  0.0379  0.3715
97950W        W40966   4.749   5.758  29.221  0.0564 -0.0481  0.0292
97951W        W40967  33.994   3.770  10.876 -0.1139 -0.2976  0.0711
97952W        W40968  14.848  27.433   1.031  0.1199  0.1379 -0.1622
97953W        W40969  31.084   1.511   9.524 -0.0338 -0.0702 -0.1702
97954W        W40970  12.641  17.888  23.074  0.0851 -0.0658  0.1256
97955W        W40971  15.566  30.869  15.823 -0.2160  0.0234 -0.0416
97956W        W40972  26.860  13.810   9.882 -0.0676  0.0409  0.0486
97957W        W40973  22.410  19.499   2.141 -0.1344 -0.0715 -0.0678
97958W        W40974   2.504  32.088  26.995  0.2272  0.0765 -0.0319
97959W        W40975  26.548  24.933   9.665 -0.0831 -0.1355  0.2958
97960W        W40976  22.187  16.144  21.039  0.1481  0.0361 -0.0518
97961W        W40977  26.911   4.595   1.781 -0.1513  0.1545  0.0461
97962W        W40978  33.420  33.492   9.476 -0.1058  0.1581 -0.1153
97963W        W40979  16.120   7.016  26.483  0.4137 -0.1917 -0.1058
97964W        W40980  18.662  24.019   4.518 -0.1048  0.1618 -0.1764
97965W        W40981  11.846   1.127  21.761 -0.2525  0.1612 -0.2475
97966W        W40982  14.893  33.999   9.327  0.1768 -0.1363 -0.0513
97967W        W40983   4.858  26.557   6.888  0.0028  0.2229  0.2235
97968W        W40984  20.720  29.989   8.804 -0.1509 -0.1243  0.2267
97969W        W40985  15.018  11.663  22.753  0.0716  0.2303 -0.0620
97970W        W40986  10.019   8.971   8.942 -0.2433  0.0592 -0.0334
97971W        W40987  32.225   4.258   1.900 -0.1604 -0.3581  0.0441
97972W        W40988  24.671   4.468   0.755  0.0763  0.0697  0.1345
97973W        W40989   5.691  15.434  13.820  0.0062  0.0460  0.0984
97974W        W40990  17.509  26.624   1.321 -0.0835  0.3334 -0.0330
97975W        W40991   8.743   5.730  16.982  0.1271  0.2246  0.1452
97976W        W40992  15.198  27.501   1.916 -0.1009 -0.0804  0.1653
97977W        W40993  11.803  33.250  22.145 -0.2016  0.1479  0.0372
97978W        W40994   7.792  12.613   2.522 -0.2145 -0.0918 -0.3089
97979W        W40995  22.801  14.436   8.919 -0.1872  0.0551 -0.3043
97980W        W40996   7.250  29.572   5.571 -0.1023  0.3304 -0.0305
97981W        W40997   4.231   4.637   4.010  0.1310  0.0548 -0.0798
97982W        W40998  14.451  23.147  26.325 -0.0184 -0.0654 -0.0754
97983W        W40999   8.554   9.711   6.500 -0.0405 -0.0101  0.3064
97984W        W41000   3.500  28.918   5.637  0.3005 -0.0433 -0.1407
97985W        W41001  18.269   1.453   8.273 -0.0722  0.1003  0.0557
97986W        W41002   0.033  28.726  10.049  0.0917 -0.0157  0.0075
97987W        W41003  30.104  17.248  18.397  0.1207  0.2599 -0.1752
97988W        W41004   2.538   0.424   3.196  0.0941 -0.1132 -0.1499
97989W        W41005   8.759  26.967  14.158  0.0818  0.2139  0.1072
97990W        W41006  19.450  17.749   2.593 -0.0367 -0.3326 -0.0163
97991W        W41007  33.873  32.678  19.868 -0.2292 -0.0470 -0.0997
97992W        W41008  20.738   6.349  29.232 -0.0095  0.2502 -0.3252
97993W        W41009  17.543  32.667  20.871  0.2273 -0.4076  0.1233
97994W        W41010  19.242   9.984  21.347 -0.2130 -0.1337 -0.0964
97995W        W41011  23.717   0.704   3.665  0.0584  0.0519  0.0762
97996W        W41012  23.086   3.274   9.018  0.1946 -0.1905 -0.1267
97997W        W41013   3.974  27.910   0.157  0.2982  0.2135  0.5261
97998W        W41014  13.843   3.410  25.137 -0.0955 -0.2234  0.0513
97999W        W41015   8.213   9.227   0.139  0.0157  0.1634 -0.2605
98000W        W41016  32.224  22.219  27.253  0.2759 -0.0976  0.0796
98001W        W41017  10.408  28.491   3.764 -0.1390 -0.0949  0.4112
98002W        W41018  12.443  15.206  23.901 -0.0673  0.1249  0.0116
98003W        W41019  28.037  16.841   8.731 -0.2275  0.3536  0.1328
98004W        W41020  10.926   7.921   0.463  0.1722 -0.3052  0.1032
98005W        W41021  10.742   3.358  22.894 -0.3261  0.2748  0.2075
98006W        W41022  32.782  25.391   2.170 -0.1191  0.0323 -0.1943
98007W        W41023  12.861  28.433  22.948  0.3554  0.1407 -0.0387
98008W        W41024   9.003  11.086   7.725 -0.0772  0.3034  0.0396
98009W        W41025  22.569   7.834  10.336  0.0544 -0.0949 -0.0147
98010W        W41026   9.706   4.861   7.524  0.2505 -0.1275 -0.0569
98011W        W41027  17.859  10.167  17.508 -0.0376 -0.0282 -0.1456
98012W        W41028  28.444  27.046  17.132  0.0955  0.0938  0.3246
98013W        W41029  11.804  13.807   2.321  0.2352  0.1264  0.0172
98014W        W41030  22.793  33.138   2.967  0.1279  0.0908  0.2317
98015W        W41031   4.529  27.117  14.018  0.3543  0.1090  0.1534
98016W        W41032   6.119  11.884  28.902 -0.1714 -0.4712  0.1685
98017W        W41033  23.606   4.320  24.459  0.1671 -0.2992  0.1049
98018W        W41034  13.545  31.647  27.970  0.1196  0.1665 -0.3222
98019W        W41035  21.085  31.170   4.102 -0.1016  0.0743 -0.3601
98020W        W41036  12.221  32.998   2.019  0.0283 -0.0275  0.1091
98021W        W41037  21.918  33.743  26.794  0.0486  0.1996 -0.2526
98022W        W41038  11.362  31.272  22.193 -0.2826 -0.0787  0.2771
98023W        W41039   5.833   7.920  29.183  0.2189  0.0465  0.1801
98024W        W41040  26.983   6.798  15.351 -0.1360 -0.2854 -0.1805
98025W        W41041  10.810   2.206  19.396  0.0541  0.5389 -0.2185
98026W        W41042  32.989   7.134   8.940 -0.0688  0.0655  0.1014
98027W        W41043   3.615   5.894  24.581 -0.0510  0.0683 -0.1677
98028W        W41044  28.822   1.453   0.814 -0.1684  0.3235 -0.4989
98029W        W41045   3.928   7.011  23.736 -0.0681  0.0542 -0.2670
98030W        W41046  13.790  11.710  26.301  0.3883 -0.0421  0.0792
98031W        W41047  18.724  11.004  20.147 -0.3629 -0.0523  0.4210
98032W        W41048  30.569  34.287   2.009 -0.0452 -0.0678  0.0125
98033W        W41049  15.179  15.441  21.761 -0.1294  0.2122  0.4164
98034W        W41050  10.218  17.094   0.210  0.0527  0.1030 -0.0197
98035W        W41051   7.382   3.005   0.885 -0.0220 -0.1310 -0.1162
98036W        W41052  30.552  23.641   6.800  0.1464  0.0051 -0.0485
98037W        W41053  22.424  22.713   2.541 -0.0411  0.1829  0.2583
98038W        W41054  10.014  20.567  13.457 -0.1124  0.0165  0.0047
98039W        W41055   5.293  18.412   0.656 -0.3188 -0.1472  0.0164
98040W        W41056  21.341   1.396  22.169 -0.6337  0.2142 -0.0799
98041W        W41057  21.744   0.272   3.377 -0.0760  0.0152 -0.1005
98042W        W41058  18.281   6.672   5.785  0.1135  0.0924 -0.0527
98043W        W41059   2.768  25.913   8.578  0.1451  0.5117 -0.1985
98044W        W41060  14.225  16.932   7.959 -0.0149 -0.2581 -0.2960
98045W        W41061  18.362   4.812  26.414 -0.3689  0.0495  0.0873
98046W        W41062  14.081   6.870   6.156 -0.3257 -0.1256  0.1393
98047W        W41063  18.259  12.002   2.905 -0.0485 -0.0751  0.1347
98048W        W41064  16.984   6.623  25.516  0.1880  0.0494 -0.2408
98049W        W41065  15.188  30.108   5.455  0.0884 -0.1881 -0.2240
98050W        W41066  11.025   0.137  21.605  0.2831  0.1500 -0.2678
98051W        W41067   8.518  10.012  27.232  0.2917 -0.0119  0.1844
98052W        W41068  17.330  15.949  13.027  0.1700 -0.1934  0.0786
98053W        W41069  25.179  13.383  21.773  0.1679 -0.3077 -0.1111
98054W        W41070  11.741   7.135   2.478 -0.0203 -0.0516 -0.2425
98055W        W41071  19.907  32.477  18.319 -0.0122  0.1213 -0.2415
98056W        W41072  23.911   8.440   0.496  0.0859  0.3200 -0.2807
98057W        W41073  26.022   9.540   4.517 -0.0836 -0.0901  0.0645
98058W        W41074   7.773   5.360   1.184 -0.3160 -0.1989 -0.2450
98059W        W41075  21.379   6.515   6.660  0.1344 -0.2954 -0.0209
98060W        W41076  32.732   4.512  23.382 -0.0358 -0.1430  0.2005
98061W        W41077   3.242   2.664   6.754  0.1091 -0.2392 -0.0113
98062W        W41078  25.489   5.816  16.711 -0.2345  0.0682  0.0178
98063W        W41079  18.637  32.168   6.289  0.0335  0.0028  0.3593
98064W        W41080  23.195  33.410  21.187  0.3002  0.1264 -0.0494
98065W        W41081  10.739  11.357   0.737 -0.3247 -0.1627  0.2742
98066W        W41082  19.206  14.363  28.083  0.1192 -0.1010  0.2163
98067W        W41083  23.961   1.002   9.553  0.0974  0.2638 -0.0946
98068W        W41084  21.851   0.921  22.785  0.3464  0.0073  0.3403
98069W        W41085  10.009  28.298   6.576 -0.3924  0.2710 -0.0478
98070W        W41086  16.692  32.624   3.362  0.3450  0.0673 -0.0104
98071W        W41087  29.984   5.650  21.285 -0.0594  0.1233 -0.1033
98072W        W41088  15.186   6.949  28.646 -0.1839  0.2923 -0.1863
98073W        W41089  17.061   2.805   8.320 -0.0466  0.0970 -0.0309
98074W        W41090  19.844   7.697  22.974 -0.1032 -0.1757  0.0985
98075W        W41091  15.228  24.448   7.136  0.0281  0.0119  0.3126
98076W        W41092  31.607   6.144   7.417 -0.2401 -0.3943 -0.2038
98077W        W41093  15.945   0.438   5.977  0.1374 -0.2599  0.1654
98078W        W41094  33.042  30.374  18.970 -0.0748  0.0814 -0.0120
98079W        W41095  18.939  28.686   4.813 -0.0534 -0.2168  0.1816
98080W        W41096  18.668   4.247   8.546 -0.3325  0.1031  0.0174
98081W        W41097  10.913  29.165  13.951 -0.2229 -0.1792  0.1289
98082W        W41098  24.167  12.519   9.337 -0.1787  0.0935  0.1516
98083W        W41099  27.853  29.550  28.847  0.0010 -0.0821  0.0245
98084W        W41100   4.535   4.573   4.856  0.1215 -0.1031  0.3097
98085W        W41101  10.997  32.411  28.777 -0.1127 -0.2608 -0.4039
98086W        W41102  15.496   3.023   3.968 -0.1939 -0.2135  0.2150
98087W        W41103   1.911  12.552   0.266 -0.1841 -0.2950  0.3730
98088W        W41104  27.351   2.938  15.527  0.1527  0.1859  0.1893
98089W        W41105  31.744   5.123   6.417  0.1536 -0.0316  0.1690
98090W        W41106  15.167  17.569  25.665  0.2722 -0.0699  0.2037
98091W        W41107  11.955  33.594   3.937 -0.1661 -0.2016 -0.0410
98092W        W41108  15.002   4.948  27.779 -0.0347  0.0861 -0.2663
98093W        W41109  13.556   9.410   6.896 -0.0155  0.2421  0.2365
98094W        W41110  31.054   4.309   3.491  0.2169 -0.0780  0.0886
98095W        W41111  17.519   0.293   9.568  0.0788 -0.4133  0.0296
98096W        W41112  27.472   5.558  25.726 -0.1436 -0.0261  0.1056
98097W        W41113   2.977  33.458  27.089 -0.0544  0.0654  0.1259
98098W        W41114  19.518  12.041  28.994  0.2543  0.0999  0.2227
98099W        W41115  22.366  32.057  24.150  0.0472 -0.1331 -0.0350
98100W        W41116  13.669   0.283  20.513 -0.0960 -0.1176 -0.0937
98101W        W41117  16.325  18.248  20.259  0.0233  0.0046 -0.0340
98102W        W41118  16.598  11.582  25.305 -0.2991  0.1764  0.0360
98103W        W41119   3.551   0.462   5.815 -0.2320  0.2765 -0.1486
98104W        W41120  12.345   2.278   0.417  0.0534  0.0438 -0.3404
98105W        W41121  20.833  30.657  21.006 -0.2870 -0.0769  0.0524
98106W        W41122  11.869   6.794   5.497 -0.3152 -0.1448 -0.2238
98107W        W41123  33.437  32.812   3.507 -0.1406  0.3991  0.2950
98108W        W41124  10.252   4.233  21.609 -0.1139  0.1118 -0.0210
98109W        W41125  13.041  31.484   4.475  0.0361 -0.0954  0.0490
98110W        W41126  10.401  32.730   7.896 -0.0314  0.1259 -0.1520
98111W        W41127   2.737  26.556  27.189  0.2560  0.4164 -0.1343
98112W        W41128  12.387  17.611   7.172 -0.1334 -0.0952  0.1539
98113W        W41129  24.531  21.314   2.290 -0.0924  0.2900  0.1408
98114W        W41130  16.019  27.771   9.878 -0.0644  0.0066  0.2045
98115W        W41131  23.513   1.578  16.327 -0.1397  0.1455  0.4671
98116W        W41132  17.495   6.507  27.555  0.0421  0.0906  0.3965
98117W        W41133  33.983   2.841   8.968 -0.2638 -0.3602 -0.1510
98118W        W41134   7.944   5.299   3.919 -0.0473 -0.3144  0.0398
98119W        W41135  10.750   9.872  27.899 -0.2116  0.3649 -0.0477
98120W        W41136   1.353   0.050  23.507  0.1853  0.2409  0.1518
98121W        W41137  23.655  30.542  10.143 -0.0138  0.1149  0.1340
98122W        W41138  15.221   8.498  27.078  0.3914  0.2777  0.1899
98123W        W41139  18.622  18.012   4.141  0.3975 -0.2659  0.1367
98124W        W41140   6.193   0.576  26.881  0.4749  0.0838  0.2792
98125W        W41141  16.407   7.097   5.979  0.0228  0.0369  0.1059
98126W        W41142  17.580  11.955  16.971  0.1248 -0.3046  0.0737
98127W        W41143  24.528  26.413  24.336  0.1641  0.0759  0.0192
98128W        W41144  31.887  21.954  25.313 -0.1269 -0.2026  0.1512
98129W        W41145   5.597   8.022   1.745  0.3556  0.0581 -0.0867
98130W        W41146  14.509   6.244   5.070 -0.3948  0.0059 -0.2696
98131W        W41147  19.870   6.455  21.423 -0.2277 -0.1226  0.2663
98132W        W41148  26.520  34.176   6.334  0.1558  0.2176  0.2705
98133W        W41149  21.801  24.024   6.778 -0.0455  0.1349  0.1151
98134W        W41150  32.254   2.599  26.879  0.1450 -0.1469  0.0129
98135W        W41151  11.449  20.912   7.832 -0.0781 -0.1894  0.0630
98136W        W41152  12.183  16.416  22.817  0.1886 -0.3773  0.4981
98137W        W41153   9.992  17.551   7.529 -0.1490  0.0201 -0.4344
98138W        W41154   7.134  30.876  23.161 -0.3272  0.0060 -0.1182
98139W        W41155  13.547  32.777   4.037 -0.0256 -0.0033  0.0429
98140W        W41156  20.833   7.571  24.061 -0.0780 -0.4055  0.2057
98141W        W41157   9.984  25.014   7.598 -0.5963 -0.2713  0.0936
98142W        W41158   3.855  34.399   9.138  0.2380  0.1922 -0.0933
98143W        W41159  32.359   6.774   5.289 -0.3511  0.1368  0.2296
98144W        W41160  20.346   6.552   0.819 -0.1493  0.2692  0.3061
98145W        W41161  28.389   7.633   7.807  0.0921 -0.0673 -0.0023
98146W        W41162  21.376  13.450  24.165  0.0055  0.2256 -0.0071
98147W        W41163  19.841   9.820  27.847  0.1600 -0.1795 -0.0926
98148W        W41164  16.649  10.104  24.617 -0.4757  0.4521 -0.2061
98149W        W41165  31.966  23.434   7.554  0.5057 -0.2683  0.1531
98150W        W41166   2.494  21.514  22.714 -0.0165 -0.0238 -0.1055
98151W        W41167  23.356  26.853   8.041 -0.0869  0.1242 -0.0522
98152W        W41168  10.258  13.569  17.623  0.1816 -0.2131 -0.0145
98153W        W41169  33.173  12.586   0.748  0.2523 -0.0635  0.1351
98154W        W41170  22.003  12.252   0.825 -0.2387  0.0021 -0.2449
98155W        W41171  28.020  18.345  28.163 -0.0024  0.1361 -0.0184
98156W        W41172  11.059  21.307   2.190  0.2922  0.1010 -0.3251
98157W        W41173  17.340  13.878  20.166  0.0478  0.1309 -0.1259
98158W        W41174  13.340   1.502  16.677 -0.0115  0.0311  0.0390
98159W        W41175  19.776  28.402   4.505  0.0140  0.1844  0.1205
98160W        W41176  32.765   9.798  28.084  0.0992 -0.0160 -0.0260
98161W        W41177  11.973   5.151   2.061 -0.2525  0.2349  0.0301
98162W        W41178  31.559   9.130  23.842  0.1107  0.1791  0.0286
98163W        W41179  26.327  20.162  19.948 -0.2278  0.1704 -0.1100
98164W        W41180  29.554  13.230  25.604 -0.2062  0.2225  0.0884
98165W        W41181  33.118   0.052  27.070  0.2265 -0.1822 -0.1872
98166W        W41182  23.369  30.579   4.121  0.0026 -0.0201 -0.1125
98167W        W41183  18.404  20.403  21.136  0.0748 -0.1480 -0.2492
98168W        W41184  21.696   4.500  27.025  0.2001 -0.0076 -0.0428
98169W        W41185  14.857  32.228   1.690 -0.2010  0.0710  0.5402
98170W        W41186  11.320  34.485   9.371 -0.1042  0.1574 -0.1893
98171W        W41187  19.004  25.323  24.891 -0.0212  0.1332  0.0034
98172W        W41188  25.044  31.700  19.691  0.0899 -0.1803 -0.0392
98173W        W41189   9.873  34.415   1.990 -0.1993 -0.0578 -0.0896
98174W        W41190  29.933  34.738   7.080 -0.1733 -0.1047 -0.2538
98175W        W41191  10.030   2.734  23.697 -0.3028  0.1914 -0.3334
98176W        W41192  27.089  10.958  22.480  0.1678  0.0340  0.0480
98177W        W41193  28.119  23.244  27.462  0.0674 -0.1289 -0.2428
98178W        W41194  28.043   4.257   2.095 -0.0123  0.0384 -0.0954
98179W        W41195   9.635  25.379   1.479  0.0045  0.1062  0.1310
98180W        W41196  34.109  13.480  21.273 -0.1022  0.1161  0.3457
98181W        W41197   9.941  19.316   4.365  0.0321  0.1810  0.0503
98182W        W41198  12.833   1.800   5.768  0.0019 -0.1771 -0.0732
98183W        W41199  13.087  17.236  12.446 -0.2356 -0.2063 -0.3372
98184W        W41200  18.662  25.642   5.260 -0.2181 -0.2044  0.0192
98185W        W41201  10.993  29.286   0.036  0.0138 -0.1273 -0.2107
98186W        W41202  13.552  25.356  27.314 -0.1557  0.3041  0.1725
98187W        W41203  34.694   9.137  28.113 -0.1149  0.0983 -0.3124
98188W        W41204  22.792  32.274  25.413  0.0636  0.0583 -0.3457
98189W        W41205  24.285  32.833   9.749  0.1114 -0.0871  0.1415
98190W        W41206  22.620  27.378   8.990 -0.0111  0.1752  0.2616
98191W        W41207  13.757  23.139  14.930 -0.0583 -0.0883  0.2468
98192W        W41208  16.740  32.084   6.057  0.0351 -0.2340  0.1388
98193W        W41209  24.882   5.445  20.648 -0.0164  0.0886 -0.2119
98194W        W41210  13.108  31.526  10.417 -0.0706 -0.0718 -0.1477
98195W        W41211  28.564   7.604   0.344  0.0775 -0.0587 -0.1306
98196W        W41212  17.318  25.006   9.455 -0.2638 -0.0588  0.0386
98197W        W41213   6.393   4.391   9.152  0.0041  0.0845 -0.2512
98198W        W41214  27.948  32.650   1.823  0.1882  0.0369 -0.0965
98199W        W41215  29.505   8.137   9.720 -0.2427  0.4034 -0.2771
98200W        W41216  22.514  12.655   2.892 -0.1073 -0.0874 -0.3045
98201W        W41217   7.331   3.056  10.125 -0.1027 -0.0869  0.1513
98202W        W41218   0.331   0.774   7.100 -0.1751  0.2140 -0.2186
98203W        W41219  23.475   0.396  22.414  0.1327  0.0079  0.1006
98204W        W41220  13.788   7.518  26.849  0.1253  0.0538  0.3331
98205W        W41221  11.011   5.150   5.068 -0.2588  0.1444 -0.2672
98206W        W41222  21.150   1.245  23.412  0.2695  0.1724 -0.0582
98207W        W41223  33.490   1.151  27.161 -0.0985 -0.1689 -0.0988
98208W        W41224   1.765  28.366  24.185 -0.2641  0.1634  0.3673
98209W        W41225   2.047  32.559  16.578  0.0957 -0.0098 -0.2558
98210W        W41226   7.552   0.283   1.865  0.0316  0.2315 -0.2693
98211W        W41227  14.153  33.875   3.707 -0.2162 -0.0837  0.1032
98212W        W41228  10.167   5.118  25.026  0.1786 -0.5924 -0.0087
98213W        W41229   6.656   2.807   4.261  0.0720  0.1560 -0.1871
98214W        W41230   2.869  30.928   3.414 -0.1019  0.2432 -0.0248
98215W        W41231  15.419   1.566  25.429  0.0700 -0.0554 -0.0956
98216W        W41232  22.542   0.051   9.062  0.3646  0.0264  0.2966
98217W        W41233  18.474  22.132  29.052 -0.0167  0.0868  0.4147
98218W        W41234  21.079  20.898   4.853  0.1979 -0.0926 -0.0443
98219W        W41235  24.995   7.701  16.595 -0.1711  0.2618  0.1447
98220W        W41236  14.261   9.707  28.769 -0.3217 -0.1533 -0.2538
98221W        W41237  16.988   1.691   6.661 -0.0765 -0.1775  0.1142
98222W        W41238  24.548   9.008   2.058  0.1042  0.0491 -0.2069
98223W        W41239   4.512  31.434  24.294  0.0472  0.1037  0.3125
98224W        W41240  20.808   9.163   7.868 -0.0527  0.0089 -0.3041
98225W        W41241  22.560  28.481   9.870 -0.0085  0.0940 -0.0938
98226W        W41242  21.614  24.115  16.035  0.2753  0.3933 -0.3453
98227W        W41243  21.203  18.814  23.216  0.1386 -0.0883  0.2175
98228W        W41244   9.189   1.292  16.625  0.0069 -0.2548 -0.2121
98229W        W41245  26.280   4.329   3.114  0.0810 -0.0398 -0.3743
98230W        W41246   7.765   7.004  26.421  0.2038  0.0721 -0.1799
98231W        W41247  19.143  30.994  21.727 -0.1877  0.1910  0.0460
98232W        W41248  10.467  20.291  25.855 -0.1565 -0.1157 -0.0813
98233W        W41249  17.878  30.507   1.488 -0.0504  0.1425 -0.0185
98234W        W41250  15.844  18.144  20.153  0.0236  0.0675  0.0805
98235W        W41251  23.188   7.192   8.386  0.1471 -0.0453  0.1266
98236W        W41252  18.113  27.201  26.709  0.2131 -0.2703  0.1677
98237W        W41253   2.139   5.344  21.051  0.1408  0.0221 -0.5645
98238W        W41254   6.975  11.739   2.204  0.2394  0.0130 -0.0664
98239W        W41255  16.381  34.698  26.325 -0.0076  0.5995 -0.1625
98240W        W41256   8.029  27.141   2.981  0.3623 -0.1391 -0.0805
98241W        W41257   5.301  28.893  18.051 -0.1355 -0.0447 -0.1131
98242W        W41258  17.491   4.601   5.928 -0.0019 -0.0238  0.2859
98243W        W41259  17.328   5.147  23.318  0.1277  0.3393 -0.2883
98244W        W41260  17.707   2.824   9.449  0.1129 -0.1694  0.0170
98245W        W41261  13.837  15.929  14.900 -0.0949  0.0137  0.0370
98246W        W41262  21.164  22.010  25.763  0.2403 -0.1233  0.0989
98247W        W41263  13.756  32.301   5.915 -0.2860 -0.2091 -0.0708
98248W        W41264  23.302   1.798  20.047  0.1790  0.1559 -0.1648
98249W        W41265  33.571  30.052  27.922  0.0180  0.3309  0.1439
98250W        W41266  13.372   0.672   9.152 -0.0148 -0.0353 -0.0904
98251W        W41267   9.881   8.030   1.962  0.0027  0.1309 -0.1879
98252W        W41268  16.332  29.978   7.600  0.3897  0.0407 -0.0374
98253W        W41269  14.329  14.659  23.422 -0.0970  0.1385  0.0899
98254W        W41270  27.319  23.158  28.111 -0.0233  0.0475  0.1702
98255W        W41271   7.544  13.327   2.990 -0.3993  0.3618  0.1008
98256W        W41272  33.192  29.611   9.693  0.0278 -0.1108  0.0528
98257W        W41273  31.477  25.947  15.625 -0.0425  0.1815 -0.1283
98258W        W41274  12.641   0.883   7.424 -0.2076  0.1848  0.0371
98259W        W41275  12.585   6.637   7.966  0.2199  0.4270 -0.1422
98260W        W41276  28.263  30.418  11.465  0.4606 -0.2018 -0.0620
98261W        W41277  12.046   3.755  10.395  0.0942 -0.1276 -0.4320
98262W        W41278  25.910   4.083  20.878  0.1522 -0.0048  0.1837
98263W        W41279  23.200  21.262  16.093 -0.1046  0.1248 -0.2532
98264W        W41280   2.665   2.412   9.208 -0.4209 -0.1203 -0.2664
98265W        W41281  10.444   6.572  21.635 -0.0267  0.2123 -0.0595
98266W        W41282   2.217   6.474  24.192  0.0202 -0.2493  0.2888
98267W        W41283  25.650   9.016   2.298 -0.0515 -0.1789  0.1144
98268W        W41284  26.107  27.587   4.393 -0.1442 -0.1144 -0.0407
98269W        W41285   2.769  21.860  19.270 -0.3076  0.0123 -0.2886
98270W        W41286  33.856   4.882  20.102 -0.0763  0.1124 -0.1341
98271W        W41287  12.926  13.686   8.360  0.0796  0.0114 -0.1921
98272W        W41288  30.714  19.246   7.218 -0.0392 -0.1590  0.0590
98273W        W41289   3.995   7.028  17.985 -0.0717 -0.3098  0.0957
98274W        W41290  21.644  33.844   8.218 -0.0685 -0.0646 -0.2673
98275W        W41291   0.438  25.040  28.343 -0.2308  0.2480 -0.1687
98276W        W41292  15.699  32.317   2.395 -0.0347 -0.0302  0.0571
98277W        W41293  19.595   0.271  22.471  0.1208  0.1618 -0.0877
98278W        W41294   9.137  32.061  24.688  0.1771 -0.0797 -0.0435
98279W        W41295  28.287   0.660   2.360 -0.0658 -0.3800 -0.2999
98280W        W41296  12.235  28.318  29.252 -0.0294 -0.4315 -0.1731
98281W        W41297  14.150   2.022   6.943  0.1209 -0.4338 -0.2496
98282W        W41298  11.880   0.579  18.976 -0.2662  0.0131  0.2073
98283W        W41299  14.417  15.896   4.086 -0.1570  0.0710  0.1407
98284W        W41300  12.563  11.424   0.405 -0.1280  0.1142  0.1004
98285W        W41301  33.857   6.992   3.608  0.1104  0.0947 -0.3127
98286W        W41302   8.780  28.964   9.851  0.0623 -0.4188  0.0325
98287W        W41303   8.606  13.667   2.990  0.1022  0.1154 -0.0494
98288W        W41304  21.190  27.959   2.247 -0.0563 -0.0521  0.1353
98289W        W41305   4.578  10.463   5.082  0.0536 -0.3493  0.1916
98290W        W41306  19.342  14.165   2.410 -0.0411 -0.1068  0.0171
98291W        W41307  23.633  27.764   0.683 -0.2405  0.0167 -0.0007
98292W        W41308   7.704   9.153   0.171 -0.0660 -0.0522  0.0458
98293W        W41309  15.343  16.613   7.038  0.0387 -0.0116  0.0254
98294W        W41310   8.313  18.584  26.742  0.0975  0.0847 -0.0876
98295W        W41311  20.225  32.940   0.645 -0.2102 -0.1654 -0.1390
98296W        W41312  18.441   6.485   6.909 -0.0799  0.0938  0.0133
98297W        W41313   5.513  31.562   5.433 -0.0699 -0.2608 -0.0792
98298W        W41314  23.583  22.155  25.051  0.2794  0.0754 -0.2860
98299W        W41315  14.812   3.703   1.326 -0.2095  0.4810  0.0516
98300W        W41316  21.783  14.708   5.731  0.0885 -0.1219  0.0076
98301W        W41317  13.004   9.058   9.863 -0.3627  0.0834 -0.0390
98302W        W41318   5.843  32.012  29.104 -0.2179  0.2546  0.2929
98303W        W41319   4.892  14.742   2.187  0.0086  0.1884 -0.0353
98304W        W41320  17.531  10.096  25.797  0.1293 -0.2552 -0.0748
98305W        W41321  33.309   2.238  27.359 -0.0544 -0.1990  0.0415
98306W        W41322  17.640  29.316   2.912 -0.2179 -0.0120  0.1971
98307W        W41323   7.766   4.714  26.970  0.3114 -0.3111 -0.2410
98308W        W41324   3.582  18.529   6.942 -0.0482 -0.1371 -0.0647
98309W        W41325   7.698   9.322   8.479  0.0209  0.0809 -0.3806
98310W        W41326  13.362   1.166  17.171 -0.1458  0.0203 -0.2017
98311W        W41327   4.813  30.677  17.866  0.0723 -0.0493  0.2172
98312W        W41328   6.030  34.010  24.028 -0.0189  0.1774 -0.2351
98313W        W41329   2.291  16.028   3.968  0.2430  0.1327 -0.0143
98314W        W41330  11.241  31.518   5.570 -0.2210 -0.2091  0.2303
98315W        W41331   1.330  31.311   8.215  0.2227 -0.0583  0.1351
98316W        W41332  12.516  20.037  26.675  0.1693 -0.0740  0.0475
98317W        W41333   6.014   8.835   7.263  0.2768 -0.1087  0.2124
98318W        W41334  30.698  24.538   8.449 -0.1064 -0.0458 -0.0395
98319W        W41335  18.803  15.778   5.138 -0.0509 -0.2735  0.1119
98320W        W41336   4.730  22.690   7.594 -0.1104 -0.0530  0.0825
98321W        W41337  19.818   6.959  18.381  0.0629 -0.2207 -0.1640
98322W        W41338  21.423  26.292   7.999  0.3175 -0.1725  0.0532
98323W        W41339   7.826  12.999  19.512 -0.2173  0.0653 -0.0052
98324W        W41340   5.734  30.407   6.268 -0.2049  0.4856 -0.1721
98325W        W41341  15.294  10.759  19.151  0.0411 -0.0242 -0.0270
98326W        W41342  32.265  28.597  27.518  0.1958  0.1002  0.1468
98327W        W41343  33.504   0.516   5.987  0.1231 -0.0901 -0.2132
98328W        W41344  22.675  26.581  27.860 -0.1373 -0.2724  0.1723
98329W        W41345   2.482   7.415   2.445 -0.0489 -0.0719 -0.3299
98330W        W41346  16.306   3.437   7.262  0.2067 -0.0558 -0.1805
98331W        W41347  20.103   7.397  18.404 -0.1784  0.2285  0.2834
98332W        W41348  12.052  32.649   0.874 -0.1258 -0.1993  0.2682
98333W        W41349   6.199   0.455   4.949  0.3325 -0.1192  0.1976
98334W        W41350  19.677  31.647   6.623 -0.1932  0.1981 -0.0529
98335W        W41351  25.117  29.876  28.284  0.0987  0.0604 -0.0687
98336W        W41352   5.911   6.976  19.502  0.2253  0.4239  0.0442
98337W        W41353   0.262  18.242   9.024  0.0439 -0.4525 -0.0863
98338W        W41354   1.765  10.297  22.762 -0.2050  0.2685 -0.3134
98339W        W41355   0.306   8.786  26.735  0.0421 -0.2545  0.0394
98340W        W41356  12.657   4.473  18.551  0.1826 -0.0115  0.0504
98341W        W41357  14.250  10.319  27.051  0.0558  0.1657  0.0558
98342W        W41358  20.674  12.727  17.561  0.2071 -0.0784 -0.0876
98343W        W41359  19.381   7.755  26.962 -0.2378  0.2801 -0.2928
98344W        W41360  30.294  34.722  29.065 -0.2437  0.2947  0.0362
98345W        W41361   0.279   7.966   1.543  0.2344  0.0753 -0.0347
98346W        W41362  10.415  32.516  21.095 -0.2156  0.0590 -0.1485
98347W        W41363   9.276   2.414  28.827 -0.0337 -0.0459 -0.1319
98348W        W41364   9.729  21.571   3.326 -0.0200 -0.1655 -0.2666
98349W        W41365   5.691  17.353  25.123 -0.1371  0.1680 -0.1432
98350W        W41366   9.688  14.731  25.844  0.1188  0.0370  0.2320
98351W        W41367   4.626   0.307  28.092  0.2706  0.1933  0.1178
98352W        W41368  18.640   2.679   8.637  0.0681  0.0005 -0.1540
98353W        W41369  33.581   1.546  23.060  0.0857 -0.2342  0.1461
98354W        W41370  16.426  18.766  22.091 -0.1878  0.2011 -0.3329
98355W        W41371  12.964  15.630   5.188 -0.2940  0.0753 -0.2562
98356W        W41372  16.138   0.720   3.100 -0.0423 -0.5696  0.0870
98357W        W41373  17.883   7.385  26.178 -0.1335  0.1324 -0.0805
98358W        W41374  26.890  23.191  17.963 -0.2180  0.0919 -0.0665
98359W        W41375  34.115   2.233   2.754  0.0299 -0.1994 -0.2566
98360W        W41376  16.256  24.495   6.606 -0.3336  0.2198 -0.2050
98361W        W41377  27.153   6.317  15.544 -0.0697  0.1020 -0.1271
98362W        W41378   9.649   1.081   9.014 -0.3462  0.1037  0.0619
98363W        W41379   2.429  10.320  23.822  0.1294 -0.0391 -0.0867
98364W        W41380  21.909  16.399   3.409 -0.0514 -0.1266 -0.0874
98365W        W41381  16.700  16.405  27.966  0.0198  0.0381 -0.2756
98366W        W41382  10.090   1.456  27.379 -0.0253 -0.1344  0.3049
98367W        W41383  12.641   0.889   5.705 -0.1304  0.3243  0.3655
98368W        W41384  20.132   7.009   5.138 -0.3872  0.0923  0.2369
98369W        W41385  19.894  10.402   8.417 -0.0954  0.0633  0.1872
98370W        W41386   8.275  27.921   2.146 -0.0409 -0.3044  0.0258
98371W        W41387  26.786  14.516  21.039 -0.0561  0.3825  0.2321
98372W        W41388  21.007  11.551   4.267  0.0320 -0.1826 -0.0599
98373W        W41389  14.767  10.373  22.364  0.1642  0.0904 -0.0918
98374W        W41390  12.272   1.881   4.946  0.0460 -0.3107  0.0654
98375W        W41391  19.448   6.773   4.396  0.0847  0.0701  0.0920
98376W        W41392  11.063  24.204   3.912  0.2779 -0.1939  0.1951
98377W        W41393   2.931  14.938   7.864  0.0170 -0.0668 -0.2468
98378W        W41394  15.178  34.370   9.246  0.0388  0.4540 -0.0628
98379W        W41395  10.703  27.387   6.226  0.0872  0.0954 -0.0604
98380W        W41396   9.406  33.483   7.589 -0.2591 -0.0533  0.0955
98381W        W41397  24.163  27.667   0.448  0.0607 -0.2618 -0.0581
98382W        W41398  14.308   7.500   6.727 -0.1065 -0.1693 -0.1810
98383W        W41399  14.451   0.728   8.664  0.4362  0.1537 -0.3704
98384W        W41400  16.397   6.365  27.707 -0.1494  0.2026 -0.4973
98385W        W41401   3.004   4.722   2.640 -0.2611 -0.0217  0.4108
98386W        W41402   3.834  12.581   5.516 -0.1486  0.1455  0.2401
98387W        W41403  26.230   4.272  10.735  0.2069 -0.2055  0.1973
98388W        W41404  16.842  31.148  25.269 -0.0895  0.4854 -0.2811
98389W        W41405   7.393   6.939   0.691 -0.2357  0.0469  0.1289
98390W        W41406   7.135  32.393   0.986 -0.3813 -0.1544 -0.0263
98391W        W41407  13.735  33.059  24.856 -0.0819  0.0643  0.1388
98392W        W41408  16.326  29.861   2.764  0.2073  0.0410 -0.1480
98393W        W41409  15.092   8.050   8.331  0.0858  0.0429 -0.2927
98394W        W41410  22.646  12.966   6.587  0.2278  0.2763  0.3611
98395W        W41411   1.303  34.293   0.820  0.0081  0.0955 -0.0994
98396W        W41412  16.270  12.277  19.316 -0.2875  0.2586  0.0550
98397W        W41413  13.185  12.461   1.140  0.3069 -0.1363  0.0924
98398W        W41414   4.488  31.371  10.381  0.1007 -0.0495  0.0581
98399W        W41415  27.607  25.475  24.129  0.0674  0.1110  0.2948
98400W        W41416  15.230  16.651  27.026 -0.1146  0.0714  0.0807
98401W        W41417   8.768  25.680  26.105  0.1068 -0.1556 -0.0189
98402W        W41418  13.907  17.116  21.494 -0.0618  0.1374  0.1737
98403W        W41419  30.534   9.054   6.444  0.0651 -0.0499 -0.2665
98404W        W41420  13.236  27.567  22.971 -0.3045 -0.2237 -0.0132
98405W        W41421  16.327  15.442   3.541  0.0664  0.1468 -0.1218
98406W        W41422  16.751  28.985   8.501  0.1628 -0.0205 -0.1440
98407W        W41423  17.220   8.264   1.266  0.3581  0.1825  0.3029
98408W        W41424   2.480  16.669   9.566  0.0679 -0.3009  0.0126
98409W        W41425  17.650  27.869  22.088 -0.1367  0.3069 -0.4890
98410W        W41426  14.310  31.090   0.319 -0.0018  0.0857  0.1505
98411W        W41427  13.836   1.754  28.382  0.1010  0.4380 -0.0202
98412W        W41428  19.323  32.187   4.043 -0.1884  0.2512  0.0234
98413W        W41429  21.629  27.857  24.652  0.0388  0.0511  0.0220
98414W        W41430  16.541  25.654   9.473  0.1573 -0.1083 -0.0353
98415W        W41431  30.013  12.618  21.778  0.1217 -0.1430 -0.0824
98416W        W41432   8.399  11.645  27.973  0.0751  0.1543 -0.0921
98417W        W41433  21.698  31.113  26.477  0.2038 -0.0923  0.0688
98418W        W41434   4.645  13.062   1.283 -0.2889 -0.0834  0.2870
98419W        W41435  10.919   4.657   4.202 -0.1419 -0.4685 -0.0702
98420W        W41436  20.091  23.262   8.787 -0.3724  0.1365 -0.1440
98421W        W41437  26.927  13.533   1.915 -0.5735  0.2191 -0.1587
98422W        W41438   8.818   2.675   3.525 -0.2444 -0.0399  0.1341
98423W        W41439  25.515   7.338  22.162 -0.1456  0.2851  0.2158
98424W        W41440  18.993   1.790  15.389 -0.3654  0.1351 -0.0094
98425W        W41441  22.648  14.998   6.270 -0.0467  0.2547  0.2169
98426W        W41442  19.715  19.381   3.086 -0.1501 -0.1498  0.1182
98427W        W41443   4.729   5.371  15.923 -0.1957 -0.1536  0.0622
98428W        W41444  13.672  31.110  21.627 -0.1504 -0.0190  0.1361
98429W        W41445  25.080  20.584   4.877 -0.1867 -0.2206 -0.1777
98430W        W41446  12.622  29.982   4.501 -0.1543  0.0733  0.2276
98431W        W41447  20.873  26.373   9.115  0.2266  0.0940  0.0361
98432W        W41448   8.393  34.482  28.757 -0.1461  0.3143  0.1175
98433W        W41449  12.779   1.447  29.208 -0.1734 -0.1416  0.3260
98434W        W41450  24.814  32.147  23.935 -0.1742  0.2655 -0.2591
98435W        W41451  33.792  26.604   7.295  0.0243 -0.1629 -0.1548
98436W        W41452  21.113   4.963   2.026  0.1425 -0.1140 -0.4706
98437W        W41453  14.717  12.503  15.762 -0.0440  0.0387 -0.1302
98438W        W41454  26.999  32.701  23.276 -0.1826 -0.0026  0.1118
98439W        W41455  19.101   5.793   8.714  0.0146  0.0930 -0.0701
98440W        W41456   5.861  11.986   8.649  0.1536 -0.1841 -0.0078
98441W        W41457  19.355  28.232   9.697 -0.1831  0.4229 -0.0052
98442W        W41458  27.955  31.078   7.652  0.1886 -0.3106 -0.1055
98443W        W41459  13.272   8.609  22.025  0.0088 -0.2608  0.3396
98444W        W41460   3.751   3.553   9.882 -0.0669 -0.0207 -0.1517
98445W        W41461   8.694   9.402  24.427 -0.0599  0.2635  0.2571
98446W        W41462  18.881  32.791  24.107  0.2672 -0.3172  0.1773
98447W        W41463  17.114  11.881  26.236 -0.0996  0.0620 -0.0598
98448W        W41464   7.410  13.483   2.343 -0.0166 -0.0164 -0.4215
98449W        W41465  11.302  10.094   5.177  0.2360  0.0751 -0.0599
98450W        W41466  11.155   0.611   1.024 -0.2061 -0.0066 -0.0194
98451W        W41467  30.105   5.176  24.165  0.3653  0.3663  0.1146
98452W        W41468  19.949  15.664   0.639  0.2737 -0.1145  0.0404
98453W        W41469  19.542   8.209   6.645 -0.0081 -0.0727  0.0375
98454W        W41470  14.588  30.795   9.671 -0.0721 -0.1091 -0.2913
98455W        W41471  18.276  26.034   6.102  0.0026 -0.0913  0.2093
98456W        W41472  21.618  34.153  26.810 -0.0035 -0.0088  0.1096
98457W        W41473  16.092  25.484  27.479 -0.1496  0.2563 -0.0817
98458W        W41474   7.372   3.017   7.532  0.1751 -0.1988  0.1290
98459W        W41475  20.356  17.262  24.769 -0.1105  0.2374  0.2371
98460W        W41476  13.658   5.896   6.166 -0.0283  0.1560 -0.0337
98461W        W41477  17.234  25.849  19.996 -0.0875 -0.2305  0.1358
98462W        W41478  16.078  13.616   0.773 -0.3013 -0.2926 -0.0881
98463W        W41479  33.540   8.561   4.350  0.0385 -0.1171  0.1175
98464W        W41480  27.227   9.978   8.609  0.1599 -0.3194  0.1078
98465W        W41481  22.751   6.811   4.446 -0.0099  0.0958  0.0732
98466W        W41482   1.510  31.671   3.679 -0.0346 -0.0798  0.0224
98467W        W41483  25.056   3.922  10.606 -0.3249  0.0910  0.0354
98468W        W41484  13.634   9.491   7.479 -0.2372 -0.1068 -0.2048
98469W        W41485  29.354  11.268  10.238  0.0893  0.1298 -0.3522
98470W        W41486   5.934   6.249  24.202  0.1507  0.0295  0.0312
98471W        W41487  11.736  28.643  28.511  0.1857  0.0079  0.0633
98472W        W41488  34.551   2.418   6.999 -0.1392  0.0939 -0.3331
98473W        W41489  32.970  26.720  10.245 -0.0235 -0.2200  0.1548
98474W        W41490  11.105  28.020   2.809  0.0380  0.0053 -0.0932
98475W        W41491  16.305   7.661   0.287 -0.0220  0.1597 -0.0548
98476W        W41492  17.462   0.758   7.571 -0.0300 -0.0825 -0.0281
98477W        W41493  17.387  10.958  13.049 -0.1771  0.1406  0.0022
98478W        W41494   0.954   3.478  29.225 -0.3279  0.3905  0.2344
98479W        W41495  26.956   1.494   9.887  0.0306 -0.1095 -0.3933
98480W        W41496   9.102  34.258   6.324 -0.1430  0.1539 -0.0190
98481W        W41497  10.454  29.804  26.668  0.1559 -0.2522 -0.0386
98482W        W41498  19.419   0.701   5.421 -0.2278 -0.1725  0.2169
98483W        W41499  12.497  22.546   3.336 -0.0546  0.2281  0.0184
98484W        W41500  33.634   1.020  25.768 -0.3982  0.3732  0.2205
98485W        W41501   7.587  15.700  15.472  0.1890  0.1555 -0.0232
98486W        W41502  13.397   9.232   3.119  0.0093  0.1642 -0.2471
98487W        W41503  29.460  27.850   7.518  0.0954 -0.1591  0.3249
98488W        W41504   5.792   7.480   7.735  0.1536  0.1264 -0.1821
98489W        W41505  17.780  10.488   5.219  0.0692 -0.1323  0.2290
98490W        W41506  27.436   8.132  22.287  0.0945  0.2880 -0.2969
98491W        W41507   2.917  32.848  29.264 -0.1019  0.2804  0.2105
98492W        W41508  20.830  15.187  22.635  0.0012  0.1122 -0.2373
98493W        W41509  29.669  11.166   5.144 -0.0562  0.4182 -0.0997
98494W        W41510   4.191  29.293   6.000 -0.2698 -0.0179 -0.2272
98495W        W41511   4.539   5.558   8.040  0.1077  0.3897  0.0648
98496W        W41512   5.566   4.688  24.817  0.1669  0.0682  0.0123
98497W        W41513  16.390   4.642   0.062 -0.5121 -0.0864 -0.1541
98498W        W41514  15.600   4.711  24.410 -0.1537  0.1855 -0.1939
98499W        W41515  28.293  23.503  10.354 -0.3073  0.1526 -0.0110
98500W        W41516  26.414   6.395  18.009 -0.1468 -0.1238 -0.1586
98501W        W41517  11.872  10.362   1.832 -0.1537 -0.0817 -0.3059
98502W        W41518   8.306   4.393   9.289  0.2139  0.3660  0.2414
98503W        W41519  11.988  21.757  20.590 -0.2144 -0.0372 -0.0922
98504W        W41520  13.374  34.239  26.822 -0.0522  0.1118  0.0165
98505W        W41521   8.754   4.061   9.192 -0.0256 -0.0836  0.0046
98506W        W41522   4.459   9.776   5.967  0.0043 -0.0313  0.0823
98507W        W41523   6.126  16.724   2.592 -0.1157 -0.5130  0.1024
98508W        W41524   8.417   0.560  19.434 -0.2172 -0.1763  0.1104
98509W        W41525  12.010  23.906   2.683 -0.2843  0.3180  0.0636
98510W        W41526   3.681   1.483   7.868  0.1719  0.0539 -0.1663
98511W        W41527  25.859   2.763  16.121 -0.2405  0.0333  0.5177
98512W        W41528  27.146  28.981  11.183  0.2539  0.0626  0.0939
98513W        W41529  16.793   8.746   9.335  0.3277  0.0031 -0.1164
98514W        W41530  28.752  25.831   6.484 -0.2394  0.0898  0.0805
98515W        W41531  20.985  19.465   2.958 -0.3849 -0.0195  0.1858
98516W        W41532   8.565   9.529  14.678 -0.2087  0.0338 -0.0832
98517W        W41533  26.878   8.029   9.894 -0.0802 -0.1302 -0.1819
98518W        W41534  13.300  20.793   2.173 -0.1317 -0.1135 -0.1113
98519W        W41535  31.695  10.005   2.657  0.1682 -0.0797  0.0546
98520W        W41536  25.125   8.036   6.052  0.1423 -0.3417 -0.0407
98521W        W41537  31.159  33.215  25.524  0.3677  0.1123  0.4295
98522W        W41538  16.691   8.576   5.010  0.2557 -0.2907 -0.3010
98523W        W41539   9.072   8.811   9.196  0.0204  0.0388  0.2438
98524W        W41540  11.275  10.702   6.858  0.1776  0.1152 -0.1099
98525W        W41541  24.480   8.985   8.794 -0.1293  0.0148  0.3857
98526W        W41542  33.711  29.605   6.775  0.2611  0.3074 -0.1484
98527W        W41543  16.535  17.799  25.512  0.0809  0.1734  0.2562
98528W        W41544  33.480  14.077  23.044  0.0205 -0.4637 -0.0224
98529W        W41545   5.874   6.856  22.707 -0.1987 -0.2315  0.2644
98530W        W41546   1.724   1.242  28.854  0.5204  0.2705 -0.1689
98531W        W41547   8.532  31.447  22.764  0.1859  0.0793 -0.1460
98532W        W41548   0.954  11.031  25.101 -0.0653 -0.0310  0.2228
98533W        W41549  15.675   2.484  25.177  0.2578  0.3239  0.2086
98534W        W41550  22.834   1.317  10.203 -0.1812  0.0417 -0.1394
98535W        W41551  29.571  20.214  10.541 -0.2044  0.0026  0.1569
98536W        W41552   7.142  13.645   2.842 -0.2001  0.0047  0.2140
98537W        W41553  32.415   1.785   4.917 -0.1477  0.0009 -0.0409
98538W        W41554  29.538   7.431  25.743 -0.0271 -0.2502  0.0474
98539W        W41555   7.583   5.332   3.378 -0.0583 -0.0919 -0.1532
98540W        W41556   3.426   4.046   0.436  0.1472  0.2072 -0.0348
98541W        W41557  12.595   9.505   3.890  0.0339 -0.0578 -0.1131
98542W        W41558  19.291  18.805  26.135  0.1398 -0.2317 -0.1236
98543W        W41559  12.904  31.992  21.124 -0.2699  0.0948  0.1423
98544W        W41560  21.180  31.222  21.174  0.0421 -0.0534  0.2035
98545W        W41561  17.014  27.539   1.584  0.0055 -0.2828 -0.4009
98546W        W41562   5.010  13.245   1.709  0.0523 -0.1776  0.1632
98547W        W41563  19.687   6.354   0.612 -0.4058 -0.1781  0.1634
98548W        W41564   4.572  27.393   7.431  0.0692 -0.3487 -0.1996
98549W        W41565   8.275   4.603  26.197  0.3007 -0.4155  0.1157
98550W        W41566  14.330  10.577   4.846  0.0031 -0.0367  0.1963
98551W        W41567  15.969   1.845   5.353 -0.1384  0.0838  0.1563
98552W        W41568  32.205  13.570   1.539 -0.1516  0.0934  0.2336
98553W        W41569  10.820   7.658   9.831  0.1618 -0.0004 -0.3707
98554W        W41570  22.204  33.834   8.293 -0.2123  0.2222 -0.0163
98555W        W41571  18.003   9.807  22.347 -0.2624 -0.3093  0.1079
98556W        W41572   8.961   3.125   1.348 -0.1975  0.0505 -0.1658
98557W        W41573  27.596  34.518  20.327 -0.1778 -0.1223 -0.5723
98558W        W41574   0.117  22.990   6.364 -0.1217 -0.1016  0.0803
98559W        W41575  13.404   7.067  28.102  0.0596  0.0705  0.2042
98560W        W41576  10.497  19.298   4.494  0.0808 -0.2557  0.0468
98561W        W41577  16.978   1.013   4.700 -0.2366 -0.0978  0.1043
98562W        W41578   4.477  26.114  28.555 -0.1142 -0.2487  0.0337
98563W        W41579  28.011  24.393  26.016  0.1306  0.1741 -0.2397
98564W        W41580  27.041   4.409   9.917 -0.0280 -0.2722  0.2741
98565W        W41581  15.505  18.038  26.979 -0.0324 -0.0010  0.1410
98566W        W41582  18.747  22.922  16.997  0.4395  0.1135  0.0117
98567W        W41583  17.244   8.345  28.887  0.0346  0.1155 -0.2172
98568W        W41584  20.142  13.555   3.349  0.2739 -0.1733 -0.0491
98569W        W41585  28.349  15.715  27.224 -0.0598 -0.1123 -0.1489
98570W        W41586  26.018   9.612   6.061 -0.0756  0.0840 -0.3100
98571W        W41587   6.379   1.283   1.010 -0.1858  0.1062  0.1587
98572W        W41588  26.639  24.460   1.907 -0.1804  0.0822  0.0130
98573W        W41589  26.017   7.006   5.204 -0.0618 -0.2466  0.4058
98574W        W41590  33.392   5.364  21.384 -0.0347  0.0912 -0.1360
98575W        W41591  13.238  14.890   1.922  0.0874 -0.0235  0.3301
98576W        W41592   5.468  10.269   5.994  0.0232  0.2017 -0.1444
98577W        W41593  13.619  29.031   9.556  0.0978 -0.0103  0.0463
98578W        W41594  23.703  22.799  20.646  0.0696  0.0977 -0.2327
98579W        W41595   9.845  28.559  19.411  0.0578  0.0988  0.0515
98580W        W41596  11.386  21.812   3.730  0.4160 -0.0532  0.0257
98581W        W41597  24.374  14.797   2.415 -0.1877 -0.0648 -0.1729
98582W        W41598  30.942  16.849  26.990 -0.1564 -0.1324 -0.2229
98583W        W41599  25.483  14.035  28.314  0.2077  0.0650  0.0704
98584W        W41600  11.112   6.723  22.602  0.1776 -0.1823 -0.2440
98585W        W41601  20.749   2.874  25.397  0.4730  0.2950 -0.1744
98586W        W41602  29.348   5.616  29.305  0.0203  0.1264 -0.2161
98587W        W41603  23.640  31.980  11.901  0.2168 -0.5889  0.1302
98588W        W41604  27.592  25.207  28.243 -0.0933 -0.4382  0.1656
98589W        W41605  26.977  14.629   9.959  0.0646 -0.2331  0.0196
98590W        W41606  12.204   8.132   4.816  0.0664 -0.1526  0.0929
98591W        W41607  11.399   1.770  17.267  0.2477 -0.1619  0.2253
98592W        W41608  11.785   0.480  28.648  0.2236  0.1729 -0.2019
98593W        W41609  15.340  25.352   8.078  0.2588 -0.1246 -0.2453
98594W        W41610  11.104   0.614   2.055  0.0680 -0.2998 -0.0861
98595W        W41611   5.115   0.141   1.326 -0.0237  0.0076  0.1651
98596W        W41612  22.326  24.285  10.056 -0.0417  0.0580  0.0517
98597W        W41613  23.376  22.327   5.939 -0.0212 -0.5802  0.1089
98598W        W41614   9.943   1.997   5.899  0.1516 -0.0369 -0.0143
98599W        W41615   9.583   7.835   3.885 -0.1290 -0.1608 -0.0747
98600W        W41616   5.506  30.033   0.779 -0.2770 -0.2424  0.1321
98601W        W41617  10.725   8.649  14.268  0.1273 -0.0695 -0.1409
98602W        W41618  20.046   4.608   7.219  0.0295  0.0619  0.1289
98603W        W41619  29.516  22.441  29.209  0.2346  0.1902  0.2869
98604W        W41620  25.211   2.698   2.744 -0.1643  0.2311 -0.1005
98605W        W41621   1.868   5.996   9.554 -0.0897  0.0822  0.0502
98606W        W41622  26.632  32.188  17.493  0.1241 -0.0946  0.1724
98607W        W41623  22.133   4.735   4.952  0.3040  0.1481  0.0553
98608W        W41624  11.382   6.575  25.419  0.2070 -0.1230 -0.1196
98609W        W41625  16.901   5.455  26.761 -0.0283 -0.1487  0.0993
98610W        W41626  16.710   5.155   0.331  0.1371 -0.0912 -0.0828
98611W        W41627  30.253   4.167  29.034 -0.1765 -0.1278 -0.0495
98612W        W41628  12.219  21.172  18.831 -0.0828  0.1585 -0.5425
98613W        W41629  22.325  28.668   3.783  0.1560 -0.2318 -0.3285
98614W        W41630  14.054  27.615   5.863 -0.2807 -0.2261 -0.1220
98615W        W41631  19.990   3.224   2.368  0.1925 -0.0415  0.0530
98616W        W41632   7.930   1.991  28.755 -0.0925 -0.1343 -0.1057
98617W        W41633   1.686   9.983   9.475 -0.2016  0.0461  0.0348
98618W        W41634  19.333  28.574   7.303 -0.4161  0.3495 -0.0293
98619W        W41635   6.491  11.603   1.987  0.1749 -0.2553 -0.2019
98620W        W41636  17.201  12.277   7.999 -0.1870 -0.1199 -0.0403
98621W        W41637  16.778   4.641  20.976  0.1590 -0.1624  0.3142
98622W        W41638  20.141  13.661  16.818 -0.2554  0.0622  0.5083
98623W        W41639   7.772  33.915   3.484  0.1226 -0.3402 -0.3613
98624W        W41640  21.568  10.114  29.244  0.0398 -0.3857 -0.2161
98625W        W41641  28.251  34.771   0.644  0.0997  0.2802  0.0369
98626W        W41642  21.158   0.706   8.870  0.4964 -0.2341  0.0624
98627W        W41643  33.697   0.726  23.583  0.0884  0.1890 -0.1245
98628W        W41644   1.693  26.773  29.245 -0.1319  0.2082 -0.1774
98629W        W41645  23.869  27.941  19.399 -0.1496  0.1558 -0.3297
98630W        W41646   1.830   7.309   3.221  0.1579 -0.1884  0.0323
98631W        W41647  27.178  31.522   5.067 -0.0109  0.3410  0.3421
98632W        W41648  17.475   2.942   8.037  0.0650  0.1282  0.2555
98633W        W41649  17.349  11.855   7.784 -0.1166 -0.2861 -0.3172
98634W        W41650   2.598  28.898   9.190 -0.0344  0.1276 -0.2926
98635W        W41651   9.309   1.625  10.848  0.0189  0.0000 -0.1378
98636W        W41652  10.291   0.367   8.512 -0.1099  0.0495 -0.1518
98637W        W41653  12.707   3.328   8.292  0.1798  0.2369 -0.1134
98638W        W41654  28.051   3.289  23.403  0.0022  0.1446 -0.0775
98639W        W41655   6.505  33.349  10.196  0.3967 -0.1243 -0.1991
98640W        W41656   5.298   1.231   8.747 -0.2513 -0.2063 -0.3185
98641W        W41657  20.868  11.706   6.286 -0.0699  0.1552  0.2246
98642W        W41658  23.597  32.188   5.906  0.2025 -0.1359  0.0918
98643W        W41659  22.389  11.199   8.687 -0.1923 -0.4422 -0.4051
98644W        W41660  23.646   8.549   9.790 -0.2038 -0.0202  0.2484
98645W        W41661  29.384   1.227  20.225  0.4300 -0.2689 -0.1968
98646W        W41662  23.991  26.456   6.983 -0.0435 -0.1005 -0.3069
98647W        W41663   2.233   9.584  24.580  0.3212 -0.1030  0.1864
98648W        W41664  14.911   0.626  29.308 -0.0471  0.0647  0.1761
98649W        W41665  11.878   2.993   6.196  0.4012 -0.3104 -0.0196
98650W        W41666  33.544  26.342   2.910 -0.3418  0.2345 -0.1099
98651W        W41667  11.679  16.155  21.932  0.1298 -0.4110  0.2105
98652W        W41668  28.385   2.576   7.727  0.0748 -0.2167 -0.1208
98653W        W41669  22.151   9.249   1.584  0.0603  0.1551  0.2144
98654W        W41670  14.655   2.904   6.518  0.2077  0.0564 -0.0787
98655W        W41671  22.041  32.391   8.209  0.2262  0.0690 -0.1388
98656W        W41672  15.462  21.039  21.201  0.0718  0.0131 -0.2021
98657W        W41673  24.470  32.468  22.016 -0.0338 -0.0365 -0.1505
98658W        W41674  15.374  14.031   8.846  0.2078 -0.0421 -0.0539
98659W        W41675  34.004  19.151  23.341 -0.2066 -0.0279  0.3081
98660W        W41676  29.305  21.804   7.892  0.0340 -0.1108 -0.0915
98661W        W41677   7.122  31.099  24.098 -0.0876 -0.1751 -0.4756
98662W        W41678  25.736   5.686   8.556 -0.1201  0.0220 -0.2695
98663W        W41679  21.926   8.446   4.172  0.2663  0.2256  0.0791
98664W        W41680  11.105  34.397   8.411 -0.1593  0.0631 -0.0699
98665W        W41681  10.039   4.553   6.486 -0.0145  0.1878  0.1282
98666W        W41682   8.889   2.833  16.506  0.2445  0.2223  0.0707
98667W        W41683  10.972  28.705   5.120  0.2377  0.3581 -0.2171
98668W        W41684  16.009   0.696   5.459 -0.0441 -0.0616  0.0483
98669W        W41685  19.632  30.720   0.574  0.0157 -0.1843  0.4154
98670W        W41686  11.441  33.991   9.210 -0.1506  0.0771  0.0593
98671W        W41687  19.010  15.791  12.522  0.0324  0.0152  0.1493
98672W        W41688  20.919   4.519   2.751 -0.2457 -0.1719  0.2152
98673W        W41689  14.777   1.362   8.175 -0.2213 -0.0467  0.0035
98674W        W41690  24.494  11.917  14.962  0.2447 -0.2723  0.0689
98675W        W41691  26.323   0.242   8.405 -0.0702  0.2048  0.3940
98676W        W41692  11.591  33.599  11.215 -0.0754 -0.0894  0.0785
98677W        W41693  17.859   5.685   1.565  0.1858  0.0099 -0.0845
98678W        W41694  29.267   0.519  23.533  0.0187  0.1526 -0.0382
98679W        W41695   0.763   3.013  29.082  0.0660 -0.1299  0.0332
98680W        W41696  12.167  31.989   9.886  0.0280 -0.1397  0.0079
98681W        W41697   1.525   3.158  14.720  0.1266 -0.2044 -0.0948
98682W        W41698  11.667  33.991   0.806 -0.0487 -0.1190  0.2091
98683W        W41699   5.604  32.050   2.832 -0.0204  0.1428 -0.1612
98684W        W41700  21.686  33.570   4.343 -0.0727  0.1100  0.0975
98685W        W41701  14.130   5.903   7.330 -0.0411 -0.0118 -0.0183
98686W        W41702   9.624   4.228  28.676  0.1591  0.0548  0.2524
98687W        W41703  29.226   5.248   3.730 -0.1741 -0.0937  0.0738
98688W        W41704  18.102  22.061   7.121 -0.0040 -0.0806  0.2919
98689W        W41705  23.877  31.439   0.430  0.1200  0.0883  0.0852
98690W        W41706  26.806   9.573   7.907  0.0894 -0.0250 -0.1843
98691W        W41707  15.961   6.711  20.831 -0.2827  0.2461  0.0282
98692W        W41708  20.534   4.384   2.991  0.4244 -0.1344 -0.2986
98693W        W41709   1.631   2.339   5.651  0.1654  0.1316  0.3686
98694W        W41710  33.273  30.831  11.145  0.0491  0.2710 -0.1280
98695W        W41711  24.199   8.146   4.414 -0.3470 -0.0977 -0.1973
98696W        W41712  20.177  30.653   1.527 -0.1073 -0.4089 -0.1976
98697W        W41713  24.678  22.543  10.709  0.0375 -0.1344 -0.0095
98698W        W41714  24.979  17.545   7.920  0.4162  0.0667  0.2114
98699W        W41715  13.847  25.517  23.215 -0.0947 -0.1037 -0.2025
98700W        W41716  32.150  29.734   3.578  0.4417  0.2452 -0.1356
98701W        W41717  14.098  31.485  29.150 -0.0943  0.0814  0.1482
98702W        W41718  21.621  34.157   7.244  0.0800 -0.0003 -0.0833
98703W        W41719  14.635  34.677   2.391  0.0430 -0.2018 -0.0102
98704W        W41720  25.875  21.141  26.012 -0.2202 -0.0184  0.0911
98705W        W41721  21.406  12.498  28.307  0.0873  0.3060 -0.0065
98706W        W41722  32.265  27.822   8.541  0.2251 -0.0539  0.1469
98707W        W41723  20.340  30.057  26.399 -0.2365 -0.0102  0.1168
98708W        W41724  27.615  29.160  26.939 -0.1017 -0.0666  0.2443
98709W        W41725  26.353  11.846   4.324  0.0781  0.1373  0.2148
98710W        W41726   6.755  29.680  23.551  0.4184  0.0783 -0.2147
98711W        W41727  11.307   8.964  27.790  0.2274 -0.0285  0.2252
98712W        W41728  22.262  13.114   6.896 -0.4975 -0.1498 -0.3690
98713W        W41729  11.546  30.879   0.345  0.1472 -0.5898 -0.1610
98714W        W41730  23.346  12.404   4.484  0.1675 -0.6407  0.0430
98715W        W41731  12.143  26.320  25.244 -0.0600  0.0162 -0.0413
98716W        W41732   0.433  12.087  25.819  0.1986  0.0775 -0.1061
98717W        W41733   9.923   9.280  23.384  0.3049  0.0527 -0.3283
98718W        W41734  19.608   7.163  28.974 -0.2821  0.1540  0.0293
98719W        W41735  14.836  19.537   6.859  0.3405 -0.0377 -0.0739
98720W        W41736   0.220   5.341  28.345  0.0167 -0.0888 -0.2249
98721W        W41737   9.062   3.345  26.720  0.1522 -0.2052  0.0613
98722W        W41738   3.429  24.702   2.674 -0.2929  0.1643 -0.0138
98723W        W41739   4.430  16.117  22.927 -0.1413  0.2039  0.1448
98724W        W41740   6.249  33.047   6.632 -0.1389 -0.1448 -0.2629
98725W        W41741  19.274   7.396   7.761  0.1442 -0.2337 -0.2919
98726W        W41742  17.097  12.142  20.935 -0.1402 -0.2488 -0.1971
98727W        W41743   4.351  27.097  27.194 -0.3684 -0.2611  0.0609
98728W        W41744   8.335   4.049   5.219 -0.1089 -0.3607 -0.0836
98729W        W41745  12.699  34.144  11.119  0.0987 -0.1517 -0.0299
98730W        W41746  25.763  12.251   5.705 -0.0716 -0.2138  0.0299
98731W        W41747  10.579  33.659   8.186 -0.0309 -0.3366  0.1578
98732W        W41748  21.499  11.673   5.038 -0.0383  0.3404 -0.0879
98733W        W41749  25.052  26.520   8.028 -0.1863  0.3988 -0.3825
98734W        W41750   6.431  30.387   1.061 -0.0582 -0.1359 -0.2559
98735W        W41751  19.822  15.410  24.030 -0.0909 -0.2929 -0.3985
98736W        W41752  23.866  21.882   4.047  0.1932 -0.0449 -0.0243
98737W        W41753  23.380   4.740  28.890 -0.0375  0.0245 -0.2308
98738W        W41754  28.509  23.679   4.181  0.2724  0.2547  0.0063
98739W        W41755  12.276   5.799   0.193 -0.1473  0.1538 -0.1616
98740W        W41756  11.925   2.770   4.191 -0.4472  0.0572 -0.0985
98741W        W41757   7.960  30.645   7.349 -0.4314 -0.0322  0.2147
98742W        W41758   9.062   5.463  10.761  0.1814  0.0466  0.1969
98743W        W41759  16.285  10.964  24.895  0.1162 -0.2516  0.4685
98744W        W41760   1.274  17.354   2.605 -0.0624  0.1758  0.3954
98745W        W41761  33.837  19.670  25.815 -0.2868 -0.2698 -0.4159
98746W        W41762  28.225   4.453  25.177 -0.0857 -0.2937  0.2896
98747W        W41763   2.325  12.319   1.428  0.0904 -0.4927 -0.2534
98748W        W41764   8.638  30.034   0.189 -0.0712 -0.1149  0.0932
98749W        W41765   5.347   6.005   3.398 -0.3670  0.1798 -0.3577
98750W        W41766  10.655   7.952  26.626 -0.2412 -0.0024 -0.0053
98751W        W41767  13.323   4.304   8.700 -0.1509 -0.4378  0.1920
98752W        W41768  19.101  18.162   0.452  0.0185 -0.0312  0.1752
98753W        W41769  13.653  31.087  25.683 -0.1966 -0.0288 -0.4551
98754W        W41770   8.793  30.029   3.070 -0.0612  0.0923 -0.1575
98755W        W41771  13.715  30.095   9.832 -0.0861  0.0329  0.2275
98756W        W41772   8.594  14.703   8.202  0.2286 -0.2140 -0.3225
98757W        W41773  15.634  32.702   8.217 -0.4521 -0.1868 -0.0006
98758W        W41774  20.439  14.887  22.690  0.3527  0.1132  0.1213
98759W        W41775  15.020   1.096   4.796  0.0685 -0.2377  0.1639
98760W        W41776  15.696  24.074   7.804 -0.0452 -0.0874  0.2059
98761W        W41777  27.359  26.580  24.982 -0.2115 -0.0033  0.2742
98762W        W41778  20.146  29.906   1.813  0.0287  0.0811  0.2120
98763W        W41779  12.515  14.387   1.583  0.1246 -0.0513  0.1935
98764W        W41780  12.945   4.398  27.293 -0.0518 -0.0688  0.0710
98765W        W41781  29.391  32.098   0.901 -0.2039  0.1313  0.0870
98766W        W41782  12.669   4.465   6.634  0.0740  0.7669 -0.0672
98767W        W41783  12.554  10.431   5.936  0.2095 -0.2063  0.0864
98768W        W41784   4.369  12.555   9.088 -0.0368  0.1269  0.0506
98769W        W41785   6.118   1.398   6.336  0.1223  0.1984 -0.2071
98770W        W41786  28.098  34.619   6.387 -0.0000 -0.0179  0.0464
98771W        W41787  15.035   6.228  27.610 -0.2730  0.1198  0.0124
98772W        W41788  13.488  28.710  25.992  0.1369  0.0699 -0.1436
98773W        W41789  19.166  29.829  27.816  0.2306 -0.3951  0.0360
98774W        W41790  14.319  24.635   8.010 -0.0152 -0.0010  0.1067
98775W        W41791  22.122  13.704  25.404  0.1636 -0.1406 -0.1531
98776W        W41792   8.703  11.916  21.453 -0.0641 -0.0101  0.3126
98777W        W41793  16.060   0.446  22.452 -0.0310  0.2469 -0.0303
98778W        W41794   3.047  33.499  24.209 -0.1090  0.0325 -0.1601
98779W        W41795  27.935   6.908   7.267 -0.3931 -0.0772 -0.2560
98780W        W41796   8.956  32.977   6.035 -0.1340 -0.0830 -0.0342
98781W        W41797  16.680  29.920  16.749  0.0315  0.3167 -0.0069
98782W        W41798  27.660  21.175  29.260  0.1908  0.2104 -0.3959
98783W        W41799  25.333  24.336   5.113 -0.0079 -0.0185  0.0562
98784W        W41800  12.008  34.741   6.466 -0.0619 -0.0149 -0.2435
98785W        W41801  32.730   6.294   0.763  0.2744 -0.2429 -0.0861
98786W        W41802  16.305   7.853   8.318  0.1339  0.1435 -0.0303
98787W        W41803  25.218  30.155   1.285 -0.0912  0.2587 -0.2231
98788W        W41804  14.015  29.458   4.111 -0.1936  0.1027 -0.0945
98789W        W41805  20.174   0.400  23.034  0.0813  0.2267  0.0261
98790W        W41806  14.821   2.108   4.640 -0.1909  0.1459  0.1916
98791W        W41807  29.994  34.380   5.494  0.2063 -0.0547  0.0055
98792W        W41808  26.311   2.141   9.357  0.0820 -0.2768 -0.0619
98793W        W41809  11.943  22.152   7.351 -0.2062  0.3011 -0.0741
98794W        W41810  17.039  11.776   6.700  0.0358  0.1972 -0.1486
98795W        W41811  20.339   2.226  19.957  0.3080 -0.0719 -0.1379
98796W        W41812  25.035  34.515   0.285  0.1089 -0.0639 -0.0137
98797W        W41813  13.584   6.448   4.362  0.1360  0.0984  0.4497
98798W        W41814   7.094  12.154   7.881  0.1160 -0.1588 -0.2534
98799W        W41815   7.362  23.304   6.211 -0.0158  0.1223  0.0423
98800W        W41816  27.714   3.303   9.375 -0.0158  0.0308  0.4140
98801W        W41817  17.282  28.335  10.004  0.3641  0.3761 -0.1621
98802W        W41818  18.400  24.527   9.301  0.0532  0.0936 -0.1499
98803W        W41819  20.494  19.921  28.137 -0.0095  0.0156  0.1685
98804W        W41820   4.540   9.279   5.916  0.0143  0.1146  0.2183
98805W        W41821  24.467  24.436   9.538 -0.2867  0.0627  0.0756
98806W        W41822  21.773  12.422   7.931 -0.3159  0.4016  0.1062
98807W        W41823  20.963  22.247   1.720  0.0007 -0.1996 -0.0239
98808W        W41824  23.209  15.714   0.300  0.4134  0.2258  0.0342
98809W        W41825  24.068   1.035  10.556  0.3780  0.1669  0.1468
98810W        W41826  16.426  20.122  28.622 -0.1193  0.0659 -0.1760
98811W        W41827  23.279   4.716   4.072 -0.0086 -0.0131  0.3273
98812W        W41828  34.032   5.919  27.654 -0.4457 -0.0815  0.1144
98813W        W41829  25.246   6.307   8.296  0.0639 -0.0964 -0.2041
98814W        W41830  20.107  15.098  26.435 -0.4900 -0.1206  0.0005
98815W        W41831  13.069  33.931  10.029 -0.1783  0.3812  0.0979
98816W        W41832  34.717  14.050  23.806  0.0654  0.1313  0.0354
98817W        W41833  20.861   0.035   6.365  0.0239  0.0386 -0.2440
98818W        W41834   5.997   9.509   0.610  0.1472  0.0062 -0.1057
98819W        W41835  19.166  19.342   4.332 -0.3382 -0.0685 -0.0147
98820W        W41836  27.671   6.059   3.835 -0.2500  0.0649  0.0185
98821W        W41837   6.405   2.623   6.956  0.1231  0.1560 -0.3077
98822W        W41838  10.712  29.917   8.100  0.0931  0.1775  0.3021
98823W        W41839  24.249  17.063   2.215  0.0382 -0.1029 -0.0014
98824W        W41840  16.564   6.017   8.482 -0.0283  0.0433 -0.1827
98825W        W41841  30.597  30.674   3.391 -0.0625 -0.0048  0.0019
98826W        W41842   7.311   2.010   1.710 -0.5397 -0.0169 -0.4311
98827W        W41843  12.850   3.728   7.441 -0.2232 -0.0470 -0.1278
98828W        W41844  14.992  23.277   2.632 -0.0642 -0.1881  0.1926
98829W        W41845  10.273   6.345  26.900  0.1991 -0.0046 -0.0124
98830W        W41846  17.253  22.357  24.707 -0.6435 -0.5002  0.0372
98831W        W41847   9.440   2.910   4.894 -0.2417  0.2041 -0.1408
98832W        W41848  15.901  34.228   2.372  0.0187 -0.1211  0.1554
98833W        W41849   2.237  19.956   4.363 -0.2065 -0.3067 -0.0135
98834W        W41850  13.364  27.065   0.453 -0.2461  0.3396  0.0516
98835W        W41851   9.259   1.756   9.185  0.2314 -0.2570 -0.3538
98836W        W41852  20.720   0.064   0.935  0.0181 -0.1620  0.3080
98837W        W41853   9.222   7.884   9.245  0.0119  0.0598 -0.1515
98838W        W41854  11.743  28.185   7.404  0.0990 -0.0183 -0.1029
98839W        W41855  25.948  15.743   1.611 -0.1643  0.0941 -0.0389
98840W        W41856  18.782  13.211  21.503 -0.0987 -0.1995 -0.3533
98841W        W41857  11.230  17.426   8.080  0.1257 -0.1620  0.1388
98842W        W41858  26.194   7.209   8.987 -0.0720  0.3966 -0.2769
98843W        W41859  32.500  13.763  25.010 -0.3554 -0.1621  0.1504
98844W        W41860  16.131   2.363  25.501  0.0189 -0.2280  0.1437
98845W        W41861  15.936   0.431   3.562  0.0296 -0.2523  0.0526
98846W        W41862  21.455   6.602   4.341 -0.0200  0.1100  0.2843
98847W        W41863  30.964  22.816   8.480 -0.3551 -0.1913 -0.1012
98848W        W41864  22.841  30.148   9.840  0.1732 -0.1369 -0.2131
98849W        W41865  14.900   3.660   5.127 -0.0834 -0.0034 -0.0194
98850W        W41866  10.758  27.425   4.805 -0.1126  0.2666 -0.0121
98851W        W41867  16.416   0.713   4.033 -0.0270  0.1588 -0.3063
98852W        W41868   6.411  33.475   5.024 -0.2187 -0.0470  0.1956
98853W        W41869  32.532  29.478   6.273 -0.0604  0.1805  0.1998
98854W        W41870   8.211  19.252   7.784 -0.1322 -0.0372  0.1918
98855W        W41871  22.418  34.531   4.148  0.2716 -0.0523 -0.4351
98856W        W41872   8.553  20.761  17.674 -0.0551 -0.2726 -0.0216
98857W        W41873   5.396   8.355   7.553  0.0837 -0.2930 -0.0653
98858W        W41874   8.633  31.749   0.934 -0.2535  0.1891  0.2388
98859W        W41875  24.737  14.023   5.359  0.2046 -0.3020  0.0737
98860W        W41876   7.432  28.299   4.956  0.1686  0.0356  0.1528
98861W        W41877  15.191  10.257   7.074  0.0728  0.0375 -0.1956
98862W        W41878  28.328  11.027  25.725  0.1508 -0.0268  0.0339
98863W        W41879  20.950  27.009   8.827  0.2088 -0.2879 -0.0626
98864W        W41880  29.421   8.209  27.138  0.0038 -0.2174  0.1469
98865W        W41881   9.136  34.019   9.117 -0.3427 -0.0474 -0.0143
98866W        W41882  25.923   1.234   9.693 -0.3079  0.1854  0.1119
98867W        W41883  28.490   7.297   9.718 -0.1153  0.0181  0.0730
98868W        W41884  21.726  31.000  20.248 -0.2161 -0.0189  0.1206
98869W        W41885  31.276   1.298   2.103  0.3292 -0.1105 -0.1999
98870W        W41886  12.936   0.627   0.391 -0.2353 -0.0209 -0.0662
98871W        W41887  12.998  25.858   7.549 -0.2896  0.1291 -0.2030
98872W        W41888  34.494  33.987   8.769 -0.1920  0.0801 -0.1390
98873W        W41889  15.470  20.479   1.136  0.1040  0.3180  0.0809
98874W        W41890   6.486  11.361   7.582 -0.3741 -0.0425 -0.1273
98875W        W41891  15.687   8.134   6.226  0.1662 -0.0015  0.2192
98876W        W41892  22.881  32.798   8.826  0.2505  0.2576 -0.0021
98877W        W41893   4.540   7.528  19.664 -0.0141  0.0089 -0.2435
98878W        W41894  22.651  34.156   0.650 -0.1458  0.0967 -0.0820
98879W        W41895  11.410   5.514   3.734 -0.0563  0.1258 -0.0690
98880W        W41896  23.507   1.777   6.475  0.0779 -0.0005 -0.0568
98881W        W41897  11.711  30.064  28.668 -0.1980 -0.1201 -0.0549
98882W        W41898  19.237  31.153   0.624  0.1708 -0.1187 -0.0187
98883W        W41899  14.148  20.456  29.171 -0.0902 -0.0428  0.4505
98884W        W41900  34.714   8.839   9.541  0.3381  0.2865  0.3119
98885W        W41901  11.497   6.238  24.761 -0.1192  0.2276  0.1208
98886W        W41902   3.557  31.862  26.614 -0.3460  0.0599 -0.2721
98887W        W41903   0.167   8.904  23.325 -0.2085  0.1988 -0.2273
98888W        W41904   9.032   6.075   5.664  0.0270  0.3702  0.2184
98889W        W41905  23.275  15.928  19.220 -0.2487  0.1786  0.0637
98890W        W41906  11.712  13.285  24.787 -0.0292  0.2370 -0.3486
98891W        W41907  25.768   4.602  10.938  0.0188 -0.2203  0.2545
98892W        W41908  14.155   5.638   3.549  0.1468 -0.1423 -0.2173
98893W        W41909  33.588  31.709  28.523 -0.2684 -0.1230 -0.2137
98894W        W41910  14.833  15.665  12.403 -0.1589  0.3122  0.3856
98895W        W41911  27.408  28.455   5.352 -0.0784 -0.1720  0.1554
98896W        W41912  13.959  22.934  16.835 -0.2134  0.2533  0.0362
98897W        W41913  13.647  13.646  27.954 -0.0590 -0.1461 -0.1155
98898W        W41914  12.036  31.230   1.631 -0.0892  0.0771 -0.0818
98899W        W41915  21.344  13.499   0.407 -0.0649  0.0358 -0.4159
98900W        W41916  26.865   9.585  10.132  0.0568 -0.0597  0.0047
98901W        W41917   2.157  31.667   9.839 -0.1328 -0.0689 -0.0701
98902W        W41918  16.976   8.288   1.684  0.1170  0.2491 -0.4007
98903W        W41919  18.194  30.911   6.029  0.1905  0.0540 -0.1979
98904W        W41920  13.214  34.433   8.902  0.4792  0.1992 -0.1988
98905W        W41921  20.275  30.581   8.876 -0.0735  0.1601 -0.1412
98906W        W41922  16.008  32.782   0.366 -0.3203  0.1806  0.0235
98907W        W41923  13.092  30.593  25.484  0.1367 -0.1040  0.1742
98908W        W41924  11.493  26.813   4.652 -0.0217  0.2082 -0.2463
98909W        W41925  13.348   9.881   6.161 -0.0012  0.0646  0.1002
98910W        W41926  16.203  22.351  20.210  0.3259  0.2191  0.1269
98911W        W41927  28.216  30.860  24.232 -0.1594  0.0984  0.0549
98912W        W41928   8.002  27.239  27.592  0.0695  0.2223  0.0193
98913W        W41929   5.511  27.974   8.259  0.0036 -0.1861 -0.1350
98914W        W41930  24.761  29.568  11.311 -0.2465 -0.1052 -0.0595
98915W        W41931  12.060   6.952   8.889 -0.3508 -0.2387 -0.1744
98916W        W41932  24.582   0.981   3.939  0.1852  0.2365  0.0495
98917W        W41933  16.666   3.096   7.460  0.1956 -0.0364  0.0179
98918W        W41934  27.195   0.910   7.506  0.0289 -0.1624 -0.0912
98919W        W41935   5.793  24.623  26.324  0.3140  0.1340 -0.0355
98920W        W41936  12.305  25.963   7.002  0.4555 -0.0290  0.2124
98921W        W41937  22.921  12.325  25.424 -0.0434 -0.1462  0.0752
98922W        W41938  25.330  28.633   3.867  0.1021 -0.0016 -0.1366
98923W        W41939  21.002  34.750  15.173 -0.0994 -0.2151 -0.0770
98924W        W41940  11.125  10.716  26.050 -0.2470 -0.0714 -0.1719
98925W        W41941  22.543  32.716   0.328  0.0143 -0.3668  0.0704
98926W        W41942   7.490   8.743   9.436  0.0056 -0.1223 -0.0447
98927W        W41943  20.523  22.284  27.921 -0.1092  0.1126  0.1431
98928W        W41944  10.180   9.520   9.498 -0.0276 -0.0387 -0.0430
98929W        W41945  15.968  13.581  25.790  0.1516  0.2240  0.1591
98930W        W41946  23.192   9.840   7.036 -0.0518 -0.0171  0.0127
98931W        W41947  28.679   2.189   0.597 -0.1196 -0.0554  0.1885
98932W        W41948   9.029  12.150  26.185 -0.2089  0.0068  0.1076
98933W        W41949   1.068   8.655   4.819  0.2523  0.0293 -0.0786
98934W        W41950  19.642  26.272   7.658 -0.2376 -0.2508  0.1117
98935W        W41951   1.832  34.406  25.213  0.2427 -0.0252  0.1342
98936W        W41952  12.711   0.195  23.985  0.0300  0.1590  0.0574
98937W        W41953  23.417   8.399   6.760  0.3849 -0.0317  0.0347
98938W        W41954  10.010  26.690  18.357 -0.1278  0.1060 -0.2991
98939W        W41955   4.898   5.798   1.944 -0.3269 -0.0423  0.1488
98940W        W41956  16.821  26.886   7.850 -0.1408  0.0205  0.1572
98941W        W41957  12.155   0.879   7.575  0.3491  0.1005  0.3499
98942W        W41958  15.985  27.513   0.185  0.0241  0.1544 -0.2848
98943W        W41959  22.770  30.669  26.255 -0.1443  0.0425  0.0409
98944W        W41960   1.673  10.200  20.227 -0.1336 -0.2064  0.0595
98945W        W41961  29.883  19.847  28.795 -0.0170  0.2901 -0.2282
98946W        W41962  17.266   7.870  23.549 -0.0881 -0.0512  0.3183
98947W        W41963  10.167  31.837   7.538 -0.4035 -0.0100 -0.0908
98948W        W41964  28.978  34.737  25.869 -0.1414 -0.2746 -0.0571
98949W        W41965  12.920  32.597   5.150  0.1997 -0.0952  0.2281
98950W        W41966   9.816   7.963   8.527 -0.1767  0.1933 -0.1510
98951W        W41967  11.649   8.001   6.441 -0.1481 -0.0847  0.0806
98952W        W41968  21.671   3.796  20.360  0.1270  0.2671 -0.2620
98953W        W41969  25.197  18.048  25.323  0.0865  0.0615  0.3727
98954W        W41970  10.185   0.791  19.261 -0.3728  0.1571  0.4247
98955W        W41971   6.666   4.474  28.687 -0.1490  0.1423  0.1971
98956W        W41972  16.865   7.694   5.343 -0.1077 -0.0360  0.2426
98957W        W41973  15.177  34.296  28.363 -0.1063 -0.2125  0.3791
98958W        W41974  18.075   7.448  28.721  0.0712 -0.0067  0.1689
98959W        W41975   2.195  34.217   7.086 -0.0570  0.0220  0.0652
98960W        W41976  20.097  32.433   4.915 -0.3762 -0.1422 -0.1467
98961W        W41977   9.990   3.611   4.066 -0.2846 -0.0896  0.2213
98962W        W41978   6.725  27.895   5.826  0.0815 -0.1774 -0.1092
98963W        W41979   4.833   9.349   6.870 -0.1984  0.1420  0.0114
98964W        W41980   7.709  34.424  25.534 -0.2458  0.1929 -0.0045
98965W        W41981  17.699  31.624   1.548  0.1386 -0.3564  0.0498
98966W        W41982  13.365   7.004   1.276  0.2329  0.2254 -0.2718
98967W        W41983  12.122  12.196   1.922  0.2076  0.0389 -0.0018
98968W        W41984   5.485  34.356  14.981 -0.1455  0.3315 -0.4727
98969W        W41985  26.381  24.994  28.585 -0.0645 -0.1861 -0.1428
98970W        W41986   8.846   4.363   8.154  0.0228  0.1697 -0.2320
98971W        W41987  18.608   7.257   4.077 -0.0432  0.2043  0.0769
98972W        W41988  12.702   6.485  23.385 -0.4616  0.2953  0.1567
98973W        W41989  32.726  19.770   6.603 -0.2603  0.1226 -0.1938
98974W        W41990   5.996  14.953  28.405  0.1650  0.1158  0.0819
98975W        W41991  12.920  30.760   0.931 -0.1090  0.0945  0.2180
98976W        W41992  33.733  29.276   5.474 -0.2025  0.1221 -0.0532
98977W        W41993   8.302   1.077   4.984  0.0714 -0.2504 -0.5543
98978W        W41994  20.890  30.855  26.174  0.0203 -0.0841  0.1184
98979W        W41995  33.538  30.781   8.790  0.1462 -0.3284  0.2140
98980W        W41996   7.203  16.548   9.152  0.1370  0.2888  0.3058
98981W        W41997  14.459  11.599   7.690  0.2987  0.0310 -0.1097
98982W        W41998  29.254   0.624   9.749 -0.1111  0.2426  0.0028
98983W        W41999   0.414   3.274  22.831 -0.1563  0.0731 -0.1167
98984W        W42000  21.451   8.305   4.670  0.3519  0.0410  0.1019
98985W        W42001  21.162  31.579   8.314  0.0085 -0.1588 -0.0567
98986W        W42002  22.358  27.460   5.421 -0.1007 -0.1608  0.0824
98987W        W42003  11.467  10.543   4.361  0.2415 -0.0679  0.0214
98988W        W42004  30.299  17.554   6.220  0.2063 -0.2659 -0.0129
98989W        W42005  10.862  30.062  19.186  0.2471 -0.1981 -0.4397
98990W        W42006  21.894  30.266   4.944  0.2885 -0.0733 -0.1264
98991W        W42007   8.722  21.744   6.001  0.1194 -0.2190  0.1643
98992W        W42008  24.377   6.647   3.427  0.0022  0.0682  0.1242
98993W        W42009  33.065  18.264   6.945 -0.0708 -0.0199  0.2829
98994W        W42010   8.945  27.161  18.440 -0.0118  0.0546  0.0180
98995W        W42011  19.599   2.255   0.779  0.1545  0.0538  0.2224
98996W        W42012  16.834  30.662   4.396  0.0554 -0.1233 -0.2379
98997W        W42013   2.460   8.097  21.548 -0.0602 -0.1980 -0.0661
98998W        W42014   7.783  16.034   1.383  0.1167  0.3886 -0.0172
98999W        W42015   7.358  16.006  24.212  0.3540  0.0691 -0.1487
99000W        W42016  26.927   5.313  29.292 -0.2287 -0.1214 -0.2018
99001W        W42017   6.427  18.627  18.705  0.1874 -0.1851  0.1422
99002W        W42018  19.840  19.450  23.231 -0.0005  0.0905  0.1688
99003W        W42019  27.840  25.374   5.242  0.1148 -0.2196  0.1079
99004W        W42020  16.774   5.375  24.881  0.1279 -0.2948 -0.4141
99005W        W42021  25.874   9.009   5.284  0.0007 -0.1000  0.1088
99006W        W42022  14.281   9.557  27.776 -0.0043 -0.1721 -0.1392
99007W        W42023  25.001   6.523  27.359 -0.1748 -0.0909 -0.1822
99008W        W42024  13.016  24.221  15.504  0.1745  0.2122 -0.1422
99009W        W42025   4.876  27.981  24.462 -0.0902 -0.2293  0.2047
99010W        W42026  10.094   4.101  26.166 -0.1741  0.2213 -0.1074
99011W        W42027  18.233   4.488  17.660 -0.0492 -0.2553  0.2651
99012W        W42028  23.213  15.085  13.655 -0.0433 -0.0775  0.0634
99013W        W42029  23.598  16.081   2.068  0.3350  0.0288 -0.1382
99014W        W42030  10.713   9.775   7.838 -0.1200 -0.0877  0.3368
99015W        W42031   2.189   8.472   6.377 -0.0967 -0.3208 -0.0306
99016W        W42032  17.658  33.211  27.961 -0.0874  0.2098  0.0125
99017W        W42033  16.860  13.503   4.750 -0.1939  0.0027  0.0716
99018W        W42034  19.523  17.519   4.146 -0.4011 -0.0492  0.0906
99019W        W42035  20.576  32.437  19.732 -0.2023  0.1996 -0.0145
99020W        W42036  27.250   8.268  26.795  0.0045  0.2322  0.1466
99021W        W42037  15.159   5.988   7.979 -0.0198 -0.1385  0.0649
99022W        W42038  25.915  29.693   9.300  0.2867 -0.0646  0.4007
99023W        W42039   0.120  15.218   3.056 -0.1507  0.1001 -0.0356
99024W        W42040  28.154  25.693  20.152 -0.2727 -0.0554  0.1382
99025W        W42041  17.884   8.273   0.815  0.0496  0.0628 -0.2467
99026W        W42042  17.461  34.237   7.365  0.0959 -0.1298 -0.2671
99027W        W42043  34.003   7.373  21.117  0.3099 -0.2020 -0.1038
99028W        W42044  23.512  34.348   3.263  0.1648  0.2329  0.0890
99029W        W42045  19.740   0.380   8.313  0.1146 -0.0462 -0.1694
99030W        W42046  21.386  18.150  24.149  0.1890 -0.2385  0.1016
99031W        W42047  15.605  30.763  28.514 -0.0314 -0.3169  0.0349
99032W        W42048  18.062  22.505   6.903 -0.1757 -0.0342 -0.1234
99033W        W42049  30.688  11.703  28.122 -0.2197 -0.0602 -0.0640
99034W        W42050  17.069   4.530   5.015  0.3634 -0.0235  0.0739
99035W        W42051  13.176  12.421  13.374 -0.2111 -0.1608 -0.0310
99036W        W42052  33.422  34.594   6.803  0.0615 -0.0320  0.1146
99037W        W42053  16.703  11.022  19.689  0.0476  0.1209 -0.1043
99038W        W42054  32.664  11.799  16.072  0.3957 -0.2556 -0.2119
99039W        W42055  23.207  34.578   1.526 -0.0202  0.0648  0.0172
99040W        W42056  25.299  25.901   2.101  0.4354 -0.2344 -0.1881
99041W        W42057  10.110  18.087  15.560  0.2740  0.1010 -0.3453
99042W        W42058  30.150   8.973  22.516 -0.0744  0.0539  0.0094
99043W        W42059   0.662  21.935  29.270  0.1048  0.0301 -0.0182
99044W        W42060  26.490  30.730  27.631  0.2404  0.0047 -0.0684
99045W        W42061  11.556  30.799  21.406  0.0483  0.1300 -0.1122
99046W        W42062  19.838   6.254  25.753  0.1022  0.1371  0.1793
99047W        W42063  28.149   5.257   4.189 -0.1720 -0.1570 -0.0020
99048W        W42064  22.813  15.329   3.299 -0.1685  0.0871  0.0048
99049W        W42065  21.225  12.678  20.933 -0.1761  0.0162  0.0270
99050W        W42066  19.963  14.972  28.877 -0.1309 -0.0560 -0.2759
99051W        W42067  30.032  26.919  27.253 -0.1838  0.1935 -0.0040
99052W        W42068  21.806  34.060  28.147 -0.1329  0.0296  0.1502
99053W        W42069   8.272   2.001   6.222 -0.2371  0.1130 -0.0172
99054W        W42070  13.847  12.399  18.990  0.1362 -0.2042 -0.1505
99055W        W42071  10.164   5.414  20.799  0.3750 -0.2888 -0.1382
99056W        W42072  33.507  14.620   2.095  0.0291  0.0125  0.1649
99057W        W42073  27.285  29.581   2.058 -0.1001 -0.1421  0.0578
99058W        W42074  22.706  23.508   4.598  0.3802 -0.0430  0.1978
99059W        W42075  17.304   2.341   9.871  0.0142  0.0850 -0.1141
99060W        W42076   8.620  27.408  18.882 -0.0649 -0.1993  0.2372
99061W        W42077  26.504  27.668  17.133 -0.0662  0.1334  0.0849
99062W        W42078   8.942   1.536  25.638 -0.1439 -0.0201 -0.1695
99063W        W42079   8.940  34.476   5.244 -0.0418  0.3693  0.3098
99064W        W42080  12.426   7.605   9.259 -0.0946 -0.1566 -0.0222
99065W        W42081  12.949   6.981   6.831  0.1581  0.3341 -0.2372
99066W        W42082  22.370  22.561  19.594  0.0375 -0.0117  0.3226
99067W        W42083  16.416  27.307  25.839  0.1877  0.1977 -0.1453
99068W        W42084  33.844  20.165  20.740  0.1678  0.2902 -0.1676
99069W        W42085  19.827  30.961  27.950 -0.1533 -0.0844  0.0481
99070W        W42086  22.707  31.373   9.699  0.0069 -0.1514 -0.2360
99071W        W42087   8.125  29.583   0.788  0.1066  0.0274 -0.2114
99072W        W42088  13.322  22.466   3.943 -0.1039  0.0039 -0.1889
99073W        W42089   9.111  19.350   2.672 -0.4368  0.2061  0.2713
99074W        W42090  28.648  23.680  21.275 -0.1324 -0.3618 -0.1032
99075W        W42091  19.237   2.776  28.220 -0.2139 -0.1170 -0.0623
99076W        W42092  16.795   3.867   4.902 -0.0502  0.0065 -0.1648
99077W        W42093  32.279  11.916  25.172 -0.1250  0.3469 -0.0148
99078W        W42094  13.365   7.954   5.941 -0.2422 -0.0158 -0.1973
99079W        W42095  14.024  31.149  28.813 -0.0596 -0.0442  0.4792
99080W        W42096  26.218   1.871  15.735 -0.1898  0.0219  0.3786
99081W        W42097  23.977  18.681   4.143 -0.2468  0.2908 -0.0762
99082W        W42098  27.497  24.959   0.390 -0.0333 -0.1378 -0.0359
99083W        W42099   9.934  23.297   1.251  0.1398  0.1804  0.2026
99084W        W42100  10.741   2.938  26.858 -0.0702  0.2627  0.2311
99085W        W42101  21.852   1.145   3.111 -0.3912  0.0900 -0.2468
99086W        W42102  14.923  20.131  21.109 -0.2507  0.2332  0.2960
99087W        W42103  29.560   5.408  24.166 -0.2173  0.2552  0.0080
99088W        W42104  11.114   0.567   5.320 -0.2858  0.1535  0.1913
99089W        W42105   7.021  28.087   6.715 -0.0404  0.0037  0.0032
99090W        W42106  29.692   3.999   6.382 -0.0112  0.0128  0.0530
99091W        W42107  13.846  22.568   1.881 -0.3806 -0.1590  0.1859
99092W        W42108  24.010  13.394   5.333 -0.0138  0.1191 -0.1829
99093W        W42109  13.265  32.261   6.025 -0.1883 -0.1145  0.0145
99094W        W42110  27.669   8.866  26.502  0.1392  0.2909 -0.1813
99095W        W42111   8.110   3.562   2.736  0.1515  0.0147  0.1740
99096W        W42112   0.947   5.147   1.821 -0.1461  0.0580  0.0654
99097W        W42113  14.331  14.533  29.299  0.1532 -0.1563  0.2593
99098W        W42114  13.376   6.643   5.843  0.0032  0.2119 -0.1158
99099W        W42115   6.587  26.737  26.279 -0.0560  0.2067 -0.2221
99100W        W42116  11.912   2.998  28.228 -0.1339  0.1005 -0.1613
99101W        W42117   4.280   0.577   3.395 -0.3511  0.1377  0.2109
99102W        W42118  13.121  27.414   6.456 -0.0519  0.2242 -0.0339
99103W        W42119  24.855   4.670  26.164  0.1691  0.0885  0.0324
99104W        W42120  12.574   9.446   8.836 -0.1342  0.1605 -0.3427
99105W        W42121  19.813  10.149   9.349 -0.1944  0.3802 -0.1766
99106W        W42122  18.624  10.267  26.857  0.1721 -0.2885 -0.0650
99107W        W42123  22.022  20.202  15.500  0.0564 -0.2677  0.1615
99108W        W42124  21.700   6.144  25.633  0.0311  0.0183 -0.0377
99109W        W42125   3.655   5.446  10.681  0.3619  0.0167  0.1135
99110W        W42126  21.907   5.262   2.141 -0.1085  0.1465  0.3956
99111W        W42127  10.714   2.693   2.462  0.0915  0.0436  0.0822
99112W        W42128  14.721   3.355  27.704 -0.1384 -0.0899  0.0030
99113W        W42129  26.577  26.179   8.065 -0.1232  0.0524  0.0878
99114W        W42130  22.818  21.662  18.927 -0.0007 -0.1406  0.2185
99115W        W42131   8.652  13.924   2.454 -0.1810  0.0957 -0.1695
99116W        W42132   2.784  34.663   6.686  0.1407 -0.0069 -0.0329
99117W        W42133  31.704  28.752   8.827  0.0797  0.0664 -0.1162
99118W        W42134  31.930  34.651  28.026 -0.0950 -0.2423  0.0150
99119W        W42135   9.296  29.685   6.781  0.2147 -0.0352  0.2253
99120W        W42136  17.638  11.571  24.703  0.2042  0.1282  0.1917
99121W        W42137  23.326  18.028   7.905 -0.3376  0.0923 -0.0709
99122W        W42138  16.380  31.406  26.870 -0.2045  0.0201 -0.0687
99123W        W42139  26.485  31.111   6.628  0.0007 -0.1632 -0.2727
99124W        W42140  19.448  21.995   4.954 -0.2087  0.0461 -0.0892
99125W        W42141  18.538  14.722  22.656  0.2261 -0.0909  0.2203
99126W        W42142  14.377  26.561   1.762 -0.3294 -0.0972 -0.3331
99127W        W42143  20.539   2.211  25.689 -0.2267 -0.0072  0.0038
99128W        W42144  29.046  14.484   6.556  0.5300  0.0881  0.2209
99129W        W42145   2.412  33.906   3.311 -0.2207  0.2082  0.0486
99130W        W42146   8.799  21.602   5.425  0.0869  0.0141  0.1618
99131W        W42147  28.124   6.450  26.390  0.1333 -0.0431 -0.4958
99132W        W42148  19.032   0.404   5.422 -0.0281 -0.1457  0.1883
99133W        W42149   2.203   3.505  29.022  0.2096 -0.2320 -0.1099
99134W        W42150   8.781   1.836  20.844 -0.1138  0.1131  0.1478
99135W        W42151  10.563  29.078  28.563 -0.0892  0.1102  0.1372
99136W        W42152   3.888  33.359   5.591 -0.2328  0.1572  0.1422
99137W        W42153  23.240  28.946  16.440 -0.0724 -0.1556 -0.4861
99138W        W42154   6.281   6.770  27.417 -0.1114 -0.0236  0.2625
99139W        W42155   9.355   1.934  26.943  0.2700  0.0121  0.0765
99140W        W42156  18.475  33.327   0.442 -0.1437  0.0323 -0.0052
99141W        W42157  25.302  11.076   5.776  0.2580  0.1449 -0.3154
99142W        W42158  20.495   8.441   4.316 -0.0301  0.0807  0.1742
99143W        W42159  12.908  28.366   4.257  0.1075  0.0571 -0.0097
99144W        W42160  17.007   2.601  20.135  0.0455 -0.1092  0.1287
99145W        W42161  29.464  34.215  27.064  0.2833  0.1534 -0.0005
99146W        W42162  16.376  34.508   7.388  0.2799 -0.2499 -0.1236
99147W        W42163  19.390   1.274  22.420 -0.1285  0.0620  0.0787
99148W        W42164  12.915   8.293   7.396  0.4015  0.0720  0.2008
99149W        W42165  11.961  17.116   1.158 -0.0981  0.2904  0.0343
99150W        W42166  14.859   9.080  23.722 -0.2633 -0.1035 -0.0966
99151W        W42167  22.208  10.010   5.895 -0.0414 -0.0074  0.2284
99152W        W42168   3.893   8.382  21.458 -0.0317  0.2341  0.3275
99153W        W42169  14.534  16.391   2.255  0.0008  0.0165 -0.0900
99154W        W42170  16.237  20.355   3.438  0.0683  0.1038 -0.0514
99155W        W42171   3.289  29.555  26.171 -0.2426  0.1568 -0.1043
99156W        W42172  12.857  14.003   2.251 -0.1461  0.1778 -0.0932
99157W        W42173   6.669  29.801  25.981  0.2088 -0.0662 -0.1893
99158W        W42174  32.473  11.930  28.320 -0.1433 -0.1019 -0.1919
99159W        W42175  10.574   6.871   3.205 -0.0321  0.3206  0.0547
99160W        W42176   0.867  14.873   0.480  0.1835  0.0911  0.2563
99161W        W42177  21.619   2.216   9.426 -0.5069  0.2315 -0.1480
99162W        W42178   7.797  28.673  19.325  0.2519  0.1280  0.3482
99163W        W42179  23.763  29.588  15.940  0.0038 -0.1543  0.2907
99164W        W42180  29.508   7.446   4.908  0.2591  0.2109  0.3537
99165W        W42181   3.160  26.636  29.019  0.1960  0.0045  0.0705
99166W        W42182  22.912  11.636  25.427  0.1678 -0.0935  0.1433
99167W        W42183  17.952   6.335  27.596 -0.2237  0.0130  0.2646
99168W        W42184   2.901  17.124   5.368 -0.0814 -0.1800 -0.0146
99169W        W42185  24.316  23.256  10.053  0.0407  0.2263  0.2309
99170W        W42186  30.705  14.510   6.967  0.0073 -0.0515  0.1453
99171W        W42187  19.473   5.844  28.574  0.1800 -0.1826  0.1871
99172W        W42188  13.773   4.578   0.869 -0.0748  0.1304 -0.0651
99173W        W42189  20.384  23.073  26.980  0.0440  0.3547 -0.1932
99174W        W42190  16.647  10.614   5.715 -0.0762 -0.1653 -0.1260
99175W        W42191  10.279  13.889   5.802  0.1018  0.0078 -0.1706
99176W        W42192  11.336  25.080   7.507  0.0185 -0.0866 -0.2528
99177W        W42193  33.279   8.919   3.482  0.0640 -0.0377 -0.3106
99178W        W42194  15.318   9.099   0.328  0.2245  0.4544 -0.3192
99179W        W42195  17.607   7.385  20.553  0.1015  0.2746 -0.1830
99180W        W42196  22.553   1.442   4.682 -0.0475 -0.0610 -0.2979
99181W        W42197  33.190  26.131   9.612  0.0369 -0.3643 -0.1459
99182W        W42198  18.572   1.568  26.540  0.0309  0.0483 -0.1985
99183W        W42199  13.240  17.710  29.204  0.2612  0.3190  0.3842
99184W        W42200  25.486  10.940   6.274  0.2714  0.2130 -0.2034
99185W        W42201  20.085  34.310  26.477 -0.0062 -0.0881  0.2733
99186W        W42202  21.260   0.059   5.651 -0.0105  0.1061 -0.2153
99187W        W42203  15.369  31.716  26.741  0.0186  0.0713 -0.0378
99188W        W42204   7.868  15.467   1.078 -0.1388 -0.0701 -0.1755
99189W        W42205  19.833   4.015  20.511 -0.0723  0.1126  0.1545
99190W        W42206  14.955   6.122   3.364  0.1669 -0.1673  0.1300
99191W        W42207   3.476  12.835   7.754  0.1775  0.0212 -0.0116
99192W        W42208  15.928   8.786  20.875 -0.1507 -0.0281  0.4232
99193W        W42209  11.797  16.953  24.448 -0.0921  0.4080 -0.2552
99194W        W42210  12.005  29.814  28.295 -0.0858  0.0657  0.0977
99195W        W42211  20.154  31.688   6.775  0.0592 -0.0562  0.3854
99196W        W42212  12.746  27.161   2.471  0.1300 -0.2631 -0.2053
99197W        W42213  16.518   5.467   1.965  0.1478 -0.1007 -0.1498
99198W        W42214  12.534  13.530  24.843 -0.2667 -0.1986  0.0693
99199W        W42215   9.494  12.803  17.585 -0.1343 -0.1050 -0.1214
99200W        W42216  11.407  20.110   3.174 -0.0154 -0.0897 -0.2629
99201W        W42217   3.988   5.982  15.748 -0.0089  0.1869  0.0311
99202W        W42218  22.180   2.742   4.051 -0.4217  0.1935 -0.3595
99203W        W42219  25.734   9.463   7.468  0.0830  0.1356  0.1236
99204W        W42220  19.281  24.103  18.912 -0.1313  0.4271 -0.2855
99205W        W42221  14.621  10.207  15.695  0.0631 -0.2366 -0.0958
99206W        W42222  11.178  15.637   0.470  0.0339  0.0218  0.0495
99207W        W42223  18.623  13.135   4.851 -0.2501  0.1083  0.0064
99208W        W42224  18.504  16.689  26.444 -0.0513  0.0629  0.2949
99209W        W42225  16.697  34.331   5.295  0.2625  0.0659 -0.4080
99210W        W42226  27.583  26.615  28.531 -0.2072  0.0018 -0.4411
99211W        W42227  16.219  11.820  27.947  0.2062  0.0321 -0.2385
99212W        W42228  16.099   5.627  27.941 -0.2420 -0.0848 -0.0906
99213W        W42229  14.040  27.671  28.236  0.3555 -0.0335 -0.2094
99214W        W42230  23.312   0.988   4.454 -0.3045 -0.1821  0.1084
99215W        W42231  15.389  12.247   3.919 -0.0283  0.0248 -0.0437
99216W        W42232   9.490  19.054  14.105  0.4740 -0.1939 -0.0102
99217W        W42233  12.928  17.294   3.849 -0.0459  0.2172  0.1613
99218W        W42234  18.490   3.938  17.323 -0.1872 -0.2807 -0.0246
99219W        W42235   9.468  14.514   4.400 -0.2693 -0.0327 -0.4978
99220W        W42236  16.860   1.579  24.666  0.0709 -0.0013 -0.0761
99221W        W42237  23.625  20.096   1.730 -0.4151 -0.0288 -0.2594
99222W        W42238  18.394   8.979   2.793 -0.2226 -0.1253  0.2158
99223W        W42239  21.129   5.377   9.169 -0.0302 -0.1103 -0.2804
99224W        W42240   8.245   8.080  27.356 -0.3224  0.1786  0.0467
99225W        W42241  14.395  34.600   9.618  0.1645  0.0464 -0.1423
99226W        W42242  22.064   0.395  18.228  0.0047  0.2816  0.0997
99227W        W42243   8.285  27.242  22.826  0.0123 -0.2923 -0.3135
99228W        W42244  32.405   8.762   3.174 -0.0614  0.1816 -0.1571
99229W        W42245  14.956  12.735   8.433 -0.0503 -0.0757  0.0547
99230W        W42246  10.891  16.523   2.708 -0.0524  0.1117 -0.1360
99231W        W42247   5.808   9.166  18.967 -0.0169  0.2550 -0.3188
99232W        W42248  11.922   4.155  17.992 -0.1533 -0.1268  0.0349
99233W        W42249  25.736  33.566   5.524 -0.2555 -0.0496 -0.1656
99234W        W42250  12.738  13.283  18.613 -0.1507 -0.1015 -0.0405
99235W        W42251  23.521  34.441  15.309  0.1149  0.2574 -0.0396
99236W        W42252  30.895  21.188   7.234 -0.0338  0.2359  0.2499
99237W        W42253  15.719  14.064   7.717  0.4366  0.0320  0.0878
99238W        W42254  14.187  12.340  28.304 -0.1207 -0.1169  0.2087
99239W        W42255  20.434  31.363  18.390 -0.3436  0.1260 -0.0356
99240W        W42256  16.679  20.790  21.864 -0.1678  0.2152 -0.1599
99241W        W42257   9.463   4.003   8.373 -0.1047 -0.0507  0.2775
99242W        W42258  24.732  20.468  24.537 -0.2049 -0.0812  0.2394
99243W        W42259  13.983  12.210   2.914  0.0858  0.1691  0.0768
99244W        W42260   4.302   5.296   3.890 -0.0691 -0.0571 -0.1760
99245W        W42261   3.104   7.408  27.230 -0.0495  0.1709 -0.2823
99246W        W42262  20.996   9.674   5.627 -0.1069  0.2874  0.2911
99247W        W42263  34.593  31.050   7.820  0.4434 -0.3787  0.0117
99248W        W42264   8.830   5.388  21.870  0.0762 -0.2222 -0.1376
99249W        W42265   6.159  34.134   6.901 -0.0484  0.1109 -0.1751
99250W        W42266   6.955  12.101   2.643  0.0360 -0.1189 -0.1037
99251W        W42267  16.212   6.150   2.697  0.1848 -0.1068 -0.2302
99252W        W42268   0.404  32.298  17.141 -0.0410 -0.0399  0.1315
99253W        W42269  26.753   8.289  15.308 -0.3370  0.0600  0.1313
99254W        W42270  10.548  20.973  19.331  0.0084  0.0102 -0.1280
99255W        W42271  15.118  26.077   6.447 -0.0323 -0.0471 -0.1056
99256W        W42272  28.897  31.336   5.538  0.1404  0.0589 -0.2820
99257W        W42273   7.056  14.689   7.608 -0.0433  0.0531  0.2175
99258W        W42274  24.999  20.990  26.344  0.0860  0.0764 -0.1894
99259W        W42275  12.621  24.429  29.153 -0.1449  0.0399 -0.2076
99260W        W42276   8.883   4.373   9.569  0.1990  0.0984  0.0502
99261W        W42277  21.204  18.307  28.189  0.2700 -0.3133 -0.1123
99262W        W42278  20.547  32.264  27.786 -0.3217  0.0668 -0.1519
99263W        W42279  15.121  24.897  26.407 -0.0300 -0.2549 -0.3096
99264W        W42280  19.471  34.636   4.749 -0.2155 -0.3818  0.4030
99265W        W42281  21.652  33.290   0.190  0.0031 -0.0039  0.1226
99266W        W42282  16.135  18.996  29.076 -0.1905 -0.2863  0.2422
99267W        W42283  11.566  24.497  23.889 -0.1041  0.2793 -0.0172
99268W        W42284  14.980  18.821   7.023 -0.0099 -0.1764  0.1206
99269W        W42285  17.803   1.934  24.399 -0.1928  0.2638  0.0429
99270W        W42286   5.061   8.758   8.401  0.0383  0.0075  0.0188
99271W        W42287  20.743  33.220   5.976  0.3615  0.1022  0.0532
99272W        W42288   5.687  14.494  16.648 -0.1151  0.0103  0.1247
99273W        W42289  34.595  18.984  15.054 -0.2450  0.0742  0.1798
99274W        W42290  24.820  12.332  23.564  0.1965  0.1457 -0.0986
99275W        W42291  21.727  31.399  25.971 -0.2195 -0.0970  0.3215
99276W        W42292  12.537   8.217   8.375 -0.0602  0.0525  0.2498
99277W        W42293  24.270  14.826   1.889 -0.1075 -0.0776  0.0679
99278W        W42294   3.114   6.004  21.086 -0.0355 -0.2604  0.0821
99279W        W42295  26.384  17.013   2.571  0.2995  0.0924 -0.4222
99280W        W42296  17.354  34.212   8.132 -0.1428  0.1558  0.0007
99281W        W42297  33.455   6.188  24.342  0.2301 -0.0102  0.0379
99282W        W42298  10.878  11.182   2.388  0.3442 -0.1299 -0.1010
99283W        W42299   4.478  16.139   3.989 -0.2638 -0.1371  0.0366
99284W        W42300  32.458  11.137  28.293 -0.0065 -0.2113 -0.0109
99285W        W42301  26.127   9.668   2.620  0.0081  0.2163 -0.2501
99286W        W42302   6.505  16.815  23.520 -0.0827 -0.3584 -0.3046
99287W        W42303   6.586  34.257  10.115  0.0393 -0.3653  0.1257
99288W        W42304   2.226   7.249  25.434 -0.1490  0.2421 -0.0687
99289W        W42305  20.900   4.283   5.161  0.1746 -0.0639  0.0012
99290W        W42306   3.281   8.388   0.889  0.0438  0.0109  0.3349
99291W        W42307  21.135  33.448  18.257  0.1993  0.0773  0.0228
99292W        W42308  28.696  29.504   0.789 -0.1491  0.1112 -0.0042
99293W        W42309  25.771  15.024   8.609  0.2076 -0.0283  0.4264
99294W        W42310  21.167   3.644  20.118  0.1272  0.3736 -0.1289
99295W        W42311  18.217   8.282   1.294  0.0313 -0.0246 -0.0156
99296W        W42312   4.221  29.649   2.692 -0.1959  0.0352 -0.0147
99297W        W42313   7.040  33.889  25.398 -0.0238 -0.3167  0.1394
99298W        W42314   7.325   0.900   2.304 -0.2015 -0.2783  0.0997
99299W        W42315  15.185  32.256   3.022 -0.1903  0.0639 -0.0426
99300W        W42316   3.158  22.954  25.231  0.0574  0.2221  0.1434
99301W        W42317  17.609   3.780  29.253 -0.1327 -0.4004  0.1577
99302W        W42318  18.023  14.066  28.775 -0.1764  0.2660 -0.2336
99303W        W42319  10.373  17.483   7.131 -0.2380 -0.0682  0.1419
99304W        W42320  24.416  32.682  10.645 -0.3870  0.3059 -0.1118
99305W        W42321  33.848  20.271  21.441 -0.0317 -0.0860  0.0353
99306W        W42322  11.450  10.398  19.597  0.0160  0.0947  0.5739
99307W        W42323  19.369  32.668  29.309 -0.0966 -0.3628  0.2393
99308W        W42324   4.973   8.255  23.485  0.0295 -0.0475  0.1365
99309W        W42325  13.622  34.110  19.147 -0.0324 -0.1353 -0.0248
99310W        W42326  31.425  14.243   3.574 -0.1441 -0.0343 -0.0967
99311W        W42327  26.176  11.010   1.317 -0.0479  0.2147  0.2407
99312W        W42328  34.651  13.690  25.131 -0.2355 -0.3803 -0.0012
99313W        W42329  34.440   7.447   0.595  0.0136 -0.0670 -0.0451
99314W        W42330  10.184  34.321  16.480  0.1780 -0.3322  0.0226
99315W        W42331  15.668  15.867  26.319 -0.2973 -0.0779 -0.2210
99316W        W42332  17.132  12.192  12.676 -0.2622 -0.2766  0.0339
99317W        W42333  15.185   9.974  15.968 -0.2827 -0.0295 -0.1578
99318W        W42334  16.971  17.960  18.795 -0.0744 -0.3092 -0.1284
99319W        W42335   6.341  28.913   8.159 -0.0512 -0.0968  0.0157
99320W        W42336   7.533   8.501  28.978 -0.0963 -0.0308  0.0706
99321W        W42337  17.454  17.822  25.262  0.3120 -0.0866 -0.5551
99322W        W42338  12.468   5.067   2.384  0.1095 -0.3395 -0.0613
99323W        W42339  14.518  15.965  22.771  0.0002 -0.0243  0.0622
99324W        W42340  17.048  18.767   6.492 -0.1249  0.0504  0.3158
99325W        W42341  27.182  27.313  23.431  0.0342 -0.0129  0.2066
99326W        W42342  17.308  34.078   8.728 -0.1460  0.2691 -0.5667
99327W        W42343   8.659   6.912   2.174 -0.3513 -0.1949  0.0357
99328W        W42344  17.248  29.297   7.226 -0.3236 -0.5854  0.0209
99329W        W42345  20.818  34.553   9.133 -0.2795 -0.0256 -0.1912
99330W        W42346  29.364   5.243   6.679 -0.0955  0.1390  0.1051
99331W        W42347  22.563  16.452  13.411  0.1954 -0.1920 -0.1528
99332W        W42348  12.430   6.844   6.190  0.0295 -0.2182  0.0558
99333W        W42349  27.474  22.527  28.905 -0.2542 -0.1636 -0.0702
99334W        W42350  16.057  18.288  16.696  0.0043 -0.0411  0.0089
99335W        W42351  24.693   9.058  22.487 -0.0190  0.0912  0.0342
99336W        W42352   4.066   6.131  20.292  0.0651  0.0193 -0.0581
99337W        W42353  20.884  11.009  27.589  0.0981 -0.0620  0.0982
99338W        W42354  16.081  17.495  18.178  0.2753  0.0763 -0.3025
99339W        W42355  16.117   3.991  19.112  0.2499  0.0219  0.1060
99340W        W42356   4.193  33.304  27.256 -0.1807 -0.1626 -0.2255
99341W        W42357   0.942   8.431   9.933  0.0878  0.1787  0.1522
99342W        W42358  13.117  33.646  27.399  0.1749 -0.2084 -0.1077
99343W        W42359  13.599  20.282  13.970 -0.0529  0.0310  0.2522
99344W        W42360  12.991   9.132   3.933 -0.0847 -0.2129  0.2568
99345W        W42361  32.610   9.082  17.850 -0.1319  0.1479  0.0748
99346W        W42362  20.057  24.212  19.566 -0.1225  0.2661  0.1209
99347W        W42363   6.821   9.749  26.226  0.1800 -0.2430 -0.0813
99348W        W42364  16.566  32.231   4.850 -0.3671  0.3556  0.2048
99349W        W42365  17.725  16.183   2.720  0.0489 -0.0217 -0.1567
99350W        W42366  34.579  32.633   3.557  0.0265  0.0106  0.1000
99351W        W42367  17.460  11.129   2.280 -0.2232 -0.0650  0.1023
99352W        W42368  16.292  30.946   0.769 -0.0685  0.2599 -0.0631
99353W        W42369  28.699   7.780   9.572 -0.0443 -0.1330 -0.0232
99354W        W42370  17.461  32.022  22.742  0.2184  0.0657  0.0797
99355W        W42371  20.958  18.032  26.932  0.1707  0.4510  0.0048
99356W        W42372   9.040  30.431   8.341 -0.2364  0.0134  0.1000
99357W        W42373  22.713  29.348   4.079 -0.1080  0.0334  0.1216
99358W        W42374  29.135   9.731   5.395  0.4951  0.2491 -0.1504
99359W        W42375  12.699  20.277  24.131 -0.1220  0.2677 -0.2064
99360W        W42376  21.933  30.878  27.105  0.0059 -0.1609 -0.2255
99361W        W42377  10.057  33.541   8.155  0.2066  0.3813  0.1111
99362W        W42378  29.512   6.463  22.627 -0.1115  0.0944  0.0145
99363W        W42379   7.847   8.377   6.050  0.1663 -0.2098 -0.4253
99364W        W42380  18.405   6.451   9.445  0.1482 -0.3230 -0.2635
99365W        W42381   6.482   0.106  29.025 -0.3044 -0.1175 -0.0049
99366W        W42382  10.188  13.189  20.215 -0.1442 -0.2005 -0.1541
99367W        W42383  16.444  27.068  24.684 -0.1747  0.0213  0.0013
99368W        W42384   0.783   2.206  27.751 -0.1580  0.0752  0.1080
99369W        W42385  19.434  12.689   8.059 -0.0142 -0.2030  0.3488
99370W        W42386   8.062   4.663   6.577 -0.0778  0.1166 -0.2941
99371W        W42387  14.138   7.129   8.907 -0.0910  0.0584  0.1918
99372W        W42388  20.132   1.625  14.494 -0.0170  0.2282 -0.0959
99373W        W42389  34.000  33.759  24.858  0.5467  0.3591  0.0430
99374W        W42390   6.200   4.921   7.741  0.0419 -0.1137  0.0904
99375W        W42391  13.826   3.424  22.152  0.0370 -0.0649  0.3962
99376W        W42392  25.869   2.292  20.621 -0.3838  0.3327  0.1928
99377W        W42393  16.370  11.386  27.262  0.0553 -0.5043 -0.0257
99378W        W42394  16.028  12.679  22.827 -0.2291 -0.1067 -0.0900
99379W        W42395  21.186   0.617   6.939  0.0925  0.1272 -0.1773
99380W        W42396   9.072  15.066   5.035  0.0197  0.1079  0.0584
99381W        W42397  16.811   7.697  20.453 -0.1488 -0.0236 -0.1695
99382W        W42398   1.633   9.179  27.574 -0.0667  0.0242  0.2382
99383W        W42399   9.509  31.898   4.721  0.1880  0.0177 -0.3654
99384W        W42400  23.335   1.975   2.192 -0.0663  0.3420  0.1548
99385W        W42401  19.361  10.966   3.483 -0.0554 -0.2193 -0.1533
99386W        W42402  11.785   0.005   1.080 -0.0311  0.2250 -0.0219
99387W        W42403  10.640  32.067   7.586 -0.0791  0.4057 -0.0878
99388W        W42404  11.253  12.115  13.331 -0.2838  0.2197 -0.0913
99389W        W42405  26.466  30.939  10.515  0.2435  0.0097  0.3498
99390W        W42406  25.911  17.126  25.929  0.1169  0.1181  0.3457
99391W        W42407   2.059   6.198   6.079 -0.1348 -0.0795 -0.0901
99392W        W42408  15.206   4.862  17.738  0.0341  0.0410 -0.1883
99393W        W42409  12.667  33.007   1.548  0.0121  0.1803  0.1922
99394W        W42410  27.747  17.219   7.477  0.1448 -0.1070 -0.1188
99395W        W42411  28.406   6.209  18.393 -0.2660  0.1527  0.0767
99396W        W42412  14.036  25.816  22.901  0.2248  0.2631 -0.1930
99397W        W42413  30.835  34.220   0.515 -0.3376  0.0593  0.1361
99398W        W42414  15.608  16.747  26.174 -0.0574  0.2888  0.0720
99399W        W42415  25.664  12.518   6.275 -0.0019 -0.0868  0.3159
99400W        W42416  22.712   8.637  28.520 -0.0951 -0.0420 -0.2311
99401W        W42417  22.723   5.685   6.157 -0.1513 -0.0182 -0.0733
99402W        W42418  34.605  27.504  17.313  0.0803  0.3656  0.2278
99403W        W42419  30.377   3.250   4.103 -0.1058 -0.1487 -0.3598
99404W        W42420  24.521  34.488   6.439 -0.0574 -0.0590 -0.1719
99405W        W42421  15.496  33.742   7.295  0.0416 -0.0447  0.0969
99406W        W42422  22.268   8.262   3.077 -0.3779 -0.1464 -0.2382
99407W        W42423  24.164   0.029   7.746  0.1371 -0.0911  0.0051
99408W        W42424  19.532  19.858  21.775 -0.0209  0.2628 -0.2017
99409W        W42425  15.938  33.756   7.092  0.2050  0.0487 -0.0620
99410W        W42426  31.252  12.839   6.747  0.3081  0.0318  0.2568
99411W        W42427  27.055  33.466   6.097  0.0104 -0.2042  0.1932
99412W        W42428  13.547  27.503   2.382 -0.0594  0.2481  0.3897
99413W        W42429  16.428   8.408  23.577  0.3585  0.1969 -0.2041
99414W        W42430   4.754   3.143   2.374  0.1374  0.3057  0.0193
99415W        W42431  14.394  15.051  20.903  0.0516 -0.4013  0.0846
99416W        W42432  29.431  19.694   1.741  0.4199 -0.0860  0.1081
99417W        W42433  26.144  10.181   8.497 -0.1566  0.0738  0.0647
99418W        W42434  27.099   5.638   9.210 -0.1731 -0.2377  0.4227
99419W        W42435   8.672   9.225   2.530 -0.1533  0.3116 -0.1471
99420W        W42436   1.877  28.909  22.273 -0.0294 -0.0906 -0.1949
99421W        W42437   4.557   6.950  25.532 -0.0862 -0.3999 -0.0143
99422W        W42438  12.272  28.719  25.413  0.2360 -0.1303  0.1908
99423W        W42439  27.116  12.275   9.232  0.0936 -0.3840  0.2954
99424W        W42440  27.996  12.542   8.391  0.0975 -0.0032 -0.0956
99425W        W42441  19.634   2.404   5.609  0.0498  0.0392  0.2058
99426W        W42442   8.486  16.705   8.848 -0.0432 -0.1502 -0.1119
99427W        W42443  31.415  10.664   6.928  0.1860  0.0060  0.2018
99428W        W42444   9.218  11.302  24.093 -0.0385  0.1288  0.0055
99429W        W42445   8.312  25.772   5.370 -0.1175 -0.0232  0.3526
99430W        W42446  31.126   3.593   6.916 -0.2161 -0.1847  0.2653
99431W        W42447  17.662  20.340  16.502  0.2887  0.1124  0.1576
99432W        W42448  23.083  32.995  26.631 -0.0428 -0.1541 -0.0860
99433W        W42449  30.452  33.173   3.144 -0.0621 -0.1629 -0.1158
99434W        W42450  26.924  18.340  10.410  0.1664  0.1025 -0.0991
99435W        W42451  20.793   7.079   4.449 -0.0175 -0.0417 -0.1720
99436W        W42452  17.485  28.340   7.634  0.2060 -0.0691  0.0549
99437W        W42453  23.405   3.525   2.864 -0.0887  0.1216  0.0902
99438W        W42454  15.786  17.045   6.153  0.0863  0.0841  0.1521
99439W        W42455   7.546  17.836   5.415 -0.0907  0.2572  0.2479
99440W        W42456   6.103  14.192  18.696 -0.2659  0.0784  0.0129
99441W        W42457  14.662   1.582   1.211 -0.0770 -0.2373 -0.3074
99442W        W42458  30.776  13.747   2.734 -0.0795  0.0326  0.0825
99443W        W42459  12.939   7.943   4.074 -0.1247 -0.0912 -0.1300
99444W        W42460  20.029  20.965   3.181  0.1934  0.1553  0.1380
99445W        W42461  14.042   0.556   5.567 -0.0019 -0.3648  0.1938
99446W        W42462   2.358   6.351  28.739  0.0179 -0.0060  0.2143
99447W        W42463  27.309  12.388   8.220  0.0440 -0.3677 -0.1812
99448W        W42464  22.017  14.242  26.391 -0.1642 -0.0905  0.0940
99449W        W42465  34.476  31.757  27.050  0.0673  0.0438  0.0933
99450W        W42466  15.430   7.344   3.416 -0.0983  0.2170  0.2598
99451W        W42467  21.216  24.462   4.016 -0.3116  0.3345 -0.3054
99452W        W42468  19.474   3.670  28.806 -0.0307  0.0393  0.3502
99453W        W42469  30.056  24.745   2.082  0.0420  0.1497 -0.3463
99454W        W42470  29.903  25.532   0.588  0.3974 -0.1318 -0.3131
99455W        W42471  24.726   9.570  26.101 -0.0680  0.3032  0.3474
99456W        W42472  16.616  23.380  27.736  0.2611  0.3236  0.2818
99457W        W42473  17.053  25.216   4.478 -0.0135  0.1607 -0.1665
99458W        W42474  23.981   1.599   3.678 -0.2225  0.1071  0.0206
99459W        W42475  16.077   3.654   2.401 -0.0377 -0.0283  0.3164
99460W        W42476   8.601  23.452  14.457  0.0137 -0.0285 -0.0227
99461W        W42477  14.861  34.568   2.843 -0.4160 -0.2334 -0.0720
99462W        W42478  27.299  34.629  20.967 -0.0485  0.2993 -0.1333
99463W        W42479  29.753   9.338  26.297 -0.0476 -0.0328  0.1921
99464W        W42480  23.368  24.350   8.750  0.1463  0.0235  0.0946
99465W        W42481  32.075  11.464   3.362  0.0987 -0.4273 -0.0780
99466W        W42482  18.747  33.662  17.606 -0.0158  0.1943 -0.1645
99467W        W42483  10.032  14.429   8.070 -0.1122 -0.2607 -0.2188
99468W        W42484  23.542   5.039  27.869  0.0557 -0.0767 -0.0031
99469W        W42485  16.083   8.999  22.329  0.1206 -0.0708 -0.2033
99470W        W42486  11.464   5.514  27.184 -0.0673  0.0584 -0.2552
99471W        W42487  17.779   8.096   8.365  0.2078 -0.0202  0.0740
99472W        W42488  17.522   7.914  27.029 -0.0523  0.2070 -0.1163
99473W        W42489  33.571   4.567  10.427 -0.5857  0.0439  0.1286
99474W        W42490  11.048   4.912  17.605 -0.3234 -0.1446  0.2934
99475W        W42491  32.056   5.393  21.312  0.0666 -0.0719  0.2260
99476W        W42492  33.263  21.294   4.537 -0.2091  0.0572 -0.0266
99477W        W42493   4.486  19.122   3.515 -0.0974 -0.0418 -0.0521
99478W        W42494  14.694   6.955  19.049 -0.0008  0.2322  0.0165
99479W        W42495  25.486  25.233   4.420  0.0982  0.1471  0.1617
99480W        W42496  20.035   9.004   9.583  0.0132  0.2219  0.0828
99481W        W42497  24.848   2.037   4.466 -0.2335  0.0275  0.0735
99482W        W42498   0.222  32.269   2.518  0.0595 -0.2161 -0.3229
99483W        W42499  21.616   6.121   3.138  0.0921  0.0161  0.0375
99484W        W42500  11.270  26.777  25.775  0.0640 -0.1050  0.0294
99485W        W42501  14.118   2.830  27.367  0.0442 -0.0782 -0.0585
99486W        W42502  26.881  26.913   9.714 -0.1358 -0.0430  0.2922
99487W        W42503  11.789  29.047   9.718  0.2630  0.1223  0.1443
99488W        W42504  22.950  12.057  14.766  0.2816 -0.1525 -0.0980
99489W        W42505   8.667   8.785   8.933 -0.2791  0.0149 -0.3643
99490W        W42506  34.051   2.601   7.350 -0.0865 -0.1087  0.0896
99491W        W42507   7.681  28.909  24.097  0.2069  0.0487  0.0727
99492W        W42508   1.796  11.919   7.855  0.3230 -0.2366 -0.2794
99493W        W42509  15.915   2.904   6.352 -0.1397 -0.0069 -0.1594
99494W        W42510  15.235   7.972   0.556 -0.1651 -0.2443  0.2863
99495W        W42511  10.587   3.068  26.293  0.3736 -0.2353  0.1346
99496W        W42512  15.103  32.766   6.394 -0.0818 -0.2229 -0.1505
99497W        W42513  23.498   4.333  28.066 -0.1459  0.1242  0.1300
99498W        W42514  25.457   9.283   0.404 -0.3309  0.1672  0.1078
99499W        W42515  21.218   6.158  27.292  0.0559 -0.1324 -0.3236
99500W        W42516  20.907  13.660  19.191  0.0654  0.0907 -0.0217
99501W        W42517  25.100  12.673  26.638 -0.0213  0.0551 -0.0483
99502W        W42518   1.876  34.044   3.406  0.1553  0.2775  0.0924
99503W        W42519  21.769  19.766   1.541  0.3288 -0.0253 -0.1248
99504W        W42520   6.272  20.140   3.196  0.1622 -0.2060 -0.0108
99505W        W42521  26.560  29.178   2.309  0.2088 -0.0348  0.0953
99506W        W42522  10.518  15.951   7.201  0.5399  0.0342 -0.0028
99507W        W42523  14.218  33.477  10.279  0.1020 -0.0112  0.1997
99508W        W42524  27.342   8.111   0.520 -0.6114  0.2289  0.2932
99509W        W42525  19.377   2.357   2.571 -0.1749 -0.0020 -0.2215
99510W        W42526  22.972  17.810   0.874  0.0238 -0.0170 -0.0747
99511W        W42527  25.956  33.010  15.824  0.0822 -0.0862  0.1967
99512W        W42528  17.704  10.862   7.658  0.1746  0.1054  0.2054
99513W        W42529  12.654  28.960   4.698  0.1432 -0.0166  0.3847
99514W        W42530  15.917   6.083   4.361  0.3371 -0.3183 -0.1571
99515W        W42531  32.561   0.993   2.151  0.0552  0.0356 -0.0206
99516W        W42532   3.106  11.957   8.183  0.0418 -0.2814  0.0120
99517W        W42533  20.020   2.784   3.160 -0.4539  0.0728  0.0576
99518W        W42534  22.551   7.611   6.124  0.3816  0.0793  0.0578
99519W        W42535  29.162   5.243   2.068  0.0033 -0.0850 -0.1092
99520W        W42536  12.694   0.773  20.927 -0.1967 -0.0063  0.0553
99521W        W42537   5.601  11.436   0.313  0.2539 -0.1721 -0.1728
99522W        W42538  19.430  20.589   8.173 -0.2825  0.0602  0.0520
99523W        W42539  20.094  23.674   0.352  0.3674 -0.1648 -0.1316
99524W        W42540  19.765   2.233   9.887  0.0066  0.1637 -0.1876
99525W        W42541  22.352   0.921   5.612  0.2134 -0.0056  0.1134
99526W        W42542  32.826  26.470   8.628  0.0699 -0.0147  0.1346
99527W        W42543  18.544  15.486  28.990  0.1053 -0.2316  0.0032
99528W        W42544  27.985  30.658   9.010 -0.0743  0.0346 -0.3799
99529W        W42545   3.511  33.062  27.911  0.2319  0.0688 -0.1273
99530W        W42546  28.226   0.689   3.350  0.1978 -0.3319 -0.2182
99531W        W42547  13.704  34.655   5.549  0.0205 -0.0414  0.0617
99532W        W42548   2.651   0.615  28.536 -0.2044  0.5541 -0.1583
99533W        W42549  13.826  23.191   1.967 -0.2092  0.0974 -0.0891
99534W        W42550  27.034   6.218   6.203  0.0584 -0.0821  0.0771
99535W        W42551  15.086   8.265   7.864 -0.1448  0.0501  0.0467
99536W        W42552  12.859   5.903   6.200  0.1383  0.0434  0.0109
99537W        W42553  28.469  13.798  27.804 -0.0007 -0.4386 -0.2909
99538W        W42554  17.434  16.220   2.221  0.3598 -0.3330 -0.0211
99539W        W42555  10.944  32.397  10.478  0.0367 -0.2826 -0.0886
99540W        W42556  16.576  10.998   2.904 -0.1518 -0.0524  0.2334
99541W        W42557  15.199   3.331  26.777 -0.2819 -0.2646 -0.0417
99542W        W42558  19.226   0.212   7.464  0.1144  0.2263 -0.1921
99543W        W42559  31.636   0.764  23.864 -0.0470 -0.2837  0.3691
99544W        W42560   1.787   6.184   1.524 -0.1213  0.2329  0.2298
99545W        W42561  21.297  13.455   6.371 -0.4302 -0.1738 -0.1391
99546W        W42562  31.156   6.479   8.110  0.2844 -0.0426 -0.0397
99547W        W42563  10.798  33.471   5.008  0.0492 -0.0008  0.0776
99548W        W42564  24.210   7.075   5.468  0.1021  0.0335  0.0086
99549W        W42565  10.514  16.412   7.431  0.0660  0.1454  0.0406
99550W        W42566  18.414  12.269   0.428  0.1830 -0.0946  0.3817
99551W        W42567  24.972   4.851  24.579 -0.1975  0.1210 -0.4396
99552W        W42568  11.464  10.589  22.129  0.2634 -0.3009  0.1893
99553W        W42569   9.097   0.897   8.028 -0.1205 -0.3679  0.5423
99554W        W42570  18.372  21.142  23.193  0.0823  0.2204 -0.2464
99555W        W42571  11.705  21.933  22.068 -0.2753 -0.2347 -0.4525
99556W        W42572  33.841  29.553   9.002  0.1663  0.0829  0.0409
99557W        W42573  13.311  10.252   8.985  0.1051  0.1042  0.0363
99558W        W42574  27.148  10.512  18.824 -0.0106  0.2447 -0.0384
99559W        W42575   9.552  31.784  28.395 -0.0583  0.0285 -0.2940
99560W        W42576  29.835  15.087   7.144 -0.0616 -0.2630 -0.3955
99561W        W42577  32.866  29.684   5.498  0.0121 -0.2477 -0.0164
99562W        W42578  13.690  16.283   0.716  0.0777 -0.0814  0.2157
99563W        W42579  29.493   6.376  10.420  0.1265 -0.3404 -0.2388
99564W        W42580  22.354  11.328   2.722  0.0814  0.2042 -0.3038
99565W        W42581  23.098   6.517   8.781 -0.0520 -0.2750  0.1553
99566W        W42582   5.716   4.966  10.672  0.2664  0.1011 -0.0103
99567W        W42583   3.415   0.891   9.938  0.1793 -0.0640 -0.0434
99568W        W42584   3.446   0.698   1.055 -0.0045  0.0216 -0.0710
99569W        W42585   7.054   2.853  24.085  0.4466  0.4458 -0.0222
99570W        W42586  18.936  18.957   8.730 -0.1134 -0.1431  0.4318
99571W        W42587  19.389  22.526   2.390  0.1447 -0.1393 -0.3986
99572W        W42588  21.209   5.938  24.566  0.0413  0.0626 -0.0834
99573W        W42589   3.634   7.277   5.862 -0.0278  0.0056 -0.2287
99574W        W42590   3.620  12.759  27.975 -0.0151 -0.1462 -0.1435
99575W        W42591  11.702   8.457   5.550  0.2065 -0.2148 -0.1793
99576W        W42592  22.769  13.167  28.124  0.2325  0.0626  0.1348
99577W        W42593  14.133   8.322  28.777 -0.3902 -0.0908 -0.1100
99578W        W42594  32.522   9.555  24.422 -0.0429  0.0876  0.1498
99579W        W42595  23.461  33.304  23.395 -0.1953 -0.1246  0.4012
99580W        W42596  24.256   5.685   2.014  0.2121 -0.1016  0.0747
99581W        W42597  27.995  13.495  20.117  0.1415  0.1378 -0.2936
99582W        W42598   5.862   7.971   2.413 -0.2695  0.0705  0.0736
99583W        W42599  30.860  33.803   2.703  0.0009 -0.3193 -0.0281
99584W        W42600   6.024   0.226   3.591  0.0219  0.3008  0.0350
99585W        W42601  20.521  26.923  24.169 -0.3493  0.0757  0.2151
99586W        W42602   8.485   8.690  23.515 -0.0140  0.4133  0.1108
99587W        W42603  28.702   0.053  10.734  0.0388 -0.0509 -0.0998
99588W        W42604  29.092   3.859  27.788  0.1881 -0.1024  0.2993
99589W        W42605  19.876   6.740   6.640  0.0152 -0.0125 -0.2117
99590W        W42606  13.907   6.235  23.777 -0.2408 -0.0635 -0.2118
99591W        W42607  21.635  29.159  17.698 -0.0460  0.0908 -0.1475
99592W        W42608  28.601  34.668  27.503  0.2655  0.0684  0.0684
99593W        W42609  34.148   6.930  27.734 -0.2628  0.0380 -0.1361
99594W        W42610  32.262  12.404  22.862 -0.5143  0.0308 -0.0239
99595W        W42611  12.863   2.154   7.047  0.0112 -0.0602 -0.2811
99596W        W42612  14.221  33.297  24.936  0.0022  0.0588  0.0208
99597W        W42613   6.445  27.343  27.350 -0.0547  0.1396  0.1558
99598W        W42614  13.802  18.804  23.047  0.1377  0.0673  0.0796
99599W        W42615  10.376  33.101  17.889 -0.1106  0.2609 -0.0369
99600W        W42616  10.778  14.124   7.265 -0.1282 -0.2235 -0.2260
99601W        W42617   3.300  11.401   6.743  0.2058  0.0568  0.2258
99602W        W42618  28.802  11.216   7.035  0.4567  0.1131 -0.4337
99603W        W42619  28.072   7.011  11.089 -0.0223 -0.1039  0.0773
99604W        W42620  13.034  10.419  25.315  0.0517 -0.1306 -0.1462
99605W        W42621  14.017  14.816   4.684 -0.0791 -0.3211  0.3569
99606W        W42622  19.502  30.476  16.975 -0.2667  0.0481  0.2752
99607W        W42623  14.655   4.264   4.100 -0.1201  0.1046  0.3494
99608W        W42624  14.108   4.987   1.428  0.0194 -0.2066  0.0195
99609W        W42625   1.395   6.354  28.367 -0.1752  0.1015 -0.0772
99610W        W42626   8.224   8.877  26.540 -0.0984 -0.2675 -0.0338
99611W        W42627  17.105  34.611   9.677 -0.0323  0.1327  0.1325
99612W        W42628  16.595  22.362  19.546  0.0938  0.1605  0.2224
99613W        W42629  22.213  34.389  28.150  0.2147  0.2201  0.1407
99614W        W42630  15.250  19.537   3.329  0.1068  0.0963  0.3795
99615W        W42631  22.696  10.700   5.662  0.1096 -0.1397  0.0615
99616W        W42632  10.617  14.194  24.910  0.2586  0.0143  0.1347
99617W        W42633   5.928   2.138   2.437  0.0709  0.1091 -0.0932
99618W        W42634  18.419  11.497   2.925 -0.1245 -0.2096  0.1089
99619W        W42635   2.431  12.483   1.899 -0.1491 -0.0537  0.1300
99620W        W42636  12.394  31.105   9.308 -0.3845  0.0055  0.0529
99621W        W42637  19.416  26.863   4.852 -0.0568 -0.0487 -0.1414
99622W        W42638   0.225  10.412   9.999 -0.0334 -0.1255  0.2386
99623W        W42639  13.005  27.050   8.421  0.0292  0.4666 -0.2445
99624W        W42640  29.098  31.771  10.252 -0.1037  0.0560  0.0195
99625W        W42641  33.684  12.019  16.321 -0.1375 -0.2470 -0.0456
99626W        W42642  24.175  14.839   5.006  0.1603  0.0499  0.2002
99627W        W42643  21.685  27.949  19.468  0.0691 -0.1192  0.0465
99628W        W42644  31.662  29.932   2.662  0.0390  0.1456 -0.0691
99629W        W42645  10.592   2.457   8.847  0.2369  0.0297  0.2537
99630W        W42646  23.824  30.984  10.968 -0.1052 -0.0836 -0.1416
99631W        W42647  28.545  30.699  26.629  0.0766 -0.2739 -0.0719
99632W        W42648  20.081   9.715  23.964 -0.1338  0.1876  0.1685
99633W        W42649  30.244   0.880   8.961 -0.1399 -0.0289  0.2065
99634W        W42650   0.120  22.765  10.491 -0.4072 -0.0487  0.0124
99635W        W42651   0.750   1.543   0.289  0.0422  0.0057  0.3368
99636W        W42652  18.775  32.764   7.138 -0.0915 -0.0002 -0.0140
99637W        W42653  17.278   1.496   9.155 -0.0623  0.1268  0.2734
99638W        W42654  18.413   6.413   5.150 -0.1193 -0.1879 -0.0514
99639W        W42655  19.162   5.867   7.294  0.0409  0.2112 -0.1981
99640W        W42656   8.567  29.583  29.194 -0.0284 -0.1961 -0.1052
99641W        W42657  33.789   6.142   2.058  0.2716 -0.1439  0.0901
99642W        W42658   6.966  24.536   7.377 -0.1518 -0.1590 -0.1742
99643W        W42659  20.336  16.554   7.107  0.0406  0.1701 -0.1911
99644W        W42660  14.473   4.791   4.085 -0.2786 -0.4015  0.0446
99645W        W42661   0.198  13.224  25.249 -0.1392 -0.1028  0.3002
99646W        W42662  28.080  20.991   3.930  0.0560  0.1204 -0.4356
99647W        W42663  11.386  34.275   4.749  0.0235  0.1116 -0.1217
99648W        W42664  26.320   5.126  10.382 -0.1343 -0.0776  0.1588
99649W        W42665   6.403  14.356  27.898  0.0477  0.0709 -0.1843
99650W        W42666  15.082  20.308  28.746 -0.1225  0.4832 -0.5066
99651W        W42667  25.374   8.277  23.731  0.1702 -0.2981  0.2415
99652W        W42668  29.070  33.666  29.128 -0.2578  0.1123  0.0868
99653W        W42669  30.787  14.148   4.348  0.2380 -0.1913 -0.0742
99654W        W42670  15.241  32.492  10.447 -0.1552 -0.0373 -0.0181
99655W        W42671  14.968   7.332  23.886  0.0970 -0.1031  0.0810
99656W        W42672   2.743   1.309   7.441 -0.1850 -0.0032 -0.2685
99657W        W42673  12.569   3.969   4.583 -0.0109  0.0085 -0.0217
99658W        W42674  23.504  13.564   8.650 -0.2970 -0.0148 -0.0512
99659W        W42675  31.025   4.658  10.168 -0.0596  0.0779 -0.0382
99660W        W42676  18.438   5.168   4.509 -0.1252  0.0455  0.0492
99661W        W42677  10.210  14.510  24.647 -0.3359  0.0259 -0.0786
99662W        W42678  17.927  11.827   1.986  0.0643  0.1400  0.1114
99663W        W42679  14.569  14.488   7.682  0.0164  0.0712  0.2086
99664W        W42680  12.346  10.439   8.454 -0.1084 -0.0407  0.4749
99665W        W42681  11.606  15.642  25.646  0.1426 -0.1585  0.2022
99666W        W42682  32.394   1.441  22.165  0.0803 -0.3337 -0.0453
99667W        W42683   2.180  11.197  26.699  0.0941  0.0559 -0.0584
99668W        W42684  25.738   4.796  24.078  0.1204 -0.1645  0.1316
99669W        W42685  27.609  14.397   8.293 -0.3370 -0.0833  0.1553
99670W        W42686  19.616   7.231  24.064  0.0336 -0.1184  0.1560
99671W        W42687  12.678  28.670   0.826 -0.0847 -0.0772 -0.0194
99672W        W42688  21.278  28.129   6.935  0.1281  0.2220  0.1331
99673W        W42689  10.212  19.229   0.157  0.2480  0.0394  0.2308
99674W        W42690  32.562   0.276   2.992  0.2720  0.3037  0.0109
99675W        W42691  21.989  27.435  28.489  0.0963 -0.1542 -0.0366
99676W        W42692  15.796  12.565   5.748  0.3899 -0.1221  0.0260
99677W        W42693   4.560  29.491  22.878 -0.0442  0.0401  0.1745
99678W        W42694  24.433  16.056  27.404  0.0768 -0.0617 -0.0652
99679W        W42695  17.455  16.635  21.068 -0.0546 -0.0751  0.3407
99680W        W42696  27.289   2.909   8.761 -0.0888 -0.0882 -0.2481
99681W        W42697  17.950  30.573   0.058  0.1767  0.3027  0.1302
99682W        W42698  13.559  15.868  15.309  0.0572  0.0328 -0.0124
99683W        W42699  25.298  23.968   3.032 -0.2294  0.0717  0.0100
99684W        W42700   2.642   9.087  17.156  0.0519 -0.0825 -0.2219
99685W        W42701  22.710  30.675   3.802  0.2057 -0.2357  0.0616
99686W        W42702  28.490  32.318   3.854 -0.0628 -0.1645 -0.2597
99687W        W42703  28.537  32.846   6.695  0.3845 -0.0165 -0.0588
99688W        W42704   3.182  15.924  24.589 -0.1371 -0.0588 -0.0358
99689W        W42705   8.951  30.438   4.156 -0.2296  0.1505  0.0384
99690W        W42706  15.606  29.242  10.011 -0.2080 -0.1584  0.2078
99691W        W42707   8.999  33.336   0.564 -0.0684 -0.4538  0.1468
99692W        W42708  26.272  19.963  24.988  0.5488  0.1283 -0.0211
99693W        W42709  22.090   2.643   3.116 -0.2503  0.0437  0.0544
99694W        W42710   4.442  15.760  19.227  0.0006  0.1254 -0.1453
99695W        W42711  12.658   3.297  18.851  0.1722  0.3371 -0.1366
99696W        W42712  27.296  22.175   4.672  0.0808  0.2073 -0.1047
99697W        W42713  19.047   3.865   2.716 -0.2823 -0.0563 -0.0691
99698W        W42714  16.966  15.308  23.870 -0.1701 -0.0134  0.1216
99699W        W42715  19.490   1.208   8.746 -0.0063 -0.0777 -0.0766
99700W        W42716  13.112   6.340   5.574 -0.0889  0.3248  0.2883
99701W        W42717  17.703  28.082   6.662  0.0605 -0.2088 -0.4118
99702W        W42718  13.755  21.388  23.921 -0.2828 -0.0141 -0.1069
99703W        W42719  13.776   0.387  27.264  0.3111 -0.3932  0.2383
99704W        W42720  11.571  26.557   5.130  0.1569  0.0754 -0.0128
99705W        W42721   6.990   4.109   5.726  0.2409 -0.0184 -0.1412
99706W        W42722  21.001  25.482  23.997  0.0267  0.1645 -0.4516
99707W        W42723   5.932  14.260  26.429  0.1720  0.0307  0.0861
99708W        W42724  17.943  28.841  10.453 -0.0915 -0.3499 -0.0841
99709W        W42725  33.362  13.351   0.080  0.1929  0.0593 -0.0719
99710W        W42726  25.658  27.063  29.276 -0.1938 -0.1714  0.1644
99711W        W42727  27.544   7.313   6.101  0.2315  0.1717 -0.0373
99712W        W42728   5.511  22.874   8.388  0.1276  0.0262 -0.1519
99713W        W42729   6.885  27.817   2.081 -0.0797  0.0781  0.2074
99714W        W42730  20.573  31.453   8.780 -0.1078 -0.1747 -0.1380
99715W        W42731  26.543  11.186   9.619  0.3341 -0.1096 -0.4999
99716W        W42732  24.814  21.888  28.272  0.1070  0.0757 -0.1366
99717W        W42733  27.183   8.748   7.747  0.1034  0.0386 -0.3513
99718W        W42734  16.452   6.805   8.142 -0.1833 -0.2367  0.2919
99719W        W42735  20.502   6.807  25.115 -0.2486  0.2407 -0.0502
99720W        W42736  21.931  28.911   9.309 -0.2488 -0.1348  0.0672
99721W        W42737   5.947   8.294  27.772 -0.0888  0.1124 -0.0500
99722W        W42738  13.262  10.159  27.038  0.3060  0.3505  0.0678
99723W        W42739   3.270   8.914   3.712  0.2116 -0.1230 -0.0940
99724W        W42740   8.641  24.028   3.508 -0.2218  0.3509 -0.1326
99725W        W42741   4.905   1.291   0.166 -0.0866 -0.2703  0.2310
99726W        W42742  25.127   3.939  11.122 -0.2258 -0.2119 -0.0402
99727W        W42743  11.141  32.649   0.783 -0.0203 -0.2440 -0.0127
99728W        W42744  18.923  28.454   5.320 -0.3793  0.1970  0.1405
99729W        W42745   5.130   7.742  25.123 -0.4877 -0.1134 -0.1763
99730W        W42746  16.809  34.216   4.159  0.0962  0.2251 -0.0489
99731W        W42747  13.294  23.948  25.879  0.0215  0.1477 -0.1041
99732W        W42748  16.755   7.951   6.108 -0.2755 -0.3585 -0.1932
99733W        W42749  22.855   9.119   7.243 -0.1588 -0.1497 -0.2794
99734W        W42750  10.242   5.446  27.257  0.0248 -0.0276 -0.1530
99735W        W42751  12.961  14.106  24.679  0.1684  0.1098  0.1696
99736W        W42752  21.259   5.547  21.212  0.1280  0.1270 -0.1786
99737W        W42753  12.040   1.186  10.834  0.1743 -0.0076 -0.2333
99738W        W42754   5.966   0.188  27.213  0.1039 -0.0175 -0.4215
99739W        W42755   2.550   3.711   5.756 -0.0340  0.1284  0.4793
99740W        W42756  22.293  13.246   5.291 -0.2450 -0.0134  0.0159
99741W        W42757  27.693   3.629   7.310 -0.0860  0.1951 -0.0602
99742W        W42758  13.813  10.415  13.235  0.1048 -0.0249 -0.0399
99743W        W42759  29.801   7.862   5.659 -0.0425  0.2633 -0.3741
99744W        W42760  31.222  10.068   9.273  0.0017  0.3756  0.2599
99745W        W42761  15.648   2.719  20.995 -0.1543 -0.0335  0.0725
99746W        W42762  31.331   8.963   4.347  0.1142  0.0502  0.2044
99747W        W42763  15.988  31.147  26.572 -0.2234  0.0767  0.0363
99748W        W42764  15.368  30.774   4.314  0.2779 -0.0443  0.2328
99749W        W42765  15.142  15.477   5.209  0.1001  0.1656 -0.1578
99750W        W42766  12.803   1.672   7.377  0.2005  0.1008  0.0118
99751W        W42767  15.339  31.229  26.800 -0.3782 -0.2691 -0.0068
99752W        W42768  25.393   1.886  16.015 -0.3215  0.0835  0.3067
99753W        W42769  20.073   9.366  26.348 -0.2502 -0.0607  0.0244
99754W        W42770  28.215  14.737  27.959 -0.2206  0.0847  0.1261
99755W        W42771  17.031   6.159   8.152  0.0089  0.2099  0.0392
99756W        W42772  28.994   6.424   8.202  0.0314 -0.0049  0.0774
99757W        W42773  17.196  15.104  12.152  0.2042 -0.1892  0.0037
99758W        W42774  11.746  13.368  24.252  0.0545 -0.0994  0.0084
99759W        W42775   1.891  20.195  20.294 -0.1648 -0.0310 -0.1846
99760W        W42776  17.232   1.350  27.217  0.1160 -0.0746 -0.1171
99761W        W42777   0.695   3.024   8.810 -0.0784 -0.1320 -0.0058
99762W        W42778  21.595   4.280   9.963  0.1238 -0.0459  0.3541
99763W        W42779  25.585   1.053  11.240 -0.2592 -0.0236  0.2658
99764W        W42780  23.910  21.744  25.057 -0.1183 -0.0675  0.0617
99765W        W42781   6.513  18.649   8.182  0.3911 -0.1233 -0.2182
99766W        W42782  20.606   7.868   8.922 -0.0024 -0.0594 -0.3629
99767W        W42783   9.260  22.308  27.434 -0.0638 -0.1704  0.1953
99768W        W42784  14.336  32.934   8.368  0.1679  0.0110 -0.0252
99769W        W42785   8.481   2.833   8.020  0.0531  0.1449 -0.0503
99770W        W42786   8.237   6.279  22.875 -0.4275  0.0339 -0.0834
99771W        W42787   4.610   4.922  25.790  0.0733 -0.0384 -0.2362
99772W        W42788  34.322  16.087  27.181  0.1073  0.1818 -0.0243
99773W        W42789  27.186   8.661   8.244 -0.0463 -0.2010  0.2537
99774W        W42790  13.138   8.190   5.017 -0.3206  0.2688 -0.4820
99775W        W42791  19.425   2.915   5.783  0.3511  0.3282  0.2801
99776W        W42792  20.269   8.270   6.742 -0.0263 -0.1062 -0.1827
99777W        W42793  18.310  11.812   4.601  0.1679 -0.2575 -0.0080
99778W        W42794  17.936  15.824  21.222 -0.4061  0.2070  0.1200
99779W        W42795   6.667   3.550   9.870  0.0388  0.3046 -0.1031
99780W        W42796  12.156  17.310  28.109 -0.1921 -0.0915 -0.0736
99781W        W42797   9.567   1.702   7.074 -0.3184 -0.0706  0.0034
99782W        W42798  24.918  11.383  26.438  0.0003 -0.0076 -0.0266
99783W        W42799  25.650   3.940  25.114 -0.3024 -0.5121 -0.1439
99784W        W42800  18.641  21.617   7.576 -0.0611 -0.0454 -0.2062
99785W        W42801  10.906  23.109   1.544  0.1209 -0.0604  0.0975
99786W        W42802  18.182   4.034  25.315 -0.0074 -0.1442  0.0309
99787W        W42803  21.348  13.808   8.293 -0.3339 -0.1395 -0.3054
99788W        W42804   4.611  30.264   4.689 -0.1633 -0.3016 -0.1204
99789W        W42805  16.782   9.427  27.850 -0.0096  0.0685  0.3140
99790W        W42806  19.344   0.775   7.543  0.2101 -0.1121 -0.2238
99791W        W42807  34.235   5.237   5.153  0.4164  0.2239  0.2557
99792W        W42808  16.650  12.284   7.130  0.1895 -0.0404 -0.1618
99793W        W42809  16.502  29.906   8.458 -0.0576 -0.2043 -0.2047
99794W        W42810  25.891  24.379  10.029 -0.0269  0.2164 -0.0590
99795W        W42811  19.894   4.799  29.061  0.1716 -0.1436  0.0322
99796W        W42812  26.194   6.723   0.338  0.0996 -0.1357  0.0579
99797W        W42813  16.866  18.900  24.542  0.0588 -0.3089 -0.1603
99798W        W42814  31.652   7.381  10.137 -0.1982  0.0937  0.0851
99799W        W42815  28.794   0.006   0.635  0.0632  0.2479 -0.2177
99800W        W42816  18.387  22.939   0.368  0.0339 -0.0749 -0.2862
99801W        W42817  18.839  29.728   3.278 -0.2232 -0.1899 -0.0749
99802W        W42818  19.872  20.418  29.197  0.2246  0.0594  0.1570
99803W        W42819  18.577   3.089   6.813 -0.0010  0.1161  0.0052
99804W        W42820  14.013   2.215   7.471 -0.1216  0.2284  0.3239
99805W        W42821  25.180  11.943   9.225 -0.3795  0.3044  0.0677
99806W        W42822  10.246   6.565   7.965 -0.2421  0.1547  0.2608
99807W        W42823  18.290   8.336  25.555  0.2484  0.4240  0.1309
99808W        W42824  22.968   3.976  26.645 -0.1541 -0.1574 -0.0600
99809W        W42825  13.939   2.956   5.287  0.4903 -0.0189 -0.2216
99810W        W42826  29.437   7.673  21.388 -0.0535  0.1299  0.1910
99811W        W42827   6.179  22.314   8.568 -0.0435 -0.2545 -0.2031
99812W        W42828  20.971  11.248   4.637 -0.5019  0.0846 -0.2814
99813W        W42829   3.348  12.362  10.576  0.0822  0.0969  0.2339
99814W        W42830  16.871   6.600   8.357 -0.1972 -0.1281  0.1334
99815W        W42831  11.476  15.228   6.374  0.0375  0.1699 -0.2871
99816W        W42832   9.218  20.820   3.064 -0.3543 -0.0577  0.0991
99817W        W42833  19.681  15.403   4.959  0.3495  0.2826  0.2429
99818W        W42834  22.162   0.156  28.029  0.0999  0.0035 -0.0765
99819W        W42835  21.471   9.017   5.996 -0.0667 -0.1492 -0.1259
99820W        W42836  15.148  33.014   3.097  0.0531  0.1613  0.2376
99821W        W42837  16.775  28.177   8.559 -0.0250 -0.2810  0.0789
99822W        W42838  12.453  10.411   7.421  0.1791 -0.0245  0.1628
99823W        W42839  17.031   8.838   3.947 -0.0861 -0.1091  0.2293
99824W        W42840  12.687  27.694  28.833 -0.0409  0.0805 -0.1426
99825W        W42841  15.317  10.735  21.233 -0.0620 -0.0504 -0.1146
99826W        W42842  16.080  14.550  26.918  0.0866  0.2681  0.2266
99827W        W42843   9.395   4.469  29.004 -0.1030 -0.0800  0.1958
99828W        W42844  26.319   9.967   4.318  0.1183 -0.0966 -0.0456
99829W        W42845  12.201  10.554  16.734  0.3238  0.0142  0.0935
99830W        W42846  11.916  33.232  22.774  0.1405  0.1837  0.1234
99831W        W42847  11.345   8.596   5.119  0.3631 -0.3838 -0.1710
99832W        W42848  11.569   4.360   9.089 -0.2207  0.0319 -0.1516
99833W        W42849   2.729   4.451   9.453  0.1989  0.0784  0.0745
99834W        W42850  10.808  25.042  25.541 -0.0158  0.1892 -0.2174
99835W        W42851  15.085  14.701  20.365 -0.1790 -0.3443 -0.3157
99836W        W42852  21.244  16.371   7.440 -0.0332  0.2332  0.0970
99837W        W42853  12.353  31.019   3.062  0.2963  0.2576 -0.3288
99838W        W42854  29.077   7.192  22.481  0.0802  0.5414  0.0864
99839W        W42855  12.290   0.048   0.527  0.1636 -0.0768 -0.1290
99840W        W42856   6.756  11.925  27.994  0.1898 -0.1981  0.2556
99841W        W42857  13.692  11.283   2.729  0.1696  0.4340  0.2158
99842W        W42858  15.243  21.937  26.718 -0.2760 -0.2133 -0.1553
99843W        W42859  20.576  32.553   3.655 -0.1206 -0.1373  0.0233
99844W        W42860  20.470   5.049   5.988 -0.4428 -0.3880  0.1748
99845W        W42861  25.709  33.832   7.577 -0.1579  0.0339  0.0336
99846W        W42862   8.763  30.067  23.102 -0.0721 -0.0878 -0.2234
99847W        W42863  11.046   9.404   6.458 -0.1668  0.0554  0.1524
99848W        W42864  26.747  33.031   9.943 -0.2644 -0.0692  0.3545
99849W        W42865  15.779   3.840   7.576 -0.0828 -0.0514  0.2311
99850W        W42866  23.092   3.117   5.489  0.1475 -0.3214  0.0796
99851W        W42867  32.642   0.232  22.499 -0.1766 -0.1090 -0.1529
99852W        W42868  25.143  18.954   3.035  0.0684  0.2236 -0.2933
99853W        W42869  22.526   4.455   6.597 -0.0471 -0.1088 -0.0414
99854W        W42870  21.420  19.711   5.255  0.0042 -0.0306  0.0037
99855W        W42871  10.749  10.937  26.468  0.0217 -0.1420 -0.2224
99856W        W42872  17.608  10.361  22.016  0.1155  0.1110 -0.1148
99857W        W42873  19.270  20.449   7.669  0.0012 -0.0410  0.1178
99858W        W42874  18.141  13.740  24.050 -0.1258  0.1575  0.1683
99859W        W42875  17.514   8.073   7.081  0.0871 -0.1821  0.1169
99860W        W42876  11.817   3.480   7.180 -0.0626 -0.2430 -0.1312
99861W        W42877   4.577   6.247   7.824  0.0798  0.3474 -0.1268
99862W        W42878  10.773   7.845   3.378  0.1633  0.0548  0.2035
99863W        W42879   6.182  31.505  25.574 -0.4953  0.1306  0.2746
99864W        W42880   8.041  18.214   7.103 -0.1042 -0.1274  0.0750
99865W        W42881  15.662   4.497   4.829  0.1687  0.2004  0.0080
99866W        W42882  13.031  24.951   8.042 -0.0435  0.1082  0.1049
99867W        W42883  12.140   3.017   5.359  0.0158 -0.0500 -0.2008
99868W        W42884  29.732  16.741   0.318 -0.0224 -0.0230 -0.0193
99869W        W42885   3.599   9.764   9.200  0.4235  0.1058 -0.2349
99870W        W42886  23.187   0.244  26.538  0.1405  0.1271 -0.0717
99871W        W42887  21.184  30.390   9.521 -0.1014  0.1237  0.0241
99872W        W42888  34.455  23.444   1.305 -0.1568 -0.0638  0.0705
99873W        W42889  16.572   6.758   5.653 -0.3145  0.4523  0.0729
99874W        W42890  12.378   6.707   0.377 -0.0436  0.0459  0.0746
99875W        W42891  12.919  16.703  15.169  0.2433  0.2270 -0.2328
99876W        W42892  20.932  26.400   3.969 -0.3313  0.0720 -0.2777
99877W        W42893   8.498   2.950   9.572  0.0845 -0.0411  0.0631
99878W        W42894  31.348  18.230   8.580 -0.2680 -0.2340  0.0429
99879W        W42895  21.731   6.172   9.350 -0.0105  0.2231  0.2255
99880W        W42896  32.852  14.713   4.118  0.0498  0.0133  0.0044
99881W        W42897  17.065  33.982   3.125 -0.4604  0.0053  0.0625
99882W        W42898  33.550   0.930   4.774  0.0685 -0.2415  0.0247
99883W        W42899  10.668   4.023  28.901  0.2752  0.0823  0.0048
99884W        W42900  16.275   1.908  18.171  0.1803 -0.3604  0.0711
99885W        W42901  22.302  28.379  27.787 -0.0020  0.0883 -0.0747
99886W        W42902  17.575   8.292   2.758 -0.2462 -0.4193  0.1316
99887W        W42903  32.032  15.770   5.289 -0.0487  0.2871 -0.3476
99888W        W42904  26.018  13.149   3.141 -0.3287 -0.1788  0.1115
99889W        W42905  12.989  11.215   1.277  0.1714  0.1046  0.1552
99890W        W42906  20.012   4.265   5.903 -0.0006  0.4204  0.0883
99891W        W42907  18.071  11.503   7.630 -0.1705  0.0061  0.1466
99892W        W42908  17.151   9.015  24.530  0.1265 -0.0580 -0.0784
99893W        W42909  19.175   6.683   0.578  0.0591  0.1438  0.2505
99894W        W42910  15.955  30.822   6.113 -0.0512 -0.4385 -0.3136
99895W        W42911  16.527   7.621   1.100  0.2521  0.1779 -0.1777
99896W        W42912  23.314  34.502   2.034 -0.0245 -0.0522 -0.0596
99897W        W42913   6.493  10.811  23.548 -0.1560 -0.3013  0.3325
99898W        W42914  19.072  12.519   5.288  0.0607 -0.1479  0.2565
99899W        W42915  14.331  26.620   6.566  0.0887  0.1961  0.0152
99900W        W42916  12.624   5.415  22.704  0.1616  0.3340 -0.0773
99901W        W42917  14.693   6.456   5.917 -0.0354  0.1244 -0.0581
99902W        W42918  15.478  11.628   8.478 -0.2918 -0.1054  0.1128
99903W        W42919  23.558   2.841  11.132 -0.2810 -0.2881  0.0174
99904W        W42920  19.087   4.352   1.054 -0.3193 -0.0729 -0.3268
99905W        W42921  13.351   3.349   3.361 -0.1116  0.0696 -0.1203
99906W        W42922  22.261  10.995   9.454  0.1443  0.0761  0.1521
99907W        W42923  18.647   0.459   5.023 -0.1049 -0.1100 -0.4047
99908W        W42924  24.735  10.059  27.742 -0.0901 -0.1234  0.1863
99909W        W42925  28.209   7.720  25.762  0.2819 -0.0285 -0.0566
99910W        W42926  29.283   4.414   4.996 -0.3096  0.1080 -0.0838
99911W        W42927   0.588   5.271   9.353 -0.2398 -0.2077 -0.3189
99912W        W42928  14.251  12.338   7.236  0.0767 -0.1363  0.0331
99913W        W42929  34.661   1.792   0.603 -0.0414  0.0422 -0.0837
99914W        W42930  18.076   7.031   2.739 -0.1700 -0.0445 -0.0833
99915W        W42931   7.297   8.281   9.300 -0.2356  0.7479 -0.0537
99916W        W42932  33.570  31.789   3.043  0.2959  0.0207 -0.0068
99917W        W42933  11.617   3.075   8.969  0.0900  0.3096  0.3891
99918W        W42934  23.479  28.115   9.870  0.0091  0.0427 -0.1566
99919W        W42935  23.796  28.159   9.194  0.2845 -0.1464 -0.2098
99920W        W42936  10.009  33.422  24.667  0.1108  0.2066 -0.0023
99921W        W42937   3.437  17.972  26.926 -0.2776  0.1134 -0.2606
99922W        W42938   3.266  34.199   6.840 -0.0504 -0.0332  0.1368
99923W        W42939  17.715   3.524   5.755 -0.0812 -0.2742  0.1851
99924W        W42940  16.409  31.671  24.221  0.0577  0.0465 -0.0661
99925W        W42941  15.723   6.443   1.423 -0.2666 -0.0431 -0.0306
99926W        W42942  20.817   5.652   0.585 -0.2100 -0.0103  0.2304
99927W        W42943  18.062   7.032  20.525  0.0116  0.1720  0.1558
99928W        W42944  23.019   6.317   9.650  0.1556  0.4853  0.0576
99929W        W42945  27.187   6.842  10.752  0.1229  0.3534  0.1002
99930W        W42946  16.369   6.592  28.551 -0.0525 -0.5183  0.2896
99931W        W42947  15.959   1.611   3.345  0.0497 -0.0809 -0.1334
99932W        W42948  33.037  17.385  23.734  0.2897 -0.0077  0.0053
99933W        W42949  12.767  34.732  27.756 -0.1990 -0.0580  0.0327
99934W        W42950  21.263   1.593  25.766 -0.2343 -0.1117 -0.2588
99935W        W42951  15.073   9.288   6.604  0.0122  0.2758  0.0389
99936W        W42952  34.240  16.594   3.386  0.1070  0.2224  0.0678
99937W        W42953  19.879   2.427   5.129 -0.2124  0.1537  0.1833
99938W        W42954  22.073  31.004   4.069 -0.0798  0.1449  0.1854
99939W        W42955  16.895  15.914   7.814 -0.1385 -0.1122  0.1753
99940W        W42956  34.198  14.331  29.149  0.2134  0.0005  0.0579
99941W        W42957   7.545   8.969   7.017 -0.2027 -0.0730 -0.1494
99942W        W42958   1.880   2.753  26.881 -0.3058  0.1047 -0.2255
99943W        W42959   1.165  11.013   2.728  0.0051  0.2793 -0.1950
99944W        W42960  19.484  16.196  27.942 -0.2002  0.0258 -0.2060
99945W        W42961  16.222   3.930   7.446  0.1605  0.0048  0.0178
99946W        W42962   8.827  18.349  23.649  0.2443  0.0268  0.1992
99947W        W42963   7.353  26.630  29.233 -0.1600 -0.2212 -0.2535
99948W        W42964  31.447  23.500  11.531  0.1731  0.1414  0.1294
99949W        W42965  30.996  33.913   7.009 -0.1493  0.1304 -0.4412
99950W        W42966  22.585  29.835  28.098 -0.0900 -0.2121  0.0445
99951W        W42967  23.398   4.831  25.531 -0.2490 -0.2288  0.0583
99952W        W42968  17.274   3.806  26.947  0.3662 -0.0498 -0.1272
99953W        W42969  26.385   5.970  25.019  0.0689 -0.2313 -0.2543
99954W        W42970  10.360  33.270   7.841 -0.1547  0.1844  0.3302
99955W        W42971  19.440  13.995  26.549 -0.0539  0.1116 -0.0592
99956W        W42972   0.943   5.448  26.197 -0.2308 -0.1749 -0.4012
99957W        W42973  11.623   3.665   5.326 -0.0154  0.2263 -0.0331
99958W        W42974  22.349  30.670   6.897  0.0482  0.1536  0.1715
99959W        W42975  23.588   2.860  24.945 -0.1899 -0.1934  0.2106
99960W        W42976  15.156  15.487  20.018  0.1365  0.0640 -0.2512
99961W        W42977  24.702  22.881   5.373 -0.0199  0.2745  0.0543
99962W        W42978  33.879  15.850   5.008 -0.0616 -0.1384  0.0119
99963W        W42979   6.863  32.867   7.222  0.2016  0.1121  0.0615
99964W        W42980  17.716  28.840   5.996 -0.1445  0.0300  0.2927
99965W        W42981   1.902  27.777   8.143  0.0429  0.2289  0.0894
99966W        W42982   5.394  32.823   6.907 -0.0789 -0.0209  0.2073
99967W        W42983  34.579  13.382  22.569 -0.1063  0.1627  0.0766
99968W        W42984  23.529  13.067   2.762  0.0786  0.2456 -0.1059
99969W        W42985   4.048   1.413   3.050 -0.0471  0.4238  0.2477
99970W        W42986  22.758   9.490   3.198 -0.0004  0.0821 -0.1740
99971W        W42987   1.977  21.682   7.515  0.1278  0.0882  0.1432
99972W        W42988   1.799  34.640   3.567  0.2993 -0.3267 -0.3285
99973W        W42989  21.201   1.956   6.889 -0.0564  0.2541 -0.2955
99974W        W42990  31.657  23.127   3.087 -0.0160  0.1588  0.2563
99975W        W42991  20.667  29.610   5.327  0.4074 -0.1061  0.0157
99976W        W42992  22.476  15.872  27.833  0.0428 -0.0769 -0.1450
99977W        W42993  29.915  18.838   9.405  0.4961 -0.0251 -0.0357
99978W        W42994  32.739  28.847  28.304  0.0221 -0.0357  0.1818
99979W        W42995  18.791   4.828   9.319  0.2495  0.0099 -0.1348
99980W        W42996  14.560   0.512   3.899  0.1116  0.1179  0.1527
99981W        W42997  20.694  34.710   8.632  0.0499  0.2497  0.0520
99982W        W42998   5.718   3.689   2.969 -0.0190  0.2460 -0.1354
99983W        W42999  11.421  10.089  19.133  0.1062 -0.0461  0.2702
99984W        W43000  12.449  19.854   4.756 -0.2110 -0.0918  0.0489
99985W        W43001  23.548   7.186  28.379 -0.1125  0.2284 -0.1846
99986W        W43002  30.425   3.950  26.353 -0.0794 -0.3529 -0.0338
99987W        W43003   7.119  28.909  27.731 -0.0833  0.2487  0.1529
99988W        W43004  25.569  24.882   2.800 -0.1762 -0.1081  0.3397
99989W        W43005  31.468   4.855   9.330 -0.1949  0.0677  0.0830
99990W        W43006   3.471   8.923  27.386  0.0611  0.0559  0.1846
99991W        W43007  23.551   0.770  21.452  0.0356 -0.1264  0.0821
99992W        W43008  17.138  12.336  26.190 -0.2270  0.2680  0.1418
99993W        W43009  22.836   1.169   8.885 -0.3075  0.1517 -0.1540
99994W        W43010  26.611  10.595  16.916  0.4000 -0.2373  0.0994
99995W        W43011  13.517  13.894   0.748  0.0074  0.1608 -0.2525
99996W        W43012  15.571   5.109   0.395 -0.0099 -0.1107  0.0471
99997W        W43013   9.381  13.076   7.477 -0.0870 -0.0693  0.0873
99998W        W43014  33.330   2.740  27.459 -0.1061 -0.1165 -0.0728
99999W        W43015   8.338  30.713  27.688  0.0060  0.1692 -0.1315
    0W        W43016  12.487   9.781  23.822  0.1583 -0.0266  0.1183
    1W        W43017  18.672  24.754   7.091 -0.0663 -0.1103  0.1650
    2W        W43018   8.392  10.254   4.267 -0.1055 -0.0895  0.3128
    3W        W43019  22.396  29.054   3.389 -0.0435 -0.1140 -0.2002
    4W        W43020  27.033   9.664  20.024 -0.1731 -0.2031 -0.1530
    5W        W43021  28.524  32.672   3.092  0.2944  0.0023  0.4092
    6W        W43022   7.795  12.414   3.386 -0.0117 -0.2749 -0.2910
    7W        W43023  33.760   3.636   8.999  0.0299 -0.3564  0.1515
    8W        W43024   3.251  29.000  23.100  0.0129 -0.3864 -0.1797
    9W        W43025  15.218  18.411  26.196  0.1709 -0.1361  0.1467
   10W        W43026  31.127   4.989   5.058 -0.2845 -0.3189  0.4215
   11W        W43027   2.742  15.071   4.821  0.0549 -0.2251 -0.3772
   12W        W43028  11.154  10.391  25.160  0.1791  0.1658  0.1524
   13W        W43029  24.448  15.870   4.931 -0.3002  0.0243 -0.0252
   14W        W43030  19.927  23.678   6.846  0.0469 -0.1942 -0.3988
   15W        W43031  12.958  19.073   3.894 -0.0372 -0.3788 -0.0405
   16W        W43032  22.867  32.637   4.482 -0.0776  0.4370  0.0874
   17W        W43033   9.462  22.266   7.568  0.0669  0.0355 -0.0653
   18W        W43034  28.937   5.010   7.604 -0.0368 -0.0869  0.0797
   19W        W43035  34.555  12.631  19.934  0.0598 -0.2279 -0.2130
   20W        W43036  21.225   9.942   6.591 -0.1858  0.1300 -0.3337
   21W        W43037  15.962  30.639   5.613 -0.4508  0.0306  0.0137
   22W        W43038  23.004   6.094   0.513  0.2633 -0.1913  0.0849
   23W        W43039   8.506  20.094   8.765  0.1384  0.1205 -0.1295
   24W        W43040  20.823  10.254   3.864 -0.1129 -0.1164 -0.1731
   25W        W43041   6.966   3.745  22.073  0.1069 -0.1680 -0.0543
   26W        W43042  15.302   5.003   2.056 -0.0096 -0.0362 -0.0156
   27W        W43043   6.037  10.694   3.067 -0.1517  0.0914  0.1791
   28W        W43044   3.230   2.602  28.542 -0.2613  0.1843  0.2675
   29W        W43045  17.129  27.870   2.758  0.1739 -0.1269  0.0940
   30W        W43046  28.259   2.212  28.925 -0.0695 -0.0263 -0.0016
   31W        W43047   9.164   7.108  23.203  0.0535  0.0474  0.4296
   32W        W43048  24.737   0.435  28.966  0.1520 -0.0727  0.0835
   33W        W43049  13.243  34.067   8.533 -0.1411  0.0533 -0.0904
   34W        W43050  19.063  16.753  23.969  0.0258 -0.0653 -0.1505
   35W        W43051  25.841  11.129  28.987  0.3375  0.3357 -0.1585
   36W        W43052  18.200  12.747  26.610 -0.1692 -0.1122 -0.0908
   37W        W43053  32.573  28.868   7.419  0.0401  0.1031  0.0393
   38W        W43054  31.066  19.038   8.699 -0.2413 -0.1705  0.0089
   39W        W43055  16.999  32.955   7.006 -0.1814 -0.2367  0.1677
   40W        W43056  15.718  21.750  27.771 -0.0149  0.2421 -0.0710
   41W        W43057   3.817  28.009   7.137  0.3433  0.1637  0.0396
   42W        W43058   9.317  22.084  23.198  0.1719  0.1043 -0.1602
   43W        W43059  16.530  19.164   8.210  0.0560 -0.0790  0.2365
   44W        W43060  14.362  10.451   6.037  0.0181  0.0055 -0.0166
   45W        W43061  15.331  19.335   5.856 -0.2046 -0.0064 -0.2210
   46W        W43062  21.870  12.077   8.957 -0.0540  0.3336 -0.0456
   47W        W43063  11.077   7.960  25.025 -0.1553  0.0079 -0.4974
   48W        W43064  21.205  21.155   0.341 -0.0173 -0.0689 -0.3034
   49W        W43065  16.367  11.209  25.645  0.0351  0.1394 -0.2171
   50W        W43066  24.333   1.236  25.223  0.0921  0.0356 -0.3305
   51W        W43067  26.890  30.024   7.610 -0.1515  0.0900 -0.0314
   52W        W43068  27.585   3.645   2.550  0.0766 -0.0503  0.0199
   53W        W43069   8.929  33.583   8.614 -0.0194 -0.3220  0.2193
   54W        W43070   9.602  34.762   3.596  0.1657  0.1971  0.1410
   55W        W43071  20.865   6.218  16.879  0.0183 -0.0232  0.1758
   56W        W43072  32.700  11.822  10.826  0.2125  0.0955  0.3087
   57W        W43073  20.573  32.747   8.751 -0.0703  0.3231  0.0531
   58W        W43074  24.179   1.020   7.371 -0.0724 -0.0499 -0.1196
   59W        W43075  14.599   6.325   2.931 -0.3236 -0.0932  0.1893
   60W        W43076  11.940  28.675   9.476 -0.0494  0.0274 -0.3064
   61W        W43077  13.486   7.673   1.777 -0.1134  0.1597  0.0480
   62W        W43078  10.334   3.555   3.364  0.1572  0.3257 -0.0020
   63W        W43079  29.593  11.877   6.732  0.0056 -0.0583  0.2220
   64W        W43080  16.879  34.772   8.508 -0.0888  0.2196 -0.1136
   65W        W43081   3.969   3.432   8.666  0.4705 -0.0647 -0.0326
   66W        W43082  17.574   7.087   6.143  0.1369  0.0648 -0.2305
   67W        W43083  13.071  25.264  22.668  0.4357  0.0783  0.3121
   68W        W43084   2.198   1.240   0.225 -0.0247 -0.0622 -0.1375
   69W        W43085  28.009  15.681   4.721 -0.1104  0.0401 -0.2476
   70W        W43086  20.012   6.810  16.454 -0.1460  0.1476 -0.2742
   71W        W43087  16.553   2.664   8.713 -0.0402  0.0094  0.2634
   72W        W43088   4.817  34.033   7.112  0.2682  0.1137  0.0699
   73W        W43089  16.312   0.817   2.633 -0.0493  0.3051 -0.1195
   74W        W43090  22.250   9.015   8.935 -0.0818  0.0946 -0.0160
   75W        W43091  17.525  25.734   5.653  0.0755 -0.0709  0.0007
   76W        W43092  21.417  14.291  28.143 -0.1809  0.1515  0.2646
   77W        W43093  16.275   2.431   2.889  0.2533  0.0392 -0.4432
   78W        W43094  16.050  30.342   0.138  0.1923  0.0973 -0.0895
   79W        W43095   3.248   6.287   8.965  0.0573 -0.0226 -0.0598
   80W        W43096   3.733  17.158   1.616 -0.0402  0.0151 -0.0604
   81W        W43097  27.568   7.124   7.650 -0.0901 -0.0173 -0.1411
   82W        W43098  33.139  19.296  23.765 -0.0966  0.0504  0.1600
   83W        W43099  16.555   6.847  24.481  0.0722 -0.3899  0.4619
   84W        W43100  12.121  12.324   6.173  0.0233  0.2684 -0.2967
   85W        W43101  18.178  19.873   8.920 -0.0737  0.0049 -0.1508
   86W        W43102  25.189   3.695   7.687 -0.0153 -0.1732 -0.0893
   87W        W43103  21.048  29.348  22.444 -0.0032  0.0789  0.1024
   88W        W43104  13.397   1.463   6.467 -0.2264  0.2372 -0.0438
   89W        W43105  19.341  14.830   4.012  0.2893  0.4184  0.1733
   90W        W43106  15.784   3.579   8.006  0.0193 -0.1834 -0.3449
   91W        W43107   3.535   3.560  18.468  0.1153 -0.2664 -0.1713
   92W        W43108  28.326   3.243  27.717  0.1512  0.0691 -0.2278
   93W        W43109  18.671   3.976   8.987  0.1603 -0.1875  0.1917
   94W        W43110   4.581   8.247  25.417 -0.0103  0.0629 -0.1434
   95W        W43111  28.196   9.187   7.297 -0.0093  0.1365 -0.0874
   96W        W43112  23.974   1.472  18.836  0.1040  0.0433  0.3899
   97W        W43113  33.237   0.982  10.982 -0.0822 -0.0615  0.0207
   98W        W43114  20.217   6.956  24.681 -0.1846 -0.2044  0.6056
   99W        W43115  19.367   4.711  22.988 -0.0815  0.0324  0.0675
  100W        W43116  26.502   8.707  17.734  0.0920  0.0026  0.1551
  101W        W43117  13.598   5.851   1.767  0.1438 -0.4216 -0.2310
  102W        W43118   1.715  26.246   7.961  0.1593 -0.0753  0.0369
  103W        W43119  23.643   5.010   0.717 -0.1081  0.3071  0.1339
  104W        W43120  24.601  32.674   8.205  0.0793  0.0721  0.4322
  105W        W43121  15.103  24.388  23.093  0.0924  0.1928  0.0131
  106W        W43122  22.212   1.996  10.654 -0.3643  0.0943  0.2034
  107W        W43123  10.820   1.083   5.079  0.2208 -0.1279 -0.2719
  108W        W43124   0.278  33.022   7.398 -0.3033 -0.0108 -0.0293
  109W        W43125   4.683   1.142  17.100 -0.1110  0.1718 -0.0755
  110W        W43126  16.126  12.800  21.148 -0.0743  0.2548 -0.0553
  111W        W43127   0.308  11.335   2.922  0.3575 -0.2538  0.0993
  112W        W43128  13.736  34.317   5.095 -0.0762 -0.0056 -0.0838
  113W        W43129  30.243  31.954   4.667  0.0496  0.3136 -0.1666
  114W        W43130  26.538   3.410   4.494 -0.0956  0.1160  0.4724
  115W        W43131  26.613   0.207   5.257  0.2528 -0.0422  0.0517
  116W        W43132  17.052  15.246  23.328 -0.0806 -0.1362  0.2780
  117W        W43133   0.741  11.950   7.379  0.1862  0.0258  0.0264
  118W        W43134  17.715   9.218   8.456 -0.3919 -0.1265 -0.1040
  119W        W43135   5.435  17.715   3.165 -0.0557  0.1229  0.0507
  120W        W43136  27.394   6.420   8.790  0.2810 -0.2662  0.2556
  121W        W43137  10.103   1.436  10.911  0.0171 -0.0210  0.3094
  122W        W43138   2.168   6.119  28.202  0.5488  0.0389 -0.1668
  123W        W43139  33.270  10.175   9.007  0.0214 -0.0591 -0.2670
  124W        W43140  29.316   6.703   5.879 -0.1670  0.3932 -0.1752
  125W        W43141  23.787  17.864   9.412  0.0253 -0.0425 -0.0776
  126W        W43142   5.888   3.733  26.301  0.3649 -0.0611 -0.1188
  127W        W43143  11.256   2.689   4.821 -0.0240  0.1241  0.1745
  128W        W43144  16.748  18.398  24.330  0.1520 -0.4764  0.2591
  129W        W43145  19.827   8.527   8.901 -0.1744  0.1731 -0.0632
  130W        W43146  21.638  19.680   6.171 -0.0721  0.0513  0.1389
  131W        W43147   8.495   8.182   4.456  0.0200  0.1124  0.0136
  132W        W43148  25.015   7.733  25.594  0.0127 -0.1784 -0.2130
  133W        W43149  27.071  11.144   7.377 -0.0579 -0.0014  0.0350
  134W        W43150   6.860   8.445  15.549 -0.2090 -0.0934 -0.0871
  135W        W43151  24.811  20.589  25.586 -0.2944  0.1299 -0.0673
  136W        W43152  17.321  15.077   1.203  0.1623  0.1002 -0.1060
  137W        W43153  12.467  13.050  24.720 -0.0363  0.0891 -0.0997
  138W        W43154  24.954   3.152   7.019 -0.0673  0.0349 -0.1579
  139W        W43155  21.544  16.460   6.423 -0.3026  0.1853  0.2000
  140W        W43156  10.190  17.235   8.944 -0.1254 -0.1463 -0.2318
  141W        W43157  23.213  21.374   8.537 -0.1485  0.4261  0.0657
  142W        W43158  15.460   8.982   6.545  0.1943 -0.0630  0.0891
  143W        W43159   5.432  10.238  18.033 -0.1418  0.0877  0.0450
  144W        W43160   6.491  10.077   5.400 -0.2020  0.1165 -0.3161
  145W        W43161   4.682  29.238  18.178 -0.0924 -0.0646 -0.3214
  146W        W43162  33.195   2.750   4.863 -0.3429  0.1873  0.1008
  147W        W43163  31.658  12.127   9.136 -0.2687  0.1270 -0.0959
  148W        W43164  22.664   6.556   1.560  0.0180  0.1382 -0.1077
  149W        W43165  18.385   7.640   3.792 -0.2835 -0.0292  0.0207
  150W        W43166  25.298   8.211   7.177  0.1697  0.0511  0.3241
  151W        W43167  31.000  23.073  10.227 -0.0858  0.0891  0.0673
  152W        W43168   4.514  23.036  15.129  0.1518  0.2954  0.2831
  153W        W43169   9.175  17.583   1.844 -0.0392  0.0398  0.2166
  154W        W43170  23.284  25.759   3.798 -0.2569 -0.0557  0.0968
  155W        W43171  20.122  16.811   6.713 -0.1487  0.1010  0.2906
  156W        W43172  14.461  15.294   4.893 -0.3358  0.0934  0.2799
  157W        W43173  10.306   0.665  16.295  0.0333 -0.1905 -0.1318
  158W        W43174   5.895  30.177  28.902 -0.0063 -0.0216  0.1132
  159W        W43175  11.438   3.053   1.928  0.0499  0.1626  0.1432
  160W        W43176  27.292  32.567  11.302 -0.1734 -0.2055  0.0560
  161W        W43177  10.908   6.520  21.469 -0.1939  0.0502  0.2106
  162W        W43178  14.135  13.693  28.769 -0.0684 -0.2311 -0.0306
  163W        W43179   6.632   4.963   0.408  0.2488 -0.1599  0.0590
  164W        W43180  23.243  13.067   5.204  0.2353  0.1985 -0.2077
  165W        W43181  25.034   0.653   2.743  0.1986  0.1002 -0.3451
  166W        W43182  34.143  20.904   1.839  0.3942 -0.1251 -0.1772
  167W        W43183  12.397   6.063   6.796 -0.3775  0.1508 -0.3238
  168W        W43184  17.580  27.258   6.326 -0.1350 -0.3934 -0.1998
  169W        W43185  14.432  12.434  23.087 -0.1207 -0.1570 -0.0601
  170W        W43186  32.680  13.059   5.050  0.0838 -0.1156 -0.0613
  171W        W43187  10.595  23.574  20.168  0.2151 -0.0523  0.0314
  172W        W43188  13.420  32.654   6.283 -0.0188  0.0623 -0.2102
  173W        W43189  11.047  29.820   6.855 -0.0350  0.1857 -0.0700
  174W        W43190  11.324  13.377   7.802 -0.2414  0.0162  0.0586
  175W        W43191   5.520   6.987  29.147 -0.0555  0.0631 -0.1436
  176W        W43192   9.351   9.167  23.110 -0.0680  0.3385 -0.0348
  177W        W43193  22.055   7.347  28.726 -0.0788  0.0247 -0.1610
  178W        W43194  18.236  10.226  22.263  0.0712 -0.1910  0.0483
  179W        W43195  10.074  16.858  24.958  0.3700 -0.1236  0.1339
  180W        W43196  28.480   8.528  27.676  0.1885  0.1039 -0.1750
  181W        W43197  22.202   7.011   4.643 -0.0144  0.0242  0.2048
  182W        W43198   5.594  24.571   7.213  0.1170 -0.1174 -0.0978
  183W        W43199  23.386   9.963  15.819 -0.0397  0.2141  0.0900
  184W        W43200  22.322  14.172  21.258  0.1109  0.0477  0.2228
  185W        W43201  12.820  14.664  15.480 -0.2057  0.1294  0.0806
  186W        W43202  16.373  17.761  26.890  0.1425 -0.1126  0.1235
  187W        W43203  17.547   6.286  16.136  0.1989 -0.1154  0.1256
  188W        W43204   4.753  22.365   5.842  0.1611 -0.2328 -0.0852
  189W        W43205  19.655  11.771  25.247  0.3478 -0.2599  0.3914
  190W        W43206  13.800   7.268   2.675 -0.3084  0.1814 -0.1957
  191W        W43207  18.917  11.062   7.528 -0.2267  0.3202  0.0625
  192W        W43208   6.352   8.482  28.444 -0.1157 -0.1219  0.1944
  193W        W43209  29.431  30.662   4.489 -0.1651  0.1240  0.3768
  194W        W43210  12.346  28.162   3.904  0.0220  0.0777 -0.2648
  195W        W43211  21.725  11.202   4.091  0.1315  0.4090  0.1626
  196W        W43212  15.003  15.109  24.991  0.2661 -0.0502 -0.0870
  197W        W43213  20.771   2.762   1.620 -0.1666 -0.0033 -0.0974
  198W        W43214  10.151  23.656   0.933  0.1187  0.0529 -0.1673
  199W        W43215  14.812   7.183  20.903 -0.2655 -0.2866  0.0016
  200W        W43216  33.609  28.243  25.895  0.1046 -0.2495 -0.1157
  201W        W43217   7.990  23.849  24.349  0.0653  0.3869 -0.1532
  202W        W43218  13.253  31.379   2.968  0.4279  0.5296 -0.1312
  203W        W43219  18.573  24.182   5.097  0.1316 -0.0916  0.1560
  204W        W43220   8.755  34.384  21.938  0.1378  0.1526  0.0149
  205W        W43221   6.144   3.019  18.235  0.2698  0.0536  0.4506
  206W        W43222  25.012   3.234  24.922 -0.2351 -0.0328 -0.2939
  207W        W43223   7.596  15.359   7.033 -0.3931  0.0507  0.0599
  208W        W43224  32.749  14.798   7.809 -0.0552 -0.0720  0.0904
  209W        W43225  27.420   9.809  24.201 -0.1174 -0.2402  0.0617
  210W        W43226   7.626  16.681  21.111  0.0555 -0.1738  0.2154
  211W        W43227  14.525  19.609  19.997  0.1784  0.2446  0.2999
  212W        W43228  11.166  22.752   2.592 -0.2205  0.0007 -0.2031
  213W        W43229  31.256   7.404   8.554  0.1479  0.1948 -0.0214
  214W        W43230  31.890  27.040   7.700  0.1340  0.1878 -0.0473
  215W        W43231   9.112  14.366   6.123  0.0918 -0.0318 -0.1675
  216W        W43232  26.015   5.607   4.743  0.1323 -0.1082 -0.0565
  217W        W43233  21.813  31.078   6.596  0.0775 -0.0451 -0.0085
  218W        W43234  16.362   9.551   6.314  0.2496  0.2128 -0.0632
  219W        W43235  23.666   2.605   9.634  0.0878 -0.1123 -0.2892
  220W        W43236  20.007   4.604   0.809 -0.0420  0.0233  0.0069
  221W        W43237  13.513  13.272   6.491 -0.1260 -0.2046  0.1492
  222W        W43238  24.370  19.058  26.792 -0.1257 -0.0395 -0.2084
  223W        W43239  10.471  12.943  23.919 -0.1227 -0.0573  0.0010
  224W        W43240  21.045  16.498   1.609 -0.0671  0.0754  0.2037
  225W        W43241   7.692   1.454  10.208 -0.1701 -0.2288  0.1572
  226W        W43242  16.094  11.259  21.738  0.2090 -0.0678  0.0304
  227W        W43243  31.778  20.140   4.633 -0.2193 -0.2450  0.1097
  228W        W43244  17.965   2.643   7.352  0.1009 -0.0464 -0.0180
  229W        W43245   9.247  30.551  25.690  0.1073  0.1262  0.3008
  230W        W43246  19.601  25.095  27.585 -0.1096 -0.0025 -0.1135
  231W        W43247  28.094   7.208   8.614  0.1817  0.0616 -0.0276
  232W        W43248  25.806  33.229   4.607  0.4144  0.3914  0.3026
  233W        W43249  10.088  30.752   3.735 -0.2470  0.1915  0.2504
  234W        W43250  24.288  15.413   7.414 -0.0681  0.1326 -0.4902
  235W        W43251  25.971  10.211  26.911 -0.1578 -0.0551  0.0911
  236W        W43252  22.498  34.709   4.593 -0.2259 -0.0605 -0.0114
  237W        W43253  23.011  23.244   9.869 -0.1019  0.1047  0.1778
  238W        W43254  13.781   3.227   3.625  0.0840  0.3165  0.2372
  239W        W43255   9.981   5.799  18.414  0.0881 -0.0415  0.1219
  240W        W43256   4.191  31.416  17.481 -0.0946 -0.1681 -0.3347
  241W        W43257  20.430  11.313   2.547  0.0048  0.1077 -0.0983
  242W        W43258  15.396  10.089  21.912 -0.1443 -0.0679 -0.2073
  243W        W43259  10.934  26.498   6.547  0.3699  0.1299  0.2978
  244W        W43260  18.142  20.767  28.546 -0.0283  0.3113 -0.0829
  245W        W43261  27.566  30.889   9.316 -0.2836  0.2304  0.0207
  246W        W43262  22.325  21.356   0.807  0.1888  0.1071  0.0972
  247W        W43263  17.813  16.246   4.585 -0.2771 -0.1754  0.2186
  248W        W43264  18.360   3.599  29.156  0.0010  0.0316  0.0154
  249W        W43265  24.768   9.125   1.197 -0.0133  0.1000 -0.0404
  250W        W43266   9.092  15.689  22.290  0.1875  0.0224 -0.0262
  251W        W43267  12.310  17.001   7.874  0.4271 -0.1382 -0.1154
  252W        W43268  20.782  33.615  28.918 -0.2709 -0.0312 -0.0686
  253W        W43269   8.947   3.340   7.448 -0.3607  0.2113 -0.1879
  254W        W43270   9.305  32.764   5.712 -0.2831  0.2281  0.0225
  255W        W43271   6.592  14.888  27.803  0.0031 -0.2033 -0.0235
  256W        W43272   8.336  14.732   3.556  0.0775 -0.1972  0.0955
  257W        W43273  12.749  21.493   8.918 -0.0440 -0.0852 -0.1306
  258W        W43274  24.627   8.775  24.016  0.1373  0.1320  0.1750
  259W        W43275  24.186  21.697   7.748  0.1994 -0.0686  0.0967
  260W        W43276  10.615  31.241   8.613 -0.0773 -0.0041  0.0048
  261W        W43277  20.753  22.431   8.840 -0.1340 -0.0727  0.0956
  262W        W43278  15.512   6.213  29.102 -0.3929  0.1924 -0.0832
  263W        W43279   0.011   1.809   3.936 -0.2098 -0.1241 -0.1048
  264W        W43280  11.497   6.543  28.080 -0.2191 -0.0711  0.2114
  265W        W43281  15.707   6.933   4.321  0.0453 -0.1436 -0.1162
  266W        W43282   7.247  19.163  16.205  0.1032  0.0429 -0.0089
  267W        W43283  22.117  34.029  28.571  0.1661 -0.0865  0.0588
  268W        W43284  21.436  14.027   1.765 -0.3923  0.0605 -0.1148
  269W        W43285  28.312  10.716   7.531  0.1929 -0.0935 -0.1790
  270W        W43286  11.089   3.185   3.746  0.1069 -0.0294  0.3599
  271W        W43287   7.585  21.224   4.217 -0.0628 -0.0067  0.0224
  272W        W43288   5.603  16.708  26.609 -0.0173 -0.0618  0.0013
  273W        W43289  29.303   8.813   7.733 -0.1737 -0.0429  0.4472
  274W        W43290  15.054   3.319   3.217  0.1515 -0.3422  0.0135
  275W        W43291  11.022   8.800  25.404  0.0040 -0.2300  0.2966
  276W        W43292   8.659   6.191   2.058  0.2952  0.2108 -0.0638
  277W        W43293  29.858  23.281  22.795 -0.1191 -0.4632  0.1248
  278W        W43294   3.802   5.148   7.531 -0.4053  0.0793 -0.2118
  279W        W43295  10.756  34.288   3.360  0.1781 -0.1942 -0.0379
  280W        W43296  14.734  19.630  24.874  0.0790 -0.0694 -0.1962
  281W        W43297  18.491   2.744   5.622  0.0693 -0.3499 -0.0209
  282W        W43298  17.752  20.331  13.593 -0.2616 -0.0405  0.2080
  283W        W43299   3.979   4.826   2.123  0.0148  0.0763  0.0677
  284W        W43300  33.436   5.763   2.383  0.0620 -0.3176 -0.2528
  285W        W43301  17.381  33.198  23.482 -0.0018 -0.3902  0.1114
  286W        W43302  16.798   3.429  23.875  0.0756 -0.1030  0.0269
  287W        W43303  19.308   6.890  25.902 -0.0556 -0.1738  0.2666
  288W        W43304   1.580   1.540  10.054 -0.1739 -0.2507 -0.0940
  289W        W43305  17.902  13.483   0.009  0.1116  0.0277 -0.1416
  290W        W43306  18.242  19.964   0.670 -0.1042  0.1071  0.1937
  291W        W43307  17.128  14.767   5.088 -0.1408 -0.2141  0.1781
  292W        W43308  12.321  11.994   1.095  0.0722  0.0340  0.0188
  293W        W43309  32.508  28.057   3.390  0.2316  0.3471  0.3384
  294W        W43310  22.768   2.263  19.222  0.2771 -0.1501  0.3943
  295W        W43311  19.754   1.990  24.874 -0.0175  0.0710  0.1824
  296W        W43312  22.111  13.762   5.283  0.4322 -0.1008  0.0172
  297W        W43313  12.212  14.515  22.392  0.0288  0.0791 -0.0951
  298W        W43314   6.635  33.847  24.999 -0.0375  0.1515 -0.1307
  299W        W43315  24.817   8.085   7.799  0.2440 -0.0756  0.1452
  300W        W43316  16.299  16.088   0.122  0.0129 -0.2895 -0.1292
  301W        W43317  16.581   9.455  26.291  0.1575  0.2282 -0.1359
  302W        W43318  25.412   9.715  15.878  0.0781  0.1695  0.0092
  303W        W43319  18.275  11.241  26.841 -0.3189 -0.2796  0.0351
  304W        W43320  10.632  29.011   4.837 -0.0430 -0.0553 -0.0829
  305W        W43321  33.817  28.043   5.331  0.1342  0.4796  0.3739
  306W        W43322  15.297  17.512   6.514 -0.2720 -0.0941 -0.2853
  307W        W43323  14.960  20.835   6.014 -0.4056 -0.0927 -0.0131
  308W        W43324   0.062   3.822   6.356  0.0108  0.1184 -0.0472
  309W        W43325  19.692  25.783  20.811  0.1713  0.1498 -0.1513
  310W        W43326  25.191  25.722   5.621 -0.0876 -0.1185 -0.1950
  311W        W43327  27.686   0.241  19.320 -0.3033 -0.1508 -0.1409
  312W        W43328  23.657  14.996   3.650 -0.1419 -0.1593 -0.3444
  313W        W43329  20.684  15.270  21.423 -0.3500 -0.0433  0.1348
  314W        W43330  15.313  18.731   5.029 -0.1491 -0.0190  0.3435
  315W        W43331  14.886   5.116   3.882 -0.0142 -0.0852  0.1023
  316W        W43332   6.837   6.669   1.214 -0.2863  0.2358  0.0105
  317W        W43333  11.965  12.526  20.530 -0.1587  0.0618  0.0585
  318W        W43334  33.084  13.348  23.461 -0.2169 -0.2666  0.0666
  319W        W43335  11.443   1.734  27.340 -0.1446  0.4584 -0.0090
  320W        W43336  17.997  26.584   1.224 -0.1836  0.0239 -0.1720
  321W        W43337  17.233   0.066  28.288  0.6728 -0.0260  0.1966
  322W        W43338  11.220   9.815   4.766  0.2300  0.1247  0.0106
  323W        W43339  25.228  17.384   6.631 -0.0512  0.2606  0.2010
  324W        W43340  18.883  14.986  27.938 -0.0161  0.0527  0.0974
  325W        W43341  14.956  31.576   2.955 -0.2456 -0.0260 -0.0317
  326W        W43342   8.132  11.053   6.727 -0.1128  0.2157 -0.0118
  327W        W43343  13.589  24.444   2.190 -0.2809 -0.1613 -0.1273
  328W        W43344   7.452  15.405  24.108 -0.2763  0.0292  0.2109
  329W        W43345  22.760  29.807  26.741  0.0245 -0.1652 -0.0329
  330W        W43346  27.976   4.412   8.423  0.2320 -0.0630 -0.0241
  331W        W43347  11.157  11.862   8.803  0.1696 -0.0008 -0.1010
  332W        W43348   6.535  34.203   3.330 -0.0203  0.2703  0.0962
  333W        W43349  30.675  29.621  29.280  0.1334  0.2678 -0.0393
  334W        W43350  13.698  12.679   3.818  0.3256  0.0514  0.3545
  335W        W43351  27.277   6.398  11.158 -0.0761 -0.1406 -0.0157
  336W        W43352  11.094  13.874  21.184 -0.0911 -0.0556  0.2050
  337W        W43353   7.579  20.392  24.812 -0.0164  0.2536 -0.1069
  338W        W43354  10.297  29.890   5.462  0.0915  0.1286  0.1338
  339W        W43355  33.078   0.404  26.431  0.0083 -0.1157  0.1700
  340W        W43356   1.811  22.337   6.895 -0.2596  0.0011 -0.2248
  341W        W43357  31.128   8.029  27.259  0.3197  0.1635 -0.0126
  342W        W43358   3.080  32.847   9.724  0.2241 -0.1240  0.2500
  343W        W43359  29.620  31.767  10.118 -0.1308 -0.0924  0.1159
  344W        W43360   8.570   5.858  21.441  0.0564  0.1585 -0.3405
  345W        W43361  10.293   3.539  28.155 -0.0971 -0.1805 -0.0365
  346W        W43362  25.877   5.550   4.223  0.1839  0.2837  0.1005
  347W        W43363  20.484  18.028   2.802 -0.1298  0.6542 -0.1085
  348W        W43364  12.128  14.750  25.047  0.0617 -0.2169  0.1360
  349W        W43365  16.344  34.400   2.554 -0.0445 -0.3453  0.2385
  350W        W43366  26.510  20.687   8.244 -0.1311  0.1696 -0.1124
  351W        W43367  24.854  19.386  21.213 -0.1797  0.1357 -0.2802
  352W        W43368  18.967  27.267  15.295 -0.0209 -0.5275 -0.0607
  353W        W43369  31.314   6.780   5.688  0.0226 -0.1739  0.2215
  354W        W43370  20.061  26.353   7.353  0.0867 -0.1429  0.1962
  355W        W43371  26.458  15.420  21.755  0.2746  0.0439 -0.0646
  356W        W43372  30.040   6.839  20.711 -0.3669 -0.1453 -0.1990
  357W        W43373  20.509   6.206   6.823  0.1449 -0.0528 -0.1827
  358W        W43374   0.856  12.060   9.948 -0.2843  0.0237 -0.0719
  359W        W43375  21.498   9.556  15.754  0.0251 -0.0050 -0.1131
  360W        W43376   6.784  14.376  29.238  0.1269  0.3686  0.0108
  361W        W43377  21.125  16.392  15.132  0.2180  0.0809  0.1935
  362W        W43378   9.345  23.906   0.660  0.0494  0.1266 -0.4231
  363W        W43379  10.630  10.378   9.028  0.2248  0.0804  0.1227
  364W        W43380  22.522  13.122   2.797 -0.1491  0.2421  0.1759
  365W        W43381  29.207  12.682   0.232  0.1460  0.4648 -0.0146
  366W        W43382  20.443   4.700   8.031  0.0793 -0.0461  0.2415
  367W        W43383  25.587  11.252   9.829 -0.0325 -0.1438  0.1519
  368W        W43384   7.204  13.703   9.309  0.1397  0.3043  0.0195
  369W        W43385  15.231  31.898  22.412  0.1082 -0.4790  0.0861
  370W        W43386  21.626  29.359   7.315  0.1247  0.2283 -0.0147
  371W        W43387  31.574  26.919  23.156 -0.1221 -0.0235  0.1628
  372W        W43388  20.799   5.573   3.280 -0.0345 -0.0083  0.1591
  373W        W43389  23.473  23.889  28.190  0.2226 -0.0685  0.1563
  374W        W43390   2.822  32.852   7.217 -0.1313  0.1735  0.0287
  375W        W43391  29.951   2.362   5.923  0.2514  0.0354  0.3321
  376W        W43392   9.659   0.957   1.107 -0.5665  0.2103 -0.0176
  377W        W43393  25.343  10.266   1.606  0.0526  0.0480 -0.2592
  378W        W43394   1.626  12.430  15.920  0.0589  0.0131  0.1104
  379W        W43395  12.422  10.052  25.878  0.2165  0.0203  0.1207
  380W        W43396  17.948  16.631   5.858 -0.0133  0.3029  0.2325
  381W        W43397  10.331  12.085   6.669  0.3052 -0.0870 -0.0390
  382W        W43398   5.259  19.674   3.516 -0.2049  0.3169  0.0604
  383W        W43399  21.107  13.684   6.886 -0.0876 -0.1016  0.0373
  384W        W43400   9.497  34.281   0.763 -0.0466 -0.1304  0.0621
  385W        W43401  14.683  20.430  19.643 -0.3943 -0.0440  0.0633
  386W        W43402   1.371  30.157  10.274 -0.3619  0.2378  0.0770
  387W        W43403  18.796   1.763   4.342  0.0367 -0.1662  0.0989
  388W        W43404   8.889  18.605  28.939  0.1724  0.2080 -0.2605
  389W        W43405  14.540  11.469   4.820  0.2325  0.1487 -0.2477
  390W        W43406   8.077   8.457   1.548  0.1997  0.1176  0.1201
  391W        W43407  19.133  13.007  22.464 -0.4356  0.0080  0.2508
  392W        W43408  16.528  12.944  25.949 -0.2489  0.3137 -0.0184
  393W        W43409   0.581  10.713   8.799 -0.1096  0.0104 -0.1797
  394W        W43410  10.755   0.624   8.472 -0.2091 -0.0085  0.2312
  395W        W43411   4.941  33.303   0.660 -0.2142  0.4557 -0.0744
  396W        W43412   8.046  17.809  21.492 -0.2631 -0.3063  0.1140
  397W        W43413  21.456  16.970  25.695  0.1333 -0.1175  0.1012
  398W        W43414  23.700   7.480   6.951  0.0455  0.2756 -0.2077
  399W        W43415  31.626  18.585  19.836 -0.1332 -0.2440 -0.1157
  400W        W43416  33.320  30.951   2.030  0.1839  0.1978 -0.1397
  401W        W43417   8.345  33.515  23.308  0.1375  0.0126 -0.0672
  402W        W43418  14.178  11.424  24.165 -0.2631  0.1268 -0.0891
  403W        W43419  12.399   2.269   7.059 -0.0217 -0.1058  0.4413
  404W        W43420  20.219  19.901  23.345  0.3045  0.3042 -0.0071
  405W        W43421  20.775  13.597  29.141  0.0971  0.2484 -0.0777
  406W        W43422  26.001  24.393  10.580 -0.1040 -0.4047 -0.2589
  407W        W43423  16.564   8.524   8.876 -0.2124 -0.1738 -0.0395
  408W        W43424  25.825  14.659   6.637 -0.1188 -0.2295  0.1678
  409W        W43425  22.392   0.286   7.783  0.0511  0.0216  0.0317
  410W        W43426  24.333  18.511   0.379  0.0291  0.3440 -0.2070
  411W        W43427  15.976   4.235  24.335 -0.0289  0.1785 -0.1188
  412W        W43428  34.000   6.555   1.826  0.0987 -0.1241  0.0452
  413W        W43429  20.626  14.919  27.100  0.3977 -0.3157 -0.1139
  414W        W43430  13.474  32.231  16.263 -0.0431  0.5681  0.1094
  415W        W43431  22.045  10.815  24.643 -0.1542 -0.1380  0.1412
  416W        W43432  27.409   7.568  20.920  0.1142 -0.1412  0.1319
  417W        W43433  17.256   6.379   7.336 -0.1991 -0.2851 -0.2764
  418W        W43434  19.659   7.522   8.580  0.2502 -0.3682 -0.0326
  419W        W43435  31.393  19.229  26.809 -0.0587 -0.1120 -0.1149
  420W        W43436  25.258  33.061  20.225 -0.2050 -0.2203 -0.0806
  421W        W43437  10.352   4.334   5.339 -0.4460  0.1224 -0.0396
  422W        W43438  20.888   7.077   8.492  0.3394 -0.0400 -0.2677
  423W        W43439  13.399  15.649   3.592  0.2139 -0.0453 -0.1188
  424W        W43440  14.774  14.501   0.342  0.2160  0.3046 -0.2576
  425W        W43441   0.169  10.334   8.905  0.0131 -0.1559  0.0713
  426W        W43442  20.039   1.129   8.640  0.4099 -0.2068  0.3078
  427W        W43443  27.132  22.385   4.108  0.2116 -0.3580  0.2219
  428W        W43444  28.340  19.314   2.617 -0.1158 -0.2075  0.0191
  429W        W43445   9.478  12.139  22.939  0.0880  0.0217  0.0920
  430W        W43446   2.281   2.053   1.260  0.2231  0.2109  0.2595
  431W        W43447  11.900   3.282  27.280  0.1316  0.2424  0.1213
  432W        W43448  34.184   9.374  25.242  0.1125  0.2508  0.3864
  433W        W43449   6.540  30.109   2.530 -0.1950  0.1644  0.0404
  434W        W43450   8.880   2.183   9.970  0.2393  0.1139  0.0533
  435W        W43451  30.015   5.587   2.557  0.2923  0.2855  0.0359
  436W        W43452  10.874   2.437  10.354  0.1423 -0.0209 -0.2458
  437W        W43453  11.372   7.316  24.827 -0.1129 -0.0270  0.0458
  438W        W43454   4.259  22.139   3.531 -0.2434  0.1248 -0.0756
  439W        W43455  13.057  11.739  22.688 -0.2166  0.0958 -0.1064
  440W        W43456   0.672  14.115  19.583  0.0786  0.1711  0.2240
  441W        W43457  28.466  34.246  25.508 -0.0717 -0.1803 -0.0645
  442W        W43458  20.502   7.305  24.446 -0.0496  0.1269  0.1063
  443W        W43459  24.069   4.520  29.127 -0.1513  0.0751  0.0797
  444W        W43460   6.970  18.556  18.552  0.3962 -0.1088  0.1350
  445W        W43461  20.472  15.892  15.828  0.0075  0.1172 -0.0445
  446W        W43462   5.720  12.836   2.268 -0.0207  0.0144 -0.1739
  447W        W43463  17.765  24.816   8.164 -0.1677  0.2839 -0.1895
  448W        W43464  30.322  25.194  25.066  0.0498 -0.1146 -0.5642
  449W        W43465  30.177  25.706  28.614 -0.0354  0.1322 -0.0313
  450W        W43466  32.801   7.743   4.355  0.1141 -0.1939 -0.0301
  451W        W43467  22.614   6.108   9.440  0.0662  0.0315 -0.1521
  452W        W43468  18.197   6.269  14.502 -0.0071  0.1906 -0.0143
  453W        W43469   9.409  12.364  28.717  0.0131 -0.1075  0.1893
  454W        W43470  12.890  33.448   0.056 -0.0236  0.1372 -0.4945
  455W        W43471  14.680  11.000  21.565  0.0796 -0.3702  0.1524
  456W        W43472  11.948  33.513  19.428  0.1002 -0.1426 -0.1767
  457W        W43473   2.870   9.511  25.680  0.0581  0.3653  0.2763
  458W        W43474  15.420  33.123   0.139 -0.1712  0.0811  0.1065
  459W        W43475  31.178   9.262   4.768 -0.1577  0.0018  0.2658
  460W        W43476  21.294  33.575   8.529  0.0732  0.1310 -0.2467
  461W        W43477  16.416  16.154   7.900 -0.0215  0.0256  0.0338
  462W        W43478  24.355  20.994   9.149 -0.1135  0.2268 -0.3972
  463W        W43479  31.411   3.229   3.322  0.1822  0.1250 -0.4581
  464W        W43480  23.917  23.323   8.558  0.1377 -0.1436 -0.0898
  465W        W43481  29.704  25.428   2.652  0.3180  0.2214 -0.0019
  466W        W43482  16.716   5.487  20.089  0.1957 -0.3380  0.4463
  467W        W43483  18.142  26.855   8.102 -0.0082  0.0288  0.0297
  468W        W43484   8.145  28.451  25.593 -0.1941 -0.0945  0.1803
  469W        W43485  19.139   1.705   2.502 -0.4425 -0.0133  0.3335
  470W        W43486  14.475  24.650  28.086  0.1855  0.0941 -0.0818
  471W        W43487  16.543  13.216   6.933  0.0760 -0.1689 -0.0931
  472W        W43488  26.401  33.095   6.538  0.1036  0.1040 -0.1306
  473W        W43489   8.351  10.103   0.629  0.1474 -0.1017 -0.1472
  474W        W43490   4.726  20.126   7.272  0.1582 -0.1856 -0.1065
  475W        W43491   8.369  33.073  18.265 -0.0241  0.2014 -0.2427
  476W        W43492  19.962  17.414  27.628  0.2071  0.0301 -0.0355
  477W        W43493  18.729   7.979   6.405 -0.1977  0.1831 -0.1657
  478W        W43494  10.626   0.608   5.088  0.0717  0.3160 -0.1940
  479W        W43495  27.425  11.239  22.721 -0.1240 -0.1107  0.0021
  480W        W43496  21.374   8.551   0.890 -0.0140  0.3208 -0.2736
  481W        W43497  29.048   1.911   7.792 -0.2674  0.0879  0.1859
  482W        W43498  11.638  32.077   7.194  0.1083  0.2289 -0.2330
  483W        W43499   7.314  18.365   3.108  0.0427 -0.0525 -0.2732
  484W        W43500  12.942  14.731   8.236 -0.1460  0.1366 -0.1444
  485W        W43501   5.688  16.615   0.337  0.0474  0.1417  0.0763
  486W        W43502  12.787  10.297   8.291 -0.0680  0.3154  0.2512
  487W        W43503  17.423  20.735   2.710 -0.1451 -0.1324 -0.1437
  488W        W43504  15.288  29.797   2.634  0.0021  0.4774  0.0489
  489W        W43505  28.857   3.621   8.322 -0.0113 -0.0611  0.0410
  490W        W43506  26.667  14.215  27.865 -0.1227 -0.1615  0.0565
  491W        W43507  12.750  31.543   8.078 -0.5704  0.1478 -0.3514
  492W        W43508  15.139   1.820  27.027 -0.0713 -0.2193  0.0188
  493W        W43509  15.343  18.409   7.083  0.4462 -0.0197  0.0303
  494W        W43510   3.309  18.436  25.599  0.0978 -0.0239  0.0954
  495W        W43511  21.716   4.897  28.073 -0.0520  0.0204  0.0237
  496W        W43512  10.480  10.483   4.548  0.1770 -0.2353 -0.1028
  497W        W43513  25.968  12.810   4.802  0.0336 -0.0490  0.2089
  498W        W43514   0.336   7.668   4.227  0.2670  0.2769 -0.0558
  499W        W43515  10.113   5.322  18.597 -0.0929 -0.0029 -0.1258
  500W        W43516  28.723   5.487  16.110  0.3647  0.0733  0.0284
  501W        W43517  14.807  31.959   4.981 -0.0115 -0.2227 -0.0437
  502W        W43518   5.313   0.542  25.740 -0.1488  0.3154 -0.3327
  503W        W43519   8.896   7.582  21.526 -0.1776  0.1752 -0.0316
  504W        W43520  26.353  14.076   5.148 -0.2682 -0.1690 -0.4479
  505W        W43521  18.568   5.974   0.617  0.1001 -0.2348 -0.0827
  506W        W43522  26.882  21.814   0.697  0.0701 -0.1292 -0.2576
  507W        W43523  14.632  31.031   3.103 -0.2360 -0.2110 -0.1573
  508W        W43524  31.466   7.698   9.325 -0.0424 -0.0856  0.1764
  509W        W43525  23.293   8.735  10.498  0.1788 -0.0338  0.1678
  510W        W43526  25.183   7.297  23.160  0.2498 -0.0356  0.3662
  511W        W43527  18.857  18.007  21.845  0.3201 -0.1050  0.1774
  512W        W43528  34.603   9.608  20.180  0.0117 -0.1762 -0.1115
  513W        W43529  28.824  32.621  21.152  0.2084  0.2203  0.0781
  514W        W43530   8.412  20.670   1.164 -0.0043  0.1333 -0.0247
  515W        W43531   8.720  15.199  24.049 -0.0384 -0.0941  0.0014
  516W        W43532  33.076   2.402   1.259  0.0345  0.0045  0.1053
  517W        W43533  18.781  13.533   5.077 -0.0622 -0.4496 -0.0994
  518W        W43534   2.370  16.731  23.055  0.1128 -0.1988  0.1385
  519W        W43535   0.528   0.154   3.695 -0.2568 -0.3335  0.0119
  520W        W43536  28.047  16.066   8.054 -0.1539  0.1295  0.2462
  521W        W43537  19.315  11.216   2.963  0.0353 -0.1638 -0.0626
  522W        W43538   2.497  25.072   9.487 -0.1379 -0.1316  0.1201
  523W        W43539  17.738   8.845   4.120 -0.0253 -0.0060 -0.0018
  524W        W43540  27.195   4.132   3.243  0.0444  0.0401 -0.0447
  525W        W43541  24.182  10.583  16.288  0.1149 -0.1204 -0.2998
  526W        W43542   6.740   5.686  20.169 -0.1078  0.1472 -0.0959
  527W        W43543  29.690   6.516   9.050  0.2154  0.2189 -0.3553
  528W        W43544  26.773  15.800  26.564 -0.1371  0.1547  0.1187
  529W        W43545  20.518   6.199  18.244 -0.0773  0.0773  0.1346
  530W        W43546  12.255  15.094   3.949  0.1160 -0.0131 -0.0841
  531W        W43547  15.702  15.982  23.751 -0.0431  0.2193 -0.2742
  532W        W43548   5.219   0.210  19.039  0.6679  0.1671 -0.0119
  533W        W43549  27.583  19.964   2.257  0.0402 -0.2228  0.2849
  534W        W43550  19.634  32.975   7.097  0.3821 -0.2327  0.0713
  535W        W43551   5.786   4.176   9.877  0.0201 -0.1749 -0.0155
  536W        W43552  16.688  13.491   0.335  0.2609  0.0001 -0.1631
  537W        W43553  14.284   6.096   8.202  0.0928  0.2396  0.2285
  538W        W43554  16.755   7.613   4.618  0.1189  0.0485 -0.2427
  539W        W43555  24.400  10.869  10.546  0.0846  0.2308 -0.1697
  540W        W43556  25.929  12.497   7.823 -0.0745 -0.7534  0.1507
  541W        W43557  16.674   6.346   7.211  0.3219  0.1022 -0.0403
  542W        W43558  25.869  12.997  10.289  0.0233  0.0542 -0.1247
  543W        W43559  21.101   6.288   7.850  0.1288 -0.4445  0.2568
  544W        W43560  28.628  29.206   1.288  0.0335 -0.1125 -0.0724
  545W        W43561   5.212  21.489  26.354 -0.1158 -0.1677  0.1915
  546W        W43562  13.266   5.789   3.313  0.0067  0.0783 -0.2377
  547W        W43563   5.688   7.068   5.313 -0.0977 -0.0360  0.2637
  548W        W43564  25.452  15.821   6.790  0.0843 -0.1056 -0.0645
  549W        W43565  18.605  30.816   2.790 -0.4290  0.1584  0.1742
  550W        W43566  30.125  19.609   6.723 -0.1930  0.1346 -0.1822
  551W        W43567  16.515  12.250   2.655  0.3037  0.2020 -0.0798
  552W        W43568  29.597  22.041  23.883 -0.2349  0.3621  0.1984
  553W        W43569  10.552  16.466   3.907 -0.0493 -0.1566 -0.0004
  554W        W43570  21.621  32.762   7.986  0.0400  0.0917  0.1995
  555W        W43571  22.659  15.980  14.173 -0.1197 -0.1743 -0.0834
  556W        W43572  13.940  26.594   2.392 -0.3847  0.0334  0.1533
  557W        W43573   5.720  21.213  25.145 -0.1479  0.1513 -0.3975
  558W        W43574  16.275  18.983   2.189  0.0701 -0.1213  0.1927
  559W        W43575  10.597  11.770   4.693 -0.3339 -0.2922 -0.0949
  560W        W43576  20.360  27.735   2.558 -0.0743 -0.1205 -0.2092
  561W        W43577  21.794  20.986   8.989 -0.2443 -0.2061 -0.0977
  562W        W43578   6.703  34.120   8.514 -0.0730  0.3175 -0.0726
  563W        W43579  10.438  16.988  29.062  0.0255  0.3120  0.1006
  564W        W43580  14.862  19.914   5.091  0.0234 -0.1096  0.2820
  565W        W43581  17.468  24.308  21.298  0.0446 -0.1304  0.0958
  566W        W43582  18.231  11.866  13.536  0.0220  0.0241 -0.1064
  567W        W43583  13.787  20.804   2.456 -0.2012  0.3711 -0.0908
  568W        W43584  13.461  27.889   6.438  0.1917  0.3145  0.0269
  569W        W43585  10.981   5.554  28.028 -0.1517 -0.0334  0.0976
  570W        W43586   9.213   8.838  28.571  0.2007  0.2059 -0.0901
  571W        W43587  18.404  20.650   6.005  0.0067 -0.1243  0.0874
  572W        W43588  28.460  32.653  11.587  0.3346 -0.0913 -0.0150
  573W        W43589   0.418  19.648   7.239  0.2489 -0.1666  0.1524
  574W        W43590   4.186   2.296  26.884 -0.4939  0.0046 -0.0339
  575W        W43591   2.321  17.409  26.124  0.1706  0.0684 -0.1479
  576W        W43592  13.679  18.318   7.679 -0.0329  0.5321  0.0307
  577W        W43593   2.503   4.497   8.362  0.0792  0.3774  0.0499
  578W        W43594  26.101  17.463   1.779  0.0217 -0.1362 -0.2207
  579W        W43595   9.168   5.826   8.219  0.1048  0.1343  0.1641
  580W        W43596   8.130   9.200   1.956  0.0038  0.0225 -0.2545
  581W        W43597  22.962  18.940  29.013  0.2709  0.1527  0.1297
  582W        W43598  10.662   4.663   2.929  0.1756  0.0711  0.0887
  583W        W43599  11.096   2.099  24.904 -0.0262  0.1860 -0.0702
  584W        W43600  16.078  13.839  23.204 -0.1426 -0.0097 -0.0600
  585W        W43601   5.852  24.888  29.175  0.3088  0.0613 -0.2302
  586W        W43602  25.897  15.239   2.636  0.0071 -0.1588 -0.3019
  587W        W43603  10.529  26.380  25.909  0.1324  0.3942 -0.0812
  588W        W43604  19.321  10.866   3.978 -0.0878 -0.3596  0.1808
  589W        W43605  12.161   2.521   3.835 -0.1231 -0.2655 -0.0783
  590W        W43606   6.358  24.744   6.781 -0.3765  0.1241 -0.1825
  591W        W43607  26.995  10.232   0.091 -0.1261 -0.1494  0.2188
  592W        W43608  21.273  16.687  23.995 -0.1320  0.1728  0.0467
  593W        W43609  31.797  31.619  29.110  0.0208 -0.0446 -0.1661
  594W        W43610  33.057  22.959   2.381 -0.3144  0.1248  0.0932
  595W        W43611  24.054   6.019  28.296 -0.0910 -0.1415  0.2612
  596W        W43612   8.767  11.352   9.579 -0.3810  0.0263  0.0366
  597W        W43613  12.707  22.449  26.974 -0.1088 -0.1367  0.0380
  598W        W43614  21.026  12.637   6.217 -0.0037  0.2976  0.0145
  599W        W43615  13.214  22.586   1.136 -0.2799 -0.0593 -0.3184
  600W        W43616  28.945  14.291  24.194 -0.2902  0.3268  0.1691
  601W        W43617   3.503  27.950  19.923 -0.0793  0.2296 -0.0663
  602W        W43618  30.688  15.139   9.675 -0.2326  0.0328  0.0835
  603W        W43619  27.367  13.619  21.417  0.1355  0.1932 -0.0071
  604W        W43620  16.663   7.744   7.948  0.0135  0.1092  0.2883
  605W        W43621  15.455   5.857   4.259  0.4469  0.0727  0.0190
  606W        W43622  17.642   8.969   9.835 -0.1082 -0.3497  0.0665
  607W        W43623  33.167  13.808   6.601  0.4751  0.2383 -0.0489
  608W        W43624  12.760  23.938  24.035  0.1806 -0.0398  0.1326
  609W        W43625  28.352  17.337  10.262 -0.2253  0.2113 -0.0072
  610W        W43626  27.158  14.916   9.075  0.2108  0.1707  0.3093
  611W        W43627  12.582   8.224  27.462 -0.0353 -0.2422  0.2026
  612W        W43628  27.615   1.957   7.537  0.0404  0.1229  0.5229
  613W        W43629   8.766  17.328  19.153 -0.0281 -0.0832  0.0318
  614W        W43630  18.082  28.875  27.310 -0.0437  0.3231  0.4155
  615W        W43631  18.893   7.231  26.745 -0.1236  0.0194  0.0713
  616W        W43632  23.941   7.084   2.383  0.2553 -0.2133  0.1346
  617W        W43633  28.017   7.409   4.512  0.0477 -0.2008  0.2748
  618W        W43634  18.555  33.376   0.969  0.4119 -0.2138 -0.0075
  619W        W43635  14.719   1.770   9.341  0.1193  0.3222 -0.0653
  620W        W43636  28.563   4.340   4.675 -0.2800  0.1566  0.4529
  621W        W43637  15.744  15.903  27.926  0.2817 -0.0559  0.0656
  622W        W43638  24.828   6.685   0.165 -0.0502 -0.0147 -0.0548
  623W        W43639  12.317  17.134  21.073 -0.0356  0.2492  0.1718
  624W        W43640  20.012  21.218   7.972 -0.0607 -0.2074  0.1176
  625W        W43641  19.755  13.420  24.312 -0.1716  0.1319  0.3118
  626W        W43642  27.779  24.011   6.592 -0.0284 -0.2036 -0.1033
  627W        W43643  22.273  12.348   6.175 -0.0749  0.0666 -0.1328
  628W        W43644  15.783  13.536  24.667 -0.0805 -0.0413 -0.1516
  629W        W43645  25.698  26.225   7.316  0.2665 -0.0014 -0.1772
  630W        W43646  31.796  26.276   0.089  0.3071 -0.1792 -0.3955
  631W        W43647  18.546   0.519  24.781  0.2656  0.0921 -0.0404
  632W        W43648   9.426   0.628   6.699 -0.0846  0.1093  0.1615
  633W        W43649   8.750   2.601  25.350  0.1289 -0.1598 -0.2630
  634W        W43650   2.612   9.417   7.212  0.0999  0.0674 -0.2085
  635W        W43651   4.051   9.450   6.045 -0.0096 -0.0093  0.0930
  636W        W43652  17.758   2.607   4.428 -0.0746 -0.0441 -0.2562
  637W        W43653  10.781   6.479   9.800 -0.0094 -0.2045 -0.0099
  638W        W43654  18.277  12.946   4.136  0.2049 -0.1711  0.1017
  639W        W43655  18.363   8.893  27.743 -0.0143  0.0942  0.1838
  640W        W43656   3.732  17.952  28.838  0.0632  0.2269  0.1156
  641W        W43657  25.402  10.703   1.803 -0.0073  0.0773 -0.0890
  642W        W43658  18.122  13.571   5.577 -0.2447  0.0161  0.1153
  643W        W43659  22.960  26.380   9.799  0.1541  0.1390 -0.1433
  644W        W43660  11.778  18.896   9.191  0.1060  0.0379 -0.1612
  645W        W43661  17.475  24.426   3.861  0.2844 -0.0675 -0.1591
  646W        W43662  24.311  26.495  10.476 -0.0392  0.1480  0.2077
  647W        W43663  11.806  13.271   8.483 -0.0177 -0.1232 -0.0947
  648W        W43664  27.069   4.905  11.104  0.1251 -0.1849 -0.1648
  649W        W43665  11.324  17.288   4.797  0.1159 -0.0881 -0.1861
  650W        W43666   9.106  23.642  24.955 -0.0704  0.0304 -0.1113
  651W        W43667   6.558  18.378   5.793  0.0221 -0.0852  0.2328
  652W        W43668  14.326  18.553   0.588 -0.4089 -0.1273  0.3117
  653W        W43669  24.604   5.564   8.246  0.4086  0.1385 -0.0348
  654W        W43670  33.513   2.966   4.204 -0.1193  0.1751 -0.0291
  655W        W43671  11.107  29.167   7.501  0.1310  0.0230  0.0649
  656W        W43672  10.187  11.943   7.218  0.0130  0.2166 -0.2771
  657W        W43673   9.229  23.667  26.897  0.2507  0.2527 -0.3565
  658W        W43674  11.793  14.375   2.393  0.0141 -0.0339 -0.0744
  659W        W43675  34.115  14.413  26.390 -0.1222  0.0213  0.1286
  660W        W43676  19.064  31.269  17.018  0.1139 -0.1516 -0.1278
  661W        W43677  21.772   4.888  13.844  0.0507  0.4079 -0.2458
  662W        W43678  33.812  12.147   2.968 -0.3157 -0.3704  0.1452
  663W        W43679  19.609  26.296   1.327 -0.2000 -0.0755  0.2175
  664W        W43680  16.689  16.767  19.361  0.1815 -0.1113  0.1893
  665W        W43681  13.372  13.452  26.830 -0.0242 -0.2283  0.0198
  666W        W43682  23.202  32.040   7.408 -0.4515  0.1954  0.1015
  667W        W43683  34.098   9.279  21.313 -0.1145  0.2978  0.0128
  668W        W43684   1.901  18.425   5.771  0.0899 -0.2314 -0.0544
  669W        W43685  33.880   8.369   9.170 -0.1989  0.0202  0.0208
  670W        W43686  23.188  11.559   4.263 -0.1030 -0.1823  0.3047
  671W        W43687  17.835   8.644  22.687 -0.1064 -0.2387  0.0819
  672W        W43688  16.261   1.698  27.669  0.0423  0.1567  0.1742
  673W        W43689  15.916   5.448   6.274  0.1620  0.1698 -0.2384
  674W        W43690  17.284   5.472  10.169  0.1223  0.4362 -0.0636
  675W        W43691   0.838  15.090  23.610 -0.0440 -0.1212 -0.0906
  676W        W43692  23.707  11.405   7.658 -0.1479  0.1172 -0.0508
  677W        W43693  17.857   4.398   2.784 -0.0319 -0.1707  0.0717
  678W        W43694  31.737  33.737  26.733 -0.0500  0.0774  0.1403
  679W        W43695  20.904   6.627  20.617 -0.0985 -0.0613  0.1078
  680W        W43696  20.229  23.751   5.772 -0.0620  0.1631 -0.0087
  681W        W43697  13.902  32.655  14.613 -0.3565 -0.0330  0.0713
  682W        W43698  24.204   7.862   7.809  0.0103 -0.1920 -0.0244
  683W        W43699  20.297  32.910  29.000 -0.2926 -0.1523 -0.0053
  684W        W43700   9.809   2.741   1.386 -0.0989  0.1405  0.0704
  685W        W43701  15.314   8.780  28.677 -0.1102 -0.0458 -0.2373
  686W        W43702  27.245   1.761   3.084 -0.0316  0.1462 -0.0190
  687W        W43703  17.648  13.854  29.122 -0.0653 -0.3472 -0.0494
  688W        W43704   7.343  15.781  15.036  0.5280 -0.1458  0.3279
  689W        W43705   8.996  15.388   6.458 -0.0158 -0.2875 -0.1652
  690W        W43706  21.388  17.617   0.578 -0.0164  0.2907 -0.2592
  691W        W43707  27.888   2.046  24.454 -0.0305  0.2585  0.1122
  692W        W43708  28.774  12.754   4.904 -0.1550  0.1643  0.0394
  693W        W43709  21.919   0.833   5.841 -0.3024  0.0452 -0.0874
  694W        W43710  10.884  25.338   9.016  0.0438  0.2632 -0.3416
  695W        W43711  20.171   4.062   7.813  0.1592  0.3000 -0.2319
  696W        W43712  19.878  31.453   7.107 -0.4979  0.0269 -0.1416
  697W        W43713  31.090  21.175  10.867 -0.1624  0.2094  0.1309
  698W        W43714  17.121   2.207   0.086 -0.1625  0.5322 -0.1314
  699W        W43715  19.249   6.913   2.448  0.1715 -0.0719  0.1831
  700W        W43716  22.248   4.395   8.127 -0.2184 -0.3534 -0.0433
  701W        W43717  17.836  13.375   4.905 -0.1305 -0.0739 -0.0795
  702W        W43718  18.427   7.931   4.751  0.0159  0.1241  0.0536
  703W        W43719  27.538  10.629  26.884  0.1958  0.0700 -0.1391
  704W        W43720  14.507   8.045   1.291 -0.1077  0.5978 -0.2942
  705W        W43721  18.484  11.533   7.944 -0.0106 -0.3171 -0.1406
  706W        W43722  19.712   0.518   8.884 -0.1732  0.1033 -0.1306
  707W        W43723  17.522  14.201  26.147  0.0107 -0.2207  0.2601
  708W        W43724  14.622   1.110   3.769 -0.2559  0.1835 -0.3347
  709W        W43725  34.532   4.787  19.571 -0.1205  0.0481 -0.3045
  710W        W43726   3.540  20.954   5.211 -0.3140 -0.1427 -0.1834
  711W        W43727  19.022  27.729   5.984  0.0901  0.2139 -0.0383
  712W        W43728  23.210   0.556   2.987 -0.1096 -0.1323  0.0526
  713W        W43729  22.322   9.998   6.470  0.2627 -0.4691  0.2344
  714W        W43730  23.818  29.958  16.349  0.0047  0.0753  0.0691
  715W        W43731  21.522   7.862  23.133 -0.0674  0.0275  0.0091
  716W        W43732  23.187  14.686   8.121 -0.1603 -0.1314 -0.3962
  717W        W43733   7.110   3.606  28.225  0.2041  0.3348 -0.2124
  718W        W43734  10.288  12.113   2.262 -0.0475 -0.0091 -0.3302
  719W        W43735  20.149   9.140   4.480 -0.3001  0.0191  0.0209
  720W        W43736   8.724   9.328   0.015 -0.0461  0.1856 -0.0629
  721W        W43737  16.546   0.827  19.862 -0.3201  0.0602  0.1018
  722W        W43738  28.688   2.844   2.087  0.2666  0.1395 -0.1912
  723W        W43739  17.295   1.955   3.653  0.0578  0.0393 -0.0183
  724W        W43740  13.588  10.434   5.394  0.1502  0.2573  0.3028
  725W        W43741  11.468   3.487   2.204  0.1158 -0.2368 -0.0530
  726W        W43742  19.551  30.741  28.946  0.2762 -0.1132  0.0453
  727W        W43743   0.307  16.648   1.534 -0.0507  0.2369 -0.1074
  728W        W43744  18.084  34.493  29.050  0.2198 -0.0701  0.0865
  729W        W43745  25.861  14.787   1.442  0.1066  0.0581 -0.0378
  730W        W43746  24.213   8.774   5.651 -0.0026  0.0011 -0.0460
  731W        W43747  14.649  18.488  19.401  0.0973 -0.2079 -0.0282
  732W        W43748  17.814  34.232   4.976  0.1545 -0.0357 -0.0510
  733W        W43749  13.086   3.269   7.302  0.2563  0.0189 -0.1151
  734W        W43750   7.551   0.911   1.790  0.3887 -0.1716  0.0043
  735W        W43751  22.619  13.570  29.292 -0.1694 -0.1987 -0.0290
  736W        W43752   5.290   7.768   7.532  0.0781  0.1053 -0.0196
  737W        W43753  11.762  21.877   8.873 -0.0468 -0.0659 -0.0190
  738W        W43754  16.393  33.191  18.916  0.0100  0.2345  0.1193
  739W        W43755  24.706  12.240   6.616  0.1879 -0.6014  0.0843
  740W        W43756  22.116  11.343   6.153 -0.1821  0.0278 -0.3521
  741W        W43757  13.826   9.993  27.566 -0.1200  0.0602 -0.0589
  742W        W43758   3.216  21.768  27.010  0.3316  0.1764  0.1063
  743W        W43759  22.401  16.968  16.210 -0.1613  0.5986 -0.0089
  744W        W43760  11.695  14.222   0.157 -0.0186 -0.0799 -0.2018
  745W        W43761  20.979  11.201   1.365  0.0932 -0.1972  0.3746
  746W        W43762   6.518   3.944   4.019  0.0096 -0.0961  0.0245
  747W        W43763   6.784  23.849  27.104  0.0220 -0.1477 -0.3637
  748W        W43764  19.840  32.480   1.358  0.8245 -0.1172 -0.2868
  749W        W43765  12.747   4.557   5.609 -0.0244  0.1413 -0.2770
  750W        W43766  21.639   5.450  25.129  0.1283  0.1696 -0.1458
  751W        W43767   7.276  25.646  16.982 -0.1025  0.0656 -0.1411
  752W        W43768  13.584   3.161   1.908  0.5021 -0.4696  0.0050
  753W        W43769  18.164   7.346   8.671 -0.0189  0.0001  0.2068
  754W        W43770  22.888   4.573   7.754 -0.2440 -0.0436 -0.0606
  755W        W43771  30.009   2.018   5.121  0.0575 -0.2565 -0.1028
  756W        W43772  15.181   8.486   5.088 -0.4144  0.3696  0.3046
  757W        W43773   7.772  15.415  24.572 -0.2499  0.0135  0.1066
  758W        W43774  21.024  12.282   6.676 -0.0764 -0.1268 -0.0806
  759W        W43775  20.377  15.910   1.940 -0.0426 -0.1250 -0.0881
  760W        W43776   7.735   3.503   3.095 -0.0227  0.3828 -0.1535
  761W        W43777  29.311   7.643   2.445  0.1498 -0.0798 -0.2800
  762W        W43778  20.142  25.160  24.301  0.0407 -0.4266 -0.1384
  763W        W43779  26.115   0.356   1.404 -0.0183 -0.3067 -0.1759
  764W        W43780   1.909  32.570  27.586 -0.1237 -0.1938  0.0367
  765W        W43781  19.440  26.068   9.616 -0.2802  0.3460 -0.1371
  766W        W43782  11.100   7.347   5.765 -0.0378  0.0007 -0.1019
  767W        W43783  30.362   7.327   8.031 -0.0653  0.2299  0.0315
  768W        W43784  23.435  14.746   9.541  0.4386  0.0208  0.0266
  769W        W43785  18.028  22.510   0.649 -0.1194  0.0668 -0.1784
  770W        W43786   3.516   0.337   4.374 -0.0873 -0.1969  0.1398
  771W        W43787  15.340   4.214  28.001  0.0099 -0.0454  0.3574
  772W        W43788  24.111  30.218   1.905 -0.0476  0.2783 -0.1270
  773W        W43789  22.470   3.202   8.802  0.2583  0.3350 -0.0328
  774W        W43790  15.590  33.242  15.257  0.2678 -0.1322 -0.0175
  775W        W43791   7.555  34.185   6.363  0.1455 -0.2470 -0.0022
  776W        W43792   9.466   1.759   3.145  0.1074  0.1532  0.1957
  777W        W43793   0.254  26.847  21.524 -0.0979  0.0689 -0.0148
  778W        W43794  32.873   3.454   9.078  0.1414  0.0816 -0.1568
  779W        W43795  22.548  19.453  28.386  0.5847 -0.0619  0.3785
  780W        W43796  24.572   6.672  24.935  0.4207 -0.0411 -0.1579
  781W        W43797  10.168  13.167   4.072  0.3964  0.0852 -0.0767
  782W        W43798  21.295  17.294   5.970  0.1209  0.2862 -0.4050
  783W        W43799  15.672   6.351   6.140  0.1371 -0.1797  0.0231
  784W        W43800  16.698  15.935  12.022 -0.2890 -0.2838 -0.0228
  785W        W43801  31.487  14.912  10.502  0.2508 -0.0882  0.0063
  786W        W43802   7.291  29.307   8.448  0.0005 -0.2485 -0.0710
  787W        W43803  15.853  13.417   5.560 -0.0234  0.2527  0.0750
  788W        W43804  25.765  22.395   3.765  0.2383  0.2422  0.0803
  789W        W43805  16.689   4.270  21.371  0.0652  0.1774 -0.1413
  790W        W43806  21.808  22.388   1.654  0.1409 -0.0127  0.1830
  791W        W43807  10.948   4.786   9.221  0.3026  0.0331 -0.1540
  792W        W43808  17.511   5.449   0.172  0.1061  0.2260  0.0564
  793W        W43809  31.882   5.408  24.546  0.1572 -0.0918  0.1702
  794W        W43810   8.451   3.186   4.635 -0.2528  0.4519  0.3134
  795W        W43811  14.570   9.601  29.119  0.0542 -0.0782  0.0660
  796W        W43812   3.471  18.874   6.605  0.0447 -0.2600  0.0693
  797W        W43813  16.671  18.010   7.700 -0.3526  0.0336 -0.1501
  798W        W43814  14.580   7.432   5.236 -0.0239 -0.2820 -0.0709
  799W        W43815  28.067  31.902   8.642  0.4187 -0.0318 -0.2322
  800W        W43816  20.863  13.128   2.904  0.1096  0.3326  0.2478
  801W        W43817  30.939  16.066  25.497 -0.3051  0.1156 -0.0892
  802W        W43818  23.584   9.847  28.196  0.0569 -0.1511  0.3108
  803W        W43819  16.186  14.217  26.186  0.1797  0.0325 -0.1986
  804W        W43820  14.412   1.425   7.760  0.2076  0.0337  0.1223
  805W        W43821  28.612  11.770   7.672  0.2189  0.2112 -0.2108
  806W        W43822  17.776   4.338   4.492 -0.2250  0.0562  0.1135
  807W        W43823  32.445  18.773  29.175 -0.2087 -0.3248 -0.1907
  808W        W43824  30.276   0.379  25.690  0.0704  0.0546 -0.0471
  809W        W43825  20.725   4.376   9.516  0.4231  0.0702  0.0664
  810W        W43826  21.112  31.697  25.071  0.2192 -0.1254 -0.0784
  811W        W43827  18.538  34.287   1.400  0.0613 -0.0830  0.1508
  812W        W43828  11.271  24.364  26.343  0.1076 -0.0430 -0.0577
  813W        W43829  34.615  18.358   8.283 -0.3105 -0.2218 -0.2928
  814W        W43830  22.699  31.805   0.472 -0.0743  0.0358  0.0782
  815W        W43831  17.208   2.037   2.872  0.0070  0.2472  0.0120
  816W        W43832  25.198   1.585   7.001 -0.2583  0.1101 -0.1484
  817W        W43833  14.691  19.396   8.515 -0.1079 -0.2555  0.2164
  818W        W43834  30.023   9.416   7.954 -0.0894  0.1121 -0.4382
  819W        W43835  17.400  11.004   5.702 -0.0897  0.3861 -0.0438
  820W        W43836  33.124  11.634  22.044 -0.1241  0.0609 -0.2467
  821W        W43837  13.999   9.948  22.164 -0.1280  0.0740 -0.0268
  822W        W43838   4.100  33.133   9.577 -0.2463 -0.0607 -0.2708
  823W        W43839  17.694  15.449  12.934  0.0319 -0.2053  0.1046
  824W        W43840   9.893   8.615  28.397  0.2444  0.1356 -0.0329
  825W        W43841   9.491  24.321   1.841 -0.0464 -0.3967  0.0409
  826W        W43842  13.761   7.110  19.970  0.1143 -0.1877 -0.3078
  827W        W43843  20.464   1.625   7.613  0.1822 -0.1552 -0.1089
  828W        W43844  26.598  15.058  25.866  0.1579 -0.0954 -0.0250
  829W        W43845  21.727   9.234   0.630 -0.1731 -0.4602  0.3498
  830W        W43846   7.279   7.056   7.626 -0.4081  0.1198  0.0025
  831W        W43847   5.643  11.201  27.823 -0.0674 -0.1006  0.3622
  832W        W43848  29.547  17.015  17.494 -0.2667 -0.2221  0.1853
  833W        W43849  32.906   4.035   4.362 -0.0354 -0.1337 -0.3193
  834W        W43850   9.386   7.302  27.535 -0.2207 -0.2018 -0.2522
  835W        W43851  27.447   9.447  10.165 -0.0006 -0.1822 -0.0290
  836W        W43852   2.074  12.035   2.111  0.4239  0.1066 -0.1434
  837W        W43853  21.924  24.337   5.667 -0.1217 -0.2929 -0.2319
  838W        W43854  27.705   2.939  21.876 -0.0723 -0.4070  0.0822
  839W        W43855   6.927  31.546  27.711 -0.0244 -0.0922 -0.0282
  840W        W43856  13.547   9.651   9.724 -0.0479 -0.1656 -0.0703
  841W        W43857  10.611   3.479  10.780  0.1036  0.0398  0.0130
  842W        W43858  13.786   7.501   8.076  0.2281 -0.0339 -0.0932
  843W        W43859   8.787   7.631  23.842  0.1050  0.1099 -0.3082
  844W        W43860  32.112  12.484  22.241  0.0208 -0.0308 -0.1829
  845W        W43861  33.404  24.897   9.998  0.1235  0.1310 -0.2864
  846W        W43862  31.736  16.692  25.998 -0.3876 -0.0455 -0.2622
  847W        W43863  18.080  11.340  16.901 -0.1723 -0.0961  0.3757
  848W        W43864  21.600  13.923   6.260  0.0170 -0.0535  0.2015
  849W        W43865  21.945  22.733   4.029  0.1779  0.1815 -0.1548
  850W        W43866  27.598   2.629   1.968  0.1458  0.1260 -0.2735
  851W        W43867   8.275  23.250   6.736 -0.0202 -0.1333  0.0631
  852W        W43868  12.226  13.142  19.709  0.1006 -0.4752  0.4558
  853W        W43869  30.970  12.882   0.506  0.4369 -0.0312 -0.0543
  854W        W43870  33.449  19.904  24.888  0.1314 -0.0450  0.0787
  855W        W43871  23.470   5.774   4.610  0.0652 -0.2723 -0.0107
  856W        W43872  14.450  14.209  21.445 -0.1131  0.5210  0.1915
  857W        W43873  17.654  16.245  21.405  0.0758  0.0982 -0.0776
  858W        W43874  26.292   6.049  11.056  0.1398 -0.0262  0.2789
  859W        W43875  13.976   9.420   7.114 -0.0338  0.0814 -0.0291
  860W        W43876   9.442   5.268   2.557 -0.3763  0.3586 -0.0474
  861W        W43877  10.657  32.994  22.277  0.2031  0.0321  0.0094
  862W        W43878  32.251   5.989  27.931 -0.0043  0.0299 -0.1179
  863W        W43879  20.516  17.381  22.054  0.1677  0.2236 -0.1867
  864W        W43880  27.418  29.125  25.855  0.0434  0.0772 -0.0484
  865W        W43881  17.020  17.965   6.045  0.0983 -0.3035 -0.3287
  866W        W43882  13.971  21.961   8.785  0.2102  0.1933  0.2841
  867W        W43883  20.129  25.969  18.169  0.1356 -0.0712 -0.2083
  868W        W43884  17.987  10.414   7.714 -0.1156  0.1122 -0.0654
  869W        W43885  26.911  15.102  10.063  0.0958 -0.0052 -0.5371
  870W        W43886  22.634  32.898   6.344  0.2128 -0.0711  0.3503
  871W        W43887  10.585   6.788   7.063  0.0363  0.1224 -0.0415
  872W        W43888  18.658  21.647   1.338 -0.1141  0.0624  0.1974
  873W        W43889  21.705  15.132   6.933 -0.1371  0.0592 -0.1697
  874W        W43890  10.770  11.479   8.563  0.4201 -0.1696 -0.2446
  875W        W43891   4.806   7.644   7.948  0.1266  0.0958  0.0802
  876W        W43892   8.681  26.984   6.988  0.1108 -0.2599  0.0528
  877W        W43893   3.275   0.706   6.297 -0.2223 -0.1072 -0.4098
  878W        W43894  13.496   1.910   1.533  0.1577  0.2185 -0.0398
  879W        W43895  19.745  11.240  26.535  0.2332 -0.3019 -0.2124
  880W        W43896  20.465  26.302   3.647  0.3229 -0.1959 -0.2865
  881W        W43897  10.200  16.751   6.622 -0.1314 -0.1157 -0.5643
  882W        W43898  23.074   1.741   7.911  0.2718 -0.1950  0.0367
  883W        W43899  13.446   7.011   2.358  0.0513  0.1370 -0.1067
  884W        W43900  22.016  34.551  22.247  0.0308 -0.2325  0.2267
  885W        W43901   6.861  34.439  17.845  0.1227 -0.3026  0.3004
  886W        W43902  26.367  28.289  23.178  0.3583  0.0418  0.0191
  887W        W43903  16.688   5.344  26.194  0.0290  0.2137 -0.2907
  888W        W43904  18.458   3.195   9.295  0.0897 -0.2486  0.0621
  889W        W43905   3.183   6.396   3.833  0.4233  0.0135  0.3260
  890W        W43906  16.625  10.190   8.103  0.4523  0.2239  0.0607
  891W        W43907  24.117  24.749  19.496  0.1396  0.0309 -0.2875
  892W        W43908  20.486  17.934  26.785  0.0062  0.5626 -0.2016
  893W        W43909  23.667  19.539   0.813 -0.0940 -0.0876 -0.1147
  894W        W43910   0.375  22.831  29.114  0.1419  0.0796 -0.1332
  895W        W43911  16.053  11.498   6.779  0.0924  0.4292  0.0276
  896W        W43912   7.837  14.754  14.341  0.0383  0.3499  0.3728
  897W        W43913  29.212   0.855   6.198 -0.1301 -0.3064  0.1964
  898W        W43914  15.243  15.790  26.076  0.0705 -0.3298  0.1194
  899W        W43915  26.378   6.224   5.657  0.0469 -0.1596 -0.1463
  900W        W43916  17.930  30.110   4.879  0.1110 -0.1743  0.1466
  901W        W43917  21.021   8.920  18.584  0.0183  0.0169  0.1183
  902W        W43918  16.496  11.142   0.749 -0.1316 -0.0819  0.0839
  903W        W43919  15.899  17.888  27.308 -0.2365 -0.2625  0.1246
  904W        W43920   4.048   5.685   9.034  0.1045 -0.5410  0.0481
  905W        W43921  20.618  31.879  25.227 -0.0089 -0.1698 -0.0307
  906W        W43922  17.031   6.033   7.668 -0.0712 -0.1722  0.0439
  907W        W43923  16.770   9.495  28.473 -0.1511 -0.1234 -0.0793
  908W        W43924  15.715   1.743   2.909 -0.2395  0.1004  0.1954
  909W        W43925  16.715  15.232   6.042 -0.0836 -0.2681 -0.0995
  910W        W43926  22.812  16.963   3.498  0.0831 -0.2063 -0.1373
  911W        W43927  20.203  18.819   4.599  0.1849 -0.0612 -0.1994
  912W        W43928  19.090  16.978  23.331 -0.2327  0.3048  0.0989
  913W        W43929  16.285   0.227   9.903 -0.0480 -0.1113 -0.2973
  914W        W43930  24.824   9.855   9.537 -0.2001  0.1997  0.2004
  915W        W43931  18.420   9.899   5.977  0.0791  0.2518  0.0439
  916W        W43932  24.697  10.680   3.835  0.1538  0.1482  0.1767
  917W        W43933  25.336  20.798   3.182 -0.2236  0.3596  0.0258
  918W        W43934  18.851  18.608   4.867  0.1721 -0.4289  0.1960
  919W        W43935   3.125  25.260   7.492 -0.1100  0.0581 -0.0313
  920W        W43936  26.026  15.872   3.813 -0.3205 -0.1563 -0.0052
  921W        W43937  25.270  18.538  25.337  0.1199  0.1731  0.1372
  922W        W43938  24.993  31.945  11.400  0.1586  0.2478  0.0150
  923W        W43939  10.233  34.505  20.827 -0.0072  0.0114 -0.1679
  924W        W43940  30.023   9.823  17.010 -0.0863 -0.0395 -0.0240
  925W        W43941   3.088  29.819   9.575  0.0405  0.2595  0.0303
  926W        W43942  29.171   9.657   2.412 -0.1533 -0.0573  0.0157
  927W        W43943   1.491   8.763   5.223 -0.0090 -0.1706 -0.0082
  928W        W43944   3.040  11.153   5.056 -0.5221 -0.1056 -0.0162
  929W        W43945  22.624  14.439  20.882 -0.4030 -0.1464  0.2325
  930W        W43946  12.911  11.351   5.571  0.1613 -0.0763 -0.1889
  931W        W43947  28.143   7.456   2.747  0.2697 -0.0168  0.1171
  932W        W43948  21.375  32.237   0.619  0.1672  0.1605 -0.3930
  933W        W43949  15.281  12.205  25.230 -0.2279  0.3653 -0.1255
  934W        W43950  19.789  12.170   4.829  0.4761 -0.0358 -0.2737
  935W        W43951  12.811   8.404   5.417  0.0408 -0.1152  0.2633
  936W        W43952  25.408   1.469  22.260  0.1927  0.0373 -0.2543
  937W        W43953  14.126  13.639   8.012  0.0550 -0.1699  0.1692
  938W        W43954  27.836   6.548  11.057  0.0330 -0.2122  0.1149
  939W        W43955  14.881   1.226  23.914  0.1569  0.0367  0.0434
  940W        W43956  33.284  15.794   4.720  0.0397 -0.1512  0.0094
  941W        W43957   7.643  26.212   1.072 -0.0033  0.1154  0.2778
  942W        W43958  21.434  32.304   5.052  0.0419  0.0053 -0.4087
  943W        W43959   2.734   2.203   7.899  0.0471 -0.0085 -0.1492
  944W        W43960   3.815  25.260   2.374 -0.2273  0.0536 -0.0258
  945W        W43961  25.056   2.974   6.143  0.2634  0.0287  0.1246
  946W        W43962  22.172  31.173   2.001 -0.1464 -0.0469 -0.1445
  947W        W43963  32.497  32.212  10.055 -0.0456 -0.2649  0.2051
  948W        W43964  15.469  22.817  26.356 -0.0802  0.0641  0.0685
  949W        W43965   9.820  31.951   0.640 -0.0914  0.2494  0.1993
  950W        W43966   1.440  33.857   5.109 -0.2215 -0.0794  0.2240
  951W        W43967   7.310  17.676   4.583  0.0981  0.1170 -0.1109
  952W        W43968  10.147  15.936  23.898 -0.3305 -0.2772 -0.2574
  953W        W43969  26.412  24.152   9.898 -0.4333 -0.1492  0.2549
  954W        W43970  34.588   1.341   6.858  0.3380  0.5183 -0.2370
  955W        W43971  20.870  12.250  20.116  0.1000  0.1437  0.2230
  956W        W43972   2.073  25.272   4.982  0.0240 -0.3113 -0.0742
  957W        W43973  13.183  14.075  26.269 -0.2604 -0.1802  0.0410
  958W        W43974  15.404   2.692  25.705 -0.1841  0.2244 -0.0365
  959W        W43975  16.807   0.743  28.703 -0.0315  0.1206  0.1495
  960W        W43976  16.427   6.226  28.224  0.0424  0.0016 -0.0640
  961W        W43977  33.867   6.641   5.236 -0.1501 -0.1293  0.1513
  962W        W43978   9.554  11.306   7.546  0.0907 -0.1767  0.0949
  963W        W43979  13.445  27.396   0.025  0.2246  0.0150  0.0273
  964W        W43980  21.248   2.793   4.719 -0.0940 -0.2866 -0.1539
  965W        W43981  19.714  17.796  28.894  0.1273  0.1219 -0.0202
  966W        W43982  22.374  21.489  26.995  0.0587 -0.3070  0.1090
  967W        W43983  23.127  16.045  27.624  0.2677 -0.1698  0.0666
  968W        W43984  18.593  10.913   4.392 -0.1516  0.0440 -0.1504
  969W        W43985  19.337  15.616   2.781  0.0757 -0.0030 -0.2030
  970W        W43986  14.838  16.199   8.032 -0.3463  0.1788  0.0479
  971W        W43987   8.232   9.428   8.259 -0.0525  0.3609 -0.1982
  972W        W43988  16.546  11.340   7.574  0.0154  0.0370 -0.0764
  973W        W43989   8.081   7.250   5.924  0.0242  0.0810  0.0528
  974W        W43990  17.093  21.177  28.096  0.0886 -0.1743  0.2535
  975W        W43991   2.013  13.441  26.750 -0.0218 -0.1326  0.3430
  976W        W43992  25.488  12.685   7.657  0.0765  0.3192  0.0326
  977W        W43993  11.171  34.659   6.047 -0.0153 -0.1579 -0.0213
  978W        W43994  24.413  32.184  10.083  0.4241 -0.1269 -0.1397
  979W        W43995  18.096  14.404   7.959  0.0416 -0.0458  0.0570
  980W        W43996   1.761   9.973  21.977  0.0531 -0.0128 -0.1569
  981W        W43997   1.545   6.395   0.515 -0.0498 -0.1549 -0.0268
  982W        W43998   1.474   4.295   6.441  0.3368 -0.2459 -0.0235
  983W        W43999  18.922  33.732  26.680  0.0075  0.0813 -0.1455
  984W        W44000  10.793  18.196  24.613 -0.0983 -0.3720  0.0862
  985W        W44001  26.555  18.489   8.029 -0.0108 -0.1948 -0.1311
  986W        W44002   6.495  15.021   7.103  0.2489 -0.2708 -0.0384
  987W        W44003  25.072   9.265  25.085 -0.0941 -0.1189  0.1396
  988W        W44004  17.163  16.373  24.045  0.2314  0.2091  0.0579
  989W        W44005  21.269   7.840   6.042 -0.0342  0.3163 -0.3374
  990W        W44006  15.882  10.154  20.384  0.1237  0.2495 -0.2381
  991W        W44007  14.609  34.738  27.587 -0.0192 -0.0982  0.0991
  992W        W44008  17.426  19.892   7.213  0.1907  0.3261  0.1198
  993W        W44009  22.701   3.498   6.071 -0.1271 -0.0542 -0.2871
  994W        W44010  18.335  12.413  21.465 -0.1072  0.1896 -0.0963
  995W        W44011  27.228  21.708  27.426  0.0185 -0.2640 -0.0117
  996W        W44012  30.126   2.347  10.597  0.0696 -0.1561  0.1811
  997W        W44013   6.547  14.747  28.905  0.0498 -0.0822 -0.1210
  998W        W44014  18.324  11.889   0.159 -0.0212 -0.0639  0.0814
  999W        W44015  33.403  26.199   4.036  0.0346  0.0285 -0.1208
 1000W        W44016  16.050  18.047   7.684  0.1522  0.2392 -0.0073
 1001W        W44017  34.682  30.537   2.208 -0.1934 -0.0226  0.1601
 1002W        W44018  16.016   0.256  24.337 -0.0097 -0.1985 -0.1385
 1003W        W44019  26.317  11.263  24.990  0.4421 -0.1355 -0.0603
 1004W        W44020  25.801  25.581   5.830 -0.5148  0.1256  0.0199
 1005W        W44021  17.984  12.220   4.470 -0.0301  0.3368 -0.2341
 1006W        W44022  17.059  20.905  14.097 -0.0679 -0.0405 -0.2203
 1007W        W44023  24.837   4.683   7.126 -0.0165 -0.2996 -0.4949
 1008W        W44024  16.614  14.462  27.169  0.2301  0.1315 -0.0058
 1009W        W44025  18.760   5.664   8.271 -0.1739 -0.0342 -0.0261
 1010W        W44026  11.917  33.081  26.166  0.0839  0.1271 -0.1093
 1011W        W44027   8.075   2.039   2.796  0.1842  0.1697 -0.0255
 1012W        W44028  11.362   9.663   1.984 -0.2765 -0.3270  0.1562
 1013W        W44029  23.450   9.029   6.022  0.4306 -0.1727 -0.1061
 1014W        W44030  18.316   9.231  25.162 -0.2705  0.2581 -0.0761
 1015W        W44031  13.033  33.567   8.704  0.3232  0.0499 -0.0757
 1016W        W44032  19.935  17.705   0.166 -0.0191 -0.3341 -0.1574
 1017W        W44033  28.677   6.563   9.295  0.0727 -0.2082  0.0775
 1018W        W44034  11.230  34.433   3.273 -0.1393  0.0604  0.1094
 1019W        W44035  19.812   9.169  14.800  0.5676 -0.1695 -0.2510
 1020W        W44036  18.414   1.936   5.024 -0.1499 -0.3647  0.3263
 1021W        W44037  17.775  16.247  29.247  0.1258  0.2926  0.3065
 1022W        W44038  13.259  11.070  21.648  0.1879  0.0220 -0.0749
 1023W        W44039  27.127  14.184   8.569  0.1527 -0.0903 -0.2195
 1024W        W44040  29.595  13.125  28.648 -0.3512 -0.0126 -0.1435
 1025W        W44041   5.951   3.441   7.228 -0.3528 -0.1205 -0.0101
 1026W        W44042  26.032  13.250  19.801  0.2008  0.0484 -0.0052
 1027W        W44043  22.241  12.196  27.478 -0.0944 -0.2967  0.2676
 1028W        W44044  24.880  31.811  10.924 -0.1268 -0.1195 -0.3331
 1029W        W44045  31.189   0.736   2.181 -0.0102 -0.0972 -0.3907
 1030W        W44046  21.370  33.591  28.674  0.0023 -0.2800 -0.0192
 1031W        W44047  23.152  12.301   9.031 -0.0415 -0.1657  0.0775
 1032W        W44048  27.791  10.737   6.123  0.2601 -0.2696  0.2139
 1033W        W44049  11.211   3.539   0.225 -0.0601 -0.1544 -0.1295
 1034W        W44050  25.329  13.913   4.783 -0.1564  0.1105 -0.2233
 1035W        W44051  19.364  15.040   5.328 -0.0987 -0.0357 -0.0519
 1036W        W44052  18.925   3.663   7.993 -0.1282 -0.2888 -0.4446
 1037W        W44053   3.313  16.816   9.316 -0.3432  0.3705  0.4126
 1038W        W44054   1.047  19.838   8.311 -0.0541 -0.0780  0.1754
 1039W        W44055  14.638   7.908   5.400 -0.0879  0.2550 -0.5592
 1040W        W44056  11.592   7.490   7.226 -0.3259 -0.0238  0.0299
 1041W        W44057  21.223   5.650   9.925  0.0219 -0.1609  0.2121
 1042W        W44058  18.238  34.261   3.572  0.1853  0.1105 -0.0474
 1043W        W44059  20.458  11.984   2.448  0.4707  0.0531  0.3571
 1044W        W44060  27.371  10.243   4.003 -0.2105  0.4060 -0.2372
 1045W        W44061   5.069   7.410   5.274 -0.4416 -0.1976 -0.2368
 1046W        W44062  18.864   6.801   9.690  0.1103  0.1461  0.1038
 1047W        W44063   7.471   0.592   8.733  0.1466 -0.0623 -0.2624
 1048W        W44064   9.500   0.991  25.064 -0.1036  0.2236  0.1915
 1049W        W44065  17.701  11.748   6.512 -0.3208  0.1427  0.0427
 1050W        W44066  15.676   3.667  29.046  0.1715  0.0472  0.0151
 1051W        W44067  32.157  32.799   7.327  0.1485 -0.0864 -0.0742
 1052W        W44068   9.690   8.893  28.761 -0.1562 -0.0396 -0.1304
 1053W        W44069  31.943  13.302  27.636  0.0342  0.1996  0.2012
 1054W        W44070  11.621  14.446   6.989 -0.2323  0.1028 -0.2439
 1055W        W44071  13.186  31.433  25.856 -0.3401 -0.3093 -0.0306
 1056W        W44072  13.194  31.683   6.062  0.0070  0.0908  0.2496
 1057W        W44073  23.076  17.339   6.831 -0.2045 -0.1640 -0.1127
 1058W        W44074  16.389  13.998   1.640 -0.0633 -0.2336 -0.0224
 1059W        W44075  27.406   4.743   4.468  0.1785  0.1332  0.0719
 1060W        W44076  13.395   1.447   2.855  0.1917  0.2201 -0.1562
 1061W        W44077  31.792  13.841   1.717 -0.2134  0.2686  0.2925
 1062W        W44078  10.546  10.582  23.671 -0.0127  0.0782  0.2112
 1063W        W44079  31.599   2.601  10.043  0.0839  0.4802 -0.2268
 1064W        W44080   8.769   7.841  22.605 -0.4097  0.2930  0.2497
 1065W        W44081  10.722  18.107  25.629 -0.0429  0.1204  0.0197
 1066W        W44082  23.492  11.425   8.094  0.2659  0.3188  0.3024
 1067W        W44083  33.917   0.744   7.149  0.1200 -0.1850 -0.2770
 1068W        W44084  14.391  15.924  26.143  0.2768  0.1227  0.0522
 1069W        W44085   6.689   2.453   9.439  0.1518  0.1905  0.0975
 1070W        W44086  24.471  10.700  27.421 -0.0874 -0.0834  0.0069
 1071W        W44087   1.222  14.183  27.509 -0.0890  0.1165  0.2220
 1072W        W44088  16.037  10.822   3.207 -0.1101  0.0480  0.2753
 1073W        W44089  19.165   6.725   7.740 -0.0372 -0.0401 -0.3819
 1074W        W44090  11.645  11.415   7.856  0.0207  0.0047 -0.2010
 1075W        W44091  30.918  21.946   0.383  0.3001  0.0151  0.1733
 1076W        W44092   7.386   3.163   3.250  0.0307 -0.0077 -0.0658
 1077W        W44093   5.932  18.015  28.062  0.3428 -0.1461  0.1683
 1078W        W44094  31.725  16.624  10.590 -0.2503 -0.1139  0.1465
 1079W        W44095   4.979  29.731  15.031  0.0893 -0.1512 -0.4297
 1080W        W44096  30.698   9.263   7.439 -0.1708  0.0067  0.1875
 1081W        W44097  15.474  18.406  21.791 -0.1055 -0.1925 -0.1054
 1082W        W44098  24.293  27.121   4.029  0.1570 -0.1866  0.2257
 1083W        W44099   1.203  15.953   9.914  0.0412  0.0212  0.0194
 1084W        W44100  28.105   6.076   6.277  0.1559 -0.0775  0.2861
 1085W        W44101   7.321  31.164  24.691  0.0463 -0.0008  0.0082
 1086W        W44102  30.854  13.645   1.349  0.1665  0.0545  0.0120
 1087W        W44103  18.920   6.575   2.227 -0.0527 -0.0720 -0.0498
 1088W        W44104   7.278   7.312   6.506 -0.1638 -0.0919 -0.1110
 1089W        W44105   8.376  21.461   3.380  0.0721 -0.3229  0.1834
 1090W        W44106  29.275  14.750   5.477  0.3182  0.0610  0.0460
 1091W        W44107  11.795   7.963   7.060  0.1399 -0.0979 -0.3180
 1092W        W44108  29.039   2.442   1.917 -0.1850  0.2411 -0.1969
 1093W        W44109  23.304   5.007   0.337  0.1006  0.2669  0.1463
 1094W        W44110  13.765  11.487  18.707 -0.0284 -0.2192  0.3274
 1095W        W44111  12.160  26.096   8.158 -0.0330 -0.1443 -0.2582
 1096W        W44112  18.359   0.892   3.565  0.0022  0.2205  0.2005
 1097W        W44113  22.173  21.267   3.063 -0.0465 -0.1402 -0.0777
 1098W        W44114  27.037   8.142   8.628 -0.2768  0.3104  0.0438
 1099W        W44115  23.116  15.453  23.139  0.2522  0.0820 -0.2039
 1100W        W44116   3.160   0.643  23.510 -0.3576 -0.0014 -0.2469
 1101W        W44117  13.998  26.657  28.075 -0.1360  0.1808 -0.2124
 1102W        W44118  22.512  17.433   2.924 -0.1040  0.3347  0.1463
 1103W        W44119   5.555   9.438  28.293 -0.3600 -0.1747  0.1938
 1104W        W44120   5.988  16.066   8.802 -0.0361  0.2491 -0.1696
 1105W        W44121   3.463  18.824   4.968  0.0669 -0.1025  0.1478
 1106W        W44122  14.335  32.322   3.343 -0.1824 -0.0931  0.0956
 1107W        W44123  23.004  21.465  17.911 -0.1832 -0.2211  0.0962
 1108W        W44124  31.944  12.863   7.518 -0.1036  0.2691  0.1121
 1109W        W44125  13.381  12.949   7.777 -0.0785 -0.0960  0.0540
 1110W        W44126   9.107  13.581   1.194 -0.1247  0.0773 -0.2236
 1111W        W44127   8.164   7.577   5.381  0.0803  0.4096 -0.1143
 1112W        W44128  10.984   7.665   8.786 -0.1472  0.2339 -0.1875
 1113W        W44129   7.760  26.598  28.351 -0.2083  0.2876  0.0704
 1114W        W44130  21.419   9.221   7.689  0.3459  0.0766 -0.1578
 1115W        W44131  16.883  11.350  13.733 -0.0102  0.1760  0.0652
 1116W        W44132  20.605  11.599   3.455  0.1848 -0.0791  0.3276
 1117W        W44133  29.253   7.231   3.722 -0.1451  0.2358 -0.1986
 1118W        W44134  12.800   2.042   7.874 -0.3171  0.0253 -0.3119
 1119W        W44135  17.896  28.207   8.996  0.0467  0.0074 -0.2091
 1120W        W44136  14.369  13.330  22.973 -0.1624  0.2756 -0.1979
 1121W        W44137   8.899  11.271   8.181  0.0293  0.2788  0.0244
 1122W        W44138  13.206   6.672  21.263  0.2708 -0.0296 -0.2295
 1123W        W44139  27.869   8.197   4.416  0.0660  0.0369  0.3301
 1124W        W44140   7.548  14.082  20.507 -0.1075 -0.0663 -0.0188
 1125W        W44141  29.920  18.054   8.422  0.0126  0.0961 -0.0480
 1126W        W44142  19.057  11.513   6.325  0.1086  0.1029  0.4435
 1127W        W44143  11.583  31.008  28.924 -0.0446 -0.0543  0.2339
 1128W        W44144   2.924  14.895  20.328 -0.2106  0.0900  0.0220
 1129W        W44145  19.361   7.027  28.136 -0.2236  0.0494 -0.1812
 1130W        W44146  16.251  21.416   1.952  0.0854  0.1711  0.0989
 1131W        W44147  18.528   0.773  28.490 -0.0399  0.0790 -0.0277
 1132W        W44148  14.797  27.719   9.980  0.0068 -0.0180  0.0896
 1133W        W44149  26.927  13.130  28.447 -0.0721  0.1041 -0.0206
 1134W        W44150  13.386  15.466  24.976  0.1201 -0.1542 -0.0228
 1135W        W44151  22.799  12.497   6.587  0.0093 -0.2465  0.1105
 1136W        W44152  24.568  14.502  15.865 -0.1378  0.2537  0.0073
 1137W        W44153  11.202   0.729  28.567  0.1268 -0.0552  0.0781
 1138W        W44154  25.770  22.936   9.005  0.0850 -0.1212 -0.0266
 1139W        W44155  19.376  30.596   6.075 -0.2652 -0.1110  0.1750
 1140W        W44156   6.945   7.653   6.319 -0.2212 -0.3209  0.2214
 1141W        W44157  16.557  18.763   2.747 -0.2173  0.2568  0.0346
 1142W        W44158  11.609   4.688   8.613 -0.0052  0.1184 -0.2897
 1143W        W44159  13.585   7.934   8.284 -0.0360  0.1964 -0.0304
 1144W        W44160  11.935   6.641  10.369  0.0173  0.3760  0.4331
 1145W        W44161  16.324   7.925   9.647 -0.1116  0.2170  0.1779
 1146W        W44162   7.908  14.074   3.488 -0.4534  0.1621  0.0209
 1147W        W44163  18.707  31.657   7.868  0.1181 -0.0121  0.2190
 1148W        W44164  17.548  26.569   2.721 -0.2382  0.1659  0.0409
 1149W        W44165  13.774   6.408   5.589  0.1973 -0.2602 -0.1993
 1150W        W44166  22.321  14.086   1.329  0.0638  0.0389  0.2509
 1151W        W44167  31.843  30.362  18.497  0.2209  0.3238 -0.0160
 1152W        W44168   5.778   2.523   9.692  0.1318 -0.0687 -0.0826
 1153W        W44169  11.526   3.041   9.486  0.0176 -0.1340  0.0498
 1154W        W44170   6.041   6.864   6.973  0.1086  0.1019  0.1263
 1155W        W44171  18.475   1.767   7.861  0.2570  0.0737  0.0735
 1156W        W44172  16.069  18.849   5.726 -0.1841 -0.0108 -0.0581
 1157W        W44173   9.891   6.829   0.161 -0.0596  0.0583  0.2144
 1158W        W44174  24.734  12.776  28.270  0.2457 -0.1583  0.0701
 1159W        W44175  18.505  18.784   1.983 -0.0725 -0.2688 -0.0162
 1160W        W44176  23.006   8.000   7.965  0.0897 -0.0254  0.2946
 1161W        W44177   5.898   6.554  23.732 -0.0373  0.3691  0.0985
 1162W        W44178  20.679  30.533   0.592  0.0970  0.1246  0.0447
 1163W        W44179   6.531  20.183   7.792 -0.1399 -0.1770  0.3134
 1164W        W44180   5.530   6.410  24.404 -0.1862 -0.2631 -0.0236
 1165W        W44181  22.159   0.363   2.549  0.1173  0.0240 -0.0226
 1166W        W44182  26.248  13.987   6.372  0.3747 -0.2055 -0.2870
 1167W        W44183  11.659  34.199   9.688 -0.1117 -0.2187 -0.1370
 1168W        W44184  23.591  27.775   6.911 -0.0077 -0.0206 -0.3258
 1169W        W44185  21.327  10.205   3.415  0.2335  0.1981 -0.1719
 1170W        W44186  17.710  21.267   0.464 -0.0524  0.0953  0.1596
 1171W        W44187  10.111  15.345   6.777  0.2882 -0.2565  0.1124
 1172W        W44188  12.243   6.584  23.518 -0.0788 -0.4682 -0.1229
 1173W        W44189   5.908   2.692  14.982  0.4409  0.0706  0.2279
 1174W        W44190  25.718  29.254   9.271 -0.1621 -0.0505  0.1695
 1175W        W44191  17.536   3.870  22.659 -0.2807  0.0223  0.0781
 1176W        W44192  17.727   4.766  22.689 -0.0984 -0.1922  0.0695
 1177W        W44193  17.575  14.437  27.353 -0.1148 -0.0153  0.0457
 1178W        W44194  11.818  15.839  21.487 -0.0107  0.1748  0.2153
 1179W        W44195  17.363  30.636  25.707 -0.0917 -0.2423 -0.0187
 1180W        W44196  10.346  28.186   0.197 -0.0177  0.0259 -0.2313
 1181W        W44197  28.143  11.838   8.836  0.1948  0.0548 -0.0461
 1182W        W44198  20.510  26.888  20.806  0.0498  0.3752 -0.1347
 1183W        W44199  26.963  30.198  29.009 -0.0580 -0.0581  0.1807
 1184W        W44200   0.975  32.417   2.513  0.0185  0.1375  0.1152
 1185W        W44201  25.940  14.596  24.242 -0.3077  0.0721 -0.0788
 1186W        W44202   1.413  33.620  26.676 -0.2660 -0.0818 -0.0876
 1187W        W44203  20.701  19.406   0.012 -0.0704  0.4557 -0.0136
 1188W        W44204  15.179  19.283   1.176 -0.1188 -0.0095 -0.2279
 1189W        W44205  32.145  32.498  22.489  0.1187 -0.0203  0.1651
 1190W        W44206  10.359   2.927   6.024 -0.1590  0.1039  0.1987
 1191W        W44207  16.106  15.838   1.215  0.0082  0.0899 -0.1502
 1192W        W44208  16.644  12.787   6.480  0.1173  0.1123 -0.4739
 1193W        W44209  17.715   5.824   1.100 -0.2958  0.2600 -0.0820
 1194W        W44210  11.580   0.292   2.287 -0.2304  0.1017 -0.1166
 1195W        W44211  22.801  34.237  11.130  0.0066  0.4571 -0.1325
 1196W        W44212  15.616   5.875   4.817 -0.1326 -0.0821 -0.2572
 1197W        W44213  16.620  15.691   1.836  0.1059 -0.3271  0.1534
 1198W        W44214   5.880  13.842   2.649  0.1319 -0.0889  0.2182
 1199W        W44215  11.649  11.441  28.468  0.0797  0.2174 -0.1101
 1200W        W44216  24.422  22.501   2.479  0.0065  0.4854 -0.1485
 1201W        W44217  18.235   8.548   3.922 -0.1990 -0.1839  0.1218
 1202W        W44218  24.057  15.098   5.505  0.0542  0.4067 -0.0777
 1203W        W44219  15.643   7.140   9.498  0.0581 -0.4123 -0.1139
 1204W        W44220  12.452   3.162   9.793 -0.0818  0.2079 -0.1501
 1205W        W44221   0.839   8.422   5.770  0.2349  0.0280  0.2647
 1206W        W44222  18.378  24.162   5.988 -0.1796 -0.2227 -0.1333
 1207W        W44223  24.478  11.439   7.833  0.2320 -0.5689 -0.1737
 1208W        W44224  32.219  26.685  23.685 -0.1839 -0.2939 -0.5244
 1209W        W44225   5.182  30.030  27.712  0.2710  0.0082 -0.0879
 1210W        W44226   6.601  15.855   2.895  0.0427  0.0810  0.1414
 1211W        W44227  16.008   0.648   2.275  0.0675  0.4429 -0.0630
 1212W        W44228  29.605  17.275   1.944 -0.0120  0.0202  0.2428
 1213W        W44229  32.861  19.498  29.042 -0.0550  0.0635  0.1316
 1214W        W44230   0.656   3.707   6.731 -0.0447 -0.0921 -0.2307
 1215W        W44231  17.738   5.627  26.568 -0.1638 -0.2510 -0.1660
 1216W        W44232  14.006  30.318   5.578  0.1875 -0.0194 -0.1181
 1217W        W44233  22.793  16.016  20.320 -0.2253 -0.0872 -0.2164
 1218W        W44234   2.095  21.149  22.604  0.2617 -0.0212  0.0033
 1219W        W44235   7.231  24.302  16.563  0.0982 -0.2599  0.3093
 1220W        W44236  31.900  27.860  23.141 -0.1594 -0.4163  0.3094
 1221W        W44237  16.451  24.509  29.126 -0.1573  0.2645 -0.1835
 1222W        W44238  10.717  17.480   2.951  0.2297  0.0839 -0.0191
 1223W        W44239  22.979  11.486  24.142  0.1091  0.1478 -0.0346
 1224W        W44240  16.491  18.549   5.052 -0.5597  0.0366 -0.2191
 1225W        W44241  29.692  22.928   3.711 -0.0886 -0.1303  0.2724
 1226W        W44242  10.683  12.925   1.596 -0.2182 -0.0245 -0.1366
 1227W        W44243  28.315  15.144  10.154 -0.0165 -0.1174  0.1592
 1228W        W44244  15.716  26.367   3.185 -0.3234 -0.3590 -0.0852
 1229W        W44245  16.110  11.237   2.921  0.0306  0.1466 -0.1712
 1230W        W44246  19.885  11.678  20.278  0.2729  0.0465 -0.1430
 1231W        W44247   0.075   9.860   7.245 -0.0164 -0.0768 -0.1223
 1232W        W44248  16.790  23.185   5.069  0.0376  0.1084  0.5957
 1233W        W44249  16.259  32.018   9.128 -0.0884 -0.0732  0.1597
 1234W        W44250   6.561  32.168   6.575 -0.1484 -0.0085 -0.0708
 1235W        W44251  19.857   8.740  28.050  0.1413  0.1633  0.2540
 1236W        W44252  18.252   2.277  27.793 -0.2505  0.3477 -0.3761
 1237W        W44253  12.047  14.286  24.904  0.6654  0.1998 -0.0719
 1238W        W44254  22.704  14.409   7.933 -0.1329  0.0032 -0.3730
 1239W        W44255  18.706  30.241   6.232  0.3352 -0.2433  0.1809
 1240W        W44256  20.768  18.937  23.669 -0.2686  0.2220  0.0709
 1241W        W44257   2.919  22.772  20.533  0.0398 -0.0711  0.0158
 1242W        W44258  12.645  15.881   5.523  0.3233 -0.0608  0.0662
 1243W        W44259  26.464  34.589   5.530  0.1430  0.1057  0.1515
 1244W        W44260  25.950  27.706  26.184 -0.1331 -0.2080 -0.0922
 1245W        W44261  11.745  18.713  18.305  0.1506  0.1340 -0.2624
 1246W        W44262  31.208  23.042   7.461 -0.1129 -0.0419  0.2750
 1247W        W44263  33.004  18.430  26.481  0.0948 -0.1129 -0.2373
 1248W        W44264  30.041   4.236  15.239  0.3162 -0.0316  0.0479
 1249W        W44265  31.005  23.743   5.512  0.3332 -0.1227  0.2583
 1250W        W44266  24.733  22.156   6.893  0.1343  0.1609 -0.1852
 1251W        W44267  16.639  18.189   0.583 -0.2401 -0.0231  0.3645
 1252W        W44268   7.232  22.778  28.648  0.0545  0.2463 -0.2042
 1253W        W44269  22.814   5.104   2.990  0.1177  0.1723  0.0643
 1254W        W44270  22.102  20.397   8.578  0.4242 -0.1354  0.0329
 1255W        W44271  11.348   5.936   8.795  0.1094 -0.2433 -0.2709
 1256W        W44272  19.757   8.030  25.599 -0.3495  0.1543 -0.0595
 1257W        W44273   8.667   7.300   7.194  0.1219  0.0590 -0.3902
 1258W        W44274  15.141  15.788  24.373 -0.0116 -0.0966  0.1551
 1259W        W44275  22.025  13.641  26.310 -0.3258  0.2148 -0.0420
 1260W        W44276  18.955   9.981   3.546  0.2048  0.0834  0.1362
 1261W        W44277  15.205  17.075  28.935  0.0781 -0.3228 -0.1961
 1262W        W44278  15.796  12.892  28.336  0.0362  0.1833 -0.2246
 1263W        W44279  13.535   8.719   3.353 -0.1484  0.4879 -0.3337
 1264W        W44280  14.550   8.633  24.331 -0.2899  0.0809  0.0824
 1265W        W44281   8.383   8.321   4.958 -0.3370  0.0432  0.0900
 1266W        W44282  28.130   4.355   7.371  0.0023 -0.2733  0.0020
 1267W        W44283  26.235  33.905  21.132 -0.2183  0.3323  0.0215
 1268W        W44284  13.371  13.596  26.360 -0.1839  0.0173 -0.2614
 1269W        W44285  17.314  17.801  17.985 -0.0437  0.2678  0.1613
 1270W        W44286  13.414   8.829   2.233  0.1249  0.2305  0.1874
 1271W        W44287  22.021  17.410  15.542 -0.1498 -0.0139 -0.2623
 1272W        W44288  21.486  23.385   6.806 -0.0374 -0.0156 -0.0884
 1273W        W44289  12.223   7.856  18.972  0.0840  0.2415 -0.0652
 1274W        W44290   9.617  19.951  14.996 -0.0774 -0.2375 -0.2064
 1275W        W44291  33.843   3.423  26.545 -0.3339  0.0507 -0.0535
 1276W        W44292  26.634  13.319   9.824 -0.1208 -0.2451  0.1770
 1277W        W44293   9.841  16.521   0.290  0.0010 -0.0206  0.1880
 1278W        W44294  10.490  11.071   4.713 -0.0893  0.2123  0.0649
 1279W        W44295   7.480  18.726   4.969  0.1085  0.2001 -0.5195
 1280W        W44296  17.071   8.314   8.843  0.3298 -0.4459 -0.0464
 1281W        W44297  20.547  19.139   8.555  0.0198 -0.3038 -0.0170
 1282W        W44298  17.350  12.176   6.522 -0.2278 -0.0158  0.0026
 1283W        W44299  28.936  17.039   5.138 -0.3346  0.3371 -0.3194
 1284W        W44300  25.425  15.191   2.675  0.4197  0.1650 -0.0029
 1285W        W44301  22.477  17.372   9.464  0.0799  0.1070  0.0133
 1286W        W44302   0.849  19.017  26.586  0.1943 -0.1259 -0.0093
 1287W        W44303  22.160   6.832   5.611 -0.0896  0.1179 -0.0279
 1288W        W44304  15.787  12.166  17.526 -0.1021 -0.0597  0.2545
 1289W        W44305  10.715  31.043   6.378 -0.1807 -0.1173 -0.0767
 1290W        W44306  24.242  13.118   4.877 -0.3027  0.3291  0.0116
 1291W        W44307  25.569   5.907  27.250  0.0345  0.0348 -0.0416
 1292W        W44308  12.166  19.057  15.031 -0.0876 -0.0551 -0.1420
 1293W        W44309  26.468   5.127   9.877 -0.3139 -0.0944  0.0031
 1294W        W44310  11.364   6.897   2.366  0.1492  0.0264 -0.0475
 1295W        W44311  18.524   7.645   5.799 -0.0230 -0.2717 -0.0385
 1296W        W44312   3.959  21.145  18.683 -0.0209  0.0388 -0.3153
 1297W        W44313   4.152  22.967  14.038  0.1575 -0.0906 -0.1037
 1298W        W44314   4.584   0.066   2.069  0.0009 -0.2378  0.2198
 1299W        W44315  13.680  12.116   3.959  0.1290  0.1033 -0.0032
 1300W        W44316  11.547   1.785   8.908  0.0281  0.0840 -0.1164
 1301W        W44317   1.175   2.269   5.879  0.2703  0.0376 -0.1440
 1302W        W44318  15.485  33.790  16.600  0.2639 -0.1184  0.0837
 1303W        W44319   8.250  29.519   5.663 -0.1424  0.0062  0.3120
 1304W        W44320  17.140  13.047   3.595 -0.2251  0.0086  0.1954
 1305W        W44321   6.134   0.706  25.744 -0.0712  0.2495 -0.0304
 1306W        W44322  12.073  15.626   0.916 -0.2273 -0.0853 -0.1742
 1307W        W44323  20.484  11.594   1.530 -0.3270 -0.4163  0.0264
 1308W        W44324  14.474  34.206  27.719  0.0366  0.2152 -0.1076
 1309W        W44325  12.388  24.426   8.674 -0.5103 -0.0195 -0.3678
 1310W        W44326  11.170  21.859   9.244 -0.0748  0.1111 -0.0742
 1311W        W44327  26.385   8.953  24.441 -0.0187 -0.2010 -0.0343
 1312W        W44328  18.922   5.628   4.645 -0.1787  0.1173  0.0847
 1313W        W44329  19.890  12.909  24.511  0.1119  0.1828 -0.1277
 1314W        W44330  34.647  17.021   5.097 -0.1513 -0.0855  0.0801
 1315W        W44331  17.061   4.416   9.194  0.4361 -0.1304  0.1754
 1316W        W44332  20.860  17.160   8.875 -0.0245  0.1339 -0.0441
 1317W        W44333   1.708  29.494   3.666 -0.3018 -0.2973  0.1149
 1318W        W44334  27.989  10.217  25.186  0.0043 -0.2426  0.4694
 1319W        W44335  20.541   7.536   7.865 -0.0152 -0.1459 -0.0712
 1320W        W44336  30.485  22.640   6.112  0.3967  0.1717  0.2769
 1321W        W44337  30.567  16.723   4.402  0.3026  0.1483  0.1680
 1322W        W44338  25.116  14.679   0.683  0.2209  0.2340  0.2633
 1323W        W44339  20.519   7.391   6.838 -0.1361  0.3286  0.1341
 1324W        W44340   4.718  25.592   8.900 -0.1826  0.0979 -0.1214
 1325W        W44341  31.706   8.840   0.548 -0.1521  0.0204 -0.2164
 1326W        W44342   0.621  33.267  22.653  0.0346  0.0802 -0.3171
 1327W        W44343  22.900  13.337   4.238  0.1027 -0.2555  0.0952
 1328W        W44344  13.830  21.737   1.543 -0.1730  0.0770  0.0457
 1329W        W44345  14.810  12.880   1.496  0.0827  0.0372  0.0635
 1330W        W44346  25.249  16.075   5.233 -0.0787 -0.4094 -0.1546
 1331W        W44347  28.394   6.629   2.774  0.0041  0.3937  0.0468
 1332W        W44348  13.883  29.761  24.595 -0.2331  0.0004  0.0280
 1333W        W44349  31.212  18.796   2.151  0.3348  0.2306  0.0814
 1334W        W44350  18.634   5.155  29.105  0.1665 -0.1024  0.0543
 1335W        W44351   9.380  32.818  17.430 -0.1554  0.0132 -0.0483
 1336W        W44352   8.362  27.273   8.826  0.3482  0.0014  0.1594
 1337W        W44353  22.946  28.827   8.517 -0.0129  0.0504  0.0655
 1338W        W44354  10.993   8.800  20.667  0.1031  0.0033  0.4080
 1339W        W44355  18.345  11.303   4.680 -0.2195 -0.0093 -0.1441
 1340W        W44356  34.362  17.616  28.861 -0.0528 -0.0008 -0.1514
 1341W        W44357  21.850   2.290  22.252  0.0500  0.0799  0.0411
 1342W        W44358  24.122  20.862  25.026  0.0985  0.0742 -0.2880
 1343W        W44359  28.944  26.892  18.774 -0.1784  0.1124  0.0609
 1344W        W44360  14.990  18.790   1.787 -0.1527  0.1754 -0.0566
 1345W        W44361  20.995  22.113   7.864  0.1625  0.1195 -0.3014
 1346W        W44362  21.366  23.711  29.239 -0.2322 -0.0830  0.0503
 1347W        W44363  24.903  13.001   1.498  0.3522 -0.3496  0.0444
 1348W        W44364  14.459  12.773   5.089 -0.0341 -0.1159 -0.1122
 1349W        W44365  34.556  21.616   1.331  0.1845 -0.2236  0.2895
 1350W        W44366  16.474  16.032   2.207  0.2925  0.1659 -0.2346
 1351W        W44367   3.474  11.722   8.484 -0.0001 -0.0416  0.0332
 1352W        W44368  10.049  15.257  24.470 -0.0954  0.2295  0.1452
 1353W        W44369  13.993  14.496   6.054 -0.0885  0.1176  0.0155
 1354W        W44370  22.826  26.830   4.678 -0.0680 -0.0691  0.1431
 1355W        W44371  24.558   4.749   5.238 -0.1027  0.1621  0.1994
 1356W        W44372  32.174   4.142  26.024 -0.3291  0.1926  0.0780
 1357W        W44373  10.326  24.209   4.931  0.0462  0.1378 -0.0188
 1358W        W44374  16.657  10.406  26.054 -0.3357  0.0899 -0.1380
 1359W        W44375  12.332  16.284  29.181 -0.3029  0.1468 -0.1371
 1360W        W44376  22.049   7.170  16.552  0.2293 -0.1038 -0.0150
 1361W        W44377  33.358  16.577  25.134  0.0579  0.2002  0.0433
 1362W        W44378  25.407  21.528   6.562  0.0287  0.3088 -0.2109
 1363W        W44379  24.566   6.167   9.622  0.3006  0.2558  0.3212
 1364W        W44380  16.662  17.470  20.653 -0.1016 -0.0742  0.2952
 1365W        W44381  16.744   9.189  25.880  0.1245  0.1169 -0.0921
 1366W        W44382   1.929  25.350   5.915 -0.0623  0.0679  0.3702
 1367W        W44383  17.630  10.467  27.248  0.2561  0.0103 -0.1404
 1368W        W44384   7.323  15.819   4.092  0.0653  0.0746  0.3685
 1369W        W44385   0.640  11.739   8.678 -0.0232 -0.0001  0.0638
 1370W        W44386   2.324  16.314   7.349 -0.1997  0.0823 -0.0754
 1371W        W44387  33.214  16.841  23.254 -0.0612  0.2636  0.1184
 1372W        W44388  29.635  13.365   0.158 -0.1623  0.0308 -0.2165
 1373W        W44389  20.679  20.041   2.398  0.3388 -0.3660 -0.0487
 1374W        W44390   3.874   7.041   0.549  0.3711  0.0686  0.1251
 1375W        W44391  16.168  13.300   4.189 -0.0103  0.1256  0.4471
 1376W        W44392  13.454  31.391  23.797  0.1610  0.1696  0.2923
 1377W        W44393   7.881  22.732   7.921 -0.3621  0.0583  0.2077
 1378W        W44394  15.325  25.575   1.763  0.1360  0.1704  0.1134
 1379W        W44395  22.582  32.859  26.614 -0.1138  0.2638 -0.2568
 1380W        W44396  24.453  30.030  17.652  0.1192  0.1120  0.0479
 1381W        W44397  22.636  10.094   2.616 -0.0097  0.0830 -0.1272
 1382W        W44398  17.484  29.278   7.804  0.0064  0.0108  0.0870
 1383W        W44399   8.923   5.843   4.430 -0.1695  0.1626  0.0387
 1384W        W44400  18.426  22.656  22.660  0.0316  0.2057  0.0139
 1385W        W44401  20.647  20.949  25.320  0.2061 -0.3263 -0.3016
 1386W        W44402  10.975  27.432   8.228 -0.2215  0.1208 -0.0292
 1387W        W44403  19.263  16.356  27.035 -0.0649 -0.3073  0.1250
 1388W        W44404  11.738   4.527  21.255  0.1584 -0.1699  0.2383
 1389W        W44405   1.322  26.570   5.624  0.0595 -0.0408  0.1527
 1390W        W44406  20.055  28.342   2.777  0.0020 -0.0423 -0.1195
 1391W        W44407   6.347   8.759   4.479 -0.1753  0.0920 -0.0836
 1392W        W44408  25.262  22.550  23.731  0.0775  0.1137  0.0107
 1393W        W44409  17.318   3.525   2.486  0.0718 -0.0390 -0.0347
 1394W        W44410  16.426   2.699   4.171 -0.0496  0.3681  0.1817
 1395W        W44411  13.878   0.143  26.867 -0.3418 -0.0999  0.0925
 1396W        W44412  10.387  17.856  23.856 -0.3148  0.1698  0.1575
 1397W        W44413   7.948  20.150   8.807 -0.0782 -0.1683  0.0834
 1398W        W44414   1.150  19.234  22.915 -0.3036 -0.3220  0.1072
 1399W        W44415   6.750   9.169   6.897 -0.0156 -0.0336 -0.0073
 1400W        W44416  26.172  33.992   4.247  0.0632 -0.0190  0.3872
 1401W        W44417  25.074  25.176   9.731  0.3532 -0.2573  0.4532
 1402W        W44418  16.805  31.514   2.930 -0.3319 -0.1517  0.0438
 1403W        W44419  10.144   3.857   0.327 -0.2821 -0.0789  0.0891
 1404W        W44420  12.514  14.881   1.300 -0.0627  0.4088  0.0971
 1405W        W44421  14.489   8.889   3.524  0.0743  0.0182  0.1531
 1406W        W44422  21.779   1.511   7.928 -0.0486 -0.1347 -0.0344
 1407W        W44423  17.148  11.929  14.486 -0.3243  0.0604 -0.2377
 1408W        W44424   3.448  21.780  26.579 -0.0799  0.0555  0.2266
 1409W        W44425  26.015  21.396   5.774  0.2061  0.0390 -0.3187
 1410W        W44426  14.526  20.173  27.147  0.1816 -0.0310 -0.1474
 1411W        W44427   6.114  11.257  27.656  0.0420 -0.0849 -0.0532
 1412W        W44428   0.574   9.566   3.427 -0.2337  0.3169 -0.0938
 1413W        W44429  24.183  12.716  22.211 -0.2965 -0.0297 -0.2599
 1414W        W44430  23.959  20.395   8.347  0.0205  0.0083 -0.4080
 1415W        W44431   4.140  33.050  24.610 -0.2438  0.1120 -0.0311
 1416W        W44432  25.826  11.864  21.115  0.0429  0.0317 -0.2766
 1417W        W44433  10.587  21.196   6.352 -0.3741 -0.0259  0.0754
 1418W        W44434  12.171  19.735  23.976  0.0594 -0.1964  0.0651
 1419W        W44435  29.187  11.044   6.240  0.1288  0.0880  0.0600
 1420W        W44436  19.412   7.569  25.492 -0.0534 -0.2143  0.0407
 1421W        W44437  11.283   3.217   9.965  0.1797 -0.0994 -0.1981
 1422W        W44438  14.763  14.797  23.501 -0.0930 -0.1409 -0.2288
 1423W        W44439   9.641  20.441   0.541 -0.0399  0.1529 -0.1203
 1424W        W44440   3.003  32.622  21.216  0.0075  0.0500 -0.0967
 1425W        W44441  27.153  10.442  10.027 -0.0014 -0.1035 -0.2903
 1426W        W44442  19.551  10.802   2.803  0.2497 -0.2224 -0.4462
 1427W        W44443  26.977  20.687  14.844 -0.1983 -0.1670  0.0452
 1428W        W44444  24.966  31.639   5.643 -0.2323  0.0211 -0.2992
 1429W        W44445  27.478  13.143   5.554  0.0939 -0.2493 -0.1520
 1430W        W44446   8.891  10.660   5.410 -0.2510  0.0595 -0.2028
 1431W        W44447  16.449   1.055  21.208  0.0651 -0.0366 -0.3842
 1432W        W44448  19.706  19.644   6.078  0.2962  0.1728  0.1081
 1433W        W44449  22.648  12.948   3.916  0.3233 -0.0425 -0.3712
 1434W        W44450  19.392  21.763   4.436  0.1170  0.1037  0.2142
 1435W        W44451  18.605   8.085   4.024  0.0969  0.1721 -0.1770
 1436W        W44452  31.013  17.224  23.237  0.1533 -0.5534  0.0045
 1437W        W44453  18.756   4.051   2.289 -0.1593  0.0061 -0.0568
 1438W        W44454  17.841  16.547  28.816  0.0536  0.0148 -0.3121
 1439W        W44455  14.721  18.392  12.547  0.1973 -0.3527  0.0541
 1440W        W44456   5.954  12.419   2.775 -0.2262  0.3443  0.1763
 1441W        W44457  19.053  12.203   4.124 -0.2648  0.1572 -0.2066
 1442W        W44458  12.432   9.154   5.151  0.0895 -0.0279  0.1818
 1443W        W44459   7.204  12.594   2.519 -0.2606 -0.0468 -0.1652
 1444W        W44460   3.633   6.616  14.940 -0.0827 -0.1773  0.2069
 1445W        W44461  25.926  11.192  15.353  0.1207 -0.1182  0.1051
 1446W        W44462  19.492  32.515   7.938  0.3216  0.0938 -0.0965
 1447W        W44463  16.853  15.878  19.935  0.1140 -0.0306  0.1648
 1448W        W44464  29.546  28.026   8.742  0.2123 -0.0431 -0.5495
 1449W        W44465  10.278  14.869  22.000  0.1485  0.0911  0.0330
 1450W        W44466  27.124   7.782   9.542 -0.1416  0.0757  0.2822
 1451W        W44467  24.468  34.476  10.956 -0.1911 -0.1347 -0.1327
 1452W        W44468   2.159   2.095  23.038 -0.0866  0.1954 -0.1449
 1453W        W44469  31.318  22.772   5.781 -0.1812 -0.3249  0.0263
 1454W        W44470  17.551  14.655  14.557 -0.1975  0.1339 -0.1271
 1455W        W44471  25.898  14.771  23.766 -0.0375  0.3606 -0.1854
 1456W        W44472  18.107  10.133   0.568 -0.2841 -0.0808  0.1451
 1457W        W44473  24.476  32.685  27.027 -0.0975 -0.0011 -0.1983
 1458W        W44474  24.409  33.353  26.401  0.0464 -0.1455  0.2637
 1459W        W44475  32.888  33.219  15.650  0.1527 -0.0440  0.0986
 1460W        W44476  28.324  14.691  22.597  0.0953  0.1619 -0.0970
 1461W        W44477  11.375  20.262   7.563  0.0903  0.2594 -0.0842
 1462W        W44478  24.463  12.248   1.473 -0.5880 -0.0500 -0.0914
 1463W        W44479  28.342  13.941   9.357 -0.0974  0.2396  0.1785
 1464W        W44480  27.207  19.069   3.723  0.2866 -0.0464 -0.0890
 1465W        W44481  21.063   8.683   5.713  0.2309  0.0738 -0.0766
 1466W        W44482   4.136   3.641  17.227  0.4656  0.0037 -0.0029
 1467W        W44483  13.467   2.001   9.626  0.0790 -0.1971 -0.0701
 1468W        W44484  15.433  25.205  24.899  0.1686  0.2542  0.0446
 1469W        W44485  17.238  15.091   8.049 -0.1816  0.1495 -0.1631
 1470W        W44486   3.215  17.817  18.506 -0.1931 -0.2514  0.3532
 1471W        W44487  28.325  10.363   5.487  0.1723 -0.3456  0.0601
 1472W        W44488   2.434  27.648   2.615 -0.2346 -0.0958  0.4099
 1473W        W44489  10.114   4.816   1.114  0.0631 -0.2524  0.0329
 1474W        W44490  17.739  15.337  24.623 -0.0949  0.2891 -0.1735
 1475W        W44491  14.293   5.661   5.137  0.0000 -0.3266 -0.2481
 1476W        W44492  26.203  30.071  27.695 -0.2004 -0.0009  0.1683
 1477W        W44493  19.720  15.557  21.565 -0.4821 -0.3289 -0.0640
 1478W        W44494   7.480  12.250  24.134 -0.1431  0.0462  0.0251
 1479W        W44495  14.260  20.875   2.350 -0.4394  0.0590 -0.0202
 1480W        W44496  25.567  14.300   1.579  0.0412 -0.2549  0.1708
 1481W        W44497  15.997   6.919   7.709  0.1735  0.1949  0.1395
 1482W        W44498  21.501  18.414   8.037 -0.3816 -0.0041 -0.0893
 1483W        W44499  19.970  14.574  28.616 -0.0583  0.0541 -0.1309
 1484W        W44500   8.000  31.550   5.112  0.0667  0.1163 -0.2195
 1485W        W44501  21.039  15.044  19.551  0.1283 -0.1286 -0.2034
 1486W        W44502  32.403  26.522  21.127  0.0672 -0.2192  0.0492
 1487W        W44503  33.007  11.396   9.424  0.2085 -0.0343  0.1003
 1488W        W44504  25.374  32.218   7.197  0.3610  0.0793 -0.3322
 1489W        W44505  14.714   7.430  27.531  0.0858  0.1065 -0.1027
 1490W        W44506  31.860   8.694  22.312  0.2424 -0.0425  0.3158
 1491W        W44507   8.142  14.210   1.013  0.4105  0.1009 -0.1439
 1492W        W44508  18.471  34.289   4.905  0.1089  0.4200  0.2119
 1493W        W44509  14.771  20.678  27.188  0.0946  0.2249  0.0468
 1494W        W44510  16.455  19.154   5.678 -0.2372 -0.0850  0.1539
 1495W        W44511  17.805  19.019  21.613  0.3545  0.1305 -0.1756
 1496W        W44512  19.971   7.245   0.067  0.0537  0.1464 -0.1981
 1497W        W44513  12.765   2.307   1.150  0.2186 -0.0799  0.3567
 1498W        W44514  15.820  11.921  14.599 -0.1866  0.0743  0.1766
 1499W        W44515  15.250  19.298  22.600  0.1190  0.0169 -0.2313
 1500W        W44516  25.265   6.147   5.378 -0.0334  0.1057 -0.1287
 1501W        W44517  21.692  12.389  20.697 -0.2143 -0.1712  0.1273
 1502W        W44518  11.137   8.459   3.944 -0.0396 -0.0250  0.1434
 1503W        W44519  25.808   0.047   6.168  0.0973  0.1828 -0.0019
 1504W        W44520  23.257   1.252   1.680 -0.0952 -0.0531  0.0458
 1505W        W44521  13.989  23.270   9.306  0.1668  0.0003  0.0016
 1506W        W44522   9.325  13.879   8.509  0.0982 -0.0415  0.0093
 1507W        W44523  26.283  33.129   1.620  0.1475  0.0719 -0.1709
 1508W        W44524  10.178   3.383   8.644  0.1565  0.0548  0.0966
 1509W        W44525  21.313  26.714   9.139 -0.1268 -0.1268  0.0121
 1510W        W44526  10.513   0.499   7.929  0.3982  0.1188 -0.3121
 1511W        W44527  14.766   6.094  28.502  0.2685 -0.0121  0.0580
 1512W        W44528   7.577   2.769  28.368  0.0260  0.2276 -0.0894
 1513W        W44529  28.842   4.568   4.151 -0.0748  0.1936 -0.1000
 1514W        W44530  16.520   6.286  10.438  0.0486 -0.0395  0.0572
 1515W        W44531  13.095  15.604  20.801 -0.2119  0.1342 -0.1122
 1516W        W44532  24.047   0.155   9.475 -0.0252  0.0437 -0.4489
 1517W        W44533  23.258   6.242   2.392 -0.1858 -0.1150  0.2406
 1518W        W44534  28.001   3.823  26.573  0.2877 -0.0050 -0.0974
 1519W        W44535  13.440  10.947  26.015 -0.2040 -0.2350 -0.0491
 1520W        W44536  14.995  27.062   3.483  0.2243 -0.1257 -0.0319
 1521W        W44537   7.563   4.618   1.880  0.0886 -0.0564 -0.2307
 1522W        W44538   0.438  32.162   9.376  0.2718 -0.0143  0.1393
 1523W        W44539   3.900   9.131   6.731  0.1253  0.3399 -0.2360
 1524W        W44540  29.585  11.756   0.216 -0.0932 -0.1698  0.0501
 1525W        W44541  10.026  22.121   3.799  0.0818  0.0715  0.1018
 1526W        W44542  18.264   5.148  14.616  0.2958  0.2319  0.2371
 1527W        W44543  22.039  17.738   5.576  0.0644 -0.0911 -0.1796
 1528W        W44544  17.939  17.730  20.287  0.0796 -0.0876  0.1905
 1529W        W44545  26.588   7.646   1.010  0.1967  0.0563  0.0588
 1530W        W44546   8.358   0.323  22.027 -0.3493  0.1633  0.1009
 1531W        W44547  19.263   2.246   7.817  0.0663  0.1708 -0.0248
 1532W        W44548  28.766   2.752   2.719  0.1567 -0.0065  0.0005
 1533W        W44549  12.201   0.379  28.853 -0.0266 -0.0348 -0.1567
 1534W        W44550   6.282   9.489   9.220 -0.2509  0.5014  0.4987
 1535W        W44551  18.369  12.269   3.402  0.0864 -0.0451  0.1271
 1536W        W44552  28.493  25.425   9.153 -0.2530  0.1731 -0.0486
 1537W        W44553  24.264  14.413   5.294  0.0212  0.0880  0.1143
 1538W        W44554  18.449  20.812   7.741  0.1275  0.1252  0.0328
 1539W        W44555  26.127  34.130  25.218 -0.2355 -0.1315  0.0417
 1540W        W44556  15.932  16.340  26.146 -0.0808  0.1111  0.0019
 1541W        W44557  15.169   6.929  25.534  0.0496  0.1837 -0.3577
 1542W        W44558  19.023  16.705  26.698  0.0225 -0.1600  0.0844
 1543W        W44559   7.912   9.062   9.465 -0.0415  0.1681  0.1461
 1544W        W44560  12.562  34.247   0.439  0.0039 -0.0616 -0.0900
 1545W        W44561  19.169  15.198  26.376 -0.1104 -0.0705 -0.4033
 1546W        W44562  25.323   2.304  27.570  0.0862  0.0107 -0.2157
 1547W        W44563  26.008   5.384   3.044 -0.0404  0.2862  0.0792
 1548W        W44564  18.913  11.066  19.623  0.3690  0.2715  0.1906
 1549W        W44565  10.785  17.133  28.085 -0.1014 -0.3299 -0.2457
 1550W        W44566  30.490  15.071  27.895  0.0242 -0.0771 -0.1061
 1551W        W44567  20.363  19.276   0.408 -0.1630  0.1514  0.1633
 1552W        W44568  24.435  13.373   4.451 -0.0413  0.2412  0.0540
 1553W        W44569  11.876  33.959  28.570 -0.0642 -0.1395  0.0958
 1554W        W44570   5.799  14.855   9.107  0.1013 -0.1686  0.3835
 1555W        W44571  20.439  15.911   1.461  0.0662 -0.3126  0.2024
 1556W        W44572  26.079   7.054  29.320  0.3191  0.0850  0.2036
 1557W        W44573  16.930  16.332   2.154  0.0857 -0.5008 -0.0801
 1558W        W44574   3.710   9.810   8.396  0.0829 -0.1914 -0.0291
 1559W        W44575  18.284   6.491  14.992  0.1581 -0.0332  0.0162
 1560W        W44576  10.705  12.077   3.368  0.1179 -0.4125 -0.0039
 1561W        W44577  14.999   5.562  25.240  0.2521 -0.1214  0.3319
 1562W        W44578  13.696   4.848   7.009 -0.0693 -0.1228  0.1821
 1563W        W44579   6.790   5.566  24.145 -0.1008  0.0093 -0.4114
 1564W        W44580  32.288  19.952   9.043  0.0227 -0.2678  0.2476
 1565W        W44581  19.047  19.365   0.550  0.0444 -0.0923 -0.0004
 1566W        W44582  26.811   7.629   3.135  0.2623 -0.1662  0.1942
 1567W        W44583  15.142  28.673  16.656 -0.4417 -0.0181 -0.1443
 1568W        W44584  13.441  11.224   4.320 -0.1041 -0.0280  0.2266
 1569W        W44585  14.828  14.773  24.708  0.1273 -0.0270 -0.0603
 1570W        W44586  21.827   5.627  26.805 -0.1254 -0.0354  0.0481
 1571W        W44587  31.982  12.744  26.778 -0.3374  0.0343  0.0881
 1572W        W44588  12.112   5.682   5.509  0.3561  0.1139  0.1971
 1573W        W44589  26.030   1.309   1.896 -0.0078  0.3245  0.0653
 1574W        W44590  17.820   5.266   2.525 -0.0410  0.1635 -0.1612
 1575W        W44591  17.501  10.581   6.218  0.0882  0.1905 -0.1073
 1576W        W44592  13.752   9.453   1.218  0.0543  0.0136  0.0784
 1577W        W44593   6.615  24.907  25.035 -0.3495 -0.1014 -0.2803
 1578W        W44594  13.974   8.929  25.737 -0.0659 -0.3625  0.1227
 1579W        W44595  21.864  15.082   2.311  0.2825  0.1827  0.2669
 1580W        W44596  12.980  13.171   3.181 -0.2254  0.0781  0.0082
 1581W        W44597  17.570  13.878   7.346 -0.2315 -0.0731 -0.2844
 1582W        W44598  16.118  16.272  26.755  0.0570 -0.1984 -0.3345
 1583W        W44599  11.725  14.085   0.860  0.2296  0.0064  0.0909
 1584W        W44600  23.598  21.326   2.809  0.1229 -0.0048  0.0231
 1585W        W44601  15.624   0.577   3.180 -0.0325  0.1485  0.6288
 1586W        W44602   1.145   6.694   9.430 -0.2668  0.0614  0.2906
 1587W        W44603  13.221  11.855   3.682 -0.1200  0.2718 -0.0790
 1588W        W44604  16.359  18.960  19.555 -0.1720 -0.4010  0.0214
 1589W        W44605  23.608  12.592  14.378  0.0732 -0.1593  0.1194
 1590W        W44606  13.115  22.262   7.170  0.0401 -0.0909  0.0609
 1591W        W44607  12.039   2.674   8.697  0.0833  0.1185  0.3564
 1592W        W44608  30.842  19.513   0.081  0.0964  0.2338 -0.3994
 1593W        W44609   9.881  30.253  18.632  0.1249  0.0585 -0.0163
 1594W        W44610  20.266   2.875  14.862 -0.1713  0.1503 -0.0832
 1595W        W44611  15.265  24.701  24.797  0.0062  0.2714 -0.1445
 1596W        W44612  13.330  27.152   6.013  0.1783 -0.0166 -0.2006
 1597W        W44613   3.618  33.863  21.797 -0.1053  0.0592 -0.1994
 1598W        W44614  23.871  26.501  21.875 -0.1007  0.0925  0.0748
 1599W        W44615  19.150  13.999  24.263 -0.2057  0.0299 -0.2854
 1600W        W44616  23.563  15.499   5.187  0.2204  0.1206 -0.1256
 1601W        W44617  17.441  24.281  19.319 -0.4584 -0.3096 -0.2856
 1602W        W44618  29.064  20.268  18.273  0.0206 -0.0269 -0.3605
 1603W        W44619   3.165  10.793   7.902  0.2221  0.3324 -0.3377
 1604W        W44620  20.375  28.364   0.260  0.2070 -0.0033  0.0368
 1605W        W44621  29.730   8.143   5.258  0.1386 -0.0255  0.2338
 1606W        W44622  15.328   6.338   7.654  0.1683  0.0128 -0.2843
 1607W        W44623  19.453  23.133   3.846 -0.1057  0.1475  0.1701
 1608W        W44624   8.125  16.393   4.072  0.2344 -0.0499 -0.3513
 1609W        W44625  18.457  26.432   2.841 -0.4696 -0.1001  0.0343
 1610W        W44626   9.004   3.910   0.211 -0.1535 -0.1505  0.2795
 1611W        W44627   4.783  22.506  21.659  0.1678 -0.2481 -0.1719
 1612W        W44628  12.938  27.686   6.931 -0.1316  0.2486 -0.2468
 1613W        W44629  33.446  22.002   9.699 -0.0837 -0.3242  0.0125
 1614W        W44630  21.756   2.031   8.168  0.1953 -0.0324  0.1335
 1615W        W44631  26.912  24.163   4.410  0.0949 -0.1905 -0.1456
 1616W        W44632   6.527   9.715  20.795  0.1642  0.0522 -0.4857
 1617W        W44633   8.880  15.073   2.453 -0.1782  0.0969  0.2464
 1618W        W44634  10.802  27.551   5.782  0.0704  0.0267  0.0954
 1619W        W44635  20.428  13.952   3.272 -0.1349  0.0631 -0.0885
 1620W        W44636  17.718   2.013   3.010 -0.0313  0.0958  0.0675
 1621W        W44637  14.292  15.555   3.097  0.1807 -0.0418  0.2134
 1622W        W44638  29.378  25.173  23.636  0.2222 -0.1960 -0.1390
 1623W        W44639  16.839  13.282   8.199 -0.2178  0.0422 -0.0809
 1624W        W44640  10.030   3.914   0.787 -0.3563 -0.0905  0.1206
 1625W        W44641  27.014   6.370   4.326 -0.2033  0.2905  0.2344
 1626W        W44642  28.619   5.687   6.695  0.0357 -0.2054 -0.1981
 1627W        W44643   3.846  24.555   9.273  0.0849 -0.1735 -0.2975
 1628W        W44644  10.474  16.963  27.221 -0.0660 -0.0510 -0.0537
 1629W        W44645  20.257  20.874  21.920 -0.0128 -0.1344 -0.1795
 1630W        W44646  24.750  13.178   8.457 -0.1627  0.2617 -0.4008
 1631W        W44647   8.651   0.545  14.770 -0.0178  0.1429 -0.1883
 1632W        W44648  10.119  32.253   9.835  0.1783 -0.1109  0.1520
 1633W        W44649   6.921   9.032   8.555 -0.0200  0.2946 -0.1903
 1634W        W44650   5.252   3.607   6.545 -0.1380 -0.0494  0.3061
 1635W        W44651  21.896  31.192  29.275 -0.0037 -0.0823 -0.0202
 1636W        W44652   9.953  12.196   8.729  0.0114  0.0987  0.1490
 1637W        W44653   7.650   2.401   3.767 -0.1531  0.2741  0.0368
 1638W        W44654  16.748  16.135   2.660  0.3579  0.3588 -0.0781
 1639W        W44655  12.513   2.747   7.442 -0.4253 -0.0338 -0.0079
 1640W        W44656  29.184  13.766   5.722  0.0436  0.1846  0.3672
 1641W        W44657  12.938   1.728   8.300  0.0524 -0.0855 -0.0758
 1642W        W44658  29.463  12.418   4.283 -0.1224 -0.0227  0.0146
 1643W        W44659  24.890  34.552  10.056 -0.0679 -0.0559  0.0046
 1644W        W44660   8.114  19.582   1.888  0.2282  0.1731  0.0228
 1645W        W44661   8.410  11.409   6.445  0.0182  0.0496  0.2374
 1646W        W44662  18.156  14.226  25.195 -0.1335  0.2957 -0.0569
 1647W        W44663  24.896  25.482   6.860  0.2360  0.0934  0.1060
 1648W        W44664  13.856   9.591   4.376  0.0509  0.0731 -0.2803
 1649W        W44665  18.143   9.138  17.043 -0.1502 -0.2093  0.1416
 1650W        W44666  19.508   5.680   7.715  0.2076 -0.2064  0.0288
 1651W        W44667  27.908  27.604  26.829  0.2490  0.1629 -0.2505
 1652W        W44668  29.124  33.528  26.358 -0.1241 -0.1022  0.1215
 1653W        W44669  15.041  19.751  19.817  0.1089 -0.1067  0.2310
 1654W        W44670  23.394  18.304  21.284  0.1501  0.2580 -0.0146
 1655W        W44671  34.319  16.456   7.808 -0.2432 -0.1489 -0.1795
 1656W        W44672  20.909  18.100   2.556  0.0138 -0.0895 -0.2210
 1657W        W44673  14.762  17.426   3.719  0.0477 -0.2403  0.1548
 1658W        W44674  19.440   2.833  22.782 -0.0448 -0.0857  0.2290
 1659W        W44675  22.420  12.157   6.907  0.0796  0.1571  0.5375
 1660W        W44676  16.716  23.746   7.555 -0.2958 -0.2312 -0.0945
 1661W        W44677  15.429   8.665  21.741  0.1246  0.2425 -0.0059
 1662W        W44678  23.049  14.668   1.163  0.1244 -0.1157 -0.0839
 1663W        W44679   7.432  14.125  22.097 -0.0912  0.0421  0.0216
 1664W        W44680   5.520  12.613   3.662 -0.0960 -0.1066 -0.1626
 1665W        W44681  26.933   9.387   1.491 -0.2516  0.0018  0.1286
 1666W        W44682  26.354  16.189   9.453 -0.1382  0.2488  0.0561
 1667W        W44683  14.284  18.974  23.307 -0.1043 -0.0502 -0.0407
 1668W        W44684  12.678  23.613  16.410  0.0436  0.2416 -0.0102
 1669W        W44685  28.712  16.262  20.715 -0.2299 -0.2032 -0.0140
 1670W        W44686  19.481  11.798   8.476  0.0766 -0.1335  0.2005
 1671W        W44687  14.895   5.106   8.964 -0.1274 -0.0984 -0.2140
 1672W        W44688  12.634  14.547  28.681 -0.0307 -0.0112 -0.1461
 1673W        W44689  19.141  15.521   5.999  0.1448  0.0988  0.0718
 1674W        W44690  26.447  23.137   5.012  0.1725  0.1743 -0.3116
 1675W        W44691  12.350  28.229   4.835  0.0186 -0.2039  0.0291
 1676W        W44692  16.449   9.222  28.267  0.3425 -0.0016 -0.2327
 1677W        W44693  19.694   7.554   8.045 -0.1462 -0.0119 -0.1740
 1678W        W44694   1.016   8.274   6.332 -0.0424 -0.0357  0.2790
 1679W        W44695  23.478  19.403  18.026 -0.1974  0.2184  0.1561
 1680W        W44696   5.292  12.696  13.287 -0.1382  0.1308  0.2120
 1681W        W44697  21.102  23.057   6.732  0.2046  0.3397 -0.1158
 1682W        W44698  28.787  13.973  20.464  0.1390  0.0863  0.0823
 1683W        W44699  31.911  25.450   6.005  0.1238 -0.2798 -0.2460
 1684W        W44700  15.497  19.190   2.992 -0.3467  0.1204  0.3492
 1685W        W44701   1.533  22.600  28.719 -0.3033 -0.0142 -0.1955
 1686W        W44702  15.925   0.165  20.257 -0.4396  0.0282  0.0862
 1687W        W44703  16.949  12.556  19.807  0.2395 -0.0123  0.1582
 1688W        W44704   7.148  17.370   6.463 -0.0102 -0.3272 -0.0166
 1689W        W44705  19.687  18.132   7.591  0.0098 -0.2259  0.3008
 1690W        W44706  19.066   7.709   5.301  0.1476 -0.2079  0.0151
 1691W        W44707   8.415  18.486   3.600  0.0249 -0.1224 -0.2895
 1692W        W44708  29.206   4.330  10.346  0.0565 -0.1087 -0.0849
 1693W        W44709  15.988   6.855   7.064 -0.1636  0.2098 -0.0150
 1694W        W44710  27.500  22.791   7.322 -0.1126 -0.1009 -0.0889
 1695W        W44711  23.198  25.779  10.490 -0.0367  0.1904  0.0217
 1696W        W44712  15.455  19.753   5.621 -0.4105 -0.2457 -0.0038
 1697W        W44713   5.644  16.570  14.342 -0.0826 -0.3367  0.0931
 1698W        W44714   2.685  14.681   4.022  0.0132  0.1365 -0.2785
 1699W        W44715  16.517  21.851   0.357  0.3134  0.2355 -0.1354
 1700W        W44716   9.098  12.257   1.393 -0.1046 -0.0460  0.1114
 1701W        W44717  29.553  24.638  22.898  0.3043  0.3206  0.1099
 1702W        W44718  11.954   4.797   9.182  0.3006  0.5741  0.0897
 1703W        W44719  14.520  17.172  19.868  0.1846  0.0458  0.2157
 1704W        W44720  23.601   2.453  28.346  0.1861  0.0809 -0.2194
 1705W        W44721  28.620  21.707   5.792 -0.3355 -0.1299 -0.2444
 1706W        W44722   3.468   5.665   4.354  0.1627 -0.4048  0.0451
 1707W        W44723  26.866   0.928  11.076  0.0961  0.2990  0.1985
 1708W        W44724   2.074   1.875  26.347 -0.0173 -0.2881 -0.1029
 1709W        W44725  13.832  10.315   0.049 -0.2321  0.0425  0.0655
 1710W        W44726  31.748  25.199  21.813  0.2540 -0.2114 -0.1450
 1711W        W44727   7.260  26.775   5.810 -0.2328  0.0587 -0.0238
 1712W        W44728  13.384  13.222  28.102 -0.1404 -0.1862  0.1084
 1713W        W44729  12.233  32.653   3.239  0.1601 -0.0061 -0.2208
 1714W        W44730  12.766  18.703   2.683  0.0948  0.4411  0.0022
 1715W        W44731  10.763  11.974   8.461 -0.1555 -0.2133  0.3500
 1716W        W44732  18.871   3.329   6.349 -0.2569 -0.3532 -0.0863
 1717W        W44733  26.020   3.320   4.473 -0.1627 -0.3173 -0.1133
 1718W        W44734  11.593  12.532  15.085  0.0649  0.2461 -0.1797
 1719W        W44735  17.213  26.908   8.615  0.1682  0.1578  0.1264
 1720W        W44736  19.082  25.541   8.388 -0.1122 -0.2693 -0.0710
 1721W        W44737  18.183  10.225   5.150  0.1445  0.0614 -0.0661
 1722W        W44738  33.421   6.618   5.065 -0.1226  0.3585 -0.1289
 1723W        W44739  16.966  16.822   4.226 -0.0689  0.0963 -0.3124
 1724W        W44740  31.994  13.111   6.292 -0.1693 -0.2683  0.2878
 1725W        W44741  16.806  17.691   8.066  0.0289 -0.2694 -0.4090
 1726W        W44742  28.124   9.637   5.768 -0.4387  0.0516  0.0185
 1727W        W44743  18.879  20.408   4.109  0.0511  0.0569  0.0770
 1728W        W44744  11.291  21.852  16.773  0.1688 -0.1372 -0.2027
 1729W        W44745   0.331  17.050   4.611 -0.0251  0.3202 -0.1313
 1730W        W44746  19.079  14.681   6.946 -0.0614 -0.0086  0.1023
 1731W        W44747  22.407  20.247  29.201 -0.3975 -0.0626 -0.2903
 1732W        W44748  11.412  11.953  26.184 -0.1744 -0.0880  0.5174
 1733W        W44749  24.441  14.811   0.144 -0.0895  0.0957  0.3018
 1734W        W44750  17.921  20.781  29.078  0.0919  0.1004 -0.0293
 1735W        W44751  11.527  31.302   3.975  0.2514  0.0236 -0.0888
 1736W        W44752  21.303   7.097  27.211  0.0031  0.3886  0.0842
 1737W        W44753  18.894   1.707  21.413  0.4945  0.0747 -0.1815
 1738W        W44754  16.928  32.600   5.831  0.1230  0.0236 -0.0848
 1739W        W44755  11.576  24.228   7.770 -0.1328 -0.1665  0.1866
 1740W        W44756  26.862   9.829  29.108 -0.0988 -0.3112 -0.3590
 1741W        W44757  20.527   6.676   8.390  0.2295  0.0232  0.0300
 1742W        W44758  17.846  27.697   4.686  0.0975 -0.2022 -0.4716
 1743W        W44759  16.330  12.737   6.050  0.1422 -0.0699  0.0620
 1744W        W44760   8.704  10.007   4.639 -0.3348  0.1235 -0.2015
 1745W        W44761  14.601   5.387   4.852 -0.3277  0.0671  0.3216
 1746W        W44762  16.995   4.987   9.240  0.1258  0.2384 -0.0007
 1747W        W44763  24.859  20.906   3.084  0.1744 -0.1289 -0.0673
 1748W        W44764  31.001  12.979   3.226  0.4178 -0.1292 -0.0656
 1749W        W44765  34.054  17.053  16.956 -0.0872  0.0567 -0.3100
 1750W        W44766   5.156  22.089   2.883  0.1777  0.0822 -0.3389
 1751W        W44767  26.245  11.810   2.149  0.0433 -0.0094  0.0954
 1752W        W44768   7.661  25.395   7.607  0.2026 -0.0112  0.2956
 1753W        W44769  15.885   7.507  10.192  0.1311  0.2442 -0.0891
 1754W        W44770  24.064  21.096   1.962  0.1011 -0.0026  0.3131
 1755W        W44771  30.220   7.624   6.986 -0.2557  0.1127  0.3708
 1756W        W44772  15.632  13.366  26.461  0.6243 -0.2895  0.2249
 1757W        W44773  15.291   0.254   1.936 -0.0747  0.0834 -0.1596
 1758W        W44774   3.223   3.111   2.668  0.0933 -0.1503 -0.3475
 1759W        W44775  10.189   1.818  26.324  0.3698 -0.1397 -0.1440
 1760W        W44776   2.245  14.064   7.702 -0.1296  0.1667  0.0477
 1761W        W44777  25.760  18.802   4.295  0.2428  0.0980  0.0841
 1762W        W44778  28.990   1.653  22.258 -0.1826 -0.1139  0.2218
 1763W        W44779  28.086  14.043  22.962  0.0333  0.2452  0.0925
 1764W        W44780  13.736  30.967  10.048 -0.1056  0.3204  0.4555
 1765W        W44781  30.049   9.904   0.689 -0.0370 -0.0803 -0.0766
 1766W        W44782  32.074   4.921  23.785 -0.0976  0.2099  0.0923
 1767W        W44783  10.150   6.637  27.780  0.0134 -0.0104  0.0130
 1768W        W44784   1.909  17.453  19.388 -0.2771  0.1312 -0.0739
 1769W        W44785  25.030   1.623   2.697  0.0274  0.2601  0.3866
 1770W        W44786  16.417  13.362  25.586 -0.0846  0.0605 -0.0624
 1771W        W44787  20.787   0.637   3.000  0.0303 -0.0138 -0.0454
 1772W        W44788  24.242  21.813   4.986  0.0763 -0.0622  0.0772
 1773W        W44789  20.089  21.123   0.206 -0.1208 -0.1507  0.1357
 1774W        W44790  24.569   7.222   7.457 -0.2926 -0.0075 -0.1259
 1775W        W44791  12.080  11.204   0.556  0.0084  0.1429  0.0772
 1776W        W44792  25.463  34.403   2.036  0.2358 -0.0508 -0.1194
 1777W        W44793  30.258  12.815   8.159 -0.0221  0.0076  0.1795
 1778W        W44794   5.332  32.014   8.203  0.1327 -0.1239  0.0970
 1779W        W44795  16.561  11.567   3.948 -0.0227 -0.2679 -0.0417
 1780W        W44796  23.360  15.205   0.263  0.0936 -0.2564 -0.2928
 1781W        W44797  16.602  18.478   7.908 -0.5391 -0.0445 -0.0134
 1782W        W44798  11.900  26.459   9.012 -0.0209 -0.2078  0.1387
 1783W        W44799  17.270  16.400  27.216  0.0255 -0.1765 -0.2963
 1784W        W44800  15.934  20.169  27.121  0.1944  0.5278 -0.2249
 1785W        W44801  25.738  29.139   1.956 -0.0750  0.0664  0.0512
 1786W        W44802   3.863  21.884   6.973 -0.1701  0.1122 -0.1962
 1787W        W44803  24.017  30.319   3.420  0.3443 -0.0674  0.0044
 1788W        W44804  26.793   2.630   6.792  0.2874 -0.2498  0.1934
 1789W        W44805  16.976  17.294  23.704  0.0185 -0.2711 -0.2911
 1790W        W44806  25.478  22.048   8.449  0.4174 -0.0389 -0.3380
 1791W        W44807   9.293  23.409   6.128 -0.3217  0.0579 -0.1322
 1792W        W44808  20.966  16.650   7.822  0.0185  0.0883 -0.2857
 1793W        W44809  27.296  17.308  19.246  0.0879  0.1481 -0.0939
 1794W        W44810   3.391  24.337   9.522 -0.0915  0.1429  0.0781
 1795W        W44811  26.420  19.480   8.214  0.0637 -0.0784  0.0612
 1796W        W44812  18.930  21.790  16.756 -0.2090  0.0678  0.1876
 1797W        W44813  13.359  30.703   9.369 -0.1278 -0.0387  0.3864
 1798W        W44814  23.830  24.011  27.801  0.3788  0.1679  0.1482
 1799W        W44815  31.529  17.453   6.986  0.0675 -0.2950  0.0374
 1800W        W44816  15.047   2.658  27.880  0.0869  0.1072 -0.1619
 1801W        W44817  34.629  16.029   9.127  0.1497 -0.2448  0.2409
 1802W        W44818  14.836  20.974  19.582 -0.2889  0.0479  0.1986
 1803W        W44819  25.401  10.241   4.087  0.3668 -0.2659 -0.2179
 1804W        W44820  23.247  15.680   2.378 -0.0808 -0.1462 -0.1613
 1805W        W44821  20.135  12.171   5.231 -0.1252  0.2181  0.3103
 1806W        W44822  25.538  23.723   5.683  0.2801 -0.0443 -0.1359
 1807W        W44823  11.359   0.583   0.347  0.1298 -0.2357 -0.1515
 1808W        W44824  15.336  23.935   5.671  0.0305 -0.1037 -0.0913
 1809W        W44825  19.507  34.134   9.706 -0.0461 -0.0484 -0.1204
 1810W        W44826   8.334  31.201  23.603 -0.4160 -0.0891 -0.1856
 1811W        W44827  26.827   4.614  28.375 -0.4093 -0.0844  0.2004
 1812W        W44828   0.446  18.744   5.304  0.4412  0.0827  0.0508
 1813W        W44829  13.057  14.733   3.777 -0.2450 -0.0152  0.4281
 1814W        W44830  34.725  34.404   4.410  0.0978 -0.2527  0.2869
 1815W        W44831  10.235  24.236   3.045  0.2496  0.1726  0.1957
 1816W        W44832  14.956   9.341   7.371  0.2246  0.0193 -0.0952
 1817W        W44833  25.087  14.622   7.199  0.1701 -0.1600  0.0107
 1818W        W44834  18.936  11.358   3.259 -0.1899 -0.2850 -0.1614
 1819W        W44835  11.235  16.244   0.421  0.0018  0.4995 -0.2309
 1820W        W44836  23.630  23.246  25.234  0.0924  0.1975  0.0648
 1821W        W44837  19.471   8.770   1.900 -0.2674 -0.2227 -0.1007
 1822W        W44838  24.530  15.776  18.733  0.1360 -0.1721 -0.0681
 1823W        W44839  18.598  27.983   2.451  0.0112 -0.2957  0.2069
 1824W        W44840  17.258   2.734   1.132 -0.1859 -0.0121 -0.1560
 1825W        W44841   7.784   6.495   6.971  0.0578  0.0000  0.2421
 1826W        W44842  22.173   8.862   2.059 -0.0338 -0.5035 -0.0485
 1827W        W44843  13.821  22.387  26.975  0.2111 -0.0595  0.0036
 1828W        W44844  16.130  17.646  22.041  0.1282 -0.1398  0.0744
 1829W        W44845  12.556  22.489   9.293 -0.1515 -0.1928 -0.1532
 1830W        W44846  24.782   8.640  23.367 -0.1513  0.0337  0.1487
 1831W        W44847  12.457  20.378   5.136 -0.1680  0.1250  0.1180
 1832W        W44848  27.886  26.444   7.518 -0.2810  0.0638  0.0424
 1833W        W44849   6.857  15.552   3.988  0.1089 -0.1141  0.0003
 1834W        W44850   0.976  15.687  25.262  0.0477 -0.3462 -0.1040
 1835W        W44851  21.523   0.808   2.022 -0.0916  0.2878  0.0171
 1836W        W44852  28.034  22.997   8.062  0.0513 -0.0467  0.0765
 1837W        W44853  12.961  20.232  26.497  0.0323  0.0529  0.0047
 1838W        W44854  13.139   9.100   4.407  0.1381 -0.2123  0.2167
 1839W        W44855  13.076  15.827   7.126  0.1864 -0.1494  0.0633
 1840W        W44856  23.784  15.277  16.199  0.2895  0.0984 -0.0464
 1841W        W44857  26.609  19.852  22.468 -0.2772  0.0331  0.0393
 1842W        W44858  20.990   7.801  14.929  0.1163  0.0594 -0.1288
 1843W        W44859  29.016   8.891   0.450  0.3864 -0.0155  0.1563
 1844W        W44860  26.951  12.377   0.367 -0.0357 -0.1986 -0.0848
 1845W        W44861  17.133  32.284  19.125 -0.0673  0.0958  0.0308
 1846W        W44862   4.759   3.204  29.036 -0.0126 -0.1048  0.0886
 1847W        W44863  13.215  14.918  25.841 -0.1377 -0.1384 -0.4612
 1848W        W44864  16.869   5.484   7.415  0.1313  0.1583  0.0690
 1849W        W44865  13.142  14.242  25.265  0.3351 -0.0436 -0.2014
 1850W        W44866  13.156   2.008   0.512 -0.3079 -0.0149 -0.2724
 1851W        W44867  13.734  19.580  22.637  0.1560  0.0120  0.0288
 1852W        W44868  22.886   6.281   8.419 -0.1474 -0.0396 -0.1941
 1853W        W44869  24.749   9.021  10.965 -0.2194  0.0435 -0.1051
 1854W        W44870  17.557  29.592   6.394 -0.1627  0.1092  0.1837
 1855W        W44871  13.393  29.321   4.387  0.1034 -0.1661  0.0333
 1856W        W44872   7.072  13.723  19.797  0.0295  0.1360  0.2623
 1857W        W44873  10.154  16.748   8.122 -0.0121  0.3157  0.0494
 1858W        W44874   0.269   0.355  28.844  0.1696  0.0271  0.0637
 1859W        W44875  17.513   8.048   4.741  0.0470  0.1455 -0.1469
 1860W        W44876  30.320  18.441  23.150 -0.1880 -0.0696 -0.0010
 1861W        W44877   1.054   1.904  22.579 -0.1092 -0.2478  0.0598
 1862W        W44878   2.597  17.874  27.633  0.0880  0.1201  0.0861
 1863W        W44879  10.741  31.964   6.917  0.1233  0.2155  0.0333
 1864W        W44880  23.111   5.864   9.859 -0.2649 -0.1129  0.0621
 1865W        W44881  25.080  12.167  26.666 -0.1760  0.2540 -0.1601
 1866W        W44882  15.128  17.105   1.388  0.0447 -0.3341 -0.0075
 1867W        W44883  18.422  17.716  22.016  0.2322  0.1090 -0.2044
 1868W        W44884  12.365  13.261  27.416 -0.1446  0.1157  0.0631
 1869W        W44885  24.453   2.393  26.116  0.0724  0.0108  0.1597
 1870W        W44886   7.558  31.471   9.295  0.2542  0.2447  0.2035
 1871W        W44887   4.945  26.500   0.238  0.1305  0.3469  0.1816
 1872W        W44888  14.690  33.659   9.780  0.0651  0.0126 -0.3388
 1873W        W44889  31.867   5.517  29.076 -0.0573  0.3973 -0.0041
 1874W        W44890   9.571  14.366   8.265 -0.3395 -0.2020  0.0279
 1875W        W44891  20.214  18.478  24.867  0.0496 -0.1305  0.0374
 1876W        W44892  12.077  14.056   1.394 -0.0374 -0.2779  0.0522
 1877W        W44893   6.628  10.792  28.666  0.0186 -0.0840  0.2180
 1878W        W44894  31.721   9.906  26.014  0.1884  0.1661  0.1098
 1879W        W44895  19.893  17.139  19.849  0.1468 -0.0124  0.1419
 1880W        W44896   5.788  19.819   7.044 -0.1300  0.1583  0.0475
 1881W        W44897  26.601   7.327   1.396  0.2441  0.1372 -0.2037
 1882W        W44898  17.084  25.942   7.472 -0.1651 -0.4226 -0.0959
 1883W        W44899  28.482  21.142  10.010 -0.0785 -0.1224 -0.1281
 1884W        W44900  20.184  18.151   7.489 -0.1576 -0.0922  0.0951
 1885W        W44901  32.618  34.721  29.164 -0.0850  0.5362 -0.1758
 1886W        W44902  19.696   8.226  26.178 -0.3040  0.0212 -0.1488
 1887W        W44903   9.840   8.141   7.359 -0.1123 -0.1284  0.1578
 1888W        W44904  29.406  23.133   2.220 -0.1846 -0.2038  0.2525
 1889W        W44905  18.881  17.041  24.347 -0.1848  0.0689 -0.2624
 1890W        W44906  33.157  11.198   6.214  0.0864 -0.2356  0.3816
 1891W        W44907   7.177  23.860  24.121  0.1939 -0.1529 -0.3518
 1892W        W44908  24.750  22.440   7.675 -0.1867 -0.0510  0.1976
 1893W        W44909  29.187  26.432  25.077  0.0295  0.0108  0.0809
 1894W        W44910  28.668   7.159  21.937 -0.0191  0.2916  0.3902
 1895W        W44911  14.717  12.107   7.595 -0.2584  0.2509  0.0878
 1896W        W44912  25.748  15.141   5.264  0.1470  0.0440  0.0111
 1897W        W44913   6.654  13.793  21.287 -0.0221  0.0664 -0.0637
 1898W        W44914  16.710  15.400  19.816 -0.0743  0.0416 -0.1273
 1899W        W44915  28.435   9.534  15.291 -0.0803  0.0580 -0.0616
 1900W        W44916  13.373  11.756  28.239  0.1518  0.0982 -0.1290
 1901W        W44917   9.545  17.470   5.525 -0.0654  0.0843  0.1290
 1902W        W44918   0.117   7.305  17.679  0.3446  0.0612  0.1274
 1903W        W44919  14.267  10.994  16.807  0.2622  0.0325  0.0500
 1904W        W44920  15.557  27.035   6.531 -0.1397  0.1210 -0.1242
 1905W        W44921  11.214   0.731   6.212  0.1014  0.0433  0.1127
 1906W        W44922  32.540  19.121  10.138  0.0131  0.0379  0.0316
 1907W        W44923   6.084   7.792   8.171  0.0278 -0.4749 -0.2646
 1908W        W44924   3.672   7.481  21.730  0.0753  0.3423 -0.2416
 1909W        W44925  22.321  13.232   1.828  0.4941 -0.0144 -0.0328
 1910W        W44926   4.565   5.751   0.688  0.1513  0.2848  0.1158
 1911W        W44927  11.047  16.590   5.597  0.0348 -0.0880  0.0267
 1912W        W44928  12.235  13.311  26.491  0.0946  0.3197  0.3669
 1913W        W44929  12.602  12.322  27.065  0.0315 -0.0362  0.4667
 1914W        W44930  16.229  17.479  21.513  0.0389 -0.2833 -0.0952
 1915W        W44931  28.386   8.826   6.654  0.0780  0.2487  0.0936
 1916W        W44932  24.865  29.353  23.428 -0.0173  0.1505 -0.0330
 1917W        W44933  21.216  15.499  20.292  0.1958 -0.1475 -0.2220
 1918W        W44934  19.769  17.091  23.833  0.0947  0.1165  0.5272
 1919W        W44935   4.820  22.824   1.769  0.2145  0.0315  0.0811
 1920W        W44936  23.733   8.229  15.101  0.1598 -0.3147 -0.0976
 1921W        W44937  33.213  26.123   8.615  0.2980 -0.4586 -0.1046
 1922W        W44938  19.754  13.398   7.402 -0.0550 -0.1029  0.0176
 1923W        W44939  18.052  14.441   5.190  0.4260 -0.1364 -0.1170
 1924W        W44940  34.373  10.979  27.607  0.0405 -0.1864 -0.0232
 1925W        W44941   2.524  14.713   4.599 -0.1775  0.2606  0.0771
 1926W        W44942  18.037  17.663   0.695  0.4322  0.2281  0.0555
 1927W        W44943  25.845  33.048   3.127  0.2660 -0.0723  0.2548
 1928W        W44944  14.838   0.847   2.460 -0.2389  0.1151  0.1954
 1929W        W44945  28.152   9.717  23.462 -0.0068 -0.1226  0.1406
 1930W        W44946  19.848   7.113   6.115  0.3617 -0.1657 -0.1425
 1931W        W44947   0.569   4.368  24.089  0.2225 -0.2817  0.2303
 1932W        W44948  18.115   0.552   9.547 -0.1014  0.2328  0.0452
 1933W        W44949   0.189   4.113  23.827 -0.2536 -0.0285  0.0539
 1934W        W44950  30.586  28.041  21.257  0.0781 -0.0371  0.0921
 1935W        W44951  29.978   3.032   6.526  0.0090 -0.0247  0.3484
 1936W        W44952   3.732   6.832  24.123 -0.2032  0.2477 -0.4824
 1937W        W44953  17.018  18.524   2.016  0.3262  0.0684  0.3209
 1938W        W44954   8.927   0.685   0.077 -0.3169 -0.0208 -0.1301
 1939W        W44955  14.752   9.898  27.317 -0.1624  0.2206 -0.3368
 1940W        W44956  30.919  28.279  28.755  0.0617  0.1772 -0.0229
 1941W        W44957  22.346  14.167   5.197  0.0993 -0.1447 -0.1431
 1942W        W44958  22.261  18.081  18.139 -0.0754 -0.0185  0.1334
 1943W        W44959  11.146   6.668   6.099  0.0759  0.0343 -0.1602
 1944W        W44960  10.384  16.690   4.884 -0.1515 -0.3424 -0.0737
 1945W        W44961  24.037  29.620   4.933 -0.0318 -0.2241  0.0997
 1946W        W44962  29.705  10.106   8.291 -0.2964 -0.0887 -0.0593
 1947W        W44963  25.079  20.019   6.845 -0.1030 -0.0558  0.1572
 1948W        W44964  12.986  15.885  23.695 -0.1214 -0.1748  0.3716
 1949W        W44965  30.125   6.380   4.158 -0.0717 -0.0633 -0.1485
 1950W        W44966  19.606  15.829  25.903  0.0184  0.1902  0.3035
 1951W        W44967  32.820   9.731   2.195  0.1509 -0.2865 -0.1432
 1952W        W44968  24.099  25.921   7.087  0.1494 -0.0313 -0.2079
 1953W        W44969   1.494   5.166  10.082 -0.1140 -0.1341 -0.0489
 1954W        W44970  21.787  33.943  10.934  0.0151  0.0472  0.1058
 1955W        W44971  13.814   5.933   9.787 -0.0240 -0.0256  0.1001
 1956W        W44972   7.730  18.608   1.013  0.0531 -0.0329  0.0810
 1957W        W44973  25.154   1.689   4.563  0.0122  0.0593  0.3009
 1958W        W44974  31.369  25.932   6.564  0.0986 -0.1764  0.1396
 1959W        W44975  16.621   5.688   8.978  0.1705  0.5477 -0.0304
 1960W        W44976   7.340  13.822  28.933  0.1387  0.0231  0.1048
 1961W        W44977  10.075  32.860   0.326  0.0364 -0.2466  0.0163
 1962W        W44978  21.329   8.167   6.754  0.0169  0.0827  0.1743
 1963W        W44979  15.991  14.038   2.388  0.0706  0.1183 -0.1824
 1964W        W44980   8.624  27.909   9.249 -0.1670  0.0621  0.1494
 1965W        W44981  30.794  13.546   7.812 -0.1647  0.2544 -0.0632
 1966W        W44982  24.246   1.699   1.485  0.2486 -0.1529 -0.2508
 1967W        W44983  28.287  16.099   4.720 -0.4152 -0.2774 -0.2082
 1968W        W44984   9.391   5.260   7.429 -0.1645  0.1940 -0.0858
 1969W        W44985  25.504  11.080   3.984  0.1279  0.0176 -0.3387
 1970W        W44986  28.175   4.674   8.869 -0.1151 -0.1509 -0.0591
 1971W        W44987  12.196  17.558  20.687 -0.1209 -0.1197  0.0841
 1972W        W44988   9.039  20.762   6.005  0.0840  0.2444  0.1265
 1973W        W44989  23.103  18.326   1.669 -0.1477  0.3392  0.2691
 1974W        W44990  20.041  10.697   3.597  0.0578 -0.0393 -0.0570
 1975W        W44991  15.429  29.315   3.908 -0.0284  0.0923 -0.1237
 1976W        W44992  20.429  22.265   4.514  0.1789 -0.1819  0.4541
 1977W        W44993  21.022  31.032   2.887 -0.0782 -0.3542 -0.0330
 1978W        W44994  34.410  34.373   9.653 -0.0445  0.2762  0.2071
 1979W        W44995  27.174  10.868   7.790 -0.1762 -0.0260 -0.0817
 1980W        W44996  27.406   0.740  24.643  0.1551 -0.1513  0.0820
 1981W        W44997   9.659   6.563   1.768 -0.0809  0.0055 -0.0972
 1982W        W44998  14.367  14.230   3.104 -0.2740 -0.0531  0.4976
 1983W        W44999  16.752  18.395   1.001  0.0626  0.0991  0.0824
 1984W        W45000   7.819  17.642   6.183 -0.0850  0.1462 -0.2049
 1985W        W45001   1.947  12.498   7.374 -0.0442 -0.0535  0.0688
 1986W        W45002  15.972  25.834  21.987  0.0620  0.2019 -0.1566
 1987W        W45003  18.706  18.555  25.539  0.1319 -0.1258 -0.2423
 1988W        W45004   2.522  10.430   5.637 -0.1572  0.1590 -0.1400
 1989W        W45005  27.560  30.273  11.136  0.4267 -0.1143 -0.0555
 1990W        W45006   5.247   3.021   3.670  0.1655  0.0784  0.1491
 1991W        W45007  21.533  15.983   2.541 -0.0541 -0.0200  0.0032
 1992W        W45008  18.995  10.521   9.204 -0.3469 -0.3522  0.1400
 1993W        W45009  13.197  11.251   7.917  0.0695 -0.0857  0.1750
 1994W        W45010   2.460  34.245  27.830  0.0803 -0.0736 -0.0010
 1995W        W45011  16.490  16.512  21.967 -0.2743 -0.0743  0.1397
 1996W        W45012  18.291   8.540   0.044 -0.0437 -0.3453 -0.0169
 1997W        W45013  27.247  17.889  25.583 -0.1557  0.2293 -0.1890
 1998W        W45014  31.413  22.374  28.611  0.0139  0.3609  0.1186
 1999W        W45015  12.690   6.938   3.717 -0.0654 -0.2016  0.0656
 2000W        W45016  26.624  24.054  10.752 -0.0852  0.0427  0.0678
 2001W        W45017  32.789  19.370   5.325 -0.0113  0.1112  0.2110
 2002W        W45018  21.181  12.790   4.625 -0.1776 -0.3270  0.1420
 2003W        W45019  27.799   9.340  26.833  0.1984 -0.0606 -0.2515
 2004W        W45020  26.462  21.431   9.917  0.2678  0.2438 -0.0292
 2005W        W45021  28.154   7.919   3.098 -0.0231 -0.1022  0.2184
 2006W        W45022  11.055   6.762  26.455 -0.2706 -0.0649  0.0439
 2007W        W45023  17.823  22.805   5.051  0.0940 -0.0976  0.1778
 2008W        W45024  28.027   6.806  24.504 -0.1317  0.0578 -0.3466
 2009W        W45025  15.841  19.656  26.998  0.1608 -0.0121  0.0613
 2010W        W45026  18.007  13.676  19.423  0.1584  0.0897  0.0076
 2011W        W45027  25.559  29.072   5.397 -0.1302 -0.1186  0.0892
 2012W        W45028  21.332  25.144   1.340  0.0606 -0.0449  0.1487
 2013W        W45029   6.187  33.179  24.061  0.1783 -0.0052  0.1571
 2014W        W45030   5.343  25.685   4.589 -0.0133  0.0575  0.0347
 2015W        W45031  15.914  10.256   3.152  0.0414 -0.0793 -0.0527
 2016W        W45032  14.140  12.854   4.217 -0.0320 -0.1095 -0.1808
 2017W        W45033  25.073  14.619   4.678 -0.1354 -0.1008  0.1343
 2018W        W45034  33.183  28.211   8.119 -0.2004  0.0636 -0.2122
 2019W        W45035  21.644  16.870   6.100 -0.1581 -0.0157  0.0791
 2020W        W45036   1.256  12.452   8.951  0.1748 -0.2321  0.2259
 2021W        W45037  26.409  12.273   7.075  0.1842  0.1539  0.3237
 2022W        W45038  12.335  14.066   4.097  0.0479 -0.0784 -0.0305
 2023W        W45039  11.524  31.619   2.043 -0.3996  0.0035 -0.1091
 2024W        W45040   4.037  12.117   8.827  0.4953 -0.1336  0.0081
 2025W        W45041  24.114   9.418   3.368 -0.0565 -0.0897 -0.0129
 2026W        W45042   7.673  11.921  25.177  0.0355  0.1844  0.1704
 2027W        W45043   5.387   6.136   8.772 -0.0197 -0.1580  0.1302
 2028W        W45044  19.560  17.558   6.899 -0.1346 -0.2992  0.2254
 2029W        W45045  14.560   3.334  20.564  0.2799  0.0915  0.0650
 2030W        W45046  31.064  14.896   4.807 -0.2343 -0.2619  0.0747
 2031W        W45047  25.156  14.125  27.924  0.1494  0.2264  0.1261
 2032W        W45048  19.293  27.630  17.841  0.0653  0.0376 -0.0875
 2033W        W45049  26.759   1.787   8.000  0.2398  0.1222 -0.2597
 2034W        W45050  14.563  10.812   7.133  0.0654 -0.3064 -0.3259
 2035W        W45051   9.584  18.945   8.274  0.0201  0.2866  0.0069
 2036W        W45052  19.169  29.873  28.995  0.2933 -0.0162  0.0226
 2037W        W45053   4.437  19.882  14.155  0.0775  0.1231 -0.0382
 2038W        W45054  32.117   6.355   1.931 -0.1671  0.0877 -0.0794
 2039W        W45055  21.660  13.327   3.094 -0.1917  0.5484  0.0730
 2040W        W45056  20.522   9.093   8.869  0.0329 -0.1072  0.1331
 2041W        W45057  28.635   3.121  11.324  0.1583  0.2524  0.1744
 2042W        W45058  31.861  17.929  28.567  0.3272  0.1747 -0.1717
 2043W        W45059  26.002  22.425   0.748 -0.0170 -0.2018 -0.0162
 2044W        W45060  25.955  26.156  11.482 -0.2994  0.2558  0.0636
 2045W        W45061   3.684  14.920   4.753 -0.3233 -0.0539 -0.1438
 2046W        W45062  13.727  27.192   2.001  0.0359 -0.1065  0.3735
 2047W        W45063  34.684  27.013  28.009  0.0440  0.1558  0.2985
 2048W        W45064  24.327   9.470  19.834 -0.1135  0.0209 -0.1387
 2049W        W45065  23.419  15.342   8.581 -0.1497  0.2645 -0.1166
 2050W        W45066  15.189  22.646  25.567  0.0214  0.0726  0.1288
 2051W        W45067  21.604  20.658   8.048  0.2077 -0.0027 -0.0988
 2052W        W45068  13.900  14.746  28.142  0.0405 -0.3278  0.0260
 2053W        W45069  18.399  31.303  10.232  0.2189 -0.0680 -0.1790
 2054W        W45070  20.081   8.446   8.118  0.0348  0.2599 -0.1177
 2055W        W45071  24.602   6.398   1.822 -0.0624 -0.2125  0.2162
 2056W        W45072  29.204  15.109  26.397 -0.1548 -0.1815 -0.2946
 2057W        W45073  19.242   7.598   4.471  0.1308  0.0222 -0.3729
 2058W        W45074  16.645  16.312  26.508  0.1485 -0.1363  0.2148
 2059W        W45075  17.558   3.662  19.084  0.2754 -0.2415 -0.0027
 2060W        W45076  10.257  31.282   2.955 -0.2289 -0.1377 -0.2926
 2061W        W45077   0.622  34.330   0.756  0.1195 -0.1742  0.1100
 2062W        W45078   2.322  14.224  27.420  0.1188 -0.2058 -0.0656
 2063W        W45079   0.949  17.320  26.911 -0.2386 -0.0397 -0.1317
 2064W        W45080  10.813  17.514   4.649  0.1895  0.0207  0.0927
 2065W        W45081  13.391  26.431   5.112 -0.3756 -0.1232  0.3759
 2066W        W45082  17.160  21.142   6.803  0.0163 -0.0210  0.1168
 2067W        W45083  17.957  22.055   1.848  0.0854  0.2215 -0.0549
 2068W        W45084  25.586  16.057  24.684  0.2030 -0.3604 -0.2830
 2069W        W45085   8.513  10.636   4.599 -0.0548 -0.0950  0.0625
 2070W        W45086  33.251  23.387  27.094 -0.2036  0.0592  0.2575
 2071W        W45087  21.118  27.752   2.998  0.0283  0.3850 -0.0497
 2072W        W45088  24.105   1.464  28.103  0.0861  0.0180  0.1126
 2073W        W45089   1.939   6.515   2.116 -0.0406 -0.0635 -0.0462
 2074W        W45090  22.994   6.857   4.872  0.3243  0.2226  0.2319
 2075W        W45091  14.308  27.454   2.867  0.0048  0.4004 -0.2115
 2076W        W45092  14.761  22.146   3.717 -0.2379  0.0592 -0.1320
 2077W        W45093  17.174  17.805   7.730  0.2888  0.0822 -0.1650
 2078W        W45094  15.601  27.203   2.851 -0.0873  0.1337 -0.2171
 2079W        W45095   7.226   1.466  26.932 -0.0890  0.0853 -0.0443
 2080W        W45096  21.708  14.081   8.504  0.0792 -0.2315  0.2120
 2081W        W45097  27.627   4.483   5.467  0.0886 -0.1473 -0.0669
 2082W        W45098  17.439  15.402  25.863  0.0096 -0.1008 -0.1885
 2083W        W45099  26.208   1.648   2.879  0.0655 -0.1014  0.2139
 2084W        W45100  24.748  20.910   5.449  0.0919  0.2513  0.1952
 2085W        W45101  10.753  16.108   7.911 -0.5515 -0.6022 -0.0539
 2086W        W45102  18.579   4.674   4.714  0.1230 -0.0703  0.1398
 2087W        W45103  22.829   8.066   5.337 -0.1251 -0.2125  0.0674
 2088W        W45104  25.131  33.415  22.393 -0.1831  0.3818 -0.1399
 2089W        W45105   8.953  16.523   5.983 -0.0419  0.0982  0.0977
 2090W        W45106  23.968  26.820  11.339 -0.0093 -0.1274  0.1556
 2091W        W45107   8.710   1.679   3.411 -0.3121 -0.0505  0.0134
 2092W        W45108  25.529  34.324  10.728 -0.2045  0.0755  0.0028
 2093W        W45109  15.533  23.344   6.422 -0.0215  0.1595 -0.0247
 2094W        W45110  21.026   1.189  14.417 -0.2956  0.1781  0.1421
 2095W        W45111  24.159   3.912  10.413 -0.0449 -0.0823  0.0447
 2096W        W45112  31.037  24.800   7.567 -0.2115 -0.1582 -0.1543
 2097W        W45113  19.601  18.122  26.870  0.1542 -0.0287  0.1745
 2098W        W45114  23.498  17.287   3.346  0.1513 -0.0456  0.2171
 2099W        W45115   0.815  13.642   8.947 -0.1166  0.3442 -0.0072
 2100W        W45116   2.634   3.705   6.792 -0.0279  0.1905 -0.0370
 2101W        W45117  19.786  15.344  28.044 -0.1517  0.1985  0.1130
 2102W        W45118  18.871  18.534   3.825 -0.1094 -0.1988  0.0124
 2103W        W45119  12.225   0.612   8.066 -0.1922  0.3640 -0.6376
 2104W        W45120  19.405  15.629  21.186 -0.1379 -0.2587  0.1441
 2105W        W45121  25.222  12.128   6.925 -0.0847  0.1629  0.3213
 2106W        W45122  23.535   0.700   8.406  0.0456  0.0256  0.1256
 2107W        W45123  27.495  11.562   8.710 -0.0017  0.3123 -0.3914
 2108W        W45124  28.430   7.698   8.554  0.0713  0.0187  0.1116
 2109W        W45125  31.943  33.445   7.488  0.1031 -0.4564 -0.2839
 2110W        W45126  25.816   4.981  25.157 -0.1091  0.0542 -0.2726
 2111W        W45127  22.952  28.234   8.011 -0.1344 -0.3163 -0.3374
 2112W        W45128   9.897  18.273   4.973  0.0344 -0.2745  0.1107
 2113W        W45129  13.410   8.964  26.710 -0.2468  0.0532 -0.2666
 2114W        W45130  25.637   2.294   8.156  0.4433 -0.2114  0.0266
 2115W        W45131   1.886  23.570  22.604  0.0034 -0.0363  0.0814
 2116W        W45132  23.207   9.299   3.343  0.1938  0.1581 -0.0158
 2117W        W45133  27.380  18.609   8.381 -0.1662  0.0473  0.1863
 2118W        W45134   2.582   9.831   9.071  0.2292 -0.1123 -0.1634
 2119W        W45135   5.249  17.103  29.166  0.1128  0.0790  0.1238
 2120W        W45136  15.011  34.565   5.132  0.2178 -0.1335  0.0519
 2121W        W45137   5.053  15.821   0.235  0.3006 -0.0678  0.0137
 2122W        W45138  21.335  33.795   9.915  0.1728  0.2701 -0.1528
 2123W        W45139  26.885  16.606   4.532 -0.0207  0.1598 -0.0412
 2124W        W45140  28.537  22.801   4.174 -0.0286 -0.0561  0.1139
 2125W        W45141   3.779   4.530   4.161 -0.2683  0.2300  0.3685
 2126W        W45142  20.142  16.071  20.821 -0.0511 -0.1611 -0.1333
 2127W        W45143  27.145  10.179   3.306  0.0642 -0.0092  0.1811
 2128W        W45144  23.585  28.290  28.135 -0.2881 -0.1782 -0.1127
 2129W        W45145  18.366   1.074   1.806 -0.1627  0.0338  0.0085
 2130W        W45146  22.819  12.068  24.993  0.2597  0.0805  0.2182
 2131W        W45147  10.438  24.517   7.143 -0.0769  0.0301  0.3185
 2132W        W45148   3.405   3.417   0.934 -0.4629  0.0200 -0.4321
 2133W        W45149  23.977  26.553   3.261 -0.1526 -0.2895  0.2020
 2134W        W45150  25.829  20.615   2.931  0.2538  0.0835  0.1641
 2135W        W45151  17.872   9.959   3.479  0.1647 -0.0940 -0.0557
 2136W        W45152  31.608   3.904   8.298  0.0832  0.0542  0.0352
 2137W        W45153  13.974  30.692   3.632  0.3226 -0.2008 -0.0656
 2138W        W45154  32.654  15.524   3.681 -0.1390 -0.0352  0.1438
 2139W        W45155  27.062   7.560  10.303 -0.0421  0.2461 -0.2894
 2140W        W45156  17.068  14.891   2.198 -0.1432  0.0967  0.2510
 2141W        W45157  18.875   8.914   2.774 -0.2760  0.0545  0.1367
 2142W        W45158  19.888  20.771   5.906  0.1446  0.2681 -0.0016
 2143W        W45159  30.082  14.349   8.394 -0.1471  0.0580 -0.0881
 2144W        W45160  10.604  19.078  27.449 -0.0029 -0.2044 -0.2354
 2145W        W45161   9.162   1.034   5.649  0.1443  0.1354  0.0324
 2146W        W45162  26.750  31.319  11.073  0.1677 -0.2265 -0.1630
 2147W        W45163  17.658  26.211   5.511  0.1176  0.2023 -0.1847
 2148W        W45164  14.318  21.503  15.354  0.1559 -0.0305  0.0131
 2149W        W45165  17.718  15.347   2.675  0.2824  0.0480  0.3352
 2150W        W45166  25.929  16.668   8.548 -0.0673  0.2084  0.1627
 2151W        W45167   8.243   9.730   8.765  0.0119  0.1576  0.2851
 2152W        W45168   2.689   6.664   6.598 -0.0571  0.2529  0.0970
 2153W        W45169  16.458  31.330   3.400 -0.1697 -0.2257  0.2409
 2154W        W45170   6.371  30.852  28.359 -0.0390  0.0322 -0.1289
 2155W        W45171   1.376   6.322  24.677 -0.0477 -0.2889 -0.0438
 2156W        W45172  21.836  11.955   8.115  0.0674 -0.0522 -0.1146
 2157W        W45173  18.899  26.540   1.735  0.1706 -0.1180  0.2923
 2158W        W45174  20.373  10.985   8.289  0.1943  0.3049 -0.1007
 2159W        W45175  17.905  11.976   4.894 -0.0139  0.1093 -0.0420
 2160W        W45176  11.171   6.879   4.329 -0.0457  0.1480 -0.2250
 2161W        W45177  10.637  13.130   4.120 -0.1434  0.1011  0.0193
 2162W        W45178   8.006   6.096   3.463 -0.1328 -0.0163 -0.0954
 2163W        W45179  14.989  12.462  27.903  0.1800  0.0380  0.0763
 2164W        W45180  29.259  23.937  29.216  0.3272  0.2392 -0.1775
 2165W        W45181  22.120  12.190   8.478 -0.2643 -0.1334 -0.3214
 2166W        W45182   8.723   4.569   7.332  0.1034 -0.1216  0.2978
 2167W        W45183  25.858  15.324   6.501 -0.0356  0.0342  0.3499
 2168W        W45184  17.630   9.567   9.794 -0.0356 -0.0805 -0.3727
 2169W        W45185  14.163   4.898  10.192 -0.0311  0.0036 -0.1704
 2170W        W45186  23.714  27.712   9.622 -0.0094  0.0372 -0.1086
 2171W        W45187  26.836  26.534  11.925  0.0157  0.1991  0.3111
 2172W        W45188   6.649  16.582   7.324 -0.1646  0.0469  0.2385
 2173W        W45189   0.746  34.324   2.004  0.4976 -0.1498  0.1693
 2174W        W45190  30.773   5.527  27.894  0.0130 -0.3130  0.1735
 2175W        W45191   7.364  23.436   4.276  0.0219  0.0481  0.1024
 2176W        W45192   9.679   1.340  22.367 -0.1422  0.2751 -0.1314
 2177W        W45193  20.237  24.212   3.768  0.2187  0.0529  0.1568
 2178W        W45194   7.212  14.930   7.040 -0.1318 -0.1747  0.0283
 2179W        W45195  24.347  17.544   7.507  0.0206 -0.0985  0.1353
 2180W        W45196  16.860  16.092  23.668  0.3722 -0.0318 -0.0593
 2181W        W45197  13.867  21.119   4.457 -0.0524 -0.2342  0.1751
 2182W        W45198  18.093   4.455   5.782  0.0584 -0.2161  0.1005
 2183W        W45199  32.145  18.179  25.390 -0.0265 -0.1640 -0.1210
 2184W        W45200  18.689   8.228   2.173 -0.1381 -0.0521 -0.0170
 2185W        W45201  22.163  15.370   7.546  0.0183  0.1095  0.0576
 2186W        W45202   9.929   5.318   7.560 -0.1172 -0.0227  0.2798
 2187W        W45203  24.455   5.336   0.388 -0.2090 -0.2221  0.4127
 2188W        W45204   4.140  24.604  20.503  0.0417 -0.3154  0.1467
 2189W        W45205  13.882   8.110   2.697  0.2662 -0.2090 -0.1018
 2190W        W45206   1.514  32.700   9.035  0.3158  0.0166 -0.1163
 2191W        W45207  30.749  18.721   2.607  0.1364  0.0597 -0.1972
 2192W        W45208   4.625  15.805  28.757  0.1297 -0.0383 -0.1871
 2193W        W45209  17.586  10.521   8.941 -0.0012 -0.0436  0.2236
 2194W        W45210  21.362  34.413   6.478  0.1539 -0.1614  0.0411
 2195W        W45211   5.070   1.805   0.870  0.0158 -0.0678  0.0441
 2196W        W45212  34.371   9.527   1.377 -0.1220  0.1128 -0.0631
 2197W        W45213  20.427  24.003   0.025  0.3754  0.3589  0.4245
 2198W        W45214  18.069  10.867  19.451 -0.0057  0.0557  0.3348
 2199W        W45215  16.455   8.042   6.492 -0.3723 -0.1472 -0.1295
 2200W        W45216   3.678  18.152   8.522 -0.0521  0.1152 -0.2651
 2201W        W45217  17.467  30.446   6.928 -0.0677  0.2459 -0.0653
 2202W        W45218  29.016  20.737  11.217  0.0698  0.0591 -0.1158
 2203W        W45219   3.599  17.742   3.055  0.0246  0.1326 -0.0965
 2204W        W45220  34.745   3.541   9.585  0.1687 -0.0960 -0.1668
 2205W        W45221  34.294  14.815   7.866 -0.2124 -0.3631 -0.1259
 2206W        W45222   5.506  15.619  28.009  0.1266  0.1077 -0.1852
 2207W        W45223   8.394  31.062   7.984 -0.4497  0.1097 -0.0889
 2208W        W45224  12.440  26.170   1.749 -0.1156 -0.0097 -0.1038
 2209W        W45225   6.529   4.543   0.704  0.0121 -0.2011  0.0344
 2210W        W45226  21.827  10.069   9.173 -0.0083 -0.0059  0.1644
 2211W        W45227  13.719  27.506   3.326  0.2973 -0.0489 -0.1921
 2212W        W45228  23.283  11.804   8.978  0.1332  0.0963 -0.2842
 2213W        W45229  19.865  22.788   8.859  0.0057 -0.0166  0.2086
 2214W        W45230   5.734  14.811   5.430 -0.2982  0.1314 -0.0565
 2215W        W45231  16.934   9.812   7.782  0.1326  0.0708  0.0600
 2216W        W45232   3.404   6.583   6.416  0.1417 -0.1062 -0.2915
 2217W        W45233  24.040  17.517   2.277 -0.1518  0.0225 -0.0076
 2218W        W45234  29.168  10.419   9.784  0.0146  0.0262  0.1334
 2219W        W45235  19.417  21.527  27.341 -0.0649 -0.0415  0.2162
 2220W        W45236  13.230  19.238   2.619  0.1435 -0.0356  0.2259
 2221W        W45237   9.625  18.822   4.173 -0.2346 -0.0249 -0.2290
 2222W        W45238  23.614  19.542   2.148  0.4930  0.1121  0.0873
 2223W        W45239  33.092  25.806   5.266  0.0077 -0.0875  0.3717
 2224W        W45240   6.905   1.975  15.919 -0.3042  0.1452  0.1726
 2225W        W45241   1.560   5.196   2.901  0.1803  0.2119  0.0655
 2226W        W45242   4.807   9.064  10.276  0.2013 -0.0568  0.2667
 2227W        W45243  15.107  22.406   0.795  0.0772  0.2362  0.1713
 2228W        W45244  19.495  23.662   7.639  0.1932  0.1866 -0.0645
 2229W        W45245   1.155   6.486  27.787 -0.2782 -0.1132  0.1843
 2230W        W45246   9.682   4.930  27.006  0.1386 -0.1429  0.3396
 2231W        W45247  20.692   3.106   5.652  0.0325  0.0047  0.1530
 2232W        W45248  26.212   2.272  26.497 -0.2682  0.0897 -0.0716
 2233W        W45249  14.574   0.800  25.185  0.1899 -0.0990  0.1171
 2234W        W45250   7.192  14.818   2.995  0.0921 -0.0527  0.2944
 2235W        W45251  30.067   6.058   1.390 -0.2236  0.1448 -0.0079
 2236W        W45252  16.679  16.717  24.765  0.0091 -0.2485  0.0076
 2237W        W45253  19.207  11.493   5.824 -0.0799  0.0974  0.0062
 2238W        W45254  11.711  16.418   2.153 -0.0423  0.1594  0.1523
 2239W        W45255  11.287  16.112  26.888 -0.1866 -0.0737 -0.0525
 2240W        W45256  21.056   6.623  29.007  0.1157  0.3082  0.6392
 2241W        W45257  18.502  16.187  26.216 -0.0850  0.1064  0.4018
 2242W        W45258  25.665  15.284  27.297  0.1982  0.1007 -0.0298
 2243W        W45259  18.783  21.256  26.829 -0.0319  0.1015 -0.0946
 2244W        W45260  30.251   9.465   5.161 -0.3553  0.2622  0.1534
 2245W        W45261  18.641   2.492   1.830  0.0330  0.0467 -0.3966
 2246W        W45262  33.411   7.747   9.070  0.1750 -0.0478 -0.4175
 2247W        W45263  26.826  10.502   1.916 -0.0887 -0.1150 -0.3141
 2248W        W45264  14.512  13.726   0.931  0.0190  0.0905 -0.0241
 2249W        W45265  26.363  18.975   0.340 -0.1221 -0.0318  0.1828
 2250W        W45266  23.119  11.991   4.473 -0.0569  0.0620  0.0816
 2251W        W45267   0.841   4.311   7.037  0.1454 -0.0303  0.0240
 2252W        W45268  12.943  15.005  27.128  0.1150  0.0125  0.3227
 2253W        W45269   8.435   7.006   6.233  0.1903  0.0156 -0.0942
 2254W        W45270  24.164   5.744  10.503  0.3204 -0.0654  0.3416
 2255W        W45271  19.080  12.773   6.628  0.0371 -0.2117  0.1610
 2256W        W45272  13.631   9.154   7.888 -0.0629  0.2263 -0.5033
 2257W        W45273  13.990  31.424  27.895 -0.1038 -0.1321 -0.0873
 2258W        W45274  16.281  18.731   8.197 -0.0542  0.1067 -0.0648
 2259W        W45275  12.110  21.715  16.379  0.1494 -0.2592 -0.2145
 2260W        W45276  15.074   8.395  10.041 -0.3375 -0.0181 -0.0289
 2261W        W45277  22.063  17.308   9.238 -0.0489  0.1183  0.1452
 2262W        W45278  26.383  12.182  10.116 -0.0356 -0.1265  0.0411
 2263W        W45279  10.990   7.338  23.308 -0.1796 -0.0264 -0.3610
 2264W        W45280  22.910   5.868  17.559  0.4449 -0.3962  0.0768
 2265W        W45281  15.690  15.383   5.163 -0.1386  0.0492 -0.2720
 2266W        W45282  18.850  13.841   2.479 -0.1565 -0.2045 -0.0381
 2267W        W45283  21.295  13.269   8.328  0.2319 -0.1759  0.0665
 2268W        W45284  10.126  14.375   8.529 -0.0943  0.0866 -0.0096
 2269W        W45285  32.159  33.394  19.270 -0.2618  0.3714 -0.2497
 2270W        W45286   9.024  22.270   8.442  0.0664  0.1977 -0.1716
 2271W        W45287   8.001  17.247  27.355  0.1661 -0.0796  0.1726
 2272W        W45288  28.782  11.991   2.466  0.2950 -0.0610 -0.1519
 2273W        W45289  33.189  21.344  11.185  0.1610  0.0711  0.0673
 2274W        W45290  13.185  13.882  25.636  0.1991 -0.1265  0.2390
 2275W        W45291  15.917  22.993   3.687 -0.0929 -0.1270 -0.0018
 2276W        W45292  11.743  22.717  27.915  0.0466  0.0546 -0.2204
 2277W        W45293  16.422  27.766   7.805 -0.0556  0.0117  0.1022
 2278W        W45294  18.890  25.190   6.962 -0.0718 -0.3981  0.1550
 2279W        W45295  29.705  27.244  11.881  0.0278 -0.1063  0.0448
 2280W        W45296  21.315  10.985  13.686  0.0248  0.0083  0.1935
 2281W        W45297   4.128  10.430   2.358 -0.0462 -0.1008  0.3350
 2282W        W45298  22.317  18.423   8.020  0.0006 -0.1638  0.0089
 2283W        W45299   5.306  12.099   3.623  0.2386 -0.1903 -0.0153
 2284W        W45300  26.382  31.090   7.430  0.0718 -0.0972  0.0349
 2285W        W45301  28.935  16.660   8.833  0.1308 -0.1125 -0.2376
 2286W        W45302  20.684  12.033  28.649 -0.2194 -0.0978  0.3096
 2287W        W45303  32.230   3.045   2.901 -0.0291  0.0342 -0.1474
 2288W        W45304  16.052   8.457   7.762  0.1311  0.0013  0.1064
 2289W        W45305  11.774   5.760   4.554  0.1349 -0.0034 -0.1944
 2290W        W45306   8.878  13.498  22.873 -0.1659 -0.0026  0.1662
 2291W        W45307  27.080  17.057  27.253  0.0201 -0.0558 -0.0067
 2292W        W45308  29.597  15.237   1.786  0.0103 -0.0602  0.1039
 2293W        W45309  29.901  17.045   2.342  0.0564 -0.1211 -0.1933
 2294W        W45310  12.863   4.268   1.946  0.0140  0.0365 -0.0282
 2295W        W45311  15.252   6.730   1.271 -0.1168 -0.0573 -0.3145
 2296W        W45312  22.174  17.494   5.987 -0.1487  0.0430 -0.0888
 2297W        W45313  30.493  17.639  26.638  0.0720  0.1023 -0.2328
 2298W        W45314  25.848  14.323   0.341  0.5191  0.0215 -0.1418
 2299W        W45315  17.501  32.748   9.284 -0.0285 -0.2193  0.0706
 2300W        W45316  34.006  17.028   3.452 -0.1758  0.2396  0.3839
 2301W        W45317  19.738   8.616   8.404  0.0782  0.2159  0.3676
 2302W        W45318   7.905   1.222   7.540  0.4133  0.1412  0.1800
 2303W        W45319  10.375  10.741  23.187 -0.1003 -0.1163 -0.2559
 2304W        W45320  13.736  11.952  28.585 -0.1695 -0.1481  0.0187
 2305W        W45321  22.621  27.380   4.947 -0.2711  0.0505 -0.0717
 2306W        W45322  29.340  13.798   3.018  0.1035 -0.3647  0.2104
 2307W        W45323  30.124  21.969   8.345  0.4221 -0.0990 -0.0940
 2308W        W45324  22.140  14.670   2.430 -0.0264 -0.0909  0.0582
 2309W        W45325  20.705  13.687  28.624  0.1573  0.1759  0.0089
 2310W        W45326  20.034  10.199  23.487 -0.3251 -0.2713  0.1763
 2311W        W45327  22.949  15.000   1.658  0.2692  0.1315 -0.0804
 2312W        W45328  30.308   6.058   6.297  0.3788 -0.3447  0.0556
 2313W        W45329  19.374  16.401  26.539  0.0419 -0.0039  0.1871
 2314W        W45330  16.810   4.453  27.918  0.0939  0.0985 -0.1707
 2315W        W45331  31.053  18.481   5.591  0.0499  0.0169  0.2337
 2316W        W45332  31.468  18.835  27.217  0.0667 -0.3873  0.1302
 2317W        W45333   0.494  12.509   0.959 -0.0181  0.0442 -0.2017
 2318W        W45334   4.435  12.235   6.499  0.1109 -0.1547 -0.0162
 2319W        W45335  13.276  16.923  20.911 -0.2347 -0.0868 -0.0278
 2320W        W45336  17.162  17.616   7.180 -0.0635 -0.0130 -0.3761
 2321W        W45337  24.238  12.856   8.153 -0.0891  0.0830  0.0037
 2322W        W45338  21.213  12.804   3.715 -0.2461 -0.1887  0.1162
 2323W        W45339  28.881  14.648  21.670 -0.0223  0.1649  0.0316
 2324W        W45340  17.548  34.678   3.121  0.0463  0.2044 -0.0940
 2325W        W45341  21.161  19.108   3.940  0.1003  0.0836 -0.1328
 2326W        W45342  19.744  30.902   5.294  0.3244  0.0153  0.0643
 2327W        W45343  26.005  23.125   4.748  0.0042 -0.1454  0.3965
 2328W        W45344  23.326  24.544  24.622 -0.0387 -0.2154 -0.2685
 2329W        W45345  21.039  27.015   9.918 -0.2271 -0.0108  0.0868
 2330W        W45346  17.622  11.914  25.067 -0.0023  0.2243 -0.0595
 2331W        W45347  12.567  14.797   5.832 -0.1920 -0.2103  0.3322
 2332W        W45348   7.738  15.399  25.056 -0.1071 -0.1253 -0.3292
 2333W        W45349  27.446  21.661   6.892 -0.1359  0.1452  0.0623
 2334W        W45350  14.641  15.819  19.481 -0.0639 -0.2525 -0.2160
 2335W        W45351   0.720  12.343   3.605 -0.0677 -0.1119  0.2593
 2336W        W45352   9.919  12.989   7.567  0.1173 -0.0167  0.0757
 2337W        W45353  10.243   0.579   9.846  0.1061  0.3141 -0.0614
 2338W        W45354  26.609  26.644   7.244  0.2415 -0.0163  0.1043
 2339W        W45355  15.506   9.860   9.388 -0.0194 -0.2499  0.0382
 2340W        W45356  30.812  12.392   4.757  0.0154  0.2481  0.1965
 2341W        W45357  23.527  14.777   7.734  0.0425  0.1607 -0.3183
 2342W        W45358  13.267  34.577  17.313  0.1686 -0.1063  0.1102
 2343W        W45359  13.154  22.292   4.422 -0.0930  0.1115  0.2848
 2344W        W45360  28.053   2.487   6.001  0.0262 -0.1472  0.0587
 2345W        W45361  10.906  11.780  28.683  0.5791  0.0159 -0.1044
 2346W        W45362  12.067  20.136   8.344  0.1270 -0.0324  0.0449
 2347W        W45363  21.665  15.089  28.713 -0.1443 -0.3075  0.2410
 2348W        W45364  13.752  25.712  19.582 -0.1734  0.2037 -0.2557
 2349W        W45365  18.092  11.954   7.181 -0.2568 -0.1519 -0.1558
 2350W        W45366  22.328  22.531   1.471  0.2176 -0.0897 -0.1540
 2351W        W45367   6.906  10.694   4.931  0.2112 -0.0111  0.1520
 2352W        W45368  16.627   9.354   1.679 -0.2023 -0.2463 -0.2625
 2353W        W45369   8.443  23.004  21.771  0.0461  0.0997  0.1088
 2354W        W45370  22.762  12.029   8.756 -0.0180 -0.0957  0.0440
 2355W        W45371  14.237  10.845  29.134 -0.3547 -0.0590  0.0177
 2356W        W45372  11.927  18.636   5.916  0.3150 -0.1133  0.0163
 2357W        W45373  23.822  25.796   5.455  0.2811 -0.4919 -0.1339
 2358W        W45374  16.289  29.331  23.864 -0.0801 -0.1553 -0.0796
 2359W        W45375  19.027  16.089   2.407  0.3304  0.0623 -0.1013
 2360W        W45376  26.635  14.806   3.401  0.1094 -0.1094  0.0941
 2361W        W45377  16.336  12.852  27.420 -0.2475  0.1730 -0.2390
 2362W        W45378  14.857   0.828  27.923  0.1219 -0.3720  0.2696
 2363W        W45379  34.423   0.784  24.770 -0.0458  0.3020  0.3875
 2364W        W45380  22.841  14.097  23.334  0.0848 -0.4336 -0.0757
 2365W        W45381   4.425  17.773  13.922 -0.3268 -0.3814  0.0518
 2366W        W45382  20.292   8.664   3.135 -0.3077 -0.2665 -0.0902
 2367W        W45383  15.213   8.339   2.783 -0.1822 -0.1565 -0.0711
 2368W        W45384  14.590  28.943   8.718  0.2066  0.0088 -0.1582
 2369W        W45385  21.024  15.997   1.376  0.1094 -0.0390 -0.3766
 2370W        W45386   8.184   3.077  28.058  0.4124 -0.2199 -0.1727
 2371W        W45387  30.984  21.614   2.133  0.3192  0.1447  0.0219
 2372W        W45388  22.415   9.374  22.129 -0.0636 -0.0595 -0.1012
 2373W        W45389  26.966  12.661   7.428  0.1420 -0.0051 -0.2048
 2374W        W45390  31.335  18.472  25.048 -0.0829  0.2937  0.1174
 2375W        W45391  20.733  27.589   3.914  0.1991 -0.0253 -0.2202
 2376W        W45392  20.346   7.109  18.025 -0.1327  0.3111 -0.0174
 2377W        W45393  26.189   9.698   3.455  0.1123 -0.2537  0.1621
 2378W        W45394   5.415   9.619   3.524 -0.0867  0.6082 -0.0008
 2379W        W45395  18.430  31.645   5.291  0.0495  0.1271  0.0104
 2380W        W45396  12.910  14.735  18.339  0.0632  0.0911  0.2087
 2381W        W45397   8.446  18.864   6.097  0.0838  0.2215 -0.0311
 2382W        W45398  25.014  17.333   4.147 -0.3067  0.1491  0.2173
 2383W        W45399   0.294  34.315   8.325 -0.1731  0.0766  0.1597
 2384W        W45400   2.839  28.927  27.088 -0.1012 -0.3222  0.1862
 2385W        W45401  15.830  28.038  18.504  0.0485  0.0307  0.2122
 2386W        W45402  20.825   4.466   4.384  0.1433  0.1571  0.2471
 2387W        W45403  29.289  25.228  10.325 -0.1010 -0.1748  0.0753
 2388W        W45404  33.052  19.554  21.935  0.0980  0.0224  0.2092
 2389W        W45405  17.103   8.989  17.753 -0.0404 -0.0384  0.0690
 2390W        W45406  29.646  15.028  22.218 -0.1774  0.3566  0.0437
 2391W        W45407   8.626   0.327   5.429 -0.0964 -0.2326  0.2600
 2392W        W45408  20.513   7.104   8.183  0.3512  0.1817  0.1136
 2393W        W45409  12.409   3.205   4.935  0.0131  0.2339  0.1268
 2394W        W45410  16.687  19.955   0.856  0.0249  0.0982  0.0307
 2395W        W45411  23.942  28.056   0.008 -0.2083 -0.0296 -0.0216
 2396W        W45412  18.361   7.392   1.187 -0.0860  0.0006  0.2582
 2397W        W45413  32.810  33.491   6.529 -0.2014  0.0960 -0.0852
 2398W        W45414  30.477   0.623   8.459 -0.1843 -0.1350  0.0158
 2399W        W45415  19.804  24.675  22.456 -0.0741  0.0491  0.2020
 2400W        W45416   5.861  10.614  26.174 -0.0129 -0.0170 -0.1222
 2401W        W45417  14.321  14.387   4.607  0.2875  0.2211 -0.1271
 2402W        W45418  14.258   0.291   8.705 -0.1437 -0.0415 -0.1685
 2403W        W45419   9.712  30.247   3.386 -0.1701  0.2433 -0.0430
 2404W        W45420  13.244  10.527  24.000  0.2181  0.1573  0.3432
 2405W        W45421  20.819  12.205  14.843  0.0982 -0.1101 -0.1572
 2406W        W45422   3.144  27.782   9.250 -0.0980  0.1707 -0.0370
 2407W        W45423  30.276  13.633   6.909  0.1150 -0.0976 -0.3978
 2408W        W45424  27.590  13.348   1.683 -0.1346  0.3093  0.0741
 2409W        W45425   6.247  33.818   8.003 -0.1354  0.0694  0.3023
 2410W        W45426   2.060   3.781   3.722  0.1461  0.1308  0.1005
 2411W        W45427  16.770  18.582  25.780  0.3710 -0.0117  0.0791
 2412W        W45428  14.015  14.183   3.545 -0.0998  0.3754  0.2388
 2413W        W45429  19.174  11.261  28.245 -0.0178  0.0043  0.0094
 2414W        W45430  11.379  23.669  17.005  0.1574 -0.2518 -0.0331
 2415W        W45431   7.623  23.420   2.807 -0.3057  0.1109 -0.0750
 2416W        W45432  10.111  18.646  17.442  0.0702 -0.4667 -0.2653
 2417W        W45433  23.497  21.128   0.118 -0.1080 -0.3891 -0.4632
 2418W        W45434  22.517  26.615   6.864 -0.0058 -0.2616  0.0020
 2419W        W45435  26.301  18.106  21.375 -0.5154  0.2292  0.0229
 2420W        W45436  19.154  12.510   7.640 -0.0835 -0.2339 -0.3956
 2421W        W45437  21.261  16.587   4.422  0.1566 -0.0868 -0.0003
 2422W        W45438  22.991  12.267  28.513  0.1815 -0.0181 -0.0580
 2423W        W45439  13.458  32.136   8.415  0.1786 -0.1339  0.2921
 2424W        W45440  16.472  17.062  24.441 -0.1182 -0.0756 -0.0695
 2425W        W45441  12.916  17.905   2.246 -0.0331  0.1552 -0.2306
 2426W        W45442  19.416   0.126   5.683 -0.0597 -0.0150 -0.1578
 2427W        W45443   1.967  10.657   4.078 -0.3728  0.4329  0.0757
 2428W        W45444  25.509  22.498  15.368  0.3579  0.3158  0.3239
 2429W        W45445  13.447  18.963  21.133  0.0552 -0.3340  0.0560
 2430W        W45446  18.730  20.258   2.775  0.2120 -0.1390  0.0162
 2431W        W45447  19.171   4.479  27.514 -0.1056 -0.0267  0.0252
 2432W        W45448  29.283   3.101  29.063 -0.1385  0.2833 -0.2222
 2433W        W45449  19.409   9.493   4.945 -0.0390 -0.1097 -0.1659
 2434W        W45450  19.606  32.422   5.786  0.3308 -0.1132 -0.1141
 2435W        W45451  24.849  30.193   3.430 -0.1887  0.1803 -0.1812
 2436W        W45452   4.430  17.699  27.910  0.2320 -0.1204  0.0083
 2437W        W45453  14.228  15.351  23.672  0.1199  0.0066 -0.0425
 2438W        W45454  18.450  18.862   3.346  0.1177 -0.1149 -0.2813
 2439W        W45455  34.521  12.773   4.748 -0.0023 -0.0793 -0.1336
 2440W        W45456   7.006  22.740  25.415 -0.1118  0.3682  0.4057
 2441W        W45457  15.061  12.783   7.238 -0.0397 -0.1480  0.0385
 2442W        W45458  25.019  22.006   9.636 -0.0763  0.2117 -0.0204
 2443W        W45459  16.697  15.118   3.627 -0.2289  0.0530 -0.1842
 2444W        W45460  14.064  10.628   4.426 -0.3120  0.0303  0.2080
 2445W        W45461  20.406  12.095  18.264  0.1770 -0.1362  0.1039
 2446W        W45462  13.907  22.297   2.475 -0.1641 -0.0012  0.1014
 2447W        W45463  18.558   8.642  18.573  0.3240  0.1973 -0.0799
 2448W        W45464  24.464   8.576   7.088 -0.2545 -0.0974  0.2021
 2449W        W45465  10.799  34.018  29.223 -0.1147 -0.3698 -0.1948
 2450W        W45466  13.450  15.055  28.198  0.3307 -0.2323  0.1662
 2451W        W45467  14.659  15.371  19.764 -0.1053 -0.0700  0.0000
 2452W        W45468  14.513  16.745  25.456  0.1186  0.1517  0.0010
 2453W        W45469   6.453  21.241   0.439 -0.2032 -0.3076  0.0672
 2454W        W45470  10.755  26.930  25.986  0.0325  0.2420 -0.0371
 2455W        W45471  29.898  10.059   3.386 -0.0242  0.1523 -0.0934
 2456W        W45472   2.386  34.252   2.898  0.0579 -0.0603 -0.2001
 2457W        W45473   8.987  16.580   8.745 -0.0305  0.1747  0.5433
 2458W        W45474  21.035  14.523  24.761  0.2714 -0.2138  0.2396
 2459W        W45475  10.525  12.321   8.094  0.1518  0.0473  0.0862
 2460W        W45476   9.836  30.663   7.291 -0.1227 -0.2749  0.0827
 2461W        W45477  28.368  16.533  27.879  0.4285 -0.3997 -0.4669
 2462W        W45478  10.761  22.085  21.949  0.1030 -0.0035  0.0064
 2463W        W45479  22.990  10.408  24.669 -0.0984  0.2750 -0.0258
 2464W        W45480  14.879  25.090   5.315  0.1844 -0.1655  0.1021
 2465W        W45481  26.695  26.177  27.082  0.1806 -0.0551 -0.0801
 2466W        W45482  27.455  12.662   3.890 -0.1496 -0.2384  0.0028
 2467W        W45483   8.457  24.706  26.064  0.0434 -0.1411  0.0657
 2468W        W45484   8.096   9.976   9.947  0.0126 -0.3284  0.2969
 2469W        W45485  30.078   2.392   0.499 -0.1732 -0.0009  0.3365
 2470W        W45486  10.916  16.740  16.312 -0.0532 -0.0833  0.3172
 2471W        W45487   9.294  28.055  28.451 -0.1676 -0.2344  0.2426
 2472W        W45488  18.311   5.754  25.236  0.4177 -0.0297 -0.0635
 2473W        W45489  18.635   2.847  10.292 -0.0486  0.2499  0.1482
 2474W        W45490   1.286   6.774   0.867 -0.1803  0.1602  0.1956
 2475W        W45491  31.914  30.443  16.032  0.1368  0.1680 -0.1477
 2476W        W45492  30.018  31.683  27.234  0.0571 -0.1597 -0.1567
 2477W        W45493  16.447  10.298   4.403 -0.1492  0.0692  0.0803
 2478W        W45494   8.672   6.928   9.977 -0.1567 -0.3684 -0.3457
 2479W        W45495  11.327  18.975  21.670  0.0374  0.1345 -0.0164
 2480W        W45496  20.666   6.662   4.802 -0.2574 -0.0397 -0.3166
 2481W        W45497  20.464  19.884   8.015 -0.1656 -0.3217 -0.1540
 2482W        W45498  25.587   8.922   6.650  0.1303 -0.1965 -0.0874
 2483W        W45499  24.552  21.269  26.198 -0.2294 -0.0846  0.0853
 2484W        W45500  33.599  23.379   0.220 -0.0118  0.1270  0.2371
 2485W        W45501   7.944  12.895   2.923 -0.1250  0.1617 -0.2503
 2486W        W45502   5.949  18.990   3.475 -0.0519  0.3210 -0.0753
 2487W        W45503  21.201  19.356   7.558  0.1362  0.2539 -0.2265
 2488W        W45504  10.130  17.910  29.025 -0.1343 -0.2778 -0.0501
 2489W        W45505  19.445  10.115   6.159 -0.0192  0.0206 -0.0340
 2490W        W45506  25.951   2.806   2.138  0.2250  0.1637  0.0726
 2491W        W45507  19.958  26.952   7.979  0.1061  0.0565  0.0409
 2492W        W45508  19.124  10.249   3.931  0.2975  0.1378  0.1233
 2493W        W45509  21.699  13.651   6.638 -0.1320 -0.2361 -0.3664
 2494W        W45510  13.699  12.253  20.325  0.0037 -0.0104  0.2829
 2495W        W45511  12.393  22.068  11.924  0.1983  0.2274  0.0861
 2496W        W45512  28.759  23.310   7.479  0.2113  0.1222 -0.1964
 2497W        W45513  14.290  23.986  20.789 -0.0162  0.0717  0.0282
 2498W        W45514  20.589  31.033   6.647  0.0437 -0.2436 -0.3248
 2499W        W45515  17.868   4.074   4.880  0.0921  0.0076  0.1192
 2500W        W45516  16.463   5.252  26.682 -0.1030 -0.1289 -0.0412
 2501W        W45517  18.646  13.482   5.634  0.1681 -0.3433  0.0357
 2502W        W45518  30.851  12.921  17.186 -0.1516  0.1318 -0.0205
 2503W        W45519  34.350  21.016   7.974  0.1259 -0.0951  0.0807
 2504W        W45520  19.303  12.635   3.137  0.1566  0.0849  0.0773
 2505W        W45521  14.680  15.614   2.278  0.2016  0.0724 -0.0297
 2506W        W45522  20.287  11.814  21.823  0.0026  0.2036  0.0141
 2507W        W45523  19.993  25.653  15.451 -0.2478 -0.0082  0.1832
 2508W        W45524  18.517   4.456  17.128  0.1952  0.1087 -0.2982
 2509W        W45525   9.336  20.450  21.665 -0.0023  0.2043  0.0210
 2510W        W45526   5.481  27.329  25.469 -0.1872 -0.0750  0.2367
 2511W        W45527  16.904  22.626  24.472  0.0585  0.0600  0.3009
 2512W        W45528  29.678   6.966   3.939 -0.1104 -0.1778  0.0025
 2513W        W45529   2.185   4.649   6.908 -0.3131 -0.1429  0.0922
 2514W        W45530  13.050   9.165   7.041  0.3828 -0.0530  0.1646
 2515W        W45531  16.409   2.042   2.488  0.1286 -0.1520 -0.1728
 2516W        W45532  30.502  17.142  16.752  0.1328  0.0422  0.0884
 2517W        W45533  17.803  16.363   7.826  0.0922 -0.1466 -0.1204
 2518W        W45534   4.685  20.817   5.938 -0.0958  0.0053 -0.4093
 2519W        W45535  32.943  15.569  25.967  0.0369 -0.1681 -0.3092
 2520W        W45536   2.077  21.067  23.554  0.2948 -0.1959  0.1089
 2521W        W45537  16.262   0.120   7.988 -0.1155 -0.0978  0.0702
 2522W        W45538   2.527   8.316   9.415  0.2850 -0.0324  0.1792
 2523W        W45539  21.178  15.154   6.841  0.3113  0.0809  0.0358
 2524W        W45540  10.946  13.811   7.584  0.2052  0.0263 -0.1682
 2525W        W45541  13.583  29.785   0.195  0.2640 -0.2464  0.1874
 2526W        W45542  32.769  10.766   2.693  0.1631  0.3435  0.0231
 2527W        W45543  27.037   7.612   2.663  0.1215  0.1341 -0.0292
 2528W        W45544  18.264  15.530   6.025  0.1769 -0.0089 -0.3647
 2529W        W45545  14.690  11.474  24.211  0.1987  0.1168  0.0358
 2530W        W45546  12.809  17.472   7.340 -0.1168  0.0330  0.2297
 2531W        W45547   0.903  18.048   4.512 -0.2132  0.0214 -0.0245
 2532W        W45548  20.958   9.312   9.118  0.1978 -0.0135  0.1679
 2533W        W45549  12.325  30.187   3.038  0.0256  0.1480  0.2035
 2534W        W45550  29.328  19.775   9.480 -0.0327  0.2466  0.2681
 2535W        W45551  14.706  15.830  28.339 -0.0248  0.1107 -0.0463
 2536W        W45552  21.796  11.830   0.054 -0.1764  0.1883  0.2923
 2537W        W45553   7.447   3.539   8.184  0.0390 -0.0266 -0.0385
 2538W        W45554  18.943  23.804   3.423 -0.0757 -0.1054 -0.0383
 2539W        W45555  17.357  21.967   1.126 -0.0596  0.3116 -0.3863
 2540W        W45556  20.042  15.039  22.408 -0.0308 -0.1806 -0.1159
 2541W        W45557  15.089  21.324   4.909 -0.1209 -0.0019  0.1643
 2542W        W45558  20.301  21.568   0.130 -0.1062  0.3478  0.1026
 2543W        W45559   8.781  18.986  28.362 -0.2975 -0.1744  0.1653
 2544W        W45560   1.160   3.390   7.758 -0.0768 -0.0798 -0.1082
 2545W        W45561  11.152  14.413  26.650  0.1447  0.1286 -0.0867
 2546W        W45562   0.425  22.545   2.434  0.0652 -0.0605 -0.2718
 2547W        W45563  19.224  11.479  22.903 -0.1229  0.1223 -0.0599
 2548W        W45564  16.191  12.637   8.002  0.0387  0.0556 -0.0785
 2549W        W45565  34.757   9.078   2.334 -0.0722 -0.1102 -0.0849
 2550W        W45566  14.907  15.724   3.977 -0.0530 -0.0252 -0.0662
 2551W        W45567  23.315  12.945   7.781  0.2191 -0.0339  0.1605
 2552W        W45568   6.063  17.276  25.414  0.0376  0.1747  0.2360
 2553W        W45569  28.097  11.356   6.479 -0.0765  0.2534  0.1938
 2554W        W45570  28.148  16.277   9.355 -0.2341 -0.1531  0.0543
 2555W        W45571  27.561  13.573   2.940 -0.0960  0.1051  0.3227
 2556W        W45572   7.905  25.848   9.461 -0.3516 -0.1651  0.2962
 2557W        W45573  16.092  13.311  21.176  0.0934  0.2821  0.4767
 2558W        W45574  22.564  20.047  20.703  0.1442 -0.0034  0.0601
 2559W        W45575   4.387  23.039   7.673 -0.2096  0.0741 -0.0584
 2560W        W45576   9.653  20.371   2.302 -0.0299  0.2933 -0.0436
 2561W        W45577  26.279   4.993   0.700 -0.1184  0.3611  0.3222
 2562W        W45578  21.033   8.549   8.227  0.3578  0.0850 -0.1391
 2563W        W45579  15.828   1.898  28.045  0.0405  0.0146 -0.0191
 2564W        W45580   4.024  14.741  20.071 -0.0423 -0.1258  0.2021
 2565W        W45581   5.563  12.449  22.338 -0.1309  0.1466  0.2333
 2566W        W45582  14.694  27.031   1.898  0.2751 -0.1572  0.0834
 2567W        W45583  17.037  15.392   2.075 -0.0503 -0.0258 -0.0793
 2568W        W45584  32.169   7.033   6.110  0.1227 -0.2745 -0.2452
 2569W        W45585   9.696  10.602  28.331  0.3854 -0.1580 -0.0801
 2570W        W45586  16.717  21.081  23.735 -0.2544  0.0417 -0.3118
 2571W        W45587  25.056  27.335   7.383  0.0171  0.0375 -0.0541
 2572W        W45588  12.465  19.335   6.390 -0.1627 -0.1753  0.0723
 2573W        W45589  12.082  20.681  26.561 -0.3003 -0.2533 -0.1952
 2574W        W45590  27.698  27.837   8.869 -0.4936  0.2728  0.0210
 2575W        W45591   3.482  20.820   8.222  0.0402  0.0721  0.0672
 2576W        W45592   9.979  31.081   8.657  0.2258 -0.0838 -0.0113
 2577W        W45593  14.507  10.132   7.377 -0.2813 -0.0240 -0.1332
 2578W        W45594  22.638  17.391  17.760 -0.2380 -0.4321  0.0104
 2579W        W45595  19.426  28.121   4.281  0.2459  0.1107  0.2100
 2580W        W45596  20.674  33.834  10.766 -0.2406  0.1424  0.3047
 2581W        W45597   6.824   2.527   7.423 -0.1656  0.1257  0.1881
 2582W        W45598  12.926  19.926   2.170  0.1116 -0.1186  0.1013
 2583W        W45599   6.860  18.555   0.884  0.1201 -0.2070 -0.0394
 2584W        W45600  20.684  15.785   1.039 -0.2489 -0.1228 -0.1294
 2585W        W45601  28.839  18.357  10.846 -0.2796 -0.0072  0.1570
 2586W        W45602  26.720  18.007  23.951 -0.3645 -0.1265 -0.0815
 2587W        W45603  24.738   0.726   0.116 -0.0523  0.3347  0.0540
 2588W        W45604  15.787   4.516  23.987  0.1259  0.1255  0.2166
 2589W        W45605  32.677  14.483   3.657 -0.3044  0.0436  0.0348
 2590W        W45606  17.446  25.158   8.473  0.1709 -0.1909  0.2133
 2591W        W45607  23.215  19.219   4.957 -0.1153  0.0851 -0.2778
 2592W        W45608  20.745  13.703   2.120 -0.0941  0.0289 -0.0634
 2593W        W45609  19.297  10.521  17.644  0.1309 -0.2033 -0.2960
 2594W        W45610   9.741  10.964   6.587  0.0471 -0.0920  0.1820
 2595W        W45611  11.026   9.996   0.941 -0.1684  0.1354 -0.0514
 2596W        W45612  28.858  26.341  11.479  0.2208  0.1493  0.0164
 2597W        W45613  18.729  15.333  27.654 -0.0129 -0.2759 -0.2357
 2598W        W45614  19.965  23.297  18.049 -0.2227  0.0583  0.1473
 2599W        W45615  23.124  14.258   0.686  0.0410  0.0734 -0.2408
 2600W        W45616  30.188  23.011   8.924 -0.0541  0.0859  0.3307
 2601W        W45617  17.733   6.943   1.697 -0.4091  0.1792 -0.1544
 2602W        W45618  14.981  19.766   4.274 -0.3359 -0.0760 -0.3697
 2603W        W45619   1.106  31.828   8.387  0.0957  0.6764 -0.2118
 2604W        W45620  17.289  17.954  13.168  0.3940  0.3759 -0.0800
 2605W        W45621  24.567  13.507  25.022 -0.3041 -0.3035 -0.0760
 2606W        W45622   8.680  25.938  27.549 -0.0219  0.0429 -0.0185
 2607W        W45623   9.081  23.339   2.162 -0.0094 -0.0152  0.0615
 2608W        W45624  14.956  17.061   6.544  0.0571 -0.3364  0.2917
 2609W        W45625  12.469  31.749   7.073 -0.1487 -0.1448  0.0417
 2610W        W45626  20.823  10.664  28.372  0.1390 -0.2877  0.1571
 2611W        W45627  12.364  14.622  29.133  0.0543 -0.1287 -0.1144
 2612W        W45628  28.235  20.984   8.423  0.0250  0.1652  0.2873
 2613W        W45629  18.565  21.927  17.416  0.2729 -0.3674 -0.1103
 2614W        W45630   9.196  30.064   5.141  0.4762  0.2901  0.0639
 2615W        W45631  17.099  11.857  26.868  0.0808 -0.3150 -0.2398
 2616W        W45632   8.843  16.521   0.405  0.0858 -0.1798 -0.2463
 2617W        W45633  17.212  18.334   5.743 -0.2367  0.2494  0.1832
 2618W        W45634  30.531  11.970   2.196  0.0370  0.2674 -0.2605
 2619W        W45635  22.953  23.335   8.260  0.0628  0.2517  0.1354
 2620W        W45636  19.336   8.293  21.038 -0.1895 -0.2565 -0.4053
 2621W        W45637  14.901  14.890   0.066  0.0237 -0.2667 -0.2965
 2622W        W45638   2.959  19.081  17.779 -0.2669 -0.0656  0.3987
 2623W        W45639   2.061  29.434   5.943 -0.3097 -0.0722 -0.1353
 2624W        W45640  23.655   7.079   4.055 -0.0472  0.4109  0.1508
 2625W        W45641  21.911  21.283  18.670  0.1437  0.0675 -0.1762
 2626W        W45642  18.689   6.445  26.600  0.1419 -0.1945 -0.1933
 2627W        W45643  25.453  17.334   0.933 -0.1145 -0.2448  0.0222
 2628W        W45644  32.679  18.109  10.989 -0.0136 -0.0419  0.0265
 2629W        W45645  24.620  10.048   2.388  0.0751  0.4072 -0.1196
 2630W        W45646  27.515  25.304  25.912  0.0696  0.2176  0.1645
 2631W        W45647   1.742  14.980   4.092 -0.0980  0.1961 -0.1219
 2632W        W45648   9.295  11.366  23.203 -0.1089 -0.0074  0.0126
 2633W        W45649  19.865  20.643   4.186 -0.0203 -0.2671  0.2078
 2634W        W45650   3.108  33.681  23.596  0.1835  0.0477 -0.1687
 2635W        W45651   5.080  31.541   5.658  0.2230  0.1993  0.1704
 2636W        W45652  31.979  23.880   9.477 -0.1116 -0.1352  0.1227
 2637W        W45653  30.722  22.293   4.677 -0.0680  0.2675 -0.0906
 2638W        W45654  34.263  14.807   6.238 -0.1108 -0.0545 -0.1196
 2639W        W45655  21.150  26.935  25.551  0.1659 -0.3787  0.2093
 2640W        W45656  13.173  30.280   2.054 -0.1106 -0.0143  0.3163
 2641W        W45657  13.411  27.605   7.131  0.0789 -0.2868 -0.1677
 2642W        W45658   3.263   9.405   2.540 -0.2351 -0.0493 -0.0141
 2643W        W45659  12.570  17.774   1.032  0.2873  0.2251  0.2172
 2644W        W45660   8.677  15.323   6.118 -0.2565  0.1591 -0.1027
 2645W        W45661  18.530  22.378  25.895  0.2758 -0.0675  0.0150
 2646W        W45662  10.222  15.620   3.463 -0.0936  0.0692  0.0100
 2647W        W45663  18.218   4.260   8.947  0.0710 -0.0349 -0.5722
 2648W        W45664  18.998  20.392   1.188 -0.2430 -0.3099  0.0438
 2649W        W45665   6.060  20.116   8.698  0.2619 -0.2430 -0.0842
 2650W        W45666  13.105  13.460   3.799 -0.2312  0.0226  0.1448
 2651W        W45667  21.463  15.691  13.634 -0.1858 -0.2529  0.2202
 2652W        W45668  15.295  13.230   1.928  0.1174  0.0256  0.2045
 2653W        W45669  24.034  13.989   5.457 -0.2427 -0.0661  0.0862
 2654W        W45670  27.547  16.544  22.790  0.0065  0.2751 -0.1058
 2655W        W45671  11.608   5.678   2.779 -0.0285 -0.1475 -0.1937
 2656W        W45672   6.160   4.974  27.496  0.2091 -0.0682 -0.0489
 2657W        W45673  17.680  24.647  24.793  0.1883  0.0646  0.2913
 2658W        W45674  14.748  17.148  23.570  0.1236  0.0933  0.0189
 2659W        W45675  20.029  31.368  24.761 -0.2823 -0.3159  0.1514
 2660W        W45676  23.932  12.990   7.613 -0.1409 -0.1373  0.0623
 2661W        W45677   1.177   0.375   0.560 -0.2631  0.2710 -0.2302
 2662W        W45678  32.998  20.293  25.888 -0.0835 -0.0904 -0.0840
 2663W        W45679   0.930  11.307  26.791  0.1297  0.1850 -0.1125
 2664W        W45680  26.572  16.755   5.392  0.1596 -0.0186  0.3478
 2665W        W45681  12.994  15.769  24.976  0.2723 -0.0012 -0.2842
 2666W        W45682  32.472   4.668   5.487  0.3564 -0.0801  0.3976
 2667W        W45683  11.352  12.582  19.019 -0.0462 -0.0823  0.0007
 2668W        W45684   4.277  28.523  21.693  0.1800  0.1967  0.0549
 2669W        W45685   9.007   0.836  27.570 -0.1068 -0.2559 -0.1049
 2670W        W45686   1.914  13.376   6.497  0.0463  0.3110 -0.1355
 2671W        W45687  24.209  16.534   6.580  0.3629  0.1557  0.1639
 2672W        W45688  31.076  30.835  18.619 -0.1673 -0.0919 -0.0686
 2673W        W45689  17.371  25.366   4.135 -0.3181 -0.0102 -0.1013
 2674W        W45690  24.488  12.311   5.652 -0.1921  0.2344  0.0764
 2675W        W45691  21.143  26.537   8.684  0.1305  0.1040  0.0094
 2676W        W45692  27.508  10.642   4.353  0.0038 -0.0208 -0.3327
 2677W        W45693  22.454  32.960  28.518  0.2385  0.0214  0.0575
 2678W        W45694  25.174  26.027  23.865  0.1023 -0.2138 -0.4209
 2679W        W45695  31.160  27.217  17.469  0.0372  0.0230 -0.1898
 2680W        W45696  11.244  11.138  22.051  0.1393  0.0620  0.0402
 2681W        W45697   3.699  26.821   4.705 -0.0059  0.0329  0.0545
 2682W        W45698  22.947  13.145   1.173  0.1340  0.1827 -0.2314
 2683W        W45699  13.569   0.308   7.575  0.1932  0.2027  0.3837
 2684W        W45700  20.499   1.037   3.237  0.1775  0.0970 -0.0205
 2685W        W45701  28.898  28.125  11.084 -0.2506  0.1069 -0.0999
 2686W        W45702  23.778   4.466   3.694  0.4460 -0.0449  0.0615
 2687W        W45703  15.903  17.294  27.351 -0.3802 -0.0100 -0.0974
 2688W        W45704   7.424  16.034   8.302 -0.0318 -0.0531  0.0877
 2689W        W45705  13.305  22.942  22.753  0.3065 -0.4039 -0.0414
 2690W        W45706  17.538  16.442  26.796 -0.2872  0.2098 -0.0342
 2691W        W45707  19.410  29.832   2.947 -0.1284  0.1934 -0.1682
 2692W        W45708   9.284  13.096   7.972 -0.0153 -0.1055  0.2919
 2693W        W45709  14.488  19.456   1.134  0.0525  0.0697 -0.0773
 2694W        W45710   2.194  17.528   1.644 -0.2045  0.3191 -0.1213
 2695W        W45711  12.892  11.103  26.730  0.4477  0.2407  0.0708
 2696W        W45712  27.248   6.027  18.893 -0.2058  0.1256 -0.2059
 2697W        W45713   3.799   3.861   7.705  0.0917 -0.4625 -0.0836
 2698W        W45714  30.596   9.236  21.469 -0.2098 -0.3121  0.0587
 2699W        W45715  22.434  33.274   0.319  0.0124  0.1264  0.2474
 2700W        W45716   9.891  23.582   4.337  0.0305  0.0708  0.2922
 2701W        W45717  25.380  29.560   9.480  0.0580  0.1584 -0.2888
 2702W        W45718  18.966  15.162   6.677 -0.1504 -0.2399 -0.1981
 2703W        W45719   9.293  24.366   2.414 -0.0802 -0.1081 -0.0357
 2704W        W45720  10.684  17.529   6.325 -0.1697 -0.1161  0.1478
 2705W        W45721  24.677  23.137   9.517 -0.4412  0.1724  0.2458
 2706W        W45722  15.980  16.502  20.126 -0.2894  0.0775  0.1334
 2707W        W45723  16.927  23.204  25.142  0.0285 -0.0824  0.0982
 2708W        W45724  23.958   4.304   5.964 -0.0691  0.0069  0.1620
 2709W        W45725   1.953   9.343   2.108  0.0385  0.0271 -0.0494
 2710W        W45726  24.621  15.001   4.727  0.2836  0.1002  0.0395
 2711W        W45727  14.278  10.521   8.633  0.2285  0.0521  0.0687
 2712W        W45728  32.226  11.721  20.582  0.2264  0.2822 -0.0241
 2713W        W45729  16.051   3.218   6.016 -0.1456 -0.1652 -0.1431
 2714W        W45730  32.304   6.539   5.808 -0.0484 -0.1881  0.2123
 2715W        W45731  24.396  12.741   0.608  0.3740  0.0233 -0.6663
 2716W        W45732  10.209  16.005  25.643 -0.0141  0.1799 -0.3560
 2717W        W45733  23.571  20.442   9.698 -0.2289 -0.2033  0.2895
 2718W        W45734  33.643  13.889   7.272  0.0045 -0.1213  0.1987
 2719W        W45735   6.244   7.387   9.026  0.1688  0.1487 -0.0577
 2720W        W45736  16.679   3.717   5.579  0.1871  0.2981 -0.1840
 2721W        W45737  25.667  23.983   4.165 -0.0220  0.3358 -0.0936
 2722W        W45738  10.512  19.479  25.677 -0.1734 -0.3402 -0.1214
 2723W        W45739  18.736  16.326   5.375 -0.0163  0.0280  0.0277
 2724W        W45740  30.644  27.113  11.657 -0.1045  0.1542 -0.0959
 2725W        W45741  33.395  13.683  24.957 -0.1941  0.0561  0.1452
 2726W        W45742  23.463  33.723   4.225 -0.0236  0.0190 -0.2565
 2727W        W45743  27.973  10.967   7.238 -0.3414 -0.1693  0.0185
 2728W        W45744   8.465  15.706  25.841  0.1773  0.3418  0.2136
 2729W        W45745  22.117  17.581  23.506 -0.2706 -0.0837 -0.0043
 2730W        W45746  30.332  27.733   7.286  0.1601  0.1351 -0.0019
 2731W        W45747  15.495  22.826   4.481 -0.0394 -0.1807  0.3593
 2732W        W45748  20.247  16.773   4.397  0.1580 -0.0232 -0.0750
 2733W        W45749  11.731  28.137   5.822 -0.1142  0.0479 -0.0496
 2734W        W45750  14.658  15.242  25.391 -0.2436 -0.0146  0.1159
 2735W        W45751  10.673  16.054  20.724  0.3162 -0.0880  0.1508
 2736W        W45752  28.864  24.770   8.721 -0.0452 -0.0892 -0.2726
 2737W        W45753  32.266  19.024   6.766 -0.0662  0.0457  0.1285
 2738W        W45754  21.720  11.781   6.792 -0.2064  0.0497  0.0384
 2739W        W45755  28.479  32.588   0.225  0.0705 -0.0727 -0.0894
 2740W        W45756   3.416   1.724  18.739  0.3743 -0.2259 -0.0906
 2741W        W45757  25.599  22.106   6.575  0.2044 -0.1418 -0.0804
 2742W        W45758  18.326  14.199   7.072 -0.2525 -0.1518 -0.0073
 2743W        W45759   5.289  20.202  28.792 -0.0849  0.1224  0.0731
 2744W        W45760  13.528   1.922   4.734 -0.0539  0.0088 -0.1043
 2745W        W45761  21.830  16.856   5.245 -0.1299 -0.2968 -0.2604
 2746W        W45762  19.981  10.769   0.506 -0.0895 -0.1450  0.0467
 2747W        W45763   4.363  21.001   3.962  0.1095  0.2327 -0.2123
 2748W        W45764  30.828  22.814  20.331  0.0240 -0.1328 -0.0868
 2749W        W45765  28.378   9.472  25.674 -0.4945  0.0427  0.3260
 2750W        W45766   1.819  26.765  20.071  0.0315 -0.1564 -0.4523
 2751W        W45767  18.382  13.457  27.556 -0.2267  0.1305  0.0000
 2752W        W45768  31.962  10.982   2.341  0.1549  0.0210  0.2575
 2753W        W45769  11.214  20.642  28.579 -0.0560  0.0769  0.0868
 2754W        W45770  21.004   7.384  24.615 -0.0326 -0.0052 -0.0260
 2755W        W45771  24.922  21.985   7.663  0.1201 -0.1596  0.0568
 2756W        W45772  28.100  13.453  27.518  0.2150  0.4509  0.0408
 2757W        W45773  30.105   0.890  19.081 -0.0310  0.0082 -0.1322
 2758W        W45774  26.873   2.353   2.267  0.0753  0.1198 -0.1781
 2759W        W45775  34.523  24.048   7.309 -0.3420  0.1869 -0.1632
 2760W        W45776  24.254  22.016   9.082 -0.0598  0.0763  0.1737
 2761W        W45777  27.739  14.487   9.220 -0.0801 -0.2925 -0.1394
 2762W        W45778  12.524   7.710   5.997 -0.1858  0.4241 -0.0960
 2763W        W45779   9.598  22.034   6.144 -0.0965  0.2062  0.0733
 2764W        W45780  34.680  24.339  21.805  0.0823 -0.1013  0.0491
 2765W        W45781  23.241  10.467   2.556  0.2072  0.1324 -0.1104
 2766W        W45782  21.502  22.008   5.929 -0.2239  0.0715 -0.0688
 2767W        W45783  31.659  20.049  23.610  0.1610 -0.1430 -0.3679
 2768W        W45784  20.805   5.600   8.131 -0.2748  0.3065 -0.0649
 2769W        W45785   8.019   1.206  22.412  0.0526 -0.2000  0.2041
 2770W        W45786  30.732   0.360   3.745 -0.2851  0.0329 -0.1824
 2771W        W45787  16.004  25.308   8.255  0.2256 -0.1565  0.0462
 2772W        W45788  20.762  23.301   2.517  0.2591  0.0859  0.1668
 2773W        W45789   5.730   0.429   4.729 -0.0051  0.1529  0.1539
 2774W        W45790  16.467  14.768  27.924 -0.3864 -0.0485 -0.0836
 2775W        W45791  15.670   3.048   8.598 -0.0705 -0.2097  0.1118
 2776W        W45792  27.725  10.260   4.745  0.3760  0.1814 -0.1512
 2777W        W45793  11.082  32.106   9.750 -0.2616  0.0915  0.1182
 2778W        W45794  26.339  26.624  28.392 -0.2472 -0.1768  0.0690
 2779W        W45795  16.948  27.056   5.008  0.1908 -0.0159  0.1255
 2780W        W45796   6.944  11.305  29.143  0.3075  0.2668 -0.2485
 2781W        W45797  11.689  33.542  10.116 -0.1055 -0.1043 -0.0163
 2782W        W45798  17.925  18.437  27.141  0.0531  0.1215  0.1358
 2783W        W45799  12.459   6.702   0.832 -0.1323 -0.4091  0.0245
 2784W        W45800  27.808  24.996   9.337 -0.3091 -0.3072  0.2814
 2785W        W45801  24.080  26.989   9.624  0.0331  0.2252  0.1408
 2786W        W45802   6.724  11.911  26.653  0.3249  0.1594 -0.0369
 2787W        W45803   9.465  17.777  25.309 -0.0902  0.3500  0.2731
 2788W        W45804   8.110   4.675   2.142  0.1364  0.0990 -0.0496
 2789W        W45805  23.718  21.797   7.648  0.3125 -0.1275  0.0169
 2790W        W45806  25.583  32.756  26.761  0.3305 -0.3939  0.2351
 2791W        W45807  26.348  20.198   6.608  0.1240  0.1579  0.2595
 2792W        W45808  13.054   9.527   5.869  0.2272  0.3126  0.1879
 2793W        W45809  26.073   2.506   5.365 -0.0140  0.0147  0.0960
 2794W        W45810  23.687  16.022   0.259 -0.1403  0.0233 -0.0632
 2795W        W45811  33.849  16.620   4.798  0.0446 -0.0474  0.1259
 2796W        W45812   8.789   9.019   6.139  0.3119 -0.1061  0.0642
 2797W        W45813   2.765   9.400   9.409 -0.0770  0.1594 -0.0482
 2798W        W45814  19.238   3.745   4.875  0.2112 -0.4203 -0.2075
 2799W        W45815  28.170  14.277   6.943  0.0898 -0.1539  0.4703
 2800W        W45816  23.238   9.361  23.023 -0.2225  0.2262  0.1621
 2801W        W45817  14.322  20.024  22.092 -0.1166 -0.2131 -0.5008
 2802W        W45818  33.371  18.751   9.914  0.0886 -0.2237  0.2127
 2803W        W45819  11.526   7.893  21.585  0.2269  0.3227 -0.0031
 2804W        W45820  27.090  17.556   9.675 -0.3695 -0.1395  0.0722
 2805W        W45821  19.349  34.421  28.930  0.3275 -0.0307  0.1929
 2806W        W45822  10.012   9.262   6.541  0.2747  0.3985 -0.2053
 2807W        W45823  16.571  31.467   8.131 -0.2023  0.0066  0.0297
 2808W        W45824  22.773  15.225   0.467 -0.2792  0.2670  0.2635
 2809W        W45825  26.217  20.745  28.563  0.2206  0.0790  0.2191
 2810W        W45826  14.530  25.942   8.897 -0.1777 -0.1538 -0.0617
 2811W        W45827   2.516  16.857   7.490 -0.1331 -0.0751 -0.3449
 2812W        W45828  21.907  18.220   8.295  0.0816 -0.1560 -0.0768
 2813W        W45829  27.268  10.057   1.084 -0.0160 -0.0494  0.2095
 2814W        W45830  12.034  17.418   6.151 -0.0880 -0.0713  0.3069
 2815W        W45831  26.360  27.353   8.982 -0.0635  0.0944 -0.3180
 2816W        W45832  28.986  25.526  10.569 -0.2395  0.1493  0.1073
 2817W        W45833  25.685   2.062   9.542  0.1402  0.1061 -0.1179
 2818W        W45834  28.825  13.373   2.767 -0.1583 -0.0632  0.0776
 2819W        W45835  17.391   9.506   7.823  0.2958 -0.2347 -0.2035
 2820W        W45836   8.317   0.723   1.385 -0.2449  0.0580 -0.1398
 2821W        W45837  24.859  21.041   4.115 -0.0263  0.2422  0.1391
 2822W        W45838  14.380  17.784   6.519 -0.1028 -0.2367 -0.0488
 2823W        W45839  22.302  14.856   7.534  0.3582  0.3209  0.2219
 2824W        W45840  30.006  17.636   5.758  0.0018  0.1758  0.1765
 2825W        W45841  24.681  14.429   2.967 -0.1924 -0.0264  0.2951
 2826W        W45842  23.059  18.800   5.240 -0.1620 -0.0599  0.2885
 2827W        W45843   9.262  10.446   7.257  0.2109 -0.1543  0.3061
 2828W        W45844  20.586  25.582  15.760 -0.0711  0.0174 -0.1291
 2829W        W45845  19.277  17.018   1.415  0.0552 -0.1207  0.2474
 2830W        W45846  29.497   0.904   2.888 -0.0748  0.4137 -0.2450
 2831W        W45847   5.438   9.756   7.277 -0.1048  0.0435  0.0470
 2832W        W45848   7.477   9.549  10.442 -0.1160 -0.1086 -0.1183
 2833W        W45849  14.934  13.727  27.348 -0.0110 -0.0432  0.1794
 2834W        W45850  23.810  14.313   5.110  0.1895 -0.0315  0.0307
 2835W        W45851  16.611  18.561   3.332 -0.0278  0.0829  0.1036
 2836W        W45852  27.047  27.207  20.562 -0.0075 -0.1588 -0.3521
 2837W        W45853  28.396  20.661   9.941 -0.0671  0.0671  0.0103
 2838W        W45854  18.458  33.576   0.006 -0.0249  0.1464  0.0879
 2839W        W45855  20.242  24.440  18.625 -0.1398  0.0221 -0.1201
 2840W        W45856  16.758  10.317   6.805 -0.0473 -0.1897  0.6539
 2841W        W45857  24.897  29.079   0.589 -0.0910 -0.1580  0.2122
 2842W        W45858  23.595  17.541   9.071 -0.0360 -0.2570 -0.3254
 2843W        W45859  13.973   1.393   2.040 -0.5865 -0.2485 -0.1770
 2844W        W45860  20.027  12.079  29.222  0.2840  0.0285  0.0413
 2845W        W45861  23.067  16.300   3.059 -0.1896  0.1468  0.2820
 2846W        W45862  14.559   1.644   5.015 -0.1270  0.2882  0.2735
 2847W        W45863   1.153  30.200   7.980 -0.0802  0.2296 -0.0945
 2848W        W45864  34.464  15.577   1.725 -0.1982 -0.1327 -0.0640
 2849W        W45865  20.096  23.286  29.160 -0.0329 -0.2559  0.0398
 2850W        W45866  34.091  20.828   3.761  0.1885  0.1588  0.1961
 2851W        W45867  22.121   0.479  28.962  0.0061  0.0066 -0.0655
 2852W        W45868  16.504  18.612   5.582  0.0648  0.1148  0.0675
 2853W        W45869  23.303  25.112  22.441 -0.0082  0.1838 -0.3882
 2854W        W45870  25.155  10.769  29.104 -0.0779  0.0213  0.1750
 2855W        W45871   3.947  18.317  21.574  0.1574  0.0025  0.1977
 2856W        W45872   8.919   0.435   1.692  0.0907  0.0263  0.0305
 2857W        W45873  27.714  11.530   7.899 -0.0589 -0.1367  0.2547
 2858W        W45874  23.639  13.155  27.918  0.0210 -0.0386 -0.0829
 2859W        W45875  23.952  10.359  20.702 -0.2445  0.0341 -0.1744
 2860W        W45876  34.209  32.607   5.765 -0.0567  0.0105  0.0157
 2861W        W45877  12.684   8.707   5.926  0.0547 -0.0647 -0.1178
 2862W        W45878  24.873  17.727   6.412  0.0397 -0.0643  0.1093
 2863W        W45879  25.454  14.303   7.136  0.0507  0.1226 -0.1009
 2864W        W45880  17.376  31.136   9.428  0.1441  0.3607 -0.1324
 2865W        W45881  20.956   9.505   8.191 -0.1698  0.0452 -0.0506
 2866W        W45882  22.609  20.086  21.404  0.3119  0.2369  0.2020
 2867W        W45883  10.185  12.373  29.034  0.2566 -0.0625 -0.1208
 2868W        W45884  21.621  20.747   1.883  0.1310 -0.2240 -0.3805
 2869W        W45885  16.245  20.956  24.161  0.0576  0.3125  0.0943
 2870W        W45886  13.142  26.922  16.768  0.1013 -0.0499  0.1871
 2871W        W45887  20.797  11.073   0.108 -0.2161 -0.0289 -0.0515
 2872W        W45888  14.859  24.888   6.536  0.1343  0.0286 -0.1553
 2873W        W45889  11.619   6.992   8.188  0.1898 -0.4751  0.0730
 2874W        W45890  17.252  10.431   4.103  0.3384 -0.1133  0.3845
 2875W        W45891  31.718  23.121   5.833 -0.1016 -0.1913  0.2516
 2876W        W45892  25.233  24.091   8.640  0.1404 -0.3994 -0.2619
 2877W        W45893  13.174  23.473   7.795 -0.0133 -0.2077  0.0363
 2878W        W45894  20.794  29.201  11.022  0.1510 -0.3175 -0.0203
 2879W        W45895  15.618  20.092   6.468 -0.0635  0.3299 -0.0214
 2880W        W45896  18.193  12.524   6.325  0.3319  0.1067  0.1259
 2881W        W45897  20.527  32.311  26.316  0.0532  0.3122 -0.3467
 2882W        W45898  24.129  11.696   7.597  0.0393  0.3359 -0.3748
 2883W        W45899   9.848  17.644   1.683  0.1531 -0.5828 -0.4985
 2884W        W45900   5.226  22.749  28.534  0.1666 -0.1857  0.2510
 2885W        W45901  17.997  33.219  29.204 -0.2398  0.0495  0.1501
 2886W        W45902  20.741  18.926   0.394  0.1748  0.3280  0.1438
 2887W        W45903  18.895  32.781   2.635  0.0166  0.0526 -0.0075
 2888W        W45904  24.749  15.774   0.744 -0.0840  0.4282 -0.0607
 2889W        W45905  20.381  10.200   2.305  0.1089 -0.0331  0.4125
 2890W        W45906  34.274  24.456   5.404 -0.1906 -0.2514 -0.0854
 2891W        W45907  25.704   4.924   7.083  0.2259 -0.0872  0.0468
 2892W        W45908   3.070  12.804   1.626 -0.1093  0.0322  0.2241
 2893W        W45909  26.500   6.762  22.602  0.1908  0.0184 -0.0224
 2894W        W45910  34.335  13.235   3.455 -0.2527 -0.1920  0.0909
 2895W        W45911   0.165  20.822   5.276 -0.0970 -0.2170 -0.1901
 2896W        W45912  22.049  17.240   4.808  0.3592 -0.2153 -0.1750
 2897W        W45913  12.534   9.778   6.704  0.0076 -0.2308 -0.1686
 2898W        W45914   0.054  12.855   9.885  0.3353  0.1863 -0.2437
 2899W        W45915  14.415  25.261   9.138  0.0667  0.1414 -0.2066
 2900W        W45916  11.518  27.672   6.678 -0.0373  0.1422  0.0924
 2901W        W45917   2.166  16.562   2.130 -0.1246  0.1864 -0.2837
 2902W        W45918  16.051   6.627   5.689 -0.1513  0.0595  0.0754
 2903W        W45919  16.745  25.171  16.899  0.0967 -0.0063  0.3016
 2904W        W45920   3.604  17.188  22.841 -0.1949  0.1027  0.2820
 2905W        W45921   3.337  20.562   7.028  0.1426 -0.1306  0.2016
 2906W        W45922  18.222   0.113   6.207  0.1007 -0.3269 -0.0419
 2907W        W45923   3.388  14.684   8.478  0.0168  0.0226 -0.0113
 2908W        W45924  18.127  25.824  23.096  0.1058 -0.2409 -0.4147
 2909W        W45925  20.469  18.628   2.790  0.0872 -0.1167 -0.0776
 2910W        W45926  25.252  18.939   9.068 -0.0927  0.0770  0.0533
 2911W        W45927   9.600  20.982  19.137  0.0081  0.1377  0.2484
 2912W        W45928  23.043  28.913  25.220 -0.1096  0.0257  0.0155
 2913W        W45929   3.636   9.312   3.847  0.1337  0.1420 -0.2151
 2914W        W45930  12.812  19.594  19.454 -0.2317 -0.0214 -0.0973
 2915W        W45931  15.499  12.307   2.013 -0.3095 -0.2244 -0.1147
 2916W        W45932  16.716  22.259  21.136 -0.1170  0.0418  0.3021
 2917W        W45933  22.224  23.043   5.820 -0.1202  0.1675  0.3379
 2918W        W45934  19.819  13.363   4.315 -0.1491  0.0353  0.0659
 2919W        W45935  28.154  28.372   1.864 -0.0855  0.3177  0.0649
 2920W        W45936  16.506  19.931   3.442 -0.2587 -0.0495  0.1664
 2921W        W45937  11.591  14.456   2.983 -0.1011  0.0276  0.0239
 2922W        W45938  26.295  20.564   0.452 -0.0202 -0.3714  0.0907
 2923W        W45939   2.449  24.541  26.297  0.1688  0.1599 -0.0469
 2924W        W45940  11.093  18.944  27.309 -0.1883  0.0712 -0.0132
 2925W        W45941   3.986   5.957  28.014 -0.0851  0.1658 -0.0235
 2926W        W45942  22.271  13.338   6.106  0.0353  0.1622  0.2905
 2927W        W45943  16.787  15.281  21.938  0.0024  0.0202  0.4930
 2928W        W45944   5.908   9.071  29.128 -0.0281  0.1390  0.0779
 2929W        W45945   6.134  18.080  26.335 -0.2498 -0.0333  0.0629
 2930W        W45946  34.248  23.658  17.813 -0.4523  0.1641  0.1152
 2931W        W45947  20.462  10.579   0.490 -0.0290  0.0054  0.1824
 2932W        W45948  27.915  32.060  26.944  0.3709  0.1117  0.1995
 2933W        W45949  21.271  14.860  15.288  0.3574 -0.3439 -0.0245
 2934W        W45950   6.354  27.154  21.566 -0.0789 -0.0485  0.1854
 2935W        W45951  10.165  10.887   5.743 -0.3250  0.1319  0.0841
 2936W        W45952  20.977  15.674  26.833  0.1164 -0.0406 -0.2149
 2937W        W45953  14.903  17.026  27.059 -0.1464 -0.0197 -0.1752
 2938W        W45954  23.075  15.504   4.214  0.1239 -0.2219 -0.0811
 2939W        W45955  15.020  10.277  27.607 -0.1047  0.4277 -0.0778
 2940W        W45956  19.352  16.091  24.487 -0.1293  0.2124  0.0576
 2941W        W45957  15.725  19.204   4.570  0.1609  0.4700 -0.2003
 2942W        W45958  16.936  12.220   7.593  0.0531  0.3096  0.0331
 2943W        W45959  24.560  16.398   1.452 -0.0401  0.2402  0.2245
 2944W        W45960  20.032  11.516   8.264 -0.0672 -0.2192 -0.1835
 2945W        W45961   9.716  27.342  20.370  0.1847  0.1082 -0.1617
 2946W        W45962  20.049  29.844   8.183  0.0857  0.0095  0.3102
 2947W        W45963  23.946   2.914   7.794 -0.1880 -0.2241  0.0645
 2948W        W45964  24.248   3.214   3.929 -0.0528 -0.1194  0.0808
 2949W        W45965  16.293  19.294   6.714 -0.1425 -0.3960  0.0226
 2950W        W45966  12.252   7.807  28.235  0.0743  0.5029 -0.1221
 2951W        W45967  22.866  12.935   5.604  0.0252 -0.4995  0.1048
 2952W        W45968  10.799   7.410   3.654  0.1327  0.1620 -0.2897
 2953W        W45969  17.614  18.068  28.908 -0.0195  0.0937 -0.2218
 2954W        W45970  12.033  14.230  26.306 -0.0752  0.1136  0.2936
 2955W        W45971  16.271  16.105   1.638  0.0837 -0.0561 -0.0382
 2956W        W45972  12.208  29.732   9.218 -0.2870  0.0820  0.1674
 2957W        W45973  23.953  22.271   4.939 -0.0101 -0.4666  0.0491
 2958W        W45974  14.591  16.948  20.797 -0.4827 -0.0799  0.1239
 2959W        W45975  27.086  27.113  28.508  0.0665  0.1496 -0.4327
 2960W        W45976  15.097  31.758   7.385  0.0884 -0.3537  0.1154
 2961W        W45977  20.300  16.020   5.065  0.0777  0.2155 -0.2157
 2962W        W45978  22.068   9.915   4.445 -0.0806  0.4354  0.0940
 2963W        W45979   4.938  16.263   0.373  0.2398  0.0302  0.1393
 2964W        W45980  19.410   2.864   5.247 -0.1404  0.0903 -0.0342
 2965W        W45981  22.610  11.729  22.830 -0.1345  0.1945 -0.1886
 2966W        W45982  17.772  11.896  19.655 -0.0058 -0.1597 -0.0969
 2967W        W45983  16.787  18.012  20.969 -0.1924 -0.1945 -0.0629
 2968W        W45984  25.835   1.681   0.246  0.2355 -0.1021  0.0298
 2969W        W45985   6.820   6.169  26.720 -0.0123  0.0049 -0.1820
 2970W        W45986  11.360  30.463  28.266 -0.1933 -0.3346  0.0505
 2971W        W45987   9.434   9.198   9.324 -0.0194  0.1920 -0.0779
 2972W        W45988   6.039  31.844   7.957  0.4321 -0.1999  0.1806
 2973W        W45989  27.380  10.861   9.948 -0.2893  0.3444  0.0620
 2974W        W45990   0.855  23.924   6.883  0.1698  0.1166  0.1984
 2975W        W45991  25.936  19.813   0.120  0.0995 -0.2550  0.3788
 2976W        W45992  33.540  30.092   2.066  0.2185  0.1730  0.0882
 2977W        W45993  30.016  10.424  26.385 -0.4350  0.0026 -0.0588
 2978W        W45994   4.981  18.425   5.567  0.0066  0.1535  0.3872
 2979W        W45995  17.430   5.478   8.634 -0.0223  0.2880  0.0054
 2980W        W45996   0.120  20.153  26.829  0.1527 -0.0386  0.1543
 2981W        W45997  21.957  20.330  25.029 -0.2813  0.3452 -0.2859
 2982W        W45998   3.570  16.768   7.003  0.3462 -0.4823  0.3042
 2983W        W45999  12.934  12.782  25.942 -0.2264 -0.2618  0.0482
 2984W        W46000   7.116  20.766   3.487  0.2431  0.0340  0.2357
 2985W        W46001   4.850  13.246   2.807 -0.2636 -0.1530  0.1264
 2986W        W46002   1.073  27.037   5.682 -0.3791  0.2335 -0.1667
 2987W        W46003   3.902  23.824  28.624  0.2459 -0.1286  0.1078
 2988W        W46004  18.306  17.278   8.539  0.0825 -0.0060  0.4207
 2989W        W46005  12.786  19.137  15.046 -0.1437  0.0520 -0.0630
 2990W        W46006   0.500   1.390   2.847 -0.0517  0.0199 -0.1666
 2991W        W46007  21.605   2.872   3.076 -0.4826  0.0934  0.0199
 2992W        W46008  17.896  20.504   5.778  0.2077 -0.0501  0.4081
 2993W        W46009  11.283  13.836   2.447  0.3076 -0.3053 -0.0461
 2994W        W46010   2.729  17.861   0.103  0.2830  0.0429 -0.0837
 2995W        W46011   2.860  15.452   5.386 -0.0786  0.2447  0.3008
 2996W        W46012  19.105  19.929   4.432 -0.1937 -0.0287 -0.0999
 2997W        W46013  16.432  32.767   1.125  0.1006 -0.0960 -0.1043
 2998W        W46014  24.414  12.693  23.970 -0.0312 -0.1083 -0.0574
 2999W        W46015  30.839  17.103   8.892  0.2748 -0.2842 -0.1063
 3000W        W46016  26.672   5.861  10.307 -0.4401 -0.1593 -0.1533
 3001W        W46017  27.091   8.256   9.493  0.1267 -0.2341 -0.0962
 3002W        W46018  27.723   7.925  20.269 -0.1959  0.0576  0.3559
 3003W        W46019  11.663  15.560  27.615  0.0333  0.0755  0.3650
 3004W        W46020   5.953  12.226  21.370  0.1370  0.2309 -0.1042
 3005W        W46021   5.421  29.765   4.340  0.2702 -0.0247 -0.1450
 3006W        W46022   7.747   2.747   4.254  0.1071 -0.3545 -0.1037
 3007W        W46023  17.606   0.501  25.267 -0.0050  0.0378 -0.0362
 3008W        W46024   8.800  32.447   4.031  0.1503  0.0047 -0.3495
 3009W        W46025  28.438   4.113   8.280 -0.0793  0.1709 -0.0012
 3010W        W46026   2.054  10.798   8.635  0.1814 -0.0610  0.0075
 3011W        W46027  20.645  14.305   3.971  0.1177  0.0881  0.1410
 3012W        W46028   3.562  14.006   2.518 -0.0777  0.1659 -0.2268
 3013W        W46029  10.681   6.503   4.267 -0.1576 -0.0889  0.2267
 3014W        W46030   5.044   8.465   4.997  0.0977  0.0678  0.1726
 3015W        W46031  15.200  19.891   6.036  0.0354  0.2715 -0.2510
 3016W        W46032   8.135  16.264   4.711 -0.0906 -0.2921  0.0432
 3017W        W46033   9.309  24.981   1.535 -0.0011  0.1760  0.1510
 3018W        W46034  11.416  33.428  21.292  0.0261  0.2304 -0.1571
 3019W        W46035  31.216   6.737   5.170 -0.1305  0.0873 -0.2044
 3020W        W46036   7.957   6.879   4.996 -0.0386 -0.1555  0.0313
 3021W        W46037  17.034  30.394   7.861  0.0580 -0.1984 -0.2304
 3022W        W46038  25.718  14.378   2.567  0.0407 -0.3925  0.1403
 3023W        W46039  12.038   0.612   5.668  0.1902 -0.0202 -0.4198
 3024W        W46040  14.958  19.695   1.083  0.1967  0.2174 -0.2870
 3025W        W46041  18.856  16.072   4.721 -0.0291  0.2568 -0.1563
 3026W        W46042  15.128  16.182   7.026 -0.2632  0.1653 -0.0041
 3027W        W46043  14.968   8.398   6.129  0.0926 -0.2300 -0.2102
 3028W        W46044  30.753   0.312  16.944 -0.0130  0.3370 -0.0139
 3029W        W46045  22.303  23.880   5.628 -0.2311 -0.1693  0.0606
 3030W        W46046  31.877  19.870  28.443 -0.1686 -0.2773 -0.0352
 3031W        W46047  11.556  25.328   4.728 -0.2302  0.5231 -0.5014
 3032W        W46048  18.517  29.229   1.398 -0.3243 -0.1483  0.1175
 3033W        W46049   6.986  16.461  20.862 -0.0599 -0.0903  0.0696
 3034W        W46050  19.295  17.211   3.356  0.0183  0.0732  0.0946
 3035W        W46051  18.960  14.121   8.800  0.0157 -0.1092  0.2229
 3036W        W46052   6.694  12.880   3.859  0.0335 -0.0236 -0.1326
 3037W        W46053  20.520  17.487   7.894 -0.1707  0.3799 -0.2989
 3038W        W46054  13.456   7.900  13.125  0.1024 -0.0309  0.0571
 3039W        W46055  17.204   7.591  26.672 -0.2433 -0.3450 -0.1151
 3040W        W46056   3.574  15.893  13.332 -0.1011  0.2197 -0.0288
 3041W        W46057  28.157   6.936  10.042 -0.0205  0.0744 -0.0972
 3042W        W46058  10.178  21.385   5.457 -0.0850 -0.3536 -0.3194
 3043W        W46059  25.296  26.942  24.327 -0.0251  0.0941  0.0682
 3044W        W46060  18.962  20.351  25.023  0.0601  0.0025 -0.3086
 3045W        W46061   9.411  24.566  29.085 -0.2679 -0.0942  0.1340
 3046W        W46062  11.403   3.772  26.861  0.1907  0.1623  0.2058
 3047W        W46063  27.407  21.443   5.105 -0.1424  0.1453 -0.0279
 3048W        W46064  32.786  19.880   9.697  0.2190 -0.2260  0.2460
 3049W        W46065   3.155   5.894  28.719  0.1864  0.2923  0.0012
 3050W        W46066  22.828   8.443   8.756  0.0760 -0.2648  0.0446
 3051W        W46067  25.343   9.385   1.114  0.4073  0.2538  0.4576
 3052W        W46068  31.248  11.683   7.141 -0.3925 -0.0836  0.1538
 3053W        W46069  17.368  33.620   9.616 -0.1070 -0.2033  0.2875
 3054W        W46070  26.151  25.866   8.193  0.2045  0.1089  0.0852
 3055W        W46071  13.795   9.747   6.070 -0.1448 -0.1639  0.0047
 3056W        W46072  28.521  15.914   6.262 -0.3591  0.4681 -0.3883
 3057W        W46073  17.981  22.247  29.218  0.2176 -0.0539  0.2309
 3058W        W46074  16.089  23.666  21.235  0.0102  0.0282  0.1996
 3059W        W46075  13.406  21.169  20.812  0.1271  0.1559  0.1435
 3060W        W46076  11.088  12.291  25.106 -0.5331  0.1278  0.0859
 3061W        W46077  26.976  27.096   8.281 -0.3053  0.1270 -0.2533
 3062W        W46078   0.063  20.323   3.982 -0.4057 -0.3385 -0.1918
 3063W        W46079  22.645  16.757   8.233 -0.0724 -0.1093  0.3336
 3064W        W46080   7.253  24.363   9.414  0.2425 -0.0561  0.1312
 3065W        W46081   7.016   3.467   6.255  0.3196 -0.0775  0.0012
 3066W        W46082  29.269  13.035   8.748 -0.1612 -0.1154  0.0134
 3067W        W46083   8.340  20.406   2.885  0.0054  0.2366  0.1765
 3068W        W46084   4.637  26.718   4.984  0.2605 -0.0200 -0.0603
 3069W        W46085  23.209   6.313  28.218  0.1290  0.2429 -0.2656
 3070W        W46086  29.847  13.571  10.370 -0.0293 -0.2260 -0.1585
 3071W        W46087  18.475   3.433   0.403 -0.0932 -0.1892 -0.1140
 3072W        W46088   9.187  14.173   4.805 -0.2527 -0.0193 -0.1307
 3073W        W46089  22.554   2.519   4.378 -0.0267 -0.2002  0.1037
 3074W        W46090  12.493  21.411   7.947  0.0342  0.0466  0.1269
 3075W        W46091   7.672  19.212  14.094 -0.2787  0.0486  0.1297
 3076W        W46092   3.105  13.534   1.849  0.1241  0.0775  0.0912
 3077W        W46093  30.332  34.265  10.258  0.2504  0.3457 -0.4386
 3078W        W46094  16.599  31.425  15.334  0.1266  0.2338 -0.0958
 3079W        W46095  14.371  29.832   0.520 -0.1345 -0.1259 -0.1088
 3080W        W46096  33.966   7.695   0.799  0.2064  0.1036  0.1557
 3081W        W46097   7.551  22.809  13.363  0.1542  0.1455 -0.2390
 3082W        W46098  14.163  27.925  27.728  0.0200 -0.2034 -0.1485
 3083W        W46099  33.341  28.969  17.349  0.1953  0.1451  0.2238
 3084W        W46100  25.010  30.694   1.041 -0.1600 -0.0135 -0.0682
 3085W        W46101   8.748  21.468  25.263 -0.3631 -0.0593  0.0401
 3086W        W46102  20.570  14.554   5.034 -0.0039 -0.4212 -0.4581
 3087W        W46103  17.581  16.060  24.949  0.0724 -0.0034  0.0673
 3088W        W46104   2.006  13.540   5.997  0.0294 -0.1101  0.7048
 3089W        W46105  13.001   9.309   8.802 -0.1287  0.2268 -0.1055
 3090W        W46106  28.100  15.046   3.364  0.0084 -0.2829  0.0447
 3091W        W46107  15.824  10.131   8.534 -0.0322  0.0977  0.0978
 3092W        W46108  22.311  21.861   8.886  0.1346  0.3809 -0.0181
 3093W        W46109  22.931  21.427   3.951 -0.0306  0.0924 -0.1572
 3094W        W46110  11.650  12.289   6.368  0.2002  0.1394  0.1415
 3095W        W46111  14.341   8.446  28.249 -0.2159  0.1711  0.1956
 3096W        W46112  31.778  25.663   8.207 -0.0528  0.1515  0.0196
 3097W        W46113  19.034   7.594   6.031  0.3238 -0.0017 -0.0882
 3098W        W46114  24.528  10.888   0.951  0.1750  0.2629 -0.1019
 3099W        W46115   9.519   7.116   5.967  0.0612 -0.0427 -0.3248
 3100W        W46116  31.694  14.266   7.017  0.0098 -0.2077 -0.2609
 3101W        W46117  15.982  31.144   9.564  0.1564 -0.0951 -0.1558
 3102W        W46118  10.395  17.611  22.749 -0.2413  0.0531 -0.1471
 3103W        W46119  24.802  23.470   4.898 -0.1208 -0.1042 -0.0962
 3104W        W46120  27.581  14.923  26.230 -0.2340  0.0038  0.0876
 3105W        W46121  28.076  16.384  25.244  0.2247  0.0224  0.1520
 3106W        W46122  19.319  16.145   5.969 -0.1670 -0.1314 -0.0723
 3107W        W46123  17.657  24.274   1.317  0.1224  0.2662 -0.0803
 3108W        W46124  18.040  27.323   7.882 -0.1372 -0.1043  0.1508
 3109W        W46125  27.461  32.802   4.560  0.1877 -0.2500 -0.0529
 3110W        W46126  14.923   3.845   5.842  0.0440  0.1403 -0.1614
 3111W        W46127  10.408  13.266  17.220  0.0123  0.0120 -0.1848
 3112W        W46128  15.513  15.799  19.143 -0.0363 -0.1381  0.3430
 3113W        W46129   3.161   3.429  24.882  0.0378 -0.1511  0.1169
 3114W        W46130   6.076  19.698   5.367 -0.0170  0.2884 -0.0621
 3115W        W46131  17.011   8.133  28.449 -0.0551 -0.0490 -0.1605
 3116W        W46132  14.255   8.280  23.860  0.0946 -0.0570  0.0663
 3117W        W46133  14.128  27.134  22.236  0.0121  0.4365  0.2481
 3118W        W46134  20.209   8.239   8.583  0.0008  0.1539  0.3193
 3119W        W46135  18.783  18.642   7.050 -0.0468 -0.1616 -0.0301
 3120W        W46136  31.656  11.509  10.579 -0.1560  0.0542  0.0054
 3121W        W46137  20.848  27.609  19.513 -0.0381 -0.0076 -0.0196
 3122W        W46138  17.644  33.632   6.341 -0.1579 -0.1386  0.0170
 3123W        W46139  19.247  31.124   9.312 -0.3154  0.3278  0.5359
 3124W        W46140   1.750   2.652   8.361  0.0415 -0.0670  0.0060
 3125W        W46141  14.644   5.438   6.102  0.0647 -0.1474 -0.2277
 3126W        W46142  13.269  16.585   3.493 -0.2443 -0.0482  0.1206
 3127W        W46143  17.763  14.682  21.389 -0.3953  0.3742 -0.1251
 3128W        W46144  11.223  16.394   3.534  0.2642 -0.3062  0.1148
 3129W        W46145  25.086   5.878  28.112 -0.1282 -0.0832 -0.0473
 3130W        W46146   3.925  16.449  27.482  0.0248 -0.2259 -0.0813
 3131W        W46147  10.660   0.316  29.177  0.0349 -0.2196  0.1056
 3132W        W46148  10.004  30.344  23.618 -0.0893 -0.0558  0.1635
 3133W        W46149  21.771  19.815  28.302 -0.1362  0.1690 -0.0532
 3134W        W46150  16.299  30.633  10.130 -0.2366  0.2093  0.0536
 3135W        W46151   5.198   8.499   5.972 -0.2689  0.1715 -0.1231
 3136W        W46152   6.963  22.244   6.255  0.0846 -0.0808  0.1876
 3137W        W46153  10.405  32.922   7.048 -0.0949  0.2725 -0.3866
 3138W        W46154   2.330  22.648  26.457  0.3603 -0.1614  0.0613
 3139W        W46155  32.722  20.426   6.045 -0.4813 -0.3146  0.2176
 3140W        W46156  23.250  22.709  24.514  0.2948 -0.1256  0.3482
 3141W        W46157  18.278  19.402  28.125  0.1883 -0.2459  0.0272
 3142W        W46158   6.070  20.144   5.711 -0.0145 -0.2061 -0.1584
 3143W        W46159  24.975  11.472  28.893 -0.1354 -0.1686 -0.2508
 3144W        W46160   6.059  16.335  22.739 -0.1233  0.2355 -0.1287
 3145W        W46161  14.950   9.228   3.569 -0.1213  0.2631  0.0305
 3146W        W46162   1.908  22.108   0.474  0.0423  0.4698 -0.1674
 3147W        W46163  12.550  10.712   6.838 -0.0613  0.0169  0.0280
 3148W        W46164  21.851  20.654   3.976 -0.0437 -0.1817 -0.0461
 3149W        W46165  15.686  16.827  28.135 -0.0263 -0.2874  0.0390
 3150W        W46166  14.911   9.598  28.176 -0.1010  0.0498 -0.1416
 3151W        W46167  21.735  15.364  25.785 -0.0158  0.0963 -0.2956
 3152W        W46168  15.195  19.296  25.838 -0.3463 -0.2089  0.0613
 3153W        W46169   8.063   9.690  19.108 -0.1587 -0.2923  0.3832
 3154W        W46170  14.211  18.611   7.838 -0.1955 -0.3361 -0.0957
 3155W        W46171  10.344  16.660  23.972 -0.0382  0.0990 -0.0490
 3156W        W46172  16.782  22.230  24.164 -0.1737  0.4395 -0.0275
 3157W        W46173  16.259  11.634  17.427  0.3668 -0.1039  0.2640
 3158W        W46174  18.234  13.435   7.774  0.1926 -0.0548 -0.2431
 3159W        W46175   2.297  18.451   9.683 -0.2459 -0.0119  0.0989
 3160W        W46176   1.970  10.713   3.246 -0.0127 -0.3280  0.0586
 3161W        W46177  22.997   5.431   8.677  0.0456  0.2094 -0.1560
 3162W        W46178  23.763   9.932   6.366 -0.2666  0.0106 -0.0318
 3163W        W46179  23.213  27.859   9.350 -0.1497  0.4428  0.1066
 3164W        W46180  22.761   3.954   4.760  0.0524 -0.1689  0.0479
 3165W        W46181  25.988  27.466   0.004 -0.3111  0.4715 -0.2372
 3166W        W46182  31.258  13.844  24.345  0.0062 -0.2414  0.2105
 3167W        W46183  19.332  11.358   3.868 -0.2010  0.2726 -0.3103
 3168W        W46184  21.359  13.824   7.715 -0.0435 -0.1768  0.0013
 3169W        W46185  18.798  15.239   5.155 -0.2180  0.3525 -0.2820
 3170W        W46186  29.590   8.243  17.478 -0.0028  0.1865  0.2912
 3171W        W46187  13.704   4.615   6.559 -0.1196 -0.0041  0.0196
 3172W        W46188   5.468   4.107   8.732 -0.0177  0.1824 -0.2708
 3173W        W46189  19.326   0.022   4.281 -0.1738  0.2699  0.2066
 3174W        W46190  18.870  14.382  24.119 -0.1216  0.0933 -0.2403
 3175W        W46191   9.710  19.949   4.078  0.2207  0.0581 -0.0043
 3176W        W46192  16.372  17.405   7.297  0.2225  0.2112  0.2074
 3177W        W46193   3.929  22.643   2.746  0.1344  0.1829 -0.1404
 3178W        W46194  14.972  29.596  25.161 -0.1378 -0.0353 -0.1045
 3179W        W46195  12.818   0.879   5.280  0.0672 -0.0889 -0.2206
 3180W        W46196  15.159  29.730   2.138 -0.1310  0.3461  0.1218
 3181W        W46197  17.101   2.842   0.660 -0.0628 -0.1730 -0.0319
 3182W        W46198   8.302  22.573  27.338 -0.0747 -0.0067 -0.2949
 3183W        W46199  27.772   8.605   4.166  0.1596  0.1211  0.2280
 3184W        W46200  22.366   9.204   7.373  0.0914  0.0122  0.2932
 3185W        W46201  16.815   9.128   1.159  0.3950 -0.2605 -0.1247
 3186W        W46202  13.335   1.124   8.471  0.0743  0.1122  0.0003
 3187W        W46203  11.153  20.628  25.531 -0.2919 -0.1404  0.3036
 3188W        W46204  15.018  17.621   1.065 -0.0873  0.1613  0.0102
 3189W        W46205  28.591  27.236   6.338 -0.2868 -0.3259  0.0045
 3190W        W46206  14.478  12.260  24.053 -0.2871 -0.2581  0.1672
 3191W        W46207   9.839   4.542  26.459 -0.2222  0.3027 -0.0306
 3192W        W46208  29.619  14.183   8.003  0.0427  0.0951  0.4035
 3193W        W46209  29.654  19.439  10.689 -0.1531 -0.2388 -0.1556
 3194W        W46210  33.429  17.036   2.993 -0.1212 -0.1890  0.1620
 3195W        W46211  16.255   8.967   3.698  0.2786  0.3945  0.1369
 3196W        W46212  17.599  15.154  21.269 -0.1694  0.0804  0.0173
 3197W        W46213  20.319   1.237   5.260  0.2728 -0.0597 -0.0388
 3198W        W46214  15.551  19.453  27.805 -0.2895  0.3012 -0.0461
 3199W        W46215  14.821   4.065  27.371  0.1826 -0.0498 -0.2596
 3200W        W46216  24.702  27.583   9.809 -0.0934  0.3188 -0.1438
 3201W        W46217  27.521  13.617   4.454 -0.0371  0.3031  0.1690
 3202W        W46218  34.090  12.758   1.865 -0.0948 -0.0635  0.0496
 3203W        W46219  25.791  18.834  27.735 -0.1667 -0.0062 -0.0804
 3204W        W46220  25.432  10.236   3.450 -0.3483  0.0972 -0.3931
 3205W        W46221  15.532  28.771  24.387 -0.1335  0.1485 -0.2735
 3206W        W46222  31.104  23.392   3.036 -0.0904 -0.2138 -0.4783
 3207W        W46223  16.427  29.781   4.709  0.0143  0.0030 -0.2776
 3208W        W46224  16.304  22.683   3.198  0.0880 -0.0761 -0.0001
 3209W        W46225  19.188   3.986   4.422  0.0880  0.2284 -0.1199
 3210W        W46226  11.829   6.057   7.424 -0.0135  0.0213 -0.3785
 3211W        W46227   8.172  21.128   9.061  0.2919  0.1603 -0.1545
 3212W        W46228  10.779  20.787   7.837 -0.0226  0.1184 -0.1427
 3213W        W46229  20.566  11.647  20.475 -0.2309  0.0934  0.0432
 3214W        W46230  26.095   7.495   5.601  0.1361 -0.0189  0.2087
 3215W        W46231   2.548  19.145  15.324 -0.3525  0.1917  0.1225
 3216W        W46232  15.751  14.728   0.032  0.1266  0.2513 -0.0372
 3217W        W46233  24.897  30.279   0.158 -0.1311 -0.1226  0.1124
 3218W        W46234  23.871  15.954  21.112  0.1023  0.0136  0.0686
 3219W        W46235  19.926   5.416   8.390  0.1291  0.5084 -0.0862
 3220W        W46236   4.443   6.099   2.045  0.2305 -0.4366 -0.1085
 3221W        W46237  25.526   5.015  10.369 -0.4462 -0.0768 -0.0629
 3222W        W46238  29.211  19.117  10.206 -0.1222 -0.1965  0.0063
 3223W        W46239  13.310  24.088   5.586 -0.2934 -0.0823  0.2149
 3224W        W46240  20.634  14.330   8.269  0.1030 -0.1403  0.1430
 3225W        W46241  24.576   7.241   3.021  0.0692  0.0603 -0.1076
 3226W        W46242  21.132  23.696   7.436  0.0572 -0.4696  0.0697
 3227W        W46243  27.961   0.878  10.151  0.1239  0.1812  0.0951
 3228W        W46244   4.488  10.186  10.131  0.2102  0.0443  0.0504
 3229W        W46245  21.464  10.365   9.109 -0.1229  0.0445 -0.1693
 3230W        W46246  18.535   7.659   5.167 -0.0715  0.1088  0.1661
 3231W        W46247  32.436  15.430   5.209  0.2302  0.4130  0.0063
 3232W        W46248  18.693  13.234   3.403 -0.2669  0.0095  0.2688
 3233W        W46249  22.794  14.908  29.026  0.2333  0.0537  0.1662
 3234W        W46250   9.933  29.606   8.475  0.0192  0.1145  0.1207
 3235W        W46251  16.955   8.222   7.989 -0.0718  0.2832  0.2994
 3236W        W46252  10.580  14.457   3.453  0.2304  0.3550 -0.0490
 3237W        W46253  14.238  15.203  29.001 -0.1639 -0.0218  0.1163
 3238W        W46254  16.183  19.264   7.783  0.2639  0.0035  0.0155
 3239W        W46255  22.340  21.653  25.896 -0.1161  0.3200  0.1728
 3240W        W46256  17.853  15.606   0.700 -0.2142  0.1402  0.0411
 3241W        W46257  18.769  13.923  15.494  0.1849 -0.3080  0.3134
 3242W        W46258  25.856  32.096   5.176 -0.0767  0.1606 -0.0452
 3243W        W46259  34.044  16.348  28.402  0.0754  0.0246  0.1078
 3244W        W46260  12.617  20.254   3.854  0.1777  0.1147 -0.1947
 3245W        W46261  18.579   9.350   5.975  0.0993 -0.0942  0.0128
 3246W        W46262  10.262  10.881   6.956 -0.1108  0.0835  0.2122
 3247W        W46263   7.762   6.133  24.102 -0.0042  0.1809  0.2521
 3248W        W46264  13.081  23.338   7.057 -0.1623 -0.0369  0.3801
 3249W        W46265  20.480  13.902   1.703  0.3600 -0.1737 -0.0138
 3250W        W46266  20.762   8.014  14.335  0.2513 -0.0795 -0.2785
 3251W        W46267  19.255  18.685   2.043  0.0055  0.0997 -0.2869
 3252W        W46268  10.230  21.784   2.402 -0.2171  0.1372  0.2191
 3253W        W46269  30.798   4.074   5.340  0.0753 -0.0919  0.1305
 3254W        W46270  25.082  24.216   3.593 -0.0798 -0.0818  0.1465
 3255W        W46271  18.305   3.432   8.430  0.0932 -0.1739  0.2147
 3256W        W46272  16.908  13.155   4.429 -0.0180 -0.0037 -0.2937
 3257W        W46273  15.927  26.911  17.121 -0.0568 -0.1070  0.2172
 3258W        W46274  16.980  23.859  28.777 -0.2549 -0.1412 -0.1662
 3259W        W46275   5.808   6.566   8.229  0.0111 -0.0291  0.1253
 3260W        W46276  27.319  13.391   8.014  0.1025 -0.1809  0.2349
 3261W        W46277  18.570  24.082   3.791  0.0904 -0.2098 -0.2421
 3262W        W46278  13.512  12.144   5.250  0.3099 -0.1643 -0.0365
 3263W        W46279  13.332   0.947   1.647 -0.2185  0.3686 -0.2936
 3264W        W46280  11.313   9.127   6.884 -0.4765  0.3692  0.3112
 3265W        W46281  14.745  10.880  29.122  0.2819  0.0604  0.0349
 3266W        W46282  12.302  19.964   4.212  0.3362  0.1538 -0.3365
 3267W        W46283  30.455  22.087   2.698  0.1931 -0.0838  0.1285
 3268W        W46284   5.225  25.125  28.788  0.1554 -0.0281  0.1181
 3269W        W46285  15.206  25.965   0.578 -0.2829 -0.1761  0.4933
 3270W        W46286  15.241   4.681  23.522 -0.0827  0.2982  0.1245
 3271W        W46287  23.388   2.685   3.713 -0.0727 -0.5069 -0.2415
 3272W        W46288  11.381  14.071  23.715  0.3891  0.1129 -0.0125
 3273W        W46289  23.283  20.248  18.914  0.1740 -0.0879  0.1693
 3274W        W46290   9.699  25.052  18.825  0.0586 -0.0896 -0.0472
 3275W        W46291  28.899  11.789  24.357  0.1722 -0.1723  0.3796
 3276W        W46292  18.267  31.836   6.463  0.2314  0.0445  0.1007
 3277W        W46293  29.276  26.166   8.874 -0.0066 -0.3149 -0.0276
 3278W        W46294  16.487  15.678   8.008  0.0283 -0.2641  0.0984
 3279W        W46295  24.489   6.614   9.443 -0.1447  0.1697  0.0735
 3280W        W46296  20.726  17.444   8.475  0.0200 -0.0139 -0.3408
 3281W        W46297  14.608  23.791   3.684 -0.0462  0.0505 -0.1081
 3282W        W46298  12.802  30.012   3.936 -0.0485  0.1385  0.1938
 3283W        W46299  21.797  18.281  24.344 -0.2291 -0.2073  0.2983
 3284W        W46300  33.147   8.558   2.023  0.0063  0.0675 -0.2114
 3285W        W46301   8.614  14.236  25.223 -0.1614 -0.0111  0.1701
 3286W        W46302   1.767  22.089   4.773 -0.1438  0.1514 -0.4398
 3287W        W46303  21.780  14.013  29.127 -0.0512 -0.1527  0.0089
 3288W        W46304  23.873   6.827   8.114 -0.0981 -0.2888  0.2194
 3289W        W46305  25.387   9.611  28.518 -0.1393 -0.2264  0.3577
 3290W        W46306  24.341  14.175  29.259  0.0129  0.0315 -0.1093
 3291W        W46307  10.441   4.846   9.197 -0.0022  0.1621 -0.4493
 3292W        W46308  29.704  15.173  10.485  0.2966  0.1122 -0.4767
 3293W        W46309  30.050  15.812  19.955  0.3898 -0.1212 -0.2804
 3294W        W46310  20.912  21.690   1.945  0.0859  0.2171 -0.1842
 3295W        W46311  21.296   3.985   8.759  0.2975  0.1304  0.2173
 3296W        W46312   9.729  16.142   8.452  0.1459  0.1211 -0.0965
 3297W        W46313   8.309  21.352   5.992 -0.0330 -0.0063  0.0080
 3298W        W46314  30.584  20.086  17.971  0.2155 -0.1251 -0.0775
 3299W        W46315  21.371   5.139   6.084 -0.3986 -0.4478 -0.0968
 3300W        W46316   8.252  26.174   3.911 -0.0960  0.0374 -0.2238
 3301W        W46317  18.712  17.370  25.190  0.0267  0.1418  0.0672
 3302W        W46318  23.269  14.576   8.787  0.0417  0.1537 -0.1751
 3303W        W46319  18.195  18.019  27.219 -0.2375 -0.2842 -0.1286
 3304W        W46320  24.031   3.630   9.054  0.2386  0.0906  0.1070
 3305W        W46321  29.492   8.904   4.207  0.0227  0.1886  0.1211
 3306W        W46322  19.368  14.570  21.560  0.0206  0.0311  0.0529
 3307W        W46323  15.089  20.925  23.444  0.0823 -0.0509 -0.1240
 3308W        W46324  31.431  13.250  25.516  0.0455  0.1257  0.3592
 3309W        W46325   1.595   5.112   2.389  0.5029 -0.1310  0.2028
 3310W        W46326  25.153  18.956   9.669  0.1613 -0.0141 -0.2595
 3311W        W46327  14.232  25.956   0.750 -0.1250 -0.0194 -0.0727
 3312W        W46328  17.535  33.243  20.847  0.1406 -0.0439  0.1436
 3313W        W46329  27.680  27.577   0.385  0.2259 -0.1278 -0.0831
 3314W        W46330  16.537  32.901   8.074 -0.3665 -0.0816 -0.1744
 3315W        W46331  18.106  17.785   1.215  0.1270 -0.1099  0.0205
 3316W        W46332  17.769  20.025  21.955 -0.1100 -0.3269  0.1789
 3317W        W46333   8.374  13.756   0.396  0.0578  0.0845  0.1655
 3318W        W46334   7.512   0.889   6.408  0.0528  0.2473  0.2437
 3319W        W46335  19.197  17.980   7.713  0.1374  0.2185 -0.0984
 3320W        W46336   8.591  17.674  23.735 -0.0147 -0.4582  0.2060
 3321W        W46337  33.431  22.947   7.439 -0.0882 -0.3074 -0.2004
 3322W        W46338  29.472  24.479  11.958  0.2916  0.4016  0.1986
 3323W        W46339  34.198  23.678   2.219  0.2565  0.1503  0.2804
 3324W        W46340  31.007  23.270  24.758  0.0972  0.1190 -0.0403
 3325W        W46341   9.097  13.489   2.792 -0.0403 -0.2810  0.0379
 3326W        W46342  16.132  15.654  19.698 -0.1452 -0.1351  0.1593
 3327W        W46343   6.632  22.766   4.923  0.2024  0.1038  0.0968
 3328W        W46344  18.968  12.736   9.304  0.0698 -0.0203 -0.0149
 3329W        W46345  18.840  12.108  20.562 -0.2038  0.0539 -0.0695
 3330W        W46346  31.799   7.843   7.133  0.0904 -0.2355 -0.1175
 3331W        W46347  16.758  28.662   2.363  0.0877 -0.3568 -0.3281
 3332W        W46348  23.049  23.506   4.949 -0.0457 -0.4718 -0.0598
 3333W        W46349  32.492   9.299  27.979  0.1635 -0.1036 -0.1278
 3334W        W46350  25.259   7.075   4.149 -0.3080  0.3310 -0.1212
 3335W        W46351  18.405  15.695  27.909  0.4374 -0.1678  0.0344
 3336W        W46352  16.681  26.654   5.115  0.0406  0.1050  0.0252
 3337W        W46353  24.793  30.102   2.860  0.2053  0.2167  0.1658
 3338W        W46354  23.015  13.932   2.481  0.2401 -0.1488  0.1616
 3339W        W46355  14.771  15.476  24.364  0.0939  0.0423  0.2591
 3340W        W46356  28.766   8.786   7.910  0.3288  0.1171 -0.0963
 3341W        W46357  11.875  21.904   2.946  0.0026  0.2855  0.2673
 3342W        W46358  15.410   9.476   3.465 -0.0205  0.0108 -0.2129
 3343W        W46359   9.361  12.504  27.424  0.0020  0.1342 -0.1426
 3344W        W46360  22.255  21.000   8.485  0.0206 -0.0450  0.4104
 3345W        W46361  30.651  10.984   3.278 -0.0882  0.2209  0.1231
 3346W        W46362  32.136  16.044  22.442 -0.0530  0.4589  0.2368
 3347W        W46363  32.243  25.077   3.979  0.0847  0.0520 -0.2803
 3348W        W46364  16.540  21.212  25.780  0.0147  0.1805 -0.0138
 3349W        W46365  15.355  27.601   2.676 -0.0531 -0.0454 -0.0719
 3350W        W46366  14.486  24.943   3.705  0.1499 -0.1012 -0.2284
 3351W        W46367  18.528  13.854  19.528  0.2965  0.0130  0.1533
 3352W        W46368   9.349  14.927  22.846 -0.1536 -0.0253 -0.3534
 3353W        W46369  18.672  19.789   6.894 -0.2554  0.0337 -0.1062
 3354W        W46370  16.600   6.514  25.897 -0.1729  0.0721 -0.0738
 3355W        W46371  29.901  20.860   7.138 -0.3488 -0.2987  0.0049
 3356W        W46372  17.644  15.330   8.090 -0.0625  0.2673  0.1792
 3357W        W46373   7.950  32.698  27.376 -0.1090 -0.1534 -0.0296
 3358W        W46374  33.592  27.768   0.678  0.3297 -0.1891 -0.0480
 3359W        W46375  28.473  26.855  24.039  0.0765 -0.4064  0.0736
 3360W        W46376  10.907  22.836   4.397 -0.2751  0.0768 -0.2008
 3361W        W46377  16.911  19.180  28.661 -0.0048  0.1353 -0.1904
 3362W        W46378  15.315  15.100   1.433  0.1410  0.2815  0.2067
 3363W        W46379  16.401   6.640   2.685 -0.5515  0.1767 -0.1184
 3364W        W46380  26.293  20.800   0.037  0.0202 -0.1499  0.0432
 3365W        W46381  27.587   8.715   8.533  0.1067 -0.0328  0.3217
 3366W        W46382  24.936  18.810   6.146 -0.0728 -0.2540 -0.3166
 3367W        W46383   2.591  32.932  21.345 -0.1427  0.2940 -0.2209
 3368W        W46384  15.321  31.735   9.193 -0.0240 -0.1185 -0.0991
 3369W        W46385  18.170  15.754   2.818  0.2801 -0.0115  0.0386
 3370W        W46386  33.141  30.438  10.929  0.1952 -0.2587 -0.0869
 3371W        W46387  25.962  16.736   6.774  0.1029  0.1931 -0.2230
 3372W        W46388  18.241  31.689   9.939  0.0799 -0.1205  0.1695
 3373W        W46389  14.863   4.160   5.364  0.2176 -0.0917  0.3066
 3374W        W46390  32.472  21.995  10.500  0.2622 -0.0899 -0.0069
 3375W        W46391  13.207  18.966   7.883  0.1524  0.3286 -0.0867
 3376W        W46392   7.002   1.417   6.242 -0.3697 -0.0861 -0.0331
 3377W        W46393   9.075  20.431   8.185 -0.1241  0.0939  0.0113
 3378W        W46394  22.761  22.285   5.736 -0.1798 -0.1889  0.0514
 3379W        W46395   6.121  16.833   3.677  0.1688  0.2374  0.2515
 3380W        W46396   0.826  15.531   6.885  0.0440  0.3159 -0.0041
 3381W        W46397  16.209  11.708   2.708 -0.1664 -0.0739  0.1259
 3382W        W46398  15.210  20.886   5.223  0.0595  0.1317  0.0843
 3383W        W46399   9.033  34.757  25.630 -0.1366  0.4464 -0.1425
 3384W        W46400  22.220  11.482   0.496  0.2545 -0.4102  0.0349
 3385W        W46401  30.854  13.483  28.118 -0.0228  0.1663 -0.0026
 3386W        W46402  18.390  13.348  21.917 -0.2090  0.1675 -0.0996
 3387W        W46403  10.510  19.999   5.078  0.0553  0.0331 -0.0298
 3388W        W46404  19.038   4.232  24.487  0.0450  0.2520  0.4703
 3389W        W46405  15.683  24.980   3.207  0.0755  0.3916 -0.1538
 3390W        W46406   6.014  18.061  28.571  0.0176 -0.1178 -0.1567
 3391W        W46407  22.247   9.246  26.754 -0.0823  0.1225 -0.0387
 3392W        W46408  26.294   1.835   3.515  0.2946  0.1720  0.1392
 3393W        W46409  18.685   1.884  25.515  0.1086  0.2084 -0.1964
 3394W        W46410  18.906  27.728   8.476  0.1431  0.0083  0.1217
 3395W        W46411  12.442  21.386   8.481 -0.0507 -0.0101  0.0271
 3396W        W46412   5.180  15.143  26.658 -0.0322  0.0434 -0.3463
 3397W        W46413   3.010   6.513   0.532  0.1015 -0.4210  0.1430
 3398W        W46414  17.067  22.011   3.048 -0.0846  0.0167  0.1956
 3399W        W46415  13.847   5.886  25.272  0.0720 -0.2960 -0.1736
 3400W        W46416  12.014  20.077  26.177 -0.0201 -0.2347  0.1633
 3401W        W46417  10.424   7.534   9.550 -0.1938 -0.2110  0.0941
 3402W        W46418  29.933   5.484   7.363  0.1771 -0.2156  0.1064
 3403W        W46419  29.675  14.507   3.890  0.0452  0.0180  0.1125
 3404W        W46420  27.256   7.467   7.619  0.2570  0.3042  0.0390
 3405W        W46421  16.706  20.562   5.554 -0.0127  0.0395  0.1951
 3406W        W46422  11.848  31.099  27.694 -0.3400 -0.0187 -0.1992
 3407W        W46423  16.370  16.142  20.201 -0.1086  0.0568 -0.1667
 3408W        W46424  12.913  13.668   1.590  0.0365  0.3475 -0.0333
 3409W        W46425  29.130  11.672   6.646  0.0481 -0.1918 -0.2829
 3410W        W46426  14.591   8.281   3.978  0.1684  0.0958  0.4142
 3411W        W46427  12.748  32.630   4.234 -0.2113 -0.3322 -0.0572
 3412W        W46428  21.145  29.781  21.302  0.0729  0.0047 -0.2253
 3413W        W46429  30.081  15.484   0.445 -0.1762  0.0967  0.1952
 3414W        W46430  24.752  31.026   1.824 -0.0022 -0.0473  0.4140
 3415W        W46431   6.946   9.566  19.670 -0.1234 -0.0496 -0.1321
 3416W        W46432  23.817  23.508  10.008  0.0539 -0.0515 -0.1882
 3417W        W46433  21.709   7.830   1.247 -0.1366  0.2098  0.2382
 3418W        W46434   7.922   0.708   4.985 -0.1203  0.1298  0.4682
 3419W        W46435  25.776   7.265   2.408 -0.1636  0.0722 -0.0092
 3420W        W46436  16.729  34.561   3.564 -0.1354 -0.2105  0.1133
 3421W        W46437  33.260  16.091  24.342  0.4036 -0.0072  0.0980
 3422W        W46438   6.585  15.295   1.505  0.0457  0.1588  0.4997
 3423W        W46439  13.065   3.426   8.674  0.0498 -0.5066 -0.0087
 3424W        W46440  28.040  15.593   2.811 -0.0174 -0.0411  0.3609
 3425W        W46441  20.097  19.804   7.699  0.0716 -0.0688 -0.2951
 3426W        W46442  13.685  15.192  25.736  0.0247 -0.2703 -0.1386
 3427W        W46443  34.122   7.379   6.509  0.1618  0.2286  0.0785
 3428W        W46444  21.209  30.879  23.709 -0.3474  0.0530 -0.2358
 3429W        W46445  21.262  16.234  25.968  0.0761  0.1101 -0.0282
 3430W        W46446  29.191  16.824  19.402  0.0092 -0.0301  0.2220
 3431W        W46447   4.293  22.280   2.627  0.0664  0.5418 -0.0140
 3432W        W46448  25.984  21.369   1.720  0.0378  0.0067  0.1013
 3433W        W46449  32.572   4.332   5.949 -0.0098 -0.1296 -0.2757
 3434W        W46450   7.654  16.934   7.870 -0.3512  0.1008  0.1009
 3435W        W46451   7.147  19.765   2.313 -0.0853  0.3975  0.1140
 3436W        W46452  32.441   7.300   5.764  0.0739  0.1341 -0.1134
 3437W        W46453  19.819   4.183   4.438 -0.0916 -0.2877 -0.0593
 3438W        W46454  22.476   4.646   0.073  0.0431  0.0160 -0.0500
 3439W        W46455  34.530  30.366  16.628 -0.1467 -0.0316  0.3128
 3440W        W46456  10.973  27.436  28.196 -0.0485 -0.1000  0.0328
 3441W        W46457   7.759  29.982   4.958  0.0536 -0.3161 -0.0209
 3442W        W46458  20.559  21.440  16.073  0.1094  0.1603 -0.2514
 3443W        W46459  12.356  19.048   1.507 -0.3453  0.1314 -0.2244
 3444W        W46460  20.963   3.117   4.957  0.0646  0.3242 -0.0435
 3445W        W46461  28.304  15.941   8.929 -0.1102  0.0552  0.3260
 3446W        W46462  19.412  29.446   8.456 -0.1715  0.1005 -0.1679
 3447W        W46463   8.308   1.485  18.984  0.2259  0.0367  0.1636
 3448W        W46464  25.902  28.520   5.323 -0.1402 -0.2722  0.1654
 3449W        W46465  20.928  19.348  19.511  0.1144  0.1167 -0.1449
 3450W        W46466   8.440  28.886   4.335  0.0626 -0.1846 -0.1926
 3451W        W46467  28.978  14.493   8.337  0.3249 -0.2124  0.1121
 3452W        W46468  29.530  13.965  25.774 -0.2824  0.4501  0.2543
 3453W        W46469   1.155  23.954   1.709 -0.1051  0.2086 -0.1039
 3454W        W46470  17.978  33.051  10.005  0.0808  0.1619 -0.0116
 3455W        W46471   7.674  29.875   9.139 -0.0194 -0.1207  0.2650
 3456W        W46472  10.240  15.151  24.003  0.0043 -0.1198 -0.0811
 3457W        W46473  19.241  25.190  20.423 -0.2488  0.1774  0.1704
 3458W        W46474  12.753  27.443  20.013  0.0685  0.0600 -0.0524
 3459W        W46475  10.953  17.453  19.864  0.0273 -0.3089 -0.0739
 3460W        W46476  10.178  14.742   6.913 -0.1354  0.4439 -0.2065
 3461W        W46477   9.483  22.368  25.310  0.0337 -0.0455 -0.1872
 3462W        W46478  12.997  12.693   3.320 -0.1586  0.0584 -0.1046
 3463W        W46479  11.607  25.078  17.425 -0.1177  0.2281  0.2129
 3464W        W46480   7.301  33.528  25.621 -0.4644 -0.0460  0.0829
 3465W        W46481  25.728  17.457  16.716 -0.2010 -0.1273  0.2339
 3466W        W46482  21.955  17.123   8.093  0.0961 -0.2921  0.2683
 3467W        W46483   9.675  14.417  20.190 -0.2622  0.0942 -0.1868
 3468W        W46484  13.064  12.633   4.552 -0.0607  0.1117 -0.0901
 3469W        W46485   8.915  11.065   5.858 -0.0121  0.3918 -0.0779
 3470W        W46486  13.584  28.667   4.096 -0.1023 -0.0934 -0.1972
 3471W        W46487  21.377  17.243  25.230 -0.1940 -0.1929  0.1599
 3472W        W46488  10.057   8.320   7.826  0.0996 -0.2691 -0.2074
 3473W        W46489  12.221  13.912   5.444  0.0453  0.3727  0.2299
 3474W        W46490  13.669  10.900  19.991 -0.2544 -0.2247 -0.0607
 3475W        W46491  32.796   4.025   6.339 -0.2487 -0.5021 -0.1508
 3476W        W46492  23.852  31.187   0.997  0.0257  0.0459  0.3533
 3477W        W46493  30.682  25.999  28.207 -0.0951 -0.1445  0.4478
 3478W        W46494  28.854  23.431  22.164 -0.0824 -0.2383  0.0264
 3479W        W46495   7.520  19.032  15.691 -0.5792 -0.3199  0.0664
 3480W        W46496  16.682  18.213   8.843 -0.2149  0.3740 -0.2220
 3481W        W46497  26.099  23.712   2.648 -0.0831 -0.1483  0.0865
 3482W        W46498  23.886  15.580  23.667  0.1925 -0.0655  0.0191
 3483W        W46499  17.370   3.411  24.595 -0.0300 -0.4989 -0.1486
 3484W        W46500   7.521  24.101   6.768 -0.2217 -0.0364 -0.3935
 3485W        W46501   6.265  24.152   8.997 -0.1092  0.1413  0.2242
 3486W        W46502  20.603   7.701   5.018 -0.1869 -0.2390  0.0143
 3487W        W46503   7.669  16.813  24.223  0.1298 -0.1310  0.1835
 3488W        W46504  14.614  18.294  28.421 -0.1458  0.1244 -0.1348
 3489W        W46505   6.157  34.195   9.725  0.0554  0.2295 -0.3207
 3490W        W46506  22.777  22.846   2.183 -0.2384 -0.2061  0.2061
 3491W        W46507  10.452  21.433   3.595  0.2560  0.3341 -0.1651
 3492W        W46508  29.280  25.921   6.431  0.1554 -0.1353 -0.2124
 3493W        W46509   0.686  12.389  28.239 -0.3015  0.1304  0.1571
 3494W        W46510   9.969   0.078  23.660  0.0976 -0.2362 -0.0152
 3495W        W46511  23.541  17.434   4.776 -0.3873  0.0513  0.0469
 3496W        W46512  21.251  10.720  22.836 -0.0418 -0.0328  0.2013
 3497W        W46513   9.324  34.516   7.703 -0.0098  0.1088  0.2197
 3498W        W46514  10.959  31.645  19.182  0.0611 -0.2450 -0.0922
 3499W        W46515  16.086  17.296  20.411 -0.0624  0.0433  0.2024
 3500W        W46516  31.783  24.296  10.385 -0.1384  0.3092  0.1123
 3501W        W46517  10.587   4.921   6.978 -0.0312  0.2903 -0.1954
 3502W        W46518  13.444  28.419   4.527 -0.2802  0.0117  0.1830
 3503W        W46519   3.450   3.176   3.643 -0.1799 -0.1115 -0.0390
 3504W        W46520   9.262  21.240   1.782  0.3149  0.0285 -0.2535
 3505W        W46521  10.107  28.823   2.506  0.0520  0.0626 -0.1411
 3506W        W46522  32.251  20.294   8.651  0.1236 -0.2691  0.1034
 3507W        W46523  15.678  12.182  23.469  0.1754  0.1972 -0.0364
 3508W        W46524  15.286  27.567  18.953 -0.0690  0.1919 -0.1209
 3509W        W46525  34.368  33.192  14.328 -0.1805 -0.1016 -0.0762
 3510W        W46526  14.423  25.913   1.728  0.1907 -0.0431 -0.0364
 3511W        W46527  31.658  24.771  10.571  0.1266 -0.1304  0.1252
 3512W        W46528  21.396  26.134  28.659 -0.1991  0.1768 -0.3107
 3513W        W46529   2.474  23.897   8.491  0.1795  0.0546  0.2391
 3514W        W46530  30.745  28.181  19.144  0.0089  0.1752 -0.2353
 3515W        W46531   9.159  31.958  15.753 -0.0310 -0.0621  0.1626
 3516W        W46532  21.592  23.490  17.226  0.1739  0.0468  0.1379
 3517W        W46533  12.190   9.455  22.597  0.0806  0.1105  0.1403
 3518W        W46534   4.377  11.182   9.940  0.0424 -0.1178  0.1861
 3519W        W46535   8.119  28.851  19.667  0.0842 -0.0579  0.0396
 3520W        W46536   9.838  14.349   6.981 -0.0881  0.0400 -0.0295
 3521W        W46537  20.965  15.475  26.312  0.0427 -0.2359  0.0488
 3522W        W46538  13.162  15.337   2.163  0.0094  0.1307 -0.0578
 3523W        W46539   6.130  24.217   7.978 -0.1152  0.0265  0.2734
 3524W        W46540  20.327  11.226   8.751  0.1514 -0.0619  0.1789
 3525W        W46541  13.838  16.138   7.477  0.0854  0.1875 -0.3436
 3526W        W46542  16.902  21.863   0.792 -0.1089  0.1715 -0.2913
 3527W        W46543  12.149  19.951   7.004 -0.1411 -0.4240  0.1332
 3528W        W46544  20.827  26.435   5.187  0.2205 -0.1972 -0.2630
 3529W        W46545  11.917  22.100   6.672  0.0423 -0.2350 -0.1084
 3530W        W46546   1.628  31.610  22.224  0.1609  0.0791 -0.2017
 3531W        W46547  10.456   9.449  18.997  0.1126 -0.0826  0.0911
 3532W        W46548  16.275  19.322  20.425  0.0395 -0.1507 -0.1071
 3533W        W46549   4.082  25.359  28.338  0.0120 -0.0251  0.0703
 3534W        W46550  24.805  19.607   7.247 -0.0532 -0.1139 -0.0010
 3535W        W46551   9.291  14.102   5.775  0.1572 -0.0075  0.0792
 3536W        W46552   3.966  28.547   3.045 -0.0587 -0.0459  0.3400
 3537W        W46553   8.317   4.765   8.972 -0.3648  0.2359  0.1810
 3538W        W46554   9.222  16.259  29.072 -0.2692 -0.2546 -0.0321
 3539W        W46555  14.688  17.841   8.086 -0.1359  0.3156 -0.1805
 3540W        W46556  32.235  13.209  15.753 -0.1188 -0.2028  0.0634
 3541W        W46557  29.705  30.312  29.191 -0.0856  0.1058  0.2333
 3542W        W46558  18.997   9.019   8.089 -0.0058 -0.2973 -0.0569
 3543W        W46559   9.117  24.947   0.862  0.3026 -0.1113 -0.0239
 3544W        W46560  11.373  18.138  22.463  0.0214 -0.1709  0.2370
 3545W        W46561  27.938  11.017   9.285 -0.0942  0.0910 -0.1298
 3546W        W46562  14.467  24.377  28.703 -0.1721 -0.0272 -0.0038
 3547W        W46563  14.377  27.994   5.427 -0.4469  0.0233  0.1206
 3548W        W46564   9.647  25.952  27.705  0.3044 -0.1639 -0.2069
 3549W        W46565  20.207  14.935  27.360  0.3417 -0.0257  0.3628
 3550W        W46566  18.827  19.015  28.646  0.0246 -0.1881  0.1213
 3551W        W46567  16.563  22.642   7.298 -0.0196  0.4415 -0.1327
 3552W        W46568  14.279  18.434   5.971 -0.3003 -0.0101  0.3771
 3553W        W46569  13.947  29.507   7.332 -0.0138  0.1538  0.2433
 3554W        W46570  15.425  14.182  19.950  0.0954  0.0275  0.0171
 3555W        W46571  25.504  13.352   7.034  0.1034 -0.1384  0.4526
 3556W        W46572   9.587  12.324  25.908 -0.3201 -0.1768  0.1392
 3557W        W46573  24.586  17.200   4.792  0.0337 -0.3937  0.1540
 3558W        W46574  16.174  27.664  21.217  0.2020 -0.2657  0.0610
 3559W        W46575  25.601   0.299   6.727 -0.0692 -0.0274  0.0865
 3560W        W46576  12.563  23.379   6.837  0.0362  0.1627  0.2180
 3561W        W46577  15.805   5.056  24.045 -0.0327 -0.1122 -0.0435
 3562W        W46578  14.013  15.005  23.307  0.1844 -0.0471  0.2249
 3563W        W46579   8.546  17.011  27.460 -0.0180 -0.0905 -0.2346
 3564W        W46580  20.808  32.964  19.048 -0.1804  0.0196  0.0106
 3565W        W46581  16.209  21.685  24.868 -0.1186 -0.0067  0.2199
 3566W        W46582  15.623  23.685  24.789 -0.1785  0.0154 -0.3878
 3567W        W46583  19.567   6.865  21.711  0.2159 -0.4031 -0.1042
 3568W        W46584  11.798  20.028  25.103  0.0864 -0.0517  0.1718
 3569W        W46585   4.701  12.713   3.703  0.1217  0.0333 -0.1802
 3570W        W46586  18.975  23.318   2.737 -0.2825 -0.1030 -0.4624
 3571W        W46587  24.019  32.873  18.173  0.0385 -0.0074  0.0535
 3572W        W46588  19.356  19.999  22.247  0.0570 -0.1027 -0.4161
 3573W        W46589  18.614  25.525   8.846  0.2122  0.1292 -0.2337
 3574W        W46590   7.430  27.664   2.084  0.1429 -0.0959  0.0761
 3575W        W46591  29.731  13.071   7.364  0.1694  0.0274 -0.0525
 3576W        W46592  13.854  18.969  28.952 -0.1574 -0.0065 -0.1771
 3577W        W46593  12.577  25.649   7.552  0.0049  0.0226  0.3113
 3578W        W46594  14.311  27.133   3.683  0.0340  0.1230  0.1169
 3579W        W46595  17.704  31.371  20.302  0.1259 -0.0977  0.1098
 3580W        W46596   9.144   5.833  16.158  0.0831  0.0372  0.2221
 3581W        W46597   6.418  18.597   6.732 -0.2709 -0.1405 -0.2195
 3582W        W46598  12.124  16.301   8.149  0.0081 -0.0721 -0.2343
 3583W        W46599   1.963  32.346  10.540 -0.0597  0.0507 -0.1985
 3584W        W46600  19.511  22.853   0.449  0.0053  0.0779  0.3034
 3585W        W46601  21.472  21.146   9.345  0.1728 -0.0403  0.1727
 3586W        W46602  13.528  27.146   9.364  0.0876  0.0007  0.0335
 3587W        W46603  15.245  18.272   2.832  0.2412  0.0309 -0.0362
 3588W        W46604   8.703  19.318  15.649  0.1095 -0.1811  0.0325
 3589W        W46605   3.060  13.517  23.808  0.0737  0.2658 -0.0839
 3590W        W46606  19.399  18.662   0.664 -0.1056 -0.0805 -0.5824
 3591W        W46607  10.257  22.714   3.673 -0.1503  0.1208 -0.0128
 3592W        W46608  25.707   6.711   1.217  0.0464 -0.1779 -0.1444
 3593W        W46609  22.234   9.402  19.826 -0.1430 -0.0350 -0.0268
 3594W        W46610  14.386  28.638  18.362  0.0932  0.1816 -0.0027
 3595W        W46611  23.329  25.095   9.847 -0.1463  0.2671  0.0620
 3596W        W46612  16.519   9.351   9.380  0.0741 -0.0692  0.3074
 3597W        W46613  12.914  23.665   2.682 -0.0419 -0.0123 -0.0090
 3598W        W46614  15.710  12.508   7.975 -0.1016  0.1661 -0.0153
 3599W        W46615  25.661  15.827   8.339  0.0456 -0.2681 -0.1554
 3600W        W46616  16.735  16.333   0.151 -0.1448  0.3173 -0.0854
 3601W        W46617   5.139  22.555   0.271  0.0299 -0.2641 -0.3460
 3602W        W46618   4.303  20.903   3.070 -0.2101 -0.0887 -0.1978
 3603W        W46619  34.204  21.793   8.691  0.3168  0.1106 -0.0928
 3604W        W46620  13.474  20.025   8.565  0.0287  0.0303 -0.0332
 3605W        W46621  23.146  11.806  20.088 -0.3601 -0.1179  0.1763
 3606W        W46622  17.517  21.798   0.573 -0.0613 -0.0334  0.1767
 3607W        W46623  30.720   1.245   6.434  0.1350  0.0862  0.0151
 3608W        W46624  11.026  11.424   4.493 -0.4105  0.0213  0.0107
 3609W        W46625  25.225  10.649  10.040 -0.1757  0.2083 -0.1505
 3610W        W46626  16.887  13.060   2.348 -0.3158 -0.1342 -0.0217
 3611W        W46627  22.991  12.524   8.469  0.0358  0.1902 -0.2060
 3612W        W46628  19.032  15.789  25.139  0.0238 -0.0666  0.0117
 3613W        W46629   3.482   6.666   7.253  0.2733 -0.2045 -0.0298
 3614W        W46630   6.364  16.099   4.727  0.1167  0.4888  0.2434
 3615W        W46631   8.705  11.494   6.828 -0.1130 -0.0724 -0.0923
 3616W        W46632  12.713   5.857  28.934 -0.3893  0.2053  0.1271
 3617W        W46633   3.610  20.658  26.086  0.1575  0.0472  0.2373
 3618W        W46634   9.368  16.347   7.966 -0.1973 -0.2437  0.0412
 3619W        W46635  12.224  22.103   8.893  0.0365  0.0213 -0.2165
 3620W        W46636   9.733  17.880  17.298  0.2292 -0.2239  0.3267
 3621W        W46637   3.698   5.672   6.553 -0.2035  0.1259  0.0263
 3622W        W46638  15.934   2.329  24.780 -0.2967  0.1100  0.1358
 3623W        W46639  17.593  17.412  16.154 -0.0323  0.0033  0.1322
 3624W        W46640  15.316  10.897  26.095 -0.0110  0.1223  0.0701
 3625W        W46641  16.023  33.671   7.624  0.0462  0.2481 -0.1842
 3626W        W46642  21.569  19.535   4.720 -0.0855 -0.0183 -0.5519
 3627W        W46643  16.019   7.781   6.540  0.0238  0.3298 -0.0436
 3628W        W46644  26.654  19.816   3.789  0.0175  0.1425 -0.0902
 3629W        W46645  23.325  29.009   9.303  0.0682  0.0914  0.0487
 3630W        W46646   7.863   2.689  16.782 -0.0097  0.0543 -0.0429
 3631W        W46647  27.075  23.474  15.901  0.1042  0.1215 -0.1016
 3632W        W46648  28.009  16.627  26.124 -0.0890 -0.2952  0.0854
 3633W        W46649   9.537  22.471  26.255 -0.2258  0.0454  0.4093
 3634W        W46650   8.808  29.980  19.082  0.1958  0.3972 -0.1534
 3635W        W46651  12.661  32.834   3.117 -0.1108 -0.2695 -0.2544
 3636W        W46652  26.621  28.896   1.937  0.0696 -0.0315 -0.2343
 3637W        W46653  34.110  10.729  10.041 -0.0228 -0.2675 -0.1847
 3638W        W46654  24.627  19.870  28.728  0.1507 -0.0874  0.0523
 3639W        W46655  30.727  14.596  18.294 -0.0165 -0.1940  0.0371
 3640W        W46656  26.909   8.126   6.570  0.1683 -0.0864 -0.1736
 3641W        W46657   6.398  10.965  26.863  0.1838 -0.0127 -0.2155
 3642W        W46658   4.505  21.976   1.401  0.2563 -0.0928  0.0745
 3643W        W46659  33.655  18.652   1.732 -0.0691 -0.0139 -0.3134
 3644W        W46660  14.060  28.792   7.841  0.0019  0.1006 -0.1927
 3645W        W46661  21.845  22.732   4.934  0.0414  0.1335 -0.0504
 3646W        W46662  24.715   0.696  19.421 -0.0703  0.0559  0.1361
 3647W        W46663  13.969  27.460  27.674  0.2020 -0.0432  0.3297
 3648W        W46664  13.125  16.825   2.014 -0.1114 -0.0976  0.0041
 3649W        W46665  16.697  17.458  19.968  0.0542  0.2353  0.0300
 3650W        W46666  32.801  32.985  27.507  0.1804 -0.0828  0.0402
 3651W        W46667  22.359   9.473   8.682  0.2115  0.1390  0.3052
 3652W        W46668  11.239  28.407  18.191 -0.0322  0.0040  0.0585
 3653W        W46669   1.328  22.403  18.367  0.1131  0.2044 -0.2524
 3654W        W46670   6.492  26.920   9.652 -0.1292  0.1202  0.0293
 3655W        W46671  15.617  24.219   7.298  0.1222 -0.1945  0.0493
 3656W        W46672   8.757  12.323   8.234 -0.3497  0.0877 -0.1502
 3657W        W46673   8.887  17.376  25.859 -0.2524 -0.2214  0.0540
 3658W        W46674  22.461  20.361  15.613 -0.1527  0.1408  0.0393
 3659W        W46675  15.518  21.309   8.182  0.0619  0.1338 -0.0218
 3660W        W46676  11.069  17.997  20.060 -0.2084  0.1154 -0.2781
 3661W        W46677   8.252  17.963   2.628 -0.0352 -0.1052  0.0399
 3662W        W46678  12.799  23.078  24.117 -0.0702  0.0079 -0.1671
 3663W        W46679  27.187  19.120  21.191  0.1172  0.2499 -0.1231
 3664W        W46680  16.261  20.741   8.720  0.0919 -0.0788  0.2916
 3665W        W46681  15.290  22.933   5.298 -0.0355 -0.0287  0.0529
 3666W        W46682  17.534  30.029   7.459  0.1596  0.3352 -0.0668
 3667W        W46683  20.438  15.912  15.203  0.0928 -0.2156  0.2841
 3668W        W46684  12.198  23.615   3.605 -0.1208  0.0049  0.1752
 3669W        W46685  23.105  10.925   0.514  0.2239  0.0203 -0.0734
 3670W        W46686  19.656  22.533  25.533  0.3292  0.2392 -0.2034
 3671W        W46687   9.340  13.316  23.496 -0.0872 -0.1716 -0.1804
 3672W        W46688  24.424  33.821   2.754  0.0716  0.0218  0.0267
 3673W        W46689  10.455  12.174   0.898  0.1110 -0.1285 -0.0651
 3674W        W46690  26.125  15.478   5.170 -0.1100  0.0951  0.2291
 3675W        W46691  14.499  22.917  27.416 -0.1404  0.0767  0.1620
 3676W        W46692  32.514  11.272   4.188  0.1974 -0.0504  0.1218
 3677W        W46693   5.032   8.838   7.594  0.1710  0.0948 -0.0673
 3678W        W46694  12.551  17.723  13.749 -0.1382  0.2885  0.2151
 3679W        W46695  28.244   9.098   0.073  0.1158  0.3393  0.2965
 3680W        W46696   2.896  34.176  20.295  0.0133  0.2872 -0.2912
 3681W        W46697  19.753  18.921   5.962  0.0417 -0.1630  0.2167
 3682W        W46698  14.881  23.694  19.720 -0.0173  0.0490 -0.2231
 3683W        W46699  11.299  23.752   3.767  0.0715 -0.2162 -0.0530
 3684W        W46700  21.661  14.259   7.279  0.2049 -0.2326  0.1892
 3685W        W46701   1.294  21.757  28.360 -0.2497  0.1678 -0.2632
 3686W        W46702  19.956  12.029   8.442 -0.1453 -0.1284 -0.0535
 3687W        W46703  19.834  30.406  22.552  0.0814  0.0566 -0.2130
 3688W        W46704  14.317  25.240  18.480  0.0386  0.0144 -0.0047
 3689W        W46705  24.113  20.598  10.297  0.2571 -0.0584 -0.0868
 3690W        W46706  11.822  26.330   6.281  0.0284 -0.1374 -0.1866
 3691W        W46707  19.362  10.019  17.516  0.0424 -0.0420  0.1990
 3692W        W46708  32.973  20.678   8.997  0.0352 -0.1527 -0.1207
 3693W        W46709  29.524  20.495  11.261  0.1744 -0.1633  0.2778
 3694W        W46710  14.198  31.072   1.816 -0.1118 -0.0100 -0.0985
 3695W        W46711  17.905  22.531  20.698  0.1637 -0.0509  0.2097
 3696W        W46712  30.066  20.553  26.788  0.1090 -0.0544  0.0611
 3697W        W46713  18.273  28.256  21.222 -0.2364 -0.0784 -0.0787
 3698W        W46714  31.988  18.933   5.683 -0.1127  0.0027 -0.2019
 3699W        W46715  29.632  20.253   5.424 -0.0634  0.2935 -0.4772
 3700W        W46716   2.089  16.884   4.620 -0.0560 -0.3166 -0.2067
 3701W        W46717   6.756  24.812   3.844 -0.1181  0.3376  0.1460
 3702W        W46718  18.875  27.003   0.352 -0.1881  0.1245 -0.2513
 3703W        W46719  24.330  13.642   1.113  0.2252  0.0299  0.0937
 3704W        W46720  21.593  14.107  26.186  0.1058  0.1434  0.1348
 3705W        W46721   9.423  19.606   4.219  0.0490  0.1339 -0.3062
 3706W        W46722  23.079  34.067   2.033  0.2932  0.4713  0.1279
 3707W        W46723  24.370  31.817   6.348  0.1730  0.1415 -0.1070
 3708W        W46724  12.606  23.508   8.386  0.0314 -0.0198 -0.0807
 3709W        W46725  22.468  26.676  21.833 -0.1561  0.3731  0.1409
 3710W        W46726  24.718  17.422  17.377  0.0650 -0.0591 -0.1162
 3711W        W46727  15.192  28.059   8.720 -0.0152  0.0408 -0.0224
 3712W        W46728  24.303  16.584   6.072 -0.1140  0.2130  0.3294
 3713W        W46729  11.530  16.450  14.337 -0.1259 -0.0567 -0.2111
 3714W        W46730  15.634  14.225  25.234 -0.0226  0.0403  0.1994
 3715W        W46731  26.783  16.253   0.487  0.2163 -0.1206  0.0380
 3716W        W46732  11.716  21.805   4.786  0.0468  0.2736  0.0559
 3717W        W46733  16.818  26.134  29.135  0.0381 -0.2759  0.0033
 3718W        W46734  21.266  13.724   5.002 -0.1960  0.1306 -0.4816
 3719W        W46735   6.765  21.532  18.789 -0.1107  0.0071  0.0945
 3720W        W46736  10.327  32.427  24.266  0.3749 -0.1261  0.0043
 3721W        W46737   5.513  27.188   8.241 -0.0801  0.0854  0.0673
 3722W        W46738  11.172  12.440   1.069  0.0092  0.1210  0.1553
 3723W        W46739  14.827  20.351  28.344 -0.1819  0.2179 -0.0579
 3724W        W46740  21.614  17.584   3.999 -0.2623  0.1131 -0.1182
 3725W        W46741  33.187   6.245  18.207  0.1092  0.0441  0.4133
 3726W        W46742   4.886  24.200  25.628  0.1651 -0.1331  0.1015
 3727W        W46743  14.367  34.702  10.771 -0.0087  0.1532 -0.0103
 3728W        W46744  21.753  28.038   9.530  0.3479  0.1362  0.1746
 3729W        W46745  15.811  21.778  28.948 -0.0823  0.0585  0.1028
 3730W        W46746  19.792  27.953  14.922 -0.0727  0.1182 -0.1832
 3731W        W46747  32.528  26.915  18.342  0.0469  0.0580  0.0606
 3732W        W46748  20.075  20.516   2.960  0.0305 -0.2920  0.2685
 3733W        W46749   2.099   1.905  25.375  0.0231 -0.3933 -0.1849
 3734W        W46750  11.581  12.504  24.662  0.1985  0.1744 -0.4608
 3735W        W46751  14.396  16.987   1.669 -0.0436 -0.1022  0.1259
 3736W        W46752   8.256  19.266   4.188 -0.1604  0.1034  0.1575
 3737W        W46753  14.474  25.040   5.650  0.0591 -0.1557  0.0558
 3738W        W46754  17.090  19.454  29.130  0.2290 -0.1230 -0.1010
 3739W        W46755   3.631  29.248   5.281 -0.0551 -0.3031  0.1092
 3740W        W46756  12.359   4.458   8.506 -0.2067  0.0342  0.2905
 3741W        W46757  18.178  34.342  19.734  0.2750  0.0799  0.0831
 3742W        W46758  17.874  12.190   9.473  0.2916  0.2490 -0.0038
 3743W        W46759  32.559  18.977   7.173 -0.3922  0.2102 -0.1035
 3744W        W46760  34.754  11.347   6.000  0.0321 -0.3251 -0.0812
 3745W        W46761  20.923  20.774   4.313  0.0496  0.1790 -0.1167
 3746W        W46762  14.289  26.388   4.789  0.2359  0.1776 -0.2347
 3747W        W46763  26.674  22.360  10.217 -0.0330  0.1081 -0.0875
 3748W        W46764  23.509  14.368  28.149  0.1618 -0.0048 -0.2800
 3749W        W46765  24.484  21.790  23.722  0.1635 -0.0598  0.0408
 3750W        W46766  16.521  22.821   3.672 -0.2939  0.1091 -0.1748
 3751W        W46767  11.796  12.594   8.591 -0.2499  0.0825  0.0266
 3752W        W46768  22.353  15.745   6.602 -0.2521 -0.0412 -0.5946
 3753W        W46769  14.824  23.760  21.614 -0.1526 -0.2050  0.1409
 3754W        W46770  31.907  11.028   5.239  0.0726  0.0833 -0.3009
 3755W        W46771  12.888   2.395   0.534  0.1050 -0.1775  0.0837
 3756W        W46772  11.991  13.141  17.731 -0.0620 -0.0209 -0.0859
 3757W        W46773   6.327  14.457  21.136  0.2093  0.3726  0.1395
 3758W        W46774   8.565  23.685  28.475 -0.0300  0.0042  0.0416
 3759W        W46775   0.745   5.644   4.406 -0.1737  0.1782  0.1823
 3760W        W46776  24.936  13.211   4.352  0.1399 -0.1516  0.0254
 3761W        W46777  16.404  20.542   5.935 -0.1342  0.2158  0.1313
 3762W        W46778  12.389   5.062  19.792  0.0582  0.0277 -0.0545
 3763W        W46779  23.929  27.568  28.105 -0.2010 -0.1530  0.1020
 3764W        W46780   1.933   4.185  17.308 -0.1036  0.0413  0.0635
 3765W        W46781  20.881   3.283   2.132 -0.0240 -0.0288  0.0971
 3766W        W46782   8.427  17.689  26.476  0.2501 -0.1068 -0.1445
 3767W        W46783  25.136  31.428   9.531  0.1028  0.2846  0.0084
 3768W        W46784  18.999  26.885   7.591  0.2359 -0.1246  0.2417
 3769W        W46785  17.330  17.453   1.506  0.1280  0.0352 -0.1356
 3770W        W46786  12.985  31.699   4.875 -0.2320 -0.1897  0.0975
 3771W        W46787  29.338  22.302   7.679  0.1210  0.0710  0.1828
 3772W        W46788  13.169  18.994   2.180  0.0339 -0.1335  0.0432
 3773W        W46789  20.601  24.390  23.374  0.0211 -0.1136  0.1947
 3774W        W46790  10.643  24.516  25.508  0.0817  0.0966  0.0335
 3775W        W46791   6.215  16.732  27.210 -0.0832 -0.1164 -0.1117
 3776W        W46792   8.280   4.381  20.984  0.1601  0.0981 -0.1290
 3777W        W46793   1.377  24.099  29.107  0.0245 -0.3159  0.1602
 3778W        W46794  19.014  17.061   4.473  0.1835  0.1913  0.0150
 3779W        W46795  12.053  24.248  20.789  0.2519 -0.3403  0.0600
 3780W        W46796   8.909  19.727   6.713  0.0707 -0.2188  0.0924
 3781W        W46797   7.282  21.533   4.583 -0.1522  0.1005 -0.1272
 3782W        W46798  22.727  11.312   9.629 -0.1932  0.1119 -0.1342
 3783W        W46799  12.181  23.601  27.198  0.0029 -0.0188 -0.1147
 3784W        W46800  16.498  18.921  20.733 -0.1122  0.1193 -0.0508
 3785W        W46801  15.676  11.416  27.207 -0.1476  0.0509  0.2370
 3786W        W46802   3.408  16.700  19.684  0.0810  0.2898  0.0496
 3787W        W46803  15.681  12.495   4.374  0.0926  0.1966 -0.1367
 3788W        W46804  30.996  19.054  23.629 -0.0938 -0.0825  0.1292
 3789W        W46805   1.618  23.049  25.980  0.0697 -0.1174  0.2787
 3790W        W46806  15.190  18.452  13.371  0.0409  0.0975 -0.1354
 3791W        W46807  32.467  10.479  10.636  0.2542  0.2690 -0.3791
 3792W        W46808  12.047  18.283   1.602  0.0923  0.3455 -0.3182
 3793W        W46809  22.717  12.888  16.529  0.2043 -0.0373 -0.0889
 3794W        W46810  22.451  13.940   0.786  0.3198 -0.2406 -0.3828
 3795W        W46811  22.651  15.751   4.275 -0.0543  0.0900  0.1598
 3796W        W46812  17.466  31.654   1.128  0.2934  0.2707  0.1141
 3797W        W46813  26.540  20.798   6.789 -0.0397 -0.0405  0.0282
 3798W        W46814  10.682   1.559  14.689 -0.0694  0.2099 -0.0926
 3799W        W46815   9.253  24.062  22.895  0.0275  0.3126 -0.2043
 3800W        W46816  17.095  14.498  28.411  0.0940 -0.0825  0.0245
 3801W        W46817  30.208  29.684  11.269  0.0523 -0.0304 -0.0608
 3802W        W46818  11.315  21.803   7.458 -0.0088 -0.0136 -0.1333
 3803W        W46819   1.077  18.816   5.611  0.2000  0.1304 -0.1073
 3804W        W46820  14.233  17.098   5.819  0.1107 -0.2546  0.5398
 3805W        W46821   9.732   9.517   3.814  0.3266 -0.0285 -0.1108
 3806W        W46822  14.104  28.082  26.331 -0.1593 -0.1676  0.1279
 3807W        W46823  16.476  27.284  21.367 -0.1655 -0.2287 -0.0357
 3808W        W46824  18.838  16.709   1.346 -0.1982 -0.0931 -0.1281
 3809W        W46825  27.788  14.935   8.576  0.0212 -0.0036 -0.1630
 3810W        W46826  26.338  11.174   6.405  0.0659  0.2083 -0.1309
 3811W        W46827  12.248  16.456  25.466  0.0881  0.0012 -0.1744
 3812W        W46828  30.161  10.790   5.798 -0.0561  0.0274 -0.0155
 3813W        W46829   5.261  10.563  29.227 -0.0434  0.2469 -0.1353
 3814W        W46830  34.732  22.130   1.060  0.0032 -0.6089 -0.0490
 3815W        W46831  13.037  23.022  17.987 -0.2199  0.1397 -0.0585
 3816W        W46832  32.152  17.838  20.976 -0.2134  0.1658  0.1550
 3817W        W46833  10.600  12.289   0.298 -0.2009  0.0040  0.3156
 3818W        W46834   3.723   5.518  21.362  0.1476  0.0870  0.0489
 3819W        W46835  16.757  17.867  19.195  0.0842 -0.1331 -0.0496
 3820W        W46836  22.737  22.387   9.538 -0.0687  0.0548 -0.2945
 3821W        W46837  30.584  21.927   8.035  0.2133 -0.0104 -0.0092
 3822W        W46838  25.333  10.548  17.447  0.1738 -0.2156 -0.1877
 3823W        W46839   0.069   4.486   9.204  0.2007 -0.4345 -0.1588
 3824W        W46840  10.383  21.917   4.153  0.0951  0.1460  0.2726
 3825W        W46841  19.579  24.597   5.641 -0.1403 -0.2653 -0.1455
 3826W        W46842  23.049  15.765   8.320 -0.0846 -0.2291 -0.0592
 3827W        W46843  26.179  12.653  22.976  0.2045 -0.0065 -0.2509
 3828W        W46844   1.280  14.587  10.119  0.1204 -0.3835 -0.3405
 3829W        W46845   7.938   5.266   0.657 -0.1288  0.0357 -0.0533
 3830W        W46846  14.179  20.489  24.778  0.0621 -0.0588  0.1603
 3831W        W46847   4.324  15.002  23.482 -0.4567  0.1344 -0.1208
 3832W        W46848  15.263  18.220   3.345 -0.1575 -0.3388 -0.0372
 3833W        W46849  11.415  23.111   1.085  0.0047  0.3930 -0.0302
 3834W        W46850   2.631   9.400   9.883 -0.1474 -0.2090  0.1298
 3835W        W46851  25.517  12.657   4.867 -0.1756  0.2443  0.5383
 3836W        W46852  27.657  16.472  28.228  0.3743  0.2006  0.0445
 3837W        W46853  26.505  12.722  19.513 -0.1920  0.0484  0.2527
 3838W        W46854  21.141   9.932   8.371  0.3362 -0.2000 -0.1856
 3839W        W46855  15.257  15.753   0.867 -0.0427  0.0516  0.0667
 3840W        W46856  15.842  29.405   2.860  0.0584  0.0792 -0.0325
 3841W        W46857  29.789  16.583   3.209  0.0243  0.0738 -0.1499
 3842W        W46858  20.322  32.214   3.401  0.0010  0.0257  0.1261
 3843W        W46859  25.151  14.733  27.978  0.0078 -0.2303  0.0844
 3844W        W46860   7.131  14.215   0.779 -0.0565  0.1249 -0.0943
 3845W        W46861  11.859  23.616  24.593  0.0037  0.3488 -0.2809
 3846W        W46862  17.687  19.700   8.234 -0.0690  0.0163  0.0276
 3847W        W46863   3.123  22.300  29.034 -0.0894 -0.0210  0.3110
 3848W        W46864   4.326  23.825   5.216  0.1822  0.3041  0.2600
 3849W        W46865   4.225  16.627   5.049  0.1969  0.3280 -0.0367
 3850W        W46866   9.832  20.177   6.918  0.0099  0.0834  0.1088
 3851W        W46867  15.040   2.249   5.930  0.2144 -0.0639  0.1201
 3852W        W46868  15.191  17.609  28.295  0.0324  0.1650  0.0995
 3853W        W46869   9.985   4.388  23.908 -0.1112  0.2139  0.2283
 3854W        W46870   6.055  10.050   9.200  0.0265  0.0058  0.0457
 3855W        W46871  23.456  24.081  25.488 -0.0675 -0.2097 -0.0052
 3856W        W46872   7.091  19.084   7.593  0.0157  0.3613 -0.0073
 3857W        W46873  15.615  16.695   4.298  0.0645 -0.2189 -0.1549
 3858W        W46874  18.713  29.432   7.601 -0.2058  0.0589 -0.0908
 3859W        W46875   5.796   0.932   0.021  0.1153  0.1203  0.0109
 3860W        W46876  28.923  10.252   3.806 -0.4961  0.2880 -0.1523
 3861W        W46877  12.694   8.347   3.315 -0.1018 -0.0582  0.1051
 3862W        W46878  24.831   4.966  22.247  0.3155 -0.1018  0.0937
 3863W        W46879   9.795   5.032  29.108 -0.0268  0.0183  0.1516
 3864W        W46880   6.159  20.968   6.761  0.1155  0.1841  0.2962
 3865W        W46881  19.932  16.742  27.170  0.3584  0.4674  0.0221
 3866W        W46882  14.191  13.790  27.187 -0.2883 -0.0239  0.2518
 3867W        W46883  18.956   5.510   6.008 -0.0345 -0.0969 -0.0103
 3868W        W46884  10.040  30.184   7.096  0.3169 -0.2049  0.0974
 3869W        W46885  24.930  24.866   4.471 -0.0598  0.0588  0.0748
 3870W        W46886  16.820  19.278   7.259 -0.0440 -0.0340  0.3368
 3871W        W46887  30.080  26.662  16.240 -0.3010  0.1632 -0.1577
 3872W        W46888  33.805  26.458   0.063 -0.0216 -0.0622 -0.2014
 3873W        W46889  18.684  22.243   8.870 -0.0479 -0.2569  0.5096
 3874W        W46890  12.639  14.604  26.934 -0.0197  0.3231  0.3392
 3875W        W46891  17.161  25.380   5.654 -0.1559 -0.1220  0.2443
 3876W        W46892   2.880  14.744   8.783  0.0098 -0.0768 -0.1093
 3877W        W46893  11.772   7.556  27.595 -0.2014 -0.2222  0.1194
 3878W        W46894  23.359  16.593   3.842  0.0725 -0.1815  0.0034
 3879W        W46895  16.839  20.302   1.921  0.0999  0.0295  0.1350
 3880W        W46896  16.684  18.879   3.798  0.1580 -0.0339  0.3954
 3881W        W46897  14.460  23.504   0.928  0.1450  0.0092 -0.2966
 3882W        W46898  17.378  10.540  16.593 -0.0840 -0.0578 -0.1059
 3883W        W46899  25.995  20.251   7.913 -0.1802  0.1078 -0.2588
 3884W        W46900   3.483  10.027   5.796 -0.0187  0.1153  0.0513
 3885W        W46901  31.127   5.314   2.039 -0.1602  0.1360  0.0169
 3886W        W46902  21.391   5.772   8.059  0.1518  0.4109 -0.0440
 3887W        W46903  15.508  17.923   7.572 -0.0486  0.0530  0.0210
 3888W        W46904  13.897  27.209   5.113  0.2907  0.0040 -0.0254
 3889W        W46905  13.854  20.668   4.047 -0.2246 -0.3868  0.3306
 3890W        W46906  22.598   7.200   4.946 -0.3582  0.2568 -0.0017
 3891W        W46907  23.070  23.322   2.014  0.1701 -0.0695 -0.0518
 3892W        W46908  11.727  23.478   3.613 -0.2062  0.0315  0.2725
 3893W        W46909   8.674  16.700   3.901  0.2950  0.4440  0.1379
 3894W        W46910  19.066  24.619  21.056  0.0527  0.2006  0.0410
 3895W        W46911  12.918  32.639  19.918 -0.2406  0.1238  0.2483
 3896W        W46912   6.013   8.788   8.049 -0.2087  0.1315  0.0836
 3897W        W46913  21.312  21.083   8.786  0.0613  0.0965 -0.0615
 3898W        W46914  25.938  33.761   6.668 -0.2179 -0.3940  0.0986
 3899W        W46915   9.420  11.288   5.571  0.4407 -0.1224 -0.2306
 3900W        W46916  15.409  14.463   8.362  0.0507 -0.4015  0.0591
 3901W        W46917  23.746  13.180   4.959 -0.1198 -0.1133  0.2288
 3902W        W46918  28.646  20.768   7.147 -0.0085 -0.1508  0.0819
 3903W        W46919  25.640  28.421   8.418 -0.5705 -0.0754 -0.1481
 3904W        W46920  25.402  17.055   9.335 -0.2187 -0.1614 -0.1423
 3905W        W46921  17.684  11.780  23.012  0.2877  0.1164 -0.1019
 3906W        W46922   7.556  25.203   8.108 -0.1093  0.0405 -0.2744
 3907W        W46923   8.963  30.721  16.483  0.1676 -0.1289 -0.2241
 3908W        W46924   1.306  21.398  26.727  0.1819  0.0040  0.0988
 3909W        W46925   8.934  21.403   0.682  0.0263  0.4070 -0.0251
 3910W        W46926  30.518  17.324  10.187 -0.2103  0.1878 -0.0094
 3911W        W46927   0.583  31.926   8.341 -0.0985 -0.0593  0.2700
 3912W        W46928  26.886  20.538   3.364 -0.1861  0.1253  0.2178
 3913W        W46929  18.768   5.326   9.075 -0.1635  0.0123 -0.2527
 3914W        W46930   6.007  21.592   6.995 -0.0764 -0.1530  0.1855
 3915W        W46931   1.694  29.602   6.260  0.0351  0.1813  0.0416
 3916W        W46932  16.138  22.549  22.537  0.0090  0.1979  0.1720
 3917W        W46933   7.673   1.408  25.942 -0.0366  0.0290  0.1541
 3918W        W46934  10.281   7.714   3.362  0.0231  0.2237 -0.1657
 3919W        W46935  15.516  32.820   8.828  0.2720  0.3969 -0.0345
 3920W        W46936  16.267  15.910   3.296  0.1911  0.0686 -0.1204
 3921W        W46937  32.797   9.138   6.487 -0.2049  0.1999  0.0954
 3922W        W46938   9.832  11.810   7.556 -0.0937  0.0897  0.2546
 3923W        W46939  26.943   1.511   5.728  0.1774 -0.2991 -0.2726
 3924W        W46940  33.977  14.426   5.056  0.2041  0.1770 -0.1309
 3925W        W46941  11.850  12.580   5.310  0.2189 -0.2103  0.4946
 3926W        W46942  19.921   7.458  17.544  0.0570 -0.1363  0.0711
 3927W        W46943  32.272   1.340   3.387 -0.0897  0.0407  0.0203
 3928W        W46944  14.931  22.561   0.320  0.0103 -0.1490 -0.4740
 3929W        W46945  25.398  19.899   4.120 -0.2000 -0.0082 -0.2112
 3930W        W46946   9.940   8.642   2.141  0.0146  0.1072 -0.0771
 3931W        W46947   8.830  14.461   2.541 -0.0527  0.3172  0.0360
 3932W        W46948  11.112  30.804   2.687  0.0732 -0.1032  0.1059
 3933W        W46949  15.634  15.136  14.160  0.1566 -0.0948  0.0595
 3934W        W46950  12.508  14.905  24.719 -0.0605 -0.0660 -0.2133
 3935W        W46951  29.256  10.553   6.235  0.1355 -0.2475 -0.0901
 3936W        W46952  22.557   2.080   4.829  0.1882  0.0017  0.1341
 3937W        W46953  19.807  22.339   8.384  0.2359 -0.5250 -0.1541
 3938W        W46954   9.058  31.564   2.765  0.0984  0.2321 -0.1075
 3939W        W46955   9.826  14.999   5.570 -0.0096  0.2556  0.0768
 3940W        W46956  18.213  10.910   7.720 -0.1266  0.2821 -0.0461
 3941W        W46957  21.623   1.139  26.666 -0.0375  0.2800 -0.0190
 3942W        W46958  22.700   0.497   9.408  0.0439 -0.1457  0.0269
 3943W        W46959  33.344  25.923  10.074 -0.1908 -0.2114 -0.3192
 3944W        W46960  24.101  11.494  19.044 -0.0378 -0.1462 -0.0017
 3945W        W46961  22.154  19.343  26.752 -0.1277 -0.1341 -0.1431
 3946W        W46962  17.628  23.513   5.370  0.0771 -0.1160  0.0494
 3947W        W46963   9.703  32.743  25.004 -0.2643 -0.3560  0.0558
 3948W        W46964   9.926  27.363   4.861 -0.3332 -0.3250  0.1264
 3949W        W46965  13.891  26.732   9.253 -0.0813 -0.0347  0.1460
 3950W        W46966  17.898  17.468   0.217 -0.1628  0.2078  0.1684
 3951W        W46967  32.820  26.648   4.670  0.0406  0.1161 -0.2047
 3952W        W46968  23.869  21.820   1.151  0.3146 -0.1421  0.1789
 3953W        W46969  19.486  27.912  10.089  0.2177  0.0774  0.2229
 3954W        W46970  20.832   1.949   1.882  0.2719 -0.0446 -0.2819
 3955W        W46971  19.376  13.713   7.003  0.0466  0.2336  0.0048
 3956W        W46972   0.470  14.741  10.137  0.0856  0.1422 -0.2067
 3957W        W46973  11.419   4.834   9.080 -0.2099  0.1617 -0.0037
 3958W        W46974   1.178  12.466  11.566  0.2819 -0.1399 -0.2807
 3959W        W46975   7.534  17.301   4.355 -0.3424  0.0411 -0.1277
 3960W        W46976  13.784   9.872   7.109 -0.1159 -0.0128  0.3181
 3961W        W46977   0.468  15.753  28.277 -0.3119 -0.2895 -0.2315
 3962W        W46978  29.862  14.742  18.102  0.0096 -0.1465  0.0644
 3963W        W46979  13.875  14.904   1.173 -0.1629  0.2470  0.0564
 3964W        W46980  12.871  15.790   1.693 -0.1206 -0.1486  0.2313
 3965W        W46981  18.763   7.763  26.713  0.2926 -0.0049 -0.1875
 3966W        W46982  10.606  26.514  13.819  0.1767 -0.2287  0.0667
 3967W        W46983  22.673  25.601   0.871 -0.0906 -0.0411  0.0117
 3968W        W46984  29.400   8.684   8.269 -0.3718  0.0600  0.1299
 3969W        W46985  17.272  32.355  26.042 -0.0236  0.0833 -0.0568
 3970W        W46986  18.699  14.524   5.896 -0.3139  0.1334 -0.1698
 3971W        W46987  21.100  22.518  28.841  0.2674  0.1794 -0.0888
 3972W        W46988  17.778   7.840   7.973 -0.0244  0.1681 -0.2941
 3973W        W46989  16.681  14.043   7.282  0.0389 -0.0319  0.1805
 3974W        W46990   4.560  15.386  22.186 -0.0062  0.2087  0.2195
 3975W        W46991   8.954  31.473   1.997 -0.0380  0.1083 -0.0904
 3976W        W46992   4.369  13.045   5.525 -0.1470 -0.1872 -0.0612
 3977W        W46993  12.978  22.489   5.116 -0.2665  0.2561 -0.2863
 3978W        W46994  34.054  12.041   4.825  0.0201 -0.1127 -0.0809
 3979W        W46995  19.047  17.278   2.310 -0.2384 -0.2015 -0.1905
 3980W        W46996   6.380  13.732  27.607  0.3684  0.0363 -0.0288
 3981W        W46997  18.044  14.914   8.162  0.0190  0.0008  0.1451
 3982W        W46998  13.875  22.623   5.509  0.2187  0.2874  0.0101
 3983W        W46999  12.119  29.200  18.636 -0.0772  0.2455  0.3617
 3984W        W47000  30.717  13.926   2.222  0.1693  0.0780  0.1959
 3985W        W47001  21.312  34.126  26.430 -0.0864  0.0150  0.0500
 3986W        W47002  13.758   6.890  21.122  0.1860  0.0281  0.0183
 3987W        W47003  16.254  20.050  27.992  0.1450 -0.1756  0.0407
 3988W        W47004  17.692   9.973   5.313 -0.1267 -0.0218 -0.0072
 3989W        W47005  31.413   1.663   9.210 -0.0726  0.0112  0.1891
 3990W        W47006  29.658  33.047   1.925  0.1261  0.0627  0.0040
 3991W        W47007   8.976  23.600   1.604 -0.2824 -0.5170  0.2454
 3992W        W47008  11.844  32.289   9.343  0.1690 -0.1378  0.3098
 3993W        W47009  24.309  33.088   4.540 -0.1059  0.1450 -0.1800
 3994W        W47010  17.559  22.992   0.151  0.0254  0.3002  0.1736
 3995W        W47011   8.205  28.350  22.620 -0.2971  0.0849 -0.0602
 3996W        W47012  14.493  27.811  29.160 -0.0600  0.3277 -0.3220
 3997W        W47013   7.352  15.646   6.191  0.1982 -0.1682  0.1552
 3998W        W47014  20.285  15.357  28.362 -0.1345 -0.0895  0.0416
 3999W        W47015  13.089  22.893   6.067  0.0032 -0.2465 -0.3547
 4000W        W47016  25.228  22.640   7.647  0.1138  0.0030 -0.2026
 4001W        W47017  25.239  30.009   9.683  0.0244 -0.1009  0.0771
 4002W        W47018   9.853   3.755   7.325 -0.2718  0.1653 -0.1684
 4003W        W47019  15.550   8.843   8.685  0.2547  0.1647 -0.2038
 4004W        W47020  18.045  22.324   5.304 -0.1888 -0.0337 -0.0515
 4005W        W47021  14.355   5.819  20.501 -0.1724  0.0652  0.0836
 4006W        W47022  12.551   8.454   4.510 -0.2770 -0.1094  0.0435
 4007W        W47023  21.854  15.628  25.336  0.1555  0.0451 -0.1649
 4008W        W47024   7.590  23.423  25.391 -0.1358 -0.1234 -0.0881
 4009W        W47025  29.704  25.786  27.579 -0.4270 -0.3331  0.3019
 4010W        W47026  15.856  15.662   0.784 -0.1806  0.0745 -0.3534
 4011W        W47027  26.097  11.434   5.373 -0.0684 -0.3552 -0.1478
 4012W        W47028  14.212  27.176  10.041 -0.1030 -0.0330  0.0429
 4013W        W47029  24.937   8.570   4.445  0.0073  0.0877  0.2568
 4014W        W47030  12.342  24.224   5.275  0.0498  0.0226  0.0868
 4015W        W47031  17.627  29.928  26.582 -0.1637 -0.3145  0.0679
 4016W        W47032  11.090  17.264  25.662  0.4388 -0.1332  0.0513
 4017W        W47033   2.491   6.235   6.941 -0.0364 -0.1375  0.1461
 4018W        W47034  14.386  23.603   9.217  0.2226 -0.1522  0.0629
 4019W        W47035   2.372  20.143   5.355 -0.0551  0.1069 -0.0590
 4020W        W47036  21.049  25.729   9.586  0.0538  0.2659 -0.0490
 4021W        W47037  14.098  26.133   6.886  0.0485  0.1199 -0.1102
 4022W        W47038  31.429  20.875   7.666  0.1756 -0.0460  0.0383
 4023W        W47039  14.430  14.293  26.979  0.2871 -0.1223  0.0942
 4024W        W47040  21.234  21.620  28.467 -0.0616  0.0714  0.0166
 4025W        W47041  17.491  18.589  28.888  0.2355  0.1011  0.0673
 4026W        W47042  21.938   2.944   6.427 -0.1137 -0.1350  0.0918
 4027W        W47043  12.812  19.754  25.603 -0.2335  0.3146  0.1072
 4028W        W47044  13.843  23.014   7.079  0.1188 -0.0740 -0.0134
 4029W        W47045  21.874   8.538   2.221  0.0176  0.1954 -0.0913
 4030W        W47046  25.171  21.740  22.547  0.1270 -0.0815  0.4509
 4031W        W47047  20.752  15.407   6.659 -0.1594 -0.3242  0.1287
 4032W        W47048  32.849  22.116  26.967  0.0285 -0.0849 -0.0325
 4033W        W47049  16.113   8.015   0.924  0.1315 -0.1519  0.1561
 4034W        W47050  18.744  23.940  17.701 -0.3426 -0.2278 -0.1292
 4035W        W47051  15.800  26.373  18.644 -0.0130  0.1326 -0.0544
 4036W        W47052  18.106  14.258   0.331 -0.0703 -0.4504  0.0087
 4037W        W47053  12.876   1.357  26.817 -0.0291 -0.0406 -0.5028
 4038W        W47054  10.056  14.545   7.371 -0.1234  0.1020 -0.2095
 4039W        W47055   8.861   8.778  25.757  0.0973  0.0912  0.0434
 4040W        W47056  16.528   9.730  24.332 -0.1728 -0.1771  0.1362
 4041W        W47057  25.261  33.666  25.889 -0.1561  0.0238 -0.2675
 4042W        W47058  25.161  16.635   0.731 -0.0500 -0.2099 -0.2301
 4043W        W47059  31.418  18.930   0.141 -0.2365  0.2255 -0.0585
 4044W        W47060  33.816  27.339   5.598  0.3494  0.0989 -0.0237
 4045W        W47061  33.742  18.731  10.418  0.3237 -0.1240 -0.0454
 4046W        W47062  18.359  30.158   4.566 -0.0738  0.3632 -0.2875
 4047W        W47063   5.724   0.484   8.964  0.2601  0.0995 -0.3826
 4048W        W47064   6.938  27.444   0.708 -0.1677 -0.1861  0.1008
 4049W        W47065  15.756  21.014  27.040 -0.0929  0.0884  0.0577
 4050W        W47066  17.277  15.239   8.522 -0.1456  0.2361 -0.0187
 4051W        W47067  27.454  10.690   6.472 -0.2630  0.0261  0.1833
 4052W        W47068  25.062  23.474   9.369  0.1333  0.1738 -0.1243
 4053W        W47069  18.623  25.567   3.780 -0.0695 -0.2838 -0.1129
 4054W        W47070  19.214  20.594   5.124  0.0023 -0.2895 -0.1299
 4055W        W47071  19.250  16.545  28.306 -0.0997  0.5029 -0.2083
 4056W        W47072  22.652   0.078  28.351 -0.3147  0.0075  0.0323
 4057W        W47073   8.227  23.803  25.826  0.0951  0.1337 -0.1387
 4058W        W47074  23.506  17.001   1.827 -0.0469  0.3842 -0.0781
 4059W        W47075  17.755   5.908  24.038 -0.0591  0.0999  0.0331
 4060W        W47076   5.905  14.573  27.990  0.0026 -0.2697 -0.0703
 4061W        W47077  16.504  23.799   3.391  0.2208  0.2404  0.4367
 4062W        W47078  17.811  24.162  29.052 -0.0223 -0.0984 -0.0782
 4063W        W47079  20.949   6.765  23.589 -0.1554  0.2267 -0.1899
 4064W        W47080   1.210   6.830  10.233  0.2254  0.1447 -0.0336
 4065W        W47081  11.274   7.093  25.239  0.1842  0.1192 -0.0581
 4066W        W47082  14.394  21.124   6.664  0.0557 -0.4665  0.1564
 4067W        W47083  26.956  14.181   1.718  0.2617  0.0256  0.4072
 4068W        W47084  30.863  13.241  19.738  0.0501 -0.0704  0.0321
 4069W        W47085  29.148  25.086   6.098  0.2364 -0.0469 -0.2107
 4070W        W47086  13.045  30.498  24.506  0.1942  0.0623 -0.3350
 4071W        W47087  15.052  29.063   1.842 -0.3092 -0.0314  0.1859
 4072W        W47088  14.688  21.778  14.180 -0.0719 -0.2090 -0.3298
 4073W        W47089  31.293  11.026   1.857  0.3648 -0.1357  0.2091
 4074W        W47090  27.717   7.723   9.553 -0.0235  0.0880 -0.2373
 4075W        W47091  12.649  22.223   4.785 -0.0151  0.0684  0.2814
 4076W        W47092  23.342  26.498  22.768 -0.1229  0.4286  0.0273
 4077W        W47093   2.101  26.371   9.786  0.4135 -0.0157  0.3129
 4078W        W47094   4.632  15.957  24.063  0.1541  0.2729  0.0051
 4079W        W47095  11.055   7.437   1.456 -0.0095 -0.0251 -0.2286
 4080W        W47096  10.545  23.080  23.512 -0.1223  0.0901  0.0155
 4081W        W47097   5.988  25.182   5.571 -0.1461 -0.0848  0.0514
 4082W        W47098   9.392  10.497   5.313 -0.1709 -0.1734 -0.1068
 4083W        W47099  15.767  20.124   4.867  0.1142 -0.1382  0.2838
 4084W        W47100  26.153  10.891   5.404 -0.1905 -0.2879 -0.1023
 4085W        W47101  14.495  14.659   1.838 -0.1117  0.1949 -0.0977
 4086W        W47102  13.577  17.409  13.651  0.2423 -0.0046  0.1515
 4087W        W47103  27.238  15.167   4.498  0.4182 -0.1847 -0.0176
 4088W        W47104  14.669  12.005  17.688 -0.1408 -0.0805  0.3367
 4089W        W47105  21.067  19.387   4.380  0.1977 -0.1585  0.1850
 4090W        W47106  23.771   5.917   7.801  0.2640 -0.2707  0.2686
 4091W        W47107  27.459  16.270  17.123  0.2015  0.0891  0.2025
 4092W        W47108  17.110  31.926  23.259  0.0128  0.1956 -0.0563
 4093W        W47109  14.231  21.161  25.951  0.2141 -0.1630 -0.0730
 4094W        W47110  18.800  22.740   5.111 -0.0980  0.0623  0.1608
 4095W        W47111  25.766  23.001   0.052 -0.1904  0.1056 -0.0839
 4096W        W47112  11.863   9.771  28.625 -0.0446  0.0248  0.0224
 4097W        W47113  29.724  29.532   0.986 -0.2020 -0.1210  0.1353
 4098W        W47114  30.510   5.064   5.809  0.0851  0.3441  0.1010
 4099W        W47115  26.414  13.379   5.546 -0.1878  0.0319  0.0365
 4100W        W47116  12.217  11.909   4.732  0.1706  0.2750  0.0133
 4101W        W47117  20.379  22.883   4.309 -0.2672  0.1940 -0.1125
 4102W        W47118  16.545   0.629   9.179  0.1359  0.0587 -0.3378
 4103W        W47119  18.988  10.459   5.718 -0.1384 -0.1229  0.0399
 4104W        W47120  27.482  14.435   3.042  0.1002 -0.2260 -0.2154
 4105W        W47121  12.808   1.701   3.990 -0.1038  0.1557  0.1446
 4106W        W47122  11.584  22.267   7.019 -0.2069 -0.2759  0.4944
 4107W        W47123  14.024   0.347   2.765  0.0327  0.0540  0.1229
 4108W        W47124  23.058  23.455   6.181 -0.0136 -0.2338  0.1865
 4109W        W47125  25.838  26.175   8.571  0.1994 -0.2640  0.1011
 4110W        W47126   6.922  21.903  25.025 -0.2014  0.1909 -0.0409
 4111W        W47127   3.789  15.756   1.001  0.0070 -0.1490 -0.1192
 4112W        W47128   3.401  11.445   1.510 -0.1026  0.0276  0.2641
 4113W        W47129  19.675  26.819  28.987  0.1182  0.0630 -0.1077
 4114W        W47130  21.007  28.654  10.331  0.1860 -0.1718  0.2865
 4115W        W47131  22.289  16.366   8.858 -0.1317  0.1279 -0.2368
 4116W        W47132   4.381  29.795   4.815 -0.0016  0.2961  0.4162
 4117W        W47133  14.976  29.287   6.398  0.1141 -0.0985  0.2702
 4118W        W47134   2.830  21.674   0.203  0.2067 -0.1275 -0.1288
 4119W        W47135  27.277  15.679   5.647  0.0436  0.0387 -0.3283
 4120W        W47136  16.298  22.991   5.013  0.1374  0.0100  0.0079
 4121W        W47137  20.179  15.990  26.660 -0.0887 -0.2042  0.0503
 4122W        W47138  33.329   2.831   6.600  0.3502 -0.0976  0.2763
 4123W        W47139  15.734  13.370   3.368  0.0182  0.0020 -0.0216
 4124W        W47140  10.975  16.927  22.127 -0.3274  0.1781  0.1342
 4125W        W47141   8.979  11.532   2.606  0.0605  0.0362 -0.0603
 4126W        W47142  13.291  25.645   4.669 -0.0998  0.0348  0.1637
 4127W        W47143  30.350  10.811  28.848  0.1446 -0.1238 -0.1093
 4128W        W47144   4.981  25.327   3.121 -0.1012  0.0774 -0.2756
 4129W        W47145   8.781  24.968   8.822  0.2029  0.1960  0.0874
 4130W        W47146   3.837  20.878   7.087  0.2034  0.1481 -0.1859
 4131W        W47147  31.268  27.120  25.187 -0.3098  0.1673  0.1492
 4132W        W47148  12.172  25.474   7.316 -0.1377  0.0340 -0.2530
 4133W        W47149  27.033  33.039   7.170 -0.1171  0.0641 -0.0426
 4134W        W47150  19.945  16.180   4.714  0.0711  0.1721  0.3039
 4135W        W47151  18.131  17.960   6.190  0.2820  0.2992  0.1633
 4136W        W47152  31.947  13.977  10.834 -0.0255  0.0186  0.0614
 4137W        W47153  24.575  31.992   5.469  0.0984  0.1276  0.1893
 4138W        W47154  16.682  18.165   5.686  0.2030 -0.0617  0.0105
 4139W        W47155   7.208  13.839   8.750  0.0208  0.0088  0.1281
 4140W        W47156   0.963  26.759   1.591 -0.0442  0.1281  0.4118
 4141W        W47157   2.136  29.043   5.441  0.0656 -0.1387 -0.1913
 4142W        W47158  20.859  29.240  18.350  0.1238  0.1439  0.0852
 4143W        W47159  19.292  22.268   1.526  0.2726 -0.1762 -0.0786
 4144W        W47160  18.775  23.113  17.968  0.0912 -0.2259  0.3056
 4145W        W47161  12.201  13.153   8.193 -0.2210  0.0002 -0.2404
 4146W        W47162  26.775  24.104  10.249  0.2872 -0.0577 -0.1694
 4147W        W47163  15.057  34.094   6.239  0.1341 -0.1072 -0.1087
 4148W        W47164   7.778  13.587  24.396 -0.1028 -0.1474  0.0614
 4149W        W47165  12.982  16.636   4.303  0.1110 -0.1305 -0.0806
 4150W        W47166   2.881  20.359  27.043 -0.0885  0.1560 -0.0086
 4151W        W47167  16.973  16.268  19.132  0.2527  0.2074  0.0017
 4152W        W47168  24.960  12.845   2.093 -0.0913 -0.0305  0.2033
 4153W        W47169  25.746  26.574   1.668 -0.2294 -0.0241  0.0781
 4154W        W47170  15.486  31.411   2.111  0.0096 -0.1364  0.0006
 4155W        W47171   8.349  21.773   6.771 -0.4640 -0.1071  0.2170
 4156W        W47172  11.400  23.919  21.208  0.2551 -0.0426 -0.0867
 4157W        W47173  18.978   8.628   8.934 -0.4022 -0.1918  0.0810
 4158W        W47174  16.008   0.952   4.905 -0.0907  0.0911 -0.0207
 4159W        W47175  13.762  29.422   5.644  0.1202  0.0943  0.0190
 4160W        W47176  20.401  10.761  27.526  0.1872  0.1177  0.0417
 4161W        W47177   9.701  22.053   6.653 -0.0335 -0.1393 -0.1939
 4162W        W47178  29.070  13.639  18.556  0.1128  0.0539  0.0041
 4163W        W47179  10.141  16.625   6.087  0.1080  0.0723 -0.0269
 4164W        W47180   9.185   9.867   8.417  0.1046  0.4866 -0.3644
 4165W        W47181  15.945  16.337   4.195  0.1789  0.5683  0.1449
 4166W        W47182  16.025  17.194   2.875 -0.1229 -0.0421 -0.3071
 4167W        W47183   3.253  15.983  27.148  0.0673  0.0595 -0.0390
 4168W        W47184  12.342   0.468  21.151 -0.2599 -0.3701 -0.1032
 4169W        W47185  33.579  20.139  26.863 -0.1163  0.1421 -0.3812
 4170W        W47186  18.243  21.162   4.505 -0.1347  0.0493 -0.0579
 4171W        W47187  23.426   7.843   5.317 -0.0547 -0.0825  0.3073
 4172W        W47188  12.668   2.852   0.589 -0.1457  0.0911 -0.3842
 4173W        W47189   2.469  32.572  28.450 -0.0727  0.0532  0.2291
 4174W        W47190  12.458  20.093  25.831  0.1279  0.0938  0.1191
 4175W        W47191  18.886   4.824   3.675 -0.1326 -0.0075  0.2096
 4176W        W47192  10.186   9.722   8.039  0.2244 -0.0338  0.2101
 4177W        W47193   5.210  28.530   4.695  0.0874  0.0524 -0.2049
 4178W        W47194  22.368   2.704  16.592  0.2152  0.2036  0.2787
 4179W        W47195   5.253  10.377   2.834 -0.0506 -0.0187 -0.1394
 4180W        W47196   7.755  16.755  13.106  0.2036  0.1397  0.1603
 4181W        W47197  13.109   9.990   4.630 -0.0619  0.0005  0.0080
 4182W        W47198  32.579  14.111  25.609  0.0872  0.0014 -0.0989
 4183W        W47199  14.164  21.037   3.276 -0.2695  0.2845  0.0875
 4184W        W47200  11.091  18.730  19.695 -0.0311  0.0657  0.2213
 4185W        W47201  12.054  23.059   1.247 -0.1380 -0.0993 -0.1281
 4186W        W47202  23.979  22.286  29.318 -0.1179 -0.2950  0.1628
 4187W        W47203  17.623  15.716   4.303 -0.0016 -0.1801 -0.1565
 4188W        W47204   6.133  23.224   5.574  0.4429  0.0623  0.3225
 4189W        W47205  13.929  14.581  22.463 -0.3289 -0.0851 -0.0054
 4190W        W47206  29.448  23.739   4.064 -0.1880  0.2527  0.2485
 4191W        W47207  24.040  12.110   4.903 -0.1125  0.3747  0.2745
 4192W        W47208  19.644  28.024   9.335 -0.1044  0.0685  0.1131
 4193W        W47209  30.085  15.395   2.407  0.0877 -0.0645  0.1974
 4194W        W47210  27.224  21.140   4.221  0.1634  0.0911  0.1875
 4195W        W47211  14.991  30.399  19.541 -0.0071  0.0108  0.2504
 4196W        W47212  11.833  11.958   3.918  0.2017  0.2964  0.4457
 4197W        W47213  15.948  21.395   3.393 -0.1506  0.3374  0.0971
 4198W        W47214  19.426  16.835   7.776 -0.1083  0.0441  0.3962
 4199W        W47215  21.504   6.599  25.673 -0.2011 -0.1468 -0.2373
 4200W        W47216   4.078  30.266  15.241  0.0847  0.0499  0.0488
 4201W        W47217  16.284  26.935   6.883 -0.1946  0.2854  0.2399
 4202W        W47218  15.294  23.397   2.158 -0.0642 -0.1315  0.0732
 4203W        W47219   1.095  21.711  22.840  0.3201  0.1098 -0.2509
 4204W        W47220  16.438  20.227  21.219 -0.0139  0.0236 -0.1041
 4205W        W47221  10.646   8.294   3.115  0.3313  0.2213  0.0882
 4206W        W47222  21.270  31.161   5.491  0.0683  0.3159  0.1490
 4207W        W47223  15.741  19.262  26.478 -0.0096  0.2617  0.1438
 4208W        W47224  31.457   8.230  25.951 -0.2338  0.1978 -0.2838
 4209W        W47225  22.369  18.466  26.424 -0.1187 -0.3432 -0.1480
 4210W        W47226  21.006  16.826  14.253  0.1091 -0.0953 -0.0798
 4211W        W47227  15.937  25.578   4.352  0.0484 -0.0820  0.1181
 4212W        W47228  21.006  10.403   6.521 -0.0345 -0.0258 -0.1201
 4213W        W47229   5.911  20.289  22.588 -0.2961  0.1349  0.0591
 4214W        W47230  22.454  30.792  23.730 -0.3150 -0.1430 -0.1805
 4215W        W47231   7.049  16.617  28.525 -0.0552  0.1143 -0.1188
 4216W        W47232  24.002  27.435   4.793  0.0999  0.1484 -0.1189
 4217W        W47233  16.667  13.594   0.937 -0.0335 -0.2471  0.1636
 4218W        W47234  31.997  29.185   8.601 -0.1820 -0.0025  0.1476
 4219W        W47235   6.825  19.776   8.246  0.0934  0.1153 -0.0091
 4220W        W47236  30.294  15.409   8.680 -0.2286 -0.0119 -0.1539
 4221W        W47237  25.758  23.231   7.686 -0.1835 -0.0105  0.2041
 4222W        W47238  26.681  16.505  16.034  0.0507  0.0216  0.0631
 4223W        W47239   5.154  21.754  23.251 -0.1156 -0.1042  0.0435
 4224W        W47240   7.652  25.409   8.546 -0.0340  0.1284 -0.0855
 4225W        W47241   6.039  17.509   3.855 -0.0051  0.1987  0.0372
 4226W        W47242  23.375  20.351   5.874  0.3114 -0.0647 -0.2302
 4227W        W47243  22.424  18.955   4.576 -0.0233  0.1736 -0.0112
 4228W        W47244  14.510  19.178   7.042 -0.1261 -0.2591  0.2419
 4229W        W47245  25.895   6.086   5.624 -0.0167  0.1724 -0.0340
 4230W        W47246  31.018   6.803   0.042 -0.0679  0.0882  0.2343
 4231W        W47247  21.175  32.801  10.085 -0.1682 -0.1049 -0.0913
 4232W        W47248  18.786   9.542   8.593  0.1346 -0.1439  0.0540
 4233W        W47249  13.163  18.366  24.031 -0.4550  0.0696  0.0040
 4234W        W47250  26.127  10.065  22.049 -0.0619 -0.1349 -0.0449
 4235W        W47251  17.355  32.266   3.303  0.1698  0.0371  0.0756
 4236W        W47252  17.710  21.806  29.307 -0.1567 -0.3349 -0.1718
 4237W        W47253  22.134  15.234   3.003  0.1960 -0.1840  0.2024
 4238W        W47254  21.339  23.249   2.687  0.1940 -0.1006  0.0653
 4239W        W47255   9.093  20.422  19.429 -0.0532  0.1087 -0.0230
 4240W        W47256  24.187  31.127   2.328  0.2411 -0.0099 -0.0034
 4241W        W47257  13.690   8.550   7.014  0.2287 -0.1636 -0.1288
 4242W        W47258  14.501   4.996  26.360 -0.3268 -0.0596  0.2850
 4243W        W47259  18.921  21.802   4.120  0.0166 -0.0245 -0.5034
 4244W        W47260   6.977   4.241   8.106  0.1970 -0.0361  0.1107
 4245W        W47261  14.540  20.723   4.875  0.2661  0.0189 -0.0064
 4246W        W47262  16.078  18.650  26.429 -0.1444  0.1179  0.1221
 4247W        W47263  26.093  14.794  28.718 -0.1938  0.2516 -0.0267
 4248W        W47264   2.154  30.364   9.057 -0.2970 -0.1798 -0.2205
 4249W        W47265  33.624  19.709   5.725 -0.0633 -0.1955  0.0869
 4250W        W47266  24.317  16.452   3.639 -0.1149 -0.0592 -0.0492
 4251W        W47267  19.771  26.599   5.690 -0.2176 -0.1994 -0.0272
 4252W        W47268  30.901  19.303   5.121 -0.1205 -0.2377 -0.3904
 4253W        W47269  32.404   8.311  28.838 -0.0839  0.2637  0.0930
 4254W        W47270  20.966   7.588   8.565  0.3792  0.2949 -0.0627
 4255W        W47271  22.955   7.423  10.375 -0.2057  0.2855  0.0305
 4256W        W47272  26.730  15.940   9.679 -0.0353 -0.1641 -0.1562
 4257W        W47273  11.136  10.243   5.923  0.1623  0.1584 -0.0275
 4258W        W47274  25.261  17.265   9.759 -0.3104  0.0667 -0.4114
 4259W        W47275   1.214  17.534  24.928 -0.2708  0.1476 -0.1589
 4260W        W47276   9.821  26.088   6.825 -0.0245  0.1306 -0.0601
 4261W        W47277   6.385  25.007   1.814  0.3060 -0.3844 -0.1563
 4262W        W47278  13.004  16.196  19.718  0.0167  0.3269 -0.1211
 4263W        W47279   7.127  10.708  10.302 -0.1285 -0.0032 -0.0538
 4264W        W47280  11.561  17.840   7.893  0.0973 -0.2508 -0.1142
 4265W        W47281   9.117  17.330   7.519  0.0532 -0.1769 -0.2871
 4266W        W47282  16.354  15.060  28.734  0.0263  0.3280  0.1397
 4267W        W47283   9.657  20.773  22.000 -0.1516  0.2518  0.0961
 4268W        W47284  23.502  24.214   7.894 -0.2462  0.1577 -0.0502
 4269W        W47285  24.883  26.352  10.481 -0.3039 -0.2429 -0.1827
 4270W        W47286  17.533  27.986   2.413  0.2043  0.1154 -0.1543
 4271W        W47287   8.545  30.510   4.654 -0.3224  0.0759  0.1826
 4272W        W47288   5.128  18.550   6.990  0.3108 -0.1562  0.1568
 4273W        W47289  18.563  24.024   6.986 -0.2105  0.0721 -0.1786
 4274W        W47290  12.822   8.572   8.344  0.1140 -0.1873  0.1153
 4275W        W47291  21.274  25.720   2.754 -0.4220 -0.0391  0.0935
 4276W        W47292  11.637  34.728  24.167 -0.0072  0.0813 -0.0918
 4277W        W47293  13.121  19.646   8.375  0.0656 -0.2312  0.0081
 4278W        W47294  20.892  11.822   8.361 -0.0377 -0.1526 -0.0651
 4279W        W47295  20.351   3.068   5.190  0.1116  0.1721  0.0339
 4280W        W47296  30.382  18.137  28.484 -0.1231  0.1111  0.3254
 4281W        W47297  13.082  30.021   4.365 -0.2050  0.1448 -0.0245
 4282W        W47298  26.197  27.669   7.226 -0.1916 -0.2799 -0.1606
 4283W        W47299  15.860  17.936   7.187 -0.1066 -0.3712  0.2580
 4284W        W47300  15.243  14.819  29.040  0.1013 -0.2210  0.0767
 4285W        W47301  20.062  14.092  21.609 -0.2921 -0.3233  0.3362
 4286W        W47302  32.492  25.775   9.260  0.3383  0.0597  0.5747
 4287W        W47303  11.915  34.697   7.971 -0.1451  0.3496 -0.0895
 4288W        W47304  18.441  24.756  17.122  0.2473 -0.1879  0.0562
 4289W        W47305  27.757  34.347   1.442 -0.0457  0.0930  0.0683
 4290W        W47306  30.597  23.899   3.622 -0.1103  0.0284 -0.1517
 4291W        W47307  20.791  19.611   4.759  0.1165 -0.0366  0.2371
 4292W        W47308   3.039  31.883   6.715 -0.1398 -0.2303 -0.1958
 4293W        W47309  24.304  16.496   8.398  0.0151 -0.0891  0.1010
 4294W        W47310  21.127   6.068  27.842 -0.2720 -0.1521 -0.1653
 4295W        W47311   7.617  23.558   0.211  0.1230 -0.2281 -0.2753
 4296W        W47312  28.782  24.102   3.376  0.0668 -0.0557 -0.6048
 4297W        W47313  12.335  27.477   1.699 -0.1002  0.2424  0.1035
 4298W        W47314  22.953  32.201  10.796  0.1719  0.2777 -0.0483
 4299W        W47315  21.218   5.775   2.547  0.0851 -0.0375  0.0458
 4300W        W47316  26.529  21.244  28.638  0.3853  0.1272  0.1299
 4301W        W47317   7.778  27.090   4.272  0.1922  0.1686  0.0107
 4302W        W47318  13.515  20.010   3.337  0.0695  0.3410  0.0282
 4303W        W47319  16.066   1.793   4.617  0.1875  0.1194  0.2029
 4304W        W47320  31.572   6.350   1.699 -0.0149  0.0395 -0.1098
 4305W        W47321  10.902  29.317  23.828  0.1626 -0.1722 -0.1555
 4306W        W47322  34.350  23.001   4.643  0.1776 -0.0107  0.3473
 4307W        W47323  25.883  31.166   4.901 -0.0160  0.0762  0.2695
 4308W        W47324  26.575  25.413  27.741  0.2939 -0.1429 -0.1099
 4309W        W47325  21.280  14.674   5.899  0.2197 -0.2708 -0.0389
 4310W        W47326   8.965  30.145  24.543 -0.1802 -0.0970 -0.2538
 4311W        W47327  16.606  19.693   4.513  0.2376 -0.0502 -0.0657
 4312W        W47328  17.241  22.114   2.571  0.0259 -0.1346  0.1873
 4313W        W47329  14.695  10.952  28.126 -0.1950  0.1862  0.2594
 4314W        W47330  15.853  25.446   9.277 -0.3102  0.0764  0.0394
 4315W        W47331   9.540  28.343  26.147 -0.1370 -0.2136 -0.2307
 4316W        W47332  25.803   0.574  23.751  0.0791 -0.0861  0.0799
 4317W        W47333   7.353  10.725   5.403  0.0531  0.1094  0.0887
 4318W        W47334  20.814  27.149  26.507  0.3321  0.1173 -0.1049
 4319W        W47335  14.434  20.622   5.539  0.2495 -0.0215  0.0510
 4320W        W47336  16.507  20.583  19.936  0.0773  0.2325  0.1394
 4321W        W47337   8.168  12.593   0.618 -0.1735 -0.0806 -0.1096
 4322W        W47338  30.881   3.991   1.337 -0.0348 -0.1065 -0.0017
 4323W        W47339  25.900  15.827   7.023 -0.0187  0.3159  0.0114
 4324W        W47340  11.417  13.399   1.387 -0.1240  0.2166  0.0421
 4325W        W47341  22.964  11.914   3.963 -0.1324 -0.0378 -0.0100
 4326W        W47342  23.928   3.824  28.872 -0.0153  0.0067  0.1612
 4327W        W47343   4.408  26.176   4.342  0.1296 -0.1743 -0.4211
 4328W        W47344   0.407  22.902   1.378  0.1068  0.0170  0.1106
 4329W        W47345  28.033   9.086  10.170  0.1760 -0.0166 -0.3578
 4330W        W47346  21.899  16.004   5.370 -0.3809  0.0365 -0.1297
 4331W        W47347   4.058   1.879   4.481 -0.0601 -0.3733 -0.1773
 4332W        W47348  21.451  11.338  28.494  0.1104  0.0013 -0.2961
 4333W        W47349  18.444  22.444   7.719  0.2798 -0.0824  0.1611
 4334W        W47350  24.834  19.272   1.918 -0.1220  0.0148 -0.1254
 4335W        W47351  21.504  20.247   6.300  0.0716 -0.1285 -0.1753
 4336W        W47352  23.025  16.205  25.633 -0.1870  0.0233 -0.1503
 4337W        W47353  18.232  30.349  10.597  0.1720 -0.3402  0.2290
 4338W        W47354  13.568  32.294  29.137  0.1850 -0.2863  0.0286
 4339W        W47355  12.648  19.525   1.148  0.0089 -0.0846  0.1048
 4340W        W47356  24.545  18.560   5.138 -0.0890  0.1957 -0.1076
 4341W        W47357  20.525  12.349   4.918 -0.1473  0.0903  0.0074
 4342W        W47358  10.923  17.309   5.077  0.0053 -0.0457  0.1989
 4343W        W47359  13.535  32.672   3.135  0.3173  0.2733  0.2768
 4344W        W47360   6.331  26.332   9.571 -0.1936  0.1588 -0.0130
 4345W        W47361  14.820  21.461  23.191  0.4066  0.0203 -0.0040
 4346W        W47362  20.028  21.983   6.184  0.1158 -0.1784 -0.0967
 4347W        W47363  10.231  10.850  25.143  0.3641  0.1196  0.0373
 4348W        W47364  25.590  14.195  25.465  0.0826 -0.3034 -0.0615
 4349W        W47365  19.602  14.476   1.634  0.0439  0.0655 -0.3535
 4350W        W47366  31.965  13.551   0.142 -0.0629  0.3853 -0.2230
 4351W        W47367  24.333  14.775  28.426 -0.0490  0.4636 -0.0050
 4352W        W47368  12.003   1.817  10.139  0.3487  0.0291  0.0958
 4353W        W47369  23.568  19.351   7.070 -0.2361 -0.0467  0.0123
 4354W        W47370   6.927  29.308   7.301 -0.0085  0.0711  0.0378
 4355W        W47371   1.611  12.875   2.316  0.1235  0.0276  0.2240
 4356W        W47372  16.318  21.121  21.034 -0.0537  0.1324 -0.0603
 4357W        W47373  29.696  25.527  17.189  0.1086  0.0734 -0.2338
 4358W        W47374  16.058  19.651   8.076 -0.2346  0.2708 -0.2632
 4359W        W47375  20.545  15.621  26.469 -0.0001 -0.1319 -0.1087
 4360W        W47376  11.135  12.979  13.430 -0.1930 -0.3862  0.1901
 4361W        W47377  26.541  33.545   1.756  0.1481 -0.2486  0.2599
 4362W        W47378  16.619  28.984  10.570  0.1474  0.1744  0.0387
 4363W        W47379  10.383  19.236   2.609  0.1939  0.2070 -0.0190
 4364W        W47380  10.066   7.617   9.890  0.2710 -0.2814 -0.2277
 4365W        W47381  14.744  12.900   3.347 -0.2643 -0.3105  0.2450
 4366W        W47382  14.108   8.778  22.327 -0.0642  0.0723 -0.3159
 4367W        W47383  11.467  32.826   1.532 -0.0588  0.2942  0.0296
 4368W        W47384  22.585  26.172   8.712  0.1117  0.1263 -0.1845
 4369W        W47385  24.247   1.352   6.966  0.1990 -0.0268 -0.1687
 4370W        W47386  10.923  19.708   3.324  0.0677 -0.1048 -0.1989
 4371W        W47387  19.098   7.115   7.391 -0.1878  0.1466  0.1159
 4372W        W47388  26.384  23.238   2.514 -0.1322 -0.0443  0.3797
 4373W        W47389   4.617  16.322  23.343  0.0716  0.0172  0.1414
 4374W        W47390  28.595  18.039   8.745  0.2841 -0.3967  0.3436
 4375W        W47391  25.202  11.410   8.967  0.4057  0.0278 -0.0881
 4376W        W47392  33.642   9.506   8.607 -0.1226  0.0447 -0.1955
 4377W        W47393  18.581  13.565   1.706 -0.1792  0.0839 -0.4699
 4378W        W47394   2.238  14.315  28.453  0.0719  0.0391 -0.3061
 4379W        W47395  16.060  17.702  28.842 -0.1365  0.0502 -0.1349
 4380W        W47396  31.105  13.795   3.652  0.2033 -0.0523 -0.1252
 4381W        W47397   2.180   5.597   5.413  0.2163  0.1216 -0.1605
 4382W        W47398  20.450  31.788  10.019  0.3184  0.0338 -0.1417
 4383W        W47399  20.060  13.026   7.158 -0.1225 -0.0459  0.0106
 4384W        W47400  20.600  20.315   5.394 -0.1918 -0.2991 -0.3668
 4385W        W47401  15.537   4.028   4.509 -0.3828  0.3182 -0.3322
 4386W        W47402  29.709  15.250  23.065 -0.3094  0.2973 -0.0116
 4387W        W47403  13.880  16.001   6.988  0.0064 -0.4642  0.2538
 4388W        W47404  11.359   5.870   7.612  0.1242  0.0007 -0.1014
 4389W        W47405  10.306  25.783   3.928 -0.0573 -0.1123  0.1291
 4390W        W47406  16.259  19.403  22.109 -0.1294 -0.0849  0.1490
 4391W        W47407  21.871  11.342   7.039 -0.0354  0.0632  0.0911
 4392W        W47408   9.436  14.585   8.691 -0.2796 -0.3208  0.0571
 4393W        W47409  12.102  31.387   8.901 -0.1691  0.2020  0.0835
 4394W        W47410   6.632  20.098   8.697  0.2183  0.0127 -0.1271
 4395W        W47411   7.642  18.249   7.541  0.1254 -0.2004  0.1781
 4396W        W47412  30.508  18.757  10.897  0.1238 -0.2755  0.0858
 4397W        W47413  22.468  23.063  27.245 -0.1345  0.1043  0.2524
 4398W        W47414  13.026  20.818   5.058 -0.0023 -0.1344 -0.3794
 4399W        W47415  27.422  14.614   8.764 -0.1150  0.1710  0.1315
 4400W        W47416  17.071  28.782  11.230  0.1210 -0.1875 -0.1760
 4401W        W47417  17.765   0.850   9.400 -0.0020 -0.1216  0.0584
 4402W        W47418  14.969   2.016   2.532 -0.0136  0.1179 -0.0022
 4403W        W47419  12.263  14.133   4.653 -0.0137  0.0381 -0.0194
 4404W        W47420  16.194   6.453   7.770 -0.1105 -0.2740 -0.4228
 4405W        W47421  20.413  15.896  21.459 -0.1782 -0.0759 -0.1118
 4406W        W47422  30.150  15.148   6.723 -0.3498  0.0363 -0.3217
 4407W        W47423  18.067  19.610  27.259  0.2321  0.0981 -0.2050
 4408W        W47424   4.433  14.467   8.480  0.0169 -0.0096  0.0415
 4409W        W47425  13.115  23.276   0.661 -0.2375 -0.0567  0.1538
 4410W        W47426  21.199  21.526  26.143 -0.0679 -0.0338 -0.1060
 4411W        W47427  17.568   7.293   6.645  0.1636 -0.2292  0.1320
 4412W        W47428  14.818  24.750   7.010  0.0135 -0.3328  0.0520
 4413W        W47429  17.763  20.533  22.881 -0.1646 -0.1243  0.0510
 4414W        W47430  16.851   6.807   1.902  0.1938 -0.1694 -0.1024
 4415W        W47431  33.996   8.148   5.891  0.0591 -0.0342  0.1358
 4416W        W47432  29.970  20.525  10.387 -0.1503 -0.0954 -0.2427
 4417W        W47433  19.872  12.807   6.068 -0.5489  0.0194 -0.1879
 4418W        W47434  15.190  23.051   6.226 -0.0356 -0.1599 -0.3434
 4419W        W47435   2.177   1.987  27.960  0.0630  0.2547  0.1033
 4420W        W47436  13.648  27.627   5.347 -0.0754  0.3172 -0.0949
 4421W        W47437  16.237   1.189   8.067 -0.1227 -0.0544  0.0419
 4422W        W47438  33.796   9.065  26.362 -0.1138  0.0556  0.0088
 4423W        W47439  20.499  26.259   8.127  0.2608  0.2147 -0.1587
 4424W        W47440  24.072  28.807   8.705 -0.1542  0.3122 -0.2348
 4425W        W47441  17.586  31.034   7.432 -0.2164 -0.1637  0.2098
 4426W        W47442  10.266  15.312   7.873  0.0896  0.0860 -0.0949
 4427W        W47443   2.842  30.214   6.840 -0.1038 -0.1195  0.2379
 4428W        W47444  19.186  20.625  21.131  0.2969 -0.0504 -0.1032
 4429W        W47445  18.267  18.377   5.662 -0.1560  0.3031 -0.2245
 4430W        W47446   5.868  28.589  24.881 -0.0408  0.1182 -0.0149
 4431W        W47447  21.506   6.238   8.174 -0.1467  0.0390  0.2733
 4432W        W47448  22.934  19.649   7.738 -0.3531 -0.1039  0.2302
 4433W        W47449  22.131  18.973   7.779  0.3117 -0.3450  0.0005
 4434W        W47450  15.451  13.013   7.075 -0.1004  0.1897  0.0310
 4435W        W47451  21.979  16.432  27.536  0.2240 -0.2054 -0.0485
 4436W        W47452  28.026  29.396  27.747 -0.0292  0.3527  0.0839
 4437W        W47453  30.186  15.703   6.245 -0.2380  0.0983 -0.3211
 4438W        W47454  20.321  28.980  16.686 -0.1159 -0.1577 -0.0436
 4439W        W47455  15.747  26.884   4.931 -0.0923  0.0954  0.0295
 4440W        W47456  19.684  20.340   1.614 -0.0754  0.0215 -0.1713
 4441W        W47457  17.681  13.024   6.944 -0.3063  0.1801  0.0618
 4442W        W47458   2.758  12.207   8.459 -0.1018  0.0637 -0.0941
 4443W        W47459  25.200  15.613   2.191 -0.2799 -0.2680 -0.1164
 4444W        W47460  28.794  23.143  26.853  0.0532 -0.0330  0.1436
 4445W        W47461  14.321  18.956   1.401 -0.2411 -0.1822  0.1213
 4446W        W47462  16.938  27.867   8.208  0.2434  0.2805 -0.1414
 4447W        W47463  21.540  27.038   5.953 -0.1360 -0.2076 -0.3550
 4448W        W47464  22.320  12.235   5.061 -0.5973  0.2022 -0.0344
 4449W        W47465  33.653  13.486   2.666 -0.3422 -0.1264  0.0410
 4450W        W47466   9.379   7.755   3.440 -0.1579  0.0109  0.2968
 4451W        W47467  12.090  22.876   5.278  0.1181 -0.3981 -0.1187
 4452W        W47468  16.476  14.755   5.338 -0.1249  0.2361  0.2354
 4453W        W47469  18.113  13.798  21.723  0.0395  0.2446  0.3367
 4454W        W47470  18.825   4.595   2.638 -0.3405  0.0373  0.1804
 4455W        W47471  23.340  17.702   3.071 -0.0208  0.2074  0.0501
 4456W        W47472  14.838  19.351  21.715  0.1458  0.3375  0.4894
 4457W        W47473  21.878  10.567   7.732  0.2106  0.1971 -0.1766
 4458W        W47474  16.838   0.688  21.331 -0.1667  0.0081  0.1940
 4459W        W47475  27.901  20.595   4.622 -0.2333 -0.1894 -0.0296
 4460W        W47476   2.587   6.901   9.963 -0.0522 -0.1126 -0.3312
 4461W        W47477  15.501  15.369  25.137 -0.1246  0.1322  0.1668
 4462W        W47478  26.028   6.372   3.320 -0.0764 -0.0359  0.2208
 4463W        W47479  24.063  32.510   1.077 -0.0018  0.6411  0.0877
 4464W        W47480  32.582  27.278   9.039  0.1609 -0.0674 -0.0770
 4465W        W47481  29.563  17.407   6.237 -0.1688  0.0893  0.0270
 4466W        W47482   9.363  24.470   0.690  0.0662  0.4216 -0.1330
 4467W        W47483  30.604   1.546   9.968 -0.3365 -0.0284  0.0382
 4468W        W47484  28.692  14.418   1.972  0.0149 -0.0603  0.1446
 4469W        W47485   7.545  17.124  20.156 -0.0922  0.0201 -0.0018
 4470W        W47486   0.260  31.081   6.540 -0.0989  0.0109  0.3179
 4471W        W47487  17.443  30.412   5.833 -0.0571  0.2715 -0.0034
 4472W        W47488  33.054  12.369   6.820  0.3017  0.2350  0.0307
 4473W        W47489  11.552  16.945   2.079 -0.0484  0.4677 -0.2140
 4474W        W47490  12.716  12.655   5.066  0.0890 -0.0785  0.0755
 4475W        W47491  21.522  24.904   4.802  0.0238 -0.0975  0.2010
 4476W        W47492  14.766  22.323  28.600 -0.0085 -0.0765  0.1787
 4477W        W47493  30.336  12.389   9.386  0.0096 -0.0512 -0.2637
 4478W        W47494  15.279  21.521  27.639  0.2355 -0.0187  0.0502
 4479W        W47495  26.802  33.392  10.999 -0.1753  0.1060  0.1108
 4480W        W47496  18.088  14.179   3.930  0.1760 -0.0157 -0.0215
 4481W        W47497   1.257  24.541   4.970  0.2160 -0.0896  0.0670
 4482W        W47498  23.236   2.916   4.129  0.2275  0.2462  0.0252
 4483W        W47499  14.736  22.866   6.096 -0.1097  0.2069 -0.0057
 4484W        W47500  21.880  34.622  10.284  0.1114 -0.1081 -0.0692
 4485W        W47501  16.885  18.855   8.021  0.2230  0.0294 -0.0630
 4486W        W47502  21.145  28.562  22.622 -0.2108 -0.4358 -0.0236
 4487W        W47503  16.135  24.791  25.406  0.2283 -0.1447  0.1723
 4488W        W47504  27.403  29.256   2.415  0.1352  0.0332 -0.3100
 4489W        W47505  23.173  19.386  24.704  0.2544 -0.2150 -0.1276
 4490W        W47506   1.483  33.241   8.660  0.1283 -0.3783 -0.1346
 4491W        W47507  13.336  12.034   7.599 -0.0265  0.4446 -0.1835
 4492W        W47508  15.517   9.394   1.927 -0.4868 -0.1603  0.0293
 4493W        W47509  13.967   8.468  29.259 -0.1509  0.2106  0.5098
 4494W        W47510   2.032  26.643   4.747 -0.1192  0.2558 -0.1425
 4495W        W47511  13.134  22.787   6.663  0.1404 -0.1573 -0.0348
 4496W        W47512  21.353  23.549   4.660 -0.0294  0.0293  0.2098
 4497W        W47513  30.516  23.402   3.866  0.2133  0.2215 -0.0409
 4498W        W47514  19.458  11.445   3.418 -0.0153  0.0613  0.0161
 4499W        W47515  23.251  12.134   8.579  0.4033 -0.2199 -0.1258
 4500W        W47516  12.492  19.766  26.250  0.0927 -0.2406  0.1237
 4501W        W47517  18.879  14.287   2.296  0.2408 -0.1056 -0.0008
 4502W        W47518  14.834  21.466   9.423 -0.0495  0.0337  0.0861
 4503W        W47519   9.413  15.740  21.255  0.0269 -0.0863 -0.0244
 4504W        W47520  25.944   9.686   7.980 -0.0737 -0.0843 -0.1842
 4505W        W47521  25.436  15.967  23.226  0.1176 -0.0146  0.3177
 4506W        W47522  24.120  12.410   6.640  0.1693 -0.0291  0.2639
 4507W        W47523   5.026  13.653  26.851 -0.1625  0.1648  0.1396
 4508W        W47524  24.304  21.519   8.234  0.1850  0.0777 -0.1448
 4509W        W47525  17.813  14.853   7.736 -0.2655  0.0566  0.0894
 4510W        W47526  12.406  14.530   8.890  0.1509  0.1524 -0.2014
 4511W        W47527  26.783  30.563  28.725  0.0717 -0.1201  0.3784
 4512W        W47528  15.500  21.109   4.750 -0.2797 -0.2212  0.2024
 4513W        W47529  24.247  17.019   3.139  0.1423 -0.0242 -0.1057
 4514W        W47530   9.922  17.571   5.004  0.1685 -0.1387  0.0349
 4515W        W47531   2.779  19.123  24.450  0.2262  0.1311 -0.0886
 4516W        W47532  22.527  32.703  27.528 -0.0190 -0.0911 -0.3635
 4517W        W47533  33.209  15.610   5.692  0.3601  0.1501 -0.2790
 4518W        W47534  11.262  17.103  26.147  0.2051  0.0740  0.2281
 4519W        W47535  15.794  18.734   2.126 -0.1301  0.1711 -0.5683
 4520W        W47536  13.206  17.529   6.556 -0.1002  0.1069 -0.0828
 4521W        W47537  15.021   6.662   8.013 -0.0495  0.1825 -0.3330
 4522W        W47538   3.284  21.546   7.688  0.1523  0.0831  0.0392
 4523W        W47539  23.548  15.643  28.600 -0.3084 -0.1215  0.2874
 4524W        W47540  20.401  12.898   8.332 -0.0485 -0.2160  0.0318
 4525W        W47541  22.810  12.666   6.062 -0.0804  0.1365 -0.1408
 4526W        W47542  14.768  28.276   3.194  0.2156  0.0079  0.0627
 4527W        W47543  19.013   1.709  10.050 -0.2779 -0.3484 -0.0295
 4528W        W47544  19.116   2.248   5.978 -0.1225 -0.1192  0.0351
 4529W        W47545  14.884  30.789   4.310  0.3633 -0.2015  0.2362
 4530W        W47546  33.524   6.897  23.030 -0.2110 -0.0027 -0.1726
 4531W        W47547   0.344  24.625   6.959 -0.2246 -0.1164 -0.3334
 4532W        W47548  17.749  14.581  26.410 -0.0040  0.0892 -0.0252
 4533W        W47549  15.926  28.589   1.259  0.1043 -0.0874  0.3302
 4534W        W47550  30.087  16.325   6.984 -0.0940  0.2250  0.0683
 4535W        W47551  29.248  33.579  11.017 -0.0190  0.2830 -0.1058
 4536W        W47552  14.163  13.191   5.194 -0.1005 -0.3186  0.1499
 4537W        W47553  17.849  11.073   6.007 -0.0771  0.0643  0.1903
 4538W        W47554  21.884  18.640   2.286 -0.0964 -0.0949  0.0149
 4539W        W47555  14.669  13.398   5.956 -0.0772  0.0022 -0.4657
 4540W        W47556  23.113  17.644   7.618 -0.1949 -0.1487  0.0065
 4541W        W47557  21.456  11.179  26.169 -0.1735  0.2960  0.1531
 4542W        W47558  12.630  23.100  28.272 -0.2078 -0.0861  0.0791
 4543W        W47559  26.662  17.509  23.849  0.1870  0.0036  0.0644
 4544W        W47560   6.847  15.730   4.685  0.0146 -0.0441 -0.1882
 4545W        W47561   8.540  32.489   6.859  0.0297 -0.0537 -0.1418
 4546W        W47562  29.261  26.005   7.221 -0.0103 -0.0378  0.0859
 4547W        W47563   5.998  28.952   1.240 -0.0886  0.0187 -0.0395
 4548W        W47564  26.733  20.871   1.504 -0.4088  0.1141  0.1914
 4549W        W47565  22.223   6.882   9.848  0.2221 -0.0843 -0.1079
 4550W        W47566  18.520  34.386  17.543 -0.1350  0.4350  0.0292
 4551W        W47567  16.519  16.014  19.405 -0.0827 -0.2866  0.2367
 4552W        W47568  17.146  16.053  27.711  0.2635  0.1832 -0.0770
 4553W        W47569  17.296  29.303  24.401  0.0314  0.3535  0.1964
 4554W        W47570  10.182   9.589  27.855 -0.2375  0.0629  0.1685
 4555W        W47571  26.001  16.335   4.370 -0.1018 -0.3250  0.1059
 4556W        W47572   2.378  23.945   7.964 -0.1707 -0.0238  0.2393
 4557W        W47573   3.589  26.960   9.624  0.0877  0.1211 -0.0050
 4558W        W47574  11.225  27.270  24.624 -0.2069  0.0895  0.1528
 4559W        W47575  17.653  27.494   7.291 -0.0598 -0.1688 -0.0610
 4560W        W47576  12.546  22.555   1.910 -0.2324  0.1290 -0.0097
 4561W        W47577  19.631  15.008  26.206  0.1424 -0.0958  0.1252
 4562W        W47578  13.682   1.436   4.365 -0.0286 -0.1766  0.3383
 4563W        W47579  24.630   2.721   9.640 -0.1011 -0.0798  0.2896
 4564W        W47580  31.014  28.610  17.224 -0.0291  0.0698  0.2236
 4565W        W47581  23.153   9.666   8.448 -0.1337  0.2784  0.0362
 4566W        W47582  20.157  28.526   6.676  0.0703 -0.0011  0.1742
 4567W        W47583  25.072  22.003   0.178 -0.1842 -0.2190  0.0532
 4568W        W47584  12.969   4.330  28.270  0.2231  0.2472  0.0510
 4569W        W47585   4.740   4.133  23.988  0.0551  0.0325  0.0872
 4570W        W47586  31.838  16.258  25.769 -0.4511 -0.0487 -0.4016
 4571W        W47587   8.132  27.925   4.644 -0.0963 -0.0076 -0.2142
 4572W        W47588   6.384   1.018  26.751  0.0761  0.3795 -0.1615
 4573W        W47589  22.626   5.602   2.789  0.1108  0.1208 -0.1602
 4574W        W47590  21.446   6.351  22.955  0.0223 -0.1879 -0.3791
 4575W        W47591  26.588  12.964  18.170 -0.5626  0.0092  0.0592
 4576W        W47592   6.353  34.626   1.862  0.1550 -0.1467 -0.1986
 4577W        W47593   9.762   1.732  25.021 -0.0211 -0.1013 -0.1464
 4578W        W47594  10.385   8.173  27.227 -0.3163 -0.1839 -0.0890
 4579W        W47595   5.302  26.148  28.359 -0.2336 -0.1544 -0.1235
 4580W        W47596  10.319  31.348   8.177  0.0322  0.1244 -0.0641
 4581W        W47597  26.206  22.214   1.868 -0.2975  0.1599  0.1189
 4582W        W47598  16.772  24.109  25.582  0.0130  0.1078 -0.2430
 4583W        W47599  21.967  31.817   7.554 -0.2144  0.2989  0.1439
 4584W        W47600   9.068   3.227  20.010  0.2740  0.0356 -0.0131
 4585W        W47601  12.137  13.286   9.007 -0.0799  0.0441 -0.2675
 4586W        W47602  18.405  27.603  18.413 -0.0807 -0.0185 -0.2970
 4587W        W47603  26.553  25.716   2.462 -0.0257 -0.0493  0.0329
 4588W        W47604  15.946  34.028  16.149 -0.3772 -0.1228 -0.0146
 4589W        W47605   3.008  29.707   4.816 -0.3630  0.1473 -0.0706
 4590W        W47606  11.376  25.913   2.853 -0.1738  0.1261  0.3575
 4591W        W47607  18.072  23.215  20.106 -0.0251 -0.3173 -0.0048
 4592W        W47608   2.078  30.460  28.488  0.2548 -0.0763 -0.2727
 4593W        W47609   7.882  16.789  22.226  0.0739 -0.0283  0.1387
 4594W        W47610  24.447   5.925   7.602 -0.3114  0.1265  0.2759
 4595W        W47611  22.842  19.943   5.239  0.0132  0.0700  0.0255
 4596W        W47612  14.529  17.771  19.892 -0.0496  0.1968  0.0441
 4597W        W47613  14.807  16.858   7.007  0.1612  0.1432  0.3914
 4598W        W47614   0.321  20.405  24.495 -0.0068 -0.0800  0.2533
 4599W        W47615  11.827  33.152  24.720  0.0969  0.0122 -0.1741
 4600W        W47616  26.513  31.886   0.097 -0.0371  0.1591  0.3090
 4601W        W47617   7.252  13.725   1.483 -0.2052  0.1221 -0.0757
 4602W        W47618   4.046  27.571  26.014 -0.2964 -0.0592 -0.0060
 4603W        W47619  25.267  28.526  23.390  0.0249  0.2042  0.3141
 4604W        W47620  24.620   7.893  27.227 -0.0448  0.1122  0.0372
 4605W        W47621  13.728  10.477  28.623 -0.0804  0.2025 -0.0405
 4606W        W47622  29.532  19.525   0.958 -0.4138  0.3124  0.0210
 4607W        W47623  23.985  24.247  20.277 -0.2186  0.0816  0.3091
 4608W        W47624   5.347  24.910  16.154 -0.0140 -0.3854  0.1225
 4609W        W47625  12.069  10.070   3.587  0.3315 -0.0258 -0.1088
 4610W        W47626  23.411   5.457   9.993  0.1998 -0.1771 -0.3091
 4611W        W47627  14.824   4.844   6.735 -0.0284  0.2722  0.1018
 4612W        W47628  20.653  27.777   5.579 -0.0112  0.0550 -0.2868
 4613W        W47629  17.207  19.204   1.123 -0.1975 -0.1618 -0.0714
 4614W        W47630  18.997  20.224  26.047  0.1442 -0.0775  0.2052
 4615W        W47631  28.301  20.847   5.741  0.1546 -0.1015 -0.2971
 4616W        W47632  29.895  21.999   2.871 -0.3129 -0.2668 -0.0065
 4617W        W47633  30.485  32.825  17.241 -0.1273 -0.0024 -0.1697
 4618W        W47634  18.144  23.802  29.200 -0.1852  0.1372  0.0602
 4619W        W47635   6.690   0.438  22.178  0.1944 -0.0650 -0.3638
 4620W        W47636  10.369  10.565   2.474  0.0318 -0.3048 -0.1709
 4621W        W47637  19.321  27.866   8.836  0.1377  0.0660  0.3144
 4622W        W47638  12.649  27.062   1.591 -0.0508 -0.1505  0.0511
 4623W        W47639  34.198   7.307   7.216 -0.0890 -0.0468  0.0844
 4624W        W47640  15.817  25.077  13.049 -0.1733  0.0649 -0.1781
 4625W        W47641  13.178  12.213  28.409 -0.3723  0.0678 -0.2323
 4626W        W47642   9.233  34.276  10.880  0.0095 -0.2089 -0.0039
 4627W        W47643  33.391   6.926   6.483 -0.0196 -0.0200 -0.0302
 4628W        W47644  17.828  18.021   3.753 -0.0630 -0.2479  0.0252
 4629W        W47645   7.500  34.417  26.545 -0.1521  0.1696  0.0706
 4630W        W47646  13.936  32.871  20.565  0.0007  0.2537  0.1103
 4631W        W47647  11.349   6.700  29.083  0.1454 -0.4192  0.0049
 4632W        W47648  23.274  22.455   1.409  0.1426  0.2904 -0.1329
 4633W        W47649  19.921  26.468   4.218  0.3312  0.2054  0.0749
 4634W        W47650   0.994  21.253   8.760 -0.4867  0.2411  0.1386
 4635W        W47651  22.534  32.596   2.673 -0.2375 -0.1446  0.0382
 4636W        W47652  13.354  18.263  12.163  0.1551 -0.0256  0.1400
 4637W        W47653  28.486  12.749   9.228  0.0326  0.2889 -0.0339
 4638W        W47654   5.499  23.833  27.429 -0.1052 -0.1373 -0.0519
 4639W        W47655  20.787  23.302   1.433 -0.0204  0.0511  0.4200
 4640W        W47656  24.812  28.879  25.559  0.1649  0.2557 -0.0095
 4641W        W47657  12.730  22.553  17.215 -0.3161 -0.0327 -0.2990
 4642W        W47658   4.425  12.229   4.960 -0.1080 -0.0322 -0.3306
 4643W        W47659   0.270  19.900   1.046  0.1477  0.0850  0.0737
 4644W        W47660   3.202  24.795   9.590 -0.0809  0.1967 -0.0228
 4645W        W47661   3.241   5.455   5.861  0.2142  0.0757 -0.1469
 4646W        W47662  19.464  14.382   0.197  0.0718 -0.0799  0.2712
 4647W        W47663   6.485  30.298  10.113 -0.0712  0.0172 -0.0893
 4648W        W47664  17.645  21.723  16.306 -0.0309 -0.0225  0.0497
 4649W        W47665   1.516  17.877  25.271  0.1165  0.1976  0.1410
 4650W        W47666   8.601   8.456  28.096 -0.1387  0.1406  0.1813
 4651W        W47667  16.328  20.920  26.976 -0.0786 -0.0243  0.1706
 4652W        W47668  11.324  33.947  24.570 -0.0945 -0.2883  0.1744
 4653W        W47669  17.401  31.217  28.119  0.0791  0.1071  0.2661
 4654W        W47670   2.254  30.621  22.463 -0.1373  0.0765  0.1392
 4655W        W47671   5.772  33.169  10.388 -0.0492  0.1914  0.3967
 4656W        W47672  20.037  25.142   0.301  0.3087 -0.1105  0.0109
 4657W        W47673   2.471  12.440   7.376  0.0540 -0.4460 -0.0322
 4658W        W47674  25.892  17.361  23.074 -0.2415  0.0438  0.0068
 4659W        W47675  26.300  27.999  11.299 -0.2460  0.2580 -0.0022
 4660W        W47676  17.617  24.467   4.375  0.0430 -0.0416  0.1994
 4661W        W47677  19.536  24.468  23.537 -0.0490  0.3218  0.0657
 4662W        W47678  34.427  15.122  19.785  0.1403  0.2712  0.0435
 4663W        W47679  24.162  27.331  26.287  0.3689  0.0826 -0.1736
 4664W        W47680   3.703   7.806   5.061 -0.1916 -0.0570  0.1151
 4665W        W47681   8.384  21.716  24.099  0.0000 -0.0071  0.0701
 4666W        W47682  14.781  28.608  25.564  0.1922  0.0380 -0.2142
 4667W        W47683   3.190  30.492   8.648  0.4067 -0.1319  0.0651
 4668W        W47684  20.951  19.781   7.970 -0.0450  0.1204  0.2626
 4669W        W47685  25.344  20.381   4.086  0.0637 -0.0240 -0.0393
 4670W        W47686   4.612  18.094  14.292  0.0637  0.0705 -0.1300
 4671W        W47687  21.949   3.210   2.886  0.1245  0.0595  0.1564
 4672W        W47688  14.935  21.108   6.625  0.2048  0.4497 -0.2678
 4673W        W47689  19.360   8.558   8.073  0.0886  0.0036 -0.2175
 4674W        W47690  24.228  20.520   0.264  0.0486  0.0679  0.0819
 4675W        W47691  14.951  26.610   6.981 -0.1281 -0.0154  0.3365
 4676W        W47692   8.941  18.310   0.154 -0.0249 -0.0611 -0.0850
 4677W        W47693  11.559  28.578   9.795 -0.4576  0.2761 -0.1072
 4678W        W47694  13.784  33.200   4.294 -0.0091 -0.0989 -0.0234
 4679W        W47695   1.195  26.808  10.713 -0.2973  0.3182 -0.0480
 4680W        W47696  18.399  24.522  25.904  0.7314 -0.2636  0.0829
 4681W        W47697  19.359  17.461   1.260  0.2215 -0.1045 -0.1624
 4682W        W47698   0.561   0.410  27.498  0.1853 -0.2067  0.3460
 4683W        W47699  15.322  24.531   5.786  0.0893 -0.0070 -0.0156
 4684W        W47700  22.087   2.522   9.510  0.3689  0.4524  0.1681
 4685W        W47701  30.741  13.731   3.293  0.2229  0.2351 -0.0711
 4686W        W47702  10.283  22.959   1.281 -0.3431 -0.2009  0.0041
 4687W        W47703  18.769  16.387  27.120  0.2581 -0.0447 -0.2984
 4688W        W47704  17.067   2.659   3.496 -0.1515 -0.0977  0.2153
 4689W        W47705  16.727   2.697  18.208  0.1298 -0.2397 -0.4564
 4690W        W47706  29.846  11.686   9.762  0.1607 -0.0161 -0.0334
 4691W        W47707  11.827  19.811   5.039  0.5297  0.2180  0.1100
 4692W        W47708  29.824  32.664  11.302  0.0200  0.0853 -0.1788
 4693W        W47709  15.067  15.949   5.352 -0.1643 -0.1012  0.0661
 4694W        W47710  12.416  18.498   5.197  0.0963  0.2542 -0.1905
 4695W        W47711  13.429  33.448  22.388  0.0378 -0.0246  0.0739
 4696W        W47712  15.662  23.079  16.097 -0.3999  0.1130 -0.0327
 4697W        W47713  27.239  21.016   2.191 -0.3276  0.0481  0.1465
 4698W        W47714   9.445  29.894   7.237 -0.0924 -0.2584 -0.0628
 4699W        W47715  14.831  19.197  25.080 -0.3065 -0.1960 -0.3462
 4700W        W47716  29.793  25.873   6.315  0.2200 -0.1877  0.0446
 4701W        W47717  18.341  23.263  25.590 -0.1431  0.0528  0.2273
 4702W        W47718  16.442  14.710  12.526  0.0820 -0.3119 -0.2654
 4703W        W47719  23.799  13.445   9.128 -0.0599  0.2163 -0.0062
 4704W        W47720  33.544  20.827   9.431  0.0478  0.0435  0.2653
 4705W        W47721  27.815  23.064  24.132  0.0442 -0.0574  0.1121
 4706W        W47722  17.946  17.144  29.211  0.0212 -0.4115 -0.2926
 4707W        W47723  19.122   0.905  19.074  0.0198 -0.2294 -0.1439
 4708W        W47724  19.903  29.453  24.305  0.3287 -0.2062  0.1386
 4709W        W47725  17.581  33.434   1.505 -0.0120 -0.3321 -0.1237
 4710W        W47726   3.507  15.964   2.308  0.0490 -0.0971 -0.0585
 4711W        W47727  29.975  11.643   8.632 -0.0368 -0.0977 -0.1393
 4712W        W47728  32.005   2.542  21.044 -0.1637  0.0870 -0.1735
 4713W        W47729  31.068  31.048   3.383 -0.2355  0.0507 -0.0727
 4714W        W47730  23.242  34.758  24.688 -0.1170  0.1084 -0.2431
 4715W        W47731   1.202  17.951   3.574 -0.1596 -0.3382  0.2028
 4716W        W47732  17.642  33.657   4.579 -0.2068  0.1109 -0.2265
 4717W        W47733  23.946  24.856  28.918  0.3245  0.3270 -0.0218
 4718W        W47734  30.386  27.749  10.728  0.2982  0.1287 -0.1447
 4719W        W47735   7.771  30.598   9.373  0.0997 -0.2201 -0.1265
 4720W        W47736  15.497  23.789   9.470 -0.1800  0.1615  0.0144
 4721W        W47737  17.267  18.231  24.946 -0.3580 -0.0216  0.1153
 4722W        W47738  24.788  30.385   9.639 -0.2045 -0.1581  0.1175
 4723W        W47739   7.467  20.498   1.712  0.0234 -0.1370 -0.3099
 4724W        W47740  24.186  27.803   3.883  0.1607  0.2568  0.2478
 4725W        W47741  20.861  13.004   8.998 -0.3537 -0.1954  0.1211
 4726W        W47742  22.180  31.220   5.026 -0.1621 -0.0924 -0.0420
 4727W        W47743  14.973  27.771   9.095 -0.1097 -0.6944  0.1736
 4728W        W47744   8.006  20.767   5.956 -0.0346 -0.1655 -0.3452
 4729W        W47745   7.383   0.533   0.449  0.1658 -0.4359  0.3236
 4730W        W47746  22.908   0.913  17.843 -0.3353  0.0328  0.0663
 4731W        W47747  18.803  29.546  21.829 -0.0229  0.1320  0.1659
 4732W        W47748   4.335   7.815  25.147  0.0382 -0.1856 -0.1963
 4733W        W47749   8.898  13.908   1.998 -0.0349 -0.1061  0.1602
 4734W        W47750   9.951  29.202   6.532  0.0871  0.0716  0.0118
 4735W        W47751  18.986  10.900  25.712 -0.0293 -0.0949  0.0080
 4736W        W47752  27.459   0.320   2.682  0.2618 -0.0527 -0.2663
 4737W        W47753  18.293  34.635   7.085 -0.0412 -0.3719 -0.0365
 4738W        W47754  15.958  22.086   8.029 -0.0587 -0.2862  0.0474
 4739W        W47755  14.117  23.118   8.439  0.1089 -0.0120 -0.2260
 4740W        W47756  20.702   5.769   9.963  0.3405  0.0311  0.1029
 4741W        W47757   1.710  25.547   4.906  0.0448  0.0484 -0.0046
 4742W        W47758  22.823  24.705   5.638 -0.1201  0.2830 -0.0739
 4743W        W47759  10.785  12.890   3.289  0.2056  0.0425 -0.0398
 4744W        W47760  25.475  16.676   2.627  0.1604 -0.2267  0.0600
 4745W        W47761  17.227  19.163   7.534  0.1652  0.2119  0.1422
 4746W        W47762  31.710  31.876   5.081  0.2619 -0.1680  0.3188
 4747W        W47763  12.279   0.814  25.285  0.2718 -0.2250  0.2175
 4748W        W47764  10.754  18.011   5.492  0.1505  0.3733 -0.1013
 4749W        W47765   7.917  31.184   8.932  0.2418 -0.2097 -0.2749
 4750W        W47766  12.865  22.542   5.572  0.0159 -0.0949  0.1558
 4751W        W47767  12.220  26.075  21.708 -0.2998  0.2221 -0.1063
 4752W        W47768  17.354  20.164   8.110 -0.0243 -0.1885  0.4223
 4753W        W47769  20.909  22.388  23.732 -0.3487 -0.1359 -0.0526
 4754W        W47770  28.915  26.176   6.730 -0.2497  0.2007  0.1214
 4755W        W47771   8.769   0.815   4.368 -0.3995  0.0716 -0.3300
 4756W        W47772  17.838  15.102   1.048 -0.1787  0.1948 -0.1514
 4757W        W47773  10.890  23.362  28.998 -0.2986  0.0255 -0.0592
 4758W        W47774  24.587  29.629  12.035 -0.3319 -0.2918 -0.4006
 4759W        W47775   0.829  11.111  22.326  0.0117 -0.1380 -0.0881
 4760W        W47776  13.997  19.999  22.742  0.2745 -0.1150  0.1728
 4761W        W47777  18.380  31.299   6.603 -0.2430  0.0220 -0.0206
 4762W        W47778  24.882  17.611   9.527 -0.2574 -0.0190  0.1906
 4763W        W47779  28.878  21.173   1.490  0.1017  0.1527 -0.0571
 4764W        W47780  10.901  26.063  19.729  0.1088  0.0431 -0.1397
 4765W        W47781  15.596  14.270   6.435  0.0240 -0.1544  0.3266
 4766W        W47782   8.010  19.792   5.364  0.1018 -0.1583  0.2983
 4767W        W47783  24.816  11.460  23.402 -0.2926  0.1048 -0.3319
 4768W        W47784  11.842  17.858   3.229 -0.0741  0.1411  0.0110
 4769W        W47785   2.348  13.533   7.995 -0.1737 -0.2402 -0.0657
 4770W        W47786  14.872   0.130   9.471  0.1125  0.0265 -0.1126
 4771W        W47787  31.334  30.644  28.171  0.2184  0.2064  0.1645
 4772W        W47788  17.662  15.585   5.065 -0.0194 -0.0323  0.1916
 4773W        W47789   0.692   3.989   4.070 -0.0000  0.0919  0.4296
 4774W        W47790  31.102  21.258   6.383 -0.0784 -0.0044 -0.1223
 4775W        W47791  29.026  22.598   7.946  0.2079 -0.2370  0.2130
 4776W        W47792  19.404   7.125  22.894 -0.2424 -0.3505 -0.0359
 4777W        W47793  32.900   1.263  24.360 -0.0102 -0.0424  0.0289
 4778W        W47794  10.227  17.392   0.737  0.3874 -0.4466 -0.2355
 4779W        W47795  13.500  24.015   7.051 -0.1029 -0.0293 -0.2950
 4780W        W47796  19.066  17.846  23.051  0.1363 -0.0180  0.2413
 4781W        W47797   2.371  21.977  20.130 -0.2943 -0.3511  0.0833
 4782W        W47798  23.239  21.618   1.931 -0.1105  0.0535 -0.2498
 4783W        W47799  12.955  21.053   4.280  0.0536 -0.0283  0.1331
 4784W        W47800  10.592  29.751  27.537  0.1781  0.1479  0.3186
 4785W        W47801  26.302  16.957  25.580  0.1688 -0.3145  0.0208
 4786W        W47802  12.250  31.932   4.308 -0.0067  0.2623  0.2702
 4787W        W47803   7.120  18.121   6.774  0.1547 -0.2806  0.1483
 4788W        W47804  34.603  24.047   0.087  0.1269 -0.0620 -0.0123
 4789W        W47805  25.061   0.716   4.855  0.1521  0.0573  0.1196
 4790W        W47806  32.938  22.228   8.702 -0.1558  0.1330  0.0090
 4791W        W47807  29.915  10.968   7.992  0.1801  0.4454  0.0300
 4792W        W47808   2.316  20.964  21.044 -0.0062 -0.0292 -0.0153
 4793W        W47809  27.250  22.813   0.787 -0.1964  0.0760  0.3725
 4794W        W47810  24.397  20.993  21.177 -0.0635 -0.1180  0.0143
 4795W        W47811  29.027  17.070   1.467  0.0733 -0.0985  0.0120
 4796W        W47812   8.290   2.061  29.121  0.1318  0.0984 -0.2877
 4797W        W47813  27.706  31.887  19.520 -0.0930 -0.0652  0.3374
 4798W        W47814  24.497   9.100   9.648 -0.0534 -0.1571  0.0792
 4799W        W47815  22.780  14.270  16.912  0.1442 -0.0887 -0.1684
 4800W        W47816   0.776  33.253   4.016  0.1172  0.0350  0.0116
 4801W        W47817   7.139  28.418   5.409 -0.1281  0.0401 -0.0268
 4802W        W47818  25.223  27.279   1.018 -0.1654  0.2362 -0.1608
 4803W        W47819  11.664  27.641   8.174  0.3004  0.1670  0.1425
 4804W        W47820  19.878  16.414   0.896  0.0579  0.1107  0.0564
 4805W        W47821  14.156  25.832   9.217 -0.0311 -0.1417  0.1348
 4806W        W47822  21.181  15.808   0.443  0.2118  0.0713 -0.1637
 4807W        W47823  20.781  16.182  14.405 -0.3602 -0.0828 -0.0842
 4808W        W47824   3.624  21.708   3.875 -0.1720 -0.3071 -0.0336
 4809W        W47825   8.807  15.606  26.359  0.0902  0.3621  0.1724
 4810W        W47826  25.321  24.825   1.832  0.0145 -0.0484 -0.3412
 4811W        W47827   8.758  23.645   7.547 -0.1575  0.0634  0.0642
 4812W        W47828  33.463  25.449   9.109  0.3143 -0.0257  0.0264
 4813W        W47829  21.523  27.891  21.919  0.1477  0.0887  0.0840
 4814W        W47830   9.060   6.916   1.423 -0.0674  0.0406  0.0985
 4815W        W47831  31.015  15.152   4.061  0.1211 -0.1675 -0.1534
 4816W        W47832  10.132  19.483  24.642 -0.0880  0.5476  0.0158
 4817W        W47833  18.125  28.837   2.229 -0.1461  0.2815 -0.1067
 4818W        W47834  28.492  29.400   9.775  0.0932 -0.0855  0.0856
 4819W        W47835  11.261  18.124   0.554  0.0697  0.1029 -0.0407
 4820W        W47836  21.599   1.483   9.709 -0.0269 -0.1548  0.1742
 4821W        W47837  33.812  33.163   0.002  0.0707  0.1289 -0.3066
 4822W        W47838  26.823  25.011  25.655  0.3599 -0.0368 -0.0797
 4823W        W47839  27.771   9.280   5.968  0.0764  0.2952  0.1608
 4824W        W47840  19.116  31.188  23.150 -0.1937  0.1682 -0.3919
 4825W        W47841   1.170  12.303  17.866  0.1681 -0.0573 -0.0374
 4826W        W47842  10.186  13.489  21.056  0.2594 -0.0098  0.2139
 4827W        W47843   4.049  25.286  25.063 -0.3017  0.1526  0.3110
 4828W        W47844   7.877  19.148  13.590 -0.0225  0.0185  0.3346
 4829W        W47845  14.389   6.360  25.952 -0.2027 -0.1554  0.1563
 4830W        W47846   4.320  31.145   6.869  0.1569 -0.1643 -0.1767
 4831W        W47847   9.278  23.473   6.705  0.2035 -0.0437  0.3241
 4832W        W47848  10.342  14.173   6.971  0.0287  0.1152 -0.0165
 4833W        W47849  19.058  11.619  16.946  0.0320  0.0451 -0.2005
 4834W        W47850  20.796  25.864   2.546  0.1861  0.1148 -0.0708
 4835W        W47851  24.573   4.022   3.761  0.1733  0.1870 -0.0201
 4836W        W47852  19.199  23.250  22.551  0.1736 -0.3693  0.2356
 4837W        W47853  30.238  21.135   1.195 -0.3147 -0.0043  0.0956
 4838W        W47854  11.774  18.168  29.161  0.2126 -0.0813 -0.0455
 4839W        W47855  24.492  14.597  26.244  0.1311  0.1180 -0.3822
 4840W        W47856  26.338  10.990  10.071 -0.0213  0.1482 -0.1226
 4841W        W47857   8.973  30.017   0.582  0.0492  0.5459 -0.0226
 4842W        W47858  15.865  29.203   8.800 -0.1611  0.0366  0.0101
 4843W        W47859  12.034  29.266   9.005 -0.0028  0.2786  0.1167
 4844W        W47860  33.247  21.591   9.407 -0.0900 -0.1749 -0.0918
 4845W        W47861  32.210  23.175  16.963  0.0071  0.2053 -0.1205
 4846W        W47862  20.352  25.045  28.876 -0.3199 -0.1435 -0.5459
 4847W        W47863  13.834   9.272   5.545 -0.2929  0.0008 -0.1387
 4848W        W47864  18.931  16.916  28.193  0.1177 -0.2888 -0.3209
 4849W        W47865  34.296  27.921   4.072  0.1041 -0.0084 -0.0320
 4850W        W47866   6.304  33.880   1.900  0.3361 -0.0135  0.4156
 4851W        W47867  27.789  13.110  27.283 -0.1249  0.1582  0.1695
 4852W        W47868  21.355   2.300   6.518  0.1047  0.1348  0.1826
 4853W        W47869  10.480  25.381   7.818  0.0182  0.0082 -0.0371
 4854W        W47870   0.651   6.074   7.603 -0.0238  0.1141 -0.3919
 4855W        W47871   3.137  19.890   9.125  0.1394 -0.0773 -0.2036
 4856W        W47872  14.756  28.771   7.260 -0.1406 -0.0904 -0.0070
 4857W        W47873   3.250  28.875   9.252 -0.0053 -0.1104  0.2834
 4858W        W47874  14.260  12.511  26.783 -0.0247  0.0882 -0.0022
 4859W        W47875   7.824  16.878  19.475  0.0290  0.1730  0.0014
 4860W        W47876  21.234   4.950  26.810 -0.0829  0.3317 -0.1607
 4861W        W47877  33.429  21.201   5.404  0.0595  0.1973  0.2319
 4862W        W47878  16.934  24.212  21.461  0.1508 -0.1923 -0.0191
 4863W        W47879  24.565  29.408   7.056  0.1006  0.0808  0.0216
 4864W        W47880   2.074  31.065   1.510  0.2488  0.0543  0.0135
 4865W        W47881   2.923  20.285   3.595 -0.1142 -0.2403 -0.1334
 4866W        W47882  31.082  25.397  21.340 -0.3049  0.0844 -0.3099
 4867W        W47883  20.613   0.376   8.752 -0.0285  0.2476 -0.0161
 4868W        W47884  34.105  18.449   1.011  0.3592 -0.0887  0.3978
 4869W        W47885  11.549  22.233   1.693  0.1020 -0.0483  0.1180
 4870W        W47886   2.952  28.848  22.767 -0.1314 -0.0117  0.3328
 4871W        W47887  14.254  13.736  23.676  0.2539  0.0816 -0.0969
 4872W        W47888  23.540  26.812   1.754  0.0230  0.1912 -0.2042
 4873W        W47889   2.547  24.646   7.180  0.0214  0.3110  0.0496
 4874W        W47890  10.058   7.485   2.084  0.0197  0.0298  0.0061
 4875W        W47891  13.978  34.016  10.393  0.4992  0.0307  0.1009
 4876W        W47892   8.934  23.086   8.021  0.0130  0.0619  0.3640
 4877W        W47893   2.591  24.679   6.113 -0.0283  0.0952 -0.3055
 4878W        W47894  26.485  27.808   3.968  0.0494 -0.1253 -0.0335
 4879W        W47895  27.450   5.280   8.390 -0.1282 -0.0479  0.0720
 4880W        W47896  22.212  20.736   5.056  0.0427  0.1775  0.4188
 4881W        W47897  18.693  13.712   4.606  0.2719 -0.0043 -0.0697
 4882W        W47898  14.235   6.341   7.658  0.0352  0.0902 -0.1914
 4883W        W47899  20.284  29.728  16.085 -0.0814 -0.0222 -0.2065
 4884W        W47900  13.589   1.282  27.648 -0.0160 -0.2028 -0.1114
 4885W        W47901  17.069   9.031  27.656 -0.0014 -0.0858 -0.0565
 4886W        W47902   5.071  16.814   1.937 -0.3786  0.2438  0.1179
 4887W        W47903  17.062  12.453  14.585 -0.0703 -0.0230  0.1034
 4888W        W47904  20.012  10.193  22.846  0.1868  0.0399 -0.2696
 4889W        W47905   4.220   1.055  28.684 -0.0195 -0.2425 -0.2045
 4890W        W47906  18.869  30.590  22.496 -0.4892  0.2899  0.0256
 4891W        W47907  14.818  14.536  21.694  0.2267  0.1872  0.0889
 4892W        W47908  16.247  18.059  19.146 -0.0286  0.2241 -0.0238
 4893W        W47909   7.690  20.135   7.983  0.0926 -0.0266  0.2305
 4894W        W47910  31.807  23.489   9.747  0.3515  0.2680 -0.1102
 4895W        W47911  25.051  18.260   6.192 -0.0275 -0.0027  0.3566
 4896W        W47912  17.898  26.588   5.778  0.0062 -0.0922  0.1535
 4897W        W47913   8.575  28.538   2.152 -0.1174  0.1973 -0.0272
 4898W        W47914  11.307  18.471  20.611  0.1687  0.0224  0.1331
 4899W        W47915  25.325   5.053   5.287  0.1485 -0.1225 -0.0856
 4900W        W47916  17.708  33.396   8.470  0.0334 -0.0474 -0.1119
 4901W        W47917  14.482  14.955   6.906 -0.0714 -0.1299  0.1160
 4902W        W47918  11.794  25.225  19.195 -0.1789 -0.0389 -0.1544
 4903W        W47919   7.968  33.456   8.080  0.0261 -0.2410  0.0494
 4904W        W47920   6.016  20.180   6.785  0.0013 -0.0815  0.0344
 4905W        W47921  11.423  24.720  28.074 -0.1951 -0.3749  0.0135
 4906W        W47922  12.466  24.518   4.824 -0.1328  0.4009 -0.1374
 4907W        W47923  10.943  29.930   7.634  0.1335 -0.1338 -0.1251
 4908W        W47924  29.876  26.181  25.126 -0.2868  0.0269  0.1744
 4909W        W47925  21.144  17.646  13.767 -0.0535  0.3001 -0.2403
 4910W        W47926  30.334  15.101   5.205  0.0267 -0.2882 -0.3282
 4911W        W47927   9.201  33.499  15.339 -0.2658 -0.1201 -0.1237
 4912W        W47928  11.923  26.253  17.566 -0.3447  0.3066  0.1291
 4913W        W47929  19.039  17.662   4.075 -0.4499  0.1333 -0.2531
 4914W        W47930  19.719  29.536   8.059 -0.2832  0.0081 -0.2542
 4915W        W47931  12.953  12.314  16.642 -0.2106 -0.0057  0.1811
 4916W        W47932  25.371  19.271  28.944  0.0207 -0.2207 -0.1202
 4917W        W47933  32.424  31.487  29.159 -0.4074 -0.1898 -0.1819
 4918W        W47934  14.361  28.230   1.325  0.2383  0.1160 -0.2235
 4919W        W47935   6.179  25.642  27.919  0.1095 -0.0696  0.1695
 4920W        W47936  17.919  16.484  16.918  0.2204 -0.3081  0.0868
 4921W        W47937  34.735  17.638   0.886  0.0960  0.3737  0.1939
 4922W        W47938  31.979  19.322   5.947 -0.1807  0.3410 -0.1679
 4923W        W47939  17.900  13.078   3.067  0.1151  0.1018 -0.1707
 4924W        W47940   5.434  34.752   8.115  0.0587  0.0547 -0.1974
 4925W        W47941   2.389   4.856  23.223 -0.1486  0.4302 -0.2590
 4926W        W47942   0.883  20.735   8.813 -0.2635  0.0970  0.0305
 4927W        W47943  11.153  33.187  27.682 -0.1533  0.1603 -0.0367
 4928W        W47944   6.981  20.056   5.149  0.0168  0.1817 -0.5555
 4929W        W47945   2.941  21.413  26.813 -0.1070  0.2235  0.1932
 4930W        W47946  32.012   8.326  24.228 -0.0467 -0.1278  0.3607
 4931W        W47947  34.663  23.282  10.751 -0.0522  0.0461 -0.1783
 4932W        W47948   2.266  25.116   2.438  0.1000 -0.2920  0.0113
 4933W        W47949  13.602  15.317   4.160  0.0942 -0.1665  0.2366
 4934W        W47950  22.574  13.787  21.042  0.1848 -0.1594  0.1043
 4935W        W47951  31.347  15.871   6.730 -0.1898  0.2279  0.0005
 4936W        W47952   7.944  32.247  27.262 -0.2760  0.1037  0.3021
 4937W        W47953  32.673  33.790  23.750  0.0326 -0.2255  0.2391
 4938W        W47954  21.232   6.581  18.399  0.0168 -0.0285 -0.0929
 4939W        W47955  34.006  19.618   2.981 -0.2476  0.0260  0.0376
 4940W        W47956  17.943   0.191   9.230 -0.2479  0.0152  0.1224
 4941W        W47957  14.572  23.554  26.839 -0.0467  0.1601  0.0891
 4942W        W47958  17.263  15.919   1.732  0.0644  0.1775  0.1388
 4943W        W47959  20.224  15.187   2.839  0.2785 -0.0289  0.3396
 4944W        W47960  10.257   2.576   2.948 -0.2438 -0.0485 -0.2325
 4945W        W47961  15.144  30.828   7.612  0.2077  0.2141  0.0008
 4946W        W47962   4.683  12.212   5.720  0.0092 -0.1052  0.0206
 4947W        W47963  23.978  22.290  23.748 -0.0538 -0.1688  0.0611
 4948W        W47964  32.998  24.505   5.026  0.3874  0.1730  0.2486
 4949W        W47965   0.968  26.341   1.325 -0.0463 -0.2432 -0.0836
 4950W        W47966  17.850  16.465   1.270 -0.4388 -0.1057  0.0995
 4951W        W47967   4.162  21.742   8.978  0.1222 -0.1102  0.2239
 4952W        W47968  11.861   6.648   0.543 -0.1272 -0.0774 -0.0100
 4953W        W47969  25.049  31.611  10.089 -0.2705 -0.4219  0.2910
 4954W        W47970  14.036  22.427   4.606  0.0676 -0.1063 -0.1105
 4955W        W47971   9.435  32.270   5.581 -0.0017 -0.2516  0.0574
 4956W        W47972  19.030  26.370   7.889 -0.0790 -0.4302 -0.1049
 4957W        W47973   9.899  18.499   2.406 -0.2202 -0.1430  0.3122
 4958W        W47974  12.307  29.871   2.029 -0.3303  0.0828  0.2405
 4959W        W47975  12.075  14.750  28.336  0.0630 -0.0168  0.0976
 4960W        W47976  11.638  16.229   4.566 -0.0214 -0.0883  0.2124
 4961W        W47977   7.442  23.363  27.432 -0.2099  0.0053  0.0322
 4962W        W47978  27.983  20.533  25.568  0.1069 -0.0516 -0.2162
 4963W        W47979  10.472   7.859   2.942  0.2310 -0.1515  0.2519
 4964W        W47980  29.117  16.925   6.865 -0.0875 -0.3383 -0.1344
 4965W        W47981  28.370  26.559  27.399  0.1179  0.1614  0.2664
 4966W        W47982  28.885   1.244   7.160  0.1041  0.2393 -0.1588
 4967W        W47983  13.149  23.441  21.145  0.0304 -0.0246 -0.0107
 4968W        W47984  13.684  19.804   6.310  0.1754 -0.4928  0.0418
 4969W        W47985  16.350  17.084  27.391  0.0413 -0.0557  0.1977
 4970W        W47986  26.558  19.971   9.167 -0.0701  0.0146  0.1477
 4971W        W47987  19.205  18.532   5.477  0.0426 -0.0677 -0.0016
 4972W        W47988   3.229   3.882   3.106 -0.2722 -0.0270  0.1664
 4973W        W47989  25.351  28.080   5.627 -0.2387  0.1829  0.0448
 4974W        W47990  20.904  25.534   6.302  0.1846  0.2083 -0.3677
 4975W        W47991  12.695  33.748  20.083 -0.0449  0.0335 -0.0994
 4976W        W47992  20.672   0.099   9.538  0.1297 -0.3972 -0.0675
 4977W        W47993  14.814  32.166   8.237 -0.1135 -0.0607 -0.1532
 4978W        W47994  20.940  28.997  16.118 -0.1127  0.1400 -0.0517
 4979W        W47995  19.332  14.656   6.518 -0.0511  0.0916  0.0996
 4980W        W47996  16.653   2.330   5.128 -0.1780  0.2926  0.3292
 4981W        W47997   1.830  22.976   9.047 -0.0664 -0.1795  0.0895
 4982W        W47998  14.262  33.307  21.621  0.1659  0.0048 -0.1023
 4983W        W47999  19.119  25.975   4.884  0.0851  0.0677 -0.0130
 4984W        W48000  29.725  30.484   8.559 -0.3268  0.0508 -0.1960
 4985W        W48001   6.375  18.182   2.979  0.2536 -0.0198  0.1024
 4986W        W48002  26.011   9.235   6.625 -0.0356  0.1903  0.3431
 4987W        W48003  14.239  13.160  26.157  0.0194 -0.0712  0.2467
 4988W        W48004  26.212   0.679   8.721 -0.1622 -0.0715 -0.0141
 4989W        W48005  12.680  27.614   0.676  0.0252  0.3402  0.0703
 4990W        W48006  14.029  16.944   0.137 -0.1541 -0.4850  0.3754
 4991W        W48007  33.122  15.041   0.759 -0.0807  0.0832  0.4705
 4992W        W48008  26.036  23.516  18.350  0.2430 -0.3243  0.0686
 4993W        W48009  11.332  29.970   8.140  0.0003 -0.5469  0.3564
 4994W        W48010  17.917  28.477   5.591  0.2215  0.1023 -0.2991
 4995W        W48011  16.116   1.376   6.304  0.1626 -0.1934 -0.0358
 4996W        W48012  19.582  14.963  25.006 -0.2588  0.0741 -0.2740
 4997W        W48013   8.229  24.079   3.299 -0.0323 -0.1173 -0.0153
 4998W        W48014  11.106  28.759   4.618 -0.1122 -0.1457 -0.3305
 4999W        W48015  12.581   1.412   9.513 -0.3686  0.0877 -0.1048
 5000W        W48016   0.359  17.196   0.162 -0.0166  0.1360 -0.0923
 5001W        W48017   7.975  23.801   1.890 -0.0761 -0.1202  0.2858
 5002W        W48018  10.919  21.639   0.288 -0.0908  0.0698  0.1333
 5003W        W48019   2.365  27.553   6.649  0.3248 -0.1114  0.0655
 5004W        W48020  24.213  18.787  19.338 -0.0075 -0.1276 -0.0931
 5005W        W48021   3.685  33.942  28.419 -0.1083 -0.0328  0.0650
 5006W        W48022   5.142  32.649  22.447  0.2812 -0.5188 -0.1918
 5007W        W48023  18.291  33.758   7.280 -0.1462  0.2118 -0.1133
 5008W        W48024  11.117  15.523   1.998  0.0677  0.0912 -0.0489
 5009W        W48025  18.962   0.028  29.052  0.1490  0.0432 -0.2904
 5010W        W48026   8.473  12.618  17.845 -0.0188 -0.0930  0.2546
 5011W        W48027  15.641  26.611  28.670 -0.1129  0.1334 -0.2178
 5012W        W48028  20.336  27.632   6.766  0.0667  0.2308  0.2127
 5013W        W48029  19.831  20.183  28.703 -0.1000 -0.1175 -0.1595
 5014W        W48030  20.582  11.057  16.285  0.0180 -0.0982  0.0117
 5015W        W48031   6.730   1.109  22.994  0.0991  0.2390 -0.2292
 5016W        W48032  10.452  22.913   5.330  0.1920 -0.0944 -0.0910
 5017W        W48033   8.307  22.972  27.641 -0.2228  0.2423  0.1110
 5018W        W48034  24.605   0.300   4.598  0.1998  0.3246  0.2802
 5019W        W48035   6.491  34.387  26.496 -0.0235 -0.2170 -0.2032
 5020W        W48036   9.239   2.438   0.064  0.0163  0.0302 -0.3682
 5021W        W48037  12.902  33.465   9.822 -0.3788  0.3699 -0.1802
 5022W        W48038  10.652  13.997  28.062 -0.2000  0.0098  0.0887
 5023W        W48039  28.624   9.584   9.419 -0.1066  0.0016 -0.3552
 5024W        W48040  14.317  23.964   5.027 -0.6782 -0.0095  0.0964
 5025W        W48041  15.013  23.117  28.798  0.1613  0.0504 -0.3323
 5026W        W48042  30.522  28.650   5.273 -0.1889  0.2892  0.1483
 5027W        W48043  23.545  12.158   1.007 -0.1568  0.1287  0.0066
 5028W        W48044  26.511  17.664   3.732 -0.2983 -0.1430 -0.1286
 5029W        W48045  19.726  28.188   8.672  0.3647  0.4543  0.0006
 5030W        W48046  28.199  26.101   5.760 -0.1966 -0.2291 -0.0912
 5031W        W48047  11.746  23.783   7.616 -0.0091 -0.0568  0.1296
 5032W        W48048   9.044  10.480   7.708  0.0574 -0.2851  0.2374
 5033W        W48049   9.636  19.885   5.112 -0.0149  0.3078 -0.1672
 5034W        W48050   9.892  31.077   8.024 -0.2091  0.0490 -0.1242
 5035W        W48051  13.531  15.452   7.013 -0.2415  0.2275 -0.0599
 5036W        W48052  10.820  26.973   5.674 -0.1123  0.1267  0.0657
 5037W        W48053  27.439  20.445   3.172 -0.3295 -0.1763 -0.0031
 5038W        W48054  19.289  19.039  24.316  0.2185 -0.1139  0.0390
 5039W        W48055  33.763  34.131   1.640  0.0067 -0.0308 -0.0230
 5040W        W48056  23.069  25.358   7.860 -0.0605  0.0635  0.0025
 5041W        W48057  17.402  33.606  28.132 -0.3295  0.1264  0.0190
 5042W        W48058   8.570  32.860  28.044 -0.2172 -0.0905  0.1029
 5043W        W48059  27.961  21.337  18.253  0.1880 -0.0784  0.0303
 5044W        W48060  34.210  16.112   0.405  0.1509  0.0345 -0.2337
 5045W        W48061   9.968  13.441  18.919 -0.2037  0.0095 -0.2172
 5046W        W48062   3.991  14.350   8.552  0.0598  0.0756 -0.3397
 5047W        W48063  24.006  16.983  23.807 -0.0523 -0.1644  0.0584
 5048W        W48064  26.782  18.455   5.076  0.1961  0.0339 -0.1733
 5049W        W48065  23.585  16.658   2.829 -0.1086 -0.1828  0.0750
 5050W        W48066  29.987  20.447   5.075 -0.0500  0.0934 -0.1819
 5051W        W48067  17.738  26.463  27.605  0.0538  0.0437 -0.1332
 5052W        W48068  16.276  15.519  23.012  0.0208 -0.0355  0.0609
 5053W        W48069  11.034   7.408  28.453 -0.1116  0.1397 -0.1297
 5054W        W48070  20.438  30.054   7.467 -0.0736  0.0931 -0.1117
 5055W        W48071  19.023  17.235  21.414  0.1815 -0.0303  0.2796
 5056W        W48072  10.868  27.527   1.463 -0.0405 -0.1234 -0.1656
 5057W        W48073  26.700  20.875   7.761  0.0668 -0.0860 -0.0459
 5058W        W48074  15.245  20.208   4.542  0.0359  0.0363 -0.1185
 5059W        W48075   9.965  32.817   0.874 -0.0489  0.0246  0.1229
 5060W        W48076  29.149  25.685  25.170 -0.0225  0.3112  0.3466
 5061W        W48077  27.865   6.315   4.686 -0.1116 -0.3473 -0.2838
 5062W        W48078  15.275  27.478   6.308  0.1310 -0.1774  0.0958
 5063W        W48079  18.575   2.387   5.997  0.0874 -0.3056 -0.4864
 5064W        W48080  22.786  17.795   9.392 -0.2607 -0.0961 -0.2028
 5065W        W48081  25.622  28.754  11.161  0.2358 -0.3563  0.3559
 5066W        W48082   8.312  19.144  20.674  0.2080  0.3726 -0.1254
 5067W        W48083  14.849  26.888  28.857  0.0639 -0.0609  0.2005
 5068W        W48084  16.163   0.685   7.319  0.2007 -0.1940 -0.0035
 5069W        W48085  32.756  12.381  10.464  0.0401 -0.0924 -0.0540
 5070W        W48086  13.990  21.368  24.914  0.0572 -0.2724 -0.0925
 5071W        W48087  17.835  23.063   8.779  0.1781 -0.0589 -0.3487
 5072W        W48088  23.190  18.642   1.090 -0.1761  0.1248  0.1729
 5073W        W48089  27.522  18.026   2.736  0.1320 -0.0226 -0.1186
 5074W        W48090  30.148  19.329   8.350  0.2017 -0.4547  0.1848
 5075W        W48091  15.038  32.085   9.456  0.0236  0.2342  0.1159
 5076W        W48092   5.016  31.121   7.593  0.0756 -0.0758 -0.1630
 5077W        W48093  11.841  18.304   5.247 -0.1550  0.0817  0.2113
 5078W        W48094  12.157  34.389  26.623 -0.0150  0.1881 -0.0688
 5079W        W48095  19.340  12.580   2.529  0.1930 -0.2962  0.0110
 5080W        W48096   1.015  20.000   6.706 -0.0377  0.0893  0.1423
 5081W        W48097   9.764   1.495   5.938 -0.2442 -0.0495 -0.1843
 5082W        W48098  18.586  22.123   2.621 -0.1149  0.0835  0.5130
 5083W        W48099  12.355  22.007  28.803 -0.0150 -0.1456  0.2719
 5084W        W48100  17.865  24.868  14.151  0.3351  0.2981  0.0865
 5085W        W48101   5.707  29.697  20.459 -0.2500  0.2022 -0.1489
 5086W        W48102  21.805  23.671   9.146 -0.0530  0.1531  0.0319
 5087W        W48103   0.261  16.638  11.013  0.1651 -0.0848  0.0015
 5088W        W48104  14.878  11.259   2.585  0.1521 -0.0506  0.0622
 5089W        W48105  15.777  18.720  21.458  0.0092  0.1155  0.0786
 5090W        W48106  19.835  27.819   7.754 -0.2233 -0.0083 -0.1551
 5091W        W48107  17.295  20.624   0.822 -0.1493  0.0118  0.0955
 5092W        W48108  27.546  28.055  27.423 -0.0095 -0.1753  0.1055
 5093W        W48109  11.126  14.851  18.776  0.1800 -0.3148  0.0097
 5094W        W48110  17.564  18.384   0.019 -0.4511 -0.3522  0.1204
 5095W        W48111  15.799  23.059   5.006  0.1176  0.2120 -0.0831
 5096W        W48112  13.925  31.540   4.949  0.1064  0.2465  0.1572
 5097W        W48113  20.266  10.669   4.281  0.1144  0.3905  0.3946
 5098W        W48114  21.313  26.588   2.697  0.3093  0.1986  0.0928
 5099W        W48115  15.410  31.147  10.260 -0.0044 -0.1135  0.2597
 5100W        W48116  16.782  12.661  24.012 -0.1687  0.0373 -0.0729
 5101W        W48117  16.751  21.724  26.317  0.1691  0.1100 -0.1555
 5102W        W48118  26.795   4.895  26.510 -0.1733 -0.1512 -0.2889
 5103W        W48119   4.690  30.350   7.504  0.2130 -0.2941  0.0307
 5104W        W48120   9.765  28.768   8.489  0.2940  0.0758  0.1482
 5105W        W48121  19.091   8.213   9.714 -0.0824 -0.2253  0.2304
 5106W        W48122  18.643  23.717   5.461  0.0668  0.0397 -0.0884
 5107W        W48123  20.518  34.143  28.860 -0.0894  0.1394 -0.1038
 5108W        W48124  32.222   2.187  26.588 -0.0736  0.0667 -0.1641
 5109W        W48125  20.188  27.255   8.349  0.2907 -0.3426 -0.0876
 5110W        W48126  17.082  24.341   2.909 -0.0024  0.0016  0.0547
 5111W        W48127  25.850   0.585   1.962  0.3776 -0.2380 -0.1664
 5112W        W48128  28.879  31.718   9.822  0.0500  0.1738  0.2885
 5113W        W48129  17.778  32.153   9.785  0.1325 -0.2276  0.0655
 5114W        W48130  15.156  13.134   4.958 -0.0433  0.4362 -0.0664
 5115W        W48131  13.366  11.593   7.153  0.0771  0.1815 -0.1721
 5116W        W48132  19.597  12.495  25.859  0.0280 -0.1513 -0.0080
 5117W        W48133  18.686   8.224  26.500 -0.1967  0.0737 -0.2279
 5118W        W48134  16.817   4.693   4.567 -0.2055 -0.0790  0.4058
 5119W        W48135  31.705  32.890  25.326  0.2321  0.0657 -0.1147
 5120W        W48136   2.672  12.908  25.822  0.1355  0.2200  0.0089
 5121W        W48137   8.956  31.717   9.269 -0.1184 -0.0709 -0.2227
 5122W        W48138  15.492  22.762   2.497 -0.1581  0.4159  0.2853
 5123W        W48139  13.334  25.649   6.971  0.2750 -0.0054 -0.0543
 5124W        W48140  15.103   5.350   4.970 -0.1065  0.1435 -0.2857
 5125W        W48141  13.076  15.299   3.947 -0.0957  0.0848  0.1501
 5126W        W48142  23.441  26.471   9.029 -0.3992 -0.0037  0.3973
 5127W        W48143  29.837  25.426  28.387  0.2220  0.2265  0.1657
 5128W        W48144   0.097   6.247  23.983 -0.0542 -0.3302  0.0272
 5129W        W48145  12.779  15.305   4.870  0.3249  0.0214  0.1185
 5130W        W48146   1.187  21.393   1.142 -0.1618 -0.2499  0.0955
 5131W        W48147  27.184  27.494   7.351  0.0922 -0.1058 -0.0200
 5132W        W48148   0.975  34.583   5.159 -0.0335  0.1675  0.3585
 5133W        W48149  16.972   7.796  21.892 -0.0655  0.0881 -0.1391
 5134W        W48150   3.127  30.630  28.640 -0.1563 -0.2519 -0.2194
 5135W        W48151  21.094  23.491  23.808 -0.1134  0.3229 -0.0398
 5136W        W48152  30.991  16.044   9.194  0.0530 -0.2830  0.0003
 5137W        W48153   8.905  15.696  13.759  0.0856  0.1071 -0.0269
 5138W        W48154  20.422  23.054  24.962  0.1270  0.1659 -0.0679
 5139W        W48155  16.025  18.382   5.485 -0.4990 -0.0955 -0.1398
 5140W        W48156  18.716  31.299   2.656 -0.0410 -0.0970  0.2742
 5141W        W48157  15.467  20.159  26.918  0.1084  0.1357  0.3011
 5142W        W48158  17.541  23.669  24.766  0.2230 -0.1809 -0.1312
 5143W        W48159  13.203  21.364   0.965 -0.1661  0.2630  0.3932
 5144W        W48160  18.085  23.833  20.935 -0.0743 -0.1919 -0.0684
 5145W        W48161  16.188  14.934  21.082  0.0442  0.0405  0.0535
 5146W        W48162  12.484  30.657  23.546 -0.2974  0.3337 -0.0345
 5147W        W48163  17.665  26.854   7.857  0.1844 -0.0775  0.1075
 5148W        W48164  18.442  21.350   5.347 -0.2715  0.1984  0.0032
 5149W        W48165  14.786   1.097   5.802 -0.4449  0.0188 -0.2113
 5150W        W48166  32.845  19.961   6.196  0.1986  0.2531 -0.3232
 5151W        W48167  33.805  11.817   1.940 -0.1063  0.1310  0.0157
 5152W        W48168  30.723  18.869  28.888  0.1168 -0.1150  0.0981
 5153W        W48169   8.352  34.689  10.414 -0.2809  0.1349  0.1235
 5154W        W48170   5.750  13.299  16.816  0.1740 -0.0391 -0.1305
 5155W        W48171  12.249   6.977   7.600 -0.1446  0.2709  0.1470
 5156W        W48172  15.444   1.932   1.285  0.0247 -0.1104 -0.2702
 5157W        W48173  15.555  12.896   0.970 -0.1678  0.0060  0.3248
 5158W        W48174  10.788  19.480   7.188  0.0872 -0.0715  0.2838
 5159W        W48175  13.087  17.350   5.582  0.0226 -0.2123 -0.3368
 5160W        W48176  22.327  29.017   6.001 -0.2077 -0.3896 -0.0158
 5161W        W48177  28.336   6.997   9.162 -0.3065  0.1119  0.0791
 5162W        W48178  18.439  31.034   0.897 -0.1067 -0.1042 -0.0053
 5163W        W48179  27.036  25.183  10.784  0.0710  0.0653  0.1783
 5164W        W48180   1.049  33.454   1.942 -0.2933 -0.2666 -0.2542
 5165W        W48181  17.727  29.310   8.684  0.0211 -0.0668 -0.0364
 5166W        W48182  25.556  22.492   7.119 -0.0844 -0.0261 -0.2724
 5167W        W48183   8.389  20.560  18.198 -0.0575 -0.1032  0.0255
 5168W        W48184  23.785  26.432   5.634 -0.3018 -0.1851 -0.2269
 5169W        W48185  28.644  18.890   7.037  0.1217  0.2344 -0.1812
 5170W        W48186  15.027  32.502   8.619  0.0778 -0.0181  0.1728
 5171W        W48187  29.324  26.718   7.834 -0.0357  0.0496  0.1710
 5172W        W48188  13.215  28.888  25.223  0.0501 -0.0739  0.4090
 5173W        W48189  30.238  21.972  21.928  0.0571  0.0004  0.0715
 5174W        W48190   7.478  26.283  25.898 -0.1451  0.2110 -0.1615
 5175W        W48191  17.259  24.804   4.307  0.1093 -0.1228 -0.2731
 5176W        W48192   4.825  28.942   0.189 -0.2835 -0.2036  0.1989
 5177W        W48193  23.460  32.959  10.516 -0.5219  0.4355  0.1391
 5178W        W48194  14.938  29.256   3.263 -0.1680  0.0185 -0.1206
 5179W        W48195  18.694   1.951   7.455 -0.1285  0.1419  0.1286
 5180W        W48196  17.945  14.702  25.748 -0.0391  0.0694 -0.0420
 5181W        W48197  23.359  19.371   7.986 -0.1808  0.2243 -0.0211
 5182W        W48198   2.666  32.331  27.438  0.1404  0.1442  0.2045
 5183W        W48199  15.757  19.178   4.083  0.2731  0.0967 -0.2131
 5184W        W48200  18.508  33.441  19.799 -0.2953 -0.0196 -0.0189
 5185W        W48201  22.069  30.238   5.443 -0.1700 -0.0278  0.1039
 5186W        W48202  24.893  26.776   5.685  0.0936 -0.1643  0.2442
 5187W        W48203  30.034  26.803   2.323  0.0470 -0.2286 -0.0621
 5188W        W48204   5.600  18.745   2.776  0.0252  0.1256  0.1266
 5189W        W48205   4.173  23.867  22.497 -0.2927 -0.1435  0.1730
 5190W        W48206  14.215  21.731   4.533  0.1692 -0.0776 -0.0423
 5191W        W48207   1.140  28.776   3.326  0.1931  0.2708  0.0635
 5192W        W48208   4.336  23.953  25.618  0.3172 -0.1148 -0.2591
 5193W        W48209  18.485  22.158  28.251  0.0835 -0.1991 -0.3476
 5194W        W48210   6.235  14.255   5.530 -0.1029 -0.0134 -0.1489
 5195W        W48211  11.435  17.576   7.526 -0.1070  0.2708 -0.0343
 5196W        W48212  11.287   5.520   7.095  0.2241 -0.0268 -0.0582
 5197W        W48213  19.355  25.333  21.575 -0.4912 -0.1440 -0.0388
 5198W        W48214  10.911  23.576   0.199  0.3030  0.0259 -0.3460
 5199W        W48215   6.285  13.204  21.090  0.0317  0.1649 -0.1276
 5200W        W48216  22.633   1.491   9.654 -0.3327 -0.2482 -0.4126
 5201W        W48217   4.701  25.579   4.982 -0.2373 -0.1514  0.0363
 5202W        W48218   8.570  24.516   8.755 -0.0833  0.0233  0.2062
 5203W        W48219  16.101  22.098  22.698 -0.2422  0.2930  0.0947
 5204W        W48220  22.835  15.592   1.625 -0.2427  0.2368  0.0892
 5205W        W48221  29.049  15.393  18.818 -0.0415  0.5109 -0.0131
 5206W        W48222  24.310  28.982  24.005 -0.1381  0.1757 -0.1385
 5207W        W48223  18.574  13.254  23.457 -0.1145 -0.3276  0.0907
 5208W        W48224  14.317  18.430   5.229  0.0183  0.0542  0.0609
 5209W        W48225  34.383  18.050   5.821 -0.0355 -0.0190  0.1224
 5210W        W48226  29.007  25.368   6.554 -0.1808 -0.3032 -0.1144
 5211W        W48227  22.519  19.033  28.714  0.2868  0.2954  0.1100
 5212W        W48228  33.690   2.806   4.657  0.0822  0.0915 -0.1007
 5213W        W48229  17.981  29.477   8.302 -0.0247 -0.1645 -0.2354
 5214W        W48230  30.835  23.767  16.875  0.2185 -0.1525 -0.0485
 5215W        W48231  27.151  18.043   6.536  0.3245 -0.1010 -0.2379
 5216W        W48232  30.583  17.283   3.948  0.0427 -0.1387  0.0921
 5217W        W48233  18.611  32.295   1.664  0.0255 -0.0240 -0.1924
 5218W        W48234  15.327  26.480  24.447 -0.1801  0.1183 -0.1049
 5219W        W48235  12.562  17.896   2.571 -0.3300  0.0350 -0.0013
 5220W        W48236  13.415  32.078   9.355  0.0538  0.0733  0.0271
 5221W        W48237  24.726  22.490  10.214 -0.1034  0.3285  0.0752
 5222W        W48238  12.216  16.081   3.369  0.2799  0.0176 -0.5241
 5223W        W48239  11.245   0.641  22.188 -0.0633 -0.0139  0.0267
 5224W        W48240  34.147  29.369   1.431  0.1640  0.0309 -0.0619
 5225W        W48241  31.262  25.797   8.966  0.1472  0.1548  0.0970
 5226W        W48242  24.300  19.705   7.215  0.3699 -0.0654 -0.1253
 5227W        W48243  23.821  30.836  22.754  0.4234 -0.1336  0.2317
 5228W        W48244  30.958  18.026   4.644 -0.2402 -0.2113 -0.1032
 5229W        W48245  16.998  24.814   7.714  0.1476 -0.0190 -0.0012
 5230W        W48246  17.733   7.491   5.105  0.2119 -0.3548 -0.0081
 5231W        W48247  15.745   4.540   6.324  0.2691  0.0532 -0.0506
 5232W        W48248   8.413  22.740  25.281 -0.4143 -0.4514 -0.2898
 5233W        W48249  34.060  26.219   1.082 -0.3492 -0.0582 -0.2090
 5234W        W48250  16.766  16.083  17.504  0.0629  0.2989  0.6800
 5235W        W48251  29.303  23.478  10.172  0.2152  0.4535 -0.1247
 5236W        W48252   6.804  17.497  27.644  0.1468 -0.1411  0.1361
 5237W        W48253  21.850  24.876  26.083  0.0894  0.0858  0.1352
 5238W        W48254   0.324  34.312  16.897  0.4791  0.1345  0.1962
 5239W        W48255  21.708  11.716  28.221  0.1247  0.3110 -0.0005
 5240W        W48256  13.748  32.115   3.946 -0.0541 -0.2601 -0.0248
 5241W        W48257  19.569  18.451  22.467  0.1872  0.0477 -0.0202
 5242W        W48258  15.421  15.821  12.636 -0.0090  0.2247  0.1102
 5243W        W48259  10.345  12.935   6.025 -0.1671 -0.0797 -0.1194
 5244W        W48260  13.134   2.850   9.630  0.0543  0.2574 -0.0132
 5245W        W48261   7.390  20.341   5.692  0.1254 -0.1162 -0.1333
 5246W        W48262  20.092  23.254  26.033  0.2944 -0.2551 -0.4154
 5247W        W48263  23.059  29.548   7.758 -0.0056 -0.1269  0.1731
 5248W        W48264   3.912  19.952   1.400 -0.3096  0.1559  0.1034
 5249W        W48265  18.647  15.512   3.218  0.1588 -0.2420 -0.1765
 5250W        W48266  18.640  12.893  26.817 -0.0035 -0.3416  0.1567
 5251W        W48267  12.127  25.419  26.236 -0.2723  0.0662 -0.3415
 5252W        W48268  20.865  25.088   6.541 -0.1397 -0.1200  0.2578
 5253W        W48269  20.389   3.641   8.503 -0.0577 -0.3273  0.0874
 5254W        W48270   8.903  27.426   1.794  0.4762  0.0448  0.0949
 5255W        W48271   9.472  28.929   9.562  0.2202 -0.1820  0.1284
 5256W        W48272  15.781  31.294   1.740 -0.4800 -0.0152  0.1105
 5257W        W48273  16.443  20.894  13.054  0.1080 -0.3041  0.4020
 5258W        W48274  32.718  13.463   3.647  0.0997 -0.1579  0.3155
 5259W        W48275   9.050   0.093   9.429 -0.0347  0.1245  0.2791
 5260W        W48276  25.196  27.181  26.309 -0.1747  0.3458 -0.4972
 5261W        W48277  10.580  17.724   5.145  0.0114 -0.2138  0.1066
 5262W        W48278  18.026  26.458  22.025 -0.3318 -0.0838 -0.3017
 5263W        W48279  25.187  17.221   7.590  0.1140 -0.2931  0.1972
 5264W        W48280  22.454  27.589  26.993  0.1349 -0.1411  0.2349
 5265W        W48281   5.900   8.143   5.067  0.0229  0.1636 -0.1006
 5266W        W48282  13.788  16.801   3.428  0.0855 -0.0170 -0.0916
 5267W        W48283   9.695  13.613   2.615  0.0994 -0.0796  0.0032
 5268W        W48284  10.710  28.836  27.705  0.0673  0.0521 -0.0004
 5269W        W48285  23.850  29.027   3.934  0.0618 -0.0518  0.4452
 5270W        W48286  19.147  24.819  23.479 -0.2861  0.2251 -0.1804
 5271W        W48287   3.892  23.062   3.605 -0.1584 -0.0572 -0.1194
 5272W        W48288  11.012   1.281   9.458 -0.1083  0.4261  0.0272
 5273W        W48289   6.808  26.599   5.291 -0.2082 -0.1975 -0.0349
 5274W        W48290  10.559  10.255   0.752 -0.2459  0.0682  0.1766
 5275W        W48291   1.182  24.734  28.923 -0.0481  0.0325 -0.2068
 5276W        W48292  19.009  15.182   2.825  0.2539  0.2606 -0.0715
 5277W        W48293  26.503  25.817   7.169  0.2823  0.0082 -0.1045
 5278W        W48294  19.206  18.234  21.465 -0.2716 -0.0260  0.0305
 5279W        W48295  31.455  33.699  23.674  0.0918  0.1644 -0.2505
 5280W        W48296  16.444  34.038   7.178  0.2550 -0.1505  0.2369
 5281W        W48297  15.569  23.081   5.837 -0.0679 -0.1568 -0.2927
 5282W        W48298  13.173  19.068   3.501 -0.0797 -0.0300  0.0429
 5283W        W48299  23.515  19.859  23.707  0.0456  0.2788 -0.0574
 5284W        W48300  14.095  21.283   2.059 -0.2694  0.2840  0.0294
 5285W        W48301  14.632  17.323   5.496 -0.2260 -0.2922 -0.0908
 5286W        W48302  28.302  22.376  10.177  0.0447  0.0131  0.1131
 5287W        W48303  13.184  20.427  22.541 -0.1334 -0.0269 -0.0540
 5288W        W48304  16.116  23.494   3.426  0.1430  0.1783  0.0158
 5289W        W48305  12.794  21.388   6.987 -0.2041 -0.1194 -0.1277
 5290W        W48306  21.345  34.025   4.236  0.2646 -0.0341  0.0235
 5291W        W48307  24.362  19.699   1.352  0.0698 -0.0848  0.0768
 5292W        W48308  11.958  10.077   8.743 -0.0091 -0.2159 -0.0647
 5293W        W48309  16.211  25.789   9.102 -0.3007  0.0204  0.0553
 5294W        W48310  28.867  23.462   4.828 -0.0827  0.1616 -0.0428
 5295W        W48311  16.990  15.352  26.207 -0.1829  0.0310 -0.1986
 5296W        W48312  33.054   5.892  25.534 -0.1276  0.0243 -0.2773
 5297W        W48313  19.144  25.998  28.261  0.1215  0.0599 -0.0172
 5298W        W48314  27.868   4.483   7.813  0.1928 -0.2980 -0.0760
 5299W        W48315  27.488  29.292  25.417  0.3137 -0.2638 -0.1076
 5300W        W48316  14.103  34.231  16.975  0.3598  0.4250 -0.0257
 5301W        W48317   4.851  29.721  26.579  0.0201 -0.0734 -0.0657
 5302W        W48318  20.767  16.221   5.297  0.4937 -0.1280  0.2660
 5303W        W48319  13.475  25.114   8.057 -0.2229  0.2592  0.0947
 5304W        W48320  15.152  10.461   0.699  0.1414  0.0411 -0.0822
 5305W        W48321  14.505  18.296  14.500  0.0749 -0.0440  0.1163
 5306W        W48322  19.209  25.894  26.367  0.0607 -0.1299 -0.0789
 5307W        W48323  28.604  29.067  10.632  0.1464  0.2652 -0.1689
 5308W        W48324  12.174  28.202   9.470  0.1003 -0.0657  0.3133
 5309W        W48325  13.479  27.826   0.974  0.0111  0.1309 -0.0850
 5310W        W48326  19.593  27.222   4.366  0.3403  0.0936 -0.2363
 5311W        W48327   7.194  14.569   8.062 -0.1802 -0.2605  0.3214
 5312W        W48328   0.416  17.082  27.482  0.0415  0.0844  0.0458
 5313W        W48329  29.624  32.054   5.581  0.1246 -0.1056 -0.3297
 5314W        W48330  24.347  17.701   4.023 -0.5109 -0.0918  0.0650
 5315W        W48331   8.601  26.115   4.292 -0.0062 -0.1202  0.4081
 5316W        W48332  20.386  26.560   2.381 -0.4101 -0.0485  0.1182
 5317W        W48333  32.564  20.970   9.031  0.2876  0.0094  0.0043
 5318W        W48334  25.619  29.085   7.387 -0.1476 -0.2464  0.1222
 5319W        W48335  15.532  11.106   6.761 -0.0156 -0.1450 -0.0003
 5320W        W48336   8.881  28.865  28.259  0.0065  0.0727 -0.1341
 5321W        W48337  18.090  21.595   8.072 -0.1378  0.0563 -0.1479
 5322W        W48338  21.278  29.943  26.920 -0.0677  0.0547  0.2089
 5323W        W48339  22.888  18.625   5.714  0.0372 -0.0574  0.0633
 5324W        W48340   9.947  26.274  25.233 -0.1579  0.0257 -0.0512
 5325W        W48341  21.155  26.151  25.997  0.0321  0.0590  0.0383
 5326W        W48342  33.559  34.030   6.174 -0.0205 -0.2471  0.1265
 5327W        W48343  15.458   6.641   2.919  0.0195 -0.0127 -0.2425
 5328W        W48344   8.250  34.466  19.236  0.0787  0.1733 -0.1893
 5329W        W48345  11.932  16.320  26.423  0.1179 -0.1944  0.1061
 5330W        W48346   9.861  17.625  22.745  0.0157 -0.0641 -0.1148
 5331W        W48347  12.517  20.673   3.434 -0.0594  0.0148  0.2403
 5332W        W48348  11.248  32.745  29.076 -0.0330  0.2350  0.0910
 5333W        W48349  28.460  17.035   0.960  0.0083 -0.0537  0.1113
 5334W        W48350  18.374  26.846   1.511  0.0020 -0.1391 -0.1380
 5335W        W48351  10.670  22.948   5.802  0.0067  0.0657 -0.0137
 5336W        W48352  30.797   4.991   5.448 -0.1169  0.1511 -0.2183
 5337W        W48353  21.574  21.779  23.243  0.0420 -0.3124  0.0209
 5338W        W48354   7.214  10.341   3.972  0.1071  0.0193  0.0713
 5339W        W48355  22.224  31.753  11.133  0.4156  0.3264 -0.0374
 5340W        W48356  18.566  23.978   0.287  0.1442  0.2655 -0.1401
 5341W        W48357  25.157  24.486  20.646 -0.0146  0.1039 -0.1307
 5342W        W48358  34.693  24.662   4.814  0.0336 -0.2560  0.0630
 5343W        W48359  20.214  20.236   5.075  0.0092  0.2300 -0.0278
 5344W        W48360   7.996   8.315  22.950 -0.0523  0.1742  0.0076
 5345W        W48361  10.386  17.920   0.723  0.1252 -0.2977  0.3985
 5346W        W48362  22.883  22.907   5.060 -0.0316 -0.2964  0.2388
 5347W        W48363  31.887   7.952  23.014 -0.2678  0.1600  0.2108
 5348W        W48364  13.267  30.900  24.080 -0.1069 -0.1241  0.1424
 5349W        W48365  18.676  20.568   4.986  0.3063 -0.0550  0.1279
 5350W        W48366  27.124  13.040   5.997 -0.1195  0.2720  0.2507
 5351W        W48367  16.788  26.375   3.678  0.1246 -0.2836  0.2096
 5352W        W48368  22.891  29.130  28.141  0.1060 -0.0353  0.1528
 5353W        W48369  13.233  23.112  21.740 -0.3692 -0.1329 -0.3126
 5354W        W48370  22.871   8.476   5.715  0.1219 -0.0378  0.0118
 5355W        W48371  19.305  30.945   2.079 -0.0892 -0.0704  0.2144
 5356W        W48372  13.363  23.333   5.620 -0.0132 -0.2506 -0.1219
 5357W        W48373  10.942   0.782   2.514  0.0303  0.1105 -0.0523
 5358W        W48374  23.467  28.770  27.528 -0.0419  0.2014  0.2669
 5359W        W48375   7.028  19.382   0.683  0.3641  0.2467  0.4324
 5360W        W48376  15.004  22.677   2.619  0.1101 -0.0507 -0.3540
 5361W        W48377  15.320  22.712  23.991  0.1656 -0.1236  0.2264
 5362W        W48378   9.678  19.280   3.476 -0.0629  0.1025 -0.1125
 5363W        W48379  17.420  24.100  14.472 -0.1678 -0.1298  0.1933
 5364W        W48380  18.453  20.523  25.665  0.0395  0.1385  0.0627
 5365W        W48381   5.105  17.198  24.433  0.3121  0.2937  0.0468
 5366W        W48382  11.958  21.595   5.637 -0.3193  0.0443 -0.2129
 5367W        W48383  12.271  29.706   3.138  0.4521  0.0772 -0.2407
 5368W        W48384   9.133  18.902   4.116  0.1894  0.2166  0.0185
 5369W        W48385  12.337  28.534   8.190 -0.1191 -0.0255  0.1591
 5370W        W48386  32.368  25.756   7.979  0.1654 -0.0597  0.0939
 5371W        W48387   9.607  19.001   5.700 -0.0580  0.0918  0.1223
 5372W        W48388  12.972  25.358   1.577  0.0888  0.3988  0.0293
 5373W        W48389  30.133  30.310  10.093 -0.0195  0.0963 -0.2484
 5374W        W48390  19.244  30.632   0.302 -0.1779 -0.3864  0.0892
 5375W        W48391  23.156  16.135   5.601  0.0020  0.0134 -0.2314
 5376W        W48392   2.827   1.304  26.468  0.3779 -0.1145  0.0971
 5377W        W48393  20.414  29.642  27.243 -0.3344 -0.5515  0.0024
 5378W        W48394  17.241  12.570  25.386 -0.0287 -0.2976  0.2492
 5379W        W48395  24.311  16.728   8.843  0.0480 -0.0360 -0.1702
 5380W        W48396  12.245  27.150   2.091  0.2086 -0.1692 -0.2285
 5381W        W48397  28.331  17.745   9.036 -0.2373 -0.1239 -0.1670
 5382W        W48398  25.619  31.995  10.664 -0.4844 -0.1700  0.1963
 5383W        W48399   7.269  25.984   8.431 -0.4153 -0.3044  0.2114
 5384W        W48400  11.260  29.252   4.511 -0.0420  0.3453  0.1524
 5385W        W48401  10.980  26.772   9.530  0.2304  0.3043  0.0019
 5386W        W48402  13.212  24.180  26.747  0.2741 -0.0249  0.0045
 5387W        W48403  20.259  24.067   7.068  0.1236  0.3733 -0.1573
 5388W        W48404  17.796  26.692  21.635  0.3889  0.1508 -0.1560
 5389W        W48405  20.566  17.011   2.669  0.2025  0.1241 -0.1465
 5390W        W48406  19.335  26.486  21.389 -0.0401  0.1699  0.1585
 5391W        W48407  18.457  18.102   8.798  0.2579 -0.2602  0.4383
 5392W        W48408  16.768  28.028   5.377 -0.4423 -0.0577 -0.1094
 5393W        W48409  32.501  27.566   7.274  0.0087  0.1225 -0.2178
 5394W        W48410  13.636  24.126   8.101 -0.0324 -0.1629  0.1885
 5395W        W48411  22.074  23.895  28.538  0.1193 -0.1574 -0.0881
 5396W        W48412  28.830  28.602   6.168  0.2133  0.2559 -0.1344
 5397W        W48413  26.442  30.910   8.259  0.0955 -0.0835  0.2408
 5398W        W48414  24.534  29.699   8.686  0.2417 -0.0942  0.2194
 5399W        W48415  10.061   2.826   6.877 -0.0787 -0.2358 -0.0169
 5400W        W48416  25.077  28.490  10.588  0.0362  0.3103  0.1348
 5401W        W48417  18.596  10.547  23.663 -0.1812  0.0945 -0.2908
 5402W        W48418  15.920  30.106  26.833 -0.0437  0.0860 -0.0527
 5403W        W48419   2.745  32.594   5.927 -0.1533  0.0391 -0.0429
 5404W        W48420  20.367  26.791   3.467 -0.1182 -0.3975 -0.1153
 5405W        W48421  15.553  20.504   3.909 -0.2696  0.0233  0.1314
 5406W        W48422  14.449  29.101   6.297  0.3323 -0.4846  0.1031
 5407W        W48423  32.329  34.181  26.890 -0.2821 -0.1133  0.3656
 5408W        W48424  12.905  22.609   4.152  0.0830 -0.2209 -0.0815
 5409W        W48425   9.909   3.320   8.193 -0.1922 -0.0101  0.0529
 5410W        W48426  10.206  17.916  27.599  0.0468  0.1103 -0.0533
 5411W        W48427   6.866   7.145   6.273  0.0069 -0.0633  0.3246
 5412W        W48428  30.467  34.571   8.060 -0.3997 -0.3769  0.0990
 5413W        W48429   5.847  24.730   9.790  0.0275 -0.3695  0.0722
 5414W        W48430   0.584   0.180   3.160 -0.0653  0.0725 -0.1134
 5415W        W48431  11.822  21.135  27.125 -0.2237 -0.2049  0.0753
 5416W        W48432  15.573  26.020   1.510 -0.0741 -0.1437  0.3990
 5417W        W48433  18.421  21.863  20.882  0.2013 -0.0839  0.1007
 5418W        W48434  33.421  16.131  25.428 -0.2129  0.5141 -0.1172
 5419W        W48435  22.712  22.357   2.797  0.1179 -0.1321  0.0719
 5420W        W48436  13.910  13.539   4.789  0.2177 -0.0545 -0.0122
 5421W        W48437  15.459  16.944   2.537  0.0508 -0.0191  0.1803
 5422W        W48438   0.866  20.755  25.423 -0.1183 -0.3387  0.1015
 5423W        W48439  13.613  14.305  22.227  0.1675 -0.0448  0.0699
 5424W        W48440   0.532  31.929  10.277 -0.0170  0.1160 -0.0582
 5425W        W48441  21.475   0.862   6.614  0.0097  0.0917  0.1637
 5426W        W48442  28.329  25.588   5.186 -0.1481  0.1166  0.0275
 5427W        W48443  13.287  25.804   2.443 -0.2086 -0.4277 -0.1341
 5428W        W48444   0.688  26.627   6.006  0.3611 -0.2256  0.0602
 5429W        W48445  23.191  24.322  27.837 -0.2677 -0.1793 -0.1721
 5430W        W48446  11.997  19.983   3.752  0.0869 -0.2281 -0.1402
 5431W        W48447  21.969  14.250   4.872 -0.1467  0.0154 -0.0289
 5432W        W48448   9.620  21.371  26.699 -0.0730  0.0516  0.2107
 5433W        W48449  29.194  28.738  16.639  0.0896 -0.1485 -0.0847
 5434W        W48450  22.236  19.222   9.090 -0.2030  0.2279 -0.3419
 5435W        W48451  13.683  27.667   7.867  0.1014 -0.0728 -0.3436
 5436W        W48452  22.686  17.649   2.495 -0.3225  0.1672 -0.1379
 5437W        W48453   3.308  14.348  26.149 -0.0197 -0.1055  0.0108
 5438W        W48454  14.664  14.521   6.682 -0.1538 -0.0686  0.1598
 5439W        W48455   7.091  31.243   9.308 -0.0044  0.0157  0.2727
 5440W        W48456  12.887  28.836   5.134 -0.0423 -0.2911 -0.1074
 5441W        W48457  21.811  26.119   3.792  0.0851 -0.2233 -0.1456
 5442W        W48458  12.982  26.777   5.230 -0.1456  0.1651 -0.1150
 5443W        W48459  17.347  19.767   3.022 -0.1026 -0.2981 -0.1513
 5444W        W48460  15.631  20.799   3.523  0.1729  0.0586  0.0132
 5445W        W48461  17.503  29.756  10.448  0.4969  0.0233  0.3138
 5446W        W48462  13.765  31.029  23.991 -0.0324  0.1297 -0.0365
 5447W        W48463  23.342  16.014   5.082  0.1313 -0.0383 -0.0042
 5448W        W48464  19.876  21.566   1.252  0.1444 -0.0383  0.1666
 5449W        W48465  23.164  21.943  26.299 -0.0819  0.0268  0.2796
 5450W        W48466  29.524  17.297  25.564  0.2922  0.1773 -0.0277
 5451W        W48467  14.428  17.218  28.097  0.0258  0.2166 -0.3782
 5452W        W48468  15.147  30.203   3.285  0.1209 -0.3816 -0.2720
 5453W        W48469  30.023  15.863   8.730 -0.1953 -0.3020  0.0614
 5454W        W48470  25.648  32.346   8.676  0.2773 -0.2538 -0.0755
 5455W        W48471  25.517  20.274   9.784  0.0649 -0.1790  0.2207
 5456W        W48472  14.222  18.085   5.685 -0.1055 -0.0574 -0.3241
 5457W        W48473  22.976  33.450  11.246 -0.1847  0.0951 -0.3695
 5458W        W48474  16.234  19.425   4.289  0.0036  0.0881  0.2884
 5459W        W48475  12.442  14.431   3.023  0.0855  0.0427 -0.0127
 5460W        W48476  19.070  29.894   4.360 -0.1727  0.1279  0.0359
 5461W        W48477  26.095  12.265   6.122 -0.2863  0.0395  0.2015
 5462W        W48478  15.000  23.097   3.484 -0.0707  0.0138  0.0149
 5463W        W48479  10.011  22.855  29.168 -0.1335  0.2555  0.1408
 5464W        W48480  14.141  18.021   5.073  0.3532  0.2198  0.1689
 5465W        W48481  16.206  19.698  28.471 -0.2258 -0.3138 -0.0118
 5466W        W48482   5.397  17.933   0.897  0.1593  0.1582  0.2295
 5467W        W48483  21.799  11.022   7.483 -0.0157  0.0379 -0.1208
 5468W        W48484   1.877  11.518   2.112  0.2534  0.0648 -0.0313
 5469W        W48485  12.367  26.637   7.613 -0.1906 -0.0015 -0.1290
 5470W        W48486  21.897  18.937   7.324 -0.3212 -0.1203 -0.1109
 5471W        W48487  32.818  16.587   9.973 -0.0099  0.0124 -0.0138
 5472W        W48488  22.593  28.156  16.688  0.3735 -0.0282  0.2651
 5473W        W48489  16.266  19.177   8.694 -0.1868 -0.0417  0.0243
 5474W        W48490   2.002  29.005   3.087 -0.0270  0.1920  0.0918
 5475W        W48491  25.302  10.603   5.062 -0.0000  0.0156  0.0636
 5476W        W48492  17.483  13.064   6.328 -0.0864 -0.0206  0.2984
 5477W        W48493  10.757  23.331   2.041 -0.0979 -0.1899 -0.0864
 5478W        W48494   0.930  34.688   2.892 -0.0237 -0.1617 -0.1201
 5479W        W48495   0.195   1.531   8.548 -0.1267 -0.0293  0.2191
 5480W        W48496  31.324  31.963   7.655 -0.2165  0.0702 -0.2210
 5481W        W48497  19.232  28.564   0.466  0.3880  0.1487 -0.1758
 5482W        W48498  16.912  17.129  22.673  0.3699  0.0276 -0.1673
 5483W        W48499  29.693   8.414   2.696  0.0601 -0.0197  0.1137
 5484W        W48500  28.179  21.827   7.312  0.0757  0.0827 -0.3699
 5485W        W48501  11.577  11.974  27.141  0.0104 -0.0619 -0.0790
 5486W        W48502  13.296  11.125   2.167  0.3385 -0.0653  0.2640
 5487W        W48503  11.273  25.568  18.337  0.3713  0.1503  0.2050
 5488W        W48504  33.315  29.108  22.178  0.0874  0.0867 -0.0967
 5489W        W48505   0.612  18.930  24.427  0.2620  0.0201  0.0460
 5490W        W48506  31.803  18.863   3.847  0.2108  0.4200  0.0357
 5491W        W48507  17.941   2.318  25.333 -0.0517  0.1191 -0.1129
 5492W        W48508   1.454  18.811   3.188  0.2475 -0.3759  0.1617
 5493W        W48509  23.103  23.583  23.420  0.0453 -0.0586  0.2651
 5494W        W48510  13.887  32.443  25.176  0.2895  0.2864  0.2103
 5495W        W48511  19.374  24.084   5.385 -0.0099  0.0585  0.0956
 5496W        W48512  33.002  34.370  17.447  0.2115 -0.0324 -0.1880
 5497W        W48513   3.912  24.153   1.056 -0.2703  0.0001  0.0754
 5498W        W48514  27.154  13.445   9.532 -0.1339 -0.0170 -0.0561
 5499W        W48515  33.228  25.924   4.449  0.1600  0.0264 -0.1596
 5500W        W48516  19.804  34.074   3.723  0.4611 -0.2278  0.0274
 5501W        W48517  26.348  17.683   0.689  0.0727 -0.2206  0.0806
 5502W        W48518  18.112  16.234   1.719 -0.0313 -0.0134 -0.0725
 5503W        W48519  28.506  33.408   5.294 -0.2976 -0.2572 -0.1054
 5504W        W48520   9.900  33.110  28.399 -0.1948 -0.0405 -0.5315
 5505W        W48521  23.858  21.664   6.714 -0.2570 -0.2263  0.0528
 5506W        W48522  12.184  21.749   6.433  0.0935  0.3978 -0.1972
 5507W        W48523  21.577  12.043   7.635 -0.0092  0.1276 -0.1267
 5508W        W48524  24.025  26.730  29.087 -0.0794 -0.0854  0.0077
 5509W        W48525  15.274  11.594   0.452  0.0505  0.2798 -0.0250
 5510W        W48526  12.976  25.921   8.025 -0.4495 -0.1989  0.1257
 5511W        W48527  30.074  14.938   1.713 -0.0612 -0.0202  0.0553
 5512W        W48528  16.244  18.921  21.663  0.0258  0.3150  0.0948
 5513W        W48529   9.172  32.029   7.825  0.0222 -0.1586  0.0610
 5514W        W48530  15.890  15.227   3.500  0.0465 -0.0466 -0.0401
 5515W        W48531  11.170   0.599   9.001 -0.1142  0.0951  0.0865
 5516W        W48532   6.650  29.434   3.597  0.3522 -0.0192  0.1345
 5517W        W48533  17.424  27.740   6.433  0.0319 -0.2342 -0.0310
 5518W        W48534  12.741  28.316   1.722 -0.0011  0.0673  0.0184
 5519W        W48535  31.116  10.974   7.106  0.0392 -0.0062  0.3623
 5520W        W48536  22.127  11.867   6.000  0.1674 -0.0949 -0.0999
 5521W        W48537  14.859  16.473  27.827 -0.1346  0.2021  0.0707
 5522W        W48538  29.147  21.544   1.294 -0.0073  0.1631 -0.2632
 5523W        W48539  26.794  14.183  28.959 -0.0091 -0.1138 -0.1863
 5524W        W48540  18.636  17.580   4.554 -0.3167 -0.0054 -0.2074
 5525W        W48541  23.241  23.037  22.499 -0.3560  0.0015 -0.1113
 5526W        W48542  31.775  33.102  28.033 -0.3610 -0.2314  0.2974
 5527W        W48543  27.470  22.448   0.405  0.2728 -0.0944  0.0729
 5528W        W48544  13.149  25.489  27.573 -0.0944  0.1526 -0.0839
 5529W        W48545  12.640  25.470  24.373 -0.2417  0.2371 -0.2272
 5530W        W48546   3.165  18.179  27.808 -0.2949  0.2917 -0.0945
 5531W        W48547  14.230  21.934   3.823 -0.2115 -0.0416 -0.0796
 5532W        W48548  24.252  11.438   6.742  0.1192 -0.1384  0.0289
 5533W        W48549   5.247  24.219   8.587 -0.1194  0.1778  0.1831
 5534W        W48550  26.605  17.348   6.648 -0.0348 -0.0691 -0.1405
 5535W        W48551   8.413  20.348  22.000 -0.2606 -0.0095  0.0899
 5536W        W48552   9.638  27.824  26.192 -0.2643  0.0448  0.2737
 5537W        W48553  11.637  16.420  18.631 -0.0010  0.0032 -0.1465
 5538W        W48554   5.188   8.501   6.874 -0.1829 -0.1784 -0.0269
 5539W        W48555  16.005   1.382   4.296 -0.2770  0.1715 -0.0541
 5540W        W48556  14.421   1.045   8.151  0.1360  0.0565  0.1766
 5541W        W48557  15.812  14.874   1.420 -0.1164  0.0704 -0.0976
 5542W        W48558   8.586  33.381   5.636  0.0139 -0.1554 -0.1555
 5543W        W48559  16.725  31.041  10.967 -0.0523 -0.0304 -0.0062
 5544W        W48560   6.613  10.700  24.497  0.0976 -0.0751  0.0865
 5545W        W48561  22.430  34.679  25.278 -0.0144 -0.1809 -0.0980
 5546W        W48562  17.925  32.298   5.527  0.0309 -0.0963 -0.1857
 5547W        W48563   2.097  15.746   6.004 -0.1768  0.0936 -0.0794
 5548W        W48564  29.778   7.517   6.278  0.1816 -0.1841 -0.0337
 5549W        W48565  16.381   7.647   2.086  0.2296  0.0056 -0.1136
 5550W        W48566   5.849   4.443   2.558  0.2279  0.0984 -0.3718
 5551W        W48567  17.911   9.329   5.232  0.1680 -0.0065  0.6068
 5552W        W48568  31.045  25.063   7.156  0.1089 -0.1668 -0.1293
 5553W        W48569  16.052  21.682   2.947  0.2291  0.1634 -0.0402
 5554W        W48570   6.384  29.624  16.868  0.5059 -0.2736 -0.0879
 5555W        W48571  21.506  23.158   6.351  0.0746  0.0652  0.0512
 5556W        W48572  12.299  18.691   3.895  0.1809  0.3564  0.1684
 5557W        W48573   8.327  25.973   0.543 -0.2667 -0.1687 -0.0104
 5558W        W48574  27.063   0.953  26.767  0.3729 -0.0319  0.3106
 5559W        W48575   3.205  17.247   8.150  0.1889 -0.3115 -0.3688
 5560W        W48576  13.713  18.193  24.666 -0.0928 -0.0482 -0.0709
 5561W        W48577  19.478  27.784  27.712 -0.0860 -0.0207 -0.0595
 5562W        W48578  18.876   6.075  27.786  0.1721  0.1439  0.0565
 5563W        W48579  12.388  15.386   5.571  0.0034 -0.3944  0.1567
 5564W        W48580  32.550  20.027   0.336  0.0896 -0.0321  0.1271
 5565W        W48581   7.976  21.000   8.506 -0.2918 -0.0025  0.0177
 5566W        W48582  12.781  34.318   5.702 -0.2321 -0.1991 -0.0346
 5567W        W48583  23.288   4.435  10.585  0.5308  0.1033  0.0777
 5568W        W48584   4.008  16.074  26.383 -0.2315  0.1595  0.0229
 5569W        W48585  23.760  27.557  10.779 -0.0818  0.0361  0.1292
 5570W        W48586  13.661  23.793  22.341  0.0523  0.0724 -0.3555
 5571W        W48587  10.370  13.604   4.062 -0.2817  0.1136  0.0109
 5572W        W48588   4.978  27.262   1.399  0.0626 -0.1839  0.0792
 5573W        W48589  32.593  15.065   0.647 -0.0802 -0.0328  0.1626
 5574W        W48590  19.965  25.626   0.292  0.0128  0.0112 -0.0930
 5575W        W48591  24.941  20.926   2.108 -0.1238  0.0463  0.1026
 5576W        W48592  14.552  16.733  24.221  0.0001  0.2056 -0.0935
 5577W        W48593  28.412  26.690  22.470  0.0160  0.0318  0.3634
 5578W        W48594  13.960  25.618   5.860  0.0745  0.2242 -0.0267
 5579W        W48595  15.490  16.734   1.499  0.0179 -0.1214 -0.2591
 5580W        W48596  14.760  30.184   6.265  0.0434  0.1172 -0.1134
 5581W        W48597  24.416  28.181   5.974 -0.0752  0.5015  0.0093
 5582W        W48598  34.305  28.223   5.273 -0.1814  0.1118 -0.1768
 5583W        W48599   0.757  31.914   9.774  0.1022  0.0686 -0.0923
 5584W        W48600  18.973  20.730   8.533  0.5634 -0.0807 -0.2637
 5585W        W48601   2.470  28.059  20.805  0.0834 -0.2070 -0.1183
 5586W        W48602   7.585  22.419  21.654  0.2470 -0.1422 -0.0904
 5587W        W48603   1.046  28.309   9.710 -0.0099 -0.1582 -0.3550
 5588W        W48604  18.859  27.615   3.317 -0.2870 -0.1711  0.0440
 5589W        W48605  17.422  24.985   4.778 -0.0967 -0.1287  0.3117
 5590W        W48606   7.282  16.722   2.036  0.1779 -0.0309  0.0159
 5591W        W48607   1.033   9.919   7.548  0.1276 -0.1600 -0.0471
 5592W        W48608  18.916  16.165  22.918 -0.1388 -0.1622 -0.0589
 5593W        W48609  22.173  16.994  24.490  0.0525 -0.0198 -0.1105
 5594W        W48610  14.818  22.049  21.384  0.0959  0.3121  0.1575
 5595W        W48611  21.438  17.221   7.864  0.2558  0.0659  0.3524
 5596W        W48612  25.430  25.720  18.144 -0.0436  0.0297 -0.0594
 5597W        W48613  23.004  31.067  10.001 -0.0473 -0.1536 -0.0997
 5598W        W48614  16.684  26.319   5.811 -0.2822  0.1170 -0.0807
 5599W        W48615  19.111   5.487  25.917 -0.0320 -0.0819  0.0878
 5600W        W48616  24.396  13.321   6.540 -0.2576  0.3090  0.1421
 5601W        W48617   7.976  24.761  22.142 -0.5069  0.1440  0.2447
 5602W        W48618  16.023  19.807  23.207 -0.0492 -0.2496  0.1169
 5603W        W48619  17.891  24.064   8.659  0.0696 -0.3338  0.0012
 5604W        W48620   3.618   7.338  27.184  0.2478  0.0998  0.2549
 5605W        W48621  11.006  16.598  25.248 -0.1733 -0.0736  0.2283
 5606W        W48622  15.056  27.154   5.670 -0.0549  0.1186  0.0498
 5607W        W48623  21.391  25.742   3.841 -0.1488 -0.0806  0.4791
 5608W        W48624  30.752   5.100   9.881  0.0649  0.1920 -0.4689
 5609W        W48625  24.636  30.099   5.976  0.0961  0.0010 -0.4985
 5610W        W48626  20.917  20.742   2.740  0.1290 -0.0987  0.0674
 5611W        W48627  23.900  23.179  25.989  0.0748  0.3768 -0.1109
 5612W        W48628   5.668  21.655   4.502  0.0285 -0.0060 -0.0448
 5613W        W48629  20.364  29.984  17.844  0.2640 -0.2353  0.2695
 5614W        W48630  11.250  26.126   3.690 -0.0897  0.0063 -0.3541
 5615W        W48631   7.046  33.359   4.308  0.1266  0.2079  0.0069
 5616W        W48632  14.477  12.352  19.803 -0.1087  0.2078 -0.1845
 5617W        W48633  32.366  24.042  10.362 -0.1623  0.0890  0.0312
 5618W        W48634   4.886  23.258  25.405 -0.0638  0.2581 -0.0532
 5619W        W48635  16.199  18.014  28.513  0.0802 -0.1775 -0.4580
 5620W        W48636  17.899  18.006   7.645 -0.1865  0.0081  0.3450
 5621W        W48637   6.605  21.500   0.018 -0.5083  0.1242  0.0972
 5622W        W48638  18.554  19.935  25.934 -0.1468  0.1887  0.2318
 5623W        W48639   4.597  19.462   2.006  0.1449 -0.5726  0.2408
 5624W        W48640  17.671  25.226  28.030 -0.1177  0.0219  0.0478
 5625W        W48641  11.114  13.062   2.372  0.1884 -0.1019  0.0509
 5626W        W48642  23.325  20.947   8.889 -0.1634 -0.0822  0.1179
 5627W        W48643  11.646  28.356  25.934 -0.1217  0.0039 -0.1719
 5628W        W48644  12.339  14.314   0.865  0.2229 -0.2416  0.1819
 5629W        W48645   0.514   1.251  25.075 -0.1337 -0.1075 -0.1845
 5630W        W48646  28.590   1.966  20.366  0.0485  0.0704 -0.0916
 5631W        W48647  14.037  30.621  24.330  0.2409  0.0625 -0.2151
 5632W        W48648   2.206  20.415   6.952 -0.0331 -0.0699  0.1305
 5633W        W48649  17.875  19.837   6.400 -0.0951 -0.1890 -0.0645
 5634W        W48650   9.012  31.324  27.255  0.0163 -0.1805 -0.0236
 5635W        W48651  11.994  25.612   4.781 -0.4032  0.1309  0.1694
 5636W        W48652   4.018  31.902  25.305  0.1043 -0.0902 -0.1505
 5637W        W48653  19.439  11.562  20.905 -0.1849  0.2393 -0.2210
 5638W        W48654  25.368  30.974   8.197 -0.0263  0.1346 -0.0014
 5639W        W48655  32.722  25.287   6.967 -0.3139  0.2627  0.1760
 5640W        W48656  20.235  23.490  16.912  0.0821 -0.2912  0.0163
 5641W        W48657  17.738  21.440   7.609  0.0568  0.2564  0.1551
 5642W        W48658   4.604  28.897   9.107 -0.1146 -0.1453  0.0872
 5643W        W48659  15.409  23.490   7.255 -0.3968 -0.0312  0.1476
 5644W        W48660  15.362  31.784   8.572  0.0639 -0.0486 -0.2771
 5645W        W48661  26.391  34.565  27.565  0.0357 -0.3299 -0.3002
 5646W        W48662  21.373   1.302   0.311 -0.0278 -0.1763  0.0144
 5647W        W48663  13.471   5.183   7.321  0.0587  0.1044 -0.1212
 5648W        W48664  19.380  20.681   6.009 -0.0186 -0.0452 -0.0482
 5649W        W48665   8.634  29.582   2.134  0.2368  0.0937  0.1327
 5650W        W48666   8.929  33.092   1.021  0.0115 -0.3994  0.0930
 5651W        W48667   4.602   6.100   3.192 -0.0307  0.0353  0.0952
 5652W        W48668  20.640  17.512  28.966 -0.3659  0.1529  0.1815
 5653W        W48669  17.856  25.760   0.481 -0.0684 -0.2226  0.0415
 5654W        W48670  17.781  15.789  20.011  0.1144 -0.3312 -0.0339
 5655W        W48671  30.884  30.573   6.787 -0.1237 -0.0607  0.2357
 5656W        W48672  20.504   4.479   6.680  0.3389  0.0799 -0.2030
 5657W        W48673  10.877  15.547   7.784 -0.0895  0.1604 -0.0832
 5658W        W48674  34.507  19.031  19.210  0.3141  0.1776  0.2003
 5659W        W48675  15.493  31.093  25.161  0.0883  0.0036 -0.2917
 5660W        W48676  19.631  25.026   8.869  0.0578  0.1560 -0.4950
 5661W        W48677  24.309   6.239  25.011 -0.1856 -0.3346  0.0732
 5662W        W48678   0.695  29.699   6.521  0.1931 -0.3246 -0.3498
 5663W        W48679  19.803  24.285   5.119 -0.3081 -0.0706 -0.0613
 5664W        W48680  18.799  30.775   1.823 -0.1901 -0.3123 -0.1523
 5665W        W48681   9.172  25.157   5.056  0.0018 -0.0604 -0.1597
 5666W        W48682   9.805  17.023   7.714 -0.0322  0.0313 -0.4597
 5667W        W48683  13.671  22.729  17.515 -0.2490  0.0234  0.0170
 5668W        W48684  12.644  15.800   0.821 -0.1584 -0.0227  0.1038
 5669W        W48685  13.995  14.673   2.609 -0.4081  0.1576  0.3370
 5670W        W48686   5.929   1.985   8.937 -0.0015 -0.2599  0.0590
 5671W        W48687  10.005  21.777  19.232 -0.1853 -0.1189 -0.1728
 5672W        W48688  15.205  22.380  28.230 -0.0085  0.0124 -0.2564
 5673W        W48689  17.181  30.263  20.188 -0.3631  0.1667  0.0126
 5674W        W48690   6.009   8.194   1.497  0.2349  0.0932  0.0565
 5675W        W48691  10.954  17.381  27.065  0.0042  0.4404 -0.3781
 5676W        W48692  11.827  26.713  15.387 -0.0085  0.0475 -0.0369
 5677W        W48693  25.123  25.117  27.698 -0.0862 -0.1544  0.3076
 5678W        W48694  15.151  12.135   4.984  0.5109  0.1814  0.1812
 5679W        W48695  19.700  21.651  28.768 -0.1428  0.2268  0.2158
 5680W        W48696  15.212   3.343   2.106  0.4327  0.0986 -0.0460
 5681W        W48697  11.827  19.188  22.454 -0.1082  0.2326 -0.0136
 5682W        W48698  16.858  14.502   7.380  0.2081  0.0577 -0.0400
 5683W        W48699  29.582  30.912  17.840  0.0557  0.2328  0.0131
 5684W        W48700  26.188  25.945  17.660  0.1915 -0.0569  0.2809
 5685W        W48701  12.823   8.735   1.013  0.2574  0.1262  0.2789
 5686W        W48702  11.587  24.444  17.820 -0.0243 -0.0174  0.4019
 5687W        W48703   2.622  21.934   2.257  0.3138  0.1791  0.1137
 5688W        W48704   9.588  27.565  28.096  0.0094 -0.1937 -0.1139
 5689W        W48705  19.030  16.493  19.136  0.2436 -0.7113 -0.0339
 5690W        W48706  11.010  30.096   1.188  0.0824 -0.0706 -0.2138
 5691W        W48707  25.369  26.957   7.997 -0.0582 -0.2294  0.0979
 5692W        W48708  20.710  29.339  10.129 -0.1811  0.0265 -0.0821
 5693W        W48709   6.302  33.924   4.749  0.1242 -0.0899 -0.0818
 5694W        W48710  18.571  32.532   0.036  0.2776 -0.4628 -0.0366
 5695W        W48711  12.536  20.525  24.657 -0.3986  0.1863 -0.1230
 5696W        W48712  13.494  24.056   3.908 -0.0006 -0.1038 -0.5052
 5697W        W48713  21.703  33.082   9.989  0.1872 -0.2683  0.0122
 5698W        W48714  22.135  25.809  23.668  0.2439 -0.2468 -0.1989
 5699W        W48715  19.274  26.077  27.323 -0.0697  0.2329  0.1086
 5700W        W48716  16.632   1.569  28.028  0.1961 -0.0445  0.6156
 5701W        W48717   5.180  10.919   8.845  0.1267 -0.4393  0.1052
 5702W        W48718  10.141  12.996  27.449 -0.0832  0.0590  0.1307
 5703W        W48719  11.451  26.293   7.417  0.1009 -0.0303 -0.1005
 5704W        W48720  17.192  21.424  12.640  0.3231  0.1127 -0.1321
 5705W        W48721  21.955  21.747  23.635 -0.1430  0.1342  0.4407
 5706W        W48722  16.568  31.041   4.553 -0.0660 -0.0460 -0.0022
 5707W        W48723  12.928  17.482   0.292 -0.2324  0.1170  0.1270
 5708W        W48724   1.818   9.576  21.666 -0.1712 -0.0938 -0.0351
 5709W        W48725  29.688   0.561  27.077 -0.0796 -0.1002 -0.1346
 5710W        W48726   3.708   6.854   1.000  0.2356  0.2440  0.1193
 5711W        W48727  18.247  28.164   5.979  0.0671  0.3907  0.0863
 5712W        W48728  19.467  23.979   2.720  0.0263  0.0118  0.2743
 5713W        W48729   1.279  14.943  29.031  0.0138 -0.2306 -0.3409
 5714W        W48730  26.060  15.311  20.342  0.1138  0.2259  0.0013
 5715W        W48731  13.570   2.906   6.160  0.2659 -0.1686 -0.4134
 5716W        W48732  15.724  28.236  27.755  0.3220 -0.1275 -0.0000
 5717W        W48733  21.057  21.613  27.117  0.3953  0.2354 -0.1135
 5718W        W48734  27.794   6.765  28.638 -0.1336 -0.2562 -0.2115
 5719W        W48735  20.535  34.217   7.429 -0.0826 -0.0147  0.4073
 5720W        W48736  13.784  24.015  25.742  0.0181 -0.0334  0.0566
 5721W        W48737  14.438  22.631  28.234 -0.0955  0.1716 -0.0682
 5722W        W48738   2.150  29.660  29.048  0.0073 -0.1652 -0.1527
 5723W        W48739  34.248   1.364   7.725  0.3898 -0.2424  0.2474
 5724W        W48740  12.934   1.655   3.025 -0.0804 -0.3467 -0.0282
 5725W        W48741  23.564  20.132   4.137 -0.4126  0.0401 -0.0967
 5726W        W48742  25.079  33.786   4.739  0.1307  0.1998  0.0216
 5727W        W48743  19.119   6.573  26.326 -0.1830  0.2399  0.0927
 5728W        W48744  25.887  31.284   4.436  0.1174  0.2138  0.0811
 5729W        W48745  24.289   5.113  26.774  0.1829 -0.0892  0.2788
 5730W        W48746   9.618  27.623   1.818 -0.5123 -0.1861 -0.1673
 5731W        W48747  13.727  18.217  24.058  0.0687  0.0687 -0.1006
 5732W        W48748  17.183  23.500  18.786  0.0279 -0.1474  0.1758
 5733W        W48749  21.864  16.924   2.364 -0.0190 -0.2905  0.0678
 5734W        W48750  29.791  14.510  28.475 -0.3070  0.1812  0.2008
 5735W        W48751  14.626  24.750  20.778  0.0853  0.1041 -0.2615
 5736W        W48752  16.725  27.769  24.378 -0.1965 -0.0921 -0.1553
 5737W        W48753  21.253  30.415   0.693  0.1424  0.0879  0.1898
 5738W        W48754   5.036  20.009   8.887 -0.3354  0.1986  0.1786
 5739W        W48755  15.400   0.800  15.325  0.0777  0.0869  0.3941
 5740W        W48756  13.367  28.653  22.011  0.0569 -0.2822 -0.1046
 5741W        W48757  19.067  24.627  26.955 -0.2742  0.2653  0.2063
 5742W        W48758  17.376  22.064   1.736 -0.0341 -0.0776 -0.1674
 5743W        W48759  26.997  25.239   6.284  0.1071 -0.1148 -0.2364
 5744W        W48760   2.554  33.334   7.164 -0.0799  0.0273  0.0970
 5745W        W48761  28.935  26.507   3.139 -0.3705  0.1096  0.0073
 5746W        W48762   9.767   6.346  28.461 -0.2649 -0.0480 -0.1015
 5747W        W48763  15.981  25.724  26.995  0.1002  0.1369  0.0392
 5748W        W48764  16.303  13.884  23.921 -0.1910  0.1203  0.1787
 5749W        W48765  29.811  21.751   5.487 -0.0378 -0.0298  0.1270
 5750W        W48766   9.088  17.986  22.659 -0.1609 -0.0135  0.0186
 5751W        W48767  17.102  16.862  12.875 -0.1058  0.0614 -0.2317
 5752W        W48768  14.939  20.419  21.535  0.2904  0.3373 -0.1637
 5753W        W48769  18.152  25.396  24.081  0.1553 -0.1416 -0.4270
 5754W        W48770  18.186  12.718   0.497 -0.2912 -0.1232  0.2318
 5755W        W48771  11.919   6.170  26.567  0.5113 -0.1052 -0.1684
 5756W        W48772  14.423  30.831   3.471 -0.0539 -0.0360  0.0125
 5757W        W48773  14.202  16.778   3.056  0.0713 -0.0780  0.0593
 5758W        W48774  12.789  18.515  27.020  0.1248 -0.1035 -0.0388
 5759W        W48775  10.313  11.942  27.212  0.0079 -0.0003 -0.1597
 5760W        W48776   1.051  26.031   6.759  0.1115 -0.0846 -0.2517
 5761W        W48777  14.435  34.060  10.157 -0.0014  0.2357  0.0488
 5762W        W48778  17.912  31.582  21.383 -0.0738 -0.0713 -0.1635
 5763W        W48779  11.970   2.092   5.672  0.0471  0.0912 -0.1952
 5764W        W48780  18.035   9.371   4.266  0.0728 -0.1388  0.0018
 5765W        W48781  17.983   2.228   5.850  0.0895 -0.1530  0.0568
 5766W        W48782   6.663  14.906  17.536  0.1523  0.2569 -0.0564
 5767W        W48783   5.050  25.802   7.443  0.0123 -0.2366  0.0891
 5768W        W48784  11.724   2.687  20.397 -0.0997 -0.0494  0.0583
 5769W        W48785  13.814  20.714  20.820  0.1466 -0.0077  0.0336
 5770W        W48786  24.380  23.534  26.374  0.1019 -0.0454  0.3364
 5771W        W48787  25.793  21.116   3.239  0.0081  0.3828  0.4358
 5772W        W48788  14.679   9.517  22.032  0.4065  0.1516 -0.0479
 5773W        W48789  19.919  23.322   0.694  0.0876 -0.0343 -0.2509
 5774W        W48790  17.200  26.258   3.943 -0.1266  0.0327  0.0537
 5775W        W48791  33.236  26.928  17.865 -0.0152  0.1758  0.0633
 5776W        W48792  26.276  31.010   9.628  0.1668  0.1991 -0.3043
 5777W        W48793  19.062   5.956   5.839 -0.0709 -0.0405  0.1072
 5778W        W48794  30.062  12.668   0.669 -0.0683 -0.2717 -0.0176
 5779W        W48795  18.754  23.552  19.138  0.0161 -0.1339  0.0806
 5780W        W48796  12.119  25.879  28.732  0.1531 -0.1024 -0.0694
 5781W        W48797  22.609  25.052  23.727  0.1468 -0.1717  0.1477
 5782W        W48798  16.658  18.694   0.265 -0.3638  0.0542  0.0297
 5783W        W48799  20.566   1.790  18.317 -0.2184 -0.4648  0.0811
 5784W        W48800  12.908   6.962   1.950  0.1982 -0.0022 -0.4202
 5785W        W48801   9.540  33.034   7.449 -0.1089 -0.2890  0.4942
 5786W        W48802  28.738  23.431  19.459 -0.1452  0.4124  0.0310
 5787W        W48803  34.688  21.867  27.235 -0.0718  0.0992 -0.1410
 5788W        W48804  21.750  22.733   0.677 -0.1282 -0.3868  0.3081
 5789W        W48805  13.008  25.849   5.873 -0.2242 -0.0370 -0.1759
 5790W        W48806   3.872  34.279  21.952 -0.2260 -0.1730  0.0924
 5791W        W48807  34.530  24.642  22.150 -0.1566 -0.1334 -0.0722
 5792W        W48808  24.350  19.487  28.530 -0.2860  0.2896 -0.0190
 5793W        W48809  16.904  28.572  27.109 -0.2935 -0.0411 -0.0046
 5794W        W48810  13.936  34.651   9.540 -0.0259  0.1170  0.4426
 5795W        W48811  21.984   5.938   3.905 -0.0589  0.1046 -0.1621
 5796W        W48812  13.884  34.524   4.639 -0.2068 -0.1850 -0.0687
 5797W        W48813   9.665  32.097   6.409 -0.2810 -0.1423  0.2885
 5798W        W48814  14.859   8.299   0.938  0.0336  0.1361 -0.1918
 5799W        W48815   1.086   6.813  20.765 -0.1996  0.2018 -0.0984
 5800W        W48816   3.228  31.043   9.763  0.0978 -0.2864 -0.2482
 5801W        W48817  29.333   5.179   9.143 -0.1331  0.2096 -0.1486
 5802W        W48818  10.408  32.418   4.772 -0.0580 -0.3149  0.0288
 5803W        W48819  19.334  31.095   6.300 -0.0040  0.0350 -0.0799
 5804W        W48820  29.857  29.691   8.111  0.3462  0.2483  0.3391
 5805W        W48821   5.823  19.955   8.320 -0.0935 -0.0259 -0.1097
 5806W        W48822  17.375  31.658  16.504  0.0664 -0.3330 -0.0392
 5807W        W48823  19.688  23.328  19.838  0.0469  0.2908 -0.1100
 5808W        W48824   5.385   4.156   1.578 -0.1066  0.0596 -0.3540
 5809W        W48825  18.804  24.358  27.869 -0.2274 -0.0541  0.0065
 5810W        W48826  12.400  30.702   0.875  0.3411  0.1823 -0.1937
 5811W        W48827  14.953  24.300  22.591 -0.3863 -0.1987 -0.1694
 5812W        W48828   8.479   6.821   1.241 -0.0289  0.2956  0.0254
 5813W        W48829  33.697  20.671   1.934  0.0164 -0.3835 -0.0492
 5814W        W48830  28.009  30.534  21.277  0.0620  0.1280  0.1232
 5815W        W48831  23.989  25.579   7.562  0.0688  0.2402 -0.1000
 5816W        W48832  16.633  33.576  18.762 -0.0844 -0.0454  0.3429
 5817W        W48833   2.359   2.609  25.005 -0.1943  0.0728  0.0764
 5818W        W48834  21.650  10.103  27.126  0.0455 -0.1305  0.3170
 5819W        W48835  13.612  24.381  27.034 -0.1838 -0.2414 -0.1463
 5820W        W48836  17.621  21.522  24.180  0.1420 -0.0160 -0.2109
 5821W        W48837  14.705  33.279   2.039  0.3085 -0.2781 -0.0383
 5822W        W48838  11.463  28.352   8.790  0.0221 -0.1230  0.1563
 5823W        W48839  32.229  12.133  23.305  0.0640  0.1451 -0.0045
 5824W        W48840  15.314   7.931  15.994 -0.0088 -0.0639 -0.0599
 5825W        W48841  21.738  22.983  24.021  0.2844 -0.1327 -0.1455
 5826W        W48842  26.248  32.576  15.899  0.1726  0.2404  0.1337
 5827W        W48843  10.948   1.307  15.736 -0.1666 -0.1635 -0.0665
 5828W        W48844  18.527  15.598   2.135 -0.3032  0.1105  0.0249
 5829W        W48845   5.385  23.341   7.488  0.4757 -0.2083 -0.0554
 5830W        W48846  11.316  25.442   6.982  0.1506 -0.1112  0.1314
 5831W        W48847   5.811  32.778   4.895 -0.1247  0.3310 -0.0440
 5832W        W48848  15.256  23.528   0.295  0.0042 -0.0349  0.1171
 5833W        W48849  18.564  20.831   8.255  0.1532  0.0500  0.0999
 5834W        W48850  17.502  11.432  26.327 -0.1375 -0.1635 -0.0973
 5835W        W48851  17.679  11.418  27.959 -0.0519 -0.0981 -0.0809
 5836W        W48852  30.111   9.272  27.311 -0.0319  0.1751 -0.1729
 5837W        W48853  24.957  26.407  17.169 -0.2978  0.1113  0.0568
 5838W        W48854  17.535  23.934  18.529  0.0303 -0.1755 -0.1981
 5839W        W48855  18.586  21.780   5.044 -0.0040  0.2859 -0.1262
 5840W        W48856  22.098  27.515  24.568 -0.2464  0.0700  0.2295
 5841W        W48857  12.141  32.392  28.102  0.2272  0.2768 -0.0806
 5842W        W48858  10.261  34.162   3.952 -0.1433 -0.1850  0.4314
 5843W        W48859  18.410  14.271  27.844 -0.0802  0.1451  0.2503
 5844W        W48860  15.300   4.662   9.151 -0.2034  0.1476 -0.2334
 5845W        W48861   2.388  18.419  21.659  0.3237 -0.0640  0.2068
 5846W        W48862  32.471  27.141  26.484 -0.0943  0.3456 -0.3875
 5847W        W48863  10.995  17.548   7.389  0.4577  0.3566 -0.0572
 5848W        W48864  34.267  14.080  17.754 -0.0450  0.4473 -0.1505
 5849W        W48865  16.429  23.460   5.275 -0.0527 -0.1237 -0.1218
 5850W        W48866   4.861  29.219  25.785  0.0315  0.1148  0.0946
 5851W        W48867  17.811  30.427   7.280  0.0776 -0.2368  0.2585
 5852W        W48868   3.539   1.045  19.565  0.1255  0.3199 -0.2416
 5853W        W48869  14.065  24.032   2.928  0.0921  0.1202 -0.1642
 5854W        W48870   2.831   5.298   0.408  0.3504 -0.0954  0.0675
 5855W        W48871  11.316  24.161   3.341  0.0785 -0.2363 -0.0463
 5856W        W48872  25.221  30.136   7.243  0.1651 -0.2579 -0.0564
 5857W        W48873  21.647   8.082   6.283 -0.2757  0.1653 -0.1893
 5858W        W48874  13.193  28.782   7.616 -0.1738 -0.3263  0.2415
 5859W        W48875   5.695  32.590   8.341 -0.3606 -0.1286 -0.2723
 5860W        W48876  21.712  29.593   9.660 -0.0071 -0.0049  0.1279
 5861W        W48877  19.477  30.510   3.576 -0.2706  0.1889 -0.1182
 5862W        W48878  13.761  13.673   2.147 -0.0272 -0.0175 -0.1260
 5863W        W48879  25.001  27.037  23.337 -0.1352 -0.2407 -0.2184
 5864W        W48880  15.217  24.703   1.399 -0.1052  0.0158 -0.0091
 5865W        W48881   6.325   6.596   3.844  0.3034  0.0454 -0.1941
 5866W        W48882  21.588  22.456  22.107  0.1873  0.0667 -0.2192
 5867W        W48883   8.517  17.602   7.239  0.3229  0.1295 -0.4599
 5868W        W48884  31.735  31.187   9.534 -0.1450 -0.0126 -0.0845
 5869W        W48885  12.394   1.126   8.082  0.1705  0.0129  0.0396
 5870W        W48886  18.563  32.080   2.127  0.0842 -0.0533  0.0516
 5871W        W48887   2.177  28.146  18.911 -0.0558  0.3895  0.1474
 5872W        W48888  13.091  32.682  26.315  0.0011  0.0485  0.0339
 5873W        W48889  16.011  29.124  26.059  0.1183 -0.1374 -0.2550
 5874W        W48890  11.790  11.236  24.471 -0.0503 -0.5821  0.0615
 5875W        W48891  12.200  17.132   7.414 -0.1585 -0.0973 -0.2596
 5876W        W48892   1.196  22.976   6.684 -0.0063  0.1200  0.1935
 5877W        W48893  20.540   5.510  26.336 -0.2229 -0.4883 -0.0719
 5878W        W48894  24.992  22.461   2.035  0.1734 -0.1749  0.0947
 5879W        W48895  17.830   5.335   6.923  0.0183  0.1196 -0.1518
 5880W        W48896  15.496  31.642   1.231  0.1611 -0.3095 -0.1121
 5881W        W48897  11.653  32.015   9.705  0.0775 -0.0277 -0.2100
 5882W        W48898   8.275  24.554  15.244  0.1504 -0.2379 -0.0446
 5883W        W48899   9.677  33.505  29.210 -0.3928  0.5001 -0.0265
 5884W        W48900  16.659  25.338   2.239  0.2003  0.2632 -0.0261
 5885W        W48901  20.592  15.829   8.609  0.4295  0.1733  0.0289
 5886W        W48902   8.047   0.803  27.394  0.0523  0.3272 -0.0497
 5887W        W48903  17.252  18.750   6.049 -0.0327  0.2055  0.0252
 5888W        W48904  30.162  15.248   6.134  0.0122 -0.2087 -0.0712
 5889W        W48905   3.861  19.308  24.711 -0.5499 -0.2408 -0.0498
 5890W        W48906  14.741   1.115   8.627  0.0489 -0.2144  0.1872
 5891W        W48907  20.218  12.160  27.652 -0.0580 -0.0040 -0.0310
 5892W        W48908  12.825  19.809   7.989  0.0626 -0.3175 -0.0043
 5893W        W48909  33.385  33.476   6.522  0.0410  0.3202  0.3884
 5894W        W48910  25.696  22.426   8.807 -0.1845 -0.2708  0.1178
 5895W        W48911  20.031  31.237   8.255  0.1932 -0.3670 -0.2048
 5896W        W48912   7.575  23.772   6.252 -0.2053 -0.0103 -0.1079
 5897W        W48913   4.180  34.301   2.573 -0.1083 -0.1427 -0.1600
 5898W        W48914   8.562  14.647  19.684  0.0114  0.2418 -0.0240
 5899W        W48915  27.825  23.885   5.965 -0.2219 -0.4904  0.0334
 5900W        W48916  28.627  20.487  24.345 -0.1912 -0.2231  0.0119
 5901W        W48917  24.629  34.344   7.430  0.5165 -0.0201 -0.1761
 5902W        W48918  10.599  25.402  25.788  0.0648  0.0787 -0.0153
 5903W        W48919   6.909  14.646   2.154  0.0457  0.1969 -0.0111
 5904W        W48920  30.916   2.145  22.074  0.0441 -0.0690 -0.1826
 5905W        W48921  20.343  20.937   1.346 -0.1071  0.1253  0.1315
 5906W        W48922  11.627  22.868   7.246 -0.0226 -0.0948 -0.2031
 5907W        W48923  15.484  12.415  28.912 -0.0322 -0.0801  0.1728
 5908W        W48924  12.091  16.187  28.355  0.0673  0.0051  0.0102
 5909W        W48925   0.275  29.336   2.025 -0.1852 -0.0041  0.0526
 5910W        W48926  18.870   7.138  19.233  0.1551 -0.0858 -0.0483
 5911W        W48927  24.966  34.176   9.666 -0.0556 -0.2444 -0.3514
 5912W        W48928  13.213  18.618   3.729  0.0708  0.3372 -0.0168
 5913W        W48929   3.219  23.687  26.348  0.1371 -0.0837 -0.2654
 5914W        W48930  27.155  18.577   3.582 -0.1264 -0.0732  0.0772
 5915W        W48931  15.815  25.074   6.932 -0.1153 -0.0321  0.1767
 5916W        W48932  10.302  12.550   2.021  0.0816 -0.1245 -0.2699
 5917W        W48933  14.422  19.000   4.763 -0.0101  0.0934  0.1069
 5918W        W48934  11.268  28.483  20.605 -0.1177 -0.1460 -0.1307
 5919W        W48935  34.364  14.890  27.862 -0.0159 -0.0331 -0.1755
 5920W        W48936  15.303  12.022  23.150  0.0118  0.1463  0.2027
 5921W        W48937  10.136   9.127   0.171  0.1163  0.2067  0.1746
 5922W        W48938  24.630  21.690  18.493  0.1892 -0.2228  0.3233
 5923W        W48939  19.936  19.319  20.590 -0.2425 -0.1781 -0.2486
 5924W        W48940  17.726   7.127  20.057 -0.0185  0.0414  0.0068
 5925W        W48941  23.759   2.048   2.866  0.0710  0.1109 -0.2237
 5926W        W48942   7.514  22.838  14.413 -0.1323 -0.3009 -0.3038
 5927W        W48943  16.100  24.781   7.397  0.1248 -0.0550  0.3173
 5928W        W48944  21.972   8.268   4.655 -0.1366 -0.0460  0.1023
 5929W        W48945  16.241  13.917   7.057  0.0901 -0.0724 -0.1367
 5930W        W48946  28.530  23.476   6.093  0.1070  0.1875 -0.2080
 5931W        W48947  16.438  13.491  14.506 -0.1693  0.0827  0.3843
 5932W        W48948  34.653  28.413   9.678 -0.1915  0.0799  0.1577
 5933W        W48949  12.450  21.572  15.663  0.1520 -0.0589  0.1780
 5934W        W48950  14.859  21.234  24.537  0.0319  0.0453 -0.1196
 5935W        W48951  13.077   5.593  28.012  0.0565  0.1198  0.1728
 5936W        W48952   3.192   3.076   5.624  0.0174 -0.0050  0.1427
 5937W        W48953  20.427  18.526   1.902 -0.1914  0.3231  0.0213
 5938W        W48954  25.785   2.469   1.332  0.1575 -0.2462  0.1306
 5939W        W48955  11.628  20.580  26.331 -0.1969  0.1770  0.0875
 5940W        W48956   2.870  31.998   5.811  0.0730 -0.1708 -0.0937
 5941W        W48957  17.036  26.122  20.811 -0.1771  0.1130  0.2487
 5942W        W48958  31.038   4.001   0.722  0.0078 -0.0812 -0.1023
 5943W        W48959  30.266  14.338   6.320  0.1406  0.2153  0.1015
 5944W        W48960  12.568   9.960   5.689 -0.0167  0.0525  0.3649
 5945W        W48961  14.658  31.311  27.244 -0.3433  0.5156  0.1881
 5946W        W48962  15.936  30.873  25.168 -0.2533  0.0123 -0.1208
 5947W        W48963  16.435   5.158   3.643 -0.1866 -0.1358  0.2159
 5948W        W48964   6.918  20.165   4.580  0.3310  0.2548 -0.2449
 5949W        W48965  21.073  21.648  13.057 -0.1605  0.0284 -0.0083
 5950W        W48966  17.493  25.373   5.190  0.1370  0.3068  0.0745
 5951W        W48967  17.327  13.895  15.193 -0.0407 -0.1502 -0.0535
 5952W        W48968   6.451  25.621  25.067 -0.1526 -0.1249 -0.0482
 5953W        W48969   2.907  26.160   0.300  0.0357  0.2752  0.0944
 5954W        W48970   9.476  28.053  18.738 -0.0394 -0.0433  0.2050
 5955W        W48971  15.076  17.899   0.288  0.4705  0.0924  0.1406
 5956W        W48972  21.018  22.358  25.453 -0.1485  0.3292 -0.2533
 5957W        W48973   0.600  13.691  26.136 -0.0204 -0.1814  0.0632
 5958W        W48974  16.110  28.448   6.809  0.1808 -0.0989  0.1164
 5959W        W48975  22.320  18.335   3.623 -0.2009 -0.1928 -0.2419
 5960W        W48976  21.228  33.942   6.226 -0.0971 -0.0645  0.0785
 5961W        W48977  27.882  24.814  11.072 -0.1047 -0.3230 -0.2452
 5962W        W48978  31.276  28.810   2.587 -0.2584  0.2339 -0.3062
 5963W        W48979  32.981  25.250  10.571  0.3209 -0.0148 -0.0199
 5964W        W48980  27.715  15.449   1.171 -0.0043 -0.0346  0.1541
 5965W        W48981   1.652  31.800  10.029 -0.1822 -0.0870  0.1378
 5966W        W48982  27.549  20.811   8.619 -0.0058  0.1927  0.0131
 5967W        W48983  14.130  26.999   7.316  0.2130 -0.0280 -0.3557
 5968W        W48984   8.063  19.451   4.590  0.1180 -0.3430  0.0638
 5969W        W48985  23.122   5.381  17.471  0.0849 -0.3582  0.0239
 5970W        W48986  31.139   9.044   9.749 -0.3595  0.1171  0.0097
 5971W        W48987   8.850  25.446   6.590 -0.0086  0.0505  0.1468
 5972W        W48988  22.206  23.649   3.065  0.2294  0.0180 -0.5045
 5973W        W48989  16.399  31.708  18.591 -0.0334  0.4708 -0.0483
 5974W        W48990  18.297  26.570   6.187 -0.0284 -0.0694 -0.1173
 5975W        W48991  25.475  19.813  21.928  0.1122 -0.1211 -0.0458
 5976W        W48992  34.291   5.779  24.007  0.0593 -0.0823 -0.0837
 5977W        W48993  13.962  25.642  24.094 -0.3437 -0.0856  0.1727
 5978W        W48994  31.156  30.337   4.496 -0.3663  0.3836 -0.0162
 5979W        W48995  10.386  24.756  15.119  0.1796 -0.0261 -0.1458
 5980W        W48996  18.806   7.357   3.566  0.3554  0.1906 -0.1548
 5981W        W48997  20.591  19.222  28.509 -0.6357 -0.1701  0.3303
 5982W        W48998  19.724   9.893   8.556 -0.0522 -0.1265  0.0855
 5983W        W48999  13.588  29.323   3.817 -0.1407 -0.2518 -0.4143
 5984W        W49000  20.217  10.104   8.618 -0.0355  0.3373 -0.1161
 5985W        W49001  24.845   1.316   2.281 -0.0051 -0.2219  0.2115
 5986W        W49002  31.718  25.709  19.979  0.1547  0.1583  0.2566
 5987W        W49003  18.644  32.674  10.591  0.2275 -0.1480 -0.0721
 5988W        W49004  22.219  23.649   2.523 -0.0380 -0.0790  0.2539
 5989W        W49005  21.516  33.589  22.507 -0.1879  0.1511  0.0851
 5990W        W49006  19.855  19.911   3.847  0.1664 -0.2042  0.2662
 5991W        W49007  22.551  24.412   7.316 -0.2134 -0.0041  0.2837
 5992W        W49008  10.790   2.167   8.136  0.2636 -0.3117  0.3258
 5993W        W49009   8.425  23.502  16.767  0.0023 -0.0254  0.1954
 5994W        W49010   8.450  26.149  15.493 -0.1257  0.1024  0.2297
 5995W        W49011  19.968   9.561   7.360 -0.1692  0.0844  0.0598
 5996W        W49012  11.227  16.840  23.637  0.2772  0.2021 -0.0826
 5997W        W49013  14.871  27.389  28.076  0.2825  0.2810  0.2459
 5998W        W49014  10.319  23.074   8.150 -0.2446  0.0689 -0.0208
 5999W        W49015  20.106  17.724   0.910  0.0257 -0.2838 -0.0089
 6000W        W49016  34.432  23.050  26.373 -0.1618  0.1275  0.1445
 6001W        W49017  33.515   8.933   0.404 -0.4103  0.3551  0.2541
 6002W        W49018  23.320  21.674   0.193  0.1410  0.4071 -0.0640
 6003W        W49019  23.780  24.037   1.180 -0.0261  0.0121 -0.3079
 6004W        W49020  11.988  31.755  26.253 -0.0208 -0.3245 -0.0771
 6005W        W49021  12.702  12.698   9.116  0.1858 -0.1818  0.0358
 6006W        W49022   5.766  17.718   1.186  0.0281 -0.0961  0.3735
 6007W        W49023  26.991  10.587   9.500 -0.1532  0.1390  0.0581
 6008W        W49024  13.406  29.738   1.455 -0.1058  0.1565 -0.1595
 6009W        W49025  22.845  25.022  14.626  0.0418 -0.1249  0.0020
 6010W        W49026  26.432  25.734  24.765 -0.2995  0.0164 -0.1058
 6011W        W49027  17.473  22.592   0.506  0.1084  0.0642  0.1800
 6012W        W49028   8.327  13.119  28.242  0.2865  0.0528  0.1297
 6013W        W49029  18.511  23.382  27.756 -0.0957  0.0226 -0.1910
 6014W        W49030  11.521  15.822  22.646  0.1225  0.0231  0.1868
 6015W        W49031   5.115   0.685   2.780  0.2335  0.0923  0.1197
 6016W        W49032  18.322  28.887   6.733 -0.1929 -0.0834 -0.1083
 6017W        W49033   6.389  33.774   1.393 -0.3563  0.1378 -0.0394
 6018W        W49034  20.289  27.269   5.893  0.1743  0.2957 -0.0057
 6019W        W49035  25.742  19.414   0.819  0.2919 -0.0607  0.2036
 6020W        W49036  34.366   5.840   7.257 -0.0243  0.1843 -0.3162
 6021W        W49037  23.889  17.315   8.669  0.2838  0.3096  0.0763
 6022W        W49038  19.349  26.139   5.356  0.2251 -0.0857 -0.0515
 6023W        W49039  18.029   0.331   4.739  0.4267  0.1848 -0.1798
 6024W        W49040  14.395   3.292   1.250 -0.2263  0.0977 -0.3426
 6025W        W49041  18.229  17.518  22.622  0.0736 -0.0087 -0.2057
 6026W        W49042  11.160  33.113  28.188  0.3501  0.1404  0.0494
 6027W        W49043  19.689  29.378   9.454 -0.3394  0.3145  0.1243
 6028W        W49044   5.517   1.489  26.281  0.2430 -0.2569 -0.2993
 6029W        W49045  33.713  20.692  23.534 -0.0905  0.0664 -0.1255
 6030W        W49046  26.318  17.534  25.881 -0.0332 -0.0786 -0.3980
 6031W        W49047  33.154  18.671   4.575 -0.1359 -0.1478  0.0086
 6032W        W49048  19.385  16.714   6.944 -0.0772 -0.0630 -0.0516
 6033W        W49049  18.186  10.097   9.485  0.0168  0.0022 -0.1053
 6034W        W49050  21.562  12.543   1.903  0.1269 -0.0764 -0.1295
 6035W        W49051  22.372  27.127  24.932 -0.1039 -0.0901  0.0558
 6036W        W49052  15.577  22.302   8.338 -0.1016 -0.2178  0.1087
 6037W        W49053  17.001  32.972   9.064  0.0166  0.3973  0.3243
 6038W        W49054  28.985  11.028  23.134  0.0401  0.0419 -0.1592
 6039W        W49055   7.716  12.484   5.308 -0.1420  0.0650  0.1960
 6040W        W49056  27.585  31.649  23.905  0.2153  0.1201  0.3051
 6041W        W49057  13.181  20.449   3.341  0.1280 -0.0742 -0.3753
 6042W        W49058   4.246  14.865   4.704  0.1331  0.0252 -0.0971
 6043W        W49059  14.769  28.624   5.012  0.0035  0.4544  0.4124
 6044W        W49060  19.357  23.697   1.985 -0.3168  0.1026  0.0208
 6045W        W49061  11.012  29.542   8.842 -0.4196 -0.0625  0.2350
 6046W        W49062  20.775  13.336   0.340 -0.3279 -0.0070  0.1048
 6047W        W49063  28.304   4.012   0.945  0.0222 -0.2530 -0.0771
 6048W        W49064  19.844  20.693  28.767 -0.2395 -0.1890 -0.0768
 6049W        W49065  25.486   1.728  15.238 -0.0572 -0.1638  0.3270
 6050W        W49066  21.648  31.296  22.070 -0.0748  0.0817  0.0929
 6051W        W49067  19.519  33.505   5.706  0.1520 -0.1298 -0.2000
 6052W        W49068  15.637   2.447   2.216 -0.0639 -0.1311 -0.0941
 6053W        W49069  16.427  29.092   9.525 -0.1969  0.0568 -0.0417
 6054W        W49070  17.567  16.110   4.014 -0.2457 -0.0053  0.1819
 6055W        W49071  32.816  10.421   4.592 -0.1379 -0.0444  0.0527
 6056W        W49072  13.698  21.578  26.497 -0.0672  0.2345 -0.1962
 6057W        W49073  29.988  29.522  27.748 -0.0125 -0.2046 -0.1374
 6058W        W49074  33.489  19.567   2.979  0.0873 -0.0847 -0.1184
 6059W        W49075  17.444   1.444   4.532  0.2324 -0.0991 -0.1190
 6060W        W49076  26.692  20.247  19.681 -0.2018  0.1622  0.0144
 6061W        W49077  33.645  26.349   9.631  0.0935  0.0278  0.3024
 6062W        W49078  22.842  20.704  28.110  0.3152  0.3220 -0.1470
 6063W        W49079  12.741  26.185  27.465 -0.1438  0.0511  0.1708
 6064W        W49080  21.738  24.471   2.472 -0.0481 -0.2114 -0.1239
 6065W        W49081   7.261  32.223   3.951  0.1321  0.0662 -0.3556
 6066W        W49082  24.916  10.381  26.879  0.1562  0.0242  0.1915
 6067W        W49083   6.023  27.228  26.265 -0.0623 -0.1031  0.1635
 6068W        W49084  13.077   0.111   7.633  0.0788 -0.2251  0.2110
 6069W        W49085  16.860  29.374   5.449 -0.1630  0.2351  0.4098
 6070W        W49086  25.493  16.609  28.532 -0.0908 -0.1079  0.1580
 6071W        W49087  18.540  19.210   5.446 -0.0594  0.0302  0.1911
 6072W        W49088  20.104  18.332   1.511 -0.1363  0.4549  0.1276
 6073W        W49089   9.832  32.817   7.103  0.1604 -0.0765  0.1746
 6074W        W49090  18.264  34.237   8.650 -0.1148  0.0425  0.0104
 6075W        W49091  18.041  21.156  20.059 -0.0601 -0.1744  0.0619
 6076W        W49092  14.642  15.712   6.290 -0.0842 -0.2272 -0.0167
 6077W        W49093  14.899   9.885   4.358 -0.0117  0.4941  0.0032
 6078W        W49094   4.200  27.984  19.185 -0.0177  0.0080  0.2019
 6079W        W49095  21.298  20.943   3.170  0.0990 -0.2451 -0.0733
 6080W        W49096  13.570  33.964   9.234 -0.0106  0.0762  0.0617
 6081W        W49097  17.282  30.608  21.474 -0.0457 -0.0683 -0.1740
 6082W        W49098  13.448   0.923   6.956  0.1935  0.0544 -0.0715
 6083W        W49099  29.695  15.846   1.136 -0.3349 -0.0032  0.2467
 6084W        W49100   5.692   7.962   7.366  0.0334  0.0545  0.3899
 6085W        W49101   3.137  23.293  10.107 -0.0756  0.2253  0.0423
 6086W        W49102   8.913  26.413  28.665 -0.1884  0.2254 -0.0306
 6087W        W49103  20.810  26.175  10.164 -0.0233  0.5192 -0.2319
 6088W        W49104   7.906  25.539   2.457 -0.0814  0.0308 -0.0308
 6089W        W49105  13.117   8.904   5.830 -0.0209  0.5254  0.0960
 6090W        W49106   9.182  22.248  22.683  0.0518  0.3548  0.1293
 6091W        W49107  17.210  17.571   2.077 -0.4529  0.0395  0.0274
 6092W        W49108  34.461  34.089   3.397  0.0376  0.1290  0.1902
 6093W        W49109  12.921   7.039  27.201 -0.2035 -0.2042  0.2620
 6094W        W49110  14.744  10.334  23.262  0.0426  0.1083  0.0327
 6095W        W49111   5.381  33.430   8.216  0.1620  0.2768 -0.0131
 6096W        W49112  12.412   0.237   9.355  0.1547 -0.1985  0.2350
 6097W        W49113   7.727  27.438   5.573 -0.0687  0.0106  0.1365
 6098W        W49114   8.760  26.963   1.616  0.3007  0.3919 -0.2978
 6099W        W49115   3.753  20.362   0.594 -0.0522  0.0624  0.1976
 6100W        W49116  26.512   9.007  16.499  0.0078 -0.4485  0.2916
 6101W        W49117  15.994  17.947  21.679 -0.4499 -0.1777  0.0500
 6102W        W49118  26.165  29.711  27.075 -0.1007  0.0510  0.1676
 6103W        W49119  13.153  24.014   1.052  0.2353 -0.0269 -0.5941
 6104W        W49120  21.363  24.901  28.197  0.1196  0.3110  0.1519
 6105W        W49121  13.732  34.405  22.316 -0.0062  0.3355 -0.0484
 6106W        W49122  13.418  33.804   0.069 -0.1187 -0.1279 -0.0407
 6107W        W49123  12.807  23.565   4.049  0.1219  0.5173  0.4270
 6108W        W49124  27.465  21.358   1.892  0.2026  0.0552  0.1157
 6109W        W49125   9.452  20.880   1.492  0.1017 -0.1595  0.0592
 6110W        W49126  18.430  22.607   4.359  0.1604  0.1267 -0.2554
 6111W        W49127  25.837  20.514   3.445  0.0642 -0.0692  0.2609
 6112W        W49128  12.926  26.906   8.904 -0.2574  0.1949 -0.3035
 6113W        W49129   4.327   6.030  27.575 -0.1089  0.0705  0.2099
 6114W        W49130  15.690  33.195   8.366  0.0483 -0.2057 -0.3070
 6115W        W49131   8.846   4.209  25.637  0.0043  0.1182 -0.0111
 6116W        W49132  25.964  19.821   9.133 -0.3293 -0.2398 -0.0880
 6117W        W49133   1.669  29.379   5.467  0.3325  0.1548 -0.0313
 6118W        W49134  34.367  16.784  18.287 -0.0972 -0.2459  0.2568
 6119W        W49135   9.824   4.367   8.243  0.2575  0.0018  0.1769
 6120W        W49136   5.349   8.150  25.031  0.0862  0.0901 -0.0379
 6121W        W49137  19.169   1.258  27.869  0.2499  0.1293 -0.1868
 6122W        W49138  16.987  17.400  23.194 -0.2847 -0.1771 -0.0545
 6123W        W49139  20.862  20.036   5.042  0.3143 -0.1002  0.4121
 6124W        W49140   5.410   5.530   9.562 -0.0190 -0.2260 -0.2307
 6125W        W49141  19.539  28.797  10.345  0.0886  0.0664 -0.1854
 6126W        W49142  30.696  24.288   9.380  0.1561  0.1148  0.0820
 6127W        W49143  23.668  28.693   9.217 -0.0124 -0.0463  0.1823
 6128W        W49144   8.987  18.048   4.814  0.1020  0.2656 -0.1622
 6129W        W49145  12.681  32.236   3.069  0.0713  0.0215 -0.0251
 6130W        W49146  14.555   3.629  29.183  0.0363  0.1737  0.2329
 6131W        W49147  17.566  18.126  13.651 -0.2006  0.0788  0.4882
 6132W        W49148   1.938   1.921   3.095  0.1085  0.1965  0.0161
 6133W        W49149  19.050  23.946  26.642 -0.1693 -0.1411  0.2838
 6134W        W49150   6.250  24.351  25.655 -0.1833 -0.1603 -0.0225
 6135W        W49151  15.630  32.157  18.285  0.0144 -0.0055  0.0154
 6136W        W49152   4.815   1.267  10.430  0.0165  0.4837 -0.0917
 6137W        W49153  25.627  25.616  25.152  0.1537 -0.2172  0.2429
 6138W        W49154   7.223  15.545  21.041  0.0062 -0.3049  0.0371
 6139W        W49155  14.205  31.877   1.103  0.1215 -0.0318 -0.1526
 6140W        W49156  20.257  17.841  23.735 -0.0379  0.1615  0.2300
 6141W        W49157  15.715  31.923   9.905  0.1122  0.0272  0.1634
 6142W        W49158  13.457  18.537   2.015  0.0172 -0.4073  0.1536
 6143W        W49159  11.431  33.595   2.193 -0.0467  0.1130  0.1362
 6144W        W49160  22.920   5.764  25.610 -0.0363 -0.3822 -0.0056
 6145W        W49161  27.917  23.420  25.045  0.1755  0.0656 -0.2057
 6146W        W49162  26.902  34.181   2.392 -0.2266 -0.0610 -0.3034
 6147W        W49163  14.064  29.308   7.773 -0.0792  0.0604  0.1167
 6148W        W49164  25.301  23.765   0.654 -0.0892 -0.2182  0.2213
 6149W        W49165  20.421  26.798  28.932  0.3475  0.3611  0.2054
 6150W        W49166  20.823  24.371   3.151  0.1441 -0.2348 -0.0241
 6151W        W49167  30.584  17.542   3.473  0.0446 -0.2089  0.1741
 6152W        W49168  25.091  16.399   2.255 -0.0576 -0.2315 -0.1928
 6153W        W49169  15.131  10.444   9.288 -0.1587 -0.1087 -0.0263
 6154W        W49170  14.010  28.842   1.975 -0.0848 -0.0891 -0.1711
 6155W        W49171  11.631  33.686   4.438  0.2085 -0.1649  0.1516
 6156W        W49172  24.910   7.524   5.877  0.2863  0.1403  0.1671
 6157W        W49173  17.421   1.463   0.849 -0.0722 -0.3976  0.0103
 6158W        W49174  14.700   1.845   3.568  0.3293  0.0250  0.1941
 6159W        W49175   8.978  13.993   4.362 -0.0408 -0.0447 -0.0822
 6160W        W49176  33.998  29.578  26.570 -0.2688 -0.0162 -0.0725
 6161W        W49177   8.904  15.078  18.160 -0.3046  0.0151  0.0621
 6162W        W49178  23.387   0.741   4.013 -0.2012  0.2322  0.1049
 6163W        W49179  16.688  14.806   0.338  0.0061 -0.0357 -0.2968
 6164W        W49180  14.321  29.037  24.891 -0.0974 -0.0648  0.0400
 6165W        W49181  15.700  20.287   3.413 -0.1002 -0.1507 -0.1444
 6166W        W49182  13.122  27.085   4.432  0.3487 -0.0070  0.0385
 6167W        W49183  12.623  34.146   0.964  0.0618  0.2336  0.1612
 6168W        W49184  15.512  18.867  21.845 -0.0509 -0.0341 -0.0196
 6169W        W49185  26.296  23.728   1.660  0.0992  0.2146 -0.0677
 6170W        W49186  32.042  25.783   9.506 -0.0679 -0.0903 -0.1865
 6171W        W49187  16.400  34.566   4.420 -0.1517 -0.1944  0.1915
 6172W        W49188   4.596   5.346   3.516 -0.0260  0.0230  0.0399
 6173W        W49189  11.762  24.295  28.897  0.1633 -0.1534  0.1006
 6174W        W49190   7.946  17.392  28.284  0.1492  0.2838 -0.0445
 6175W        W49191  14.659  18.900  21.358  0.2167  0.0821  0.1625
 6176W        W49192  19.495  33.010  28.770  0.4015 -0.1772  0.0935
 6177W        W49193  12.306  17.662   4.901  0.0016  0.3886  0.0123
 6178W        W49194  17.627  23.550   3.760 -0.1989  0.2047  0.1132
 6179W        W49195   2.749  25.826  23.348 -0.1486 -0.2639 -0.2546
 6180W        W49196  20.745  24.447  24.685  0.0891 -0.1958 -0.1745
 6181W        W49197  16.796  22.267  25.845  0.0289 -0.0597 -0.3977
 6182W        W49198  28.138   0.454  11.396 -0.0446 -0.0005  0.0101
 6183W        W49199   5.442  33.592  28.469 -0.0069  0.5005  0.1121
 6184W        W49200   0.575  20.298  15.256  0.0016 -0.1736  0.1316
 6185W        W49201  24.830   3.398  22.919  0.0767  0.0147 -0.0467
 6186W        W49202  20.011  22.712  13.276 -0.1168  0.2813 -0.0514
 6187W        W49203  10.975   4.971  14.831  0.3556  0.1464  0.3403
 6188W        W49204  17.920   1.690   6.458  0.0361  0.1071 -0.3206
 6189W        W49205   7.853  22.092   7.663 -0.1803 -0.1825 -0.1895
 6190W        W49206  15.024   0.421   6.418  0.0630 -0.2263 -0.0591
 6191W        W49207   8.776  16.290  26.838  0.0941  0.2479 -0.0496
 6192W        W49208  17.508   2.443   5.507 -0.0295  0.0017 -0.0250
 6193W        W49209  11.653  16.438   6.462  0.1970 -0.3513 -0.1768
 6194W        W49210  29.751  24.563   5.351  0.0293 -0.1268 -0.1030
 6195W        W49211   5.722  24.816   5.748 -0.4333  0.2118 -0.1815
 6196W        W49212  15.482  29.239  25.588 -0.1308  0.0415 -0.2868
 6197W        W49213  14.826  32.812   9.960  0.0425 -0.2210 -0.0302
 6198W        W49214   7.077  27.310  25.444  0.4215 -0.0560  0.0411
 6199W        W49215  15.544  18.036  26.401  0.0546 -0.4260 -0.0838
 6200W        W49216  30.191  31.019  10.773 -0.3116 -0.1071 -0.1786
 6201W        W49217   5.509  34.590   6.476 -0.0363  0.0624  0.0203
 6202W        W49218  16.990  21.449  25.091  0.0287  0.2690  0.1218
 6203W        W49219  27.369  17.066  25.413  0.1196 -0.0450 -0.1560
 6204W        W49220  11.200  24.732  23.268 -0.1692 -0.0879  0.2616
 6205W        W49221  12.194  33.660  18.259 -0.1693  0.0340  0.1603
 6206W        W49222  26.893  22.556   1.201 -0.0347  0.0648  0.2244
 6207W        W49223  17.432  33.308   9.239  0.3068 -0.0660 -0.0338
 6208W        W49224  24.678  26.840   6.581 -0.0666 -0.0587 -0.3871
 6209W        W49225   8.769  18.433   3.288 -0.1299  0.2612 -0.0284
 6210W        W49226  29.716  21.173  28.493  0.1636  0.5857 -0.2976
 6211W        W49227  20.000  26.647   6.916 -0.2807 -0.2278 -0.1462
 6212W        W49228  19.402  15.949  26.788  0.2965  0.0618  0.0562
 6213W        W49229  19.725   0.067   5.285 -0.2015 -0.0565  0.0906
 6214W        W49230  23.159   7.102  19.884 -0.0720  0.1912  0.1481
 6215W        W49231  25.141   6.834   1.399  0.0235  0.0488 -0.0316
 6216W        W49232  23.852  30.307   9.770 -0.4560  0.1502  0.2085
 6217W        W49233  14.655  28.404   5.552  0.0411  0.1037 -0.1259
 6218W        W49234   7.519  27.550  25.529  0.0156 -0.1622  0.1434
 6219W        W49235   8.068  23.458   4.102  0.1915  0.0389  0.0676
 6220W        W49236  11.370  11.813  23.848  0.1619  0.2884  0.0433
 6221W        W49237  11.122  28.020   1.448  0.2285  0.3337  0.0413
 6222W        W49238  21.791  20.963   1.401  0.0802  0.0728 -0.0268
 6223W        W49239  24.562  17.512  29.146 -0.1395  0.2132 -0.0286
 6224W        W49240  31.551  34.603   5.821  0.2346 -0.0413 -0.0998
 6225W        W49241   9.271  28.569   2.724 -0.2028  0.1655 -0.1763
 6226W        W49242  15.998  29.058   9.784  0.1990  0.1925  0.2767
 6227W        W49243  31.003   0.637  28.675 -0.1752  0.3562  0.1782
 6228W        W49244  10.340  16.372   6.908  0.2864 -0.1936  0.1795
 6229W        W49245   7.651  29.080  25.196 -0.0162  0.1844  0.0797
 6230W        W49246  25.143  23.728   7.847  0.2049  0.1971  0.2170
 6231W        W49247  17.482  12.323   5.666 -0.2351 -0.1117 -0.0987
 6232W        W49248  14.542  22.079   4.363  0.0128 -0.0588 -0.3134
 6233W        W49249   4.683  13.622   7.328 -0.0845  0.0367 -0.0008
 6234W        W49250   7.762  29.511   5.379 -0.2233  0.4473 -0.0451
 6235W        W49251  13.771   1.743   7.299 -0.1779 -0.2228 -0.1220
 6236W        W49252  11.060  10.523  27.457 -0.3058 -0.0946 -0.3375
 6237W        W49253  12.878  18.322  28.791 -0.2223 -0.0256 -0.0884
 6238W        W49254  25.401  20.331   5.670  0.1481  0.0900  0.0837
 6239W        W49255  33.214   9.115  23.600 -0.2573  0.0019 -0.1386
 6240W        W49256  12.666   2.867   6.270 -0.0061 -0.0317  0.0581
 6241W        W49257  21.446  22.398   5.446  0.1147  0.0753 -0.0762
 6242W        W49258  25.473   9.827   8.230  0.3435 -0.2525 -0.2728
 6243W        W49259  16.457  17.399  23.655  0.0447 -0.3318  0.5777
 6244W        W49260  11.911  28.522   8.547 -0.0519 -0.3908 -0.2254
 6245W        W49261  10.670   3.943   3.298  0.2621  0.1044  0.0446
 6246W        W49262  10.548  16.386   3.365 -0.3023  0.3295 -0.1116
 6247W        W49263  15.843  24.817  20.000 -0.0950  0.0327 -0.1891
 6248W        W49264  10.629  32.922   8.693  0.0392 -0.0056  0.1280
 6249W        W49265   9.962  17.060   7.196 -0.0753 -0.0684  0.2130
 6250W        W49266   5.146  33.921  16.802  0.0485 -0.0663  0.1099
 6251W        W49267  18.747  25.884   9.599 -0.1761  0.1542 -0.1907
 6252W        W49268  26.233  22.805  29.285  0.1039  0.0093 -0.0475
 6253W        W49269   7.685  30.371   3.959 -0.0746  0.1398  0.0673
 6254W        W49270   5.844  27.422   5.676  0.2012 -0.0998 -0.0642
 6255W        W49271  10.860  33.117   4.645 -0.1553 -0.2634  0.1811
 6256W        W49272  24.217  14.493   9.915 -0.2685  0.0592 -0.0479
 6257W        W49273  12.786  25.516   9.107 -0.1439 -0.0539  0.0265
 6258W        W49274  15.020  25.174   4.089 -0.3023  0.3538  0.0777
 6259W        W49275  17.335  33.764  29.031 -0.4370  0.3063 -0.1165
 6260W        W49276  19.707  29.952   8.576  0.0624 -0.1424  0.0691
 6261W        W49277  34.746  10.334  18.491  0.1181  0.2185  0.3464
 6262W        W49278   5.093  26.301   7.332  0.0817  0.1663 -0.1745
 6263W        W49279  32.755  29.716  11.414 -0.0215  0.3026 -0.3409
 6264W        W49280  23.810  27.983   3.620 -0.2786 -0.3236 -0.0505
 6265W        W49281  28.263   1.078  10.616 -0.0325  0.0577  0.1337
 6266W        W49282  30.081   5.458  23.017 -0.2401 -0.1344  0.2552
 6267W        W49283   5.370   1.288   9.259  0.1519 -0.0254 -0.0427
 6268W        W49284  14.260  16.324   2.699  0.1420  0.2386  0.1433
 6269W        W49285  11.209   1.466   1.800  0.2139  0.0002  0.2380
 6270W        W49286  22.441  27.640   7.303  0.1518 -0.1410  0.1735
 6271W        W49287   4.492   6.086   7.194 -0.2892  0.1519  0.3044
 6272W        W49288   4.380   0.169  14.227  0.1226 -0.0661 -0.1198
 6273W        W49289   7.730  26.013  25.003 -0.3449  0.1141  0.3302
 6274W        W49290   5.250  25.311  23.508  0.1624 -0.0163  0.0220
 6275W        W49291  13.253  15.302   4.999  0.0124 -0.3135  0.1082
 6276W        W49292  19.358  13.584  27.369 -0.1191 -0.1613 -0.0607
 6277W        W49293   2.803  24.047  17.628 -0.1768  0.1660  0.2130
 6278W        W49294   6.079  18.594   1.206 -0.0434 -0.1202 -0.2364
 6279W        W49295  10.269  15.409   8.467 -0.0028  0.2728  0.1255
 6280W        W49296  11.913  23.167  25.396 -0.2402 -0.1334  0.2669
 6281W        W49297  33.212  12.568  28.799  0.1439  0.2111 -0.1533
 6282W        W49298  16.375  21.265  27.693 -0.0927  0.0941  0.3106
 6283W        W49299  21.122  28.035  27.895 -0.1680  0.0666 -0.0888
 6284W        W49300  12.582  23.966   7.149  0.0810 -0.0399  0.2660
 6285W        W49301  10.677  30.226   8.490 -0.2947  0.0806 -0.1806
 6286W        W49302  11.208   1.713   8.342 -0.1200  0.4336 -0.1422
 6287W        W49303  15.589  21.695  27.226 -0.1533  0.0567  0.0592
 6288W        W49304  23.195   1.415   3.451  0.2425  0.2698 -0.1437
 6289W        W49305   3.480   8.905  23.026  0.1337  0.3295  0.1416
 6290W        W49306  20.231  14.807   5.999 -0.0236 -0.2510  0.1758
 6291W        W49307   7.033  29.747   7.870  0.2308 -0.0369 -0.0078
 6292W        W49308   2.899  29.011   1.056 -0.0481 -0.2583  0.1540
 6293W        W49309  29.636  32.368   9.622 -0.0707  0.1550 -0.0968
 6294W        W49310  12.772  25.758   5.447  0.0354 -0.0645  0.1270
 6295W        W49311  10.671  27.827  27.905  0.4115 -0.0783  0.1260
 6296W        W49312  24.451  27.886  10.825  0.1721 -0.2742  0.3406
 6297W        W49313  23.575  25.405  16.024 -0.1314  0.0802 -0.2707
 6298W        W49314  30.379  25.858  11.160  0.0729 -0.0455 -0.0450
 6299W        W49315   9.466  31.112   1.163  0.0233  0.0060 -0.3531
 6300W        W49316  10.417  25.155  26.171  0.2373 -0.1070  0.2424
 6301W        W49317  18.492   8.531   5.528  0.0548 -0.0787  0.3069
 6302W        W49318  23.002  27.902   5.993  0.2296 -0.2545 -0.0283
 6303W        W49319  27.522  18.608   3.852 -0.1053  0.3715 -0.0549
 6304W        W49320  23.491   9.086   0.963  0.0216 -0.1951 -0.0435
 6305W        W49321  19.101  26.149  29.180  0.0410 -0.4218  0.1232
 6306W        W49322  22.044  14.715   8.854 -0.1751  0.1501 -0.2848
 6307W        W49323   8.324  28.466   6.722 -0.2021 -0.1901 -0.0628
 6308W        W49324  11.285  13.544   5.710  0.0897 -0.1539  0.0519
 6309W        W49325  11.716   0.158   0.363 -0.0213 -0.3360  0.2469
 6310W        W49326  21.053  16.815   6.611 -0.2280  0.0617  0.0421
 6311W        W49327  12.280   4.875   5.580  0.1450  0.0129  0.0592
 6312W        W49328  22.266   1.039   7.101  0.2488  0.1493 -0.3151
 6313W        W49329  18.832  23.935   6.476 -0.0488  0.0492 -0.1699
 6314W        W49330  21.033   5.734  26.423  0.0597 -0.0302 -0.0516
 6315W        W49331  22.255  33.509  19.287  0.1411  0.2170  0.1078
 6316W        W49332  16.076   6.106   1.293  0.1237 -0.2524  0.1229
 6317W        W49333  16.530  24.008   0.340  0.0869 -0.2488  0.4786
 6318W        W49334   3.965  26.354   7.054  0.0636  0.1652  0.2161
 6319W        W49335   1.424  24.637   8.067  0.1364 -0.4609  0.1547
 6320W        W49336  26.547  26.323  25.887 -0.4171  0.1107 -0.3165
 6321W        W49337   6.530  28.087   8.188  0.0610  0.0397 -0.0867
 6322W        W49338  12.359  25.185   8.128 -0.0584 -0.2176 -0.0373
 6323W        W49339  31.758  13.731  25.736 -0.1036 -0.2180 -0.2851
 6324W        W49340  15.059  16.350   8.425 -0.0865 -0.0150 -0.1556
 6325W        W49341   8.746  20.601  27.476 -0.2219 -0.2639 -0.0783
 6326W        W49342  20.531   9.671  24.108  0.2964  0.3217  0.1589
 6327W        W49343  13.031  23.635  21.701  0.0324  0.0525 -0.0204
 6328W        W49344  24.629   0.915   7.124  0.5954 -0.0943 -0.0080
 6329W        W49345  15.370  26.592   2.803 -0.1151 -0.3533 -0.1055
 6330W        W49346  28.067   0.871  25.698  0.0997  0.0672  0.1737
 6331W        W49347   9.318  25.730   5.182  0.1866 -0.1585  0.3059
 6332W        W49348  33.032  28.668   8.050  0.0491  0.4215  0.3919
 6333W        W49349  12.372   8.209  19.696 -0.0452 -0.0254  0.1075
 6334W        W49350   8.463  25.037   7.446 -0.0876 -0.2201 -0.1580
 6335W        W49351  16.501  28.361   8.224  0.1208  0.1163  0.1187
 6336W        W49352  20.963  25.482   0.199  0.0588  0.0820 -0.1957
 6337W        W49353  13.150  17.334  13.285 -0.0843 -0.1472 -0.0394
 6338W        W49354  27.141  17.855   1.144  0.1302 -0.0490  0.0691
 6339W        W49355  17.901  15.203   8.565 -0.0132 -0.0571 -0.2321
 6340W        W49356  14.154  25.767   3.024  0.1130  0.1735  0.0741
 6341W        W49357   6.106  23.103   4.495 -0.1196 -0.1539 -0.1956
 6342W        W49358   5.299  18.021  22.158 -0.3715  0.0253  0.0707
 6343W        W49359  16.315  17.179   1.276 -0.2363 -0.0813  0.1726
 6344W        W49360  11.218  29.808  23.237 -0.1375  0.1389 -0.1066
 6345W        W49361  17.792  22.545   8.722 -0.0622 -0.0293 -0.0531
 6346W        W49362  26.429  22.109   5.254 -0.1556 -0.3253  0.0696
 6347W        W49363  27.024  16.663   7.444  0.3888  0.0281 -0.0178
 6348W        W49364  30.092  21.795   0.446 -0.4657 -0.1824  0.0701
 6349W        W49365  24.242  14.384   9.453  0.0098 -0.1699  0.2784
 6350W        W49366  27.144  12.169   6.298 -0.0339 -0.1149 -0.0774
 6351W        W49367   6.729  31.179  28.429 -0.1046 -0.1689 -0.0059
 6352W        W49368   9.892  26.052   1.944  0.1175 -0.2528  0.1926
 6353W        W49369  10.193  19.628   4.714  0.1760 -0.1535  0.1225
 6354W        W49370   9.009  15.254  28.912 -0.0621 -0.2924  0.0362
 6355W        W49371  22.002  24.354   3.577 -0.1822 -0.0585  0.1895
 6356W        W49372  11.680  16.262  24.578  0.4033 -0.1059  0.2420
 6357W        W49373  18.667  17.918   3.060 -0.0120 -0.0531  0.0732
 6358W        W49374  17.565  29.916   0.651 -0.0724  0.0914 -0.0062
 6359W        W49375  20.447   5.344  25.779  0.1911  0.0900 -0.1592
 6360W        W49376  26.517  29.654  10.788 -0.2606 -0.0685  0.1104
 6361W        W49377   8.728  31.378   1.268  0.2824  0.0680 -0.1456
 6362W        W49378  21.677  18.319  21.787 -0.0721  0.0977 -0.0295
 6363W        W49379  10.722  18.679  23.306 -0.0403 -0.2222 -0.1598
 6364W        W49380  32.859  15.102  10.208  0.2821 -0.1914 -0.0027
 6365W        W49381  19.534  24.572  29.173 -0.0143 -0.0480 -0.3002
 6366W        W49382  10.094   4.510   7.805 -0.0948 -0.2920  0.2336
 6367W        W49383  22.959  33.137   0.176 -0.0928  0.0366 -0.0324
 6368W        W49384  14.075  29.095  28.077 -0.0603 -0.0367  0.3467
 6369W        W49385  14.353  22.566   7.650 -0.0886 -0.1893 -0.1643
 6370W        W49386  12.276  26.968   6.165  0.3093  0.2776  0.2690
 6371W        W49387  12.791  34.592   9.364  0.0620  0.2060  0.0957
 6372W        W49388  23.075  34.069   2.980 -0.0035  0.1278  0.1581
 6373W        W49389   8.139  13.062  27.340 -0.2052  0.2019 -0.0517
 6374W        W49390  21.728  32.854   4.826 -0.1517 -0.1009 -0.2179
 6375W        W49391  23.523   0.548  20.956  0.1330 -0.1307 -0.1391
 6376W        W49392  22.508   0.811   6.719 -0.0541 -0.0294 -0.2471
 6377W        W49393  18.019  33.298   7.209  0.1446 -0.4835 -0.0746
 6378W        W49394  14.662  17.846  15.831  0.0536  0.4079  0.2171
 6379W        W49395   9.246  13.958  16.633  0.1720 -0.1630  0.0695
 6380W        W49396   2.654   6.345  17.121 -0.0810  0.2246 -0.1752
 6381W        W49397  21.605  31.979   5.846  0.2132  0.1576 -0.0912
 6382W        W49398  17.002  15.142   3.070 -0.1340 -0.1299  0.3063
 6383W        W49399  13.999  33.055  18.387 -0.1230 -0.1615 -0.1991
 6384W        W49400   1.997  25.108   8.560  0.2424  0.1914 -0.1518
 6385W        W49401  17.782   0.732   6.584 -0.1919  0.2786  0.2297
 6386W        W49402   0.295   6.537   8.086 -0.0052  0.0314 -0.3679
 6387W        W49403  17.064  19.269   5.603  0.1931  0.1238  0.1475
 6388W        W49404   0.779  20.965   6.747  0.4756 -0.1654 -0.2482
 6389W        W49405  17.067   2.939   7.056 -0.0015 -0.1463  0.0582
 6390W        W49406  27.917  32.280   6.237  0.4857 -0.0016 -0.1947
 6391W        W49407  18.780  14.267  14.247 -0.0054 -0.0952  0.2110
 6392W        W49408   3.177  33.030   6.812  0.2682  0.1531 -0.2278
 6393W        W49409  15.950  29.894   0.732  0.1028  0.0554  0.0023
 6394W        W49410  11.292  10.954   0.992 -0.0880  0.0640 -0.0757
 6395W        W49411  17.867  28.588  19.279 -0.2775  0.0260 -0.0852
 6396W        W49412   3.419  23.514   2.935 -0.1376 -0.0598  0.1208
 6397W        W49413  19.276  24.220   5.929 -0.3804  0.3660 -0.1908
 6398W        W49414  27.648  12.847  16.869  0.2859  0.0830 -0.1725
 6399W        W49415  21.225  33.909  10.371 -0.1346 -0.0228 -0.1514
 6400W        W49416   6.666  16.802   5.928  0.0513 -0.0664  0.0003
 6401W        W49417   7.660  26.203   2.022 -0.0127  0.0196  0.3114
 6402W        W49418  19.806  29.384   0.073 -0.0647  0.1672  0.1698
 6403W        W49419   1.970  34.739  21.815  0.0879  0.0703  0.1258
 6404W        W49420   9.366  31.891   8.942  0.1299 -0.2340 -0.0613
 6405W        W49421  22.630  25.450  28.019  0.2384  0.1217  0.2151
 6406W        W49422  26.153  27.687   8.212  0.0118  0.2374 -0.0600
 6407W        W49423  19.651  28.327   6.611 -0.2940 -0.2478 -0.3422
 6408W        W49424   8.003   0.301   6.970  0.2307 -0.3450 -0.4342
 6409W        W49425  18.056  27.211   3.684 -0.1588 -0.0387  0.2033
 6410W        W49426  15.468  23.166   8.560 -0.1573 -0.2641 -0.0908
 6411W        W49427  19.791  32.576  27.110 -0.1754 -0.0474 -0.1212
 6412W        W49428  25.927  14.813  26.702  0.0095  0.0551 -0.0706
 6413W        W49429  11.237   1.319   2.949  0.0723 -0.2051  0.2227
 6414W        W49430   2.558  27.004   0.683 -0.0859  0.2578 -0.1241
 6415W        W49431  26.056  22.293   4.484 -0.0011  0.3573  0.2053
 6416W        W49432   6.389  30.741  27.798  0.2645  0.1112  0.0753
 6417W        W49433  33.954  21.716   4.783  0.1110  0.1388  0.0942
 6418W        W49434  21.936  22.007   4.823 -0.1283  0.0868 -0.0491
 6419W        W49435  12.011   2.676  17.742  0.1781 -0.0838 -0.1144
 6420W        W49436  29.395  15.374  23.509  0.3405  0.0942 -0.3235
 6421W        W49437   4.757  19.553   1.424  0.1966 -0.2248  0.2350
 6422W        W49438  18.563  18.440   5.243  0.1466  0.2080  0.0318
 6423W        W49439  20.880  23.972  29.091 -0.0907  0.2505  0.2308
 6424W        W49440  32.578  19.374  25.822  0.0310  0.0761 -0.0143
 6425W        W49441  17.780   4.925  28.876  0.0192 -0.3454 -0.2516
 6426W        W49442   2.056  30.671   7.748  0.0532 -0.0036 -0.0389
 6427W        W49443  19.053   9.063  24.534 -0.1210 -0.0318  0.2548
 6428W        W49444  24.613  29.423   9.735 -0.3014  0.0616 -0.0484
 6429W        W49445   8.835  33.783  29.076 -0.2600 -0.0439  0.0866
 6430W        W49446  18.328  10.294   6.314  0.1615 -0.2477  0.0603
 6431W        W49447  27.772  27.090   3.531 -0.1518 -0.2171 -0.0148
 6432W        W49448  11.671  16.621   3.501 -0.2748  0.0181 -0.0955
 6433W        W49449  23.118  13.799  27.390  0.0783 -0.0453 -0.0286
 6434W        W49450   2.991  33.779   6.638  0.0782  0.0359 -0.2456
 6435W        W49451  23.947  27.775   8.803  0.2504 -0.0950  0.2389
 6436W        W49452  16.032  34.453  27.836 -0.0683  0.0843  0.1255
 6437W        W49453  12.218   9.903   8.343 -0.2349 -0.1403  0.1157
 6438W        W49454  22.047   4.776  18.318  0.1334  0.1130  0.2204
 6439W        W49455  11.477  13.894  27.470  0.2821  0.1079 -0.0459
 6440W        W49456  14.527  31.379   9.806 -0.0957 -0.2473 -0.1021
 6441W        W49457  25.863   1.506   7.905 -0.0966 -0.1747 -0.0982
 6442W        W49458  16.358  31.185   0.351  0.0634 -0.0521 -0.3955
 6443W        W49459  20.361  29.168   4.676  0.1028 -0.4845  0.1427
 6444W        W49460  16.652   2.025   3.776  0.1429  0.0430  0.0645
 6445W        W49461  23.591   9.523   2.482  0.0183 -0.1390 -0.2146
 6446W        W49462  12.153  14.726   2.235 -0.0583 -0.0948  0.1675
 6447W        W49463   4.020   4.754  25.028  0.1805  0.3424  0.0706
 6448W        W49464  19.862  24.581  28.067 -0.2525  0.0496 -0.1215
 6449W        W49465  13.061  14.753  25.348 -0.0076 -0.1490 -0.1202
 6450W        W49466  18.700  19.493   2.168  0.2085  0.2965 -0.3114
 6451W        W49467   4.301  19.752   4.658  0.0495 -0.1056 -0.0844
 6452W        W49468  14.915  32.328   6.639  0.0800  0.0734  0.1952
 6453W        W49469   8.846   3.522   0.940  0.1399 -0.1292  0.1038
 6454W        W49470  16.920   4.985  23.840  0.0658 -0.2257 -0.2272
 6455W        W49471  21.231  27.498  25.487 -0.3117  0.0012  0.1362
 6456W        W49472  14.429  27.441  27.814 -0.0766 -0.2527  0.1428
 6457W        W49473  28.398  18.507  29.174 -0.0421 -0.2414 -0.0055
 6458W        W49474   3.034  19.738   8.191 -0.0975 -0.0341  0.2111
 6459W        W49475  29.061   9.611  27.747  0.0108 -0.2754  0.1010
 6460W        W49476  13.998   3.219   1.621  0.1282  0.1354 -0.1943
 6461W        W49477  12.267  25.584   8.993 -0.0532 -0.1004 -0.1547
 6462W        W49478  32.279  33.571   6.719 -0.0495 -0.1654  0.1680
 6463W        W49479  14.835  18.214  25.810  0.2243 -0.1118 -0.2054
 6464W        W49480  17.347   8.763   1.006  0.2296  0.0568 -0.0729
 6465W        W49481  13.919  16.755  13.065  0.1754  0.0782  0.0983
 6466W        W49482  28.581  28.636   1.721  0.2017 -0.0462  0.0562
 6467W        W49483   5.823   1.813   4.055  0.0291 -0.0675  0.0648
 6468W        W49484  11.769  17.395   3.018  0.1655  0.1534 -0.0729
 6469W        W49485  26.676  25.572  26.775  0.1792 -0.2896 -0.2760
 6470W        W49486   9.349  33.436   0.250  0.0468 -0.2363 -0.0164
 6471W        W49487  34.023  22.754   1.945 -0.1045 -0.0254  0.2044
 6472W        W49488  21.884   7.015  28.346 -0.2097 -0.0653 -0.0022
 6473W        W49489  21.536  29.056   1.689  0.0299  0.1705  0.0022
 6474W        W49490  27.659  18.078  28.003  0.0443  0.1435  0.0800
 6475W        W49491  18.106  28.488   6.475  0.2013 -0.3497  0.1358
 6476W        W49492   7.908  11.565   9.882  0.2550 -0.0168 -0.0074
 6477W        W49493  10.147  32.986   6.199 -0.0998 -0.0479  0.1703
 6478W        W49494  15.793   2.769   9.531 -0.0379 -0.4442 -0.3149
 6479W        W49495  25.412  23.612   7.458 -0.1024 -0.1536 -0.4155
 6480W        W49496   6.995  26.807  28.914  0.1627  0.0939 -0.0252
 6481W        W49497  15.406   1.367   7.519  0.0054 -0.0991 -0.1496
 6482W        W49498   9.350  23.219   7.842  0.3135 -0.3949 -0.1216
 6483W        W49499  11.980  21.251   4.790 -0.1552  0.2019 -0.2186
 6484W        W49500   3.488  20.365   6.428 -0.0026  0.0165  0.2309
 6485W        W49501  13.955  17.595   1.171  0.0576 -0.1042 -0.2245
 6486W        W49502   8.963  16.168   5.033  0.1813 -0.1297 -0.0933
 6487W        W49503  17.160  28.146   6.334 -0.5708 -0.0252  0.2143
 6488W        W49504  22.236  28.291  10.203  0.1281  0.2679 -0.0155
 6489W        W49505  24.395  27.996   3.121  0.0668 -0.0284  0.5011
 6490W        W49506  14.869  29.476   9.499 -0.0661 -0.3559 -0.3545
 6491W        W49507  12.490  24.566   7.411 -0.3408 -0.2032  0.2713
 6492W        W49508  22.519  30.829  27.123  0.0429  0.1211 -0.1066
 6493W        W49509  27.639  21.386   4.153 -0.3185  0.1287 -0.0510
 6494W        W49510   4.951  27.765   5.997 -0.0481  0.0555 -0.1298
 6495W        W49511  30.226  15.205   3.378 -0.2257 -0.2984  0.1488
 6496W        W49512  13.479  16.452  28.200  0.1275 -0.0059 -0.1159
 6497W        W49513  18.331   0.173  28.081 -0.1286  0.0320  0.0729
 6498W        W49514  16.774  21.947  20.388  0.1533 -0.1463  0.0654
 6499W        W49515  14.724   0.604   9.042 -0.1938  0.1507 -0.0084
 6500W        W49516   8.657  30.613   9.187  0.2020  0.3639 -0.1153
 6501W        W49517  16.642  26.449  21.524 -0.2417  0.0558 -0.0611
 6502W        W49518  23.563  16.415   5.324 -0.0557  0.1341  0.0157
 6503W        W49519  25.289  19.860   7.278  0.2498 -0.1506  0.1829
 6504W        W49520  32.621   7.795   5.695  0.3554  0.5257 -0.4320
 6505W        W49521  22.199  22.638   9.973  0.0525  0.1257 -0.1957
 6506W        W49522   8.485  25.286   3.533 -0.1087  0.3592  0.1783
 6507W        W49523  11.651  26.036  23.014 -0.0209 -0.0082  0.2623
 6508W        W49524  25.350  30.400  11.072 -0.1260  0.1602  0.2062
 6509W        W49525  33.829   0.682   2.426 -0.0283  0.0617 -0.2316
 6510W        W49526  16.008  15.517   7.644 -0.1626  0.1883 -0.2270
 6511W        W49527   1.842  22.562  25.690 -0.1225 -0.0527 -0.1835
 6512W        W49528  11.813  18.068  27.790  0.2462 -0.0720  0.0964
 6513W        W49529  16.071  23.739  20.725  0.2782  0.1508  0.1922
 6514W        W49530  14.313  15.238  21.368 -0.1849  0.0472  0.1243
 6515W        W49531  19.679  20.925   4.691  0.0712 -0.0504 -0.0455
 6516W        W49532  16.081  11.762   5.905 -0.1420  0.1616 -0.4129
 6517W        W49533   3.399  25.647   2.646  0.0971  0.0404 -0.0075
 6518W        W49534   6.407  19.977   0.006 -0.2349  0.2383  0.1875
 6519W        W49535  22.199  26.460   8.571 -0.0982  0.1096  0.2265
 6520W        W49536  23.881  15.949   7.227 -0.0481 -0.1876  0.0749
 6521W        W49537  11.814  26.411   4.713 -0.0232  0.1466 -0.0309
 6522W        W49538   9.940   3.401   0.335 -0.0423 -0.0045 -0.4119
 6523W        W49539   4.152  26.930   4.087 -0.0774  0.2309  0.2337
 6524W        W49540  11.087  34.672  28.568 -0.3145 -0.0094 -0.1235
 6525W        W49541  22.161   0.600   6.364 -0.4746  0.1219 -0.1669
 6526W        W49542  11.653  33.195   8.745  0.2843  0.1591  0.1187
 6527W        W49543  19.226  12.649   7.151 -0.3755 -0.0575 -0.1045
 6528W        W49544  22.975  32.303   4.983 -0.2131 -0.1356 -0.0783
 6529W        W49545  16.445   6.154   6.397  0.0632  0.3423  0.2344
 6530W        W49546  11.589   8.629   3.580  0.1427 -0.3212  0.4346
 6531W        W49547  29.837  22.590  11.118  0.0234 -0.1234 -0.1143
 6532W        W49548  34.061  20.543  24.550  0.0660 -0.1652  0.2504
 6533W        W49549   9.335   3.276  26.338  0.0034 -0.1893  0.0046
 6534W        W49550   5.723  20.494   8.578  0.0586  0.2585 -0.1653
 6535W        W49551  18.520  27.327   3.639  0.4463  0.1226  0.1222
 6536W        W49552  20.585  10.514   8.891 -0.0900  0.0071  0.2461
 6537W        W49553  21.062  18.851   4.417  0.4209  0.1337  0.2374
 6538W        W49554   9.684  19.124  25.762  0.1210  0.1269 -0.2335
 6539W        W49555  16.732  26.795   7.358 -0.0689  0.1915  0.2300
 6540W        W49556  34.597  34.051  20.872  0.1875 -0.2913 -0.1028
 6541W        W49557  18.514  27.021   0.718 -0.1768 -0.1889  0.1021
 6542W        W49558   7.263  25.643   5.172 -0.1003  0.1058 -0.2624
 6543W        W49559  34.420   4.790   3.968  0.1155 -0.1225  0.0815
 6544W        W49560  16.443   1.971   5.586  0.0365 -0.2170  0.1088
 6545W        W49561  20.616  21.524   2.282 -0.2994 -0.1644 -0.0589
 6546W        W49562   3.361  25.842  27.280 -0.1184  0.0323 -0.2351
 6547W        W49563  26.821  22.074   0.233  0.0156  0.2467 -0.3732
 6548W        W49564   7.748  18.950  18.186 -0.1720 -0.3761 -0.2506
 6549W        W49565  19.302  20.216  28.756 -0.0472  0.2761  0.0953
 6550W        W49566  16.088   1.865  25.446 -0.3123  0.2673 -0.0868
 6551W        W49567   4.881  34.078  10.607  0.0346  0.3728  0.0556
 6552W        W49568  10.035  19.185   7.578  0.0971 -0.2473  0.2176
 6553W        W49569  32.387   4.643   8.460  0.1613  0.4064  0.1872
 6554W        W49570  15.876  16.270   0.416 -0.2592 -0.0355 -0.2905
 6555W        W49571   6.949  24.556   0.582 -0.0684  0.1650  0.2318
 6556W        W49572  12.090   4.393   0.099  0.0424  0.2008 -0.0436
 6557W        W49573  17.026  30.462   2.306  0.0790 -0.0937 -0.0038
 6558W        W49574   7.676  27.066   7.470  0.4563  0.1741 -0.2351
 6559W        W49575  29.388  13.030   9.848  0.1474 -0.2204 -0.2142
 6560W        W49576  22.186   0.004  24.813 -0.3179  0.0148 -0.1098
 6561W        W49577  12.568  25.110   3.346  0.2732 -0.2616 -0.0647
 6562W        W49578   9.934  24.875   5.338 -0.0970 -0.2388  0.0115
 6563W        W49579   5.260  31.076   9.133 -0.0063  0.1127  0.1802
 6564W        W49580  10.946  11.882   5.137  0.0500  0.0228  0.1022
 6565W        W49581  19.633  16.465  27.434  0.2793  0.3465 -0.1472
 6566W        W49582   0.436  31.291   9.632 -0.0300  0.0478 -0.1635
 6567W        W49583  14.092  15.432   4.544 -0.0343 -0.2027 -0.2138
 6568W        W49584  21.018  29.145   6.420 -0.3177  0.7207 -0.0179
 6569W        W49585  15.847  31.470   0.135 -0.0966 -0.3584 -0.2919
 6570W        W49586  20.717  33.373   9.305  0.0150 -0.1229  0.0668
 6571W        W49587  13.766  25.037  23.408 -0.0768 -0.0755  0.3245
 6572W        W49588  20.021  33.793   5.345 -0.0844  0.0599  0.1741
 6573W        W49589  27.619  18.271   8.076 -0.0021  0.2723  0.0035
 6574W        W49590  14.424   3.761  27.817  0.0521  0.1713 -0.3506
 6575W        W49591   9.859  20.941  28.499 -0.1929  0.3472 -0.0643
 6576W        W49592  20.496  17.830   1.307 -0.0460  0.2710  0.1925
 6577W        W49593  31.057   6.984   9.721  0.0318  0.2128 -0.1609
 6578W        W49594  16.345  19.350  20.908  0.0714 -0.3941  0.0696
 6579W        W49595   6.611  21.896   4.792  0.1185  0.1609 -0.2121
 6580W        W49596  22.692  21.706   8.147  0.1514 -0.0757 -0.0212
 6581W        W49597  21.314  19.981   1.066 -0.2447  0.1014 -0.2520
 6582W        W49598  17.277   7.892   8.086  0.2968  0.2104 -0.1035
 6583W        W49599  19.975  19.315  25.613 -0.2620  0.1963  0.1614
 6584W        W49600  26.362   1.595  27.162  0.1262 -0.1607 -0.1741
 6585W        W49601   4.017  21.083   8.107 -0.0622  0.3392  0.2315
 6586W        W49602  13.278  15.284   2.906 -0.0473  0.2960  0.0441
 6587W        W49603  18.949  29.364  24.237  0.0138  0.0541 -0.2106
 6588W        W49604  18.389  17.935  13.402 -0.4272 -0.0425  0.0065
 6589W        W49605  19.713  25.022   7.018 -0.2952 -0.2493 -0.0369
 6590W        W49606  16.233  31.539  25.565 -0.1648 -0.0143  0.0535
 6591W        W49607  17.082   2.334   5.979 -0.1976  0.3130  0.0935
 6592W        W49608  27.617  12.942   2.512  0.2152  0.0961  0.1035
 6593W        W49609  15.850  27.825   0.972  0.0189 -0.0139 -0.1392
 6594W        W49610  31.204  21.006  11.657  0.0239  0.0247  0.0172
 6595W        W49611   8.094  18.515   7.526 -0.2267  0.0688 -0.1362
 6596W        W49612  15.606  26.113  28.512 -0.1154 -0.1213  0.0444
 6597W        W49613  21.006  19.045   0.858  0.3287  0.1705  0.0398
 6598W        W49614  17.922  33.459   3.227 -0.3185  0.1064  0.0020
 6599W        W49615  18.717  14.084  27.169  0.0417  0.0233 -0.3443
 6600W        W49616   6.176  29.234  26.676  0.0465 -0.0857 -0.1341
 6601W        W49617   5.573   2.608  14.404  0.1780  0.1035  0.0600
 6602W        W49618   3.327  18.593   1.540 -0.3354  0.4476  0.1331
 6603W        W49619  14.273  31.923  28.708  0.0050 -0.2275  0.2742
 6604W        W49620  27.364   6.491   3.102 -0.3350  0.4807 -0.0831
 6605W        W49621  21.687  22.887   8.554 -0.0541  0.0922  0.2298
 6606W        W49622  16.181  31.904  19.026  0.1714 -0.1709 -0.0695
 6607W        W49623  15.083  21.243  25.611  0.1896 -0.0213 -0.1311
 6608W        W49624  32.006  14.749   1.881  0.2643 -0.1960  0.1486
 6609W        W49625  19.527  17.052  27.346 -0.1598 -0.0387  0.1421
 6610W        W49626   4.822   3.014  28.496 -0.2254  0.0035  0.0576
 6611W        W49627  11.651   7.954   8.095  0.3174  0.5011 -0.4396
 6612W        W49628  10.226  34.515  18.477 -0.0262  0.0917  0.1439
 6613W        W49629  33.360  22.030   1.618 -0.3689  0.1522 -0.1486
 6614W        W49630  18.143  23.896   7.673  0.1326 -0.0420 -0.1808
 6615W        W49631   4.979  20.998   8.327 -0.2483 -0.0093  0.2746
 6616W        W49632  14.203  28.571   5.658  0.2637  0.0839 -0.2030
 6617W        W49633  17.302  32.962   8.166 -0.0654 -0.2491 -0.0761
 6618W        W49634  32.624  27.087   9.508  0.2016 -0.2143  0.2340
 6619W        W49635   9.611  34.690   6.916  0.0051 -0.1172  0.0971
 6620W        W49636  18.167  24.814  24.586 -0.0098 -0.1881  0.3271
 6621W        W49637  30.557  20.449   9.183  0.0042  0.0281  0.2601
 6622W        W49638  11.752  26.908  26.523 -0.1172 -0.2951  0.0001
 6623W        W49639   1.036  32.626  18.392  0.0209  0.0472  0.1357
 6624W        W49640  16.565  31.597   7.668 -0.1292 -0.0746  0.0170
 6625W        W49641  25.739  16.887   8.027  0.1231 -0.1187  0.0858
 6626W        W49642  18.328  22.647   2.787  0.0542  0.1579  0.2712
 6627W        W49643  18.878   3.196  25.994  0.3106 -0.0829 -0.1248
 6628W        W49644   1.397  30.792  25.088 -0.0148 -0.3095  0.1071
 6629W        W49645   3.546  24.228   1.369  0.2127  0.0398  0.0860
 6630W        W49646  30.105  24.493  21.171 -0.0452  0.2944 -0.1332
 6631W        W49647  15.580  22.402   7.316 -0.1151 -0.0207  0.1514
 6632W        W49648  13.134  26.678   7.215  0.2894  0.1300  0.0408
 6633W        W49649   3.277  26.308   9.212 -0.1694  0.0883  0.0077
 6634W        W49650   6.252  15.511  28.632 -0.0748 -0.0215  0.1052
 6635W        W49651  11.752  23.938   3.511  0.0929 -0.2024  0.1899
 6636W        W49652  16.432  26.208  22.818 -0.1450 -0.4232 -0.2324
 6637W        W49653  12.521  18.869   5.551  0.1701  0.1136 -0.4053
 6638W        W49654  20.594  27.153   7.935 -0.1106 -0.3690 -0.0564
 6639W        W49655   7.919  31.394   3.744  0.0087 -0.0006 -0.0478
 6640W        W49656  10.724  14.384  15.810  0.2526  0.0355  0.1078
 6641W        W49657  13.033  27.050   3.063  0.0708  0.0777  0.0789
 6642W        W49658  15.878  26.278   2.292  0.1541  0.3640 -0.1764
 6643W        W49659  34.004  22.116   4.529  0.1979  0.0555 -0.2075
 6644W        W49660  14.975  31.265  25.484  0.0358  0.0682 -0.0417
 6645W        W49661  29.422  28.275   7.273  0.2986 -0.2566 -0.0245
 6646W        W49662  23.308  24.528   5.326 -0.0615  0.1104 -0.2334
 6647W        W49663   8.264  17.620  28.683 -0.2312  0.2240 -0.1345
 6648W        W49664   5.668   0.954  10.207 -0.2444  0.0851  0.2576
 6649W        W49665  23.399  30.416   9.412 -0.0243  0.0481  0.2467
 6650W        W49666   2.904  25.415   7.904  0.1490  0.1237 -0.0032
 6651W        W49667   7.215  28.983   2.831 -0.3697 -0.1593  0.1242
 6652W        W49668  15.780  33.834   3.201 -0.0003 -0.1547  0.0006
 6653W        W49669  30.257  17.989   7.831 -0.0221 -0.0455  0.0647
 6654W        W49670   6.739  25.561   1.790  0.0251 -0.0822  0.1840
 6655W        W49671  17.309  16.676   7.947 -0.0307 -0.0312  0.0198
 6656W        W49672  22.887  30.485   9.464 -0.0868  0.1580 -0.1247
 6657W        W49673   4.102   3.747   0.818  0.0307  0.0846 -0.1652
 6658W        W49674   3.705  31.857  26.120 -0.2645  0.1553 -0.1242
 6659W        W49675  17.694   2.603  27.434 -0.0995 -0.1574  0.0127
 6660W        W49676  19.433  16.910  25.772  0.2943  0.1792 -0.0530
 6661W        W49677  14.045  20.853  27.113 -0.1052  0.6030 -0.0379
 6662W        W49678  15.897   3.550   1.910 -0.0636 -0.0462  0.0812
 6663W        W49679  30.722  28.870   8.366  0.0541  0.0552  0.0945
 6664W        W49680  13.841  16.683   5.893 -0.1883  0.0190  0.1289
 6665W        W49681  20.858  30.655   6.374  0.0705 -0.0183  0.1403
 6666W        W49682   7.755  31.693   1.416  0.2429 -0.3074 -0.1483
 6667W        W49683  28.292  16.045   7.622  0.1538  0.1845 -0.0545
 6668W        W49684  15.227  12.377  23.610 -0.1688  0.0250 -0.3806
 6669W        W49685  21.201  15.196  28.883  0.2978  0.1323 -0.3188
 6670W        W49686  20.493   1.835   5.700 -0.1032 -0.1613  0.0779
 6671W        W49687  29.169  25.654   8.778  0.0049  0.0471 -0.0495
 6672W        W49688   8.607  26.890  28.758  0.0719  0.2336 -0.0348
 6673W        W49689  34.749  33.625   4.805 -0.2250  0.0393 -0.1185
 6674W        W49690  24.231  28.678   8.208 -0.0564 -0.1802 -0.1056
 6675W        W49691  20.491   2.138   8.842  0.2566  0.0704 -0.0750
 6676W        W49692  25.767  21.094   2.700 -0.0756 -0.1843 -0.1512
 6677W        W49693   9.158  19.933  28.777 -0.0322 -0.1948  0.0428
 6678W        W49694  22.561  11.506   5.988 -0.3429  0.2193 -0.1330
 6679W        W49695   9.720  29.554   7.948 -0.3219 -0.0837 -0.1039
 6680W        W49696  12.416  20.391   2.921 -0.0786 -0.0564  0.0401
 6681W        W49697  17.416  16.672  25.898 -0.0100 -0.0203 -0.1655
 6682W        W49698   2.170  13.670   4.180 -0.0527 -0.0603  0.0942
 6683W        W49699  13.821  32.536   5.366 -0.0257  0.0071  0.0284
 6684W        W49700  18.693  15.370   4.201  0.1199  0.0068 -0.2174
 6685W        W49701  12.992  18.466   1.386  0.0826  0.1421  0.3588
 6686W        W49702  19.237  12.346   6.363 -0.0133  0.0052  0.0362
 6687W        W49703  19.494  17.824  22.673 -0.0294 -0.0664 -0.1828
 6688W        W49704  14.033  20.558  27.856 -0.1385 -0.1348  0.1001
 6689W        W49705  24.885   2.340   9.310 -0.0081  0.0988  0.0405
 6690W        W49706  25.579  13.030   4.505 -0.0869  0.0633  0.2033
 6691W        W49707  22.061  16.131  26.529 -0.1304  0.0078  0.2149
 6692W        W49708   0.796   1.981   9.986  0.0669 -0.1554  0.2016
 6693W        W49709  22.413  32.557   6.925  0.1428  0.0143  0.4039
 6694W        W49710  20.786  15.710   3.797  0.1722 -0.1666  0.1674
 6695W        W49711   7.284  26.570   0.978  0.0728  0.0422 -0.4631
 6696W        W49712  10.301   3.483   4.990 -0.3335  0.3330 -0.1258
 6697W        W49713   0.154   7.743  20.476  0.2951 -0.0051  0.3391
 6698W        W49714  31.568  21.341  20.480  0.4776  0.2473  0.2332
 6699W        W49715  12.167  25.679   1.767  0.1418  0.1077  0.0145
 6700W        W49716  22.711  22.274  22.223 -0.0577 -0.0640  0.1291
 6701W        W49717  19.105  33.907  10.574 -0.1339 -0.1088 -0.1380
 6702W        W49718   6.994  16.850  27.581 -0.4909  0.0711 -0.3385
 6703W        W49719  21.060  32.072   5.366 -0.0572  0.3365  0.0042
 6704W        W49720  22.084  20.932   5.951 -0.2207  0.0838  0.2526
 6705W        W49721  29.611  32.962   1.093 -0.0421 -0.2414  0.0651
 6706W        W49722  12.368  23.953  23.718 -0.0722  0.1509  0.0248
 6707W        W49723  18.581  34.291   7.210 -0.1773 -0.2125 -0.0424
 6708W        W49724  19.421  20.122   1.254 -0.0390 -0.3387  0.0916
 6709W        W49725  14.143  13.330   3.495  0.0181  0.1013 -0.3653
 6710W        W49726  31.131  23.111  16.133  0.1346 -0.2511 -0.1987
 6711W        W49727  22.706  16.056   5.873  0.3318 -0.3120 -0.0980
 6712W        W49728   9.807  21.393  18.278  0.3428  0.1363  0.2305
 6713W        W49729  15.631  31.649   0.755 -0.1836  0.0910  0.1817
 6714W        W49730  13.189   7.902  20.705  0.1557 -0.0183 -0.0321
 6715W        W49731  14.164  13.723   4.428 -0.0093  0.3776 -0.2269
 6716W        W49732  18.511  27.533  26.644  0.1051  0.1305  0.0875
 6717W        W49733  14.631   5.726   7.159 -0.0350 -0.0327  0.3501
 6718W        W49734  23.258  34.247   8.401  0.1663  0.0894 -0.0061
 6719W        W49735  20.468  17.414  28.438  0.1347 -0.0619  0.3281
 6720W        W49736   7.324  32.282   7.813  0.3649 -0.0233 -0.0565
 6721W        W49737  18.349  23.119   0.864 -0.0325  0.1284 -0.2113
 6722W        W49738  19.253   5.620   1.356  0.0122  0.0603  0.0022
 6723W        W49739  15.443  25.948   3.470  0.4464  0.2870 -0.1405
 6724W        W49740  21.530  23.792   1.408  0.0565 -0.3963 -0.1550
 6725W        W49741  33.152  25.532   4.827  0.1139  0.0180 -0.0895
 6726W        W49742  12.722  11.828  25.809 -0.1181 -0.0489  0.8150
 6727W        W49743  12.984  32.649   2.804  0.1290  0.3800 -0.0122
 6728W        W49744  15.188  17.754  14.497  0.0450  0.1382  0.1584
 6729W        W49745  11.255  16.060   5.485  0.0711  0.2309  0.0451
 6730W        W49746  26.161   9.018   4.471  0.2010  0.3289 -0.2164
 6731W        W49747  24.321   4.721   2.695  0.1851 -0.5110  0.0459
 6732W        W49748   9.057  16.063   1.865  0.2175 -0.3135 -0.1201
 6733W        W49749  17.726  25.413   3.732 -0.1307  0.1517 -0.1211
 6734W        W49750  27.001   4.236  11.210  0.1773  0.0604  0.0601
 6735W        W49751   8.913   2.936   4.725  0.2850  0.3465  0.2339
 6736W        W49752   3.425  28.004  22.082 -0.2440  0.2441 -0.0014
 6737W        W49753  22.075  30.138  23.044 -0.0140 -0.0677 -0.5622
 6738W        W49754  13.776  26.218   9.192  0.3134 -0.2451 -0.2970
 6739W        W49755   8.907  31.973   3.081 -0.1500  0.2634  0.0337
 6740W        W49756  31.916  33.595  22.715  0.2303 -0.0727  0.1260
 6741W        W49757   3.325  16.831   1.587  0.1411 -0.1435 -0.0907
 6742W        W49758  24.920   5.765  10.775 -0.2357  0.0195  0.1814
 6743W        W49759   9.103  26.096  22.650 -0.0531 -0.0376  0.2266
 6744W        W49760  17.158  33.385   4.283 -0.2469 -0.0241 -0.0568
 6745W        W49761  28.331  33.871  17.960  0.3105 -0.1019  0.0949
 6746W        W49762  26.437  21.927   2.155  0.1474  0.1960 -0.0225
 6747W        W49763  24.131  28.754   5.939  0.1967 -0.1644 -0.2605
 6748W        W49764  18.245  17.008  22.569 -0.0243  0.0966 -0.2348
 6749W        W49765  14.479  23.855  28.683 -0.1072 -0.1533  0.3464
 6750W        W49766  15.402  25.396  25.461  0.1017 -0.1873  0.0556
 6751W        W49767   4.130   1.817   2.598  0.1065 -0.2159 -0.0464
 6752W        W49768  13.206  31.163   9.763  0.1612 -0.1432  0.1695
 6753W        W49769  20.001   1.872   2.934  0.4907  0.1655  0.1723
 6754W        W49770  17.622  26.677   5.371  0.1582  0.2364 -0.0037
 6755W        W49771  16.876  21.112   1.718 -0.2059  0.0854 -0.1235
 6756W        W49772  31.800  22.600   2.620 -0.1364  0.3662  0.1030
 6757W        W49773   8.426   1.914  10.817 -0.1320 -0.1458 -0.0343
 6758W        W49774   6.575  33.212   9.344  0.5178 -0.1087  0.0918
 6759W        W49775  34.106  31.012  27.449  0.1847 -0.4772  0.4421
 6760W        W49776  34.081  25.573   6.688 -0.0672 -0.0965 -0.4243
 6761W        W49777  13.406  11.843  26.858  0.1315 -0.3188  0.1402
 6762W        W49778  15.448  18.569   6.210  0.2760  0.2398 -0.0591
 6763W        W49779  26.569  19.809   2.464 -0.2628 -0.2431 -0.4712
 6764W        W49780  12.812  10.854  28.169 -0.1114  0.0847 -0.3905
 6765W        W49781  25.619  23.898   5.238  0.0819  0.0059 -0.0118
 6766W        W49782   2.949  30.125  25.300  0.0099 -0.0284  0.2125
 6767W        W49783  17.805  25.843   5.171 -0.1357  0.1629  0.0926
 6768W        W49784  17.191  21.252  15.729  0.1111 -0.0089  0.1115
 6769W        W49785   6.422   5.663  25.267  0.2632  0.1414  0.1152
 6770W        W49786  12.312  11.386  16.272 -0.0455  0.0262  0.1857
 6771W        W49787  13.063  22.422  27.413 -0.1748  0.1755  0.1428
 6772W        W49788  18.155  32.990  28.472 -0.1980 -0.1549 -0.3606
 6773W        W49789  16.274  15.630   6.660  0.1635  0.3852 -0.0205
 6774W        W49790  31.318  25.720  10.755 -0.1361  0.1602 -0.0890
 6775W        W49791   3.396  28.246   9.015 -0.2548  0.1310 -0.1692
 6776W        W49792   9.553  18.115   1.678 -0.1703 -0.1521  0.1904
 6777W        W49793   8.967  12.578  17.690 -0.1470 -0.1596 -0.1636
 6778W        W49794   8.345  15.614   0.819 -0.2630  0.1006 -0.3600
 6779W        W49795  22.300   8.341   7.732 -0.2017 -0.0011  0.0847
 6780W        W49796  15.012  29.379   5.922 -0.4223 -0.1150 -0.1543
 6781W        W49797  14.653  25.546  26.591 -0.1993 -0.0964  0.2343
 6782W        W49798  22.362  23.558   0.458 -0.1528  0.1538 -0.3830
 6783W        W49799  15.814  31.818   9.046  0.0175 -0.0431  0.2839
 6784W        W49800  24.459  15.374  18.450 -0.1226  0.0863  0.1334
 6785W        W49801   7.387  18.748  26.853  0.3719  0.2156  0.0149
 6786W        W49802  14.353  22.987   1.958 -0.0277  0.0451 -0.0950
 6787W        W49803  14.615   4.065   8.023 -0.0299  0.4072  0.0177
 6788W        W49804  15.460  15.534   1.759  0.1326 -0.0219 -0.4027
 6789W        W49805  16.548  29.491  10.556  0.2634  0.1090  0.2704
 6790W        W49806   9.323  31.942  25.666 -0.2146  0.0290  0.1535
 6791W        W49807  24.100  19.361   2.004  0.2027  0.0598 -0.3947
 6792W        W49808  10.646  30.918   2.972 -0.0231 -0.1741 -0.0994
 6793W        W49809  25.225   5.795   1.999  0.0283  0.0814 -0.2107
 6794W        W49810  13.098  33.067   6.360 -0.0912 -0.3030  0.2887
 6795W        W49811  14.415  29.589   7.548 -0.1080  0.1111 -0.1060
 6796W        W49812  20.436  34.194  24.557 -0.0300 -0.1184  0.4555
 6797W        W49813   4.041   3.587  23.444  0.0601  0.0184  0.2394
 6798W        W49814  15.560   3.687   1.054  0.0054  0.2228  0.2633
 6799W        W49815   1.047  23.335   0.444 -0.0132  0.0910  0.2552
 6800W        W49816  16.910   6.965   6.122  0.1084 -0.0168 -0.2243
 6801W        W49817   8.489  17.411  25.607 -0.3700  0.0259  0.2802
 6802W        W49818   7.162   7.041   1.165  0.1906 -0.2349 -0.1574
 6803W        W49819  27.348   1.771   5.959  0.1865 -0.3209  0.2021
 6804W        W49820  18.852   3.515   9.479  0.2166 -0.1461 -0.0565
 6805W        W49821   6.510  19.272  14.849  0.0226 -0.1142  0.0939
 6806W        W49822   2.554   3.132  28.033  0.1179 -0.1462 -0.1021
 6807W        W49823   8.855   3.829  23.190 -0.1706  0.1486  0.0329
 6808W        W49824  15.846  33.764   1.348  0.2570  0.0829  0.0626
 6809W        W49825  16.402   8.629  29.314  0.0384 -0.1239  0.1595
 6810W        W49826  20.115  31.372   5.961  0.1007 -0.0364 -0.0491
 6811W        W49827  16.441  34.560   8.340  0.2888  0.0760 -0.2249
 6812W        W49828  27.388  17.553  27.832 -0.0241 -0.0860  0.0150
 6813W        W49829  31.774  19.788   3.774 -0.0913  0.0159  0.1582
 6814W        W49830  19.370   0.416   7.972 -0.1029  0.0625  0.1449
 6815W        W49831  16.057  25.299   8.797 -0.1412 -0.1481  0.0634
 6816W        W49832  12.036  26.250   7.282  0.0978 -0.0733 -0.4695
 6817W        W49833  11.362  34.384  15.298 -0.0375 -0.2726 -0.0835
 6818W        W49834   2.040  18.947  14.566 -0.0833 -0.0650 -0.2040
 6819W        W49835  13.254   7.011   0.775  0.3386  0.1352  0.2589
 6820W        W49836  22.241  32.937   5.981  0.1666 -0.3468 -0.2340
 6821W        W49837  31.393  25.083   1.940  0.0204  0.0387 -0.1271
 6822W        W49838  13.220  32.370   1.482  0.1378  0.0248  0.0192
 6823W        W49839  26.453  22.640  28.863 -0.1084 -0.0122  0.2378
 6824W        W49840  10.377  32.760  25.112  0.0574  0.0210 -0.1198
 6825W        W49841  12.395  26.229   6.158  0.1174 -0.4860 -0.1268
 6826W        W49842  16.756  20.693  26.849  0.1293 -0.0040  0.1995
 6827W        W49843   7.825   7.797   2.067  0.0653  0.0690  0.0577
 6828W        W49844  20.785   2.948   7.026  0.0631 -0.0090 -0.1292
 6829W        W49845   6.298  19.870   6.442 -0.0338  0.0293  0.1797
 6830W        W49846  24.506   9.459   9.284 -0.0825  0.0253 -0.1323
 6831W        W49847  17.810   1.757   7.741  0.3237 -0.0705 -0.0184
 6832W        W49848  15.747   8.725  24.907 -0.2020  0.1852  0.0462
 6833W        W49849  20.860  19.582  21.297 -0.1272  0.2365  0.1303
 6834W        W49850  10.456  32.280   6.577  0.2776 -0.0470  0.3251
 6835W        W49851   2.329  11.246   8.598 -0.0983 -0.1492 -0.3019
 6836W        W49852  19.313  34.366   2.607  0.0637  0.1911  0.3424
 6837W        W49853  22.189  25.731   8.177 -0.1441  0.0191  0.2899
 6838W        W49854  12.570  26.744  13.440 -0.0141 -0.0543 -0.2398
 6839W        W49855  23.215  24.179   3.167  0.1713 -0.3735  0.1835
 6840W        W49856  19.295  34.090  27.011 -0.2129 -0.0618 -0.3121
 6841W        W49857  14.802   0.331   4.372  0.3246 -0.0597  0.0969
 6842W        W49858  16.185   2.013   3.632  0.1711  0.1934  0.2336
 6843W        W49859  20.300  22.933  26.507  0.1790 -0.2607  0.0105
 6844W        W49860   8.756   3.736  26.760 -0.2034  0.0160 -0.2361
 6845W        W49861   9.678   5.240   1.154 -0.1438  0.0789 -0.0001
 6846W        W49862  13.168   0.405  23.807  0.0480 -0.2072  0.2096
 6847W        W49863  30.757   3.803  10.865  0.2512 -0.1410 -0.2639
 6848W        W49864  17.722  23.230  22.727 -0.2274  0.2271  0.0689
 6849W        W49865   5.834  18.098   3.027  0.0653 -0.1050  0.0067
 6850W        W49866  31.115   3.392  26.019  0.2867  0.3798 -0.2357
 6851W        W49867   9.535  29.454  28.613  0.3349  0.1956  0.3148
 6852W        W49868  11.353   6.686  23.077  0.1360 -0.1481 -0.0712
 6853W        W49869  15.283  32.520   6.011 -0.0657  0.2178 -0.0824
 6854W        W49870  20.425  34.228  20.578 -0.1556  0.3936  0.0416
 6855W        W49871  12.353  30.751   0.177  0.2637 -0.1763  0.4421
 6856W        W49872   2.062  30.740   1.882 -0.1853 -0.0148  0.1046
 6857W        W49873  22.345   5.642   5.035 -0.0230 -0.0753  0.1928
 6858W        W49874  24.965  30.320  10.534  0.1537  0.0505  0.0291
 6859W        W49875  12.561  21.067  19.441 -0.2287 -0.1062  0.2221
 6860W        W49876  16.491   4.797   3.220 -0.1375  0.2342  0.3524
 6861W        W49877   8.299   8.248   6.278  0.0162  0.1496  0.3886
 6862W        W49878  29.814  24.138  29.013 -0.0123  0.3070 -0.0226
 6863W        W49879   9.438   2.037   4.091 -0.0442 -0.1423 -0.0788
 6864W        W49880   3.798  22.487   3.523 -0.2226  0.1491 -0.2669
 6865W        W49881  12.632  20.147   6.946 -0.2315  0.0584  0.1597
 6866W        W49882  22.026   7.055  17.115 -0.1488 -0.0719  0.4038
 6867W        W49883   2.493  23.680   9.603 -0.0541  0.1076  0.1012
 6868W        W49884  24.164   0.092  19.024  0.2952 -0.4182  0.1497
 6869W        W49885  16.109  30.394   6.445 -0.0453  0.3398 -0.0541
 6870W        W49886  23.518  30.118   4.408 -0.0458  0.0078  0.0204
 6871W        W49887   4.877  18.434  28.289  0.1992 -0.1026 -0.0564
 6872W        W49888  20.622  16.555  14.747 -0.1564 -0.1485  0.2035
 6873W        W49889  24.022  32.651   4.619  0.2603  0.1119 -0.1631
 6874W        W49890  26.500  29.505  26.786 -0.2478  0.1979 -0.0442
 6875W        W49891  20.821  21.761   6.785  0.0134  0.2755  0.2567
 6876W        W49892  31.857  29.174   4.767  0.1931  0.0851 -0.1029
 6877W        W49893  29.307  16.342  22.924  0.0716 -0.2498  0.2002
 6878W        W49894  16.976  32.517   2.965  0.0051 -0.0203  0.0626
 6879W        W49895  13.920  25.756  26.224  0.1909  0.3708  0.2688
 6880W        W49896   7.511  25.256  21.112 -0.4996  0.3447  0.2476
 6881W        W49897   7.792  24.603   4.647 -0.1289 -0.1903 -0.1845
 6882W        W49898  12.842   4.323  22.784  0.0335  0.1008  0.3365
 6883W        W49899   6.914  19.408  26.475  0.0584 -0.1662  0.0819
 6884W        W49900  12.589  18.568  13.415 -0.1337 -0.2852  0.0580
 6885W        W49901  27.552  16.754   1.754  0.2870 -0.2163 -0.4619
 6886W        W49902  17.039  32.399  28.163  0.5217  0.1135  0.4516
 6887W        W49903  17.173   3.613  27.837  0.1664 -0.1576 -0.0562
 6888W        W49904  21.828  33.603  24.018  0.0367 -0.2834  0.0240
 6889W        W49905   6.936  26.817   4.342  0.2321 -0.2679  0.2309
 6890W        W49906  31.345   4.353   4.382 -0.2245 -0.1697  0.0562
 6891W        W49907  12.551  13.053   7.738 -0.1123  0.2742 -0.2093
 6892W        W49908   5.023  31.882  17.104  0.1528  0.0583  0.0795
 6893W        W49909  13.715   0.930  24.891  0.1019 -0.0242 -0.1631
 6894W        W49910  14.275  18.984  26.963 -0.3652 -0.0399  0.1636
 6895W        W49911  28.162  28.282  10.412  0.3017  0.1007  0.0040
 6896W        W49912   6.472  12.263  23.156 -0.4596  0.1512  0.1960
 6897W        W49913  20.916   3.274  20.281 -0.0919  0.2490 -0.0341
 6898W        W49914  16.728   2.557   6.854 -0.0008 -0.0249  0.2205
 6899W        W49915  23.631   0.337  25.513  0.0890 -0.2031  0.0071
 6900W        W49916   0.385  16.171  21.978  0.1205 -0.0006 -0.1132
 6901W        W49917  21.316  19.333   2.495  0.1635  0.1537 -0.2793
 6902W        W49918  29.868   2.961  23.908  0.1760 -0.0487 -0.0323
 6903W        W49919  27.650   4.209   8.893  0.3349 -0.0359  0.2447
 6904W        W49920  14.122  31.275   8.334  0.0512 -0.2601 -0.0029
 6905W        W49921  34.192  28.086  17.506  0.2600  0.1639 -0.3260
 6906W        W49922  21.018  30.678   0.168  0.1005  0.2082 -0.0199
 6907W        W49923  13.664  17.917  25.203 -0.1044 -0.0324 -0.1555
 6908W        W49924  11.772  32.350   6.580 -0.1624 -0.1143  0.1487
 6909W        W49925  15.878  10.997  29.297 -0.0273 -0.0954  0.2268
 6910W        W49926  23.486  20.030   8.418  0.0084 -0.4062 -0.1595
 6911W        W49927  27.735   4.777   6.525  0.1031 -0.0313  0.3055
 6912W        W49928  11.880  16.555   8.670  0.0762  0.2562  0.0438
 6913W        W49929  27.470  26.278   6.804  0.0155 -0.0351 -0.1803
 6914W        W49930   8.666  34.317  28.315  0.2089 -0.0735  0.1622
 6915W        W49931  23.473  19.434   2.947  0.1285 -0.0068 -0.0392
 6916W        W49932   7.743  23.386  29.021 -0.1537  0.0372 -0.0365
 6917W        W49933   6.617  33.990  17.631  0.0321 -0.0911  0.2125
 6918W        W49934   9.464  15.340  19.911 -0.1275 -0.2860 -0.2616
 6919W        W49935  29.613  22.993  24.096 -0.2044  0.2000  0.0936
 6920W        W49936   7.664  18.337  25.984 -0.2919  0.3465 -0.3004
 6921W        W49937  21.394  15.602  26.522 -0.0792 -0.2530 -0.1863
 6922W        W49938  11.884  23.565  16.844 -0.1942 -0.0090 -0.1227
 6923W        W49939  12.942   2.533   1.550 -0.0179  0.2091  0.1027
 6924W        W49940  13.367  14.266  13.103  0.1718 -0.1351  0.1152
 6925W        W49941   7.304  33.794   4.342  0.0356  0.0514  0.1854
 6926W        W49942  17.095  32.940   6.434  0.0819  0.2044  0.2425
 6927W        W49943   5.436  31.049   6.519  0.3441 -0.1931  0.1805
 6928W        W49944  14.975  32.960  26.283  0.0115 -0.0159 -0.1110
 6929W        W49945  18.178  24.913   3.522 -0.1765  0.4722 -0.0902
 6930W        W49946  20.681  19.907   2.952 -0.5316 -0.0493 -0.0952
 6931W        W49947  34.361  29.237   4.545  0.1444 -0.0654 -0.1279
 6932W        W49948  22.650   4.037  27.249 -0.1371 -0.0229 -0.0179
 6933W        W49949  13.518   9.299  27.131 -0.1926 -0.1344  0.0947
 6934W        W49950  30.843   5.623  25.185  0.0287  0.0088  0.0625
 6935W        W49951  24.443  23.123   5.674 -0.3203  0.2005  0.3444
 6936W        W49952  13.280  29.857   9.953  0.1589  0.0595  0.4111
 6937W        W49953  16.545  24.725   1.896 -0.2871  0.0580 -0.0991
 6938W        W49954  11.472  33.489  27.974  0.2097  0.2986  0.1443
 6939W        W49955  22.901   7.080   7.927 -0.0497 -0.4637 -0.0833
 6940W        W49956  28.534  18.137   2.583  0.0295  0.0820 -0.1787
 6941W        W49957  24.586  13.505  18.509 -0.4181  0.1334  0.1033
 6942W        W49958  13.934   2.713   7.124 -0.0366  0.1373  0.3322
 6943W        W49959  10.734  23.304  27.388 -0.0964  0.2378 -0.1716
 6944W        W49960  19.412   1.565   4.314  0.2145 -0.2701  0.1482
 6945W        W49961  27.901  31.058  27.281  0.1489  0.2387 -0.1126
 6946W        W49962  14.036  32.558  25.612  0.0449  0.0471  0.0409
 6947W        W49963  30.463   5.178  18.672 -0.1270 -0.0718  0.1067
 6948W        W49964  34.521   7.001   7.471  0.3092  0.0379 -0.4313
 6949W        W49965   3.572  22.545  22.149  0.1447 -0.1464 -0.2978
 6950W        W49966  22.864  30.022   7.440 -0.1124  0.0228  0.3125
 6951W        W49967   3.342   4.259  27.303 -0.3266  0.0782  0.1677
 6952W        W49968   1.283  25.518   2.783 -0.0362  0.0461 -0.0925
 6953W        W49969   9.370  29.471   7.577 -0.1978  0.0431  0.0315
 6954W        W49970  18.181   8.502   5.935 -0.4973 -0.0158  0.3738
 6955W        W49971  13.407  17.568   7.690 -0.0759  0.0377  0.0122
 6956W        W49972  32.774  24.198   8.464 -0.1609 -0.1681  0.1442
 6957W        W49973   1.828  19.283   1.465 -0.1047  0.0671 -0.4434
 6958W        W49974  11.576   2.349   7.411  0.0470 -0.3639  0.2884
 6959W        W49975  17.519  22.800  23.147 -0.1341  0.0132  0.1634
 6960W        W49976  33.028  28.860   0.152  0.0417 -0.1263  0.1794
 6961W        W49977  10.913   9.622  25.211  0.0013 -0.0588 -0.1633
 6962W        W49978  27.672   3.121   1.215  0.5192  0.3187 -0.1850
 6963W        W49979   0.067  28.201  28.520 -0.0092  0.2514 -0.0574
 6964W        W49980   9.255  10.919  24.570  0.2811  0.2105 -0.5670
 6965W        W49981  13.381   1.846  25.185 -0.0618  0.0609  0.0253
 6966W        W49982  21.778  25.430   8.082 -0.0255 -0.3396 -0.1755
 6967W        W49983   9.859  26.360  26.246 -0.0480  0.1079 -0.0729
 6968W        W49984  18.679  13.223  13.023 -0.4708 -0.2256  0.3130
 6969W        W49985  18.270  18.419  25.818  0.0412  0.1935 -0.1141
 6970W        W49986  14.730  21.509  13.723  0.2380 -0.4296  0.1583
 6971W        W49987   5.990  28.935   3.910  0.5021  0.3092 -0.0839
 6972W        W49988  16.993   9.509  24.295  0.0327  0.0301  0.2103
 6973W        W49989  30.327  20.735   4.857  0.2762  0.3599  0.1038
 6974W        W49990  19.253  21.050  26.928  0.2179 -0.0273  0.2852
 6975W        W49991   9.292   6.670  24.441  0.1660 -0.3795  0.0529
 6976W        W49992  23.632  12.223   5.778  0.2571 -0.0916  0.0227
 6977W        W49993   5.708   5.525  27.492 -0.3260  0.2791  0.1447
 6978W        W49994  22.234  23.908   7.500  0.1168 -0.2482 -0.0869
 6979W        W49995   7.771  24.351   1.809 -0.3234 -0.0614 -0.0052
 6980W        W49996   1.263  23.970   1.214 -0.0659 -0.2970 -0.0568
 6981W        W49997   2.777  31.762   7.943 -0.0832 -0.0850  0.1479
 6982W        W49998  17.342  30.269  17.371  0.2185 -0.1578 -0.0340
 6983W        W49999   7.189  34.507   5.057 -0.2686  0.0867  0.1703
 6984W        W50000  12.917  27.871  23.213 -0.4650 -0.0029 -0.1022
 6985W        W50001  15.094   8.678   0.637  0.1362  0.3778  0.0870
 6986W        W50002  26.144  33.322   6.891 -0.1603  0.1704  0.5928
 6987W        W50003   9.831   3.697  19.752 -0.2197  0.0827 -0.2047
 6988W        W50004  16.517  27.128   2.243 -0.1219 -0.4178  0.0622
 6989W        W50005   7.298   4.609   1.390 -0.1003 -0.2078 -0.0750
 6990W        W50006  23.919  16.229   8.630 -0.2219 -0.3089  0.0442
 6991W        W50007  30.344  32.021  22.165  0.0219 -0.0155  0.0764
 6992W        W50008  16.080  29.490  17.104 -0.1201 -0.3321  0.3034
 6993W        W50009  12.948  27.131  14.285  0.2082  0.0461 -0.1551
 6994W        W50010  16.082  12.270   6.088 -0.2994 -0.0533  0.2956
 6995W        W50011  13.902   6.222   9.150 -0.0120 -0.2474 -0.0698
 6996W        W50012  18.467   0.889  10.007 -0.1015  0.3637  0.0160
 6997W        W50013  19.277   1.092   1.604 -0.0620  0.3141  0.0818
 6998W        W50014  33.299  32.530   6.599 -0.0001 -0.0711 -0.2776
 6999W        W50015  15.868  20.532   0.200  0.2211  0.0063  0.0594
 7000W        W50016   5.629  34.195  29.025  0.2898  0.4432 -0.2619
 7001W        W50017  10.600  31.151  29.225 -0.3683  0.1995 -0.0085
 7002W        W50018   4.007  18.440  27.635 -0.0958  0.2175 -0.2402
 7003W        W50019  23.007   5.024  28.670  0.1752  0.1377 -0.1955
 7004W        W50020   5.649   1.954   3.538 -0.0892 -0.1206 -0.2638
 7005W        W50021  11.046  13.758   5.298  0.0521 -0.0290  0.1520
 7006W        W50022  19.903   3.244  21.870  0.3491 -0.0866  0.0599
 7007W        W50023  30.776  25.174  21.826 -0.0646  0.1835 -0.2435
 7008W        W50024  15.540   1.326   4.677  0.1820 -0.0590 -0.1663
 7009W        W50025   6.952  11.043   8.182 -0.2168 -0.2674  0.1351
 7010W        W50026   4.648  28.244   1.335  0.4657 -0.0765  0.0620
 7011W        W50027  22.936  29.132   1.981 -0.1275 -0.2409  0.0674
 7012W        W50028  28.026   1.277   8.735 -0.0795  0.0778 -0.1222
 7013W        W50029  18.696  22.954   8.264  0.0961  0.0742  0.3123
 7014W        W50030  16.933  28.315  27.587 -0.2858  0.0586  0.3955
 7015W        W50031  33.222  13.098  25.103 -0.3481  0.0014 -0.0732
 7016W        W50032   5.513   0.039   3.475  0.1240  0.3080  0.2834
 7017W        W50033  21.213   1.033  25.729 -0.4414  0.2099 -0.0257
 7018W        W50034  12.089  28.559  21.681 -0.5278 -0.0929 -0.0841
 7019W        W50035  10.874  31.451  24.189  0.2834  0.0464 -0.0826
 7020W        W50036  10.269  26.824   6.026 -0.2238 -0.0460  0.0987
 7021W        W50037  20.870  26.834   3.640 -0.0736  0.1890 -0.0260
 7022W        W50038  14.575  24.448   1.912 -0.1211 -0.0886 -0.0055
 7023W        W50039  26.244  27.520  10.004  0.0143  0.2692  0.0171
 7024W        W50040  11.269  11.915  24.775 -0.0251 -0.0851  0.2112
 7025W        W50041  10.631  25.573   8.646  0.1787 -0.1660 -0.2576
 7026W        W50042  16.853  26.346   9.341  0.0818 -0.3401 -0.1679
 7027W        W50043  29.150  22.301  28.297  0.0607 -0.4239  0.2137
 7028W        W50044  23.666  15.380   5.645 -0.1236 -0.1591  0.4232
 7029W        W50045  14.715  20.754  14.697 -0.0070 -0.0804 -0.0271
 7030W        W50046  21.111  28.682  19.491  0.1713  0.2742  0.0049
 7031W        W50047  31.290  27.617   3.380  0.1329 -0.1070  0.0201
 7032W        W50048   8.587  33.238   4.101  0.1345  0.2212 -0.0257
 7033W        W50049  20.830  13.149  23.102  0.0891  0.0815  0.1168
 7034W        W50050   4.721  25.107   9.299  0.3074 -0.0785  0.1142
 7035W        W50051  27.315   7.109  10.374  0.0922 -0.0044 -0.1936
 7036W        W50052  14.290  33.316   5.434  0.0994 -0.0273 -0.0658
 7037W        W50053  15.369   9.753   7.240  0.0082 -0.3306 -0.1574
 7038W        W50054   5.401  33.389  26.536 -0.1251 -0.1062 -0.2465
 7039W        W50055  22.527   8.791   5.401 -0.1878  0.0931  0.3234
 7040W        W50056  17.616  29.030  17.965  0.0087 -0.0157 -0.0264
 7041W        W50057   0.004   0.319   9.412  0.2540  0.1382 -0.1669
 7042W        W50058  15.467  12.842  27.319 -0.4316 -0.2482 -0.0003
 7043W        W50059  25.764  26.707   2.588  0.0629 -0.0984  0.0342
 7044W        W50060  14.359  21.330  23.126 -0.2079  0.0882  0.2860
 7045W        W50061  12.656   2.752  22.875  0.0271 -0.0653 -0.0583
 7046W        W50062  23.814   3.255   2.533 -0.0244  0.2397  0.1577
 7047W        W50063  15.861   6.058   7.932 -0.4366  0.1653 -0.2152
 7048W        W50064  20.378  25.365  26.924 -0.1117  0.0468  0.1896
 7049W        W50065  20.143   5.527  26.751  0.2359 -0.1038  0.1942
 7050W        W50066  19.549   8.404   9.642  0.3826  0.0893 -0.0390
 7051W        W50067  28.262   4.465   6.024 -0.3458 -0.1413 -0.0752
 7052W        W50068  22.049  31.169   4.537 -0.0603  0.1275 -0.3486
 7053W        W50069  26.466  30.766   7.771  0.1909 -0.3091 -0.3496
 7054W        W50070   7.344   3.545   7.688 -0.1487  0.2612  0.2566
 7055W        W50071   9.544  15.056  15.394  0.1591 -0.0439  0.0199
 7056W        W50072  15.377   6.840   3.404 -0.0267 -0.1777  0.1256
 7057W        W50073  21.113  34.579   9.584 -0.1799 -0.0882  0.0577
 7058W        W50074  20.731  18.320   0.387 -0.4484 -0.1034  0.1357
 7059W        W50075  13.753   0.764   7.416  0.2107  0.1992 -0.0003
 7060W        W50076   6.904   1.800   6.916  0.1491  0.1051 -0.2767
 7061W        W50077  24.944  32.725  17.468 -0.2165  0.0045  0.3485
 7062W        W50078   0.014  34.102   9.624  0.5706 -0.1269  0.2158
 7063W        W50079   7.963   8.036  21.273 -0.1179  0.0533 -0.0453
 7064W        W50080  28.498  31.663   9.425  0.0942 -0.0520  0.4500
 7065W        W50081  24.887  32.179   4.685 -0.2842 -0.0042  0.3003
 7066W        W50082  10.800  15.822   2.921  0.0071  0.1642  0.2643
 7067W        W50083  22.891  20.073   4.680 -0.1341 -0.1852 -0.0081
 7068W        W50084   9.640  15.459  27.374  0.1816  0.1297 -0.1584
 7069W        W50085  20.020   1.935   6.917 -0.1101  0.3380  0.0884
 7070W        W50086  21.443   2.623  28.300 -0.1150  0.1456  0.3647
 7071W        W50087   5.953  22.498   7.559  0.0139 -0.2655  0.0275
 7072W        W50088  13.907  26.420   3.753  0.2314 -0.0054  0.1348
 7073W        W50089  26.211   1.934  20.749 -0.0344  0.1795 -0.2524
 7074W        W50090  29.454   6.925  17.559 -0.0270 -0.0160  0.2083
 7075W        W50091   0.023  25.455  29.158  0.1669 -0.2757  0.0767
 7076W        W50092  26.027  28.863   7.147 -0.1792  0.0449 -0.0139
 7077W        W50093  23.635   1.511  11.243 -0.0880 -0.2595  0.1108
 7078W        W50094  28.240  28.279  15.913  0.0302  0.1955 -0.1434
 7079W        W50095   8.773  34.374  23.989  0.1896  0.0227 -0.1834
 7080W        W50096   5.630  31.404  25.768  0.1897 -0.0687  0.2001
 7081W        W50097  20.320  30.505  26.169 -0.1350 -0.0523  0.1057
 7082W        W50098   8.566   6.748   8.188  0.4383 -0.1585  0.0933
 7083W        W50099  11.175  28.552   1.525 -0.2755 -0.0110  0.1542
 7084W        W50100  11.232  27.324  15.729 -0.1883  0.1653  0.2806
 7085W        W50101   7.665   4.962   7.263 -0.0790 -0.2156  0.2326
 7086W        W50102  18.024  23.601  27.466 -0.2724 -0.4207 -0.0609
 7087W        W50103  16.491  18.593   6.535  0.1594 -0.1163  0.0712
 7088W        W50104  29.244   5.028  23.588  0.0104  0.0268  0.0182
 7089W        W50105  13.722   2.133  10.022 -0.1168 -0.0209 -0.1738
 7090W        W50106  14.338  28.731   1.499 -0.0218 -0.2730  0.0255
 7091W        W50107  11.341  15.883   0.051  0.1378  0.2304  0.2241
 7092W        W50108  34.651  33.357   9.299  0.0850  0.4087  0.2275
 7093W        W50109  18.014   6.153  16.355 -0.2855 -0.0442  0.0571
 7094W        W50110  24.783  31.951  19.249  0.0960 -0.0783 -0.3690
 7095W        W50111  25.514  17.280   5.214 -0.4426  0.1625 -0.1407
 7096W        W50112  33.217   5.911   0.710  0.3815 -0.4054  0.1934
 7097W        W50113   6.079  10.826   1.397  0.2248  0.1865  0.1329
 7098W        W50114  20.430  26.720   3.955  0.3169  0.0739 -0.0598
 7099W        W50115  32.150  20.263   0.153  0.2342 -0.2617 -0.2937
 7100W        W50116   1.774   4.568   7.574 -0.2675 -0.1470  0.0858
 7101W        W50117  19.953  31.644   3.655  0.0817 -0.2280  0.1201
 7102W        W50118  20.529  20.461   1.083  0.0629 -0.2110  0.0412
 7103W        W50119  20.730   5.786   7.277 -0.2426 -0.1912  0.1589
 7104W        W50120   9.421   1.582  27.302 -0.1658  0.0450 -0.2640
 7105W        W50121  24.432   1.745   4.743 -0.3666 -0.1593  0.0151
 7106W        W50122  16.761  30.422   9.295  0.1703  0.0356  0.2570
 7107W        W50123  19.511   5.057   4.449 -0.2760 -0.0839  0.2113
 7108W        W50124  13.668  16.060   5.305  0.0331 -0.3132  0.3691
 7109W        W50125   8.022  33.000   6.239 -0.2491 -0.0806 -0.0756
 7110W        W50126  15.636   7.607   7.602 -0.1628 -0.0812  0.1960
 7111W        W50127  25.739  22.342  25.388 -0.2412  0.2130 -0.0434
 7112W        W50128   8.559  25.780  22.749 -0.0452  0.4772  0.2592
 7113W        W50129  26.039  31.983   9.499 -0.0965  0.1890 -0.2198
 7114W        W50130   7.747   4.895   1.514  0.1892  0.1463 -0.0532
 7115W        W50131  18.681   3.336   4.512 -0.0898 -0.2220 -0.3145
 7116W        W50132  21.242  32.492   7.072 -0.3473 -0.1476 -0.0868
 7117W        W50133   9.206   3.582   9.416 -0.2006 -0.2358  0.2221
 7118W        W50134  15.306  22.154  25.726  0.0437 -0.2051  0.0417
 7119W        W50135   7.682  28.131   3.728 -0.2131 -0.1022  0.0906
 7120W        W50136  13.998  29.404  24.994 -0.4481 -0.0561 -0.0108
 7121W        W50137  23.469  13.755   0.172  0.2386 -0.0431  0.0197
 7122W        W50138  23.696  23.731   4.269  0.1475 -0.1239  0.0918
 7123W        W50139   8.873  17.684  26.581 -0.0697  0.1604  0.0292
 7124W        W50140   8.737   8.632  27.117 -0.2803  0.3070  0.1476
 7125W        W50141  14.651   5.677   3.970  0.1779  0.2141 -0.0931
 7126W        W50142   3.950  28.324   6.197 -0.0844 -0.0290 -0.3332
 7127W        W50143  10.027  30.211   6.413  0.0119  0.0941 -0.0508
 7128W        W50144  14.310  16.948  27.501  0.1408 -0.0663 -0.1082
 7129W        W50145  13.368  31.979  19.154 -0.4389 -0.0544  0.1783
 7130W        W50146   6.801  17.728  22.475  0.0099 -0.4212 -0.1094
 7131W        W50147   8.772  33.903   1.389  0.0312  0.1396 -0.3579
 7132W        W50148  28.077   3.397   3.233 -0.3739  0.0275 -0.2896
 7133W        W50149   4.865  32.619  26.659  0.1335 -0.1404 -0.0421
 7134W        W50150  28.749   1.565  23.370  0.0859 -0.2443 -0.0789
 7135W        W50151  11.736  22.807   2.522 -0.0957  0.2515  0.1149
 7136W        W50152  26.236  28.585   1.940 -0.1433 -0.0937 -0.1205
 7137W        W50153  20.934  12.692  15.434 -0.0882 -0.2963 -0.0375
 7138W        W50154   0.945   1.707   3.700 -0.0729  0.2625 -0.0200
 7139W        W50155  29.436  17.080   2.498 -0.1993  0.3420  0.0822
 7140W        W50156  11.557  31.717  16.216 -0.0836  0.1698  0.0597
 7141W        W50157  12.548  23.883  19.117 -0.0134 -0.0754  0.1615
 7142W        W50158   6.570  31.742   5.369 -0.0374  0.2856  0.1442
 7143W        W50159  29.173  16.869  21.791 -0.0209  0.3798  0.1730
 7144W        W50160  15.938   1.770  28.573  0.2309  0.2988 -0.1950
 7145W        W50161  30.297  28.538  22.056 -0.2944  0.1798 -0.1012
 7146W        W50162  29.902  16.373  25.384  0.0018 -0.2976 -0.1545
 7147W        W50163  31.105  10.663   2.119  0.0997 -0.1705  0.0624
 7148W        W50164  23.656  33.453  28.205  0.1400 -0.0112 -0.0092
 7149W        W50165  26.526  22.904   3.950  0.1903 -0.0094 -0.0511
 7150W        W50166  17.629  19.460  20.449 -0.1092  0.3089 -0.3616
 7151W        W50167  29.719  10.929   1.838  0.0609 -0.2352 -0.2160
 7152W        W50168   9.404   9.580  18.673 -0.0291 -0.0954 -0.0032
 7153W        W50169  19.573  29.442   0.601  0.0837  0.1651  0.1022
 7154W        W50170  17.897   6.518   2.615 -0.1852  0.2997 -0.0407
 7155W        W50171  16.680  23.637   1.775  0.0798  0.0984  0.0958
 7156W        W50172  16.444  10.899  28.264  0.1447 -0.3297 -0.0910
 7157W        W50173   5.713   1.491   3.106 -0.2368 -0.0663  0.1116
 7158W        W50174  13.645  17.639  21.485  0.3992  0.0140 -0.1637
 7159W        W50175  19.860  29.272  24.723  0.2151  0.0036  0.1256
 7160W        W50176  12.523  34.555  20.813 -0.1419  0.0496 -0.0505
 7161W        W50177  24.544   5.240   8.607  0.1906 -0.3063 -0.0488
 7162W        W50178   8.040  21.233  28.999 -0.3282 -0.0482  0.0877
 7163W        W50179  29.434  21.230   0.972  0.0492  0.0115  0.2321
 7164W        W50180  14.707  21.821   2.989  0.1055  0.1532 -0.1833
 7165W        W50181  16.820  33.463  28.207 -0.1428  0.1864 -0.5833
 7166W        W50182  17.558   8.465   8.855  0.2547  0.0331  0.2435
 7167W        W50183   8.977  32.324  21.777 -0.0781  0.2172  0.1059
 7168W        W50184  20.563  18.429  27.000  0.0834  0.5091  0.0335
 7169W        W50185  14.731  34.421  28.097 -0.1348 -0.3673  0.1182
 7170W        W50186   7.643  23.697  27.731 -0.3278  0.0488 -0.0646
 7171W        W50187  19.919   5.927   7.843 -0.6486 -0.1795  0.1468
 7172W        W50188   7.139  31.751   7.023  0.0556  0.0247  0.1259
 7173W        W50189  25.836  25.952   4.319 -0.1189 -0.1287  0.2237
 7174W        W50190  20.271  33.325   6.027 -0.4035 -0.2021  0.1310
 7175W        W50191  19.328   3.259   7.549  0.1213  0.1058 -0.1488
 7176W        W50192  15.710  19.778   3.415  0.4536 -0.0491  0.1088
 7177W        W50193  32.345  25.498   7.348 -0.1900 -0.1276 -0.1627
 7178W        W50194  30.735  32.604  26.137 -0.2119  0.0705  0.0670
 7179W        W50195  25.066   4.115   4.587 -0.0182  0.1725 -0.0521
 7180W        W50196   9.075  29.325   1.962 -0.1044 -0.0990  0.0149
 7181W        W50197  14.880  13.819   3.888  0.1964 -0.1531  0.1620
 7182W        W50198   8.223   7.412  23.744 -0.0138 -0.1917  0.1265
 7183W        W50199  32.909  29.357   7.732 -0.0998 -0.2231 -0.2539
 7184W        W50200   1.605  18.336  28.143 -0.0051 -0.2124  0.1611
 7185W        W50201  25.756  34.226   4.478  0.0899 -0.0591 -0.0762
 7186W        W50202  15.381  33.976   0.055  0.0518  0.1250  0.0799
 7187W        W50203  30.002  33.331   5.365 -0.2826 -0.1687  0.0004
 7188W        W50204   5.493  13.599   4.530  0.1371  0.0125  0.0442
 7189W        W50205  26.421  32.882   2.388  0.1428 -0.3943  0.1190
 7190W        W50206  16.165  31.125  21.905 -0.2766  0.1759  0.2854
 7191W        W50207  11.224  25.214  25.035  0.1297  0.1444 -0.3710
 7192W        W50208  18.578  22.971   2.485  0.2169 -0.2928  0.0638
 7193W        W50209  31.966   7.464   4.491 -0.0178  0.2140  0.1232
 7194W        W50210  10.835  32.364   2.567 -0.1235 -0.0874 -0.0958
 7195W        W50211  13.588  27.978   3.319 -0.1604  0.1019 -0.0302
 7196W        W50212   7.361  24.467  13.838 -0.1376  0.1048 -0.0430
 7197W        W50213   9.850  33.570  14.946 -0.2385 -0.0656  0.0040
 7198W        W50214  15.586  23.700   1.388  0.0905 -0.2383 -0.1696
 7199W        W50215   7.603  31.769  23.801 -0.0130  0.1386  0.0029
 7200W        W50216  10.819  34.075   7.494 -0.0466  0.0261  0.0859
 7201W        W50217  12.545  10.863   6.162  0.0326 -0.0654 -0.0188
 7202W        W50218   7.023   8.810   6.728 -0.1259 -0.0535  0.0955
 7203W        W50219  32.799  33.286  28.464  0.0183  0.2552 -0.0906
 7204W        W50220  15.801   0.850   0.233 -0.3309  0.0144 -0.0663
 7205W        W50221   6.006  33.804  25.814  0.0046 -0.0409 -0.0910
 7206W        W50222  15.946  18.719   8.705  0.0670 -0.3334 -0.2819
 7207W        W50223  24.193  22.847   1.574 -0.1084  0.0849  0.2310
 7208W        W50224  13.649   8.118   1.704 -0.1987  0.0958  0.1005
 7209W        W50225   9.170   1.930   4.806 -0.0785  0.0774  0.0222
 7210W        W50226   6.169  12.108  23.519  0.1066 -0.2073 -0.0887
 7211W        W50227  19.434   3.407   5.927 -0.1035 -0.0061  0.0884
 7212W        W50228  20.052  26.424   1.677  0.2969  0.1004 -0.2477
 7213W        W50229  19.251  16.043  20.497 -0.0311 -0.0176  0.4063
 7214W        W50230   4.445  33.876   1.578  0.3791 -0.2972  0.1123
 7215W        W50231   3.503  20.991   3.582 -0.1724  0.3928 -0.0146
 7216W        W50232  12.400  22.717   2.749 -0.1231 -0.0430 -0.1509
 7217W        W50233  18.702  12.680   4.978 -0.0435  0.0965  0.0507
 7218W        W50234  29.841  32.131   0.133  0.0438  0.0289  0.1207
 7219W        W50235  11.898   7.012  27.721 -0.0134 -0.1266  0.4793
 7220W        W50236   3.863  19.839   5.527  0.1050 -0.4538 -0.3214
 7221W        W50237  17.715  34.739   6.229 -0.2769 -0.1339  0.3793
 7222W        W50238  25.307  25.452  17.273 -0.0750 -0.2067 -0.1034
 7223W        W50239   1.681  33.836  23.795 -0.3618 -0.0250 -0.1747
 7224W        W50240  18.524   3.525   4.966 -0.1652 -0.0100 -0.2893
 7225W        W50241  19.613   1.919   2.556 -0.1782  0.1194 -0.2269
 7226W        W50242   1.091  33.957   7.531  0.1617 -0.0411 -0.0080
 7227W        W50243  13.245  14.918   4.198  0.1620  0.0298  0.2173
 7228W        W50244  22.286  28.278   0.543  0.0413  0.0250 -0.2225
 7229W        W50245  30.363  22.627   2.374 -0.3110  0.2377 -0.2696
 7230W        W50246  16.795  17.846  18.341  0.0391  0.0635  0.1503
 7231W        W50247  23.197  21.662   8.107 -0.0995  0.3144 -0.0394
 7232W        W50248  12.749  28.192  27.522  0.1647 -0.2042  0.2580
 7233W        W50249  16.978  31.404   7.885 -0.5495  0.2706 -0.1293
 7234W        W50250  15.281  10.686  27.284  0.1854 -0.2858 -0.1003
 7235W        W50251  19.597  26.167   8.213  0.1610 -0.1013  0.0877
 7236W        W50252   1.797  30.003   1.336  0.0311  0.1753  0.1344
 7237W        W50253   3.290   6.007   8.022 -0.0273 -0.1148  0.0032
 7238W        W50254  30.185  20.199   1.680  0.0140  0.0261  0.0104
 7239W        W50255  11.435  25.829   4.536 -0.2924 -0.2388 -0.0311
 7240W        W50256   8.082  29.174   6.554 -0.1364  0.3261  0.0154
 7241W        W50257  24.718   0.132   3.131  0.3129  0.2805 -0.1357
 7242W        W50258  22.642   8.391   5.045  0.0246 -0.4564 -0.2758
 7243W        W50259   9.395  16.255   2.827 -0.3979  0.0865 -0.3818
 7244W        W50260  18.196  34.336   8.203 -0.2691  0.2733 -0.1947
 7245W        W50261  19.083  24.526   5.200  0.1396 -0.0634  0.0661
 7246W        W50262  19.298  34.080  27.543  0.0194  0.2976  0.2076
 7247W        W50263  13.604  13.804   4.552 -0.0780 -0.0897 -0.0234
 7248W        W50264  22.737  13.031  21.428  0.3677  0.0376 -0.1656
 7249W        W50265   8.916  22.062  27.689 -0.1147  0.2480  0.0567
 7250W        W50266  14.103  24.846   9.116  0.0157  0.2549  0.1304
 7251W        W50267   0.322  29.638  28.161 -0.1115  0.1780  0.1189
 7252W        W50268  28.502   7.751  10.020  0.0215 -0.3941  0.0265
 7253W        W50269  13.559  12.420  23.939  0.3037  0.2287 -0.1688
 7254W        W50270  14.171  34.428  26.657 -0.3502 -0.1372 -0.0623
 7255W        W50271  10.046   0.872   7.163  0.3036  0.1586 -0.2036
 7256W        W50272  14.854   4.193   6.168  0.1095  0.1673  0.0426
 7257W        W50273  18.879  26.877  25.140 -0.4193  0.2773  0.2171
 7258W        W50274  31.927  26.716   6.387 -0.4145  0.0610 -0.1272
 7259W        W50275  12.219  25.029   0.568 -0.1804 -0.0398  0.0227
 7260W        W50276   5.082  12.237   2.148  0.0112  0.3789  0.2443
 7261W        W50277   7.870  24.015   3.668  0.0567  0.1438 -0.1471
 7262W        W50278  25.434  21.133  10.536  0.3863  0.1993  0.0990
 7263W        W50279  20.247   1.598   6.125 -0.0476  0.0411 -0.0881
 7264W        W50280  25.272   1.310   5.477  0.2338  0.2959  0.2227
 7265W        W50281   7.423  30.285  14.280 -0.0586 -0.3023  0.2568
 7266W        W50282   4.188   7.165  10.102 -0.1192 -0.1813  0.1112
 7267W        W50283   6.876  23.445   7.771  0.1413 -0.1450 -0.0648
 7268W        W50284  20.195  22.903   8.334 -0.3880  0.3763 -0.3034
 7269W        W50285   7.967  29.522  26.895 -0.2185 -0.1061 -0.1355
 7270W        W50286  24.951  25.677   4.702  0.1978 -0.3178  0.1229
 7271W        W50287  23.481   3.660  27.283  0.0250  0.1807  0.4698
 7272W        W50288  14.702  11.131   1.345  0.0704  0.0612 -0.0642
 7273W        W50289  17.888  26.124   1.363  0.2567 -0.0930 -0.0451
 7274W        W50290   4.537   0.833   0.323 -0.2691  0.1507 -0.3065
 7275W        W50291  20.761  23.343  20.485 -0.0219 -0.1073  0.0693
 7276W        W50292  13.733  33.674  15.662 -0.2820 -0.0926 -0.0195
 7277W        W50293  25.921  27.865  25.702 -0.5476  0.1581  0.1004
 7278W        W50294   1.867   1.201   8.493  0.0743 -0.2924 -0.1790
 7279W        W50295  15.532  23.310  28.774 -0.3097  0.0198 -0.1861
 7280W        W50296  20.958   2.205   9.122  0.0876  0.2296 -0.1943
 7281W        W50297  19.510  24.200  26.986 -0.3323 -0.0066  0.1515
 7282W        W50298  21.309  30.787  17.885 -0.1331  0.1826 -0.1302
 7283W        W50299  21.622  12.459   7.373 -0.2847  0.2405 -0.0877
 7284W        W50300  19.059  30.306  21.360 -0.0841 -0.1466  0.0846
 7285W        W50301  18.363  26.326   5.745  0.2761  0.1878  0.2014
 7286W        W50302  13.643  24.612   5.881  0.2588 -0.0909 -0.2312
 7287W        W50303  17.322  17.145   2.405  0.1913  0.0025 -0.2378
 7288W        W50304   7.880  19.597   8.079 -0.1190  0.1167  0.3430
 7289W        W50305  25.859   7.076   6.578  0.1187  0.2090 -0.0963
 7290W        W50306  24.064  30.692   6.798  0.1456 -0.0833  0.0970
 7291W        W50307  15.050  34.048   7.044  0.0791 -0.2090  0.0413
 7292W        W50308  16.511  24.883  22.774  0.0291  0.0394 -0.1650
 7293W        W50309  16.394  25.726   0.985 -0.0905 -0.1807  0.0311
 7294W        W50310  26.099  33.263   1.109 -0.0803  0.0796 -0.1439
 7295W        W50311  11.340  24.493   4.821 -0.1996 -0.1851  0.0800
 7296W        W50312  19.605   8.166  24.237 -0.0613  0.0638 -0.0887
 7297W        W50313   6.332  32.886   7.184 -0.3997 -0.1027 -0.1571
 7298W        W50314  15.145  33.587   6.278  0.2003 -0.1729 -0.0278
 7299W        W50315  16.797  29.473   1.986  0.1518 -0.0321 -0.3084
 7300W        W50316  16.765   4.653   0.408  0.2132 -0.1814 -0.2215
 7301W        W50317  14.898   1.273   9.972  0.2611  0.1915  0.2835
 7302W        W50318  21.740  12.020  27.229  0.0099  0.0030 -0.3030
 7303W        W50319  23.436   6.409   0.500  0.1013  0.0450 -0.2230
 7304W        W50320  14.222  14.705   3.131 -0.0259 -0.2808  0.2230
 7305W        W50321  20.250   0.126   4.235 -0.1981 -0.0847 -0.1559
 7306W        W50322   6.749  24.107  28.643  0.0789  0.0151 -0.0660
 7307W        W50323  18.861   4.326   4.519 -0.1980 -0.3891 -0.2845
 7308W        W50324  11.050   0.755   4.811  0.1955 -0.2085 -0.0979
 7309W        W50325   3.048  26.600   0.788 -0.2029  0.1587  0.1598
 7310W        W50326   8.059  29.708  28.758 -0.3431 -0.0008  0.4285
 7311W        W50327  13.229  29.055  23.905  0.0457 -0.1737 -0.2154
 7312W        W50328  22.692  21.864  27.773  0.1823 -0.0169 -0.1985
 7313W        W50329  10.846  30.117   4.673  0.0219 -0.1488  0.2770
 7314W        W50330  10.193   1.591   5.615  0.0799 -0.1836  0.1552
 7315W        W50331  11.289   1.846  16.659  0.0735  0.2374 -0.0266
 7316W        W50332   7.745  33.049   9.983  0.2371  0.2203  0.1230
 7317W        W50333  20.710  30.585   1.511  0.2244  0.2305 -0.0435
 7318W        W50334   3.027   1.499   6.888  0.3434  0.1668 -0.0563
 7319W        W50335  15.427   9.926  13.923 -0.0762  0.1168  0.1197
 7320W        W50336  15.264  11.469  28.082  0.4119 -0.0921  0.2522
 7321W        W50337   6.514   0.500   4.476  0.2393  0.2427  0.2272
 7322W        W50338   6.304  21.276   8.976  0.0298 -0.0286  0.1402
 7323W        W50339  12.025   7.610   8.818  0.1316 -0.3554  0.0994
 7324W        W50340  24.186  18.253  22.773  0.1795 -0.4642 -0.2878
 7325W        W50341  19.646  28.705   2.217 -0.1234  0.1030 -0.1009
 7326W        W50342   7.597  33.339   5.521  0.2088  0.2030  0.1069
 7327W        W50343  17.304  33.613  24.203  0.1331  0.0624 -0.2341
 7328W        W50344  16.290   3.934  28.567 -0.0129 -0.2865  0.0205
 7329W        W50345  20.238   7.582   9.326 -0.0611 -0.1346  0.3024
 7330W        W50346  10.933   4.449  16.742 -0.0965  0.1773  0.2685
 7331W        W50347  15.384   8.498   5.722 -0.0836  0.0438 -0.3292
 7332W        W50348  19.008   0.886  20.392  0.4086  0.0470  0.0018
 7333W        W50349  33.741  25.919   2.141  0.0138 -0.0385  0.2120
 7334W        W50350  24.966  19.756  29.055  0.0522  0.1670  0.1129
 7335W        W50351  14.640   6.178  27.297  0.0452 -0.0442  0.2500
 7336W        W50352  27.262  18.475   9.407  0.0342  0.1144  0.1851
 7337W        W50353  28.519  28.084   6.042  0.0627  0.2329 -0.2347
 7338W        W50354  13.729  30.411  28.545 -0.1532  0.2676 -0.1167
 7339W        W50355   7.961  28.867   3.320  0.0265  0.0274 -0.2885
 7340W        W50356  14.434  25.673   8.246 -0.0295 -0.0248  0.1444
 7341W        W50357  14.811  20.658   4.347  0.2543  0.1211 -0.2732
 7342W        W50358  17.721   8.943   6.679  0.2274  0.0610  0.0634
 7343W        W50359   8.796   7.044  29.102  0.0864 -0.1112 -0.1168
 7344W        W50360   9.530  31.859   0.216 -0.0911  0.4686 -0.2216
 7345W        W50361   4.245   5.112  27.226 -0.3220 -0.1429 -0.0300
 7346W        W50362  30.373  34.580   9.672 -0.2090  0.0052  0.2108
 7347W        W50363  21.472  13.982  14.247  0.0981 -0.1527  0.2785
 7348W        W50364  19.333  28.802   1.826  0.0583  0.0554  0.1220
 7349W        W50365  20.093  33.316   6.995  0.1495  0.1610 -0.2325
 7350W        W50366  18.200  10.743  27.438 -0.0488  0.0015 -0.0956
 7351W        W50367   4.790   7.060  28.556 -0.2593 -0.0972 -0.0152
 7352W        W50368   6.432   0.973   9.798 -0.0736  0.1815 -0.0466
 7353W        W50369  12.868   3.497   3.654  0.1037 -0.0417 -0.3298
 7354W        W50370  17.302   4.636  29.072 -0.1664  0.0407 -0.2211
 7355W        W50371  11.225  27.625   7.803 -0.1553 -0.3355  0.3036
 7356W        W50372  19.183  20.975   2.011  0.1125 -0.0098 -0.1166
 7357W        W50373  13.853  19.262  19.733  0.1608 -0.1197 -0.0152
 7358W        W50374   8.808  12.743   3.368 -0.1578  0.3257 -0.1809
 7359W        W50375   5.346   3.081  24.688  0.0074  0.1625  0.2696
 7360W        W50376  27.033  24.682   4.343  0.3251 -0.1355 -0.3883
 7361W        W50377  33.952  33.851   6.506  0.0181  0.1717 -0.0172
 7362W        W50378  16.637  29.743  10.962 -0.0459  0.2268 -0.3978
 7363W        W50379  24.427   2.249  29.264 -0.0124 -0.2077 -0.2050
 7364W        W50380  32.867   5.733  28.870  0.2434 -0.1780 -0.1270
 7365W        W50381   9.723  21.806   7.664 -0.1274 -0.0788 -0.2498
 7366W        W50382   3.288  34.285   9.931  0.1701 -0.2884  0.1534
 7367W        W50383  12.882  24.019   1.823  0.2467 -0.0466  0.0244
 7368W        W50384  33.586  23.954   4.007 -0.0525  0.2538  0.0474
 7369W        W50385  11.555  34.543  26.067 -0.1292  0.3221  0.0351
 7370W        W50386  11.797   1.420   0.903  0.0453 -0.0963 -0.1190
 7371W        W50387  22.571   0.363  25.404 -0.2441 -0.0409  0.2611
 7372W        W50388  16.194  27.429  26.317 -0.1887 -0.0080 -0.4572
 7373W        W50389  15.005  31.829   6.626 -0.0289  0.0686 -0.1830
 7374W        W50390  14.019  26.987   6.706  0.0926  0.1368  0.1455
 7375W        W50391  32.622  31.565  22.352 -0.0131 -0.2310 -0.2970
 7376W        W50392  16.567  30.847   4.045  0.2425 -0.2055 -0.4822
 7377W        W50393  23.374  12.825   4.181  0.0715 -0.1262 -0.0419
 7378W        W50394  25.091  27.561  10.088 -0.2011  0.2638 -0.0131
 7379W        W50395   9.100  26.718   7.099  0.2265  0.2231  0.0303
 7380W        W50396  23.940  17.894   1.760  0.2426 -0.0152  0.1546
 7381W        W50397   7.673   3.960   7.645  0.2095 -0.0656  0.1312
 7382W        W50398   8.965   2.227   8.454  0.1997  0.2476 -0.0156
 7383W        W50399  12.886  30.571  26.117  0.1111  0.3441  0.1425
 7384W        W50400  14.666  26.881   7.431 -0.2238  0.1480 -0.0694
 7385W        W50401   6.390  31.683   4.537  0.1799  0.0484  0.3856
 7386W        W50402  33.139  24.754   1.582  0.1959  0.0086 -0.2073
 7387W        W50403   2.656  33.282   4.072 -0.0978  0.1121 -0.2025
 7388W        W50404  19.809   3.777  29.303 -0.1686 -0.3883 -0.0662
 7389W        W50405  15.217  10.313   5.247 -0.2648  0.2001 -0.3612
 7390W        W50406  26.354  21.203   8.034  0.0569 -0.2363  0.4163
 7391W        W50407   6.711  32.078   6.057  0.1152 -0.0545 -0.3334
 7392W        W50408   2.939  24.918   0.006 -0.5273  0.1054 -0.0876
 7393W        W50409  16.768  31.398   2.382 -0.0999  0.3355 -0.0196
 7394W        W50410  16.099   4.115   9.968  0.1373  0.1144 -0.0566
 7395W        W50411  27.898  22.548   9.263 -0.0620  0.1033  0.0944
 7396W        W50412  13.503   1.476   1.820 -0.3391 -0.1106 -0.4472
 7397W        W50413  14.002  21.241   1.520  0.1553  0.1819  0.3612
 7398W        W50414  24.847  29.535   7.989 -0.2503  0.1331  0.0526
 7399W        W50415  12.102   2.952  25.836  0.0854  0.1705  0.1991
 7400W        W50416   6.369  15.787  27.540 -0.4774  0.0057  0.0129
 7401W        W50417  21.919  22.536   0.207 -0.3204  0.3520  0.0937
 7402W        W50418  11.704   3.381  27.954  0.0765 -0.2654  0.1301
 7403W        W50419   7.697  21.942  22.417 -0.1091  0.1528 -0.0925
 7404W        W50420  28.602  25.591   8.692  0.1242 -0.0107 -0.3274
 7405W        W50421   3.868   0.501   3.112 -0.0710 -0.0962 -0.2456
 7406W        W50422  23.640   9.284   3.604  0.2054 -0.0480 -0.1012
 7407W        W50423   8.125  32.984   5.607 -0.0041  0.0449 -0.0142
 7408W        W50424  33.239   0.491  27.910  0.1354  0.0798  0.0963
 7409W        W50425  10.238  10.398   4.987  0.0913 -0.1135 -0.0134
 7410W        W50426   3.867   7.408   6.302 -0.1825  0.1862 -0.2054
 7411W        W50427   8.038  18.316  23.057 -0.0496  0.5277  0.0251
 7412W        W50428   8.586  27.943   2.989  0.2267 -0.0138  0.1241
 7413W        W50429   1.443  31.505  23.944 -0.1222  0.0220  0.0941
 7414W        W50430  16.727  26.922  10.000  0.2153  0.2246 -0.0875
 7415W        W50431  25.979  29.802   3.411  0.1992  0.0806 -0.1639
 7416W        W50432  14.062   0.502  26.107 -0.2460 -0.1813  0.3529
 7417W        W50433  20.223   6.594   9.417  0.2009  0.2490  0.1060
 7418W        W50434  16.834  10.550  26.863  0.2001 -0.0718 -0.1328
 7419W        W50435  19.956  15.191   4.554  0.1687  0.6518 -0.1291
 7420W        W50436  14.666  32.850  11.048 -0.0006  0.0785 -0.1017
 7421W        W50437  34.421  32.736   6.730 -0.0601  0.0105 -0.0288
 7422W        W50438  13.298  22.160   5.579  0.0365 -0.0467 -0.4039
 7423W        W50439  27.820  19.138   1.818 -0.2273 -0.4685  0.0378
 7424W        W50440  20.324  31.912   1.980  0.0542 -0.0303  0.1240
 7425W        W50441  12.145  13.098  21.056  0.0063  0.1484 -0.1837
 7426W        W50442  12.232  34.686   3.300  0.1647  0.1067  0.0668
 7427W        W50443   8.243  30.618   8.150 -0.3661  0.0379 -0.0251
 7428W        W50444  15.943   5.736  10.497 -0.0980  0.1192  0.3228
 7429W        W50445   3.699  26.500  26.191 -0.2842  0.0740  0.0043
 7430W        W50446   4.462  28.350   7.779 -0.0593 -0.2432 -0.2443
 7431W        W50447  27.369  10.638   5.420  0.1712 -0.3161  0.0236
 7432W        W50448   6.934   2.367   9.005  0.2697 -0.0946  0.2114
 7433W        W50449  15.609  32.100  27.343  0.3531 -0.2109  0.1782
 7434W        W50450   8.856  26.158   0.341 -0.0918 -0.0139 -0.1488
 7435W        W50451   7.018   0.395   8.445  0.1856  0.2197  0.1916
 7436W        W50452  14.001   3.558  29.305 -0.0530 -0.1461  0.0338
 7437W        W50453  24.323   2.125   4.448  0.1514  0.1055 -0.0077
 7438W        W50454  24.029  28.206  11.525 -0.1444 -0.0332  0.0115
 7439W        W50455   9.551  23.685   1.507  0.0936  0.1403 -0.2448
 7440W        W50456  20.092  21.401   2.138  0.2112  0.0572  0.0923
 7441W        W50457  17.594   2.537   5.964  0.0244 -0.0118  0.0530
 7442W        W50458  13.689  28.112  25.055 -0.0056 -0.1539 -0.1962
 7443W        W50459  33.556  28.273   2.039 -0.0686  0.0275 -0.0341
 7444W        W50460   8.342  21.968   0.090 -0.1787 -0.0519 -0.2552
 7445W        W50461  23.314   7.779   1.483 -0.2100 -0.0408  0.0693
 7446W        W50462   3.086  13.688   2.676 -0.2900  0.1047 -0.1822
 7447W        W50463  23.638  30.112  27.535  0.2946  0.0352  0.0655
 7448W        W50464  33.873  25.045   0.775  0.0879 -0.0476  0.0210
 7449W        W50465  19.965  20.859  20.785 -0.5308  0.0978 -0.0243
 7450W        W50466  24.411  33.379   8.154  0.2381  0.0813 -0.0419
 7451W        W50467  21.554   8.271  25.310 -0.0430 -0.1217 -0.0881
 7452W        W50468  13.833  27.029   7.809 -0.2110  0.0418 -0.0761
 7453W        W50469  10.413  19.988  21.491  0.2456 -0.2395 -0.0431
 7454W        W50470  29.316  12.382  23.248 -0.0812 -0.0822  0.0300
 7455W        W50471  22.976  24.251  24.403  0.2522  0.0851  0.2552
 7456W        W50472  16.396  11.124   6.537 -0.0229  0.0690  0.1487
 7457W        W50473  23.594   3.373   7.660 -0.1703  0.1669 -0.0614
 7458W        W50474   5.181  30.439  23.158  0.1614 -0.1885 -0.0587
 7459W        W50475   5.471  24.864   0.179  0.0307  0.0905  0.1480
 7460W        W50476  29.204  33.433   6.485 -0.1241 -0.0198  0.2129
 7461W        W50477  18.371  18.066  22.509  0.4270  0.0905 -0.0918
 7462W        W50478  13.511  24.334   8.561 -0.3936 -0.1837 -0.0257
 7463W        W50479  18.390   2.650   2.325  0.1547 -0.0005 -0.1492
 7464W        W50480  20.422  25.475  25.199  0.0211  0.0531  0.1144
 7465W        W50481   4.791  24.276   8.444 -0.2163 -0.3618  0.1517
 7466W        W50482   3.531  33.003  26.125 -0.1687 -0.0214  0.2573
 7467W        W50483  17.344  13.336  20.133  0.1295 -0.0263 -0.0691
 7468W        W50484  10.087  19.690  27.306 -0.3588  0.0173  0.2561
 7469W        W50485  13.545  28.991   6.653  0.0488  0.4214  0.0429
 7470W        W50486  22.685  15.745   3.628  0.2979  0.1340 -0.2037
 7471W        W50487  13.985  33.823  22.926 -0.2625 -0.1862 -0.1108
 7472W        W50488  10.607   5.852  28.230 -0.2618 -0.1821 -0.2339
 7473W        W50489  10.997  26.030   4.615 -0.0330 -0.1345  0.2018
 7474W        W50490  23.347   1.992   6.070  0.1347 -0.0227  0.0451
 7475W        W50491  15.844  17.563   7.777  0.2193  0.0108 -0.0127
 7476W        W50492   8.405  20.081  26.735  0.2917  0.0141 -0.0995
 7477W        W50493  14.005   8.270   4.051 -0.2829  0.0389 -0.0401
 7478W        W50494  19.435  16.877  26.894 -0.1527 -0.0257  0.0838
 7479W        W50495  19.185  24.598   7.518  0.2303 -0.0521  0.1201
 7480W        W50496  12.804   7.217  15.168 -0.1375 -0.1652  0.0300
 7481W        W50497  19.843  29.012   1.875  0.0145 -0.3636 -0.1170
 7482W        W50498  27.947  33.664   9.610  0.1207 -0.0338 -0.0764
 7483W        W50499  15.007  32.517   4.474 -0.0623  0.2782 -0.1367
 7484W        W50500  22.683   0.527   1.499  0.1007  0.0565  0.1098
 7485W        W50501  28.062  12.625  18.415  0.0970  0.2383 -0.4475
 7486W        W50502   8.183  27.173  22.071 -0.3311 -0.1000 -0.0682
 7487W        W50503  30.476  30.149   3.867  0.0320  0.1493 -0.0136
 7488W        W50504  20.975  34.288   7.898 -0.4639 -0.1488  0.1583
 7489W        W50505  16.473  15.491  18.781 -0.0779 -0.0193 -0.1266
 7490W        W50506  13.417  10.974   1.192 -0.2998  0.1750 -0.1308
 7491W        W50507  17.932   0.618   3.382  0.0043  0.0539 -0.2290
 7492W        W50508  18.118  30.489   9.159 -0.1918  0.3818  0.1969
 7493W        W50509  15.537  28.055   4.489  0.0328 -0.2077 -0.1151
 7494W        W50510  22.067  25.179   2.682  0.1866  0.0190 -0.0835
 7495W        W50511  12.809  28.901  14.118  0.0718 -0.0605 -0.1889
 7496W        W50512   4.222  32.489   6.165  0.2406 -0.0908  0.0329
 7497W        W50513  33.091  14.339   5.998  0.0078 -0.1738 -0.1111
 7498W        W50514   9.449  13.458  27.085 -0.1646  0.0488  0.0888
 7499W        W50515  19.251  29.662  11.371 -0.4382 -0.1904  0.1891
 7500W        W50516  12.784   6.478  21.047 -0.2879  0.0306 -0.2940
 7501W        W50517  34.571   2.215   0.313  0.3179  0.1353 -0.1878
 7502W        W50518   7.764  14.711  27.185  0.0609 -0.2529 -0.2767
 7503W        W50519  19.002  13.342   8.133  0.0038  0.0010 -0.1215
 7504W        W50520  24.005  22.781   3.015 -0.0595 -0.1653 -0.0781
 7505W        W50521  13.719  32.002   2.733 -0.0485  0.2663 -0.0147
 7506W        W50522  15.122   8.832  25.558 -0.2712 -0.1743 -0.0935
 7507W        W50523   5.336   1.941   8.284  0.0037 -0.2808  0.1801
 7508W        W50524  18.169  27.040   9.286 -0.0032 -0.2558 -0.1042
 7509W        W50525  13.177   2.139   5.665  0.0537 -0.1493 -0.0850
 7510W        W50526  30.492   8.375  29.173  0.0805 -0.2298 -0.2552
 7511W        W50527  21.724  30.270   7.488  0.1235 -0.3261 -0.1627
 7512W        W50528   3.596   7.698  23.991 -0.0867 -0.1168 -0.0433
 7513W        W50529   8.955   2.629   8.932 -0.3090  0.0595  0.0143
 7514W        W50530  14.802  25.556   9.828 -0.1976  0.1688 -0.2384
 7515W        W50531   4.865  25.827   4.538 -0.0733 -0.1520 -0.1509
 7516W        W50532  11.066  26.236   8.796 -0.4773  0.0969  0.0590
 7517W        W50533  33.941   7.397   2.869  0.0953  0.0008 -0.0124
 7518W        W50534  32.681  25.878  28.900  0.0554  0.0855  0.0965
 7519W        W50535  28.030  21.958   9.165  0.1013  0.0402 -0.0412
 7520W        W50536   6.669   0.192   2.916  0.1278 -0.1519  0.1374
 7521W        W50537  22.805   6.537   2.369 -0.2905 -0.1156 -0.2771
 7522W        W50538  11.658  11.809   4.950 -0.0457 -0.0208  0.0421
 7523W        W50539  13.469  31.647   7.381 -0.1542  0.0597 -0.1774
 7524W        W50540   0.509   0.053  17.009 -0.0136  0.2026 -0.0856
 7525W        W50541  28.400  30.094   9.403 -0.0408 -0.3351  0.2921
 7526W        W50542   1.742  29.148   9.748 -0.2758 -0.1620 -0.1853
 7527W        W50543   0.715  33.604   2.280 -0.0900 -0.0020 -0.0952
 7528W        W50544  20.501  12.656   3.078  0.1087  0.0677  0.0052
 7529W        W50545  26.959  29.197   1.944 -0.1194 -0.1177 -0.2872
 7530W        W50546  25.263  32.970   7.867 -0.1014 -0.5233  0.1028
 7531W        W50547  27.238   5.799  11.123 -0.1423 -0.0160 -0.2536
 7532W        W50548  30.085   7.063   3.738 -0.1783 -0.1704  0.2264
 7533W        W50549  14.623   9.357  25.458  0.0966  0.1390 -0.1570
 7534W        W50550  32.515  12.951  18.675  0.0272 -0.1614  0.1974
 7535W        W50551  33.885  32.147  10.630 -0.0205  0.3424 -0.3026
 7536W        W50552  19.267   2.597  21.228  0.1670  0.0200 -0.2228
 7537W        W50553  18.053  23.660   2.386 -0.0533  0.1178  0.0995
 7538W        W50554  17.146  29.414   3.142  0.2034 -0.0610  0.0196
 7539W        W50555  20.024  23.572   4.907  0.0123  0.1795 -0.1491
 7540W        W50556  21.846  23.395  23.114  0.1294  0.0970 -0.0672
 7541W        W50557  14.168  32.821   4.478  0.0971 -0.2287  0.2686
 7542W        W50558  14.401  23.590   6.507  0.2495 -0.1248 -0.5613
 7543W        W50559  22.952  21.262   5.148 -0.0023  0.0457  0.0229
 7544W        W50560  22.845  25.356   3.870 -0.0144 -0.0140  0.0113
 7545W        W50561  17.039  28.576   8.309 -0.1359 -0.3445 -0.0356
 7546W        W50562  25.103   3.081  26.613 -0.0785  0.1475 -0.1874
 7547W        W50563  21.962  19.538   1.954 -0.0500  0.1724  0.1505
 7548W        W50564   8.971  23.877   4.892  0.0316 -0.0150 -0.0881
 7549W        W50565  15.909   4.071   6.510  0.0841  0.2207 -0.1550
 7550W        W50566  10.420   6.151  22.850 -0.0748  0.0345  0.0378
 7551W        W50567  27.195  20.051  29.006 -0.1508  0.0114  0.2781
 7552W        W50568  20.808  17.597   7.076  0.0920 -0.1049  0.0624
 7553W        W50569  25.100  23.144   1.489  0.3813 -0.1705  0.4257
 7554W        W50570   3.148  29.755   7.466  0.2086 -0.1064  0.1259
 7555W        W50571  33.868   1.039  10.219  0.4653  0.0370  0.0159
 7556W        W50572   5.956  26.800   7.513  0.2123 -0.0850  0.0419
 7557W        W50573  19.811   2.931   7.153 -0.1703  0.0010 -0.0248
 7558W        W50574  10.542  15.603   1.765 -0.2031 -0.1356  0.1410
 7559W        W50575  18.353  25.078  13.111  0.0415  0.4733  0.0077
 7560W        W50576   8.692  17.306   5.203  0.2457  0.0184 -0.0757
 7561W        W50577  16.099  20.984  25.569  0.2398  0.1354  0.0316
 7562W        W50578  13.266  26.576   0.563  0.0411  0.0046 -0.0110
 7563W        W50579  24.393  34.758  10.032 -0.0705  0.1495 -0.0291
 7564W        W50580  25.682  17.795   2.230 -0.0070  0.0611  0.1261
 7565W        W50581   8.193   3.585   4.448 -0.2947  0.2911 -0.0644
 7566W        W50582  23.433  27.628   2.859  0.0383 -0.1844 -0.0350
 7567W        W50583  29.044  33.873   6.381 -0.0842 -0.2267 -0.1241
 7568W        W50584  14.973  22.474  27.818  0.2134  0.1704 -0.2977
 7569W        W50585  22.526  34.499   8.260  0.3977  0.0231  0.3250
 7570W        W50586  31.250  28.826  17.711 -0.1240 -0.5700  0.3082
 7571W        W50587  22.509   1.814  27.282 -0.3995 -0.1688  0.3001
 7572W        W50588  10.704   3.122   1.530  0.0948  0.0185  0.1150
 7573W        W50589   9.345   6.876   3.643  0.0743  0.0851  0.0566
 7574W        W50590   3.820  27.852   9.893  0.1434 -0.0499  0.1177
 7575W        W50591  25.169  22.083   5.904 -0.2449  0.2066  0.0394
 7576W        W50592  19.489  31.001  10.899 -0.1811 -0.0258  0.2475
 7577W        W50593  11.361  31.459  24.327  0.0594  0.0935 -0.1216
 7578W        W50594  17.496  18.305   8.303  0.2082 -0.1029  0.0771
 7579W        W50595  17.520  14.480   2.813  0.2591  0.0583  0.1666
 7580W        W50596  24.371  23.626   6.967  0.2537  0.0759 -0.0998
 7581W        W50597  14.465   2.216   4.316 -0.0775  0.1437 -0.0250
 7582W        W50598  21.488   6.948  23.470 -0.0180 -0.0156 -0.0502
 7583W        W50599  12.834   6.402  26.432  0.3543  0.3415 -0.1099
 7584W        W50600   4.851   7.231   4.496 -0.2265 -0.0129  0.0606
 7585W        W50601  16.675  34.350   9.189 -0.1606  0.2380  0.0120
 7586W        W50602  13.913   6.422  22.235 -0.0139 -0.0718 -0.2392
 7587W        W50603  12.692  29.028   1.938  0.4371  0.0035  0.1044
 7588W        W50604  15.907   7.527   8.296  0.3030 -0.0180 -0.2193
 7589W        W50605  30.619  32.769   6.549  0.1068 -0.0115  0.1251
 7590W        W50606  14.335  27.312   4.879  0.1664 -0.1107  0.0382
 7591W        W50607  28.208  31.959   2.603 -0.1334 -0.1279 -0.2092
 7592W        W50608  17.155  34.666   7.905  0.0055 -0.3275  0.0689
 7593W        W50609  20.974  32.343  10.213 -0.0647 -0.0043  0.1430
 7594W        W50610  13.679   1.318   6.059 -0.0658 -0.0770  0.2196
 7595W        W50611  23.111  28.221   9.040  0.2459  0.0206  0.1408
 7596W        W50612  17.971  14.390   1.252 -0.1145 -0.1047  0.0557
 7597W        W50613   2.730  21.989   9.680  0.2450 -0.0442 -0.0602
 7598W        W50614  26.034   7.011   9.764  0.0520 -0.0253 -0.0010
 7599W        W50615  24.392  24.104  27.939  0.0540  0.2782 -0.0071
 7600W        W50616  16.866  25.454  20.838  0.1915  0.3270 -0.1351
 7601W        W50617  15.003  10.724   1.579 -0.0289  0.1247  0.1938
 7602W        W50618   9.545   5.776  25.176  0.1541  0.3014  0.1740
 7603W        W50619  10.535  31.002  24.406  0.0631 -0.5547 -0.0018
 7604W        W50620  27.668   4.717  24.003  0.0890  0.1145  0.1545
 7605W        W50621  20.016  21.324   6.633 -0.3999  0.0965  0.3173
 7606W        W50622  22.852  31.690  20.737  0.1113  0.0202 -0.0530
 7607W        W50623  30.711  20.671  10.139 -0.0571 -0.1602  0.0826
 7608W        W50624  18.856  29.027   6.633  0.2924 -0.0914  0.1543
 7609W        W50625   3.278  22.911   8.018 -0.0071 -0.1954 -0.2205
 7610W        W50626  20.159  23.416   7.765 -0.4136 -0.1566  0.2753
 7611W        W50627  10.174   5.269   8.455 -0.0051  0.2095  0.1151
 7612W        W50628  34.132  24.948  25.008 -0.0020  0.0775 -0.0933
 7613W        W50629   9.015  13.999   0.311 -0.0028  0.2638 -0.2019
 7614W        W50630  20.505  34.312   3.601  0.3000 -0.2333 -0.2361
 7615W        W50631   9.132   7.360   6.261 -0.1279  0.2808  0.2693
 7616W        W50632  24.012   4.511   9.260  0.0368  0.1429  0.0640
 7617W        W50633   1.382   1.086   9.969 -0.0974 -0.1447  0.2435
 7618W        W50634  22.891  31.086  10.459 -0.1507 -0.2565 -0.0684
 7619W        W50635  22.646  29.397   2.436  0.2978  0.3954 -0.2813
 7620W        W50636  12.277  13.425   5.670 -0.2165  0.0615 -0.0241
 7621W        W50637  18.792  30.696   0.175  0.2174 -0.0199  0.1141
 7622W        W50638  16.817  32.129   3.233  0.0353 -0.1570 -0.3233
 7623W        W50639  22.707  20.098   3.599 -0.0260  0.0755 -0.2195
 7624W        W50640  21.969   8.025  22.987  0.1603 -0.0531  0.2036
 7625W        W50641   7.022  18.440   2.279  0.0265  0.0328  0.2100
 7626W        W50642  10.731  16.299   0.483 -0.1086  0.1202  0.0868
 7627W        W50643  23.845   3.997   3.876  0.0842 -0.1232 -0.0706
 7628W        W50644  17.457   3.809   2.941  0.0652 -0.2671 -0.1436
 7629W        W50645   8.578   4.000   8.591 -0.1109  0.2825 -0.1496
 7630W        W50646   3.357   6.740  14.203 -0.1192 -0.1915 -0.0998
 7631W        W50647  17.778  34.474  21.449  0.0017 -0.0281  0.0948
 7632W        W50648  14.146  17.590   6.931  0.4511 -0.1202 -0.1385
 7633W        W50649  22.291  32.130   4.548 -0.2773 -0.4055  0.0623
 7634W        W50650  13.848  11.277   8.196 -0.2807 -0.0635  0.2561
 7635W        W50651  32.894  28.325   9.792  0.2091  0.0809 -0.1945
 7636W        W50652  11.858  17.724  28.259  0.2718 -0.1636 -0.1241
 7637W        W50653  15.952  30.557   5.060  0.0586  0.3376  0.0987
 7638W        W50654  13.568  31.317   3.390 -0.0013  0.1242  0.1953
 7639W        W50655   7.447  26.570   5.355  0.2341  0.2172  0.1082
 7640W        W50656  30.330  32.062   5.523 -0.1633 -0.2307  0.0399
 7641W        W50657  14.386  24.684  26.331 -0.0158 -0.2090 -0.3943
 7642W        W50658  28.365  22.945  27.147 -0.1327 -0.0355  0.1137
 7643W        W50659  15.554   8.848  20.504 -0.1614  0.4442  0.1044
 7644W        W50660  19.924   0.372  27.987 -0.0554  0.2406  0.1395
 7645W        W50661   7.497   7.243   1.504  0.2029 -0.1426 -0.1737
 7646W        W50662   0.433  30.592   9.809  0.2741  0.0922 -0.3962
 7647W        W50663   9.531   3.268   9.975 -0.1211 -0.1880 -0.1729
 7648W        W50664  22.426   1.062  18.966 -0.2549 -0.0549 -0.3825
 7649W        W50665   7.857   6.581  28.594 -0.2134  0.3889 -0.2865
 7650W        W50666  13.163  33.677  28.959  0.1828  0.0322  0.0558
 7651W        W50667  16.793   3.961  18.592  0.2910 -0.1981 -0.0553
 7652W        W50668  31.688  30.095   3.314 -0.2154  0.1227 -0.2743
 7653W        W50669  18.111   0.080   4.274  0.0402  0.0744  0.1858
 7654W        W50670  14.760   5.672   1.545  0.3108 -0.0912  0.1620
 7655W        W50671  13.933  28.366  10.004 -0.0957  0.0568 -0.1799
 7656W        W50672  21.542  27.236   6.482  0.1338 -0.1530 -0.0814
 7657W        W50673   8.617  31.618  28.525 -0.1742  0.0362  0.2634
 7658W        W50674  12.877  22.282  25.051 -0.0311  0.0508 -0.0183
 7659W        W50675  20.496  20.031   4.684 -0.5524  0.0069  0.1260
 7660W        W50676   5.003  34.471   5.958  0.4728 -0.1060 -0.2879
 7661W        W50677  14.167   3.566   4.898  0.1212  0.0035  0.0792
 7662W        W50678  26.438  30.065  11.157  0.0711  0.2074  0.1071
 7663W        W50679  14.218   7.118   2.259  0.0325  0.0118  0.2631
 7664W        W50680  13.129   6.186  20.858  0.2420 -0.2601  0.3677
 7665W        W50681  15.314  15.900  22.456  0.1197 -0.1382 -0.0809
 7666W        W50682   9.841  27.467   6.618 -0.0671  0.0617  0.0264
 7667W        W50683   1.431  32.969   0.235  0.0575  0.0594  0.2176
 7668W        W50684   7.530  15.025   0.578 -0.0694  0.1102  0.3235
 7669W        W50685  26.173  24.949   8.351  0.1118  0.0133  0.0898
 7670W        W50686   4.515  34.109   5.781 -0.0387 -0.0476  0.1855
 7671W        W50687  21.268  34.711   8.832  0.2029  0.1269  0.1505
 7672W        W50688  13.022  13.680  24.980  0.1496 -0.2243 -0.0131
 7673W        W50689  27.867  25.397  17.364  0.0255  0.1033 -0.0152
 7674W        W50690  34.329  26.874   0.837  0.1997  0.1264  0.2100
 7675W        W50691  31.025  30.945   8.583 -0.0582 -0.0992  0.0958
 7676W        W50692  33.067  30.154  16.042  0.0218 -0.0153 -0.2289
 7677W        W50693   7.734  14.390   2.509 -0.0733  0.0823  0.0116
 7678W        W50694  20.597   1.488   4.802 -0.0563 -0.2708 -0.0281
 7679W        W50695   5.950  22.229   5.168 -0.1172 -0.1621 -0.0754
 7680W        W50696   5.912  24.724  23.732 -0.3496  0.0702 -0.0011
 7681W        W50697  33.759   0.367  25.321  0.0478 -0.0240  0.1114
 7682W        W50698   3.696  28.300   4.964  0.0189  0.1502 -0.0764
 7683W        W50699   9.125   2.485   4.958  0.6060 -0.1963 -0.1576
 7684W        W50700  23.033  31.054   4.253 -0.0128  0.4154 -0.0289
 7685W        W50701   6.482   3.831   2.425 -0.0708  0.0100  0.1010
 7686W        W50702   9.320  28.070  16.602 -0.1523 -0.0205  0.1026
 7687W        W50703  18.359  21.344  27.124 -0.0837 -0.0177  0.0460
 7688W        W50704   6.848  30.999  27.512 -0.2391  0.1230  0.0698
 7689W        W50705  17.090  27.342  21.468  0.1484  0.2120  0.0276
 7690W        W50706  29.786  15.262   5.163 -0.1041 -0.2038  0.0082
 7691W        W50707   4.202   2.161  10.054 -0.0420 -0.0258 -0.1460
 7692W        W50708  13.522   9.728   5.491  0.2058 -0.1563 -0.1270
 7693W        W50709  26.384   3.108   5.767  0.1243  0.6401 -0.1729
 7694W        W50710  23.247  13.102  27.566 -0.0808  0.1154 -0.2991
 7695W        W50711  11.556   6.521   4.057 -0.0401 -0.1806 -0.0050
 7696W        W50712   9.050  31.931   3.783 -0.1332  0.1916  0.1155
 7697W        W50713  26.014  21.403  20.610  0.1693  0.3512  0.1184
 7698W        W50714  23.708  10.109   1.671 -0.1210  0.1867  0.1973
 7699W        W50715  26.946  27.998   1.874 -0.2077  0.0109  0.1168
 7700W        W50716   1.099  14.217  22.488  0.0920 -0.1501 -0.0698
 7701W        W50717  10.159  25.987  25.865  0.1495 -0.0703 -0.2089
 7702W        W50718   1.194  18.220   8.027  0.2283 -0.3970  0.0477
 7703W        W50719  16.615   3.650  28.785  0.1484 -0.1101 -0.5966
 7704W        W50720  24.597  32.662  11.320  0.0283 -0.2753  0.0432
 7705W        W50721   2.868  19.915   8.667  0.0993 -0.0632  0.2300
 7706W        W50722   5.587  17.293   2.969  0.3007  0.0511  0.4968
 7707W        W50723  14.205  24.171  23.156 -0.0776 -0.1181 -0.2193
 7708W        W50724  31.735  26.891  25.303 -0.2606  0.3724  0.0899
 7709W        W50725  12.735  10.578   7.821  0.2609  0.1667 -0.0208
 7710W        W50726  18.448  24.417   8.739  0.1506 -0.2725 -0.3419
 7711W        W50727  32.456  26.826   8.880 -0.1684  0.1971 -0.2396
 7712W        W50728  24.926  26.331  11.008 -0.0978  0.1216 -0.0368
 7713W        W50729  32.746  22.711  25.669 -0.0058  0.4492 -0.1398
 7714W        W50730  16.351   1.344  22.480 -0.0682  0.1795  0.1567
 7715W        W50731   7.504  29.059   6.431 -0.1079 -0.2058  0.2321
 7716W        W50732   0.776  28.121  26.734 -0.0376  0.0754 -0.0363
 7717W        W50733  13.878  18.664   6.827 -0.0064  0.1413  0.1746
 7718W        W50734  19.805  29.477   6.227  0.2044 -0.2919  0.2916
 7719W        W50735  20.887   4.525  28.627  0.2761  0.1794 -0.1870
 7720W        W50736  20.908   9.088   2.400  0.0650  0.0970  0.2146
 7721W        W50737   6.042  19.851  22.938 -0.3328 -0.1135  0.1040
 7722W        W50738  30.179  23.962   2.823  0.2774 -0.2225 -0.0874
 7723W        W50739   5.921  11.508  24.235 -0.0391 -0.5110 -0.4159
 7724W        W50740  21.444  15.590  21.761 -0.0626 -0.2247  0.0234
 7725W        W50741  19.773  22.833  20.916 -0.1627  0.3476  0.0428
 7726W        W50742  10.107   2.405   9.151 -0.0027 -0.3352 -0.2352
 7727W        W50743  21.254  28.490   7.583 -0.1121  0.1711  0.0356
 7728W        W50744   2.065   7.958  10.511  0.1006  0.0450  0.1453
 7729W        W50745  30.820  24.021  28.753  0.2365  0.0759 -0.0593
 7730W        W50746  22.241   3.706   9.688 -0.1791  0.0699 -0.2311
 7731W        W50747  18.151   8.905   5.498  0.0522  0.0308 -0.0374
 7732W        W50748  27.875  22.639   1.269  0.3063  0.3678 -0.1093
 7733W        W50749  18.587  16.526   3.413 -0.0226  0.2544  0.0207
 7734W        W50750   0.662   4.582   2.748  0.2386 -0.4069  0.2179
 7735W        W50751  25.508  21.631  26.502 -0.1850  0.0694 -0.0723
 7736W        W50752  14.344  28.174   4.276 -0.4232 -0.0656  0.0211
 7737W        W50753   7.252  32.655   5.943 -0.1260 -0.1747 -0.1612
 7738W        W50754  26.548  28.254  24.054 -0.0187  0.1840 -0.0329
 7739W        W50755   9.374  29.315   5.980  0.5355  0.0610 -0.0022
 7740W        W50756  17.257  30.804   3.263  0.1730 -0.2351  0.5290
 7741W        W50757  14.627   7.996   7.982 -0.4714  0.0433 -0.1826
 7742W        W50758  20.147  22.422  22.713  0.1201  0.1512  0.0722
 7743W        W50759  14.161   2.910   9.708 -0.3106 -0.3560 -0.0688
 7744W        W50760  29.781  24.124   7.097 -0.1404 -0.0108 -0.0702
 7745W        W50761  19.452   2.035  28.348 -0.2947  0.0264  0.2637
 7746W        W50762  14.925  26.674   3.022 -0.3696 -0.2396 -0.0792
 7747W        W50763  16.663  16.570  20.169 -0.0200 -0.2616  0.2953
 7748W        W50764  10.699   8.392   0.604 -0.1939 -0.2654 -0.3196
 7749W        W50765  34.429  10.444  22.505 -0.0011  0.2055  0.1400
 7750W        W50766  14.386  22.177  24.803 -0.0157 -0.1040  0.2060
 7751W        W50767  24.770  16.161   8.382  0.4533 -0.3111  0.1236
 7752W        W50768  13.789   3.202  29.038  0.2627  0.0436  0.3757
 7753W        W50769  30.183  34.437   6.766  0.1309 -0.0700 -0.2772
 7754W        W50770  16.888   4.536   7.225 -0.1822 -0.0477 -0.1370
 7755W        W50771  12.290  25.047   1.059  0.2794  0.1958  0.3087
 7756W        W50772  15.343  29.563   7.009  0.2107  0.1961  0.2992
 7757W        W50773  13.251  24.284  24.537  0.0286  0.0122  0.0602
 7758W        W50774  15.882  32.850   1.580 -0.0600  0.4144  0.0912
 7759W        W50775  10.283  18.292  22.127 -0.0025  0.0964  0.3500
 7760W        W50776  12.482  24.146  13.237 -0.2982  0.1185  0.2572
 7761W        W50777  13.441  25.810   8.527 -0.1314 -0.4587 -0.1591
 7762W        W50778  21.827   2.280  10.756  0.3581  0.1923  0.0441
 7763W        W50779  22.581   1.072   9.317  0.1608  0.0942 -0.0582
 7764W        W50780  16.420  30.573   1.226  0.2025 -0.0414  0.3432
 7765W        W50781  21.095  31.386   5.899  0.0609 -0.2303  0.0184
 7766W        W50782  24.656  13.815   2.998 -0.0761  0.2713  0.1178
 7767W        W50783  25.343  21.099  27.977 -0.2090  0.1032 -0.0593
 7768W        W50784  28.618  27.107  10.358  0.1469  0.2050  0.1060
 7769W        W50785   8.283  17.470   1.003 -0.3724 -0.2891 -0.2610
 7770W        W50786  13.862  28.408   3.070 -0.2146  0.0050 -0.0785
 7771W        W50787  10.907  16.228  26.529 -0.0108 -0.2578 -0.2920
 7772W        W50788  31.714  16.225  23.909 -0.1784 -0.1544 -0.2124
 7773W        W50789  29.455  32.256  27.653  0.0191 -0.1082  0.1633
 7774W        W50790  11.788  29.814   7.272 -0.2428  0.4914  0.2125
 7775W        W50791   6.167  28.519  10.112  0.2973 -0.1477  0.3104
 7776W        W50792  15.604   7.562   9.781  0.2742 -0.1120 -0.1830
 7777W        W50793  17.828  23.528   4.405  0.1651  0.0031  0.0605
 7778W        W50794  14.890  31.306  10.994 -0.2806 -0.0467  0.1042
 7779W        W50795  12.410   6.646  16.179  0.0047  0.0595  0.3264
 7780W        W50796  32.283   9.023   6.370  0.0045 -0.0386 -0.0820
 7781W        W50797  13.851  25.461   7.798  0.0752  0.4429 -0.1038
 7782W        W50798  34.074   1.081   8.466  0.1993  0.2302  0.0157
 7783W        W50799   5.735  24.440   0.145  0.5010  0.0244 -0.2184
 7784W        W50800  21.456  30.117  10.421  0.0489  0.2645 -0.1921
 7785W        W50801  22.992  19.518   8.205 -0.1198 -0.0436 -0.2474
 7786W        W50802  26.609  14.871   6.122  0.0716 -0.0957 -0.0228
 7787W        W50803   9.007   5.893   7.642  0.1340 -0.0937  0.4300
 7788W        W50804  17.830   1.493  27.800 -0.1506  0.0586 -0.0157
 7789W        W50805  12.177  27.705   9.365  0.0508 -0.1472 -0.2339
 7790W        W50806   7.414  27.916   4.100 -0.2960 -0.1758 -0.0896
 7791W        W50807   9.398   6.695   5.160  0.1028  0.0773 -0.2032
 7792W        W50808  24.480  13.142  28.064 -0.1042 -0.1137  0.3176
 7793W        W50809  32.773  26.778  25.648 -0.2965  0.0352 -0.0649
 7794W        W50810  20.445  13.135   6.884  0.1599 -0.2958  0.0755
 7795W        W50811  19.124  18.731  23.644  0.0726  0.0322 -0.1601
 7796W        W50812  13.602  14.290  22.746 -0.0902 -0.0561  0.1301
 7797W        W50813   6.431   7.594   8.475  0.2086  0.0337 -0.1138
 7798W        W50814  24.666  21.827   4.488 -0.0753  0.1553 -0.0067
 7799W        W50815  21.188  22.375   9.186 -0.1608  0.2143 -0.0082
 7800W        W50816  11.648  13.851   2.772 -0.1123  0.1946 -0.1507
 7801W        W50817  14.353  26.152   7.602 -0.0366  0.0102  0.2103
 7802W        W50818  34.064  21.968  29.044 -0.0964  0.0939  0.0658
 7803W        W50819  27.331   8.993   0.174 -0.1939 -0.2142 -0.0810
 7804W        W50820   4.661   4.649   8.424  0.0610  0.2271 -0.2510
 7805W        W50821  18.646   7.140  24.433 -0.2358 -0.1182 -0.0862
 7806W        W50822  13.380  33.655  25.625 -0.0374  0.1884  0.6132
 7807W        W50823   8.164  14.579   2.195  0.0891 -0.2230 -0.0555
 7808W        W50824  26.922   2.409  10.998 -0.0377 -0.1767  0.2935
 7809W        W50825  20.947  29.072   4.804  0.1083  0.2702 -0.1372
 7810W        W50826  18.413  33.999  27.181  0.0351  0.0850  0.0404
 7811W        W50827  20.079   0.827   8.244  0.0688  0.1396 -0.5022
 7812W        W50828  11.732  19.591   7.031 -0.3059  0.2954 -0.4269
 7813W        W50829  11.368  24.978   5.058 -0.2439  0.2387  0.0356
 7814W        W50830  16.246  29.927   6.550  0.0927  0.2323 -0.0476
 7815W        W50831  26.668  10.487   9.056  0.4241 -0.1110  0.0781
 7816W        W50832   2.411  29.146   2.806  0.0951  0.0911  0.0102
 7817W        W50833  17.883  22.468  28.073 -0.0780  0.1708  0.1055
 7818W        W50834  10.636  33.277   6.416 -0.3412 -0.2795 -0.1181
 7819W        W50835  25.005  28.901   1.406  0.0166 -0.3014  0.2579
 7820W        W50836  27.620  15.632  26.704  0.0687  0.2441  0.1145
 7821W        W50837  10.591  16.120   1.422  0.0650  0.3209  0.0707
 7822W        W50838  27.324  14.881   8.271 -0.3673  0.2597 -0.2219
 7823W        W50839  20.689   4.376  22.750  0.0127 -0.2069 -0.0226
 7824W        W50840   3.159  29.328   5.761 -0.0469 -0.1058 -0.0882
 7825W        W50841  13.985  15.356   3.470  0.0726  0.0651 -0.1097
 7826W        W50842   5.758   6.339   1.986  0.0839  0.2138  0.2326
 7827W        W50843  26.759  24.508   2.945  0.0974 -0.3400  0.2045
 7828W        W50844  19.825  17.906  27.742 -0.0744 -0.1411 -0.1201
 7829W        W50845   4.749  27.747  22.183  0.0479 -0.2188  0.0881
 7830W        W50846  15.171   2.876   6.573 -0.1838 -0.3324 -0.2835
 7831W        W50847  28.417   4.839   2.208 -0.0434 -0.1866  0.1250
 7832W        W50848  27.925   9.080   8.682 -0.0757 -0.0667 -0.1155
 7833W        W50849   2.943   0.673  27.274  0.2155 -0.1919  0.2595
 7834W        W50850  16.138   2.456   6.977  0.0986 -0.1611  0.2646
 7835W        W50851  13.598   1.050   2.232 -0.1669 -0.0106  0.0311
 7836W        W50852   6.813  24.695   0.000 -0.2058 -0.0240  0.1445
 7837W        W50853  23.481  31.134   7.042 -0.0547 -0.2515  0.3475
 7838W        W50854  23.269  29.288   7.255 -0.0039 -0.0826 -0.3137
 7839W        W50855   6.602  23.841   3.461 -0.0428 -0.0909 -0.3273
 7840W        W50856  28.578  28.310   6.923  0.4774  0.0944  0.1603
 7841W        W50857  14.770   1.961   5.494 -0.2373  0.1917 -0.0271
 7842W        W50858  16.469   5.272   5.855 -0.0412 -0.2238 -0.1418
 7843W        W50859  27.540  10.121  16.634 -0.2215 -0.1341  0.3936
 7844W        W50860   4.991  28.940  10.258  0.0452 -0.0353 -0.2636
 7845W        W50861   9.826  28.421   8.883 -0.3052  0.0457 -0.1991
 7846W        W50862  19.306   2.773   7.781  0.1861 -0.2244  0.0107
 7847W        W50863   2.337  24.103   8.972 -0.0023 -0.0371 -0.2983
 7848W        W50864  12.403   6.994   8.297  0.0762 -0.0914 -0.1578
 7849W        W50865   3.526  19.582   5.115 -0.1539  0.0001 -0.1664
 7850W        W50866  15.348   0.683  25.842 -0.2735 -0.1545 -0.1172
 7851W        W50867  17.819   3.180  23.726 -0.0389  0.0971  0.0437
 7852W        W50868  31.413  28.110   8.023  0.0655 -0.1356 -0.1683
 7853W        W50869   7.741  13.286   6.722 -0.0213 -0.0991  0.1603
 7854W        W50870  32.428   3.171  22.188 -0.0830 -0.2073 -0.0354
 7855W        W50871   5.342   4.140  25.682 -0.2154  0.1444  0.0902
 7856W        W50872  28.313   7.178   1.252  0.3031 -0.3318  0.0931
 7857W        W50873  13.643  22.539   0.706  0.3279 -0.1597  0.1336
 7858W        W50874  18.120  15.891  26.456  0.0440  0.0086 -0.1908
 7859W        W50875  18.660  30.124  26.929 -0.5060  0.0835 -0.2641
 7860W        W50876  11.083  15.607   6.541 -0.2840  0.1132 -0.0730
 7861W        W50877  19.014  28.086  27.157 -0.2485  0.0065  0.1504
 7862W        W50878  14.804  10.233  26.005  0.0756 -0.3940 -0.0750
 7863W        W50879  22.235  29.257  17.573  0.2421  0.0614  0.0649
 7864W        W50880  18.528  10.866   5.779 -0.2066  0.2221 -0.0838
 7865W        W50881  33.838   2.259   7.699 -0.1087 -0.2084 -0.0961
 7866W        W50882  24.929  33.030   5.733 -0.4366  0.1443 -0.2261
 7867W        W50883  34.356  34.182   6.361 -0.3702  0.0556  0.0078
 7868W        W50884  10.306   4.677  26.678  0.2333  0.2635 -0.0136
 7869W        W50885   7.803   1.970   5.010 -0.2200  0.1938 -0.0935
 7870W        W50886  23.370   4.573   7.924 -0.1248  0.0874 -0.0122
 7871W        W50887  24.963  22.919  10.472  0.0450 -0.1503  0.1039
 7872W        W50888   0.733   1.566   9.751 -0.0841  0.2252  0.3825
 7873W        W50889  19.707  20.213   8.377  0.2002  0.2163  0.1103
 7874W        W50890  11.103  31.465   6.436 -0.3154 -0.0277 -0.0200
 7875W        W50891  13.703   6.487   2.474  0.1696  0.2557 -0.0638
 7876W        W50892   9.581  22.815  12.574  0.2280  0.3276 -0.0042
 7877W        W50893   4.722   1.292   8.020  0.1955  0.3381  0.1260
 7878W        W50894  31.387   2.001  23.478 -0.1543  0.1189 -0.3836
 7879W        W50895  17.156  13.557   0.073  0.2420 -0.2414  0.4313
 7880W        W50896  13.617   4.495  18.433  0.0734  0.0973  0.1530
 7881W        W50897   2.854  33.294   2.958  0.1477 -0.1540 -0.0038
 7882W        W50898  20.776  32.371   6.910 -0.0420  0.1098 -0.0029
 7883W        W50899  22.973  30.005  21.845 -0.1338  0.0597  0.3051
 7884W        W50900  16.098  14.431  15.558  0.2327 -0.2492  0.0311
 7885W        W50901   7.551  34.431   5.837  0.3118 -0.1367  0.0942
 7886W        W50902  11.152  30.355  15.141  0.0126  0.2146  0.3174
 7887W        W50903  33.241  30.343   3.837 -0.1142 -0.0972 -0.1185
 7888W        W50904  16.230  10.830  19.562  0.1342 -0.2214 -0.0177
 7889W        W50905   4.117  32.593   8.718 -0.2310 -0.3743 -0.2728
 7890W        W50906  21.706   3.061  23.799  0.0179  0.0631  0.1591
 7891W        W50907  16.206  26.377   3.704 -0.0101  0.3064 -0.1141
 7892W        W50908   4.935  21.500  14.027 -0.0408  0.0255 -0.1244
 7893W        W50909  13.123   6.294   7.635  0.0998  0.3058  0.2533
 7894W        W50910   5.012   0.472  27.310  0.2154  0.0551  0.1211
 7895W        W50911  21.132  31.228  29.299 -0.0216 -0.2638 -0.3112
 7896W        W50912   1.449   9.630  25.575 -0.2421  0.0537 -0.0185
 7897W        W50913  15.871  22.111  27.459 -0.0885  0.0075  0.4487
 7898W        W50914  19.064   0.170  23.485 -0.0551  0.0743 -0.0129
 7899W        W50915  16.315  25.191   4.051 -0.0469 -0.0140 -0.0929
 7900W        W50916  29.915  25.197  28.890  0.1004  0.0228 -0.1909
 7901W        W50917  21.933   6.400  28.358  0.0456  0.0840  0.0833
 7902W        W50918  18.794  27.208  22.566 -0.1100  0.1354 -0.0708
 7903W        W50919  24.221  32.914   7.961 -0.0135 -0.2182 -0.0870
 7904W        W50920  26.407  10.031  29.064 -0.1239 -0.0588 -0.0214
 7905W        W50921   1.594  24.982  16.472 -0.0425 -0.0667  0.1841
 7906W        W50922  30.781  11.044  28.992  0.2713 -0.0325 -0.3375
 7907W        W50923  18.709  25.257  27.149  0.2791 -0.2236  0.0777
 7908W        W50924   2.901  21.714  27.481  0.0525 -0.4250 -0.0503
 7909W        W50925  16.805  10.708  21.590  0.2233 -0.2984  0.2400
 7910W        W50926  14.296   5.252   2.715  0.2848 -0.0001  0.0938
 7911W        W50927  12.740  19.400  21.137 -0.1893 -0.2135  0.0963
 7912W        W50928   2.942   6.622   7.133 -0.0531  0.1677 -0.4445
 7913W        W50929  13.820   3.248   0.304  0.1022  0.0013  0.1788
 7914W        W50930  13.172  33.561   0.478  0.1357 -0.1930  0.1638
 7915W        W50931  13.150  31.825  23.549  0.4020  0.1588 -0.1585
 7916W        W50932  19.032  21.791  16.083 -0.2414 -0.1409  0.0430
 7917W        W50933   1.462  26.921  23.924  0.0852  0.1045 -0.0159
 7918W        W50934  12.934  23.049   5.577  0.2954  0.1391 -0.0681
 7919W        W50935  30.957  17.235  20.696  0.0475  0.4112  0.1795
 7920W        W50936  13.532  34.363   5.951  0.0076 -0.2599 -0.2528
 7921W        W50937  24.366   1.655   5.233 -0.1350 -0.0881  0.2857
 7922W        W50938  10.084  22.231  23.409  0.2072  0.2207 -0.0893
 7923W        W50939  15.196  29.666   1.024 -0.1441  0.1429 -0.1196
 7924W        W50940   5.903  12.526   3.336  0.2097  0.1491  0.0800
 7925W        W50941  18.504   2.648  16.276  0.0743 -0.0654 -0.2234
 7926W        W50942  30.005   8.872  11.392 -0.2256  0.2219 -0.2430
 7927W        W50943  22.887   1.754  18.531  0.1239  0.2425 -0.0790
 7928W        W50944   9.178  26.800   4.766 -0.3485  0.0500 -0.2190
 7929W        W50945   3.750   6.645   4.454 -0.1472 -0.3897  0.2719
 7930W        W50946  17.066   7.178  28.149 -0.0399 -0.0092  0.0070
 7931W        W50947  10.775  28.939  15.295 -0.0076 -0.2669  0.0830
 7932W        W50948  24.415  20.088  10.118 -0.0383  0.2168  0.1198
 7933W        W50949  14.338   6.024   9.701  0.0454 -0.0517 -0.0334
 7934W        W50950  14.013  17.726  26.399  0.0075  0.1623 -0.0870
 7935W        W50951  14.338   1.586   3.006  0.2548  0.2232  0.3279
 7936W        W50952  21.011  31.019   0.509 -0.0145 -0.1739  0.2382
 7937W        W50953   7.139   5.638  10.959  0.1766  0.0202  0.1184
 7938W        W50954  17.044  24.039   4.733 -0.0161 -0.1467 -0.0282
 7939W        W50955  15.008  30.888   1.410  0.0634 -0.2516 -0.0061
 7940W        W50956  27.916  16.640   6.584 -0.1620 -0.1352  0.0393
 7941W        W50957   6.836   0.285  24.114 -0.1877  0.1878  0.0593
 7942W        W50958   8.019  34.354   8.448 -0.1440 -0.0428 -0.1919
 7943W        W50959  16.984  18.251   1.442  0.1321 -0.0483 -0.1555
 7944W        W50960  18.925  29.125   6.089 -0.0327 -0.0079 -0.0981
 7945W        W50961  22.347  31.882  20.471 -0.3540 -0.1195 -0.0108
 7946W        W50962  33.740  25.664   3.568 -0.0153 -0.1268 -0.0881
 7947W        W50963  15.139  34.284  25.266  0.0256  0.1353 -0.2318
 7948W        W50964  17.270   4.908   4.786 -0.0908 -0.2592  0.0948
 7949W        W50965  34.152   0.346   5.766  0.1600 -0.0951 -0.0460
 7950W        W50966  16.746  30.082  10.594  0.0101  0.2696  0.2385
 7951W        W50967   6.076  21.265   1.429  0.2343  0.1279 -0.1312
 7952W        W50968  20.012  21.946  22.659 -0.0857  0.1762 -0.0028
 7953W        W50969  11.746   4.419   2.050  0.0502 -0.0925 -0.0374
 7954W        W50970   5.096  16.898   5.053  0.2521 -0.0434 -0.4600
 7955W        W50971   8.875  18.441   4.480 -0.1973 -0.2983  0.2891
 7956W        W50972  10.450  31.379  25.162 -0.5114  0.0716 -0.2588
 7957W        W50973  13.042  10.755   9.112 -0.2349  0.1824 -0.1058
 7958W        W50974  12.560  21.847  25.918  0.1776 -0.0009 -0.1930
 7959W        W50975  29.647  24.327   3.979 -0.1699  0.1457  0.0285
 7960W        W50976  11.227  24.595   7.466  0.0339  0.0920  0.3809
 7961W        W50977   4.295   5.024   0.200  0.0830  0.2303 -0.0789
 7962W        W50978  10.332  15.576   0.377 -0.0162 -0.5085  0.1206
 7963W        W50979  20.686  20.085   1.821  0.0910  0.0160 -0.3593
 7964W        W50980  16.712   9.934   0.786 -0.1725  0.2957  0.1267
 7965W        W50981   7.820  19.296  17.000  0.2110  0.0999  0.2424
 7966W        W50982  13.679  16.855  25.517 -0.0188 -0.1575 -0.0913
 7967W        W50983   4.714   2.962   8.966  0.2225 -0.0577 -0.0155
 7968W        W50984   2.587  26.233   7.669 -0.0710 -0.1415 -0.1266
 7969W        W50985  28.028   1.084   3.856 -0.3022 -0.0171  0.0156
 7970W        W50986   0.206  31.566  17.670 -0.2699 -0.2915  0.3060
 7971W        W50987  14.695  32.116   0.684  0.3215 -0.2169 -0.1957
 7972W        W50988   9.151  13.796  23.424  0.2391 -0.2216 -0.0856
 7973W        W50989   4.318  22.719  24.318  0.0601 -0.0143 -0.0083
 7974W        W50990  33.680   5.426  20.568  0.3832  0.1571  0.3116
 7975W        W50991  28.369  17.543   5.377  0.1081  0.1124  0.1296
 7976W        W50992  17.599  34.008  21.214  0.0140  0.0903  0.1766
 7977W        W50993  26.926  28.005  22.390 -0.0704 -0.1250 -0.0964
 7978W        W50994   6.087  23.480  27.722  0.0829 -0.0421  0.1128
 7979W        W50995  17.585  34.207  20.714 -0.1580  0.3373  0.3177
 7980W        W50996  23.263  11.087   4.195 -0.0777  0.1945 -0.1793
 7981W        W50997  13.504   5.713  28.660 -0.1153 -0.4178 -0.0112
 7982W        W50998  25.589  25.284   7.612  0.0241 -0.0127 -0.1624
 7983W        W50999   9.187  29.218   9.926 -0.0690  0.2188  0.1840
 7984W        W51000   3.842   8.563   9.750  0.2182 -0.2413 -0.1064
 7985W        W51001  12.505  22.403   8.572  0.0144 -0.0885  0.4393
 7986W        W51002  23.936   2.570   5.986 -0.2632 -0.0343  0.3917
 7987W        W51003  28.634  28.345   3.247  0.0922  0.1637 -0.0845
 7988W        W51004  23.480   7.175   2.261 -0.0587  0.1673 -0.0943
 7989W        W51005  17.769   0.680  26.920 -0.1597  0.0326 -0.2998
 7990W        W51006  31.666   6.694   8.983 -0.0780 -0.3628 -0.0228
 7991W        W51007   6.189  26.741  24.260  0.3814  0.3263  0.0990
 7992W        W51008   6.997   3.980   2.569  0.2966 -0.1895  0.2786
 7993W        W51009  19.433   9.274   7.357 -0.1791  0.0278  0.0705
 7994W        W51010  11.286   3.218  17.107 -0.1020 -0.1383  0.0259
 7995W        W51011  10.533   1.026   9.624 -0.0827 -0.0624  0.0512
 7996W        W51012  24.004  19.077  27.115  0.1808  0.0410 -0.1838
 7997W        W51013  26.145   8.421  10.506 -0.0810  0.1207  0.2795
 7998W        W51014   7.425  13.875  17.774  0.1879  0.1966 -0.1662
 7999W        W51015   8.623   5.735   0.591  0.1397 -0.0044 -0.0634
 8000W        W51016   6.050  27.305   0.639  0.1702 -0.1398 -0.1524
 8001W        W51017  11.124   1.355  21.129  0.1062  0.1903 -0.0232
 8002W        W51018  14.267   8.870  25.338 -0.0493 -0.6439  0.1231
 8003W        W51019  14.645  32.990  27.955  0.3535 -0.4535  0.0418
 8004W        W51020  24.390   1.225   1.631  0.1224 -0.0604 -0.0705
 8005W        W51021   3.530   7.778   2.814  0.3024  0.1245  0.0856
 8006W        W51022  23.761  32.943   7.865 -0.0455  0.0000 -0.1011
 8007W        W51023  17.800   0.511  29.268  0.3084 -0.0131 -0.1420
 8008W        W51024  19.132  22.612  27.142 -0.0919 -0.3423 -0.1736
 8009W        W51025  22.725  12.542  28.895  0.0390  0.0834  0.4346
 8010W        W51026  21.548  19.904  20.263 -0.1779  0.0924  0.0550
 8011W        W51027  28.007  12.310   0.970 -0.1095  0.0903  0.1380
 8012W        W51028  14.695  16.254   0.401 -0.1146  0.2858  0.0052
 8013W        W51029  13.111  25.852  22.767  0.2377 -0.0445 -0.2996
 8014W        W51030  16.245  28.338  18.518 -0.1758 -0.1004 -0.1299
 8015W        W51031  28.233   6.065   7.490 -0.2118 -0.0170 -0.0538
 8016W        W51032  20.450  18.436  13.787 -0.3590  0.0211  0.4055
 8017W        W51033  22.433  31.862   1.225  0.3057  0.0743  0.0196
 8018W        W51034  28.878   0.622  27.591  0.0904  0.0635 -0.0201
 8019W        W51035   8.407  21.582   4.386 -0.2176  0.0212 -0.0960
 8020W        W51036  18.011  24.324   7.992 -0.0564  0.2800 -0.0953
 8021W        W51037  11.205  17.657   4.224 -0.2385 -0.0226  0.0722
 8022W        W51038  13.472  26.496  24.262  0.0582  0.0344  0.1639
 8023W        W51039  30.103  28.016   6.686 -0.1621  0.1716 -0.2739
 8024W        W51040  19.530  19.195   0.612  0.0771 -0.1745  0.1362
 8025W        W51041  23.686  18.309  23.285  0.0604 -0.1197 -0.1200
 8026W        W51042  27.060  33.998  23.194  0.3622  0.0074  0.0984
 8027W        W51043  24.744   1.788  10.596  0.1884  0.0174 -0.2432
 8028W        W51044  34.668   5.213  25.895 -0.3674  0.0848  0.1003
 8029W        W51045   7.256  18.128  26.943  0.0147  0.1915 -0.2047
 8030W        W51046  15.838   3.921  27.348 -0.3272 -0.2267  0.1554
 8031W        W51047  16.848   5.076  29.179  0.1236  0.2626 -0.1540
 8032W        W51048  19.326  23.892  16.154  0.2193  0.0418 -0.1920
 8033W        W51049  13.276  24.743  24.944  0.0142  0.0484 -0.0057
 8034W        W51050  26.076   6.078   8.898 -0.0036  0.1613 -0.0732
 8035W        W51051  18.779  33.000   7.593 -0.0716  0.0127 -0.1138
 8036W        W51052  18.236  28.780  20.597  0.3167 -0.1158 -0.0527
 8037W        W51053  29.769   3.507   1.848 -0.0408  0.0790 -0.0656
 8038W        W51054  32.900   2.228   9.145 -0.0607  0.0384  0.0980
 8039W        W51055   8.486  29.791   1.543  0.0690  0.0549  0.3544
 8040W        W51056  19.337  16.492  19.770 -0.0014 -0.0092  0.1880
 8041W        W51057  12.631   0.134   2.829  0.1158  0.1008  0.0554
 8042W        W51058  19.834   2.518   1.850  0.0460 -0.0257  0.1550
 8043W        W51059   4.655  12.302  15.073  0.1120  0.3924  0.0196
 8044W        W51060  14.553   1.050  27.538 -0.2249  0.1967 -0.2520
 8045W        W51061  32.104  24.130  26.660  0.0960 -0.2765 -0.0163
 8046W        W51062  28.907  34.567  28.844 -0.4073  0.1551 -0.2708
 8047W        W51063  10.207  15.635  26.008  0.3151  0.2503 -0.4036
 8048W        W51064   2.266  27.622   5.125 -0.1919 -0.1133  0.1312
 8049W        W51065  27.495  22.796  21.595 -0.3384  0.3502 -0.1622
 8050W        W51066  16.390  14.313  26.629  0.0713 -0.3947 -0.0541
 8051W        W51067  10.041  28.366   2.205 -0.1941 -0.3629 -0.0570
 8052W        W51068  22.544  30.885   5.573 -0.3642 -0.2660  0.0091
 8053W        W51069  32.513  27.318  17.984  0.3419  0.0098 -0.2452
 8054W        W51070  14.854   5.414   1.156  0.0657 -0.1637  0.1069
 8055W        W51071  15.503   2.037   2.515 -0.4643  0.0522  0.2291
 8056W        W51072  18.440  25.577   9.387 -0.0409  0.1641 -0.0564
 8057W        W51073  19.343   8.823   2.988  0.0397 -0.2654  0.1434
 8058W        W51074  33.407  34.540   6.215 -0.1402  0.1223  0.0059
 8059W        W51075  10.155  12.536  22.524 -0.1186 -0.1576 -0.0119
 8060W        W51076  22.880  26.618   2.801  0.1864  0.2143 -0.2344
 8061W        W51077  29.348   2.850  27.602  0.0149  0.3159 -0.0498
 8062W        W51078  25.000  10.240   5.798  0.0302 -0.0437 -0.1473
 8063W        W51079  19.768  29.967   9.127  0.0961 -0.5294  0.1159
 8064W        W51080  12.366   6.722  23.999  0.1079  0.2343  0.1229
 8065W        W51081  20.851  31.228   6.311  0.0874 -0.0130 -0.0489
 8066W        W51082   2.518  34.598   5.342 -0.0868  0.3212  0.0446
 8067W        W51083  21.375   1.596  18.821 -0.2293  0.0430  0.0176
 8068W        W51084  28.950  18.982   9.362  0.1703  0.1812  0.4335
 8069W        W51085  17.868  18.387   7.072 -0.0591 -0.3066  0.0353
 8070W        W51086  17.661  23.785   2.728  0.0177  0.1462  0.2678
 8071W        W51087  27.131   7.667   1.835  0.0176  0.1224  0.2974
 8072W        W51088  11.603  28.966   4.768 -0.0800 -0.0997 -0.0427
 8073W        W51089  29.818  33.465   3.844 -0.0318 -0.0964 -0.0429
 8074W        W51090  13.162  10.547   3.118  0.2065  0.0811  0.1197
 8075W        W51091  20.878  22.701  24.115 -0.2767  0.0713 -0.0024
 8076W        W51092   1.011   3.093  28.661  0.3107 -0.0677 -0.0376
 8077W        W51093  12.124   0.710  14.041 -0.1404 -0.1014 -0.0077
 8078W        W51094  25.866  31.294   9.527  0.2177  0.0951  0.3810
 8079W        W51095  11.331  29.369  18.087 -0.2487  0.1482 -0.0770
 8080W        W51096  13.659   0.726   6.506 -0.0288 -0.1669  0.1456
 8081W        W51097  21.213  10.554   1.171 -0.1234  0.3739 -0.0105
 8082W        W51098  12.110  33.759  26.473 -0.0039 -0.0996 -0.2878
 8083W        W51099   5.004  10.840   2.002  0.0032 -0.2368 -0.2102
 8084W        W51100  18.893   4.699  24.047  0.3317 -0.0602 -0.1326
 8085W        W51101   9.129  33.306  25.571  0.4246  0.0956  0.2725
 8086W        W51102  30.541  32.586   4.639 -0.3286  0.1230  0.0478
 8087W        W51103   8.032  15.134   8.738 -0.2380 -0.1478  0.0732
 8088W        W51104   2.174   1.847   1.758  0.1536 -0.5031 -0.1948
 8089W        W51105  20.336  34.537   5.584  0.0602 -0.0740 -0.0638
 8090W        W51106   2.703   2.110  28.800 -0.4105 -0.2748  0.1036
 8091W        W51107  20.088  32.837  24.468 -0.2436  0.2260  0.2910
 8092W        W51108   8.276  29.043   0.831 -0.0488 -0.0098 -0.0801
 8093W        W51109   4.382  33.495   6.616  0.0740  0.2319  0.0033
 8094W        W51110   7.704   7.986  19.477  0.2858 -0.1171 -0.1592
 8095W        W51111  12.195   4.224   6.458  0.0147 -0.1593 -0.1922
 8096W        W51112  30.868  10.506  29.025  0.3559 -0.0659 -0.0812
 8097W        W51113  16.179   5.287   2.270  0.3544  0.0891  0.2861
 8098W        W51114  34.721  31.698   2.635 -0.1854  0.1531  0.1993
 8099W        W51115  19.200   2.368  18.584 -0.0313  0.4369  0.0037
 8100W        W51116  21.864   5.088  17.968 -0.1502  0.0796 -0.2381
 8101W        W51117  11.786  31.525  18.931  0.0245  0.0781 -0.1592
 8102W        W51118  12.126  33.764  25.726  0.0500 -0.1284 -0.0457
 8103W        W51119  18.910   0.566  18.113  0.2192  0.0371  0.0333
 8104W        W51120   9.080  11.912  21.840 -0.1212 -0.3949  0.0097
 8105W        W51121  26.320  32.955   4.726  0.1858 -0.1908 -0.1585
 8106W        W51122  28.774  33.209  12.204  0.3601  0.0523  0.0714
 8107W        W51123  16.733  32.148   3.829 -0.0680 -0.3086 -0.1069
 8108W        W51124  13.766  18.452   4.143 -0.0799 -0.1242 -0.1004
 8109W        W51125   1.936   4.484  18.399  0.2725 -0.0428 -0.1769
 8110W        W51126  23.318   3.790   5.454  0.2038  0.4059  0.3291
 8111W        W51127   8.172  33.461   2.038 -0.1015  0.3037 -0.0956
 8112W        W51128   9.018   8.254   1.980 -0.0915  0.0261 -0.0402
 8113W        W51129  12.233  31.246  21.927  0.1704  0.1965  0.0906
 8114W        W51130  11.175  30.251   0.746 -0.0715 -0.2737  0.1530
 8115W        W51131  14.027  16.665   1.894 -0.2419 -0.4638  0.1399
 8116W        W51132  15.052   2.873   3.798  0.0045  0.3648 -0.1736
 8117W        W51133  11.293   5.692  23.673  0.0499 -0.2935  0.2087
 8118W        W51134  24.513  23.364  28.560 -0.0882  0.2123 -0.1123
 8119W        W51135  15.488  15.125  22.012  0.2429  0.0197  0.0791
 8120W        W51136  34.321  19.501  23.368  0.0129  0.1845 -0.2966
 8121W        W51137  23.425  30.978   7.557  0.1737  0.0780  0.1305
 8122W        W51138  11.312   4.853  28.823 -0.2302  0.4642 -0.0949
 8123W        W51139   9.316   5.923   4.213 -0.3525  0.1599 -0.0181
 8124W        W51140   9.000  17.413  27.524  0.0237 -0.0470  0.4026
 8125W        W51141  12.879   5.033   6.003 -0.1588 -0.0792 -0.2267
 8126W        W51142  20.577  10.812   7.809 -0.0279  0.0748 -0.1772
 8127W        W51143  19.728  32.448   9.548 -0.1184  0.0725 -0.0295
 8128W        W51144  23.226  23.769   3.441 -0.3101 -0.0374 -0.4594
 8129W        W51145  19.683   2.739   9.253  0.0086  0.0223  0.0972
 8130W        W51146  11.284   5.263   2.963  0.3308  0.2809 -0.0924
 8131W        W51147   5.357   2.239   9.456  0.2910  0.0485 -0.1620
 8132W        W51148  13.127  23.150   4.085 -0.1855 -0.1709 -0.1723
 8133W        W51149  17.399  29.250   9.625 -0.0999  0.3584 -0.0488
 8134W        W51150   2.364  22.795   7.562  0.1499 -0.0374 -0.0927
 8135W        W51151   7.701  24.104  27.053 -0.1355 -0.3049 -0.3173
 8136W        W51152  18.075  31.784   3.845 -0.2621  0.1018  0.2230
 8137W        W51153  10.334  24.837  20.145 -0.0031  0.3119 -0.3102
 8138W        W51154  12.308  31.487   7.889  0.1840  0.2590 -0.0064
 8139W        W51155  10.086   4.423  10.209  0.1434 -0.3024 -0.1333
 8140W        W51156  15.075   5.241   0.049 -0.0017 -0.5223  0.0958
 8141W        W51157  14.450   5.526  25.236 -0.1537 -0.1543 -0.0386
 8142W        W51158  14.971  19.509   1.597  0.1021 -0.0609  0.1525
 8143W        W51159   3.194   5.127   1.826  0.1729 -0.1255 -0.1309
 8144W        W51160   9.270   5.440   3.437 -0.0526  0.2478  0.1342
 8145W        W51161   6.789  33.524   8.497 -0.0833 -0.0294  0.1955
 8146W        W51162  13.058   4.023   4.673  0.1783 -0.1340 -0.0398
 8147W        W51163  31.171  32.316  11.390  0.2365  0.2388 -0.1898
 8148W        W51164  15.270  34.499  10.183 -0.3473  0.1975 -0.3238
 8149W        W51165   0.932  13.406   6.082 -0.1049 -0.0977  0.1433
 8150W        W51166  13.922  27.291  24.590  0.2228  0.1699  0.0969
 8151W        W51167  20.926  21.578   6.231 -0.0869 -0.0498  0.1148
 8152W        W51168  13.043   2.216   7.485  0.4691  0.2829 -0.0857
 8153W        W51169   2.577  22.949   0.486  0.2975 -0.0830 -0.0243
 8154W        W51170  29.257  31.314   7.339  0.0035 -0.0266  0.2250
 8155W        W51171  11.449   6.888   0.413 -0.2187  0.0816 -0.0529
 8156W        W51172  26.690  33.705   2.190 -0.1912 -0.5469 -0.1922
 8157W        W51173  20.072  19.481  26.085  0.2635  0.1162 -0.2939
 8158W        W51174   3.742   5.306   5.888  0.3506  0.1418  0.0270
 8159W        W51175  24.686  29.064   1.732  0.1213 -0.3303 -0.1275
 8160W        W51176   6.566   4.672   3.047 -0.1213  0.0456  0.1281
 8161W        W51177  27.493  29.734   7.487 -0.1475  0.0366 -0.2161
 8162W        W51178  26.405  14.970   0.631 -0.2403 -0.3316 -0.0847
 8163W        W51179  13.586   1.905  15.189  0.0793 -0.4206  0.0371
 8164W        W51180  34.669  32.570  17.778  0.3038  0.1924 -0.1013
 8165W        W51181   5.382  29.266   8.187 -0.4417 -0.0456 -0.1152
 8166W        W51182  10.574   3.145   4.652  0.0193 -0.0726  0.1931
 8167W        W51183  23.667   4.367   6.417 -0.2341 -0.2166  0.2257
 8168W        W51184  12.022  13.396   6.890  0.0711 -0.1224  0.3772
 8169W        W51185   7.462   1.955  29.018  0.4818  0.0664 -0.1057
 8170W        W51186   6.512  10.371  10.401  0.0168  0.1103 -0.0292
 8171W        W51187  10.301   4.059   7.805 -0.0309  0.1787  0.1242
 8172W        W51188  25.730  12.757   9.463 -0.1500 -0.1758 -0.0878
 8173W        W51189  25.779  21.006   7.593  0.0473 -0.0139  0.0134
 8174W        W51190   2.558  30.451   3.348  0.2082  0.1181 -0.0299
 8175W        W51191   4.092  16.167   5.280 -0.0473  0.1531 -0.2025
 8176W        W51192  34.393  29.792  25.418  0.0809  0.1089 -0.0721
 8177W        W51193   6.884   5.188  17.503 -0.2041 -0.0810 -0.1547
 8178W        W51194   9.136  13.953   2.568  0.4393  0.1818 -0.1617
 8179W        W51195  28.082   6.509   9.405 -0.1297 -0.1380 -0.3531
 8180W        W51196  15.588   5.114   5.700 -0.0839 -0.1143  0.0428
 8181W        W51197  19.955  24.764   5.982 -0.0054  0.2602  0.2132
 8182W        W51198  31.536  24.055  27.469  0.0937  0.0864 -0.0825
 8183W        W51199  28.267   6.485   8.965 -0.0076 -0.0768 -0.2563
 8184W        W51200  13.326   1.603   0.703  0.1373 -0.1473  0.1457
 8185W        W51201  16.656  33.573   2.167 -0.0461  0.4213 -0.1567
 8186W        W51202  22.382   4.679  23.204 -0.1432  0.2142  0.0504
 8187W        W51203  26.503   1.758   9.047 -0.3345 -0.0844  0.1106
 8188W        W51204  23.916   2.067   5.992  0.1239  0.0359 -0.7009
 8189W        W51205   9.834   0.265  27.648  0.0459 -0.1643  0.0239
 8190W        W51206  13.848  23.001  27.374 -0.2520 -0.1965  0.4149
 8191W        W51207  21.729  31.787  27.081  0.0549 -0.1112 -0.0772
 8192W        W51208  11.026  16.682  17.614 -0.1260  0.0474  0.0134
 8193W        W51209   2.245  22.467   7.955 -0.0098  0.3368 -0.0068
 8194W        W51210  20.363  23.674  25.723 -0.1011  0.0833  0.0462
 8195W        W51211  27.104  25.682  27.706  0.2274 -0.0505  0.1917
 8196W        W51212  12.340  34.409   6.803  0.0348  0.0716 -0.0297
 8197W        W51213   2.678  13.393   2.731 -0.3007  0.1244 -0.2240
 8198W        W51214  19.379  27.124   8.826  0.4986 -0.0169  0.1392
 8199W        W51215  25.326   7.879   5.641 -0.0494 -0.2676  0.1119
 8200W        W51216  20.476  28.563   5.911 -0.3334  0.0584  0.0893
 8201W        W51217  18.700  31.233  29.251 -0.0172  0.2372  0.0286
 8202W        W51218  14.691  18.345   5.565 -0.2189  0.0392 -0.0027
 8203W        W51219  23.495  18.279  24.268  0.5225 -0.1609 -0.0625
 8204W        W51220  15.495   3.761   2.416 -0.4048  0.0567  0.2024
 8205W        W51221  13.416   9.414   4.057  0.2675 -0.0598  0.0729
 8206W        W51222   9.032   4.519   7.745 -0.4175 -0.0315  0.1498
 8207W        W51223  25.576   7.883  11.341 -0.0786  0.0832  0.0816
 8208W        W51224   9.709   9.018  25.968 -0.1071 -0.1537  0.1762
 8209W        W51225  17.950  23.436   0.148  0.1184  0.3228 -0.1726
 8210W        W51226  14.171   4.968   5.345 -0.0632  0.0577 -0.0173
 8211W        W51227  20.979   2.702   8.279  0.4553 -0.0212  0.3407
 8212W        W51228  25.116  32.655  10.380 -0.0883 -0.1794  0.1098
 8213W        W51229   3.116  26.996   6.204 -0.0215  0.1339 -0.2571
 8214W        W51230  21.837   1.440   8.880  0.2486  0.0938 -0.0901
 8215W        W51231  11.413  28.226   1.848  0.3222  0.1130 -0.1239
 8216W        W51232   1.795  33.899   1.187 -0.1295 -0.1607 -0.1450
 8217W        W51233  11.431   6.995   7.265  0.1409  0.0109 -0.0923
 8218W        W51234  14.372  11.430   1.578  0.0081  0.1063  0.2849
 8219W        W51235  18.960   4.395   4.022 -0.0757  0.0019 -0.5294
 8220W        W51236   7.922  28.560   0.831  0.1261 -0.1260  0.0568
 8221W        W51237  13.668  30.086   3.046 -0.0502  0.2635 -0.3390
 8222W        W51238  11.172   0.323   9.945  0.0751 -0.1319  0.1653
 8223W        W51239  19.416   5.727   1.828 -0.0560  0.2012  0.0741
 8224W        W51240  22.582   4.718   4.763  0.3192  0.0708 -0.0252
 8225W        W51241  25.933  27.346  27.454  0.1724 -0.3005  0.1033
 8226W        W51242  10.635   0.121   7.198  0.1336 -0.0199  0.3097
 8227W        W51243  22.940  23.577  20.335 -0.3831 -0.2083 -0.2039
 8228W        W51244  19.976  26.739   0.709  0.2387  0.0192 -0.0737
 8229W        W51245  30.564  31.086   6.703  0.0866  0.0402 -0.3021
 8230W        W51246  24.207  10.576   4.906  0.2548 -0.2207 -0.1359
 8231W        W51247  31.221  31.160  19.774 -0.0394 -0.2170 -0.0436
 8232W        W51248  34.521   3.267   3.345 -0.2579  0.0529  0.2844
 8233W        W51249  11.996  11.575   6.765 -0.0874  0.1088  0.0352
 8234W        W51250  14.040   9.352   2.442  0.0339 -0.3369  0.2784
 8235W        W51251  25.574  18.098  22.788 -0.0767  0.0736 -0.0680
 8236W        W51252  14.500  26.583   7.833  0.0378  0.1430 -0.0079
 8237W        W51253  34.758  27.434   0.946 -0.2558  0.2106  0.1229
 8238W        W51254   5.764   3.942   3.571  0.0394  0.1770  0.3401
 8239W        W51255   0.353  20.073   5.047  0.4125  0.2965  0.0454
 8240W        W51256  14.271  27.213   8.745  0.4385 -0.0753 -0.2596
 8241W        W51257  18.446  12.389   7.763 -0.0156 -0.0922 -0.0330
 8242W        W51258  19.213  31.541   7.033  0.0086  0.0091  0.0241
 8243W        W51259  31.710  27.790  18.778  0.2322 -0.2358  0.1997
 8244W        W51260  18.885  11.939   5.539 -0.1338  0.1339 -0.0822
 8245W        W51261  16.074  21.353  28.980  0.3600  0.2533 -0.1319
 8246W        W51262  26.218   6.388  21.205  0.2576 -0.0272  0.3956
 8247W        W51263  15.534   2.733   8.162  0.1132 -0.2116  0.3063
 8248W        W51264  20.922  32.870   9.091  0.2448  0.1852 -0.2670
 8249W        W51265   4.553   2.669   7.594  0.3163  0.2697 -0.0310
 8250W        W51266   6.910  27.637   9.215 -0.2625 -0.0837 -0.3052
 8251W        W51267  14.532   8.656  23.733  0.1152  0.0214 -0.2947
 8252W        W51268  12.424  23.966   4.114 -0.2128 -0.2773 -0.0035
 8253W        W51269  20.017  30.846  26.432  0.0739  0.3501 -0.1536
 8254W        W51270  20.957   3.619   2.945 -0.2349 -0.0554  0.2330
 8255W        W51271  13.478  17.031  25.937 -0.1013 -0.0814 -0.0533
 8256W        W51272  24.841  10.745   2.188 -0.2905 -0.1856 -0.0504
 8257W        W51273  16.154  31.162   6.962 -0.0108  0.0772 -0.0599
 8258W        W51274  30.073  28.042   3.138 -0.1487 -0.1322  0.1075
 8259W        W51275  11.966   0.935  29.133  0.1369 -0.2205  0.1001
 8260W        W51276  17.383  15.568  28.013  0.1346  0.2521 -0.0216
 8261W        W51277   4.725  34.270  10.177 -0.1758  0.1126 -0.1012
 8262W        W51278  11.694  27.409   0.725 -0.1168  0.1463 -0.1750
 8263W        W51279  19.192  11.462  27.753  0.2631 -0.1991  0.1270
 8264W        W51280   7.036  20.044   7.871 -0.0192  0.0076  0.0526
 8265W        W51281  12.490   4.888  15.397 -0.2921  0.2331  0.1171
 8266W        W51282  15.721  26.897   1.995 -0.1827 -0.0384 -0.1716
 8267W        W51283   3.402  29.189  17.542 -0.0393  0.3071  0.4446
 8268W        W51284   5.037  24.973  29.257 -0.0005  0.2874  0.1294
 8269W        W51285  17.625  29.626  16.469  0.0327 -0.0519 -0.0644
 8270W        W51286   6.439   0.542   0.463 -0.3005  0.0049  0.2129
 8271W        W51287  23.335  27.058   0.286  0.0532 -0.0186 -0.2357
 8272W        W51288  23.614   4.214   7.615  0.4382 -0.2024  0.0350
 8273W        W51289  17.532  13.624  24.326 -0.2955  0.1659  0.2669
 8274W        W51290  10.305  26.108  16.673  0.0687  0.5209  0.0768
 8275W        W51291  29.046  23.120  10.492  0.0636 -0.2843  0.1663
 8276W        W51292   0.222   2.884   9.000  0.1199  0.0537 -0.3011
 8277W        W51293  11.456   1.330   8.630 -0.2632 -0.1526  0.0495
 8278W        W51294  28.691  29.016   8.593 -0.0703  0.0442 -0.2074
 8279W        W51295  33.417  34.654  24.748 -0.4699 -0.2066  0.0641
 8280W        W51296  18.839  23.093   8.920 -0.1092 -0.1471  0.0356
 8281W        W51297  31.173   6.307   8.682 -0.1426  0.0772 -0.3008
 8282W        W51298  18.294  25.040   4.579 -0.1057  0.1453 -0.0003
 8283W        W51299  33.159  22.855  10.116  0.2091 -0.0360 -0.2027
 8284W        W51300  12.158   2.333   9.895 -0.0405 -0.1751 -0.1017
 8285W        W51301   4.150   8.569   6.198 -0.0768  0.1062  0.0797
 8286W        W51302   3.723  31.604   6.128 -0.2164 -0.3038 -0.1659
 8287W        W51303  11.599   1.358   1.499  0.2075  0.0969 -0.3448
 8288W        W51304   1.559  11.709   8.464  0.3893 -0.0546  0.0753
 8289W        W51305  20.833   4.918   0.725  0.0163  0.0414  0.2330
 8290W        W51306  23.504   6.705  25.873 -0.1594 -0.0468 -0.0667
 8291W        W51307   2.033  33.175  17.308  0.0779 -0.2136 -0.0080
 8292W        W51308  13.713  13.642   1.564 -0.3517  0.1738  0.1619
 8293W        W51309   5.421  25.285  29.205  0.2005 -0.0580  0.1090
 8294W        W51310  30.290  27.874   1.942 -0.3505  0.1191 -0.0810
 8295W        W51311  20.939   6.440   9.864  0.2803 -0.2313 -0.0783
 8296W        W51312  12.212  28.154   8.572 -0.1324 -0.0315  0.1311
 8297W        W51313  13.851   4.048   4.522 -0.1182 -0.1969 -0.2343
 8298W        W51314  10.008   0.144  25.800  0.0013 -0.1306  0.0750
 8299W        W51315  28.238  27.039   3.816 -0.0452  0.0718 -0.0515
 8300W        W51316  34.007   6.725  28.325 -0.1738 -0.0141  0.3242
 8301W        W51317  16.292  13.793   0.096 -0.0145  0.0570 -0.1852
 8302W        W51318  14.020  22.886  15.255  0.2527  0.2346 -0.1033
 8303W        W51319   2.660   2.345   1.827 -0.0209  0.0495 -0.3344
 8304W        W51320  14.464  34.666   8.159 -0.0389  0.0541 -0.0428
 8305W        W51321  34.181  13.744   1.418 -0.0256  0.0316 -0.1166
 8306W        W51322  11.648  29.532   8.122  0.1642 -0.3032  0.1944
 8307W        W51323   4.768  34.742   9.015  0.2764 -0.2897 -0.0399
 8308W        W51324   6.531  22.616   8.274  0.1291 -0.1073  0.1658
 8309W        W51325   9.390  30.422   4.330  0.5246 -0.0614 -0.0342
 8310W        W51326   1.601  13.110   8.620 -0.1485  0.2217  0.1335
 8311W        W51327  25.003   0.398  27.546  0.0916  0.0260  0.1217
 8312W        W51328  19.623  29.064  22.751 -0.0467  0.0503  0.0230
 8313W        W51329  17.021   1.997   8.301  0.1717  0.0399 -0.2780
 8314W        W51330   8.946   2.034  21.286  0.0584 -0.0231 -0.0024
 8315W        W51331  25.395  24.835   4.140  0.0309 -0.0160 -0.0184
 8316W        W51332  26.268  23.308   8.419  0.0276 -0.1130 -0.1122
 8317W        W51333   3.148   2.595  24.498  0.0850 -0.1348  0.2618
 8318W        W51334  24.186  24.191   4.184 -0.3137  0.1399  0.1442
 8319W        W51335  10.759   7.161   9.619  0.0493 -0.3910  0.0950
 8320W        W51336  19.301  12.635   3.951 -0.0321 -0.0329  0.2647
 8321W        W51337  15.113  34.351   8.374 -0.0744 -0.0900  0.4576
 8322W        W51338  28.120  32.774   8.535  0.1355  0.1802 -0.2622
 8323W        W51339  27.950  31.599   5.824 -0.1294  0.2622 -0.3931
 8324W        W51340  32.983   8.661  23.578 -0.0515 -0.0981 -0.0450
 8325W        W51341   7.705  25.012   3.897 -0.2645  0.0839 -0.1798
 8326W        W51342  22.206  23.752   4.609  0.0335  0.1318  0.2239
 8327W        W51343  15.845  28.421  28.256  0.0001 -0.1394 -0.4274
 8328W        W51344   7.739   0.102   8.642 -0.0590  0.0470 -0.1627
 8329W        W51345  18.062  20.998  24.956 -0.0267  0.1870  0.2162
 8330W        W51346  14.993  18.118   2.301  0.2926  0.2132  0.2826
 8331W        W51347   8.535   3.517   5.446  0.1923  0.0944 -0.1749
 8332W        W51348  20.108  29.052   9.786  0.3125 -0.1855 -0.0364
 8333W        W51349  11.587   0.537   9.292 -0.0609  0.0314  0.0263
 8334W        W51350  14.371  33.595   3.122 -0.0470  0.3184 -0.1344
 8335W        W51351  16.769   2.841   5.310 -0.3632  0.0442 -0.1703
 8336W        W51352  29.624  33.111   3.509  0.1753  0.0646  0.3135
 8337W        W51353  22.314   9.480   4.994  0.2615  0.0017  0.3045
 8338W        W51354  27.227  11.117  10.865 -0.1532  0.0387  0.0583
 8339W        W51355  22.150  31.764  29.049 -0.2151 -0.1314  0.1165
 8340W        W51356  25.160   5.195   7.140  0.2922 -0.0733 -0.2235
 8341W        W51357  16.447  14.778   7.527  0.0108 -0.1307 -0.0798
 8342W        W51358  19.362  29.641  26.080 -0.0727  0.1127 -0.2797
 8343W        W51359  14.325  32.982  28.970 -0.1380  0.2095 -0.3246
 8344W        W51360  19.589  25.915   2.516 -0.1191 -0.1028 -0.1908
 8345W        W51361  18.139   3.170   5.649 -0.1997 -0.1826 -0.2032
 8346W        W51362   8.388  32.445   0.495 -0.0096 -0.0174 -0.1832
 8347W        W51363  11.525   8.518  17.626  0.0352 -0.1421  0.1900
 8348W        W51364   2.129  33.079   6.279 -0.1432 -0.0485 -0.1839
 8349W        W51365  10.671  25.571   0.528 -0.4339 -0.0269  0.1726
 8350W        W51366  17.096   2.761  10.093 -0.2426  0.0920 -0.0789
 8351W        W51367  22.850  12.465   5.480  0.0305 -0.1466 -0.0674
 8352W        W51368  11.402   1.750   4.772 -0.2577 -0.0750 -0.0125
 8353W        W51369   5.029  19.163   6.837  0.0792 -0.2363  0.3446
 8354W        W51370  10.427  31.146   3.465  0.2433  0.0539 -0.1519
 8355W        W51371  20.103  32.872   7.322  0.1273 -0.4099  0.0250
 8356W        W51372  25.214  33.630   2.746  0.0744 -0.0209  0.2478
 8357W        W51373  17.318   9.603   1.899  0.0991 -0.0485  0.0269
 8358W        W51374  10.711  33.003   6.005 -0.3373  0.0603  0.2931
 8359W        W51375  18.944   6.010  23.874 -0.1176  0.2205 -0.4095
 8360W        W51376  20.054  11.616   3.285 -0.3632  0.3660  0.0844
 8361W        W51377  24.453   4.537   7.531 -0.0670  0.2517  0.0631
 8362W        W51378  20.036   6.270  27.966  0.0093  0.0732 -0.0032
 8363W        W51379  13.571  26.721  25.807 -0.1736 -0.1216  0.2229
 8364W        W51380  21.371   9.362   3.754 -0.0860 -0.0514  0.1026
 8365W        W51381  32.375  23.905  16.674  0.3820 -0.1375 -0.1675
 8366W        W51382   6.185  29.221   9.146  0.2123  0.0513 -0.0834
 8367W        W51383   6.027  34.529  22.296 -0.2002 -0.2315  0.0978
 8368W        W51384   8.563   6.242   5.636  0.0364 -0.0624  0.1029
 8369W        W51385  32.062  21.343   6.567 -0.0453  0.0514  0.1117
 8370W        W51386   9.721  30.204   7.568 -0.1194 -0.2622  0.1305
 8371W        W51387  17.898  16.939   3.563  0.3572  0.0525  0.0245
 8372W        W51388  29.350   0.427   7.094  0.0584 -0.2243 -0.0202
 8373W        W51389  19.833  34.756   1.980  0.1376 -0.1530 -0.4172
 8374W        W51390  23.266  29.485   9.131 -0.0290 -0.1939 -0.0976
 8375W        W51391  13.623  31.975  25.308  0.0591 -0.1447  0.3119
 8376W        W51392  21.418  21.123   8.309  0.1140  0.0210 -0.0963
 8377W        W51393  24.551  29.429   9.153 -0.0854  0.0066  0.1086
 8378W        W51394   1.156   2.264  27.077  0.1807  0.3282 -0.1840
 8379W        W51395  20.432  14.739   2.391 -0.3131  0.0926 -0.2616
 8380W        W51396  27.455  27.486   0.851 -0.3717 -0.1938 -0.0952
 8381W        W51397   5.764  19.205   7.968  0.0493 -0.1605  0.0194
 8382W        W51398  32.057  24.778   9.631 -0.1021  0.1212  0.3060
 8383W        W51399  18.046   8.013   3.766  0.4345 -0.1277 -0.1293
 8384W        W51400   3.381  26.137   8.746  0.1130  0.0751  0.0878
 8385W        W51401  10.365  27.606   0.937 -0.1320  0.2356  0.1823
 8386W        W51402  15.462   7.702   0.189  0.1010 -0.0285 -0.1848
 8387W        W51403  14.147  30.338   9.478 -0.0152 -0.0034 -0.0174
 8388W        W51404  18.851   6.647   5.024 -0.0536  0.2095  0.0050
 8389W        W51405  34.103  12.035  10.695 -0.1941  0.1325 -0.0173
 8390W        W51406   4.089  18.083   9.266 -0.1254 -0.2131 -0.3265
 8391W        W51407  17.332   5.470   0.895 -0.1813 -0.3140  0.1401
 8392W        W51408  23.707   9.833  29.025  0.0317  0.0318 -0.0576
 8393W        W51409  18.063  18.857   5.401  0.0766 -0.0773  0.1414
 8394W        W51410  14.253  29.879   4.469 -0.0847 -0.0473 -0.1725
 8395W        W51411  14.612  32.411   5.711  0.2530  0.0940 -0.2125
 8396W        W51412  17.128  33.394   2.301  0.4259 -0.0761 -0.3408
 8397W        W51413  10.338  21.564   6.129  0.1091  0.1186 -0.2190
 8398W        W51414   1.196  29.934   0.499 -0.3110 -0.0995 -0.1993
 8399W        W51415  22.982  21.629   2.831  0.1715 -0.3271  0.3606
 8400W        W51416  16.554  13.169   2.688 -0.2373 -0.0343 -0.0573
 8401W        W51417  12.739  27.352   8.807 -0.0526 -0.0748  0.0418
 8402W        W51418  12.460   2.190  25.749 -0.0420 -0.3447  0.0953
 8403W        W51419  19.053  33.447   5.075  0.0611  0.1684 -0.2321
 8404W        W51420  19.979   3.408  25.252 -0.0076 -0.1862 -0.2608
 8405W        W51421  20.585  30.519  15.038  0.0838 -0.1742  0.2615
 8406W        W51422  11.451  14.580   5.624 -0.0577  0.4557  0.0076
 8407W        W51423  31.603  29.531   8.764 -0.0868  0.1554 -0.0366
 8408W        W51424  28.353   5.547   2.736  0.0184 -0.1719  0.0560
 8409W        W51425  13.501   5.753  29.256 -0.2087  0.3514  0.0037
 8410W        W51426  12.816  25.192  23.298 -0.1698 -0.1788 -0.2788
 8411W        W51427  14.643  33.633  25.948 -0.3200 -0.0043 -0.1325
 8412W        W51428  10.616  34.550   5.291 -0.2030 -0.1264 -0.3897
 8413W        W51429  10.739   8.695   1.868 -0.4809  0.0881  0.0074
 8414W        W51430  31.679   3.451  28.202 -0.2597  0.1926  0.3226
 8415W        W51431  26.893   2.442   0.812 -0.1236  0.1649  0.1728
 8416W        W51432  18.299  26.121   7.464 -0.0677 -0.0997 -0.1105
 8417W        W51433   8.798  22.806  25.676 -0.1951 -0.1275 -0.1860
 8418W        W51434  15.130  15.540  28.296 -0.2792 -0.1760  0.0644
 8419W        W51435  16.292  21.377  24.449  0.1990  0.3277 -0.2589
 8420W        W51436  11.877   6.379  25.396 -0.0994  0.0852 -0.0215
 8421W        W51437  14.382  16.626   0.235  0.1334  0.3601 -0.0936
 8422W        W51438  20.259   1.597  26.872 -0.0851 -0.1596 -0.2021
 8423W        W51439  11.256   2.592   8.049 -0.1999  0.1308 -0.0464
 8424W        W51440  23.947  26.077   8.338 -0.0390 -0.0949 -0.1867
 8425W        W51441  14.089  28.888   4.814  0.0099  0.3228 -0.1417
 8426W        W51442  15.906  10.132   5.123  0.0527 -0.3044 -0.1081
 8427W        W51443  32.193   5.364   7.168  0.2622 -0.0425  0.1897
 8428W        W51444  21.252  27.656   6.583  0.0791  0.0481 -0.0388
 8429W        W51445  12.595  31.332   5.105 -0.1582 -0.1835  0.1162
 8430W        W51446  20.826   0.301  10.865 -0.0449  0.3369  0.1201
 8431W        W51447  33.874  15.492  27.163 -0.0029 -0.0507  0.1715
 8432W        W51448  21.031   0.432   7.642  0.0216 -0.1707  0.3037
 8433W        W51449  21.643  32.466  10.790  0.2605 -0.3214 -0.2025
 8434W        W51450   5.057  26.592  25.107  0.1408 -0.4469  0.2962
 8435W        W51451  23.328   3.638   8.831  0.1841  0.2519  0.1355
 8436W        W51452   8.678   3.671   4.530 -0.0365  0.1121  0.0898
 8437W        W51453  23.283   1.071   8.713  0.0337 -0.1877  0.1754
 8438W        W51454   6.022   5.998   0.086 -0.0158 -0.2121 -0.1674
 8439W        W51455  31.976  11.472  26.295 -0.0983 -0.2023 -0.1835
 8440W        W51456  26.691  17.824   2.090 -0.0559 -0.1221 -0.1037
 8441W        W51457   8.994  27.158  27.216 -0.2564 -0.0067  0.0078
 8442W        W51458   0.259   7.260   4.831  0.4481 -0.1618 -0.1617
 8443W        W51459  26.393   0.582  10.972  0.3907 -0.3811  0.0936
 8444W        W51460  15.338   0.194   9.139  0.2467 -0.1319 -0.0944
 8445W        W51461  14.723   0.078   8.503 -0.1228 -0.0820 -0.0670
 8446W        W51462  23.240  33.256  27.067 -0.1466  0.1161  0.2033
 8447W        W51463   1.241   9.586   6.083 -0.3073  0.1437 -0.2895
 8448W        W51464  23.111  16.004  25.138 -0.0487  0.1045 -0.2939
 8449W        W51465  14.176  19.995   3.973 -0.2284  0.0149  0.2234
 8450W        W51466  23.503   2.519  10.271 -0.1247  0.0983 -0.0108
 8451W        W51467  23.135   9.008   4.876  0.0669 -0.2038  0.0310
 8452W        W51468  25.850  28.697  18.251  0.0209  0.1744 -0.2382
 8453W        W51469  16.247  15.226  23.402 -0.1649  0.0608  0.0352
 8454W        W51470  23.878   5.176  24.266  0.0150 -0.2354  0.3943
 8455W        W51471  20.178  31.726  10.422  0.0820 -0.3719  0.0252
 8456W        W51472  22.342  32.465   6.370  0.1731 -0.1601  0.2255
 8457W        W51473  12.878  22.557   3.640  0.2390  0.1030  0.0471
 8458W        W51474  20.344  30.786   9.342  0.1591  0.0688 -0.0052
 8459W        W51475  13.151  15.704   3.082 -0.3040  0.1537 -0.1922
 8460W        W51476  22.752   7.609   3.621 -0.1862 -0.0039 -0.0967
 8461W        W51477  19.388   7.070  23.646  0.2570 -0.0992  0.2458
 8462W        W51478   3.557  25.035   5.398  0.0614 -0.3645  0.1807
 8463W        W51479  16.117  33.412  22.320 -0.2383 -0.0985 -0.0471
 8464W        W51480   9.176  10.254   1.896 -0.1590  0.0158 -0.2673
 8465W        W51481  17.155   6.231  27.177 -0.1659 -0.3155 -0.1029
 8466W        W51482  15.457   4.238   2.227 -0.1130 -0.0094 -0.0389
 8467W        W51483   5.635  33.960  27.046 -0.0608  0.1984 -0.0842
 8468W        W51484  23.678   5.964  10.746 -0.0440  0.2863  0.1960
 8469W        W51485  11.844  24.804   1.741 -0.0145  0.1821  0.4516
 8470W        W51486   8.245   0.602  28.524 -0.2505 -0.3445 -0.0569
 8471W        W51487  15.479   2.357   1.497  0.0596 -0.0817 -0.1145
 8472W        W51488  19.842  19.357  21.055 -0.4925 -0.0179  0.2614
 8473W        W51489  24.501  19.955   6.492 -0.4151  0.0096  0.0637
 8474W        W51490  24.430  27.554   6.641  0.0683 -0.3004 -0.1660
 8475W        W51491  29.257  30.098   7.433 -0.1034  0.1018  0.0258
 8476W        W51492   6.626  13.120  20.722 -0.0617  0.0485  0.0387
 8477W        W51493  16.331  24.465  18.624  0.2252  0.1285 -0.0938
 8478W        W51494  18.704   7.419   0.237 -0.1694 -0.2717 -0.1592
 8479W        W51495  10.667   6.446   6.152 -0.3139 -0.1972  0.0505
 8480W        W51496  13.291   4.403  19.328  0.1679  0.0247  0.3426
 8481W        W51497  27.289  25.025  18.038 -0.0196  0.3373 -0.3574
 8482W        W51498  18.469  33.424   9.921 -0.4239 -0.1653  0.2654
 8483W        W51499   3.192  17.977  28.335 -0.2527  0.2503  0.3006
 8484W        W51500  23.022  25.141  28.016  0.4160 -0.0474  0.1571
 8485W        W51501  22.052   1.673  18.598  0.2135 -0.4216  0.1493
 8486W        W51502  19.547   8.299  28.352 -0.1102 -0.1025  0.0320
 8487W        W51503  15.906  29.787  26.387 -0.3390  0.0778  0.1486
 8488W        W51504  19.505  10.632   5.935 -0.2157 -0.3074 -0.2089
 8489W        W51505  11.131  28.795   5.628  0.1179  0.0603  0.1594
 8490W        W51506  25.284  13.076   5.153 -0.0198  0.3276  0.0430
 8491W        W51507   8.600  34.261   0.955  0.0983 -0.0021 -0.1224
 8492W        W51508  28.689  15.646   3.930 -0.1124  0.0915 -0.0702
 8493W        W51509  18.662  33.677  28.647 -0.0760 -0.0583 -0.0631
 8494W        W51510  13.630  18.011  27.849  0.0951  0.0173  0.2600
 8495W        W51511  19.835   8.472   1.789  0.1393  0.3592 -0.1606
 8496W        W51512  14.176  27.332  24.133 -0.1230 -0.0611  0.1545
 8497W        W51513  25.274   6.600   5.065  0.1239  0.2071 -0.0461
 8498W        W51514  21.152  12.639   3.185 -0.1830 -0.2542 -0.1629
 8499W        W51515  17.235   0.449   3.984  0.0243  0.3027  0.0801
 8500W        W51516  28.487  12.301   6.454  0.3281  0.1899  0.0037
 8501W        W51517  28.934  16.770   4.255 -0.0562 -0.1195  0.1920
 8502W        W51518   9.116   8.670  24.269  0.0803 -0.1295  0.2700
 8503W        W51519  24.520   4.632   9.218 -0.0647  0.2949  0.4642
 8504W        W51520  17.929   2.386  21.060  0.0484  0.2061  0.1602
 8505W        W51521  17.909  27.089  21.333 -0.1221 -0.2423  0.2383
 8506W        W51522  12.563   5.333  25.616  0.1998  0.0601  0.0424
 8507W        W51523  16.641  19.795  25.402  0.1627 -0.2542  0.3395
 8508W        W51524  18.409   7.046   7.292 -0.0061 -0.1064 -0.1142
 8509W        W51525  33.526   4.666   6.258 -0.3239  0.0999  0.3155
 8510W        W51526  12.959   4.530   2.905  0.1715 -0.2140 -0.0111
 8511W        W51527  24.193  18.469   2.538  0.0943  0.3142  0.4519
 8512W        W51528  18.706   3.245   0.029 -0.0666  0.0569 -0.1165
 8513W        W51529   9.093  15.798   7.012  0.0995 -0.1478  0.0133
 8514W        W51530  24.853  13.518   5.896  0.2092 -0.3679  0.2740
 8515W        W51531  23.378  31.981   4.986  0.0535  0.3472  0.0072
 8516W        W51532  17.007   7.337   7.436 -0.1214  0.2079  0.0242
 8517W        W51533  17.269  30.045   6.660 -0.1526  0.1077  0.1125
 8518W        W51534  23.323  29.431   2.472 -0.1586 -0.3865 -0.0680
 8519W        W51535  21.370  11.245   2.443 -0.1446  0.0885  0.1003
 8520W        W51536  10.196   4.863  24.381  0.1642 -0.1235  0.2997
 8521W        W51537   1.347   5.894  14.942  0.1834 -0.0533  0.0799
 8522W        W51538  18.526  32.129  25.270  0.1659 -0.0160 -0.0847
 8523W        W51539   6.614  13.213  24.580  0.2681 -0.1584 -0.0807
 8524W        W51540   4.034   1.372  27.045 -0.1483 -0.0712  0.0784
 8525W        W51541  10.409  22.150   4.977  0.1814 -0.0655  0.0404
 8526W        W51542  18.790  18.814   2.407 -0.0652 -0.3214  0.0238
 8527W        W51543   6.586   1.372   7.116 -0.0028 -0.1225 -0.2607
 8528W        W51544  28.739  15.075   9.035  0.1967  0.0669  0.0260
 8529W        W51545   1.147   6.762   7.790 -0.1505  0.1038 -0.1807
 8530W        W51546   7.259   8.149   1.476  0.2132  0.0638  0.0284
 8531W        W51547  14.539  28.075   4.752 -0.0725 -0.2131 -0.1942
 8532W        W51548   4.616  29.718  25.134 -0.0092 -0.6494  0.0498
 8533W        W51549  34.442   3.000   4.006  0.3254  0.2451  0.0911
 8534W        W51550  23.945  32.557  28.910  0.2027 -0.2191 -0.3189
 8535W        W51551  25.794  29.818  20.114 -0.3204 -0.3341  0.0941
 8536W        W51552  17.321  11.247  29.205  0.1210 -0.0363 -0.1875
 8537W        W51553  22.337   7.291   3.583  0.2447  0.2285  0.0035
 8538W        W51554  27.594   0.968   7.187  0.0017  0.0450  0.1688
 8539W        W51555  10.744   5.721   2.619 -0.2478 -0.1497 -0.2502
 8540W        W51556  15.718  28.773   4.132  0.0957  0.5175 -0.2202
 8541W        W51557  33.504   7.211   9.894 -0.1664 -0.0525 -0.2151
 8542W        W51558  21.861   6.028  22.895 -0.4454 -0.1447  0.1329
 8543W        W51559   7.691  29.847   3.976 -0.0506  0.1016  0.1033
 8544W        W51560  26.418   4.992  26.863  0.1508  0.1599  0.0733
 8545W        W51561   4.635  32.403   8.574  0.0591 -0.4297 -0.1853
 8546W        W51562  31.939  11.071  25.097 -0.2020  0.0201  0.4147
 8547W        W51563  27.390   1.509  26.085  0.1100  0.0461  0.1812
 8548W        W51564   6.261   4.864   8.820 -0.0890 -0.0485 -0.0359
 8549W        W51565  16.712  30.450   0.806 -0.3216  0.2161  0.3893
 8550W        W51566  20.712  27.349   6.979 -0.2240 -0.1407 -0.0190
 8551W        W51567  28.701  24.647  10.538 -0.3409 -0.2072  0.1067
 8552W        W51568  22.097  17.889  15.107 -0.0090 -0.1150 -0.0049
 8553W        W51569  25.759   0.551   4.277 -0.3926  0.1341 -0.0207
 8554W        W51570  11.082   2.030  22.702 -0.1144 -0.0337 -0.2505
 8555W        W51571  22.842  34.400   4.715 -0.2312  0.4668  0.0686
 8556W        W51572  19.888  29.818  26.357 -0.1995  0.1327  0.4057
 8557W        W51573  12.571  15.153   7.590 -0.0439  0.0013 -0.1893
 8558W        W51574   2.404   7.411  15.145 -0.0489  0.0128 -0.1794
 8559W        W51575  32.961   4.968  28.619  0.5367  0.1036 -0.0402
 8560W        W51576  11.779  25.599  16.670  0.1612  0.1173  0.1814
 8561W        W51577  20.828  22.522  13.510  0.3156  0.1503  0.0754
 8562W        W51578  18.176  16.475  24.204  0.1895 -0.0880 -0.2741
 8563W        W51579  14.580   0.611   9.543 -0.0163  0.1375  0.0888
 8564W        W51580  22.489  30.927  16.330 -0.1576 -0.0542 -0.1367
 8565W        W51581  13.640  30.530  23.995  0.0375  0.0085 -0.1505
 8566W        W51582  21.647  26.846  10.113  0.1284 -0.2295 -0.2396
 8567W        W51583  23.695  28.317  17.115  0.2227 -0.0364 -0.0054
 8568W        W51584  27.060  31.673  10.254  0.3439 -0.1573  0.1064
 8569W        W51585  12.568  33.859  25.592  0.5061 -0.0697  0.0624
 8570W        W51586  12.033  32.668   4.612 -0.0494  0.0587 -0.1749
 8571W        W51587  14.804  20.778  28.598  0.1675 -0.2980  0.1903
 8572W        W51588  21.232   3.102   8.300  0.0185  0.0392 -0.2159
 8573W        W51589  20.300   3.363   5.660  0.3908  0.0333  0.1855
 8574W        W51590  15.002   7.646   3.353  0.0180  0.1145 -0.2431
 8575W        W51591  24.166  14.515   8.367 -0.2482  0.0508 -0.2248
 8576W        W51592   8.274  11.039   0.239 -0.0062  0.0207  0.1602
 8577W        W51593  10.485  11.588   6.836  0.0932  0.0583 -0.1077
 8578W        W51594   9.371   5.007   5.642 -0.1914  0.1243  0.1574
 8579W        W51595  23.215  23.708   1.202 -0.3226 -0.1477  0.0765
 8580W        W51596  10.995  31.820   5.294  0.0974  0.0533 -0.2260
 8581W        W51597  24.279   2.122   3.430  0.0882 -0.4166  0.0548
 8582W        W51598  23.932   1.424   6.556 -0.1218  0.1071 -0.0849
 8583W        W51599  29.577  16.650  24.157  0.3623 -0.1049  0.1496
 8584W        W51600  12.201   0.828   2.071  0.0697  0.0218 -0.2539
 8585W        W51601   3.320  31.644   3.586 -0.4557  0.1965  0.3473
 8586W        W51602   5.662   3.065  24.277  0.0099 -0.2341 -0.1938
 8587W        W51603  15.867  31.477   3.794  0.2744  0.0947  0.2593
 8588W        W51604   1.372  32.270  14.456  0.0264  0.0070 -0.0245
 8589W        W51605  22.887  18.124   6.859  0.1833 -0.1407 -0.0950
 8590W        W51606  23.302  25.074   7.478 -0.3452 -0.0012  0.3241
 8591W        W51607  33.406  30.606   0.839 -0.0797  0.2201 -0.1193
 8592W        W51608   9.957  34.432   9.363 -0.0165 -0.0135  0.1480
 8593W        W51609  21.590  12.216   0.581 -0.0531  0.1915  0.2582
 8594W        W51610  24.928  28.544   4.182  0.0271 -0.1263  0.0381
 8595W        W51611  24.483  33.103   5.924  0.0228  0.0200  0.0548
 8596W        W51612  13.468   8.232   9.311 -0.2541 -0.0476  0.1804
 8597W        W51613  17.647  31.903  26.283 -0.3047 -0.1020  0.3364
 8598W        W51614   8.581   3.848   3.487 -0.2298  0.0320 -0.1302
 8599W        W51615  30.618  31.383   5.404 -0.0682  0.0919 -0.0354
 8600W        W51616  27.862  25.757  28.258  0.1852 -0.3051 -0.2388
 8601W        W51617  27.869  32.330   4.616 -0.0350 -0.0254 -0.3643
 8602W        W51618   0.890  13.934   0.733  0.1411  0.1535 -0.0563
 8603W        W51619   2.866  33.865  28.704  0.0072 -0.0404 -0.2164
 8604W        W51620  17.520  33.226   4.893 -0.1987  0.4537  0.2302
 8605W        W51621  25.233  23.464   6.025 -0.0069 -0.0152  0.0937
 8606W        W51622   1.242  27.683   9.652 -0.2157  0.0835 -0.1645
 8607W        W51623  17.724   1.863   7.238 -0.0558 -0.3282  0.1358
 8608W        W51624  16.849   6.485  26.819 -0.1248  0.0046 -0.2229
 8609W        W51625   3.787  32.281   7.278  0.0154  0.0376 -0.0774
 8610W        W51626  12.887   8.215  25.416 -0.1856 -0.1095 -0.1835
 8611W        W51627  24.166  29.756  25.637  0.2401  0.1866  0.0876
 8612W        W51628  15.624  14.765   4.640 -0.1383 -0.0118 -0.2539
 8613W        W51629  18.547  29.287  23.925 -0.0003 -0.0276  0.0971
 8614W        W51630   4.285  10.738  22.402 -0.1075  0.1283  0.2009
 8615W        W51631  14.934  11.300  25.254 -0.2935  0.2014  0.0732
 8616W        W51632  10.278  34.328  13.944  0.5210  0.1404  0.0460
 8617W        W51633  17.618  29.596  20.553  0.1361 -0.1619 -0.1225
 8618W        W51634   2.544  11.477  11.076 -0.1382 -0.2272 -0.0984
 8619W        W51635   7.349  28.072  14.852  0.3498  0.0842 -0.2414
 8620W        W51636  20.382   3.148  22.097  0.1536 -0.1357 -0.1641
 8621W        W51637   9.558  30.375   4.856 -0.0791 -0.2502 -0.0689
 8622W        W51638  29.906  13.810   7.824  0.1391 -0.2701 -0.1538
 8623W        W51639  12.787  31.332   9.600 -0.0473  0.2357  0.1760
 8624W        W51640  15.959   4.160  14.132  0.0797  0.0101 -0.2203
 8625W        W51641  13.254   6.042   4.511 -0.1084 -0.2453 -0.1272
 8626W        W51642  20.416   9.852  23.613  0.1973  0.0893  0.3313
 8627W        W51643  24.419  29.122  10.861  0.2468  0.1034  0.3432
 8628W        W51644  20.799  17.317   9.481 -0.1001  0.0927  0.1592
 8629W        W51645  10.652  33.587  26.659  0.1954 -0.1345  0.0929
 8630W        W51646  20.116  30.232  27.614  0.2605 -0.1725 -0.1586
 8631W        W51647  23.663   4.568   9.669  0.0738 -0.0700  0.2431
 8632W        W51648  18.111  20.464  21.985  0.0978 -0.2020 -0.1496
 8633W        W51649  16.633  34.376   1.814  0.2005  0.0022  0.3090
 8634W        W51650   8.043  12.399  25.876 -0.2701 -0.1028 -0.4584
 8635W        W51651  12.902   9.871  22.676 -0.0524  0.3935 -0.0020
 8636W        W51652  13.718   0.556  25.782 -0.1921 -0.0030 -0.0570
 8637W        W51653  30.021  10.144  25.519 -0.2304  0.0588  0.2907
 8638W        W51654  10.099   5.964   3.480 -0.0541 -0.2467  0.1590
 8639W        W51655  19.988  10.382   6.422  0.2085  0.0434  0.1490
 8640W        W51656  21.137   7.039  20.271  0.0260 -0.2014  0.0300
 8641W        W51657  26.264  12.151  18.024 -0.2155  0.0774  0.1075
 8642W        W51658  20.859  28.840  14.844 -0.0999  0.0640 -0.3101
 8643W        W51659  24.963  13.054   5.698  0.0204  0.0896  0.1405
 8644W        W51660   2.115   9.717  21.181 -0.0377 -0.0689  0.0914
 8645W        W51661  19.650  21.835   1.567 -0.3643 -0.0226 -0.5164
 8646W        W51662   7.083  18.372  27.759 -0.0956  0.2233 -0.1180
 8647W        W51663  15.451   0.080  15.828 -0.0418 -0.2078  0.2237
 8648W        W51664   8.479  27.191   4.971  0.0123 -0.2366 -0.0223
 8649W        W51665  23.024  31.099   1.442  0.0364 -0.4139 -0.0145
 8650W        W51666   7.642  20.363  15.240  0.3521  0.1296  0.2540
 8651W        W51667  16.726   3.722  25.601 -0.1020  0.1345  0.3843
 8652W        W51668  24.331  31.278   1.433  0.1215  0.2163 -0.3079
 8653W        W51669  29.805   7.111   9.303  0.2168 -0.0722  0.2720
 8654W        W51670  24.074   6.703  25.056  0.0062  0.2962  0.0323
 8655W        W51671  13.431   2.409   8.977 -0.0426 -0.0712  0.3061
 8656W        W51672  15.559  29.801   3.164 -0.1197 -0.2189  0.1665
 8657W        W51673   4.808  25.486  26.603  0.0212  0.3331 -0.1550
 8658W        W51674   4.515   4.139   3.070 -0.0313 -0.1296 -0.0482
 8659W        W51675  18.488  26.495   8.864 -0.3514  0.1465  0.0611
 8660W        W51676  12.601  15.296  28.525  0.0762  0.0899 -0.1445
 8661W        W51677  32.082  14.441  26.415 -0.3735 -0.0453 -0.1379
 8662W        W51678  32.656  34.012   3.451 -0.2842 -0.0426 -0.1254
 8663W        W51679  20.059  11.283   6.252 -0.1617 -0.0670  0.3164
 8664W        W51680   2.617   2.219   4.776 -0.1389 -0.2732 -0.1126
 8665W        W51681  23.194  27.030   2.335 -0.0338  0.1625 -0.3593
 8666W        W51682  16.512   6.398   0.580 -0.1694 -0.0344  0.4091
 8667W        W51683   8.365  23.471   5.913 -0.2101  0.0846 -0.1521
 8668W        W51684   3.475   2.853   2.296  0.1242  0.2193  0.2179
 8669W        W51685  25.889   5.813   0.624 -0.1399 -0.3636 -0.3348
 8670W        W51686  17.742   0.452   1.495  0.1135 -0.1757 -0.2453
 8671W        W51687  27.546  32.335   1.999 -0.0257  0.1315 -0.0680
 8672W        W51688  15.673  28.201   1.209  0.1780 -0.2762 -0.4765
 8673W        W51689   7.827  10.426  17.151 -0.1015 -0.1772 -0.1418
 8674W        W51690  17.083   9.611  15.204 -0.2009 -0.0915  0.2679
 8675W        W51691  11.371  16.281  14.830  0.0957 -0.2266  0.0029
 8676W        W51692  20.742  29.535  10.572  0.1229  0.2198 -0.0098
 8677W        W51693  22.620  11.821   2.644 -0.0644 -0.1292 -0.2791
 8678W        W51694  26.898   8.648  15.746 -0.1722  0.0434 -0.0630
 8679W        W51695  13.181  32.787   8.347  0.3834 -0.2294 -0.4765
 8680W        W51696   5.587  31.387  21.285  0.0822  0.2429 -0.2910
 8681W        W51697  18.378   6.563   0.149 -0.4108  0.1921  0.1784
 8682W        W51698  22.441  25.213  25.243  0.1905 -0.3198 -0.2922
 8683W        W51699  26.944   7.375   9.359 -0.0810  0.3002  0.0584
 8684W        W51700  22.248  11.147   2.146 -0.4656  0.0546  0.0375
 8685W        W51701  17.428   7.512  23.224  0.2787  0.0266  0.0262
 8686W        W51702  20.083  31.138   5.501 -0.0330  0.1619  0.1572
 8687W        W51703  24.356  17.348   3.543 -0.0636  0.1134 -0.1561
 8688W        W51704  21.170  16.598  27.605 -0.1667  0.3852 -0.0461
 8689W        W51705  22.148   1.753   7.330 -0.2525 -0.1743 -0.0107
 8690W        W51706  13.867   0.227  28.123 -0.2065  0.0042  0.2582
 8691W        W51707  31.478  32.877   8.145  0.0538 -0.0737 -0.4389
 8692W        W51708  17.272   2.782   5.230  0.0685 -0.0193  0.0386
 8693W        W51709  24.230   4.633   6.339  0.1573 -0.1823  0.0428
 8694W        W51710   4.395   4.019  28.895  0.1002 -0.0014  0.0849
 8695W        W51711  11.183  13.401   4.362  0.1512 -0.2074  0.0489
 8696W        W51712   9.336   9.583  24.282 -0.1036 -0.0234 -0.2123
 8697W        W51713  33.593   7.345   6.421 -0.0058  0.0054 -0.1328
 8698W        W51714  24.002  33.948   8.919 -0.2044 -0.1739  0.0166
 8699W        W51715  33.514   8.287  24.640  0.1551  0.2056  0.0420
 8700W        W51716  31.112  19.758  19.695  0.0507 -0.1046 -0.0489
 8701W        W51717   4.256  17.420   6.909  0.1842 -0.0091 -0.0384
 8702W        W51718  24.984   0.629   9.016 -0.3561 -0.1388  0.1448
 8703W        W51719   0.988  22.101   1.752 -0.2572  0.2429  0.2000
 8704W        W51720  17.649   7.253  26.605  0.1499 -0.0751 -0.2414
 8705W        W51721  30.785  29.673   6.260 -0.0204 -0.0153  0.0236
 8706W        W51722  22.793  31.664   2.628  0.2609  0.2800 -0.0559
 8707W        W51723  28.321   5.443  27.990 -0.3600 -0.2093  0.1141
 8708W        W51724  17.387  26.122   4.405  0.1525 -0.0973 -0.1619
 8709W        W51725  27.953  27.132   8.753 -0.2312 -0.3216 -0.2066
 8710W        W51726  31.889   3.423  27.723  0.0250 -0.0184  0.1586
 8711W        W51727  12.164   1.995   6.215  0.1049 -0.0484  0.2222
 8712W        W51728  19.074  15.055   4.336 -0.0103  0.1224  0.1968
 8713W        W51729  21.536  29.780  28.473  0.0922 -0.0292  0.0600
 8714W        W51730   6.953  24.556   8.233  0.2264  0.3081 -0.2337
 8715W        W51731  20.008  12.088  16.043 -0.3037 -0.2416  0.3431
 8716W        W51732  12.901  34.437  29.118  0.1057  0.3418  0.0656
 8717W        W51733  28.259  34.168   5.710  0.0319  0.1918 -0.1585
 8718W        W51734   1.612  29.424  25.028  0.0109  0.2269 -0.0373
 8719W        W51735  14.906  17.044  25.620  0.2159  0.2129  0.0927
 8720W        W51736  15.526   7.936   6.757 -0.0525  0.1081  0.0185
 8721W        W51737   2.531  24.616  16.896 -0.0346 -0.1440  0.0929
 8722W        W51738  10.337   6.734  22.090  0.1199  0.1175  0.0202
 8723W        W51739   9.061   3.387  10.185  0.0936  0.1378 -0.1118
 8724W        W51740  18.109  30.212  18.827 -0.0055  0.3510  0.1137
 8725W        W51741   8.054   8.937   1.532 -0.2365 -0.0523  0.1671
 8726W        W51742  17.152   5.911   5.780  0.5584 -0.0578 -0.0498
 8727W        W51743  30.854   4.974   0.461  0.1162  0.0915  0.3585
 8728W        W51744  11.223  30.817   7.698 -0.1445 -0.2336  0.0309
 8729W        W51745  17.859  28.963   5.563 -0.3839 -0.0470 -0.2510
 8730W        W51746  21.872  12.248  25.157  0.1247 -0.1206 -0.1092
 8731W        W51747  18.091   7.433  29.259  0.1493  0.2316 -0.4080
 8732W        W51748  14.945   0.652   1.765  0.0575 -0.0895  0.3732
 8733W        W51749  12.856   7.413  19.113 -0.1600  0.2532 -0.0028
 8734W        W51750  28.599   1.906  27.460  0.4131 -0.3409  0.0694
 8735W        W51751  31.910   0.726   7.218  0.1744 -0.0325  0.1220
 8736W        W51752   2.731  27.778  26.345  0.0067  0.1965  0.1033
 8737W        W51753  22.037  10.205   1.584  0.0136  0.0678  0.1548
 8738W        W51754  21.585   0.298  17.535 -0.2394 -0.4001  0.2789
 8739W        W51755  25.591   5.365  21.927 -0.0980 -0.3709 -0.1851
 8740W        W51756  18.055  33.386  23.575 -0.2638 -0.3812 -0.1506
 8741W        W51757  21.447  14.047  23.622 -0.2117  0.1112  0.0112
 8742W        W51758  11.113   2.118  26.713 -0.0642 -0.0025  0.0479
 8743W        W51759  19.269  30.786  20.883 -0.0253  0.4511  0.3559
 8744W        W51760  29.024  15.288  27.691  0.1777 -0.0173  0.1597
 8745W        W51761   5.295  24.804  23.226  0.1485  0.0647  0.0361
 8746W        W51762  18.262   9.966   1.425  0.2367  0.0856  0.1932
 8747W        W51763   7.831  21.386   3.766 -0.2968 -0.1861 -0.0833
 8748W        W51764  10.543   1.278  29.263  0.6014  0.2347 -0.0329
 8749W        W51765  20.358  13.232  26.505  0.2913  0.1619 -0.2290
 8750W        W51766  18.226  11.386   2.169  0.1448 -0.1472  0.1242
 8751W        W51767   4.814   1.795  23.055 -0.2052 -0.1361 -0.1427
 8752W        W51768  16.609  24.389  14.903  0.1475  0.0925 -0.1417
 8753W        W51769  11.541  33.505  18.822  0.0796 -0.2869  0.1848
 8754W        W51770  16.510   9.482  29.249  0.0309  0.1311 -0.0328
 8755W        W51771  21.400  19.079  28.795 -0.0598 -0.0859  0.0178
 8756W        W51772  13.876  29.960   5.856 -0.1008  0.1880  0.3200
 8757W        W51773   1.060   7.568  22.130 -0.1798  0.3029 -0.0008
 8758W        W51774  21.937   1.492  24.743 -0.0084 -0.0117 -0.2856
 8759W        W51775  17.294   8.872  23.279  0.0671  0.1616  0.1712
 8760W        W51776  26.559  32.108   9.557 -0.1297  0.0885  0.0176
 8761W        W51777  27.541  26.656  21.246  0.1307  0.2020 -0.1393
 8762W        W51778   6.900   0.817  25.984  0.2525  0.3404 -0.2242
 8763W        W51779  21.045   4.510   8.641  0.0129 -0.0048  0.0301
 8764W        W51780   7.815   4.159   8.460  0.2006 -0.0505 -0.0782
 8765W        W51781  14.934   9.307   2.542 -0.1000 -0.0798 -0.0553
 8766W        W51782  24.815  28.236  11.000  0.0764  0.1181  0.0054
 8767W        W51783  30.016  12.190  26.900 -0.1293  0.2048  0.2620
 8768W        W51784  21.226  32.409  15.479 -0.1773 -0.0825  0.0774
 8769W        W51785  22.003  28.342  16.196  0.3327 -0.4109 -0.0202
 8770W        W51786  24.893   9.705   1.187  0.0680  0.1785 -0.0492
 8771W        W51787  15.489   3.376   4.362 -0.1509 -0.0823 -0.2406
 8772W        W51788  15.332  11.147  27.698  0.0459  0.1076 -0.2176
 8773W        W51789  21.434   1.998   5.550 -0.1999  0.2205 -0.1199
 8774W        W51790   4.802   1.860   1.774 -0.0440  0.0923  0.3335
 8775W        W51791  26.199  25.874  10.923  0.1900  0.1033 -0.1130
 8776W        W51792  29.225  29.972   9.183 -0.1906 -0.0393  0.3314
 8777W        W51793  20.535  30.555   2.565  0.1916 -0.1029  0.4258
 8778W        W51794   0.287  10.850  24.078  0.0803  0.1215  0.0255
 8779W        W51795   6.775   5.844   0.489  0.0225 -0.1073 -0.0796
 8780W        W51796  21.618  24.680   5.416  0.3141  0.2303 -0.0449
 8781W        W51797  34.049  13.255   6.648  0.2103  0.0077 -0.0071
 8782W        W51798  20.577   5.895   4.768  0.1210 -0.1415 -0.0045
 8783W        W51799  14.026   1.280   6.492 -0.0442 -0.2292 -0.1130
 8784W        W51800  21.466  28.835   5.717 -0.1529  0.1124  0.0874
 8785W        W51801  12.147   5.631   9.318  0.1924 -0.1495  0.2100
 8786W        W51802   5.083   8.869  15.740 -0.3748  0.0998  0.3349
 8787W        W51803  17.646  30.703   9.272  0.0242  0.0943  0.1316
 8788W        W51804   8.499  15.492  17.341 -0.2746  0.0241 -0.2536
 8789W        W51805  16.149  23.873  15.740  0.3260  0.1702 -0.0356
 8790W        W51806   0.552   5.258   0.049  0.0907 -0.1052  0.1010
 8791W        W51807  30.987  10.243   8.376 -0.1733 -0.0745 -0.4267
 8792W        W51808  22.753  33.224   9.090  0.0573  0.1558 -0.0339
 8793W        W51809  23.990  33.915   7.988 -0.2573 -0.3780  0.1355
 8794W        W51810  25.543   6.793   1.700 -0.1808 -0.3277  0.0196
 8795W        W51811  34.161   6.696  24.292 -0.0889 -0.1878  0.2643
 8796W        W51812   0.033   8.529   1.577  0.0366 -0.1680  0.1427
 8797W        W51813  24.189   7.908   9.558 -0.0220  0.0518  0.2285
 8798W        W51814  12.721  10.959   7.266  0.0041 -0.3036  0.0844
 8799W        W51815  14.691   9.514  28.632  0.2668 -0.1555 -0.1995
 8800W        W51816  18.008  23.305   4.026 -0.1790 -0.1761 -0.2300
 8801W        W51817  34.281  16.937  10.414  0.1782 -0.1652 -0.0925
 8802W        W51818  25.334   8.127  20.129  0.2489  0.3911 -0.2949
 8803W        W51819  29.125  29.044  12.308 -0.1859 -0.0478  0.3401
 8804W        W51820   0.084  28.139  25.581 -0.1673 -0.3899  0.2284
 8805W        W51821  20.646  19.796  28.973 -0.1088  0.0608  0.2376
 8806W        W51822  24.172  30.777   2.731 -0.1636  0.1432 -0.1908
 8807W        W51823  10.209   4.205   9.035 -0.1742  0.1573  0.0234
 8808W        W51824   6.356  34.309  24.968  0.1209 -0.2520  0.0057
 8809W        W51825   8.246  34.448   4.310  0.0638  0.0110  0.3110
 8810W        W51826  20.292   6.567   7.048  0.3598 -0.0237 -0.2283
 8811W        W51827   2.244  16.759  21.395  0.1010 -0.0403  0.0545
 8812W        W51828  16.724   9.430   0.753 -0.1262 -0.3158  0.0650
 8813W        W51829  13.206  32.320  23.905 -0.0554  0.0496 -0.0861
 8814W        W51830  20.720  30.201   7.829 -0.2791 -0.0054 -0.1195
 8815W        W51831   0.253  10.131  29.025 -0.2413 -0.1284 -0.1187
 8816W        W51832   8.210  30.431   6.037  0.0281 -0.0074 -0.1559
 8817W        W51833  28.631   7.093   7.787  0.1430  0.1312  0.2230
 8818W        W51834  28.156  33.141   7.425 -0.0009  0.1882 -0.0978
 8819W        W51835   0.733  11.127   3.590 -0.1842 -0.0580 -0.3171
 8820W        W51836  33.986  14.381  28.573 -0.0701 -0.6590 -0.2476
 8821W        W51837  30.509  16.137   2.530 -0.0240  0.0404  0.1947
 8822W        W51838  17.472   5.453   6.004 -0.0664 -0.2714  0.2075
 8823W        W51839  21.553  19.246   1.637 -0.0643 -0.0619  0.1854
 8824W        W51840   8.405   2.964  16.552 -0.0187 -0.0817 -0.2788
 8825W        W51841  20.430  34.281  28.369  0.0526 -0.3241 -0.0443
 8826W        W51842  20.342  26.463  15.187 -0.2129  0.1304  0.2000
 8827W        W51843   8.789  30.723   2.475 -0.0242 -0.1177 -0.1116
 8828W        W51844  25.964  25.915  29.070  0.1027  0.1558  0.2102
 8829W        W51845  15.790  20.249   7.321  0.1947  0.1506 -0.3110
 8830W        W51846   9.178   1.238   1.844 -0.2539 -0.2674  0.3078
 8831W        W51847  32.182  22.077  20.281  0.0697 -0.0255  0.1712
 8832W        W51848  15.735   0.236  19.267 -0.0245 -0.0317  0.0950
 8833W        W51849   7.116  33.909  18.970  0.2895 -0.2098  0.4367
 8834W        W51850   9.566   8.544   1.656 -0.2535  0.0258  0.3677
 8835W        W51851   9.516  34.357   1.261  0.1030  0.0861  0.0095
 8836W        W51852  10.651  31.664   7.308  0.2212  0.0331  0.1644
 8837W        W51853   5.243  18.032  21.658 -0.0520 -0.1370  0.1631
 8838W        W51854  21.516   2.003   4.645 -0.2528  0.1606  0.0979
 8839W        W51855  14.876   1.447  24.558 -0.0500  0.1082 -0.1084
 8840W        W51856  27.332   4.346   6.757  0.0784  0.2075  0.1573
 8841W        W51857  19.824   2.756  17.550 -0.2447 -0.2428 -0.2783
 8842W        W51858  10.251  22.284  25.402 -0.3044  0.2435 -0.1071
 8843W        W51859  19.330   7.179  19.426  0.2146  0.1584  0.2367
 8844W        W51860  21.690  12.231  28.932 -0.3573  0.1093 -0.0688
 8845W        W51861  17.575  27.675  24.560 -0.1611  0.1818  0.1894
 8846W        W51862  21.094   4.569  17.277  0.2289 -0.2361 -0.1196
 8847W        W51863   9.185  28.412  23.866 -0.2551 -0.0290  0.1997
 8848W        W51864  10.196  15.474   2.392  0.0878  0.1763  0.0053
 8849W        W51865  29.470  20.266  21.583  0.0517 -0.0377 -0.1539
 8850W        W51866  17.263  30.245   0.895  0.2238  0.1559  0.1209
 8851W        W51867  16.327  12.617  25.366  0.1529 -0.0719 -0.3495
 8852W        W51868  13.912  10.635   1.062  0.0376 -0.0556 -0.0924
 8853W        W51869  18.158   9.834   6.497 -0.1888 -0.0495  0.0025
 8854W        W51870  27.667  30.573   3.429 -0.2998  0.1372  0.0897
 8855W        W51871  25.953  24.378   7.629  0.0713 -0.1041 -0.1009
 8856W        W51872  13.710  24.737   0.575  0.1376 -0.1408 -0.1963
 8857W        W51873  11.671   0.458   8.778 -0.0795  0.0748  0.3186
 8858W        W51874  28.572  32.856  27.916 -0.1988  0.0979 -0.1342
 8859W        W51875  32.239   7.837  24.401 -0.0367 -0.0360  0.2512
 8860W        W51876  20.683  27.794  14.645 -0.0526  0.1196 -0.3565
 8861W        W51877  34.120  21.428  28.138 -0.0677  0.3611  0.1977
 8862W        W51878  21.347  11.462   6.942  0.1672  0.1225  0.1116
 8863W        W51879   4.644  21.530   5.450 -0.2302 -0.0749 -0.0962
 8864W        W51880  13.611   8.522  26.523 -0.1107 -0.1244 -0.2459
 8865W        W51881  34.400  17.353  26.331  0.3572  0.4827  0.0211
 8866W        W51882   7.839  16.299   8.241  0.1997 -0.2444  0.3051
 8867W        W51883  14.739  20.574   3.835 -0.1478 -0.2318 -0.2489
 8868W        W51884  26.446  12.476   7.486  0.0240 -0.1487  0.4552
 8869W        W51885  13.884   0.567  21.439 -0.1682  0.1216  0.1853
 8870W        W51886  32.753  11.839  26.086 -0.0552  0.1804  0.0769
 8871W        W51887  17.351   8.160  25.193 -0.1425 -0.1538 -0.2394
 8872W        W51888  11.116  29.763  18.806 -0.3124 -0.3154  0.0961
 8873W        W51889  32.514   4.491  22.861  0.0161  0.4301 -0.0574
 8874W        W51890  20.675  23.550   7.559  0.4685 -0.3150 -0.2814
 8875W        W51891   3.215  10.355   6.161 -0.2330  0.0910  0.1729
 8876W        W51892  11.481  14.352   6.107  0.0811  0.0087  0.8161
 8877W        W51893   5.936   4.688   4.469 -0.0236 -0.2418  0.0599
 8878W        W51894  13.746   1.917  22.579 -0.0888 -0.0904  0.1653
 8879W        W51895   7.063  10.837  28.368 -0.0795  0.3616 -0.0136
 8880W        W51896  31.726   8.732  21.807 -0.0356  0.1167 -0.0365
 8881W        W51897   2.418  26.519   3.750  0.0596 -0.3755  0.2989
 8882W        W51898  25.398   0.528  17.249 -0.2273 -0.0845  0.0342
 8883W        W51899  18.414  29.550   7.988  0.1750  0.0244  0.0523
 8884W        W51900  31.364  11.289   6.805 -0.0810  0.1409  0.2775
 8885W        W51901   9.862  10.040  25.521 -0.0307 -0.1651 -0.3819
 8886W        W51902  19.875  14.629   0.700 -0.1218 -0.0471 -0.0881
 8887W        W51903  14.726  19.068   6.588 -0.0001  0.0721  0.2028
 8888W        W51904  15.446   8.595   4.100 -0.0392 -0.1200 -0.2911
 8889W        W51905  10.201   6.097   0.740 -0.1578  0.0622 -0.1361
 8890W        W51906  17.132   6.918   3.346 -0.4149 -0.1262 -0.0007
 8891W        W51907   9.390  31.300   6.155  0.0282  0.1939 -0.0780
 8892W        W51908  34.389   4.700   6.953 -0.1967  0.0945  0.2557
 8893W        W51909  16.141   3.938   8.108 -0.0476 -0.1301  0.3580
 8894W        W51910  19.742   0.706   4.017 -0.2447  0.2638  0.0811
 8895W        W51911   6.797  34.683  27.783 -0.2475 -0.0298 -0.1014
 8896W        W51912  26.968   1.623   6.960  0.0403  0.0335  0.0038
 8897W        W51913  23.775  10.172   0.167  0.0863  0.2073 -0.0713
 8898W        W51914  14.928  32.668   1.276 -0.4217 -0.0422 -0.3201
 8899W        W51915  33.063   4.136  10.042  0.1763 -0.4327 -0.0507
 8900W        W51916  21.077  27.797   9.205 -0.1655 -0.0219  0.2821
 8901W        W51917  30.968  10.659   4.864  0.1021  0.1841 -0.3623
 8902W        W51918   3.642   4.663   2.529  0.1173 -0.0966 -0.3002
 8903W        W51919  12.563  29.766   7.375  0.0939  0.2763 -0.0594
 8904W        W51920  24.110   0.921   6.808  0.1585 -0.3650  0.0100
 8905W        W51921  21.375  15.523   8.402 -0.0633  0.3268 -0.0518
 8906W        W51922  26.066  14.614   9.353 -0.1563  0.1181  0.0278
 8907W        W51923  23.864  26.080   4.851 -0.2184 -0.0547  0.2266
 8908W        W51924   7.088  15.179  24.317 -0.3022  0.1180  0.1114
 8909W        W51925  27.984  12.883  23.041 -0.0711  0.0648  0.3697
 8910W        W51926  32.716   5.249   9.189 -0.1122 -0.0514  0.0562
 8911W        W51927  18.834  34.222   5.999 -0.2350  0.1402 -0.0728
 8912W        W51928  12.591  33.484   6.291 -0.3985  0.1455 -0.0050
 8913W        W51929  25.414  22.218  24.482 -0.0392 -0.1393  0.1778
 8914W        W51930   5.684  14.054  25.602  0.2428 -0.1473 -0.0689
 8915W        W51931  25.983   8.601  28.570 -0.0719  0.1335 -0.0507
 8916W        W51932  11.761  17.446   3.493  0.1346  0.2535 -0.1545
 8917W        W51933  13.566  18.767   4.607 -0.0804  0.0597 -0.1041
 8918W        W51934  19.551  33.252  14.918  0.0671 -0.0898 -0.1458
 8919W        W51935  19.118   0.579  10.570 -0.2272  0.3665  0.1071
 8920W        W51936   7.366  15.042   9.384  0.1047  0.0173 -0.0711
 8921W        W51937  30.851  26.494  28.456 -0.0671 -0.0564  0.0239
 8922W        W51938  27.896  17.832   3.545 -0.2759  0.1758 -0.1418
 8923W        W51939  33.012  13.607  20.516 -0.0092  0.2161 -0.0298
 8924W        W51940  22.887  26.606   2.289 -0.4200  0.1493 -0.2347
 8925W        W51941   7.284  32.920   5.059  0.2505  0.3613  0.0115
 8926W        W51942  30.605  33.867  10.227 -0.0743  0.2510 -0.0058
 8927W        W51943  19.280   5.287   2.831 -0.0042  0.1329 -0.0439
 8928W        W51944  18.319  12.507  22.076  0.2498  0.2284  0.1018
 8929W        W51945   2.233   6.885   1.237 -0.2778  0.1490  0.0576
 8930W        W51946  21.522  21.806   3.427 -0.2961 -0.1102 -0.4605
 8931W        W51947  15.329   3.622   4.774 -0.2149  0.0770  0.1171
 8932W        W51948   8.984  27.256  26.087 -0.2416  0.2174 -0.0092
 8933W        W51949  19.085  15.977   7.352 -0.1161 -0.0599  0.1039
 8934W        W51950  19.688  33.129   0.097 -0.1490  0.1716 -0.1079
 8935W        W51951  19.034  26.402   8.880 -0.1134  0.0585  0.0573
 8936W        W51952  25.607  15.792  25.797  0.0237  0.0868  0.2000
 8937W        W51953   3.223   3.950  27.686  0.3822 -0.0659  0.0722
 8938W        W51954  29.591  14.932   3.538 -0.2439  0.1106  0.0772
 8939W        W51955  22.410   3.730  25.381 -0.1414 -0.1482 -0.1948
 8940W        W51956  20.267  21.924  25.178  0.2158  0.0348  0.0641
 8941W        W51957  15.621   8.243   9.165  0.0212  0.0454 -0.1765
 8942W        W51958   6.666  33.864   4.325  0.2299  0.0508  0.1972
 8943W        W51959  23.864  15.695   8.632 -0.0320 -0.1990 -0.0737
 8944W        W51960  33.255  32.959   0.178 -0.1287 -0.0909  0.0518
 8945W        W51961  27.141   0.068   2.965 -0.1758  0.0229  0.2191
 8946W        W51962  10.799  33.995  28.335  0.0203 -0.1643  0.0792
 8947W        W51963   8.705   2.406  29.185 -0.0673 -0.0501  0.1704
 8948W        W51964  11.582  21.832   2.556 -0.1674 -0.0301  0.1071
 8949W        W51965  22.240  25.163  26.143  0.1338 -0.2807 -0.1048
 8950W        W51966   6.392  24.098   4.471 -0.1887  0.2824  0.5726
 8951W        W51967   9.239   5.638   1.311  0.1171 -0.2097  0.1296
 8952W        W51968  12.588  32.558  19.262 -0.1145 -0.1640 -0.2021
 8953W        W51969  15.575  32.187   5.603 -0.0189  0.2990 -0.2031
 8954W        W51970  25.171  14.513   9.194 -0.0506 -0.2532  0.1340
 8955W        W51971  20.095   0.077   0.958 -0.2267  0.2260  0.1096
 8956W        W51972  19.851  13.116   1.992 -0.2083 -0.1618 -0.0518
 8957W        W51973  14.342   3.113  29.085  0.0222  0.1799  0.1219
 8958W        W51974  22.343   5.790   7.600 -0.1678 -0.0310  0.0999
 8959W        W51975  22.199  21.664  14.434 -0.2766 -0.2688 -0.0660
 8960W        W51976  17.179  12.336  23.145  0.2577 -0.0738  0.0558
 8961W        W51977   9.200   2.508  25.154  0.1487 -0.1326  0.3249
 8962W        W51978  29.847  29.802   9.175  0.1394  0.3837  0.2439
 8963W        W51979   0.461  26.313   8.364  0.3977  0.1318 -0.2195
 8964W        W51980  17.904   0.531  24.294  0.0775 -0.0618  0.1972
 8965W        W51981  11.763  27.697   6.260 -0.0502 -0.0540 -0.3160
 8966W        W51982  28.684  29.208   4.130  0.4412 -0.0121 -0.3074
 8967W        W51983  20.921  26.853   9.429  0.1857  0.0920  0.0412
 8968W        W51984  15.654  30.893   2.095  0.0167 -0.0838 -0.0259
 8969W        W51985  21.488  29.162   9.534 -0.2225 -0.0032 -0.1200
 8970W        W51986  16.441  21.944  23.843  0.2228 -0.0243 -0.2380
 8971W        W51987  15.003   4.822  14.112  0.0325 -0.1996 -0.0022
 8972W        W51988  28.105   5.958  24.049 -0.1023 -0.0567 -0.0672
 8973W        W51989  16.590  23.183  29.096  0.0771 -0.3140  0.2117
 8974W        W51990   6.491   6.202   2.473 -0.1815  0.4777 -0.2225
 8975W        W51991  18.365   2.414  27.191  0.0597 -0.2967 -0.2036
 8976W        W51992  20.648  18.469  27.841  0.1266 -0.0545 -0.1647
 8977W        W51993   7.563   1.341   2.239  0.1678 -0.0957  0.0539
 8978W        W51994  17.238  34.033  18.149  0.0826 -0.0442  0.1406
 8979W        W51995  32.022  12.144   8.745  0.3062  0.2286 -0.0513
 8980W        W51996  18.215   2.306  15.816 -0.1846  0.0472 -0.1699
 8981W        W51997  28.500  22.960  11.584  0.1294  0.1679 -0.0596
 8982W        W51998  21.704  10.400  21.961  0.1234  0.0538 -0.2562
 8983W        W51999  26.138  12.522  28.133 -0.0112 -0.0083  0.0206
 8984W        W52000  16.013   8.790  15.230  0.0251 -0.2841 -0.3840
 8985W        W52001  10.349  12.775  28.809 -0.1860 -0.1714  0.1305
 8986W        W52002  34.188  15.490  18.219  0.0798 -0.1935 -0.1828
 8987W        W52003  13.555  24.643  28.622 -0.0276  0.2696 -0.0376
 8988W        W52004   2.125  27.507   9.019  0.1540 -0.3880  0.0212
 8989W        W52005  14.034  33.128  26.537 -0.2468  0.0616  0.1705
 8990W        W52006   9.166   4.242  10.908  0.0591 -0.2430 -0.0566
 8991W        W52007  33.018   5.910   5.799  0.1238 -0.2279 -0.0776
 8992W        W52008   6.233   6.412   0.891 -0.2827  0.1195  0.1320
 8993W        W52009  28.807  10.085  10.543  0.4727 -0.0033  0.0695
 8994W        W52010  18.315   7.153  22.149  0.2243  0.0787 -0.3261
 8995W        W52011  17.863   2.899   2.384 -0.0029  0.3198  0.1050
 8996W        W52012  12.765  31.060   0.026 -0.1554  0.0260 -0.1212
 8997W        W52013  24.244  26.708   5.635 -0.4134  0.1078 -0.2357
 8998W        W52014  11.392  32.118   5.296 -0.0414  0.1579  0.0241
 8999W        W52015  33.027  34.580   5.635  0.0590  0.1076 -0.1100
 9000W        W52016   5.770  10.951   0.676 -0.0585  0.0744  0.1271
 9001W        W52017   0.602   6.777  22.761  0.2890  0.0642  0.1476
 9002W        W52018  12.627  29.092   6.723 -0.1473  0.0004  0.1442
 9003W        W52019  22.267  22.560  24.151 -0.3572  0.0598  0.1555
 9004W        W52020  17.857  13.182  22.202  0.2111 -0.0104  0.1992
 9005W        W52021   0.636   1.934   5.367 -0.1798 -0.3608 -0.0520
 9006W        W52022  30.211  28.682  23.001  0.1827  0.1381  0.1104
 9007W        W52023  22.627   4.228  28.409 -0.1335 -0.1284  0.0670
 9008W        W52024  17.638   2.798   0.720  0.0914  0.0657 -0.0283
 9009W        W52025  11.937  15.472   5.825  0.1030 -0.2299 -0.1654
 9010W        W52026  12.105  16.252  25.051 -0.0888  0.1077 -0.3971
 9011W        W52027  22.834   1.948  20.223 -0.2317  0.3671  0.0226
 9012W        W52028  32.765  10.107  17.533 -0.2720 -0.0742 -0.2919
 9013W        W52029   4.707  32.190   6.731  0.3104  0.2277 -0.0617
 9014W        W52030   2.582   5.374   7.000 -0.1553  0.2420  0.1709
 9015W        W52031  18.178  17.402  28.586  0.4033 -0.0436  0.0421
 9016W        W52032   8.064   1.784   9.898  0.0202 -0.1106 -0.1853
 9017W        W52033  12.307  34.012  23.168 -0.4476  0.2662 -0.0496
 9018W        W52034  29.180  30.350  11.467 -0.0225 -0.1268  0.2029
 9019W        W52035  23.281   1.310  10.964  0.1755  0.1131 -0.3325
 9020W        W52036  17.527   5.398   6.519 -0.0397 -0.2036  0.0376
 9021W        W52037   2.627   7.045  28.287  0.0169  0.0930  0.2953
 9022W        W52038  27.729  26.690  27.293  0.0291  0.1961  0.0641
 9023W        W52039  19.314  23.943   9.496 -0.0198 -0.3875  0.1468
 9024W        W52040   5.049   3.482   4.245  0.2760  0.0504 -0.0813
 9025W        W52041  20.561  31.120   5.752  0.0655  0.0585 -0.3963
 9026W        W52042  26.157  12.709  22.477  0.0997 -0.2995 -0.1261
 9027W        W52043  26.711   3.364   5.516 -0.0343  0.1685  0.1269
 9028W        W52044  23.700   9.107  29.098 -0.2329 -0.0116 -0.3631
 9029W        W52045   0.853  23.739   2.599  0.0664 -0.1477 -0.1382
 9030W        W52046   3.113   9.797   2.813 -0.2357  0.0704 -0.3206
 9031W        W52047  18.408   3.894   3.249  0.2224  0.1927 -0.1699
 9032W        W52048   4.794  11.634   8.830 -0.1318 -0.2354  0.2654
 9033W        W52049  16.145  28.222  23.876 -0.0773 -0.0123  0.0901
 9034W        W52050   9.215  28.241   6.257 -0.0134 -0.1371 -0.3222
 9035W        W52051  10.958  11.508  21.783  0.1819  0.1743  0.1872
 9036W        W52052  10.529  22.425   3.338 -0.0414 -0.1750 -0.2556
 9037W        W52053   5.500   4.958  24.420 -0.1034 -0.1797 -0.0999
 9038W        W52054  14.617   9.504   5.286 -0.1308 -0.0516  0.1151
 9039W        W52055  18.397  15.903   5.431 -0.0347  0.0878 -0.0907
 9040W        W52056  17.488  28.653   5.391 -0.0582  0.0464 -0.0059
 9041W        W52057  22.259   4.623   4.000 -0.1278 -0.1013 -0.0898
 9042W        W52058  21.155  12.968   4.199  0.2436  0.2344  0.0259
 9043W        W52059  21.687  10.347  24.542  0.0293  0.1240  0.1409
 9044W        W52060   6.586  14.072  14.392  0.0792 -0.2416  0.0152
 9045W        W52061  23.956  28.828   3.484  0.1480 -0.0975 -0.1896
 9046W        W52062   0.032  32.760   8.049  0.0379  0.1096 -0.2435
 9047W        W52063  28.805   6.101   9.367  0.3169  0.1919 -0.1984
 9048W        W52064  21.843   6.851   5.052 -0.1504 -0.2355 -0.1123
 9049W        W52065  30.540  16.323   9.553  0.0366  0.1163  0.2315
 9050W        W52066   8.467   8.207   0.772  0.0086 -0.3606  0.1338
 9051W        W52067  23.842   6.587   0.613  0.1278 -0.0735 -0.0559
 9052W        W52068  13.792  31.921   4.495 -0.3492 -0.0657 -0.0744
 9053W        W52069  25.097   4.710   9.397 -0.1758 -0.1140 -0.0970
 9054W        W52070  11.684   7.491   3.319 -0.0282 -0.0020  0.2993
 9055W        W52071  15.137  34.316  22.490  0.0039  0.0899  0.1055
 9056W        W52072  33.258   5.081  25.773  0.0994 -0.0381 -0.0447
 9057W        W52073  12.042  30.718  25.203  0.1146 -0.0480 -0.0300
 9058W        W52074   2.876  11.889  22.590  0.2641 -0.1895 -0.0366
 9059W        W52075  14.284  13.875   7.066  0.1800 -0.0674 -0.1986
 9060W        W52076  28.850  23.886   8.551  0.1763  0.1648  0.1371
 9061W        W52077   3.991  10.183   9.898 -0.0080 -0.0452  0.1450
 9062W        W52078  18.325  29.710  19.083 -0.3210 -0.0305 -0.1467
 9063W        W52079  28.062  16.015   5.138  0.0547  0.0139 -0.1138
 9064W        W52080  20.904   9.878  27.882 -0.1166 -0.0054 -0.1582
 9065W        W52081  17.126  16.496  29.147  0.0298  0.0667  0.0342
 9066W        W52082  22.841  17.813  28.147  0.0354 -0.1548  0.1079
 9067W        W52083  24.161  21.853  25.546 -0.2887 -0.0123  0.0747
 9068W        W52084  13.378  13.408  25.688  0.1191 -0.0431 -0.2396
 9069W        W52085  18.751  33.832   9.949  0.1169 -0.0353  0.1617
 9070W        W52086  34.438   5.778  27.756  0.3189  0.1608  0.1393
 9071W        W52087   7.889   3.540   5.852 -0.1412  0.0821 -0.0452
 9072W        W52088   1.898   6.253  28.965  0.0468 -0.0986 -0.2460
 9073W        W52089  25.549  34.636   0.532 -0.0404  0.1443  0.0637
 9074W        W52090  24.186   5.628   8.489  0.0690 -0.1913 -0.2060
 9075W        W52091   1.521   9.337  18.368 -0.2938 -0.0970 -0.0259
 9076W        W52092   6.626  14.056   0.283 -0.0919 -0.2101 -0.2011
 9077W        W52093  21.351   5.665   6.067 -0.0823  0.2248 -0.1869
 9078W        W52094  29.573  30.514   1.913 -0.0498  0.0062  0.1347
 9079W        W52095  21.077   1.745   5.837 -0.3865  0.1834 -0.3777
 9080W        W52096  29.857  11.648   2.590 -0.1301 -0.0150  0.1333
 9081W        W52097  29.394  32.498  11.433  0.0187 -0.1481  0.1360
 9082W        W52098   8.204  14.899  18.917  0.0665 -0.1518  0.1558
 9083W        W52099  29.344  27.760   6.217  0.1098  0.0997  0.3464
 9084W        W52100   4.454   2.672   1.585  0.0610 -0.2643 -0.1285
 9085W        W52101  17.455  28.895  16.925 -0.2938 -0.1227  0.0887
 9086W        W52102  32.611  12.005   3.860  0.1345  0.0482  0.2440
 9087W        W52103   8.702   0.456  10.340  0.2190  0.0413  0.0432
 9088W        W52104  23.744  22.148   1.456 -0.0682  0.0204  0.0407
 9089W        W52105  13.305  29.255  17.005 -0.3426 -0.3151 -0.0577
 9090W        W52106  11.300   4.219   2.008  0.0299 -0.2438 -0.0078
 9091W        W52107  13.197   5.652   7.594  0.1717  0.0553 -0.0387
 9092W        W52108   9.564   5.096   3.154 -0.1181 -0.3845 -0.2988
 9093W        W52109  18.927  29.345   6.999 -0.1772 -0.2893 -0.1842
 9094W        W52110  24.677  29.500   1.302 -0.0957 -0.0620 -0.1421
 9095W        W52111  23.032  21.994   4.699  0.1280  0.1993  0.2133
 9096W        W52112  28.809  31.141  25.251 -0.0611 -0.2033  0.2658
 9097W        W52113  28.887   6.102  11.544  0.2598 -0.1710 -0.1919
 9098W        W52114  22.511  12.370   9.632  0.0146  0.0896 -0.3115
 9099W        W52115  11.789  14.316   5.321 -0.1905 -0.0012 -0.1175
 9100W        W52116  19.086   1.209   7.626 -0.0196 -0.2970  0.1060
 9101W        W52117   4.410   0.635  26.631 -0.2576 -0.0817 -0.2710
 9102W        W52118  24.966   9.028   7.633 -0.2174  0.0268  0.0428
 9103W        W52119  23.422   8.813   2.339  0.1569 -0.1001 -0.0055
 9104W        W52120  33.374  27.658   0.264  0.3604 -0.0170  0.2808
 9105W        W52121   4.748   4.078   6.767 -0.4495  0.0305 -0.2121
 9106W        W52122   6.138   1.904  21.323  0.1375 -0.0282 -0.1072
 9107W        W52123  28.788   1.333   9.294  0.0977  0.0869  0.1473
 9108W        W52124  15.116   1.439   9.575 -0.1515  0.0711 -0.1498
 9109W        W52125  24.230   8.088   6.015 -0.0258 -0.1848  0.1610
 9110W        W52126  22.112  33.772   9.709 -0.1270 -0.1103  0.1032
 9111W        W52127  19.859  11.563   0.554 -0.0966  0.3142 -0.2102
 9112W        W52128   6.470   1.313  26.265  0.1310 -0.1421  0.1218
 9113W        W52129  10.346  21.579   6.714 -0.2515 -0.0890 -0.3097
 9114W        W52130  16.485  34.034   7.658 -0.2851 -0.0462 -0.0947
 9115W        W52131  11.577  32.481   1.077 -0.1539 -0.0715  0.1148
 9116W        W52132  21.027  15.838   6.736  0.3917  0.5272  0.3202
 9117W        W52133  33.277   6.858  22.516  0.1600  0.2597  0.1786
 9118W        W52134   8.011   2.940   9.335 -0.1692  0.1376  0.1142
 9119W        W52135  20.226  19.159   3.238 -0.3405 -0.2004  0.2568
 9120W        W52136  28.254   4.845   9.371  0.3054  0.0975 -0.0504
 9121W        W52137  21.450  33.382  10.333 -0.1179  0.2833  0.0186
 9122W        W52138  30.383  12.363  24.567 -0.0514 -0.1024  0.1386
 9123W        W52139  22.145   0.249  10.043  0.0799  0.4010 -0.3166
 9124W        W52140  32.508  34.548  22.333  0.2568  0.1475  0.0219
 9125W        W52141  33.336   3.582   9.199  0.0708  0.0028  0.2782
 9126W        W52142  10.239  30.626   3.183 -0.0450 -0.0673  0.1318
 9127W        W52143  16.618   1.055  25.899  0.3323  0.0754  0.1329
 9128W        W52144  23.100   4.189   0.409  0.1261 -0.0789 -0.0227
 9129W        W52145  19.964  16.864  28.933  0.0598  0.0046  0.1332
 9130W        W52146  29.974  13.962   6.520  0.0591 -0.0198  0.1075
 9131W        W52147  14.607  25.063  15.937  0.0285  0.1156  0.2145
 9132W        W52148   1.320   8.094  25.334 -0.1966 -0.0312 -0.3360
 9133W        W52149  11.093  28.570  23.508 -0.0403 -0.1058 -0.2726
 9134W        W52150   2.546   7.974   1.729  0.0395  0.0914 -0.0932
 9135W        W52151  22.982   2.275   9.128  0.0140  0.1457  0.1110
 9136W        W52152   7.124  30.722   9.376  0.0058 -0.3479  0.0955
 9137W        W52153  15.382   0.375   9.672  0.0513 -0.0309  0.0970
 9138W        W52154  27.339   6.714   7.927  0.3354 -0.1298  0.0739
 9139W        W52155  30.062  33.266   9.440 -0.1977 -0.0279  0.1747
 9140W        W52156  21.507   6.471   7.319  0.3831  0.1437 -0.0064
 9141W        W52157  25.795   3.526  23.344 -0.4200 -0.0239 -0.3224
 9142W        W52158  33.953   6.009  25.911  0.1720 -0.0221  0.1414
 9143W        W52159  34.496  29.902   0.473 -0.1292 -0.1200  0.1480
 9144W        W52160  23.603  23.052  22.910  0.2639 -0.0354  0.0492
 9145W        W52161  25.479   2.591  28.400 -0.0369  0.1204 -0.1422
 9146W        W52162  25.618   9.588  10.391  0.0584 -0.0657 -0.0635
 9147W        W52163  25.361   2.125  26.096  0.3703  0.2550  0.2826
 9148W        W52164  19.249  32.024  28.473 -0.2268  0.0409 -0.3028
 9149W        W52165  18.696   1.232   8.561  0.0649 -0.2497 -0.1537
 9150W        W52166  28.695  12.939   3.325  0.2040 -0.1786 -0.2158
 9151W        W52167   9.108  17.008   6.106  0.1341 -0.3104 -0.1212
 9152W        W52168  15.216  19.838  20.741  0.1666 -0.0515 -0.1512
 9153W        W52169   4.070   4.168   3.827 -0.1184 -0.1688  0.1025
 9154W        W52170  29.200  26.329  22.193  0.0684  0.3185 -0.0451
 9155W        W52171  19.196   2.648   9.266 -0.0501  0.1470  0.0973
 9156W        W52172  32.401  24.607   7.275  0.1506  0.2803 -0.1122
 9157W        W52173  14.230  32.382   8.158 -0.0084 -0.1087 -0.1535
 9158W        W52174  18.506   0.426  15.647 -0.0915  0.3984  0.0677
 9159W        W52175  27.460  29.172   7.432  0.0109  0.2330 -0.2842
 9160W        W52176  29.988  18.391  27.793  0.5939  0.1688 -0.3511
 9161W        W52177  13.187   7.496  29.022  0.0415  0.0220 -0.2484
 9162W        W52178  29.287   1.822   1.550  0.3009  0.2504 -0.0343
 9163W        W52179  31.198  31.913   6.709  0.1317  0.0591  0.2345
 9164W        W52180  23.793  25.249   5.333  0.0861  0.1289 -0.1030
 9165W        W52181   0.358  33.159   4.381  0.1894 -0.1579 -0.2453
 9166W        W52182  16.921  29.554   9.746 -0.0044  0.2738  0.1522
 9167W        W52183  20.684   0.402  26.214 -0.0199 -0.2127  0.1980
 9168W        W52184  27.729   5.492  28.041  0.1284 -0.2609 -0.1881
 9169W        W52185  13.113  22.153  22.093 -0.3940 -0.1044  0.3734
 9170W        W52186  27.989   7.437   6.402 -0.2320 -0.0820  0.0403
 9171W        W52187  22.268  34.092  11.068  0.0312  0.1449 -0.1079
 9172W        W52188  18.644   1.275   4.453  0.0870 -0.0697  0.1444
 9173W        W52189   4.406  13.257   3.734 -0.1946 -0.1911  0.0820
 9174W        W52190  16.197  13.297   5.083  0.2821  0.0974  0.0108
 9175W        W52191   5.442   1.671   2.645 -0.1931  0.2362 -0.1200
 9176W        W52192  14.765  17.018   4.664 -0.2125  0.0159 -0.4992
 9177W        W52193  18.426  21.675  22.822 -0.1854 -0.0113 -0.0208
 9178W        W52194  17.449  29.251   3.505  0.1145  0.1760  0.2370
 9179W        W52195  27.926  31.957  28.300 -0.4044  0.3405 -0.1344
 9180W        W52196  16.537  12.905  20.855  0.0333  0.1820  0.2547
 9181W        W52197  33.575  21.343  24.265  0.1460  0.0512 -0.3265
 9182W        W52198  28.046  26.351  26.121  0.3465  0.1089 -0.2393
 9183W        W52199  20.436   6.238  10.104 -0.0173  0.1088  0.2345
 9184W        W52200  26.897  25.337   0.993  0.0878  0.0099 -0.3850
 9185W        W52201  17.691   1.905   2.512  0.0075  0.2166  0.0789
 9186W        W52202  16.884  30.228   8.454 -0.1736  0.2602 -0.1548
 9187W        W52203  26.043   1.804  28.700  0.1501  0.1347 -0.2232
 9188W        W52204  19.928  24.104   6.540 -0.0647 -0.1316  0.0159
 9189W        W52205  22.340   6.956   1.884  0.0683  0.1017  0.0501
 9190W        W52206   2.039  28.410  14.433  0.1763 -0.0990 -0.0881
 9191W        W52207  22.020   4.466   0.321  0.4478  0.1135  0.2186
 9192W        W52208  27.260   6.284  17.402 -0.0993  0.2881 -0.2063
 9193W        W52209  30.877  33.014   9.029 -0.0624 -0.1982  0.1180
 9194W        W52210  19.866   1.955   5.651  0.2043 -0.0933  0.1290
 9195W        W52211  18.601  21.989  27.776 -0.4001  0.1612 -0.1801
 9196W        W52212  15.347  32.235   9.014 -0.1051  0.0036 -0.0533
 9197W        W52213  24.035  11.728   0.634 -0.1412  0.0459 -0.3972
 9198W        W52214  19.907   0.701  25.158  0.1717  0.1952 -0.3926
 9199W        W52215  11.468  22.668   4.387  0.0052 -0.2242 -0.0269
 9200W        W52216  13.111  14.076   7.136 -0.0002 -0.0885  0.1315
 9201W        W52217  24.610   0.584  11.704 -0.0870  0.2413  0.1576
 9202W        W52218  29.164  24.560   4.572 -0.1149  0.2796 -0.0578
 9203W        W52219   5.444  10.097   9.969 -0.2063 -0.4759 -0.0669
 9204W        W52220  31.671  12.571  17.042  0.0255 -0.0996 -0.5908
 9205W        W52221  18.953  33.116   6.071 -0.0918  0.0086 -0.1793
 9206W        W52222  23.859   3.766  23.126 -0.1981  0.0776  0.3498
 9207W        W52223  29.087   5.507   7.557  0.0995  0.0538 -0.0155
 9208W        W52224  26.039  21.117   4.246  0.3280  0.1817  0.2699
 9209W        W52225  31.464  24.100   0.267  0.2856  0.2263 -0.3806
 9210W        W52226   7.064   4.670  17.624 -0.0559  0.0786  0.1544
 9211W        W52227  15.019  15.637  21.337  0.0657 -0.3475  0.0509
 9212W        W52228   6.444  22.794   8.855 -0.0297  0.2667  0.0909
 9213W        W52229  14.019  13.082   6.445  0.0391 -0.4142  0.1899
 9214W        W52230  12.682  14.760   1.985  0.1732 -0.1138 -0.0548
 9215W        W52231  18.098   2.028  26.570 -0.0582 -0.0401  0.0657
 9216W        W52232  17.578  21.641  24.821 -0.1204  0.0800  0.0936
 9217W        W52233  15.523   4.234   0.011 -0.0482 -0.1042 -0.0659
 9218W        W52234  28.877  28.858  25.214  0.1941  0.0170 -0.3099
 9219W        W52235   3.929   8.802   8.671 -0.2927 -0.1452  0.1310
 9220W        W52236  19.800  10.713  24.071  0.0875  0.2069 -0.2205
 9221W        W52237  26.132   7.970  10.654 -0.0075  0.2435 -0.0355
 9222W        W52238  14.172   5.522  19.038 -0.1067  0.1157 -0.3710
 9223W        W52239  19.000   1.784  26.737 -0.1127 -0.1246  0.1061
 9224W        W52240   6.938  34.018  23.775 -0.1540  0.2885  0.1404
 9225W        W52241   6.513   0.615  28.798 -0.1866 -0.0696 -0.2623
 9226W        W52242  16.740   0.128  19.913  0.2214 -0.1989  0.2732
 9227W        W52243  33.065  13.106  18.769 -0.0735  0.1429  0.3770
 9228W        W52244  25.887   3.488   7.931  0.0330 -0.0325 -0.0135
 9229W        W52245  13.912   8.046   0.865 -0.2073  0.1340  0.1144
 9230W        W52246  25.244  25.898   6.138 -0.0670  0.2425 -0.0959
 9231W        W52247  22.831  33.749  10.370  0.1413 -0.0307  0.1834
 9232W        W52248  22.060  24.118   9.133  0.1378 -0.0654  0.1694
 9233W        W52249   9.982  12.703  14.151  0.0437 -0.0913 -0.0791
 9234W        W52250   9.365  15.208   7.846  0.0236  0.1676 -0.0526
 9235W        W52251  23.049  29.894   0.563 -0.1375  0.1864 -0.1474
 9236W        W52252  24.258  33.126  10.239  0.0662 -0.1071 -0.3190
 9237W        W52253  16.438  30.848   5.572  0.0968  0.2274  0.1163
 9238W        W52254  12.113  15.434  20.331 -0.0347  0.0285  0.0257
 9239W        W52255  29.833   4.469   5.499 -0.3173 -0.1217 -0.2458
 9240W        W52256  24.155  31.908  11.211  0.1889 -0.3488 -0.0818
 9241W        W52257  30.787  11.377   3.006 -0.0312  0.0981 -0.0315
 9242W        W52258  10.647   6.735   2.719 -0.0575 -0.0853 -0.1385
 9243W        W52259  34.376  34.753   9.250  0.0780 -0.1025 -0.3217
 9244W        W52260  31.540   8.245   7.989 -0.1540 -0.1081 -0.2039
 9245W        W52261  18.953   2.891   5.419 -0.3201  0.1750 -0.3070
 9246W        W52262  26.260  28.541  21.600 -0.1899  0.2639  0.2318
 9247W        W52263  14.304   5.423  26.174 -0.2706 -0.0415  0.0908
 9248W        W52264   5.421  10.480  20.008 -0.0539 -0.0068 -0.1883
 9249W        W52265  11.732   8.879   6.870  0.0783 -0.0144 -0.0917
 9250W        W52266  22.388  32.569   8.554 -0.3307  0.2050  0.1572
 9251W        W52267   3.071  13.279  28.037 -0.0086 -0.1817  0.4009
 9252W        W52268  34.035  18.802   4.267 -0.1415  0.0310 -0.1223
 9253W        W52269  10.392  31.602  21.698 -0.2178 -0.0085 -0.1180
 9254W        W52270  13.558  34.210   0.360  0.1624  0.3053  0.0763
 9255W        W52271  28.884   0.454   0.196  0.1304 -0.0829  0.0288
 9256W        W52272  22.041   3.188  23.012 -0.2093 -0.1143 -0.1851
 9257W        W52273  33.083  11.179  19.754 -0.7157  0.1010 -0.2680
 9258W        W52274  20.468  30.604   7.694  0.1024 -0.2688  0.2004
 9259W        W52275  17.607   0.112  28.737 -0.0700  0.0275 -0.0167
 9260W        W52276   6.838  28.915  21.620 -0.0156  0.0935  0.2886
 9261W        W52277  26.909  32.298  10.873  0.0350 -0.2881  0.2098
 9262W        W52278   6.054   4.989  29.076 -0.0734 -0.1053  0.0831
 9263W        W52279  25.779   9.202   0.875  0.1651 -0.1721  0.0902
 9264W        W52280  24.353  34.181   4.371  0.0720  0.2457 -0.2357
 9265W        W52281  26.251   1.015   5.993 -0.0270 -0.2010  0.1285
 9266W        W52282  27.313  15.952   9.548  0.1891 -0.1174 -0.1442
 9267W        W52283  18.874  16.474  22.544 -0.2992 -0.0437  0.0491
 9268W        W52284  29.005   2.503   7.446 -0.2301 -0.2167  0.1483
 9269W        W52285   9.243  30.366   3.794 -0.3731 -0.3590 -0.0878
 9270W        W52286  16.631  32.894  26.651  0.0372 -0.1449  0.0815
 9271W        W52287  15.008   7.265   1.684 -0.0541 -0.3897  0.0878
 9272W        W52288  30.616   7.807   3.336 -0.0162 -0.2441 -0.0725
 9273W        W52289  21.463  15.806  25.081  0.2063  0.0748  0.1522
 9274W        W52290  11.145  30.913   8.785 -0.0632  0.0503 -0.0844
 9275W        W52291   4.306   8.346   2.416 -0.2096 -0.1006 -0.4143
 9276W        W52292  21.033  27.041   5.767  0.0255 -0.1047 -0.0592
 9277W        W52293  18.392  34.513   2.655 -0.0001 -0.1935  0.0288
 9278W        W52294  23.414  11.453  19.798  0.1708 -0.3166  0.2945
 9279W        W52295  28.146  26.030  11.815  0.0145  0.3626 -0.5120
 9280W        W52296  14.999  18.661   3.209 -0.0577  0.1138  0.2271
 9281W        W52297  15.104  32.688   9.069 -0.4139 -0.0499 -0.0075
 9282W        W52298  30.153   3.346   8.339 -0.0312 -0.1656  0.2979
 9283W        W52299  19.458  11.800  28.111 -0.1619  0.0860  0.2320
 9284W        W52300  27.906   8.570  10.212  0.2612  0.2424  0.0009
 9285W        W52301  10.731  22.867   3.560 -0.0655 -0.1588 -0.2219
 9286W        W52302  11.043   1.573   5.016  0.0059  0.0524 -0.0800
 9287W        W52303  14.675  12.991  25.981  0.0595  0.2314  0.3616
 9288W        W52304  25.803   5.947  10.641 -0.1177 -0.4136  0.1338
 9289W        W52305  26.313  21.334   5.273 -0.0080  0.1113  0.4007
 9290W        W52306  16.877  30.036   7.523 -0.1705 -0.2754 -0.1983
 9291W        W52307  15.620   8.763   4.981 -0.1159 -0.1004 -0.0683
 9292W        W52308  17.108  26.010   6.114 -0.0612 -0.2934 -0.0764
 9293W        W52309  25.470  28.313  24.460  0.0375  0.0384  0.0427
 9294W        W52310  12.565   9.465   2.642  0.0711 -0.0771 -0.0006
 9295W        W52311   2.724  30.319  24.286  0.0235 -0.4275  0.2077
 9296W        W52312   5.094   5.959   1.469 -0.3252 -0.0309 -0.3702
 9297W        W52313  23.690  11.202   4.534 -0.0588  0.0345 -0.1225
 9298W        W52314  24.107   5.182   1.156  0.2385 -0.2489  0.1204
 9299W        W52315  15.119  11.921   1.801 -0.1565  0.0844 -0.0091
 9300W        W52316  20.423   2.865   3.972  0.2706 -0.0563 -0.1418
 9301W        W52317  15.733  14.730   7.487 -0.0108 -0.0669  0.1436
 9302W        W52318   0.796   4.010   8.617  0.0513  0.1237 -0.2307
 9303W        W52319  24.908   6.191   6.473  0.2836  0.1115  0.0357
 9304W        W52320  25.609   2.166   9.093  0.0055  0.0812  0.0124
 9305W        W52321  24.136   2.812  26.027  0.0914  0.0726  0.0821
 9306W        W52322  19.469  24.930   5.979  0.3223  0.0768  0.0502
 9307W        W52323  18.988  25.175   5.159 -0.1667  0.1301 -0.2673
 9308W        W52324  13.682  28.449   5.582  0.1169 -0.2808  0.1737
 9309W        W52325  11.442   5.102   4.613  0.3363  0.3606  0.1016
 9310W        W52326  22.434   2.105  20.442  0.3147  0.0613 -0.0419
 9311W        W52327  19.129  31.221  25.581  0.0554 -0.5225  0.0351
 9312W        W52328  15.167   2.384   1.108 -0.0519  0.1699 -0.1455
 9313W        W52329  31.257  10.864   5.772  0.0976 -0.0180  0.2490
 9314W        W52330  26.363  13.247   8.939  0.0221 -0.2505 -0.1605
 9315W        W52331  12.967   0.728   4.255 -0.1695  0.0743 -0.0395
 9316W        W52332  12.689  32.716   8.248  0.0973  0.0590 -0.2864
 9317W        W52333  26.306  13.767   7.955  0.1480 -0.0221 -0.3794
 9318W        W52334  12.784  33.882  21.157 -0.0514 -0.0411  0.0615
 9319W        W52335  23.748   7.950  10.820  0.0358 -0.4334 -0.1762
 9320W        W52336  19.809   7.647   6.309  0.3970 -0.0036  0.1676
 9321W        W52337  25.896   5.567  11.007  0.0203  0.2015  0.2108
 9322W        W52338  23.011  29.088   5.363  0.1293 -0.0081  0.1010
 9323W        W52339  22.207  33.822   7.514 -0.1470 -0.2466 -0.1425
 9324W        W52340   3.801  26.559   2.424  0.2882  0.1150  0.0890
 9325W        W52341  22.026  31.393   3.742 -0.2765 -0.1899  0.4726
 9326W        W52342  26.925  30.731   4.030  0.2403 -0.3706 -0.1970
 9327W        W52343  19.546   9.443   3.278 -0.1178  0.0881  0.0639
 9328W        W52344   0.427  14.556  11.065  0.3754  0.2478 -0.1734
 9329W        W52345  18.804  28.009   2.923  0.0962 -0.2480  0.3031
 9330W        W52346  22.772  29.632   8.918 -0.0052 -0.0971 -0.1574
 9331W        W52347  16.905  10.961   8.852 -0.4902  0.1397  0.1549
 9332W        W52348   3.401   0.632  26.053 -0.3383 -0.0670  0.2288
 9333W        W52349  23.887  33.402   8.219 -0.0482 -0.0275  0.2715
 9334W        W52350  15.523  28.642   9.140 -0.2203  0.0215  0.0147
 9335W        W52351  15.177   0.981   3.300 -0.2121  0.1195  0.2105
 9336W        W52352  18.501   8.279   1.740  0.6202 -0.0273  0.2388
 9337W        W52353   2.713  16.496  29.212  0.2254  0.0955  0.1573
 9338W        W52354  14.265  13.546   6.539  0.0305  0.1506 -0.1578
 9339W        W52355  18.396  10.492  16.807  0.1301  0.2396 -0.1989
 9340W        W52356  13.072   4.335   3.323 -0.2490 -0.1874 -0.0173
 9341W        W52357   1.368   1.107   1.842 -0.0262  0.3050 -0.1871
 9342W        W52358  28.202   7.945   9.663 -0.1591 -0.0538 -0.0409
 9343W        W52359  27.986  19.926  26.399  0.1688  0.1090  0.0801
 9344W        W52360   5.871  20.423   1.731  0.0260 -0.0251  0.0035
 9345W        W52361  17.435   5.283  26.845 -0.2015 -0.0179  0.0820
 9346W        W52362  14.074  33.945  26.811 -0.2884  0.1229 -0.4676
 9347W        W52363  16.217   4.481   6.666 -0.2242 -0.2035 -0.2360
 9348W        W52364  27.273   5.034  26.816 -0.0203 -0.0386  0.0933
 9349W        W52365  21.646  12.642   3.159  0.1193  0.0724 -0.1927
 9350W        W52366  12.179  31.067  28.041 -0.0137  0.3484 -0.1319
 9351W        W52367   9.656  31.050   9.031  0.0979 -0.1095  0.2383
 9352W        W52368  18.233  22.228  26.867 -0.0609  0.0626  0.2571
 9353W        W52369  33.058   8.748   0.268  0.0981  0.2478 -0.1168
 9354W        W52370  32.237  12.419   7.394 -0.3746 -0.2501 -0.2068
 9355W        W52371  20.899  30.961   3.353  0.0123 -0.1308 -0.2081
 9356W        W52372  23.200   9.528   6.292 -0.0949  0.2182  0.0677
 9357W        W52373  24.730  13.248   4.861 -0.3610  0.2752  0.0988
 9358W        W52374  32.906  31.181   6.448 -0.2765  0.4283  0.0917
 9359W        W52375  27.689   0.580  26.171 -0.3231 -0.1281  0.3091
 9360W        W52376  17.297   7.978   5.212  0.0955  0.1959  0.2487
 9361W        W52377  21.308  14.383  22.838 -0.0427  0.0212 -0.1562
 9362W        W52378  15.406   9.839   1.703 -0.1034  0.0849  0.0760
 9363W        W52379  12.699   3.454  10.348  0.0828  0.0522  0.1090
 9364W        W52380  17.363  17.878   5.613 -0.0677 -0.4301  0.0265
 9365W        W52381  22.543  18.076  26.019  0.1885  0.0038 -0.1969
 9366W        W52382  24.660  33.270  11.617  0.2310  0.0557 -0.1095
 9367W        W52383   4.185  10.774   5.060  0.0576  0.0214 -0.1357
 9368W        W52384  16.068  29.566   2.144 -0.2592 -0.0528  0.0990
 9369W        W52385  20.949  16.274  19.944 -0.1211 -0.0809 -0.1514
 9370W        W52386  20.770  24.291   6.219  0.2646  0.1976  0.0488
 9371W        W52387  20.711  26.139   2.086 -0.0592 -0.0006 -0.0337
 9372W        W52388  26.705  13.538  24.684 -0.1599  0.0587  0.1483
 9373W        W52389   6.211  29.849  10.324 -0.0541  0.2167  0.0453
 9374W        W52390  16.020  12.850  25.821  0.1772 -0.0384 -0.2769
 9375W        W52391   3.953   4.011   1.236 -0.2839  0.0041 -0.0154
 9376W        W52392  20.851  11.908  18.234  0.1329  0.0195  0.0555
 9377W        W52393  23.577  20.289   6.847 -0.2407 -0.0400 -0.0737
 9378W        W52394   9.550   6.705   9.658 -0.1069 -0.0461  0.1320
 9379W        W52395  18.863  10.903  18.802  0.0114  0.0235 -0.0700
 9380W        W52396  15.822   3.921  27.855  0.1419  0.1179  0.0234
 9381W        W52397  25.577   1.574   9.668 -0.3016 -0.1122  0.1331
 9382W        W52398  16.336  32.777   9.777 -0.1173  0.2226 -0.2309
 9383W        W52399  26.768  10.929  26.904 -0.0074  0.0091 -0.2127
 9384W        W52400  23.328  12.072  25.195 -0.3210 -0.0326  0.4255
 9385W        W52401  31.516  30.993   1.497  0.4539  0.1697 -0.1879
 9386W        W52402  19.425   7.895   1.601  0.0786 -0.2511  0.1904
 9387W        W52403  26.264   4.664  10.997  0.1338  0.3664  0.3839
 9388W        W52404  13.918   5.654   2.678  0.1629 -0.2668 -0.0681
 9389W        W52405  29.683  34.443   3.725  0.0784 -0.1768  0.2166
 9390W        W52406  21.577  26.813  24.361 -0.2777  0.0937 -0.0754
 9391W        W52407  30.941  11.096  27.605  0.0691  0.2497 -0.0018
 9392W        W52408  18.508  29.807  29.077  0.0176  0.0680  0.0402
 9393W        W52409  34.019   0.564  22.535  0.2779  0.0188  0.2268
 9394W        W52410  18.180  24.838   0.686  0.0990  0.3691 -0.1502
 9395W        W52411  28.880   3.091   5.164 -0.2259  0.1436 -0.2373
 9396W        W52412   3.358   0.339   7.180  0.1070  0.2632  0.1193
 9397W        W52413  19.878  16.320   7.655  0.1093  0.0481  0.0088
 9398W        W52414  18.600  22.920  27.798 -0.3937  0.1057 -0.3290
 9399W        W52415   3.641   6.782   2.566  0.0921 -0.0870 -0.0546
 9400W        W52416  17.963  31.317  23.371 -0.0560 -0.0368 -0.0825
 9401W        W52417  33.435   9.820   0.411 -0.3124  0.0838 -0.0853
 9402W        W52418  14.148   8.215   1.749  0.3550  0.0704  0.2178
 9403W        W52419  21.641  33.608   0.708 -0.0020 -0.1081 -0.1623
 9404W        W52420  22.003   5.132  24.285 -0.1612  0.1389  0.1745
 9405W        W52421  18.436   4.785   8.795  0.1782  0.0634 -0.2202
 9406W        W52422  28.953  28.589  19.017  0.2159  0.2860 -0.3842
 9407W        W52423  21.408   1.692   5.137  0.2922 -0.1922 -0.2180
 9408W        W52424  29.975  13.238  27.002  0.2013  0.1373 -0.0269
 9409W        W52425   9.457  16.954   3.128 -0.1042  0.1131  0.0566
 9410W        W52426  24.670   5.731  24.891 -0.1285  0.0682  0.0416
 9411W        W52427  26.121  33.952   0.471  0.3169 -0.1086  0.1391
 9412W        W52428   4.662   8.165   0.806 -0.2999  0.1210  0.2982
 9413W        W52429  22.719  20.060  28.120  0.0998 -0.2611  0.1528
 9414W        W52430  16.323   4.416   7.292 -0.0956 -0.1751 -0.2804
 9415W        W52431  22.095  20.830   2.659  0.0809 -0.0333 -0.2603
 9416W        W52432  17.356  28.421   1.911 -0.3196  0.3600  0.1849
 9417W        W52433  13.724  32.781   1.063  0.0724  0.0064 -0.1157
 9418W        W52434  28.702   5.177   4.670 -0.1867  0.0925  0.2092
 9419W        W52435   8.134   6.500   5.275  0.1112  0.0462  0.2000
 9420W        W52436  21.982  14.997   5.160  0.1636  0.1156  0.0485
 9421W        W52437  30.721  11.927   4.929  0.2380 -0.1313 -0.1858
 9422W        W52438  11.096   0.176   7.078 -0.1772 -0.1484 -0.1069
 9423W        W52439   9.792  25.929  28.974  0.1053  0.0529  0.0619
 9424W        W52440  21.854  19.965   5.405 -0.2008  0.1867 -0.1789
 9425W        W52441   0.899  30.125   8.740 -0.3287 -0.0458  0.0746
 9426W        W52442  25.056  13.961  21.747 -0.0852  0.1496  0.1036
 9427W        W52443   8.011  28.310   9.837 -0.3227 -0.2915 -0.2018
 9428W        W52444  28.709  10.699   2.618 -0.1142  0.2140 -0.2050
 9429W        W52445  16.138  10.976   6.114 -0.1113 -0.1331  0.1994
 9430W        W52446  31.989  32.442   8.344 -0.5033  0.0347 -0.0826
 9431W        W52447  27.644   5.067  28.238  0.0044  0.2118  0.0062
 9432W        W52448   4.613  12.194   3.182  0.0235 -0.2268 -0.0471
 9433W        W52449  24.613  22.583   8.757  0.1958  0.1703 -0.0090
 9434W        W52450  28.595  10.223  27.441 -0.0255 -0.0240 -0.4299
 9435W        W52451  13.853  13.255   5.582 -0.1219  0.1322  0.1701
 9436W        W52452  19.140  20.973   4.786  0.1896 -0.2346 -0.2938
 9437W        W52453  10.988  34.318  27.239  0.0339 -0.0291  0.1742
 9438W        W52454  21.938   5.134  20.367 -0.0100  0.1087  0.1045
 9439W        W52455  22.315  10.526   6.451 -0.2461 -0.0996  0.1873
 9440W        W52456  20.856   2.623   3.883  0.2696 -0.0422  0.4195
 9441W        W52457  33.303   4.590  10.840 -0.0917 -0.1248  0.0298
 9442W        W52458  31.548   4.918  23.838 -0.2683  0.0550 -0.0645
 9443W        W52459  14.467   7.941   8.502 -0.0328 -0.0658 -0.0717
 9444W        W52460  27.330   7.445   3.966 -0.2874 -0.4324 -0.2506
 9445W        W52461  18.797   7.223   8.422 -0.0886  0.4331  0.1303
 9446W        W52462   0.842   0.776   8.361  0.0923 -0.3361  0.0241
 9447W        W52463  16.120   4.967   5.960  0.0946  0.2261  0.0863
 9448W        W52464  23.503  34.022  27.406  0.0007  0.1822 -0.0151
 9449W        W52465  15.933  27.607   8.428  0.2736 -0.1094 -0.1215
 9450W        W52466  13.979   2.789  29.311  0.0359 -0.1664  0.2047
 9451W        W52467   7.269  13.251   8.528  0.0107  0.1664 -0.1853
 9452W        W52468   8.586  29.208   2.700 -0.1515 -0.1437  0.1032
 9453W        W52469  26.293   0.470  26.152  0.1111  0.1313  0.0017
 9454W        W52470   8.569   5.408   5.941  0.2002  0.0205  0.2468
 9455W        W52471  27.165  22.352   6.361 -0.2600  0.0367  0.1954
 9456W        W52472  26.516  15.567  25.575  0.2306  0.0942  0.1842
 9457W        W52473   0.848  31.778   6.251 -0.0657 -0.3124 -0.1165
 9458W        W52474  26.202  33.361   4.319 -0.0357  0.1339  0.1509
 9459W        W52475  30.598  28.573  11.881  0.3837 -0.0553 -0.2037
 9460W        W52476  26.034   1.024   7.916  0.3236  0.0626 -0.0882
 9461W        W52477  18.489  29.451   2.442  0.4988  0.1530 -0.1191
 9462W        W52478  27.813   7.223   6.873  0.0656  0.2387 -0.2786
 9463W        W52479  20.702  16.989   0.113 -0.1455  0.1265 -0.1675
 9464W        W52480   2.322   3.636   2.421 -0.0707 -0.0881  0.2180
 9465W        W52481  22.797   8.992   6.754  0.0504  0.2497  0.2705
 9466W        W52482  27.983  30.077   1.625  0.2693  0.1537  0.0532
 9467W        W52483  34.418  13.931   8.999 -0.0143  0.2153  0.2308
 9468W        W52484  25.046  33.243   5.239 -0.0373  0.0021  0.1082
 9469W        W52485  16.982  10.000  28.526 -0.0991  0.1097 -0.0636
 9470W        W52486  18.879  10.589  28.478  0.0145 -0.1598 -0.0476
 9471W        W52487   0.306   7.776   3.469 -0.0475 -0.0902 -0.0807
 9472W        W52488   0.798  18.672   3.837  0.0887  0.0311 -0.1290
 9473W        W52489  25.597  13.785   8.549 -0.0205  0.2471  0.1370
 9474W        W52490   9.242  25.886   9.037  0.0552 -0.1431  0.1261
 9475W        W52491  19.753  31.904  10.223 -0.1092 -0.0130 -0.2681
 9476W        W52492  18.054   9.367  28.761 -0.0202 -0.1871  0.2442
 9477W        W52493  10.431  21.438  20.338 -0.2465 -0.1743 -0.4641
 9478W        W52494  22.438   8.298  25.249 -0.0033 -0.1433  0.0009
 9479W        W52495   2.872  30.734   9.765 -0.0391  0.0963  0.0383
 9480W        W52496  21.864  19.380  24.087  0.0721 -0.1096 -0.1335
 9481W        W52497  23.292  14.825  26.183 -0.0834 -0.1676 -0.0875
 9482W        W52498  14.899  25.792   1.447 -0.3899 -0.6783 -0.1448
 9483W        W52499  23.061   5.468   4.605 -0.2473  0.2679  0.1483
 9484W        W52500   6.948  28.827   7.730  0.0285  0.2220  0.1948
 9485W        W52501   6.738   6.113   9.599  0.1943 -0.2886  0.2531
 9486W        W52502  21.206   1.016   8.417 -0.0882 -0.2373 -0.1928
 9487W        W52503  18.923   0.613   1.610 -0.0454 -0.1081 -0.0420
 9488W        W52504  22.650   2.538   9.425 -0.1145 -0.3634  0.1635
 9489W        W52505  20.091   8.486   0.318 -0.0034 -0.1661 -0.1308
 9490W        W52506  32.088  19.211   7.202 -0.1448  0.2128 -0.1858
 9491W        W52507  12.851   0.688   4.811 -0.1195 -0.0839  0.1328
 9492W        W52508  22.675  19.469   1.689  0.2388 -0.1972  0.0826
 9493W        W52509  13.791  16.488   2.942 -0.1199  0.2613 -0.1183
 9494W        W52510  25.868  13.053   0.929 -0.0335  0.0943 -0.2199
 9495W        W52511  26.116  22.406  26.225  0.2490 -0.2844  0.0671
 9496W        W52512  16.074  13.502   6.661  0.0902 -0.0490 -0.1539
 9497W        W52513   7.438   5.579   0.124  0.4317 -0.0786  0.1622
 9498W        W52514  20.042  23.888   5.349 -0.1558 -0.2972  0.0581
 9499W        W52515  14.251  34.411  26.085 -0.0519  0.1641  0.1413
 9500W        W52516   5.940  10.064   7.109 -0.3238  0.1568 -0.2005
 9501W        W52517  18.149  28.471   5.133 -0.1851  0.0926  0.0624
 9502W        W52518  11.743  32.349  27.875  0.0525 -0.1733 -0.0042
 9503W        W52519  28.095  33.045   1.548  0.0866  0.0875 -0.1877
 9504W        W52520  19.373   9.642   0.810  0.0917  0.2223 -0.1022
 9505W        W52521  23.141  27.327   8.495 -0.2049 -0.2846  0.0899
 9506W        W52522  28.336  22.412   3.918  0.1978  0.0608 -0.1222
 9507W        W52523  12.891  30.258   4.936 -0.1665  0.1467  0.0791
 9508W        W52524  24.463   5.875   0.390 -0.1338 -0.1477 -0.0288
 9509W        W52525  12.023   5.336   2.527 -0.0381 -0.0642 -0.0985
 9510W        W52526  19.887  34.710   8.097  0.1750  0.2294  0.0834
 9511W        W52527  31.748  32.649   6.943 -0.0894  0.0445 -0.0513
 9512W        W52528   4.743   6.090   1.019  0.0118  0.0529  0.1669
 9513W        W52529  22.122   3.699   4.170  0.0887 -0.1108  0.2468
 9514W        W52530  20.805  12.654  23.597  0.3406 -0.2674 -0.1555
 9515W        W52531  22.546  18.206   1.640 -0.1486  0.1563 -0.0169
 9516W        W52532  18.154   3.286   2.584  0.2880  0.2035  0.3833
 9517W        W52533  18.316  34.395   6.324  0.3086 -0.2677 -0.0635
 9518W        W52534  15.861   3.644   4.718  0.2388 -0.1072 -0.1232
 9519W        W52535   2.624  13.620   9.451 -0.0197  0.0364 -0.0305
 9520W        W52536  17.281  12.769  27.129  0.1614 -0.0471 -0.2788
 9521W        W52537  21.801   1.730   1.656  0.1790 -0.2014 -0.0545
 9522W        W52538  21.400  23.652   5.242 -0.1632  0.1984  0.3467
 9523W        W52539   9.512   2.021   1.999 -0.1065 -0.1348 -0.0705
 9524W        W52540  28.145  21.104   2.054 -0.3680 -0.0379  0.1574
 9525W        W52541  34.756  29.719   7.449  0.0011 -0.2932  0.0764
 9526W        W52542  10.733   2.363   3.392 -0.0815  0.1571 -0.0436
 9527W        W52543  29.678  20.665  28.469  0.0545 -0.1969 -0.0839
 9528W        W52544   8.861  10.024   8.001 -0.1250  0.0083  0.0368
 9529W        W52545   1.119   2.479   2.268 -0.0368 -0.0567  0.2423
 9530W        W52546  11.876   5.893  25.530 -0.1009 -0.1259 -0.1145
 9531W        W52547  24.579   1.755   2.320  0.2978 -0.1014 -0.1184
 9532W        W52548   6.665   0.968  29.252 -0.4967  0.0840 -0.0810
 9533W        W52549  20.649   2.107  23.240  0.2956  0.0581  0.0349
 9534W        W52550   8.847  15.193   2.954 -0.1762 -0.1651  0.5915
 9535W        W52551  22.963   4.812   5.108 -0.1526  0.2467 -0.1306
 9536W        W52552  25.112  23.099  18.329  0.0669  0.0826  0.1085
 9537W        W52553   0.752   3.604   3.662  0.0687 -0.3107  0.0042
 9538W        W52554  25.742  31.988   9.037  0.0076  0.0406  0.0709
 9539W        W52555  29.533   5.209   4.152  0.1424  0.3333 -0.0362
 9540W        W52556  23.036   7.345   4.503 -0.0527  0.0016  0.1166
 9541W        W52557  30.994  25.876   7.625  0.3435  0.2499 -0.0489
 9542W        W52558   9.430   8.011   1.592  0.2260 -0.1280  0.2568
 9543W        W52559   5.841  33.695   6.353 -0.2232 -0.1880 -0.3101
 9544W        W52560  12.091   3.837   6.812 -0.2015  0.0125  0.3524
 9545W        W52561  15.275  15.273   2.462  0.0742 -0.0237  0.2444
 9546W        W52562   0.150   1.120   4.355  0.3924 -0.2411  0.0490
 9547W        W52563   9.053  30.447   4.757  0.0512  0.0420  0.2359
 9548W        W52564  22.728  21.177  24.637 -0.0111  0.1505 -0.3501
 9549W        W52565  21.341  32.219   7.507  0.1022  0.1317  0.1178
 9550W        W52566  30.474   6.392   6.645  0.1592 -0.2706 -0.0300
 9551W        W52567  10.921   4.957   1.835 -0.0067  0.2483  0.2101
 9552W        W52568  32.406  21.965   2.260  0.0725 -0.0867  0.1154
 9553W        W52569  18.110  22.815   7.454 -0.1570 -0.1187 -0.0975
 9554W        W52570  14.683  20.496  26.696  0.0746  0.1242 -0.1475
 9555W        W52571  12.812   4.232   9.312 -0.0527 -0.0140  0.1747
 9556W        W52572  24.770  14.466   3.572  0.0601 -0.0503 -0.0428
 9557W        W52573  24.622  10.144  16.155  0.2889  0.0601  0.3268
 9558W        W52574   9.134  33.251  10.288  0.0939  0.2528  0.2019
 9559W        W52575  25.742  22.004   7.239 -0.0551  0.2643 -0.0915
 9560W        W52576  22.038  19.808  20.501  0.3724  0.1780  0.0427
 9561W        W52577  32.314  31.468   7.344  0.1372 -0.1244 -0.0308
 9562W        W52578  28.488  13.336   8.577 -0.0472  0.1733 -0.1306
 9563W        W52579  24.224  15.996   6.191 -0.2245  0.1963  0.1897
 9564W        W52580  27.224   0.835   0.725  0.1794 -0.0412  0.2415
 9565W        W52581  10.201  34.767   8.122  0.4033 -0.1056  0.1166
 9566W        W52582  21.200  33.981   2.102 -0.3440 -0.0169 -0.1585
 9567W        W52583   4.898  10.126   6.158  0.1871  0.1063  0.1170
 9568W        W52584  12.207  29.935   8.722  0.1084  0.1699 -0.0894
 9569W        W52585   6.152   0.675   8.957  0.0673 -0.1698 -0.0160
 9570W        W52586  13.900   3.854  25.559 -0.0818  0.0347 -0.1415
 9571W        W52587  20.794  28.775  27.765  0.1446  0.0844  0.0352
 9572W        W52588  22.975  31.700   7.083  0.0082 -0.0019 -0.1666
 9573W        W52589  22.662  27.994   9.140 -0.0990  0.0613  0.0328
 9574W        W52590   3.780  33.021   1.830  0.3354  0.2912 -0.0308
 9575W        W52591  10.853   2.015   8.603  0.1591  0.1425  0.1954
 9576W        W52592  28.420  12.543  18.016 -0.2085  0.3990  0.1179
 9577W        W52593   8.425   4.566  24.785 -0.1931  0.0286 -0.1303
 9578W        W52594  11.469  30.022   6.626 -0.1151 -0.0270 -0.1333
 9579W        W52595  30.717   9.050  11.102 -0.2046  0.0466  0.0002
 9580W        W52596  16.265  18.934  24.649 -0.3324 -0.0177 -0.1061
 9581W        W52597  26.476   1.384   9.830  0.0715  0.0479 -0.1802
 9582W        W52598  30.709   9.826   3.924 -0.1547  0.1262 -0.1214
 9583W        W52599  25.965  32.641   8.127 -0.3849  0.2522  0.0113
 9584W        W52600  17.844  31.632   7.243 -0.0487  0.2907 -0.1716
 9585W        W52601  16.570  18.920   1.107  0.2280 -0.3124 -0.2059
 9586W        W52602   9.731  14.862  27.399 -0.3196 -0.0093  0.3978
 9587W        W52603  26.377  30.522   6.420  0.0428  0.0206 -0.0706
 9588W        W52604  22.148   0.549  25.634  0.0583 -0.3641 -0.2389
 9589W        W52605  28.664  30.510   6.721 -0.1935 -0.0655  0.3296
 9590W        W52606  13.159   8.307   6.945  0.1002 -0.0033  0.1345
 9591W        W52607  16.328   7.903   4.800  0.0054 -0.2852  0.5719
 9592W        W52608  32.412   6.295  18.513 -0.0899 -0.4983 -0.2035
 9593W        W52609  30.039  11.753   2.152  0.0989 -0.1063  0.3494
 9594W        W52610  18.535  10.003   5.413 -0.2257 -0.0152 -0.2790
 9595W        W52611  19.873   4.599   5.193 -0.1045 -0.1784 -0.1025
 9596W        W52612  10.372   5.646   9.484 -0.0084  0.4793 -0.0114
 9597W        W52613  19.351  14.526  19.631 -0.1097  0.1008  0.2074
 9598W        W52614   7.659  17.364  26.933 -0.0319 -0.0085 -0.3953
 9599W        W52615  17.865  29.462  15.538  0.1397  0.0926 -0.0053
 9600W        W52616  10.934  13.603  23.027 -0.0312 -0.4160 -0.2328
 9601W        W52617  11.853  14.333  17.938  0.0655  0.0050  0.0858
 9602W        W52618  26.003  33.913   3.707  0.1142 -0.1052  0.1893
 9603W        W52619  22.146  14.030   3.174 -0.1899  0.1121  0.0715
 9604W        W52620  30.755   5.407  18.124  0.0573 -0.1011  0.2954
 9605W        W52621  19.155  21.107  29.246 -0.2425 -0.0219  0.0940
 9606W        W52622  29.334   9.933   4.499  0.0956  0.0459 -0.3168
 9607W        W52623  23.746   0.280  11.696 -0.0604 -0.2253 -0.3092
 9608W        W52624  19.978  33.701   2.961  0.3110  0.1314 -0.0437
 9609W        W52625  12.055  33.673  28.922 -0.0120 -0.0381 -0.3156
 9610W        W52626   9.079  10.835   9.139 -0.0312 -0.0081 -0.1050
 9611W        W52627  21.155   8.669   6.732 -0.0821 -0.1193 -0.1918
 9612W        W52628  17.738  11.662  13.291 -0.3617 -0.3419 -0.0355
 9613W        W52629   3.385  16.743  16.531  0.0386  0.0314  0.0462
 9614W        W52630  34.711   2.173   7.860 -0.1077  0.0479 -0.0555
 9615W        W52631  17.246  18.759  24.832  0.0673  0.2530 -0.1177
 9616W        W52632  25.371   7.897  22.422 -0.0603  0.1606  0.0455
 9617W        W52633  12.921   0.215   6.734 -0.2671  0.2208  0.2304
 9618W        W52634  13.822   2.338   7.989 -0.1511  0.2302  0.1345
 9619W        W52635  19.461  34.253  20.195 -0.2325  0.0476  0.0384
 9620W        W52636  18.778  30.621  19.365 -0.2096 -0.1487 -0.0095
 9621W        W52637  24.189   0.029  25.767  0.1599 -0.0746  0.0313
 9622W        W52638  24.889  25.063   3.786  0.2832  0.0075  0.0099
 9623W        W52639  28.022  11.323  22.864  0.0363  0.0408  0.2289
 9624W        W52640  21.440  28.466   6.147 -0.1010 -0.1653 -0.2117
 9625W        W52641  32.275   3.053   7.258 -0.5402 -0.2406 -0.0876
 9626W        W52642  15.467   4.025  23.689  0.0516 -0.1079 -0.1132
 9627W        W52643  16.669   5.803   2.768 -0.0188 -0.2072  0.0123
 9628W        W52644  33.969  24.859   3.403  0.0011  0.1084 -0.0567
 9629W        W52645  18.596  27.823   9.072 -0.2410  0.0371  0.0929
 9630W        W52646  21.563   9.990   7.007 -0.1945 -0.4061  0.0175
 9631W        W52647  31.793   1.810  23.301  0.1227 -0.1877 -0.0327
 9632W        W52648  34.748  33.018  10.086  0.0732 -0.2779  0.1810
 9633W        W52649  21.186   4.382   7.480 -0.2014  0.0838  0.2354
 9634W        W52650  26.814   1.738  19.190  0.0378 -0.1390  0.1485
 9635W        W52651  24.768   1.995  18.178  0.2119 -0.1944  0.2823
 9636W        W52652  16.413  21.004   1.448  0.2892  0.0264 -0.0243
 9637W        W52653  28.053  13.951  28.056  0.3586  0.2406  0.1335
 9638W        W52654  15.906  18.897  22.858 -0.0720  0.1550 -0.2076
 9639W        W52655  30.781  10.813  28.520 -0.0202 -0.0221  0.1062
 9640W        W52656  32.928  20.550   8.195  0.0824 -0.0101 -0.2028
 9641W        W52657   2.135  19.460  22.035 -0.1451  0.1666 -0.0466
 9642W        W52658  15.051   7.414   3.946 -0.0488 -0.0504  0.4290
 9643W        W52659  22.361   2.838  10.383 -0.0207 -0.2629  0.0281
 9644W        W52660   2.387  31.543   6.583 -0.1029  0.2479 -0.0989
 9645W        W52661  30.848  32.834  16.515 -0.1616 -0.1453 -0.0242
 9646W        W52662   2.099  17.977  23.175 -0.0989  0.0374 -0.1249
 9647W        W52663  23.652   6.667   2.350  0.2984 -0.3841 -0.1544
 9648W        W52664  13.289  31.929   1.302 -0.0863 -0.1876  0.2238
 9649W        W52665  21.057  23.122  27.723 -0.1703 -0.0577 -0.2504
 9650W        W52666   8.858   1.681   2.581  0.3143  0.0524  0.2054
 9651W        W52667  10.546  32.011   5.184  0.0495  0.0036  0.1228
 9652W        W52668  27.945  26.870   6.096  0.2817  0.1198  0.2095
 9653W        W52669  13.825   8.023   2.156 -0.1579 -0.0651 -0.1122
 9654W        W52670  26.804  26.154   2.297  0.0512  0.2304  0.3205
 9655W        W52671  32.530   4.146   9.854  0.1614  0.3087  0.0090
 9656W        W52672  18.646   1.114  25.253 -0.2942 -0.1337 -0.0453
 9657W        W52673  31.221  21.226   5.228  0.2798 -0.3565  0.2741
 9658W        W52674  15.431  30.282  27.038 -0.1343 -0.1089 -0.2647
 9659W        W52675  24.643  25.457   3.861 -0.2406  0.1414 -0.1366
 9660W        W52676  10.508  34.719  28.706  0.1218 -0.0708  0.2126
 9661W        W52677   6.867  14.434   3.147  0.0667 -0.5193  0.0894
 9662W        W52678  25.658  28.546   2.225 -0.1599  0.1121  0.0801
 9663W        W52679  16.980   2.377   5.459  0.1152  0.2482  0.2078
 9664W        W52680   5.716   4.024   4.351  0.1124  0.3331 -0.0745
 9665W        W52681   8.069  32.610   2.527 -0.4947 -0.1908 -0.2431
 9666W        W52682   1.312  33.739   9.311 -0.3957 -0.0333 -0.0019
 9667W        W52683  25.532   1.810   0.974 -0.1250  0.1306  0.2856
 9668W        W52684  13.503   4.275  27.589  0.0768 -0.0372 -0.1829
 9669W        W52685  28.182   9.967  27.142  0.3256 -0.0120  0.0720
 9670W        W52686  15.910  15.641  22.265  0.0430  0.1277  0.0128
 9671W        W52687  15.177  25.508   9.230  0.0854  0.2153 -0.1435
 9672W        W52688  32.414  32.382   8.054 -0.0457  0.1942 -0.0037
 9673W        W52689   6.001  24.062   1.426  0.1711 -0.0602  0.0961
 9674W        W52690  28.235   8.193  24.174 -0.1966 -0.0911 -0.0960
 9675W        W52691   1.882   5.774   1.854  0.1601 -0.0961 -0.2970
 9676W        W52692  20.903  31.328  26.028 -0.0413  0.0416 -0.2883
 9677W        W52693  31.677   3.549   9.639 -0.0701 -0.1074 -0.2346
 9678W        W52694  13.495  24.795   1.064 -0.0927 -0.0701 -0.0126
 9679W        W52695  33.742   8.001  27.549 -0.2115 -0.0146  0.2875
 9680W        W52696  19.179  22.474  21.623 -0.0458  0.1457  0.0935
 9681W        W52697   9.985   9.042   3.050 -0.0945  0.0471 -0.2810
 9682W        W52698  21.210  28.774  21.465 -0.5855  0.0828  0.0772
 9683W        W52699   4.049   9.347   7.708 -0.1283  0.4197 -0.1330
 9684W        W52700   5.717   9.745  14.844  0.3384  0.2277  0.2318
 9685W        W52701  10.337  32.048   0.391  0.1361 -0.0580  0.0140
 9686W        W52702   3.161   6.475  24.151 -0.1329  0.1701  0.0435
 9687W        W52703  11.645  19.141   0.182 -0.1239 -0.0088  0.2047
 9688W        W52704  28.475  10.564   6.641 -0.0866 -0.0607 -0.1788
 9689W        W52705  16.629  29.589   5.960  0.0700  0.2212  0.2491
 9690W        W52706  24.699  18.873   9.182 -0.0721 -0.2088 -0.2575
 9691W        W52707  28.356  25.846  11.431  0.2001  0.1412 -0.1396
 9692W        W52708  13.595   2.652  27.393  0.1360 -0.0456  0.0376
 9693W        W52709   5.112  15.699  25.257  0.0724 -0.0297 -0.0748
 9694W        W52710  20.788  28.444   3.812 -0.0749 -0.0539  0.0645
 9695W        W52711  24.017   3.090  20.311  0.2265  0.0000 -0.0721
 9696W        W52712  19.916   8.697  27.173  0.1620  0.0415  0.0170
 9697W        W52713  25.981  28.809  28.716  0.1136  0.1262  0.4032
 9698W        W52714  18.738   2.518  18.496  0.0422  0.0268 -0.0970
 9699W        W52715  13.100   9.826  20.354 -0.0072 -0.2305 -0.1964
 9700W        W52716  29.596   2.399  26.733  0.0237 -0.0059  0.0517
 9701W        W52717  16.359   2.997   5.612  0.1751  0.3456 -0.1017
 9702W        W52718  26.815  10.608  26.390  0.3098  0.2580  0.0435
 9703W        W52719  27.596   9.024   2.106  0.0790  0.0459 -0.1812
 9704W        W52720  23.069   3.758  20.965 -0.1326  0.2355  0.0254
 9705W        W52721  16.936  13.941  24.439 -0.2867 -0.0571  0.1242
 9706W        W52722  17.532   6.961   1.186 -0.1908 -0.1728  0.0254
 9707W        W52723  18.515  17.607   0.514 -0.3697  0.4858  0.0204
 9708W        W52724  13.833   0.787  27.762 -0.0472  0.0079 -0.1694
 9709W        W52725  33.070  31.828   4.443 -0.1060 -0.0676  0.1950
 9710W        W52726   7.110  15.610   8.268  0.0933  0.0904 -0.2953
 9711W        W52727   1.886   0.732  25.039 -0.0471  0.2196  0.0439
 9712W        W52728  21.173  20.238  27.177 -0.2708  0.3551 -0.2894
 9713W        W52729  21.360  25.731   1.481  0.2777 -0.0628 -0.1079
 9714W        W52730  28.145  34.004   8.848  0.1350 -0.0882 -0.2618
 9715W        W52731  27.410  12.622   5.665 -0.0652  0.0564 -0.3665
 9716W        W52732  10.726  33.729   4.028  0.0103 -0.1910 -0.1362
 9717W        W52733   2.469  24.775  20.786 -0.4120  0.3592 -0.0757
 9718W        W52734  26.547  33.018  25.923 -0.0611 -0.4251  0.5462
 9719W        W52735  32.900  32.904  18.176  0.5461 -0.1000 -0.1061
 9720W        W52736  24.279   8.238  24.884 -0.0533  0.1836 -0.0179
 9721W        W52737  19.326   4.060   9.701  0.2715  0.1046  0.1485
 9722W        W52738  19.761  14.840   8.353 -0.0599  0.0979  0.1911
 9723W        W52739  23.478  12.866  23.478  0.1956  0.1252  0.0642
 9724W        W52740   9.692  24.979   4.058 -0.2970  0.0243 -0.0080
 9725W        W52741  20.146   8.040   4.488 -0.0238  0.0808  0.0127
 9726W        W52742  19.977  20.928  18.992 -0.0334 -0.2842  0.1821
 9727W        W52743  17.612  10.471  14.673  0.1256  0.0929 -0.1997
 9728W        W52744   8.415   4.067  24.864  0.2211  0.1175 -0.1885
 9729W        W52745  31.960   0.851  20.271 -0.0112 -0.2299 -0.0464
 9730W        W52746  23.453  16.745  14.597  0.0920  0.1131  0.0629
 9731W        W52747  20.521   7.296   9.008  0.1034 -0.2410  0.1929
 9732W        W52748   8.620  31.748   5.071 -0.0652 -0.0386 -0.2047
 9733W        W52749  16.903   1.483   4.945  0.1258 -0.0495 -0.2358
 9734W        W52750  11.086  24.527   0.734  0.2630  0.0411 -0.1119
 9735W        W52751  24.894   6.832   7.779  0.0237  0.2445 -0.1400
 9736W        W52752   9.539   3.685   3.705 -0.2753 -0.1562 -0.0437
 9737W        W52753  10.351  21.556  26.403  0.1249 -0.0415  0.1398
 9738W        W52754  27.767  12.963   3.677 -0.0155  0.0076 -0.4398
 9739W        W52755  28.188   4.525   5.517 -0.0187 -0.2734 -0.0293
 9740W        W52756  15.884  31.886   0.394  0.0177 -0.1705 -0.0840
 9741W        W52757   2.581  15.690   6.155 -0.1249  0.0028  0.0660
 9742W        W52758  21.295   1.014  29.205  0.1828 -0.1509 -0.1512
 9743W        W52759  17.413   1.069   6.038 -0.1995  0.0688  0.0714
 9744W        W52760   8.596  27.591  24.106  0.2469  0.0060  0.0400
 9745W        W52761  24.343   6.911  15.655  0.2023  0.1085 -0.0825
 9746W        W52762  24.153  22.559   9.000  0.0064 -0.2090  0.0001
 9747W        W52763  14.009  11.169   5.786 -0.0972 -0.0079 -0.0707
 9748W        W52764   5.415  29.132   3.041  0.1127 -0.1207 -0.0111
 9749W        W52765  33.568  13.311   3.904  0.3180 -0.0104  0.3426
 9750W        W52766  24.992   4.029   2.038  0.1494  0.3143  0.0029
 9751W        W52767  14.030   4.357   6.897  0.2165 -0.2859 -0.0129
 9752W        W52768  26.656   3.033  26.101  0.3899 -0.0979 -0.3010
 9753W        W52769  30.486  14.755  20.752 -0.1199  0.0365 -0.2972
 9754W        W52770  23.686   8.788  22.137 -0.0136 -0.2330  0.0659
 9755W        W52771  13.702  21.547   1.089 -0.2139 -0.0630  0.2237
 9756W        W52772  23.575   6.668  27.400  0.3170 -0.0258 -0.2427
 9757W        W52773  12.225   6.347   8.139 -0.2146 -0.1326  0.0516
 9758W        W52774  20.146  33.844   8.128  0.1887  0.1079 -0.0641
 9759W        W52775  27.109  26.899  22.468  0.1506 -0.0854 -0.0308
 9760W        W52776  25.764  33.388  16.630  0.0534  0.1108 -0.2124
 9761W        W52777  33.580  32.291   1.576  0.1258 -0.1187 -0.0959
 9762W        W52778  23.462  20.662   0.055 -0.1196  0.0520  0.1331
 9763W        W52779   6.953  30.365  28.334  0.0915  0.2105  0.0983
 9764W        W52780  14.001   7.101   4.781  0.4662 -0.0343  0.0982
 9765W        W52781   1.861  16.717   6.632  0.3584 -0.2481  0.3764
 9766W        W52782  27.634  11.594   2.153 -0.0178 -0.0263  0.0295
 9767W        W52783  16.872   6.801  16.033  0.1428  0.1145  0.1126
 9768W        W52784  27.527  18.401   4.318 -0.0976  0.1515 -0.1856
 9769W        W52785   5.295  17.063   6.790 -0.1241 -0.3597  0.2149
 9770W        W52786   6.202  30.241  27.790  0.2807  0.0012  0.0400
 9771W        W52787   1.348  34.109   2.570  0.0938  0.4819 -0.0443
 9772W        W52788   4.505  29.592   8.043  0.6552  0.1792 -0.1187
 9773W        W52789  30.413   6.476  24.771  0.2405 -0.1704  0.1768
 9774W        W52790  29.570  12.972   4.431  0.0671 -0.0426  0.2649
 9775W        W52791  33.135  29.808   7.833  0.0985  0.1712 -0.1437
 9776W        W52792  18.914  24.763   3.854 -0.2454 -0.0173 -0.1403
 9777W        W52793  33.089   0.076   2.832 -0.2577 -0.0677 -0.0229
 9778W        W52794   5.121  32.580  27.127  0.2437 -0.0115 -0.0849
 9779W        W52795  29.078   6.730   5.478 -0.6009 -0.0037 -0.1149
 9780W        W52796  23.823   2.146   1.800  0.3735 -0.4006 -0.0549
 9781W        W52797   1.269  14.968  27.033  0.0634 -0.2814 -0.0054
 9782W        W52798  29.482  22.607   3.370  0.1154  0.2014  0.0079
 9783W        W52799  27.204   6.029   3.976  0.0976 -0.1340  0.0644
 9784W        W52800   8.170  12.058  28.191 -0.0197 -0.1139 -0.2488
 9785W        W52801  13.232  28.276  27.703 -0.1218 -0.0620  0.1937
 9786W        W52802   8.498  34.465  20.242  0.1892 -0.0106  0.0406
 9787W        W52803  12.949  15.913   6.558  0.1706  0.1934  0.1490
 9788W        W52804  28.546  34.438  10.904  0.1059 -0.2138  0.5162
 9789W        W52805  31.629   3.422   5.995 -0.0737  0.0215 -0.4802
 9790W        W52806  25.067  18.478  23.914  0.0273 -0.2466 -0.0084
 9791W        W52807  19.033  33.314  10.106 -0.0800  0.2343 -0.2907
 9792W        W52808  26.935  12.708   1.534 -0.0275  0.0887 -0.2236
 9793W        W52809  20.864  21.797  26.666  0.0949  0.1199 -0.2443
 9794W        W52810  18.684   3.595  21.696  0.2804 -0.2152  0.0075
 9795W        W52811  11.018  34.566   2.786  0.1456  0.2232 -0.5640
 9796W        W52812  16.739  32.602   6.755 -0.3090 -0.2663  0.3077
 9797W        W52813  19.882   9.952   3.531 -0.1203 -0.1781  0.1290
 9798W        W52814  22.785   3.758   9.626 -0.1578 -0.0448  0.1105
 9799W        W52815  33.325   6.345   6.980  0.3030  0.1201  0.0409
 9800W        W52816  11.540  14.983   5.372  0.0536 -0.1564  0.0575
 9801W        W52817  15.290  11.372   8.020 -0.0318  0.0385  0.1445
 9802W        W52818  21.059   6.004   0.982  0.2074 -0.1322 -0.4232
 9803W        W52819  32.913   5.558   0.329  0.0599  0.1126  0.2196
 9804W        W52820  32.429  22.228   1.815  0.0955  0.6255  0.3503
 9805W        W52821  12.867   7.338   8.629 -0.1297 -0.4274 -0.0129
 9806W        W52822  31.185  26.072  18.881  0.1924  0.1080 -0.0484
 9807W        W52823  24.183  29.575  28.861 -0.0388  0.1897 -0.0993
 9808W        W52824  18.489   8.069   8.214 -0.0036  0.0011  0.1451
 9809W        W52825  32.561   1.220   8.493  0.0053 -0.0634 -0.1683
 9810W        W52826  18.362   6.622  28.340  0.0086 -0.0372 -0.1357
 9811W        W52827  22.687  15.383  22.654  0.0145 -0.1417  0.1892
 9812W        W52828  31.474   1.498   2.607 -0.2448 -0.2267  0.2726
 9813W        W52829   9.746   8.480   6.606 -0.0563 -0.0460  0.3095
 9814W        W52830  30.959   6.227  23.483  0.2229  0.2603  0.2788
 9815W        W52831  17.410  33.728  15.501 -0.1650  0.0312  0.0717
 9816W        W52832   8.653   4.158  26.134 -0.2261 -0.3860 -0.0930
 9817W        W52833   1.737  23.300  16.089 -0.2735  0.1330  0.0360
 9818W        W52834   9.211   0.453  22.080 -0.4000  0.2138 -0.0327
 9819W        W52835  14.487   0.222  28.061  0.0677  0.1823 -0.0519
 9820W        W52836  26.157   3.835   2.704  0.0818 -0.0544 -0.3892
 9821W        W52837  12.095  30.281   4.538  0.0306  0.0774  0.0948
 9822W        W52838  24.378  19.926  14.701 -0.0937 -0.1826  0.1556
 9823W        W52839   9.966  26.865  26.945  0.0913 -0.2425  0.2026
 9824W        W52840  22.236  18.442   0.874  0.3790  0.0261 -0.0772
 9825W        W52841   8.753  22.931   5.449  0.0906 -0.0903  0.5674
 9826W        W52842  23.411   3.169   3.748 -0.3360  0.1604  0.2606
 9827W        W52843  32.790  17.814  28.694 -0.0527 -0.0873 -0.0267
 9828W        W52844   7.921   3.083   4.598 -0.0418  0.0817 -0.1252
 9829W        W52845   0.414   1.196   7.610 -0.3061  0.0815  0.0678
 9830W        W52846  11.858   3.759   9.649 -0.1814  0.0189 -0.0162
 9831W        W52847  10.155  25.333  28.055 -0.3569 -0.1687  0.2741
 9832W        W52848  12.271   3.040   1.825 -0.1293 -0.1860 -0.2798
 9833W        W52849  12.176  11.524   0.917 -0.0697  0.0359 -0.1607
 9834W        W52850  20.258   2.590   7.262  0.0167  0.1106 -0.0062
 9835W        W52851  11.661  33.445  28.926  0.0486  0.1295 -0.1580
 9836W        W52852  22.523   6.506  26.818  0.0681 -0.1658  0.0613
 9837W        W52853  30.329   7.363   9.789 -0.0949  0.0099 -0.2414
 9838W        W52854  19.441  11.753  24.157 -0.4099  0.2883  0.2278
 9839W        W52855  23.900  18.248   0.308 -0.0385 -0.0312  0.1789
 9840W        W52856  29.163   8.080   4.171  0.0587 -0.0892 -0.0340
 9841W        W52857  12.343  11.306   5.893 -0.3498 -0.0232  0.0503
 9842W        W52858  25.920   8.355   8.764 -0.1054 -0.3341 -0.0697
 9843W        W52859  14.431  11.418   0.534 -0.1105  0.1874 -0.2325
 9844W        W52860  24.225   4.901   4.260  0.2136 -0.2902 -0.0477
 9845W        W52861  30.514  11.393   4.738 -0.0160 -0.2106 -0.1614
 9846W        W52862   3.579   8.932   0.498 -0.1483  0.0856 -0.2127
 9847W        W52863  26.539  34.180   7.951  0.0688 -0.1991  0.0206
 9848W        W52864  16.502  17.742  22.452  0.1966 -0.2010  0.1090
 9849W        W52865  10.777  17.562  23.650  0.2834  0.0036  0.0502
 9850W        W52866  26.296  20.531   2.166  0.2850 -0.0026 -0.2767
 9851W        W52867   7.991  25.528  16.226 -0.3061 -0.1141 -0.1569
 9852W        W52868  32.702   9.238   1.095 -0.2766  0.0772 -0.2727
 9853W        W52869  19.651   5.944   8.296 -0.0622  0.3217 -0.1547
 9854W        W52870  13.993   8.606  16.727 -0.3727  0.0986  0.2335
 9855W        W52871  10.086  32.551  24.713  0.3616 -0.0078  0.4161
 9856W        W52872  23.233  13.394   7.454  0.0541 -0.0785 -0.4778
 9857W        W52873  13.100  15.806   7.847 -0.0391  0.1039  0.0519
 9858W        W52874  21.565   2.306  10.268 -0.3803  0.0642 -0.5111
 9859W        W52875  15.618  32.312  28.635 -0.1538 -0.0735 -0.2409
 9860W        W52876  21.912   3.136   0.555  0.0657 -0.0405 -0.0717
 9861W        W52877  25.309  14.431  26.494  0.1574  0.0300 -0.1118
 9862W        W52878  22.728  31.979  11.275  0.0562  0.0519 -0.1087
 9863W        W52879  20.573  22.861   3.852 -0.1290 -0.1657 -0.1687
 9864W        W52880  19.826   8.807   2.849  0.1167 -0.0578 -0.1756
 9865W        W52881  24.279  15.891   8.151  0.0070 -0.0979  0.0407
 9866W        W52882  23.039   5.942   6.460  0.3301 -0.1855  0.2310
 9867W        W52883  21.255  11.724   5.960 -0.2027 -0.3218 -0.2003
 9868W        W52884  34.626   3.932  26.701 -0.0344  0.0565  0.1661
 9869W        W52885  19.096  21.254   5.670  0.0943  0.0705 -0.0253
 9870W        W52886  19.147  14.634   1.921  0.0483  0.2862 -0.1880
 9871W        W52887  27.246  28.486   4.399 -0.1139 -0.1775  0.1582
 9872W        W52888  13.383   1.310  28.689 -0.2098  0.1230  0.0245
 9873W        W52889  26.774   2.524   5.645  0.3558  0.1243 -0.0227
 9874W        W52890   8.171   7.366   1.709  0.3796  0.1348 -0.1609
 9875W        W52891  15.907  31.262   0.564 -0.2418 -0.1617 -0.3035
 9876W        W52892  22.633  33.476   3.253  0.1073 -0.2430 -0.2271
 9877W        W52893  11.020  11.605   6.824 -0.0381 -0.0891  0.0321
 9878W        W52894  19.018   8.401  28.333  0.1526 -0.1719 -0.1071
 9879W        W52895  27.241  24.423   2.197  0.0978 -0.0082  0.1037
 9880W        W52896  15.341  27.853   1.009 -0.0017 -0.1775 -0.2399
 9881W        W52897  21.503  32.183   6.648 -0.3686 -0.0127 -0.3361
 9882W        W52898  19.729  34.078  10.511 -0.0563 -0.1039  0.0433
 9883W        W52899  19.096  23.169  27.066  0.0734 -0.5423  0.0987
 9884W        W52900  28.215  13.016  27.655  0.2442 -0.0652 -0.1879
 9885W        W52901  24.715   1.626  29.102  0.0955  0.2714  0.5284
 9886W        W52902  26.642   1.213   8.077  0.0975 -0.1139  0.2380
 9887W        W52903  17.493  20.344  27.556  0.2366  0.1065  0.2372
 9888W        W52904  16.504   7.921   8.835  0.1280 -0.0591  0.2162
 9889W        W52905   2.260  23.474   7.818  0.2690 -0.1116  0.1837
 9890W        W52906  11.110  16.427  23.987  0.3369  0.0772  0.1058
 9891W        W52907   6.631   1.825   7.889  0.0191 -0.1080 -0.1453
 9892W        W52908  17.840  28.924   9.496  0.1046  0.1568  0.0843
 9893W        W52909  14.281  20.588   7.972  0.0451  0.2277 -0.2667
 9894W        W52910  22.519  18.161  15.216 -0.3325  0.1028  0.0409
 9895W        W52911  28.129  25.417   2.126 -0.0784  0.1323 -0.2123
 9896W        W52912  13.455  21.889   4.203  0.1022  0.0175  0.2080
 9897W        W52913  18.311  12.662  25.734 -0.0937  0.1133 -0.0319
 9898W        W52914  24.302  10.098   6.234  0.2466  0.2185 -0.0375
 9899W        W52915  11.768  33.433   0.642  0.0526  0.2065 -0.1240
 9900W        W52916  34.401   7.367   3.820 -0.1282 -0.0089  0.4616
 9901W        W52917  32.703  33.373   9.644 -0.2679  0.0704 -0.0043
 9902W        W52918   6.306  15.072   0.041 -0.0995  0.1409  0.1642
 9903W        W52919   7.531   5.986  10.126  0.3607 -0.3237 -0.1581
 9904W        W52920  26.342  16.722  24.527 -0.0427 -0.2127 -0.0877
 9905W        W52921  20.977   1.906   3.373 -0.2375  0.3093 -0.0011
 9906W        W52922  32.168  18.539  28.577 -0.3670 -0.1683  0.0499
 9907W        W52923  20.829  13.726  23.143  0.1992  0.0918 -0.0507
 9908W        W52924  22.185   6.127  23.739  0.1111 -0.0246  0.2875
 9909W        W52925   8.015  30.972   0.811  0.0623  0.1748 -0.0420
 9910W        W52926  26.508   4.437   6.970  0.2626 -0.1075  0.1358
 9911W        W52927  27.189  11.527   7.673  0.0187 -0.3377 -0.1055
 9912W        W52928  33.889   3.665   9.454 -0.1975 -0.1006 -0.1347
 9913W        W52929  24.637   8.055  19.349  0.1408  0.0604 -0.1372
 9914W        W52930  23.716  18.493   6.782  0.1328 -0.2939 -0.0260
 9915W        W52931  17.376  18.199  15.081  0.1352 -0.1176  0.2711
 9916W        W52932  32.709  20.579   2.445 -0.1403 -0.1311 -0.3655
 9917W        W52933  32.559  34.098   6.077  0.1667  0.0168  0.2308
 9918W        W52934  22.921  21.332  16.580 -0.0226  0.1130  0.2286
 9919W        W52935  18.141  13.970   1.016  0.0168  0.1561  0.1020
 9920W        W52936  11.072  17.190  15.992 -0.0107 -0.0538  0.4389
 9921W        W52937  20.833  10.568   2.970  0.0200 -0.5295 -0.2165
 9922W        W52938  12.514   5.635   6.960  0.2394  0.4377  0.1631
 9923W        W52939  11.599  28.707  21.482  0.0364  0.0910 -0.0860
 9924W        W52940  14.878  29.280   0.051 -0.0854  0.0501  0.0873
 9925W        W52941  13.944  16.551  27.715  0.0732 -0.0886  0.3049
 9926W        W52942   2.786   9.108   6.843 -0.1433  0.0667  0.0671
 9927W        W52943  31.255  32.506  28.928  0.2688  0.0473  0.1573
 9928W        W52944  31.264   7.916   3.965 -0.3154  0.0239 -0.0833
 9929W        W52945  33.690   4.764  14.041  0.2324 -0.1214 -0.0855
 9930W        W52946   2.009   2.992   0.621  0.2776 -0.2317 -0.1697
 9931W        W52947  27.526  31.342  25.405 -0.0719 -0.3015  0.0726
 9932W        W52948  14.540  22.381  27.097 -0.0412  0.1055 -0.1528
 9933W        W52949  32.997   8.485  20.976 -0.0418  0.1686  0.0545
 9934W        W52950  14.788   7.534   0.699  0.2014 -0.0597 -0.0482
 9935W        W52951  22.452   3.369   2.829  0.3355 -0.2953 -0.0356
 9936W        W52952  21.492   6.867   5.762 -0.4153  0.1394  0.1655
 9937W        W52953  11.386  33.429   7.635 -0.0253 -0.2200 -0.0818
 9938W        W52954  10.005  32.003  27.022 -0.1976 -0.0506 -0.0870
 9939W        W52955   5.056  15.689  27.786 -0.0989 -0.0777  0.2626
 9940W        W52956  11.353  32.436  24.238  0.0259  0.3478 -0.4365
 9941W        W52957  12.257  20.075  13.862 -0.0057  0.2464  0.1537
 9942W        W52958  29.853  30.866  23.966  0.0148  0.0228 -0.1717
 9943W        W52959  23.238   7.207   6.942  0.2457  0.1318  0.1906
 9944W        W52960  19.543  18.677  29.055 -0.0176  0.2072 -0.0758
 9945W        W52961   9.708   4.756   9.902 -0.0595  0.0797  0.0052
 9946W        W52962  11.877   3.304   5.001  0.1597 -0.1235 -0.1240
 9947W        W52963  18.755  28.455  14.967  0.1076  0.0830  0.0905
 9948W        W52964  28.789  13.941   6.019  0.1733  0.2385 -0.2263
 9949W        W52965  19.423  13.661  23.077  0.2663  0.1972 -0.3324
 9950W        W52966  13.920   0.800  29.273  0.1944 -0.3205  0.3812
 9951W        W52967  26.915  15.565   1.338  0.0130 -0.0285 -0.1232
 9952W        W52968   3.199  10.744  29.076 -0.0685  0.1250 -0.3773
 9953W        W52969  33.886   2.805  28.235 -0.1011  0.0034  0.0307
 9954W        W52970  29.442  34.577  16.882 -0.0896  0.1896 -0.4455
 9955W        W52971  33.326  12.813   6.867  0.1231 -0.2088 -0.0002
 9956W        W52972   7.785   2.729  15.798 -0.3084  0.3233 -0.0248
 9957W        W52973  17.354  10.593  26.859  0.0591 -0.1675 -0.0354
 9958W        W52974  17.708  10.403   6.684 -0.4185 -0.2282 -0.0485
 9959W        W52975   6.565  23.050  23.941  0.2606 -0.2229  0.1295
 9960W        W52976  23.281  23.086  27.763 -0.0356  0.0570  0.1389
 9961W        W52977  28.873   3.693   5.987  0.2748  0.1617  0.2048
 9962W        W52978  31.408  32.122   6.323  0.1921 -0.2134  0.2443
 9963W        W52979  20.960   1.460   8.365  0.1617 -0.1692  0.1464
 9964W        W52980  17.249  33.773   3.576 -0.2166 -0.0464  0.3252
 9965W        W52981  20.904  29.506   5.749 -0.3249 -0.0750 -0.1009
 9966W        W52982  16.973  11.523   0.723 -0.1630  0.1183 -0.1507
 9967W        W52983  24.144   5.313   3.361 -0.0197  0.1065  0.1965
 9968W        W52984  21.607  33.279  23.599 -0.0454  0.0879  0.2009
 9969W        W52985  17.646   5.428  24.436  0.0954  0.0490  0.5461
 9970W        W52986  22.216   9.645   8.268  0.0006 -0.0389 -0.0227
 9971W        W52987   9.601   8.210  23.901 -0.1984 -0.0129  0.0780
 9972W        W52988  33.530  24.063  23.321 -0.0273  0.2099  0.3654
 9973W        W52989  32.021  34.713   2.653  0.1216  0.0913 -0.0628
 9974W        W52990  21.985  30.839   7.623 -0.0136  0.0131  0.0358
 9975W        W52991   0.788  11.977  16.264  0.3470 -0.1827 -0.1143
 9976W        W52992  21.631  10.895   7.982 -0.2447 -0.0232 -0.3682
 9977W        W52993  13.367   5.691  16.010 -0.0109 -0.0470  0.3230
 9978W        W52994  26.501   4.202  15.641 -0.1647 -0.0150 -0.0986
 9979W        W52995  15.821   8.247   0.620 -0.1287 -0.1865 -0.1245
 9980W        W52996  27.536  15.849  22.925  0.1304  0.1569 -0.3367
 9981W        W52997  26.040   5.982  24.105 -0.0155 -0.0858 -0.0418
 9982W        W52998  33.366  15.861  10.047 -0.1231 -0.0567  0.4348
 9983W        W52999  18.099   8.951   3.626  0.0670 -0.0717  0.1364
 9984W        W53000  27.128  17.055   1.822 -0.2576 -0.0168 -0.0720
 9985W        W53001  10.748   3.634  21.983  0.0942  0.2996  0.2257
 9986W        W53002  25.306   8.353   7.998  0.1751 -0.1043 -0.2054
 9987W        W53003  15.301  12.414   0.719  0.0760  0.3019 -0.2765
 9988W        W53004   7.894   8.420  24.651  0.0745 -0.1280  0.1859
 9989W        W53005  15.310   0.810   2.798 -0.2206 -0.0618 -0.1493
 9990W        W53006  12.834   5.505   5.820  0.1256 -0.6598  0.1224
 9991W        W53007  25.875   0.031   0.902 -0.1808  0.3697 -0.5232
 9992W        W53008   9.755  16.993   2.195  0.1254  0.0068 -0.1233
 9993W        W53009  31.406   8.329  22.273 -0.3369 -0.2146  0.1459
 9994W        W53010  26.519  20.943   3.432 -0.0196  0.2712 -0.1891
 9995W        W53011  13.153  33.040   9.363 -0.0475 -0.1465 -0.0032
 9996W        W53012  34.606  34.245   2.251 -0.1426  0.1557 -0.1895
 9997W        W53013  16.716   9.276  22.066 -0.0790  0.0928 -0.0976
 9998W        W53014  21.584   3.267  19.372 -0.3486  0.1110 -0.0729
 9999W        W53015  20.781   3.915   9.747  0.2123  0.0107 -0.2463
10000W        W53016  33.759   0.530   1.518 -0.1258 -0.0242  0.1579
10001W        W53017  14.602  31.227   4.233 -0.0023 -0.0637 -0.0384
10002W        W53018  11.499  34.678   8.736  0.1832  0.1416 -0.0992
10003W        W53019   4.856  30.898   5.181 -0.1023 -0.0571  0.2291
10004W        W53020  14.253  17.310   6.342  0.0153  0.2200  0.1379
10005W        W53021  27.437   4.355   9.569  0.0181 -0.0635  0.0085
10006W        W53022  16.121  25.875  25.859  0.1959  0.1686 -0.1983
10007W        W53023  23.614  14.383  19.100  0.1428 -0.0858  0.1933
10008W        W53024  18.403  18.242   7.762  0.2889 -0.1525  0.1923
10009W        W53025  17.001  20.319  27.872 -0.2453  0.0608  0.0237
10010W        W53026  25.141  14.364  22.690  0.0587  0.0468 -0.2961
10011W        W53027  15.633  28.458   4.950  0.0330 -0.0565  0.1837
10012W        W53028  31.067  29.182  24.233 -0.1778  0.0046  0.0074
10013W        W53029  30.731   6.697   5.055 -0.1853  0.0368 -0.1048
10014W        W53030   2.177  18.012   6.330 -0.0666  0.0561 -0.0536
10015W        W53031  26.300   1.564   8.224 -0.2571  0.0168  0.0714
10016W        W53032  13.063  28.335   8.973 -0.1639 -0.1050 -0.1472
10017W        W53033  23.944  28.815  10.830 -0.3014  0.0470  0.2499
10018W        W53034  21.461   5.873   6.542 -0.1650  0.1675 -0.0481
10019W        W53035   5.489  18.226   7.104  0.0224 -0.3464 -0.0380
10020W        W53036  12.023   4.387  27.967 -0.5398  0.2126  0.3709
10021W        W53037  28.865   8.944   7.475  0.2230  0.1338 -0.1211
10022W        W53038  23.167   0.369   8.522 -0.3661  0.0007 -0.3340
10023W        W53039  16.206  20.059   6.153 -0.1119 -0.0168 -0.3011
10024W        W53040  18.826  23.453   7.094  0.2475  0.0705 -0.2335
10025W        W53041  33.706  13.903   9.155  0.1144 -0.3544 -0.2071
10026W        W53042  14.651   1.991  21.461  0.2729  0.2255  0.0132
10027W        W53043   5.542  29.502   2.593  0.1230  0.3891 -0.0388
10028W        W53044  23.873  16.625   4.267 -0.0525  0.2026 -0.0455
10029W        W53045  19.886   2.386  26.962 -0.0022  0.1860 -0.0707
10030W        W53046  31.465  10.904   7.545 -0.0454 -0.0380  0.0208
10031W        W53047  10.903  15.249   6.226  0.2561  0.0379  0.0817
10032W        W53048   3.483   5.101  23.880  0.1050  0.0092  0.2579
10033W        W53049   4.352  14.875   3.893 -0.2448  0.1919 -0.1944
10034W        W53050  28.876   2.459   9.386  0.0256 -0.0687 -0.2935
10035W        W53051   8.906   6.894   6.335 -0.1394 -0.1585 -0.1741
10036W        W53052  16.889  30.569  22.134  0.0769  0.2439 -0.0587
10037W        W53053  15.333   8.623   0.219 -0.0181 -0.1957  0.2118
10038W        W53054  16.187  17.770  20.214 -0.2909 -0.0168 -0.0493
10039W        W53055   4.563   5.303  10.414  0.1613 -0.1832  0.0090
10040W        W53056  27.727  11.058  27.718 -0.1720 -0.1011 -0.0628
10041W        W53057  15.823   4.030  28.359  0.0025  0.1335  0.1217
10042W        W53058  31.179  20.516  26.891 -0.1479  0.1529  0.1231
10043W        W53059  26.812  30.329   5.527  0.2489 -0.1348  0.0791
10044W        W53060  34.284   6.857   7.043  0.1182  0.2016 -0.0805
10045W        W53061  13.155  16.070   3.532 -0.0095  0.1070  0.2141
10046W        W53062  14.688  10.231   6.891 -0.1489  0.1892  0.1845
10047W        W53063   1.067   3.159   5.478 -0.1061 -0.0876 -0.2400
10048W        W53064  21.020  18.902   6.357 -0.2363 -0.1405  0.3452
10049W        W53065  15.567  25.149  23.930 -0.0923 -0.4753 -0.1497
10050W        W53066  17.853  13.254   4.344 -0.0714 -0.0738  0.0881
10051W        W53067  10.953   4.975   7.870 -0.5038  0.1044 -0.0792
10052W        W53068  20.977  10.947   6.521 -0.0210  0.0635  0.2227
10053W        W53069  22.655   9.347   5.852 -0.0845 -0.3565  0.0716
10054W        W53070  30.294   3.990   5.632  0.0279 -0.2598 -0.0393
10055W        W53071  28.467   5.980  27.860 -0.0217 -0.2001  0.2476
10056W        W53072  23.758   9.428   0.648 -0.2088 -0.0047 -0.0336
10057W        W53073  22.298   5.357   1.839  0.0163 -0.3912 -0.1724
10058W        W53074  27.371  25.810   3.111 -0.1992 -0.0307 -0.0789
10059W        W53075  34.088  28.701  26.744 -0.1760 -0.1566  0.2067
10060W        W53076  33.894  14.047  27.813  0.3573 -0.0167 -0.1117
10061W        W53077  30.426  16.630  22.426 -0.1615  0.1710 -0.1871
10062W        W53078  20.367   6.023   3.963 -0.4885 -0.2631 -0.3819
10063W        W53079   9.096  10.731   4.752  0.2937  0.3013  0.1990
10064W        W53080  16.242   3.936   9.168 -0.1917  0.0618 -0.3732
10065W        W53081   1.778  11.018   0.860 -0.0814  0.3161  0.1447
10066W        W53082  18.717  31.426   8.340 -0.0757 -0.0581  0.1106
10067W        W53083  23.187   1.864   8.992  0.1326  0.1179  0.0264
10068W        W53084  34.577   6.379   9.504  0.0491 -0.0121 -0.1419
10069W        W53085  19.810   0.950   9.165 -0.1244 -0.0090 -0.2318
10070W        W53086  17.172  30.397   9.027  0.2832  0.1311 -0.2585
10071W        W53087   4.842  16.879  29.030 -0.0438 -0.0671  0.1746
10072W        W53088  17.599   4.402  28.760 -0.1971 -0.0505  0.2681
10073W        W53089  27.291  23.332   8.231  0.0064  0.1862 -0.1820
10074W        W53090  24.549  13.552  22.483 -0.0538 -0.2335  0.2025
10075W        W53091  16.324   6.920   2.245  0.2427 -0.3366 -0.1711
10076W        W53092  29.254  23.214  25.773  0.1551  0.2164  0.2430
10077W        W53093  27.768  33.229  28.271  0.2435  0.1665 -0.2137
10078W        W53094  10.541   2.310   0.103 -0.1874  0.0504 -0.0486
10079W        W53095  20.679  17.351   4.694  0.1058  0.1236  0.1895
10080W        W53096  19.818  25.189   5.688  0.0079 -0.1822 -0.1269
10081W        W53097   3.112  34.370  28.490  0.0730 -0.2416 -0.0978
10082W        W53098  19.511  29.414   7.642  0.2097 -0.0949  0.3125
10083W        W53099  29.349  16.175  27.731 -0.2071  0.1041 -0.1396
10084W        W53100  28.802  22.747   6.470 -0.1757 -0.3213  0.0386
10085W        W53101  22.229   2.486  29.300  0.1161  0.0539  0.3462
10086W        W53102   0.924   6.429   1.174 -0.2065  0.0720  0.0936
10087W        W53103  26.516  16.457  28.852  0.0582  0.0454 -0.1473
10088W        W53104  18.080   0.806   4.407  0.1297 -0.0972  0.0961
10089W        W53105  17.623   7.242   2.607  0.1142  0.2143  0.3669
10090W        W53106  23.870   3.136   9.468 -0.2297  0.4968 -0.2585
10091W        W53107  27.798  12.151   7.536 -0.1748 -0.2577  0.0187
10092W        W53108  27.167  20.300  27.509  0.0604  0.1753  0.0936
10093W        W53109  19.364   3.453   4.530  0.2436 -0.0464  0.0680
10094W        W53110  24.205  19.290   5.919 -0.1355 -0.2168 -0.0560
10095W        W53111   2.024   7.647   8.406 -0.2034  0.2219 -0.0793
10096W        W53112  11.940   9.304   6.636  0.1600 -0.1868 -0.0255
10097W        W53113  25.539  11.008  27.259  0.0524  0.2465  0.1557
10098W        W53114  25.630  17.365   6.137  0.2011  0.0593 -0.3516
10099W        W53115  25.022   3.646   8.207  0.1912 -0.0398  0.1507
10100W        W53116  26.475  29.616  10.247  0.5305 -0.1401 -0.1499
10101W        W53117  29.772   3.481  10.387  0.1556  0.0762  0.1624
10102W        W53118  21.618  33.021   4.343  0.1897 -0.2166  0.1422
10103W        W53119  19.793  32.900   4.932  0.2267  0.0971  0.3503
10104W        W53120  17.093   2.222  28.807 -0.0370  0.1293 -0.1020
10105W        W53121  11.850   3.477   6.005  0.0707  0.0449  0.2467
10106W        W53122  20.254  32.555  25.868 -0.2795 -0.0114 -0.3819
10107W        W53123  16.276  27.616   2.352 -0.1063 -0.0874  0.2221
10108W        W53124  26.209  34.210   4.691 -0.0352 -0.3013 -0.0083
10109W        W53125  26.125  24.711   5.235  0.0502  0.0730  0.1112
10110W        W53126  16.112  28.398   8.625  0.1264 -0.1927  0.0398
10111W        W53127   7.056   3.461  25.562 -0.2126 -0.3591 -0.0562
10112W        W53128  18.303  31.232  11.779 -0.2331  0.0065 -0.0421
10113W        W53129  15.110  29.315  26.049 -0.0887 -0.0109  0.3293
10114W        W53130  31.166   2.620  10.461  0.0171  0.1357  0.2026
10115W        W53131  21.930   9.611   9.092  0.0083 -0.1031  0.1026
10116W        W53132   8.914  16.033   6.072  0.1145  0.2353  0.0885
10117W        W53133  22.845   5.900  10.528 -0.1980 -0.3472 -0.1599
10118W        W53134  18.760  30.658  25.390 -0.1731  0.0183  0.0257
10119W        W53135  17.695  14.268   5.504  0.2634 -0.0541  0.2125
10120W        W53136   0.934  28.118  21.547  0.4253 -0.0432  0.1257
10121W        W53137  16.225  16.793  23.541 -0.1341 -0.2853 -0.2657
10122W        W53138  22.893   4.155  10.454 -0.2467 -0.1887  0.0361
10123W        W53139  26.502  18.320  27.770  0.2119 -0.0807 -0.0038
10124W        W53140   4.598   5.646   8.529  0.0464  0.1389  0.0751
10125W        W53141  34.756  18.867   8.188 -0.1555  0.0119 -0.1647
10126W        W53142  33.933  10.584   5.227 -0.0128  0.1302 -0.0631
10127W        W53143  28.983   2.734   3.855 -0.0595 -0.1570  0.0291
10128W        W53144  14.087   6.647   2.218  0.0565  0.2411 -0.0105
10129W        W53145   4.468  13.421   4.726  0.4018 -0.0824  0.0087
10130W        W53146  19.556   5.811   6.709  0.2686  0.2054 -0.1674
10131W        W53147  31.803  11.713   6.481  0.3162 -0.0063 -0.3310
10132W        W53148   8.797  13.194   3.605 -0.4134  0.0887 -0.0565
10133W        W53149   7.932   5.526  23.457 -0.3530  0.0596 -0.1274
10134W        W53150  13.200  28.505   5.167 -0.1448  0.2777 -0.1323
10135W        W53151  26.345   2.613  24.412 -0.1299  0.0835 -0.4245
10136W        W53152  29.129   9.765   1.765  0.0150  0.0069 -0.0191
10137W        W53153   7.635  24.447  24.778  0.1541 -0.1841 -0.1209
10138W        W53154  25.733  23.868   1.009  0.0183 -0.0481  0.0192
10139W        W53155  22.998   3.211   6.674 -0.0391 -0.1785  0.3376
10140W        W53156  17.541   9.283  28.933  0.3837 -0.1282 -0.1686
10141W        W53157  28.118   7.726  25.299 -0.1365  0.3127  0.0516
10142W        W53158  21.198   7.736   1.435  0.0602 -0.0358  0.1731
10143W        W53159  19.638  10.931  20.807  0.0624 -0.1004  0.1392
10144W        W53160  32.169   6.977  24.796 -0.0280 -0.0670 -0.1404
10145W        W53161  26.326   7.932   2.095 -0.3253  0.0453  0.0190
10146W        W53162  10.326  17.874   1.494 -0.2389  0.1778 -0.0883
10147W        W53163  18.455   7.076   6.141  0.1313  0.0022 -0.1310
10148W        W53164  13.458  20.803   4.385  0.1440 -0.1420 -0.0871
10149W        W53165  20.596  29.048   2.024  0.1200  0.1859  0.0596
10150W        W53166  27.714  29.135   4.521 -0.3734 -0.0952 -0.0498
10151W        W53167  22.269   8.872   9.733  0.0178 -0.3381  0.0325
10152W        W53168  12.477   2.188  25.167  0.0602  0.1431  0.1778
10153W        W53169  21.803  34.228   6.689  0.3006  0.0829  0.0573
10154W        W53170  34.511   5.417   1.922 -0.2523 -0.0229 -0.0793
10155W        W53171  25.960  30.568   0.612 -0.1899 -0.1986 -0.0062
10156W        W53172  23.648  31.071   4.927  0.1968 -0.0785 -0.1782
10157W        W53173  19.684  11.942  28.502 -0.2458  0.2042 -0.1455
10158W        W53174   8.497  12.553   7.537 -0.2071  0.1738 -0.0233
10159W        W53175  28.238   8.965  22.871  0.0493  0.1640 -0.1158
10160W        W53176  27.853  14.030   5.892 -0.3834 -0.0050 -0.1561
10161W        W53177  26.742   4.830   0.783  0.1028 -0.3962 -0.1308
10162W        W53178  26.976   8.098  16.325  0.0736 -0.1642 -0.0777
10163W        W53179  12.137  32.397  28.712  0.2356 -0.2544  0.0343
10164W        W53180  30.643  13.564   9.501  0.1933 -0.1431 -0.1423
10165W        W53181   6.509   7.778   4.375 -0.2418 -0.1727  0.1065
10166W        W53182  26.535  11.527   3.912 -0.2294  0.0165 -0.1556
10167W        W53183   6.766   2.075   1.662 -0.1356  0.1178  0.2372
10168W        W53184   9.633   1.794  22.642 -0.2578 -0.0543  0.1213
10169W        W53185  22.820   0.944   9.714 -0.3396 -0.3009 -0.2517
10170W        W53186  21.560  12.724  22.371  0.1198  0.1295 -0.0521
10171W        W53187   9.574  30.742   8.201 -0.1014  0.1116  0.0199
10172W        W53188  30.300   8.185   6.710  0.1539  0.0238 -0.0748
10173W        W53189  22.797   6.837  28.593 -0.1608 -0.2505 -0.3340
10174W        W53190  23.786  31.596  24.359 -0.1008 -0.3269  0.0434
10175W        W53191  15.840  11.282   1.621  0.0854 -0.2564 -0.3222
10176W        W53192  19.849  19.881   2.409  0.1111 -0.0029 -0.2264
10177W        W53193   8.644  33.793  24.517 -0.3778  0.1091 -0.0603
10178W        W53194  12.180  19.954   5.383  0.2327  0.0141 -0.1787
10179W        W53195  21.741  16.617   7.250  0.0648  0.1242 -0.2983
10180W        W53196   9.519   7.158   2.496  0.1403 -0.0019 -0.0817
10181W        W53197  11.435  10.951   9.310 -0.1698 -0.0909 -0.0740
10182W        W53198  16.811   5.486   9.429 -0.0050 -0.0572  0.2043
10183W        W53199  11.626  30.251   7.114 -0.0684 -0.0603  0.1919
10184W        W53200  22.173   9.598  25.663 -0.2987  0.0529  0.0466
10185W        W53201  33.507   0.832   6.838 -0.0487 -0.0115 -0.2140
10186W        W53202  21.945  12.518   2.791 -0.1560  0.2836 -0.0635
10187W        W53203   0.390  33.596   3.145  0.1144  0.1223  0.0538
10188W        W53204   4.079   6.055   1.555 -0.0426 -0.1008  0.0588
10189W        W53205  11.461   5.509   8.974 -0.1452 -0.2467 -0.2458
10190W        W53206  27.157   4.324   5.734 -0.0638  0.1496  0.0650
10191W        W53207  29.515   7.935   8.818 -0.3940  0.1362 -0.1019
10192W        W53208  11.608  29.109  24.588 -0.3594 -0.0062  0.0868
10193W        W53209  19.203   8.068  28.678 -0.1027  0.4003  0.0621
10194W        W53210  10.956   3.392  27.632  0.0261 -0.2744  0.4740
10195W        W53211  25.488  34.194   9.525 -0.1066  0.0145 -0.4681
10196W        W53212  17.698  16.325  25.692  0.1246  0.2513 -0.1639
10197W        W53213   1.623   4.300   7.990  0.1485  0.0166  0.1568
10198W        W53214  30.993  31.314  24.085 -0.2614  0.0527  0.4104
10199W        W53215  21.482  28.129  23.924  0.1415 -0.0556 -0.2460
10200W        W53216   8.362   9.688   3.994 -0.0322  0.2560  0.2386
10201W        W53217  10.950  23.155  26.730 -0.0766 -0.0700  0.2511
10202W        W53218   6.732   0.654   4.963 -0.1971  0.3181  0.1847
10203W        W53219  30.062  29.781   2.272  0.0767  0.1603 -0.1237
10204W        W53220  26.507   9.963  26.864  0.0046  0.1817 -0.2692
10205W        W53221  29.734   7.922   9.305  0.0379 -0.0134  0.2445
10206W        W53222  25.817   8.304  16.550 -0.2030 -0.0647  0.0405
10207W        W53223   3.736   8.271  22.271  0.0675  0.4120  0.0558
10208W        W53224  20.028  32.195   5.888  0.1859  0.2834  0.1864
10209W        W53225  30.557  29.530  21.949  0.0579 -0.2388  0.0473
10210W        W53226   2.985  24.763  27.550 -0.2397 -0.0339 -0.2059
10211W        W53227  20.108   2.296   3.211 -0.0074  0.1262  0.1941
10212W        W53228  30.142   6.173   8.429  0.0158  0.2697 -0.2102
10213W        W53229  27.880  32.524   0.746  0.0527  0.0298 -0.2497
10214W        W53230  17.073  20.500   3.824  0.0829  0.0563  0.4215
10215W        W53231  34.019  15.261  20.530 -0.0257  0.0817  0.1905
10216W        W53232  23.224  15.517  22.687  0.1306 -0.1334  0.3789
10217W        W53233  21.380   2.773  10.282  0.0640  0.0427 -0.1992
10218W        W53234  30.845   4.724   8.343 -0.3071 -0.0961 -0.1796
10219W        W53235  30.057  31.213   0.725  0.0015  0.1304  0.2003
10220W        W53236  16.141  32.603   6.816 -0.1600  0.3712  0.0127
10221W        W53237  16.513  31.935   0.642  0.1606 -0.1240  0.1894
10222W        W53238   5.570   8.367   2.235 -0.2678 -0.0810 -0.1348
10223W        W53239  17.948   6.179   9.529 -0.0410  0.2154 -0.1072
10224W        W53240  13.707  31.532   1.813  0.1430 -0.1356 -0.0486
10225W        W53241  15.368   4.608   2.781  0.2119 -0.0230 -0.1061
10226W        W53242  20.563  20.377  13.011  0.1527  0.3364  0.1382
10227W        W53243  14.531  31.821   8.878 -0.0800  0.1931 -0.0735
10228W        W53244   0.370   8.737  27.623 -0.0576  0.0996 -0.0270
10229W        W53245  28.528  13.762   2.714  0.5448 -0.2237  0.0803
10230W        W53246  24.105  13.225  25.869 -0.2428  0.1989 -0.3603
10231W        W53247  25.255  13.331   1.479 -0.1232  0.0414 -0.0353
10232W        W53248  28.302   4.738  21.427  0.0306  0.1539 -0.4550
10233W        W53249  15.110  32.339   0.947  0.0163  0.0384  0.1203
10234W        W53250  29.017   5.013   6.168  0.1222  0.0431  0.1316
10235W        W53251   8.798   8.691   5.756 -0.4549  0.2735 -0.2041
10236W        W53252  19.221  19.616  28.984  0.2310 -0.0443 -0.1374
10237W        W53253  13.584  24.490   3.557  0.1458  0.1548 -0.0894
10238W        W53254  13.305  26.500   3.061  0.2865 -0.0777  0.1228
10239W        W53255  15.683   1.215   6.075 -0.2014  0.5018 -0.0337
10240W        W53256  13.322   5.391  16.960 -0.2728  0.0397 -0.0244
10241W        W53257   3.248  23.791  10.316 -0.2017 -0.0932 -0.1805
10242W        W53258  26.251   3.304   5.286 -0.1601 -0.0464  0.0189
10243W        W53259  19.861  33.208   2.758  0.4169 -0.1625 -0.1222
10244W        W53260  15.377   7.745   3.745 -0.3393 -0.0463  0.0713
10245W        W53261   4.083  11.637  24.608  0.1533  0.2449  0.1058
10246W        W53262  20.972   5.173   9.946 -0.0595  0.0105  0.0619
10247W        W53263  10.073  30.935  23.102  0.1997  0.1358  0.4890
10248W        W53264  16.107  21.735   6.590 -0.0878  0.2235  0.0826
10249W        W53265   6.250  30.752   2.947 -0.0657  0.3283 -0.3389
10250W        W53266   2.155  29.027   0.260 -0.1100  0.0624  0.2864
10251W        W53267  22.159   1.929   8.520 -0.1432  0.3878  0.0230
10252W        W53268  13.699  11.487   6.023 -0.1928  0.1055 -0.1426
10253W        W53269  20.091   6.485   4.107  0.2268  0.3529  0.0831
10254W        W53270  22.221  19.305   4.148  0.1149 -0.0755 -0.1920
10255W        W53271  26.200   9.185   2.403 -0.1857 -0.1504 -0.0246
10256W        W53272  26.225  29.912  12.036  0.1871 -0.1179  0.1078
10257W        W53273  13.236   5.410   3.712 -0.2759  0.1787 -0.2615
10258W        W53274  11.494  32.709   2.069  0.1365 -0.0947  0.2831
10259W        W53275  17.567   8.832   3.570  0.0206 -0.2902 -0.1617
10260W        W53276  25.737   5.950  25.325  0.1243 -0.3716 -0.1693
10261W        W53277   7.929  25.425  28.883 -0.2841  0.3249 -0.1807
10262W        W53278  33.449  31.852   9.529  0.0128  0.0198 -0.1125
10263W        W53279  26.673   3.371   1.162  0.1493 -0.0944 -0.0936
10264W        W53280   7.401  26.292   6.983 -0.1021 -0.1892  0.0946
10265W        W53281  29.433  11.170   7.749 -0.0195  0.1788 -0.0759
10266W        W53282  28.937  11.599  27.549  0.2412 -0.0108  0.2647
10267W        W53283   9.028  21.017   5.515  0.1692 -0.0220 -0.3034
10268W        W53284  22.672   8.103   3.859 -0.1304  0.3274 -0.0609
10269W        W53285  32.996   9.808   4.294  0.0049  0.1364  0.1300
10270W        W53286   8.279   4.162   3.218 -0.1676  0.0642  0.3269
10271W        W53287  20.368  25.140   5.754 -0.2646 -0.1443  0.1053
10272W        W53288  31.940  28.064   6.448  0.3781 -0.1846 -0.2500
10273W        W53289  12.920  22.963  27.369 -0.1528 -0.2084  0.1168
10274W        W53290  28.545  30.291   3.719 -0.1594 -0.1784  0.1126
10275W        W53291  25.783  15.348   0.339 -0.0572  0.2077  0.0984
10276W        W53292   2.805  33.527   5.737 -0.1831  0.1284 -0.1017
10277W        W53293  12.913   7.649   7.855  0.2546  0.1183  0.1903
10278W        W53294  15.030  14.281   6.343 -0.1220 -0.0540  0.0424
10279W        W53295  21.566   6.457  21.012  0.2624 -0.1667 -0.0590
10280W        W53296  27.405   0.083  15.189 -0.2196 -0.1034 -0.0854
10281W        W53297  16.598  11.667  13.929 -0.1966 -0.2263  0.0076
10282W        W53298   2.742   0.547   9.281  0.1241  0.1040 -0.0441
10283W        W53299  30.868   1.059   5.231 -0.1800  0.1383  0.3355
10284W        W53300  16.413  32.812   1.703  0.1226 -0.0400 -0.0132
10285W        W53301  25.191   1.059   2.054  0.0399  0.0104 -0.0477
10286W        W53302  11.113   5.357   2.499 -0.1479  0.0292 -0.1115
10287W        W53303  23.635   6.659  25.369  0.2803 -0.0083  0.2188
10288W        W53304   0.416  18.580   8.463 -0.1059 -0.1137 -0.1023
10289W        W53305   2.306  13.407  21.500 -0.5319  0.0390 -0.1672
10290W        W53306  16.218  29.377   9.081  0.1655  0.0028  0.0244
10291W        W53307  13.467  20.539   4.976 -0.2293  0.1175  0.0244
10292W        W53308  32.644  32.176  14.749 -0.0470 -0.2696 -0.0235
10293W        W53309  18.019  31.645   3.356  0.0954  0.0624  0.2140
10294W        W53310  18.017  26.313   6.484  0.1068 -0.3173  0.2540
10295W        W53311   6.916  16.957   6.643  0.2172 -0.3261 -0.0995
10296W        W53312   9.253  13.782   8.982  0.0429 -0.0479  0.1417
10297W        W53313  30.242  14.076   2.703  0.3673  0.0431  0.3459
10298W        W53314  29.679  33.826  27.822 -0.0686 -0.3452 -0.0289
10299W        W53315  29.876  34.609   1.846 -0.0009  0.0815  0.3313
10300W        W53316  25.793   7.939   5.472 -0.3093 -0.0479 -0.2708
10301W        W53317  14.668   4.387   7.589  0.1767  0.1166 -0.0640
10302W        W53318  21.002  32.452   5.000  0.1623 -0.0619  0.0597
10303W        W53319  29.163   0.131  10.335  0.2442 -0.7113  0.2405
10304W        W53320  29.283  32.800   5.059  0.1098 -0.5442  0.1279
10305W        W53321  27.438   3.809   6.866  0.0442  0.1955  0.0465
10306W        W53322  31.461  14.693   8.433 -0.2591  0.1017 -0.0714
10307W        W53323  21.372  20.246   7.307 -0.0757  0.2122  0.2042
10308W        W53324  19.007   8.501   4.668 -0.1777 -0.0015  0.1636
10309W        W53325  13.466  29.962  10.931 -0.0607  0.0648  0.0610
10310W        W53326  28.364   0.764   2.835  0.0700  0.0799  0.3595
10311W        W53327  22.876  12.492  22.977 -0.3308 -0.1766  0.0859
10312W        W53328  21.540   2.694   6.147  0.3230 -0.3030 -0.1722
10313W        W53329  29.222  25.950  28.631  0.1245  0.0801  0.1298
10314W        W53330  18.583  12.569  25.327 -0.2973  0.3983 -0.1678
10315W        W53331  25.092  14.062   1.458  0.2482 -0.0330  0.4926
10316W        W53332  34.446  11.074   8.716  0.0504  0.2737  0.4371
10317W        W53333   6.012   5.233   1.115  0.1517 -0.0458 -0.0697
10318W        W53334  11.579  16.370   5.078 -0.0397 -0.0780 -0.3216
10319W        W53335  14.010   4.251   3.344  0.1222  0.0520 -0.1893
10320W        W53336  20.925   2.207   0.691  0.0160 -0.0648 -0.0017
10321W        W53337  15.700  26.453   1.784  0.0065  0.3506 -0.0321
10322W        W53338  20.222   2.206   4.331  0.3987 -0.1044 -0.3769
10323W        W53339  30.433   5.401   4.263  0.1031  0.0383  0.0998
10324W        W53340  19.964  28.153   3.328 -0.1286 -0.0185  0.4743
10325W        W53341  34.290  10.930   3.908  0.2563 -0.2951 -0.3064
10326W        W53342   9.728   1.356   5.469  0.2460  0.1500 -0.1425
10327W        W53343  14.490  19.618   4.092  0.0143  0.0066  0.0723
10328W        W53344  17.269  10.410  24.131  0.5083  0.2069 -0.1683
10329W        W53345   7.785  33.725   2.091 -0.2369  0.0230 -0.3439
10330W        W53346  33.097   4.774   0.992  0.2149  0.1933 -0.3043
10331W        W53347  14.138   8.492   8.158 -0.1398  0.0294  0.1815
10332W        W53348   9.231   7.686   4.248 -0.0988  0.1212  0.0299
10333W        W53349  34.138   7.918   9.463  0.2602 -0.5907  0.1106
10334W        W53350   9.072   2.161   2.165 -0.0101  0.0399 -0.0889
10335W        W53351  29.117   2.979   7.723  0.3570  0.2535  0.0067
10336W        W53352  25.605   7.453   5.509 -0.0680 -0.3512  0.2234
10337W        W53353  11.784   5.276   8.231  0.0722  0.1125  0.1204
10338W        W53354   9.044   7.506   8.074  0.0805  0.0095  0.2077
10339W        W53355  19.171   2.310   6.768  0.3858 -0.3293 -0.0069
10340W        W53356  22.401  31.131   9.294  0.1335 -0.2606  0.0277
10341W        W53357  16.340  33.649   1.270 -0.3596 -0.1357 -0.3148
10342W        W53358  19.108  33.743   8.671  0.1401  0.2153 -0.1205
10343W        W53359  19.494  31.134   6.761  0.4511  0.0736  0.0534
10344W        W53360  21.739  31.134   9.156  0.0365  0.0587  0.2379
10345W        W53361  13.534   3.279   4.152  0.2740  0.1080 -0.0750
10346W        W53362  11.693  11.357   0.974 -0.2145 -0.0967  0.0040
10347W        W53363  33.554   9.392   3.331  0.1176  0.0639 -0.1651
10348W        W53364  20.101  12.260   7.701 -0.0489 -0.2247 -0.2537
10349W        W53365   1.776  31.627  19.481  0.2483  0.1281  0.0325
10350W        W53366  14.745  22.361   2.936  0.0207 -0.1274 -0.2137
10351W        W53367  34.068   8.190   2.878 -0.3374  0.0718 -0.2348
10352W        W53368  22.791  10.815  15.981  0.0296  0.2218 -0.1579
10353W        W53369  31.618  15.641   0.648 -0.1542 -0.2678  0.1428
10354W        W53370   7.780   5.410  10.246 -0.1967  0.3788  0.0194
10355W        W53371   4.519   0.949   9.077 -0.1926 -0.3058 -0.0854
10356W        W53372  31.869   0.950   9.548 -0.0804  0.1872  0.0761
10357W        W53373  26.180   3.718   2.205 -0.0814  0.0377  0.2467
10358W        W53374  26.544   2.885  28.936 -0.1255  0.0158 -0.0611
10359W        W53375  32.942  18.131   9.205 -0.3176 -0.0524 -0.1924
10360W        W53376  16.506  18.692  27.309  0.3395  0.1685 -0.0473
10361W        W53377   7.412  29.110   0.180  0.2564 -0.0634  0.0075
10362W        W53378  14.474   7.671   1.689 -0.0817 -0.3576 -0.0841
10363W        W53379  30.835   5.557   4.011 -0.0791 -0.1488  0.1605
10364W        W53380  28.285   1.316  23.486 -0.1559 -0.0570 -0.5515
10365W        W53381  21.825  18.530   0.210 -0.1359 -0.0775 -0.2861
10366W        W53382  11.754  34.201  24.375  0.2269 -0.4359 -0.2214
10367W        W53383   2.953   1.566   4.105 -0.0149  0.0064 -0.2616
10368W        W53384  29.388   6.839  10.612 -0.0769 -0.0167 -0.1947
10369W        W53385  15.881  20.708  22.663  0.1869 -0.1245  0.2152
10370W        W53386  22.183  17.701   7.589  0.1720  0.0379 -0.0703
10371W        W53387  27.934   2.913   3.459  0.2903 -0.0279  0.2515
10372W        W53388  22.973   9.398  20.591 -0.1406 -0.4522 -0.2257
10373W        W53389  19.384   9.263   1.650  0.2223  0.1241 -0.0739
10374W        W53390  23.732  13.193  24.608  0.0667  0.0536  0.2582
10375W        W53391  17.921  28.231   7.877 -0.0678  0.1071  0.3889
10376W        W53392  29.120  28.301  22.997 -0.1052  0.0227  0.1839
10377W        W53393  34.198   6.909   0.869 -0.2203 -0.1474 -0.1688
10378W        W53394  11.781   3.253  14.292  0.1628 -0.1748  0.0694
10379W        W53395   7.004  31.432  20.924  0.3834  0.1570 -0.1216
10380W        W53396  29.848   4.862  25.123  0.1628 -0.1194  0.0100
10381W        W53397  18.735  28.152  20.762 -0.0655  0.2904  0.0244
10382W        W53398  19.825   7.197  21.964 -0.2004 -0.5521 -0.0264
10383W        W53399  25.542  13.044  28.665 -0.1138 -0.0425 -0.0133
10384W        W53400   7.535  22.975   4.620  0.2509 -0.0391  0.1305
10385W        W53401   2.452   4.237  28.094 -0.0608 -0.0073 -0.0915
10386W        W53402  26.139   4.810   0.251  0.1253 -0.1950  0.0662
10387W        W53403  21.334   1.518   2.504 -0.0280  0.3252  0.1984
10388W        W53404  17.749   3.356   2.208 -0.0993 -0.0692  0.1450
10389W        W53405  11.024  19.195   5.109 -0.1769  0.2316 -0.0093
10390W        W53406  34.620   7.344   0.099 -0.5432  0.2520 -0.2603
10391W        W53407  20.810  33.521   1.958  0.0091  0.0398  0.1695
10392W        W53408  32.661  23.823  26.618  0.2060 -0.2388 -0.1379
10393W        W53409   9.835  14.796  24.399 -0.3567  0.0664  0.2061
10394W        W53410  16.178   4.543  18.066  0.0274 -0.0108 -0.1278
10395W        W53411  28.683   3.221   6.818  0.0842 -0.0861  0.0059
10396W        W53412  17.899  18.119  25.492 -0.3795 -0.2817  0.1777
10397W        W53413  20.603   9.615   5.978 -0.0978 -0.0741 -0.0012
10398W        W53414  21.139  15.227   5.912  0.1515  0.1364  0.0493
10399W        W53415  20.825   6.757   5.951  0.0368 -0.2889 -0.0348
10400W        W53416  32.124  11.404   2.106  0.0550 -0.0054  0.1681
10401W        W53417  15.257   9.641  18.299  0.0373 -0.0277 -0.3325
10402W        W53418   9.829   2.245   0.200 -0.2351 -0.2202  0.0244
10403W        W53419   2.083   1.093   8.921 -0.0283  0.0779 -0.3756
10404W        W53420  33.390  23.193  10.499 -0.1313  0.0544 -0.1726
10405W        W53421  26.289   2.074  28.347  0.0155  0.0318 -0.1652
10406W        W53422  30.985   1.205   9.901  0.1600  0.0875 -0.1397
10407W        W53423  16.295   4.445   1.659 -0.0576  0.1243 -0.1588
10408W        W53424  12.350   7.323   8.642  0.3676  0.0532  0.3390
10409W        W53425  31.995   2.855   1.419 -0.1574  0.0697 -0.2759
10410W        W53426  24.038  18.010  25.905  0.1292 -0.0591  0.0323
10411W        W53427  23.997  15.331   3.073  0.0262 -0.0490  0.0265
10412W        W53428  27.654  24.079   7.841 -0.0614 -0.0875 -0.1204
10413W        W53429  32.191  17.003  28.955  0.2606  0.0517  0.0061
10414W        W53430  24.967   3.770   5.206  0.1495  0.0547 -0.2121
10415W        W53431  29.343   5.978  22.553  0.0947  0.2509 -0.1071
10416W        W53432  26.708  15.342  21.182  0.0244 -0.2485 -0.2208
10417W        W53433  30.867  16.238   8.731  0.2315  0.1157  0.0925
10418W        W53434  32.918  10.247  10.707  0.0932  0.0185 -0.0915
10419W        W53435  16.683  13.941   7.843  0.2363 -0.1016 -0.0188
10420W        W53436  17.491   6.975   7.907 -0.1466 -0.1343 -0.1350
10421W        W53437  13.312   9.399   6.470  0.0581  0.0976 -0.2391
10422W        W53438  28.264  11.214  10.088 -0.1470 -0.3044  0.0175
10423W        W53439  14.332  20.220   8.915 -0.1324 -0.0295 -0.2073
10424W        W53440  21.073  26.972   4.052  0.1409 -0.0149 -0.1363
10425W        W53441  15.456  34.490   2.619 -0.1282  0.0927 -0.1321
10426W        W53442  29.481  19.000   5.997  0.0903 -0.2607 -0.1704
10427W        W53443  31.659  27.182   7.231 -0.0898 -0.2625 -0.1961
10428W        W53444  19.725  27.359   8.074  0.0910 -0.1459  0.4412
10429W        W53445  13.953   1.184   7.897 -0.1141 -0.0812  0.1184
10430W        W53446  24.135  26.272  11.335 -0.0602  0.1505 -0.1304
10431W        W53447  26.057  12.200   3.462 -0.3793  0.0827  0.2240
10432W        W53448  22.791   5.950   7.769  0.2848  0.1320 -0.4070
10433W        W53449  13.291  23.819   4.670 -0.1810 -0.1589  0.2143
10434W        W53450  19.762  27.443   3.884 -0.0056 -0.2618 -0.1881
10435W        W53451  23.410   7.496   8.720 -0.0570  0.1941  0.1640
10436W        W53452  13.637  30.815  10.496  0.0457  0.3150  0.2132
10437W        W53453  21.920   4.713   8.920  0.0670  0.0586  0.0606
10438W        W53454  16.435  10.627  24.569 -0.2233 -0.2525  0.0313
10439W        W53455  21.160   9.033  28.510 -0.0455  0.1808  0.3217
10440W        W53456  24.905  30.626  28.895  0.1478 -0.2154 -0.1563
10441W        W53457   9.974  17.294   8.111 -0.0572  0.1198 -0.1258
10442W        W53458  21.724  26.609   5.562 -0.0229  0.2410 -0.2490
10443W        W53459  22.853  32.228   2.895  0.0490 -0.0646  0.1337
10444W        W53460  28.362  11.847   9.535 -0.2617 -0.1532 -0.0157
10445W        W53461  30.337   4.427  26.524  0.0999 -0.2728  0.3649
10446W        W53462  14.397   5.071   1.042  0.1960 -0.2454 -0.0565
10447W        W53463  13.693  24.901   4.412  0.0839  0.1167  0.0143
10448W        W53464  17.648  10.893  28.183 -0.0098  0.1016  0.0756
10449W        W53465  24.720  22.161   1.167 -0.2180 -0.0850  0.1960
10450W        W53466  24.087  33.071   3.180 -0.2577 -0.2079 -0.1522
10451W        W53467  16.714  11.473   8.123  0.0482 -0.1486 -0.1955
10452W        W53468  16.955  33.342  27.119 -0.0630  0.0496 -0.2756
10453W        W53469   9.509  33.769  22.562 -0.0192  0.1891  0.0725
10454W        W53470  13.600  32.777   5.816 -0.2245 -0.3665  0.1243
10455W        W53471  23.907   5.065   5.792  0.2349 -0.0122  0.1092
10456W        W53472  27.960  14.839   7.057  0.0754  0.2332 -0.0510
10457W        W53473  26.919  16.678   8.812  0.1864  0.1627  0.3025
10458W        W53474  13.088  21.091   7.276 -0.1588  0.0030 -0.1148
10459W        W53475  14.328  33.130  22.524 -0.0621  0.1569  0.2460
10460W        W53476  28.324  14.178   2.970 -0.1378  0.1838  0.2733
10461W        W53477  24.593   9.216  24.832  0.2795 -0.2325 -0.0828
10462W        W53478   1.475  21.299   3.278  0.1572 -0.4176  0.1578
10463W        W53479  26.665  32.469   9.997  0.0420  0.3282 -0.1160
10464W        W53480  16.203  32.068   6.006  0.2175 -0.3958  0.3976
10465W        W53481  10.005  20.949  24.330  0.3108 -0.0242 -0.2274
10466W        W53482   5.476   3.067   9.524  0.0394 -0.2963  0.0742
10467W        W53483  21.820  27.765   3.719  0.0664 -0.2212 -0.1731
10468W        W53484  23.987  14.655   7.906  0.1757  0.1380 -0.0110
10469W        W53485  11.334   6.875  26.078 -0.1235  0.0935  0.2525
10470W        W53486  14.105   9.849   0.957  0.1883  0.0179  0.1006
10471W        W53487  24.097   3.520  10.717  0.2266 -0.0680 -0.1723
10472W        W53488   1.914   4.863   9.856  0.0236 -0.1177  0.1586
10473W        W53489  32.007  10.647  27.037 -0.3476 -0.0184 -0.2731
10474W        W53490  20.183   4.565  22.613  0.1845  0.0505  0.2738
10475W        W53491  24.253  16.498   5.603 -0.3857  0.2518 -0.0843
10476W        W53492  16.484   8.510  25.150  0.1171  0.2063 -0.2128
10477W        W53493  18.062  34.512   2.225 -0.1627 -0.1512 -0.1957
10478W        W53494  21.035  28.653   0.983  0.4559 -0.4565  0.2283
10479W        W53495  30.192  27.375   9.452  0.1956  0.1977 -0.3375
10480W        W53496  12.448  17.488  22.099 -0.0078 -0.3411 -0.2693
10481W        W53497  31.458  18.079   5.392  0.2277  0.2493 -0.4537
10482W        W53498  19.447   1.789   9.053  0.6865 -0.1406 -0.1320
10483W        W53499   7.894  16.542   1.111 -0.1133 -0.3190 -0.1298
10484W        W53500  18.558   9.087   7.801  0.0026 -0.0463 -0.3861
10485W        W53501  20.181  34.540   8.544  0.1025  0.1894  0.2867
10486W        W53502  23.772  31.607   7.647  0.1418 -0.1845 -0.2676
10487W        W53503  25.315  34.699  19.243  0.2831 -0.2475  0.0776
10488W        W53504  28.391  21.559   3.467  0.1541  0.1077  0.1920
10489W        W53505  19.007  16.022  22.420  0.0069  0.0156  0.0751
10490W        W53506  13.952  32.814   2.614  0.1540 -0.0674  0.4334
10491W        W53507  12.314   8.647   8.283  0.2694  0.2567 -0.1274
10492W        W53508   7.011  25.128   4.585  0.2622  0.2044  0.1224
10493W        W53509  28.819   1.012  10.357 -0.0149 -0.2392  0.2688
10494W        W53510  11.721   8.071   9.605  0.3761  0.2550  0.3751
10495W        W53511   5.888  31.242  10.310 -0.3092  0.2333  0.3145
10496W        W53512  10.557  14.251   8.773  0.0500 -0.0568 -0.0958
10497W        W53513  18.589  30.797   6.336 -0.3248  0.1518  0.4097
10498W        W53514  13.338   2.103  27.103 -0.0927 -0.0127 -0.1900
10499W        W53515  10.910  33.265   4.077  0.3650  0.1929  0.0516
10500W        W53516  18.456  26.288  24.083 -0.2210  0.1193 -0.0109
10501W        W53517  19.574   3.004   2.833  0.0926 -0.2895  0.1668
10502W        W53518   9.569   7.701   4.790  0.0715 -0.1762  0.1897
10503W        W53519  15.138   5.904   3.790 -0.3412 -0.0279 -0.1391
10504W        W53520  11.242   8.624   0.662  0.0966 -0.1556 -0.0710
10505W        W53521  26.230  19.151   9.726 -0.1391 -0.0852  0.1435
10506W        W53522   4.070  17.519  26.774 -0.4270 -0.2300  0.2054
10507W        W53523   3.310  15.470  25.797  0.3439  0.0569 -0.0512
10508W        W53524  22.159   6.748   3.814 -0.0762 -0.0651  0.0484
10509W        W53525  16.636  11.784   7.139  0.0135  0.2105 -0.3857
10510W        W53526   1.249   2.804   7.129  0.1053 -0.1472  0.0354
10511W        W53527  30.533  13.802   4.634  0.1328  0.0828 -0.2821
10512W        W53528  24.486  15.236   2.204 -0.0241  0.0170  0.1003
10513W        W53529  16.466   8.196  10.022  0.4381 -0.3167  0.1199
10514W        W53530  17.554   5.747   5.470  0.5343  0.4409 -0.3093
10515W        W53531  28.986  17.412   9.375 -0.0451 -0.0863 -0.2809
10516W        W53532   0.990   3.197  25.907 -0.1352  0.2116 -0.0444
10517W        W53533  18.030   6.655   8.823  0.1514 -0.0923  0.2375
10518W        W53534  20.451   5.383   5.593 -0.1968  0.0177 -0.1131
10519W        W53535  19.027   9.582   6.705 -0.1117  0.1595  0.1849
10520W        W53536   1.440   2.837   0.330  0.0766 -0.0738  0.0405
10521W        W53537  21.115  24.418  23.398 -0.2954  0.1569  0.1438
10522W        W53538  33.938  11.192   3.201  0.2837  0.3275  0.0269
10523W        W53539  12.807   7.367   3.200  0.0725  0.2949  0.0866
10524W        W53540  28.281  15.130   9.353  0.2349  0.2357 -0.2005
10525W        W53541  22.271  13.458   8.761 -0.2588 -0.0522 -0.1278
10526W        W53542  16.094  29.938   3.203 -0.3654 -0.0569  0.1792
10527W        W53543  24.384  25.994   7.578  0.1679  0.1174  0.4976
10528W        W53544  18.445  18.337   3.702  0.2739 -0.1258  0.1117
10529W        W53545  24.837   6.764   2.580  0.0166  0.2750  0.0385
10530W        W53546  25.953  21.291   9.349 -0.3237 -0.0599 -0.0460
10531W        W53547  14.120  10.355  28.948 -0.1109  0.2826  0.0883
10532W        W53548  14.740  10.363   7.875 -0.1700  0.2696  0.3041
10533W        W53549  24.198  31.600   3.773 -0.0751 -0.1269  0.0698
10534W        W53550   7.544  16.137   5.397 -0.3873 -0.0599 -0.1516
10535W        W53551  19.615   3.512   6.408 -0.3393  0.1398 -0.0720
10536W        W53552   7.825  34.028   8.813  0.0837  0.1221  0.1734
10537W        W53553  26.236   2.315   2.312 -0.1913  0.0142 -0.1424
10538W        W53554  17.788  14.630  25.171 -0.1266 -0.1080  0.2401
10539W        W53555  10.853   7.299   4.549  0.0049 -0.2067 -0.2385
10540W        W53556  20.500   4.946   3.286  0.3801 -0.2742  0.2173
10541W        W53557  27.778  33.964   8.309  0.0978 -0.1578 -0.2966
10542W        W53558  29.389   9.843  22.673 -0.1997 -0.1043  0.2895
10543W        W53559  13.103  19.896  26.859 -0.0825 -0.0272  0.1239
10544W        W53560  19.100   1.315  10.807  0.1676  0.0786 -0.0931
10545W        W53561  21.946  17.549  27.868 -0.0341  0.0566  0.5503
10546W        W53562  24.361   5.025  16.567 -0.3929 -0.0761  0.0484
10547W        W53563  29.792   8.686   5.428 -0.1588 -0.0489  0.2163
10548W        W53564  22.981   1.732   3.827  0.2941  0.1222 -0.1835
10549W        W53565  11.259   8.784  26.521 -0.0630 -0.3781 -0.0519
10550W        W53566  17.683  30.922   5.625  0.2207  0.0845 -0.1169
10551W        W53567  32.755  15.670   1.446  0.0818  0.0077  0.3141
10552W        W53568  30.114  31.118  11.645  0.0781  0.1255  0.1094
10553W        W53569  20.722  14.293  26.065  0.1139  0.2994 -0.1537
10554W        W53570  18.196   6.736   1.166 -0.4239 -0.1312 -0.1025
10555W        W53571   3.864  27.337   7.099 -0.2848 -0.0072 -0.1313
10556W        W53572  12.044  34.435  28.584  0.0945 -0.3795  0.2991
10557W        W53573  31.675   1.885  28.337 -0.1182 -0.0822  0.1746
10558W        W53574  13.908   4.394   5.603 -0.1932 -0.3844 -0.1573
10559W        W53575  33.417  22.794  13.838  0.2214  0.0358 -0.1833
10560W        W53576  12.244   3.973   1.124  0.0583  0.1699 -0.2537
10561W        W53577  25.976  31.453  24.335  0.0479  0.1809  0.0046
10562W        W53578  22.274  13.910   4.121 -0.0006 -0.0399 -0.2022
10563W        W53579  26.750   2.880   6.087  0.2185  0.0139 -0.3396
10564W        W53580  15.311   2.544   3.203 -0.1494 -0.0309 -0.2708
10565W        W53581  29.080  30.064  26.271 -0.0649 -0.2871 -0.0020
10566W        W53582  30.009  31.668  29.195  0.0265  0.1884 -0.0150
10567W        W53583  28.574  29.038  10.093  0.0665  0.0232  0.0537
10568W        W53584  16.632  12.648  26.419 -0.0049 -0.1199  0.1414
10569W        W53585  17.005   9.883   2.140 -0.0692 -0.0917 -0.1335
10570W        W53586   4.146   7.444   0.367 -0.2175 -0.3229 -0.0176
10571W        W53587  20.955   8.999  26.771 -0.0305  0.2609 -0.0553
10572W        W53588   6.275   0.536   5.952 -0.0860 -0.0872 -0.1539
10573W        W53589  14.000  10.448   9.211 -0.0072 -0.0510  0.0108
10574W        W53590  12.316  15.657  28.367 -0.0685 -0.0533 -0.0844
10575W        W53591  27.051  16.529  21.657 -0.2274 -0.2524 -0.0784
10576W        W53592  21.871   4.066   4.846 -0.2675 -0.1146 -0.2343
10577W        W53593  18.069   1.523   1.732  0.2049  0.2922 -0.0277
10578W        W53594  10.405  20.290  28.621 -0.1844  0.0733 -0.0831
10579W        W53595  16.601   6.263   9.867 -0.1416 -0.1978  0.2094
10580W        W53596  26.980   0.607   9.255  0.0796 -0.2426 -0.2724
10581W        W53597  24.177  34.661   1.117 -0.0864  0.0755 -0.2584
10582W        W53598   2.927  28.347   3.703 -0.1614  0.1206  0.0226
10583W        W53599  22.611   4.259   9.587  0.2483  0.0520  0.2933
10584W        W53600  11.848   4.277   9.595 -0.1793 -0.0498 -0.1108
10585W        W53601  21.988   9.359   3.670  0.2036 -0.1192  0.0867
10586W        W53602  26.862  12.810   3.247 -0.5152  0.1417 -0.0507
10587W        W53603  16.592   0.831   0.518 -0.0458  0.2013 -0.2309
10588W        W53604  20.514   2.140  27.782 -0.2360  0.0578 -0.0541
10589W        W53605  23.737   0.544   4.840 -0.1075  0.1837 -0.2882
10590W        W53606  16.262  30.884  24.074 -0.0803 -0.0294 -0.2641
10591W        W53607  14.239  18.376   7.274  0.1295 -0.0930  0.3933
10592W        W53608  24.499   7.372   6.153  0.2959 -0.2744  0.0185
10593W        W53609  17.720  12.225   1.768 -0.0469 -0.0576  0.1223
10594W        W53610   4.409  13.566  24.770 -0.2309  0.5057  0.1387
10595W        W53611  10.510  32.066   3.489 -0.1545 -0.3010 -0.0144
10596W        W53612  18.128   6.234   2.299  0.4251 -0.1470 -0.2223
10597W        W53613  21.566   4.319   5.123  0.1202  0.2505 -0.0916
10598W        W53614  20.483   7.833  28.074 -0.0102  0.0287  0.0363
10599W        W53615  16.546  16.391  17.796 -0.3210  0.2039 -0.1964
10600W        W53616  15.813  14.166  27.135 -0.1477  0.0177 -0.1538
10601W        W53617  28.653   5.283   8.478  0.0730 -0.0215  0.1117
10602W        W53618  21.710  10.964  28.812 -0.3210 -0.0336 -0.1435
10603W        W53619  11.094   1.145  22.960 -0.1245  0.2704  0.0708
10604W        W53620  14.817  16.686   6.175  0.1864 -0.0225  0.5089
10605W        W53621  16.671   9.798   2.557  0.1313  0.1714 -0.0293
10606W        W53622  15.603  29.638   1.392 -0.0353 -0.1641  0.1153
10607W        W53623  31.004  16.739  10.791  0.0239 -0.2202 -0.1479
10608W        W53624  23.896  29.000  10.023  0.0265 -0.0417  0.0430
10609W        W53625  11.265  28.738   1.089  0.0321 -0.0254  0.0756
10610W        W53626   3.086   6.563   1.418 -0.0758  0.0440  0.1283
10611W        W53627  19.925   9.259  27.120 -0.1280 -0.0572  0.1043
10612W        W53628   3.484   9.917   7.185  0.1198  0.3014  0.1266
10613W        W53629  32.905   7.553   3.390  0.1344 -0.3005 -0.0101
10614W        W53630  19.167   8.105   3.568  0.0546  0.0453 -0.3645
10615W        W53631   1.545  32.001  10.491  0.2052  0.0178 -0.0299
10616W        W53632  21.503   9.107  28.078  0.0297 -0.2383  0.0507
10617W        W53633  33.889  10.333   3.365  0.2619  0.0297  0.0236
10618W        W53634  19.448  31.408   8.246  0.0246  0.1370 -0.0039
10619W        W53635  20.049  32.712   6.292  0.0549  0.0439 -0.4313
10620W        W53636  19.688  33.652   9.519 -0.0389 -0.2762 -0.0590
10621W        W53637  21.549   4.804  28.842 -0.1653  0.0504 -0.2122
10622W        W53638  25.019   2.246   4.012 -0.0010 -0.1666  0.1955
10623W        W53639  18.006   5.140   9.204 -0.0778  0.2185 -0.2645
10624W        W53640   3.598  26.335   3.514 -0.2534 -0.2956  0.0933
10625W        W53641  16.422  10.538   6.517  0.0356  0.2351  0.0953
10626W        W53642  25.448   2.894   2.185 -0.1536  0.0419  0.3880
10627W        W53643  25.717  31.521   0.494  0.0181 -0.0250 -0.1070
10628W        W53644  10.884  28.628  25.547  0.2123 -0.0855  0.0739
10629W        W53645  29.378   7.218   6.708  0.2273  0.1801 -0.0525
10630W        W53646  14.191   4.418   4.232 -0.0042  0.1140  0.0149
10631W        W53647  21.098   4.212  22.431  0.3193 -0.2719 -0.1300
10632W        W53648  28.874   3.959  28.954  0.2344 -0.1008 -0.1623
10633W        W53649  16.049   1.683  24.217  0.0759 -0.1461  0.1111
10634W        W53650  12.245  27.950   8.069  0.0841 -0.1166  0.1536
10635W        W53651  13.067  18.796   4.480  0.1598  0.0006  0.0015
10636W        W53652   0.366  12.384   8.208 -0.0447 -0.0878 -0.3091
10637W        W53653  26.912  26.369  26.484 -0.1661  0.1533  0.1634
10638W        W53654  27.500  13.333   3.397 -0.0769  0.0178 -0.1705
10639W        W53655  21.980  22.650   2.286  0.3548 -0.0176  0.1010
10640W        W53656   1.046  32.040   2.979 -0.1193 -0.1084 -0.2096
10641W        W53657  17.043   7.147   6.969  0.1249 -0.1995 -0.1221
10642W        W53658  19.059  33.639   2.848 -0.0369 -0.2131  0.1431
10643W        W53659  22.199  20.264   0.827 -0.5659  0.0942  0.5489
10644W        W53660  25.657   4.817   2.821 -0.2358 -0.0962 -0.2554
10645W        W53661  18.746   0.164  26.858 -0.1780  0.3566 -0.2074
10646W        W53662  27.875  17.673   2.580  0.2116 -0.0036  0.0168
10647W        W53663  20.831   6.171   3.549 -0.0587  0.0343 -0.0687
10648W        W53664  27.111  10.928  20.418  0.2550  0.1668  0.2381
10649W        W53665  24.574  12.311  22.026 -0.0696 -0.0194  0.1279
10650W        W53666  23.468  31.595   8.663  0.0469 -0.0561 -0.0114
10651W        W53667  11.625  28.387  29.170 -0.0253 -0.1573 -0.0407
10652W        W53668  21.894  14.928   3.848  0.1440 -0.1404  0.0478
10653W        W53669  14.666   5.585  25.668 -0.1335 -0.2497  0.3045
10654W        W53670  27.231   1.470   7.362 -0.1286  0.0698  0.1244
10655W        W53671  32.927  28.974   3.695 -0.2859  0.3784  0.0896
10656W        W53672  30.326  19.350  24.699 -0.2439  0.1462 -0.0921
10657W        W53673  16.733   3.590   9.841 -0.1599 -0.0468  0.3095
10658W        W53674  31.163  10.146   3.740  0.0529  0.2152  0.2215
10659W        W53675  26.676   4.687   9.118  0.0925 -0.3516 -0.1725
10660W        W53676  25.443  28.339   4.668  0.3383 -0.1209  0.2688
10661W        W53677   9.768   4.118   9.204  0.0722 -0.1813  0.0083
10662W        W53678  29.884  14.654   6.212 -0.4453 -0.2443 -0.1742
10663W        W53679  32.963   2.503   8.732  0.1039 -0.0646  0.0998
10664W        W53680  23.579  17.226  19.675 -0.3275  0.1332 -0.2564
10665W        W53681  10.311   9.201   8.169 -0.1366 -0.1461 -0.1285
10666W        W53682  19.173  27.650   6.501  0.2039  0.0594 -0.1301
10667W        W53683  33.128  19.729  27.906 -0.0608  0.0345  0.0839
10668W        W53684  19.766  10.116  19.681 -0.3021 -0.1476  0.1474
10669W        W53685  16.556   6.356  15.373 -0.1445 -0.1946 -0.0276
10670W        W53686  23.917  22.177   7.317  0.0561  0.0460 -0.1171
10671W        W53687  12.276   1.517   6.518  0.3288 -0.0314  0.0711
10672W        W53688  19.524  32.767   2.813  0.0639  0.0655  0.1237
10673W        W53689  24.027  28.622   0.051  0.2658 -0.0256 -0.0228
10674W        W53690  17.381   6.456   5.041 -0.3119  0.3189  0.5349
10675W        W53691   8.627  15.463  21.953 -0.0608 -0.2329  0.1291
10676W        W53692   1.764   4.686   6.595  0.1531 -0.2257 -0.2137
10677W        W53693   9.015   3.597   7.873  0.3070  0.0515 -0.1580
10678W        W53694  31.305  12.366   4.817  0.0338  0.1793 -0.0614
10679W        W53695  34.394  11.562   2.343 -0.0671  0.1207  0.1976
10680W        W53696   3.161  33.194   9.321  0.3238  0.1177  0.1759
10681W        W53697  21.985   5.968   8.043 -0.0165 -0.3135  0.2355
10682W        W53698  19.694   0.297   0.712 -0.2085  0.3860 -0.1990
10683W        W53699   3.680   6.655   8.422 -0.3310  0.1525  0.0769
10684W        W53700   2.328   0.071  15.202 -0.3348 -0.0379  0.1073
10685W        W53701  16.606   8.633   3.746  0.1763 -0.2855  0.3122
10686W        W53702   8.714  17.866  14.682 -0.1131 -0.1160 -0.0509
10687W        W53703  29.938   5.115  16.743  0.3646 -0.0121 -0.2048
10688W        W53704  21.042   0.622  27.109 -0.1712  0.1155 -0.1013
10689W        W53705  30.884   6.040  26.171 -0.2966 -0.0204 -0.1008
10690W        W53706  27.695  18.697  24.947 -0.0991 -0.1675 -0.1109
10691W        W53707  34.259  26.404   8.876 -0.2761 -0.2069  0.2511
10692W        W53708  15.389  13.577   1.532  0.1825 -0.0209  0.4153
10693W        W53709  25.399  17.716  23.095  0.0954 -0.2636 -0.1070
10694W        W53710  25.458   8.539   8.930  0.1056 -0.0958  0.0047
10695W        W53711   6.767   4.093  21.154 -0.3654 -0.1748  0.0838
10696W        W53712  30.733   8.499   6.924 -0.2103  0.0925  0.2751
10697W        W53713  17.927   4.162   6.323 -0.0725  0.1519  0.0979
10698W        W53714   0.180  13.643   1.978 -0.1152  0.2882 -0.3316
10699W        W53715   2.465  14.371  25.445  0.2238 -0.0353 -0.0140
10700W        W53716  23.118  30.533   7.327 -0.1397  0.2824  0.0439
10701W        W53717  20.070   3.273   3.872  0.0432  0.2722 -0.1366
10702W        W53718  28.483   7.556   6.381 -0.2882 -0.1922  0.2087
10703W        W53719  13.869  22.928  13.407 -0.2640 -0.1257 -0.0225
10704W        W53720  28.665  16.034   5.377  0.0481 -0.0215  0.1159
10705W        W53721  23.756  31.527  26.310  0.0204 -0.2629 -0.2627
10706W        W53722  21.504  26.053   4.590  0.0401  0.0769  0.3387
10707W        W53723  28.829   5.573  24.113 -0.0933 -0.0894 -0.2352
10708W        W53724  28.758  20.708   4.698  0.0205  0.2535 -0.0275
10709W        W53725  19.964  15.564  26.537  0.0325  0.1410 -0.1518
10710W        W53726   9.386  18.267   5.145 -0.0837  0.1752  0.0962
10711W        W53727  16.124   7.007  27.040 -0.1786  0.4100  0.1996
10712W        W53728  31.078  27.388  10.296 -0.1923 -0.2475  0.0646
10713W        W53729  14.553   8.553  26.325 -0.0746  0.2643 -0.0066
10714W        W53730  10.135  31.810  25.360 -0.1600  0.1045  0.0792
10715W        W53731  32.283  29.746  23.058 -0.1215  0.1889  0.0722
10716W        W53732  17.071  18.948   7.014  0.2345  0.1677 -0.0607
10717W        W53733  30.748   6.470   5.680 -0.2201  0.2372  0.2607
10718W        W53734  26.163   5.760  10.361 -0.0853  0.0044 -0.0337
10719W        W53735  15.911  34.623   7.747 -0.0542 -0.2306 -0.1641
10720W        W53736  27.941  14.101   2.247  0.2403  0.2261 -0.1059
10721W        W53737  26.426  11.626   2.951 -0.0107  0.4028 -0.1488
10722W        W53738   4.734   8.025   6.995  0.1652  0.1352  0.1320
10723W        W53739   8.309  22.377  23.977 -0.0795  0.3762 -0.4186
10724W        W53740  15.279  22.129  27.215 -0.0326 -0.2389  0.1579
10725W        W53741  23.285  33.205  17.680 -0.0570 -0.0334  0.4879
10726W        W53742  21.070   8.852   3.430 -0.0369 -0.1050 -0.0440
10727W        W53743  26.216  32.062  26.792 -0.0529 -0.2148  0.1792
10728W        W53744  33.279  10.415   8.035  0.1964 -0.1094 -0.1643
10729W        W53745  13.540   1.313  18.016  0.1407  0.2028 -0.1100
10730W        W53746  20.892  19.709  22.821 -0.0222 -0.3751  0.1235
10731W        W53747   4.202  27.544   9.851 -0.2910 -0.0242  0.0300
10732W        W53748   0.083  34.469   0.478 -0.0550 -0.1555 -0.0863
10733W        W53749  15.649  10.825   1.314  0.0717  0.0069  0.0138
10734W        W53750  32.182  11.565  19.101 -0.0699 -0.2235  0.1319
10735W        W53751  18.352   9.408   3.836 -0.1259 -0.1789 -0.3352
10736W        W53752  30.821   2.647   8.435  0.1360 -0.0742  0.0779
10737W        W53753  20.354   3.483  29.218 -0.2072 -0.3382 -0.1288
10738W        W53754  14.827   3.845   2.999 -0.0412  0.0805  0.0699
10739W        W53755  26.001  16.938   8.950 -0.3252 -0.1094 -0.2586
10740W        W53756  17.503   8.303   5.585  0.0975 -0.2197 -0.1157
10741W        W53757   4.379   0.009  26.713  0.0480 -0.0562 -0.1231
10742W        W53758   2.321  33.200   8.340  0.2348 -0.0146  0.0174
10743W        W53759  15.065  31.632   2.022 -0.1743 -0.2696 -0.0137
10744W        W53760  16.282   3.574   3.691 -0.3262 -0.0228  0.0596
10745W        W53761   4.637  32.908   7.428 -0.0129  0.3844 -0.2668
10746W        W53762   7.753   2.068  27.561 -0.2115  0.1527 -0.0639
10747W        W53763  14.447  14.511   8.181 -0.1071  0.0172 -0.1081
10748W        W53764   3.924   4.663  14.662  0.0922 -0.0273 -0.0447
10749W        W53765   1.477  15.449  14.891 -0.1237 -0.0670 -0.0501
10750W        W53766   5.300  29.175  27.804 -0.3094 -0.0254  0.0506
10751W        W53767   1.226   1.746   9.759 -0.1437 -0.1181  0.1176
10752W        W53768  34.073  21.449   6.554 -0.0869 -0.3008  0.0292
10753W        W53769  21.754  21.468   9.144  0.1598  0.1720 -0.2780
10754W        W53770  17.319   6.491   2.754 -0.0737 -0.0601  0.0538
10755W        W53771   3.885   5.095   2.549 -0.2976 -0.0267  0.1049
10756W        W53772  31.129  10.320  15.296 -0.0363 -0.0528  0.1893
10757W        W53773  27.277  10.427  27.480  0.4146  0.1035 -0.4236
10758W        W53774  24.471  14.348  23.545 -0.1027  0.0009 -0.0356
10759W        W53775  13.483  23.096   7.625 -0.3052 -0.1705 -0.3543
10760W        W53776  28.956  15.945   4.341 -0.0432 -0.1392  0.1096
10761W        W53777  34.663  10.851   0.917 -0.0292  0.0411  0.1318
10762W        W53778  13.305  29.704  20.713  0.1141  0.0088 -0.1596
10763W        W53779  25.279  28.777   4.525  0.0186 -0.1913 -0.2271
10764W        W53780  16.499   3.349  26.110  0.3278  0.2358  0.0574
10765W        W53781   0.101  15.721   2.829  0.3734 -0.0541  0.1409
10766W        W53782  27.632   7.830  27.595  0.1894 -0.4351 -0.4716
10767W        W53783  13.054  16.844  24.274  0.0202  0.0134  0.1507
10768W        W53784  14.779   5.753   5.186 -0.3740  0.0291 -0.0067
10769W        W53785   1.696   2.496  10.071  0.0134  0.0380  0.0679
10770W        W53786  25.533  10.514   9.492  0.1087 -0.0997 -0.0971
10771W        W53787  27.458   7.654   0.924  0.0296 -0.0348  0.1067
10772W        W53788  19.550   8.502   5.615 -0.1018  0.0821 -0.0951
10773W        W53789  25.050  14.079   3.867 -0.0385 -0.2849 -0.1841
10774W        W53790  23.026  11.732   6.100 -0.2122  0.0765  0.3107
10775W        W53791  26.259  26.261  26.765 -0.0055 -0.1782  0.0414
10776W        W53792  10.990   7.619   0.918 -0.2571  0.1616  0.2381
10777W        W53793  17.685   7.607  29.002 -0.0231  0.1061  0.4918
10778W        W53794  17.004  19.162  25.045  0.1889 -0.0719  0.1220
10779W        W53795  25.047  16.277   4.017  0.0446  0.0058  0.3156
10780W        W53796   6.552  15.068  19.677 -0.1879 -0.2894  0.0340
10781W        W53797  34.564  18.050   0.062  0.4319  0.2678 -0.0151
10782W        W53798   7.956  13.412   2.696  0.0060  0.2977  0.1304
10783W        W53799   2.954   0.063   7.166 -0.0870  0.3345  0.0529
10784W        W53800  25.736  22.061  26.398 -0.0766  0.1157 -0.1635
10785W        W53801  11.278  32.227  27.804  0.1823  0.2116 -0.1959
10786W        W53802  23.821   8.984  27.489  0.2538  0.0818  0.0293
10787W        W53803  14.569   9.604   7.586 -0.3770 -0.0352 -0.0360
10788W        W53804   5.402   8.971  27.448  0.0700 -0.2583 -0.0651
10789W        W53805  16.042  16.828   2.388  0.0297  0.1988 -0.5336
10790W        W53806   6.609  22.394   5.486  0.2950  0.2387 -0.2055
10791W        W53807   8.060  10.652   8.568  0.0382 -0.1883  0.0712
10792W        W53808  15.265   2.442  16.984 -0.0737  0.0079  0.2853
10793W        W53809  20.414  17.566   4.206 -0.2629 -0.0327  0.1150
10794W        W53810  24.541   8.743  10.129 -0.0228 -0.1816 -0.2544
10795W        W53811  25.466  11.618   7.946 -0.2449  0.1045  0.3358
10796W        W53812  34.143   6.995   4.087 -0.0551 -0.4076  0.1197
10797W        W53813  20.676   8.465   3.442 -0.1576 -0.0501  0.0011
10798W        W53814  12.942  18.574   0.014  0.3173  0.0067  0.3577
10799W        W53815   8.151  12.240   1.459  0.1033 -0.0928 -0.1601
10800W        W53816  12.040   8.386  27.337  0.1235 -0.1240 -0.0408
10801W        W53817  26.512  15.876   0.647  0.3098  0.1693 -0.0133
10802W        W53818  12.216   6.960  17.906  0.3541  0.4577 -0.0957
10803W        W53819   1.037  26.929  20.000 -0.2520 -0.0359  0.0308
10804W        W53820  16.657  13.557  22.014 -0.1052  0.0207 -0.1210
10805W        W53821  27.260  11.688   3.866  0.1067 -0.0897  0.5239
10806W        W53822  25.037  34.430  26.070 -0.1287 -0.2554 -0.0463
10807W        W53823   8.535   8.101   2.741 -0.3300  0.0911  0.5000
10808W        W53824  24.096  13.169   4.147 -0.1404 -0.1146  0.2714
10809W        W53825   0.609  16.188   6.949 -0.0103  0.1008 -0.1524
10810W        W53826  21.305   1.414  10.202  0.0114 -0.0216  0.0867
10811W        W53827  11.614  13.527  26.544  0.3393 -0.4045  0.1637
10812W        W53828  13.434  28.941   3.541  0.3751 -0.2213  0.2099
10813W        W53829  25.101   4.229  10.215  0.2781  0.2418  0.2488
10814W        W53830   0.627  32.672  23.115  0.1140  0.3716 -0.0613
10815W        W53831  14.640   4.799  28.743  0.0942  0.0084  0.0757
10816W        W53832  24.334  12.985   9.150 -0.2103  0.3037  0.2175
10817W        W53833  30.381  12.549   4.475  0.4512  0.1182  0.3553
10818W        W53834  31.594  12.136   9.975 -0.1455 -0.0828  0.0586
10819W        W53835  29.309   2.856  10.201  0.0766 -0.1422  0.1427
10820W        W53836   5.384  24.656   3.436  0.1439  0.0681 -0.3850
10821W        W53837  13.747   1.978  26.918  0.1255 -0.0987  0.3101
10822W        W53838   8.104   4.055  10.018  0.1800  0.1556  0.0560
10823W        W53839  14.208  18.473  23.978 -0.0686  0.0674  0.4008
10824W        W53840  22.888   2.991   9.610  0.1274 -0.1138 -0.0181
10825W        W53841  18.946  17.394  24.754  0.2699  0.3563 -0.5618
10826W        W53842  27.107  14.859  20.857 -0.2328  0.2235  0.0496
10827W        W53843  28.004   7.229  10.396 -0.1617 -0.0514  0.0860
10828W        W53844  30.538  20.523  21.322 -0.2027  0.0641  0.2289
10829W        W53845   8.802  15.678   7.417 -0.1370  0.1995  0.0953
10830W        W53846  15.842  15.413   4.027  0.3938  0.0143  0.0639
10831W        W53847  21.589  33.485   5.490  0.1533 -0.0605  0.1781
10832W        W53848  10.601  18.663   4.315  0.1641  0.0532 -0.2159
10833W        W53849  28.378   5.915   8.413 -0.3008 -0.2066  0.2720
10834W        W53850  12.996  13.249   7.780  0.2326 -0.1429 -0.0061
10835W        W53851  34.397  26.180   5.813 -0.1387  0.0759  0.1233
10836W        W53852  25.864  13.413   4.630 -0.0952  0.3002  0.2393
10837W        W53853  27.038  30.980  28.621 -0.3120 -0.1921 -0.1993
10838W        W53854  20.116   1.231   4.727  0.5315 -0.0321  0.2774
10839W        W53855  10.808  34.418   7.094  0.0005 -0.0065 -0.0783
10840W        W53856  34.409  12.649  26.874 -0.2058 -0.1338 -0.1271
10841W        W53857  11.930  15.081   6.242  0.3061  0.0239 -0.1044
10842W        W53858  13.275  32.467  24.984  0.0083  0.1390 -0.0481
10843W        W53859   6.874   3.979   8.571 -0.1317 -0.1565  0.2341
10844W        W53860  22.930  11.472   2.438 -0.2959  0.0462 -0.1045
10845W        W53861  22.939  32.804  27.779 -0.0238 -0.6484 -0.6078
10846W        W53862  22.930  16.425   9.092 -0.0495  0.1570  0.0421
10847W        W53863  14.440   1.839  28.925 -0.0338  0.0536 -0.1072
10848W        W53864  23.750   0.639   6.572 -0.0172 -0.0910  0.0400
10849W        W53865  19.043  17.164  27.075  0.1914  0.0366  0.0937
10850W        W53866  19.150  33.302  17.680  0.2945 -0.2192 -0.2630
10851W        W53867  18.455   5.941  21.748  0.2819  0.1360 -0.0637
10852W        W53868  26.620  11.004   3.990  0.1929  0.4773  0.1738
10853W        W53869   1.019  32.384  29.026 -0.0411  0.2743  0.0427
10854W        W53870   4.894  11.412  15.496 -0.3089 -0.0616 -0.1069
10855W        W53871  22.965   7.314  27.376  0.1507  0.1955  0.1039
10856W        W53872  16.468  32.586   0.560 -0.2809 -0.1197  0.1599
10857W        W53873  31.012  14.143   1.262  0.1830  0.2581  0.1833
10858W        W53874   4.602  18.804   6.792  0.4051 -0.0399  0.1601
10859W        W53875  21.455  32.148  10.460 -0.3861 -0.0923  0.3384
10860W        W53876  16.334  15.845  24.388 -0.1333  0.2401 -0.0769
10861W        W53877  26.397   6.398   6.456  0.2171 -0.1420 -0.0416
10862W        W53878   9.436  18.209  21.965  0.2752  0.0836 -0.1010
10863W        W53879  15.978  13.793  29.046  0.1567 -0.1044 -0.3542
10864W        W53880  32.305  31.266   9.996 -0.3588 -0.0176 -0.0920
10865W        W53881  12.953   3.936  28.642  0.0759 -0.1550  0.0542
10866W        W53882  22.584   2.026   9.264 -0.2062  0.1005 -0.3227
10867W        W53883  14.655   2.110   7.499  0.0600 -0.1345 -0.3081
10868W        W53884  22.985   0.713   6.414  0.2352  0.1752  0.1646
10869W        W53885  27.291   2.922   9.747  0.0184 -0.0215 -0.4334
10870W        W53886  19.634  15.409   1.142 -0.0497  0.1963 -0.4139
10871W        W53887  14.102   9.057  24.089 -0.4487 -0.0302 -0.0747
10872W        W53888  33.863   5.517   2.962 -0.4246 -0.2188 -0.4252
10873W        W53889  33.537   1.899  21.517  0.0499  0.0191 -0.2107
10874W        W53890   0.225  24.934   3.916 -0.0796 -0.1493  0.1689
10875W        W53891  32.051  22.399   5.152  0.2480  0.0372 -0.5340
10876W        W53892   6.344  10.316  17.097 -0.2562 -0.0630 -0.1381
10877W        W53893  25.653   8.569  24.052  0.0080 -0.0165  0.1736
10878W        W53894   9.428  16.838   6.389 -0.0554  0.0068 -0.0669
10879W        W53895  26.492   8.856   9.321  0.4202 -0.0062  0.1766
10880W        W53896  11.464  28.098   7.831  0.1680  0.6859 -0.1047
10881W        W53897  18.652   3.599   6.710 -0.0899 -0.4806  0.1081
10882W        W53898  19.766  23.234   7.019  0.1636 -0.0166  0.0287
10883W        W53899   3.413   9.472   3.444 -0.0887  0.2028  0.2542
10884W        W53900  17.420  10.694   4.691  0.3194 -0.0197 -0.0036
10885W        W53901  15.306  13.329  24.736  0.3150  0.1584 -0.1354
10886W        W53902  11.351   6.772  18.354 -0.0259  0.1422  0.2209
10887W        W53903  28.735  20.202   5.012  0.0751  0.0986  0.2510
10888W        W53904  23.027  10.789  28.330 -0.0345 -0.0020 -0.2314
10889W        W53905  22.664  15.999  17.256 -0.1878  0.1038  0.0675
10890W        W53906  17.341   9.036   4.407  0.3295  0.1737 -0.2295
10891W        W53907  22.232  15.956  25.086  0.0745  0.1464 -0.0047
10892W        W53908  20.918  11.801   2.932  0.0738  0.1816  0.0396
10893W        W53909  26.265  31.619  11.897 -0.1614  0.2590 -0.1776
10894W        W53910  15.666  13.377  27.527 -0.2169  0.0133 -0.3007
10895W        W53911   3.662   1.653   6.237 -0.2782 -0.1927 -0.1449
10896W        W53912  13.160  33.208  15.237 -0.4005 -0.1326 -0.1199
10897W        W53913  21.248  14.621   4.627 -0.4177  0.0949 -0.0637
10898W        W53914  33.608  17.943  27.489  0.1588 -0.2277 -0.2108
10899W        W53915  29.289  13.646   4.905 -0.7216  0.1215  0.3032
10900W        W53916   2.934  25.252  21.397 -0.4120 -0.1361 -0.1768
10901W        W53917   2.397  27.384   4.692  0.0426  0.3669 -0.1198
10902W        W53918   7.910  14.173   2.956  0.2178  0.0471 -0.1183
10903W        W53919  28.254  15.197   6.562 -0.1091  0.1342  0.0415
10904W        W53920  33.384  19.703  28.408 -0.0463 -0.1455  0.1192
10905W        W53921   8.719  13.764   1.565 -0.1303  0.1302 -0.2320
10906W        W53922  15.751   6.534   7.463 -0.0840  0.1198 -0.3044
10907W        W53923  33.776  34.765   9.223  0.0517  0.1384  0.1272
10908W        W53924  13.574  12.397  27.373  0.0064  0.4067 -0.1384
10909W        W53925  15.979  15.326   8.891 -0.0375  0.0583 -0.1353
10910W        W53926  15.561  16.762  28.833 -0.1016 -0.3334 -0.0088
10911W        W53927  24.759   5.091  10.101  0.0498 -0.3978  0.0067
10912W        W53928  14.678   2.457  27.575 -0.1779  0.5018 -0.0800
10913W        W53929  28.109  10.589   2.348 -0.0861 -0.4888 -0.0394
10914W        W53930  27.499   9.056  28.051 -0.0993  0.1476  0.2254
10915W        W53931   2.636   5.465   3.677 -0.3908 -0.1082 -0.1746
10916W        W53932  16.847  10.806   6.757 -0.2112 -0.2732 -0.0781
10917W        W53933  19.215   9.209   0.531 -0.3504 -0.0341 -0.0089
10918W        W53934  33.189  15.452  10.365  0.2191  0.0054 -0.2754
10919W        W53935  26.301  12.723  14.739 -0.3343 -0.4658 -0.0454
10920W        W53936  16.880   2.788  20.730 -0.2277  0.1870  0.0677
10921W        W53937  25.544  18.268   6.062 -0.2484 -0.2562 -0.1553
10922W        W53938  18.517  31.790   1.471 -0.2067  0.1219 -0.0836
10923W        W53939   9.815  16.025   0.375  0.3145  0.0294 -0.3422
10924W        W53940  31.095   8.620  24.523  0.1636 -0.1167 -0.0199
10925W        W53941  28.694   9.257   8.735  0.1250 -0.0595 -0.1554
10926W        W53942  26.041  13.899   8.327  0.2040 -0.1162  0.0889
10927W        W53943  22.380   9.734   5.412 -0.1395  0.0570 -0.1771
10928W        W53944  18.153  15.265   2.957 -0.0085 -0.3983 -0.2360
10929W        W53945  34.755  11.098   7.508 -0.0437 -0.1880  0.0434
10930W        W53946  29.022  17.000  23.523  0.0123  0.0108  0.2608
10931W        W53947   2.774   4.097  19.993 -0.0769  0.3705  0.1887
10932W        W53948  22.030  34.661  18.265 -0.2739  0.1536 -0.0848
10933W        W53949  20.713  13.172   4.492  0.1824 -0.2973 -0.0401
10934W        W53950  30.708  22.302   1.975  0.0793 -0.0910 -0.1754
10935W        W53951  33.841   1.189   0.530 -0.2595 -0.1129 -0.2124
10936W        W53952  33.548  11.039   0.720  0.0021 -0.1738 -0.0862
10937W        W53953  25.894  19.292  14.616  0.2138 -0.2460  0.2633
10938W        W53954   5.584  14.131   0.434 -0.0035 -0.0647  0.0581
10939W        W53955  25.636   5.070   2.236  0.1890 -0.0615 -0.0606
10940W        W53956  19.891   6.146   3.711  0.1136  0.0990 -0.1483
10941W        W53957  21.813   9.317   6.206  0.1220 -0.4187  0.2718
10942W        W53958   4.500  20.011   1.375 -0.4063  0.0714  0.0837
10943W        W53959  20.130  33.831   2.014 -0.3528  0.0100  0.0709
10944W        W53960  11.767  31.442   6.515  0.1195 -0.1015 -0.2311
10945W        W53961  27.797  29.561  17.401  0.1345 -0.0581 -0.0622
10946W        W53962   4.559  20.506   4.996 -0.2545  0.2153  0.0325
10947W        W53963  26.108  21.687   7.861 -0.0356  0.0480 -0.0771
10948W        W53964  26.282   6.042  27.193  0.4351 -0.0715 -0.3054
10949W        W53965  14.494  17.774   0.030  0.0643  0.0924 -0.2639
10950W        W53966  15.272  10.414  22.245  0.2516 -0.0578 -0.1394
10951W        W53967  16.730   3.932   6.047  0.1265  0.2774  0.1209
10952W        W53968  12.065  30.610   3.148 -0.3432 -0.1494 -0.1484
10953W        W53969  33.234  20.651   9.890  0.0495 -0.2458 -0.0071
10954W        W53970  17.897  10.831   1.400  0.5317 -0.1138  0.1790
10955W        W53971   5.483  14.833  23.338 -0.0213  0.4036  0.0070
10956W        W53972  26.705   1.438   0.212  0.2862 -0.3827 -0.2054
10957W        W53973  29.070  15.360  18.318 -0.1809  0.1685 -0.1513
10958W        W53974  30.456  11.329  22.853  0.0868 -0.3920  0.0225
10959W        W53975  16.339   2.887   5.010  0.1446 -0.2174 -0.2657
10960W        W53976   5.593  18.964   1.149 -0.2388 -0.0751 -0.0308
10961W        W53977  18.187  10.454  21.842 -0.1570 -0.2465 -0.0485
10962W        W53978  10.442   1.011   0.571  0.3862 -0.0959 -0.0357
10963W        W53979  21.672  34.228  24.727  0.1899 -0.0896  0.0913
10964W        W53980  26.976   4.004  16.565  0.0446 -0.2197  0.4439
10965W        W53981  29.511  26.234   9.367 -0.0998  0.3990 -0.3239
10966W        W53982  13.781  14.330   3.073  0.0354  0.0660  0.0341
10967W        W53983   2.007  30.690  27.554  0.2026  0.2927  0.2076
10968W        W53984  16.660   4.105  28.877 -0.1376  0.1167  0.4451
10969W        W53985  23.573  28.414   4.280  0.3221 -0.2166 -0.1001
10970W        W53986   8.364   4.961   9.980 -0.2008 -0.0630  0.1976
10971W        W53987  25.871   3.237  19.958 -0.0721  0.0342 -0.0991
10972W        W53988   9.172   6.124  21.740  0.1208  0.1011  0.0858
10973W        W53989  15.920   2.843  25.654 -0.1201  0.1568  0.0880
10974W        W53990   8.914  10.002  28.911 -0.0541  0.0969 -0.0988
10975W        W53991  34.201   2.009  27.953  0.1265 -0.5490 -0.0589
10976W        W53992   9.786  31.153  25.955 -0.1111  0.2350  0.0770
10977W        W53993  20.132  15.182  21.076  0.1391 -0.3774  0.1347
10978W        W53994  17.031  10.571   7.252  0.0028 -0.2931 -0.5727
10979W        W53995  30.327  18.525  27.410 -0.1103  0.2602 -0.0021
10980W        W53996  12.364   7.036   4.333 -0.2571  0.2430  0.0972
10981W        W53997  28.213  11.012  16.864  0.0158 -0.2543  0.1845
10982W        W53998   6.429  20.899  23.072  0.1387 -0.1442  0.0529
10983W        W53999  19.085  12.169   1.327 -0.1150  0.1703 -0.0371
10984W        W54000  16.473  17.160   8.909 -0.2798  0.0078 -0.0656
10985W        W54001  27.534   0.090   7.693  0.1107 -0.2396  0.2114
10986W        W54002  28.246   8.904   9.494 -0.0075 -0.0567 -0.1309
10987W        W54003  21.681  14.917  24.035  0.3057 -0.1051  0.0411
10988W        W54004  16.918  12.171  27.573 -0.0947  0.0197  0.0123
10989W        W54005  19.921  18.835  21.583  0.1157  0.4333  0.1439
10990W        W54006  22.074   2.834  23.416  0.2444  0.2808 -0.0421
10991W        W54007   3.445  23.705  28.833  0.0771 -0.0372  0.2371
10992W        W54008   1.174  11.836   5.385 -0.3446  0.2194 -0.7531
10993W        W54009  15.120  14.079  25.148  0.1307  0.1002 -0.3167
10994W        W54010  24.255  15.171   0.798 -0.2150 -0.0403 -0.1326
10995W        W54011   1.819   2.977   2.011  0.2713  0.1023  0.1273
10996W        W54012  11.577  32.380  13.945  0.1956  0.2094  0.2345
10997W        W54013   2.247  19.888   8.747  0.0045  0.1195 -0.3033
10998W        W54014  21.913  18.709   8.172  0.0713 -0.2067  0.0179
10999W        W54015   9.718   6.365   4.292 -0.0222 -0.0424 -0.1522
11000W        W54016  14.528  17.190  24.140 -0.0190 -0.1200 -0.0243
11001W        W54017  22.995   5.025   1.522  0.0059 -0.0762 -0.1674
11002W        W54018  34.229  28.502  16.571 -0.3682 -0.1944 -0.0871
11003W        W54019  10.953  12.706   4.581 -0.0361  0.1952  0.0814
11004W        W54020  20.359   4.690  19.004 -0.1584  0.1193 -0.2970
11005W        W54021  34.514  21.274   0.169  0.1310  0.1720 -0.1615
11006W        W54022  21.523   9.350   9.002  0.0063  0.2621  0.4404
11007W        W54023  24.846  10.720  25.450 -0.1559  0.1465 -0.0834
11008W        W54024  26.617   0.999  15.133 -0.4579 -0.2565 -0.4768
11009W        W54025  19.791   3.751  24.366 -0.2062 -0.1781 -0.1254
11010W        W54026   4.584  12.212   0.390  0.0013  0.1420  0.1083
11011W        W54027  20.397   5.657   1.955 -0.2414 -0.0236  0.0702
11012W        W54028  17.382  18.699  19.252 -0.0367  0.3282 -0.3001
11013W        W54029  27.506  34.234   6.882 -0.1848  0.1591 -0.0551
11014W        W54030  20.137  13.824  21.162  0.2084 -0.2959  0.2507
11015W        W54031  14.348   9.482  19.333  0.1207  0.0348  0.0788
11016W        W54032   9.810  14.454   1.518 -0.0791 -0.0629  0.4149
11017W        W54033   8.396  28.460  24.551  0.0098  0.1386  0.3591
11018W        W54034  21.383  15.570  16.945 -0.1014 -0.0304  0.4809
11019W        W54035  16.448  31.310  23.259 -0.4515 -0.1821  0.2074
11020W        W54036  15.848   4.694   2.958 -0.2269 -0.2353 -0.1548
11021W        W54037  18.428   2.441   7.382 -0.0923  0.2029 -0.2301
11022W        W54038  32.789  10.794  24.910  0.0880  0.2391  0.0480
11023W        W54039  28.861  18.705  19.632  0.1141 -0.1460 -0.0594
11024W        W54040   3.046  16.468  24.425  0.0706 -0.2945  0.1062
11025W        W54041  22.417  26.787   3.384 -0.0257 -0.0142 -0.1967
11026W        W54042  13.084   4.805   8.235  0.2231  0.2212 -0.1554
11027W        W54043   6.184  15.272   8.475 -0.0289 -0.0046 -0.2464
11028W        W54044   7.791  23.518  22.671  0.0483 -0.0525  0.1759
11029W        W54045  14.575  28.764   6.830  0.1685  0.3483  0.0517
11030W        W54046  11.440  26.899  27.638  0.1300 -0.1706  0.2239
11031W        W54047   6.017   9.759   9.628 -0.0075 -0.1499  0.2100
11032W        W54048  10.342  23.988  28.783  0.0262 -0.3255  0.3161
11033W        W54049  12.625  31.828   0.830 -0.1097 -0.0442 -0.2418
11034W        W54050  19.355  12.688   8.950 -0.2072  0.0233 -0.0225
11035W        W54051  33.828   8.293  15.057 -0.2319  0.1449 -0.3305
11036W        W54052  23.991  20.539  19.297  0.1815  0.2166  0.0427
11037W        W54053  16.467   2.962   8.019  0.0504  0.1888 -0.0128
11038W        W54054  16.038  33.359   9.882 -0.4711 -0.2971  0.2264
11039W        W54055  20.832  30.766   9.425 -0.2381 -0.1500  0.0429
11040W        W54056  22.941  25.201   8.665 -0.2943 -0.2330  0.2007
11041W        W54057  10.034  10.854   3.253  0.0671  0.0731 -0.2787
11042W        W54058  13.934  19.628   1.886 -0.0717  0.0478  0.1216
11043W        W54059   6.757   7.026   3.099  0.0711  0.1395  0.0139
11044W        W54060  20.784   9.961   2.883 -0.1381  0.0537 -0.0190
11045W        W54061   1.319  14.418   3.048  0.3442  0.0183 -0.2037
11046W        W54062   2.133   5.549   9.584  0.0488 -0.3115  0.1984
11047W        W54063  28.503  27.947   7.271  0.3559 -0.0946  0.0777
11048W        W54064   8.618  11.521   1.286 -0.1643  0.0802 -0.1291
11049W        W54065   2.816   1.926   3.465  0.0249 -0.2555 -0.3191
11050W        W54066  32.376   4.148  23.215  0.3239  0.0892  0.2520
11051W        W54067  32.964  11.977   3.467  0.2211 -0.2956 -0.0051
11052W        W54068  17.127   8.822   8.856 -0.1046 -0.1980  0.0874
11053W        W54069  26.488  18.394  26.147  0.0343 -0.1565  0.2608
11054W        W54070  22.500   7.754   9.830 -0.4393 -0.3643 -0.0085
11055W        W54071  19.697  32.571   4.375 -0.0092 -0.1701 -0.1819
11056W        W54072  21.881  29.656   7.572 -0.0635  0.1159 -0.1150
11057W        W54073  12.325  13.619  28.208  0.0375 -0.0455 -0.2549
11058W        W54074  18.636   7.109   2.981  0.2186  0.1736  0.0129
11059W        W54075  31.968  28.725  22.187 -0.0369  0.0808 -0.1168
11060W        W54076  26.339  11.007   8.073 -0.0158 -0.1568 -0.1152
11061W        W54077  24.709  10.981   2.680  0.1874  0.2911  0.0478
11062W        W54078  10.986   1.100  26.705 -0.0306 -0.1114 -0.0721
11063W        W54079  24.062   2.390   6.643  0.2165  0.2006 -0.0143
11064W        W54080  15.425  26.828   5.392 -0.0125 -0.2784 -0.0402
11065W        W54081  28.827   4.119  22.826 -0.0422 -0.0119  0.0683
11066W        W54082  26.690   4.808  27.485 -0.0002  0.0833 -0.0874
11067W        W54083  16.125  20.252  22.984  0.3764 -0.0072  0.1797
11068W        W54084  19.783  31.325  20.196 -0.2678  0.0473  0.0964
11069W        W54085  22.987  18.843  25.793 -0.1261  0.1769 -0.3192
11070W        W54086  14.031  10.320   0.515 -0.1745  0.0111  0.0939
11071W        W54087  24.742   3.211  16.551  0.0932 -0.1268  0.0270
11072W        W54088  23.794   8.806   3.723 -0.0677  0.0308  0.0200
11073W        W54089  11.937   0.907  22.611  0.1485 -0.1014 -0.1035
11074W        W54090  20.473   7.183  29.171 -0.1331  0.0450 -0.0816
11075W        W54091  11.247  12.214  28.843 -0.1243 -0.0624 -0.1163
11076W        W54092  10.007  17.907  19.987 -0.2844 -0.0474 -0.0704
11077W        W54093   9.383   6.131   1.613  0.0123 -0.0244  0.2067
11078W        W54094  28.814  10.337   4.290 -0.4351  0.2248  0.0227
11079W        W54095  24.131   4.610   5.028 -0.3366 -0.2201  0.1063
11080W        W54096   7.623   7.556  14.195 -0.0387 -0.0760  0.0070
11081W        W54097  20.123  29.232  28.454 -0.1915  0.1806  0.0073
11082W        W54098   1.805  13.739  10.464  0.0122 -0.1562  0.1436
11083W        W54099  27.890  32.912   4.245  0.2698  0.2482 -0.3672
11084W        W54100  20.707   1.179   0.772 -0.1778  0.0888  0.2180
11085W        W54101  17.887  12.899   3.819 -0.1208 -0.0341 -0.3006
11086W        W54102   3.463   7.607   8.484 -0.0323  0.0568 -0.1098
11087W        W54103  14.518  15.185   3.271 -0.1603  0.0691  0.1306
11088W        W54104  21.262  15.655   1.659  0.0748  0.2720  0.0439
11089W        W54105  14.553  34.046  24.204  0.1151 -0.0132  0.1186
11090W        W54106  18.982  13.981  23.359  0.2624 -0.2778 -0.2568
11091W        W54107   9.145  23.012  26.968 -0.1824 -0.2352 -0.1921
11092W        W54108   8.999  28.179  19.118  0.0143  0.0937  0.0842
11093W        W54109  33.745  14.431  24.485  0.1458 -0.0800  0.0668
11094W        W54110  27.248  10.317  26.497 -0.2865  0.1304 -0.0296
11095W        W54111  16.854  11.192  27.539  0.1941  0.1414 -0.3945
11096W        W54112  30.171   6.215  26.999 -0.0106  0.0437 -0.1974
11097W        W54113  23.327  15.953  24.273  0.1884 -0.0280 -0.2075
11098W        W54114   3.077  29.210  27.516 -0.1678 -0.1802  0.0379
11099W        W54115   0.188  17.186   9.877  0.1559  0.2933 -0.0549
11100W        W54116   9.094  25.641  28.218 -0.0324 -0.2246  0.1571
11101W        W54117  17.732  19.480   7.351  0.2340 -0.1887  0.0735
11102W        W54118  22.949  17.260  13.732 -0.3490  0.0411 -0.4274
11103W        W54119  30.542  17.688   5.547 -0.1647 -0.2348  0.0520
11104W        W54120  32.930   8.942  26.198  0.3127  0.2770  0.1518
11105W        W54121  19.068  14.518  24.891 -0.0200  0.1869  0.1061
11106W        W54122  32.838  17.518  27.792  0.3936 -0.5717 -0.2495
11107W        W54123  22.149  16.734   5.762  0.0847  0.2059  0.3053
11108W        W54124  19.673  22.701   3.382 -0.1028 -0.0619 -0.2114
11109W        W54125  16.456   0.718  14.992 -0.0562  0.1821  0.1288
11110W        W54126  16.721   1.932  20.896 -0.1765 -0.1353  0.0828
11111W        W54127  16.314   3.436   8.193  0.1567 -0.2426  0.3250
11112W        W54128  29.640   3.858   3.261  0.2521 -0.3043 -0.1982
11113W        W54129  28.273   7.499  11.266  0.0486  0.2284  0.0101
11114W        W54130  34.757  31.677   0.465  0.2952 -0.0575 -0.0673
11115W        W54131  32.499   8.215  27.156 -0.0685  0.0459 -0.1230
11116W        W54132  27.645  15.327   5.414  0.2289 -0.2355 -0.3207
11117W        W54133  15.224   6.946   3.864 -0.2540 -0.0105 -0.1695
11118W        W54134  32.346  10.932   9.313  0.0932  0.1708  0.1758
11119W        W54135  14.834   9.811   7.173 -0.1063  0.2521  0.0745
11120W        W54136  21.124  18.788  28.003  0.0913 -0.1323  0.2247
11121W        W54137  20.524  17.560   5.147 -0.2034  0.1950 -0.0875
11122W        W54138  10.954  25.956   0.391 -0.3447 -0.2217  0.3324
11123W        W54139  15.220   9.950   3.605  0.0457 -0.2796  0.1096
11124W        W54140  12.164   1.818   8.722  0.2412 -0.0161  0.0658
11125W        W54141  17.866  25.622   6.167 -0.0551  0.0624 -0.3398
11126W        W54142  16.751  31.232   3.771 -0.0861 -0.2385 -0.3049
11127W        W54143  13.995   1.710   0.697  0.1336 -0.1414 -0.1025
11128W        W54144  24.213  12.527   4.778 -0.2557 -0.1755  0.0758
11129W        W54145  10.014  17.105  27.217  0.2150  0.1461 -0.1847
11130W        W54146  27.581   7.035   0.156 -0.3654  0.2115  0.0691
11131W        W54147  15.431  16.582   6.133 -0.3420  0.1309 -0.0926
11132W        W54148  21.967   6.345   9.754 -0.0494 -0.3462 -0.0006
11133W        W54149  32.373   7.354   2.769 -0.2583 -0.0571  0.2343
11134W        W54150  16.492  10.268   0.479  0.1125 -0.0969  0.2111
11135W        W54151   4.478  26.018   1.427 -0.0008 -0.1712  0.3653
11136W        W54152   6.052  19.654   8.621 -0.1149 -0.1469  0.0348
11137W        W54153  17.078   8.187   2.159  0.2442  0.3176 -0.2689
11138W        W54154  13.920   5.500   0.535 -0.1568 -0.0137 -0.1299
11139W        W54155  15.608  21.736   3.631  0.1965  0.2748 -0.1845
11140W        W54156  12.912  13.122   4.152 -0.0944 -0.0817  0.3643
11141W        W54157  17.252   2.815   9.598  0.0320  0.1809 -0.2390
11142W        W54158  10.943  26.337  25.642  0.3462  0.2095  0.0276
11143W        W54159  16.786  28.817   7.909  0.1325 -0.2509  0.1257
11144W        W54160   2.726   0.035  28.208 -0.2106 -0.1258  0.2695
11145W        W54161  25.782  16.940   3.845 -0.0884 -0.0356  0.1380
11146W        W54162   0.232  34.082   4.094  0.2211 -0.0126  0.0048
11147W        W54163  16.563  17.116  28.253 -0.1890 -0.3845 -0.2406
11148W        W54164  31.756   5.703   4.721 -0.0907 -0.0470  0.2058
11149W        W54165  20.664  32.347  21.563 -0.1482  0.0252  0.0250
11150W        W54166  26.739  17.867   8.828  0.0268 -0.1896 -0.0352
11151W        W54167  11.866   4.477  22.588  0.1285  0.1111  0.0602
11152W        W54168  17.380  23.137   6.919 -0.2530 -0.0153  0.0375
11153W        W54169  22.975  13.984   9.007  0.1828  0.3344 -0.2413
11154W        W54170  28.456   5.560   9.046 -0.0073 -0.0148 -0.1382
11155W        W54171  11.767  14.078   5.744 -0.1110  0.1008  0.1218
11156W        W54172  25.957  13.023   9.773 -0.0410 -0.1479 -0.2915
11157W        W54173   2.964   2.081   8.440  0.0897 -0.0918  0.2506
11158W        W54174  25.793   8.597   7.953  0.0124 -0.2899  0.4132
11159W        W54175  31.847  12.796  10.396  0.0932 -0.1043  0.1219
11160W        W54176  15.907   8.404  26.854  0.0715  0.2188  0.0405
11161W        W54177  20.363  16.981   3.849  0.0617  0.0582  0.0871
11162W        W54178  29.711   6.903   3.369 -0.1972 -0.0879 -0.3540
11163W        W54179  12.005   5.539   6.533  0.1421  0.0498 -0.0385
11164W        W54180  24.643   8.146   4.302  0.0256  0.1277 -0.0832
11165W        W54181  28.099   4.768  10.225  0.1446  0.2146  0.0273
11166W        W54182  23.428  24.560   8.272  0.1969  0.0932 -0.0401
11167W        W54183   1.793  11.920  28.789  0.2333  0.1959 -0.0938
11168W        W54184  20.731   4.222   0.692  0.0767  0.2439  0.2865
11169W        W54185  16.427   7.693  15.772  0.1472 -0.2665  0.0898
11170W        W54186  10.592  30.972  20.176  0.0369  0.0028  0.1080
11171W        W54187  13.077   6.149   2.905 -0.0865  0.0254  0.0101
11172W        W54188  16.010  10.327   0.750  0.0095  0.0096 -0.1173
11173W        W54189  32.745  15.370  22.690  0.2439 -0.2899  0.1445
11174W        W54190  30.134   4.509   1.188 -0.1534  0.1120  0.2668
11175W        W54191  26.871   2.308   7.808 -0.2633  0.2323 -0.0129
11176W        W54192  18.656  33.995  28.075 -0.0170 -0.1051 -0.0229
11177W        W54193  15.449  31.298  18.846  0.2440 -0.2596  0.1298
11178W        W54194  30.469   0.492   7.522  0.0161  0.0052 -0.0316
11179W        W54195   9.302  12.041   5.344  0.0981  0.1323  0.0389
11180W        W54196  33.212  20.965   1.288  0.1383  0.0937 -0.1153
11181W        W54197  13.580   8.339  24.123  0.1229 -0.4111  0.2152
11182W        W54198  19.117  15.918  25.693  0.0331 -0.0388  0.1279
11183W        W54199  16.338   4.942  28.959 -0.0222  0.3634  0.1183
11184W        W54200  17.926   0.193  22.808  0.2094  0.1851  0.0670
11185W        W54201  23.916   6.033  28.949 -0.0291 -0.0045  0.1074
11186W        W54202  14.334  27.619   1.226 -0.0641  0.3863  0.0949
11187W        W54203  10.649  11.162   6.431 -0.0021  0.1625  0.1178
11188W        W54204  21.203  17.040   9.269 -0.2109  0.3906 -0.2500
11189W        W54205  25.313  18.092  28.851  0.1279 -0.0012  0.3063
11190W        W54206   1.358  23.348   7.629  0.0121  0.4455 -0.1517
11191W        W54207  30.285  13.790   4.134 -0.1936  0.1055  0.0633
11192W        W54208   3.764   3.046   1.936  0.0504  0.0472 -0.0069
11193W        W54209  15.767   1.030   3.289 -0.4069  0.0856  0.1876
11194W        W54210  24.699   8.606   6.383 -0.1475  0.0911  0.2686
11195W        W54211  17.132   5.413  28.507 -0.0486 -0.2396  0.0796
11196W        W54212  17.984  14.373  21.017 -0.0036 -0.1591  0.0280
11197W        W54213  23.441   4.901  26.625 -0.2115  0.1252 -0.0429
11198W        W54214  17.895  18.186  23.512  0.0575 -0.2932 -0.0661
11199W        W54215  15.851  23.528   3.875 -0.1036  0.3571  0.1157
11200W        W54216  28.522   9.576  10.274  0.0701 -0.1718  0.0911
11201W        W54217  20.275  11.444   1.041 -0.2032 -0.1484 -0.1951
11202W        W54218  26.862   8.001   2.081  0.0378 -0.1498 -0.0566
11203W        W54219  25.822  21.303   6.305 -0.0083  0.1221 -0.0747
11204W        W54220   0.569  12.016   4.151  0.1898 -0.0464 -0.0921
11205W        W54221  18.744   6.747   7.392 -0.1702 -0.0727 -0.0724
11206W        W54222  23.430  10.339  25.526  0.1617 -0.5313 -0.0986
11207W        W54223  26.459  20.820   7.305  0.0443 -0.1951 -0.3751
11208W        W54224   4.494  24.264  19.864  0.0616 -0.1430 -0.4426
11209W        W54225   6.531  22.679   0.324 -0.1499 -0.0871 -0.2192
11210W        W54226  11.719   7.094   3.000 -0.0246 -0.1042 -0.1550
11211W        W54227  12.675  32.999  26.368  0.0007  0.1689  0.0005
11212W        W54228   5.145   9.609   9.371  0.0085 -0.1624 -0.0974
11213W        W54229  13.244  21.824   2.951  0.0553 -0.0612 -0.2323
11214W        W54230   8.255  11.130  22.212  0.0884  0.4170 -0.0866
11215W        W54231  26.534  34.000  24.363 -0.0408  0.2814 -0.1552
11216W        W54232  33.148  17.403   4.624 -0.0495 -0.0368  0.0458
11217W        W54233  22.325   8.302   6.823  0.1318 -0.0159 -0.2594
11218W        W54234  18.929  29.247   8.443 -0.1918 -0.1268  0.0132
11219W        W54235  19.592   7.316   4.245  0.3149  0.1165 -0.3429
11220W        W54236  27.848  12.538   7.886 -0.2849  0.0293 -0.1802
11221W        W54237  20.231   5.831  27.872 -0.0620 -0.3632  0.2699
11222W        W54238  10.346   8.640   5.443  0.0086  0.3107  0.1816
11223W        W54239  27.667  20.494  10.801  0.1855 -0.2284 -0.2290
11224W        W54240  31.731  15.170   5.990 -0.0801  0.2320  0.1729
11225W        W54241  16.450  15.240   3.018 -0.1386 -0.1615 -0.0671
11226W        W54242  19.145  14.214   6.578 -0.3216 -0.2364  0.0682
11227W        W54243  14.898   9.173   8.314  0.1255  0.1667 -0.0587
11228W        W54244  14.195  10.714   2.186  0.0912  0.1112  0.4081
11229W        W54245  20.711  30.234  11.094 -0.0812  0.1399  0.0602
11230W        W54246  34.021   4.206   6.380 -0.0594 -0.1656  0.0127
11231W        W54247  33.250   5.837   8.002 -0.2167 -0.1837 -0.1006
11232W        W54248  21.519  26.335  23.241  0.1007 -0.0291 -0.0061
11233W        W54249  24.097   9.652   6.017  0.0556  0.0195 -0.0565
11234W        W54250  29.851  16.159   0.847  0.0377  0.1412 -0.2239
11235W        W54251  14.562  27.744   2.568 -0.0814 -0.1304 -0.0284
11236W        W54252   0.258  16.306   1.133 -0.0566 -0.2400  0.0961
11237W        W54253   6.813  31.401  21.984 -0.1188 -0.2373  0.1702
11238W        W54254  17.995  17.821  22.300  0.1636 -0.0862 -0.1125
11239W        W54255  19.243   5.337   3.658 -0.2968  0.0428  0.0512
11240W        W54256  25.072   0.655  28.014 -0.2027  0.0460 -0.0687
11241W        W54257   0.493  12.264   8.687 -0.0120 -0.2029  0.0846
11242W        W54258  19.102  31.426   3.093 -0.0926  0.0493 -0.0753
11243W        W54259  22.634  33.149  24.148  0.0855  0.0249 -0.1132
11244W        W54260  20.848   0.087   4.252 -0.2662  0.1099  0.0216
11245W        W54261  24.340  12.214   3.672 -0.0618 -0.1901 -0.1771
11246W        W54262   8.181  19.412  28.419  0.1524  0.1301  0.3603
11247W        W54263  17.487  27.174   0.351  0.0972  0.4784 -0.0754
11248W        W54264  11.801  15.823  24.911  0.2410 -0.0224 -0.0723
11249W        W54265   0.130   8.515   4.285  0.1870 -0.3622 -0.1406
11250W        W54266   1.159  26.677  15.344 -0.1626  0.0250 -0.2491
11251W        W54267  16.592   9.734  22.039 -0.1459  0.0639  0.1499
11252W        W54268  20.408   8.406  27.821 -0.0031  0.1095  0.0736
11253W        W54269  11.859  34.060  21.812  0.1435  0.0897 -0.2147
11254W        W54270   7.419  11.069   1.524  0.0944  0.0412  0.0284
11255W        W54271  19.998   9.815   8.957  0.0161 -0.1935 -0.0014
11256W        W54272  21.920  34.030   8.626 -0.0833 -0.5172 -0.4165
11257W        W54273   7.019  12.990   0.437  0.1697 -0.0431 -0.0799
11258W        W54274  20.002  33.891   6.799 -0.0538  0.0072  0.0855
11259W        W54275  25.600  19.369   2.020  0.1127 -0.1844 -0.2241
11260W        W54276  11.263  21.367  28.045 -0.3603  0.3538 -0.0018
11261W        W54277  11.723  29.043   4.315  0.1542 -0.1102 -0.2452
11262W        W54278  21.058   5.081   4.058 -0.0083  0.2977  0.0466
11263W        W54279  26.968  23.212  10.295 -0.2149 -0.0275  0.0691
11264W        W54280  32.402  30.903  11.785  0.0364  0.0899  0.1137
11265W        W54281   3.821  34.775   7.942  0.3927 -0.0810 -0.1223
11266W        W54282   7.408  15.129   7.458 -0.1217  0.1343  0.1581
11267W        W54283  14.079  33.629   4.175 -0.0916 -0.1708 -0.0032
11268W        W54284  20.236  12.415   2.688  0.1419 -0.3640  0.3118
11269W        W54285  16.301  19.655  25.023  0.3935 -0.2415 -0.3248
11270W        W54286  21.050  28.125  28.515  0.3497  0.0730  0.0210
11271W        W54287  30.907  16.952   8.398 -0.0627  0.2401 -0.1066
11272W        W54288  18.738  29.298   3.599 -0.1346 -0.0710  0.2212
11273W        W54289  21.700  26.701  29.270  0.4564 -0.1609 -0.0677
11274W        W54290   4.270   0.002   2.484 -0.2080  0.1566  0.2928
11275W        W54291  30.184   7.001   1.421  0.0851 -0.1846  0.2199
11276W        W54292  18.398   1.832  21.402 -0.1010 -0.1683  0.1344
11277W        W54293  26.756  33.033   5.628 -0.0682 -0.0179 -0.1018
11278W        W54294  14.617  31.808   1.344  0.1963  0.0509 -0.0376
11279W        W54295   8.856  22.837  22.184  0.0502 -0.1295  0.1907
11280W        W54296  16.936  15.365  24.863 -0.2147  0.0370  0.0247
11281W        W54297  25.505  19.212   9.431  0.1955 -0.2372  0.1606
11282W        W54298  26.399   0.270  25.453 -0.0734  0.1039 -0.0081
11283W        W54299  27.713  13.391   3.851 -0.0835  0.0117  0.2592
11284W        W54300  20.009   4.501  20.598  0.1725 -0.0872  0.0746
11285W        W54301  14.963  15.288   7.694 -0.1604  0.3098 -0.1987
11286W        W54302  26.709   9.163   7.067 -0.1986 -0.2653 -0.2400
11287W        W54303  14.158  10.406  26.179  0.1422  0.3353 -0.0726
11288W        W54304  16.568  10.291   2.278 -0.2736 -0.2357  0.1530
11289W        W54305  27.471   5.621   3.707  0.0315  0.1969 -0.1395
11290W        W54306   5.357   7.144   1.543  0.1693 -0.3417 -0.2214
11291W        W54307   0.187  11.685   9.123  0.1560 -0.0281  0.1817
11292W        W54308  17.519  20.237   7.620  0.2853 -0.1083 -0.0081
11293W        W54309  20.001   6.625   8.968  0.1021  0.3789  0.0610
11294W        W54310  11.624  15.615   6.720 -0.0940 -0.1559  0.0217
11295W        W54311  12.895   8.156   7.968  0.5009 -0.0431 -0.2042
11296W        W54312  16.756  11.565   8.821  0.1669 -0.1109  0.1948
11297W        W54313  20.675  16.053   2.973  0.3415  0.0765  0.2094
11298W        W54314   9.207  10.299   8.829 -0.1089 -0.0478 -0.2974
11299W        W54315   0.327   7.076   9.631  0.3648  0.0297  0.1647
11300W        W54316  31.202  14.253   8.313 -0.0882 -0.0568 -0.4227
11301W        W54317  25.299   9.908  14.449 -0.0947  0.1933 -0.0632
11302W        W54318  23.997  27.943   6.721 -0.1605 -0.0603 -0.0022
11303W        W54319   7.436  16.853   4.659  0.1201  0.0357 -0.1949
11304W        W54320  17.940  14.865   2.006 -0.1975  0.1130  0.1415
11305W        W54321  21.487   3.347   9.777  0.2310  0.0462  0.1704
11306W        W54322  20.373  13.307  29.174 -0.2008  0.1841 -0.1073
11307W        W54323   3.640  31.473  28.346  0.0282 -0.1225  0.0361
11308W        W54324  25.747  24.131   8.863  0.1231  0.0096  0.3812
11309W        W54325   8.003  18.086   6.398  0.0034 -0.0698 -0.0964
11310W        W54326  22.361   5.658  22.178 -0.1906 -0.0796  0.3397
11311W        W54327  19.396  34.405  17.337  0.2712 -0.1553 -0.4812
11312W        W54328  20.224  34.699   0.008  0.1153  0.3034  0.1739
11313W        W54329  28.456  11.706   6.701 -0.1049  0.0954 -0.2153
11314W        W54330  29.495  29.264   4.312  0.0019 -0.3236 -0.1071
11315W        W54331  24.623  24.411  22.801  0.1376  0.0196  0.1539
11316W        W54332  20.378   4.355   4.348 -0.0971  0.0431 -0.2568
11317W        W54333  18.385  15.115   1.942 -0.4247  0.2242 -0.1065
11318W        W54334   0.447   5.347   4.120 -0.0379 -0.1086  0.1924
11319W        W54335  21.552   8.198   9.569  0.2996  0.0574  0.1627
11320W        W54336   7.164  13.437   0.059  0.1500  0.0776  0.0692
11321W        W54337  19.393   1.987   6.362  0.2647 -0.1858  0.0391
11322W        W54338   3.406   9.614   1.693  0.0241 -0.1003  0.0239
11323W        W54339   0.274  17.947  23.486 -0.2822  0.2154  0.2882
11324W        W54340  18.314  13.708  25.631 -0.2309 -0.0577  0.2956
11325W        W54341  15.605  15.241  21.460 -0.0106 -0.1062  0.1677
11326W        W54342  18.485  12.094  23.791 -0.0510 -0.1572  0.1103
11327W        W54343  10.685  32.669  26.980 -0.0531  0.0449  0.2205
11328W        W54344   9.747  13.860   9.114 -0.0180 -0.3231  0.1990
11329W        W54345  18.391  18.631   8.085 -0.1863 -0.0884  0.1773
11330W        W54346   7.264   1.818  27.569  0.1024  0.1459 -0.0727
11331W        W54347  29.028   9.837   5.886  0.3023 -0.4898  0.0852
11332W        W54348  23.894   3.460   8.050 -0.0517 -0.2727  0.0382
11333W        W54349   2.624  27.951  17.159  0.1521 -0.0213  0.0904
11334W        W54350  20.200  19.223   5.922  0.0977 -0.1172  0.0336
11335W        W54351  13.625  18.384   6.509 -0.0748 -0.2471 -0.1350
11336W        W54352   5.309   8.131   7.115 -0.0767  0.0753  0.2817
11337W        W54353  22.831   8.554   9.257 -0.1680 -0.1814 -0.0333
11338W        W54354   7.873  26.264   6.747  0.0736  0.0162  0.1589
11339W        W54355  21.255   5.358   2.259 -0.1069  0.3781 -0.0251
11340W        W54356  12.874   8.369  28.963  0.0431 -0.1261 -0.0506
11341W        W54357  28.198  14.340  25.973  0.0168 -0.2523  0.0955
11342W        W54358   4.843  12.616   7.273 -0.1191 -0.0829  0.1143
11343W        W54359  15.031   8.457   7.278 -0.0364 -0.0172 -0.0637
11344W        W54360  22.452  17.999   1.145 -0.0081 -0.1662  0.0691
11345W        W54361   4.573  16.987   7.295 -0.1830  0.0811 -0.3235
11346W        W54362  23.483  32.986  27.602 -0.0491  0.6834  0.1092
11347W        W54363  34.367  33.438   5.023 -0.0705  0.3385  0.0132
11348W        W54364  13.572   5.261   8.713 -0.1568 -0.0454  0.2661
11349W        W54365  26.444  28.464   3.004  0.0680  0.1624 -0.1949
11350W        W54366   1.988  29.344   0.708 -0.0272  0.1822 -0.1237
11351W        W54367  13.199  10.134   3.512  0.0969 -0.2219 -0.1241
11352W        W54368  16.720   0.867  25.491  0.0671 -0.1452  0.4056
11353W        W54369   7.301  16.000   5.790 -0.2689  0.0319  0.0075
11354W        W54370  18.452   0.043   4.861  0.2857 -0.2760 -0.3810
11355W        W54371  32.983  13.804   7.945 -0.0686  0.2089 -0.1759
11356W        W54372  28.073  14.175   8.287 -0.2202  0.1078  0.1046
11357W        W54373  15.114   8.670   8.485 -0.1386  0.2159 -0.1765
11358W        W54374  18.188  32.522   6.463  0.0604 -0.0686  0.5713
11359W        W54375  23.515  31.719   6.187  0.0543  0.4008 -0.1837
11360W        W54376  31.184  33.356   0.860 -0.1389 -0.1998 -0.0745
11361W        W54377  18.885   9.191   6.368  0.0955  0.4753 -0.0395
11362W        W54378  32.686  15.405  10.585  0.0067  0.2212 -0.3049
11363W        W54379  21.688  19.066   5.943  0.2537 -0.1245  0.0600
11364W        W54380  15.584  31.193   0.960  0.2955 -0.0241 -0.4202
11365W        W54381  17.304  11.127  27.856  0.4985  0.1414  0.0341
11366W        W54382   8.215  26.819   7.113 -0.0930  0.0316  0.1893
11367W        W54383  12.493  16.677   5.117 -0.2535 -0.2060  0.3038
11368W        W54384   6.609   9.514  10.108  0.0747 -0.1331 -0.0902
11369W        W54385  17.066  34.750  27.383 -0.5725  0.3188  0.5006
11370W        W54386  27.544  20.786  25.308  0.0789 -0.0195  0.0083
11371W        W54387  18.849   3.540  23.490  0.0687  0.0463 -0.3789
11372W        W54388  17.606  13.088  23.698 -0.0023  0.3043  0.0634
11373W        W54389   4.111  22.379   2.091 -0.1743 -0.0319  0.1088
11374W        W54390  33.198   1.989  10.420 -0.2015 -0.0637  0.0384
11375W        W54391  24.483  16.300  22.933 -0.0113 -0.1206  0.3686
11376W        W54392  20.498  13.145  27.426  0.3683  0.0239  0.1554
11377W        W54393  31.757   0.122   6.191 -0.0160  0.0937  0.3400
11378W        W54394  33.225  32.357   1.190 -0.0646  0.0590 -0.1136
11379W        W54395  24.773   3.854  28.079 -0.2593 -0.1474 -0.0573
11380W        W54396  24.416   2.704  11.022  0.1129 -0.2245 -0.1347
11381W        W54397  30.293  12.650  14.260 -0.1483  0.0742  0.1838
11382W        W54398   9.331  17.847   9.221 -0.0316 -0.3153  0.1878
11383W        W54399   9.188   6.261  15.880 -0.3053  0.1012 -0.2777
11384W        W54400   9.731  15.092  23.815  0.2903  0.0076 -0.4541
11385W        W54401   9.192   2.461  22.980 -0.1189  0.0316  0.0294
11386W        W54402  17.238   6.400   1.222 -0.1525  0.0808  0.0299
11387W        W54403   9.057  11.654   0.095 -0.0933 -0.0016 -0.0593
11388W        W54404  16.831   2.465  23.678  0.2585  0.2177  0.0867
11389W        W54405  23.608  25.873  21.174  0.0504  0.0015  0.2068
11390W        W54406  17.620   6.710   6.419 -0.1304  0.0422  0.0653
11391W        W54407  33.488  30.033  10.294 -0.1417  0.1236 -0.3448
11392W        W54408   1.324  19.085   1.424 -0.2425 -0.1998  0.2926
11393W        W54409   8.034   0.229   1.262  0.1452  0.3021 -0.1488
11394W        W54410   8.979  30.101  16.365 -0.1680 -0.0484  0.1270
11395W        W54411  29.608  18.089  27.655  0.0424  0.0421 -0.5067
11396W        W54412  22.079  22.136  28.788 -0.1576  0.2483  0.1170
11397W        W54413  22.263  12.520   6.665 -0.0071 -0.3421  0.1842
11398W        W54414  22.014  13.073   2.854 -0.1003  0.0278  0.2717
11399W        W54415  20.150  12.570  18.493  0.0958  0.2937  0.1967
11400W        W54416  12.234  34.619   5.952  0.0730 -0.0417  0.1570
11401W        W54417   8.377  15.299  28.798 -0.1051  0.0096 -0.2140
11402W        W54418  24.737  12.442   4.703  0.0768 -0.0153 -0.1830
11403W        W54419  10.602  13.305   3.574  0.0507 -0.1702  0.1861
11404W        W54420  22.001   0.162   7.490 -0.1820  0.1365  0.0115
11405W        W54421   1.743  10.422  22.289  0.0252  0.1883  0.1285
11406W        W54422  25.094  32.413  16.645 -0.1321  0.0571  0.2595
11407W        W54423  25.544   1.220   6.986 -0.0265  0.0269  0.3065
11408W        W54424  11.562  10.156   6.928 -0.1201 -0.2426 -0.0899
11409W        W54425  20.893  31.354   7.932  0.0901  0.0196  0.0417
11410W        W54426  11.608   6.541  24.260  0.1160 -0.2985 -0.1615
11411W        W54427  34.550   7.198   5.012 -0.0552  0.1728 -0.1476
11412W        W54428  32.533   8.211   0.734 -0.1641 -0.3338  0.2534
11413W        W54429  32.155  24.771   8.293 -0.0888  0.1407  0.0482
11414W        W54430   9.122   4.832   9.280 -0.1757  0.1298  0.0768
11415W        W54431  28.621  20.209  23.880 -0.3181  0.0221  0.2465
11416W        W54432  13.500  31.429   5.668 -0.2758 -0.1661 -0.1615
11417W        W54433  11.738  19.930   7.821  0.1738 -0.3889 -0.0183
11418W        W54434  33.223  16.310   0.185  0.0439 -0.4115 -0.0409
11419W        W54435  14.610  13.551   8.226  0.0625 -0.2358 -0.4349
11420W        W54436   3.270  25.241  28.407 -0.1428 -0.0731  0.0602
11421W        W54437  12.728  31.607   8.704  0.2665  0.3203  0.0094
11422W        W54438  21.716  34.461  28.572  0.0338 -0.0114  0.0844
11423W        W54439  14.011   3.783   8.914  0.0620 -0.4684  0.1467
11424W        W54440  28.907  17.536  26.079 -0.1686  0.2179  0.1150
11425W        W54441  33.975  33.100  10.415 -0.0288 -0.0790  0.0841
11426W        W54442   7.999  12.626  29.135  0.0108 -0.2200 -0.0302
11427W        W54443  22.876  19.512  26.348 -0.1575  0.1160  0.0634
11428W        W54444  13.816  24.553   8.175 -0.1302 -0.0816 -0.0105
11429W        W54445  18.200  10.038  29.083 -0.3670 -0.1056  0.0656
11430W        W54446  14.469  17.461   4.286  0.1699  0.0086 -0.1871
11431W        W54447  13.427  19.327   6.206 -0.1566 -0.0498  0.0794
11432W        W54448  19.690   9.045  26.266 -0.1911 -0.1669 -0.1599
11433W        W54449  23.504  34.734   8.254 -0.4393 -0.0584  0.1159
11434W        W54450   7.713   0.778   0.099  0.2203  0.0065 -0.0842
11435W        W54451  18.995   8.617   8.416 -0.1915  0.1980 -0.0806
11436W        W54452  30.771  27.541  23.148 -0.1199  0.3360 -0.0160
11437W        W54453   8.372   5.216   1.918 -0.0934 -0.2418 -0.0182
11438W        W54454  24.156   5.822   2.547 -0.0294  0.1119 -0.1814
11439W        W54455  31.169   2.025   3.554  0.0208  0.3018 -0.1994
11440W        W54456  30.903  19.188   2.345 -0.3237  0.0372 -0.1748
11441W        W54457  15.458  28.689   1.121 -0.0910 -0.0296 -0.1339
11442W        W54458  25.108  15.878   4.364 -0.1955  0.0348  0.1262
11443W        W54459  17.073  22.958  27.807 -0.1973 -0.1302  0.0772
11444W        W54460  18.211  19.596   2.135  0.2986 -0.1510 -0.2803
11445W        W54461  13.884  13.225  27.933  0.2521 -0.1161  0.1735
11446W        W54462  30.030  25.463   6.127 -0.2029 -0.0625 -0.2468
11447W        W54463   9.661  12.808   6.027  0.0306 -0.2670  0.2118
11448W        W54464  30.892  14.715  28.095 -0.0910  0.0998 -0.0062
11449W        W54465  15.622  17.827  22.083 -0.0768  0.1294 -0.1125
11450W        W54466  23.420   2.402   7.333  0.1686  0.1766 -0.0876
11451W        W54467  31.174   6.122   6.384  0.2238  0.0656 -0.1404
11452W        W54468   7.559   7.713   9.506  0.1988 -0.4766 -0.2532
11453W        W54469   4.268   1.725  22.970  0.0351 -0.4699  0.1142
11454W        W54470  29.118   5.924   7.831  0.1801 -0.1365 -0.1127
11455W        W54471   2.819  20.285   5.216 -0.3669 -0.0634 -0.1940
11456W        W54472   1.091   1.655   8.771  0.0432 -0.0833  0.3095
11457W        W54473   2.785  22.039  16.536 -0.1107 -0.1795 -0.1515
11458W        W54474  25.180  33.439   1.971  0.2345  0.0366  0.0170
11459W        W54475  15.156  24.487  22.120  0.1170  0.1408  0.0055
11460W        W54476   5.557  32.850   2.189 -0.2121  0.2429 -0.1990
11461W        W54477  19.274   6.223  25.892 -0.2629 -0.0086 -0.0322
11462W        W54478   6.020   6.271   2.750  0.1516 -0.1027 -0.1213
11463W        W54479  34.628  17.559  16.585  0.1307 -0.1559  0.3489
11464W        W54480  22.337   6.285   3.821  0.0038  0.2780  0.1182
11465W        W54481  26.224  30.492   4.382  0.0349 -0.0208 -0.2281
11466W        W54482  27.765  19.195   1.106 -0.1687  0.0907 -0.1226
11467W        W54483  33.641   9.435  16.408 -0.2964 -0.0331 -0.0651
11468W        W54484  28.881   8.977  10.145 -0.0457  0.1870  0.0295
11469W        W54485  15.118  19.971  24.722  0.0523  0.3588 -0.2915
11470W        W54486  23.356  26.947  26.486 -0.1706  0.3665 -0.0468
11471W        W54487  19.563  13.568   5.013 -0.2065  0.0822 -0.1164
11472W        W54488  15.126  19.678   4.741  0.0847  0.0760  0.3474
11473W        W54489  24.234  14.160  23.135 -0.2727 -0.2058 -0.1912
11474W        W54490  10.491   9.974   8.741  0.0268 -0.1664 -0.4446
11475W        W54491  17.759   3.526   7.309  0.1645  0.2402 -0.0410
11476W        W54492  21.820   4.379   0.795  0.1057  0.0396 -0.0374
11477W        W54493  15.585  21.836   4.200 -0.3032 -0.0255  0.1079
11478W        W54494  14.959   2.412  10.527 -0.1629  0.0216  0.1046
11479W        W54495  28.380   0.350   4.520  0.1033  0.0597 -0.1733
11480W        W54496  10.480  33.856  28.803  0.0192 -0.1599 -0.0910
11481W        W54497  23.918  14.714   6.367 -0.2451  0.0394 -0.1588
11482W        W54498  16.900  21.191  11.850  0.2110 -0.0062 -0.1165
11483W        W54499   7.158  10.723   8.544 -0.2172  0.0195 -0.0720
11484W        W54500  11.941   5.767   6.961  0.1843 -0.1170 -0.2192
11485W        W54501  11.106  31.111   3.169 -0.0812  0.1129  0.2133
11486W        W54502  27.205   5.829  10.567  0.0082 -0.1304 -0.1562
11487W        W54503  25.946  27.681  24.726  0.0849 -0.1781 -0.0139
11488W        W54504  10.786   4.496   1.319 -0.1782  0.0301 -0.2933
11489W        W54505  16.694   2.525   2.456  0.0258  0.2365 -0.1769
11490W        W54506   1.037   5.083   5.174  0.1217  0.1011  0.0630
11491W        W54507  29.601  16.788   0.854 -0.1963  0.1264 -0.3044
11492W        W54508   8.678  30.863  10.461  0.0376  0.2562 -0.0977
11493W        W54509  20.860  11.603   7.844  0.0667 -0.0093  0.0698
11494W        W54510  21.244  11.302   0.230 -0.0566  0.2491 -0.1952
11495W        W54511   5.438  13.223   0.298  0.2960 -0.0723 -0.0410
11496W        W54512  28.890  24.047   9.650 -0.4790  0.1565  0.0031
11497W        W54513  18.546  27.702  10.026 -0.2731  0.1435 -0.2414
11498W        W54514   5.073  10.033   5.257  0.0057 -0.3018  0.2165
11499W        W54515  25.196  26.287   9.428 -0.0704  0.1084  0.3399
11500W        W54516  10.956  15.687  27.690  0.0725  0.2242  0.1854
11501W        W54517  17.170   1.613   0.174  0.2223 -0.1275 -0.3879
11502W        W54518  16.096   4.809   0.488  0.2046  0.0019 -0.1334
11503W        W54519  26.189  12.674   9.369 -0.1017 -0.0197 -0.1705
11504W        W54520  19.824  15.320   8.200  0.2756  0.0109  0.1439
11505W        W54521   7.107  10.422  29.287 -0.2203  0.2323  0.3287
11506W        W54522  21.209  12.541   7.091 -0.2077  0.1588 -0.2377
11507W        W54523  14.927   4.047   4.558  0.2607  0.1716 -0.0436
11508W        W54524  17.022  34.283  27.141  0.2649  0.5859 -0.1088
11509W        W54525  21.848  16.505   8.045  0.0876 -0.1369 -0.2013
11510W        W54526  13.427  31.939   5.646 -0.2474  0.0763  0.0637
11511W        W54527  22.051   2.810   4.624  0.0772  0.0573  0.2129
11512W        W54528  26.854  33.752   3.659  0.0286 -0.1626 -0.1773
11513W        W54529  22.808   7.128  25.513  0.1924 -0.0174  0.1050
11514W        W54530  25.180  13.703  29.273 -0.0157  0.2681 -0.0321
11515W        W54531   8.806  22.272   3.181  0.1489 -0.1176 -0.2061
11516W        W54532  12.504  25.705  26.466  0.0137 -0.0895  0.0611
11517W        W54533  23.080   3.547   0.961  0.2020 -0.0746 -0.0730
11518W        W54534  13.739   1.289   5.182  0.3344  0.1955  0.1158
11519W        W54535  14.179   8.151   5.389 -0.4107 -0.4391 -0.2191
11520W        W54536  26.663  10.453  29.100 -0.0883  0.1678 -0.2544
11521W        W54537  27.360  27.340  16.996  0.3023  0.3052 -0.0631
11522W        W54538  24.889  20.527  26.653  0.0834  0.0929  0.0319
11523W        W54539  23.841  15.158  28.457  0.1045 -0.0981  0.1262
11524W        W54540  10.750  24.722   4.827 -0.3114  0.1235 -0.4170
11525W        W54541  28.536  21.703   6.670 -0.0802  0.0222 -0.3817
11526W        W54542  33.379   2.089   3.114 -0.1299  0.1144 -0.1165
11527W        W54543   2.883  17.902   5.021  0.1555 -0.0458 -0.0184
11528W        W54544   2.880  10.541   6.447  0.1930  0.0496  0.1117
11529W        W54545  26.641   3.595   0.222  0.1678 -0.0336 -0.3069
11530W        W54546  23.180   8.712   6.420  0.1793  0.0298  0.2435
11531W        W54547  11.006   5.871   6.854 -0.2163  0.2172 -0.0549
11532W        W54548  23.404  17.533   8.079 -0.0403 -0.1138  0.4141
11533W        W54549  32.685   6.840   5.677  0.2753  0.0274 -0.0574
11534W        W54550   9.936   5.772   4.350 -0.1817  0.0347 -0.3176
11535W        W54551  28.265   9.373   0.517  0.0770  0.1786  0.2964
11536W        W54552  15.886  24.010   6.935 -0.1670 -0.3084  0.0881
11537W        W54553  29.982  34.366   8.052  0.0416 -0.2522  0.2793
11538W        W54554  21.978  10.944  18.283  0.0421 -0.0507  0.4219
11539W        W54555  29.204  12.902   5.264  0.1593 -0.1633 -0.1973
11540W        W54556  21.666   4.444  25.159  0.1396 -0.1369  0.1870
11541W        W54557  10.683   6.002   2.224 -0.1359 -0.2047  0.2088
11542W        W54558   7.245  14.839  26.766  0.1908  0.2099 -0.1265
11543W        W54559  22.153  11.204  19.506 -0.0349  0.0291 -0.1702
11544W        W54560  11.101  22.411   8.752 -0.3799  0.2856  0.2338
11545W        W54561  24.731  19.584   4.916  0.0526  0.0031  0.2939
11546W        W54562  21.543  14.509   1.635  0.5119 -0.2305 -0.1845
11547W        W54563  24.792   6.855   4.186  0.1793 -0.0959 -0.2162
11548W        W54564  27.740   9.932   7.704 -0.0143  0.1498 -0.1041
11549W        W54565  20.881   5.206  29.161  0.4258 -0.1669 -0.0453
11550W        W54566  21.059  29.020   9.937  0.2402 -0.4304 -0.1047
11551W        W54567  22.682  16.553  20.193  0.2096  0.1156  0.1500
11552W        W54568  26.722  23.859   9.539  0.3869  0.0497  0.0772
11553W        W54569  21.057  13.054   7.194  0.0924 -0.1531 -0.0350
11554W        W54570   4.728  33.345   2.269 -0.0573  0.1244 -0.0703
11555W        W54571  26.340   4.060  26.023 -0.2006 -0.2195 -0.4000
11556W        W54572  16.118  12.182   5.537 -0.1371  0.0549 -0.3193
11557W        W54573   9.772  11.969  27.349  0.1654  0.0314 -0.1479
11558W        W54574  16.489  31.441   5.630  0.2884 -0.0107 -0.2384
11559W        W54575  24.243  15.569   5.861 -0.0058 -0.0927 -0.0179
11560W        W54576  23.520   2.996   6.797 -0.1446 -0.1685 -0.0751
11561W        W54577  33.088  28.509  27.472  0.0612  0.1254  0.0318
11562W        W54578  11.503  31.251  10.128  0.0089 -0.2669 -0.0391
11563W        W54579  23.398  18.986   3.234  0.0943 -0.0568 -0.1897
11564W        W54580  25.834   8.061  23.482  0.4766 -0.3552 -0.0046
11565W        W54581  27.964  12.680   5.540 -0.2606  0.6203  0.0380
11566W        W54582  16.993  10.886   4.920  0.3781 -0.3491 -0.2724
11567W        W54583  30.549   1.123   4.470  0.1853  0.0111 -0.1907
11568W        W54584  16.281  24.366   2.084 -0.1225 -0.1856 -0.0354
11569W        W54585  29.969   9.859   5.205  0.0171 -0.4257 -0.1047
11570W        W54586   8.501  34.461   1.968 -0.0709 -0.2672  0.1230
11571W        W54587  21.511   3.512   2.883  0.0714 -0.0070 -0.0127
11572W        W54588  33.261  11.639   3.705 -0.0362 -0.0517 -0.2369
11573W        W54589  28.518   6.163   6.634  0.0802  0.1593  0.2550
11574W        W54590  28.830  14.335   8.798  0.1665 -0.0797  0.0432
11575W        W54591  18.593   6.113   2.007 -0.0887 -0.2696  0.1361
11576W        W54592  28.201  12.157  23.859 -0.1154  0.2024 -0.1331
11577W        W54593   8.635  24.261   7.706 -0.0276 -0.0757  0.0448
11578W        W54594  13.240  20.080   2.926 -0.0839 -0.1172 -0.2107
11579W        W54595  24.280   2.897   9.336  0.0472  0.2648  0.0603
11580W        W54596  23.012   0.675   8.888 -0.0332 -0.0283 -0.1161
11581W        W54597  16.625  27.890   9.008 -0.0551 -0.1902  0.1349
11582W        W54598   9.995   0.620   2.447 -0.0063  0.4878  0.0942
11583W        W54599  12.744   8.571  26.084  0.4199  0.2625 -0.1562
11584W        W54600  13.755   5.398   3.343 -0.1981  0.1139 -0.1189
11585W        W54601   9.163   8.003  25.772  0.1139 -0.0025  0.2300
11586W        W54602   7.744  33.394   6.202 -0.0454 -0.0042  0.0181
11587W        W54603  16.328  32.892  10.659  0.3757 -0.1154 -0.0031
11588W        W54604   9.674  13.459  27.852  0.0256 -0.0122  0.0160
11589W        W54605  23.508  20.868  25.378 -0.0337  0.2789 -0.1513
11590W        W54606  17.681   6.202  28.499 -0.2272  0.1536  0.2428
11591W        W54607  32.728  26.635   2.778 -0.1130 -0.4523 -0.1301
11592W        W54608  28.113  11.582  10.585  0.1528 -0.0268 -0.0516
11593W        W54609  23.364   1.262  20.643  0.0115 -0.1267 -0.0094
11594W        W54610  22.364  23.580   6.074  0.1699 -0.2361  0.5251
11595W        W54611  18.409  12.991   8.035  0.1460  0.2648  0.5004
11596W        W54612  16.195   2.455   0.840 -0.2536 -0.1022  0.1042
11597W        W54613  18.532  28.298   1.468 -0.1506  0.1654 -0.3039
11598W        W54614  17.997  18.366   8.205  0.1836 -0.0730 -0.1103
11599W        W54615  12.042   9.616  29.140  0.0894 -0.2236 -0.1130
11600W        W54616   2.670   2.879   4.910  0.1383  0.1416 -0.0627
11601W        W54617  29.961  29.940   6.537 -0.1401 -0.1195  0.1131
11602W        W54618  20.633   5.242   8.927 -0.0065 -0.1789 -0.2660
11603W        W54619  18.939  12.051   7.626 -0.0164 -0.2383  0.2508
11604W        W54620  28.630  11.023   8.383  0.0172 -0.1378 -0.0376
11605W        W54621  26.248  17.647   2.590 -0.1504 -0.1278  0.0616
11606W        W54622  31.109  25.369   7.556 -0.2776  0.0562  0.0070
11607W        W54623  19.783  10.894   6.351  0.1298  0.1917 -0.0129
11608W        W54624  19.000  21.913   7.497 -0.0463  0.1672 -0.2160
11609W        W54625  19.212  10.528  20.839 -0.0477  0.0739 -0.0065
11610W        W54626  14.817  10.608  22.877  0.1669  0.0434  0.2252
11611W        W54627  24.098  24.668  23.511 -0.1396  0.0308  0.3266
11612W        W54628  27.210  12.772   7.854 -0.1561 -0.2559  0.2607
11613W        W54629  20.195  15.015   6.914 -0.3635 -0.1436  0.1988
11614W        W54630  24.947  16.589   6.976  0.3009  0.1637  0.0320
11615W        W54631  18.861  11.851  23.964 -0.1013 -0.1105 -0.1898
11616W        W54632  33.113  10.054  27.745  0.0383 -0.2151  0.0695
11617W        W54633   4.370   4.484  27.505  0.0292 -0.1293  0.0988
11618W        W54634  33.085  33.913   6.386 -0.2278 -0.1398 -0.0637
11619W        W54635   1.135  25.939   5.510 -0.2576  0.1876  0.2145
11620W        W54636  23.376   0.351  26.039 -0.1249  0.1862  0.0095
11621W        W54637  19.756  17.086   7.025 -0.1995 -0.2444 -0.0981
11622W        W54638  34.288   9.356   0.922  0.1016 -0.2378  0.0048
11623W        W54639  30.608   7.900   9.784  0.1299  0.3076 -0.1234
11624W        W54640  33.641  31.261   8.598 -0.3231 -0.0696  0.1038
11625W        W54641   7.201   3.075   6.580  0.0567  0.0578 -0.2228
11626W        W54642  18.127  25.569  26.629  0.2078 -0.0584 -0.1374
11627W        W54643   8.379   3.950   7.202  0.2000  0.0651  0.0263
11628W        W54644  34.776  11.703   2.054  0.3514  0.2476  0.1968
11629W        W54645  16.781  33.744   8.488 -0.2113 -0.0107 -0.2694
11630W        W54646   4.576  31.726   5.454  0.3848 -0.0476 -0.0081
11631W        W54647  21.891  10.842   1.194 -0.0130 -0.1879 -0.0331
11632W        W54648  16.742   3.106   9.915  0.0513  0.1236  0.1285
11633W        W54649  32.648  14.976  21.744 -0.4019  0.1140 -0.2174
11634W        W54650   7.485  33.367   2.936 -0.0311 -0.1171 -0.1669
11635W        W54651  19.501  32.369   7.443 -0.3675  0.2834 -0.0915
11636W        W54652  31.959  14.719   7.066 -0.1744 -0.2917 -0.0102
11637W        W54653  24.327   9.221   8.362  0.1441 -0.0027 -0.1214
11638W        W54654  21.958   4.119   5.476  0.1840 -0.0772  0.3339
11639W        W54655  28.923  17.831  21.545  0.1622 -0.2371 -0.0994
11640W        W54656  17.287  27.703  26.459 -0.0635  0.1273  0.0609
11641W        W54657  12.049  10.603   1.367 -0.2443  0.1235 -0.0293
11642W        W54658  14.407   3.542  26.792 -0.2377 -0.0788 -0.0689
11643W        W54659  30.964  33.844   8.951 -0.1404  0.3111 -0.3094
11644W        W54660  17.409  12.687  29.076 -0.1534  0.1355  0.4480
11645W        W54661  22.355   4.046  25.796  0.1343  0.0972 -0.2664
11646W        W54662  21.767  13.203   2.348  0.1022  0.0303  0.0436
11647W        W54663  11.563  19.279  17.425 -0.0268 -0.2026  0.0574
11648W        W54664  13.851  34.717   6.920 -0.3274 -0.2278 -0.1411
11649W        W54665  26.091  11.535   6.877 -0.2386  0.2895  0.0417
11650W        W54666  17.734   1.565   1.325 -0.2589  0.2598  0.3471
11651W        W54667   9.965   1.029   9.852 -0.1762 -0.2948  0.0367
11652W        W54668  24.949   0.648   7.398  0.1939 -0.0462 -0.2908
11653W        W54669   7.792  14.542  14.996 -0.0765  0.1347  0.0705
11654W        W54670  18.703   7.606   3.055 -0.0992  0.1219  0.0807
11655W        W54671  25.361   7.610   4.339  0.2168 -0.1746 -0.2846
11656W        W54672  20.784  25.396   9.251  0.1357  0.1809 -0.0289
11657W        W54673  16.917  17.172   6.432  0.4017  0.5491 -0.1654
11658W        W54674  19.271   7.618  16.870  0.1266 -0.4141  0.1800
11659W        W54675  21.651  15.938  25.769  0.0341  0.3749 -0.2377
11660W        W54676  19.548  15.190  23.194 -0.2443 -0.1232 -0.0004
11661W        W54677  19.990  30.228  23.584 -0.1254 -0.0538  0.2154
11662W        W54678  17.474   7.977   8.980  0.5956 -0.0364  0.1776
11663W        W54679  22.870  17.949   8.898  0.1589  0.0248 -0.2019
11664W        W54680  32.727  11.655   9.969  0.2823 -0.0204  0.3272
11665W        W54681  15.601  17.648   1.081  0.0783 -0.1075  0.3018
11666W        W54682  28.205  15.625  28.242  0.2852  0.1811 -0.2331
11667W        W54683   5.239  22.002   2.031  0.0805  0.1656  0.0678
11668W        W54684  33.890  30.071   1.283 -0.1369  0.0056  0.1376
11669W        W54685  16.596  13.362  24.679 -0.2471 -0.0687 -0.0154
11670W        W54686  24.207  16.924   4.091 -0.0381  0.2433  0.0282
11671W        W54687  33.894  11.746   8.033 -0.0017 -0.0020 -0.2128
11672W        W54688  23.111   0.109  11.725 -0.0158 -0.1694 -0.1801
11673W        W54689  22.269  33.994   0.111 -0.0157  0.1120 -0.1957
11674W        W54690   9.669   4.828   6.061  0.1330  0.0951  0.1067
11675W        W54691  21.497  29.956   9.317 -0.2071 -0.3113  0.0239
11676W        W54692  18.620  12.800  26.199  0.0937  0.0562 -0.0226
11677W        W54693  23.892   2.491   3.668 -0.0538 -0.0128  0.4710
11678W        W54694  15.766  16.363  28.271 -0.0431  0.0079 -0.2986
11679W        W54695  19.452   5.248   4.943 -0.0171  0.4238  0.1989
11680W        W54696  17.056  23.413   2.640  0.1235 -0.2580  0.2639
11681W        W54697  13.282  16.761  27.039 -0.1511  0.0543  0.1630
11682W        W54698  19.429  15.043   6.979 -0.1087 -0.0197  0.0421
11683W        W54699   7.754   8.498  27.335  0.3960  0.0752  0.0323
11684W        W54700  14.234  18.331  19.782  0.1069 -0.0661  0.0025
11685W        W54701   9.167   0.907   9.231  0.2280  0.0488  0.0710
11686W        W54702  28.662   1.275   8.513 -0.1080  0.0116  0.1583
11687W        W54703   5.854   6.391   0.362  0.1819  0.1552 -0.2168
11688W        W54704  32.717  27.110   2.266 -0.3493 -0.0063  0.0588
11689W        W54705  29.961   7.539  10.061  0.2036  0.1427  0.1740
11690W        W54706  24.317   7.555   0.165 -0.0371  0.1136  0.0369
11691W        W54707  20.495  29.077  25.185  0.1291  0.1704 -0.2752
11692W        W54708  27.458  15.383  14.377  0.4056  0.2647 -0.0121
11693W        W54709  17.771  15.048   7.289 -0.2011  0.1651 -0.0791
11694W        W54710  30.677  21.942   7.457  0.1214 -0.0775 -0.2134
11695W        W54711  17.627   3.028  29.117 -0.1271  0.2274 -0.1554
11696W        W54712  22.472   4.105   8.675  0.0061  0.0128 -0.1390
11697W        W54713  16.951  13.777   5.314  0.4419  0.0336  0.0212
11698W        W54714  14.624  15.819   7.661 -0.1504 -0.1884 -0.2288
11699W        W54715  20.868   2.197   6.606  0.1071 -0.1791  0.0342
11700W        W54716  21.549  11.562   7.394  0.2209 -0.2779  0.2714
11701W        W54717  22.099  23.240   2.201  0.4481  0.1525  0.1436
11702W        W54718  17.483  13.863   2.988 -0.4255 -0.1222 -0.4409
11703W        W54719  19.687   9.658  24.698  0.2032 -0.0138 -0.0894
11704W        W54720  16.281  14.393   1.994 -0.0976  0.1510 -0.0665
11705W        W54721  24.175   8.592   8.934  0.1227 -0.3155 -0.2528
11706W        W54722  21.182  12.033   8.753  0.2268 -0.0400 -0.2233
11707W        W54723  24.381  15.584   6.550 -0.1020 -0.1019  0.1672
11708W        W54724   8.725   0.720   9.932  0.0954 -0.1586  0.0043
11709W        W54725  15.340   4.349   1.702 -0.1895  0.2616  0.2115
11710W        W54726  24.522   6.519   4.474  0.2362  0.0592 -0.2212
11711W        W54727  29.398  11.701  23.850  0.0477  0.1297  0.1607
11712W        W54728  19.047   9.697   7.343  0.1187  0.1530 -0.0622
11713W        W54729  13.111  18.089  23.000  0.1580 -0.1917  0.3196
11714W        W54730  18.163  32.558   6.985 -0.2408 -0.1470 -0.0223
11715W        W54731   4.179  20.147   0.312  0.1454  0.1097 -0.0382
11716W        W54732  20.784  11.617   8.767 -0.1725 -0.2248 -0.3404
11717W        W54733  23.524   1.278  29.116  0.4368  0.0669  0.2037
11718W        W54734  16.578  13.533   7.308 -0.1830  0.1680  0.1736
11719W        W54735   0.844   2.822   1.979  0.1692 -0.3978  0.2188
11720W        W54736  27.699   5.400   5.233  0.3105 -0.0594 -0.1067
11721W        W54737  24.156  11.661  15.299 -0.1496  0.1146 -0.0641
11722W        W54738  17.020  16.655  15.059 -0.2015 -0.2072  0.0194
11723W        W54739   4.723   5.801   2.772  0.2525  0.0182 -0.2562
11724W        W54740   3.077   9.207   4.092 -0.1793  0.1590  0.0652
11725W        W54741  11.759   5.491   5.232  0.1086 -0.1553  0.2128
11726W        W54742  20.130  15.267   3.684  0.0822 -0.0205 -0.0420
11727W        W54743  15.430  34.753   0.312 -0.0289 -0.1552 -0.0548
11728W        W54744  28.350  14.869  25.402  0.0248 -0.1327 -0.1063
11729W        W54745  18.174  29.425   0.669  0.2329  0.0779  0.3645
11730W        W54746  24.462  15.349   1.674  0.1490  0.0071 -0.1050
11731W        W54747  19.207   0.162   1.142 -0.1000 -0.1907 -0.1348
11732W        W54748  15.448   8.879  18.613  0.1295  0.2027 -0.0215
11733W        W54749  20.005   1.505   1.411  0.1383 -0.1294 -0.1721
11734W        W54750  32.830   8.632   1.241  0.0524 -0.0752 -0.3874
11735W        W54751  20.053  18.790  26.621 -0.0054 -0.0387  0.2150
11736W        W54752   1.136  15.906   4.017  0.0920  0.0124 -0.1129
11737W        W54753  29.209  25.612   7.489 -0.0157 -0.2664  0.1744
11738W        W54754  15.345   2.889   2.265 -0.0350 -0.0942  0.2226
11739W        W54755  10.578  26.455  16.970 -0.1303  0.1076  0.2135
11740W        W54756  27.661   9.842   9.912  0.0069  0.3434  0.0564
11741W        W54757   0.544  25.253   2.318  0.3755 -0.0911 -0.1771
11742W        W54758  21.379  18.621  20.053 -0.0393 -0.2753 -0.0326
11743W        W54759  14.312  10.187  27.588 -0.0066  0.1379  0.1195
11744W        W54760  17.530   5.626   7.266  0.1010 -0.0141  0.0753
11745W        W54761  21.203  34.096   9.586  0.2823 -0.0246  0.1605
11746W        W54762  23.628  12.186  25.681  0.2247  0.1039 -0.0568
11747W        W54763  25.958  24.266  11.249 -0.0449  0.4792  0.0314
11748W        W54764   1.630  12.170   7.012  0.0828 -0.1995 -0.2812
11749W        W54765  26.937   4.281  26.561  0.1970 -0.2050 -0.0906
11750W        W54766  20.163  22.465   2.659 -0.1728 -0.0134  0.1733
11751W        W54767  16.307  10.013   0.054  0.2155 -0.0276 -0.2201
11752W        W54768  19.526  31.689  11.218  0.1022  0.1456 -0.0865
11753W        W54769  19.137   9.428   4.522 -0.3861  0.0499  0.0938
11754W        W54770  33.882   3.969   0.315  0.0822 -0.2101 -0.0862
11755W        W54771  10.773  10.426   6.353  0.2260 -0.2282  0.0653
11756W        W54772   4.760   8.139  28.749  0.0949  0.0264  0.0668
11757W        W54773  23.295  10.194   5.021  0.3130 -0.4040 -0.1507
11758W        W54774  30.901  25.367   8.452  0.0788 -0.1078 -0.1957
11759W        W54775  17.408  34.709   4.139  0.1995 -0.1155  0.0184
11760W        W54776  18.157   2.194   0.986  0.4563  0.1790 -0.1462
11761W        W54777  10.860   6.206   4.648  0.0869 -0.0222  0.0267
11762W        W54778  22.745  23.927  17.181 -0.0902  0.1668  0.1172
11763W        W54779   0.725  18.388   5.489 -0.0501 -0.1117 -0.2045
11764W        W54780   5.853   1.334   9.478  0.2098  0.1340  0.0796
11765W        W54781  27.239  34.160   4.407 -0.1828  0.2488  0.1968
11766W        W54782  32.669  12.298   8.307  0.1462 -0.2592 -0.2138
11767W        W54783  17.366   8.227   0.795 -0.3613  0.0207  0.2832
11768W        W54784  24.423   0.437   8.604  0.0142  0.0326 -0.3847
11769W        W54785  31.630   0.022  27.491 -0.2648 -0.2292 -0.0436
11770W        W54786  22.751  30.642   5.050 -0.1917 -0.1957 -0.2775
11771W        W54787  31.856  21.887  24.099  0.1406 -0.0418  0.0724
11772W        W54788  18.040   8.172  19.616 -0.6185 -0.1227  0.1781
11773W        W54789  30.460  20.126  22.569 -0.1745 -0.0595 -0.1975
11774W        W54790  14.900  20.081  26.901  0.2487 -0.0304  0.2300
11775W        W54791  12.014  20.484  24.401  0.3145 -0.1890 -0.2661
11776W        W54792  22.095   0.036   2.179  0.0978  0.0253 -0.1355
11777W        W54793  27.048  20.849   6.850  0.0695  0.2797 -0.0544
11778W        W54794  10.729  10.204   2.630 -0.1275 -0.1959 -0.0808
11779W        W54795  29.108  26.479   9.805 -0.1646  0.0645  0.2131
11780W        W54796  14.614  34.119   4.428 -0.0098 -0.0474 -0.0121
11781W        W54797  14.380  16.315  11.542 -0.2104 -0.0840 -0.1779
11782W        W54798  21.762   3.609   6.335  0.1082 -0.2479  0.0731
11783W        W54799  20.626  15.989   8.136  0.1648  0.0885  0.1808
11784W        W54800  28.610  12.143   5.256  0.1408  0.2517 -0.1210
11785W        W54801  25.935  11.039   1.730 -0.2729  0.1611  0.2256
11786W        W54802   4.363   3.604   8.457  0.0932  0.1487 -0.1091
11787W        W54803  27.948  16.841  24.785  0.4636 -0.0055  0.0135
11788W        W54804  33.393   6.921  10.284 -0.1267  0.2632  0.0218
11789W        W54805   6.359  10.837   6.210 -0.1393 -0.0289 -0.0703
11790W        W54806  11.502  10.897   0.038  0.2346  0.1062  0.1287
11791W        W54807  18.175  31.943   8.926  0.2757  0.1663 -0.1905
11792W        W54808  18.704   0.188  10.037  0.0952 -0.0085  0.1051
11793W        W54809  22.837  32.516   3.850 -0.1906  0.0211  0.1346
11794W        W54810  25.700  22.604  20.521  0.2976  0.0142 -0.0481
11795W        W54811  20.117  14.434  25.126 -0.0096  0.0908  0.1280
11796W        W54812  17.886   0.234   6.644 -0.0018  0.0201  0.0807
11797W        W54813  12.692  18.070   7.046 -0.1117  0.0952  0.1937
11798W        W54814  25.230  11.462   3.586 -0.0616  0.2462 -0.1784
11799W        W54815  15.268  15.184   6.231 -0.1379  0.0668  0.0944
11800W        W54816   2.534  13.033  20.348  0.1561  0.1914 -0.0375
11801W        W54817  34.321  29.058   0.942  0.1380 -0.1215 -0.2010
11802W        W54818  24.030  17.348   3.947 -0.2651 -0.0385  0.0214
11803W        W54819  18.845  31.870  26.733  0.2336 -0.1931 -0.0225
11804W        W54820   9.678  12.269  27.781  0.1857 -0.0551  0.3629
11805W        W54821  20.032   1.437  29.236  0.1339 -0.1642  0.0152
11806W        W54822  29.515   9.326   2.209 -0.0102 -0.0682 -0.2199
11807W        W54823  22.091  12.452  18.546  0.1783 -0.0126 -0.1576
11808W        W54824   4.441  31.218   5.195 -0.1206  0.4076  0.2620
11809W        W54825   8.850  19.654   7.219  0.0550  0.0128 -0.2721
11810W        W54826  25.087  30.497   2.642 -0.1671  0.2706  0.2177
11811W        W54827  22.933  17.438  25.479 -0.0822 -0.2058 -0.2206
11812W        W54828  22.535   0.986  26.313  0.0479  0.0703  0.2439
11813W        W54829  17.258  16.109  21.141  0.4781  0.1982  0.0413
11814W        W54830  18.476   1.651  15.544 -0.0049 -0.0229  0.1536
11815W        W54831   6.652  16.953  15.333  0.3125 -0.0765 -0.0651
11816W        W54832  22.556  11.593  17.861 -0.0834 -0.2939  0.0788
11817W        W54833  14.322   1.887   5.927  0.1116 -0.0157  0.0674
11818W        W54834  25.918   3.058  22.979 -0.0174  0.1926 -0.2263
11819W        W54835  18.273   6.682  27.819  0.0481  0.0818 -0.2338
11820W        W54836  33.820   8.728  26.754  0.1576  0.2278  0.4156
11821W        W54837  17.209  32.047   3.714 -0.1567 -0.1721  0.1021
11822W        W54838  22.660  17.371  27.099  0.1604  0.0481 -0.4215
11823W        W54839  17.121  13.769  27.657  0.0050  0.3534  0.0379
11824W        W54840  12.913  25.384   6.715 -0.0291 -0.0097  0.0080
11825W        W54841  25.023  22.784  28.690 -0.1980  0.1100  0.1498
11826W        W54842  16.307   5.715   6.043  0.0738 -0.4789  0.2902
11827W        W54843  14.311   2.457  28.022  0.1194  0.2136 -0.2006
11828W        W54844  16.917   9.737   0.004  0.1637 -0.1128  0.1778
11829W        W54845  28.151   8.742   4.514  0.2040  0.4520  0.0366
11830W        W54846   6.170   2.755   9.485 -0.3200  0.2629  0.4018
11831W        W54847  29.530   3.067  25.271  0.3248  0.0991 -0.4031
11832W        W54848  17.333   9.609   8.469  0.0839 -0.3564 -0.3377
11833W        W54849  24.117  13.797  26.462  0.0787  0.0599  0.1707
11834W        W54850  24.580  12.798   5.091 -0.2409  0.2549 -0.1508
11835W        W54851  20.377  34.222   2.438 -0.1289 -0.0567  0.0019
11836W        W54852  13.644   6.281   4.820 -0.1148  0.0887  0.0582
11837W        W54853   7.966  15.343  14.979  0.0777 -0.0804  0.0259
11838W        W54854  22.697   7.791  22.535 -0.2620  0.0689 -0.1480
11839W        W54855  32.127  10.168  25.169  0.2376 -0.2061  0.2832
11840W        W54856  31.765  17.207  21.372 -0.3490 -0.0546 -0.1203
11841W        W54857  19.873  33.602  22.092  0.2584 -0.0321 -0.0452
11842W        W54858  23.776  17.798   5.824  0.3398 -0.3366 -0.3089
11843W        W54859  15.941  13.190   1.967 -0.1120 -0.1646  0.2412
11844W        W54860   8.262   0.747  24.493  0.1420  0.2369  0.0720
11845W        W54861  22.013  18.972   3.128  0.2939  0.1057 -0.2432
11846W        W54862  16.750  11.795  28.326 -0.1957 -0.1332  0.2873
11847W        W54863  28.837   7.610   4.520  0.0312  0.1865  0.0737
11848W        W54864  12.979  32.795   8.945 -0.0086  0.2334  0.1166
11849W        W54865  23.648  29.330   9.523  0.1145 -0.1747  0.0082
11850W        W54866  25.115   6.416   4.117  0.0301 -0.0377  0.0116
11851W        W54867   5.343   4.814   3.789 -0.0520 -0.0352  0.0355
11852W        W54868  10.329  10.388  17.904 -0.1819 -0.0471  0.2235
11853W        W54869  32.430  17.742  10.735 -0.4887 -0.0396  0.0036
11854W        W54870  21.222  19.959  18.440 -0.2032  0.2071 -0.3289
11855W        W54871  23.484  17.668  27.435  0.2135  0.0267  0.1162
11856W        W54872  27.578  34.451   4.608  0.1006  0.0285 -0.2587
11857W        W54873  13.532  29.596  29.026 -0.0185  0.2180 -0.1071
11858W        W54874  24.780   7.322   2.517  0.3448  0.2467 -0.0578
11859W        W54875  22.691  17.079   7.798  0.2917  0.5727 -0.2761
11860W        W54876   7.822  18.323  25.354 -0.2090 -0.0504 -0.1572
11861W        W54877  29.458  27.416   7.092 -0.0453  0.0475 -0.0678
11862W        W54878  15.535  13.904   4.335 -0.0296  0.0928 -0.2730
11863W        W54879  16.260  15.980   6.174 -0.0800 -0.1090  0.3581
11864W        W54880  25.204   7.061   2.404  0.2348 -0.2023  0.0659
11865W        W54881  10.408  11.823   8.826  0.1100 -0.1434 -0.1550
11866W        W54882  17.154   2.849   2.875  0.1450 -0.0854 -0.0319
11867W        W54883  18.034  15.413  20.219  0.1351 -0.2823 -0.1165
11868W        W54884  21.727  18.162  22.788 -0.0195 -0.0044 -0.4064
11869W        W54885  22.959  15.886  21.955 -0.0519  0.3707  0.4379
11870W        W54886  32.183  13.798   9.554  0.2080  0.2828 -0.0411
11871W        W54887  20.500  16.426   1.827 -0.2697  0.1610 -0.3772
11872W        W54888  15.215  14.552  23.570 -0.0374  0.1954  0.0696
11873W        W54889  15.844  32.598  16.158 -0.2614 -0.0155  0.1204
11874W        W54890  26.093  10.447   2.426 -0.0412  0.2248 -0.4193
11875W        W54891  13.165   4.231   9.698  0.4104 -0.2222 -0.3889
11876W        W54892   8.624   4.957   7.650 -0.0040  0.2666 -0.2872
11877W        W54893  24.172   8.022   3.920 -0.2457  0.1328  0.0469
11878W        W54894  27.321  18.073   9.109 -0.0303 -0.4012  0.0462
11879W        W54895  22.948  30.562   6.389 -0.1706  0.0382 -0.5521
11880W        W54896  22.656   7.004   0.684  0.3087  0.1147 -0.1298
11881W        W54897  19.068   7.107   5.918  0.0872 -0.2698  0.0223
11882W        W54898  29.112  10.803  10.041 -0.1659  0.3970 -0.0654
11883W        W54899  19.510  29.940   7.318 -0.0968  0.4529  0.1723
11884W        W54900   3.645  26.157   2.089  0.5079 -0.0188 -0.0843
11885W        W54901  26.541  10.516   8.425 -0.6459  0.0803 -0.1238
11886W        W54902  13.848  16.952   1.474 -0.1369  0.1579  0.2681
11887W        W54903  12.504  33.700  22.358 -0.1181 -0.0916  0.1901
11888W        W54904  17.992  33.612   7.834  0.0724 -0.0772  0.1312
11889W        W54905  11.690  16.924   4.915 -0.1437  0.0331  0.1254
11890W        W54906  15.634  14.298   3.522 -0.1460 -0.2878 -0.0110
11891W        W54907  16.720  10.355   3.518 -0.0893 -0.0050  0.1504
11892W        W54908  27.271  11.918   1.729  0.0010  0.0264 -0.0735
11893W        W54909   7.334  32.673   0.618  0.0182 -0.0404 -0.1081
11894W        W54910  29.467  26.616   8.593  0.2799  0.0873 -0.1486
11895W        W54911  16.824   9.715   4.515 -0.0487 -0.2301 -0.0367
11896W        W54912  12.402  15.708   1.756 -0.3710  0.0495  0.2690
11897W        W54913  21.447  28.722  25.553  0.0832  0.1085 -0.2992
11898W        W54914   0.087  13.122   1.876 -0.1062  0.0210  0.0493
11899W        W54915  21.168  15.903  14.213 -0.0366 -0.1988  0.0482
11900W        W54916  28.519  33.850  23.101 -0.0297  0.1883 -0.2885
11901W        W54917   4.999  16.942  19.692 -0.1253  0.0252  0.0087
11902W        W54918  26.631  17.500   6.167 -0.1384 -0.0352  0.0164
11903W        W54919  17.859   9.028  24.994 -0.0847 -0.0641 -0.1932
11904W        W54920  12.729  29.781  16.554  0.2251  0.0715 -0.1462
11905W        W54921  10.968  11.868  27.413 -0.2000  0.2891  0.1639
11906W        W54922   1.377  16.666  25.180  0.0344  0.2270 -0.1364
11907W        W54923   4.549   2.223  21.954 -0.2208 -0.3094  0.0903
11908W        W54924  27.363  27.071   7.965  0.3528 -0.0065 -0.1077
11909W        W54925   6.519  17.087  25.668 -0.1602 -0.1755 -0.1041
11910W        W54926  28.175  11.897   5.591 -0.0780  0.0546 -0.0928
11911W        W54927  19.686   9.010   0.675 -0.4094  0.1337  0.2029
11912W        W54928  30.571  13.243   2.666 -0.0169  0.2866  0.0362
11913W        W54929  15.254  21.301   6.040  0.2455 -0.1371  0.1767
11914W        W54930  29.627   2.633  28.813 -0.3238 -0.1304 -0.0596
11915W        W54931  13.598  18.688   8.028  0.0236  0.1230 -0.0320
11916W        W54932  23.015  20.009   6.232  0.3919 -0.1140 -0.2729
11917W        W54933  30.742   0.221   6.358  0.0621  0.0745  0.0739
11918W        W54934   7.100   7.481  27.201 -0.0333 -0.0085 -0.0076
11919W        W54935   1.553   9.204   8.333 -0.2331 -0.0502  0.3407
11920W        W54936  23.835   2.942   3.849  0.0356  0.2970  0.2399
11921W        W54937  24.500  17.151  23.856  0.1627  0.0456 -0.0546
11922W        W54938  17.665  31.374  17.595 -0.0436 -0.1189  0.0231
11923W        W54939  11.888  28.840   2.131 -0.0988  0.2072 -0.2086
11924W        W54940  34.365   4.120  27.539 -0.2794  0.3639  0.2702
11925W        W54941  26.227  20.808   9.462 -0.2709  0.0818 -0.2966
11926W        W54942  14.161   3.378  28.542 -0.1219  0.1314  0.1972
11927W        W54943  13.250  10.440  28.925  0.1935  0.0569 -0.3854
11928W        W54944  31.422  18.413   1.788  0.2192  0.1500 -0.1983
11929W        W54945  15.376  31.152   5.229  0.1293  0.1700 -0.1990
11930W        W54946  26.980   0.345  28.878 -0.5314 -0.1600  0.0254
11931W        W54947  20.351   3.353  24.235  0.0555  0.0340 -0.3570
11932W        W54948  18.099  31.010   3.169 -0.2596 -0.1245 -0.0653
11933W        W54949  30.333   5.121   0.506  0.1728  0.0163  0.1683
11934W        W54950  10.286  14.647   1.825 -0.1978  0.3755 -0.0585
11935W        W54951  23.069   2.027   6.958 -0.0756  0.3582  0.1744
11936W        W54952  15.983  12.747   2.857  0.1074 -0.3104  0.1654
11937W        W54953  19.176  17.333  25.286 -0.0947  0.2183 -0.0068
11938W        W54954  15.166  19.501  28.306 -0.4737 -0.0299  0.0534
11939W        W54955  28.785   3.368  15.846  0.3255  0.0382 -0.0184
11940W        W54956   6.777  12.585  27.175 -0.1575 -0.0230 -0.1438
11941W        W54957  22.334   0.717  10.367 -0.0552 -0.1323  0.1433
11942W        W54958  24.143   0.679   3.932  0.2584 -0.0487  0.0994
11943W        W54959   9.802   2.933   5.238 -0.0551 -0.0682 -0.4447
11944W        W54960  29.572   3.494  20.733 -0.0434  0.3157 -0.0248
11945W        W54961  18.257  16.180  25.515  0.0559  0.0607 -0.1597
11946W        W54962  15.336   6.675   5.133 -0.2407 -0.0107 -0.0274
11947W        W54963  15.210  10.267  21.460  0.0455  0.1016  0.1508
11948W        W54964  17.295  15.958   5.707  0.1233  0.1329 -0.4307
11949W        W54965  21.984   9.830   2.801  0.3971  0.0944 -0.1082
11950W        W54966   3.272  24.448  24.262  0.1370 -0.1994 -0.0255
11951W        W54967  21.012   6.095  18.656 -0.1892  0.0479  0.1683
11952W        W54968  28.123  29.042  27.401 -0.1499 -0.1133 -0.1677
11953W        W54969  33.745   5.280   7.614  0.2387 -0.1286 -0.1317
11954W        W54970  20.311  21.502   8.612 -0.1776 -0.1984  0.1796
11955W        W54971  19.778  22.969  25.738  0.0097  0.0023 -0.0107
11956W        W54972  21.868  31.043   1.237 -0.0858  0.0149  0.0377
11957W        W54973  17.435  12.296  27.539 -0.0599 -0.2235 -0.2106
11958W        W54974   2.053   8.810  20.936 -0.2658 -0.1696 -0.2784
11959W        W54975  15.346  11.850   4.356  0.1281 -0.1741  0.2203
11960W        W54976  21.515   4.931  17.148  0.0666  0.0878  0.2383
11961W        W54977  27.920  14.142   1.443  0.2582 -0.2523  0.3869
11962W        W54978  16.635   7.254  16.000 -0.0680 -0.0514 -0.0610
11963W        W54979  13.137  26.425   6.684 -0.3285  0.2567 -0.1455
11964W        W54980  14.244  15.159  25.820 -0.0917  0.0838 -0.1382
11965W        W54981  14.277  24.558  21.555  0.2539 -0.1292 -0.1710
11966W        W54982   2.742   5.950   2.184 -0.0927  0.0666  0.0913
11967W        W54983  18.507  20.753  27.700  0.2462 -0.3058 -0.1504
11968W        W54984  27.358  24.027   6.211  0.1916 -0.5000  0.0416
11969W        W54985  27.576  15.127  20.679 -0.0192 -0.0432  0.3496
11970W        W54986  26.526  15.957   2.527 -0.2354  0.1756  0.1309
11971W        W54987  34.467  15.788  28.690  0.1070  0.3589 -0.0038
11972W        W54988  15.433   9.210  24.762  0.2179  0.1540 -0.0079
11973W        W54989  21.496   6.302   0.927 -0.0107 -0.1943 -0.0483
11974W        W54990  33.741   2.227  15.990  0.1522  0.1105 -0.0302
11975W        W54991   3.991  31.059   2.888  0.1250  0.1912 -0.3220
11976W        W54992  26.604   2.805  17.166 -0.0247 -0.3174 -0.1599
11977W        W54993   6.139  14.876  19.543  0.0049 -0.1752 -0.2680
11978W        W54994   1.490  18.159  20.210  0.2058 -0.1311 -0.0053
11979W        W54995  14.312  12.882  28.176  0.2060  0.0543  0.0421
11980W        W54996   8.953  13.077   7.292  0.2358 -0.0083  0.0984
11981W        W54997  18.476  27.750  24.681 -0.2414 -0.3039 -0.1297
11982W        W54998  33.798  18.993   1.380 -0.0137 -0.1112  0.0833
11983W        W54999   1.786   2.754  29.240 -0.1156  0.0709 -0.3568
11984W        W55000  16.304  11.649  21.522 -0.0618  0.0541 -0.1598
11985W        W55001  20.263  32.442   2.952  0.0633  0.0500  0.0652
11986W        W55002  19.987   1.330  23.118 -0.2210 -0.6093 -0.1848
11987W        W55003  20.671  10.290  27.465 -0.2702 -0.0447 -0.2315
11988W        W55004  19.382  19.819  22.729 -0.2864 -0.0651 -0.2131
11989W        W55005  16.447   4.876   0.822 -0.2201 -0.1646 -0.2810
11990W        W55006   6.294   5.017   6.738 -0.1854  0.0063  0.1968
11991W        W55007  22.545   8.745   3.664 -0.1352  0.2190  0.0938
11992W        W55008  29.037  30.593   1.571 -0.0334  0.0325  0.0822
11993W        W55009  13.829  11.906  28.039 -0.1735 -0.1724  0.0358
11994W        W55010  26.603  23.006  16.234  0.1994 -0.0307 -0.3039
11995W        W55011  27.374  18.092  27.436  0.1079  0.2458 -0.0519
11996W        W55012  20.593   6.775  28.898  0.1121  0.5498 -0.0299
11997W        W55013  33.060  10.619  26.195 -0.0148  0.0500 -0.2433
11998W        W55014   6.421  24.062  28.261  0.1064  0.3693  0.2362
11999W        W55015   9.949  19.711  25.029  0.0205  0.1237 -0.0873
12000W        W55016  10.730  11.284   8.103 -0.0519  0.2305  0.0255
12001W        W55017  10.931  13.043  18.069 -0.1118 -0.3590  0.2300
12002W        W55018   4.114  20.198   3.282 -0.0747 -0.0585 -0.0436
12003W        W55019  33.332   7.082   5.366 -0.2961 -0.1065 -0.1443
12004W        W55020  11.278  13.154   4.805 -0.0407  0.0195 -0.1805
12005W        W55021  18.115   7.976   7.236 -0.3875  0.1065  0.0111
12006W        W55022  28.210  11.310   5.601 -0.0677  0.1208 -0.1741
12007W        W55023  16.927  18.384  28.195 -0.0791 -0.0805 -0.0285
12008W        W55024  15.909  19.682   3.915  0.3403 -0.0170 -0.0655
12009W        W55025   5.378   8.934   5.704 -0.1047 -0.0632  0.0522
12010W        W55026  22.583   2.315  10.324  0.1258 -0.0035 -0.2415
12011W        W55027  27.838  13.112   9.322  0.1617 -0.0426 -0.2299
12012W        W55028  29.362  16.116  15.233 -0.0488 -0.0613 -0.0217
12013W        W55029  34.113  29.492  28.481 -0.0062  0.2179 -0.2227
12014W        W55030   5.819   9.631   6.779  0.1689 -0.0337  0.2405
12015W        W55031   1.830  15.468   2.746  0.3435  0.1476 -0.2154
12016W        W55032  19.465   2.547  21.959  0.0199  0.3026 -0.1253
12017W        W55033  23.150  14.674  27.322  0.2118 -0.1436  0.3869
12018W        W55034  20.408  13.073   5.782 -0.2898  0.0447  0.0209
12019W        W55035  14.833  18.012  24.067 -0.1540 -0.4023  0.0095
12020W        W55036   4.282  12.819  17.155 -0.2525  0.3917  0.1313
12021W        W55037   5.608   3.670  28.847 -0.1224 -0.2537  0.1005
12022W        W55038   0.601   4.736   6.228 -0.2053 -0.1924  0.1906
12023W        W55039   5.393  11.338   8.135  0.0185  0.0570 -0.2987
12024W        W55040  10.124   7.705  18.241 -0.0168  0.0564 -0.0755
12025W        W55041  26.196   8.174   4.344  0.0239 -0.1941  0.1493
12026W        W55042  12.608  15.890   6.942  0.1433 -0.0133 -0.0124
12027W        W55043  25.578  20.842   4.356  0.0743 -0.0907  0.0534
12028W        W55044  17.084   2.420   4.895 -0.3408  0.0295 -0.3498
12029W        W55045  18.291   6.045   0.172  0.2148 -0.1154 -0.4317
12030W        W55046   7.793  21.673  26.147  0.0535 -0.2318 -0.1756
12031W        W55047  22.347  27.205  22.706 -0.0527  0.3763 -0.0111
12032W        W55048  23.141  11.205  18.922  0.0520  0.0173 -0.2372
12033W        W55049  15.756  10.040  14.851  0.0061 -0.2047  0.1096
12034W        W55050  31.592  19.020   0.574  0.2756  0.0841  0.2394
12035W        W55051  33.056   9.169   5.408 -0.3710  0.3069 -0.0779
12036W        W55052  26.950  22.910  15.000 -0.0351 -0.0699 -0.1510
12037W        W55053  24.527  16.120  28.646  0.1442  0.0641  0.1079
12038W        W55054   3.980   8.020   3.070  0.1398  0.3102  0.0671
12039W        W55055  25.200  20.424   7.966 -0.1191 -0.2373  0.1511
12040W        W55056  23.873  18.213  25.381  0.1678 -0.0341 -0.0296
12041W        W55057  16.396  13.097   2.153  0.2292  0.1289 -0.1082
12042W        W55058   0.055  16.625   0.803  0.1876 -0.3844 -0.0644
12043W        W55059  24.028   6.394   9.400 -0.3167 -0.0272  0.2247
12044W        W55060  24.740   5.775  28.436 -0.3828 -0.2747 -0.5581
12045W        W55061  13.786  34.197  24.863  0.0898 -0.2399  0.0606
12046W        W55062  21.538   6.046   7.082 -0.1481 -0.1484  0.0453
12047W        W55063  33.734  12.759   2.303  0.0363  0.0313 -0.1383
12048W        W55064  31.467   8.984   5.220  0.1525 -0.1747 -0.0338
12049W        W55065  16.663  25.826   2.182  0.0082 -0.1352  0.2427
12050W        W55066  12.433  11.503   7.557  0.2349 -0.1583  0.0506
12051W        W55067   0.116  22.332  15.884 -0.2293 -0.3635 -0.5837
12052W        W55068  13.595   9.623  29.271 -0.2924 -0.1452  0.3145
12053W        W55069   3.113  28.051   4.842  0.0634 -0.3201  0.0466
12054W        W55070  22.501  21.176   7.011 -0.1517  0.3242 -0.1501
12055W        W55071   9.559   6.474   0.472 -0.1404  0.2539  0.0189
12056W        W55072  17.063  27.378  10.089 -0.0492  0.0107  0.0684
12057W        W55073  13.297  10.545   6.806  0.1108 -0.2435  0.0757
12058W        W55074  28.675  34.539  23.742 -0.1074  0.0832 -0.0667
12059W        W55075   0.843   4.717  27.894 -0.0619  0.0720 -0.2663
12060W        W55076  23.720  15.801   2.458 -0.0075  0.1396 -0.1818
12061W        W55077  11.305   0.118   1.261  0.0253 -0.1008  0.3082
12062W        W55078  25.099  19.241   7.330  0.0816 -0.1615 -0.1367
12063W        W55079  24.974  11.398   2.733 -0.2469 -0.1740  0.0950
12064W        W55080  23.511   1.229   7.387 -0.1265  0.2739 -0.1175
12065W        W55081  18.368  19.575   7.311 -0.1195  0.1232  0.1720
12066W        W55082  29.227   6.130   8.559 -0.1005  0.1513  0.2538
12067W        W55083  15.004  23.040   8.763  0.3951  0.2153 -0.1523
12068W        W55084  16.914  33.761   3.962 -0.3196  0.3247  0.3201
12069W        W55085  11.073  34.446  25.245 -0.0224 -0.0196  0.2002
12070W        W55086  29.742  15.436   8.621  0.0725  0.0789 -0.0919
12071W        W55087  23.460   8.748   8.216  0.0293 -0.0511 -0.0159
12072W        W55088  19.978   3.720   9.200 -0.1498  0.3522 -0.0021
12073W        W55089  12.551  11.738   8.017  0.0260  0.1057 -0.2666
12074W        W55090  23.922   2.813   1.115  0.0621 -0.0492 -0.2111
12075W        W55091  21.938  16.326   1.801  0.2493 -0.0815 -0.3407
12076W        W55092  18.728   8.838  22.188 -0.2481 -0.0982 -0.2447
12077W        W55093  30.522  10.811  27.544 -0.0566 -0.0419  0.2185
12078W        W55094  24.656  13.732   1.570  0.2135  0.0218 -0.1618
12079W        W55095  27.946   7.646   0.144  0.0434  0.5404  0.0082
12080W        W55096   7.434  11.082   7.988 -0.0076 -0.1597  0.1081
12081W        W55097  13.285  19.912   7.809  0.0978 -0.2866  0.2179
12082W        W55098  34.250  20.312  15.083  0.3515  0.2402  0.0997
12083W        W55099  32.123  11.945   9.307  0.1565 -0.4872  0.0357
12084W        W55100  32.834  12.444  29.083  0.0543  0.1235 -0.4087
12085W        W55101  21.128  20.719   6.196  0.4431 -0.0062 -0.3759
12086W        W55102  26.978  28.064  28.717 -0.0089  0.0119  0.0362
12087W        W55103   6.010   8.121  10.185 -0.3406  0.1346 -0.2172
12088W        W55104  23.739  24.433  27.582 -0.0363  0.0103 -0.0544
12089W        W55105  15.988   0.343   4.443  0.0500  0.2558 -0.0984
12090W        W55106  24.946   8.501  10.922  0.2755  0.0805  0.1492
12091W        W55107  17.570   7.773   2.740 -0.0913 -0.1471 -0.0636
12092W        W55108  11.925   1.466   3.939 -0.0541 -0.0206 -0.1158
12093W        W55109  17.827   5.663   3.763  0.1886 -0.0099  0.1052
12094W        W55110  31.871  18.544  22.687  0.0352 -0.1315 -0.1143
12095W        W55111   2.917  21.221   4.503 -0.5383  0.0009  0.1158
12096W        W55112   5.538  13.000   4.644  0.0655  0.1971 -0.0325
12097W        W55113  21.778   7.831   6.759 -0.1369  0.0176  0.3699
12098W        W55114   1.023  11.596  18.773 -0.1993 -0.0835 -0.0408
12099W        W55115  20.454  26.014   7.647 -0.1795  0.0237  0.1154
12100W        W55116  15.116  12.149  29.098 -0.1674  0.2152 -0.2471
12101W        W55117  31.918  25.430   7.085  0.0044  0.2728  0.2877
12102W        W55118  14.542  17.959  28.811  0.1439  0.1614 -0.0464
12103W        W55119  27.306  34.554  23.662  0.0983  0.1237  0.2845
12104W        W55120   6.712  30.182  25.688  0.0661  0.1826  0.1908
12105W        W55121  18.118  10.606   7.252  0.3192 -0.0408 -0.2679
12106W        W55122  25.310  16.333  28.908  0.0331 -0.1553 -0.3646
12107W        W55123  15.413  23.060   7.973 -0.1176  0.0726  0.0599
12108W        W55124   8.220   6.160  18.348  0.1713 -0.0137 -0.3030
12109W        W55125  17.205   5.885   0.154  0.3846  0.1504  0.0410
12110W        W55126  14.161  12.219   5.854 -0.2411  0.0415 -0.1335
12111W        W55127  14.333   9.075   0.627 -0.0997 -0.0147  0.1306
12112W        W55128  16.506  16.190  12.454 -0.1863 -0.3500  0.2731
12113W        W55129  24.986  10.951   6.463 -0.0631  0.0231  0.0338
12114W        W55130  16.758  17.293  19.389 -0.1669  0.0847 -0.1183
12115W        W55131   3.728   3.516   0.543 -0.0982 -0.2272 -0.0161
12116W        W55132  17.811  11.888   0.214  0.0420 -0.4274 -0.1311
12117W        W55133  15.050   7.246  21.723 -0.0912 -0.1493 -0.2586
12118W        W55134  33.590  21.408  18.256  0.0120 -0.4156 -0.1525
12119W        W55135  13.730   9.229   2.050 -0.0206 -0.0467 -0.1081
12120W        W55136   8.182  11.456  16.151  0.1032  0.1428  0.2805
12121W        W55137  23.897  18.122  21.008  0.2553  0.1099  0.0935
12122W        W55138  31.296   7.009  18.225  0.0712 -0.0821  0.1884
12123W        W55139  13.499   5.887   8.820 -0.1532  0.1800  0.1296
12124W        W55140  28.050  34.486  11.211 -0.3652 -0.0388 -0.0519
12125W        W55141  19.513  20.643  23.923 -0.1233  0.2774 -0.4344
12126W        W55142  22.173  31.205  16.619  0.0442  0.0078 -0.1986
12127W        W55143  12.735   8.196   1.075  0.1383 -0.1277 -0.2754
12128W        W55144  30.581   6.370  25.704 -0.1729 -0.1174 -0.1921
12129W        W55145  16.507  11.806  24.879  0.2447 -0.0332 -0.0080
12130W        W55146  32.452   6.280   7.301  0.0895  0.0615 -0.0859
12131W        W55147   2.430  21.573  18.906 -0.0742 -0.1961  0.3595
12132W        W55148  22.698   0.308  10.282  0.1136  0.1556  0.0158
12133W        W55149   3.726  18.776   2.303  0.0541 -0.1738 -0.1653
12134W        W55150  20.486  22.560   0.374  0.0727 -0.0641 -0.0462
12135W        W55151  15.879  20.452   6.143 -0.3633 -0.1545 -0.1189
12136W        W55152  19.706  10.504  20.472  0.5306 -0.0382 -0.2177
12137W        W55153  14.397  24.346  20.458  0.0903  0.0330 -0.0949
12138W        W55154  26.064  13.583   0.485  0.0377  0.2538 -0.3598
12139W        W55155   9.262  33.489   9.698  0.1079  0.2296  0.0718
12140W        W55156  12.093   2.545  14.762  0.1971 -0.1009  0.3204
12141W        W55157  25.339   1.297   0.187 -0.0876  0.1712 -0.1054
12142W        W55158  22.283  16.998  25.586  0.0905  0.0800 -0.0272
12143W        W55159   0.205   4.154   4.963 -0.2721  0.2882 -0.0807
12144W        W55160  33.111  14.308  23.769 -0.1059 -0.0827 -0.2685
12145W        W55161  24.668  24.901   2.987 -0.2616  0.0019 -0.3606
12146W        W55162  22.299  11.449  21.229  0.1025  0.1336  0.0687
12147W        W55163  11.781  33.001  15.956  0.0944 -0.0582  0.0293
12148W        W55164  18.706   8.208  28.808  0.1503  0.0056  0.0339
12149W        W55165   4.318   4.964   9.414 -0.0142  0.1782  0.0339
12150W        W55166  17.174   9.197   8.110 -0.0034  0.2052 -0.0478
12151W        W55167   0.140   1.936  14.556 -0.2512  0.0922 -0.0910
12152W        W55168  31.376  15.442  10.231 -0.1597 -0.0655  0.0575
12153W        W55169  19.461   8.582  19.308 -0.0034  0.2736 -0.0575
12154W        W55170   2.316  22.317  29.289 -0.1997  0.0268 -0.0863
12155W        W55171  16.662  11.079  14.246 -0.3755  0.0517  0.4304
12156W        W55172  14.420   1.595  13.962  0.0654 -0.0749  0.1429
12157W        W55173  19.381   1.864  23.995  0.3259  0.3307 -0.0400
12158W        W55174   4.389  33.251   0.524 -0.0178  0.0169 -0.3725
12159W        W55175   4.836  29.317   3.853 -0.0152  0.0331  0.1805
12160W        W55176   5.158  19.437  24.824  0.0550 -0.3548  0.0476
12161W        W55177  10.172   1.274   2.778  0.0845 -0.1641  0.2944
12162W        W55178  33.102  26.325  28.271 -0.1517 -0.0237  0.1515
12163W        W55179  13.507   0.876  19.000  0.0906 -0.2583  0.2597
12164W        W55180  31.548  32.158   3.224 -0.1713  0.0452  0.1256
12165W        W55181  17.943   2.735   3.944  0.2164 -0.0280  0.1697
12166W        W55182  24.744   9.200  10.108  0.2557  0.3202 -0.0354
12167W        W55183  11.945  22.092  28.013  0.1964  0.0622  0.3184
12168W        W55184  16.927   0.710   7.000 -0.0054  0.2775  0.2763
12169W        W55185   6.314  19.423   3.730  0.2949  0.0430  0.0310
12170W        W55186  29.515  12.833  10.697 -0.1016 -0.1318 -0.1259
12171W        W55187   1.873   5.153   1.123 -0.0508 -0.0293  0.0154
12172W        W55188   6.659   7.548  10.512 -0.0338 -0.3036 -0.1691
12173W        W55189   7.844   7.612  15.419  0.0412  0.0195  0.2139
12174W        W55190  17.387  23.378  25.139  0.1176 -0.2126  0.1109
12175W        W55191  15.530  18.399   2.407 -0.1266 -0.3303 -0.2108
12176W        W55192  18.751  16.585   0.025 -0.2445  0.2085  0.0341
12177W        W55193  23.982  17.646  27.398  0.3564  0.1808  0.0312
12178W        W55194   3.496  15.369   8.604  0.0361 -0.0444  0.2848
12179W        W55195  29.018   5.054  29.067 -0.0078  0.4669 -0.3349
12180W        W55196  13.513  18.785  23.762  0.0945  0.1588  0.0016
12181W        W55197  33.288  25.549   3.185 -0.2916  0.2228 -0.0411
12182W        W55198  25.594   0.522   6.233  0.0381 -0.0767 -0.0684
12183W        W55199  14.334  14.125  28.449  0.0334 -0.0969  0.1463
12184W        W55200  28.442  16.379   8.025 -0.2290 -0.0971 -0.2564
12185W        W55201  27.356  28.878   5.827 -0.0387 -0.0615 -0.0635
12186W        W55202  24.342  23.571  29.225  0.2096  0.0319 -0.3360
12187W        W55203  21.884  13.400   7.088  0.2311  0.0151  0.1996
12188W        W55204  27.747  14.426   5.532  0.0181  0.1678  0.0888
12189W        W55205  29.981   3.920   1.752 -0.0911  0.1740  0.0522
12190W        W55206   4.058   0.282   4.609  0.0483  0.1510  0.4192
12191W        W55207  20.483  17.499   6.549  0.0829 -0.0554 -0.1411
12192W        W55208  18.921  20.217  27.004 -0.0623  0.1751 -0.3985
12193W        W55209  21.797  10.280   8.321  0.0486 -0.1819 -0.2530
12194W        W55210  28.416  29.081  21.616 -0.2767 -0.2164 -0.0561
12195W        W55211  21.329  30.950   1.240  0.0780  0.0723 -0.0983
12196W        W55212  31.889  18.160  25.828  0.1036 -0.0288 -0.2170
12197W        W55213   0.388   3.936   1.247  0.1448  0.4674  0.0755
12198W        W55214  24.050  24.289   5.776 -0.0664 -0.0312  0.0807
12199W        W55215  28.000  34.339  10.296 -0.1532  0.1114 -0.3324
12200W        W55216  14.798   3.510  24.815  0.1740  0.1906  0.0478
12201W        W55217  20.152  13.842   0.678 -0.0899  0.1513  0.0504
12202W        W55218   5.911  11.901  25.315  0.0213  0.0667  0.0163
12203W        W55219  26.530   4.992   6.700 -0.0104  0.0217 -0.1466
12204W        W55220  25.868  16.313  27.373  0.0924  0.1058 -0.1493
12205W        W55221  16.156  11.633  23.670 -0.1597  0.2391  0.2084
12206W        W55222  25.959  14.299   4.128 -0.0382  0.3216 -0.2527
12207W        W55223  32.758  18.428  20.492 -0.0094 -0.4163  0.1771
12208W        W55224   6.666   7.533  23.469  0.1125 -0.2331  0.1647
12209W        W55225  25.595  31.072   0.046 -0.0828  0.2269  0.0936
12210W        W55226  24.043  18.781  14.222  0.2311  0.1415  0.0028
12211W        W55227  17.723  15.299   4.095 -0.1102  0.0448  0.0917
12212W        W55228   5.315   5.220   6.562  0.1150 -0.0424  0.0054
12213W        W55229  17.127  18.879  16.254  0.0888 -0.1891 -0.3512
12214W        W55230  34.370  17.394   0.012  0.1771  0.0364 -0.2634
12215W        W55231  23.674   9.874   4.612  0.1149 -0.2459 -0.1383
12216W        W55232  32.432  20.780   7.290  0.1217  0.2135  0.2231
12217W        W55233  30.934  10.828   6.541  0.1846 -0.4043  0.1995
12218W        W55234   3.702  13.743   4.168 -0.1330  0.2351  0.2085
12219W        W55235   0.362  10.105   8.065 -0.4156 -0.0459 -0.2483
12220W        W55236  30.448   8.300   9.530  0.3019 -0.2098 -0.0561
12221W        W55237  19.641  17.858   6.171 -0.1205 -0.0272  0.2188
12222W        W55238  15.216  30.360  27.770 -0.3005  0.0344  0.2240
12223W        W55239  11.109  22.512  28.641 -0.2327  0.1399 -0.0128
12224W        W55240  14.857  19.695   3.792 -0.1830  0.2602 -0.2412
12225W        W55241  21.622   3.724   3.881  0.3027 -0.0224  0.2650
12226W        W55242  22.869  10.654  27.310 -0.0946  0.2296  0.1526
12227W        W55243  16.853   8.616  25.893  0.0766 -0.2483  0.1120
12228W        W55244  28.057   2.668   7.188  0.2000 -0.1118 -0.0310
12229W        W55245  10.088  19.905   1.037  0.0907  0.2055  0.0957
12230W        W55246  26.401  10.127   8.016  0.1782 -0.1509 -0.1796
12231W        W55247  17.617  11.307   5.308 -0.0635  0.1714 -0.4225
12232W        W55248   9.512   5.000  20.372 -0.2001 -0.1084  0.2735
12233W        W55249   4.625  17.705   0.685  0.2070 -0.1151  0.2150
12234W        W55250   0.218  16.268   2.192 -0.0971  0.0236  0.0474
12235W        W55251  32.342   9.606  16.377 -0.1549  0.0204 -0.0288
12236W        W55252  15.474   5.716   3.499 -0.0264 -0.3145  0.2889
12237W        W55253  33.854   3.584  25.529 -0.0507  0.0834  0.0685
12238W        W55254  10.310  17.175   7.716  0.2023  0.0819 -0.2753
12239W        W55255  27.880  12.081  24.355 -0.4069 -0.3178  0.1641
12240W        W55256  14.718  18.770  27.030 -0.2490  0.1107  0.3283
12241W        W55257  27.093  22.525   3.444 -0.0896  0.3936  0.0948
12242W        W55258  21.731   4.488  28.489  0.3223 -0.0193  0.0411
12243W        W55259   4.468   6.470  27.760 -0.2630 -0.0385 -0.2427
12244W        W55260   6.161  21.181  27.259 -0.0581 -0.1148  0.1314
12245W        W55261  15.829  26.908   0.921 -0.1548  0.1146 -0.0299
12246W        W55262  28.147  12.749  19.187 -0.4828  0.3618  0.0235
12247W        W55263   0.169   5.273   0.863 -0.3176  0.2218 -0.1312
12248W        W55264  26.553  14.452   0.576 -0.0036 -0.2600 -0.2863
12249W        W55265  26.179   0.103   7.135  0.1797  0.0290 -0.3451
12250W        W55266   4.863   1.529  17.926  0.0596 -0.0457 -0.0443
12251W        W55267  27.288  21.938   0.382 -0.1891 -0.1350  0.0450
12252W        W55268  33.693   4.015   7.382 -0.0114 -0.0411 -0.2836
12253W        W55269  22.088  10.539   9.720  0.0509  0.2016 -0.1249
12254W        W55270  25.226  21.766   2.754  0.0882 -0.0635  0.2196
12255W        W55271  28.778  11.793  27.092 -0.2080 -0.0232  0.3981
12256W        W55272  29.771   1.617   4.890  0.3949 -0.0110  0.3635
12257W        W55273  26.684  17.237   5.645  0.4160  0.0292  0.2607
12258W        W55274  17.549   0.421   6.968 -0.0427  0.0244 -0.1726
12259W        W55275  21.551  18.513   1.308  0.1423  0.3970  0.2802
12260W        W55276  20.457  16.878   5.939  0.0990  0.0584  0.2225
12261W        W55277  11.166  11.145  18.038 -0.0987  0.3584 -0.3422
12262W        W55278  20.090  33.532  26.854 -0.0637  0.3672 -0.1802
12263W        W55279  20.154   0.017  10.191 -0.2555 -0.3941  0.0052
12264W        W55280  26.203  11.054  10.568 -0.1119  0.1107 -0.1709
12265W        W55281  20.035  14.515   7.578 -0.1749  0.2434 -0.1603
12266W        W55282  24.566  14.203   8.323  0.2301  0.1035  0.1175
12267W        W55283   1.156   5.845  28.582  0.1398  0.2177 -0.1249
12268W        W55284  24.563  16.894   3.478  0.0127 -0.1572 -0.2043
12269W        W55285  13.914   1.620  29.149  0.1181  0.0312 -0.0988
12270W        W55286   7.751   7.472   6.277  0.2708  0.1333  0.4527
12271W        W55287  26.980   9.939   2.876  0.1628 -0.1556  0.0585
12272W        W55288   2.919  10.414   8.968  0.0549  0.1631 -0.1387
12273W        W55289  22.581  20.294  27.100 -0.1386  0.4578 -0.3430
12274W        W55290  12.739  13.627  23.500 -0.0649  0.1451  0.0222
12275W        W55291  17.057  29.703   5.772  0.1459 -0.0917 -0.1239
12276W        W55292   2.877   7.206   6.435  0.0110  0.0915  0.0535
12277W        W55293  32.223  11.391  10.570 -0.0775 -0.2092  0.1368
12278W        W55294  20.858  11.148   5.568 -0.2262  0.0320  0.4143
12279W        W55295  30.575  19.829  24.464  0.1309 -0.0639 -0.2362
12280W        W55296  19.061  17.386  28.084  0.0881  0.0660 -0.2885
12281W        W55297  34.594  18.638  10.598  0.1403  0.0499 -0.1831
12282W        W55298   3.371  12.410   1.739  0.0231 -0.2961  0.4012
12283W        W55299  33.696  18.361   2.272  0.0530  0.2250 -0.2352
12284W        W55300  33.392  18.941  19.612 -0.1016 -0.2411  0.1685
12285W        W55301  18.068  33.957   9.065  0.0953 -0.2900  0.2034
12286W        W55302  18.720   9.854   7.742 -0.2088  0.2367 -0.0667
12287W        W55303   4.026  18.440   0.936  0.1047  0.0142 -0.0034
12288W        W55304  19.661  17.221   3.726  0.1146 -0.1429 -0.0348
12289W        W55305   7.435   2.287   4.272 -0.0713  0.2424  0.1584
12290W        W55306  25.949  14.538  22.878 -0.1920  0.3458 -0.0139
12291W        W55307  15.090   7.886   2.600  0.2090  0.2449  0.1756
12292W        W55308  15.090  17.331  27.428  0.1181  0.2980 -0.1903
12293W        W55309  19.846  14.072  27.320  0.2320  0.2186  0.2273
12294W        W55310  31.625  15.990  26.122  0.3254 -0.0579 -0.0488
12295W        W55311  12.044  14.089  29.147 -0.0037  0.1481  0.1762
12296W        W55312  29.485   1.500  10.441 -0.1791 -0.1411  0.0291
12297W        W55313  21.813  19.865  22.236  0.0173  0.1098 -0.0486
12298W        W55314  21.536  17.745  19.888 -0.4654  0.0917 -0.1298
12299W        W55315  22.160  11.749   1.041 -0.1511  0.0802 -0.2094
12300W        W55316  20.910   9.899   0.632  0.2038  0.0486 -0.2750
12301W        W55317  17.581  17.181   5.660  0.1485 -0.1501  0.1323
12302W        W55318   3.454  16.282  23.170 -0.0075  0.0261  0.2594
12303W        W55319  20.880  12.015  24.253  0.0059 -0.2569 -0.2878
12304W        W55320  18.697  26.403   8.467 -0.0516 -0.0818 -0.2022
12305W        W55321  19.680  21.591   5.957  0.2622 -0.0594 -0.1451
12306W        W55322  16.260   7.370   8.640 -0.1017  0.0488 -0.0930
12307W        W55323  22.507   2.037  25.349 -0.1235 -0.1693 -0.1448
12308W        W55324  23.339   8.286   1.626  0.0618  0.2802 -0.3584
12309W        W55325   8.889  12.630  25.521  0.3832  0.0461  0.2176
12310W        W55326  21.739  10.958   2.932 -0.2615 -0.0264  0.0688
12311W        W55327  21.613  13.814   7.082 -0.1421 -0.0829  0.1302
12312W        W55328  34.659  12.981   5.206  0.3438  0.0041  0.0056
12313W        W55329  19.876  10.174  23.923  0.0495 -0.2447  0.0586
12314W        W55330  17.818  21.005   3.114  0.1452 -0.0503  0.0945
12315W        W55331  12.801  19.428   3.458  0.2670  0.2001 -0.1719
12316W        W55332   6.498  17.891   5.580  0.2398  0.2211  0.1978
12317W        W55333  29.002  13.892   2.699  0.0070  0.2303  0.2666
12318W        W55334  11.647   7.507   5.080  0.1208 -0.1512  0.3232
12319W        W55335  24.890  12.252   9.611 -0.0554 -0.4799  0.1425
12320W        W55336   7.581  21.311   8.392  0.1291  0.1719 -0.3187
12321W        W55337  18.626  19.547  21.024  0.2018 -0.3175  0.0984
12322W        W55338  10.841  16.081   8.493  0.0074  0.1235 -0.1196
12323W        W55339  22.367  25.232   3.689  0.0977 -0.0693 -0.2072
12324W        W55340  22.339  24.134   3.200  0.2944  0.2793  0.1601
12325W        W55341  24.164   9.137  27.779  0.1534  0.4419 -0.1476
12326W        W55342  23.795   6.230  26.975 -0.1004 -0.4225 -0.2968
12327W        W55343   3.465   5.014  27.645  0.1729  0.3430  0.0386
12328W        W55344  25.382  11.133   8.020  0.4331  0.3928 -0.0145
12329W        W55345  30.849   5.534  19.378  0.2218  0.1877 -0.0140
12330W        W55346   9.211   8.553  27.405 -0.3843 -0.0035 -0.0779
12331W        W55347  23.602  13.292   4.214  0.0469 -0.1776 -0.1127
12332W        W55348  30.114   2.075   6.307 -0.0712  0.2742 -0.0069
12333W        W55349  15.943  23.139   7.908 -0.0734  0.0954 -0.0998
12334W        W55350  27.764  14.811  21.878 -0.0688  0.1076  0.4050
12335W        W55351  23.843  21.034  24.525  0.0101  0.4249 -0.3675
12336W        W55352  28.641  14.542   4.671 -0.1120 -0.0165  0.3379
12337W        W55353  21.233  12.337   3.572 -0.0442 -0.1164  0.0241
12338W        W55354  27.030  17.594   5.393  0.0535  0.3439  0.1413
12339W        W55355   3.929  11.679  21.030 -0.1606 -0.2006  0.3722
12340W        W55356  19.863  16.183  23.294 -0.3384  0.0273  0.2340
12341W        W55357  17.059  10.361   2.278 -0.0794  0.0282 -0.1287
12342W        W55358  24.392  14.784  24.887  0.1541 -0.2949 -0.2274
12343W        W55359  22.938  14.201   5.265 -0.0505 -0.1409  0.2524
12344W        W55360  22.622   9.339  27.453 -0.1182 -0.0502 -0.2975
12345W        W55361  32.727  26.150  14.682 -0.2938  0.0231 -0.2381
12346W        W55362  16.307  14.161  27.372 -0.0536 -0.0544 -0.0305
12347W        W55363   5.944  31.211  21.743  0.0208 -0.1137 -0.2119
12348W        W55364  16.048   6.213  10.503 -0.1266  0.1406  0.1803
12349W        W55365  24.243   6.765  15.067 -0.4222  0.1058  0.2168
12350W        W55366  23.497  14.188  26.161 -0.0781 -0.0281  0.1594
12351W        W55367  19.252  19.502  24.792  0.0069 -0.0410 -0.2000
12352W        W55368   8.480  31.372  16.011  0.1443 -0.2292 -0.1577
12353W        W55369  25.559  11.733  24.980  0.1358 -0.0617  0.0693
12354W        W55370  17.953   7.211   1.275 -0.0880 -0.0860 -0.3041
12355W        W55371  16.598   5.929   4.942 -0.2230 -0.0819  0.0459
12356W        W55372  29.150  18.487   5.290  0.2178  0.2644  0.0004
12357W        W55373  25.231  15.639  25.572  0.3302  0.0591  0.0417
12358W        W55374  14.247  10.349   3.314 -0.1595 -0.0192 -0.0298
12359W        W55375  27.452  23.990  10.807 -0.0062  0.0858  0.3677
12360W        W55376  12.740   7.959   3.624  0.2920  0.1235 -0.1615
12361W        W55377  14.389   7.364   9.293  0.2739  0.1152 -0.0638
12362W        W55378   5.783   4.978   9.027 -0.4240 -0.1918 -0.1998
12363W        W55379  31.453  17.233  26.571 -0.0690  0.1010 -0.2274
12364W        W55380  29.516  22.643  15.570  0.0153  0.1801  0.0880
12365W        W55381  20.796   1.969   6.165 -0.1703  0.1818  0.0952
12366W        W55382  21.160  17.722   6.312  0.2694  0.1184  0.1237
12367W        W55383   7.214   4.865  28.485  0.0504 -0.0401  0.0388
12368W        W55384  10.890   9.201   7.500  0.2263 -0.0153 -0.2435
12369W        W55385   9.578  12.083   1.717  0.0917 -0.0881  0.2714
12370W        W55386  17.284   8.889   4.947  0.1965 -0.1950 -0.2585
12371W        W55387  32.550  15.552  26.947  0.0309 -0.3321  0.3854
12372W        W55388  10.627   3.458   1.043  0.4007  0.0112  0.0733
12373W        W55389  24.309  21.797  17.496  0.3226 -0.4058 -0.2629
12374W        W55390  13.073  11.453  26.026  0.1407  0.2979  0.0310
12375W        W55391   1.736  14.807  15.491  0.3690 -0.1514 -0.2806
12376W        W55392  30.869   7.582  27.245  0.0126 -0.0399  0.3630
12377W        W55393  17.981  23.221   8.345  0.0231 -0.0188 -0.1188
12378W        W55394  29.549  27.219   1.703  0.1155 -0.0612 -0.0385
12379W        W55395  28.966  30.874  20.337 -0.1138  0.0613  0.0709
12380W        W55396   3.142  13.002   9.076 -0.1225  0.2175 -0.1850
12381W        W55397   6.713   7.908   3.409 -0.0741  0.3324 -0.5614
12382W        W55398  32.534   2.723   1.411  0.2540  0.0595 -0.0975
12383W        W55399  23.811   7.881  26.764  0.0794 -0.0573 -0.0830
12384W        W55400  16.315   5.830   0.539  0.2155  0.0660  0.1441
12385W        W55401   0.485  33.966   5.315 -0.2316 -0.0797  0.1298
12386W        W55402  13.496   3.199   2.812 -0.1578  0.0118 -0.1336
12387W        W55403  19.645   8.016  27.803 -0.3065 -0.2453 -0.0663
12388W        W55404  28.649  32.481   2.638  0.2767  0.1756 -0.3300
12389W        W55405   4.999  16.547   0.775 -0.0636 -0.1290 -0.0582
12390W        W55406  15.729  26.370  22.612  0.0341 -0.0351 -0.0871
12391W        W55407  12.921   5.303   4.956  0.1263 -0.3177  0.2354
12392W        W55408  29.889  14.430  22.606 -0.0998  0.0177  0.0569
12393W        W55409  24.178  30.215   2.820 -0.2124  0.0251 -0.1334
12394W        W55410  33.354  15.257   8.920  0.2126 -0.2271  0.3335
12395W        W55411  16.465   4.369  24.215  0.0361 -0.1723  0.0619
12396W        W55412  28.961  19.251   4.019  0.2077 -0.3512 -0.1277
12397W        W55413  25.179  12.845   8.450  0.2047  0.0577 -0.0654
12398W        W55414  29.959  18.298  17.725  0.2341  0.1157 -0.0755
12399W        W55415  12.916  15.777   4.592 -0.0233  0.0866  0.1806
12400W        W55416   6.286  12.939   5.841 -0.0719  0.0829 -0.1733
12401W        W55417   6.307  12.288  24.210  0.1999 -0.2881 -0.0604
12402W        W55418  24.901  14.813  26.552 -0.1903  0.1102  0.3157
12403W        W55419  25.041  17.311   4.683  0.0361  0.2482  0.0969
12404W        W55420  27.242   2.270  21.263 -0.1777 -0.1229  0.0610
12405W        W55421  32.236   5.540   3.955  0.0083  0.1666  0.1208
12406W        W55422  11.301  14.346  23.318  0.0055  0.0776  0.2874
12407W        W55423   7.178  17.792   5.062 -0.0069  0.0156  0.3179
12408W        W55424   7.561  21.534   2.781  0.0034  0.0632 -0.2585
12409W        W55425  31.140   5.830   7.502  0.1459 -0.2891  0.0727
12410W        W55426   5.233   8.792  10.098  0.1330  0.2106  0.0910
12411W        W55427   3.079  10.212   2.492  0.4679  0.2228 -0.0949
12412W        W55428  23.602  30.069  23.188 -0.2864 -0.1028 -0.1825
12413W        W55429  24.024  19.284   7.123 -0.0661  0.1823  0.0197
12414W        W55430  11.994  18.669   7.444  0.5603 -0.0991  0.2163
12415W        W55431  13.583  26.119   7.000  0.0949 -0.0097 -0.1391
12416W        W55432  25.079  16.103   3.466  0.0718  0.2040  0.2397
12417W        W55433  25.382   1.762   0.445  0.1943 -0.0961  0.0414
12418W        W55434   4.664   3.144   8.472 -0.1729  0.0138  0.2779
12419W        W55435  19.100  33.269  29.138  0.0414 -0.1307  0.2250
12420W        W55436  13.094  20.521  27.857  0.0065 -0.1803  0.1070
12421W        W55437  25.369  20.583   6.734 -0.1453 -0.0844 -0.2818
12422W        W55438  19.508  11.536  28.976  0.0802  0.1239 -0.1995
12423W        W55439  25.829  33.677   4.149 -0.0839  0.0914 -0.1191
12424W        W55440  20.823  32.113   2.260 -0.4549 -0.1234 -0.0383
12425W        W55441  11.531   5.682   8.422  0.3765  0.1465  0.0608
12426W        W55442  15.589  17.754   3.497  0.0532  0.0309  0.2095
12427W        W55443  17.699  13.552  21.887 -0.0440  0.0887 -0.0128
12428W        W55444  27.702  27.165  20.529 -0.3307 -0.1928 -0.3949
12429W        W55445  18.246   1.542  17.707 -0.0312  0.2048  0.2286
12430W        W55446  10.436  14.137   0.849 -0.0241  0.3074  0.0630
12431W        W55447  17.711  17.426  19.948 -0.0388 -0.1735  0.1984
12432W        W55448  11.844  30.725  19.884  0.0700 -0.0923 -0.1929
12433W        W55449  15.010   3.896  22.407 -0.0549  0.1543  0.0399
12434W        W55450  18.557  12.682   3.139  0.1824  0.2231 -0.2215
12435W        W55451   7.240  13.972   5.207 -0.1319 -0.0137  0.1425
12436W        W55452  27.385  23.668  24.996 -0.1364  0.0454 -0.1958
12437W        W55453  25.991  20.208   8.837 -0.4007  0.0985  0.6427
12438W        W55454  20.589  13.788  27.270  0.0069 -0.0569 -0.1116
12439W        W55455  13.983  29.796   7.766  0.2180 -0.1288 -0.0006
12440W        W55456  28.396   6.689  19.377  0.0724  0.0010  0.3075
12441W        W55457  14.509  23.301   5.742  0.2922 -0.0709  0.1893
12442W        W55458  24.733  21.738   5.940 -0.1356 -0.0297  0.0743
12443W        W55459  24.855  19.906   8.163 -0.0033 -0.0093 -0.0219
12444W        W55460  23.073  28.652  14.658  0.1324  0.0483 -0.5928
12445W        W55461  28.229   6.645   5.710  0.2458 -0.1414 -0.0572
12446W        W55462  10.650  23.662   0.856  0.0974 -0.0233  0.0098
12447W        W55463  31.534   7.797   4.865 -0.4478 -0.0613  0.0574
12448W        W55464  34.610  18.365   2.577  0.2649 -0.1279  0.2779
12449W        W55465   4.239  10.424   6.822  0.2371 -0.1550  0.2757
12450W        W55466  14.283  21.712   1.409  0.2591 -0.0362  0.0443
12451W        W55467   2.606  16.892  28.887  0.4270  0.0500  0.0556
12452W        W55468  25.253   9.575   9.388  0.0539 -0.1022 -0.0438
12453W        W55469  26.020   8.528   7.042 -0.2527 -0.0288  0.4793
12454W        W55470   2.418  17.928   3.218 -0.1034 -0.4641 -0.0677
12455W        W55471  15.682  30.871   3.083 -0.1324 -0.3466  0.1192
12456W        W55472  23.761  11.075   6.751  0.1945 -0.0652 -0.1831
12457W        W55473  27.198   3.700  27.611 -0.0813  0.1330 -0.0786
12458W        W55474  21.132  16.573  24.594  0.0052  0.1172 -0.0856
12459W        W55475   5.442   7.811   3.835 -0.3273  0.0753 -0.0799
12460W        W55476   5.962  25.980   7.578  0.0575 -0.0454  0.1938
12461W        W55477  31.986   1.801   8.212  0.2569 -0.1444  0.1530
12462W        W55478  23.399   0.724  26.408  0.1342  0.4464  0.0359
12463W        W55479  20.495  19.580  27.355  0.1733  0.0752 -0.4112
12464W        W55480  27.415  24.307  28.971 -0.2157  0.3279 -0.1671
12465W        W55481  20.706  11.635  19.064 -0.1590  0.5320  0.2555
12466W        W55482  10.882  14.945   4.110  0.1264  0.2441 -0.1933
12467W        W55483  22.294   4.086  22.000 -0.5313 -0.1527  0.0055
12468W        W55484  25.108  32.504   4.224  0.3030  0.2304 -0.0082
12469W        W55485  24.152   3.495  11.236 -0.0015 -0.0610  0.0105
12470W        W55486  23.894  19.938   2.112 -0.1262 -0.0742  0.1250
12471W        W55487  20.322  16.280  23.082  0.0397 -0.1830 -0.2590
12472W        W55488  22.953  26.854  10.004 -0.0350  0.1423 -0.1194
12473W        W55489  18.747   6.623   5.969 -0.2326  0.0489 -0.0394
12474W        W55490  28.885   0.459  11.154 -0.1711  0.0260 -0.0750
12475W        W55491  14.237  12.530   8.058  0.0199 -0.1802  0.1697
12476W        W55492   7.912  20.093  28.148  0.1604  0.1502  0.3119
12477W        W55493  11.606  33.096  29.316  0.0282  0.2573  0.1126
12478W        W55494  19.205  34.103  10.115  0.0873 -0.0450 -0.1208
12479W        W55495  13.688  22.819   8.390  0.3868 -0.0920 -0.3058
12480W        W55496  32.454  14.017   9.945 -0.2155  0.1720  0.1974
12481W        W55497  21.252   7.669   7.649 -0.0610 -0.0806 -0.1173
12482W        W55498  23.824  15.517  26.233  0.1554  0.2497  0.0179
12483W        W55499  28.649  12.884   2.800 -0.2371 -0.0389  0.1346
12484W        W55500  12.700  24.594   8.302 -0.0446 -0.1252 -0.0304
12485W        W55501  25.878   6.926  10.448  0.0787  0.1746 -0.0171
12486W        W55502  17.186   0.593   4.725 -0.0559  0.1656 -0.0874
12487W        W55503   1.794  21.239  28.601  0.1731 -0.2519 -0.2840
12488W        W55504   1.133   6.824   8.942 -0.0401  0.0772  0.3793
12489W        W55505  25.264  10.635   6.690 -0.4388  0.0133  0.0514
12490W        W55506  17.262  15.167  22.219  0.1599 -0.0906  0.1247
12491W        W55507  32.245  20.536   2.349  0.2936  0.4241  0.0680
12492W        W55508  20.535   7.433  28.749 -0.1061  0.2587 -0.2022
12493W        W55509  31.857  18.971   8.366  0.1545  0.0055 -0.0890
12494W        W55510  11.362   7.269   1.875 -0.1861  0.1029 -0.1014
12495W        W55511  25.645   5.872  18.617 -0.0311 -0.3357 -0.4305
12496W        W55512  22.327  11.711   5.566 -0.0884 -0.2379 -0.0790
12497W        W55513  23.997  13.750   5.859  0.2200  0.0505 -0.2196
12498W        W55514  23.591  30.648   4.583 -0.2106 -0.2726 -0.1622
12499W        W55515  14.475   2.862  27.762  0.1792  0.0251 -0.1997
12500W        W55516  17.379  14.009   2.493 -0.2758 -0.1312  0.3318
12501W        W55517   4.781   2.684   8.113 -0.2413 -0.0400 -0.2338
12502W        W55518  11.402  14.883   4.114  0.1893  0.2256 -0.1485
12503W        W55519  13.249   4.967   6.394 -0.0854  0.2440  0.2228
12504W        W55520  16.774   4.813   9.854 -0.5171 -0.2855  0.0962
12505W        W55521  13.636  25.394   7.330  0.0221  0.2002 -0.3691
12506W        W55522  11.519  15.560  23.985 -0.1619  0.0490 -0.1013
12507W        W55523  15.796  15.560   6.787 -0.0390 -0.3479 -0.5090
12508W        W55524  24.025  20.303   7.122 -0.0869 -0.1459 -0.1047
12509W        W55525  12.242  30.256   1.615  0.0862  0.1609 -0.2627
12510W        W55526  31.731   8.840   9.567 -0.0887 -0.3331  0.3058
12511W        W55527  11.472   9.630   6.426  0.0709 -0.2770  0.0634
12512W        W55528   1.098   9.689  16.938 -0.0006 -0.0325 -0.3194
12513W        W55529  31.027  20.058   7.794 -0.0450  0.0320 -0.0494
12514W        W55530  20.186  16.089   2.807 -0.1235  0.1682  0.0601
12515W        W55531  24.043  18.064   0.789 -0.2205 -0.3254 -0.0334
12516W        W55532   9.453  31.148   8.552  0.0790  0.0395  0.4444
12517W        W55533  19.485  13.870  28.902  0.0432  0.0027 -0.1369
12518W        W55534  19.924  18.586  22.061  0.1423 -0.1443  0.6348
12519W        W55535  29.037  12.065   4.320  0.2104  0.0491  0.2039
12520W        W55536  12.161   6.474   1.844  0.1849 -0.0689  0.0179
12521W        W55537  32.155  17.306   7.356 -0.2164  0.0153 -0.1806
12522W        W55538  23.945   6.864  18.657  0.1509  0.2800  0.4098
12523W        W55539  15.956  20.322  22.007 -0.0566  0.0086 -0.1463
12524W        W55540  29.543   5.384  27.874  0.0000 -0.5195 -0.0710
12525W        W55541  11.204  19.109   8.230 -0.0887 -0.0359 -0.0591
12526W        W55542  17.596  21.982   4.270  0.1759 -0.0291  0.1994
12527W        W55543  25.537  14.951   3.864 -0.0082  0.2267  0.2156
12528W        W55544   6.252  12.082   9.417  0.2058  0.2735  0.0458
12529W        W55545   2.931  23.782  28.307  0.0274  0.2314 -0.0561
12530W        W55546   0.976   6.318   1.879  0.0912 -0.0782  0.2344
12531W        W55547  23.692   0.639   2.331  0.0173  0.1402 -0.0368
12532W        W55548   4.857  18.029  15.910 -0.0698  0.0080  0.1727
12533W        W55549  26.431  25.329  11.370  0.1601  0.1757  0.2225
12534W        W55550  27.204  10.700   9.041  0.1318 -0.2590  0.1330
12535W        W55551  19.743  16.795  24.498  0.1383  0.1671  0.0311
12536W        W55552  17.917  30.734  10.675  0.2921  0.0939 -0.2572
12537W        W55553  17.889  11.123  29.053  0.0321 -0.3465 -0.0307
12538W        W55554  10.819   4.473   1.875 -0.0633  0.0194  0.3062
12539W        W55555  26.512  16.363  28.301 -0.1472 -0.0666  0.0223
12540W        W55556   4.136  19.159   1.987  0.1412 -0.1121 -0.3963
12541W        W55557  20.274  12.685   6.960  0.0200  0.0489 -0.2755
12542W        W55558  27.443   3.950   5.875  0.1985  0.1150  0.1830
12543W        W55559  14.621  13.923   6.325 -0.1596  0.0828 -0.1412
12544W        W55560  13.213   3.808   6.972 -0.0236  0.2036 -0.1268
12545W        W55561  21.455  12.437   8.614 -0.2571 -0.2902  0.2475
12546W        W55562  20.681  21.070   9.841 -0.1359 -0.0778  0.1184
12547W        W55563  15.566  25.834  24.590  0.1585  0.2073 -0.0467
12548W        W55564  24.623   5.034  11.393  0.3905 -0.2329 -0.0257
12549W        W55565  23.567  12.206  18.461 -0.0888 -0.1852  0.3604
12550W        W55566  32.968  14.882   6.061  0.0809  0.0249  0.0956
12551W        W55567  18.240  31.098   0.086  0.1034 -0.0241 -0.1882
12552W        W55568  18.498  21.193   7.359 -0.0211 -0.2973 -0.0340
12553W        W55569  27.992  25.860   9.801 -0.1730 -0.2644  0.1791
12554W        W55570   6.777   9.794   5.101  0.0376  0.2288 -0.1658
12555W        W55571  11.459   6.908  21.683 -0.3082 -0.2380  0.1650
12556W        W55572  17.555  14.394  20.631 -0.1081  0.1370  0.0530
12557W        W55573  34.349  17.801   4.841 -0.2474 -0.2090 -0.2172
12558W        W55574  11.649   2.781  27.252  0.0109  0.2993 -0.1430
12559W        W55575  21.988   5.817   4.763  0.0530 -0.0375 -0.0722
12560W        W55576   8.744   6.106  29.034 -0.0265 -0.0722  0.2382
12561W        W55577  16.620   5.398   5.398  0.0132 -0.2637  0.2739
12562W        W55578  26.870  15.886   5.318 -0.1196  0.2916  0.1096
12563W        W55579  29.751  28.542  10.288 -0.0413 -0.0338  0.1160
12564W        W55580  13.608  28.011  29.065  0.0426  0.0542  0.1030
12565W        W55581  24.979  28.466   5.293 -0.0520  0.2990  0.2484
12566W        W55582  28.338  24.406   3.529 -0.0625  0.0599  0.0361
12567W        W55583  20.041  17.250  23.331  0.2251 -0.1802  0.2080
12568W        W55584   0.170  14.927   5.562  0.0708 -0.0667 -0.1017
12569W        W55585   7.382  17.506   2.413  0.0450 -0.4305  0.1176
12570W        W55586  12.951  11.515  27.478 -0.2135  0.0014 -0.1702
12571W        W55587  24.138  10.772   1.647  0.1532 -0.2139 -0.1025
12572W        W55588  25.039  10.505   7.332 -0.3330  0.2924 -0.2951
12573W        W55589  21.150  23.903  27.208  0.1820  0.1463 -0.1200
12574W        W55590  18.727  12.020   3.721 -0.0761  0.2776 -0.0899
12575W        W55591  12.920  11.457  20.362  0.1259  0.1046  0.1253
12576W        W55592  15.975  13.112  19.843 -0.1034  0.0604 -0.1117
12577W        W55593   2.041  21.049   1.978 -0.1116 -0.0082 -0.1238
12578W        W55594  18.771  17.508   6.192 -0.0480  0.0545  0.1358
12579W        W55595  34.675   8.343  27.497 -0.1042 -0.4472 -0.2268
12580W        W55596  21.023  25.258  10.588 -0.2780 -0.3718  0.1310
12581W        W55597  31.980  10.001   1.109 -0.2233  0.0614  0.1977
12582W        W55598  21.070  14.651  25.897 -0.0822 -0.0959 -0.0173
12583W        W55599   5.406   4.708  18.291 -0.2945 -0.0379  0.0886
12584W        W55600  14.643  10.337   4.473  0.1719 -0.1611 -0.0371
12585W        W55601  25.430   7.554  26.817  0.0091  0.2709  0.1335
12586W        W55602  17.939  34.571   8.881  0.0404  0.0687 -0.2173
12587W        W55603  14.012   2.736  16.700 -0.0806  0.0059  0.0023
12588W        W55604  23.421  26.121  23.776  0.1152 -0.0814  0.4562
12589W        W55605  16.766  20.075   0.296 -0.0947 -0.1430 -0.2068
12590W        W55606   6.089  33.890  25.070 -0.2516  0.0030 -0.1081
12591W        W55607  20.892  21.518  20.548  0.1566 -0.1883  0.0545
12592W        W55608  24.453  33.736   7.232  0.1736  0.0454 -0.1023
12593W        W55609  25.510  26.022   1.703 -0.2740 -0.3165  0.0315
12594W        W55610  21.322   7.103   4.277  0.4822 -0.1084 -0.1628
12595W        W55611   5.379   6.572   0.359 -0.0948  0.1007  0.2896
12596W        W55612  17.970  11.772  26.676  0.1401  0.0423 -0.0300
12597W        W55613  14.343   4.254   6.390  0.0411  0.1716 -0.0376
12598W        W55614  30.366  21.193  24.830  0.0917  0.3741 -0.1479
12599W        W55615  12.128   7.349  20.107 -0.3020 -0.1942  0.0668
12600W        W55616  19.560  14.574   5.169  0.0500  0.0591 -0.3533
12601W        W55617  10.280   3.947   7.060 -0.0412  0.2885 -0.2800
12602W        W55618  33.246  25.130   0.422 -0.0941  0.0012 -0.1078
12603W        W55619  34.612  10.922   4.697  0.2463 -0.0328 -0.3882
12604W        W55620  25.885   8.927   9.785  0.1770  0.2037  0.1139
12605W        W55621  10.325  18.316   6.715 -0.1840 -0.3254 -0.0702
12606W        W55622  17.790  32.284   6.215  0.0177 -0.0612 -0.5086
12607W        W55623  16.569   9.729   0.378  0.0669 -0.0633  0.0282
12608W        W55624  25.973  13.111   5.592 -0.0619 -0.2289  0.0460
12609W        W55625  18.545   8.349  21.766 -0.0399 -0.1679  0.0950
12610W        W55626  29.168  16.845   0.596  0.2053  0.3444 -0.1789
12611W        W55627   4.881   9.105   4.138  0.0942 -0.0614 -0.0096
12612W        W55628  25.511  20.330   9.262  0.2319 -0.2277 -0.2116
12613W        W55629  13.026  21.131   7.865 -0.3743  0.0566 -0.1484
12614W        W55630  12.976  19.289   6.329  0.1963 -0.0639 -0.0112
12615W        W55631  17.994   3.247   9.258  0.0289 -0.3671 -0.1731
12616W        W55632  21.583  14.751   4.993 -0.0692  0.2001 -0.0600
12617W        W55633  19.233  17.861   7.192 -0.2304 -0.4081 -0.4744
12618W        W55634  12.713  15.986   3.086 -0.0195  0.2560 -0.2078
12619W        W55635  18.693  11.382   2.503 -0.0147 -0.1938 -0.0442
12620W        W55636  10.463   5.047  25.409 -0.0536  0.1278  0.1443
12621W        W55637  25.197  15.674  28.408  0.4467  0.2205  0.2114
12622W        W55638  16.079   9.042  28.559  0.0778 -0.0060  0.0957
12623W        W55639  29.848  18.663   6.595  0.0805  0.4330 -0.1801
12624W        W55640  26.843  10.843   6.031 -0.1976 -0.0037  0.2186
12625W        W55641   8.780  26.798   3.626 -0.0749 -0.3097 -0.1810
12626W        W55642  10.486  18.684  27.054  0.1372 -0.2327 -0.0496
12627W        W55643  20.723  13.063  28.894  0.1980 -0.1455  0.0126
12628W        W55644  19.598  12.951   2.849 -0.3187 -0.0329  0.2582
12629W        W55645  17.955   8.583   6.432  0.0661  0.0951  0.1605
12630W        W55646   8.390  32.377   9.295 -0.1188 -0.2547 -0.1995
12631W        W55647  22.179   7.936   5.804  0.0989  0.0783  0.2481
12632W        W55648  16.580  32.049   5.516  0.0133 -0.1910  0.2087
12633W        W55649  14.548  13.397   3.740 -0.1738 -0.1514  0.4312
12634W        W55650  21.967  10.311   2.050 -0.0877 -0.0226  0.0287
12635W        W55651  23.001  17.713   4.062  0.1303 -0.4332  0.0247
12636W        W55652  32.750   8.819   7.764 -0.1088  0.0361 -0.4657
12637W        W55653  22.100  34.749  27.140 -0.1511  0.3554  0.0424
12638W        W55654  23.241  16.501  22.392  0.0946  0.2847 -0.0261
12639W        W55655  15.395  12.160   7.759  0.3931 -0.1131  0.2278
12640W        W55656  33.897  21.566   5.921 -0.1020 -0.0562  0.0858
12641W        W55657  25.462  11.269  25.487 -0.0581  0.1308 -0.1468
12642W        W55658  30.920  17.107   0.233  0.0097 -0.1961  0.2636
12643W        W55659  28.823  17.479  24.977 -0.1517 -0.0979 -0.0062
12644W        W55660  28.840   7.326   4.087  0.0633  0.2617 -0.2698
12645W        W55661  30.167   7.788   4.424 -0.2060 -0.1417  0.1919
12646W        W55662  21.500  10.119   5.099  0.1479 -0.1585  0.2585
12647W        W55663  23.925  13.335   8.431 -0.0319  0.4120  0.0179
12648W        W55664   1.472  16.397   2.727  0.1420 -0.1754 -0.2639
12649W        W55665  20.960  17.035  19.712  0.1613  0.1247 -0.1845
12650W        W55666  30.307  15.911  27.730  0.2293 -0.1016  0.1668
12651W        W55667  17.398  15.210   7.622  0.0331 -0.3174  0.0860
12652W        W55668  11.769  15.073   6.766  0.2987 -0.0894 -0.5008
12653W        W55669  30.210  14.295   7.909 -0.4209  0.2366 -0.0681
12654W        W55670  21.698  13.631   2.663 -0.1758  0.1378 -0.1089
12655W        W55671  33.340  26.405   4.636  0.0143  0.3391 -0.0610
12656W        W55672  34.682  17.622  19.151  0.1020 -0.2262  0.4091
12657W        W55673  25.458  16.409  25.370  0.0592 -0.1646 -0.1284
12658W        W55674  32.543  12.488   6.603  0.1423 -0.0316  0.0908
12659W        W55675  21.487  20.146   5.113 -0.3190  0.0984  0.1448
12660W        W55676   3.461  30.266  22.361 -0.2648  0.1495  0.1283
12661W        W55677  25.267   0.158   0.798 -0.3080 -0.0215 -0.0415
12662W        W55678  21.601  10.930   4.526 -0.0468 -0.0624  0.0323
12663W        W55679  30.190  26.721   1.830  0.1176  0.0118 -0.3258
12664W        W55680  25.116  21.792   8.131 -0.0421 -0.3787 -0.2077
12665W        W55681   7.820   3.726   9.756 -0.3822 -0.3369 -0.0244
12666W        W55682  11.712   4.545   6.619 -0.1595 -0.3806  0.1815
12667W        W55683  23.635   5.951   4.124  0.1592 -0.2255 -0.2250
12668W        W55684  22.102  11.597  20.785 -0.0992  0.1737 -0.3103
12669W        W55685   2.028  16.982   5.684  0.1004  0.1212  0.0905
12670W        W55686   4.008   8.787   2.412  0.0197 -0.1328 -0.1213
12671W        W55687   8.878  20.180   7.119 -0.1422 -0.0644  0.1392
12672W        W55688  19.711  13.881   6.522 -0.2193 -0.3384 -0.1575
12673W        W55689   3.793  10.963  18.023 -0.0450 -0.0078 -0.0576
12674W        W55690  28.077  18.511  21.368 -0.0596 -0.2344 -0.0416
12675W        W55691  30.693  12.379   8.837  0.2256  0.1969  0.0842
12676W        W55692   3.503  17.871  24.404  0.1293  0.0562  0.1623
12677W        W55693  21.029   3.846  23.685  0.3732 -0.2464 -0.1715
12678W        W55694  27.988  22.045   8.587 -0.0011  0.1172  0.0776
12679W        W55695  14.447  13.675   0.418 -0.2426  0.1162 -0.0948
12680W        W55696  23.279  16.814  28.496 -0.2448 -0.0901 -0.3390
12681W        W55697   0.156  17.630  29.208 -0.0485 -0.1975  0.1077
12682W        W55698  21.011   2.828   2.349  0.0806 -0.0019 -0.1439
12683W        W55699  12.568  11.144   5.108  0.1061  0.0675 -0.2052
12684W        W55700   5.248   8.698   9.540 -0.2411 -0.1164  0.0457
12685W        W55701  27.289  12.160  28.440 -0.1836  0.0644  0.0339
12686W        W55702  30.923  15.079   3.296 -0.2577  0.1633  0.0941
12687W        W55703  17.344  13.245   4.990 -0.1730 -0.0540  0.0399
12688W        W55704  23.360  25.462   5.204 -0.3474 -0.0913 -0.3659
12689W        W55705   5.066   8.657  28.581 -0.2480 -0.1959  0.0010
12690W        W55706  17.955  26.133   1.845  0.2936  0.2061  0.0342
12691W        W55707   2.767  26.345  28.475 -0.1844 -0.2624 -0.2563
12692W        W55708  15.807  25.568   6.878 -0.0494  0.1147  0.0431
12693W        W55709  32.695  12.999  23.785 -0.0642 -0.1322  0.0736
12694W        W55710  15.108   5.225   3.401  0.0458 -0.0352  0.1759
12695W        W55711   2.811   1.666  27.524 -0.2348  0.0115  0.2818
12696W        W55712   2.494   8.064   6.825  0.4339  0.1738  0.0343
12697W        W55713   5.731   3.161   2.269  0.1236 -0.1175 -0.0805
12698W        W55714  13.602  32.137   8.866  0.0458 -0.2818 -0.0111
12699W        W55715  19.102  30.823   7.582 -0.0770 -0.4073  0.0548
12700W        W55716  20.377  19.374   4.870  0.1170 -0.1824  0.0715
12701W        W55717  13.923  12.463   1.053  0.0927  0.0097 -0.4318
12702W        W55718  13.178  12.113   7.100  0.0874 -0.0510  0.0427
12703W        W55719  20.410  20.004   9.617  0.2906  0.0561  0.1339
12704W        W55720  18.755  13.473  25.644  0.0231 -0.0319  0.0100
12705W        W55721  17.921  14.368   1.745 -0.2450  0.1817  0.0279
12706W        W55722  19.324   2.543   8.205 -0.1231 -0.1587 -0.1171
12707W        W55723  28.838  13.086   7.767 -0.0847 -0.0427 -0.0673
12708W        W55724  24.985   6.702   6.321  0.0341  0.1666 -0.0683
12709W        W55725   3.902   9.826   1.665 -0.0779 -0.3331  0.1206
12710W        W55726   9.953   7.034   7.757 -0.3487 -0.0721  0.2096
12711W        W55727  19.361  23.749  26.328  0.1633  0.1972  0.0270
12712W        W55728  28.979  15.984   1.918 -0.0620  0.1543  0.0797
12713W        W55729  19.607  17.666   8.850 -0.0405  0.1297  0.0482
12714W        W55730  18.487   3.128  28.923  0.1587  0.2573 -0.0368
12715W        W55731  25.107   5.893  23.077 -0.2704 -0.1256 -0.2529
12716W        W55732  22.677   2.946  10.035 -0.0324  0.0610  0.3591
12717W        W55733  12.898  18.694   5.890  0.0981 -0.1817 -0.1571
12718W        W55734  29.918   8.737   1.223  0.0180 -0.0874 -0.2772
12719W        W55735  28.948  12.832  28.166 -0.1068 -0.2406 -0.1987
12720W        W55736  28.296  18.319   3.055  0.1358 -0.3410  0.2184
12721W        W55737  17.663   6.675  29.196  0.1989  0.1967  0.0169
12722W        W55738  17.785  12.517  27.915 -0.2393  0.0656  0.3222
12723W        W55739  22.095  21.146   3.994 -0.2025 -0.0318  0.0422
12724W        W55740  14.220  17.062  28.940 -0.1488 -0.3694 -0.1837
12725W        W55741  31.911   1.549  25.660  0.0022 -0.1270 -0.0899
12726W        W55742  25.632  10.554   2.647  0.0033 -0.0452  0.0520
12727W        W55743  18.793   9.253   7.083  0.1620 -0.1074 -0.2359
12728W        W55744  23.583  19.033   1.000  0.2522 -0.2334 -0.0489
12729W        W55745  25.762   5.742   9.049  0.1533  0.1361  0.0133
12730W        W55746  27.635  12.096   6.603 -0.1318  0.2004 -0.1946
12731W        W55747   4.589  22.473   1.192 -0.0686  0.0864  0.0340
12732W        W55748  34.414  15.544   2.659 -0.0498 -0.2707  0.1906
12733W        W55749   8.959  14.395   6.624  0.1294 -0.2224 -0.0032
12734W        W55750   6.247  34.482   8.747  0.2586  0.1009 -0.2421
12735W        W55751  18.985  17.779   0.190  0.2792 -0.2201 -0.2864
12736W        W55752  29.296  22.353   8.748 -0.1773 -0.1495  0.1340
12737W        W55753  24.421  22.730   0.102  0.0172  0.2469 -0.1361
12738W        W55754   4.677  25.302   2.055 -0.1706 -0.2190  0.0687
12739W        W55755  31.517  11.298   5.987 -0.2239  0.1105 -0.1307
12740W        W55756  11.490  20.107  17.940 -0.0570 -0.2054 -0.2464
12741W        W55757  21.589  16.880  19.287  0.0998  0.4488  0.4673
12742W        W55758  25.111  10.983   7.192 -0.0728 -0.0062 -0.0449
12743W        W55759  14.208   5.518   4.660 -0.1094  0.2541 -0.1393
12744W        W55760   1.671   4.027  28.262  0.0542 -0.0030 -0.2778
12745W        W55761   6.387  14.650   3.033 -0.2837  0.0181 -0.3320
12746W        W55762  18.451  29.988   8.966  0.2576  0.1146  0.0045
12747W        W55763  27.091  13.347  10.109  0.0879  0.2946  0.0879
12748W        W55764  13.083  32.304   1.985  0.1365 -0.1472  0.0983
12749W        W55765  31.544   3.662  16.154  0.0252  0.1991 -0.3366
12750W        W55766  22.251   0.719  11.001 -0.1443 -0.2263 -0.1041
12751W        W55767  20.902   7.811  29.173 -0.3607 -0.0941 -0.1533
12752W        W55768   2.204  21.373   9.951 -0.2933  0.1942  0.1482
12753W        W55769  34.443   6.956   6.542  0.4819 -0.1023  0.3469
12754W        W55770  23.000   2.145   5.715 -0.2131 -0.1405 -0.2270
12755W        W55771  19.044  20.121   4.887  0.0291  0.0546 -0.4156
12756W        W55772  32.643  21.203  24.630  0.2400 -0.0464 -0.1014
12757W        W55773  33.259  17.767  10.150 -0.2310 -0.1463  0.1158
12758W        W55774  11.465   1.396   9.286  0.0325 -0.1452  0.0670
12759W        W55775  15.551   1.792   7.904 -0.0665 -0.1411  0.0451
12760W        W55776  31.929  29.962   9.181  0.0201  0.2923  0.1137
12761W        W55777  31.546  31.992  11.068 -0.2767 -0.1279 -0.1820
12762W        W55778  10.686  11.776  27.822 -0.0209 -0.0046 -0.0299
12763W        W55779   7.112   4.741  18.340 -0.2360  0.4696 -0.0821
12764W        W55780  21.459  21.069  25.314  0.1794  0.0281 -0.0605
12765W        W55781  23.915  17.718   7.188 -0.2239 -0.1731  0.2961
12766W        W55782  26.550  23.226   9.556 -0.0702 -0.0405 -0.2569
12767W        W55783   7.254   2.718   3.983 -0.2739  0.2358 -0.2104
12768W        W55784  25.102  11.114   5.247 -0.1491  0.1597  0.3435
12769W        W55785   4.792  20.238   4.101 -0.1766  0.4707 -0.0628
12770W        W55786  33.160  16.282  27.014  0.1024 -0.1472 -0.1681
12771W        W55787  10.360  34.008   9.353 -0.2227  0.3064  0.0750
12772W        W55788   0.195  34.042  10.162  0.0832  0.1864 -0.2200
12773W        W55789  31.080  17.208  24.461  0.0262 -0.1587  0.0037
12774W        W55790  18.507  29.463  28.341 -0.3575  0.2293 -0.3600
12775W        W55791  19.896   2.064   6.108  0.1908  0.0819  0.5431
12776W        W55792   0.991  34.374   4.114 -0.2040 -0.0013 -0.1072
12777W        W55793   5.841   1.926   6.355  0.2940 -0.1626 -0.1439
12778W        W55794  30.140  12.913   2.403 -0.3244  0.1097  0.0084
12779W        W55795  21.819  33.265   3.920  0.0823  0.0811 -0.1050
12780W        W55796  28.745   8.482   3.222  0.1033 -0.0765 -0.1368
12781W        W55797   3.311  18.275  18.641  0.0971  0.0545 -0.1282
12782W        W55798   2.431  19.089  28.943 -0.1072 -0.1335 -0.1264
12783W        W55799  17.592   1.118  28.679  0.1430  0.0739  0.2822
12784W        W55800  26.147  27.014   2.731  0.0020 -0.1099  0.0069
12785W        W55801  26.784   8.797   8.634 -0.0924  0.0235  0.2005
12786W        W55802  30.794  12.029  27.362  0.1347  0.2544  0.2341
12787W        W55803  20.250  19.688  26.597  0.2082 -0.1017  0.1943
12788W        W55804  10.010  16.632   3.995 -0.1413  0.0795  0.1440
12789W        W55805  16.526   9.457   7.799  0.0826  0.1215 -0.0466
12790W        W55806  26.699  27.651   7.529 -0.2233  0.0019 -0.2136
12791W        W55807  25.826  23.416   8.167 -0.1774  0.0623 -0.1337
12792W        W55808   1.291  13.168   5.790 -0.1910 -0.1729 -0.1776
12793W        W55809  17.276   8.439   3.699 -0.4959 -0.0515 -0.0327
12794W        W55810  16.784  19.632  22.014  0.0244 -0.2609 -0.0454
12795W        W55811  11.586  10.109   3.761  0.0664 -0.1597 -0.2669
12796W        W55812  25.507  19.547   5.606 -0.0055  0.0595 -0.0295
12797W        W55813  13.571  20.719  27.067 -0.3201  0.0190  0.0226
12798W        W55814  17.427  23.515   1.004  0.0232 -0.2785 -0.2180
12799W        W55815  24.292  11.190   9.867  0.0319  0.1027 -0.0907
12800W        W55816   7.645  22.066   0.815  0.0250 -0.0257  0.2071
12801W        W55817  34.226  10.078   7.999 -0.1619 -0.0994  0.1023
12802W        W55818  11.957   7.736   6.101 -0.0946 -0.0744 -0.0518
12803W        W55819   9.817  18.530   6.766 -0.1069 -0.0074  0.0517
12804W        W55820  14.380  13.396  27.979 -0.2410 -0.0295  0.3717
12805W        W55821  11.362  12.117   3.808  0.0866  0.2678  0.1764
12806W        W55822  10.758   8.129   3.812  0.1377  0.0421  0.1267
12807W        W55823  16.349  25.978  14.522  0.0199 -0.2333 -0.0400
12808W        W55824  13.320  16.794   6.974 -0.0339  0.1371  0.2807
12809W        W55825   3.752   6.554   6.825 -0.1247 -0.1592 -0.2205
12810W        W55826  20.408   3.053  21.071 -0.2546 -0.0897  0.0502
12811W        W55827  10.498   5.993  25.941 -0.1298 -0.1483  0.0192
12812W        W55828  25.588   5.617  10.305  0.1397 -0.0170  0.0571
12813W        W55829  15.500  15.553   6.004  0.2321  0.1608 -0.1426
12814W        W55830  24.749  24.089  11.473  0.0415  0.3048  0.1137
12815W        W55831  24.709  17.707   3.631  0.0494  0.0346 -0.1304
12816W        W55832  15.930   5.462   4.616 -0.0959 -0.0705 -0.0156
12817W        W55833  22.100  15.720   0.218  0.2527  0.0273  0.0912
12818W        W55834  29.298   8.139   6.838  0.1372 -0.2234 -0.3212
12819W        W55835   4.111   8.378   8.480 -0.1478  0.2047 -0.2507
12820W        W55836   9.107   3.442   7.013  0.2482 -0.2530 -0.1001
12821W        W55837  18.687  14.530  25.846  0.1138  0.1431  0.0815
12822W        W55838  20.145  13.602   6.528 -0.0761 -0.0354 -0.0591
12823W        W55839  25.032  12.628  17.894  0.0540 -0.0101  0.2603
12824W        W55840  11.350  20.086   4.055  0.1398  0.1672  0.2259
12825W        W55841  22.173  10.637  25.143  0.0772  0.1278  0.0059
12826W        W55842  18.130  16.077  27.601  0.2606 -0.1709  0.2036
12827W        W55843  21.720  20.103   5.870 -0.0036 -0.2662 -0.1503
12828W        W55844  24.167  32.271  10.853 -0.0794 -0.1868 -0.0317
12829W        W55845   7.465  23.261   9.470 -0.3001  0.0995  0.0022
12830W        W55846  27.648   8.891   0.936  0.1093 -0.4263 -0.3060
12831W        W55847  25.554  13.439  20.891  0.1469  0.4492  0.1735
12832W        W55848  29.669   2.944   1.236  0.0135  0.2170 -0.5792
12833W        W55849  16.295  22.705   1.374 -0.1073  0.2927 -0.3086
12834W        W55850  31.491  27.643  10.184 -0.0764 -0.0042 -0.0519
12835W        W55851  16.164   5.218  27.165  0.2186  0.7048 -0.3708
12836W        W55852  27.938  25.473  29.036 -0.0276 -0.0771 -0.0934
12837W        W55853  16.457  24.550   7.147 -0.3731  0.2286  0.2641
12838W        W55854  15.491  15.050   0.972 -0.0201  0.1169 -0.0417
12839W        W55855  19.189  19.895   8.773  0.1602  0.0553  0.0092
12840W        W55856   1.101  26.524   9.366 -0.0632 -0.3158 -0.0013
12841W        W55857  15.029  23.496   4.649  0.0000 -0.2409  0.0585
12842W        W55858  25.663   7.283  10.120 -0.0739  0.0375 -0.1179
12843W        W55859  21.661   2.742  20.094 -0.2112 -0.1845  0.0385
12844W        W55860  27.886   5.493   2.949 -0.2086 -0.2593 -0.2280
12845W        W55861  22.303  13.216  22.826 -0.0959  0.0412 -0.0391
12846W        W55862   1.091   7.723   0.462 -0.0985  0.3514 -0.2343
12847W        W55863  34.705   5.840   2.127  0.1952  0.1884 -0.1828
12848W        W55864  26.923   3.767   5.091 -0.0553  0.0183  0.0813
12849W        W55865   9.496  11.562  23.646 -0.0512 -0.0521  0.1397
12850W        W55866  29.103  14.390  18.371  0.2971  0.1300 -0.1627
12851W        W55867  30.190  20.329   3.911  0.0501 -0.2222 -0.5638
12852W        W55868  24.922   9.042   8.405  0.0401  0.1142  0.1815
12853W        W55869  13.135  11.008   4.633 -0.0157 -0.0322  0.3654
12854W        W55870  17.282  24.082  23.282 -0.0238 -0.2991 -0.2379
12855W        W55871  13.938   9.605   9.170  0.0403  0.3720  0.1441
12856W        W55872  25.154   7.270  10.262 -0.1411  0.0258  0.1442
12857W        W55873  23.048  15.190   3.783  0.1591 -0.0445 -0.0677
12858W        W55874  19.983  15.138   2.343 -0.0125  0.1877 -0.1831
12859W        W55875  16.185  30.151   3.648 -0.1150 -0.3589 -0.3339
12860W        W55876  24.658   0.800   6.081 -0.0507 -0.1551  0.0214
12861W        W55877  20.333   8.671  24.574  0.0109 -0.3541 -0.1233
12862W        W55878  31.933  23.968   6.691  0.0462  0.0103 -0.1121
12863W        W55879  17.040  13.757   3.117  0.0923  0.2978 -0.0560
12864W        W55880  26.738   8.501  26.964 -0.1236 -0.0174  0.3876
12865W        W55881   3.227  16.633   7.425  0.2213 -0.0416  0.0797
12866W        W55882  31.877  24.992   2.930  0.2487 -0.1770 -0.0430
12867W        W55883  31.682  13.177  17.082 -0.1159 -0.0078  0.0435
12868W        W55884  30.347  20.664  27.856 -0.1148  0.1610 -0.1080
12869W        W55885  15.213  19.398  24.793 -0.1419 -0.0999  0.1134
12870W        W55886  24.290  15.307   6.931  0.0459 -0.1063  0.1084
12871W        W55887  15.002  26.569  25.125 -0.0917  0.0984  0.0967
12872W        W55888  13.490  20.429  23.021  0.2035 -0.0316 -0.3917
12873W        W55889  22.680   8.147   8.289 -0.2969  0.2363 -0.0981
12874W        W55890  26.730  13.705   7.020 -0.1694  0.0048 -0.2203
12875W        W55891  10.203  10.596   0.967 -0.0721  0.3974 -0.1645
12876W        W55892  31.473   4.817   1.239 -0.0530  0.1193 -0.4179
12877W        W55893  18.139  20.993  22.665  0.2877 -0.0342 -0.0186
12878W        W55894   9.940  29.130   8.069  0.1596  0.1613  0.0524
12879W        W55895  23.965  19.329   1.184 -0.1065  0.1062  0.2285
12880W        W55896   2.617  13.069  29.113  0.1956  0.1052  0.0772
12881W        W55897   5.840  14.634   2.195  0.0626  0.1539  0.1666
12882W        W55898  28.774   4.769   9.345  0.1576 -0.1637  0.0172
12883W        W55899  26.191  33.766  10.538  0.0817  0.2266 -0.3917
12884W        W55900  26.564  30.347   7.388  0.0577 -0.2054  0.1946
12885W        W55901   6.880  20.721   3.954 -0.0880  0.2816  0.0465
12886W        W55902  16.794  14.456  21.689  0.0725 -0.0341 -0.2682
12887W        W55903  21.839  10.388   3.684 -0.1683  0.0112 -0.1952
12888W        W55904   2.372  32.707   4.567  0.1286 -0.2013 -0.1357
12889W        W55905  29.464   9.153   8.555 -0.0114 -0.0746 -0.0859
12890W        W55906  23.263  17.443  28.393 -0.3257 -0.3033 -0.1967
12891W        W55907   3.528  30.096   5.013  0.2511 -0.4107  0.0890
12892W        W55908  28.609  22.764   8.233  0.3094  0.0973 -0.0538
12893W        W55909  17.720  26.821   9.513 -0.0794 -0.2026  0.1044
12894W        W55910   9.965  27.451   5.844 -0.0791  0.0245 -0.0408
12895W        W55911  26.105  10.071  28.657  0.0917  0.0469  0.0701
12896W        W55912  28.889  20.021   8.620 -0.1186  0.0047 -0.0176
12897W        W55913   3.005   3.208  15.326  0.1289  0.2768  0.3054
12898W        W55914   2.024   8.009   4.250  0.0861 -0.2521  0.0698
12899W        W55915  23.174  17.218   0.194 -0.0880  0.4020  0.1513
12900W        W55916  21.696   9.164  28.538  0.0277 -0.2078 -0.0014
12901W        W55917  25.012  23.983   2.526  0.1783  0.1365  0.0721
12902W        W55918  32.120  17.240   7.843 -0.3350 -0.2209  0.0128
12903W        W55919  17.997  31.830   9.460  0.4240  0.2131  0.0118
12904W        W55920  19.247   2.432  28.642  0.3029 -0.1497  0.0892
12905W        W55921  14.983   7.447   6.246 -0.0003 -0.0012 -0.1389
12906W        W55922  28.777  17.167  29.037 -0.0008 -0.2420  0.1414
12907W        W55923  18.342  23.252  17.073 -0.3290  0.0701  0.0750
12908W        W55924   3.770  16.458  26.660 -0.2128  0.0784 -0.1646
12909W        W55925  32.222  14.392   3.871 -0.4185 -0.1717 -0.1366
12910W        W55926  25.118  24.800  25.391  0.2952  0.0995 -0.1958
12911W        W55927  30.378  10.598   7.854  0.0193  0.0120  0.2680
12912W        W55928   1.856   4.714   0.746 -0.2680 -0.1160  0.0311
12913W        W55929  31.524  12.761  27.737 -0.2119 -0.2157 -0.0163
12914W        W55930  17.167  13.786   8.177 -0.1310  0.0917  0.0430
12915W        W55931  27.414   9.649   2.769  0.2292  0.0938  0.0038
12916W        W55932  30.400  11.535   9.978  0.1758  0.0757  0.0992
12917W        W55933   5.750  22.969  27.692 -0.1124 -0.1240 -0.1232
12918W        W55934  11.382  19.333   2.525  0.0451  0.0061  0.3821
12919W        W55935  13.900  26.268   3.264  0.1457  0.0840 -0.0684
12920W        W55936  16.422  32.921   6.550 -0.0538  0.0542  0.0881
12921W        W55937   8.289  13.397  15.334  0.3016  0.0888  0.1846
12922W        W55938   4.852  24.430   6.513 -0.0265  0.2428  0.3749
12923W        W55939  31.187  10.548  15.770  0.1225 -0.1690  0.1451
12924W        W55940   3.503   4.962   2.890  0.1943  0.1071  0.0511
12925W        W55941  17.577  17.296  12.713 -0.2409 -0.1450 -0.0595
12926W        W55942  19.698  14.592  20.988  0.1334 -0.1464 -0.0890
12927W        W55943  16.217  26.749  21.456  0.0147 -0.0795  0.0233
12928W        W55944  16.850  16.441  25.117 -0.2107  0.0251 -0.0045
12929W        W55945  24.698  21.664   0.039  0.2679  0.0888 -0.1224
12930W        W55946  25.396  17.719  20.423  0.1022  0.0750 -0.1148
12931W        W55947  24.687  16.724  13.414  0.2908 -0.3144 -0.0177
12932W        W55948   6.496  18.032   6.919 -0.1186 -0.2356  0.2075
12933W        W55949  29.443  11.775   6.272 -0.3780 -0.0159 -0.1564
12934W        W55950  30.051   6.108  16.718  0.4452 -0.0522  0.1351
12935W        W55951  28.924   5.453  25.957  0.0807 -0.1734  0.1646
12936W        W55952  25.906  25.079  24.355 -0.0750 -0.1916 -0.0473
12937W        W55953  15.370  11.273   8.803 -0.0252 -0.0553 -0.1000
12938W        W55954  29.719  16.003   6.214 -0.0381  0.0182  0.0270
12939W        W55955  28.096   5.576   7.417 -0.0024  0.1164  0.3230
12940W        W55956  11.839  14.609   0.786 -0.3531 -0.1468 -0.1743
12941W        W55957   9.550   9.515   6.714  0.0459  0.3185 -0.0580
12942W        W55958  26.315  14.553  26.601  0.0783 -0.0013 -0.0545
12943W        W55959  33.763  23.240  22.555 -0.0669 -0.0352  0.2359
12944W        W55960  19.900  14.090   4.482 -0.1908  0.3743  0.0148
12945W        W55961  30.275  21.627   2.814  0.1106 -0.1598  0.2737
12946W        W55962  18.876   4.701  25.244 -0.2996  0.0803  0.2454
12947W        W55963  19.321   7.074   6.923 -0.2000 -0.0104 -0.0811
12948W        W55964  14.588  10.855  28.659 -0.2007  0.1563 -0.1148
12949W        W55965  34.675  14.972   3.822 -0.2359 -0.4033 -0.1476
12950W        W55966  29.208  13.875  23.539 -0.1775  0.1728 -0.0315
12951W        W55967  21.337  17.119   0.474 -0.0342 -0.1347  0.3003
12952W        W55968  16.520  22.627   6.823 -0.2607  0.3111 -0.1325
12953W        W55969  33.717  24.540  24.174  0.1886 -0.1932  0.2049
12954W        W55970  30.484  33.977   3.564 -0.0427 -0.2196 -0.3017
12955W        W55971  10.448   8.295   4.165 -0.2034  0.2968  0.0418
12956W        W55972  27.270  25.685   9.318 -0.2122 -0.2067 -0.0495
12957W        W55973  24.489  23.458  25.732  0.0539  0.0562  0.0832
12958W        W55974  11.857  31.099  15.322  0.0797  0.0313 -0.0703
12959W        W55975  20.123  24.603   8.586  0.1070  0.0833 -0.2121
12960W        W55976  24.979  29.389   0.223 -0.3315 -0.1273  0.0035
12961W        W55977  33.741  16.752   0.933  0.2227 -0.1085  0.1515
12962W        W55978   1.857  18.837   5.013  0.1652  0.0618  0.4719
12963W        W55979  21.839  11.330   4.772  0.2373  0.2108  0.0281
12964W        W55980  13.711  20.367  23.929 -0.0548  0.0437 -0.0901
12965W        W55981  24.595  14.094  13.876  0.2231  0.0266 -0.0705
12966W        W55982  21.017  16.238   8.789 -0.2658  0.2378 -0.2358
12967W        W55983  22.461  10.581   4.886  0.0952  0.0006  0.0251
12968W        W55984  11.957   8.567  28.716 -0.1039  0.0499  0.0464
12969W        W55985  21.673   6.152   4.596  0.1069 -0.1289 -0.1214
12970W        W55986  10.724  13.559  18.706  0.0296 -0.0006  0.4433
12971W        W55987   9.439  16.924   4.138  0.3128 -0.2069  0.2293
12972W        W55988  29.127  30.565   5.304  0.0917 -0.0727 -0.0742
12973W        W55989  14.631  20.194  14.839 -0.1049 -0.0991  0.3203
12974W        W55990  27.943  20.417   4.006  0.1505 -0.2414 -0.2048
12975W        W55991  14.887   2.964   1.999  0.0928 -0.0155  0.1461
12976W        W55992  15.235   1.650   2.680  0.0794 -0.1141 -0.0100
12977W        W55993  34.553  23.392   6.248  0.1696  0.0152 -0.0401
12978W        W55994  21.804  12.782   6.706 -0.0094 -0.1761  0.0553
12979W        W55995   4.175  17.352   4.164 -0.0205 -0.1272 -0.1997
12980W        W55996  33.137  16.849   9.643 -0.2099  0.0009 -0.0068
12981W        W55997  18.419  15.228  25.268  0.0062  0.2135  0.0140
12982W        W55998  21.743   4.699  22.851 -0.3793  0.3255 -0.0120
12983W        W55999  30.937  10.055   7.094  0.2502 -0.2203  0.2572
12984W        W56000  12.396  26.566  12.653  0.0009 -0.1041 -0.0637
12985W        W56001  12.784  14.645  20.418 -0.2778 -0.1761 -0.0010
12986W        W56002  33.428  22.604   1.562 -0.2606 -0.0979 -0.1981
12987W        W56003  22.762  18.223  16.146 -0.2286 -0.3183  0.0724
12988W        W56004  31.849   0.760  22.784 -0.0566 -0.0996 -0.2273
12989W        W56005  25.638  24.349  26.547 -0.5497  0.2071  0.0600
12990W        W56006  29.208  29.596  10.948 -0.1727  0.0615 -0.1238
12991W        W56007  13.853  26.015  23.361  0.3997  0.2197  0.0337
12992W        W56008  26.423  15.730   3.473 -0.0260  0.1275  0.2292
12993W        W56009  27.844  16.391   4.878  0.2177 -0.1367 -0.2253
12994W        W56010  26.619  15.536  29.139 -0.4599  0.1257 -0.1399
12995W        W56011  26.402  15.247  28.782 -0.0391 -0.2295 -0.0029
12996W        W56012   1.153  29.467   5.422  0.0049 -0.0556 -0.0275
12997W        W56013   3.706  17.234   2.395  0.1230 -0.0831 -0.2495
12998W        W56014  12.561  15.429   7.102 -0.2018  0.0719  0.1932
12999W        W56015  16.273  11.642   8.964  0.0910 -0.0989 -0.1622
13000W        W56016  22.245  15.420   6.115  0.4361  0.3851 -0.1378
13001W        W56017  15.743  18.398  24.171 -0.1746 -0.3245 -0.1323
13002W        W56018  10.640  16.699  23.100 -0.0764 -0.1365 -0.3360
13003W        W56019   7.705  19.806  27.772 -0.0991  0.1080  0.0188
13004W        W56020   5.799  15.684  27.135 -0.1448 -0.0214  0.1623
13005W        W56021  22.352  30.672   7.933 -0.1286 -0.0935 -0.3438
13006W        W56022  31.542  18.221   3.311 -0.0649 -0.0896  0.2623
13007W        W56023  19.666   1.602   5.989 -0.6340  0.0801 -0.0063
13008W        W56024  28.928   7.546  29.283 -0.1863 -0.0616  0.1980
13009W        W56025  12.603  28.185   2.154 -0.3711 -0.0837  0.0487
13010W        W56026  22.846  19.199  27.992 -0.3414 -0.0455  0.0058
13011W        W56027  20.265  31.225   9.242 -0.1714  0.0002 -0.1387
13012W        W56028  17.065   9.777   5.966 -0.0050  0.1888  0.0675
13013W        W56029  24.884  10.265  23.856 -0.0883 -0.0525 -0.2076
13014W        W56030  26.545  30.432  21.538  0.1139 -0.0908  0.1193
13015W        W56031  15.883  19.962  26.059  0.1140  0.0318 -0.1373
13016W        W56032  19.551   2.293  10.314 -0.1164 -0.4021 -0.1712
13017W        W56033  31.846   3.404   3.840  0.1271 -0.0374 -0.2026
13018W        W56034  14.795  19.337  19.690 -0.2747 -0.1258  0.0713
13019W        W56035  33.271  22.355  19.851  0.1612 -0.0954  0.3496
13020W        W56036  33.035  25.610  15.836  0.1979  0.2779 -0.1364
13021W        W56037   3.273  32.228   3.667 -0.1893 -0.0202  0.0534
13022W        W56038   3.302  13.933  17.965 -0.0038 -0.3486  0.0880
13023W        W56039  22.258  23.704   2.054  0.1483 -0.2474  0.1398
13024W        W56040  20.178  21.039   2.493  0.2402 -0.0750 -0.1261
13025W        W56041  33.231  14.524   0.214  0.2832  0.2031 -0.1556
13026W        W56042  30.710  21.901  28.565 -0.0343 -0.0930 -0.0736
13027W        W56043  26.382  13.765   3.762  0.0330 -0.4638 -0.2928
13028W        W56044  13.815  20.550  23.454 -0.0139 -0.1975 -0.1293
13029W        W56045  12.513  11.605   5.478 -0.2772  0.1615 -0.1474
13030W        W56046  30.567  20.117   2.499 -0.2115  0.1014  0.3807
13031W        W56047  25.872  14.524  29.175 -0.1601 -0.0472  0.0142
13032W        W56048  17.954   1.139  28.352  0.0241 -0.1565  0.2289
13033W        W56049  16.382  20.441  27.127  0.0079  0.0107 -0.1216
13034W        W56050  25.539  24.554  10.944 -0.1608  0.1521  0.2815
13035W        W56051  28.900   9.748   1.097  0.0614  0.1985 -0.3603
13036W        W56052  13.858  18.155   1.211  0.1849 -0.0590 -0.0120
13037W        W56053  19.106  14.768  28.420  0.2540  0.0790  0.1090
13038W        W56054  30.218  13.120   7.110 -0.1477 -0.0857  0.2254
13039W        W56055  22.749   8.851  20.959  0.3639 -0.0499 -0.0208
13040W        W56056  15.158   9.275  27.927  0.0048 -0.1038  0.3499
13041W        W56057  21.302  14.269  29.094 -0.2820 -0.4334 -0.1238
13042W        W56058   4.267   3.125   1.156 -0.3174 -0.3096  0.2529
13043W        W56059  10.197   1.388   2.252 -0.0095  0.0884 -0.0335
13044W        W56060  27.618   6.562  18.273  0.0982  0.1381 -0.1781
13045W        W56061  28.671  28.402  27.707 -0.3199  0.0748 -0.0129
13046W        W56062  24.583  21.295  17.504  0.2165  0.1822  0.0308
13047W        W56063  18.590  13.589  12.574  0.1679  0.0365 -0.0861
13048W        W56064  26.204  10.613  27.747  0.4004  0.0156 -0.3023
13049W        W56065  31.259  14.687   9.009 -0.0890  0.1078  0.2482
13050W        W56066  15.840  16.127   5.246  0.0339 -0.0074 -0.1927
13051W        W56067  21.390  13.292   6.851 -0.1108 -0.0856  0.1304
13052W        W56068  30.891  21.822   4.593  0.0033 -0.1988  0.1840
13053W        W56069  25.374  17.655  27.417  0.0101 -0.0927  0.2608
13054W        W56070   8.844   2.060   4.173 -0.1094  0.1813 -0.0982
13055W        W56071  11.117  21.129  17.195 -0.1140 -0.0685  0.0716
13056W        W56072  30.793   2.155   7.839  0.1250  0.1565 -0.1247
13057W        W56073  25.061  21.886   3.527 -0.0604  0.2637 -0.1144
13058W        W56074  13.091  17.911   6.850  0.1793 -0.2961  0.1017
13059W        W56075  25.830  24.845   7.933 -0.2223 -0.0054  0.0751
13060W        W56076  22.125  20.603  19.215  0.1885  0.3973  0.1019
13061W        W56077  17.106  12.292   9.027  0.2740  0.3933  0.2478
13062W        W56078  30.649  15.770   0.751  0.2364  0.0096  0.0568
13063W        W56079   6.099  18.614   4.905  0.0478  0.0114  0.0970
13064W        W56080  33.804  24.422   4.236  0.2996 -0.3647 -0.0135
13065W        W56081  17.862   5.764   0.141  0.2492  0.0308 -0.2382
13066W        W56082  22.553  21.764   7.388 -0.2165 -0.1877 -0.1452
13067W        W56083  32.470  19.481   4.908  0.1598  0.0597 -0.0469
13068W        W56084  25.986   7.498   6.769 -0.2381  0.1258 -0.2858
13069W        W56085  22.080   8.690   5.607  0.4985 -0.3725  0.0194
13070W        W56086   6.323   8.108   5.429 -0.0443  0.4072  0.0760
13071W        W56087  29.985  17.761   7.384  0.1704  0.2537 -0.3568
13072W        W56088  25.067  13.661  26.464 -0.2063 -0.0987  0.1905
13073W        W56089  19.520  16.025   6.469 -0.1975  0.1254  0.1276
13074W        W56090  16.408  13.815  25.863 -0.0019 -0.2839  0.0804
13075W        W56091  17.742  30.978  22.528  0.0380 -0.3325  0.1689
13076W        W56092  27.327  14.285  28.303 -0.0330 -0.2121  0.2026
13077W        W56093   4.463   2.416   3.089  0.3910 -0.0987 -0.0581
13078W        W56094  18.036   6.512  18.180 -0.0602 -0.1958  0.0311
13079W        W56095  21.596  31.481   2.516 -0.0195  0.3322  0.1036
13080W        W56096  17.163  12.612   6.508 -0.1462  0.0721 -0.1513
13081W        W56097  33.636  17.799   5.168  0.0769  0.2086 -0.1400
13082W        W56098  16.912  30.216  22.768 -0.1540 -0.4344 -0.2602
13083W        W56099  23.025  22.485   1.861  0.3745 -0.0075  0.2267
13084W        W56100  24.903   6.223   8.838  0.0611 -0.2187  0.1352
13085W        W56101  31.539  16.512   5.924 -0.0953 -0.0435  0.2367
13086W        W56102  13.087  25.408   2.144  0.1762  0.0770  0.1525
13087W        W56103  12.474  29.336   2.814  0.1989 -0.0947 -0.2882
13088W        W56104  11.009   4.222  22.791 -0.0458 -0.0323  0.0291
13089W        W56105  27.819   2.409  20.022 -0.2874 -0.1926  0.0227
13090W        W56106   3.879   2.763  23.398  0.0493 -0.0235  0.1784
13091W        W56107  29.749  22.104   8.656  0.1805 -0.2515 -0.2775
13092W        W56108  19.630  14.039  19.862  0.1563 -0.0649  0.0949
13093W        W56109  24.580   5.989  25.572  0.1659 -0.1846 -0.1797
13094W        W56110  14.491   0.709   1.950 -0.1652 -0.3788  0.2007
13095W        W56111  31.492  17.297  21.839 -0.3295 -0.0633 -0.2492
13096W        W56112   5.714   6.019  10.235  0.1434 -0.0112  0.2052
13097W        W56113  33.918  31.933  23.544  0.2219  0.1889 -0.0869
13098W        W56114  22.092  28.564   3.343  0.1509 -0.2113 -0.0833
13099W        W56115  12.174  15.687  20.939 -0.1081 -0.1587  0.1260
13100W        W56116  33.385  15.296   6.459 -0.2092 -0.0265  0.0633
13101W        W56117  32.966   7.683  23.196 -0.2693 -0.0933 -0.4058
13102W        W56118  21.923  12.274   6.998 -0.0321  0.1368  0.0471
13103W        W56119   6.025  13.762  13.939 -0.1806  0.0889  0.0141
13104W        W56120  16.608  11.081  19.210  0.2214 -0.1625 -0.0545
13105W        W56121  15.919  15.065  25.993 -0.0254  0.1469  0.1811
13106W        W56122  16.445  19.049  23.287 -0.0727  0.1882 -0.0688
13107W        W56123  15.537  12.081   2.651  0.0094  0.2657  0.0174
13108W        W56124   7.295  10.929  16.724  0.1164 -0.0866  0.1857
13109W        W56125  22.304  10.779  20.537  0.3393 -0.0312 -0.4012
13110W        W56126  17.913  13.509  27.287  0.1377 -0.2366 -0.2482
13111W        W56127   0.554  20.163  25.971 -0.2890  0.0142 -0.0697
13112W        W56128  10.402  21.541  27.393  0.2989  0.1255 -0.0178
13113W        W56129   3.340  12.290  21.059 -0.1361  0.0338  0.0781
13114W        W56130  22.154  17.603  24.978 -0.2338  0.1035 -0.2220
13115W        W56131  24.413  25.167   6.092  0.2295  0.3528  0.1279
13116W        W56132  17.092  21.069   2.432 -0.2266  0.1879  0.1091
13117W        W56133  21.472  19.547  15.414 -0.0841  0.0028  0.3353
13118W        W56134  10.102  33.057  27.178  0.0303 -0.0962  0.0913
13119W        W56135  30.747   9.731   4.918  0.2057 -0.3175 -0.5902
13120W        W56136   4.355  22.670  25.838 -0.1578 -0.0074  0.0181
13121W        W56137  24.806   8.906   1.664 -0.0649  0.2662 -0.0837
13122W        W56138   8.713   0.198  20.687  0.1057  0.1741  0.1023
13123W        W56139  13.323  15.431   5.462 -0.0941 -0.2673  0.0353
13124W        W56140  18.307  19.695   4.547 -0.1277  0.0339  0.3385
13125W        W56141  25.467  21.945   2.357 -0.0785  0.4073 -0.2866
13126W        W56142  27.517   9.658  28.459 -0.4026  0.1843  0.0815
13127W        W56143  15.578   0.971  24.265  0.0829 -0.0856  0.2121
13128W        W56144  14.362  11.505  27.945  0.2914  0.2316  0.3074
13129W        W56145  22.482   5.580   2.275  0.1943  0.1605  0.2038
13130W        W56146   2.605  31.336  29.156 -0.0710  0.3570 -0.2037
13131W        W56147  18.830   6.249  23.458 -0.0570 -0.0702 -0.2139
13132W        W56148  12.629  19.435  23.755  0.0607 -0.2010 -0.1433
13133W        W56149  17.601  26.594  27.082 -0.1951  0.1981  0.2163
13134W        W56150  16.468   3.115  22.026 -0.1319 -0.2372 -0.0485
13135W        W56151  20.894  14.448   5.390 -0.0092  0.1588  0.0773
13136W        W56152  25.692  30.790  28.140  0.1298 -0.0092  0.0834
13137W        W56153  25.637  25.391   8.700 -0.2270 -0.1317  0.1366
13138W        W56154  11.421  24.906   4.462  0.2463 -0.2875  0.1939
13139W        W56155  17.944  11.004   4.965 -0.1695 -0.0936 -0.0024
13140W        W56156   6.024   0.678  27.466 -0.0469  0.0127  0.0991
13141W        W56157   0.472  19.315   4.042  0.1319 -0.2462  0.0133
13142W        W56158  34.207   3.314   8.965  0.2311 -0.0601  0.1275
13143W        W56159  34.234  13.009   4.430 -0.2409  0.0760 -0.2343
13144W        W56160  30.136  24.926   5.212 -0.1717  0.0181  0.2512
13145W        W56161  28.312  11.357  20.968  0.4148  0.0298  0.1099
13146W        W56162  21.581  15.435  18.394 -0.1728  0.1802  0.0943
13147W        W56163  34.470   5.549  18.098  0.0013 -0.1046  0.2741
13148W        W56164  14.073   3.789   2.097  0.1510  0.2297 -0.2052
13149W        W56165  25.702   8.751   1.163  0.0759  0.2146 -0.0993
13150W        W56166  25.800  11.265   6.637 -0.0110 -0.2705  0.0855
13151W        W56167  18.843  20.905   4.379 -0.2466 -0.0545  0.1643
13152W        W56168  19.691  25.765   1.356 -0.0755  0.1205  0.0530
13153W        W56169  20.333  16.737  11.781 -0.2555 -0.3809  0.3605
13154W        W56170   0.042   5.205   2.248 -0.0244  0.1147  0.0968
13155W        W56171  12.325  18.054   0.019 -0.2776 -0.0100  0.0815
13156W        W56172  17.951  33.400   8.877 -0.1094 -0.2426 -0.0347
13157W        W56173  13.780  11.914  25.064 -0.0030  0.2340  0.0028
13158W        W56174  10.575  29.321   5.196 -0.1913  0.3826  0.0896
13159W        W56175  15.886  13.898   0.427 -0.1151  0.0254 -0.1692
13160W        W56176  28.146  11.617   2.326 -0.0020 -0.4730 -0.1447
13161W        W56177  22.055   2.586  19.868 -0.3878  0.3743 -0.0447
13162W        W56178  33.895   9.192  21.778 -0.1181 -0.2556  0.0504
13163W        W56179  26.384  14.490   8.908  0.1458 -0.2710 -0.0671
13164W        W56180  14.265   0.796   9.214 -0.2752 -0.0251  0.1362
13165W        W56181  12.905  26.469  13.837 -0.0108  0.1368 -0.4804
13166W        W56182  12.135  28.369  24.546 -0.0146 -0.0592  0.0394
13167W        W56183  31.283  16.017   3.894  0.2129 -0.2041  0.0546
13168W        W56184  28.974  24.108   4.875 -0.0873  0.2978 -0.0827
13169W        W56185   7.657  26.451   0.579  0.3137 -0.0742 -0.0010
13170W        W56186  13.110   8.631   0.622 -0.0552  0.0319 -0.3869
13171W        W56187  16.076  22.389   1.759  0.0450  0.1807 -0.0586
13172W        W56188  12.709  25.221   0.785  0.3137  0.1457  0.3231
13173W        W56189  11.050  17.205  22.561 -0.2756 -0.0717 -0.0222
13174W        W56190   1.242  24.704   3.996 -0.2412  0.2217 -0.1214
13175W        W56191  29.516  10.746   4.935  0.2936 -0.1544 -0.0869
13176W        W56192  10.183  13.984  23.644  0.2893 -0.1211  0.2847
13177W        W56193  10.236   5.152  10.855  0.0065 -0.2801 -0.0425
13178W        W56194  23.927  23.818  29.160  0.0494 -0.1020 -0.0109
13179W        W56195  26.649  17.142   4.604  0.1503 -0.0318  0.0143
13180W        W56196  24.049  29.891   3.753 -0.1278  0.1064  0.0460
13181W        W56197  31.257   1.795   2.134 -0.0737 -0.0853 -0.1411
13182W        W56198  29.549  25.454   1.573 -0.2718  0.2156 -0.1945
13183W        W56199   8.022  12.314   4.942  0.2459  0.2266 -0.0279
13184W        W56200  23.954   9.176   6.648 -0.0035 -0.0608  0.0139
13185W        W56201  28.364  26.192   1.235  0.1860  0.1542 -0.3674
13186W        W56202  10.685   5.913  19.495 -0.1683  0.1450  0.1354
13187W        W56203   4.971  11.011  27.222  0.0316  0.0228  0.0374
13188W        W56204  34.778  10.996   1.434  0.1411 -0.0521  0.0629
13189W        W56205  16.580  15.519  28.858  0.0751 -0.1821 -0.1002
13190W        W56206  33.008   8.549   4.473 -0.1246  0.3384  0.1000
13191W        W56207  13.151  30.613  22.690 -0.2170  0.0582  0.1321
13192W        W56208   7.479  28.940  27.035 -0.2051  0.0451  0.1654
13193W        W56209  26.614   2.687  21.202  0.0278 -0.1270 -0.2168
13194W        W56210   0.012  27.348   6.056  0.3780  0.1702  0.0413
13195W        W56211  17.681   8.430   1.335 -0.1728  0.1027 -0.2126
13196W        W56212  30.284  22.938   4.826 -0.0585  0.2464 -0.1971
13197W        W56213  17.111   1.388  28.695 -0.1628  0.1169  0.0584
13198W        W56214   2.366  12.748  20.865  0.0875  0.3062  0.1172
13199W        W56215  25.450  26.281  11.174 -0.1763 -0.0555 -0.3204
13200W        W56216   1.329  25.422   7.522  0.0520 -0.1021 -0.4060
13201W        W56217  14.919  33.780  18.934 -0.1096  0.1833  0.0841
13202W        W56218  29.875  18.732  26.310 -0.2213  0.1461  0.1404
13203W        W56219   6.068  20.462   7.739 -0.0144 -0.0153 -0.2690
13204W        W56220  11.990   1.015  20.314 -0.0881  0.1180  0.1866
13205W        W56221  20.123  24.049  15.625 -0.2876 -0.1290 -0.3079
13206W        W56222  24.539  11.564  18.848 -0.0811  0.1050 -0.0971
13207W        W56223   8.676  14.685   2.184  0.1487 -0.0893 -0.1690
13208W        W56224  29.844  15.715   3.659 -0.1869 -0.1271 -0.0497
13209W        W56225  28.886   2.267  10.693 -0.1926  0.1696  0.1088
13210W        W56226   4.583  14.706   8.037 -0.1512  0.0090  0.1366
13211W        W56227  33.518  16.064   1.522  0.2232 -0.0402  0.0205
13212W        W56228  12.472   0.527  24.324  0.3460  0.1887  0.0887
13213W        W56229  25.146  17.384  28.076  0.0861  0.2472 -0.1184
13214W        W56230  30.598  11.807   0.437  0.0154 -0.0322 -0.0911
13215W        W56231  29.153   8.711   1.344  0.0929 -0.1026  0.0721
13216W        W56232  29.623  20.563   7.637  0.0489 -0.2290 -0.4947
13217W        W56233  10.518  15.912  26.341  0.3042 -0.1070  0.4175
13218W        W56234   9.351   8.800   8.282 -0.0080 -0.3090 -0.0368
13219W        W56235  22.373  31.550   4.723  0.0015 -0.0944  0.0627
13220W        W56236  14.335   5.365   7.465  0.0420  0.1159  0.1526
13221W        W56237  23.848  24.221   8.358  0.0442 -0.1007 -0.2933
13222W        W56238  23.937   2.756  29.142  0.0767  0.1921 -0.1772
13223W        W56239   1.119  20.019   3.676 -0.0410  0.1804  0.2520
13224W        W56240  22.494   9.671  26.646 -0.0480  0.1892  0.2784
13225W        W56241  29.703   3.967   9.712  0.1005 -0.1496 -0.0566
13226W        W56242  27.915   3.498   1.591  0.2830 -0.2057 -0.0694
13227W        W56243  12.298  11.071   6.660 -0.1862  0.4603  0.1023
13228W        W56244  27.739  16.653  20.972  0.1088 -0.0329  0.1067
13229W        W56245  25.042  20.110  25.706  0.1528 -0.1409 -0.0413
13230W        W56246   6.584   8.103  18.818  0.0077 -0.2328 -0.1131
13231W        W56247  15.798  12.110   7.040  0.0424 -0.2014 -0.1733
13232W        W56248  29.052  18.162  20.102 -0.0897  0.0263 -0.1767
13233W        W56249  12.955   7.400  23.721  0.2437 -0.2612 -0.0072
13234W        W56250  13.216   6.227   6.186 -0.1892 -0.4441 -0.0137
13235W        W56251  11.108  27.173   6.535  0.1790  0.0508  0.0362
13236W        W56252  15.068  23.217   7.054  0.0964 -0.0015  0.1137
13237W        W56253   1.818  22.616   8.232 -0.2627 -0.3650  0.0118
13238W        W56254  15.140   3.040   0.479 -0.1647 -0.0647  0.0192
13239W        W56255  18.951  13.985   0.827  0.2741  0.5234  0.0140
13240W        W56256   2.431  20.401   6.374 -0.0134  0.2630  0.1562
13241W        W56257   6.354  31.462   2.420 -0.0903  0.1064  0.0596
13242W        W56258  20.861  15.428  25.798 -0.2062  0.3764 -0.0589
13243W        W56259  19.723  32.356  10.077 -0.2731  0.2246  0.3572
13244W        W56260  20.267  18.922  27.707 -0.0217  0.3898 -0.0197
13245W        W56261  27.991   6.208  20.585 -0.1261 -0.1471  0.1119
13246W        W56262  26.699  10.037   8.675  0.0690 -0.1506 -0.0090
13247W        W56263  21.877   4.261  26.536 -0.3444 -0.1814  0.0244
13248W        W56264  13.481  13.567  19.220  0.1573 -0.1667  0.0609
13249W        W56265  14.794   5.209   7.744 -0.1524 -0.1040  0.1775
13250W        W56266  20.724  16.104   3.469  0.2945  0.1576 -0.1947
13251W        W56267  11.872  23.074  22.994 -0.1733 -0.0879 -0.1661
13252W        W56268  10.447  13.551  16.091 -0.0537 -0.0215 -0.2151
13253W        W56269  20.781  22.537  15.391  0.1312  0.0657 -0.1909
13254W        W56270  27.546  17.137   5.568  0.0894 -0.0679  0.2044
13255W        W56271  10.489  15.647  21.635 -0.2653  0.0167  0.1968
13256W        W56272  17.218  11.019  24.324  0.0887 -0.1544 -0.2644
13257W        W56273  17.513   3.832  24.181  0.1284  0.2688  0.1779
13258W        W56274  22.510  21.841  27.264  0.1415 -0.2200 -0.1369
13259W        W56275  18.872   9.921   0.780 -0.3670 -0.0535 -0.0385
13260W        W56276   3.862  13.452  21.888 -0.2897 -0.3173  0.0855
13261W        W56277  12.969   8.519  16.586  0.0408  0.0003 -0.0495
13262W        W56278  17.840   9.021   6.152  0.0173  0.2911  0.0343
13263W        W56279  31.360   8.862  26.286 -0.0635 -0.3383  0.1754
13264W        W56280  15.152  28.797   2.739  0.1996  0.1336  0.1044
13265W        W56281   9.190  21.260   2.816 -0.3111 -0.0514  0.0031
13266W        W56282  34.436  18.736   2.846  0.0832  0.1623  0.1644
13267W        W56283  20.269   8.148   9.663 -0.0151 -0.2449 -0.2431
13268W        W56284  23.259  22.444  23.546  0.2609 -0.1020  0.1379
13269W        W56285  17.048  18.880   3.499 -0.0268  0.1957 -0.0071
13270W        W56286  18.397  15.218  12.703 -0.0007 -0.0200  0.3198
13271W        W56287  26.652  19.110   7.250 -0.0987 -0.1223  0.0431
13272W        W56288  23.671  20.289  23.894 -0.0673 -0.1789  0.2529
13273W        W56289  22.151  12.515  26.299 -0.2223  0.2899 -0.2087
13274W        W56290  19.582  11.404  23.371 -0.0432 -0.1565  0.0506
13275W        W56291  11.879  31.635   0.817 -0.1195  0.1834  0.0005
13276W        W56292  12.336  16.958   6.062 -0.3001 -0.0937  0.0770
13277W        W56293  33.930  31.471   6.313 -0.1267  0.3558  0.0094
13278W        W56294  11.519  16.976  25.601  0.1766  0.1440 -0.1544
13279W        W56295  22.680   0.151  24.878  0.1085 -0.0569  0.0197
13280W        W56296  18.268  17.776   8.482  0.2111  0.2115 -0.0009
13281W        W56297  17.186  18.469   4.448 -0.1439 -0.3970 -0.1353
13282W        W56298  21.910  21.843  18.733 -0.3024 -0.0400 -0.0856
13283W        W56299  17.643  15.652  23.820  0.0970  0.1848 -0.1748
13284W        W56300  21.102  18.653   8.392  0.0379  0.0781 -0.0959
13285W        W56301  25.879   6.963  22.358  0.0592 -0.4516  0.3932
13286W        W56302  23.347  22.111  27.329  0.1449  0.0463  0.1348
13287W        W56303  19.304  22.246   4.516 -0.2262 -0.3883 -0.0604
13288W        W56304  17.540   2.454  29.159  0.1731  0.0743 -0.1912
13289W        W56305  26.962  18.904   5.576 -0.0069 -0.2789 -0.0349
13290W        W56306  25.375  19.182   1.061 -0.1255 -0.3076  0.1662
13291W        W56307  33.007   9.168   9.316  0.1881  0.3272  0.4171
13292W        W56308   5.241  23.919   9.336  0.1670 -0.3584 -0.0150
13293W        W56309  11.715  22.643  16.081 -0.0450 -0.0909  0.1716
13294W        W56310  21.321  18.859  25.858  0.1631 -0.3678 -0.0335
13295W        W56311  27.976  12.939  20.834  0.2974 -0.0257 -0.0375
13296W        W56312  27.283   9.680  22.464 -0.1793 -0.0254  0.1010
13297W        W56313   5.583  23.881   4.712 -0.0475 -0.0201  0.0585
13298W        W56314  28.461  16.660   9.144  0.1599  0.0384 -0.1685
13299W        W56315  20.013  18.188  28.763 -0.1101 -0.2244 -0.1306
13300W        W56316  19.657  15.863  28.667  0.0535 -0.1399  0.0432
13301W        W56317  22.610  18.840  19.689  0.0669  0.0376 -0.0198
13302W        W56318  27.723  15.839   3.778  0.1910  0.0180  0.0591
13303W        W56319  19.505   9.604  27.436  0.2326 -0.1238 -0.0134
13304W        W56320  29.578   2.568  19.846 -0.0011 -0.2280  0.2835
13305W        W56321  32.371  26.662   2.208  0.0065 -0.2313 -0.0550
13306W        W56322   8.684  24.613  28.556  0.1863 -0.2209 -0.2923
13307W        W56323  12.150   5.728  18.010  0.2307  0.0506 -0.0153
13308W        W56324  29.812  24.279  22.664 -0.0283 -0.0200  0.1619
13309W        W56325  34.369  20.394  10.629  0.6091 -0.2797  0.1946
13310W        W56326  18.697   5.781  20.538  0.1903  0.0883  0.5866
13311W        W56327  15.199  33.484   7.668 -0.1845 -0.1776 -0.1677
13312W        W56328  21.268  19.395  26.948  0.1679  0.1369  0.1397
13313W        W56329  21.250  11.816   6.598 -0.2583 -0.1387 -0.5641
13314W        W56330  23.737  21.159  23.546 -0.1120 -0.3421 -0.1044
13315W        W56331  19.565  21.563   6.532  0.2621 -0.0626 -0.1715
13316W        W56332  18.018   7.794   9.290 -0.1986 -0.0443  0.0882
13317W        W56333   6.987  33.163  27.224 -0.1631 -0.2756 -0.1567
13318W        W56334  29.519  10.788  23.745 -0.1608 -0.2952 -0.0902
13319W        W56335   9.121  33.701   4.706  0.1804 -0.3637  0.0146
13320W        W56336  27.808  23.340  28.236  0.0190  0.1488 -0.1046
13321W        W56337  10.663  20.563  26.283 -0.0687 -0.0458  0.0510
13322W        W56338   2.485   1.987   0.607 -0.2304  0.0804 -0.2512
13323W        W56339  26.625  13.805   0.304  0.0902 -0.2644 -0.2010
13324W        W56340  17.537  34.312   1.408  0.3317 -0.2453  0.2390
13325W        W56341  26.230  14.206   5.696  0.2231 -0.0583 -0.0850
13326W        W56342  16.991   9.269   7.667  0.1930 -0.1588  0.1964
13327W        W56343   5.188  28.418  24.120 -0.1808 -0.3754  0.1109
13328W        W56344   3.999   0.992   2.072 -0.1012 -0.2421  0.1688
13329W        W56345   7.636  26.059  17.674 -0.0569 -0.0928  0.1284
13330W        W56346  17.011  18.034  16.471  0.1704  0.0395 -0.5448
13331W        W56347  14.327  18.210  22.603 -0.3374 -0.1731  0.1610
13332W        W56348  12.854  13.213   6.614  0.1970 -0.2156 -0.0362
13333W        W56349  23.972  20.134   0.640  0.1690 -0.1923 -0.3759
13334W        W56350   4.267   7.802   6.818  0.0586  0.0344 -0.0550
13335W        W56351  27.164  13.606   7.324 -0.0164  0.2167  0.0615
13336W        W56352   8.301  15.267  27.865  0.0877  0.1425 -0.1175
13337W        W56353  14.266  10.824   3.969  0.0667 -0.0602  0.0836
13338W        W56354  30.402  12.800   9.082  0.0256  0.2913 -0.0146
13339W        W56355  10.678  33.741  10.406 -0.0120 -0.0136  0.3339
13340W        W56356  28.293  19.129   8.898  0.0347 -0.0851  0.3968
13341W        W56357  32.724  12.939   9.761  0.2309 -0.1698  0.2007
13342W        W56358  15.889   4.805   3.816 -0.2334  0.2886 -0.1326
13343W        W56359  19.016  14.059  25.087 -0.2459 -0.2605 -0.2488
13344W        W56360  25.182   7.891   9.603 -0.0911  0.1014  0.0291
13345W        W56361  32.578   9.916  20.872  0.1158  0.0240 -0.0210
13346W        W56362  24.822  24.429   5.253  0.0894 -0.1609 -0.1255
13347W        W56363  20.375  24.675   4.557  0.4415 -0.0459  0.1225
13348W        W56364  26.565  23.142   4.548  0.3409 -0.1687 -0.0869
13349W        W56365  13.188   9.414   2.130  0.0442 -0.1540  0.0841
13350W        W56366  20.096  16.322  24.940 -0.1489  0.2559  0.3902
13351W        W56367  14.264  21.381   0.978  0.4124 -0.0581  0.1394
13352W        W56368  29.802   8.193   3.103 -0.2572  0.1867  0.4901
13353W        W56369  16.950  20.381   1.068 -0.2793  0.0092 -0.0717
13354W        W56370  26.178   6.135   2.422 -0.0917 -0.0187  0.0921
13355W        W56371   0.037  21.043  26.987 -0.2047  0.2316 -0.1724
13356W        W56372  11.214  13.509   8.862  0.0101  0.2327 -0.2099
13357W        W56373  34.619   8.643   2.049  0.1466  0.0992 -0.3358
13358W        W56374  15.292  19.216   4.947  0.1988  0.2633 -0.2110
13359W        W56375  30.527  16.496  28.987  0.0523  0.1424  0.0037
13360W        W56376  29.886  18.800  10.681 -0.1882  0.2127  0.0849
13361W        W56377  31.176  19.961   9.062  0.1735  0.1706  0.1288
13362W        W56378  26.857  11.175  16.138 -0.2454  0.0942  0.1703
13363W        W56379  14.040  18.377  23.034  0.2723 -0.0370 -0.0210
13364W        W56380  19.907  13.907   8.706  0.0525  0.0109 -0.2629
13365W        W56381  26.641  20.162   5.862  0.1791 -0.0998  0.1182
13366W        W56382  17.109  21.872   2.138  0.3740 -0.1908  0.3413
13367W        W56383  28.715  15.232   8.527  0.0922 -0.1191  0.1305
13368W        W56384  26.666   8.032  27.899  0.1115 -0.2004 -0.3327
13369W        W56385  11.979   8.714   7.851 -0.0033 -0.1457 -0.1376
13370W        W56386   3.551  18.718   8.553 -0.1093  0.0082  0.0591
13371W        W56387  15.510  12.962   4.144 -0.2013 -0.3302  0.3481
13372W        W56388  17.400   9.792   1.371  0.2194  0.0582 -0.1912
13373W        W56389  26.442  18.177   9.780  0.0513 -0.2454  0.0495
13374W        W56390  18.940  29.055  23.527 -0.1166  0.0188 -0.1638
13375W        W56391  27.201  16.552   4.136  0.0894 -0.2937  0.1387
13376W        W56392  22.901  12.945   8.251 -0.1478  0.0092 -0.1486
13377W        W56393  23.219  23.206  24.462  0.3462 -0.3984  0.1008
13378W        W56394  18.245  11.320   5.806 -0.3718 -0.1173 -0.1424
13379W        W56395  22.241  30.290  16.543  0.2462  0.0839  0.0395
13380W        W56396  24.525  30.340   4.609  0.1289  0.2367  0.3394
13381W        W56397  14.675  17.812  20.415  0.0923 -0.1673  0.1208
13382W        W56398  16.676  11.234  26.037  0.0190 -0.1180  0.2406
13383W        W56399  29.359  23.013   5.868  0.0695  0.1275 -0.0392
13384W        W56400  20.117  18.310   3.109  0.0019  0.0442  0.1345
13385W        W56401  19.303  13.578   2.236  0.3243  0.1348 -0.0886
13386W        W56402  29.164   3.102   0.276 -0.1947  0.0625 -0.0332
13387W        W56403  23.106  19.546  23.983 -0.1528 -0.1868 -0.0245
13388W        W56404  24.564  12.686   1.153 -0.4457  0.0820 -0.0459
13389W        W56405   0.582  29.831  18.436 -0.0037  0.0623  0.0333
13390W        W56406  16.569  12.647   4.643  0.3078 -0.1631 -0.1105
13391W        W56407  27.548  14.595  26.918 -0.2262  0.1975 -0.5186
13392W        W56408   6.838   0.712   4.101  0.0490  0.2042 -0.1171
13393W        W56409  28.451   6.188   5.911  0.1494 -0.0700  0.0461
13394W        W56410  15.672  22.661   2.977 -0.3974 -0.3620 -0.1997
13395W        W56411  14.293  15.429   5.373 -0.5099 -0.2508 -0.2594
13396W        W56412  21.385  25.350   6.151 -0.2035 -0.3208  0.0513
13397W        W56413   6.285  31.214  25.983  0.1096  0.5166 -0.1909
13398W        W56414  34.535  20.396   7.069  0.2924  0.0537 -0.1508
13399W        W56415  27.481  21.885  25.195 -0.1928 -0.0968  0.0692
13400W        W56416  23.606  20.646   4.892  0.1481  0.1092 -0.0448
13401W        W56417   5.609  25.140   9.733  0.1704 -0.0078  0.0524
13402W        W56418  25.580  16.832   5.379  0.0594  0.0864 -0.1959
13403W        W56419  21.360  26.172   9.317 -0.2495  0.0612 -0.0049
13404W        W56420   1.363  11.522   2.753 -0.1354 -0.3982  0.1114
13405W        W56421  17.660  18.274  17.101 -0.0072 -0.1464  0.0292
13406W        W56422   1.084  23.053  17.539 -0.1718  0.5699 -0.0809
13407W        W56423  18.356  21.764  13.770  0.2980 -0.2703 -0.1484
13408W        W56424  29.551  28.655   4.588 -0.2875 -0.1226  0.2001
13409W        W56425  33.573  11.928  24.180  0.2776  0.0059 -0.3294
13410W        W56426  10.897  18.269   3.558  0.0652  0.0200  0.0288
13411W        W56427   4.315  11.830   0.109  0.0708  0.5026  0.0574
13412W        W56428  19.535   3.216   6.823  0.4746 -0.1962  0.0365
13413W        W56429  34.285   4.103   7.892 -0.2032  0.0145  0.0535
13414W        W56430  22.529  19.988   2.802 -0.1544  0.0024 -0.1181
13415W        W56431  22.425  11.662   6.946  0.0990 -0.1033 -0.1395
13416W        W56432  22.861  28.429   7.156  0.1503 -0.1807 -0.3964
13417W        W56433  28.991  12.813   9.175 -0.1072  0.0319 -0.2251
13418W        W56434  12.713  29.337  28.726 -0.2050  0.0619  0.2182
13419W        W56435   4.971  10.984   0.025 -0.1494 -0.2050 -0.4826
13420W        W56436  19.904   8.043  23.851  0.0705  0.1905  0.0835
13421W        W56437   6.482  24.524   0.412  0.2794 -0.0511 -0.0435
13422W        W56438  22.043  34.598   9.798  0.0426  0.0848 -0.0820
13423W        W56439  22.226  17.852   2.268  0.0405  0.0227 -0.0309
13424W        W56440  24.121  19.534   4.350  0.0896 -0.2083 -0.0402
13425W        W56441  29.125   7.226  26.056 -0.2984 -0.2081 -0.0735
13426W        W56442  17.618  33.322   7.962 -0.2065 -0.3135  0.0749
13427W        W56443  14.574   7.132   4.847  0.2584  0.2603  0.1407
13428W        W56444  12.714  19.195   1.838 -0.0469 -0.3324  0.2370
13429W        W56445  14.067  25.150   8.398 -0.1262  0.0670  0.0344
13430W        W56446   6.837   7.933   4.771 -0.1965 -0.3548  0.2118
13431W        W56447  24.329  29.746  10.551 -0.3798 -0.2697  0.0520
13432W        W56448  25.492  24.382   3.866 -0.1321 -0.5100 -0.1491
13433W        W56449  18.589   5.721   8.768  0.0473  0.1521  0.0197
13434W        W56450  11.861  18.674  23.093  0.0712  0.0290 -0.2523
13435W        W56451  21.198  22.157  28.383 -0.0311  0.0554  0.1187
13436W        W56452  24.101   9.840   7.071 -0.1743  0.0052 -0.3306
13437W        W56453  29.569  34.089   6.368 -0.0355 -0.0732 -0.0312
13438W        W56454  19.468  33.576  10.442 -0.1276  0.3025  0.1774
13439W        W56455  15.617  24.642   8.831  0.4535  0.1525  0.0176
13440W        W56456   5.758   3.597  23.930 -0.0033  0.0296 -0.1151
13441W        W56457  16.667  22.734  24.932  0.4112  0.0080 -0.1070
13442W        W56458  24.701   4.729  26.676  0.3913 -0.5006  0.1238
13443W        W56459  33.553   4.391   1.706  0.1718 -0.0377  0.1864
13444W        W56460  28.546  17.053   8.920  0.2511 -0.1287 -0.1143
13445W        W56461  14.692   9.207   7.820 -0.4118  0.0489 -0.1600
13446W        W56462  26.388  16.314  24.858 -0.1055  0.0874 -0.1209
13447W        W56463  17.864   7.373  19.289  0.1684 -0.0189  0.2034
13448W        W56464  29.899  15.653   4.292 -0.2139 -0.0238 -0.1555
13449W        W56465  25.151   2.738   5.166 -0.0326  0.2200  0.0212
13450W        W56466  25.584  28.058  21.067 -0.3029  0.0690 -0.3389
13451W        W56467  23.234  10.832   7.270  0.1759 -0.0365 -0.2509
13452W        W56468  15.159  11.967   6.797 -0.1429 -0.0278  0.0523
13453W        W56469  24.004   8.405   9.377  0.1671 -0.0784  0.1309
13454W        W56470  31.705  27.471   0.376  0.1132  0.0462 -0.1402
13455W        W56471   4.788  34.777   0.950 -0.1469 -0.4002  0.0593
13456W        W56472  12.684  19.029   6.686  0.3880  0.1199 -0.0074
13457W        W56473  17.982  14.292   2.712 -0.0647 -0.0815  0.2240
13458W        W56474  27.530  16.338  21.948  0.0035 -0.2670  0.2403
13459W        W56475  22.439  16.349   8.376  0.1111 -0.1558  0.4250
13460W        W56476  14.922  23.543  19.223  0.0498  0.2628 -0.1928
13461W        W56477  29.256  13.609   3.577  0.0318 -0.2862 -0.0216
13462W        W56478   9.527   9.455   4.296  0.0501  0.0243  0.0731
13463W        W56479  23.906  20.233   4.869  0.1023 -0.0000  0.1384
13464W        W56480  11.636  33.033   7.819  0.2544  0.0060 -0.2047
13465W        W56481  19.010  18.900   6.629  0.4023 -0.1065  0.0938
13466W        W56482   4.434  19.327   9.702  0.1720 -0.0601 -0.1222
13467W        W56483  10.748   8.646   7.423  0.3102 -0.1109 -0.1686
13468W        W56484  31.622   1.657  23.816  0.1301  0.1955  0.0313
13469W        W56485  29.876  13.596   0.510 -0.1100  0.2274 -0.0485
13470W        W56486  20.198  32.685  27.630  0.2315  0.0480 -0.0259
13471W        W56487  20.272  11.434  18.771 -0.1397  0.0352 -0.1410
13472W        W56488  25.455  19.777   9.433 -0.4828 -0.1498 -0.1749
13473W        W56489   3.747  15.212  27.178  0.0904 -0.0100  0.2378
13474W        W56490  25.953  23.826   8.426 -0.1217 -0.2445 -0.1914
13475W        W56491   3.106  21.387  10.062  0.0550 -0.0817 -0.1612
13476W        W56492  20.402  11.342  16.711 -0.0730  0.0678 -0.2072
13477W        W56493  21.132  28.224  27.416  0.1513  0.0462 -0.3001
13478W        W56494  24.788  30.685   3.662 -0.0851  0.2032 -0.0060
13479W        W56495   5.987  29.844  23.225  0.0436 -0.2272 -0.1814
13480W        W56496  18.285  15.220   1.461 -0.1546 -0.1082  0.0207
13481W        W56497  27.941  10.327   4.034 -0.1415  0.0786 -0.0773
13482W        W56498  18.050   2.827   8.457 -0.0949 -0.0696  0.0920
13483W        W56499   8.542  19.785   6.233 -0.1582 -0.1598 -0.1979
13484W        W56500   4.900  34.424   6.497  0.1140 -0.2642  0.0725
13485W        W56501  26.973   9.868  23.321  0.4238 -0.0151 -0.1835
13486W        W56502  25.825  30.763   9.444  0.1415 -0.1361 -0.0610
13487W        W56503   9.911  10.088   2.489 -0.0630  0.1319  0.2158
13488W        W56504  15.257   1.656  18.237  0.3945 -0.0284  0.1171
13489W        W56505   6.627  22.656   6.213  0.1243  0.2081 -0.1959
13490W        W56506  15.391  27.971   5.144  0.0557 -0.1543 -0.1724
13491W        W56507   8.339  15.796  28.150  0.1022 -0.2889 -0.0506
13492W        W56508  25.582  20.407  21.395 -0.0765 -0.1058  0.2893
13493W        W56509  28.920  10.341   7.579 -0.3204  0.2828 -0.1437
13494W        W56510  23.070   2.104   4.614  0.1599  0.0604  0.0111
13495W        W56511  22.828  23.698   9.644 -0.1414 -0.0125 -0.5559
13496W        W56512   0.402  10.913   3.305  0.3446 -0.0902  0.0562
13497W        W56513  20.413  21.889  14.737  0.0625  0.0359 -0.2028
13498W        W56514  19.668  15.506   3.775 -0.2708 -0.2425 -0.1839
13499W        W56515   3.562   6.074   9.422  0.0297  0.5147  0.1444
13500W        W56516  16.327  11.929   3.610 -0.0748 -0.1151  0.1178
13501W        W56517  12.290   4.459   5.285 -0.0166  0.0290 -0.1447
13502W        W56518  27.245  29.440  16.053 -0.1523  0.1439 -0.0346
13503W        W56519  21.309  15.956   6.343  0.3184 -0.0581 -0.2096
13504W        W56520  21.894  30.519   3.904 -0.0399 -0.2495  0.2635
13505W        W56521  20.032  22.574   4.404  0.0366 -0.2085 -0.0216
13506W        W56522  14.250   0.089   3.711 -0.1053  0.2898  0.0759
13507W        W56523  13.557   9.112   3.598  0.0782 -0.0087 -0.3564
13508W        W56524  26.743  22.347   1.996 -0.1855 -0.0171  0.1223
13509W        W56525  14.232  19.142  21.701 -0.1946  0.0907  0.0216
13510W        W56526  21.545  13.484  28.580  0.0518  0.1182 -0.1222
13511W        W56527  23.591  15.460   2.794 -0.0045  0.0018  0.0918
13512W        W56528  17.068  10.588  19.741 -0.2625 -0.0356  0.2663
13513W        W56529   7.221  12.516   9.239 -0.1140  0.1740  0.2525
13514W        W56530  11.858  20.309   8.810 -0.0982  0.1671 -0.1053
13515W        W56531  14.534  29.584   3.075  0.2965  0.0261 -0.2035
13516W        W56532  20.444   9.627   0.548 -0.0700 -0.2641 -0.1758
13517W        W56533   4.542  13.455   1.672  0.3392 -0.0091  0.2109
13518W        W56534  20.154  22.366  24.063  0.0153  0.0458 -0.1098
13519W        W56535   8.815  13.222  29.126  0.1806 -0.0719  0.1695
13520W        W56536  21.262  19.659   8.921  0.1168  0.3890  0.1849
13521W        W56537  15.013  12.660  22.406 -0.1232 -0.2895  0.0769
13522W        W56538  28.348  18.364   5.966  0.1580 -0.1116  0.0287
13523W        W56539  24.778  12.499   7.064 -0.1075 -0.0823 -0.2093
13524W        W56540  24.817  11.733   4.949 -0.0888  0.0626  0.2424
13525W        W56541   7.411  14.258  26.413  0.1429 -0.1012  0.1368
13526W        W56542  24.608  16.087   4.539  0.1570  0.0956 -0.1116
13527W        W56543  29.579   4.673  22.802 -0.0921  0.2621 -0.3025
13528W        W56544  29.312  18.170  19.107 -0.1389 -0.0001 -0.2657
13529W        W56545  22.506   3.197   1.217 -0.0491 -0.2663  0.1026
13530W        W56546  17.123   4.828   6.909 -0.4735 -0.0216 -0.0122
13531W        W56547  10.356  14.337  27.222  0.0393  0.0252 -0.1421
13532W        W56548  17.687  18.091  20.603 -0.1347  0.0420  0.0222
13533W        W56549  28.737  30.358  11.648  0.0111  0.0373  0.0344
13534W        W56550  26.943   9.459   0.941 -0.1399  0.0002 -0.2662
13535W        W56551  30.969  24.430   0.077  0.1035 -0.1916 -0.0054
13536W        W56552  24.634  21.647  25.892 -0.2515 -0.3520  0.0135
13537W        W56553  15.711   3.438   3.820  0.0494 -0.0412 -0.1128
13538W        W56554  31.543  18.484   2.847  0.1112 -0.0900  0.1355
13539W        W56555   9.267  10.080  27.915 -0.3955 -0.0758 -0.2630
13540W        W56556   1.904   6.965   3.823  0.3585 -0.2184 -0.1563
13541W        W56557  20.409  12.356   8.327 -0.0454 -0.0741 -0.1666
13542W        W56558  25.466  12.887   2.752 -0.1210 -0.0015  0.1186
13543W        W56559  25.444  13.974   6.666  0.0798 -0.0599  0.3591
13544W        W56560  14.557   4.493  22.836  0.0265  0.2443 -0.1645
13545W        W56561  11.477  13.025  17.908 -0.1055 -0.0825  0.1475
13546W        W56562  24.556  10.452   0.648 -0.1637 -0.0742  0.0197
13547W        W56563  21.545   9.792   2.930 -0.3857 -0.1677 -0.1664
13548W        W56564  15.310  18.269   6.576 -0.1852 -0.0958 -0.0453
13549W        W56565  24.918  20.414   5.901 -0.0719 -0.0062 -0.2081
13550W        W56566  28.428   3.209   8.142  0.1636 -0.0344 -0.3570
13551W        W56567  31.788   4.055   4.239 -0.1810  0.1160  0.1156
13552W        W56568  18.643  25.103   3.563 -0.2218 -0.2053 -0.5157
13553W        W56569  21.186  11.339  21.802 -0.0183 -0.1436  0.5664
13554W        W56570  26.463  12.917  26.796 -0.3214 -0.4096  0.1264
13555W        W56571  10.096  23.915   5.673  0.2274 -0.0881  0.0277
13556W        W56572   9.466   7.619   0.141 -0.0869  0.0269 -0.0252
13557W        W56573  12.776  32.504  29.034  0.3867  0.0738  0.0523
13558W        W56574  15.620   4.731   2.333 -0.0530 -0.0338 -0.0934
13559W        W56575   2.211  20.346   8.316 -0.1349 -0.0367 -0.0150
13560W        W56576  13.519   0.428  29.237 -0.1494  0.1647  0.3761
13561W        W56577  12.899  27.074   5.865 -0.1005 -0.1382 -0.1420
13562W        W56578  12.928  25.375   3.700 -0.1459  0.0238 -0.1687
13563W        W56579  29.275   8.206   9.237  0.0215 -0.2128 -0.1326
13564W        W56580  30.724   6.374   6.206 -0.0650 -0.1377  0.2972
13565W        W56581  21.230  13.536   2.932 -0.0283  0.0276 -0.2024
13566W        W56582   5.286  24.396   1.646 -0.0175 -0.0859 -0.1851
13567W        W56583  22.963  26.050   0.902  0.2046 -0.2793  0.2281
13568W        W56584  27.020  14.511   3.708  0.0956  0.1899  0.1589
13569W        W56585  27.566   6.052   6.258 -0.2210 -0.0317 -0.2079
13570W        W56586  21.261   3.441  21.446 -0.1488  0.0419  0.1293
13571W        W56587  34.022  26.482   5.959 -0.2805 -0.0658  0.1193
13572W        W56588  22.999  29.068   2.576  0.0544  0.5588  0.3050
13573W        W56589  23.231   1.832   2.672 -0.3242 -0.1236 -0.1255
13574W        W56590  22.342  14.731  19.914 -0.0029 -0.0787  0.3459
13575W        W56591  15.538  13.739  28.810 -0.1777 -0.0894 -0.0120
13576W        W56592  23.340  14.378  23.020 -0.0917 -0.1529  0.1194
13577W        W56593  31.410  27.537   1.576  0.2381  0.0267 -0.1751
13578W        W56594  23.051  12.991  22.321 -0.1222 -0.0735  0.1215
13579W        W56595   9.530   4.391   5.450 -0.3653 -0.0441  0.0805
13580W        W56596  27.592   8.245   9.652 -0.0559 -0.1852  0.1486
13581W        W56597   0.432  20.541   4.334 -0.2485 -0.2226 -0.1140
13582W        W56598  31.423   2.818  25.259  0.1304 -0.1161 -0.2562
13583W        W56599  24.031   1.989   8.373 -0.1322  0.0412 -0.1970
13584W        W56600  26.326   6.755  10.152 -0.0558  0.3751  0.2292
13585W        W56601   9.814  26.407  29.161  0.0522  0.0823  0.0059
13586W        W56602   7.785  17.186   3.915  0.0162 -0.0742 -0.1177
13587W        W56603  20.862  16.541  26.042  0.2049  0.0736  0.1891
13588W        W56604   4.233  17.161  19.191  0.0183 -0.1161  0.0378
13589W        W56605  27.872  12.303   4.721  0.1192 -0.0223  0.1936
13590W        W56606  23.493   8.264  16.505 -0.0423  0.0636  0.1837
13591W        W56607  28.020  22.214  10.582  0.1839 -0.2073 -0.2138
13592W        W56608  18.083   4.744   4.488  0.2561  0.0736 -0.0691
13593W        W56609  12.619  24.448   2.255  0.0628 -0.2966  0.1170
13594W        W56610  20.713   4.763  29.016  0.0346  0.2049  0.2044
13595W        W56611  11.223  19.385   4.307 -0.3314  0.0582 -0.0464
13596W        W56612  14.033  31.537   9.992  0.1916 -0.0671 -0.1844
13597W        W56613  20.716  21.074   2.436 -0.1430 -0.0881 -0.1203
13598W        W56614  20.494   5.270   1.417 -0.0903  0.1613  0.1107
13599W        W56615  28.655  16.706  29.216 -0.2072 -0.0585  0.1587
13600W        W56616   3.691   6.104   4.274 -0.1534 -0.0073 -0.0543
13601W        W56617  24.717  30.973   4.091 -0.1652  0.1033 -0.0522
13602W        W56618  34.287  14.237   3.126 -0.1702  0.0747 -0.0892
13603W        W56619  28.198  10.461   4.864  0.0102 -0.1003 -0.1109
13604W        W56620  20.725  23.746   5.655 -0.0816 -0.2274  0.3376
13605W        W56621   5.786  14.078   5.911 -0.2123  0.0233  0.1428
13606W        W56622  13.446  18.251  20.876 -0.0027  0.1212  0.2031
13607W        W56623  13.916  24.280  20.345  0.0695 -0.0992  0.0602
13608W        W56624   8.590  28.701  19.835 -0.0538 -0.3166 -0.0499
13609W        W56625  20.004  18.023  20.699 -0.1503 -0.1942  0.1286
13610W        W56626  22.691   4.242  27.712  0.5103  0.0840  0.3587
13611W        W56627  32.819  19.415   9.815  0.0608  0.3300 -0.1007
13612W        W56628  26.372  13.179   2.552  0.2970 -0.2949 -0.2709
13613W        W56629  20.922   6.391  24.596 -0.0498 -0.3368 -0.1717
13614W        W56630  31.649  11.917   5.739  0.0876  0.0407  0.0937
13615W        W56631  33.857  15.612   2.289  0.2282  0.0767 -0.0928
13616W        W56632  16.612  20.986   6.851  0.0141  0.0003 -0.0811
13617W        W56633   8.781   9.907   0.043 -0.1418 -0.2224  0.1714
13618W        W56634  29.355   6.419  10.968 -0.1144  0.1088  0.0553
13619W        W56635  31.907  11.868   2.037  0.1589  0.0857 -0.1550
13620W        W56636  22.411   7.362  10.090 -0.0507 -0.3623  0.0006
13621W        W56637   6.042  28.315   5.487 -0.0867 -0.0373 -0.0921
13622W        W56638  23.324  21.591   6.134  0.4432  0.3761 -0.2859
13623W        W56639  22.127  11.011   0.372  0.0853  0.2283  0.0254
13624W        W56640  27.754  23.815  17.547 -0.2091  0.1789  0.1257
13625W        W56641   1.882  15.752   2.378  0.0233 -0.0290  0.2588
13626W        W56642   2.866  31.367  25.504  0.0606 -0.2541  0.1375
13627W        W56643  29.981  16.738   5.770  0.1894  0.0115  0.1149
13628W        W56644  29.604   6.534   7.497 -0.0156 -0.2085  0.0686
13629W        W56645  12.995  13.671   5.215  0.2080  0.0649  0.0574
13630W        W56646   7.947  24.657   0.774 -0.0370  0.0596  0.2601
13631W        W56647   0.806  20.670  25.993  0.0297  0.1342 -0.1031
13632W        W56648  20.446  23.604   6.711  0.0680 -0.2679  0.0930
13633W        W56649  15.969   4.943   1.174 -0.2851  0.2802  0.0438
13634W        W56650  17.840  13.139   8.715  0.0741  0.1511 -0.1422
13635W        W56651  26.249   1.446   8.762  0.2290  0.2030 -0.1229
13636W        W56652  11.495  33.705   6.586 -0.5252  0.3415  0.1039
13637W        W56653   8.194  19.957  25.051 -0.1535 -0.2086  0.0040
13638W        W56654  10.525  11.340  16.708 -0.0592  0.0328 -0.1218
13639W        W56655   2.846  11.530   5.283 -0.0944  0.0436 -0.2915
13640W        W56656  23.517  12.500   7.446  0.1908  0.0893  0.5029
13641W        W56657  23.039  25.568   7.415  0.0684 -0.0828  0.2649
13642W        W56658  15.575  27.320   5.208  0.3305 -0.4109  0.0576
13643W        W56659  31.809  23.580   1.104  0.3965 -0.0926 -0.2648
13644W        W56660  27.776  27.496   3.757 -0.0980  0.0853  0.2079
13645W        W56661  17.673  13.957   0.302  0.1133 -0.2155 -0.0345
13646W        W56662  31.926   8.437   1.956  0.1188 -0.0162  0.1280
13647W        W56663  15.957  27.404  21.595 -0.3093  0.2639 -0.1199
13648W        W56664  28.859   9.735   3.736 -0.1131 -0.2256 -0.0289
13649W        W56665  31.120  11.161   3.539 -0.1882  0.1057 -0.1816
13650W        W56666  26.180  16.306   7.015  0.2026  0.1299  0.0120
13651W        W56667  14.532  17.360   2.055  0.2036 -0.0353  0.0881
13652W        W56668   5.928   6.974   6.461  0.0965 -0.2517  0.0535
13653W        W56669  26.968  20.366  17.170 -0.2175  0.1084 -0.3191
13654W        W56670   1.766  10.284  28.975  0.0193 -0.0648 -0.0305
13655W        W56671   9.433  20.405  25.674  0.2611  0.0974  0.1200
13656W        W56672  26.134  28.586   3.457 -0.1890  0.0809 -0.0497
13657W        W56673  18.981  11.660   2.862  0.2317  0.1094  0.1059
13658W        W56674  29.516  19.633  27.142 -0.1776 -0.1300  0.2902
13659W        W56675  15.978   5.845   7.092  0.1567 -0.5181  0.2132
13660W        W56676  33.115  30.817   0.485  0.2749 -0.1917  0.2171
13661W        W56677  24.937  12.806   0.883  0.0754  0.0622  0.1940
13662W        W56678  19.832  16.985   3.088  0.4218  0.0749 -0.0568
13663W        W56679  27.934  13.652  22.342  0.2959 -0.3791 -0.0371
13664W        W56680  30.319   7.497  19.651 -0.0067 -0.0011 -0.0458
13665W        W56681  30.846  31.026  10.086 -0.0099 -0.2674 -0.0119
13666W        W56682  19.633  12.208   3.336 -0.3656 -0.1888 -0.0130
13667W        W56683  29.674   5.408   3.280  0.1089  0.2940 -0.2195
13668W        W56684  23.591  23.878   3.811  0.2443  0.0966  0.2928
13669W        W56685  17.387   3.994   4.815  0.1007 -0.0328 -0.2364
13670W        W56686  26.741   2.930   4.494 -0.0233 -0.0604  0.0718
13671W        W56687   6.938  17.010   2.917  0.2085 -0.3333  0.0243
13672W        W56688  13.137  34.436   9.889 -0.1457 -0.0131  0.3296
13673W        W56689  21.729  20.611   7.060 -0.0466 -0.2889  0.0583
13674W        W56690  16.797  10.958   7.320 -0.0027 -0.3084  0.0238
13675W        W56691  29.835  15.022  28.478  0.0534 -0.4113 -0.0812
13676W        W56692  23.226  10.081   5.984  0.1226 -0.0381 -0.0906
13677W        W56693  18.478  23.605   6.732 -0.2564 -0.3822  0.0960
13678W        W56694   6.637  30.743   8.027  0.4145 -0.1428 -0.2873
13679W        W56695  18.320   6.615   6.329  0.0086 -0.2400 -0.0959
13680W        W56696  20.629   8.826  27.762  0.0026  0.1168 -0.1833
13681W        W56697  18.025   8.462  21.776 -0.2626  0.0124  0.2495
13682W        W56698  13.551   4.015   0.527  0.0371 -0.1004  0.1512
13683W        W56699  18.627  13.971   8.378  0.0547  0.0217 -0.0062
13684W        W56700  31.712  12.451   7.677  0.0954 -0.2821 -0.1176
13685W        W56701  27.628   3.622  21.283 -0.1679 -0.0840  0.2723
13686W        W56702   8.234  23.633   7.712 -0.0286 -0.1850  0.3452
13687W        W56703  15.418   8.002   5.007  0.1568 -0.1070  0.1333
13688W        W56704  18.348  12.607  20.623 -0.1846 -0.2629 -0.3023
13689W        W56705  30.999  15.016   5.322  0.0054 -0.0999 -0.1873
13690W        W56706  18.077   4.373  28.998 -0.1829  0.0234  0.0749
13691W        W56707  19.201  21.644   2.265  0.1349 -0.1811 -0.0979
13692W        W56708   0.518  13.943   4.071 -0.0939 -0.0367 -0.1811
13693W        W56709  32.745  16.513   1.903 -0.0335  0.0978  0.0845
13694W        W56710  29.031  27.920  27.472 -0.0723 -0.0076 -0.1652
13695W        W56711  27.007  10.451   8.670 -0.1843  0.0694 -0.1035
13696W        W56712  11.371  18.349   0.958  0.1050 -0.1381 -0.0739
13697W        W56713  16.538   5.657   3.746 -0.1414 -0.0166  0.1187
13698W        W56714  22.840  20.375   6.567  0.0442 -0.0925 -0.0909
13699W        W56715  19.860  19.434   2.065  0.2780 -0.2731 -0.2198
13700W        W56716  10.251  12.553   9.018  0.2231 -0.0540  0.2979
13701W        W56717  33.839  13.811   1.878  0.0820  0.2012 -0.0443
13702W        W56718  13.474  17.470   0.276  0.0705  0.2535 -0.2000
13703W        W56719  11.575  13.069   3.474 -0.2783  0.1279 -0.3302
13704W        W56720  15.574  34.184   9.785  0.4866 -0.0295 -0.2560
13705W        W56721  34.202  17.415  28.410 -0.2505  0.0809 -0.0267
13706W        W56722   2.091  13.210  28.158  0.2751 -0.1019 -0.1223
13707W        W56723  18.980  15.163   8.159 -0.2780 -0.1192 -0.1307
13708W        W56724  22.252  15.125   7.986 -0.1009 -0.2654 -0.2464
13709W        W56725  10.310  13.314   3.167  0.0512 -0.0552  0.0969
13710W        W56726  27.173   7.703  25.293  0.0319 -0.0023 -0.3124
13711W        W56727  23.503  18.901  20.591  0.1988  0.1552  0.2652
13712W        W56728  29.786  21.231  25.665 -0.2839  0.0311 -0.1859
13713W        W56729  14.873  10.391  29.014  0.0355  0.1555 -0.1312
13714W        W56730  11.534   8.325   7.774 -0.0912  0.2209  0.1917
13715W        W56731  25.121  33.742   6.263  0.2149 -0.1061 -0.0998
13716W        W56732  21.823  19.118  27.481  0.2291 -0.2717  0.2608
13717W        W56733  30.531  12.658   3.302  0.3108  0.0694 -0.0079
13718W        W56734  17.992   4.126  23.704  0.0666  0.0170 -0.0975
13719W        W56735  24.024  23.208   6.789  0.0349 -0.0916  0.4176
13720W        W56736  10.938  19.280   3.006  0.1227  0.2459 -0.1870
13721W        W56737   9.206   8.799   6.094  0.0240 -0.0003 -0.0590
13722W        W56738  28.850  22.242   9.056 -0.0398 -0.1504  0.0273
13723W        W56739  29.437  24.322   5.731 -0.2294  0.1253 -0.1107
13724W        W56740   9.609  26.748  23.658 -0.3603  0.0085 -0.2068
13725W        W56741   9.198   8.064   2.464  0.0220 -0.0956  0.0475
13726W        W56742  18.160  28.663   5.963  0.0810  0.0652 -0.2450
13727W        W56743  22.653  11.306   7.454  0.1360  0.2970  0.0649
13728W        W56744  13.399  30.040  24.118  0.1046 -0.1382  0.0691
13729W        W56745  15.777  11.232  13.656  0.3101 -0.1310 -0.0145
13730W        W56746  29.293  24.014   6.963 -0.0209 -0.1371 -0.0830
13731W        W56747  33.329  25.160   4.617  0.0306  0.0739  0.0803
13732W        W56748  19.030  33.366  28.081 -0.2458  0.2740  0.1000
13733W        W56749  25.774  30.283   4.054 -0.0109  0.0281  0.0144
13734W        W56750  29.015   2.080   9.745  0.2050 -0.2045 -0.0082
13735W        W56751  15.179   9.784   6.146 -0.2021  0.1085  0.0305
13736W        W56752  17.366  20.531   5.834  0.0395  0.0349 -0.3053
13737W        W56753  18.692  12.245   2.979  0.0976 -0.0471  0.2144
13738W        W56754   9.163   3.996   6.170  0.0172 -0.2926  0.0700
13739W        W56755   1.420  19.002   7.427  0.1410 -0.2046  0.0195
13740W        W56756   1.678  24.553   9.661  0.0489  0.1999  0.2176
13741W        W56757   0.197   6.492   2.870 -0.1323 -0.1416  0.2261
13742W        W56758  10.747  30.475   6.940  0.2677 -0.0520 -0.2813
13743W        W56759  29.918  18.392   7.926  0.1649 -0.0231  0.2274
13744W        W56760  21.601  17.500   9.036  0.1029  0.0131 -0.4968
13745W        W56761  23.493  11.184   3.472  0.3311 -0.0641 -0.0797
13746W        W56762  27.175  17.190   3.204 -0.0286  0.2594  0.2612
13747W        W56763  31.152  25.753   3.551  0.0847 -0.0077  0.2350
13748W        W56764  34.233  17.663   8.762 -0.1188 -0.0632 -0.4808
13749W        W56765   9.199  14.984  20.623 -0.0032 -0.0756 -0.0542
13750W        W56766  13.234  26.266  25.719 -0.0313  0.3141 -0.0069
13751W        W56767  10.100  13.655  18.474  0.0256 -0.2863  0.1236
13752W        W56768  22.564  16.827   2.221  0.2116  0.3451 -0.1596
13753W        W56769  27.288  11.365   5.432  0.0838  0.0574  0.1227
13754W        W56770   1.885  15.566   0.424  0.0664 -0.0454 -0.0942
13755W        W56771  15.776  14.377   0.325 -0.0683 -0.1336  0.1409
13756W        W56772  24.067   4.038  10.885  0.1847 -0.1156 -0.3328
13757W        W56773  31.084  32.045  18.760  0.0256 -0.2223  0.0701
13758W        W56774  23.798  28.433  21.630  0.0549  0.1928 -0.0237
13759W        W56775   3.907  16.245   6.815 -0.0575  0.1390 -0.1270
13760W        W56776  13.914  21.754   2.307  0.1536 -0.1220  0.1284
13761W        W56777  16.994  12.930  28.352 -0.0174  0.0899 -0.1494
13762W        W56778  31.481   2.122  10.238  0.0405 -0.1790  0.1624
13763W        W56779  10.891  29.609   1.305 -0.1133  0.1244 -0.1022
13764W        W56780  21.941  17.607   8.033 -0.2730  0.0210 -0.2219
13765W        W56781  24.366  12.097   1.002  0.0727  0.2071 -0.0642
13766W        W56782  18.045  15.333   7.838 -0.1439  0.1150 -0.2689
13767W        W56783  15.659  24.065   0.982  0.0446  0.2196 -0.2168
13768W        W56784   0.557   1.280   4.671 -0.0571  0.0623  0.2641
13769W        W56785   1.494  13.875  29.284 -0.0755  0.0217 -0.1492
13770W        W56786  32.323  11.922   8.455  0.0296  0.0815  0.1256
13771W        W56787  16.722  13.295  12.043  0.2296 -0.2759  0.1216
13772W        W56788  17.280  16.695  24.497  0.0570 -0.1737  0.3352
13773W        W56789  26.656  19.713   6.138 -0.1571 -0.2144  0.1033
13774W        W56790  23.441  14.327  20.180 -0.1842 -0.1968 -0.0945
13775W        W56791  14.160  20.230   4.611 -0.0096  0.3319  0.1391
13776W        W56792  30.088  28.845   5.492  0.0418 -0.0497  0.1121
13777W        W56793  32.592  16.004   8.910 -0.2724  0.2811 -0.3986
13778W        W56794   3.802  17.546   7.107  0.1288 -0.2232  0.0398
13779W        W56795  25.424   9.236   5.465 -0.0710  0.2670  0.0054
13780W        W56796  33.049  19.292  24.505 -0.0186 -0.0423 -0.2637
13781W        W56797  27.496  19.478  28.711  0.1790  0.2524  0.4211
13782W        W56798  16.228  18.265   5.878  0.1846  0.1088 -0.0850
13783W        W56799   3.060  29.854   1.576  0.3733  0.3153 -0.0388
13784W        W56800  30.361  10.520  18.724 -0.1503 -0.0063 -0.0325
13785W        W56801  18.145  10.946  26.357 -0.0886  0.0829 -0.0412
13786W        W56802  22.771  23.300   9.106 -0.1678  0.0703  0.1296
13787W        W56803  19.165  12.808  26.057  0.1197  0.1681  0.1855
13788W        W56804  17.336  18.284   5.161  0.0954  0.0162 -0.0355
13789W        W56805  14.630  18.691   7.382  0.3429 -0.0161 -0.1521
13790W        W56806  11.501  10.376   8.653  0.0623  0.1548  0.2193
13791W        W56807   0.861   7.223   1.624 -0.3645 -0.2313  0.2175
13792W        W56808  28.620  13.281   5.973  0.2118  0.1046  0.2705
13793W        W56809  23.186   3.347  27.765 -0.2062  0.0367  0.1242
13794W        W56810  30.895  20.604   1.786 -0.2644  0.0682  0.1886
13795W        W56811  27.225  14.176   3.349  0.1539 -0.1409  0.0568
13796W        W56812  11.548   6.700   5.823  0.3589  0.1581  0.0649
13797W        W56813  30.059   9.242  16.453 -0.0548  0.1835  0.3068
13798W        W56814  16.786  15.055  29.047  0.1899  0.3317  0.2387
13799W        W56815  27.039  21.084   8.657 -0.3049 -0.1115  0.0844
13800W        W56816  11.040  19.381   2.076  0.0994 -0.0831  0.3119
13801W        W56817  11.432  18.710   4.378 -0.0268 -0.3223 -0.1190
13802W        W56818  24.138  28.142  17.327  0.0808  0.0831 -0.0539
13803W        W56819  20.825  25.030  25.475 -0.1199  0.3209 -0.2360
13804W        W56820  26.614  21.522  10.379  0.0828 -0.1792  0.2550
13805W        W56821  10.527   9.045   4.864  0.1098  0.0620 -0.1244
13806W        W56822  14.174  22.403   5.921 -0.3346 -0.1023  0.0174
13807W        W56823  28.441  17.839   3.245  0.3653 -0.0410  0.1048
13808W        W56824  16.326  15.109  19.735  0.1192 -0.0483  0.0867
13809W        W56825   1.635  21.298   3.962  0.1529 -0.1448 -0.2398
13810W        W56826  24.367  16.884  29.167  0.0767  0.3890  0.0004
13811W        W56827  29.248  20.168   1.712 -0.1581 -0.0047  0.0770
13812W        W56828  33.847  19.201   7.440 -0.2229 -0.1623  0.2849
13813W        W56829  17.600  18.932  25.839  0.1848  0.1648 -0.1758
13814W        W56830   3.347  28.305  28.914  0.1864  0.2082 -0.2176
13815W        W56831  29.158  17.985   5.174  0.0271 -0.1012 -0.0319
13816W        W56832  24.507   1.541   9.091 -0.2049 -0.1563 -0.2606
13817W        W56833  25.553  24.665  28.242 -0.1759 -0.3310 -0.2502
13818W        W56834  17.228  12.187  18.605  0.2476 -0.1083 -0.1834
13819W        W56835  10.941   4.365   9.925  0.1150 -0.1340  0.0758
13820W        W56836  16.902   1.049  20.938  0.0708  0.1615  0.0506
13821W        W56837  10.790  12.148   5.522  0.0917  0.1000 -0.1593
13822W        W56838  12.085   8.056   3.892 -0.0193 -0.0198  0.1585
13823W        W56839  18.200  26.091  21.731  0.1546 -0.0330  0.0675
13824W        W56840   7.777  15.083   5.424 -0.2019 -0.1347 -0.1755
13825W        W56841  10.123  15.477  27.536 -0.1405 -0.0374 -0.1430
13826W        W56842  17.448  33.799   9.152  0.2440 -0.0609 -0.0642
13827W        W56843  23.370  14.099   4.346  0.3019 -0.2069  0.0233
13828W        W56844  15.719   1.390   2.425 -0.2219 -0.0406  0.1592
13829W        W56845  12.992  14.934   0.929 -0.2664  0.0385  0.0232
13830W        W56846  13.373  30.480  28.938 -0.0728  0.0452  0.0640
13831W        W56847  13.820   3.742   6.742  0.0354 -0.2666 -0.1788
13832W        W56848   9.440   8.375  28.704 -0.2222  0.0457 -0.0331
13833W        W56849  21.248   7.464   5.211 -0.1370  0.1215  0.0359
13834W        W56850  12.408  24.492  23.787  0.3066  0.2728 -0.2313
13835W        W56851  17.293  32.612  10.301 -0.3263  0.1259  0.3079
13836W        W56852  25.263  16.278   7.139  0.0286 -0.4199  0.2267
13837W        W56853  23.327  19.036   5.519  0.2260 -0.1244 -0.3562
13838W        W56854   4.694   9.620   9.586 -0.2315  0.0728 -0.5128
13839W        W56855  25.352  17.220   8.149 -0.0042  0.0145 -0.1660
13840W        W56856  22.233  30.900  25.689  0.1431  0.0479  0.0329
13841W        W56857  13.740  14.891   3.079  0.1246 -0.0685  0.0822
13842W        W56858  13.533  27.862  27.829  0.2020  0.1765 -0.4214
13843W        W56859   1.217   9.958   0.269 -0.1865 -0.0581  0.1160
13844W        W56860  32.059   8.400   5.456 -0.2918  0.1701 -0.1206
13845W        W56861  21.247  24.683   7.469  0.1786  0.0362  0.0086
13846W        W56862  19.549  17.511  24.179  0.0814 -0.0818  0.0115
13847W        W56863  30.995  12.399   7.643  0.1872 -0.1282 -0.1902
13848W        W56864  29.779  16.432  27.384 -0.1125  0.0492  0.0790
13849W        W56865  24.127  13.875   2.185  0.1915 -0.0537  0.0605
13850W        W56866   9.291  15.426   2.435  0.0116  0.0858  0.2754
13851W        W56867  11.354  18.188   4.287  0.0358  0.1187 -0.1549
13852W        W56868  13.783  32.266  19.266  0.0521 -0.1296 -0.0928
13853W        W56869   8.268  18.146   0.843  0.2064 -0.0890 -0.4736
13854W        W56870  11.845  24.349  13.577 -0.2687 -0.1664 -0.1569
13855W        W56871  26.214  16.710   8.084 -0.0821  0.0736  0.0432
13856W        W56872  22.213  34.414   0.716  0.2234  0.1303  0.0247
13857W        W56873  17.239   1.228  24.879  0.1254  0.2233  0.0228
13858W        W56874  13.934  17.261   3.502  0.4758  0.1445 -0.3172
13859W        W56875  11.170  11.665   8.262  0.0856  0.1739 -0.0793
13860W        W56876  10.932  24.004   1.171 -0.4306 -0.0098 -0.0813
13861W        W56877  23.558  20.188   7.334  0.2514 -0.1758  0.1322
13862W        W56878   5.646  14.079   4.179  0.1555 -0.4576  0.0836
13863W        W56879  20.611  18.048   2.054 -0.1663 -0.2614 -0.2185
13864W        W56880  10.258  32.569   5.248  0.0704 -0.0824 -0.3217
13865W        W56881  17.977  29.461  18.920  0.0207 -0.2115  0.4020
13866W        W56882  19.234  26.432   5.761 -0.0350  0.3564  0.0362
13867W        W56883  18.609   8.701  26.263 -0.0273 -0.3165  0.0583
13868W        W56884  31.833  14.046   0.228  0.1520  0.0718  0.1569
13869W        W56885  21.172   8.485   9.449 -0.2684  0.4385  0.0522
13870W        W56886  11.357  13.438  28.377  0.0971 -0.4182 -0.0509
13871W        W56887  17.406  10.926   1.288  0.2718 -0.3059 -0.2963
13872W        W56888   5.752  25.884   4.825 -0.2878  0.0126 -0.0747
13873W        W56889  19.320  14.357   0.712 -0.1811 -0.0463 -0.0628
13874W        W56890  10.477  27.698  29.273 -0.2562 -0.2371  0.2729
13875W        W56891  13.434   2.475   5.929  0.1676  0.1045  0.1060
13876W        W56892   1.405   6.916   8.213 -0.1391 -0.4673  0.0360
13877W        W56893  30.013  20.704  28.840 -0.2839 -0.2963  0.0479
13878W        W56894  18.402   4.933   3.694  0.0315  0.2445 -0.2937
13879W        W56895  20.452  13.496  23.359  0.0635  0.4027  0.2375
13880W        W56896  16.910  18.435   5.320 -0.3016 -0.3614 -0.0263
13881W        W56897  12.335  29.027   2.428  0.1977  0.2836 -0.1660
13882W        W56898  27.046   1.217   3.881 -0.1138 -0.3627 -0.0895
13883W        W56899  16.928  26.564   8.504 -0.3348 -0.0544  0.3223
13884W        W56900  14.080  16.580  19.298 -0.1200  0.2107  0.0437
13885W        W56901  23.460  22.257   5.207  0.0109 -0.1238 -0.0754
13886W        W56902  17.090  28.670   7.464  0.1683  0.1475  0.1438
13887W        W56903  21.902   6.961   8.023  0.0840 -0.2664 -0.1033
13888W        W56904  16.260  30.786  29.319  0.0623  0.2488  0.0846
13889W        W56905  20.667  16.010   2.472 -0.1622 -0.0596  0.0768
13890W        W56906  21.462  14.900   4.181 -0.2919  0.3874  0.2181
13891W        W56907  29.830  20.425  10.912  0.1861 -0.2996  0.0146
13892W        W56908  25.733  21.509   0.588  0.0570 -0.0460  0.1213
13893W        W56909  24.118   9.829   8.487 -0.2851  0.2136  0.0632
13894W        W56910  13.831  18.182  26.038 -0.1450  0.0125 -0.1361
13895W        W56911  23.498  30.739   8.478 -0.0257 -0.0215  0.0404
13896W        W56912  31.284  19.056  20.464  0.1485  0.1699  0.0408
13897W        W56913  29.653  20.584  21.158  0.0347 -0.2180  0.0838
13898W        W56914  26.005  10.684  25.218 -0.6412 -0.0368  0.1702
13899W        W56915  21.561  13.722   5.805 -0.3344 -0.2836  0.1623
13900W        W56916  21.825   9.598  29.029  0.0446  0.1646 -0.2403
13901W        W56917  27.493  18.456   6.663  0.2946 -0.1309  0.1842
13902W        W56918  28.073  24.865  25.711  0.0114  0.0974 -0.1055
13903W        W56919   3.785   0.717   4.743  0.0168 -0.0446  0.0191
13904W        W56920  22.262   7.125   4.095 -0.3288  0.1359 -0.0336
13905W        W56921  18.092   8.080   2.597  0.1344  0.0858  0.1810
13906W        W56922  10.076  30.213   1.666 -0.3576  0.1201 -0.0493
13907W        W56923  25.464  17.635  26.899 -0.0130  0.0426 -0.1325
13908W        W56924  22.975  17.716   3.483 -0.0745  0.0163  0.0001
13909W        W56925  11.987  14.726   7.153  0.0038 -0.3546 -0.2288
13910W        W56926  16.418  22.689   4.243  0.2730 -0.0619  0.0221
13911W        W56927  21.830  18.487  26.494  0.1647 -0.3968  0.1224
13912W        W56928  15.089  26.118   7.073  0.1513 -0.1300 -0.1373
13913W        W56929  10.247   5.008   7.729 -0.0865  0.1750  0.2253
13914W        W56930   9.224  25.311   4.015 -0.2752 -0.3600  0.1621
13915W        W56931  20.094   3.286   3.047 -0.1181 -0.1506  0.0497
13916W        W56932  12.590   8.868  17.330 -0.1040  0.3477  0.1646
13917W        W56933  21.971  18.846  24.053 -0.0300  0.3693 -0.0392
13918W        W56934   8.275  12.154   0.798 -0.0954  0.1927  0.1455
13919W        W56935   0.219   4.887  28.650 -0.1542  0.1328 -0.1195
13920W        W56936  12.413  15.934  27.890  0.2066  0.1742  0.0493
13921W        W56937  18.981  19.181   4.850 -0.0723 -0.3868  0.2197
13922W        W56938  11.654   5.186  15.080 -0.0212 -0.1330  0.1595
13923W        W56939  14.818  17.511  25.299 -0.1845 -0.3178  0.0192
13924W        W56940   8.218  23.790  28.129  0.4723 -0.2914 -0.2148
13925W        W56941  21.124  12.538  26.549  0.2306  0.0161  0.1000
13926W        W56942  26.847  16.869   0.908 -0.1738 -0.0671  0.0530
13927W        W56943  31.576  16.647   1.381 -0.2871  0.4754 -0.3282
13928W        W56944  16.802  10.073   7.308 -0.0514  0.4953 -0.0071
13929W        W56945  18.819  15.149   7.100  0.1018  0.2878  0.4794
13930W        W56946  21.541  24.009  21.011 -0.1042  0.1338 -0.1411
13931W        W56947  11.930  25.994   4.241  0.2769 -0.2240 -0.0124
13932W        W56948  21.900   6.950   8.843 -0.0528 -0.0981 -0.2093
13933W        W56949  13.240  21.066  27.186  0.4813  0.0895  0.1111
13934W        W56950   8.449  34.358   8.219  0.4038  0.2491  0.0486
13935W        W56951  17.634  16.924  25.279  0.0762 -0.3178 -0.0300
13936W        W56952  15.768   2.794   7.223  0.3314  0.1435 -0.3403
13937W        W56953  21.922  32.066  10.658  0.0721  0.2137 -0.0995
13938W        W56954  30.460  27.129   9.812  0.0361  0.1891 -0.1748
13939W        W56955  19.271  10.588   7.341  0.0618 -0.0868 -0.1150
13940W        W56956  23.837  21.358  21.863  0.1892 -0.2315 -0.1459
13941W        W56957  19.769  16.390   0.063  0.1019 -0.0281 -0.0519
13942W        W56958   7.823  30.904   3.922 -0.4384  0.3279 -0.0507
13943W        W56959  23.763  29.872  28.916 -0.0199  0.0518  0.1409
13944W        W56960  32.930   4.093   3.685 -0.1123 -0.0312  0.1170
13945W        W56961  32.044  15.107   5.204 -0.1264 -0.3363  0.0827
13946W        W56962  21.020  28.705   6.112 -0.2455  0.1666 -0.0797
13947W        W56963  13.189  10.104   0.968  0.1194 -0.1180 -0.2013
13948W        W56964  20.076  24.577   6.455 -0.1274 -0.1492  0.0126
13949W        W56965  17.520  19.816   2.551  0.0128 -0.2197 -0.1142
13950W        W56966  21.032  19.392   6.122  0.3972  0.1042 -0.2580
13951W        W56967  21.899  19.829  26.224 -0.0749 -0.0401  0.1583
13952W        W56968  23.772  12.605  22.987 -0.0633 -0.4434 -0.0662
13953W        W56969  33.225   3.973   5.510 -0.0994 -0.0238  0.3650
13954W        W56970   3.308   5.803  25.737  0.1240 -0.0087  0.0435
13955W        W56971  28.864   0.585  28.095 -0.1461  0.0729  0.0709
13956W        W56972  20.748   7.195   3.418  0.2830  0.1702 -0.1435
13957W        W56973  12.986   1.746   2.011  0.0300 -0.0213 -0.4417
13958W        W56974  20.014  15.273  29.260 -0.2686  0.0095 -0.2036
13959W        W56975  25.876  34.491  10.123 -0.0123  0.3612  0.2298
13960W        W56976  26.324  22.957   7.794 -0.0274  0.1193  0.1455
13961W        W56977  17.986  17.091  27.756 -0.0284 -0.0662  0.0829
13962W        W56978   8.857  13.255   4.879  0.1383 -0.2067 -0.2606
13963W        W56979  22.494   3.881   9.261  0.1455  0.3119  0.0635
13964W        W56980  16.282  32.619  25.700 -0.0194  0.3907  0.0813
13965W        W56981  15.998  24.070   1.379 -0.1330 -0.1467 -0.1509
13966W        W56982  20.939  15.514   7.222  0.2071 -0.3927  0.3382
13967W        W56983  30.445  32.378   8.828 -0.4381  0.7216  0.3409
13968W        W56984  13.002  19.944  28.297 -0.1127 -0.0436  0.3061
13969W        W56985  34.094  10.716   5.696 -0.2158 -0.0696 -0.2134
13970W        W56986  24.568  17.965   7.648 -0.0117  0.1744 -0.1926
13971W        W56987  33.376   8.146   8.698  0.1349  0.0449  0.0832
13972W        W56988  23.594   5.162   5.357  0.0290 -0.3259  0.0393
13973W        W56989  10.446   0.016   6.646  0.0246  0.2828  0.0639
13974W        W56990  13.279  18.046   5.205 -0.0068 -0.1274 -0.2528
13975W        W56991  29.525  15.709   5.266 -0.2726 -0.1196 -0.0829
13976W        W56992  14.896  17.108   2.406  0.4575  0.4220 -0.0539
13977W        W56993   3.392  23.544  19.267 -0.1035  0.1198 -0.1982
13978W        W56994  20.882  14.698   2.106  0.1798  0.1351  0.1581
13979W        W56995  16.624  13.519   2.206 -0.1500  0.0144  0.1087
13980W        W56996  19.068  16.758   3.542  0.0538  0.1594  0.1799
13981W        W56997  16.989  23.759  27.166 -0.2626  0.2018  0.0444
13982W        W56998  30.023   4.258   5.977 -0.1488  0.2981  0.4042
13983W        W56999  20.851  34.215   6.436 -0.1343  0.0221 -0.0431
13984W        W57000   0.015  16.272   6.828 -0.1195 -0.2117 -0.2179
13985W        W57001  30.806  11.119   5.927 -0.0521  0.2316  0.0053
13986W        W57002  20.634  19.175   9.427  0.1112 -0.1189  0.1788
13987W        W57003  18.860  29.647   1.011  0.0807 -0.2744 -0.0601
13988W        W57004   7.957  11.047  21.037  0.1727 -0.3682  0.0265
13989W        W57005  20.865  32.343   8.896  0.0995  0.0528  0.1878
13990W        W57006  21.013  12.330   4.739 -0.3354 -0.0892  0.0613
13991W        W57007   2.064   8.861   4.554  0.1044  0.2172 -0.0368
13992W        W57008  25.872  19.734   7.503  0.3479 -0.1463  0.4475
13993W        W57009  23.494  14.601   7.204  0.4568 -0.0575  0.1243
13994W        W57010  26.173  13.414   8.280 -0.1352 -0.1385 -0.3281
13995W        W57011   6.828  16.121   7.145  0.1979  0.0032 -0.1560
13996W        W57012   5.863  18.894   7.579 -0.1088  0.1273  0.0077
13997W        W57013  25.733  19.394   8.943  0.1320  0.0781 -0.4453
13998W        W57014  13.648  23.667   7.898 -0.1707 -0.4004 -0.3371
13999W        W57015  19.872  14.340   8.505  0.0113  0.0922  0.0061
14000W        W57016  20.782  21.297   4.504 -0.0326 -0.1387 -0.0928
14001W        W57017  17.768  25.249  21.487 -0.1038 -0.1059 -0.0060
14002W        W57018   8.606  18.837   8.579  0.0139 -0.0645 -0.2063
14003W        W57019   6.741  30.362   5.673 -0.1105  0.2895 -0.1392
14004W        W57020  33.764  11.449  24.191  0.2271  0.0468  0.2363
14005W        W57021  33.618  11.006   0.234  0.0945  0.0273  0.4678
14006W        W57022  25.715  14.344  28.750 -0.3887  0.3987 -0.0128
14007W        W57023  26.539  15.226  27.367 -0.0334 -0.0590  0.0411
14008W        W57024  30.818  22.595   9.969 -0.0805  0.0991 -0.1275
14009W        W57025   1.499  18.908   6.627  0.1256 -0.0454 -0.0685
14010W        W57026  33.935  23.036   7.499 -0.0049  0.0967  0.0177
14011W        W57027  23.162  13.105   3.807 -0.1526  0.1179 -0.0260
14012W        W57028  18.621  18.703   5.665 -0.1974  0.1240  0.1223
14013W        W57029  24.705  16.587  23.837 -0.1456  0.0647 -0.3726
14014W        W57030  19.134  21.042   8.182 -0.1360  0.0567  0.3115
14015W        W57031  14.315  24.863   6.542 -0.2303  0.1281 -0.2810
14016W        W57032  33.397  15.753  16.923 -0.2107 -0.1267  0.0211
14017W        W57033  19.370  17.766  26.555  0.1571 -0.0254  0.1507
14018W        W57034   1.821  11.058   5.673 -0.5127 -0.2610  0.2649
14019W        W57035   4.166  19.073   0.232  0.3065  0.4017  0.1417
14020W        W57036  29.673  20.324   9.620  0.4430 -0.1472 -0.0464
14021W        W57037  13.415  19.354   5.436  0.1477 -0.0222 -0.3678
14022W        W57038  33.810  22.994   0.582  0.1288  0.1164  0.1494
14023W        W57039  19.740  23.820   8.551  0.0550  0.2422 -0.1005
14024W        W57040   2.453   4.356   2.584 -0.1486 -0.0532  0.2054
14025W        W57041  27.544  32.915   9.379 -0.1670 -0.0588 -0.1262
14026W        W57042   9.680  31.570  27.031  0.0109  0.3095 -0.2340
14027W        W57043  26.840  18.009   9.320  0.0020 -0.1679 -0.1376
14028W        W57044   7.704   1.778  24.361 -0.1806 -0.0126  0.0320
14029W        W57045  22.672  10.884   4.557 -0.0844  0.0676 -0.0564
14030W        W57046  16.927  10.089   8.474 -0.0051  0.0225  0.0002
14031W        W57047   9.936  10.075   7.823 -0.0655  0.2813  0.2357
14032W        W57048  18.678   8.808   2.000  0.0471  0.0652 -0.2134
14033W        W57049  23.325  24.204   6.300 -0.0104 -0.0115 -0.2480
14034W        W57050  24.940  14.431  25.199 -0.3190  0.2146 -0.0541
14035W        W57051  30.988   1.799   0.251 -0.0993 -0.6683 -0.4845
14036W        W57052  29.171  30.047   9.704 -0.0767  0.1700 -0.1144
14037W        W57053  15.691  16.186  28.741  0.1935  0.0981  0.1859
14038W        W57054  13.907  26.865   3.946 -0.1322 -0.0323  0.1395
14039W        W57055   7.150  12.636   6.109  0.1484 -0.3964 -0.1910
14040W        W57056  19.622  17.225  28.684  0.2052 -0.0106  0.3045
14041W        W57057   9.813  13.749  19.213 -0.2826 -0.2255  0.0147
14042W        W57058  21.848  21.834  16.117  0.0495 -0.1932  0.5973
14043W        W57059   9.678  21.212  29.286  0.0301 -0.3827  0.3642
14044W        W57060  15.525  16.357   7.497  0.2805 -0.2810 -0.0184
14045W        W57061  13.070  15.512   0.900 -0.3457  0.0666 -0.3176
14046W        W57062  20.208   5.213   6.553 -0.2218 -0.2979  0.2836
14047W        W57063  32.551  31.947   7.058 -0.2805  0.0920  0.1957
14048W        W57064  15.369  17.927   3.950  0.0271 -0.1203  0.0384
14049W        W57065  17.319  28.667   2.365  0.0026  0.1129  0.0124
14050W        W57066   3.070  10.336  23.753 -0.0251  0.0945 -0.0381
14051W        W57067   7.779  14.791   9.699 -0.1128 -0.0820  0.1590
14052W        W57068  10.200  26.146  18.936 -0.1547  0.0469 -0.2871
14053W        W57069  22.639  31.972  21.118 -0.2904 -0.0312  0.0315
14054W        W57070  11.705  33.519   9.119 -0.3881 -0.4307  0.2671
14055W        W57071  30.819  22.122   3.565 -0.0650 -0.2704  0.1083
14056W        W57072  26.871  24.057   7.478 -0.0780  0.3996 -0.0469
14057W        W57073   4.594  15.111   6.903 -0.1029 -0.0905  0.0054
14058W        W57074  18.681  26.987  22.989 -0.0312  0.2133 -0.1578
14059W        W57075  26.439  13.517  27.294  0.0323  0.3394  0.2325
14060W        W57076  18.214  13.144   1.599 -0.1345  0.1993 -0.1683
14061W        W57077  18.015  24.697  27.490  0.3470  0.0755  0.0275
14062W        W57078  10.816  30.585  29.212 -0.1110 -0.1288 -0.1344
14063W        W57079  13.688  28.783   9.025  0.2136  0.0242 -0.1069
14064W        W57080  16.308  14.793  25.045 -0.0321 -0.0179 -0.2357
14065W        W57081   6.403  15.348  12.974 -0.1300  0.0302  0.2575
14066W        W57082  26.612   8.403   2.865 -0.0697 -0.2121  0.1937
14067W        W57083   1.192  18.587   2.771 -0.1145 -0.1146 -0.1190
14068W        W57084  17.188  15.542   6.961 -0.2272 -0.0501  0.2947
14069W        W57085   5.602  20.526  27.820  0.3111  0.2046  0.2324
14070W        W57086   3.831  24.886   8.882  0.3754  0.0755 -0.0061
14071W        W57087  18.839  14.065   6.169 -0.1370  0.0349 -0.2258
14072W        W57088  12.840  33.309  19.739  0.2160  0.1532 -0.0115
14073W        W57089  16.948  10.084   1.213 -0.2931  0.2328  0.1461
14074W        W57090  15.940   8.329  29.069 -0.2748 -0.1448  0.3684
14075W        W57091   8.411  27.978   0.008 -0.1445 -0.2801  0.2784
14076W        W57092  28.047  16.184  27.894 -0.3841 -0.1539  0.0300
14077W        W57093  17.100  14.246  14.939  0.2342  0.0956 -0.0507
14078W        W57094  16.217   7.003  24.143 -0.2030 -0.2244 -0.0090
14079W        W57095  28.558   3.428   1.771  0.0233  0.1171  0.2358
14080W        W57096   5.409  20.150   8.466 -0.0058 -0.1903  0.0066
14081W        W57097  12.680  14.260   7.501  0.0574 -0.0073 -0.0472
14082W        W57098   5.144  22.955   3.266  0.0310 -0.1373  0.4518
14083W        W57099  16.001  24.921   9.095  0.1954 -0.1617  0.0984
14084W        W57100  11.929  22.399  23.242  0.0046  0.2953 -0.1454
14085W        W57101  20.376  22.265  13.293 -0.1844  0.2847 -0.2909
14086W        W57102  20.461  31.201  10.091 -0.1540 -0.0714  0.2343
14087W        W57103  13.966  18.440  20.874  0.0157  0.0751 -0.2083
14088W        W57104  33.080  30.852  22.239  0.3218  0.0141  0.0522
14089W        W57105  14.805  33.206   6.272  0.3073 -0.2865 -0.2399
14090W        W57106   6.099   2.211  22.481 -0.1181  0.3006  0.1952
14091W        W57107  15.395  30.363   3.982  0.2359 -0.2447 -0.1854
14092W        W57108  14.167  21.297  26.477 -0.1097 -0.1445 -0.0089
14093W        W57109  10.168  31.084  20.640 -0.0276  0.5602  0.1474
14094W        W57110  16.786  34.628  20.610 -0.2270  0.0042 -0.0490
14095W        W57111  24.670  22.709   6.910 -0.0500  0.0225  0.0024
14096W        W57112  21.154  20.481  22.034  0.3261 -0.2723  0.0288
14097W        W57113  17.723  14.379   2.210 -0.3454  0.1071 -0.3138
14098W        W57114  19.948  12.464   8.140 -0.2622  0.2842 -0.0921
14099W        W57115  19.078  34.220  28.143  0.1955 -0.3478  0.1265
14100W        W57116  19.548  18.968   2.794 -0.1603 -0.2560 -0.0107
14101W        W57117  12.164  23.364  24.329 -0.2161  0.0799 -0.2048
14102W        W57118  24.722  28.087  19.851 -0.0168 -0.1538 -0.1356
14103W        W57119   1.944  22.924   2.997  0.3884 -0.0481 -0.1177
14104W        W57120  26.435  24.135  16.251  0.1563 -0.0189  0.2695
14105W        W57121  28.900  25.241   8.918  0.0020 -0.1613 -0.3127
14106W        W57122  20.219  22.048  23.093 -0.1633 -0.0694 -0.0673
14107W        W57123  33.931  22.110  26.023 -0.0816 -0.0949 -0.4202
14108W        W57124   3.674   2.995   8.799 -0.1108  0.0825 -0.2897
14109W        W57125  14.429  32.260  10.051  0.0946  0.2027 -0.5172
14110W        W57126  16.936  13.485  23.595 -0.2540  0.4930  0.2182
14111W        W57127  30.661   0.517  25.083 -0.2969 -0.2538 -0.0737
14112W        W57128  18.629  24.689   4.398 -0.2275 -0.0482 -0.0365
14113W        W57129  23.797  16.466  22.994  0.0170  0.2254  0.3227
14114W        W57130  12.182  31.131   5.531  0.4001  0.2309  0.0480
14115W        W57131  29.897   2.181  25.404 -0.0587  0.0778 -0.2116
14116W        W57132  29.953   9.367   6.140 -0.2373  0.0109  0.0855
14117W        W57133  10.899   7.169   7.798  0.2722 -0.0608  0.1259
14118W        W57134  26.359  21.250   7.502  0.3441  0.0901 -0.2685
14119W        W57135  22.787  24.730   9.001  0.0937 -0.1100  0.2164
14120W        W57136  18.916  26.926   6.557 -0.0428 -0.3530 -0.1464
14121W        W57137   2.207  12.835   8.499  0.1009 -0.2651  0.1601
14122W        W57138  23.480  14.047   1.572 -0.1432  0.2006  0.2613
14123W        W57139   3.658  20.589   8.715 -0.0558 -0.1981  0.0352
14124W        W57140  25.661  25.235  16.581  0.0149  0.1306  0.1489
14125W        W57141  28.441  25.808   6.063 -0.1143  0.2264  0.0048
14126W        W57142  33.363  14.842   1.157  0.1394  0.0019  0.2901
14127W        W57143  10.457  17.805   3.311 -0.2372  0.1148  0.0567
14128W        W57144  12.370  10.734   4.811 -0.1558  0.2577  0.0764
14129W        W57145  26.322  10.787  19.978 -0.0613 -0.0001 -0.0921
14130W        W57146  23.240  16.415  19.400 -0.0183  0.0647  0.0859
14131W        W57147   6.983  16.026  23.842 -0.0072 -0.1833  0.1441
14132W        W57148  13.716  30.647   2.552  0.1239 -0.0065 -0.0910
14133W        W57149  19.235  19.449  20.887  0.0452 -0.0254 -0.1453
14134W        W57150  30.130  30.732   0.743  0.0830 -0.2731  0.2461
14135W        W57151  16.234  21.825  27.820 -0.1006 -0.1255 -0.1017
14136W        W57152  28.313   0.883   5.255 -0.0321 -0.0094 -0.0635
14137W        W57153  26.901  20.450   0.344  0.1257 -0.2831  0.3198
14138W        W57154  21.743  20.715   9.381 -0.4344 -0.1079 -0.2724
14139W        W57155  16.861  34.207   6.333 -0.0323  0.1952 -0.1210
14140W        W57156  17.385  18.050   2.956  0.2267 -0.0772 -0.4401
14141W        W57157  28.733  30.253   9.742  0.1711 -0.0143  0.3190
14142W        W57158  20.565  29.778   7.952  0.0848  0.0508  0.2298
14143W        W57159  14.742   8.916   7.244 -0.1117 -0.0131  0.0929
14144W        W57160   9.354  19.351  14.528  0.0204  0.0472  0.1790
14145W        W57161  19.102  19.212   8.308  0.1072  0.2190  0.0441
14146W        W57162  18.098  29.931  15.587 -0.3267 -0.2013  0.4242
14147W        W57163  16.522  30.969  28.547  0.2855 -0.4456 -0.1958
14148W        W57164   6.759   5.108   6.905 -0.1110  0.2267 -0.0760
14149W        W57165  13.551  26.466  23.651 -0.0036 -0.0244  0.0561
14150W        W57166  19.288  27.715  23.143 -0.0083 -0.3508 -0.0415
14151W        W57167   5.198   0.382  29.311  0.2130 -0.0173 -0.2247
14152W        W57168  29.865  25.321   9.459  0.2148  0.2202  0.0127
14153W        W57169  18.341  19.120   2.311  0.0175  0.2191 -0.3052
14154W        W57170  11.600  17.229   5.276 -0.0919  0.1783  0.0284
14155W        W57171  22.914  23.028   6.333  0.1944  0.1540  0.0727
14156W        W57172  31.025   1.075   4.287  0.3916 -0.1670 -0.0710
14157W        W57173   5.104  23.213  28.599 -0.0918  0.0768  0.4011
14158W        W57174  10.965  17.525  28.446 -0.2118 -0.0331  0.0564
14159W        W57175  14.427  32.650   8.778  0.0689 -0.2238 -0.1624
14160W        W57176  21.283   8.094  29.050  0.1059 -0.2464 -0.0849
14161W        W57177  19.627  15.558   6.247 -0.2070  0.0083 -0.2347
14162W        W57178  18.004  23.873  28.656 -0.3119  0.0391  0.0641
14163W        W57179   1.536  18.531   7.316 -0.0883  0.3536 -0.0117
14164W        W57180  26.803  15.676  23.683 -0.2245  0.0415  0.1310
14165W        W57181  20.696  29.775   7.077  0.0535 -0.3530  0.0549
14166W        W57182  22.907  22.124   5.196 -0.0660  0.0079 -0.1876
14167W        W57183  17.159  28.451  28.943  0.0538  0.2651 -0.0236
14168W        W57184  31.155   9.584   0.482  0.1153  0.0573  0.2434
14169W        W57185  27.351  14.898   1.831  0.1074 -0.2218  0.1195
14170W        W57186   7.847  10.923   7.163  0.2268 -0.0714  0.2186
14171W        W57187  20.511  15.694   5.388 -0.2844  0.0793  0.0481
14172W        W57188  24.824  15.530  20.179  0.0315 -0.4473  0.2774
14173W        W57189  18.452  11.634   7.163 -0.0264 -0.0583 -0.0300
14174W        W57190  13.299  25.844  27.234 -0.0765 -0.0561  0.5905
14175W        W57191  19.462  30.482   8.483 -0.0065 -0.0107  0.0936
14176W        W57192   6.842  27.055  21.278  0.0535 -0.0278 -0.1637
14177W        W57193  19.649   0.903   2.106 -0.1370  0.0409  0.2608
14178W        W57194   6.787  25.659   9.081 -0.0183 -0.1792  0.1134
14179W        W57195  15.736  21.708   5.477 -0.1499 -0.1414 -0.0468
14180W        W57196  18.660  26.527   7.524 -0.0808  0.1940 -0.1671
14181W        W57197  27.693  12.084   8.482  0.1225 -0.3961 -0.1941
14182W        W57198  13.373  11.118   8.335  0.2228  0.3187  0.1269
14183W        W57199  24.061  25.471   2.481  0.0284 -0.1688 -0.1004
14184W        W57200  17.701   0.827  21.694  0.3163  0.2493 -0.0050
14185W        W57201  16.672   5.933   5.693 -0.0615 -0.0205 -0.1340
14186W        W57202   7.415  17.054  27.310 -0.1307 -0.2790 -0.1510
14187W        W57203   3.102  10.107  25.980  0.2613 -0.1801  0.2340
14188W        W57204  27.260  15.090   6.451 -0.3563 -0.0157 -0.0382
14189W        W57205  14.235   0.623   7.354  0.2685 -0.1948  0.1135
14190W        W57206  15.387  19.739   6.719 -0.1298 -0.1641  0.2687
14191W        W57207  10.815  22.896   6.783 -0.1463 -0.1561  0.0693
14192W        W57208  10.027  25.748   4.396 -0.1817  0.0044 -0.2895
14193W        W57209  22.282  19.767  22.911 -0.0603 -0.3519  0.1770
14194W        W57210  16.510  23.123   1.141  0.0016 -0.0380  0.3007
14195W        W57211  10.494  19.967  22.789 -0.1852 -0.0982 -0.1242
14196W        W57212  29.443  15.392   9.131 -0.1362  0.1021  0.3985
14197W        W57213  30.711   0.171  28.072 -0.0559 -0.1940  0.1466
14198W        W57214  20.851  19.731   8.503  0.0400 -0.2183 -0.1410
14199W        W57215  19.519   6.255  28.870  0.0951  0.1253  0.3167
14200W        W57216  28.236  12.943   8.412  0.0336  0.2189  0.2415
14201W        W57217  27.015   9.930   3.724 -0.4439  0.3721  0.3006
14202W        W57218  12.108  29.447  13.970  0.1253  0.1405  0.0915
14203W        W57219  16.132   5.350   8.162  0.0995 -0.1969 -0.0455
14204W        W57220   8.766  12.503   6.318 -0.4458 -0.0253 -0.2084
14205W        W57221  27.086   1.949   8.323  0.2018 -0.0642 -0.3557
14206W        W57222  13.823  18.909  12.575 -0.1013 -0.1482 -0.0508
14207W        W57223  16.229   1.772   8.738  0.0507  0.3670 -0.1592
14208W        W57224  21.246   3.922   5.283 -0.1115  0.1965  0.2341
14209W        W57225  11.103  13.494  19.177  0.2103 -0.0649 -0.0642
14210W        W57226  21.785  17.970  26.942  0.0794  0.3190  0.0117
14211W        W57227  12.028  31.082   8.572 -0.0952  0.1291 -0.0140
14212W        W57228  24.169  18.137   8.344  0.1175  0.0310 -0.1638
14213W        W57229  19.704   7.507  19.306 -0.1717 -0.1222 -0.0804
14214W        W57230   1.391  22.089   7.108  0.0791 -0.2161  0.1359
14215W        W57231  18.170   2.699   6.039  0.0444  0.2313  0.1177
14216W        W57232   9.195  15.425  17.961 -0.0906 -0.2436  0.1718
14217W        W57233  12.459  19.115  28.027 -0.2189 -0.0247 -0.0043
14218W        W57234  28.749  14.429   9.724  0.0202 -0.3792  0.0801
14219W        W57235  26.753  25.594  20.952 -0.0803 -0.0569 -0.4711
14220W        W57236  23.692  22.272   3.802  0.0711 -0.1016 -0.3426
14221W        W57237  19.803  11.198  23.831 -0.0724 -0.1997  0.3871
14222W        W57238  25.360  13.187   1.950 -0.0677  0.1747  0.1521
14223W        W57239  17.174  14.784  19.643 -0.1888 -0.1021 -0.1253
14224W        W57240  30.320  25.254   2.051  0.2709 -0.1266 -0.1935
14225W        W57241  22.894  15.474   7.257 -0.0595 -0.1797 -0.3224
14226W        W57242  15.825  15.741   3.526  0.0289  0.1716  0.3203
14227W        W57243  19.621  13.462  25.980  0.3389 -0.1878 -0.2318
14228W        W57244  13.303  22.243   2.656  0.0513 -0.1510 -0.2812
14229W        W57245  30.837  18.850  25.206  0.0352 -0.1194 -0.2830
14230W        W57246  11.925  14.520   8.643  0.4132  0.1397  0.0318
14231W        W57247   7.455  16.824  18.866  0.1717 -0.1455  0.0214
14232W        W57248  22.353   3.826  24.921 -0.1111 -0.2464  0.1643
14233W        W57249  22.454  11.357   1.200 -0.0413 -0.2225 -0.2813
14234W        W57250  30.229  11.836   1.194 -0.0378 -0.0410 -0.2140
14235W        W57251  21.066   1.228  27.044 -0.0717  0.2216 -0.0085
14236W        W57252   5.366  30.499  28.494 -0.0034  0.0236 -0.0410
14237W        W57253  12.206  19.357  24.246 -0.1649 -0.2093 -0.2107
14238W        W57254  17.857   4.580  26.737  0.0589 -0.1198 -0.1682
14239W        W57255  33.372  17.615   7.608  0.2318  0.1663 -0.1399
14240W        W57256  25.551  22.861  28.571  0.2383  0.0219  0.0374
14241W        W57257  26.503  23.609   2.919 -0.1429 -0.0137  0.1909
14242W        W57258  13.179  23.815  23.074 -0.0072  0.0370 -0.2002
14243W        W57259   3.107  15.627   8.429  0.3224  0.3323 -0.6577
14244W        W57260   4.112  22.120  25.174  0.1404  0.3292  0.0337
14245W        W57261  12.619  26.963  23.362  0.0137  0.0215  0.1650
14246W        W57262  17.747  23.507   8.053  0.1575 -0.1087 -0.3521
14247W        W57263  21.739  11.808  24.793 -0.1001 -0.3179  0.0320
14248W        W57264   5.787  13.231   4.211  0.3572  0.0308  0.2535
14249W        W57265  34.523   9.691   0.664 -0.2981 -0.0066 -0.1487
14250W        W57266  32.875  23.984   3.215 -0.5808  0.4320 -0.3180
14251W        W57267  26.012  31.349   0.106  0.2953 -0.2717 -0.0439
14252W        W57268  15.883  33.402   4.679 -0.0048  0.0887 -0.0677
14253W        W57269   6.111   0.366  28.106  0.1020 -0.2796  0.0507
14254W        W57270  30.632  25.660   2.240  0.0382  0.2765  0.1018
14255W        W57271  22.861  13.484   2.639 -0.0061 -0.2208  0.1733
14256W        W57272  15.969  26.657   8.957 -0.1354 -0.0417 -0.2172
14257W        W57273  13.992  24.674   6.837 -0.0918  0.0253  0.1629
14258W        W57274  19.360  31.208   4.428 -0.1591 -0.1666  0.0319
14259W        W57275  11.721  26.950  22.154  0.5001  0.0660  0.0284
14260W        W57276  32.634  16.150   4.463 -0.2561  0.1056 -0.0603
14261W        W57277  22.438  14.064  21.809 -0.2825 -0.0242 -0.1159
14262W        W57278  24.349  34.125   9.255 -0.0548  0.1736  0.0288
14263W        W57279   4.367  22.483  19.158 -0.2652 -0.0540 -0.0518
14264W        W57280  30.791  12.174  18.335  0.0138 -0.1627  0.3554
14265W        W57281  19.609  18.423  24.663  0.2242 -0.3551  0.2798
14266W        W57282  12.447  19.577  28.389  0.0746 -0.0975 -0.0954
14267W        W57283  22.768  15.878   6.932 -0.1290 -0.0555  0.0610
14268W        W57284  26.876  23.402  19.540  0.1581 -0.0637 -0.0124
14269W        W57285  22.245  19.544   6.641 -0.0883  0.1079 -0.0628
14270W        W57286  10.937  16.531  21.586 -0.0594 -0.0685 -0.0825
14271W        W57287  12.904   9.924  26.083 -0.1695  0.1426 -0.3367
14272W        W57288  22.300  20.303   1.869 -0.1629 -0.1077  0.1654
14273W        W57289  26.771  14.900   1.029 -0.0966  0.1773 -0.1078
14274W        W57290  27.444  18.094   0.835 -0.0422  0.1360 -0.0667
14275W        W57291   6.209  17.859   1.906 -0.0083  0.0409  0.1598
14276W        W57292  12.308  17.931  20.318 -0.1108 -0.0687 -0.0839
14277W        W57293  14.558   5.821   4.534 -0.0850 -0.1389 -0.3240
14278W        W57294  27.624  23.694  28.932  0.1341  0.2999  0.2350
14279W        W57295   8.393   4.984   5.233  0.2264  0.2427  0.0498
14280W        W57296   8.056   0.238   1.836  0.0926  0.4100  0.3574
14281W        W57297   3.557  31.994  21.700  0.2192  0.1629  0.0547
14282W        W57298   3.412  29.935   4.504 -0.4612 -0.2585  0.2487
14283W        W57299  14.988  12.089   1.201 -0.1556 -0.1101  0.0288
14284W        W57300   8.863  19.512   8.040 -0.0903 -0.1863 -0.0942
14285W        W57301   9.090  18.856   8.927 -0.0125 -0.1531 -0.0023
14286W        W57302  23.373  23.958   5.236  0.3343 -0.1317 -0.0431
14287W        W57303  23.804  12.292  25.217  0.0734 -0.0063 -0.2079
14288W        W57304  18.335  29.685   9.399  0.0300 -0.1169  0.1492
14289W        W57305   1.219  27.037   9.002 -0.0091 -0.0619  0.0684
14290W        W57306  27.888  10.363   0.812 -0.2328  0.0714  0.0376
14291W        W57307  23.291  17.011   2.971 -0.2954 -0.1570  0.3271
14292W        W57308  25.725  30.843  10.874  0.0091 -0.0436  0.0295
14293W        W57309  16.358  32.238   3.514  0.0701 -0.0651 -0.4089
14294W        W57310  19.876   3.772  26.426 -0.1138 -0.1652  0.1474
14295W        W57311   9.846  22.341   1.101  0.1311  0.1022 -0.3033
14296W        W57312  10.257  20.361  24.630 -0.0953 -0.0547 -0.1439
14297W        W57313  30.736  31.591   6.445 -0.2009  0.0489 -0.2386
14298W        W57314   4.726  21.304   5.947  0.0941 -0.0158 -0.2107
14299W        W57315  31.705  19.850  10.436  0.0683 -0.2135 -0.0329
14300W        W57316   1.411  31.555  28.653  0.0997  0.1595  0.1173
14301W        W57317  27.559  26.153   3.547 -0.2287  0.3105 -0.0405
14302W        W57318   6.605   6.856  27.908  0.0086 -0.0005  0.1686
14303W        W57319   2.556  19.683   6.008 -0.0911  0.0695  0.3732
14304W        W57320  21.502  24.203   3.565 -0.1677 -0.1316  0.0603
14305W        W57321  18.273  22.523   9.094 -0.0345  0.0333  0.1283
14306W        W57322  17.001  25.686   5.286  0.2131 -0.0569  0.1205
14307W        W57323  13.972  12.496   3.327 -0.1927  0.0278  0.0364
14308W        W57324  13.106  21.255  22.143  0.2448  0.0589 -0.2560
14309W        W57325  33.558  27.343   9.692 -0.0625  0.1100 -0.3655
14310W        W57326  32.373   3.410  23.094 -0.0674  0.4286 -0.2528
14311W        W57327  25.094  13.545   8.176  0.3273 -0.1675 -0.2899
14312W        W57328   6.591  23.886   4.093  0.0603  0.1742 -0.1789
14313W        W57329  26.202   0.255  23.046 -0.1523  0.0433 -0.5030
14314W        W57330  25.413  14.669   0.139 -0.4053 -0.0969  0.2228
14315W        W57331  25.545  17.731  25.340 -0.3049 -0.1454  0.0601
14316W        W57332   8.844  26.943  21.302 -0.3859 -0.0247 -0.0519
14317W        W57333  22.010   3.713   9.198  0.3255  0.2357 -0.2130
14318W        W57334   7.136  21.537  14.965  0.2115 -0.0602  0.3042
14319W        W57335  16.513  21.388   6.470 -0.0057  0.1619  0.0093
14320W        W57336  21.035  23.519   8.042  0.0761 -0.3156 -0.2292
14321W        W57337  24.364  28.122  29.131 -0.1804 -0.0160 -0.2328
14322W        W57338  16.980  22.165   8.629  0.0211 -0.2085 -0.3187
14323W        W57339  19.362  13.411  28.247 -0.3120  0.1187  0.0511
14324W        W57340  12.161   8.773  13.804 -0.0714 -0.2402  0.0542
14325W        W57341  33.676  11.261   7.771  0.0884 -0.0522  0.1627
14326W        W57342  14.437   0.998   6.736 -0.0503 -0.1539  0.2308
14327W        W57343  20.349  25.008  19.794  0.1034 -0.0120  0.0918
14328W        W57344   9.585   0.888   0.600  0.2373 -0.0346  0.1459
14329W        W57345  30.378  26.090   9.878  0.0827  0.3262 -0.2187
14330W        W57346  25.171  12.275  16.981  0.1898 -0.1848 -0.4416
14331W        W57347  11.961  23.541   8.397 -0.3058 -0.1848  0.3601
14332W        W57348  26.532  15.007   6.974 -0.0391 -0.0065  0.1211
14333W        W57349  20.260  28.080   8.556  0.1387 -0.0093 -0.3107
14334W        W57350  27.054  29.537   7.372 -0.3814 -0.1199 -0.1066
14335W        W57351  25.458  21.032  26.872  0.2813 -0.2561  0.3076
14336W        W57352  17.823  22.128   0.355 -0.0542 -0.0005 -0.1017
14337W        W57353  17.043  14.008   5.813  0.2806 -0.1075  0.1608
14338W        W57354  11.096  33.587   5.448  0.0727  0.1924 -0.2539
14339W        W57355  18.321  21.836   5.444 -0.0597  0.1044  0.1941
14340W        W57356  23.754  10.774  17.774  0.0662  0.5684 -0.2923
14341W        W57357  27.572  18.641   7.683  0.2550 -0.2394  0.0166
14342W        W57358  19.994   4.974  15.905 -0.1728 -0.1812 -0.1346
14343W        W57359  24.888  27.854  28.596  0.2846  0.1196  0.5742
14344W        W57360  20.649  16.319  13.382  0.0120 -0.0852 -0.3074
14345W        W57361  30.132  27.709   4.125  0.0626  0.1174  0.1372
14346W        W57362   1.726  14.281   8.440 -0.1732  0.1717 -0.1979
14347W        W57363  16.826  20.909  15.576 -0.1345 -0.0923 -0.1038
14348W        W57364  28.727  15.396   8.019  0.2331  0.1576  0.0274
14349W        W57365  14.218  20.194   0.546  0.2567  0.1073 -0.0425
14350W        W57366  28.118  12.031   0.506  0.1480  0.3028 -0.0111
14351W        W57367   6.098  20.415  19.228  0.1159  0.2853  0.1781
14352W        W57368  31.672   4.528  19.094 -0.0143 -0.1884  0.0968
14353W        W57369  18.844  20.179   7.155  0.0935 -0.1611 -0.1250
14354W        W57370  16.627  24.408   5.688 -0.0804  0.1677  0.2854
14355W        W57371  28.321   7.453   2.137  0.1046  0.0385  0.2334
14356W        W57372  25.604  23.266  10.577  0.2733  0.3287 -0.0504
14357W        W57373  14.532  32.149  24.155 -0.0481  0.2726  0.1008
14358W        W57374   9.110  18.178   6.220 -0.0409  0.2014 -0.0524
14359W        W57375  16.504  24.539   8.567  0.2759  0.3287  0.2313
14360W        W57376   7.382  14.223  18.270  0.2196 -0.0352 -0.0413
14361W        W57377  23.983  15.464   8.174 -0.4859 -0.0207  0.0834
14362W        W57378  22.109  11.739   2.861 -0.0854 -0.0573 -0.0281
14363W        W57379   9.897  10.040   5.728  0.3164 -0.0757 -0.1414
14364W        W57380  19.317  26.776  26.277  0.1287  0.0849 -0.2213
14365W        W57381  15.498  28.358   0.735  0.4206  0.0739 -0.3287
14366W        W57382   6.994  22.023  26.264 -0.0844 -0.1724 -0.0543
14367W        W57383  17.538  14.222  28.244 -0.3707 -0.2290 -0.0506
14368W        W57384   9.333  23.890  25.798  0.2051 -0.3328  0.1804
14369W        W57385  13.251  13.129  20.430  0.1250  0.0088  0.0345
14370W        W57386  23.971   7.300   5.961 -0.3698  0.3014 -0.1783
14371W        W57387  28.953  22.895  28.857 -0.0203 -0.0712 -0.5449
14372W        W57388  29.923  13.180  28.277 -0.2150  0.0010  0.1296
14373W        W57389  26.876  18.637   6.003  0.1183 -0.3140  0.1139
14374W        W57390   6.685   5.515   3.401  0.1657  0.2917  0.1224
14375W        W57391  25.558  19.292  22.704  0.0917  0.0837 -0.2732
14376W        W57392  28.936  14.613   3.410  0.0312 -0.2218 -0.2532
14377W        W57393  16.692  19.344  12.847  0.0281 -0.3013  0.2922
14378W        W57394  28.631  24.637   4.838 -0.0463 -0.3320 -0.2851
14379W        W57395   6.978  29.428  26.327  0.1596  0.1131  0.0078
14380W        W57396  19.594  17.636  28.084 -0.3460 -0.2252  0.1449
14381W        W57397  13.993   8.112   6.818 -0.3238 -0.2007 -0.0370
14382W        W57398  11.514  30.499   8.113 -0.0079 -0.4450  0.2292
14383W        W57399  13.790  18.407   5.070  0.3847  0.0233  0.0511
14384W        W57400  25.578   9.856  27.033  0.1772 -0.1812 -0.1541
14385W        W57401  31.956  21.066   9.578  0.0899 -0.0575  0.0563
14386W        W57402  31.602  18.641  22.092  0.4540 -0.2069  0.2463
14387W        W57403  12.876   6.702   8.351  0.1398 -0.0421  0.2689
14388W        W57404  11.863  21.296   0.514  0.3313  0.3029  0.0883
14389W        W57405  27.079  22.182  10.384  0.0681 -0.2519  0.1523
14390W        W57406  26.491   7.517  21.273  0.1693 -0.0225  0.0572
14391W        W57407  20.937  24.854   3.912  0.1037 -0.0915 -0.1774
14392W        W57408  16.625   1.321  15.583  0.2624 -0.0960  0.0856
14393W        W57409  23.396  18.846  24.512  0.1775 -0.0482  0.1215
14394W        W57410  21.722  17.148  28.162  0.1825  0.0732  0.0058
14395W        W57411  20.178   4.615  10.093  0.0262 -0.0444  0.0892
14396W        W57412   2.238   7.187  18.698 -0.0043 -0.0896 -0.0853
14397W        W57413  19.192  24.837   8.777  0.0986  0.2624 -0.0966
14398W        W57414  25.705  10.596  10.157 -0.0410 -0.0403  0.0771
14399W        W57415  10.054  12.697   5.347 -0.0800 -0.0538  0.1064
14400W        W57416  11.622  15.111  24.222  0.3566  0.3774  0.1004
14401W        W57417  33.437  14.997  10.342  0.0290  0.0465  0.0600
14402W        W57418  28.247  25.026   6.607  0.2373  0.1665 -0.3326
14403W        W57419   6.189  28.470   8.009 -0.2479 -0.0250  0.0384
14404W        W57420  24.750  10.366  28.211  0.0032  0.0460 -0.0671
14405W        W57421  15.487  17.734  20.931  0.1024 -0.1961  0.1547
14406W        W57422   0.063   8.613  14.862  0.0427  0.0086 -0.4300
14407W        W57423  17.555  30.432  28.451  0.2478 -0.1232  0.2335
14408W        W57424  19.348  25.918   9.123 -0.1719  0.1041  0.1815
14409W        W57425  20.662   2.452   1.188 -0.2780 -0.1011 -0.4697
14410W        W57426  19.118  23.237  26.110 -0.2682  0.0714 -0.0605
14411W        W57427  15.820  21.145  22.268  0.0774  0.2833 -0.0433
14412W        W57428  19.910  30.765   1.931 -0.2114  0.3751  0.3041
14413W        W57429  26.498   3.327  26.573  0.0955 -0.2671  0.0168
14414W        W57430  25.495  16.077  26.544 -0.0836  0.0059  0.1449
14415W        W57431  14.221  11.017  28.083 -0.0326 -0.2932 -0.0380
14416W        W57432  30.059   3.185  25.307 -0.0728 -0.1281 -0.0021
14417W        W57433  33.053  25.577  28.615  0.0166 -0.1116  0.1858
14418W        W57434  21.965  25.486   2.049 -0.3516 -0.3974 -0.2589
14419W        W57435  16.875  16.887   1.335  0.1856  0.1083  0.1228
14420W        W57436  10.226  34.687   0.385  0.2763 -0.0977  0.1304
14421W        W57437  15.473  18.709   6.690  0.0783 -0.1336 -0.3269
14422W        W57438  15.808  21.146  15.480  0.0166  0.0343  0.2112
14423W        W57439  13.635  22.348   5.969  0.0859 -0.1962  0.3301
14424W        W57440  19.699  23.294   0.158 -0.0453 -0.1006 -0.3092
14425W        W57441  11.178  23.169   7.113 -0.0450  0.0564  0.1195
14426W        W57442  29.772  19.134   8.523 -0.0795 -0.2405 -0.0596
14427W        W57443  29.010  26.103  23.517 -0.2358 -0.0090  0.2618
14428W        W57444  18.654  20.407  13.990 -0.1520 -0.0004 -0.1819
14429W        W57445  27.945   1.805  28.128  0.0055  0.2572  0.4496
14430W        W57446  10.893  20.062  24.471 -0.2433 -0.1678  0.0302
14431W        W57447  17.455  30.580  16.979  0.3278  0.2682  0.0812
14432W        W57448  14.242  10.943   8.398  0.0860  0.0453  0.0347
14433W        W57449   1.701  33.599   6.695 -0.1971  0.1173 -0.0537
14434W        W57450  23.321  27.287  10.612 -0.2304  0.1668  0.3858
14435W        W57451  11.869  15.796   0.049 -0.0509  0.0440  0.2435
14436W        W57452  19.105  18.877  28.278 -0.1835 -0.1532  0.2577
14437W        W57453  12.753  15.455   8.112 -0.0592 -0.0133  0.1470
14438W        W57454  34.282  12.540   4.142 -0.2914  0.1985 -0.0281
14439W        W57455  14.968  17.226   5.078 -0.2164  0.3615 -0.0989
14440W        W57456  24.865  22.123  27.548  0.0095 -0.0693  0.1682
14441W        W57457  16.950  12.557  16.882 -0.1279  0.0259 -0.0799
14442W        W57458  16.802  17.899   6.982  0.1068  0.2149 -0.1719
14443W        W57459  26.735  14.633  27.395 -0.0924 -0.0398  0.0593
14444W        W57460   5.911  19.602  26.184 -0.2113 -0.0580  0.1489
14445W        W57461   7.273  18.615   6.859 -0.0953  0.2109 -0.1907
14446W        W57462  32.290  18.073  24.343  0.1677 -0.0911  0.0301
14447W        W57463  14.890  11.402   0.807 -0.0780  0.1359 -0.3407
14448W        W57464   8.196   4.088  17.281 -0.1642  0.1126 -0.4449
14449W        W57465  17.481  21.709   3.736 -0.0828  0.0295  0.0319
14450W        W57466  12.421  17.704   6.309 -0.0758  0.0592  0.0517
14451W        W57467  22.614  14.219   2.239 -0.0844 -0.2865 -0.1995
14452W        W57468  11.900  18.118   5.702  0.0516  0.1364  0.1014
14453W        W57469  33.925  16.415   8.617  0.1712  0.0915  0.1963
14454W        W57470  24.392  30.617   5.976  0.0566  0.2092  0.1926
14455W        W57471  28.326  23.433  23.540  0.3111  0.1978 -0.2334
14456W        W57472  12.768  27.393   5.517 -0.1252  0.2699 -0.0393
14457W        W57473  30.197  22.147   2.016  0.0052 -0.1812 -0.1267
14458W        W57474   2.561   1.716   3.842  0.0959 -0.1506 -0.0834
14459W        W57475  17.107   0.128  15.917 -0.3304 -0.2665  0.0374
14460W        W57476  31.691  16.792   6.348  0.1498 -0.1479 -0.2788
14461W        W57477   2.742  33.284  26.654  0.0072 -0.0080 -0.1773
14462W        W57478  29.395  30.833   6.224 -0.1860 -0.2779 -0.1770
14463W        W57479  23.799  22.189   8.642 -0.1885  0.3420 -0.1885
14464W        W57480   1.684  29.252  10.296  0.1061 -0.2163 -0.0600
14465W        W57481   3.429  20.685   9.422 -0.1319 -0.2926 -0.1243
14466W        W57482  29.628  14.737   1.797 -0.1038 -0.1965  0.1791
14467W        W57483  22.223  31.200   6.355  0.0151 -0.0447  0.0358
14468W        W57484  15.017  28.367  21.729 -0.0654  0.4599  0.0413
14469W        W57485  17.881  29.112  27.806  0.0675  0.1771 -0.1258
14470W        W57486  28.465  22.599   3.469 -0.0793 -0.0259 -0.0995
14471W        W57487  23.743  21.500   4.562  0.0701 -0.2236  0.0107
14472W        W57488  29.864  28.578   5.861  0.0139  0.1275 -0.0701
14473W        W57489   8.116  23.932   5.461 -0.1448  0.2255 -0.0422
14474W        W57490  16.978  11.457   5.177 -0.1152  0.3054  0.1304
14475W        W57491  10.407  25.955   5.984  0.2680 -0.4012  0.0670
14476W        W57492  18.994  17.843   1.176 -0.2997  0.1447 -0.0058
14477W        W57493  29.677  12.600   9.554 -0.2280 -0.1436  0.2374
14478W        W57494   7.958  18.204  17.980  0.2488 -0.0507 -0.0757
14479W        W57495  31.984  23.960  10.018  0.0790 -0.2387 -0.1230
14480W        W57496  12.688  10.697   9.436 -0.0664  0.1637  0.1123
14481W        W57497  30.110  31.216   8.637 -0.4457  0.0271  0.0558
14482W        W57498  24.237  19.051   6.707 -0.4024  0.3753 -0.2220
14483W        W57499  27.232  33.996  17.474 -0.0738 -0.0814  0.2201
14484W        W57500  15.648  34.062   8.816 -0.2270 -0.1588  0.0142
14485W        W57501  11.218  14.225   5.255 -0.1424 -0.0809 -0.1637
14486W        W57502  11.944  19.072   3.941  0.2470  0.2080 -0.3192
14487W        W57503  23.585  29.867   3.512 -0.1899 -0.1492 -0.0469
14488W        W57504   9.023  28.552   5.494 -0.0888 -0.4078  0.2192
14489W        W57505  10.818  28.519   4.219  0.1488 -0.1827  0.1495
14490W        W57506  11.018  33.246   9.065  0.0084  0.2309  0.2573
14491W        W57507  12.736  32.738  10.592 -0.0395  0.4280  0.1670
14492W        W57508  22.125   8.816   7.728  0.3024 -0.0609 -0.1442
14493W        W57509  19.846  31.561   5.057 -0.2097 -0.2848 -0.1315
14494W        W57510  26.814  16.858   9.343  0.1612 -0.0149 -0.1832
14495W        W57511   1.676  19.096   9.979  0.0230 -0.0386  0.4043
14496W        W57512  22.197  11.165  26.367  0.4305  0.1921  0.0309
14497W        W57513  23.816   1.514   9.632  0.1126  0.3099  0.0854
14498W        W57514  33.184  17.190  10.718 -0.1950  0.0430  0.1780
14499W        W57515  33.329  29.941  10.771 -0.0120 -0.2212 -0.0055
14500W        W57516  26.960  24.675   3.903 -0.2135  0.0349  0.1377
14501W        W57517  21.970  18.438  20.635  0.0472  0.2200 -0.1164
14502W        W57518  32.384  20.246  21.058  0.0543 -0.2107  0.0613
14503W        W57519  10.807  15.593   8.816 -0.0224 -0.0192  0.0232
14504W        W57520  18.870   2.498   7.531 -0.0461  0.1488 -0.0475
14505W        W57521  18.443  29.899   9.854  0.1037 -0.2545  0.1926
14506W        W57522  32.534  31.614   4.422 -0.2500  0.0967  0.0872
14507W        W57523  12.605  19.250   5.911 -0.0510 -0.4757 -0.3445
14508W        W57524   3.566   7.286   5.065  0.0534  0.0253 -0.2266
14509W        W57525  17.863  27.778   9.634 -0.0319  0.1430 -0.2618
14510W        W57526  12.735   3.930  10.539  0.3438  0.0146  0.0153
14511W        W57527  33.379  16.726  10.659 -0.3853  0.0726  0.2765
14512W        W57528   6.161   0.349   2.102  0.2951 -0.0645 -0.0776
14513W        W57529  17.390  17.994   4.772 -0.1083  0.0041 -0.2790
14514W        W57530   5.296   4.494   1.215  0.0334  0.2945  0.0172
14515W        W57531   7.196  33.966   8.454 -0.2893  0.1954 -0.1869
14516W        W57532   1.935  22.590   3.431 -0.4580  0.1415  0.0533
14517W        W57533  25.144  21.527  19.265  0.1102  0.1037  0.0367
14518W        W57534   4.855  25.937  27.150 -0.0979 -0.2230  0.0603
14519W        W57535  14.087  13.976   0.813 -0.2488  0.1547  0.0043
14520W        W57536  24.269  25.825   5.062 -0.1742 -0.4678 -0.0875
14521W        W57537   9.561  23.249   5.155  0.0776  0.2286  0.3400
14522W        W57538  21.191  27.083   6.878 -0.0251  0.0291  0.0542
14523W        W57539  18.113  25.365   1.242  0.1347  0.0683  0.1080
14524W        W57540  17.688  20.373   3.439  0.0753  0.0503 -0.0232
14525W        W57541  28.765  18.471   3.386  0.0032 -0.1716 -0.0647
14526W        W57542  20.022  16.012   2.320 -0.2330 -0.3148 -0.0981
14527W        W57543  29.135  11.557   5.565 -0.2058 -0.0204  0.0382
14528W        W57544  29.477  21.800   6.287 -0.0495  0.0545 -0.0248
14529W        W57545  32.934   8.983  24.631 -0.1311 -0.0750  0.7023
14530W        W57546  23.783  21.904   5.900 -0.0984  0.1914  0.2021
14531W        W57547  16.103  11.803   5.169  0.1928  0.0035  0.1301
14532W        W57548  28.880  14.055   5.004  0.3059 -0.0939 -0.0196
14533W        W57549  11.886  28.059   0.289 -0.0342 -0.1408 -0.0456
14534W        W57550  23.411  21.557   7.265 -0.1751 -0.2068  0.0295
14535W        W57551  17.111  19.888   1.052  0.1811  0.1764  0.1706
14536W        W57552  12.909  20.389  28.539 -0.6085 -0.2058 -0.0866
14537W        W57553  20.495  19.453   2.887 -0.0161 -0.3188  0.4186
14538W        W57554  16.933  17.630  21.596  0.2532 -0.3865 -0.1579
14539W        W57555  21.640  12.931   8.591 -0.0553  0.0135  0.0234
14540W        W57556   3.037  26.204  27.528  0.0696  0.1614  0.1087
14541W        W57557  31.463  20.843   4.941 -0.3018  0.1541  0.0386
14542W        W57558  29.254  24.691   5.472  0.0133 -0.2419 -0.1868
14543W        W57559  19.852   8.548  25.789 -0.2054 -0.0742  0.1488
14544W        W57560  18.629  14.875   2.980  0.2098 -0.2071  0.0421
14545W        W57561  26.464  22.134  28.773  0.1483  0.2510  0.1570
14546W        W57562  19.916  25.587  22.333  0.1873  0.0475  0.2182
14547W        W57563  16.235  23.764   7.440 -0.0234  0.2208  0.0402
14548W        W57564  24.644  28.931   7.203 -0.0927  0.0758  0.2837
14549W        W57565  24.678   7.482   3.445  0.1143 -0.2714  0.2387
14550W        W57566   6.382   5.366   7.757 -0.0947  0.0072 -0.1500
14551W        W57567   8.583  32.874   1.330 -0.1079 -0.2294 -0.2457
14552W        W57568  15.717  30.260  26.338 -0.1553 -0.1703  0.3455
14553W        W57569   0.386  20.490  25.600  0.0526  0.0748  0.0345
14554W        W57570  30.033  18.842   6.016  0.0860  0.0183 -0.0521
14555W        W57571  20.799  25.813   7.006  0.1185 -0.1689 -0.0616
14556W        W57572  24.992   5.818   5.640  0.0644 -0.2030 -0.1933
14557W        W57573  20.563  16.586   3.209  0.1203 -0.1832 -0.2220
14558W        W57574  33.439  11.922   6.780 -0.5109 -0.1348  0.0305
14559W        W57575  21.260  17.574   6.821  0.2177 -0.0989  0.0016
14560W        W57576  12.150  17.209  24.163 -0.2758 -0.0441 -0.2069
14561W        W57577  14.466  18.927  19.646  0.2258  0.1656 -0.1915
14562W        W57578   8.330  28.710   2.628  0.3113  0.2806 -0.1439
14563W        W57579  15.946  10.462   2.721 -0.2754 -0.1699 -0.0128
14564W        W57580  32.684  11.483   5.210  0.0307  0.0280 -0.0468
14565W        W57581  18.964  24.996  27.939  0.1144 -0.1466  0.0471
14566W        W57582  11.214  27.355   0.372 -0.1489  0.1394  0.2147
14567W        W57583  16.293  20.668   6.880  0.1315 -0.0252 -0.0297
14568W        W57584  27.066  12.443  10.353 -0.1849 -0.4859 -0.0878
14569W        W57585  21.075  22.606   7.741 -0.1574  0.1453 -0.0531
14570W        W57586  16.372  29.606   9.825  0.1806  0.1101 -0.0696
14571W        W57587  22.023  13.109   9.461 -0.2144 -0.0660  0.1746
14572W        W57588  11.442  26.491   0.474 -0.1797 -0.2369 -0.0121
14573W        W57589   0.599  10.701  10.302  0.0782  0.0104 -0.0247
14574W        W57590  26.496  21.512   1.178 -0.2433  0.1975 -0.1601
14575W        W57591  13.874  23.719   1.705 -0.1138 -0.0887 -0.2444
14576W        W57592  23.133  16.640   9.665  0.2646 -0.0376 -0.4382
14577W        W57593  17.453   6.280  28.958  0.0429 -0.1606 -0.3225
14578W        W57594  17.264  15.549   0.351  0.2557 -0.3398 -0.1292
14579W        W57595   3.920   8.923  26.669  0.0228 -0.1997 -0.0586
14580W        W57596  20.715  27.549   0.543 -0.3218  0.0500  0.0269
14581W        W57597  33.605  29.109  26.857  0.0856  0.1201  0.2921
14582W        W57598   9.688  23.722  26.796 -0.1717 -0.0568 -0.0620
14583W        W57599  15.540  14.953  20.640  0.0856 -0.0749 -0.1491
14584W        W57600   0.736  15.821   4.353 -0.0761 -0.1141 -0.0892
14585W        W57601  30.204  21.570  28.613 -0.3555 -0.2952  0.1624
14586W        W57602  21.082  34.619   8.323  0.0787  0.1009 -0.0885
14587W        W57603  33.453  23.595  27.489 -0.3659 -0.1273  0.0783
14588W        W57604  32.213  21.048   6.926  0.0856  0.2401  0.3119
14589W        W57605  21.701  10.957  28.243 -0.1469  0.0094 -0.0578
14590W        W57606  16.272  16.269   2.863 -0.1413  0.3757  0.0496
14591W        W57607  26.226   9.062   1.536 -0.2216 -0.0405 -0.0533
14592W        W57608   0.043  23.623   5.739  0.2105 -0.0220 -0.2845
14593W        W57609  32.099  12.280   8.090 -0.2021  0.2653  0.1136
14594W        W57610  13.338  11.377   1.581  0.0604 -0.3381 -0.2926
14595W        W57611  28.362   3.885   4.590  0.0049  0.2593 -0.3366
14596W        W57612  15.501  12.641   8.455 -0.1219 -0.1188 -0.3101
14597W        W57613  24.441  22.401   7.279 -0.0084 -0.0628  0.3751
14598W        W57614   2.990  19.274   7.353 -0.2952  0.0550 -0.0359
14599W        W57615  14.183   6.507  17.753 -0.0026 -0.0118 -0.1425
14600W        W57616  26.063  15.379   9.259  0.1432  0.0054  0.1420
14601W        W57617  15.145  29.983  10.005 -0.2156  0.1412  0.3461
14602W        W57618   0.598  22.223   7.628  0.0227  0.3667 -0.0536
14603W        W57619  16.069  21.152   8.360 -0.1439  0.0834  0.0910
14604W        W57620  12.201   7.562  10.104 -0.4010  0.2203  0.1501
14605W        W57621   9.134  17.065   2.235  0.1032 -0.1256  0.4252
14606W        W57622   6.686  25.420   7.829  0.2429  0.0295  0.0250
14607W        W57623  17.842  18.197  16.165 -0.3651  0.2658 -0.4234
14608W        W57624  10.283  14.460   6.553  0.1130 -0.0936 -0.1135
14609W        W57625  27.588  30.130   9.715  0.1009  0.0536 -0.4383
14610W        W57626  25.850  10.905   3.004  0.1814  0.0833 -0.1231
14611W        W57627  23.101  14.647  22.281  0.0342 -0.4158  0.1218
14612W        W57628  25.940   9.031  20.438 -0.0316 -0.3002 -0.1319
14613W        W57629   0.303  15.064   6.051  0.0626  0.1893  0.2532
14614W        W57630   3.473  17.437   5.996  0.5381  0.0301 -0.1561
14615W        W57631   9.691  19.018  26.710  0.1080  0.0826 -0.4260
14616W        W57632  32.225  21.637   4.880 -0.1258  0.0473 -0.2283
14617W        W57633  20.168  18.421   6.858 -0.0865  0.0538  0.2667
14618W        W57634  16.285  19.849  23.928  0.4306  0.0381 -0.3006
14619W        W57635  12.639  12.991   1.841 -0.0991 -0.0158 -0.0457
14620W        W57636  22.503  25.742   9.241  0.1656 -0.1280 -0.0621
14621W        W57637  28.432   7.290   7.329 -0.0925 -0.2675 -0.1687
14622W        W57638  27.272  12.186   5.824 -0.1007 -0.0094 -0.0428
14623W        W57639   0.002  13.134   0.254  0.1242  0.1880 -0.0723
14624W        W57640  25.015  29.994   7.750  0.1683  0.0459  0.1283
14625W        W57641  16.780  18.330  24.803 -0.0402  0.1603  0.1159
14626W        W57642  17.788  14.237   3.182  0.2422  0.2850  0.2236
14627W        W57643  27.870  28.255  23.486 -0.1077 -0.1237  0.0947
14628W        W57644  21.084  27.261   3.574  0.0594 -0.0098 -0.1483
14629W        W57645  17.083  33.521   4.803  0.0172 -0.5386  0.0528
14630W        W57646  20.264  16.847  21.834 -0.2350  0.1162 -0.1118
14631W        W57647  15.164  30.502   2.857  0.2529 -0.4099  0.2918
14632W        W57648  10.822  13.399  25.111  0.1534  0.1559 -0.0826
14633W        W57649   8.228   7.055   8.154 -0.0134 -0.1598 -0.3716
14634W        W57650  25.815  17.280   0.491 -0.0283 -0.2319  0.0549
14635W        W57651  27.290   5.654   1.320  0.2590  0.0066  0.0585
14636W        W57652  34.377  18.181  18.395  0.0738  0.4611 -0.0610
14637W        W57653  31.618  17.139   7.955 -0.0471 -0.2358  0.0211
14638W        W57654  30.173  23.447   1.685  0.0200  0.2139  0.0572
14639W        W57655  27.289  19.417   0.520  0.0469 -0.0766 -0.1754
14640W        W57656   1.108   5.876  26.355  0.2770  0.3696 -0.3439
14641W        W57657  17.123   0.415   7.359  0.0457 -0.0457  0.2268
14642W        W57658  29.703  21.586   2.461 -0.1021  0.3931  0.0178
14643W        W57659  23.796   4.913   2.742 -0.3722  0.0837  0.2875
14644W        W57660   3.526   0.732  24.869 -0.0687  0.5054 -0.0129
14645W        W57661  15.107  21.607   6.391  0.1326 -0.1741 -0.1813
14646W        W57662  23.253  28.800   7.058  0.0561 -0.0513  0.0108
14647W        W57663  30.039  30.208   8.978 -0.0157  0.0717 -0.1537
14648W        W57664  16.344   1.444  16.752  0.0042 -0.1761  0.0227
14649W        W57665  25.286  13.335   6.074 -0.1546  0.0206 -0.0878
14650W        W57666  18.492  21.998  19.436 -0.0948  0.1102  0.3531
14651W        W57667  13.274  19.261   6.809  0.1144 -0.0289  0.2905
14652W        W57668  25.830  29.360   3.232  0.0059 -0.1956  0.2471
14653W        W57669   0.420   9.870  21.765  0.0178  0.2239  0.0063
14654W        W57670  23.222   3.740   3.738 -0.1935  0.0359  0.2923
14655W        W57671  17.898  17.764  16.386  0.2135  0.2199  0.1142
14656W        W57672  16.081  20.079  25.135 -0.3100 -0.0269 -0.0540
14657W        W57673  33.732  14.983  28.350  0.1786  0.2145 -0.0126
14658W        W57674  22.222  20.833  24.900 -0.1581 -0.0306  0.3186
14659W        W57675  13.687   6.286   1.633 -0.1368  0.1559  0.0219
14660W        W57676  13.630  31.137   3.868 -0.0371  0.3699  0.1420
14661W        W57677  24.947  17.219   3.635 -0.0077  0.1040 -0.3819
14662W        W57678  25.445  27.794   1.731 -0.4820  0.0158  0.2476
14663W        W57679  14.272  22.321  26.672 -0.0777  0.1407 -0.1215
14664W        W57680  29.116  16.760  29.013  0.0986  0.0152  0.0521
14665W        W57681  23.980  20.775  23.994  0.0633  0.2148  0.1365
14666W        W57682  33.766  23.259  10.135 -0.3809 -0.0508  0.1515
14667W        W57683   2.053  20.651   6.060  0.0941 -0.1760 -0.1938
14668W        W57684  18.113  28.087   0.285  0.0946  0.0568  0.0007
14669W        W57685  15.128  19.533   5.302 -0.1342 -0.0053 -0.1114
14670W        W57686  27.617  23.656   2.373 -0.0715  0.0338 -0.1215
14671W        W57687   1.392  23.715   0.538 -0.1002 -0.1836 -0.0207
14672W        W57688  15.182  30.060   7.003 -0.3030 -0.0102 -0.0596
14673W        W57689   9.791  28.580  27.001  0.1295 -0.0378 -0.2354
14674W        W57690  29.186   4.941   1.261 -0.0614 -0.0012 -0.0024
14675W        W57691  26.976  25.073   7.359 -0.2794 -0.0307  0.1163
14676W        W57692  28.990  30.466  10.144 -0.2817 -0.1218 -0.3978
14677W        W57693   8.022  19.670   7.525  0.1094 -0.0108 -0.0575
14678W        W57694  16.425  23.052  28.579  0.0140  0.0395  0.0089
14679W        W57695   0.992  12.495   6.147  0.2942  0.2781 -0.2243
14680W        W57696  24.244  34.349  28.508 -0.1158  0.1772 -0.2279
14681W        W57697  23.119   1.891   8.458  0.1605  0.1046  0.1881
14682W        W57698  22.549  15.274  27.756  0.2878  0.0158  0.1581
14683W        W57699  24.886  13.397   3.795 -0.2865 -0.0228  0.1789
14684W        W57700  28.818  16.443   2.184 -0.0188  0.1035 -0.0598
14685W        W57701  19.344  20.633  21.642  0.1291  0.1558 -0.0663
14686W        W57702  24.407  29.981   4.093  0.0469 -0.1626 -0.2118
14687W        W57703   7.681  31.071   5.583 -0.3555  0.1155  0.0232
14688W        W57704  29.915   7.856   3.627  0.0310  0.2680 -0.1953
14689W        W57705  31.127  22.575  10.400  0.2258 -0.0667 -0.2720
14690W        W57706  22.855   2.278  26.355 -0.2188 -0.0791  0.1721
14691W        W57707   7.988  11.672  22.551 -0.2043 -0.5566 -0.4081
14692W        W57708  19.787  22.899   5.995  0.0757  0.1654 -0.0624
14693W        W57709  27.894  30.443   1.883  0.2109 -0.1116  0.2369
14694W        W57710   1.089  22.775   3.276  0.1111  0.0242 -0.0024
14695W        W57711  26.785  23.101   5.783  0.3628 -0.2007  0.1336
14696W        W57712  32.022   3.189   5.805 -0.2822  0.0299 -0.2524
14697W        W57713  14.410   7.465   4.165  0.0144  0.1110  0.0451
14698W        W57714  20.200  23.606  28.060  0.3614  0.0563 -0.2064
14699W        W57715  19.644  20.835   7.770  0.2270  0.0022 -0.1073
14700W        W57716  17.251  16.062  22.380 -0.1396 -0.0085 -0.0487
14701W        W57717   8.854  22.057   6.940  0.5154  0.0502  0.2196
14702W        W57718  18.303  28.658  27.820 -0.0843  0.6655  0.0856
14703W        W57719  14.455  30.672   8.288 -0.1452 -0.2081  0.1392
14704W        W57720  22.870  16.087   4.985  0.1451 -0.3612  0.3650
14705W        W57721  18.933  19.371   1.060  0.0170  0.1197 -0.2435
14706W        W57722  11.150  23.257  25.929 -0.1253 -0.1295  0.1654
14707W        W57723  24.517  29.891   8.200 -0.0511 -0.3210 -0.2094
14708W        W57724  26.576  20.997  27.174  0.0951  0.0449  0.2430
14709W        W57725  25.890  32.701   5.462 -0.1797 -0.0418  0.2608
14710W        W57726  13.914  27.464   4.654 -0.0689 -0.0555  0.0480
14711W        W57727  19.311  11.293   6.703 -0.1078 -0.1133 -0.0058
14712W        W57728  19.539  27.108  24.094 -0.0018 -0.0385 -0.2177
14713W        W57729  24.385   9.260   6.327  0.1210 -0.1456  0.3534
14714W        W57730  22.503  20.123   8.404  0.0813  0.0613 -0.1349
14715W        W57731  23.363  24.645   4.576  0.1088 -0.0180 -0.1374
14716W        W57732  14.033  28.126   6.242  0.4015 -0.3684  0.2221
14717W        W57733  22.241  14.549   5.772  0.1795 -0.0042  0.1516
14718W        W57734  21.729  14.557   4.517  0.1822  0.1356  0.2019
14719W        W57735  17.015  23.635   4.344 -0.0378 -0.3412  0.0469
14720W        W57736   4.533  12.605  28.865  0.0223 -0.0128 -0.1480
14721W        W57737  25.393  10.597  27.767  0.2792  0.0095  0.0800
14722W        W57738  15.976  33.171   7.829  0.2941  0.1089  0.0979
14723W        W57739  21.005  21.255  26.552 -0.0546  0.0478  0.0113
14724W        W57740   7.700  26.753  27.405  0.1591 -0.1704 -0.2298
14725W        W57741   9.329  19.498   2.158  0.0246  0.0542  0.0858
14726W        W57742  21.131  14.521  26.946  0.2742  0.2382 -0.0502
14727W        W57743  33.297  25.776  27.599  0.1971 -0.2695  0.0179
14728W        W57744  29.085  17.899  10.771 -0.2416 -0.0374  0.2424
14729W        W57745  11.081  28.601  10.060  0.0566  0.1368  0.0335
14730W        W57746  15.406  19.485   0.754 -0.0184 -0.0271  0.0181
14731W        W57747  19.332   5.354   5.531 -0.1360 -0.3290 -0.0561
14732W        W57748  15.643   1.062  29.193  0.0261 -0.0845  0.1338
14733W        W57749  19.212  23.536   4.156 -0.2802 -0.2806 -0.0741
14734W        W57750  25.539  21.378   4.524  0.3543 -0.0232 -0.0905
14735W        W57751  21.259  16.948  26.216  0.0258  0.0331 -0.0389
14736W        W57752  25.335  24.180   2.142  0.1406 -0.1846 -0.0091
14737W        W57753   7.817  15.092  25.431  0.1820 -0.0304 -0.0210
14738W        W57754  18.535  18.771   7.607  0.3301 -0.1436  0.0085
14739W        W57755  11.420   8.412  17.116  0.0903  0.2025  0.0651
14740W        W57756   9.470  24.276  26.290 -0.0747  0.2428  0.0200
14741W        W57757  16.832  24.924   4.919  0.3351  0.2378  0.0587
14742W        W57758  16.752  23.843   2.727  0.4408  0.0180 -0.3723
14743W        W57759   9.942  31.979   2.178 -0.1591 -0.2328 -0.2814
14744W        W57760  21.695  23.787   7.804 -0.0205  0.1189  0.1688
14745W        W57761  30.848  18.454   6.362  0.0298  0.0701  0.3961
14746W        W57762  19.111  20.067   3.312  0.0325  0.0161  0.2695
14747W        W57763   8.256  23.955  24.898  0.1770  0.0161 -0.1086
14748W        W57764  22.851  28.808   9.228 -0.0117  0.0841  0.0458
14749W        W57765   0.181  13.881  24.267 -0.0941  0.0922  0.0386
14750W        W57766  30.446  18.252   1.735  0.1806  0.0485  0.1097
14751W        W57767  32.834  13.688   8.847 -0.1953  0.2195  0.0296
14752W        W57768  22.826  20.979  25.430 -0.0340  0.0294 -0.0182
14753W        W57769  17.458  18.574   3.856 -0.0225 -0.0264  0.3164
14754W        W57770  18.380  32.020  20.590  0.2302 -0.1382  0.0091
14755W        W57771  14.453  24.053   2.282  0.1547  0.1877 -0.1604
14756W        W57772  13.940  30.129   3.957  0.3388 -0.0601 -0.2291
14757W        W57773  21.961  27.844  10.141 -0.4450 -0.0777 -0.1388
14758W        W57774  26.361  14.534   5.210 -0.3380  0.0154 -0.0386
14759W        W57775  19.069   8.351   6.162  0.1685 -0.0493  0.2068
14760W        W57776  32.500  15.714  15.939  0.2223  0.0749  0.3693
14761W        W57777  29.498   4.807   6.873 -0.1039 -0.2036 -0.1964
14762W        W57778  19.503  31.048   0.075 -0.0576  0.2550 -0.0133
14763W        W57779  32.229  14.304   5.612 -0.0669 -0.2267  0.4398
14764W        W57780   4.778  30.506  10.003  0.2561  0.3159 -0.0891
14765W        W57781  31.651   2.602  25.738 -0.1244  0.1172  0.1242
14766W        W57782  27.177  19.335   4.986 -0.2135 -0.0824  0.0698
14767W        W57783  16.785  17.759  23.687 -0.1958  0.1415 -0.2631
14768W        W57784  15.422  21.323   0.546  0.0243 -0.1181 -0.0819
14769W        W57785  20.938  34.387   5.606 -0.3446 -0.5712  0.0547
14770W        W57786  19.460  33.035  25.932 -0.2916  0.2256  0.1348
14771W        W57787  17.201  19.595   0.297  0.0236  0.2235  0.0600
14772W        W57788  25.399  32.108   4.847  0.2500 -0.0503 -0.0620
14773W        W57789  16.423  26.429  28.151 -0.3363 -0.1167  0.0366
14774W        W57790  10.970  16.912   9.374 -0.0055  0.0654  0.1699
14775W        W57791   1.509  13.315  10.729  0.0017  0.0246  0.1147
14776W        W57792  34.388  20.890   3.312 -0.1821 -0.0951 -0.0630
14777W        W57793  24.015  23.018   2.005  0.0253  0.1101  0.2835
14778W        W57794  26.690  22.260  11.282  0.1271 -0.1017  0.2063
14779W        W57795  11.324  21.290   7.492  0.2618  0.3669 -0.1062
14780W        W57796   9.577  15.156   9.360 -0.4325  0.0160  0.0997
14781W        W57797  21.415  21.621   7.041  0.0345  0.1595 -0.2343
14782W        W57798   9.398   9.511   7.167 -0.1604 -0.0626 -0.0620
14783W        W57799  27.839  33.326  22.756  0.1016  0.3564  0.1068
14784W        W57800  13.396  22.136  20.620  0.0377 -0.3548 -0.3836
14785W        W57801  26.555  18.779   9.757  0.0840  0.0091  0.3445
14786W        W57802  14.288   6.141  28.399 -0.1116 -0.0466  0.0074
14787W        W57803  18.253   1.208   7.362  0.2399  0.1828 -0.1223
14788W        W57804  12.521  20.795   5.475 -0.2460 -0.1602 -0.1607
14789W        W57805  10.050  20.488   4.136  0.3509 -0.0235  0.1239
14790W        W57806  26.277  11.543  18.653 -0.0151  0.3760 -0.0275
14791W        W57807  12.744  27.095   9.385 -0.0596  0.0510 -0.0859
14792W        W57808  12.783  18.811   0.431 -0.1126  0.3199  0.1266
14793W        W57809  10.002  25.142   3.412  0.1206 -0.0468 -0.2944
14794W        W57810   0.426  29.397  25.116  0.1032  0.0716  0.1768
14795W        W57811  23.339  17.362   4.251  0.1189  0.2604 -0.0788
14796W        W57812  15.271  27.130   8.226  0.0463  0.1581 -0.1049
14797W        W57813  24.958   8.435   7.507 -0.0684  0.0586  0.1647
14798W        W57814  25.186  25.082   3.293 -0.1364  0.0552 -0.0777
14799W        W57815   5.263  27.700   5.345 -0.3028 -0.0940  0.0599
14800W        W57816   4.020  19.666   7.479  0.0940  0.0507 -0.0533
14801W        W57817  26.350   4.598   6.454 -0.1965  0.0490 -0.1219
14802W        W57818  17.576  10.103   2.220  0.0126 -0.1051 -0.2420
14803W        W57819  32.061  21.568  24.469  0.1621 -0.0227  0.2463
14804W        W57820  19.166  23.684   5.635  0.0694 -0.1344  0.2302
14805W        W57821  30.484  32.461   3.470 -0.0112 -0.1588  0.0136
14806W        W57822  31.331  25.618   3.068 -0.0095 -0.1012 -0.1922
14807W        W57823  15.875  15.073  28.483 -0.0505 -0.0625 -0.0680
14808W        W57824  26.214  25.518   4.595  0.3573  0.1734 -0.4079
14809W        W57825  27.717  26.645   7.110 -0.0017  0.1685 -0.4588
14810W        W57826  12.656  29.472   9.555 -0.1179 -0.1288 -0.2331
14811W        W57827  33.441  15.476  28.218  0.5602  0.0369  0.2083
14812W        W57828  31.055  10.760   4.289  0.0120 -0.0085 -0.0817
14813W        W57829  19.257  14.049   4.252 -0.2635  0.0390 -0.1739
14814W        W57830   3.506   6.493   7.805 -0.0389 -0.0973  0.2466
14815W        W57831  23.174  22.140   6.668  0.0844  0.1420 -0.2750
14816W        W57832  22.158  34.185  17.932  0.1034  0.1373  0.1370
14817W        W57833  22.276  22.209   9.672 -0.1000  0.2617  0.0678
14818W        W57834   0.187  24.241   7.250  0.0365  0.0114  0.1193
14819W        W57835  16.495  17.756   1.549  0.0537  0.1664  0.1401
14820W        W57836  13.142  15.145  29.253  0.0289  0.1200 -0.1187
14821W        W57837  14.216  19.801  23.136  0.0803 -0.0782 -0.3505
14822W        W57838  23.555   9.937   8.430  0.0736 -0.2142 -0.2034
14823W        W57839  25.389   1.545   4.141  0.0811  0.0483 -0.2039
14824W        W57840  25.510  13.126   8.675  0.1223 -0.0989 -0.0637
14825W        W57841   9.797  31.247  23.991  0.0362 -0.1274 -0.1597
14826W        W57842  20.623  22.573   7.964 -0.2874  0.0459  0.0925
14827W        W57843  18.323  18.071  23.834 -0.1183 -0.0023 -0.0503
14828W        W57844  15.405   4.971   4.798 -0.0946  0.4155 -0.5254
14829W        W57845   1.832  10.432   9.615 -0.1942 -0.0554  0.2672
14830W        W57846  18.250  33.316  18.434  0.1355 -0.0490  0.1838
14831W        W57847   9.221  23.325  20.319  0.0834  0.2748  0.1995
14832W        W57848   2.164  14.929   5.739 -0.0310 -0.0472  0.1434
14833W        W57849  20.685  19.733  23.412  0.1702 -0.1775  0.1812
14834W        W57850  21.375  19.546   7.146  0.1103  0.0843  0.1553
14835W        W57851  20.718  16.813  27.112  0.1289  0.0890 -0.0144
14836W        W57852  19.689  26.806  26.600  0.2475  0.3352  0.3970
14837W        W57853  20.348  10.765   7.252  0.4288 -0.0225 -0.0258
14838W        W57854  20.801  13.724   4.621 -0.0297  0.0915  0.1625
14839W        W57855  22.063   2.660   1.020 -0.0348 -0.1843  0.1437
14840W        W57856  17.763   6.009   2.026  0.4046 -0.5572 -0.2077
14841W        W57857  24.676  12.071  25.256  0.2187 -0.2730  0.3127
14842W        W57858   8.983  21.729   1.171  0.0250 -0.1484  0.1570
14843W        W57859  31.588  13.152   9.684  0.2551  0.0396  0.3431
14844W        W57860  24.962  19.972   9.341  0.1122 -0.3371  0.1335
14845W        W57861  24.305  28.129   8.998 -0.0368  0.1166  0.1259
14846W        W57862  18.180  29.340   9.036 -0.0703  0.3860  0.1382
14847W        W57863  22.492  10.608   6.946 -0.0636  0.3227 -0.2916
14848W        W57864  14.366  15.772   1.911 -0.3489 -0.1668  0.3316
14849W        W57865   9.329   6.378  26.464 -0.0457 -0.0092  0.2492
14850W        W57866  22.712  23.919   7.356 -0.2032 -0.2372 -0.1353
14851W        W57867  19.044   6.924   3.239  0.1862 -0.0575  0.3994
14852W        W57868  13.858  19.009  18.952 -0.3431 -0.0451  0.1780
14853W        W57869  33.190  26.864  24.717  0.1558  0.0980  0.0796
14854W        W57870  31.681  17.836   9.209 -0.0571 -0.2631  0.4463
14855W        W57871  20.310  26.704   4.460  0.0642 -0.3268 -0.0248
14856W        W57872  30.460  11.457   5.866  0.2051  0.1664 -0.2561
14857W        W57873  11.920  32.698   6.903  0.0152  0.0493 -0.0447
14858W        W57874  13.117  33.021   4.317  0.2332 -0.1310 -0.0763
14859W        W57875   8.501  23.295   5.019 -0.1342 -0.1408  0.2427
14860W        W57876  13.136  20.939  19.913 -0.3678  0.0333 -0.0027
14861W        W57877  27.106  19.701   8.449 -0.1225 -0.1507 -0.0697
14862W        W57878  21.073  16.954  29.093 -0.1153 -0.0333 -0.1378
14863W        W57879  23.113  15.086   6.550 -0.5179 -0.0019  0.2607
14864W        W57880  23.480  16.937  21.340  0.2600 -0.1423  0.1052
14865W        W57881  24.199  21.936   5.481  0.2047 -0.0235  0.0617
14866W        W57882  10.131  32.987   8.810  0.0880  0.1364  0.2659
14867W        W57883  18.008  23.372   7.559 -0.1173 -0.0519 -0.0151
14868W        W57884  29.706  29.436  28.186 -0.1288  0.1453 -0.3296
14869W        W57885  17.989   0.178  21.514  0.0041 -0.3449 -0.1802
14870W        W57886  25.293   3.729  29.204  0.2426  0.0750 -0.5431
14871W        W57887  27.870   5.036   8.710  0.4515 -0.1319 -0.1530
14872W        W57888  20.365  15.266   5.665  0.2134 -0.0115 -0.1436
14873W        W57889  25.157  22.162  10.729 -0.2098 -0.1206 -0.2354
14874W        W57890  30.125  16.549   3.599 -0.1985  0.0609 -0.0577
14875W        W57891   6.119  27.603   3.606 -0.3533  0.1613  0.0419
14876W        W57892   0.752   7.093  28.454 -0.1317 -0.0643  0.0840
14877W        W57893  22.166  17.615   6.501 -0.1926 -0.0054  0.1849
14878W        W57894  10.613  25.235   3.912  0.1975 -0.1006  0.0542
14879W        W57895  19.368  22.742   7.687  0.0444 -0.0185  0.1521
14880W        W57896  17.269   5.525  26.428  0.3294 -0.0542  0.1659
14881W        W57897  13.510  26.466   2.600  0.2537 -0.2469 -0.0740
14882W        W57898  28.226   9.214   4.770 -0.1231 -0.1260  0.0439
14883W        W57899   8.427  31.055   5.284 -0.0019 -0.1428  0.0048
14884W        W57900  12.891  14.469   0.596  0.0276 -0.2271 -0.2021
14885W        W57901  20.685  25.964  19.409  0.2335 -0.2860  0.1867
14886W        W57902  22.814   0.396   8.130 -0.0674 -0.2526  0.0463
14887W        W57903  24.445  18.027   0.316 -0.0264  0.0329  0.2803
14888W        W57904   1.454  22.737   3.593  0.2448  0.1271  0.1164
14889W        W57905  12.805  13.833   6.164  0.0324 -0.2590  0.2876
14890W        W57906  10.374  18.367   7.192  0.2433 -0.0755 -0.2374
14891W        W57907  21.566  12.947   6.286  0.1309  0.2121  0.3270
14892W        W57908  13.273  16.235  26.994 -0.0679 -0.1207  0.0625
14893W        W57909  22.519   2.912   4.693 -0.2755  0.2485 -0.1495
14894W        W57910  11.074  13.928  28.339  0.1354  0.0203  0.1896
14895W        W57911   8.862  19.183   5.021  0.2167  0.0683 -0.1949
14896W        W57912  17.902  28.192   8.517 -0.0268  0.3070  0.1138
14897W        W57913  25.098  14.066  25.673 -0.1672 -0.0294 -0.0157
14898W        W57914  15.551  15.509  28.618 -0.1049 -0.1388 -0.0997
14899W        W57915  13.635  21.455   1.979  0.0211 -0.0014  0.0608
14900W        W57916   6.571  15.974   6.738 -0.3207  0.1515  0.1154
14901W        W57917  20.515  20.651   8.400 -0.1812  0.0176  0.1229
14902W        W57918  19.616   7.044  27.555  0.1897 -0.0362  0.1556
14903W        W57919  19.219  21.973   6.394 -0.0330 -0.2121  0.2414
14904W        W57920  20.981  25.048  20.904 -0.1391 -0.0258 -0.0537
14905W        W57921  26.625  22.715   5.326  0.2656  0.0351  0.3156
14906W        W57922  26.564  18.991   8.174  0.2545  0.1287 -0.2054
14907W        W57923  22.295   8.375   0.011  0.0380  0.0485  0.0612
14908W        W57924  23.809  13.810   4.995  0.2968  0.1212  0.0581
14909W        W57925  23.441   9.335   4.052 -0.0701 -0.0968 -0.3403
14910W        W57926  11.796   5.549   3.408 -0.1804 -0.1796 -0.0023
14911W        W57927   6.609   2.649   9.924 -0.0026  0.2465  0.0632
14912W        W57928  29.841  34.738   9.656  0.0761 -0.2081 -0.0842
14913W        W57929  18.978   0.269   2.938  0.1468 -0.0188 -0.2514
14914W        W57930  24.158  21.176  10.041 -0.0777 -0.5521  0.0946
14915W        W57931  11.273  11.220   3.523  0.2853  0.1297  0.1099
14916W        W57932  25.784  11.109   8.254 -0.2665  0.1007 -0.3364
14917W        W57933  26.708  16.186   3.332  0.1263  0.1683  0.2264
14918W        W57934  29.188  16.174   2.467 -0.2437 -0.0867  0.2608
14919W        W57935  14.863  25.942  29.135 -0.1828 -0.1644  0.2554
14920W        W57936  15.627  24.455  28.042 -0.0428  0.0260  0.0352
14921W        W57937  17.753  19.287  27.532  0.2283 -0.0184  0.0885
14922W        W57938  16.259  24.828  21.718 -0.2618  0.1515 -0.0402
14923W        W57939  22.352  17.731   0.701 -0.1509 -0.1905  0.0789
14924W        W57940  14.208  21.696   3.230  0.2260  0.0363 -0.1706
14925W        W57941  10.506  26.309   6.287 -0.1877  0.0115 -0.3090
14926W        W57942  22.719  25.163   4.437  0.4152  0.0297 -0.0135
14927W        W57943  17.851  28.561   6.929  0.2270 -0.0684 -0.1298
14928W        W57944  21.402  16.426   3.894  0.1268  0.1923  0.0870
14929W        W57945   3.279  15.632  10.267 -0.1375  0.1141  0.0860
14930W        W57946  26.928  17.035   2.311 -0.0704 -0.3477  0.1965
14931W        W57947  16.716  21.651  25.680 -0.0444  0.0123  0.0106
14932W        W57948  21.374  17.799   2.527  0.0261 -0.2601 -0.0568
14933W        W57949   1.541   1.092   6.209 -0.3612  0.1740  0.2301
14934W        W57950  31.417  21.641   9.019 -0.1729 -0.1598 -0.0615
14935W        W57951   0.610  12.284   1.356 -0.0761  0.1542  0.0321
14936W        W57952  29.995  14.833  10.235 -0.1195 -0.0741 -0.0569
14937W        W57953  22.234  17.068  20.974 -0.0053 -0.1327 -0.2644
14938W        W57954  30.456  16.427  26.644 -0.0526 -0.1479  0.0624
14939W        W57955  13.509   7.992   3.049 -0.0072  0.0641 -0.0544
14940W        W57956  26.279  24.609   1.057 -0.2939 -0.0509 -0.0092
14941W        W57957  12.116   7.763   7.918 -0.1152  0.1090  0.1305
14942W        W57958  18.705  18.028  20.658 -0.1667 -0.1287  0.1593
14943W        W57959  18.360  17.851   5.802 -0.2054 -0.0680  0.2517
14944W        W57960   6.568   0.175   6.560  0.3639  0.0606  0.0468
14945W        W57961  13.278  26.876   4.845  0.0053  0.0339  0.0196
14946W        W57962  20.933  14.191   6.892 -0.0911 -0.3291  0.1585
14947W        W57963  14.155  12.760   3.723 -0.0177  0.2658 -0.0938
14948W        W57964  22.893  24.202   8.720  0.3447 -0.0593 -0.0619
14949W        W57965  16.321  19.940  22.165  0.0008  0.2166  0.1385
14950W        W57966   3.289   1.876   4.285 -0.3334  0.1701  0.1224
14951W        W57967  23.192  34.081  10.058 -0.0705  0.2020  0.2136
14952W        W57968  17.255  25.718   8.499 -0.1041  0.0495  0.0442
14953W        W57969  11.210  31.452   5.075 -0.1190 -0.2028 -0.2424
14954W        W57970  25.945  25.242  10.371  0.1070 -0.4434  0.0285
14955W        W57971  12.708  29.075   4.204  0.0668  0.0953  0.1522
14956W        W57972  11.993   7.866  25.322 -0.2348 -0.4026 -0.1918
14957W        W57973  18.403   9.245   5.200 -0.0388  0.0871  0.0745
14958W        W57974  28.760  10.796   1.832 -0.1189  0.0404 -0.2818
14959W        W57975  22.205  30.624  21.495  0.1759 -0.1345  0.4877
14960W        W57976  32.573  11.496   5.769  0.0773  0.2390 -0.1666
14961W        W57977  26.517   7.203  19.029 -0.0016 -0.2472 -0.0781
14962W        W57978  23.482  19.298  27.278  0.0751 -0.1501 -0.0937
14963W        W57979   7.696   7.912  24.407  0.0470 -0.0725 -0.0161
14964W        W57980  32.202  17.792   9.807  0.3348 -0.0438 -0.2168
14965W        W57981  26.931   5.381   8.423  0.0506  0.2576  0.3311
14966W        W57982  25.754  16.413   7.236 -0.1058  0.0716 -0.0670
14967W        W57983  18.617  34.123   8.317 -0.0110  0.1771 -0.2274
14968W        W57984  26.023  18.681   5.692 -0.3503 -0.1929  0.1914
14969W        W57985  26.408  23.732   8.643 -0.1394 -0.1288  0.3080
14970W        W57986   8.081  30.167   8.075  0.2252 -0.0312 -0.2242
14971W        W57987   4.424  26.381   6.521 -0.2353 -0.0791 -0.1715
14972W        W57988  11.435  15.675   4.548 -0.2143  0.1831  0.2717
14973W        W57989  25.974   9.542   5.037  0.2716 -0.0126 -0.2337
14974W        W57990  14.671   6.835   1.104 -0.0351 -0.1267  0.1987
14975W        W57991  26.853   5.263   4.302  0.0456  0.0289 -0.2222
14976W        W57992   4.939  21.160   9.421 -0.0801 -0.1075  0.0551
14977W        W57993  16.191  30.269  21.222  0.1337  0.2180 -0.1720
14978W        W57994  24.189  23.915   8.795 -0.1727 -0.0124 -0.1028
14979W        W57995  29.757  30.435   0.927 -0.1518  0.3851  0.1197
14980W        W57996  26.816  15.325   4.223 -0.0825  0.1343 -0.0512
14981W        W57997  15.887  23.837   4.946  0.0070 -0.0861 -0.1074
14982W        W57998  12.441  29.830   5.537  0.0684 -0.0035 -0.0657
14983W        W57999  15.423  21.577  28.655  0.1530  0.0111 -0.2737
14984W        W58000  14.763  20.627  29.040 -0.1657 -0.3546 -0.0353
14985W        W58001  15.359  20.493   6.153 -0.2168  0.0551 -0.0760
14986W        W58002   7.380  15.979   0.438  0.0336 -0.2574  0.0307
14987W        W58003  16.206  13.444   3.440  0.2066  0.3144 -0.1683
14988W        W58004  13.472   8.666  24.527 -0.2065 -0.1722 -0.0804
14989W        W58005  22.135  24.909   8.028 -0.1867  0.2101 -0.0585
14990W        W58006  17.201  11.411  17.948 -0.1915  0.0712 -0.0069
14991W        W58007  26.611  20.635   4.242 -0.0424  0.1325  0.2160
14992W        W58008  31.318  20.398  19.705 -0.0853  0.0778  0.0578
14993W        W58009  12.448  20.459   7.356 -0.2469  0.0288 -0.1202
14994W        W58010  32.414  21.825   7.430 -0.0367 -0.3613 -0.2701
14995W        W58011  24.493  25.632   7.230 -0.1573  0.0554 -0.0791
14996W        W58012   4.011  30.544   1.658 -0.2049  0.1231  0.0855
14997W        W58013  33.281  28.094  29.270 -0.1293  0.0317  0.0925
14998W        W58014  22.419  23.668  22.636 -0.0489 -0.1651  0.3752
14999W        W58015  25.611  23.727  10.711 -0.0454 -0.0054  0.0514
15000W        W58016  24.482  15.054   7.702 -0.2383 -0.2526 -0.0135
15001W        W58017  10.584   2.966   9.182 -0.0041  0.1162  0.0757
15002W        W58018  13.011  30.244  10.087 -0.4556 -0.3951 -0.1381
15003W        W58019  23.103  26.058   6.962 -0.1966 -0.0790 -0.1136
15004W        W58020  30.472  15.859  25.485  0.2668 -0.2610 -0.0219
15005W        W58021   8.416  22.522   0.570  0.0558  0.2865  0.0670
15006W        W58022   7.105  21.639   6.774  0.0913 -0.1629  0.0342
15007W        W58023  19.838  17.207   6.568 -0.4775 -0.3054 -0.2757
15008W        W58024  22.203  17.501  22.193  0.1414 -0.0069 -0.2582
15009W        W58025  15.683   8.717   9.414  0.0497 -0.0791  0.0787
15010W        W58026  24.258   2.959  10.607  0.0419  0.0066 -0.0846
15011W        W58027  18.443  16.895  27.945  0.0632 -0.0134 -0.0806
15012W        W58028   1.971   9.448   4.662  0.0275 -0.1577 -0.0762
15013W        W58029  23.943  25.628   8.068  0.2928  0.1842 -0.0327
15014W        W58030  22.463  27.372   6.489  0.1302 -0.2926  0.2577
15015W        W58031   8.906  16.232  28.315 -0.1182 -0.0190 -0.0118
15016W        W58032  28.532  26.287  16.112  0.4703 -0.1692 -0.0033
15017W        W58033   9.914  26.672   8.975  0.1617 -0.1288  0.3022
15018W        W58034  15.650  13.641  22.881  0.4540  0.1020  0.4347
15019W        W58035  27.352  10.313  10.457 -0.1827 -0.4627  0.1953
15020W        W58036  22.117  24.638   7.628 -0.1978  0.2110  0.0659
15021W        W58037  22.997  26.941  10.526 -0.1640 -0.0387 -0.1484
15022W        W58038  29.907  25.136  19.856  0.0998 -0.0675  0.1506
15023W        W58039  19.787   2.355   4.554 -0.3777  0.1548 -0.5946
15024W        W58040  28.001  16.757   2.338 -0.1931  0.1712 -0.1510
15025W        W58041  12.296   6.628  25.221 -0.1362 -0.3532 -0.0401
15026W        W58042  29.084  21.028   4.342 -0.0609 -0.0152  0.0913
15027W        W58043  22.930  16.213  23.468  0.1252  0.1642  0.0316
15028W        W58044  12.467   0.102  26.451 -0.1153  0.1993 -0.0618
15029W        W58045  27.616  17.968   8.476  0.1791 -0.2262 -0.0483
15030W        W58046  24.497  13.745   6.215 -0.2207  0.0674  0.1340
15031W        W58047  12.897   4.101   4.218  0.2342  0.1083 -0.2817
15032W        W58048  10.294  22.784  19.005 -0.0691 -0.1166  0.1158
15033W        W58049   6.304  26.511   9.096  0.2685 -0.0959 -0.1194
15034W        W58050  28.769  17.779   7.838 -0.2725 -0.0054  0.3744
15035W        W58051  31.820  15.671   5.861  0.1745  0.0403  0.0318
15036W        W58052  13.398  13.352   3.346  0.1419  0.1096  0.0121
15037W        W58053  14.634   9.612   5.830 -0.0607 -0.0967 -0.0458
15038W        W58054  23.313  31.869   2.330  0.1252  0.2101 -0.0526
15039W        W58055  15.910  30.995   8.232 -0.2003  0.1258 -0.2571
15040W        W58056  22.096   3.125  28.397 -0.1657 -0.1025  0.2847
15041W        W58057  15.607  11.798   3.484 -0.0678  0.0809 -0.1453
15042W        W58058  12.116   8.295   4.307  0.0993 -0.2491  0.2212
15043W        W58059  21.097  29.014   8.391  0.2707  0.2555  0.0214
15044W        W58060  20.933  14.772   0.156 -0.1267  0.0822  0.0860
15045W        W58061   2.305  23.327  25.255  0.0124 -0.0574  0.0007
15046W        W58062  23.103  24.179   9.810 -0.1769  0.0498 -0.0362
15047W        W58063   6.696  20.098   0.347  0.0654 -0.1419 -0.0270
15048W        W58064  19.500  20.578   2.099 -0.2418  0.0436  0.2958
15049W        W58065  31.688   2.623   6.446  0.0773 -0.0357 -0.2074
15050W        W58066   7.953   1.313  28.025  0.0101  0.2785 -0.0202
15051W        W58067  25.307  19.122   1.654  0.1909  0.1992  0.0923
15052W        W58068  25.483  15.958   4.792  0.2883  0.1130 -0.0196
15053W        W58069   2.198  18.357  10.167 -0.3164  0.1589 -0.1761
15054W        W58070  22.374  33.179   8.745 -0.1530 -0.2152 -0.1601
15055W        W58071  12.453  19.611  29.264 -0.3066  0.2856  0.2004
15056W        W58072  20.417  27.563   8.783 -0.0048  0.1158 -0.0590
15057W        W58073  31.806  17.494   1.411 -0.1432  0.1003  0.2087
15058W        W58074   7.424  21.915  16.546 -0.1957 -0.3365  0.1015
15059W        W58075  11.756  18.647   1.509  0.1749 -0.0825 -0.1243
15060W        W58076  28.732  29.158   6.797  0.2211  0.5439 -0.1002
15061W        W58077  17.289  21.654  21.989 -0.1094 -0.0134 -0.2717
15062W        W58078  23.867  12.399   7.921  0.0823 -0.0233 -0.3005
15063W        W58079  18.520  23.071   4.158 -0.0862 -0.0280 -0.0831
15064W        W58080  31.850  14.920   9.560 -0.3602 -0.1005 -0.0227
15065W        W58081  13.457   5.518   4.186 -0.2072 -0.1436  0.0896
15066W        W58082  13.581  20.507   6.714  0.0603  0.1130 -0.2790
15067W        W58083  14.190  19.650   7.822 -0.2203 -0.1732 -0.0819
15068W        W58084  16.585  20.107   7.478  0.2814  0.3599  0.2312
15069W        W58085  20.031   5.357   5.911 -0.0829  0.2875  0.1209
15070W        W58086  19.274  17.844   9.278  0.1446  0.1446  0.0043
15071W        W58087  10.487   8.441   8.729  0.2249 -0.0365 -0.2719
15072W        W58088  18.005  27.413   4.176  0.2689  0.0898  0.0073
15073W        W58089  20.751  23.246   4.330 -0.0885  0.3672  0.0078
15074W        W58090   7.120   0.717  10.197 -0.2859  0.0876 -0.1383
15075W        W58091  29.908  19.391   6.109  0.0026 -0.0455 -0.1548
15076W        W58092  21.158   9.031   8.185  0.1243 -0.0468 -0.0469
15077W        W58093  15.566  13.291  25.615  0.2214  0.0417 -0.0799
15078W        W58094  13.294  23.635   4.187 -0.1763 -0.4007  0.0016
15079W        W58095  28.176  11.835   1.864 -0.1521 -0.1616  0.1435
15080W        W58096  18.220  22.799   8.350  0.2883 -0.0719 -0.2129
15081W        W58097   4.875  34.003  22.451 -0.1613  0.3157 -0.2182
15082W        W58098  16.439  23.979  24.818  0.0447 -0.0390 -0.2883
15083W        W58099  12.001  28.241   9.991 -0.1382 -0.2191  0.1127
15084W        W58100  14.891  18.768   3.771  0.0120  0.0111  0.0273
15085W        W58101  15.303  22.057   7.902  0.0395  0.2108 -0.1310
15086W        W58102  20.886  24.954   3.464 -0.1520  0.0851 -0.0220
15087W        W58103  32.166  29.565   8.894  0.0129  0.0671 -0.1112
15088W        W58104  15.159  30.238   0.809 -0.3542  0.1384 -0.0545
15089W        W58105  18.897  17.576  21.052 -0.1877  0.0962  0.1928
15090W        W58106  29.216  26.025  16.069  0.2035 -0.0148  0.1159
15091W        W58107  20.126  15.079   0.463 -0.0272  0.3625  0.3042
15092W        W58108   3.892  22.847   4.394  0.2331 -0.0673 -0.2389
15093W        W58109  23.847  25.089   7.416 -0.0447  0.2288  0.1396
15094W        W58110  28.489  14.959   0.143  0.1090  0.0806 -0.0800
15095W        W58111  21.847  15.497   7.206  0.0211 -0.0398 -0.2129
15096W        W58112  23.887  17.650   4.305  0.2724 -0.0278 -0.1440
15097W        W58113  16.987  21.745   8.810  0.0207  0.0637  0.1228
15098W        W58114   1.490   0.866   3.867 -0.2347 -0.1150  0.1433
15099W        W58115  10.504  30.978   4.495 -0.2069 -0.0845 -0.0172
15100W        W58116  24.232  24.194   0.073  0.3010 -0.0672 -0.3161
15101W        W58117  30.339  29.097   7.473 -0.0826  0.2036 -0.0448
15102W        W58118  16.646  18.696  29.100 -0.1909 -0.0138  0.0505
15103W        W58119  27.171  15.333   0.948  0.1185 -0.1495  0.0621
15104W        W58120  14.259  19.288  24.062  0.2116  0.2857 -0.0599
15105W        W58121  21.085  15.908  24.698 -0.0593 -0.3041 -0.1721
15106W        W58122  14.531  18.369  13.969  0.2357 -0.0859  0.1429
15107W        W58123   0.043  24.471   6.472  0.4923  0.0300  0.3338
15108W        W58124  29.044  17.798  27.012 -0.1284 -0.3023  0.1700
15109W        W58125  24.944  19.123   0.585 -0.2468 -0.2945  0.0644
15110W        W58126  27.232  21.838   9.180 -0.0706 -0.2230 -0.0020
15111W        W58127  24.832   9.624   6.434 -0.2246  0.1554  0.1608
15112W        W58128  29.456  29.047  23.227  0.0537 -0.6828 -0.1254
15113W        W58129  13.658  23.793   1.240 -0.3044 -0.1554 -0.1627
15114W        W58130  10.075   9.383   4.955  0.1825 -0.2620  0.0667
15115W        W58131  11.154  18.338  28.505 -0.3011 -0.1525 -0.0306
15116W        W58132  14.709  25.293   6.816  0.2539 -0.0754  0.2649
15117W        W58133   0.622  20.166   5.644 -0.0753  0.3418 -0.1050
15118W        W58134  14.128  28.427   3.890 -0.0038  0.0380 -0.1968
15119W        W58135  23.371  26.752   6.746  0.2605  0.1791 -0.1379
15120W        W58136  23.513  34.278  26.384 -0.0037  0.0934  0.2653
15121W        W58137  30.206  13.759   4.959 -0.0930  0.1782 -0.0412
15122W        W58138  29.415  24.049  25.793 -0.2228  0.0141 -0.0143
15123W        W58139  28.486   0.495   8.901  0.0641  0.1335 -0.1672
15124W        W58140  29.280  14.637   9.790 -0.0078 -0.0888 -0.1442
15125W        W58141  16.571  13.146   5.960  0.1142 -0.3694  0.2399
15126W        W58142  25.383  21.686   9.435  0.3773  0.1533  0.0310
15127W        W58143  13.212  17.954  21.267 -0.3385  0.0628 -0.0094
15128W        W58144   9.807  16.540   6.498 -0.2338 -0.0193  0.1437
15129W        W58145  22.996  19.450   2.089  0.2853  0.1582  0.2884
15130W        W58146   0.027  23.650   1.048  0.1420  0.4560 -0.2409
15131W        W58147  14.525   4.116  21.150  0.1616 -0.0471  0.1871
15132W        W58148  25.615  18.201   1.403  0.0559  0.0473  0.0366
15133W        W58149   3.942  27.101  26.242  0.0490  0.4267 -0.1899
15134W        W58150  12.020  20.602   5.614 -0.0285  0.1072  0.0846
15135W        W58151   6.089  17.579   5.857 -0.0724  0.0139  0.1630
15136W        W58152  20.820  32.608   2.096 -0.0463  0.0829 -0.1103
15137W        W58153  32.909  22.569   3.449 -0.2520  0.3408  0.1714
15138W        W58154  19.140   7.658   0.738  0.2832 -0.2232  0.1181
15139W        W58155  13.978  18.598  25.709  0.0564 -0.0365 -0.1367
15140W        W58156  13.273  28.308  23.292  0.0274 -0.0675 -0.1357
15141W        W58157  19.263  17.266  23.736  0.2406  0.3386  0.3196
15142W        W58158  19.109  19.655   2.504 -0.1805  0.0261 -0.3065
15143W        W58159  32.726  21.176  11.092  0.1679 -0.0157  0.0216
15144W        W58160  13.002  22.624   2.307  0.0666 -0.1125 -0.0557
15145W        W58161   9.847  25.398  28.958 -0.1096 -0.2469 -0.0887
15146W        W58162   9.768  28.441   7.072  0.2117  0.1482  0.0176
15147W        W58163  28.318   0.919   4.747 -0.4550  0.1661 -0.1561
15148W        W58164  21.515  18.383  26.035  0.1775 -0.0266  0.0130
15149W        W58165  24.806   4.399  27.961  0.1494  0.2516 -0.0721
15150W        W58166  21.171   8.134   0.688  0.0452  0.0069  0.4787
15151W        W58167  21.464  28.925   6.340  0.1555 -0.1774 -0.0250
15152W        W58168  29.432  27.249  27.865  0.0382  0.0680  0.0254
15153W        W58169  12.333  12.757  22.174  0.0191 -0.2344  0.4281
15154W        W58170  24.191  27.831   5.050 -0.2164  0.1759  0.2169
15155W        W58171   8.660  23.699   1.109  0.0302  0.0334  0.1031
15156W        W58172  18.356  16.845   1.871  0.1730  0.2627 -0.0916
15157W        W58173  27.580  25.875  18.379 -0.0526  0.3199 -0.3012
15158W        W58174  18.182   9.358   6.294 -0.2153 -0.2511  0.1056
15159W        W58175  10.479  17.174   4.413  0.2473 -0.0477  0.0382
15160W        W58176  19.312   4.116   7.258  0.0398  0.1444  0.0785
15161W        W58177  29.745   1.582  26.869  0.3060 -0.0376 -0.1535
15162W        W58178   4.672  24.434   0.377 -0.0933 -0.1912 -0.0619
15163W        W58179  20.080  10.746  20.382 -0.1690 -0.0946 -0.0962
15164W        W58180  25.036  13.458  22.731 -0.0931  0.1878 -0.2810
15165W        W58181  24.692  32.933   0.083  0.1516 -0.0757 -0.1141
15166W        W58182  24.663  34.161   7.886  0.1562  0.3774 -0.3125
15167W        W58183  12.998  19.676  20.050 -0.1718 -0.2761  0.2116
15168W        W58184  33.333  21.295  22.439 -0.0408 -0.3230 -0.1409
15169W        W58185  19.559  23.834  25.609  0.1946  0.2035  0.3297
15170W        W58186   8.001  24.441  19.435  0.2225  0.0817  0.0934
15171W        W58187   8.212  34.016  22.274 -0.0048 -0.0654 -0.2184
15172W        W58188  24.285  14.491   1.493 -0.0509 -0.2375  0.1511
15173W        W58189  14.502   7.210   6.239  0.2382 -0.2562  0.0266
15174W        W58190  19.779  13.262   6.298  0.1146 -0.0815  0.0609
15175W        W58191  20.040  23.435  19.087 -0.1288  0.0813  0.4659
15176W        W58192  28.962   0.503   0.840 -0.0145 -0.0736  0.4833
15177W        W58193  32.113  26.273  27.986  0.0908 -0.2386 -0.2131
15178W        W58194  20.748  32.789   7.204  0.2484  0.0935  0.1283
15179W        W58195  10.863  24.746   7.112 -0.1339  0.1604 -0.1702
15180W        W58196   4.307  29.176   7.113 -0.0758  0.0163  0.1596
15181W        W58197  22.714  24.788   9.470  0.0810 -0.0317 -0.0608
15182W        W58198   5.905  10.160  18.035 -0.0819 -0.2053 -0.2566
15183W        W58199  26.243  25.242  27.377  0.2907 -0.0900  0.0936
15184W        W58200  24.094   7.670   8.682 -0.2308 -0.0155  0.0737
15185W        W58201   4.842  26.097  19.057 -0.0848 -0.0340 -0.3795
15186W        W58202  27.020  33.771   5.100 -0.0084  0.1972  0.3051
15187W        W58203  33.822  20.445   0.788  0.1529 -0.1040  0.1211
15188W        W58204  26.543  24.758  26.937  0.0735  0.0553 -0.1133
15189W        W58205  15.868  25.325   6.090 -0.2146 -0.0957  0.1713
15190W        W58206  22.933  21.384  23.855 -0.2356 -0.0282 -0.2051
15191W        W58207  12.934  31.821   3.906  0.2848  0.1862  0.0424
15192W        W58208  15.737  14.753   3.296 -0.1723  0.1400  0.1475
15193W        W58209  25.957  15.747   2.648  0.0531 -0.0735  0.3759
15194W        W58210   5.766  32.185   6.117 -0.2440  0.2454 -0.0162
15195W        W58211  15.182  15.050   8.705  0.0754 -0.1100  0.1885
15196W        W58212  12.495  21.840   8.150 -0.0215 -0.1543  0.0919
15197W        W58213  24.533  16.355   4.994 -0.1040  0.0883  0.2903
15198W        W58214  16.780  16.156  21.043  0.1467  0.2168  0.0357
15199W        W58215  21.006   1.092   6.929  0.2036  0.1771  0.0033
15200W        W58216  13.018  15.281   7.718 -0.3888 -0.1515  0.1049
15201W        W58217  12.357  10.192   5.178 -0.0697  0.1946  0.0162
15202W        W58218  10.288  30.732  22.633 -0.0334  0.0127 -0.0242
15203W        W58219   0.651  11.217   2.586 -0.2046 -0.0251  0.1680
15204W        W58220  28.598  28.187  10.666 -0.2655  0.2996  0.2115
15205W        W58221  21.226  14.616  12.279 -0.0870 -0.2996 -0.0457
15206W        W58222   1.060  31.405   7.535  0.0394 -0.1443 -0.0102
15207W        W58223  26.213   3.524   1.696 -0.2227 -0.0959 -0.1112
15208W        W58224  26.198  19.439  28.437 -0.1022  0.0852  0.0331
15209W        W58225  26.542   1.656  22.312 -0.2427  0.0187 -0.2053
15210W        W58226  27.740  12.939  24.927  0.0431 -0.0907 -0.1481
15211W        W58227  18.784  30.992   9.566 -0.0130 -0.0349 -0.0667
15212W        W58228   6.856  28.796  28.538  0.0521  0.2256 -0.1204
15213W        W58229   8.957  17.323   8.067 -0.3107 -0.0189 -0.0845
15214W        W58230  21.563  19.872   0.024  0.0808 -0.3913 -0.5251
15215W        W58231  29.840  13.829  24.852 -0.3109  0.3395  0.0327
15216W        W58232  14.203   7.419  28.238 -0.1754  0.3164 -0.0367
15217W        W58233  19.053  24.344  25.478 -0.0187 -0.0843 -0.2040
15218W        W58234   7.861  12.275   1.931  0.0230  0.4281 -0.2391
15219W        W58235  24.297  29.984  24.401 -0.2104  0.5109  0.4938
15220W        W58236  28.783  16.836   6.485 -0.0436 -0.0028  0.2315
15221W        W58237   9.815  20.660  20.394  0.3121 -0.1359  0.2051
15222W        W58238  18.372  30.283   5.056 -0.1654  0.0213 -0.1728
15223W        W58239  19.989   3.121   8.205 -0.1754  0.0037 -0.0436
15224W        W58240  18.373  24.863  19.336  0.1949  0.2912  0.3006
15225W        W58241  23.881  16.670   1.595  0.3215  0.1387  0.0218
15226W        W58242  10.622  16.777  20.771  0.0402 -0.0350 -0.3709
15227W        W58243  15.950  19.391   0.731  0.2076  0.1620  0.0432
15228W        W58244   5.097   7.512  23.856  0.0237  0.0121 -0.0381
15229W        W58245  18.169  13.817  19.947 -0.0313 -0.1837  0.0156
15230W        W58246  13.020  21.337   3.227  0.5590 -0.2908  0.1080
15231W        W58247  16.682   9.959  25.210 -0.1646 -0.1890  0.0890
15232W        W58248  28.937  24.915   2.320 -0.0674 -0.0482 -0.2400
15233W        W58249  30.139  27.434   7.918 -0.1066  0.0237  0.0398
15234W        W58250  33.893  19.661  10.383  0.0430 -0.2082 -0.3152
15235W        W58251  15.455  24.681   9.301  0.1062  0.0598 -0.1469
15236W        W58252  10.559  27.856  18.631  0.0745 -0.1672  0.1544
15237W        W58253  22.949  23.648  17.538  0.0872  0.0844 -0.3296
15238W        W58254  18.865  24.623   8.503  0.0707 -0.0859 -0.2874
15239W        W58255  10.360  16.810   7.163 -0.1964  0.0865  0.1671
15240W        W58256  11.324  19.885   6.916 -0.0136 -0.0719 -0.0555
15241W        W58257  16.815  14.956   1.337 -0.1959 -0.0450  0.2574
15242W        W58258  14.507  23.320  16.772  0.6280  0.2470  0.0494
15243W        W58259  12.479  25.648   4.988 -0.3668 -0.0313  0.1769
15244W        W58260  21.180  25.370  28.476  0.3293 -0.3165 -0.1322
15245W        W58261   5.399   1.441  18.676 -0.0471 -0.0822 -0.1281
15246W        W58262  21.836  24.692  24.213  0.1620 -0.1063  0.0290
15247W        W58263  28.107  30.187   8.237  0.1458  0.0606 -0.1743
15248W        W58264  11.063   2.296  21.284  0.1367  0.1915 -0.2129
15249W        W58265   5.798  11.856   1.109  0.3779 -0.2426 -0.0986
15250W        W58266  20.692  30.077   1.797 -0.2504  0.1667 -0.3222
15251W        W58267  18.138  31.228   7.047  0.1627  0.0871 -0.3607
15252W        W58268  14.306   5.169   0.186 -0.0758  0.0844  0.2821
15253W        W58269  12.492  10.558   2.520 -0.1421 -0.1126  0.0759
15254W        W58270   0.208  28.512   2.893 -0.0339  0.1660 -0.0848
15255W        W58271  20.910  32.548  27.972  0.1452 -0.3776 -0.0216
15256W        W58272  11.656  10.842   4.744 -0.0579  0.0653 -0.0316
15257W        W58273  23.234  32.948  19.912  0.2939  0.0654  0.1836
15258W        W58274   8.716  22.415  14.677  0.2618 -0.0671 -0.0051
15259W        W58275   5.671   7.650   5.471 -0.0645  0.1030 -0.5888
15260W        W58276   6.574  20.795   5.763  0.1466  0.3760  0.0539
15261W        W58277  27.507  25.247   7.568  0.0070 -0.1671 -0.3610
15262W        W58278  20.347  14.024  21.984 -0.2205  0.4583 -0.0748
15263W        W58279   6.259  29.908   7.502 -0.2091  0.1850 -0.0854
15264W        W58280  16.664  27.268   0.769  0.2394 -0.0971 -0.1749
15265W        W58281  28.324  31.235   6.846  0.1179 -0.0758 -0.1783
15266W        W58282  27.963   1.664  21.284 -0.1837 -0.2255 -0.0540
15267W        W58283  19.374  18.390   4.695 -0.2054 -0.4340  0.1595
15268W        W58284  26.849  20.406   0.903 -0.1209  0.0600 -0.0218
15269W        W58285  13.783   9.192   0.329 -0.2161  0.1566  0.0228
15270W        W58286   4.259   0.537  24.392 -0.0250  0.2028 -0.1019
15271W        W58287  19.149  28.956  16.072  0.1967  0.1083 -0.0963
15272W        W58288  10.210  28.276   5.557 -0.2354 -0.1460 -0.0216
15273W        W58289  31.100  27.859   8.349 -0.2112  0.2142  0.3328
15274W        W58290  31.234  14.584   5.165  0.2682 -0.2693 -0.2106
15275W        W58291  15.946  11.015  18.665  0.1239  0.0295  0.0774
15276W        W58292   9.955  30.320   5.517  0.0416 -0.0920 -0.3588
15277W        W58293  17.858  18.056  17.918 -0.0279 -0.2059 -0.0537
15278W        W58294  11.003  27.259   9.558  0.0677 -0.0718  0.0228
15279W        W58295  31.936   3.100   2.497  0.2454  0.1041 -0.2454
15280W        W58296  26.355  12.270   8.043  0.2109  0.0199 -0.0401
15281W        W58297   5.516  27.499   4.509  0.0665  0.0725  0.1911
15282W        W58298  19.545  17.316  20.691 -0.1153  0.1469  0.0034
15283W        W58299  18.715   7.922   9.025 -0.1053 -0.3345 -0.2717
15284W        W58300  19.061  15.258  20.056  0.0160 -0.3741  0.1395
15285W        W58301  20.242  21.492   3.238  0.0393 -0.1284  0.2463
15286W        W58302  19.053  16.285   6.814 -0.1541  0.3796 -0.0984
15287W        W58303  30.433  29.197   6.305  0.1252  0.3491 -0.0484
15288W        W58304  18.203  27.725   3.750  0.0043 -0.0875  0.2051
15289W        W58305  21.799  28.549  25.943  0.1359  0.1194  0.0040
15290W        W58306   6.773  18.188  14.192  0.3002  0.0788 -0.3721
15291W        W58307  31.232  14.224  19.905 -0.1246  0.0348  0.0133
15292W        W58308  26.424  12.001   8.481  0.0254  0.1514 -0.1621
15293W        W58309  15.493  27.017   1.271  0.1149 -0.0850  0.0960
15294W        W58310   7.664   1.671  20.030  0.3910  0.0723 -0.1986
15295W        W58311  16.961  11.096   1.090  0.0372  0.1828  0.2441
15296W        W58312  14.120   3.215   2.115  0.4273 -0.0335 -0.1076
15297W        W58313  30.097   1.494   8.470  0.3024  0.3488  0.0611
15298W        W58314  25.700  28.516  25.900 -0.1349 -0.2909 -0.2021
15299W        W58315  25.497  19.646   2.543 -0.0490  0.1448  0.1999
15300W        W58316  18.794  31.376  26.971  0.1621 -0.5914  0.1107
15301W        W58317  21.982  15.787  28.054 -0.2474 -0.4397  0.0945
15302W        W58318  25.452  10.233   2.294  0.0530  0.0495 -0.0603
15303W        W58319  32.864  26.269  25.918 -0.1760 -0.1596  0.0456
15304W        W58320  31.309  25.577   4.120 -0.0541 -0.0038  0.0879
15305W        W58321  12.847  24.867   3.788 -0.0514  0.2831 -0.1374
15306W        W58322   8.728  19.092  20.383  0.1806  0.3168 -0.1081
15307W        W58323  20.145  21.409   3.795  0.0132 -0.2163 -0.2338
15308W        W58324  20.317   8.000  25.675  0.0753 -0.1369 -0.2196
15309W        W58325  27.623  28.156  17.430 -0.2338  0.3469 -0.2227
15310W        W58326  29.733  11.397  18.756 -0.0703 -0.1492  0.3775
15311W        W58327  12.074  20.988   8.073  0.0583 -0.0603  0.0727
15312W        W58328   4.650  12.125  21.594 -0.0080  0.0822 -0.1589
15313W        W58329   6.085  10.732   4.874 -0.0112 -0.2461  0.0974
15314W        W58330  24.052  11.450   8.066 -0.0130  0.0090  0.0924
15315W        W58331  12.607   7.428  24.466 -0.1923 -0.5060 -0.0175
15316W        W58332   9.112  21.299   7.965 -0.2567  0.1847 -0.0814
15317W        W58333  19.165  33.091   7.175 -0.2601  0.0987 -0.0683
15318W        W58334  18.253   2.151  28.350 -0.0207  0.0634 -0.3144
15319W        W58335   6.044  33.545   5.625 -0.0992 -0.0655 -0.1756
15320W        W58336  18.028  21.843  24.908  0.1066 -0.1500 -0.3029
15321W        W58337  17.615   4.274   9.695 -0.0346  0.0049  0.0543
15322W        W58338  22.906  31.601  24.192 -0.0819 -0.1139 -0.2043
15323W        W58339  21.842  31.728  24.693 -0.1710 -0.0670 -0.3081
15324W        W58340   3.613   5.522  22.227 -0.3259 -0.1512  0.1286
15325W        W58341  29.661  18.898   2.886 -0.0367  0.2288 -0.1500
15326W        W58342  15.066  24.096   7.625 -0.1203 -0.0142  0.1702
15327W        W58343  31.807   1.533  29.237  0.4151  0.3389 -0.2144
15328W        W58344   0.960  30.663   3.437 -0.1442  0.0442  0.1800
15329W        W58345   3.584   6.684  21.409 -0.1366  0.1917 -0.1385
15330W        W58346  13.395  22.187  17.850 -0.1424 -0.1336 -0.2606
15331W        W58347  22.575  18.544   6.717 -0.0829 -0.0058  0.0899
15332W        W58348  19.236  29.411  15.856  0.1652 -0.1624 -0.1879
15333W        W58349  20.995  17.050   5.700  0.0907  0.0448  0.0422
15334W        W58350  16.052  15.415  15.302  0.0464 -0.0441 -0.2751
15335W        W58351  30.973  23.094  26.580 -0.0227  0.0137 -0.0945
15336W        W58352  12.739  25.412   5.877  0.3192 -0.3135 -0.5304
15337W        W58353  25.568  26.128  25.257 -0.1180 -0.4377  0.2365
15338W        W58354   2.595  10.836  21.377 -0.1881 -0.1155  0.1920
15339W        W58355  21.606  10.035   1.890  0.3367 -0.1892  0.1500
15340W        W58356  23.104  20.274   7.084 -0.0371  0.0143 -0.3794
15341W        W58357   8.629  19.734   7.644 -0.0285 -0.0421  0.0922
15342W        W58358  20.782  22.931  26.310  0.1357 -0.0372  0.0625
15343W        W58359  27.709  25.096  11.498  0.2472  0.1452 -0.3305
15344W        W58360  16.595  22.578  23.353  0.0536  0.1472  0.1181
15345W        W58361  19.197   0.642   5.873 -0.0153  0.1653 -0.2567
15346W        W58362   3.941  20.997  16.667 -0.4871  0.2749 -0.0163
15347W        W58363  29.699  22.019   2.126 -0.3310  0.1607  0.3345
15348W        W58364   9.452  14.128   0.087 -0.1248 -0.1673  0.1324
15349W        W58365  10.880  21.412  27.294  0.0254 -0.1167  0.0742
15350W        W58366  30.787   2.119   8.334 -0.1417 -0.3781  0.0178
15351W        W58367  10.777   0.533  25.500  0.0612  0.1402 -0.1201
15352W        W58368  14.718  21.645  23.642 -0.1470  0.0356  0.0680
15353W        W58369   7.171   3.963   1.106  0.1257 -0.0619 -0.2755
15354W        W58370  25.022  17.115   5.231  0.0483 -0.3928  0.0117
15355W        W58371   0.690  15.021  10.450  0.6086 -0.1588 -0.2116
15356W        W58372   8.979  25.816  27.194 -0.2355 -0.1048  0.3047
15357W        W58373  19.025  27.226   8.388  0.0038 -0.0859 -0.1793
15358W        W58374   2.581   4.359  26.136  0.1627 -0.1804  0.0100
15359W        W58375  25.548  14.561  24.492 -0.1470  0.0412  0.2994
15360W        W58376  14.930  24.705   2.230  0.0916  0.0631  0.0791
15361W        W58377  15.881  13.701   1.610  0.0768  0.0417  0.2015
15362W        W58378  12.261   7.358   6.317  0.0535  0.1043  0.2912
15363W        W58379   1.245   8.605  10.458  0.0125 -0.3167 -0.2500
15364W        W58380  22.252  32.591  26.325 -0.0419 -0.0637 -0.0643
15365W        W58381  30.208  33.842   5.433 -0.1756  0.0362  0.1545
15366W        W58382  19.619  24.480   6.810 -0.1606  0.2079  0.2758
15367W        W58383  33.650  22.303   2.039 -0.0413  0.0386 -0.2067
15368W        W58384  16.631  17.707   3.295  0.0120 -0.0229  0.2464
15369W        W58385  24.206  22.333   3.806 -0.0659 -0.0940 -0.1102
15370W        W58386  31.502  23.628   9.137 -0.3326  0.2153 -0.0169
15371W        W58387  29.388   9.408  22.938 -0.0376  0.0329  0.2254
15372W        W58388  22.498  15.511   2.760 -0.0380 -0.2538  0.1794
15373W        W58389  18.862  26.944  24.381  0.1952  0.2904 -0.3084
15374W        W58390  28.558  20.811   4.058  0.1570  0.2595  0.0444
15375W        W58391  32.776  30.922  10.994 -0.2587 -0.2591 -0.1088
15376W        W58392  31.046  17.904   5.583  0.2829  0.3270  0.2555
15377W        W58393  14.281  24.743   2.817 -0.2294 -0.1707 -0.1737
15378W        W58394  32.356  21.944   9.894 -0.1717 -0.4583 -0.6609
15379W        W58395  28.961  16.529   4.890 -0.0644  0.1190 -0.3621
15380W        W58396  27.889   0.286   2.450  0.0513 -0.1891 -0.2108
15381W        W58397  21.146   4.717   7.981 -0.2813  0.2925 -0.1835
15382W        W58398  32.788  19.407   2.188 -0.0120  0.2296 -0.3008
15383W        W58399  11.930  15.553   6.349  0.3042 -0.0440 -0.0482
15384W        W58400  23.401  18.457   7.173 -0.0122 -0.0122  0.1114
15385W        W58401   5.243  19.320   2.406  0.1011  0.3525  0.3501
15386W        W58402  17.249  23.966   3.728  0.0288  0.1411 -0.1121
15387W        W58403  10.566  28.868   2.153 -0.0775 -0.2860 -0.1696
15388W        W58404  22.891  26.982  27.677 -0.1755 -0.2845  0.3866
15389W        W58405  14.868  26.345  18.117  0.0378  0.5447 -0.0521
15390W        W58406   7.226  16.783   5.676 -0.1524  0.1959 -0.1142
15391W        W58407  29.315  10.538   5.774 -0.0436 -0.1337  0.1146
15392W        W58408  18.901  27.240  26.439  0.1499  0.2538 -0.2839
15393W        W58409  27.962  21.169  17.503 -0.1239 -0.1291 -0.1365
15394W        W58410  32.369   9.152   4.034 -0.1220 -0.0193 -0.1528
15395W        W58411  25.497   8.823   0.696  0.4499 -0.0646  0.0170
15396W        W58412   0.622  12.435   5.783 -0.1095  0.2398  0.1621
15397W        W58413  14.487  34.087   9.651 -0.0870  0.3103  0.0104
15398W        W58414  20.669  10.626  27.912 -0.0984 -0.1809  0.1542
15399W        W58415  20.416  31.792   6.033  0.0993  0.1035 -0.2775
15400W        W58416  29.545  22.403  28.012  0.0514 -0.1800  0.1996
15401W        W58417  24.686  23.272   7.000  0.2228 -0.0297 -0.0429
15402W        W58418  34.511  10.693   4.273  0.1938  0.1597 -0.0415
15403W        W58419  17.252  19.761  21.227  0.1400  0.5044  0.1680
15404W        W58420  21.100  22.999   6.126 -0.1094 -0.0092  0.1329
15405W        W58421   9.752   3.180  14.430  0.1017 -0.0407 -0.1021
15406W        W58422  16.396  13.819  28.167  0.2038  0.0136  0.1388
15407W        W58423  18.364  14.483  20.640  0.0157 -0.0828  0.1353
15408W        W58424  15.410  25.890   4.472  0.1539 -0.1895  0.1717
15409W        W58425  11.545  12.921   8.232  0.0256  0.1415  0.2485
15410W        W58426  14.998   4.792   7.524  0.5311 -0.0534 -0.1847
15411W        W58427  25.454  17.719  10.485  0.2419  0.0249 -0.0309
15412W        W58428   1.659  15.381   4.901  0.0220  0.0698  0.2522
15413W        W58429  26.396  14.267   4.336  0.3767 -0.0383 -0.0230
15414W        W58430  23.087  22.150  25.730 -0.3788 -0.0981  0.3745
15415W        W58431  12.321  26.058  27.669  0.0996 -0.0203 -0.1944
15416W        W58432  28.948  31.222  21.198  0.1058 -0.0443  0.1853
15417W        W58433  16.819  31.147   8.553 -0.4487  0.0420  0.0282
15418W        W58434  30.790  27.949  11.044 -0.1418 -0.0784  0.0330
15419W        W58435  30.982  31.775   8.840 -0.1522  0.0548  0.1392
15420W        W58436  21.969  19.064   8.702  0.0666 -0.1312  0.0471
15421W        W58437  22.541  25.445   7.288  0.1525 -0.3001 -0.2192
15422W        W58438  20.729  22.592   2.788  0.0997 -0.3537  0.1900
15423W        W58439   0.587  27.642   3.501 -0.1217  0.1586 -0.3160
15424W        W58440  20.013  20.548   1.193  0.2093  0.2697  0.0384
15425W        W58441  14.305  18.737  20.070 -0.0421  0.3286 -0.1212
15426W        W58442  18.351  29.595  10.715  0.1654 -0.1172 -0.2041
15427W        W58443  20.988  17.906  24.344 -0.1949  0.0441  0.3090
15428W        W58444  23.632  23.436  24.696 -0.2150 -0.1020  0.1455
15429W        W58445  34.440  24.537   2.757 -0.1372  0.0414  0.1205
15430W        W58446  25.085  23.307  15.979  0.1727 -0.0424 -0.1463
15431W        W58447  18.285  32.443  27.224  0.0150  0.1380  0.2985
15432W        W58448   2.760  15.463   4.085 -0.2176  0.1146 -0.1832
15433W        W58449   2.976  27.551   6.002 -0.2479  0.2252 -0.1441
15434W        W58450  11.322  29.833  25.809 -0.0088 -0.2264  0.1620
15435W        W58451  29.262  20.866   2.220 -0.3281  0.0063  0.4564
15436W        W58452  22.573  29.467  24.190 -0.1987  0.0401 -0.1016
15437W        W58453   8.197  15.753  28.768  0.1060  0.1306 -0.2549
15438W        W58454  27.465  32.508  23.691  0.0340  0.0099  0.0265
15439W        W58455  15.404  29.128  28.597  0.2519 -0.1602 -0.0478
15440W        W58456  27.025  22.166  28.425  0.2242  0.1930  0.1619
15441W        W58457  22.785  28.836  10.170 -0.0828 -0.0692 -0.0780
15442W        W58458  18.668  30.860   8.503  0.1449 -0.2303 -0.0649
15443W        W58459  21.225  33.561   5.149  0.4094 -0.0698  0.1865
15444W        W58460  10.442  21.717  23.275  0.0453  0.3089  0.0397
15445W        W58461   4.987  15.918   5.186 -0.0514 -0.0586 -0.0557
15446W        W58462   7.686  19.157  28.561  0.1731 -0.0461  0.0888
15447W        W58463   1.353   8.070   0.723 -0.0862  0.1698 -0.0558
15448W        W58464  32.999  27.024   8.610 -0.0043  0.0233  0.2993
15449W        W58465  13.993  20.318  27.087  0.2753 -0.2525  0.0054
15450W        W58466   6.396  15.568   4.473 -0.0658 -0.0468 -0.3826
15451W        W58467  13.765  25.739   9.539  0.2824 -0.1214  0.0518
15452W        W58468  28.197  10.553   8.055  0.3497 -0.1146  0.1308
15453W        W58469  25.668   9.091  23.269 -0.0774 -0.0127  0.2315
15454W        W58470  14.640   7.583   3.736 -0.3120 -0.2474 -0.1281
15455W        W58471  29.560  28.106   8.209 -0.0247 -0.3244 -0.0757
15456W        W58472  29.970  10.091   2.234 -0.0591  0.1559  0.2947
15457W        W58473  14.374  18.987  27.793 -0.0625 -0.1329  0.0518
15458W        W58474   7.455   4.052  18.275  0.2996 -0.0393 -0.1441
15459W        W58475  10.285  22.456   1.967  0.0746 -0.1164 -0.2785
15460W        W58476  28.035   8.695  23.783 -0.0438  0.1460  0.0701
15461W        W58477  28.941  16.513   3.342 -0.0855  0.1059 -0.0545
15462W        W58478  14.854  22.941   6.629 -0.0144 -0.0765  0.1042
15463W        W58479  12.887  27.890   7.513 -0.0592 -0.0689 -0.2147
15464W        W58480   2.429  17.586  27.064 -0.2033  0.1129  0.1290
15465W        W58481  15.935  20.745  23.710 -0.2119 -0.0312  0.0637
15466W        W58482   1.885  15.626  25.702 -0.0091 -0.0647  0.1089
15467W        W58483  24.652  26.840   9.491 -0.3470  0.0412 -0.1087
15468W        W58484  15.876  26.835  14.905 -0.1500 -0.0415 -0.0173
15469W        W58485  28.552  20.377   8.852 -0.0463  0.0401  0.1802
15470W        W58486   6.732  19.208   4.644 -0.0271 -0.0541  0.0180
15471W        W58487  21.251  33.593   7.893 -0.0091 -0.1223  0.2854
15472W        W58488  10.713  24.141   4.257  0.0456  0.4937  0.0570
15473W        W58489  28.204  29.545  24.759  0.1257  0.2252 -0.3061
15474W        W58490  25.488  10.381  28.621  0.0848 -0.1499 -0.0341
15475W        W58491   5.411  16.401   1.092 -0.0773 -0.0285  0.1196
15476W        W58492   7.678  28.316   5.918  0.1519 -0.1021 -0.2864
15477W        W58493  12.075  10.553   2.292  0.2626 -0.2383  0.3598
15478W        W58494  24.883  29.118   8.784 -0.3894 -0.1949 -0.0333
15479W        W58495   1.924  21.124   0.545 -0.1592  0.0211  0.0263
15480W        W58496  14.292  20.912  21.456  0.0791  0.0548  0.0848
15481W        W58497  18.403   5.157   9.459 -0.2815  0.0866 -0.1986
15482W        W58498  21.986  18.062   0.040 -0.1070  0.0239 -0.0452
15483W        W58499  28.175  29.629   5.438  0.1108  0.1729 -0.3333
15484W        W58500   2.130  20.268   3.045  0.2806  0.1780 -0.1963
15485W        W58501  30.058  25.701   2.335 -0.1747 -0.1226  0.1904
15486W        W58502  26.027  25.318  28.476  0.1206 -0.2160 -0.0825
15487W        W58503  12.799  10.511  27.138  0.0534 -0.2261 -0.1712
15488W        W58504  19.324  17.968   6.685  0.0957  0.3100 -0.0030
15489W        W58505  15.137  21.640  29.109 -0.0661  0.1893  0.0071
15490W        W58506   7.101  31.144   3.183 -0.0486 -0.0102  0.2055
15491W        W58507  16.870  28.872  25.856  0.0169 -0.0967  0.0175
15492W        W58508  12.998  15.809  27.068 -0.0222  0.2420 -0.0953
15493W        W58509  12.524   7.636   8.221  0.0672 -0.1915 -0.3437
15494W        W58510  20.309  19.085  20.858  0.1356  0.1575  0.0947
15495W        W58511  10.450  26.429  17.596 -0.1937 -0.1145  0.1288
15496W        W58512  14.600  13.533  28.925 -0.0505  0.1651 -0.3063
15497W        W58513  26.952   9.453   2.981  0.1229 -0.0111 -0.3334
15498W        W58514  13.625  16.231  23.861 -0.4086 -0.0188  0.1229
15499W        W58515   0.831  12.559   4.089  0.1484  0.0724 -0.1260
15500W        W58516   7.034  14.999  28.274  0.1296 -0.1370 -0.2535
15501W        W58517  28.019  20.372  21.803  0.0948  0.1172 -0.2379
15502W        W58518   9.722   0.453   0.342  0.0291  0.0151  0.1379
15503W        W58519  29.698  15.447   0.838 -0.1038  0.2548 -0.0750
15504W        W58520  11.205  20.356   4.551 -0.0088  0.0748 -0.0960
15505W        W58521  31.320  15.905   8.890 -0.4320  0.3661 -0.6714
15506W        W58522   8.096   9.772   1.969 -0.0308 -0.0682  0.0196
15507W        W58523  33.914  23.139  26.403  0.2983 -0.1304 -0.1658
15508W        W58524  16.339  10.417  20.404  0.2719 -0.0925 -0.3059
15509W        W58525  12.277  15.543  17.208 -0.1986  0.1238  0.2683
15510W        W58526  13.928  24.946   7.893  0.0276  0.0848  0.3568
15511W        W58527   3.811  25.740   6.546 -0.0279 -0.1806  0.0281
15512W        W58528  20.615  17.616  27.536  0.0482 -0.0659  0.2115
15513W        W58529  25.310  20.095   1.325 -0.0013  0.1623 -0.1677
15514W        W58530  24.784  25.649  28.115  0.0990 -0.1657  0.3468
15515W        W58531  11.920  19.557   2.194  0.3390 -0.0701  0.1440
15516W        W58532  16.824  30.568   7.451  0.0255 -0.1297 -0.1013
15517W        W58533   2.666  22.847  18.414  0.0159 -0.1330 -0.1355
15518W        W58534  26.166  13.635   5.946  0.0846  0.1791 -0.0181
15519W        W58535  10.453  15.444   6.401 -0.0912 -0.0360 -0.2006
15520W        W58536  26.581  21.323  23.513  0.2385  0.0851  0.0870
15521W        W58537  25.972  22.037   0.271 -0.0581  0.0223 -0.3185
15522W        W58538  13.393  30.457  26.899  0.4279 -0.1813  0.3847
15523W        W58539  23.547  24.440  25.875 -0.0864  0.4951 -0.0441
15524W        W58540  25.192  19.142  26.476  0.0560 -0.2465 -0.1763
15525W        W58541  24.054  32.962  27.371 -0.0728 -0.0540 -0.0024
15526W        W58542   5.855  20.134   4.376  0.1113  0.3298  0.2912
15527W        W58543  22.873  30.876  21.839 -0.1955 -0.2282  0.0298
15528W        W58544  33.786  26.048   6.374  0.1799 -0.4323 -0.0510
15529W        W58545  31.821  13.603  19.832 -0.0424 -0.0006 -0.2106
15530W        W58546  18.314  11.856  20.590  0.0578  0.0345  0.1038
15531W        W58547  29.105  19.322  29.125  0.2704  0.0486 -0.3115
15532W        W58548  24.695  32.223  10.591  0.2300 -0.0092  0.0128
15533W        W58549  15.856   4.978   9.920 -0.1205  0.1844  0.1198
15534W        W58550   3.662  23.937   7.884 -0.1156  0.1079  0.0014
15535W        W58551  25.632  26.717   8.708 -0.0358  0.0923 -0.3189
15536W        W58552   8.102  20.978   8.023 -0.1144  0.0850 -0.1412
15537W        W58553  30.493  21.949   0.142  0.1081  0.1350 -0.0398
15538W        W58554  19.072  19.218  27.880 -0.0448  0.0900  0.3820
15539W        W58555  25.266  22.705  21.286  0.0986  0.3637  0.1007
15540W        W58556   6.500  33.368  27.996 -0.0363 -0.0599  0.0084
15541W        W58557  12.703  19.945  20.362 -0.0380  0.1060  0.1253
15542W        W58558  15.569  16.224   6.750 -0.0739 -0.0127 -0.2405
15543W        W58559  22.508  34.125   7.892  0.1815 -0.2404 -0.0715
15544W        W58560  15.992  12.614   2.278  0.4880  0.2192 -0.3972
15545W        W58561   2.588  26.052  28.032  0.1895  0.2053  0.0476
15546W        W58562  31.238  27.819  26.628  0.0138 -0.0527  0.2150
15547W        W58563  10.405  15.997  17.558  0.0035  0.0275  0.0292
15548W        W58564  28.963  13.179  28.916 -0.1113  0.0700 -0.1167
15549W        W58565  19.865  18.849  24.721  0.1286 -0.0923 -0.0759
15550W        W58566  27.105  18.810  24.280 -0.2611  0.0040 -0.2724
15551W        W58567  18.867  21.381   6.076 -0.3775 -0.2465  0.1234
15552W        W58568  25.918  24.561   3.151  0.1361  0.1034 -0.2902
15553W        W58569  13.439   8.457  15.377 -0.0930  0.0535  0.0207
15554W        W58570  21.078  13.715   5.984  0.1024 -0.0738  0.1427
15555W        W58571  25.642  27.830   3.394 -0.1594  0.2521  0.4181
15556W        W58572  17.060   2.406   7.263 -0.1402 -0.1105 -0.3148
15557W        W58573  25.319   4.491   4.379 -0.0069  0.0201  0.1103
15558W        W58574   5.322  31.853   6.957 -0.2754 -0.1330 -0.3683
15559W        W58575   7.148  26.726  26.975 -0.1990  0.1934  0.1384
15560W        W58576  28.615  17.671   2.801  0.1250  0.0021  0.0891
15561W        W58577  23.804  12.062  24.322 -0.1820 -0.2244 -0.2063
15562W        W58578  10.037  20.662   3.611  0.3813 -0.2321 -0.3220
15563W        W58579  18.696  30.209   8.616 -0.0808 -0.0295 -0.1094
15564W        W58580  13.165  19.478   2.051 -0.2002  0.0005  0.1077
15565W        W58581  32.042  22.763   4.065 -0.0940 -0.1497 -0.0181
15566W        W58582  24.025  31.859   6.760  0.1623  0.1668  0.0633
15567W        W58583  22.027  25.848   9.855 -0.1121 -0.0868 -0.2490
15568W        W58584  17.779  29.951   8.370  0.3018 -0.3516 -0.3017
15569W        W58585   8.408  26.372   7.863 -0.2224  0.1255  0.1241
15570W        W58586  20.529   9.171  26.583  0.1513  0.0953  0.0656
15571W        W58587  13.945   6.757   9.170  0.3477  0.2196 -0.2137
15572W        W58588  24.043  17.982  20.558 -0.0152 -0.0852 -0.1633
15573W        W58589  20.039  15.788   6.543 -0.2265  0.0819  0.1960
15574W        W58590   4.986  23.478  27.682  0.0617  0.1096 -0.0593
15575W        W58591   8.188  27.152  24.821  0.0046 -0.0868 -0.1562
15576W        W58592  13.642  29.893  26.247  0.0150  0.1564  0.1937
15577W        W58593  27.971  19.805   3.220 -0.0588  0.3914 -0.1425
15578W        W58594  30.718  11.589   4.302  0.5090  0.0671 -0.0999
15579W        W58595   7.802   0.505  28.358 -0.0420  0.1281 -0.2021
15580W        W58596  26.806  10.049   4.171  0.2183  0.1352 -0.0593
15581W        W58597  33.587  23.773   7.861  0.2947 -0.3584 -0.1272
15582W        W58598  21.320  23.024  28.595  0.1640 -0.2852 -0.0483
15583W        W58599  10.869   6.513   3.274 -0.2096 -0.0275 -0.1499
15584W        W58600   9.835  22.807  25.303  0.3070  0.3549 -0.1097
15585W        W58601  25.000  28.502  25.774  0.1247  0.2668 -0.0635
15586W        W58602  10.048  26.540   7.516 -0.3294 -0.2140 -0.0096
15587W        W58603  22.989   7.786   8.522  0.0094 -0.0814  0.4079
15588W        W58604   7.711  19.363  27.540  0.0884  0.1662  0.0770
15589W        W58605  15.531  17.427   5.842  0.0152 -0.1021 -0.1657
15590W        W58606  24.003  16.791   2.622  0.3673 -0.0936  0.0139
15591W        W58607  14.110  25.273   7.408  0.0276 -0.2554  0.0347
15592W        W58608  28.203  30.662  18.485 -0.1061  0.0667  0.3313
15593W        W58609  26.564  12.842  15.832  0.2962 -0.3056  0.1651
15594W        W58610  29.970  19.421  28.978  0.0834 -0.1570  0.0930
15595W        W58611  20.574   2.703  15.604  0.0591 -0.0806  0.0729
15596W        W58612   3.379  22.326  28.614  0.1689  0.0488  0.0815
15597W        W58613  26.452  24.492   3.715 -0.2923 -0.0028  0.2365
15598W        W58614  13.581  14.857   0.689  0.1233 -0.0558  0.2728
15599W        W58615  32.133  12.326   0.895  0.2720  0.2833 -0.0999
15600W        W58616  12.849  30.366  10.593 -0.2565  0.0477 -0.0653
15601W        W58617   8.564  21.521   3.856  0.2714 -0.0922 -0.0096
15602W        W58618  27.149   1.377   3.381  0.2476 -0.0314 -0.2954
15603W        W58619  29.675  23.480  23.728 -0.1064  0.0885  0.1222
15604W        W58620  25.922  31.296  27.716  0.0571 -0.0590  0.1051
15605W        W58621   4.413  22.521   1.644  0.0519  0.1881 -0.2498
15606W        W58622  22.568  23.789   8.833 -0.2989  0.2215 -0.0670
15607W        W58623  17.828  15.176  25.446  0.1243 -0.0801 -0.0765
15608W        W58624  18.561  17.169  21.094  0.0497 -0.3870 -0.1400
15609W        W58625  17.788  19.659  25.330  0.1025 -0.1211 -0.0203
15610W        W58626  27.874  22.909   5.718 -0.2449  0.1525  0.1019
15611W        W58627  26.323   9.198   3.646  0.0783  0.0942  0.0756
15612W        W58628  10.999  15.147  16.745 -0.1168  0.1077 -0.1912
15613W        W58629  17.743  15.450  20.876 -0.0590  0.2464  0.2059
15614W        W58630  15.726  28.089  26.916  0.1096 -0.4182 -0.0322
15615W        W58631  14.815   9.247   6.148  0.0096 -0.1537 -0.1964
15616W        W58632  27.692   5.220   6.162  0.0562  0.0139  0.2116
15617W        W58633   4.771  28.926  27.217 -0.0242 -0.3942  0.3508
15618W        W58634  13.486  25.704  25.919 -0.1626 -0.3583  0.1198
15619W        W58635   4.334  28.827   3.338 -0.1788  0.0434 -0.0684
15620W        W58636  13.624   6.979   7.882  0.0250  0.4746  0.3154
15621W        W58637  24.498  12.062  15.438 -0.0478  0.1932  0.1476
15622W        W58638  19.230  32.898   7.789  0.1835  0.0562  0.0083
15623W        W58639  14.005  31.261  10.428 -0.0970 -0.1658 -0.2873
15624W        W58640  14.037  15.483   7.058 -0.0836 -0.0168  0.0872
15625W        W58641  26.034  20.192   3.778  0.0321  0.3991 -0.0297
15626W        W58642  20.664  19.641   7.606  0.0706 -0.1750 -0.1359
15627W        W58643  13.512  25.803  28.087 -0.3850  0.2721 -0.0845
15628W        W58644   8.686  32.774   4.451 -0.0511 -0.3337  0.2032
15629W        W58645  26.967   5.675   9.810 -0.1894  0.1771 -0.1523
15630W        W58646  22.888  25.720   8.876 -0.0963  0.0086 -0.0831
15631W        W58647   5.730  16.583   7.274  0.0968 -0.0740  0.2148
15632W        W58648  20.411   7.794   4.139 -0.0660  0.2698  0.0562
15633W        W58649   7.220  29.393  15.680  0.0925  0.1643 -0.1253
15634W        W58650  23.048  30.556   3.138 -0.0119 -0.1826  0.1131
15635W        W58651  34.756  14.566  22.522  0.0747 -0.4017 -0.0699
15636W        W58652  17.377  12.919   5.875 -0.2272 -0.0657 -0.0557
15637W        W58653  19.978  25.376   8.029 -0.2384  0.0449  0.0569
15638W        W58654   1.424  12.786   1.078  0.1198  0.1398 -0.3123
15639W        W58655  16.008  23.864  24.560  0.1749 -0.0226  0.1659
15640W        W58656  29.173  26.348   6.282  0.0930 -0.0783  0.0382
15641W        W58657  18.291  19.387  29.160 -0.2544  0.0574  0.0443
15642W        W58658  16.060  21.283   5.534  0.1765 -0.2849 -0.1278
15643W        W58659  19.325  10.848  26.660  0.0950 -0.1724 -0.2982
15644W        W58660   8.315  13.734   9.375 -0.1451 -0.2510 -0.1393
15645W        W58661  26.649   6.045   9.722 -0.1086  0.1695  0.1591
15646W        W58662  11.766  34.718  23.592 -0.0599 -0.0442  0.0148
15647W        W58663  11.169   8.762   7.302  0.1074  0.2115 -0.0034
15648W        W58664  26.325  15.043   9.501  0.0030  0.1912 -0.2040
15649W        W58665  31.021  23.796  24.645  0.1438 -0.0007  0.2507
15650W        W58666  25.337  26.270   8.538 -0.0314  0.0185 -0.3353
15651W        W58667  23.338  21.378   0.639  0.0511 -0.2317  0.1107
15652W        W58668   9.750  14.778   4.092 -0.2870  0.0105  0.1364
15653W        W58669  22.780  27.460  22.122  0.0452 -0.1664 -0.0795
15654W        W58670  11.603  31.152   8.910 -0.1153 -0.1080  0.0364
15655W        W58671   9.028  25.877   0.978 -0.0309 -0.0447  0.0241
15656W        W58672  10.844  34.038  25.085 -0.2234  0.0471  0.0272
15657W        W58673  20.971  34.226  10.011  0.0520 -0.2283 -0.2502
15658W        W58674  11.895  11.514   7.379  0.0868  0.0631  0.1440
15659W        W58675  32.514   2.880  17.853 -0.0181  0.0912  0.0392
15660W        W58676  15.394  24.287  19.258  0.2566  0.3438 -0.2679
15661W        W58677  20.325  26.078   0.738  0.1668  0.4370 -0.1435
15662W        W58678  10.363  20.627   7.636 -0.0026 -0.0708  0.1196
15663W        W58679   8.096  24.252   6.993  0.0743  0.1934  0.2249
15664W        W58680  16.899  25.184   0.234 -0.1523  0.1646 -0.0606
15665W        W58681  14.344  13.477   5.570  0.1455 -0.0143  0.0199
15666W        W58682  30.710  31.073  22.277  0.1911  0.0915 -0.5226
15667W        W58683   5.762  15.206  26.916  0.0170  0.0024  0.2896
15668W        W58684  12.990  33.220   2.518  0.1114 -0.0931 -0.0078
15669W        W58685  18.281  11.123   8.243  0.0298 -0.2416 -0.0115
15670W        W58686  18.702   0.444   7.056  0.0325 -0.2074  0.1832
15671W        W58687  31.913   4.168   2.263  0.3153  0.1716  0.3082
15672W        W58688  20.011  16.357   6.550  0.0687 -0.1846 -0.0719
15673W        W58689  21.397   1.957   2.683 -0.2171 -0.0706  0.0180
15674W        W58690   1.678  13.385   4.239 -0.0711 -0.2186 -0.2005
15675W        W58691  21.248   6.873   3.721 -0.1633  0.3846 -0.2201
15676W        W58692  21.087  12.319   1.785  0.2812  0.2860  0.3150
15677W        W58693   6.494  10.621   5.192 -0.0517  0.1435  0.1146
15678W        W58694  24.906  23.364  17.089 -0.0427  0.0843  0.2509
15679W        W58695   2.895  20.699   8.774 -0.0519 -0.0264 -0.0718
15680W        W58696  27.309  26.301   5.869  0.0072  0.1934  0.0820
15681W        W58697  19.859  30.976   7.266 -0.1299  0.2003 -0.0966
15682W        W58698  18.995   1.231  23.881 -0.0044 -0.4721 -0.0043
15683W        W58699  19.593  22.776   4.184 -0.1203 -0.2007 -0.2715
15684W        W58700  15.696  21.867   8.449 -0.0312 -0.1947 -0.3742
15685W        W58701  13.680  13.770   4.039 -0.2321  0.0853 -0.1735
15686W        W58702  30.885   6.432   2.458 -0.1819  0.0900 -0.0231
15687W        W58703  21.102  13.730  24.537 -0.0187 -0.0123 -0.0977
15688W        W58704  15.291  15.220   5.704  0.3257 -0.0975  0.2810
15689W        W58705  17.763  20.629  24.373 -0.1588  0.0810 -0.3015
15690W        W58706   7.430  25.675   9.949 -0.2138  0.0796 -0.1822
15691W        W58707  33.190  33.688  10.195 -0.1304 -0.3032  0.0693
15692W        W58708  22.967  32.013  26.196  0.0074 -0.1934  0.0550
15693W        W58709  21.466  13.333   1.068 -0.3297  0.2668 -0.2062
15694W        W58710  22.490  23.672  28.318  0.0844  0.0309  0.1902
15695W        W58711   3.558  20.061  23.922  0.1321  0.1621 -0.0031
15696W        W58712  27.781  29.273   5.911 -0.1274 -0.0199 -0.1084
15697W        W58713   5.200  16.994  27.424 -0.4983 -0.0883  0.1290
15698W        W58714  11.128   0.894  20.740  0.0094 -0.0816  0.2753
15699W        W58715  30.517  32.239   7.147 -0.2222  0.2752 -0.0799
15700W        W58716  21.978   6.942  23.489  0.1742  0.4931  0.3092
15701W        W58717  29.671   0.859   9.483 -0.0724  0.2121 -0.0116
15702W        W58718  24.272   6.464   9.929 -0.2235 -0.1817  0.0839
15703W        W58719   3.903  24.239   6.002  0.0611  0.2327 -0.1467
15704W        W58720  19.245   5.250  22.319  0.0056  0.0300 -0.1732
15705W        W58721  20.088  34.019   8.592  0.2225 -0.1999 -0.4579
15706W        W58722  16.754  33.726   4.487  0.1561 -0.0445  0.2206
15707W        W58723  17.853  28.330  10.338 -0.2309  0.3576  0.0642
15708W        W58724  26.958  26.031   0.760  0.0336  0.2034 -0.0907
15709W        W58725  10.312  25.925  27.971  0.0203  0.1780  0.1199
15710W        W58726  25.900  15.717  28.487 -0.1367 -0.1839  0.2907
15711W        W58727   4.379   0.636   7.239  0.1473  0.2084  0.0347
15712W        W58728  14.137  15.656  19.563  0.2663 -0.1253 -0.0144
15713W        W58729  32.177  29.090   9.705 -0.0842  0.1153 -0.1471
15714W        W58730  19.620  30.639   6.534 -0.1450 -0.0506  0.2560
15715W        W58731  28.261  13.650   5.876  0.1194  0.0761 -0.2242
15716W        W58732  22.593  34.750   9.858  0.2959  0.0932  0.0479
15717W        W58733   2.220  18.018  26.314  0.1186 -0.2735  0.1298
15718W        W58734  23.690  13.755  24.549  0.2713  0.0476  0.1076
15719W        W58735  24.623  26.774   8.268  0.2404 -0.1771 -0.3128
15720W        W58736   1.121  25.933   7.621  0.0156  0.0865  0.1344
15721W        W58737  15.090  18.319  19.656  0.0977  0.0860 -0.3620
15722W        W58738   2.221  13.929  23.867  0.1024  0.0947  0.0713
15723W        W58739  22.072  12.793   7.204 -0.1915  0.2313 -0.0268
15724W        W58740  29.315  27.758   3.535 -0.1240  0.1698  0.2483
15725W        W58741  19.250  13.711   0.490 -0.0788  0.3261 -0.1087
15726W        W58742   3.083  19.725   2.712 -0.2339 -0.0789  0.1185
15727W        W58743  17.250  14.523  13.197  0.1976  0.1900 -0.0473
15728W        W58744   0.772  11.640  11.004  0.4016  0.1542 -0.2634
15729W        W58745  15.549  23.464  25.198 -0.2521 -0.1607 -0.5567
15730W        W58746  15.661  34.771   6.186 -0.1094 -0.1052 -0.0277
15731W        W58747  11.683  14.690  17.322 -0.4689  0.0434 -0.1570
15732W        W58748  17.794   7.832   0.631  0.0554  0.4255 -0.1652
15733W        W58749  16.898  29.021   9.675  0.0233 -0.1716  0.4281
15734W        W58750  21.244  27.982   6.091 -0.0134 -0.0510 -0.2892
15735W        W58751   6.612  25.308   9.347  0.0386  0.2074  0.2646
15736W        W58752   1.696  28.457   7.150  0.1024 -0.0948 -0.0165
15737W        W58753  13.070  27.769   4.181 -0.1609 -0.1556 -0.2256
15738W        W58754  11.823  20.036   6.651 -0.1216 -0.3818 -0.0166
15739W        W58755  14.886  29.844   8.896  0.2068  0.0848  0.0224
15740W        W58756  23.953  15.148   7.740  0.2265 -0.2575 -0.1724
15741W        W58757  20.115  11.383   1.895 -0.2074 -0.2033 -0.0630
15742W        W58758  29.969  22.252   0.092 -0.0023 -0.2568 -0.0975
15743W        W58759  27.274  19.965   7.678 -0.1612 -0.4077 -0.0734
15744W        W58760  31.973  23.560  28.021 -0.0886 -0.2666  0.0485
15745W        W58761  19.183  34.559   3.626  0.2010  0.2097  0.0463
15746W        W58762  15.612  29.938   6.689 -0.1759  0.0342 -0.0548
15747W        W58763   5.346  23.238  22.003 -0.2013  0.1502 -0.0669
15748W        W58764  17.122  32.604   5.395  0.3257 -0.1009 -0.0279
15749W        W58765  26.094  13.770   5.489  0.1370  0.0195  0.0125
15750W        W58766  12.299  15.418  26.804  0.0053 -0.3119  0.3888
15751W        W58767  14.670   6.750   6.860  0.0399  0.1768 -0.0062
15752W        W58768  28.519  21.021   0.146 -0.1776 -0.1980 -0.1921
15753W        W58769  19.226  11.208   7.947  0.1283  0.0121  0.1939
15754W        W58770  17.422  16.832   3.572 -0.0664 -0.2388 -0.1461
15755W        W58771  20.381  19.259  23.444  0.0083  0.0769  0.2094
15756W        W58772  25.776  19.532   7.964  0.2389 -0.0291  0.0113
15757W        W58773  30.156  21.154   1.733  0.0392 -0.2445  0.5181
15758W        W58774  13.657  18.381  27.452 -0.1311 -0.0942 -0.3168
15759W        W58775  19.117  10.428  28.880  0.0710  0.1753 -0.1953
15760W        W58776  15.100  11.883   3.763  0.0707  0.0887 -0.1372
15761W        W58777  19.426  19.047  25.315 -0.0333  0.1830 -0.1518
15762W        W58778  26.712  32.788   3.217  0.1050  0.0744  0.1021
15763W        W58779  26.332  29.782   4.889 -0.4583  0.1369 -0.3187
15764W        W58780  16.197  17.268  17.317 -0.2816 -0.1496  0.0598
15765W        W58781  25.482  26.528  18.723 -0.2338  0.1856  0.1058
15766W        W58782  28.903  24.895  10.079 -0.0302 -0.0499 -0.1107
15767W        W58783  16.793   2.962  27.615  0.2711  0.5472 -0.0647
15768W        W58784  16.807  31.540  25.537  0.1210  0.0376  0.0267
15769W        W58785  28.710  29.270   2.342 -0.5434  0.1788  0.0421
15770W        W58786  23.603  28.917  10.402 -0.4222 -0.0926  0.1046
15771W        W58787  21.059  31.805  10.352  0.1323 -0.4196 -0.2933
15772W        W58788  29.817   5.183   6.505  0.0657 -0.2762 -0.1184
15773W        W58789  12.881  31.921   7.760  0.0280  0.6775 -0.1062
15774W        W58790   0.444  21.346   1.537 -0.1361 -0.0645  0.1378
15775W        W58791  29.897  19.260  27.155 -0.0137  0.2124  0.3277
15776W        W58792  17.138  26.155   5.628 -0.0462 -0.4150  0.0377
15777W        W58793  25.150   6.831  28.559 -0.2575 -0.2448 -0.2624
15778W        W58794  13.354  18.119   2.278 -0.0231  0.0052  0.0250
15779W        W58795  26.121  24.209   5.095  0.0801  0.6071 -0.0454
15780W        W58796  17.638   1.180   6.555 -0.3105 -0.0766 -0.2431
15781W        W58797  19.997  28.532   8.433  0.2222 -0.3421 -0.0347
15782W        W58798  16.169  22.586  26.081 -0.1435 -0.2759  0.2004
15783W        W58799  28.433  14.285  28.022 -0.0143 -0.3097 -0.1161
15784W        W58800  32.718  24.521  25.952 -0.4087 -0.3148 -0.0617
15785W        W58801  12.407  33.585   3.652  0.1477 -0.1482 -0.0178
15786W        W58802  30.964  22.174  11.286  0.1168  0.1152  0.1597
15787W        W58803  32.813  33.085   3.445  0.3414 -0.0667 -0.4934
15788W        W58804  12.214   9.552   7.963 -0.1890  0.2775 -0.1835
15789W        W58805   3.854  13.173   3.263 -0.1405 -0.0255  0.0553
15790W        W58806  16.214   0.160   7.450  0.0849 -0.0149 -0.0178
15791W        W58807  31.470  14.418  29.307 -0.0148 -0.2460 -0.1314
15792W        W58808  27.089  24.372  15.723  0.1884 -0.0826 -0.0026
15793W        W58809  23.650   9.550   6.781  0.0136 -0.2633 -0.0151
15794W        W58810  24.330  29.114  15.489 -0.0382 -0.1694 -0.2046
15795W        W58811  31.592  26.767  16.059 -0.2698  0.5332 -0.1614
15796W        W58812   6.877   5.769   4.878 -0.0620 -0.0077  0.0537
15797W        W58813  30.439  19.887  25.420 -0.0306 -0.2351  0.1297
15798W        W58814  25.035  20.874   7.102  0.0408  0.0838 -0.0907
15799W        W58815  21.064   2.614   8.779  0.2107  0.0401  0.0413
15800W        W58816  19.346  11.005  24.209 -0.1497 -0.0574 -0.0560
15801W        W58817  22.741   1.063   4.361 -0.0090 -0.3152  0.1171
15802W        W58818  27.684  22.676   4.570 -0.1135 -0.0231 -0.2362
15803W        W58819  30.421  19.358  21.379 -0.0865  0.0280  0.0530
15804W        W58820  31.994   7.981  28.777 -0.0957  0.1604  0.0936
15805W        W58821  30.122  15.606   5.255  0.1437  0.0264 -0.2592
15806W        W58822  33.931  22.516  27.715 -0.2770 -0.0789  0.2914
15807W        W58823   0.723   7.142   2.524 -0.0772  0.1813 -0.1385
15808W        W58824  33.926  31.170   5.796 -0.2531 -0.0115 -0.0305
15809W        W58825   3.466  32.529   9.840 -0.1702 -0.3418 -0.2301
15810W        W58826  18.576   4.450   5.353 -0.2839 -0.2029  0.1296
15811W        W58827   9.674   0.031  28.085 -0.1147 -0.0464  0.1429
15812W        W58828  28.714  29.942   5.998  0.2590 -0.0859 -0.1462
15813W        W58829  13.487   4.188   1.356  0.0211  0.0489  0.1714
15814W        W58830  31.333  16.036   8.042 -0.0831 -0.0604  0.1079
15815W        W58831  28.713  27.700  24.938 -0.0866 -0.2585 -0.2769
15816W        W58832   5.714  30.700  27.251  0.0895  0.0177  0.0715
15817W        W58833  28.778  27.894   9.206  0.0022 -0.0035 -0.1988
15818W        W58834   4.801  30.481   1.902 -0.2839  0.1319  0.0380
15819W        W58835  11.190  19.383  21.908 -0.0896  0.1899  0.1126
15820W        W58836  23.214  22.972  23.553 -0.0027 -0.0088 -0.2284
15821W        W58837  21.427  11.431   4.529  0.0431 -0.2936 -0.2811
15822W        W58838  23.835  26.387   1.588  0.0846  0.2613 -0.0312
15823W        W58839  12.096   0.358   7.640  0.0088  0.0828  0.0777
15824W        W58840  30.412  23.592   1.034 -0.0304  0.1058 -0.2896
15825W        W58841  19.347  32.120   4.529 -0.1230 -0.2738 -0.1295
15826W        W58842  31.659   1.823   5.486 -0.2310 -0.2498 -0.1258
15827W        W58843  17.007   9.762  18.744 -0.2799  0.1695  0.4315
15828W        W58844  15.853  30.854  10.016  0.1689  0.5551 -0.1804
15829W        W58845  29.797  24.718   4.849  0.1362  0.0799 -0.3084
15830W        W58846  26.089  21.998   8.221 -0.2160  0.2072  0.0633
15831W        W58847  20.012  31.538   0.525  0.1043 -0.0579 -0.1668
15832W        W58848  31.046  14.809   9.550  0.0565 -0.0958  0.1740
15833W        W58849  28.059   7.064   9.577 -0.2037  0.0855  0.0607
15834W        W58850  13.233  16.338   6.612 -0.0083  0.0965 -0.1746
15835W        W58851  29.908  12.371   9.031 -0.1875 -0.1942  0.1968
15836W        W58852   9.981  12.923  29.136  0.2391 -0.0468  0.3450
15837W        W58853  18.470  19.649   8.080  0.0494 -0.0334  0.2763
15838W        W58854   9.506  13.164  25.056 -0.0256 -0.1941  0.0063
15839W        W58855  19.049  29.662   1.522 -0.1615  0.2240 -0.1194
15840W        W58856   6.137   8.291  19.458 -0.1646  0.2700 -0.2021
15841W        W58857  18.561  33.875   8.794 -0.0897  0.0511  0.2168
15842W        W58858  12.487  21.635   5.418 -0.0158  0.1346 -0.3061
15843W        W58859  32.738  14.191  21.116  0.0845 -0.1142  0.1176
15844W        W58860  19.099   8.826  19.520 -0.4167  0.1527  0.0379
15845W        W58861   2.223  33.522  22.462  0.2989 -0.1731  0.0526
15846W        W58862  34.221   0.016   8.348 -0.1808  0.0505 -0.3088
15847W        W58863  19.921  18.573   7.320 -0.1210  0.4259  0.1350
15848W        W58864  17.078  29.269   9.230 -0.1310 -0.1576 -0.0671
15849W        W58865  30.062  23.911   7.685 -0.2521 -0.0575  0.1286
15850W        W58866  29.684  14.215   4.341 -0.3419 -0.0292 -0.3639
15851W        W58867   8.716   9.489   5.009 -0.0209  0.1007  0.1209
15852W        W58868  11.393  18.596   8.849  0.6153 -0.0311 -0.2596
15853W        W58869  15.445  15.231   4.336  0.2935  0.1356  0.1377
15854W        W58870   7.977  29.095   5.955 -0.2300  0.0209  0.3651
15855W        W58871  12.174   0.561   4.042  0.1748 -0.2166 -0.4393
15856W        W58872  18.125  23.087  25.126 -0.1141 -0.0643  0.0558
15857W        W58873  21.437  30.062  24.289  0.3457 -0.1062  0.0172
15858W        W58874  17.718  21.510   3.054  0.2340 -0.0398 -0.2117
15859W        W58875  23.233   3.981   2.418 -0.0229  0.1579 -0.0618
15860W        W58876   5.590  28.298   6.281 -0.1014  0.0411  0.3249
15861W        W58877  21.089  32.112   4.196  0.2063  0.0541 -0.1375
15862W        W58878  28.165   1.242   5.530 -0.0737 -0.1756 -0.1052
15863W        W58879  21.205  23.391   1.223 -0.0991  0.0487  0.4690
15864W        W58880  17.351  33.339  17.003  0.0005 -0.1600 -0.0608
15865W        W58881  27.590  26.741   3.863 -0.0358 -0.3560 -0.0309
15866W        W58882  25.009  32.415   1.067 -0.1799 -0.2881 -0.4463
15867W        W58883  27.971  16.649  29.092  0.0511 -0.0532  0.0155
15868W        W58884  16.237  29.642   8.037 -0.1643  0.2182  0.0695
15869W        W58885  18.755  23.954   1.239 -0.0637  0.2135  0.0985
15870W        W58886  25.425  18.465   0.018  0.1279  0.0151 -0.1353
15871W        W58887  26.697  18.941   5.186 -0.2772 -0.7006  0.1955
15872W        W58888  33.049   9.637   5.331 -0.1717  0.0266 -0.1499
15873W        W58889   6.281  18.086  21.900 -0.0570  0.1422  0.1455
15874W        W58890  11.650  29.416  25.655 -0.0059 -0.0467  0.1001
15875W        W58891  26.553  14.827  27.017  0.0694 -0.1055 -0.2307
15876W        W58892  24.196  21.254   8.744  0.1525  0.2665 -0.3163
15877W        W58893  23.451  12.583  20.070 -0.4318 -0.1207 -0.0132
15878W        W58894   1.082   8.962   8.452  0.1473  0.1192 -0.3862
15879W        W58895   9.725   6.214   7.159 -0.3035  0.1174 -0.0518
15880W        W58896  12.868   8.479   1.525  0.2329 -0.1401  0.0726
15881W        W58897  31.786  21.724   9.434  0.2599  0.2802 -0.0209
15882W        W58898  19.717   9.171   6.930  0.4163  0.2632 -0.1032
15883W        W58899  16.032  12.802   4.282 -0.0605  0.0187 -0.1459
15884W        W58900  13.880  25.021  22.909 -0.1414  0.3564 -0.2400
15885W        W58901  22.420  25.961  14.478 -0.0041 -0.2995 -0.0639
15886W        W58902   0.631  14.678  26.514  0.0806  0.0571 -0.0455
15887W        W58903  16.642  19.517   0.269 -0.0985 -0.1901  0.2405
15888W        W58904  17.577   2.023  26.975  0.0848 -0.0803  0.2373
15889W        W58905   8.776  33.019   6.968 -0.2041  0.0032 -0.1526
15890W        W58906   3.297  27.035   6.736  0.2336  0.1479  0.1483
15891W        W58907  21.231  11.986  28.296 -0.1889  0.1599  0.0194
15892W        W58908  26.024   2.311  11.015  0.2763  0.0443  0.2848
15893W        W58909  17.638  23.054   3.661 -0.2086  0.2392  0.3289
15894W        W58910  19.881  12.959   8.192  0.0623  0.2618 -0.0757
15895W        W58911  20.170  11.336  28.338 -0.4109  0.1593 -0.0655
15896W        W58912   9.533  32.444   6.819  0.2789 -0.3446 -0.0438
15897W        W58913  23.766  29.922  23.950  0.1511  0.0436  0.2892
15898W        W58914  29.048  23.186   5.440  0.1996  0.0182  0.3852
15899W        W58915  13.256  25.518   2.851  0.0082 -0.1912 -0.2238
15900W        W58916  12.223  33.016   1.343 -0.0340 -0.1753 -0.1726
15901W        W58917  24.952  29.450  28.056 -0.1812  0.0324  0.0312
15902W        W58918  20.142  34.108   6.300 -0.1160  0.3306  0.0895
15903W        W58919  27.447  19.737   9.263 -0.0371  0.1225 -0.2414
15904W        W58920   2.268  22.193  26.875 -0.2070  0.2307  0.3029
15905W        W58921  15.472  23.436   5.509 -0.3394  0.0673 -0.1324
15906W        W58922  13.841  29.499   8.238 -0.1229  0.3202 -0.2916
15907W        W58923  10.791  16.998   7.349 -0.3024  0.2253  0.1540
15908W        W58924  23.136  15.108   7.051  0.0737  0.1669  0.1556
15909W        W58925  23.547  27.392   8.838 -0.1142 -0.0025  0.0275
15910W        W58926  24.384  26.823   7.799 -0.1046 -0.2256  0.2725
15911W        W58927  25.813  26.626   9.166 -0.2334 -0.3592 -0.1696
15912W        W58928   6.559   5.827  22.290 -0.0713 -0.0754 -0.4300
15913W        W58929  25.029  29.840   0.483 -0.0351  0.1088 -0.1005
15914W        W58930  24.143  14.768   4.051 -0.2677  0.0805  0.0995
15915W        W58931   4.466  23.792  17.868  0.0264 -0.1506 -0.2201
15916W        W58932   7.051  19.228   3.424  0.0557 -0.0538  0.1396
15917W        W58933  25.049  11.780   3.063  0.2621  0.0166  0.2232
15918W        W58934   1.623  34.770  20.887 -0.1428 -0.0070 -0.0043
15919W        W58935  26.281  24.754   7.670  0.0921 -0.0421 -0.3182
15920W        W58936  14.737  30.397   1.091  0.3160  0.2491 -0.0547
15921W        W58937  21.329  13.653   3.451 -0.1276 -0.0235  0.4341
15922W        W58938  16.642  24.940  21.326  0.0424 -0.0090  0.1510
15923W        W58939  23.212  22.355   9.244 -0.1802 -0.0332  0.1349
15924W        W58940   7.498  16.908   1.097 -0.2072  0.1921  0.0765
15925W        W58941  19.355  33.902   6.016  0.1227 -0.1707  0.1106
15926W        W58942  23.487  31.124   1.561 -0.0222 -0.2388 -0.0251
15927W        W58943  16.439  16.572  14.093 -0.1113 -0.1248  0.1458
15928W        W58944  14.510  21.014  26.735 -0.0767  0.1911  0.1875
15929W        W58945   1.572  31.961  26.332  0.1436  0.0660 -0.1541
15930W        W58946  18.811  13.280   0.065 -0.0672  0.3131  0.1197
15931W        W58947  20.192  22.500   4.956 -0.3352  0.0747 -0.4204
15932W        W58948  18.466  18.092  14.193 -0.0612 -0.1477  0.1077
15933W        W58949   3.859  32.444  26.768 -0.1574 -0.0809 -0.0092
15934W        W58950  11.832  29.821   6.244 -0.0115 -0.0223 -0.2182
15935W        W58951  27.991  11.914   9.920 -0.1984  0.2512 -0.1794
15936W        W58952  27.694  34.746  23.885 -0.2238  0.1508  0.1231
15937W        W58953  23.834  19.152  16.781  0.2283  0.1240 -0.2753
15938W        W58954   7.038  20.346   6.864  0.4966 -0.1215  0.3209
15939W        W58955  23.255  18.461   4.103  0.0360 -0.1953  0.1544
15940W        W58956  20.701  16.863  24.707 -0.2198 -0.0381 -0.0019
15941W        W58957  32.691  18.600   5.968 -0.1289 -0.1262  0.0665
15942W        W58958   2.263  23.320  16.400  0.2223  0.2649 -0.1841
15943W        W58959   1.587  22.942   2.632  0.0060 -0.0660  0.1298
15944W        W58960  30.362  29.542   2.778 -0.2015  0.2694  0.4185
15945W        W58961   1.634  29.141  14.435 -0.1796 -0.0669 -0.1215
15946W        W58962  26.512  15.562  17.631  0.2079 -0.3650  0.3504
15947W        W58963  15.836  24.602   7.803  0.0372 -0.0482  0.1880
15948W        W58964  20.201  19.264  24.524 -0.1276 -0.0711  0.0851
15949W        W58965  28.352  33.063  10.428 -0.1123 -0.1552  0.0101
15950W        W58966  20.849  26.481   9.782  0.0968  0.1070 -0.1131
15951W        W58967  34.491  27.857   3.087 -0.1919 -0.1455 -0.2098
15952W        W58968  12.535  25.846   5.862  0.0426  0.1491  0.1127
15953W        W58969  30.877  26.471   7.055 -0.2416  0.1349 -0.1686
15954W        W58970  26.213  11.410   8.434 -0.0732 -0.2537  0.1783
15955W        W58971  31.704  34.107   5.924 -0.3368  0.0640 -0.2342
15956W        W58972  27.094  23.512   5.565  0.4337  0.3403  0.2731
15957W        W58973  27.601  24.210  22.177 -0.4239 -0.1335 -0.0865
15958W        W58974  26.531  28.700  10.777 -0.1096  0.5617 -0.1120
15959W        W58975  13.355   0.417  26.988  0.0873  0.1802 -0.1955
15960W        W58976  22.052  16.547  25.389 -0.0961  0.0588 -0.1672
15961W        W58977  22.157  34.589  20.864  0.0826 -0.0230 -0.2466
15962W        W58978  19.410  16.266  25.958  0.0816  0.0897  0.3891
15963W        W58979   9.074  28.263   9.152 -0.1383 -0.1548  0.0104
15964W        W58980  18.504   0.086   0.006  0.1887 -0.1363 -0.0941
15965W        W58981  17.085  26.746   5.448 -0.0399 -0.0199  0.1663
15966W        W58982  15.329  17.554   1.492 -0.3357  0.1691 -0.1328
15967W        W58983  21.361  33.243  28.271  0.1412 -0.2479  0.0094
15968W        W58984  27.200  16.658   2.146 -0.0250  0.1247  0.2213
15969W        W58985  15.588  27.002   3.825 -0.1850  0.0320  0.0279
15970W        W58986  12.105  15.670  27.372  0.2671 -0.1173  0.0544
15971W        W58987  24.081   5.203   7.128 -0.2335  0.2575 -0.1416
15972W        W58988  17.558  12.919  24.963  0.0869 -0.0678  0.1670
15973W        W58989  22.127  20.477   2.276  0.1689 -0.1529 -0.0598
15974W        W58990  14.498  26.855  27.983  0.0536  0.2334 -0.0389
15975W        W58991  29.953  15.043   8.828 -0.3330  0.0251  0.1696
15976W        W58992  19.433  20.028  26.210  0.1279  0.0404 -0.1779
15977W        W58993  15.459  20.837   5.722 -0.1355  0.1793 -0.2407
15978W        W58994  27.301  27.916  12.168 -0.1716 -0.3493  0.2581
15979W        W58995  26.639   9.547   3.856 -0.4525 -0.1964 -0.3425
15980W        W58996   9.340   8.105  10.000  0.2355  0.4776  0.1688
15981W        W58997  22.111  18.299   2.522 -0.0067 -0.0166  0.1807
15982W        W58998   0.360  22.804   8.362 -0.0116  0.0120 -0.2286
15983W        W58999  16.977  16.716   8.363  0.4693 -0.2332  0.1554
15984W        W59000   3.020  16.926   8.504 -0.0535  0.0004  0.0201
15985W        W59001  24.978  25.932   6.596  0.1033 -0.1275 -0.0363
15986W        W59002   8.940  24.738   7.982  0.0655 -0.2205  0.2864
15987W        W59003   2.856   2.179   6.078  0.1650  0.0026  0.2787
15988W        W59004  31.965  18.485   3.094 -0.0267 -0.2410  0.0119
15989W        W59005  17.288  17.690   4.339 -0.0722 -0.2705  0.0173
15990W        W59006  19.224   0.404   8.440  0.0750 -0.1608 -0.3365
15991W        W59007  20.751  27.451   2.810  0.2079  0.1157  0.0890
15992W        W59008   5.234  30.601   6.381  0.0443  0.0561  0.3936
15993W        W59009  30.717   0.519  24.462 -0.0066 -0.4510  0.1457
15994W        W59010   9.982  13.999   3.445  0.0660  0.1690 -0.2600
15995W        W59011  24.627  20.339   8.497  0.0992 -0.0755 -0.0997
15996W        W59012  26.159  34.522   8.486  0.0874 -0.1265  0.0415
15997W        W59013  19.754   0.318   4.477  0.0204  0.1825  0.1584
15998W        W59014  19.225  24.570  24.011 -0.0797  0.0443 -0.0698
15999W        W59015  16.390  33.557   3.876 -0.1983  0.1940  0.2220
16000W        W59016  27.182  20.544   7.804  0.0270 -0.4790  0.1027
16001W        W59017  10.254  29.988  20.409 -0.0396  0.3340 -0.2121
16002W        W59018  25.158   1.813   9.883 -0.1429 -0.0996 -0.2962
16003W        W59019  21.373  19.889   2.518 -0.1005 -0.1873 -0.2747
16004W        W59020  23.533  29.424   8.401  0.0262  0.0286 -0.0321
16005W        W59021  23.796   8.176  24.058 -0.0665 -0.4438  0.0523
16006W        W59022  18.134  24.189   9.560 -0.2655  0.1240  0.1609
16007W        W59023  13.299  25.053   3.981  0.1132  0.1245 -0.2561
16008W        W59024  26.353   5.838   0.235  0.0524 -0.0772  0.0449
16009W        W59025  18.932  17.187  29.253  0.0065  0.0336 -0.0778
16010W        W59026  12.210  30.336   3.661  0.1338  0.2771 -0.1778
16011W        W59027  23.192   4.548   3.553  0.2278  0.1049 -0.2236
16012W        W59028  25.577  16.451   0.968 -0.4599 -0.0847  0.0689
16013W        W59029   0.470  23.390   0.718 -0.0326 -0.2185 -0.1981
16014W        W59030  17.921  32.081   8.283  0.1296 -0.0236 -0.1729
16015W        W59031  19.510  20.067  24.446  0.0757  0.1145  0.0663
16016W        W59032  11.367  27.730  27.167  0.1542 -0.2125  0.1046
16017W        W59033  26.895  28.603   7.749 -0.0419 -0.2801  0.1564
16018W        W59034  21.873  24.624   6.695 -0.1760 -0.4802  0.0604
16019W        W59035   6.347  15.668   8.762 -0.1722  0.1790  0.1144
16020W        W59036  28.908   3.199   2.354  0.1493  0.2111 -0.0646
16021W        W59037  30.428   9.841   5.734 -0.0281 -0.0062  0.3014
16022W        W59038  20.315  16.427  26.989  0.1703 -0.3491 -0.1159
16023W        W59039  12.118  17.895   1.254  0.1247  0.2306  0.1112
16024W        W59040  21.897  20.789   4.468  0.0342 -0.2550  0.2376
16025W        W59041  17.634  19.277   7.911 -0.0520 -0.0110  0.2786
16026W        W59042  29.691  20.175   8.819  0.3298  0.1261  0.1022
16027W        W59043  14.456  21.040  27.298  0.0865 -0.0164 -0.0939
16028W        W59044  18.859  24.518  18.114 -0.0850 -0.0078 -0.1515
16029W        W59045  19.646   4.896  26.925 -0.2205  0.2266 -0.0012
16030W        W59046   6.039  23.440   8.446  0.0030  0.1832 -0.1016
16031W        W59047  17.649  28.244   0.091  0.4071 -0.1898 -0.2729
16032W        W59048  21.495  11.746  27.665  0.2249 -0.0435  0.1679
16033W        W59049  23.689   2.242   2.401  0.0817 -0.3326  0.0394
16034W        W59050  25.753  20.695  17.004  0.3170  0.3267  0.0700
16035W        W59051  29.935  14.713   8.059 -0.2353  0.0378  0.2092
16036W        W59052  22.695  12.145  27.077 -0.0638 -0.0498  0.0574
16037W        W59053  15.834  25.819   5.896  0.4650 -0.1000  0.1411
16038W        W59054  17.139  19.010  26.712  0.3145 -0.0450  0.0447
16039W        W59055  24.914  12.613   4.263  0.1193 -0.2067 -0.1885
16040W        W59056  27.828  21.136  28.611  0.1206  0.1284  0.1094
16041W        W59057  33.892  20.346  11.031  0.1496 -0.0705 -0.0110
16042W        W59058  22.211  15.912   8.871 -0.4222 -0.0971 -0.0427
16043W        W59059   6.397  27.532   4.325  0.1647 -0.0399 -0.0722
16044W        W59060  18.343  15.785   4.726 -0.0831  0.0313 -0.2551
16045W        W59061  23.754  26.439   6.535  0.3247  0.3824 -0.0633
16046W        W59062  25.472  31.681  24.118  0.1460 -0.2320 -0.0697
16047W        W59063   0.917  18.603   8.065  0.2009 -0.1543 -0.1550
16048W        W59064  15.307  23.706   0.889  0.0234 -0.0487 -0.1714
16049W        W59065  11.440  11.910   7.972  0.0632  0.1210  0.3962
16050W        W59066  15.608   2.269  27.801  0.1486  0.4163  0.0650
16051W        W59067  19.567  20.529   6.527  0.0814  0.0253  0.2795
16052W        W59068  21.395  25.074   3.739 -0.1188 -0.2780 -0.2227
16053W        W59069  15.267   9.372   3.930 -0.0487 -0.0666  0.4789
16054W        W59070  22.659  15.563  20.586  0.2468 -0.1990 -0.0441
16055W        W59071  11.660  14.774  16.397  0.0741  0.0717 -0.2504
16056W        W59072  25.078   8.849   8.885 -0.0067 -0.5099  0.0773
16057W        W59073   6.425  23.730   8.614 -0.5182  0.1770  0.2149
16058W        W59074  13.754  18.071   5.494  0.0310  0.2181  0.0280
16059W        W59075  10.819  27.763   6.593 -0.0595 -0.0641 -0.0968
16060W        W59076   9.074  20.182   6.588 -0.1562  0.1267  0.4890
16061W        W59077  19.606  33.773   0.845  0.0724 -0.1719 -0.1387
16062W        W59078  21.061  16.951   8.414 -0.0065 -0.3287 -0.1151
16063W        W59079  23.590  21.430   1.076  0.1276 -0.1080 -0.0385
16064W        W59080   2.924  15.443   9.917 -0.1119 -0.0602  0.4341
16065W        W59081   2.905  29.089   3.012  0.3062  0.2246 -0.1000
16066W        W59082  26.378   9.305  27.078 -0.0623  0.1771  0.0607
16067W        W59083  19.259  17.535   4.560 -0.1292 -0.0027 -0.0021
16068W        W59084  18.555  16.155  24.431 -0.4196  0.0752 -0.2267
16069W        W59085  20.822  34.771   4.749 -0.1081 -0.0479  0.0294
16070W        W59086  27.941  24.730   5.632  0.1983  0.0707  0.0256
16071W        W59087  11.394  28.883  23.174 -0.1349 -0.2175  0.1713
16072W        W59088  10.309  10.813  29.119 -0.0173  0.0457 -0.0874
16073W        W59089   9.209  17.282  29.058  0.2067 -0.2179 -0.1355
16074W        W59090  18.156  11.609   0.950 -0.0568  0.0208 -0.1002
16075W        W59091  12.522  23.973  25.819  0.2612  0.3153  0.2656
16076W        W59092  18.646  19.285   8.485  0.0466  0.0318  0.0897
16077W        W59093   9.877  29.381   3.250  0.0025 -0.4443  0.0361
16078W        W59094  10.934   3.311   8.898 -0.0057  0.1387  0.2065
16079W        W59095   0.904  24.644   9.346  0.0380 -0.1260  0.0303
16080W        W59096   8.679  25.920   9.113 -0.2548  0.0644 -0.1747
16081W        W59097  16.019  17.643   1.513 -0.1512  0.1007  0.1785
16082W        W59098  17.381  27.858   7.516  0.2697  0.2163 -0.0051
16083W        W59099  21.792   7.597  24.575  0.2418  0.0773 -0.0612
16084W        W59100  15.554  25.899   7.736  0.0349  0.1171  0.1742
16085W        W59101  15.646  18.929  28.804  0.0873  0.1291  0.4841
16086W        W59102   6.462  18.980   6.384  0.2828 -0.0648 -0.1129
16087W        W59103   2.336  25.595   2.747  0.2817 -0.1081 -0.2571
16088W        W59104  19.549  20.021  27.779  0.2084  0.0063  0.1317
16089W        W59105  26.947  26.896  27.069 -0.1289  0.1067 -0.4237
16090W        W59106  21.415  22.025   8.161  0.3232  0.0520  0.1825
16091W        W59107  14.010  24.305   4.987 -0.0073 -0.2989 -0.0065
16092W        W59108  31.718  10.858   4.775  0.2052 -0.2860  0.1647
16093W        W59109  16.124  12.504  28.340  0.0425 -0.2468 -0.0503
16094W        W59110  29.410  17.091  27.350 -0.1358  0.1888  0.0363
16095W        W59111  24.911  24.698   6.788  0.2230 -0.1876  0.2794
16096W        W59112   0.369  13.992   0.655  0.2220 -0.1530  0.1702
16097W        W59113   9.531  29.399   4.653 -0.0134 -0.0055  0.2556
16098W        W59114   4.315  25.500   6.287 -0.1676 -0.1705 -0.1645
16099W        W59115  30.018   2.984   4.806  0.1188  0.1216  0.0845
16100W        W59116  25.436  22.129  27.337 -0.1471  0.1042 -0.0934
16101W        W59117  23.367  11.172   4.990 -0.0190  0.3143  0.0563
16102W        W59118  13.501  26.844  13.143 -0.1167  0.1259 -0.1384
16103W        W59119  13.471  29.503   7.064  0.1120  0.1423 -0.0269
16104W        W59120  19.397  24.156   4.853 -0.0134 -0.4213  0.2870
16105W        W59121  16.687  29.884   4.082 -0.2898 -0.4027  0.4452
16106W        W59122   3.922  19.740   6.097  0.0189 -0.0998 -0.0441
16107W        W59123  12.273  17.790   5.819  0.0733 -0.0095 -0.1227
16108W        W59124  33.768   3.774   4.279 -0.0324  0.2989  0.1131
16109W        W59125  24.428   8.002   7.024  0.0137  0.0179  0.1210
16110W        W59126  17.769  23.747   5.764  0.0546 -0.1915 -0.0417
16111W        W59127  11.500  19.019   8.674 -0.3304  0.0433 -0.2220
16112W        W59128  23.899  23.489  27.319 -0.0020 -0.2470  0.1022
16113W        W59129  21.136   7.961   4.966 -0.0143  0.3011  0.4140
16114W        W59130  13.573  23.894  16.711  0.0648 -0.1105 -0.1810
16115W        W59131   1.465  24.953   7.703 -0.1699 -0.1860  0.2160
16116W        W59132   0.011  19.305  23.668 -0.1179 -0.0633 -0.1046
16117W        W59133   7.493  13.688   6.827 -0.4076  0.1631 -0.1993
16118W        W59134  19.144  22.511   5.378  0.0362  0.1898  0.0670
16119W        W59135  33.500   2.477   7.367 -0.1556 -0.1442 -0.0963
16120W        W59136  27.645  23.084   5.135 -0.2026  0.0671  0.0115
16121W        W59137  28.640  21.921   6.224 -0.1077  0.2537 -0.1558
16122W        W59138  15.152   8.272  28.457  0.0420  0.0250 -0.0948
16123W        W59139  25.441  26.617   6.920  0.1559  0.0158 -0.0736
16124W        W59140  17.771  21.223  29.245 -0.0576  0.2433 -0.4880
16125W        W59141  10.661  14.642  24.770 -0.2120 -0.1442 -0.3912
16126W        W59142  29.646  18.824   3.394 -0.1001  0.0930  0.2224
16127W        W59143   9.309  29.758   8.966 -0.2564 -0.0359  0.1440
16128W        W59144  12.772  20.391   6.058  0.0386  0.1824 -0.1801
16129W        W59145  15.765  21.914  23.048  0.2723  0.0968 -0.0818
16130W        W59146  27.483  12.654   9.186  0.2807  0.2196  0.1668
16131W        W59147  10.019  15.359   0.752 -0.3434 -0.1184  0.2034
16132W        W59148   4.434  29.703  17.301  0.0734 -0.0462  0.2878
16133W        W59149  18.071  26.496  25.034  0.0496 -0.0092 -0.0519
16134W        W59150  20.052   8.497  18.109 -0.0183  0.1824  0.1756
16135W        W59151  23.649  32.204   0.626 -0.1268 -0.3908  0.1153
16136W        W59152  34.035  14.230  25.431  0.3736 -0.3856  0.1529
16137W        W59153  13.299  21.194   5.370  0.2455  0.0374 -0.2980
16138W        W59154  22.305  20.710   3.733 -0.1546  0.1564 -0.2942
16139W        W59155  32.946  10.576   3.149 -0.1645  0.1437  0.1755
16140W        W59156  10.346  18.514  15.644 -0.0589 -0.0238  0.1386
16141W        W59157  34.657  20.359   1.076 -0.2488  0.1377  0.2861
16142W        W59158  13.626  29.051   2.266  0.1185 -0.2560  0.1598
16143W        W59159  15.043   2.301   7.768 -0.2471  0.0949  0.2349
16144W        W59160  28.264  22.308   4.729  0.0449  0.2007 -0.0901
16145W        W59161  10.126  21.136   2.842  0.1179 -0.1110 -0.0594
16146W        W59162  12.784  15.101   5.369 -0.0956  0.1606 -0.1096
16147W        W59163  16.202  23.651  29.193  0.1164  0.1463 -0.0055
16148W        W59164   6.104  18.904   5.895 -0.1728 -0.3753 -0.0687
16149W        W59165  19.426  33.645  20.054 -0.2400  0.0240 -0.0538
16150W        W59166  15.993   5.986   6.329 -0.0227 -0.3352  0.3454
16151W        W59167  14.227  19.050   6.074  0.0197  0.1364 -0.1391
16152W        W59168  17.903  29.993   6.362 -0.1549 -0.2657  0.0488
16153W        W59169  13.721  16.260   1.972 -0.0269 -0.3327  0.0263
16154W        W59170  22.729  22.374  10.059  0.1008  0.1706  0.4166
16155W        W59171  16.608  25.274   5.598 -0.0223 -0.1804 -0.0702
16156W        W59172   8.284  29.930  10.398 -0.0425  0.0494  0.1020
16157W        W59173  13.237  20.933   8.862  0.0591 -0.1041 -0.3427
16158W        W59174  32.515  14.025   8.186 -0.0905 -0.1647 -0.2565
16159W        W59175   7.910  24.948   7.718 -0.1429  0.1133 -0.1215
16160W        W59176   0.184  29.709   8.320 -0.0454 -0.0000 -0.1832
16161W        W59177  13.844  33.457   9.578 -0.1318  0.1011 -0.0977
16162W        W59178   6.910  32.870  21.250  0.1380  0.0151 -0.0835
16163W        W59179   2.566   5.083   1.317 -0.1306  0.0273 -0.0048
16164W        W59180  19.640  31.843  26.561 -0.0150  0.1884  0.2567
16165W        W59181  18.200  20.197   6.140 -0.2375  0.2428  0.0287
16166W        W59182  22.497  16.106   9.270  0.2273 -0.2496  0.0759
16167W        W59183  24.522  20.459  20.067  0.1703 -0.0756  0.1009
16168W        W59184  15.357  27.691   5.723 -0.2347  0.2434 -0.2253
16169W        W59185  28.598  24.376   0.638  0.0889  0.1409  0.1323
16170W        W59186   8.961  26.027   8.663  0.2052 -0.0782  0.1906
16171W        W59187  25.672   9.362   8.263 -0.0257 -0.0335  0.3885
16172W        W59188   6.282  21.849  27.311  0.1493  0.1255 -0.1580
16173W        W59189   5.836   3.531   1.880  0.1969  0.0824 -0.1992
16174W        W59190   8.145   5.582  25.000  0.0417  0.1290  0.0749
16175W        W59191  24.626  10.704   7.104 -0.1556 -0.1669 -0.1276
16176W        W59192  14.564  20.660   3.267 -0.3520 -0.1777  0.1651
16177W        W59193  27.889  21.807   6.554 -0.1322 -0.2968  0.1865
16178W        W59194  22.873  21.216  19.179  0.0670 -0.0438 -0.1974
16179W        W59195  22.091  29.011   5.585  0.1580  0.1824  0.5405
16180W        W59196  14.102  29.010   0.535 -0.2130 -0.1515  0.2537
16181W        W59197  14.716  20.067  29.066 -0.1134  0.1182  0.2443
16182W        W59198  27.042  21.677  10.685  0.0926 -0.0444  0.2180
16183W        W59199  16.938  32.755   9.966 -0.2443 -0.2864 -0.0701
16184W        W59200  23.390  19.332  26.773  0.2128 -0.0804  0.1099
16185W        W59201  17.771  26.007   4.676 -0.0884 -0.5500  0.1925
16186W        W59202  15.683  18.032  23.756 -0.3161  0.2226  0.0228
16187W        W59203  19.951  27.836   6.584  0.0059  0.0614 -0.3686
16188W        W59204  10.616  32.044   6.053 -0.1070 -0.0137  0.1366
16189W        W59205  14.272   9.954   5.936  0.0768 -0.1417 -0.1427
16190W        W59206  20.917  31.690  21.877 -0.0339  0.2629  0.0141
16191W        W59207  24.845  16.138   9.186 -0.1954 -0.1282 -0.0389
16192W        W59208  30.727  28.558  19.435  0.1430 -0.1407  0.3249
16193W        W59209  26.507  19.832  10.798  0.0802 -0.4079 -0.1701
16194W        W59210  27.115  26.694   3.968 -0.1172 -0.1263  0.1011
16195W        W59211  29.262   5.935   9.505  0.2038  0.1298  0.0209
16196W        W59212  22.537  25.576  23.460  0.1789 -0.1487  0.2451
16197W        W59213  28.477  26.701  27.912 -0.1364  0.2895  0.3898
16198W        W59214  19.649  15.973  19.919 -0.0139 -0.0098  0.0353
16199W        W59215   2.422  16.228   0.796  0.1330  0.1115 -0.0119
16200W        W59216  14.676  29.338  21.706 -0.1030  0.0902 -0.2190
16201W        W59217  22.972  24.459   6.602 -0.2276 -0.3808  0.0157
16202W        W59218  14.732  14.098   6.865 -0.0934  0.1320  0.1266
16203W        W59219  23.025  17.267   7.308 -0.3075 -0.1047 -0.4771
16204W        W59220  23.307  28.139   6.489  0.0362 -0.0928 -0.0911
16205W        W59221  11.761  32.622  25.899 -0.1454 -0.0308  0.3212
16206W        W59222  13.212  18.692  20.760  0.2500 -0.0912  0.2486
16207W        W59223  27.654  27.899  10.783 -0.0002 -0.1809 -0.0436
16208W        W59224  33.755  20.638   2.922 -0.2474 -0.0434 -0.0523
16209W        W59225  14.689  26.436  23.619 -0.0137  0.2674 -0.4207
16210W        W59226  22.296  17.393   8.704 -0.1707 -0.2865  0.1927
16211W        W59227   6.584  28.071   7.187 -0.0449 -0.0534  0.0718
16212W        W59228   1.543  15.462   9.655  0.2232  0.0153 -0.3353
16213W        W59229   9.656   1.682   8.841  0.1114  0.0719  0.2726
16214W        W59230  32.244  12.172  27.275 -0.0685 -0.2134  0.4533
16215W        W59231  25.055  22.408   4.169  0.0253 -0.0773 -0.2750
16216W        W59232  25.318  25.742   8.758  0.0665  0.1552  0.0383
16217W        W59233  29.254  18.106   6.169 -0.2374  0.1215 -0.0553
16218W        W59234  28.711  22.647  10.308  0.3100 -0.0489 -0.0399
16219W        W59235  14.832   0.366   2.152 -0.0565  0.0686  0.0074
16220W        W59236  27.446  23.350   7.310  0.2579 -0.1818 -0.2903
16221W        W59237   2.481  13.090   8.141  0.1209 -0.2133  0.2899
16222W        W59238  16.457  28.953  11.166  0.1682  0.1826  0.1008
16223W        W59239  16.330  12.660   7.044  0.1853 -0.0366  0.2765
16224W        W59240  19.779  16.848   2.178  0.0193  0.4355 -0.0493
16225W        W59241  34.124  18.858   9.409 -0.0434  0.1933  0.1751
16226W        W59242  12.335   5.135   6.203 -0.1135 -0.2816  0.0173
16227W        W59243  23.112  22.466   2.421 -0.1066 -0.1306  0.1332
16228W        W59244  27.065  17.412   6.420  0.2634 -0.0083  0.1534
16229W        W59245   7.570   0.805  27.671  0.2124  0.0710 -0.0495
16230W        W59246  25.614  17.668  24.032  0.3312 -0.3931 -0.2338
16231W        W59247  33.904  25.045   7.384  0.1152  0.1298 -0.1953
16232W        W59248   7.096  31.532   9.865 -0.0425  0.1651  0.2451
16233W        W59249  19.723  20.987   6.338  0.2030 -0.0531  0.2545
16234W        W59250  32.166  24.497  10.082  0.0242 -0.1740  0.5110
16235W        W59251  20.540  30.527   6.866  0.3371  0.0150  0.0943
16236W        W59252   8.208  16.127   7.774 -0.0048 -0.1540 -0.1687
16237W        W59253  28.469  15.599   6.786  0.4704  0.0301 -0.1267
16238W        W59254  29.947  22.143  28.809 -0.1612  0.0883  0.0582
16239W        W59255   7.680  18.376   6.698 -0.1282  0.2307 -0.3335
16240W        W59256  25.257  15.865  24.223 -0.2187  0.0616 -0.0405
16241W        W59257  26.403  28.474   7.053  0.0260  0.0785 -0.0806
16242W        W59258  22.614  28.300   6.127 -0.1339  0.1517  0.1997
16243W        W59259  16.751  19.700  25.890  0.3220 -0.0908  0.0667
16244W        W59260  22.498  27.770  24.371  0.3118  0.1724  0.0365
16245W        W59261   1.341  20.450  28.173  0.5426  0.0676 -0.2094
16246W        W59262  20.073  17.767   3.017  0.1023  0.2939 -0.0798
16247W        W59263  27.982  22.693  23.808 -0.1867 -0.0837 -0.0820
16248W        W59264  26.463  26.240  15.861  0.2654  0.6013  0.5105
16249W        W59265  29.169  18.061   0.307 -0.3354 -0.0732 -0.0917
16250W        W59266  24.468   7.607   3.850 -0.0617  0.1990 -0.0683
16251W        W59267  15.136  23.210   7.570 -0.1834 -0.1168 -0.0490
16252W        W59268  24.720  18.948   8.081 -0.0982  0.1287 -0.1369
16253W        W59269  11.936  19.200   2.565 -0.1321 -0.1117 -0.0725
16254W        W59270  17.184  24.951   5.316  0.1192 -0.2006 -0.2791
16255W        W59271   2.563   2.469   1.338  0.2157  0.1404  0.0777
16256W        W59272  18.935   8.993   3.620 -0.1209 -0.0477 -0.0755
16257W        W59273  18.147   1.068   9.647 -0.1196  0.3751 -0.0177
16258W        W59274   8.206  31.260  26.512 -0.3207  0.2038 -0.1177
16259W        W59275   7.770  29.733  22.772 -0.4870 -0.2404 -0.0349
16260W        W59276  12.716  34.515  10.607 -0.2583  0.0936 -0.0907
16261W        W59277  18.749   0.938  17.572 -0.1070 -0.2357  0.2683
16262W        W59278  33.446  31.318   9.378 -0.1723 -0.0073  0.0251
16263W        W59279   9.599  29.331   1.259  0.0609 -0.0220 -0.3575
16264W        W59280  15.219  30.687  17.471 -0.3141 -0.1258 -0.0049
16265W        W59281  31.192  22.184  28.216  0.4091 -0.2115 -0.2607
16266W        W59282  23.320  16.383  22.847  0.0631 -0.0872  0.3572
16267W        W59283  27.286   6.147   1.156  0.1022 -0.0575 -0.2796
16268W        W59284   1.910  19.116  22.395 -0.1542  0.3428  0.0863
16269W        W59285  18.169   0.813  21.798 -0.0644  0.0353 -0.3204
16270W        W59286  20.401  27.712  24.317  0.1609  0.1603  0.3544
16271W        W59287  23.115  21.935   9.541  0.1093 -0.3334  0.0716
16272W        W59288  13.927   2.015   8.482 -0.2650 -0.1853 -0.1445
16273W        W59289  22.434  11.008   9.963 -0.0526  0.0425  0.0214
16274W        W59290  34.189  23.007   8.075  0.0726 -0.0990  0.0321
16275W        W59291   3.333  24.133  28.132 -0.0795 -0.0377  0.1026
16276W        W59292  33.129  21.657   9.916  0.1206  0.0589 -0.1038
16277W        W59293  20.916  30.472   4.712  0.1765  0.1266  0.2867
16278W        W59294  30.521  18.082  25.598 -0.0126  0.0652  0.4033
16279W        W59295  22.376  32.983  20.741  0.1700 -0.1118 -0.0934
16280W        W59296  12.753   9.199   6.134  0.0023 -0.0841  0.2342
16281W        W59297   3.455  34.268   1.346  0.0163 -0.1315  0.0419
16282W        W59298  31.514  32.491  24.383  0.3914 -0.3853 -0.3313
16283W        W59299   4.917  25.997   0.405  0.3488  0.5781  0.2531
16284W        W59300   6.126  20.706   2.453  0.0293  0.1149  0.0487
16285W        W59301  30.981  25.273  22.247  0.0046 -0.0863  0.2576
16286W        W59302  31.169  23.924   0.765 -0.1052  0.1223 -0.0721
16287W        W59303  16.639  28.216   6.579 -0.1295 -0.2057  0.1321
16288W        W59304  15.103  33.913   4.348  0.3542 -0.2384  0.1021
16289W        W59305  24.642  13.395  28.451  0.2229 -0.0567  0.1842
16290W        W59306  21.503   8.319  23.718 -0.2060  0.1715  0.2963
16291W        W59307  10.568  27.961  26.759 -0.0349 -0.0740  0.2787
16292W        W59308  28.501   7.429   8.968  0.1488 -0.1070 -0.0477
16293W        W59309  11.571  24.350  25.937  0.2845  0.2358  0.2359
16294W        W59310  12.297  11.520  18.147 -0.1064 -0.1126  0.5045
16295W        W59311  28.975   7.653   3.338  0.0318 -0.2052  0.1141
16296W        W59312  18.169   3.766   0.616 -0.2417 -0.0481  0.0964
16297W        W59313  21.530  32.005   4.480 -0.2942  0.1159 -0.1005
16298W        W59314  31.100  31.304   8.958 -0.1789 -0.0211 -0.3519
16299W        W59315  20.589  33.522  21.665  0.2614 -0.2732 -0.0094
16300W        W59316  14.640  26.412   4.440 -0.3980  0.1057 -0.0485
16301W        W59317  33.665  34.227   5.201  0.0096 -0.2517  0.0446
16302W        W59318  31.619   9.892   9.777 -0.1569 -0.1629 -0.0026
16303W        W59319   7.558  19.709  14.069  0.4742  0.1297  0.1746
16304W        W59320  11.489  31.874   3.787  0.1621  0.2109 -0.1796
16305W        W59321   5.801  18.479  14.785 -0.1172  0.1591  0.1354
16306W        W59322  19.370  22.176   7.797 -0.3876  0.4137  0.4606
16307W        W59323   1.304  30.410   0.665 -0.0160 -0.0180 -0.2511
16308W        W59324  21.372  21.787   9.986  0.0225  0.1990 -0.0104
16309W        W59325  15.449  16.798  18.530  0.2163 -0.2469 -0.2218
16310W        W59326  15.553  22.755  20.204  0.1596 -0.0680 -0.0560
16311W        W59327  13.975   8.092  28.119 -0.0660 -0.1367 -0.1208
16312W        W59328  26.695  32.074   7.808 -0.3194  0.3297 -0.0896
16313W        W59329  21.741  34.766   6.603  0.0555 -0.0619 -0.1238
16314W        W59330   8.712   0.496   2.428 -0.0697 -0.3670 -0.0272
16315W        W59331  21.896  28.688   1.616 -0.0780 -0.0286 -0.3259
16316W        W59332  33.863   2.131   0.234 -0.0993 -0.0296  0.1131
16317W        W59333  15.994  22.330  13.841  0.0239 -0.1515  0.0621
16318W        W59334   8.843  17.989   6.576 -0.1439 -0.2035 -0.1534
16319W        W59335  22.963  21.801   8.645  0.0939  0.2601 -0.1552
16320W        W59336   9.416   5.022  24.212  0.2344 -0.3047 -0.0386
16321W        W59337  16.502   3.817   2.232 -0.0717 -0.0008  0.1040
16322W        W59338  16.470  16.644   4.194 -0.0278  0.2687 -0.0153
16323W        W59339  31.556  11.737  27.100 -0.3342 -0.1777  0.1425
16324W        W59340  15.799  21.604  19.892 -0.2746  0.0891  0.5192
16325W        W59341  11.748  28.798   8.938 -0.0188 -0.0701 -0.1337
16326W        W59342  14.172   7.100   5.240 -0.1488  0.2288  0.0569
16327W        W59343  11.690   0.094   6.834  0.0708  0.0918  0.0196
16328W        W59344  26.680  33.610   6.342 -0.0916 -0.1472 -0.1042
16329W        W59345  23.563  34.104   6.978 -0.1228 -0.2105 -0.1406
16330W        W59346  22.139  16.990   4.333  0.3583 -0.3917  0.0093
16331W        W59347   7.040   7.087   5.756  0.3966 -0.1214 -0.0610
16332W        W59348   6.916   2.398   4.122  0.1584  0.1208 -0.0247
16333W        W59349  18.189  27.806   8.676 -0.2670  0.2027  0.0854
16334W        W59350  24.979  10.186  16.573  0.0176 -0.0208 -0.1197
16335W        W59351  16.991  24.015  24.562 -0.0311  0.3211  0.2168
16336W        W59352  13.371  33.569   4.236 -0.0910  0.1191 -0.0998
16337W        W59353   3.150  25.760  21.474 -0.0072  0.2789  0.2053
16338W        W59354  11.736  30.560   9.386 -0.0229  0.0866  0.0202
16339W        W59355  34.697  16.827   5.677  0.1370 -0.1429 -0.2945
16340W        W59356   1.522  20.772  17.546  0.1170 -0.0111 -0.3209
16341W        W59357   3.078  20.243  21.460  0.0268 -0.3103 -0.1299
16342W        W59358  26.208   1.198  20.158 -0.2024  0.4113 -0.1661
16343W        W59359   4.627   9.543  28.551 -0.0405  0.1628  0.0330
16344W        W59360   5.149   7.511  15.795 -0.0948  0.1469  0.0158
16345W        W59361  22.715  18.358   5.023 -0.1694  0.0722  0.0210
16346W        W59362  16.835  22.319   0.070 -0.0898  0.0696 -0.1165
16347W        W59363  27.405  27.681  26.733  0.2346  0.1160 -0.1189
16348W        W59364   7.639  21.684   4.962 -0.0069 -0.2016  0.0073
16349W        W59365  31.147  23.848   1.596  0.2563  0.0758  0.2644
16350W        W59366  20.920  28.482   4.282  0.1859  0.1145 -0.2355
16351W        W59367  23.526  18.176  27.191 -0.1698  0.0133  0.0048
16352W        W59368   3.074  18.792   0.376 -0.0330  0.0265  0.0658
16353W        W59369  19.159   6.269  24.797 -0.1137  0.1054 -0.1163
16354W        W59370  22.681  29.823   3.813 -0.2422 -0.0212  0.0184
16355W        W59371  30.015  16.612   1.053  0.1935 -0.2972  0.0717
16356W        W59372  29.296  18.095   3.038 -0.1824 -0.2492  0.0686
16357W        W59373  25.087  34.007  10.208  0.2116  0.2749 -0.3261
16358W        W59374   9.488   3.388   2.682  0.2269  0.2067  0.5027
16359W        W59375  12.031   5.373   1.036  0.2502 -0.2685  0.1009
16360W        W59376  29.273   8.676   2.624  0.1359 -0.0449  0.0114
16361W        W59377  12.759  34.770  25.020  0.4990 -0.0399  0.0963
16362W        W59378   8.491   3.245   6.501  0.4153 -0.0221 -0.4871
16363W        W59379  11.976  31.076   9.859 -0.3390  0.0627  0.0973
16364W        W59380  32.886   5.269   2.819  0.1527  0.1595 -0.0257
16365W        W59381  14.857  25.113   0.025  0.1943  0.2474  0.1927
16366W        W59382   1.559  25.684   3.251 -0.0223  0.2283 -0.0806
16367W        W59383   8.347  25.554   8.992 -0.0681  0.0542  0.1459
16368W        W59384  14.414   2.474   6.644  0.5888  0.0468  0.0048
16369W        W59385  29.425  24.673   0.884  0.3364 -0.1237  0.3810
16370W        W59386  17.766  24.933   6.161  0.0978 -0.1664  0.3223
16371W        W59387  11.665  30.156  21.753 -0.2582 -0.0004  0.3966
16372W        W59388  14.263   1.224   5.136 -0.0744 -0.3462  0.0165
16373W        W59389   2.380  28.521  27.847  0.1140  0.2778  0.3942
16374W        W59390  27.846   3.734  10.226 -0.0706 -0.3406 -0.3118
16375W        W59391   7.321  27.489   5.346  0.0203  0.0607  0.0714
16376W        W59392  22.959   4.842   4.376 -0.0089 -0.2059 -0.2625
16377W        W59393  13.640   0.019   6.166  0.4819  0.1207 -0.3572
16378W        W59394  22.802  29.411  29.081 -0.0074  0.1654 -0.2174
16379W        W59395  20.298  27.706   8.128 -0.1475  0.0754  0.3809
16380W        W59396  16.036  23.582   1.082  0.1418  0.2071  0.2599
16381W        W59397  18.286  17.528   4.882 -0.1305  0.4367 -0.0077
16382W        W59398   9.337   7.700   5.859  0.0527 -0.0227 -0.0472
16383W        W59399  25.721  31.025  24.122 -0.3502 -0.2169  0.3167
16384W        W59400  21.625  28.619   3.164 -0.0036  0.1691 -0.3709
16385W        W59401  29.960  21.928  15.158  0.0293  0.3406 -0.2506
16386W        W59402  25.489  23.690   8.885 -0.2821  0.0318 -0.0136
16387W        W59403  22.412   9.537   2.801 -0.0755  0.3120  0.0913
16388W        W59404  12.251  21.965  13.738 -0.1956  0.2713 -0.4028
16389W        W59405  11.967  27.734   2.397 -0.0330 -0.2004  0.0230
16390W        W59406   2.376  32.815  22.752 -0.1569 -0.0694  0.1071
16391W        W59407   0.414  28.431   6.842  0.2276  0.1364 -0.0073
16392W        W59408   3.857  28.107  22.377  0.1291 -0.0662 -0.2045
16393W        W59409  27.854  34.550  26.225 -0.0839  0.0621 -0.1574
16394W        W59410  15.961  12.582  22.098  0.0798  0.2290  0.0621
16395W        W59411  19.636  31.812   2.614  0.1507 -0.0894 -0.3595
16396W        W59412  10.913  21.242  24.161 -0.0054  0.1931 -0.0646
16397W        W59413  29.963  19.652   1.864 -0.0698 -0.0640 -0.0058
16398W        W59414  13.587  17.389  20.595 -0.0704  0.0780  0.0639
16399W        W59415   2.200  34.296  10.107  0.3778 -0.0456 -0.1887
16400W        W59416  12.366  13.396  18.960  0.2173 -0.0866 -0.2683
16401W        W59417  34.313   0.468   4.759  0.0907  0.0859  0.1553
16402W        W59418  32.272  30.428   9.349  0.3362  0.1574 -0.0958
16403W        W59419  14.468  22.593   4.538 -0.0778  0.2158 -0.0541
16404W        W59420   7.918  31.550   6.716 -0.1597  0.1369  0.3314
16405W        W59421   0.349   3.959   5.912  0.1089  0.2181  0.2463
16406W        W59422  30.964  23.676   8.842  0.3830 -0.0958 -0.5919
16407W        W59423  17.659  11.892  16.125 -0.0133  0.0881 -0.0983
16408W        W59424  19.726  18.939  16.795  0.0858  0.2963  0.1099
16409W        W59425  11.590  19.947  15.889 -0.1216 -0.0484 -0.0550
16410W        W59426  23.845  28.738  15.870 -0.0227  0.2329 -0.0160
16411W        W59427   9.121  33.908  18.619 -0.2245  0.1949 -0.1667
16412W        W59428  18.456  32.201   6.733 -0.1520  0.0154 -0.3165
16413W        W59429  19.502  26.360   4.836  0.0710  0.1550  0.0726
16414W        W59430   7.369  19.709   8.048  0.0090 -0.0651 -0.0352
16415W        W59431  28.421  22.042   7.768  0.0680  0.0799 -0.0893
16416W        W59432   3.633   5.343   0.600 -0.0656  0.3004 -0.2283
16417W        W59433   5.524  33.346   8.936 -0.0375  0.1677  0.4418
16418W        W59434  28.271  11.914   4.869  0.0079  0.2103  0.1325
16419W        W59435  27.911  19.762   6.338 -0.0048  0.0470  0.1091
16420W        W59436  12.590  31.527  10.500  0.0183 -0.4399  0.0322
16421W        W59437  11.335  28.488  25.259 -0.0994  0.3214  0.2667
16422W        W59438  19.404  13.837   7.995 -0.0248 -0.2768  0.0439
16423W        W59439  13.701  27.485  25.007  0.2906  0.1170  0.0133
16424W        W59440  12.965  32.140   0.523 -0.0647  0.1970  0.0080
16425W        W59441   5.976  34.321   1.708 -0.1139 -0.1105 -0.0251
16426W        W59442  32.654  32.902   7.236  0.1076  0.1334  0.0984
16427W        W59443   8.865  30.746   9.590 -0.1119  0.2115 -0.1419
16428W        W59444  20.224  34.649   2.295  0.4351  0.0540 -0.0833
16429W        W59445  31.543  26.925  27.868 -0.0078 -0.4222  0.0136
16430W        W59446  19.879  31.185  11.153  0.1653  0.1162 -0.2065
16431W        W59447  28.801  30.125  23.234 -0.0651 -0.0572  0.2778
16432W        W59448  27.703  25.720   7.253  0.0059 -0.3020  0.1812
16433W        W59449   7.067  23.829  26.048 -0.3100  0.0042 -0.0762
16434W        W59450   7.234  19.309   1.224  0.1653 -0.1345 -0.0280
16435W        W59451  15.274  30.468   1.327 -0.0495  0.0476  0.0874
16436W        W59452  20.789  27.744  22.308  0.0046 -0.1191  0.2312
16437W        W59453  30.696  10.080  17.015  0.2685 -0.0522  0.1157
16438W        W59454  22.937  14.573  23.833 -0.0744  0.0517 -0.1351
16439W        W59455  14.231  30.342   0.308  0.0355  0.2148  0.2021
16440W        W59456  21.095   0.936   9.332 -0.0368  0.1561  0.2115
16441W        W59457  23.904  33.338  20.793  0.4554 -0.1285 -0.3579
16442W        W59458  13.740  26.918   8.553  0.1026 -0.0585  0.1274
16443W        W59459  10.899  34.222   4.316  0.3424 -0.4126 -0.3762
16444W        W59460  30.051  13.312  28.751 -0.2574  0.1436  0.3206
16445W        W59461  16.004  22.986   2.619 -0.1176  0.0086  0.0403
16446W        W59462  17.621  29.024  10.033 -0.1661  0.0617 -0.0781
16447W        W59463  28.645  19.381   2.176 -0.1242 -0.0838 -0.0501
16448W        W59464  18.182  19.707   3.276  0.0659 -0.0941  0.1250
16449W        W59465   3.770  19.427  14.398 -0.1917  0.3182  0.2141
16450W        W59466  19.016  21.992   9.231 -0.2552 -0.0874  0.1147
16451W        W59467  19.046  20.804  24.706 -0.2526  0.1695  0.0524
16452W        W59468  11.686  29.948   8.431  0.1996  0.4366 -0.1007
16453W        W59469  30.964  17.924  11.214  0.1666 -0.3237  0.1564
16454W        W59470  16.432  23.524   8.813  0.1051 -0.0192 -0.3213
16455W        W59471  14.884   2.520   1.638 -0.1139  0.0643  0.2639
16456W        W59472  17.252  31.716   4.449 -0.0143  0.0274  0.4464
16457W        W59473  26.658   0.841  19.388  0.1825  0.3069  0.0923
16458W        W59474  13.884  33.942  14.489  0.4322 -0.0132  0.0799
16459W        W59475  25.342  29.430   0.641  0.0195 -0.2038 -0.1692
16460W        W59476  15.201  26.268   8.077 -0.1695  0.1889  0.0733
16461W        W59477  21.832  27.754   7.282  0.0957 -0.3240 -0.0581
16462W        W59478  15.352  26.897   3.209 -0.0500  0.2621  0.1018
16463W        W59479  30.428  18.786  26.846  0.0098  0.0516  0.0790
16464W        W59480  18.949  31.320   2.100  0.0606 -0.2275 -0.0857
16465W        W59481  26.985  30.577   7.650 -0.2357 -0.3379  0.0845
16466W        W59482  12.578   0.398   8.468  0.1881  0.1117  0.1572
16467W        W59483   1.570  28.988   9.283 -0.2684  0.4085  0.0829
16468W        W59484   6.531  15.244  23.582 -0.1207  0.1799 -0.0808
16469W        W59485  18.137  19.476  24.440 -0.1415 -0.0061 -0.0739
16470W        W59486  15.040   7.171   4.928 -0.0682  0.1335 -0.0051
16471W        W59487  16.276  31.814  29.316 -0.0841 -0.1384  0.0602
16472W        W59488  33.867  18.555   9.062 -0.1651 -0.0789 -0.0359
16473W        W59489  18.370  29.771   1.053 -0.2532 -0.5754  0.4860
16474W        W59490  16.369  21.188   3.913 -0.0390 -0.1680  0.0878
16475W        W59491  22.531  23.543   0.991  0.1694 -0.0580  0.0212
16476W        W59492  17.627  33.859   1.185 -0.1358 -0.0476 -0.1809
16477W        W59493  17.872  16.407  20.860  0.0998 -0.0568  0.0128
16478W        W59494  20.526  21.223   0.381  0.0601 -0.0490 -0.1337
16479W        W59495  20.277   7.359   3.593  0.1856 -0.1215 -0.0454
16480W        W59496  23.576   3.890  17.058 -0.2284  0.0818 -0.0276
16481W        W59497   3.603  23.076   6.903  0.1792 -0.2396 -0.0001
16482W        W59498  28.501  27.348  19.194  0.0454 -0.1717 -0.1201
16483W        W59499  28.475  34.252  10.421  0.4218 -0.2391  0.1584
16484W        W59500  17.635  19.501   6.186  0.0288  0.2385  0.2529
16485W        W59501  34.112  16.893   4.448  0.1171 -0.5483  0.0320
16486W        W59502  29.506  28.855  25.514 -0.0444 -0.1252  0.2406
16487W        W59503  17.873  19.407  23.929 -0.2031  0.1025  0.1302
16488W        W59504  31.249  22.163   3.847 -0.0152 -0.1119  0.0831
16489W        W59505  27.925  28.915   3.474  0.0964  0.0055 -0.1520
16490W        W59506  18.151  19.759   5.033  0.0557  0.0746  0.1044
16491W        W59507  24.150  25.009   5.571  0.1559  0.0604 -0.0140
16492W        W59508   6.629  21.290   8.140 -0.2415 -0.0530  0.2376
16493W        W59509  12.536  22.947  23.575  0.0476 -0.2621  0.0650
16494W        W59510  28.111  25.493   7.502 -0.1928  0.1277  0.0406
16495W        W59511  32.508  29.266   0.560 -0.1678 -0.0807  0.4032
16496W        W59512  21.661  30.489  25.503 -0.0438 -0.2003  0.3398
16497W        W59513  10.702   1.427  22.691  0.1573  0.2063  0.3203
16498W        W59514  21.449   3.882  28.312 -0.2967 -0.3468  0.2082
16499W        W59515  29.574  25.102  27.103 -0.2472  0.1758  0.0640
16500W        W59516  32.439  25.156  10.595  0.1751 -0.0316 -0.3773
16501W        W59517  21.351  31.496  23.322  0.5027  0.0530 -0.0826
16502W        W59518  28.024  18.118   2.650  0.1138  0.1119 -0.0974
16503W        W59519  27.282  30.886  10.528 -0.0653  0.2273  0.2266
16504W        W59520   6.781   1.323   0.247  0.0612  0.0644  0.2774
16505W        W59521  17.249  20.965   7.729 -0.2302  0.2287  0.2855
16506W        W59522  19.398  18.981  13.825  0.2768  0.2306  0.1735
16507W        W59523  21.019  16.873   2.524  0.2963 -0.0082 -0.0749
16508W        W59524  24.677  13.405   3.304 -0.2740  0.1106 -0.0574
16509W        W59525  26.067  34.492   9.170 -0.0980 -0.0868 -0.1763
16510W        W59526  31.638   0.426  25.519 -0.3595 -0.5479  0.1341
16511W        W59527  16.954  27.341   5.515 -0.1212 -0.1240  0.0310
16512W        W59528   5.697  31.423  25.268  0.2676  0.0818 -0.0632
16513W        W59529  16.570  17.688  28.626 -0.1648  0.1648  0.2042
16514W        W59530  22.688  25.178  24.270  0.3029 -0.2451 -0.2904
16515W        W59531  15.935  10.986   2.133 -0.0078  0.0182  0.2270
16516W        W59532   1.934  33.183   2.835  0.2152  0.2418  0.1053
16517W        W59533  22.286   0.852   3.179  0.0025  0.0901 -0.2781
16518W        W59534  15.996   1.402   3.775 -0.2844 -0.4435 -0.1787
16519W        W59535  24.450  20.267  25.930 -0.0191  0.1630 -0.3434
16520W        W59536  28.142  32.664   9.455  0.1757 -0.1551  0.1534
16521W        W59537  21.994  23.305   6.312 -0.2746  0.3419  0.1673
16522W        W59538   8.065   2.968   6.146  0.1292  0.1042  0.0097
16523W        W59539  11.347   3.746  28.625 -0.0782 -0.1490 -0.1271
16524W        W59540  16.474   1.772  17.098  0.1649 -0.0867 -0.2635
16525W        W59541  17.671   3.444   6.788 -0.1773  0.0709 -0.0252
16526W        W59542  27.319  24.152   5.710 -0.0967  0.2073  0.1177
16527W        W59543  15.413  19.821  12.588  0.0425 -0.0636  0.4896
16528W        W59544  19.416   4.983   1.941  0.0472  0.2633 -0.0883
16529W        W59545  22.627  28.260   3.848  0.1172  0.1275  0.0732
16530W        W59546   7.016   2.081  28.874  0.3129  0.1042  0.4631
16531W        W59547  23.736  29.760   1.945 -0.1819 -0.3452 -0.3223
16532W        W59548  18.262  33.940   0.307 -0.1163 -0.2903 -0.3847
16533W        W59549   7.642   1.970  10.061 -0.3192 -0.1522  0.1160
16534W        W59550   8.819  32.923   5.536  0.0671  0.0706 -0.2897
16535W        W59551  27.372  11.163  16.014  0.1789  0.1129  0.1147
16536W        W59552  26.398   6.510   9.733  0.1785  0.2891  0.1586
16537W        W59553  27.467  32.474  27.499  0.2030  0.4470  0.2316
16538W        W59554  24.802  14.157   2.109 -0.3631 -0.1843 -0.2672
16539W        W59555  12.487  19.364   7.446 -0.1389  0.0853  0.4757
16540W        W59556  24.914   1.597  27.332  0.0568 -0.0204 -0.2029
16541W        W59557   4.999  23.698   8.401  0.2504  0.2380  0.0880
16542W        W59558  19.501  20.648   1.191 -0.3059  0.0927  0.1352
16543W        W59559  19.383  15.624  20.240  0.1086 -0.2100 -0.0014
16544W        W59560  16.837  29.389   4.409  0.0942  0.0675 -0.1660
16545W        W59561  29.207  11.993  24.742  0.1157  0.0416 -0.2354
16546W        W59562  17.937  25.840   6.585 -0.1183  0.1327  0.1693
16547W        W59563  21.764  18.669  19.652  0.2021  0.2259 -0.3291
16548W        W59564  24.910  16.261   0.516  0.0888  0.3608  0.2178
16549W        W59565  16.904  11.740   7.681 -0.0445  0.1012 -0.3655
16550W        W59566   7.230  32.713   3.975 -0.1450 -0.0566  0.0789
16551W        W59567  17.291  16.918  17.796 -0.0606 -0.3700  0.1204
16552W        W59568   5.399   0.341  14.065  0.0348  0.1468  0.1353
16553W        W59569  25.100  23.579  28.151 -0.2811  0.1413  0.0986
16554W        W59570  16.488  34.070  16.017 -0.2130 -0.1007 -0.0359
16555W        W59571  11.707  29.200  28.142  0.0662  0.1007 -0.1918
16556W        W59572  17.341   4.878   3.238 -0.1111 -0.2095 -0.0415
16557W        W59573  18.118  20.197  27.704 -0.1267  0.2248 -0.0402
16558W        W59574  16.430  11.565   0.975  0.2716 -0.0914  0.0910
16559W        W59575  22.442  13.411  28.358  0.0711  0.0378 -0.2199
16560W        W59576   4.212  10.109   4.745  0.1317 -0.1757  0.3175
16561W        W59577  11.719  19.101   2.061 -0.0309  0.1124  0.0874
16562W        W59578   5.211   4.326  10.341  0.1189  0.1703 -0.0267
16563W        W59579  10.160  13.177   0.689  0.3062  0.2745  0.1784
16564W        W59580   8.105  29.621   7.477  0.0803 -0.0686 -0.0884
16565W        W59581   1.013  16.226   2.240 -0.1429 -0.0494  0.3305
16566W        W59582  29.864  20.786  23.808  0.0679 -0.0549  0.0554
16567W        W59583  30.637  16.212  18.487 -0.0710 -0.1622 -0.0719
16568W        W59584  31.688  28.746   9.752  0.1960  0.1755  0.1304
16569W        W59585  14.747  26.395   6.279 -0.1704 -0.0348 -0.1263
16570W        W59586  18.518  34.295   9.141 -0.0492 -0.0315  0.2653
16571W        W59587  17.244  24.223  26.992 -0.0524 -0.5024  0.0558
16572W        W59588  29.292   2.901  21.291 -0.0837  0.2222  0.1935
16573W        W59589  34.099   6.391   2.886 -0.1529 -0.2012  0.0789
16574W        W59590  19.360   6.717  23.255 -0.2889 -0.0920 -0.0143
16575W        W59591  10.012   5.475   6.158 -0.2983  0.0574  0.0902
16576W        W59592  15.226   1.524   1.126 -0.1958  0.0991  0.2288
16577W        W59593  15.849  22.183   0.277 -0.1123  0.0736  0.2040
16578W        W59594  19.374  17.557   6.382 -0.1181 -0.0885 -0.3414
16579W        W59595  29.422   0.045   2.934 -0.1909 -0.1949  0.6054
16580W        W59596   9.240  32.228  27.540 -0.0436 -0.0530  0.0909
16581W        W59597  23.015  22.415  26.177 -0.0647 -0.1191  0.0975
16582W        W59598  10.890   2.780  27.829  0.0246 -0.3464 -0.1072
16583W        W59599  22.297  33.180   5.537 -0.3169 -0.2582  0.0911
16584W        W59600  17.060   3.836  28.685 -0.0242 -0.0539  0.0175
16585W        W59601   0.176   7.380   3.796 -0.0284  0.2103 -0.1441
16586W        W59602  13.303  21.190  25.659  0.0129 -0.0653 -0.0723
16587W        W59603   6.767  25.901  26.487 -0.0407 -0.0598  0.0736
16588W        W59604  21.178  32.456   9.243 -0.0075  0.3552  0.3168
16589W        W59605  28.335  17.607  27.533 -0.1018 -0.3774 -0.1007
16590W        W59606  26.556  27.952   6.254  0.0689 -0.2795 -0.2493
16591W        W59607  13.443  15.244   1.041 -0.2500 -0.0162  0.0875
16592W        W59608  20.959  23.396   0.590  0.2892  0.1064 -0.1691
16593W        W59609  23.329  14.232   1.165 -0.0658  0.0673 -0.0084
16594W        W59610   1.162  23.740   0.077 -0.4269 -0.3381  0.1168
16595W        W59611   5.900  25.662   8.983  0.0335 -0.1667  0.1838
16596W        W59612   0.213  26.920   5.321  0.1238  0.0306 -0.2309
16597W        W59613  10.414  29.743   7.425 -0.0717 -0.1759 -0.2828
16598W        W59614  24.760  28.968  10.445  0.1364 -0.2890  0.0422
16599W        W59615   4.802  29.803   7.678  0.0769  0.1247 -0.1216
16600W        W59616  22.355  19.044  16.620  0.2609 -0.1095 -0.2094
16601W        W59617  15.336  29.667  22.337  0.1976 -0.2796  0.2313
16602W        W59618  18.443  25.861  27.495  0.0886 -0.0040  0.0081
16603W        W59619  16.020  15.023   7.779 -0.4664  0.2218  0.3162
16604W        W59620  27.292  24.279   3.626  0.3873 -0.0286  0.3983
16605W        W59621  13.812  17.341   6.102  0.2725  0.1273 -0.2459
16606W        W59622  17.605  29.596  25.669 -0.3133  0.2160 -0.0323
16607W        W59623   0.312   3.860  10.363  0.0680  0.0121 -0.2144
16608W        W59624   8.629  29.192  21.232 -0.1384 -0.2246 -0.0677
16609W        W59625  20.341   8.834  20.504 -0.0463  0.0804 -0.0440
16610W        W59626  28.561  14.624   3.721  0.2246  0.2698  0.1007
16611W        W59627   7.060   4.511  22.410 -0.2263 -0.0538  0.1431
16612W        W59628  31.111  31.511   7.711 -0.3057 -0.1673 -0.0097
16613W        W59629  29.532   1.202  10.888  0.1268  0.1120  0.0633
16614W        W59630  28.186  25.305   4.429 -0.0226 -0.0099 -0.1502
16615W        W59631   6.520  15.117  28.461 -0.0552 -0.3597 -0.1395
16616W        W59632  11.274  26.318   3.175  0.0968 -0.3387  0.1150
16617W        W59633  30.380   3.223  17.240 -0.0424 -0.3651 -0.0411
16618W        W59634  33.486  19.218   3.826  0.0502  0.0601 -0.0489
16619W        W59635   6.306  27.998  28.232 -0.0855  0.5281  0.0601
16620W        W59636   4.385  15.683   6.114  0.0082  0.2179 -0.0730
16621W        W59637  17.187   1.114   7.881  0.0966  0.1124  0.0741
16622W        W59638  19.414   2.800   3.285 -0.1876 -0.1628 -0.1690
16623W        W59639   1.818  20.340  28.439  0.1781  0.2051 -0.2754
16624W        W59640  24.492  24.996  28.950 -0.0097  0.2652  0.2032
16625W        W59641   0.561  26.603  22.445  0.2221  0.0438  0.3533
16626W        W59642  29.483  16.601  14.585  0.0265  0.0049  0.1712
16627W        W59643  16.704  29.754  10.182 -0.0795  0.0164 -0.0110
16628W        W59644  15.592  33.393   6.951 -0.1168 -0.0518  0.0912
16629W        W59645  24.303   9.880   7.530 -0.0458  0.0106 -0.1064
16630W        W59646  16.666   1.989   0.152  0.2068  0.1099  0.3533
16631W        W59647  12.128  19.641  25.906 -0.1544 -0.1224  0.0035
16632W        W59648  28.504  20.917  10.456  0.2231  0.1272  0.2553
16633W        W59649  13.705  31.584   8.102  0.3702  0.1139 -0.0849
16634W        W59650  30.976  23.313   9.212 -0.3183 -0.0079 -0.0228
16635W        W59651  27.968  23.846   9.587 -0.2313 -0.0492 -0.2752
16636W        W59652  28.267  20.972  24.154  0.1239 -0.1102  0.1087
16637W        W59653  15.046  34.118   4.814 -0.1566 -0.1732  0.0516
16638W        W59654  26.268  27.098  29.133  0.0715  0.1936  0.1757
16639W        W59655  25.893  13.590  26.158 -0.1526  0.1387  0.0297
16640W        W59656  10.993  32.156   4.865  0.2449  0.0225  0.1155
16641W        W59657  22.366  32.017   8.255  0.0738 -0.1383  0.2487
16642W        W59658  18.059  19.381   5.342 -0.1228 -0.1055  0.1616
16643W        W59659  30.890  33.827  23.930  0.0043  0.0673  0.1716
16644W        W59660  18.484  31.547  10.709 -0.0530  0.3301  0.2432
16645W        W59661  11.621   5.724  20.325  0.1375  0.0008  0.1410
16646W        W59662  12.591  25.428  20.158 -0.0117  0.0441 -0.2035
16647W        W59663  17.847  32.509   8.935 -0.0901  0.0508  0.0360
16648W        W59664   3.306   4.202   8.853  0.1265 -0.0232 -0.0851
16649W        W59665  20.963  17.095   7.060 -0.0703 -0.0442  0.0810
16650W        W59666  19.210  17.272   7.096  0.0133  0.0860 -0.0187
16651W        W59667  10.894  24.725  16.629  0.2545 -0.3829 -0.2151
16652W        W59668  26.935  30.762   8.183  0.1798  0.2895 -0.0431
16653W        W59669   4.933  32.484   7.403 -0.0582  0.0634  0.1501
16654W        W59670  15.236  32.297   3.716 -0.2288  0.1864 -0.0450
16655W        W59671  22.605  29.337   7.771 -0.0096  0.0738 -0.3673
16656W        W59672  19.339  22.636   4.969 -0.0778 -0.2534  0.2426
16657W        W59673   3.450  24.707   4.889 -0.2983 -0.0808  0.0414
16658W        W59674  27.235  20.116   8.161 -0.1387  0.3345  0.0679
16659W        W59675  32.885   1.086   9.342  0.5092 -0.1782 -0.1273
16660W        W59676  28.472  11.804  21.691 -0.2125  0.3752  0.2672
16661W        W59677  13.111  29.512   3.326  0.0186 -0.0522  0.0741
16662W        W59678  16.453  29.816  21.193 -0.1561  0.0693 -0.0880
16663W        W59679  31.630  25.112   5.769  0.0690  0.1235 -0.1438
16664W        W59680  22.546  19.396   9.472 -0.0979 -0.1161 -0.0461
16665W        W59681  26.394  20.716  20.908  0.0909 -0.0943  0.1463
16666W        W59682  30.836  14.772   3.741 -0.2359 -0.0496  0.0698
16667W        W59683   8.768   9.235   9.457 -0.2865  0.0422  0.2522
16668W        W59684   7.627  26.708   9.017  0.0774 -0.0519  0.2229
16669W        W59685  10.048   0.980  21.506 -0.0088  0.2007 -0.1034
16670W        W59686  22.506  34.287   1.193 -0.0518  0.2451  0.0789
16671W        W59687  19.574  28.314   1.683  0.4065 -0.2144  0.1020
16672W        W59688  18.858  29.911   9.570 -0.0406  0.0176  0.3448
16673W        W59689   7.852  32.055   9.936 -0.0257  0.1447 -0.0427
16674W        W59690  18.132  24.976   0.123  0.3016  0.4732  0.0743
16675W        W59691  15.546   2.380  14.351 -0.3418 -0.0548 -0.0933
16676W        W59692  15.181  33.126   7.240 -0.1179 -0.1547 -0.1840
16677W        W59693  24.436  34.202   5.080 -0.1276 -0.0921  0.1572
16678W        W59694  12.748  14.649   3.393  0.0709 -0.3634 -0.1362
16679W        W59695  25.121  24.912  10.214  0.2197  0.2983  0.1895
16680W        W59696  15.552  32.618   9.335 -0.1452  0.2503  0.0204
16681W        W59697  32.495  25.882  10.288  0.1159 -0.3521 -0.1155
16682W        W59698  31.597  24.441  27.160  0.0193  0.1309 -0.1328
16683W        W59699  21.881  14.385   4.008  0.3252 -0.3594 -0.0527
16684W        W59700  15.711  33.420  20.917 -0.1148 -0.3765 -0.0410
16685W        W59701  21.028   9.515   7.640 -0.3944  0.0001 -0.2836
16686W        W59702   9.105  18.126  23.143  0.1327  0.0894 -0.1882
16687W        W59703  11.912  34.671   9.531  0.0592 -0.3509  0.0204
16688W        W59704  33.236  34.199  27.610  0.1589 -0.2988  0.0901
16689W        W59705  15.418  27.711  10.388 -0.0106 -0.1576 -0.1691
16690W        W59706  27.954  24.876  11.953  0.3839  0.1197  0.1614
16691W        W59707   2.556  31.035   6.327 -0.1264 -0.1218 -0.0160
16692W        W59708  15.910  27.955  24.641  0.3172  0.1639  0.0239
16693W        W59709  30.231  20.730  22.789  0.2047 -0.1405 -0.0394
16694W        W59710  26.334  18.279  29.101 -0.0272 -0.1927 -0.2074
16695W        W59711  12.659   1.986   4.404 -0.2448  0.0240 -0.1581
16696W        W59712  15.458  14.285   7.343  0.1775 -0.4524  0.1778
16697W        W59713  18.553   2.189   8.716  0.0585 -0.2620 -0.0225
16698W        W59714  21.235  16.675  21.351 -0.0072  0.0589  0.2912
16699W        W59715  22.206   5.574   8.237  0.0971  0.0444 -0.0507
16700W        W59716  26.205  31.374   8.303  0.0074  0.0236 -0.1148
16701W        W59717  21.478  29.233  10.044  0.2673 -0.1360 -0.3604
16702W        W59718  30.472  23.127  26.523 -0.1757 -0.0419  0.1811
16703W        W59719  18.425  23.208   8.627  0.1663  0.1900  0.0159
16704W        W59720  21.708  31.248   3.246 -0.3043  0.0868 -0.1689
16705W        W59721  18.768  30.569   3.248  0.0427  0.0256 -0.0790
16706W        W59722  28.335  25.185   3.973  0.1791  0.4243 -0.1651
16707W        W59723  17.732  32.757  19.518  0.1953 -0.0933  0.1762
16708W        W59724  23.279  17.936  29.015 -0.2799 -0.0773  0.2310
16709W        W59725  22.756  31.474   3.140 -0.2205 -0.1607 -0.4546
16710W        W59726  18.977  32.290  28.086 -0.1594 -0.1684 -0.3088
16711W        W59727  26.817   8.133   5.148 -0.1250 -0.2408  0.0780
16712W        W59728  30.039   0.451   5.626 -0.1925 -0.0599 -0.2276
16713W        W59729  21.848   5.696   9.205 -0.1093  0.0273  0.3857
16714W        W59730  27.493  17.433   2.404  0.1299  0.0953  0.1017
16715W        W59731  24.622  23.738   2.400 -0.2328  0.1855 -0.3503
16716W        W59732  20.256  22.498   3.573  0.2311 -0.0398  0.1628
16717W        W59733  19.143  26.780  19.234  0.2375  0.0375  0.1534
16718W        W59734  11.414  17.801  29.017  0.2179  0.1441  0.0286
16719W        W59735  22.624  28.166   7.487  0.1523  0.3571 -0.1225
16720W        W59736  15.499  26.267   7.444 -0.2213  0.2122 -0.2384
16721W        W59737  23.025   0.238   1.783  0.2350  0.0221  0.0842
16722W        W59738  29.997   8.775   4.472 -0.0749 -0.0972 -0.0853
16723W        W59739  21.279  23.920   6.996 -0.3019 -0.5187 -0.0398
16724W        W59740  15.899  22.912  26.761 -0.0495 -0.1929  0.2181
16725W        W59741  17.606  14.297  24.796 -0.1037  0.0157  0.0459
16726W        W59742  20.621  21.036  16.496  0.0002 -0.0661 -0.3419
16727W        W59743  19.690  30.145   9.570  0.2751  0.0299  0.1206
16728W        W59744  10.665  10.976   4.192  0.1146 -0.2192 -0.0974
16729W        W59745  26.237  13.467   6.420 -0.6876 -0.2081  0.2610
16730W        W59746  17.596  27.522   8.091  0.0493  0.0649 -0.0710
16731W        W59747  12.946  33.437  19.269 -0.0438 -0.3198 -0.2193
16732W        W59748  27.652  21.592   5.963 -0.0283  0.2962 -0.2091
16733W        W59749  11.888  32.442   9.866 -0.0933 -0.0833 -0.0288
16734W        W59750  26.737   3.674   7.888 -0.1257 -0.1825  0.1236
16735W        W59751  19.221  15.494   5.446  0.0515  0.1525 -0.0466
16736W        W59752  10.202  24.771   4.822  0.1479 -0.1655 -0.0236
16737W        W59753  33.319  17.293   5.085 -0.2249 -0.0167 -0.0307
16738W        W59754  20.532  22.386   6.037 -0.2010  0.2748  0.0701
16739W        W59755   9.070   5.223  18.630  0.1982 -0.0379 -0.1324
16740W        W59756  22.584  24.245   9.665 -0.0782  0.2862  0.0039
16741W        W59757   6.618   3.345   2.499  0.0267 -0.0592  0.0405
16742W        W59758  17.706  24.978   0.842 -0.5037 -0.0604 -0.0598
16743W        W59759  34.699   3.740   4.230  0.2240 -0.0590 -0.3360
16744W        W59760  20.151   6.683  29.124 -0.1346  0.0563  0.0280
16745W        W59761  24.058  21.402   0.942  0.0311  0.2258 -0.1044
16746W        W59762  25.105  26.224   5.081  0.0284  0.1230 -0.1554
16747W        W59763  26.993  29.324  26.703  0.1381  0.0428 -0.1996
16748W        W59764  13.821  13.387   2.986 -0.1426  0.1606 -0.2227
16749W        W59765  19.574  29.124   4.249  0.2410  0.1166 -0.0579
16750W        W59766  14.115   2.792   1.338  0.0484  0.2712  0.0472
16751W        W59767  12.480  18.754  26.652  0.2081 -0.3286 -0.2016
16752W        W59768  24.468  22.766   3.284  0.1954  0.2372 -0.4761
16753W        W59769  14.206  25.478   0.872 -0.1078  0.0784  0.1561
16754W        W59770   1.927  20.196  25.204  0.0874  0.1635 -0.0378
16755W        W59771  21.631   0.171  19.894 -0.1535  0.4299  0.2238
16756W        W59772   0.201  21.529  25.673 -0.0659 -0.0031 -0.1142
16757W        W59773  20.697   6.391   0.465 -0.1686  0.1826  0.2148
16758W        W59774  11.118   3.225   4.705 -0.2670 -0.0740  0.1528
16759W        W59775  26.688  32.184   1.000 -0.2963 -0.2396  0.0438
16760W        W59776  23.422  21.091   8.209 -0.0856 -0.2182 -0.0126
16761W        W59777   9.527  12.186   7.151  0.2144  0.2772 -0.1556
16762W        W59778  26.018  23.031  10.281  0.0737 -0.2416 -0.1154
16763W        W59779  22.823  27.828   5.102 -0.0625  0.0450 -0.2035
16764W        W59780  14.034  29.148  27.494  0.1396  0.2031  0.0055
16765W        W59781  20.424  19.062  28.976  0.1092  0.4685  0.1040
16766W        W59782   7.459  28.028   5.470 -0.0144 -0.5535  0.1491
16767W        W59783  29.872  10.883   7.510 -0.1037 -0.1572 -0.0986
16768W        W59784   7.045  22.101   2.001 -0.1313 -0.4374 -0.0151
16769W        W59785  28.707  31.566   1.850 -0.0121  0.5286 -0.1044
16770W        W59786  14.849   5.295  26.015  0.1470  0.1782 -0.3286
16771W        W59787  33.909  28.726  26.260  0.1175 -0.1089  0.1588
16772W        W59788  27.977  33.703   5.604 -0.0747 -0.2457 -0.1878
16773W        W59789  29.926  16.096   3.390 -0.1080  0.3116  0.0031
16774W        W59790  16.127  23.395  24.315  0.2900  0.1376  0.0094
16775W        W59791  22.468   2.292   5.906  0.0563  0.0923  0.1973
16776W        W59792   4.140  14.039   2.030 -0.0651  0.2298 -0.1179
16777W        W59793   7.575  26.884  28.713 -0.4597  0.1132 -0.0033
16778W        W59794  16.543  22.345  20.691 -0.0217  0.3040  0.0810
16779W        W59795  29.954  11.655   3.321  0.0776 -0.1313  0.2824
16780W        W59796  25.784  26.558  25.502  0.1030 -0.0973 -0.4655
16781W        W59797  26.694  23.543   1.410 -0.2180  0.0472 -0.0283
16782W        W59798  26.744  31.110  27.878  0.1890  0.0482 -0.0781
16783W        W59799  16.382  12.803   5.106 -0.0498  0.0395  0.1818
16784W        W59800  17.421  11.484   6.948 -0.0292 -0.1080 -0.0700
16785W        W59801  12.073  30.751   7.379 -0.2584  0.1371 -0.1530
16786W        W59802  15.893  15.989   2.730  0.0845  0.1333 -0.1804
16787W        W59803  13.021  11.548  26.955  0.1355 -0.1949  0.1448
16788W        W59804  27.850  24.097  29.228 -0.1778 -0.0006  0.0668
16789W        W59805  27.547  15.771   6.418 -0.0120  0.0818  0.0628
16790W        W59806  17.087  30.901   7.229  0.1579  0.0311  0.3280
16791W        W59807   5.020  16.079   3.872 -0.0595 -0.4097  0.0265
16792W        W59808  22.653  25.170  20.204 -0.0132 -0.2415 -0.2287
16793W        W59809  21.278  20.433  21.419 -0.0199  0.4330 -0.0620
16794W        W59810  15.219   2.024  29.205 -0.2207 -0.0319  0.2520
16795W        W59811  22.537   7.692  28.201  0.2303  0.0039  0.0562
16796W        W59812  19.615  21.330   3.758  0.0014  0.0513 -0.0889
16797W        W59813  25.287  19.710  25.461  0.1434  0.0927  0.2246
16798W        W59814   0.576  15.182  10.885 -0.1004 -0.0314 -0.2360
16799W        W59815  33.246  21.353  20.859  0.0695 -0.3693 -0.0646
16800W        W59816  13.920   4.083   5.042  0.0124 -0.0184  0.2519
16801W        W59817   8.077   6.602   3.760  0.1906  0.0545 -0.0093
16802W        W59818  24.249  23.984  16.649 -0.0294 -0.1541  0.0038
16803W        W59819  13.621  15.206   0.100  0.0577  0.1737  0.0586
16804W        W59820  19.658   0.180  23.837 -0.1109 -0.0272 -0.0409
16805W        W59821  27.569  28.257  20.470  0.2365 -0.1175 -0.1769
16806W        W59822  18.215   1.421  22.949 -0.0432  0.1707 -0.3416
16807W        W59823  10.179  27.759  28.844 -0.2302 -0.1951 -0.0945
16808W        W59824  19.995  24.269  27.103 -0.2502  0.0995 -0.1611
16809W        W59825  26.026  12.349   2.202  0.0236  0.1570  0.2211
16810W        W59826  12.976  23.433   6.053 -0.1290  0.2864  0.1943
16811W        W59827   2.543  14.778   6.166  0.1429  0.1155  0.0240
16812W        W59828  17.966   2.794  22.043  0.0423  0.2407 -0.3299
16813W        W59829  13.188  16.984   4.823  0.2459 -0.1281  0.3024
16814W        W59830  14.302  32.734   9.730 -0.1480 -0.0664  0.1253
16815W        W59831  28.024  31.102   3.899  0.0524 -0.4945 -0.2101
16816W        W59832  12.007   2.726  25.414  0.3638  0.0401  0.0377
16817W        W59833   9.768  34.035  27.931 -0.4517 -0.0795 -0.2392
16818W        W59834  14.161  34.647   0.335 -0.0225  0.0745 -0.3070
16819W        W59835  27.884  21.350  10.969  0.1280  0.0038 -0.1155
16820W        W59836  24.289  10.001  29.249 -0.3864 -0.2628  0.2803
16821W        W59837  20.061  15.132   1.091  0.0614  0.1901  0.4669
16822W        W59838  22.501   3.923   3.420 -0.2983  0.3175 -0.1078
16823W        W59839  14.042  23.455   4.633 -0.0717  0.1272 -0.1133
16824W        W59840   9.206  26.430  26.275 -0.2297  0.4798 -0.1864
16825W        W59841  29.384  19.362  28.059  0.0484 -0.1247 -0.1028
16826W        W59842  22.468  30.771   6.037  0.0490 -0.1736  0.1007
16827W        W59843  14.159  24.241  19.436  0.2552 -0.1418  0.0598
16828W        W59844  19.466  25.768  27.782  0.3082 -0.6166  0.1683
16829W        W59845  22.843  17.660  24.065 -0.0275  0.0567  0.0502
16830W        W59846  29.854   5.530  10.364 -0.2815  0.1618  0.0530
16831W        W59847  25.543   0.693   4.683  0.1793 -0.1833  0.3558
16832W        W59848  23.645  19.477   6.092  0.0838 -0.2324 -0.2314
16833W        W59849  11.772  23.186   2.086  0.0208  0.0428 -0.0374
16834W        W59850  27.849  16.396  22.399 -0.0593  0.2852 -0.1315
16835W        W59851  12.975   3.256   9.858  0.3182  0.1708 -0.1077
16836W        W59852  18.189  21.247   7.744 -0.1869  0.0658  0.2446
16837W        W59853   4.293  34.707   7.210 -0.1823 -0.0832 -0.1980
16838W        W59854  17.320  34.060  28.608 -0.0294 -0.0006 -0.0454
16839W        W59855  24.172  23.883   5.358 -0.0036  0.2233  0.3876
16840W        W59856  23.621  12.927  28.424 -0.0725  0.2451  0.0227
16841W        W59857  15.652  29.342  10.943  0.3090  0.1314  0.0863
16842W        W59858  13.157  26.030  17.243 -0.0591 -0.1520  0.0247
16843W        W59859   0.581   2.419  26.227  0.0857  0.2202  0.2888
16844W        W59860  20.860  32.096   9.395 -0.0415 -0.2444  0.0912
16845W        W59861  34.711  20.919  28.607  0.0570  0.1339 -0.3127
16846W        W59862  12.266  18.115   0.861 -0.0590 -0.0153 -0.0943
16847W        W59863  31.767  23.518   4.620 -0.1412  0.0403 -0.0347
16848W        W59864  33.676  33.114  10.817 -0.0046 -0.2932 -0.1169
16849W        W59865  23.567  28.275   0.774 -0.0348 -0.1205 -0.0920
16850W        W59866  13.806  30.606   7.073 -0.0031 -0.1019  0.0541
16851W        W59867   5.846  12.863   8.417 -0.0970 -0.0642 -0.1898
16852W        W59868  16.745  31.061   7.611 -0.1285 -0.2439  0.2194
16853W        W59869  29.767  21.068   8.430 -0.0641  0.0928  0.1581
16854W        W59870  20.562  26.842  27.498  0.3390  0.1840  0.2645
16855W        W59871  13.665  28.307  28.624  0.1903  0.1863 -0.0401
16856W        W59872  23.432  30.984  23.458 -0.3004  0.1336 -0.1342
16857W        W59873  14.051  24.234   4.028 -0.2228 -0.0515  0.2024
16858W        W59874  16.862  17.680  27.188  0.0805  0.2702 -0.1389
16859W        W59875  15.634  22.818  28.969 -0.0360  0.0192  0.2525
16860W        W59876  33.796  21.772   1.499 -0.0557  0.1990  0.0136
16861W        W59877  25.883  24.058   9.452 -0.1071  0.3745 -0.2024
16862W        W59878  23.413  22.107   4.293 -0.1236  0.0640 -0.2340
16863W        W59879  18.069   8.577  28.453 -0.0150  0.0780 -0.0555
16864W        W59880  20.097  20.761  26.717  0.1049  0.0699  0.3799
16865W        W59881  12.163  25.241  16.650  0.3960 -0.4323 -0.0535
16866W        W59882  23.098   0.774   1.023  0.2099 -0.3096  0.0690
16867W        W59883  13.724  23.906   4.871 -0.3599 -0.3526 -0.1068
16868W        W59884  28.005  23.844   4.010  0.0092 -0.1260 -0.0570
16869W        W59885   3.488  31.341   7.503 -0.2195 -0.0378  0.0890
16870W        W59886  23.645  23.664  22.137 -0.0891 -0.3161 -0.0481
16871W        W59887  27.097   3.600  10.519  0.2144  0.3683 -0.0289
16872W        W59888  22.895   0.788   3.444  0.0934 -0.3381 -0.0106
16873W        W59889  34.604  13.619   0.007  0.0585 -0.0841  0.1601
16874W        W59890  18.998  15.388  27.179  0.1878  0.0215 -0.2286
16875W        W59891  33.076  24.635   9.755  0.0782 -0.0273  0.0860
16876W        W59892   9.243  25.069  25.532 -0.2208 -0.3109 -0.1765
16877W        W59893  27.615  22.800   2.265 -0.1692  0.1452  0.4341
16878W        W59894  21.429  33.168   5.821  0.0571  0.0803  0.3669
16879W        W59895  28.833  33.506   6.148 -0.1024 -0.0532 -0.3528
16880W        W59896  17.600  34.320   2.324  0.0914  0.0017 -0.0464
16881W        W59897  24.761  28.245   9.219 -0.3013  0.1690  0.1268
16882W        W59898  14.095  20.225   6.839 -0.0069 -0.3756 -0.1129
16883W        W59899  27.450  12.552   7.496  0.0186  0.3886  0.0532
16884W        W59900  17.165  18.260   6.370  0.1780 -0.1286 -0.2979
16885W        W59901  31.885  27.240  25.590  0.0130  0.0688  0.2946
16886W        W59902  20.077  24.707   6.985  0.2404 -0.1126  0.1631
16887W        W59903  25.480  15.834  27.985  0.2338  0.1131 -0.1922
16888W        W59904  31.986  20.374   9.071 -0.3389  0.0753 -0.0709
16889W        W59905  18.515  26.102  29.204  0.0330  0.2068  0.0802
16890W        W59906  10.782  18.877   2.316  0.0109  0.0676  0.0796
16891W        W59907  15.352  32.219   0.552 -0.0182 -0.2193 -0.1354
16892W        W59908   9.590   8.849  27.653 -0.0268  0.0972 -0.1396
16893W        W59909  20.599  32.505  10.546  0.2432  0.1538 -0.0724
16894W        W59910  19.931  17.343  18.777 -0.1291 -0.0830  0.3036
16895W        W59911  22.395  17.808  27.905  0.0405 -0.1893  0.3659
16896W        W59912  15.605  30.297   3.012  0.0175 -0.0137  0.0208
16897W        W59913  30.962  16.277   6.800  0.1197  0.0090 -0.0036
16898W        W59914  13.802   1.135   9.770  0.2074  0.2822 -0.1825
16899W        W59915  27.171  34.361  11.247  0.0424  0.3570  0.2317
16900W        W59916  15.729   3.815  24.614 -0.0291  0.0736  0.2282
16901W        W59917  31.497  23.269   3.525  0.0989 -0.2203  0.1577
16902W        W59918  25.801   3.798   3.669  0.1308 -0.0822  0.0542
16903W        W59919  32.352  15.730   4.402  0.1402  0.3241  0.1129
16904W        W59920  10.677  18.856   8.217  0.0987  0.2776 -0.1905
16905W        W59921  29.263  26.677   4.534  0.0742  0.2156 -0.2844
16906W        W59922  19.595  22.377  20.148 -0.0639 -0.2020  0.1099
16907W        W59923  15.939  32.863  22.812 -0.0047  0.0993 -0.1536
16908W        W59924   8.365   5.144   2.439 -0.0367 -0.1495 -0.0631
16909W        W59925  20.461  17.155  22.557 -0.0281  0.1400  0.3876
16910W        W59926   5.407  29.954   7.580  0.1373  0.0419 -0.0081
16911W        W59927  26.305  29.472   5.360  0.0933  0.2845 -0.2469
16912W        W59928  25.021  13.052   8.894 -0.0712  0.1152 -0.2529
16913W        W59929   9.844  22.395   1.594  0.0409  0.0963  0.1372
16914W        W59930  21.363  24.580   5.844  0.0573  0.2963  0.1377
16915W        W59931   6.285  30.670  24.905 -0.2260  0.2864  0.1359
16916W        W59932  27.871  22.362   5.632 -0.1074  0.2579 -0.0707
16917W        W59933   3.541  29.669  28.417 -0.0468 -0.2060 -0.0003
16918W        W59934  21.253  11.831   0.069  0.1301  0.1864 -0.0440
16919W        W59935   3.605  28.283   7.545  0.1167  0.1431  0.0140
16920W        W59936  16.068  31.663   3.340 -0.0684  0.2571 -0.5172
16921W        W59937  13.163  19.989   1.717 -0.0415 -0.2926 -0.2024
16922W        W59938  20.841  21.698   1.051 -0.1684 -0.2481  0.0707
16923W        W59939  27.430  23.752   8.118 -0.0649  0.4583 -0.0952
16924W        W59940  15.903  24.353   1.766  0.0377  0.0079  0.0243
16925W        W59941  13.710   5.266   6.362  0.0365  0.2102 -0.0234
16926W        W59942  11.179  27.624   6.248 -0.0047  0.1116 -0.3543
16927W        W59943  20.192   0.182  19.397 -0.1276  0.1269  0.0600
16928W        W59944  23.824   3.349   3.041  0.1256  0.2243 -0.0624
16929W        W59945  31.534  15.425   7.503 -0.0584  0.1906 -0.0012
16930W        W59946  19.549   1.250   6.325  0.0857  0.1107  0.1783
16931W        W59947   1.602  15.827  28.107  0.0977  0.0377  0.3538
16932W        W59948  11.202   0.357   6.602 -0.3006 -0.3281 -0.1910
16933W        W59949  20.371  22.389   8.492 -0.2752  0.2559 -0.0904
16934W        W59950  19.068  28.686  25.023  0.3850 -0.1124  0.0329
16935W        W59951  29.806  34.673   0.358  0.0574  0.0030 -0.4855
16936W        W59952   9.708  32.299   9.060  0.0380 -0.2749 -0.0699
16937W        W59953  29.511  19.493   9.997 -0.0266 -0.1051 -0.2350
16938W        W59954  21.018  15.569  16.588  0.3890 -0.2868  0.0748
16939W        W59955   9.350  27.375  27.674 -0.0004 -0.2236 -0.1330
16940W        W59956  27.939  25.254   7.914 -0.1480 -0.0026 -0.2508
16941W        W59957  19.685  27.240  25.735  0.1118  0.2491  0.1298
16942W        W59958   0.228  15.596   6.051 -0.0191 -0.2387  0.1503
16943W        W59959  27.051  28.131   5.429  0.2073  0.0058 -0.1590
16944W        W59960  14.357   1.685   0.139  0.1725 -0.3480 -0.1914
16945W        W59961  11.986   2.166  23.575  0.1276 -0.0594 -0.0821
16946W        W59962  34.335  33.780   1.026  0.0776  0.0013  0.2165
16947W        W59963  22.381  27.604  10.399  0.0755  0.2527  0.1045
16948W        W59964  27.755  25.222   2.418  0.0645 -0.0295 -0.1363
16949W        W59965   8.910  12.054  26.702 -0.0950  0.1244  0.1603
16950W        W59966  26.747  26.900   6.746  0.3452 -0.0942  0.0046
16951W        W59967  21.679  20.703  24.962  0.3533 -0.0406  0.1665
16952W        W59968  10.891   3.121   5.923 -0.0463 -0.1425  0.4489
16953W        W59969  24.174  24.934   8.418  0.4395 -0.0289  0.0375
16954W        W59970   1.158  18.139   7.340 -0.3757  0.1341  0.1112
16955W        W59971   6.504  22.811   5.612  0.1037  0.1649 -0.1480
16956W        W59972  29.343   5.157  17.428  0.4012 -0.0821  0.0843
16957W        W59973  22.593  32.106  19.609 -0.3773 -0.2266 -0.1051
16958W        W59974  19.643  27.489   8.957 -0.2194 -0.0561  0.3028
16959W        W59975  22.904  20.397   5.984 -0.2188 -0.3841  0.0846
16960W        W59976  28.771  12.034   3.938  0.0479 -0.2091  0.3100
16961W        W59977   9.051  21.612  27.981  0.2392 -0.1539 -0.3828
16962W        W59978  29.164  25.650  20.040 -0.1819 -0.1202  0.0911
16963W        W59979  18.585  30.968   3.420 -0.0355 -0.0690  0.3246
16964W        W59980  21.695  18.394   0.823  0.0693 -0.3779 -0.4654
16965W        W59981  19.069  14.586  28.947  0.1173 -0.2607  0.2896
16966W        W59982   6.059   1.611   0.655  0.1144 -0.1800  0.2640
16967W        W59983  18.212  19.406  22.527 -0.1386 -0.0357 -0.0021
16968W        W59984  21.684  20.644   5.007 -0.3807 -0.0112 -0.0668
16969W        W59985  29.162  24.870  11.975  0.0934  0.0359  0.0496
16970W        W59986  12.922  32.594  10.017  0.1289 -0.0554  0.0894
16971W        W59987  11.432  12.122   0.678  0.1067  0.0087 -0.1623
16972W        W59988  18.836  27.925  19.869 -0.0421 -0.1291 -0.0881
16973W        W59989  11.832  25.681   8.760 -0.0700 -0.0605  0.0209
16974W        W59990  11.659   2.217  21.129 -0.2388  0.1926 -0.0716
16975W        W59991  17.529  27.108   3.856 -0.1208 -0.0195  0.0823
16976W        W59992   9.965   1.554  24.320  0.1687 -0.0003 -0.1332
16977W        W59993  23.440  27.854   8.899  0.1766  0.2800 -0.1666
16978W        W59994   1.913  29.760  20.254  0.2973 -0.0018 -0.1074
16979W        W59995  28.137   6.970   4.029 -0.0662 -0.0765  0.1388
16980W        W59996   9.397   4.386   0.171 -0.0712 -0.1218 -0.0422
16981W        W59997  19.379  17.076  28.316 -0.3698 -0.2854  0.2565
16982W        W59998   6.888  16.182   4.281 -0.1528  0.0127 -0.2963
16983W        W59999  16.953  28.219   7.834  0.4535 -0.0317  0.0115
16984W        W60000   6.497  30.388  17.267  0.0478  0.0277  0.2382
16985W        W60001  29.668  31.524   9.442 -0.1567 -0.1233 -0.0703
16986W        W60002  20.301   6.595  28.511 -0.1568  0.0661  0.0579
16987W        W60003  12.243  20.348  24.009 -0.2998 -0.1695 -0.0344
16988W        W60004  34.253  24.632   3.726 -0.0178 -0.1154  0.1010
16989W        W60005  27.130  30.070  10.022 -0.0069 -0.0293 -0.1892
16990W        W60006  22.507  17.909   4.758 -0.1266  0.2867 -0.0022
16991W        W60007  20.614  14.119   2.851 -0.1194  0.0055 -0.0185
16992W        W60008  21.216  19.719  26.439  0.3473 -0.2112 -0.2234
16993W        W60009  25.414  25.167   1.210 -0.0770  0.1724 -0.0406
16994W        W60010   9.016  11.321   3.236  0.0304 -0.2264  0.0640
16995W        W60011  21.494  31.364   3.759 -0.0400  0.4686  0.2035
16996W        W60012  30.853  17.532   4.836  0.0095  0.1533 -0.2353
16997W        W60013  24.327   5.187   2.921 -0.0680 -0.1672  0.0506
16998W        W60014   6.525  26.092   0.313 -0.0113  0.1010 -0.1429
16999W        W60015   5.275   6.559   8.388 -0.1866  0.0243 -0.4048
17000W        W60016  15.952  25.330   2.919  0.1466 -0.0967  0.1267
17001W        W60017  29.137  26.833  27.849 -0.1298  0.2781 -0.0082
17002W        W60018  12.320  33.187  22.438  0.2950  0.1168  0.0588
17003W        W60019  15.403  14.478  25.709 -0.0524 -0.0089  0.0496
17004W        W60020  18.237  30.117   6.999  0.1914  0.1190 -0.0384
17005W        W60021  26.215  24.208   7.193 -0.0819  0.3262  0.1211
17006W        W60022  21.016   2.407  25.471  0.0608  0.2625  0.2077
17007W        W60023  24.488  17.271   7.093 -0.0542 -0.0536 -0.2477
17008W        W60024  30.175   5.957   9.626  0.0425 -0.1455 -0.0862
17009W        W60025   2.691  16.909  27.893 -0.0455  0.2334 -0.3506
17010W        W60026  11.271  26.215   1.348 -0.0672  0.3621 -0.0914
17011W        W60027  13.475  34.015   3.002 -0.0814  0.2249 -0.2605
17012W        W60028  15.301   6.338   0.215 -0.2692 -0.0275 -0.1624
17013W        W60029  26.255  14.331   3.127  0.0441 -0.3801 -0.4938
17014W        W60030  18.478   1.108   0.226  0.0143 -0.0236  0.1951
17015W        W60031  14.899   1.731  27.440 -0.2093  0.4481 -0.3072
17016W        W60032  25.788  21.367   3.879  0.1336 -0.3400  0.2915
17017W        W60033  32.070  27.048  18.147  0.1464 -0.5973 -0.0545
17018W        W60034  10.364  14.344   5.907  0.0839 -0.0671  0.1085
17019W        W60035  13.944  25.060  24.780 -0.1556  0.1338 -0.1118
17020W        W60036   4.553  16.260   5.158 -0.0539 -0.1262 -0.0189
17021W        W60037  10.166  22.762   8.606 -0.1390  0.1748 -0.2920
17022W        W60038  18.655  33.656  10.857  0.0640  0.3820  0.2558
17023W        W60039  14.301  16.575   1.349 -0.1413 -0.0668 -0.2756
17024W        W60040  24.528   4.260   7.977  0.1466  0.3672 -0.0739
17025W        W60041  23.880   1.196  11.552  0.1207 -0.0510 -0.0510
17026W        W60042   5.567   4.040   0.944  0.2645  0.0081  0.1930
17027W        W60043  25.492  14.677   5.306 -0.2115  0.1636  0.1059
17028W        W60044  23.988  34.577   5.868 -0.0394  0.1880  0.3560
17029W        W60045  15.730  17.826   5.186  0.0749 -0.0460 -0.2460
17030W        W60046  23.734   1.043   5.281  0.2345  0.2308 -0.0347
17031W        W60047  21.825  21.574  25.276 -0.0325 -0.0009 -0.0151
17032W        W60048  22.485   1.100  10.690  0.1127 -0.1269 -0.0564
17033W        W60049  21.282  19.786  21.493 -0.2465  0.1358 -0.0847
17034W        W60050  22.963  16.255  21.582 -0.2348  0.1088  0.1563
17035W        W60051  10.938   9.716   1.392 -0.2355  0.1974  0.0802
17036W        W60052   7.244  26.184  28.988  0.4234  0.0701  0.0201
17037W        W60053  14.881  17.567  28.770  0.0701 -0.2566  0.2568
17038W        W60054   9.963  15.435   5.434  0.0101 -0.2006 -0.1298
17039W        W60055  20.960   8.721   1.979 -0.0491 -0.0426 -0.2503
17040W        W60056   7.143  12.091   6.836 -0.0222  0.2029  0.1887
17041W        W60057   6.870  25.778  17.255  0.0816 -0.6045  0.0612
17042W        W60058  29.783  24.969   8.458 -0.1296  0.0122  0.1309
17043W        W60059  21.046  19.923   7.369  0.1361  0.1757  0.0950
17044W        W60060  11.192  33.795   4.255  0.0842 -0.2831  0.0383
17045W        W60061  24.110  18.542  29.222  0.0056 -0.2493 -0.0721
17046W        W60062  29.700  25.720  11.027  0.6777  0.2350 -0.0803
17047W        W60063  27.451   3.741   6.350  0.1067  0.0735  0.0880
17048W        W60064  13.584  20.012   6.759 -0.1277 -0.2127 -0.0899
17049W        W60065  20.706  18.951   5.443 -0.0992 -0.0017  0.2343
17050W        W60066  22.193  11.040   7.783 -0.2852 -0.4975  0.2228
17051W        W60067  12.625  12.555  28.577 -0.0727  0.0047 -0.1090
17052W        W60068  12.080  25.269   3.768  0.3701  0.2421  0.0732
17053W        W60069  10.636  30.402  14.852 -0.1649 -0.1207  0.2018
17054W        W60070  16.022  27.789  26.684 -0.0716  0.0266  0.0604
17055W        W60071  17.007  23.558   6.186 -0.1780  0.0426 -0.2575
17056W        W60072  13.493  15.858  21.901 -0.0425 -0.3434  0.1907
17057W        W60073   8.805   1.100  25.888  0.4203 -0.0550  0.0687
17058W        W60074  10.893   2.908  24.421  0.1198  0.0376 -0.0670
17059W        W60075  34.754  15.200   2.541  0.0778  0.1227  0.0955
17060W        W60076  27.838  32.123  23.166 -0.2192  0.0880 -0.2162
17061W        W60077   3.549  10.835  10.704  0.2525  0.1948 -0.0198
17062W        W60078   7.180   0.785   7.434  0.1866  0.0517  0.1053
17063W        W60079  14.582  15.202   1.984 -0.0127 -0.0245 -0.1069
17064W        W60080  12.434  34.105  10.695 -0.2857  0.0876  0.1253
17065W        W60081  26.996  24.651   7.042 -0.0212 -0.2620 -0.2371
17066W        W60082  31.527  25.215  10.284  0.0214  0.1401  0.0101
17067W        W60083  25.643  27.176  21.301 -0.2071 -0.1899 -0.0047
17068W        W60084  24.076  13.545  23.826 -0.1446 -0.0663  0.1266
17069W        W60085   6.603  18.086   6.207  0.3121  0.1191  0.4147
17070W        W60086  18.161  25.663   8.644  0.0063  0.1346  0.1123
17071W        W60087  14.927  30.583  23.870 -0.0484  0.1170 -0.0142
17072W        W60088  23.261  33.957  18.363 -0.0422 -0.0751  0.0475
17073W        W60089  16.508  28.215  26.019  0.3562  0.0396 -0.0532
17074W        W60090  32.629  30.814   5.235 -0.0725 -0.0508  0.0296
17075W        W60091  13.779  21.067  26.226 -0.1807  0.2202  0.4432
17076W        W60092  19.433  18.614  21.852 -0.2119 -0.0476 -0.0596
17077W        W60093  18.565  16.338  24.931  0.1908 -0.2442 -0.0042
17078W        W60094  15.834  11.544   4.379  0.1330  0.1834  0.1336
17079W        W60095   4.982  24.876   6.547 -0.2263  0.2199  0.1753
17080W        W60096  23.275   0.441   3.551 -0.2127  0.0696 -0.0186
17081W        W60097  14.279  28.014   9.939 -0.0022  0.0046 -0.0244
17082W        W60098  19.696  25.853  26.472  0.3175 -0.0571 -0.0745
17083W        W60099  18.073  27.305  18.156 -0.3058 -0.0079  0.1727
17084W        W60100   7.643  25.717   8.154 -0.1378  0.0932  0.2435
17085W        W60101  11.668  25.284   1.634  0.1459  0.1155  0.2121
17086W        W60102  27.703  23.202  27.224 -0.1762 -0.2270  0.1259
17087W        W60103  29.528  21.099   2.598 -0.2013  0.1834 -0.0185
17088W        W60104  27.176  14.471   8.121 -0.0598  0.0301  0.2066
17089W        W60105  12.399   1.040   1.229  0.1669 -0.0057  0.0888
17090W        W60106   6.153  21.969  15.125 -0.1265  0.0411  0.2978
17091W        W60107  30.127  17.712   0.660 -0.0684 -0.2251 -0.0013
17092W        W60108  31.408  32.518  18.294 -0.1399  0.4640 -0.2926
17093W        W60109  30.213  17.562   9.237  0.1371 -0.1297 -0.1978
17094W        W60110  26.679  31.404  21.796 -0.1288 -0.2442 -0.0204
17095W        W60111  31.470  27.975   4.564 -0.2481  0.0704 -0.4980
17096W        W60112  19.812  13.988   7.154 -0.4161  0.0949 -0.0185
17097W        W60113  17.162  19.863  26.738 -0.1027  0.1281 -0.0536
17098W        W60114  29.888  28.242  11.023 -0.1919  0.4784  0.0527
17099W        W60115   7.865  33.024   7.877 -0.1331 -0.0072  0.1237
17100W        W60116  18.392  17.931   3.466 -0.0374 -0.1421  0.0755
17101W        W60117  10.510   1.570  19.691  0.0512 -0.0216  0.1763
17102W        W60118  33.697  20.186  23.628 -0.3646  0.0045  0.3665
17103W        W60119  22.565  20.387   3.995  0.4352  0.0480 -0.0225
17104W        W60120  17.216  30.872  28.474  0.0318  0.0279  0.4157
17105W        W60121  26.329  12.235   9.511 -0.0119  0.1149  0.1574
17106W        W60122  17.494   9.319   0.435  0.2328  0.0340 -0.0704
17107W        W60123  12.265  29.518   6.725  0.0120 -0.0195 -0.0762
17108W        W60124  16.859  28.541   6.157 -0.1124  0.0002 -0.2298
17109W        W60125  34.526   0.800   5.900  0.2608  0.3080 -0.0841
17110W        W60126  30.231  30.851   2.567  0.1709  0.2461 -0.1728
17111W        W60127  15.552  25.799  27.420 -0.1601 -0.0905 -0.1475
17112W        W60128  18.629  30.947   4.426 -0.1570 -0.2042  0.0672
17113W        W60129  24.824  19.668   2.656 -0.0743  0.0190  0.1618
17114W        W60130  17.383   4.690   3.724 -0.0379  0.0229 -0.1054
17115W        W60131  20.194  22.344   6.512  0.1354 -0.4277  0.3195
17116W        W60132  11.072  32.751   9.051  0.0002 -0.4196 -0.3546
17117W        W60133  13.701  21.127  27.413 -0.0445 -0.1846  0.0145
17118W        W60134   6.965   7.946  27.288 -0.5070  0.0106  0.2497
17119W        W60135  17.387  17.024   2.928  0.0759  0.0837 -0.0434
17120W        W60136  10.735   4.672   5.055  0.0514  0.2123  0.2089
17121W        W60137  19.114  22.071  23.893  0.1820  0.0916  0.1022
17122W        W60138  24.413   2.784   8.645 -0.1441 -0.0230 -0.0275
17123W        W60139  11.831  34.689  10.438 -0.3032 -0.0473  0.2039
17124W        W60140  28.870  21.590  25.834 -0.1361  0.0491 -0.0251
17125W        W60141  23.241  15.571   3.231 -0.2158 -0.1861  0.4381
17126W        W60142  20.442  15.273   4.546 -0.2280 -0.1183 -0.0059
17127W        W60143   3.461  21.132   7.831  0.0924 -0.1370  0.2190
17128W        W60144  10.723   5.904  26.583 -0.0078  0.0268  0.1472
17129W        W60145  16.050  24.390  20.055  0.1499 -0.0310  0.0686
17130W        W60146   8.381  23.945   7.342  0.1775 -0.2473 -0.2294
17131W        W60147   9.113   1.393   0.251 -0.2526  0.0656 -0.6483
17132W        W60148   2.459  12.340  29.213 -0.3606 -0.1491  0.1270
17133W        W60149   8.167  22.040   7.190  0.2054  0.0485 -0.0431
17134W        W60150  15.909  22.629   4.080  0.0657 -0.3418  0.1396
17135W        W60151  17.302   0.582   6.081 -0.1369  0.3450  0.0019
17136W        W60152   1.515  29.640  27.535 -0.2196 -0.2994  0.1365
17137W        W60153  20.584  22.107   7.011 -0.0017 -0.1121 -0.2197
17138W        W60154   7.165  25.507  27.707 -0.0091  0.1427  0.1571
17139W        W60155  11.209  25.064  12.455  0.0132  0.0739  0.0014
17140W        W60156   5.670  31.996   1.292 -0.0070 -0.0589  0.0302
17141W        W60157  17.597  26.447   9.211 -0.2495 -0.0303  0.3311
17142W        W60158  30.194  28.562  19.651  0.0109  0.1349  0.1728
17143W        W60159  26.689  20.840  29.054  0.0289 -0.1479 -0.0941
17144W        W60160  25.573   8.364  28.424  0.0833 -0.2126  0.2549
17145W        W60161  21.371  15.280   3.217 -0.1628  0.0914 -0.4978
17146W        W60162  13.789  22.010  23.949 -0.0275  0.1646 -0.0749
17147W        W60163  29.557  18.627  10.304  0.2138  0.2260  0.2770
17148W        W60164  34.471  30.139   2.530 -0.0493  0.2188 -0.0263
17149W        W60165  33.979   0.460   9.225 -0.0560  0.1829 -0.0292
17150W        W60166  26.261  28.817   9.844  0.3285 -0.0734 -0.2042
17151W        W60167   3.840   0.698   4.152 -0.0458 -0.1444 -0.0231
17152W        W60168   3.178  25.241   2.914 -0.1141 -0.2568  0.0770
17153W        W60169  31.452  29.142  10.670  0.0787 -0.0329 -0.0888
17154W        W60170  24.908  27.660   4.823  0.1607  0.1828 -0.1722
17155W        W60171  23.542   1.495  11.716  0.1309  0.0770 -0.0254
17156W        W60172  22.462  11.855   4.733 -0.2178  0.1411  0.0980
17157W        W60173  10.515   8.316  24.342  0.2195 -0.0493  0.1777
17158W        W60174  21.779  21.588   8.204  0.1454  0.1384  0.1022
17159W        W60175  13.439  18.744  22.732 -0.0874  0.1184  0.1300
17160W        W60176  25.043  29.195   9.425  0.0927 -0.0031 -0.0235
17161W        W60177  16.317  30.861   6.611 -0.3625  0.0768  0.0168
17162W        W60178  18.822  10.194   6.157 -0.1840  0.0594  0.0645
17163W        W60179   2.238  30.584   2.988 -0.2155  0.0298  0.1638
17164W        W60180  28.333  22.580   5.598  0.0928  0.0342  0.2249
17165W        W60181  13.291  26.708   8.618 -0.0267 -0.0820  0.0723
17166W        W60182   4.784  18.313   3.896  0.3698  0.1871 -0.0395
17167W        W60183  19.990  21.232  25.837 -0.1030 -0.0345  0.0614
17168W        W60184  16.121  16.074   6.620  0.2390 -0.0163 -0.1350
17169W        W60185  27.223   4.163   5.238 -0.1136 -0.0676 -0.1791
17170W        W60186  12.575  24.778   7.843 -0.0234  0.1419 -0.0054
17171W        W60187  24.056  28.298  10.712 -0.1958  0.0253  0.1244
17172W        W60188   8.635  29.894   9.855  0.0245 -0.0877 -0.3332
17173W        W60189   9.348  11.639   2.084 -0.1431  0.0203  0.0126
17174W        W60190   7.491  12.353   2.896 -0.1276  0.1676 -0.0043
17175W        W60191  20.215  24.976   8.202 -0.2073 -0.0075  0.0796
17176W        W60192   9.376  19.755  21.105  0.1472  0.2926 -0.0454
17177W        W60193  20.782  22.513   0.804  0.0357  0.1149 -0.2118
17178W        W60194  13.719  15.788  23.141  0.1269  0.2734  0.1959
17179W        W60195  19.433  28.657   4.197 -0.0525  0.3427 -0.0675
17180W        W60196  18.778  29.240  25.183 -0.0165 -0.0421  0.2567
17181W        W60197   9.711  19.253   0.333 -0.0543  0.2738  0.1896
17182W        W60198  21.081   2.256   4.419 -0.3785  0.0067  0.3218
17183W        W60199  27.862   7.803  26.768  0.2082  0.4128 -0.3120
17184W        W60200   7.743   0.683  24.430  0.1923 -0.0505  0.0573
17185W        W60201  15.322  11.176   2.257  0.0449  0.0912 -0.1064
17186W        W60202  15.582  24.280   4.964  0.0917 -0.0384 -0.2908
17187W        W60203  10.100  15.452  28.323 -0.0888 -0.0431  0.0750
17188W        W60204  31.487  29.807   8.283 -0.1193 -0.0526 -0.0075
17189W        W60205   8.616   3.432   3.856 -0.1088 -0.0659 -0.2420
17190W        W60206  12.759  34.357  20.348 -0.0681 -0.1892 -0.1759
17191W        W60207  19.400   1.190   2.403 -0.4064 -0.0492  0.1536
17192W        W60208  30.505  25.734  24.378  0.2492  0.0291 -0.2529
17193W        W60209  18.987  12.591   4.464 -0.1509  0.2824  0.2269
17194W        W60210  33.303  21.713   8.855  0.0064 -0.1281 -0.0620
17195W        W60211  20.557  32.706   4.867  0.0831 -0.1217 -0.0144
17196W        W60212  25.207  30.841   6.670  0.0975  0.1565 -0.4382
17197W        W60213  13.936  26.060   8.757 -0.1140 -0.1043 -0.3733
17198W        W60214  28.835  33.404  24.037 -0.0495 -0.0529  0.2294
17199W        W60215  11.648   6.751   8.719 -0.0460 -0.0467  0.1386
17200W        W60216  13.594  23.053   6.603 -0.1260  0.1323  0.1186
17201W        W60217  15.022   4.317   6.681 -0.4017  0.0851 -0.1083
17202W        W60218   7.436  14.625   6.261  0.0183 -0.3318 -0.0488
17203W        W60219  22.159  31.355   0.927  0.0505  0.4735  0.0410
17204W        W60220  13.270  22.484  22.514 -0.0037 -0.2362 -0.2400
17205W        W60221  32.758  25.977   8.383  0.2277  0.0566 -0.0096
17206W        W60222  17.519  28.982   6.779 -0.0749 -0.1172 -0.1271
17207W        W60223  25.719  22.156   2.782  0.0157 -0.1126  0.0738
17208W        W60224  25.204  15.798   6.297 -0.3938  0.1409  0.2538
17209W        W60225   8.905   7.458   1.079  0.1279  0.1337 -0.1794
17210W        W60226  21.551  25.572   8.757  0.1932  0.3331 -0.2569
17211W        W60227  14.281  26.446  17.076 -0.1658  0.0593 -0.0116
17212W        W60228  17.504  21.224   5.728  0.1288  0.1436 -0.0317
17213W        W60229  29.298  23.808  22.074 -0.4943 -0.0241 -0.0324
17214W        W60230   5.445   2.632   1.510  0.0793 -0.4902  0.0425
17215W        W60231  27.757  23.680  19.080  0.0220 -0.1076 -0.1244
17216W        W60232  14.439  17.841  27.131  0.1133 -0.1430 -0.2680
17217W        W60233  24.519  31.342   4.540 -0.0282  0.1855 -0.1141
17218W        W60234  18.498  31.707   9.482  0.2594  0.0668 -0.1268
17219W        W60235  19.684  25.332   8.522 -0.0750  0.0263  0.2197
17220W        W60236  31.192  27.252  22.226  0.1580 -0.1345 -0.1392
17221W        W60237   9.299   0.076   8.232 -0.0489 -0.3028  0.0049
17222W        W60238   6.111  32.967  25.608 -0.0651 -0.1102  0.1411
17223W        W60239  24.669   1.382  18.899  0.1316  0.0203  0.0986
17224W        W60240  31.974  21.059  10.568 -0.1020  0.0795 -0.1658
17225W        W60241  17.345  15.761  19.697  0.2458 -0.2590  0.3559
17226W        W60242   7.891  29.681   3.183  0.1626 -0.0040 -0.0183
17227W        W60243  22.621  21.641   5.215 -0.3264  0.1790  0.0525
17228W        W60244  20.792  23.725  26.859  0.1238  0.0540  0.0051
17229W        W60245  21.594  27.854   9.065  0.1543 -0.1995  0.2845
17230W        W60246  13.773  27.155   8.963 -0.1165 -0.3301 -0.0166
17231W        W60247  13.285   1.880  26.629  0.1581 -0.5387 -0.0290
17232W        W60248  19.452  30.106  10.713  0.1304 -0.1473 -0.0121
17233W        W60249   9.190  28.182  19.609 -0.4755 -0.2845  0.2039
17234W        W60250   7.225  13.048   9.480  0.1148 -0.0825  0.2183
17235W        W60251  12.542  22.475  20.918  0.1402 -0.0243  0.0450
17236W        W60252  16.083  26.210  26.881  0.0010 -0.2190  0.1133
17237W        W60253  27.648  19.557   5.888  0.3345 -0.0298  0.1707
17238W        W60254  22.365  13.823  19.502 -0.0909 -0.1318 -0.0390
17239W        W60255  27.141   3.171   5.223  0.0405 -0.0218 -0.0328
17240W        W60256  16.979   3.932  18.188  0.1856 -0.0967 -0.0599
17241W        W60257   1.433   3.421  29.020  0.0194 -0.1175 -0.1120
17242W        W60258   4.920   7.416   6.013  0.1070  0.0864 -0.0304
17243W        W60259  15.624  32.526   7.746 -0.1001  0.0896 -0.1626
17244W        W60260  15.964  10.880   6.914 -0.0690  0.1744 -0.6463
17245W        W60261  15.816  21.571   7.141 -0.0648  0.0596  0.0654
17246W        W60262  28.807  26.664  27.440 -0.0003 -0.3075 -0.0167
17247W        W60263  19.432  20.379  24.842  0.1884  0.3090  0.0892
17248W        W60264   5.057   0.382   3.185 -0.2520  0.0796 -0.1918
17249W        W60265  33.385  34.539  26.788 -0.1416  0.0092 -0.2839
17250W        W60266  17.821  13.451   6.396  0.0071 -0.1810 -0.1034
17251W        W60267  16.487  21.663   2.447  0.0610 -0.1520 -0.1155
17252W        W60268  26.246  30.476   9.217 -0.0695 -0.0422 -0.0263
17253W        W60269   4.322   9.275   4.968  0.0959  0.0898  0.0882
17254W        W60270  17.273   8.949   6.083 -0.3257 -0.1022 -0.1660
17255W        W60271  16.277  29.322   4.443 -0.2409 -0.1195 -0.0318
17256W        W60272  19.419  28.479   6.159 -0.1323  0.1187 -0.0834
17257W        W60273   9.889  17.043  15.115 -0.0560  0.2455  0.1634
17258W        W60274  17.163  25.706  28.874 -0.0079 -0.2874 -0.0166
17259W        W60275   9.039  17.099   2.705 -0.1154  0.1118  0.0496
17260W        W60276  23.900  24.191   2.627  0.0093 -0.1144  0.2020
17261W        W60277  13.601   0.170   3.010 -0.2481  0.4152  0.3491
17262W        W60278  16.108  27.064   8.697  0.2364 -0.1089  0.2465
17263W        W60279   1.184  28.822  23.053 -0.2653  0.0915 -0.1277
17264W        W60280  16.104  28.536   2.400  0.1380  0.1819 -0.1088
17265W        W60281  15.162   1.252   4.379  0.0515 -0.4666 -0.0837
17266W        W60282  15.583  24.915   5.601  0.0419  0.0169  0.1042
17267W        W60283  26.120  26.580   7.606  0.0908 -0.1017  0.0994
17268W        W60284  14.606   2.247   5.034  0.1430 -0.0742 -0.0684
17269W        W60285  25.756  25.221  27.133 -0.0752 -0.0217 -0.1305
17270W        W60286  20.594  27.042   2.130 -0.1419 -0.7042 -0.1296
17271W        W60287  19.636  11.303  27.996 -0.4112  0.2459  0.1978
17272W        W60288  23.066   1.242   3.024 -0.0192 -0.1291 -0.0881
17273W        W60289  15.015  20.911   3.328 -0.2502 -0.0574  0.2134
17274W        W60290   5.222  26.699   6.614 -0.0462 -0.2528 -0.1227
17275W        W60291  18.703  26.403   2.272 -0.0564  0.2254  0.0281
17276W        W60292   4.323  15.293   4.249 -0.1559 -0.1295 -0.1208
17277W        W60293  26.574  32.839  10.362  0.2563 -0.2710 -0.0884
17278W        W60294  15.951  18.098  26.805 -0.1304  0.2433 -0.1172
17279W        W60295  22.293  25.205   1.453  0.1783  0.0631 -0.1375
17280W        W60296  22.263  18.519  26.918 -0.1541 -0.3748 -0.0321
17281W        W60297   4.936  13.169  27.753 -0.3001  0.2210 -0.1090
17282W        W60298  18.538  16.334   4.021  0.2757 -0.0755 -0.3019
17283W        W60299  20.244  15.191  27.839  0.0650  0.2767  0.0879
17284W        W60300  17.038  15.068   0.095 -0.2933 -0.1984 -0.0378
17285W        W60301  16.940  25.677  24.471 -0.4608  0.4486 -0.1570
17286W        W60302  30.644   0.995   7.469 -0.0179 -0.0175 -0.5574
17287W        W60303  16.911  23.607   3.884 -0.1520 -0.3221  0.1783
17288W        W60304  33.619   3.666   6.724  0.0949  0.0740 -0.0290
17289W        W60305  25.953  32.909   2.087  0.0716 -0.2131 -0.1066
17290W        W60306  19.906  25.405  27.879  0.0469 -0.0702  0.2148
17291W        W60307   7.060  33.062   9.715  0.0692 -0.0018 -0.1512
17292W        W60308  20.639  29.551   9.061  0.0718 -0.0491  0.2448
17293W        W60309   7.180  25.637   2.728 -0.0513  0.2443  0.0624
17294W        W60310  27.158  22.267   7.104  0.0462 -0.1777 -0.1266
17295W        W60311  24.076  32.231   2.855  0.4051 -0.2053 -0.0014
17296W        W60312  14.938   7.150   5.482 -0.0869  0.0722 -0.2478
17297W        W60313  13.969   0.211   6.520  0.1484  0.0631  0.2023
17298W        W60314  30.401  15.653   9.106  0.4248  0.1697 -0.1676
17299W        W60315  15.419   0.782   0.651 -0.0185 -0.0471  0.0597
17300W        W60316  29.632  33.993   5.259 -0.1128 -0.2137 -0.0767
17301W        W60317  17.444  33.393   7.326 -0.0306 -0.1261  0.2656
17302W        W60318   5.410  17.424   3.786 -0.0524 -0.1296 -0.4536
17303W        W60319  11.548  13.069  26.260 -0.0595  0.0627  0.0559
17304W        W60320  33.859  30.417   6.396 -0.0456 -0.1662 -0.0739
17305W        W60321  26.317  13.621   2.225 -0.0032 -0.0914  0.0045
17306W        W60322  14.799  24.169   7.181 -0.0124 -0.0986 -0.2163
17307W        W60323  24.094  30.559   9.427  0.2032 -0.0419 -0.0139
17308W        W60324  31.819  34.687   7.699 -0.0347  0.0009 -0.0786
17309W        W60325  28.812  30.739   8.840  0.0762  0.3988  0.0867
17310W        W60326   9.223  12.670   6.915 -0.1014 -0.1084 -0.0444
17311W        W60327  24.185  28.319   7.513 -0.1481  0.1103  0.0044
17312W        W60328  31.283  33.104   9.357  0.0382 -0.4204  0.0366
17313W        W60329   9.994  32.666   4.810  0.0578  0.0494  0.3157
17314W        W60330  19.246  27.174   7.926  0.0890 -0.0496 -0.0860
17315W        W60331  19.053  20.623   6.500  0.0206  0.1248  0.0947
17316W        W60332  20.137  34.246   0.355 -0.1475 -0.0219  0.1141
17317W        W60333  22.980   2.714  16.585  0.3681  0.0343 -0.0319
17318W        W60334   1.982  31.817   3.835 -0.0902  0.1115  0.1990
17319W        W60335   8.557  21.603   1.468 -0.1405  0.3032  0.2054
17320W        W60336  12.385  11.888   8.934 -0.1976 -0.0435  0.1137
17321W        W60337  18.235  11.078   1.689 -0.1706 -0.0435  0.1473
17322W        W60338  20.935  27.584   8.068  0.1582 -0.3082 -0.3257
17323W        W60339  31.280  30.241   7.465 -0.1604 -0.1192 -0.0601
17324W        W60340  26.626  19.484   3.394  0.0806 -0.4983  0.1566
17325W        W60341  18.916  12.481  28.267 -0.1691 -0.0528  0.0823
17326W        W60342  18.637  21.614   8.201  0.1589  0.0008  0.1530
17327W        W60343  11.296  14.013   0.010  0.1546 -0.0824 -0.0629
17328W        W60344  22.689   4.734   2.634  0.1488  0.0468 -0.2151
17329W        W60345  33.240  23.553  28.938  0.3061  0.1756 -0.0914
17330W        W60346  12.777  17.138   4.302  0.0163  0.0450 -0.0098
17331W        W60347  23.381  26.678   5.460 -0.0846  0.3995  0.0707
17332W        W60348   7.446  29.465   9.846  0.0066 -0.1621 -0.1493
17333W        W60349   9.944   8.818   6.255  0.0622 -0.0677 -0.1142
17334W        W60350   5.252  28.332  25.557  0.3845 -0.1851  0.2245
17335W        W60351   4.639  22.008   8.989 -0.0334 -0.1331  0.0304
17336W        W60352  11.103  22.961   6.026 -0.2450 -0.0639 -0.2195
17337W        W60353  11.005  22.872   2.082 -0.0074 -0.2199  0.1134
17338W        W60354  13.839  23.973   6.348 -0.2205  0.0423 -0.0939
17339W        W60355  26.564  32.522  25.976  0.1296 -0.0126 -0.2987
17340W        W60356   1.676  21.353   5.877  0.1230  0.3948 -0.1105
17341W        W60357  11.378  19.251   3.324  0.1523  0.4125 -0.0864
17342W        W60358  30.487  23.210   9.282 -0.1604 -0.1385  0.0802
17343W        W60359  21.817  20.337  20.135 -0.0835 -0.2169  0.0906
17344W        W60360  19.601  23.502   8.080 -0.1670 -0.2859  0.0266
17345W        W60361  26.717  14.220  15.570  0.0519  0.1224 -0.0363
17346W        W60362   9.355  22.664   8.267 -0.3069  0.0819  0.1826
17347W        W60363  11.878  31.984   1.377  0.0057 -0.0816 -0.1244
17348W        W60364  17.408  25.738  10.257 -0.0582 -0.0022 -0.0935
17349W        W60365  16.600  33.631   0.810 -0.1823  0.0672 -0.0461
17350W        W60366  24.509  24.243   3.666  0.1060  0.2835  0.0462
17351W        W60367   9.480  27.809   7.496 -0.5312 -0.4210  0.1997
17352W        W60368   9.564  16.893  24.122 -0.0179  0.1429 -0.2591
17353W        W60369   8.371  28.677  22.246  0.3325  0.1437 -0.0648
17354W        W60370  20.048  29.908   4.185 -0.1754  0.1407  0.3344
17355W        W60371  17.210   8.808  22.548 -0.1202 -0.4205 -0.0405
17356W        W60372  15.949  16.614  21.989  0.0317  0.2286  0.0524
17357W        W60373   3.639  32.897   1.385 -0.1448  0.1113  0.0692
17358W        W60374   7.884  27.493  10.046 -0.1039 -0.1226  0.2264
17359W        W60375  20.233   3.851   4.645  0.3747 -0.0958 -0.0654
17360W        W60376   2.644  24.500   0.377  0.2140 -0.3150 -0.0808
17361W        W60377  10.433   9.547  27.405  0.0866 -0.2894 -0.1984
17362W        W60378  18.930  16.144  26.667  0.5191 -0.2169  0.1314
17363W        W60379  23.870  28.064   7.191 -0.1702 -0.1917 -0.1252
17364W        W60380  12.167   3.680   2.897 -0.0440  0.0570  0.0909
17365W        W60381  11.955  22.373   5.829 -0.2689  0.4122  0.0315
17366W        W60382  14.858  28.779   3.151  0.0527  0.1432 -0.0319
17367W        W60383  15.336  31.780  27.717  0.1263 -0.1749  0.0162
17368W        W60384  26.854   2.558   4.161 -0.1468 -0.0610 -0.3003
17369W        W60385  15.073  22.577  28.975  0.1058  0.0317  0.3525
17370W        W60386  18.471  28.966  28.358  0.1371  0.0891 -0.0333
17371W        W60387  16.801  27.394   9.149 -0.3461 -0.0269  0.1630
17372W        W60388   8.493  21.931  17.054  0.2727 -0.1411 -0.1152
17373W        W60389  28.009   6.928  26.366 -0.0803  0.2746  0.1234
17374W        W60390  17.546  16.096   6.429  0.0024  0.0719  0.1883
17375W        W60391   8.504  33.174  10.651  0.1390  0.0361  0.1605
17376W        W60392  25.767  32.671   7.197  0.1166 -0.0022 -0.3054
17377W        W60393  18.734  30.435   2.339  0.1145 -0.0987  0.1334
17378W        W60394  20.500  24.343   9.531  0.0694 -0.3179  0.0789
17379W        W60395  22.451  19.496  14.981 -0.0173  0.0216 -0.2847
17380W        W60396   3.884  18.331   7.913 -0.0532 -0.0441  0.1949
17381W        W60397  12.130   6.626  25.788  0.1360 -0.0060  0.1053
17382W        W60398  30.193  23.853   6.984 -0.1971 -0.3335  0.1023
17383W        W60399  12.812  31.122  10.114  0.1494  0.0067 -0.3607
17384W        W60400  22.412  30.313  10.450 -0.1028 -0.1369 -0.1801
17385W        W60401  31.343  27.492  29.294  0.2075 -0.1761 -0.0536
17386W        W60402  27.207  31.955  19.635  0.1132 -0.1081  0.0704
17387W        W60403  32.195  21.756   0.789  0.1075 -0.2456  0.5397
17388W        W60404  15.250  28.399   9.814  0.1405 -0.1176  0.0098
17389W        W60405  23.452   4.851  10.381 -0.0019 -0.1256 -0.1607
17390W        W60406   9.760  22.200   0.588  0.1956  0.0648 -0.1452
17391W        W60407   2.566  28.009  26.789  0.0583 -0.0919  0.0565
17392W        W60408  18.294  20.472   2.887 -0.1186 -0.0930 -0.0308
17393W        W60409  33.507  27.238   4.950  0.0536  0.1887  0.1824
17394W        W60410  10.338  26.383   2.237 -0.1133 -0.1305 -0.0342
17395W        W60411   5.143  26.539  28.657  0.1616  0.2637  0.1655
17396W        W60412  12.013   9.875  27.642 -0.0180  0.2598  0.0245
17397W        W60413  24.169   4.122   0.726 -0.2072 -0.0837  0.2529
17398W        W60414  24.544  33.268   7.593 -0.0007  0.1684 -0.0304
17399W        W60415  19.960   4.792   9.615  0.0035 -0.0100  0.2790
17400W        W60416   6.011  29.972   5.239 -0.0044  0.4017  0.1285
17401W        W60417  20.439  25.908  20.815 -0.3186 -0.1907  0.1207
17402W        W60418  12.275  26.448   6.609 -0.2019  0.0910 -0.0932
17403W        W60419  30.514  30.245   1.477 -0.0943  0.1678 -0.6629
17404W        W60420  16.622  25.048   7.263  0.4340  0.0921 -0.4004
17405W        W60421   6.261   1.731   2.688 -0.1115 -0.0212  0.0247
17406W        W60422  10.692  22.441   2.843 -0.2642  0.1907  0.0759
17407W        W60423  13.123  28.344   8.421 -0.1620  0.2852  0.1083
17408W        W60424  19.856  27.586   9.978 -0.1734  0.1825 -0.1612
17409W        W60425   2.860   2.169   9.957 -0.1231 -0.1589  0.2145
17410W        W60426  11.256  31.241   7.342  0.2624  0.0672  0.0610
17411W        W60427  34.118  30.523   4.311 -0.1496  0.3120 -0.1167
17412W        W60428  15.146   8.267  25.627 -0.0093  0.1885  0.3382
17413W        W60429  29.379  15.661  20.012 -0.0233 -0.1179 -0.4025
17414W        W60430  21.924  21.990   2.306 -0.6583 -0.3708  0.0119
17415W        W60431   5.077   0.110  28.833  0.1817 -0.1121  0.3130
17416W        W60432  18.479  33.074  10.281 -0.0182  0.0706  0.0245
17417W        W60433  14.395   5.358   7.986 -0.1478 -0.4341  0.0591
17418W        W60434  18.088  12.942  27.993  0.2107 -0.0303 -0.1225
17419W        W60435  20.180  21.514  25.498  0.1944  0.0797  0.1217
17420W        W60436  29.117   3.787  10.748  0.0424 -0.0560 -0.0986
17421W        W60437  22.583   1.292  25.649  0.3522  0.1438  0.2150
17422W        W60438  17.442  21.942  24.453  0.0883  0.1953  0.0869
17423W        W60439  21.276  32.239   3.410  0.0534  0.0428 -0.0953
17424W        W60440   0.496  13.919   3.157  0.0682 -0.2405  0.0296
17425W        W60441  16.155  19.114  25.126  0.2570  0.1756  0.0444
17426W        W60442  33.651  24.240  14.648 -0.1156 -0.2646 -0.2047
17427W        W60443  23.572   5.186  28.790  0.0193  0.0246 -0.1952
17428W        W60444  13.561  30.734  23.038  0.0930  0.2636  0.1931
17429W        W60445   5.998  17.302   0.981  0.0325  0.2456  0.0922
17430W        W60446  20.351  17.530  25.162  0.1334 -0.1193 -0.2148
17431W        W60447  24.790  15.731   2.005  0.3354 -0.1599  0.0685
17432W        W60448  20.682   2.633   6.620 -0.0878 -0.0337 -0.3836
17433W        W60449   8.060  30.498  20.446  0.0748  0.2536 -0.2249
17434W        W60450  20.010  23.683   1.454 -0.0283 -0.0012 -0.1255
17435W        W60451  15.955   4.825   8.269  0.0026 -0.1214 -0.0649
17436W        W60452  22.586  29.565  10.661  0.0472  0.0062 -0.1087
17437W        W60453  16.822  25.176  13.786  0.2290  0.0259 -0.1986
17438W        W60454  12.731   5.933  25.724  0.0652 -0.1817  0.1822
17439W        W60455  27.850  13.945   9.167  0.1641 -0.1352 -0.0256
17440W        W60456   3.663   5.042   1.590 -0.0684  0.3728 -0.3008
17441W        W60457  13.633  32.691   8.120 -0.0989  0.0163 -0.1573
17442W        W60458  30.577  26.799   9.435 -0.3084  0.4227  0.1770
17443W        W60459  20.639  10.462   1.903 -0.0443 -0.1882  0.0033
17444W        W60460  14.325  13.328  18.158 -0.0661 -0.2425 -0.0221
17445W        W60461  30.896   0.235   4.729  0.1137 -0.1276 -0.0137
17446W        W60462  10.900  16.796  29.122 -0.0148 -0.1719  0.0502
17447W        W60463  25.673  10.427  23.524  0.1335  0.1938 -0.1144
17448W        W60464  25.766  25.235   6.176 -0.0943  0.3877  0.1849
17449W        W60465   1.816  33.864  24.277  0.4290  0.1407 -0.1591
17450W        W60466  20.326  30.084   0.671 -0.4002 -0.4575  0.1703
17451W        W60467  20.281  23.311   2.330 -0.0746 -0.2295  0.1258
17452W        W60468  18.556  28.484  28.224  0.3993 -0.1062 -0.2062
17453W        W60469   6.373  10.471   5.676  0.3452 -0.2871  0.0690
17454W        W60470   6.050  25.077  27.190  0.0420  0.0484 -0.2569
17455W        W60471  28.005  33.933  11.245 -0.3264 -0.2297  0.0906
17456W        W60472  31.561  29.042   3.457 -0.0533  0.0204  0.1789
17457W        W60473  17.414  31.525  21.358  0.1815 -0.2295  0.0188
17458W        W60474  20.544  26.232  14.683  0.1573 -0.1141 -0.0082
17459W        W60475  21.611  13.075   0.221  0.1521  0.2696 -0.0027
17460W        W60476  31.268  22.615   5.252  0.0209 -0.0018  0.0647
17461W        W60477  21.644  32.057   7.159 -0.3034 -0.1137 -0.0179
17462W        W60478  32.270   2.144   0.667  0.0481  0.1256  0.0690
17463W        W60479  18.938  29.694  26.440  0.2016  0.0260 -0.1644
17464W        W60480  19.995  20.811  18.464 -0.1827  0.2307 -0.0353
17465W        W60481   6.107  22.508  21.867  0.0074 -0.0885 -0.1322
17466W        W60482  18.377   4.735   1.108  0.0534  0.1133  0.0730
17467W        W60483   3.074  28.481   1.794  0.1984  0.3532  0.0217
17468W        W60484  16.194  24.431   6.116 -0.1386  0.3216 -0.2969
17469W        W60485  27.362   1.677   3.684  0.4693  0.0011 -0.2327
17470W        W60486  14.889  25.019  19.661 -0.1803 -0.0462  0.1115
17471W        W60487   1.199  31.649  19.371 -0.0543 -0.1134 -0.4416
17472W        W60488   3.347  26.945   7.809  0.0193  0.1618  0.4316
17473W        W60489  33.706   8.911   1.285 -0.0560 -0.0576  0.0848
17474W        W60490  18.385  24.087  24.436 -0.1996  0.0695  0.3034
17475W        W60491   0.129  24.385  28.801  0.2685  0.2853 -0.3731
17476W        W60492  16.742  26.452   8.072  0.3097 -0.0711  0.1451
17477W        W60493  18.175  25.224   5.950  0.2881  0.0664 -0.1385
17478W        W60494  31.262  23.579  21.951  0.3895 -0.1885 -0.3637
17479W        W60495  21.881  22.591  28.991  0.0834  0.2121 -0.0257
17480W        W60496  12.200  20.654  17.118 -0.1319 -0.1925 -0.1097
17481W        W60497  31.524  22.235   2.850  0.0175  0.0107 -0.2546
17482W        W60498  11.968  29.860   5.711  0.0114 -0.1503  0.0306
17483W        W60499   9.276  26.291  15.300  0.1661 -0.3493 -0.0697
17484W        W60500  21.150  31.335  14.917  0.0023 -0.0013 -0.2996
17485W        W60501   0.412   1.935  24.612 -0.1186  0.2869 -0.2492
17486W        W60502   9.675  24.037   8.232  0.1191 -0.0008 -0.1175
17487W        W60503  20.652  34.604  28.976  0.1045  0.0677  0.1969
17488W        W60504  21.290  19.232  23.462 -0.1220  0.2502 -0.2646
17489W        W60505  19.071   1.107   6.100 -0.0784  0.0597 -0.0334
17490W        W60506  32.798  28.759  10.369 -0.0834 -0.0362 -0.1517
17491W        W60507  20.216  24.799   7.672 -0.1706 -0.0391  0.0449
17492W        W60508  17.330   5.510   4.675 -0.1371  0.0706  0.1023
17493W        W60509  28.354   6.350   1.288  0.3284  0.2240  0.2443
17494W        W60510  12.684  25.578  22.684  0.0504 -0.0223 -0.1212
17495W        W60511  21.453  28.737   8.124 -0.1135 -0.1566  0.0081
17496W        W60512  28.625  30.956  24.689  0.4127  0.3635  0.2862
17497W        W60513  13.694  31.089  14.865 -0.4635  0.3686  0.3290
17498W        W60514  12.307   6.665   3.364  0.2847  0.1119 -0.1223
17499W        W60515  12.620   0.656   8.932  0.4773 -0.0037  0.0668
17500W        W60516  18.975   8.251   7.294  0.0479 -0.1208  0.0255
17501W        W60517  25.699   7.722   7.404 -0.1491 -0.0196  0.0350
17502W        W60518  25.006  12.930   6.933 -0.1763 -0.0789  0.2740
17503W        W60519  18.432   8.674   2.408  0.0758  0.1872  0.0059
17504W        W60520  26.465   2.294  21.537 -0.0954  0.1421  0.1982
17505W        W60521  30.802  29.199   9.691  0.0482  0.0581 -0.0396
17506W        W60522   9.118  27.788   9.180  0.1437  0.0628 -0.2833
17507W        W60523  31.288  33.431   3.871 -0.1241 -0.2555  0.0631
17508W        W60524   3.062  22.058  18.324  0.3144  0.0212 -0.2696
17509W        W60525  24.218  12.968   3.184  0.0514  0.0004 -0.0612
17510W        W60526  22.918   1.545  19.247 -0.0715 -0.1136  0.1134
17511W        W60527  25.440  23.687   3.490 -0.2093 -0.2579  0.1482
17512W        W60528   5.972  14.589  27.166  0.0761  0.0316 -0.0860
17513W        W60529  29.100  15.197   4.250  0.0428 -0.2972  0.0713
17514W        W60530  20.323   3.754   6.092 -0.0115 -0.0603  0.1201
17515W        W60531  23.851   6.393   5.328 -0.0547 -0.1134  0.0205
17516W        W60532  33.129   7.229  28.706  0.1230 -0.0873 -0.0539
17517W        W60533  12.846  32.053  21.655 -0.0169  0.1580 -0.1810
17518W        W60534  23.871  25.009  27.730  0.1499 -0.1213 -0.2997
17519W        W60535  30.045  30.439   1.629 -0.1322 -0.1180 -0.0087
17520W        W60536  15.598  20.734  27.646  0.2719 -0.0754 -0.0340
17521W        W60537  24.265  26.486   7.460  0.1548  0.0683 -0.1736
17522W        W60538   7.734  13.669   1.756  0.3903  0.2611  0.1910
17523W        W60539  23.526  22.385   2.026  0.0584 -0.3802 -0.5474
17524W        W60540  27.569  26.091  28.479  0.2261  0.4073 -0.0389
17525W        W60541   1.703  29.347   8.636  0.0063  0.1909 -0.3427
17526W        W60542  20.925   7.039  24.142  0.1836  0.0803 -0.2247
17527W        W60543  26.121  10.919   2.594 -0.1651  0.0125  0.1494
17528W        W60544  27.088   7.000   7.597  0.0800 -0.2577  0.0703
17529W        W60545  16.516  23.803  23.136 -0.2009 -0.1612 -0.0034
17530W        W60546   6.839  17.552   2.200 -0.1519 -0.1070  0.0814
17531W        W60547  20.839  30.787  24.696 -0.1113 -0.1660 -0.0217
17532W        W60548  17.690  24.708   5.233 -0.2138 -0.0206  0.0937
17533W        W60549   6.276   0.913   4.203 -0.0260 -0.1961 -0.1014
17534W        W60550  29.760  15.962  28.698 -0.1775  0.3938  0.0571
17535W        W60551   8.095  17.932   9.089  0.2993  0.3095  0.4829
17536W        W60552  12.915   1.831  27.952  0.0392 -0.1178 -0.2429
17537W        W60553  25.208  25.688   2.520  0.0027 -0.0715  0.2522
17538W        W60554  23.626  23.453   0.274  0.2362 -0.2028 -0.0272
17539W        W60555  23.713   2.538  19.362  0.3192  0.0602  0.0581
17540W        W60556  15.429   1.248  22.908  0.3221 -0.1775 -0.0119
17541W        W60557   5.268  32.249   4.010 -0.0170 -0.1810 -0.0601
17542W        W60558  28.266  20.096   7.507 -0.2227 -0.3076  0.0006
17543W        W60559   6.525   1.568  21.109  0.0963 -0.0033  0.3284
17544W        W60560  24.796  17.625   6.877 -0.3254 -0.0056  0.0850
17545W        W60561  11.408  25.948  28.788  0.0243 -0.5392  0.0239
17546W        W60562  24.000  24.527  26.192  0.0942  0.4573  0.3135
17547W        W60563  18.071  11.139   7.263  0.1469  0.2850 -0.0301
17548W        W60564  19.849  32.960  10.952 -0.1988  0.0571 -0.0254
17549W        W60565  18.507   4.907  25.589 -0.2388  0.1159 -0.1665
17550W        W60566  22.379  34.003  10.220  0.2243 -0.1589  0.0780
17551W        W60567  19.230  26.144   1.686 -0.1086 -0.1329  0.1160
17552W        W60568  21.348   0.258   4.524 -0.1605 -0.0083 -0.1678
17553W        W60569  19.176  10.434   4.403 -0.3627  0.3817  0.0022
17554W        W60570  33.500   3.417   9.650 -0.0501 -0.0647 -0.0659
17555W        W60571  25.731  28.264  21.870  0.0416 -0.0132 -0.0155
17556W        W60572  22.667  30.602  28.586 -0.1101 -0.3946  0.1438
17557W        W60573  34.550   9.440   6.644  0.0807  0.1396 -0.0062
17558W        W60574  20.472   2.669   9.833 -0.1015  0.1377 -0.0612
17559W        W60575  29.396  32.203   1.952  0.3483  0.0660 -0.0869
17560W        W60576   5.425  30.964   2.214 -0.0138 -0.1742  0.2019
17561W        W60577  19.105  24.977  26.610  0.1929  0.1624  0.3014
17562W        W60578  17.837  24.443  24.139  0.2905  0.3921  0.0585
17563W        W60579   5.040  20.192  21.323  0.2138  0.0349  0.2247
17564W        W60580  21.155   6.004  19.569 -0.1291 -0.1682  0.0789
17565W        W60581   0.763  34.727  27.025 -0.1879 -0.0768 -0.1249
17566W        W60582  31.324   5.539  17.752 -0.1067 -0.2395  0.0429
17567W        W60583  20.181   1.574  22.665  0.2526 -0.2933 -0.0126
17568W        W60584  25.191   3.254   6.576  0.3958  0.1006 -0.0834
17569W        W60585  32.153  20.251  28.401  0.2962 -0.1012  0.0940
17570W        W60586  25.947   2.180   1.935 -0.0387  0.3104  0.2052
17571W        W60587  15.001  11.725   4.780  0.0477 -0.0227  0.2830
17572W        W60588  20.898   5.032   4.537 -0.0260  0.0385 -0.1060
17573W        W60589  12.099   3.648   4.016  0.3532 -0.0456  0.2008
17574W        W60590   7.406  19.067  29.200  0.2885  0.0794 -0.0270
17575W        W60591  10.069   2.411  27.848  0.1589 -0.2774  0.1331
17576W        W60592  10.295   5.454   2.811 -0.1338  0.0590 -0.2454
17577W        W60593  16.084   0.407  26.147 -0.2129 -0.1380  0.0349
17578W        W60594  20.440  27.939   6.330  0.2865 -0.3154 -0.2048
17579W        W60595  15.760  16.451   4.700 -0.0160  0.0103  0.1519
17580W        W60596  24.094  29.716   7.928 -0.0668  0.1615 -0.2734
17581W        W60597   2.723  32.379   4.447  0.2111 -0.0681 -0.0034
17582W        W60598  17.367  21.300  28.494  0.2183  0.0436 -0.0511
17583W        W60599  17.928  33.567   9.911 -0.1570  0.0052 -0.0815
17584W        W60600  16.654  20.168   4.583 -0.0741 -0.0207  0.1233
17585W        W60601  14.497  33.555   0.863  0.1672  0.1146 -0.1439
17586W        W60602  24.100  13.018   2.657 -0.0381 -0.0975 -0.0021
17587W        W60603  11.476  31.862   1.059  0.0360 -0.1730 -0.2326
17588W        W60604  27.457  13.974   7.276 -0.0079 -0.2060 -0.0061
17589W        W60605  25.306  26.001  18.624  0.3383 -0.2884  0.1934
17590W        W60606  30.676  26.808   8.937 -0.0123 -0.0364 -0.0081
17591W        W60607   5.105  32.708   8.768  0.0217  0.1756  0.0185
17592W        W60608  17.540   5.183  21.291 -0.0807  0.0379 -0.2995
17593W        W60609  12.513  33.549   7.866 -0.3648 -0.1284  0.1792
17594W        W60610  14.216   3.911   1.342  0.0613 -0.0207  0.0810
17595W        W60611  24.048   4.182   0.157 -0.3407  0.0144  0.0335
17596W        W60612   8.255  16.496  25.635  0.0775 -0.1059  0.1195
17597W        W60613  28.284  22.872   8.581  0.0526 -0.1081 -0.1221
17598W        W60614  16.486  18.610  25.416 -0.1587  0.2146  0.3284
17599W        W60615  13.509   4.129  28.953 -0.0962  0.1712  0.4656
17600W        W60616  33.744   5.325   4.395 -0.3670 -0.0699 -0.0626
17601W        W60617  25.433  34.501   1.055 -0.1989  0.1949  0.4212
17602W        W60618  15.418  30.187   9.643 -0.1096  0.0210 -0.1124
17603W        W60619   6.710   2.867   0.402 -0.0564 -0.4520  0.1410
17604W        W60620  28.246  29.735   8.014  0.1471 -0.0988  0.1331
17605W        W60621   8.139  29.808  23.072 -0.6410 -0.2913 -0.4666
17606W        W60622  26.563  25.174  24.905 -0.0046 -0.0289  0.3579
17607W        W60623  14.649  22.324   8.349  0.0715 -0.1190  0.1219
17608W        W60624  12.376  27.862  28.330  0.0578 -0.1944  0.1038
17609W        W60625  16.058  22.490  15.328  0.0153  0.0667  0.0450
17610W        W60626  10.681   3.161  18.238  0.1056  0.2248  0.0858
17611W        W60627  26.528  30.171  17.623 -0.2483 -0.0735  0.2416
17612W        W60628  10.883  32.578  24.237  0.0081  0.0889 -0.0953
17613W        W60629  18.686   6.136  24.273 -0.3111 -0.2473  0.0591
17614W        W60630  18.093  18.496   6.284 -0.0504  0.3799 -0.0385
17615W        W60631  17.255   4.416   0.249 -0.2777 -0.2390 -0.4182
17616W        W60632  21.845   1.029   0.997 -0.0025  0.2275  0.3126
17617W        W60633   9.471  24.041  15.980  0.0819  0.1197 -0.0741
17618W        W60634  19.107  30.902  28.159  0.1836 -0.0858 -0.0725
17619W        W60635  13.800   4.994   9.838 -0.0500  0.0245  0.2998
17620W        W60636   8.410  28.362  27.490  0.2297 -0.2712 -0.2406
17621W        W60637  27.658  25.113  20.962 -0.5594  0.1405 -0.4059
17622W        W60638  17.124  33.598  19.484 -0.3465 -0.0594 -0.1045
17623W        W60639  29.934   4.099  22.013 -0.0193  0.0645  0.0210
17624W        W60640  26.910  11.718  23.683 -0.0430 -0.1152 -0.0117
17625W        W60641  24.847   4.634  21.865  0.1494 -0.4019 -0.2415
17626W        W60642  21.856   1.002   6.295 -0.0401  0.1476  0.3475
17627W        W60643  16.256  34.187   9.482  0.2359  0.2047 -0.0397
17628W        W60644  26.277  23.265  25.277  0.0692 -0.0724  0.2888
17629W        W60645  16.582  21.583  28.920 -0.0122 -0.0772 -0.1164
17630W        W60646  15.736  10.670  26.089  0.2861  0.0210 -0.0538
17631W        W60647  17.960   3.941  27.566 -0.0080  0.0951  0.0303
17632W        W60648  28.345  33.194   0.603 -0.2475  0.1906  0.0305
17633W        W60649  20.420  10.954  23.397  0.0954  0.0288  0.0644
17634W        W60650  25.852  25.148  22.969  0.0497  0.0485  0.0180
17635W        W60651   7.497   7.814   7.344  0.1519  0.0264 -0.2360
17636W        W60652  13.806   4.461  19.179  0.0540  0.0068 -0.1287
17637W        W60653  22.994  24.292  20.398 -0.0919 -0.2420  0.0106
17638W        W60654  25.946  14.037  20.663 -0.5540 -0.3569 -0.0512
17639W        W60655  27.031  15.168  14.084  0.1242 -0.2800  0.1327
17640W        W60656  26.000  28.242   7.373 -0.0967  0.1273 -0.1338
17641W        W60657  20.451  34.045   5.423  0.1426 -0.0359  0.3036
17642W        W60658   3.033  24.800   7.194 -0.3758  0.1378  0.2173
17643W        W60659  26.090  10.008   4.834 -0.1357 -0.1035 -0.2859
17644W        W60660  23.842  26.674  15.584  0.3516  0.0564 -0.0175
17645W        W60661  30.371  13.423  27.802 -0.1226 -0.3537 -0.0250
17646W        W60662  19.462  20.502  22.950  0.3886  0.1760  0.1098
17647W        W60663  31.330  27.457  25.741 -0.0240 -0.3878 -0.0813
17648W        W60664  15.682  28.285   2.330 -0.0794  0.4163  0.1255
17649W        W60665  23.167  28.777  23.922  0.0034  0.1036  0.1139
17650W        W60666  18.534  18.071   0.358  0.0707 -0.1492  0.0008
17651W        W60667  29.059  23.529   2.914  0.3148 -0.1660  0.0698
17652W        W60668  21.497  28.298  19.773  0.2520 -0.1780 -0.3303
17653W        W60669   2.844  22.517   0.676  0.0283 -0.0225 -0.0761
17654W        W60670  29.293  31.700  25.937  0.1170 -0.0081  0.0109
17655W        W60671   9.676  33.642  20.736 -0.4022  0.1953  0.1781
17656W        W60672   4.670   2.070   6.513 -0.1525 -0.1823 -0.2539
17657W        W60673  27.716   2.126  19.266 -0.2648 -0.0615 -0.0529
17658W        W60674   5.342  17.903   9.701 -0.0893  0.0299  0.0563
17659W        W60675  21.858   7.741  19.221 -0.2191  0.0405 -0.1784
17660W        W60676   1.454  23.972   3.592  0.3033  0.0372 -0.2137
17661W        W60677  33.059  26.383   3.178  0.0162 -0.3967 -0.0432
17662W        W60678  28.095  31.705  27.290  0.1250  0.0592 -0.3873
17663W        W60679   0.661   1.018  24.064  0.0147 -0.4479 -0.2370
17664W        W60680  11.747  24.944  27.742  0.4723 -0.2649 -0.2325
17665W        W60681   0.935  22.000   9.204 -0.0521  0.0211  0.1897
17666W        W60682  30.250   4.622  25.328  0.1044 -0.0897 -0.0846
17667W        W60683  28.270  28.232   6.522 -0.0920  0.1890  0.0052
17668W        W60684  22.736  25.504  10.534  0.3629  0.3103  0.4934
17669W        W60685  18.662  27.876  21.334 -0.5788  0.2143 -0.4253
17670W        W60686   7.331   9.757   2.972  0.0137  0.0327 -0.0601
17671W        W60687   4.347  33.279   2.607  0.0507  0.0586  0.1005
17672W        W60688   7.240  23.133  26.899 -0.1930 -0.3917  0.1232
17673W        W60689  15.856  30.949  10.921  0.0147 -0.3092 -0.2335
17674W        W60690  20.553  30.602  25.652  0.1993  0.0771  0.1058
17675W        W60691  22.352  29.371   6.402 -0.1241 -0.1618 -0.2914
17676W        W60692  10.153  14.227   0.478 -0.0937  0.0579  0.1966
17677W        W60693  17.665  21.980  18.695 -0.3056 -0.1485  0.2646
17678W        W60694  26.732  28.238  26.246 -0.1845  0.0390  0.1918
17679W        W60695   5.006  30.587  22.613  0.0261  0.0815 -0.4760
17680W        W60696  17.210   6.961  26.646 -0.3056  0.1682 -0.0086
17681W        W60697  18.082  21.558   3.565 -0.1817  0.0907 -0.1721
17682W        W60698  29.048  32.267  17.811  0.1594  0.2707  0.2078
17683W        W60699  22.495   7.524   0.507 -0.0249  0.1396 -0.0123
17684W        W60700  22.014  11.556   3.908 -0.1056 -0.0647  0.4332
17685W        W60701  32.806  27.541  21.650  0.0241 -0.1098 -0.1777
17686W        W60702  22.694   2.195  23.732  0.1519  0.1912 -0.0037
17687W        W60703  19.354   3.166  21.808 -0.2808  0.0859  0.0289
17688W        W60704  33.348  27.045  26.063  0.0944  0.0948  0.0087
17689W        W60705  25.819   3.955  25.966 -0.0532  0.1538 -0.1808
17690W        W60706  19.363  27.980   8.294  0.0309  0.1770 -0.0394
17691W        W60707  14.693   0.264  16.960 -0.5471  0.1585  0.2276
17692W        W60708  22.711  27.845   2.244  0.2089 -0.0849 -0.2368
17693W        W60709  12.830  16.927  21.060  0.1850  0.1007  0.1313
17694W        W60710  31.744  31.037  10.139 -0.1678 -0.0328 -0.2937
17695W        W60711  17.401  23.226  28.082  0.0129 -0.0309 -0.2552
17696W        W60712  23.725   5.289  25.607 -0.1207 -0.1007 -0.0032
17697W        W60713  27.364  12.650  26.098  0.1633 -0.2202  0.1160
17698W        W60714  14.198  29.235   8.473  0.1531 -0.0821  0.0664
17699W        W60715  32.755   6.433   5.984 -0.0329 -0.2116  0.0613
17700W        W60716  15.122  33.972   5.271 -0.1017 -0.2253 -0.2787
17701W        W60717  24.045  32.063  25.608  0.0379  0.2322 -0.0032
17702W        W60718  15.538   6.020  20.175  0.0055 -0.0385  0.1984
17703W        W60719  27.190  28.838  12.184 -0.2495 -0.2106 -0.1219
17704W        W60720  13.245  31.350  24.878  0.4065 -0.0565  0.1607
17705W        W60721  13.707   4.765   7.472  0.1168 -0.0466 -0.4848
17706W        W60722  19.169  28.780   5.721  0.1048  0.0630  0.2839
17707W        W60723  28.169  33.121  18.488  0.1301  0.0028  0.2527
17708W        W60724  14.685  31.502  28.324  0.1362  0.0442  0.0540
17709W        W60725  18.267   2.816  28.602  0.1588  0.1868 -0.0731
17710W        W60726  30.794  32.052   0.811  0.1608  0.0256  0.2749
17711W        W60727  22.502  20.488   2.645  0.1579  0.3969 -0.1470
17712W        W60728  22.621  22.921   0.329  0.1626 -0.1462 -0.3312
17713W        W60729  32.819  19.705  28.306 -0.0806 -0.1933  0.0637
17714W        W60730  11.341  12.209  21.572  0.0788  0.1990  0.0164
17715W        W60731  18.187  33.981   6.841 -0.0486 -0.1594 -0.0353
17716W        W60732  21.512  20.123  25.770  0.0747  0.2177  0.1340
17717W        W60733  21.380   3.577   6.689  0.1596 -0.3653  0.0241
17718W        W60734  19.362  31.518  10.097  0.0623  0.0521  0.3086
17719W        W60735  26.924  29.643   5.252  0.1369  0.2580  0.2108
17720W        W60736  13.441  32.746  21.506  0.1467  0.0936  0.2738
17721W        W60737  17.422  30.090   8.028 -0.1054  0.0627  0.1796
17722W        W60738  27.163  24.772  19.931 -0.1791  0.0279 -0.2941
17723W        W60739  21.366   5.476  26.157 -0.0188  0.1127  0.3051
17724W        W60740   7.341   7.572  25.710  0.1643  0.0426  0.0476
17725W        W60741   1.884  22.509   3.925  0.1817 -0.1049 -0.2353
17726W        W60742   0.119  21.286  28.223 -0.0988 -0.0788  0.0731
17727W        W60743  27.731   9.284  17.095  0.3300 -0.1080 -0.1343
17728W        W60744   1.112  29.210  25.758 -0.0485  0.2594  0.0355
17729W        W60745  16.362  24.816  20.152 -0.3848 -0.1389 -0.1839
17730W        W60746  21.326   0.236   8.005  0.2258  0.0950 -0.1695
17731W        W60747  18.480  15.946  21.664 -0.3859 -0.5146  0.0528
17732W        W60748  27.142   3.945   9.635 -0.2398  0.0331  0.2797
17733W        W60749  17.124  22.327   0.759 -0.0600  0.0529 -0.0305
17734W        W60750  32.758   1.197   4.108 -0.1675  0.0950 -0.1076
17735W        W60751  22.869  22.255  27.411  0.2976  0.0645 -0.1017
17736W        W60752   1.467  25.262   1.067 -0.3027 -0.1890  0.0693
17737W        W60753  25.420  19.934   6.522 -0.1256  0.0165 -0.0176
17738W        W60754  23.712  34.220  22.406 -0.1686 -0.1725 -0.0915
17739W        W60755  16.372  22.846   6.461 -0.1744 -0.0657  0.1930
17740W        W60756  22.532  27.644   3.072 -0.3749  0.0405 -0.2328
17741W        W60757  32.762  20.965  28.946  0.1170 -0.0033  0.1230
17742W        W60758  15.142  22.645  17.073 -0.1493  0.1105 -0.1354
17743W        W60759  12.278  32.733   9.321  0.2265 -0.3716 -0.0402
17744W        W60760  25.810  23.828  28.193  0.0110  0.1578 -0.1011
17745W        W60761  19.379   4.875   9.435  0.2718  0.0992 -0.1318
17746W        W60762  11.774  25.731   6.188  0.0323  0.1128 -0.1762
17747W        W60763   0.836   6.920   2.092 -0.5386 -0.0916 -0.1995
17748W        W60764  27.167  31.438  28.366 -0.1097 -0.3450  0.2204
17749W        W60765  29.658  26.302   6.099 -0.0196 -0.0412 -0.1928
17750W        W60766   1.937   2.682   3.348 -0.1066 -0.1931  0.1312
17751W        W60767  16.020  26.534  22.979  0.1344 -0.3044  0.1870
17752W        W60768   5.478  17.489  28.995 -0.0128 -0.3253 -0.1628
17753W        W60769  30.272  32.435   6.432 -0.1950 -0.1549 -0.3479
17754W        W60770  13.290   0.951  26.715  0.0689 -0.0851  0.3761
17755W        W60771  28.163  28.794  17.973  0.2098 -0.0004  0.3082
17756W        W60772   9.042   0.259   5.730  0.2182  0.1298  0.4246
17757W        W60773  25.934  19.667   1.608  0.1584 -0.0355  0.1851
17758W        W60774   8.179  28.442  28.434  0.3877  0.0192 -0.0048
17759W        W60775  20.573  26.150  24.399 -0.2591 -0.1004 -0.0549
17760W        W60776  19.498   3.127   9.767  0.0653  0.0749 -0.1159
17761W        W60777   2.734   7.858   2.325 -0.0127 -0.0483  0.2047
17762W        W60778  15.571  28.963  26.020  0.0084  0.0464 -0.0349
17763W        W60779  17.401   7.045   9.718 -0.1253 -0.0709  0.2768
17764W        W60780  16.617  10.319  19.594 -0.0542  0.2435 -0.2184
17765W        W60781   6.036  29.064   7.133 -0.0648  0.0869 -0.1642
17766W        W60782  24.342  27.934   7.125  0.0371  0.0340 -0.1964
17767W        W60783   2.250   6.189   3.062 -0.1254  0.0555 -0.4193
17768W        W60784   2.085  28.933   9.286 -0.1509 -0.1048 -0.1930
17769W        W60785   5.038  31.939  17.651 -0.1425 -0.1440 -0.1883
17770W        W60786   7.949  34.620   2.589 -0.0826  0.0537  0.0525
17771W        W60787  34.409  12.909   0.521 -0.0389 -0.2879 -0.0268
17772W        W60788  16.546   9.337  25.177 -0.0450 -0.0333 -0.0320
17773W        W60789   2.292  24.525  15.102  0.0323  0.0712  0.1697
17774W        W60790  20.930  18.415   2.991 -0.4622 -0.0969  0.1244
17775W        W60791  24.475  21.154   9.675  0.3383  0.0673 -0.2216
17776W        W60792  12.113   3.816   0.427 -0.1141 -0.1385  0.2547
17777W        W60793   3.273  34.146  17.747  0.1930  0.4660 -0.1063
17778W        W60794  23.039   4.084   9.951  0.0492 -0.1871  0.3644
17779W        W60795  20.457  14.496  25.604 -0.1246 -0.0829 -0.0675
17780W        W60796  18.185   6.232   0.978  0.2295 -0.1823  0.3722
17781W        W60797  26.480  27.570  26.633 -0.1306  0.0946 -0.2378
17782W        W60798   8.932  28.972   7.105  0.1141 -0.0464  0.0889
17783W        W60799   4.345   1.248   7.648 -0.2217  0.2623  0.0798
17784W        W60800  16.446  25.792   8.695  0.2827 -0.0879 -0.0561
17785W        W60801  13.147   7.748  24.659 -0.5734 -0.1480  0.1508
17786W        W60802  32.985  22.924  24.009  0.1822  0.0761  0.2878
17787W        W60803  28.969  21.727   3.634 -0.0262  0.4894  0.2008
17788W        W60804  11.718  19.371  16.483 -0.0078  0.0321 -0.1081
17789W        W60805  31.192  33.325   4.792 -0.4567  0.0530 -0.0488
17790W        W60806  19.670   0.138  27.168 -0.0723 -0.1035  0.2494
17791W        W60807   4.773  32.222   0.875 -0.0379  0.0572  0.0114
17792W        W60808  33.743  32.064  22.727  0.1110  0.1771 -0.0328
17793W        W60809  15.085  26.053   7.623  0.1291 -0.2246  0.1796
17794W        W60810  21.304  21.629  29.142 -0.0048 -0.2256  0.1123
17795W        W60811   1.801  21.374  22.984  0.1311 -0.0564 -0.0180
17796W        W60812  34.553  16.234  28.923  0.0487  0.0549  0.0442
17797W        W60813   7.220   6.031   8.766  0.0057  0.1106 -0.0001
17798W        W60814  30.631  31.537   7.888 -0.1776  0.1313 -0.4531
17799W        W60815  20.761   4.015   6.078 -0.0254  0.1989 -0.0347
17800W        W60816  24.264  33.491  10.686 -0.0629 -0.2130 -0.0033
17801W        W60817  28.974   4.530   1.635 -0.3974 -0.1362 -0.1239
17802W        W60818  24.747  26.875   3.248  0.4730 -0.1213 -0.2251
17803W        W60819  15.276   2.454  26.634  0.2709  0.1831 -0.4392
17804W        W60820  22.797  13.777  28.765 -0.0176 -0.1680 -0.4627
17805W        W60821  21.605   0.981  28.133  0.1488  0.1211  0.1949
17806W        W60822  16.130  28.608   5.050 -0.0317 -0.0620 -0.1547
17807W        W60823  20.365   6.375  21.710 -0.0099  0.2233 -0.1583
17808W        W60824  20.576   4.764   8.732  0.3496 -0.0071  0.1639
17809W        W60825  26.207  17.350   5.963  0.3810 -0.3123  0.0903
17810W        W60826  11.321   5.247  10.366  0.0109 -0.1759  0.0212
17811W        W60827  21.887   7.054   1.803  0.1079  0.2099 -0.1677
17812W        W60828   9.919  19.519  25.540  0.0657  0.1251  0.0940
17813W        W60829  14.497  30.140   2.505 -0.2840 -0.0256 -0.1110
17814W        W60830   7.723  24.142  28.616 -0.0533 -0.1171 -0.0442
17815W        W60831   7.401  21.357   7.904 -0.0237 -0.0237 -0.1389
17816W        W60832  25.847   3.314   7.484 -0.2414  0.1199 -0.0661
17817W        W60833  26.478  31.818  17.146  0.1078 -0.1510  0.0212
17818W        W60834  26.246  17.191   7.976 -0.2540  0.1140  0.2925
17819W        W60835  16.808  29.049  28.098  0.2580 -0.2882  0.0260
17820W        W60836  26.689  33.146  11.803  0.0175 -0.3632  0.0946
17821W        W60837   9.310  30.422  26.183  0.0424  0.1183  0.0658
17822W        W60838  22.364   3.277   0.467 -0.0221  0.1493 -0.0310
17823W        W60839   6.251  29.419  29.111 -0.3014  0.0731 -0.1316
17824W        W60840  26.356   0.409  17.682  0.1913  0.2660 -0.0181
17825W        W60841  34.615   7.960  19.466  0.1691 -0.2018 -0.2190
17826W        W60842   2.441  24.432   5.022  0.1448 -0.0312 -0.2831
17827W        W60843  17.578  25.900  28.825  0.1976  0.2894  0.1888
17828W        W60844  26.241   9.266   5.351  0.0616  0.4928  0.0702
17829W        W60845  32.272   5.832   8.645 -0.1351 -0.2096 -0.4987
17830W        W60846  21.584   1.378  10.645 -0.0745  0.4267 -0.3035
17831W        W60847  16.488  31.773   5.002  0.0667  0.1004  0.0306
17832W        W60848  18.240  31.466   6.094 -0.1237  0.0887  0.4709
17833W        W60849  16.274  31.195  10.149  0.0601  0.0918  0.1627
17834W        W60850  20.397   8.082  21.972 -0.0078 -0.0968  0.1974
17835W        W60851  28.689  27.033   9.109  0.1280  0.3808  0.0632
17836W        W60852  20.543  21.915   6.298  0.3206 -0.1308  0.1165
17837W        W60853  24.014  20.934   3.599  0.0571  0.1305 -0.0451
17838W        W60854  21.850   5.042   7.087 -0.1374  0.0300 -0.1533
17839W        W60855  27.865   0.886   3.042 -0.0012 -0.1279  0.1309
17840W        W60856   4.929   1.915   8.677  0.1741 -0.0137  0.3137
17841W        W60857   7.318   3.329  26.947  0.2062 -0.0430 -0.2743
17842W        W60858  15.496  19.406   1.639  0.3673 -0.1780  0.0010
17843W        W60859   8.833  34.433  25.082 -0.0741 -0.1990  0.2643
17844W        W60860  25.236  34.702   5.542  0.0256 -0.1118  0.0848
17845W        W60861   3.215   6.366   6.857  0.3448 -0.0681 -0.1162
17846W        W60862   4.900  14.437  26.293 -0.2373 -0.1140 -0.2023
17847W        W60863   3.024  20.948   0.745  0.1499  0.1698 -0.0147
17848W        W60864   0.417   5.296  26.095  0.2477  0.1357  0.1266
17849W        W60865  31.788  19.062  10.327  0.1517 -0.3290 -0.0971
17850W        W60866  17.116   3.848   2.128  0.1531 -0.2810  0.1086
17851W        W60867  12.271  29.254   9.959  0.0195  0.2073 -0.1733
17852W        W60868   6.421  21.512  19.843 -0.2369  0.4358  0.0785
17853W        W60869  20.229  26.356  28.781 -0.0020  0.0159  0.0997
17854W        W60870   0.617  33.905  25.572 -0.0800 -0.0471 -0.0230
17855W        W60871   5.962   9.579   5.795 -0.0165  0.0228 -0.1641
17856W        W60872   0.945  25.189  23.559  0.3260  0.2642 -0.1373
17857W        W60873  12.652  26.233   8.445 -0.1997  0.0165  0.2154
17858W        W60874  18.955  32.231  27.601 -0.0594 -0.2894 -0.1835
17859W        W60875   0.583  27.588   8.602  0.1767  0.4165 -0.0172
17860W        W60876  17.739  23.544   8.651  0.0410  0.0240  0.1233
17861W        W60877  10.254  34.026   1.829 -0.1302  0.2029  0.1078
17862W        W60878  27.470   8.510   9.207 -0.1431  0.1498  0.2046
17863W        W60879  25.412  33.858   5.849 -0.4694  0.0472  0.1040
17864W        W60880  22.233  20.033  27.986  0.0206  0.2890 -0.1825
17865W        W60881  13.678   4.658   1.543  0.1420 -0.1662 -0.1000
17866W        W60882  31.226  31.703   9.236 -0.0256  0.0081  0.2755
17867W        W60883  23.537  22.947  28.542  0.0168  0.2311 -0.0808
17868W        W60884  15.008   6.261   5.132 -0.1744 -0.0331 -0.2082
17869W        W60885  18.108   4.945   8.488  0.0061  0.0476 -0.3196
17870W        W60886  26.650  13.228   6.115  0.1740  0.1432  0.3339
17871W        W60887  20.955  25.242   5.865 -0.0168  0.2039  0.0965
17872W        W60888   5.870  28.326   6.724 -0.0932 -0.0613 -0.0626
17873W        W60889  15.742  24.449   2.969  0.0890 -0.0936  0.0169
17874W        W60890   9.525  26.089   2.597  0.1178 -0.2447 -0.0510
17875W        W60891  11.867  25.957   0.426 -0.1804 -0.0742 -0.3476
17876W        W60892  15.959  21.068   1.707  0.1978  0.0059  0.0286
17877W        W60893  13.791  33.464   1.362 -0.1859  0.1866 -0.0580
17878W        W60894  26.884  13.486   6.541 -0.0515  0.0966 -0.3284
17879W        W60895  12.163  29.762   4.445  0.2663  0.1809 -0.1310
17880W        W60896  28.178  21.309   6.553  0.0880  0.2131  0.1085
17881W        W60897  19.145  23.694  23.430 -0.0426  0.1957 -0.0353
17882W        W60898  11.342  24.389   6.840  0.2302  0.2354  0.0489
17883W        W60899  20.502  28.030  18.318  0.2319  0.2262 -0.2701
17884W        W60900  22.780   5.558  28.424 -0.1881  0.3432 -0.0084
17885W        W60901  10.601  26.267   0.190 -0.0390 -0.0711  0.0059
17886W        W60902  21.592  25.782   6.164 -0.1842 -0.1638  0.1139
17887W        W60903  13.756  23.423   0.854  0.1740  0.0234  0.2733
17888W        W60904  15.278  28.385   7.858 -0.0764 -0.0726  0.0930
17889W        W60905   4.532  15.229   1.388  0.0937 -0.0743 -0.1101
17890W        W60906  23.876   3.399   6.874  0.3807 -0.1881  0.0169
17891W        W60907   9.049  25.644  24.302  0.3410 -0.3660  0.3032
17892W        W60908  13.815   0.310   8.523  0.0733 -0.2074 -0.1958
17893W        W60909  11.437  11.608  24.359 -0.1281  0.3304 -0.3095
17894W        W60910   7.552  29.101  23.456  0.1216 -0.2188 -0.2921
17895W        W60911  19.403  20.285   4.131  0.2169 -0.4609 -0.0956
17896W        W60912  26.650   8.583  11.146 -0.0200 -0.1266  0.0963
17897W        W60913   7.077  22.664  27.008  0.0954 -0.1266  0.0665
17898W        W60914  22.561  24.297   5.687 -0.1625  0.0750  0.0562
17899W        W60915  10.163  20.215  12.872 -0.1015 -0.2054 -0.3426
17900W        W60916  21.962  14.561  27.341  0.0030 -0.0558 -0.1258
17901W        W60917  21.187  15.796  27.362  0.0289  0.1539  0.1195
17902W        W60918  30.599  32.247  10.149 -0.0775  0.2348  0.2129
17903W        W60919  10.831   1.316  28.096 -0.1041 -0.2888  0.1247
17904W        W60920   6.973  33.918   8.894 -0.2594 -0.0369 -0.0161
17905W        W60921  21.794  16.844  20.887  0.1840 -0.1259 -0.1142
17906W        W60922  31.610  25.636   3.650 -0.0633 -0.0830 -0.1636
17907W        W60923   3.836  33.650   7.281  0.0225  0.0339 -0.2033
17908W        W60924   6.887  28.076   9.696 -0.0403  0.0586 -0.0035
17909W        W60925  23.149  22.196  10.424  0.0686 -0.0945 -0.0494
17910W        W60926  31.488   0.564   0.774  0.0719 -0.1263 -0.1978
17911W        W60927  18.699  34.479  24.090 -0.3790  0.2090 -0.0191
17912W        W60928  12.121  33.774   8.067 -0.2594  0.0211  0.2353
17913W        W60929  22.791  21.599   6.728 -0.0393 -0.1039  0.2186
17914W        W60930   6.495   1.700  10.861 -0.0981 -0.0105  0.4876
17915W        W60931  13.751  29.057   5.270  0.3530  0.1084 -0.2453
17916W        W60932  33.747  26.172  10.538  0.2766 -0.0827  0.4003
17917W        W60933  14.963  22.503   6.420 -0.0860  0.1027 -0.2731
17918W        W60934  33.311  29.378   6.969  0.2188  0.1474 -0.5071
17919W        W60935  21.510  28.301   8.828  0.0573 -0.0313 -0.0012
17920W        W60936   7.725  32.892   2.943  0.1415  0.0843 -0.1148
17921W        W60937   5.325  18.959   8.274 -0.2134  0.1224  0.1299
17922W        W60938  25.548   4.638  24.506  0.2573  0.0826  0.4622
17923W        W60939  16.368   3.384   9.011  0.0064 -0.2594  0.1549
17924W        W60940  29.893   6.553  26.225 -0.1447  0.1397 -0.0020
17925W        W60941  21.671  30.837  29.004  0.3509 -0.0513 -0.0106
17926W        W60942  20.925  33.097  24.844  0.2113 -0.1585 -0.0571
17927W        W60943  16.638   1.932   6.878  0.0483 -0.0739  0.1137
17928W        W60944  15.742  23.845   0.175 -0.1415  0.1670 -0.1420
17929W        W60945  11.006  23.369   3.561 -0.1143 -0.0723  0.0630
17930W        W60946  13.739  12.985   7.326  0.3080  0.0007 -0.0157
17931W        W60947  10.650   0.172  27.434 -0.1256  0.1504  0.0260
17932W        W60948  12.011  27.798   6.886  0.1133  0.0287 -0.0306
17933W        W60949  19.953  33.970  19.136  0.1614  0.2929  0.0614
17934W        W60950   7.970  11.993  21.736 -0.1605  0.0528  0.0466
17935W        W60951   2.940  16.416   9.608 -0.1447 -0.1174 -0.0337
17936W        W60952  16.835  33.186   6.123 -0.1600  0.1514 -0.0310
17937W        W60953  28.492   8.345   2.317  0.1902  0.1128  0.0918
17938W        W60954  27.782   2.077  27.720  0.0955 -0.1198  0.3409
17939W        W60955  26.893  31.285   6.266 -0.1299  0.3015  0.0407
17940W        W60956  19.379   8.518  22.497 -0.2034  0.0736 -0.3665
17941W        W60957  14.010  23.752  28.243 -0.0343 -0.0394 -0.4988
17942W        W60958  13.684  11.809  18.041 -0.2933 -0.1104  0.4955
17943W        W60959  11.185  29.789   6.322  0.0075 -0.0481  0.1546
17944W        W60960  14.978   1.954   1.503  0.1308 -0.0485 -0.0582
17945W        W60961  20.602  24.742  28.546 -0.1351  0.0323  0.0685
17946W        W60962  23.040  24.646  11.030  0.2251  0.2087  0.2681
17947W        W60963   9.551   2.597  19.559 -0.0422  0.2248 -0.0825
17948W        W60964   1.310  30.704   2.962 -0.1368  0.0706  0.2709
17949W        W60965   9.679   5.026  10.337 -0.4637 -0.0200  0.2562
17950W        W60966  22.118  13.242   1.022 -0.2851  0.0500  0.2330
17951W        W60967  32.028  27.386   4.256  0.3203  0.1188 -0.0814
17952W        W60968  12.532  19.780  21.450 -0.0243  0.2229  0.1551
17953W        W60969  12.944  12.659   3.967 -0.1402 -0.1594 -0.3769
17954W        W60970  27.782  34.139   5.481  0.0638 -0.1613 -0.0397
17955W        W60971  26.645  26.805  22.859 -0.1180  0.1028  0.2178
17956W        W60972  28.277   7.496  29.099  0.0286 -0.0970  0.2505
17957W        W60973  11.605  22.734   6.236 -0.1803 -0.0744  0.2196
17958W        W60974  21.839  34.704  17.747  0.0539 -0.0649  0.0987
17959W        W60975   8.836   4.339  24.551  0.2509 -0.0557  0.3599
17960W        W60976  15.335   0.716   7.173  0.0097 -0.1726  0.1826
17961W        W60977  12.764  21.959   1.633 -0.1112  0.0305 -0.0184
17962W        W60978  21.530   2.820  26.628  0.2287  0.1222 -0.1513
17963W        W60979  15.218   7.083   7.917 -0.0647  0.0522 -0.0649
17964W        W60980   4.861   2.482  28.308  0.0254  0.0164 -0.1282
17965W        W60981  25.365  18.663   5.219  0.0610  0.0494 -0.2254
17966W        W60982  20.735  30.540  10.653  0.0197  0.0820  0.0746
17967W        W60983  28.705  25.582   7.438 -0.1220  0.2284 -0.1228
17968W        W60984  31.615   0.200  16.120 -0.1365  0.3503  0.0419
17969W        W60985  20.052  29.564   8.955 -0.1401  0.3161  0.0003
17970W        W60986   3.766   5.023  10.220  0.0298  0.1289 -0.0859
17971W        W60987  20.714   4.291   0.234 -0.1033 -0.1358 -0.2082
17972W        W60988  28.812  26.123   5.911  0.0233 -0.0463 -0.2031
17973W        W60989  14.787  26.739   1.488  0.0256 -0.1419 -0.0564
17974W        W60990  26.926  20.086   9.928  0.1267 -0.2654 -0.0633
17975W        W60991  10.569  30.083   6.323  0.0675 -0.0920  0.2262
17976W        W60992  12.335  23.644  20.087  0.0697  0.0929  0.0643
17977W        W60993  24.133  19.508   3.557 -0.0742  0.0110  0.2665
17978W        W60994  10.116  30.141   8.524  0.5136 -0.2065 -0.0506
17979W        W60995  12.643   5.991  23.371  0.1142  0.1984 -0.0028
17980W        W60996  12.418  32.409   9.731  0.3254  0.2484  0.2627
17981W        W60997   7.742  29.725   7.142  0.2929 -0.0337 -0.0553
17982W        W60998  12.210   5.536   7.356 -0.2428 -0.1142 -0.1014
17983W        W60999  27.739  18.394   9.313  0.2623 -0.1093  0.0822
17984W        W61000  20.703  23.976  28.630 -0.0127 -0.2227 -0.1169
17985W        W61001  15.325  28.430   8.334  0.1524 -0.1589  0.0159
17986W        W61002  18.513  24.319   8.274  0.3102 -0.1632 -0.0394
17987W        W61003   5.040  27.574   8.421 -0.0068 -0.0548  0.1707
17988W        W61004  23.087   5.837   8.344  0.1517  0.3106  0.2637
17989W        W61005  16.454  34.455  25.828 -0.0066  0.4796 -0.0756
17990W        W61006  16.272   4.451  28.952 -0.2560 -0.1353 -0.2949
17991W        W61007   3.678  27.369  29.272  0.0853 -0.2263  0.1310
17992W        W61008  16.695  32.363   4.277 -0.1341  0.0638  0.0079
17993W        W61009  30.120  31.308  22.833  0.3297 -0.1230 -0.1308
17994W        W61010   3.289  29.620   2.567  0.1111 -0.0888  0.0847
17995W        W61011  13.843   4.620   2.237 -0.0540 -0.3067 -0.2200
17996W        W61012  20.178  22.879   6.374  0.3322 -0.1323  0.2112
17997W        W61013  19.128   4.792  14.495 -0.0210  0.1033 -0.0684
17998W        W61014   1.201  28.435  27.879 -0.1449 -0.4008  0.0777
17999W        W61015   4.645  31.290   0.452  0.0031  0.0700 -0.2765
18000W        W61016   8.314  24.340   1.909 -0.1357 -0.1198 -0.0663
18001W        W61017  17.671  19.800   0.576 -0.1116 -0.1855  0.3955
18002W        W61018  25.522   8.560   3.944 -0.2622 -0.1994  0.1801
18003W        W61019  25.550  26.442   4.377 -0.0741  0.0031 -0.2863
18004W        W61020  27.426  33.697   8.012 -0.1588 -0.0971 -0.3532
18005W        W61021  11.499  24.551   3.575  0.0293 -0.1240  0.1619
18006W        W61022  17.360   1.604   4.068 -0.0142  0.1730  0.4475
18007W        W61023  18.191  19.990  28.141  0.0100 -0.2544  0.0012
18008W        W61024   5.054  18.744   1.611  0.2613  0.0005 -0.1480
18009W        W61025  30.208  26.435   2.643  0.1824  0.0748  0.1197
18010W        W61026  15.135  19.465  18.301  0.1061  0.1231  0.1496
18011W        W61027  15.861  26.508  28.219  0.1956  0.2551  0.0445
18012W        W61028  18.133   1.355   7.826 -0.0373 -0.0180  0.0891
18013W        W61029  20.807  33.714   8.103  0.0134 -0.2582 -0.2907
18014W        W61030  11.585  10.600  26.416  0.0410  0.0031  0.1373
18015W        W61031  20.727  29.198   3.442  0.1242  0.1763  0.0045
18016W        W61032   8.172  30.025  26.028 -0.2436  0.1674 -0.0576
18017W        W61033  13.473  26.700  28.460  0.0786  0.2123 -0.0815
18018W        W61034  13.380  18.880  28.297  0.0016 -0.0388 -0.1431
18019W        W61035   1.848   4.338   4.379  0.1696  0.0254 -0.1156
18020W        W61036  22.226  33.918  25.994 -0.3102 -0.1552 -0.3508
18021W        W61037  11.648  16.335  15.191  0.0676  0.2299  0.1514
18022W        W61038  17.683  17.294  23.721  0.2047 -0.1799 -0.0803
18023W        W61039  26.777  22.954   6.406  0.1377  0.1318  0.1590
18024W        W61040  31.323  30.135  28.956  0.0589  0.0398  0.1259
18025W        W61041  20.713  15.481   8.146 -0.1695 -0.2172 -0.2511
18026W        W61042  10.562  34.425  25.172 -0.1313  0.2171 -0.3184
18027W        W61043   0.904  30.698   0.992  0.6830  0.0056  0.1617
18028W        W61044  26.188  20.881   0.809  0.3190  0.0708 -0.2311
18029W        W61045  21.677  30.213  26.340  0.1093  0.2110  0.1942
18030W        W61046  25.318   9.385  24.196  0.0954 -0.1417  0.1130
18031W        W61047  27.244  34.022   9.235 -0.1176 -0.0169 -0.2938
18032W        W61048  10.000   3.867   3.631  0.0613  0.2008  0.0811
18033W        W61049  13.868  26.563   6.356  0.0397  0.2460 -0.0809
18034W        W61050  10.396  32.867  16.416  0.0853  0.0812 -0.1181
18035W        W61051  18.617  30.737   4.919 -0.0006  0.3629  0.1103
18036W        W61052  19.807  20.052  27.062  0.3506 -0.0692  0.3033
18037W        W61053  14.485  25.579  24.008 -0.1855  0.2886  0.1415
18038W        W61054  34.687   6.996   0.475 -0.3968  0.5166 -0.0868
18039W        W61055  27.033   4.055   8.180  0.1159  0.1587  0.1406
18040W        W61056   0.725   9.299   8.630  0.1127  0.0977  0.0842
18041W        W61057  27.008  21.992   6.754  0.3770 -0.1492 -0.1507
18042W        W61058  33.378  30.429   1.714 -0.3199 -0.0625  0.1818
18043W        W61059  24.220  20.748   8.612  0.0634  0.0538  0.0280
18044W        W61060  13.308  16.377  14.185  0.1360  0.2407  0.0519
18045W        W61061  33.826  31.449   7.170 -0.0916  0.0357 -0.1834
18046W        W61062  27.053  19.145   6.342 -0.2736  0.0030 -0.3611
18047W        W61063   0.232  31.184   5.546 -0.0003 -0.3087 -0.1388
18048W        W61064   0.675  21.575   9.699  0.0053  0.1056  0.1723
18049W        W61065  13.279   8.301   8.213  0.1484 -0.4396  0.1346
18050W        W61066  21.571  15.984   0.139  0.1733  0.3507  0.2187
18051W        W61067  26.856  10.475  27.860  0.0639  0.0090 -0.2919
18052W        W61068  14.309  13.749   3.285  0.2020  0.0821  0.1196
18053W        W61069  10.029  25.188  28.519  0.1520  0.0012  0.1259
18054W        W61070  12.613   2.686   9.684 -0.1794 -0.1238  0.1069
18055W        W61071   7.997  30.924   5.992  0.0427  0.0261 -0.1065
18056W        W61072  20.364  12.820  21.328  0.1675 -0.0512  0.0620
18057W        W61073   5.870   6.133   7.455 -0.0252  0.1095 -0.1981
18058W        W61074  17.306  26.815   0.916 -0.0348 -0.0830  0.0606
18059W        W61075  20.996   2.094   3.868 -0.0045  0.6673  0.0825
18060W        W61076   1.576   2.256  23.676  0.0561 -0.1821  0.1510
18061W        W61077  23.522  30.895  27.249  0.3926  0.0872  0.0648
18062W        W61078  16.013   7.295   2.061  0.0866 -0.0209 -0.2675
18063W        W61079   8.743  23.609  20.195 -0.0140 -0.3967  0.0277
18064W        W61080   2.217  32.620   2.075  0.1085  0.2346 -0.5227
18065W        W61081  10.869  21.069  13.396  0.0675  0.1662  0.0255
18066W        W61082   3.288  23.617  26.939 -0.0672 -0.1602 -0.4205
18067W        W61083  13.191   9.070  28.448  0.2806  0.1450  0.3991
18068W        W61084  25.531   4.234  27.967  0.3665  0.1051 -0.4117
18069W        W61085   9.123  24.271   4.564  0.3545 -0.0540  0.0395
18070W        W61086  23.105  29.770   4.806 -0.2550  0.1694  0.2098
18071W        W61087  20.930  23.471   5.301 -0.1841  0.2069 -0.2064
18072W        W61088  17.518  30.748   8.285 -0.0436 -0.1417  0.2533
18073W        W61089  32.149  33.969   3.867 -0.1892 -0.2092  0.0245
18074W        W61090  17.975  20.942  15.286 -0.2627 -0.0610  0.1707
18075W        W61091  24.665  26.623   1.095  0.2123 -0.2808 -0.0324
18076W        W61092  17.206   8.829   1.478 -0.3157  0.2164  0.0153
18077W        W61093  12.814  18.944   8.510  0.2766 -0.1958  0.0579
18078W        W61094  22.029  20.027   6.332 -0.0400  0.1433 -0.0893
18079W        W61095  20.201   2.128   8.340  0.0289  0.1440  0.1393
18080W        W61096  11.429   1.093   2.111  0.0418  0.0917  0.0761
18081W        W61097  31.133  18.091   9.161  0.1775  0.2021 -0.1465
18082W        W61098  20.261  18.434  20.766 -0.0623 -0.1319  0.3638
18083W        W61099  16.717  21.673   7.529  0.0688  0.0396  0.0127
18084W        W61100  23.650  32.037   3.083 -0.0458  0.0878  0.2255
18085W        W61101  11.282  25.193  27.817  0.2756 -0.0558 -0.0485
18086W        W61102  21.969  31.971  21.198 -0.2511 -0.3459  0.0308
18087W        W61103  19.089  21.689   2.857 -0.2153 -0.1746 -0.0295
18088W        W61104  18.123  24.536  23.164  0.2284  0.1107  0.4762
18089W        W61105  26.712   2.227   7.360 -0.1968 -0.3768 -0.0926
18090W        W61106  26.826  24.021   4.886 -0.1985  0.1093  0.4960
18091W        W61107   8.836  32.606  26.307  0.0741 -0.0576  0.0002
18092W        W61108   0.001  30.664  10.236 -0.4524 -0.0777  0.0006
18093W        W61109  31.401   1.237  29.064  0.0938  0.0635 -0.0145
18094W        W61110   0.814   8.686  18.896 -0.0820 -0.0684 -0.0004
18095W        W61111   9.744  28.772  15.606 -0.0791  0.0493  0.1508
18096W        W61112  28.352  34.106   4.708  0.1425  0.0038 -0.1084
18097W        W61113  14.103  32.783   3.208 -0.1924  0.0230 -0.0247
18098W        W61114  17.843  15.707  19.091 -0.1376 -0.1793  0.2562
18099W        W61115  15.202   1.146  25.813  0.0408  0.0553  0.2112
18100W        W61116  24.709  32.420   9.780 -0.1032  0.2257  0.0177
18101W        W61117  12.874  16.007  29.271 -0.0250 -0.1681 -0.2216
18102W        W61118  27.088   8.056  20.895 -0.1387 -0.1186  0.0079
18103W        W61119  27.218  28.374  25.417  0.1798  0.1907 -0.0354
18104W        W61120  26.186   5.863  19.847  0.0857 -0.0735 -0.3021
18105W        W61121  21.819  20.654   7.538 -0.1956  0.0485 -0.3807
18106W        W61122  26.299   2.583   5.862  0.1589 -0.2735 -0.1351
18107W        W61123   9.076   1.106   4.185 -0.4821  0.1362 -0.2942
18108W        W61124  18.540  17.703   5.362  0.2116 -0.0020 -0.1286
18109W        W61125  31.793   3.828   0.299  0.1341 -0.4204  0.1432
18110W        W61126  16.644  15.763   5.166  0.0854 -0.0338 -0.5318
18111W        W61127  23.162  31.923   9.565  0.0268  0.1600 -0.5694
18112W        W61128  24.246  23.762  27.580  0.1107  0.0509  0.0517
18113W        W61129  31.939  15.249  11.056  0.2472 -0.0847  0.1135
18114W        W61130  17.999  34.520   6.685 -0.0779 -0.1157 -0.2013
18115W        W61131  24.922  21.426  28.162  0.0729 -0.3874 -0.3436
18116W        W61132  24.839  30.071  28.970  0.2080  0.0297 -0.0137
18117W        W61133  16.019  30.509   3.946  0.2395 -0.4007  0.0606
18118W        W61134   9.534   0.983   7.306  0.0950  0.1940 -0.3077
18119W        W61135  17.052   1.345   9.604  0.1013  0.1505 -0.1666
18120W        W61136  30.354   3.020  24.260 -0.1575  0.3613  0.0392
18121W        W61137  17.159   3.311   9.642  0.0425 -0.1063 -0.2290
18122W        W61138  19.446   4.109   3.878 -0.1710  0.1991  0.1159
18123W        W61139  25.272  29.808   8.120 -0.0029 -0.1666 -0.2461
18124W        W61140   4.578  29.209   4.262 -0.2715  0.1282 -0.4543
18125W        W61141   4.274  19.509  22.429  0.2868 -0.0566  0.1259
18126W        W61142  16.584   1.399   6.596 -0.1211 -0.1621 -0.0669
18127W        W61143  22.080  26.205   6.281  0.1227 -0.0926 -0.0392
18128W        W61144  34.699  27.777   9.791  0.2054 -0.1601  0.0766
18129W        W61145  14.113  26.797  21.039 -0.0435  0.0723  0.1011
18130W        W61146  30.445  32.686   1.853 -0.1643  0.1044  0.1340
18131W        W61147   7.092  31.719   7.660  0.1460  0.0502  0.2216
18132W        W61148  23.798  24.132   1.705  0.1498 -0.4266 -0.2749
18133W        W61149  17.504  18.529   7.380  0.0994 -0.0053 -0.0021
18134W        W61150   9.771   0.065   4.637 -0.2153  0.2254  0.3710
18135W        W61151  18.719  17.419   7.236 -0.0194  0.0964 -0.1650
18136W        W61152  13.547   1.760  23.430  0.1363 -0.0719 -0.2294
18137W        W61153  24.216  26.751   5.107  0.0314 -0.0257  0.1966
18138W        W61154  14.337  23.170   6.223 -0.1060 -0.0922  0.2258
18139W        W61155  22.400  24.127   8.437 -0.3453  0.4058 -0.2627
18140W        W61156  17.216   3.492   6.614  0.0746 -0.1793  0.2808
18141W        W61157  20.635   0.296  16.451 -0.0964  0.2715 -0.0079
18142W        W61158   5.215  26.724   2.722  0.4912  0.1297 -0.4152
18143W        W61159  20.196  27.653   3.975 -0.2076 -0.0718  0.1102
18144W        W61160  32.504  28.646  21.011  0.1559  0.0095  0.2319
18145W        W61161  21.713  26.372  10.078  0.0498 -0.0334  0.3153
18146W        W61162  14.429   3.751  25.815  0.3393 -0.1489  0.2958
18147W        W61163  10.208  23.281   1.672 -0.0146  0.1879 -0.0208
18148W        W61164   4.006  32.545   7.948  0.1227  0.1738  0.0375
18149W        W61165  19.060  18.767  21.446  0.0510  0.5083  0.3633
18150W        W61166  15.963  25.991  26.411 -0.3008  0.2428 -0.1081
18151W        W61167  19.549  14.438  25.106 -0.0913 -0.1124  0.2047
18152W        W61168  17.878  11.608   9.199 -0.0203 -0.0553 -0.0920
18153W        W61169  16.958   6.921   0.451 -0.0483 -0.1269 -0.0786
18154W        W61170  15.398   5.348  28.072  0.0150  0.0321 -0.1693
18155W        W61171  31.115   5.030   2.885 -0.2101  0.0867 -0.2811
18156W        W61172  11.503  25.519  28.352  0.1558 -0.1151 -0.1335
18157W        W61173   5.366   0.688  21.213  0.1701  0.2517 -0.0788
18158W        W61174  21.344  31.510   7.788 -0.1126 -0.0970 -0.1710
18159W        W61175  17.644  22.434   0.998 -0.1617 -0.0458 -0.3960
18160W        W61176  10.209   7.241  29.003 -0.0909  0.1215 -0.0743
18161W        W61177  10.074   4.978  26.306 -0.3139  0.0144 -0.0793
18162W        W61178  21.860  26.315   0.940  0.2045 -0.4215 -0.0407
18163W        W61179  10.636  14.967  26.110  0.1027 -0.3988 -0.0407
18164W        W61180   1.933  30.269  21.118 -0.2033  0.2305 -0.0958
18165W        W61181  17.340   2.613  24.003 -0.0570 -0.0060  0.2198
18166W        W61182  29.074  33.071   1.393 -0.1004  0.1673  0.1928
18167W        W61183  24.582  31.302  10.815  0.0967  0.1561 -0.2417
18168W        W61184  17.782  31.977   7.695 -0.1667  0.3178 -0.1178
18169W        W61185  18.250  26.087  27.902  0.1168  0.0460 -0.0401
18170W        W61186  10.555  23.446  25.349  0.3228 -0.1885  0.0975
18171W        W61187  17.853  17.591   5.845 -0.2061  0.0257  0.0390
18172W        W61188   5.934   2.839   2.547 -0.0964  0.0890  0.1770
18173W        W61189  10.442  31.509   5.248  0.4524  0.3302  0.0991
18174W        W61190   8.270  26.048  27.220  0.1185  0.1120 -0.1630
18175W        W61191  26.923  15.691   6.533  0.1014 -0.1933 -0.0805
18176W        W61192  18.584  31.606   3.878  0.2157  0.0918  0.1172
18177W        W61193  22.873  24.037  29.170 -0.0649  0.4106 -0.0886
18178W        W61194  30.312  20.935  10.241 -0.2302  0.0505  0.0984
18179W        W61195  20.040  22.661   1.470 -0.2293  0.1633  0.0817
18180W        W61196  27.976  21.536  18.868  0.2742 -0.2479 -0.3881
18181W        W61197  29.629  25.358   9.907  0.0713  0.2907  0.1599
18182W        W61198  31.604   8.313   7.135 -0.0305  0.0954  0.0997
18183W        W61199  22.227   4.797   6.802 -0.0842 -0.0589  0.0641
18184W        W61200  16.424   8.986   2.759  0.2941  0.1638 -0.2029
18185W        W61201  25.941   4.424   6.702  0.1663  0.0211  0.0154
18186W        W61202  29.777  25.469  10.608 -0.0446 -0.0623  0.1615
18187W        W61203  16.624   1.005   9.509  0.0530 -0.1606 -0.3233
18188W        W61204  25.388   0.076  22.856  0.0469 -0.0593 -0.0865
18189W        W61205   4.647  12.973   9.084  0.0308  0.1017 -0.0637
18190W        W61206   5.586  12.622  19.414  0.4119 -0.0569  0.0514
18191W        W61207  16.376   1.066   7.561 -0.3227  0.1511 -0.1022
18192W        W61208  14.916   9.343  25.948 -0.1144 -0.2001  0.1280
18193W        W61209  21.927   2.948   5.903  0.1774  0.2675 -0.3563
18194W        W61210  21.938  13.240   7.567 -0.0276  0.3479 -0.0977
18195W        W61211  29.503  16.494   4.987  0.0390 -0.0766 -0.1448
18196W        W61212  32.033   2.560   7.333  0.2956 -0.2613 -0.0308
18197W        W61213  25.144  19.085   4.398 -0.1786 -0.2379 -0.2312
18198W        W61214  22.880   5.691   3.840 -0.1465  0.1071 -0.1439
18199W        W61215  31.723   4.597   7.707 -0.0979  0.0657 -0.0770
18200W        W61216  25.585   7.411  29.296  0.2007  0.2045 -0.0744
18201W        W61217  17.176  33.051   2.780 -0.1338 -0.2254  0.0217
18202W        W61218  24.146  12.907  21.685  0.1981  0.0703 -0.1743
18203W        W61219  32.579   8.795   8.684 -0.2572 -0.6077 -0.3070
18204W        W61220  31.464  17.475   2.259  0.1701  0.2187  0.0762
18205W        W61221  13.413   6.781   9.249 -0.0354  0.3079  0.2291
18206W        W61222  26.352  34.258   2.361  0.1527 -0.0088  0.0807
18207W        W61223  15.921  22.083   7.001  0.1353 -0.0479  0.1974
18208W        W61224  15.902  33.074   5.908  0.2344  0.1414  0.0924
18209W        W61225  23.001  19.695  29.232 -0.1179 -0.0037 -0.0122
18210W        W61226  23.467   0.111   5.865  0.0474 -0.0409  0.0662
18211W        W61227  22.400  17.776  29.183 -0.1705  0.0432 -0.0027
18212W        W61228   2.763   6.224   7.531 -0.1836 -0.3629  0.0830
18213W        W61229  25.025   0.585   5.858 -0.2755 -0.1009  0.0181
18214W        W61230  29.714  30.265  25.609  0.0558  0.1132 -0.0323
18215W        W61231  12.041  11.849  29.210 -0.0968  0.0404 -0.2905
18216W        W61232  11.847  27.286   9.566  0.2641 -0.3961  0.1966
18217W        W61233   6.049  30.745   9.278  0.1241 -0.0634  0.0747
18218W        W61234  14.523  18.810   3.200  0.0920 -0.1366 -0.0889
18219W        W61235  20.689  24.029   3.661  0.0745  0.0713  0.0803
18220W        W61236   1.502   6.310  27.027 -0.0076  0.1988 -0.2296
18221W        W61237   7.914  34.520   8.953 -0.0102  0.0802 -0.0783
18222W        W61238  22.776  33.137  22.854  0.0012 -0.1211 -0.0506
18223W        W61239  15.631  25.760   8.226  0.1011  0.0743 -0.2811
18224W        W61240   8.528  14.435  28.890  0.2332  0.0160  0.0023
18225W        W61241  33.171  16.000   2.405  0.1396  0.0941 -0.2335
18226W        W61242  24.759  31.888   6.659 -0.1867  0.1511 -0.2619
18227W        W61243  22.082   0.331   9.110  0.1267 -0.1236  0.0385
18228W        W61244  16.586  19.198  25.325 -0.1615 -0.0778  0.1329
18229W        W61245   9.542  10.530   4.406  0.0986 -0.0921 -0.2907
18230W        W61246  17.333  25.882   8.985 -0.0663 -0.0532 -0.1406
18231W        W61247  14.763  27.848   4.113 -0.1341  0.0828 -0.0027
18232W        W61248   2.499  32.228  26.475 -0.1118 -0.1515  0.1618
18233W        W61249  15.922  28.911   2.662  0.2966 -0.1367  0.1024
18234W        W61250  10.253   4.158  29.276  0.0865  0.2709  0.3341
18235W        W61251  17.735   3.556   0.714 -0.0519  0.1112  0.0146
18236W        W61252  18.451   9.014   0.047  0.0553  0.0332 -0.3476
18237W        W61253   8.994   0.961   0.484  0.0136 -0.5423  0.0568
18238W        W61254  12.683  27.703   3.804 -0.1796  0.1729 -0.0468
18239W        W61255  30.584  14.625   9.531  0.2641  0.1589  0.0997
18240W        W61256   3.718  22.674   3.979  0.3250  0.0225 -0.2152
18241W        W61257  17.488   7.424   7.151  0.1388 -0.0523 -0.0283
18242W        W61258   8.135  20.957   1.974  0.0657 -0.0190 -0.0214
18243W        W61259  19.250  21.899   6.992  0.1314  0.0032 -0.3291
18244W        W61260   3.245  28.680   9.772 -0.0417  0.0443  0.0398
18245W        W61261  13.960  15.888  27.420  0.2630  0.3014  0.1370
18246W        W61262  14.497  18.899   0.849  0.1159  0.0205 -0.0434
18247W        W61263  25.473  31.124   4.624  0.0127 -0.3061 -0.1784
18248W        W61264  34.349  21.560   5.091  0.1708 -0.2765  0.1830
18249W        W61265  28.879  19.378   3.372 -0.0951  0.0065 -0.2130
18250W        W61266  14.838  29.100   4.219  0.1297  0.2166  0.2902
18251W        W61267  29.308  26.909   0.754  0.0599  0.2092 -0.0900
18252W        W61268  27.140   4.799  27.915  0.3349  0.2175  0.2537
18253W        W61269  28.020   1.052   6.149 -0.2089  0.1533 -0.2521
18254W        W61270  19.452   2.319  27.422  0.0971 -0.1258  0.1612
18255W        W61271   3.033   0.575  26.424  0.2294 -0.0424  0.3585
18256W        W61272  16.028  32.453   1.219 -0.3191  0.2525  0.1786
18257W        W61273  19.991   0.882   0.404 -0.1694 -0.0565  0.0595
18258W        W61274  31.604  24.903  26.360 -0.0408 -0.0691 -0.0482
18259W        W61275  26.473  34.238   7.055  0.1551  0.1666 -0.2974
18260W        W61276   9.417  17.785   0.459  0.1061  0.0128 -0.1067
18261W        W61277  31.472   4.831  10.430 -0.2554 -0.2094  0.1921
18262W        W61278  16.135   4.857  16.277  0.1565 -0.0169  0.1044
18263W        W61279   5.715   0.634  27.881 -0.0531  0.2641 -0.0576
18264W        W61280   0.139  22.405   6.405 -0.0705  0.1472  0.1033
18265W        W61281  15.538  33.902   6.163 -0.1390 -0.3552  0.0033
18266W        W61282  18.591   5.390  28.398 -0.2242 -0.1302 -0.0939
18267W        W61283  22.389  32.998  10.254 -0.0790 -0.1980 -0.2661
18268W        W61284  12.627  32.099  10.086 -0.1123  0.1031  0.4998
18269W        W61285  22.217  32.659   4.657  0.1777  0.1273 -0.0676
18270W        W61286  19.283  32.936   8.254 -0.1347  0.1372 -0.0004
18271W        W61287   2.970  15.807  28.540  0.1964 -0.2387  0.1229
18272W        W61288  25.765  26.631  11.318  0.1840  0.2072 -0.2298
18273W        W61289   8.782  30.685   5.247  0.1416 -0.0298  0.0127
18274W        W61290  26.047   0.598  10.063 -0.1563 -0.0626 -0.0690
18275W        W61291  27.348  22.993  26.617  0.0771 -0.0749  0.0636
18276W        W61292   5.065  26.340   7.830 -0.2731 -0.1302 -0.0350
18277W        W61293  11.784  23.474   2.508 -0.0485  0.1415 -0.0858
18278W        W61294  15.689   6.801   3.858 -0.2306 -0.1157 -0.0340
18279W        W61295  30.702  18.205   1.251 -0.1588  0.0418  0.1157
18280W        W61296   0.481  33.054   7.823  0.1323  0.1808 -0.1286
18281W        W61297  22.107  33.309   7.503  0.0034  0.0724 -0.1700
18282W        W61298  21.646  27.595   6.105  0.0449  0.0984 -0.2168
18283W        W61299  14.958   3.530   7.926  0.2935  0.0927 -0.2865
18284W        W61300  20.067  32.140   4.443  0.0418 -0.1621 -0.0401
18285W        W61301  24.706   8.521  27.331  0.0882 -0.0553  0.0313
18286W        W61302  12.281  19.473   5.525 -0.0062 -0.2648  0.1663
18287W        W61303   6.108  27.929  17.241 -0.0866 -0.0560 -0.1787
18288W        W61304  21.148   3.279  10.441 -0.0215  0.0719  0.4017
18289W        W61305  26.469   8.781   2.538 -0.0402 -0.0566  0.2477
18290W        W61306  27.181  32.184   7.893 -0.1424 -0.0141  0.3862
18291W        W61307   7.898   8.423   7.026 -0.0368  0.1817  0.0676
18292W        W61308  15.592   2.334   7.149 -0.0058 -0.1412  0.0086
18293W        W61309   1.141  26.492   9.883 -0.2051 -0.2406  0.0178
18294W        W61310  19.978   0.779  17.503 -0.0265  0.0413 -0.0539
18295W        W61311  23.034  28.190   3.563 -0.2246  0.1729  0.1081
18296W        W61312  26.051  27.084  11.389  0.0211 -0.0332 -0.0017
18297W        W61313  30.851  14.344  26.276  0.1121 -0.0260 -0.1627
18298W        W61314  14.345  23.247  25.877  0.0285  0.3139  0.2401
18299W        W61315  18.540   0.566   2.845  0.2153  0.1031  0.2586
18300W        W61316  10.579  32.538   0.812 -0.0710  0.1983  0.0661
18301W        W61317  16.700  24.120  18.477 -0.1308 -0.2373  0.3805
18302W        W61318  19.798  30.377   8.842  0.2828 -0.0414 -0.1261
18303W        W61319  32.438  31.475   2.039  0.2987  0.0556 -0.2159
18304W        W61320   4.834  33.622  29.166 -0.1410  0.0138  0.0686
18305W        W61321   5.250  28.710   6.069 -0.0620  0.4575 -0.0343
18306W        W61322  25.380   4.429   9.090  0.1441 -0.1777 -0.0537
18307W        W61323  17.886  24.892   6.633 -0.2094  0.1300  0.1215
18308W        W61324  28.252  26.802   8.911  0.1639 -0.1199  0.4587
18309W        W61325   7.931   6.411   2.551 -0.1633  0.1788  0.0948
18310W        W61326  15.075  20.781  27.537 -0.0758 -0.1396 -0.1372
18311W        W61327  17.643   8.874  28.548 -0.1844 -0.2248  0.0781
18312W        W61328   2.504   9.810   9.576 -0.1664  0.1798  0.0070
18313W        W61329  18.246  30.744   1.785  0.0273  0.1196 -0.1383
18314W        W61330   7.314   6.842   9.131 -0.0516 -0.3912  0.2168
18315W        W61331  26.740  20.174   8.472 -0.1157  0.2808  0.0136
18316W        W61332   6.571  30.078   8.835  0.3766 -0.1119  0.0931
18317W        W61333  29.457  10.176   9.338 -0.0697  0.1317 -0.2583
18318W        W61334   5.298   3.548  27.150 -0.1054  0.1712  0.0542
18319W        W61335  13.177  26.484   1.336  0.1154 -0.0458  0.3673
18320W        W61336  26.767  25.940  10.667 -0.5009 -0.2634  0.1359
18321W        W61337  17.742  27.016  29.002 -0.2813 -0.1084 -0.1537
18322W        W61338  23.500  22.722   9.940  0.0538  0.3631 -0.2456
18323W        W61339  23.885  16.568   7.511  0.2607  0.3594  0.2706
18324W        W61340   2.489  25.964   7.251 -0.0445 -0.0132  0.0092
18325W        W61341   0.075  34.085  27.419  0.0731 -0.0443 -0.1960
18326W        W61342   9.417  33.877   4.245  0.0361 -0.3633 -0.0824
18327W        W61343  12.260  30.476   7.913 -0.3788 -0.1965 -0.0438
18328W        W61344  32.692  27.574  23.335  0.0097 -0.0965  0.1518
18329W        W61345  16.896  14.591  24.303 -0.0700  0.1829  0.0381
18330W        W61346   9.575   0.006   9.278  0.2299 -0.0994 -0.0572
18331W        W61347  22.811  18.233  24.940 -0.0575 -0.1464  0.3095
18332W        W61348   8.378   2.726   4.313 -0.0441  0.3196  0.1484
18333W        W61349  11.326  19.640   4.970 -0.1293  0.0929 -0.2044
18334W        W61350  20.960   9.943  25.258 -0.2047  0.1186  0.2876
18335W        W61351  18.969   0.277   4.557  0.1046 -0.2303  0.1646
18336W        W61352   4.968  11.610   2.277 -0.0901 -0.7282  0.1891
18337W        W61353  31.625  32.150  27.990 -0.1161 -0.3000  0.0818
18338W        W61354  17.603  29.832   2.208  0.0158  0.0418  0.0457
18339W        W61355  25.175  12.749   3.801  0.3830  0.0794  0.2198
18340W        W61356  24.632  11.037  27.917 -0.7093  0.2208 -0.0407
18341W        W61357  15.876   3.055   9.081 -0.0580  0.2837  0.1119
18342W        W61358  24.315   8.803   0.505  0.0957  0.0124  0.0075
18343W        W61359  17.730  34.623   0.569  0.1469  0.0657 -0.3000
18344W        W61360  14.743  30.122  10.301  0.1980 -0.0522 -0.2353
18345W        W61361   3.174   4.165   1.963  0.1135 -0.0540  0.2068
18346W        W61362  32.664  28.430   2.214 -0.2323 -0.0482  0.1517
18347W        W61363  23.704  16.827  26.974 -0.4924 -0.0490 -0.1128
18348W        W61364  20.411  34.770   1.347 -0.1380  0.1914  0.0202
18349W        W61365  18.625   4.370   3.648  0.1666 -0.0969  0.1261
18350W        W61366  20.083  17.291   8.164  0.3370  0.1643 -0.2368
18351W        W61367   7.454  29.462  26.977  0.1841 -0.2725 -0.1094
18352W        W61368  24.671  17.075   7.536  0.0203  0.1099 -0.1817
18353W        W61369  30.140  23.569   9.061  0.0768  0.3533 -0.0158
18354W        W61370  29.904  17.008  24.012 -0.2036 -0.1481 -0.0437
18355W        W61371  17.911  13.315  24.113 -0.3140  0.3444  0.1422
18356W        W61372  19.807   1.206   6.892 -0.1510 -0.2229 -0.2431
18357W        W61373  29.413  14.489   3.463 -0.0871  0.0888  0.0679
18358W        W61374  28.135  18.100   2.084 -0.1964 -0.0305 -0.2600
18359W        W61375   2.042  31.920   2.234  0.2166 -0.1600 -0.2429
18360W        W61376  23.581   7.545   4.417  0.1017  0.1137  0.0500
18361W        W61377  22.261  28.818   8.536 -0.1661  0.0112  0.0603
18362W        W61378   9.403  16.581   2.037 -0.1651 -0.1116 -0.0549
18363W        W61379   9.195  12.686   9.152 -0.0745 -0.1054  0.3311
18364W        W61380  10.972  26.642   2.973  0.1387 -0.3267 -0.2657
18365W        W61381  20.737  20.203  19.426  0.3742  0.0748  0.1365
18366W        W61382  24.712   4.712   7.912 -0.0655 -0.1403 -0.0547
18367W        W61383  14.293  34.215   1.642 -0.1070 -0.3662 -0.1669
18368W        W61384  17.675  23.473   3.243 -0.0360 -0.0210  0.0604
18369W        W61385  26.194   0.772  25.213  0.2395  0.1361 -0.1911
18370W        W61386  20.570  17.037   6.757  0.2559 -0.1197 -0.1287
18371W        W61387   1.965  20.597   6.585 -0.2370 -0.0533 -0.0493
18372W        W61388  26.903  28.375   9.708 -0.2992  0.0604  0.1004
18373W        W61389  31.923  27.386   2.580  0.1874 -0.0165 -0.0498
18374W        W61390  18.525   4.882  10.256 -0.2443 -0.1629 -0.3688
18375W        W61391  15.507   1.102   8.746  0.6022  0.1798  0.2557
18376W        W61392   9.769  19.450   7.957 -0.0164  0.1121 -0.1774
18377W        W61393  19.571  34.058   9.229  0.3203 -0.1580  0.0490
18378W        W61394  20.737  23.330   8.399 -0.2248 -0.0896 -0.1900
18379W        W61395  23.529  21.989   7.019  0.2019 -0.0814  0.3655
18380W        W61396  10.912   7.965  27.822 -0.1818 -0.1075 -0.1066
18381W        W61397  23.262  34.381  27.963  0.3889 -0.3641 -0.0250
18382W        W61398  25.841  20.553   5.374  0.2784  0.2216 -0.0673
18383W        W61399  30.400  30.087   9.318  0.2734 -0.1126 -0.0342
18384W        W61400  30.106  14.081   5.352 -0.2564 -0.2341  0.0313
18385W        W61401  33.776  12.521   8.836 -0.1822  0.1609  0.0215
18386W        W61402  24.340  20.342   7.537 -0.3570 -0.0078  0.1090
18387W        W61403  19.697  32.932   7.571 -0.2292 -0.3249 -0.0433
18388W        W61404  14.060  18.956  23.755  0.1247  0.3853  0.1531
18389W        W61405  15.692  24.311  28.522 -0.3519  0.1696  0.0812
18390W        W61406  18.748  30.012  16.411  0.1173 -0.1735  0.3181
18391W        W61407  12.477  31.224  26.655 -0.1756  0.0578 -0.0841
18392W        W61408  16.925  26.735   4.655  0.2125  0.1188 -0.2324
18393W        W61409  20.004  15.974   5.969 -0.0200  0.0281 -0.0998
18394W        W61410   0.036   8.223   1.166 -0.0736  0.1374 -0.1272
18395W        W61411  26.498  25.123   5.453 -0.1291 -0.0291  0.0138
18396W        W61412  20.765  26.645   5.741 -0.2778 -0.2670  0.1093
18397W        W61413   0.718   0.405  25.178 -0.2052 -0.2084  0.0585
18398W        W61414  28.370   8.213   5.744 -0.2677 -0.0039 -0.0720
18399W        W61415  15.188  23.404  18.786  0.0451 -0.0278 -0.0503
18400W        W61416   5.634   5.979  28.537  0.4546  0.1418 -0.1983
18401W        W61417  19.752  21.847  20.455  0.1515 -0.0719  0.1068
18402W        W61418  22.223  16.860   0.236  0.0078 -0.1109  0.1972
18403W        W61419  13.907  24.251  27.499  0.1401 -0.1456 -0.1636
18404W        W61420  32.734   8.462  10.586  0.0085 -0.0029  0.1012
18405W        W61421  13.989  34.209   6.880 -0.1276 -0.0761  0.0613
18406W        W61422  21.931  21.460   1.289 -0.2323 -0.0633  0.2479
18407W        W61423  20.359  23.527   4.437 -0.2852 -0.0783  0.1700
18408W        W61424  18.832  30.017   6.853  0.1118  0.1035 -0.1360
18409W        W61425  23.568  20.321  25.616  0.1824  0.1860  0.0933
18410W        W61426  22.297  27.154   8.731  0.3715 -0.2509 -0.0992
18411W        W61427   3.787  17.441  26.370 -0.0626 -0.0947  0.1347
18412W        W61428   8.130  18.946   2.778  0.1699 -0.1211  0.1094
18413W        W61429  26.217  31.843  27.217 -0.0681  0.1186  0.3111
18414W        W61430  11.402  22.078   0.217 -0.2854 -0.0674  0.0636
18415W        W61431  33.091  27.106   7.223 -0.1113 -0.1691 -0.0606
18416W        W61432  24.326  14.179  28.268 -0.0301 -0.2732  0.0630
18417W        W61433  26.892  24.741   6.463 -0.0253  0.1268  0.2058
18418W        W61434  25.904  21.200  27.756  0.1422 -0.1170 -0.0620
18419W        W61435  33.099  32.624   1.625  0.1141 -0.2091 -0.1327
18420W        W61436  28.507  23.596  28.810  0.0184 -0.1282 -0.0899
18421W        W61437  14.660  25.214   6.296  0.3011 -0.1252  0.0113
18422W        W61438  25.785  17.230   1.425  0.3445 -0.1668 -0.0314
18423W        W61439   9.653   1.346  11.052 -0.1262  0.1428  0.3583
18424W        W61440  23.752  26.956  27.325 -0.2653  0.3792 -0.1776
18425W        W61441  27.857  28.836   8.435  0.0703 -0.1022  0.1520
18426W        W61442  18.266  20.166   1.523  0.1339  0.0451  0.0212
18427W        W61443   4.824   3.553   7.643 -0.1076 -0.0280 -0.0192
18428W        W61444  34.267  30.582  10.162  0.3773 -0.0135  0.1923
18429W        W61445  16.732  29.220   2.390 -0.1665 -0.0190  0.1602
18430W        W61446   1.401  29.471  17.118 -0.2213  0.0075  0.0885
18431W        W61447  12.768  17.018   7.366  0.0475 -0.2717  0.1427
18432W        W61448  21.403  24.718  29.083  0.1776 -0.0982 -0.1476
18433W        W61449   9.233  30.239  27.695  0.1606 -0.0413 -0.2506
18434W        W61450   7.395   9.286   5.879  0.1969  0.1674  0.2620
18435W        W61451  14.811  16.667  28.702 -0.0421 -0.1711  0.1418
18436W        W61452   9.444  25.925   4.504  0.0614 -0.1476  0.0891
18437W        W61453  19.517  11.937   2.585  0.0257 -0.0543 -0.0013
18438W        W61454  21.861  33.379   1.937  0.0485  0.0668  0.0467
18439W        W61455  21.579  30.092   8.052 -0.1921 -0.1044 -0.1008
18440W        W61456  18.223  32.269   7.908  0.0159  0.2179 -0.2656
18441W        W61457  12.029  18.820   2.857  0.0977 -0.0642  0.0157
18442W        W61458  33.780   3.609  10.460 -0.1973 -0.0438  0.3554
18443W        W61459  20.719   0.094   5.525 -0.2574 -0.1616 -0.3397
18444W        W61460  20.407  15.323  25.555  0.2379  0.4996 -0.2706
18445W        W61461  25.376  20.205   5.144  0.0846  0.3587  0.4361
18446W        W61462  15.868  21.406   5.038  0.0102  0.0232 -0.2465
18447W        W61463  20.756   6.586   2.134 -0.2139  0.1091  0.1670
18448W        W61464   5.052  28.355  27.783  0.0622 -0.4385 -0.1749
18449W        W61465  20.620  30.802   4.327  0.0326  0.0981 -0.0030
18450W        W61466  20.691  32.727   6.474  0.0302  0.0280 -0.1584
18451W        W61467   7.343  13.276  28.902 -0.0016  0.0703  0.0975
18452W        W61468  20.684  31.422   4.714 -0.1118 -0.1103 -0.0146
18453W        W61469  24.229   3.824   9.844  0.2976  0.0289 -0.0515
18454W        W61470  21.789  21.194   2.713  0.2158  0.0785  0.0061
18455W        W61471  20.061  32.039   9.868  0.1033  0.0140 -0.0220
18456W        W61472  22.954  13.379  25.896 -0.0960 -0.3959 -0.2290
18457W        W61473  17.803  19.783  21.347  0.4125  0.2032  0.0995
18458W        W61474  10.441  31.666  26.148 -0.2118 -0.0941  0.2496
18459W        W61475  12.836  32.283   3.751  0.0128 -0.3648 -0.2106
18460W        W61476  10.362  29.783   6.005  0.2204  0.1198  0.0741
18461W        W61477  13.233   0.136   5.324 -0.1816 -0.2674 -0.1674
18462W        W61478  18.094  26.438   9.195  0.0682  0.1188  0.0817
18463W        W61479  31.394  21.535   1.831  0.4076 -0.0969 -0.1603
18464W        W61480  12.575  30.184   8.363 -0.1627  0.4091  0.0181
18465W        W61481  17.525  25.444   9.250 -0.1112  0.0323  0.1389
18466W        W61482  15.125   1.597   4.993  0.4635 -0.1864  0.1652
18467W        W61483  24.492  28.088  28.626  0.0367 -0.1784 -0.0162
18468W        W61484  28.549  16.147  25.624  0.1396  0.1858 -0.1000
18469W        W61485   2.287   9.500   2.458 -0.0091  0.2441  0.0417
18470W        W61486   9.851  18.873   5.269 -0.0462 -0.1782 -0.2158
18471W        W61487  24.978   8.312   5.615  0.1077  0.4540 -0.0016
18472W        W61488  20.465   6.804   8.909 -0.0602 -0.0545  0.3602
18473W        W61489  24.824  31.553   0.588  0.2012 -0.1295 -0.0790
18474W        W61490  17.643   6.462   2.152 -0.1038  0.0660  0.0588
18475W        W61491  12.094  26.581   5.327 -0.2433  0.0902 -0.1719
18476W        W61492  23.823  18.019  15.075 -0.0661  0.3728 -0.2010
18477W        W61493   3.456  32.056  18.597 -0.0539  0.1065 -0.3177
18478W        W61494  20.034   3.347   6.640 -0.1488 -0.2153 -0.0499
18479W        W61495  28.744  13.971  10.289  0.3428  0.2544 -0.0168
18480W        W61496  10.722  25.670  18.223 -0.1034 -0.1892 -0.0764
18481W        W61497   0.343  24.763  16.004 -0.2121  0.2703  0.0246
18482W        W61498  10.432  29.916  25.692  0.0815 -0.0918 -0.1615
18483W        W61499  17.034  14.600   1.698  0.1305  0.2076 -0.4787
18484W        W61500  13.173  14.408  25.740  0.2202  0.0785  0.2837
18485W        W61501  26.371   5.434   6.701  0.0207 -0.1578  0.3196
18486W        W61502  12.624   6.521  19.650 -0.0676  0.0145 -0.0818
18487W        W61503  20.013  11.216   1.478  0.0359 -0.5072 -0.2658
18488W        W61504  23.351  21.873   5.641  0.1218 -0.0752 -0.1942
18489W        W61505  15.808  27.226  27.637 -0.2660 -0.0552 -0.0329
18490W        W61506  27.335  29.387   7.867  0.2460 -0.2883 -0.1475
18491W        W61507  16.892   6.045   1.315  0.0026  0.2282 -0.1097
18492W        W61508   7.277  30.715  27.380 -0.0472 -0.3483 -0.3262
18493W        W61509  21.953  29.798   2.548 -0.0913 -0.0897 -0.0596
18494W        W61510  28.830  28.602   3.811  0.4609 -0.3451 -0.1348
18495W        W61511  23.371  16.816   0.592  0.0864 -0.3496  0.6483
18496W        W61512  21.514  16.295  20.487 -0.1900 -0.3477 -0.0584
18497W        W61513  21.101  33.226   2.365 -0.3340  0.1926  0.0555
18498W        W61514  15.934  26.009   3.538  0.0024 -0.0259  0.0340
18499W        W61515  19.538   0.703  18.208 -0.2128 -0.1768  0.0595
18500W        W61516  15.292  26.890  15.010  0.1607 -0.0278  0.1751
18501W        W61517  13.119  24.582  28.352 -0.3097 -0.1112 -0.1774
18502W        W61518  10.785   4.082  18.322  0.0111  0.0667 -0.1522
18503W        W61519  22.953  27.008   0.990  0.3267 -0.0281  0.2244
18504W        W61520  14.070  22.024   1.024 -0.1921 -0.0611 -0.2509
18505W        W61521  25.595  21.322  24.352  0.3288  0.0038 -0.0753
18506W        W61522  33.544  15.522   9.684 -0.1809  0.2328 -0.2968
18507W        W61523  21.100   1.938  22.336  0.1407 -0.0487 -0.2349
18508W        W61524  18.385   0.491   0.323 -0.1659 -0.1512 -0.3135
18509W        W61525  29.325  21.003  23.672 -0.0519 -0.0904  0.0587
18510W        W61526   1.841  24.600  15.388  0.1775  0.3465 -0.0102
18511W        W61527   7.859   1.816   9.368  0.0642 -0.0746 -0.2973
18512W        W61528  26.246  25.913   4.085 -0.0849 -0.0135  0.2081
18513W        W61529  32.974  27.556   8.654 -0.0307  0.2524  0.1356
18514W        W61530   2.113  29.233  22.704  0.1387 -0.0798 -0.0187
18515W        W61531  25.711  10.724  25.637 -0.0887  0.0948 -0.0136
18516W        W61532  17.519  10.434  27.999 -0.0629  0.2029 -0.1301
18517W        W61533  16.294  27.089   3.379 -0.0526  0.0277 -0.1682
18518W        W61534  24.513   0.119   3.700  0.1532  0.0522  0.0906
18519W        W61535  25.531   1.798   2.438 -0.1847 -0.0085 -0.0088
18520W        W61536  19.086  33.626   7.054 -0.1187 -0.1913 -0.1053
18521W        W61537   7.003  33.932   9.835 -0.1567  0.4182  0.0505
18522W        W61538  12.703  23.849  23.015  0.0413 -0.0065 -0.0810
18523W        W61539  24.974  23.639  27.685 -0.3037 -0.0564 -0.1676
18524W        W61540  32.146  23.170  28.267 -0.1013  0.2775  0.1460
18525W        W61541  13.006   4.809   2.522  0.1035  0.2232 -0.0265
18526W        W61542  20.106  23.842  26.827  0.2373  0.2182 -0.0491
18527W        W61543  18.679  13.470  22.715  0.0405  0.1294 -0.1244
18528W        W61544   8.141  18.803   4.379 -0.0365 -0.1673 -0.3110
18529W        W61545   0.445   9.404  27.005 -0.1975  0.0069 -0.1030
18530W        W61546  21.486  32.510   4.565  0.1853 -0.1567  0.1888
18531W        W61547  17.398  20.638  28.015 -0.1959 -0.1433 -0.2417
18532W        W61548  16.537  31.787  16.613 -0.2212 -0.1123 -0.1062
18533W        W61549  22.890   4.123   3.751 -0.3431  0.1994  0.1946
18534W        W61550  18.185   7.197  27.884  0.4340 -0.2202  0.0030
18535W        W61551  17.440   3.793   9.775 -0.0769  0.1211  0.0345
18536W        W61552   4.856  23.212   7.438 -0.1093  0.1804  0.4036
18537W        W61553  26.545   7.721   4.399 -0.1079 -0.1435 -0.2558
18538W        W61554  24.645  10.061  23.455  0.0979 -0.1297  0.0381
18539W        W61555  32.513  14.657  28.035 -0.0269  0.0839  0.1529
18540W        W61556  24.263  24.997   0.026  0.2212 -0.0789  0.1816
18541W        W61557  10.594   3.375   5.390  0.0269 -0.2885 -0.0679
18542W        W61558  25.556  23.603  25.964  0.0462 -0.0211 -0.2333
18543W        W61559  20.500   7.253  27.912  0.1748 -0.3071 -0.0102
18544W        W61560  27.937  30.312   9.375  0.3703 -0.3368 -0.0980
18545W        W61561  28.018  15.995  22.791 -0.1484  0.0445 -0.1297
18546W        W61562  22.315   6.397  27.918 -0.2589  0.0009 -0.1469
18547W        W61563   6.894  32.257  28.772  0.1684  0.0599 -0.0863
18548W        W61564   4.825  11.446   4.807  0.0494  0.1375  0.2236
18549W        W61565  23.623   2.322   6.304 -0.0820  0.1481  0.1699
18550W        W61566  15.040  22.119   3.285  0.2223  0.0046  0.0686
18551W        W61567  24.598  25.619   9.844  0.2396  0.0632 -0.1447
18552W        W61568   2.981   8.162  20.457  0.2043 -0.1532  0.2443
18553W        W61569   0.987   8.202  10.424 -0.4694 -0.3427  0.0141
18554W        W61570  13.793   2.043   3.441  0.0829 -0.2251 -0.1470
18555W        W61571  24.990  24.158   0.578 -0.2156  0.1269 -0.2373
18556W        W61572   0.353   1.158   5.199  0.0633 -0.0374  0.2985
18557W        W61573   9.377  30.301  24.118  0.0478  0.1992  0.0224
18558W        W61574  28.489  19.539   1.223  0.4173 -0.3588  0.1175
18559W        W61575   2.558  30.568  21.165  0.0328  0.0685  0.0437
18560W        W61576  17.956   2.721  28.998 -0.1493  0.0056 -0.1774
18561W        W61577  10.978  27.854  27.514  0.2882 -0.0609 -0.1754
18562W        W61578   7.917  33.806  14.284 -0.2104  0.0835  0.1310
18563W        W61579  19.609  32.779   1.811  0.2667 -0.0826 -0.1907
18564W        W61580  13.081   7.328   7.268 -0.0004  0.1430 -0.5314
18565W        W61581  22.931  30.602   1.197  0.0444 -0.2215  0.1484
18566W        W61582  26.946  29.116   0.607  0.3649  0.2050 -0.2484
18567W        W61583   3.965   2.173   7.797  0.1110 -0.0052  0.0493
18568W        W61584  22.563  18.058   7.759  0.2672  0.3272 -0.0135
18569W        W61585  20.925  21.239   5.290 -0.1372 -0.1932  0.2031
18570W        W61586   6.847  22.496  15.517 -0.3310 -0.0676  0.0183
18571W        W61587  12.830  31.956  10.616  0.1051 -0.1563  0.2428
18572W        W61588   6.911   0.038  25.031 -0.2283 -0.1051  0.1354
18573W        W61589  15.711   8.395   5.288 -0.5040  0.0412  0.0862
18574W        W61590  13.658  28.305   3.692  0.0064 -0.0780  0.0026
18575W        W61591   0.478   2.951  15.408 -0.0754  0.3366  0.2039
18576W        W61592  24.488  20.796  25.999 -0.0784  0.0885  0.4041
18577W        W61593  17.472  18.458  20.140 -0.2591 -0.1159  0.3115
18578W        W61594  30.841  26.731   4.383 -0.2981  0.0207 -0.0197
18579W        W61595   9.160   4.099  10.067  0.0666  0.1763  0.3298
18580W        W61596  23.593  26.171  27.356 -0.1478 -0.1653 -0.2836
18581W        W61597   5.328  13.875   3.673  0.2551  0.0180  0.0772
18582W        W61598   4.767   1.762   3.341  0.1126  0.1359 -0.1493
18583W        W61599  20.375   8.166  24.646  0.1728  0.0908  0.3031
18584W        W61600  10.975  13.808  26.202 -0.2252  0.0301 -0.2964
18585W        W61601  15.401   6.116  15.268  0.0295 -0.4265  0.1213
18586W        W61602  16.933   5.074  25.795  0.1932 -0.0976  0.1587
18587W        W61603   9.104  16.282  24.722 -0.3123 -0.2773 -0.1083
18588W        W61604  31.566  24.189   9.280  0.1867  0.3334  0.2889
18589W        W61605  13.215  14.534   6.541 -0.3126 -0.3029  0.1558
18590W        W61606  11.040   5.875  21.013 -0.2118 -0.0391  0.0844
18591W        W61607  17.560  30.989  24.246  0.1350  0.0308  0.0157
18592W        W61608  34.688  34.262  28.299 -0.1337  0.0696 -0.3531
18593W        W61609  20.807   4.427   8.206 -0.0098  0.1191  0.3686
18594W        W61610  32.048   4.653  28.335  0.2358 -0.2505 -0.1269
18595W        W61611   8.557  33.519   8.077  0.1071  0.0932  0.0242
18596W        W61612   8.564  29.184   3.906 -0.1131  0.1124 -0.0620
18597W        W61613  27.282  33.762   2.160  0.0405 -0.0030  0.1119
18598W        W61614  20.190  30.648   5.406  0.1071 -0.3763  0.1309
18599W        W61615  22.520  11.359   0.157  0.0128 -0.0291 -0.0225
18600W        W61616  19.238   6.313   0.214  0.0183 -0.0271  0.0537
18601W        W61617   1.106  20.098   7.761  0.1813  0.1452  0.1294
18602W        W61618  34.342  12.129  15.064 -0.0651  0.2619  0.0109
18603W        W61619  27.780   0.893   8.959  0.1273 -0.1176  0.1048
18604W        W61620  20.059   5.856   4.959  0.4668  0.1931 -0.0117
18605W        W61621   8.773  32.840   4.991  0.0240 -0.0912 -0.0938
18606W        W61622  28.336   0.336  10.565 -0.1282  0.0305  0.1972
18607W        W61623  16.644   5.228   8.815 -0.3054  0.2313 -0.1718
18608W        W61624   8.681  29.279  25.564 -0.1232 -0.1199 -0.0926
18609W        W61625  20.248   0.292   8.300 -0.2233  0.2674  0.1363
18610W        W61626  18.281   7.027   7.782 -0.1500 -0.0373  0.1193
18611W        W61627  27.976  32.299  20.662  0.1882 -0.1684  0.0124
18612W        W61628   6.279  30.749  16.262  0.2040  0.2120 -0.4383
18613W        W61629  24.288   1.122   4.322  0.4358  0.1008 -0.2208
18614W        W61630  12.478  16.561   1.911 -0.0843 -0.1935  0.3344
18615W        W61631   0.484  15.329   5.650  0.0188  0.1554 -0.0678
18616W        W61632  16.340  30.604  27.432  0.1109  0.1165 -0.1956
18617W        W61633  18.182  16.694   6.345  0.0424 -0.2773 -0.0594
18618W        W61634   3.369  23.538  25.694 -0.1256 -0.1441 -0.0563
18619W        W61635   3.397  30.586   3.710  0.3569  0.0239  0.2496
18620W        W61636  28.598   5.172  11.619  0.3653 -0.3218  0.1281
18621W        W61637  22.123  20.737  28.503  0.0169 -0.0143  0.1356
18622W        W61638  12.699  29.750   5.979  0.1011 -0.1559 -0.0887
18623W        W61639  16.625   8.434  19.407  0.1261  0.0211 -0.0058
18624W        W61640  10.708  18.230  27.795 -0.1423 -0.3172  0.0395
18625W        W61641   1.607  23.924  25.393  0.2358  0.2386  0.1298
18626W        W61642   7.450  11.099   5.061 -0.0173  0.1106 -0.1338
18627W        W61643  14.930  31.944  21.989  0.2440 -0.1528  0.0517
18628W        W61644  18.802  18.493   7.882  0.0480 -0.0496 -0.0319
18629W        W61645  28.507  26.031   9.541 -0.2371  0.2578 -0.0994
18630W        W61646  28.583   6.366  10.129 -0.0319 -0.0143 -0.3008
18631W        W61647  17.403  26.909   6.722 -0.2895 -0.0927 -0.0300
18632W        W61648  30.414   9.656  18.348 -0.1609 -0.1788 -0.0902
18633W        W61649  17.758  20.928  26.962  0.1440 -0.2360  0.2015
18634W        W61650  15.387   7.788   9.368  0.0748  0.2429 -0.2624
18635W        W61651  24.863  14.244   7.801 -0.3586  0.2223  0.1288
18636W        W61652  17.061   3.407   8.875 -0.1518  0.2493  0.0338
18637W        W61653  22.510  15.133   2.074  0.0755 -0.0502 -0.3298
18638W        W61654  23.060   2.706  10.212 -0.1079 -0.1397 -0.2598
18639W        W61655  15.299  23.331  23.903  0.0595 -0.0094  0.2079
18640W        W61656  23.734   8.474  26.084 -0.1778  0.0687 -0.3093
18641W        W61657  32.826  13.089  26.222 -0.1839 -0.1691 -0.0862
18642W        W61658  18.239  27.254   5.114  0.2236  0.3900  0.1959
18643W        W61659  10.556  29.004   5.853 -0.1508 -0.0909 -0.6634
18644W        W61660  21.399  32.584  28.733 -0.0195  0.1497 -0.1268
18645W        W61661  23.148  34.071  19.348  0.0314 -0.0688  0.1416
18646W        W61662   5.408  16.223   8.176 -0.2111 -0.0032  0.1279
18647W        W61663   0.288   5.292  28.940  0.3471 -0.1317 -0.0605
18648W        W61664  17.181  26.192   8.305 -0.1949  0.3213  0.3615
18649W        W61665  20.295   5.083  22.939  0.1169  0.0764 -0.1328
18650W        W61666  32.942  19.556   5.837 -0.1345 -0.0606  0.2687
18651W        W61667  19.534  26.128  10.130 -0.1005 -0.0283 -0.1284
18652W        W61668  11.709  18.281  28.552  0.0449 -0.3378  0.0793
18653W        W61669  30.822  22.262  26.760 -0.0800  0.0511  0.0863
18654W        W61670  27.864   1.341  16.275 -0.1378 -0.1037  0.1147
18655W        W61671  20.463   5.242   8.405 -0.1349 -0.0412 -0.1199
18656W        W61672  27.012  25.844  21.898 -0.1495  0.3350 -0.2882
18657W        W61673  22.900  22.117   7.943  0.1501 -0.3765  0.0146
18658W        W61674  24.459  25.042  27.413  0.2228 -0.3790 -0.1399
18659W        W61675  19.148  10.665   0.804 -0.0072  0.0647 -0.0340
18660W        W61676   2.216   4.398   0.566 -0.3524 -0.3171  0.1511
18661W        W61677  33.323  13.648  19.913  0.0212  0.1279 -0.1514
18662W        W61678  22.056   4.611  28.872 -0.1462  0.0317 -0.0641
18663W        W61679  24.928  34.757   6.559 -0.1384  0.0123  0.2920
18664W        W61680  19.539  19.565   9.177  0.1621  0.0402 -0.0104
18665W        W61681  25.449  33.334   4.179  0.0228  0.4631 -0.3021
18666W        W61682  28.511  27.294  25.201 -0.3105  0.0729 -0.0334
18667W        W61683  16.689   3.332   8.482 -0.0400 -0.1264  0.1147
18668W        W61684  25.069   6.033  19.332  0.0765  0.0228 -0.0945
18669W        W61685  12.893   6.512  23.908 -0.1712 -0.0924 -0.1836
18670W        W61686  11.233  28.351   7.411  0.2310  0.2158 -0.0110
18671W        W61687  12.563  31.229   4.545 -0.0009  0.2367  0.1343
18672W        W61688  33.487   1.793   7.666  0.0022  0.1037 -0.1247
18673W        W61689  18.951  34.554   1.721  0.1330 -0.4978  0.1046
18674W        W61690  24.296   7.438   2.382 -0.2185  0.0959 -0.0826
18675W        W61691   9.311   0.997   3.766  0.0853  0.0076 -0.0566
18676W        W61692  21.015   3.952   1.358  0.1170 -0.0877 -0.2794
18677W        W61693  10.711  10.454   1.704 -0.0053  0.2187  0.0418
18678W        W61694   9.719  26.030   0.244  0.2675  0.2047  0.3591
18679W        W61695  24.415  18.685  22.722 -0.0340 -0.1389  0.2062
18680W        W61696  15.796  28.957  16.902 -0.0276  0.5947 -0.3488
18681W        W61697  12.698   6.594  28.927 -0.0019 -0.3505  0.1109
18682W        W61698   8.344  31.300   5.852 -0.1633 -0.0605  0.1692
18683W        W61699  29.194  18.624   5.764  0.0172 -0.1978  0.0465
18684W        W61700  21.723   9.738   2.276  0.5038 -0.2324  0.0735
18685W        W61701  18.705   7.573  24.817  0.0660 -0.2681 -0.1587
18686W        W61702  15.382  33.648  26.201  0.0227  0.0090 -0.0831
18687W        W61703  17.264   1.730  24.872 -0.0378 -0.2065  0.1228
18688W        W61704  23.912   4.629   1.952 -0.3056 -0.2799  0.1171
18689W        W61705  25.470   1.046   6.136  0.1864 -0.3040  0.0474
18690W        W61706   0.627   5.617  27.492  0.2127  0.0736 -0.0941
18691W        W61707  27.980  24.985  19.390  0.0438 -0.1734  0.1463
18692W        W61708  12.809   2.728  19.412  0.2552  0.1048  0.1113
18693W        W61709  24.311  20.307   3.062  0.1066 -0.1903  0.0501
18694W        W61710  17.347   3.210   6.109 -0.0997 -0.1929  0.0850
18695W        W61711   6.981  10.337   4.568 -0.0090 -0.2670  0.2454
18696W        W61712   6.579  27.526   3.792 -0.0498 -0.1383  0.0684
18697W        W61713  30.887  17.614   8.595 -0.3011 -0.0963 -0.0694
18698W        W61714  20.183  29.729   9.401  0.1562  0.2005 -0.1985
18699W        W61715  11.483   1.346   6.451 -0.1650  0.4062 -0.1240
18700W        W61716   8.736  30.626   0.197  0.2965 -0.0056  0.1325
18701W        W61717  34.289  15.919   8.729  0.2461 -0.2428 -0.1943
18702W        W61718  23.501  31.153   4.492 -0.1008 -0.2645  0.0846
18703W        W61719  33.963   1.497  23.673  0.1481 -0.1079 -0.3796
18704W        W61720  20.909  25.451   3.049 -0.0541 -0.1431 -0.0371
18705W        W61721  28.789  14.310   4.038  0.0302 -0.0908  0.1970
18706W        W61722  17.257   5.959   7.068  0.1171  0.2741 -0.1736
18707W        W61723  22.718  24.296   3.425 -0.3337  0.0734 -0.1418
18708W        W61724  21.522  28.504   6.651 -0.1312  0.2864 -0.0872
18709W        W61725  28.592  19.165  24.604  0.1814  0.0012  0.1430
18710W        W61726  27.249  29.695   1.298  0.0570  0.1828 -0.2328
18711W        W61727  23.908  21.217  28.573  0.1686 -0.0988 -0.0244
18712W        W61728   7.511   4.031   9.973  0.1963 -0.2111 -0.0804
18713W        W61729  25.117   0.320  11.326 -0.2866 -0.2436  0.0800
18714W        W61730  14.116  10.706   5.394  0.1633  0.0630  0.1911
18715W        W61731  25.820  10.970  27.726  0.0737 -0.2753  0.3147
18716W        W61732  20.497   8.939   2.661 -0.1547  0.1807  0.2624
18717W        W61733  23.921  21.005  25.568 -0.3025  0.0431  0.2705
18718W        W61734  22.635  30.928   0.567 -0.1765 -0.1050  0.1397
18719W        W61735   7.883  34.658  15.382  0.0474  0.1281 -0.1462
18720W        W61736  13.706  30.227   4.395 -0.3687 -0.0610  0.1559
18721W        W61737  16.641   4.929  19.977 -0.3571 -0.1822 -0.0829
18722W        W61738  17.500  14.606  23.935 -0.3646  0.0056 -0.0042
18723W        W61739   3.106  30.515   1.228 -0.1801 -0.0506  0.0717
18724W        W61740  33.866   1.945   6.496 -0.0620  0.5027  0.0467
18725W        W61741  23.155  27.737   9.843  0.1733  0.0575 -0.0659
18726W        W61742  21.833  23.735  28.979 -0.2786  0.1712 -0.1702
18727W        W61743  22.027  15.648   2.734  0.0449  0.1298  0.2949
18728W        W61744  27.741  28.546  26.701 -0.0885  0.1332  0.0206
18729W        W61745  32.590   7.911  28.557  0.0207 -0.0333  0.0005
18730W        W61746  24.024  31.684  25.913  0.0308  0.2593  0.1898
18731W        W61747   0.492  31.084  22.316  0.0464 -0.1370 -0.3900
18732W        W61748  14.324  29.390   9.494  0.0260  0.1548 -0.4055
18733W        W61749  28.341   6.351  10.668 -0.3207  0.1689  0.0069
18734W        W61750  26.447  13.947   2.721 -0.1640  0.0683  0.2242
18735W        W61751   9.389  14.190   1.603 -0.2940 -0.0483 -0.1681
18736W        W61752   3.140  27.200  16.351 -0.1929  0.0362  0.0956
18737W        W61753  28.044  34.349   4.319  0.1118  0.2071 -0.0226
18738W        W61754  16.289  14.430  21.469  0.1875 -0.0421  0.2778
18739W        W61755  31.698  19.045   6.866 -0.0330  0.1773  0.1192
18740W        W61756   9.669   2.173  27.663 -0.0592 -0.1073  0.4722
18741W        W61757  11.947  13.247  28.705  0.0502 -0.2107  0.1642
18742W        W61758  28.098   5.856  28.171  0.0689 -0.1617 -0.1596
18743W        W61759  19.948  31.507   9.999  0.2586 -0.3041 -0.2340
18744W        W61760  12.338   3.908   9.557 -0.0239 -0.3807 -0.1837
18745W        W61761  29.443  25.121  29.117  0.1174  0.0165 -0.2548
18746W        W61762  31.658  29.617   5.905  0.1525 -0.2651 -0.1334
18747W        W61763  30.065   5.325   5.036 -0.3056 -0.1272 -0.0980
18748W        W61764  18.819   4.225   8.063  0.3102  0.1858  0.0123
18749W        W61765  22.922  12.584   4.063  0.0629  0.0166 -0.0914
18750W        W61766   7.471  13.585  28.475  0.2296  0.0595  0.3085
18751W        W61767  10.494   4.616  27.245  0.3686 -0.0979  0.2859
18752W        W61768  19.684  34.656   2.909  0.0883  0.0440  0.3743
18753W        W61769   8.404  28.007   5.342 -0.1439  0.0285  0.1173
18754W        W61770  11.299  13.740  18.801  0.2179 -0.3492  0.0899
18755W        W61771   7.546   0.543  26.400 -0.5294 -0.1843  0.2772
18756W        W61772  27.753  20.500  20.276 -0.2298  0.2118  0.0703
18757W        W61773   6.337   5.463  10.122  0.1692  0.3577 -0.3575
18758W        W61774  21.346  16.656  20.843 -0.2550  0.2409 -0.5115
18759W        W61775  23.213   1.492   5.793 -0.0903 -0.0327  0.0176
18760W        W61776  26.561   0.312   8.945  0.0499 -0.0034 -0.0964
18761W        W61777  22.194  24.497   2.289 -0.2002 -0.0595 -0.0134
18762W        W61778  23.521  12.068   4.823  0.2613  0.3400 -0.0283
18763W        W61779  16.072   0.751   7.933 -0.2013  0.2889  0.1942
18764W        W61780  14.835  26.437   3.970 -0.0990  0.1108  0.2877
18765W        W61781  21.114  29.241   9.249  0.1299 -0.1073  0.0539
18766W        W61782  16.470  14.939   4.312 -0.0027  0.4434 -0.1893
18767W        W61783  15.480   6.290   3.412 -0.2179  0.1004 -0.1414
18768W        W61784  25.538   7.398   6.979  0.0493  0.0622 -0.0522
18769W        W61785  11.300  26.519   6.932 -0.2162  0.1736  0.0104
18770W        W61786  29.217  28.003   1.120 -0.1152  0.2949 -0.1846
18771W        W61787  20.086   7.392   4.449  0.0131 -0.1591  0.0355
18772W        W61788  10.584   9.374   0.564 -0.1609  0.0002  0.1716
18773W        W61789  20.716  16.973  28.251  0.3230 -0.1446 -0.1929
18774W        W61790  17.628  16.007   1.282  0.1941 -0.0785 -0.0195
18775W        W61791  19.210   3.635   1.674  0.0653 -0.3146  0.0674
18776W        W61792  13.560  30.351   3.517  0.1314 -0.0856 -0.2251
18777W        W61793   9.084   2.979   3.830 -0.0392  0.0165  0.0971
18778W        W61794  19.387  23.251  24.313 -0.2265  0.2227  0.0400
18779W        W61795  17.407  13.665   2.097  0.0990 -0.2876  0.0153
18780W        W61796   5.586   0.943  14.574 -0.1370 -0.1042 -0.0338
18781W        W61797  16.490  15.200  25.270 -0.1783  0.0409 -0.0610
18782W        W61798  25.245   9.771   9.927 -0.1646  0.3053  0.0032
18783W        W61799  30.711   0.937   1.960  0.1953 -0.0508 -0.1157
18784W        W61800  14.512  30.792   5.909 -0.0846 -0.0746 -0.1230
18785W        W61801  15.685   2.662   6.759  0.1921  0.0062  0.3466
18786W        W61802  31.107  34.755   0.005 -0.1657  0.0845 -0.0506
18787W        W61803  17.208  17.987  21.943  0.1785  0.4170 -0.0439
18788W        W61804  23.997  34.130  25.030  0.0552 -0.1427  0.1879
18789W        W61805  12.234  14.622   7.634  0.0976  0.1727  0.1029
18790W        W61806  19.182  19.345   2.902  0.0712  0.1368 -0.1109
18791W        W61807  18.803   1.101  28.196 -0.0698  0.1696 -0.1499
18792W        W61808   6.689   2.143   3.518 -0.1926 -0.0412 -0.2485
18793W        W61809   9.344  28.501   3.667  0.1915 -0.0224  0.0848
18794W        W61810   7.134   0.956   4.577 -0.2052  0.0299  0.0635
18795W        W61811   8.848  24.551  24.552 -0.0164  0.1101 -0.1758
18796W        W61812  23.733  23.899  10.345 -0.3918 -0.1008 -0.0926
18797W        W61813  18.323  13.415  21.446  0.0591  0.0843  0.2439
18798W        W61814  12.365  32.309   4.615  0.0274  0.0212  0.0282
18799W        W61815   0.556  25.939   6.500 -0.0296  0.0423  0.2360
18800W        W61816  11.096  13.740   1.516 -0.2387  0.0877 -0.1663
18801W        W61817  15.866  27.504   8.932 -0.0627 -0.0877 -0.0186
18802W        W61818  19.529  18.016   0.242 -0.2547  0.0549  0.1467
18803W        W61819  28.437  31.261   5.972  0.0623 -0.0292 -0.2180
18804W        W61820  16.922   6.765   1.319  0.0423  0.1146  0.4804
18805W        W61821  15.682  32.897   7.069 -0.0462  0.1224  0.0411
18806W        W61822  22.939  14.082  16.379  0.3323  0.1690 -0.0719
18807W        W61823  24.524  22.398   1.586  0.1191  0.1465  0.0872
18808W        W61824  21.610   7.474   3.335 -0.1814  0.1482 -0.1238
18809W        W61825  13.823  28.551   5.079  0.1632 -0.2051 -0.0059
18810W        W61826  31.201   1.591   7.809 -0.1824  0.0374  0.1882
18811W        W61827  31.680  33.314   3.316 -0.0002 -0.4043 -0.2609
18812W        W61828  27.859   3.664  28.894 -0.1005  0.1971 -0.0866
18813W        W61829  33.984   1.627   5.597 -0.2979 -0.1532 -0.1000
18814W        W61830  25.288  30.016   5.503  0.1935 -0.0110 -0.0410
18815W        W61831  13.250  22.827   4.421  0.1126 -0.0209  0.0859
18816W        W61832   3.570   2.050  18.265  0.0147 -0.1646 -0.0794
18817W        W61833  21.862  29.053   8.862 -0.0807 -0.2269 -0.1046
18818W        W61834  21.055  19.771   3.393 -0.1045  0.0705  0.2451
18819W        W61835  22.131  27.117   0.178 -0.2080  0.1814 -0.0875
18820W        W61836  14.915  16.095   4.813  0.1203 -0.1318 -0.0783
18821W        W61837  24.725   5.702   9.792  0.0410  0.1138 -0.2997
18822W        W61838  23.404  14.960   5.621  0.1668  0.2531  0.2748
18823W        W61839   4.337   7.816  28.767  0.1306 -0.1953  0.4584
18824W        W61840   0.538   8.186   4.324  0.0174  0.1814  0.4149
18825W        W61841   9.180  32.507   2.920 -0.0036 -0.0262 -0.0876
18826W        W61842  19.968   5.310   1.148  0.2016 -0.0899  0.2258
18827W        W61843  33.348  15.191   5.885 -0.1231  0.1737  0.0089
18828W        W61844   1.269   0.747  24.806  0.2433 -0.0609 -0.0123
18829W        W61845  14.671   6.619  27.679  0.1010  0.1703 -0.1546
18830W        W61846  14.607   5.920   6.123 -0.1761 -0.0232 -0.1035
18831W        W61847   3.678  28.651   6.512 -0.0446 -0.4214 -0.1238
18832W        W61848  27.920   8.212   4.911  0.1819 -0.3541 -0.1339
18833W        W61849  15.820  10.434  26.509  0.2999  0.1386 -0.0470
18834W        W61850   4.045  28.910   5.502  0.1509  0.1694  0.0805
18835W        W61851  22.253  33.321   9.318 -0.0978 -0.0628 -0.0406
18836W        W61852  26.799   5.927   3.191 -0.0466 -0.2845  0.0128
18837W        W61853  21.120  21.338   6.793  0.0512 -0.2725  0.1150
18838W        W61854  21.182  17.043  24.782 -0.1322  0.1335 -0.1204
18839W        W61855   2.815  22.996  28.254 -0.0792 -0.3648 -0.1042
18840W        W61856  16.007  34.716  18.842 -0.1903 -0.1523 -0.1683
18841W        W61857  22.987  33.555   8.173 -0.0637 -0.2055 -0.1167
18842W        W61858  30.057  12.587   6.296 -0.2750 -0.0349 -0.1724
18843W        W61859  28.409  16.103  27.548 -0.1015 -0.1064  0.2692
18844W        W61860  30.833  29.297   2.885 -0.0652  0.2579  0.1229
18845W        W61861  18.814   3.778   5.294  0.3538  0.0720 -0.0540
18846W        W61862   3.190   7.182   7.216  0.1599 -0.1724  0.1466
18847W        W61863  26.928  23.672  24.854 -0.3286 -0.0488 -0.0102
18848W        W61864  27.007   6.743  11.494 -0.0351  0.1781  0.1566
18849W        W61865  11.528  33.727   9.658  0.1368 -0.0991 -0.2125
18850W        W61866   6.869   1.606  27.304 -0.0818  0.0962 -0.1460
18851W        W61867   4.851   1.354   9.280  0.2320  0.0200  0.0918
18852W        W61868  12.927   0.127   9.701  0.0170  0.1686  0.1617
18853W        W61869   9.814  33.450   4.136 -0.0074  0.2639 -0.0314
18854W        W61870   4.472   6.302   3.944  0.0579 -0.1954 -0.1061
18855W        W61871  13.019  28.175  24.213 -0.0601  0.1139 -0.0501
18856W        W61872  18.417  23.720   4.880 -0.2079 -0.0912 -0.1788
18857W        W61873  22.105  19.433  28.569  0.1609  0.1008 -0.2602
18858W        W61874  23.441  11.206  17.950 -0.1077  0.2569  0.0383
18859W        W61875  14.106  10.009  26.667 -0.2681  0.1675  0.1758
18860W        W61876  19.636  23.774   5.055 -0.0765  0.0837  0.0618
18861W        W61877  18.811  25.026   7.493 -0.1808 -0.0716  0.2017
18862W        W61878  14.234  20.405  25.785  0.0093 -0.1593 -0.2753
18863W        W61879  23.020   8.964   8.647 -0.1125 -0.1540 -0.2411
18864W        W61880  15.370  32.284  10.930  0.0626  0.2310 -0.1819
18865W        W61881  13.407   5.207   5.145 -0.2691 -0.0449 -0.2708
18866W        W61882  13.193  28.471   5.721  0.1332 -0.3415 -0.1482
18867W        W61883  17.701   8.366  25.526  0.0409  0.0324  0.2231
18868W        W61884  14.238  27.417   6.837 -0.3895  0.2326  0.0068
18869W        W61885  14.246  17.437  23.652 -0.0569  0.2506 -0.1594
18870W        W61886   7.662  33.101   8.384  0.4716 -0.1929  0.1043
18871W        W61887   4.551  29.366   5.251  0.2753 -0.0661  0.0559
18872W        W61888  11.331  12.250   7.530  0.1899 -0.1161 -0.2693
18873W        W61889  20.969   6.433  22.057  0.1028 -0.0918 -0.0610
18874W        W61890  19.608   5.757   5.681 -0.2662  0.2452  0.0829
18875W        W61891   5.556   6.390   7.820 -0.0177  0.0272  0.1640
18876W        W61892  22.487  10.994   6.165  0.1205 -0.3078  0.1129
18877W        W61893  22.784  20.840   7.324 -0.2336  0.1137  0.0152
18878W        W61894   2.873   6.308  26.537 -0.2836 -0.0300  0.0835
18879W        W61895  25.825   6.068  11.196 -0.1514  0.1197 -0.2849
18880W        W61896  19.788   9.625   9.369  0.1849  0.0237  0.0095
18881W        W61897  31.593  26.687   7.349  0.3002 -0.1525  0.1059
18882W        W61898  32.914  21.551   2.802  0.1207  0.0380  0.2208
18883W        W61899   9.464  16.294  23.023  0.1494  0.1004  0.0683
18884W        W61900  15.072   1.231   7.113 -0.0164  0.0061 -0.0900
18885W        W61901  26.601   3.544   6.938 -0.0459 -0.2032 -0.1421
18886W        W61902  14.818  30.042  18.745 -0.3005 -0.4020 -0.0952
18887W        W61903  29.633  25.839   9.662 -0.2534 -0.1600  0.1578
18888W        W61904   6.551  33.017  25.345 -0.1495 -0.0361 -0.4172
18889W        W61905  14.123  14.262   8.507 -0.3114 -0.0576 -0.2104
18890W        W61906   7.897   3.975   2.893 -0.2080 -0.0071  0.2710
18891W        W61907  21.359  20.527   4.075  0.2670 -0.1927 -0.0834
18892W        W61908  19.365   7.388   9.940 -0.2693 -0.0837  0.0404
18893W        W61909  26.699  10.338   4.564 -0.2225  0.2795 -0.2394
18894W        W61910  31.457  32.946  28.711  0.2729  0.3813  0.2723
18895W        W61911  30.848  12.865  27.191 -0.3731 -0.4089 -0.0331
18896W        W61912  14.801  28.347   4.086 -0.0079  0.0599  0.4570
18897W        W61913  25.919   3.466   9.607  0.2233 -0.0753 -0.0451
18898W        W61914  19.565  33.008   5.496 -0.0121  0.0244 -0.0781
18899W        W61915  20.547   5.392  10.284  0.2651 -0.1315  0.3671
18900W        W61916  21.099  29.526   3.396  0.0317 -0.1756  0.0245
18901W        W61917  14.866   6.542   9.458 -0.1320  0.2145  0.1985
18902W        W61918  15.665  13.632  19.805 -0.1816  0.0246 -0.1141
18903W        W61919  21.910  31.416  10.060 -0.0289  0.0644  0.1436
18904W        W61920  11.618  30.578  28.668 -0.0469  0.2667  0.0611
18905W        W61921  17.337  11.827   2.556  0.0776 -0.0505  0.0703
18906W        W61922   0.215  16.293   2.976 -0.2284  0.0070 -0.1528
18907W        W61923  30.555  27.453  10.380 -0.2221  0.4020  0.3921
18908W        W61924   0.713   5.678  28.277 -0.0525  0.2735 -0.1062
18909W        W61925  11.083  15.654   9.242 -0.0411 -0.4672  0.0003
18910W        W61926  12.932   3.047   0.182 -0.2230  0.0411  0.2725
18911W        W61927  15.058  28.700   0.680 -0.1423  0.2833  0.1669
18912W        W61928   3.524  32.238   9.473 -0.0600 -0.0326  0.3947
18913W        W61929   1.795  23.588   7.106 -0.2404 -0.2069 -0.0670
18914W        W61930  18.396  14.145   3.511 -0.2217  0.0176  0.2555
18915W        W61931   0.741  19.906  22.828 -0.1473 -0.2683  0.0875
18916W        W61932   8.621  33.995   7.007  0.2525  0.0708 -0.0422
18917W        W61933  24.013  24.775   3.086  0.0086  0.1644  0.0059
18918W        W61934  21.082  32.025   7.168  0.0209 -0.0523 -0.1473
18919W        W61935   1.414  29.958   3.166 -0.3162 -0.1282  0.0975
18920W        W61936  29.330  18.159   9.873  0.3705 -0.1104  0.5524
18921W        W61937  16.637  19.037   6.353  0.2934  0.1830  0.1614
18922W        W61938  20.831   2.464   7.813  0.0669  0.0054 -0.1055
18923W        W61939  23.248  25.148  19.378 -0.3133 -0.0442 -0.0728
18924W        W61940  25.443  32.345  11.075  0.1512  0.0207  0.1343
18925W        W61941  23.757  31.561  27.768 -0.2581  0.2319  0.2484
18926W        W61942  28.843   3.389   9.447  0.2046 -0.0735  0.0623
18927W        W61943  20.536  27.783   7.195  0.1712  0.0735  0.0933
18928W        W61944   2.144   4.874   8.607 -0.3667  0.2140  0.0768
18929W        W61945  12.503   1.422  19.242 -0.2968 -0.1886 -0.0039
18930W        W61946  20.844  32.334   7.456  0.2883 -0.3022  0.2728
18931W        W61947  27.016  31.733  10.910  0.4734 -0.1626 -0.0844
18932W        W61948  19.963   0.964   5.595  0.2095  0.1023 -0.3350
18933W        W61949  24.387   4.485   2.270  0.1071  0.2504  0.1584
18934W        W61950  17.051  34.444   8.913  0.1551 -0.1875 -0.1594
18935W        W61951  24.505  26.137  10.244 -0.1687  0.1614 -0.3162
18936W        W61952  29.497  26.814   3.149 -0.0466 -0.0310  0.0409
18937W        W61953  33.150  10.080   2.340  0.0493 -0.1005  0.4622
18938W        W61954  27.953  27.442   2.261 -0.1174 -0.1356 -0.0077
18939W        W61955  17.114  21.187  19.767  0.0774  0.1779  0.0199
18940W        W61956  14.795   3.643   8.391  0.0737 -0.0098 -0.0694
18941W        W61957  11.081  23.860  23.864  0.2059  0.0396  0.1917
18942W        W61958  20.356   7.918   5.909 -0.1240  0.0566  0.0340
18943W        W61959  15.690  29.715   7.779  0.1812 -0.2581 -0.0551
18944W        W61960  32.345  29.397  29.209  0.0805 -0.2203  0.1630
18945W        W61961  32.348  28.491   9.705 -0.0651 -0.2962 -0.0125
18946W        W61962  20.797  31.631   1.234 -0.0898 -0.0182 -0.0084
18947W        W61963   6.539  29.178   5.291  0.0856 -0.0870 -0.3273
18948W        W61964  17.855  21.367  27.209  0.0168 -0.2703 -0.4669
18949W        W61965  28.176  10.867   8.883  0.2932  0.1960  0.2085
18950W        W61966   0.775  20.740  28.783 -0.0721  0.0244  0.0119
18951W        W61967  34.709  15.777   1.224 -0.4558 -0.1244 -0.0270
18952W        W61968  16.520   4.047   0.960  0.3292 -0.0151 -0.1615
18953W        W61969   8.679   4.805   3.954  0.1132 -0.3355 -0.2782
18954W        W61970  32.914  10.268  29.032 -0.0237 -0.3038  0.1831
18955W        W61971   9.670   5.318   6.607  0.0894  0.0797  0.1055
18956W        W61972  32.779  20.884   8.529 -0.3332  0.2404 -0.0516
18957W        W61973  20.271  18.214  29.313 -0.0786  0.1636  0.0079
18958W        W61974  11.598  30.383   1.064 -0.4626  0.3420  0.1933
18959W        W61975  18.329   9.057   7.262 -0.2586 -0.0787  0.0567
18960W        W61976  12.693  29.454   8.242 -0.0294 -0.0165  0.1932
18961W        W61977  13.089  34.253   7.691  0.0937 -0.1319 -0.3157
18962W        W61978  16.034   1.348   2.938 -0.3118 -0.0605 -0.0936
18963W        W61979   5.732  14.621   7.320 -0.0741 -0.2192 -0.0215
18964W        W61980  20.262   8.005   2.997  0.0419  0.3500 -0.0041
18965W        W61981  33.813  34.150  26.748  0.0943 -0.0890 -0.2636
18966W        W61982  21.319  29.744  22.901 -0.1165 -0.2879 -0.2331
18967W        W61983  22.838  21.046   8.892 -0.0082 -0.3636 -0.0625
18968W        W61984  20.383  19.300   2.012  0.1656  0.1243  0.0816
18969W        W61985  12.085  33.987   4.306 -0.0236  0.0126 -0.0457
18970W        W61986  27.425  23.588   5.997 -0.0302  0.2012 -0.2038
18971W        W61987  24.991  24.873   5.755 -0.1660  0.0148 -0.1526
18972W        W61988  13.588  30.934   1.059  0.2426 -0.0711  0.1299
18973W        W61989  10.836  30.640   4.559 -0.1923 -0.1524 -0.0464
18974W        W61990  27.946  20.318   6.674  0.1579  0.0808 -0.1735
18975W        W61991  27.345  15.030  27.888 -0.0286  0.0392 -0.3096
18976W        W61992  17.709   2.409  10.285  0.1096  0.0942  0.1624
18977W        W61993   8.762  29.060  29.053 -0.0968  0.0004 -0.0575
18978W        W61994  15.678   5.370   9.655  0.1747  0.0034  0.2791
18979W        W61995  28.431  27.057   4.277  0.0990  0.0812  0.0506
18980W        W61996  29.287   5.236   7.967 -0.3073 -0.0235 -0.0302
18981W        W61997  20.808  33.806  22.882  0.2216  0.2222  0.5474
18982W        W61998  21.945  32.867  25.837  0.3689  0.1466 -0.2064
18983W        W61999  15.040  27.960   0.191 -0.0424  0.1926  0.1552
18984W        W62000  25.016  34.221   6.563 -0.0065  0.2363  0.1604
18985W        W62001  14.417  19.390   1.666 -0.1503  0.0696  0.4448
18986W        W62002  16.913   0.379   1.923  0.0030  0.0392  0.0429
18987W        W62003  17.102   8.468   4.708 -0.0400 -0.3190 -0.0578
18988W        W62004  26.964  33.480  11.468  0.2317 -0.1714 -0.0342
18989W        W62005   7.720  26.945   5.731 -0.2883  0.0365  0.0165
18990W        W62006  12.833   1.840   9.702 -0.0376  0.0487  0.0219
18991W        W62007  24.763  30.667  22.837  0.0825  0.5599 -0.2033
18992W        W62008  21.579  14.800  25.644 -0.2314  0.0295 -0.1942
18993W        W62009  22.915  26.792   5.214 -0.0029 -0.0104  0.1153
18994W        W62010  16.241  12.427   3.990  0.1890 -0.2031 -0.5470
18995W        W62011  25.788  33.719  23.164 -0.2391  0.0028  0.1145
18996W        W62012  28.435  26.276   6.785 -0.2356  0.1224 -0.0464
18997W        W62013  15.050  28.710   9.492 -0.0195 -0.0261  0.0679
18998W        W62014  19.100  11.432  18.199  0.0924 -0.0853  0.3952
18999W        W62015  33.312   1.974   4.863  0.3572  0.1840  0.0319
19000W        W62016  20.042  29.171   7.250 -0.2196 -0.1500 -0.1074
19001W        W62017  18.702  24.920   0.130  0.0102  0.0783  0.1762
19002W        W62018   5.930  20.897   6.268 -0.0365 -0.2797 -0.0374
19003W        W62019  24.889  29.092  27.349 -0.2272  0.3558  0.0060
19004W        W62020  11.456  11.568   7.037  0.0463  0.3384  0.2358
19005W        W62021  14.278   7.060   4.398  0.3295 -0.3127 -0.4552
19006W        W62022  14.429   3.591   8.072 -0.2337  0.1412  0.0150
19007W        W62023  10.646  34.054   2.091 -0.0617  0.0914 -0.0737
19008W        W62024  19.116  16.121  18.828 -0.3787  0.2189 -0.2042
19009W        W62025  17.310  21.481  27.314 -0.0564 -0.3423 -0.1829
19010W        W62026   1.567   5.114   0.343 -0.0594  0.0029 -0.1871
19011W        W62027  21.518   8.545   1.355 -0.0810  0.2465 -0.2024
19012W        W62028  23.718   1.675   6.910  0.2294 -0.2133  0.1936
19013W        W62029  11.808   3.161  15.299 -0.1074  0.2960  0.0735
19014W        W62030   9.477  12.585  26.375 -0.0450 -0.0645 -0.0043
19015W        W62031   4.183  12.049   5.460  0.0264 -0.0175 -0.2794
19016W        W62032  32.979  10.738  19.366  0.0065  0.3201 -0.0565
19017W        W62033  28.912  33.814   2.063 -0.0786 -0.4354  0.3564
19018W        W62034  13.966  27.274   0.330 -0.0680  0.3270  0.1195
19019W        W62035  18.781  20.347   6.110  0.1750 -0.0018  0.0088
19020W        W62036  25.735  30.172   9.394 -0.0708  0.3045  0.0833
19021W        W62037  16.909   4.371   2.893  0.1029 -0.0519 -0.0139
19022W        W62038   2.512   9.278   6.421  0.2299  0.1333  0.3015
19023W        W62039  16.462   2.148   1.263  0.2279 -0.1918 -0.3257
19024W        W62040  21.745  20.131  16.062  0.0928 -0.2350  0.0486
19025W        W62041   8.340   6.298  28.812  0.0920 -0.1684  0.0039
19026W        W62042  14.148  26.994  27.618 -0.0538 -0.1654 -0.1130
19027W        W62043  20.966  13.816   2.664  0.1472 -0.0386 -0.3688
19028W        W62044  27.416  20.305   4.774  0.0382  0.0408  0.2226
19029W        W62045  21.977  12.655   8.301  0.2531 -0.0554 -0.3649
19030W        W62046  13.547   0.388   5.629 -0.1324 -0.0223  0.0476
19031W        W62047   4.164   5.445  22.472  0.1258  0.0972 -0.0342
19032W        W62048  12.791  34.244  22.337  0.0872 -0.1246  0.2913
19033W        W62049  14.617  16.400  24.725  0.0474 -0.1039  0.0016
19034W        W62050   5.858  12.067   0.189  0.1812  0.0868 -0.0277
19035W        W62051  23.008   3.281  10.059  0.0405  0.3316  0.0685
19036W        W62052  22.757   2.403   9.891  0.2516 -0.0067  0.0793
19037W        W62053  12.053  27.693   8.571  0.1250 -0.0879  0.2827
19038W        W62054  18.778  27.065   1.715 -0.1208 -0.0701 -0.0652
19039W        W62055   9.950  15.011  28.718 -0.3671 -0.0274 -0.1468
19040W        W62056  13.307  26.835   7.692  0.2519  0.0133  0.3123
19041W        W62057  10.054   3.464   2.710  0.1235  0.0031 -0.1078
19042W        W62058  27.621  25.387   3.038  0.0707  0.3197  0.3679
19043W        W62059  27.378   2.085   9.095  0.1705  0.1146 -0.0241
19044W        W62060  15.485   3.848   6.014 -0.0043 -0.1150  0.0276
19045W        W62061  27.608  30.110   1.300  0.1951 -0.0820 -0.2908
19046W        W62062  20.010  34.248   7.922  0.1285  0.2895 -0.1950
19047W        W62063  30.307   2.063   3.678  0.2109 -0.2306  0.4618
19048W        W62064  32.221  27.893   6.998  0.1174 -0.1738 -0.1746
19049W        W62065  22.944  20.031   4.155 -0.0705  0.1067  0.0745
19050W        W62066  18.822  34.737  25.483 -0.1909  0.1238 -0.4000
19051W        W62067  14.492  25.681  21.929 -0.1717  0.1303  0.1544
19052W        W62068   3.350  12.421  26.283 -0.1940  0.1762  0.3075
19053W        W62069  12.685  31.824   9.559  0.2290  0.0608  0.1980
19054W        W62070  29.328  14.675   6.939  0.3030  0.1294 -0.1067
19055W        W62071  11.614  20.951   5.111  0.0183 -0.3532 -0.1075
19056W        W62072  20.504   8.752   7.953  0.0210  0.1558 -0.1095
19057W        W62073  13.973  28.764   7.301  0.1073 -0.1551  0.0708
19058W        W62074  17.201   8.499  20.319  0.3489 -0.0261 -0.0276
19059W        W62075  17.913  32.358  21.876  0.0987  0.1483  0.2360
19060W        W62076  23.908  28.596   7.834  0.1686  0.3739 -0.2438
19061W        W62077  13.273   8.508  24.985 -0.2887 -0.0912 -0.1767
19062W        W62078   0.709  29.968  20.821 -0.0935 -0.0311 -0.0682
19063W        W62079  25.857  31.721   9.872  0.4132 -0.1928 -0.0832
19064W        W62080  24.062  32.210  20.687 -0.0684  0.1113 -0.1417
19065W        W62081  15.186  18.176   5.710  0.0378  0.0449  0.3500
19066W        W62082  17.172  25.110   7.318  0.3179  0.0852  0.1154
19067W        W62083  15.633  14.706  22.181 -0.3674 -0.1709  0.0379
19068W        W62084  21.040  20.357   2.489 -0.2352 -0.0130  0.1763
19069W        W62085  11.901  22.699   3.065  0.0566 -0.1428  0.1894
19070W        W62086  25.092  13.366   2.907 -0.1709 -0.2111  0.0755
19071W        W62087  10.107   6.154   5.206  0.1344 -0.0900 -0.1693
19072W        W62088   6.544   4.438  22.015 -0.1266 -0.3266  0.2438
19073W        W62089  26.267   8.941   6.922 -0.2353 -0.0382  0.2132
19074W        W62090  12.215  22.449   0.187  0.1190  0.0868 -0.1711
19075W        W62091  13.341  33.116   8.727  0.0052  0.0086  0.1957
19076W        W62092  12.054   4.588  23.168  0.0980  0.0427  0.0290
19077W        W62093  18.134   1.897   8.493  0.1469 -0.3307  0.1112
19078W        W62094  27.495   2.782   7.801  0.0408  0.1928  0.3784
19079W        W62095  17.843  26.486   4.541 -0.1179  0.1245 -0.0861
19080W        W62096  20.440  30.127   8.353 -0.0801 -0.0725 -0.0826
19081W        W62097  20.189  28.114   4.465 -0.5248 -0.2002  0.4610
19082W        W62098  17.335   1.266  28.020  0.1656 -0.2823 -0.1006
19083W        W62099  28.811  29.867   2.047  0.0391  0.2031 -0.0137
19084W        W62100  32.364   3.352  27.940  0.0529 -0.0826 -0.1491
19085W        W62101   8.981   3.717  20.896  0.1527  0.1175 -0.1870
19086W        W62102   2.571   2.278  15.637 -0.2219 -0.1118 -0.1409
19087W        W62103  23.431   0.353  27.384 -0.1440  0.1491  0.1930
19088W        W62104  17.379  17.760  22.416 -0.0256  0.0637  0.0328
19089W        W62105  10.849  28.043   3.922  0.2264  0.3261 -0.1548
19090W        W62106  15.861   0.375   7.123  0.1279  0.2572  0.1834
19091W        W62107   9.878  34.011  16.182  0.1576 -0.1523  0.0842
19092W        W62108   5.269  23.162   5.877 -0.2385 -0.0389  0.0449
19093W        W62109   8.794  22.871  17.735 -0.1644  0.2002  0.0859
19094W        W62110  27.501   8.284  25.991  0.3277 -0.0922 -0.0459
19095W        W62111  19.598   0.290   2.668  0.0064 -0.1898 -0.2920
19096W        W62112  29.982  14.132   6.976  0.2070  0.0504  0.0016
19097W        W62113  32.651   9.072  23.691 -0.2310 -0.1133  0.1144
19098W        W62114   9.750  15.316  25.853  0.1399  0.2904  0.1421
19099W        W62115  25.324   3.467   8.534  0.0525 -0.0743 -0.1658
19100W        W62116  17.897  24.309   9.094 -0.0405 -0.0072  0.1069
19101W        W62117   0.331   6.150  26.984  0.2983 -0.1628  0.1424
19102W        W62118  33.291   4.423  21.745  0.1126  0.1130  0.1723
19103W        W62119  13.702   5.746  27.508 -0.0071 -0.4511  0.1660
19104W        W62120  16.812   4.337   6.263  0.1143 -0.0779 -0.1170
19105W        W62121  34.468   9.718  26.907 -0.3942 -0.0742  0.0621
19106W        W62122  28.292  33.724   3.084  0.1125 -0.0575  0.1320
19107W        W62123  26.269  12.274   8.891  0.2882 -0.0914  0.1140
19108W        W62124  21.169   5.303  27.223  0.0598  0.0254  0.1307
19109W        W62125  14.722   3.740  20.279  0.1744  0.0374 -0.1146
19110W        W62126  14.540  29.422   5.322  0.0744 -0.0984 -0.1767
19111W        W62127  23.816   3.693   9.532 -0.2750  0.0323  0.0897
19112W        W62128  24.365  14.400   2.124 -0.1020  0.1905 -0.1226
19113W        W62129  17.990  34.364   9.850 -0.4001  0.1567 -0.1217
19114W        W62130  21.643  23.203  28.990  0.4401 -0.2148  0.1214
19115W        W62131  13.436   5.081  25.948  0.1736 -0.0588  0.1709
19116W        W62132  33.084  23.156   7.152 -0.0781 -0.0439 -0.0442
19117W        W62133  25.804   3.461  15.495  0.0800 -0.2167  0.1460
19118W        W62134  11.685   1.829   2.525 -0.2404 -0.1601  0.3005
19119W        W62135  33.951  17.620  23.261 -0.0361  0.4027 -0.3087
19120W        W62136  23.950   0.164   6.418  0.0439  0.1319 -0.1414
19121W        W62137  29.507  28.880   6.292 -0.1406 -0.0410  0.0499
19122W        W62138  24.966   4.039   4.066  0.1393 -0.1875 -0.0556
19123W        W62139  22.812   3.503   7.107 -0.1329  0.3548  0.1193
19124W        W62140   3.507  24.546   3.640  0.0818 -0.1960 -0.2791
19125W        W62141  26.908   4.336  24.469  0.1366  0.1348  0.1482
19126W        W62142  34.288  32.690   5.274  0.2588 -0.0246  0.2239
19127W        W62143  26.728  22.554   6.122 -0.0454  0.3086  0.2954
19128W        W62144  14.417  11.792  22.019 -0.3705  0.1131  0.0239
19129W        W62145  32.315  33.262   5.398  0.0405  0.2750  0.1673
19130W        W62146   1.626  28.339   4.522 -0.1031 -0.0893 -0.2820
19131W        W62147  23.321  11.103   1.127  0.0048 -0.2439 -0.3293
19132W        W62148   1.514  27.621   5.671  0.0182 -0.2028 -0.0150
19133W        W62149  26.806  22.923  24.048  0.2699  0.0716 -0.0173
19134W        W62150  20.927  13.299  24.670  0.3250  0.2278 -0.3541
19135W        W62151  29.210  30.026  20.544 -0.0574  0.1026 -0.2755
19136W        W62152  30.999  10.009   8.853 -0.0050 -0.2254  0.0341
19137W        W62153  19.274  24.112  24.025 -0.2299 -0.1376 -0.1130
19138W        W62154  27.136   1.729  10.818  0.0624 -0.3566 -0.0068
19139W        W62155  25.810  12.170  25.139  0.1812  0.2713 -0.0913
19140W        W62156  25.939  18.521   4.773  0.0193 -0.1712  0.1741
19141W        W62157  23.488  16.929   5.633 -0.0809 -0.1104 -0.1187
19142W        W62158   3.791   7.257   3.623  0.0319  0.1914 -0.0214
19143W        W62159  13.264  14.386  18.334 -0.0186 -0.1586 -0.1828
19144W        W62160  14.814  28.851  29.106  0.1121 -0.0342 -0.0087
19145W        W62161  28.690  12.267  24.309 -0.2615 -0.0563  0.3725
19146W        W62162  23.394  20.771   6.955  0.1427  0.3393  0.2121
19147W        W62163   2.640   0.678   6.597 -0.0179  0.0515 -0.2106
19148W        W62164  30.173  31.408   3.307 -0.3719  0.1362  0.4984
19149W        W62165  26.191  16.595  23.077  0.4112  0.0928  0.1981
19150W        W62166  28.364  17.266  21.050  0.2512  0.1432 -0.2631
19151W        W62167  18.546  34.648   0.986 -0.0335  0.0334 -0.0378
19152W        W62168  33.793   5.107  29.088  0.1619  0.1254 -0.1944
19153W        W62169  25.998  32.535  19.825 -0.3017  0.0819  0.2467
19154W        W62170   4.911  25.545  22.013  0.0906 -0.2983 -0.1236
19155W        W62171   7.994  18.996  22.615 -0.1697  0.0080  0.5400
19156W        W62172  15.034  15.259  12.118 -0.1546 -0.0098  0.0812
19157W        W62173  16.102  33.617   8.132 -0.1293  0.1732 -0.0308
19158W        W62174  17.232   7.852   6.321 -0.2153  0.1526  0.1893
19159W        W62175  31.435  14.498   4.267 -0.1849 -0.1319  0.0055
19160W        W62176  22.915  28.661   6.283  0.3166 -0.3100 -0.0048
19161W        W62177  32.516   2.545  26.255  0.2807 -0.2085  0.0501
19162W        W62178  28.002  14.838   2.927  0.0798  0.2894 -0.0589
19163W        W62179  19.664  31.979   0.746 -0.0309 -0.0462 -0.0377
19164W        W62180  32.958  30.672  24.978 -0.0562  0.2112  0.0099
19165W        W62181  30.969  30.638   2.973  0.1861 -0.0857 -0.1196
19166W        W62182  34.051  28.221   1.897 -0.2739  0.2956 -0.0202
19167W        W62183   5.662  25.093   6.953  0.0913  0.1221 -0.0109
19168W        W62184  22.095  25.462   9.401 -0.2318 -0.0127 -0.0286
19169W        W62185  27.441   0.599   2.238  0.0374  0.0566  0.2456
19170W        W62186  19.916   3.433   9.656 -0.1909  0.1178 -0.1005
19171W        W62187  16.604  31.069   1.214 -0.0250  0.0955  0.1219
19172W        W62188  25.400   5.616  27.602 -0.2445 -0.1616  0.0581
19173W        W62189  34.737  34.153   1.214  0.1076 -0.3167 -0.0154
19174W        W62190   1.846  27.454   2.711 -0.0076  0.0598 -0.0421
19175W        W62191   8.708   4.673  19.780 -0.1036 -0.0982 -0.0593
19176W        W62192  23.983  32.699  26.746  0.1740  0.2250 -0.0571
19177W        W62193  20.328  15.456  23.887 -0.0600 -0.2262  0.0509
19178W        W62194  24.497  31.062   7.199 -0.3068  0.0833 -0.1031
19179W        W62195  28.588  28.739  26.037  0.0027  0.1962  0.2610
19180W        W62196   1.167  15.622   0.646 -0.0592 -0.0294 -0.1052
19181W        W62197  33.635   9.806   0.896  0.0547  0.1998  0.0033
19182W        W62198  19.809  27.221  16.271 -0.0177 -0.0037 -0.1509
19183W        W62199  28.286   1.903   5.864 -0.0770  0.0242 -0.0100
19184W        W62200  30.923  25.728  27.822  0.5042  0.0158  0.2886
19185W        W62201  20.547  11.654  23.958  0.0546  0.0167 -0.0345
19186W        W62202  25.861   9.132   7.122  0.0881 -0.0059  0.3513
19187W        W62203  34.768   2.889   0.961  0.1612 -0.0686 -0.3054
19188W        W62204  18.993  20.320  25.546  0.1779  0.1632 -0.0374
19189W        W62205   8.722   6.578   8.711  0.2591 -0.5263 -0.2082
19190W        W62206   5.860   2.978   8.194  0.1875  0.0145  0.0618
19191W        W62207  28.356  11.792   2.752  0.3140 -0.1391  0.2592
19192W        W62208   9.881  32.261   8.229 -0.2256  0.0833 -0.4341
19193W        W62209  30.500  34.650   2.345  0.3366 -0.0211 -0.0604
19194W        W62210  25.244   0.531   8.478 -0.2979 -0.0352 -0.1918
19195W        W62211  19.004  33.424  20.144  0.0206  0.1500  0.1429
19196W        W62212  23.323  29.844  24.520 -0.0994  0.2409 -0.1154
19197W        W62213  27.441  14.149   8.969  0.0238 -0.1785  0.1196
19198W        W62214  14.527   1.761  24.226  0.1284  0.0864  0.0759
19199W        W62215  17.892   6.499  28.182 -0.1526 -0.4888 -0.0641
19200W        W62216  27.702  25.682   3.575  0.2630  0.0064 -0.0166
19201W        W62217  32.610  31.921   8.932  0.1620 -0.3023  0.0176
19202W        W62218  19.695  10.597   0.872  0.0228 -0.0579 -0.1767
19203W        W62219   8.266   8.479   7.437 -0.0605  0.3549 -0.1808
19204W        W62220  19.765   9.270  27.657  0.2412 -0.0188  0.1010
19205W        W62221  16.293  18.792  16.885 -0.0922 -0.0485 -0.0270
19206W        W62222  28.443  26.427   0.356  0.2516 -0.2479 -0.2346
19207W        W62223  21.861  32.884   9.545  0.1247  0.1679 -0.2240
19208W        W62224  22.272  31.492   4.165 -0.0935  0.1797 -0.3339
19209W        W62225   6.216  32.772   2.894 -0.0403  0.0446  0.0312
19210W        W62226  13.285  32.145   4.591  0.1907  0.1625  0.1800
19211W        W62227  21.498  33.656   5.947  0.3102  0.1873 -0.2122
19212W        W62228  32.867   1.034   9.877 -0.0965 -0.0324 -0.0599
19213W        W62229  16.565  21.315   5.235 -0.3406 -0.3220 -0.1189
19214W        W62230   3.730  29.071   8.007  0.0361 -0.0490  0.0139
19215W        W62231  20.318  10.587  28.270 -0.1514 -0.3126  0.0625
19216W        W62232  22.494  30.643   2.090 -0.0250 -0.0778 -0.0472
19217W        W62233  22.591  11.870   9.785 -0.1282  0.2028  0.1384
19218W        W62234   1.253  21.214   5.024  0.3593  0.0953 -0.0691
19219W        W62235   3.838  24.786  22.317  0.0096  0.0275 -0.1337
19220W        W62236  16.924   9.228  26.661  0.1034 -0.0498  0.0110
19221W        W62237  10.574  34.288   8.959  0.0882  0.1240  0.0026
19222W        W62238  14.251  26.840   5.160  0.0917  0.0235  0.2031
19223W        W62239  30.206   3.066  27.918 -0.0715 -0.1879  0.2500
19224W        W62240   5.095  16.662  26.177  0.4189 -0.1134  0.1649
19225W        W62241  16.188  27.153   1.074  0.1727 -0.2498  0.0018
19226W        W62242  28.864   5.211   2.936 -0.1018  0.0528 -0.2634
19227W        W62243  26.404   8.201   6.683  0.1695 -0.2012 -0.2191
19228W        W62244  22.747  24.399  25.925 -0.2399  0.0641 -0.3223
19229W        W62245  16.900  14.248   2.722  0.0412  0.1531 -0.2355
19230W        W62246  11.597  15.030   5.859 -0.3930  0.2266  0.1104
19231W        W62247  24.540  13.019   3.962 -0.2001  0.2810  0.0964
19232W        W62248  14.414  32.481   5.227 -0.1380  0.1788 -0.1244
19233W        W62249   6.818  13.767   5.360 -0.0245 -0.3334 -0.1891
19234W        W62250  34.076  15.381  29.106 -0.3473  0.1853  0.1676
19235W        W62251  34.161   7.531   4.881 -0.1073  0.1269 -0.0267
19236W        W62252  20.329  23.999   1.776  0.0699  0.1332  0.1891
19237W        W62253  22.808   3.093  23.661  0.1387 -0.0444 -0.2207
19238W        W62254   9.814   3.734   3.192  0.1241  0.2184 -0.2481
19239W        W62255  26.823  32.252   8.261 -0.0204  0.2360 -0.5063
19240W        W62256  23.026  33.044   4.747  0.2891 -0.0796 -0.0360
19241W        W62257  19.461  31.983   7.907 -0.1660  0.0285  0.2942
19242W        W62258  25.121   6.131   4.925  0.0004 -0.1494  0.1046
19243W        W62259  21.979  13.120  25.384 -0.0561 -0.1630  0.1001
19244W        W62260   6.470  28.897  19.846  0.0880  0.0512 -0.2255
19245W        W62261  29.848   9.182   8.905  0.0209  0.0709  0.1587
19246W        W62262  15.414   2.606   6.269  0.0845 -0.1552 -0.3971
19247W        W62263  16.973   5.635  25.438  0.2615 -0.1471  0.1882
19248W        W62264  21.017  12.896  24.293 -0.1302  0.0858  0.0965
19249W        W62265  28.540  16.296  23.957  0.0079  0.0846 -0.1547
19250W        W62266  15.573   6.767   9.141 -0.0413 -0.1878 -0.1832
19251W        W62267  15.255   1.426  29.272 -0.0951 -0.0996  0.2220
19252W        W62268  16.482  10.892   5.247 -0.1475 -0.1256 -0.3265
19253W        W62269  15.881  17.304  24.418  0.3295 -0.1939 -0.2566
19254W        W62270  22.292  32.103   7.137 -0.2073 -0.2553  0.0220
19255W        W62271   4.002  13.732   6.704 -0.1393 -0.1343 -0.1955
19256W        W62272  15.084  14.075  15.459 -0.1490 -0.0314  0.2044
19257W        W62273   1.265  22.123   4.573 -0.2789  0.0634 -0.0390
19258W        W62274  18.687  27.166  24.777  0.0465 -0.0491 -0.0606
19259W        W62275  27.021  33.781   4.644  0.0359 -0.2609  0.4170
19260W        W62276  20.588  17.686  21.653 -0.1440 -0.0691 -0.0224
19261W        W62277  14.915  11.615   6.085  0.0621 -0.0379 -0.1125
19262W        W62278  30.754   5.748   3.503 -0.0571  0.2458  0.1898
19263W        W62279   4.843   8.109  25.007  0.2451  0.0905  0.0325
19264W        W62280  17.392  24.467   9.823 -0.0727  0.0268 -0.2066
19265W        W62281  26.423  13.127   4.737  0.1543 -0.2696 -0.0207
19266W        W62282  21.172  18.876  27.545 -0.0770  0.2288 -0.2658
19267W        W62283  29.907   0.293  23.131  0.0746  0.0653 -0.2423
19268W        W62284   3.647  29.504   0.710 -0.0185 -0.0678 -0.3817
19269W        W62285  18.217   4.871  28.303 -0.1141  0.1649 -0.2110
19270W        W62286  16.456  28.836   2.704 -0.0206 -0.2220  0.0557
19271W        W62287  25.526  11.593   0.724 -0.1388 -0.1832 -0.0176
19272W        W62288  19.364   4.689   1.496 -0.1720  0.1717 -0.0135
19273W        W62289   2.790  27.702   4.995 -0.0353  0.4315 -0.0126
19274W        W62290  29.275   3.930   0.903  0.0936  0.2362 -0.0442
19275W        W62291  24.277  25.870  26.280  0.0631 -0.1304  0.0536
19276W        W62292   5.388   3.263   5.551  0.0168 -0.1591  0.1625
19277W        W62293  18.848  25.669  29.085 -0.0866  0.2507  0.2076
19278W        W62294   9.917  17.726  23.578 -0.1367  0.1754 -0.2661
19279W        W62295   9.964  34.476   1.506 -0.0011 -0.0004  0.1022
19280W        W62296  11.527  32.011   7.672  0.0042  0.0870 -0.4606
19281W        W62297   8.648  33.306  28.906 -0.0620 -0.0012  0.0934
19282W        W62298  22.895  10.468   8.750 -0.0512  0.0002  0.0070
19283W        W62299   7.437   0.332   4.432 -0.1322 -0.0461 -0.0780
19284W        W62300  14.820   5.753  28.894  0.0047 -0.2124  0.2499
19285W        W62301   0.696  22.867   6.651 -0.0382 -0.1592  0.0229
19286W        W62302  31.358  11.377   7.743  0.1481  0.1503  0.1009
19287W        W62303  11.612   4.165  26.664 -0.3197  0.3058  0.3111
19288W        W62304  18.645   0.208  28.500 -0.0385  0.0560  0.1931
19289W        W62305   8.859  20.207  26.955  0.2506  0.0877  0.1107
19290W        W62306   8.880  16.634  20.866  0.1550 -0.4421  0.2184
19291W        W62307   5.205  30.893   0.372 -0.0426 -0.3729 -0.0237
19292W        W62308  19.480   5.927   2.361  0.3999 -0.0364  0.0396
19293W        W62309  16.174  26.084   6.765  0.1159 -0.0197 -0.1336
19294W        W62310  21.604   5.845  28.981  0.1495 -0.2111 -0.2228
19295W        W62311  18.777  16.813  19.954  0.4853 -0.0342  0.1732
19296W        W62312  17.005  24.851  24.695 -0.2715 -0.0723 -0.2886
19297W        W62313   4.008   6.453   3.936 -0.0448 -0.1889 -0.1115
19298W        W62314  34.591  10.998  23.915 -0.1110 -0.3453  0.4315
19299W        W62315  26.080   0.308   2.335  0.3370  0.0743 -0.1282
19300W        W62316  29.061  18.826   1.126  0.0182  0.0622 -0.0796
19301W        W62317  22.089   4.396   5.822 -0.1644 -0.1312 -0.2463
19302W        W62318  10.189   4.368  24.470  0.0871 -0.1256  0.0811
19303W        W62319   0.593   6.539   9.674  0.2507  0.1669  0.1865
19304W        W62320  14.593   4.897  25.833 -0.0512 -0.0096  0.0706
19305W        W62321  21.477  22.815   1.517 -0.1329  0.0618  0.2231
19306W        W62322  31.493  26.346  25.751  0.2744 -0.1939  0.1298
19307W        W62323  30.771  20.675   8.559  0.0662  0.0254 -0.2049
19308W        W62324  34.373  26.493   3.620  0.1431 -0.1189 -0.0926
19309W        W62325  13.599  34.482   2.090 -0.0479 -0.0269 -0.2202
19310W        W62326  28.697  13.216   9.037 -0.0163 -0.0522  0.0663
19311W        W62327  33.967   6.597   1.321 -0.4115 -0.2586  0.0104
19312W        W62328   3.246  25.946  26.744 -0.4094 -0.4084 -0.2831
19313W        W62329  18.411  26.436   4.184 -0.0085 -0.0833 -0.1787
19314W        W62330   7.994  32.601  17.981 -0.3296 -0.1268  0.4001
19315W        W62331  26.116  18.447  27.372 -0.0708  0.0189  0.2330
19316W        W62332  33.698  19.051   6.228  0.0785 -0.0922 -0.2242
19317W        W62333  28.186  12.827   2.739  0.4639 -0.0638 -0.3142
19318W        W62334  25.526   5.644  24.446  0.1414  0.3337 -0.1676
19319W        W62335   3.537  31.810  25.629  0.1796  0.1617  0.0158
19320W        W62336  18.572   9.129   8.401  0.3060  0.3345  0.0194
19321W        W62337  17.920   0.106   9.803  0.0685 -0.0276 -0.5854
19322W        W62338  17.648   7.195   3.560  0.1465 -0.1001  0.2357
19323W        W62339  30.833   8.730  17.422 -0.0531  0.0798 -0.1764
19324W        W62340   7.820   2.402   9.260 -0.0935 -0.0386  0.2889
19325W        W62341  23.999  31.178  25.961  0.0295 -0.0504 -0.1501
19326W        W62342  20.587   6.020   0.850  0.0671 -0.3063  0.1650
19327W        W62343  22.026  15.391  27.818 -0.0203 -0.2478 -0.0892
19328W        W62344  19.195  26.825  23.403  0.2520 -0.2369  0.1286
19329W        W62345  12.456  32.232  29.297 -0.2358 -0.2600  0.1770
19330W        W62346  33.195  33.469   0.082  0.0587 -0.2297 -0.5037
19331W        W62347  18.050  12.922  21.242  0.2254  0.1263 -0.2529
19332W        W62348  15.422  33.063   6.640 -0.3336 -0.1592  0.0353
19333W        W62349   5.869   6.682   4.232  0.1226  0.0847 -0.2392
19334W        W62350  25.433   4.235   1.493 -0.2236  0.3688 -0.1296
19335W        W62351  29.683  26.560  28.129 -0.2068 -0.1284 -0.1089
19336W        W62352  28.428  25.747  22.825 -0.1156 -0.1078 -0.0858
19337W        W62353  13.129  28.203  19.419 -0.2660  0.0674  0.3206
19338W        W62354  20.052   4.079   0.866  0.4606  0.2833  0.1039
19339W        W62355  30.727  27.224   7.056  0.0910 -0.1796  0.0024
19340W        W62356  34.766   5.859   9.267 -0.1351 -0.1611 -0.1053
19341W        W62357  34.448  21.769   0.277  0.3232  0.1142 -0.2607
19342W        W62358  20.007   8.673  25.369 -0.3230 -0.0341 -0.1765
19343W        W62359  23.996   6.075   7.261 -0.1649 -0.0472  0.0311
19344W        W62360  31.294   8.142   0.087 -0.2126  0.2298  0.2278
19345W        W62361  19.924  23.792   7.446 -0.0406  0.0303  0.0167
19346W        W62362  26.446   4.879  29.141 -0.1720  0.2592 -0.3491
19347W        W62363  14.144  17.648  25.814 -0.0846 -0.1403  0.4531
19348W        W62364   4.749   4.119  28.568  0.3454 -0.0625 -0.0964
19349W        W62365  31.309  20.293   1.713  0.0440 -0.3635  0.1161
19350W        W62366  20.509   9.717   5.156  0.0193 -0.3256  0.1774
19351W        W62367   9.699   1.027  18.464  0.1942 -0.1678  0.3287
19352W        W62368  28.940  17.126  26.323  0.2475  0.1490 -0.0969
19353W        W62369  20.042   5.978  23.945  0.1824  0.1394 -0.0176
19354W        W62370  18.163   1.578  28.306 -0.0408  0.0015  0.0531
19355W        W62371  29.552  12.511   8.149 -0.0356  0.2025 -0.1075
19356W        W62372  24.577  12.541   1.958  0.1565  0.1519  0.0938
19357W        W62373  18.734   1.108   1.400 -0.0856 -0.2058 -0.0074
19358W        W62374  33.890  17.042   8.959 -0.3122  0.1381 -0.0206
19359W        W62375   3.661  27.946  29.057  0.0663 -0.0819  0.1368
19360W        W62376   9.572   9.989   1.410 -0.1165 -0.0989  0.2507
19361W        W62377   7.100   0.203   2.159 -0.0314  0.3071  0.0136
19362W        W62378  20.981   6.479   9.104 -0.2147 -0.1730  0.1051
19363W        W62379  26.465  28.249  19.065  0.2423  0.0878 -0.0879
19364W        W62380  29.159  26.815  22.285 -0.1182 -0.1465  0.1221
19365W        W62381  11.911  34.537  15.506  0.2261 -0.0014  0.0645
19366W        W62382  26.579   1.440   2.568  0.0842 -0.0161 -0.3245
19367W        W62383  32.237   7.448   3.493  0.0350  0.0728  0.0652
19368W        W62384  34.689  31.526   3.155 -0.3356 -0.0014 -0.2577
19369W        W62385  17.332  17.445   4.820 -0.3299 -0.3263  0.0201
19370W        W62386   8.083   3.382   7.178  0.0690  0.0947  0.2113
19371W        W62387  27.211  28.979   9.172 -0.0958 -0.0729  0.0619
19372W        W62388  17.190  26.263  19.228  0.0624 -0.1688 -0.0183
19373W        W62389  23.778  24.675   5.509 -0.1187 -0.1631 -0.2463
19374W        W62390  31.369   4.726   6.827  0.0880  0.3413  0.1101
19375W        W62391  20.165  33.522   9.423  0.1483 -0.1064  0.2940
19376W        W62392  22.057  15.154  16.319 -0.0473 -0.0672  0.2100
19377W        W62393  26.181   3.220   3.971 -0.1873  0.1837 -0.2146
19378W        W62394  16.603   0.311   7.235 -0.0230 -0.0885 -0.0481
19379W        W62395  27.431   4.986  17.945 -0.0428  0.2861  0.0074
19380W        W62396  22.395  31.616   2.279  0.4026  0.1355 -0.0373
19381W        W62397  26.526  34.746  18.562  0.2633  0.1264  0.0883
19382W        W62398   6.299  33.002   5.808  0.1078  0.0468  0.0045
19383W        W62399  16.298  11.207   3.495 -0.4379 -0.0520 -0.1942
19384W        W62400   5.426  22.412   7.302  0.0726 -0.0660 -0.0017
19385W        W62401  16.917   2.967   3.914 -0.0120 -0.1270 -0.0020
19386W        W62402  13.607   3.396   8.086  0.1427 -0.1018  0.0234
19387W        W62403  23.385  22.945   6.089 -0.1063 -0.2641  0.2032
19388W        W62404   5.550  25.250   9.004 -0.1780 -0.2155  0.2834
19389W        W62405  20.933  12.502  25.337 -0.1379  0.1572 -0.2311
19390W        W62406   2.359  11.194   0.249  0.1248  0.2386 -0.2010
19391W        W62407  27.273  14.430   9.342  0.3900 -0.0627  0.2167
19392W        W62408   0.550  12.544   4.490  0.1895  0.0401  0.0133
19393W        W62409  20.123  32.686   9.241  0.1418 -0.0311  0.0993
19394W        W62410   0.356  26.759   2.057 -0.0911  0.4159 -0.1275
19395W        W62411  14.733   6.793   6.361 -0.1445  0.0779  0.0480
19396W        W62412   4.943  20.265  28.476  0.0991 -0.0839  0.1345
19397W        W62413  17.044   4.684  23.308  0.1984  0.3690 -0.5572
19398W        W62414   5.004  10.300  23.921  0.1139 -0.1447 -0.0642
19399W        W62415  21.833  16.782  20.255  0.3519  0.3641 -0.0467
19400W        W62416  28.562  18.692   7.570 -0.3076 -0.1023 -0.0714
19401W        W62417  23.203  29.335   4.432  0.1889  0.1290  0.1210
19402W        W62418   5.180  23.431  15.331  0.0774 -0.0040  0.0389
19403W        W62419  29.244  17.599   1.754  0.3364 -0.1140  0.1453
19404W        W62420  11.056   2.675   1.269 -0.0835 -0.1257 -0.0651
19405W        W62421  26.944  28.410   7.313  0.1884 -0.0774 -0.1256
19406W        W62422  18.747  22.485   3.452  0.0754  0.0777  0.1297
19407W        W62423  13.113  27.947  23.703 -0.0228  0.0199  0.0317
19408W        W62424   0.268   4.755   2.378 -0.1766 -0.0411 -0.2726
19409W        W62425  32.884  32.513  25.676 -0.1729  0.1344  0.1485
19410W        W62426  31.163  10.472  10.224  0.0766 -0.0121 -0.3346
19411W        W62427  24.921  18.756   5.355  0.1743  0.0513  0.1135
19412W        W62428  21.981  31.489   2.849 -0.0608 -0.1969 -0.0346
19413W        W62429  29.941  20.533   2.042  0.0464  0.1869 -0.4208
19414W        W62430  27.196  30.722   0.531 -0.2249 -0.2499  0.0386
19415W        W62431  29.422  12.085   4.648  0.0408  0.1474 -0.2689
19416W        W62432  19.717   2.666  23.380  0.0909  0.0433  0.0193
19417W        W62433  34.239  23.799  29.140 -0.0169  0.0846  0.0852
19418W        W62434  16.728  25.512  25.787  0.0362 -0.1521  0.0803
19419W        W62435  19.518  10.419   6.565  0.0923  0.0769  0.1039
19420W        W62436  27.557  26.664  26.285 -0.1416  0.0276 -0.0945
19421W        W62437   0.935  33.608  28.046  0.3481 -0.0145  0.2633
19422W        W62438  27.554   8.930  10.009  0.1533  0.0495  0.0721
19423W        W62439   2.141  26.875  18.668  0.0279  0.1803 -0.3527
19424W        W62440   6.016   4.098   3.919 -0.2210  0.0086  0.0077
19425W        W62441   2.691  18.800  29.275  0.0354 -0.0500 -0.0331
19426W        W62442  10.923  10.185   4.624 -0.1115  0.1543  0.1619
19427W        W62443  28.747   7.220  28.727  0.3290 -0.1033 -0.1250
19428W        W62444  26.075  16.842  20.595 -0.1595  0.1964 -0.1107
19429W        W62445   3.778   5.798  25.047  0.0272  0.1304 -0.1283
19430W        W62446  30.137  13.350   5.561 -0.0528  0.2291 -0.1266
19431W        W62447  23.348   3.319  18.024 -0.0369  0.2220  0.2979
19432W        W62448  13.490  31.671   9.085  0.2115  0.3910  0.3399
19433W        W62449  28.014  23.147  24.569  0.1172 -0.2514 -0.0173
19434W        W62450  11.834   0.931   1.739  0.0259 -0.0768 -0.0096
19435W        W62451  15.266  31.484   2.527  0.0456 -0.2568 -0.0010
19436W        W62452  32.808  21.517  27.744 -0.0254  0.2441  0.1943
19437W        W62453  18.950  19.357   6.763 -0.2733 -0.0887  0.0084
19438W        W62454   4.180   3.559   0.332 -0.2201  0.1021  0.1376
19439W        W62455  16.439   1.430   4.644  0.0945 -0.0302 -0.0662
19440W        W62456  15.663  11.907  25.250 -0.1308  0.3137  0.3204
19441W        W62457  33.394  15.689  26.111  0.1266 -0.1464  0.0602
19442W        W62458  22.988  11.209   2.021  0.1108 -0.0106  0.0464
19443W        W62459   7.889  12.584   7.418  0.0976  0.3101 -0.0512
19444W        W62460  17.911  16.472   4.132  0.0456  0.0113  0.1663
19445W        W62461  30.048  11.693  29.115 -0.1200  0.0544 -0.3673
19446W        W62462  32.847   2.446   1.805  0.2929  0.2492 -0.3508
19447W        W62463  27.986   7.044  11.872 -0.3935 -0.0359  0.3394
19448W        W62464  32.386  32.343  25.541  0.4049  0.2636 -0.0092
19449W        W62465  14.944  19.120   5.539 -0.0246 -0.1154 -0.0072
19450W        W62466  22.564  27.643  24.884 -0.0374  0.0458 -0.1605
19451W        W62467  22.145  18.140  14.689 -0.1045  0.1218  0.2212
19452W        W62468  13.171   0.583   0.845  0.1231 -0.2615  0.0708
19453W        W62469  23.383   4.672  21.067 -0.5469  0.1817  0.4250
19454W        W62470  22.854  16.424  26.552 -0.4412 -0.3130 -0.3278
19455W        W62471  10.525  25.511  28.431  0.0592 -0.0388 -0.3528
19456W        W62472  17.440  14.509  23.269 -0.0559 -0.1289  0.2686
19457W        W62473  24.583   0.029  10.520  0.0618  0.3793  0.2908
19458W        W62474  24.879  19.077   6.869  0.3880 -0.5814 -0.4051
19459W        W62475  32.019  23.535   1.544 -0.0707  0.0578  0.0157
19460W        W62476  22.402   8.832  22.786 -0.0024 -0.0513 -0.1209
19461W        W62477  29.599  30.361  28.725  0.0881  0.1723  0.0064
19462W        W62478  31.961   6.855  20.855  0.0563  0.2705  0.1216
19463W        W62479  27.094  27.312  22.942  0.1792 -0.1754  0.1302
19464W        W62480  23.465   0.945   9.686 -0.2659  0.3327  0.2169
19465W        W62481   5.359  25.670   8.876 -0.1898  0.0700  0.2203
19466W        W62482  30.161   4.990  15.467 -0.0431 -0.1252 -0.0414
19467W        W62483  30.577  15.422  20.349  0.0863 -0.1969 -0.3093
19468W        W62484  22.276  22.260   0.394  0.1973 -0.2955 -0.1763
19469W        W62485  21.485   3.559  25.276 -0.1194  0.0592 -0.0856
19470W        W62486  33.124  15.748  25.331 -0.3554 -0.3528 -0.2780
19471W        W62487   0.472  33.796   8.376 -0.2240  0.1375  0.1190
19472W        W62488  18.042   3.507   4.860 -0.1418  0.1023  0.0124
19473W        W62489  14.931  10.235  21.893 -0.0300  0.2398  0.0112
19474W        W62490  12.614  34.363   5.207 -0.0451  0.1510  0.0453
19475W        W62491  14.451   9.328   1.246 -0.0293 -0.0134  0.1941
19476W        W62492  33.493   4.063   2.794 -0.2857  0.0288  0.0175
19477W        W62493  33.299  32.151  26.854  0.1238 -0.2347  0.2194
19478W        W62494  20.078  30.830   4.966 -0.2072  0.0507 -0.0111
19479W        W62495  29.189   2.958   8.251 -0.1287 -0.2365 -0.2027
19480W        W62496  20.442   1.774  28.192 -0.2851  0.2295  0.2055
19481W        W62497  22.466   4.273   7.621  0.0445  0.1868  0.0144
19482W        W62498  27.919  22.765  15.101 -0.2385 -0.1120  0.3771
19483W        W62499  23.149  31.158  27.118  0.1269 -0.1015 -0.0435
19484W        W62500  32.187  29.640   8.328 -0.1455  0.2338 -0.1233
19485W        W62501  31.570  31.828   9.632  0.0263  0.0921  0.1091
19486W        W62502   5.754  17.743   7.273 -0.1218  0.0854  0.0096
19487W        W62503  24.999   4.107   1.297 -0.3172 -0.3933 -0.0104
19488W        W62504  22.557   9.359   9.701  0.0553  0.2420  0.2058
19489W        W62505  28.811  20.641   3.658  0.0571  0.0593 -0.1266
19490W        W62506   0.084  17.967  15.790 -0.0032 -0.0389  0.3193
19491W        W62507  23.780   4.624  10.141 -0.0899 -0.1070 -0.1707
19492W        W62508  22.657   3.645   3.830 -0.0470 -0.0413 -0.0760
19493W        W62509  17.352  31.687   5.383  0.1679 -0.2742 -0.1559
19494W        W62510  17.668   4.318  27.655 -0.3832 -0.0971 -0.0334
19495W        W62511   4.030  17.452  25.935 -0.0617  0.1155  0.0240
19496W        W62512  15.695  28.123   8.485 -0.1042  0.2027 -0.1371
19497W        W62513   2.379   0.351  28.136  0.1268  0.1709 -0.4071
19498W        W62514  21.429   0.043   3.720 -0.0477 -0.2187  0.0358
19499W        W62515  30.005  14.481  23.585  0.4118  0.1269 -0.0526
19500W        W62516  19.748  33.763   7.776  0.1393 -0.4379  0.1912
19501W        W62517  13.723  25.689   2.621 -0.1604  0.0751  0.0742
19502W        W62518  28.717   4.166   6.232  0.0822  0.1645 -0.0924
19503W        W62519  28.411   1.305   4.377  0.1295 -0.1679  0.1469
19504W        W62520  20.887  18.936   8.004  0.1204 -0.1179 -0.4293
19505W        W62521   1.819  10.214   3.211 -0.2240 -0.2131 -0.0414
19506W        W62522  19.684   3.569   3.113 -0.1242 -0.0789 -0.1495
19507W        W62523  23.397   4.106  26.166  0.1651 -0.0934  0.1690
19508W        W62524  30.545  28.658  26.528 -0.1187 -0.3534  0.2238
19509W        W62525  30.456  19.271   1.978 -0.4200  0.0992  0.1384
19510W        W62526  18.688  11.963   8.133 -0.1970  0.0689  0.2284
19511W        W62527   2.330  31.181  24.830  0.4848 -0.0363 -0.0454
19512W        W62528  28.013  22.994   4.301 -0.3042  0.0424  0.3639
19513W        W62529  23.754  19.920   1.082  0.1888 -0.3486  0.3607
19514W        W62530  22.347   3.427  24.502 -0.2697  0.1186  0.5706
19515W        W62531  23.154  24.080  25.064 -0.0707  0.0250  0.4295
19516W        W62532  21.940  26.645   5.985 -0.1739 -0.0599 -0.1782
19517W        W62533  34.604   5.822   3.563  0.3267  0.0212  0.0153
19518W        W62534   5.838  19.998   6.355  0.3818 -0.0699 -0.2473
19519W        W62535  17.995   1.507   6.955  0.1512  0.2552 -0.1805
19520W        W62536  29.180  12.778  28.636 -0.2034  0.2264 -0.1984
19521W        W62537  29.709  23.198  17.621 -0.0218 -0.0888  0.0498
19522W        W62538  15.530  13.340  21.998  0.2304  0.2938 -0.1271
19523W        W62539  27.854  33.301   7.093  0.0526 -0.0844 -0.2249
19524W        W62540  15.030  27.574  28.520 -0.1252 -0.0986 -0.1137
19525W        W62541   9.842  33.340   6.286 -0.1153  0.2364 -0.0212
19526W        W62542  18.656  10.972   8.523  0.0440  0.2254  0.1650
19527W        W62543   0.350  33.922   2.702  0.0908 -0.1873  0.1152
19528W        W62544  34.399  21.292   9.610  0.1872 -0.3165 -0.4273
19529W        W62545  21.123   9.694   8.857  0.3006  0.1128  0.1362
19530W        W62546  28.988   2.235   8.978  0.1432  0.0608 -0.0055
19531W        W62547   0.211  20.365   5.472  0.0510  0.1077  0.1928
19532W        W62548  20.708   1.016   9.803  0.0012  0.0340  0.3776
19533W        W62549  31.165  29.943   5.928 -0.0262 -0.0270  0.1902
19534W        W62550   4.069   9.661   2.969 -0.0209  0.1699  0.0659
19535W        W62551  29.411  26.176   3.060  0.1533 -0.1511 -0.1025
19536W        W62552   5.054   2.827   8.564  0.1840  0.1152  0.2890
19537W        W62553  25.446  32.955   5.457  0.0757  0.0592 -0.1859
19538W        W62554  33.139  31.784  11.506  0.0256 -0.1747  0.0592
19539W        W62555  26.825   2.132   2.974  0.1822 -0.0296  0.0068
19540W        W62556  21.794   6.656   9.317 -0.0558  0.2184 -0.0202
19541W        W62557  15.352  32.172  25.270 -0.2145 -0.0503  0.1765
19542W        W62558  18.758   0.894   3.313 -0.1095  0.2847 -0.0792
19543W        W62559  17.473   7.455   8.314  0.0626  0.0720  0.1870
19544W        W62560   9.308   7.262   3.309 -0.0508 -0.0202  0.1951
19545W        W62561  17.146  30.422   6.282  0.2008  0.2158 -0.2985
19546W        W62562  34.335   7.948   5.026 -0.3647  0.0852  0.1484
19547W        W62563  21.016   1.780   4.629 -0.1334  0.0947 -0.0520
19548W        W62564  32.238   4.730  21.285  0.3748 -0.0435 -0.2306
19549W        W62565  33.187  13.688  21.418 -0.4871  0.2286  0.3324
19550W        W62566  24.307   0.030   2.753  0.1317  0.0468  0.3704
19551W        W62567  29.976   8.377   9.496 -0.2957 -0.0527  0.1101
19552W        W62568  31.209  32.933  29.226 -0.1167  0.2304 -0.0537
19553W        W62569  11.890  11.884  21.963  0.2123 -0.0308 -0.2243
19554W        W62570  17.288  20.363   4.239 -0.0048 -0.2354 -0.0807
19555W        W62571   8.500   4.147   1.479 -0.1094  0.1968  0.0774
19556W        W62572  28.295   3.227   4.273 -0.0425  0.2319 -0.1032
19557W        W62573  27.275   5.472  27.128  0.2692 -0.2998  0.0879
19558W        W62574  19.714   1.528   7.245  0.1442  0.0828 -0.0545
19559W        W62575  20.507  30.874   0.269  0.0793  0.3103  0.0668
19560W        W62576   4.712  29.678  24.598  0.3476 -0.1061  0.0549
19561W        W62577  23.401   9.936   8.958 -0.0867  0.0692  0.2076
19562W        W62578  32.130  23.211   4.337 -0.1076 -0.0242  0.0153
19563W        W62579  28.944  27.969  22.112  0.2352  0.0811  0.0216
19564W        W62580   3.473  12.961   0.269 -0.2727  0.0995  0.0738
19565W        W62581  21.578  26.177   7.048  0.0268 -0.0616 -0.0137
19566W        W62582  13.548  25.955   3.023 -0.0083 -0.1234  0.0946
19567W        W62583  20.929  34.659   0.080 -0.2600  0.0603  0.4393
19568W        W62584  24.156  33.086   1.352 -0.1286 -0.2229 -0.0229
19569W        W62585  24.170  16.695  14.045  0.0566 -0.2241  0.1120
19570W        W62586  31.068   6.738   6.161 -0.0322 -0.0450 -0.1372
19571W        W62587   9.727   9.049   3.537 -0.1469  0.1915 -0.1350
19572W        W62588  27.570  13.591   9.391 -0.2097  0.0388  0.2266
19573W        W62589  31.672  31.937   9.002 -0.1363  0.2056  0.0539
19574W        W62590  22.516  31.238   3.792  0.1742 -0.0273 -0.1623
19575W        W62591  25.558  30.650   0.272  0.0665  0.3984 -0.1798
19576W        W62592   1.266   5.241  19.969  0.1812 -0.1221 -0.1828
19577W        W62593  20.636  29.266  28.582 -0.1702 -0.3067 -0.2666
19578W        W62594  13.732  33.288   0.888 -0.0104 -0.2303  0.1045
19579W        W62595   0.735   2.323   1.348  0.0963 -0.2397 -0.0702
19580W        W62596  31.321   3.806   9.397 -0.2377  0.1960  0.1002
19581W        W62597  25.865  11.900   7.900 -0.2360  0.4755 -0.2912
19582W        W62598  32.030   3.808  26.850 -0.0335  0.1370 -0.2847
19583W        W62599  17.199  33.966   6.034  0.1917 -0.1803 -0.2380
19584W        W62600  20.866  29.748   2.549 -0.1812  0.2694  0.3524
19585W        W62601  25.559  28.576   7.059  0.0490 -0.5312 -0.0592
19586W        W62602   2.657   6.021   9.000 -0.3282  0.1848 -0.1699
19587W        W62603  33.579   3.658  17.181  0.0795  0.2561  0.2981
19588W        W62604  18.850   6.851   6.903  0.0347 -0.0198  0.2496
19589W        W62605  11.668  27.341  23.340 -0.0519  0.1995  0.2633
19590W        W62606  27.747  13.499   7.239  0.0489 -0.2473  0.0811
19591W        W62607  26.407   0.730   7.841 -0.0437 -0.1462  0.1033
19592W        W62608  26.581   0.729   8.373  0.0179 -0.1790 -0.0454
19593W        W62609  15.556   2.556   3.647  0.1007 -0.0371  0.1428
19594W        W62610   1.068   4.348   8.255 -0.1519 -0.1935 -0.1326
19595W        W62611  20.833  26.369   6.790  0.0539  0.1200 -0.4221
19596W        W62612  17.423  23.630   7.114  0.0843 -0.2212  0.1285
19597W        W62613  14.724  32.782  10.498 -0.0592 -0.2002  0.4315
19598W        W62614   6.290  15.033   0.612 -0.3034 -0.0092 -0.2394
19599W        W62615  17.618  13.631  23.795 -0.0567 -0.1902  0.1991
19600W        W62616  27.412   6.543   4.002 -0.0978 -0.1203  0.0599
19601W        W62617  33.859  27.764   5.901  0.2793  0.1532  0.0835
19602W        W62618  15.452  22.022  15.971 -0.2015 -0.0681  0.1246
19603W        W62619  12.154  15.183   7.345  0.0948  0.0692 -0.1398
19604W        W62620  19.277  13.918   5.290  0.0434 -0.2367  0.0235
19605W        W62621  15.240  33.906   8.547  0.1252  0.2139 -0.2127
19606W        W62622  28.199  18.590  25.859 -0.0675  0.2520  0.2159
19607W        W62623   6.906  24.106   4.610  0.2487 -0.0986  0.2196
19608W        W62624  20.510   1.849   6.871 -0.0078 -0.2465  0.2486
19609W        W62625  29.391   1.552   7.897 -0.0734  0.0198 -0.1251
19610W        W62626  19.071  12.456  19.177  0.1300  0.4193  0.0195
19611W        W62627  11.462  32.069  22.705 -0.1486  0.0831  0.2542
19612W        W62628  21.460  18.652  24.215 -0.1140  0.0663 -0.4055
19613W        W62629  20.803  25.251  21.355  0.0895  0.0916  0.2497
19614W        W62630  26.362  31.478   0.533  0.1234 -0.3746  0.1278
19615W        W62631  13.880   8.495   1.069  0.1060 -0.0591  0.3212
19616W        W62632  17.264  31.375   0.036  0.0785  0.2484 -0.0297
19617W        W62633   4.373  22.285  14.497 -0.2535  0.4502 -0.0512
19618W        W62634  31.910  14.321  29.061 -0.0976  0.0113  0.2018
19619W        W62635   5.313  16.528   4.105 -0.3494 -0.1971  0.4829
19620W        W62636  17.263   3.679   0.281  0.2922  0.3040 -0.1810
19621W        W62637  25.835  32.413   4.196 -0.1982 -0.1627  0.1327
19622W        W62638  26.019  31.911   0.368 -0.0692  0.1069 -0.0470
19623W        W62639  21.223  12.865   6.680  0.1639 -0.0644 -0.0301
19624W        W62640  15.787   2.847   2.514  0.1443  0.0489 -0.1272
19625W        W62641  29.363  23.979   6.048 -0.0770  0.1261 -0.1745
19626W        W62642  20.273  25.564  23.661 -0.2673 -0.4748 -0.0062
19627W        W62643  13.217  28.625  20.775  0.0699 -0.0718  0.2149
19628W        W62644  24.377  29.472   2.238 -0.1272 -0.1888  0.2110
19629W        W62645   5.482  12.388   2.511 -0.1591 -0.4133  0.2893
19630W        W62646  11.602   2.676   5.921 -0.2215 -0.0873  0.2150
19631W        W62647  21.934  10.877   6.219 -0.0109  0.0961  0.3518
19632W        W62648   6.233   1.299   6.823  0.1958 -0.0366 -0.1917
19633W        W62649  16.268   8.871   4.168 -0.1379  0.2945 -0.0556
19634W        W62650  33.172  18.086  15.394 -0.1709 -0.1990 -0.3254
19635W        W62651  19.255   9.920   4.324  0.0436  0.1957  0.0521
19636W        W62652  19.187  27.363   9.306  0.2525  0.1285  0.0224
19637W        W62653  17.593  17.377   6.428  0.0345  0.0446  0.0223
19638W        W62654   7.110   5.521   8.465  0.1284  0.2038 -0.0311
19639W        W62655  19.122  25.050  15.819 -0.2397 -0.1165  0.2065
19640W        W62656  28.098  26.637   3.342  0.2414  0.1353 -0.0514
19641W        W62657  25.857   9.437  27.308 -0.0435 -0.1527 -0.1987
19642W        W62658  20.519  34.094   7.908 -0.0558  0.1028  0.0948
19643W        W62659  25.017  16.956  23.770 -0.0250  0.3342 -0.0510
19644W        W62660  14.973  13.083   7.604 -0.0351  0.0704 -0.0845
19645W        W62661  34.676  30.685  25.622 -0.1768 -0.3569 -0.0644
19646W        W62662  14.720  33.372   7.674 -0.0856  0.1464  0.0189
19647W        W62663   1.723  25.582   7.239  0.0107 -0.1255  0.1860
19648W        W62664  12.634   7.148   9.083  0.1852  0.1144 -0.2472
19649W        W62665  26.021  30.634  26.942 -0.1248  0.1283 -0.1017
19650W        W62666  33.865  19.815  28.756 -0.0124 -0.2910 -0.2431
19651W        W62667  17.535   7.633   0.134  0.0457  0.1031 -0.1137
19652W        W62668  31.589  34.713   7.115 -0.4055 -0.0357 -0.0575
19653W        W62669  16.085  32.824   3.684  0.0640 -0.2663  0.3278
19654W        W62670   0.728  33.529  25.252  0.0531 -0.2423  0.1358
19655W        W62671  19.577  34.129   6.998 -0.0890  0.0141 -0.0436
19656W        W62672   2.379   0.194   6.435  0.2746 -0.1177  0.2996
19657W        W62673   1.307  10.110   9.142 -0.0192  0.0041 -0.1158
19658W        W62674   0.060  12.621   8.540  0.2002  0.1736 -0.3899
19659W        W62675  22.873  31.501  28.778  0.3014  0.0577  0.2531
19660W        W62676  20.911   5.317   5.933 -0.2125 -0.1548 -0.3714
19661W        W62677  24.530  32.540   0.871 -0.1059 -0.0265  0.0156
19662W        W62678  13.564  31.939  18.718 -0.0494 -0.3918  0.1621
19663W        W62679  30.246  31.576   5.032 -0.0510 -0.1628  0.0554
19664W        W62680  17.578   2.957  26.993 -0.0740 -0.2960  0.0569
19665W        W62681  30.692   7.015  10.110 -0.1120 -0.1627  0.1485
19666W        W62682  20.694  32.660  29.092 -0.2231 -0.0598 -0.0408
19667W        W62683  21.482   9.948  24.386 -0.1797  0.0594 -0.1040
19668W        W62684   1.729  31.168   8.591 -0.2984 -0.0855  0.0130
19669W        W62685  17.483   9.506   4.365 -0.0005 -0.0209  0.0810
19670W        W62686  14.853  32.353   2.618 -0.0335 -0.2839  0.1116
19671W        W62687  32.608   7.366   8.571 -0.2238 -0.1595 -0.1273
19672W        W62688  17.750  34.347   0.124 -0.0121  0.3112 -0.1856
19673W        W62689  23.474  10.555  24.598  0.1764  0.0764  0.1548
19674W        W62690   1.180   9.375  27.718  0.3169  0.1242  0.0895
19675W        W62691  17.884  20.333  23.324  0.0935  0.1851 -0.2620
19676W        W62692  13.376  10.473   6.290 -0.3773  0.3074  0.1358
19677W        W62693  21.952  28.920   7.257  0.0706  0.2331 -0.4023
19678W        W62694  29.429   6.981   7.620 -0.2850 -0.1569 -0.1331
19679W        W62695  10.152  34.053  27.359 -0.2047  0.2639  0.1077
19680W        W62696   6.541   0.075   6.053  0.0689 -0.1335  0.2349
19681W        W62697  33.604  18.914  16.826 -0.2383 -0.0147 -0.0040
19682W        W62698  17.484  30.962   4.770  0.2746  0.0257  0.2239
19683W        W62699   4.608   1.263   3.180 -0.1163 -0.1627 -0.1571
19684W        W62700  21.239  19.789   5.898 -0.1075  0.0925  0.1014
19685W        W62701  19.014  32.076   0.265  0.1459  0.2779 -0.0162
19686W        W62702  30.660  32.042   9.111  0.3638  0.1297 -0.1484
19687W        W62703   9.717   5.603   8.234 -0.2202  0.1544  0.0093
19688W        W62704  21.970  29.797   1.549  0.0751  0.2506  0.0238
19689W        W62705   3.165   7.716   7.147 -0.1087  0.0078  0.0599
19690W        W62706   2.582  11.144  27.690 -0.1671  0.1793 -0.2057
19691W        W62707  30.072   3.437   0.322 -0.0274  0.1077  0.0565
19692W        W62708  34.399  10.862   5.230  0.0602 -0.2425 -0.0539
19693W        W62709   4.006  30.226   8.684  0.1779 -0.0221  0.0261
19694W        W62710  22.844   1.177   6.632  0.1625 -0.1097  0.1137
19695W        W62711  24.844  17.598   7.434 -0.0638  0.0184  0.0281
19696W        W62712  26.563  34.637   9.341 -0.1038 -0.0917 -0.0162
19697W        W62713  20.264  19.794   1.866  0.2763  0.1854 -0.0452
19698W        W62714  19.059  33.906   4.654  0.1464 -0.3176 -0.1975
19699W        W62715  15.069  13.452  28.802  0.2669  0.0759 -0.4580
19700W        W62716  14.719  11.783  29.149 -0.1760 -0.0109  0.0006
19701W        W62717  26.141  34.167   5.201 -0.2192 -0.4661 -0.2115
19702W        W62718  25.725  17.574   6.673 -0.3757  0.1697  0.1633
19703W        W62719  25.932  13.554   3.752 -0.1332  0.4860  0.0036
19704W        W62720   3.002   6.419   5.140 -0.1029 -0.0122 -0.2780
19705W        W62721  13.705  30.183   5.094 -0.4663 -0.1016 -0.0466
19706W        W62722  22.552   2.446  11.202 -0.0136  0.2286  0.0110
19707W        W62723  22.536   1.267  28.618  0.0908  0.3261  0.0578
19708W        W62724  32.662  24.230  21.633 -0.1066 -0.0508 -0.1118
19709W        W62725  22.662  33.475   3.806 -0.1131 -0.0786  0.2013
19710W        W62726  25.809  13.044  26.175  0.0011  0.1980 -0.0725
19711W        W62727  27.645   5.955   5.499  0.2107  0.0021  0.0349
19712W        W62728  15.361   3.124  27.854 -0.5296 -0.1067 -0.0982
19713W        W62729   0.634  21.601   5.923 -0.0190 -0.0362  0.2278
19714W        W62730   1.281   3.013   4.968  0.0214 -0.0516  0.2462
19715W        W62731   8.584   6.521  19.927  0.0395  0.0320  0.3153
19716W        W62732  22.849  30.494  11.384  0.1104  0.1678  0.1037
19717W        W62733  14.711  15.100   2.419 -0.2066 -0.2019 -0.1348
19718W        W62734  23.429   7.458   6.122 -0.0442  0.3349 -0.2188
19719W        W62735  24.264   2.258  17.447  0.1720  0.0590  0.1415
19720W        W62736  24.824   1.036   3.532  0.0201  0.0139 -0.3804
19721W        W62737   1.286  20.973   7.922  0.2726  0.2928 -0.0030
19722W        W62738  14.545  19.764   0.687  0.1154 -0.1911 -0.2214
19723W        W62739   1.953  11.926   7.398  0.1943  0.0504 -0.0028
19724W        W62740  27.629   9.167   4.064 -0.2857  0.0627  0.1842
19725W        W62741   9.020   9.461  14.371  0.0071  0.1101 -0.2296
19726W        W62742   5.622   6.995   7.134  0.1090 -0.0810 -0.0502
19727W        W62743   4.414  11.075  10.443  0.0774 -0.3140 -0.0227
19728W        W62744  25.575  16.301  24.204  0.0402  0.0596  0.1803
19729W        W62745  29.703  13.823   4.984 -0.1523 -0.0467 -0.0228
19730W        W62746  26.517   1.622  28.657 -0.0849  0.0571 -0.0123
19731W        W62747  17.741  28.405   3.408  0.0637  0.0995 -0.0075
19732W        W62748  34.168  33.905  25.331 -0.0395  0.2332 -0.1404
19733W        W62749  26.626  31.643   7.526 -0.1805  0.1287 -0.0528
19734W        W62750   0.189  23.825  27.990  0.3659 -0.2422 -0.1305
19735W        W62751   3.542  34.266   4.106  0.1518 -0.0428 -0.0920
19736W        W62752  18.848  34.515   8.112  0.1063  0.1366 -0.0399
19737W        W62753  25.003   3.733   3.411  0.0692 -0.0610 -0.0321
19738W        W62754   3.772   1.615  25.353 -0.5788 -0.2524  0.0619
19739W        W62755   3.985   2.730  10.318 -0.0546 -0.3062 -0.2177
19740W        W62756   1.011  34.306   1.242  0.0894 -0.0862  0.0340
19741W        W62757   8.220  10.471   8.978 -0.0025  0.0249 -0.1405
19742W        W62758  25.081  32.303   6.814  0.1005 -0.0719 -0.1709
19743W        W62759  10.962  26.149   7.510 -0.0788 -0.0384 -0.1455
19744W        W62760  24.400  24.542  22.227 -0.0323  0.2821 -0.2097
19745W        W62761   0.117   8.631  10.107  0.1194 -0.2194  0.2325
19746W        W62762  14.869   9.121   0.425  0.1412 -0.1166 -0.1251
19747W        W62763  34.515  33.044  28.761  0.0686 -0.5668  0.0890
19748W        W62764  29.601  24.923   0.286  0.0235 -0.2523 -0.0444
19749W        W62765   8.107   6.373   1.149 -0.3465  0.1667 -0.2447
19750W        W62766  24.596  11.565   4.484  0.3107 -0.3561 -0.3424
19751W        W62767  31.172  27.305   7.423  0.1323 -0.2592  0.2959
19752W        W62768  22.346  31.287   2.651 -0.1632 -0.0780  0.0413
19753W        W62769  18.533   8.794   3.308 -0.0333 -0.1658  0.1348
19754W        W62770  25.510   2.485   7.452  0.0561 -0.4109  0.0842
19755W        W62771  25.276  30.532   9.701  0.3045 -0.0131  0.1045
19756W        W62772  28.117  11.507  26.541  0.0513  0.2524  0.1461
19757W        W62773  20.907  22.831  16.423  0.0767  0.2074  0.0547
19758W        W62774  28.587   5.293   1.086 -0.4308  0.0882 -0.3123
19759W        W62775  18.881   3.033  28.017 -0.2106  0.0825  0.1157
19760W        W62776  26.694  28.343  18.622  0.1427 -0.2078 -0.1294
19761W        W62777   2.400  12.944   3.658  0.1562  0.0237  0.0610
19762W        W62778  22.478   7.025  24.396  0.1951  0.0366  0.0259
19763W        W62779  31.190  17.174  29.028  0.3615  0.0446  0.1572
19764W        W62780  22.928  23.023  26.115 -0.1048 -0.1778  0.2327
19765W        W62781   0.752  22.039  23.019  0.3933 -0.0408  0.2305
19766W        W62782  11.051  28.126  26.649 -0.1272 -0.0668  0.0432
19767W        W62783  13.620  25.507   5.419  0.3160  0.0995 -0.1976
19768W        W62784  16.491  13.757   3.233  0.2334 -0.1215 -0.0553
19769W        W62785   4.215  30.146   6.226  0.0075 -0.3730  0.1256
19770W        W62786   8.531   7.466  25.566  0.1811  0.0313 -0.0903
19771W        W62787   7.035   8.491  29.009 -0.5358 -0.0465  0.1577
19772W        W62788  19.078  19.206  26.893  0.0262 -0.0590 -0.0853
19773W        W62789  24.652  32.280   1.810  0.0060 -0.1576  0.0801
19774W        W62790  27.887   7.221   2.286  0.3636 -0.1455  0.1140
19775W        W62791  22.084  28.055   0.968  0.0831  0.0159  0.2973
19776W        W62792  29.400  27.052   5.148 -0.1518 -0.2691 -0.0785
19777W        W62793  27.380   6.429   6.524 -0.4025 -0.2664 -0.0035
19778W        W62794  21.291  20.759   7.623  0.2315 -0.0952 -0.1553
19779W        W62795  21.747  30.717  26.077  0.1000  0.1027  0.0686
19780W        W62796  32.007   9.639   5.244 -0.1207 -0.0563 -0.1916
19781W        W62797  20.537   4.888   2.798 -0.0011 -0.2246 -0.2741
19782W        W62798  33.730   3.208   4.979 -0.2136 -0.0666 -0.1360
19783W        W62799  23.096  33.105   1.528  0.1074 -0.2838  0.0446
19784W        W62800  19.289  18.493   6.541 -0.0265  0.1732 -0.0728
19785W        W62801  20.241   0.931   3.921 -0.1201  0.2011 -0.0295
19786W        W62802  14.447  25.824   6.699 -0.2859  0.1033 -0.0296
19787W        W62803   4.375   0.101  17.253  0.2269  0.0113 -0.2299
19788W        W62804  25.175   0.896  26.763 -0.1202  0.2414  0.1481
19789W        W62805  13.299   3.360   5.356 -0.1601 -0.0662  0.0577
19790W        W62806  21.609   3.901   8.178 -0.1338 -0.0956 -0.4424
19791W        W62807   6.460   9.653  24.799  0.0265  0.1256 -0.0443
19792W        W62808  11.266  30.362   1.560 -0.1451  0.1474  0.1295
19793W        W62809  20.841  25.096  28.174 -0.5568 -0.3359  0.0784
19794W        W62810  20.127   1.736   3.431  0.2739 -0.2017 -0.3713
19795W        W62811  32.024   8.700  24.607  0.0243  0.2236  0.1577
19796W        W62812  16.161   1.867   7.675 -0.1808 -0.0793  0.2271
19797W        W62813  15.056  13.014  23.522 -0.1075  0.1461 -0.2286
19798W        W62814  12.681  28.952  25.410  0.1087 -0.1529  0.0043
19799W        W62815  25.986  11.824   1.398 -0.0105 -0.0058  0.1792
19800W        W62816   4.191   1.884  24.959 -0.1980  0.0687  0.0404
19801W        W62817  28.553  33.618  29.090  0.2184  0.0789  0.0890
19802W        W62818  10.862   1.423   1.025  0.1550  0.3375  0.3015
19803W        W62819  28.355  30.511   7.859 -0.0065  0.0061  0.4992
19804W        W62820  22.199  26.554  18.518 -0.2450  0.1107 -0.2935
19805W        W62821  21.648  26.392   8.439 -0.0795  0.2742  0.0705
19806W        W62822  22.230  29.341   4.670  0.1036 -0.2448  0.0036
19807W        W62823  21.947   8.026  25.085  0.0215  0.0820  0.2795
19808W        W62824  23.412   4.795  28.388 -0.1708  0.0443 -0.1012
19809W        W62825   5.179  22.814  22.255 -0.1445  0.2043  0.0063
19810W        W62826  16.301   4.047   5.292  0.0972 -0.0255 -0.1965
19811W        W62827  11.558  20.342  25.420  0.0664 -0.2463  0.1993
19812W        W62828  30.269   1.569   6.673  0.1101  0.0784 -0.0280
19813W        W62829  24.750   6.435  29.041  0.0890  0.1003  0.1181
19814W        W62830  25.595   4.501  10.211 -0.2471  0.2715 -0.0028
19815W        W62831  25.638  10.656   4.284  0.2979 -0.2474  0.0812
19816W        W62832   5.650  11.123  26.885  0.0765 -0.0176 -0.0656
19817W        W62833  23.743   5.658  24.365 -0.0842 -0.0128 -0.1608
19818W        W62834  25.076   0.360  24.674 -0.1928 -0.1299  0.1463
19819W        W62835   2.731   3.920   2.614  0.2962  0.1576 -0.4721
19820W        W62836   5.085  25.475  13.903 -0.2509  0.1870  0.1109
19821W        W62837  28.776   6.294   7.472 -0.0050 -0.1170 -0.1868
19822W        W62838  29.411  32.061  23.718 -0.1045  0.0764  0.0778
19823W        W62839  20.467  31.039   8.053  0.2213  0.0504  0.1837
19824W        W62840  32.279  28.894   2.363 -0.2054  0.2153  0.0989
19825W        W62841  13.739  25.171   5.874  0.1576 -0.0727  0.0983
19826W        W62842  28.937  25.775  23.852  0.0355 -0.1238 -0.0263
19827W        W62843  23.035   1.119   7.592 -0.0591  0.2632 -0.1313
19828W        W62844  31.494   3.688   3.480  0.3304  0.0779 -0.2477
19829W        W62845  31.547   0.193   3.953  0.0649 -0.1241 -0.0765
19830W        W62846   6.850   5.484   5.818 -0.2621 -0.2050  0.2160
19831W        W62847  32.293  10.888   9.826  0.1101  0.0688  0.1775
19832W        W62848  25.637  26.347  17.906  0.0433  0.2326 -0.1635
19833W        W62849  24.619   7.949   5.670  0.0205  0.0374  0.0120
19834W        W62850  19.357   6.659  20.699  0.1600 -0.2007 -0.3072
19835W        W62851  30.643  14.665   7.671  0.2762  0.1668 -0.2194
19836W        W62852  30.937  30.163   6.509 -0.1184  0.0826  0.3193
19837W        W62853  23.469   7.090  10.176  0.0972  0.1386 -0.1035
19838W        W62854   2.745   3.543   9.243  0.0992 -0.0856 -0.0795
19839W        W62855  29.497  20.582  27.311  0.1631  0.1620  0.3378
19840W        W62856   5.002  16.096   1.015  0.2981 -0.0189 -0.1786
19841W        W62857  13.317  15.263  19.852 -0.0034 -0.1524 -0.2717
19842W        W62858  30.885  29.831   3.160  0.1127 -0.1040  0.0012
19843W        W62859  28.350   8.160   1.785 -0.3272  0.0092 -0.2218
19844W        W62860   9.093  18.324   7.192  0.1832  0.4010  0.1069
19845W        W62861   6.637  15.048   2.087 -0.0170 -0.1879  0.1213
19846W        W62862  22.928   7.413   1.430  0.1291 -0.0190 -0.1076
19847W        W62863  30.884  13.700   4.089  0.0275  0.1023  0.3528
19848W        W62864   8.661  10.828  23.686  0.0284  0.2012  0.1830
19849W        W62865  11.715  19.364   6.020 -0.0369  0.0454  0.2005
19850W        W62866   0.536   4.982   8.273  0.1717 -0.0904 -0.0160
19851W        W62867  31.520  33.852   7.657  0.2859  0.3472 -0.2486
19852W        W62868  25.483  30.290  28.189  0.1701 -0.0007  0.0967
19853W        W62869  27.241  11.428  25.379  0.2634 -0.0534  0.0380
19854W        W62870  26.224   0.044   9.850 -0.1699 -0.0219  0.2114
19855W        W62871   9.361  10.126   7.884 -0.1632 -0.0490 -0.0426
19856W        W62872  34.652  25.464   3.646  0.0515  0.0845  0.0464
19857W        W62873   8.000  22.615   7.465 -0.1415  0.0429  0.0437
19858W        W62874  28.202  16.031   6.633 -0.1032 -0.0766  0.0391
19859W        W62875   5.279  12.592  13.840 -0.1551 -0.1549 -0.4238
19860W        W62876   9.180   7.161   2.853  0.2794 -0.0514 -0.0396
19861W        W62877   1.035  19.493  17.380  0.1357  0.0631 -0.0709
19862W        W62878  22.464  30.321   8.294 -0.2717  0.0456 -0.2782
19863W        W62879  19.270   8.064   4.675  0.3870 -0.0631 -0.0075
19864W        W62880  22.156  19.830  21.857 -0.2090 -0.0506  0.0035
19865W        W62881  31.560   4.900  25.201 -0.1121 -0.1407 -0.0276
19866W        W62882  19.133  27.185   4.543 -0.0659 -0.0092  0.1090
19867W        W62883  27.618  14.441  15.515  0.1209 -0.0101  0.1928
19868W        W62884   9.525  21.961   0.188  0.1197  0.0616  0.0736
19869W        W62885  15.844  13.767   4.645 -0.1146  0.0847 -0.0506
19870W        W62886   0.795  31.109   7.866 -0.0533  0.0239  0.0908
19871W        W62887  16.494  27.135   4.712  0.0378  0.2249  0.0017
19872W        W62888  24.437   6.584   2.290 -0.3635 -0.1606 -0.2391
19873W        W62889  32.621   7.171   3.297 -0.0353 -0.1800 -0.0501
19874W        W62890  30.750  34.230  10.605  0.2256 -0.3028 -0.1362
19875W        W62891  28.733  14.303  27.083  0.0392  0.2041 -0.0825
19876W        W62892   2.276  34.736  26.895 -0.2845 -0.0792 -0.2191
19877W        W62893  20.586  28.103  27.536  0.2893 -0.1502 -0.0193
19878W        W62894  24.888  32.876   4.488  0.5760  0.0691 -0.0518
19879W        W62895   3.261   6.089   6.032 -0.0635  0.0253 -0.0128
19880W        W62896  27.139  32.065   0.810 -0.1257 -0.0387 -0.2251
19881W        W62897  19.968   7.538   0.550 -0.2660 -0.2502  0.0791
19882W        W62898  29.578  10.710  29.016 -0.6311  0.2145 -0.1020
19883W        W62899  13.439  28.445   9.799 -0.0909 -0.0836 -0.1910
19884W        W62900  26.857  17.934  10.017  0.0529  0.0505  0.1682
19885W        W62901   3.109  24.345   3.371 -0.0150  0.0290  0.3497
19886W        W62902   0.729   0.189   9.046  0.0366 -0.0051 -0.2452
19887W        W62903  14.592  13.111  21.639  0.1575  0.0478 -0.0104
19888W        W62904  31.885  29.484   1.359 -0.1463 -0.4245 -0.1237
19889W        W62905  12.807  10.205   3.158 -0.2722  0.0724 -0.0819
19890W        W62906  30.628  28.958   5.726  0.0445  0.1218 -0.1182
19891W        W62907   0.102  27.203  10.570  0.3019  0.3082  0.0534
19892W        W62908  34.585   2.480   0.772  0.0771 -0.0853 -0.2640
19893W        W62909  15.495  33.902   2.227  0.2501 -0.0063 -0.1096
19894W        W62910   3.002  30.511   0.748  0.3423  0.5256  0.0306
19895W        W62911  14.969  16.213  19.480  0.0104 -0.1258  0.3335
19896W        W62912  23.153  14.168   0.153 -0.2585  0.0402  0.3406
19897W        W62913  23.965   4.555   7.692  0.3890  0.2778 -0.0792
19898W        W62914   0.690   9.663   2.080 -0.0062  0.1464  0.2287
19899W        W62915  17.779  24.011  25.562 -0.0358  0.0862  0.2686
19900W        W62916  15.911  31.167   4.251 -0.0224 -0.2375  0.1197
19901W        W62917  32.295   6.240   9.132 -0.2432 -0.1860 -0.0356
19902W        W62918  25.985   7.497  10.451  0.0429 -0.0166 -0.1112
19903W        W62919  21.142  31.022   6.733  0.4844  0.4948 -0.0137
19904W        W62920  24.473  32.105   4.978  0.1651  0.0011 -0.0343
19905W        W62921  30.668   1.401  26.440  0.1834  0.1451  0.1575
19906W        W62922  24.027  13.358  14.228 -0.3335  0.0611 -0.0718
19907W        W62923  23.824   2.809   1.857  0.1989  0.2336 -0.2384
19908W        W62924  21.548   4.197   5.679 -0.0938 -0.3411 -0.0828
19909W        W62925  28.919  27.909   7.577 -0.0612  0.4044  0.0959
19910W        W62926  32.940  15.656   5.314  0.0078  0.0222  0.0327
19911W        W62927  15.037  23.496   3.205 -0.1539 -0.1658  0.1723
19912W        W62928  23.958   9.080  21.584 -0.1727  0.0176  0.0660
19913W        W62929  25.340  24.431  27.743  0.2660  0.1398 -0.1090
19914W        W62930  13.250  10.946   6.441 -0.1709  0.0398  0.0740
19915W        W62931  18.872  29.559   5.173 -0.2685 -0.2083  0.1371
19916W        W62932  32.691  31.642   1.581  0.0129 -0.2623 -0.1185
19917W        W62933  26.305   0.919   0.648  0.0227  0.0390 -0.0512
19918W        W62934  14.269   5.901   6.859 -0.1532 -0.2742  0.2210
19919W        W62935   0.161  11.557   4.521  0.1988  0.4167 -0.0397
19920W        W62936  20.331  33.329   1.854 -0.1634  0.0539  0.3050
19921W        W62937  27.576  27.538  11.319  0.0163 -0.4060  0.2706
19922W        W62938  27.568  19.996   1.409 -0.1677 -0.2089 -0.1870
19923W        W62939  18.758  31.584   9.922  0.0526 -0.1274  0.0510
19924W        W62940  12.466  13.187  26.929  0.0545 -0.0216 -0.3829
19925W        W62941  14.823  25.961   8.483  0.0056 -0.0363  0.0661
19926W        W62942  26.371  22.306  27.506  0.1668 -0.0286  0.2668
19927W        W62943  30.341  15.024   2.112  0.1432  0.3876 -0.1509
19928W        W62944  22.728  16.509  27.129 -0.2584  0.0407 -0.2834
19929W        W62945  33.535  30.321  27.543  0.0652 -0.0942 -0.3428
19930W        W62946  18.089   7.258   6.482  0.3769 -0.1460  0.1557
19931W        W62947  21.577  17.158  29.032 -0.1950  0.1427 -0.2512
19932W        W62948  14.719  23.884   6.811 -0.1389  0.0442 -0.0310
19933W        W62949  23.755   9.499   8.212 -0.1688  0.1716  0.1197
19934W        W62950  24.969  11.817   8.439  0.1271  0.2618  0.0805
19935W        W62951   7.312  27.429  28.719 -0.2109 -0.0149 -0.1347
19936W        W62952  18.669   0.823   4.712 -0.0988  0.1888  0.0240
19937W        W62953  23.255  12.992   9.598 -0.1842  0.2547  0.1044
19938W        W62954  32.362   3.405   7.552 -0.0308 -0.1577  0.0260
19939W        W62955  16.324   3.342   3.237 -0.1193  0.0951 -0.2429
19940W        W62956  28.254  31.853   3.089 -0.4680 -0.1444  0.1401
19941W        W62957  25.766   6.885   6.988  0.1994 -0.1445  0.3392
19942W        W62958  23.193  28.442  10.279 -0.0566  0.0733  0.2320
19943W        W62959  21.004  10.260   4.810  0.1155 -0.0219 -0.0129
19944W        W62960  28.145   5.001   1.314  0.2814 -0.2269  0.1792
19945W        W62961  17.999   3.511   0.181 -0.1725 -0.1950  0.2698
19946W        W62962  18.403  30.109  11.001 -0.1765  0.0218 -0.0240
19947W        W62963  23.604  31.809   0.264  0.0107 -0.0162 -0.2988
19948W        W62964  14.169   4.531   7.391  0.0977  0.0916  0.0470
19949W        W62965  19.071   4.794   2.309  0.2582  0.1577 -0.1142
19950W        W62966  24.930   2.715   3.996 -0.1473 -0.1368 -0.1297
19951W        W62967  19.030   9.845   5.280  0.0256  0.3482  0.3762
19952W        W62968  27.793   1.648   7.033 -0.2349 -0.1141  0.0127
19953W        W62969  23.651   8.862   4.184 -0.0920  0.1715  0.1479
19954W        W62970  24.213   6.772   8.517 -0.0630  0.2569 -0.1302
19955W        W62971  30.159  31.412   7.781  0.2369  0.1037  0.1545
19956W        W62972  26.835  31.131   5.211  0.2110  0.0970  0.1417
19957W        W62973  19.435  31.746  10.634 -0.0345  0.2099  0.1717
19958W        W62974  23.066  15.976   3.951 -0.0246  0.1650 -0.0501
19959W        W62975  28.093  12.573  28.563 -0.0208  0.2684  0.0636
19960W        W62976  19.657  33.221   8.382 -0.2689 -0.0474  0.2237
19961W        W62977  29.127  24.423   7.754  0.4431  0.1835 -0.2663
19962W        W62978  12.515   1.456  22.236  0.1501  0.0702  0.1410
19963W        W62979  33.118   1.623   3.178  0.0645 -0.0613 -0.1532
19964W        W62980  12.184  25.184   1.741  0.2114  0.3223 -0.0025
19965W        W62981  33.490   2.543   0.359 -0.0193 -0.0089  0.3281
19966W        W62982  29.722   2.438   6.581 -0.1026 -0.1320  0.0780
19967W        W62983  18.808   0.002   4.020 -0.1484 -0.1871 -0.2716
19968W        W62984  26.984  25.344  25.208 -0.3579 -0.1098  0.0199
19969W        W62985  18.383  17.868  26.344  0.1324  0.1125  0.0959
19970W        W62986   1.648  18.837   6.047  0.0764 -0.3626  0.0885
19971W        W62987  27.722   0.035   4.121  0.2177 -0.3527 -0.2195
19972W        W62988   5.996   0.936   6.181 -0.2116 -0.0164 -0.1407
19973W        W62989  19.684  13.272  24.789  0.1330 -0.0530  0.0633
19974W        W62990  30.258  33.925  24.567 -0.0962 -0.0783  0.0917
19975W        W62991  17.270  17.462  27.012 -0.2022  0.1344 -0.2993
19976W        W62992  30.058  25.881   8.220 -0.0397 -0.1581  0.1221
19977W        W62993  27.807   8.803   1.648 -0.2128 -0.1247 -0.2903
19978W        W62994  22.980  12.894   4.509 -0.1634 -0.0035 -0.0626
19979W        W62995  15.326  23.999   2.130  0.2168  0.0021  0.2405
19980W        W62996  19.532  32.651   9.115 -0.5160 -0.1918  0.0796
19981W        W62997  14.892   0.206   7.418 -0.1197 -0.0712  0.1786
19982W        W62998  17.127   6.395   2.166 -0.0097  0.0770 -0.0571
19983W        W62999  27.725   6.330  26.663 -0.4071  0.0783  0.0318
19984W        W63000  22.895  30.997  19.216 -0.1499  0.2252  0.1806
19985W        W63001   4.247   4.999   6.008 -0.1180  0.3694  0.3951
19986W        W63002   5.580   2.286  10.149 -0.4575 -0.1899  0.0207
19987W        W63003  33.984   0.771  27.173 -0.0624  0.0221  0.2985
19988W        W63004  19.811  32.211   9.074 -0.2288  0.2631 -0.1331
19989W        W63005  24.272  20.372   2.243  0.0617  0.1681 -0.2352
19990W        W63006   8.805  14.906   0.271 -0.3306  0.1895 -0.1316
19991W        W63007  19.190   7.304   5.056 -0.1452  0.1113  0.0674
19992W        W63008  20.883  25.105  23.010  0.0255  0.0849 -0.0061
19993W        W63009  18.400  11.802   5.592 -0.0223 -0.3306  0.1073
19994W        W63010   9.281  15.404   8.374 -0.2151 -0.2515 -0.5520
19995W        W63011  17.185   3.436  16.375  0.0090 -0.1333  0.1888
19996W        W63012  13.250   4.503   9.254 -0.2479  0.2531 -0.0067
19997W        W63013  11.632   8.676  14.791  0.1058 -0.2217 -0.2756
19998W        W63014  26.374  10.542   6.880  0.1453 -0.2091  0.4213
19999W        W63015  21.867  27.581   9.720  0.0921 -0.2161 -0.2163
20000W        W63016   7.715   6.750   2.302 -0.2017 -0.1833 -0.1726
20001W        W63017  15.885  10.678  22.581 -0.0822  0.3245  0.0457
20002W        W63018  19.942  26.347   0.380  0.2307  0.0543  0.1270
20003W        W63019  20.365   2.206  26.218  0.5234  0.0597 -0.0538
20004W        W63020  23.343  14.578   5.144  0.0640  0.2283  0.1367
20005W        W63021  18.648  25.730   6.192  0.4004 -0.4483 -0.2869
20006W        W63022  18.591  23.014  28.657  0.0735  0.1232  0.3623
20007W        W63023  10.667   5.603   4.428  0.2538  0.2089  0.0731
20008W        W63024  20.063  25.355  29.118  0.1713 -0.0809 -0.0413
20009W        W63025  18.278  10.193   8.161  0.1770 -0.2505  0.3077
20010W        W63026   3.054  32.287  27.826  0.0797 -0.1757  0.1342
20011W        W63027  16.085  12.049   0.773  0.0906 -0.1122  0.2262
20012W        W63028  12.965  34.361   6.164  0.0623 -0.0068 -0.3055
20013W        W63029  11.515   9.708   7.853 -0.0927 -0.0610  0.0347
20014W        W63030  24.430  24.301  23.259 -0.0846  0.0183 -0.0310
20015W        W63031  28.521   0.037   6.891  0.3067 -0.5540 -0.1806
20016W        W63032  30.746  15.810   3.825  0.0073  0.2543  0.1502
20017W        W63033   3.319   1.419  10.724 -0.1512  0.0767  0.0962
20018W        W63034  31.055  28.576   9.564 -0.2676 -0.2649  0.1124
20019W        W63035  20.278   0.329  24.923  0.0802 -0.0758 -0.1609
20020W        W63036  18.588   6.464   4.639 -0.2819 -0.3089  0.1097
20021W        W63037  25.781   5.059   7.574 -0.2425  0.0553  0.1061
20022W        W63038  28.872   6.954  10.092  0.3850  0.2479 -0.0370
20023W        W63039  20.238  12.338   5.811 -0.3232 -0.0901 -0.1441
20024W        W63040  25.004   2.389   7.515 -0.1040  0.0617 -0.2380
20025W        W63041  25.913   5.376   3.542  0.1236  0.0497 -0.2191
20026W        W63042  23.622  31.540   2.984  0.0593 -0.0088  0.2423
20027W        W63043  24.658  16.292  26.530 -0.1533 -0.1922 -0.0324
20028W        W63044  31.001  34.549   5.633 -0.2548  0.2708 -0.1001
20029W        W63045  10.646  29.378   1.959 -0.0132  0.1067  0.0200
20030W        W63046  15.963  33.736   9.574  0.0234 -0.3124  0.1423
20031W        W63047   3.173  10.111  10.207 -0.0576  0.3496 -0.0868
20032W        W63048  11.149   1.558   2.487 -0.0044 -0.0511 -0.1130
20033W        W63049  24.072  27.650  22.476  0.0639 -0.0043  0.0024
20034W        W63050  23.276   1.978  24.722 -0.1441  0.2736 -0.1787
20035W        W63051  30.051   4.272   3.384  0.0838  0.1224  0.2857
20036W        W63052  28.492   0.957   6.977  0.1360  0.4252 -0.0792
20037W        W63053  30.914  29.579  10.919  0.1856  0.1649 -0.0742
20038W        W63054  18.487  34.378   4.085  0.1755 -0.2066 -0.0350
20039W        W63055  17.370  30.228   1.950  0.1744  0.0728 -0.0253
20040W        W63056   4.532   1.736  14.633 -0.0271 -0.3045  0.0981
20041W        W63057  10.124  32.429   9.350 -0.1692 -0.0714 -0.1632
20042W        W63058  20.687   1.352   6.056  0.3841  0.0212 -0.2953
20043W        W63059  18.950  28.104   3.398  0.0587  0.2199 -0.1348
20044W        W63060  15.120  31.808   3.388 -0.3166  0.2274  0.1847
20045W        W63061  22.646  25.021  22.778  0.0773 -0.1181 -0.0699
20046W        W63062  16.767   3.564   3.095 -0.0032  0.1002 -0.4068
20047W        W63063  18.078  25.357   9.048 -0.0040 -0.2155  0.1776
20048W        W63064  33.828  10.217   1.153 -0.0988 -0.1883  0.1874
20049W        W63065  18.582  27.590   7.082  0.0490 -0.0414 -0.0282
20050W        W63066  23.450   2.944  25.421 -0.1954 -0.1552  0.3929
20051W        W63067  30.681  30.526  11.469 -0.3122  0.2108 -0.2423
20052W        W63068  26.998   8.776   9.272  0.0339  0.2636  0.4646
20053W        W63069  28.406   6.648  27.099  0.0180  0.1501 -0.0329
20054W        W63070   8.754   8.767   7.644  0.2157  0.0056 -0.0093
20055W        W63071  19.564  18.473  13.474  0.0529  0.0945 -0.2004
20056W        W63072  29.329  16.674   6.501 -0.1073 -0.0920 -0.1124
20057W        W63073  19.351  28.325   9.027  0.2186  0.1873 -0.0181
20058W        W63074  17.602  11.896  20.967 -0.1510 -0.0171 -0.1907
20059W        W63075  20.078  19.637  27.039  0.1224  0.1217 -0.1274
20060W        W63076  27.078  16.723   8.376 -0.0459 -0.1268 -0.2754
20061W        W63077  29.331  29.112  28.943  0.0057 -0.1559 -0.1701
20062W        W63078  26.106   1.297  28.589  0.2527  0.4292 -0.2945
20063W        W63079  20.267   1.177   9.060 -0.0753  0.2556 -0.0469
20064W        W63080  23.711  32.829   7.058 -0.1706 -0.1852 -0.0949
20065W        W63081  22.904   8.419   6.901  0.0230  0.0772 -0.1158
20066W        W63082   2.412  28.299   1.405  0.0063 -0.0534 -0.0600
20067W        W63083  19.988   0.004   4.776 -0.0436  0.0526  0.0012
20068W        W63084  31.283  11.684   4.220 -0.1689 -0.0099  0.3466
20069W        W63085  33.526  34.058  10.381 -0.1058  0.0224 -0.2149
20070W        W63086  33.880  26.285   2.551  0.2157 -0.2138  0.1956
20071W        W63087   1.395   8.369   3.877  0.0219  0.1328  0.0165
20072W        W63088   9.221   1.690   5.260  0.0661 -0.4879  0.3160
20073W        W63089  34.042  12.252   2.051  0.2829 -0.2127  0.0462
20074W        W63090  10.817   0.322   2.747  0.0190  0.1092 -0.1091
20075W        W63091  29.634  29.413   1.900 -0.2206 -0.1589  0.2297
20076W        W63092  24.013  11.841   7.112  0.1861  0.1222 -0.1526
20077W        W63093  22.937   6.843  23.320  0.0188  0.1234  0.5493
20078W        W63094  31.619  31.720   4.434  0.1358 -0.4053 -0.0614
20079W        W63095  18.963  25.115   4.565  0.2283  0.4864 -0.0470
20080W        W63096   3.006  18.583  27.460  0.1568  0.1786  0.3422
20081W        W63097  21.252   8.130   7.589 -0.0563 -0.2849 -0.0619
20082W        W63098  15.749   4.480   9.769 -0.1011 -0.1156  0.1532
20083W        W63099  19.287  10.132  27.611  0.1627 -0.0551 -0.1576
20084W        W63100  10.582   5.759   8.204  0.0284 -0.0042  0.0155
20085W        W63101  30.002   2.195  23.174 -0.0939  0.1556 -0.0382
20086W        W63102  31.500  20.797  10.728  0.0741 -0.5587 -0.1115
20087W        W63103   2.129   8.615   1.345 -0.1345  0.1066  0.0513
20088W        W63104  16.025   3.242   1.491 -0.3088 -0.3167  0.1060
20089W        W63105  11.429  24.850   0.655 -0.0691 -0.2810 -0.1471
20090W        W63106  24.870   0.597   3.218 -0.1462  0.0035  0.0920
20091W        W63107  28.407  12.351   4.049 -0.1297 -0.2315 -0.1128
20092W        W63108  25.062   2.112   7.008 -0.1845 -0.0129  0.0808
20093W        W63109  28.680  25.810   1.109  0.1623  0.0278  0.2119
20094W        W63110  22.963   0.001   3.699 -0.1078  0.0826 -0.1466
20095W        W63111  22.763  17.569  26.044  0.0414 -0.2095 -0.0673
20096W        W63112  23.911  27.374   3.799 -0.0399 -0.2939  0.3248
20097W        W63113   6.550  27.525  24.944 -0.4201  0.0106 -0.1146
20098W        W63114  22.616  30.696   7.335 -0.2246  0.1577 -0.1961
20099W        W63115  16.323  17.022   3.754 -0.1301 -0.0636  0.0180
20100W        W63116   0.075   8.734   5.197 -0.1346  0.2920 -0.0056
20101W        W63117  31.509  29.626  10.158 -0.3571  0.1395 -0.3570
20102W        W63118  30.454  31.549   5.892 -0.1089 -0.0614 -0.1707
20103W        W63119  24.691  10.516   6.614  0.1619  0.0986 -0.2995
20104W        W63120   7.400  32.264   4.755  0.0157 -0.2223  0.0922
20105W        W63121   7.183  13.985  25.077 -0.3996  0.2731 -0.2477
20106W        W63122  15.536  13.224  28.702  0.1392 -0.0837 -0.1259
20107W        W63123  31.180  28.022  23.943 -0.1192 -0.2416  0.1351
20108W        W63124  14.933  12.472  23.240 -0.3254  0.2438  0.1110
20109W        W63125  16.722  25.451  14.196 -0.2600  0.3126  0.3050
20110W        W63126  17.914   6.657   9.790  0.0768  0.0831 -0.2402
20111W        W63127  34.062  17.217   7.174 -0.0443  0.3648  0.0681
20112W        W63128  16.530   2.983  28.895 -0.1285  0.2245  0.0489
20113W        W63129  24.738  27.138   0.088  0.2900  0.1727  0.1712
20114W        W63130  21.660  12.955   4.531  0.3581 -0.0712  0.2038
20115W        W63131  25.709  30.554  26.449  0.0682  0.1326 -0.1116
20116W        W63132  22.958  21.321   5.624 -0.0504  0.0351 -0.1282
20117W        W63133  21.285   4.404  27.479  0.2342 -0.0858  0.4306
20118W        W63134  29.634  11.985   3.995 -0.1222 -0.0503  0.3982
20119W        W63135  26.045  23.060   6.636  0.0365  0.2203 -0.0910
20120W        W63136   7.589  34.536   1.479 -0.3335  0.1586  0.0263
20121W        W63137  31.061   5.851  11.132  0.2207 -0.0557  0.3479
20122W        W63138  20.651  25.026   4.289  0.0112 -0.0126  0.0313
20123W        W63139  30.356  25.651   5.688  0.3829  0.0261 -0.1827
20124W        W63140  13.719  32.774  29.206 -0.2642 -0.1127  0.1526
20125W        W63141  26.745   5.462   1.494 -0.2997 -0.1638  0.3853
20126W        W63142  29.544   9.993  27.522  0.0026 -0.2975  0.1512
20127W        W63143  12.509   3.744   5.810  0.0970 -0.1786 -0.1054
20128W        W63144   1.177  16.635  27.679  0.1713  0.5442  0.1342
20129W        W63145   8.298  23.514   1.638  0.1499 -0.1092 -0.0572
20130W        W63146  28.295  16.076  18.514 -0.2120 -0.0996 -0.1507
20131W        W63147   6.260  33.022   4.822  0.0156 -0.0309 -0.1686
20132W        W63148  10.140  28.545   8.079 -0.1424 -0.0008  0.1497
20133W        W63149  30.214   6.053   2.791 -0.1316  0.0319 -0.0830
20134W        W63150  10.352  34.414  22.238  0.0460  0.0508 -0.0711
20135W        W63151  13.179  34.277   9.433  0.0591 -0.2137  0.0021
20136W        W63152   1.121  25.018   2.998 -0.0464 -0.0107 -0.1301
20137W        W63153  17.035  32.677   8.643 -0.0296  0.0275  0.1497
20138W        W63154  16.539  31.380   6.558  0.3448 -0.2421 -0.1096
20139W        W63155  33.015  32.663   4.704  0.1301 -0.4648 -0.0661
20140W        W63156  26.502   0.801  27.902  0.1378  0.4488 -0.3051
20141W        W63157  20.889  23.155   4.791  0.0247 -0.0946  0.3183
20142W        W63158  23.477  21.943   2.275  0.2599 -0.2423  0.3430
20143W        W63159  33.186   3.725  22.521 -0.0365  0.3319  0.1708
20144W        W63160  32.790   0.716  10.309  0.3556  0.5265 -0.2853
20145W        W63161  28.902  30.966   6.078 -0.0085 -0.0990 -0.3818
20146W        W63162  17.015  25.389   7.697 -0.0896  0.0404  0.1909
20147W        W63163  25.234   6.529   4.589  0.0448 -0.0959 -0.1961
20148W        W63164  29.454  14.093   7.181  0.0976  0.1348 -0.1902
20149W        W63165  21.247   9.364   4.616 -0.0970 -0.2576 -0.1649
20150W        W63166  30.590   3.105   4.606  0.3190  0.0942  0.1011
20151W        W63167  14.850  32.123   2.195 -0.1497  0.3593 -0.0202
20152W        W63168  25.881  20.892  26.484  0.1136  0.3306 -0.3452
20153W        W63169  18.469   2.134   9.186 -0.1126 -0.2851 -0.3476
20154W        W63170  26.140  34.246   9.667 -0.2689 -0.0824  0.1744
20155W        W63171  24.079   9.793   9.060 -0.1951 -0.2317  0.1126
20156W        W63172  24.690  25.790   8.466 -0.0765  0.1969 -0.2496
20157W        W63173  20.352  11.921   8.054  0.1137  0.0872  0.1045
20158W        W63174  18.454  12.902   2.664 -0.4475 -0.1436  0.2293
20159W        W63175  17.497  21.244   6.387  0.1172 -0.1991  0.0465
20160W        W63176  22.674  22.161  19.186 -0.0705 -0.3092  0.0085
20161W        W63177  26.766   4.892   6.247 -0.1022  0.0091 -0.0687
20162W        W63178  17.419  13.002   4.521 -0.0807 -0.2401  0.2142
20163W        W63179  20.751  14.499   3.229  0.0264 -0.0182 -0.0388
20164W        W63180  18.920  23.952  29.251 -0.0494 -0.1876  0.0135
20165W        W63181  21.078   2.211   7.416 -0.1584  0.0632  0.1320
20166W        W63182  17.774  27.123  18.539  0.2541  0.0601 -0.0688
20167W        W63183  16.080  14.400   1.486  0.1182  0.1573  0.0816
20168W        W63184  24.548  23.218   4.487 -0.2804 -0.3098  0.0985
20169W        W63185  28.814  31.627   3.529  0.1454  0.3160 -0.1066
20170W        W63186  21.153   8.726   5.222 -0.0305  0.2855 -0.3602
20171W        W63187  30.330  12.279   4.924  0.3287 -0.1766  0.1012
20172W        W63188  21.362  14.741  28.364  0.0308  0.2069  0.0265
20173W        W63189  34.125  12.484   7.202  0.0220  0.2236 -0.0094
20174W        W63190  31.201  33.834   3.543  0.0634 -0.2199  0.1176
20175W        W63191  21.143  34.749   2.033 -0.3663 -0.0320  0.1188
20176W        W63192  18.236  30.728   7.915 -0.1287 -0.0310 -0.0213
20177W        W63193  32.178   4.150   8.723  0.0131 -0.3299 -0.1294
20178W        W63194   1.727  33.892  28.298  0.1265 -0.2089  0.1400
20179W        W63195  16.479   3.699   7.792 -0.0707 -0.2902  0.3303
20180W        W63196  18.780   8.008   4.459  0.1975  0.0245 -0.4154
20181W        W63197   7.703  17.017  29.099 -0.0851 -0.1999 -0.0583
20182W        W63198  23.160  11.706   1.964 -0.1397 -0.0780  0.2194
20183W        W63199  18.905   6.787   3.798  0.3397 -0.0090  0.0224
20184W        W63200  28.680   2.073   6.585 -0.0153 -0.2710  0.0853
20185W        W63201  29.463  32.508   8.770  0.1347 -0.0710  0.1132
20186W        W63202  32.933  13.606   7.060  0.0332  0.2552 -0.1659
20187W        W63203  12.198  33.610  10.442  0.1125 -0.0436  0.0079
20188W        W63204  22.281  31.627   7.926  0.5103  0.1257 -0.1642
20189W        W63205  26.497  19.571  24.010 -0.3481  0.2242  0.3003
20190W        W63206  14.410  10.294   9.874  0.0774  0.1822  0.1527
20191W        W63207  26.128  25.351  10.952 -0.1213 -0.1174  0.0722
20192W        W63208  15.472   5.733  27.766 -0.4495 -0.0161 -0.0138
20193W        W63209  19.924  27.677   2.327 -0.0276 -0.1117  0.4719
20194W        W63210   9.191   4.086  23.497 -0.2474  0.0555  0.2169
20195W        W63211  21.116   8.390   3.160  0.1827  0.0541 -0.1401
20196W        W63212  22.822  18.260  22.597  0.0415  0.3121  0.0215
20197W        W63213   8.681  19.939  15.798  0.2329 -0.2092  0.0085
20198W        W63214   0.726  24.870  29.081  0.5594 -0.4383 -0.0478
20199W        W63215  34.172  33.925   7.749  0.1732 -0.1085  0.1110
20200W        W63216  22.001  19.273   4.648 -0.0596 -0.0561  0.1961
20201W        W63217  15.244  23.132  24.897  0.0677 -0.1346  0.0782
20202W        W63218  28.768   9.740  24.069 -0.1866  0.0735  0.0503
20203W        W63219  30.737   9.462  24.200 -0.1409  0.1554 -0.2050
20204W        W63220  11.512   5.467   1.312 -0.0230 -0.1419  0.0889
20205W        W63221   6.376   8.357   9.954  0.1198 -0.1103  0.1848
20206W        W63222  28.191   4.505  19.478  0.0990  0.1082 -0.0027
20207W        W63223  27.483  33.438   0.552 -0.2056  0.1758  0.2323
20208W        W63224  18.249  30.848  25.232  0.6711 -0.0348  0.1875
20209W        W63225  23.733  29.599   5.487 -0.0739 -0.0795  0.1093
20210W        W63226  32.474  11.893  18.544 -0.3125  0.2352  0.1183
20211W        W63227  22.299   5.020   3.337  0.3203 -0.2683 -0.3701
20212W        W63228  23.638  18.977  26.510 -0.2692  0.1133 -0.1657
20213W        W63229  21.003   7.316  21.913 -0.2267  0.2650  0.1571
20214W        W63230  26.977  27.426   0.650  0.1653 -0.0816 -0.1385
20215W        W63231  20.253   4.537   1.893  0.1769  0.1101 -0.0267
20216W        W63232  25.214  12.677  28.918  0.2568 -0.2742 -0.3107
20217W        W63233  23.438  14.897   1.302  0.1527 -0.4454  0.1470
20218W        W63234  28.838  21.924   0.592  0.0291 -0.2169 -0.1986
20219W        W63235  22.719  10.572   8.307 -0.2208  0.0501 -0.2517
20220W        W63236  30.359   4.532  10.596 -0.0762 -0.1025 -0.2056
20221W        W63237  32.548  10.703   1.026 -0.1201 -0.3528  0.0801
20222W        W63238  16.065  15.713   1.882 -0.1319 -0.0246 -0.1061
20223W        W63239  12.732  33.036  23.204  0.1404 -0.0478 -0.5447
20224W        W63240  29.476  21.226   6.249 -0.1999 -0.2290  0.0939
20225W        W63241   5.070  10.035   1.776  0.1667 -0.5347 -0.1868
20226W        W63242   7.272   9.914  29.203 -0.0282  0.0357  0.0579
20227W        W63243  23.058  11.315  28.529 -0.0100 -0.1403 -0.3866
20228W        W63244  31.301   6.902  24.260 -0.0669  0.0606 -0.1627
20229W        W63245  29.150   4.044  26.853  0.3130 -0.1895  0.0025
20230W        W63246  22.250  10.720   3.542  0.0868 -0.0580 -0.0101
20231W        W63247  16.529   1.220   6.127 -0.0655 -0.4101  0.0338
20232W        W63248  14.711  31.454  23.959  0.0966 -0.1078  0.1288
20233W        W63249  28.051  23.630   8.734  0.3090 -0.0096  0.1585
20234W        W63250  30.129   2.278  24.671 -0.0685 -0.3026 -0.1677
20235W        W63251  23.175  18.479  18.415 -0.1575 -0.1374 -0.0999
20236W        W63252   2.387   4.105  20.367  0.0121  0.0051  0.0624
20237W        W63253  28.028   1.534   9.828  0.0745 -0.0917  0.1695
20238W        W63254  18.457  10.399   3.743 -0.0743 -0.0368  0.0878
20239W        W63255  29.762  33.521   1.035 -0.0677 -0.0021 -0.1942
20240W        W63256  25.942   1.502   2.455  0.0802 -0.2733  0.2105
20241W        W63257  26.570  26.550  10.294 -0.1522 -0.0878  0.2032
20242W        W63258  27.919  27.422   7.462 -0.0820  0.2875 -0.2278
20243W        W63259  31.460  23.195   2.230  0.2655 -0.1018  0.2922
20244W        W63260   9.567  32.476  24.452 -0.0052 -0.1378  0.0139
20245W        W63261  27.776   5.627   4.149  0.0794 -0.0155 -0.1254
20246W        W63262  27.641   8.529  19.452 -0.0426  0.0253  0.2334
20247W        W63263  25.819   2.101   6.704  0.1522  0.0223 -0.4512
20248W        W63264  10.523  17.809  21.310  0.0893  0.4354  0.0340
20249W        W63265  29.569   1.504  17.007  0.1366  0.1150  0.1485
20250W        W63266   2.468  24.714   2.729  0.2804 -0.0716 -0.2961
20251W        W63267  17.949  26.796   2.882 -0.1236 -0.1875 -0.2297
20252W        W63268  16.433   4.943  25.890  0.1256 -0.1111 -0.2105
20253W        W63269  20.234  13.618  26.779  0.1737  0.0240 -0.1938
20254W        W63270  23.247   4.492   6.804  0.0132 -0.2286 -0.0169
20255W        W63271  29.817  29.397  18.215  0.1965  0.1972 -0.0353
20256W        W63272  11.961  24.040  26.680  0.0220 -0.1863  0.1640
20257W        W63273  21.974   2.325   9.054  0.1479  0.3349  0.3438
20258W        W63274  29.156  32.735   7.083  0.1264  0.2371 -0.3308
20259W        W63275  18.494  25.159  24.426 -0.2630  0.0339 -0.0249
20260W        W63276  26.347  11.986   3.835  0.3162 -0.2744 -0.1240
20261W        W63277  24.138   0.894   2.056  0.2192 -0.0769 -0.2135
20262W        W63278  14.614  30.653   0.146  0.5674  0.1924 -0.1189
20263W        W63279  15.083   9.983   8.989 -0.1167 -0.3254 -0.0882
20264W        W63280  20.740  27.172   0.957  0.0796  0.2351  0.4752
20265W        W63281  31.579  13.173  23.116 -0.1131 -0.1259  0.3028
20266W        W63282   7.160   2.980  28.842  0.1257  0.2104 -0.0634
20267W        W63283  21.781   1.682   9.329 -0.3077 -0.0288  0.2635
20268W        W63284  21.266  32.523   1.450  0.0055 -0.0301  0.2641
20269W        W63285  23.753  31.741  26.809 -0.3696  0.1105  0.1262
20270W        W63286  28.565  20.269  17.422  0.1339  0.2391 -0.2647
20271W        W63287   3.135   2.607  27.236 -0.1128  0.1965  0.0334
20272W        W63288   3.685   7.331  20.796  0.0917 -0.0079  0.4605
20273W        W63289  34.773  14.268  10.282 -0.1483  0.0777  0.0247
20274W        W63290  19.554   0.686  10.200  0.0948 -0.0952 -0.0114
20275W        W63291  30.764  32.066  26.497  0.0431  0.1722 -0.0650
20276W        W63292  19.077   4.002  21.528 -0.0697 -0.0698  0.1521
20277W        W63293  30.630  10.812  22.697 -0.0239  0.1877  0.3436
20278W        W63294  26.052  19.156   8.338  0.1765  0.1448  0.2363
20279W        W63295  25.055  11.832  23.171  0.2002 -0.0390  0.1149
20280W        W63296  30.689  33.030   5.608 -0.2130 -0.0458 -0.1145
20281W        W63297  23.069   8.295   6.197 -0.0498  0.2354  0.1519
20282W        W63298  26.250  10.674  24.417 -0.1860  0.3043  0.4252
20283W        W63299  33.262   9.093  22.417 -0.2693  0.1149  0.1037
20284W        W63300  11.953  12.058  14.049 -0.0419 -0.1361 -0.3744
20285W        W63301  25.053  17.567   3.336  0.2044  0.2122  0.1987
20286W        W63302  23.686  12.630  27.879 -0.1162  0.2973  0.2484
20287W        W63303  20.413  10.726   2.489  0.0372 -0.0800 -0.1564
20288W        W63304  23.271  32.140   0.057  0.0924  0.0742 -0.0825
20289W        W63305  16.352   4.076  16.622  0.0614 -0.2599 -0.1177
20290W        W63306  29.549  21.778   9.561 -0.3045 -0.0542 -0.2381
20291W        W63307  22.689  11.324  29.038 -0.0949 -0.1721  0.0656
20292W        W63308  31.149  20.142  26.558  0.0987 -0.1004  0.2176
20293W        W63309  28.625  18.499   9.235 -0.0038  0.1945  0.4452
20294W        W63310  10.641  15.620  19.795 -0.1984  0.2642 -0.0668
20295W        W63311  23.983   3.358   7.331 -0.1105  0.2420 -0.1305
20296W        W63312  21.279   4.040   3.086 -0.2619 -0.2280  0.2556
20297W        W63313  15.826  11.947  21.390 -0.1046  0.0345 -0.0853
20298W        W63314  16.369   2.533  29.072 -0.1133 -0.2748 -0.0943
20299W        W63315  15.639  12.114  16.039 -0.1104  0.1935 -0.0833
20300W        W63316  22.538   8.731   1.067  0.1705  0.2091  0.1142
20301W        W63317  14.574  17.622  23.083  0.0341  0.4002  0.0243
20302W        W63318  18.561  31.814  10.307  0.0049  0.3535 -0.1045
20303W        W63319  33.268  10.008  22.750  0.1879 -0.5285 -0.0674
20304W        W63320  32.812   2.095  27.998  0.0038  0.2282  0.1707
20305W        W63321  25.078  16.989   2.534  0.1616 -0.0715  0.2393
20306W        W63322   4.594  17.853   8.223 -0.0149  0.0374  0.0953
20307W        W63323  15.525  32.187  26.823  0.0796 -0.0187  0.0556
20308W        W63324  33.313  15.606   1.358 -0.2076  0.0798  0.2711
20309W        W63325  11.808  22.296  19.789  0.3459  0.0971  0.0693
20310W        W63326  19.813   6.525   3.204  0.2091  0.0690  0.2910
20311W        W63327  30.157  32.956  26.672 -0.2835  0.0135  0.1926
20312W        W63328  26.689  33.626   7.908 -0.0517 -0.0448  0.0326
20313W        W63329  14.952   6.325  22.851 -0.1137  0.2117  0.1687
20314W        W63330  11.919  31.780   3.587 -0.2247 -0.2791 -0.1656
20315W        W63331  12.809  18.152   5.016 -0.0845  0.3161 -0.2148
20316W        W63332   2.287  33.255  20.470  0.1837 -0.0771  0.2680
20317W        W63333  20.577  29.424   3.870  0.0853  0.0654 -0.2468
20318W        W63334  23.135   8.697   1.795  0.0624 -0.1828  0.1595
20319W        W63335  27.136  11.943   9.564  0.2999  0.0872  0.0880
20320W        W63336   7.755   2.669   5.812  0.1297  0.0671  0.1610
20321W        W63337  24.190  19.890  26.237 -0.0762 -0.2662 -0.2256
20322W        W63338  31.905   8.516   3.638 -0.1042  0.0716  0.2448
20323W        W63339  20.839  19.486  28.061  0.0873  0.2798 -0.0385
20324W        W63340  12.953   5.946   8.925 -0.0783 -0.2118  0.3278
20325W        W63341  11.811   5.589  18.758  0.0494  0.0337  0.1980
20326W        W63342   1.606  33.780   4.155 -0.0570  0.1495 -0.0614
20327W        W63343  27.336  16.533  25.438 -0.0009 -0.1475 -0.2740
20328W        W63344   3.810  18.735  20.517 -0.0158 -0.1646 -0.0113
20329W        W63345  23.099  33.733  27.193 -0.1077 -0.0948  0.0380
20330W        W63346  14.253  33.679   5.712  0.0521 -0.0431 -0.0702
20331W        W63347  14.735  31.016  23.285 -0.0060 -0.0502  0.3818
20332W        W63348  11.168  22.454  26.419  0.0036  0.4574 -0.4456
20333W        W63349  27.413  25.499  24.999  0.0129  0.2004  0.0496
20334W        W63350  13.016   0.920   8.848  0.1947 -0.0478  0.1865
20335W        W63351  20.049   9.121   3.921 -0.1820 -0.3170 -0.1406
20336W        W63352  26.012  17.417   0.969 -0.2200 -0.1274 -0.1820
20337W        W63353  27.383   3.982   2.127  0.1310  0.0049  0.3451
20338W        W63354  31.294  17.775  26.776  0.0702 -0.0413 -0.1409
20339W        W63355  24.171  15.560  22.483 -0.4186  0.1756  0.0677
20340W        W63356  24.709   5.839   1.933 -0.0416 -0.3159 -0.0297
20341W        W63357  30.037   2.165   4.643  0.0113  0.0399 -0.2996
20342W        W63358  21.230  28.705   5.254  0.0882  0.1454 -0.0404
20343W        W63359  22.437   6.117   6.411  0.3268  0.2886  0.0582
20344W        W63360   5.000  12.823  25.204  0.0680 -0.0722 -0.1155
20345W        W63361  26.233   9.671  18.943 -0.0009  0.1039 -0.2735
20346W        W63362  24.496  18.345   7.352  0.1878  0.1283 -0.0723
20347W        W63363  18.900  22.861  17.501 -0.2573 -0.1161  0.3776
20348W        W63364  31.082   9.134  28.597  0.2915  0.1259  0.2467
20349W        W63365  33.763   5.078  22.534  0.0911  0.0114  0.0821
20350W        W63366  23.452   0.254   6.340 -0.3209  0.0010 -0.0107
20351W        W63367  26.715   4.016  10.684  0.1820 -0.1362  0.4048
20352W        W63368   9.604   4.750   9.003  0.0375  0.0832  0.1578
20353W        W63369   4.927   3.508  26.843  0.0464 -0.0890  0.3177
20354W        W63370  21.926  31.881   2.525  0.2460  0.0935  0.2964
20355W        W63371  29.691  20.315  17.714  0.2019 -0.4122 -0.1118
20356W        W63372   4.675  15.071  20.859  0.3452 -0.1596  0.1990
20357W        W63373  26.551  30.873   3.328  0.0110 -0.3006  0.0313
20358W        W63374   6.552  20.536   1.117  0.3111 -0.2687 -0.0322
20359W        W63375   4.190  18.039  28.558  0.0902  0.0031  0.2222
20360W        W63376  32.675  25.344   6.355  0.1772  0.0602  0.1134
20361W        W63377  18.236  10.647   0.510 -0.0419 -0.1398 -0.0600
20362W        W63378  20.631   8.541   2.400 -0.2626 -0.2678 -0.1698
20363W        W63379   0.013   4.533  21.731  0.0036 -0.0068  0.0617
20364W        W63380  33.083  14.814   2.771 -0.1159  0.0394  0.1019
20365W        W63381   8.215  11.951  26.012  0.1726 -0.0877 -0.3026
20366W        W63382  20.235  28.078  27.981 -0.3957 -0.0970  0.2471
20367W        W63383  19.191   2.106   9.418 -0.0403 -0.0759  0.0520
20368W        W63384   6.143   1.774   3.192 -0.1605  0.1186  0.0617
20369W        W63385   0.528  34.590   9.350  0.1006 -0.0149  0.0440
20370W        W63386  15.000  27.977   9.626 -0.1429 -0.2493  0.0574
20371W        W63387  22.547   0.194   2.291  0.1647  0.1156  0.2596
20372W        W63388   7.890  33.243   3.324  0.1198  0.0612  0.3601
20373W        W63389  11.662  15.525   8.053  0.4560  0.1835 -0.0155
20374W        W63390  29.818  11.510  16.093 -0.1661 -0.0721  0.2267
20375W        W63391  25.510   0.343  19.872  0.2994 -0.1732  0.0265
20376W        W63392  26.689   8.211  23.391 -0.0825 -0.0159  0.0060
20377W        W63393  33.324   0.653   5.564 -0.2363 -0.1759  0.2620
20378W        W63394   0.328  33.983  21.498  0.0089  0.3480  0.0738
20379W        W63395  11.697  18.261   6.196 -0.1118  0.0915  0.0995
20380W        W63396  11.846   4.959  28.003 -0.0667 -0.0509  0.1581
20381W        W63397  32.083  20.868  29.041  0.1417  0.1851 -0.5260
20382W        W63398   5.081   7.891  24.216 -0.2644 -0.3272 -0.2673
20383W        W63399  22.262  14.523  23.375  0.0741 -0.0731  0.0045
20384W        W63400   0.705  32.990   8.887  0.1960  0.0630  0.0056
20385W        W63401  25.158  23.389   7.113  0.2292 -0.1359 -0.0601
20386W        W63402  18.055   7.494   1.662  0.3078 -0.1106 -0.1283
20387W        W63403  20.838   9.136  25.375 -0.2166 -0.1259  0.2654
20388W        W63404  21.791  17.793   4.461 -0.0305 -0.1063  0.4287
20389W        W63405  20.671   6.018  17.743 -0.0339 -0.3786 -0.1406
20390W        W63406   2.617  24.951  26.004 -0.0942 -0.1059 -0.1684
20391W        W63407  29.848  21.521   1.879  0.0075 -0.0216  0.0714
20392W        W63408  20.745   3.590   6.367  0.0015 -0.1968  0.0477
20393W        W63409  33.319  28.206  28.790 -0.4553 -0.3592 -0.3470
20394W        W63410  20.792   6.970  26.088 -0.0235 -0.0094  0.1871
20395W        W63411  22.716  19.375  23.628 -0.0449 -0.0330  0.0773
20396W        W63412  22.340  11.207   3.540 -0.0235  0.1605 -0.0467
20397W        W63413   1.200   4.390  10.029 -0.1200 -0.2807 -0.2969
20398W        W63414  17.151  13.765  23.951 -0.5681  0.0052  0.0105
20399W        W63415   7.449  10.301  27.216  0.2712  0.1455  0.2934
20400W        W63416   6.543  25.418  25.721  0.1921 -0.1229 -0.2747
20401W        W63417  17.904  13.360  20.921  0.0406 -0.0555  0.0028
20402W        W63418  19.666  11.307   2.162 -0.1985  0.3911 -0.2985
20403W        W63419  30.147  11.107  14.874 -0.1094  0.1059 -0.2177
20404W        W63420  24.440  30.619  28.766  0.1787  0.2733  0.1902
20405W        W63421  13.751  22.222  28.648  0.1601  0.0256 -0.0718
20406W        W63422  18.038  17.706  18.926 -0.3121 -0.2264  0.2701
20407W        W63423  26.601   0.558   1.051 -0.1235  0.0158  0.1041
20408W        W63424  29.093   5.381  16.458 -0.1275  0.0935  0.1657
20409W        W63425  30.487  17.401   1.710 -0.1181  0.1071  0.0843
20410W        W63426  26.840  10.129   9.554  0.3155 -0.1413 -0.0151
20411W        W63427  15.091  32.941  23.507  0.1603  0.0583 -0.0223
20412W        W63428  19.590  34.006   5.568 -0.1092  0.0804 -0.0524
20413W        W63429  20.047  11.675   6.003 -0.0081  0.1352 -0.1451
20414W        W63430  16.567  12.995  24.354  0.0375  0.0062  0.0452
20415W        W63431  33.583   9.653   6.602 -0.1307  0.2137  0.0023
20416W        W63432  26.346  17.133   9.604  0.0108 -0.3067 -0.2133
20417W        W63433  23.111  20.787  14.936 -0.1346  0.6603  0.2557
20418W        W63434   2.020  34.081  18.867 -0.3554 -0.2939  0.1644
20419W        W63435  10.236   0.983   5.013 -0.1930 -0.3310  0.1910
20420W        W63436   5.343   3.638  17.406 -0.1424  0.0449 -0.3043
20421W        W63437  22.507  16.211   7.573 -0.0360  0.0518  0.0952
20422W        W63438  24.890  18.339   8.505  0.0223  0.1139  0.0937
20423W        W63439  32.574   4.403  16.596 -0.0042  0.0118 -0.1760
20424W        W63440  23.528  13.871   8.174  0.0912  0.1600  0.0166
20425W        W63441  29.497  10.096   4.952  0.0942 -0.0224 -0.0888
20426W        W63442  31.583  21.984   9.878 -0.0749 -0.1456 -0.1057
20427W        W63443   5.559  16.121  28.241  0.4970 -0.0979 -0.0690
20428W        W63444  26.564  33.715  28.792 -0.1163 -0.3219 -0.0370
20429W        W63445   9.750   0.914   3.432  0.2059 -0.1843  0.3224
20430W        W63446  16.907  16.715   6.605  0.3559 -0.1251  0.0050
20431W        W63447  21.962  24.392   1.886  0.1053  0.0574  0.1851
20432W        W63448  13.013  23.702   8.953 -0.1340 -0.1684  0.4809
20433W        W63449  30.545  34.060  26.246 -0.2669  0.0755 -0.1551
20434W        W63450  26.407   7.918  27.085  0.3520 -0.1050 -0.1289
20435W        W63451  27.283  26.674  12.101  0.0572 -0.0747  0.0643
20436W        W63452  10.686  15.333   2.129 -0.2663 -0.0925  0.2497
20437W        W63453  11.205  28.234  15.831 -0.0029 -0.2874  0.2358
20438W        W63454  13.831  31.228  20.346 -0.4566 -0.1060  0.0269
20439W        W63455  13.330  34.020   2.175  0.0696  0.0552 -0.0970
20440W        W63456  27.577  27.173  28.701 -0.3665 -0.2305  0.1089
20441W        W63457  23.658  13.086   8.786 -0.0924 -0.0659  0.1510
20442W        W63458   5.901   3.710  27.800  0.1735  0.1916  0.2998
20443W        W63459  12.253  19.145   8.241 -0.1145  0.2210 -0.0022
20444W        W63460   4.432  14.676   2.387 -0.2372 -0.0959 -0.4166
20445W        W63461  11.527  13.069  22.235  0.2064  0.0981 -0.0605
20446W        W63462  24.711   1.529   6.286 -0.3532 -0.3487 -0.1715
20447W        W63463  15.994   2.657  27.964  0.1968  0.3115  0.0379
20448W        W63464   0.976  18.598   7.253  0.0012 -0.0424  0.1774
20449W        W63465  25.670  33.813   8.081  0.1977 -0.5046 -0.0404
20450W        W63466  28.868  13.758   0.681  0.0603 -0.2702  0.1275
20451W        W63467  24.559   3.118   0.760  0.2058  0.0039  0.3148
20452W        W63468  33.752  17.799   6.900 -0.0702  0.1482 -0.2711
20453W        W63469  34.099   4.964  27.144 -0.2149  0.1497 -0.0071
20454W        W63470  15.243   0.157   8.390  0.0278 -0.1196 -0.3835
20455W        W63471  29.191   9.513   3.481 -0.0035  0.3355  0.0675
20456W        W63472   3.237   2.595   2.945 -0.2413 -0.0392  0.1691
20457W        W63473  26.744  13.991   8.113  0.3007  0.1482  0.1255
20458W        W63474  29.698   6.478  21.655  0.0552  0.2456  0.0299
20459W        W63475  20.060   6.045   3.258 -0.4393 -0.4784  0.3499
20460W        W63476  31.886  14.325   8.306  0.0502 -0.4780  0.0052
20461W        W63477   2.930  12.119   0.127 -0.0970 -0.1349 -0.0368
20462W        W63478  30.869  12.171  28.282 -0.1547  0.1067  0.0528
20463W        W63479   0.488   4.092   5.416  0.0552  0.2947 -0.1833
20464W        W63480   5.686   6.491  17.665 -0.1359  0.1911 -0.0096
20465W        W63481  24.845   6.942  15.587 -0.2192 -0.0597  0.0280
20466W        W63482  20.151   9.874   0.255  0.0259 -0.2857 -0.0184
20467W        W63483  24.267  30.773   3.666  0.2048  0.2004  0.0396
20468W        W63484   9.243  22.781   2.466 -0.1038 -0.1727  0.2972
20469W        W63485  15.028  28.891  19.746 -0.1566  0.1443  0.0426
20470W        W63486  27.085  18.985   9.802 -0.0193 -0.0162 -0.1614
20471W        W63487  23.450   8.614   1.309  0.1422 -0.1029 -0.1106
20472W        W63488  27.577   3.269  24.557 -0.3161  0.0560  0.0117
20473W        W63489  23.196   6.465   4.323  0.1189  0.0129 -0.1658
20474W        W63490  34.566  22.846   3.034  0.2263 -0.0838 -0.0945
20475W        W63491  29.601  10.651  27.818 -0.0595 -0.0225 -0.0679
20476W        W63492  22.053   9.156  23.013 -0.0869  0.2650 -0.0143
20477W        W63493  15.692  21.942   2.698 -0.1764  0.1387  0.0402
20478W        W63494  22.543   3.670  28.396 -0.3551 -0.1809  0.2654
20479W        W63495  28.693   3.626  28.495  0.4626 -0.1066  0.0472
20480W        W63496  24.845  11.354   5.668 -0.0040 -0.0054 -0.2295
20481W        W63497   8.225  25.891   6.918  0.2175  0.1841  0.0957
20482W        W63498  23.323   7.243   1.206  0.0576  0.0907 -0.0490
20483W        W63499  16.239  31.570   2.226 -0.2505 -0.0600  0.1759
20484W        W63500  25.316  28.122  11.042 -0.5591  0.1493 -0.1954
20485W        W63501  18.362   2.469   8.266  0.2017 -0.1682 -0.0270
20486W        W63502  26.931  11.898   7.960  0.0978  0.1050  0.1114
20487W        W63503  27.857  33.720  26.705 -0.0488  0.0099  0.1032
20488W        W63504  15.810  14.279   2.759 -0.0844  0.2358  0.1808
20489W        W63505  13.155  16.093   5.381 -0.0436 -0.0505 -0.0433
20490W        W63506  32.918  13.832   0.871  0.0512 -0.2041  0.1588
20491W        W63507  32.684  23.779  29.074 -0.0358  0.0229 -0.3884
20492W        W63508  20.827  29.669  22.029 -0.0414 -0.1629  0.1629
20493W        W63509   7.235   1.664  25.734  0.0208 -0.2497  0.3193
20494W        W63510  31.192  27.785  20.021 -0.0707  0.2400 -0.2352
20495W        W63511  31.168  34.085  19.639  0.0393  0.1347 -0.0047
20496W        W63512  26.938  28.640  27.220  0.1246  0.0307 -0.1565
20497W        W63513  32.659  14.574  28.541  0.0391  0.0688 -0.2295
20498W        W63514  13.925   9.919  23.864  0.0364 -0.0080 -0.0607
20499W        W63515  22.353   4.934   4.369  0.0900 -0.1695  0.0074
20500W        W63516  15.576  13.187   2.930 -0.2389 -0.1820 -0.2839
20501W        W63517  29.995  12.351  23.737  0.0979 -0.3196  0.0356
20502W        W63518  34.475   8.323  16.154  0.3791  0.0740 -0.0895
20503W        W63519  21.847  33.647  28.428  0.5197  0.1642 -0.2169
20504W        W63520  29.602  34.136  25.587  0.2156 -0.0379  0.0764
20505W        W63521  28.504   9.882  28.909 -0.3578  0.3133 -0.2755
20506W        W63522   2.121   9.620   8.899  0.1021  0.0372 -0.2314
20507W        W63523   9.967  33.418   0.408  0.0471  0.1402  0.0232
20508W        W63524  23.799  10.091  22.853 -0.1047  0.2369 -0.1139
20509W        W63525  31.623   5.479   0.552  0.0045  0.0270 -0.2187
20510W        W63526  14.265   9.988  16.444  0.0165  0.2925  0.1022
20511W        W63527  14.933   7.054  29.012 -0.1680  0.1210 -0.0318
20512W        W63528  31.634   9.925  25.300 -0.0182 -0.1057 -0.2726
20513W        W63529  21.694  11.509   3.532 -0.3511 -0.1682  0.1129
20514W        W63530   6.492  32.932   1.398  0.2748 -0.0267 -0.1738
20515W        W63531  12.560   9.079  26.732  0.3405  0.1086 -0.2136
20516W        W63532  20.662  12.807   6.567  0.2064  0.3424 -0.0161
20517W        W63533   1.558  17.734  24.515  0.1267  0.0336 -0.2705
20518W        W63534  15.166   2.606  28.884 -0.2457 -0.1113  0.3163
20519W        W63535   3.226  19.647  28.119 -0.0389  0.1545 -0.1387
20520W        W63536   4.823  33.198  10.097 -0.3501  0.0851  0.2380
20521W        W63537  24.426   3.953   3.219 -0.1439 -0.1473 -0.3508
20522W        W63538  22.000  12.126   2.268 -0.3182  0.1110 -0.1102
20523W        W63539  30.587  16.103   1.968  0.2074  0.0741 -0.0416
20524W        W63540  22.429   3.280  28.796  0.0388 -0.1792  0.1426
20525W        W63541   3.503  13.732  28.016  0.0322 -0.1311 -0.0041
20526W        W63542   6.242  16.263  27.464 -0.0116 -0.0134  0.1769
20527W        W63543  16.058  12.149  19.846  0.1413 -0.1079 -0.2099
20528W        W63544  12.537   5.965   9.243 -0.0281 -0.0332  0.0975
20529W        W63545  22.383   0.301  14.945 -0.3261  0.0227  0.2790
20530W        W63546  23.287   5.585  21.986 -0.2963 -0.0989  0.1765
20531W        W63547   0.577  23.991  26.231  0.0367 -0.1249 -0.2100
20532W        W63548  27.486  26.027   6.238  0.1784  0.1817  0.0294
20533W        W63549  32.756  10.151   3.387 -0.2439 -0.0599  0.0740
20534W        W63550  18.079  10.123   5.652  0.1066  0.1039 -0.0760
20535W        W63551  18.050   7.622   5.887  0.0607  0.0172  0.1056
20536W        W63552   4.613  13.129  22.508  0.0755 -0.3270 -0.0039
20537W        W63553  22.195  18.586   4.890  0.2275  0.1517 -0.2337
20538W        W63554  19.753   0.031  16.671  0.1035 -0.1862 -0.0228
20539W        W63555  26.798  30.603  23.995  0.1243 -0.0996 -0.3608
20540W        W63556  19.714  14.221   1.234 -0.3667  0.1451  0.2749
20541W        W63557  20.983  31.786   3.486 -0.0424 -0.1222 -0.0234
20542W        W63558  29.420   2.076   6.822 -0.0493  0.0131  0.2643
20543W        W63559  24.194  33.011  23.898  0.0812 -0.3416 -0.1421
20544W        W63560   6.272   7.907  28.461  0.1253  0.1474  0.1385
20545W        W63561   8.801   3.199  26.180  0.3697 -0.3222  0.2451
20546W        W63562  25.402   9.061   3.878 -0.2504 -0.2190 -0.1332
20547W        W63563  28.350  12.196   2.249  0.0975 -0.1144 -0.3390
20548W        W63564  25.308  27.791   8.533  0.0703  0.1604 -0.1886
20549W        W63565  28.466  21.256   7.019 -0.1298 -0.2293  0.0771
20550W        W63566  19.433   6.879   9.787 -0.1335  0.2744  0.0351
20551W        W63567  27.328  10.694   5.868 -0.1876 -0.0811 -0.3851
20552W        W63568   4.634  15.158   2.332  0.0498  0.0314 -0.0083
20553W        W63569  14.303   6.497   8.945 -0.0037  0.1226  0.2195
20554W        W63570  24.461  14.895   9.704  0.0607 -0.0388  0.0098
20555W        W63571  26.569   0.962   7.105  0.0458  0.0840  0.0795
20556W        W63572   6.465  15.542  25.539  0.3748 -0.2135 -0.0174
20557W        W63573  28.887  22.971   0.653 -0.1421  0.3234  0.3803
20558W        W63574  28.098  32.848  28.609 -0.0148  0.0438 -0.0981
20559W        W63575   4.436   6.184  28.910  0.2018  0.2707  0.2402
20560W        W63576  17.860  22.224  20.236 -0.0035 -0.0426  0.0686
20561W        W63577   5.033   9.532  22.689 -0.3009 -0.2141  0.0304
20562W        W63578   7.785  34.628   1.071 -0.1078  0.1711  0.1173
20563W        W63579  33.286   6.836   8.717 -0.1520  0.0376  0.0266
20564W        W63580   2.311   5.673  25.740  0.2101  0.0893 -0.0917
20565W        W63581  23.397  31.697   9.223 -0.0430 -0.0413  0.0046
20566W        W63582  31.058  34.467   7.842  0.2218  0.1787 -0.4323
20567W        W63583  30.849  30.605  24.712  0.0836  0.2014  0.3465
20568W        W63584  17.223  24.534  24.977 -0.0533  0.2365 -0.0285
20569W        W63585  32.694  17.998  16.725  0.0631  0.0533 -0.0283
20570W        W63586  12.907  34.007   0.080 -0.0499  0.1495 -0.1025
20571W        W63587  12.648  18.601  24.944 -0.1001 -0.1927 -0.1207
20572W        W63588  21.172  13.218  21.246 -0.1741 -0.0840  0.0375
20573W        W63589  32.323  10.521  25.500  0.2329 -0.1146  0.2123
20574W        W63590   2.051   9.277  26.543 -0.2420 -0.1538  0.3961
20575W        W63591  17.042  33.502   5.800 -0.0815 -0.0033  0.0930
20576W        W63592  24.322   6.857  10.269  0.1372  0.0073  0.1311
20577W        W63593   5.387   6.666   2.934 -0.2092  0.2672 -0.1247
20578W        W63594  18.864  33.322  26.298  0.1329  0.0995 -0.0619
20579W        W63595  24.534   5.420   7.626 -0.3306  0.1297 -0.1687
20580W        W63596  25.514   4.138   6.318 -0.0879  0.2333  0.3914
20581W        W63597  20.358  12.608   3.830 -0.1589 -0.0203  0.3582
20582W        W63598  20.768   7.851  24.607 -0.2942  0.3305  0.1615
20583W        W63599  19.328   9.298  28.595 -0.5408 -0.1252  0.2807
20584W        W63600   0.067  16.602   2.615 -0.1640 -0.1397  0.1395
20585W        W63601  13.066  30.680  27.763  0.0433  0.2523 -0.0890
20586W        W63602  21.239   1.429  20.567 -0.2158  0.0941 -0.0707
20587W        W63603  13.533  23.346  24.696  0.2642  0.5796  0.0451
20588W        W63604  12.088   6.167  28.852 -0.3579 -0.0450 -0.2520
20589W        W63605   5.818   5.807   1.514 -0.0342 -0.1645  0.0881
20590W        W63606  27.489   8.528   7.431  0.0099  0.1305 -0.1625
20591W        W63607  21.876  11.340   2.568  0.1027  0.4406 -0.1195
20592W        W63608   0.792  23.965  29.125 -0.0295 -0.2900  0.2494
20593W        W63609  12.584   6.386   3.723 -0.0064  0.0458  0.0940
20594W        W63610  29.955  13.658   9.828  0.0463 -0.3892  0.1147
20595W        W63611  32.784   9.432  16.212  0.0560 -0.1965  0.0317
20596W        W63612  19.421  32.535   3.496  0.2328 -0.0053 -0.3263
20597W        W63613  23.279   4.052   0.846  0.2452 -0.1629  0.0671
20598W        W63614  22.145  13.810  18.589 -0.1411 -0.1395 -0.1708
20599W        W63615  20.475  12.827  25.862 -0.0522  0.2015  0.1991
20600W        W63616  25.042  34.429  27.838  0.0131 -0.1588  0.2010
20601W        W63617  21.324   4.301  28.629  0.0062  0.1679  0.1123
20602W        W63618  10.524   3.741  18.575 -0.0662 -0.1057 -0.1046
20603W        W63619  20.305   2.354   6.799  0.4133  0.2307 -0.2290
20604W        W63620  12.002  19.306  26.303  0.1197 -0.0496  0.0248
20605W        W63621  30.651  28.259   8.414  0.1650  0.1173 -0.0092
20606W        W63622  31.132  32.145   9.639  0.5750  0.1504  0.0218
20607W        W63623  25.424  27.017  28.238  0.1053  0.0757 -0.2499
20608W        W63624  16.843   6.831   7.386 -0.1661 -0.0023  0.1390
20609W        W63625   7.060  18.570  27.267 -0.1619  0.2794  0.2465
20610W        W63626   4.887   3.713   0.999  0.2335  0.1061 -0.0291
20611W        W63627  24.723   9.294   7.254  0.1090  0.0233 -0.0474
20612W        W63628   8.555   4.478  21.456 -0.1766 -0.0153  0.4930
20613W        W63629   4.119  32.552   4.976  0.2414 -0.0134  0.1343
20614W        W63630  31.264  18.603   3.671 -0.3509  0.1179  0.0676
20615W        W63631  17.619  28.969   2.187  0.0392 -0.1402 -0.0063
20616W        W63632   0.757  11.611  20.418 -0.1216 -0.0577 -0.1672
20617W        W63633  10.234  26.702  26.171  0.0555 -0.1797  0.3713
20618W        W63634  12.241  17.786  14.773  0.0422 -0.0577  0.0786
20619W        W63635  15.254   9.997   4.753  0.0448 -0.1100 -0.1211
20620W        W63636  24.959  12.336  28.539 -0.0900  0.0825  0.2564
20621W        W63637  17.117  25.517   0.958 -0.3704  0.4113 -0.1166
20622W        W63638  21.960   7.364   4.373  0.2818 -0.0271  0.3399
20623W        W63639  27.432   2.536   1.459  0.1326 -0.3968 -0.0213
20624W        W63640  16.734  10.599  19.214  0.0799  0.0994  0.3217
20625W        W63641   6.397   2.821  19.219  0.2105 -0.3016 -0.0737
20626W        W63642   3.234  14.035   9.695  0.1031  0.3315  0.1262
20627W        W63643  24.519  14.034   7.484  0.2310  0.0614 -0.3160
20628W        W63644  21.273   1.940  10.102  0.1176 -0.2277 -0.0530
20629W        W63645  17.812  13.747  27.725 -0.2583 -0.1189  0.0957
20630W        W63646  34.514  34.034   8.083  0.0045 -0.0655 -0.1821
20631W        W63647  17.900   1.380  20.950 -0.1539  0.0280 -0.0308
20632W        W63648  22.405   8.371   9.564  0.3364  0.0565  0.2714
20633W        W63649  17.026  31.653   8.367  0.1274  0.3755  0.3151
20634W        W63650  24.793  14.624   8.688 -0.2472 -0.0297 -0.1993
20635W        W63651   1.248  22.964   4.586 -0.0077 -0.0035  0.0576
20636W        W63652  15.194   8.049  27.860 -0.0395  0.0424  0.0617
20637W        W63653  32.213   7.041   0.888 -0.1225 -0.0615  0.3350
20638W        W63654  24.871  10.281   9.036 -0.1340 -0.0480 -0.0188
20639W        W63655  26.114  26.432   8.091 -0.1743  0.0322  0.1144
20640W        W63656  11.744   1.622  25.141 -0.2848 -0.4238 -0.0670
20641W        W63657  21.361  22.713  20.712 -0.2742 -0.0365 -0.3750
20642W        W63658   8.886   0.835  28.101 -0.1010  0.0776  0.1491
20643W        W63659  24.110  32.646  10.215 -0.3777 -0.0666 -0.0949
20644W        W63660  27.130   5.680  19.245 -0.1019  0.0189  0.0711
20645W        W63661  19.155   9.459   2.638  0.0646  0.1007 -0.4408
20646W        W63662  31.697   6.804   5.327  0.2171  0.0907  0.1941
20647W        W63663  24.966   2.835  23.360 -0.3199  0.2092  0.3279
20648W        W63664   3.523  31.945   6.536 -0.3846  0.1209  0.1236
20649W        W63665   3.056   0.877   3.408  0.1230  0.3079 -0.1588
20650W        W63666  21.153  14.614  18.733  0.1232  0.0530  0.1400
20651W        W63667   1.616   3.310   1.118  0.1240 -0.1123  0.1588
20652W        W63668  21.843  26.342   5.202 -0.0625  0.2499 -0.1846
20653W        W63669  27.991   3.118   0.862 -0.1362 -0.1851  0.2940
20654W        W63670  26.940  26.406   6.781 -0.1183  0.2747 -0.0136
20655W        W63671  28.495  18.397   7.125  0.0384  0.0353  0.3084
20656W        W63672  26.157   2.929   6.312  0.0967  0.2419 -0.1539
20657W        W63673   2.485  31.121  10.741  0.1419  0.1905  0.2763
20658W        W63674  22.949   2.026   7.533  0.0890 -0.0361  0.2035
20659W        W63675  26.423   4.017   7.807 -0.1221  0.0118  0.1573
20660W        W63676   5.696   9.297   4.356  0.0895  0.2030  0.1587
20661W        W63677  19.571  12.572   2.109  0.4487  0.0224 -0.1124
20662W        W63678  28.382   3.644   3.553  0.5584 -0.0210 -0.2734
20663W        W63679   3.444   5.404  24.625 -0.1768 -0.1527  0.1586
20664W        W63680  30.866  22.286   7.838  0.1636  0.0665  0.1230
20665W        W63681  17.783  34.288   8.466  0.1749 -0.0020 -0.1375
20666W        W63682  30.832   7.767   7.332 -0.2133  0.3764  0.1575
20667W        W63683   9.010  13.464   8.619  0.0754  0.1017  0.0541
20668W        W63684   0.297   6.775  23.777  0.1148 -0.0976  0.0141
20669W        W63685  30.591  31.152  22.818  0.0129  0.1212  0.2532
20670W        W63686  31.846  19.314   1.547  0.0189 -0.2496 -0.1281
20671W        W63687  23.965  17.508  25.156  0.0276 -0.4867 -0.2108
20672W        W63688  17.022   3.050  29.046 -0.1257  0.0438  0.1579
20673W        W63689  22.578  33.769   6.688  0.1864  0.2132  0.0181
20674W        W63690  17.914  12.186  20.680  0.4274 -0.2402 -0.0636
20675W        W63691  31.219   7.835   1.463  0.0789 -0.3649 -0.3380
20676W        W63692   0.291   8.048   9.762  0.0224  0.0998  0.0233
20677W        W63693   1.707   1.281  17.300  0.1555 -0.4794  0.1659
20678W        W63694  20.710   7.671   2.699 -0.0428  0.1648 -0.3793
20679W        W63695  20.283  21.865   7.319 -0.3931 -0.3166 -0.0625
20680W        W63696   9.095   5.944   8.825 -0.1043 -0.2130  0.1339
20681W        W63697  21.114   7.537   9.048  0.1826  0.4964 -0.0884
20682W        W63698  24.141   5.478   8.050  0.0057 -0.1933 -0.3910
20683W        W63699  31.600  12.887   1.978 -0.2084  0.0942  0.0354
20684W        W63700   1.050   5.861  29.096 -0.0680  0.1088  0.1630
20685W        W63701  15.569   1.549   9.212  0.1655 -0.1119  0.2291
20686W        W63702  14.986  25.009   5.958 -0.0326  0.2241 -0.3079
20687W        W63703  25.489   2.657  21.254  0.1592  0.1225  0.1211
20688W        W63704  25.050   8.996   5.178  0.0803 -0.0317  0.0758
20689W        W63705  25.269   7.704   7.222 -0.0279  0.2505  0.2521
20690W        W63706  25.760  32.744   0.888 -0.1004 -0.2953  0.1521
20691W        W63707  16.830   4.036  26.605  0.0569 -0.1198  0.0319
20692W        W63708  28.399  12.191   8.624  0.2184  0.0665 -0.2458
20693W        W63709   2.539   3.311   2.927 -0.1386  0.0999 -0.1239
20694W        W63710  31.723   4.441   9.211 -0.2047  0.1502 -0.2865
20695W        W63711  34.312  11.437  24.120 -0.0088  0.0746  0.1363
20696W        W63712  33.078   6.521  14.588 -0.0643 -0.0166  0.2072
20697W        W63713  25.077  32.164   5.814  0.3486 -0.0673 -0.1200
20698W        W63714  24.042   5.481  10.996  0.1015  0.0999  0.2029
20699W        W63715  10.352   8.216  28.496 -0.2781 -0.1157  0.0630
20700W        W63716  26.241   7.591  28.759  0.0845 -0.0520 -0.2033
20701W        W63717  14.189   1.860   1.118  0.0674 -0.0141 -0.1242
20702W        W63718  21.707  21.115   4.808 -0.2000  0.0272 -0.1708
20703W        W63719  32.007  33.128   9.578 -0.1523  0.0320 -0.1992
20704W        W63720  24.060  19.249   0.645 -0.2277  0.1125 -0.0669
20705W        W63721  28.071  11.887   6.487  0.3427 -0.3245 -0.1586
20706W        W63722  29.723  22.778   0.180  0.3942  0.0713  0.1610
20707W        W63723  25.231   1.524  26.973 -0.0470 -0.0688 -0.1905
20708W        W63724   5.503  12.618   0.678  0.0352  0.4367  0.2301
20709W        W63725  21.476   5.210   9.821  0.2646 -0.2389 -0.3474
20710W        W63726  25.442  20.070  10.461 -0.1265 -0.1265  0.1304
20711W        W63727   0.157  14.713   8.634 -0.0111 -0.0696  0.0582
20712W        W63728  16.950  15.542  25.672  0.0136  0.1931 -0.0254
20713W        W63729  14.263  12.039   7.748 -0.0332 -0.1759 -0.3502
20714W        W63730  12.459  25.597   3.627 -0.0468 -0.1764 -0.1565
20715W        W63731  25.986  17.345   2.249 -0.1227  0.1124  0.0065
20716W        W63732  28.282   8.015   0.613 -0.0579  0.3070  0.3326
20717W        W63733   0.557   6.055   1.185 -0.0731 -0.1902 -0.1418
20718W        W63734  18.161  16.805   2.394  0.2433 -0.0360  0.1255
20719W        W63735   4.346   6.232   0.712 -0.4123 -0.1719 -0.0050
20720W        W63736  19.103  19.460   7.292 -0.0834 -0.1197  0.2921
20721W        W63737  14.398   6.087  14.564  0.0453 -0.0546  0.1185
20722W        W63738  22.776  14.074  29.118 -0.4452 -0.0004  0.2028
20723W        W63739  10.846  20.199   3.201  0.2511 -0.0547  0.0762
20724W        W63740  30.244   5.060   4.632  0.1317 -0.0226 -0.2177
20725W        W63741   2.559  16.436  20.880  0.2311 -0.0076 -0.3109
20726W        W63742  27.704  33.638   3.572 -0.4275  0.0755 -0.1810
20727W        W63743  29.111  10.396  10.288  0.2466 -0.1240 -0.2448
20728W        W63744   7.500   4.781   0.532 -0.0763  0.1563 -0.0658
20729W        W63745  22.823  16.460   7.115  0.2890 -0.0314  0.1954
20730W        W63746  20.770  26.848   1.327 -0.0019  0.1833 -0.1253
20731W        W63747  27.488   1.720   2.516 -0.0602 -0.0174  0.4429
20732W        W63748  28.751   1.849  16.143 -0.4610 -0.0252 -0.2392
20733W        W63749   1.810  33.466   3.571  0.1783 -0.1346 -0.1892
20734W        W63750   0.052  14.834   6.450  0.2583 -0.0780  0.0318
20735W        W63751  12.158  11.331  17.353 -0.0758  0.2412 -0.0428
20736W        W63752  30.507   6.987   8.446 -0.3396 -0.0174 -0.0915
20737W        W63753  24.859   1.746   4.057 -0.0623 -0.0517 -0.2913
20738W        W63754  19.574   4.890  14.706 -0.1759  0.0965 -0.0427
20739W        W63755  24.424  17.820  28.694 -0.4951  0.0533 -0.2356
20740W        W63756  20.382  15.362  22.575 -0.0337  0.1522  0.2115
20741W        W63757  13.485  32.597   2.156  0.0884 -0.1381  0.1555
20742W        W63758  21.505  27.276   1.672 -0.0548  0.3045 -0.1594
20743W        W63759  32.689  20.220   7.949 -0.1448  0.2313 -0.2736
20744W        W63760  20.276  10.004   6.615 -0.1451  0.0294 -0.2143
20745W        W63761  12.598   7.785   6.526  0.0529  0.2076 -0.1166
20746W        W63762  27.401   7.157   0.980  0.3282 -0.3458  0.1348
20747W        W63763  22.082  24.944  27.630  0.3069  0.0551  0.0511
20748W        W63764   4.923   5.647   9.513 -0.2304 -0.1142  0.2098
20749W        W63765  27.383  13.358  24.596  0.3016 -0.1161  0.3913
20750W        W63766  15.532   5.796   7.544 -0.2419 -0.1931 -0.1469
20751W        W63767  32.056   6.375  21.636 -0.3238 -0.2328 -0.0473
20752W        W63768  30.175  22.959  17.520 -0.3964  0.0537 -0.4072
20753W        W63769   8.906  34.101   1.831  0.1776  0.1535 -0.6090
20754W        W63770   0.615  28.213   7.980  0.0506 -0.1248 -0.1981
20755W        W63771  15.173   3.826   6.418  0.0640 -0.1068 -0.0299
20756W        W63772  29.781  23.461   8.350 -0.3831  0.2352 -0.1620
20757W        W63773  15.866  12.849   0.196 -0.0377  0.1936 -0.2820
20758W        W63774  31.494  34.351   4.328  0.1120 -0.3468  0.0311
20759W        W63775  28.312  13.504   7.297 -0.0211  0.1497  0.0442
20760W        W63776  29.132   9.798   0.417 -0.1342 -0.2725 -0.0316
20761W        W63777  21.365  32.051   9.495 -0.3861 -0.1966 -0.0015
20762W        W63778  30.953  25.733   1.329 -0.2495 -0.3038 -0.0525
20763W        W63779  16.754   5.860   7.121 -0.3283  0.1010  0.2111
20764W        W63780  14.348   2.099   0.661 -0.0918  0.2593 -0.0076
20765W        W63781  17.657  10.546   5.694 -0.3201 -0.2071 -0.1602
20766W        W63782   4.603  21.824   3.279 -0.5329  0.0895 -0.2565
20767W        W63783  27.678  10.732  16.095 -0.2905 -0.1885 -0.4773
20768W        W63784  24.399  16.819   1.138 -0.0009 -0.1155 -0.3790
20769W        W63785  18.492  16.617  25.380 -0.1830 -0.0962  0.1127
20770W        W63786  25.278  26.296   0.806 -0.2587  0.2330 -0.1603
20771W        W63787  32.064  23.895   4.390 -0.0681 -0.1649  0.1985
20772W        W63788  15.866  13.475  21.617 -0.1181  0.0876  0.3859
20773W        W63789  11.803   3.147   1.521  0.2967  0.3323  0.0708
20774W        W63790  11.269  11.503   2.751  0.0329  0.1505 -0.2264
20775W        W63791   3.965  10.682   9.057 -0.1506  0.1763  0.0019
20776W        W63792  32.100  25.571  16.112 -0.1645 -0.0777 -0.1036
20777W        W63793  14.593   3.937   2.264  0.0064 -0.1037  0.3762
20778W        W63794  14.708  30.237  22.021  0.0921 -0.2758  0.1746
20779W        W63795  21.436  14.793   7.211  0.4541 -0.0666  0.2017
20780W        W63796  15.515   7.964  24.013 -0.0195  0.1615 -0.1800
20781W        W63797  20.623   6.468   3.907  0.1244 -0.2520 -0.3424
20782W        W63798  22.380  12.771   5.760  0.0366 -0.1044 -0.1996
20783W        W63799  26.661  30.172   9.391  0.2588 -0.1798 -0.1471
20784W        W63800   3.051  22.185   6.488 -0.2523 -0.1838  0.1655
20785W        W63801   4.112   0.306   1.336 -0.1586  0.2383 -0.0839
20786W        W63802  24.799   9.587  28.319 -0.2078 -0.0844  0.0426
20787W        W63803  24.077  16.014   4.429 -0.1477 -0.1188 -0.1583
20788W        W63804  31.947  32.796  26.270  0.1121 -0.2157 -0.2312
20789W        W63805   7.540  33.245   4.481 -0.2266 -0.0180  0.3289
20790W        W63806   2.249   3.237   4.682 -0.1198  0.4127  0.0595
20791W        W63807   7.794   2.868  10.153 -0.2371  0.1882  0.1854
20792W        W63808  17.823  13.317  28.537  0.0537 -0.1005 -0.1089
20793W        W63809  21.464   7.269  15.373  0.2301 -0.0976 -0.0595
20794W        W63810  14.338  33.973   8.967 -0.1334 -0.1838  0.2541
20795W        W63811  21.982  26.880  25.385  0.0452  0.3368 -0.0145
20796W        W63812  29.610   3.425  28.367  0.0237  0.0439 -0.0648
20797W        W63813  12.018  14.185   6.148  0.2051  0.1991  0.1311
20798W        W63814  14.198   3.385   3.347 -0.0336  0.0992  0.0464
20799W        W63815  33.536  15.562  25.646 -0.0883  0.1356 -0.0015
20800W        W63816  12.844   4.244   2.468  0.0144 -0.1478 -0.1332
20801W        W63817  12.910  30.684  15.220  0.1880  0.1271 -0.1657
20802W        W63818  23.180   1.488   6.900  0.0696 -0.1241 -0.1998
20803W        W63819  14.107  30.479   8.003 -0.2002 -0.1710  0.1964
20804W        W63820   7.287   0.564  28.204  0.0945 -0.4900 -0.3640
20805W        W63821  17.850  23.571  20.579  0.0573  0.4631  0.0414
20806W        W63822   5.390   0.333   5.080 -0.0064  0.1595  0.0242
20807W        W63823  30.410  16.833   4.936 -0.2014 -0.0697  0.3730
20808W        W63824  13.568   4.751   2.629 -0.3020  0.1005  0.1860
20809W        W63825   5.185  10.396   2.159  0.0038  0.0503  0.0420
20810W        W63826   9.637  21.278   2.551 -0.0419 -0.0668  0.1463
20811W        W63827  30.479   6.805  18.496  0.0948  0.0090 -0.1341
20812W        W63828  19.464   9.666   7.023 -0.0341  0.1066  0.1356
20813W        W63829  25.708   3.919   0.172  0.2412  0.2446 -0.1122
20814W        W63830  21.006  30.326  27.605 -0.1941  0.4268 -0.1993
20815W        W63831   1.637  17.829   5.153  0.3435  0.1280 -0.0966
20816W        W63832  22.391   9.019  17.903  0.1469 -0.1998  0.1381
20817W        W63833  24.163  21.144  17.226 -0.0305 -0.0012  0.2144
20818W        W63834  29.709   8.770   5.974  0.3890  0.0911 -0.2538
20819W        W63835  17.772  32.741   5.657  0.1471  0.0683 -0.1092
20820W        W63836  24.917  18.252   3.399 -0.1025 -0.0262  0.2785
20821W        W63837  19.884  12.847   2.468 -0.0304 -0.3200  0.4461
20822W        W63838  15.551  31.692  20.587 -0.1279 -0.2753 -0.0770
20823W        W63839  21.140   4.732  10.241 -0.1001 -0.3999  0.1142
20824W        W63840  32.768   4.941   1.633  0.1132  0.0412  0.1890
20825W        W63841  12.273  14.357   5.738  0.0665  0.2384 -0.1852
20826W        W63842  18.613  30.364  26.519  0.0761 -0.0722 -0.0856
20827W        W63843  32.084  31.477   5.411 -0.0043  0.1065 -0.0408
20828W        W63844  33.223  12.750  26.569 -0.0806 -0.1942  0.1762
20829W        W63845  28.064  16.285   2.754  0.1945  0.0848  0.3459
20830W        W63846  16.069  16.024  14.267  0.4001 -0.1522 -0.1151
20831W        W63847  14.744  28.989  10.335  0.0578 -0.2476 -0.0562
20832W        W63848  30.239  13.833   8.812  0.1074  0.1736  0.0947
20833W        W63849  28.087  27.271  27.208  0.2608 -0.1298  0.3623
20834W        W63850   3.520  14.562  23.951 -0.0958 -0.4143  0.3219
20835W        W63851  21.891   7.937   0.094  0.1571 -0.2631  0.0280
20836W        W63852  29.653   9.702  25.228  0.0919 -0.2025 -0.0926
20837W        W63853  17.689   4.339   7.744 -0.2674 -0.2437  0.0284
20838W        W63854  21.466  13.951   9.220  0.1499 -0.1153  0.2135
20839W        W63855   0.723  13.024   2.228  0.0379  0.1779  0.0959
20840W        W63856   0.880   1.052   2.644 -0.1432  0.0571 -0.1493
20841W        W63857  22.448   7.754  28.748  0.2842 -0.0688  0.2938
20842W        W63858  20.927  21.832   4.478  0.0421  0.0193 -0.0266
20843W        W63859  25.003  15.133  14.932  0.1846 -0.4201  0.0167
20844W        W63860  16.257  26.330   8.170  0.4677  0.0260  0.0691
20845W        W63861  22.467   9.545  23.588 -0.0060 -0.0324  0.0342
20846W        W63862  33.171   0.070  29.211  0.1289  0.0927 -0.2624
20847W        W63863  30.743  31.840  20.778 -0.2779  0.2248 -0.1029
20848W        W63864  16.907  11.805   1.887 -0.2945  0.2336 -0.0061
20849W        W63865  21.930  25.023   9.399  0.0571  0.2693 -0.4401
20850W        W63866  28.069  22.457   8.826  0.1372  0.1591 -0.0765
20851W        W63867  24.385  10.908  21.894 -0.1520 -0.0180 -0.3142
20852W        W63868  21.279  11.663  24.853  0.1447  0.0703  0.0328
20853W        W63869  18.347  32.805   7.889  0.1704  0.0718 -0.1823
20854W        W63870   7.423  32.427   2.309  0.0488  0.1136  0.0586
20855W        W63871  13.309  31.959   6.901  0.1142  0.1633  0.0202
20856W        W63872   9.328   7.506   0.777 -0.2483 -0.1032 -0.0757
20857W        W63873  19.119  29.295   8.870  0.0569 -0.0212  0.3590
20858W        W63874  20.284  22.512   5.535  0.0346 -0.1220  0.1603
20859W        W63875  34.292   7.726   3.017 -0.1785 -0.2889  0.0817
20860W        W63876  33.547  30.347   4.698  0.1794 -0.0313 -0.0060
20861W        W63877  18.410   7.059  29.308 -0.0895  0.0705  0.1042
20862W        W63878  21.903  30.297  21.111 -0.0135 -0.1943  0.3254
20863W        W63879  16.840  12.591   3.865  0.2069  0.1583  0.1546
20864W        W63880   9.221   4.419   3.242 -0.0548  0.1290 -0.1042
20865W        W63881  27.439  19.372   7.027 -0.1472 -0.0058 -0.0298
20866W        W63882  33.633   9.035  10.154 -0.2955 -0.0562 -0.0900
20867W        W63883  15.335  31.693   8.091 -0.2003 -0.0904  0.1450
20868W        W63884  25.744  11.454   4.975  0.2475 -0.0138  0.0042
20869W        W63885  30.202   7.268  21.861 -0.2622  0.0193  0.0701
20870W        W63886   9.640   5.714   9.884 -0.2789 -0.0282  0.2310
20871W        W63887  29.043  33.956   0.752 -0.0501 -0.0297  0.1736
20872W        W63888  16.468  24.827   5.957  0.1353  0.3360  0.0456
20873W        W63889  17.491   5.746  29.076  0.0929  0.0500 -0.1268
20874W        W63890  31.924  12.779  20.484 -0.1229 -0.1288  0.0525
20875W        W63891   0.940   6.884  24.240 -0.1072  0.1183 -0.0051
20876W        W63892  14.154   5.255   5.777 -0.1156 -0.0007 -0.2143
20877W        W63893  31.604  27.283   3.765 -0.0360 -0.0204 -0.1868
20878W        W63894  15.792   8.603   7.287  0.2782  0.0119 -0.0975
20879W        W63895  31.874   3.254   5.264 -0.0283  0.0727  0.1838
20880W        W63896  12.703  34.638  18.081  0.0500  0.0158  0.0226
20881W        W63897   2.632  18.522   6.317 -0.0916 -0.0587  0.2738
20882W        W63898  27.574  14.608   7.824 -0.1152 -0.0393  0.2058
20883W        W63899  27.765  15.424   7.609 -0.3049  0.1253 -0.0767
20884W        W63900  29.697   1.671   7.130  0.2594  0.1336 -0.5541
20885W        W63901   8.151  14.017   6.149 -0.1022  0.0859  0.0987
20886W        W63902  30.473   1.568  23.122 -0.1307 -0.2228 -0.2768
20887W        W63903   0.477  11.800   6.934 -0.0001 -0.1017 -0.0780
20888W        W63904  12.444   0.580  19.422  0.0116 -0.0292 -0.1827
20889W        W63905  29.242  10.490   6.769  0.2033 -0.1322 -0.0944
20890W        W63906  12.172   7.904   2.572  0.2189  0.1389 -0.0405
20891W        W63907  27.706   4.626   9.178 -0.0738 -0.1168 -0.2234
20892W        W63908  34.019   4.427   0.100 -0.0214  0.4947 -0.0307
20893W        W63909  24.637   9.374   3.242  0.0234 -0.0695 -0.1341
20894W        W63910  27.584   3.390   7.813 -0.1343 -0.2489 -0.4667
20895W        W63911  17.782  32.917  20.505  0.0075  0.1503  0.0656
20896W        W63912  24.860  13.696   4.655  0.1803 -0.0091  0.0573
20897W        W63913  32.483   9.266  28.841 -0.0250  0.0430 -0.1879
20898W        W63914  31.603  32.995  18.260  0.3650  0.0507 -0.2136
20899W        W63915  23.786   0.896  10.149  0.0494  0.4425 -0.0327
20900W        W63916  28.225  23.377   6.920  0.0113  0.0388  0.2832
20901W        W63917  20.668   7.021   7.200  0.0388 -0.2981  0.3816
20902W        W63918  15.909  33.785  10.337 -0.1568  0.1293  0.0244
20903W        W63919  10.901   8.232   1.637  0.1190  0.1250  0.0455
20904W        W63920  28.132   9.037   0.867  0.1680 -0.2629  0.0031
20905W        W63921  32.182  22.509   3.693 -0.2048  0.0292  0.3985
20906W        W63922  24.453   4.326   9.646  0.1057 -0.0848  0.2207
20907W        W63923  11.891  31.202   9.306  0.1589  0.1945  0.0949
20908W        W63924  31.840  16.542  27.026 -0.2571 -0.0990  0.1775
20909W        W63925  27.539  27.897   8.256  0.0036 -0.2384  0.0078
20910W        W63926  22.053  14.913   9.671  0.0006 -0.4216  0.0406
20911W        W63927  25.806  32.299   1.193  0.0262  0.0015  0.1456
20912W        W63928  28.157  11.640  16.111  0.1420  0.1878  0.0952
20913W        W63929  13.502  26.061   5.442  0.0884  0.4222 -0.2024
20914W        W63930  28.054   2.786   9.062 -0.2178 -0.2147  0.0597
20915W        W63931  27.330  22.837   6.419 -0.1607 -0.0677 -0.2825
20916W        W63932  19.093   2.613   6.392  0.1691  0.1513  0.0237
20917W        W63933  22.533  12.081   3.450  0.1728 -0.0239  0.0857
20918W        W63934  25.525  20.598   7.643 -0.0922 -0.2684  0.3207
20919W        W63935   8.671  17.716   1.818 -0.0942  0.0550 -0.1626
20920W        W63936  28.458   1.198   5.953 -0.1387  0.0292 -0.0706
20921W        W63937  18.572   9.411  25.625  0.1196  0.0351  0.0933
20922W        W63938  17.708   2.895  23.060 -0.1510 -0.1125  0.2445
20923W        W63939  17.931   9.657   6.021 -0.2486  0.1645  0.1013
20924W        W63940  24.030   1.597   7.915 -0.1527 -0.2225  0.2725
20925W        W63941  24.955   1.145  29.238  0.1657  0.2453 -0.1685
20926W        W63942  19.841   4.812  20.222 -0.1956  0.0160 -0.2578
20927W        W63943   2.342  10.945   9.060  0.2642 -0.2615  0.0861
20928W        W63944  34.484   5.907   9.766 -0.0196 -0.2218 -0.1947
20929W        W63945  20.292  34.724   7.038 -0.1913 -0.2089  0.0469
20930W        W63946  15.047   3.982  29.237  0.0752 -0.0435  0.3298
20931W        W63947  21.888  34.323  27.282 -0.0450  0.0053  0.2197
20932W        W63948   3.724   8.640   0.903 -0.1756 -0.0293  0.3986
20933W        W63949  26.728   2.959   9.967 -0.2682  0.1811 -0.2293
20934W        W63950  32.072  13.098   1.482 -0.3093  0.0814 -0.2675
20935W        W63951  13.847   3.004   7.563 -0.0462 -0.1259  0.0298
20936W        W63952  28.259   6.385  28.836  0.1930  0.0963 -0.1805
20937W        W63953   1.782  14.082   7.765 -0.0125  0.1301 -0.0145
20938W        W63954  30.273  12.881  22.478  0.0448 -0.5812  0.0242
20939W        W63955  18.778  26.745  18.501 -0.0679 -0.3112 -0.0032
20940W        W63956  12.989   1.381   5.438 -0.0287 -0.0619 -0.0219
20941W        W63957  27.719  33.344   5.357  0.3720 -0.0831  0.1190
20942W        W63958  10.360   7.505   9.017 -0.1559 -0.0418  0.2092
20943W        W63959  13.267   5.607   8.385  0.2173  0.1055 -0.2465
20944W        W63960  18.167   6.065   1.455  0.0545 -0.2850 -0.4517
20945W        W63961   9.626   8.696   7.536 -0.0093  0.3059 -0.3597
20946W        W63962  29.097   1.431   1.284  0.1457 -0.1089  0.1841
20947W        W63963  28.055   7.281  25.045 -0.1146 -0.4167  0.0772
20948W        W63964  12.662  34.485   7.735  0.1115 -0.0720 -0.1515
20949W        W63965  23.100   4.453   2.317 -0.2844  0.1138 -0.0183
20950W        W63966  31.711   9.715   2.250 -0.2020  0.2390 -0.2392
20951W        W63967  10.120  17.616   8.532 -0.0435 -0.1269 -0.1391
20952W        W63968  25.998  31.812   4.456  0.3192 -0.2560 -0.1141
20953W        W63969  29.243  10.265   8.047  0.2000 -0.1626  0.0117
20954W        W63970  28.115   3.205  11.363  0.2277  0.3233 -0.0711
20955W        W63971  11.436  13.263  13.100  0.1079 -0.4914  0.4707
20956W        W63972  28.464  10.034   5.165 -0.0126 -0.2121  0.0434
20957W        W63973  22.748  33.163   5.223 -0.3774  0.0802 -0.0147
20958W        W63974  16.493   5.861   9.545  0.1342  0.0743 -0.0796
20959W        W63975  26.007  20.856  14.452  0.0233 -0.2190 -0.4435
20960W        W63976  22.568   9.507  16.018  0.0295  0.1455 -0.0859
20961W        W63977  27.095  34.130   0.628  0.0721  0.0648 -0.0104
20962W        W63978  25.125  19.352  25.806  0.1290  0.1618 -0.1656
20963W        W63979   2.875  33.930  27.756  0.1158  0.2348 -0.2013
20964W        W63980  21.579   3.554  20.894 -0.1866  0.5294 -0.0443
20965W        W63981   0.830   4.940  28.969 -0.1307 -0.2000 -0.0539
20966W        W63982  23.457   4.233   5.732  0.0609  0.0722  0.0179
20967W        W63983   0.583   3.083  26.145  0.0163  0.0790  0.1534
20968W        W63984  20.001   5.879   5.950  0.2409 -0.0719 -0.1710
20969W        W63985  20.283  34.261  18.634 -0.3008 -0.1306  0.3480
20970W        W63986  22.059   0.387   5.309 -0.0646 -0.1173  0.1508
20971W        W63987  15.012  26.923   0.644 -0.0524  0.1106 -0.0656
20972W        W63988  20.169  23.805  28.645 -0.1046  0.4007  0.2195
20973W        W63989   9.628  10.524  26.742 -0.2983  0.0516 -0.0881
20974W        W63990  32.288  14.766  23.812  0.0113 -0.0901  0.0954
20975W        W63991   3.784   7.584   0.755 -0.0151 -0.0713  0.0308
20976W        W63992  21.602  15.865  27.000 -0.1063  0.0554  0.0960
20977W        W63993  27.160  32.712   8.180 -0.2620  0.0042 -0.3026
20978W        W63994  29.188   4.502  21.580 -0.0968 -0.0778  0.1114
20979W        W63995  15.960   4.309   7.707 -0.0168  0.2387  0.0051
20980W        W63996  26.472  11.257   2.568  0.1311  0.0700 -0.3764
20981W        W63997  24.666  33.835   4.085 -0.1231 -0.0994  0.1822
20982W        W63998   2.188  15.003   0.106  0.1253  0.0816  0.0199
20983W        W63999  25.127   5.405   2.281 -0.0518  0.3193  0.3614
20984W        W64000  19.851   3.242   9.185  0.1960 -0.3230  0.3893
20985W        W64001  15.276  19.546  23.098 -0.1443 -0.2771  0.2585
20986W        W64002   9.730   6.708   2.656 -0.2089  0.0931  0.2115
20987W        W64003  25.874  25.702  10.626  0.1575 -0.0967 -0.0548
20988W        W64004  15.237   4.154   8.325  0.1087 -0.1805  0.3427
20989W        W64005  29.699  22.051  25.092 -0.0304 -0.1172 -0.0579
20990W        W64006  27.362  11.615   6.350  0.1434  0.0328  0.0406
20991W        W64007   0.175  12.379   7.750 -0.0723 -0.1685 -0.2526
20992W        W64008  26.311  18.856   3.862  0.0634  0.1096 -0.2047
20993W        W64009  31.672  14.720  17.943  0.2824 -0.2460  0.1510
20994W        W64010  22.337   7.663   6.892 -0.2133  0.0800  0.0382
20995W        W64011  26.092  32.863  27.480  0.4241 -0.1539  0.0375
20996W        W64012  11.288   9.707   5.514 -0.3785  0.1848  0.0445
20997W        W64013  16.271  23.636   6.984 -0.3766 -0.0112  0.1001
20998W        W64014  23.261   1.912   1.256 -0.1184 -0.1033 -0.0513
20999W        W64015  21.727  14.016  22.833  0.0763  0.0058 -0.3041
21000W        W64016  18.684  12.311  24.221 -0.0877 -0.1534 -0.2417
21001W        W64017  10.824  29.522   4.706  0.0336 -0.2218 -0.5131
21002W        W64018   5.797   6.528  21.463 -0.2458  0.1750  0.0181
21003W        W64019  20.208  33.756   2.503  0.3007 -0.1289 -0.1403
21004W        W64020  23.898  16.644   9.069  0.1095  0.2838 -0.3748
21005W        W64021  28.560   1.115   3.120  0.0542  0.1269 -0.3755
21006W        W64022  22.846  30.976   9.152  0.3768 -0.1000  0.2318
21007W        W64023  11.753   4.120   7.008  0.0654  0.2602 -0.1072
21008W        W64024  14.981  10.802   5.565  0.1701  0.2448  0.1995
21009W        W64025   2.258  21.238   3.907 -0.1094  0.0211  0.3002
21010W        W64026  34.567   9.601  23.034  0.1317  0.0798  0.1086
21011W        W64027  17.899   4.841   7.164 -0.1521 -0.1727 -0.0549
21012W        W64028  22.145  34.036  27.749 -0.1845 -0.3661 -0.0567
21013W        W64029  13.109   3.638   4.113  0.0510 -0.2874  0.0897
21014W        W64030  26.922  13.456  27.247  0.2407  0.1903  0.0149
21015W        W64031   7.201  31.784   8.578  0.2112 -0.1143  0.2856
21016W        W64032  18.192   9.116   9.193  0.0286 -0.1981  0.0218
21017W        W64033  21.528  22.916   2.401 -0.0953 -0.1911  0.1829
21018W        W64034  13.918  11.786  25.534  0.0002  0.0937 -0.2131
21019W        W64035  22.545  17.263   0.757  0.0667  0.1209 -0.0843
21020W        W64036   9.206   4.050   7.947  0.3711 -0.1484  0.3090
21021W        W64037  25.328  26.073   4.060  0.2317 -0.1630 -0.2362
21022W        W64038  17.920   9.289  29.245 -0.1456 -0.0463 -0.0226
21023W        W64039  19.606   8.197   0.028  0.0838 -0.1362 -0.1802
21024W        W64040   6.576  24.137   1.607 -0.1442 -0.0363 -0.2665
21025W        W64041  11.631  30.802   4.992 -0.0071 -0.0523 -0.0311
21026W        W64042  19.613   5.407   4.080 -0.1722 -0.0361  0.0545
21027W        W64043  22.796  18.148   5.510 -0.4325  0.0857  0.0363
21028W        W64044  22.445  21.073   6.279  0.2167  0.4714  0.1884
21029W        W64045  22.787   9.259   5.307 -0.2611 -0.1099 -0.1258
21030W        W64046  27.653   8.537   7.977 -0.2948  0.2160 -0.3146
21031W        W64047  22.311   2.892   2.714 -0.4290  0.2261  0.1405
21032W        W64048  31.072   1.358   7.385 -0.0148 -0.2546  0.2764
21033W        W64049  14.912   3.532   8.953  0.2412 -0.1635  0.3257
21034W        W64050  31.776   6.186   0.059  0.0506 -0.2374  0.1362
21035W        W64051  19.883  22.552  15.984  0.1925 -0.2095 -0.0969
21036W        W64052   9.008  34.223   5.768 -0.3985 -0.0473 -0.2376
21037W        W64053   6.194  17.259  23.590 -0.1055 -0.0663 -0.1984
21038W        W64054  24.126   7.913   1.496  0.1034  0.2575 -0.2206
21039W        W64055  20.914   0.599   9.956 -0.3078  0.2380 -0.1412
21040W        W64056  34.047   2.617  10.172  0.0529 -0.4277 -0.1100
21041W        W64057  16.680   5.259   6.899 -0.2145 -0.1446  0.2543
21042W        W64058  25.071  33.207   2.945 -0.3058  0.0305 -0.0158
21043W        W64059  18.858   3.169   8.513 -0.0483 -0.0207 -0.1052
21044W        W64060   2.923  12.243  27.880  0.2102  0.2604  0.2604
21045W        W64061  31.787   8.229   3.205 -0.2058  0.1737 -0.2430
21046W        W64062   5.952  13.406   1.323 -0.0774  0.0304  0.1554
21047W        W64063  26.571  11.424   2.093 -0.1539  0.1713  0.1035
21048W        W64064  13.535  11.793   6.741 -0.3252 -0.0648 -0.0959
21049W        W64065  22.220  28.058   2.365  0.1166  0.0879  0.0444
21050W        W64066  15.807  24.637   4.680  0.0062  0.0435 -0.0020
21051W        W64067  15.825  26.496   5.170 -0.1631 -0.0075 -0.1494
21052W        W64068  20.473   7.612   3.160  0.0281 -0.2529  0.0509
21053W        W64069  24.325  25.426   8.483 -0.1847  0.0782 -0.1400
21054W        W64070  32.846  14.819   0.242 -0.0013 -0.3062 -0.0528
21055W        W64071  25.026   2.413   5.534 -0.1063  0.0912  0.0701
21056W        W64072  17.341  27.667   5.529 -0.4365  0.3207 -0.4091
21057W        W64073  20.948   9.626   7.099 -0.0578 -0.1928  0.2318
21058W        W64074  29.291   2.226   3.331  0.0555  0.0782 -0.2030
21059W        W64075  31.297  20.268   0.280 -0.1603  0.0124  0.4188
21060W        W64076  33.383  32.130  19.150 -0.2884 -0.3582 -0.2223
21061W        W64077  17.134  34.529  10.194  0.0051 -0.0297 -0.0604
21062W        W64078  25.199   0.981   3.205 -0.1482  0.1971  0.0460
21063W        W64079  31.186  15.011   6.735 -0.1615  0.0869  0.1611
21064W        W64080  32.900   8.599  24.215  0.1621 -0.0109  0.2243
21065W        W64081  32.418   8.253   9.931 -0.2865  0.1052 -0.1599
21066W        W64082  18.776  25.998   5.651 -0.1012  0.0867 -0.1730
21067W        W64083  27.149   1.531  24.282  0.2836  0.2077  0.1185
21068W        W64084  22.166   7.567  26.478  0.4343  0.1632  0.2263
21069W        W64085   1.096   4.457   0.284 -0.0386 -0.2560  0.0788
21070W        W64086  16.177  12.761  20.176 -0.0199 -0.1995 -0.2185
21071W        W64087  29.658  13.368   4.677 -0.0933 -0.0338 -0.1695
21072W        W64088  28.326   9.282   9.050  0.2758  0.0623 -0.2676
21073W        W64089  17.881  12.588  28.976 -0.2012 -0.1767  0.0865
21074W        W64090  31.877  24.015  21.288 -0.1974  0.1407 -0.3355
21075W        W64091  24.491   4.143   6.031  0.1459 -0.2993  0.2258
21076W        W64092  29.134   5.762   5.755 -0.1848  0.0132 -0.1855
21077W        W64093  19.809  31.200   4.715 -0.2274  0.1232  0.0972
21078W        W64094  29.917   1.738   2.777  0.0630  0.3898 -0.1419
21079W        W64095  27.530  12.213  27.813 -0.0994  0.2057 -0.3265
21080W        W64096  31.387  12.409   6.537  0.0705 -0.0249 -0.0164
21081W        W64097  30.018   9.779   6.717  0.2174  0.1036 -0.0632
21082W        W64098  27.893  30.801   0.777 -0.0536 -0.0404 -0.1099
21083W        W64099  18.704  32.902  28.631  0.1546  0.0619  0.1584
21084W        W64100  17.366  19.630   3.540  0.0338  0.2780  0.0691
21085W        W64101  11.038   0.054   5.345  0.4401  0.2945 -0.1674
21086W        W64102  24.000   8.308  29.204  0.0607 -0.1288  0.0568
21087W        W64103  25.850  18.557  28.422  0.0705 -0.0731  0.0544
21088W        W64104  34.107   0.362   6.305  0.3119  0.0187  0.1362
21089W        W64105  16.716  34.577  10.508 -0.0457  0.1076 -0.4735
21090W        W64106  26.960   5.816   3.634 -0.0428  0.1178  0.0438
21091W        W64107  32.459   0.879   6.769 -0.3848  0.0582  0.1265
21092W        W64108  27.301   0.362   8.809  0.2626  0.1067 -0.1316
21093W        W64109  20.230  31.636   4.563  0.0454 -0.3492  0.1662
21094W        W64110  15.723  28.665   7.629 -0.1165  0.0707  0.1963
21095W        W64111  26.442   3.918   7.313  0.4218  0.1353 -0.0753
21096W        W64112   9.577  28.230  28.000  0.2297  0.1302  0.0095
21097W        W64113  17.358  16.419   1.305  0.1452  0.2760 -0.1267
21098W        W64114  19.779   4.944   6.364  0.1528 -0.1684 -0.0109
21099W        W64115  27.269  27.230   9.462  0.0276  0.1049 -0.3743
21100W        W64116  20.814  11.745  27.011  0.0016  0.2101  0.1657
21101W        W64117  28.070   4.939  25.151 -0.2741 -0.1433 -0.0372
21102W        W64118  27.990  30.598  29.305 -0.0285 -0.0323 -0.3203
21103W        W64119  15.320  32.164   9.959  0.0463  0.4372  0.2116
21104W        W64120  18.372  19.415   6.652 -0.0323  0.1271 -0.1233
21105W        W64121   1.499   7.501   8.244  0.2086  0.0369 -0.3801
21106W        W64122  21.145   3.692  25.642  0.2240  0.1435 -0.1636
21107W        W64123  25.357  18.006   0.994 -0.2023 -0.3790  0.0565
21108W        W64124  32.485   6.912  28.118  0.0752  0.1807  0.0278
21109W        W64125   7.651  28.341   9.474  0.1667 -0.0768 -0.0245
21110W        W64126  26.695  16.569   2.362  0.1859  0.0720 -0.0038
21111W        W64127  14.638  12.514  28.401 -0.2201 -0.0447 -0.0540
21112W        W64128  12.660   4.975   2.955 -0.0133  0.2644  0.1459
21113W        W64129  31.728  30.872   3.431  0.3895 -0.1707  0.3983
21114W        W64130   8.663  32.328   8.647  0.0689  0.0928  0.2082
21115W        W64131  15.346   8.435  27.549 -0.1821  0.0393 -0.1756
21116W        W64132  14.723  17.855  26.638 -0.0169  0.1624 -0.0532
21117W        W64133  24.510  27.553  28.762 -0.5325  0.1049 -0.0324
21118W        W64134  28.382   3.592   6.075  0.1950  0.3337 -0.1257
21119W        W64135  23.522   4.892  24.273  0.2798  0.0769 -0.2531
21120W        W64136  21.332  19.250  27.961  0.2226  0.1444 -0.1900
21121W        W64137  23.593  10.871   0.280 -0.1495  0.1926 -0.1907
21122W        W64138  24.339  17.961  19.954 -0.3232  0.0606 -0.1260
21123W        W64139  19.868  17.642   7.343 -0.3212  0.3316  0.3854
21124W        W64140  31.209   6.959   2.368  0.0144 -0.0336  0.0980
21125W        W64141   1.273  18.314  10.139 -0.2560  0.0338  0.1437
21126W        W64142  29.404   5.491   7.188  0.0564 -0.0042  0.1460
21127W        W64143  26.069  33.702   4.667 -0.0688 -0.3882  0.0802
21128W        W64144  13.259   2.058  18.412 -0.0051  0.2136  0.1427
21129W        W64145  19.188  29.100   3.271  0.0152 -0.3858 -0.3074
21130W        W64146  26.495   9.694   8.304  0.1384 -0.0745 -0.0451
21131W        W64147  15.011   0.556   0.987 -0.0304  0.1437 -0.2284
21132W        W64148  21.681  10.451   5.373  0.1867 -0.0714  0.0367
21133W        W64149   5.925   7.842   4.645  0.0972  0.0441 -0.0651
21134W        W64150  10.397   9.022   1.787 -0.0997 -0.1274 -0.2665
21135W        W64151  31.573  11.342   8.735 -0.1788 -0.0904 -0.1508
21136W        W64152   9.557  30.154   9.710 -0.2563  0.1690 -0.2124
21137W        W64153   9.488  24.883  26.183  0.0474 -0.1661 -0.1102
21138W        W64154  31.972   4.804   3.663 -0.2240 -0.4490  0.0412
21139W        W64155   2.236   2.692   6.667 -0.3410  0.2721  0.1149
21140W        W64156  17.492   9.637   3.518 -0.0076 -0.2127  0.2658
21141W        W64157  15.244  14.135  28.753 -0.1987 -0.1310 -0.1105
21142W        W64158  29.786  34.589   6.498  0.0669  0.1446  0.0727
21143W        W64159  29.865  28.208   9.119 -0.0546  0.1699  0.1197
21144W        W64160  26.477  10.048   3.797  0.2269 -0.3200 -0.2697
21145W        W64161  20.971   2.422   2.062  0.1629 -0.1931  0.3715
21146W        W64162  29.769  15.502   6.003  0.0841  0.0857 -0.2594
21147W        W64163  18.781  19.396  25.528  0.0244  0.5235 -0.1123
21148W        W64164  33.885  29.132  22.189 -0.2546  0.2730 -0.1881
21149W        W64165  19.258  32.287   6.515 -0.3049 -0.2462 -0.2751
21150W        W64166   5.208   3.012   9.035 -0.0235 -0.1879  0.1249
21151W        W64167  15.763  22.505  21.793 -0.2447 -0.3100 -0.0005
21152W        W64168  29.347  15.868   7.601  0.1169 -0.1624  0.0666
21153W        W64169  19.334  18.954   3.250 -0.1790  0.1026 -0.1415
21154W        W64170  22.209  11.905  24.922  0.1591 -0.4599 -0.0683
21155W        W64171   8.757  30.429  25.484 -0.0888 -0.1692  0.2764
21156W        W64172  25.458   2.312   0.983  0.0343 -0.1626 -0.1732
21157W        W64173  23.458  12.856   4.726  0.0305 -0.1431 -0.0151
21158W        W64174  30.550   1.339   0.957  0.0364 -0.0756 -0.0881
21159W        W64175  11.338  32.580  20.100  0.1491 -0.2723  0.0801
21160W        W64176  29.562   0.600   5.454  0.0001 -0.1648 -0.0409
21161W        W64177  10.918  13.001  23.644 -0.1309  0.1004  0.1998
21162W        W64178  23.086  15.393   5.644 -0.1834 -0.0043  0.2213
21163W        W64179  21.951  15.876   6.906  0.0681 -0.0001  0.1846
21164W        W64180  18.195   5.845  29.055 -0.2223  0.0352  0.0321
21165W        W64181   9.851  16.399   4.629  0.1544 -0.0180 -0.1035
21166W        W64182  21.058   3.330   1.648 -0.2351 -0.1328 -0.0972
21167W        W64183  24.045  15.226   1.953 -0.3452 -0.0883  0.3184
21168W        W64184   8.499   8.286   5.783  0.2958  0.2211 -0.0792
21169W        W64185  19.811  17.496  24.731  0.0036 -0.0408  0.2468
21170W        W64186  33.782  10.227   4.928 -0.0765 -0.0058  0.0034
21171W        W64187   6.806  10.279   8.675  0.0304 -0.1631 -0.2388
21172W        W64188  12.930   5.911   8.012  0.0263 -0.0286 -0.0319
21173W        W64189  28.375   2.709  29.054 -0.3038 -0.1053  0.5241
21174W        W64190  16.525  28.200   1.447 -0.1141 -0.1596  0.0865
21175W        W64191  34.662   6.667  26.443  0.0024  0.0403 -0.0488
21176W        W64192  25.964  24.946   2.446  0.0598 -0.1405 -0.1147
21177W        W64193   0.150  14.938  10.971 -0.2256  0.0668  0.1665
21178W        W64194  27.442   6.703  29.134  0.1625 -0.3816  0.0668
21179W        W64195  25.202  12.549   8.034  0.2927  0.0852 -0.0112
21180W        W64196  16.390   8.788   4.668 -0.2268  0.0407 -0.2214
21181W        W64197  27.467  24.010   1.497 -0.0570  0.2042  0.1863
21182W        W64198   1.810  14.012   5.840 -0.2515  0.0283  0.1468
21183W        W64199  18.576   1.347   5.687 -0.0757  0.1314  0.4632
21184W        W64200   1.726  13.960  23.776  0.0731  0.1437  0.1352
21185W        W64201  27.240  30.948   4.873  0.0774 -0.1758  0.1868
21186W        W64202  29.928  22.709   9.248 -0.2968  0.3085 -0.2315
21187W        W64203   1.982  30.435   9.953  0.1995 -0.0387 -0.0160
21188W        W64204  28.646  14.990  27.814 -0.2439 -0.4583 -0.0486
21189W        W64205   3.405  17.296   6.887 -0.0468  0.0431  0.1757
21190W        W64206   0.710   6.496   4.085  0.0536  0.1640  0.0507
21191W        W64207  10.250   4.232   3.310 -0.0788 -0.0018  0.0435
21192W        W64208   1.667  29.903   8.466 -0.0176 -0.0724  0.0192
21193W        W64209  27.619  11.065   2.839 -0.0527 -0.0998  0.1685
21194W        W64210  24.310   2.421   7.208  0.1035  0.0314  0.1379
21195W        W64211  20.855  32.299   3.196 -0.1070  0.2357  0.3197
21196W        W64212   6.167  32.020   9.115  0.2396 -0.0379 -0.0521
21197W        W64213  17.329  28.523   1.358 -0.2398 -0.0275 -0.0310
21198W        W64214  22.703  10.831   3.643 -0.0319 -0.3119  0.1015
21199W        W64215  31.747   2.029   1.078 -0.0964 -0.0314  0.1152
21200W        W64216  11.792  23.255  18.666 -0.0315  0.1080 -0.0789
21201W        W64217  10.744  32.967  27.927  0.0127 -0.4669 -0.1607
21202W        W64218  21.067  14.893   3.430 -0.0776 -0.0928  0.1320
21203W        W64219   3.821  11.162   7.333  0.1779  0.0633 -0.0087
21204W        W64220  23.371  32.836  23.368  0.0849  0.0686  0.2252
21205W        W64221  33.640   5.803   6.602  0.0191  0.2340  0.1673
21206W        W64222  18.014   9.921   2.141 -0.0425 -0.0633  0.3029
21207W        W64223  22.270  16.574  27.169  0.1369 -0.2536 -0.5339
21208W        W64224  23.405  14.156   5.452 -0.0240  0.1055  0.1164
21209W        W64225  25.371   0.603  29.006  0.0664  0.0539  0.1361
21210W        W64226   9.933   7.999   1.433 -0.0714  0.2308 -0.1011
21211W        W64227   0.536  11.801  24.689 -0.0581 -0.2076 -0.4583
21212W        W64228  11.829  32.226   8.493  0.2254 -0.2563 -0.0634
21213W        W64229  31.912   3.735  24.546 -0.3441 -0.1271  0.1874
21214W        W64230  28.256  10.544   9.749  0.0750  0.2346  0.3017
21215W        W64231  24.901   7.553  29.288 -0.1395  0.1945  0.1744
21216W        W64232  26.747  31.949   6.992  0.0883 -0.2474  0.2041
21217W        W64233  19.287   5.501   9.089 -0.1094  0.2852 -0.2118
21218W        W64234  18.504  27.414   8.637 -0.5464  0.0235  0.1106
21219W        W64235  24.445  18.144   3.643 -0.3048  0.4079 -0.1441
21220W        W64236  17.269  10.278   5.467 -0.0065 -0.2268 -0.2618
21221W        W64237  10.051  34.041   9.677  0.0855  0.0437 -0.2231
21222W        W64238  18.025   8.684   1.099  0.2118  0.0066 -0.2071
21223W        W64239  26.999  27.405  11.363  0.4701 -0.4657 -0.0699
21224W        W64240  14.123   2.390  23.232 -0.2789 -0.3035  0.0787
21225W        W64241  32.400  33.160   3.156 -0.2230 -0.0429  0.5743
21226W        W64242  24.366  19.040   4.273  0.0245  0.0598 -0.1349
21227W        W64243  32.366   9.933   6.763  0.0011  0.1232  0.2027
21228W        W64244  18.085  28.453  23.855  0.0743  0.0379  0.2431
21229W        W64245  31.083   9.042  18.306  0.0762 -0.3174 -0.0288
21230W        W64246  28.556  11.276   8.797  0.0517 -0.1456  0.0605
21231W        W64247  29.088   6.401   3.874 -0.3911 -0.0580  0.1536
21232W        W64248  33.660   9.285  26.848 -0.1036  0.1579  0.0253
21233W        W64249  27.708  13.861  28.402 -0.2373  0.3067 -0.2528
21234W        W64250  11.948   2.134   7.245 -0.1795 -0.0089  0.2230
21235W        W64251  32.256  23.936   0.080 -0.1195  0.1207  0.0304
21236W        W64252  33.138  30.144  28.286  0.0562  0.3212  0.0197
21237W        W64253   0.986  11.541  10.128 -0.1217  0.3460 -0.0073
21238W        W64254  21.674  27.086   9.230 -0.4163  0.2909  0.0173
21239W        W64255  13.078  14.063  28.754  0.1770 -0.3363  0.2917
21240W        W64256  32.917  19.814   7.563  0.2009 -0.1603 -0.2556
21241W        W64257  33.447   1.782   9.987 -0.0061  0.1166 -0.1882
21242W        W64258  21.420  30.265   3.870  0.0816 -0.4936 -0.1121
21243W        W64259  12.969  24.509  26.383 -0.1018 -0.0598  0.0505
21244W        W64260  19.092   0.722   5.025  0.1341  0.0338  0.0294
21245W        W64261  14.189  21.874  28.808 -0.1501  0.5280 -0.0092
21246W        W64262  10.734   4.141  20.734 -0.0135  0.2252 -0.0966
21247W        W64263  27.016  32.644  28.384 -0.0462 -0.2480  0.1198
21248W        W64264  17.411   6.832   2.432 -0.1036  0.0036  0.1099
21249W        W64265  29.666  25.912   1.433 -0.0971  0.0213 -0.2910
21250W        W64266  11.119  13.158   1.847  0.0921 -0.0030  0.0817
21251W        W64267  22.237   5.866   9.630  0.1708  0.2259  0.1939
21252W        W64268  15.526  20.277  25.196  0.1939  0.2356  0.1588
21253W        W64269  19.544   5.209   7.551  0.1654  0.0714 -0.0050
21254W        W64270  34.632  10.924  22.331 -0.4046  0.0636  0.0899
21255W        W64271  19.653   8.736   6.709 -0.2741 -0.0748 -0.0671
21256W        W64272   2.110  19.237  19.217  0.1083 -0.1861  0.0415
21257W        W64273   4.009   4.185   3.323 -0.1702 -0.0648  0.1893
21258W        W64274  28.566   2.115  27.971  0.0055  0.0301 -0.0122
21259W        W64275   7.075  10.129   7.084 -0.3141  0.0166 -0.1288
21260W        W64276  10.043  32.406   6.290  0.0268 -0.2130 -0.2809
21261W        W64277  28.584   5.223   9.451  0.1214 -0.2409  0.1912
21262W        W64278   6.399  34.562   3.685  0.1523 -0.0740  0.2398
21263W        W64279  25.009  15.017   1.187 -0.2485  0.0848  0.1797
21264W        W64280  18.312  21.419   5.874  0.1588 -0.1832  0.1274
21265W        W64281  12.280  30.592   8.437  0.1105 -0.0199 -0.1144
21266W        W64282  33.417  14.587   9.985  0.2147 -0.0282  0.1525
21267W        W64283  23.218   8.282  27.559  0.3509  0.3501  0.1796
21268W        W64284  23.884  22.686   3.565  0.2445 -0.0498  0.3022
21269W        W64285  18.977   3.164  10.045  0.1138  0.0685 -0.0469
21270W        W64286  21.112   4.544   4.810 -0.4906 -0.0677  0.1930
21271W        W64287  22.927  19.800   9.251 -0.1376 -0.1873 -0.0798
21272W        W64288  27.728  26.656   8.078  0.1311 -0.0226  0.0968
21273W        W64289  33.026   9.761   8.760 -0.1325  0.0538  0.3110
21274W        W64290  20.098   2.778   4.496  0.0080  0.1274  0.2076
21275W        W64291  26.554  22.429  25.950 -0.1651  0.1903  0.3649
21276W        W64292  32.344  29.958   5.683  0.0003  0.3250 -0.0546
21277W        W64293  32.743   4.708   4.870 -0.0168  0.2411  0.0877
21278W        W64294  30.941  11.156   9.613 -0.0796  0.1219 -0.0534
21279W        W64295  17.551  14.623   8.193 -0.2030 -0.1677  0.1966
21280W        W64296  22.713  19.045   5.534 -0.3058 -0.4547 -0.2354
21281W        W64297  10.867   8.077   9.601  0.1629  0.3166 -0.1300
21282W        W64298  17.093   8.807   7.428 -0.0797  0.4766 -0.2072
21283W        W64299  18.945   5.360   7.420 -0.0019 -0.2435  0.1325
21284W        W64300  31.441  24.258   3.464 -0.2332 -0.0197 -0.3105
21285W        W64301  25.565  10.255  17.891 -0.2061 -0.2578  0.1004
21286W        W64302  23.317  11.600  23.764 -0.3322 -0.0219  0.0136
21287W        W64303   3.098   8.132   2.756  0.0356 -0.0780  0.2473
21288W        W64304  30.721   6.901  11.094 -0.1667 -0.2848  0.0798
21289W        W64305  23.437  33.755  11.553  0.0359 -0.1172  0.1633
21290W        W64306  31.528  15.935  10.210 -0.1560  0.0733  0.0055
21291W        W64307  22.900  10.687   2.177  0.3271  0.0711  0.0330
21292W        W64308  16.468   7.770   6.929 -0.1289  0.0872  0.2153
21293W        W64309  10.932  15.749   3.522  0.1028  0.2701  0.0793
21294W        W64310   9.346   2.825   2.691  0.3369 -0.0617  0.1490
21295W        W64311   6.737   8.809   1.740 -0.0493 -0.0390 -0.2415
21296W        W64312  24.414  13.949   0.734 -0.1798  0.3786  0.0898
21297W        W64313  12.482  18.361   2.372 -0.2626 -0.0768  0.0320
21298W        W64314  26.316   1.979  10.245  0.1153  0.0423  0.0070
21299W        W64315  19.123   0.992   8.409 -0.0471 -0.1546  0.0934
21300W        W64316  28.449   5.562  28.534 -0.2254  0.3660 -0.1276
21301W        W64317  20.794  17.525  26.683 -0.2225 -0.1874 -0.4125
21302W        W64318  20.929   4.750   6.742  0.0464  0.3312 -0.1363
21303W        W64319  25.579   8.037  26.626  0.0141  0.1781 -0.1702
21304W        W64320  23.063  24.791   7.895  0.3694  0.3225  0.0567
21305W        W64321  21.233  17.340   3.646  0.1483 -0.1529  0.1696
21306W        W64322  28.640  11.907  28.974  0.1826 -0.0047  0.1025
21307W        W64323  22.423  16.052   0.650  0.1369  0.2340 -0.2245
21308W        W64324   6.233   1.651   9.156 -0.0587 -0.0534 -0.0484
21309W        W64325  21.161  17.411  25.733  0.1812  0.0165  0.0093
21310W        W64326  12.161   4.204  18.781 -0.1777 -0.0433 -0.0969
21311W        W64327  22.474   3.363   9.297  0.3077  0.0702  0.0765
21312W        W64328  26.412   2.582  11.201 -0.1469  0.0819 -0.0781
21313W        W64329  20.797   5.028  26.055 -0.0346 -0.2512 -0.2232
21314W        W64330  22.032   3.629   3.079  0.1352 -0.0479  0.1544
21315W        W64331  31.355  12.161   3.968 -0.1404 -0.1664 -0.2023
21316W        W64332  33.945  28.575   1.528  0.2400  0.2739 -0.1138
21317W        W64333  25.619   5.778  21.642 -0.0939 -0.0610 -0.2019
21318W        W64334  29.523   0.351   8.340 -0.2263  0.2394  0.3063
21319W        W64335  32.328   0.416  22.127  0.1044  0.2349 -0.1091
21320W        W64336  26.430   3.815   5.239  0.0378  0.2647 -0.3777
21321W        W64337  27.246  13.137   3.750  0.2331  0.2272  0.1601
21322W        W64338   2.980  16.168  26.246  0.1567  0.0119 -0.1271
21323W        W64339  26.634  33.070   7.637 -0.2457  0.3683 -0.0153
21324W        W64340   2.598  32.673  16.784  0.1749 -0.1968 -0.0390
21325W        W64341  17.935  30.414   8.229  0.2007 -0.1630 -0.1720
21326W        W64342  34.617  29.775  11.301 -0.1610  0.0478  0.0233
21327W        W64343   9.601  29.964  26.311  0.2981  0.0127  0.0081
21328W        W64344  13.137  18.952   5.513 -0.3108  0.1829  0.0086
21329W        W64345  25.490  20.539   1.028 -0.0582 -0.0344  0.1422
21330W        W64346   3.863  13.233  10.116  0.0639  0.0226 -0.1071
21331W        W64347  25.594   4.284   5.819 -0.2330  0.0065  0.1957
21332W        W64348  19.478  29.616  26.675 -0.2648  0.3099 -0.3231
21333W        W64349  23.554   4.431   1.565  0.0547  0.2334  0.1657
21334W        W64350   2.306  18.299  27.742  0.0994  0.0387 -0.3431
21335W        W64351  28.284  21.883   2.536 -0.1833  0.1076  0.1583
21336W        W64352  26.221  32.304  11.327  0.0159 -0.0433 -0.3088
21337W        W64353  21.044  28.855   1.882  0.1907 -0.2358 -0.0119
21338W        W64354   9.999   1.131  27.737 -0.1479 -0.0271 -0.0726
21339W        W64355  13.194  13.038  26.280  0.0071  0.0203 -0.1208
21340W        W64356   3.040   9.146  15.083 -0.2750 -0.1367  0.2336
21341W        W64357  25.006  13.401  26.918  0.3091  0.0288 -0.3706
21342W        W64358  23.336  32.601  28.024  0.1365 -0.0210  0.0810
21343W        W64359  27.410   2.686   4.190 -0.0844  0.0241 -0.0935
21344W        W64360  26.469   1.399  25.892  0.0022 -0.0208  0.2122
21345W        W64361  30.622  15.514   8.214  0.2241 -0.2106  0.0470
21346W        W64362  27.047   2.109  10.021 -0.2864  0.0272 -0.3881
21347W        W64363   8.176  16.094   1.027 -0.2018 -0.1216 -0.0387
21348W        W64364  28.903   7.706   6.120 -0.1200 -0.2981  0.1893
21349W        W64365   8.452   5.826   4.763 -0.2454 -0.3999  0.1973
21350W        W64366  26.617  34.276  28.902  0.1095  0.1093  0.0309
21351W        W64367  14.704   6.343   4.599 -0.1527  0.2969 -0.1942
21352W        W64368  20.726  30.884   3.820 -0.3566  0.3181  0.0382
21353W        W64369  13.779   0.621   4.324 -0.1581  0.2938  0.1668
21354W        W64370   6.356   7.323  10.823 -0.1713  0.1121 -0.1729
21355W        W64371  13.403   3.667   3.713  0.2833 -0.2227  0.3524
21356W        W64372  19.116  12.691  28.661  0.2544  0.4639 -0.0237
21357W        W64373  23.718  24.538  15.694  0.2001 -0.0322 -0.1735
21358W        W64374  19.144  11.359   2.102 -0.0751  0.0237  0.0697
21359W        W64375  18.358   7.254   2.058  0.2669  0.0593  0.0634
21360W        W64376  21.522  31.442  22.601  0.2407  0.3732  0.2737
21361W        W64377  29.829  11.321   4.148  0.3114 -0.0443  0.3769
21362W        W64378  30.692   6.405   8.333 -0.0896  0.1877 -0.1736
21363W        W64379   0.399  12.108   0.628  0.0723  0.0056 -0.1924
21364W        W64380  23.784   2.103   3.344  0.2866 -0.1425 -0.0396
21365W        W64381   8.341  33.161   7.774  0.2221  0.0742 -0.0277
21366W        W64382   8.443  16.099  23.033 -0.2511  0.0117 -0.2830
21367W        W64383  22.179   1.251   3.473  0.3154  0.2294  0.1443
21368W        W64384  25.320   3.472   5.496 -0.0926  0.3710 -0.0101
21369W        W64385  13.427  32.993  22.688  0.0447  0.1323 -0.0671
21370W        W64386  32.350  11.276  17.726  0.3199 -0.1041 -0.2782
21371W        W64387  34.760  28.223  27.787  0.1057  0.1019 -0.0633
21372W        W64388  12.790   5.062  22.326  0.1000  0.1635  0.0907
21373W        W64389   0.695   6.164   5.750 -0.0763 -0.1148 -0.0048
21374W        W64390  29.568   2.403   7.124  0.0060 -0.0588  0.1139
21375W        W64391  13.832  31.207   5.377  0.2298  0.1043 -0.0933
21376W        W64392  29.190  13.960  10.111 -0.0771 -0.0129  0.2287
21377W        W64393  25.194   7.635   6.385  0.0207  0.0304 -0.1360
21378W        W64394  23.497  15.566  21.187  0.1810 -0.1743  0.0301
21379W        W64395  30.211   4.278   6.480 -0.2704  0.0846 -0.1442
21380W        W64396  13.427  12.699  20.316  0.2621  0.1492  0.2461
21381W        W64397  28.065   6.310   8.464 -0.0507 -0.1277  0.0046
21382W        W64398  21.222  13.959   2.219 -0.1615  0.1725  0.0845
21383W        W64399  25.351   0.583   7.024 -0.0687 -0.0852  0.0499
21384W        W64400  21.029  14.131   1.433  0.0988  0.0529 -0.1336
21385W        W64401   7.445  32.897   0.167  0.1380  0.1806  0.1710
21386W        W64402  15.579  14.275  24.437  0.0096  0.0998  0.0288
21387W        W64403  13.112  31.453  16.598 -0.2297 -0.1990  0.0382
21388W        W64404  26.208   6.026   9.436 -0.4384  0.2627  0.1141
21389W        W64405  22.703   7.378   8.554  0.1519 -0.0745  0.2541
21390W        W64406  12.729  10.475  19.215  0.4973  0.1693  0.0218
21391W        W64407  28.294  12.812   2.209 -0.0057 -0.0108 -0.6135
21392W        W64408  29.331  14.137  21.163 -0.3074  0.2065 -0.0090
21393W        W64409  18.786  15.074  29.064 -0.1871  0.3171 -0.2156
21394W        W64410  30.438  24.367  10.975  0.2362 -0.0190 -0.3740
21395W        W64411  23.842  32.293  21.427  0.2610  0.4658  0.1123
21396W        W64412  16.976  14.810  23.159 -0.1243 -0.0205 -0.2171
21397W        W64413  29.594   4.308   0.856 -0.1096  0.0007 -0.2981
21398W        W64414  17.770  21.145   6.800  0.0159  0.1174  0.3554
21399W        W64415  28.595  14.339   5.441 -0.0841 -0.0456  0.4030
21400W        W64416  22.795  29.341   6.906  0.2073 -0.2575 -0.0185
21401W        W64417   0.754  29.026   8.621  0.0322  0.3476  0.1174
21402W        W64418  18.276  33.502  21.931  0.1266  0.0463 -0.0813
21403W        W64419  27.543  30.316  21.397 -0.2060 -0.0056 -0.0420
21404W        W64420   0.009  21.165   1.235 -0.0086 -0.1706  0.0578
21405W        W64421  31.659   4.167   8.750  0.0815 -0.0023  0.0878
21406W        W64422  19.574  10.751  26.237 -0.0885  0.1793  0.1910
21407W        W64423  19.542  29.767   1.646 -0.1467  0.2718 -0.0495
21408W        W64424  13.507  30.660   4.826  0.0863 -0.0658  0.0188
21409W        W64425  33.599  20.512   2.416  0.0111 -0.0170 -0.1703
21410W        W64426  30.143  31.519  26.320  0.1009 -0.1948 -0.1484
21411W        W64427  20.430  31.828  26.382  0.0490 -0.0394  0.0244
21412W        W64428  12.263  18.213  27.663 -0.2691  0.2635  0.1758
21413W        W64429  28.771  16.056   4.856  0.0437 -0.1679 -0.2704
21414W        W64430  22.903   6.254   1.906 -0.0430  0.2083  0.0897
21415W        W64431  22.219   7.606   0.090 -0.0751 -0.0851  0.3450
21416W        W64432   3.104  21.451   2.373  0.0157 -0.3738 -0.0981
21417W        W64433   9.945  13.790   7.544  0.3239  0.2232  0.1501
21418W        W64434  23.937   7.768   5.098  0.2182  0.0218 -0.0056
21419W        W64435  16.003  18.287  22.759  0.0175 -0.2436  0.2248
21420W        W64436  19.987   0.358   0.239 -0.2065 -0.2135  0.0512
21421W        W64437  22.561   4.263  10.850  0.2422  0.0098 -0.2443
21422W        W64438  24.045  18.190   6.196  0.0568  0.2443  0.0988
21423W        W64439  10.199  10.150  26.390  0.0899  0.2213 -0.1137
21424W        W64440  13.982  28.264  19.847 -0.4580 -0.1575  0.2008
21425W        W64441  21.550  14.522   8.929 -0.1004  0.0819  0.1348
21426W        W64442   5.456  13.295   7.973 -0.0097  0.3521 -0.1156
21427W        W64443  32.666   5.642   8.087  0.0343 -0.2778 -0.2245
21428W        W64444  17.714   8.103   6.042 -0.1557 -0.0963 -0.1456
21429W        W64445  24.846  13.759  16.275 -0.0497  0.0339  0.0957
21430W        W64446  15.375  17.578   4.323  0.0695  0.2776  0.2006
21431W        W64447  24.637   6.914   1.641 -0.0583  0.1918 -0.2397
21432W        W64448  29.682  10.871   2.386 -0.1641 -0.0687 -0.4670
21433W        W64449  17.020  18.404  13.314  0.0443 -0.1130 -0.2490
21434W        W64450  29.612  23.779  27.506  0.2036 -0.1396 -0.0248
21435W        W64451   2.358   8.750  19.648 -0.3117  0.0710  0.2294
21436W        W64452  31.374  16.309   9.637  0.0116 -0.1892  0.3108
21437W        W64453  19.526   8.238  24.724 -0.1166  0.1586 -0.1390
21438W        W64454   3.547   3.870   9.461 -0.2729 -0.0594  0.2023
21439W        W64455  26.051   9.420  10.447 -0.0712  0.0589 -0.1267
21440W        W64456   4.358  22.969   9.030 -0.2135 -0.1814  0.3530
21441W        W64457  27.720  20.331   8.346 -0.5203 -0.0318  0.2247
21442W        W64458   9.856  12.203  21.765 -0.1219  0.1316 -0.1833
21443W        W64459  22.483  20.190   6.123 -0.2201 -0.4468  0.2313
21444W        W64460  31.881   3.897  27.455  0.2657 -0.0331  0.1919
21445W        W64461  15.070   6.556   6.716  0.0808 -0.2647 -0.0911
21446W        W64462   1.895  16.456  25.212  0.3197 -0.1432  0.0576
21447W        W64463   3.731  10.029  17.876  0.0560  0.2250  0.1725
21448W        W64464   1.362  21.974  23.225 -0.0450  0.1726  0.0362
21449W        W64465  17.462  14.735   0.900  0.0742 -0.0643  0.3232
21450W        W64466  34.488   4.169  28.028 -0.0645 -0.2955 -0.1799
21451W        W64467  20.526   6.865   6.722  0.0230  0.2498 -0.0386
21452W        W64468   2.437   7.592   0.564  0.0212  0.0209 -0.0918
21453W        W64469  20.162   3.500   1.015  0.3198 -0.1990 -0.0470
21454W        W64470  22.539   4.970   5.172 -0.2872  0.0748 -0.1544
21455W        W64471  23.950   2.242  29.174  0.1366 -0.0402 -0.1235
21456W        W64472   3.648   5.959   5.115 -0.0597 -0.3485  0.3011
21457W        W64473  30.887   3.515   4.687 -0.0151 -0.1489  0.0385
21458W        W64474   1.662  34.026   0.676 -0.0200 -0.0327  0.2928
21459W        W64475  13.663   2.817   8.146 -0.2456  0.0280  0.0725
21460W        W64476  10.140   0.151  22.979 -0.2455 -0.2992 -0.0949
21461W        W64477  29.353  23.205   4.969  0.2889  0.1039  0.1550
21462W        W64478   0.883  21.612  23.285 -0.0412 -0.1536 -0.1287
21463W        W64479  23.651   4.706   6.025 -0.0086  0.0802 -0.2292
21464W        W64480  11.038  16.930   1.874 -0.2896 -0.0246  0.1109
21465W        W64481  19.562   5.012   0.198  0.1483  0.2477  0.2020
21466W        W64482  19.743   2.202   2.178  0.2417 -0.0456 -0.0204
21467W        W64483  30.856   9.311  20.751 -0.0524  0.3533 -0.1721
21468W        W64484  18.701   9.150   2.392 -0.1592 -0.0542  0.1186
21469W        W64485  21.444  12.948   2.779 -0.2581  0.0130  0.0099
21470W        W64486  20.322   3.070   9.003  0.2717 -0.1386 -0.1670
21471W        W64487  13.354   2.528   6.853 -0.1962 -0.0948 -0.1029
21472W        W64488  26.691   8.711   7.915 -0.0368  0.0020 -0.0029
21473W        W64489  15.095   5.910   0.073 -0.2386  0.1847  0.0381
21474W        W64490  22.621   1.647  29.019 -0.0329  0.0662  0.0932
21475W        W64491   9.962   6.301  23.925  0.2146  0.3976 -0.0398
21476W        W64492  20.192   5.957  24.999 -0.1184  0.0952  0.2969
21477W        W64493  24.227  32.939  18.616  0.0045  0.0477  0.1482
21478W        W64494  15.004   2.956  24.931 -0.2790 -0.1349 -0.1962
21479W        W64495   6.935  24.783   6.119  0.0843 -0.0980  0.1613
21480W        W64496  26.197  28.930  26.105 -0.0359  0.1923 -0.0433
21481W        W64497  18.531   5.597  24.102 -0.4341 -0.0446 -0.4430
21482W        W64498  24.136  12.962   1.019 -0.2111 -0.1321  0.1675
21483W        W64499  14.203  26.714  17.796  0.0305 -0.2009 -0.1542
21484W        W64500  23.012  16.618   2.612  0.1490 -0.2040 -0.0035
21485W        W64501  26.361   5.650   3.344  0.2765  0.0813  0.1258
21486W        W64502  20.759   8.919   8.470  0.1650  0.1765 -0.2028
21487W        W64503  24.008   7.059  28.232 -0.0192  0.1154  0.1262
21488W        W64504  25.381  34.207  29.218 -0.1551 -0.0212  0.0823
21489W        W64505   3.801  34.397  28.804 -0.1114 -0.1648  0.2422
21490W        W64506  22.853   8.436  23.743  0.0216  0.2633 -0.0052
21491W        W64507  34.457  32.753   7.602  0.1652 -0.3095 -0.0164
21492W        W64508  22.008  13.679  28.640 -0.0764  0.1418  0.1287
21493W        W64509  28.269  33.616   9.108  0.2548 -0.3576 -0.0432
21494W        W64510  22.518   7.184  20.312 -0.2918 -0.1067 -0.0002
21495W        W64511   8.608  31.078  25.266  0.1195 -0.2209 -0.0206
21496W        W64512  32.990  16.814   3.179  0.2120 -0.1616  0.1464
21497W        W64513  13.398   5.547   2.933  0.1961 -0.0859 -0.3939
21498W        W64514  18.089  32.338  23.800 -0.2751 -0.1952  0.2248
21499W        W64515   1.592  32.939  28.083 -0.0027 -0.0295 -0.1667
21500W        W64516  18.741  14.008  25.903 -0.3010 -0.1061  0.1522
21501W        W64517  10.315  14.953   6.475 -0.1340 -0.1906 -0.1090
21502W        W64518  33.963  25.565  14.311 -0.0536 -0.1125 -0.0790
21503W        W64519   4.415  31.663   4.971  0.1372 -0.0310  0.4282
21504W        W64520   9.780   6.682  23.576 -0.3123  0.1153 -0.3175
21505W        W64521  19.887  18.531  26.215 -0.1527  0.0816 -0.0553
21506W        W64522  27.655   1.821   9.493  0.1929  0.1578 -0.0595
21507W        W64523  32.777   5.468   3.943  0.3360  0.0564  0.0000
21508W        W64524  22.455  13.589  26.044 -0.2889 -0.1287 -0.1758
21509W        W64525  11.325   1.769   9.551  0.0590 -0.2304 -0.0236
21510W        W64526  33.588   8.228   5.298 -0.0711 -0.0872  0.4499
21511W        W64527  32.115  24.021   3.868  0.2302 -0.2389 -0.1680
21512W        W64528  26.532  19.742   6.673 -0.1672  0.1306 -0.1141
21513W        W64529  23.655  33.774  23.131 -0.0328 -0.2163 -0.0148
21514W        W64530  17.813   0.439   6.073 -0.1466  0.0839 -0.0348
21515W        W64531   1.348   6.231   0.895 -0.0042  0.0586 -0.0553
21516W        W64532  18.864   0.216   6.641 -0.0586 -0.0823 -0.2375
21517W        W64533  17.776  17.109  21.785  0.0553 -0.0092 -0.1562
21518W        W64534  30.151   1.891   1.326  0.0794 -0.0421 -0.2912
21519W        W64535  10.096  13.006  23.304  0.0372  0.0698  0.2939
21520W        W64536  29.476  14.185  25.189  0.0421 -0.1266 -0.4994
21521W        W64537  24.613  10.482   6.034 -0.0348  0.2706  0.4691
21522W        W64538  30.171   4.011  16.762  0.1117 -0.1069  0.0797
21523W        W64539  12.702  25.720   6.311 -0.0530 -0.0475  0.2577
21524W        W64540   7.687   0.169   2.866  0.1268 -0.1064 -0.0344
21525W        W64541  21.320  15.318   5.053  0.0041 -0.1894  0.3599
21526W        W64542  25.724  19.549  16.751 -0.2141 -0.0169 -0.0251
21527W        W64543  29.594  11.249  21.461 -0.0032  0.0742  0.0041
21528W        W64544  28.363  15.887   2.988  0.2548 -0.3400 -0.0045
21529W        W64545  13.727  33.582   7.411  0.1886 -0.0758  0.0403
21530W        W64546  24.051  10.945   9.414 -0.1070 -0.0232  0.3319
21531W        W64547  16.405  30.930   9.353 -0.4105 -0.1502  0.1212
21532W        W64548  12.870  18.847  21.856  0.1576 -0.0290  0.0262
21533W        W64549  33.910  12.031   7.067 -0.3950 -0.1078 -0.0645
21534W        W64550  22.765  15.021  16.812  0.0713  0.0816 -0.0017
21535W        W64551  32.778   7.214  27.313 -0.0990 -0.1434  0.2958
21536W        W64552   2.685  12.017   0.588 -0.3310  0.2345  0.0556
21537W        W64553  21.924  30.852  21.182 -0.1019  0.0457  0.0846
21538W        W64554  31.874  13.126  25.153 -0.1208  0.1675  0.0252
21539W        W64555   0.284  33.286   4.870  0.0513  0.1115  0.2968
21540W        W64556  30.648  11.178   8.263  0.2729  0.0653 -0.1621
21541W        W64557  27.071  18.352  26.408 -0.0468  0.1487 -0.2281
21542W        W64558  15.028  14.171  20.412  0.1057 -0.3242 -0.0099
21543W        W64559  25.565  18.564  19.457  0.0024 -0.1813  0.0388
21544W        W64560  25.772   6.211  10.124  0.4104  0.1164  0.1010
21545W        W64561  15.398  34.024  16.097  0.3033  0.2006  0.0480
21546W        W64562  26.221   4.929   8.036 -0.1626  0.4431 -0.3289
21547W        W64563  19.645   3.855  19.242  0.1252  0.3343  0.0872
21548W        W64564  20.697  27.330   9.127  0.2203  0.3469 -0.2092
21549W        W64565  33.102   7.701   8.236 -0.1791 -0.0498 -0.2832
21550W        W64566   9.959   3.757  16.623 -0.2019 -0.2265 -0.1578
21551W        W64567  11.518  33.032  20.365 -0.0639  0.1321  0.0474
21552W        W64568  11.230   2.055   2.574 -0.1158 -0.1155  0.1915
21553W        W64569  22.298  34.478   1.603 -0.0554  0.4449 -0.0591
21554W        W64570  20.984  12.055  22.924 -0.0614 -0.1615  0.1130
21555W        W64571  23.032   9.323  26.215 -0.3004  0.3682  0.1412
21556W        W64572   2.810  21.473   7.217 -0.3269 -0.3196 -0.1653
21557W        W64573  19.853  16.785  11.705  0.2157  0.0421  0.3413
21558W        W64574  19.265  21.773  24.994  0.1658  0.1187  0.0389
21559W        W64575  22.725   3.780   0.298  0.1821  0.0003 -0.0101
21560W        W64576  23.646   2.742   4.509  0.0676  0.2276  0.2508
21561W        W64577  11.832   8.932   5.491  0.1197  0.4337 -0.1213
21562W        W64578  18.118  18.531  22.897 -0.1812 -0.2269  0.3063
21563W        W64579  15.103  13.347  14.294 -0.0533 -0.2163  0.1018
21564W        W64580  31.098  19.644  18.716 -0.2441 -0.1352 -0.2352
21565W        W64581  17.299   7.313  21.110  0.1017 -0.1167 -0.2291
21566W        W64582  26.848   7.588  28.098  0.1024 -0.1327 -0.4794
21567W        W64583  13.562  10.493  25.296  0.0935 -0.0999  0.0823
21568W        W64584   8.361   6.641   0.046  0.0636 -0.0306  0.1154
21569W        W64585  23.392  19.646  22.644  0.4845 -0.2834  0.0110
21570W        W64586  28.652  17.823  10.105 -0.0895  0.2233 -0.1730
21571W        W64587  32.783  27.482   6.474 -0.0217 -0.1256  0.0166
21572W        W64588  30.816   3.508  24.183  0.2074  0.0373 -0.0469
21573W        W64589  11.900   4.180   5.043 -0.1917  0.0623 -0.2795
21574W        W64590  10.857   0.579   7.469  0.0781 -0.0355  0.0571
21575W        W64591   6.524   0.636  28.205 -0.0554  0.2906  0.0831
21576W        W64592  18.920  26.714   6.044  0.0758  0.0302 -0.2814
21577W        W64593  18.881  22.912  22.806  0.0587  0.2220 -0.3238
21578W        W64594  18.613   4.818   3.229 -0.1164 -0.0084  0.0830
21579W        W64595  24.412  21.407   6.224  0.0194  0.3371 -0.0052
21580W        W64596  23.557   1.237   9.254 -0.1461  0.0431  0.0202
21581W        W64597  32.735  25.093  22.749  0.1449  0.1770  0.1722
21582W        W64598  23.695   9.766   3.950  0.1204  0.1066 -0.0460
21583W        W64599   4.891  16.108   5.675 -0.0148  0.0193  0.1454
21584W        W64600  22.568  34.151  28.563 -0.0372 -0.0387  0.1434
21585W        W64601  21.499  17.382   8.281  0.1332  0.0155  0.0050
21586W        W64602  32.692  15.188  24.399  0.1597 -0.0961  0.2620
21587W        W64603  19.432  14.809   0.505  0.2449  0.0923 -0.1060
21588W        W64604   3.948   4.723  28.411  0.0613 -0.0421  0.1422
21589W        W64605  20.900  21.192  24.254 -0.0127 -0.0579  0.1558
21590W        W64606  20.017  33.981  28.153  0.4739 -0.0172 -0.2445
21591W        W64607  14.703  33.045   4.090  0.0064  0.0654 -0.0905
21592W        W64608  11.126  10.858  22.567 -0.1111  0.1862 -0.0254
21593W        W64609  23.747  14.233  14.781  0.0173 -0.0601 -0.0579
21594W        W64610  28.601  19.986   4.478 -0.0437  0.0347 -0.1895
21595W        W64611  31.294  21.542  25.679 -0.0556  0.1351  0.0841
21596W        W64612  23.810  16.427   3.596  0.1276 -0.0210  0.2097
21597W        W64613  17.519   6.077   8.083  0.0930 -0.1577  0.0434
21598W        W64614  15.901   7.411   5.116 -0.0831 -0.0105 -0.2515
21599W        W64615  28.635  24.946   0.574  0.1608 -0.4700 -0.2806
21600W        W64616  33.211   4.949   1.814 -0.0228 -0.0476  0.1395
21601W        W64617  27.137  20.530  29.046 -0.3276 -0.0524  0.1179
21602W        W64618   3.734   8.328  28.844 -0.1829  0.1339 -0.0420
21603W        W64619  23.413  11.784   5.706 -0.1096  0.1385  0.2396
21604W        W64620  18.993  28.691  11.065 -0.1518 -0.0476  0.1908
21605W        W64621  20.336  30.145   2.768 -0.3026  0.3385 -0.1861
21606W        W64622  17.984   5.420  18.491 -0.1874  0.2314  0.0584
21607W        W64623   0.771  27.547  26.874 -0.0112  0.3366 -0.4217
21608W        W64624  22.096  13.740   6.366  0.0393  0.4161 -0.0018
21609W        W64625  27.953  13.416   3.246  0.0683 -0.0581 -0.3256
21610W        W64626  20.215  14.144  26.957  0.0961  0.4418 -0.0918
21611W        W64627  26.711  13.096  21.579  0.1147 -0.3658  0.0416
21612W        W64628   7.211   3.312  17.904 -0.3498  0.0693 -0.1776
21613W        W64629  32.116  25.804   8.946 -0.2512  0.1827 -0.1880
21614W        W64630  22.869  13.752   6.815  0.2111  0.2000 -0.0293
21615W        W64631   7.079   1.212   7.179  0.1481 -0.1131 -0.1286
21616W        W64632   6.818   1.141  27.525 -0.2050  0.3799 -0.1966
21617W        W64633  25.839   8.513   5.328  0.3759 -0.1703 -0.0748
21618W        W64634  24.389  13.393  27.591  0.1085  0.0579 -0.2120
21619W        W64635   7.261  15.658  24.596  0.0419  0.3939 -0.3222
21620W        W64636  15.456   7.855  28.501  0.0313  0.3073 -0.0237
21621W        W64637  32.458   7.973  16.325 -0.2894  0.2372  0.1582
21622W        W64638  21.415   4.357   1.377  0.2518  0.1595 -0.0085
21623W        W64639  21.287  25.714   7.146 -0.0013  0.2799  0.0809
21624W        W64640  18.494  16.023  22.713  0.1259  0.0045  0.2149
21625W        W64641  12.866  15.758  21.206 -0.2310 -0.3998  0.0837
21626W        W64642  16.249  16.355  22.840  0.2047  0.1410  0.3303
21627W        W64643   7.254  16.547  27.131  0.0007 -0.1111  0.3723
21628W        W64644  24.749   8.194  23.036 -0.1451 -0.1032  0.6435
21629W        W64645  20.098   9.897   5.546 -0.1988 -0.1488  0.2655
21630W        W64646   2.870  14.145  16.266 -0.0757 -0.0393  0.2447
21631W        W64647  24.696   3.854   4.773  0.2341 -0.3777  0.0813
21632W        W64648  13.424  26.283   7.411  0.0791 -0.1264  0.2698
21633W        W64649   5.956  13.262   0.261  0.3311 -0.1498  0.0364
21634W        W64650  29.666  19.432   8.086  0.1226 -0.5016  0.1574
21635W        W64651  25.084  14.992  23.347 -0.1460 -0.1222 -0.2794
21636W        W64652  14.823   7.572   7.715  0.5079  0.1552 -0.3065
21637W        W64653  22.932   3.616  18.734 -0.1158  0.0524  0.0293
21638W        W64654  12.600  17.061   0.154 -0.2390 -0.2788  0.2536
21639W        W64655  18.107  26.807  20.872 -0.0755  0.2100  0.1054
21640W        W64656  17.123  25.881  27.055  0.0130 -0.0801 -0.2431
21641W        W64657  25.406  11.666   6.350 -0.1889  0.4695 -0.2184
21642W        W64658   0.534   4.334  27.965 -0.2961  0.0046 -0.0179
21643W        W64659   5.754  20.986  25.716  0.3148  0.1374  0.1058
21644W        W64660  25.003   6.926   8.977  0.2673 -0.1856  0.1799
21645W        W64661  23.247  20.972   1.066  0.0895 -0.5714  0.2431
21646W        W64662  24.534  15.656   4.235  0.1794 -0.1072  0.0125
21647W        W64663  19.985  19.293  26.728 -0.3354 -0.0179  0.0220
21648W        W64664  10.718   8.357  21.365  0.2258  0.0305 -0.0518
21649W        W64665  23.711   2.472   5.043 -0.1876 -0.2210 -0.1031
21650W        W64666  11.447  16.396  23.500  0.2814  0.0681 -0.0313
21651W        W64667  11.722  16.420  27.466  0.0375  0.1350  0.1570
21652W        W64668  24.125  30.545   2.262  0.0075  0.1351 -0.3250
21653W        W64669   1.832  27.779   6.042  0.0678 -0.1032 -0.2024
21654W        W64670  14.472  17.344   1.024 -0.1560  0.3076 -0.2260
21655W        W64671   4.946  26.969  28.656 -0.1297 -0.4899 -0.3292
21656W        W64672  21.099  32.742   0.737  0.0914  0.0140 -0.0431
21657W        W64673  32.981  10.335  24.915 -0.0145  0.2000 -0.1138
21658W        W64674  22.963  17.302   3.186  0.1233 -0.0340  0.0112
21659W        W64675  19.423  15.955  22.729  0.5082 -0.2401  0.0609
21660W        W64676  22.809  11.068   5.014  0.0318 -0.1342 -0.2157
21661W        W64677  30.453  14.400   8.841  0.0432 -0.1626  0.0603
21662W        W64678  22.368   5.650   9.218 -0.2662 -0.1081  0.3312
21663W        W64679  33.365   0.349   9.319  0.2308  0.0037 -0.0433
21664W        W64680  13.112   8.650   0.020  0.0773  0.0997  0.1399
21665W        W64681  28.986   2.256  17.763 -0.2302 -0.1573  0.0918
21666W        W64682   3.566  29.387   3.016  0.5600  0.0787  0.3450
21667W        W64683  15.760  11.323   3.582 -0.2063  0.3287 -0.0159
21668W        W64684  14.453   4.886   7.589 -0.4347 -0.0318  0.1004
21669W        W64685  19.371  24.395   4.063 -0.0110  0.1800  0.0509
21670W        W64686  11.919  10.329   8.232 -0.2000  0.0919 -0.1443
21671W        W64687  26.300   5.940   5.263 -0.1292  0.0624  0.0229
21672W        W64688  11.659   5.258  22.940 -0.0525  0.0918  0.1329
21673W        W64689  29.134  29.885  25.788 -0.1010 -0.0083  0.0004
21674W        W64690  26.693   6.398  10.081 -0.2326  0.1224  0.0619
21675W        W64691  18.402   4.303   6.109  0.2424 -0.0548  0.1084
21676W        W64692  31.185   5.930  24.236 -0.1043  0.1601 -0.2306
21677W        W64693  30.211  13.909   0.230  0.1340 -0.2880  0.2281
21678W        W64694  23.642  33.241  26.688  0.0240  0.1918 -0.0874
21679W        W64695  28.604  22.645  24.811  0.3384  0.0127 -0.2754
21680W        W64696  23.793   7.531   9.811 -0.1906 -0.0464 -0.1905
21681W        W64697  31.392  17.409  22.974 -0.2350  0.1695  0.3627
21682W        W64698  34.395   8.166   1.530  0.0380  0.0666 -0.0997
21683W        W64699  28.763   0.606   5.492  0.0884 -0.1136  0.0364
21684W        W64700  18.552  15.721   0.231 -0.1190  0.2781  0.1163
21685W        W64701  18.876  10.759  17.538 -0.3558  0.0375  0.0724
21686W        W64702   2.164   2.466   0.722  0.0213  0.2251 -0.1670
21687W        W64703  31.246  26.830  11.119  0.2369 -0.2366 -0.1327
21688W        W64704  22.415  18.318  15.683  0.2346 -0.0988 -0.1163
21689W        W64705  32.282   2.727   3.421 -0.3190  0.0583 -0.1464
21690W        W64706  20.841   5.791  27.325 -0.2132 -0.0324  0.1153
21691W        W64707  18.043   4.451   9.865 -0.1546 -0.3592 -0.1922
21692W        W64708  26.054  12.714   2.544  0.2385  0.1001 -0.3362
21693W        W64709  20.643  31.792   4.387 -0.1207 -0.0698 -0.2496
21694W        W64710  18.344  24.250  29.218 -0.1760 -0.0129  0.2804
21695W        W64711  13.177   1.354  22.817  0.1779  0.0944  0.0520
21696W        W64712  16.279  33.992  17.092  0.3513 -0.1128  0.0692
21697W        W64713   0.203   2.819  23.694  0.1293  0.1932  0.3031
21698W        W64714  14.279  28.159  22.189  0.3405 -0.0879  0.1987
21699W        W64715  29.906  15.183  25.723  0.1356 -0.0166 -0.0654
21700W        W64716  26.590  21.004   5.520  0.3222  0.0313  0.0979
21701W        W64717  14.648  23.192   4.629 -0.0368 -0.0849  0.1771
21702W        W64718  31.027  14.529   1.617  0.1340 -0.3256  0.1390
21703W        W64719  29.026   8.143  17.284  0.1048  0.0190  0.0264
21704W        W64720  32.498  31.674  26.701  0.2046 -0.1705 -0.1287
21705W        W64721  34.741  16.223   9.647  0.1978  0.0609 -0.1115
21706W        W64722   6.222  21.038   2.808  0.0142  0.0581 -0.3135
21707W        W64723  26.728  16.295   2.819  0.0187 -0.2324 -0.1657
21708W        W64724  15.894  19.030   1.657  0.0312  0.1106  0.1675
21709W        W64725  32.781  12.480  24.778  0.3463 -0.2582  0.0029
21710W        W64726  34.317   7.545   2.533 -0.0495 -0.0186  0.2758
21711W        W64727  19.937  12.417  21.362  0.3798  0.4065  0.1918
21712W        W64728  21.317   1.481   0.801  0.0942  0.0461 -0.0014
21713W        W64729  33.652  13.622  28.676  0.1637  0.0925  0.1445
21714W        W64730  23.337  10.363   1.988 -0.0075 -0.1518 -0.1328
21715W        W64731  27.138  22.831   9.505 -0.2469  0.2403 -0.2070
21716W        W64732  11.645   8.622   2.650 -0.0082  0.2243 -0.1831
21717W        W64733  25.822  27.496   8.555  0.4049 -0.3202 -0.0203
21718W        W64734  26.804  18.501   2.353 -0.2972  0.0132  0.0707
21719W        W64735  19.768  28.906   6.550  0.2209 -0.1924 -0.1256
21720W        W64736  22.782  15.649  26.841  0.2213  0.2395 -0.0476
21721W        W64737   1.751   9.624  24.664 -0.0113 -0.0594 -0.1015
21722W        W64738  21.246  18.226   1.599 -0.2716  0.1215 -0.0350
21723W        W64739  33.183  13.340   6.084 -0.1040 -0.1269  0.5626
21724W        W64740  19.127   6.591   1.683 -0.1112  0.3535  0.1767
21725W        W64741   2.506  11.833   0.038 -0.5646 -0.0147 -0.1430
21726W        W64742  12.974  14.860   4.614  0.2288 -0.0327  0.0501
21727W        W64743  13.294   5.665   0.416  0.2360 -0.4431 -0.4825
21728W        W64744  29.733  29.161   4.802  0.2063  0.3084 -0.1274
21729W        W64745  23.152   7.219   9.378  0.2193  0.1395  0.1107
21730W        W64746  27.013  21.176  10.527 -0.2390 -0.1152  0.2353
21731W        W64747   0.507   7.907  23.269 -0.5044  0.0597 -0.1225
21732W        W64748  33.176   5.238  20.961  0.0041 -0.1534 -0.0676
21733W        W64749  15.554  32.700   1.262 -0.1947 -0.1768  0.1613
21734W        W64750  16.802  11.847   3.378  0.1441  0.0748 -0.1280
21735W        W64751   1.290  14.842   2.814  0.1175 -0.1187  0.2091
21736W        W64752  21.844  17.188   8.690  0.2355  0.2212  0.0749
21737W        W64753   9.857  11.265   7.955  0.0230 -0.0225 -0.1429
21738W        W64754  24.949  16.554   2.762 -0.0090 -0.0376  0.4295
21739W        W64755  30.284   7.994   3.984 -0.0239  0.1421  0.0641
21740W        W64756  26.234   9.942   1.097  0.2102  0.0484  0.1729
21741W        W64757  30.926  25.017   2.655  0.0723 -0.0763  0.0450
21742W        W64758   5.042  21.245   5.314 -0.0208 -0.1470  0.0917
21743W        W64759  11.915  26.185   8.597  0.1957  0.0537 -0.0281
21744W        W64760  12.143  10.317   5.595 -0.2340  0.0987  0.0166
21745W        W64761  17.152  13.500   2.597 -0.1184 -0.0037  0.2751
21746W        W64762  24.759  15.231   8.781 -0.0799 -0.0506 -0.0286
21747W        W64763  25.827   3.347   5.504  0.1090 -0.1625 -0.0336
21748W        W64764  23.265  12.850   6.388  0.0127  0.0248 -0.3856
21749W        W64765  26.025   4.596   0.846 -0.0422 -0.0309  0.2629
21750W        W64766  24.984   7.616   3.016  0.0948 -0.1161 -0.0244
21751W        W64767   6.925   7.643   0.417 -0.0955 -0.2575 -0.1495
21752W        W64768  23.743  16.653   6.959 -0.3483 -0.0822  0.0734
21753W        W64769   3.408  18.530   4.504 -0.1038 -0.4141 -0.0775
21754W        W64770  20.078   8.891   4.939  0.0670  0.2176  0.0348
21755W        W64771   1.963   3.884   7.157  0.2381 -0.1933  0.1786
21756W        W64772  24.665  20.184   3.498 -0.2440  0.0010  0.1335
21757W        W64773  12.196  30.888  25.799  0.0304  0.0953 -0.1859
21758W        W64774  17.291   1.460   7.533  0.1091 -0.0762 -0.2891
21759W        W64775  33.075   6.199   7.555 -0.0688  0.0255  0.0850
21760W        W64776   2.255   4.790  25.930  0.3786  0.0362  0.1954
21761W        W64777   6.651   8.051   8.467 -0.3888  0.0893  0.2650
21762W        W64778  14.688  22.100  14.745  0.3204 -0.2168 -0.2233
21763W        W64779   2.870  14.494  20.663  0.3053 -0.0096  0.0975
21764W        W64780  12.311  15.914   7.451 -0.2049 -0.2109  0.4482
21765W        W64781  26.944  27.170   3.909  0.0580  0.1946  0.1800
21766W        W64782   6.120   5.537   4.191 -0.1129 -0.0486 -0.0680
21767W        W64783  26.414  12.803   1.457 -0.1289  0.0187 -0.0359
21768W        W64784  28.438   2.350   9.122 -0.1711  0.0611  0.1577
21769W        W64785  29.505  22.642   2.649  0.1131  0.3174 -0.0861
21770W        W64786  34.327   4.420   9.393 -0.0818  0.2742 -0.2530
21771W        W64787   7.521  21.736   0.408  0.1416 -0.2603  0.0769
21772W        W64788   0.568  10.163   9.736 -0.1499 -0.3129  0.1556
21773W        W64789  23.328  33.121  10.046 -0.0519 -0.1060  0.0602
21774W        W64790  21.787  10.161   7.426  0.3295  0.2542  0.2274
21775W        W64791  14.503   3.904   9.097 -0.0951 -0.0089  0.4429
21776W        W64792  30.586  14.164   6.653 -0.0745  0.2956  0.0286
21777W        W64793  28.517  25.622   4.707 -0.1982  0.0123  0.1773
21778W        W64794  24.777  23.259  10.104 -0.2664 -0.2352 -0.1776
21779W        W64795  23.843  34.596   8.890 -0.2792  0.0897 -0.0276
21780W        W64796  29.842   4.919  28.688  0.1025  0.3555  0.0572
21781W        W64797   7.256  10.249  28.162  0.1340  0.1975  0.1191
21782W        W64798  33.473  10.118   1.891  0.2230  0.0053 -0.0015
21783W        W64799  17.312   9.156   3.209 -0.0659  0.0458 -0.4493
21784W        W64800  15.335  31.199  27.318 -0.1365  0.0942  0.2604
21785W        W64801  11.956  25.195   6.355  0.3733  0.2252  0.0878
21786W        W64802  22.550   5.657  27.214 -0.0013  0.1769  0.2360
21787W        W64803   3.193   7.745   5.265 -0.0921 -0.0298 -0.0696
21788W        W64804  28.319  12.670  22.665 -0.4856  0.1965 -0.0839
21789W        W64805  31.210   0.044  28.060 -0.0958 -0.0923 -0.0824
21790W        W64806  29.176  25.095  11.451 -0.2620 -0.4486 -0.3180
21791W        W64807  27.362   0.604  27.958 -0.2181  0.2133 -0.0405
21792W        W64808   6.033  11.035  25.474 -0.0663  0.4254 -0.1379
21793W        W64809  31.693  19.399   7.983  0.1979 -0.3346 -0.0518
21794W        W64810  19.475  10.521   1.610 -0.0760  0.5078 -0.1190
21795W        W64811   4.585  25.894  17.157 -0.0215  0.1750 -0.0820
21796W        W64812  12.057   0.485   9.643  0.3277 -0.0962 -0.3170
21797W        W64813  20.637   5.863   5.328  0.0034 -0.2841  0.1865
21798W        W64814  16.912  19.701  28.722  0.1811  0.0873 -0.1385
21799W        W64815  27.928   3.202  29.108 -0.3832 -0.1542  0.2086
21800W        W64816  24.786   5.272   4.463  0.0603  0.1610 -0.0269
21801W        W64817  17.447  11.533  22.350  0.4896 -0.1167 -0.0190
21802W        W64818  19.833  11.308   7.217 -0.3423  0.0028 -0.3065
21803W        W64819  29.788  12.595   4.665 -0.0401  0.3469 -0.0837
21804W        W64820  26.449  18.738  24.769  0.1586  0.1656  0.0744
21805W        W64821  31.283  15.100  20.870 -0.3071  0.0262 -0.0446
21806W        W64822   9.499  10.369   2.754  0.1372 -0.0732  0.1356
21807W        W64823   3.454  29.957   0.721 -0.3853  0.0464 -0.1004
21808W        W64824  22.051   8.601   7.253 -0.0132 -0.0866  0.0132
21809W        W64825  31.984   9.435   2.644 -0.0216  0.1638 -0.3311
21810W        W64826   3.365   8.167  25.890 -0.1228 -0.1872 -0.2546
21811W        W64827  12.380   2.307   8.667  0.0937 -0.1070  0.3644
21812W        W64828  15.259  10.813  29.213  0.2456  0.0435 -0.0459
21813W        W64829  28.778  24.317   3.853  0.1610  0.1884 -0.3797
21814W        W64830   7.259   1.230   4.188 -0.1144 -0.0509  0.1010
21815W        W64831  17.969  27.929   3.254 -0.1337 -0.0247 -0.0356
21816W        W64832  26.416  12.920   3.412  0.0791 -0.0271  0.2874
21817W        W64833  24.580   8.314  17.281  0.1428 -0.0325  0.1659
21818W        W64834   9.620  34.039   8.995 -0.2440  0.4899 -0.1175
21819W        W64835  20.290  19.340   7.835 -0.0506  0.1227 -0.0947
21820W        W64836  20.367  10.478   6.716  0.1163  0.0131 -0.0039
21821W        W64837  15.963  21.382  28.021 -0.2423 -0.0308  0.0829
21822W        W64838   1.775  15.145   8.364 -0.0700  0.0872  0.1552
21823W        W64839  14.480  13.026  29.027  0.1529  0.2449  0.1858
21824W        W64840   7.838  13.119  29.095  0.0543  0.3266 -0.0167
21825W        W64841  17.103  23.334  27.447  0.0002  0.0755 -0.1036
21826W        W64842  23.842  32.011   6.280 -0.0190 -0.0842  0.1420
21827W        W64843  24.654  13.676  25.574  0.1715  0.2010 -0.2972
21828W        W64844  22.134  15.569   4.497 -0.2131  0.0277  0.0523
21829W        W64845  31.276  11.222  28.818 -0.1820 -0.0907  0.0176
21830W        W64846  19.532   8.969   4.049 -0.1130  0.2687  0.1447
21831W        W64847  28.760  32.955   0.504 -0.3222 -0.1868 -0.2577
21832W        W64848   0.230  13.235   6.781  0.0888 -0.0804 -0.1963
21833W        W64849  33.556  12.497  20.608  0.4349  0.0025 -0.1341
21834W        W64850  21.637  19.301  28.342  0.1156 -0.1466  0.2462
21835W        W64851  10.686  14.051   5.049 -0.2407  0.0015  0.2781
21836W        W64852  17.931   7.172   7.468  0.5491 -0.3004  0.1059
21837W        W64853  26.267  34.341  25.627  0.1114 -0.0963 -0.0440
21838W        W64854   3.093   3.201   2.158  0.0207  0.2469 -0.1309
21839W        W64855  18.035  15.106  28.475 -0.2496 -0.0126  0.2070
21840W        W64856  22.640  29.584  11.158 -0.0489  0.0100  0.1956
21841W        W64857  22.200  14.167  26.853  0.0339  0.1332  0.0784
21842W        W64858  24.721   7.829   9.566  0.0204 -0.0521 -0.0785
21843W        W64859   6.079  17.002  27.677  0.2257  0.0028  0.0248
21844W        W64860   7.262   5.195   6.915 -0.0680 -0.0914  0.3998
21845W        W64861   6.696  19.932   1.857 -0.0954  0.0263  0.1864
21846W        W64862  13.827   2.569   9.807 -0.1225 -0.3284 -0.1099
21847W        W64863   0.109   2.324   2.469  0.1852  0.2216  0.1020
21848W        W64864   1.014  34.172   2.981  0.1003 -0.3060  0.0493
21849W        W64865  19.479  15.980  27.259  0.1730  0.3270 -0.0003
21850W        W64866  20.362   1.657   9.007  0.0922  0.1847  0.0687
21851W        W64867  30.773  18.525  27.803  0.2070  0.1518 -0.1033
21852W        W64868  31.946   0.776  27.181  0.3155  0.1909  0.3152
21853W        W64869  27.520  12.718  15.899  0.1755  0.0952  0.0763
21854W        W64870  15.191  28.937  26.388  0.2124  0.2949  0.1691
21855W        W64871  19.314  11.058  19.021 -0.0137  0.1023  0.1903
21856W        W64872  33.792  17.537   8.861  0.2755 -0.0158  0.0706
21857W        W64873  10.389  34.039   1.291  0.1500  0.3390  0.1363
21858W        W64874   2.820  14.239   7.527 -0.2856 -0.2352  0.1953
21859W        W64875  15.113   3.409   3.841  0.2345  0.1448 -0.0157
21860W        W64876  23.388  20.192   4.978  0.1462  0.1327  0.2190
21861W        W64877  25.450   1.376  24.242  0.3635 -0.0124 -0.0467
21862W        W64878  12.896   1.692   6.872  0.1031  0.0269 -0.1759
21863W        W64879  21.929  14.124   5.694 -0.0608 -0.1893 -0.0411
21864W        W64880  19.909   3.561   7.821  0.3329 -0.0786 -0.0052
21865W        W64881   0.534  10.689  27.374 -0.3816 -0.1658  0.0149
21866W        W64882   0.566  27.375   4.766  0.4264  0.0604  0.2512
21867W        W64883  13.415  11.221  28.207 -0.0385  0.1134 -0.0423
21868W        W64884  30.135   9.295   3.913  0.1248 -0.2364 -0.0490
21869W        W64885   3.874   7.283   7.791  0.0043 -0.1539  0.2083
21870W        W64886   6.652  31.740  23.896  0.0528 -0.2321 -0.0944
21871W        W64887   1.419  10.176   6.166 -0.1299 -0.2059 -0.3040
21872W        W64888  15.714   4.845   4.446  0.0770 -0.1052  0.1445
21873W        W64889  32.433   8.736  24.013 -0.1099 -0.1270 -0.1493
21874W        W64890  29.467  21.631  28.235  0.3422  0.3089  0.1093
21875W        W64891  32.938   0.728   4.229 -0.4063 -0.0699  0.1735
21876W        W64892  10.493  33.491  23.456  0.1810 -0.1265  0.0006
21877W        W64893  25.367   8.822   1.794 -0.1356  0.2694 -0.0628
21878W        W64894  25.874   3.219  10.150  0.4074 -0.1446 -0.1587
21879W        W64895  26.508   9.729   6.144  0.4587 -0.0437  0.0746
21880W        W64896  30.791   1.964   0.664 -0.2881  0.1044  0.6419
21881W        W64897  33.802  22.462   9.296  0.1132 -0.0178  0.2682
21882W        W64898   6.379  10.177   1.572 -0.2376 -0.1507 -0.1344
21883W        W64899  25.485  15.647   9.950  0.3558 -0.0303 -0.1933
21884W        W64900  22.532  13.887   2.803  0.1698  0.0089  0.0665
21885W        W64901  24.240  11.263   0.862 -0.2423 -0.1434 -0.0074
21886W        W64902  17.584  16.829  14.928 -0.2713  0.2622  0.1444
21887W        W64903  19.598  18.782   1.702  0.1462  0.0572 -0.1066
21888W        W64904  30.290   7.298   1.799  0.0986  0.2957  0.0613
21889W        W64905  26.331  33.468   0.679  0.3867  0.1734  0.0834
21890W        W64906  27.722   4.284   6.454 -0.0518  0.0892  0.0536
21891W        W64907   1.370  17.202   0.909  0.0923 -0.3228  0.1132
21892W        W64908  22.221  14.395  25.282  0.0659  0.1696  0.0881
21893W        W64909  17.857  20.620  27.805  0.1259  0.1882 -0.1602
21894W        W64910   2.228  27.426   0.515 -0.0172 -0.0492  0.2712
21895W        W64911  25.441   6.323  27.516 -0.1756 -0.0482  0.0338
21896W        W64912   0.934  10.939   4.944  0.2094  0.0941 -0.3615
21897W        W64913  26.929  23.687   8.255  0.0955  0.1249 -0.0599
21898W        W64914  31.967   4.018  10.018  0.0268 -0.2532  0.4273
21899W        W64915  25.298  13.018   0.259 -0.0845  0.0764  0.0174
21900W        W64916  24.890  22.680  19.642 -0.1508  0.0246 -0.1981
21901W        W64917   2.426  18.082   8.578 -0.2018 -0.3376  0.1356
21902W        W64918   9.775  19.563   1.887 -0.4030 -0.1265  0.4237
21903W        W64919  25.263  18.101  21.587  0.1834 -0.2715  0.0570
21904W        W64920  16.030   0.152   0.226  0.1654 -0.0347 -0.1070
21905W        W64921  16.420  12.669  26.958 -0.4843 -0.0411  0.0771
21906W        W64922  29.196  15.786   8.906 -0.0385  0.2269 -0.1356
21907W        W64923  30.077  10.817   9.297 -0.2280 -0.0679 -0.2174
21908W        W64924  14.800  24.212  15.498  0.2454  0.0359  0.2505
21909W        W64925  27.727  29.152   2.802 -0.0766 -0.2290  0.0604
21910W        W64926  31.041  13.672   9.904  0.3255  0.1689  0.0207
21911W        W64927  31.508  12.839  25.841 -0.3417  0.2595  0.0571
21912W        W64928  26.626   4.144  20.192  0.0345  0.4004 -0.1720
21913W        W64929  18.033  11.694   4.215  0.0181 -0.0539  0.2347
21914W        W64930   0.741   9.130  26.694 -0.0160  0.0427  0.0971
21915W        W64931  19.790  11.311   6.671  0.0961  0.1509 -0.2491
21916W        W64932  11.363  20.708   6.116  0.4122 -0.0320  0.0357
21917W        W64933  28.134  18.386   9.580  0.0339 -0.2415 -0.3424
21918W        W64934   5.836   3.083   7.600 -0.0793  0.2886  0.1445
21919W        W64935  29.029  14.949  14.779 -0.0355 -0.3131  0.0697
21920W        W64936  26.076  34.050   7.788 -0.3594 -0.0969 -0.2076
21921W        W64937  33.933  30.672   6.839 -0.1209 -0.0028  0.1167
21922W        W64938  29.411   7.442   1.057  0.0555 -0.0505 -0.0291
21923W        W64939   0.913  14.154   2.301  0.1356 -0.1231 -0.0778
21924W        W64940   1.446  33.419  28.313 -0.2525  0.2934  0.0095
21925W        W64941   2.049   9.872  22.674 -0.2701  0.1100  0.1468
21926W        W64942  18.314   7.366   3.315  0.3344 -0.0280  0.0627
21927W        W64943  20.274   8.233   1.441  0.3878 -0.2110  0.0379
21928W        W64944   8.385  24.704   0.979  0.2054  0.1514 -0.3094
21929W        W64945   6.185   8.942  26.164 -0.1442 -0.0333  0.4863
21930W        W64946  18.624  11.496   8.457  0.1846  0.0218  0.1453
21931W        W64947  29.085  18.814   7.441 -0.0523  0.1402  0.0998
21932W        W64948  22.389  11.788   1.506 -0.0955  0.0624  0.1703
21933W        W64949  33.422  15.643   9.229  0.0319 -0.0635  0.1801
21934W        W64950   0.709  34.015   5.927 -0.0999  0.2392 -0.0199
21935W        W64951  27.142   2.362   2.704 -0.0354 -0.0921 -0.2131
21936W        W64952  21.506  12.312  17.427 -0.2809  0.0932  0.1134
21937W        W64953  19.007  23.139   5.452  0.0354 -0.0346 -0.0238
21938W        W64954  29.854   2.872   7.405 -0.1562 -0.1256 -0.1885
21939W        W64955  17.104  25.995   9.451 -0.1616  0.1722 -0.0116
21940W        W64956  20.478  11.613   2.969 -0.1827 -0.0829  0.0825
21941W        W64957   0.786   6.079   4.749 -0.3243  0.0365  0.1419
21942W        W64958   0.220  17.029  23.670  0.1523  0.1921  0.0843
21943W        W64959  24.883  14.190   4.490  0.0006 -0.0152  0.0625
21944W        W64960  30.260   7.969  26.716 -0.1949 -0.0816 -0.0961
21945W        W64961  29.742  20.569   4.066  0.1908 -0.1079  0.1181
21946W        W64962  26.713  19.337   9.586 -0.2468  0.1770 -0.2492
21947W        W64963  27.334   8.031   1.357 -0.0582  0.0943  0.0300
21948W        W64964  29.776  15.533   6.502  0.3252 -0.2676  0.0917
21949W        W64965  30.393   2.640   4.548  0.1765 -0.0229  0.1644
21950W        W64966  32.459   2.932  27.695 -0.2150 -0.0771 -0.1018
21951W        W64967  23.672  12.157   2.049 -0.2354 -0.0222 -0.0287
21952W        W64968  18.403  20.858  15.688  0.1934  0.1330  0.2810
21953W        W64969   4.617   4.550  24.313  0.0126 -0.2237  0.0380
21954W        W64970   7.239  15.536   6.644 -0.0120  0.1630 -0.0325
21955W        W64971  19.791   5.357   2.714  0.2180  0.0018 -0.3818
21956W        W64972  23.882   4.757  26.811  0.0172  0.1941  0.3594
21957W        W64973  18.420  19.762  26.895  0.1678 -0.0238 -0.1898
21958W        W64974  22.737  20.302   0.559  0.2133 -0.0470 -0.0870
21959W        W64975  29.573   6.723   6.763  0.0469  0.2217 -0.0584
21960W        W64976  25.685  24.754   7.435  0.5174  0.3200  0.1618
21961W        W64977  21.316   8.682  28.899 -0.1791 -0.0365 -0.1441
21962W        W64978  16.587   7.323  24.219 -0.4024  0.0705  0.0096
21963W        W64979  17.968  21.909  25.838 -0.0746  0.0309 -0.1508
21964W        W64980   7.730  30.553   5.811  0.1742  0.1516 -0.0345
21965W        W64981  14.546   8.365   5.121  0.3168 -0.1786  0.0579
21966W        W64982  12.533   2.848  16.922  0.1526  0.2112 -0.1161
21967W        W64983  18.275   6.660   3.826  0.0362  0.3224 -0.0346
21968W        W64984   7.136   4.287  28.566  0.0946  0.0856 -0.1549
21969W        W64985  25.771  23.966   6.716 -0.0966 -0.0938 -0.2910
21970W        W64986  10.697  15.651   8.269 -0.1649 -0.2350 -0.2015
21971W        W64987  30.812   9.318  16.420  0.1249 -0.0044 -0.1164
21972W        W64988  25.591   6.267   8.724  0.0287  0.1015  0.0174
21973W        W64989  21.434  14.142   3.670  0.2340 -0.0903  0.2062
21974W        W64990   7.038   5.583   4.266 -0.1659  0.1050  0.2151
21975W        W64991  29.123  18.649  17.726 -0.0197 -0.1954 -0.0514
21976W        W64992  15.161   3.760   3.379  0.2780 -0.2067  0.1319
21977W        W64993   8.497   8.584   5.378  0.2661  0.0041  0.1918
21978W        W64994  19.171  32.509   3.048 -0.1475 -0.0674  0.0595
21979W        W64995  25.028   0.440   1.226  0.1053  0.0899 -0.1097
21980W        W64996  17.587  11.906   8.204  0.3929  0.3497 -0.0689
21981W        W64997  27.264  16.244  24.888 -0.1206  0.0816 -0.0942
21982W        W64998  21.309   1.380   5.546 -0.0065  0.2071  0.1664
21983W        W64999  21.685  11.528  21.052 -0.0789  0.1046 -0.0899
21984W        W65000  34.038  34.307   9.331  0.0663  0.2167  0.2393
21985W        W65001  20.938  14.136  18.965  0.0454  0.2417 -0.1867
21986W        W65002  25.678  25.062  22.208 -0.1763 -0.2072  0.0417
21987W        W65003  10.717  16.570  23.586 -0.0842  0.0936 -0.2873
21988W        W65004  19.005   4.727  10.417  0.1916  0.3357  0.1732
21989W        W65005  22.669  13.307   7.079  0.1865  0.2307 -0.2322
21990W        W65006  27.303  26.364  28.868 -0.1523 -0.3475  0.3963
21991W        W65007  27.059  15.384  25.103  0.1434  0.0501  0.0971
21992W        W65008   1.081  32.909  15.088 -0.3037 -0.1194  0.0290
21993W        W65009  28.429  15.682   5.067 -0.1771 -0.1915  0.0897
21994W        W65010  31.091  33.459   4.342 -0.1229 -0.0023 -0.0547
21995W        W65011  32.755   6.765  14.859  0.3168  0.4570 -0.2980
21996W        W65012  29.946  28.645   1.306  0.0757 -0.1679 -0.3522
21997W        W65013  17.202  14.642  27.064 -0.1144  0.0089  0.2813
21998W        W65014   0.416  27.570   7.146  0.0010  0.1484 -0.3995
21999W        W65015  32.284   0.947  22.979  0.2872  0.0932  0.1372
22000W        W65016  14.352   3.187  16.618  0.1973 -0.2650  0.1911
22001W        W65017   3.423  13.178   4.138 -0.0045 -0.0339  0.2980
22002W        W65018  11.339   3.869   3.992 -0.0894 -0.2750 -0.0645
22003W        W65019  29.603   6.970   6.330 -0.0685 -0.0991 -0.4742
22004W        W65020  24.683   3.581   9.871 -0.0027 -0.2070  0.1322
22005W        W65021  20.551   2.316  18.269  0.3198  0.2051  0.4043
22006W        W65022  21.357   2.463  16.494  0.0269 -0.2360 -0.4326
22007W        W65023  24.226   0.199  21.512  0.0437  0.1321  0.0145
22008W        W65024  20.821   5.237   1.778 -0.0292  0.1017  0.2695
22009W        W65025  25.109   1.732   2.173  0.1974 -0.3351  0.1874
22010W        W65026  13.191  15.965  22.980  0.0687 -0.0782 -0.2541
22011W        W65027  11.672   9.389   5.606 -0.0432  0.2401  0.0773
22012W        W65028  18.400  25.417  26.260  0.2110 -0.3718 -0.0634
22013W        W65029  22.487  14.881   8.728  0.1923 -0.0956  0.1715
22014W        W65030  32.807  17.140   6.314 -0.3584  0.0591 -0.1724
22015W        W65031  18.939  27.262   6.986 -0.1804  0.1370 -0.1609
22016W        W65032  27.616  30.695   5.221 -0.2637 -0.1191 -0.2463
22017W        W65033  23.671  21.455   5.025  0.0688 -0.0696  0.0773
22018W        W65034  30.447  17.847  28.910 -0.3800 -0.0629 -0.1615
22019W        W65035  24.601  14.999   7.140 -0.3490  0.0330  0.1989
22020W        W65036   0.407  34.693  27.471 -0.1464 -0.0392 -0.0053
22021W        W65037   1.006  11.300   5.368  0.2073  0.1236 -0.1263
22022W        W65038  27.483   1.142  16.000  0.2278 -0.0500 -0.0210
22023W        W65039  30.148   0.728  27.350 -0.0681 -0.0645  0.4169
22024W        W65040  17.320  16.623   0.277  0.3453 -0.1465 -0.1603
22025W        W65041  21.309  11.752   0.631 -0.1264 -0.0668  0.0496
22026W        W65042  27.066   3.435  26.368 -0.2394 -0.0840  0.0844
22027W        W65043  26.065   8.550   0.172 -0.3845  0.0818 -0.0295
22028W        W65044  18.398  33.375  26.097 -0.0043 -0.1386  0.0842
22029W        W65045  26.346   9.239   6.156  0.0051 -0.1323  0.2657
22030W        W65046  26.681  22.847   3.477 -0.0209 -0.0707  0.1819
22031W        W65047  24.457   5.551  25.984  0.1587  0.0836  0.0332
22032W        W65048   3.123  14.742   0.256 -0.2031 -0.1756 -0.1576
22033W        W65049  24.481  16.051  19.990  0.0333  0.0197 -0.1144
22034W        W65050  31.502  16.295  21.549 -0.4841 -0.0639  0.0279
22035W        W65051   2.372  10.640  26.843  0.1402  0.2247 -0.2032
22036W        W65052  13.814   7.977   8.922 -0.4546 -0.1105 -0.1785
22037W        W65053  24.653  18.173   1.096  0.1047 -0.2351  0.0615
22038W        W65054  25.835  28.898   1.251 -0.1359 -0.1827  0.3063
22039W        W65055  19.737   7.226   6.752  0.0142 -0.0131 -0.1062
22040W        W65056  28.932   2.378   5.774 -0.0928  0.2488 -0.0722
22041W        W65057  19.054   6.292   1.306  0.2933 -0.0425  0.4079
22042W        W65058  18.348   8.200   5.184 -0.0658 -0.0390  0.0552
22043W        W65059  26.314   6.436   9.103  0.0157 -0.2720  0.0069
22044W        W65060  18.404   7.410   6.868 -0.3458  0.2313 -0.1442
22045W        W65061   1.660   8.479   6.643 -0.1663  0.2689  0.0081
22046W        W65062  26.090   8.334  16.134 -0.1840  0.3444 -0.0919
22047W        W65063  25.642   4.230   4.862 -0.0927 -0.2959 -0.3682
22048W        W65064  30.860  10.289   4.147 -0.0288  0.1088 -0.3725
22049W        W65065  11.326   9.668   8.948 -0.0111 -0.1534 -0.0163
22050W        W65066  22.876  17.756  20.841  0.1942 -0.3465 -0.2369
22051W        W65067  16.126   5.264   4.030 -0.0613  0.0322  0.3026
22052W        W65068  30.020  18.540  28.338  0.0061 -0.0914  0.0157
22053W        W65069  16.249  15.304  22.565  0.1152 -0.0618  0.2191
22054W        W65070  21.777  29.682   6.213 -0.0023 -0.1894 -0.0650
22055W        W65071   7.244  29.744  21.253  0.0094  0.4577  0.0587
22056W        W65072  26.441  15.617   3.948  0.2583 -0.2344 -0.1980
22057W        W65073   2.875  30.032   7.833 -0.1525 -0.0441 -0.0124
22058W        W65074   0.364  11.455  26.988 -0.0537 -0.1997 -0.2712
22059W        W65075  31.137  14.762   8.058  0.1864  0.0526  0.1248
22060W        W65076  16.516  20.502   7.877 -0.4377  0.2783  0.0665
22061W        W65077  30.031  10.080   8.655  0.2529  0.1620 -0.0704
22062W        W65078  10.338  15.278  28.831 -0.2333  0.3341  0.0046
22063W        W65079  33.241  34.637   7.694 -0.0572  0.2371  0.1904
22064W        W65080  19.652  27.632   5.229  0.3641  0.2745  0.1226
22065W        W65081  24.285   5.224  22.844 -0.3216 -0.3952  0.0278
22066W        W65082  20.227  32.902   4.480  0.0950 -0.2028  0.1083
22067W        W65083  10.663   9.375  25.921  0.0156  0.0342 -0.0093
22068W        W65084  31.663  12.258   4.381  0.4269  0.1110  0.2059
22069W        W65085  18.674   8.103  27.946 -0.1428  0.0449 -0.1875
22070W        W65086  25.299   6.342   0.863  0.3902  0.3823  0.2592
22071W        W65087  24.605   7.297  10.155  0.0425 -0.4021 -0.0668
22072W        W65088  34.560  28.610   5.125 -0.0771  0.4379 -0.1393
22073W        W65089  23.800   3.357  26.065  0.0168  0.0186  0.4367
22074W        W65090  17.554  16.632  23.763 -0.2580 -0.0271  0.0964
22075W        W65091  32.171  30.319   8.902  0.0571 -0.0222  0.0210
22076W        W65092  33.180  34.345  25.338 -0.1719 -0.0163 -0.2413
22077W        W65093  22.781   2.850   7.577 -0.3796  0.5036  0.2777
22078W        W65094  19.796   9.868  26.934 -0.0382 -0.1753 -0.3051
22079W        W65095  16.253   0.060   3.487 -0.0847 -0.0918  0.1863
22080W        W65096  29.946  10.103  24.324 -0.0392 -0.0402  0.2446
22081W        W65097  23.116   4.102   7.776  0.0693 -0.0512  0.1214
22082W        W65098  18.525  14.335   0.676 -0.1234  0.2183  0.2327
22083W        W65099  28.169   7.818   4.274  0.1539  0.1657 -0.0212
22084W        W65100   9.050   0.077   7.405 -0.1508  0.2003  0.0715
22085W        W65101  29.395  24.533   4.996 -0.1251 -0.0808 -0.3256
22086W        W65102  21.531  22.128   1.959 -0.2500  0.0926 -0.0857
22087W        W65103  33.778   5.926  28.855  0.0901 -0.4513  0.2791
22088W        W65104  24.915   3.440   0.706 -0.2680  0.0109 -0.1561
22089W        W65105  19.420  27.475   2.610 -0.0291 -0.0686  0.3148
22090W        W65106  20.102   9.998   7.573 -0.2804 -0.3911  0.1325
22091W        W65107  32.971  13.116   7.153 -0.2935  0.2467  0.2170
22092W        W65108  10.851  11.062   7.060  0.0500  0.1484  0.1038
22093W        W65109  17.304  13.831  20.702  0.1346 -0.0650  0.6044
22094W        W65110  10.998   9.781   8.288  0.0254  0.0698  0.1644
22095W        W65111  13.855  33.820  28.920  0.3627  0.0356  0.2307
22096W        W65112  25.253  10.859  25.729 -0.0251 -0.0697 -0.0276
22097W        W65113  23.718   5.901   8.691  0.1339 -0.0949  0.0909
22098W        W65114   5.378   8.979   5.156  0.1320 -0.4483  0.3176
22099W        W65115  10.165  12.644   2.485  0.0863  0.0747 -0.0655
22100W        W65116   2.975  11.130  19.107 -0.0329 -0.2018 -0.0978
22101W        W65117  26.344  12.733   2.167 -0.0946  0.2449  0.0566
22102W        W65118  18.212  14.249   7.539  0.0035  0.3300  0.0217
22103W        W65119  26.454  33.587  25.941  0.0059 -0.0386  0.1067
22104W        W65120  28.386  18.273   8.347  0.2254 -0.2031 -0.1591
22105W        W65121   0.312  33.038   6.056 -0.1666 -0.0881  0.2100
22106W        W65122  17.598   0.597   5.003 -0.3541  0.2379 -0.1694
22107W        W65123   1.869   7.142   8.343 -0.3133 -0.1773 -0.1551
22108W        W65124  26.174  10.519   8.937  0.1096  0.0030 -0.3522
22109W        W65125   9.641   9.766  10.080 -0.1501 -0.2562 -0.2726
22110W        W65126  29.269  14.105   4.103 -0.0622 -0.3833  0.3474
22111W        W65127   3.951   3.573   5.985  0.0355  0.0038 -0.0480
22112W        W65128  22.979   4.508  19.780  0.0869  0.1926 -0.1331
22113W        W65129  28.422  32.748  19.042  0.0360 -0.2243 -0.1335
22114W        W65130  24.534  26.946  21.270 -0.1552 -0.2282  0.0068
22115W        W65131   7.490  13.020   5.243 -0.3266  0.0137 -0.1057
22116W        W65132  14.018  18.754  28.536 -0.0620  0.1712 -0.0542
22117W        W65133  24.129  10.916   8.276  0.2772 -0.0492 -0.1077
22118W        W65134  28.237   6.910   6.896 -0.1592  0.1024 -0.1970
22119W        W65135  14.256   8.755   4.821 -0.3070  0.1172 -0.2947
22120W        W65136   9.657  23.518   7.051 -0.0178 -0.0203  0.0241
22121W        W65137  31.546  22.501   0.748  0.2712 -0.4127  0.1323
22122W        W65138   3.121   6.857   4.191  0.3493 -0.0270  0.0137
22123W        W65139  14.691  19.532   7.397 -0.0054  0.1146 -0.1702
22124W        W65140   1.458  27.979   1.717 -0.1025 -0.0818 -0.0687
22125W        W65141   5.656  31.623   0.488 -0.0362 -0.1273  0.3549
22126W        W65142   9.509  20.471   2.886 -0.1378  0.0330  0.2355
22127W        W65143  28.168  17.617   9.871  0.4036  0.0445  0.0907
22128W        W65144  17.272  16.814  21.977  0.1057  0.0582  0.0901
22129W        W65145  15.952   1.823   4.082 -0.1509 -0.1909  0.2973
22130W        W65146  19.266  15.112  20.452 -0.1342 -0.2081  0.2313
22131W        W65147  31.352   5.013   0.664  0.0169  0.1534 -0.0608
22132W        W65148  14.124   4.911  21.950  0.2542 -0.0653  0.3805
22133W        W65149  24.119  31.372  11.481  0.1587 -0.1253 -0.1536
22134W        W65150  21.913   2.989   3.563  0.2915  0.0910 -0.3643
22135W        W65151  22.055   6.538  22.939 -0.0709 -0.1230  0.3631
22136W        W65152  28.641   7.345   1.706 -0.1016 -0.0461 -0.0539
22137W        W65153  22.890  24.390  19.806  0.3160  0.3184 -0.0744
22138W        W65154  15.593  15.953  24.662 -0.0108 -0.1645 -0.3104
22139W        W65155  33.237  14.724  16.903  0.1575  0.0690  0.3932
22140W        W65156  13.234   3.210   3.792  0.1491 -0.1405  0.1597
22141W        W65157  33.734   7.898  25.278  0.1997  0.1249 -0.2954
22142W        W65158  25.261   7.745  28.832  0.2044  0.0813 -0.0747
22143W        W65159  27.448   1.227   5.589 -0.4281 -0.1327 -0.3711
22144W        W65160  25.672  11.692   3.359  0.1645  0.0692  0.0966
22145W        W65161  11.011  10.463  28.598 -0.2196 -0.1397 -0.0283
22146W        W65162  15.780  31.965  27.791  0.0460 -0.0801 -0.2132
22147W        W65163  26.489  14.751  24.158 -0.2004 -0.0018 -0.1035
22148W        W65164  12.512   7.462   4.573  0.1597 -0.2193 -0.0256
22149W        W65165   7.637   3.092   9.722 -0.1036 -0.1515  0.0358
22150W        W65166  24.337  16.184   9.390 -0.0428 -0.1655 -0.0433
22151W        W65167  18.196   6.335   4.202  0.1430 -0.3484 -0.0324
22152W        W65168  20.132   5.968   7.317  0.0125  0.0553  0.1354
22153W        W65169  31.029  15.839   3.419 -0.2830  0.1016 -0.1563
22154W        W65170  28.675  32.030  10.215 -0.1365  0.1293  0.2009
22155W        W65171   5.916   4.990   5.784 -0.0108 -0.0205  0.3768
22156W        W65172   2.951   6.027  10.414  0.0575  0.2184  0.0585
22157W        W65173  27.374  11.229  10.286 -0.0598 -0.0520  0.2133
22158W        W65174  29.346   6.921   9.084  0.0522 -0.1756 -0.2728
22159W        W65175  28.832   9.344   7.904  0.1383  0.3086  0.0057
22160W        W65176  23.169  14.182   8.106  0.0228  0.0074  0.2179
22161W        W65177  21.039  20.608   0.086  0.1671 -0.2948 -0.3153
22162W        W65178  13.299  29.577   8.295  0.0122 -0.1266  0.2982
22163W        W65179  22.974   7.571  29.181  0.2718  0.1574 -0.0634
22164W        W65180   5.186  12.992   1.285  0.0103 -0.0545  0.3359
22165W        W65181  25.738  13.177   6.265  0.2345  0.0742  0.3130
22166W        W65182  23.367   6.910  10.679 -0.1789 -0.0420 -0.2270
22167W        W65183  24.421  11.610   2.743 -0.2805  0.0550  0.2417
22168W        W65184  17.328  20.817  20.433  0.2040  0.4850 -0.0055
22169W        W65185  24.720  16.793   0.548 -0.2075  0.0614 -0.4755
22170W        W65186  20.224  20.976   5.542  0.1992  0.2926 -0.1973
22171W        W65187  18.411   2.760   3.164 -0.1758  0.0268  0.1881
22172W        W65188  29.742  32.031   8.740  0.2387  0.2319 -0.0181
22173W        W65189  13.776  15.657   5.608 -0.3758 -0.1871  0.1548
22174W        W65190  15.853   8.562   5.923 -0.0996 -0.2167 -0.0410
22175W        W65191  32.500  14.565   2.786 -0.0098  0.0979 -0.0018
22176W        W65192  28.094  19.748  20.931 -0.2842 -0.2595  0.3174
22177W        W65193  13.872  13.833  22.704 -0.1932 -0.3065  0.1162
22178W        W65194   8.633  24.611   9.246  0.2366  0.3027  0.1359
22179W        W65195  25.842   9.230   8.733 -0.0642  0.2361  0.1149
22180W        W65196  19.404  16.855  25.270  0.2603  0.1536  0.3543
22181W        W65197  21.612  20.147   6.820 -0.1241  0.3885 -0.1077
22182W        W65198  18.593   1.680   6.545  0.1690  0.0780 -0.3712
22183W        W65199  17.794  14.000  27.246 -0.2158 -0.1220 -0.3608
22184W        W65200  27.904  32.625   3.778 -0.1904  0.0309 -0.1193
22185W        W65201  10.133  33.336   1.902  0.1674 -0.3727  0.2670
22186W        W65202   6.607  20.523   3.081  0.1931  0.0350 -0.0226
22187W        W65203  13.602  19.759   3.955 -0.2248  0.2212  0.3616
22188W        W65204  32.447  15.559  25.735 -0.0230 -0.0449  0.1376
22189W        W65205  25.065  31.932   9.703  0.0621  0.0741  0.0256
22190W        W65206  24.236   9.391   8.843  0.0787 -0.1656  0.0788
22191W        W65207  18.120  18.494  23.805 -0.1085 -0.3606 -0.0511
22192W        W65208   9.888   5.525   9.301  0.0231  0.0527 -0.1471
22193W        W65209  22.127  18.900  20.986 -0.0422 -0.0834  0.0809
22194W        W65210  14.096   9.558   8.006 -0.0810 -0.0453  0.0197
22195W        W65211  34.263  30.853  27.930 -0.0539  0.2117  0.1015
22196W        W65212   0.259   0.480   1.901  0.2094 -0.4121 -0.0203
22197W        W65213  11.178   8.677   6.816  0.2770  0.4611  0.1728
22198W        W65214  32.505   6.606   6.417 -0.0299  0.1505 -0.0599
22199W        W65215  24.111   5.746   3.967 -0.2514 -0.0245  0.2521
22200W        W65216  17.499  12.999  21.876 -0.0262 -0.4096 -0.1696
22201W        W65217  18.910   4.126  25.805  0.0030  0.1761  0.2629
22202W        W65218  14.538  33.868   4.039 -0.2269 -0.0180  0.2042
22203W        W65219  19.385   1.379   1.152  0.0994  0.0301  0.2914
22204W        W65220  29.683  15.289   8.021  0.1108 -0.2547  0.0020
22205W        W65221  13.172   9.668   1.315 -0.1316  0.2361  0.1088
22206W        W65222  26.349   3.636   8.168 -0.2395  0.3061  0.0979
22207W        W65223  32.053  14.026   2.989  0.1259  0.0533  0.2149
22208W        W65224  18.881  13.209  27.562 -0.0486  0.2397 -0.1787
22209W        W65225  26.712   2.844   8.933  0.0307 -0.0242 -0.1515
22210W        W65226   9.838  32.557  10.242  0.0583 -0.1692  0.0903
22211W        W65227  17.943  18.522   7.705 -0.0052 -0.1566 -0.0522
22212W        W65228   1.011  16.708   6.065 -0.4406 -0.3697  0.1806
22213W        W65229   3.181  10.924   6.257 -0.1849  0.1135 -0.2791
22214W        W65230   3.108   8.617  26.434  0.0193  0.0728  0.0648
22215W        W65231  25.823  27.206   4.716  0.1954  0.2630 -0.4141
22216W        W65232   9.138  33.478   1.257 -0.0870  0.1290 -0.4182
22217W        W65233  26.894  33.853  21.803 -0.3113  0.2445  0.4487
22218W        W65234   9.442  16.782   8.729 -0.1319  0.0215  0.1033
22219W        W65235  34.391  34.185  21.754 -0.0465 -0.2149 -0.0283
22220W        W65236  18.107  33.818   4.863 -0.0134 -0.2100 -0.0167
22221W        W65237   0.189  20.106   0.125 -0.1199  0.0181  0.0781
22222W        W65238  24.048  25.012   0.895 -0.0641  0.3481  0.1544
22223W        W65239  20.464   7.175   1.914  0.0483 -0.0672  0.0113
22224W        W65240  29.079  14.707  19.942  0.0951 -0.3310 -0.0276
22225W        W65241  10.167  10.483  14.267  0.1156  0.1477  0.2366
22226W        W65242   4.303   1.950   9.390  0.2329  0.0855 -0.1059
22227W        W65243  19.046   9.023   9.332 -0.0529  0.2046  0.2034
22228W        W65244  16.966   5.552   3.541  0.0889  0.1290 -0.1115
22229W        W65245   9.625  34.501  21.683  0.1607 -0.2582  0.0053
22230W        W65246   5.121  11.159  28.334  0.1992  0.0255  0.1101
22231W        W65247  27.187  17.964   5.840 -0.4389 -0.1692  0.1515
22232W        W65248   3.102  22.976   0.660  0.0518  0.0114 -0.2314
22233W        W65249  29.591   7.247  23.141  0.1799 -0.1524 -0.3572
22234W        W65250  31.834   9.495  27.914 -0.0180 -0.3527 -0.1124
22235W        W65251  26.350  12.171  27.788  0.0961 -0.0092 -0.1559
22236W        W65252  24.403   2.996   4.367  0.2043 -0.3872 -0.1091
22237W        W65253  21.027  31.010   4.590  0.0757 -0.2228  0.1516
22238W        W65254   1.634  13.659   9.416 -0.1697  0.0097 -0.3948
22239W        W65255  25.379   6.270   6.294 -0.0390 -0.0214  0.0991
22240W        W65256  31.526  33.065  26.333 -0.0085 -0.2378 -0.1665
22241W        W65257  28.181  14.539   3.283 -0.2275 -0.1789 -0.0704
22242W        W65258  24.654  17.328   3.069  0.3978  0.0635  0.1197
22243W        W65259  10.189   7.863   7.598  0.2226  0.1022  0.1185
22244W        W65260   1.428  29.255  28.346  0.0663  0.1252  0.4256
22245W        W65261  13.633  22.296   7.832 -0.1551  0.0328 -0.0359
22246W        W65262  24.659  19.945   2.202 -0.0486 -0.0837 -0.2368
22247W        W65263  28.418  32.522  25.967  0.0769 -0.1738 -0.3016
22248W        W65264  11.821   2.790  10.520  0.0226  0.1223 -0.0423
22249W        W65265  25.559  20.464   8.714 -0.1987 -0.0964  0.0683
22250W        W65266  21.666   6.929   6.434 -0.0283 -0.1238  0.1100
22251W        W65267  25.076   6.032   9.554 -0.0870 -0.3348  0.1652
22252W        W65268  31.677  21.004   0.380 -0.1321 -0.2302 -0.0666
22253W        W65269  31.512   8.839  20.512 -0.0510  0.0978 -0.1496
22254W        W65270  10.259  14.721   0.226 -0.1235  0.2516 -0.1174
22255W        W65271  25.931  22.346   9.936  0.1726  0.2523  0.1852
22256W        W65272  14.329   6.709   5.012  0.0820  0.1233  0.3104
22257W        W65273   2.205  17.399   7.759 -0.0617 -0.2000  0.1786
22258W        W65274  11.328  26.176   6.513  0.0354 -0.2874 -0.0070
22259W        W65275  34.439  13.553  26.909  0.1191  0.0634 -0.4557
22260W        W65276  19.801   6.127  27.541 -0.0227 -0.1892 -0.1261
22261W        W65277  21.695  16.420  25.717 -0.3074 -0.0421  0.2191
22262W        W65278   3.797  18.307  18.387  0.0291 -0.1634 -0.2738
22263W        W65279  15.061   5.454   9.443  0.1967  0.0695 -0.1617
22264W        W65280  32.630  15.238   9.614 -0.1151 -0.0670  0.1868
22265W        W65281   4.667  27.687   6.442  0.2282 -0.1512  0.0478
22266W        W65282  17.118  11.661  17.312 -0.1086 -0.1292 -0.0065
22267W        W65283  18.232  24.074   1.009  0.2002  0.0452  0.2288
22268W        W65284  27.964  11.996   7.046 -0.0486  0.3385  0.0074
22269W        W65285  23.980  28.706   4.265  0.1648  0.2181  0.0407
22270W        W65286  29.703  18.848   8.044  0.0957 -0.1834 -0.1253
22271W        W65287  16.775   6.023   4.139 -0.1043  0.1326  0.0548
22272W        W65288  22.106  12.851  26.723  0.1173  0.2646 -0.0381
22273W        W65289  30.880  32.160   4.288 -0.0850 -0.0414  0.0510
22274W        W65290  32.391  16.799   6.534 -0.1285  0.1009 -0.0755
22275W        W65291  14.638  12.312  27.496  0.1454  0.0868 -0.0135
22276W        W65292  29.704   3.051  28.043 -0.0221 -0.0118 -0.0227
22277W        W65293  29.098  10.555   1.538 -0.0127 -0.2227  0.0296
22278W        W65294  31.712  30.260  28.659  0.1473 -0.2438 -0.3389
22279W        W65295  25.127   7.139   6.123 -0.0601 -0.0043 -0.0568
22280W        W65296  28.305  10.956   6.303 -0.1741 -0.1015  0.1520
22281W        W65297  30.272  25.738  23.776 -0.0115 -0.2571  0.1282
22282W        W65298  23.978  34.351  24.447 -0.2969  0.3619 -0.3184
22283W        W65299   3.845   2.117   9.746  0.0888  0.0793  0.0879
22284W        W65300  27.973  10.522   1.276 -0.0645 -0.0347 -0.0340
22285W        W65301   8.262   8.144   2.121  0.1327 -0.3857  0.1262
22286W        W65302  26.863   1.420   1.188 -0.1095 -0.2733  0.2544
22287W        W65303  18.285  11.645   8.842  0.0040 -0.2425  0.1304
22288W        W65304  26.656  10.252   1.031  0.3221 -0.3478  0.3893
22289W        W65305  18.389  34.402   0.132 -0.1276  0.1314 -0.2075
22290W        W65306  20.413   9.411  25.787 -0.0825  0.0521  0.0717
22291W        W65307   5.741  18.337   0.473 -0.0626 -0.1280  0.0341
22292W        W65308  27.922   9.820  24.802  0.1780  0.1227 -0.0123
22293W        W65309  24.607   4.083   0.349 -0.2034 -0.2059 -0.2807
22294W        W65310  15.234   2.943   4.340  0.1875  0.1839  0.1387
22295W        W65311   5.292  15.397   0.050  0.1750 -0.1995  0.1209
22296W        W65312  18.781  16.901  28.900 -0.1123 -0.0381  0.0366
22297W        W65313  16.049  10.995  24.351 -0.2268  0.1247  0.0910
22298W        W65314  14.849   5.680   7.605 -0.2227 -0.0718  0.0445
22299W        W65315  31.130  32.899   8.503 -0.0860  0.3272 -0.0407
22300W        W65316   6.617  33.353   3.963  0.1654  0.0370  0.2912
22301W        W65317   9.514  12.996  25.986  0.1052 -0.4355 -0.0080
22302W        W65318  24.846  13.444  17.567  0.3607 -0.1691 -0.2418
22303W        W65319  25.066  10.739   8.302  0.2445 -0.2576 -0.3623
22304W        W65320  26.518  11.609   5.143  0.0258  0.1872 -0.1231
22305W        W65321  13.841  15.690  25.755 -0.2266 -0.1645 -0.0018
22306W        W65322  24.015   9.696   0.272  0.0787  0.1115  0.0084
22307W        W65323  27.168  30.716  12.138 -0.2427  0.1407  0.1888
22308W        W65324  22.110   4.423   6.375 -0.2547 -0.1880  0.5668
22309W        W65325  21.460   6.236   6.162  0.0199 -0.3398 -0.1318
22310W        W65326  24.760  10.569  10.293 -0.4223  0.0745  0.1022
22311W        W65327   0.706  33.865   1.865  0.0709 -0.0126 -0.2428
22312W        W65328  24.327  31.724  10.724  0.2778  0.2408  0.2522
22313W        W65329  33.690  10.162   3.827  0.0743  0.1011  0.0886
22314W        W65330  12.561  10.834  29.030  0.3194  0.1778 -0.1554
22315W        W65331  32.742  20.929   1.967 -0.0760 -0.1955 -0.0347
22316W        W65332  27.805  21.856   5.482  0.1721  0.0168 -0.1707
22317W        W65333  25.366  12.422   9.595 -0.2655 -0.0637 -0.0950
22318W        W65334  24.618   5.677  10.358 -0.1688 -0.0689  0.0844
22319W        W65335  16.177  26.704  28.582 -0.5194  0.0426  0.1045
22320W        W65336  32.239  26.202   9.241  0.2995 -0.0880 -0.0349
22321W        W65337  31.093  15.847  17.026 -0.3914  0.1732  0.4369
22322W        W65338  11.270  10.934  26.518  0.2395 -0.2228 -0.0707
22323W        W65339  30.996   3.305   4.205 -0.2423 -0.0984  0.1243
22324W        W65340  18.579  20.427   8.577  0.2119 -0.2399  0.0078
22325W        W65341   4.690  11.836   3.955 -0.1726  0.4551  0.1118
22326W        W65342  20.591  13.106   5.358 -0.2049  0.0078  0.0997
22327W        W65343  28.951  13.870   8.936 -0.0871 -0.2776 -0.0009
22328W        W65344  23.050  15.479   0.745 -0.0444  0.1576 -0.1066
22329W        W65345  30.068   4.549  26.972 -0.2040  0.0088 -0.0835
22330W        W65346  23.348  10.150  22.027  0.0720  0.2208  0.2386
22331W        W65347  23.153  17.970  22.251 -0.1056 -0.0343  0.0412
22332W        W65348  18.347  13.322   2.975 -0.0849  0.1330  0.2710
22333W        W65349  12.480   9.263   9.281 -0.0013 -0.1738 -0.3516
22334W        W65350  19.864  31.790   1.737 -0.0796 -0.0772 -0.1956
22335W        W65351  18.399  15.463  25.991 -0.0326  0.1739  0.2077
22336W        W65352  16.146  11.360  16.955 -0.3542 -0.0511  0.1225
22337W        W65353  17.930  13.804   6.027  0.1037 -0.2387 -0.4830
22338W        W65354  33.679   4.970  24.381  0.0653  0.0032  0.2324
22339W        W65355  30.239  21.078   3.417  0.1370  0.1514 -0.2546
22340W        W65356   0.725  32.942   0.957  0.0919  0.1335 -0.0396
22341W        W65357  32.462  33.624   4.883 -0.0185  0.0176  0.1237
22342W        W65358  32.254  33.105  21.681 -0.3005  0.1341 -0.0710
22343W        W65359  22.392  13.388  28.854 -0.2587  0.0513  0.4883
22344W        W65360  20.147  23.671  20.963  0.0011  0.0076 -0.0033
22345W        W65361   4.748   3.914   9.300 -0.0945  0.0625 -0.2256
22346W        W65362  17.965  13.407  28.068  0.3426 -0.0635  0.1011
22347W        W65363  13.121  32.701  22.392  0.2133 -0.4090  0.1703
22348W        W65364  29.852  27.860   7.858 -0.0250  0.0996 -0.2241
22349W        W65365  26.277  14.877   7.995 -0.0757  0.1067  0.0133
22350W        W65366  28.380  24.944  10.236  0.3992 -0.0343 -0.1150
22351W        W65367  22.399  17.180   8.261 -0.1528 -0.1012  0.0457
22352W        W65368   6.785  16.823   9.319 -0.0579 -0.0505 -0.0289
22353W        W65369   6.315  31.851   5.840 -0.4759  0.2110 -0.0790
22354W        W65370  31.379  27.231   9.455 -0.0627  0.0721  0.0250
22355W        W65371   1.112  34.766   7.144  0.1307  0.0170 -0.0998
22356W        W65372   2.400   8.669   5.847 -0.1529 -0.0927  0.1367
22357W        W65373  27.459  16.349   4.502 -0.3689  0.1027  0.1114
22358W        W65374  22.576  12.670   7.643 -0.0925 -0.1220 -0.1024
22359W        W65375  11.564  33.853   3.894 -0.1277 -0.1167  0.2191
22360W        W65376  30.301  11.411  10.476 -0.0719  0.1245  0.3668
22361W        W65377  20.849   4.648  27.816 -0.3194 -0.1367 -0.1769
22362W        W65378  30.796  33.093   4.284 -0.0280 -0.0059  0.0046
22363W        W65379  19.791  16.407  20.704 -0.0168 -0.0390  0.4818
22364W        W65380  16.166  12.226  25.005 -0.2745 -0.2300 -0.0541
22365W        W65381  22.616   0.429   6.238  0.1399 -0.2147  0.0209
22366W        W65382  19.497  14.632  22.695  0.1989 -0.1139 -0.0668
22367W        W65383  24.242   5.980   8.054 -0.0530  0.1016  0.0095
22368W        W65384   7.727   3.898  29.237 -0.3293 -0.2858  0.0711
22369W        W65385  22.623   8.131   0.386 -0.1665  0.0115 -0.0513
22370W        W65386  22.799   4.590   1.355  0.1046 -0.2274  0.1500
22371W        W65387  27.122  32.997   1.202  0.1392 -0.3954  0.2903
22372W        W65388  25.475  16.827   9.868 -0.0783 -0.0201  0.0181
22373W        W65389  15.075  26.281   0.238 -0.0616 -0.1578 -0.1642
22374W        W65390  17.191  32.927   3.317  0.1003  0.3358 -0.1012
22375W        W65391  19.905  12.049   0.426 -0.2629 -0.0109 -0.3723
22376W        W65392  20.522  15.764  20.536  0.3498  0.1097 -0.0507
22377W        W65393   8.431   7.967  26.797 -0.2289  0.2106  0.1206
22378W        W65394  24.129  20.211   5.299  0.2493 -0.2536 -0.1349
22379W        W65395  24.373   6.215   8.532  0.2043  0.1818  0.2231
22380W        W65396  21.795  26.462   9.146  0.2089 -0.0686  0.1234
22381W        W65397  18.201   7.847   2.123  0.0717 -0.0011 -0.1004
22382W        W65398  24.258   1.137   5.318  0.2289  0.1807 -0.4916
22383W        W65399  21.883  34.668  11.241  0.2205 -0.1085  0.0096
22384W        W65400  22.188  15.441   1.300 -0.2288 -0.0411  0.0429
22385W        W65401  13.610   9.232   2.629  0.1546  0.1630  0.1871
22386W        W65402  20.957   2.240   0.195  0.2841  0.0094 -0.1043
22387W        W65403  32.613  11.623   9.090 -0.1740 -0.0656 -0.1535
22388W        W65404   0.935  32.924   1.413  0.0987  0.0449 -0.0212
22389W        W65405  24.150  23.591   9.637 -0.1180  0.3075 -0.0630
22390W        W65406  31.356   9.590   6.815 -0.0997 -0.2226  0.1309
22391W        W65407  25.886  12.988  27.884  0.2805  0.3010 -0.1236
22392W        W65408  16.469   3.035  23.006  0.2163 -0.1346 -0.3236
22393W        W65409  25.538  33.859  26.565 -0.0556 -0.2084 -0.6217
22394W        W65410  28.470  10.084  25.294 -0.2453  0.3532  0.0393
22395W        W65411  15.954   8.517   8.853 -0.3418  0.0622 -0.0913
22396W        W65412   2.208   5.547   1.043 -0.0044  0.2346  0.0125
22397W        W65413  29.281  15.180   9.778 -0.0786  0.1850  0.1875
22398W        W65414  26.082  23.580   2.149  0.0122 -0.0771 -0.0346
22399W        W65415  17.735   6.918  22.290 -0.3846 -0.1901 -0.1142
22400W        W65416  33.279  14.436   6.505  0.0801 -0.1575  0.2244
22401W        W65417  22.571  16.565   1.662 -0.1614  0.0895 -0.0519
22402W        W65418  24.549   5.270  17.310  0.1325 -0.1390  0.1061
22403W        W65419  23.942  13.834  29.253  0.2700  0.1480  0.0888
22404W        W65420  13.514   9.791   0.850  0.4919  0.0792 -0.1058
22405W        W65421  13.844   1.780   3.910  0.0690 -0.4915  0.1395
22406W        W65422  21.249  21.010   3.967 -0.2143  0.0326  0.2483
22407W        W65423  16.983  12.841  24.958 -0.2343  0.0498  0.0281
22408W        W65424  20.282  26.676   8.347  0.1450  0.4012 -0.2327
22409W        W65425  19.146  14.814   3.474  0.1783 -0.1915  0.2205
22410W        W65426  31.468   6.526   2.600  0.0983 -0.1169  0.1768
22411W        W65427  24.647   2.745   5.400  0.1467 -0.3035  0.1172
22412W        W65428  17.588  27.075   2.847  0.2718  0.4031 -0.0657
22413W        W65429  32.253   2.331   6.177  0.0560 -0.0249  0.2288
22414W        W65430   2.593  17.393   1.954  0.1550 -0.2798  0.0983
22415W        W65431  16.990   6.306   8.798  0.0808 -0.0687 -0.1260
22416W        W65432  12.780  32.688  25.131 -0.0580 -0.1089  0.0905
22417W        W65433  34.456  26.398  28.708 -0.0430  0.2608 -0.0714
22418W        W65434  32.287   7.829  18.717 -0.1619 -0.1454 -0.0369
22419W        W65435  23.818   2.917  28.246 -0.1579  0.0522 -0.1313
22420W        W65436  31.017  11.090  23.820  0.0011 -0.3547  0.1118
22421W        W65437  30.977   9.490   2.788  0.0078  0.0397  0.1309
22422W        W65438  31.212  18.048   7.796  0.2131  0.5071  0.0420
22423W        W65439  32.907  17.762   2.650 -0.0548  0.0917 -0.1455
22424W        W65440  13.368  15.818  21.236 -0.1200  0.3615  0.0513
22425W        W65441  20.364  12.762   7.823 -0.0356  0.0439 -0.0493
22426W        W65442  32.561   3.805   4.806 -0.0461 -0.0073 -0.3634
22427W        W65443  26.138  15.407  28.081  0.0468  0.1011  0.2821
22428W        W65444  25.966   6.196   0.313  0.2281  0.1333  0.0242
22429W        W65445  25.379   4.354  18.250  0.1002  0.3043 -0.4022
22430W        W65446  20.751   9.431  23.705  0.1988 -0.2216  0.4402
22431W        W65447  27.628  16.207   8.282  0.0492  0.2442 -0.0606
22432W        W65448  11.009  10.124   8.658 -0.0278  0.0577 -0.1124
22433W        W65449  14.489  32.587  25.105 -0.2439  0.0185 -0.1705
22434W        W65450  29.762  34.279   1.393 -0.1073 -0.0174  0.0014
22435W        W65451  25.896   7.692  27.093  0.0094  0.2432  0.2827
22436W        W65452  27.111  14.107   7.707  0.2690 -0.0058 -0.3118
22437W        W65453  22.854  11.637   7.763 -0.2135 -0.4537  0.1818
22438W        W65454  24.402  16.237  26.133 -0.1976  0.1823 -0.0587
22439W        W65455  27.674  15.204   2.139 -0.0332  0.0455  0.0629
22440W        W65456  20.536  22.813  19.403  0.0461 -0.1022 -0.1375
22441W        W65457  21.503  22.301   0.394 -0.0048  0.0319 -0.1053
22442W        W65458   9.957  15.148   3.233  0.0215  0.0111 -0.1342
22443W        W65459  25.620   9.962   5.701  0.1704  0.0474  0.0696
22444W        W65460  10.645   6.502  22.487  0.0177 -0.1943  0.0793
22445W        W65461  27.566   0.458  16.094  0.0824 -0.0318  0.0304
22446W        W65462  25.253  32.153  29.215 -0.4642 -0.1145 -0.0873
22447W        W65463  16.695  23.684  18.711 -0.0751 -0.0108  0.2312
22448W        W65464  25.575  31.319  15.684  0.1619  0.5170  0.0072
22449W        W65465  31.635  22.081   4.156 -0.1995  0.1083 -0.1378
22450W        W65466  31.769  25.936   6.952 -0.0936  0.0065 -0.1162
22451W        W65467  29.347  12.301  15.238 -0.0572  0.0860 -0.2223
22452W        W65468  25.867  32.707  18.735 -0.2156  0.0040 -0.4008
22453W        W65469  24.265  12.729  16.954  0.1328 -0.0473 -0.1898
22454W        W65470   4.321   6.594   5.355 -0.3201 -0.0311 -0.2494
22455W        W65471   7.079  13.854  23.534  0.0334 -0.2971 -0.3416
22456W        W65472  21.618   6.424  26.698 -0.0565  0.5223 -0.2186
22457W        W65473  21.348   2.814   9.808  0.2287  0.2856  0.0799
22458W        W65474  30.835  12.008   4.008  0.1193  0.0951 -0.1482
22459W        W65475  20.830  11.167  26.750  0.2796  0.0533 -0.1731
22460W        W65476  21.885  32.334   4.267  0.1620  0.0065  0.0449
22461W        W65477   1.797  24.850   4.157  0.0845  0.1052 -0.1943
22462W        W65478  29.762  20.984  18.749  0.1430  0.1763  0.0479
22463W        W65479  18.376  18.650  24.224 -0.1621 -0.1409  0.0338
22464W        W65480  27.898  18.674   6.389 -0.0038  0.3550 -0.1483
22465W        W65481  22.862  17.612   4.541  0.0763 -0.1258 -0.0149
22466W        W65482  23.724  24.054  22.553  0.5220 -0.0646  0.2152
22467W        W65483  34.607  30.050  15.655  0.1017  0.4314 -0.1470
22468W        W65484  29.852   6.060   3.982  0.0154 -0.1594  0.1283
22469W        W65485   2.453  24.428  22.050 -0.0923 -0.2342 -0.0174
22470W        W65486  26.986   9.553   7.379  0.3542 -0.2793 -0.0815
22471W        W65487  24.150   9.037   7.039 -0.1636 -0.3420 -0.2079
22472W        W65488  12.025  15.139   0.809  0.0325  0.4851 -0.1825
22473W        W65489  20.636  19.772   7.046  0.0089  0.2937  0.0727
22474W        W65490   6.859  25.781  21.763 -0.0852  0.0055 -0.0211
22475W        W65491   6.597  20.258  21.235  0.0828 -0.2480 -0.0797
22476W        W65492  16.973  22.309   4.910 -0.2856 -0.4452  0.1073
22477W        W65493  15.288   7.461  24.775 -0.1216 -0.2084  0.3198
22478W        W65494  12.245  33.376  15.265  0.0933  0.0844 -0.1713
22479W        W65495  22.968  26.451  23.085 -0.0381  0.0508  0.2225
22480W        W65496  18.185  16.373   7.362  0.1203 -0.4717 -0.1307
22481W        W65497  11.840  16.373  23.210 -0.2175 -0.2207 -0.1943
22482W        W65498  15.659  32.942   4.500 -0.0734 -0.2229 -0.3055
22483W        W65499  19.585  21.481   1.925  0.2810 -0.0173 -0.0049
22484W        W65500  25.920   4.394   0.354  0.0269  0.2681 -0.1152
22485W        W65501  28.780   5.439   5.911 -0.0858 -0.0994  0.0134
22486W        W65502  22.849  23.867   0.833  0.0640 -0.4193  0.2769
22487W        W65503  27.610   8.734   5.082 -0.0185 -0.0694  0.1136
22488W        W65504  28.085  22.354   9.745 -0.0147  0.0017  0.1901
22489W        W65505   1.862  21.979   5.274 -0.3806  0.0992 -0.0118
22490W        W65506   1.634  33.203  22.270 -0.0046 -0.1177 -0.1880
22491W        W65507   1.157  25.871  25.601 -0.1214  0.0274 -0.0323
22492W        W65508  28.750  33.766   7.057 -0.0471  0.1225  0.2420
22493W        W65509  15.702  11.091   4.083 -0.1735  0.1550 -0.0540
22494W        W65510  28.564  14.717  25.811  0.1326  0.0837 -0.3149
22495W        W65511  33.043  12.230   7.416  0.2432 -0.0163  0.2238
22496W        W65512  32.341  18.102  26.712 -0.0475 -0.3780 -0.3310
22497W        W65513  28.522  11.321   6.065 -0.0322  0.1908  0.2508
22498W        W65514  25.246  11.972  27.163 -0.1503 -0.1532 -0.1356
22499W        W65515  33.132   9.146  27.002  0.1663 -0.1119 -0.0483
22500W        W65516  25.011  28.014   1.580  0.3326 -0.2068 -0.0786
22501W        W65517  32.264  33.266  28.350 -0.3086 -0.1642  0.1347
22502W        W65518  17.747  27.912  26.125  0.0801 -0.1980  0.1818
22503W        W65519  24.515  18.787  29.051  0.3336  0.3297 -0.0274
22504W        W65520  25.824  21.647  29.165  0.1833  0.0550  0.1283
22505W        W65521  32.120   3.093  10.142 -0.1118 -0.1078 -0.2608
22506W        W65522  34.677   8.743   6.171  0.0554 -0.1139  0.1913
22507W        W65523  27.123   2.026   9.520  0.3348 -0.2021 -0.2364
22508W        W65524  25.040  19.531  28.655  0.1294 -0.0375 -0.0384
22509W        W65525  30.314   3.811   9.194  0.3041  0.0113 -0.0383
22510W        W65526  10.724  20.520   4.967 -0.1074 -0.0232  0.2197
22511W        W65527  26.741   2.124  25.955  0.0351  0.2253 -0.0388
22512W        W65528   3.719  19.002   5.527 -0.2454 -0.0424 -0.1922
22513W        W65529  32.976   6.451   8.549 -0.1666 -0.0519  0.0313
22514W        W65530  24.417  16.555   7.562  0.1356  0.0644  0.0522
22515W        W65531  19.600  13.252  20.289  0.3154 -0.0700  0.0496
22516W        W65532  30.510   5.644  21.719 -0.1700 -0.3148  0.0958
22517W        W65533  25.631   7.552  18.776  0.1961  0.1212 -0.1703
22518W        W65534  17.835  13.951  25.691  0.0539 -0.1080  0.2028
22519W        W65535  20.680  14.488  29.014  0.2005 -0.0101  0.3262
22520W        W65536  26.692   9.637   3.332 -0.0468 -0.1009 -0.1981
22521W        W65537  26.125  13.467   9.976 -0.1832  0.1291  0.1563
22522W        W65538   7.251  12.566  20.044  0.1257  0.0497 -0.1900
22523W        W65539  24.514  11.843  27.895 -0.1701  0.1136 -0.0921
22524W        W65540   0.851   7.150   3.034  0.1528  0.2099  0.1988
22525W        W65541  23.580  20.916   7.777  0.0388 -0.0386  0.3330
22526W        W65542  18.519   4.324   9.551 -0.2146 -0.0612  0.0881
22527W        W65543  19.671  15.304   7.593 -0.3939 -0.1533  0.0820
22528W        W65544   6.763  20.904  24.464 -0.0423 -0.0149  0.1565
22529W        W65545  34.504   6.467   6.310 -0.0092 -0.1167  0.0719
22530W        W65546  18.024  18.996  12.738  0.3340  0.0067 -0.0037
22531W        W65547   2.329  21.689  24.752 -0.0938 -0.1119 -0.0619
22532W        W65548  28.500   9.549  20.774  0.0503  0.0913 -0.0598
22533W        W65549  29.660  33.172  18.294  0.0456 -0.4755  0.1837
22534W        W65550  25.474   6.262  26.355 -0.0603 -0.2187  0.0298
22535W        W65551  24.707  14.085  22.123  0.1582 -0.0241  0.0641
22536W        W65552  15.829  17.294   2.300 -0.1127 -0.2859 -0.0880
22537W        W65553  33.439  16.952   7.128  0.0314 -0.0445  0.0627
22538W        W65554  34.193  25.545  27.907  0.1423 -0.0741  0.0793
22539W        W65555   7.549  14.763   4.981  0.0504  0.0574  0.0680
22540W        W65556  15.585   8.429  19.786 -0.2819  0.2625 -0.2571
22541W        W65557  25.397   1.337  28.043  0.1187 -0.0791  0.2393
22542W        W65558  28.648  16.372   4.488 -0.0515 -0.0176  0.2161
22543W        W65559   1.735  19.278  21.774 -0.0665  0.2573 -0.0208
22544W        W65560  30.767   7.646  20.665  0.2370 -0.1971 -0.3726
22545W        W65561  16.086   7.786  29.154  0.0070  0.0208 -0.2007
22546W        W65562  18.832  25.455  21.732 -0.4585  0.3914 -0.0243
22547W        W65563   3.155  25.850   7.737  0.1999 -0.2793  0.0180
22548W        W65564  10.998   9.084  23.040 -0.0642  0.1255  0.0987
22549W        W65565  26.650   8.544  28.050 -0.2238 -0.1166 -0.0056
22550W        W65566  29.563  14.294   5.641  0.1279 -0.1374 -0.0384
22551W        W65567  23.665   8.034   9.713  0.0423  0.4142  0.2648
22552W        W65568  28.718   9.023  15.916 -0.3103 -0.1842 -0.0043
22553W        W65569  24.793   0.149  10.961  0.1215 -0.0937 -0.0172
22554W        W65570  22.145  17.671   7.035 -0.0289 -0.1019 -0.0661
22555W        W65571  20.059  14.891  28.223 -0.1527  0.1564 -0.0383
22556W        W65572  32.039  12.507   6.735 -0.1136 -0.1695  0.1184
22557W        W65573  28.652  13.520   3.586 -0.2842 -0.0205  0.2168
22558W        W65574  29.841  15.534  26.752  0.0627 -0.3506  0.2246
22559W        W65575  34.545  12.985  16.872  0.1654 -0.0836 -0.2459
22560W        W65576  10.973   6.728   9.384 -0.1237  0.0211  0.0926
22561W        W65577  30.026   9.205  28.776  0.0479  0.4388  0.0308
22562W        W65578  14.239  33.373   1.217 -0.0170  0.0875 -0.1514
22563W        W65579  19.361  16.536  21.046  0.0123 -0.1674  0.1773
22564W        W65580  26.086   4.848  28.176 -0.0315  0.2720  0.0603
22565W        W65581   6.980   0.888  15.896  0.1012 -0.0093 -0.0881
22566W        W65582  29.694  14.833   5.808  0.0458 -0.1858 -0.0384
22567W        W65583  27.079  19.217  16.701 -0.1839 -0.6299 -0.0850
22568W        W65584  19.885  10.714   4.658  0.0965  0.0644  0.1059
22569W        W65585  14.881   9.205   3.042 -0.3386  0.2195  0.0349
22570W        W65586  12.248  16.201   2.934  0.1562 -0.1977  0.0663
22571W        W65587  23.448  18.746   1.564 -0.0090  0.2379 -0.4676
22572W        W65588  15.804   2.771   7.742 -0.2954  0.0933 -0.3379
22573W        W65589  32.312  13.272   5.862  0.3458  0.0437 -0.0315
22574W        W65590  11.583  10.289   7.520 -0.0677 -0.0248  0.1511
22575W        W65591  29.471  33.268   7.916  0.1743 -0.4420  0.1141
22576W        W65592   1.851  10.829  23.581  0.0521  0.3540 -0.0457
22577W        W65593  13.089  23.281   4.602 -0.1197 -0.0918  0.1359
22578W        W65594  33.875  20.963   3.315 -0.6167 -0.0610 -0.1531
22579W        W65595  12.587   9.901   4.415 -0.2411 -0.1913 -0.3726
22580W        W65596  16.658  14.331  27.750 -0.1446  0.0681 -0.1023
22581W        W65597  19.260   9.478  27.003 -0.0363  0.0297  0.0565
22582W        W65598  28.760  18.541   2.269 -0.1172  0.1435 -0.0663
22583W        W65599   2.968  17.145   1.837  0.3962  0.0752 -0.0037
22584W        W65600   1.442   2.259  22.649  0.0232 -0.1416  0.0901
22585W        W65601  17.930  10.168  25.511 -0.0392  0.2118  0.2214
22586W        W65602  33.539  10.867   3.190  0.0371  0.0674 -0.0209
22587W        W65603  13.341  21.615   3.634  0.0176  0.0098 -0.0342
22588W        W65604  22.104  12.004  16.036 -0.0300  0.4240  0.0677
22589W        W65605  25.889   2.798   7.290  0.0760 -0.2891  0.2694
22590W        W65606  25.724  13.319  18.949 -0.0989 -0.0325  0.2982
22591W        W65607  15.245  32.658   7.392 -0.2369  0.3401 -0.1651
22592W        W65608  32.514  14.370   5.211 -0.0923 -0.1120 -0.4088
22593W        W65609  31.475  18.138   4.722  0.1329 -0.3260 -0.2071
22594W        W65610  16.851   0.871   3.846  0.0398 -0.1955 -0.0154
22595W        W65611  14.134   5.523   6.198 -0.0455 -0.1085  0.1299
22596W        W65612  20.474   0.556   1.102  0.0486  0.4219 -0.1384
22597W        W65613  34.772  21.081  10.073 -0.1534  0.0617 -0.3322
22598W        W65614  33.217   2.272  21.449  0.2269  0.1169  0.0205
22599W        W65615  19.016  21.361  28.834  0.0097 -0.2189 -0.2132
22600W        W65616   9.747  22.569   6.235  0.1264  0.1144  0.1029
22601W        W65617  30.476   3.299   5.041  0.0016  0.2419 -0.0457
22602W        W65618  30.680   0.342  22.721 -0.4739 -0.1225 -0.0604
22603W        W65619  34.529  22.296   5.272  0.3151 -0.0613  0.1869
22604W        W65620  25.194  24.294  10.070  0.2284  0.1143 -0.0206
22605W        W65621  21.115  21.097  23.344 -0.2940 -0.2483 -0.1008
22606W        W65622  26.842   4.330  17.235  0.1676  0.1796 -0.2314
22607W        W65623  23.651  22.816  25.748  0.4778  0.0528 -0.1056
22608W        W65624  33.835  13.213   9.826 -0.0416 -0.0321 -0.3178
22609W        W65625  15.176  13.371   7.286  0.0828 -0.2535  0.1517
22610W        W65626  17.018  22.782  23.002 -0.1466 -0.0101  0.0025
22611W        W65627  26.764   8.353   9.052  0.0476  0.1218 -0.3742
22612W        W65628   1.520  19.187   9.520  0.0532 -0.0274  0.2430
22613W        W65629  26.906  10.987   1.851 -0.0452  0.1571  0.4153
22614W        W65630  31.019   2.860  26.711  0.2095  0.0790  0.1099
22615W        W65631  25.419   2.576   4.256  0.0213  0.1923 -0.1182
22616W        W65632  11.579   6.349   9.047  0.3176 -0.0881 -0.0164
22617W        W65633  28.912  16.352  17.907 -0.0909 -0.2075  0.0635
22618W        W65634  27.747  22.342   6.527 -0.0984 -0.1120 -0.2962
22619W        W65635  20.258  15.437   7.890  0.3846  0.1634 -0.1354
22620W        W65636  21.346   5.785  27.013 -0.0015  0.1290 -0.1830
22621W        W65637  32.795   4.972   5.307 -0.2235 -0.0243  0.0803
22622W        W65638  25.677  21.098   5.359  0.1748  0.0040  0.1100
22623W        W65639  32.444  25.892  28.022 -0.0631 -0.1573 -0.0999
22624W        W65640  18.359  25.746  16.238  0.0535  0.1435 -0.0758
22625W        W65641  21.260  22.807  28.059 -0.0158  0.3591 -0.0613
22626W        W65642  27.648  18.360   1.959 -0.1197 -0.0783  0.0441
22627W        W65643  29.497  27.271   8.806 -0.3552 -0.0765 -0.2749
22628W        W65644  28.445   5.994   1.613 -0.1298  0.1665 -0.1570
22629W        W65645  20.675  34.328   9.588 -0.0451  0.2616 -0.0365
22630W        W65646  14.564  22.161   6.760  0.0668 -0.0161 -0.1141
22631W        W65647   1.329   7.536   4.045 -0.0073 -0.0972 -0.2242
22632W        W65648  29.769  21.248  21.376  0.1099 -0.2254 -0.3451
22633W        W65649  16.013  32.138  28.916 -0.1319  0.0262 -0.1494
22634W        W65650  22.685  14.818   8.197 -0.0178 -0.0556  0.0764
22635W        W65651  24.564  11.985   7.597  0.1409  0.3705  0.0056
22636W        W65652  27.510  16.213   0.827  0.1348  0.3079 -0.1213
22637W        W65653  22.581   5.702  17.846 -0.2989  0.0157  0.0828
22638W        W65654  17.963   8.046  28.216 -0.0510  0.1468  0.0693
22639W        W65655  32.627  16.019  24.885 -0.2865  0.2864  0.3124
22640W        W65656  32.145  12.892   8.936 -0.0599 -0.0972 -0.0500
22641W        W65657  32.287  12.407  19.666 -0.0157  0.0672 -0.1847
22642W        W65658  23.920   7.089   4.608  0.4346 -0.3030  0.2410
22643W        W65659  14.589  27.004   3.081  0.1910  0.0645 -0.1415
22644W        W65660  32.260  13.869  18.660  0.1554 -0.3325 -0.3470
22645W        W65661  26.401  22.042   7.598  0.2249  0.2405 -0.2045
22646W        W65662  34.169  12.429  23.946  0.1046  0.1723  0.2244
22647W        W65663  21.658  16.099  27.792  0.2211 -0.0847 -0.0964
22648W        W65664  18.886  12.292  27.590  0.1334 -0.1291 -0.4130
22649W        W65665  18.858  19.793  25.068  0.0868  0.2046  0.5894
22650W        W65666  20.262   6.590  20.617  0.0942  0.0249  0.0360
22651W        W65667  23.404  13.327   8.211  0.0482  0.1794  0.1035
22652W        W65668   6.127  26.343   0.141  0.0045  0.1441 -0.0780
22653W        W65669  25.188  33.528  18.027 -0.0646 -0.1257  0.3296
22654W        W65670  22.560  11.099  20.828  0.0793  0.2962  0.0401
22655W        W65671   8.166   0.783   0.001  0.1211  0.1863  0.0301
22656W        W65672  21.047  12.215  22.107 -0.2672  0.2207 -0.0261
22657W        W65673  18.421   0.735   1.335  0.0940 -0.0642  0.0625
22658W        W65674  16.344  31.456   2.723 -0.1941 -0.1132  0.1102
22659W        W65675  19.561  11.476   1.703 -0.1875  0.3993 -0.1128
22660W        W65676  31.362  12.305   2.389  0.0982  0.2326 -0.2703
22661W        W65677  17.127  16.751   3.204  0.3096  0.0155  0.0578
22662W        W65678   4.207  30.771   7.896 -0.0392 -0.2630 -0.2341
22663W        W65679  24.187  12.351   2.309 -0.2357  0.2731 -0.1553
22664W        W65680  22.060   8.964  28.268  0.4466 -0.1228 -0.2753
22665W        W65681  27.513   1.846  10.006  0.4205  0.2557  0.0587
22666W        W65682  17.841   8.714  16.140  0.0061  0.0807 -0.0091
22667W        W65683  22.400  10.759   7.452  0.1109 -0.2317  0.1627
22668W        W65684   8.181  33.351  22.831 -0.0145  0.0021  0.0854
22669W        W65685  25.127  23.732   9.844 -0.1789 -0.0764 -0.1124
22670W        W65686  12.725  15.941  15.819 -0.0765 -0.0842  0.0969
22671W        W65687  32.784  31.453  18.316  0.1002  0.2756 -0.0170
22672W        W65688  32.585  15.712   3.200  0.1570  0.0624 -0.0141
22673W        W65689  32.919  10.037   6.934  0.1856 -0.0697 -0.0598
22674W        W65690   7.276  13.044   4.776 -0.3568  0.0404  0.2327
22675W        W65691   6.648   3.657   4.924 -0.2707  0.1436 -0.1659
22676W        W65692  20.786  16.197   4.742  0.3135  0.0980  0.0664
22677W        W65693  16.643  19.178  21.856 -0.2819 -0.2049 -0.0331
22678W        W65694  14.537  11.477   6.377  0.0315 -0.2957 -0.0483
22679W        W65695   0.669  24.308   2.499  0.2092 -0.2737  0.0073
22680W        W65696  31.542  14.921  18.822  0.1110 -0.2371 -0.0151
22681W        W65697  16.062  15.645  26.651  0.0022 -0.2590 -0.1728
22682W        W65698   1.739   9.570  22.897 -0.0217  0.0970 -0.0300
22683W        W65699  14.895  18.381   0.727  0.0497 -0.0810 -0.2228
22684W        W65700  30.643   2.942  18.655  0.0002  0.1421 -0.1866
22685W        W65701  17.796  11.482   2.384 -0.0004 -0.1823 -0.0238
22686W        W65702  33.158  14.301   3.916 -0.2292  0.1438 -0.3030
22687W        W65703   8.283  34.593  24.557  0.0920  0.3638  0.1357
22688W        W65704  18.441   6.929   9.239  0.0239  0.2858  0.2076
22689W        W65705  33.381  22.416   8.984 -0.0286 -0.0750  0.0673
22690W        W65706  28.081  31.768   4.477  0.0036 -0.0127 -0.2903
22691W        W65707  28.900  34.451   3.345  0.3845  0.3742 -0.0577
22692W        W65708  31.356  12.960   5.793 -0.0789 -0.4288 -0.1774
22693W        W65709  22.189  15.553  18.959  0.1797 -0.3015 -0.1515
22694W        W65710   3.625   6.072   9.942  0.1700  0.1123 -0.3442
22695W        W65711  30.918  23.509  15.823  0.1141 -0.1642  0.0010
22696W        W65712   0.715  12.650   6.521  0.0250 -0.2617  0.0002
22697W        W65713  33.465  33.329  27.069 -0.0396  0.0076 -0.2303
22698W        W65714   7.271  13.721   7.768 -0.1797  0.2246  0.0109
22699W        W65715  18.001   0.866  26.533 -0.1571  0.0701 -0.1740
22700W        W65716  28.164  21.606   7.855 -0.1234 -0.0750 -0.1249
22701W        W65717  15.644   1.926   5.021 -0.0754  0.1551 -0.0553
22702W        W65718  30.267  24.633   8.753  0.1262  0.2270  0.0930
22703W        W65719   1.232  16.431   1.475  0.1429  0.1995 -0.0758
22704W        W65720   6.895   9.747  16.421  0.0248  0.0321 -0.0436
22705W        W65721  33.282  16.875   0.699  0.2726  0.0044  0.4364
22706W        W65722   3.251  17.054  21.629 -0.0757 -0.2437 -0.4193
22707W        W65723  13.413  13.363  27.569  0.3328  0.0312 -0.0135
22708W        W65724  22.098  20.291   7.411  0.4041 -0.0040 -0.3539
22709W        W65725  31.510  17.838   7.387 -0.2453  0.0595 -0.1409
22710W        W65726  17.124  32.258  29.034  0.2483  0.0943  0.2592
22711W        W65727   8.825  19.547   5.890 -0.0362 -0.0154  0.2813
22712W        W65728  18.150   5.760  10.518 -0.0543  0.1647 -0.3251
22713W        W65729   4.398   6.828   5.801 -0.0566 -0.1616 -0.1319
22714W        W65730  24.632   0.384  20.809 -0.0473  0.1785  0.0552
22715W        W65731  19.853   5.710   9.259  0.1671  0.0455 -0.0215
22716W        W65732  22.783   3.236  28.020  0.0768 -0.1758  0.1041
22717W        W65733  11.194  30.535   5.280 -0.1357  0.1029 -0.0413
22718W        W65734  29.704   7.513  11.543  0.2807 -0.0227 -0.1600
22719W        W65735  24.282  12.128   0.487 -0.0348  0.0554  0.0218
22720W        W65736  27.490   9.346   1.696 -0.1149  0.1100 -0.1803
22721W        W65737  25.697  23.774  19.785 -0.2675  0.2028 -0.2866
22722W        W65738  18.599  23.275  26.896  0.0823  0.0180  0.1048
22723W        W65739  18.174  28.035   9.979 -0.0422  0.0173  0.0025
22724W        W65740  20.227  27.750   4.862  0.1542 -0.2286 -0.1295
22725W        W65741   1.773   0.539   2.517  0.1089 -0.0434 -0.2721
22726W        W65742  33.532  20.295   5.031 -0.0911  0.1568  0.1457
22727W        W65743   9.778  20.881  25.839  0.0482 -0.1227  0.1884
22728W        W65744  15.314   3.862   7.117  0.1239 -0.0946  0.0375
22729W        W65745  12.043  23.305   6.799 -0.0358 -0.1906 -0.3296
22730W        W65746  29.173   7.931   7.457 -0.0476  0.0577 -0.2122
22731W        W65747  34.553   9.077  20.395 -0.1240  0.0385 -0.2426
22732W        W65748  21.796  34.035  26.319  0.0611 -0.0201 -0.0337
22733W        W65749   9.216  29.551   5.037  0.1361 -0.1941  0.1916
22734W        W65750   3.367   0.748  24.018 -0.0723  0.1332  0.0025
22735W        W65751  14.504  15.127  24.626 -0.2109  0.2025 -0.2543
22736W        W65752   5.338   5.127   9.246  0.1667  0.1434 -0.0133
22737W        W65753  22.551   2.654   1.260  0.0024  0.1821 -0.0260
22738W        W65754   6.991  16.863   1.531 -0.1345 -0.0428 -0.3175
22739W        W65755  25.608  21.060   8.565  0.0286  0.0362 -0.3722
22740W        W65756  28.594  33.806   5.593 -0.0311 -0.0486  0.0557
22741W        W65757  28.760  24.364  25.182 -0.0140  0.1612  0.0101
22742W        W65758  22.338  20.243  26.609  0.0663  0.3414 -0.1117
22743W        W65759  24.798   5.621   7.284 -0.0557  0.0178  0.4710
22744W        W65760  15.516   9.707  16.775 -0.3503  0.0362  0.2610
22745W        W65761  22.613  34.552   6.762  0.2258  0.1482 -0.3155
22746W        W65762  15.156  22.295  19.368 -0.2707  0.0429  0.1721
22747W        W65763   7.721  16.433   3.786 -0.1330 -0.2050 -0.1577
22748W        W65764  31.431   6.428  22.859 -0.1051 -0.1636  0.3681
22749W        W65765  13.342  14.825   1.340 -0.0419  0.3228  0.0588
22750W        W65766  28.947  10.848   9.591  0.1172  0.3749  0.1868
22751W        W65767   9.240  33.937  24.208  0.1211  0.0286 -0.1896
22752W        W65768   9.453  17.766   7.421  0.4634 -0.1821 -0.0205
22753W        W65769  13.586  18.187   2.717 -0.1278  0.0095 -0.0606
22754W        W65770  28.378  13.228   8.048  0.0332 -0.0566  0.0314
22755W        W65771  11.749   2.492  16.045  0.1791  0.1117 -0.1843
22756W        W65772  23.486  13.171  19.687  0.1125 -0.6168 -0.1399
22757W        W65773   0.194   6.417   6.515 -0.1339 -0.0928 -0.0603
22758W        W65774   3.142   0.490  14.617 -0.2431  0.0708  0.2549
22759W        W65775  21.760   8.833   4.614 -0.0108 -0.0863 -0.1373
22760W        W65776  28.568   0.814   8.093 -0.0843  0.0135  0.3336
22761W        W65777   7.699  11.232  22.748 -0.0134  0.0671  0.0644
22762W        W65778  23.964  19.710   7.619 -0.1493 -0.3609 -0.1149
22763W        W65779  21.387  13.508  27.616 -0.1256 -0.0005 -0.0709
22764W        W65780   3.203  31.211   0.207 -0.2367 -0.0883 -0.1233
22765W        W65781   5.832  21.705   3.143  0.2810  0.2103  0.3229
22766W        W65782  27.728  20.890   7.535  0.0314  0.3882 -0.2494
22767W        W65783  26.973  23.840  27.025 -0.0172 -0.0204 -0.2546
22768W        W65784  23.773   5.337   8.819 -0.0890  0.1564 -0.0911
22769W        W65785   0.935  33.844  27.150 -0.1405  0.0686 -0.2305
22770W        W65786  30.144  18.703  16.504  0.0918  0.0884 -0.1644
22771W        W65787  33.903  12.121  15.286  0.1617  0.1505  0.0491
22772W        W65788  23.796  24.679   2.557 -0.0443  0.1364 -0.3566
22773W        W65789  13.686   4.645  22.236  0.1564 -0.0393  0.0075
22774W        W65790  23.580  21.935   4.740 -0.2132 -0.1516 -0.2811
22775W        W65791  16.709  13.911  20.837  0.0622  0.0192 -0.0519
22776W        W65792  11.038  32.247  17.880  0.2314 -0.2755 -0.1453
22777W        W65793  24.762  12.336  16.672  0.1613 -0.1964 -0.2537
22778W        W65794  30.090  21.907  23.525  0.1376 -0.0827 -0.0612
22779W        W65795  18.816  28.754  25.475 -0.3049  0.0424 -0.0020
22780W        W65796  21.262   8.656  25.657  0.3421 -0.1311  0.2021
22781W        W65797  26.519  26.417   6.351 -0.1000 -0.0163  0.3080
22782W        W65798  25.362   9.972   1.207 -0.0014  0.2926 -0.0241
22783W        W65799  18.396  14.513  27.357  0.0925  0.2089  0.1441
22784W        W65800  11.920  26.466   7.804  0.2223  0.0289  0.2102
22785W        W65801   0.403  16.810  29.181  0.1106 -0.0270  0.1409
22786W        W65802  25.962   3.710  10.067 -0.1230 -0.1108 -0.0736
22787W        W65803  13.293  22.792  17.144  0.0527  0.2305 -0.0697
22788W        W65804   4.595   2.430  20.167 -0.2510  0.0193 -0.1426
22789W        W65805  20.571   8.333  20.306 -0.1027 -0.0628  0.0264
22790W        W65806  19.158  10.371  13.036  0.0369  0.0087  0.1400
22791W        W65807  27.564   6.235   2.531 -0.1388 -0.0886  0.1070
22792W        W65808  18.053   7.030  23.053 -0.0869  0.2139 -0.1290
22793W        W65809  20.322  21.582  22.526  0.0544 -0.1168  0.3851
22794W        W65810  14.905  13.182  22.589  0.2689 -0.2951  0.1413
22795W        W65811  28.643  10.007  21.492 -0.0494 -0.4459  0.0790
22796W        W65812  13.028  15.931  20.370 -0.0997 -0.1212 -0.1708
22797W        W65813  16.849  15.369   7.295 -0.2082 -0.1453  0.0597
22798W        W65814  25.433  18.628   7.852  0.0026 -0.1171 -0.0069
22799W        W65815  26.145  13.801   4.249  0.2129 -0.1929  0.1889
22800W        W65816  34.492   6.323   3.507  0.1474  0.0345 -0.1296
22801W        W65817  28.032  17.549   0.080 -0.3572 -0.0589  0.0249
22802W        W65818  20.892  26.012  13.894  0.2657  0.1513 -0.2824
22803W        W65819  14.443  17.250   0.027 -0.0914  0.1777  0.3153
22804W        W65820   0.488  11.687   0.211  0.3623 -0.1785  0.0409
22805W        W65821  21.428   6.880   9.058  0.0358  0.1446 -0.1336
22806W        W65822   9.090   9.252  26.732  0.1029 -0.0652  0.2693
22807W        W65823  34.630  10.032  19.770  0.1155 -0.1369 -0.2643
22808W        W65824  15.446   5.604   5.610 -0.5312  0.3869 -0.0052
22809W        W65825  34.101  10.648  22.846  0.2366 -0.1589 -0.1010
22810W        W65826  33.321  16.157  27.575 -0.0099  0.3287 -0.1021
22811W        W65827  29.904  10.637  17.233 -0.1485  0.1964 -0.0227
22812W        W65828  25.034   7.942   4.566 -0.0012 -0.1487  0.2286
22813W        W65829  19.069  11.511  21.300 -0.1487  0.2036 -0.1719
22814W        W65830  27.876  22.190   8.127 -0.0310  0.0430 -0.0042
22815W        W65831  18.957  28.130   0.094  0.0304 -0.1357  0.1799
22816W        W65832  31.139  14.637  16.362 -0.4061 -0.2922  0.1094
22817W        W65833  16.420  17.712  19.584 -0.0591  0.0326 -0.0903
22818W        W65834  30.053  15.107   8.338 -0.1716 -0.1458 -0.1079
22819W        W65835  20.181  22.097  24.664  0.0624 -0.0693  0.1145
22820W        W65836   6.359  10.594  28.208 -0.3850 -0.0377  0.0027
22821W        W65837   3.399  14.709   9.023  0.0049 -0.0863 -0.0516
22822W        W65838  25.245  23.108  27.252  0.2992 -0.3304  0.0305
22823W        W65839  15.783   4.201   1.839  0.2326 -0.0128 -0.0541
22824W        W65840  30.483  14.169   4.955  0.2058 -0.1154  0.0990
22825W        W65841  30.018  20.472   9.081 -0.1611 -0.0120 -0.0624
22826W        W65842  31.005  16.393  26.756 -0.1215  0.1208 -0.0228
22827W        W65843  19.328   5.816   2.839  0.3000 -0.1024  0.2780
22828W        W65844   0.900   1.189   0.578  0.0392  0.1480  0.2332
22829W        W65845   8.204  21.260  23.127 -0.1009 -0.2691 -0.4892
22830W        W65846  12.100   6.359   2.688  0.2352 -0.2509  0.0356
22831W        W65847   1.698   5.135  27.247  0.3261 -0.1953 -0.2920
22832W        W65848   2.573  29.501   4.620 -0.0791 -0.2889  0.2750
22833W        W65849   1.797  18.086   6.701  0.1483 -0.2932 -0.1343
22834W        W65850  24.745  17.039  28.879 -0.0950  0.1505 -0.1243
22835W        W65851  29.038  12.621   3.522 -0.2079  0.0094  0.0123
22836W        W65852  26.998  33.557  17.422 -0.1310 -0.1618 -0.0751
22837W        W65853  22.374  13.713   3.592  0.0102  0.3522  0.0254
22838W        W65854  16.797  15.875   6.960  0.2404 -0.1714 -0.0930
22839W        W65855  13.484  17.165  21.675 -0.4025  0.2457  0.0328
22840W        W65856  33.059  33.785   3.106  0.0301  0.1438  0.1938
22841W        W65857  33.382  20.391   4.537 -0.1233  0.0767 -0.0194
22842W        W65858  33.343  20.128   2.060  0.0005 -0.0118  0.0057
22843W        W65859  20.067  17.176  20.735 -0.3100 -0.0851  0.0358
22844W        W65860  23.018  17.082   5.676  0.2933  0.2964  0.2719
22845W        W65861  24.353  10.407  27.893 -0.1163 -0.0514  0.2586
22846W        W65862  16.470  15.040   0.769 -0.1248  0.3837 -0.2747
22847W        W65863  31.619  16.251   4.851 -0.0977  0.1673  0.0873
22848W        W65864  17.915   8.412   4.906  0.3011  0.1734  0.0214
22849W        W65865  20.667  32.785  10.120  0.1665  0.0488  0.2041
22850W        W65866   6.186  14.613   7.143 -0.2558  0.0965 -0.0548
22851W        W65867  21.361   9.490  28.432 -0.0776  0.1606  0.1964
22852W        W65868  24.702   8.893   6.777  0.3612 -0.1170 -0.0034
22853W        W65869  30.294  18.593   6.927 -0.2552  0.2222 -0.0280
22854W        W65870  27.625   6.006   8.574 -0.2749  0.2516  0.1018
22855W        W65871  14.127  19.169  20.585  0.0603  0.2139 -0.0815
22856W        W65872   9.481  25.802  21.952 -0.2286  0.2324 -0.2414
22857W        W65873  28.775   5.456   7.990  0.0116 -0.1852 -0.0076
22858W        W65874  26.434  18.456   8.939  0.0369  0.4126 -0.1947
22859W        W65875  19.314  24.660   8.085 -0.0996  0.2647 -0.1199
22860W        W65876  32.885  14.179   6.421  0.0855 -0.0141 -0.1182
22861W        W65877  29.705   7.662  11.045  0.3957  0.1725  0.2602
22862W        W65878  24.103   8.127   9.020 -0.1061 -0.0661  0.2577
22863W        W65879  19.340   6.159   6.909  0.1489  0.0834 -0.0681
22864W        W65880  14.456  13.582  27.537  0.2359  0.1351  0.2626
22865W        W65881  27.609   4.877   2.723  0.2210  0.1465 -0.2372
22866W        W65882   1.893  10.635  27.502  0.0980  0.0334 -0.1896
22867W        W65883  34.685  27.019   8.109 -0.1133 -0.0932 -0.1972
22868W        W65884  14.570  30.191  28.573 -0.0067  0.1216 -0.0574
22869W        W65885   5.309   4.599   9.880  0.1354  0.3107 -0.4901
22870W        W65886  21.020  26.945  22.904  0.1564  0.1506  0.0640
22871W        W65887  33.918  19.457   3.689 -0.0261 -0.0777  0.1725
22872W        W65888  22.429  14.955   9.251  0.1932  0.0647  0.1203
22873W        W65889  20.301  15.989  27.250 -0.1875 -0.0297 -0.4524
22874W        W65890   0.956  26.648  27.683 -0.1455  0.1349  0.2610
22875W        W65891  20.469   9.863   3.287  0.3508 -0.0241  0.0026
22876W        W65892  30.596   4.236   8.320  0.0010 -0.2820 -0.2245
22877W        W65893  13.034   9.950   5.455  0.3436 -0.2124  0.2644
22878W        W65894  23.720  15.973  23.938  0.1251 -0.1546  0.2407
22879W        W65895  26.808  34.699  21.212 -0.1712  0.3199 -0.0304
22880W        W65896  17.434  25.524  24.555 -0.0217 -0.0393  0.0501
22881W        W65897  10.064  11.830   5.750 -0.2198  0.1806 -0.2024
22882W        W65898  28.001  20.463  26.453 -0.1086  0.0962 -0.0901
22883W        W65899  22.663  10.854  27.802  0.2227 -0.1574  0.1465
22884W        W65900  30.422  34.201   8.359 -0.2136  0.1471  0.2580
22885W        W65901  31.153   9.559   9.145  0.0356  0.3847  0.1817
22886W        W65902  33.925  17.975   2.541  0.3219 -0.0893  0.2101
22887W        W65903  24.698  10.867  29.230 -0.0213  0.2169 -0.0162
22888W        W65904   5.912  20.766   8.171  0.0286 -0.2642  0.0909
22889W        W65905  25.664   3.793   8.346 -0.2438 -0.0200  0.0994
22890W        W65906  17.920  23.803  27.897  0.4330 -0.0163 -0.0400
22891W        W65907  29.407   7.465   9.138 -0.1722 -0.0159 -0.1252
22892W        W65908  19.791   3.260  28.933  0.1978 -0.2367 -0.1840
22893W        W65909  17.746   5.767   4.662  0.0474  0.4047 -0.1667
22894W        W65910  15.352   3.864   5.547  0.2042  0.1030 -0.2033
22895W        W65911  16.759   0.296  28.456 -0.1795  0.0213 -0.2110
22896W        W65912  18.053  32.899   6.162  0.1606  0.0814  0.0969
22897W        W65913  22.550   9.015   9.328 -0.3340  0.0804 -0.0466
22898W        W65914  19.207   2.828  27.166 -0.1631  0.2737  0.4134
22899W        W65915  19.855  13.418   6.856 -0.1852  0.0696  0.0907
22900W        W65916  19.677   0.185   3.988 -0.1552  0.1319 -0.2127
22901W        W65917  18.933  13.360  24.386  0.1915  0.1040 -0.1529
22902W        W65918  18.645   5.101   8.408 -0.1787 -0.1032 -0.1989
22903W        W65919  22.200  13.454  12.863 -0.1420  0.0952 -0.0202
22904W        W65920   6.718  32.479   5.794 -0.1003 -0.2221  0.1170
22905W        W65921  28.301   2.901  17.178 -0.2170 -0.2801  0.1917
22906W        W65922  32.054  16.068  29.242 -0.0178  0.0846  0.2275
22907W        W65923   1.328  10.251   1.297  0.0491 -0.1032 -0.2201
22908W        W65924  21.921  26.592  22.091 -0.4670  0.3000 -0.1374
22909W        W65925   9.794  22.364   8.601 -0.1128 -0.1370  0.0896
22910W        W65926  22.377   0.953   0.607  0.0397  0.1368 -0.1212
22911W        W65927   1.598  12.365   4.490 -0.1272  0.2308  0.0593
22912W        W65928  23.624  33.281   4.465 -0.2921 -0.1397  0.1134
22913W        W65929  32.276   7.484   6.359  0.0879 -0.2447  0.1428
22914W        W65930  24.917   7.358   7.161  0.1578  0.1469  0.0795
22915W        W65931  26.745  16.862  28.200 -0.0831 -0.0203 -0.0149
22916W        W65932  18.881  18.353   7.417 -0.4291 -0.0319  0.3976
22917W        W65933  32.244   9.940   3.434  0.0464  0.0776  0.3091
22918W        W65934  28.390  13.104  10.097 -0.1352 -0.0878 -0.0722
22919W        W65935   7.469  31.918   1.796  0.0249 -0.2725 -0.3149
22920W        W65936  33.116  20.470   7.187 -0.1811  0.0114  0.4789
22921W        W65937  21.950  10.012  24.201  0.0751  0.0078  0.0336
22922W        W65938  10.316  23.211   0.789  0.4247 -0.1219 -0.0286
22923W        W65939   6.927  17.397  25.241 -0.1738 -0.1034  0.2962
22924W        W65940   2.775  19.644  27.640  0.1950  0.1631 -0.2812
22925W        W65941   9.087  20.616  17.649  0.0568 -0.3271 -0.1040
22926W        W65942  17.143  26.786  27.223 -0.0820 -0.2483  0.0637
22927W        W65943  11.519  16.723   6.048 -0.2474  0.0814  0.3563
22928W        W65944  27.586  29.022   6.482  0.0398  0.4388  0.2603
22929W        W65945  28.474   8.925  23.905  0.0310  0.0624  0.2320
22930W        W65946   7.086  11.539   2.714  0.0296 -0.0425 -0.2565
22931W        W65947   3.293  19.165   5.259  0.0541 -0.0299  0.1702
22932W        W65948  19.253   3.325   3.316 -0.0895 -0.0609  0.5477
22933W        W65949  24.872  11.120   1.243 -0.3212  0.1795 -0.1380
22934W        W65950  26.893  21.466   3.624  0.1369  0.0113  0.1079
22935W        W65951  23.243  18.073  24.749  0.1595 -0.1234  0.2405
22936W        W65952  23.196   8.828  24.939 -0.2164 -0.1489 -0.1954
22937W        W65953  12.178  31.867   0.379 -0.1499  0.0879  0.1639
22938W        W65954  32.132  18.099   6.823 -0.0417 -0.3913 -0.0242
22939W        W65955  29.786  12.593  21.190 -0.1992  0.0647 -0.2095
22940W        W65956  16.049  13.111   2.558 -0.0661 -0.1283 -0.0289
22941W        W65957  29.744   9.520   9.290 -0.0670 -0.1212  0.1076
22942W        W65958  22.085  10.048  26.358  0.3166  0.2571  0.0773
22943W        W65959  19.327  16.409   0.614  0.4074 -0.2165 -0.0146
22944W        W65960  26.230  14.916   8.471  0.1561  0.2372  0.0746
22945W        W65961   3.793   8.685   5.387 -0.1919  0.1806  0.2207
22946W        W65962  21.153  13.099  26.715  0.0331  0.1360 -0.0249
22947W        W65963   0.631   8.026  22.773 -0.0469 -0.0275  0.0302
22948W        W65964  29.494   6.580  16.340  0.2061 -0.0389 -0.0812
22949W        W65965  17.536  20.674  23.366 -0.0306  0.2341 -0.0203
22950W        W65966   7.043  30.540   6.046  0.0425 -0.1330  0.0925
22951W        W65967  25.085  25.356  23.684 -0.0211  0.1937  0.2418
22952W        W65968  29.678   0.773   7.026 -0.0334  0.2387 -0.0426
22953W        W65969  15.377  21.302  24.844  0.1938  0.2071 -0.0327
22954W        W65970  34.643  12.557   0.172 -0.1791 -0.0540 -0.0826
22955W        W65971  27.424  21.340  18.900  0.1238  0.1087 -0.1383
22956W        W65972  21.659  24.034   0.987  0.0612  0.3578 -0.0510
22957W        W65973  26.621  21.454   8.425 -0.3610 -0.0906  0.1057
22958W        W65974  14.371  16.162   6.663 -0.1333 -0.2312  0.0295
22959W        W65975  19.140  31.479  26.613  0.0695  0.0528 -0.2898
22960W        W65976  24.902  18.068   9.409  0.1805  0.0185 -0.1187
22961W        W65977  21.880  11.055  25.983 -0.0884  0.1579 -0.4289
22962W        W65978  23.951  20.565   3.305 -0.1279  0.3759  0.2517
22963W        W65979   0.132   9.051   2.810  0.2592 -0.0197  0.4008
22964W        W65980  31.642  23.510   8.595  0.1170 -0.0114  0.3540
22965W        W65981  33.854  27.265   6.733  0.0024  0.1259 -0.0674
22966W        W65982  18.712  13.625  21.132 -0.2499  0.3274  0.1366
22967W        W65983  21.565  10.963   8.595  0.2135 -0.0833  0.1909
22968W        W65984  13.774  21.145  26.756 -0.0187  0.2257  0.2841
22969W        W65985  21.368  34.012  27.297  0.1557  0.1505  0.0540
22970W        W65986  18.702  12.558   4.073 -0.2142 -0.2117  0.0318
22971W        W65987  19.818  17.643  12.998  0.2281  0.1727 -0.0007
22972W        W65988  27.290  25.766   7.549 -0.0187 -0.0023 -0.3799
22973W        W65989  30.796  23.762  18.917 -0.2237 -0.0133 -0.1701
22974W        W65990  31.640  28.900   2.985  0.0009  0.1747  0.0890
22975W        W65991  34.555   3.383   6.424 -0.0019  0.0069  0.0548
22976W        W65992  28.297  10.978   4.800  0.0410 -0.1400  0.1044
22977W        W65993  30.463  25.084   8.477  0.2940 -0.0946  0.3048
22978W        W65994  14.238  33.307   9.817  0.1012  0.2712  0.2656
22979W        W65995  15.405  13.446   4.723  0.0847 -0.3007  0.1646
22980W        W65996  22.018   1.419  15.954  0.1639  0.2539 -0.0732
22981W        W65997  26.104   3.679  24.007  0.1792 -0.1414  0.0408
22982W        W65998  17.914  29.694   0.968 -0.2298 -0.1128  0.0361
22983W        W65999  21.822  25.776  21.113  0.0480  0.2756 -0.2919
22984W        W66000  20.136  28.729  26.421  0.1716 -0.0900  0.1939
22985W        W66001  22.132   3.294   5.505 -0.1476 -0.0137  0.1403
22986W        W66002  19.136  10.532   6.188  0.0270 -0.0740 -0.1657
22987W        W66003  26.551  13.682  10.213 -0.1202  0.1949 -0.0347
22988W        W66004  21.816  17.557  26.571  0.0621 -0.0815 -0.0380
22989W        W66005  29.371   7.968  10.339  0.1688 -0.0075  0.1876
22990W        W66006  14.594   3.354   2.122  0.4862  0.2017 -0.1119
22991W        W66007   8.772   2.372   4.632  0.1665  0.2266 -0.0980
22992W        W66008   7.855  21.703  24.657  0.0631  0.0237 -0.4107
22993W        W66009  33.349  11.557   4.181 -0.0608 -0.0079 -0.2064
22994W        W66010  20.463  17.005   7.883 -0.1718  0.0930  0.1138
22995W        W66011  18.352  20.570   1.834  0.0072  0.0439  0.1945
22996W        W66012  11.188   8.267   8.159  0.0054 -0.1372  0.1949
22997W        W66013  16.996   8.280  21.190  0.0873  0.5341 -0.0017
22998W        W66014  26.287  21.030   1.251 -0.3624 -0.1510  0.3135
22999W        W66015  24.331  12.212   2.729 -0.0814 -0.0640 -0.0512
23000W        W66016  29.442  19.017  10.757  0.2644 -0.0843  0.2700
23001W        W66017  31.242  14.468   2.645 -0.1487 -0.0257  0.1217
23002W        W66018   9.104  30.233   6.699  0.3358 -0.1476 -0.1681
23003W        W66019   6.836  34.418  28.317  0.0072 -0.2163 -0.0105
23004W        W66020  28.050   6.074  10.933 -0.3939  0.3583  0.2261
23005W        W66021  22.392  30.321   5.887  0.0228  0.0183  0.0019
23006W        W66022  15.180  10.941   8.378 -0.0832  0.3994 -0.1462
23007W        W66023  22.015  16.599  14.738  0.4084 -0.1298 -0.1090
23008W        W66024   4.651  13.538  14.621 -0.1218  0.3038  0.0288
23009W        W66025   1.838  25.699  20.931 -0.1880  0.0246 -0.0201
23010W        W66026  25.940  12.625   8.939 -0.0330  0.3266  0.1847
23011W        W66027  16.716  33.272   2.630 -0.2965  0.0681 -0.1672
23012W        W66028  29.031  22.662   7.362 -0.0362 -0.0960 -0.0249
23013W        W66029  14.840  17.886   2.722 -0.2035  0.1296 -0.0009
23014W        W66030  14.332   4.113   0.521 -0.4679  0.0766 -0.0468
23015W        W66031  28.036  14.633   1.392 -0.2339  0.1574  0.0789
23016W        W66032  13.084  32.761   3.813  0.4045 -0.1003  0.0677
23017W        W66033  22.329   4.658   8.559 -0.0946 -0.0485  0.2199
23018W        W66034  32.019  32.708   6.253  0.0041  0.0687 -0.0154
23019W        W66035  27.047   9.141   8.026  0.0342 -0.2800 -0.5932
23020W        W66036  31.690  19.957  23.044 -0.2528 -0.4270 -0.1812
23021W        W66037  21.667   6.589   1.562  0.0768  0.1629  0.0602
23022W        W66038  23.332  12.547   5.967  0.0160  0.3515 -0.1534
23023W        W66039  31.054  17.687   2.539 -0.0433 -0.2976 -0.3048
23024W        W66040   0.762  20.524  10.218 -0.0443 -0.3268  0.1744
23025W        W66041  17.376  11.340   6.138  0.0041  0.0174 -0.2121
23026W        W66042  27.033  28.721   5.455 -0.0353 -0.3153  0.1369
23027W        W66043  32.385  17.361   8.662  0.2627 -0.2449  0.0377
23028W        W66044  20.896  15.426  21.007 -0.0407  0.1516 -0.0036
23029W        W66045  13.115   8.927  14.013  0.2162 -0.0120  0.4323
23030W        W66046  28.309  12.768   6.640  0.2240  0.1812 -0.0431
23031W        W66047  20.426   0.273   7.795  0.2847 -0.0127  0.1275
23032W        W66048  23.089  25.815   1.306 -0.1804 -0.2955 -0.0500
23033W        W66049   0.405  18.502  23.035  0.4674  0.0451 -0.0180
23034W        W66050   2.283  17.133  25.523 -0.0415  0.1780 -0.0244
23035W        W66051  21.508  15.756   5.053 -0.0995  0.1667 -0.3579
23036W        W66052  28.694  19.212   1.503  0.1446 -0.0479 -0.1093
23037W        W66053   0.634   2.456  10.062 -0.2117  0.0744 -0.1746
23038W        W66054  19.969   8.537   9.425  0.1465  0.3075 -0.1370
23039W        W66055  15.652  23.328   4.585  0.2158 -0.0806 -0.0049
23040W        W66056   1.336   2.384  14.808 -0.3914  0.0923 -0.0284
23041W        W66057  32.236  21.314  16.300 -0.1731  0.4236 -0.1129
23042W        W66058  15.534  17.225   5.340 -0.2558 -0.3542  0.3453
23043W        W66059   5.969  20.111   0.238  0.1135 -0.3219  0.0785
23044W        W66060   7.902   9.843   8.454  0.0098  0.1203  0.1107
23045W        W66061   5.614  20.807   6.968  0.1282  0.0926 -0.1005
23046W        W66062  29.951   5.292   7.937  0.3560  0.2027  0.0210
23047W        W66063  28.309   4.939  10.879 -0.1330 -0.0184  0.3743
23048W        W66064  25.718   8.857   9.208 -0.2595  0.1429  0.1892
23049W        W66065  33.359   7.712   9.785  0.2001  0.0336 -0.2934
23050W        W66066  30.174  28.951  17.860  0.0632 -0.2295 -0.1303
23051W        W66067  27.136  23.923  11.603  0.1150 -0.0086 -0.2255
23052W        W66068   0.941   7.882   7.294  0.0443 -0.1037 -0.3193
23053W        W66069  16.859  10.300  16.503 -0.0273  0.0212  0.2004
23054W        W66070  20.580   9.398  28.026  0.2130 -0.2052 -0.3593
23055W        W66071  29.253   8.340   8.778  0.0837 -0.1027 -0.2497
23056W        W66072  15.951   5.186   0.780  0.0199 -0.0098 -0.4174
23057W        W66073  30.083  10.286   5.577  0.0147 -0.1986  0.1184
23058W        W66074   3.577  26.863  28.270 -0.2820 -0.2670  0.1529
23059W        W66075  30.023  24.685   7.193  0.2083  0.2579 -0.0236
23060W        W66076  19.793  31.999  22.155 -0.0089 -0.1733 -0.2110
23061W        W66077  19.018  13.185  27.030  0.2471  0.1371  0.0896
23062W        W66078  33.756  29.541   9.650  0.0544  0.1454  0.3854
23063W        W66079  19.172  27.898  25.345  0.0580  0.2561  0.0900
23064W        W66080  19.875  19.384   3.784  0.0361 -0.3249  0.0864
23065W        W66081  23.032  10.205  25.284  0.0187 -0.2277 -0.2497
23066W        W66082  27.493  12.169   7.110  0.0328 -0.1095 -0.1017
23067W        W66083  17.466  22.251   0.086 -0.0806 -0.0031  0.2793
23068W        W66084  24.362  34.476   5.471 -0.0433 -0.2224 -0.0922
23069W        W66085  16.825  11.327   4.708 -0.1886  0.0720 -0.0537
23070W        W66086  12.134   3.148   2.678 -0.3830  0.1607 -0.1152
23071W        W66087  23.840   9.958  21.939 -0.1160  0.1098  0.1140
23072W        W66088   9.673  14.915  20.598  0.1243  0.0084 -0.2224
23073W        W66089  20.846   3.501   9.499  0.2173  0.2120 -0.2732
23074W        W66090  21.294  21.885  28.013  0.1718 -0.0705  0.4939
23075W        W66091  32.285  33.833   7.145 -0.0561 -0.1279  0.2823
23076W        W66092   8.247  15.935   4.299 -0.4326  0.0704 -0.1949
23077W        W66093  16.395   1.201   9.101 -0.0624  0.0711  0.0764
23078W        W66094  17.237  15.637  25.243  0.5059 -0.0542  0.0381
23079W        W66095  31.013  19.350   5.617 -0.0427 -0.0314  0.2495
23080W        W66096  25.377  12.134   8.254  0.1683  0.0477  0.1462
23081W        W66097   0.451  13.660   5.568 -0.2418 -0.2529 -0.3134
23082W        W66098  20.379  18.930   8.111 -0.1068  0.2986  0.1288
23083W        W66099  29.556  24.520   6.906  0.1334 -0.0054  0.0911
23084W        W66100  23.669  12.655   6.610 -0.0228  0.0187 -0.1954
23085W        W66101  24.468  15.877   1.562  0.1153 -0.3412 -0.0952
23086W        W66102  17.765  17.745  24.254  0.2063  0.2626 -0.0060
23087W        W66103  23.671   9.822   5.876  0.1567  0.1932  0.1348
23088W        W66104   0.556   8.062   6.960  0.1994  0.2446 -0.1504
23089W        W66105  14.012   5.152   6.727  0.1491  0.1043  0.0730
23090W        W66106  15.380  27.071   9.552 -0.1013 -0.1566 -0.3265
23091W        W66107  31.424  29.154   6.006  0.0799 -0.1471 -0.1767
23092W        W66108  30.843  20.051   0.316 -0.3401 -0.2190 -0.0377
23093W        W66109   5.579   5.753   7.767 -0.0878 -0.1016  0.0308
23094W        W66110  22.337  29.679   4.294  0.1928  0.0962 -0.1361
23095W        W66111   7.045  14.648  18.155  0.2036 -0.0170  0.0108
23096W        W66112  16.120  18.677   4.741  0.2993 -0.4017 -0.0283
23097W        W66113  31.888  20.181   6.730  0.1521  0.2219 -0.1157
23098W        W66114   9.373   2.394   8.033 -0.0384 -0.1208 -0.0106
23099W        W66115  20.952  26.716  28.580  0.1512  0.1178 -0.1497
23100W        W66116  12.278   5.219  18.680 -0.2434 -0.0634 -0.0805
23101W        W66117  23.447   3.424  22.932 -0.1487  0.1508  0.0125
23102W        W66118  22.613   6.350   8.894  0.0629  0.0209 -0.0533
23103W        W66119  15.023  13.925   7.994 -0.1767 -0.0953 -0.0697
23104W        W66120  14.948   4.434  28.434 -0.1192 -0.1673 -0.0906
23105W        W66121  23.565  13.829  27.220  0.0099  0.3840 -0.2113
23106W        W66122  30.799   2.232  17.262  0.2451  0.0719  0.3946
23107W        W66123   9.405  22.357  28.266 -0.0420  0.3776  0.3702
23108W        W66124  23.739   1.545  24.251  0.2115  0.3705  0.0307
23109W        W66125  22.457   7.133   8.124 -0.0963  0.0188  0.0945
23110W        W66126  16.301  28.683   7.791 -0.1581  0.0488 -0.1817
23111W        W66127  29.556  24.386   2.908  0.0911 -0.0198  0.1296
23112W        W66128  12.924  27.542   6.015 -0.1735  0.0642 -0.1005
23113W        W66129  27.424   0.135   4.595  0.1570 -0.0605 -0.2457
23114W        W66130  16.316  33.192  19.517 -0.2305 -0.0293 -0.2106
23115W        W66131  24.871   7.656  10.023  0.1432 -0.1282 -0.3001
23116W        W66132  10.805  18.037  28.339  0.2908  0.2772  0.1414
23117W        W66133   1.924   5.164  22.968  0.1651  0.3213 -0.3511
23118W        W66134   2.384  19.010  27.947  0.0319  0.0620  0.0316
23119W        W66135  29.711  18.543   9.818  0.1275 -0.0406 -0.0975
23120W        W66136  18.760  33.867   5.088  0.1058  0.0324  0.0355
23121W        W66137  31.549  22.379   1.811 -0.0829  0.1008 -0.4988
23122W        W66138  32.040  13.317   2.993 -0.3247 -0.4410  0.0937
23123W        W66139  25.177   7.197   7.898 -0.3124 -0.3744 -0.2802
23124W        W66140  31.726  14.852   6.573  0.0695 -0.1479  0.0947
23125W        W66141  26.060  32.370   6.521 -0.0402 -0.1171  0.1306
23126W        W66142  19.331  20.175   6.184  0.0799 -0.1782 -0.1500
23127W        W66143  33.194  13.186   5.351  0.1142 -0.1335 -0.1770
23128W        W66144  32.098  19.140   2.528 -0.2445 -0.1097  0.4315
23129W        W66145  14.903  11.994  15.829 -0.2225 -0.0791 -0.2337
23130W        W66146  19.585  16.883   0.161 -0.1317 -0.1216 -0.0200
23131W        W66147  12.209   5.043   7.334  0.1311 -0.1923 -0.0780
23132W        W66148  16.182  27.198  25.106 -0.0766  0.1331 -0.2967
23133W        W66149  20.224  29.977   3.386 -0.1125  0.0596  0.1112
23134W        W66150  24.817  22.654  23.456 -0.0429  0.0045 -0.1585
23135W        W66151  13.120  11.984  20.680 -0.0527  0.2529  0.0350
23136W        W66152   6.937  16.048  29.247  0.2177 -0.0440 -0.2238
23137W        W66153  23.888   4.730  28.716  0.2758  0.2027 -0.1194
23138W        W66154  33.228  16.333   6.494  0.1757 -0.1420 -0.3269
23139W        W66155  25.274  33.796   9.810 -0.1218  0.0657  0.0671
23140W        W66156  11.217  11.967  12.826  0.0268 -0.1346  0.1652
23141W        W66157  19.841  29.091  25.759 -0.1659 -0.0664  0.1969
23142W        W66158  15.587  19.743  29.165  0.2282 -0.1721 -0.1262
23143W        W66159  20.860  19.233  20.314  0.2358  0.0004  0.0006
23144W        W66160  30.166  27.914  11.284  0.0678  0.1307  0.0250
23145W        W66161  34.252  12.969   2.976  0.3407 -0.1415 -0.0144
23146W        W66162  23.945  17.091   7.334  0.1444  0.2034  0.1615
23147W        W66163   9.549  32.705  28.470  0.1587 -0.3008  0.1083
23148W        W66164  23.357  26.895  25.776  0.1819  0.2726  0.2127
23149W        W66165  28.577   4.495  28.296 -0.2552  0.1698  0.2641
23150W        W66166  20.431   9.977   1.260  0.2049 -0.1061  0.1427
23151W        W66167  21.007   9.390   0.448  0.0861  0.2753  0.1795
23152W        W66168  12.449  19.051   1.020 -0.0750  0.1059 -0.1306
23153W        W66169  27.890  17.948   0.401 -0.0826  0.3806  0.0581
23154W        W66170  26.590  30.458  10.864 -0.0836  0.0603 -0.3075
23155W        W66171  28.421  13.358  19.971  0.1728  0.2193  0.2864
23156W        W66172  20.873  32.931  27.683  0.2624  0.0083  0.2954
23157W        W66173  20.776  22.234   3.530 -0.1681 -0.0637 -0.2161
23158W        W66174  19.055  23.376  28.932  0.0054  0.2060  0.0090
23159W        W66175   7.641   8.911   5.611  0.0365  0.2800  0.1478
23160W        W66176   4.282   8.294  27.378  0.1123 -0.1199  0.0618
23161W        W66177  31.926  10.352   8.664 -0.0597 -0.1974 -0.2542
23162W        W66178  29.812  27.182  28.161  0.0245 -0.0710 -0.0949
23163W        W66179  27.236  32.321  25.136 -0.2028  0.2327 -0.0530
23164W        W66180   9.287  15.492   7.428  0.2419 -0.0774  0.1939
23165W        W66181   6.347  13.379   1.642  0.1383 -0.4304  0.2662
23166W        W66182  28.944  11.997  27.925 -0.0434  0.0164 -0.3487
23167W        W66183   0.386  17.291   0.684  0.1015 -0.0732 -0.1909
23168W        W66184   7.294  22.075   7.629 -0.1977  0.2790 -0.1109
23169W        W66185  14.634  23.636   0.468  0.0541  0.0024 -0.2889
23170W        W66186  28.519  25.755   3.449 -0.2191  0.1756  0.2800
23171W        W66187  29.637  11.986   8.120 -0.2043  0.0909 -0.0525
23172W        W66188  18.599  26.089   7.854 -0.0136 -0.2128  0.0025
23173W        W66189  29.498   8.775   8.846 -0.1920 -0.2219  0.1502
23174W        W66190  32.885  27.149   4.830 -0.0131  0.1124 -0.1782
23175W        W66191  28.948  17.377   0.511  0.0328  0.2189  0.0523
23176W        W66192  22.339  21.830  17.455 -0.1747 -0.1977  0.0452
23177W        W66193  24.630   2.801  25.189  0.0961 -0.3990  0.1396
23178W        W66194  22.719  29.635   0.280 -0.2337 -0.2207  0.3462
23179W        W66195   6.930  10.960  26.789  0.0359 -0.1958 -0.2998
23180W        W66196  27.162  20.130  23.937 -0.2034  0.2758  0.1902
23181W        W66197  17.587  27.408   8.561 -0.1123  0.0480  0.0481
23182W        W66198  24.560   1.521  11.510 -0.2973  0.1660  0.1324
23183W        W66199   8.543   6.073   6.657 -0.1049 -0.1206  0.2857
23184W        W66200  24.751  25.304   3.348 -0.1576 -0.1704  0.2283
23185W        W66201  23.976  22.593   9.964  0.1841  0.3502 -0.0320
23186W        W66202  23.849  18.624   5.505  0.2204  0.0690 -0.0688
23187W        W66203  17.652  10.464   1.783 -0.1187 -0.1117 -0.0576
23188W        W66204  21.176  23.177   9.361  0.1904  0.2685 -0.1472
23189W        W66205  15.035  32.305  28.613 -0.0449  0.1060 -0.0770
23190W        W66206  29.923   6.333   7.874  0.1036  0.0760  0.0937
23191W        W66207  25.846  10.625   1.532  0.4429 -0.0819 -0.3458
23192W        W66208  18.637   3.552   0.930  0.0920 -0.0407  0.1730
23193W        W66209  28.959   5.333  10.446 -0.0078 -0.0392 -0.1303
23194W        W66210  30.794  18.303   3.754 -0.0410  0.0575 -0.1751
23195W        W66211   4.308  19.581   7.085 -0.1615  0.0882  0.0928
23196W        W66212  10.390   6.306  29.229  0.2166  0.0240  0.0136
23197W        W66213  29.513  18.564   7.121 -0.2642  0.1776  0.1054
23198W        W66214  27.569  14.970   4.083  0.1593  0.2209 -0.1347
23199W        W66215  18.447   8.400   6.453  0.1118 -0.2093  0.0403
23200W        W66216  18.165  17.684  18.076 -0.1731  0.1854 -0.0062
23201W        W66217  17.510  14.785   2.441 -0.1906 -0.1103 -0.2896
23202W        W66218  19.811   4.577   1.711  0.1025  0.3887  0.0349
23203W        W66219  23.514  22.491   7.407  0.0422 -0.0418  0.2957
23204W        W66220  24.948  12.785   0.020  0.1046 -0.1263 -0.0978
23205W        W66221  13.096   3.161   4.328 -0.1741 -0.1995 -0.3293
23206W        W66222  27.936  10.326   2.721  0.0505  0.1164 -0.1598
23207W        W66223  29.547   6.583   4.205 -0.1678 -0.0121  0.0017
23208W        W66224  31.002   2.428  28.397  0.0304  0.0275  0.0533
23209W        W66225  23.712  10.457   1.040  0.1328 -0.0854 -0.0706
23210W        W66226  17.657  26.313   5.015  0.1790 -0.0383  0.0521
23211W        W66227  21.772  14.049   4.418  0.0766 -0.2214 -0.2880
23212W        W66228  20.111  17.304   7.623 -0.1147 -0.1973  0.1291
23213W        W66229  32.080   6.593   8.438 -0.1073  0.0421  0.0017
23214W        W66230  21.491  10.069  18.482  0.1378 -0.1689 -0.0972
23215W        W66231  29.744   4.250   6.850 -0.1358  0.0593  0.0970
23216W        W66232  27.917   0.971   9.620  0.0494  0.0032 -0.0218
23217W        W66233  30.155   7.739   6.508 -0.4014  0.1152  0.1345
23218W        W66234   3.271  19.250  28.449  0.0976 -0.2661  0.0211
23219W        W66235  25.926   4.551   6.136  0.1921 -0.1074 -0.4219
23220W        W66236  20.689  34.670   7.643 -0.2026 -0.0154  0.0313
23221W        W66237  15.826  12.650   7.042 -0.1181 -0.1531  0.3353
23222W        W66238  16.295  24.946   6.879  0.0965  0.2302 -0.2610
23223W        W66239  21.887  17.652   0.863  0.1422 -0.0392 -0.1802
23224W        W66240  34.617  18.097   1.667 -0.1410 -0.0303 -0.0463
23225W        W66241  13.168  20.567   1.783  0.0743 -0.0223 -0.0479
23226W        W66242  21.478  14.242   5.870  0.3186  0.0765 -0.0300
23227W        W66243  10.230  31.734  29.114 -0.0939 -0.0289 -0.2509
23228W        W66244   2.877  21.040  24.413  0.4734 -0.3348  0.1263
23229W        W66245  18.000  11.780  27.207  0.3481 -0.0491 -0.1267
23230W        W66246  23.530  21.675   8.767  0.1318 -0.1551 -0.1918
23231W        W66247  31.707  22.697   5.066 -0.0280 -0.1247  0.3346
23232W        W66248  19.481  12.694  23.251  0.1018  0.0289  0.3107
23233W        W66249  20.602  13.822   5.766 -0.0536 -0.2628 -0.0048
23234W        W66250  29.586  14.431   6.588 -0.0066 -0.4914  0.0741
23235W        W66251  22.959  22.857  24.025  0.0572 -0.1307 -0.0481
23236W        W66252  15.380  25.674   7.153  0.1037 -0.1732 -0.1016
23237W        W66253  24.633  22.475   8.200  0.2040  0.0232  0.1108
23238W        W66254  15.860   8.746  26.263 -0.0576 -0.0299  0.0372
23239W        W66255  12.925  17.584   5.178  0.0328  0.0041  0.1873
23240W        W66256  26.801  16.657  10.224  0.1830 -0.0296 -0.0992
23241W        W66257  18.192  14.510   6.698 -0.2072  0.0699  0.2324
23242W        W66258  34.087  33.012  21.844  0.0331  0.0554 -0.1141
23243W        W66259  21.177  25.030   2.198  0.2390 -0.3882  0.1703
23244W        W66260  24.574   4.030   6.526  0.1234  0.0093 -0.1084
23245W        W66261  16.788  19.470  22.904 -0.0603 -0.1882 -0.1213
23246W        W66262  15.178  32.801   0.631 -0.3771 -0.1630  0.0792
23247W        W66263  24.067  22.589   7.043  0.2815 -0.2527 -0.2958
23248W        W66264  14.389  30.254   4.214  0.0183 -0.5097 -0.1803
23249W        W66265  20.764  18.622   2.351  0.0431 -0.0283  0.0017
23250W        W66266   2.066  14.887   7.217 -0.2411  0.2048  0.1714
23251W        W66267  13.126  14.033  23.450 -0.1320 -0.0496  0.2494
23252W        W66268  21.877   4.104  28.192  0.0436 -0.0910 -0.3869
23253W        W66269  14.160  27.331   2.415  0.0006 -0.0601  0.0800
23254W        W66270  23.885  27.848   3.045  0.0134 -0.3417  0.1738
23255W        W66271  29.987  12.285   3.316  0.0447 -0.0497  0.2003
23256W        W66272  32.974  13.294   7.743  0.1903  0.0234 -0.2768
23257W        W66273  30.796   5.052   4.208 -0.1872  0.0175 -0.3034
23258W        W66274  29.045   3.317   7.319 -0.0172 -0.2235 -0.2093
23259W        W66275  30.007  11.335  26.928  0.2574 -0.3295 -0.2338
23260W        W66276  22.679   9.353   8.348 -0.1727 -0.2117  0.1570
23261W        W66277  10.018  11.421  25.941 -0.4270  0.0191 -0.2457
23262W        W66278  16.054  15.410  28.872 -0.0468  0.0260  0.1642
23263W        W66279  15.866  14.121   1.914  0.2551 -0.1235  0.1358
23264W        W66280   1.185   0.637  28.030  0.1726  0.1425 -0.0391
23265W        W66281   3.653   3.165   8.319 -0.1287 -0.0474 -0.1841
23266W        W66282  15.990  12.510  27.638 -0.1074 -0.0065 -0.1004
23267W        W66283  34.551  27.718   8.972 -0.0436  0.0271 -0.1967
23268W        W66284  34.362  31.652   1.274 -0.1464 -0.2631 -0.0409
23269W        W66285  26.568  10.306   6.074  0.4424  0.2095  0.4197
23270W        W66286   4.402  25.529   8.211 -0.0591 -0.0150 -0.1625
23271W        W66287   2.555  18.076  24.468  0.0817  0.1454  0.0784
23272W        W66288  27.128  20.418   5.935  0.1013 -0.1809  0.1534
23273W        W66289  31.668  10.560   5.558 -0.2177  0.0077 -0.2190
23274W        W66290  22.336  13.155  27.068  0.0387 -0.0663 -0.0670
23275W        W66291   0.324   0.051  23.194 -0.2119 -0.2055 -0.2928
23276W        W66292   7.337   1.535  25.248  0.1341 -0.0284 -0.2148
23277W        W66293   3.350   6.330   8.465 -0.0129 -0.0497  0.3353
23278W        W66294  27.307  12.777   8.560 -0.0785  0.0165 -0.1992
23279W        W66295  24.867  34.512   5.997 -0.0746 -0.1425 -0.1754
23280W        W66296  28.130  23.072  27.943  0.2208  0.0875  0.0891
23281W        W66297  26.367   8.865   3.088 -0.2226 -0.1309  0.0580
23282W        W66298  32.501   7.605   1.999 -0.1673  0.0471  0.0401
23283W        W66299  16.461   5.862  10.898 -0.2415  0.2677  0.0829
23284W        W66300  26.869  16.092   5.787 -0.1372  0.1380 -0.0836
23285W        W66301  23.045  15.222   8.092  0.1495  0.2208  0.0150
23286W        W66302  28.164   8.760   3.518 -0.2262  0.4044  0.0465
23287W        W66303  33.293  21.527   2.440 -0.1196 -0.0122 -0.0337
23288W        W66304  34.482   9.708   7.605 -0.0616  0.0987  0.0828
23289W        W66305   1.083   3.622   2.623  0.1306  0.1546 -0.0965
23290W        W66306  26.237  15.440   2.317  0.3164  0.0457 -0.2106
23291W        W66307  34.685  10.337   3.827 -0.0060 -0.0769 -0.1591
23292W        W66308  17.681  30.334   9.855 -0.1895 -0.0196  0.0424
23293W        W66309  28.767  13.995   8.140  0.0272  0.1826  0.0009
23294W        W66310  33.838   0.967   1.079 -0.3193 -0.0710  0.0868
23295W        W66311  25.246  14.231  24.759 -0.3554  0.2989 -0.0313
23296W        W66312  23.142  20.768   1.645  0.0757 -0.1011  0.2279
23297W        W66313  33.262  18.353  27.464 -0.3403  0.4986 -0.1665
23298W        W66314  29.523   1.822  25.672  0.1023  0.2028  0.2869
23299W        W66315  28.679  20.653   1.596 -0.1041  0.1826 -0.1244
23300W        W66316  30.942  12.487   3.153  0.1486  0.3590  0.0297
23301W        W66317  23.508  10.734  14.166  0.3208  0.0415 -0.1306
23302W        W66318   9.982  29.109  15.338  0.1338 -0.1241  0.1600
23303W        W66319  17.606  12.911   3.428  0.0284  0.1201 -0.0934
23304W        W66320  21.433   8.000   1.943  0.0386 -0.3848 -0.3368
23305W        W66321   2.915  19.575   6.308 -0.0694 -0.0441  0.0105
23306W        W66322  16.420  28.813  27.755 -0.1527  0.2590 -0.0027
23307W        W66323  33.465   9.833   4.670 -0.0233  0.1095  0.0731
23308W        W66324   8.719   6.893   2.691  0.2475 -0.2507  0.1900
23309W        W66325  27.944  17.612   4.943 -0.0123  0.1316  0.3153
23310W        W66326  28.980  29.430   9.048  0.1860  0.1500  0.0244
23311W        W66327  25.204  14.913   8.861 -0.1109  0.0711 -0.1598
23312W        W66328  28.961  13.430   8.688  0.0289 -0.0388  0.0451
23313W        W66329  26.086  29.896   5.626  0.0972  0.4243  0.0037
23314W        W66330  14.111  23.150   1.089 -0.1689 -0.1774 -0.2487
23315W        W66331   1.366  21.900   7.701  0.1966 -0.0633 -0.1068
23316W        W66332  22.408  14.554   6.447 -0.2427 -0.2698 -0.1948
23317W        W66333  17.370  14.409   6.488  0.1373 -0.0494  0.3168
23318W        W66334  27.152   5.575   0.284 -0.2744  0.0188  0.2125
23319W        W66335   5.988  34.149   7.590 -0.0074  0.2559 -0.5397
23320W        W66336  19.777  19.306  27.344 -0.0310  0.1583  0.1159
23321W        W66337   1.468   9.373   6.486 -0.2243  0.0302 -0.4056
23322W        W66338  22.933  19.126   3.445 -0.1203  0.0778 -0.2461
23323W        W66339  27.195  21.586   8.770  0.0659  0.0131  0.1618
23324W        W66340  28.474   5.603   4.459  0.2050 -0.4157 -0.1883
23325W        W66341   9.197   4.733  28.093  0.0892  0.1582 -0.1925
23326W        W66342  22.304  15.220   0.265  0.1269  0.0141 -0.0476
23327W        W66343   8.637  10.449   9.229 -0.2759  0.5690  0.2594
23328W        W66344  31.399  34.166   5.570 -0.2090 -0.1502  0.2031
23329W        W66345   6.115  34.620  26.255  0.0525 -0.1280  0.0735
23330W        W66346  10.832  12.230   4.660  0.5875  0.0229 -0.1234
23331W        W66347  13.505   8.885   6.654 -0.0921 -0.0092 -0.0510
23332W        W66348   6.075  13.950  27.945  0.0827  0.2981 -0.2160
23333W        W66349  28.827  28.361  27.107  0.1887  0.1348 -0.1450
23334W        W66350  18.542  24.660   5.872 -0.0126  0.1787 -0.2396
23335W        W66351   4.057  25.491   3.784  0.0496 -0.0332  0.0297
23336W        W66352  11.976  13.317  26.946 -0.1462 -0.0082 -0.0832
23337W        W66353  23.919  14.820   3.249  0.0660 -0.0697 -0.0609
23338W        W66354  29.051  24.067   4.304 -0.2794  0.0841 -0.0239
23339W        W66355   7.409  17.651  20.518 -0.1224  0.0330 -0.2154
23340W        W66356  10.198  15.840   8.075  0.0696 -0.1047 -0.0073
23341W        W66357  24.864  11.445   7.428 -0.0919 -0.1891 -0.0011
23342W        W66358  21.580  18.888  16.804 -0.1300  0.2422  0.0289
23343W        W66359   2.681  10.236   6.152 -0.2844 -0.1109 -0.1949
23344W        W66360  19.534   9.204  28.125  0.1309 -0.1716  0.1051
23345W        W66361   8.544  11.842   6.454  0.1230 -0.4861  0.2683
23346W        W66362   3.869   1.781  26.862 -0.1123 -0.2617  0.1179
23347W        W66363  23.709   9.459   4.919  0.0005 -0.1283  0.1249
23348W        W66364  10.942  18.552   1.952  0.3015 -0.1950 -0.1736
23349W        W66365   1.453  24.692  27.894  0.1360 -0.3246 -0.3504
23350W        W66366   6.723  21.217   3.630  0.2792  0.1127  0.0287
23351W        W66367  18.313  26.750   2.501  0.0426  0.2079  0.2395
23352W        W66368  30.861  26.201   8.011  0.0831  0.0941 -0.0854
23353W        W66369  25.884  22.737   6.256  0.0088  0.3150 -0.0956
23354W        W66370  29.509   8.061   0.218 -0.1150 -0.0735  0.0165
23355W        W66371  27.296   8.640  19.131  0.1200  0.0570  0.1475
23356W        W66372  16.056  10.893  26.572 -0.0867  0.4308 -0.0741
23357W        W66373  19.500  18.975   6.591 -0.0878 -0.1974 -0.2974
23358W        W66374  10.792  12.499  21.191  0.1418 -0.0658 -0.1257
23359W        W66375  16.512  10.447  25.041  0.2885 -0.0078  0.3645
23360W        W66376  23.319  16.866  25.001  0.1683  0.0944 -0.0652
23361W        W66377  24.434  21.573   9.158  0.2680  0.0098 -0.0230
23362W        W66378   1.299  20.401   1.518 -0.2265 -0.0190 -0.0886
23363W        W66379  21.060  13.180   5.173  0.0320 -0.1143  0.3003
23364W        W66380   0.561  17.491   4.448 -0.0156 -0.0944  0.1147
23365W        W66381   9.094  23.696   0.292 -0.1324  0.0643 -0.2459
23366W        W66382  22.613  23.602  14.830  0.2303  0.0815 -0.0776
23367W        W66383  18.007  20.323   3.785 -0.1408  0.0977 -0.0694
23368W        W66384  23.235   8.559   8.981  0.0234 -0.2515  0.2199
23369W        W66385  13.519  28.720   8.557  0.3275 -0.0603  0.0539
23370W        W66386  24.119   3.554   8.500 -0.0641  0.2099 -0.2054
23371W        W66387  33.003  34.411  24.090  0.1074 -0.0996 -0.1867
23372W        W66388  11.889   6.690   9.250  0.2939 -0.0701  0.0183
23373W        W66389   6.631  34.134   3.845 -0.4167  0.2557 -0.0497
23374W        W66390  32.103   9.664   9.099  0.1860 -0.3496  0.0593
23375W        W66391  12.335   0.590  10.612 -0.4617 -0.2827 -0.0042
23376W        W66392  18.130  13.341   6.784 -0.0325 -0.0016  0.0594
23377W        W66393  32.670   4.017   2.162 -0.1333 -0.0012 -0.0272
23378W        W66394  34.516  13.402   6.728 -0.0131  0.2062 -0.1141
23379W        W66395  32.400  24.798   7.730 -0.1212  0.3034 -0.0829
23380W        W66396  29.832  27.483   7.501  0.3927  0.0173 -0.1231
23381W        W66397   3.880   9.393   8.584  0.1129 -0.0682 -0.1189
23382W        W66398   8.897   9.451   1.680  0.3761 -0.1721 -0.1191
23383W        W66399  22.681   6.660   6.951  0.0327  0.1499 -0.1559
23384W        W66400  14.890   7.549   9.252 -0.3770 -0.0627  0.3172
23385W        W66401  21.852   5.601   7.663 -0.2768  0.1936  0.0924
23386W        W66402  24.373  17.657   4.926 -0.0899 -0.3369 -0.0928
23387W        W66403  27.637  14.571   4.855 -0.0260  0.0122 -0.1556
23388W        W66404  22.392   5.949   8.671  0.1436 -0.0163 -0.1455
23389W        W66405  24.237  14.002  26.872  0.4612 -0.1713  0.5324
23390W        W66406   2.054  13.175   4.532  0.0765  0.1468  0.1465
23391W        W66407  23.930  26.003   9.091  0.3183  0.1435 -0.0116
23392W        W66408   5.448   8.667   4.794  0.2632  0.0699  0.1170
23393W        W66409  20.160  14.283   4.052  0.1162 -0.0019  0.0933
23394W        W66410  19.331  25.934   7.862 -0.1667  0.1148 -0.1047
23395W        W66411  34.373   9.489  28.674  0.0351 -0.2066 -0.1271
23396W        W66412  25.336  10.751   2.307  0.2936  0.2389  0.0005
23397W        W66413  21.245  11.639   3.303 -0.0814  0.1424  0.3596
23398W        W66414  14.824  12.158  25.857 -0.0438  0.1872  0.2730
23399W        W66415  29.402  16.919   5.981 -0.1018  0.2618 -0.0302
23400W        W66416   6.884  25.130  27.512  0.0433 -0.0818 -0.2773
23401W        W66417  30.895   4.737   6.471  0.1488 -0.0276 -0.2029
23402W        W66418  16.327  31.334   7.354  0.2167 -0.0852 -0.1104
23403W        W66419  26.626   8.026   3.381  0.2867  0.0497 -0.1848
23404W        W66420  19.029   2.452   3.961 -0.1783  0.0665  0.2978
23405W        W66421  19.165  12.243  26.021 -0.3127 -0.0045 -0.1041
23406W        W66422   4.108  13.901  28.749  0.2531  0.1491 -0.1224
23407W        W66423  20.915   4.861   7.241 -0.2917 -0.3471  0.0930
23408W        W66424  29.205  31.278   6.429 -0.3444  0.1934 -0.0293
23409W        W66425  22.130  13.731   2.491  0.0870  0.0202  0.0304
23410W        W66426   3.607  22.242  26.782 -0.1324 -0.3455  0.4584
23411W        W66427  16.476  20.907   8.242 -0.1734  0.1283 -0.0956
23412W        W66428   9.749   6.624  28.072  0.1512 -0.0519 -0.0030
23413W        W66429  26.686  24.640   7.402  0.0507 -0.0657  0.1117
23414W        W66430  22.498  17.324   1.627  0.1483  0.2481 -0.1226
23415W        W66431  33.320  12.655   7.312  0.1279  0.0267  0.0024
23416W        W66432  27.834  12.884  28.187  0.0445 -0.1174  0.2485
23417W        W66433  15.134  14.763  27.118 -0.2378  0.3936  0.0714
23418W        W66434  26.209  15.505   6.238  0.0246  0.1927  0.2729
23419W        W66435  26.492  14.293  22.775 -0.3137  0.0500 -0.2010
23420W        W66436   4.814  21.948   8.386  0.0130 -0.1244 -0.0093
23421W        W66437  26.548  10.270   5.040  0.0824  0.1044  0.2334
23422W        W66438  33.442  13.828   2.952  0.5970 -0.1394 -0.0728
23423W        W66439  21.410  16.104   5.376 -0.4198 -0.0623 -0.0002
23424W        W66440  16.453   8.286  24.665 -0.0097  0.0631 -0.0998
23425W        W66441  19.409  16.939   4.127  0.0030 -0.2799 -0.1280
23426W        W66442  23.274  33.142   8.986 -0.0940  0.4176 -0.2395
23427W        W66443  10.008   3.696   6.691  0.3895 -0.0621 -0.1637
23428W        W66444  15.019  24.662   3.778  0.1672 -0.0004 -0.1138
23429W        W66445  20.629  18.223   5.795 -0.4041  0.0976 -0.0060
23430W        W66446  23.231  20.891  26.838  0.0383 -0.2662  0.0585
23431W        W66447  27.967  14.501  28.951 -0.2228 -0.0055  0.2615
23432W        W66448  21.371  33.085   3.919 -0.1205  0.2154  0.1888
23433W        W66449   3.999  29.687  15.050 -0.2401  0.0004 -0.2160
23434W        W66450   8.475   6.496  16.581  0.3056  0.1179  0.0993
23435W        W66451  21.947  33.991   5.730 -0.1199 -0.2050 -0.0709
23436W        W66452  26.708  24.165   7.005 -0.2867 -0.1724 -0.0361
23437W        W66453  21.195  10.913  28.069  0.3175 -0.1022  0.1662
23438W        W66454  13.878  23.228   8.018 -0.2428  0.1483  0.0553
23439W        W66455  34.686   2.039   1.065  0.1395 -0.2489 -0.0982
23440W        W66456  28.076  14.100   3.582  0.2354  0.0528  0.2959
23441W        W66457  19.936  33.725   5.978 -0.1583  0.0632  0.3318
23442W        W66458  16.181  10.299   6.897  0.0510  0.1879 -0.0022
23443W        W66459  29.971  13.241   3.313 -0.1310 -0.4225  0.2084
23444W        W66460  24.523   8.371   5.334 -0.3661  0.0626  0.3105
23445W        W66461  24.964  14.906   6.784 -0.2108  0.0114 -0.0276
23446W        W66462  30.373  23.255   7.217 -0.0930  0.3035 -0.3042
23447W        W66463  27.524  10.158   7.267  0.2504 -0.3137 -0.2005
23448W        W66464  15.742   6.189  27.518 -0.0522 -0.0172 -0.2146
23449W        W66465  20.851   3.148   4.342  0.3401 -0.1577  0.2050
23450W        W66466  27.682  21.762   7.347 -0.3237  0.2961  0.0470
23451W        W66467  30.910  28.315   7.518 -0.1791 -0.3157 -0.0316
23452W        W66468  16.924  33.099  23.600 -0.2385  0.3403  0.2537
23453W        W66469  19.019  31.728   9.275 -0.0303 -0.0800 -0.0267
23454W        W66470  33.663   6.193   0.769 -0.0644 -0.2297  0.0036
23455W        W66471  18.269   5.011  27.222  0.1534  0.2791 -0.0411
23456W        W66472  12.647  17.167   6.454 -0.0726 -0.0430 -0.1001
23457W        W66473   4.582   4.702   6.542 -0.2587 -0.1012  0.0327
23458W        W66474  26.475  17.237  27.380  0.5282 -0.1901  0.1783
23459W        W66475  34.364  10.794   9.128 -0.1508  0.2950  0.0170
23460W        W66476  17.183  28.256   3.884  0.0500 -0.3800  0.0883
23461W        W66477  17.728  31.100   6.120 -0.1384 -0.1663 -0.0259
23462W        W66478   5.247  12.714   8.434  0.3115 -0.2237  0.1092
23463W        W66479  33.060  15.064   3.244 -0.0170 -0.0955  0.1801
23464W        W66480  17.553   8.297   7.954 -0.0868  0.0139 -0.1845
23465W        W66481   1.140  31.310   6.424 -0.0755  0.0427  0.0365
23466W        W66482  12.750  28.829  10.263 -0.2511  0.1045 -0.0432
23467W        W66483   3.938  13.603   6.187 -0.1259  0.1274  0.0448
23468W        W66484  28.089  21.401   5.029 -0.1928 -0.2774  0.1884
23469W        W66485  30.010  23.194   4.532 -0.1476  0.1649 -0.0834
23470W        W66486   2.908   8.427   8.602  0.1625 -0.1351 -0.2380
23471W        W66487  14.239   7.799   5.855  0.0560  0.1089 -0.0376
23472W        W66488   9.442  13.828   3.002 -0.0220  0.1928  0.1408
23473W        W66489  32.411   7.426   5.270 -0.1927 -0.1893 -0.0395
23474W        W66490  14.188  19.271  28.752 -0.3520  0.2075  0.2298
23475W        W66491  21.921  16.226   8.460 -0.0220 -0.0038 -0.1629
23476W        W66492  19.168  12.538   0.837  0.2729 -0.0436  0.0117
23477W        W66493   7.541   4.106   3.725  0.2683 -0.1288 -0.0906
23478W        W66494  29.743  23.924   8.878  0.4264  0.1159 -0.2106
23479W        W66495  23.520   7.012   6.529 -0.1572 -0.2416 -0.0190
23480W        W66496  28.486   4.328  26.179 -0.1674  0.2503 -0.1746
23481W        W66497  22.543  10.206  27.154  0.0728 -0.0311 -0.2707
23482W        W66498  17.410   2.685  22.694  0.2658 -0.0868  0.3393
23483W        W66499  32.671   9.357   9.656  0.0626 -0.1391 -0.5219
23484W        W66500  22.524  15.999  28.391  0.3750  0.1878  0.4631
23485W        W66501  18.824  10.344   6.961 -0.1899 -0.1375  0.0481
23486W        W66502  27.295   8.682   9.655  0.1749 -0.2273 -0.0341
23487W        W66503  21.817   7.739  28.946  0.1918  0.3437 -0.2174
23488W        W66504  12.978  21.623   4.121  0.3922  0.2622  0.0477
23489W        W66505  28.269  23.863  23.781  0.2028  0.1006 -0.1272
23490W        W66506  32.066  24.688  16.852  0.4631  0.0912 -0.0833
23491W        W66507  21.987   3.450   9.970 -0.2754  0.0962  0.0795
23492W        W66508  22.842  11.039   0.955  0.1695 -0.0315 -0.0682
23493W        W66509  26.056  31.055   6.267  0.0318  0.3773 -0.1557
23494W        W66510  21.547  30.922   8.727 -0.1826  0.0927  0.1757
23495W        W66511  11.970   7.104  17.488 -0.1308  0.3005  0.0203
23496W        W66512  23.019   8.531   3.633  0.1519 -0.0288  0.1861
23497W        W66513   8.631   6.418  26.695  0.2427  0.0647  0.1124
23498W        W66514  17.684  18.120  22.029  0.0125 -0.2566 -0.0913
23499W        W66515  13.806   7.695   9.600 -0.0233 -0.2709  0.3965
23500W        W66516  30.433  19.737   8.373 -0.1415  0.3978  0.0585
23501W        W66517  31.418   7.805  27.826 -0.0481 -0.2499  0.0782
23502W        W66518  20.905  19.464   6.558  0.0156 -0.0548 -0.0084
23503W        W66519   1.823  16.809   9.201 -0.4714  0.2827 -0.0573
23504W        W66520  34.768  19.834   6.150  0.0867 -0.0282 -0.3439
23505W        W66521  18.326   3.790  25.727  0.2083 -0.1810 -0.0781
23506W        W66522  23.598  19.853   3.355 -0.0034  0.1624  0.1219
23507W        W66523  25.731   9.449   3.523 -0.0355 -0.1410 -0.0110
23508W        W66524  34.462   5.636   7.783 -0.1056  0.0859  0.2035
23509W        W66525  31.086   2.364   4.952  0.2572  0.1642  0.0500
23510W        W66526  29.025  20.018   7.455 -0.1502 -0.3184  0.0454
23511W        W66527  33.703   6.674   4.207 -0.2700  0.4416  0.3020
23512W        W66528  29.342  14.897  10.224  0.4071 -0.0198  0.0391
23513W        W66529  28.093  21.971   4.301  0.0841  0.3841 -0.0177
23514W        W66530  33.222  15.390   7.840 -0.2653  0.0172 -0.1105
23515W        W66531  31.966   3.053  28.106  0.0899 -0.0787  0.0067
23516W        W66532   0.288  27.558  24.658 -0.1279  0.2005 -0.0872
23517W        W66533   0.150  21.443  29.170 -0.0103 -0.1680  0.0710
23518W        W66534  27.780  26.062  21.425  0.1621  0.0531  0.0193
23519W        W66535  14.366   2.896   1.780  0.0819 -0.0173 -0.0136
23520W        W66536  28.914  27.546   8.807 -0.3420 -0.2914  0.1205
23521W        W66537   2.964  21.122   5.966  0.1353  0.0229  0.2526
23522W        W66538  18.953   9.669   6.223  0.1592 -0.0101  0.1523
23523W        W66539   0.284  28.850   0.991 -0.0946  0.1067  0.1462
23524W        W66540  28.992   4.567  22.067  0.2583 -0.2530 -0.3786
23525W        W66541  28.514  25.906   1.662  0.0459  0.1662  0.1245
23526W        W66542  18.946  15.827   6.900 -0.0158  0.2657 -0.0769
23527W        W66543   1.255  14.616   0.050  0.0614  0.1697  0.1372
23528W        W66544  21.117  15.269   4.540  0.2329 -0.1102  0.1715
23529W        W66545  24.782  14.943   9.211  0.0595 -0.1433  0.2818
23530W        W66546  25.564  20.106  25.617 -0.0997 -0.1291  0.2083
23531W        W66547  21.053  21.581  19.194 -0.0664  0.3166  0.2546
23532W        W66548  27.594  11.295   9.769 -0.0961 -0.0221 -0.0660
23533W        W66549   2.318   0.944   6.959 -0.1343  0.1697  0.0302
23534W        W66550  31.491  25.163  10.814  0.0596  0.0608 -0.2312
23535W        W66551   0.404  28.360   7.373  0.0152 -0.0081  0.1100
23536W        W66552  16.232  18.786   3.533  0.1963 -0.0390  0.1076
23537W        W66553  11.874  14.632   5.891  0.0888  0.0189  0.0631
23538W        W66554  26.181  24.446   9.528 -0.0666  0.3235  0.0439
23539W        W66555  34.480   3.272   8.531 -0.2788  0.2220  0.1971
23540W        W66556  28.624  17.389  24.483 -0.0858  0.0896 -0.1654
23541W        W66557  22.707   9.396   6.417  0.0463 -0.0645  0.1032
23542W        W66558  32.728  12.716   8.989  0.1105  0.1900  0.1739
23543W        W66559  23.478  17.343  26.406  0.0348  0.2439  0.1418
23544W        W66560  29.756   8.523  27.367 -0.0949  0.2867  0.0855
23545W        W66561  13.559  12.477  18.527  0.3243 -0.0240  0.1108
23546W        W66562  30.252  10.958  27.122  0.0519 -0.3295  0.1078
23547W        W66563  12.529  18.344  19.313 -0.2135  0.0493 -0.0611
23548W        W66564  22.751  27.553  25.332 -0.2744  0.3704  0.1231
23549W        W66565   0.324  20.605   9.303  0.0255 -0.2335 -0.1039
23550W        W66566  16.044   3.210  25.209 -0.0430  0.0828 -0.3217
23551W        W66567  30.781  22.404   5.154  0.0804  0.1020 -0.0837
23552W        W66568  32.976  25.233   1.411 -0.2121 -0.2320 -0.1815
23553W        W66569  34.623  12.682   1.882 -0.1588  0.0885  0.1218
23554W        W66570  17.086  18.725  28.621 -0.3711  0.2948  0.1154
23555W        W66571  34.483  31.599   8.660 -0.0469  0.1200  0.0335
23556W        W66572  26.120  15.132  13.932 -0.2388 -0.0518 -0.2580
23557W        W66573   1.731  24.172  18.949 -0.2099  0.0889  0.1079
23558W        W66574  21.840   9.155  26.330 -0.3173  0.2198  0.0475
23559W        W66575  26.250  29.533  18.241  0.0147 -0.0431 -0.2421
23560W        W66576  22.912  26.929   4.187 -0.0467  0.2595  0.0416
23561W        W66577  29.125  12.973   2.882  0.2378 -0.0894  0.0550
23562W        W66578  28.194  28.592   9.800 -0.1498  0.4146  0.1544
23563W        W66579  24.727  12.829   8.119 -0.5242 -0.1483 -0.1187
23564W        W66580  24.370   7.069   9.152 -0.1407  0.1585  0.2691
23565W        W66581  17.261  33.845  25.464 -0.2156  0.1018  0.0254
23566W        W66582  22.000  29.504   5.402 -0.2586  0.0345 -0.0031
23567W        W66583   8.264  20.279   5.502  0.0904  0.0258 -0.0530
23568W        W66584  27.711   9.385   3.057 -0.2196 -0.0890  0.2311
23569W        W66585   2.185  15.930   9.524  0.2209  0.3544  0.0948
23570W        W66586  21.955  22.736  24.477  0.0948  0.0899  0.2174
23571W        W66587  31.202  31.868   1.886 -0.2188 -0.1029 -0.4282
23572W        W66588  34.521  27.715   0.550  0.0630 -0.3336  0.1215
23573W        W66589   4.471  25.612   4.460  0.1477  0.3274  0.2732
23574W        W66590  10.106  20.675  20.972 -0.1804  0.0722  0.1311
23575W        W66591  13.924  10.841   2.665 -0.0768 -0.0981  0.1927
23576W        W66592   9.739  13.660  28.315  0.2892 -0.3289  0.1121
23577W        W66593  21.261  20.463   9.630  0.0701 -0.3333  0.2476
23578W        W66594  33.561  22.691   4.222  0.0544 -0.1671  0.0535
23579W        W66595  30.587   3.916  24.345 -0.2796 -0.6281 -0.1348
23580W        W66596  34.600  12.867   9.068  0.1420 -0.0191 -0.0322
23581W        W66597  18.439  21.751   3.930 -0.1836  0.0988  0.1995
23582W        W66598  33.179  23.304   0.456  0.2020 -0.4097  0.1987
23583W        W66599  28.596  13.011  15.032  0.0010 -0.3014  0.1341
23584W        W66600  23.011   4.937  24.583 -0.0454 -0.0644  0.0059
23585W        W66601  10.526  16.691   9.301  0.0893 -0.1568 -0.0740
23586W        W66602  33.932  21.606   8.338 -0.3384  0.2250 -0.1934
23587W        W66603  25.419  20.010   0.856  0.0980 -0.2621 -0.2812
23588W        W66604  24.388   9.191   1.544  0.3041  0.2887 -0.0622
23589W        W66605  19.205   2.209   9.897  0.2102  0.2219 -0.1306
23590W        W66606  27.244   0.832   3.547  0.1002 -0.3026 -0.0448
23591W        W66607   9.397  33.492   9.249  0.0098  0.1124  0.0788
23592W        W66608  25.911   8.656  15.815  0.0646  0.0433 -0.0358
23593W        W66609  14.550  21.057   0.682 -0.0776 -0.2587  0.1310
23594W        W66610  25.802  18.870   9.745  0.2616 -0.0253  0.1103
23595W        W66611   9.085  13.324  24.320  0.0022  0.0699 -0.0418
23596W        W66612  24.955  16.100   2.986  0.0140  0.1045  0.2186
23597W        W66613   7.865  26.019   6.018  0.1707  0.2191  0.0799
23598W        W66614  26.626  24.973   1.711 -0.3867  0.1362 -0.0783
23599W        W66615  29.713  19.070  18.905 -0.2896  0.2752  0.0188
23600W        W66616  28.270  23.195   6.445 -0.1319 -0.0100  0.0197
23601W        W66617  27.940  25.822   6.192 -0.1288  0.0066 -0.3367
23602W        W66618   1.241  18.145  21.133 -0.0026 -0.1327  0.0643
23603W        W66619  17.374  22.646   6.239 -0.0562 -0.1650 -0.1031
23604W        W66620  17.725   8.058   4.250 -0.1813  0.0821  0.0928
23605W        W66621  10.283  10.800  17.599 -0.0999 -0.2257  0.2626
23606W        W66622  22.158   9.607  23.152 -0.1184 -0.3540  0.1327
23607W        W66623   8.035  18.258  28.110 -0.2277  0.0423 -0.2709
23608W        W66624  23.025   3.373   4.074 -0.1548 -0.2357 -0.2546
23609W        W66625  27.479   8.684  19.930 -0.2107  0.1520  0.0902
23610W        W66626  18.715   9.475   3.518 -0.2909  0.2405  0.0010
23611W        W66627  20.400  31.330   3.752 -0.1430 -0.2132 -0.0259
23612W        W66628  28.367  12.155  21.289 -0.2451 -0.2795  0.1512
23613W        W66629  34.583  13.067   2.624 -0.0883 -0.3871  0.1070
23614W        W66630  15.003   8.888   4.297 -0.1336  0.1058  0.0007
23615W        W66631  22.828   5.754  23.438 -0.1879  0.4999 -0.0175
23616W        W66632  14.132   6.887   2.710 -0.1124  0.1466 -0.1680
23617W        W66633  14.925  12.612  19.878 -0.0610 -0.1449 -0.2127
23618W        W66634  12.566  15.978  22.625  0.0678  0.0921 -0.1086
23619W        W66635  19.228   6.579   7.248 -0.0457 -0.0543 -0.0918
23620W        W66636   2.259  17.751  28.560 -0.1834  0.2305 -0.3048
23621W        W66637  12.554  33.880  26.885  0.1043 -0.1362  0.2111
23622W        W66638  28.499   7.131   2.907  0.0711 -0.3875 -0.1609
23623W        W66639  29.267  20.973  24.183 -0.0309  0.1945 -0.0492
23624W        W66640  18.046   8.494   7.343  0.1099 -0.3150 -0.0820
23625W        W66641  22.853  30.832  26.671 -0.1653 -0.2245 -0.1643
23626W        W66642  29.675  14.026   0.896  0.0087 -0.1121 -0.2898
23627W        W66643  32.222  18.849   9.034 -0.1066 -0.0841  0.4472
23628W        W66644  18.480  20.951  25.458 -0.0261  0.2004 -0.1123
23629W        W66645   4.862  23.938  17.020  0.2797  0.0631 -0.0391
23630W        W66646  19.427  16.087   2.986  0.3784  0.0818 -0.1041
23631W        W66647  14.668  34.704  25.859 -0.1882 -0.1752 -0.1233
23632W        W66648  27.285   5.595   3.171 -0.2679  0.1106  0.1512
23633W        W66649  26.468  17.118   8.986 -0.1138  0.3108 -0.1204
23634W        W66650  14.483  21.279   0.262 -0.0355 -0.0685 -0.0136
23635W        W66651  19.553  11.564  26.206  0.0470  0.1437  0.4588
23636W        W66652   2.232   4.524   5.846  0.0044  0.3484 -0.0564
23637W        W66653   1.083  13.104   1.411  0.2066  0.0158 -0.2426
23638W        W66654  23.825  12.367  17.578 -0.0635 -0.0816  0.2896
23639W        W66655  34.218  10.957   2.342  0.2342  0.0754 -0.0459
23640W        W66656  25.683  13.302  25.783 -0.1512  0.0625 -0.0854
23641W        W66657  22.820  24.773   0.381 -0.1881  0.1902  0.0425
23642W        W66658  34.402  24.639  28.078  0.3330  0.1991  0.1956
23643W        W66659  31.238  31.399  27.704  0.0381  0.4102  0.0244
23644W        W66660   1.102   4.508   3.614  0.1732 -0.0383  0.2188
23645W        W66661  16.245  16.040   0.661 -0.2204 -0.1518 -0.1594
23646W        W66662  26.943  13.382   5.694 -0.1002  0.3311  0.1505
23647W        W66663  24.957  13.250  24.728 -0.0041 -0.1575 -0.1874
23648W        W66664  10.981  11.042  21.597  0.1674 -0.2255  0.3027
23649W        W66665  27.023  14.531  20.456 -0.0673 -0.0527  0.4445
23650W        W66666  18.037   9.656  25.286 -0.2664 -0.1231  0.1279
23651W        W66667  20.396  11.537  14.863 -0.2987  0.1413  0.1517
23652W        W66668  21.889  19.955   4.823  0.1790 -0.1641 -0.0296
23653W        W66669  34.079  18.247  28.156  0.1520  0.3911 -0.4441
23654W        W66670  24.207  11.270   8.658  0.0959 -0.0377 -0.1842
23655W        W66671   7.340  21.494  17.582  0.0817 -0.1628 -0.1794
23656W        W66672  32.575   6.966   4.012 -0.2426  0.1895 -0.2002
23657W        W66673  33.489  21.883  10.208  0.0949 -0.2326 -0.2950
23658W        W66674  27.960  19.591  21.403  0.2035 -0.0699 -0.0647
23659W        W66675   4.421  33.437  26.835  0.1661 -0.2237 -0.1859
23660W        W66676  27.305  22.323   9.252 -0.0371 -0.3231  0.0558
23661W        W66677  21.938  34.685   4.467  0.0290  0.0655 -0.0419
23662W        W66678  23.335  23.692   9.933  0.1854 -0.1298  0.1523
23663W        W66679  29.717   5.091   4.709  0.1658 -0.5768 -0.1497
23664W        W66680  23.257  10.947   7.782  0.0931  0.1621  0.1572
23665W        W66681   1.779   7.376  18.591 -0.0081  0.0764  0.1249
23666W        W66682  21.926  22.745  23.228 -0.0845 -0.2003 -0.1654
23667W        W66683  19.616  28.536   9.411  0.0930 -0.2322  0.0310
23668W        W66684  32.073  17.510   4.726  0.0587  0.1384  0.1227
23669W        W66685  33.107   2.668   4.212  0.1795  0.1772  0.0161
23670W        W66686  32.811  31.096  24.375  0.0699 -0.0896  0.0751
23671W        W66687  27.228  10.130  19.933 -0.0218  0.1085  0.0431
23672W        W66688  26.224  14.033  23.131  0.0566 -0.1132 -0.2293
23673W        W66689   5.093  21.000   5.736 -0.4219 -0.1033 -0.0299
23674W        W66690  29.654  11.431  29.133  0.2500 -0.0388  0.2003
23675W        W66691   9.276  29.979  26.989  0.0120  0.3013 -0.2878
23676W        W66692   5.112  25.388   9.218  0.3182 -0.0468  0.2500
23677W        W66693  33.284  21.160  26.817  0.1496 -0.0583  0.1737
23678W        W66694   5.040  15.434   1.537 -0.1454  0.0951  0.0301
23679W        W66695   4.151  18.995  26.986  0.4197 -0.4421 -0.0382
23680W        W66696  24.971  13.328  25.243  0.1682  0.2484 -0.1320
23681W        W66697  29.137  29.747  16.729 -0.0435  0.0700 -0.2359
23682W        W66698  21.687  16.143   7.254  0.1641 -0.0764  0.0598
23683W        W66699  11.345  12.320   1.583 -0.2072 -0.0288  0.0588
23684W        W66700  10.687  22.103  14.232 -0.0346  0.0142 -0.2347
23685W        W66701  24.423  10.234   8.244  0.1577 -0.0623 -0.0549
23686W        W66702  33.337  19.776  23.749 -0.4623 -0.1422  0.2828
23687W        W66703  32.389  21.258  27.840 -0.0718  0.0042 -0.0632
23688W        W66704  25.097  19.975   3.652 -0.0374  0.2794 -0.0102
23689W        W66705  30.658  13.527  24.188 -0.2258 -0.0180  0.1564
23690W        W66706  15.679   0.439  27.432 -0.0609  0.0777 -0.2478
23691W        W66707  21.581  30.850  28.019  0.1260 -0.0808  0.0657
23692W        W66708  31.798  29.784  28.226  0.0589  0.3319  0.2740
23693W        W66709  33.253  19.936   5.925  0.0361  0.1231 -0.0433
23694W        W66710   5.602  33.338   1.461  0.0255 -0.4481  0.2776
23695W        W66711   4.235   9.867   2.124 -0.3233 -0.0341 -0.0733
23696W        W66712   5.596  20.101  25.067  0.1928  0.1861  0.0790
23697W        W66713  29.893  25.112  17.279  0.4112 -0.2828 -0.0680
23698W        W66714  11.149   2.546  15.240 -0.1071  0.2851 -0.0974
23699W        W66715  19.738  20.377  27.494  0.2790 -0.0261 -0.0738
23700W        W66716  16.403  19.013  26.116  0.0830  0.1552 -0.0282
23701W        W66717  30.344  23.959   9.645  0.3731 -0.2591  0.0683
23702W        W66718   3.470   9.265   9.106  0.1951 -0.1244 -0.0418
23703W        W66719  20.857   5.870  17.273  0.1270 -0.1853 -0.0979
23704W        W66720  24.000  33.385   7.739 -0.0819  0.2725  0.2133
23705W        W66721   8.376   5.042   4.233 -0.0555  0.0661 -0.2411
23706W        W66722  17.480  15.030   2.959 -0.2083  0.0308  0.0099
23707W        W66723  27.897  10.394  10.446 -0.0326  0.3411  0.2252
23708W        W66724  26.991   5.445  23.644  0.2918 -0.4737 -0.2167
23709W        W66725  27.462  18.100   3.746 -0.0219 -0.0357  0.3214
23710W        W66726  20.160  29.172   3.328  0.0010 -0.0161 -0.1807
23711W        W66727  24.958   7.653  22.080 -0.0272  0.0550 -0.2419
23712W        W66728  26.027  13.242  28.861  0.2719 -0.0008 -0.0694
23713W        W66729  20.890   5.652   3.798 -0.0097 -0.1365 -0.0081
23714W        W66730  26.775   7.730  17.077 -0.1940 -0.0203  0.2109
23715W        W66731  17.263  26.266   7.204 -0.0834  0.0327  0.3858
23716W        W66732   3.946  33.970   1.460 -0.2246  0.0527 -0.0518
23717W        W66733  26.612   2.396  19.992  0.1588 -0.2692 -0.0508
23718W        W66734  24.174  19.162   9.055  0.0644  0.3117  0.1650
23719W        W66735   0.872  26.419   0.852 -0.0347  0.2142 -0.3082
23720W        W66736  29.373  34.300  25.028 -0.1475 -0.1292 -0.0040
23721W        W66737  29.177  14.805  27.710  0.0538  0.1597 -0.1692
23722W        W66738  32.849  30.116  20.147 -0.1674  0.1913  0.0533
23723W        W66739  21.891   9.866   0.213  0.0379 -0.0842 -0.1699
23724W        W66740  14.289  14.476   3.954  0.0254  0.0128 -0.0111
23725W        W66741  21.806  32.777  24.450 -0.0401 -0.0048  0.0309
23726W        W66742  29.931  17.821  21.736  0.1389 -0.0094 -0.0857
23727W        W66743  21.071  34.610  17.216 -0.4023  0.0673 -0.0317
23728W        W66744  15.488  12.569   2.427  0.1742 -0.1699 -0.3719
23729W        W66745  25.324  28.020   6.128  0.2473  0.0612 -0.0097
23730W        W66746  25.448  19.609   1.265  0.1467  0.1109  0.0771
23731W        W66747  23.146  33.408  10.504  0.1110  0.1104  0.1917
23732W        W66748  27.508   8.296   2.542 -0.0848  0.1611  0.0413
23733W        W66749  20.084  14.331  28.223  0.0020  0.0054 -0.0323
23734W        W66750   5.596  20.525  26.537 -0.0512  0.3070 -0.2630
23735W        W66751   0.793  19.754   4.233 -0.1090 -0.0216  0.3329
23736W        W66752  26.174  17.816  29.074  0.1424  0.1473 -0.1245
23737W        W66753  24.391  20.663  21.742  0.1878  0.0528  0.2757
23738W        W66754  18.863  11.343  19.075 -0.2414 -0.0300 -0.2340
23739W        W66755  13.243  30.841   6.140  0.0787 -0.3553  0.4138
23740W        W66756  14.419   9.386   9.414 -0.0879  0.1675  0.1786
23741W        W66757  19.958   4.961  18.793 -0.2764 -0.2648  0.0736
23742W        W66758  34.069  25.762  28.954 -0.4343  0.0786  0.1547
23743W        W66759  18.424  21.691  28.674 -0.2232 -0.1921 -0.1692
23744W        W66760  31.244  21.255   3.580 -0.0933 -0.0580 -0.1841
23745W        W66761  22.454  26.371  21.345 -0.0086  0.0522  0.2210
23746W        W66762  28.985  33.409   2.484 -0.3224 -0.0836  0.1957
23747W        W66763  17.352   1.300   1.418  0.1082 -0.1247  0.0199
23748W        W66764  29.576  16.276  23.807 -0.1059  0.2078 -0.0086
23749W        W66765  18.571  28.234   4.975 -0.0180 -0.0381 -0.1519
23750W        W66766  28.988   2.472   4.299 -0.2768 -0.1134  0.2559
23751W        W66767  20.864  28.767  25.399 -0.1268 -0.0876  0.1902
23752W        W66768  21.534   3.505   9.235  0.0716 -0.2576 -0.1946
23753W        W66769  16.423  19.333  28.731 -0.0354  0.0703  0.3282
23754W        W66770  29.518  23.762  10.534 -0.3768  0.0313 -0.0168
23755W        W66771   3.431   3.212  29.291  0.2273 -0.0628 -0.3855
23756W        W66772  21.673  16.005   5.883  0.1404 -0.0093  0.3750
23757W        W66773  34.296   4.223   5.400 -0.0759  0.1847 -0.1622
23758W        W66774  20.614  25.219  18.211 -0.2689 -0.0619  0.0229
23759W        W66775  31.366  16.807   7.463  0.3970 -0.0422  0.2607
23760W        W66776  23.491  25.674  22.471  0.0831  0.1109 -0.1709
23761W        W66777  12.338  10.766   4.259  0.2711  0.0237 -0.1276
23762W        W66778  20.104   8.005   7.287  0.0460 -0.1288 -0.1626
23763W        W66779  20.650   3.950  22.315  0.0204  0.1113 -0.3536
23764W        W66780  16.328  21.760  23.030  0.1720  0.1602 -0.0780
23765W        W66781  21.924  12.901   5.198 -0.0168  0.1059  0.1059
23766W        W66782  30.934  27.906   9.631 -0.2185 -0.1328 -0.2114
23767W        W66783  13.288   4.700   5.783 -0.1858  0.2466 -0.0895
23768W        W66784   2.703   6.273  14.665 -0.0911  0.2053 -0.1019
23769W        W66785   0.604  12.532   2.388 -0.0861  0.2634 -0.0428
23770W        W66786  28.683   5.227  11.073 -0.0593  0.4323 -0.1122
23771W        W66787  24.046  31.447  22.253 -0.0366  0.2188  0.0476
23772W        W66788  24.740  33.488   5.575 -0.2649  0.0341 -0.1664
23773W        W66789   9.345  13.781  28.649  0.1885 -0.0330  0.4068
23774W        W66790  29.855  21.426   8.736  0.1991 -0.0997 -0.0343
23775W        W66791  19.493   6.420   1.128 -0.0256 -0.0008 -0.0974
23776W        W66792  19.639   5.555  22.619 -0.3163 -0.3088  0.0522
23777W        W66793   9.993  12.362  27.146 -0.2143  0.1739 -0.2675
23778W        W66794   6.649  25.561   4.475  0.0549  0.4663 -0.2676
23779W        W66795  21.386  16.838  23.122 -0.1623  0.1655  0.0585
23780W        W66796   3.783  22.562  14.977 -0.1420  0.3547  0.0814
23781W        W66797  23.695  13.083  25.400  0.1820  0.0757 -0.0881
23782W        W66798   3.859  14.978   8.672  0.1660  0.0488 -0.1242
23783W        W66799  24.984   0.909  21.389  0.1806  0.0414  0.0738
23784W        W66800  12.510   0.696   1.544 -0.0860 -0.1324  0.3505
23785W        W66801  33.302  22.818   4.644  0.3488 -0.1678 -0.1124
23786W        W66802  28.504  13.480   4.067 -0.0933 -0.0843  0.1591
23787W        W66803  10.703  16.274  26.038 -0.0281 -0.2217 -0.0921
23788W        W66804  22.938  19.360   0.321 -0.2835 -0.0196  0.3277
23789W        W66805  31.313  31.126  16.363  0.1560 -0.1322  0.0899
23790W        W66806  16.146  17.167  25.584  0.0724 -0.0526 -0.2262
23791W        W66807  15.135  16.294   6.379 -0.3636 -0.1504  0.1401
23792W        W66808  15.159  19.584   2.059  0.2146  0.0552 -0.0577
23793W        W66809  22.709  21.988  25.058 -0.0810  0.0305 -0.0863
23794W        W66810  21.529  17.635  24.948  0.1027  0.0365  0.1092
23795W        W66811  10.570  23.891  16.138 -0.2720 -0.1245  0.0237
23796W        W66812  27.864  22.389  27.963  0.4339 -0.1017 -0.1985
23797W        W66813  24.274   3.228   6.370  0.1893 -0.0999  0.0791
23798W        W66814  20.498  18.728   3.304 -0.0571 -0.4520  0.1849
23799W        W66815   0.409  16.811   0.496 -0.0427 -0.1222 -0.0163
23800W        W66816  28.562  25.726  10.961 -0.0264  0.2050  0.1932
23801W        W66817  29.889  11.070  22.831  0.1059 -0.1124  0.1836
23802W        W66818  29.194   6.046   4.695  0.1228 -0.1128 -0.3491
23803W        W66819  27.462  12.596  25.162 -0.0010 -0.0477 -0.1237
23804W        W66820  32.379   0.639  10.881 -0.5990  0.1978  0.0085
23805W        W66821   3.488   1.502  27.105  0.0418 -0.3200 -0.2524
23806W        W66822  20.404  17.459   0.104 -0.0439  0.0444 -0.0553
23807W        W66823   8.335   2.647   5.797  0.0552  0.2354 -0.1660
23808W        W66824  30.331  24.785   2.834 -0.1443 -0.0045 -0.0581
23809W        W66825   6.553   1.433   2.201 -0.0190  0.2168 -0.0413
23810W        W66826  27.440  21.339   7.281  0.0446  0.1068  0.2086
23811W        W66827  17.458   4.506  20.640  0.1107  0.1407  0.0669
23812W        W66828  16.906  30.650   1.318 -0.2912  0.1301 -0.0698
23813W        W66829  24.834  13.867  26.943 -0.1172 -0.1227 -0.0016
23814W        W66830  17.588  34.312   9.133 -0.0194  0.3520  0.0644
23815W        W66831  23.490  22.471  20.312  0.1718 -0.2781 -0.3611
23816W        W66832  17.601  16.781  26.423 -0.0726 -0.1029  0.0424
23817W        W66833  23.212  18.598  24.062  0.1676  0.0633 -0.1326
23818W        W66834   1.962  24.473   9.257  0.3170  0.0333 -0.0148
23819W        W66835  26.302  31.784   5.794 -0.1269  0.0996  0.0649
23820W        W66836  27.981   7.179   3.568 -0.2734 -0.2966  0.2814
23821W        W66837  29.711   7.806  25.084 -0.3316  0.0627 -0.2380
23822W        W66838  19.386  19.038  24.808  0.0018  0.0241 -0.0922
23823W        W66839   2.660  29.394   6.005 -0.2307  0.2912 -0.0169
23824W        W66840  14.041  16.076  28.947  0.0879  0.3450 -0.1556
23825W        W66841  22.375   5.248  20.553 -0.4956  0.0925  0.1988
23826W        W66842  32.134  15.190  25.746  0.3028 -0.1138  0.0251
23827W        W66843  23.734  17.993   8.809 -0.1963 -0.1705 -0.0078
23828W        W66844  11.641  34.596  13.960 -0.1672 -0.0159  0.1548
23829W        W66845   4.901  17.608   5.658 -0.1452  0.0626  0.1585
23830W        W66846   7.461  13.579  27.674  0.0732  0.1541 -0.2473
23831W        W66847  19.355  23.063   6.322  0.1863 -0.0324 -0.0678
23832W        W66848  32.432  10.250   8.576 -0.1322 -0.0822  0.0885
23833W        W66849  28.241   2.957  26.791 -0.2824 -0.1740  0.0661
23834W        W66850  22.853  10.187  10.085  0.0168 -0.0807 -0.1617
23835W        W66851  19.748  22.294  20.668 -0.1095  0.0509  0.3893
23836W        W66852  28.021  12.048  15.592 -0.2000 -0.0835 -0.1026
23837W        W66853  25.453  21.277   9.167 -0.2003 -0.1186 -0.1540
23838W        W66854  31.633  13.760  24.709 -0.2805  0.0543  0.0538
23839W        W66855  32.893  21.572  22.218  0.0084  0.1431 -0.1158
23840W        W66856  13.974   5.195   7.796 -0.0817  0.0594 -0.1447
23841W        W66857  18.396  17.842  21.132 -0.1560 -0.4100 -0.2020
23842W        W66858  18.613  12.272   6.028 -0.0860  0.2159 -0.1412
23843W        W66859  22.144  15.386   8.659 -0.1347 -0.0063 -0.3514
23844W        W66860  22.365  18.630  16.887  0.2950  0.1663 -0.0162
23845W        W66861  14.583  28.018   8.805  0.1851  0.0990  0.0160
23846W        W66862  11.890  21.493   6.756  0.2047 -0.4276  0.0950
23847W        W66863  31.003  18.325  15.226 -0.0571 -0.2723 -0.1333
23848W        W66864  26.522  30.598  29.244 -0.1331  0.3510 -0.0729
23849W        W66865  20.848  20.743   3.285 -0.1934  0.4839  0.1271
23850W        W66866  34.186   5.829   2.071  0.2016  0.1097 -0.3201
23851W        W66867  10.434  20.192  15.338  0.0246  0.3714  0.0135
23852W        W66868  19.677  15.703  24.425  0.1728  0.0137  0.1000
23853W        W66869  29.054  31.065   9.898  0.0512  0.1327  0.2056
23854W        W66870  22.219  27.880   7.694  0.2245 -0.1825  0.0599
23855W        W66871   5.033  23.806   6.025 -0.1952 -0.0544  0.2678
23856W        W66872  29.765  15.147   9.950  0.1109 -0.1293 -0.0124
23857W        W66873  24.274  20.898   3.106 -0.2180  0.1691 -0.1716
23858W        W66874  16.487   2.276  24.611  0.0421 -0.0229 -0.1153
23859W        W66875  30.606  14.894   5.670  0.0166 -0.0053  0.2036
23860W        W66876   6.939  15.699   0.478  0.0474 -0.0656  0.0808
23861W        W66877  13.207  10.959   0.360 -0.0832 -0.2400 -0.0959
23862W        W66878  25.030  21.047  19.441 -0.0341  0.2002 -0.1730
23863W        W66879  33.631  17.530  28.408 -0.0185 -0.1862 -0.1845
23864W        W66880   0.842  18.841   8.504 -0.3039  0.0275 -0.1630
23865W        W66881  15.589  12.160  13.267  0.3031  0.2630  0.0030
23866W        W66882  25.275  22.207   4.992 -0.2701 -0.0375 -0.0048
23867W        W66883  16.223  29.899   9.352  0.1939  0.0990  0.2666
23868W        W66884  22.760  25.676   6.866  0.2653 -0.0483 -0.0803
23869W        W66885  10.286  20.213   6.633 -0.0587  0.0901 -0.0686
23870W        W66886  16.085  11.171   5.389 -0.0133 -0.0273 -0.1677
23871W        W66887  24.592  23.653  27.996 -0.4788 -0.0928  0.1515
23872W        W66888   5.138  23.906  28.407  0.2103  0.0379  0.1930
23873W        W66889  23.954  27.801   6.244  0.1183 -0.1833 -0.0105
23874W        W66890  22.367  23.830   7.017  0.0067 -0.0280  0.0342
23875W        W66891  16.911  15.780   4.734 -0.1727 -0.1067 -0.0218
23876W        W66892   2.251   9.127  27.517  0.1713  0.2293  0.3714
23877W        W66893   7.017  21.747   6.067  0.0094 -0.1086  0.0797
23878W        W66894  27.642   8.910   5.574  0.0181 -0.1353  0.1701
23879W        W66895  25.275  27.476  21.316  0.1292 -0.0183  0.0552
23880W        W66896  27.436  10.708  28.651  0.2714  0.1278 -0.0102
23881W        W66897   2.188  20.621   7.431 -0.2304 -0.2961  0.1222
23882W        W66898  25.208   5.087   3.695  0.0109  0.2839  0.0200
23883W        W66899  29.401  21.513   9.965  0.2638 -0.3420  0.1993
23884W        W66900  17.716  27.320   2.372 -0.2135 -0.2459 -0.0038
23885W        W66901  18.767   8.248   0.192  0.3511  0.0524 -0.2084
23886W        W66902  17.258  18.310  20.698  0.1374  0.4488  0.2272
23887W        W66903   1.611  12.040  28.298  0.2231  0.0939 -0.2992
23888W        W66904   6.950  28.174  27.530 -0.2868 -0.1201 -0.1933
23889W        W66905  21.681  17.117  15.319  0.2671  0.3875 -0.0640
23890W        W66906  27.523  13.097  25.386  0.0549  0.3789  0.1501
23891W        W66907  34.286   6.956   0.220 -0.1152 -0.1452  0.2020
23892W        W66908  15.251   8.500   2.271  0.1516 -0.3807 -0.1980
23893W        W66909   5.845   2.099   1.003 -0.1408  0.2297  0.0148
23894W        W66910   5.275  19.978   7.234  0.0343 -0.1359 -0.0688
23895W        W66911  22.187  29.341  27.638 -0.0058 -0.0701  0.0221
23896W        W66912  23.272  21.072   7.378  0.2156  0.1739  0.1017
23897W        W66913  20.671  12.879  26.678 -0.4121 -0.4809 -0.2530
23898W        W66914  16.836  27.086   3.264  0.1924 -0.1638  0.2771
23899W        W66915  10.371   7.919   8.035  0.0018  0.4361 -0.2190
23900W        W66916  31.049   2.768  24.714  0.2633  0.2322 -0.2024
23901W        W66917  14.569  16.286   7.641 -0.2648  0.2872  0.2654
23902W        W66918  21.617  15.861   0.663  0.2316  0.3126 -0.2348
23903W        W66919   4.652  27.663   4.726 -0.0053 -0.0584 -0.2383
23904W        W66920   8.756  16.171   3.684 -0.5662 -0.1165 -0.1124
23905W        W66921  22.903  10.756  25.872 -0.0182 -0.1311  0.0925
23906W        W66922  28.325  17.735   2.363  0.0455  0.1499  0.1526
23907W        W66923  33.907  14.971  25.167 -0.2240 -0.1979 -0.0229
23908W        W66924  32.330  13.731  28.586  0.0420  0.2220 -0.0954
23909W        W66925  31.513  24.586  25.234 -0.1692 -0.4838 -0.0782
23910W        W66926   8.133  19.585  24.397 -0.0564  0.4277 -0.0127
23911W        W66927  28.894  24.184   1.816  0.0388  0.4459  0.2436
23912W        W66928  32.857  20.741  18.718 -0.0065 -0.1224 -0.0194
23913W        W66929   6.119   8.073   4.166  0.1336  0.1435 -0.2147
23914W        W66930  21.644  15.052  24.622 -0.2337  0.0020 -0.1702
23915W        W66931  26.583  34.403   0.717 -0.0074  0.1550  0.1862
23916W        W66932  18.710  18.048  29.171  0.1020  0.0330 -0.2848
23917W        W66933  27.930   3.177  28.151 -0.2033  0.0403  0.0069
23918W        W66934   3.991  15.689   6.773  0.0390  0.4222 -0.1409
23919W        W66935  32.164  13.831  22.610 -0.2071 -0.1915  0.0472
23920W        W66936  16.449  33.789  28.020  0.0479  0.1468 -0.1685
23921W        W66937   9.949  14.953   1.598  0.0388 -0.1292  0.0924
23922W        W66938  14.578   5.683  18.685  0.0242 -0.0729 -0.0052
23923W        W66939  21.977  10.026   5.372  0.2583  0.4379 -0.2719
23924W        W66940  13.108  22.395  28.266 -0.3233 -0.1533 -0.0623
23925W        W66941  22.931  26.738  24.925 -0.0673 -0.2437  0.1229
23926W        W66942  34.520  34.223  10.961 -0.2286  0.2902  0.0691
23927W        W66943  26.448  16.270   4.639 -0.0830 -0.0493  0.1513
23928W        W66944  19.511  12.982  25.757 -0.0615 -0.0644 -0.0191
23929W        W66945  14.790  20.419   7.490  0.1880 -0.1297  0.3284
23930W        W66946  29.066  19.681  10.196  0.2696 -0.0669 -0.0384
23931W        W66947  25.390  19.696  19.832  0.1418 -0.0286  0.1569
23932W        W66948  32.776  26.137  10.674 -0.0897 -0.0994 -0.1115
23933W        W66949  24.368  14.375  27.395 -0.0605 -0.0304  0.0588
23934W        W66950  29.726  14.453  29.188  0.0777  0.1404  0.2126
23935W        W66951  10.140  11.726   4.233 -0.0529 -0.0731 -0.2274
23936W        W66952  30.474  10.372   8.314  0.0546 -0.0204  0.1406
23937W        W66953  33.911  11.350   2.041  0.1531 -0.4458  0.0699
23938W        W66954  24.057  18.933   8.500 -0.1887  0.0044  0.0426
23939W        W66955  24.899   9.129   6.410  0.0226 -0.3563 -0.0940
23940W        W66956  16.218  13.916   7.595  0.0749 -0.1986 -0.2499
23941W        W66957  10.835  31.158  16.390  0.2942 -0.0010 -0.0244
23942W        W66958  30.878  26.872   6.687 -0.0649 -0.0278 -0.3897
23943W        W66959  20.361  23.171   3.470  0.2056  0.0203 -0.0155
23944W        W66960  24.743  12.661  28.853 -0.0253 -0.1650  0.0826
23945W        W66961   7.347  13.339   1.753  0.1563  0.2070 -0.0782
23946W        W66962  29.060  11.687  19.975  0.4285 -0.0098 -0.2339
23947W        W66963  21.270  21.962  22.353 -0.0500  0.3700 -0.2329
23948W        W66964   4.125  14.702   2.799 -0.1136 -0.0441 -0.1017
23949W        W66965  21.048  15.204   8.654  0.1696  0.0555  0.1567
23950W        W66966  31.637  11.806   1.364  0.2340  0.0193 -0.2767
23951W        W66967  27.072   3.604   1.761 -0.0244  0.3430  0.0341
23952W        W66968  25.363  12.888   6.187  0.1688  0.0444 -0.0132
23953W        W66969  21.219  32.956   7.857  0.1456  0.0103 -0.0734
23954W        W66970  13.825  25.531  21.397  0.0956 -0.2331  0.0325
23955W        W66971  27.253  27.604   9.184  0.0345 -0.1782  0.1973
23956W        W66972  25.535  22.862  27.568 -0.2414  0.4094 -0.1018
23957W        W66973  15.627  33.734   5.538  0.0309  0.1400  0.0693
23958W        W66974  30.111  26.364   4.186 -0.0527 -0.0254  0.2387
23959W        W66975   7.816  24.345   3.237  0.3756 -0.1425  0.1106
23960W        W66976  15.817  19.573   2.787 -0.1299 -0.1715  0.0493
23961W        W66977   3.552  22.202   6.453  0.1512 -0.0597 -0.2277
23962W        W66978  20.348  19.521  21.550 -0.3829 -0.0268 -0.1788
23963W        W66979  17.304   8.291   8.387 -0.1934  0.0455  0.4215
23964W        W66980  27.420  23.230   2.506 -0.1086  0.2596  0.2227
23965W        W66981  20.951  15.971   5.641 -0.0161 -0.1221 -0.1889
23966W        W66982  24.117  21.407  27.145 -0.0169 -0.0722 -0.2091
23967W        W66983  25.573   1.663   9.186 -0.2797 -0.0962 -0.1308
23968W        W66984  25.753  11.709   9.972  0.0200  0.0939  0.3059
23969W        W66985  18.581  20.157  28.416 -0.0350 -0.2034 -0.0938
23970W        W66986  31.403  12.735  17.514  0.1196 -0.3231 -0.0458
23971W        W66987  27.852  22.153  28.895  0.0306  0.0494 -0.1919
23972W        W66988  20.703   8.995  21.512 -0.3295 -0.0245  0.2195
23973W        W66989   0.198   7.632   7.636 -0.2972 -0.3766  0.0472
23974W        W66990   4.093  25.191   1.955 -0.1732 -0.4465  0.2421
23975W        W66991  23.427  30.453   6.514  0.1794  0.0919  0.1008
23976W        W66992  20.204  22.538   0.913  0.1037 -0.2649  0.1536
23977W        W66993  25.042   8.065  27.908  0.2169  0.3680 -0.2165
23978W        W66994  21.305  24.390   9.974  0.0827  0.2050 -0.0532
23979W        W66995  15.692  18.543   2.863  0.2692  0.3195 -0.0918
23980W        W66996  27.726  23.549   4.710 -0.1216  0.0262 -0.0049
23981W        W66997  22.569  19.515   5.761  0.1224  0.2232 -0.1985
23982W        W66998  20.429  24.092   5.026 -0.1051  0.1084  0.3206
23983W        W66999  26.635  21.186   8.873 -0.1824  0.1476 -0.1543
23984W        W67000   9.210   8.865   7.376  0.0466  0.3537  0.1999
23985W        W67001  11.252  19.859   7.852 -0.0880 -0.1937  0.1206
23986W        W67002  21.205  14.036  27.764  0.0858 -0.2791 -0.0709
23987W        W67003  20.896  31.695   3.947  0.0203  0.0403 -0.0150
23988W        W67004  14.349   7.426  23.575 -0.4104 -0.1765  0.1321
23989W        W67005   2.524   6.558   2.933  0.1536 -0.0895 -0.0452
23990W        W67006  32.096  13.565  19.403 -0.3650  0.3172 -0.1805
23991W        W67007  21.090   3.743  22.171  0.1254  0.0137  0.1547
23992W        W67008  24.984  12.379   8.557 -0.1882 -0.2291 -0.0494
23993W        W67009  14.869  19.799  27.982 -0.2479  0.0412 -0.0037
23994W        W67010  19.747  17.550   4.720 -0.3746  0.2753 -0.1758
23995W        W67011  27.806  19.899   7.741 -0.4636 -0.1234  0.2407
23996W        W67012  20.950   5.538   1.119 -0.2317  0.0029  0.0581
23997W        W67013  22.449   9.652   0.912  0.2633  0.0216 -0.0703
23998W        W67014   7.521   8.633   8.103 -0.0272  0.0182 -0.2420
23999W        W67015  31.582  23.713   3.183  0.1458 -0.0218 -0.1699
24000W        W67016  15.070  29.290  28.928 -0.0463  0.3265  0.0241
24001W        W67017  15.103  18.365   0.036 -0.2886 -0.1894 -0.2348
24002W        W67018  17.881  12.169   3.249  0.2728  0.1216  0.1267
24003W        W67019  25.562  16.878   3.053  0.1682  0.1888 -0.0135
24004W        W67020  29.904  18.641  22.084 -0.1501  0.2085  0.3832
24005W        W67021  14.905  20.886  20.432 -0.1786 -0.3042 -0.2337
24006W        W67022  33.601  11.591  25.888  0.0954 -0.1138  0.1926
24007W        W67023  26.993  10.423   1.419  0.0257 -0.0909 -0.2041
24008W        W67024   1.621   7.413   3.680 -0.1368  0.0480  0.1615
24009W        W67025  26.128  12.333   0.569 -0.0010 -0.1861  0.0296
24010W        W67026  26.346  27.970  26.370 -0.1277  0.0748  0.2158
24011W        W67027  17.636   9.569   5.602 -0.3626  0.2527  0.0956
24012W        W67028   0.011  26.335   3.991 -0.0423  0.1936  0.0717
24013W        W67029  26.422  33.732   6.880 -0.2589 -0.1409  0.0494
24014W        W67030  24.909  14.282   0.494 -0.0484  0.1710 -0.1131
24015W        W67031  12.817  10.095   7.563 -0.1358 -0.0663 -0.1273
24016W        W67032   1.752  11.031   2.801  0.0946 -0.0294  0.0480
24017W        W67033  32.279  17.834   6.388  0.0374 -0.1427  0.2217
24018W        W67034  10.186   4.533   8.703 -0.0665 -0.1524  0.3828
24019W        W67035   1.611  18.992   1.969  0.0308  0.0039 -0.0091
24020W        W67036  34.572  17.691  22.112  0.1286  0.0724  0.2007
24021W        W67037   4.308   3.907  15.566  0.0059  0.1680  0.0743
24022W        W67038  26.382  14.670   5.670 -0.3289  0.0731  0.2580
24023W        W67039  25.128  14.604   3.940  0.1698 -0.1499 -0.1920
24024W        W67040  19.224  32.244   9.364 -0.0743  0.3013  0.0129
24025W        W67041  23.515  23.186   9.669 -0.0183 -0.1753 -0.2801
24026W        W67042  33.806  26.297   6.868 -0.3546 -0.1448  0.2493
24027W        W67043  21.829  32.406   3.305  0.1913  0.0612  0.2599
24028W        W67044   0.679  25.164  17.544 -0.1066 -0.0953  0.2576
24029W        W67045  16.578  11.630   6.652  0.0976 -0.1413 -0.1045
24030W        W67046  33.480   6.483   8.412  0.0838  0.1587  0.1073
24031W        W67047  20.636  14.772  20.509 -0.1604 -0.2019  0.2671
24032W        W67048  12.832   7.798   2.317  0.5270 -0.0005 -0.1632
24033W        W67049  19.963  25.379  16.505  0.1324  0.2513  0.1056
24034W        W67050  20.518   4.444   5.849  0.1601  0.3937  0.0084
24035W        W67051  22.958  16.648   1.353 -0.2600 -0.0512 -0.0833
24036W        W67052  30.835  25.907   1.843 -0.2678  0.1739  0.3754
24037W        W67053  14.597  17.436   2.627  0.1395 -0.2616 -0.1945
24038W        W67054   9.884  14.302   6.044  0.2639  0.3181 -0.2501
24039W        W67055  28.056   6.873  24.003 -0.0814 -0.0757 -0.2279
24040W        W67056  15.538  13.566   0.992 -0.2553  0.1457 -0.0087
24041W        W67057  31.012  17.594   7.690 -0.0150 -0.2641 -0.2344
24042W        W67058  22.418  23.462   8.351  0.1070 -0.0951 -0.1817
24043W        W67059  18.693  26.816  10.165  0.2378  0.1642  0.2172
24044W        W67060   4.878  16.333   4.274  0.0848  0.0558 -0.3168
24045W        W67061  26.391   7.791   6.405 -0.0458  0.1526 -0.3813
24046W        W67062  24.422  23.864   6.228  0.2278  0.0165  0.1329
24047W        W67063  19.798  17.936  25.922 -0.0391  0.1879  0.1244
24048W        W67064  33.137   5.255  29.063  0.0260 -0.2616 -0.1619
24049W        W67065  32.425  13.775   0.909 -0.2022  0.0613  0.1470
24050W        W67066  30.664  21.971   5.337 -0.1761  0.1595 -0.1062
24051W        W67067  26.060  15.144  23.518  0.1452 -0.4684  0.1482
24052W        W67068  23.768  20.382   8.995 -0.2364  0.1343 -0.1631
24053W        W67069  21.437   6.273  28.768 -0.1473 -0.1297 -0.1647
24054W        W67070  27.370  23.511  28.536  0.1062 -0.0468  0.1460
24055W        W67071  32.877  20.775  25.824  0.0935 -0.0208 -0.0529
24056W        W67072  23.526  12.043  23.849 -0.2008 -0.0711  0.0741
24057W        W67073  13.248  10.075   7.063  0.1582 -0.3144 -0.1470
24058W        W67074   4.186  10.842  28.162 -0.0633  0.2449  0.1412
24059W        W67075  34.237  17.450   7.596 -0.1004 -0.1201 -0.0251
24060W        W67076  18.317  12.315   4.940 -0.2106  0.2274  0.1512
24061W        W67077  26.133  26.167   9.040 -0.0173 -0.1954  0.2663
24062W        W67078  28.675  16.374   5.913 -0.1868 -0.2382  0.1835
24063W        W67079  19.424  31.202   7.358 -0.3870 -0.1829 -0.0353
24064W        W67080   6.523  15.584  23.035  0.1299 -0.0617  0.0546
24065W        W67081  28.530  15.154   4.563 -0.0601 -0.1514  0.1252
24066W        W67082  18.342  16.695   5.468 -0.1244 -0.2868 -0.2934
24067W        W67083  24.238   8.587  27.474 -0.0978 -0.0495  0.0327
24068W        W67084  18.061  20.643   1.377  0.1752  0.2310  0.1015
24069W        W67085   4.827  13.972   7.001 -0.0185 -0.0506  0.2890
24070W        W67086  28.443  16.363   3.160 -0.0348 -0.0104 -0.1866
24071W        W67087  30.755   7.988   9.316 -0.2544  0.0235  0.1785
24072W        W67088  15.486   6.950   7.488  0.4253  0.3428 -0.1984
24073W        W67089   2.437  26.773  28.259  0.3407 -0.2236  0.0734
24074W        W67090  27.378  16.599   6.809  0.1555 -0.1489 -0.3006
24075W        W67091  24.830   6.770  11.084 -0.2417  0.1410  0.1481
24076W        W67092   5.872  16.462  24.686  0.0594  0.1239 -0.1314
24077W        W67093   0.719  12.200   7.843 -0.1113  0.0167  0.1412
24078W        W67094  26.985   4.433   8.507  0.0632 -0.2922 -0.0295
24079W        W67095  20.221  33.434   1.378  0.0216  0.0491  0.0821
24080W        W67096  12.158   5.078   2.903 -0.0740  0.1263  0.1717
24081W        W67097  18.754  16.529  21.693 -0.1211  0.1666  0.0560
24082W        W67098  28.477  12.041   0.163 -0.0465  0.2260 -0.1578
24083W        W67099   5.638  11.949  17.430  0.0015 -0.0626 -0.3123
24084W        W67100  20.576  12.624  27.268  0.0706  0.0026 -0.1742
24085W        W67101  11.402  12.718   3.099 -0.2782  0.1257  0.2344
24086W        W67102  20.225  24.176   6.105 -0.0157  0.1026  0.5078
24087W        W67103  20.635  15.755   7.592  0.2245  0.2575  0.1012
24088W        W67104  26.425  12.399   4.900 -0.2602  0.1850 -0.0568
24089W        W67105  15.143  26.646   7.755  0.1534 -0.0673  0.2147
24090W        W67106  14.325   8.279   7.730  0.0927  0.0791  0.0957
24091W        W67107  14.374  20.063   7.625  0.1692 -0.2573 -0.1036
24092W        W67108  18.877  12.077  23.448 -0.0756 -0.1215 -0.2967
24093W        W67109  29.437  13.405   5.304 -0.2059 -0.1135  0.0180
24094W        W67110   6.095   8.478   6.741  0.2791 -0.1215  0.1278
24095W        W67111  24.317   6.937  23.636  0.1294  0.1437 -0.0505
24096W        W67112  34.022  19.799  19.402  0.0824  0.0469  0.0182
24097W        W67113  10.304  18.403   4.662  0.1039 -0.0780  0.0470
24098W        W67114  19.074  15.209   8.975  0.2240  0.1694  0.0262
24099W        W67115   2.026  19.504   8.394  0.1176  0.2520  0.0192
24100W        W67116   1.968   6.965  25.710 -0.2301  0.1041 -0.0169
24101W        W67117  27.269  30.620   9.970  0.1561  0.0882 -0.0306
24102W        W67118  33.669  32.230  20.295 -0.1057  0.1100  0.1354
24103W        W67119  27.592  26.567  10.152  0.2720  0.1625  0.0401
24104W        W67120  25.420  12.927  18.698 -0.0070  0.0887 -0.1105
24105W        W67121  20.706  20.347   9.262 -0.1867  0.0649  0.0032
24106W        W67122  26.532  33.090   0.973 -0.5592  0.2433  0.0197
24107W        W67123  23.794  31.026  17.134 -0.1351 -0.0984 -0.1090
24108W        W67124  22.985   7.559   0.392  0.0135 -0.0780  0.1672
24109W        W67125  22.727   7.375   0.976  0.0216 -0.2147 -0.0617
24110W        W67126  26.404  16.253   7.912  0.1980 -0.0249 -0.0635
24111W        W67127  32.456  12.312   9.482 -0.1700  0.1014 -0.1023
24112W        W67128  17.738  21.713   4.666 -0.2900 -0.0199 -0.1028
24113W        W67129   5.377  12.770  15.746  0.0223  0.1746  0.0717
24114W        W67130  22.514  13.327   5.715 -0.2228  0.1419  0.0002
24115W        W67131  22.844  25.498   8.284  0.0758 -0.0812 -0.3740
24116W        W67132  15.475   3.404   8.978  0.0356 -0.0390  0.0002
24117W        W67133   8.486  13.437   6.508 -0.0537 -0.0549  0.2312
24118W        W67134   7.666  31.769  25.335  0.0955  0.6844 -0.0509
24119W        W67135  21.730  20.790   8.533  0.2411  0.3075  0.1708
24120W        W67136   8.844  16.514   4.728  0.0335  0.1882 -0.1870
24121W        W67137  11.433  16.259  22.852 -0.3800  0.2455  0.0357
24122W        W67138  22.985  11.208   9.149 -0.1303 -0.1939  0.0798
24123W        W67139  10.098  17.522   1.208  0.0915  0.5509 -0.0135
24124W        W67140  25.911  18.214   0.459 -0.0170  0.1002  0.2566
24125W        W67141  17.673  17.528   1.075  0.0953 -0.3825  0.3114
24126W        W67142   9.413   7.751   7.175  0.3296 -0.1155 -0.0887
24127W        W67143   2.976  26.065  23.758  0.1020  0.0774 -0.0658
24128W        W67144  26.449  11.896   1.534 -0.0334 -0.0801 -0.1785
24129W        W67145  16.988   5.003   7.386  0.2436 -0.0129 -0.4748
24130W        W67146  23.557  34.169  11.164 -0.1079 -0.0729  0.1687
24131W        W67147   2.093  17.810  25.783 -0.1757  0.0982 -0.0595
24132W        W67148  17.846  14.205   6.476  0.2852  0.4386 -0.3141
24133W        W67149  27.512  25.802   4.016  0.1833  0.0339  0.1995
24134W        W67150  27.477  17.286   4.372  0.0320 -0.1340 -0.0816
24135W        W67151  24.230  11.163   4.817 -0.0125  0.0890  0.2741
24136W        W67152  14.155   8.835   0.176  0.0972  0.2585  0.2658
24137W        W67153  20.865  19.537   3.945 -0.0052  0.1581 -0.1667
24138W        W67154  25.761  11.208  25.087 -0.0869 -0.4135  0.1324
24139W        W67155   4.110  10.435   6.294  0.1782 -0.0995 -0.1646
24140W        W67156  23.225   0.942   7.065  0.1454 -0.2935  0.1450
24141W        W67157  18.587  17.171  19.590 -0.1307  0.0598  0.1555
24142W        W67158  17.923  14.272  27.654 -0.0120  0.3552 -0.0936
24143W        W67159  31.719  16.420   8.069  0.1720  0.2414 -0.0877
24144W        W67160  15.523  24.249   4.410  0.1095  0.2540 -0.0392
24145W        W67161   5.260  18.290  28.014  0.2097  0.0792  0.0376
24146W        W67162  26.462  10.292   2.118 -0.4066 -0.4216 -0.1301
24147W        W67163  11.731  23.734  28.189 -0.1625  0.4176 -0.4096
24148W        W67164  10.548  19.012  18.380  0.0825  0.0227  0.1360
24149W        W67165  16.980   4.059  19.360 -0.1988  0.2138  0.0448
24150W        W67166   6.180  24.862  28.097 -0.1570  0.1773 -0.1951
24151W        W67167  23.355  32.191   6.374 -0.1553 -0.0544  0.0278
24152W        W67168  13.583  17.570  19.686  0.0970  0.2528  0.0421
24153W        W67169  29.919  10.719  25.370  0.2275 -0.0960 -0.1782
24154W        W67170  21.361  31.824  27.430 -0.0409 -0.0146 -0.0614
24155W        W67171  33.956  12.740   9.803  0.0049  0.2220  0.1006
24156W        W67172  24.013  10.592  23.326  0.3090 -0.1127  0.1345
24157W        W67173  23.791  33.369  11.637  0.3543  0.0775 -0.0898
24158W        W67174  19.589   4.876   8.448  0.2879 -0.3517  0.1107
24159W        W67175  20.532  33.915  26.292 -0.0957  0.0937  0.0485
24160W        W67176  28.217   3.939  10.645 -0.2580  0.2951  0.1655
24161W        W67177  26.860   8.702  18.900 -0.0197  0.0155  0.0641
24162W        W67178  27.378  16.243   5.707  0.3288  0.1096 -0.1549
24163W        W67179   0.511  31.433   1.533 -0.0787 -0.0715 -0.1751
24164W        W67180  21.225  15.495   7.967 -0.2974  0.1689 -0.2141
24165W        W67181   0.640  22.559  27.637  0.1600  0.0648 -0.1208
24166W        W67182  27.775   8.242  29.216 -0.1046 -0.2532 -0.1129
24167W        W67183  22.480   8.523  24.626  0.2797 -0.1294  0.0298
24168W        W67184  10.607  28.353   2.190 -0.2742  0.0444 -0.0385
24169W        W67185   8.730  33.631   9.836 -0.2523 -0.0492  0.1976
24170W        W67186   0.293  18.349   9.854 -0.1536 -0.0592 -0.0523
24171W        W67187  34.287  30.440   3.144  0.0814 -0.1882 -0.2488
24172W        W67188  20.186  20.794  29.162  0.2751 -0.0085  0.1355
24173W        W67189  22.902  19.407  25.655  0.2001 -0.3605 -0.1185
24174W        W67190  20.288  18.090  27.818 -0.1815  0.4683 -0.0715
24175W        W67191   5.554  26.031   5.900 -0.2765  0.1849  0.2224
24176W        W67192  20.782   8.311   6.804  0.1327  0.0798 -0.2206
24177W        W67193  24.989  14.364   2.559  0.0820  0.0523  0.0449
24178W        W67194  29.877  13.354   4.242 -0.0575  0.2290 -0.1189
24179W        W67195  27.378   5.693   8.143  0.0996 -0.1855 -0.0227
24180W        W67196  20.568   8.168   3.862  0.0394  0.3267 -0.0558
24181W        W67197  19.098   2.416  23.010  0.2735  0.2618  0.5309
24182W        W67198  23.804  34.203  28.827 -0.0204  0.1311  0.0128
24183W        W67199  29.961  13.482  27.521  0.0871 -0.0727  0.1223
24184W        W67200  24.471   3.794   8.896  0.1071  0.0062 -0.0944
24185W        W67201  27.751  25.745  25.773 -0.1670  0.3271  0.1232
24186W        W67202   5.178  26.638  28.176 -0.1301 -0.0169 -0.2091
24187W        W67203  14.026  20.709  24.309  0.0429 -0.1004  0.0088
24188W        W67204  15.270  14.691   4.105 -0.0389  0.1550 -0.0591
24189W        W67205   0.714   3.867   8.032  0.0747  0.1438  0.1642
24190W        W67206  11.543   9.767   2.491  0.0572  0.3602  0.0480
24191W        W67207  14.953   4.894   5.030  0.2194 -0.1986  0.0146
24192W        W67208   7.243   9.276   1.168 -0.0561 -0.1344  0.0062
24193W        W67209  20.801  19.072   2.211  0.1474  0.0865 -0.3487
24194W        W67210  32.416  18.085   4.950 -0.3153  0.0282  0.1199
24195W        W67211  24.446   2.048   9.340  0.1293 -0.2796 -0.0447
24196W        W67212  31.645  31.422   4.863  0.5975 -0.2274  0.0226
24197W        W67213   0.944  22.811   5.862  0.0055  0.1600  0.0201
24198W        W67214  24.321  17.548  21.996  0.4398 -0.1108  0.2699
24199W        W67215  26.651  15.433   7.306 -0.0507 -0.3139 -0.0784
24200W        W67216  23.157  33.795   6.830  0.2782 -0.0630  0.1676
24201W        W67217  18.500  31.164  24.594  0.0065 -0.1609  0.0240
24202W        W67218  12.929  29.047   9.379 -0.0882 -0.0914  0.1473
24203W        W67219  19.146   6.935  10.146  0.2804 -0.0086  0.2855
24204W        W67220  30.778   5.244   8.661  0.0701  0.1869 -0.0833
24205W        W67221  21.208  11.734  19.047  0.0920 -0.0807 -0.5062
24206W        W67222  29.269  10.647   3.532 -0.1231 -0.1874 -0.1038
24207W        W67223  24.799  13.456  27.338 -0.1253  0.1050 -0.3532
24208W        W67224  34.223   7.416  10.290  0.0349  0.0812 -0.3147
24209W        W67225  21.013   3.333   7.424  0.0500 -0.0754 -0.0684
24210W        W67226  26.537   3.310  29.192 -0.2217  0.2644 -0.2402
24211W        W67227  26.169  14.518  27.223 -0.1095 -0.3056 -0.1534
24212W        W67228  27.828   2.362   6.538 -0.2764  0.1101  0.0532
24213W        W67229  28.653  15.425   6.340  0.0073  0.0330  0.1547
24214W        W67230  26.726  13.734   9.415 -0.1077  0.1642 -0.0811
24215W        W67231  25.791  26.450  28.572 -0.0334 -0.0180  0.0324
24216W        W67232   8.896  25.110   9.688  0.0022 -0.1494  0.1133
24217W        W67233  14.224  16.446  28.673 -0.2496  0.0718 -0.0601
24218W        W67234  32.468  21.356   2.758 -0.0074 -0.0039  0.0925
24219W        W67235  34.347  32.376   4.495 -0.0032 -0.0450 -0.0830
24220W        W67236  29.993  21.648   4.547 -0.0407 -0.1024 -0.1158
24221W        W67237  18.384  17.900  25.730 -0.2503 -0.0280 -0.3059
24222W        W67238  25.409  10.275  24.550 -0.3303  0.0341 -0.4252
24223W        W67239  22.899  26.510   7.234 -0.1854  0.1425  0.2172
24224W        W67240  34.646  27.217  27.502 -0.0703 -0.1573  0.1789
24225W        W67241  19.351  30.077   1.323  0.1299 -0.1359  0.0300
24226W        W67242  16.300  19.780   0.535  0.2360 -0.2385 -0.1151
24227W        W67243  28.334  26.455   4.770 -0.0669  0.2202  0.0269
24228W        W67244  22.144   6.889   6.225 -0.0388  0.4002 -0.0737
24229W        W67245  13.921  34.332  29.302  0.0920  0.1707 -0.0451
24230W        W67246   3.121  22.714   9.249 -0.0265 -0.0229  0.0884
24231W        W67247  22.560  14.933   2.954 -0.0308 -0.1231  0.1689
24232W        W67248  11.101   7.426  16.854  0.0273  0.0277 -0.3207
24233W        W67249  24.618  26.138   7.147  0.1208  0.0702  0.0138
24234W        W67250  15.254  10.472   5.811 -0.0932  0.3402 -0.0346
24235W        W67251   3.541  23.579  29.317 -0.4167  0.0589 -0.1706
24236W        W67252  20.017   9.601   7.874  0.0399 -0.1170  0.0095
24237W        W67253  20.751  22.970  25.374  0.2649 -0.0836 -0.5912
24238W        W67254  12.188  18.628   4.805  0.0950 -0.0366 -0.3500
24239W        W67255  21.173  19.345   4.908 -0.3889 -0.0843  0.1268
24240W        W67256  16.511  21.597  21.565 -0.2491 -0.0723 -0.0192
24241W        W67257  30.397   8.944   3.715  0.2269 -0.1037  0.1429
24242W        W67258  13.987  14.168   4.161  0.2178  0.2566 -0.0869
24243W        W67259  25.399  22.906   9.420  0.0535 -0.0647 -0.0684
24244W        W67260  33.875  12.722   0.948 -0.0359 -0.2715 -0.1006
24245W        W67261   7.027  23.975   0.825 -0.1130  0.0066 -0.0673
24246W        W67262  17.352   6.359   9.117 -0.2476 -0.0310  0.1449
24247W        W67263  23.102   1.628  22.989  0.3375 -0.1232 -0.0218
24248W        W67264   0.080  17.357  19.516  0.0853 -0.1208  0.0859
24249W        W67265  28.942  18.730  20.117  0.3064  0.3697  0.1313
24250W        W67266  27.782  15.042   9.095  0.0777  0.0353 -0.0107
24251W        W67267  13.147  26.329   8.331 -0.1351 -0.1483  0.0467
24252W        W67268  12.948   0.291  17.281 -0.1609 -0.0672 -0.0684
24253W        W67269  23.037  18.149   0.438  0.0449 -0.0414 -0.1094
24254W        W67270  28.201  14.636   5.650  0.2172 -0.0701 -0.1884
24255W        W67271   8.440  27.505   3.178 -0.0593 -0.2198  0.1880
24256W        W67272  33.355  14.763  26.874  0.4012  0.4108 -0.0423
24257W        W67273  14.058  12.653   7.577  0.2175  0.1534 -0.0036
24258W        W67274  26.425  13.765  19.218 -0.2845  0.2263  0.0402
24259W        W67275   2.402   2.931   8.946  0.1102 -0.2724 -0.1478
24260W        W67276   5.470  12.241   8.748  0.1945 -0.1785 -0.0723
24261W        W67277  17.251  13.411   8.515  0.3648  0.1531 -0.0667
24262W        W67278  20.765  23.965   7.242 -0.0899 -0.1755 -0.1474
24263W        W67279  33.733  15.996   9.544  0.1331  0.1024 -0.0920
24264W        W67280  14.013   1.447   5.673  0.0042  0.3261 -0.1943
24265W        W67281  25.492  25.786   7.512 -0.0546  0.0160 -0.0061
24266W        W67282  29.117   9.081   8.165  0.1210 -0.1558  0.1316
24267W        W67283  15.932   8.990   6.238 -0.0912 -0.3290  0.1672
24268W        W67284  16.643  18.056   5.162  0.1073  0.1120 -0.1124
24269W        W67285  12.619  17.055   8.704 -0.1364  0.1282  0.0166
24270W        W67286   0.673   6.453   6.569 -0.2234 -0.3847  0.1123
24271W        W67287  24.818  18.398   9.865 -0.2690  0.0650 -0.1749
24272W        W67288   1.096  32.466   4.030 -0.0187  0.1495 -0.1442
24273W        W67289  16.811  26.833   9.487 -0.1997 -0.1825 -0.1685
24274W        W67290  30.217  27.396  11.130  0.0316  0.0487 -0.1067
24275W        W67291  28.908  22.118   2.591  0.1186 -0.3810  0.1562
24276W        W67292  26.001  23.178  11.283 -0.0571 -0.0820  0.1020
24277W        W67293  10.930  26.894  22.455 -0.0192  0.0841  0.2186
24278W        W67294  31.907  10.523   5.067 -0.2661  0.2153  0.1098
24279W        W67295  21.039  13.015   7.812  0.0573 -0.0449 -0.0433
24280W        W67296  27.249  16.046   6.139  0.1571  0.0253  0.0243
24281W        W67297   1.833  14.209  27.454  0.1344 -0.0957  0.2990
24282W        W67298  23.538  17.131   6.920 -0.1053  0.1711 -0.0623
24283W        W67299  20.288  31.888  27.155  0.1431 -0.1707  0.0659
24284W        W67300  20.807  11.613  19.982 -0.2333  0.1254  0.0201
24285W        W67301  22.853  10.953   8.601  0.0358  0.0193  0.1845
24286W        W67302  19.735  22.814  29.306 -0.1155 -0.0920 -0.1147
24287W        W67303  14.508  23.454   3.345  0.0107  0.0671 -0.1173
24288W        W67304  32.883   6.817   6.662 -0.4357 -0.0455  0.0173
24289W        W67305   2.131  12.223   9.894 -0.2250  0.0016 -0.0748
24290W        W67306  13.533   8.364   2.283  0.0341  0.0134 -0.0861
24291W        W67307   5.646  23.176   9.765 -0.0048  0.1964 -0.2548
24292W        W67308  25.737   9.815   0.973 -0.3019  0.1974  0.2117
24293W        W67309  19.366  19.948  25.197  0.2710 -0.2467  0.0201
24294W        W67310  28.851   5.853  19.774 -0.0659 -0.0319  0.1656
24295W        W67311  18.025  31.153  21.204  0.1193  0.0852  0.2375
24296W        W67312   3.886  15.480   8.247 -0.4307  0.1661 -0.2398
24297W        W67313   4.444  15.509   6.586 -0.2716 -0.0121  0.0177
24298W        W67314  10.074  16.041  28.250 -0.0161 -0.0812 -0.2590
24299W        W67315  18.522  17.567   1.605  0.1001  0.0561 -0.0905
24300W        W67316  31.436  13.923  28.289  0.1014 -0.0111 -0.2547
24301W        W67317  20.176  34.544   7.582 -0.2163  0.0255  0.0741
24302W        W67318  33.997  33.761  27.764 -0.0170  0.3600  0.4907
24303W        W67319  15.205  24.944   1.840 -0.1081  0.1937 -0.0836
24304W        W67320  14.296  33.013   4.963  0.4932 -0.2244  0.1092
24305W        W67321  17.267   6.078  10.060 -0.1790  0.4561 -0.0090
24306W        W67322   8.428  10.927   8.789  0.0570 -0.1572  0.1146
24307W        W67323  22.579   6.881  27.625 -0.2450  0.2328 -0.1759
24308W        W67324  29.643  26.458   3.987  0.1432  0.6830 -0.2271
24309W        W67325  18.953  12.453  13.393  0.0894 -0.1900  0.1077
24310W        W67326  30.703  14.542   8.151 -0.1278  0.0526 -0.1027
24311W        W67327   2.012  17.135   6.405 -0.2245 -0.0739 -0.3496
24312W        W67328  30.801  16.668  25.757 -0.3367 -0.0582 -0.0389
24313W        W67329  33.201  26.510   7.378  0.0319 -0.2143 -0.2882
24314W        W67330  31.948  18.600   8.664 -0.1428  0.0552 -0.0541
24315W        W67331  20.394  15.822  22.263 -0.1595 -0.0317 -0.0701
24316W        W67332  11.555  20.139   2.681 -0.0699 -0.1553 -0.1296
24317W        W67333  11.731  14.679   6.405 -0.0477  0.2217  0.1311
24318W        W67334  33.637  19.289  28.424 -0.1737  0.1286 -0.2707
24319W        W67335   1.545  12.446  24.398 -0.1399 -0.2648 -0.1208
24320W        W67336   0.514  16.449  23.296  0.0011  0.1282 -0.0316
24321W        W67337  18.617  17.115  23.924 -0.1789  0.1703 -0.2975
24322W        W67338  30.632   4.519   5.614  0.1430 -0.0510  0.0005
24323W        W67339  12.929   7.493   3.650  0.0341 -0.1094  0.0187
24324W        W67340  17.869  10.902   3.860 -0.1535 -0.1308  0.0813
24325W        W67341  33.341   5.111   5.195  0.2062  0.0449  0.2887
24326W        W67342   3.195  15.683   4.279  0.0655 -0.1985 -0.4270
24327W        W67343  28.429   4.864   8.472  0.0659 -0.1691  0.1321
24328W        W67344  20.122  28.762   3.079  0.0925 -0.2852  0.0200
24329W        W67345  14.210  14.503  24.982 -0.1374 -0.1335 -0.2611
24330W        W67346  31.087  23.352   6.324 -0.3001  0.1210  0.1191
24331W        W67347  23.868  20.025  22.024 -0.1830  0.0680  0.1525
24332W        W67348   2.700  18.940   7.952  0.2130  0.2483 -0.0322
24333W        W67349  16.110  14.539   6.699  0.5142  0.0858 -0.3798
24334W        W67350   8.857  15.747  28.233  0.1253 -0.1149 -0.3317
24335W        W67351  30.159  32.322  10.464 -0.1292  0.2223 -0.2514
24336W        W67352   6.250  33.856  24.568  0.2495  0.1584 -0.3093
24337W        W67353  22.002  26.555   6.629 -0.1191  0.2834  0.0413
24338W        W67354  34.430  11.267   0.677  0.0911  0.1075  0.2793
24339W        W67355   2.556  27.249   5.226 -0.1628 -0.0392 -0.1873
24340W        W67356  25.999  20.678   8.509  0.0249 -0.1126 -0.0870
24341W        W67357  18.676  20.395   3.253 -0.3668  0.2001  0.2013
24342W        W67358  26.045  33.269  28.061 -0.2930 -0.1320 -0.0704
24343W        W67359  14.834  20.419   8.535 -0.3667 -0.0645  0.1709
24344W        W67360  25.332   8.218   4.249  0.0800 -0.0403  0.1629
24345W        W67361   0.643  19.728   4.766  0.0703  0.1204 -0.1419
24346W        W67362  23.409  25.980   5.136  0.2125 -0.2118 -0.0344
24347W        W67363  21.094  10.283   7.044  0.2597 -0.0901  0.0747
24348W        W67364   8.589   1.164   0.256 -0.2276 -0.2215 -0.2353
24349W        W67365  11.755   1.147   3.599  0.3498  0.0271  0.2709
24350W        W67366  18.083  18.423  24.715  0.1287  0.1980  0.1223
24351W        W67367  16.697   8.946  28.629  0.0557 -0.4111 -0.1839
24352W        W67368  27.834  25.251  10.043  0.1641  0.2948 -0.0765
24353W        W67369   4.163   0.834   1.195  0.0395  0.0593  0.1284
24354W        W67370  20.291  17.317   8.608  0.3735 -0.0161  0.1197
24355W        W67371  24.727   5.569   9.246  0.1834  0.0612 -0.0684
24356W        W67372  16.625  19.763  21.094 -0.0109 -0.3094 -0.1977
24357W        W67373  28.239  19.087  10.035  0.5714 -0.2304 -0.1938
24358W        W67374  16.496   7.187   0.091  0.2860  0.1115  0.0653
24359W        W67375  24.693  11.119   8.324 -0.4247 -0.1179  0.1007
24360W        W67376  24.131   3.578  27.862 -0.2094 -0.0513  0.0204
24361W        W67377  19.599  31.315   9.618 -0.1941 -0.0942 -0.6428
24362W        W67378   5.743  29.894   9.484 -0.1790  0.0937 -0.0599
24363W        W67379  12.024  25.940  23.406 -0.0458  0.0078  0.1468
24364W        W67380  19.953  13.264  18.861 -0.1730 -0.0599  0.0231
24365W        W67381  30.089  17.841  27.055 -0.2022 -0.1110  0.1556
24366W        W67382  29.203  24.136   3.774  0.4295 -0.1491 -0.2904
24367W        W67383  20.588  15.519  23.432  0.2075 -0.3930  0.0430
24368W        W67384  30.090  20.735   8.651 -0.2334 -0.3038 -0.2263
24369W        W67385  10.742   3.988   9.117 -0.1223  0.0139  0.2607
24370W        W67386  29.496  28.127  11.889  0.0369  0.0404 -0.3997
24371W        W67387  23.417  17.090   9.650 -0.1346  0.1346 -0.1646
24372W        W67388  26.992   8.846  11.401 -0.4974  0.1416  0.3269
24373W        W67389   2.677  12.495   3.779  0.0304 -0.2718  0.0085
24374W        W67390   4.047  23.035   9.417  0.2422  0.3558  0.0326
24375W        W67391   1.728   8.972   2.383 -0.1609 -0.0541  0.1496
24376W        W67392   0.376  18.946  25.776 -0.0008  0.1309  0.1121
24377W        W67393  28.799  21.504   4.888 -0.1033 -0.1373 -0.4025
24378W        W67394  21.188  15.870   0.898 -0.0124 -0.1533  0.0748
24379W        W67395  31.476   7.772   8.115  0.1411  0.2174  0.0719
24380W        W67396  16.850  15.072   5.605  0.1558 -0.1663 -0.0294
24381W        W67397  19.352  23.797   8.878 -0.0345  0.0484 -0.0134
24382W        W67398  34.631  14.314   0.714 -0.0507  0.2078  0.0682
24383W        W67399  17.291  25.657   3.753 -0.1482  0.1534  0.1903
24384W        W67400  17.183  21.801   4.493  0.0185 -0.0115 -0.0445
24385W        W67401  24.503  22.670  23.864  0.1706 -0.0946  0.1317
24386W        W67402  31.182  20.937  10.329 -0.0352  0.0479 -0.0450
24387W        W67403   1.102  15.242  25.641  0.0240 -0.1368 -0.2269
24388W        W67404  14.972   2.225  15.229 -0.1096 -0.0965  0.0719
24389W        W67405  21.589  19.952  27.469  0.1364  0.0480  0.0431
24390W        W67406  17.636  13.507   6.968  0.2588  0.1271 -0.0893
24391W        W67407  23.211  18.356   8.785  0.1198 -0.0300  0.0643
24392W        W67408   3.775   8.575  17.139  0.1066  0.0701 -0.0624
24393W        W67409  24.216  18.787   9.339 -0.1973 -0.1043  0.0964
24394W        W67410  24.629  10.501  10.760 -0.0894 -0.0217 -0.0963
24395W        W67411  27.941   0.326   1.378  0.2188  0.0141 -0.2551
24396W        W67412  24.346  18.624   8.839 -0.0693 -0.0299 -0.0706
24397W        W67413  18.682  31.160   5.956 -0.1797 -0.1316 -0.0074
24398W        W67414  20.659  27.339   0.048  0.0344 -0.0524  0.0737
24399W        W67415  31.667  11.639   7.425 -0.0343  0.2526  0.1495
24400W        W67416  25.795  25.531  28.863 -0.1081  0.2309 -0.0631
24401W        W67417  19.453  22.568   8.691 -0.0089 -0.0292 -0.0310
24402W        W67418  13.948  16.681  24.737  0.0389 -0.4548 -0.0445
24403W        W67419  13.918  19.122  22.592  0.3130  0.1745  0.0622
24404W        W67420  27.602  24.674  10.199  0.0666 -0.2115 -0.2294
24405W        W67421  24.242  21.416   0.369 -0.0061 -0.0457  0.2696
24406W        W67422  27.192  20.995   2.777 -0.0545  0.2395 -0.0484
24407W        W67423  33.085  24.802   7.746  0.1461  0.4011  0.0488
24408W        W67424  25.677  19.104   2.616  0.0577 -0.0764 -0.1861
24409W        W67425  16.938   1.195  26.822 -0.0658 -0.1019 -0.2721
24410W        W67426  23.573  33.404  10.739 -0.1167 -0.0753 -0.0371
24411W        W67427  30.687  23.655   8.007 -0.0276 -0.2407  0.0234
24412W        W67428  12.621  19.003   3.498  0.2328 -0.0758 -0.0026
24413W        W67429   7.636   4.941   2.319  0.1133  0.0068 -0.1255
24414W        W67430   0.896  21.915   6.262 -0.1643 -0.0589 -0.0033
24415W        W67431   1.937  26.024   5.864 -0.0293  0.3728  0.2281
24416W        W67432  29.729  33.058  20.255 -0.1923  0.1126 -0.1516
24417W        W67433  34.427  14.611   5.011 -0.1700 -0.1295 -0.0628
24418W        W67434  27.916   1.203   6.850  0.5147 -0.0407  0.2019
24419W        W67435  29.159  17.721   7.591 -0.2062  0.0573 -0.0078
24420W        W67436  24.859  30.760  27.205 -0.0118  0.1398 -0.0721
24421W        W67437   0.533  30.791   9.357 -0.0308 -0.0182  0.3433
24422W        W67438  20.197  22.485  25.552  0.0015  0.0662  0.1543
24423W        W67439  30.217   6.674  27.173 -0.0320 -0.1080  0.2874
24424W        W67440  21.904  18.616   3.513 -0.0934 -0.0906  0.0081
24425W        W67441  24.054  19.614   9.236 -0.2741 -0.1513 -0.1528
24426W        W67442   8.310  19.879  20.836  0.3737  0.1144  0.0862
24427W        W67443  30.536  26.221   4.414  0.0692  0.0711  0.0301
24428W        W67444  23.952  20.506  26.870  0.2315  0.0485  0.0471
24429W        W67445  32.365   6.775   3.133  0.2599  0.1350  0.0090
24430W        W67446   5.512   8.204   0.706  0.0095 -0.0326  0.1796
24431W        W67447  32.615  16.442  11.660  0.1138  0.1292 -0.0072
24432W        W67448  16.831  28.964   5.774 -0.4318 -0.1494 -0.0057
24433W        W67449  21.423  17.643   3.022 -0.0568 -0.0400 -0.0737
24434W        W67450  10.966  30.866  26.960  0.0593 -0.0761 -0.0320
24435W        W67451   8.319  15.780   5.073 -0.1674  0.0804 -0.0021
24436W        W67452  14.354  14.409   7.148  0.3187  0.1959 -0.1792
24437W        W67453  14.912   6.919   8.415  0.3286  0.2317  0.1077
24438W        W67454  25.176  22.365   3.599  0.0110  0.4704  0.0918
24439W        W67455  17.561   2.877   1.958  0.1999 -0.2151  0.4674
24440W        W67456  29.146   9.470   4.006  0.1291  0.3078  0.0711
24441W        W67457  24.065  20.802   7.672 -0.0719  0.3077  0.1293
24442W        W67458  11.709  17.939   1.849  0.3416  0.0260 -0.1415
24443W        W67459  21.040   3.888   7.394 -0.0281 -0.4096  0.3239
24444W        W67460  12.271  19.799   0.371  0.0372 -0.0366  0.1482
24445W        W67461  18.262  17.177   7.632  0.0453 -0.1075  0.2014
24446W        W67462  31.822  17.694  25.231 -0.0493  0.1478  0.1881
24447W        W67463   5.918  31.308   7.425  0.2190  0.0925  0.0855
24448W        W67464   6.419   9.581   2.418 -0.2986  0.2679  0.1082
24449W        W67465  25.558  33.379   8.335  0.0521  0.2552 -0.0436
24450W        W67466   8.123  11.050   9.143 -0.0226 -0.2881 -0.2860
24451W        W67467  10.778   0.230   1.173 -0.1687  0.1533  0.3005
24452W        W67468  33.218  13.795   9.560  0.0226 -0.0299  0.2802
24453W        W67469  23.391  12.273  24.643  0.0884  0.1222  0.2619
24454W        W67470  25.262   6.654   8.657 -0.2920  0.2133 -0.2316
24455W        W67471  17.651  11.656   0.724 -0.1521 -0.1518 -0.0889
24456W        W67472  22.660   9.064   2.890  0.2083 -0.1417  0.1555
24457W        W67473  26.007  13.084   1.954  0.0290 -0.2168  0.2892
24458W        W67474   3.458  11.245   4.819  0.2205  0.1982  0.0385
24459W        W67475  27.475   5.975   9.117 -0.1658  0.0598  0.1547
24460W        W67476   2.404  14.634  29.121 -0.0226  0.1575  0.0452
24461W        W67477   0.513  30.320  26.250 -0.1267 -0.0663 -0.0180
24462W        W67478  15.900  25.037  29.169 -0.0386 -0.1657 -0.0345
24463W        W67479  13.866  18.969  28.119  0.0424  0.2377 -0.1630
24464W        W67480  22.830   8.410   7.781 -0.0811  0.0108  0.1895
24465W        W67481   8.113  16.477  23.807  0.2926  0.0340  0.4295
24466W        W67482  28.195  15.321   7.347  0.0455  0.0911  0.1059
24467W        W67483  27.233  13.952   9.391 -0.1484  0.0114 -0.0402
24468W        W67484   9.112  29.321   8.996 -0.1356 -0.0930 -0.1792
24469W        W67485  19.902   2.866   5.350  0.0705  0.4624  0.1294
24470W        W67486  18.544  28.234   4.477 -0.3320 -0.0144  0.0473
24471W        W67487  24.090  17.807  29.267 -0.0492  0.2713 -0.2143
24472W        W67488  15.334  15.193   6.788 -0.1981 -0.1421  0.0772
24473W        W67489  28.059   9.180   6.843  0.2815  0.1280 -0.0937
24474W        W67490  16.534  19.130   0.574 -0.4877 -0.4088 -0.0029
24475W        W67491   0.411  20.948   8.866 -0.1764  0.1229 -0.1590
24476W        W67492  19.305  28.994   6.945 -0.1689 -0.1094 -0.1161
24477W        W67493  23.868  13.868   6.829  0.1120  0.1120 -0.2054
24478W        W67494   2.924  23.937  26.771 -0.3304  0.1965 -0.0952
24479W        W67495   8.959  15.124   1.675 -0.2066 -0.2467  0.1386
24480W        W67496  25.626  17.045  20.758 -0.1244  0.2390 -0.2735
24481W        W67497  23.077  16.974   9.190 -0.0447 -0.3316  0.0030
24482W        W67498  20.286  21.444  28.440  0.0081  0.1851 -0.1425
24483W        W67499  22.925  15.941  26.470 -0.2196  0.0596 -0.0680
24484W        W67500  23.558  16.298   2.529 -0.3023  0.0908 -0.2445
24485W        W67501   9.348  12.531   6.365  0.0962 -0.0899  0.0018
24486W        W67502   7.945  15.122   3.328  0.0133 -0.2400 -0.0949
24487W        W67503  13.731  33.051  27.879 -0.0015  0.1109 -0.2235
24488W        W67504  22.409  15.589  28.700 -0.0347  0.0876  0.2348
24489W        W67505  28.503  13.222  25.501  0.1138  0.0233 -0.1764
24490W        W67506  31.162   1.217   2.954 -0.0289 -0.2679  0.0646
24491W        W67507  24.928  30.893   9.601  0.0758 -0.0216 -0.1852
24492W        W67508  27.888   4.562   2.964  0.0604  0.0168 -0.3138
24493W        W67509  21.392  13.925  16.413  0.0539  0.1165 -0.3179
24494W        W67510  33.365  23.342   8.664 -0.0036 -0.0667 -0.1522
24495W        W67511  29.053  18.653   9.040  0.4836 -0.1216  0.0239
24496W        W67512  18.508  16.550  25.865 -0.1851  0.0398  0.2051
24497W        W67513  30.507   5.853   8.546 -0.0359 -0.1124  0.0329
24498W        W67514  22.379  25.132   9.716  0.0124  0.3315 -0.3207
24499W        W67515  22.135  12.712   3.249  0.1764  0.0630 -0.2391
24500W        W67516  20.337  14.810  21.417 -0.0623 -0.3844 -0.3296
24501W        W67517  30.569  18.190   5.545  0.1561 -0.3676  0.0672
24502W        W67518  31.197  11.662   5.830  0.3377 -0.1473  0.2373
24503W        W67519  16.810   5.525  10.814  0.1736  0.1002 -0.1482
24504W        W67520  18.703  18.363  22.158 -0.0505 -0.2691 -0.2815
24505W        W67521  25.319  13.411   6.559 -0.2589  0.0904  0.2262
24506W        W67522   3.851   8.242  26.095 -0.3024  0.2757  0.0611
24507W        W67523  17.140  22.424   1.952 -0.1577 -0.0784  0.0394
24508W        W67524  11.964  18.760   4.328 -0.1441 -0.3422 -0.3086
24509W        W67525  15.309  31.338  19.347 -0.0733 -0.0472 -0.0009
24510W        W67526  21.583  20.021  23.477  0.2487  0.4218 -0.0594
24511W        W67527  15.047   0.382  10.591 -0.1339  0.1276 -0.5253
24512W        W67528  11.433  27.755   4.154  0.2956 -0.1879  0.2177
24513W        W67529  21.834  12.176  26.748  0.0980  0.3201  0.2245
24514W        W67530  16.970  14.528   6.803  0.2057 -0.1066 -0.2284
24515W        W67531  27.572  12.289   9.481 -0.0543 -0.0851  0.2594
24516W        W67532  16.482  20.482   6.455  0.0838  0.2263 -0.0101
24517W        W67533  26.413   5.592   9.905  0.0259 -0.3743 -0.2420
24518W        W67534  33.605  27.994   7.402  0.1438 -0.0582  0.1782
24519W        W67535  33.079  12.728  25.629 -0.1763 -0.1285  0.4096
24520W        W67536  22.902  25.218   7.031  0.2235  0.1139  0.1067
24521W        W67537  25.669   7.747  10.894  0.1187  0.0477  0.5093
24522W        W67538   7.434  29.920   6.523 -0.0379  0.1474 -0.1572
24523W        W67539  28.208  20.709   7.993 -0.0433  0.0634 -0.0496
24524W        W67540   0.220   9.356  17.953  0.1872 -0.0346 -0.0255
24525W        W67541  14.881  33.394   5.824 -0.0228  0.3344 -0.1440
24526W        W67542  27.102  17.495   2.036 -0.0989 -0.0108 -0.1302
24527W        W67543  18.109  13.688   1.593 -0.2237  0.0688  0.1968
24528W        W67544  11.028  12.634   7.707 -0.2484 -0.1782  0.3240
24529W        W67545   3.160  29.581   8.031  0.2094  0.0747 -0.2396
24530W        W67546  31.074  12.155   9.211  0.0861 -0.2396 -0.3285
24531W        W67547  27.995  11.335   1.874 -0.2551 -0.1128  0.1726
24532W        W67548  23.956  27.827  25.430 -0.2336  0.1793 -0.1552
24533W        W67549  14.524   5.451   0.748 -0.0875 -0.2920 -0.1345
24534W        W67550  30.301   8.563   0.930 -0.0465  0.2132 -0.0125
24535W        W67551   9.367  24.348   8.621  0.1222  0.0827 -0.0890
24536W        W67552  32.771   5.925   8.473  0.1533 -0.1883 -0.1060
24537W        W67553  12.717   9.393   7.921  0.2169  0.0462  0.2561
24538W        W67554   3.932  29.981   7.851 -0.0316 -0.0191  0.2415
24539W        W67555  24.775   8.580   7.931 -0.1042  0.0157 -0.1755
24540W        W67556   4.056  23.870   2.053 -0.2097  0.1375  0.1168
24541W        W67557  19.092   2.100  10.389  0.3067 -0.0661 -0.1776
24542W        W67558  11.776  12.478   7.737  0.0366  0.1566  0.0443
24543W        W67559  28.919  31.674   8.134  0.3257  0.3266 -0.1452
24544W        W67560  29.209   3.579  29.249 -0.0413 -0.0542 -0.0816
24545W        W67561  25.105  10.020   7.381  0.2859  0.0320 -0.3358
24546W        W67562  32.786  23.283  22.178  0.0790 -0.0919  0.1693
24547W        W67563  33.024  19.259  10.323 -0.1357 -0.1764 -0.1540
24548W        W67564  17.930  12.163  23.911 -0.1760 -0.1030 -0.0457
24549W        W67565  28.414  21.460  10.420 -0.0618  0.0503  0.0462
24550W        W67566  20.647  24.180   8.233  0.0306  0.2575 -0.2200
24551W        W67567  26.913  23.575   7.305  0.0380 -0.0595 -0.1015
24552W        W67568  10.112  12.660   7.915  0.0018  0.0909  0.0293
24553W        W67569  24.024  15.795  28.608  0.2665  0.1699 -0.0745
24554W        W67570  24.330  11.671   4.918  0.1488  0.0355 -0.2180
24555W        W67571  28.849  23.185  25.390  0.2536  0.0497 -0.0857
24556W        W67572  19.100  17.741  21.547 -0.1014 -0.1261 -0.1451
24557W        W67573  16.825  29.585  25.457 -0.2616 -0.3882  0.0122
24558W        W67574  23.561  17.392   6.368 -0.0978  0.4881 -0.3833
24559W        W67575  34.204  11.857   2.731  0.1421  0.0221 -0.0696
24560W        W67576  33.220  24.179   8.229 -0.0211  0.0994  0.0032
24561W        W67577  33.745  17.960   3.008  0.1333 -0.1583 -0.0014
24562W        W67578  26.995  20.181   6.392  0.1944  0.0041 -0.1534
24563W        W67579  20.419  11.378   5.859  0.5663 -0.3802  0.0141
24564W        W67580  12.879  18.947   7.460  0.0972 -0.2332  0.0616
24565W        W67581  23.743  32.806  25.366 -0.0893  0.0364 -0.0985
24566W        W67582  32.583  20.027  10.662 -0.1583 -0.1155  0.0234
24567W        W67583  18.379  23.619   1.932  0.0587  0.0300 -0.1085
24568W        W67584  28.677  16.555   9.597 -0.0666 -0.2356 -0.2728
24569W        W67585   0.890  12.781   3.676 -0.0653  0.1043  0.2809
24570W        W67586   6.911  18.448   0.288  0.1378 -0.0854 -0.0526
24571W        W67587  26.194  17.723  10.667 -0.3372  0.0746  0.2621
24572W        W67588  21.095   9.716   6.125  0.0367 -0.4565  0.0697
24573W        W67589  10.728  16.855  22.630  0.2638 -0.2710 -0.4336
24574W        W67590  17.423  17.086   5.196 -0.0373  0.2679  0.1209
24575W        W67591  33.788  10.409   6.038 -0.1063  0.1343 -0.1426
24576W        W67592   6.374  17.822   8.482  0.2212 -0.3446  0.1850
24577W        W67593  25.505   0.128   5.038  0.0145 -0.0969  0.3876
24578W        W67594  28.837   0.841   5.913  0.1972  0.1589 -0.4457
24579W        W67595  32.132  13.139   3.972 -0.0840 -0.2686  0.0328
24580W        W67596   0.911  20.764   4.243 -0.0798  0.0723 -0.1601
24581W        W67597  33.947  15.170   3.055  0.1542  0.0616 -0.1284
24582W        W67598  12.788  22.315  23.166  0.3454 -0.2168 -0.1579
24583W        W67599  14.969  18.361   6.118  0.2032  0.3421 -0.0753
24584W        W67600  22.744  19.726   2.426  0.0389 -0.0473  0.0104
24585W        W67601   0.577  14.715   7.143 -0.0055 -0.0921 -0.1389
24586W        W67602  25.890  26.164  12.345 -0.0426 -0.1825  0.2056
24587W        W67603  26.155  18.709   6.740 -0.0232 -0.1439  0.2954
24588W        W67604  26.082   9.886   1.744 -0.1059  0.0025  0.0354
24589W        W67605   2.517  18.817   1.475  0.0751  0.1856 -0.2980
24590W        W67606  10.741  12.496   5.972  0.2712 -0.1698  0.0232
24591W        W67607  15.545  33.549   8.699  0.3330  0.1029 -0.0961
24592W        W67608  15.606  10.405   0.385 -0.2356 -0.2573  0.2626
24593W        W67609  30.203  25.720   7.231  0.2123 -0.3247  0.0407
24594W        W67610   8.446  20.838   4.309  0.0884  0.0994 -0.1353
24595W        W67611   1.112   8.173   2.184 -0.1512 -0.0778  0.1064
24596W        W67612   0.325   9.267  24.841  0.2200  0.4646 -0.0797
24597W        W67613  17.629   0.477  22.463  0.3243 -0.1750  0.1518
24598W        W67614  24.407  16.420  27.733  0.1213  0.0224 -0.1195
24599W        W67615  14.386  10.450  16.628 -0.0427  0.4341 -0.0504
24600W        W67616  22.464  16.548  25.744 -0.0860 -0.1347 -0.0028
24601W        W67617  21.652   5.610   3.928  0.1685  0.0555  0.3216
24602W        W67618  23.493  12.585   5.429 -0.0259  0.1077 -0.0758
24603W        W67619  24.818  26.435  19.909 -0.2731 -0.0149 -0.1260
24604W        W67620  31.199  15.413   2.138 -0.0654  0.1805 -0.0228
24605W        W67621   2.481  27.215   8.847  0.2804 -0.1295 -0.0085
24606W        W67622  18.446  29.150  19.675  0.0563 -0.1864 -0.1582
24607W        W67623  22.759  19.721  21.065  0.3234 -0.0803  0.1336
24608W        W67624   5.218  24.905   6.052 -0.2221 -0.1222 -0.1431
24609W        W67625  19.097  21.676  29.277 -0.5059  0.0529  0.1282
24610W        W67626  21.332  10.867   5.345 -0.1585 -0.2635 -0.0272
24611W        W67627  31.913  22.502   8.645  0.0093  0.0250  0.0444
24612W        W67628  25.991  12.751  24.141  0.0915 -0.0378 -0.4460
24613W        W67629  33.018  11.281   5.752 -0.1327  0.3064  0.0676
24614W        W67630   0.418  16.757  10.156 -0.0015 -0.0442 -0.1307
24615W        W67631   0.294  19.829   3.970  0.1831 -0.0970 -0.0703
24616W        W67632  18.668  31.583   6.286  0.2018  0.1643  0.1224
24617W        W67633  24.564   0.311   9.101 -0.0682 -0.0604  0.3016
24618W        W67634  28.608  12.463   2.557 -0.1725  0.1402 -0.1532
24619W        W67635  14.335  20.373   3.560  0.0447  0.1521  0.2711
24620W        W67636   4.859  19.272   8.342  0.1224 -0.0991  0.2268
24621W        W67637   6.071  13.554   8.455  0.3043 -0.3059  0.4073
24622W        W67638  19.123  11.814  29.094  0.0352  0.0967  0.2624
24623W        W67639  13.499   5.321  27.820  0.0154  0.1345 -0.0371
24624W        W67640  21.853   3.209   7.299  0.1343 -0.0311 -0.0244
24625W        W67641  28.275   8.417   9.300  0.1378  0.0425 -0.0323
24626W        W67642  31.152   8.394   8.270  0.4307 -0.0965 -0.2416
24627W        W67643   0.124   0.986   1.547 -0.1789  0.0207 -0.0325
24628W        W67644   2.337  18.396   3.415  0.0632  0.1973  0.0244
24629W        W67645  25.915  21.953   0.881 -0.2282 -0.2022 -0.5330
24630W        W67646  23.782  15.803  26.974  0.0828  0.0271  0.3773
24631W        W67647   6.286  25.216   7.593 -0.1084 -0.1931 -0.0863
24632W        W67648   0.814  20.752   2.873  0.0307  0.0204 -0.0765
24633W        W67649  22.105  29.887  16.998 -0.0727 -0.0302 -0.0096
24634W        W67650  14.935  18.903   8.430  0.3150  0.1360 -0.0949
24635W        W67651  22.568  28.460  16.274  0.3371  0.1695 -0.0589
24636W        W67652  30.442  19.084   2.424 -0.0172  0.0200  0.1119
24637W        W67653   4.756  19.668  25.051  0.2445 -0.0408  0.0636
24638W        W67654  20.336  16.954  23.614 -0.1968  0.0753 -0.1932
24639W        W67655  24.710  20.530   3.879  0.0836 -0.0590  0.0286
24640W        W67656  30.018  16.210   1.823 -0.2926 -0.0499  0.2593
24641W        W67657  26.306  16.441   2.620  0.0246  0.0520 -0.3115
24642W        W67658  31.264  18.824  29.014 -0.1238 -0.0303 -0.0407
24643W        W67659  17.847  28.411   1.602  0.0801 -0.0246 -0.1917
24644W        W67660  27.681  21.734  21.899  0.6946  0.0811  0.0932
24645W        W67661   7.255  19.716   8.876 -0.1215  0.0212 -0.2456
24646W        W67662  21.482  33.259  15.306  0.1018  0.0455  0.0473
24647W        W67663   1.037  31.283   9.629 -0.2136 -0.1114 -0.0053
24648W        W67664  13.998  22.932  23.900  0.1688 -0.0421  0.0739
24649W        W67665  25.059  12.723   9.361  0.1744 -0.0758  0.0570
24650W        W67666  26.811   6.359   1.101 -0.1143 -0.1460 -0.0113
24651W        W67667  21.243  22.041   8.737 -0.1307  0.1726 -0.1800
24652W        W67668  18.233  21.359   0.094  0.0012 -0.1278 -0.0743
24653W        W67669  18.031  18.965   7.530 -0.1546  0.0601  0.0593
24654W        W67670  24.530  21.226   2.808 -0.1331  0.0072  0.0834
24655W        W67671  12.125  13.899  26.688  0.2797  0.0994 -0.0759
24656W        W67672  16.587  10.642   1.902  0.0853  0.2142  0.0541
24657W        W67673   3.775  21.454  23.113 -0.3162 -0.0723 -0.1254
24658W        W67674  11.643  23.875  22.248  0.1364 -0.0003 -0.1372
24659W        W67675  21.155  15.148   0.354 -0.0870 -0.3009  0.0552
24660W        W67676  33.456   2.368  18.257  0.1168 -0.4167 -0.0962
24661W        W67677   1.688   7.366   0.928  0.2020  0.0462  0.2002
24662W        W67678  34.022   1.647   2.775 -0.0603  0.1485 -0.0476
24663W        W67679  30.872  10.684  20.032  0.1933  0.2202 -0.0049
24664W        W67680  31.977   1.878  26.159  0.1062 -0.1297 -0.1253
24665W        W67681   4.023  17.955  27.232 -0.0303  0.3196 -0.0119
24666W        W67682  28.467  29.462  27.432  0.0039 -0.1784  0.0302
24667W        W67683  18.472  34.382  24.695 -0.0329  0.2178  0.0391
24668W        W67684  20.934  29.473   7.366  0.0378 -0.0060  0.1431
24669W        W67685  22.233  21.589   8.405  0.1125 -0.3904 -0.0994
24670W        W67686  14.102   4.120  21.398  0.0663 -0.1800 -0.0269
24671W        W67687  17.906  21.990   0.862 -0.3960  0.0135  0.1193
24672W        W67688  25.868  23.880  23.201  0.0582  0.0626 -0.0476
24673W        W67689  30.021  28.947   9.323  0.2741 -0.1875  0.0837
24674W        W67690  17.238   0.876  29.006 -0.2226 -0.1365  0.2368
24675W        W67691  21.521  22.602   3.432  0.0180  0.2381 -0.1549
24676W        W67692  10.465  30.254  27.290 -0.2356 -0.0578  0.4439
24677W        W67693  21.301  14.211   2.688 -0.3073  0.0266  0.2845
24678W        W67694  33.334  32.233  23.554 -0.3120 -0.0751 -0.0892
24679W        W67695  27.308  28.513  28.084  0.3693 -0.1049  0.0184
24680W        W67696  21.658   1.365  23.627  0.1958 -0.1957  0.2501
24681W        W67697  24.708   4.632   6.086  0.0679 -0.0038  0.1043
24682W        W67698  30.871  29.027  11.158  0.0142  0.1805  0.0519
24683W        W67699  30.096  12.078  28.811 -0.0599  0.1560 -0.0278
24684W        W67700  33.290  19.769   7.004 -0.1637 -0.3265 -0.1066
24685W        W67701  15.685  28.888   5.271  0.0497  0.1706 -0.1795
24686W        W67702  18.854  13.317   2.083  0.1395 -0.1965 -0.0564
24687W        W67703  31.882  16.875   7.566  0.1977  0.1966 -0.3141
24688W        W67704  20.293   4.070   1.753  0.3722 -0.1279 -0.2712
24689W        W67705   5.425  25.108   3.287  0.0438 -0.1986  0.0648
24690W        W67706  33.348  14.055   5.618 -0.4648 -0.0538  0.3189
24691W        W67707  21.079  18.890   5.098  0.1460  0.0638 -0.2245
24692W        W67708  21.520  27.101  25.836  0.5856 -0.2433 -0.1184
24693W        W67709  11.340  26.765   6.427 -0.1894 -0.0699 -0.3113
24694W        W67710  21.794  25.841   9.160 -0.2004 -0.1361  0.2718
24695W        W67711  16.087  23.472  26.689  0.3000 -0.0214  0.0248
24696W        W67712  19.434  10.483   5.463  0.0263 -0.0880 -0.4180
24697W        W67713  20.766   7.234   9.533 -0.0515 -0.1104  0.3221
24698W        W67714   8.022  19.965   4.462 -0.1048 -0.1756  0.0619
24699W        W67715  26.315  24.288  21.914 -0.1462  0.1391 -0.0745
24700W        W67716   0.509   0.409  28.381 -0.2478 -0.1551  0.0063
24701W        W67717  21.657  22.929  21.811 -0.1281  0.0507 -0.1005
24702W        W67718  30.852  18.210   8.229 -0.0767 -0.0554  0.0720
24703W        W67719  28.999   2.699   6.125 -0.1449 -0.0685 -0.1697
24704W        W67720  19.386  24.728   2.202  0.2392 -0.2077 -0.0554
24705W        W67721  22.041  24.012  27.118  0.1990 -0.2694  0.3068
24706W        W67722  14.720  20.785  24.931  0.2410 -0.1393 -0.1908
24707W        W67723  23.869  19.313   8.210  0.0871 -0.0867  0.0723
24708W        W67724  29.670   5.807   2.937 -0.3120  0.0834 -0.0480
24709W        W67725   5.610  30.265  22.299 -0.1891 -0.1242  0.3040
24710W        W67726  30.428   9.811  10.145 -0.2585 -0.2724 -0.1157
24711W        W67727  32.548  29.534  25.815 -0.0436  0.3417 -0.0774
24712W        W67728  14.216  31.654   6.167 -0.0550  0.2659 -0.0797
24713W        W67729  23.296   9.735  20.694 -0.1874 -0.3196 -0.0229
24714W        W67730  19.297  26.713   6.747  0.2882 -0.2991 -0.1022
24715W        W67731  25.474  12.469  14.225 -0.0286  0.1677  0.1616
24716W        W67732  25.887  15.155   9.699 -0.1058 -0.1721 -0.3864
24717W        W67733  24.025  17.134   9.075 -0.1981  0.0818  0.0956
24718W        W67734  29.594   0.405  28.456 -0.0727  0.3268  0.1702
24719W        W67735  17.657  33.161   2.443  0.3526 -0.0030  0.0896
24720W        W67736  29.895  15.041   0.619  0.0009  0.1607  0.0946
24721W        W67737   5.701  16.264  19.160  0.0126 -0.0397 -0.0461
24722W        W67738   9.382   5.713   3.824 -0.0546 -0.4410  0.0266
24723W        W67739  15.562  31.961  10.637 -0.1215 -0.2567 -0.1890
24724W        W67740  27.478  23.947  27.239  0.0083  0.2443  0.0557
24725W        W67741  26.166  29.290   8.953 -0.0328  0.1151  0.2655
24726W        W67742  11.628   6.093   3.646 -0.1541  0.1251  0.2530
24727W        W67743  14.924  14.542  28.571  0.0156  0.0623 -0.2698
24728W        W67744  18.950  28.421   2.435  0.2002 -0.2715 -0.1319
24729W        W67745  13.284   2.873   5.727  0.0256 -0.0478  0.3619
24730W        W67746  14.712  20.522  25.698 -0.0252  0.0951 -0.0014
24731W        W67747  31.838  26.495   5.564 -0.1201  0.1320 -0.0487
24732W        W67748   9.210  14.089  26.262  0.1042  0.1738 -0.3029
24733W        W67749  10.603  22.190   8.022 -0.0248 -0.1184 -0.2382
24734W        W67750  14.852  15.691   1.817 -0.1266  0.0336  0.1877
24735W        W67751  21.727  20.459   8.886 -0.0631 -0.1408  0.1543
24736W        W67752  26.983  18.678   8.045 -0.1325  0.1363 -0.0385
24737W        W67753  28.546  17.500  27.043  0.5193 -0.0315 -0.0867
24738W        W67754  18.119  34.482   9.393 -0.0650 -0.1784 -0.0436
24739W        W67755  10.340  25.656  24.601 -0.2713 -0.3480 -0.2077
24740W        W67756  12.019  22.940  28.265 -0.2004 -0.2225  0.2546
24741W        W67757  13.876  15.497   6.123  0.1072  0.5273 -0.0726
24742W        W67758  14.745  25.953  18.481 -0.0377  0.0706 -0.2619
24743W        W67759  25.557  28.382   8.944  0.0666  0.1510 -0.0053
24744W        W67760  19.947  15.900   1.525 -0.0256  0.2521  0.1852
24745W        W67761  12.170  13.865  16.915 -0.2754  0.1718  0.0860
24746W        W67762   0.126  15.808   6.954 -0.3216  0.3593 -0.3491
24747W        W67763  32.471  33.088   7.656  0.2102 -0.0354  0.0984
24748W        W67764  26.208   3.010   8.792 -0.0196 -0.5315  0.2102
24749W        W67765  29.377  32.184  10.529  0.2676 -0.1021 -0.1185
24750W        W67766  24.787  19.623  28.222 -0.2018 -0.0841  0.0220
24751W        W67767  17.307  14.839   7.315  0.0792  0.4469  0.2500
24752W        W67768  15.266  18.540  28.879 -0.2199 -0.1587  0.0206
24753W        W67769  18.053  33.320   4.916 -0.0661 -0.0496  0.2397
24754W        W67770  19.667  30.380  24.947 -0.2847  0.1221 -0.3324
24755W        W67771  29.189   6.418   7.733  0.1875 -0.4061  0.1543
24756W        W67772  10.183  20.643   1.960  0.1631 -0.1213 -0.0122
24757W        W67773  22.271  33.526  10.196  0.1472  0.4700 -0.0843
24758W        W67774  15.801  31.606   9.507 -0.2533 -0.1779  0.0980
24759W        W67775  20.682  21.716  15.642 -0.0595  0.1147 -0.0837
24760W        W67776  11.542  22.542  28.855 -0.3695  0.0773  0.4692
24761W        W67777  27.174  11.993   6.812  0.2809 -0.2031  0.0010
24762W        W67778  11.009  17.991   1.298 -0.0192 -0.1586  0.2532
24763W        W67779  34.307  24.291   6.431 -0.3255  0.1105 -0.0848
24764W        W67780  14.623  20.142  23.216 -0.0709  0.3204 -0.0438
24765W        W67781  26.220  14.069   1.700  0.0825  0.3450 -0.0996
24766W        W67782  31.268  18.804  10.317  0.1896  0.2128 -0.1059
24767W        W67783  18.365  22.260   5.671 -0.1391 -0.0413 -0.0977
24768W        W67784  26.837  28.886   8.770  0.0688  0.0745 -0.0032
24769W        W67785  24.135   0.339  26.724 -0.1322  0.1138 -0.2977
24770W        W67786  22.323  18.068  24.830  0.1961 -0.3326  0.2702
24771W        W67787  27.450   5.985  26.403 -0.0077  0.1349 -0.1289
24772W        W67788  23.036   9.044   0.147  0.0471 -0.2723 -0.2433
24773W        W67789   0.082  10.606   5.209  0.1650  0.0745 -0.1638
24774W        W67790  30.669  26.458  18.026  0.0320 -0.2202  0.0223
24775W        W67791  34.085  13.927   5.122  0.1262  0.0295  0.0348
24776W        W67792  30.720  28.949   4.946 -0.0126 -0.0547 -0.0552
24777W        W67793   3.987  23.248   4.133  0.2410 -0.0904  0.2482
24778W        W67794  27.650  22.066  24.546  0.0625  0.2139  0.1755
24779W        W67795   7.068   1.098   7.856  0.1330 -0.2132  0.1554
24780W        W67796  13.956  15.055   7.293  0.1029  0.0800 -0.1285
24781W        W67797  33.683  23.575   4.974  0.0691  0.0883 -0.2633
24782W        W67798  23.931  23.532  25.471  0.0609  0.1449 -0.1450
24783W        W67799  30.340  23.172  20.515  0.0087  0.1116  0.2489
24784W        W67800  24.212  13.491   1.758 -0.0136 -0.0101  0.1421
24785W        W67801  28.388  23.539  20.871 -0.0461  0.1826  0.0209
24786W        W67802  16.185  33.342   6.286  0.4085  0.0048  0.0072
24787W        W67803   2.361   6.014   2.596  0.0616 -0.1916 -0.0133
24788W        W67804  14.895   8.311   4.426  0.1602  0.0519 -0.0444
24789W        W67805  25.393  18.219  25.743 -0.1945 -0.0180  0.3200
24790W        W67806   1.183  21.459  27.192 -0.1949 -0.0981  0.0560
24791W        W67807  21.121  23.969   3.279 -0.0595 -0.2843 -0.0413
24792W        W67808   1.153  19.753  21.210  0.3159 -0.2010  0.0414
24793W        W67809   4.899  25.308   4.463  0.1897 -0.0387  0.1453
24794W        W67810  12.169  11.332   7.959 -0.4392  0.2432 -0.0127
24795W        W67811  14.331  26.231  28.037  0.1117 -0.1484  0.0709
24796W        W67812  26.056   6.539   1.878  0.2964 -0.2411 -0.1624
24797W        W67813  20.248  20.137   3.296  0.1491 -0.0247 -0.2065
24798W        W67814  33.289  19.382  28.798  0.1464 -0.0640 -0.1899
24799W        W67815   5.863  24.530   3.050  0.3135  0.0083  0.0871
24800W        W67816  21.741   7.900  23.567  0.1798  0.1963 -0.2194
24801W        W67817   6.355   5.700  27.946  0.1581 -0.1026  0.1094
24802W        W67818  21.805   8.744  27.324 -0.1850 -0.1704 -0.3887
24803W        W67819  11.486  22.495  27.353 -0.2334  0.0349 -0.1235
24804W        W67820  24.513  22.103  10.140  0.3467 -0.0411  0.0346
24805W        W67821  30.461  30.670   7.341  0.0632 -0.2209  0.0381
24806W        W67822  30.239  11.061  24.462  0.3138  0.0269  0.0030
24807W        W67823  18.038  24.585   5.751 -0.1966  0.3286  0.0502
24808W        W67824  19.134  17.436  19.362  0.0125  0.0122 -0.1595
24809W        W67825  30.117  31.495  12.091  0.0627 -0.4068  0.0402
24810W        W67826  17.196  33.037   9.620 -0.0277  0.1220 -0.0336
24811W        W67827  22.993  20.840  26.286 -0.2401  0.3608  0.0585
24812W        W67828  22.039  13.633   1.506 -0.2258  0.1577  0.1624
24813W        W67829  18.633  15.899  25.848  0.0500  0.1849 -0.0876
24814W        W67830  11.058   8.239   4.865 -0.3622 -0.3070  0.0738
24815W        W67831  24.039  26.269   3.762  0.1260 -0.1149  0.0043
24816W        W67832   0.805  15.080   8.002  0.2393 -0.0564  0.0520
24817W        W67833  27.152  23.057   5.266  0.0718 -0.2031  0.0486
24818W        W67834  24.505  33.294  24.170  0.0823 -0.0416  0.4540
24819W        W67835  18.802  15.224  28.559 -0.1082  0.2881 -0.0428
24820W        W67836  14.144  18.001  22.182 -0.2580  0.0435 -0.0824
24821W        W67837  25.280  18.984  22.188  0.0898 -0.2333 -0.0723
24822W        W67838  21.834  14.628   2.029 -0.0860  0.2414  0.2268
24823W        W67839  16.899  31.388  22.511  0.0918  0.2654 -0.2131
24824W        W67840  27.478  19.912   2.859  0.3831  0.1310  0.3775
24825W        W67841   1.328  26.090  22.902 -0.0303  0.1676 -0.1264
24826W        W67842  22.456  18.510  21.487 -0.4015  0.1188 -0.0607
24827W        W67843  23.500  23.103   3.482  0.1208 -0.1435 -0.2819
24828W        W67844  17.186   5.996  21.422  0.0032 -0.3153 -0.0514
24829W        W67845  16.540  17.053  18.957 -0.1559  0.2586 -0.0807
24830W        W67846  31.582  22.375   8.973 -0.1461 -0.0945 -0.2572
24831W        W67847  13.110  13.134   4.659 -0.2422 -0.0492 -0.2986
24832W        W67848  32.750  19.672   1.500 -0.2734 -0.0898 -0.2353
24833W        W67849   8.691  20.409   0.419 -0.2556  0.3033  0.2187
24834W        W67850   3.969   2.029   8.997 -0.0764  0.0977 -0.0461
24835W        W67851  28.486   4.749  20.983 -0.4355  0.2547 -0.0055
24836W        W67852  26.743  19.296  28.336 -0.1343 -0.1817  0.2199
24837W        W67853  27.075  32.424  20.028 -0.0925  0.0717  0.0481
24838W        W67854  13.781  13.725   3.414 -0.0101 -0.2031  0.0741
24839W        W67855  18.722  12.927  22.052 -0.0398 -0.0813  0.1196
24840W        W67856  12.339   4.530   7.425 -0.2621  0.1911 -0.2180
24841W        W67857  28.319  31.166  10.400  0.1438 -0.0002  0.1181
24842W        W67858  27.411  22.037   1.040  0.0417  0.0181 -0.0555
24843W        W67859  25.246  25.039  15.859  0.0980 -0.2209  0.1752
24844W        W67860  26.984  10.644   7.386 -0.0356 -0.2122  0.1852
24845W        W67861  23.406  25.041  24.538 -0.0437  0.0893 -0.0182
24846W        W67862  27.882  28.474   7.560 -0.2681  0.1067  0.3212
24847W        W67863   2.202  19.959   0.695  0.2140  0.0233 -0.1503
24848W        W67864  26.689  24.087   3.993 -0.2642 -0.0552 -0.1613
24849W        W67865  31.676  24.613   8.412  0.0892 -0.1785 -0.2220
24850W        W67866  34.319  17.265   4.831  0.0163  0.1181 -0.3013
24851W        W67867  13.748   8.820   1.451 -0.4330 -0.1792  0.1480
24852W        W67868  20.900  13.876  25.024 -0.0475  0.3023 -0.2052
24853W        W67869  28.407  27.795   0.161  0.0823  0.0403 -0.1048
24854W        W67870   1.002  23.344  16.552  0.0918 -0.0816 -0.0982
24855W        W67871  19.831  16.418   2.576  0.2431  0.1173  0.0399
24856W        W67872  13.449   6.493  25.820  0.0519  0.1145  0.2383
24857W        W67873  20.678   6.654  22.999 -0.0638  0.0723 -0.0617
24858W        W67874  16.710  14.739   8.230 -0.3583 -0.1494  0.0471
24859W        W67875  26.499   2.189   5.381  0.3801 -0.3248  0.0969
24860W        W67876  23.262  11.719   6.689 -0.0522  0.1435 -0.0649
24861W        W67877  33.719  19.138   4.249  0.2268 -0.0073 -0.0076
24862W        W67878   7.739   8.661   2.783  0.2723 -0.1320  0.0836
24863W        W67879   8.673  27.075   6.365 -0.2107  0.2307 -0.0461
24864W        W67880  33.064   7.163   4.099  0.0103  0.1723  0.1545
24865W        W67881   5.072  31.787   7.855  0.1088  0.0465  0.0813
24866W        W67882  17.701  20.302   0.435  0.2323  0.0629 -0.1627
24867W        W67883  18.028  19.840   4.155 -0.0525 -0.1555 -0.1913
24868W        W67884  32.908  16.703   9.165 -0.3532  0.2111  0.0140
24869W        W67885  23.834   5.436   4.269  0.2251  0.1845 -0.0514
24870W        W67886  27.866  29.726  21.934 -0.0695 -0.0782  0.1645
24871W        W67887  23.470  33.444   7.884 -0.2382 -0.2964  0.3129
24872W        W67888  23.209  27.597  22.527  0.0429  0.1637 -0.2890
24873W        W67889  16.711   0.395   8.782  0.1541  0.1042  0.1088
24874W        W67890  22.728  17.006   2.646 -0.2386  0.0712  0.1197
24875W        W67891  27.982   5.822  27.712  0.3013  0.2743 -0.1364
24876W        W67892  15.963   3.019  28.304 -0.0615 -0.1833  0.0967
24877W        W67893  24.189  14.041  27.806 -0.0177  0.1456  0.1801
24878W        W67894  30.046  29.133  19.953  0.0422 -0.1400 -0.1167
24879W        W67895  20.931  22.814   9.049  0.0103  0.1016 -0.2867
24880W        W67896  13.911   4.042  29.318  0.3964 -0.4232 -0.0329
24881W        W67897  16.329  20.886  24.647 -0.1430 -0.0058  0.3249
24882W        W67898  27.083  26.298   1.150  0.0920 -0.2957  0.0055
24883W        W67899  13.914  32.762   8.970  0.0393 -0.3639  0.0028
24884W        W67900  20.886   3.708  29.232 -0.0943 -0.1219 -0.0799
24885W        W67901   2.382  20.361   5.837 -0.3320 -0.0865  0.4071
24886W        W67902  12.597   4.426  26.763 -0.0312 -0.2514  0.0704
24887W        W67903  18.016  11.721  23.505 -0.2235  0.1099  0.0363
24888W        W67904  25.986  26.109   5.526 -0.0495  0.2931 -0.2739
24889W        W67905  10.376  24.764  28.714 -0.0932  0.2143  0.1787
24890W        W67906  25.512  26.750  26.624 -0.0609 -0.1246  0.1325
24891W        W67907  20.609  23.107   2.981 -0.0071  0.0534 -0.3811
24892W        W67908   6.957   1.898   6.391 -0.1275  0.1301 -0.1377
24893W        W67909  28.080  20.015   8.578  0.1927  0.3197  0.0284
24894W        W67910  21.311  16.238   4.815  0.2969 -0.0764  0.1970
24895W        W67911  12.366  28.072  28.815  0.2638 -0.0029 -0.1673
24896W        W67912  23.234  32.409  28.800  0.1282 -0.1815 -0.0465
24897W        W67913  34.154  24.010   4.390  0.0848  0.2888  0.1339
24898W        W67914  19.176  17.710  23.541  0.1091 -0.4063 -0.1042
24899W        W67915  32.079  15.192   1.214  0.2415 -0.2215  0.0220
24900W        W67916  15.295  25.277   5.063  0.0055  0.0722 -0.0841
24901W        W67917  29.530  32.439  21.667 -0.1830  0.1649 -0.0905
24902W        W67918   2.983  26.063   2.287 -0.1330 -0.0521  0.2969
24903W        W67919  29.414   1.777  27.497  0.0661  0.4349 -0.0163
24904W        W67920  28.798  23.398   8.541  0.0603  0.4696 -0.1282
24905W        W67921  20.265   8.799   8.515  0.1494  0.0678 -0.5550
24906W        W67922   4.956  19.741  28.646  0.0548 -0.3989  0.2535
24907W        W67923  17.585  11.771   7.373  0.0627  0.0158  0.0943
24908W        W67924  11.490  16.510   2.617  0.0999 -0.4467  0.3388
24909W        W67925  24.385  21.991   2.447  0.0323 -0.1882 -0.1684
24910W        W67926  33.642  25.152   8.250  0.0091  0.0855  0.0817
24911W        W67927  22.392  16.230   4.763  0.1430  0.0085  0.1604
24912W        W67928  12.034  15.947  22.384  0.0823  0.0346 -0.1325
24913W        W67929  24.098  12.209   7.491 -0.0688  0.1500  0.0540
24914W        W67930  23.057   1.215   9.331  0.2120 -0.2827  0.4562
24915W        W67931  28.184   2.287   4.913  0.0316  0.2223 -0.0377
24916W        W67932  26.165   1.108   8.394  0.2462 -0.0925 -0.1027
24917W        W67933  29.296  11.451   2.920  0.2787 -0.1006 -0.1347
24918W        W67934   7.586  15.043   8.307  0.0587  0.0912 -0.2370
24919W        W67935  24.703  24.228  10.049  0.1193 -0.2935 -0.0643
24920W        W67936   5.259  29.517   6.391  0.0859  0.3703  0.1531
24921W        W67937  10.946   9.228   9.721 -0.0551  0.1703  0.0356
24922W        W67938  11.476  10.028  26.249 -0.0827  0.1170 -0.0001
24923W        W67939  30.795  19.706  23.896 -0.1462 -0.0497 -0.1530
24924W        W67940  20.450  18.941   7.582  0.1022  0.0591  0.0931
24925W        W67941  34.590  10.174   7.609  0.3203  0.0336 -0.0813
24926W        W67942  16.228  24.534  26.572  0.0767  0.2880  0.1694
24927W        W67943   6.807   9.377   4.634  0.0182  0.0073 -0.1099
24928W        W67944  30.354  12.544  28.960 -0.2344 -0.1568 -0.0559
24929W        W67945  25.028   3.040  19.386 -0.3463  0.0482 -0.2163
24930W        W67946   3.279  15.854   8.937  0.2787  0.0603  0.0838
24931W        W67947   6.064   6.912   0.730  0.4483 -0.0045 -0.2568
24932W        W67948   0.403  29.673   4.660 -0.3133  0.0096 -0.0585
24933W        W67949  20.669  28.034  19.298 -0.2292 -0.2203 -0.2282
24934W        W67950  26.162  21.876  14.574  0.2745  0.0387 -0.3096
24935W        W67951   8.477   9.137   5.694  0.0197 -0.1312 -0.1012
24936W        W67952  32.481   9.800   9.409  0.1251 -0.0662 -0.0362
24937W        W67953  21.803  31.693  28.710  0.1448 -0.0024  0.1720
24938W        W67954  18.040  15.584  26.813  0.0799 -0.1551 -0.1806
24939W        W67955  32.786  13.737   6.136 -0.2049 -0.3441  0.0345
24940W        W67956  31.700   7.008   4.397  0.0812 -0.0370  0.2264
24941W        W67957   1.506  17.187   9.314  0.0448  0.1029 -0.2583
24942W        W67958  14.163  25.782  25.758  0.0018 -0.2708  0.0127
24943W        W67959  17.935  26.230  27.219  0.3099  0.0265  0.0970
24944W        W67960  27.884  21.348  23.926  0.0988  0.0001 -0.3905
24945W        W67961  34.201  18.082  29.013 -0.2324  0.2140  0.2588
24946W        W67962   1.345  20.737  24.522  0.0501 -0.2133 -0.1930
24947W        W67963  19.916  30.920  10.722  0.1372  0.0217  0.2689
24948W        W67964  28.151  18.907   0.003 -0.1019 -0.0017 -0.4196
24949W        W67965  28.258  25.050  24.840  0.2289  0.0114 -0.1231
24950W        W67966  22.123  19.088   3.675 -0.1686 -0.2977  0.3292
24951W        W67967  19.405   3.638  26.488 -0.0878 -0.0932  0.1412
24952W        W67968  20.953  22.186  15.682  0.0544 -0.1237  0.2554
24953W        W67969   0.229  20.157   3.490 -0.0525  0.1676 -0.3497
24954W        W67970  32.069  34.563  22.664  0.1344 -0.1091 -0.0650
24955W        W67971  18.090  29.726   4.608 -0.2115  0.2332  0.1324
24956W        W67972  27.337  25.289  14.660 -0.3534  0.0650 -0.1295
24957W        W67973  25.812   3.454  25.738  0.1586  0.0548 -0.1795
24958W        W67974   3.101  14.099  24.818 -0.2446 -0.0513  0.1751
24959W        W67975  18.238  23.081   6.509  0.1490 -0.1354 -0.0377
24960W        W67976  25.193  28.526   6.618 -0.2120  0.0522 -0.1991
24961W        W67977  26.301   2.735   1.266  0.1132  0.1794 -0.1161
24962W        W67978  15.569   1.408  23.397  0.1592 -0.0886 -0.2201
24963W        W67979  14.287  15.590  24.104  0.1021 -0.1617  0.2543
24964W        W67980  16.314  23.633   2.962  0.0131  0.2510  0.1865
24965W        W67981  28.598  26.877   8.483  0.2405 -0.1670 -0.1754
24966W        W67982  32.366  30.613   1.606 -0.1460  0.1000 -0.1573
24967W        W67983   6.927  18.334  18.991  0.0307 -0.0700 -0.2041
24968W        W67984  29.015  21.551  25.161  0.0026 -0.3061  0.1708
24969W        W67985   6.744  15.571  20.606  0.2490  0.0166 -0.1108
24970W        W67986  31.985  28.101   4.268 -0.0266 -0.3778  0.1807
24971W        W67987  20.451  17.245  23.076 -0.0917 -0.2577  0.0095
24972W        W67988  20.425   5.759   3.528 -0.0363 -0.0606 -0.0150
24973W        W67989  29.377  19.413   0.535 -0.0888 -0.1660  0.0179
24974W        W67990   9.338  28.423   8.756 -0.1253  0.0919 -0.0944
24975W        W67991  34.661   2.478  27.270 -0.0072 -0.1078  0.1007
24976W        W67992  23.302  24.870   0.258 -0.1603  0.0999 -0.1643
24977W        W67993  11.952  25.034   5.494  0.3515  0.2161  0.2949
24978W        W67994  16.406  31.648  10.373 -0.4021 -0.1404 -0.0400
24979W        W67995   6.439  14.855   7.606 -0.2763 -0.2021  0.4244
24980W        W67996  29.651  31.199   3.873  0.0247 -0.0906 -0.0251
24981W        W67997   8.920  29.373   0.210  0.0320  0.1805  0.1260
24982W        W67998  17.566  29.613   1.286  0.3361 -0.2306  0.4170
24983W        W67999   0.600   6.551   1.559 -0.1134  0.3554  0.1501
24984W        W68000  28.641  22.084   0.048  0.3467 -0.1628  0.0318
24985W        W68001  34.710  22.762  28.329  0.0881  0.5164  0.2662
24986W        W68002  16.871  18.425  27.658 -0.2987 -0.2687 -0.0624
24987W        W68003   8.208   7.103  25.392  0.0870 -0.0026 -0.0128
24988W        W68004  25.061  21.730   8.659 -0.0779  0.1541 -0.0099
24989W        W68005  17.399  16.016  19.235 -0.0809 -0.0863  0.0930
24990W        W68006  24.519  27.489   5.015 -0.1593  0.0896  0.0874
24991W        W68007   0.638  13.086  23.292  0.0831  0.0601  0.1961
24992W        W68008  31.134  23.770  18.214  0.2586 -0.2241  0.1849
24993W        W68009  26.370  25.212  21.018  0.0560  0.1476 -0.2548
24994W        W68010  26.246   4.813   8.751 -0.1099 -0.1642 -0.1536
24995W        W68011  19.152   3.111  21.285 -0.0270  0.1232 -0.1978
24996W        W68012  13.912  16.976   6.519 -0.0635 -0.1160 -0.1479
24997W        W68013  15.779  16.352  21.123 -0.2135  0.1329 -0.0774
24998W        W68014  10.882   0.808  29.065  0.0961 -0.1969  0.0715
24999W        W68015  28.399  21.442   9.584 -0.0382  0.0756 -0.1772
25000W        W68016  23.957  20.574  23.072 -0.1044  0.1155  0.0164
25001W        W68017  31.216  15.248  19.073 -0.1351 -0.0738 -0.1163
25002W        W68018  31.394  28.938   1.227 -0.1980 -0.0874  0.2260
25003W        W68019  16.734   8.763  26.845 -0.0485 -0.1703  0.0227
25004W        W68020  21.509  21.660   0.489 -0.2429  0.1629 -0.0459
25005W        W68021  21.403  17.300  26.572 -0.1543 -0.0374  0.3203
25006W        W68022  20.866  30.959   8.297  0.1598 -0.0877  0.1962
25007W        W68023  27.201  21.007   7.744 -0.1317 -0.0793  0.2891
25008W        W68024  23.953  30.154  15.890  0.0084  0.1255  0.2968
25009W        W68025   7.623  25.677   2.901  0.2094 -0.0489  0.0094
25010W        W68026  32.091  32.485   2.114 -0.1720 -0.4009 -0.1301
25011W        W68027   0.719  30.948   5.767 -0.0530 -0.1291  0.2083
25012W        W68028   0.192  19.030   4.654 -0.2701 -0.2510  0.2718
25013W        W68029  12.187   9.576  28.081 -0.2507 -0.0122  0.3604
25014W        W68030  21.018  22.300   8.350 -0.3443  0.2112 -0.1901
25015W        W68031  15.603  15.672  21.309 -0.2304 -0.2229 -0.2247
25016W        W68032  30.288  30.387  19.081 -0.1619 -0.0627  0.1990
25017W        W68033  13.706  20.878  13.108 -0.1807 -0.0474 -0.1197
25018W        W68034  27.243   9.905  10.153 -0.2022 -0.0333 -0.0672
25019W        W68035  31.448  24.435  18.767 -0.2936  0.2378  0.0059
25020W        W68036   7.311   2.380   5.734 -0.2261  0.1613 -0.1438
25021W        W68037  21.233  18.553   6.044 -0.3596  0.2958 -0.2933
25022W        W68038   0.895   4.857   3.962  0.0765 -0.1030 -0.2793
25023W        W68039   8.052  15.373  24.170  0.0448 -0.1850  0.1125
25024W        W68040   4.407  18.039  22.874  0.1607  0.0721  0.2143
25025W        W68041  13.917  14.669   6.957  0.0406 -0.1690  0.2447
25026W        W68042  25.724  14.325  14.640  0.0361 -0.0879 -0.0571
25027W        W68043  21.305  18.254  23.086 -0.4162  0.1473 -0.1910
25028W        W68044  26.534  32.630   6.459 -0.0016  0.0925  0.2625
25029W        W68045  16.249  27.939   0.100  0.1196 -0.1764 -0.0843
25030W        W68046   4.615   6.010   6.216 -0.0733  0.3393  0.0587
25031W        W68047  32.161   0.863   5.813 -0.1661  0.2633  0.1867
25032W        W68048  27.311  32.454  28.738  0.0864  0.1265 -0.1377
25033W        W68049  29.463  23.030  22.760 -0.1843  0.0865  0.2203
25034W        W68050  28.452  27.703  28.459 -0.1227 -0.1138  0.0034
25035W        W68051  29.064  14.987   8.322 -0.3000  0.3288 -0.1624
25036W        W68052  20.708  23.798  20.169  0.2676  0.0603 -0.0973
25037W        W68053   7.856  22.316   1.419 -0.0148  0.0236 -0.1961
25038W        W68054   4.198   8.207  24.458 -0.1738  0.0072 -0.4503
25039W        W68055  22.413  17.563   5.215 -0.0305  0.0776  0.1379
25040W        W68056  27.551  31.907   7.687 -0.0261  0.2988  0.0339
25041W        W68057  15.010   6.832   7.520 -0.1687 -0.3776  0.1171
25042W        W68058  24.762  16.495  28.977  0.0888 -0.1283  0.0087
25043W        W68059   8.699  34.754   2.695 -0.0752  0.0127  0.1074
25044W        W68060   9.037  15.258   9.166 -0.1156 -0.1546 -0.0943
25045W        W68061   3.689   5.066  28.140 -0.0974  0.2027  0.0591
25046W        W68062  29.860   7.989  11.377 -0.0225 -0.4210 -0.2746
25047W        W68063  32.481   8.708  10.156  0.0873 -0.1490 -0.0327
25048W        W68064  15.064  13.401  20.670 -0.1828 -0.1321 -0.2758
25049W        W68065  27.800  25.143   3.544 -0.1245  0.0866  0.0941
25050W        W68066  20.996  33.227   2.869  0.0656 -0.0349  0.1025
25051W        W68067  32.223  33.906  27.684  0.2310  0.0629  0.1133
25052W        W68068  19.797  17.404   6.099  0.2903  0.1455 -0.1849
25053W        W68069  28.031  22.762   7.492  0.0723  0.1946 -0.0413
25054W        W68070  16.544  16.956  29.259 -0.3982 -0.0643  0.1920
25055W        W68071   2.629  12.962  27.205  0.0972 -0.1140  0.4782
25056W        W68072  19.268  26.427   3.439 -0.1575  0.1296  0.2660
25057W        W68073  21.199   3.151   3.214 -0.0724  0.0299  0.3336
25058W        W68074  19.046  14.710   7.951 -0.3806  0.2752  0.0616
25059W        W68075  34.241  28.587  10.141  0.2287  0.0354  0.0857
25060W        W68076  25.062  10.255   2.019  0.1871 -0.2989 -0.0444
25061W        W68077   1.041  28.923   0.618 -0.3644 -0.0328 -0.0832
25062W        W68078  15.084  23.844   8.392 -0.0344  0.1196 -0.2068
25063W        W68079  28.020  17.978   6.859 -0.0364 -0.0970 -0.0477
25064W        W68080   2.337  10.843  10.280 -0.1582  0.0453  0.1172
25065W        W68081   7.624  19.525   5.588 -0.1378 -0.0120  0.0540
25066W        W68082  22.510   2.160   5.432  0.2437  0.1772  0.0224
25067W        W68083   7.423   9.087   4.414  0.0641  0.0066  0.0570
25068W        W68084  25.102  25.274   5.369  0.1334  0.2221 -0.0997
25069W        W68085   2.140   8.946   6.210  0.1131 -0.0969 -0.0814
25070W        W68086  33.809   6.422   9.441  0.0714 -0.1608  0.0479
25071W        W68087  10.798  20.666  12.462  0.1538  0.0477  0.2598
25072W        W68088  20.167  18.250   5.576  0.0280  0.0059 -0.2728
25073W        W68089  18.003  20.161   4.646 -0.0619  0.2333 -0.1045
25074W        W68090  23.314  17.811   4.598 -0.1294 -0.0256  0.3213
25075W        W68091  27.872  26.965  10.521  0.1051  0.1230  0.3401
25076W        W68092  31.944  24.658   9.173 -0.0736 -0.2301  0.0443
25077W        W68093  34.045  25.357   9.213  0.3260 -0.0762 -0.0335
25078W        W68094  19.320  22.259   3.493 -0.0078 -0.1501  0.0080
25079W        W68095  12.331  12.840  26.575  0.3665 -0.3501 -0.0686
25080W        W68096  20.149  18.408   6.117 -0.3099  0.4199  0.0800
25081W        W68097  27.059   9.245   3.738 -0.0445 -0.1796  0.1888
25082W        W68098  17.505   7.450  15.681 -0.0040  0.0358  0.0696
25083W        W68099  24.397  28.914  11.341  0.2106  0.1181 -0.0222
25084W        W68100  13.184  19.465  23.207  0.2783  0.1444  0.0917
25085W        W68101   2.128   7.868   2.118  0.1178  0.1723 -0.1020
25086W        W68102  22.403  26.525   5.926 -0.0569 -0.0734 -0.0899
25087W        W68103  24.761  11.876   1.722 -0.2180  0.2112 -0.0622
25088W        W68104  25.233  21.820   5.446  0.0255  0.3583 -0.2408
25089W        W68105  21.043  15.496   1.213  0.1334  0.2486 -0.2345
25090W        W68106  30.455   8.759   4.262  0.0991  0.1867 -0.2687
25091W        W68107  22.482  20.657   5.933 -0.1589  0.1938 -0.0676
25092W        W68108  25.800   2.636   3.805  0.0390  0.0521  0.1653
25093W        W68109  23.178  17.650  18.976 -0.1979  0.0442 -0.2667
25094W        W68110  28.292  21.820   4.951 -0.0644 -0.0460  0.0730
25095W        W68111  26.679  17.566  27.047 -0.3712 -0.0831 -0.0251
25096W        W68112   0.417  15.275  10.097 -0.0105 -0.3050  0.2814
25097W        W68113  17.846  30.405  23.021 -0.0368  0.1031 -0.1229
25098W        W68114  19.479  10.727   8.554 -0.1365 -0.2151  0.3121
25099W        W68115  31.122   3.748   5.553  0.1674 -0.0864  0.2108
25100W        W68116   1.880  17.113   3.114  0.1273  0.3901 -0.0106
25101W        W68117  18.649  10.010   4.921  0.2302  0.2591  0.0571
25102W        W68118  25.101  19.334  25.016  0.1793  0.1485 -0.2688
25103W        W68119   6.980  19.153   5.427 -0.0357  0.2215  0.1954
25104W        W68120   0.215   4.572   5.299 -0.1469  0.0117  0.1991
25105W        W68121  22.527  27.243  24.427  0.2156  0.2245 -0.2058
25106W        W68122  20.763  23.632   1.020  0.0351  0.1075  0.0468
25107W        W68123  25.972  11.708   6.423 -0.0208  0.0228 -0.0046
25108W        W68124  22.024  18.216   5.705 -0.2871 -0.0289 -0.3945
25109W        W68125  20.416  24.574   5.852 -0.1129  0.1352 -0.2582
25110W        W68126  13.846  34.319  28.840  0.0974  0.0220  0.0075
25111W        W68127  22.290  20.426  20.001  0.4033 -0.1129  0.2020
25112W        W68128   6.216   1.629   8.088 -0.4816 -0.0694  0.0911
25113W        W68129   2.940  18.638   1.794 -0.1710  0.0184 -0.1566
25114W        W68130  25.743  19.144   6.066 -0.7260  0.2087 -0.2800
25115W        W68131  18.742  26.506   0.688 -0.1202 -0.1036  0.2182
25116W        W68132  26.935   7.185   6.695 -0.1914  0.0497 -0.4491
25117W        W68133   5.696   8.772   6.781  0.2713  0.0340 -0.0779
25118W        W68134  17.603  23.878   4.126 -0.3005  0.1729  0.1153
25119W        W68135  26.777   4.757  24.924  0.0919  0.1178  0.2145
25120W        W68136  27.402  10.297   6.220 -0.0545  0.2904 -0.2277
25121W        W68137  12.104  18.601   6.417  0.0919  0.1398  0.0691
25122W        W68138  19.099  10.086   4.786 -0.1149  0.0189  0.2549
25123W        W68139  17.455  18.172  24.472 -0.1120  0.0344  0.2497
25124W        W68140  27.792   5.826   7.746 -0.1750  0.1182  0.5128
25125W        W68141  16.097  24.518   3.271  0.0018 -0.3429 -0.0382
25126W        W68142  18.835  10.622   4.005  0.0923 -0.0636 -0.3406
25127W        W68143  20.235  31.601   7.442  0.1897  0.1970  0.1861
25128W        W68144  32.879  15.229   2.439  0.2689  0.1737 -0.1164
25129W        W68145   0.463  17.322  26.825 -0.0842  0.1396  0.4261
25130W        W68146  23.854  17.284   5.927 -0.1473  0.1916 -0.0124
25131W        W68147  33.235  23.695  24.714  0.1484  0.1110 -0.2570
25132W        W68148   4.456  11.415   7.438  0.6350 -0.0001 -0.0278
25133W        W68149  12.432  27.679   8.925 -0.1186 -0.1154  0.1696
25134W        W68150  19.049  11.991   5.039 -0.2388  0.2438 -0.0596
25135W        W68151  17.545  19.449   5.617  0.1213  0.2440  0.0496
25136W        W68152   2.374  10.078   2.306  0.3184  0.0697 -0.3661
25137W        W68153  27.732  20.568   5.140 -0.0771  0.0507 -0.2192
25138W        W68154   1.175  17.356   7.558  0.1645 -0.0611  0.2309
25139W        W68155  30.931  15.139   7.838  0.0007 -0.0789  0.1671
25140W        W68156  33.848   9.603   4.380  0.0640  0.1114 -0.0165
25141W        W68157  25.234  12.067   0.436 -0.1390  0.2935 -0.1677
25142W        W68158  27.440  26.908   3.020 -0.0762  0.2635 -0.1165
25143W        W68159   7.334  21.260   5.808 -0.2435  0.2546  0.2450
25144W        W68160  22.269  27.359   1.606 -0.0701  0.0215  0.1455
25145W        W68161  28.863  23.155   4.124 -0.2122 -0.0389  0.2360
25146W        W68162  27.421  26.018  10.536 -0.2896 -0.0561  0.0079
25147W        W68163  10.740  26.649  14.576 -0.2280 -0.1501 -0.1506
25148W        W68164  31.250  13.138   8.123  0.0876 -0.1239  0.1401
25149W        W68165  19.862  18.835  20.934  0.2243  0.1726  0.1923
25150W        W68166   1.826  14.143  17.828 -0.0170 -0.0247  0.2473
25151W        W68167  30.027   0.616   8.154  0.1276 -0.1574 -0.0060
25152W        W68168  17.058  24.088   6.968 -0.3397 -0.0459  0.0494
25153W        W68169  25.173  21.118   6.730 -0.2223 -0.1994 -0.1687
25154W        W68170   8.157  14.167  25.503  0.2204 -0.2299  0.0294
25155W        W68171  10.689   3.883  25.501  0.1799 -0.0564  0.0561
25156W        W68172  22.675  20.790   6.769  0.3327  0.5070  0.1492
25157W        W68173  32.737  16.392   6.313 -0.2344  0.1331  0.1761
25158W        W68174  22.503   6.135   1.367  0.5072 -0.4511 -0.4010
25159W        W68175  13.338  34.409   6.931 -0.1659 -0.0084  0.1506
25160W        W68176  28.138   2.171   5.454  0.2424 -0.2200  0.1455
25161W        W68177  29.123  16.196   8.439 -0.3200 -0.0311 -0.2570
25162W        W68178  20.364  21.044   8.883  0.0864  0.0130 -0.1622
25163W        W68179  23.306  34.503  10.271  0.1296 -0.0220 -0.3297
25164W        W68180  18.241  16.517  22.359  0.2448  0.2516 -0.5222
25165W        W68181  30.165  15.412   1.889  0.1210  0.0219  0.0344
25166W        W68182  20.327  30.170   5.063 -0.0214  0.0793 -0.0215
25167W        W68183  30.219  22.849   6.617  0.1209 -0.1957  0.0066
25168W        W68184   0.395   6.467   4.663 -0.1932  0.3777 -0.0270
25169W        W68185  30.819  28.813   2.754 -0.1683 -0.2768 -0.3477
25170W        W68186  26.512  10.471   4.118  0.0660  0.1673 -0.0346
25171W        W68187   4.037  34.208  18.387 -0.2804 -0.0145  0.0329
25172W        W68188  23.975  11.835   2.904 -0.0301  0.1368 -0.0365
25173W        W68189  18.453  19.019   4.540 -0.2880  0.0985  0.2195
25174W        W68190  27.806  13.502   6.688 -0.2704 -0.0264  0.0878
25175W        W68191  32.341   5.029   0.294  0.2413 -0.4452  0.1646
25176W        W68192   8.358  19.372   6.040  0.2097 -0.1276  0.1935
25177W        W68193  32.255  31.895   6.707  0.2473  0.1174 -0.1476
25178W        W68194   0.781  17.152  10.143 -0.2064  0.2524  0.1142
25179W        W68195  20.681  29.627  19.907 -0.0383 -0.3275 -0.2391
25180W        W68196  23.727   9.898  20.512  0.2727  0.1344  0.0562
25181W        W68197  27.333  16.162  28.917  0.0865 -0.0603 -0.2416
25182W        W68198  29.840  26.847   4.983 -0.1067 -0.0674 -0.0154
25183W        W68199  24.611  20.161  24.198  0.0489 -0.1452 -0.1578
25184W        W68200  20.783  28.519   9.846  0.0192  0.2319 -0.0345
25185W        W68201  14.720  26.008   7.933 -0.2317  0.5030 -0.0234
25186W        W68202   7.753  13.686   5.411  0.0066  0.0816 -0.4047
25187W        W68203   1.399   6.038   7.140 -0.3439 -0.0591  0.1437
25188W        W68204  12.641  13.206   1.375 -0.4128 -0.0994 -0.4008
25189W        W68205  20.904  10.010  21.754  0.3398 -0.2272 -0.2323
25190W        W68206  23.913  12.809   4.473  0.0072 -0.0432  0.0084
25191W        W68207  12.902  25.341   5.217 -0.2232 -0.0668  0.1479
25192W        W68208  28.033  21.948  10.976  0.3083 -0.1188 -0.0128
25193W        W68209  33.777   6.152   8.962  0.1988 -0.0231 -0.0225
25194W        W68210  15.778  26.207   8.041  0.0121  0.0760 -0.1093
25195W        W68211  24.125  22.913  20.413 -0.0265  0.0128  0.1574
25196W        W68212  22.602  18.905   5.082 -0.2521 -0.0448  0.0442
25197W        W68213  26.768  23.295   3.728 -0.0004  0.1075 -0.1045
25198W        W68214   9.687   9.965   3.594  0.0665  0.1463  0.1963
25199W        W68215  27.210  10.839  26.063  0.1658 -0.0108 -0.0221
25200W        W68216   1.416  26.475   8.280  0.2334 -0.0784 -0.0873
25201W        W68217  29.685  21.690   8.358 -0.2565 -0.1602 -0.1810
25202W        W68218  29.547  22.323   6.244  0.2690  0.2326  0.0123
25203W        W68219  21.746  14.903   3.257  0.1618 -0.2836  0.1478
25204W        W68220  33.693  16.579  11.086 -0.0022 -0.1242 -0.0039
25205W        W68221  14.713  17.472  12.841  0.0347  0.2082 -0.0114
25206W        W68222  31.698  28.671   7.434  0.2137  0.0725 -0.0019
25207W        W68223  33.161  24.622  25.652 -0.4715  0.3372  0.0210
25208W        W68224  18.941   1.197   2.572 -0.1389 -0.2541 -0.1098
25209W        W68225   3.782   8.134   3.539  0.1866 -0.0855 -0.3028
25210W        W68226   3.727  17.119   6.252 -0.0024 -0.1625  0.0132
25211W        W68227   8.367  11.994   6.894  0.1178 -0.0836  0.2077
25212W        W68228  18.850  21.859  25.347  0.0572 -0.3412  0.0578
25213W        W68229  20.303  12.266   7.258  0.0584  0.1563  0.2059
25214W        W68230  17.087  29.406   4.935 -0.3633 -0.3509 -0.0415
25215W        W68231  20.686  13.499   7.119 -0.0119  0.1630  0.2240
25216W        W68232  24.806  12.229  29.047  0.1385 -0.0784 -0.0413
25217W        W68233  16.962  30.263   7.043 -0.1034  0.1501  0.0549
25218W        W68234  33.057  12.995   1.072  0.2778  0.4712  0.0496
25219W        W68235  17.117  21.906  21.472  0.0055  0.0100 -0.2922
25220W        W68236  32.952  17.540   7.892  0.0896 -0.1957  0.1183
25221W        W68237  30.550   5.848  17.716  0.0180 -0.0616 -0.0165
25222W        W68238   7.342  21.000  23.124  0.4583 -0.2315  0.0957
25223W        W68239   4.150  33.429   5.128  0.0983  0.0441 -0.1886
25224W        W68240   3.385  20.697   2.219  0.3583  0.1246 -0.4203
25225W        W68241  18.577  20.630  22.198 -0.2241  0.1657  0.0857
25226W        W68242  21.978  17.957   6.093 -0.1379 -0.0886 -0.2779
25227W        W68243  21.082  17.321  19.259  0.3802 -0.1865  0.1318
25228W        W68244  30.801  27.825   0.715  0.3034  0.0362 -0.2669
25229W        W68245  21.825  21.293   6.378 -0.0595  0.3690  0.1275
25230W        W68246  25.656  18.817   3.050  0.3605 -0.1862 -0.1804
25231W        W68247  17.774  10.104   8.117 -0.4682 -0.2934 -0.1371
25232W        W68248  16.226  22.016  21.032 -0.1179  0.2364 -0.0844
25233W        W68249  23.887  25.726   2.071  0.0936 -0.0080  0.2323
25234W        W68250  33.722  15.035   8.548 -0.1502  0.1708 -0.1077
25235W        W68251  31.944  19.400  17.143  0.1290  0.0866 -0.0328
25236W        W68252   0.791  28.768   7.064  0.1083  0.2132 -0.2017
25237W        W68253  18.730  28.046  24.406 -0.0379  0.1234  0.0814
25238W        W68254  28.918   9.891   3.224 -0.1558  0.1120 -0.0375
25239W        W68255  31.720   2.084  25.598 -0.0292 -0.1879  0.0725
25240W        W68256  26.679  20.141  27.722 -0.0802 -0.0837 -0.2488
25241W        W68257  34.159  20.526   5.719 -0.0176  0.1203  0.0706
25242W        W68258  24.484  27.090   9.910  0.1901 -0.1003  0.1253
25243W        W68259  20.650  12.604   8.752  0.0758  0.2598  0.0894
25244W        W68260  21.385  21.073   5.199 -0.0915 -0.4372  0.0676
25245W        W68261  25.205  18.450   9.529  0.3446 -0.0854  0.0001
25246W        W68262  33.585  17.961  28.043  0.2943  0.0741  0.0802
25247W        W68263  30.590  20.833   7.548  0.0406 -0.0901  0.2127
25248W        W68264  18.488  15.660   6.995 -0.2304  0.1453  0.0552
25249W        W68265   3.484  26.613   5.876  0.0168 -0.2230 -0.1298
25250W        W68266   3.434  16.832   6.537 -0.2153  0.2147  0.0601
25251W        W68267  31.398  21.014   7.135 -0.0070 -0.0254  0.3385
25252W        W68268  20.033  24.653   3.635 -0.4246  0.1967  0.4590
25253W        W68269  30.171  27.448  24.454 -0.1583  0.1419 -0.1808
25254W        W68270   6.793   7.330   5.403  0.0967 -0.0788 -0.2483
25255W        W68271  18.146  25.149  27.099 -0.2284  0.2472  0.6145
25256W        W68272   4.260   4.166   9.335 -0.3330 -0.1436 -0.0461
25257W        W68273  28.940  12.672   7.380 -0.3751 -0.3195 -0.1065
25258W        W68274  23.423  30.109   8.532 -0.0995  0.1681  0.1937
25259W        W68275  22.304  28.783   9.036 -0.0028 -0.1584  0.0567
25260W        W68276   1.355  17.714   1.893 -0.1916 -0.0515  0.2667
25261W        W68277  33.708  17.626   3.847  0.1013  0.1341  0.0424
25262W        W68278  33.539   5.470  27.602 -0.0586  0.1812 -0.1418
25263W        W68279  23.051  21.388  26.291  0.1924  0.1314  0.2439
25264W        W68280  28.139  24.186   7.752  0.1094 -0.0091 -0.0051
25265W        W68281  20.281  15.260  24.380 -0.0623  0.1260 -0.1636
25266W        W68282  17.739  12.399   5.254  0.1287  0.1384 -0.2690
25267W        W68283  18.710  15.390  21.628  0.0398 -0.4163 -0.0986
25268W        W68284  26.201  14.989   6.579 -0.2090  0.4976  0.0183
25269W        W68285  33.958  22.028   7.240 -0.0662  0.0114  0.0150
25270W        W68286  32.735  23.530  23.380 -0.0795 -0.0253 -0.1123
25271W        W68287  29.216  14.837  18.159 -0.4241  0.0466  0.3000
25272W        W68288  25.305  15.432   7.636 -0.1717 -0.0217 -0.0005
25273W        W68289  27.366  11.909  23.441  0.1288 -0.1345 -0.0778
25274W        W68290  29.620  30.261   9.202 -0.2637 -0.0480 -0.0244
25275W        W68291   6.904   4.918   9.917 -0.0179  0.0131  0.3129
25276W        W68292  24.476  10.540   2.422  0.3255  0.1075  0.0632
25277W        W68293  20.337   5.587  24.712 -0.1933 -0.0496 -0.2135
25278W        W68294   2.585   7.785   2.763 -0.0791 -0.0274 -0.1451
25279W        W68295  16.943   7.173  28.656  0.0597 -0.1762 -0.3414
25280W        W68296   4.686  14.852  19.596 -0.1292 -0.2160  0.1836
25281W        W68297  25.968  16.220   0.658  0.0545 -0.1110 -0.4213
25282W        W68298   0.388  21.161   0.481  0.0889 -0.3096 -0.1964
25283W        W68299  29.238  12.029  10.835  0.0079 -0.2403 -0.1468
25284W        W68300  26.699  32.616   7.902 -0.1152  0.0518  0.0180
25285W        W68301  17.628  11.882   3.576  0.0878 -0.0885  0.0067
25286W        W68302  24.743  13.767   4.105 -0.0003 -0.3012  0.3426
25287W        W68303  31.389   4.403  27.122 -0.0391 -0.0147 -0.0181
25288W        W68304  32.456  19.623  28.661  0.4379 -0.0432  0.1251
25289W        W68305   1.820   3.566  28.157 -0.1570 -0.0653 -0.2102
25290W        W68306  17.412  14.970   6.401 -0.0690  0.0839 -0.1517
25291W        W68307  14.401  31.816   4.700  0.1396 -0.2357 -0.0051
25292W        W68308   4.152  22.341  24.638  0.1860  0.0386 -0.1485
25293W        W68309  16.413  26.570   2.876 -0.0817 -0.1852  0.1460
25294W        W68310  24.463  21.256  28.339 -0.1493 -0.2915  0.1970
25295W        W68311  22.015  17.710  22.989 -0.2339  0.1622 -0.0880
25296W        W68312  18.598  20.858   6.842 -0.0147  0.1338 -0.2578
25297W        W68313  34.246  12.247  26.720  0.0414  0.0871  0.1793
25298W        W68314  11.085   2.120   7.181 -0.0342 -0.0535 -0.1361
25299W        W68315  29.464  33.225   4.209 -0.1774  0.0268 -0.1118
25300W        W68316   6.960  12.366   5.674 -0.0906 -0.0178 -0.0240
25301W        W68317  24.466  22.786  28.368  0.0536 -0.1365 -0.0112
25302W        W68318  19.932  14.083  28.683  0.0503 -0.0252 -0.3329
25303W        W68319  25.187  10.074   5.262  0.1808  0.4389  0.4665
25304W        W68320   8.692  26.380  16.963  0.0568  0.0594 -0.1817
25305W        W68321  17.750  15.555   7.352  0.2777 -0.1594  0.2219
25306W        W68322  30.732  21.664   2.716  0.2708 -0.5158 -0.1258
25307W        W68323  28.785   4.896  27.815 -0.0980  0.2205 -0.0517
25308W        W68324   4.845  19.913   2.801  0.1599 -0.1349  0.2315
25309W        W68325   3.978  32.574  19.269  0.0088 -0.1389 -0.0980
25310W        W68326  11.505  13.307   6.093 -0.0728  0.0590 -0.3009
25311W        W68327  24.599  28.866  24.930 -0.2139 -0.0385  0.1312
25312W        W68328  31.812  19.466   2.088  0.3335 -0.1557  0.1524
25313W        W68329  16.808  29.172  25.218 -0.1604  0.3780 -0.0653
25314W        W68330  12.414  12.616   7.575 -0.0193  0.1918 -0.1939
25315W        W68331  26.202  19.250   7.802  0.0929 -0.3224 -0.0758
25316W        W68332  15.372  15.672  22.879 -0.1356  0.0119  0.1036
25317W        W68333  23.996  23.507   9.040  0.1432 -0.1926  0.0071
25318W        W68334  31.312  15.010   6.251  0.2383  0.0684  0.0842
25319W        W68335  26.566  20.701   8.709  0.1230  0.1522 -0.1125
25320W        W68336  29.726  11.400   8.144 -0.0327  0.1327 -0.4453
25321W        W68337  20.480   8.938   2.139 -0.1437 -0.2015 -0.2896
25322W        W68338  26.368  15.643  27.549 -0.0989  0.0448  0.2738
25323W        W68339  24.902  19.849   8.829 -0.2450  0.1856 -0.2459
25324W        W68340  22.355  19.319  19.200 -0.1256  0.1863 -0.0007
25325W        W68341  18.625  28.962   2.428  0.0500  0.0427 -0.1926
25326W        W68342   3.248   9.361   4.656  0.0927  0.2214  0.2020
25327W        W68343  16.607   7.693   7.439  0.0379  0.1562 -0.2603
25328W        W68344  20.729   3.657   7.724 -0.1043  0.2214 -0.2164
25329W        W68345  22.714  18.399   8.923 -0.0323 -0.0588  0.0080
25330W        W68346  24.797  19.395  26.672  0.0820 -0.2951  0.3777
25331W        W68347  25.982  33.272   3.800  0.1770 -0.2204 -0.2099
25332W        W68348   2.591  28.311  26.404 -0.5504  0.0654 -0.1323
25333W        W68349  22.009  20.534  16.454  0.0551 -0.2116 -0.1615
25334W        W68350  23.944   7.853  10.272 -0.2340  0.4129 -0.2832
25335W        W68351  16.062  19.441  26.122  0.1873 -0.1780  0.1219
25336W        W68352  21.856   9.611   7.207  0.1292 -0.0080  0.1870
25337W        W68353  19.776  22.046   6.581 -0.1866  0.3207  0.0915
25338W        W68354   5.150  11.115  26.776 -0.5023  0.2687 -0.3595
25339W        W68355  18.520  10.363   5.816  0.0129 -0.4153  0.1930
25340W        W68356  26.858  11.946   1.209 -0.1918  0.2408 -0.0402
25341W        W68357  28.688  14.866   6.447 -0.0676 -0.2512  0.1057
25342W        W68358  13.871  21.628   3.721  0.0743 -0.0540  0.3277
25343W        W68359  15.224  16.609  26.437 -0.2101  0.2117  0.0070
25344W        W68360  20.088  12.132  28.754 -0.1427 -0.1931  0.1980
25345W        W68361  26.630  13.503   7.443  0.0274  0.2051  0.0342
25346W        W68362   1.344  18.061   1.478  0.1372 -0.0469  0.1578
25347W        W68363   2.251  14.437   5.544 -0.3939 -0.2649  0.1250
25348W        W68364  25.020  11.836  28.182 -0.1097  0.1621 -0.1438
25349W        W68365  20.027  17.745  24.156  0.1396  0.1739 -0.0669
25350W        W68366   7.665  13.298   7.746  0.2084  0.1361  0.0818
25351W        W68367  28.429  16.308  16.417 -0.0900  0.1505  0.1099
25352W        W68368  22.487   5.395   5.480  0.3970  0.2480  0.0695
25353W        W68369  34.562  20.105   2.076  0.1594  0.1122 -0.1715
25354W        W68370   0.491  19.259   5.848 -0.0087 -0.0540 -0.2906
25355W        W68371  19.355  19.266   5.226 -0.4351  0.0074  0.3521
25356W        W68372  30.550  28.382  10.321  0.1178  0.0809  0.2746
25357W        W68373   4.373   8.313  18.336  0.1408  0.1213  0.1008
25358W        W68374  13.315   8.655   4.568 -0.3816 -0.0894  0.0151
25359W        W68375  18.353  25.002   6.797  0.0995  0.0994 -0.0607
25360W        W68376  27.957  12.395   3.830  0.0820 -0.0191  0.0681
25361W        W68377  13.286  14.748  21.065  0.4209  0.1619 -0.0345
25362W        W68378  21.929  14.503   5.302  0.0557  0.0818  0.5085
25363W        W68379  32.769  21.385   7.029  0.2744 -0.4837  0.0783
25364W        W68380   6.967  12.953  18.864 -0.2087 -0.3266 -0.1846
25365W        W68381  28.920   7.848   8.514  0.3387 -0.0315  0.1588
25366W        W68382  33.328  19.772  15.183 -0.1240  0.0737  0.1278
25367W        W68383  17.910   9.324  21.165 -0.0342 -0.5253  0.0239
25368W        W68384  26.540  24.937   3.894 -0.2557 -0.1025  0.1257
25369W        W68385   5.057  26.400   9.385  0.0362 -0.1858 -0.0924
25370W        W68386  26.137  19.874  15.850 -0.0303  0.0763  0.1110
25371W        W68387  28.552  21.799  16.612 -0.1603  0.0325 -0.2943
25372W        W68388  12.878  10.427   5.432  0.4295 -0.0451 -0.0586
25373W        W68389  21.450  16.823   0.082 -0.0246 -0.3418  0.1087
25374W        W68390  25.218  25.035   6.239 -0.1786 -0.2271 -0.0026
25375W        W68391   6.378  32.181   5.490 -0.0761 -0.2806  0.2753
25376W        W68392  11.886  33.294   6.790  0.0820  0.1000 -0.1831
25377W        W68393  29.748  30.398   7.571  0.0180  0.2797 -0.2916
25378W        W68394  30.517  14.544   1.972  0.0028  0.0258  0.4281
25379W        W68395  16.261  15.688  27.880  0.1689 -0.1341 -0.0415
25380W        W68396  28.972   9.725  19.777 -0.0368 -0.0343  0.0622
25381W        W68397  21.336   9.813  26.837 -0.2835 -0.1387 -0.4349
25382W        W68398  29.762  23.180   2.722  0.0882 -0.1860  0.2169
25383W        W68399  24.780  30.163  26.582 -0.1353 -0.2520 -0.3076
25384W        W68400  33.034  12.496   8.654 -0.0839  0.0968 -0.1820
25385W        W68401  22.658  22.304   2.328  0.1754 -0.1544 -0.4079
25386W        W68402  23.247  28.769   5.671  0.1137 -0.3034 -0.0406
25387W        W68403  24.083  17.078  27.348  0.2508  0.0171 -0.2758
25388W        W68404  27.372  24.237   8.801 -0.1831 -0.0946  0.2750
25389W        W68405  21.194   6.465   5.804 -0.2148  0.3347 -0.0135
25390W        W68406   6.483  24.909   1.288 -0.0040  0.0271  0.1600
25391W        W68407  30.204  13.710  26.981 -0.1226 -0.1767  0.0458
25392W        W68408  31.532  32.406   8.664 -0.0295  0.1549 -0.1171
25393W        W68409  13.835  16.290   4.291  0.0241  0.0286 -0.0576
25394W        W68410  18.552  13.261   7.254 -0.0636 -0.1063  0.2319
25395W        W68411  17.623   6.168   3.065 -0.1306 -0.1268  0.1177
25396W        W68412  28.519  23.493  19.945 -0.2945 -0.1038  0.0335
25397W        W68413  25.197  18.400  20.998  0.1299  0.0940  0.0063
25398W        W68414  34.249  26.796  27.846 -0.0394  0.3152  0.4378
25399W        W68415  10.520  10.850   2.864 -0.0402  0.1775 -0.3507
25400W        W68416  28.049   1.038   7.263 -0.4281  0.0194 -0.2773
25401W        W68417  28.852  26.915   9.543  0.1307  0.1081  0.0763
25402W        W68418  28.803  26.466  10.316 -0.0124  0.1801  0.4131
25403W        W68419   2.240  19.908   8.183  0.0987  0.1773  0.2488
25404W        W68420  18.524  17.926   6.451  0.0628 -0.0695 -0.1870
25405W        W68421   1.065   8.972  10.149  0.0922  0.0892  0.2710
25406W        W68422  14.418  13.059   6.760 -0.2142  0.1722  0.1637
25407W        W68423  14.967  25.726   6.859 -0.0563  0.0093 -0.2059
25408W        W68424  27.729   9.515   7.231 -0.0612 -0.4090  0.3756
25409W        W68425  17.519  22.001  25.137  0.2031 -0.1791  0.0710
25410W        W68426  15.783  22.100   8.905 -0.0669  0.4954 -0.1567
25411W        W68427  19.552  18.935   1.177  0.2036  0.4448  0.4928
25412W        W68428  27.095  18.767  18.690 -0.0088 -0.1075 -0.0631
25413W        W68429  30.509  18.615  10.074 -0.2457 -0.1465  0.1059
25414W        W68430   0.350  15.815   8.480  0.0319 -0.0695 -0.1610
25415W        W68431  20.548  17.241   5.605  0.0405  0.1323  0.0552
25416W        W68432  28.651  11.204  25.323 -0.0407  0.0413  0.1883
25417W        W68433  19.742  21.680  27.671 -0.0486 -0.3358  0.1241
25418W        W68434  22.908  18.934  27.233 -0.1015  0.2570  0.1084
25419W        W68435   1.772   7.182   9.637  0.1097  0.0816  0.1113
25420W        W68436   7.090  30.260  27.298 -0.3503  0.1616 -0.3411
25421W        W68437  17.446  28.024   7.984  0.2060  0.2228  0.3813
25422W        W68438  24.662  14.169   6.412  0.2659  0.0365  0.1109
25423W        W68439  16.716  15.398   6.793 -0.2050  0.2553 -0.2170
25424W        W68440  23.926  28.756   4.951  0.0146  0.2881 -0.2635
25425W        W68441  25.548  12.128   4.159 -0.1246 -0.1209 -0.1211
25426W        W68442   8.177  16.848  17.721 -0.0764  0.1125 -0.6513
25427W        W68443  30.171   2.541   6.300 -0.4238 -0.1454  0.2131
25428W        W68444  16.713  25.355   6.109 -0.4999 -0.0709 -0.5318
25429W        W68445  24.878  34.732   2.619  0.1816  0.0523  0.2587
25430W        W68446  32.242  27.672   3.207  0.0798 -0.0329 -0.0427
25431W        W68447  18.711  13.652   0.382  0.1219 -0.0747  0.2043
25432W        W68448   4.660  11.962   2.505  0.0381 -0.0022  0.0286
25433W        W68449  14.671  24.527   3.150 -0.1392 -0.0529 -0.0968
25434W        W68450  34.710  12.337   8.967 -0.1512 -0.2368 -0.0094
25435W        W68451   9.318  34.207   8.075  0.1525  0.2200 -0.0021
25436W        W68452  28.793  19.821   9.657 -0.2090  0.0882 -0.0939
25437W        W68453  19.356  13.981   3.726  0.1098 -0.2411 -0.0520
25438W        W68454  14.465   3.155  27.225 -0.1806 -0.3761  0.2253
25439W        W68455  18.989  25.969   6.538 -0.1240 -0.1704  0.3749
25440W        W68456  30.802  20.580   0.260 -0.0612 -0.0944 -0.0023
25441W        W68457  32.070  30.861   9.767  0.1407 -0.0029 -0.0534
25442W        W68458  20.832  12.118  26.487 -0.2136  0.2525 -0.3446
25443W        W68459  21.805  29.535   8.638  0.0152 -0.1531  0.0311
25444W        W68460  22.282  12.966  27.907  0.0794  0.0320 -0.0152
25445W        W68461   8.735  10.288   7.367 -0.0586  0.1758  0.3006
25446W        W68462  26.295   8.555   1.581 -0.1125 -0.1927 -0.0654
25447W        W68463  25.620  12.430   3.679 -0.3065  0.2645  0.3158
25448W        W68464  28.087  14.461  25.246 -0.0502  0.0180 -0.0221
25449W        W68465  28.725   7.775   1.918 -0.1483  0.0175 -0.2013
25450W        W68466  18.958  13.759  20.276  0.0927  0.2564  0.1240
25451W        W68467  11.006   8.709   3.131 -0.3243  0.1615 -0.3576
25452W        W68468  31.622  15.725   2.960  0.0500  0.0298 -0.2316
25453W        W68469  26.871  26.734   7.893 -0.0218  0.0447  0.1833
25454W        W68470  34.683   9.758  29.140  0.2164  0.2470 -0.2603
25455W        W68471  30.481  21.095   8.469 -0.1624 -0.2790  0.1426
25456W        W68472  17.930   6.125   7.204  0.0602 -0.2976 -0.1317
25457W        W68473   6.538  20.570   6.790 -0.3044 -0.1516 -0.3885
25458W        W68474  29.173  22.608  10.448  0.2338 -0.0880 -0.0599
25459W        W68475  31.316  16.686   9.339 -0.0522 -0.0615 -0.0692
25460W        W68476  30.516  23.044   7.950 -0.1339 -0.1804  0.0768
25461W        W68477  20.071  19.562   7.234 -0.3084 -0.0833 -0.0372
25462W        W68478  10.874  19.674   5.293 -0.3257 -0.0219 -0.2275
25463W        W68479  23.547  16.367   5.843 -0.1352  0.0612 -0.0688
25464W        W68480   0.863  10.282  28.732  0.1279  0.3327  0.1288
25465W        W68481  16.496  15.895  25.648  0.1286  0.0930 -0.2018
25466W        W68482  24.929  24.866  21.904  0.2068 -0.2045  0.2169
25467W        W68483  34.660   7.809   9.649 -0.0313 -0.0538 -0.2749
25468W        W68484  19.351  17.109   6.645 -0.2454  0.3180 -0.3273
25469W        W68485  29.613   4.011  28.883 -0.4646 -0.2612 -0.2574
25470W        W68486  26.250  19.211  26.855 -0.0285 -0.2851  0.3252
25471W        W68487   1.862  28.116  22.907 -0.3029 -0.0444  0.0737
25472W        W68488  18.021   6.991   5.999 -0.1813 -0.1321  0.0221
25473W        W68489  32.536  33.988  19.692  0.1171  0.0083 -0.1215
25474W        W68490  28.316  22.681   6.599  0.0053 -0.2699 -0.1032
25475W        W68491   3.555  15.759  15.306 -0.0343 -0.1141 -0.2120
25476W        W68492  24.664  15.127  26.113  0.0071  0.0488 -0.1271
25477W        W68493  26.115   1.769  17.939 -0.2869  0.2384  0.2224
25478W        W68494  30.222  17.767  25.331  0.0535  0.0676 -0.2512
25479W        W68495  14.484  26.836   8.448  0.1523  0.1291 -0.2547
25480W        W68496  23.431   1.820   9.819  0.1918 -0.1122 -0.2236
25481W        W68497  34.297  20.915   8.467 -0.2642  0.3752 -0.0737
25482W        W68498  23.728  23.715   8.129 -0.3315 -0.1837 -0.2380
25483W        W68499  12.412  17.917   5.288 -0.0598  0.0568 -0.1228
25484W        W68500  15.257  14.277   6.794 -0.2492  0.0550  0.3115
25485W        W68501   9.780  18.425   3.671 -0.0605  0.0819 -0.0070
25486W        W68502  18.642  16.065   1.981 -0.0562  0.0087 -0.1509
25487W        W68503  34.222  22.164   9.197 -0.1428 -0.3103 -0.1180
25488W        W68504  16.050  14.663  28.779  0.2486 -0.0428  0.0536
25489W        W68505   3.366  33.584   7.597 -0.0737 -0.1296  0.1007
25490W        W68506  22.275  19.621  22.319  0.2058  0.1423 -0.0093
25491W        W68507   5.459  16.111   2.713  0.1721 -0.0744  0.0426
25492W        W68508  24.619  24.219   2.233  0.1769  0.0700  0.4163
25493W        W68509  30.803  25.052  23.848  0.0266 -0.2360  0.2081
25494W        W68510  31.425   6.114   8.284 -0.1084  0.1263  0.0105
25495W        W68511  23.266  16.106   0.005  0.0943 -0.0795  0.0499
25496W        W68512   9.295  14.860   5.434  0.2301  0.0087 -0.0115
25497W        W68513   6.249   1.131   7.409 -0.0259 -0.1513 -0.2497
25498W        W68514  15.720  17.183   1.403  0.3010  0.3013  0.0110
25499W        W68515  20.301  19.741   5.225  0.0960  0.0219 -0.0119
25500W        W68516   0.066  15.452   8.878 -0.5325  0.1776  0.1058
25501W        W68517  25.330  20.748   9.556 -0.0563  0.1514 -0.0195
25502W        W68518  23.812   3.301   5.360  0.4083  0.0367  0.0788
25503W        W68519  18.397  12.560  28.282  0.4466 -0.0426  0.1532
25504W        W68520  30.847  27.980  10.560 -0.0053 -0.1780  0.0483
25505W        W68521   6.547  24.309   6.751 -0.0306  0.1309 -0.0823
25506W        W68522  13.970  27.890  28.694 -0.0683 -0.2702  0.0620
25507W        W68523  26.869   6.093   5.619  0.0347  0.2582 -0.3662
25508W        W68524  30.181  23.347  25.026  0.1387  0.0036  0.2474
25509W        W68525  12.622  27.415   6.645 -0.2800  0.0761 -0.0429
25510W        W68526   7.046  33.800  10.676 -0.1843 -0.0072 -0.0580
25511W        W68527  13.075  11.597   8.784  0.0032  0.0236  0.0291
25512W        W68528  20.648  24.598   0.531  0.3376  0.2568  0.1818
25513W        W68529  27.749  22.871  28.507 -0.2265 -0.0737  0.1927
25514W        W68530   6.948  11.000   1.316 -0.2389  0.1699 -0.2869
25515W        W68531  29.065  15.190   5.449  0.0852  0.2208 -0.1967
25516W        W68532   8.395  29.290   6.095 -0.1345 -0.2526  0.0742
25517W        W68533   8.391  14.455   5.528 -0.1495 -0.2442  0.1298
25518W        W68534  19.898  11.914   0.955  0.3488 -0.0528 -0.0758
25519W        W68535   8.489  16.487  25.088  0.0063 -0.1418  0.0496
25520W        W68536   6.590  14.314  20.430  0.1193 -0.0918  0.0250
25521W        W68537  15.062  23.261   5.671  0.0346  0.4722  0.2645
25522W        W68538   3.828  24.106   6.800 -0.0363 -0.2748  0.0458
25523W        W68539   5.097  25.066   8.256 -0.1198  0.0115  0.0001
25524W        W68540  16.287  32.168   4.033 -0.0648  0.0051  0.2880
25525W        W68541  26.199   8.917   4.970 -0.3158  0.0136  0.0712
25526W        W68542   2.831  21.786   4.354 -0.0772 -0.1367 -0.1325
25527W        W68543   4.367  24.903   7.219 -0.0413 -0.0110 -0.0567
25528W        W68544  18.866  20.505   2.107  0.2466  0.0753 -0.0204
25529W        W68545  27.052  28.807   6.317 -0.1546 -0.3778  0.1970
25530W        W68546  23.358   6.797   3.629 -0.0703  0.0191  0.0591
25531W        W68547  16.285   1.131   3.386  0.2487 -0.2063 -0.2277
25532W        W68548  20.011  20.904   3.699  0.0213  0.0095 -0.2557
25533W        W68549  25.342   9.533   8.638  0.2394 -0.1006 -0.0356
25534W        W68550  33.754  31.833   2.353 -0.0165 -0.0383  0.0517
25535W        W68551  12.516  13.811   4.946 -0.4040  0.0777 -0.4646
25536W        W68552  23.170  13.753  24.384 -0.1900  0.0805 -0.0098
25537W        W68553  30.757   7.735  23.933  0.3379 -0.1506 -0.0035
25538W        W68554  21.930  23.917  10.174  0.2291  0.1713  0.1902
25539W        W68555  21.432  11.139   4.985 -0.0451  0.0743 -0.0183
25540W        W68556  27.437   9.838   6.462 -0.3570  0.0801  0.0794
25541W        W68557  12.402  12.457   0.150 -0.0872  0.0371 -0.0055
25542W        W68558  22.270   7.805  23.934  0.0173  0.0766  0.0849
25543W        W68559  31.218  23.885   7.888  0.2532  0.0102  0.3466
25544W        W68560  20.240   6.657   2.157  0.2390  0.0779 -0.1307
25545W        W68561  29.381  16.607   7.575  0.0796 -0.0230  0.0688
25546W        W68562  34.660  22.045   8.890  0.1237 -0.0903 -0.2059
25547W        W68563  29.311   4.592   0.101  0.1338  0.0187 -0.3010
25548W        W68564  27.227  17.264   3.938  0.3270  0.4025  0.1081
25549W        W68565  24.540  30.907  10.356 -0.2704 -0.2041 -0.2064
25550W        W68566  15.152  20.546   7.776 -0.0065  0.0501 -0.0303
25551W        W68567  28.887  20.440   2.026 -0.1578 -0.0630  0.1488
25552W        W68568  30.801  19.921   8.729 -0.2916 -0.0066  0.1348
25553W        W68569  26.415  32.174   0.490  0.0248 -0.3864 -0.2780
25554W        W68570  24.466  27.906   4.619  0.0515  0.1780 -0.2877
25555W        W68571   7.178   4.689   6.828  0.0163  0.2448 -0.0778
25556W        W68572  23.146  11.867   8.085  0.0401  0.1673  0.0315
25557W        W68573  14.973  31.434   9.530 -0.2998 -0.0406  0.0511
25558W        W68574  26.371   9.755  26.366  0.0634 -0.1229  0.3372
25559W        W68575   5.334  11.326   3.125 -0.0301 -0.2526  0.1789
25560W        W68576   0.091  26.466   9.991  0.3131  0.1649 -0.2277
25561W        W68577  10.452  30.561   4.813 -0.0905 -0.1860 -0.1656
25562W        W68578   0.463   6.932   8.364  0.4521  0.2996  0.2602
25563W        W68579  11.706   8.091   3.546 -0.1651 -0.2260  0.1238
25564W        W68580  10.557   7.352  23.013 -0.0614 -0.2380  0.2905
25565W        W68581   2.064  32.713  28.796  0.1920 -0.0206 -0.0684
25566W        W68582  24.972  13.979   3.375  0.3107  0.0866 -0.2243
25567W        W68583  27.793   8.765   9.514 -0.0098 -0.3395 -0.0723
25568W        W68584  22.363  20.619   6.434  0.1262  0.1489 -0.0016
25569W        W68585  16.741  27.733   6.900  0.0932 -0.0791  0.2661
25570W        W68586  23.649  21.208   6.938  0.0411 -0.0204  0.1160
25571W        W68587  29.840  26.051   7.017  0.0026 -0.1863 -0.0020
25572W        W68588  21.332   9.977   4.619  0.1533  0.2512 -0.2881
25573W        W68589  21.933  19.091  21.715  0.0733 -0.0066  0.1911
25574W        W68590  13.076  21.596  19.396  0.5462  0.0419  0.3065
25575W        W68591   5.545   9.817  17.656  0.1559 -0.0792 -0.2674
25576W        W68592  14.405  17.665  22.540 -0.1998  0.1596 -0.0469
25577W        W68593  31.041  11.551   4.703  0.0412  0.0430  0.3137
25578W        W68594  17.935  20.691   7.056  0.0496  0.2746  0.3693
25579W        W68595   0.605   9.747   7.253  0.4436 -0.0649 -0.1571
25580W        W68596  25.894  29.224   8.444  0.0571  0.0630  0.1125
25581W        W68597  29.796  24.784   6.532 -0.1816 -0.0608 -0.4103
25582W        W68598  24.010  23.464   4.528 -0.0062 -0.1187 -0.0030
25583W        W68599  18.314  22.185  24.577  0.1210 -0.2257 -0.0171
25584W        W68600  34.702  25.250   8.219  0.1010  0.0983  0.0213
25585W        W68601  27.904  12.552  26.789  0.2406  0.1402  0.2399
25586W        W68602  30.046  27.535  10.353  0.2714 -0.1351 -0.1249
25587W        W68603  25.418  20.566   1.620  0.0345 -0.0566  0.0932
25588W        W68604  22.727   5.291   4.299 -0.4105 -0.2774  0.0540
25589W        W68605  19.117  18.234   8.170 -0.0797 -0.0473  0.0765
25590W        W68606  22.937  20.866  28.646  0.1977 -0.3893  0.1262
25591W        W68607  20.740  28.717  23.589  0.3384  0.0250 -0.0082
25592W        W68608  15.774  16.086  22.589  0.1553 -0.0241  0.2047
25593W        W68609  32.548  18.264  25.680 -0.0425 -0.1028 -0.2083
25594W        W68610  23.896   1.031   6.245  0.1144  0.0005  0.1223
25595W        W68611  25.051  27.670  26.585 -0.1678 -0.3416 -0.3467
25596W        W68612  25.482   3.490   6.846  0.0040  0.3113  0.0850
25597W        W68613  18.171  18.714  21.422  0.1217 -0.0754 -0.1502
25598W        W68614  24.127   4.137   6.454  0.0422 -0.2088  0.0855
25599W        W68615  22.343  21.076   1.198 -0.0558  0.5261  0.0785
25600W        W68616  27.927  12.398   9.820  0.0123 -0.1841  0.2706
25601W        W68617  33.181   5.065  26.737  0.1639 -0.1364 -0.1114
25602W        W68618  13.765  24.406  24.471  0.0722 -0.0453  0.1093
25603W        W68619  29.436  28.129   9.314  0.0430  0.0489  0.1424
25604W        W68620  25.815  31.050  10.419 -0.0979  0.1061  0.1088
25605W        W68621  32.153  15.681   9.003  0.2662  0.0703  0.1317
25606W        W68622  20.270   1.924   1.860  0.0562 -0.0829 -0.0717
25607W        W68623  24.101  17.621   9.104 -0.0916  0.3123  0.2122
25608W        W68624  21.127  22.971   8.079  0.2661  0.1398 -0.2491
25609W        W68625  24.474  15.070  26.608  0.0016  0.0392  0.0459
25610W        W68626  25.891  17.241   5.608 -0.0226  0.1160  0.1716
25611W        W68627  12.904   5.527  25.233 -0.0170 -0.0653 -0.1229
25612W        W68628  26.845   4.782   9.597  0.5028 -0.2106  0.1056
25613W        W68629  18.235  16.607   3.742 -0.2329  0.2644  0.3494
25614W        W68630  12.351  16.712   7.204 -0.1116  0.0534 -0.2377
25615W        W68631  14.609  18.638  22.396 -0.1550  0.2563 -0.1409
25616W        W68632  21.413  31.560  24.217 -0.1748 -0.0102  0.1536
25617W        W68633  16.786  14.511   4.442  0.3036 -0.0422 -0.4305
25618W        W68634  22.776  10.539   1.171 -0.1307  0.2939 -0.1504
25619W        W68635  14.161  24.370   3.288 -0.0854  0.1533  0.0860
25620W        W68636  27.132  11.343   0.958  0.2976  0.1297  0.0646
25621W        W68637  18.559  33.685   4.479 -0.0673 -0.1629 -0.0072
25622W        W68638  19.701  11.109  17.566 -0.0169  0.0743 -0.1573
25623W        W68639  25.574  17.862   8.697  0.1524  0.4660 -0.2144
25624W        W68640  29.780   4.284   0.371 -0.2875  0.0960 -0.0886
25625W        W68641  34.580  19.963   4.269 -0.0863 -0.0058  0.0310
25626W        W68642  21.339  24.287   6.555 -0.0987  0.2264  0.1541
25627W        W68643  13.223   1.059   5.095 -0.2430  0.2662 -0.3275
25628W        W68644  29.842  17.635   8.657  0.1057 -0.1879 -0.2233
25629W        W68645  28.670   3.197   1.290  0.0181  0.2988 -0.1842
25630W        W68646  16.804  17.847  24.616  0.1059  0.3116 -0.0737
25631W        W68647  11.604  33.514   7.189  0.3211  0.1849 -0.4515
25632W        W68648   5.821  17.727   6.315 -0.0252  0.1186  0.1236
25633W        W68649   9.088  14.647   4.725 -0.1479 -0.2596  0.2529
25634W        W68650   2.396  15.710   0.609 -0.3784  0.1554 -0.1231
25635W        W68651   1.479  13.290   0.396  0.3152 -0.0809 -0.0002
25636W        W68652  25.778  25.708  10.142  0.1491 -0.0315 -0.1952
25637W        W68653  15.326  21.211  19.478 -0.0300 -0.0522  0.1860
25638W        W68654  26.565  30.267   4.697  0.0697  0.0222 -0.2033
25639W        W68655   0.128  30.495   1.802  0.0589  0.0655 -0.1091
25640W        W68656  22.223  10.534   9.250 -0.1018  0.1110  0.1929
25641W        W68657  24.478  29.888   5.022 -0.0391 -0.3094  0.1774
25642W        W68658  18.961  18.344   1.213  0.0066 -0.1011 -0.1911
25643W        W68659  23.366   7.812  28.222 -0.3631 -0.0231 -0.0460
25644W        W68660  27.527  14.624   9.692 -0.1677 -0.2425 -0.1162
25645W        W68661  14.073  32.674   6.961 -0.2982 -0.0599  0.2990
25646W        W68662  25.701   1.762   7.077  0.1621 -0.3200 -0.2156
25647W        W68663  12.766  19.596   6.791 -0.0589 -0.2893  0.1003
25648W        W68664   6.963  31.093   1.597 -0.0520  0.0645  0.0953
25649W        W68665   8.290   2.017   4.869  0.0242  0.0015 -0.3242
25650W        W68666   4.136  32.542  27.249  0.2291 -0.0771 -0.2043
25651W        W68667  24.340   7.361   4.991 -0.0794  0.1668  0.2644
25652W        W68668  19.203  20.119   2.812  0.3119  0.1426 -0.1787
25653W        W68669  22.551  27.331   3.471 -0.0086  0.2803 -0.1910
25654W        W68670  30.074  19.953   0.495  0.2962  0.0331  0.1092
25655W        W68671   2.172  27.940   8.595 -0.3450  0.2177  0.2122
25656W        W68672  21.281  27.326  18.231  0.2894  0.0634  0.2519
25657W        W68673  30.447  21.746  10.434  0.0903  0.3373  0.1387
25658W        W68674  28.963  23.420  15.560  0.2497 -0.0276  0.1992
25659W        W68675   9.998   7.054  10.052  0.3559  0.4112  0.0519
25660W        W68676  14.520   1.474   9.618 -0.2567  0.0344 -0.0788
25661W        W68677  14.152   0.152   7.243 -0.0293 -0.0979  0.1143
25662W        W68678  16.704  13.461  29.073  0.0726  0.2829 -0.0018
25663W        W68679  21.737  15.984   9.131 -0.1403 -0.1863  0.0397
25664W        W68680  16.634   1.254   1.877 -0.3213  0.2747  0.1077
25665W        W68681   6.432  33.902   2.661  0.3380  0.1680 -0.2981
25666W        W68682  13.253   0.299   4.196 -0.0047 -0.2967  0.1958
25667W        W68683  27.147  17.277   0.948  0.0909 -0.2284 -0.0790
25668W        W68684  34.729  24.780   5.372 -0.1300 -0.2172 -0.1850
25669W        W68685  11.119  24.781  26.771 -0.3103 -0.3736 -0.0931
25670W        W68686  13.878  20.498   8.288 -0.0551  0.3253 -0.0365
25671W        W68687  27.082  19.580   9.863 -0.1633  0.1522  0.0697
25672W        W68688  22.695  16.800  24.518 -0.4820 -0.0210 -0.3525
25673W        W68689  22.805  26.026  10.662 -0.0227  0.0777 -0.0212
25674W        W68690  23.142  17.222   3.770  0.1026  0.0195 -0.0547
25675W        W68691  29.616  25.027   5.267 -0.0078 -0.2962 -0.1310
25676W        W68692  25.335   2.273  11.715  0.0667 -0.3536  0.1586
25677W        W68693  20.866   8.506  26.960  0.0865 -0.0597  0.0648
25678W        W68694  28.513  25.701  11.946  0.0850  0.0793  0.0941
25679W        W68695  20.412  26.670   2.898  0.3161  0.0502  0.2018
25680W        W68696  26.099  10.487   7.728  0.0189 -0.1211  0.1042
25681W        W68697  24.071  16.328  16.882  0.0102 -0.0089  0.2663
25682W        W68698  16.324  29.398   8.532 -0.2608  0.0092  0.0597
25683W        W68699   3.389  17.266   2.803  0.2507 -0.0022  0.1270
25684W        W68700  15.397   2.662   5.102 -0.2550  0.3194  0.1195
25685W        W68701  30.767  20.313  28.651  0.0610  0.0911  0.2116
25686W        W68702   0.205  11.847  22.886  0.2242  0.1349  0.1193
25687W        W68703  26.025  16.740   2.869 -0.2941 -0.3518 -0.0722
25688W        W68704   8.195  24.278   2.770  0.0017 -0.0077  0.2317
25689W        W68705  27.214  13.751   4.850  0.0457  0.3762 -0.5022
25690W        W68706  33.218  16.581  27.840 -0.1272  0.1227 -0.1221
25691W        W68707  29.901  27.595   8.380 -0.2809 -0.0375  0.2499
25692W        W68708  32.475  12.857   5.519 -0.1437 -0.0093 -0.0629
25693W        W68709  24.071  18.060  26.387  0.2871  0.0796  0.2212
25694W        W68710  29.381  31.145   4.353 -0.1769 -0.1335 -0.0866
25695W        W68711  26.154   0.078   5.824  0.1132 -0.1775  0.1151
25696W        W68712  12.337  22.072   1.923 -0.1457 -0.1066 -0.1441
25697W        W68713  17.492  29.548   8.229 -0.0168 -0.0634 -0.1853
25698W        W68714  15.400  22.143   4.584 -0.4797  0.0978  0.2893
25699W        W68715  33.213  24.196   7.678  0.0704  0.1820 -0.1288
25700W        W68716  27.742  16.910  28.605  0.2237  0.4040 -0.0080
25701W        W68717  29.075  34.550   8.993 -0.1712  0.0359 -0.1002
25702W        W68718  15.768  29.150  19.400  0.0883 -0.5373  0.1554
25703W        W68719  30.776   7.907  28.342 -0.1746 -0.1140  0.3802
25704W        W68720  22.829  15.843  29.168 -0.2685 -0.2978  0.0110
25705W        W68721  26.909  16.388   7.869  0.0736 -0.0287 -0.1352
25706W        W68722  28.996  11.445   7.570  0.2075  0.0080  0.2531
25707W        W68723   0.296  22.056   2.768  0.3198  0.0756  0.3397
25708W        W68724   0.143   8.055   3.960  0.0320  0.0057 -0.0061
25709W        W68725   5.344  15.768   4.207  0.4595 -0.0754 -0.2340
25710W        W68726  34.604  29.324   8.585  0.0257 -0.2461  0.0485
25711W        W68727  25.373  12.776   3.274  0.3731 -0.3330 -0.0334
25712W        W68728   2.008  16.907   7.433 -0.3887 -0.1136  0.1702
25713W        W68729  12.697  26.862   4.746  0.2890  0.2172 -0.1347
25714W        W68730   7.159  13.597   3.498  0.0315 -0.0590 -0.5922
25715W        W68731  29.004   0.400   7.548  0.1981 -0.0005 -0.2378
25716W        W68732  18.184  29.913   5.297 -0.0545 -0.2768 -0.0547
25717W        W68733   6.375  28.156   4.710 -0.1525 -0.1909  0.0714
25718W        W68734  29.031  22.812   1.995  0.0249 -0.0784 -0.0718
25719W        W68735  12.209  33.185   6.412  0.2478 -0.0173  0.2187
25720W        W68736  12.537  28.820  27.629 -0.1772 -0.1462 -0.1409
25721W        W68737  24.256  22.227   8.604  0.1137 -0.1911  0.3180
25722W        W68738  26.649  14.771   3.951 -0.1867  0.0082 -0.3751
25723W        W68739   8.707  27.875   1.130 -0.1431  0.0947 -0.2261
25724W        W68740  13.946  22.535  24.792  0.0130 -0.2772 -0.0445
25725W        W68741  24.784  29.476  10.804 -0.1532 -0.0347 -0.0348
25726W        W68742  31.447  22.731   8.616  0.1097  0.0009 -0.2529
25727W        W68743  19.521   1.402  29.311  0.3047 -0.1819  0.0037
25728W        W68744  31.059  27.730   9.185  0.0123  0.2204  0.2771
25729W        W68745  17.027  21.134   8.613 -0.2875  0.0276  0.0485
25730W        W68746  23.528  22.506   8.406 -0.0862  0.1537  0.0527
25731W        W68747  17.334  23.297  26.310  0.3963 -0.6123  0.1428
25732W        W68748  19.207  33.842   0.492 -0.0074  0.0273  0.3498
25733W        W68749  13.846  22.056   5.619 -0.2724 -0.2032 -0.3777
25734W        W68750   4.463  13.498   6.882 -0.1675 -0.1072  0.1212
25735W        W68751  25.761  15.832   6.404 -0.1449  0.0180 -0.2520
25736W        W68752   0.849  20.956   3.468 -0.2811  0.1182  0.1956
25737W        W68753  25.472   3.077  24.948  0.1116  0.1180 -0.1591
25738W        W68754  11.432  12.444  27.968 -0.0578 -0.0701 -0.0199
25739W        W68755   7.289  19.309  22.635  0.1036  0.0430 -0.2113
25740W        W68756  25.500  15.719   1.228  0.0143  0.1688 -0.3352
25741W        W68757  25.476  12.841   9.059  0.1361 -0.2046  0.2104
25742W        W68758  13.128  20.540   4.113 -0.0587 -0.1053 -0.1288
25743W        W68759  31.444  14.006   7.488  0.3612 -0.4562 -0.1350
25744W        W68760  24.801  22.273   6.154 -0.2188  0.1887  0.0069
25745W        W68761  27.689  22.332   4.156  0.1980  0.1218 -0.0527
25746W        W68762  32.097  21.435   5.403  0.1623  0.1240 -0.2394
25747W        W68763  22.003  33.719   6.630  0.0969 -0.0774 -0.0770
25748W        W68764  11.645   5.121  16.449 -0.2263 -0.0769  0.2660
25749W        W68765  25.440  26.730  16.331  0.0955 -0.2554 -0.3239
25750W        W68766  18.891  22.015   3.682  0.2032 -0.0267  0.2135
25751W        W68767  16.694  15.646  25.215  0.0770  0.2727 -0.2083
25752W        W68768  34.617  22.961   1.361  0.2004  0.2569 -0.0487
25753W        W68769  32.669  30.248   6.831  0.0459  0.3674 -0.0617
25754W        W68770  17.766  26.643   6.875 -0.2091  0.2708 -0.0104
25755W        W68771  16.432  12.109  22.958 -0.1795 -0.3054 -0.0586
25756W        W68772  23.263   3.828  23.259 -0.0850  0.0230 -0.0619
25757W        W68773   0.267  16.506   5.559  0.0423 -0.0336  0.1673
25758W        W68774  19.545  24.251   9.853  0.3719  0.0093  0.0244
25759W        W68775  26.513   2.791   0.804 -0.0973  0.2363 -0.1227
25760W        W68776  30.120  17.546   1.288  0.0436  0.0873  0.1160
25761W        W68777  16.572  21.280  13.363  0.2538 -0.0962 -0.0070
25762W        W68778  17.909  29.803  16.062  0.1584  0.3463 -0.0827
25763W        W68779  22.418  29.613   1.736  0.0677  0.1349 -0.1063
25764W        W68780  29.484  14.467   7.534 -0.3103  0.0167 -0.1249
25765W        W68781  32.284  21.730   1.852 -0.0027  0.0570  0.4688
25766W        W68782  15.008  20.436   2.347 -0.1599 -0.0757  0.0766
25767W        W68783  11.733  32.306  17.400 -0.2429 -0.1893 -0.1971
25768W        W68784  31.285  30.936  28.595  0.3130 -0.1307  0.0177
25769W        W68785  15.041  22.042   6.636  0.0031  0.0568  0.2170
25770W        W68786   3.381  13.294   7.999  0.2199  0.0982  0.0223
25771W        W68787  29.650  12.466  15.658  0.1133  0.0965  0.1802
25772W        W68788   1.641  30.149   0.368 -0.1708  0.0166 -0.1270
25773W        W68789   3.207  30.063  27.669 -0.2551  0.1307  0.2331
25774W        W68790   8.273  34.680   5.412  0.2132  0.1934  0.0138
25775W        W68791  30.213  31.144  23.290  0.0125  0.1201  0.0071
25776W        W68792  20.995  30.395   5.508  0.0796  0.0107 -0.1504
25777W        W68793   9.634   9.917   2.908  0.0978  0.2313  0.3453
25778W        W68794  14.670  11.172   6.742  0.0977  0.1224  0.0880
25779W        W68795  29.308  20.008   2.750  0.0335  0.4603  0.0003
25780W        W68796  21.503  20.950   6.724  0.0523  0.0781 -0.2118
25781W        W68797  23.769  33.664  25.106  0.3557  0.1957  0.0391
25782W        W68798  27.677  16.865   4.174 -0.0295  0.1019  0.0899
25783W        W68799  18.136  26.405  17.881 -0.0240  0.0224  0.0192
25784W        W68800  18.813  15.276  22.117  0.3381 -0.0542 -0.1292
25785W        W68801  30.708  24.685   6.180 -0.3306 -0.4277 -0.0716
25786W        W68802  23.533  24.729  10.939  0.0693  0.2977 -0.0850
25787W        W68803  28.596  33.092  11.364  0.2593  0.0539 -0.0565
25788W        W68804   0.294  28.040   3.219 -0.2637 -0.4229 -0.1021
25789W        W68805  32.441  30.533  25.008  0.2930  0.0728  0.0244
25790W        W68806   9.118  27.560   5.226  0.1907 -0.0379  0.0016
25791W        W68807  13.681  25.471   2.116 -0.2555  0.0227  0.2412
25792W        W68808  21.342  33.378   6.938  0.2124 -0.2496  0.3570
25793W        W68809  25.295  24.749   8.294 -0.0130 -0.1974  0.0157
25794W        W68810   3.164  24.935   7.920  0.0565 -0.5085 -0.1359
25795W        W68811  14.403  24.809   7.539 -0.1376 -0.3479 -0.4863
25796W        W68812  25.298  26.515   5.945  0.0546  0.2093 -0.0760
25797W        W68813  31.815  21.375  20.909 -0.0120  0.0541 -0.2374
25798W        W68814  28.308  20.199   9.808  0.2232  0.0462 -0.0035
25799W        W68815  16.796  25.433   8.551 -0.1034  0.0339  0.3318
25800W        W68816  18.246  11.814   3.747 -0.0244 -0.1471 -0.2502
25801W        W68817  12.304  24.463  20.428 -0.1253 -0.0621 -0.1628
25802W        W68818  28.016  21.131  10.508 -0.0619 -0.0992 -0.1249
25803W        W68819  14.746  26.128  27.807  0.1447  0.1035  0.0459
25804W        W68820  22.225  23.457   8.963  0.2867 -0.1139 -0.2130
25805W        W68821  17.060  29.812   6.253  0.1668 -0.0019  0.3135
25806W        W68822  13.135  19.480  12.618  0.0349 -0.0371  0.1110
25807W        W68823  23.443   6.670   4.886 -0.0913 -0.0870 -0.2354
25808W        W68824   9.756   8.339   4.763 -0.0930  0.2659  0.2447
25809W        W68825  16.764  32.141  27.821 -0.0036  0.2157 -0.0361
25810W        W68826  24.740  23.426  19.697 -0.0325  0.0025 -0.2929
25811W        W68827  32.673  26.064   0.544  0.3343 -0.0272  0.0548
25812W        W68828   1.640  17.520   8.471 -0.0325 -0.2033 -0.2454
25813W        W68829  27.302  23.740   6.579  0.2485 -0.2189  0.0113
25814W        W68830  31.659  23.088   4.020  0.2082 -0.3345  0.0090
25815W        W68831  17.703   2.013   6.796 -0.3338 -0.0010 -0.2075
25816W        W68832  24.634  25.188  27.898 -0.4350 -0.3094  0.0739
25817W        W68833  11.023  25.991  27.508 -0.1040 -0.1191  0.0810
25818W        W68834   8.078  18.078  15.798 -0.0520 -0.4072  0.0120
25819W        W68835  24.766  19.472   6.003 -0.0030 -0.0371 -0.0715
25820W        W68836  24.432  20.735  26.506  0.1637 -0.2352  0.1063
25821W        W68837  33.062  29.178  26.892  0.3267  0.0077 -0.0207
25822W        W68838  15.430  20.268  21.878 -0.0186 -0.0585 -0.2261
25823W        W68839   0.375   8.395   5.440  0.2934 -0.1612  0.3223
25824W        W68840  25.236  19.160   5.257  0.1133  0.1037 -0.2134
25825W        W68841  29.002  28.851   2.521 -0.1460 -0.1835 -0.1342
25826W        W68842  23.137  27.353   3.338  0.0940  0.0709  0.1648
25827W        W68843  18.447  34.224   7.784  0.0123 -0.3321 -0.1232
25828W        W68844  24.814  28.221  20.328  0.2227 -0.0991  0.0627
25829W        W68845  23.246  17.039  25.487  0.2287 -0.2486 -0.0396
25830W        W68846   1.204  13.144   2.383 -0.0009  0.3071  0.3998
25831W        W68847  26.000  23.676   5.077  0.1433  0.0169  0.2976
25832W        W68848  26.421  20.061   0.853 -0.2425 -0.1528  0.2120
25833W        W68849  18.265  21.710  28.050 -0.0514 -0.1064 -0.1705
25834W        W68850   1.065  10.722   7.602  0.1933  0.0103 -0.2579
25835W        W68851  17.910  30.405   6.652  0.2056  0.1382  0.1624
25836W        W68852  20.375  27.090   0.568 -0.0187 -0.2890  0.1666
25837W        W68853  22.044  28.435  15.195  0.0015  0.1269  0.4898
25838W        W68854  18.970  29.493   2.301  0.2865  0.3453 -0.1073
25839W        W68855   2.345  30.764  26.161  0.3671  0.1498  0.0442
25840W        W68856  20.271   6.336  27.514 -0.1162 -0.1287  0.1080
25841W        W68857  23.565  33.434   9.438 -0.2801  0.0708  0.1678
25842W        W68858   1.874   7.235  27.874  0.1560 -0.0052  0.0271
25843W        W68859  28.770  25.416  10.105 -0.3054 -0.0217 -0.1274
25844W        W68860  17.812  22.308   7.559  0.0896 -0.0321  0.1480
25845W        W68861  32.500   1.635   8.176 -0.1183 -0.1454  0.2105
25846W        W68862   5.691   8.393  27.384 -0.1151  0.0331  0.2295
25847W        W68863   9.783  14.264   3.786 -0.1685  0.0230  0.1089
25848W        W68864  10.950   4.055  27.013  0.2076 -0.1532  0.2447
25849W        W68865  26.207  17.671  24.500  0.2802 -0.2512 -0.0192
25850W        W68866  31.853  31.470  19.980  0.0761  0.0066  0.0316
25851W        W68867  20.409  23.070   6.801  0.0002  0.0254  0.3140
25852W        W68868   0.113   7.616  21.449  0.0556  0.0181  0.0568
25853W        W68869  12.038  33.581   5.081  0.0020  0.1677 -0.2493
25854W        W68870   9.980  14.373   0.966 -0.1365 -0.3032 -0.1011
25855W        W68871  34.578   4.430   5.027 -0.1164 -0.0115 -0.2759
25856W        W68872   2.307  23.547  24.765 -0.2397  0.0126 -0.0017
25857W        W68873  16.172   0.252   3.940  0.1099  0.2279  0.0327
25858W        W68874  25.376  15.109   2.130  0.0130 -0.1894 -0.2580
25859W        W68875   0.746   6.110  27.629 -0.0139 -0.1636  0.0900
25860W        W68876  15.709  21.851   7.568 -0.4876 -0.2894 -0.1201
25861W        W68877   1.810   4.828   2.054  0.0077  0.0900 -0.1005
25862W        W68878  28.735  22.406   7.646 -0.0851 -0.0638  0.0842
25863W        W68879  11.538  26.979   0.504  0.0050 -0.1393 -0.2660
25864W        W68880  23.424  31.643   3.844 -0.0448 -0.3595 -0.0230
25865W        W68881  15.483  19.429  12.879 -0.1856  0.1911  0.0633
25866W        W68882  16.180  18.126   1.647  0.1184 -0.0062 -0.1387
25867W        W68883  25.229  18.798   7.416 -0.1178  0.1652 -0.1353
25868W        W68884  24.269  21.827  29.113 -0.0340 -0.0516 -0.1389
25869W        W68885   8.573  19.902   2.263 -0.0206 -0.1633  0.0701
25870W        W68886  30.722  25.378  26.864 -0.1190  0.1545  0.1975
25871W        W68887  18.600  21.033  14.354  0.2434 -0.1188  0.0388
25872W        W68888  29.855  19.776   9.213  0.0947 -0.3063 -0.1104
25873W        W68889   8.135  12.669  27.047 -0.0187 -0.4269  0.3901
25874W        W68890  14.973  29.458  27.278 -0.0938 -0.0406  0.1547
25875W        W68891   2.656  13.679   4.111  0.0478  0.1450 -0.1651
25876W        W68892  29.050   6.041   3.229 -0.1462 -0.0147  0.2331
25877W        W68893  16.700  27.094  23.147 -0.0615 -0.1469 -0.2336
25878W        W68894  31.241  14.991  23.997 -0.2164 -0.0601  0.0707
25879W        W68895  16.251  17.676   6.873 -0.1131 -0.1922  0.0099
25880W        W68896  28.712  18.593   2.772  0.3202 -0.0014 -0.1158
25881W        W68897  28.350  20.454   4.884 -0.0044 -0.0358 -0.0176
25882W        W68898  25.777  20.032   8.384  0.1788 -0.1362 -0.2564
25883W        W68899   1.543   3.950  28.872 -0.0694  0.0312  0.0268
25884W        W68900  30.243  11.502  28.255 -0.3611 -0.1009  0.0694
25885W        W68901   7.979  23.290  15.557  0.2837  0.1250  0.0312
25886W        W68902  16.850  23.862   5.697  0.0305 -0.2607  0.0261
25887W        W68903  18.531  15.994  15.660  0.0370  0.1761 -0.0209
25888W        W68904  24.802  19.894  26.654  0.1391  0.2992  0.2098
25889W        W68905  15.361  20.112   5.139  0.2479 -0.1850  0.1281
25890W        W68906  20.162  20.421  27.248 -0.1552 -0.3233 -0.1816
25891W        W68907  31.854   6.085  15.895  0.4611  0.2203 -0.1946
25892W        W68908  30.648   4.442   1.293 -0.2510  0.1271 -0.0801
25893W        W68909  27.944  28.449   6.198  0.4636  0.3928  0.3396
25894W        W68910  17.481  22.078   4.806  0.1369 -0.2159 -0.0034
25895W        W68911  22.447   9.328  26.248  0.2282  0.3744 -0.1787
25896W        W68912  26.524  27.554   0.771 -0.2039  0.0681  0.1415
25897W        W68913  13.559  30.448  25.133  0.0780  0.0274 -0.0118
25898W        W68914  24.842  19.482   5.487  0.1258  0.2116  0.4301
25899W        W68915  20.388  25.758   8.084  0.0575 -0.0174 -0.3741
25900W        W68916  16.772  19.809  21.554  0.4146  0.1925  0.2730
25901W        W68917  28.881  11.731   9.523  0.3136 -0.3032  0.0803
25902W        W68918  27.919  22.100   2.876 -0.1865 -0.0854 -0.0989
25903W        W68919  30.651  20.313   1.187  0.0111 -0.0696  0.1760
25904W        W68920   6.858  22.461  20.328 -0.1790 -0.0833  0.0342
25905W        W68921  29.973  10.580  29.220 -0.0231  0.1591  0.2945
25906W        W68922  34.099  34.522   1.646  0.0525 -0.1530 -0.1611
25907W        W68923  30.873  32.997   0.946 -0.0544 -0.2203 -0.1697
25908W        W68924  32.031   3.280  24.727  0.3454  0.1723 -0.1891
25909W        W68925  17.995  24.440   6.383 -0.1708 -0.1005 -0.1196
25910W        W68926   1.144  20.887   2.512  0.0099 -0.0579 -0.2409
25911W        W68927  18.673  24.144  21.598  0.1003 -0.1715  0.1354
25912W        W68928   8.259  33.842   5.500  0.2370  0.0190 -0.1010
25913W        W68929  21.699  24.690  23.221  0.0479 -0.1514  0.2055
25914W        W68930   4.216  11.392   6.026 -0.1034 -0.1749  0.0542
25915W        W68931   9.677  21.719   5.544  0.1277 -0.0148  0.2304
25916W        W68932  30.300  23.348   9.984 -0.0157 -0.0599  0.2155
25917W        W68933  23.264  15.903   2.852  0.0788  0.0340 -0.2730
25918W        W68934  29.177  24.439   6.291 -0.0307  0.0359  0.0126
25919W        W68935  26.094  12.885   4.298  0.0264  0.1544  0.1772
25920W        W68936  13.826  18.036  20.512 -0.0144  0.0907 -0.1280
25921W        W68937  21.245  25.968   2.301 -0.1168 -0.2110 -0.1338
25922W        W68938  33.197  13.380   2.945  0.0457 -0.0557  0.3520
25923W        W68939   9.320   8.307  25.023  0.0548 -0.2353  0.3158
25924W        W68940  22.782  17.218  28.694  0.2334 -0.1304  0.0295
25925W        W68941  10.439  30.119  28.407  0.0526  0.0083  0.0679
25926W        W68942  21.373  27.722   3.516  0.1950 -0.0472 -0.1317
25927W        W68943  11.401  33.374   1.397  0.0745  0.0255 -0.2998
25928W        W68944  23.450   0.225   7.290  0.0595 -0.1349 -0.5277
25929W        W68945  27.900   9.880   6.798  0.1693 -0.0005 -0.2801
25930W        W68946  20.336  27.726   9.910 -0.4405 -0.1083 -0.1012
25931W        W68947   5.626  23.801   2.981 -0.0364  0.0728 -0.0427
25932W        W68948  15.826  27.357   4.138 -0.2168  0.0963  0.2050
25933W        W68949  25.316   1.936  10.509  0.1586  0.1344 -0.1943
25934W        W68950  31.546  33.345  17.636  0.0783  0.2522  0.0809
25935W        W68951  25.495  25.877  11.467 -0.1504  0.0564  0.0269
25936W        W68952  25.033  26.671  26.557 -0.3143  0.2007  0.1874
25937W        W68953  27.223  33.071  11.104  0.1131  0.2792  0.0871
25938W        W68954  17.038  11.036   8.311  0.1552  0.0252  0.2014
25939W        W68955  30.259  26.318  28.247  0.2434 -0.4517  0.0030
25940W        W68956  20.197  22.976   0.245 -0.0264  0.1341  0.2363
25941W        W68957  28.370  25.861  23.715  0.0026  0.4397  0.4500
25942W        W68958  30.032  21.537  26.448 -0.0336  0.0118 -0.0484
25943W        W68959  19.147  26.340   2.643  0.2950  0.3383  0.0372
25944W        W68960  32.644  17.189   7.663 -0.1172 -0.2321  0.0621
25945W        W68961  26.450  24.781  27.445 -0.1366 -0.1137 -0.2472
25946W        W68962  11.877  15.471  26.960 -0.1432  0.0266 -0.1416
25947W        W68963   1.425  15.820   8.753  0.1752  0.1237  0.2450
25948W        W68964  15.832  19.541   8.972  0.1316 -0.1990 -0.0868
25949W        W68965   7.810  28.745  28.630 -0.0084 -0.1799  0.0332
25950W        W68966   0.417  24.322   9.440 -0.2264 -0.2563  0.2744
25951W        W68967  27.460  16.813   4.601 -0.1447  0.2284 -0.1759
25952W        W68968   7.612  23.538   9.041 -0.1435  0.2001 -0.3160
25953W        W68969   3.914  15.208   3.294 -0.2214 -0.0908 -0.1448
25954W        W68970  25.494  22.121  10.320  0.3343  0.0381  0.0045
25955W        W68971  31.693  18.307   7.151 -0.3299  0.1589  0.0452
25956W        W68972  24.029  14.270   7.412 -0.0908  0.0039  0.1117
25957W        W68973  17.507  25.512   4.631  0.0906  0.0010 -0.0224
25958W        W68974   4.403  11.908  25.749  0.1671  0.0339 -0.1765
25959W        W68975  24.519   8.672   9.348 -0.5009 -0.2232  0.0854
25960W        W68976   4.207  25.348  15.213 -0.5920  0.1409 -0.2338
25961W        W68977  26.961  18.317   5.554 -0.2532 -0.2757  0.2478
25962W        W68978  25.050   8.406   1.741 -0.0559  0.2861  0.2848
25963W        W68979   1.717  31.493  26.292 -0.2134 -0.0987 -0.0357
25964W        W68980   8.540  32.225  20.167  0.2736 -0.0792 -0.0490
25965W        W68981  10.175  18.492   3.988 -0.2671 -0.1371  0.1553
25966W        W68982   8.854  32.345  28.958 -0.1355  0.2249  0.0024
25967W        W68983  19.659   2.309   1.250  0.1677 -0.0980 -0.2093
25968W        W68984   3.024  24.181  25.545 -0.2794  0.0431  0.3106
25969W        W68985  19.924  18.515   2.635  0.0359  0.1243  0.1400
25970W        W68986  15.794  16.093  27.106 -0.0437 -0.4340 -0.1165
25971W        W68987   9.978  22.953   2.770  0.1552  0.1515 -0.0217
25972W        W68988  24.826  27.341   6.385  0.0318 -0.0288  0.2386
25973W        W68989  19.525  24.049  23.180  0.1531 -0.2209  0.0560
25974W        W68990   7.835  19.027  21.611 -0.1449 -0.0997 -0.1138
25975W        W68991  19.383  34.209   3.403  0.1879  0.0892  0.4220
25976W        W68992  22.382  20.710   4.341  0.3254  0.0698  0.3614
25977W        W68993  23.498   0.487  16.485  0.0958 -0.1210 -0.1816
25978W        W68994  27.942  14.945  26.943 -0.0856  0.0300  0.0216
25979W        W68995   3.830   9.314  19.117 -0.3551 -0.0141 -0.1335
25980W        W68996  23.929   2.410  10.080 -0.0101  0.1505 -0.1961
25981W        W68997  14.899   0.354  24.403  0.0739 -0.0257 -0.1206
25982W        W68998   1.356  27.032   0.269  0.1249 -0.0874 -0.1447
25983W        W68999  17.530  10.463   7.885  0.0924  0.1112  0.0045
25984W        W69000  28.032  16.966   0.674 -0.5556  0.0926 -0.0713
25985W        W69001  16.433  33.326   1.714 -0.4403 -0.2751  0.0733
25986W        W69002   1.621  22.740   6.488 -0.1169 -0.3756  0.1541
25987W        W69003  24.161  10.057   2.859  0.0930  0.0487  0.2596
25988W        W69004   0.862  22.714   8.189  0.2310  0.1010 -0.0706
25989W        W69005  25.407  21.320  17.104 -0.0474  0.0959 -0.1089
25990W        W69006   3.909  22.121   3.900  0.1195  0.2247  0.4472
25991W        W69007  24.915  20.907   9.827  0.1376 -0.0507 -0.3861
25992W        W69008   1.558  11.425   3.834 -0.1772  0.1865  0.0015
25993W        W69009   7.946  21.494   7.158 -0.4174 -0.1098  0.3235
25994W        W69010  26.618  19.343   2.302  0.0832 -0.1505  0.0937
25995W        W69011  32.701  24.665   1.324 -0.0501  0.4286 -0.0480
25996W        W69012  23.104  33.462   0.587 -0.0112  0.1150 -0.0925
25997W        W69013  10.584  22.664   0.883  0.0363 -0.2763 -0.2656
25998W        W69014   2.402  30.727   5.869  0.1988  0.0049  0.2726
25999W        W69015   1.579   3.705   5.752 -0.0157 -0.2222  0.1980
26000W        W69016  27.808  19.558   3.722 -0.1367 -0.0774 -0.1209
26001W        W69017  22.301  24.762   7.075 -0.0107  0.0738 -0.2434
26002W        W69018  18.589  13.443   2.543  0.1821 -0.2987  0.1582
26003W        W69019  23.384  34.069  15.717 -0.0060  0.1060  0.0392
26004W        W69020  14.993   7.768   8.757 -0.0432 -0.0004  0.1854
26005W        W69021   4.003  11.547   9.298  0.3234  0.0061  0.0788
26006W        W69022  31.622  16.428  10.138  0.1043  0.0761  0.2525
26007W        W69023  26.312  12.560  23.469  0.0307 -0.2180  0.2732
26008W        W69024  12.645  16.070   2.066 -0.2408  0.1564  0.3838
26009W        W69025  22.383  33.976   3.848  0.1991 -0.0877 -0.0854
26010W        W69026  23.975  28.352   3.347  0.0489  0.0982 -0.0365
26011W        W69027   0.285  18.371  17.288 -0.0326  0.1616 -0.0936
26012W        W69028  15.958  20.124   2.492 -0.2110 -0.4062 -0.3993
26013W        W69029  30.570  22.008   3.973 -0.3010  0.1591  0.1109
26014W        W69030  24.168   0.858  27.624 -0.0828 -0.1994  0.0061
26015W        W69031  15.052  31.719   4.586 -0.0918  0.2914  0.0028
26016W        W69032  26.254  15.387   1.720 -0.0666 -0.3291 -0.0660
26017W        W69033  29.221   7.509  19.677  0.1179 -0.0037 -0.0382
26018W        W69034  25.588  27.874  11.495  0.0893 -0.0301 -0.1736
26019W        W69035  23.218  23.015   9.159 -0.0908  0.0532 -0.0891
26020W        W69036  17.909  23.490   6.764  0.1194 -0.0826  0.0476
26021W        W69037  31.070  27.879  11.515 -0.0916  0.0309 -0.2485
26022W        W69038  29.772  21.035   7.901  0.0587 -0.0781 -0.0757
26023W        W69039   8.377  15.096   0.960  0.0853 -0.0082  0.3373
26024W        W69040  14.675  34.772   3.984  0.0924 -0.1526  0.2006
26025W        W69041  29.610  28.982   5.720 -0.3332 -0.1725 -0.1625
26026W        W69042  27.404  14.619  25.733 -0.0848  0.0491  0.1343
26027W        W69043  34.523   9.658   5.007 -0.0053  0.2967  0.2208
26028W        W69044  11.302  29.948  17.301 -0.1306  0.0565 -0.0837
26029W        W69045  26.617  31.767  10.612 -0.2791  0.1705 -0.2921
26030W        W69046  15.557  23.330   3.468  0.1429 -0.0828 -0.0315
26031W        W69047  27.971  21.619  19.385  0.0503 -0.0693  0.0435
26032W        W69048  15.212  24.346  25.298  0.0503  0.0264 -0.4114
26033W        W69049  18.355  29.082   3.782  0.3107  0.1785  0.0771
26034W        W69050  10.222   4.122   5.836 -0.1425  0.3522  0.0031
26035W        W69051  25.641  29.395   6.068 -0.1020  0.1211  0.0852
26036W        W69052  19.859  11.510   2.807 -0.1133  0.2000 -0.2564
26037W        W69053  16.380  31.604   6.140 -0.1161  0.0256  0.2066
26038W        W69054  30.439  30.308   0.370 -0.0829 -0.0500  0.0511
26039W        W69055  26.174  23.093  26.962  0.0363 -0.0116 -0.2541
26040W        W69056   9.811  14.728   3.568  0.2859 -0.2551 -0.3720
26041W        W69057  27.678  32.802  22.508  0.0654 -0.0416 -0.2172
26042W        W69058  25.880  20.880   2.272 -0.0199  0.1713 -0.1279
26043W        W69059  23.622  31.659   0.858  0.2599  0.5794  0.1429
26044W        W69060  34.140  33.024  24.462  0.3792  0.3245 -0.0960
26045W        W69061  22.143  10.905   2.589  0.2459  0.3085 -0.1033
26046W        W69062  25.737  23.854   0.512 -0.0950  0.1296  0.0575
26047W        W69063   5.555  12.331  17.049  0.2176 -0.3294  0.0403
26048W        W69064   1.497  16.623   8.477  0.0474 -0.0890  0.1498
26049W        W69065  31.843  16.890  10.111 -0.0112 -0.1995  0.2277
26050W        W69066   0.769  18.906  23.238  0.3252 -0.2338  0.0343
26051W        W69067  13.775  31.840  28.812 -0.0135  0.0425 -0.1010
26052W        W69068  24.338   6.522   5.244  0.1536  0.0175 -0.4536
26053W        W69069  20.445  14.276  22.405 -0.0747  0.2144  0.2359
26054W        W69070   0.508   0.832   7.987 -0.1057 -0.2024 -0.3110
26055W        W69071   7.057  18.650   5.880  0.0639 -0.2284  0.3831
26056W        W69072  28.264  19.927   0.902 -0.0417 -0.0817  0.0749
26057W        W69073  19.213  19.658  26.584  0.0461  0.0905 -0.0341
26058W        W69074   9.201  11.285   9.332  0.1278 -0.0662 -0.3090
26059W        W69075   3.398   1.886  29.313  0.3761  0.2051 -0.1316
26060W        W69076  32.474  32.455   9.032 -0.0434  0.3646  0.0429
26061W        W69077  18.323  18.132  19.818 -0.0036 -0.0730  0.0709
26062W        W69078  30.254  22.508  18.667 -0.1743  0.1466 -0.0452
26063W        W69079  20.954   6.157  22.724 -0.2883  0.0794 -0.2243
26064W        W69080  13.445  15.380  15.422 -0.1499 -0.0695 -0.0664
26065W        W69081  23.778  21.841   2.748  0.0903 -0.0051  0.1937
26066W        W69082  17.227  20.044   0.592  0.3158  0.0206  0.1942
26067W        W69083  24.142  18.175   9.094  0.0235 -0.0096  0.4364
26068W        W69084   6.508  31.450  17.581  0.2335  0.0057  0.0049
26069W        W69085  12.565  21.328  22.362 -0.0855  0.2598  0.0004
26070W        W69086  19.839  18.656   4.951 -0.1288  0.0218 -0.2488
26071W        W69087  22.120  12.428   1.869  0.3505 -0.0277  0.1487
26072W        W69088  16.488  24.378   3.606 -0.0691  0.1191  0.0444
26073W        W69089  26.091  24.973   9.310  0.2503  0.0411  0.0879
26074W        W69090  29.202  10.541   9.056  0.1552  0.2055 -0.0527
26075W        W69091  29.151  27.504  21.428 -0.1720  0.0751 -0.0823
26076W        W69092  22.673  11.407   6.467  0.0731 -0.0858  0.2500
26077W        W69093  23.677  23.656   1.496 -0.3600 -0.1929 -0.1473
26078W        W69094  16.637  24.620  27.357  0.1921 -0.1533  0.2453
26079W        W69095  14.582  27.629  25.452 -0.2309 -0.2247 -0.0401
26080W        W69096  23.832  12.341   7.097 -0.0196  0.0341  0.1316
26081W        W69097   4.348  31.595   6.965  0.0154 -0.3894  0.1530
26082W        W69098  23.465   9.384  26.554 -0.0755 -0.1481  0.0953
26083W        W69099  34.288  15.286   2.271  0.0152 -0.0403  0.1598
26084W        W69100  27.824  30.859  25.303  0.2088  0.1188 -0.1426
26085W        W69101  29.948   6.714  26.702 -0.0549 -0.2522  0.1292
26086W        W69102  16.454  17.587   0.896  0.0873  0.0356 -0.3370
26087W        W69103  28.483  14.655   7.403  0.0354 -0.1206 -0.3251
26088W        W69104  22.738  17.625   8.547  0.2713 -0.3719  0.0659
26089W        W69105  33.881  15.780   1.319  0.2432 -0.1703 -0.0888
26090W        W69106   1.876  26.023  21.788 -0.3956  0.0397  0.1592
26091W        W69107  34.256  26.832  20.955 -0.1472 -0.3546  0.0285
26092W        W69108  17.446  27.790   1.891 -0.1375 -0.2649 -0.1467
26093W        W69109  20.794   8.321   7.844  0.1026  0.1534  0.3957
26094W        W69110  19.537  21.839   9.115 -0.0063  0.1358 -0.1977
26095W        W69111  26.089  22.091   6.373 -0.3990  0.0166 -0.0290
26096W        W69112  24.018  18.693   5.981  0.2743  0.1040  0.0349
26097W        W69113  18.508  28.824   4.302  0.1549  0.1368  0.1042
26098W        W69114   1.241   6.661  27.274  0.1926  0.1946 -0.0385
26099W        W69115   4.470  33.928   8.141 -0.2301 -0.0128 -0.0733
26100W        W69116   1.066  26.826   3.434 -0.0661  0.1267 -0.0033
26101W        W69117  24.085  17.870   1.231 -0.0127 -0.0808 -0.0283
26102W        W69118  32.355  13.460  21.755  0.1127  0.0320  0.0616
26103W        W69119  32.214  11.960   9.843 -0.1643  0.3131  0.0246
26104W        W69120  22.730  19.876  25.348 -0.0525 -0.0554  0.0719
26105W        W69121  23.056  15.493  18.851  0.1463  0.0188 -0.1046
26106W        W69122   3.875  22.630   9.097 -0.0710  0.0678  0.0932
26107W        W69123  12.264  20.048   7.852  0.1223  0.0243  0.2181
26108W        W69124  10.066  21.280  16.381  0.1506  0.2025 -0.2506
26109W        W69125  26.918  22.485   7.998 -0.1037  0.0474  0.1434
26110W        W69126  27.479  13.800   8.678  0.1272  0.0172  0.0855
26111W        W69127  30.729  24.988   3.512  0.0004 -0.2356 -0.0827
26112W        W69128  23.403  23.421   8.324 -0.1220  0.3160  0.1782
26113W        W69129   3.276  21.520   4.178 -0.2154  0.1047  0.2355
26114W        W69130  27.197  19.770   5.963 -0.1461 -0.0181  0.0419
26115W        W69131   1.363   3.430   2.195 -0.0471  0.0167  0.1630
26116W        W69132  23.718  17.955   2.224 -0.2076  0.1545  0.1711
26117W        W69133  23.200  16.033  26.106 -0.1031 -0.0928  0.0976
26118W        W69134  20.024  24.648   2.821 -0.0378 -0.3256  0.3842
26119W        W69135   9.713   5.450  23.956  0.1472  0.3921  0.1453
26120W        W69136  15.373  22.255   3.623  0.2610 -0.0393  0.1931
26121W        W69137  21.856  11.464   8.680 -0.2285  0.1643 -0.1477
26122W        W69138  34.371   9.642  17.035 -0.1168 -0.1059  0.0156
26123W        W69139  23.451  13.867   9.149 -0.3515  0.1450  0.1729
26124W        W69140  30.044   4.974   7.470  0.0069 -0.1367 -0.3442
26125W        W69141  16.320   3.551  27.119 -0.0200  0.2060 -0.0575
26126W        W69142  24.672  29.618  19.314 -0.0683 -0.0228 -0.1053
26127W        W69143  19.067  10.643   1.417 -0.2260  0.1435  0.4339
26128W        W69144  21.210  15.410   2.697  0.1715 -0.0699 -0.0979
26129W        W69145  27.669  23.982  17.971  0.0201  0.3803  0.0158
26130W        W69146   7.771  22.920   3.290 -0.2363 -0.0792 -0.1148
26131W        W69147  16.975  19.104   2.927 -0.2226  0.2604 -0.0038
26132W        W69148  22.460  18.003   3.208 -0.1482 -0.1454 -0.3934
26133W        W69149  24.564  25.402   1.580  0.0767 -0.2122 -0.0713
26134W        W69150   8.230  18.749   8.161 -0.2918  0.0905 -0.0586
26135W        W69151  29.703  26.088   0.146 -0.3151  0.1940 -0.3873
26136W        W69152  28.290  33.505   3.881  0.1715 -0.0991 -0.1189
26137W        W69153  15.400  22.824  28.536  0.1354 -0.0619 -0.0672
26138W        W69154  19.847  22.901   5.018 -0.0645 -0.1777 -0.0071
26139W        W69155  32.315  22.841  10.793 -0.2331  0.1319 -0.0719
26140W        W69156   0.239  33.715  23.388  0.2604  0.1071 -0.0807
26141W        W69157  14.730  21.960  26.933 -0.1602 -0.2591 -0.1841
26142W        W69158  28.370  20.328   6.395  0.0743  0.0952  0.1953
26143W        W69159  23.944  19.119   6.270  0.2828  0.1466 -0.1005
26144W        W69160  28.138  24.987  27.586 -0.1023  0.1379  0.1009
26145W        W69161  19.482  25.507   8.104 -0.1779  0.1324  0.0910
26146W        W69162  22.843   0.876   0.574  0.4614 -0.0373 -0.4667
26147W        W69163  13.398  10.381   5.826  0.1102  0.3052  0.0864
26148W        W69164  22.308  15.159   4.795  0.2222 -0.1576 -0.2927
26149W        W69165  24.955  25.253  10.543  0.2487  0.0956  0.1033
26150W        W69166  17.605  23.079   4.668 -0.0114 -0.1675  0.1542
26151W        W69167  24.628  24.390  24.227 -0.0035  0.0422  0.2326
26152W        W69168  22.425  21.372   2.619 -0.3693 -0.3316  0.1534
26153W        W69169  12.506  28.844   5.888  0.0601 -0.2874 -0.0549
26154W        W69170  25.709  19.690  27.690  0.2106 -0.4052 -0.1318
26155W        W69171  30.030   8.387  10.588  0.0072  0.1357 -0.1960
26156W        W69172  20.853  19.979   9.003  0.1500  0.1013 -0.0663
26157W        W69173  20.714  25.654  10.055 -0.2152  0.0624  0.0988
26158W        W69174  29.456  23.806   9.781  0.0703 -0.4697  0.2144
26159W        W69175  23.008  24.135  10.859  0.2336  0.0571 -0.0116
26160W        W69176  29.123  25.908  24.288  0.0362  0.0456 -0.1687
26161W        W69177  18.645   3.396  10.390  0.0548  0.2032 -0.3549
26162W        W69178   4.613  29.287   6.246  0.1889  0.0747  0.0214
26163W        W69179  16.680  17.534   2.796 -0.0355  0.2005 -0.1258
26164W        W69180   1.195  32.690  26.890 -0.1222 -0.0529  0.0984
26165W        W69181  33.305   0.925  10.094 -0.3750  0.1326 -0.0987
26166W        W69182  25.806  28.031  10.972 -0.0353  0.1129  0.3076
26167W        W69183  15.888  32.469  19.515  0.0548 -0.1077  0.0338
26168W        W69184  19.703   0.966  26.615 -0.0392  0.0531 -0.1394
26169W        W69185  32.087  14.022  26.936  0.1726  0.0596 -0.0186
26170W        W69186  21.124   0.364  10.335  0.1252 -0.0596  0.0409
26171W        W69187  28.170  33.365   3.447  0.3384  0.0687 -0.0318
26172W        W69188  27.918   6.854   0.920  0.1476  0.0131 -0.0819
26173W        W69189  16.235   4.674   7.862 -0.0090  0.0037  0.0593
26174W        W69190   3.355  25.593   3.187  0.1518  0.0804  0.1578
26175W        W69191  24.374  24.945   9.534 -0.1784 -0.3574  0.1045
26176W        W69192  30.105  22.740   8.030  0.0494  0.0235  0.0465
26177W        W69193  13.919  12.292   4.348 -0.0486 -0.2718  0.2121
26178W        W69194   4.911  24.557   8.038  0.0731  0.0527  0.0285
26179W        W69195  27.341  18.020   9.668 -0.2168  0.0871  0.2236
26180W        W69196  12.929  32.953  27.159 -0.2459  0.0490  0.5300
26181W        W69197  20.082  25.133   8.714 -0.3112 -0.1309  0.0906
26182W        W69198   0.868  16.103   4.732 -0.1702 -0.0703 -0.0178
26183W        W69199   6.328  29.628   3.204  0.3489 -0.3040 -0.0463
26184W        W69200  16.764  25.457  28.062  0.2860 -0.0800 -0.0217
26185W        W69201   8.689  18.066   3.770 -0.0218  0.0602 -0.0157
26186W        W69202  19.742  12.411   6.374 -0.1142  0.3245  0.0579
26187W        W69203  30.436  18.052   6.165 -0.1377 -0.0831  0.4081
26188W        W69204  32.138  16.408   1.598  0.1183  0.2743 -0.0040
26189W        W69205  17.949  25.036   8.567  0.1653 -0.0647  0.1562
26190W        W69206  23.142  22.399  26.954 -0.1214  0.1799  0.0065
26191W        W69207  17.751  14.408   7.574 -0.0723 -0.0016  0.0622
26192W        W69208  22.064  11.670   1.917  0.3275 -0.0857  0.0077
26193W        W69209  23.510   3.355   1.060 -0.1152  0.3447  0.1617
26194W        W69210  29.287   6.372  28.016  0.0095  0.2689  0.0596
26195W        W69211   8.197   2.656   2.168 -0.2881 -0.0297  0.1075
26196W        W69212  31.450  21.161   1.462 -0.3425  0.2209 -0.2020
26197W        W69213  24.571  17.815  22.713 -0.0360 -0.1379 -0.2127
26198W        W69214  29.314  26.658   5.857 -0.2075  0.0637  0.1790
26199W        W69215  27.605  30.359  29.177  0.0671 -0.2447  0.1819
26200W        W69216  26.995   7.232   6.193 -0.1039  0.1616 -0.1595
26201W        W69217  22.546  14.287   3.332 -0.2359 -0.1037  0.0027
26202W        W69218  17.018  16.743  23.558 -0.0799  0.0649 -0.1568
26203W        W69219  28.127  32.818   3.375 -0.2177  0.2290  0.0774
26204W        W69220  23.406  24.402  23.521 -0.1409  0.2431  0.4273
26205W        W69221  15.877  31.428  25.196 -0.0503  0.2330  0.0530
26206W        W69222  24.717   1.351   6.791 -0.1191  0.1509  0.2057
26207W        W69223  32.129  22.916   2.841 -0.1741 -0.0258 -0.0215
26208W        W69224  24.484  34.217  10.229  0.1790  0.1702 -0.1075
26209W        W69225  22.524  26.898   7.719  0.0289 -0.0007 -0.2157
26210W        W69226   7.207  12.637   5.199  0.1013  0.4554 -0.2009
26211W        W69227  26.277   8.725   8.840 -0.0092 -0.1797 -0.0965
26212W        W69228  24.855  28.573   4.816  0.0654 -0.2684  0.4486
26213W        W69229  31.417  10.326  26.851 -0.0809  0.1969 -0.1226
26214W        W69230  17.063  26.599  24.681  0.1309 -0.0866 -0.2349
26215W        W69231  18.882  29.637   6.467 -0.2690 -0.1314  0.1455
26216W        W69232  25.534  23.387  15.743 -0.0851 -0.3176  0.1094
26217W        W69233  25.709   6.333   4.547  0.1358 -0.0332 -0.2522
26218W        W69234  27.672   6.349  28.857 -0.2376 -0.2385  0.1172
26219W        W69235   6.163  32.824   8.580  0.3257  0.0152  0.0801
26220W        W69236  27.200   9.959   7.564  0.0167 -0.1991  0.1015
26221W        W69237  20.730  22.910  23.262  0.1357  0.1239 -0.0240
26222W        W69238  27.745  20.079   5.339  0.0981 -0.2631 -0.2694
26223W        W69239  33.386  18.287  10.063  0.2049 -0.1524 -0.0409
26224W        W69240  20.028  30.540   7.028  0.2806  0.0328 -0.2416
26225W        W69241  21.638   2.219  16.219 -0.0058 -0.0865 -0.0374
26226W        W69242  26.584  27.183   7.422 -0.0992 -0.2919  0.0481
26227W        W69243  13.907  27.674  23.245  0.4958 -0.0480 -0.0803
26228W        W69244  27.008   5.910   7.166 -0.2983 -0.1320 -0.1928
26229W        W69245  20.607  15.676  29.087 -0.2244  0.0347  0.1178
26230W        W69246  30.288   5.716   8.052 -0.0137  0.2654  0.0180
26231W        W69247  11.287  13.390   8.262 -0.2585  0.1177 -0.0952
26232W        W69248  21.818   6.695   0.741 -0.1143  0.0845 -0.2995
26233W        W69249  24.191   9.621   4.749 -0.1236  0.0367 -0.0447
26234W        W69250   8.258  22.237   5.041 -0.0539 -0.2475  0.1098
26235W        W69251  10.118  11.616  25.490 -0.0771  0.1516  0.0231
26236W        W69252  12.355  26.605  17.466 -0.1878 -0.2387 -0.0799
26237W        W69253  28.753  16.491  28.253 -0.1953  0.3359  0.1263
26238W        W69254  23.179  10.351  21.266  0.0940 -0.1804  0.4923
26239W        W69255  22.882  19.393  28.756  0.0365 -0.1063 -0.0025
26240W        W69256  24.999  21.555  27.703 -0.1708 -0.2729  0.0572
26241W        W69257  15.465  24.458   6.263  0.3881  0.0389  0.2675
26242W        W69258  21.966  17.210   1.534  0.0112 -0.0868 -0.3951
26243W        W69259  27.220   3.284  11.706 -0.0587  0.2021 -0.0595
26244W        W69260  20.942  17.443   0.304  0.1492 -0.2106 -0.1014
26245W        W69261  31.637  33.603   2.735 -0.1589  0.1013  0.0858
26246W        W69262  13.419  19.629  27.166  0.1237 -0.3236  0.0693
26247W        W69263  17.563  15.932  27.472  0.0690  0.0619  0.2278
26248W        W69264  26.098  24.836   9.861  0.0942 -0.1194  0.0351
26249W        W69265  21.827  15.234  16.768  0.2041  0.1798  0.1614
26250W        W69266  26.540  32.708   8.407 -0.0284 -0.4041  0.2896
26251W        W69267  16.687  12.372   6.131 -0.0282 -0.2617  0.0139
26252W        W69268  17.627  19.520   5.048 -0.2335 -0.1795 -0.1897
26253W        W69269  18.389  32.591  24.202 -0.1309 -0.0943  0.1686
26254W        W69270  33.028  23.597   8.191 -0.2110 -0.1055 -0.2010
26255W        W69271  22.244  33.414  25.985 -0.0579  0.2915  0.0160
26256W        W69272  31.298  31.185   7.241  0.0624  0.2038 -0.5700
26257W        W69273  22.870  21.175   2.515 -0.0808  0.3199 -0.2502
26258W        W69274  22.589  26.425   4.877 -0.1479  0.3171 -0.2073
26259W        W69275  24.954  27.845  10.711 -0.3590 -0.0452  0.2587
26260W        W69276   4.279  30.629   9.894 -0.0473  0.3236  0.0373
26261W        W69277  30.621  23.770   8.466  0.4428  0.4420  0.3024
26262W        W69278  13.972  33.204   5.793  0.0118  0.0777 -0.1769
26263W        W69279  26.829  23.332   8.624 -0.1644 -0.2435 -0.3004
26264W        W69280   5.082  16.962  27.896 -0.1865  0.1356  0.0829
26265W        W69281  14.774  21.463  15.536 -0.1336  0.0977  0.0526
26266W        W69282  26.838  16.612  20.249 -0.1923 -0.1270 -0.0672
26267W        W69283  32.518  28.855   4.031  0.1291  0.1886  0.1385
26268W        W69284  25.604  30.387  24.618 -0.1373 -0.1193 -0.2692
26269W        W69285   1.885  24.065  22.412 -0.0349  0.1631  0.0845
26270W        W69286  23.941  19.257   3.029 -0.0738 -0.1266  0.1162
26271W        W69287  24.838  21.443   7.975 -0.0183  0.0592 -0.3416
26272W        W69288  16.743  24.925   6.433 -0.1737 -0.1645 -0.0886
26273W        W69289  25.160  25.897   9.805 -0.1875  0.0143 -0.3049
26274W        W69290  20.377  33.801  28.466 -0.3074 -0.1228 -0.2807
26275W        W69291   4.925  18.611   6.496  0.1696 -0.0149 -0.1684
26276W        W69292  17.284   5.155   3.857 -0.0236  0.0499 -0.2492
26277W        W69293   2.881  16.466   6.701 -0.1588  0.1116 -0.2962
26278W        W69294  26.368  34.310  28.410 -0.1729  0.1583 -0.0685
26279W        W69295   8.339  21.327   5.476 -0.3179  0.2236 -0.2627
26280W        W69296  33.492  23.643   1.484  0.0769 -0.1585  0.1246
26281W        W69297  28.686  33.154   8.545 -0.1984 -0.0418 -0.0771
26282W        W69298  16.700  20.864   3.440 -0.1065 -0.1939  0.0987
26283W        W69299  21.798   1.254  10.178  0.0306 -0.0279  0.0970
26284W        W69300  25.109  32.020  11.859 -0.1934 -0.0485  0.1401
26285W        W69301   4.620  32.886  27.058  0.0397  0.2047  0.0016
26286W        W69302  28.156  15.686   3.360  0.1950 -0.0551  0.3615
26287W        W69303  13.700  19.968   0.609 -0.1609 -0.4165  0.0986
26288W        W69304  28.394   0.761   9.646 -0.2079  0.1182 -0.0589
26289W        W69305   0.914  28.609   7.854  0.1129 -0.0070  0.1093
26290W        W69306   3.110  21.105   9.103 -0.1410  0.0583 -0.0070
26291W        W69307  29.124  32.293   5.806  0.3416 -0.3101  0.2371
26292W        W69308  11.636  34.166  28.129  0.0269  0.0093  0.1588
26293W        W69309  33.128  20.766   4.238  0.3146 -0.3749 -0.0199
26294W        W69310   8.176  17.906   5.354  0.0916 -0.0621  0.1142
26295W        W69311   7.384  30.435   9.035  0.1696  0.0215  0.0246
26296W        W69312  12.519  23.329   1.127 -0.0501  0.1533 -0.2980
26297W        W69313   4.606   4.265   5.378 -0.2619 -0.0523 -0.1540
26298W        W69314  14.346  31.544   9.312  0.1532  0.3451 -0.1145
26299W        W69315  27.445   9.782   4.935 -0.0125 -0.0079 -0.1637
26300W        W69316  12.086  22.736  24.372  0.0841 -0.1577  0.2190
26301W        W69317  31.030  11.112   5.022 -0.1785  0.1278 -0.0059
26302W        W69318  24.951  17.581   1.736  0.1133  0.3881  0.0771
26303W        W69319  23.851  12.351  26.102 -0.2897 -0.1918 -0.1991
26304W        W69320   2.818  21.553   3.329  0.0780 -0.4303 -0.3326
26305W        W69321  31.658  32.425  11.545  0.1090  0.3032 -0.0215
26306W        W69322  24.729  28.323  27.907 -0.0435  0.1344 -0.0919
26307W        W69323  21.829  20.728   0.297  0.0452 -0.2028 -0.1563
26308W        W69324  33.022  22.689   7.262  0.0592 -0.1216  0.1851
26309W        W69325  23.039  28.244   5.640  0.2111 -0.1267 -0.0986
26310W        W69326  27.222   4.091   0.650  0.1129  0.2393 -0.3027
26311W        W69327  21.311   1.698   7.671  0.0105  0.1905  0.0565
26312W        W69328  30.097  23.624  16.342  0.1674  0.0281 -0.0446
26313W        W69329  18.851  15.659   1.235 -0.0265 -0.1605 -0.0965
26314W        W69330  16.874  29.101   2.846  0.0444  0.2505  0.2112
26315W        W69331  30.485  24.863   1.817 -0.0979 -0.2830 -0.1082
26316W        W69332  32.053  11.147  28.674 -0.0236  0.1495 -0.4282
26317W        W69333  26.052  17.921   3.068  0.2670  0.1850 -0.2428
26318W        W69334  13.640  10.247   3.212  0.0148 -0.0277 -0.0985
26319W        W69335   8.302  33.667   9.412 -0.1452 -0.1194  0.0359
26320W        W69336  20.881  21.347  23.802  0.0784 -0.1980 -0.3560
26321W        W69337  20.308  26.780   6.399  0.1027  0.0687 -0.0006
26322W        W69338  16.341  32.215   0.991  0.1040 -0.0855  0.0287
26323W        W69339  31.342  12.650   2.848 -0.2258 -0.0169  0.0056
26324W        W69340  14.460  32.818  24.140  0.0303  0.1039 -0.0316
26325W        W69341  32.115  27.304   9.341  0.2831  0.1200 -0.3591
26326W        W69342  31.012  13.596  21.431  0.0571  0.1149 -0.0352
26327W        W69343   8.073   5.479   5.023  0.0952  0.2302  0.0695
26328W        W69344  22.952  11.783   3.291 -0.0754 -0.2263  0.1327
26329W        W69345  31.327  26.085   1.220 -0.0218  0.0747 -0.1059
26330W        W69346  22.216   3.417  21.448  0.1111 -0.0717  0.1000
26331W        W69347  10.702   5.715   3.496  0.2353  0.0178  0.1485
26332W        W69348  21.507  27.880   0.081 -0.2351  0.0210 -0.2175
26333W        W69349  27.797  16.149  25.859 -0.3439  0.0493 -0.3375
26334W        W69350  30.326  19.713   4.557  0.0500 -0.0878 -0.2607
26335W        W69351  27.945  21.694  10.516  0.2094 -0.0571 -0.3169
26336W        W69352  23.939  30.330  14.887  0.1486  0.2937 -0.0531
26337W        W69353   2.425  15.237   7.112  0.2320  0.0483  0.4150
26338W        W69354  25.642  21.816   1.547  0.0316 -0.0216 -0.1673
26339W        W69355  21.593  13.078   4.038 -0.1801 -0.1145  0.2953
26340W        W69356  31.329  15.553   9.302  0.0896 -0.0307 -0.0171
26341W        W69357  10.765  17.632   8.152  0.0141 -0.1110  0.3240
26342W        W69358  30.485  12.041   5.807  0.1198 -0.0570  0.1763
26343W        W69359  26.407  23.949   5.944  0.2538  0.2312 -0.1035
26344W        W69360  26.916  23.891   6.007  0.1202  0.1474  0.3575
26345W        W69361  18.590  19.928  29.052 -0.1753  0.1177  0.0182
26346W        W69362  23.602  19.285   8.992 -0.0421  0.0839  0.4050
26347W        W69363  17.850   3.667   6.324 -0.1428  0.0897 -0.3044
26348W        W69364  26.202  23.926  25.470  0.3844  0.0373 -0.2374
26349W        W69365   0.228   8.752   7.437  0.1577  0.0087 -0.1166
26350W        W69366  26.749  29.908   0.528 -0.1841  0.0103  0.0174
26351W        W69367   9.033  13.591   8.161 -0.0089 -0.1244 -0.0268
26352W        W69368  32.825  20.860   0.352 -0.0985 -0.0998 -0.3604
26353W        W69369  11.654  23.470   4.733  0.0601  0.1157 -0.0291
26354W        W69370  32.813  21.156   4.299 -0.0952  0.1502 -0.2304
26355W        W69371  17.940  24.790   7.664  0.2409 -0.2381 -0.3005
26356W        W69372  17.020  20.721  19.965 -0.2194  0.1831 -0.1980
26357W        W69373  12.702   1.800   1.259 -0.0777 -0.0277  0.3986
26358W        W69374  11.950  12.909   7.531  0.0491  0.1028 -0.0381
26359W        W69375  30.584  17.792   6.891 -0.1605 -0.0379  0.0794
26360W        W69376  33.588  11.020   7.100  0.0311 -0.2052 -0.2468
26361W        W69377  33.845  17.804   2.012 -0.1531  0.1602  0.1102
26362W        W69378  23.889  33.389   5.082  0.0207 -0.4565  0.1095
26363W        W69379  34.465  14.463   4.281 -0.5905 -0.2135  0.0425
26364W        W69380  17.150  16.986  17.247 -0.0708 -0.1448  0.1030
26365W        W69381  29.357   3.605   1.983 -0.0751  0.0093 -0.1416
26366W        W69382  27.414  20.383  15.900 -0.0147 -0.0213  0.3279
26367W        W69383   4.252  33.793   6.140 -0.0799 -0.3087 -0.3813
26368W        W69384  16.059  23.236   6.682 -0.2578 -0.1938  0.2895
26369W        W69385  12.709  19.932   5.247 -0.0422 -0.1763 -0.1696
26370W        W69386  25.796  16.792   4.403  0.1994  0.0109  0.0169
26371W        W69387  26.501  33.134  10.733  0.1426 -0.0456 -0.1272
26372W        W69388   6.333  15.990   9.147  0.2350  0.0798 -0.0740
26373W        W69389  23.495  27.929   1.189  0.0112 -0.2339 -0.0176
26374W        W69390  10.577  12.634   5.425 -0.2910 -0.0689 -0.2106
26375W        W69391  19.119   4.717   5.956  0.3814  0.0859  0.0362
26376W        W69392  32.225  15.389  10.715  0.0210 -0.1093  0.0703
26377W        W69393  10.125  19.310   6.910  0.0867 -0.1145  0.0317
26378W        W69394  19.802  24.409  20.248  0.2435  0.0645 -0.2333
26379W        W69395   2.735  11.126   1.066 -0.0015 -0.1199 -0.2180
26380W        W69396  12.259  28.877  19.014  0.0588  0.3035  0.1977
26381W        W69397  26.831  23.722   6.761 -0.1923  0.1105 -0.3319
26382W        W69398  22.824  27.740  27.374 -0.0911 -0.2174  0.2010
26383W        W69399  19.374  19.248   3.634  0.1603 -0.0330 -0.2350
26384W        W69400   9.792  30.453  28.828 -0.0623  0.0280 -0.0070
26385W        W69401  14.165  22.064  27.089 -0.2014 -0.0532 -0.0303
26386W        W69402  18.863  24.197   5.628  0.0278 -0.0900 -0.1001
26387W        W69403   3.060  30.387   4.225  0.0862  0.0561  0.0620
26388W        W69404  28.151  28.508  26.334  0.2751 -0.0801 -0.3540
26389W        W69405   9.242  29.149  10.421 -0.0209 -0.1500 -0.0327
26390W        W69406  31.614  22.133   6.342  0.1738 -0.3080 -0.1021
26391W        W69407  11.624  33.060  27.548  0.3917 -0.2156 -0.1291
26392W        W69408  27.529  21.781   3.035 -0.2589  0.1202  0.0302
26393W        W69409  33.617  28.657   6.248 -0.2268 -0.0561 -0.1963
26394W        W69410  31.544  10.940   8.107  0.0588 -0.0662 -0.1013
26395W        W69411  16.148  28.672   9.576 -0.3078 -0.1980  0.0124
26396W        W69412  13.878   9.388  21.438 -0.0738  0.0792  0.1220
26397W        W69413  24.099  16.975   6.843 -0.0745  0.2392 -0.0863
26398W        W69414   0.783  25.064   9.647 -0.4139  0.0147  0.2690
26399W        W69415  19.857  30.200   0.802  0.2154  0.3019 -0.1927
26400W        W69416  26.433   8.866   2.039  0.3106 -0.1686  0.0146
26401W        W69417  14.981  16.119   2.246 -0.1799 -0.2283 -0.0993
26402W        W69418  28.315  24.175  10.462  0.4677 -0.0984 -0.1995
26403W        W69419  23.150  20.437   3.951 -0.1473  0.0519  0.0247
26404W        W69420  16.052  33.880   4.828 -0.0333  0.0636  0.1691
26405W        W69421  28.191  24.756   7.920 -0.1114 -0.3237  0.0614
26406W        W69422  17.889  16.000  28.614 -0.1788  0.1306 -0.0476
26407W        W69423  26.328  21.846  29.230  0.1703 -0.1050  0.1166
26408W        W69424  17.292  31.412   5.780  0.2570 -0.3396  0.0174
26409W        W69425  28.197  12.813  27.156 -0.1137  0.1552  0.1208
26410W        W69426  26.646  31.324   9.986 -0.2603 -0.0826  0.0926
26411W        W69427  32.540  31.433   0.385  0.0276  0.1277 -0.1909
26412W        W69428  23.139  23.567   8.701 -0.3107  0.2120  0.1229
26413W        W69429   7.152  33.202  20.329  0.2568 -0.1396  0.1527
26414W        W69430  15.031  28.371   7.342  0.0643 -0.1235 -0.1650
26415W        W69431  22.957  21.665   7.714 -0.0265  0.1121 -0.0289
26416W        W69432  24.092  29.064  24.975  0.0998 -0.1541  0.1175
26417W        W69433  17.626   4.166   8.491  0.3006 -0.3791 -0.1859
26418W        W69434  29.192  18.703   8.547 -0.1512  0.1279 -0.2242
26419W        W69435  29.752  23.744   0.806  0.3488 -0.1058 -0.3519
26420W        W69436  18.478   7.869  29.265  0.2116  0.1755  0.1278
26421W        W69437   3.240  19.078   5.796  0.0643  0.1292  0.1813
26422W        W69438  17.892  25.433   3.131 -0.0254 -0.0509  0.1971
26423W        W69439  27.880  31.830  11.617  0.1974 -0.1965  0.0013
26424W        W69440  27.712  14.793  24.155 -0.2206  0.3322 -0.1266
26425W        W69441   8.473  28.358   9.113  0.0514 -0.0898 -0.1372
26426W        W69442  13.038  23.380  26.471  0.1280  0.1066  0.0049
26427W        W69443  34.586  11.286  10.152  0.0316 -0.2022  0.0482
26428W        W69444   8.228  21.551   9.725  0.2625 -0.0344 -0.1468
26429W        W69445  12.621  30.034   9.173  0.0305  0.2504  0.2473
26430W        W69446   9.413  15.939   5.790 -0.1058 -0.1626  0.0505
26431W        W69447  12.669  17.292  23.908  0.3458 -0.2655  0.0212
26432W        W69448   5.302  33.417   2.931 -0.0543  0.2095 -0.1498
26433W        W69449  32.811  20.056  26.447  0.1370 -0.0142 -0.0189
26434W        W69450   8.743   7.843   1.960 -0.1774 -0.2070 -0.2586
26435W        W69451  15.849  22.391   2.536 -0.3294  0.0189 -0.4255
26436W        W69452  26.037  20.974   5.061  0.1011 -0.3054  0.1325
26437W        W69453  18.814  22.773  22.316 -0.0728 -0.1227  0.1207
26438W        W69454  26.549   9.308  21.938  0.0724 -0.2732  0.0167
26439W        W69455  24.695  15.524  21.396  0.0649 -0.1112 -0.1120
26440W        W69456  30.481  22.910   8.461  0.1823 -0.0538  0.0737
26441W        W69457  20.784   6.725   9.513  0.1231  0.3714 -0.0487
26442W        W69458  19.146  23.011   8.534  0.2663  0.0193 -0.2439
26443W        W69459  27.308  26.150  11.962  0.2269 -0.1978  0.0817
26444W        W69460  28.678  23.329  27.347 -0.1157  0.2836 -0.2839
26445W        W69461   5.116  16.852   6.364  0.0608  0.4215 -0.1827
26446W        W69462  19.238  11.210  22.181  0.1236  0.0095 -0.0989
26447W        W69463  23.437  23.392   7.311  0.0528 -0.2124 -0.0722
26448W        W69464  11.119  10.226   6.712  0.0061 -0.1062  0.1237
26449W        W69465  13.188  19.983  19.713 -0.0798  0.3279 -0.0194
26450W        W69466  25.211   1.938   9.378 -0.2647  0.2440 -0.4920
26451W        W69467  30.814  33.919   9.492 -0.2590  0.2159 -0.2794
26452W        W69468  33.296  13.890   6.089 -0.1527 -0.0551 -0.0345
26453W        W69469  15.179  28.843   4.832 -0.1597 -0.1847  0.1209
26454W        W69470  20.482  26.197   6.003 -0.2454  0.0500 -0.1400
26455W        W69471  27.700  19.757  25.997  0.0754  0.3066 -0.1561
26456W        W69472  26.448  23.040  24.379 -0.0898  0.1046  0.0913
26457W        W69473  28.377  20.846   6.366  0.0165 -0.3394  0.0285
26458W        W69474  18.325   3.184   4.094 -0.2691 -0.0063  0.3060
26459W        W69475  24.309   5.518   9.956 -0.0318  0.0538 -0.0356
26460W        W69476   6.177  32.988  10.093  0.1109 -0.2197 -0.1281
26461W        W69477   7.034  26.889  26.504  0.4036  0.2356 -0.0616
26462W        W69478  21.709   7.884   7.877  0.0897 -0.2067 -0.3680
26463W        W69479  25.161  13.202   3.412  0.0713  0.1356  0.1292
26464W        W69480  15.324  31.257  14.998  0.0217  0.2151  0.0859
26465W        W69481  28.588  24.183   6.532  0.0156 -0.3332 -0.0467
26466W        W69482  32.806  31.785   3.973 -0.2124 -0.3934 -0.0894
26467W        W69483  30.196  12.924   4.825 -0.0597 -0.0582 -0.0945
26468W        W69484  33.086   3.280   9.968  0.1301 -0.4328  0.0193
26469W        W69485  19.919  19.114   8.097  0.3427  0.2069  0.2073
26470W        W69486  19.523  11.950   6.025 -0.1043  0.1342  0.1264
26471W        W69487   7.436  20.220  18.114  0.2781  0.2001 -0.1056
26472W        W69488  22.609  24.152   9.182 -0.3111  0.3824  0.0402
26473W        W69489   5.765  34.276   6.220 -0.1317  0.2739 -0.0223
26474W        W69490  26.649  12.428   1.250  0.1951  0.1766 -0.0694
26475W        W69491  25.158  25.063   7.864 -0.1879 -0.1609 -0.0541
26476W        W69492  32.078   8.915   8.862  0.0091  0.2458  0.2155
26477W        W69493  26.894  27.734  10.515  0.0016  0.1157 -0.2678
26478W        W69494  10.769  18.420   5.014  0.0898  0.1612 -0.2145
26479W        W69495   2.355  29.544   0.301 -0.1480 -0.0467  0.2174
26480W        W69496   3.081  22.320   1.149  0.1594 -0.0533 -0.3129
26481W        W69497  34.762  15.600   4.687  0.1333 -0.1763 -0.1469
26482W        W69498  26.169  26.807   6.057 -0.0212  0.2351  0.2670
26483W        W69499   2.271  22.634   1.910  0.0790 -0.0988  0.2341
26484W        W69500   0.673  23.059  28.022  0.0538  0.0418 -0.0973
26485W        W69501   4.205  29.450   3.965 -0.1425  0.0881 -0.2836
26486W        W69502  29.063  18.108   3.698  0.4278  0.0237  0.3376
26487W        W69503  21.830  20.147  26.653 -0.0589  0.3685  0.0101
26488W        W69504  33.310  29.772  16.218 -0.0285 -0.1257  0.1320
26489W        W69505  27.740  14.945   4.525  0.2005  0.3372  0.0482
26490W        W69506  28.851  17.266   1.884 -0.0457  0.1937 -0.4753
26491W        W69507  28.712  15.905  19.407 -0.0194  0.0734  0.2915
26492W        W69508  18.947  18.948  21.923  0.1386  0.0206 -0.0829
26493W        W69509  26.640  31.362  17.417 -0.1607  0.0162  0.1947
26494W        W69510  20.367  34.115  26.882  0.3879 -0.1298  0.0078
26495W        W69511  22.869  21.360  25.811 -0.0407 -0.3071  0.1315
26496W        W69512  22.481  16.225  27.489  0.2598  0.1746 -0.1646
26497W        W69513  27.921  20.848  23.695  0.0568  0.4423 -0.2573
26498W        W69514  30.235  17.083   2.650 -0.0606  0.1236 -0.3163
26499W        W69515  16.461  19.015  22.557  0.1129  0.0479 -0.1671
26500W        W69516  25.151  28.257   8.584 -0.1846 -0.1642  0.1796
26501W        W69517  26.279  16.069   3.011 -0.2499  0.0097  0.0378
26502W        W69518   9.361  23.655  19.859 -0.0254 -0.2253 -0.1583
26503W        W69519  14.844  27.392   4.333 -0.3050  0.1976 -0.0140
26504W        W69520   9.641  19.641  21.726 -0.1400  0.0181 -0.0148
26505W        W69521  34.052  25.347  15.762  0.1215 -0.1182  0.1511
26506W        W69522  31.866  12.462  25.993 -0.0298  0.1638  0.1516
26507W        W69523  13.720   1.026   4.719 -0.2617  0.0613  0.1586
26508W        W69524  29.644  30.485   5.427 -0.0375  0.1656  0.0213
26509W        W69525   5.398  32.719   4.081  0.1114 -0.0232  0.0651
26510W        W69526  14.220  24.405  17.990  0.1475  0.1742 -0.4025
26511W        W69527  23.834  32.394  18.454 -0.0371 -0.1405 -0.1145
26512W        W69528  31.723  17.818  23.222 -0.0709 -0.3718  0.0404
26513W        W69529  11.689  16.011   0.988  0.2384 -0.1830  0.2431
26514W        W69530   8.888  33.077  15.169  0.1540 -0.1352  0.1115
26515W        W69531  34.013   7.128   9.886 -0.0355 -0.0540  0.0074
26516W        W69532  32.761   9.225  10.139 -0.1104 -0.0905 -0.1730
26517W        W69533   1.432   8.958  28.512 -0.2699 -0.0739 -0.1236
26518W        W69534  18.258  30.400   7.469  0.0839 -0.2717  0.2322
26519W        W69535  29.143  27.283   9.185  0.2599  0.4457  0.1143
26520W        W69536  30.349   4.299   7.901 -0.1140 -0.0643  0.0080
26521W        W69537   4.486  11.478   2.574  0.2057 -0.3480 -0.3324
26522W        W69538  17.911  29.145   4.539  0.0266 -0.0718  0.1527
26523W        W69539  17.054  32.129   5.624 -0.1295 -0.0353  0.0072
26524W        W69540  17.422  14.318   5.944 -0.3556  0.1302 -0.0291
26525W        W69541  28.576  26.026  25.581  0.0749  0.0276 -0.2515
26526W        W69542  11.681  14.420   1.262 -0.1103 -0.2638  0.2628
26527W        W69543  12.675  22.481   0.902  0.0030 -0.0759  0.2245
26528W        W69544   8.841  17.869  28.343 -0.0127  0.0768  0.0855
26529W        W69545  22.614  21.045   3.449  0.0923 -0.0649 -0.1022
26530W        W69546  12.262  22.898   0.713 -0.3785  0.2765 -0.0431
26531W        W69547   9.248   6.062   6.158  0.0857  0.2949 -0.2145
26532W        W69548   1.081  13.877   5.982  0.0059 -0.2981  0.0259
26533W        W69549  26.546  18.312   6.682  0.1187  0.0040 -0.1756
26534W        W69550  31.864  27.163  26.696 -0.2179 -0.1179 -0.0373
26535W        W69551  32.266  31.037   9.263 -0.0408  0.1062  0.1379
26536W        W69552  14.825  13.007  20.765 -0.1579  0.0254 -0.1367
26537W        W69553  15.798  15.946  25.811  0.4373 -0.2758  0.0325
26538W        W69554   0.160  25.848  18.152 -0.4814 -0.0250 -0.1849
26539W        W69555  29.708  19.125  10.316 -0.3106  0.1530 -0.1814
26540W        W69556  32.848   3.406   4.845 -0.0169 -0.3718 -0.0484
26541W        W69557  15.791   6.178   6.759 -0.1202 -0.0695 -0.1879
26542W        W69558  24.278  19.728   2.417  0.0863 -0.0412 -0.0119
26543W        W69559  18.311   6.166  25.805  0.0823  0.1941 -0.2133
26544W        W69560  20.226  30.936   4.040 -0.1564  0.1595 -0.1443
26545W        W69561  18.438  22.213   3.090 -0.0495 -0.3879 -0.2111
26546W        W69562   5.243  22.613   9.085  0.0620  0.0917 -0.1589
26547W        W69563   0.703   5.758   9.733  0.1650 -0.0333  0.1338
26548W        W69564  10.799  22.850  27.604 -0.0189 -0.2294  0.2933
26549W        W69565  19.847  34.354   8.926 -0.0542  0.0994  0.2387
26550W        W69566   5.015   7.129   0.517  0.3097 -0.0281  0.0823
26551W        W69567  34.503  29.264   2.745 -0.1128 -0.0575 -0.0767
26552W        W69568  16.327  21.961   1.963 -0.3952  0.1677 -0.1414
26553W        W69569  12.114  11.648  27.363 -0.2029  0.1558  0.2969
26554W        W69570  16.166  34.526   2.093  0.0090 -0.0590  0.0275
26555W        W69571  20.999  11.320   1.825  0.0548  0.1506  0.0627
26556W        W69572   0.263   4.741  27.080 -0.0020 -0.4113  0.1112
26557W        W69573  23.870  25.861   9.600 -0.0282 -0.0901 -0.0840
26558W        W69574   1.007  20.234   8.702 -0.0253  0.1024  0.1289
26559W        W69575   0.772  26.238  26.874  0.1650 -0.0050 -0.0973
26560W        W69576   3.171  28.683   8.439 -0.1456  0.3431 -0.2049
26561W        W69577  17.913  16.512  25.104 -0.2466 -0.1220  0.0084
26562W        W69578  17.304  18.078  25.916  0.3965 -0.2553 -0.0777
26563W        W69579  13.735  18.913   2.410  0.4255  0.0625  0.1872
26564W        W69580  13.206  12.351  26.142  0.3959 -0.3348  0.0113
26565W        W69581   7.249  23.620   5.797  0.1712  0.1868  0.3348
26566W        W69582   5.378  21.633   2.994 -0.1531  0.0440 -0.2386
26567W        W69583  26.370  19.293   6.858  0.1142  0.1261  0.2642
26568W        W69584  33.446   4.928  28.698 -0.0168 -0.0332 -0.2730
26569W        W69585  17.498  19.768   6.702  0.0517  0.1439  0.2611
26570W        W69586  19.607  29.246   8.944  0.1944  0.0341 -0.0101
26571W        W69587  17.331  21.101  26.372  0.1840  0.1133 -0.3101
26572W        W69588  23.908  21.383  26.603  0.3852 -0.0538  0.0568
26573W        W69589  21.587  29.865  27.984  0.0935  0.5498  0.1168
26574W        W69590  13.248  19.705   6.550  0.1747  0.4504 -0.1043
26575W        W69591  30.206  29.782  21.527 -0.0245  0.0860  0.1316
26576W        W69592  22.438  32.846   9.176 -0.2847  0.1952  0.3132
26577W        W69593  29.004  25.542  11.152 -0.1564 -0.2151  0.2467
26578W        W69594  30.606  12.832   6.878  0.0206  0.0760 -0.1649
26579W        W69595  28.990   0.926  11.371 -0.0624  0.3144  0.1219
26580W        W69596  15.109  29.994   7.951 -0.0015 -0.5700  0.0976
26581W        W69597  22.403  19.388   0.364  0.2635  0.0083  0.3155
26582W        W69598   0.439  20.611   7.517  0.1656  0.0734 -0.1681
26583W        W69599  32.463  21.357   7.880  0.1930  0.0597 -0.1415
26584W        W69600  28.670  17.426   6.569  0.1654  0.2547 -0.1413
26585W        W69601  28.516  22.591  29.078 -0.1529  0.2969 -0.2930
26586W        W69602  21.194  21.408   3.332 -0.0926  0.0716  0.1543
26587W        W69603   7.752  32.570   6.192  0.2508 -0.1682  0.1152
26588W        W69604  21.592   7.630   9.757  0.2935  0.0622 -0.0763
26589W        W69605  23.618  13.180   6.645 -0.0695  0.2090  0.0786
26590W        W69606   4.254   9.231  23.626  0.1470 -0.0881  0.0770
26591W        W69607   4.631  20.084   7.931  0.0111 -0.0589  0.2563
26592W        W69608  24.532   3.642   6.185 -0.2256  0.0018  0.2110
26593W        W69609   9.399  22.107  24.848 -0.0111 -0.0737  0.1805
26594W        W69610   3.990  19.297   5.882 -0.5463  0.0436  0.1733
26595W        W69611  18.431  11.204   6.804 -0.0700  0.0307 -0.2176
26596W        W69612  17.520  16.966   8.280  0.2093  0.2158  0.0092
26597W        W69613  25.213  22.221   8.838  0.2379  0.1823 -0.0157
26598W        W69614   2.663  17.863  25.900  0.2486 -0.3458 -0.2214
26599W        W69615  16.652  14.703  21.189  0.0561  0.0548 -0.2114
26600W        W69616  19.652   7.741   7.560  0.2176  0.2539  0.1446
26601W        W69617  33.231  17.241  25.013 -0.0625 -0.0678 -0.1858
26602W        W69618   9.370  18.230   4.515 -0.0165 -0.3908 -0.2897
26603W        W69619  17.832  18.248  11.155  0.0283 -0.1131  0.1057
26604W        W69620  20.930  26.520  18.674 -0.0619 -0.0035 -0.2107
26605W        W69621  11.327  28.938  19.876  0.0430 -0.1072 -0.0266
26606W        W69622  31.385   4.200   3.833  0.1573 -0.1975  0.0506
26607W        W69623  33.160   0.035   2.091 -0.2101 -0.3218 -0.1990
26608W        W69624  16.008  15.652   5.674 -0.0318 -0.1089  0.0285
26609W        W69625  33.708  28.044  23.647 -0.1813  0.0430 -0.0447
26610W        W69626  19.259  10.124   7.182 -0.0812  0.0132 -0.1591
26611W        W69627   7.367  16.906  28.026 -0.2214 -0.0103  0.1644
26612W        W69628  28.150  15.119   1.430  0.1727 -0.1128  0.0466
26613W        W69629   2.428  27.672   8.090  0.0999  0.1414 -0.0990
26614W        W69630  27.339  27.404  10.911  0.0379 -0.1090  0.0687
26615W        W69631  29.711   4.138   8.353 -0.5089 -0.2255  0.2347
26616W        W69632  29.505  34.470  10.003 -0.0653  0.2429 -0.0387
26617W        W69633  20.216  29.090   8.797 -0.0358  0.0904 -0.0379
26618W        W69634  32.094  29.921   6.876 -0.0245 -0.1118  0.0564
26619W        W69635  16.706  26.874   6.510  0.0452 -0.2992 -0.0735
26620W        W69636  18.059  22.765  24.721  0.0350  0.1592  0.0862
26621W        W69637  18.550  29.770   4.281  0.1167 -0.1680  0.1260
26622W        W69638  12.588  11.470   8.752  0.0768  0.1094 -0.0999
26623W        W69639  11.977  20.821   1.740 -0.1903 -0.0540  0.0764
26624W        W69640  22.428  29.855   8.412 -0.1395 -0.1183  0.2149
26625W        W69641   5.280  30.263   4.225 -0.2696  0.2006 -0.2093
26626W        W69642  31.439  26.922  10.290 -0.0270 -0.0481  0.0507
26627W        W69643  16.545  22.233   0.992  0.0083 -0.2762  0.3323
26628W        W69644  20.948   1.672  18.601 -0.2994  0.1759 -0.0730
26629W        W69645  19.043  17.635   0.711  0.4214  0.1905 -0.0452
26630W        W69646  18.439   0.907   4.048 -0.0540  0.0256  0.0143
26631W        W69647  14.886   0.821  28.417  0.2324  0.3885  0.1620
26632W        W69648  31.869  24.353   8.802  0.0424 -0.0384  0.0287
26633W        W69649  11.487  15.449   5.562 -0.3338 -0.1920 -0.0235
26634W        W69650  13.866  12.194  23.657 -0.3572  0.2055  0.1073
26635W        W69651   8.657  32.150   6.548 -0.1217 -0.0244  0.0484
26636W        W69652  12.022  24.480   7.808 -0.0306  0.5340 -0.3577
26637W        W69653  18.472  30.424   6.631  0.1391 -0.1620 -0.2231
26638W        W69654  17.616  23.916   2.254 -0.0213  0.0308  0.1390
26639W        W69655  11.264  29.755  28.878 -0.1638  0.2014 -0.2761
26640W        W69656  18.339  17.074   3.301  0.0409  0.0916  0.1504
26641W        W69657  18.899  34.643  25.973 -0.2399  0.0864 -0.0064
26642W        W69658  16.347  28.084   5.033  0.2159  0.2364 -0.1970
26643W        W69659  13.681  15.514   3.053 -0.0082  0.0805  0.0588
26644W        W69660  13.939  27.680   6.445  0.1048 -0.3225 -0.2631
26645W        W69661  18.816  16.829   8.492  0.1382  0.0169  0.0368
26646W        W69662  32.457  28.293  17.839 -0.4335 -0.1073  0.3589
26647W        W69663  19.787   1.851   1.747  0.0336  0.3710 -0.2351
26648W        W69664  34.073  18.039   6.668 -0.0540 -0.1964 -0.0191
26649W        W69665  17.590  28.465   8.278  0.2008 -0.1301  0.2073
26650W        W69666  33.404  29.083  24.120 -0.1880 -0.0920 -0.0185
26651W        W69667   4.622  20.542   0.128 -0.0324  0.0095  0.0415
26652W        W69668  18.437   2.965   8.249 -0.3475 -0.0588  0.1127
26653W        W69669  16.696   6.552   7.747 -0.2607  0.2873  0.0705
26654W        W69670  27.172  16.760   0.004  0.2857  0.0974 -0.1224
26655W        W69671   2.298  33.340   8.820 -0.1508 -0.4040 -0.0901
26656W        W69672  24.266  24.278  27.504  0.0951 -0.1756 -0.0775
26657W        W69673   2.700   3.644   0.995 -0.0661  0.1867 -0.1716
26658W        W69674  18.740  29.995   8.050 -0.1014  0.0036 -0.1624
26659W        W69675  31.705  19.483  10.721  0.1171 -0.4180  0.2748
26660W        W69676  29.191  21.912  11.020  0.1321  0.0686 -0.0527
26661W        W69677  27.362  28.411  28.561  0.1407 -0.2635  0.0868
26662W        W69678  17.370  26.678  28.435  0.0068 -0.1475 -0.1016
26663W        W69679  10.802   7.162   0.975 -0.1871 -0.0797  0.0279
26664W        W69680  14.191  10.030  23.221 -0.1183  0.1674 -0.2052
26665W        W69681  34.282   1.235   9.158  0.0202 -0.1398  0.3973
26666W        W69682  34.124   3.590   5.101  0.1988 -0.0043 -0.2682
26667W        W69683  19.676   2.388   3.671 -0.2181  0.1722 -0.1399
26668W        W69684  20.081  26.591   8.902  0.1517 -0.0443  0.2738
26669W        W69685  29.452  22.456   3.851  0.0428 -0.0019 -0.0016
26670W        W69686  23.144  22.223   3.915 -0.2581  0.1477 -0.0616
26671W        W69687  20.102  11.459   4.978 -0.4069  0.2245 -0.2199
26672W        W69688   9.887  22.808   4.017 -0.2048 -0.0035  0.2364
26673W        W69689  27.714  27.505  10.459  0.1799 -0.0358  0.0938
26674W        W69690   9.071  18.709   7.520  0.2989 -0.2151 -0.1599
26675W        W69691  11.849  14.400   4.836  0.5434 -0.4222 -0.1636
26676W        W69692  31.196   8.950  28.148 -0.0024  0.3156 -0.0441
26677W        W69693   7.311   4.879  26.809  0.0656  0.0935  0.0624
26678W        W69694  32.310  26.553   8.452  0.3186  0.1388 -0.1024
26679W        W69695  11.656  32.857  10.001 -0.0083 -0.1205 -0.0459
26680W        W69696  14.815  28.120   5.208 -0.2991 -0.1368 -0.0666
26681W        W69697   7.492   2.760   1.732  0.1147  0.1391  0.3266
26682W        W69698  24.703  25.115  10.052  0.0596 -0.2216 -0.0941
26683W        W69699  12.626  21.655   6.526 -0.0543  0.3868  0.1405
26684W        W69700  31.063  31.179   1.270 -0.1592  0.1931 -0.1069
26685W        W69701  21.273  19.444  21.096 -0.2190 -0.2965  0.3201
26686W        W69702  15.859  19.465   7.021 -0.1890 -0.1332  0.0363
26687W        W69703  14.054  14.200   8.030 -0.0494 -0.0389 -0.1438
26688W        W69704   7.664  13.722   4.208  0.0740 -0.0483 -0.3005
26689W        W69705  14.352   0.958   7.653  0.0730  0.1844  0.1986
26690W        W69706  10.962  17.270   1.539 -0.1266 -0.4091  0.3312
26691W        W69707  31.947  34.386  10.102 -0.1220 -0.2834  0.0097
26692W        W69708   8.799  26.553   1.205  0.1686 -0.0334 -0.1647
26693W        W69709  17.177  30.678   9.450 -0.0130 -0.1714  0.1130
26694W        W69710  24.177  18.577   3.652  0.0007  0.1649  0.1839
26695W        W69711  18.503  14.961  24.812 -0.1186 -0.1599  0.0251
26696W        W69712  13.185  21.542   4.986  0.1068  0.2154 -0.0465
26697W        W69713  28.719  27.386   9.453 -0.0839  0.0489  0.0341
26698W        W69714  33.980  16.140   2.998 -0.1295  0.3690  0.1548
26699W        W69715  12.749  28.665  23.898  0.0561 -0.1358 -0.0331
26700W        W69716  31.759  30.960   8.149 -0.1301  0.0619  0.0156
26701W        W69717  24.694  22.857   1.523  0.1163  0.1572 -0.0382
26702W        W69718  22.005  15.737  23.152  0.0997 -0.2219 -0.0700
26703W        W69719   2.869   1.219   4.505 -0.1369 -0.1207 -0.0365
26704W        W69720  18.825  14.649  21.796 -0.0174 -0.1384  0.1760
26705W        W69721  24.858  11.041   7.751 -0.1024 -0.2052 -0.1635
26706W        W69722  27.454  18.585  28.698 -0.0866  0.2775  0.1015
26707W        W69723   7.752   9.463   9.001 -0.0476 -0.0672 -0.2702
26708W        W69724  26.114  34.089  19.286 -0.0944 -0.3113  0.3558
26709W        W69725  20.236   7.424   5.977 -0.1414  0.1735  0.1638
26710W        W69726   5.214  31.990  29.264 -0.2303 -0.1989 -0.2494
26711W        W69727   9.954  12.328   7.034 -0.1182 -0.0106 -0.0532
26712W        W69728  22.652   8.932   8.081  0.0556 -0.0949  0.1650
26713W        W69729  15.336   7.582   2.993  0.1753 -0.0796 -0.0845
26714W        W69730  23.003  14.634   6.333  0.2395 -0.1508  0.0648
26715W        W69731  20.241  18.515   0.535  0.2555 -0.3202 -0.1882
26716W        W69732  15.623  22.916  25.364  0.2045  0.5301  0.0129
26717W        W69733  26.748  23.784   0.874  0.4377 -0.0771  0.1565
26718W        W69734  22.093  25.241   8.419 -0.1233  0.0769 -0.1926
26719W        W69735  28.294  26.193   5.230  0.3953 -0.3289  0.0069
26720W        W69736  11.069   5.882   1.091 -0.2769  0.0285  0.1343
26721W        W69737   6.586   7.561  28.588 -0.1959 -0.1093 -0.0092
26722W        W69738   0.862  34.426   7.431 -0.2183  0.4590 -0.2005
26723W        W69739  26.354  32.327   8.047 -0.1457  0.1960 -0.0733
26724W        W69740  22.033  26.908   4.133 -0.1529  0.3738  0.0749
26725W        W69741  19.837   3.806   6.754  0.4090 -0.0649 -0.0836
26726W        W69742  25.571  32.859   2.391 -0.1594  0.3363 -0.1180
26727W        W69743  14.752  16.515   6.600 -0.0049  0.1052 -0.0861
26728W        W69744  21.321  26.127  10.777  0.0050 -0.3764 -0.1032
26729W        W69745  17.801  19.510  22.854 -0.0607 -0.4387 -0.3023
26730W        W69746  23.851  34.519   1.524  0.0936  0.0384  0.2384
26731W        W69747  31.940  21.690   9.976 -0.2210  0.1152 -0.0562
26732W        W69748   1.325  19.973   0.912 -0.0013  0.0117  0.1856
26733W        W69749  11.227  28.228   3.295  0.0734  0.2190  0.0947
26734W        W69750  34.298  25.766   4.451  0.1479 -0.0061 -0.2301
26735W        W69751  28.175  15.870  19.615  0.0561 -0.0602  0.2754
26736W        W69752  26.696  28.643  12.060  0.0967 -0.0330 -0.0001
26737W        W69753   9.821  30.064   2.176  0.1212 -0.2577 -0.1500
26738W        W69754  34.346   2.680   9.789  0.0103  0.1108  0.0230
26739W        W69755  29.276  26.212   7.748  0.2805 -0.1776 -0.2160
26740W        W69756  11.418  10.880   5.224  0.2252 -0.2441 -0.2634
26741W        W69757  30.111  17.725   6.681  0.0431 -0.0095  0.1375
26742W        W69758  34.377  18.597  28.865 -0.2015 -0.2189 -0.0850
26743W        W69759  16.332  33.489   4.404  0.2341  0.2865 -0.0137
26744W        W69760  24.697  22.809   4.853  0.1773 -0.0774  0.1198
26745W        W69761   3.939  26.556   1.314 -0.1164 -0.1920 -0.1071
26746W        W69762  24.072  17.934  24.908 -0.0467 -0.3339 -0.0447
26747W        W69763  22.862  31.033   7.716  0.2860  0.0334 -0.2006
26748W        W69764  23.071  30.660  27.168 -0.1291  0.0880 -0.2513
26749W        W69765  34.175  25.868  11.358 -0.3189  0.0577 -0.0529
26750W        W69766  18.055  33.328   6.356  0.1919  0.3210 -0.2141
26751W        W69767  31.855  13.962  23.711  0.1004  0.0607  0.2950
26752W        W69768  21.580  20.079   3.924 -0.1459 -0.2224  0.0784
26753W        W69769  20.545  26.126  28.046  0.2267  0.0167  0.0409
26754W        W69770  10.942  19.446  27.447  0.3057  0.0173 -0.0924
26755W        W69771  17.303  16.372   3.548 -0.0087  0.0444 -0.1802
26756W        W69772  12.009  10.956   8.992  0.1954  0.0517  0.1573
26757W        W69773  17.341  22.964  25.439 -0.1116  0.3583  0.4955
26758W        W69774  17.848  24.235  10.014 -0.0561  0.2165 -0.3216
26759W        W69775  20.650  27.557   6.019 -0.1090 -0.2213 -0.3599
26760W        W69776  14.510  14.893   4.610  0.6668  0.1604  0.0549
26761W        W69777  32.817  13.790   7.502 -0.4881  0.3371 -0.3382
26762W        W69778  22.521  27.036   3.905 -0.1534  0.0403  0.1375
26763W        W69779   0.170  28.498   9.269 -0.0971 -0.3909 -0.1302
26764W        W69780  21.995  19.690   4.405 -0.3902 -0.4178  0.2403
26765W        W69781  16.656  29.496  28.172  0.0284 -0.0546  0.0191
26766W        W69782  23.651  33.966  24.645 -0.3026  0.2238  0.1454
26767W        W69783  19.257   9.417   3.654  0.3139  0.0106  0.0761
26768W        W69784   3.766  18.079   3.634 -0.2444  0.3771 -0.1517
26769W        W69785  23.333  25.997  26.694 -0.3102 -0.2911 -0.0783
26770W        W69786  29.609  22.268   5.326  0.2902 -0.0243  0.0415
26771W        W69787   0.972  14.545   0.931  0.1987  0.1039 -0.0749
26772W        W69788  30.814  23.430   0.266 -0.4193 -0.1880  0.2402
26773W        W69789  32.667  16.937   9.558 -0.0540  0.1546 -0.2068
26774W        W69790  12.246  17.415   4.415 -0.1678 -0.3942  0.1819
26775W        W69791  27.747  22.636   7.886 -0.2172  0.0802 -0.0003
26776W        W69792  16.105  22.661   8.166  0.1117  0.1099 -0.1356
26777W        W69793  34.116  18.976   3.771 -0.1141 -0.0141  0.0550
26778W        W69794  21.870  24.314  21.350  0.0506  0.0731 -0.1157
26779W        W69795  29.927  12.505  10.805  0.2373  0.1363 -0.4008
26780W        W69796   9.986   0.204   7.601  0.0604  0.4790  0.2260
26781W        W69797   1.262  18.837   9.864 -0.1374 -0.2589  0.1790
26782W        W69798  28.431  33.614  26.322 -0.0107  0.3142  0.4141
26783W        W69799  13.476  33.591   3.394 -0.3100 -0.0676  0.3677
26784W        W69800  25.842  33.552   0.422 -0.1666  0.1030  0.0173
26785W        W69801  19.252  13.284   3.324 -0.2853  0.3717 -0.2886
26786W        W69802  18.246   9.068  28.411  0.1204  0.0638 -0.3191
26787W        W69803  15.717  26.040   7.011 -0.3387  0.0849  0.0378
26788W        W69804  14.123  20.625   0.839 -0.0819  0.1690  0.0596
26789W        W69805  20.164  24.723  27.180  0.3431  0.0502  0.1543
26790W        W69806  13.305  22.385  23.083 -0.2109  0.2307 -0.0755
26791W        W69807  25.355  27.976   6.819 -0.3617 -0.2738 -0.0098
26792W        W69808  17.007  11.170   2.649  0.0019  0.1912 -0.3249
26793W        W69809  29.568  26.836  11.036 -0.1647 -0.0912  0.1154
26794W        W69810  17.935  22.782   2.525  0.0636 -0.2452 -0.1762
26795W        W69811  20.441   3.801   3.036 -0.0889 -0.2305 -0.0704
26796W        W69812  31.077   6.047   3.801  0.0560 -0.0172 -0.0420
26797W        W69813  20.064  22.153  17.227 -0.0736 -0.0835 -0.1766
26798W        W69814  28.173  15.140  21.487 -0.2436 -0.0714 -0.0128
26799W        W69815   9.829  13.492   3.179  0.0496  0.1332  0.2762
26800W        W69816  30.285  21.301  10.627 -0.1839 -0.5200 -0.1997
26801W        W69817  24.207  29.938  29.210 -0.0807  0.0463 -0.3604
26802W        W69818  32.992  16.990   5.013  0.0728  0.0336 -0.0215
26803W        W69819  11.660   4.986   1.391 -0.1128 -0.0145  0.1161
26804W        W69820  20.335  31.509   7.929  0.0479  0.1420  0.2224
26805W        W69821  29.419  32.130   1.393 -0.1177 -0.1559  0.1500
26806W        W69822  22.705  29.305   9.329  0.0156 -0.0491 -0.1674
26807W        W69823  23.391  29.913   2.412  0.4082  0.0913  0.3277
26808W        W69824  22.608  32.799  18.420  0.2941  0.0472  0.1175
26809W        W69825  14.698  24.219  21.577  0.0957  0.0203 -0.0461
26810W        W69826  14.340  23.549  27.432  0.0364 -0.0739  0.0465
26811W        W69827  15.507  26.398   3.763 -0.2259 -0.1879 -0.2110
26812W        W69828  26.598  33.535  27.309 -0.2418  0.0323  0.2725
26813W        W69829   0.121  10.850   8.889  0.1375  0.1368  0.0492
26814W        W69830  15.970  29.973   1.633 -0.0583  0.1071  0.0589
26815W        W69831  25.631   4.861   8.818  0.1788  0.1773 -0.2242
26816W        W69832  16.228  28.008   3.080  0.1089 -0.1891 -0.4891
26817W        W69833  21.901  24.599   9.033 -0.0382 -0.1178 -0.2422
26818W        W69834  28.736  19.030   5.530  0.0876  0.2901 -0.2324
26819W        W69835  20.600  16.610   6.503 -0.1333  0.2010 -0.0921
26820W        W69836  11.988  19.141   7.222 -0.0662 -0.4460 -0.2294
26821W        W69837  18.924  19.379   3.905  0.0792  0.0238  0.0658
26822W        W69838  17.337  27.365  16.848 -0.0681  0.3986 -0.0412
26823W        W69839  11.546  32.158   8.930 -0.0405  0.3045  0.1352
26824W        W69840  18.175  24.787  28.426 -0.2721  0.0852  0.0606
26825W        W69841  26.751  21.624   5.127 -0.1564  0.0929  0.1610
26826W        W69842  24.792  22.071   5.562 -0.0530 -0.0323 -0.0525
26827W        W69843  30.331   9.529   6.399 -0.1754  0.2242 -0.0535
26828W        W69844  24.013  19.719   3.034  0.2641  0.3099 -0.2077
26829W        W69845  23.907   1.800   4.419 -0.0877 -0.0442 -0.1312
26830W        W69846  23.330  30.501  11.065 -0.0102  0.1270 -0.2816
26831W        W69847  22.546  15.744   7.609 -0.2890 -0.1764 -0.2913
26832W        W69848  23.895  21.117   9.557  0.2871 -0.1873 -0.2302
26833W        W69849  27.599  19.422  27.218 -0.3461  0.0932 -0.0053
26834W        W69850  14.594  26.820   8.980 -0.2177  0.1729 -0.0774
26835W        W69851  32.037  15.293   4.231  0.2465  0.1609  0.0095
26836W        W69852  26.259  16.687   9.324  0.1992  0.0371 -0.0161
26837W        W69853  14.713  19.446   7.946 -0.0927  0.3072  0.1139
26838W        W69854  32.339  19.959   8.204 -0.2554  0.0581  0.2003
26839W        W69855   4.046  27.355   0.390  0.2012  0.2764  0.1893
26840W        W69856  21.240  17.070  21.718  0.2152  0.1320 -0.4712
26841W        W69857  21.681  19.439   9.611  0.3652  0.0027  0.0589
26842W        W69858  18.841  30.259  24.720  0.3410  0.3791  0.0133
26843W        W69859  27.738  29.307   8.513 -0.0533 -0.0729 -0.0608
26844W        W69860  20.420  30.564   8.176  0.1064  0.1159  0.1025
26845W        W69861  28.390  18.020   0.822  0.0989 -0.0981  0.0257
26846W        W69862  25.142  18.816   3.898  0.3563 -0.1653 -0.1081
26847W        W69863  28.493  31.625  10.524 -0.0256 -0.4582 -0.4080
26848W        W69864  25.651  12.400   6.816  0.2110 -0.2619 -0.1130
26849W        W69865  22.569  26.129   6.875 -0.1728  0.3554  0.0890
26850W        W69866  23.111  21.003  29.106  0.0626  0.0493  0.4153
26851W        W69867  13.603  21.230  28.907 -0.5037 -0.1920 -0.3117
26852W        W69868  33.696  23.954   0.152 -0.1541 -0.2466 -0.2088
26853W        W69869  33.538  15.821   7.400 -0.0174 -0.1034 -0.0278
26854W        W69870   9.788  26.060   7.500  0.2123 -0.0240  0.2033
26855W        W69871  18.011  19.448   0.586  0.5355 -0.1799  0.0074
26856W        W69872  31.698   1.788   8.695  0.1168 -0.0124  0.0786
26857W        W69873  24.310  11.034  26.243 -0.1970  0.0151  0.1031
26858W        W69874   0.781   3.577  26.701  0.1309 -0.2530  0.0279
26859W        W69875  28.716  21.296   4.071  0.1563  0.3689 -0.0684
26860W        W69876  17.962  19.687  24.890 -0.0996  0.1812  0.0987
26861W        W69877  22.064   8.763   0.194  0.0699 -0.1969 -0.2257
26862W        W69878  19.954  25.211  25.186 -0.1172  0.1453 -0.0728
26863W        W69879  18.359  10.581   0.005 -0.0024 -0.1217  0.1720
26864W        W69880  25.625   6.447   7.091  0.0203  0.0120  0.1637
26865W        W69881  18.228  21.744  16.357  0.2041 -0.0314 -0.1167
26866W        W69882  21.592  10.450  17.706  0.0653  0.0271 -0.2070
26867W        W69883  32.901  19.315  27.634  0.2026 -0.1449 -0.2932
26868W        W69884  17.417  13.303   7.391 -0.0855 -0.0256 -0.1779
26869W        W69885  23.667  11.997   8.096 -0.1217 -0.1377  0.0876
26870W        W69886  19.991  26.836   9.588  0.0900  0.1300 -0.2450
26871W        W69887   1.445  33.901  17.462 -0.0882 -0.3168  0.0791
26872W        W69888   4.064  11.230   8.034  0.0493 -0.1974 -0.1272
26873W        W69889  25.398  30.700   2.934 -0.5071  0.0216  0.0188
26874W        W69890  26.996   0.987  22.837 -0.2519 -0.2151 -0.1436
26875W        W69891  23.271  18.920   7.076 -0.0344 -0.0079  0.2341
26876W        W69892  21.748  14.446  26.803 -0.1700 -0.2776  0.1451
26877W        W69893  23.749  15.057   5.106  0.1310  0.2968  0.1320
26878W        W69894  16.468  19.573  23.378  0.0121 -0.1721 -0.2754
26879W        W69895  10.374  20.829  25.018  0.0145  0.3836 -0.1703
26880W        W69896  22.258  15.174  26.579 -0.0443 -0.1167  0.3246
26881W        W69897  34.613  30.299  19.559  0.0743 -0.1864 -0.0040
26882W        W69898  15.154  11.869  16.335 -0.1650 -0.0440  0.0779
26883W        W69899  16.822   7.655  18.504 -0.1509  0.1489 -0.1992
26884W        W69900  33.724   8.645  25.421 -0.4316 -0.1117 -0.2406
26885W        W69901  16.809   7.748   3.848  0.1474  0.1319 -0.2939
26886W        W69902   5.503   3.067   8.555 -0.0584  0.2924 -0.2059
26887W        W69903  29.095  21.133  16.302  0.0809  0.1355 -0.1045
26888W        W69904  13.519  10.411   7.786 -0.2259  0.0832  0.4229
26889W        W69905   5.913  16.496   6.042 -0.1182 -0.0459  0.0502
26890W        W69906  23.903  12.587  25.650  0.0803  0.2965 -0.2499
26891W        W69907  12.309  19.700  25.443 -0.2650  0.1997  0.0774
26892W        W69908  18.774  32.405   5.316  0.1926  0.0253 -0.1683
26893W        W69909  12.334  23.861   5.601  0.1277  0.2442  0.2480
26894W        W69910  24.478  25.051   0.507 -0.0243 -0.0109  0.1387
26895W        W69911  21.818  22.533  17.576 -0.0440  0.0198  0.1276
26896W        W69912  10.921  20.100   0.715  0.3236  0.0232 -0.0294
26897W        W69913  10.468  12.793  18.096  0.0425 -0.0433  0.2174
26898W        W69914  26.199  16.254   3.436 -0.0335  0.1494  0.1049
26899W        W69915  33.899  33.099   2.595  0.2623  0.2336  0.1412
26900W        W69916   3.196  30.012  28.362 -0.1008  0.1907  0.1823
26901W        W69917  34.088  27.900   4.917  0.3898 -0.0351 -0.1393
26902W        W69918  23.103  18.531  20.909  0.0407  0.1732  0.1593
26903W        W69919   1.792  33.757  28.850  0.4304  0.0460 -0.1694
26904W        W69920  32.740  16.275   7.366 -0.5501  0.0755 -0.3870
26905W        W69921  23.067  14.849  24.354  0.1688  0.0030 -0.4018
26906W        W69922  31.736  30.649  21.997  0.0469 -0.3086 -0.0975
26907W        W69923  22.282  29.481  23.749  0.0580 -0.2975 -0.1150
26908W        W69924  31.575   6.828   6.316  0.0319 -0.2231 -0.2734
26909W        W69925  10.815  23.810   7.008 -0.0998 -0.5282 -0.1240
26910W        W69926  24.736  27.049   0.827 -0.2291  0.1087  0.3039
26911W        W69927  21.514  30.001   5.967 -0.0724  0.1335 -0.0693
26912W        W69928  13.083  22.264   7.819 -0.0671 -0.1914 -0.0265
26913W        W69929  24.683  17.107  23.368 -0.0441  0.0909 -0.1037
26914W        W69930  33.876   9.480   1.178  0.0028 -0.1627 -0.1087
26915W        W69931   9.311  26.307  28.978 -0.2000 -0.1585  0.1047
26916W        W69932  17.757  32.394   4.992 -0.1294  0.0383  0.2361
26917W        W69933   5.599  33.922   0.870  0.2988 -0.1672 -0.0137
26918W        W69934  17.256   1.877   9.468  0.0295 -0.2327 -0.2777
26919W        W69935  21.184  25.662   9.092 -0.1083  0.1395  0.0029
26920W        W69936   7.352  13.263  18.053 -0.1116 -0.1613  0.2702
26921W        W69937  24.117  17.126   6.346  0.0732  0.2016 -0.0167
26922W        W69938  31.911   6.620   2.880 -0.2981 -0.1202 -0.1700
26923W        W69939  22.272  29.022   4.091  0.1766 -0.2393  0.0385
26924W        W69940  16.702  31.764  20.112  0.0317  0.0121  0.5100
26925W        W69941  21.470  18.893   3.627 -0.0868 -0.2895 -0.0140
26926W        W69942  28.536   6.130  24.801  0.0098  0.0308  0.2015
26927W        W69943  15.982  21.029   7.314 -0.0237 -0.2782  0.0870
26928W        W69944  24.968  18.826  27.190 -0.0150  0.3248  0.0611
26929W        W69945  19.111  29.193   0.706  0.0387  0.0395 -0.2274
26930W        W69946  25.659  13.603   9.035 -0.3570 -0.4027  0.1135
26931W        W69947  28.866  29.137   3.683  0.3448  0.1918  0.1926
26932W        W69948  32.790  21.723   8.819 -0.2696 -0.0433 -0.5069
26933W        W69949  10.342   5.468  26.235  0.0140 -0.0875 -0.0615
26934W        W69950   9.348  24.875   3.727  0.2587 -0.1361  0.2925
26935W        W69951  32.277  13.500   6.407  0.1018 -0.1015 -0.1576
26936W        W69952  20.590   6.678  27.646  0.0169  0.1946  0.1859
26937W        W69953   7.795   9.577   2.764  0.0118 -0.1336  0.1865
26938W        W69954  13.317  20.312  28.810  0.1648 -0.0791 -0.1139
26939W        W69955  19.014  16.838   5.879 -0.0019 -0.2512  0.2281
26940W        W69956  21.447  22.842   3.891 -0.0537 -0.1741  0.1443
26941W        W69957  28.495   7.656  25.035 -0.0024 -0.1420  0.1642
26942W        W69958  29.302  22.761   0.754 -0.2180  0.0669 -0.2023
26943W        W69959  13.573  23.623  22.818 -0.0238 -0.0566  0.0037
26944W        W69960  19.009  32.306  25.996 -0.0082  0.4322 -0.0740
26945W        W69961  22.601  23.723   2.803 -0.0679  0.2353  0.1867
26946W        W69962  26.365  28.303  10.009  0.1412  0.1871  0.0749
26947W        W69963  23.438  26.187   9.471 -0.1366 -0.0797 -0.1605
26948W        W69964  16.622  22.976   1.797  0.0331  0.2807 -0.2934
26949W        W69965  25.668  32.994  16.342 -0.0019  0.0408  0.0859
26950W        W69966  19.819  12.119   5.664  0.0714 -0.1381  0.2755
26951W        W69967  32.634  16.845  10.366  0.0042  0.1099 -0.1724
26952W        W69968  22.209  27.700   8.684 -0.0537  0.0699  0.3150
26953W        W69969  30.150  22.701   3.366  0.0130  0.1641  0.1291
26954W        W69970  30.562  27.695  20.935 -0.3232  0.0585  0.1456
26955W        W69971   6.196   0.328  22.925  0.1037  0.0893  0.1182
26956W        W69972  16.784  10.611   8.481  0.0092  0.0426  0.0706
26957W        W69973  23.013  18.241   9.282 -0.0306 -0.1461  0.1059
26958W        W69974  23.886  15.097  23.769  0.1927 -0.1375  0.2755
26959W        W69975  28.324  26.663  10.409  0.1074  0.2784  0.1470
26960W        W69976  24.917  15.179  23.750 -0.2226 -0.1793 -0.1491
26961W        W69977  15.123  33.465   8.389  0.0092 -0.0083  0.1307
26962W        W69978  34.762  21.966   6.319  0.1028  0.1597  0.0446
26963W        W69979   6.993   4.989   6.437 -0.1966  0.1009 -0.1793
26964W        W69980   2.228  23.874  26.419 -0.0908  0.2086  0.1581
26965W        W69981  15.900  27.423  28.120 -0.1128  0.2697  0.1082
26966W        W69982   5.579   6.976   9.728 -0.2903 -0.1637 -0.1494
26967W        W69983  27.174  27.545   8.254  0.0327  0.2050 -0.2468
26968W        W69984  21.009   1.052   5.843 -0.0350  0.3330  0.2764
26969W        W69985  33.461  26.623   8.433  0.1637 -0.0001 -0.2565
26970W        W69986  26.736  20.003  23.757 -0.1513 -0.1835  0.0552
26971W        W69987  23.969  29.729  23.478 -0.3252 -0.0075 -0.0746
26972W        W69988  27.774  21.707  23.566 -0.1872 -0.1265 -0.0904
26973W        W69989   4.582  23.708   3.523  0.0439 -0.3434  0.2921
26974W        W69990  26.070   6.033  28.089  0.0443  0.2501  0.3292
26975W        W69991  10.699   8.409  28.196 -0.0296  0.0197 -0.0208
26976W        W69992  34.135  16.609  17.839  0.2467  0.2156 -0.1489
26977W        W69993  28.466  15.634  18.252  0.2975 -0.1147  0.0255
26978W        W69994  14.539   4.297   6.836 -0.0378 -0.1181  0.0245
26979W        W69995  19.228  34.701   7.837  0.0877  0.1446 -0.0442
26980W        W69996  22.165  28.043  24.733 -0.0935  0.0778 -0.0323
26981W        W69997  21.429   1.339  24.837  0.0965 -0.1990  0.1784
26982W        W69998  23.794   4.617  16.456  0.0425  0.2151 -0.2111
26983W        W69999  23.386   4.585  26.042  0.0626  0.2216  0.2438
26984W        W70000  13.751  28.919  10.024 -0.2419 -0.0918 -0.2445
26985W        W70001  32.036   9.812   0.038 -0.2114 -0.3184  0.2376
26986W        W70002  21.291  32.986   8.706  0.2123  0.2433  0.0943
26987W        W70003  17.467  33.694  24.655 -0.0163  0.2018  0.1158
26988W        W70004  25.943  22.334  24.346  0.2658  0.2097  0.0140
26989W        W70005  21.103  12.187   0.389  0.0725  0.2073  0.1399
26990W        W70006  16.246   4.127   8.679  0.0510  0.0020 -0.2662
26991W        W70007  19.819   0.906   4.580 -0.1063  0.1262  0.0409
26992W        W70008  29.758  31.727   6.992  0.0812 -0.1299 -0.1497
26993W        W70009  15.906  29.724   6.269  0.0649 -0.1276  0.1683
26994W        W70010  30.873  25.834  26.950 -0.0078 -0.1422 -0.2613
26995W        W70011  20.798  26.266  28.783 -0.0784  0.1792  0.0601
26996W        W70012   7.263  20.673   0.627  0.0242 -0.0357 -0.1395
26997W        W70013  29.117  11.529   8.996 -0.0268 -0.0880  0.0990
26998W        W70014  20.055  10.337   4.000  0.0487  0.2765  0.1543
26999W        W70015  27.451  22.461   5.963 -0.1538  0.2409 -0.1131
27000W        W70016  19.971   4.685   4.575  0.2499  0.0771 -0.2187
27001W        W70017   2.224  19.603   3.854  0.1358  0.1976 -0.0441
27002W        W70018  10.597  16.775   7.842 -0.2581  0.0399  0.1325
27003W        W70019  31.735  22.236  20.142 -0.1503  0.0198 -0.2384
27004W        W70020  23.116   3.337   8.477  0.0964  0.0607  0.0504
27005W        W70021  23.932  11.950  28.830  0.2528 -0.1490 -0.1291
27006W        W70022   0.629  19.467   9.664  0.0062  0.1726 -0.2391
27007W        W70023   9.301  32.479   3.888  0.0058  0.0481  0.4507
27008W        W70024  21.501  27.099  28.806  0.0099 -0.0601  0.2842
27009W        W70025   4.865   0.435   1.793  0.0004 -0.0900  0.2415
27010W        W70026  27.992  31.415   7.137 -0.1221  0.0080 -0.2532
27011W        W70027  22.277  28.134   7.060  0.1729 -0.1403  0.2091
27012W        W70028  28.560  21.027   5.006  0.0818  0.0527 -0.3057
27013W        W70029  33.695  19.003  27.715  0.0345 -0.1375 -0.2635
27014W        W70030  22.083  16.058   4.250  0.0877  0.2928 -0.2111
27015W        W70031  22.851  33.593  22.734 -0.0965  0.0192  0.0102
27016W        W70032  13.803  25.868  28.529 -0.0351  0.0687  0.0621
27017W        W70033   5.494  29.462   3.418 -0.1754 -0.2517 -0.0757
27018W        W70034  28.805   1.408  20.873 -0.3352 -0.3578 -0.1565
27019W        W70035  17.596   0.895   2.718  0.0570 -0.0707  0.0382
27020W        W70036  12.236  32.291  25.433 -0.0718 -0.1526  0.1964
27021W        W70037  33.775  14.222  16.229 -0.0040  0.2084 -0.1584
27022W        W70038  18.196  17.556  26.966 -0.0248  0.0122 -0.2023
27023W        W70039  19.894  16.761   3.948  0.4145 -0.0769 -0.1472
27024W        W70040  24.629  32.077   3.165  0.0819 -0.0847  0.1122
27025W        W70041  14.730  32.576  28.367 -0.0240  0.1987 -0.2715
27026W        W70042  27.207  29.707  28.646  0.0374  0.2803 -0.1984
27027W        W70043   4.208  11.267  18.179 -0.1438  0.0451 -0.1317
27028W        W70044  29.046  12.242  28.707  0.0905 -0.0775  0.0842
27029W        W70045  18.514   0.055   3.034  0.0103 -0.0396  0.1035
27030W        W70046  27.880  16.478   7.804  0.1723 -0.2763  0.1744
27031W        W70047  31.080   1.620   5.700  0.0795  0.1262 -0.2566
27032W        W70048  30.982  30.645   9.754  0.0438  0.0724 -0.2147
27033W        W70049  28.745  33.762   4.667 -0.0901 -0.1246  0.1454
27034W        W70050  25.536  21.254   1.420  0.0512  0.1654  0.0042
27035W        W70051  12.470  16.483   4.019  0.0778  0.1849  0.3415
27036W        W70052  26.017  16.073   4.823  0.0916  0.0935 -0.1962
27037W        W70053  14.510  12.276  25.278 -0.1503 -0.3199 -0.0448
27038W        W70054  21.384  17.152   6.516  0.2519 -0.0156 -0.2248
27039W        W70055  19.339  25.192   9.880  0.2581  0.0454 -0.1447
27040W        W70056  23.835  31.030   0.107 -0.1948  0.0394 -0.1251
27041W        W70057  22.891   1.053   4.826 -0.0378 -0.2532 -0.0076
27042W        W70058  19.720  30.798   9.574 -0.1495 -0.2154  0.1350
27043W        W70059   5.552   0.755  27.292 -0.1910 -0.2569 -0.0872
27044W        W70060  18.076  24.966   3.041 -0.0976  0.1662 -0.0300
27045W        W70061  28.004  28.927   6.205 -0.1514 -0.1482 -0.1518
27046W        W70062  11.558   1.950  26.929 -0.1071  0.1366  0.1051
27047W        W70063  19.974  30.713   8.006 -0.3129  0.1603  0.0608
27048W        W70064  17.149   0.512  22.285 -0.2931 -0.1922  0.0126
27049W        W70065  30.704  11.465   3.484 -0.0490  0.0730 -0.0636
27050W        W70066  24.555  27.816   9.315  0.0989  0.1253  0.0980
27051W        W70067  15.521  29.058   6.822  0.1776  0.0208  0.0298
27052W        W70068  27.661   6.965   3.872  0.1723 -0.3745  0.1167
27053W        W70069  29.249  31.038  16.912 -0.0827 -0.0020  0.1649
27054W        W70070  29.815  13.998   8.589  0.0655  0.0992 -0.0252
27055W        W70071  24.805  29.553   5.277  0.0849 -0.2331  0.2057
27056W        W70072  26.728  28.781   5.816  0.2007  0.2570  0.1860
27057W        W70073  17.400   1.914   4.699 -0.0652 -0.3801  0.0709
27058W        W70074  16.942  13.087  19.861  0.1304  0.0578  0.0250
27059W        W70075   3.483   9.068   5.593  0.3848  0.1032 -0.1745
27060W        W70076  26.484   8.758  25.413 -0.1678  0.0245 -0.0655
27061W        W70077   4.536   5.373   0.983  0.2613 -0.0617 -0.3103
27062W        W70078  26.809  16.861  15.366 -0.4131 -0.2251 -0.0796
27063W        W70079  28.156  29.915  25.565  0.0992  0.0665 -0.0459
27064W        W70080  22.821  19.535   4.916  0.1045  0.0026  0.0382
27065W        W70081  24.639  25.492  10.862 -0.0405 -0.1868 -0.0531
27066W        W70082  21.724  16.255  14.542  0.0524 -0.1286 -0.1422
27067W        W70083   4.835  17.478   8.620 -0.3218 -0.0781 -0.1781
27068W        W70084  22.377  10.593   7.927  0.0272 -0.0288 -0.1945
27069W        W70085   1.211  33.235   6.448  0.0808 -0.4152 -0.0069
27070W        W70086  31.110  31.566  17.068 -0.3386 -0.4016 -0.1000
27071W        W70087  20.622  32.019  10.438  0.4468  0.2429 -0.0479
27072W        W70088  14.002   6.591   3.785 -0.1226  0.1572 -0.1665
27073W        W70089  12.965  17.780   4.085 -0.0168  0.1081  0.3158
27074W        W70090   0.690   3.806  24.979 -0.1036 -0.1459 -0.0604
27075W        W70091  33.658   5.567   8.464  0.0281  0.2747  0.0402
27076W        W70092  29.883  14.990   4.797  0.0754  0.1360  0.0460
27077W        W70093  25.088  10.911  28.143  0.2684  0.2454 -0.1989
27078W        W70094  25.347  32.718   3.295 -0.1918 -0.1188  0.0124
27079W        W70095  25.092  25.265  21.485 -0.2356 -0.0476  0.0203
27080W        W70096   7.616  33.244  25.957  0.0226  0.3077  0.4156
27081W        W70097   0.727  26.138   5.362  0.1267  0.0344 -0.3534
27082W        W70098   4.472  30.809   2.053 -0.4516 -0.0033 -0.2982
27083W        W70099  16.121   9.612  20.796  0.2324  0.1179 -0.0698
27084W        W70100  20.338  11.857  21.089 -0.0153  0.1045  0.2307
27085W        W70101  21.152   7.007   4.798 -0.0629  0.0174 -0.0087
27086W        W70102   2.288  28.506  16.887  0.2907 -0.0658  0.0644
27087W        W70103  25.108  20.475  20.144 -0.0985 -0.1375 -0.1974
27088W        W70104   3.067  25.701  27.713 -0.0075 -0.2718 -0.2448
27089W        W70105   2.589   9.253   3.941 -0.2353  0.1923 -0.1210
27090W        W70106  25.919  19.581  28.919 -0.1758  0.0977  0.0150
27091W        W70107   2.204  11.852  15.256  0.4086  0.0512  0.1825
27092W        W70108  21.326  22.511   0.905 -0.2487 -0.1924 -0.4029
27093W        W70109  23.852  14.589  28.358 -0.1320  0.3402  0.1598
27094W        W70110  23.041   7.334  28.271 -0.0501  0.0535 -0.2807
27095W        W70111  18.187   1.130  16.714  0.3337 -0.0383 -0.0719
27096W        W70112  13.121   4.613  22.004  0.0504 -0.1433  0.0528
27097W        W70113  22.227  21.464  28.054  0.0845 -0.0173 -0.1059
27098W        W70114   4.009  29.048   8.867  0.1392 -0.0627 -0.0225
27099W        W70115  26.185   1.643   5.711  0.0584  0.0248 -0.2985
27100W        W70116   0.354   1.884   8.075  0.2679  0.0378 -0.0250
27101W        W70117   1.196  13.902  23.797 -0.0176 -0.0750  0.0042
27102W        W70118  29.725  28.067  25.518 -0.1529  0.2778 -0.0238
27103W        W70119  32.111   6.933   3.591 -0.0375 -0.1395 -0.2246
27104W        W70120  28.783  14.333  24.697 -0.1384 -0.1154  0.0532
27105W        W70121  23.085  22.690  26.599 -0.0846 -0.2900  0.2119
27106W        W70122   7.996  20.724  17.351  0.1612 -0.0644 -0.5523
27107W        W70123  15.158  14.819  23.129 -0.2356 -0.1650  0.0285
27108W        W70124  23.252  23.369  18.025 -0.3144 -0.1189 -0.0155
27109W        W70125  21.248  23.542  18.493  0.0369 -0.2124  0.1048
27110W        W70126   8.310  28.962   6.970  0.1306  0.0687 -0.3292
27111W        W70127  17.638  26.753   6.292 -0.1097  0.0320 -0.1894
27112W        W70128   2.652  33.616   8.380 -0.1114  0.2086 -0.1708
27113W        W70129  23.664  23.658   6.774  0.1100  0.0153 -0.1560
27114W        W70130  14.492   7.212   0.956  0.1843 -0.1104 -0.0751
27115W        W70131  19.744  32.523   5.298 -0.1585 -0.1005 -0.1487
27116W        W70132  22.891   1.352  26.073 -0.2177  0.3055 -0.0200
27117W        W70133  15.832  28.979  28.966  0.1827  0.0289  0.1065
27118W        W70134   1.347   4.618   5.230 -0.1264 -0.1231  0.2092
27119W        W70135  24.955   6.299   5.991 -0.1911 -0.1904 -0.2497
27120W        W70136  14.703  33.844  26.803  0.0068 -0.0201 -0.0991
27121W        W70137  27.668  22.063   9.501 -0.0623 -0.0585  0.3468
27122W        W70138  19.465  10.190   1.186  0.2122  0.1620  0.1698
27123W        W70139   1.956   2.331   4.953  0.2599  0.0004  0.1958
27124W        W70140  11.776  25.259   8.987  0.2840 -0.2089 -0.1666
27125W        W70141  14.972  24.949   7.815 -0.1182  0.3705  0.1234
27126W        W70142  24.220  28.670  26.392 -0.1246  0.1702  0.2976
27127W        W70143  12.170  18.131  28.158 -0.1656  0.2027 -0.2131
27128W        W70144  22.918   7.152   2.721 -0.2522 -0.0493 -0.2979
27129W        W70145  29.574  27.288  15.151 -0.3922  0.2693  0.1831
27130W        W70146  18.595  27.866   5.772  0.1445  0.2483 -0.2136
27131W        W70147  26.512  30.851  11.166  0.0768  0.1739 -0.1750
27132W        W70148  14.139  24.320   8.491  0.0066 -0.2790 -0.1196
27133W        W70149   9.671  16.406   7.545  0.3626 -0.3270 -0.1816
27134W        W70150   4.395  20.035   2.832 -0.2175  0.1433 -0.1334
27135W        W70151  29.565  20.512  23.551 -0.0869 -0.3090  0.0176
27136W        W70152  22.367   5.072   8.274 -0.0106 -0.0440  0.1104
27137W        W70153  21.025   4.276   9.063 -0.0427  0.0657 -0.2168
27138W        W70154  30.284  23.949   5.026  0.0908  0.0115  0.3033
27139W        W70155  10.326  16.443  28.382  0.0391 -0.1533  0.2447
27140W        W70156   2.510  26.892   4.773 -0.2129  0.0558  0.0767
27141W        W70157  21.765  26.987   6.816 -0.3224  0.0806  0.1269
27142W        W70158  29.059  22.239   6.236  0.4068 -0.1435 -0.0844
27143W        W70159  13.100  10.863   7.593  0.0032 -0.2797  0.1570
27144W        W70160  11.089   8.636   6.217 -0.2101 -0.0771 -0.1622
27145W        W70161  18.173  27.269   7.270  0.2540 -0.2508 -0.2144
27146W        W70162  16.012  27.546   1.905  0.0281  0.2827 -0.0321
27147W        W70163   7.840  15.469   6.601  0.2307  0.0326  0.1519
27148W        W70164  22.344  23.321  25.209  0.1889 -0.0847  0.1458
27149W        W70165   2.448  25.071  16.594 -0.2334  0.0478  0.1424
27150W        W70166   9.895   9.048  28.081  0.2062  0.0298 -0.0311
27151W        W70167  14.675  33.028   9.087 -0.1058  0.2564 -0.3062
27152W        W70168  18.429  18.599  22.496  0.0572  0.0002 -0.1135
27153W        W70169  12.743   8.589   2.730  0.1486  0.1885 -0.0509
27154W        W70170  14.955   4.340   7.161 -0.2303 -0.0834  0.0197
27155W        W70171  20.114  15.667   1.082  0.4783  0.0245  0.1178
27156W        W70172   0.764  20.410   9.736  0.0987  0.1367  0.0730
27157W        W70173  29.229  18.792   2.620  0.0794  0.3153  0.1845
27158W        W70174   3.143  22.858  22.271 -0.1985  0.2648 -0.1737
27159W        W70175  33.050  27.892  24.948  0.0990 -0.0718  0.2028
27160W        W70176  19.650  23.401   8.884  0.0268 -0.2598 -0.0324
27161W        W70177  10.326  32.910  28.206  0.0911 -0.0370 -0.2387
27162W        W70178  19.137  26.582  27.496 -0.0078 -0.2667  0.0852
27163W        W70179  26.102  26.737   3.488 -0.2096  0.1909  0.0827
27164W        W70180  27.915  14.867   5.316  0.1379  0.1452 -0.2023
27165W        W70181  29.837  30.444  28.246  0.2218  0.0107  0.1557
27166W        W70182  27.477  17.617   4.755 -0.3061  0.1808 -0.1936
27167W        W70183  24.713  34.537   6.986 -0.1976  0.1710  0.3105
27168W        W70184  32.513  10.474   6.100 -0.1742 -0.5395  0.2350
27169W        W70185  22.363  30.024  25.857 -0.1272 -0.3045  0.1071
27170W        W70186  20.661  21.134   6.923  0.1660  0.0567 -0.2167
27171W        W70187   9.952  29.650  22.642 -0.0096 -0.1299 -0.1294
27172W        W70188  25.016  25.121   7.243  0.2163 -0.1863  0.1459
27173W        W70189  21.445  21.478   5.980  0.1615 -0.1309 -0.5093
27174W        W70190  21.791   9.305   8.061  0.0533  0.1814  0.1561
27175W        W70191  34.189  22.321  17.249 -0.0529  0.4051  0.0567
27176W        W70192  15.376  29.666   9.571 -0.2927  0.1778 -0.2458
27177W        W70193  12.777  24.961  18.960 -0.1622 -0.0053  0.0765
27178W        W70194  22.758   4.992   8.559 -0.0509 -0.2008  0.0833
27179W        W70195  25.999  25.737   8.750 -0.2364  0.0476 -0.1398
27180W        W70196  17.001  27.918  23.349  0.2367  0.2407 -0.1133
27181W        W70197   7.254  24.430   2.614 -0.0207 -0.0062 -0.1864
27182W        W70198  20.102  19.707   3.431  0.2254  0.0870  0.0056
27183W        W70199  33.316   1.314   9.156  0.0525 -0.0023 -0.3184
27184W        W70200  17.344   1.988  23.067 -0.0760  0.2091  0.2000
27185W        W70201   0.964   9.043   5.182  0.0347  0.0032 -0.0206
27186W        W70202  10.052  31.955   2.983 -0.2078  0.2010 -0.1321
27187W        W70203  25.403   7.278   7.434 -0.1433  0.0541 -0.1652
27188W        W70204  12.443  33.021  28.789  0.0904 -0.1092 -0.3031
27189W        W70205  23.878  19.118  21.462  0.1378  0.0886 -0.0651
27190W        W70206  21.228  28.900   2.950 -0.0675 -0.2149 -0.1027
27191W        W70207  15.485  24.731  26.115  0.2770 -0.4204 -0.0903
27192W        W70208   2.592  32.673  28.912 -0.0926  0.0361  0.0841
27193W        W70209  32.530  29.173  26.799 -0.0762  0.1673  0.0696
27194W        W70210  34.430  21.174  14.933  0.0353  0.0956  0.1947
27195W        W70211  21.179   7.733   9.488 -0.1314  0.0935  0.1553
27196W        W70212  30.697  12.208  28.802 -0.1695  0.1653  0.2152
27197W        W70213  27.376  11.091  18.718 -0.0929  0.0932 -0.0524
27198W        W70214  10.632  17.105   0.564 -0.4113 -0.2932  0.3655
27199W        W70215   2.621  27.803  24.354  0.1936  0.2397  0.3029
27200W        W70216   6.624  20.369   7.301  0.0268 -0.1316  0.1116
27201W        W70217  19.797  23.252  24.644 -0.0481  0.2984  0.3546
27202W        W70218  10.262  31.562   5.883  0.0850  0.0296 -0.0912
27203W        W70219   4.779   8.124   3.346 -0.0287 -0.0353 -0.0753
27204W        W70220  11.737  22.699  26.352 -0.0885 -0.3515  0.3659
27205W        W70221  27.244  31.238  10.919  0.1645  0.3987 -0.1801
27206W        W70222  14.846  16.888   1.933  0.4025 -0.1057  0.0962
27207W        W70223  28.327  34.683  10.192 -0.0333  0.0458  0.0551
27208W        W70224   8.843  18.429  22.770  0.1414 -0.0375  0.1770
27209W        W70225  12.489  22.901   7.714 -0.1043 -0.4358  0.0857
27210W        W70226  30.794  19.040   7.680  0.2109  0.1337 -0.0153
27211W        W70227  24.752  14.747  16.324  0.0865 -0.0545  0.1852
27212W        W70228  29.690   4.246   4.556 -0.4520 -0.1006 -0.2388
27213W        W70229  30.353  14.812   8.574 -0.0774 -0.1117  0.2239
27214W        W70230  22.781  20.567  26.727 -0.0628 -0.0134  0.1415
27215W        W70231  21.542  26.221   3.398 -0.0846  0.3011  0.1569
27216W        W70232   8.336  29.802  26.813 -0.0138 -0.0476 -0.2108
27217W        W70233  26.077  31.993   7.783 -0.1843  0.2960  0.0774
27218W        W70234  31.504  28.217  18.539 -0.0162 -0.1074 -0.0126
27219W        W70235  30.461   5.452  24.023  0.2515  0.0194 -0.0041
27220W        W70236  22.215  28.209   8.803  0.1795  0.1271  0.0387
27221W        W70237   7.099  11.029   3.453  0.1481 -0.0695 -0.0159
27222W        W70238  11.876  27.183   2.373 -0.3697  0.3750 -0.2038
27223W        W70239  29.155  26.026   9.642 -0.1084  0.0032 -0.0626
27224W        W70240  23.482  15.584   9.032  0.0548  0.3562  0.0905
27225W        W70241  19.078  22.847  24.314  0.0446  0.2744 -0.2937
27226W        W70242  25.958  25.836   6.820 -0.1379  0.0805 -0.1003
27227W        W70243  26.643   4.902   3.904 -0.0286  0.0235 -0.0427
27228W        W70244  14.418   0.858  26.051 -0.1579 -0.0307  0.1553
27229W        W70245  25.532  21.254   9.701  0.0039  0.0367 -0.0100
27230W        W70246   3.850  25.456   3.294 -0.1129 -0.0698  0.3854
27231W        W70247  19.909  22.419  28.954 -0.0808 -0.0240 -0.0300
27232W        W70248  19.261  19.336  14.217  0.0977 -0.0646  0.2627
27233W        W70249  29.704  28.081  21.454 -0.1308  0.0353  0.3093
27234W        W70250  24.509   1.778  11.101 -0.0503  0.1900 -0.0301
27235W        W70251  16.244  17.928  27.732  0.1235  0.0728 -0.3793
27236W        W70252   0.395   0.075   6.749  0.5612 -0.2474 -0.1554
27237W        W70253  25.370  24.800  27.398  0.3962 -0.1395  0.1710
27238W        W70254  19.499  21.590  17.020 -0.0586 -0.0284  0.1036
27239W        W70255  22.961  25.217  18.824  0.0437  0.0580  0.4290
27240W        W70256  21.486  32.453  26.584 -0.1720  0.1545  0.8131
27241W        W70257   6.590  25.087  26.066 -0.0028  0.3820 -0.0640
27242W        W70258  24.513  20.510   0.680 -0.3351  0.3447 -0.1831
27243W        W70259  27.913  21.911  20.566  0.1987 -0.2292 -0.2437
27244W        W70260  20.503  12.792  17.134  0.0758  0.0265  0.1494
27245W        W70261  12.427  22.097  28.253  0.0822 -0.1280  0.0337
27246W        W70262  18.719  12.727   5.698 -0.1892  0.2275 -0.1716
27247W        W70263  21.564  29.485   3.213  0.2659  0.0770  0.1265
27248W        W70264  27.535  22.569   9.624 -0.0563  0.3257 -0.2231
27249W        W70265  20.328  31.340   5.062 -0.1153 -0.0606  0.2067
27250W        W70266  25.086   8.893   0.318 -0.1863 -0.1195  0.1979
27251W        W70267  11.715   1.705   8.411 -0.1282 -0.3004 -0.0633
27252W        W70268  27.501  23.686   9.670 -0.1189 -0.0984 -0.1612
27253W        W70269   7.996   9.373  28.837 -0.1594 -0.0216 -0.3028
27254W        W70270  25.522  24.979  10.566 -0.2094 -0.3102 -0.0179
27255W        W70271  23.447  26.548   6.026  0.2081  0.2203 -0.0125
27256W        W70272  25.722  24.381   8.420 -0.0046 -0.0416  0.1531
27257W        W70273  14.811  25.349   1.076 -0.0884  0.0075  0.0961
27258W        W70274   4.914  15.653   9.775 -0.2150 -0.1156 -0.2585
27259W        W70275  17.176  17.207   3.969 -0.1096  0.1158 -0.2111
27260W        W70276  29.828  28.879   8.804  0.0101  0.4006  0.1499
27261W        W70277  20.488   2.307   3.888 -0.1522 -0.0804 -0.3012
27262W        W70278  24.841  25.953   7.844  0.1048  0.0814 -0.3342
27263W        W70279   3.008  29.116   0.108 -0.2232 -0.0380 -0.2123
27264W        W70280  28.807   2.522   3.466  0.1342 -0.2881  0.0576
27265W        W70281  24.668  27.907   1.130 -0.2246 -0.0576 -0.5030
27266W        W70282  27.262  14.472  23.244  0.0520  0.3708  0.0085
27267W        W70283  21.571   0.287   8.902 -0.2229  0.0170 -0.0321
27268W        W70284  28.573  34.435  11.395 -0.1282 -0.0684  0.0173
27269W        W70285  11.693  14.372  21.950 -0.0354 -0.2016  0.2487
27270W        W70286  21.172  25.138   9.347  0.1321  0.0332  0.2833
27271W        W70287  21.536   8.992   6.504  0.3664 -0.0939 -0.2825
27272W        W70288  28.291   3.728   5.487  0.1861 -0.2298 -0.1446
27273W        W70289  24.598   5.541   3.519 -0.4321 -0.2444 -0.0250
27274W        W70290  19.125  30.958   5.820 -0.0535  0.1978 -0.1615
27275W        W70291  19.658  19.733  13.379 -0.0136  0.0901 -0.0432
27276W        W70292  27.678  26.360  23.146  0.0209  0.1556 -0.2208
27277W        W70293   6.556  30.041  26.904 -0.2248  0.1411  0.0507
27278W        W70294  17.599  31.926   5.719 -0.0789  0.3327  0.2924
27279W        W70295  15.446  30.463   8.853 -0.1190  0.0508  0.2713
27280W        W70296  24.461  20.182  23.722 -0.0854 -0.2482 -0.0433
27281W        W70297  26.468  22.787   7.026 -0.3682 -0.0053  0.0330
27282W        W70298  12.855   2.802   8.198  0.2882  0.1531  0.2144
27283W        W70299  27.366   7.033   3.057  0.0085  0.2111  0.0234
27284W        W70300  18.293   3.950   3.709 -0.2431  0.1194  0.2281
27285W        W70301   1.328  15.462   1.634 -0.0040  0.1318 -0.1027
27286W        W70302   5.431  15.929  23.156 -0.0997 -0.0356  0.1753
27287W        W70303   0.370  15.928   9.532  0.0446  0.1683  0.1228
27288W        W70304  19.634  33.411   5.189  0.2132  0.5027  0.2093
27289W        W70305  12.263   2.115   1.255 -0.2623  0.3170  0.1735
27290W        W70306   1.198  26.908  29.108 -0.1446 -0.0733  0.1163
27291W        W70307  12.038  10.253  27.163  0.2242 -0.1476 -0.3704
27292W        W70308  21.093  28.967  22.005 -0.0847 -0.1409  0.0502
27293W        W70309  15.598   2.219   0.876 -0.4196 -0.1399  0.0685
27294W        W70310  28.547  26.352  28.312 -0.1135  0.4350  0.0574
27295W        W70311  24.215   4.850  25.416 -0.0188 -0.0606 -0.2494
27296W        W70312   6.859  20.444  24.616 -0.0815  0.1045  0.1293
27297W        W70313  20.131  23.432   8.299 -0.0629 -0.0683  0.1750
27298W        W70314  17.955  22.454   8.043 -0.0304 -0.0786 -0.0884
27299W        W70315  16.059  34.070   7.923  0.2958  0.2771 -0.1004
27300W        W70316  29.642  31.945  11.000 -0.1744 -0.2608  0.1370
27301W        W70317  11.633  29.981  23.623  0.0426  0.2160 -0.1249
27302W        W70318  25.526  21.762  18.425 -0.0895  0.0127 -0.0311
27303W        W70319  19.686  28.419  16.841 -0.1138  0.0761  0.3903
27304W        W70320  22.859  29.521   2.975 -0.0554  0.2061 -0.1782
27305W        W70321  13.211   0.869  25.667 -0.0194  0.0071  0.0930
27306W        W70322  20.570  25.864   6.559 -0.0169  0.2069 -0.0545
27307W        W70323  23.809  28.431   1.612  0.1574 -0.2162  0.0227
27308W        W70324  21.381   2.657   7.827 -0.2012 -0.0856 -0.0029
27309W        W70325   5.664  19.526   6.379 -0.0058 -0.0621  0.1220
27310W        W70326  33.747  20.477   3.459  0.0629  0.0932  0.1469
27311W        W70327  23.150  10.936   0.020  0.0611 -0.1168 -0.2508
27312W        W70328  32.873  27.222   2.738 -0.3385  0.0252 -0.3632
27313W        W70329  23.125  18.248   5.916  0.0800 -0.1598  0.0827
27314W        W70330  20.477  26.593   7.011  0.2923  0.1578  0.3232
27315W        W70331  25.779  31.375   2.329  0.2103 -0.0598  0.3420
27316W        W70332  16.278  19.564   5.249  0.1493  0.1148  0.1941
27317W        W70333  24.886  13.926   6.774 -0.1953  0.0300  0.3467
27318W        W70334   0.764   9.311   0.608 -0.3163 -0.0915 -0.2030
27319W        W70335  21.866   6.498  23.903  0.0300  0.3893  0.0595
27320W        W70336  28.765  26.657   6.706  0.2334 -0.0977  0.0425
27321W        W70337  20.290  13.272   1.314 -0.0032 -0.2299 -0.1241
27322W        W70338  10.260  32.685  10.052  0.1445  0.1298 -0.0456
27323W        W70339  24.296  27.659  17.261  0.3519  0.1455 -0.0926
27324W        W70340   8.364  22.640   5.863 -0.0379 -0.0737  0.1211
27325W        W70341  32.963  11.534  27.700  0.0934 -0.2961  0.2893
27326W        W70342  22.657  31.597  23.729 -0.0111  0.2613  0.1008
27327W        W70343   2.353  11.718  24.240  0.0109  0.1068  0.3275
27328W        W70344   7.429  19.293  27.070  0.0765 -0.0394  0.0599
27329W        W70345   2.682  18.082  21.280 -0.0329  0.6295 -0.2401
27330W        W70346  27.191  14.959   2.275  0.0935 -0.1671  0.4361
27331W        W70347   3.495  24.862  27.767 -0.2080  0.1701  0.0017
27332W        W70348  30.230  24.201  22.416 -0.1271 -0.0619  0.0413
27333W        W70349   8.945  22.904   5.016  0.1652  0.2283 -0.0632
27334W        W70350  28.316  26.807   6.397  0.2627 -0.0494 -0.2907
27335W        W70351  32.726   9.344   7.431 -0.0384  0.1173  0.0999
27336W        W70352   9.305  28.061   3.427 -0.0438 -0.1439 -0.1347
27337W        W70353  27.798  22.525  10.206  0.2012 -0.1855 -0.1734
27338W        W70354  20.071   7.839   7.850  0.3429  0.2253  0.3463
27339W        W70355  29.445  30.626   7.988 -0.0255  0.1349 -0.3875
27340W        W70356  14.753  24.711  16.438 -0.3770 -0.3769  0.0673
27341W        W70357   5.640  22.847  20.781 -0.0411  0.0482  0.4063
27342W        W70358  14.779  30.720   6.337  0.0978 -0.0771  0.4332
27343W        W70359  23.538  22.725   5.647 -0.0163 -0.4424  0.2734
27344W        W70360  24.592  24.063   0.983  0.2413  0.0459  0.4776
27345W        W70361   2.122  28.098   3.522 -0.0365 -0.6613 -0.0934
27346W        W70362  11.673  16.974  12.434 -0.0331  0.1145  0.3502
27347W        W70363  21.097   0.761  15.956 -0.0552 -0.1199  0.2657
27348W        W70364  20.777  30.944   7.077 -0.1733 -0.0217  0.1805
27349W        W70365  28.309  32.695   4.935  0.4308 -0.0375 -0.0640
27350W        W70366  20.202  21.155  26.326 -0.0001  0.0747 -0.3174
27351W        W70367   9.881   7.063   3.729 -0.0101 -0.2493  0.0835
27352W        W70368  28.628  34.212  28.015  0.0768 -0.3241 -0.3049
27353W        W70369  27.751   8.253   6.455  0.3325 -0.2566  0.4119
27354W        W70370  17.166  34.568  10.746  0.2949 -0.1621  0.1766
27355W        W70371  18.896  27.666   3.802 -0.2622 -0.1703 -0.0105
27356W        W70372  16.838  16.329   4.452  0.0200  0.0955  0.0200
27357W        W70373  11.757  29.277   7.196 -0.0670  0.3816 -0.0237
27358W        W70374  17.644   7.413   0.936 -0.0023 -0.2658  0.0451
27359W        W70375  26.316   0.753   2.891  0.0841  0.5618  0.0582
27360W        W70376  11.447   0.533  20.455 -0.0701 -0.1265 -0.1740
27361W        W70377  14.986  23.372   0.684  0.0113  0.1051 -0.1784
27362W        W70378  13.935  33.571   9.065 -0.0570  0.0525  0.0575
27363W        W70379  17.708   2.782   2.872  0.0021 -0.0192  0.0145
27364W        W70380  23.957  23.529   7.295 -0.2675 -0.2815  0.2737
27365W        W70381  24.014  23.138  26.557  0.1871 -0.2527  0.2447
27366W        W70382  29.284  25.210   1.133 -0.2711 -0.5112  0.0889
27367W        W70383  23.291   2.562   6.902  0.0133  0.0436 -0.0114
27368W        W70384   0.828  15.804   5.665 -0.0048  0.0113 -0.0055
27369W        W70385   2.918  24.130   8.343  0.1049  0.0150 -0.2170
27370W        W70386  28.715  24.266   2.891  0.2792  0.3335  0.0897
27371W        W70387  14.995  26.919  27.860 -0.2635  0.0147 -0.0034
27372W        W70388  16.946  27.845   0.613  0.0973  0.1609 -0.1753
27373W        W70389  22.052   4.752   2.014  0.3948 -0.0288 -0.3847
27374W        W70390  20.124   7.070   8.586 -0.3363  0.0407  0.3334
27375W        W70391  12.078  29.937   7.808  0.2272  0.0967 -0.2564
27376W        W70392  27.882  33.524   4.228 -0.0525 -0.2175  0.1011
27377W        W70393  20.877  16.995   3.514 -0.2900 -0.0658 -0.1006
27378W        W70394  18.047  17.187   6.600  0.0548 -0.1847 -0.3519
27379W        W70395   1.855  30.798   6.344  0.0300  0.2100 -0.1754
27380W        W70396  25.054  19.591   0.780  0.0691 -0.0911  0.1596
27381W        W70397  19.894  34.692   0.427  0.0949 -0.2799 -0.0492
27382W        W70398   1.506   6.528  20.672 -0.2227  0.1418 -0.0430
27383W        W70399  31.135  20.174   1.199 -0.0367  0.2928  0.2393
27384W        W70400  27.491  17.054  28.992 -0.3512  0.0476  0.0694
27385W        W70401  22.395  29.889   5.570 -0.2765  0.2427 -0.1072
27386W        W70402  15.774  23.772   7.431 -0.0026 -0.0945  0.0666
27387W        W70403  23.158   0.727  22.135  0.0853 -0.0122  0.2132
27388W        W70404  10.767  28.527   2.627 -0.0398  0.3997  0.0917
27389W        W70405  17.235   1.075  24.369  0.0135 -0.3708 -0.4384
27390W        W70406  21.467  19.922  26.951  0.0845  0.2885  0.0004
27391W        W70407  10.391  34.708   3.537  0.1335 -0.0913 -0.1000
27392W        W70408  10.196  20.772  23.793 -0.1192  0.0950  0.0830
27393W        W70409  31.770  30.847  10.625 -0.0804 -0.0002 -0.2144
27394W        W70410   8.365  17.171   6.424  0.0029 -0.1340  0.1363
27395W        W70411  18.303  21.213   8.345  0.0606 -0.1694 -0.3323
27396W        W70412  31.903  21.015   6.042  0.0904 -0.1251 -0.1121
27397W        W70413   4.032  31.338   0.050  0.1137  0.3780 -0.0043
27398W        W70414  24.030   6.647   7.202  0.0711  0.1646  0.0732
27399W        W70415  22.801   9.642   2.585 -0.0927 -0.1722  0.0295
27400W        W70416  13.613  23.464  26.539  0.0592 -0.0951  0.2156
27401W        W70417   6.980  26.057   7.037 -0.2080  0.1452  0.0773
27402W        W70418   7.951  24.353   4.143 -0.0441 -0.2387 -0.1951
27403W        W70419  20.551  18.122  21.256 -0.2954 -0.2161 -0.3807
27404W        W70420  31.548   2.367   3.430 -0.3197  0.0025  0.0782
27405W        W70421  19.332  15.499   6.706 -0.1918 -0.1192  0.0593
27406W        W70422   2.842  16.992   6.464  0.2203 -0.3938 -0.0228
27407W        W70423  17.891  32.885   8.061  0.1048 -0.0595  0.0418
27408W        W70424  27.867  32.192   3.628  0.3528 -0.1973 -0.3154
27409W        W70425   8.755  22.751   0.130  0.0811 -0.4249  0.1310
27410W        W70426  30.737  26.657   8.061 -0.0859  0.0277  0.0513
27411W        W70427  15.227   4.927   7.960 -0.1778  0.1077  0.0518
27412W        W70428   2.736   9.620   5.886  0.0831  0.0504 -0.1079
27413W        W70429   3.282  25.215   2.339  0.2565 -0.4905  0.0434
27414W        W70430  27.377  15.266   7.908  0.1043 -0.0159 -0.1497
27415W        W70431  33.585  28.342   2.802 -0.0330 -0.0535 -0.3202
27416W        W70432  33.838   8.285  23.180 -0.0625 -0.2378 -0.0291
27417W        W70433  27.150   6.424  27.881  0.1204 -0.0291 -0.1637
27418W        W70434  28.110  15.520  15.659  0.1154  0.0563 -0.2923
27419W        W70435   6.822   4.099  28.188 -0.0486 -0.2716 -0.0383
27420W        W70436  21.256  26.534   7.569  0.1141  0.0215 -0.0306
27421W        W70437  13.290  33.080   7.977  0.4498  0.1222  0.0952
27422W        W70438  29.156   4.007   6.277  0.0731 -0.1763 -0.5117
27423W        W70439  32.682  29.000   2.808 -0.0485  0.1213  0.1900
27424W        W70440  20.794  25.785  25.178  0.0110  0.1630 -0.2312
27425W        W70441  26.020  16.812   0.581 -0.0266  0.2936  0.1340
27426W        W70442   1.739   6.150  21.010  0.1259  0.0187  0.0580
27427W        W70443  27.054  26.041  29.171  0.0980  0.1998  0.2001
27428W        W70444   6.602   1.786  23.421  0.0843  0.1419 -0.0075
27429W        W70445  11.632  21.829   1.019  0.2106  0.0685  0.0748
27430W        W70446  14.574  19.764   0.182 -0.1211 -0.1508  0.2703
27431W        W70447   0.139  22.540   5.875 -0.3241 -0.1703  0.0081
27432W        W70448  20.535   8.713   6.533  0.1048  0.1133 -0.0904
27433W        W70449  11.427  33.049   7.126 -0.2230  0.0766  0.1762
27434W        W70450  29.332  24.255  25.297 -0.0561 -0.1839 -0.0910
27435W        W70451  28.062  22.473  11.046 -0.0631 -0.1091 -0.0382
27436W        W70452  32.400  27.142   7.470  0.3325  0.1154  0.3674
27437W        W70453  20.322  32.364   2.245 -0.1484 -0.2415  0.2054
27438W        W70454  24.544  21.232  27.353  0.1127  0.2459  0.0945
27439W        W70455  20.444  26.218   9.356  0.2676  0.0128 -0.3629
27440W        W70456  14.282  21.750  29.279  0.1376  0.3212 -0.2086
27441W        W70457  33.037  21.897   5.959 -0.1704 -0.0841  0.0472
27442W        W70458  21.107   4.917   1.541 -0.2534 -0.3199 -0.0965
27443W        W70459  13.429  26.207   7.953 -0.0286 -0.2945  0.1699
27444W        W70460   9.655  14.729   7.753  0.1781 -0.1501  0.4241
27445W        W70461  17.168  14.520   3.616  0.0090  0.1705  0.2129
27446W        W70462  23.987   6.561   2.708 -0.0259 -0.1604  0.1569
27447W        W70463  17.362  21.488   7.244 -0.1711 -0.0179 -0.0176
27448W        W70464  25.032  24.541  10.743 -0.4656 -0.2772  0.1416
27449W        W70465  33.538  26.926   8.804  0.1280 -0.0253  0.1062
27450W        W70466  32.596  24.876   5.868 -0.2709  0.0414 -0.0308
27451W        W70467  21.635  18.283   2.438  0.0812 -0.1833 -0.0311
27452W        W70468  14.788  31.524  23.063  0.0907 -0.1015 -0.1794
27453W        W70469  26.367  29.169   4.094 -0.2070  0.0524  0.1988
27454W        W70470  34.316  25.330   9.698 -0.0489 -0.2784  0.3996
27455W        W70471  11.916  33.909   8.978  0.1712  0.4150  0.1308
27456W        W70472  17.037   0.871   9.852 -0.1190 -0.3945 -0.0656
27457W        W70473  24.126  33.132  28.279  0.1356 -0.0325  0.1360
27458W        W70474  31.553  21.666   4.455 -0.2014  0.2383  0.1940
27459W        W70475  28.389   3.994  25.336  0.0170 -0.0017  0.5038
27460W        W70476  18.875  22.361   6.532  0.2239 -0.2935  0.3047
27461W        W70477  30.196  25.702  10.696  0.1205  0.2822 -0.0279
27462W        W70478  28.808  18.526  28.887  0.3405 -0.2672  0.0621
27463W        W70479  30.670   0.024  18.535  0.2240  0.1956 -0.1761
27464W        W70480   9.640  17.701   8.264 -0.1169  0.1353 -0.0423
27465W        W70481  29.715  24.668   4.384  0.2199  0.0864  0.0073
27466W        W70482  32.918  33.145  29.127  0.1081  0.1664  0.1542
27467W        W70483  13.229   2.369   7.923 -0.1194 -0.1358 -0.3322
27468W        W70484   6.702  12.459   6.233  0.0977 -0.0771 -0.2677
27469W        W70485  12.623   2.287   4.847 -0.2076  0.0643  0.0934
27470W        W70486  21.488  23.264   8.296  0.1712  0.1947 -0.0652
27471W        W70487   3.320  23.545  27.479 -0.0027  0.2919 -0.0216
27472W        W70488  30.346  34.496  11.502 -0.1328 -0.1645  0.1338
27473W        W70489   1.268   4.957  28.225 -0.3722  0.1233 -0.1956
27474W        W70490  20.556  31.191   7.543 -0.0402  0.0315 -0.0280
27475W        W70491  15.927  31.800   5.248 -0.0943  0.1270  0.1103
27476W        W70492  21.631  21.493   5.533  0.0168  0.2342  0.0165
27477W        W70493   7.957  31.536  10.105  0.3580 -0.0425  0.5692
27478W        W70494  30.401  33.310   4.026 -0.0602  0.0104  0.0351
27479W        W70495  17.155  20.904   6.142 -0.1093 -0.0434  0.2130
27480W        W70496  25.303  27.495  10.563 -0.1497 -0.3249 -0.0237
27481W        W70497  27.162  27.885  10.962  0.1550 -0.0322  0.0985
27482W        W70498   0.493  16.300   8.582 -0.1824 -0.0380 -0.0079
27483W        W70499  22.607  13.059   8.778 -0.3002  0.0684  0.1057
27484W        W70500  33.415  25.523  10.518  0.2826  0.0523  0.0600
27485W        W70501   5.561  21.404  27.138 -0.0865  0.1449  0.1929
27486W        W70502  16.099  30.208   4.694 -0.1232 -0.2186  0.0776
27487W        W70503  24.058  34.593   5.119 -0.3569 -0.1357  0.1484
27488W        W70504  25.983   1.325   3.892 -0.0800 -0.0322 -0.0665
27489W        W70505  20.103  22.184   7.996 -0.0309  0.0280 -0.0245
27490W        W70506  14.705  21.869  28.887 -0.4227  0.0832  0.1681
27491W        W70507  13.660  15.199  27.297 -0.2524  0.0471  0.1827
27492W        W70508  14.719  11.588   3.681  0.0951  0.0768  0.5344
27493W        W70509  27.889  33.124   0.745 -0.0255 -0.1951 -0.3148
27494W        W70510   1.817  20.553  22.443  0.3056 -0.1477 -0.1027
27495W        W70511  31.996  22.314   2.145  0.0479 -0.1785  0.0359
27496W        W70512   9.469  21.675  28.190 -0.2194  0.1135  0.2151
27497W        W70513  29.004   0.873  20.191 -0.1950 -0.0920  0.1571
27498W        W70514   9.598   0.853   5.394  0.1687  0.2082  0.3212
27499W        W70515  17.268   6.023   1.883  0.1096 -0.0045  0.0579
27500W        W70516  10.814  11.062   9.854  0.0852 -0.0586  0.1624
27501W        W70517  10.886  25.184   4.615  0.0791 -0.0296 -0.0565
27502W        W70518  17.835   6.547   6.011 -0.0713  0.0626 -0.1562
27503W        W70519  15.940  28.914  27.914 -0.2053  0.0359 -0.0641
27504W        W70520  15.714  10.644   5.914  0.2495  0.0527  0.1175
27505W        W70521   6.338  28.752  28.518  0.1486  0.2649 -0.1040
27506W        W70522  13.640  20.475   2.108 -0.1513 -0.2090  0.1139
27507W        W70523  21.256  25.709  26.297 -0.0477  0.0716  0.3415
27508W        W70524  11.849  23.969   1.661 -0.4224  0.0560 -0.0745
27509W        W70525  22.281  15.988  22.262  0.0098 -0.1358 -0.0143
27510W        W70526  10.157  21.385  28.457 -0.1805  0.2126  0.0564
27511W        W70527  11.403   4.135   4.960  0.2282  0.1508 -0.2243
27512W        W70528  25.735   9.800   9.615 -0.0367 -0.0461  0.0138
27513W        W70529  28.515  15.580   7.629 -0.1293 -0.0476 -0.1127
27514W        W70530  14.496   0.781  28.986 -0.0876  0.1081  0.1297
27515W        W70531   7.815  19.650  28.858  0.2570  0.2379 -0.1313
27516W        W70532   1.715   6.671   1.634 -0.0652 -0.1562 -0.0359
27517W        W70533   7.775  20.821  14.650  0.0481  0.2104  0.2559
27518W        W70534  25.494  32.404  11.919  0.0750  0.0749  0.0699
27519W        W70535  15.974  23.750  25.551  0.1021 -0.2653 -0.0999
27520W        W70536  30.177   1.202  20.614 -0.0790  0.0638  0.2834
27521W        W70537  32.230   7.773   4.106 -0.0474  0.1079 -0.3551
27522W        W70538  24.226  32.947   9.064  0.0062  0.1047  0.2012
27523W        W70539  24.091  24.505  15.996 -0.0440  0.1249 -0.0100
27524W        W70540  19.877  24.896  29.207  0.0262  0.0670  0.0388
27525W        W70541   8.834  32.453  24.541 -0.0194 -0.0550 -0.0382
27526W        W70542  31.967  26.024  25.372  0.0250  0.1325  0.1211
27527W        W70543  25.459  30.974   7.094 -0.0577  0.0972 -0.1048
27528W        W70544  28.465  29.560   7.595 -0.2824 -0.3651 -0.0689
27529W        W70545  13.978  17.915   7.427  0.3164  0.0715  0.0278
27530W        W70546  26.726  33.291   6.812  0.0720  0.0696 -0.1374
27531W        W70547  18.412  32.527   9.258  0.1200  0.0423 -0.1853
27532W        W70548   9.648  28.607   2.222  0.4622  0.1265 -0.1157
27533W        W70549  34.571   5.110   5.984 -0.1620 -0.2623 -0.0991
27534W        W70550   5.823   4.721  10.153  0.1346  0.1981 -0.0998
27535W        W70551   0.142  34.737   2.863  0.2381  0.1886  0.0336
27536W        W70552  25.279  29.539   2.819  0.3274  0.1226 -0.0846
27537W        W70553   3.155  34.225   9.295 -0.1146 -0.0955  0.1584
27538W        W70554  26.830  13.745   3.412  0.1755  0.3168  0.2269
27539W        W70555  17.837  25.120  25.604  0.0703 -0.2939 -0.3037
27540W        W70556  24.795  19.427   8.358  0.1267 -0.1126  0.1833
27541W        W70557   4.212  31.213   5.684  0.0107 -0.1028  0.2788
27542W        W70558  21.134  19.765  29.045 -0.1015 -0.1747  0.0286
27543W        W70559  31.714   5.377   9.015  0.1721  0.0799 -0.2165
27544W        W70560   3.179  19.695   7.057  0.2092 -0.1996  0.2122
27545W        W70561  26.096   3.548  29.283  0.1933 -0.0976  0.0071
27546W        W70562  25.295   4.822   5.737 -0.0115 -0.0433  0.1072
27547W        W70563  33.792   7.894  29.308 -0.0197  0.0864  0.1984
27548W        W70564  14.219  21.373  23.617  0.1862 -0.2352 -0.2655
27549W        W70565  18.796   5.013   1.924 -0.0012  0.5277  0.0172
27550W        W70566  11.780  31.035  22.369 -0.1022  0.2438 -0.0581
27551W        W70567  16.721  21.514  20.755 -0.1469  0.1385 -0.1068
27552W        W70568  24.243  13.155   7.293  0.0459 -0.1340  0.3773
27553W        W70569  32.104  25.891   0.594  0.2042  0.1538  0.1596
27554W        W70570  10.140  28.337   9.803 -0.1630 -0.0126  0.2557
27555W        W70571  31.640  25.456   8.901 -0.1699 -0.0504 -0.1998
27556W        W70572  16.568  18.637  17.246 -0.0482  0.1581 -0.2369
27557W        W70573  31.914  23.017   0.020  0.0193  0.0372 -0.2123
27558W        W70574  17.287   0.058   6.012 -0.4366  0.0288  0.0970
27559W        W70575  14.664  33.778   6.049 -0.1495 -0.0748  0.3109
27560W        W70576  19.495   8.601   6.290 -0.1833  0.0913  0.0269
27561W        W70577  29.563  29.593  17.875 -0.1457 -0.0236 -0.0369
27562W        W70578   2.727   1.513   5.523 -0.2373 -0.4678 -0.1072
27563W        W70579  32.729   7.276   6.769 -0.1479 -0.1640 -0.1140
27564W        W70580   0.508  13.438  24.408 -0.3615  0.1058 -0.4093
27565W        W70581   0.535  31.398   8.256  0.1634 -0.1456  0.1660
27566W        W70582  28.048   0.069   7.373  0.1128 -0.0361 -0.0155
27567W        W70583  18.160  15.093   7.023  0.0824 -0.1298  0.1036
27568W        W70584  16.109  16.333  20.629 -0.2073  0.1801  0.1270
27569W        W70585  22.191  26.218   2.395  0.1951  0.0420 -0.1353
27570W        W70586  30.674   7.019  20.653  0.0478  0.2220  0.3134
27571W        W70587  24.786  10.117   6.326 -0.3324 -0.0675  0.0454
27572W        W70588  11.412  29.949   8.947 -0.2781 -0.0604  0.0457
27573W        W70589  22.783  30.908  25.822 -0.3721  0.1218  0.0117
27574W        W70590  18.956  30.704   4.109  0.1079 -0.2563  0.0386
27575W        W70591  11.167  20.298  29.030 -0.0624 -0.0061  0.0871
27576W        W70592   8.858  13.618   5.192  0.0740 -0.0552 -0.1709
27577W        W70593  19.666   9.794   2.934  0.2038 -0.0425  0.1969
27578W        W70594   3.034   2.290   4.343  0.1413 -0.1984 -0.0547
27579W        W70595  13.272   5.246   5.698 -0.1594 -0.2724 -0.5985
27580W        W70596  28.843  22.887   5.053  0.0140 -0.2735  0.0289
27581W        W70597  27.197   0.094   8.177 -0.0499 -0.0769 -0.0424
27582W        W70598  30.366  23.424  10.960  0.1464  0.1757  0.0168
27583W        W70599  23.004  20.949  27.703 -0.2015 -0.1103 -0.2418
27584W        W70600   7.681  21.258   2.338 -0.1556 -0.0750  0.0364
27585W        W70601  15.191   5.083   6.928 -0.1971 -0.0050  0.0784
27586W        W70602   9.145   5.956   2.085 -0.0758  0.1012 -0.1638
27587W        W70603  28.633  11.828   9.022  0.0007 -0.1894 -0.0744
27588W        W70604   7.073  32.431   6.966  0.1761 -0.1195 -0.2368
27589W        W70605  33.767   4.666  28.315 -0.1110 -0.0656 -0.0073
27590W        W70606   9.697  15.401   2.157 -0.0362 -0.0347  0.1471
27591W        W70607  20.449  21.362   4.160  0.1457  0.0632 -0.0679
27592W        W70608  34.001  24.901   8.533  0.1284  0.1001  0.5073
27593W        W70609  20.654  32.601   5.412  0.0022  0.1213  0.0711
27594W        W70610  17.613  32.610   4.319  0.2303 -0.2123 -0.2780
27595W        W70611  25.967   6.547  19.895  0.4506  0.3510  0.2519
27596W        W70612  24.613  22.638  24.326 -0.1530  0.2375  0.1139
27597W        W70613  25.015  29.062   2.697 -0.0081  0.2102  0.1313
27598W        W70614  31.255   0.326   9.050  0.0072  0.1264 -0.0387
27599W        W70615  28.774  27.796  23.487 -0.1814 -0.0509  0.3334
27600W        W70616   8.068  24.779   5.993  0.0369 -0.3851 -0.2433
27601W        W70617  20.180  30.059   8.742  0.0986 -0.1800  0.0995
27602W        W70618  34.010   5.834   8.685 -0.1253  0.0248 -0.0781
27603W        W70619  28.142  30.653  10.428 -0.0668  0.1759  0.2606
27604W        W70620  33.219  31.736  10.962 -0.0662 -0.1974  0.0713
27605W        W70621  20.622   3.083   2.553 -0.1573 -0.1662 -0.1478
27606W        W70622  16.740   0.331  25.600  0.2412  0.1042 -0.1264
27607W        W70623  14.279  34.028  25.693  0.0572 -0.0259 -0.0702
27608W        W70624  14.542  22.792  28.745  0.2233 -0.1833 -0.3957
27609W        W70625  34.720  16.804   1.241 -0.0663  0.0331  0.0239
27610W        W70626   0.176  16.432   8.236 -0.1700  0.2326 -0.0671
27611W        W70627  20.982  34.235   8.700  0.0344  0.1716  0.0628
27612W        W70628  24.631  33.432   3.689  0.0968  0.2022 -0.0577
27613W        W70629  31.566  21.497   3.287  0.1281  0.2693  0.1197
27614W        W70630  19.778  25.807   5.468 -0.2366 -0.0234 -0.2071
27615W        W70631  27.684  16.400   3.929  0.2161 -0.0500  0.3170
27616W        W70632  23.568   9.174  24.678  0.3502 -0.0278 -0.0463
27617W        W70633   7.049  33.249   6.607 -0.0513  0.0834 -0.0591
27618W        W70634  30.638  21.625   7.081 -0.0532 -0.5065 -0.1552
27619W        W70635  31.888  30.717   1.776  0.1723  0.1392  0.4761
27620W        W70636   2.422  28.246   8.939  0.1315 -0.2161 -0.2352
27621W        W70637  13.177  29.098   0.845  0.1519  0.0185  0.1023
27622W        W70638  19.710  23.599   4.509  0.0356  0.0348  0.0026
27623W        W70639  13.020  17.855   6.066  0.0444  0.1720  0.2768
27624W        W70640  33.485  31.890  10.523 -0.3999  0.2494  0.1019
27625W        W70641  21.312  29.384   7.718 -0.4682 -0.0043  0.4604
27626W        W70642  24.538  23.521   8.620 -0.1160  0.0160 -0.1079
27627W        W70643  18.376  25.623   6.815 -0.0370 -0.0418  0.0564
27628W        W70644  27.236  12.794   5.107  0.0816  0.0828  0.1390
27629W        W70645  17.924  11.225   6.527  0.2241 -0.0444 -0.0977
27630W        W70646  12.259   1.598  27.653  0.1831 -0.1992  0.2106
27631W        W70647  14.757  32.545  19.446 -0.0301 -0.0844  0.1940
27632W        W70648  32.831   1.657   1.054  0.4086 -0.0245 -0.1134
27633W        W70649  21.075  22.351   6.133 -0.0656 -0.0962  0.0298
27634W        W70650  19.152   6.386   6.213  0.1181 -0.0498  0.2976
27635W        W70651  15.732   6.368   0.434  0.0294  0.1009 -0.1687
27636W        W70652  18.143  16.782   4.833  0.1644 -0.3322 -0.0427
27637W        W70653  29.982  25.746   4.995  0.0579  0.1007  0.1929
27638W        W70654  23.506  19.660   4.209  0.1381  0.0988 -0.0125
27639W        W70655  28.164  27.478   4.139 -0.7197  0.3954 -0.0094
27640W        W70656   9.458  23.676   4.543 -0.1335 -0.0684  0.0597
27641W        W70657  12.746  20.467  27.479  0.0044  0.0421  0.3897
27642W        W70658  22.302  17.055   6.154  0.1740  0.2236 -0.0864
27643W        W70659   1.468  22.931   7.974  0.0881  0.1487 -0.0616
27644W        W70660  16.939  30.183   5.888  0.0912  0.0368 -0.0173
27645W        W70661  24.478  24.266  25.210  0.2724 -0.2281  0.0471
27646W        W70662  27.881  17.005   1.340  0.1234  0.3585 -0.1414
27647W        W70663   8.353  30.551   7.689 -0.1033 -0.1537 -0.0289
27648W        W70664  26.262  17.002   3.606 -0.3574  0.1569 -0.0270
27649W        W70665  24.363  21.124   5.178 -0.0891  0.0334 -0.1183
27650W        W70666  19.913  29.019   1.341 -0.0879  0.0697  0.2373
27651W        W70667  32.605  23.063  27.101 -0.0857  0.1428  0.0747
27652W        W70668  34.297   7.881  24.892 -0.1078 -0.3265  0.1571
27653W        W70669  30.723   1.470  28.394 -0.0717  0.2036  0.1404
27654W        W70670  11.746  22.158  26.988 -0.1806 -0.5603  0.0329
27655W        W70671  24.467  12.306  28.271 -0.2653  0.1870 -0.3609
27656W        W70672   2.373   0.845   9.790 -0.0553  0.0330  0.2420
27657W        W70673  30.884   3.072   7.079 -0.1047 -0.1638 -0.0256
27658W        W70674  19.303   0.753   1.110 -0.0694 -0.0579 -0.0049
27659W        W70675  30.420  20.938   2.543 -0.3947 -0.0338 -0.0624
27660W        W70676  23.091  13.723   8.319  0.1442 -0.0619 -0.0241
27661W        W70677  16.711  21.136  24.842  0.1890  0.0135  0.0090
27662W        W70678  26.157   8.180   3.000 -0.0024 -0.0629 -0.1623
27663W        W70679  25.383  31.544  21.409  0.1158 -0.1250  0.2648
27664W        W70680  31.965   2.454   3.715 -0.2024 -0.2316  0.0925
27665W        W70681  22.517  19.119   1.382  0.0510  0.1076 -0.1522
27666W        W70682  26.416  25.145  10.111  0.1065  0.1282  0.0827
27667W        W70683  28.681  27.733  10.972 -0.1225 -0.0597  0.1324
27668W        W70684  16.896   2.564  29.131  0.1158 -0.0727  0.2621
27669W        W70685  29.455   1.258   3.258 -0.1527 -0.0870  0.0515
27670W        W70686  14.955  17.156  28.422 -0.1909 -0.1884 -0.1753
27671W        W70687  21.523  10.666   5.841 -0.1258  0.0324 -0.0939
27672W        W70688  25.516  32.229   3.346 -0.0321  0.1952 -0.2545
27673W        W70689  25.894  27.526   6.756 -0.3929  0.2458  0.0302
27674W        W70690   1.639  16.352   0.288  0.1107  0.1224 -0.0827
27675W        W70691   6.911   0.234  28.861  0.0970  0.0461 -0.1508
27676W        W70692  23.677  28.394   6.756 -0.0342 -0.0975  0.2111
27677W        W70693  23.247  21.500   4.658  0.2980 -0.1461  0.1406
27678W        W70694   6.295  11.118   0.608  0.0137  0.0078 -0.4205
27679W        W70695  33.569  13.213  26.359  0.3218 -0.0377  0.1037
27680W        W70696  24.658  12.035   4.096 -0.0793  0.0881 -0.0815
27681W        W70697  14.420  29.230   3.854 -0.2707 -0.1554  0.0495
27682W        W70698  29.219  34.091   9.223 -0.1457  0.3118 -0.0467
27683W        W70699  34.280  23.490   4.234 -0.1096 -0.0856 -0.2025
27684W        W70700  22.927  24.370   8.177  0.0160  0.2726  0.0803
27685W        W70701  27.493  25.248  27.765  0.1968 -0.1652  0.1722
27686W        W70702  13.136  28.277   0.186  0.0037  0.1856  0.2945
27687W        W70703  31.383  18.033   1.033  0.3836 -0.0398 -0.0596
27688W        W70704  14.917  27.326   2.326  0.0340  0.0609  0.0341
27689W        W70705   5.850  19.206   5.289  0.0056 -0.2874 -0.0204
27690W        W70706   5.065  23.543   7.851  0.1605  0.0257 -0.1670
27691W        W70707   0.218  21.854   3.726 -0.1571 -0.2254 -0.0970
27692W        W70708  23.523  32.221  10.521  0.3604 -0.3132  0.1415
27693W        W70709  20.221  34.730  21.975  0.2711  0.4342 -0.1434
27694W        W70710  22.054   9.258   0.062 -0.1384 -0.0262 -0.0788
27695W        W70711  14.390  23.544  21.614  0.2448 -0.0743  0.1738
27696W        W70712  22.221   3.217   4.385  0.0909  0.0462  0.0033
27697W        W70713   5.978   0.832   6.783  0.4254  0.0448  0.2240
27698W        W70714  17.337  31.780  11.038  0.2093 -0.1015 -0.0780
27699W        W70715  12.736  21.730   5.017  0.2164 -0.0029  0.1245
27700W        W70716  24.279  30.418   0.815 -0.1172 -0.2230 -0.2135
27701W        W70717  10.205  20.471   5.227 -0.1926 -0.0915  0.1647
27702W        W70718  22.076  12.772   7.717  0.2596  0.2508  0.1812
27703W        W70719  19.904  33.101   8.990  0.1566 -0.0426 -0.2299
27704W        W70720  16.757  20.743  21.330  0.0830 -0.3372  0.4319
27705W        W70721  31.522  34.724   3.521  0.2811 -0.0133  0.0027
27706W        W70722  21.721  31.947   3.580  0.2425  0.2500  0.1967
27707W        W70723  27.061  33.865  21.020 -0.1755 -0.1312  0.0731
27708W        W70724  22.191   3.111  22.041 -0.0165  0.4382 -0.0810
27709W        W70725  15.254  31.444  10.672 -0.3433  0.1781 -0.0521
27710W        W70726  28.545  28.840   9.512 -0.2024 -0.2792 -0.0633
27711W        W70727  32.901  32.757   8.355 -0.0841 -0.0280  0.4094
27712W        W70728   6.534   8.009   5.867 -0.0881  0.2788 -0.2799
27713W        W70729   6.702  28.445   7.544 -0.1594 -0.2591  0.2014
27714W        W70730  16.170  25.065  28.682  0.0755 -0.3931  0.1474
27715W        W70731  12.256   0.268   8.895 -0.1152 -0.2536  0.0552
27716W        W70732  23.461  28.770   9.776 -0.2332 -0.1094  0.1091
27717W        W70733  21.822  26.257  28.823  0.2861  0.3274 -0.4511
27718W        W70734  30.251  30.550   4.807 -0.3852  0.2429  0.1398
27719W        W70735  21.034  23.730   9.421  0.0929 -0.1790  0.2973
27720W        W70736  15.816  18.314  19.385 -0.1717 -0.1878  0.0505
27721W        W70737  23.673  24.508   0.877 -0.1177  0.0402  0.2625
27722W        W70738  19.284  33.795  17.762 -0.0321 -0.2189  0.0683
27723W        W70739  23.813  24.967   1.739  0.2270 -0.3349  0.1444
27724W        W70740  32.594  31.047  24.946  0.1676 -0.1244 -0.2907
27725W        W70741   4.526  29.615  10.290 -0.0405  0.1222  0.2060
27726W        W70742  29.027   8.758  10.580 -0.0527  0.2568  0.0305
27727W        W70743  28.844  21.708  28.211  0.2245 -0.0627 -0.0115
27728W        W70744  11.482   8.541   8.699  0.2625 -0.4473 -0.0448
27729W        W70745  22.428  32.298   3.062 -0.2924  0.4392  0.0634
27730W        W70746  18.803  15.201  22.617 -0.0408 -0.1839  0.1772
27731W        W70747  33.197  26.582  23.495 -0.2489  0.1369 -0.0000
27732W        W70748  12.862  29.288   1.555  0.1106 -0.2688  0.0310
27733W        W70749  27.370  18.889  25.805 -0.4283 -0.3689  0.2198
27734W        W70750   2.753   4.073  28.533 -0.1516 -0.3604  0.3011
27735W        W70751  14.502  29.487  24.708 -0.0093  0.3492  0.0146
27736W        W70752  18.064  26.865   6.521  0.1745  0.1512  0.0027
27737W        W70753  25.432   1.446   1.754 -0.1496  0.2745  0.1540
27738W        W70754  28.716  24.657   0.147  0.0705 -0.3552  0.0017
27739W        W70755  23.234  19.028  27.669  0.0946 -0.0504 -0.1006
27740W        W70756  31.836  20.331   3.866  0.1193 -0.4640  0.1454
27741W        W70757  22.371   4.876   7.262 -0.0949  0.1152  0.0817
27742W        W70758  29.510  17.182   6.670  0.0650  0.1379 -0.0685
27743W        W70759  19.604  32.748   3.910  0.0354 -0.0015  0.0874
27744W        W70760   2.291   8.388  27.857 -0.1038  0.0328 -0.1114
27745W        W70761  32.932  11.831   6.042  0.1443  0.1428  0.1118
27746W        W70762  21.412  29.512   5.519 -0.2323 -0.1048 -0.1289
27747W        W70763  26.489  31.861   1.392 -0.0524  0.1700 -0.0576
27748W        W70764  33.477  19.228   5.740  0.0467 -0.0089  0.0325
27749W        W70765  25.875  26.946   1.360 -0.1877 -0.1007  0.1150
27750W        W70766   1.890   2.280   8.105 -0.0183  0.1997  0.0000
27751W        W70767  15.974  24.018  26.930 -0.0183  0.4250 -0.1665
27752W        W70768  32.476  23.637   9.230 -0.0477  0.2353 -0.1590
27753W        W70769  15.189  21.973   5.610 -0.1278  0.0790 -0.0214
27754W        W70770  23.574  22.589   8.935  0.1274 -0.3947  0.2125
27755W        W70771  23.693  23.785   2.088 -0.0609 -0.0973  0.2105
27756W        W70772  29.701  27.657  24.352  0.2959 -0.2138  0.0828
27757W        W70773   0.674  11.715   9.191 -0.1669  0.0474 -0.3197
27758W        W70774  33.139   4.261   7.194  0.2547  0.0691  0.1568
27759W        W70775  15.145  24.427   4.766  0.3429  0.0273 -0.1207
27760W        W70776  29.504  15.442  26.342  0.0635 -0.2037  0.0160
27761W        W70777  27.335  19.849   4.967  0.1310  0.1876  0.4178
27762W        W70778  30.669  12.913   4.696 -0.2085 -0.0551  0.1192
27763W        W70779  27.716  26.504  15.570 -0.3993 -0.2545  0.3421
27764W        W70780  16.014   3.709   6.130  0.1058  0.0713  0.0109
27765W        W70781  15.029  24.344   1.725 -0.0353 -0.0856  0.1005
27766W        W70782  30.407  26.414   8.864 -0.0442  0.0005 -0.6446
27767W        W70783   4.791  27.919   5.549  0.1021  0.0526  0.1018
27768W        W70784  24.744  33.677  10.454 -0.1600  0.0050  0.2216
27769W        W70785  27.058   3.314   3.146 -0.0951 -0.0035  0.0135
27770W        W70786   9.940  16.665   8.586 -0.1047 -0.0518  0.3372
27771W        W70787  15.669  28.100  28.635  0.1984 -0.2641  0.3059
27772W        W70788   7.609   9.027   9.064 -0.0842  0.1654  0.0775
27773W        W70789   4.829   3.622  25.165 -0.0976 -0.3217 -0.1644
27774W        W70790  24.553  22.959   2.848  0.1171 -0.1415 -0.4636
27775W        W70791  28.290  12.644  29.291  0.0380 -0.0156  0.1122
27776W        W70792  26.054  22.158   9.520  0.2281  0.1207  0.2312
27777W        W70793   5.368  29.808   1.245 -0.1485  0.3645  0.1477
27778W        W70794  26.245   3.971   6.849  0.0167  0.0013 -0.3596
27779W        W70795  22.286  16.184   7.143  0.1516  0.0201 -0.0336
27780W        W70796  25.705  23.586   9.712  0.0298 -0.1770  0.2854
27781W        W70797  29.320  24.914   6.616  0.1164 -0.2982  0.1063
27782W        W70798  26.668  33.898  28.341 -0.0061  0.0262  0.0724
27783W        W70799  19.179  17.655   3.077  0.3052  0.0177  0.1058
27784W        W70800   7.099  31.768   9.410 -0.1290  0.4346 -0.0041
27785W        W70801  31.497  20.428   6.401 -0.4431 -0.2358 -0.1321
27786W        W70802  18.493  29.725   4.890 -0.2192  0.3236  0.0861
27787W        W70803  16.080  23.212  25.225  0.0835  0.0091  0.0823
27788W        W70804  11.458  19.544   5.449  0.1075 -0.0564  0.3109
27789W        W70805  20.034  12.308   6.782  0.2516 -0.2990  0.0842
27790W        W70806   4.976  19.861   4.689 -0.0303  0.0720 -0.2114
27791W        W70807  16.766  34.204   2.786  0.2440 -0.2140 -0.2249
27792W        W70808  26.456  23.713   7.290  0.0238 -0.2361 -0.0987
27793W        W70809  16.901   9.786  28.121  0.2412 -0.1431 -0.0039
27794W        W70810   6.909  23.250  26.257  0.0429 -0.0229  0.1095
27795W        W70811  15.880  30.554  24.804 -0.0820  0.0989 -0.2259
27796W        W70812  31.603  28.440   5.267  0.2195  0.0252 -0.3398
27797W        W70813   6.788  18.354   4.240 -0.1380 -0.3407 -0.1165
27798W        W70814  25.106  10.035  28.464  0.0969 -0.3427  0.4288
27799W        W70815  20.708  25.297   3.886  0.0546  0.1127  0.2479
27800W        W70816  15.804  12.476  20.466  0.0313  0.2251 -0.3468
27801W        W70817  17.534  24.641   7.310 -0.0137 -0.0253  0.1179
27802W        W70818  20.684  11.059   4.265  0.1169  0.0636  0.0225
27803W        W70819   7.859  28.688  26.544 -0.3078  0.0715 -0.2873
27804W        W70820  23.346  30.086   9.826  0.3396 -0.0160  0.2270
27805W        W70821  20.814  15.319   3.551  0.0539 -0.0681 -0.1446
27806W        W70822  16.175  16.295   4.943 -0.0459  0.0049  0.0161
27807W        W70823  25.414  32.074   0.369  0.2400 -0.2356 -0.1947
27808W        W70824  14.621  32.540   6.272 -0.1163  0.0580 -0.1335
27809W        W70825  29.381  34.675   2.054 -0.3368 -0.1979  0.2888
27810W        W70826  16.910  20.513   6.015  0.0262 -0.1213  0.2307
27811W        W70827  31.373  33.218   8.859  0.0639 -0.0256 -0.0461
27812W        W70828   9.854  29.117  24.260 -0.1844 -0.3380  0.0212
27813W        W70829   1.367   1.430   5.329  0.0593 -0.2242  0.0631
27814W        W70830  32.300  26.896  25.078 -0.4563 -0.0367  0.0908
27815W        W70831  32.938  28.120   8.968  0.0913  0.2418  0.1556
27816W        W70832  20.204  28.833  27.430  0.1158 -0.3099 -0.1210
27817W        W70833  17.496  12.397   8.536 -0.0893  0.1728  0.0453
27818W        W70834  12.956  20.220   7.320  0.2507  0.3358 -0.2219
27819W        W70835  18.630   3.394  24.055  0.0560 -0.0440  0.1130
27820W        W70836  27.914  18.788   4.843 -0.1996  0.0019  0.0663
27821W        W70837  26.599  29.036  26.451  0.2615 -0.2727  0.2227
27822W        W70838  21.469  27.862   9.917  0.0733  0.1882  0.1091
27823W        W70839  32.186  28.401   6.112 -0.2479  0.1282 -0.3736
27824W        W70840  27.439   9.124   9.535 -0.1550 -0.2677  0.2403
27825W        W70841   7.599  14.297   5.457  0.1289  0.0552 -0.0126
27826W        W70842  33.031  22.608   4.204  0.2152 -0.0454 -0.1669
27827W        W70843  19.768  27.894   3.695  0.2356  0.1686  0.1613
27828W        W70844  29.623  17.833   6.526 -0.0302  0.2202  0.1940
27829W        W70845  17.493  15.151   0.612 -0.0398 -0.0031 -0.1557
27830W        W70846  22.280  22.028   1.531  0.0084  0.0585 -0.0786
27831W        W70847  32.863   5.580   9.480  0.1979 -0.0769  0.0171
27832W        W70848  29.235  28.295  11.496 -0.0919 -0.0862 -0.1120
27833W        W70849  19.965  28.009   7.084 -0.0737 -0.1378  0.0061
27834W        W70850  27.349  19.034   1.306 -0.2053  0.2643 -0.2861
27835W        W70851  29.430  16.372   0.615  0.0848 -0.1177  0.1363
27836W        W70852  16.037  27.065  28.908 -0.0185  0.1832  0.1293
27837W        W70853  30.697  25.493   4.197  0.0781 -0.3222 -0.0576
27838W        W70854  30.153  28.790   7.883  0.2125 -0.3340 -0.2904
27839W        W70855  18.860  27.103   3.937 -0.0406 -0.3356  0.2222
27840W        W70856  20.907   5.550   9.578 -0.1568 -0.0929 -0.1007
27841W        W70857  16.551  28.562   8.837  0.1530  0.1347 -0.0225
27842W        W70858  13.453  33.714  21.591 -0.0713  0.0992  0.2336
27843W        W70859  13.914  26.182  26.525  0.1677 -0.4419  0.3672
27844W        W70860  20.121   1.443   9.427 -0.2445 -0.0586  0.3044
27845W        W70861  22.482  22.352  27.738  0.0173  0.4072  0.0543
27846W        W70862   5.576  16.844   8.593 -0.1061 -0.3708 -0.0819
27847W        W70863  29.265   5.787  22.070 -0.5741 -0.0798 -0.0317
27848W        W70864  24.649  31.105   8.053 -0.0665  0.0902  0.0725
27849W        W70865  15.443  21.251  29.081  0.0079 -0.0406  0.0931
27850W        W70866  12.432  24.939   8.524  0.0858 -0.3866  0.3947
27851W        W70867  31.393  26.640  24.317 -0.0900  0.2022  0.1828
27852W        W70868  13.940  24.366   7.670 -0.2178  0.0137  0.1961
27853W        W70869  22.183  22.802  26.939 -0.1292 -0.2769  0.0573
27854W        W70870  14.758  32.094   4.516 -0.0457 -0.0607 -0.1725
27855W        W70871  33.884  13.423   7.097  0.2881  0.3943 -0.1223
27856W        W70872  23.256   9.825   9.421  0.1392 -0.3279  0.0663
27857W        W70873  22.021  30.786   8.925  0.1480 -0.1632  0.1588
27858W        W70874  20.577  29.904  10.091  0.2470  0.1525  0.4173
27859W        W70875  15.789  23.119  27.237 -0.1239  0.2544  0.1970
27860W        W70876  34.714  32.942  26.566  0.1195  0.0638  0.2902
27861W        W70877   6.219  33.355  29.314 -0.0935  0.0539  0.0725
27862W        W70878  23.867  21.262   5.694 -0.0202 -0.0742 -0.0483
27863W        W70879  18.608  11.709  28.779  0.0885 -0.1323 -0.3128
27864W        W70880   4.759   8.535   8.775  0.0116 -0.0621  0.2551
27865W        W70881  27.803  26.468  26.651  0.3088  0.3294 -0.2834
27866W        W70882   7.179  24.841   7.024  0.1620  0.1771  0.1234
27867W        W70883  22.892  10.053  22.597 -0.0355  0.5269 -0.1696
27868W        W70884  25.977  24.867  10.853 -0.0146 -0.0028 -0.0242
27869W        W70885  19.436   5.454  28.882  0.1842 -0.1669  0.4469
27870W        W70886  26.936   7.719   1.395 -0.1295 -0.1557 -0.1569
27871W        W70887  24.827  28.786   8.425  0.2423  0.0676 -0.4098
27872W        W70888  32.227  22.836   8.109 -0.1882  0.1757  0.0765
27873W        W70889  22.065  14.406   0.950  0.1023 -0.2800  0.1323
27874W        W70890  31.493  26.048  29.040 -0.3091 -0.0335 -0.3482
27875W        W70891  31.844  12.511   1.524  0.2832  0.0092 -0.0886
27876W        W70892   7.127  25.729  19.531 -0.0232  0.2713 -0.4833
27877W        W70893  15.141  25.806   8.054 -0.0682  0.0480 -0.0970
27878W        W70894  13.701  31.381  20.798 -0.0118  0.2062  0.2722
27879W        W70895  17.261  20.540   8.580  0.3269  0.0191  0.4102
27880W        W70896  24.802  20.024  24.800 -0.0078 -0.0904 -0.0668
27881W        W70897  28.796  17.277   7.993 -0.2511 -0.2223 -0.5232
27882W        W70898  18.358  30.216  20.872 -0.1471 -0.0801  0.0657
27883W        W70899   5.818  13.501   6.476  0.0064 -0.2446 -0.1327
27884W        W70900  22.469  20.204   5.612 -0.0489  0.2009 -0.0976
27885W        W70901   0.052   4.231   0.520 -0.1051  0.2890  0.0947
27886W        W70902  24.038  29.431   8.744 -0.1595 -0.3174 -0.0122
27887W        W70903  23.333  32.788   4.403 -0.0717 -0.2434  0.1917
27888W        W70904  27.423  32.428   6.041 -0.1756 -0.0262 -0.2167
27889W        W70905  33.174   4.460   4.127  0.0384 -0.0809  0.1879
27890W        W70906  31.810  22.074  22.331  0.1461 -0.0869  0.2374
27891W        W70907  25.200  12.385   9.037  0.0225 -0.3805  0.0323
27892W        W70908  19.856  22.912   1.878 -0.0552 -0.2525  0.1815
27893W        W70909  24.156  23.535   1.886  0.0043  0.0129 -0.0729
27894W        W70910  16.940   1.497   4.431 -0.3727  0.0890  0.1219
27895W        W70911  12.421  18.024   8.712 -0.2473  0.2730  0.0867
27896W        W70912  24.727  16.744   8.482 -0.1202  0.3302 -0.1220
27897W        W70913  19.495  21.954   0.809  0.2020 -0.1166  0.0028
27898W        W70914   4.937  10.647   7.730  0.1591  0.1775  0.0722
27899W        W70915  30.499  26.082   2.450  0.2342 -0.0100  0.0492
27900W        W70916  23.360   3.033  16.309 -0.0520  0.2868 -0.0601
27901W        W70917  27.748  12.069  19.092 -0.0166  0.0827  0.0250
27902W        W70918  12.930  28.033  28.045  0.1801 -0.0137 -0.2450
27903W        W70919  29.578  33.694   6.666 -0.1839  0.3182  0.2482
27904W        W70920  33.227  20.872  11.138  0.0149  0.2023  0.1009
27905W        W70921  15.297  18.987  26.825  0.1856 -0.1529  0.3984
27906W        W70922  33.484  23.797  28.575 -0.1434 -0.0400 -0.0265
27907W        W70923  21.585   1.376   6.615  0.0755 -0.0500  0.2574
27908W        W70924  12.994  31.158   7.294 -0.0160  0.0405 -0.4728
27909W        W70925  31.813  27.606   8.474 -0.0083  0.0139 -0.0532
27910W        W70926  22.589  14.292   6.036 -0.2314  0.1768 -0.0539
27911W        W70927  20.911  24.746   8.853  0.3063 -0.0895 -0.1044
27912W        W70928   6.089  31.169  22.931 -0.0695 -0.4694 -0.1681
27913W        W70929  26.952   7.709   6.885  0.2416  0.2245  0.4575
27914W        W70930  17.873  23.827   7.269  0.1026 -0.0110 -0.3086
27915W        W70931  21.290  20.499   3.547  0.0166  0.2136  0.4708
27916W        W70932  31.448  23.814  14.954 -0.0859 -0.1932  0.0165
27917W        W70933  15.460  32.818   9.964 -0.2819 -0.1936 -0.2321
27918W        W70934  31.874  34.037   4.325  0.1199  0.1447  0.0413
27919W        W70935   0.024  22.147   9.364 -0.2779 -0.1183 -0.0051
27920W        W70936  25.434   7.145  26.495  0.1548 -0.0663  0.2489
27921W        W70937  10.500  30.121  23.440  0.0279 -0.0738 -0.2754
27922W        W70938   0.906  25.394  29.084 -0.4493 -0.2183 -0.2107
27923W        W70939  21.791   2.863   8.271  0.1596  0.0114  0.3269
27924W        W70940  17.022  31.383   8.991  0.1853  0.0493  0.0766
27925W        W70941  13.772  22.027  26.080 -0.4337 -0.1804 -0.4288
27926W        W70942  23.976  23.019   9.654  0.3056 -0.2242  0.0530
27927W        W70943  15.259  20.892  26.082  0.4391 -0.0028 -0.1331
27928W        W70944  15.349  23.942   2.671  0.1261 -0.2065  0.1211
27929W        W70945  18.130  25.044  26.510 -0.1706 -0.0124  0.2270
27930W        W70946  20.522  21.207   4.945 -0.0869  0.1399 -0.1505
27931W        W70947  18.294  29.901   8.408  0.0171 -0.0116  0.0847
27932W        W70948  13.929  27.483   9.392  0.0026  0.0970  0.4495
27933W        W70949  13.893  13.539   0.511 -0.0828  0.0321 -0.2283
27934W        W70950  23.068  31.063  18.687  0.1759  0.3423 -0.3339
27935W        W70951  20.306  22.765   2.019 -0.2683 -0.2097  0.0822
27936W        W70952   3.436   3.051   3.150 -0.1668  0.0524  0.1005
27937W        W70953   1.308   8.924   2.678 -0.3025 -0.1656 -0.0208
27938W        W70954  28.944   5.615   4.803 -0.2786  0.1232  0.3394
27939W        W70955   6.888   5.303   7.382 -0.1052  0.2626  0.0393
27940W        W70956   2.216  28.763   6.664  0.1766  0.0043  0.1499
27941W        W70957  29.297  20.398   6.625  0.0922 -0.0168 -0.2084
27942W        W70958  12.949  30.675   9.806 -0.2410 -0.0794 -0.0372
27943W        W70959  24.009   4.768  10.562 -0.2350 -0.1204 -0.2361
27944W        W70960  23.452  33.228   8.498  0.0512 -0.0198 -0.0887
27945W        W70961  26.445  34.455  17.137  0.1085 -0.1386 -0.0027
27946W        W70962  29.129  29.739   4.747  0.1562  0.1464 -0.0555
27947W        W70963  23.769   8.777   6.393  0.0116  0.1256  0.0094
27948W        W70964  30.418  28.987   8.840  0.1267 -0.2464  0.2214
27949W        W70965  10.210   5.013   2.074 -0.3488  0.1182 -0.0204
27950W        W70966  11.915  28.648   6.107 -0.0275  0.0293  0.1119
27951W        W70967  28.991  30.781  11.471 -0.3645  0.1176  0.1024
27952W        W70968  24.749  19.275   9.457 -0.0883  0.1677 -0.0831
27953W        W70969  22.586  25.192   0.531  0.0793 -0.1595  0.1254
27954W        W70970   5.112   3.264  23.455  0.0223 -0.1128  0.1176
27955W        W70971  24.690  18.137  19.577 -0.1952 -0.2945  0.1507
27956W        W70972  26.788  28.605   3.631 -0.2398  0.1476  0.0649
27957W        W70973  18.540   8.886   8.950 -0.1878 -0.2784 -0.2448
27958W        W70974  32.357   9.008   4.893 -0.1364  0.1281 -0.1273
27959W        W70975   1.707  21.897   9.417  0.0549 -0.1853 -0.0928
27960W        W70976   2.129  24.865   6.351  0.0539 -0.0828  0.1212
27961W        W70977  22.079   1.610   9.881  0.1878  0.0745  0.0178
27962W        W70978  17.018  25.956   3.504  0.2544 -0.3085 -0.2535
27963W        W70979  19.269  23.048   2.335 -0.1785 -0.1721  0.0034
27964W        W70980  27.631   5.858   7.197 -0.1138 -0.0228 -0.1290
27965W        W70981  33.796  18.131   1.143  0.0095 -0.1897  0.2680
27966W        W70982  23.554   6.836   8.601 -0.1652 -0.2757  0.1058
27967W        W70983  27.403  22.629   6.825  0.1101  0.2638 -0.3311
27968W        W70984  30.724   9.920   9.304 -0.2231 -0.2214 -0.0093
27969W        W70985  34.352   6.884  29.084 -0.1419 -0.2764  0.0401
27970W        W70986  21.285  27.168  22.523 -0.0489 -0.1426  0.1496
27971W        W70987  30.187  24.723  10.672  0.1445  0.0110  0.2840
27972W        W70988  23.395  29.807  23.620  0.0873 -0.2274  0.3239
27973W        W70989  23.754  26.603  22.480 -0.0550 -0.1156  0.0675
27974W        W70990  25.289  14.539  28.512  0.1164 -0.1909 -0.1145
27975W        W70991  14.290  33.145   8.812  0.1675  0.0005 -0.0178
27976W        W70992  29.749   2.045  10.426  0.0656 -0.1040 -0.0797
27977W        W70993  22.617   6.590   9.817  0.3131  0.1659 -0.1529
27978W        W70994   4.858  29.727   9.889  0.1262  0.0423  0.2316
27979W        W70995  29.106  13.694   7.906 -0.4836 -0.2480  0.2441
27980W        W70996  14.642  27.195  23.858  0.0265  0.2734  0.1228
27981W        W70997   0.428  23.984   3.971 -0.3156 -0.0108 -0.1557
27982W        W70998  32.235   8.747   1.380  0.2798 -0.3213 -0.0362
27983W        W70999  12.561  14.423  24.550  0.0436  0.1832  0.2882
27984W        W71000  12.091   8.527   5.842  0.0414 -0.0655 -0.0816
27985W        W71001  19.694  22.411  18.692 -0.1927  0.1937  0.0568
27986W        W71002  18.872   7.577  25.257  0.1283  0.0104 -0.1227
27987W        W71003  29.636  33.225   9.680 -0.1742 -0.1151 -0.3975
27988W        W71004   8.830  25.662   5.154 -0.0181  0.0509 -0.0277
27989W        W71005  19.691  23.463   6.135  0.1004 -0.1624 -0.2397
27990W        W71006  17.941  10.349   1.348  0.0228 -0.0962  0.0985
27991W        W71007  12.905  24.484   3.481  0.3964 -0.1730  0.1650
27992W        W71008  15.127  29.469   9.971 -0.1392  0.1143 -0.1474
27993W        W71009  20.804   7.783   0.892 -0.0029  0.2103  0.3473
27994W        W71010  24.089  28.841   7.115 -0.0426 -0.1361 -0.0210
27995W        W71011  18.564  30.012  10.390  0.0983  0.0329 -0.0471
27996W        W71012  25.096  25.515   0.993  0.0030 -0.0703 -0.0390
27997W        W71013   2.259  30.547   8.188  0.1370  0.0391 -0.3857
27998W        W71014  29.058  22.713  26.719  0.0166  0.0749 -0.1821
27999W        W71015   9.945   7.029  24.982 -0.1251  0.0940 -0.0065
28000W        W71016  24.464  27.220  16.214  0.0274 -0.4806 -0.4602
28001W        W71017  11.908   6.533   3.632 -0.1891  0.1477 -0.1096
28002W        W71018  15.011   7.266  27.183 -0.0476 -0.0900 -0.1337
28003W        W71019  27.317  15.805   9.034  0.0494  0.0665  0.3225
28004W        W71020   4.036  34.610   3.895  0.1601 -0.3416 -0.2466
28005W        W71021   2.833  32.871   1.915  0.1483  0.1426 -0.1919
28006W        W71022  34.392  25.794   3.980  0.1643 -0.2098  0.1306
28007W        W71023   1.625   6.977   1.277 -0.3160  0.2328  0.0342
28008W        W71024  14.284  17.560   3.340  0.0448 -0.2927 -0.1215
28009W        W71025   3.250  33.925   7.893  0.3168  0.1885 -0.1381
28010W        W71026  20.563   9.100  18.469 -0.0140 -0.1377  0.0363
28011W        W71027  25.257  31.485  11.495 -0.3683  0.0546  0.1353
28012W        W71028   7.170   6.555  20.054  0.2924 -0.1638  0.1807
28013W        W71029   9.632  25.841   4.029 -0.4632 -0.0228  0.3858
28014W        W71030  14.622  16.258   6.203 -0.1862  0.1691 -0.0582
28015W        W71031  16.112   6.828  23.558  0.3388 -0.0034 -0.3024
28016W        W71032  13.427  24.821  24.457  0.1624  0.2068 -0.1835
28017W        W71033  24.131  27.626   3.409  0.0088 -0.1109 -0.0761
28018W        W71034   5.260  25.449   1.275 -0.1809  0.1067  0.0538
28019W        W71035  11.529  24.703   7.871 -0.0369 -0.1721 -0.2045
28020W        W71036  21.212  33.107  25.293 -0.0972 -0.0609  0.1705
28021W        W71037  21.003  29.882  28.706 -0.0582  0.1053 -0.1737
28022W        W71038  10.429  22.563  21.098  0.0798  0.0382  0.2364
28023W        W71039  24.530  23.927  24.560  0.0889 -0.1584  0.0971
28024W        W71040  32.899  26.858   9.031  0.1032  0.4606  0.3081
28025W        W71041  17.911  25.426  14.647  0.2643 -0.1430 -0.0009
28026W        W71042  22.615   1.364   5.174 -0.2485  0.1166  0.0901
28027W        W71043   9.783  17.935  28.007 -0.1007 -0.2074 -0.1330
28028W        W71044  11.925  16.036   6.691  0.3057 -0.5487 -0.1221
28029W        W71045  33.967  30.365  15.787  0.1028  0.1102 -0.1463
28030W        W71046  18.643  29.436   9.747  0.3276  0.1402 -0.0498
28031W        W71047  28.610   9.496  10.779 -0.0828 -0.3575  0.1827
28032W        W71048  22.423  23.050   1.433 -0.0098 -0.0621  0.0291
28033W        W71049  19.066   6.157   0.774 -0.1557 -0.1812  0.2637
28034W        W71050  29.979  22.006   6.598  0.1639  0.0074  0.1309
28035W        W71051   0.932  25.845  27.413  0.0450  0.0544 -0.2437
28036W        W71052  27.080  18.560  20.853 -0.0523 -0.0354  0.0668
28037W        W71053   8.633  25.570   5.656 -0.1583 -0.1316 -0.1752
28038W        W71054  21.011   9.003  20.562 -0.0483 -0.3492  0.0182
28039W        W71055  15.471   4.845   3.217  0.3542  0.1740  0.1033
28040W        W71056  10.594  20.548   7.178  0.1712  0.1617  0.1093
28041W        W71057   1.678   1.380  23.175  0.1541 -0.1552  0.2973
28042W        W71058  20.594  31.876   6.626  0.2186 -0.1052  0.0265
28043W        W71059  26.258  30.859  24.796  0.0683  0.1482  0.1899
28044W        W71060  33.894  25.569  22.626  0.1768  0.3987  0.2760
28045W        W71061  29.352  11.678  24.320  0.0189 -0.2345 -0.1108
28046W        W71062  29.397  26.293   6.774  0.1459  0.0400 -0.1808
28047W        W71063   8.553  17.207  28.885  0.0657  0.2757  0.0797
28048W        W71064  26.049  16.566  13.813 -0.1992  0.1397 -0.0800
28049W        W71065  34.292  25.646  10.129 -0.2854 -0.1411 -0.1310
28050W        W71066  24.212  32.325   6.571 -0.0202 -0.1857 -0.0493
28051W        W71067  18.936  15.454   4.631 -0.1572 -0.5917 -0.0184
28052W        W71068  21.447  30.402  18.398  0.2251  0.0441 -0.0112
28053W        W71069  25.575  23.739   6.233  0.0686  0.1703 -0.1495
28054W        W71070  23.702  27.585  10.189 -0.3312 -0.4031 -0.2395
28055W        W71071  32.607  13.812  29.178 -0.1714  0.1661  0.0657
28056W        W71072  13.438  33.081   1.323 -0.1120 -0.1323 -0.2021
28057W        W71073  20.452  21.652   9.045  0.0876  0.2425  0.0395
28058W        W71074  27.609  34.036  28.050 -0.1359  0.0842 -0.1943
28059W        W71075  24.679  30.172  16.450  0.2021  0.0512 -0.0699
28060W        W71076  15.610  34.013   7.724 -0.0209 -0.0626  0.1021
28061W        W71077  23.390   2.946   9.314  0.0789  0.1100  0.1752
28062W        W71078   5.156  23.939   4.235  0.2251  0.0871  0.2873
28063W        W71079  19.904  17.728   6.571 -0.1659 -0.1803 -0.1542
28064W        W71080  21.884   1.227  20.525  0.1132 -0.0221 -0.1402
28065W        W71081  31.546   3.900   5.764  0.1253  0.1403  0.1415
28066W        W71082  10.047  34.260   5.875 -0.0248 -0.3277  0.3636
28067W        W71083  20.617   4.090   7.557  0.1663 -0.1050 -0.0119
28068W        W71084  27.953   6.005   9.901  0.1614 -0.1952 -0.1951
28069W        W71085  11.173  24.180   2.400 -0.1767 -0.1897 -0.0792
28070W        W71086  27.886  25.060   0.048  0.1199  0.0348  0.0703
28071W        W71087  23.382  28.728   3.889 -0.0926  0.1955 -0.1023
28072W        W71088  29.658   4.437   1.865 -0.0457  0.0018  0.2932
28073W        W71089  18.981   6.552   4.281  0.2256 -0.0372  0.1172
28074W        W71090   3.159  32.846   8.896  0.0927 -0.0176 -0.1406
28075W        W71091  19.222  21.928  24.395 -0.2191 -0.2443  0.0472
28076W        W71092  12.852  34.606   3.916 -0.2774 -0.0830  0.1961
28077W        W71093  22.174   4.387  16.869 -0.0627 -0.2061 -0.0416
28078W        W71094  24.096  31.871   0.662 -0.1274  0.3701  0.3055
28079W        W71095  22.133  19.344   5.476  0.1344 -0.0219 -0.0411
28080W        W71096  23.543   3.319   6.280 -0.3374  0.3680  0.1178
28081W        W71097  29.691  32.826  10.495  0.0446 -0.1733 -0.0119
28082W        W71098  31.950   8.221  10.034  0.2565  0.0658 -0.0359
28083W        W71099  19.168  20.304   8.555 -0.0081 -0.1515  0.0008
28084W        W71100  12.113  27.886  24.388 -0.1040 -0.1253 -0.0143
28085W        W71101  29.722  22.668   5.923  0.0178 -0.0141 -0.0202
28086W        W71102  19.189  28.147  26.680 -0.0201 -0.2202  0.2064
28087W        W71103  19.918  24.626   9.070 -0.1014  0.3851 -0.0428
28088W        W71104  31.008  17.898   1.480  0.1408 -0.1194  0.1639
28089W        W71105  29.015   4.399   9.140 -0.2276  0.2036  0.0894
28090W        W71106  25.928  24.448   3.629 -0.0382 -0.1718 -0.0283
28091W        W71107   0.361  32.924   5.455  0.0542 -0.0679 -0.0238
28092W        W71108  13.440   0.251   6.630  0.1003  0.0478 -0.0750
28093W        W71109  22.229  25.563   7.619 -0.3190  0.0339 -0.0757
28094W        W71110  16.520   6.709  26.461  0.0272  0.1424 -0.0414
28095W        W71111  30.548  22.086  27.588  0.1788  0.2890 -0.0923
28096W        W71112   3.939  32.839   5.901 -0.4228 -0.0912  0.1444
28097W        W71113  24.847   8.409   6.877 -0.2612  0.0275  0.2308
28098W        W71114  15.166   4.865   5.537  0.1067 -0.3951  0.0032
28099W        W71115  17.648   1.549  28.368 -0.0430  0.2821  0.0023
28100W        W71116  17.167  32.587   7.926  0.1261 -0.0472  0.0617
28101W        W71117  25.174   1.399   9.445  0.3950 -0.0101  0.1835
28102W        W71118  32.031  23.728  25.294  0.1733  0.2375  0.0321
28103W        W71119   6.319   9.810   4.627  0.3596  0.0150  0.1804
28104W        W71120  20.526   8.467  12.899 -0.0141  0.0474  0.0062
28105W        W71121  22.313  18.123   6.814 -0.0083 -0.2371  0.1012
28106W        W71122  17.308  17.412   8.136 -0.1597  0.0193  0.0111
28107W        W71123  19.158  23.108  12.652 -0.2731  0.2337 -0.3500
28108W        W71124  25.220  31.707  28.748  0.1924  0.0237  0.3469
28109W        W71125  32.833  31.035  21.228 -0.5658  0.1348  0.1573
28110W        W71126  20.203   1.431   6.604  0.4199  0.2263 -0.1615
28111W        W71127  32.706   3.993  28.058  0.3266 -0.0750 -0.2210
28112W        W71128  20.246  18.312  21.753 -0.2590  0.2662 -0.0821
28113W        W71129  17.342  28.443  21.464  0.2552 -0.0531  0.1467
28114W        W71130  30.337  21.692  22.527  0.1708 -0.2244 -0.0941
28115W        W71131  34.235  24.915   9.064 -0.0240  0.1470  0.1083
28116W        W71132   7.590  11.587  19.108  0.2377  0.1600  0.3052
28117W        W71133  28.876  19.865  25.843 -0.0478 -0.1189 -0.1079
28118W        W71134   9.064  25.304  26.389 -0.1994  0.0369  0.4006
28119W        W71135  31.699  21.272  10.186 -0.2044 -0.0123 -0.3839
28120W        W71136  16.655   3.115   4.403 -0.0233 -0.0756 -0.1169
28121W        W71137   6.989   9.778   0.528 -0.2122 -0.1321 -0.0611
28122W        W71138  19.173  16.282  27.553 -0.2289  0.1049  0.1234
28123W        W71139  21.667  24.449   7.708  0.1154 -0.0044  0.2884
28124W        W71140   6.979  26.292  24.628 -0.0735 -0.2877  0.0052
28125W        W71141  18.965  15.881  17.135  0.1721  0.2641 -0.3124
28126W        W71142  21.831   2.027   3.695  0.0406 -0.2368 -0.0972
28127W        W71143  20.740  29.909  15.832  0.3476 -0.2459 -0.1042
28128W        W71144  24.871   4.760  23.474 -0.0147 -0.0014 -0.0062
28129W        W71145  26.372   9.768  27.354  0.1779 -0.0251  0.0339
28130W        W71146  23.955  28.814  21.193 -0.2655  0.3389 -0.0531
28131W        W71147  17.781   0.409  10.214 -0.2386 -0.0293 -0.0652
28132W        W71148  20.307  25.159   1.081  0.2252 -0.2674 -0.0752
28133W        W71149  29.606  34.202   2.283 -0.1291 -0.1886 -0.2047
28134W        W71150  15.999  32.066  15.272  0.1387 -0.1378  0.1817
28135W        W71151   8.158  28.323  19.300  0.0211 -0.1339 -0.0324
28136W        W71152  18.006  27.325   0.729  0.0386 -0.2019 -0.2259
28137W        W71153  16.635  13.054  22.223 -0.0188  0.0877  0.2896
28138W        W71154  33.214  27.319  17.042 -0.2260  0.1636  0.2267
28139W        W71155  26.714  10.129   7.502  0.2332 -0.1262 -0.1159
28140W        W71156  11.976   6.271   1.464  0.1267  0.1170 -0.1773
28141W        W71157  24.211  13.687   4.073  0.3092 -0.2179 -0.0648
28142W        W71158  16.287  26.214   5.134  0.1251 -0.1354 -0.2451
28143W        W71159   8.034  32.755   9.140 -0.2388  0.0075  0.1099
28144W        W71160  21.133   5.955   9.062 -0.0023 -0.1396 -0.4452
28145W        W71161  31.260  26.567   4.088  0.1394 -0.0208 -0.0221
28146W        W71162  18.760  21.622   5.672  0.1569 -0.0046  0.0331
28147W        W71163   4.861  22.193   2.373  0.1030  0.0395  0.1965
28148W        W71164  25.276  18.227   0.513  0.1276  0.2849 -0.0745
28149W        W71165  28.409  28.713   5.417  0.1470 -0.1274  0.2881
28150W        W71166  14.860  25.113   8.949  0.0646  0.1982  0.0876
28151W        W71167  32.670  34.451   3.170  0.0299 -0.1770 -0.1027
28152W        W71168  24.051  31.909  18.365 -0.0245  0.3119  0.2523
28153W        W71169  25.193   5.867   6.133 -0.0825  0.0363 -0.2607
28154W        W71170   3.244   4.286   1.174  0.3311  0.1549 -0.2797
28155W        W71171   7.668   1.803   1.995 -0.1785  0.2105  0.0309
28156W        W71172  16.951  29.967   1.693  0.1525 -0.2096  0.1081
28157W        W71173   4.010  26.074  28.629  0.2973  0.0209 -0.1541
28158W        W71174   5.551   5.679  21.631 -0.1246 -0.0917 -0.2085
28159W        W71175  18.163  29.403   4.204 -0.0388  0.0090  0.0447
28160W        W71176  19.406   9.639   2.071 -0.1025 -0.1479 -0.0068
28161W        W71177  33.751   3.111   6.653  0.1172  0.1531  0.1986
28162W        W71178  24.594  22.488  27.226  0.0082 -0.1827  0.0533
28163W        W71179   7.047   5.760   7.507 -0.2506  0.1252  0.4286
28164W        W71180  18.568  28.575   0.935  0.0792  0.0549 -0.2319
28165W        W71181  22.230  15.592   3.871  0.1884 -0.0195  0.1884
28166W        W71182  23.984   8.253  27.788 -0.2353 -0.0151  0.0550
28167W        W71183  33.097  21.930   0.232 -0.0371  0.1671 -0.1296
28168W        W71184  17.505   7.777  28.266 -0.0126 -0.1764 -0.1808
28169W        W71185  17.659  28.446  25.278 -0.0596  0.1534 -0.1436
28170W        W71186  14.567  12.917  22.197 -0.3198  0.0561  0.3730
28171W        W71187  32.046  28.061  11.031  0.0770  0.1573  0.1510
28172W        W71188  26.567   4.606   5.396  0.1135 -0.1036 -0.3126
28173W        W71189  11.213  13.103   6.423 -0.1211 -0.0428  0.2900
28174W        W71190  22.216  17.718   3.563  0.1209 -0.0843 -0.0182
28175W        W71191  29.538  34.326  28.871  0.0077  0.2975  0.0223
28176W        W71192  10.705  20.962  25.394 -0.1884 -0.3369 -0.4228
28177W        W71193  23.793  26.137   3.063 -0.2262 -0.2288  0.0369
28178W        W71194  17.974  32.718   3.959  0.2219 -0.0313 -0.1588
28179W        W71195  27.659   8.274  26.514  0.0143  0.1418  0.0403
28180W        W71196   0.100  12.736   2.890  0.0320 -0.2379 -0.0295
28181W        W71197  17.530   4.769  27.471 -0.4594  0.2251  0.4215
28182W        W71198  20.452  33.716   7.196  0.1358 -0.0391 -0.2391
28183W        W71199  15.865   1.413   0.077  0.1476 -0.1432 -0.0068
28184W        W71200  21.622   2.801   8.734 -0.0470  0.0951 -0.0983
28185W        W71201  22.718  15.783  22.356 -0.0391  0.0601  0.1661
28186W        W71202  19.132   1.022  18.285 -0.1300 -0.1049  0.3359
28187W        W71203   2.374   7.036   6.616 -0.1411  0.0194  0.2363
28188W        W71204  17.764  26.822  10.476  0.0413  0.0225 -0.0223
28189W        W71205  12.435   3.159  29.157 -0.0669 -0.0132 -0.0724
28190W        W71206  29.429   1.142  11.470  0.0567  0.2162  0.1415
28191W        W71207  32.615   9.862   9.874  0.0825 -0.1044 -0.0673
28192W        W71208  22.940  15.418   8.829  0.0357  0.0620  0.1990
28193W        W71209  19.419   4.916  23.865 -0.2162 -0.0991 -0.0019
28194W        W71210  19.288  31.880   5.651 -0.0843  0.0075 -0.2135
28195W        W71211  15.246  34.536   6.954  0.1167 -0.3663 -0.2866
28196W        W71212  15.614   0.738  18.281 -0.2425 -0.2221 -0.0108
28197W        W71213   9.178  17.045   4.807  0.1127  0.1711 -0.2269
28198W        W71214  22.918  27.755   8.799  0.0056 -0.1307 -0.0123
28199W        W71215  31.257  21.042  25.872  0.1163  0.2116  0.1320
28200W        W71216  33.302   6.390  16.278  0.4727  0.1674 -0.2580
28201W        W71217  33.982  21.605   3.222  0.1020  0.3098  0.1033
28202W        W71218  24.712  31.598  16.909 -0.4065 -0.0480  0.2134
28203W        W71219  31.087  24.904  15.898 -0.1097 -0.0956 -0.0216
28204W        W71220  16.096  31.948  23.846  0.2011  0.0336 -0.0446
28205W        W71221  16.726   0.089  15.621  0.2325 -0.0718 -0.2686
28206W        W71222   2.805  11.309   6.586  0.0162  0.0404 -0.2067
28207W        W71223  29.139  32.851  21.504  0.2606  0.1221 -0.0825
28208W        W71224  14.516   6.081   8.669 -0.0629  0.0521  0.0813
28209W        W71225  30.856  28.940   1.094  0.1556  0.0510  0.1957
28210W        W71226  14.981  34.234   3.196  0.1108  0.0419  0.6548
28211W        W71227   0.234   1.484  27.960 -0.0920  0.2051 -0.1689
28212W        W71228  33.102   2.544   3.216  0.1148 -0.0250 -0.0528
28213W        W71229   0.419  20.493   8.718 -0.3875  0.2311  0.0289
28214W        W71230  15.399   3.071  15.170 -0.1036  0.2743 -0.0554
28215W        W71231   3.665  15.738   4.742  0.1877 -0.0768 -0.1945
28216W        W71232  28.411  23.314   0.192  0.0651  0.1111 -0.1231
28217W        W71233  28.228  10.028  16.216 -0.2852  0.0641 -0.0099
28218W        W71234  33.348  29.430   3.764  0.0518  0.0243  0.2944
28219W        W71235  18.933   0.278   0.712  0.1279 -0.2376  0.0328
28220W        W71236  10.036  22.561  24.298 -0.1058 -0.0923  0.1484
28221W        W71237  26.142  28.274  26.890 -0.0211  0.2416  0.0383
28222W        W71238  21.709  31.462   4.278  0.3519  0.2071 -0.3647
28223W        W71239  19.758  25.196  10.164  0.0668 -0.1363 -0.0959
28224W        W71240  18.157  27.560   9.136  0.0892  0.1888 -0.1653
28225W        W71241  27.627  11.701  27.801 -0.1740  0.0070 -0.1962
28226W        W71242   1.156  18.285  28.962  0.2644  0.1027 -0.2330
28227W        W71243  15.071  24.692   0.076  0.2913  0.4191 -0.1329
28228W        W71244  28.983  19.236   7.207  0.2985 -0.0446  0.0279
28229W        W71245  26.198  26.249  28.792 -0.0695 -0.1339 -0.0694
28230W        W71246  32.758  22.720   0.065  0.3330 -0.0422  0.1446
28231W        W71247  22.873  33.893  15.547  0.1573  0.1428  0.1046
28232W        W71248   1.506  31.765   1.771 -0.0493  0.0787 -0.1168
28233W        W71249  15.829  18.666   1.188 -0.0676  0.1934  0.2423
28234W        W71250  13.546  23.481  27.898 -0.0581  0.3462  0.0227
28235W        W71251  19.871   9.108   6.375  0.0736 -0.2248  0.1758
28236W        W71252   9.461  24.435  20.392  0.0257 -0.0218  0.0189
28237W        W71253  19.678   6.239   8.779 -0.4672  0.0401  0.4021
28238W        W71254  23.295  30.894   9.373  0.0711  0.0610 -0.1910
28239W        W71255  21.694   7.822   5.739  0.0587  0.0150  0.3680
28240W        W71256  22.178   0.738   7.711  0.2007 -0.2248  0.0720
28241W        W71257  24.996  31.753   7.632 -0.0132  0.0160  0.1313
28242W        W71258  18.262  30.980  23.548  0.0377  0.0354  0.0192
28243W        W71259   8.792  32.742   7.744  0.4061  0.0494  0.0846
28244W        W71260  20.309   5.218   2.507 -0.1149 -0.0767 -0.0541
28245W        W71261  34.349   9.697   3.112  0.1707 -0.1042 -0.0785
28246W        W71262  13.975   0.843   6.869 -0.2545  0.4122  0.3214
28247W        W71263  23.620  19.404   4.633  0.1806 -0.2608  0.0516
28248W        W71264  33.107   3.471   0.941  0.0682  0.1746 -0.3077
28249W        W71265  14.440  25.337  27.013 -0.0699 -0.3334 -0.0108
28250W        W71266  25.439   2.842  20.043 -0.2167 -0.0328 -0.0116
28251W        W71267  13.776   8.410  28.431  0.3505 -0.0427 -0.5432
28252W        W71268  23.878  11.203   9.030  0.1024 -0.0072  0.4370
28253W        W71269  11.572  27.050  25.287 -0.0538 -0.1150 -0.1581
28254W        W71270  20.099  24.865  22.904  0.3234 -0.0950 -0.1379
28255W        W71271  12.293  21.384  17.419  0.1547  0.0855 -0.2035
28256W        W71272  22.930  26.111   3.504  0.1552 -0.0489 -0.0844
28257W        W71273   7.349  13.946   6.259  0.0420  0.0944  0.0710
28258W        W71274  25.495   3.244  17.552  0.0621  0.0475 -0.1024
28259W        W71275  24.460  10.993   0.434  0.0137 -0.0185  0.0057
28260W        W71276  31.057  19.919   3.456  0.0259  0.1448  0.0525
28261W        W71277  28.895  18.531   4.832  0.1881 -0.0063  0.1208
28262W        W71278  17.804   1.782   3.835 -0.2757 -0.1163  0.1827
28263W        W71279  15.762  30.437   1.848  0.2669  0.1148  0.1758
28264W        W71280  12.660   9.157   2.134 -0.0890  0.0490 -0.0166
28265W        W71281   4.620   0.123   4.697 -0.1238  0.0188  0.1969
28266W        W71282  26.817  33.545   8.846  0.0815 -0.1367  0.1864
28267W        W71283  19.633  30.180  16.501 -0.0744 -0.1231 -0.0538
28268W        W71284  26.623  28.045   4.960 -0.1447  0.1354 -0.2396
28269W        W71285  10.343   0.984  28.814 -0.0847 -0.0595 -0.1121
28270W        W71286  13.308   9.139   1.129 -0.1102  0.0960 -0.0862
28271W        W71287  22.819   3.199   2.284  0.1476  0.0006  0.3183
28272W        W71288  13.679  31.862   0.948  0.0604 -0.0709  0.0543
28273W        W71289  29.348  23.122  28.658  0.3623 -0.1190 -0.1987
28274W        W71290  14.393   0.147   9.245  0.0711  0.1796  0.1815
28275W        W71291   3.692  30.699  24.527 -0.0348 -0.3055 -0.1041
28276W        W71292  25.953   9.175  27.754  0.1373  0.0157 -0.1163
28277W        W71293  18.989  33.335   9.589  0.0492  0.1278  0.0141
28278W        W71294  26.912  33.972   1.150 -0.2224  0.0746  0.0044
28279W        W71295  20.191  33.898  15.760 -0.1363 -0.3822  0.1680
28280W        W71296   1.092  25.034   8.035  0.0820  0.2425  0.0435
28281W        W71297  20.801  19.754   5.577 -0.0350 -0.0814 -0.0191
28282W        W71298  32.768   6.559  22.313  0.1464 -0.0774  0.2663
28283W        W71299  21.789   5.484   6.645 -0.0168  0.0567  0.1696
28284W        W71300   0.882  28.488   0.160  0.3254 -0.0479 -0.1843
28285W        W71301  10.735  11.378   5.057 -0.0797 -0.2324 -0.0257
28286W        W71302  17.338   5.234  25.619 -0.0216  0.2923  0.1695
28287W        W71303  25.001   8.335   2.444 -0.2721 -0.2340 -0.0603
28288W        W71304  32.056  19.058   7.917  0.3662  0.1400  0.3014
28289W        W71305  29.134  30.514  10.877 -0.3936  0.2941 -0.3024
28290W        W71306  10.895  23.099  16.580  0.0128 -0.2139  0.1573
28291W        W71307   4.564  31.239   6.249  0.1537  0.3224 -0.0532
28292W        W71308  25.604  32.095  21.085  0.0729 -0.0781  0.0279
28293W        W71309  31.841  30.316   2.868  0.1062 -0.0715 -0.2278
28294W        W71310  29.590   1.713   9.561 -0.1428 -0.0635 -0.2881
28295W        W71311   4.795  31.528  24.694 -0.0110 -0.2552 -0.0702
28296W        W71312  28.921  32.503   5.338 -0.0034  0.3064  0.4625
28297W        W71313  30.618   8.881   5.389 -0.1202  0.0625  0.0099
28298W        W71314  22.996   5.614   0.348  0.3918  0.1504 -0.0397
28299W        W71315  10.935   1.330   8.493 -0.1008  0.0551 -0.1215
28300W        W71316  22.430   6.468   2.710 -0.0611 -0.1760  0.0796
28301W        W71317  13.173   3.289   2.322 -0.0427  0.1909  0.0326
28302W        W71318  26.647  25.645   6.356 -0.2314 -0.0605 -0.1534
28303W        W71319  24.579  30.884   2.281  0.1688  0.0569  0.1565
28304W        W71320  25.776  28.255  26.289 -0.1068 -0.1480  0.2228
28305W        W71321   5.499  29.747   6.973  0.2052  0.1124 -0.0658
28306W        W71322  11.035   7.482  14.333  0.3060 -0.1045 -0.0447
28307W        W71323  21.634  20.471  24.112 -0.2883  0.0374 -0.2581
28308W        W71324  29.195  33.718   8.520  0.1196 -0.2655  0.0346
28309W        W71325   0.344  20.361   0.878  0.2014 -0.4078  0.0026
28310W        W71326  34.416  13.726   8.115 -0.1986  0.0286  0.2142
28311W        W71327  18.490  29.074   0.920  0.5128  0.0587  0.2156
28312W        W71328  28.812  11.034  28.967 -0.0389  0.2240  0.1267
28313W        W71329  10.048  27.838  19.754  0.0601  0.0606  0.2148
28314W        W71330  22.058  13.643  22.734 -0.0367 -0.2697  0.0048
28315W        W71331  15.346   2.211   8.154  0.2481  0.0383  0.1956
28316W        W71332  27.123  16.661   1.407 -0.0705 -0.1876 -0.1534
28317W        W71333  34.233  30.812   8.180 -0.3465 -0.0221 -0.0510
28318W        W71334  28.452  14.507  26.495  0.3757 -0.0971  0.1176
28319W        W71335  16.414  21.295   5.998 -0.1506 -0.2324  0.4138
28320W        W71336  29.818  23.978   9.435 -0.0861 -0.0515  0.1813
28321W        W71337  25.277  19.339   6.046 -0.0881 -0.3866 -0.1549
28322W        W71338   8.922  33.840  11.023  0.1816 -0.2634 -0.0369
28323W        W71339  18.854   4.097  22.523  0.0792  0.0908 -0.1369
28324W        W71340  19.843  34.144  24.439  0.2700 -0.3444  0.1911
28325W        W71341  21.402  25.050  23.848  0.0566  0.2966 -0.2600
28326W        W71342  11.148  11.778   4.196 -0.1732  0.0564 -0.1751
28327W        W71343  24.002  33.696  26.609 -0.1083 -0.2855  0.2463
28328W        W71344  15.849   0.375   6.513  0.0112 -0.2435  0.0280
28329W        W71345   9.686  17.244   8.502  0.1753  0.1157  0.3311
28330W        W71346  33.569  34.495  27.327 -0.1104  0.0643  0.1695
28331W        W71347  26.197  33.037   7.849  0.0523  0.2457  0.0677
28332W        W71348  26.185   6.631  24.761 -0.1867  0.2245 -0.1529
28333W        W71349   6.305   4.638  20.372  0.2589  0.0455  0.1844
28334W        W71350  27.114   2.809   9.273  0.2203 -0.2095  0.2686
28335W        W71351  27.810  34.062   2.312  0.0687  0.0250 -0.1829
28336W        W71352  28.268  24.633  20.662  0.0366 -0.1541  0.2295
28337W        W71353  19.611  28.419  10.051 -0.4730 -0.0797 -0.1149
28338W        W71354  23.549  34.236   1.263 -0.3198  0.2477 -0.0497
28339W        W71355  28.717  27.552  18.658  0.0618  0.0444  0.0467
28340W        W71356  28.783  24.078   7.028  0.4124  0.2792 -0.4645
28341W        W71357  28.890  27.940  28.264  0.0941 -0.1265 -0.1811
28342W        W71358  29.595  14.445   8.483  0.2682  0.0423 -0.1789
28343W        W71359  24.932  18.490  21.437 -0.1229 -0.0063  0.2193
28344W        W71360  17.192  28.696   4.687 -0.0272 -0.0940  0.2658
28345W        W71361  24.330  23.785  25.338  0.1732 -0.1258  0.1919
28346W        W71362  27.051  18.315   4.062 -0.1700  0.4857 -0.1784
28347W        W71363  31.308   0.102   7.633  0.0199  0.1048 -0.1224
28348W        W71364  31.048  33.392  10.402  0.0085 -0.0195  0.2636
28349W        W71365  26.525  28.702  20.390  0.1293 -0.1475 -0.0358
28350W        W71366  20.410   9.449   3.558 -0.1875  0.1262 -0.1985
28351W        W71367   6.567  33.275   6.922  0.1584 -0.0854 -0.1738
28352W        W71368  22.546   8.633  18.376 -0.1846  0.0250 -0.2647
28353W        W71369  12.600  30.514  27.450 -0.0369  0.1306  0.2725
28354W        W71370  33.123  28.079  22.577 -0.2870 -0.0250  0.1685
28355W        W71371  10.924   0.318  26.029  0.0599 -0.0318  0.0064
28356W        W71372  15.172  22.301  26.302  0.0530 -0.0546 -0.1398
28357W        W71373  32.801  10.865   5.933 -0.1264 -0.1662  0.0176
28358W        W71374  19.373  31.148   3.394 -0.0793  0.2689 -0.2009
28359W        W71375   1.014  22.504   7.610  0.0014 -0.3089 -0.2034
28360W        W71376  25.157  32.365  27.067 -0.1449  0.0192 -0.3847
28361W        W71377  28.815  27.884  20.948 -0.0730 -0.2998 -0.2698
28362W        W71378  20.090   2.601   8.520  0.0628 -0.0106 -0.1270
28363W        W71379  25.524  25.244  24.038  0.0788 -0.0534 -0.1506
28364W        W71380  13.448  30.071   1.098 -0.1236 -0.1474 -0.1029
28365W        W71381  23.702  23.752   5.559  0.1093 -0.2145 -0.1520
28366W        W71382   8.943  22.174   4.397 -0.3746 -0.0128  0.2006
28367W        W71383   6.863  29.731   0.601 -0.1800 -0.0189  0.1982
28368W        W71384  29.664  15.818   9.158 -0.1744 -0.2475 -0.1412
28369W        W71385  26.325  14.708  23.185  0.0635 -0.1733  0.0866
28370W        W71386  29.447  31.696  10.634 -0.1368  0.1746  0.2311
28371W        W71387  27.892   9.066  26.040 -0.0458 -0.0772 -0.1844
28372W        W71388   6.801   9.894   4.543  0.1235 -0.3227 -0.0613
28373W        W71389  23.599  22.482  27.049 -0.1534  0.0235  0.2204
28374W        W71390   0.964  32.172   9.307 -0.0145 -0.0263 -0.2647
28375W        W71391   2.987   2.689   1.501  0.0509  0.0708 -0.2366
28376W        W71392  26.721  31.189   4.240 -0.0096  0.0754 -0.4193
28377W        W71393  33.981  16.856   8.051  0.3254  0.1505  0.0048
28378W        W71394  23.997   5.463   6.592 -0.3390  0.2197 -0.1426
28379W        W71395  28.900   5.447   0.283  0.1263 -0.1700 -0.0517
28380W        W71396  29.667  10.317   9.904  0.0642  0.4132  0.3329
28381W        W71397  27.565  22.448   1.943 -0.4209  0.2239  0.1950
28382W        W71398  21.087  31.204  11.001 -0.0909 -0.0962 -0.0844
28383W        W71399  24.675  22.346   9.705  0.4783 -0.1220  0.2215
28384W        W71400  17.621  14.756   3.408 -0.0262 -0.1670  0.0660
28385W        W71401  25.713  32.889  10.026 -0.1665  0.1419  0.0426
28386W        W71402  13.840   7.894   3.516 -0.2704 -0.1873  0.0359
28387W        W71403  26.420  20.568   5.191 -0.1630  0.1496 -0.0344
28388W        W71404  10.039  31.093   4.345 -0.0206 -0.0733 -0.2714
28389W        W71405   6.920  30.472   6.585 -0.3029  0.0897 -0.2582
28390W        W71406  15.837  33.368   2.575 -0.0095 -0.1061 -0.1591
28391W        W71407  10.158   8.247   6.792  0.0166  0.1810 -0.0611
28392W        W71408  14.844  29.728   7.675 -0.1379 -0.0198 -0.1444
28393W        W71409   8.529  13.270   8.224 -0.4490 -0.1080  0.2037
28394W        W71410  12.394  15.264   1.592 -0.4482  0.0712 -0.2877
28395W        W71411   0.398  32.672   6.364  0.0335 -0.0162  0.1680
28396W        W71412  24.806  16.722   4.735 -0.3627 -0.0554 -0.3780
28397W        W71413  16.848   4.912  24.732  0.4770 -0.3175  0.0698
28398W        W71414  24.207  28.788   1.297  0.0947  0.0897  0.2926
28399W        W71415  30.784  27.591  22.223 -0.1962  0.5891 -0.1405
28400W        W71416  25.937   0.364  10.782 -0.0256 -0.1424  0.0800
28401W        W71417  32.809   7.516   9.175 -0.0094  0.2236 -0.1218
28402W        W71418  28.437   8.664  10.061 -0.1236  0.1798  0.0551
28403W        W71419  18.578  29.986   7.568  0.1927 -0.3222 -0.4576
28404W        W71420  14.073  26.967   0.920 -0.2754 -0.0538 -0.3337
28405W        W71421   7.333   0.557  25.799  0.0686  0.1266 -0.0459
28406W        W71422  34.235  33.402   3.459  0.2716 -0.2715 -0.0894
28407W        W71423  19.522  14.268   6.857  0.0318 -0.2893 -0.2369
28408W        W71424   6.592  34.284   7.870  0.1329  0.0950 -0.0487
28409W        W71425   6.635  30.755   0.798 -0.0640  0.1547 -0.2210
28410W        W71426  21.944  14.712   6.537 -0.1084 -0.1552  0.0270
28411W        W71427  15.775  13.182   1.504  0.0060  0.1010 -0.1355
28412W        W71428   8.212   4.916   5.782 -0.1069 -0.0483  0.0108
28413W        W71429  29.123  33.970   3.310 -0.0390  0.0745  0.0939
28414W        W71430  30.937  27.533  25.299  0.0565 -0.1896 -0.0874
28415W        W71431   1.140   5.565  27.326  0.2773  0.1582  0.1324
28416W        W71432  26.576  24.667   5.539 -0.1440  0.0126  0.2427
28417W        W71433   1.995  29.430   9.135  0.1748  0.1978 -0.1022
28418W        W71434  24.557  31.770   9.846 -0.0242  0.0978 -0.0166
28419W        W71435  28.771  10.835  10.414  0.4682 -0.0143  0.1374
28420W        W71436  28.974  31.418  23.119 -0.1470  0.0608  0.0765
28421W        W71437  27.499   2.458  10.195 -0.0464 -0.0288  0.0227
28422W        W71438  28.537  29.444  11.646 -0.0907 -0.0549 -0.2491
28423W        W71439  26.683   3.752   4.080 -0.0166 -0.1220 -0.1968
28424W        W71440  28.300   4.132   3.696  0.0257 -0.1223  0.0299
28425W        W71441  23.548   5.550   5.674 -0.0923 -0.2291  0.2600
28426W        W71442  14.702  22.919  15.930 -0.1204 -0.4365  0.2597
28427W        W71443  30.143  23.695   8.611  0.0388 -0.0722 -0.1255
28428W        W71444  33.111  26.548  21.576  0.0399 -0.2350 -0.1195
28429W        W71445  33.627  25.855   5.403  0.1220  0.0141  0.1231
28430W        W71446  16.344  29.318   2.660 -0.3852  0.0466 -0.0775
28431W        W71447  13.426  32.269   0.324 -0.0038 -0.2342  0.1511
28432W        W71448  19.311  20.110   7.308 -0.3185 -0.3153 -0.1322
28433W        W71449   8.517   5.449   8.184 -0.0885  0.2105  0.0796
28434W        W71450  10.682  21.890   4.571 -0.0244 -0.0798 -0.1283
28435W        W71451  15.332  32.212   8.104 -0.1298  0.0635 -0.0646
28436W        W71452  27.262   4.724   6.340 -0.1394 -0.0857 -0.1480
28437W        W71453  27.242  31.155   8.026  0.1850  0.0625  0.0438
28438W        W71454  22.672  12.962  19.001 -0.0698 -0.2746 -0.2367
28439W        W71455   1.111  19.126   9.235 -0.0999  0.0916 -0.0900
28440W        W71456   0.172   4.531   3.757 -0.0951 -0.0880  0.0758
28441W        W71457  34.417   1.139   1.380  0.1270 -0.1975  0.1914
28442W        W71458  30.304   2.262   7.794 -0.4481  0.0282  0.1837
28443W        W71459   0.310  32.875   9.340 -0.0284 -0.1581 -0.3063
28444W        W71460  26.890  19.618  20.064 -0.0247 -0.1694  0.0966
28445W        W71461  23.838  17.088   4.478 -0.0475  0.0786 -0.2099
28446W        W71462  19.017   0.631  28.336  0.4334  0.0788 -0.0594
28447W        W71463   9.229   4.941   7.854  0.2081  0.0909  0.0020
28448W        W71464  30.739  27.532   3.664  0.1515 -0.3843  0.0117
28449W        W71465  17.702   1.044  24.105 -0.0721  0.0307  0.0272
28450W        W71466  24.796  24.679   3.475  0.0178  0.0484 -0.3973
28451W        W71467  17.124   3.382  27.372  0.2087  0.0158 -0.0120
28452W        W71468  16.809  18.489  16.361 -0.1123 -0.3056 -0.2909
28453W        W71469  22.736  12.095   0.071  0.2107  0.0704  0.0775
28454W        W71470  19.479  33.088  23.521 -0.0663  0.1001  0.1068
28455W        W71471  17.850  25.258   7.956 -0.1417  0.1476 -0.2068
28456W        W71472  21.916  22.375  27.071 -0.3181 -0.0631 -0.1086
28457W        W71473  29.444  18.437   8.186 -0.0518  0.1764 -0.3326
28458W        W71474  16.405  27.255  19.019 -0.1181 -0.1143 -0.1034
28459W        W71475  19.389  27.531   8.401 -0.2659  0.1769 -0.2356
28460W        W71476  18.023  14.579  28.020 -0.1349 -0.3934  0.1787
28461W        W71477  29.087  32.554  16.828 -0.3570 -0.2026 -0.2133
28462W        W71478  18.949  22.089   3.119  0.4187  0.1370 -0.0382
28463W        W71479  27.668  32.267   2.454 -0.0413  0.0552 -0.4249
28464W        W71480  17.011   7.396   9.865 -0.2493 -0.0490 -0.1254
28465W        W71481  25.195  24.284   4.273  0.0272  0.1975  0.2773
28466W        W71482   8.758  10.520  20.553  0.2526  0.1657 -0.1532
28467W        W71483  23.429   7.102  24.301 -0.0999 -0.0770  0.0450
28468W        W71484  15.098   6.044   6.020  0.1748 -0.1485 -0.1571
28469W        W71485  16.621   2.568  27.180 -0.0741 -0.1092 -0.2092
28470W        W71486  18.373   9.302  24.229 -0.2698 -0.0922  0.3190
28471W        W71487  10.492   4.379   0.909  0.2019  0.1123 -0.1290
28472W        W71488  31.721   1.421   0.398 -0.0608  0.2506 -0.1166
28473W        W71489  16.312   5.685  24.795 -0.1125 -0.3937  0.1123
28474W        W71490  22.127  22.564  26.175  0.0734  0.0519 -0.0089
28475W        W71491  23.040  25.946   8.378  0.4673 -0.3747  0.1131
28476W        W71492  25.503  31.323  10.052  0.1367 -0.1209  0.0462
28477W        W71493  14.176   0.364  26.546 -0.1672  0.0721  0.2998
28478W        W71494   0.343  29.929   7.184  0.2776  0.0537  0.1109
28479W        W71495   5.860  33.438  27.849 -0.0010 -0.0320  0.0797
28480W        W71496   2.808   7.634   6.291 -0.1840  0.0862  0.3411
28481W        W71497  15.375   9.812   5.688 -0.1853  0.0094 -0.1485
28482W        W71498  31.751   9.970  28.807  0.1622  0.3266 -0.0994
28483W        W71499  20.163   0.020  14.652  0.2119 -0.3053  0.0864
28484W        W71500  13.852  22.104   1.997 -0.1831 -0.3454  0.3449
28485W        W71501  24.561  13.262   5.393  0.0281  0.0826 -0.0415
28486W        W71502  11.886  27.520   1.245 -0.2827 -0.3024 -0.2616
28487W        W71503   1.757  33.887  25.243  0.1926  0.2040  0.0871
28488W        W71504  29.442  32.459   3.400 -0.0218 -0.0584 -0.0158
28489W        W71505  19.740   1.366   8.295 -0.0095 -0.1877  0.0648
28490W        W71506  24.187  16.831   0.695 -0.1570  0.0116 -0.2326
28491W        W71507   1.491  16.493  28.562  0.1214 -0.2132  0.1158
28492W        W71508  27.857  16.064  10.122  0.0467  0.0150  0.1779
28493W        W71509   6.785  29.499   5.603  0.3467  0.1190 -0.1896
28494W        W71510  27.406  29.513  21.898  0.1481  0.0154  0.1094
28495W        W71511  19.322  23.041   0.921  0.1321 -0.1344 -0.4908
28496W        W71512   2.460  10.862  20.197  0.0618 -0.0053 -0.1432
28497W        W71513   5.078  27.233   8.008 -0.1429  0.0857 -0.0769
28498W        W71514  20.636   2.899   7.552 -0.1022  0.0763  0.4324
28499W        W71515  29.160   8.524   3.628 -0.1915  0.4922  0.1286
28500W        W71516  27.261   1.640   4.194  0.1037  0.0860  0.0475
28501W        W71517  23.864  23.339   2.436 -0.0248  0.0556 -0.1853
28502W        W71518  19.154  21.224   3.941 -0.3448  0.0124 -0.3400
28503W        W71519  22.751  16.949   9.612 -0.2391 -0.0802 -0.0155
28504W        W71520  14.829   0.246   1.478  0.0820 -0.1496  0.0645
28505W        W71521  26.604  12.079   5.332  0.2078 -0.1152  0.1428
28506W        W71522   9.848   1.781   7.484 -0.1753 -0.0821 -0.2451
28507W        W71523  29.605  11.288   6.356 -0.0307  0.1600 -0.0137
28508W        W71524  13.006  31.686   9.202  0.3005 -0.0751 -0.0450
28509W        W71525  31.862  12.738   4.189 -0.1873  0.0709 -0.1865
28510W        W71526  13.851  23.503  29.192 -0.0998  0.2923  0.1238
28511W        W71527  32.424  30.619   8.067  0.3523 -0.2128  0.1593
28512W        W71528   5.149  31.323   9.527 -0.2149 -0.0616  0.2072
28513W        W71529  25.189   2.909  10.831 -0.2568 -0.1348 -0.3733
28514W        W71530  15.140  32.978  10.326  0.2150  0.0130 -0.2192
28515W        W71531   6.583   3.593  25.649 -0.2011  0.0850 -0.2331
28516W        W71532   3.659  26.769  22.410  0.2497 -0.0068  0.0034
28517W        W71533   6.862   2.842  18.806  0.0140 -0.3836  0.0310
28518W        W71534   6.622  19.349   7.503  0.0192 -0.1850 -0.0803
28519W        W71535  21.638  24.711   3.459 -0.0034 -0.0451  0.2970
28520W        W71536  27.799   9.505   8.863  0.2123  0.0259  0.2061
28521W        W71537  26.339  33.322   8.818  0.1140 -0.3050 -0.2929
28522W        W71538  23.119  32.789   5.869 -0.4381 -0.0303 -0.1298
28523W        W71539  20.209  12.626   6.388  0.0908 -0.1549 -0.1183
28524W        W71540   8.387   7.684   5.800  0.5145  0.1437  0.2890
28525W        W71541   6.904   6.449   8.712 -0.1166 -0.0294 -0.0177
28526W        W71542  17.107  26.853   6.227 -0.2239 -0.3141 -0.0078
28527W        W71543  19.076   3.682   8.975  0.1608 -0.0057  0.1321
28528W        W71544   5.237   0.177  10.385 -0.0744 -0.2666 -0.1041
28529W        W71545  30.876   2.633   0.195  0.0067  0.2545  0.1316
28530W        W71546  31.305  16.276   3.366 -0.0397 -0.0570  0.0655
28531W        W71547   0.414  33.284  23.478  0.0324  0.0965 -0.0594
28532W        W71548  28.463   0.128  11.178  0.1558  0.2730  0.3379
28533W        W71549  15.096  34.013   1.969 -0.1492  0.3597  0.3177
28534W        W71550  29.145  17.222   8.940 -0.1976 -0.2158  0.0705
28535W        W71551  24.396  26.284  27.079 -0.0150  0.1135  0.1784
28536W        W71552  27.337  33.787   3.840  0.0219  0.1258 -0.1381
28537W        W71553  15.633   5.184   8.010  0.3138 -0.2140 -0.2870
28538W        W71554   4.273   8.763   5.244  0.2604 -0.0352  0.0739
28539W        W71555  18.788  34.311   5.295 -0.1298  0.1958 -0.1138
28540W        W71556  33.307  31.710  19.406 -0.3610  0.1119  0.0755
28541W        W71557  32.023  10.079   9.484 -0.1059  0.0242  0.0094
28542W        W71558  27.368  23.247  24.737 -0.0041  0.3368 -0.0875
28543W        W71559  28.606  25.558  22.332  0.0050  0.2316  0.0629
28544W        W71560  13.839  11.636   3.321  0.0084  0.3635 -0.2907
28545W        W71561   8.626   4.065  17.652  0.1738  0.1271  0.2382
28546W        W71562  15.123  33.867   5.792 -0.0624  0.0717 -0.0926
28547W        W71563   2.857  25.939   6.204 -0.0803 -0.2737  0.1183
28548W        W71564  26.221  21.414   2.119  0.0759 -0.0156 -0.2863
28549W        W71565  14.205  12.326   2.390  0.0841 -0.0727  0.0344
28550W        W71566  13.715   7.385  28.317 -0.3990  0.2446 -0.1224
28551W        W71567  30.654  29.938   0.731  0.2616 -0.2574  0.2796
28552W        W71568  21.816   1.703   0.616 -0.2270  0.0055  0.2912
28553W        W71569   7.773  28.012   2.335  0.1498  0.2269 -0.3617
28554W        W71570  21.786  27.844   4.949 -0.3783  0.0610 -0.2694
28555W        W71571  28.343  11.024   2.132  0.0803  0.2082 -0.0687
28556W        W71572  27.236   1.739   8.734  0.0145  0.2607 -0.1022
28557W        W71573  34.140   5.608   3.551 -0.0749 -0.1577  0.2733
28558W        W71574   8.974  20.332   3.557  0.0663 -0.2958 -0.1266
28559W        W71575  16.816  17.882  23.099  0.2653 -0.0787 -0.2483
28560W        W71576  19.742   5.331  22.149 -0.3461  0.1467  0.0738
28561W        W71577   8.720  28.484   7.218 -0.0358  0.3988  0.1314
28562W        W71578  18.680   6.739   5.509 -0.1854 -0.1331 -0.1376
28563W        W71579  14.980  33.100   3.630 -0.0098 -0.3741 -0.2308
28564W        W71580  15.694  28.637   8.680 -0.2454  0.1896 -0.0797
28565W        W71581  18.515  34.032  29.144  0.2774  0.2244  0.0555
28566W        W71582  20.417  33.010   1.122  0.2532 -0.0183  0.2867
28567W        W71583  25.571  32.675   2.853  0.3731  0.1886  0.5735
28568W        W71584  10.808  21.901   5.164  0.2658  0.2999 -0.1002
28569W        W71585  12.468   5.257   1.921 -0.1986  0.4468 -0.0871
28570W        W71586  17.695  25.683  25.038 -0.2499 -0.0032 -0.1849
28571W        W71587   8.383  11.862  27.305  0.2635 -0.0352 -0.1969
28572W        W71588  27.956  27.894   2.465 -0.1638  0.1326  0.1515
28573W        W71589  27.612  27.165  21.248  0.1481  0.0507  0.2642
28574W        W71590  17.241   6.948   3.843 -0.0430 -0.0282 -0.1040
28575W        W71591  12.383  10.808  25.820 -0.0396  0.0779 -0.1419
28576W        W71592  33.963  16.562   9.069 -0.0137 -0.0574 -0.0501
28577W        W71593  18.625  26.250   4.659 -0.2616 -0.1167  0.2132
28578W        W71594  15.878   3.449  26.875 -0.2334  0.1075 -0.0831
28579W        W71595  17.491   5.734  15.979  0.2247  0.1013  0.0751
28580W        W71596  20.963   0.930   7.776  0.3272  0.0017  0.1778
28581W        W71597  10.538  17.285  22.408 -0.0451  0.1294  0.1658
28582W        W71598  21.651  24.777   4.083 -0.0926 -0.3236  0.1864
28583W        W71599  30.729  30.451   4.717 -0.1735 -0.0354  0.1670
28584W        W71600  16.576   1.946  25.536  0.2066 -0.0636  0.3421
28585W        W71601  30.629  24.620  22.995  0.2261 -0.2656  0.2006
28586W        W71602  26.043  29.078  22.776 -0.0843  0.2534 -0.0602
28587W        W71603  21.831   5.959   0.700  0.3598  0.1019 -0.0115
28588W        W71604   9.523   4.732  21.360 -0.2116 -0.0446 -0.0597
28589W        W71605  34.396  32.631  25.126  0.1590  0.0047 -0.1661
28590W        W71606  26.087  23.708   5.623  0.0255  0.2555  0.1925
28591W        W71607  20.231  26.630   5.921 -0.3248  0.1215 -0.3735
28592W        W71608  16.589  33.545   7.888  0.1237 -0.0991  0.2890
28593W        W71609  16.874  19.989   3.061  0.1211 -0.3356  0.3393
28594W        W71610   1.296  30.530   1.159 -0.0911  0.0928  0.2802
28595W        W71611  34.312  32.073   8.864  0.0072 -0.3498 -0.0043
28596W        W71612  14.667  12.133  28.113 -0.0632  0.0537  0.2298
28597W        W71613  15.864  31.942   8.584 -0.0631 -0.0281 -0.0633
28598W        W71614  19.357  27.841   5.666 -0.1490 -0.0885  0.3228
28599W        W71615  18.190   6.168   6.117 -0.0865  0.1977 -0.0889
28600W        W71616  20.131   2.053   4.914  0.0867 -0.3557  0.0187
28601W        W71617  17.454  12.743  22.324 -0.1285 -0.1040 -0.2366
28602W        W71618   3.253   8.223   5.677  0.4759  0.1269 -0.0083
28603W        W71619  29.237  15.157  28.671 -0.2900 -0.2388  0.2768
28604W        W71620  32.480  26.881   6.204 -0.2377 -0.0097  0.4540
28605W        W71621   7.587   0.034  25.142  0.3274 -0.0955  0.0059
28606W        W71622   4.874  32.800   3.283  0.0609 -0.1624 -0.4701
28607W        W71623  21.823  21.482   4.279  0.1107 -0.2152 -0.2584
28608W        W71624  16.059   6.550   6.585  0.0527 -0.0144  0.1176
28609W        W71625  19.646  15.972  20.888  0.1234  0.0429  0.3676
28610W        W71626  26.210  25.501   5.451 -0.0171 -0.0337  0.0378
28611W        W71627  23.341  30.841   6.166 -0.0412 -0.0979 -0.0672
28612W        W71628  28.209  22.124   5.354 -0.0999 -0.0182 -0.0380
28613W        W71629  29.759   2.288   3.125  0.3452  0.0756  0.0292
28614W        W71630   7.418  13.446   6.359  0.1373  0.2222 -0.3963
28615W        W71631  33.318   9.216   1.956 -0.1495  0.2009  0.1312
28616W        W71632  21.099   4.786   9.690  0.1394  0.1102  0.1705
28617W        W71633  29.905  34.659  25.700  0.0069 -0.0649  0.0496
28618W        W71634   0.974   8.336   0.421 -0.0580 -0.0011 -0.0876
28619W        W71635  16.225  32.333   4.492  0.1039  0.0133 -0.0508
28620W        W71636  27.741  17.098  19.194  0.0711 -0.1304  0.0967
28621W        W71637  29.224  28.351  21.977 -0.0361 -0.0992  0.0416
28622W        W71638  22.111  24.217   6.466  0.0363 -0.0725  0.0810
28623W        W71639  16.665  26.924   3.768 -0.1054  0.1980 -0.2427
28624W        W71640  25.451   7.494   5.974  0.0137  0.1171  0.2158
28625W        W71641  18.953  33.598   1.683 -0.0841  0.1279 -0.1287
28626W        W71642  16.122   6.340   7.247  0.0512  0.1009 -0.1252
28627W        W71643  14.435  28.144   5.876  0.3243 -0.2277 -0.0614
28628W        W71644  22.588  27.858  26.071 -0.1607 -0.0996 -0.0509
28629W        W71645  33.465  32.643  28.104 -0.1846  0.1891 -0.1646
28630W        W71646  20.040  10.134   4.559  0.1075  0.0002  0.4484
28631W        W71647  33.071  28.946  10.710 -0.0674 -0.2704 -0.0867
28632W        W71648  10.231   6.134  28.469  0.0693  0.0151  0.0205
28633W        W71649  26.241  12.823   7.080  0.1059 -0.1661  0.0738
28634W        W71650  23.460   0.220   2.696 -0.3108 -0.1145 -0.4074
28635W        W71651  14.079  21.144   0.565 -0.0932 -0.0459  0.0596
28636W        W71652   7.200  29.978   3.011 -0.1297  0.2121  0.0485
28637W        W71653  18.748  19.278   6.322 -0.0207  0.0134  0.0697
28638W        W71654  31.101  31.029   7.727  0.0313 -0.2250  0.0292
28639W        W71655  28.819   3.643  11.189  0.1924 -0.0715 -0.1401
28640W        W71656  32.092  12.829   0.928 -0.1463  0.4789 -0.0280
28641W        W71657  29.950  31.684   6.027 -0.0580 -0.0099 -0.1003
28642W        W71658  18.362  19.265  28.633  0.0931  0.2662 -0.0807
28643W        W71659   2.378   8.436  22.572 -0.0413 -0.2623  0.0686
28644W        W71660  22.369  34.529  10.233  0.3288 -0.3596  0.1205
28645W        W71661  31.820  18.135  26.843 -0.2116 -0.1448  0.0258
28646W        W71662  15.160  17.949  26.024 -0.2037  0.0907  0.1345
28647W        W71663  23.263  23.296   2.505 -0.1269 -0.1804  0.2482
28648W        W71664  10.304   1.272  28.386 -0.2752 -0.1459 -0.1880
28649W        W71665  23.702   4.913   9.180 -0.0916  0.2450  0.0447
28650W        W71666  27.529   0.746   8.561 -0.2740  0.0851  0.1141
28651W        W71667  33.147  17.881   3.888  0.1947 -0.0442  0.4625
28652W        W71668  16.218  29.242  17.760  0.1757  0.0956  0.0636
28653W        W71669  30.765   7.393   8.384  0.0243 -0.2120  0.2847
28654W        W71670  22.715   9.675  21.826 -0.0978 -0.2305  0.0047
28655W        W71671  24.528  17.421  18.730 -0.0952  0.0425 -0.0588
28656W        W71672  13.606   3.043   9.721  0.1908  0.2289 -0.0755
28657W        W71673  31.502  13.326  22.088 -0.2973  0.0946  0.0395
28658W        W71674  27.054   4.390  23.958  0.0089 -0.1093  0.1224
28659W        W71675  29.544   8.483  10.582  0.2173 -0.1689 -0.1469
28660W        W71676  11.239  16.161  22.330  0.0840  0.0240  0.0428
28661W        W71677  18.068  28.499  29.260 -0.0884  0.2276 -0.0629
28662W        W71678  29.885  32.507   6.895 -0.0036 -0.1346  0.0989
28663W        W71679  25.717   7.470   8.613  0.1260 -0.0380  0.2749
28664W        W71680  21.230  33.464   4.261 -0.1547  0.4154  0.1349
28665W        W71681  20.907   3.983  28.469 -0.1032 -0.3454 -0.0495
28666W        W71682  31.721   0.778  18.329  0.1049  0.1432 -0.0527
28667W        W71683  32.970  23.339   9.001  0.3476 -0.3030 -0.4051
28668W        W71684   6.115   4.015  10.684 -0.1373 -0.1386 -0.1314
28669W        W71685  17.052  30.244   3.851  0.3320  0.2352 -0.2223
28670W        W71686  18.873  29.886   5.958  0.1103 -0.0449 -0.2342
28671W        W71687  34.320  30.929   0.673  0.1935  0.0308  0.2433
28672W        W71688  10.494  18.892   3.037 -0.1380 -0.0773 -0.0957
28673W        W71689  25.631   0.514   1.511 -0.3463  0.3721 -0.0060
28674W        W71690  12.644   4.722  28.135 -0.1256  0.1300 -0.1831
28675W        W71691  22.129  34.027   5.072  0.1505 -0.3856 -0.0701
28676W        W71692  26.539   4.115  11.172 -0.1474  0.2734  0.0323
28677W        W71693  18.163  25.392   2.734  0.0461 -0.0647  0.2846
28678W        W71694  25.765   2.959   1.012  0.2630 -0.3092 -0.1419
28679W        W71695  21.015  29.222   6.960 -0.4245 -0.3606  0.1465
28680W        W71696  19.524  31.722   9.276  0.1092  0.0423 -0.1032
28681W        W71697  19.228  16.330  25.348  0.1450  0.2955 -0.0004
28682W        W71698  18.279   6.450  23.378 -0.0553 -0.0664 -0.0871
28683W        W71699   9.755  29.218  22.779  0.2511 -0.4470  0.1587
28684W        W71700   3.532   2.115  19.137 -0.0662  0.1845 -0.0928
28685W        W71701  11.407  23.959   5.997  0.1711  0.2648 -0.1591
28686W        W71702   5.814  15.466  24.151  0.1058  0.1085  0.2895
28687W        W71703  24.183  24.903   6.566  0.3162  0.1252  0.1875
28688W        W71704  12.896  18.016  20.348  0.0603  0.0476  0.0124
28689W        W71705  16.001  13.772  27.311 -0.3668  0.2233  0.0439
28690W        W71706  19.710  20.868  13.461 -0.0595 -0.1966 -0.1110
28691W        W71707  31.540  16.311   9.067  0.0670  0.0053  0.0410
28692W        W71708  15.969  27.205   2.305  0.0673  0.1993  0.2786
28693W        W71709  29.171   5.327   8.465 -0.2201  0.3025 -0.0433
28694W        W71710  14.026  25.913   6.395 -0.3035  0.0919  0.2878
28695W        W71711  13.706   5.742   4.919  0.1583 -0.2855 -0.0064
28696W        W71712  29.396  29.155  10.683 -0.0174 -0.1318  0.1274
28697W        W71713  24.346   1.209   3.435  0.2404  0.2198 -0.2332
28698W        W71714  20.196  20.243   8.246  0.0489  0.1725 -0.1958
28699W        W71715  21.806  23.351   5.393  0.1151  0.1217 -0.3125
28700W        W71716  21.802   9.578  26.668 -0.2500  0.2586  0.2825
28701W        W71717  20.603   3.645   2.569 -0.2398 -0.1127  0.2044
28702W        W71718   2.818  27.807   3.397 -0.1277  0.2474  0.0477
28703W        W71719  12.164  24.827   3.154 -0.2486 -0.0412  0.3135
28704W        W71720   7.892  11.859   2.225 -0.1336  0.0107  0.1854
28705W        W71721  13.752   1.571   8.929 -0.2544 -0.3946 -0.1029
28706W        W71722   7.459  24.800   9.235 -0.0515 -0.2274 -0.1547
28707W        W71723   2.942  30.517  27.633  0.2230  0.3467 -0.2185
28708W        W71724  20.014   9.298  17.722  0.0007 -0.0118  0.0436
28709W        W71725  32.197  30.493   6.516 -0.1226  0.0382  0.0995
28710W        W71726   6.169  23.339  25.425 -0.0633 -0.0786 -0.4458
28711W        W71727  28.734  30.409  11.178 -0.1756 -0.2573  0.1211
28712W        W71728   9.311   5.485  28.543  0.1808 -0.4652  0.3298
28713W        W71729  23.480  14.667  22.605 -0.0938  0.1349 -0.2772
28714W        W71730  23.703  29.754  27.191 -0.1964 -0.4328 -0.2662
28715W        W71731  33.590  28.405   7.151 -0.0531  0.1401 -0.0649
28716W        W71732  22.044  24.722   8.518 -0.2030 -0.0174  0.1682
28717W        W71733  24.177  31.127   8.241 -0.2451  0.3201 -0.2433
28718W        W71734   0.845  32.526   1.835  0.1186  0.2020 -0.0464
28719W        W71735  19.084   8.598  28.824 -0.1151  0.0530  0.1325
28720W        W71736  33.151  25.818   2.218  0.1140 -0.0519 -0.2283
28721W        W71737  21.115  18.598   7.717 -0.0607 -0.2638 -0.0594
28722W        W71738  24.607  33.116  16.936  0.0600 -0.1670  0.3411
28723W        W71739  17.853   2.507   6.816  0.2244 -0.0167  0.0520
28724W        W71740  19.583  11.319   8.234 -0.3167  0.0292  0.0022
28725W        W71741  12.243  27.342   0.857 -0.0695  0.1794  0.1082
28726W        W71742  25.692  25.003   5.030  0.1413  0.2087  0.0365
28727W        W71743  21.609  27.109   7.546 -0.0101  0.3257 -0.3365
28728W        W71744  32.517  31.503   6.844 -0.0797 -0.1683 -0.1688
28729W        W71745  20.516   5.566   7.671  0.1790 -0.0013 -0.2220
28730W        W71746  25.476  28.734   9.493 -0.2365  0.3463 -0.2886
28731W        W71747  15.086   5.269   0.704  0.2311  0.1301 -0.2054
28732W        W71748   7.645   2.947  27.113  0.2350  0.1556 -0.1448
28733W        W71749  19.945  20.697  26.142 -0.3182  0.1964 -0.6534
28734W        W71750   6.921   7.443  27.676  0.1130  0.0491  0.2137
28735W        W71751  15.079  33.301   9.872 -0.1231  0.1565 -0.2684
28736W        W71752  18.175   8.819   4.381 -0.2312  0.0893  0.1092
28737W        W71753   5.739  34.719   8.754  0.0321 -0.3447  0.0421
28738W        W71754  29.038  11.732   4.745 -0.3050 -0.3226  0.3263
28739W        W71755  17.275  24.507   6.892 -0.1080  0.0224  0.0602
28740W        W71756  12.681  34.735   5.908 -0.0918  0.0121 -0.2138
28741W        W71757  26.643  26.016   4.376  0.1888 -0.2606 -0.1537
28742W        W71758  10.435   0.728   3.236 -0.1938 -0.0627  0.1671
28743W        W71759  33.057   1.886  28.509 -0.1740  0.0082 -0.0222
28744W        W71760  21.127   3.517   8.854 -0.0897 -0.0855  0.1523
28745W        W71761  24.405   6.179   5.665  0.0266  0.0602  0.1497
28746W        W71762  28.324  28.773   7.080  0.0488  0.1176 -0.1218
28747W        W71763  26.362  29.624   0.509  0.0966 -0.2153  0.3832
28748W        W71764  31.420   9.264   1.708  0.0071 -0.2727 -0.1181
28749W        W71765   1.943  22.482   5.189  0.2648  0.1479  0.0520
28750W        W71766   2.477  20.895   2.701 -0.0757  0.1186  0.1491
28751W        W71767  18.926  10.484   8.475  0.3878  0.0482 -0.1180
28752W        W71768   8.320  34.757  26.335 -0.3525  0.3136 -0.0966
28753W        W71769  21.148  23.999   3.848  0.0019 -0.3452 -0.1495
28754W        W71770  21.624  23.080   3.079 -0.1403 -0.1059 -0.0284
28755W        W71771   5.790   8.312  16.931  0.2680 -0.0379  0.2073
28756W        W71772  29.758  17.437   2.649  0.1125 -0.0816  0.0407
28757W        W71773  25.069  23.115   5.061  0.0299  0.1146  0.0456
28758W        W71774  32.340   3.911   7.899 -0.2726  0.0994  0.1189
28759W        W71775  13.751  32.875   9.778  0.0039 -0.1848 -0.0991
28760W        W71776  22.168   4.286  26.987 -0.2930  0.0850 -0.1602
28761W        W71777  11.828  30.088  27.573  0.1801  0.3018  0.2678
28762W        W71778  33.947  22.060  24.810  0.1825 -0.2072  0.0199
28763W        W71779  16.775  12.607  27.961 -0.3323  0.3180  0.0667
28764W        W71780  10.929   9.245   2.947  0.0313  0.4307  0.0198
28765W        W71781  27.272   1.470   8.279  0.4136 -0.4462 -0.0802
28766W        W71782  29.071  27.024   8.760  0.1337 -0.1248  0.3672
28767W        W71783  18.869   5.412  18.105  0.0977  0.0974 -0.1711
28768W        W71784  18.220  27.226   2.263  0.0129 -0.1281  0.1602
28769W        W71785  21.322  30.831  28.542 -0.2001  0.0590  0.0773
28770W        W71786  28.767   1.456   6.685  0.1294 -0.4610 -0.1144
28771W        W71787  30.672  10.422  23.599 -0.3045 -0.1677 -0.2272
28772W        W71788  18.633   0.771   8.313  0.0213 -0.0683 -0.1570
28773W        W71789  23.927   6.439   6.456  0.1192  0.2505  0.0801
28774W        W71790  19.127   9.716   1.285  0.2034  0.1218  0.5024
28775W        W71791  27.982  23.915   2.155 -0.1142  0.0669  0.1212
28776W        W71792  24.842  20.093  23.329  0.0322  0.2452  0.2780
28777W        W71793  32.940  27.710   1.652  0.0496 -0.0665 -0.0037
28778W        W71794   2.371  28.014  25.887 -0.0368  0.1691  0.0121
28779W        W71795  14.112  10.587  26.664  0.0230  0.1490  0.2007
28780W        W71796  26.140   3.522  21.959  0.2966 -0.0824 -0.0109
28781W        W71797   1.620   4.359   2.065 -0.3632  0.0351 -0.0780
28782W        W71798   8.976  27.549   5.814 -0.1991  0.1635 -0.0415
28783W        W71799  17.162  14.406   2.221  0.0288  0.2987 -0.3064
28784W        W71800  27.536  33.341   1.053  0.3220 -0.0040  0.1709
28785W        W71801  22.604  34.050   6.096  0.0746 -0.2433  0.1879
28786W        W71802  19.955   1.743   9.788  0.2337 -0.3683  0.0012
28787W        W71803  19.641   8.012   3.633 -0.2428  0.1535  0.3732
28788W        W71804  30.472  33.877   0.540 -0.1919 -0.2543 -0.0534
28789W        W71805  16.597  32.067  26.303  0.1390 -0.1274 -0.3510
28790W        W71806  19.622  16.639   6.504  0.1973  0.3388 -0.1033
28791W        W71807  26.483  32.877   7.168  0.0683 -0.0336  0.2945
28792W        W71808  32.591  33.980   8.023 -0.1325  0.1804 -0.0837
28793W        W71809  24.225  27.096   6.367 -0.0111  0.1626 -0.1215
28794W        W71810  17.618  24.521  18.501  0.0244 -0.0037 -0.0943
28795W        W71811  21.874   5.678  25.681  0.1498 -0.0156 -0.0644
28796W        W71812  32.860  20.834   6.353 -0.0207  0.2501 -0.1037
28797W        W71813  13.554  23.453   7.217 -0.3379 -0.2757  0.1174
28798W        W71814  32.694  26.757   8.258  0.0213  0.0423  0.0457
28799W        W71815  17.718  28.083   0.633 -0.0678 -0.2297  0.1604
28800W        W71816  17.721  33.824  10.796  0.1619  0.1482  0.1835
28801W        W71817  15.673  19.190  29.224 -0.1959  0.2002  0.0714
28802W        W71818  17.214  28.045   1.084  0.1887 -0.3500  0.2205
28803W        W71819  25.673  26.071  23.065 -0.2371  0.0141  0.3433
28804W        W71820  29.173  16.925  25.243 -0.0019  0.1380 -0.0506
28805W        W71821  22.296   7.270  27.492  0.1221  0.0948 -0.2589
28806W        W71822  22.778  18.846  26.258 -0.0806 -0.2906  0.0176
28807W        W71823  19.817  32.805  29.075  0.1328  0.0144  0.1108
28808W        W71824  19.976   1.604   5.040 -0.4538 -0.1022 -0.0110
28809W        W71825  13.170  25.500   6.263 -0.1482 -0.2611  0.1769
28810W        W71826  29.324  33.664   5.974  0.1680  0.0100  0.2509
28811W        W71827  22.461  18.294  27.708 -0.0808  0.1213  0.0794
28812W        W71828  22.743  24.511   6.174 -0.0662 -0.0545  0.2507
28813W        W71829  24.879  34.067   7.104 -0.1249  0.0884  0.1084
28814W        W71830  32.823  33.944   5.079 -0.0472 -0.1651  0.0597
28815W        W71831  19.229  31.056   9.854 -0.1659  0.0449 -0.1136
28816W        W71832  10.937  26.562   7.880 -0.0880  0.0138  0.0617
28817W        W71833  24.385  29.799   9.499 -0.1200 -0.0220 -0.1280
28818W        W71834  22.578  28.234   1.939 -0.0073  0.2536 -0.4318
28819W        W71835  14.499  13.434  24.047  0.0297  0.0343 -0.0323
28820W        W71836  25.729   4.627  15.837 -0.1607  0.1033 -0.0900
28821W        W71837  14.940   2.731   9.366  0.2294  0.0912 -0.0683
28822W        W71838  22.138  29.811   6.594 -0.0471  0.2844  0.1687
28823W        W71839  27.225   0.501   7.227 -0.0540  0.1761  0.1346
28824W        W71840  11.861   2.521  28.974  0.0681 -0.0100 -0.0081
28825W        W71841  10.754   1.437   5.781  0.0348  0.0855  0.2055
28826W        W71842  30.242  28.487   8.933 -0.0611  0.0130  0.1671
28827W        W71843   4.020  11.752   4.321  0.0433 -0.0796  0.1189
28828W        W71844  31.319  18.886  17.883  0.2396  0.2734 -0.0810
28829W        W71845   5.945  13.341   3.420 -0.0459  0.5655  0.1850
28830W        W71846  21.534  32.363   8.241  0.1403  0.2414 -0.0269
28831W        W71847  26.698  14.465   8.412  0.3732 -0.2125 -0.0318
28832W        W71848  34.479  10.311   9.176  0.1578 -0.2387  0.0476
28833W        W71849  13.597  16.069   3.758  0.1082  0.1932  0.1692
28834W        W71850   7.062  23.878  23.652 -0.0250 -0.1054 -0.3150
28835W        W71851  11.277  27.729  19.570  0.1262 -0.2010  0.1024
28836W        W71852  16.355  33.328  29.194  0.0782 -0.1168 -0.0211
28837W        W71853  21.575  29.447   0.861 -0.0628 -0.2105  0.0344
28838W        W71854   7.521  29.187  27.928  0.0275 -0.2253  0.3064
28839W        W71855  25.323   5.909  26.004 -0.2950  0.0542  0.1575
28840W        W71856  26.141  27.327  10.889 -0.1005  0.2296 -0.0816
28841W        W71857  18.519  29.636   5.525  0.3677 -0.1782  0.2783
28842W        W71858   3.699   3.541   6.430 -0.1376 -0.0403 -0.0716
28843W        W71859  26.532  24.569   6.743 -0.3996  0.0187 -0.1287
28844W        W71860  24.492  32.136   6.976  0.0633 -0.0116 -0.0684
28845W        W71861  20.125  17.263   3.511  0.0991  0.0328 -0.1918
28846W        W71862  24.244  22.942   8.291  0.4994 -0.1789 -0.0065
28847W        W71863   8.611  25.507   7.404 -0.2643 -0.4958  0.1601
28848W        W71864  15.376   1.924   8.853  0.2039 -0.0524  0.1101
28849W        W71865  15.989  21.691   2.364 -0.1529 -0.1220 -0.0184
28850W        W71866  28.727   9.279   3.857  0.2032 -0.1565 -0.0216
28851W        W71867  12.387  33.130  10.447  0.2752 -0.1098 -0.2565
28852W        W71868   7.327  29.524   3.848  0.0481  0.0922  0.0582
28853W        W71869  23.631  20.498   1.479  0.2192 -0.1038  0.3910
28854W        W71870  18.629  21.203  28.645  0.3265  0.0548  0.0895
28855W        W71871  21.711  11.158  19.712  0.2055 -0.0499 -0.1549
28856W        W71872  16.920   4.119   3.869  0.0630 -0.1576  0.4944
28857W        W71873  21.259  14.949   2.366 -0.4980  0.4372  0.2211
28858W        W71874  15.853  20.432   2.896  0.0050 -0.1247  0.1535
28859W        W71875  18.508  24.558   2.189 -0.1457  0.2036  0.1373
28860W        W71876  20.444   0.113  21.254  0.3777 -0.0059  0.0464
28861W        W71877  19.928  30.785   8.536 -0.0562 -0.0833 -0.1396
28862W        W71878  30.793   0.637   5.566  0.1146 -0.1842  0.0641
28863W        W71879  30.788   0.118  11.184  0.2557 -0.0377  0.0002
28864W        W71880  26.685  27.249  28.234 -0.2222  0.0434 -0.1527
28865W        W71881  12.924   3.345   0.634  0.3386  0.0680 -0.0012
28866W        W71882  15.753  10.683  27.473  0.0949  0.3660  0.1411
28867W        W71883  13.679   0.281   9.301  0.0359 -0.0143 -0.1309
28868W        W71884  12.386  30.334  15.904 -0.0492  0.0011 -0.1486
28869W        W71885  25.800  10.188  20.103  0.0343  0.1255  0.2116
28870W        W71886  25.611  27.899   8.161  0.1659  0.1905 -0.0357
28871W        W71887  30.259  26.794   8.143  0.2840  0.2447 -0.1152
28872W        W71888  16.750   2.380   8.176  0.0147 -0.1207  0.1646
28873W        W71889   1.974  10.177   7.669 -0.3446  0.0679  0.0551
28874W        W71890  16.606  25.863  28.748  0.1616  0.1279  0.2446
28875W        W71891  22.361  30.845  10.085 -0.0535 -0.1434  0.0764
28876W        W71892  23.155  16.225   2.251  0.2566  0.1309  0.2335
28877W        W71893  15.712  32.428   9.793  0.1322 -0.2416 -0.3386
28878W        W71894  13.535  27.985   2.288 -0.0932 -0.2095 -0.0311
28879W        W71895  32.617  20.374   6.567  0.4249  0.1433  0.0917
28880W        W71896  21.393  22.569  29.286 -0.1943  0.1905  0.1610
28881W        W71897  19.669   8.975   5.304 -0.1899 -0.0206 -0.3743
28882W        W71898   6.750  23.045   7.478 -0.1801  0.0117 -0.0291
28883W        W71899  13.309  23.951   9.842 -0.0818 -0.0204  0.2494
28884W        W71900  27.251  28.942   2.858  0.1367 -0.0898 -0.0301
28885W        W71901  20.499   4.213  28.668 -0.2026 -0.0386 -0.3092
28886W        W71902  19.243   3.932   8.261  0.0448  0.0571 -0.3398
28887W        W71903  25.279   2.131  28.059 -0.1100  0.1216  0.1994
28888W        W71904  27.447  21.347  25.257 -0.2034  0.0759  0.2581
28889W        W71905   4.138  32.063   3.174 -0.0399 -0.0542  0.0221
28890W        W71906  16.311  27.327   8.314 -0.0740 -0.3063 -0.0320
28891W        W71907  27.856  31.053  10.657 -0.0565  0.0265 -0.1460
28892W        W71908  23.785  18.144   5.275 -0.2440  0.0895 -0.1343
28893W        W71909   5.510  23.300   8.071 -0.0499 -0.3544  0.2263
28894W        W71910  28.945  10.286   0.521 -0.2326 -0.0118  0.2338
28895W        W71911  11.507  18.047   8.696 -0.3090  0.2286  0.1483
28896W        W71912  14.899  23.032   7.979  0.0042 -0.0746 -0.1952
28897W        W71913  27.789   6.939   5.808  0.1742  0.5260 -0.1169
28898W        W71914  12.859  28.474   4.769  0.0540 -0.0426 -0.1953
28899W        W71915   7.238  26.746  21.128 -0.0802  0.1240 -0.0300
28900W        W71916   6.663  18.002   2.077  0.0746 -0.0321 -0.1352
28901W        W71917  23.403   1.202   7.903 -0.1142 -0.0324 -0.1608
28902W        W71918  26.016  27.918  11.770  0.0701 -0.2755 -0.3636
28903W        W71919  10.344  15.598   4.041  0.0123 -0.2784 -0.1100
28904W        W71920  15.641   5.566  25.899  0.0760 -0.0048 -0.1787
28905W        W71921  34.775   6.870   5.457  0.1327  0.0758 -0.1068
28906W        W71922  13.990  30.593   4.188 -0.4166  0.2137  0.3138
28907W        W71923  17.993  26.618   8.685 -0.0720  0.1276 -0.1251
28908W        W71924   0.494  27.272  24.171  0.0602  0.0821 -0.0589
28909W        W71925  32.568  32.652   4.344 -0.1527 -0.1592  0.2819
28910W        W71926  19.514   2.898  28.682  0.3316  0.2474 -0.1991
28911W        W71927  32.497  25.180   0.695 -0.1724 -0.1742  0.1246
28912W        W71928  25.519   0.850   6.635 -0.2182  0.1693 -0.1029
28913W        W71929  26.022  31.414   6.707 -0.2788  0.0017 -0.0260
28914W        W71930  27.038  15.690   7.129  0.2085 -0.2838 -0.1297
28915W        W71931  19.166  30.466   2.646  0.2330 -0.0057 -0.0310
28916W        W71932  14.734  27.966   1.804 -0.0207  0.0741  0.1079
28917W        W71933  29.156  12.452   2.526 -0.2563  0.0429  0.0044
28918W        W71934  27.488  33.732   6.095  0.1719  0.1938  0.0250
28919W        W71935  22.854   4.775  26.841 -0.1002 -0.0955  0.0061
28920W        W71936  10.597   5.387   5.139  0.0364 -0.0317 -0.1444
28921W        W71937  23.772   8.057  25.671  0.0387 -0.0170 -0.0554
28922W        W71938  20.100  31.171  22.589  0.1640 -0.1931  0.3966
28923W        W71939  23.232   3.723   6.832  0.0963 -0.1051 -0.0290
28924W        W71940  28.141  33.107   5.169 -0.1629  0.0334  0.1647
28925W        W71941  19.788  15.605  27.131  0.1007  0.1832 -0.0417
28926W        W71942  26.879   4.466  19.034  0.1521  0.1883 -0.0635
28927W        W71943  12.774   9.372   1.089  0.0472  0.0235 -0.0815
28928W        W71944  22.757   1.757   0.316 -0.0086 -0.0705 -0.0830
28929W        W71945   9.416   3.352  19.639 -0.0418  0.0217 -0.1948
28930W        W71946  31.242  13.567   2.747 -0.2271 -0.1332  0.1380
28931W        W71947  25.767   1.882   6.118 -0.1342  0.1012 -0.0943
28932W        W71948  30.944  25.420   8.956  0.2923  0.1401  0.1452
28933W        W71949  22.851  26.730  25.701  0.2550  0.0913  0.1142
28934W        W71950  19.241   0.580   6.439  0.1399 -0.1402 -0.3625
28935W        W71951  27.144  17.173  26.165 -0.1150  0.0833  0.0169
28936W        W71952  13.196   8.423  25.739 -0.5544  0.0850 -0.0182
28937W        W71953  15.467  28.875   7.986  0.0086 -0.1453 -0.1702
28938W        W71954  17.429  13.647  27.227  0.1182  0.3334  0.3026
28939W        W71955  10.906  28.754   7.642  0.0337 -0.2537  0.1257
28940W        W71956  25.624  26.754  10.189  0.1143  0.0433 -0.0666
28941W        W71957  28.888  23.606  28.028  0.1074  0.1218 -0.1390
28942W        W71958  29.265  25.975   3.915 -0.0689  0.2749  0.1629
28943W        W71959  12.346   4.466   0.995  0.0071  0.1261  0.0083
28944W        W71960  11.724  13.674   7.661  0.0824  0.1613  0.3503
28945W        W71961  24.089  31.479   5.425  0.0876  0.0615  0.1546
28946W        W71962   5.544  11.613   5.801  0.1079  0.0051 -0.1640
28947W        W71963  21.052  31.115  28.209  0.0821 -0.0925  0.1607
28948W        W71964   0.378  31.964   7.800 -0.0418  0.1781 -0.0904
28949W        W71965  31.249  10.930  10.234 -0.0223 -0.0404  0.2178
28950W        W71966  18.416  33.532  27.082  0.0769 -0.1576  0.2091
28951W        W71967  23.998  11.018  10.269  0.1064  0.1859  0.3701
28952W        W71968  28.972  21.203   8.500 -0.0627 -0.0732  0.0481
28953W        W71969   0.538  29.271   3.921 -0.2808  0.3494  0.0085
28954W        W71970   2.441   1.999   6.041  0.0810 -0.1513 -0.0053
28955W        W71971  32.549  30.252   6.176  0.1282  0.0546  0.0435
28956W        W71972  17.539   5.083   0.578  0.2052 -0.2010  0.2475
28957W        W71973  21.745  32.891   8.616 -0.0620  0.0500 -0.1984
28958W        W71974  17.532   0.206  23.673 -0.1960  0.1002  0.0326
28959W        W71975  23.023   3.923  10.861 -0.1449  0.2645  0.0759
28960W        W71976  17.975  29.905   9.653 -0.1068 -0.1849  0.1228
28961W        W71977  21.739  15.439   4.168 -0.0437 -0.0234  0.0620
28962W        W71978  10.242  11.863  21.486  0.1232  0.0101 -0.2059
28963W        W71979  19.445  30.804   3.964 -0.1751  0.1021  0.1743
28964W        W71980  11.398  26.980  28.841  0.0340  0.1501 -0.2121
28965W        W71981  29.193  13.151   4.804  0.1658  0.2635  0.1388
28966W        W71982  26.386  34.356  26.758  0.0782  0.0490 -0.2424
28967W        W71983  22.291  19.174  27.816 -0.0541 -0.0445  0.1410
28968W        W71984  10.217   0.435   2.036 -0.1533  0.1637 -0.1042
28969W        W71985  26.199  17.928   2.179  0.3521 -0.1860  0.0587
28970W        W71986  24.113  29.227   3.187 -0.0766 -0.2997 -0.0811
28971W        W71987   1.872  27.487   4.061 -0.1637 -0.7125 -0.0981
28972W        W71988  28.227  12.500   0.423 -0.0873 -0.4073  0.0259
28973W        W71989  20.458  32.438   7.921  0.0857 -0.0497  0.2763
28974W        W71990  21.785  31.046   5.478  0.3612 -0.0150  0.2662
28975W        W71991  17.552  12.344  22.833 -0.0311  0.0543  0.1251
28976W        W71992  28.699  26.727  18.331 -0.0576  0.1585  0.2560
28977W        W71993  19.474  10.815  22.255  0.0219 -0.1600 -0.1272
28978W        W71994  28.190  28.469  21.752 -0.1425 -0.0915  0.0179
28979W        W71995  13.007  20.915   1.121 -0.1629 -0.0720  0.1638
28980W        W71996  21.218   5.658   7.158  0.1920  0.0877 -0.1026
28981W        W71997  27.270   7.168   8.112 -0.3354  0.1632 -0.0318
28982W        W71998  21.251  23.835  25.680  0.2691 -0.3851 -0.0163
28983W        W71999   1.677   6.017  10.250  0.3288 -0.0576 -0.1048
28984W        W72000  28.067  31.690  23.091 -0.1629  0.2521  0.2508
28985W        W72001  29.078  21.734   5.892  0.0767  0.0643 -0.1564
28986W        W72002  12.388  24.773   5.616 -0.1525 -0.0248  0.1246
28987W        W72003  26.250  27.641  27.136 -0.2188  0.3286  0.1411
28988W        W72004  26.777   9.632  28.095 -0.0614  0.0178  0.0006
28989W        W72005  24.944  29.427   3.657 -0.2735  0.0563  0.0517
28990W        W72006  19.456  23.693  26.870  0.2090 -0.0345 -0.1044
28991W        W72007  18.118   1.333   3.680 -0.1660  0.0265 -0.1002
28992W        W72008  31.949  25.295   9.747 -0.2071  0.2701 -0.2111
28993W        W72009  22.323  26.056   7.746 -0.3377 -0.0430 -0.0840
28994W        W72010   1.819  29.766   7.991  0.1548  0.1959 -0.2448
28995W        W72011  29.159   6.383  22.276 -0.1289 -0.1146  0.1726
28996W        W72012   7.513  20.264  24.294  0.3719 -0.0993  0.2858
28997W        W72013  27.613  29.413   0.020 -0.0292  0.1975  0.1821
28998W        W72014  26.570  19.746   8.692  0.1714 -0.1353  0.0071
28999W        W72015  14.389   0.372  21.513  0.0963 -0.2578 -0.0649
29000W        W72016  27.905  19.828  27.134 -0.0290  0.0648 -0.0163
29001W        W72017  17.812  32.330   2.697  0.0654 -0.4124  0.1077
29002W        W72018  33.588  33.636   3.317  0.1399  0.0317 -0.1206
29003W        W72019  19.689   5.589   5.222 -0.0905 -0.0004 -0.1620
29004W        W72020  25.759  15.799   4.331 -0.1078 -0.0018 -0.1832
29005W        W72021   2.760   3.466  20.799  0.2806  0.1011  0.2392
29006W        W72022  22.757   1.950   8.739  0.0520  0.1392  0.1234
29007W        W72023   6.297  31.471  22.049 -0.2781 -0.0272  0.1348
29008W        W72024  28.487  21.221   6.031  0.2397 -0.2196 -0.2964
29009W        W72025  21.335  27.723   5.140  0.1016  0.0994 -0.0009
29010W        W72026  27.698  26.435  16.069  0.0370  0.0980 -0.1567
29011W        W72027  14.133   5.528  23.412 -0.1755 -0.0795 -0.1550
29012W        W72028  33.389  33.169  10.096  0.0929  0.1532 -0.2817
29013W        W72029  22.653  28.808  28.959  0.0010 -0.0405 -0.1535
29014W        W72030   8.203  31.720   2.843  0.2105 -0.1352 -0.3269
29015W        W72031  27.762   2.803   6.786 -0.4020  0.1108  0.3276
29016W        W72032  18.691   0.773   5.810  0.1816  0.0553  0.0377
29017W        W72033  11.059   3.814  29.120 -0.0362 -0.0433 -0.0931
29018W        W72034  15.097  31.788   1.551  0.4674  0.2438 -0.3140
29019W        W72035   0.958  10.634   9.975 -0.0010  0.2679  0.0506
29020W        W72036  19.087  22.952  26.649 -0.3221 -0.0818 -0.4172
29021W        W72037  17.934  29.191   1.199  0.1267  0.3362  0.0495
29022W        W72038   8.953  26.387   3.407 -0.3172  0.0783  0.3746
29023W        W72039  26.898   4.725   2.232  0.1017  0.0720 -0.1203
29024W        W72040  13.583  31.302   6.106 -0.0027 -0.0405  0.3354
29025W        W72041  27.561   0.474   1.644 -0.1138  0.0810 -0.0358
29026W        W72042  26.370   3.676   3.701 -0.3107  0.1422  0.1080
29027W        W72043  18.665   9.687  21.955  0.1043  0.1092  0.1159
29028W        W72044  26.955  31.945  29.156  0.3755  0.0401  0.0005
29029W        W72045   8.608   3.939   2.282  0.2094 -0.1078 -0.1393
29030W        W72046  34.499  32.717  24.643 -0.0619 -0.2204  0.0705
29031W        W72047  23.025   1.062  10.631  0.0087 -0.0572 -0.2194
29032W        W72048  22.700  32.415   9.578  0.1562 -0.2068  0.2720
29033W        W72049  16.098  25.205  16.412 -0.0447  0.1449 -0.0086
29034W        W72050  15.718   7.250   2.540 -0.0737 -0.1480 -0.0572
29035W        W72051   8.085  28.106   8.582  0.1595  0.1718 -0.3087
29036W        W72052  31.007  23.382  11.420  0.0573 -0.0536 -0.0615
29037W        W72053  16.566  17.001  25.176  0.0612 -0.0077  0.1880
29038W        W72054  19.548  17.678   7.820  0.2183  0.2259  0.1392
29039W        W72055  25.446  32.746   1.940 -0.0362  0.2393  0.2422
29040W        W72056  23.624  14.575   4.237 -0.2189 -0.2343 -0.0580
29041W        W72057  33.412  34.573  11.056  0.1259 -0.1075 -0.1920
29042W        W72058   2.167  28.543   6.199  0.1376 -0.0219 -0.2314
29043W        W72059  24.546   5.419   1.007  0.0492 -0.1088 -0.1936
29044W        W72060  23.593  30.430  22.565 -0.1839  0.2049  0.2275
29045W        W72061  19.682   3.079   8.672  0.2013  0.1440  0.0824
29046W        W72062  32.340  27.282   2.876  0.1672 -0.0082 -0.0259
29047W        W72063  10.073   2.032   2.865  0.2563 -0.0493  0.2731
29048W        W72064   5.336   4.696   4.303 -0.1285 -0.3913  0.1812
29049W        W72065  29.168  26.545  10.857  0.1394  0.1904  0.1209
29050W        W72066  20.287  25.875  27.432  0.3550  0.1177  0.2048
29051W        W72067  20.769  28.728   3.347  0.3920 -0.1805  0.3047
29052W        W72068  18.510   2.689   3.929 -0.1738  0.0682  0.2499
29053W        W72069  29.576  27.289   6.081  0.1844 -0.0305 -0.1382
29054W        W72070  22.059  28.281   6.063  0.0587  0.1551  0.3284
29055W        W72071   2.794  24.526  28.851 -0.0969  0.0566  0.5552
29056W        W72072  21.354  28.594   1.457  0.0164  0.0922  0.1248
29057W        W72073  19.443  19.581  24.162  0.1721 -0.3397  0.1025
29058W        W72074   2.605   8.914   1.210  0.2681 -0.2005  0.2251
29059W        W72075  17.236   2.648  27.718  0.0560 -0.0714  0.0092
29060W        W72076  19.121  29.709   0.584 -0.2446  0.2719  0.2013
29061W        W72077   4.780  26.621   3.483  0.2163 -0.0968  0.0347
29062W        W72078  28.187   3.099   6.933  0.1855  0.0112  0.0227
29063W        W72079   5.366  24.546   6.335  0.3708  0.2092 -0.0918
29064W        W72080  24.801  32.888   0.593 -0.1545  0.1393 -0.2794
29065W        W72081  18.237  23.623   0.754 -0.0875  0.1470 -0.1907
29066W        W72082  25.452  31.422  25.971 -0.1711  0.0576  0.0560
29067W        W72083  26.372  18.176   4.736 -0.0401  0.0392  0.0634
29068W        W72084  25.182  28.146  28.919  0.0235 -0.1214 -0.1932
29069W        W72085  19.573   1.480   7.727 -0.2457 -0.0139 -0.1402
29070W        W72086  32.054  29.014   3.811 -0.0331  0.3135  0.4809
29071W        W72087  16.767  30.801  10.188 -0.3055 -0.2968 -0.2359
29072W        W72088  21.303  20.936  22.136  0.1847  0.2909  0.3230
29073W        W72089  30.541   7.941   8.771  0.1582 -0.2432  0.1244
29074W        W72090  22.479  29.120   0.052  0.0615  0.1180 -0.0143
29075W        W72091   5.622   7.375  25.904 -0.1983 -0.0232  0.1772
29076W        W72092  13.012  32.025   5.296  0.0033 -0.0520 -0.1095
29077W        W72093  23.299  27.727  23.353 -0.0230  0.1989  0.3022
29078W        W72094  25.049  32.546   8.970 -0.1193 -0.0327 -0.1222
29079W        W72095  11.576   9.455  20.755 -0.0326 -0.0409 -0.0687
29080W        W72096  17.466   6.021   3.777 -0.2307 -0.1969 -0.5722
29081W        W72097  19.487   2.615   9.695 -0.0523  0.3216 -0.0445
29082W        W72098  18.315  28.355   2.219 -0.0108 -0.1095 -0.0959
29083W        W72099  11.052  12.058  23.583  0.1821  0.0088  0.0533
29084W        W72100  25.733  12.616  16.154 -0.2252  0.2448 -0.1963
29085W        W72101  14.397   3.966   4.380  0.1373 -0.1379 -0.0365
29086W        W72102  27.587  16.763   7.546  0.0029  0.0263  0.1235
29087W        W72103  19.524  23.373  20.966  0.1027  0.0743 -0.0943
29088W        W72104  21.816  23.313   8.744 -0.0620 -0.0672 -0.1406
29089W        W72105   2.813  32.818  27.505  0.2489  0.3477  0.0546
29090W        W72106  26.656  22.942  25.464  0.0471 -0.0636  0.0423
29091W        W72107   8.799  12.582  15.646  0.1441  0.3995  0.2406
29092W        W72108  30.548  29.317   8.422  0.2141  0.0634 -0.0089
29093W        W72109  13.894  29.333  10.432 -0.4117  0.2430  0.1514
29094W        W72110  20.435   3.041   8.500  0.1875 -0.1397 -0.0233
29095W        W72111   3.875   2.525   3.137  0.3586  0.1453 -0.3125
29096W        W72112  15.083  25.528  27.477  0.0700  0.2620 -0.0307
29097W        W72113  14.627   4.148  16.548  0.3212  0.0404 -0.0452
29098W        W72114  13.199  31.886   8.765 -0.0599 -0.2652 -0.1448
29099W        W72115  19.443   1.078   4.189 -0.0497  0.1974  0.1086
29100W        W72116  16.953   4.294   8.025  0.0278  0.1242 -0.0494
29101W        W72117  20.334  24.070  28.132 -0.1335  0.5567  0.0911
29102W        W72118   9.725   0.368   3.251  0.1050  0.1825  0.1684
29103W        W72119  32.382   4.535   0.168  0.0139  0.0831 -0.2363
29104W        W72120  23.011  30.980   8.601 -0.1693  0.0032 -0.2907
29105W        W72121  28.451   7.045  22.666  0.1918 -0.0856  0.1151
29106W        W72122  25.643  18.617   9.292  0.3514 -0.0126 -0.1649
29107W        W72123  15.634  28.485   3.699  0.0509 -0.0092  0.1976
29108W        W72124  11.490   1.040  14.974 -0.0269 -0.0691  0.0074
29109W        W72125  27.393  29.240  28.253  0.0064 -0.0145  0.4203
29110W        W72126  24.348  26.259   8.554  0.2513 -0.0183  0.0922
29111W        W72127   8.935  27.922   6.523 -0.1635 -0.0131 -0.3413
29112W        W72128  29.343  28.519   8.893 -0.0306  0.1213 -0.0199
29113W        W72129  24.827   6.174  11.010 -0.3711  0.1336  0.2384
29114W        W72130  12.980   2.464  14.496 -0.0877  0.2858 -0.0441
29115W        W72131  22.225   8.807  26.455  0.2364 -0.1976  0.0928
29116W        W72132   9.759  31.169   3.703  0.2941 -0.1698 -0.1436
29117W        W72133  22.848  15.705  19.433 -0.2817  0.1213  0.0801
29118W        W72134  12.499  13.503  25.836 -0.0437 -0.0455  0.2936
29119W        W72135  16.948  25.165   8.153  0.0575  0.0823 -0.0267
29120W        W72136  13.946  32.372   0.145 -0.1552  0.1044  0.1308
29121W        W72137  32.125   1.842   1.699  0.1189 -0.0728 -0.4022
29122W        W72138  14.706   8.188  23.996 -0.3515  0.0626  0.0806
29123W        W72139  31.764  25.985  21.176 -0.0142  0.1412  0.0711
29124W        W72140  21.940  24.349  28.362 -0.2153  0.2063 -0.2770
29125W        W72141  27.220  23.039  28.818 -0.1399  0.0044  0.0337
29126W        W72142  27.051  10.476  28.380 -0.0956  0.0710  0.0804
29127W        W72143  19.040  22.700   1.517 -0.0664  0.2510  0.0361
29128W        W72144  26.721  13.953   6.574 -0.0174  0.0372 -0.1055
29129W        W72145   9.701   5.750   1.432 -0.1182  0.3351 -0.1492
29130W        W72146  25.149  32.230  18.233  0.0679 -0.0644 -0.0909
29131W        W72147  28.196   0.559   7.150  0.0805 -0.1051  0.0537
29132W        W72148  12.546   2.238  23.032  0.0895 -0.2740  0.1808
29133W        W72149  10.559   5.022   3.238  0.1557  0.3285 -0.0745
29134W        W72150   0.161  28.320   2.433 -0.2748  0.0420  0.2148
29135W        W72151  23.642  12.120   6.624 -0.1448 -0.1872 -0.0773
29136W        W72152  12.483  31.048  18.109 -0.0284  0.0810  0.1944
29137W        W72153  14.559   7.588   2.442 -0.2149  0.2350 -0.0698
29138W        W72154   8.539   1.992  27.558 -0.1479 -0.1793  0.1019
29139W        W72155  19.480  22.227   7.298 -0.0037 -0.0493 -0.1847
29140W        W72156  10.720   4.625   5.617 -0.1178 -0.0097 -0.1987
29141W        W72157  26.726  19.629   0.547 -0.1330 -0.0046 -0.0373
29142W        W72158  23.050   3.807   3.046 -0.1303 -0.0349  0.0519
29143W        W72159  20.047  21.318   1.666  0.0198  0.4076 -0.2215
29144W        W72160  13.790  27.809   7.437  0.2457 -0.1152  0.2210
29145W        W72161  25.209  10.065  18.229 -0.2073  0.0967  0.5751
29146W        W72162   0.306  25.617  20.930  0.0194  0.2294  0.2171
29147W        W72163  10.207  12.654   7.352 -0.2995  0.1977  0.3765
29148W        W72164  18.618   4.709   5.800  0.0098  0.0558 -0.0175
29149W        W72165  17.413  20.820   8.989  0.0911 -0.0867 -0.1270
29150W        W72166  27.452  32.644  27.996  0.1680  0.0104 -0.1597
29151W        W72167  26.834   7.775   8.939  0.1639  0.0157  0.0531
29152W        W72168  24.755   6.682   5.526 -0.1246 -0.1523 -0.0587
29153W        W72169  30.069  34.105   2.809 -0.0485  0.0708 -0.2936
29154W        W72170   0.936  32.023   6.948  0.0813  0.1315  0.3190
29155W        W72171  26.728  25.944   6.787 -0.0151 -0.0486 -0.1710
29156W        W72172  19.713  10.354  22.223  0.1429 -0.0178 -0.1833
29157W        W72173  32.663  24.394   7.676 -0.0292  0.0773 -0.0084
29158W        W72174   4.777  13.653   0.539 -0.0843 -0.0454 -0.1795
29159W        W72175  18.625  17.478  28.340 -0.0097  0.1412  0.0632
29160W        W72176  26.070  26.675  29.061  0.0091 -0.0887 -0.1377
29161W        W72177  31.572  15.999   0.201 -0.3037  0.1506 -0.1155
29162W        W72178  26.755  17.447  26.124 -0.0432 -0.0852 -0.0860
29163W        W72179  17.789  34.218   0.835 -0.3296 -0.0019 -0.3808
29164W        W72180  26.936  30.204  11.835  0.0489 -0.0437 -0.1900
29165W        W72181  13.804   2.847   8.858  0.1109 -0.4484  0.1713
29166W        W72182  33.886   3.860  22.190  0.2876 -0.3696  0.1197
29167W        W72183  19.025  24.701   5.819 -0.1780 -0.0085 -0.0219
29168W        W72184  18.211  29.466  27.965  0.0279 -0.2757  0.1340
29169W        W72185   3.710   6.964   6.509 -0.0811 -0.0594 -0.2058
29170W        W72186   0.400  31.551  14.438  0.1403  0.0535 -0.3638
29171W        W72187  20.933  17.542   5.483 -0.2708 -0.1516  0.0400
29172W        W72188   3.306  14.108   5.468  0.0445 -0.1977 -0.1064
29173W        W72189  12.864  30.929   2.653 -0.0566  0.0220  0.1142
29174W        W72190   4.052  12.129   0.496 -0.2442  0.2727 -0.1912
29175W        W72191  19.704  34.263   8.408 -0.1943 -0.0971  0.3873
29176W        W72192  19.012  16.387   3.214 -0.2735 -0.0359 -0.1644
29177W        W72193  22.317   4.007  28.027 -0.0459 -0.1088 -0.0067
29178W        W72194  25.089  33.672  15.466 -0.0149 -0.0153  0.0553
29179W        W72195  13.210  31.713   2.591 -0.2596 -0.1263  0.0076
29180W        W72196  10.889  11.849   3.795 -0.0236 -0.2052 -0.1150
29181W        W72197   8.814   2.054  26.069  0.0900  0.1601 -0.0200
29182W        W72198  23.775  33.483  28.701 -0.0101  0.0033 -0.0278
29183W        W72199  29.693  10.556   8.013  0.0493 -0.0851  0.3130
29184W        W72200   9.608   8.797  17.412  0.3164  0.0310 -0.1006
29185W        W72201  25.253  34.126  25.722 -0.0505  0.0971 -0.1431
29186W        W72202  33.349  29.356   1.253 -0.1781  0.0420 -0.0790
29187W        W72203  20.955  22.334   4.523  0.2695  0.0391 -0.0980
29188W        W72204  15.230  11.411   3.551 -0.1861  0.3741 -0.2330
29189W        W72205  21.780  34.442   2.865 -0.0573  0.1923  0.0222
29190W        W72206  25.203  33.149   0.413  0.1074  0.4449  0.1057
29191W        W72207  24.622  28.466   8.767 -0.3900  0.3192 -0.1220
29192W        W72208   7.600  14.694  28.736 -0.3995 -0.1050 -0.0595
29193W        W72209  16.531  24.941   8.903  0.1846 -0.2662 -0.0932
29194W        W72210  15.260  31.961   0.123  0.2248 -0.1334 -0.2856
29195W        W72211  29.933  21.270  24.542 -0.4227 -0.2421 -0.1251
29196W        W72212  31.334   6.580   9.949  0.3297 -0.0855  0.2926
29197W        W72213   3.609   0.766   5.274  0.1528 -0.3663 -0.1670
29198W        W72214  24.048   3.019  11.034  0.1621  0.2105 -0.4769
29199W        W72215  32.927  33.618   4.721 -0.1903  0.2740 -0.3968
29200W        W72216  18.003   6.476   1.806  0.2210 -0.0164 -0.1086
29201W        W72217  25.753  23.559  27.008 -0.2127 -0.1172 -0.1143
29202W        W72218   9.136  17.289   1.290 -0.0993 -0.0988  0.0702
29203W        W72219  23.604   7.710  28.611 -0.5907  0.0687 -0.2315
29204W        W72220  31.448  21.360   0.085  0.0896 -0.4342 -0.0771
29205W        W72221  20.611  31.478   2.772 -0.0930  0.3036  0.3383
29206W        W72222  27.638   7.223  10.014  0.3105 -0.0470 -0.1812
29207W        W72223  13.484  18.260  22.704 -0.2709  0.0290 -0.2468
29208W        W72224   5.286   7.881  20.730 -0.2001  0.0927  0.0085
29209W        W72225  23.805  32.069   8.350 -0.1461 -0.4308 -0.1348
29210W        W72226   6.314  31.325  19.069 -0.2167  0.1616  0.1540
29211W        W72227  21.339  30.436  28.833 -0.1904  0.1539  0.1723
29212W        W72228   7.837  12.135  20.402 -0.0965  0.1420  0.0666
29213W        W72229   3.699  31.218   5.665  0.0864 -0.3061  0.1802
29214W        W72230  31.685  29.524   9.269  0.2017 -0.1078 -0.1395
29215W        W72231  28.570  27.249  28.623  0.2525 -0.3811  0.0684
29216W        W72232   8.754  29.514  26.708  0.4667  0.1340 -0.1405
29217W        W72233  28.492   5.591  17.515 -0.5051  0.0313 -0.0404
29218W        W72234  18.476   6.908  15.213  0.0109  0.2379  0.0207
29219W        W72235  34.504  34.777   4.997 -0.0567  0.3785 -0.2191
29220W        W72236  11.919  30.935   0.046 -0.1663  0.0440  0.1293
29221W        W72237   3.173   5.185  27.149  0.2298 -0.0629 -0.2516
29222W        W72238   9.316  10.794   3.103  0.1675 -0.0249 -0.0969
29223W        W72239   5.762   4.352   1.881  0.4789 -0.0352  0.0335
29224W        W72240  24.657   4.559   3.658  0.1101 -0.2361 -0.0343
29225W        W72241  33.483  34.020  29.271  0.1714 -0.1168 -0.0646
29226W        W72242  28.690  19.027  10.588 -0.2127 -0.2696  0.0181
29227W        W72243  22.624  15.184   5.734  0.0532 -0.1590  0.0609
29228W        W72244  15.816   9.663  27.461  0.3602 -0.1487 -0.0003
29229W        W72245  18.061  19.807   0.226 -0.1346 -0.1010 -0.0875
29230W        W72246  12.113  30.480  27.661  0.2257 -0.1931  0.1178
29231W        W72247  23.169  28.072   7.554 -0.0703  0.1282  0.0971
29232W        W72248  20.496  13.738  23.855  0.2320  0.1447  0.0211
29233W        W72249  12.357  19.815  28.833  0.2219  0.0411 -0.1439
29234W        W72250   5.874  15.459   0.841  0.0045  0.1152 -0.2467
29235W        W72251   0.260  31.918  23.693 -0.1734 -0.0682  0.0528
29236W        W72252  22.418   7.744  25.142 -0.2551 -0.2852 -0.2876
29237W        W72253  14.689  30.843   4.920  0.1996 -0.0406  0.1798
29238W        W72254  11.575  25.971  26.849  0.1536 -0.0258  0.2296
29239W        W72255   2.686  24.640   3.492 -0.1285 -0.1454  0.3246
29240W        W72256   9.124  19.549   6.296 -0.2157  0.1559  0.0555
29241W        W72257  27.132  26.390  18.115  0.0264  0.0274 -0.0303
29242W        W72258  21.628   5.268   2.568 -0.0775 -0.0002  0.1819
29243W        W72259  21.524  33.136  24.060 -0.1743  0.0173 -0.2462
29244W        W72260  29.197  23.916   9.192  0.1514 -0.0608  0.3938
29245W        W72261  27.860   4.680  23.154  0.2180 -0.1745  0.0716
29246W        W72262  24.524  25.865   6.751 -0.2648 -0.1509  0.0427
29247W        W72263  28.498  25.177   1.129  0.0004 -0.1381 -0.0202
29248W        W72264   8.185   4.534   1.248 -0.1374  0.2649  0.0908
29249W        W72265  27.219  31.089   4.382  0.0466  0.1158 -0.0246
29250W        W72266  16.348  24.520  27.813 -0.3283  0.0104  0.2046
29251W        W72267  23.346  30.569  23.007  0.0335  0.1306 -0.1399
29252W        W72268  20.903  31.735  19.292 -0.2047  0.1678  0.1104
29253W        W72269  20.203  17.587  21.397 -0.0941 -0.1962 -0.0022
29254W        W72270  25.560  27.132  11.093 -0.1453 -0.1010  0.1593
29255W        W72271  29.259  21.515   7.449  0.0491 -0.2705 -0.1022
29256W        W72272  27.136  31.884   9.606  0.0813 -0.1174 -0.0392
29257W        W72273  17.968   9.501  12.067 -0.0999  0.0545 -0.1525
29258W        W72274  21.982  27.029   3.335 -0.0557 -0.1028 -0.0470
29259W        W72275  21.567  28.104  26.110 -0.0463  0.0643  0.2771
29260W        W72276  24.685   4.019   7.413  0.1089  0.0329  0.1868
29261W        W72277  20.657  31.234   9.657  0.1416  0.2978  0.0120
29262W        W72278  25.850  19.813  23.382 -0.0108  0.1057  0.1614
29263W        W72279  24.005  24.661   0.533 -0.0512 -0.2614  0.0856
29264W        W72280   6.989  16.254   2.626 -0.0650  0.0350  0.4047
29265W        W72281   8.810  17.921  18.288  0.0853 -0.1270  0.1721
29266W        W72282  10.072  26.692  19.320  0.1352  0.0212 -0.0317
29267W        W72283  21.195   2.156   8.076 -0.2593 -0.0124 -0.0145
29268W        W72284  23.422  31.165   3.946 -0.0315 -0.1697  0.0234
29269W        W72285  17.327  20.167  22.151 -0.1395 -0.1387 -0.0959
29270W        W72286  21.336  15.469  19.480  0.1560  0.1007 -0.0943
29271W        W72287  29.337  26.822   9.132 -0.0164 -0.0004  0.4369
29272W        W72288  29.686   7.271   0.071 -0.2733 -0.0463 -0.1818
29273W        W72289  24.961  20.433  27.995  0.1424  0.2460 -0.0355
29274W        W72290  26.301   3.385   7.719  0.0141 -0.1323 -0.1958
29275W        W72291  21.986   7.659   2.701  0.0839  0.0273  0.1118
29276W        W72292  24.502   7.271   9.623 -0.0496 -0.0016 -0.3171
29277W        W72293  26.139  34.002   9.264 -0.3075  0.2462 -0.2546
29278W        W72294  25.977   3.436  10.897 -0.1841 -0.0648  0.0918
29279W        W72295  25.327   8.266  28.878  0.0008 -0.3257  0.1494
29280W        W72296  24.748  27.248   3.945  0.1709 -0.1439  0.1029
29281W        W72297  18.827  32.597   6.673 -0.0665 -0.3156  0.2185
29282W        W72298  21.133  31.229   7.426 -0.3572  0.1521  0.2002
29283W        W72299  17.606   1.437   1.938 -0.0439  0.2082  0.0117
29284W        W72300  10.021  15.935   4.452 -0.0458 -0.2703  0.3336
29285W        W72301   8.846  30.797   6.616  0.0822 -0.0326 -0.2052
29286W        W72302   9.955  30.637   6.741 -0.0395  0.1135 -0.2875
29287W        W72303  25.102   3.123   4.206  0.1364 -0.1362 -0.0607
29288W        W72304  22.528  24.129  16.777 -0.5373 -0.1587 -0.3237
29289W        W72305  11.154   9.614  23.761 -0.0828 -0.1860  0.0171
29290W        W72306   4.667  32.566  20.735  0.1414 -0.1611 -0.2669
29291W        W72307  17.095  33.788  27.369 -0.2060  0.0769 -0.0631
29292W        W72308  22.596  15.459  24.298 -0.2293  0.0690 -0.0154
29293W        W72309  26.324  30.622   0.954  0.2349  0.0491  0.0935
29294W        W72310   1.463   6.567   4.288  0.1984  0.1415  0.0063
29295W        W72311  25.372  23.191   8.888  0.0096 -0.1847 -0.0946
29296W        W72312  28.126  30.869   4.342  0.0721 -0.4117  0.1849
29297W        W72313   0.203  24.656   8.153 -0.1001 -0.2084  0.2077
29298W        W72314   2.906  28.501  28.556  0.2615  0.0339  0.1855
29299W        W72315  32.226  27.404  27.007 -0.3304 -0.0857 -0.0711
29300W        W72316  24.576  31.544   7.825 -0.0152  0.1359 -0.0287
29301W        W72317  24.187  20.081  26.970  0.1222  0.2230  0.1793
29302W        W72318  20.076  14.909   9.116 -0.2749  0.1463 -0.3327
29303W        W72319  12.910  30.438   9.257 -0.0648 -0.1449 -0.4330
29304W        W72320  23.485  30.144   7.084  0.0908 -0.0639  0.0059
29305W        W72321  12.854   6.300   1.372  0.3991 -0.1244  0.0702
29306W        W72322  25.299   1.009   7.352 -0.3360 -0.3505 -0.0571
29307W        W72323  22.461  29.933   9.375 -0.0988 -0.0638 -0.0254
29308W        W72324  13.990  30.154   2.653 -0.2000  0.3305  0.0917
29309W        W72325  19.593   0.383  25.582 -0.1415 -0.1015  0.3416
29310W        W72326   1.965  13.507   1.848 -0.0950 -0.2255  0.0808
29311W        W72327  33.578  14.623   2.685  0.0700  0.0244 -0.1161
29312W        W72328  20.964  13.856  24.074 -0.1088 -0.0534 -0.0359
29313W        W72329  32.271  25.803   6.200  0.1886 -0.1185 -0.3043
29314W        W72330  20.513  34.601  18.251 -0.0611  0.0769  0.2472
29315W        W72331  31.163  28.261   9.231  0.1210  0.1353 -0.2661
29316W        W72332   4.138   5.213   0.634  0.1984  0.5273 -0.1276
29317W        W72333  30.987  20.053   2.987  0.0384  0.1812  0.3254
29318W        W72334   4.036  27.958   3.050  0.0777 -0.0719  0.1349
29319W        W72335  31.099  20.387   4.079  0.1631 -0.0002  0.0397
29320W        W72336  26.211   5.663  26.106 -0.2381  0.2529 -0.1347
29321W        W72337   2.972   3.220   0.763 -0.0967 -0.0788  0.1360
29322W        W72338  27.591   7.176   8.617 -0.1268  0.1136 -0.1091
29323W        W72339  23.219  18.643   9.539 -0.0957  0.1698  0.0532
29324W        W72340  29.613   2.406   0.965  0.1682 -0.0562  0.2598
29325W        W72341  16.351  27.717  21.797  0.1397  0.0558 -0.1013
29326W        W72342   2.840  28.378  27.740  0.0403 -0.2003 -0.0772
29327W        W72343  32.494  17.563   8.097 -0.2819  0.0713 -0.0360
29328W        W72344  18.940   6.376   8.015  0.1469  0.0111 -0.2980
29329W        W72345  25.692  15.446   4.804 -0.0889 -0.0427  0.0261
29330W        W72346  13.439  18.450  23.189 -0.0721  0.0512  0.0279
29331W        W72347  21.486   9.639   0.537  0.1647 -0.0753  0.0277
29332W        W72348  29.678  30.917   0.562  0.1408  0.0627  0.1152
29333W        W72349   4.192  26.756   0.560 -0.0508 -0.0341 -0.1305
29334W        W72350   6.221  27.793   5.587 -0.2861  0.3494 -0.1821
29335W        W72351  12.510   2.237  14.573 -0.1887  0.0438 -0.0306
29336W        W72352  25.318   8.995  29.247  0.1623  0.1788 -0.1611
29337W        W72353  31.381   8.472   9.685 -0.1225  0.1225  0.1606
29338W        W72354  26.688   9.996   5.656 -0.0396  0.0352  0.0415
29339W        W72355  34.633  17.673  10.892 -0.1741 -0.0366  0.0310
29340W        W72356  10.040  18.246  24.753 -0.0134  0.1002  0.0704
29341W        W72357  16.852   5.374  10.355  0.2610  0.0795  0.0874
29342W        W72358  28.223  16.586   7.453  0.1969  0.1925  0.3149
29343W        W72359  32.098  15.351  28.266  0.0007  0.2733  0.0418
29344W        W72360  29.648  32.060   6.593  0.1380 -0.1715 -0.0850
29345W        W72361  32.959  32.911   7.630  0.1058 -0.1394  0.0725
29346W        W72362   1.411  29.208   3.896 -0.0175  0.1708 -0.1592
29347W        W72363  19.866   4.425  21.597 -0.3639  0.0121 -0.0894
29348W        W72364  23.813  26.949   5.474  0.1653  0.0184 -0.1238
29349W        W72365   7.723  23.730  26.731  0.2049 -0.1383  0.2283
29350W        W72366  25.020  30.398   9.196  0.1421 -0.1333 -0.1869
29351W        W72367  11.564  15.191   7.617 -0.0066  0.3901 -0.1774
29352W        W72368  34.210   6.704   9.694 -0.1560 -0.1473  0.0291
29353W        W72369  33.161  31.787  28.211 -0.3408 -0.0725 -0.2768
29354W        W72370   5.500   2.743   4.740 -0.0044 -0.0000  0.4333
29355W        W72371  27.575  12.279  26.442 -0.1994  0.1085 -0.0915
29356W        W72372  15.480  24.755   4.252  0.2806 -0.1692  0.1263
29357W        W72373  22.472  12.143  23.010  0.3871 -0.0167 -0.3379
29358W        W72374   0.632   2.430  21.962 -0.3073 -0.0265  0.5501
29359W        W72375  14.929  13.569  24.362  0.1505  0.0905 -0.4261
29360W        W72376  20.172  21.017   8.433 -0.1244 -0.1607 -0.1914
29361W        W72377  34.122  24.353   7.795 -0.0731 -0.1060 -0.1622
29362W        W72378  27.010   4.996   6.851 -0.4381  0.2375 -0.1492
29363W        W72379  22.883   3.463  28.750 -0.0661 -0.2670 -0.0446
29364W        W72380  10.277   3.813   2.127  0.1266  0.1539  0.3532
29365W        W72381  26.845   2.808   4.950 -0.0738 -0.1107 -0.0030
29366W        W72382  13.754  29.598   2.360 -0.1513 -0.2181  0.1819
29367W        W72383  28.858   7.591  22.185  0.0704  0.1839  0.2443
29368W        W72384  23.155  24.311   0.175  0.1827 -0.1477  0.1224
29369W        W72385   9.883  31.446   7.691 -0.1045 -0.0367  0.1445
29370W        W72386  27.309  22.475   7.624  0.0569 -0.2300 -0.2499
29371W        W72387  28.930  22.303   9.553  0.1457  0.0033 -0.0535
29372W        W72388  30.452   6.852   4.121 -0.0870  0.3056  0.0067
29373W        W72389  17.566   0.715   8.063  0.3642 -0.3498  0.2509
29374W        W72390  25.053  21.530  18.193 -0.0472 -0.1398  0.0377
29375W        W72391  14.522  33.011   1.132 -0.0385 -0.1383  0.0800
29376W        W72392  31.365   7.194   5.405 -0.4229 -0.0451 -0.0702
29377W        W72393  33.134  22.966   5.601  0.0321 -0.3225  0.1478
29378W        W72394  13.133  31.190  27.334 -0.1649 -0.0829  0.0201
29379W        W72395  33.100  19.007   5.420 -0.3240  0.4541  0.0400
29380W        W72396   6.240   4.477   2.025  0.0681 -0.2583 -0.0225
29381W        W72397  20.703  12.607   4.446  0.0504 -0.1859  0.0737
29382W        W72398  19.073  30.182   7.387  0.1475 -0.0038 -0.2787
29383W        W72399  18.574   4.014   5.717 -0.2209 -0.2689  0.1617
29384W        W72400  21.089  15.578   9.442 -0.1450 -0.0235  0.1177
29385W        W72401  10.811  11.054  23.935 -0.5203  0.3145  0.0110
29386W        W72402  29.448  32.693   9.256 -0.2499 -0.0843 -0.1347
29387W        W72403  30.590  21.920   2.284 -0.1261  0.0425  0.1923
29388W        W72404   4.526   1.881   4.510 -0.0544  0.1076 -0.1663
29389W        W72405   5.802  31.925   7.314 -0.1814  0.1048 -0.0603
29390W        W72406   9.637   2.475  26.255 -0.4678  0.4894 -0.0003
29391W        W72407  22.305  21.899   2.612  0.5766  0.1087 -0.1568
29392W        W72408  32.186  12.219   4.186  0.1763  0.1451  0.1263
29393W        W72409  23.640   0.072  27.701  0.2142 -0.2104 -0.0470
29394W        W72410  27.435  20.619  22.679 -0.2579 -0.1049 -0.1803
29395W        W72411  30.693  17.946   5.114  0.2151 -0.1722 -0.4129
29396W        W72412  28.424  25.191   7.159 -0.1251 -0.1620 -0.1658
29397W        W72413  16.997  30.959   4.816 -0.0268 -0.0581 -0.2455
29398W        W72414   3.272   1.752   7.244 -0.2160 -0.1868  0.1417
29399W        W72415   2.334  30.239  24.746 -0.0296 -0.0012 -0.3261
29400W        W72416  33.005  32.859  28.705 -0.1844 -0.0289 -0.1058
29401W        W72417   1.645  26.483   2.520 -0.3152 -0.1742  0.2073
29402W        W72418   0.300  30.991   2.100 -0.0680 -0.0653  0.1065
29403W        W72419  20.352  34.583   9.081 -0.2569 -0.2711 -0.1760
29404W        W72420  19.958   1.918   9.244 -0.1151 -0.0735 -0.0889
29405W        W72421  15.008  24.007   4.484 -0.2285  0.2434 -0.1503
29406W        W72422  18.854  26.087   7.474  0.3209 -0.2078 -0.1385
29407W        W72423  33.125  24.025   7.180 -0.2274 -0.0730 -0.1985
29408W        W72424  20.613  31.490  17.906  0.3764  0.2876 -0.0095
29409W        W72425  23.799  28.481   8.320 -0.2882  0.0039  0.7236
29410W        W72426  31.323  31.761  11.449  0.0457  0.3026 -0.1337
29411W        W72427  18.954  25.504   0.659  0.1112  0.1075 -0.1717
29412W        W72428  20.909  26.195   1.585 -0.2793 -0.1475  0.1127
29413W        W72429  27.039   2.114   5.697  0.0113  0.0064  0.3073
29414W        W72430  13.404  31.157   6.538  0.1603  0.4123 -0.1386
29415W        W72431  17.482  20.758  27.335  0.1380 -0.3323  0.0230
29416W        W72432  27.897  30.615   8.026  0.1871  0.0489  0.0083
29417W        W72433  15.272   2.377   4.491  0.1808 -0.0576 -0.2030
29418W        W72434  17.826   0.398  15.746 -0.1402 -0.1545 -0.1785
29419W        W72435  20.013  33.449  28.259 -0.3289 -0.4307 -0.0661
29420W        W72436   5.013   0.495   9.614  0.2238 -0.2227 -0.3142
29421W        W72437   2.586   2.106   4.195 -0.0710  0.1103  0.3755
29422W        W72438  31.165  31.537   5.560  0.1631 -0.2289 -0.0777
29423W        W72439   8.020  32.481   6.710 -0.2156  0.1348  0.2782
29424W        W72440   5.100  26.941  22.586 -0.0307 -0.0339 -0.0846
29425W        W72441  14.494  12.223   6.838 -0.0692 -0.0700 -0.0495
29426W        W72442   2.482   5.260  25.408 -0.2496 -0.2954  0.2396
29427W        W72443  30.981   2.912   9.501 -0.5418 -0.0383  0.0064
29428W        W72444  24.186  18.362  20.291  0.0667  0.0711 -0.1010
29429W        W72445   4.766  31.025   6.629  0.0521 -0.0675  0.1184
29430W        W72446  21.605  14.514  23.748  0.3832 -0.0427 -0.0838
29431W        W72447  26.343  34.454   3.047 -0.1483 -0.2518 -0.1338
29432W        W72448  16.390  31.834   1.354 -0.1971 -0.1959  0.1827
29433W        W72449  10.824   4.805   0.874 -0.1196  0.1371 -0.1819
29434W        W72450  24.882   2.146  10.278 -0.2645 -0.0550 -0.2145
29435W        W72451  25.570  32.518   6.760  0.0102 -0.1261 -0.0872
29436W        W72452  34.380  33.073   8.554 -0.0650  0.0260  0.0072
29437W        W72453  11.858  27.794   7.771 -0.1651  0.0322  0.1300
29438W        W72454  13.565  20.178   8.107 -0.3468 -0.0834 -0.2499
29439W        W72455  15.073  23.663  26.996  0.2597  0.2629  0.0971
29440W        W72456  14.628  30.944  14.506  0.3728 -0.2828  0.2494
29441W        W72457  21.398  18.689   8.845 -0.2348  0.0858 -0.2976
29442W        W72458   4.491   5.687   7.542 -0.0017 -0.2499  0.0093
29443W        W72459  32.103  34.297  19.935 -0.1832  0.2904 -0.1295
29444W        W72460  10.142   8.011  26.832 -0.2080  0.0300  0.0705
29445W        W72461   0.784  28.184  18.142  0.1532  0.2336  0.0693
29446W        W72462  17.139  23.531  19.888 -0.1766  0.2857 -0.1613
29447W        W72463  24.584  24.420   4.353 -0.0003  0.3916 -0.1958
29448W        W72464  18.904   8.997  28.495  0.2686  0.2316 -0.1628
29449W        W72465  26.438   2.121  28.822  0.1372  0.1853 -0.2559
29450W        W72466   0.026  25.942   4.360 -0.1558 -0.2559 -0.1218
29451W        W72467  22.700  11.668   8.318  0.2704 -0.2350 -0.0780
29452W        W72468  23.594   1.756   5.643 -0.1770  0.0671 -0.3146
29453W        W72469   9.088   3.163  27.195  0.2826 -0.0145 -0.2156
29454W        W72470  28.269   4.047  23.966 -0.0390 -0.1782 -0.0667
29455W        W72471  28.924  26.407   0.319 -0.0140  0.1760  0.3152
29456W        W72472  16.272  24.903   9.786  0.0263  0.0337 -0.2114
29457W        W72473   5.996  30.226   5.695  0.3638 -0.0733  0.1034
29458W        W72474   6.093   1.259  25.743 -0.1429  0.4850  0.0476
29459W        W72475  26.825   4.858  28.811  0.1974 -0.2784 -0.0219
29460W        W72476  22.894   1.888  10.417  0.1550  0.0848 -0.0810
29461W        W72477  14.539  33.357   8.179 -0.4072  0.2219  0.1457
29462W        W72478  32.037  18.140   2.365 -0.2519 -0.2848 -0.0611
29463W        W72479  18.808  31.317  20.208 -0.2361  0.0130 -0.0541
29464W        W72480  24.393  26.474  28.575  0.0308  0.0985 -0.2190
29465W        W72481  20.871  21.623  24.745 -0.0391  0.0578  0.1502
29466W        W72482  24.438  14.418   0.413 -0.1062  0.1608 -0.0676
29467W        W72483  18.679  29.302   3.041 -0.0943 -0.0178 -0.3297
29468W        W72484  34.373   2.628   2.477 -0.0153 -0.0263 -0.1034
29469W        W72485  32.991   9.695   9.238 -0.0242  0.0606  0.2420
29470W        W72486  19.553  30.517  21.301  0.2183  0.2553 -0.2073
29471W        W72487  17.584  15.534   6.432 -0.0526 -0.0820 -0.0276
29472W        W72488  16.729  10.408  28.592 -0.1729 -0.1028  0.3404
29473W        W72489  23.558  30.974  21.751  0.3063 -0.3425  0.0512
29474W        W72490  29.210  20.032   5.206 -0.1742  0.1659  0.2995
29475W        W72491  13.162  26.764  26.792 -0.1680 -0.0592  0.1547
29476W        W72492   1.195  22.545   5.521 -0.1105 -0.1045 -0.0278
29477W        W72493  17.854  31.244  15.935 -0.0681 -0.0884  0.0829
29478W        W72494  18.375  29.693   0.265 -0.0052 -0.1269  0.0200
29479W        W72495   6.548  30.619   6.050 -0.1715  0.1377  0.4059
29480W        W72496  16.774   1.918  22.472  0.0475  0.1138 -0.4134
29481W        W72497  10.392  32.866   9.583  0.2036 -0.1572 -0.0572
29482W        W72498  17.406  21.706   5.684 -0.3635 -0.0341 -0.1643
29483W        W72499  12.725  33.782  28.187  0.1490 -0.0485 -0.2665
29484W        W72500  25.665  22.220  26.874  0.0262  0.2014  0.0055
29485W        W72501  32.004  21.391   4.509  0.0761  0.2328  0.1842
29486W        W72502  28.056  29.985   9.786 -0.0192  0.4239 -0.1741
29487W        W72503  20.498  18.693  21.747 -0.0545  0.1097 -0.2541
29488W        W72504  19.506   4.763   5.534  0.0706  0.2558  0.1183
29489W        W72505  28.587   2.150   7.551 -0.0141 -0.0225  0.0428
29490W        W72506  17.759  31.146   8.525  0.0155 -0.1044 -0.3838
29491W        W72507  29.948  28.185   9.604 -0.0671  0.0977 -0.0350
29492W        W72508   7.339   4.093   4.215 -0.0502  0.1357  0.2290
29493W        W72509  29.668  26.015   3.617  0.1359 -0.0001  0.0858
29494W        W72510  21.996  22.098   9.280  0.0928  0.0566 -0.1924
29495W        W72511  17.932   7.983   5.143  0.2621  0.1509  0.1771
29496W        W72512  21.409  17.109  22.197  0.2622 -0.3704  0.0156
29497W        W72513  32.391  10.218  27.822  0.3409  0.0295  0.1114
29498W        W72514  28.352   3.089   2.386  0.1188  0.0502 -0.1346
29499W        W72515  26.527  10.663  10.420 -0.2872 -0.1030  0.2983
29500W        W72516   1.016  13.278  24.445 -0.1108  0.3825 -0.0434
29501W        W72517  25.617  29.002  15.040  0.1403 -0.1381 -0.3399
29502W        W72518  17.058  31.042  24.295  0.1597 -0.1784  0.0595
29503W        W72519   9.198  25.765  27.687  0.1548  0.1222 -0.0749
29504W        W72520  11.976   7.082  21.761 -0.0319  0.0316  0.0712
29505W        W72521  21.828   2.014   0.222 -0.5248  0.1700  0.2320
29506W        W72522  26.137  27.508   1.218 -0.1614 -0.0670  0.1338
29507W        W72523  18.969  16.886   2.671 -0.4132  0.4137 -0.1974
29508W        W72524  27.175  13.911  28.714  0.2548 -0.1371  0.0395
29509W        W72525  33.065   8.808   8.827 -0.0829  0.0863  0.0455
29510W        W72526  26.250  23.418   7.636  0.1538  0.4354  0.0908
29511W        W72527  23.773   6.001  10.262 -0.1449  0.0589  0.0448
29512W        W72528  33.743   9.326   9.138  0.3784  0.2086  0.0955
29513W        W72529   1.618   7.406  22.279 -0.4660  0.1253 -0.0927
29514W        W72530  10.985   9.654  24.605 -0.0476  0.0148 -0.1945
29515W        W72531  28.842   2.909  17.789  0.1074 -0.1969 -0.4200
29516W        W72532  18.979  27.207   6.139  0.2997 -0.1181 -0.0496
29517W        W72533  26.327  20.224  10.961 -0.1566 -0.2916 -0.3949
29518W        W72534  31.006  25.602   7.147  0.2149  0.1542  0.1511
29519W        W72535  28.028  28.126   9.823  0.2040 -0.1159  0.1640
29520W        W72536   6.616   5.216   6.179 -0.0041 -0.0547 -0.0739
29521W        W72537  20.926  31.719   6.321  0.2034 -0.0317 -0.0009
29522W        W72538  12.423  33.208   9.547 -0.1418 -0.2391  0.2039
29523W        W72539  17.716  17.163  25.692 -0.0359 -0.0766  0.2004
29524W        W72540  29.044  33.445   3.337 -0.0737  0.1205  0.2511
29525W        W72541  22.113  22.439   4.458 -0.0479  0.2109  0.2361
29526W        W72542  30.406  22.911  10.112  0.0628  0.0392  0.2924
29527W        W72543  19.352  33.210   4.141 -0.4438  0.1205 -0.2653
29528W        W72544  28.197  24.223   6.080  0.0397  0.3819 -0.3463
29529W        W72545  15.969  29.430   6.747  0.2630  0.1227 -0.0486
29530W        W72546  33.985   3.143   3.878 -0.2851  0.2541  0.3446
29531W        W72547  23.210   6.680   7.682 -0.0698  0.0894  0.1619
29532W        W72548  19.638  13.261  22.685 -0.4404  0.2044  0.1062
29533W        W72549  14.865   9.694   3.377 -0.1760  0.0933 -0.1021
29534W        W72550  12.239  20.390  17.608  0.4012  0.3116 -0.0069
29535W        W72551  31.071   4.085   8.427  0.1166 -0.0765  0.1004
29536W        W72552  22.761  23.739   1.906 -0.0380  0.3005  0.1418
29537W        W72553   6.474   7.284  27.656  0.3552  0.4573  0.0693
29538W        W72554  26.105  11.334   9.796 -0.1424  0.3893  0.3262
29539W        W72555  19.145  30.528  26.681 -0.2269 -0.1879 -0.1004
29540W        W72556  26.670  24.170  25.357 -0.0768 -0.1791 -0.0053
29541W        W72557  28.293   1.932   8.867 -0.1797  0.1268  0.0502
29542W        W72558  26.044  34.281   6.859 -0.0281  0.0753  0.1345
29543W        W72559  24.552   7.966   2.157  0.0525 -0.3526 -0.0804
29544W        W72560  25.521  31.978  17.941  0.1228 -0.0309 -0.1214
29545W        W72561  24.420  21.031   3.868 -0.1615  0.1746 -0.2190
29546W        W72562   9.635   3.119   1.746  0.1287 -0.2932 -0.0037
29547W        W72563  16.105  21.404   1.330  0.2258 -0.0839 -0.0037
29548W        W72564  24.294   9.028  28.275  0.1599 -0.0192  0.2472
29549W        W72565  16.461  19.675   2.823 -0.1571 -0.1873 -0.2253
29550W        W72566  18.173  30.791   8.400 -0.1047  0.0132  0.0729
29551W        W72567  12.346  31.839   5.908  0.0990  0.2066 -0.0960
29552W        W72568  25.326  23.888   7.082 -0.1313  0.2111 -0.1655
29553W        W72569  18.543  26.913   8.478 -0.0259 -0.1932  0.0170
29554W        W72570  24.070   1.354   9.180  0.0720  0.2622 -0.1333
29555W        W72571  23.644  27.985   2.505  0.3845 -0.1027  0.0788
29556W        W72572  31.741  31.938  11.716  0.1218 -0.0990 -0.4218
29557W        W72573  27.688  27.612   4.226  0.1107 -0.0889  0.1319
29558W        W72574  15.966  28.309   4.621  0.0439  0.0055 -0.4622
29559W        W72575  34.449  26.305  22.365 -0.0554 -0.0793 -0.2841
29560W        W72576   7.073   1.638   2.077 -0.2588 -0.1447 -0.2804
29561W        W72577  16.235   9.193   3.198  0.1378 -0.1989 -0.0563
29562W        W72578   0.833  24.796   5.164 -0.2499  0.0747 -0.2700
29563W        W72579  20.878  11.589   0.398 -0.2293 -0.0140  0.0116
29564W        W72580  25.186   9.920   6.077  0.0555  0.2193 -0.2818
29565W        W72581  24.148  34.672   6.949 -0.1421  0.1210  0.3391
29566W        W72582  18.030  27.805  21.107  0.1716 -0.1615 -0.0725
29567W        W72583  18.910  19.981   7.625  0.0483  0.0516  0.0240
29568W        W72584  13.560  33.478   5.078  0.2958  0.1664  0.0907
29569W        W72585  26.955  26.704   3.145 -0.3452 -0.2494 -0.2174
29570W        W72586  19.477  20.264  25.656  0.2756  0.1482 -0.1926
29571W        W72587  31.488   3.619   7.313 -0.0895  0.0060  0.0966
29572W        W72588  13.559  25.479   1.555  0.1615 -0.1328  0.1338
29573W        W72589  24.353  14.152   5.848  0.2022  0.1108 -0.1306
29574W        W72590  15.473  20.399   1.660 -0.2369  0.2803 -0.1535
29575W        W72591   7.251  23.867  28.075  0.3545  0.1931  0.0664
29576W        W72592  25.291   0.044   8.301 -0.1351  0.0068  0.0302
29577W        W72593  25.357  24.673  28.746  0.0313 -0.0315  0.2037
29578W        W72594  21.173   6.354   3.195  0.2016  0.0454  0.2101
29579W        W72595  16.755  28.110   3.205  0.0052  0.1875 -0.0226
29580W        W72596  25.505   3.539   9.968 -0.2178  0.0895 -0.0518
29581W        W72597  25.369  28.439  16.826  0.0905  0.2860 -0.0798
29582W        W72598  22.157  29.005  25.604 -0.0671  0.1764 -0.1266
29583W        W72599   3.437  19.906   3.002  0.0406  0.0717 -0.0903
29584W        W72600  32.353   5.917  15.968  0.2220  0.0106 -0.1400
29585W        W72601  17.790  19.390   3.428 -0.1175 -0.0345  0.1832
29586W        W72602  23.653  13.127   0.394  0.0577 -0.1396 -0.3733
29587W        W72603  30.173   7.038  10.168  0.2258 -0.1919 -0.1731
29588W        W72604  29.614  32.344   8.273  0.0885  0.1198  0.1783
29589W        W72605   5.711  27.414   9.780  0.0173 -0.1095 -0.2168
29590W        W72606   0.262   9.561   8.697 -0.4210 -0.1708  0.0306
29591W        W72607  17.554  17.845   0.033  0.1814  0.3143 -0.1875
29592W        W72608  11.566   5.235   2.313  0.1718  0.0955 -0.1164
29593W        W72609  17.169  19.333   8.135  0.0534  0.0631  0.1132
29594W        W72610   0.388   6.526   5.496  0.4748 -0.0461  0.1709
29595W        W72611  21.059   4.502   1.787  0.4952  0.0993 -0.1698
29596W        W72612  30.459  24.993  11.007  0.0957 -0.3190  0.0924
29597W        W72613  20.249   6.035  25.525 -0.0763  0.0353  0.2247
29598W        W72614  20.663   3.500   7.004  0.2366  0.0836 -0.0523
29599W        W72615  30.659   5.284   0.892 -0.0503  0.1763  0.2098
29600W        W72616  22.361   3.008   9.654  0.0140  0.0670 -0.1092
29601W        W72617  26.930  26.419   1.676 -0.0558 -0.1885  0.0281
29602W        W72618  32.974   1.937   9.967 -0.1773  0.0309 -0.2266
29603W        W72619  15.054   9.563   2.066  0.1758  0.2962  0.1412
29604W        W72620   3.980  21.451   2.540  0.1438  0.1161  0.4687
29605W        W72621  33.468  11.949  28.246 -0.0281 -0.1064 -0.0965
29606W        W72622  21.736  18.479  26.971 -0.1374  0.3535  0.0819
29607W        W72623  21.557  23.307   1.615  0.0324 -0.1329  0.0546
29608W        W72624  13.471   1.311  10.361  0.2715  0.1777 -0.0572
29609W        W72625  23.063  12.625   5.068  0.1426 -0.1766  0.2678
29610W        W72626   6.843   9.847   1.801 -0.1879  0.1716  0.2417
29611W        W72627  29.239   6.415   7.151 -0.0786 -0.0812  0.0231
29612W        W72628  19.627   7.038   8.972  0.1172  0.1235  0.0897
29613W        W72629  20.785   1.384   5.531 -0.2153 -0.2172 -0.0712
29614W        W72630  14.269  20.534   7.486  0.2750  0.2688  0.1019
29615W        W72631  26.549  10.331  26.048  0.2415 -0.2983  0.0048
29616W        W72632  16.331   2.948   2.538  0.2247  0.1468  0.0414
29617W        W72633  15.675  33.532   7.892 -0.0142 -0.0715 -0.1403
29618W        W72634  28.094   9.617   9.345  0.1380 -0.0349  0.0123
29619W        W72635  29.877   8.729   0.627 -0.0371  0.2568  0.0775
29620W        W72636  26.794   0.377  11.339 -0.2295 -0.0675  0.4604
29621W        W72637  21.539  29.589   1.757 -0.0791  0.0307  0.2486
29622W        W72638  20.131  27.193   9.991  0.1508  0.1657 -0.1421
29623W        W72639  24.035  26.200   7.860 -0.1537 -0.1219 -0.0997
29624W        W72640  21.640  13.163  23.403  0.3018 -0.0572  0.0518
29625W        W72641  26.918  19.387   5.835  0.0483 -0.0671  0.1014
29626W        W72642  22.905  30.532   4.254 -0.0009 -0.0955  0.1847
29627W        W72643  25.172   3.219   9.804 -0.1402 -0.0127 -0.3373
29628W        W72644  28.092  31.032  11.234 -0.2137  0.0391  0.1349
29629W        W72645  24.848  32.759   7.105 -0.0849 -0.2501  0.0826
29630W        W72646  26.099  22.970   1.006  0.1214 -0.0241 -0.2691
29631W        W72647   1.361  17.475   5.618 -0.3774  0.0605 -0.0465
29632W        W72648  27.110   0.328  27.413  0.2046  0.0881 -0.1140
29633W        W72649  18.526  22.479   6.129 -0.0716 -0.2444 -0.0913
29634W        W72650  31.044  33.324  26.355 -0.2480  0.0755  0.1083
29635W        W72651  17.857   2.174   6.370  0.3226 -0.0885  0.0247
29636W        W72652  28.945  29.384  11.402  0.2508 -0.2896  0.2449
29637W        W72653  26.775  25.824   0.240 -0.1311  0.3664 -0.0395
29638W        W72654  32.122  16.503   6.239 -0.1444  0.4718  0.2143
29639W        W72655  15.402  31.106   3.563 -0.2760 -0.2602 -0.1432
29640W        W72656  19.641  27.458   6.385 -0.1350  0.1946  0.0516
29641W        W72657   1.688  32.092   7.378  0.1152 -0.0859  0.0954
29642W        W72658  18.347   9.561   8.217  0.0323 -0.2285 -0.0060
29643W        W72659  13.628  21.666  25.212  0.1761  0.0902  0.1166
29644W        W72660  16.174  17.386  28.338 -0.3450  0.0044 -0.1385
29645W        W72661  28.130  30.748   1.595 -0.1756 -0.0832 -0.1575
29646W        W72662   9.559   2.270   2.933  0.2953  0.3196  0.1627
29647W        W72663   0.870   2.366   8.006  0.0096 -0.2549 -0.0882
29648W        W72664  21.392  30.571   4.705 -0.0470 -0.0564  0.2014
29649W        W72665  30.606   6.041   1.546 -0.1083 -0.3146  0.1107
29650W        W72666  24.528  13.053   1.904 -0.0095 -0.0051  0.0772
29651W        W72667  31.161  22.460   1.523 -0.0463 -0.2108  0.1714
29652W        W72668  28.816   4.836  10.801  0.1554  0.2534 -0.1257
29653W        W72669  23.390  21.784   3.135  0.0870  0.4603 -0.6177
29654W        W72670  13.270   0.583   5.188  0.3920 -0.0086  0.2977
29655W        W72671  10.198   0.845   8.307  0.0332 -0.1327  0.3963
29656W        W72672  20.580  23.790   8.559  0.1747  0.0662  0.0860
29657W        W72673  16.406  33.870  10.326  0.1808 -0.0143 -0.2026
29658W        W72674  25.434   8.755   5.339 -0.1037 -0.1656  0.4968
29659W        W72675  17.015   5.166   6.386  0.2368  0.2229 -0.1654
29660W        W72676  12.282  29.689  29.194  0.0444 -0.2204 -0.1805
29661W        W72677  19.689  29.985   6.244 -0.4093 -0.2821  0.1706
29662W        W72678   8.049  31.777   5.555 -0.0224 -0.0147  0.0943
29663W        W72679  13.717  31.259   9.619  0.1916  0.0035  0.0836
29664W        W72680  34.541  14.112  26.396 -0.3196 -0.2875 -0.1165
29665W        W72681   1.092  31.141  19.340  0.2096  0.1230  0.1616
29666W        W72682   5.938  32.582   9.727  0.1395  0.0607 -0.1139
29667W        W72683  25.011   0.026   7.411  0.0764 -0.0006 -0.0680
29668W        W72684  31.020  28.440  10.048 -0.6207  0.2056 -0.1560
29669W        W72685  15.711   9.599  24.144  0.2530 -0.2932 -0.0165
29670W        W72686   1.884  30.063   6.393 -0.0391 -0.0228  0.0982
29671W        W72687  34.064   8.359   5.447  0.0682  0.3083 -0.2453
29672W        W72688  24.494   8.698  10.672  0.0321 -0.1333 -0.0863
29673W        W72689   6.703  27.245   9.941  0.0438  0.1344  0.1160
29674W        W72690  34.310   9.990   3.550 -0.2028  0.4334 -0.0519
29675W        W72691  19.561   1.316  27.563 -0.0866 -0.3239 -0.1983
29676W        W72692  10.623  21.797  18.201  0.0276 -0.2193 -0.2161
29677W        W72693  20.571  23.253  27.754 -0.0535 -0.0719 -0.0469
29678W        W72694  20.468   4.290   5.400 -0.0931 -0.0576  0.0450
29679W        W72695  30.266  28.711   6.183  0.1959 -0.0314 -0.1067
29680W        W72696   6.446   3.114   9.788  0.0110  0.1568 -0.1670
29681W        W72697  31.010  13.958   6.399 -0.1027 -0.4166  0.0432
29682W        W72698   3.289   0.847  25.268  0.0962 -0.0150  0.0816
29683W        W72699  29.573   4.542  24.888 -0.4315  0.0747 -0.1259
29684W        W72700  16.287  11.277  28.926 -0.2071  0.2688 -0.0692
29685W        W72701  15.761   5.532  14.462  0.2067 -0.1533 -0.0860
29686W        W72702  26.080   5.328   2.038 -0.1697  0.1188  0.0376
29687W        W72703  33.499  29.191   8.969  0.1191  0.1544 -0.3115
29688W        W72704  21.409   5.386   7.523  0.4109 -0.4261  0.1104
29689W        W72705  26.647   6.396   5.137  0.0954  0.0549  0.0083
29690W        W72706   2.104  16.256  18.121 -0.2662 -0.1962  0.4088
29691W        W72707  26.122  32.783   6.258 -0.0948 -0.3867 -0.0345
29692W        W72708  20.650  32.422  25.430  0.0692 -0.0385  0.4122
29693W        W72709  24.882  19.177   3.478  0.2502  0.3071 -0.1845
29694W        W72710  27.638  17.192   0.934  0.0857 -0.2149  0.0481
29695W        W72711  15.225  28.432  20.763  0.1431  0.3233 -0.2535
29696W        W72712  20.508  30.572  28.883 -0.2092  0.1365  0.0953
29697W        W72713  27.059   6.088  10.082 -0.1675 -0.1741  0.3174
29698W        W72714   2.237  33.106  24.225  0.0714 -0.0658 -0.3999
29699W        W72715  16.213   8.887   7.947 -0.0412  0.0740 -0.2837
29700W        W72716  26.859  14.473   5.413 -0.0932 -0.0347  0.1574
29701W        W72717  20.572  16.263  25.612  0.0907  0.2615 -0.3936
29702W        W72718   6.261  30.458  25.486  0.1404  0.0062  0.1153
29703W        W72719  34.290  28.679   6.899 -0.1057 -0.1034  0.2601
29704W        W72720  28.760  12.464   7.925  0.1833  0.2226  0.0013
29705W        W72721   4.320   7.556  23.271  0.2449  0.2869  0.0005
29706W        W72722  23.437   3.373  24.136 -0.0057 -0.0543 -0.1027
29707W        W72723   5.345  29.856   9.873  0.2910 -0.3704 -0.0164
29708W        W72724  19.450  27.226  15.468 -0.0791  0.1674  0.0319
29709W        W72725  31.996  12.018   0.451  0.0417 -0.3427  0.4150
29710W        W72726  23.183   0.385   1.270 -0.0081  0.1125 -0.1626
29711W        W72727  25.168   3.872   9.879  0.0369  0.1667  0.1232
29712W        W72728   0.761  33.377   4.564 -0.1510 -0.0508  0.3015
29713W        W72729  25.251  31.383  22.861 -0.0325  0.0079  0.2385
29714W        W72730  22.459  31.643   7.196  0.0025 -0.1939  0.1667
29715W        W72731  20.116   5.076   8.806  0.2939  0.0116  0.2437
29716W        W72732   2.184  34.298  10.612  0.1580 -0.2712 -0.1716
29717W        W72733   1.673   1.022  17.758 -0.0137 -0.2942  0.0638
29718W        W72734  15.119  26.051   9.404 -0.0830  0.0317 -0.0204
29719W        W72735  33.888   1.259   5.971  0.3107  0.1353 -0.1261
29720W        W72736  21.219  30.188   8.819  0.2142  0.3799 -0.1982
29721W        W72737  31.709   7.031   3.894 -0.1365  0.1128 -0.0858
29722W        W72738  20.474  18.608   7.181  0.0757 -0.2178  0.5061
29723W        W72739  33.320   7.808   6.918 -0.0045 -0.0844  0.0948
29724W        W72740   0.883  18.912  25.734  0.0722  0.1291  0.3254
29725W        W72741   5.924  31.495   3.448  0.1762  0.0715  0.0866
29726W        W72742  30.461  15.107  23.258  0.2950  0.1022  0.0403
29727W        W72743  17.939   3.849  28.863  0.0517  0.2525 -0.2251
29728W        W72744  32.917   4.380   5.616  0.3900 -0.1313 -0.0834
29729W        W72745   4.009   1.929  23.874 -0.1245  0.0874  0.0541
29730W        W72746   1.153  15.475   4.368  0.1323 -0.1034 -0.1100
29731W        W72747  30.628   5.027  10.680  0.2526  0.1867  0.1679
29732W        W72748  23.499  33.427   1.000 -0.0967 -0.0870 -0.0540
29733W        W72749   9.567   6.382   9.326 -0.0819  0.2749 -0.0349
29734W        W72750   2.400   1.725   6.590  0.2744  0.3649  0.0376
29735W        W72751  28.331  20.860   2.957  0.0904 -0.3228 -0.0980
29736W        W72752  20.904   7.836   6.642 -0.1153 -0.1195 -0.0392
29737W        W72753  21.179   1.344  25.290 -0.0679 -0.2796 -0.3127
29738W        W72754  29.942   0.093   6.049  0.1809  0.0769  0.0926
29739W        W72755  17.869  18.325  21.049 -0.1285  0.0531 -0.0984
29740W        W72756  29.039  31.240   1.514 -0.2188 -0.0031  0.5622
29741W        W72757  15.416  11.028  23.985  0.0061 -0.2102  0.1612
29742W        W72758  25.724  13.819   9.931  0.1229  0.0815  0.1099
29743W        W72759  25.085   0.214   7.848 -0.0394  0.1417 -0.2421
29744W        W72760  18.830  11.599   6.761  0.1459 -0.0374  0.3261
29745W        W72761  30.998   9.973   6.616 -0.2808 -0.1405 -0.2086
29746W        W72762   5.098   9.969   5.729  0.0203 -0.1910 -0.2886
29747W        W72763  33.130   0.326  24.118 -0.0385  0.1291  0.0385
29748W        W72764  25.951   3.625  22.429  0.1113  0.2290  0.2685
29749W        W72765  32.210  21.503   9.575 -0.1589 -0.1344  0.1779
29750W        W72766  21.260   5.747  25.421 -0.2150  0.0424 -0.3196
29751W        W72767  29.746   7.746   6.845 -0.1745 -0.1384 -0.0861
29752W        W72768  14.567  22.764  19.603 -0.0033  0.1123  0.1427
29753W        W72769  18.599  22.473   1.248  0.0276 -0.2022  0.1057
29754W        W72770  26.376  34.352   1.847  0.2133  0.2020 -0.1679
29755W        W72771   6.265  27.582  25.879  0.1659 -0.2153 -0.0312
29756W        W72772  17.932   6.931   0.170  0.1125 -0.0261  0.0968
29757W        W72773  18.831  12.233  21.331  0.0117  0.0158  0.2167
29758W        W72774  28.866  31.058  22.174 -0.1355  0.2147  0.1392
29759W        W72775  25.356  28.163   3.057 -0.0695 -0.2062  0.0364
29760W        W72776  12.655  28.647   3.926 -0.0297 -0.0275  0.0489
29761W        W72777   1.320   0.124   9.780 -0.0805  0.3614 -0.3088
29762W        W72778  22.611  10.863  25.014  0.0088  0.1945  0.2862
29763W        W72779  32.930  30.980   5.737  0.3535 -0.2025 -0.1976
29764W        W72780  11.812  12.622  21.445  0.1202  0.0050 -0.1538
29765W        W72781  28.283  10.049   8.340 -0.0122  0.3758 -0.0365
29766W        W72782  26.715  11.233   0.034 -0.1988 -0.3025 -0.5144
29767W        W72783  26.941  32.160   3.782  0.2209  0.1166 -0.3152
29768W        W72784  31.516  23.613   7.545 -0.1675  0.0685 -0.1044
29769W        W72785   2.439  17.609   5.175 -0.0895 -0.1967 -0.1101
29770W        W72786  24.386   0.669  23.455  0.2625  0.2579  0.2665
29771W        W72787  29.605  16.884  10.578 -0.0797  0.2545  0.0391
29772W        W72788  27.187   1.704  20.124 -0.1991 -0.3556 -0.0243
29773W        W72789  22.456  31.667   5.225 -0.0815  0.2790 -0.3037
29774W        W72790  18.261  16.604  27.106  0.1093  0.2141  0.1321
29775W        W72791  28.596  23.156   9.017  0.0829  0.0374 -0.2097
29776W        W72792  26.086   5.173   4.496  0.1495  0.0370 -0.0546
29777W        W72793  32.712  27.680   2.980  0.4091 -0.1359 -0.1770
29778W        W72794   9.364  30.428  25.247 -0.1586  0.2960  0.2397
29779W        W72795  13.465  15.069  25.228  0.1370 -0.1138  0.0561
29780W        W72796  16.131  10.209   5.624 -0.0555 -0.1627 -0.0078
29781W        W72797  33.184  32.265   0.725 -0.1528 -0.1941 -0.1027
29782W        W72798   7.634   0.665  25.395  0.1359  0.1056  0.0886
29783W        W72799  30.215   8.758   9.670 -0.1468 -0.0263  0.2287
29784W        W72800  26.525   7.787  11.431  0.0828  0.2087 -0.1999
29785W        W72801  22.408  10.067   3.110 -0.4325  0.2101 -0.0253
29786W        W72802   7.758  13.078  26.995  0.2348  0.0816  0.0635
29787W        W72803  26.409  31.078   1.005 -0.3731  0.1086 -0.2195
29788W        W72804  23.699   8.504  27.495 -0.4295 -0.0189 -0.1893
29789W        W72805   9.354  34.363  21.253 -0.2302 -0.0215  0.1630
29790W        W72806  26.333   2.093   3.118 -0.1353  0.4433 -0.5335
29791W        W72807  30.628  25.501  23.003  0.3244 -0.1493  0.3307
29792W        W72808   9.665  10.862  22.543 -0.0324 -0.0448  0.0416
29793W        W72809  15.589  18.849  19.862 -0.0778 -0.0306  0.0598
29794W        W72810  18.280  29.885   6.066  0.0559  0.0216  0.1425
29795W        W72811   6.842   6.690   6.025 -0.2051  0.2871 -0.0533
29796W        W72812  20.028  24.244  20.878 -0.0598  0.1475  0.2733
29797W        W72813  33.412   0.033   8.734 -0.1825  0.2671  0.2331
29798W        W72814  23.933   4.529  28.007  0.0726 -0.0465 -0.1323
29799W        W72815   1.661   0.571   7.723  0.0444  0.1128 -0.3739
29800W        W72816   7.119  22.055  24.165  0.0109 -0.2846 -0.1828
29801W        W72817  19.593  27.318   4.842  0.0854 -0.1125 -0.0596
29802W        W72818  27.127  28.613  19.527 -0.2704  0.1749 -0.1536
29803W        W72819   9.040  34.063  18.117 -0.2693 -0.2281  0.1826
29804W        W72820  32.377   6.583  16.722  0.0289 -0.1409  0.2961
29805W        W72821  19.216  14.253  25.982 -0.0367 -0.2134 -0.1244
29806W        W72822  17.602  34.170  23.447 -0.0228  0.1024  0.0040
29807W        W72823  20.149   2.474   1.013  0.3178  0.3201 -0.2849
29808W        W72824  34.030  14.650   9.493 -0.1712 -0.2675 -0.0059
29809W        W72825  22.355  33.023  24.537  0.0810  0.0824 -0.0107
29810W        W72826  23.140  17.640  24.475  0.0047  0.0384  0.1668
29811W        W72827  25.548  28.951   8.232 -0.2474 -0.0017  0.0315
29812W        W72828  14.318  30.692   7.170  0.1198  0.3337  0.0757
29813W        W72829  33.437  28.955   4.590  0.0406 -0.1742 -0.0381
29814W        W72830  27.866  25.784  27.190 -0.0758  0.0429 -0.1934
29815W        W72831  25.398   1.390   1.225 -0.1306  0.2934  0.1459
29816W        W72832   3.446  18.739  18.746  0.0374 -0.1284  0.0405
29817W        W72833  33.067  30.480   5.928  0.0678 -0.2423  0.2263
29818W        W72834  25.188   5.044   2.944  0.2786 -0.3462 -0.0009
29819W        W72835  21.897  16.738  24.118 -0.0211 -0.2050  0.3278
29820W        W72836  26.093  33.222  22.519 -0.0497  0.1193 -0.3632
29821W        W72837   6.789   5.248  25.191  0.1908  0.1343  0.0585
29822W        W72838  10.274  32.966  24.267  0.2632  0.0782  0.0974
29823W        W72839  26.741   0.958   2.677  0.0960  0.0596 -0.0870
29824W        W72840  30.137  12.212   4.135  0.4334 -0.2706 -0.1298
29825W        W72841   3.246   3.289  28.474  0.3461 -0.0632 -0.3103
29826W        W72842  16.899  14.619  25.264 -0.0200  0.2015  0.5261
29827W        W72843  26.782  10.915   4.633 -0.0308  0.0079 -0.2165
29828W        W72844  27.700   0.431   6.998 -0.2197 -0.2565 -0.1186
29829W        W72845  31.289  33.244  27.275 -0.0673 -0.2036 -0.0227
29830W        W72846  23.581   6.379   7.311  0.2083  0.0323  0.2643
29831W        W72847   2.616  28.987   0.517 -0.2811  0.2052 -0.0650
29832W        W72848  28.661  29.831   1.188  0.0826  0.2213  0.1331
29833W        W72849   0.780  23.184   3.318 -0.1081 -0.1873  0.0685
29834W        W72850  31.903   8.720   3.219 -0.0069  0.3374  0.1254
29835W        W72851  13.955  28.007   9.432 -0.2905 -0.0066  0.1440
29836W        W72852  19.852   2.928  19.058 -0.0693  0.0670 -0.1498
29837W        W72853  20.220   5.204   7.963 -0.3591  0.1249 -0.0441
29838W        W72854  29.474   4.646  23.790  0.0518  0.2556  0.0860
29839W        W72855  22.211   5.269  29.114  0.1419  0.2260 -0.0118
29840W        W72856  27.622  27.999  27.952  0.1430  0.3884 -0.2730
29841W        W72857   6.229  31.705   7.532 -0.2161 -0.3217 -0.1585
29842W        W72858  29.376   7.220   9.606 -0.1685 -0.0924  0.2095
29843W        W72859  33.259   9.989  28.833 -0.2518  0.1281 -0.1166
29844W        W72860   5.551   0.313  28.907 -0.0056  0.0942  0.1930
29845W        W72861  32.093   2.949  19.015  0.0165 -0.2337 -0.0468
29846W        W72862  22.178   8.679  16.032  0.0469 -0.2286 -0.0696
29847W        W72863  26.271   1.429   0.488 -0.0556 -0.5134  0.0271
29848W        W72864   8.509  25.487  27.239 -0.4128  0.2472 -0.4640
29849W        W72865   5.469  34.166   7.720 -0.1583  0.0115  0.0069
29850W        W72866  29.638  23.661   6.974 -0.2308  0.0664  0.0080
29851W        W72867  26.331  29.937   1.674 -0.0033  0.1248  0.2229
29852W        W72868  22.253  22.771   7.475 -0.0892 -0.0071 -0.1496
29853W        W72869  26.597   3.644   1.942  0.0352 -0.2829  0.1512
29854W        W72870  19.055  13.533   3.709 -0.0744 -0.2223 -0.2637
29855W        W72871  20.275   6.450   3.587 -0.0623  0.0330 -0.0796
29856W        W72872  21.983   2.101   3.180 -0.3222  0.0580 -0.0021
29857W        W72873  25.880  21.345  26.709 -0.1768 -0.2337  0.1666
29858W        W72874  33.359   8.393  28.558 -0.0987  0.1033 -0.1002
29859W        W72875   4.126  13.727  27.046  0.1558 -0.0772 -0.1563
29860W        W72876  31.486  26.052  23.437 -0.1452  0.2272 -0.1634
29861W        W72877  32.332  18.409   6.322 -0.0505  0.1343 -0.3106
29862W        W72878  24.657  30.233   0.607 -0.1775 -0.4504  0.0955
29863W        W72879  31.639  23.488   6.172 -0.1250 -0.1248 -0.1317
29864W        W72880  24.511  30.650  24.863  0.0420  0.0763  0.1974
29865W        W72881  32.425   5.113   3.140 -0.0928  0.2610 -0.0994
29866W        W72882  22.113   5.363   1.270  0.4350  0.0234 -0.0813
29867W        W72883   8.571  32.153   7.223 -0.2939  0.0817  0.0380
29868W        W72884  24.395   4.680   1.198 -0.1166  0.1024  0.0465
29869W        W72885  31.462  17.018   1.868  0.1370 -0.0499 -0.1572
29870W        W72886  18.456  17.977   4.796 -0.0208  0.1925 -0.1712
29871W        W72887   4.141  22.480   4.645 -0.3029  0.3252  0.0422
29872W        W72888  17.681  27.212  26.426  0.2332 -0.0770 -0.0743
29873W        W72889  29.075  26.376   9.269  0.0284 -0.3184  0.0431
29874W        W72890  21.991   7.061  26.344  0.0806 -0.5788 -0.1692
29875W        W72891  19.914  31.756   2.234 -0.1168 -0.2907  0.1679
29876W        W72892  23.473  11.251  25.948  0.1172 -0.1896  0.1276
29877W        W72893  15.625  34.592   9.252 -0.1605  0.4456  0.4640
29878W        W72894  32.953  15.596   8.909  0.0757  0.0109 -0.0605
29879W        W72895  31.872  18.180   6.403 -0.2489 -0.0512  0.0743
29880W        W72896   6.657  34.040  26.187  0.1399  0.0678  0.4396
29881W        W72897  25.685  31.602   6.208 -0.0301 -0.0975 -0.0913
29882W        W72898   5.069   8.947   0.775 -0.0861  0.1639 -0.0448
29883W        W72899  23.090   4.717  17.857  0.0983  0.0337  0.2619
29884W        W72900  34.327  28.387  19.841 -0.1607 -0.0940  0.1729
29885W        W72901  34.168  28.836   8.986 -0.0635 -0.0357 -0.1311
29886W        W72902  29.522   8.537   6.652  0.1357  0.0355  0.1502
29887W        W72903  24.414  29.455  23.628 -0.0750 -0.1735 -0.0953
29888W        W72904  21.329  33.700   7.337  0.0510 -0.1866  0.0024
29889W        W72905  34.077  10.448  15.810  0.0597 -0.2915  0.1509
29890W        W72906  22.717  14.960   7.263 -0.1771 -0.0588 -0.3347
29891W        W72907  29.031  24.943   4.997  0.2795  0.3391  0.0342
29892W        W72908  18.426  32.542   6.042 -0.2296 -0.0841  0.3734
29893W        W72909  10.272   7.685  22.544  0.1316 -0.0160  0.3181
29894W        W72910  18.281   4.539  22.696  0.0755  0.2450  0.2531
29895W        W72911  31.610  33.596  19.455  0.2504 -0.0324 -0.1061
29896W        W72912  33.512  22.588   5.214 -0.3183  0.1309 -0.0398
29897W        W72913  30.712  34.392   7.460  0.2975  0.1410  0.1355
29898W        W72914  26.606   8.399  26.129 -0.0923  0.2623 -0.5268
29899W        W72915  30.911  11.234  22.638  0.1817  0.1930 -0.1503
29900W        W72916  19.705  16.445   6.063 -0.1443  0.2082 -0.0327
29901W        W72917   0.649  24.309  14.096  0.1541 -0.4937 -0.3381
29902W        W72918  32.966   4.211   9.600 -0.0814 -0.0627  0.1369
29903W        W72919  24.682  27.606  24.193 -0.1008  0.1530 -0.0863
29904W        W72920  30.871   7.257   7.370 -0.0259 -0.0124  0.0402
29905W        W72921  34.331  26.573   7.418 -0.0426  0.0781 -0.5073
29906W        W72922   2.274   0.397   8.901 -0.0061  0.2208 -0.1457
29907W        W72923  27.225   7.197  25.860 -0.1025  0.1501  0.2349
29908W        W72924   6.072  22.013   7.867  0.2055 -0.1008  0.0658
29909W        W72925  15.817   5.648  28.792 -0.0792 -0.2847  0.2187
29910W        W72926   4.528   0.625  18.384 -0.0630 -0.1934 -0.2514
29911W        W72927  20.168  27.266   2.232 -0.1553  0.1106 -0.0936
29912W        W72928   0.912   3.438  27.194  0.0280 -0.4286 -0.0159
29913W        W72929  29.945  31.247  17.916 -0.2262  0.0006 -0.1623
29914W        W72930  18.840  22.064  20.532  0.2269 -0.0199  0.0165
29915W        W72931  25.945   4.123   2.297  0.0992  0.2504 -0.0162
29916W        W72932  33.629  10.937  10.129  0.1152 -0.0015  0.2623
29917W        W72933   0.269  21.967  28.887 -0.0448 -0.1145 -0.3370
29918W        W72934  23.255  11.566   5.184  0.0728 -0.0273 -0.1158
29919W        W72935  24.780   5.197  26.041 -0.0386  0.0803 -0.0120
29920W        W72936  30.541  13.462   3.725  0.1856 -0.1122 -0.0600
29921W        W72937  33.222   6.472  19.188  0.2007 -0.3364 -0.2235
29922W        W72938  30.705  28.498   7.008 -0.1724  0.1415  0.0988
29923W        W72939  20.321  28.905   5.567 -0.1407  0.3058 -0.2122
29924W        W72940  18.786   6.239   7.555 -0.1651  0.2683 -0.2079
29925W        W72941  17.961  29.070   7.024 -0.2100 -0.2442  0.3627
29926W        W72942  21.370  14.906   7.791  0.1871  0.1228 -0.0665
29927W        W72943  24.822  28.996   4.539 -0.0299  0.0732  0.1826
29928W        W72944  19.983  24.472   1.785  0.1468 -0.0624 -0.2618
29929W        W72945  26.850   9.263  22.942 -0.0400 -0.1855 -0.0967
29930W        W72946  30.515  24.550  26.405 -0.0211  0.3340  0.1172
29931W        W72947  26.943   3.147   8.489  0.2318  0.0754 -0.0244
29932W        W72948  30.638   5.800  10.633 -0.0913 -0.3092  0.1297
29933W        W72949  17.282  12.797   0.572 -0.0190 -0.1058 -0.3575
29934W        W72950  20.211   6.033  13.817 -0.3048 -0.0208 -0.0170
29935W        W72951   2.325  11.876  25.129 -0.1002  0.2067 -0.3799
29936W        W72952  29.035  10.030  28.803 -0.0334  0.1326  0.0014
29937W        W72953   2.990  27.973  29.159 -0.0635  0.1064 -0.0558
29938W        W72954  31.188  17.325   5.202  0.0958  0.2625  0.1934
29939W        W72955  18.688   8.790  17.106  0.2696 -0.0078  0.0964
29940W        W72956  24.292   8.158  26.631  0.1019  0.0293  0.0701
29941W        W72957   8.531   0.508  26.355  0.0138  0.0575 -0.1887
29942W        W72958  27.867  17.324  24.641 -0.4250  0.0708 -0.2013
29943W        W72959  33.052  17.152   9.240  0.1772  0.0266 -0.2165
29944W        W72960  29.917  24.452  26.788 -0.1727  0.0835  0.1104
29945W        W72961  18.865  17.021  18.811 -0.4566 -0.1006  0.0937
29946W        W72962   1.312   2.862   2.083  0.2545 -0.0652 -0.2477
29947W        W72963  22.830   9.380  16.464  0.0069 -0.0036  0.0273
29948W        W72964  24.185  30.787   7.856 -0.2408  0.1319 -0.1795
29949W        W72965   9.164  26.780  19.525 -0.3682 -0.1097  0.0892
29950W        W72966  23.669   9.071  23.224  0.0837  0.2574 -0.1333
29951W        W72967  30.426   5.992   3.222  0.1636  0.1247  0.2137
29952W        W72968  33.141  16.082   9.064  0.2302  0.0404 -0.1854
29953W        W72969  22.492   5.864  25.087  0.2569 -0.0934  0.0156
29954W        W72970   7.925   0.078  25.550 -0.4448 -0.0285 -0.2058
29955W        W72971   3.326  33.725   2.981  0.0826 -0.1347 -0.1063
29956W        W72972   9.319   9.135   0.702 -0.4541  0.3065  0.0468
29957W        W72973  29.866  29.778  21.098 -0.0137  0.3025 -0.1013
29958W        W72974  33.807  24.667  15.511  0.1815 -0.1649 -0.2372
29959W        W72975  16.922   1.684  26.929 -0.3140  0.3045 -0.1166
29960W        W72976  12.756  33.940  28.832 -0.1301  0.0174  0.2227
29961W        W72977  23.820  16.175  15.821  0.0352  0.3364 -0.1481
29962W        W72978  26.324   5.737   1.577  0.0038  0.3452  0.0527
29963W        W72979  11.757  29.603  29.013  0.0108 -0.0436 -0.2861
29964W        W72980  34.258   5.410   9.995 -0.0217  0.1416  0.0985
29965W        W72981  13.204  14.336   5.242 -0.1809 -0.2674 -0.3653
29966W        W72982  18.667   2.374   5.119  0.0286 -0.3413 -0.0664
29967W        W72983  20.784  18.017   5.278 -0.3118  0.0249 -0.1596
29968W        W72984  29.312   3.587   9.500  0.2855 -0.0717  0.2844
29969W        W72985  33.846  15.283   6.248 -0.1707  0.2917 -0.0551
29970W        W72986  22.632  28.131   3.229  0.2430 -0.1318  0.1124
29971W        W72987   4.373   7.429  27.564  0.0617  0.2383 -0.1793
29972W        W72988  33.003   4.665  16.905 -0.0452  0.2999 -0.1095
29973W        W72989  22.754   3.062  28.520 -0.1404  0.4889 -0.0498
29974W        W72990   0.828   1.769   9.267 -0.1959  0.0642 -0.1327
29975W        W72991  10.256   8.026  19.477 -0.0454 -0.4535  0.2086
29976W        W72992  21.315  25.949   0.998  0.0072  0.1744 -0.2352
29977W        W72993   9.573  20.747  23.627 -0.3137 -0.0170  0.2681
29978W        W72994   8.808   1.399   9.484 -0.1268 -0.1774 -0.1541
29979W        W72995   8.538  22.933  14.706  0.2021  0.0170 -0.0364
29980W        W72996  25.140  30.115   5.929 -0.1012 -0.0402  0.1648
29981W        W72997  18.683   6.417  24.704  0.1198 -0.0277  0.0802
29982W        W72998  33.039   9.526  22.954  0.1923  0.2422  0.0032
29983W        W72999  30.914   4.914  19.169  0.2344 -0.3272  0.1565
29984W        W73000  19.993  29.520  20.526  0.1594 -0.0044  0.2626
29985W        W73001  22.935   3.088   0.149 -0.0599 -0.1617 -0.2962
29986W        W73002   1.458  10.204  25.446  0.2503 -0.3466 -0.0929
29987W        W73003   8.437   0.451   6.496  0.3238 -0.1585 -0.1502
29988W        W73004  29.872  31.901  10.576  0.0413 -0.2796 -0.1346
29989W        W73005  18.299   1.313  20.648 -0.0126  0.1248  0.0086
29990W        W73006  22.424   9.865  23.981  0.0533  0.1532 -0.3467
29991W        W73007  31.776   4.895  20.483 -0.1076  0.2175 -0.0447
29992W        W73008  25.263  31.470  27.341 -0.1607 -0.3993 -0.4535
29993W        W73009  17.277  32.114   2.291  0.0598  0.1866 -0.1004
29994W        W73010   2.578  26.945   1.175  0.0711  0.0305  0.0236
29995W        W73011  28.756   1.474  28.676 -0.2505  0.0194  0.2134
29996W        W73012  12.084  15.415  15.995  0.1146  0.0497  0.0535
29997W        W73013  30.761  11.841   1.343  0.1316 -0.1049  0.4631
29998W        W73014  19.546   5.506   0.069  0.0682 -0.2557 -0.0118
29999W        W73015   7.624  11.356  18.635 -0.1060  0.1591  0.2799
30000W        W73016  21.218  12.468  15.077 -0.1234  0.2451 -0.1597
30001W        W73017  24.864   4.953  18.876 -0.0257 -0.2636  0.0814
30002W        W73018   4.101   5.243   9.858 -0.0816  0.3653  0.0094
30003W        W73019  30.229  27.320   0.817  0.2438 -0.0909 -0.2515
30004W        W73020  29.292   2.530  24.321  0.1115  0.0136 -0.2776
30005W        W73021  27.127   5.858   0.708 -0.0718  0.1492 -0.1985
30006W        W73022  29.355   9.803  29.240 -0.2619  0.0802 -0.0845
30007W        W73023  21.517  34.623  17.402  0.1409  0.0747 -0.3324
30008W        W73024   1.664  11.096  28.598  0.0911  0.0208  0.0167
30009W        W73025   4.691  29.324   1.468  0.5620  0.1203  0.1568
30010W        W73026  17.718   1.479   5.168  0.5239  0.1512  0.0555
30011W        W73027  27.417  19.994  27.947  0.1107  0.3029  0.2062
30012W        W73028  26.405  15.414   8.590  0.0326  0.1853  0.1824
30013W        W73029  29.008  29.798   2.485  0.2387  0.1454 -0.0643
30014W        W73030  13.947  13.368  23.915 -0.2106  0.4093 -0.2568
30015W        W73031  22.831   9.311   7.766 -0.0323  0.2432 -0.1872
30016W        W73032   1.361  33.962  28.639  0.0610 -0.0320  0.0495
30017W        W73033   9.519   8.336   2.115  0.1960  0.2146 -0.0330
30018W        W73034  17.136   2.614   2.133  0.0156 -0.0688 -0.2923
30019W        W73035  29.853   6.591  10.720  0.1543 -0.1556 -0.2562
30020W        W73036  20.090   0.271   5.819 -0.0891  0.0292 -0.0699
30021W        W73037  15.016  34.339   1.143 -0.0303  0.0854  0.0921
30022W        W73038   3.586   7.601  19.349 -0.2172 -0.4055 -0.3148
30023W        W73039   5.480  32.720   9.484 -0.0080  0.1051 -0.2650
30024W        W73040  16.750  28.654   3.102 -0.2180 -0.2118 -0.3032
30025W        W73041  22.929   2.912   5.097 -0.0063  0.2624  0.1718
30026W        W73042  30.881   2.886   5.304 -0.1604  0.3342  0.0885
30027W        W73043  14.419   6.074   9.203  0.2285 -0.0330 -0.0483
30028W        W73044   0.335   3.333   9.194  0.3629 -0.3006  0.1105
30029W        W73045   9.942   3.674   5.989 -0.1107 -0.0638  0.0465
30030W        W73046  15.410  15.444  27.780 -0.1530  0.1044  0.2768
30031W        W73047   0.496  18.765  26.890 -0.1795  0.2769  0.1616
30032W        W73048  15.215   7.898   4.542 -0.2094 -0.2126  0.2779
30033W        W73049  11.100  32.832  10.100  0.1434  0.0575  0.0679
30034W        W73050   2.433  30.519   7.050  0.0351  0.0906 -0.0802
30035W        W73051  25.678  12.078   1.024  0.1796  0.2245  0.0839
30036W        W73052  23.389  34.428   4.595 -0.1115  0.2475  0.1154
30037W        W73053   4.967  11.602   7.200 -0.0080 -0.0732  0.0784
30038W        W73054  22.131  32.943   2.605 -0.0203 -0.0592  0.0547
30039W        W73055  17.185   7.464  29.012  0.2768  0.0798  0.2836
30040W        W73056  28.945  32.812  11.126 -0.1356  0.0491  0.0491
30041W        W73057  33.129  16.366  10.411  0.3131 -0.0733  0.4292
30042W        W73058   6.827  12.794   4.899 -0.1090  0.0626 -0.2593
30043W        W73059   6.371  12.957   0.554  0.2530  0.1293  0.0359
30044W        W73060   0.305   4.100   6.794  0.1330 -0.0655  0.1839
30045W        W73061  19.537   2.437   6.130  0.0535  0.1185  0.2975
30046W        W73062  27.081  30.340  10.955  0.3478 -0.0850 -0.2792
30047W        W73063  14.844  33.476   1.302  0.3509 -0.0555 -0.0593
30048W        W73064  25.790  30.246  17.301 -0.0709  0.1611 -0.0204
30049W        W73065  31.456  26.711   0.065  0.2175 -0.2527 -0.0384
30050W        W73066  34.734  25.014   7.755 -0.2040  0.1091  0.0837
30051W        W73067  17.824   9.841   2.645 -0.0976 -0.2242 -0.2598
30052W        W73068  31.258  13.446  26.913 -0.0024 -0.0209  0.2313
30053W        W73069   4.029  32.094   5.305  0.2303  0.6101 -0.0478
30054W        W73070   7.011  28.884   3.275  0.0590 -0.1557  0.1127
30055W        W73071  18.432  13.940   7.844 -0.0795  0.4505 -0.0596
30056W        W73072  22.207  14.504   3.609 -0.2143 -0.1150 -0.1747
30057W        W73073   9.064  34.651   6.049 -0.2397  0.1903  0.1027
30058W        W73074  21.195  20.075   8.585 -0.0725 -0.2062  0.0985
30059W        W73075   6.056   0.091   4.512  0.2851  0.1348 -0.0222
30060W        W73076  29.786  20.184   2.606 -0.0126  0.1485 -0.0085
30061W        W73077  21.533  28.434  26.551  0.3840 -0.0040  0.2123
30062W        W73078  26.227   3.532  28.155  0.3589  0.1754 -0.1165
30063W        W73079  20.672  14.588  26.652  0.0005 -0.0239 -0.1544
30064W        W73080  26.277  25.343   9.525 -0.0679  0.0678 -0.1137
30065W        W73081   2.141  12.947  20.002 -0.0736  0.2776  0.1885
30066W        W73082  33.996  32.753   4.347 -0.0291 -0.4097  0.0658
30067W        W73083  33.164  21.168  22.965 -0.0747 -0.2329 -0.1459
30068W        W73084   4.714  34.053  26.959 -0.0381  0.1119  0.1666
30069W        W73085   6.879   5.671  28.263  0.0279  0.0345  0.0198
30070W        W73086  32.523   3.195  21.663  0.2740 -0.0230  0.1080
30071W        W73087  10.059   6.281   7.587  0.1229 -0.1388 -0.0593
30072W        W73088   7.710  29.889  18.180  0.1622  0.2009  0.0624
30073W        W73089   8.917   1.583   6.620  0.1291  0.2516 -0.3941
30074W        W73090  33.354   3.932   4.011  0.1588 -0.0493  0.1885
30075W        W73091  17.039   1.346   6.307 -0.3730  0.0253  0.0335
30076W        W73092  19.446   3.155  10.260 -0.2281  0.2512  0.1807
30077W        W73093  34.047  18.892  19.233  0.0319  0.2331 -0.1027
30078W        W73094  30.172  32.221   8.479  0.4518 -0.0882 -0.1292
30079W        W73095  18.461   5.437   2.484  0.3822  0.0040  0.0656
30080W        W73096  28.479  20.371   3.249  0.3567  0.3338 -0.1803
30081W        W73097   4.331  33.819  27.177 -0.2952  0.4020 -0.2082
30082W        W73098  16.193  28.802  10.316  0.0760  0.2480 -0.0777
30083W        W73099   0.614  16.092  28.581 -0.1639 -0.1432 -0.2296
30084W        W73100   0.842  31.634   7.944 -0.1133  0.0479 -0.1210
30085W        W73101  31.003  29.714   5.024 -0.0210 -0.0081  0.1744
30086W        W73102  32.824  32.581  10.835  0.0984  0.1681  0.1892
30087W        W73103   3.157   7.068  28.514  0.0771  0.0279 -0.2665
30088W        W73104  27.371   9.344   5.212  0.0797 -0.2183 -0.3149
30089W        W73105   7.290   7.103  23.131 -0.2796 -0.0029 -0.5018
30090W        W73106  31.872  14.857   4.079  0.1816 -0.3031 -0.0287
30091W        W73107  25.200  31.697   6.080  0.0852  0.1394 -0.0668
30092W        W73108  10.919   9.678   4.423  0.0021  0.0451  0.0008
30093W        W73109  26.730  28.844   3.125 -0.0165 -0.1096  0.1017
30094W        W73110  29.672   9.760   6.354 -0.0498 -0.0100 -0.4468
30095W        W73111  15.483  13.343   3.861 -0.2817 -0.1748 -0.1341
30096W        W73112  32.629   4.548   9.472  0.0156 -0.0869  0.0445
30097W        W73113  24.489   7.245  11.065  0.1129  0.0602 -0.0423
30098W        W73114  29.308   9.948   3.935 -0.2605  0.0557 -0.2689
30099W        W73115   4.155  24.318  23.276 -0.2356 -0.3062 -0.1513
30100W        W73116  32.276   1.763   9.560 -0.0067 -0.2101  0.2863
30101W        W73117  17.104  14.730   2.816 -0.0221  0.1564 -0.4042
30102W        W73118  23.114  23.920   2.300 -0.1262  0.3174 -0.3757
30103W        W73119  19.364  20.891  28.127 -0.0631 -0.3253  0.2752
30104W        W73120  27.679  33.639   3.053  0.1418 -0.1968 -0.0600
30105W        W73121   9.030   3.241   8.280  0.1638 -0.2527  0.1920
30106W        W73122   9.698   3.838   2.589  0.1986  0.0567 -0.0885
30107W        W73123  31.656  22.390  18.152  0.1871  0.0807 -0.2849
30108W        W73124  30.494  33.101   6.959 -0.0640 -0.1317  0.2934
30109W        W73125  30.127   2.414  15.875  0.1256 -0.1862 -0.1754
30110W        W73126  33.399   2.761  29.191 -0.1727  0.0219  0.2121
30111W        W73127  33.827  28.665   6.741  0.0319 -0.1779 -0.3162
30112W        W73128  33.244  29.902   6.791 -0.2636  0.2689 -0.1353
30113W        W73129  22.477  20.891   2.311  0.2273 -0.0906  0.2692
30114W        W73130  20.906  15.666   3.221  0.0836 -0.2048 -0.2817
30115W        W73131  34.292  29.604  27.528 -0.1651  0.1350  0.0627
30116W        W73132  26.476   9.131   8.741  0.2468  0.0874  0.0255
30117W        W73133  29.028   1.119  27.271 -0.0956  0.0670 -0.3186
30118W        W73134  21.109  29.603  10.150 -0.3403  0.1235 -0.0381
30119W        W73135  13.741  30.639   9.657  0.0093  0.0588 -0.1002
30120W        W73136  27.675   5.992  28.352 -0.0620 -0.0046  0.0152
30121W        W73137  29.251   9.987   6.503  0.0328 -0.0611 -0.0158
30122W        W73138  19.953   1.760   2.239 -0.2910 -0.1570  0.3846
30123W        W73139   1.905  25.624   0.080 -0.0677 -0.4420 -0.2320
30124W        W73140  34.256  31.987  19.169 -0.1985  0.0817 -0.1128
30125W        W73141  18.004  34.764   8.434 -0.0899 -0.2267  0.0344
30126W        W73142  34.605   9.609   8.429 -0.1838 -0.0549  0.2311
30127W        W73143  23.611   5.396  19.964  0.2093 -0.1687  0.2847
30128W        W73144  15.254   5.569   7.099 -0.0066 -0.0156 -0.0574
30129W        W73145  29.493  23.738   5.561  0.2276  0.0942 -0.0757
30130W        W73146  32.863  33.346   2.798  0.1304 -0.1185  0.0097
30131W        W73147  31.473  23.139   5.362 -0.1311  0.1324  0.3904
30132W        W73148  12.920   7.125  23.026 -0.3435 -0.0163  0.1417
30133W        W73149   6.270   9.302  21.560 -0.2716 -0.1441  0.5206
30134W        W73150   6.211   2.682  26.425 -0.2500  0.3319  0.3278
30135W        W73151  14.204  27.572   3.389  0.1658 -0.0657  0.2642
30136W        W73152   4.569   2.343  15.426  0.0096 -0.0708  0.1025
30137W        W73153  33.683  12.787  22.927  0.0027  0.0615  0.2534
30138W        W73154  16.790  34.449  26.543  0.2297 -0.3207  0.1217
30139W        W73155  13.307  26.230   5.885  0.3229 -0.0239  0.0640
30140W        W73156   2.944  30.853   5.998 -0.0822  0.0096  0.1358
30141W        W73157  25.088  34.166   4.382 -0.0309 -0.0158  0.2801
30142W        W73158  34.187  12.923  27.526  0.2480 -0.3435 -0.0730
30143W        W73159  17.485  11.168   4.845 -0.0273 -0.2532 -0.2288
30144W        W73160  20.320  19.251   5.414 -0.0409  0.0041  0.0554
30145W        W73161  32.357   6.477  14.925 -0.2473  0.1512 -0.1899
30146W        W73162   2.657  28.326   2.429  0.0980  0.0908  0.1220
30147W        W73163   6.284  32.069  28.088  0.3479  0.2333  0.2692
30148W        W73164  33.366  11.106   3.988 -0.1906 -0.2550  0.1138
30149W        W73165   2.833  18.980   2.369  0.0907  0.0289 -0.1339
30150W        W73166  17.174   8.204  25.668 -0.1460 -0.3736  0.2269
30151W        W73167  34.061   0.280  27.525 -0.2819  0.0028  0.0383
30152W        W73168   2.579  23.202   1.710 -0.0862  0.2140  0.2346
30153W        W73169   6.661  29.523  26.802 -0.0485 -0.0599  0.1583
30154W        W73170  30.460   6.304   9.324  0.0695 -0.1580  0.2394
30155W        W73171  15.422  34.366   3.807 -0.1346 -0.0670  0.1607
30156W        W73172  28.503  17.360   7.394 -0.1376  0.0010 -0.2005
30157W        W73173  32.714  33.158   8.122  0.2449  0.0074  0.1022
30158W        W73174  16.438   6.702  23.175 -0.0058  0.0874  0.1665
30159W        W73175  29.950  28.931  26.185  0.1739  0.0476  0.2648
30160W        W73176  23.285  15.780  15.188  0.0996 -0.0458  0.1164
30161W        W73177   2.222  33.992  27.082 -0.0002  0.0517 -0.1649
30162W        W73178  17.613  33.111   3.839 -0.1484  0.0967  0.0870
30163W        W73179   9.072  10.253   1.103  0.1992 -0.3522 -0.2638
30164W        W73180   8.276   5.471  21.726 -0.0824  0.2157  0.3584
30165W        W73181  20.084  33.319   3.335  0.1494  0.2958 -0.0425
30166W        W73182   0.692   3.555  26.228 -0.2384 -0.1373 -0.1624
30167W        W73183  27.837   1.377   1.897 -0.0893 -0.0154 -0.1877
30168W        W73184  34.116   4.998  28.600 -0.0738 -0.0458 -0.2796
30169W        W73185   3.491   5.452  27.410 -0.2554 -0.0342  0.0595
30170W        W73186  28.283  30.151   3.135 -0.2801  0.1406 -0.0994
30171W        W73187  18.436  32.892   8.960 -0.0384  0.1646 -0.0280
30172W        W73188  12.283  23.203  28.829 -0.0164 -0.3592  0.1654
30173W        W73189  17.541   1.966   5.980  0.0024  0.0770 -0.0676
30174W        W73190  20.563  25.208   2.621  0.5427  0.0284 -0.0234
30175W        W73191  12.495  30.951  26.226  0.1383  0.0475 -0.0833
30176W        W73192   6.406  31.647   8.324 -0.0146  0.0476 -0.0996
30177W        W73193  20.733   9.050   5.468 -0.1906  0.0927 -0.0843
30178W        W73194   3.841  19.390  27.002  0.1972  0.1081  0.2760
30179W        W73195  19.331  32.123  10.986  0.0924  0.0542 -0.0222
30180W        W73196  19.275  14.824  20.953  0.2202  0.0505  0.0357
30181W        W73197  34.309   3.771   5.590 -0.0807  0.0229 -0.0975
30182W        W73198  31.046  30.836  29.042 -0.3006  0.0744 -0.0085
30183W        W73199  27.778  11.853   3.721 -0.0651  0.0871  0.0229
30184W        W73200  12.635   1.858   8.818 -0.4181 -0.3939  0.0092
30185W        W73201  18.864  30.166  27.504  0.3285  0.0859 -0.5939
30186W        W73202   8.828  29.225   7.593 -0.0533  0.0988  0.1801
30187W        W73203  23.271  17.937  28.308  0.0757 -0.0214  0.1583
30188W        W73204   5.459  27.730   9.510  0.0485  0.0399  0.1885
30189W        W73205  28.630  31.247  20.612  0.1604  0.2932  0.1466
30190W        W73206   8.518  31.662   7.964 -0.1986 -0.2306  0.0116
30191W        W73207  21.478  34.403  10.015 -0.1170 -0.0954 -0.1073
30192W        W73208  23.053   2.220   2.995 -0.2705  0.2450 -0.1500
30193W        W73209  34.103  19.333  26.318  0.1951 -0.1058 -0.1906
30194W        W73210  30.393  32.262   5.055  0.0821 -0.0383  0.3460
30195W        W73211  32.881   1.777   4.044 -0.1393  0.1773  0.1233
30196W        W73212  12.164  17.854  23.390  0.2801  0.1129  0.0598
30197W        W73213  28.621   9.155   5.305 -0.3459  0.0391 -0.0276
30198W        W73214  10.436  20.942  29.095 -0.0979  0.2344  0.0802
30199W        W73215  26.276  24.463  26.503 -0.0393 -0.0588  0.0571
30200W        W73216  21.607  28.185   3.451  0.2716  0.0727 -0.1061
30201W        W73217  13.611   9.109  20.343 -0.3202 -0.1845 -0.2744
30202W        W73218  25.771  23.550   4.009  0.0326  0.0947  0.2015
30203W        W73219  19.457  33.394   7.421 -0.1671 -0.2168  0.0272
30204W        W73220  17.900   3.954   6.848  0.3045  0.1195  0.1833
30205W        W73221  32.415  15.228   3.254  0.3288 -0.3698  0.0111
30206W        W73222  26.186  19.354   7.343 -0.0176 -0.4028  0.1128
30207W        W73223  17.978   3.113   8.034 -0.1788  0.1814 -0.4012
30208W        W73224  25.250   0.253   3.088  0.0239 -0.1702 -0.0758
30209W        W73225  23.161  27.748  18.855  0.0374 -0.1501  0.3029
30210W        W73226   2.096   6.947  22.800 -0.0862 -0.0130 -0.4338
30211W        W73227  23.585  14.279  18.517 -0.1657 -0.2938  0.1029
30212W        W73228  21.243  13.727  21.124 -0.2707 -0.0889 -0.0340
30213W        W73229  27.527  12.175  21.797  0.1227 -0.0505  0.1746
30214W        W73230  16.829  31.705   6.344 -0.0244  0.1226 -0.0136
30215W        W73231   3.980   6.964   6.048 -0.1444  0.1457  0.1916
30216W        W73232   9.554  17.225   1.732  0.1106  0.0356  0.1196
30217W        W73233  11.485   3.131   3.464 -0.0318  0.2219 -0.0805
30218W        W73234  15.944   7.028  25.998  0.0136  0.0554 -0.2229
30219W        W73235  19.788  32.651  10.465  0.0032 -0.4388 -0.0180
30220W        W73236  21.487  14.968   1.895  0.0224 -0.2032 -0.3045
30221W        W73237  27.211  11.528   1.446  0.4561  0.3421  0.4755
30222W        W73238  18.193  27.667  15.684  0.0863  0.0670  0.0079
30223W        W73239  32.616  25.244   2.669  0.0273  0.2284  0.1023
30224W        W73240  22.092   4.446   4.456  0.2588 -0.0023 -0.0448
30225W        W73241  23.127  16.709   8.136  0.2646  0.0131 -0.1136
30226W        W73242  16.842  19.316   6.687  0.1276  0.0814 -0.2931
30227W        W73243  29.969  31.424   9.926  0.3836  0.1895  0.2175
30228W        W73244  23.812   0.669   0.529  0.0571  0.0469  0.0306
30229W        W73245  28.453   3.243   9.841 -0.1101 -0.0698 -0.1271
30230W        W73246  30.386  28.881   0.813 -0.3653  0.1122 -0.3293
30231W        W73247  23.097   1.086  19.072 -0.2746  0.0053  0.2687
30232W        W73248   4.122  10.904   0.124  0.0660 -0.1997 -0.0065
30233W        W73249  32.846   4.494  25.560 -0.0227  0.1583 -0.1179
30234W        W73250  17.252  10.177   6.365  0.0843 -0.0693  0.1708
30235W        W73251  28.594   0.121  26.662 -0.0143 -0.1115 -0.1263
30236W        W73252  33.950  11.878  28.922 -0.0338  0.0752  0.2452
30237W        W73253  22.392   4.812   6.208 -0.1800  0.0421  0.3891
30238W        W73254   1.762  34.067   8.435  0.1704 -0.0361  0.0488
30239W        W73255  11.706  17.894   7.118  0.0465  0.0103 -0.1203
30240W        W73256  25.340   7.549   2.313  0.3834  0.2263 -0.4378
30241W        W73257  32.424   1.166  24.853  0.4003 -0.3596  0.0556
30242W        W73258  32.052   5.916   3.375 -0.0717  0.1422 -0.0593
30243W        W73259  24.567  32.908   5.336 -0.0415  0.0279  0.1041
30244W        W73260   0.863   6.164   9.524  0.0784 -0.0202 -0.2544
30245W        W73261  31.813   5.650   6.122 -0.1526  0.2794  0.3136
30246W        W73262  14.134  20.104   1.877 -0.0496  0.0590 -0.5459
30247W        W73263  26.568  27.407  16.667  0.0551 -0.1839 -0.1574
30248W        W73264  28.863   3.910   1.788 -0.2896  0.0542  0.0444
30249W        W73265  22.478  24.610   8.251  0.0346 -0.3026  0.2666
30250W        W73266  21.447  20.354  29.161 -0.1797  0.0767 -0.1163
30251W        W73267  28.144  11.875  25.823 -0.0893  0.1299 -0.2025
30252W        W73268  19.484  33.932   2.916 -0.2432  0.2755  0.0280
30253W        W73269  14.335   5.663  22.909 -0.0564  0.1197  0.0684
30254W        W73270  25.365  31.434   7.432 -0.0854  0.1258 -0.1825
30255W        W73271   8.840  13.503   0.172 -0.2177  0.2890  0.2049
30256W        W73272  20.883  16.328   6.917 -0.3994 -0.0352  0.0267
30257W        W73273  28.482  26.350  23.692 -0.0132  0.2214  0.3197
30258W        W73274  30.227  28.793  10.253  0.2131 -0.3692 -0.0841
30259W        W73275  33.562   3.159   8.945  0.2638  0.1260 -0.1007
30260W        W73276   6.144   9.669  20.407  0.1475  0.0809 -0.0612
30261W        W73277  27.331  15.776   8.044 -0.3309 -0.1578  0.1380
30262W        W73278  32.431  10.432   5.034  0.0979  0.3136  0.1033
30263W        W73279   7.878  11.793  14.773  0.0561 -0.0971 -0.2656
30264W        W73280   0.062  33.294   6.978  0.0710 -0.1110  0.1205
30265W        W73281  28.951   9.146   9.167  0.2250  0.1826  0.3749
30266W        W73282  19.704  32.064   4.931  0.1793 -0.0764 -0.0197
30267W        W73283   1.882   6.181   7.085 -0.2428  0.4662  0.1219
30268W        W73284  31.701  27.569   9.221  0.1098  0.4303  0.1722
30269W        W73285  15.187  11.737   5.485  0.2115  0.1469  0.1435
30270W        W73286  26.426  15.045   2.668  0.1794 -0.0785  0.2219
30271W        W73287   0.678   4.819  23.351  0.1098  0.0063 -0.0978
30272W        W73288  22.245   2.660   5.640  0.0862  0.2243  0.1452
30273W        W73289  26.415  33.965   0.936  0.1838  0.2324 -0.0147
30274W        W73290  25.533   9.487  24.927 -0.1097  0.1243  0.0286
30275W        W73291  15.095   2.328   7.264  0.2717  0.0924  0.0044
30276W        W73292  18.229   0.738  27.120  0.0299  0.4380 -0.1433
30277W        W73293  22.673   7.823   4.957  0.0823 -0.4552  0.3519
30278W        W73294  14.582  25.363   0.488  0.2271  0.0320  0.0866
30279W        W73295  29.591   4.212  27.739  0.2482  0.1919 -0.0001
30280W        W73296  24.409  11.068   3.861  0.0937 -0.2780  0.3079
30281W        W73297  29.590   4.535  27.083  0.1314  0.2732  0.0339
30282W        W73298   4.034  28.091   5.265  0.0327 -0.1104  0.3259
30283W        W73299  27.390   7.015   6.631 -0.0140 -0.1469 -0.1144
30284W        W73300  12.448  29.058   8.027 -0.1499  0.1632 -0.1233
30285W        W73301  27.262   9.623   3.300 -0.1012  0.0526 -0.1171
30286W        W73302  31.517   2.366   2.272  0.0416 -0.1080  0.2716
30287W        W73303  29.759  26.567  29.152  0.0870 -0.1529 -0.1681
30288W        W73304   1.668   0.321   4.429 -0.0690 -0.1345 -0.0215
30289W        W73305  34.039  32.737   0.053 -0.0608 -0.0068  0.1991
30290W        W73306   8.464   5.424   3.885 -0.1337 -0.1924 -0.1282
30291W        W73307  23.300  19.229  26.243 -0.0597 -0.0755  0.0391
30292W        W73308   1.084   3.568   5.783  0.0993 -0.0008  0.0827
30293W        W73309  17.823  28.388  26.985 -0.3368 -0.0317 -0.1422
30294W        W73310  20.537  18.289   3.846  0.0285  0.0862 -0.1689
30295W        W73311   0.757  24.827   8.312  0.0356 -0.1839 -0.2838
30296W        W73312  30.528   4.961   0.079 -0.1563  0.0271 -0.0240
30297W        W73313  30.179  19.956  26.217 -0.0166  0.0915  0.1402
30298W        W73314  16.574  25.125   7.779 -0.0409  0.1875  0.1207
30299W        W73315  33.400   9.097   8.482 -0.1823 -0.0596 -0.0644
30300W        W73316  10.409  23.985  27.536  0.0971 -0.0941 -0.0172
30301W        W73317   4.218  25.620   8.769 -0.0115 -0.0125  0.3774
30302W        W73318  23.679   8.690  24.139 -0.1731 -0.1595  0.0799
30303W        W73319  26.157   4.276  28.742  0.1643  0.0707  0.2595
30304W        W73320  33.335  29.013   8.456  0.1496  0.0211  0.3065
30305W        W73321   0.528  13.002   9.867 -0.0960  0.1450 -0.0268
30306W        W73322  27.230   6.972  26.348 -0.0921  0.0433  0.2519
30307W        W73323  29.133  29.462   1.069 -0.0809  0.0958 -0.0508
30308W        W73324  27.473  22.165   9.986 -0.0119  0.0647  0.2207
30309W        W73325  23.803   8.700   6.893  0.1584  0.1201  0.3630
30310W        W73326  10.644  29.612   6.643  0.0400  0.0588 -0.1185
30311W        W73327   0.365  23.939   6.055  0.0192  0.0583 -0.2913
30312W        W73328  15.393  29.782   0.544 -0.0588  0.1882  0.2645
30313W        W73329  27.725  32.880   6.157  0.0082 -0.2543 -0.0568
30314W        W73330  28.860  33.787  10.773 -0.2405  0.2845 -0.2466
30315W        W73331  26.627   7.434   3.679 -0.1835 -0.0570 -0.0674
30316W        W73332  30.380  34.697   1.837 -0.0386  0.2978 -0.1132
30317W        W73333  28.330  24.067  28.857 -0.2178 -0.0189 -0.0454
30318W        W73334   6.248  11.128   5.303 -0.4410  0.0739 -0.1123
30319W        W73335   1.747  13.550  28.075  0.2086 -0.0707 -0.1798
30320W        W73336  10.355  30.564   5.346 -0.2740  0.2605 -0.3602
30321W        W73337  32.580  21.484   5.179 -0.2402 -0.3177  0.2089
30322W        W73338  24.691  22.776   4.303  0.0561  0.1580  0.1708
30323W        W73339   1.244  14.230  14.523 -0.0885 -0.1778  0.3035
30324W        W73340  29.642   4.775  16.214  0.0634  0.0461 -0.1854
30325W        W73341  31.953   6.605  28.698 -0.1582 -0.4086  0.2508
30326W        W73342  27.443   4.314   1.684  0.2697 -0.0428  0.1423
30327W        W73343   3.221  31.314  28.538  0.0377 -0.0400  0.0399
30328W        W73344  18.012   4.142   4.108  0.4802  0.2088  0.0746
30329W        W73345  19.341  30.075   3.919  0.1436 -0.0059 -0.0822
30330W        W73346   8.331   3.958   9.529 -0.0586 -0.1737  0.1307
30331W        W73347  17.343  25.350   0.024 -0.2028 -0.2704 -0.0854
30332W        W73348   8.031  15.193   7.929  0.1077 -0.2178 -0.2605
30333W        W73349   4.054   9.987   0.347 -0.4277 -0.2432 -0.0021
30334W        W73350  27.718  33.520   2.212  0.0301  0.2675 -0.0102
30335W        W73351  34.080  32.063   7.156  0.2887  0.2258 -0.1096
30336W        W73352   4.294  24.223   0.741 -0.2557 -0.1109 -0.0293
30337W        W73353  32.160  31.818  28.768  0.2188 -0.1756 -0.0432
30338W        W73354  13.890  30.135  27.220 -0.0391 -0.1365  0.2835
30339W        W73355  24.931  23.535   1.271  0.2341 -0.0064  0.0266
30340W        W73356  21.620  32.438   1.815  0.1864  0.0822  0.1846
30341W        W73357  13.760  24.636  24.944 -0.0841  0.2907  0.0308
30342W        W73358  32.105   0.065   7.273  0.1687 -0.1478  0.3545
30343W        W73359  24.669   3.300   9.089  0.1436  0.0346  0.1472
30344W        W73360  21.862   9.984  21.613 -0.2930  0.1532 -0.0061
30345W        W73361  34.624  16.103   4.664 -0.0079  0.3978  0.0752
30346W        W73362  27.626  33.082  11.437 -0.1167 -0.0650 -0.1376
30347W        W73363  28.987   5.955  23.825 -0.1758 -0.1139  0.1256
30348W        W73364  15.726   6.221   3.884  0.0539 -0.1029  0.2082
30349W        W73365  20.230  32.612   4.090 -0.2628 -0.0931  0.2763
30350W        W73366  24.240  11.345   5.690 -0.1901 -0.2944 -0.0506
30351W        W73367  23.203   7.061   3.116 -0.0639  0.2203 -0.0909
30352W        W73368  32.669   6.095   1.288 -0.0109 -0.2132 -0.2631
30353W        W73369  31.205  29.876   9.353 -0.1133 -0.2758 -0.1818
30354W        W73370   9.745   6.606   7.908 -0.2463  0.2492  0.0098
30355W        W73371  24.889   1.869   6.597 -0.1731  0.1084 -0.0897
30356W        W73372  24.697  24.156   6.571 -0.1465  0.4716  0.0344
30357W        W73373  29.527   5.764   2.450 -0.2491 -0.0254 -0.5029
30358W        W73374  17.876   5.536   5.087 -0.1433 -0.1117  0.0713
30359W        W73375  11.035   1.881  18.543 -0.2052 -0.3626 -0.1989
30360W        W73376   3.476   9.872   7.677  0.0263  0.1518  0.2098
30361W        W73377  14.565  32.606   1.584 -0.2259 -0.2559  0.0294
30362W        W73378  25.725  34.617   6.881 -0.6348 -0.0596  0.0974
30363W        W73379   9.056   9.870  15.312 -0.0630  0.2671 -0.2632
30364W        W73380  24.635   6.645   8.783  0.4331 -0.0206  0.0363
30365W        W73381   0.991   4.327   5.458 -0.2067 -0.1570  0.2241
30366W        W73382  19.694  11.004  27.172 -0.1820 -0.0578 -0.3964
30367W        W73383  16.165  32.876   4.628  0.0064  0.0038  0.1535
30368W        W73384  34.285  20.530   2.902  0.2508 -0.1662 -0.0928
30369W        W73385   2.368  23.473   1.381 -0.2172  0.0655  0.1723
30370W        W73386  25.970  14.006   0.785 -0.0340  0.2698  0.3808
30371W        W73387  19.217  29.312   9.825  0.1732 -0.1825  0.0978
30372W        W73388   1.919   7.748  26.716  0.1150 -0.2695  0.1455
30373W        W73389  28.695  33.928   8.271  0.1460  0.1259  0.0581
30374W        W73390  31.951  32.827  10.332  0.3392  0.0337 -0.1023
30375W        W73391  23.233   7.127  20.703 -0.1800  0.4565 -0.3337
30376W        W73392  31.741   0.307   9.219  0.2681 -0.1536  0.1707
30377W        W73393  29.588   6.757  29.128  0.0744  0.0884  0.0121
30378W        W73394  15.751  22.678   0.136 -0.0727  0.2102  0.2017
30379W        W73395  22.858   3.050  10.520  0.0242  0.0232 -0.1884
30380W        W73396   4.886   9.447  25.711 -0.2194 -0.1088  0.4167
30381W        W73397  31.070  33.759   5.483  0.0309 -0.0214  0.1474
30382W        W73398  23.714  23.716   0.724  0.0255  0.1528 -0.3878
30383W        W73399  30.976  34.444  27.827 -0.4724  0.2083  0.1652
30384W        W73400  28.476  31.301  10.859 -0.0694 -0.0337  0.2096
30385W        W73401  24.204  32.202   1.522  0.4045  0.2009  0.2248
30386W        W73402  14.189  23.114  19.895  0.1522 -0.0556  0.1123
30387W        W73403  25.246  16.658   4.398  0.1722 -0.0900 -0.0059
30388W        W73404  28.039  34.638   6.908 -0.0345 -0.1134 -0.0265
30389W        W73405  20.177  12.140   6.286  0.3722 -0.1209  0.2526
30390W        W73406  20.454  11.915   1.125  0.0089  0.1603  0.2285
30391W        W73407  10.977   4.187   5.183  0.1676 -0.1202 -0.2378
30392W        W73408  14.535  14.040   7.950  0.1636 -0.1512 -0.1261
30393W        W73409  18.340  27.932  27.622 -0.0275 -0.0792  0.0693
30394W        W73410  33.126   5.791  27.228  0.1688  0.2368 -0.4520
30395W        W73411  25.673   9.905   7.210  0.0757  0.0804  0.0142
30396W        W73412  21.050  17.508  26.209  0.2682  0.1616  0.2092
30397W        W73413  14.656  26.732   4.852 -0.2955  0.1436  0.2154
30398W        W73414  28.851  11.907   8.598 -0.1296 -0.2733 -0.0815
30399W        W73415  32.065  21.503   5.938 -0.2529 -0.2101  0.0844
30400W        W73416   3.241  31.467   4.040  0.1237  0.0205  0.1214
30401W        W73417  29.638   1.829  28.644  0.2973 -0.1574  0.2366
30402W        W73418  23.589  27.286   9.416 -0.0735 -0.1741 -0.3010
30403W        W73419   2.036   6.495   0.265 -0.0172 -0.1873  0.1169
30404W        W73420  32.441   4.840  28.604  0.0201 -0.1950 -0.1410
30405W        W73421  16.034   1.251   7.296  0.3113 -0.0672  0.1078
30406W        W73422  26.352  12.034   1.028 -0.0860 -0.1964  0.1877
30407W        W73423  23.943  33.979  11.465  0.1345 -0.0580  0.3721
30408W        W73424   6.941  27.641   1.154 -0.1586  0.1246 -0.0621
30409W        W73425  30.089  12.992   6.608 -0.3010 -0.3014 -0.1503
30410W        W73426  19.402  11.210   8.848 -0.2483 -0.0601 -0.1446
30411W        W73427  29.290   1.695   3.563  0.2032  0.1984 -0.1341
30412W        W73428  19.872  12.151  25.561  0.4241  0.0860  0.1607
30413W        W73429  30.051   7.874   8.570 -0.1059  0.0796 -0.1561
30414W        W73430  17.462  13.967   6.790  0.2123 -0.1018 -0.0648
30415W        W73431  26.855   1.704   3.938 -0.3943  0.2271  0.2628
30416W        W73432   7.562   0.280   3.406  0.5180  0.1326 -0.2224
30417W        W73433  10.844   3.981  26.461 -0.0737 -0.1645 -0.0930
30418W        W73434  22.688  19.795  13.740 -0.2436  0.0673 -0.0316
30419W        W73435  33.146   0.422   4.674  0.1609  0.2388 -0.0189
30420W        W73436  20.687   7.877   1.499 -0.0595 -0.1744  0.3432
30421W        W73437  30.969  31.460   5.992 -0.0009  0.2728 -0.1870
30422W        W73438   1.643  15.911   9.235 -0.1341 -0.1100  0.0260
30423W        W73439  21.107   8.828   7.238  0.0368 -0.0978  0.1217
30424W        W73440   9.105  33.246   4.825  0.1330  0.0811  0.1200
30425W        W73441  34.716  20.279   2.723 -0.1644  0.0200  0.0987
30426W        W73442  23.295   8.871  25.483  0.1933  0.2662 -0.3081
30427W        W73443  24.389  33.984  10.657  0.0513 -0.1202  0.3517
30428W        W73444  21.941   2.801   6.981 -0.0162  0.1892 -0.2833
30429W        W73445  25.671  21.356  10.182  0.0521 -0.1049  0.1705
30430W        W73446   6.006  24.910   1.493  0.1065 -0.1324 -0.0287
30431W        W73447   1.349  28.721   0.271  0.1815  0.1324  0.0376
30432W        W73448  29.665  13.902  27.680 -0.2764  0.1031 -0.2220
30433W        W73449   1.145   8.669   9.015  0.2177  0.1978 -0.0645
30434W        W73450   2.751   1.613   8.599  0.0652 -0.1834 -0.1222
30435W        W73451  19.181  13.249  28.725 -0.2850  0.3122 -0.0449
30436W        W73452  24.442  27.123   1.357 -0.1822  0.0161  0.0490
30437W        W73453  33.640   1.914   5.274 -0.0034  0.0601  0.2790
30438W        W73454  24.714  33.479  28.281 -0.4349 -0.1671 -0.0794
30439W        W73455  21.150   1.748  25.043  0.1714 -0.0346 -0.0884
30440W        W73456  29.839   0.134   7.831 -0.1113  0.0722 -0.1714
30441W        W73457  17.108  14.578  22.613 -0.2379  0.0484 -0.2230
30442W        W73458  21.004  24.752   4.469  0.1489 -0.2587 -0.2490
30443W        W73459  31.489   1.199   1.326 -0.1511 -0.1427 -0.2222
30444W        W73460  26.680  28.011   0.305 -0.1259 -0.0540 -0.1277
30445W        W73461   8.294  12.304   2.418  0.1725  0.0286  0.0612
30446W        W73462  28.427   4.777   4.389  0.1619  0.2015 -0.2396
30447W        W73463  15.481  30.089   1.607 -0.0716 -0.0094  0.0032
30448W        W73464   2.519   8.741  25.201 -0.0652  0.0912  0.1056
30449W        W73465   2.729   4.522   3.492  0.0212  0.0966 -0.3214
30450W        W73466  32.045   0.099   3.643  0.2578 -0.0061 -0.2136
30451W        W73467  26.407  20.909  18.725  0.0921 -0.1400  0.0716
30452W        W73468  22.196   6.185   5.654 -0.2456 -0.3593 -0.1152
30453W        W73469  25.389  23.468   1.126  0.1399  0.2700  0.3232
30454W        W73470  29.024  34.308   0.391  0.1459 -0.1517 -0.0155
30455W        W73471   3.950   5.603   1.001 -0.2968  0.1798 -0.1943
30456W        W73472   4.484  33.475  24.493 -0.1985  0.0458  0.0717
30457W        W73473   5.883   6.262   5.853 -0.1398 -0.0721 -0.1818
30458W        W73474  34.100   1.488   3.386  0.4291  0.1546  0.2606
30459W        W73475  25.033  15.402  24.335  0.1077  0.0204  0.0033
30460W        W73476  33.844  23.532   4.014  0.2168 -0.0206  0.2353
30461W        W73477  23.740  30.692   3.687  0.3692 -0.0758  0.1646
30462W        W73478  32.299  22.196  23.150 -0.0054  0.0300 -0.2910
30463W        W73479  21.510   4.803   8.547  0.3770  0.2468  0.0811
30464W        W73480  27.621   8.300  11.175 -0.1478  0.2258  0.0713
30465W        W73481   9.794   0.571   1.768 -0.3360  0.2853  0.3360
30466W        W73482  34.699  25.955  10.324  0.2283 -0.1157  0.2277
30467W        W73483  33.618  18.090  10.451  0.0810 -0.1990  0.0409
30468W        W73484  11.640  21.585  15.112 -0.1998 -0.2562 -0.5256
30469W        W73485  20.280   4.486   7.635 -0.0005  0.1776 -0.0083
30470W        W73486   2.630  26.527   3.125  0.2366 -0.3514  0.1748
30471W        W73487  22.739  23.941   1.408  0.2237 -0.0917 -0.0704
30472W        W73488  26.474   9.523   1.747  0.0403 -0.1575 -0.0477
30473W        W73489  22.019   9.917   8.686 -0.2167 -0.1251 -0.0732
30474W        W73490  34.738   3.723   7.371  0.5811  0.2485  0.0711
30475W        W73491  30.114   4.288   9.713 -0.0153  0.1024 -0.2136
30476W        W73492  22.316   7.688   8.444  0.0979 -0.0720  0.1658
30477W        W73493  26.540  21.677   4.605  0.2308 -0.0845 -0.4241
30478W        W73494  21.741  33.550   9.944  0.2212  0.2521 -0.0112
30479W        W73495  21.091   6.030   4.470  0.0723  0.0012  0.3503
30480W        W73496  31.164   4.191  25.763  0.1315 -0.1507  0.0864
30481W        W73497  34.098  26.144  27.365  0.0418  0.2149 -0.0784
30482W        W73498  24.012  14.336  22.648 -0.0094  0.0563  0.1221
30483W        W73499   5.501  30.395   4.803  0.0576 -0.0075 -0.1217
30484W        W73500  13.773  11.496   1.778  0.0763  0.1297  0.2433
30485W        W73501  29.061  28.512  10.699 -0.1693  0.0271  0.1452
30486W        W73502  30.797   9.999  25.431  0.2459 -0.0230 -0.3240
30487W        W73503   5.400   6.771   3.505 -0.1736  0.0597  0.1631
30488W        W73504  32.473   1.974   9.122 -0.1064 -0.1412  0.1194
30489W        W73505  28.689  29.320   4.700 -0.0685 -0.4047  0.1598
30490W        W73506  34.427  14.837   9.754  0.0485 -0.1403 -0.2359
30491W        W73507  27.934   2.471  28.095 -0.2137 -0.0058  0.3385
30492W        W73508  28.879   7.895   7.939  0.0872  0.3822  0.2601
30493W        W73509  14.832   2.284   3.027 -0.2605 -0.0006 -0.2148
30494W        W73510  30.456  11.569   8.700  0.1222 -0.0427  0.2914
30495W        W73511   9.293  19.754  29.307  0.0723  0.1368  0.0702
30496W        W73512  16.040  32.600   2.040  0.2090  0.0462  0.0964
30497W        W73513  16.175   9.243   0.785  0.0512  0.1651  0.1525
30498W        W73514   8.456  31.626   6.513  0.1384 -0.1203  0.2650
30499W        W73515  24.136   3.791   1.142 -0.0564 -0.3696 -0.1379
30500W        W73516  16.696  31.832   9.607  0.2247  0.0664  0.0680
30501W        W73517  24.588  24.662   6.236 -0.0656 -0.0749  0.0357
30502W        W73518  24.472  30.503   7.039 -0.2282  0.1450 -0.3374
30503W        W73519   2.562  22.161   2.814 -0.0574 -0.0206  0.0248
30504W        W73520   8.093  31.703  26.277 -0.3527 -0.2077  0.0263
30505W        W73521  16.757   1.117   2.469 -0.1457 -0.2416  0.0194
30506W        W73522  24.192   4.342  10.097  0.3924 -0.0346 -0.0265
30507W        W73523  24.470  33.800  27.463 -0.0692 -0.0526  0.1523
30508W        W73524  33.643  15.686  25.138  0.1131  0.0436  0.0720
30509W        W73525   4.215  34.294   4.787  0.0293  0.0313  0.2124
30510W        W73526  27.332  31.116  27.326 -0.0892  0.0962  0.1074
30511W        W73527  20.921  16.986  20.334  0.0899 -0.3386  0.2328
30512W        W73528   4.575  14.407  24.950 -0.0533 -0.2667 -0.0159
30513W        W73529  32.447  24.248  22.516  0.1009  0.1668  0.1350
30514W        W73530  21.087  13.950  22.704  0.1115  0.0144  0.1814
30515W        W73531   2.767  31.339   9.834 -0.0289  0.0412  0.1137
30516W        W73532   6.803  10.789   7.156 -0.0608  0.0486 -0.4195
30517W        W73533  27.338  30.717  28.933 -0.1141  0.4676  0.0614
30518W        W73534  18.094  15.094  14.015  0.0981 -0.0642 -0.0662
30519W        W73535  21.280  30.254   6.406  0.4529 -0.2085  0.1925
30520W        W73536  29.429   7.180   8.178 -0.0718 -0.1992  0.1529
30521W        W73537  33.149   9.177   2.856  0.0674  0.1568  0.1374
30522W        W73538  23.265   4.482  26.827 -0.0472 -0.1285 -0.0404
30523W        W73539   2.273  34.630   8.601  0.3433 -0.1899  0.3674
30524W        W73540  27.874  22.715   6.899  0.1724  0.0706  0.3085
30525W        W73541   9.593  27.682   4.567  0.0094  0.2919 -0.3580
30526W        W73542  18.815  21.335  25.379 -0.1128  0.2644  0.3626
30527W        W73543  15.782  25.205   7.404  0.1595  0.0513 -0.3136
30528W        W73544  32.213   7.052   6.615  0.0047  0.1126  0.3986
30529W        W73545  18.160  31.759   7.948 -0.0916 -0.0754 -0.0870
30530W        W73546  24.058  33.383   5.935  0.1996 -0.0512  0.0911
30531W        W73547  17.811   0.163  25.655 -0.0702 -0.0075  0.1127
30532W        W73548  20.543  25.404   6.765 -0.0270  0.1352  0.1899
30533W        W73549  30.335  10.316   9.237 -0.0070  0.2437 -0.0809
30534W        W73550  14.853  18.285  20.694  0.2187  0.1843  0.1603
30535W        W73551  33.291  28.115   2.485 -0.0103  0.0391  0.4445
30536W        W73552  32.834   7.021   9.451 -0.2129 -0.1618 -0.3088
30537W        W73553  24.329   8.126  10.739 -0.0955 -0.0697  0.2825
30538W        W73554  23.399  11.579   4.732  0.0692  0.1776  0.0548
30539W        W73555  31.518  11.633  10.089  0.0741  0.2807 -0.0639
30540W        W73556  19.069   8.883   7.230 -0.0779 -0.1746 -0.0559
30541W        W73557  22.982   3.314   2.804 -0.1258  0.0033 -0.0061
30542W        W73558  24.065   5.560   0.716  0.0325 -0.0424  0.0213
30543W        W73559  19.136   9.701   3.115 -0.2561  0.1561 -0.0209
30544W        W73560  27.406   1.265   4.469  0.2845 -0.0593 -0.0465
30545W        W73561  23.433   4.838   6.476 -0.0973 -0.2140 -0.1142
30546W        W73562   6.008  24.051  27.722 -0.3822 -0.1532 -0.0863
30547W        W73563  23.491   9.661  10.171  0.0609  0.1288 -0.0531
30548W        W73564   2.154   8.362   4.811  0.1365  0.1548 -0.1640
30549W        W73565  22.506   5.141  28.454 -0.0069 -0.1856 -0.1587
30550W        W73566  32.736  13.605   2.709  0.2660  0.0512  0.3105
30551W        W73567  20.282  30.115   6.900 -0.2221  0.0651 -0.1001
30552W        W73568  30.084  10.949  26.593  0.4499 -0.0178  0.0214
30553W        W73569   9.135  31.186   1.566 -0.0158  0.2101 -0.1924
30554W        W73570  27.697   0.567   7.590  0.0253 -0.0553  0.0869
30555W        W73571  22.002  34.621   1.209 -0.3983  0.0976 -0.1328
30556W        W73572  30.769  31.458   7.329 -0.4602  0.0569  0.0846
30557W        W73573  13.352   6.585   8.120  0.1606 -0.3019 -0.0547
30558W        W73574  23.152   4.444   9.645  0.0950  0.0741 -0.2815
30559W        W73575  20.341  11.214  15.447 -0.2704  0.0565 -0.0329
30560W        W73576   1.975   5.297   2.094  0.1962 -0.0746  0.1770
30561W        W73577  20.018   1.773   7.550  0.0946  0.0641  0.2143
30562W        W73578   1.288  30.641   2.476 -0.1412 -0.1552  0.0719
30563W        W73579  33.141  31.229  10.812  0.2467  0.2782 -0.0328
30564W        W73580   1.584  26.771   9.225  0.2389  0.1939 -0.3279
30565W        W73581  29.077  26.902  11.181 -0.2399 -0.0439 -0.0510
30566W        W73582  31.457  15.081  21.758 -0.1827 -0.0850 -0.0184
30567W        W73583  23.324  25.961   7.436  0.0474 -0.1439  0.1065
30568W        W73584   9.434   5.050  28.755 -0.0664 -0.0011  0.0037
30569W        W73585   5.622   8.548   1.731  0.2181  0.2693  0.0919
30570W        W73586   4.976  34.540  27.274  0.1284 -0.1568  0.1677
30571W        W73587  20.299  29.584   6.859  0.1110  0.1615 -0.1580
30572W        W73588  22.383  26.795  10.804 -0.0809  0.0777  0.1399
30573W        W73589  31.227  21.712  10.860  0.0759  0.0130  0.1324
30574W        W73590  20.454  33.555   7.831 -0.3302 -0.3879 -0.0572
30575W        W73591  13.931   8.617  27.139 -0.1370 -0.2576 -0.0957
30576W        W73592  26.946  34.225   4.873  0.0509  0.0524  0.0091
30577W        W73593   7.355  14.725   2.465 -0.2982  0.1079 -0.0139
30578W        W73594  33.801  32.954   3.906  0.2235  0.2922 -0.0274
30579W        W73595  29.039  21.355  27.856 -0.1966  0.1292  0.2516
30580W        W73596  32.665   6.507   2.598 -0.1047 -0.1620 -0.0418
30581W        W73597   4.656   5.386   1.818 -0.2030 -0.0621 -0.2938
30582W        W73598   7.309  23.646  22.359  0.1958  0.3692  0.1354
30583W        W73599   5.244   0.296   3.842 -0.0436  0.1445  0.0599
30584W        W73600  24.971   5.322   8.024 -0.0156  0.1364 -0.1500
30585W        W73601  25.596  23.381   0.300  0.2466 -0.0678 -0.1179
30586W        W73602  32.743   6.127  27.989  0.0283  0.0783 -0.0428
30587W        W73603  32.315  28.916   6.011  0.0486 -0.0564 -0.0604
30588W        W73604   0.070  27.628   3.547  0.1797 -0.1545 -0.1063
30589W        W73605  25.392  22.961   7.300  0.0569  0.0956  0.1698
30590W        W73606  26.776  11.085   0.591  0.0911  0.2903 -0.0227
30591W        W73607  28.490   0.154  28.990  0.1157  0.3477 -0.4571
30592W        W73608  20.523  14.684  22.184 -0.1915  0.0749  0.1398
30593W        W73609  34.306  26.962  23.191  0.2309 -0.0066 -0.0873
30594W        W73610  34.537  33.069   1.222  0.0324 -0.4444  0.2490
30595W        W73611  34.162  12.992   7.388 -0.0871  0.2014 -0.4534
30596W        W73612  22.105  27.807   5.847  0.1753  0.0568 -0.0462
30597W        W73613  23.515  10.481  10.009  0.0977 -0.1048  0.2622
30598W        W73614  30.145   0.863   7.229 -0.2428  0.2533  0.0745
30599W        W73615   5.892   4.397   1.112 -0.1117 -0.1546  0.0350
30600W        W73616  30.826   3.505  24.722 -0.3089  0.3588  0.0407
30601W        W73617   0.386  18.860  21.681 -0.1195 -0.1939  0.0598
30602W        W73618  28.694   2.295   2.263 -0.1810  0.1318 -0.0139
30603W        W73619  22.858  27.191  24.826 -0.1060  0.0991 -0.1850
30604W        W73620  26.231  31.619  11.275  0.0777  0.1278  0.1394
30605W        W73621  28.491  32.732   7.247 -0.0636 -0.1526  0.1112
30606W        W73622  16.307  14.491   4.181  0.0534 -0.4035  0.0344
30607W        W73623  24.361   3.882  28.582  0.0772 -0.1817 -0.2054
30608W        W73624  31.050  29.351  10.221  0.0167 -0.1857 -0.0276
30609W        W73625  25.039   4.783  25.640  0.0782  0.1631 -0.1988
30610W        W73626  31.160  27.419   4.706  0.0302 -0.2575  0.0260
30611W        W73627  21.912  25.776   2.845 -0.1008  0.0622  0.0112
30612W        W73628  14.241   8.360   2.934 -0.0629  0.1226 -0.0040
30613W        W73629  24.959   1.474  16.501  0.1830 -0.2044  0.0122
30614W        W73630  27.623  27.160  10.069  0.0508  0.2298  0.2722
30615W        W73631  13.650   8.744  25.401  0.3789  0.0500  0.1550
30616W        W73632  29.811  27.963  10.215 -0.1579  0.2191 -0.0991
30617W        W73633  23.033   2.434   8.567  0.1145  0.3260  0.2777
30618W        W73634  19.858  32.563   0.459 -0.0121  0.1226  0.2092
30619W        W73635  19.647   6.264  28.241 -0.3897  0.1777 -0.5064
30620W        W73636  27.330  20.835  20.015 -0.0719  0.0730 -0.0711
30621W        W73637  17.804  18.545   2.600  0.0236  0.1591 -0.0040
30622W        W73638  26.858  25.451  22.264  0.2337  0.0868 -0.2571
30623W        W73639  22.553   8.373   4.245 -0.1368  0.0239 -0.0391
30624W        W73640  20.766  30.490   7.328 -0.2893  0.0783  0.0010
30625W        W73641  32.197  23.336   8.013 -0.2845 -0.4292  0.0243
30626W        W73642  13.510  34.662  10.121 -0.2623 -0.1910  0.1508
30627W        W73643  27.093  30.740   5.477 -0.0833  0.0841  0.0664
30628W        W73644  22.391  22.314  27.111  0.4421  0.1409 -0.2001
30629W        W73645  17.154   4.031   8.876  0.0520 -0.1128  0.2795
30630W        W73646  25.201   7.816  22.872  0.1735  0.2832  0.0751
30631W        W73647   3.509  24.946   3.258 -0.1259  0.1139  0.0694
30632W        W73648  25.957  24.010   4.672  0.0279  0.3533 -0.0881
30633W        W73649  23.433  20.371   2.686  0.1224  0.0344 -0.1146
30634W        W73650  30.469  23.381  11.445  0.0244 -0.1696 -0.1405
30635W        W73651  12.882  33.407   8.149  0.2134 -0.2868 -0.0236
30636W        W73652  18.717  31.447   6.950 -0.2805  0.0029  0.0405
30637W        W73653  28.740  17.595  23.012  0.2214  0.0463 -0.1899
30638W        W73654   4.352   4.097   0.143 -0.0454 -0.1782 -0.0595
30639W        W73655  27.697  15.876  22.240  0.3339  0.1600  0.1218
30640W        W73656  32.055  10.566   1.065 -0.1006 -0.0008  0.2970
30641W        W73657  10.926  11.493   1.925 -0.0753  0.1345  0.0498
30642W        W73658  20.173  24.473   8.068 -0.1072  0.1683  0.0839
30643W        W73659  17.873  25.254   4.846  0.3562 -0.0869  0.1631
30644W        W73660  11.183   2.845  10.448  0.0492 -0.0873  0.2612
30645W        W73661  33.347   9.413   5.752  0.0525  0.0233 -0.1851
30646W        W73662  15.240   5.964   1.808 -0.1286 -0.3231 -0.2064
30647W        W73663  15.577  25.364   8.641 -0.0687  0.1234  0.4155
30648W        W73664  16.477  34.630   9.599 -0.1415 -0.0813  0.1905
30649W        W73665  17.548  29.485   6.879 -0.2343 -0.2100 -0.0535
30650W        W73666  31.447   5.642   0.068  0.1993 -0.0450  0.2426
30651W        W73667   1.215   4.465   0.881 -0.0995 -0.1253 -0.3619
30652W        W73668  26.766  31.223   9.341  0.2948  0.1269 -0.0921
30653W        W73669  24.964  31.562   5.070  0.0946 -0.1477 -0.0719
30654W        W73670  32.143   1.985   5.389  0.0033 -0.0780  0.0267
30655W        W73671   8.421  31.269  28.940 -0.1201 -0.1031 -0.0759
30656W        W73672  21.335   1.252  11.082  0.0198 -0.0937 -0.0418
30657W        W73673  29.194  29.804   6.036 -0.0172 -0.0153 -0.3063
30658W        W73674  31.928  25.207  10.611  0.2269 -0.0647  0.1789
30659W        W73675  21.784  14.051  25.030  0.0665  0.1419 -0.0616
30660W        W73676  14.376   2.101   3.175  0.1449  0.0653  0.1270
30661W        W73677  32.890   2.972  17.486 -0.0021  0.2573  0.3366
30662W        W73678  31.330   4.671   9.794  0.0266  0.0681  0.1123
30663W        W73679  29.834  16.251   8.333  0.2845  0.0312 -0.2172
30664W        W73680  17.386   6.250   5.475 -0.0680 -0.0876 -0.1616
30665W        W73681  28.280   2.164  24.899  0.0956  0.2528 -0.1874
30666W        W73682  22.228   7.331   8.817  0.2466  0.0940  0.1113
30667W        W73683   1.903   4.173   9.233  0.1085  0.0932  0.4378
30668W        W73684  22.613  31.318   8.109 -0.0991 -0.2212  0.1945
30669W        W73685  16.109  18.093  22.222  0.1781  0.0845 -0.2156
30670W        W73686   1.702   4.570   8.896 -0.3146  0.1920  0.0024
30671W        W73687  26.230  27.267   0.460  0.2486  0.1951  0.1042
30672W        W73688  31.320   0.608   7.894 -0.2687 -0.0792 -0.1068
30673W        W73689  33.085   2.964   8.723 -0.1804  0.3728 -0.1095
30674W        W73690   4.731   6.722   7.752  0.2393  0.0146 -0.1855
30675W        W73691  27.204   3.732   4.303 -0.0220  0.1370 -0.3772
30676W        W73692  18.973   0.819   7.223  0.0664 -0.0588  0.2027
30677W        W73693  29.718  31.628   1.362 -0.2676  0.0464 -0.4081
30678W        W73694  26.281  21.060   2.463  0.3868  0.0427  0.0288
30679W        W73695  10.058   9.826   6.129  0.2206  0.0334 -0.3490
30680W        W73696   0.894  11.762  24.286  0.0959 -0.0407  0.2559
30681W        W73697  20.354   6.450   5.993  0.1209 -0.1939  0.2937
30682W        W73698  27.737  15.355  23.137  0.0097  0.1624 -0.2315
30683W        W73699   9.584  13.645   5.702 -0.0679  0.0926 -0.1305
30684W        W73700  26.984   6.929   1.345 -0.1370  0.1274  0.0109
30685W        W73701  23.990  26.186  25.567  0.1751 -0.3461 -0.1411
30686W        W73702  31.145  29.351   9.240  0.3145 -0.1639 -0.3065
30687W        W73703  16.820  30.061  24.631 -0.0993 -0.0115  0.1314
30688W        W73704   0.896  32.822   6.291  0.1589 -0.0314  0.4709
30689W        W73705  12.471  28.588  24.852  0.2762  0.1813  0.0963
30690W        W73706  33.916  32.883  25.194  0.3950 -0.0414  0.0468
30691W        W73707  23.580   8.489  19.501 -0.0766 -0.1577 -0.2030
30692W        W73708   9.959  18.416   1.600  0.0333  0.3600 -0.2097
30693W        W73709   3.275   7.586   4.204  0.0506 -0.1490 -0.0580
30694W        W73710  29.695  21.948   0.809 -0.1401  0.1335 -0.2112
30695W        W73711  26.034  25.130  26.309  0.2674 -0.2687 -0.0676
30696W        W73712  27.430   6.645   4.557 -0.2601 -0.3497  0.2024
30697W        W73713  10.395  12.086   6.029  0.0949  0.1635 -0.3981
30698W        W73714   5.082   0.868   9.223 -0.0833  0.0905  0.1128
30699W        W73715  20.515  21.448  27.863  0.1077 -0.1707  0.2907
30700W        W73716  24.459  20.244  26.580  0.1157 -0.1257 -0.0923
30701W        W73717  25.882  26.116   7.777 -0.0494 -0.3390  0.0218
30702W        W73718  22.948   5.512   7.432 -0.3447 -0.2261 -0.0520
30703W        W73719  20.183   6.005   4.423  0.0124 -0.2104 -0.1949
30704W        W73720  24.895  14.044  23.522 -0.5694  0.1686 -0.0369
30705W        W73721  11.320   7.894   1.271  0.0039  0.0504 -0.1655
30706W        W73722  29.492  22.796   4.213 -0.0461  0.0405  0.2337
30707W        W73723  32.324   4.275   4.940  0.2998 -0.0519  0.1430
30708W        W73724  26.736  17.288   7.716  0.1389  0.1341 -0.0618
30709W        W73725  34.144  22.078   5.963  0.4718 -0.1534  0.0228
30710W        W73726  20.404   6.290   2.671 -0.1573 -0.1559  0.1283
30711W        W73727  28.396  25.709   3.910 -0.1666  0.0143  0.1744
30712W        W73728  21.529  19.489   1.242  0.0033 -0.1537  0.3053
30713W        W73729  16.244   4.664   4.664  0.1018 -0.0556 -0.0043
30714W        W73730  26.771  33.352  15.848  0.0026 -0.0020 -0.2012
30715W        W73731  27.423   5.946  27.357  0.1661  0.0033  0.1341
30716W        W73732  15.284  34.509   8.830 -0.0239 -0.1149 -0.2215
30717W        W73733  27.087  28.582   8.340  0.1888  0.1128  0.0852
30718W        W73734  25.307   2.026   7.405 -0.0400 -0.3900  0.1745
30719W        W73735  22.563   1.154  11.747 -0.1261  0.3464 -0.0764
30720W        W73736  24.783  32.528  27.639  0.1872  0.5269  0.1117
30721W        W73737  30.750   3.137  23.826  0.3313  0.2065 -0.3194
30722W        W73738  12.524  32.824   5.532 -0.2242  0.1297  0.1094
30723W        W73739  25.854   2.906   9.787 -0.1028  0.0234  0.1558
30724W        W73740  20.482   2.551   8.216 -0.3414  0.2784  0.1297
30725W        W73741  25.974  11.973   2.533  0.2316  0.1930  0.1778
30726W        W73742  32.372   7.748   4.633 -0.0636 -0.0197 -0.1683
30727W        W73743  21.643  33.352   8.941 -0.0026 -0.0347 -0.0135
30728W        W73744  30.645   3.202   8.321  0.2699 -0.0371  0.3485
30729W        W73745   9.360  13.513   7.698 -0.0140 -0.0878  0.2163
30730W        W73746  22.526   5.893  28.988 -0.2071 -0.1437  0.1096
30731W        W73747  27.609  22.494   0.891  0.0183  0.0688  0.0893
30732W        W73748   0.487  30.569   7.432 -0.3119 -0.0723  0.0493
30733W        W73749  23.911   0.301   9.957  0.1086 -0.0131 -0.1894
30734W        W73750   1.288  27.121   7.888  0.3927  0.0488 -0.3314
30735W        W73751   2.834   1.919   6.624  0.1445  0.1469 -0.0899
30736W        W73752  21.045   2.530   6.247  0.3740 -0.0062  0.1533
30737W        W73753  27.251  30.410  11.552  0.0701  0.1386  0.1080
30738W        W73754  14.254   2.649   7.656 -0.0216 -0.0783 -0.0483
30739W        W73755  23.001   7.546   5.181 -0.2270 -0.0911  0.5221
30740W        W73756  20.533  21.145   3.408 -0.0079  0.2309  0.0239
30741W        W73757  34.043   9.626   5.267  0.0145  0.0322 -0.1395
30742W        W73758  26.727  18.925  23.530 -0.4544  0.1795  0.0529
30743W        W73759  16.464  29.883   1.727  0.0172  0.0874 -0.1126
30744W        W73760   0.978   0.965   2.104  0.0177  0.2936 -0.1073
30745W        W73761  17.289  25.059   3.746  0.3490 -0.2818 -0.2179
30746W        W73762  21.381   8.863   9.701  0.0818 -0.0175 -0.0828
30747W        W73763  25.803  29.074   0.692 -0.2353 -0.1905  0.0654
30748W        W73764   1.599   1.472   6.563 -0.0740  0.2366  0.0397
30749W        W73765  17.408  13.028  20.854  0.1760 -0.0789  0.3266
30750W        W73766  20.865   2.918   9.642  0.0030  0.2674  0.0211
30751W        W73767  24.991   9.578   2.943  0.1749 -0.1162 -0.2326
30752W        W73768  33.938   6.454   8.631  0.0075  0.0153 -0.2044
30753W        W73769  24.794  21.160   6.050 -0.0262 -0.2535  0.0715
30754W        W73770  27.960   4.885   5.876 -0.1491  0.1016  0.0040
30755W        W73771  34.740   9.218   0.644  0.1278  0.1519 -0.1605
30756W        W73772   2.831   9.931  27.482 -0.0592  0.3913 -0.2794
30757W        W73773   5.698  31.031   8.206 -0.3519 -0.0043 -0.0741
30758W        W73774   9.257  25.231   6.458  0.3128 -0.3208 -0.0682
30759W        W73775  28.491   2.093   8.421  0.3622  0.1975  0.1878
30760W        W73776  10.718  25.237   8.265  0.1890 -0.3610  0.0684
30761W        W73777  23.969  33.023   4.129  0.2739  0.3044  0.1568
30762W        W73778   3.033  16.953  29.306 -0.1956  0.5185  0.0731
30763W        W73779  19.911  33.308   0.699 -0.0537  0.2820 -0.1250
30764W        W73780  16.147  32.588   6.223  0.2155 -0.0256  0.0021
30765W        W73781  32.493  30.570  28.643 -0.1928 -0.0284 -0.0854
30766W        W73782  16.648  27.105   0.153  0.1768 -0.1598  0.1587
30767W        W73783  32.454  25.046   3.147 -0.0872 -0.0574 -0.0836
30768W        W73784   5.156  34.195   0.020 -0.0252  0.2194 -0.2446
30769W        W73785   0.832   3.347  28.235 -0.2726  0.1639 -0.1458
30770W        W73786  24.670   0.060  11.457 -0.0747 -0.1179  0.1251
30771W        W73787  26.933  11.420   4.880 -0.1918  0.0820 -0.0681
30772W        W73788  25.393   4.343   0.051 -0.0174 -0.1027 -0.2710
30773W        W73789   7.666   2.595  22.111 -0.2009 -0.1850 -0.0018
30774W        W73790  32.096  33.124   4.460 -0.0357  0.1772 -0.3591
30775W        W73791  29.612  17.938   5.022 -0.0479  0.0312  0.0089
30776W        W73792  22.656   5.403   3.535 -0.0645 -0.1222  0.3120
30777W        W73793  22.380  31.777   2.968 -0.2150 -0.2199 -0.1555
30778W        W73794  32.157   3.619   9.778 -0.0627  0.2442  0.1315
30779W        W73795  16.800  22.677   6.302 -0.2139  0.1947  0.0926
30780W        W73796   6.828   3.912  23.415  0.0132 -0.0969 -0.1602
30781W        W73797  28.450  27.486   5.396 -0.2852  0.3312  0.0696
30782W        W73798   5.775  17.157   3.450 -0.0443 -0.1289 -0.0386
30783W        W73799  23.707  34.693   5.496 -0.0110  0.1320 -0.1527
30784W        W73800  34.678   4.608  10.106  0.0114  0.1424  0.1603
30785W        W73801   2.505   2.235  10.352  0.0648  0.0103 -0.0904
30786W        W73802  29.717  23.831  28.046 -0.0493  0.0250  0.0036
30787W        W73803  30.781  32.919   6.080 -0.0667  0.2582 -0.3653
30788W        W73804  21.659   3.540   4.385  0.3439 -0.2374 -0.1368
30789W        W73805  21.656   8.122   8.408 -0.0991 -0.0318  0.2197
30790W        W73806   0.988   0.753   4.068 -0.2142  0.0038  0.0247
30791W        W73807  21.878  23.082   7.280  0.0305  0.0519 -0.2421
30792W        W73808  34.603   3.096  15.068 -0.5260 -0.2717  0.5544
30793W        W73809   4.771   8.930   7.111  0.3574  0.0228  0.0490
30794W        W73810   4.803   8.151  29.243  0.1212  0.1501  0.1982
30795W        W73811  21.709   2.707   5.533 -0.3310  0.1102 -0.1090
30796W        W73812  22.020  14.294   6.163  0.1434  0.1405  0.2670
30797W        W73813  24.685  27.569   2.961 -0.0139 -0.0800  0.3939
30798W        W73814  22.831  11.951   1.060 -0.0262 -0.0675  0.1648
30799W        W73815  19.015   1.082  27.422 -0.0997  0.1004 -0.1656
30800W        W73816  30.182  16.625   2.496  0.0153  0.1802 -0.1154
30801W        W73817  34.753   3.103   5.467 -0.1049 -0.1125  0.0644
30802W        W73818  11.400  20.764  29.051 -0.4127  0.2453 -0.0258
30803W        W73819  30.547  34.165   5.559 -0.1425  0.2435  0.3068
30804W        W73820   8.232  15.721  17.667 -0.0852  0.0680 -0.2630
30805W        W73821  29.961  12.845   1.577 -0.4846 -0.0247  0.0685
30806W        W73822  32.762  18.694  20.057  0.1496  0.2988 -0.0843
30807W        W73823  22.503   7.022  23.472 -0.0638  0.1337  0.1776
30808W        W73824  32.006   4.500  20.218  0.1489 -0.2989 -0.4008
30809W        W73825  24.700  26.667   1.619 -0.0707 -0.0856 -0.0153
30810W        W73826  28.402  25.973   4.359 -0.1533 -0.0994  0.0890
30811W        W73827  25.677   6.559   0.592  0.1373 -0.2832 -0.1157
30812W        W73828  10.527  11.453  22.498 -0.3259 -0.0884  0.1440
30813W        W73829  11.843   7.993   0.430 -0.0378  0.0667  0.1332
30814W        W73830  15.870   5.710   3.949 -0.0239 -0.1409 -0.1584
30815W        W73831  32.121  33.048  10.710  0.1842  0.0225  0.2093
30816W        W73832  33.169  22.320  16.046 -0.1882  0.0470 -0.2146
30817W        W73833  28.129  11.788  28.284 -0.2643  0.3120 -0.0906
30818W        W73834  31.670  19.450  26.339 -0.0917  0.1714  0.0730
30819W        W73835   8.834   2.512  17.802  0.1334  0.0762 -0.1835
30820W        W73836  28.962  16.747  20.613  0.1558  0.2121 -0.0574
30821W        W73837  19.413   9.650  21.656 -0.2445 -0.0675  0.1742
30822W        W73838  29.087   8.400   9.677  0.0309 -0.0573 -0.2236
30823W        W73839  32.264  15.387  16.640 -0.0250  0.4628  0.4872
30824W        W73840  21.639  26.321  22.422  0.0760  0.0444 -0.2024
30825W        W73841  23.508  32.963  17.281  0.0804 -0.0276 -0.1189
30826W        W73842  34.632  34.762  20.679 -0.0985 -0.0375  0.4156
30827W        W73843   0.676   2.188   6.077 -0.3849  0.0930  0.2147
30828W        W73844  29.733  12.266   7.230 -0.1845 -0.1237 -0.0862
30829W        W73845  32.370   9.550  10.196 -0.2942 -0.0318 -0.0090
30830W        W73846  25.575   4.101  10.840 -0.1306  0.0422  0.1518
30831W        W73847  19.521  27.431  22.476  0.1219  0.0054  0.1934
30832W        W73848  24.012  32.879  17.169 -0.1343  0.2326 -0.1304
30833W        W73849  27.397  33.952  26.783  0.1184  0.0373 -0.0637
30834W        W73850  33.238  23.404   1.885  0.2160  0.1988 -0.0756
30835W        W73851  33.713  33.543   4.710 -0.1322  0.0730  0.0780
30836W        W73852   2.659  22.384   7.518  0.2697  0.0153 -0.1673
30837W        W73853  23.200  19.407  19.979  0.1484  0.1433 -0.3604
30838W        W73854   1.166   5.319   8.800 -0.0894 -0.0776 -0.5630
30839W        W73855  18.002  11.667   3.309 -0.0705 -0.0033  0.0858
30840W        W73856  27.003   0.774   4.130  0.1680  0.2012 -0.0205
30841W        W73857  31.547  23.563   5.645 -0.0413  0.0429 -0.1856
30842W        W73858  15.336   9.924  20.934 -0.0269 -0.0250  0.0242
30843W        W73859  33.077  14.599  24.859 -0.3118  0.2744  0.0999
30844W        W73860  15.560  10.858   3.509 -0.0092  0.2382  0.2289
30845W        W73861  10.232  11.494  21.104  0.2096 -0.1396 -0.0125
30846W        W73862  19.014   5.664  28.547  0.0697  0.0201  0.0686
30847W        W73863  19.966  34.484   6.611  0.0713  0.0134 -0.0629
30848W        W73864  34.746   9.760  23.854 -0.0119  0.0289 -0.1637
30849W        W73865  22.862   9.173  25.181  0.3422  0.1577 -0.0802
30850W        W73866  34.558  29.755   5.272 -0.0672 -0.2086 -0.0155
30851W        W73867  23.280   8.355  23.949  0.2043  0.3035 -0.0465
30852W        W73868  21.103  26.190   7.187 -0.2621 -0.1571 -0.1496
30853W        W73869   7.490  28.081  24.448 -0.0511 -0.3122  0.0240
30854W        W73870  20.736  19.083   3.667 -0.0631  0.0000 -0.0796
30855W        W73871   2.166   3.246   7.292  0.1246  0.1885 -0.0882
30856W        W73872  24.861  25.347   5.803  0.2901 -0.4079  0.0939
30857W        W73873   4.106   5.560   6.228  0.1085 -0.4575 -0.1707
30858W        W73874  26.903   8.850   1.041 -0.0105  0.0636 -0.1391
30859W        W73875  33.265  32.500  15.340 -0.1665  0.0497 -0.1053
30860W        W73876  21.882  14.759  26.366 -0.0353 -0.0129 -0.0072
30861W        W73877  17.938  26.696  20.399  0.0817  0.0198 -0.0438
30862W        W73878  11.657  21.186  20.510  0.1296  0.0591  0.1345
30863W        W73879   2.842   8.560  17.304  0.4464 -0.0462 -0.0521
30864W        W73880  14.207  21.060   4.844  0.0752  0.0794 -0.1639
30865W        W73881   7.715  14.225  23.326  0.1529 -0.3069 -0.1583
30866W        W73882  31.034  25.774   8.111  0.0268 -0.3384  0.0111
30867W        W73883   9.826  20.780  26.611 -0.1864 -0.0991 -0.0890
30868W        W73884  31.032  27.916   4.842 -0.4328  0.0404  0.1163
30869W        W73885  19.409  11.631  21.988  0.0606  0.3006  0.1587
30870W        W73886  33.392   8.474   4.806 -0.1960  0.0471 -0.5040
30871W        W73887  23.143  20.238   9.247 -0.1394 -0.0864 -0.0807
30872W        W73888   5.227  13.542  23.830  0.1537 -0.0225  0.1983
30873W        W73889  21.304  13.108  20.716  0.0426  0.1277 -0.1341
30874W        W73890   2.665   9.415  14.144 -0.0619 -0.1648 -0.1615
30875W        W73891   5.148  10.847   4.066  0.3381 -0.1544  0.1777
30876W        W73892  15.463   0.838  28.253 -0.0255 -0.1355 -0.1872
30877W        W73893  22.219  17.247  26.597 -0.1266  0.0528 -0.1050
30878W        W73894   3.148   6.799  21.021 -0.3129  0.4291 -0.1389
30879W        W73895  30.689  26.658  21.635 -0.1166  0.1749  0.1102
30880W        W73896   7.562  16.686   8.378 -0.0877 -0.0276 -0.1544
30881W        W73897  12.069  14.116   0.518 -0.1437  0.2488 -0.1793
30882W        W73898   4.806   6.122  27.682  0.0993  0.0771  0.1586
30883W        W73899  14.823   8.877  19.889 -0.2420  0.1258  0.1828
30884W        W73900  23.243   2.497   5.978  0.0213 -0.0284 -0.1572
30885W        W73901  32.415   5.078   8.116  0.0782  0.0744  0.2005
30886W        W73902  11.342  29.422   1.186 -0.0979  0.1582 -0.0943
30887W        W73903  22.647   1.133  24.536  0.0253 -0.0226 -0.2558
30888W        W73904  28.125  13.614   7.761 -0.1302 -0.0156 -0.0001
30889W        W73905  26.893  24.376  27.042 -0.2312 -0.1091  0.0947
30890W        W73906  30.312   5.664  25.189  0.0125  0.1613 -0.0881
30891W        W73907  24.675   5.140   1.502 -0.0792 -0.0698 -0.0141
30892W        W73908  11.464   2.647  17.023 -0.3663  0.0168  0.2549
30893W        W73909   0.260  19.264  25.375  0.2142 -0.2492 -0.1819
30894W        W73910  22.865  20.613   4.359  0.0779  0.0195 -0.0294
30895W        W73911  24.395  24.505   6.780 -0.1960  0.0946 -0.0939
30896W        W73912  11.472   6.078   9.953  0.0620 -0.0598  0.1140
30897W        W73913  19.749   1.175  20.041 -0.1706 -0.0530  0.0563
30898W        W73914  13.005   2.526   5.425 -0.2310 -0.1060  0.1571
30899W        W73915  33.094  32.771  21.370 -0.0655 -0.3078  0.1333
30900W        W73916  23.388   4.659   4.584 -0.0563 -0.1216 -0.0647
30901W        W73917  22.046  33.176   4.572  0.3355  0.0633  0.1642
30902W        W73918  29.215  28.662  29.107  0.0406  0.0820  0.0370
30903W        W73919   9.555   8.826  16.396 -0.0519  0.1071  0.0108
30904W        W73920   3.716   1.087   1.202  0.1314 -0.1149  0.2452
30905W        W73921  23.399   2.981   9.880  0.1580 -0.0371 -0.0253
30906W        W73922   9.276  33.692  26.795 -0.2214  0.0711 -0.0921
30907W        W73923  19.887  23.227  27.959 -0.0068 -0.4574  0.0496
30908W        W73924  24.440   7.172  25.270 -0.0929  0.0288  0.1419
30909W        W73925   7.774   5.050  23.271 -0.0328  0.0784 -0.3630
30910W        W73926  30.343  16.100  16.838 -0.0999 -0.1407  0.0272
30911W        W73927   3.668  31.748   3.164 -0.1282  0.2923  0.1523
30912W        W73928  32.788   2.844  10.095 -0.3447  0.0572  0.0473
30913W        W73929  13.857   9.516   5.031  0.0843  0.0946  0.4140
30914W        W73930  33.818  25.546   1.673 -0.3053  0.0266  0.4732
30915W        W73931   0.524   0.395  10.697 -0.1512 -0.0493  0.2708
30916W        W73932  32.723   2.626   4.502 -0.0187  0.0670 -0.2142
30917W        W73933  30.010  14.430   0.298  0.2938  0.0257 -0.0925
30918W        W73934  26.215  10.880   8.588  0.1241  0.0512  0.1580
30919W        W73935  27.464  12.584   4.534 -0.0135 -0.1849 -0.0682
30920W        W73936  25.338  24.921  29.197  0.1747 -0.3065 -0.0717
30921W        W73937  23.312   5.100   4.907  0.1809  0.2508  0.0238
30922W        W73938  21.037  23.548  14.740  0.0995 -0.1504 -0.0230
30923W        W73939  18.307   9.598   5.565  0.1620  0.0595  0.0923
30924W        W73940   2.981   3.777  23.514  0.3185  0.2034 -0.1703
30925W        W73941  23.862  28.159  18.165 -0.2247  0.1406 -0.0153
30926W        W73942  30.473  34.221   4.439  0.1945  0.0407 -0.1038
30927W        W73943  23.964   2.493  22.314 -0.0960 -0.3819 -0.1348
30928W        W73944  20.296   2.138  24.880 -0.2014 -0.0966  0.2150
30929W        W73945  15.826  17.295  21.872 -0.2197 -0.1364  0.0794
30930W        W73946   5.294  17.061   2.275  0.2324 -0.2179  0.1852
30931W        W73947  32.175  19.387  16.350  0.2426  0.2012 -0.0269
30932W        W73948  26.874  20.390   1.475  0.0169 -0.2336 -0.3191
30933W        W73949  24.062   7.344  25.962 -0.2082  0.0026 -0.1058
30934W        W73950  30.070  34.751  26.606  0.2406  0.2642 -0.1138
30935W        W73951  33.951   9.292   6.637  0.0778  0.2738 -0.0533
30936W        W73952  20.587   2.235   3.391 -0.1462 -0.0979 -0.0737
30937W        W73953   1.544  30.946  28.133 -0.1828  0.0541 -0.0320
30938W        W73954  24.210  19.946  28.230 -0.0740 -0.1007  0.2825
30939W        W73955  22.433   9.174   2.416 -0.0443 -0.0135  0.0758
30940W        W73956  34.643  25.909  29.012  0.2551 -0.1606  0.1336
30941W        W73957  25.174  27.687   2.310 -0.3138  0.2173 -0.2239
30942W        W73958  24.495  20.667  16.323 -0.0554  0.2211  0.3038
30943W        W73959  34.292   7.432   1.076 -0.2118 -0.0819 -0.2807
30944W        W73960  10.880   8.873  28.025  0.2349  0.2054  0.1983
30945W        W73961  25.092  14.903  18.270  0.0524  0.0564  0.0936
30946W        W73962  29.092   4.575   6.056  0.2185  0.1362  0.0319
30947W        W73963  12.859  10.998   4.035  0.1681 -0.2378  0.3060
30948W        W73964  30.709  34.097   6.182 -0.0246 -0.1441 -0.1630
30949W        W73965  18.710   8.930   4.552 -0.3072 -0.0056 -0.1895
30950W        W73966  33.462  27.917  20.180 -0.0333 -0.0451 -0.1237
30951W        W73967  28.850   5.559   9.868  0.2921 -0.0621  0.0934
30952W        W73968   3.180  18.229   7.275 -0.0080 -0.1313  0.1487
30953W        W73969  24.234  19.172  27.588 -0.0971  0.1692 -0.1703
30954W        W73970  30.273   7.252   9.234  0.0195 -0.1456 -0.0090
30955W        W73971  27.955   1.364  10.328 -0.2769 -0.2293  0.2407
30956W        W73972  28.935   2.885   6.996  0.0533 -0.0732  0.4486
30957W        W73973  11.784  32.288   3.470 -0.3138 -0.0721  0.1526
30958W        W73974  25.774  13.291  22.238 -0.4007 -0.0604 -0.0455
30959W        W73975  10.734   2.163  23.175 -0.1310  0.3239  0.2761
30960W        W73976  19.969  25.224   7.458 -0.1311 -0.2288 -0.1157
30961W        W73977   8.248  33.488   1.562 -0.2896  0.2363 -0.0957
30962W        W73978   1.888  30.721  26.767 -0.3520  0.1125 -0.0803
30963W        W73979   2.068   3.542   8.561 -0.2377 -0.1401  0.0057
30964W        W73980  22.252  34.301   4.619  0.0284 -0.1601  0.2995
30965W        W73981   8.557  20.858  21.229  0.0551  0.2469 -0.0783
30966W        W73982  26.221  33.599  20.732  0.1663  0.1414  0.1150
30967W        W73983   3.606  10.766   1.645  0.0223 -0.2803 -0.0450
30968W        W73984  15.038  18.886  21.650 -0.0096  0.0046  0.1905
30969W        W73985  30.646  20.687  24.183  0.1509 -0.0803 -0.0654
30970W        W73986  29.169  11.066  28.314  0.1487  0.4517  0.2106
30971W        W73987  21.921  10.046   3.264  0.1058  0.1976  0.2287
30972W        W73988   5.427  21.933   0.968  0.0005 -0.1162 -0.1473
30973W        W73989  27.436   1.774   1.091 -0.0132 -0.0123 -0.3586
30974W        W73990  33.739   6.571   4.677 -0.2640  0.0102 -0.1541
30975W        W73991  21.934  12.038   6.461 -0.1374 -0.1237 -0.0831
30976W        W73992  30.189   8.844   6.034  0.3049  0.0383 -0.0928
30977W        W73993   4.291  24.320   9.422 -0.0171  0.2326 -0.1886
30978W        W73994  18.396  31.693  27.923 -0.0506  0.2027  0.0503
30979W        W73995  20.901  29.496   8.619 -0.1823  0.0899  0.0078
30980W        W73996   2.872   9.014   7.650 -0.2331  0.1392  0.1507
30981W        W73997  11.952   6.524  15.210 -0.0172  0.0546 -0.2833
30982W        W73998  31.752   2.168   4.638 -0.2579 -0.0124  0.0550
30983W        W73999  27.180  13.678  18.573 -0.2098 -0.1369  0.2560
30984W        W74000  22.012  15.923  29.115  0.3141  0.3116 -0.0010
30985W        W74001   8.950   7.330  25.062 -0.0123  0.1028 -0.0441
30986W        W74002  27.715  27.577  12.132  0.1109  0.1873 -0.2573
30987W        W74003  21.557  31.092   2.784 -0.0308  0.0901  0.1716
30988W        W74004  19.710   0.627   5.857 -0.0668 -0.1194 -0.0785
30989W        W74005  25.954   7.565   9.870  0.0641  0.1792  0.3193
30990W        W74006  13.226  11.130  14.666 -0.0031 -0.0819 -0.0408
30991W        W74007  19.106  29.128   7.420  0.0788  0.0683 -0.1844
30992W        W74008  25.126  28.102   4.975  0.0975 -0.0166  0.0779
30993W        W74009   7.817  14.569  24.683  0.1013  0.0216 -0.0066
30994W        W74010   0.761  17.010  28.888  0.3386  0.1777  0.0889
30995W        W74011  29.161  10.507  28.918  0.1382 -0.0670 -0.0571
30996W        W74012  14.341  12.118  27.085  0.2462  0.1159 -0.0040
30997W        W74013  30.721  10.972   8.794 -0.2021  0.0687  0.2063
30998W        W74014  25.779  33.840  29.313  0.1583  0.0865 -0.1029
30999W        W74015  32.945  13.112   2.625 -0.0367 -0.0581  0.2414
31000W        W74016   5.787   0.887  10.693 -0.0013 -0.1314  0.1842
31001W        W74017  19.093  27.882   7.465  0.2410 -0.1520  0.1064
31002W        W74018  21.533   7.200  16.546 -0.0501  0.1561 -0.3509
31003W        W74019  23.779   7.171   0.857 -0.0350  0.3930  0.0440
31004W        W74020  21.595  10.180   0.531  0.1300  0.0044 -0.1572
31005W        W74021  26.693  11.798   2.547  0.1124  0.3424  0.1463
31006W        W74022  22.068  24.781  25.551  0.5159  0.1583 -0.0584
31007W        W74023  27.986   2.834   4.233  0.2132  0.1364  0.2274
31008W        W74024  25.587  21.619  18.969  0.0731 -0.0576  0.0289
31009W        W74025  32.798   4.841  21.595  0.1271 -0.1322  0.1162
31010W        W74026  32.189  29.126  24.812 -0.0291  0.1287 -0.1868
31011W        W74027  23.772  18.640  28.863 -0.1909  0.0477 -0.2006
31012W        W74028  10.652   9.870  20.963  0.0902 -0.1764 -0.1933
31013W        W74029   0.239   0.086   6.277  0.0747 -0.0396  0.1608
31014W        W74030  28.407   4.832  24.113  0.0603 -0.1079 -0.1112
31015W        W74031   3.049  23.873   3.091  0.2552  0.1541  0.1163
31016W        W74032   5.509   6.182   1.556 -0.0914  0.0329 -0.0884
31017W        W74033  28.207  29.145   6.746 -0.2838 -0.0549 -0.3136
31018W        W74034   6.701  14.840  20.403  0.1401  0.1589  0.1879
31019W        W74035  13.401   1.709  15.677  0.3428  0.1278  0.0512
31020W        W74036  31.148  21.622  17.829  0.0918 -0.1377 -0.1747
31021W        W74037  25.438  30.548  20.716 -0.1272  0.1547  0.0513
31022W        W74038  28.327   6.896   4.526  0.1602  0.1146 -0.1003
31023W        W74039  15.686  30.378  27.502 -0.0244 -0.0288  0.1192
31024W        W74040  13.787  34.061   3.429 -0.0432  0.0709 -0.1539
31025W        W74041  24.389   8.627   4.487  0.3947 -0.0436 -0.1388
31026W        W74042  28.143  34.281   1.749 -0.0947  0.0375 -0.0069
31027W        W74043   2.100  33.882   7.642  0.0299 -0.0955 -0.1661
31028W        W74044   6.316   1.396  19.250  0.1718  0.1143 -0.0092
31029W        W74045  30.043   8.885   5.025  0.0153  0.1203  0.0126
31030W        W74046   6.045   4.749   0.844 -0.0172 -0.0803 -0.4330
31031W        W74047  19.508   6.104  21.215  0.1091  0.1480  0.3181
31032W        W74048   0.787   5.460  28.962  0.0621 -0.1210 -0.1812
31033W        W74049  29.906  33.714  18.171  0.0281 -0.2270 -0.2380
31034W        W74050   4.095  19.127   3.931 -0.0082 -0.0486  0.1142
31035W        W74051  16.300   6.032   3.988 -0.0643 -0.1164 -0.3316
31036W        W74052  34.577  29.909   6.014 -0.0293  0.0264  0.0355
31037W        W74053  12.037  16.784  21.374  0.0386  0.1097 -0.1346
31038W        W74054  28.218  10.078   7.838  0.1047 -0.0154 -0.1184
31039W        W74055  31.147   6.289   0.759 -0.0961 -0.3101  0.2487
31040W        W74056  27.761   6.950   5.309 -0.3627 -0.2178 -0.1215
31041W        W74057   8.717  29.517   3.530  0.0340 -0.1441  0.0216
31042W        W74058  12.259  34.089   9.908  0.1237 -0.3789 -0.1760
31043W        W74059   7.483  22.993  25.668  0.2138  0.2728 -0.3133
31044W        W74060   9.176  11.655  14.030 -0.1129 -0.2132  0.1926
31045W        W74061  15.714   7.325  26.288 -0.1678 -0.1088 -0.0619
31046W        W74062  31.224  22.701  24.294  0.1313 -0.1491 -0.0983
31047W        W74063  32.664  15.177  28.148 -0.1124  0.4596 -0.1960
31048W        W74064  19.118   3.606  10.433 -0.0531  0.0090 -0.0514
31049W        W74065  23.669  21.551   8.261  0.2115 -0.1652 -0.1907
31050W        W74066   0.519  31.976  10.855 -0.0041  0.0249  0.1350
31051W        W74067   4.162   1.412  27.945  0.1713 -0.1670 -0.1198
31052W        W74068  24.758  32.336   3.832  0.1635 -0.0369  0.3607
31053W        W74069  27.664   4.749  11.090 -0.1939 -0.2203  0.1914
31054W        W74070  27.301  30.014   6.582  0.0068 -0.1507 -0.4365
31055W        W74071  31.038  22.335   8.774  0.4201  0.3622 -0.0385
31056W        W74072   1.384   5.552   6.490 -0.1579  0.3669 -0.3465
31057W        W74073  33.995   6.722  27.286  0.1196 -0.0346  0.1248
31058W        W74074   4.558  18.313   6.624 -0.2186  0.0406 -0.0252
31059W        W74075  20.209  12.712  26.950  0.1481 -0.0891  0.2085
31060W        W74076  23.584  17.595  29.238  0.3233  0.3495  0.0375
31061W        W74077  26.474   4.996   1.899  0.4140 -0.1418 -0.1180
31062W        W74078  17.587  15.835  29.063 -0.0446 -0.0883 -0.1641
31063W        W74079  29.571   7.822   2.848 -0.3278 -0.1698  0.0139
31064W        W74080  15.621  24.800   1.655 -0.3050 -0.2157 -0.0432
31065W        W74081   2.365  19.362   6.879  0.0954 -0.2985 -0.2516
31066W        W74082   9.230  15.542  26.717 -0.0535  0.2370  0.0507
31067W        W74083  30.071  24.773  25.034 -0.2481 -0.1295  0.1055
31068W        W74084  32.776  24.548  28.702  0.6002  0.0129 -0.2327
31069W        W74085  32.405  22.838  26.543  0.2301  0.0990  0.2183
31070W        W74086  24.765   2.561  28.723 -0.1160  0.1990 -0.1346
31071W        W74087  26.847  12.926   1.999  0.1136  0.2153 -0.0256
31072W        W74088  22.124  34.180  26.771 -0.1044 -0.0766  0.1004
31073W        W74089  28.618   0.832  28.427  0.0525 -0.0711  0.0088
31074W        W74090  15.881   8.923  18.348 -0.3018 -0.0818 -0.1292
31075W        W74091  19.138  13.464  18.846  0.4653 -0.2215 -0.3687
31076W        W74092  14.521  31.150  10.258  0.1962  0.1708 -0.0872
31077W        W74093   7.942  31.852  20.603 -0.1463  0.0734  0.3077
31078W        W74094   2.481   8.905   4.267 -0.0070  0.0245  0.0326
31079W        W74095  21.856   6.553  20.634  0.0779  0.1506  0.2570
31080W        W74096  15.983  27.231  20.672 -0.1885  0.1546 -0.2524
31081W        W74097   8.620  16.711  15.986 -0.4633  0.1917  0.0345
31082W        W74098  10.745  29.499   0.386  0.0282  0.1921 -0.2308
31083W        W74099   0.463   7.869   2.070  0.1889  0.0818  0.1491
31084W        W74100   6.814  13.723  26.917  0.0535  0.0029  0.2535
31085W        W74101  26.486   7.648  23.996  0.0617  0.1706 -0.0938
31086W        W74102  13.105  12.917  18.301 -0.3094 -0.1036  0.2691
31087W        W74103  17.242   3.769  18.691  0.1125  0.3994  0.2313
31088W        W74104  27.226  31.887   0.328  0.1892 -0.0057 -0.2039
31089W        W74105  20.961  24.318   8.667  0.0021  0.0425 -0.0986
31090W        W74106  31.958  25.731   7.685  0.5379  0.3245  0.1240
31091W        W74107  14.126   0.374   9.584 -0.1788  0.3027  0.0765
31092W        W74108   8.493   5.706  28.043  0.0120 -0.1207  0.0056
31093W        W74109  29.916   2.888   3.380  0.0747  0.5035  0.0267
31094W        W74110   0.522  11.008  20.402 -0.2432 -0.2875 -0.2081
31095W        W74111  17.280   0.619   5.368  0.1549  0.2255  0.1138
31096W        W74112  29.925  27.162  21.323 -0.1535  0.0712  0.0631
31097W        W74113  27.254  18.081  23.933  0.0259 -0.0482  0.0884
31098W        W74114   6.637  17.750  19.301  0.0976 -0.1317 -0.1035
31099W        W74115  30.149  30.493  19.647 -0.1737  0.1245 -0.0328
31100W        W74116  24.065  12.249  22.003 -0.1692 -0.3000  0.0930
31101W        W74117   7.837   5.805   5.969  0.0586 -0.2562  0.1519
31102W        W74118  33.612  19.140   2.693  0.2059  0.0295 -0.0905
31103W        W74119  33.765  10.878   9.612 -0.0905  0.3085  0.2480
31104W        W74120   8.657   1.505   5.052 -0.0499  0.2315  0.0471
31105W        W74121  19.313   2.538  29.226 -0.2376  0.2236 -0.1055
31106W        W74122  26.221  13.302  19.011 -0.0989 -0.1382 -0.1416
31107W        W74123  28.312  11.995  23.431 -0.1935  0.3058  0.0263
31108W        W74124  22.554  32.583  10.569  0.4942 -0.0148  0.0811
31109W        W74125  19.338   8.420  23.023  0.2261 -0.0904 -0.0470
31110W        W74126   3.167   6.399   3.354  0.1698 -0.1256  0.1404
31111W        W74127  19.936  27.725  25.467 -0.2114 -0.1518 -0.2063
31112W        W74128  27.898  10.447  28.419 -0.0050  0.3911 -0.2256
31113W        W74129  24.960  10.914   0.331 -0.1742  0.2798  0.0740
31114W        W74130  29.240  28.640   5.810 -0.2192  0.1138  0.1437
31115W        W74131  16.656  24.429   6.260  0.2309  0.1486 -0.0855
31116W        W74132  19.829   4.824   1.224 -0.0949  0.1770 -0.1439
31117W        W74133  34.605  31.238   8.363 -0.3347 -0.1759 -0.0750
31118W        W74134  29.272  30.794  25.483 -0.1696 -0.1769  0.0911
31119W        W74135  24.067  14.015   0.368  0.2191 -0.0317 -0.0381
31120W        W74136  29.077  18.749   4.039 -0.2031 -0.1124  0.4713
31121W        W74137  22.297  31.629   9.824 -0.0070 -0.1299 -0.0371
31122W        W74138  21.032   9.184   6.846 -0.0216  0.1385  0.3848
31123W        W74139  17.280   3.462  28.313  0.1781 -0.1014 -0.3904
31124W        W74140  17.933  17.251   2.966 -0.1379 -0.0388 -0.0196
31125W        W74141  30.863   4.883  25.729 -0.0255 -0.0240 -0.1998
31126W        W74142  28.334  32.685  29.071  0.0061  0.0599 -0.0301
31127W        W74143  28.227  30.718   7.042  0.0095 -0.1132 -0.0447
31128W        W74144  14.539   0.371   5.500 -0.0118 -0.1372 -0.0075
31129W        W74145   2.883   6.870   3.773  0.1662  0.0441  0.0009
31130W        W74146  10.667   4.983   6.006  0.0474  0.0370 -0.2776
31131W        W74147   5.110  27.020  25.851 -0.3706  0.2519  0.0041
31132W        W74148  21.352   4.106  18.010  0.1742 -0.2121 -0.2413
31133W        W74149   0.524  14.741   8.191  0.0770 -0.0833  0.2747
31134W        W74150  30.792  15.270  18.215 -0.1231  0.0242  0.3083
31135W        W74151  20.760  29.098  28.130  0.1973 -0.1169 -0.2108
31136W        W74152  18.619   0.938   6.324 -0.1129  0.1263  0.1750
31137W        W74153  20.623  15.637  21.833  0.4348 -0.0235  0.0803
31138W        W74154  26.198  32.822  11.171  0.0564 -0.2621  0.0837
31139W        W74155  26.846   1.741  28.312 -0.1082  0.1595 -0.0364
31140W        W74156  13.972  12.448  25.922 -0.1831  0.1563 -0.1449
31141W        W74157  22.086  20.341  16.885  0.4113  0.0927  0.2298
31142W        W74158   3.156  31.071  22.829  0.0779  0.0478  0.5693
31143W        W74159  22.424  33.585  22.419  0.0551  0.0181  0.2378
31144W        W74160  22.498   7.601   1.355  0.3475 -0.0160 -0.1568
31145W        W74161   3.651  25.467   4.148  0.1772  0.1966  0.0606
31146W        W74162   8.944  34.591  28.635 -0.1886  0.0355 -0.2782
31147W        W74163   4.248   2.790  19.359 -0.0144 -0.3733 -0.3031
31148W        W74164  19.715   3.989   8.050  0.1147  0.0918 -0.1733
31149W        W74165  25.049  26.399   1.334  0.0029 -0.2247 -0.0111
31150W        W74166   7.947   4.669  26.544 -0.0985  0.0596 -0.0790
31151W        W74167  21.154   0.485  29.293  0.2544  0.0547 -0.1574
31152W        W74168  16.542  23.447  25.006  0.0677 -0.2000 -0.0206
31153W        W74169  25.494   3.681   0.564  0.2577  0.0101 -0.0833
31154W        W74170  10.401   6.349   8.828 -0.0774 -0.0223 -0.2825
31155W        W74171  21.438  10.264  25.594  0.2210  0.1309  0.0978
31156W        W74172   4.158   3.193   4.288 -0.0399 -0.1588  0.1052
31157W        W74173  27.471  33.186  26.171 -0.0783  0.2102  0.0962
31158W        W74174  33.040   2.710  22.631 -0.1582 -0.1809 -0.0733
31159W        W74175  21.981   4.914   2.593 -0.2375  0.3073 -0.0085
31160W        W74176  17.646  23.311  18.729 -0.0809 -0.0981 -0.2381
31161W        W74177  15.840   7.079  27.440 -0.3201 -0.1518  0.2492
31162W        W74178  11.046  12.612   5.555 -0.0937 -0.2407  0.2719
31163W        W74179  26.338  30.497   9.699 -0.2364  0.0386 -0.3462
31164W        W74180  32.277   5.232  28.905  0.3178 -0.1665 -0.0949
31165W        W74181  28.911   1.297  14.960 -0.0454  0.2020 -0.1187
31166W        W74182  12.778  30.479   4.483 -0.5870 -0.1672 -0.1546
31167W        W74183  20.025  22.853  13.787  0.2359 -0.1986  0.0777
31168W        W74184  31.637  33.855  28.427  0.2651  0.0883  0.2873
31169W        W74185   5.665  30.697   2.681 -0.1444 -0.0808  0.4247
31170W        W74186  34.675   8.090   1.906 -0.1612  0.3847  0.1633
31171W        W74187   9.938   5.946  15.005 -0.1502 -0.2261 -0.3638
31172W        W74188  32.124  31.334   4.657  0.3324  0.3046  0.0031
31173W        W74189  30.409   6.571   8.732  0.0454 -0.0494  0.2808
31174W        W74190  19.760  19.443   7.726  0.3573 -0.0863  0.3330
31175W        W74191  25.115   4.350   5.956  0.1201  0.1515  0.1412
31176W        W74192   3.858   1.661  18.449 -0.0248 -0.0601  0.1640
31177W        W74193  26.377  18.823   1.519 -0.0463 -0.2188 -0.0406
31178W        W74194  19.723   2.758  29.108 -0.0122  0.0883  0.2237
31179W        W74195  32.349  14.137   1.893 -0.0071 -0.1057  0.0892
31180W        W74196   3.389  13.491   7.350  0.1629 -0.0664  0.1455
31181W        W74197   9.002   7.809   1.509  0.1704 -0.0081 -0.3014
31182W        W74198  27.394  26.232   4.900 -0.2701 -0.1327  0.1004
31183W        W74199  33.391   6.890  23.807 -0.0016  0.1148  0.1239
31184W        W74200  27.394  10.400   7.706 -0.0546 -0.2014 -0.1227
31185W        W74201  31.902  33.030  22.980  0.1461  0.0890 -0.0576
31186W        W74202   2.880  16.235  23.990  0.0519  0.1092  0.0836
31187W        W74203  27.800  29.804   9.398 -0.0018 -0.3841  0.1145
31188W        W74204  32.689  26.138   9.561 -0.1154 -0.0349  0.0358
31189W        W74205   2.624   6.198  21.295  0.1033 -0.2686 -0.1976
31190W        W74206  31.303  32.615   7.127  0.1797 -0.1660 -0.5885
31191W        W74207  32.984  26.475  14.972  0.4007 -0.1664  0.2510
31192W        W74208  24.700  33.807   8.570  0.0973 -0.3051  0.0830
31193W        W74209  27.684   6.648   8.365 -0.4977 -0.2378 -0.0199
31194W        W74210  27.337  31.291   8.456 -0.1471  0.1250 -0.1058
31195W        W74211  29.438  19.092   3.982 -0.0125 -0.3052  0.1484
31196W        W74212  13.515  30.520   8.666  0.0821  0.0854  0.0156
31197W        W74213   2.702   1.231   0.381 -0.2190  0.0510  0.2696
31198W        W74214   3.409   5.899   3.869  0.2536 -0.1357 -0.1689
31199W        W74215  33.827   7.544   2.385  0.2903  0.0002  0.1767
31200W        W74216  19.842   2.139  28.062  0.0666 -0.0699 -0.4403
31201W        W74217  25.916   7.696   9.131 -0.1649  0.0022 -0.0749
31202W        W74218  23.449  25.063  25.344  0.1364 -0.1669  0.0112
31203W        W74219  32.625   0.158   6.291 -0.0904  0.0923  0.1680
31204W        W74220  10.684   8.222   2.113  0.0138 -0.0660  0.1447
31205W        W74221   6.017   3.543   8.334 -0.1947  0.2995  0.0269
31206W        W74222  29.507   8.378  26.463 -0.1383 -0.3272 -0.3252
31207W        W74223  22.743  32.227   5.472 -0.2662 -0.1486  0.0427
31208W        W74224  27.382  10.720  22.960  0.1378 -0.0779 -0.4629
31209W        W74225   2.284  22.096  27.368 -0.2147 -0.3250  0.1758
31210W        W74226  30.529   0.308   9.613  0.2046  0.3687 -0.1900
31211W        W74227  21.783  19.454   9.090 -0.0100  0.2131  0.2211
31212W        W74228  27.535  34.121  10.979  0.1368  0.0176  0.2854
31213W        W74229  13.336   6.527   8.742  0.0291  0.0790 -0.2570
31214W        W74230  34.330   5.062   3.503  0.2536 -0.2723 -0.0783
31215W        W74231  28.750  27.910   8.033  0.0726 -0.1308 -0.1824
31216W        W74232  28.033   3.558   0.634  0.0515  0.1831  0.4588
31217W        W74233  20.218  10.870  21.289  0.0267 -0.1342  0.0978
31218W        W74234  28.063  19.088  10.913  0.1673  0.2247  0.1306
31219W        W74235   9.417  17.375   2.607  0.1591 -0.1335  0.0321
31220W        W74236   6.030  32.898   5.325 -0.0454 -0.2976 -0.3692
31221W        W74237  25.875  20.076   4.736  0.1471 -0.0434 -0.0274
31222W        W74238   5.895  23.789  10.313  0.0296 -0.0107 -0.0725
31223W        W74239   5.658   1.707   9.222  0.0319 -0.2049 -0.1028
31224W        W74240   5.829  11.288   9.076  0.1223  0.3061 -0.0665
31225W        W74241  28.334  11.106  15.396 -0.3011 -0.1692  0.1855
31226W        W74242  26.361  33.787  25.483 -0.0653  0.4638  0.0114
31227W        W74243   6.920  15.058   2.579  0.1491 -0.0886  0.1360
31228W        W74244   4.941  12.385   6.630  0.2460 -0.1740  0.1686
31229W        W74245  24.509  22.584  19.986 -0.0551 -0.0766  0.1587
31230W        W74246  19.050  17.698   1.637 -0.1185  0.1933 -0.2066
31231W        W74247  25.712  20.017  24.623 -0.1969 -0.0089  0.2594
31232W        W74248  29.058  31.806   2.224 -0.1551 -0.1002  0.4896
31233W        W74249  19.547  11.928   1.329  0.1844 -0.1125  0.0169
31234W        W74250  27.875  18.359   0.869 -0.0313  0.1159 -0.3294
31235W        W74251  20.083  34.174   5.762  0.0506  0.1772 -0.1392
31236W        W74252  31.883  33.407  10.501  0.0202  0.0571  0.3034
31237W        W74253  28.875  12.747  29.141 -0.0420  0.1070 -0.0418
31238W        W74254  29.668  12.092   9.391  0.0290 -0.1300 -0.0280
31239W        W74255  19.169   8.130   2.484 -0.1593  0.0766 -0.0805
31240W        W74256  27.863  10.417   5.207  0.2549 -0.0897 -0.3177
31241W        W74257  31.125  15.621   4.180  0.0578 -0.1728 -0.0472
31242W        W74258  15.885   3.890   5.608 -0.0158 -0.0017  0.0203
31243W        W74259  13.256   2.824  27.742  0.4046 -0.0561  0.0534
31244W        W74260   2.088  19.964   9.699  0.2872  0.0081  0.0886
31245W        W74261   6.085   1.672   1.120  0.0181  0.1250  0.0332
31246W        W74262  32.642   6.953  24.599  0.0392 -0.0010  0.1226
31247W        W74263  23.705   0.211   7.760 -0.1846 -0.0833 -0.0644
31248W        W74264   1.921   7.716   3.432  0.0915  0.0221  0.2937
31249W        W74265   0.016  26.917   1.745  0.2615 -0.0035  0.1817
31250W        W74266  24.148   2.193  11.056  0.3283 -0.1313  0.0141
31251W        W74267  33.872   5.050   7.155  0.1419 -0.0460 -0.1666
31252W        W74268  29.028   9.580  24.515  0.0590 -0.4814  0.2259
31253W        W74269   6.772  14.188   5.814 -0.3362 -0.2170 -0.3372
31254W        W74270   5.572  19.689  25.795  0.0348  0.4401 -0.1064
31255W        W74271  21.493  24.278   9.030  0.1796  0.3005 -0.3000
31256W        W74272  26.535   0.491   6.978  0.2932 -0.2302  0.3013
31257W        W74273   6.686   7.312   9.898  0.0211  0.3074  0.1804
31258W        W74274  26.438  23.110  21.910  0.2504  0.1524  0.0146
31259W        W74275  33.149  17.525  28.811 -0.1405 -0.0615 -0.0376
31260W        W74276  26.472   4.687  10.502  0.0870  0.2419  0.1183
31261W        W74277   1.368  31.829   9.195 -0.0562 -0.3187  0.1954
31262W        W74278  24.247  33.425   4.194 -0.1493 -0.1377  0.3305
31263W        W74279   0.064   3.238  27.880  0.1999  0.1424 -0.4151
31264W        W74280  30.600  17.910  25.052 -0.4090  0.2156  0.1027
31265W        W74281  20.237  11.655  27.805  0.2614  0.0927  0.3143
31266W        W74282  30.154  25.193   7.550 -0.3980 -0.2615 -0.1580
31267W        W74283  15.590  12.367   4.899  0.0060 -0.0664 -0.1670
31268W        W74284  23.674  33.210  25.932  0.0329 -0.1863  0.2931
31269W        W74285  21.761   3.960  24.238 -0.3095  0.0510  0.0319
31270W        W74286   2.092  26.398   7.519  0.0485 -0.1692 -0.1786
31271W        W74287  14.027  31.896   3.530  0.0370  0.1544  0.0593
31272W        W74288  28.518   0.491   6.693  0.0096  0.0123 -0.1929
31273W        W74289   1.708   0.451   9.562 -0.2343  0.0264  0.0233
31274W        W74290  17.795   9.670  19.405  0.1946  0.0320 -0.1332
31275W        W74291  31.406  31.363  10.349  0.3309 -0.2680  0.0359
31276W        W74292  15.018  28.398   6.031  0.1245  0.1480  0.0601
31277W        W74293   7.813  10.775   3.675 -0.0630 -0.2206  0.2906
31278W        W74294  26.767  21.906   5.609  0.0416  0.1358  0.0045
31279W        W74295  30.525   7.281   4.436  0.1929 -0.3216  0.2844
31280W        W74296  18.820   7.908   7.799  0.1733 -0.1969  0.0635
31281W        W74297  33.824   7.783   9.930 -0.0615  0.1848 -0.0355
31282W        W74298  21.077   7.858   5.501  0.2149 -0.2167 -0.1942
31283W        W74299  28.521  10.973  21.634  0.1769  0.0403 -0.1329
31284W        W74300  24.735  31.865   3.706  0.1299  0.0618  0.0875
31285W        W74301  16.847  17.402  24.222  0.0346  0.0693  0.0736
31286W        W74302  24.248  18.908   2.037  0.0701  0.2608 -0.2172
31287W        W74303  24.651  34.002   6.303  0.2295  0.1881  0.4377
31288W        W74304  21.458   6.830  19.416 -0.1366 -0.3086 -0.0034
31289W        W74305  28.591  22.352   4.300 -0.0674 -0.1921 -0.2621
31290W        W74306  12.256   1.984  28.598  0.1737  0.0418  0.1728
31291W        W74307  29.540  33.461   4.638 -0.5595 -0.2764  0.0984
31292W        W74308  31.816   2.346   6.923  0.1083 -0.0404 -0.0954
31293W        W74309   8.089  10.506   2.522  0.3727  0.1040 -0.1071
31294W        W74310  28.180   4.725   3.977 -0.1922  0.1097 -0.2149
31295W        W74311   7.111   3.427   8.492 -0.1009  0.0506  0.1591
31296W        W74312  32.665  32.231  27.456  0.0054  0.0124  0.0280
31297W        W74313  20.026  31.910   6.345  0.1774  0.1016 -0.0036
31298W        W74314  15.790   5.832   5.340  0.2747 -0.2074  0.3031
31299W        W74315  20.276  11.088   3.999  0.1807 -0.0576 -0.0916
31300W        W74316  30.795  10.853  18.752 -0.3377  0.0091 -0.0560
31301W        W74317   3.663  27.659   9.057  0.2146 -0.0680 -0.0222
31302W        W74318  16.175  34.734   1.451 -0.1478  0.2322  0.0203
31303W        W74319  26.061  32.940   9.361 -0.0144  0.0274  0.0094
31304W        W74320  20.101  25.085   5.293 -0.1993 -0.0876 -0.1120
31305W        W74321  18.222  26.161  15.916 -0.0410  0.0179  0.0510
31306W        W74322  25.336  31.481   8.390 -0.1584 -0.4375  0.1863
31307W        W74323  16.731  16.528   2.998 -0.3960  0.1723 -0.0970
31308W        W74324   3.241  33.269  26.608 -0.1534 -0.1004  0.0916
31309W        W74325  17.804  34.629   2.662  0.1678  0.3423  0.3416
31310W        W74326  17.114  28.982   2.074 -0.2968  0.1773  0.1291
31311W        W74327   3.422   5.652   9.711  0.1915 -0.1195  0.1844
31312W        W74328  23.484  18.090   2.728 -0.0998 -0.2210  0.1251
31313W        W74329  28.000  10.630   6.546  0.2497 -0.0278  0.2446
31314W        W74330   0.539  13.124  14.561 -0.5338 -0.1133  0.2433
31315W        W74331   9.911  30.397   8.073 -0.0147  0.0748 -0.1851
31316W        W74332  19.713  11.271  24.388 -0.0880  0.1066 -0.0316
31317W        W74333  25.459   9.123   3.116  0.1749  0.1309  0.0974
31318W        W74334   0.722  12.951   6.071 -0.2196  0.3389 -0.0167
31319W        W74335  22.958  34.430   3.312  0.1644  0.1736  0.2761
31320W        W74336   1.907  21.127   3.531  0.0504 -0.6224  0.1074
31321W        W74337  16.006   0.920   3.780 -0.0130 -0.0349  0.1509
31322W        W74338   6.530   5.885   2.831  0.1348  0.2560 -0.0032
31323W        W74339  33.313  24.670   0.631  0.0822  0.1797 -0.1776
31324W        W74340   2.210  15.153  27.231  0.1617  0.1614  0.1640
31325W        W74341  28.609  28.626   1.159 -0.1347  0.1736 -0.1669
31326W        W74342  25.677  10.036  28.911  0.0972 -0.2496  0.0118
31327W        W74343  30.041  15.223   5.653 -0.0485 -0.1403  0.1263
31328W        W74344  24.323   8.352   0.234  0.3895 -0.1143  0.0500
31329W        W74345   0.423   4.975  10.190  0.3348 -0.0763 -0.0771
31330W        W74346  10.257   7.156   1.054 -0.3852 -0.1227 -0.0603
31331W        W74347  12.921  31.473  26.638 -0.0579 -0.0456  0.0920
31332W        W74348  29.623   8.712  20.790  0.5310 -0.2121  0.0556
31333W        W74349  26.476  12.800   2.903 -0.1757  0.0255 -0.3324
31334W        W74350  23.526  33.997   7.487 -0.0715  0.0746 -0.4177
31335W        W74351   1.974   7.839   7.551 -0.4148 -0.0869  0.0647
31336W        W74352  34.119   6.846  21.224 -0.0253 -0.0078  0.2326
31337W        W74353  17.043   6.808  18.826  0.0978 -0.2117 -0.0729
31338W        W74354  26.370  13.185  27.860 -0.0764  0.0083  0.2366
31339W        W74355  30.281  13.734  22.293 -0.0227  0.2141 -0.0301
31340W        W74356  27.697  34.507   8.021 -0.1747 -0.0019  0.0473
31341W        W74357  16.309  18.152   3.393 -0.0967  0.1987 -0.2831
31342W        W74358   0.347  26.538   5.652  0.4261 -0.0306  0.3777
31343W        W74359  31.121  30.684  26.781  0.2284  0.2213 -0.4916
31344W        W74360  26.853   4.457   0.492  0.0335  0.0412 -0.0587
31345W        W74361   6.013  15.168   7.047 -0.5104 -0.4808  0.1234
31346W        W74362  11.191  23.514   0.691  0.1468  0.0297 -0.0256
31347W        W74363  25.810  29.669   4.800  0.3851  0.1473 -0.2222
31348W        W74364   6.749   6.085  22.740  0.0536  0.0276  0.0527
31349W        W74365  21.750   9.531   9.618  0.0442  0.2947 -0.0096
31350W        W74366  30.275  26.391   0.924  0.2118 -0.0722  0.3091
31351W        W74367   8.288   4.244   8.143  0.0812 -0.2912  0.0604
31352W        W74368  27.988  17.129   6.217  0.1664 -0.4330  0.2247
31353W        W74369  31.657  12.372   0.598  0.2254  0.2946  0.2950
31354W        W74370  14.473  16.988   4.164 -0.0302  0.1169 -0.3596
31355W        W74371  27.063   0.984   4.755 -0.1758  0.0432  0.0208
31356W        W74372  21.910   2.124   5.283  0.2188 -0.5409  0.0820
31357W        W74373  15.829  25.460  28.502  0.1571 -0.3387  0.2255
31358W        W74374  26.623  10.219  17.308  0.0246 -0.0362  0.3545
31359W        W74375   1.199  31.149   1.259 -0.2127  0.0577  0.0320
31360W        W74376  19.965   2.938   9.728 -0.0102  0.3049 -0.4082
31361W        W74377  31.019  28.279  29.275  0.1723  0.4091  0.2525
31362W        W74378  21.063  10.604  25.789 -0.0016  0.1103  0.0372
31363W        W74379   2.062  11.906  23.209  0.1590  0.1817  0.1416
31364W        W74380  30.371  17.698  20.524  0.0929 -0.0475  0.2820
31365W        W74381  21.574   3.317   8.662 -0.0102 -0.2367 -0.3040
31366W        W74382  15.370  11.991   7.281 -0.1350 -0.1410 -0.2422
31367W        W74383  28.200   2.475   3.489 -0.0312  0.3087 -0.0218
31368W        W74384   9.347   9.938  20.426 -0.1595  0.0514  0.3721
31369W        W74385  21.292  22.416   4.066  0.0998  0.2432  0.0649
31370W        W74386  28.736  12.836   5.693  0.0717  0.1658 -0.0464
31371W        W74387  29.284   4.738  27.448 -0.0163  0.0818 -0.3529
31372W        W74388   5.227   2.566   4.394  0.1959 -0.2799  0.1181
31373W        W74389  24.857  10.600  27.708 -0.1250  0.1637  0.1430
31374W        W74390  21.008  23.433  27.306  0.0218  0.0548  0.3602
31375W        W74391  23.323  12.891  27.030 -0.1167  0.1311 -0.0143
31376W        W74392   8.189  16.999   7.676 -0.2841 -0.0209 -0.0811
31377W        W74393  19.470   8.652   4.527  0.0758  0.1307  0.0978
31378W        W74394   7.548  15.796   9.416 -0.1478  0.0645 -0.0023
31379W        W74395  29.143   0.565   5.086  0.1737 -0.0117 -0.1630
31380W        W74396  26.091   9.163   5.794  0.3798 -0.2483  0.2640
31381W        W74397  27.602  13.662   1.196 -0.2537  0.0932 -0.2588
31382W        W74398   5.549   1.004   2.634  0.0897 -0.2479  0.1316
31383W        W74399  18.131  21.357   4.049 -0.0582 -0.0820  0.2599
31384W        W74400   2.679   8.689   8.184 -0.0147  0.2193 -0.0065
31385W        W74401  22.793   1.436  23.501 -0.0367 -0.0750 -0.3955
31386W        W74402  27.016   6.725  21.412 -0.0089 -0.0323  0.1774
31387W        W74403  11.392  30.665  29.170 -0.1997 -0.3354 -0.0803
31388W        W74404  25.615  33.645  11.147 -0.0674  0.0997 -0.0904
31389W        W74405  33.586  15.038   4.379  0.0598 -0.4549  0.0492
31390W        W74406  22.876  11.041  26.850 -0.0680 -0.0540  0.1295
31391W        W74407   8.343   4.397  10.305  0.3076 -0.0568  0.2348
31392W        W74408  21.719  27.972   2.476 -0.1755  0.4702  0.0777
31393W        W74409  20.236  19.484   8.407  0.0417  0.0443  0.1490
31394W        W74410  32.489  29.026  10.727  0.1493 -0.0071 -0.0574
31395W        W74411  33.534  29.603  27.656  0.2442  0.2040 -0.0175
31396W        W74412   8.404  34.709   8.703  0.3824 -0.1006  0.3032
31397W        W74413  16.265   9.811   2.217 -0.5334 -0.0539 -0.1251
31398W        W74414   7.287  19.123  26.550  0.0637  0.1044  0.1503
31399W        W74415  19.158  13.168   2.576 -0.1901  0.0800  0.0204
31400W        W74416  30.159  24.108  28.195 -0.2376 -0.0788 -0.0298
31401W        W74417  28.010   5.948  26.354 -0.1661  0.2298 -0.0354
31402W        W74418  31.474  11.903   7.848  0.1756  0.2652 -0.1120
31403W        W74419  31.711  14.505  20.312  0.2349 -0.0666  0.0750
31404W        W74420  27.850  20.327   3.459 -0.0288 -0.1282  0.2104
31405W        W74421  23.250  18.546  22.645 -0.4146 -0.0030  0.0233
31406W        W74422  27.791  22.756  10.756 -0.3997 -0.1996  0.0004
31407W        W74423  30.263  31.137  17.526  0.2636 -0.3204 -0.1838
31408W        W74424   2.155  18.381  27.179 -0.0186  0.2019  0.0434
31409W        W74425  24.133   7.998  22.505 -0.1059 -0.3045  0.0383
31410W        W74426  21.643   9.769   6.327 -0.0000 -0.2681  0.2257
31411W        W74427  31.932  25.210  16.678  0.0211  0.1518  0.0472
31412W        W74428  32.165  21.201  10.056  0.1557 -0.2309 -0.1403
31413W        W74429  28.629  12.333   3.534  0.1484 -0.0002 -0.1314
31414W        W74430  15.130  33.151  27.872  0.1408  0.1251  0.0407
31415W        W74431   2.004  31.624   5.183  0.2592  0.0114 -0.2056
31416W        W74432  26.932   0.158   1.946  0.2647 -0.3596  0.1806
31417W        W74433  23.555  18.838   7.963 -0.3695  0.3648 -0.0805
31418W        W74434  14.568  12.687   7.633 -0.3311  0.1015 -0.0504
31419W        W74435  18.846  28.256   9.130 -0.0341  0.2502  0.3402
31420W        W74436  33.759   9.283   8.213  0.2098 -0.1735 -0.2089
31421W        W74437  12.869  21.200   6.574 -0.0493 -0.1324  0.0466
31422W        W74438   1.258   5.841   9.641 -0.2409  0.0526  0.2954
31423W        W74439  11.282   7.670  25.886  0.3005  0.1235 -0.0940
31424W        W74440  26.834   8.614  28.781  0.0421 -0.3667 -0.0436
31425W        W74441  17.677  12.575   6.154  0.3089 -0.2557 -0.2961
31426W        W74442  22.027  25.327  28.730  0.0563 -0.1372  0.1595
31427W        W74443  32.006  17.494   3.055  0.1545  0.2682  0.0990
31428W        W74444  33.366  20.851   3.150 -0.0094  0.4680 -0.1127
31429W        W74445  22.281  12.675  29.087  0.0538 -0.5513 -0.0030
31430W        W74446  23.656   1.394   4.351  0.0929  0.1501  0.0078
31431W        W74447  20.343  31.672  22.552 -0.2126 -0.0290 -0.1111
31432W        W74448   9.509   0.529   9.186 -0.0809  0.1972  0.0891
31433W        W74449   4.369   8.287   4.411  0.1095 -0.1198 -0.1877
31434W        W74450  32.506  10.523   6.734 -0.2993  0.1585 -0.2011
31435W        W74451  18.628  28.029  28.006  0.0323  0.1421  0.5565
31436W        W74452  17.732  34.205   3.341  0.2305 -0.1840 -0.1269
31437W        W74453  15.488  26.578  26.997 -0.0118 -0.1562  0.2309
31438W        W74454  25.304   3.122  18.533 -0.1192  0.0456 -0.1477
31439W        W74455  23.518  32.881  26.293  0.1387  0.1025  0.0036
31440W        W74456  25.239   2.413   8.631  0.0233  0.1113 -0.0841
31441W        W74457  30.799  12.957   3.816 -0.0580 -0.2213  0.1835
31442W        W74458   2.489  14.125   4.605  0.1187 -0.1985  0.0995
31443W        W74459  11.958   0.709  24.103  0.0437 -0.1029  0.5403
31444W        W74460  29.221  11.549   8.048 -0.0808 -0.1888  0.1640
31445W        W74461  22.669  10.213   7.939 -0.2468  0.0682 -0.0870
31446W        W74462  26.475  28.884   6.218  0.2934 -0.0685 -0.1979
31447W        W74463   0.417   2.005   9.605 -0.1531 -0.0177  0.0058
31448W        W74464   5.120  14.095   8.505  0.2027  0.0323  0.1166
31449W        W74465  29.170   2.812  10.752 -0.0797 -0.2117  0.2305
31450W        W74466  25.475   8.458   5.744  0.0101  0.1176 -0.0530
31451W        W74467  32.852  17.822  10.461  0.0303  0.2173 -0.1162
31452W        W74468  14.747   1.506   6.281 -0.4203  0.0733  0.0897
31453W        W74469  26.078   9.322   1.954 -0.1292  0.1844 -0.0216
31454W        W74470   4.739   6.895   9.216  0.1100 -0.4862 -0.3063
31455W        W74471  28.988   4.840   3.610  0.0510  0.2046  0.0520
31456W        W74472   7.729  19.754  21.427 -0.0423 -0.0623 -0.1573
31457W        W74473  26.614  34.034   0.388 -0.0627  0.1374  0.1124
31458W        W74474  22.430  13.794  27.976 -0.0337  0.0992  0.0002
31459W        W74475  26.561  31.002   6.149  0.0960 -0.1542  0.1171
31460W        W74476  26.540  15.866  15.194  0.1277 -0.0924  0.0257
31461W        W74477  13.743  34.243   8.831  0.0519  0.2164 -0.0835
31462W        W74478  17.304   3.283   0.778 -0.0679 -0.4047  0.1177
31463W        W74479   6.218  16.743   7.122  0.1453  0.3699 -0.1463
31464W        W74480   8.572   4.836  10.439 -0.2847  0.3243  0.1902
31465W        W74481  20.714   1.334   9.330  0.2090 -0.0866  0.4556
31466W        W74482  25.696  28.625   1.660  0.2877  0.1022  0.1701
31467W        W74483  21.283   5.555  19.336 -0.0066 -0.1014 -0.0731
31468W        W74484  22.606  12.273  20.856  0.0510  0.0352  0.0718
31469W        W74485   1.458   6.519   5.242  0.2818 -0.0677  0.1382
31470W        W74486  10.862   7.189  21.055  0.1167 -0.1592 -0.0485
31471W        W74487  23.262  15.086  23.942  0.1476  0.2198  0.0720
31472W        W74488  19.350  11.454   2.549  0.0465  0.2643 -0.3206
31473W        W74489  21.393  19.271   0.419 -0.0219 -0.0301  0.2350
31474W        W74490   8.686  21.257  19.112  0.0637 -0.0358 -0.0831
31475W        W74491  21.857   3.675   5.776  0.0656 -0.1461  0.2376
31476W        W74492  33.402  20.775   7.803 -0.0997 -0.0174  0.0956
31477W        W74493   7.938  31.055   4.401 -0.4174 -0.0303  0.0210
31478W        W74494  15.695  11.416   7.151 -0.1518 -0.0488  0.2259
31479W        W74495  27.258  34.478  27.959 -0.1066 -0.2317 -0.0722
31480W        W74496   3.629  32.113   4.415 -0.0107  0.4056  0.1067
31481W        W74497  24.220   3.649   0.026  0.0087 -0.1669  0.1623
31482W        W74498  10.808   9.424   3.733  0.3484 -0.1953  0.1214
31483W        W74499  14.946   1.685  26.215  0.2130 -0.0028 -0.3767
31484W        W74500   3.125   6.190  16.666 -0.0261 -0.0255  0.0040
31485W        W74501  24.047   9.212   0.263  0.0618  0.0129  0.2970
31486W        W74502  25.460  30.089   1.709  0.0202 -0.2011 -0.1449
31487W        W74503  29.861   7.348  27.308  0.0375  0.0170  0.1272
31488W        W74504  14.146  14.147  22.343 -0.0505  0.0671  0.2026
31489W        W74505  21.507  10.638   0.762  0.0086  0.2084  0.3520
31490W        W74506  31.810   9.928   6.797  0.0083 -0.3283 -0.1012
31491W        W74507   9.390  11.932   6.260  0.2519  0.3036 -0.0512
31492W        W74508  10.290   2.782   4.537  0.3663  0.0900 -0.0312
31493W        W74509  21.011   6.991   2.100 -0.0964 -0.1304 -0.0775
31494W        W74510   4.582   4.893  29.029  0.0672 -0.1464 -0.0744
31495W        W74511  20.664  12.498   1.808 -0.2125 -0.0590  0.0551
31496W        W74512  21.052  26.111   3.541 -0.2830  0.0124  0.0099
31497W        W74513  30.802   1.922   5.087  0.0331 -0.0774 -0.0098
31498W        W74514  12.522   3.320   7.557 -0.1162  0.0651 -0.0456
31499W        W74515  17.141   1.272  22.174 -0.1149 -0.2101  0.0825
31500W        W74516  12.114   4.239   1.762 -0.0262  0.0574  0.2439
31501W        W74517   4.634   9.770   1.669  0.0385  0.0421 -0.0671
31502W        W74518   7.697  17.324  27.873 -0.2052  0.1467  0.1805
31503W        W74519   8.841  29.545   4.037 -0.2064 -0.2539 -0.0863
31504W        W74520  32.998  16.675  17.925  0.1505 -0.1503 -0.3103
31505W        W74521  11.075  28.297   9.609 -0.0333  0.0579 -0.2038
31506W        W74522  20.576   2.434   6.131 -0.0317  0.0953 -0.1215
31507W        W74523  31.730   7.363   7.881 -0.2364  0.2511  0.0085
31508W        W74524  21.157  31.091  25.655 -0.2977 -0.1423 -0.0500
31509W        W74525  30.861  17.010   4.892 -0.0471  0.0920  0.0706
31510W        W74526  21.735   2.886  28.628 -0.3562  0.3174 -0.0304
31511W        W74527  31.403  11.443   0.319  0.0913 -0.0302 -0.2633
31512W        W74528   4.106   1.726   0.706 -0.2884  0.3013 -0.0850
31513W        W74529   0.916  20.004   2.749  0.0464  0.0396 -0.0704
31514W        W74530  27.841  13.493   5.651  0.0461  0.1165  0.3171
31515W        W74531  33.941  30.711   9.214  0.1541 -0.1877 -0.0267
31516W        W74532  19.194  11.596   5.356  0.3506 -0.1891  0.3932
31517W        W74533   7.310   3.511   0.624 -0.1109  0.1928  0.3464
31518W        W74534  33.555   6.710  28.085  0.3719  0.1460 -0.1629
31519W        W74535  28.435   4.481  11.140 -0.1709 -0.3381  0.2193
31520W        W74536   0.169  30.439   9.421 -0.3082  0.0946  0.2401
31521W        W74537   1.258   4.557  26.467  0.0094 -0.1191  0.1941
31522W        W74538  17.726   3.059   7.624  0.1254  0.4132 -0.2015
31523W        W74539  26.756  16.677  22.156 -0.0363  0.0653 -0.0373
31524W        W74540  15.763   1.549   8.710  0.1098  0.1666  0.1996
31525W        W74541   4.351   1.552   3.560 -0.0087 -0.2267  0.1249
31526W        W74542  14.373  22.981  20.980 -0.4960  0.0090  0.0857
31527W        W74543  23.254   3.636   0.511 -0.1672 -0.0225  0.0600
31528W        W74544  22.468   5.194   9.502 -0.1952 -0.0026  0.0371
31529W        W74545  22.891   6.391   5.537  0.0955 -0.0331 -0.1369
31530W        W74546  24.618   8.164   3.773 -0.0276  0.2394 -0.0215
31531W        W74547  30.105  25.708   9.727 -0.1488 -0.1370  0.1191
31532W        W74548  32.078   3.825   5.023 -0.2570 -0.1527 -0.2313
31533W        W74549   1.705  18.190   4.812  0.1040  0.0762  0.0464
31534W        W74550  29.030  32.243  19.345 -0.0416 -0.1300 -0.0600
31535W        W74551  11.133  27.204  25.090 -0.2003 -0.0029  0.0371
31536W        W74552   0.947  13.026   3.236  0.0527 -0.1449 -0.1404
31537W        W74553   6.740  12.876   5.944  0.0727 -0.2691  0.0340
31538W        W74554  25.839   6.383   9.147 -0.2133 -0.0440  0.1919
31539W        W74555  14.343  11.759  28.812  0.2378  0.0413 -0.4338
31540W        W74556   6.573  20.776   6.271 -0.0454 -0.3873  0.0190
31541W        W74557  23.630   3.396   0.182 -0.0026 -0.1104 -0.2611
31542W        W74558   7.824   4.532   5.790  0.0320  0.1062 -0.0108
31543W        W74559  25.795   0.741  10.443 -0.1981  0.1411 -0.1840
31544W        W74560  32.706   6.072   9.479  0.0944  0.2645 -0.2403
31545W        W74561  26.880   9.218   9.488  0.0554 -0.0538 -0.0883
31546W        W74562  29.510  28.977   9.671 -0.0461 -0.0213  0.0098
31547W        W74563   9.497   5.951  18.494  0.0349  0.0318  0.0394
31548W        W74564  28.115  29.288   3.900  0.0240 -0.4290 -0.0347
31549W        W74565  24.904  18.322   3.968  0.1928 -0.0838 -0.0497
31550W        W74566  18.669  33.682  22.755  0.5424  0.0532 -0.3327
31551W        W74567  27.233  28.959  27.756  0.1456 -0.0828 -0.1494
31552W        W74568  10.089  10.428   5.950  0.4371  0.0162  0.0318
31553W        W74569   0.481  22.505  27.136 -0.1622 -0.1014  0.2037
31554W        W74570  23.825   3.814   5.592 -0.1909  0.0049 -0.1583
31555W        W74571  34.023  29.436  25.226 -0.0966  0.1362  0.1383
31556W        W74572  14.703  11.758   6.835  0.0860  0.0554 -0.2570
31557W        W74573  21.868   0.769   7.364 -0.0759 -0.0254  0.3226
31558W        W74574  27.139  14.721  23.625  0.0607  0.2800  0.1367
31559W        W74575  10.258  14.626   1.303 -0.1778 -0.0324  0.0486
31560W        W74576  25.412   3.494  28.610  0.0940  0.0662  0.0164
31561W        W74577   5.687  34.551   4.396  0.0765 -0.0520 -0.0358
31562W        W74578  27.274  31.609   0.783  0.1758 -0.1318 -0.1694
31563W        W74579  28.928  16.323  26.891  0.3474  0.1860 -0.3257
31564W        W74580  19.232   8.245   0.360  0.0537 -0.0756  0.0577
31565W        W74581  16.325   3.195  26.782 -0.0010 -0.0286  0.1642
31566W        W74582  29.553  18.827   8.958  0.1067  0.0611  0.0524
31567W        W74583   2.582  15.052  21.879  0.4406  0.2186  0.0522
31568W        W74584  28.989   4.767   6.618 -0.1740 -0.0655 -0.0509
31569W        W74585   1.655   3.820   2.014 -0.1632  0.1545  0.2592
31570W        W74586  33.567  13.438  23.687  0.0595  0.2294  0.3068
31571W        W74587  16.518  10.822  12.923  0.1563  0.0523  0.1046
31572W        W74588  24.592  14.881   0.590  0.0575  0.1913  0.1778
31573W        W74589  17.641  27.118  21.766  0.2833 -0.0908  0.1475
31574W        W74590   4.304   2.347  25.237  0.1516  0.0632 -0.3191
31575W        W74591  24.109  29.282   5.752 -0.1538  0.3573 -0.1198
31576W        W74592   2.115   3.302   3.850 -0.0341 -0.1982 -0.1007
31577W        W74593   8.200  19.204   8.470  0.1317  0.0414  0.2827
31578W        W74594  21.583  20.768   6.162  0.1207 -0.0560  0.1059
31579W        W74595  34.649  17.123   4.353  0.0801  0.0813  0.3947
31580W        W74596   0.711  11.997   2.356  0.3298 -0.1592  0.0409
31581W        W74597   9.364   5.171   9.813  0.0832  0.0175  0.2757
31582W        W74598  24.366  14.599   0.900 -0.1708 -0.1143  0.0986
31583W        W74599  25.362  14.105   2.422 -0.1989 -0.0377 -0.0421
31584W        W74600  32.471  13.361   9.759 -0.2292 -0.2294  0.1808
31585W        W74601   0.487  34.418   6.537  0.0235 -0.4133  0.0398
31586W        W74602  26.280  31.506   9.721 -0.2786 -0.0422 -0.0755
31587W        W74603   8.702  14.673   7.404 -0.0135 -0.0256  0.0098
31588W        W74604   8.854  30.317  23.541 -0.2004  0.2194 -0.0549
31589W        W74605  21.801   4.840  16.753  0.2298  0.1300 -0.1485
31590W        W74606  11.116   7.462  22.802 -0.1296 -0.1336  0.0082
31591W        W74607  23.303   2.511  26.001  0.3986 -0.1162 -0.0458
31592W        W74608  30.964  32.545   0.758 -0.0757  0.2220 -0.0440
31593W        W74609   1.208  12.759  28.095 -0.2177 -0.0616 -0.3278
31594W        W74610  21.115   4.146   3.602 -0.0903  0.0625 -0.1664
31595W        W74611  26.366   2.637   9.248 -0.2304 -0.3328  0.0625
31596W        W74612  26.433  19.864   9.869 -0.4561 -0.1753 -0.3413
31597W        W74613   4.681   8.497   6.869 -0.2798 -0.0977  0.2076
31598W        W74614  30.919   7.517   5.615 -0.0195  0.2294  0.0757
31599W        W74615  23.061  16.736   7.460  0.3455  0.0071 -0.0455
31600W        W74616   8.636  12.283   1.694 -0.0279  0.0975 -0.1161
31601W        W74617  31.795   4.583   1.765 -0.0902 -0.1620 -0.3719
31602W        W74618  18.342  22.438  27.887  0.0266  0.0627 -0.1210
31603W        W74619  24.635   4.616  24.205  0.1142 -0.0014 -0.2700
31604W        W74620  32.678  12.557   1.910  0.1830 -0.1797  0.4241
31605W        W74621   6.118  23.731   5.652 -0.1657 -0.1162  0.0805
31606W        W74622  16.294   5.438  28.701 -0.0938 -0.2218  0.0192
31607W        W74623  24.104  13.790   3.323 -0.1059  0.0886  0.1725
31608W        W74624  28.867   4.269   6.654  0.1257 -0.0344 -0.0145
31609W        W74625  26.873   6.381  15.943  0.0112 -0.3126 -0.0124
31610W        W74626  19.935  23.319  28.680  0.0820  0.0098 -0.2155
31611W        W74627  34.677   6.844  25.510  0.0506 -0.0162  0.1189
31612W        W74628  19.596  22.169   6.055  0.2819  0.2161  0.0675
31613W        W74629   9.678   3.852  10.828  0.2149 -0.1488  0.0795
31614W        W74630  27.873  17.298   3.974 -0.0856 -0.0692 -0.0289
31615W        W74631   2.866  12.620   5.716  0.4822  0.1193  0.0727
31616W        W74632  27.795   2.495   5.162 -0.1401  0.0446  0.3092
31617W        W74633  27.104  13.644   5.326 -0.2439  0.0916  0.5218
31618W        W74634  10.730  29.349  22.966  0.1618 -0.1426  0.2460
31619W        W74635  22.016  17.575   3.067  0.0194 -0.0696 -0.1184
31620W        W74636  16.384  29.446   7.095  0.0844 -0.0640 -0.2005
31621W        W74637   1.225  11.997   0.391 -0.1047 -0.0280  0.1677
31622W        W74638  27.622   4.884   7.638 -0.3737  0.0953  0.3978
31623W        W74639   8.543   1.717   9.811 -0.2784 -0.0162  0.0558
31624W        W74640   9.000  27.593   7.183 -0.0563 -0.0409 -0.1783
31625W        W74641   7.331   0.470  26.920  0.0436 -0.1046 -0.0648
31626W        W74642  22.827   9.771   6.728 -0.3876  0.1589  0.3758
31627W        W74643  24.859  17.326   5.684  0.3413 -0.0827 -0.2199
31628W        W74644  18.392  25.325  29.183  0.0091  0.3255  0.0771
31629W        W74645  17.058   4.715  27.296  0.2907  0.0449  0.0534
31630W        W74646   7.321   5.010   4.632  0.0087 -0.0609 -0.1713
31631W        W74647  10.865  12.328   3.830 -0.0506 -0.1103 -0.1706
31632W        W74648  26.230  12.737   3.814 -0.3745 -0.1003  0.0566
31633W        W74649   0.816  11.843  22.362  0.1840 -0.1237 -0.2532
31634W        W74650  27.799  34.353   0.290  0.2109 -0.2676  0.0975
31635W        W74651  23.173  20.295   1.774 -0.0751  0.2215  0.0382
31636W        W74652  34.017  10.154   7.017 -0.0399 -0.0420  0.2647
31637W        W74653  24.765  30.362   4.091  0.1136  0.0564 -0.1564
31638W        W74654  12.238  12.900  14.186  0.1189 -0.0763  0.0976
31639W        W74655  25.282   3.757  20.139 -0.0727 -0.1828 -0.0699
31640W        W74656  21.941   0.006  28.927  0.0074 -0.1349 -0.0605
31641W        W74657  14.594   1.079  22.426  0.1742 -0.1684  0.1726
31642W        W74658  25.771  26.378   0.070 -0.3988 -0.0471  0.0466
31643W        W74659   0.248  13.037   1.211  0.1271 -0.1838 -0.0901
31644W        W74660  31.123  19.442   9.102 -0.1782 -0.0001  0.0946
31645W        W74661  32.221   3.684   0.075  0.0151  0.1745  0.3367
31646W        W74662  24.386  25.289   9.070  0.2443 -0.0897  0.0173
31647W        W74663  24.410   2.261  26.663  0.0051 -0.0761 -0.2075
31648W        W74664   0.665   7.399  24.275 -0.3228  0.2390  0.2702
31649W        W74665   5.289  15.300   9.720  0.1561  0.0599  0.2335
31650W        W74666  16.479   4.218   7.811  0.0826 -0.2026 -0.2064
31651W        W74667  24.339   0.074  28.499 -0.2893  0.2590  0.0606
31652W        W74668  27.928   5.125   1.872 -0.0002 -0.0124  0.1706
31653W        W74669  23.972  31.634  28.541 -0.0596  0.0246 -0.1251
31654W        W74670  21.797   5.102   7.560  0.1321  0.1186 -0.1309
31655W        W74671  10.930  24.784  19.881  0.3911  0.0340  0.0120
31656W        W74672   0.751   5.616   1.538 -0.3734 -0.1151  0.1403
31657W        W74673  20.592  13.123   7.438  0.0654 -0.2165  0.2348
31658W        W74674  26.462  14.645  19.986  0.4573 -0.0275 -0.1479
31659W        W74675  26.425  14.924  21.170  0.1121 -0.1244 -0.0801
31660W        W74676  11.834  25.964  28.274  0.0152  0.1191 -0.1027
31661W        W74677  29.960   8.491  19.714  0.0728 -0.0826 -0.1775
31662W        W74678  23.425  22.653   4.031 -0.0419  0.2471  0.1539
31663W        W74679   5.001  16.416   8.934  0.0455  0.0157  0.2803
31664W        W74680  27.097   2.936   3.816 -0.0433  0.1365 -0.0403
31665W        W74681   8.024  32.543   4.273  0.0261 -0.2104  0.0625
31666W        W74682  16.800   7.261   5.624 -0.3750 -0.2526 -0.0141
31667W        W74683  25.424  31.732   3.999  0.1240 -0.2103  0.1768
31668W        W74684  34.103   5.340   8.568  0.4741 -0.0533  0.0783
31669W        W74685   1.872  18.576   6.902  0.0314  0.2019  0.0743
31670W        W74686  32.187   7.283   4.046  0.2230  0.0899  0.1959
31671W        W74687   5.138   7.641  25.700 -0.1912 -0.0792  0.0553
31672W        W74688  25.646   5.796  11.653 -0.0107  0.2697 -0.3820
31673W        W74689  26.584  29.540   6.305 -0.1236 -0.1352 -0.2595
31674W        W74690  29.868   2.956   1.739 -0.0492 -0.0807 -0.1999
31675W        W74691   6.919   4.553   8.482 -0.1772 -0.1908  0.0213
31676W        W74692  20.267  13.010   4.695  0.1417 -0.1561 -0.2700
31677W        W74693  14.531  17.396   8.070 -0.2347  0.2331 -0.1162
31678W        W74694  24.585  23.729  19.303  0.1611 -0.1718 -0.0193
31679W        W74695   5.308   9.612   6.824  0.1077  0.0509 -0.1383
31680W        W74696  14.023   7.844  29.213 -0.2090  0.1408  0.0376
31681W        W74697  27.521  34.435  10.294  0.0259  0.0985 -0.0111
31682W        W74698  19.425  33.911  21.626 -0.0800 -0.1336 -0.1573
31683W        W74699  18.115  11.497   0.385  0.0595 -0.0064 -0.0559
31684W        W74700  26.228   3.572   4.856  0.1146 -0.1539 -0.0203
31685W        W74701  21.083  32.882   5.655  0.1057 -0.2229 -0.1426
31686W        W74702  18.497   6.984   6.641 -0.0677 -0.0422  0.2072
31687W        W74703  32.825  16.708  23.011 -0.1588  0.3789 -0.1103
31688W        W74704  15.523  34.070  24.275  0.0437 -0.0971  0.0335
31689W        W74705  26.593   2.445  10.179 -0.2754 -0.1017 -0.3985
31690W        W74706  30.424   1.000   4.990 -0.0798 -0.0880  0.1501
31691W        W74707  27.609   6.351   9.508 -0.0909  0.0141 -0.1891
31692W        W74708  18.079   5.901   5.623  0.2590 -0.0023  0.1372
31693W        W74709  18.693   3.780  20.721  0.1296  0.2741  0.2848
31694W        W74710  33.894   1.685  22.640 -0.1589 -0.3363 -0.0779
31695W        W74711  33.328   5.283   7.865 -0.0577  0.0434 -0.2637
31696W        W74712  28.868   7.108  10.564  0.0452  0.0241 -0.0875
31697W        W74713  13.705   7.305   3.339 -0.2023 -0.3300  0.0180
31698W        W74714  18.851  10.200   7.458 -0.3593  0.1866 -0.0701
31699W        W74715   1.115   0.025  29.234  0.1104 -0.1048  0.0766
31700W        W74716  24.540   6.669  10.732 -0.0762  0.2784  0.0858
31701W        W74717  23.931   7.267  24.209  0.2649  0.1313  0.0857
31702W        W74718  31.702   5.394   1.896  0.0826 -0.1801  0.0967
31703W        W74719  16.595  10.857  18.651 -0.0954 -0.0651 -0.0054
31704W        W74720  33.680  17.463   2.274  0.0432 -0.0022 -0.0916
31705W        W74721   3.051   3.391   3.054  0.0415 -0.0388  0.1633
31706W        W74722   0.199  14.159  10.724  0.0465  0.1538 -0.1164
31707W        W74723  11.898   2.217  17.365  0.2349  0.0822 -0.0019
31708W        W74724  13.236  29.262   1.987  0.0907 -0.0336  0.0684
31709W        W74725   6.610  32.851  27.463  0.1103 -0.1366  0.0829
31710W        W74726  30.550  28.116   1.529 -0.0339  0.3085 -0.0712
31711W        W74727  25.443  12.880   6.701 -0.0834  0.2566  0.0645
31712W        W74728  19.125  14.936  26.835  0.0066 -0.0959  0.0718
31713W        W74729  17.787  10.787  21.260 -0.3501  0.1241 -0.1528
31714W        W74730  21.069   6.583   5.267  0.0385 -0.3895  0.0167
31715W        W74731  18.921  17.117  20.344  0.0858 -0.2934 -0.0671
31716W        W74732  32.960   2.278   0.076 -0.3444  0.1792  0.2670
31717W        W74733  21.746   6.900   4.040  0.0743  0.2496 -0.0249
31718W        W74734  27.588  17.409   8.508  0.2380  0.0209 -0.0712
31719W        W74735  10.424   7.881   7.113 -0.3179  0.1813  0.4173
31720W        W74736  23.833  29.471  29.172  0.0410  0.0004 -0.3805
31721W        W74737  24.847  11.950   3.669 -0.1916  0.1305 -0.3089
31722W        W74738  24.535   0.988   3.043  0.2439 -0.0426 -0.0367
31723W        W74739  31.876   8.846  26.366  0.0730  0.2037  0.4859
31724W        W74740  26.382  23.134   8.855 -0.1133  0.1374  0.2630
31725W        W74741  29.249  24.486  10.084 -0.1625  0.1200  0.0767
31726W        W74742  29.219  12.298   3.857  0.1364 -0.1484 -0.2813
31727W        W74743  20.853  28.812   2.477  0.1165  0.1729  0.1320
31728W        W74744  33.547  29.923   8.119 -0.0420  0.1883 -0.0231
31729W        W74745  19.269  15.281  28.246  0.0240 -0.3804 -0.0040
31730W        W74746  12.858  13.701   5.683 -0.3042 -0.0609  0.1790
31731W        W74747  26.447  18.089   8.474 -0.1632  0.2361 -0.2454
31732W        W74748   3.029   6.260  27.902  0.0260 -0.0991 -0.0645
31733W        W74749  29.368   4.259   7.699 -0.3424 -0.2883  0.2528
31734W        W74750  23.079  22.778   9.670 -0.1554 -0.0660 -0.1285
31735W        W74751  24.947  12.719  10.364 -0.0852  0.1542  0.1880
31736W        W74752  27.627  11.692  25.013  0.0482  0.0024 -0.0182
31737W        W74753  23.864   1.942   0.320 -0.0866 -0.1042  0.1639
31738W        W74754  23.982  30.358   7.115 -0.0116 -0.0519 -0.1025
31739W        W74755  24.683  33.805  11.482 -0.0199 -0.0102 -0.0469
31740W        W74756   1.377  17.685   6.525  0.1493 -0.1862  0.0784
31741W        W74757  24.269  34.334   8.703  0.2241  0.2665  0.0137
31742W        W74758  17.362   2.227   6.410  0.3649  0.0533 -0.0023
31743W        W74759  21.180  30.603   4.219 -0.1595  0.3668 -0.0674
31744W        W74760  26.240  29.619   9.847 -0.1976 -0.1676 -0.3107
31745W        W74761   8.460  25.395   6.922  0.0338 -0.1902 -0.3320
31746W        W74762  24.664  10.849   1.730  0.0087  0.1932  0.3687
31747W        W74763   1.961  32.466   8.794  0.0296 -0.1490  0.1764
31748W        W74764  23.250  19.230   3.819 -0.3953 -0.1209 -0.0191
31749W        W74765  32.069  15.677  28.848  0.3836 -0.1297  0.3341
31750W        W74766  27.761  20.408  18.009 -0.0213 -0.0692 -0.2078
31751W        W74767   8.258  33.439   8.502  0.0320 -0.0139 -0.1188
31752W        W74768  16.495  33.841   6.337 -0.0063  0.1217 -0.1085
31753W        W74769  14.402  23.839  19.308  0.0715  0.1976  0.2865
31754W        W74770  17.788  16.832   6.794 -0.1498 -0.1178 -0.1015
31755W        W74771  33.198  16.172  28.475  0.0372  0.3049  0.1276
31756W        W74772  13.472   5.015   3.558  0.0609  0.0470 -0.1394
31757W        W74773  22.307   5.687   5.768 -0.0765 -0.1066 -0.1359
31758W        W74774  19.871  16.656  28.130 -0.0207  0.0697  0.2519
31759W        W74775  33.509  14.832   3.256 -0.0410 -0.1484 -0.0807
31760W        W74776  33.682   9.221   6.235  0.1648 -0.0360  0.0689
31761W        W74777  24.268   5.306  29.173  0.1879  0.1001  0.1994
31762W        W74778   3.202   2.418   5.672 -0.1636  0.0486  0.0648
31763W        W74779  26.719  22.809   2.292  0.0718  0.2095  0.1484
31764W        W74780  23.401  28.642   2.014 -0.0427 -0.1428  0.1115
31765W        W74781   4.491  21.324   8.225  0.0685  0.0909 -0.0446
31766W        W74782  28.860   0.140   3.998 -0.1388 -0.0663 -0.3639
31767W        W74783  16.448   8.950   2.064 -0.1245  0.1263  0.1064
31768W        W74784  21.214  25.418   6.633  0.0351  0.0371 -0.0403
31769W        W74785  33.507  10.544   9.321 -0.1404  0.2449 -0.4056
31770W        W74786  13.849  11.386  28.091  0.0823  0.1342  0.0062
31771W        W74787  21.001  20.698   7.990  0.0094 -0.2165 -0.0310
31772W        W74788  27.152  18.349   1.951 -0.0891 -0.0820 -0.0315
31773W        W74789  19.222   0.457  26.840 -0.0460 -0.0398 -0.2871
31774W        W74790  29.849   0.338   4.631 -0.0410 -0.0376 -0.1420
31775W        W74791  23.152   5.017   9.933  0.0188  0.0536 -0.0524
31776W        W74792  32.361  29.710   5.215 -0.1252  0.1867  0.0888
31777W        W74793   2.259   1.420   2.100  0.0595 -0.1856  0.1174
31778W        W74794   4.479   4.565  28.605  0.3525 -0.0399  0.3752
31779W        W74795   1.793   6.905   0.716 -0.1446 -0.1384  0.2249
31780W        W74796  29.840  12.253   0.415  0.3162 -0.0514  0.1654
31781W        W74797  11.910   0.178  21.125  0.2980  0.2001 -0.1886
31782W        W74798  32.357   2.886   2.423 -0.0944  0.0297 -0.0233
31783W        W74799  15.195  21.643  21.673 -0.0379  0.0076 -0.0253
31784W        W74800  14.105  27.792   4.973 -0.0910  0.0007 -0.2500
31785W        W74801  19.996  25.935  27.846 -0.3041  0.0169  0.1292
31786W        W74802  30.304  19.532   9.205 -0.4844  0.0620 -0.2789
31787W        W74803  16.576  15.563   2.359 -0.0031 -0.0879  0.2153
31788W        W74804  25.168  20.960   4.569 -0.0988 -0.0981 -0.2349
31789W        W74805  30.223  24.222   9.196  0.2259  0.0583 -0.1122
31790W        W74806   3.660   2.814   3.929 -0.0701  0.1438 -0.0752
31791W        W74807   1.547   5.190   1.819  0.1661 -0.2436 -0.1611
31792W        W74808  27.162  15.832   7.596  0.3587 -0.0565 -0.1802
31793W        W74809  28.918   3.747   8.945 -0.2435  0.2433  0.1168
31794W        W74810  16.755  22.095  28.744  0.0118 -0.3061  0.1298
31795W        W74811  28.003   9.073  14.674  0.1003 -0.0327  0.1891
31796W        W74812  19.099   1.451   9.664 -0.0944  0.1795  0.2757
31797W        W74813   8.525  14.251   1.986 -0.3489  0.0728 -0.1105
31798W        W74814  10.803   9.259   0.079  0.0479 -0.2202  0.0334
31799W        W74815  21.796   4.418   8.482  0.1681  0.1218  0.1530
31800W        W74816  25.855  33.098   8.932 -0.3328 -0.1699 -0.1402
31801W        W74817  31.248   5.258  23.566  0.2019  0.1442 -0.0020
31802W        W74818  24.598  14.861   3.843 -0.1687  0.0751  0.3984
31803W        W74819  17.157  23.587  24.312 -0.1389  0.0488 -0.1477
31804W        W74820  25.033  18.255   5.292  0.2324 -0.0567  0.4498
31805W        W74821  32.459  26.119   5.853 -0.1957 -0.2260 -0.2705
31806W        W74822  33.460   2.283   3.565 -0.2153  0.0508 -0.2075
31807W        W74823   8.376  31.913  10.041 -0.1064  0.0859 -0.0894
31808W        W74824   3.484  17.750   1.309 -0.2225  0.1693 -0.3137
31809W        W74825   1.276   0.545  23.502 -0.0480  0.3146  0.1197
31810W        W74826   0.306   3.346  26.481  0.1040 -0.2359  0.3460
31811W        W74827  30.215  20.896   9.256 -0.1374 -0.1006 -0.1505
31812W        W74828   0.668   2.170  25.049  0.0568  0.2646  0.0631
31813W        W74829  22.214  27.840  23.321  0.0241 -0.0156  0.0284
31814W        W74830  22.622  11.675   4.343 -0.2205  0.2097 -0.2618
31815W        W74831  32.977   9.641   2.673  0.0690  0.2243  0.3785
31816W        W74832  27.870  12.968  28.865  0.1327 -0.3298  0.1430
31817W        W74833  19.958   7.534   7.152 -0.1651  0.0867 -0.0051
31818W        W74834  22.301   3.467  26.600  0.2100  0.1045 -0.0102
31819W        W74835  27.247   4.641  27.249  0.1420  0.4192  0.2485
31820W        W74836  29.260   9.580   7.381 -0.1372 -0.0015  0.2451
31821W        W74837  21.328   1.778   6.264 -0.1570  0.0640  0.0592
31822W        W74838   8.856   9.154  27.103  0.3031 -0.2207  0.0594
31823W        W74839   1.760   6.184   3.104 -0.3101 -0.3843  0.0874
31824W        W74840  24.366  27.058  10.430  0.1307  0.2426 -0.2423
31825W        W74841   5.526  14.581  20.079  0.0558  0.0238 -0.2091
31826W        W74842  19.906   5.554   6.376 -0.1650  0.0591 -0.0340
31827W        W74843   0.597   9.678   6.101 -0.1649  0.2173  0.0460
31828W        W74844   4.466   5.486   0.266  0.3343 -0.0140 -0.0335
31829W        W74845   8.095  12.054  21.008  0.2537 -0.0147 -0.0471
31830W        W74846   4.818   8.084   4.662  0.0143 -0.1068 -0.0464
31831W        W74847  15.135  15.562   0.169  0.1139 -0.1759 -0.0285
31832W        W74848  16.129  10.147  13.403  0.1293 -0.1339  0.0573
31833W        W74849  29.677  32.777   1.532 -0.0390 -0.0157 -0.5635
31834W        W74850  33.794  32.883   7.478  0.1601  0.3565 -0.0741
31835W        W74851   8.393   2.425  28.757  0.1520  0.1128  0.2242
31836W        W74852  34.432  22.606   9.478 -0.3680  0.2607 -0.0836
31837W        W74853   7.943  19.728   6.955 -0.1632 -0.0645 -0.0494
31838W        W74854  31.299   5.199   4.297  0.1428  0.1195  0.0314
31839W        W74855  22.417  12.989  23.936  0.0420  0.3602 -0.0404
31840W        W74856  17.189   9.753   3.967 -0.0125  0.2250  0.2123
31841W        W74857  22.640  29.147   4.968  0.2265 -0.0460  0.0059
31842W        W74858  24.724   8.984  28.472  0.3348 -0.1966 -0.0671
31843W        W74859  30.575   4.822  10.252 -0.2466 -0.2046 -0.3586
31844W        W74860  18.116  28.904  22.023  0.4188  0.2259  0.1809
31845W        W74861  29.447   3.453   0.450  0.0856 -0.4109 -0.2127
31846W        W74862  22.666   8.605   6.441  0.1292  0.4779 -0.0442
31847W        W74863   1.121  17.071   5.619  0.1280  0.0974  0.2201
31848W        W74864   9.157  10.922   3.569  0.4245 -0.1165  0.0152
31849W        W74865  18.898  28.325   7.662  0.1409  0.1542 -0.0094
31850W        W74866  15.620  28.574   7.060  0.5531  0.3008 -0.2609
31851W        W74867  22.264   4.963  25.273 -0.2611  0.0466 -0.1624
31852W        W74868  28.111  28.333   7.130 -0.1099 -0.1615 -0.1751
31853W        W74869  29.257  19.876   8.915 -0.2280  0.2921 -0.0830
31854W        W74870  30.163   3.404  26.841 -0.0277  0.1773  0.3727
31855W        W74871  33.939  11.851   4.287  0.4344  0.4354  0.2962
31856W        W74872  29.112   5.952   7.283 -0.1687  0.0914 -0.0848
31857W        W74873  15.486  11.805   2.246 -0.1378 -0.1916 -0.0805
31858W        W74874  23.951  12.149   1.543  0.3562  0.1186 -0.0070
31859W        W74875  21.931   3.633  22.776 -0.1504  0.2333  0.1014
31860W        W74876  11.809   6.682  22.903  0.0457 -0.1864 -0.1385
31861W        W74877  17.956  18.236  21.532  0.1190 -0.0434  0.1242
31862W        W74878  26.978   4.208   4.242  0.2195 -0.3257 -0.0987
31863W        W74879  28.926  29.624   7.712 -0.4253  0.0671  0.0236
31864W        W74880  31.018  33.712   6.058 -0.2702 -0.1470  0.1246
31865W        W74881  34.324  14.243   2.275 -0.3668 -0.1248  0.2293
31866W        W74882  17.556  32.109   7.127 -0.0776 -0.1287 -0.2986
31867W        W74883  18.253   1.640   1.085  0.0321  0.1419 -0.0209
31868W        W74884   1.634   1.841   6.997  0.0474  0.4063 -0.3456
31869W        W74885  16.793   7.341  19.345  0.0653 -0.0053 -0.2531
31870W        W74886  24.194  12.188   3.183 -0.2081  0.0843 -0.0613
31871W        W74887  17.335   5.809   9.029  0.1632 -0.1008  0.0166
31872W        W74888  29.614   5.144  10.667  0.0562 -0.3329  0.0987
31873W        W74889  32.226   3.062  29.059  0.0065  0.2347  0.0353
31874W        W74890   7.186   4.955   7.662 -0.0421  0.1598  0.0273
31875W        W74891  20.097   4.014   8.336  0.0382 -0.1380  0.1065
31876W        W74892  26.307   2.109   4.367  0.1978  0.2283  0.1703
31877W        W74893  11.365   0.497  18.541  0.0128  0.2929  0.0231
31878W        W74894  18.993  34.134   1.925 -0.1106 -0.3107 -0.1667
31879W        W74895  29.110   0.134   9.433  0.1242  0.1170 -0.0833
31880W        W74896  23.000  25.687   1.774  0.3780  0.1160 -0.1585
31881W        W74897   1.604   1.857   7.874 -0.1445  0.1251 -0.0097
31882W        W74898  29.491  33.013  29.094 -0.2658 -0.2893 -0.0494
31883W        W74899  23.768  34.669  26.057 -0.0355  0.0825 -0.1729
31884W        W74900  22.742  11.227   5.536 -0.1430 -0.0009 -0.1236
31885W        W74901  11.606  31.623   6.952 -0.1181  0.0264 -0.1295
31886W        W74902   2.327  28.476   9.394 -0.2318 -0.3139 -0.1121
31887W        W74903   4.311   9.754   7.004  0.2457  0.0858  0.1697
31888W        W74904  10.422   6.143  23.867 -0.2317  0.0593  0.0559
31889W        W74905  33.912  12.562   6.255  0.0804  0.0784  0.1158
31890W        W74906  27.287   0.209  10.453 -0.0797  0.0100 -0.1395
31891W        W74907   1.492   0.155   2.459 -0.1505 -0.1947 -0.1623
31892W        W74908  20.786   4.094   3.294  0.1204  0.1681  0.0700
31893W        W74909  23.959   8.987   8.673  0.0857  0.2235 -0.1610
31894W        W74910  28.456  10.245   7.409  0.0251 -0.1713 -0.0831
31895W        W74911  25.750   2.075   8.587  0.1375  0.1322  0.0676
31896W        W74912   3.714   9.506   5.661 -0.1048  0.1380  0.0492
31897W        W74913  32.429  34.138  10.361  0.1976  0.0686  0.1634
31898W        W74914  29.902   9.243   6.875  0.1032  0.4086 -0.0788
31899W        W74915   1.325  12.497   0.504  0.0956  0.3601  0.0155
31900W        W74916  23.620  18.411   9.193  0.0174  0.0836  0.1263
31901W        W74917   4.115  15.643  24.534 -0.1824 -0.3068  0.3095
31902W        W74918  25.329  30.054   6.741  0.4392  0.0584 -0.0192
31903W        W74919  26.051  22.656  18.156  0.0439 -0.2759  0.1568
31904W        W74920  20.081   6.840   7.473 -0.0071 -0.2788 -0.0703
31905W        W74921  17.417  13.452   1.623  0.1817  0.0171  0.0438
31906W        W74922  21.372  19.991   9.794 -0.0339  0.1281 -0.0640
31907W        W74923  28.922  20.264   3.002 -0.3836  0.1781 -0.0930
31908W        W74924  27.751  29.143   8.012  0.2534  0.0938 -0.1393
31909W        W74925  32.679   5.307  26.655 -0.0847 -0.1607 -0.0223
31910W        W74926   7.540   6.712   9.594 -0.0098 -0.0142  0.1232
31911W        W74927   6.807   6.602   8.159 -0.1791  0.0943 -0.0669
31912W        W74928  18.435  11.333  25.029  0.0496  0.1239 -0.0881
31913W        W74929  32.564   3.718   9.532  0.1489 -0.2998 -0.2654
31914W        W74930  29.698   7.421  18.764 -0.1445 -0.0963  0.1848
31915W        W74931  14.883  23.312   0.081 -0.0844  0.0948  0.1578
31916W        W74932  19.938  33.330   5.628  0.0793  0.1427  0.0037
31917W        W74933  22.069  22.219  17.125  0.4310 -0.1697 -0.1090
31918W        W74934  14.733  11.042   6.184  0.3693 -0.0101  0.0273
31919W        W74935  31.301  26.715  16.815 -0.0325 -0.4085  0.1172
31920W        W74936  18.329  15.031  11.786  0.1853 -0.0054 -0.1428
31921W        W74937  24.628   7.259  23.506 -0.0977 -0.4203 -0.0339
31922W        W74938  32.698   6.220  16.918 -0.0615  0.1694  0.2471
31923W        W74939  27.218  32.553   0.503 -0.0044  0.2575 -0.3602
31924W        W74940  29.698   3.433   6.668  0.1708  0.0344  0.3816
31925W        W74941   2.571  18.294   0.966 -0.1775 -0.0699 -0.2421
31926W        W74942  18.220   0.807  29.223 -0.0016 -0.0107 -0.1280
31927W        W74943  33.934  15.490   8.781 -0.1896 -0.1229  0.0885
31928W        W74944   4.499   5.593  23.984 -0.0271  0.1168  0.2926
31929W        W74945  16.487   7.872  28.331  0.1028  0.2505  0.0377
31930W        W74946   4.347  30.912   0.670  0.1778  0.2429 -0.2767
31931W        W74947  20.683  34.430   5.150  0.1537 -0.1874  0.4107
31932W        W74948  20.669  32.972   4.037 -0.0160  0.0483  0.1908
31933W        W74949   5.045  31.394  24.180  0.1770 -0.0765  0.2239
31934W        W74950  28.763   2.159  25.819 -0.1674  0.0845  0.0203
31935W        W74951  12.931  16.811   2.862 -0.1417  0.0729  0.0417
31936W        W74952  25.082  32.748   3.778  0.0055 -0.0471 -0.1308
31937W        W74953   3.213  18.110   5.404  0.0115 -0.1292  0.0730
31938W        W74954  25.987  16.036  21.881  0.1821  0.1585 -0.2376
31939W        W74955  21.185   4.940  25.794 -0.1377  0.0164 -0.1241
31940W        W74956  22.103   8.248   2.565 -0.0462  0.0264  0.0397
31941W        W74957   5.159  15.500  15.328 -0.0826  0.2610  0.0389
31942W        W74958  10.507   5.371   1.681  0.2277 -0.2847  0.4327
31943W        W74959  14.240   5.254   3.234  0.0295  0.1870 -0.1956
31944W        W74960  25.953  12.402  14.990 -0.0858  0.1143  0.1349
31945W        W74961  34.446   7.053  23.072  0.1450  0.1807  0.0549
31946W        W74962  25.149  26.807   0.923 -0.0424  0.2213  0.1477
31947W        W74963  34.429  29.142  24.992 -0.0793 -0.0417 -0.0208
31948W        W74964  16.352   6.493  13.390 -0.1581 -0.1181  0.0498
31949W        W74965   1.233  32.254   9.786  0.0262 -0.2705 -0.2550
31950W        W74966  15.541   5.433   0.834 -0.0300  0.0073 -0.2920
31951W        W74967  33.164  11.282   0.879  0.4891 -0.0602 -0.0920
31952W        W74968   1.423   1.390  10.542 -0.0463  0.0883 -0.4290
31953W        W74969  24.555  15.612  17.867  0.1961 -0.0146 -0.0688
31954W        W74970   0.897  23.928   3.725  0.0031  0.0552 -0.0690
31955W        W74971   4.391   2.363   5.274 -0.0470  0.1273  0.0546
31956W        W74972  22.115  14.047  22.474  0.0937 -0.2078 -0.0106
31957W        W74973  17.539   7.459   1.445 -0.1054 -0.1034 -0.2109
31958W        W74974   0.878  11.259   9.261  0.3131 -0.1062 -0.0559
31959W        W74975   3.942  24.682   1.798  0.1191  0.2027 -0.2840
31960W        W74976  32.466   9.639  28.512 -0.1340 -0.0234  0.1966
31961W        W74977  18.551   8.976  26.745  0.0290 -0.1001 -0.1008
31962W        W74978  25.511  16.086   0.022  0.3278 -0.0216  0.0750
31963W        W74979  28.686  30.492   6.208 -0.2140  0.1363 -0.0676
31964W        W74980  32.517   8.068   8.624  0.1697  0.0158 -0.4236
31965W        W74981  11.022  11.975  19.091 -0.1234 -0.1010 -0.2364
31966W        W74982  27.731  34.285  26.633 -0.4872 -0.1881 -0.0039
31967W        W74983   6.056  29.279   6.627  0.1192 -0.1685 -0.0405
31968W        W74984   4.515  18.323   8.454 -0.1425 -0.0277  0.2747
31969W        W74985   2.665  18.505  20.862  0.1491  0.0232 -0.1922
31970W        W74986  23.031  27.909  28.656 -0.2561 -0.1148 -0.0116
31971W        W74987  17.251   7.664  24.025  0.0940  0.0972 -0.0709
31972W        W74988  28.984   7.383   7.989  0.0023  0.1622  0.0244
31973W        W74989  19.787  34.645  24.184  0.1133 -0.0040  0.3085
31974W        W74990  14.325   1.301   6.074 -0.1199 -0.0820 -0.1313
31975W        W74991   1.941  18.940   4.508 -0.0567  0.2972 -0.1095
31976W        W74992   7.823  32.454   3.214  0.0906 -0.0430 -0.3710
31977W        W74993  23.314   9.480   5.785 -0.0140  0.0548 -0.0889
31978W        W74994  29.444   6.361   3.081  0.1079  0.0210  0.1745
31979W        W74995  29.142   3.387  27.494 -0.1384  0.3281 -0.1143
31980W        W74996   0.782  27.934   8.976  0.2273  0.2304 -0.4248
31981W        W74997   6.989  15.487   5.166  0.2371 -0.1100 -0.1861
31982W        W74998   8.540   5.133  16.385  0.1307  0.1335 -0.0337
31983W        W74999  32.420  22.838  20.667 -0.0994  0.0235 -0.4401
31984W        W75000  26.560   7.430  25.185  0.1644 -0.1248 -0.0985
31985W        W75001  27.300   2.780  27.085  0.0128  0.4051  0.1341
31986W        W75002  19.308   8.477   7.018  0.3707 -0.0169  0.1002
31987W        W75003  10.927   8.791  15.615  0.1785  0.3061 -0.2665
31988W        W75004  11.031  16.954  26.699  0.1153 -0.1897 -0.1312
31989W        W75005  21.405  11.546  15.262  0.1569  0.2386 -0.3425
31990W        W75006  17.242  17.511   8.659 -0.4269 -0.0001  0.2109
31991W        W75007  24.351  15.320  21.826 -0.0753 -0.0884 -0.0796
31992W        W75008  13.233  11.157  13.956 -0.0262  0.0110  0.0286
31993W        W75009  14.003  17.313  12.808  0.2946  0.1362 -0.0693
31994W        W75010   4.758   3.596  24.176  0.0832 -0.1465  0.2896
31995W        W75011  24.843   7.479   8.177  0.0826  0.0273  0.0779
31996W        W75012  28.083   0.240  22.599  0.0497 -0.0318  0.1220
31997W        W75013   2.947   3.480  25.816 -0.2116  0.1975 -0.2522
31998W        W75014  31.495  13.562   8.908  0.1616  0.0017 -0.0126
31999W        W75015  15.683   7.033   1.102  0.0023  0.0948  0.1846
32000W        W75016   5.971   5.598   0.648  0.1806 -0.2717  0.1173
32001W        W75017  16.578  27.640  20.250  0.0108 -0.2597 -0.3500
32002W        W75018  14.660   0.383  26.629  0.0447  0.0926  0.3011
32003W        W75019  24.508  16.093   3.982  0.0734 -0.1584  0.0047
32004W        W75020  32.089   6.033  10.080 -0.0523 -0.1654 -0.1840
32005W        W75021  30.645   3.939  26.976  0.0061 -0.1430  0.3068
32006W        W75022  26.240  14.222  15.954 -0.3630  0.0155  0.0130
32007W        W75023  18.012  34.030   2.135 -0.0876 -0.1498  0.4604
32008W        W75024  20.320  27.107   6.798 -0.2688 -0.0198  0.3451
32009W        W75025  22.760  14.976  27.374  0.1312 -0.1079  0.1392
32010W        W75026  34.601  33.908   4.375 -0.0032  0.1046 -0.4440
32011W        W75027   7.796  14.206  12.913 -0.1836  0.1096  0.2629
32012W        W75028   2.758  18.419  25.233 -0.2008  0.2295  0.2566
32013W        W75029   5.385  16.897  15.778 -0.2590  0.2499  0.0140
32014W        W75030  31.997   2.727  23.487  0.1256  0.3549  0.5014
32015W        W75031   4.454  15.429   8.281  0.0131 -0.4017 -0.3283
32016W        W75032  33.668   8.129   9.574  0.2180 -0.1706  0.0022
32017W        W75033  26.235   6.901   4.675  0.2418  0.1227  0.2149
32018W        W75034  19.648  15.998  18.976  0.0673  0.0362 -0.1709
32019W        W75035  24.217  19.523  18.319  0.1172  0.0734  0.0180
32020W        W75036  31.924   5.553  17.220 -0.1619  0.1074  0.1099
32021W        W75037  20.372  32.864   2.467 -0.1547  0.0164 -0.0812
32022W        W75038  19.736  14.281   2.131  0.0221  0.4879  0.0641
32023W        W75039  16.055  10.282   8.043 -0.0071  0.3443  0.0315
32024W        W75040  18.418  13.666  25.107  0.2000  0.0253 -0.0583
32025W        W75041   3.045  14.294   8.420 -0.0162  0.1966 -0.3340
32026W        W75042   0.474  30.024   2.902 -0.1982 -0.2095  0.1974
32027W        W75043  23.810   9.072  18.473 -0.0003  0.0050  0.0549
32028W        W75044   6.068   3.499  10.707 -0.2523 -0.2135  0.1394
32029W        W75045  14.558  23.524  23.811 -0.1838  0.1439  0.0688
32030W        W75046  20.331   3.227  14.460  0.1855 -0.0233 -0.1402
32031W        W75047  30.104  13.512  29.251  0.0325 -0.2414  0.1819
32032W        W75048  16.025  11.444   6.275  0.1458  0.3451 -0.0361
32033W        W75049   9.918   9.580  27.291 -0.1802  0.4005  0.0046
32034W        W75050  28.405   2.314   1.894  0.3430  0.0506 -0.0828
32035W        W75051  20.311  29.649   2.389 -0.0507 -0.1438  0.3730
32036W        W75052  16.916   2.222   1.900 -0.1052  0.0444 -0.0954
32037W        W75053  33.711  16.155   8.968  0.2993 -0.0747 -0.1203
32038W        W75054  19.046  32.025   6.052 -0.1753  0.2528 -0.0236
32039W        W75055  25.787  14.850  22.526  0.0273  0.2333 -0.0479
32040W        W75056  22.235  20.226  22.636  0.1100  0.1717  0.1567
32041W        W75057   0.970  16.357   6.460  0.0380  0.1485 -0.2107
32042W        W75058   2.081  19.547  21.136 -0.4174 -0.1890 -0.3092
32043W        W75059  29.860   9.348   4.876 -0.1061  0.0919  0.0007
32044W        W75060  27.627   6.892  27.767  0.0219 -0.1160 -0.0444
32045W        W75061  18.670  24.551  23.306  0.0798  0.0095  0.0067
32046W        W75062  34.672   7.419   9.370 -0.1714  0.1118 -0.0022
32047W        W75063  26.911   7.539   0.233  0.2582  0.0216 -0.2679
32048W        W75064  28.697   9.616   5.101 -0.0486 -0.1271  0.2366
32049W        W75065   0.343  14.479  14.978 -0.1348  0.4763 -0.1839
32050W        W75066   8.884  14.535  13.579 -0.0098 -0.1808  0.1326
32051W        W75067  32.412  33.565   6.220  0.1054  0.1150  0.0324
32052W        W75068  30.970  13.192   8.542 -0.2053  0.2732 -0.1715
32053W        W75069  30.414  19.117   6.799 -0.2769 -0.2682 -0.1953
32054W        W75070  26.484  17.492   7.110 -0.4228 -0.3917 -0.3556
32055W        W75071  20.861  14.610   0.630  0.1272  0.1090  0.0662
32056W        W75072  28.872  11.675  25.092  0.0831  0.1049  0.4080
32057W        W75073  20.250  27.298   3.116  0.1105 -0.0677  0.0856
32058W        W75074  24.329   6.629   5.806  0.0429 -0.2642 -0.2611
32059W        W75075  24.981  34.547  17.336 -0.0991 -0.0831 -0.0421
32060W        W75076  26.803   1.583   0.668 -0.0384 -0.4953  0.0533
32061W        W75077   5.908  13.199   8.003 -0.3140 -0.1049  0.3604
32062W        W75078  27.363  11.694  19.127 -0.2121 -0.1889 -0.0298
32063W        W75079   2.287   5.628   0.521  0.1003  0.0004  0.1429
32064W        W75080  14.794  25.972   4.592 -0.3851  0.3037 -0.0050
32065W        W75081  30.820  16.507  24.906 -0.2160 -0.2395  0.3692
32066W        W75082  25.328  14.529   6.624 -0.0324 -0.0287 -0.0155
32067W        W75083  23.791   7.327  27.468 -0.1730  0.0616 -0.1638
32068W        W75084  23.432  22.839  19.069 -0.0703  0.0628  0.0553
32069W        W75085  24.668   8.466   8.811 -0.0762 -0.2229 -0.3655
32070W        W75086  34.116   1.721  24.958  0.0381 -0.2058 -0.0772
32071W        W75087  25.423   4.282   7.528 -0.2349 -0.1750  0.0756
32072W        W75088  16.421   5.357  29.233  0.2708 -0.1618 -0.3187
32073W        W75089  20.339   4.185   6.293 -0.0643 -0.1699 -0.2027
32074W        W75090  27.551  17.518  29.187 -0.1730 -0.1911 -0.0350
32075W        W75091  18.811  11.395   5.054 -0.0565  0.3337  0.5920
32076W        W75092  31.896   7.921   7.707 -0.6080 -0.1592 -0.0479
32077W        W75093  31.233   5.878   4.974 -0.1932  0.2481  0.3745
32078W        W75094  27.628  11.365   1.179 -0.1326 -0.3040 -0.2186
32079W        W75095  29.478  12.200  16.838  0.0419 -0.2828 -0.1332
32080W        W75096  25.130  23.234   7.642  0.1377  0.0728 -0.2591
32081W        W75097   2.366  13.014   2.414  0.1288 -0.3761  0.0622
32082W        W75098  25.462  12.341  22.426  0.1901  0.0575  0.1109
32083W        W75099  29.512  10.525   0.975 -0.0817  0.1039 -0.0088
32084W        W75100   0.581   4.424   5.843  0.1280  0.1789  0.0855
32085W        W75101   0.716  32.134  25.140 -0.0653  0.4228 -0.0051
32086W        W75102   5.269  16.416   6.002  0.0089 -0.0078 -0.0074
32087W        W75103   1.208   6.067   4.429  0.2561  0.1428 -0.0336
32088W        W75104  31.073  28.623  27.860  0.4806  0.0373 -0.0285
32089W        W75105   2.418   6.321  26.939 -0.2658  0.1043  0.0913
32090W        W75106  21.359  14.368   4.186  0.0435  0.0275 -0.2530
32091W        W75107   7.886  10.308   8.096 -0.1147  0.2985 -0.2040
32092W        W75108  22.061   5.778   2.141 -0.2756 -0.0876 -0.1248
32093W        W75109  21.462  12.170   2.374 -0.2386  0.2127 -0.0329
32094W        W75110  31.081  15.430   6.504 -0.1295 -0.0765 -0.0519
32095W        W75111  20.160  26.072   2.061 -0.1890  0.0567 -0.0245
32096W        W75112   3.544  21.760   2.357 -0.0667  0.1858  0.1866
32097W        W75113  26.772   5.405  10.199 -0.1058  0.2119 -0.2983
32098W        W75114  22.579  18.363  23.432 -0.0084  0.1318  0.1096
32099W        W75115  22.761   2.870   8.558  0.0946  0.2018  0.0599
32100W        W75116   5.151  11.515  23.082 -0.3222  0.0695 -0.0779
32101W        W75117  28.017  28.989  19.125  0.1159  0.0805  0.1388
32102W        W75118   4.516   7.628  22.459  0.3382  0.0915 -0.0914
32103W        W75119   0.407  14.611  10.591  0.1678  0.3397  0.0768
32104W        W75120  22.778  12.646  24.211 -0.0768 -0.1093  0.0950
32105W        W75121  27.509  24.793   2.131  0.0568 -0.1318  0.2147
32106W        W75122   1.565  16.859   5.790 -0.0551  0.3069  0.0714
32107W        W75123  26.490   5.385   2.874  0.1379  0.2189  0.2491
32108W        W75124   5.491   8.923   0.031  0.1454  0.2852 -0.2372
32109W        W75125  26.986  24.378   6.092  0.0601  0.2059  0.1910
32110W        W75126  23.956  18.503  27.157 -0.1963  0.1085  0.1080
32111W        W75127  14.565  26.941  24.927 -0.1410  0.2607 -0.4990
32112W        W75128  18.338  17.523   3.006 -0.0500  0.0642 -0.1815
32113W        W75129  11.145   4.134   8.917 -0.3488 -0.4008  0.0357
32114W        W75130  29.190  30.910   7.053  0.2960 -0.2708  0.2178
32115W        W75131  17.646  22.860   8.341  0.1834 -0.2213  0.2146
32116W        W75132   6.870  19.672  24.033 -0.1675 -0.2352 -0.0948
32117W        W75133  34.019  15.730   7.479  0.4146  0.0572  0.0755
32118W        W75134  23.735  20.299  17.443  0.1143  0.0723  0.2771
32119W        W75135  34.641  27.405  20.039  0.0992  0.3610 -0.1456
32120W        W75136  23.543   1.270  21.568 -0.2470 -0.0442 -0.3541
32121W        W75137   7.067   4.703  19.303  0.0773  0.2677  0.1646
32122W        W75138  23.259   9.920  17.604 -0.0145 -0.0751  0.2381
32123W        W75139  22.025   2.634   0.510  0.1856  0.2295 -0.0504
32124W        W75140   4.979   3.225  27.551  0.1616  0.0156  0.1604
32125W        W75141  20.652   5.850   9.061 -0.0521  0.0347  0.1054
32126W        W75142  34.258  25.252  21.481 -0.0653  0.0427 -0.2986
32127W        W75143  30.523   7.377  27.709 -0.0707  0.2214  0.2822
32128W        W75144  25.268  13.594  17.815  0.0563  0.2137  0.1396
32129W        W75145  33.321   9.244  28.314  0.1769 -0.0830  0.1831
32130W        W75146   4.191  14.768   7.619  0.2188 -0.4835 -0.1292
32131W        W75147  22.146   9.384  10.003  0.0429 -0.2947  0.0332
32132W        W75148   8.763  13.301  20.950  0.0665  0.2344 -0.0928
32133W        W75149   7.652   7.584   9.970 -0.0933 -0.2692  0.0764
32134W        W75150  24.689  29.950  14.416  0.2267  0.2465 -0.1368
32135W        W75151  20.422   4.458   0.979 -0.2638  0.0381  0.0419
32136W        W75152  33.779  26.341   5.052  0.3327 -0.0261 -0.0355
32137W        W75153  33.814  23.665  24.568  0.0810 -0.0086  0.1846
32138W        W75154  19.413   3.100   2.355 -0.0791  0.1487 -0.3737
32139W        W75155  32.007  13.414  26.154  0.1926 -0.2222 -0.1114
32140W        W75156  26.943  11.099  27.326 -0.1313 -0.0005  0.0041
32141W        W75157  25.029  23.937  24.987 -0.3572  0.2029 -0.2670
32142W        W75158  25.213   3.985  22.323 -0.0933  0.0452  0.0426
32143W        W75159  33.304  14.190   0.571  0.0202  0.1501 -0.1085
32144W        W75160  32.014  24.966   8.737  0.1341  0.0118 -0.1424
32145W        W75161  17.697  25.662  18.767  0.1441  0.3408 -0.1098
32146W        W75162  25.838   3.468   2.965  0.0255  0.0471  0.1820
32147W        W75163  18.428   7.495   9.123  0.0022 -0.3041 -0.3129
32148W        W75164  28.883   3.739   2.289 -0.0978 -0.1153 -0.3637
32149W        W75165  28.565  28.844  27.208  0.2334  0.3383  0.3268
32150W        W75166  17.707  30.744  28.986 -0.0118  0.0514  0.1869
32151W        W75167  28.761  18.702   5.972  0.0360 -0.1175  0.2068
32152W        W75168  25.588  12.662  26.510 -0.3385  0.0173 -0.1873
32153W        W75169  34.628  14.037  25.566  0.1114  0.0222 -0.0495
32154W        W75170  24.618   4.514   6.639 -0.3109  0.1365  0.0849
32155W        W75171   4.331  10.979   7.648  0.2117 -0.1222  0.2498
32156W        W75172  15.463  22.022  28.412  0.0379  0.2042 -0.0415
32157W        W75173  27.093  16.518   6.367  0.2720  0.3256 -0.0896
32158W        W75174  34.417  15.076  24.506 -0.1067  0.1015 -0.1549
32159W        W75175  24.410   8.572  21.296  0.0567 -0.2041  0.0999
32160W        W75176   1.636  26.950   4.822 -0.1006  0.1586 -0.2994
32161W        W75177  26.540  16.117   3.786 -0.0447  0.3519  0.3424
32162W        W75178  24.021  21.334   4.210  0.1280  0.0009  0.0216
32163W        W75179  25.743  13.956   5.759 -0.1532 -0.1210 -0.1875
32164W        W75180  25.631   8.193   9.270  0.3567  0.1511  0.2661
32165W        W75181  24.433   2.735   3.952  0.2008  0.3764  0.2234
32166W        W75182   9.787  29.183   2.231  0.0712 -0.0909  0.0989
32167W        W75183   2.386   5.447  24.344  0.0186  0.2527  0.1706
32168W        W75184  21.231  26.613   5.958 -0.1310 -0.2347  0.0375
32169W        W75185  27.546   3.565  29.294  0.4014 -0.0488  0.3126
32170W        W75186  31.572   9.589   7.768 -0.1505 -0.0718  0.2122
32171W        W75187  31.106  14.592   6.059  0.3606 -0.0780  0.1296
32172W        W75188   4.740  22.969  25.831  0.1560 -0.1245  0.2849
32173W        W75189   0.380  10.675   5.591  0.1680  0.2414 -0.1035
32174W        W75190  22.045  28.533   9.716 -0.0061  0.0729 -0.0669
32175W        W75191   5.067  30.904  26.419  0.5203  0.2852 -0.2772
32176W        W75192   6.952  15.475  23.789  0.1319  0.0645  0.0838
32177W        W75193  29.901   7.762   0.232  0.1610  0.0476  0.1983
32178W        W75194  23.127  11.557  26.145  0.0014  0.0124 -0.4157
32179W        W75195  29.950  10.671  20.950  0.0445 -0.1154  0.2044
32180W        W75196  25.783  27.532  21.012  0.1282 -0.2563  0.0997
32181W        W75197  29.748  28.608   0.350  0.2225  0.1323 -0.1479
32182W        W75198   2.708  32.204  28.695 -0.0059 -0.0233 -0.0355
32183W        W75199  22.760  34.332   5.216 -0.0118 -0.1123 -0.0122
32184W        W75200  34.342   3.975   9.621 -0.1455 -0.1521 -0.1958
32185W        W75201  29.066  16.607  27.362  0.1822  0.0569  0.2007
32186W        W75202  23.413  16.063   6.246 -0.3145  0.0777  0.3943
32187W        W75203  29.967  28.141  19.775 -0.0820 -0.0000 -0.1935
32188W        W75204  19.983  19.107  23.755 -0.0531 -0.1370 -0.0072
32189W        W75205   0.289   5.476  24.205  0.3502 -0.0030  0.0625
32190W        W75206  24.282   4.898  10.142 -0.1111 -0.1254 -0.1820
32191W        W75207  31.936  15.379  19.850 -0.0343  0.1792  0.3611
32192W        W75208  27.306   9.521   8.786 -0.2635  0.3046 -0.3242
32193W        W75209  26.839  17.959   4.632  0.0807 -0.3476 -0.2136
32194W        W75210   5.320  24.423  24.027  0.0629  0.1208  0.0022
32195W        W75211  23.236  27.035  17.361  0.1448 -0.0295 -0.0223
32196W        W75212   5.355   0.219  24.948  0.3968 -0.2089 -0.1292
32197W        W75213  32.333  14.519   2.235  0.1686  0.0605 -0.1623
32198W        W75214  13.933  16.655  23.753  0.0808 -0.1703  0.3103
32199W        W75215  13.240  28.080   6.905  0.0650 -0.0760  0.1959
32200W        W75216  23.181   3.432  28.329 -0.1716 -0.1351  0.0038
32201W        W75217  25.795  14.208   6.424  0.0659  0.4069  0.1120
32202W        W75218   0.080  24.867   0.431 -0.0108 -0.4444 -0.0345
32203W        W75219  33.602  12.407   6.962  0.1666  0.1919 -0.0780
32204W        W75220  27.579   8.633   6.105  0.0654 -0.0427  0.0781
32205W        W75221  30.920  17.707  25.922  0.1933 -0.0680  0.1429
32206W        W75222  28.444  12.636   5.281 -0.0884 -0.1184  0.2748
32207W        W75223  22.483   6.649   5.884 -0.2029  0.1273  0.0154
32208W        W75224  31.849   3.966  23.352 -0.1845  0.0468  0.0286
32209W        W75225   3.344   2.877  21.280 -0.2017 -0.0880 -0.1705
32210W        W75226  25.610  12.279  28.978  0.1792  0.1693  0.0557
32211W        W75227   9.499  29.871  27.423  0.3330 -0.2699  0.1281
32212W        W75228  13.821  26.738   5.466  0.1562 -0.1236  0.2163
32213W        W75229  26.965  29.898  25.992 -0.3645 -0.1422 -0.1807
32214W        W75230   4.276   0.407   2.820 -0.1398 -0.1433  0.0026
32215W        W75231  26.962   1.958   3.466  0.1119 -0.0882  0.2692
32216W        W75232   6.914  27.156  26.024 -0.1014 -0.2214 -0.3017
32217W        W75233  27.212   4.890  25.182  0.0627  0.0009  0.4683
32218W        W75234  30.238  12.071   7.314  0.3160  0.1302  0.1759
32219W        W75235  12.386  15.887   6.508 -0.2351  0.0307  0.4265
32220W        W75236  29.652  19.990   0.926  0.2497 -0.1746  0.0491
32221W        W75237   1.156  20.449   0.513 -0.1600  0.0161 -0.2130
32222W        W75238   0.209   0.980  17.625 -0.4460 -0.0966 -0.1596
32223W        W75239  24.032   7.795   7.279  0.4670 -0.1159 -0.0290
32224W        W75240  29.830  15.130  15.044  0.3226  0.1635 -0.3182
32225W        W75241  19.668   6.996   7.259 -0.2908 -0.2177 -0.5063
32226W        W75242  31.419  13.432  19.562  0.0530  0.1112 -0.2121
32227W        W75243  12.823  32.071   4.317 -0.0017  0.1677 -0.0867
32228W        W75244  22.067  13.610  19.806  0.1424  0.2193 -0.0838
32229W        W75245  25.187  15.347  19.812  0.0603 -0.2928 -0.0640
32230W        W75246  17.466   2.455   3.183 -0.0710 -0.1161  0.1488
32231W        W75247  19.640   6.090   7.282 -0.0056 -0.0597 -0.0381
32232W        W75248  30.415  26.702   4.055 -0.4181  0.0577  0.1463
32233W        W75249   3.151   0.128  23.353  0.0135 -0.0298 -0.0241
32234W        W75250  29.096  10.460  22.846  0.1271 -0.4342 -0.1253
32235W        W75251  12.090  17.039  15.392  0.2309  0.0003  0.1403
32236W        W75252  33.621  31.390  19.178  0.1819 -0.2552  0.1874
32237W        W75253  12.886  16.102   4.966 -0.0697  0.2125  0.1045
32238W        W75254  29.287  17.961  24.346  0.0472 -0.1611 -0.0256
32239W        W75255  32.295  11.567  22.608  0.0950  0.2376 -0.0327
32240W        W75256  11.448  12.838  28.306  0.0873 -0.1407  0.1567
32241W        W75257  13.169   9.664   3.153  0.0438 -0.2774  0.1823
32242W        W75258  17.518  32.899  19.025  0.3675  0.0891  0.2225
32243W        W75259  20.227   5.170   9.370  0.1316  0.1894  0.1459
32244W        W75260  23.293  13.007   2.333 -0.1592 -0.1106  0.0148
32245W        W75261  30.024   9.945   5.969  0.0616 -0.0083 -0.3307
32246W        W75262  19.857   2.687  27.402  0.1185  0.1118  0.3545
32247W        W75263  11.330  32.739   8.154 -0.1974 -0.1373  0.1355
32248W        W75264  32.710   9.036  21.703 -0.0570 -0.2573  0.0723
32249W        W75265   5.751  12.046   2.199 -0.1018  0.1137  0.0082
32250W        W75266  31.578   7.071   1.968 -0.1659 -0.4579  0.0641
32251W        W75267  31.974  17.286  28.674 -0.0388 -0.4456  0.0872
32252W        W75268  17.347   3.564  21.651 -0.0112  0.2473 -0.0499
32253W        W75269  30.120  24.230   0.088  0.0918  0.1644 -0.0328
32254W        W75270  14.326   7.939   3.758  0.0608 -0.0961 -0.0289
32255W        W75271  22.922  21.779   6.309 -0.2820  0.0769 -0.0746
32256W        W75272   4.857  15.844   8.891 -0.3419 -0.0557 -0.1446
32257W        W75273  26.159   5.719   8.080 -0.1004 -0.0727  0.0693
32258W        W75274   9.172  14.872  28.235 -0.0059  0.4665 -0.0398
32259W        W75275   9.498  21.855   5.066  0.1782  0.4112  0.1806
32260W        W75276  29.468  15.827   0.560 -0.3021  0.0641 -0.0743
32261W        W75277  32.127  15.560   3.658  0.1565  0.2684 -0.0349
32262W        W75278  23.939  29.853   5.835  0.0437  0.0252 -0.3540
32263W        W75279   0.562   7.351   1.969  0.3311 -0.1895  0.2382
32264W        W75280  27.431  14.921   6.919 -0.1812 -0.0562  0.0866
32265W        W75281  22.881   6.927   1.772  0.0720  0.2933 -0.3480
32266W        W75282  32.807  15.012   7.376  0.4469 -0.0797  0.1631
32267W        W75283  25.612  18.634   0.455 -0.1628  0.4736 -0.1861
32268W        W75284  16.379  20.077   5.442  0.1783  0.0244 -0.0651
32269W        W75285  21.315  25.671   4.321  0.0586  0.1785  0.0778
32270W        W75286  21.328  26.384  24.171 -0.3392  0.2238 -0.1627
32271W        W75287  23.900  17.511  17.104  0.3944 -0.3034 -0.0616
32272W        W75288   9.429  11.741  26.007  0.0245  0.1416 -0.2374
32273W        W75289  10.558   1.067  16.071  0.3803  0.2056  0.2316
32274W        W75290   8.757  33.547   7.034 -0.0387  0.1883  0.4289
32275W        W75291  25.949  18.965  25.549 -0.0625  0.1123  0.0289
32276W        W75292  31.141   8.908  16.491  0.1353  0.1655 -0.1628
32277W        W75293   6.956  12.748  23.359 -0.0537 -0.1476  0.0090
32278W        W75294  22.251   1.836   3.745 -0.0959 -0.2334 -0.1528
32279W        W75295  34.186  15.841  25.016  0.0947  0.2639 -0.2174
32280W        W75296  28.218  29.562  19.002 -0.4715 -0.1459 -0.2295
32281W        W75297  28.026  27.052  17.576 -0.1830 -0.0504  0.3903
32282W        W75298  11.525  19.484   8.044  0.0031 -0.0648  0.0165
32283W        W75299  32.279  15.117   7.280 -0.1952 -0.0919  0.0815
32284W        W75300   0.400   6.827  19.847  0.1367  0.3482  0.1864
32285W        W75301   6.608  13.357   6.637  0.1264 -0.1437 -0.0119
32286W        W75302  12.865   3.053   5.390 -0.2614  0.0302 -0.1061
32287W        W75303   2.893   6.575  10.134 -0.1883  0.1984 -0.0198
32288W        W75304   2.191  15.723   2.895 -0.0677 -0.1281  0.1503
32289W        W75305   3.687  28.393   2.268  0.1465  0.3362 -0.0398
32290W        W75306  28.830  28.883   5.705  0.0766 -0.1058 -0.0307
32291W        W75307  22.172  16.058  25.541  0.0528  0.2312 -0.1704
32292W        W75308  23.497  12.680   1.860  0.1810  0.0259  0.0362
32293W        W75309  25.981  30.377   2.264 -0.0884  0.0761  0.1573
32294W        W75310  14.810  18.735  24.927  0.1016  0.0366  0.3141
32295W        W75311   2.653   7.178  28.751 -0.1151 -0.1039  0.1668
32296W        W75312  24.249  12.733  29.120  0.4208  0.1553 -0.1578
32297W        W75313  29.738   3.517   4.729  0.1600 -0.1760  0.1086
32298W        W75314  31.708  10.563  15.744 -0.1563  0.0292 -0.0267
32299W        W75315  30.607  24.482  20.865  0.2074  0.3186 -0.0207
32300W        W75316  24.879  25.096  17.263 -0.0117 -0.2588  0.3233
32301W        W75317  33.834  14.937   9.812 -0.1452  0.0769  0.3166
32302W        W75318  18.279  11.322  15.823  0.1016 -0.3230 -0.2271
32303W        W75319  24.118   6.886   1.990  0.1020 -0.1492 -0.1607
32304W        W75320   1.703   9.560   9.651  0.0750 -0.0127 -0.0658
32305W        W75321  26.087  22.775   5.170 -0.0879 -0.0236 -0.1718
32306W        W75322  24.342   5.612   6.972  0.0197  0.0974  0.0727
32307W        W75323  33.331  19.203  26.824 -0.1624 -0.0497  0.1991
32308W        W75324   4.594  28.746   4.317 -0.0795 -0.2092 -0.1688
32309W        W75325  10.254   2.469   0.490 -0.0299 -0.0482 -0.4602
32310W        W75326  27.482  32.347   7.424  0.0299 -0.0819  0.0565
32311W        W75327  24.059  33.399  24.235 -0.2086 -0.2031 -0.0341
32312W        W75328  32.312  13.162   3.419  0.0634  0.0586 -0.0988
32313W        W75329  34.442  18.325   9.267 -0.1515 -0.3133  0.0840
32314W        W75330   1.414  10.020   4.880  0.1920  0.0435 -0.1040
32315W        W75331  21.211  10.956   8.191  0.0613  0.0350  0.4637
32316W        W75332  16.971  15.121  27.867 -0.0938 -0.2240 -0.1281
32317W        W75333   9.095  15.728  20.384  0.0441 -0.0232  0.2518
32318W        W75334  26.824   3.066   7.067 -0.1433  0.1253  0.0586
32319W        W75335  32.078   6.420  26.349  0.1631  0.0112 -0.0664
32320W        W75336   6.274  30.676   1.800  0.0201 -0.0544  0.3777
32321W        W75337  22.160   5.623   0.399  0.1105  0.1862  0.2041
32322W        W75338  23.213   5.400  27.928 -0.0118  0.2483  0.0309
32323W        W75339   7.911  14.247  26.266 -0.1206 -0.0727  0.0323
32324W        W75340   2.681   5.737   7.432  0.2158 -0.1554 -0.0901
32325W        W75341  21.759  32.959  28.459 -0.1768 -0.0555  0.0527
32326W        W75342  22.203   0.760   9.420  0.0284  0.3143 -0.3441
32327W        W75343  15.320   3.558   7.565  0.1951 -0.1135 -0.2082
32328W        W75344  28.702  13.018   8.299 -0.1570  0.0012  0.1765
32329W        W75345  24.007  10.610  25.455  0.0442 -0.2981 -0.2210
32330W        W75346  22.916  18.087  26.525  0.0573  0.3373  0.0342
32331W        W75347  30.087   9.525   9.879  0.0574  0.0818 -0.0116
32332W        W75348   5.637  12.493   5.251 -0.1640 -0.2347 -0.0130
32333W        W75349  18.797  14.560  21.020 -0.0767  0.2257  0.2603
32334W        W75350  31.645   4.627   0.774  0.1273 -0.0889  0.0936
32335W        W75351  19.360   6.103   9.182 -0.2879  0.4012  0.0255
32336W        W75352   2.307  24.161  24.029  0.1669  0.0835  0.1317
32337W        W75353  30.991  23.028   5.442  0.2052 -0.3139  0.2784
32338W        W75354  21.607  28.243  25.560 -0.3193  0.0488 -0.2760
32339W        W75355   3.903   4.723   3.086  0.0845 -0.2071  0.1484
32340W        W75356   0.021  17.110  10.325 -0.0169 -0.2699  0.0259
32341W        W75357  18.037  11.525  26.230 -0.0291  0.1010 -0.0131
32342W        W75358  11.780   6.021   3.136 -0.0247  0.2283  0.3010
32343W        W75359   8.177   5.559   6.219 -0.0284 -0.3882  0.2311
32344W        W75360  34.313   7.925   8.282  0.2338 -0.0416 -0.0924
32345W        W75361  25.817  13.071   3.923  0.0712  0.1257  0.1781
32346W        W75362   0.332  25.604   7.227 -0.1942  0.2924  0.2275
32347W        W75363  17.143  16.642  26.325 -0.0961 -0.0311  0.0206
32348W        W75364  18.144   2.246  10.093  0.2993  0.0811  0.3516
32349W        W75365  14.358  17.513  24.805 -0.1561 -0.0288 -0.1764
32350W        W75366  16.804   9.705   9.678 -0.1388  0.0912  0.0501
32351W        W75367   3.044   5.149   2.870  0.0718  0.3006 -0.4210
32352W        W75368  29.117  30.549   6.590 -0.1377 -0.0128 -0.0792
32353W        W75369  15.388  14.256   3.947 -0.0788 -0.1645  0.0003
32354W        W75370  29.207  21.965   9.252 -0.0183  0.4016 -0.0687
32355W        W75371   7.329  12.652   3.393  0.0304 -0.0262  0.0491
32356W        W75372  23.647   3.561   4.121 -0.2074  0.0615 -0.3093
32357W        W75373   6.524  26.202   1.220 -0.0089  0.0827 -0.0971
32358W        W75374  17.459   5.298   1.477 -0.4218  0.0314 -0.3091
32359W        W75375   0.845   4.509   9.175  0.1781  0.2997  0.0020
32360W        W75376  14.123  13.826  26.178  0.1879 -0.2214  0.0391
32361W        W75377  24.049  14.004  17.880  0.0618  0.1565 -0.3671
32362W        W75378  28.469   6.579   2.217  0.0323 -0.0701  0.1216
32363W        W75379  34.382  11.592  10.472  0.1620 -0.2160 -0.1471
32364W        W75380  28.703  30.860   7.109 -0.0345 -0.1699 -0.0003
32365W        W75381  22.573  28.493  19.174 -0.0568  0.0780  0.1856
32366W        W75382   8.925  11.890   9.735 -0.2144 -0.1185 -0.0860
32367W        W75383  30.899  16.803   5.912 -0.1827  0.0786 -0.1673
32368W        W75384  32.677  27.753  27.679 -0.4291  0.0497 -0.4517
32369W        W75385  29.557  11.633   7.689 -0.0314 -0.1827 -0.1170
32370W        W75386   3.500   3.106  17.534 -0.2698 -0.1911 -0.1906
32371W        W75387   2.960   6.099  26.075  0.2309 -0.2005 -0.1161
32372W        W75388  32.142  13.271  28.963 -0.3799  0.2057 -0.1835
32373W        W75389  25.507  33.257  25.331  0.0391 -0.1962 -0.0630
32374W        W75390  27.331   3.034   7.020  0.1213 -0.1838  0.0208
32375W        W75391   4.891   9.987   0.928  0.2618 -0.1993 -0.0547
32376W        W75392  30.713  31.655   1.549 -0.3078  0.1113  0.0221
32377W        W75393  15.734  11.636   2.963 -0.2159 -0.0333 -0.3143
32378W        W75394   3.995   6.833   9.718 -0.2502  0.1807  0.3155
32379W        W75395  16.829  12.688   6.970 -0.1130 -0.2667  0.0457
32380W        W75396  27.908  19.174   2.453  0.1934  0.0152 -0.2117
32381W        W75397  19.328   1.702   3.000  0.1921 -0.1115  0.0884
32382W        W75398  28.767   9.109  26.822 -0.1032  0.1434  0.2072
32383W        W75399  16.027   6.076   8.789  0.4228  0.1033  0.0634
32384W        W75400  18.503  11.264   7.516  0.1300 -0.0798 -0.0776
32385W        W75401  31.306   3.185   4.712 -0.0509 -0.1576  0.2233
32386W        W75402   4.229  13.154   8.873 -0.2607  0.3478  0.0518
32387W        W75403  21.067  17.878  19.226 -0.1169  0.0305 -0.5227
32388W        W75404  27.790  32.366   8.609 -0.0420 -0.4618  0.3218
32389W        W75405  17.133   1.714  13.745 -0.2149 -0.1144 -0.0544
32390W        W75406   8.556  27.808   0.515  0.1625  0.1422 -0.1216
32391W        W75407  25.326  12.884  26.208  0.1454  0.0350  0.1322
32392W        W75408   2.533  17.144  16.331 -0.1627  0.1326  0.0471
32393W        W75409  26.746  20.261  29.162  0.5037  0.0993  0.0993
32394W        W75410  33.050  33.838  25.129  0.1752 -0.0911  0.2674
32395W        W75411   2.310  34.256   9.458  0.3117 -0.1330 -0.1678
32396W        W75412  27.654  32.895   8.331  0.0490  0.1199  0.0509
32397W        W75413   6.159   1.881   5.866  0.1001  0.2277 -0.1789
32398W        W75414  31.201   4.729  27.463  0.0435  0.2607 -0.0877
32399W        W75415  29.957  31.740   0.882 -0.2490 -0.0997  0.1922
32400W        W75416  22.457  28.694   6.415  0.1181  0.0563  0.1147
32401W        W75417  32.549  21.387  28.258 -0.2380 -0.1195 -0.1551
32402W        W75418  20.457  17.013  24.198 -0.0799 -0.3183 -0.0151
32403W        W75419  19.324  13.564  24.565 -0.2295  0.0030 -0.3613
32404W        W75420   5.394   8.826   7.221  0.1470  0.0340  0.1909
32405W        W75421  33.116  18.484   8.281  0.2034 -0.2031 -0.1417
32406W        W75422  29.242   7.841  10.831  0.0338 -0.1698 -0.5261
32407W        W75423  11.768  25.897  14.298 -0.0407 -0.1426  0.0423
32408W        W75424  33.079   3.779   2.830  0.0764  0.0544  0.1282
32409W        W75425  31.253   7.634   0.426  0.0009 -0.0534  0.0842
32410W        W75426  32.785  18.847   8.350  0.3130  0.1153  0.1583
32411W        W75427  26.957  26.611   2.193  0.1023 -0.1888 -0.0599
32412W        W75428  22.859   0.512  26.185 -0.2148  0.1250 -0.1621
32413W        W75429  18.799  16.549   4.566  0.1437 -0.1380  0.2204
32414W        W75430  24.421  12.545   4.214  0.0579  0.0957  0.0484
32415W        W75431   9.573   4.651  25.165  0.1933 -0.0922 -0.1538
32416W        W75432  27.287   8.435  29.315  0.0735  0.0549  0.1479
32417W        W75433   2.444  21.790   0.912 -0.2856  0.1626  0.0589
32418W        W75434  16.005  11.037  28.446 -0.1659 -0.0676 -0.0790
32419W        W75435  24.584  11.850   3.151  0.3382  0.2548 -0.0586
32420W        W75436  34.272  12.253   0.983  0.3720  0.2146 -0.0385
32421W        W75437  32.835   8.380  28.565  0.1026  0.1417  0.0711
32422W        W75438  10.859  16.882   3.525  0.0612  0.2147 -0.1801
32423W        W75439  25.567  19.412   9.914  0.0975  0.0102  0.5398
32424W        W75440  17.333  33.950   0.694 -0.1042  0.1342  0.0789
32425W        W75441  31.718  18.084   7.825 -0.0282  0.2094  0.1491
32426W        W75442  25.703  32.830  11.129  0.0133 -0.0665  0.4545
32427W        W75443  28.672  22.709   9.288 -0.1971  0.1285  0.1456
32428W        W75444  13.849  19.970   7.661  0.0002 -0.2144 -0.1667
32429W        W75445   4.435   1.525  24.218 -0.0200  0.3743  0.1478
32430W        W75446  23.879   8.884   1.388  0.0320 -0.1085 -0.1092
32431W        W75447  20.868  16.371  23.053  0.0203 -0.0402 -0.0731
32432W        W75448  17.404   5.241   5.177 -0.0019 -0.0020 -0.1027
32433W        W75449  20.001  30.608   7.505 -0.2036 -0.2370 -0.1823
32434W        W75450  25.604  24.297  18.540 -0.2387  0.2105 -0.3901
32435W        W75451  30.404  21.478   9.606 -0.1648 -0.0038 -0.0081
32436W        W75452  31.579   7.060   8.700 -0.6172  0.0966 -0.0161
32437W        W75453   9.855   1.733   4.143 -0.0418  0.1270 -0.3422
32438W        W75454  27.140   7.334   8.612  0.1094  0.2229  0.2446
32439W        W75455  25.585  11.275  24.642 -0.3126  0.2302 -0.2801
32440W        W75456  26.728  34.080  16.736 -0.1699  0.0160  0.1245
32441W        W75457   5.659  30.244   2.033  0.0696  0.1759  0.1502
32442W        W75458  30.189  14.654   4.976  0.2874 -0.0840 -0.0733
32443W        W75459  26.391  15.239  17.022 -0.1323 -0.1805 -0.1498
32444W        W75460  30.824   8.701   8.740  0.2274  0.0062  0.0589
32445W        W75461  10.986   6.222   1.932  0.1676  0.1160 -0.0865
32446W        W75462  27.882  22.968   9.949  0.2404  0.3279 -0.1077
32447W        W75463  15.832  18.072  20.761  0.4426  0.0575  0.0247
32448W        W75464   0.382  29.945   1.037  0.0364  0.0867 -0.1756
32449W        W75465   4.910  12.164  28.720  0.0029 -0.1067  0.1411
32450W        W75466   0.572   9.623   4.802  0.0021 -0.0029  0.0287
32451W        W75467  10.147  18.090   8.318  0.0974 -0.3062  0.1120
32452W        W75468   7.057  14.319   6.307  0.1455  0.2716  0.2477
32453W        W75469   0.433   7.139  28.907  0.1207  0.0457  0.1743
32454W        W75470   4.157  33.274  18.681  0.0026  0.1789 -0.2011
32455W        W75471  15.365  24.708   5.217 -0.1600  0.1987 -0.0400
32456W        W75472  21.036  34.053   5.292 -0.1111  0.3358 -0.3437
32457W        W75473  17.038  28.754  10.101 -0.1169 -0.3300  0.1371
32458W        W75474  29.102  20.835   6.894  0.2095  0.1756  0.0133
32459W        W75475   9.889  20.868  17.545 -0.1154 -0.0127 -0.2961
32460W        W75476  15.089   8.828   2.719 -0.1173  0.0306 -0.0014
32461W        W75477  18.409  17.109   1.450  0.1808  0.1320  0.2422
32462W        W75478   3.796   1.494   3.669 -0.0559 -0.1152 -0.0279
32463W        W75479  26.768  13.667   2.447  0.1308 -0.1614  0.0624
32464W        W75480  15.769  24.678  23.691 -0.4272  0.2590 -0.3813
32465W        W75481  31.505   2.627  26.711 -0.2134 -0.2129  0.1649
32466W        W75482  11.404  33.029  24.928  0.1315 -0.1718 -0.3108
32467W        W75483  25.470   4.812   4.780  0.1921 -0.0162 -0.1649
32468W        W75484  19.534  18.385  28.684  0.1399 -0.1375 -0.1812
32469W        W75485   7.989  25.010   8.230  0.1943 -0.1477 -0.1797
32470W        W75486  31.243  17.653   4.559  0.1436  0.0940  0.0387
32471W        W75487  14.042  30.398  26.153  0.2008 -0.0606  0.0754
32472W        W75488  16.801   0.126   7.631  0.1264 -0.1175  0.0023
32473W        W75489  17.143  17.061  19.206  0.1173  0.1313  0.0320
32474W        W75490  22.121  23.448   7.633 -0.2518  0.0402 -0.3209
32475W        W75491   1.987  14.766  19.800  0.1072  0.1059  0.2337
32476W        W75492  28.775   8.135   7.112 -0.4538 -0.1653 -0.1356
32477W        W75493   3.056  22.599   0.251 -0.1219 -0.0836 -0.0686
32478W        W75494   7.318  10.867   3.909 -0.0082  0.1914  0.2755
32479W        W75495   0.677  33.189  28.036  0.0692  0.6320 -0.0414
32480W        W75496  31.717   8.688  28.189  0.0309  0.3652 -0.2091
32481W        W75497  32.170  11.864   2.473  0.0355  0.0672 -0.0092
32482W        W75498   4.571  24.749   6.186 -0.0173  0.0426 -0.0722
32483W        W75499   2.559   2.568  27.947  0.2192  0.0658 -0.1193
32484W        W75500  29.333  33.122  17.892 -0.0427  0.1062 -0.2102
32485W        W75501  30.950  14.073  28.242 -0.0052  0.0350 -0.0306
32486W        W75502  11.454   8.320   4.468  0.1481 -0.0121 -0.0074
32487W        W75503  31.184   1.642  10.724  0.3006 -0.1415  0.0640
32488W        W75504  28.710  22.451  20.359  0.1895  0.0368 -0.1178
32489W        W75505   4.119  33.805   2.594  0.0055 -0.0949  0.1719
32490W        W75506  32.650  20.296   7.281  0.0551 -0.2172  0.1102
32491W        W75507  10.100  20.114   3.825 -0.0162 -0.0572 -0.1054
32492W        W75508  26.070  15.380   3.544  0.0271  0.0985  0.1340
32493W        W75509   3.558  13.247  28.118 -0.2805 -0.1753  0.3300
32494W        W75510   1.910   5.014  10.564  0.1999  0.1489  0.0506
32495W        W75511  29.037  14.099   3.606  0.3674  0.0474 -0.0923
32496W        W75512  29.610  34.679  28.476 -0.0807 -0.1306 -0.3639
32497W        W75513  28.306  13.746   8.244 -0.2152  0.3245 -0.0512
32498W        W75514  26.358   0.318  22.567 -0.1442 -0.1272  0.4426
32499W        W75515  32.012  13.049   9.904  0.0235  0.0337 -0.0742
32500W        W75516  28.033   9.820  29.091  0.2531 -0.0600  0.0197
32501W        W75517  29.797   7.708  26.877  0.0412  0.2412  0.1617
32502W        W75518   2.856  15.391   1.973  0.0001 -0.3693 -0.0765
32503W        W75519  17.064  13.299  27.041  0.3909  0.2237 -0.0859
32504W        W75520  26.444  24.024  26.345 -0.0513 -0.0660 -0.0598
32505W        W75521   0.785  11.706   3.734 -0.0057  0.1171  0.1398
32506W        W75522   7.897  24.821  25.522 -0.0093 -0.2556 -0.0542
32507W        W75523  34.212   7.340   5.935  0.3113  0.2037 -0.1740
32508W        W75524  31.889   4.151   0.820  0.1490 -0.0966  0.2037
32509W        W75525   7.060  11.570  25.807  0.1269  0.0603  0.3982
32510W        W75526   2.810  14.124  22.698  0.5777 -0.0469 -0.0627
32511W        W75527  16.960  19.590   2.720 -0.2159 -0.0749  0.1562
32512W        W75528  32.556  12.947   1.161  0.1169 -0.2489  0.0039
32513W        W75529  17.781  19.683   8.689 -0.3895 -0.0122  0.2076
32514W        W75530   6.374  32.600   0.389  0.1582 -0.1608 -0.0700
32515W        W75531  20.602  25.759   1.567  0.1236 -0.2402 -0.2691
32516W        W75532  28.535   1.983   4.104  0.1145  0.2365  0.0140
32517W        W75533   8.688  10.794  26.653 -0.1765 -0.2380  0.4707
32518W        W75534  30.939   5.655   8.932  0.0917  0.2475 -0.0657
32519W        W75535   9.308   7.583  14.056  0.0095  0.0982  0.2632
32520W        W75536  19.184  13.344   5.413  0.3777  0.0419 -0.0207
32521W        W75537  29.002  18.895  10.985  0.0015  0.1453 -0.0435
32522W        W75538   0.038   5.332   6.357  0.2259 -0.5084 -0.0573
32523W        W75539  32.774  16.224  24.469 -0.3759 -0.3519 -0.0557
32524W        W75540  25.059  31.964  24.383 -0.1840 -0.2012 -0.2118
32525W        W75541  18.867  18.516   0.692  0.6311  0.0641 -0.1290
32526W        W75542  32.916  25.251  20.985 -0.1057 -0.1487  0.1145
32527W        W75543  27.548  14.176   6.424 -0.2541 -0.1359 -0.1704
32528W        W75544  34.392  14.072   7.071  0.1220  0.2245 -0.1188
32529W        W75545  24.157  11.154  26.691  0.1325 -0.2633  0.2087
32530W        W75546  14.638  13.164  15.144  0.4161 -0.2526 -0.1307
32531W        W75547  11.348   5.776   3.328 -0.0755 -0.0137 -0.3168
32532W        W75548  28.803  10.287   5.999 -0.1307  0.0615  0.0834
32533W        W75549   2.596   1.688   0.211 -0.1163  0.1135  0.1131
32534W        W75550  28.799  10.446  18.947  0.0222 -0.0309  0.2047
32535W        W75551   6.854  14.110   8.016  0.0189  0.1151 -0.2599
32536W        W75552  22.157  27.948   9.204 -0.2101  0.3272 -0.0031
32537W        W75553  13.854   3.543   4.525  0.3116 -0.0188 -0.1638
32538W        W75554   0.001  12.307  29.047  0.2975  0.1853 -0.1667
32539W        W75555  15.824  33.179  11.233 -0.0238  0.4248 -0.0666
32540W        W75556  16.984  32.198  27.270  0.0151 -0.2908 -0.0999
32541W        W75557  32.072  24.971  26.330  0.2967 -0.1819  0.0781
32542W        W75558  12.912  17.656  24.722 -0.2677  0.0444 -0.0472
32543W        W75559  30.554   2.308  10.856 -0.4124  0.1216 -0.1342
32544W        W75560  22.167   4.432  24.330  0.1767  0.1042 -0.4724
32545W        W75561  32.394   9.649   4.222  0.1167  0.1851 -0.1466
32546W        W75562  16.330  33.284  18.418 -0.0616 -0.1520 -0.0872
32547W        W75563   2.554   5.702  28.009  0.2176  0.1797  0.1113
32548W        W75564   0.075   1.639   2.911  0.0360 -0.0820  0.0995
32549W        W75565   3.545   7.368   0.387  0.1487  0.3215 -0.0590
32550W        W75566   4.870  14.495   4.475  0.0097 -0.1321 -0.0247
32551W        W75567  22.994  10.362  19.333  0.2259 -0.1311  0.2390
32552W        W75568  18.311  32.540  22.071  0.1198  0.0762 -0.3103
32553W        W75569   2.919   9.413  19.331 -0.1455  0.2892 -0.1831
32554W        W75570  31.018  34.296   5.211  0.2669  0.3167  0.1523
32555W        W75571   1.373  25.058  27.567  0.1356 -0.2336 -0.2943
32556W        W75572  21.234   7.751  28.126 -0.0657 -0.1796  0.0304
32557W        W75573  32.639   5.611  23.436 -0.3207  0.0617 -0.0908
32558W        W75574  30.966  20.726   3.669 -0.0621 -0.0169  0.2100
32559W        W75575  13.299  15.650   1.326 -0.0545  0.0568 -0.0482
32560W        W75576  15.628  34.589  25.581 -0.1157 -0.1025 -0.0596
32561W        W75577  21.066  11.464  23.908 -0.0692  0.3473  0.2068
32562W        W75578  31.713   4.410   5.724  0.0544 -0.2324 -0.1675
32563W        W75579  31.153  23.021   3.846 -0.1581  0.0398  0.1520
32564W        W75580   5.334  18.933   2.120 -0.1841 -0.2331  0.1805
32565W        W75581  26.933  25.395   2.502  0.1579 -0.0861  0.1628
32566W        W75582  24.551  11.525  20.544  0.0037  0.0053 -0.1788
32567W        W75583  23.753   3.158  10.619  0.1197  0.4057  0.2806
32568W        W75584   1.545  17.144   3.530  0.0260  0.3269 -0.2326
32569W        W75585   0.026   2.856  18.930 -0.0687  0.1162 -0.1669
32570W        W75586  16.973  18.690   7.525 -0.2093 -0.2017  0.0075
32571W        W75587  12.496  32.058   8.764 -0.0531  0.0502 -0.1362
32572W        W75588   7.678  19.233  26.196 -0.1820  0.1556 -0.0148
32573W        W75589  21.131  16.526   5.583  0.0978 -0.0888  0.2218
32574W        W75590  26.953  13.284   3.330 -0.4353 -0.0421  0.0421
32575W        W75591  15.924  30.048   9.728  0.0189  0.0611  0.2276
32576W        W75592   8.912  16.887   5.579 -0.0308 -0.0896  0.0321
32577W        W75593  27.277  29.892   7.925  0.1404 -0.3545 -0.0181
32578W        W75594  28.279   9.589   6.590 -0.1716 -0.1988  0.3865
32579W        W75595  28.408  23.943   3.689  0.2585 -0.1378 -0.0140
32580W        W75596  20.504  14.333  15.134  0.2981 -0.3171  0.0268
32581W        W75597  18.124  33.476  10.347 -0.1105 -0.0254 -0.1141
32582W        W75598  30.006  15.487   9.388  0.1940 -0.1665  0.2914
32583W        W75599   8.859   2.550   4.097  0.4883 -0.0419 -0.1318
32584W        W75600  24.694  19.231   4.578 -0.1806  0.1597  0.1827
32585W        W75601   3.610  34.476  28.349 -0.0696 -0.0751  0.2526
32586W        W75602  23.014  11.850   7.341 -0.1632 -0.0361 -0.0504
32587W        W75603  29.036   7.936   2.972 -0.0865 -0.1289 -0.0101
32588W        W75604  20.966  15.780  21.426 -0.0864  0.0364  0.0950
32589W        W75605  30.289  10.158  19.126 -0.5031 -0.1598  0.0966
32590W        W75606  24.594   3.656  23.531 -0.1820 -0.0042 -0.0429
32591W        W75607  15.764  31.956   8.056  0.2389 -0.0942  0.1328
32592W        W75608  26.855   8.647   9.796 -0.1194  0.0501  0.0223
32593W        W75609  31.977   8.683  10.294  0.1744 -0.2341  0.3148
32594W        W75610  13.725   5.575   7.579 -0.0316 -0.1507  0.0077
32595W        W75611  23.200  13.250  28.313 -0.1905 -0.0560  0.1149
32596W        W75612  14.556  12.563   3.979 -0.1497  0.0031  0.1252
32597W        W75613  18.444  30.411   8.229  0.0278  0.3567  0.2132
32598W        W75614  25.176  17.493   1.305  0.2775 -0.0327  0.1583
32599W        W75615  28.189  23.253   5.575  0.0400 -0.0749 -0.2204
32600W        W75616  22.451  32.711  28.055  0.0811  0.0390  0.3619
32601W        W75617  26.755  18.992  10.190  0.0998  0.1607  0.0037
32602W        W75618  28.665  21.609   0.992 -0.1958  0.0305  0.1923
32603W        W75619  26.146   0.457   0.790 -0.0602 -0.0885 -0.1175
32604W        W75620  34.153   8.720   6.447  0.1381 -0.0756  0.1328
32605W        W75621   2.148  20.414  25.752  0.0075 -0.0408  0.0801
32606W        W75622  16.400  22.253   5.180  0.0144  0.1151  0.1573
32607W        W75623   0.394   5.162   5.145 -0.3302 -0.0575  0.0334
32608W        W75624  28.091  34.411  21.754 -0.1772 -0.1487 -0.0462
32609W        W75625  21.441  31.807   4.969  0.3436  0.0401 -0.1874
32610W        W75626  25.093  28.681   7.466  0.0410  0.0107  0.3385
32611W        W75627  16.127   1.007   5.876  0.0568 -0.2405 -0.3576
32612W        W75628  24.817   0.606  27.169 -0.0370 -0.0786 -0.2260
32613W        W75629  19.878   7.945   5.367  0.1173 -0.0543  0.0306
32614W        W75630  19.474  15.960   3.892  0.0218  0.0483 -0.2726
32615W        W75631  16.148   6.592   3.842  0.0196 -0.0514  0.0099
32616W        W75632  25.897  16.244  25.977 -0.1515  0.0620  0.5631
32617W        W75633  24.395  33.757   7.748  0.3594 -0.0149  0.2606
32618W        W75634  26.460  24.058   4.508  0.0471 -0.0525 -0.0074
32619W        W75635  27.918  26.139   0.976 -0.0478  0.1691  0.4839
32620W        W75636   0.169   4.313  26.638 -0.0321  0.2375 -0.1003
32621W        W75637   6.927   7.073   9.431 -0.1597 -0.2118  0.0535
32622W        W75638  17.486  11.858   6.095  0.1010  0.2575 -0.1407
32623W        W75639  24.983  20.510  16.861 -0.0424 -0.1690  0.1104
32624W        W75640  28.913   2.903  28.284 -0.0528  0.0402 -0.1460
32625W        W75641  18.153  16.041  24.831 -0.3072 -0.2689  0.0055
32626W        W75642  25.781  22.783   4.059  0.2473 -0.0631 -0.2262
32627W        W75643  30.020  11.788   7.791 -0.1723 -0.0110 -0.2234
32628W        W75644  26.757  16.158   6.348  0.2701 -0.1117 -0.2707
32629W        W75645  10.649  14.780  27.449  0.1740  0.1006  0.0255
32630W        W75646  25.083  12.839   4.685  0.1718  0.0310 -0.0578
32631W        W75647  26.324  15.431  26.044 -0.0152 -0.3775 -0.2159
32632W        W75648   2.617  10.837   6.751  0.1103  0.1980  0.0935
32633W        W75649  24.722  11.033  10.122  0.0077  0.0965  0.0368
32634W        W75650  29.997  16.680  28.006  0.1228  0.2538  0.2685
32635W        W75651  12.796  31.718  15.564 -0.0942  0.1411  0.1737
32636W        W75652  18.092   0.667  27.951  0.1044 -0.0745  0.2117
32637W        W75653  29.647  13.251   7.929  0.0160  0.0238  0.2175
32638W        W75654   6.239   7.952   1.133 -0.1851  0.1068 -0.0586
32639W        W75655  19.009  21.077   7.033 -0.1168  0.1564 -0.1465
32640W        W75656  33.748  12.868   6.595  0.1554 -0.0353 -0.1702
32641W        W75657  30.764  16.109   7.713  0.0344  0.0699 -0.0578
32642W        W75658  17.544  12.532   2.935 -0.2071 -0.3271 -0.0718
32643W        W75659  13.297  30.838  25.957 -0.0614 -0.2398  0.3533
32644W        W75660  25.785  17.450   8.914  0.0181  0.2829 -0.0294
32645W        W75661   4.566  11.072   1.673  0.0507  0.0798 -0.1440
32646W        W75662   9.680   8.747  19.109  0.0154 -0.1866 -0.0883
32647W        W75663  32.770   9.456   3.946  0.0485  0.2827 -0.0391
32648W        W75664  34.671  19.813   2.496 -0.1484  0.2042 -0.1298
32649W        W75665  19.653   9.236  28.997 -0.0436 -0.0135 -0.2760
32650W        W75666  17.888   1.430  28.867 -0.1243  0.3526  0.0913
32651W        W75667  31.227   6.345   7.661 -0.0518  0.1217 -0.0632
32652W        W75668  16.738  12.177  23.983  0.1783  0.1424  0.1333
32653W        W75669  30.728   4.946   2.526  0.2405  0.0951  0.0292
32654W        W75670  27.159   8.272  10.874  0.1107 -0.3381 -0.2174
32655W        W75671  34.508  33.999  10.034  0.0799  0.1448  0.1235
32656W        W75672  14.932   7.397  25.763  0.1486  0.3027 -0.0068
32657W        W75673   4.707  22.948   2.916 -0.0681 -0.2420  0.0732
32658W        W75674  17.774   1.908   9.372  0.1808  0.1455 -0.0087
32659W        W75675  27.795   5.606  24.287  0.0851 -0.2410 -0.0407
32660W        W75676  19.981   8.601  28.555  0.2888 -0.0431  0.1798
32661W        W75677  21.304   7.909   3.513  0.0521  0.0904  0.0125
32662W        W75678  25.875  25.927  28.526 -0.0347  0.0032 -0.2203
32663W        W75679  20.253   0.667   7.289  0.1137 -0.2570 -0.3012
32664W        W75680  34.669   8.418   7.731 -0.0276  0.4103 -0.2127
32665W        W75681  14.930  30.444   7.946  0.0918 -0.0173  0.3244
32666W        W75682  26.786   7.697   5.382 -0.1398 -0.2829 -0.0703
32667W        W75683  26.702  31.281  26.789  0.1249  0.0102  0.0438
32668W        W75684  23.652   0.686   5.612  0.2946 -0.3302 -0.1951
32669W        W75685  18.471   9.567   7.409  0.1271  0.1686 -0.3484
32670W        W75686  11.953   6.536  27.903  0.2402 -0.2570  0.6884
32671W        W75687  11.749  16.218   7.770  0.0864  0.0063 -0.2420
32672W        W75688  10.408   7.981   9.378 -0.1453  0.0205 -0.2733
32673W        W75689  26.745  34.211  11.011 -0.0075  0.2672  0.2465
32674W        W75690  16.701  15.596   6.336 -0.0604  0.0065 -0.0586
32675W        W75691   0.406  33.033   3.049  0.2980  0.2079  0.0660
32676W        W75692  22.449   6.849   8.871  0.5899  0.2512  0.0901
32677W        W75693  19.250  15.644  19.217  0.0817  0.1827  0.1081
32678W        W75694  28.933  17.410  18.031 -0.1063 -0.0954  0.0335
32679W        W75695  22.275  22.251   7.354 -0.0428 -0.3533 -0.1041
32680W        W75696  31.386  15.037  27.483 -0.2929  0.0691  0.1413
32681W        W75697  34.527   9.625  28.238 -0.0217  0.0842  0.0922
32682W        W75698  31.058  15.232  24.508  0.2592  0.2459  0.0714
32683W        W75699   2.051   2.229   9.489  0.1414 -0.0287  0.0472
32684W        W75700   2.983  19.815   3.182 -0.1913 -0.2042 -0.1591
32685W        W75701  34.194  10.092   6.154  0.0189 -0.4432  0.0581
32686W        W75702  25.053  12.243  25.625 -0.1666  0.0658  0.0819
32687W        W75703   0.466  22.976   6.002  0.1295  0.2910  0.3803
32688W        W75704  20.689   3.801  25.034 -0.2573 -0.0243  0.1878
32689W        W75705   2.142  21.753  22.997 -0.2158 -0.2963  0.0754
32690W        W75706  22.070  10.865  19.909 -0.1035 -0.3031  0.1816
32691W        W75707   7.213   7.942   3.381 -0.0935 -0.0649  0.2613
32692W        W75708  32.276   6.300  27.233 -0.1488 -0.1175  0.1662
32693W        W75709  21.496  32.247   3.900  0.1488 -0.0665  0.1030
32694W        W75710  26.560  15.538  15.549 -0.0695  0.0658 -0.2179
32695W        W75711  24.598   0.547  10.658  0.0464 -0.4199 -0.2816
32696W        W75712  24.502   2.180  22.519 -0.2382  0.3772  0.3189
32697W        W75713  26.305  31.047   4.469 -0.1721 -0.0156 -0.1700
32698W        W75714  32.896  10.625   7.743  0.2275 -0.3326  0.1365
32699W        W75715  19.646  17.809  21.416 -0.2321 -0.1525  0.0346
32700W        W75716  31.073   2.221   2.495  0.1638 -0.0648 -0.0468
32701W        W75717  27.229  17.275   7.474 -0.1366  0.0073 -0.2288
32702W        W75718  13.599  22.355   5.182 -0.0726  0.1029  0.2873
32703W        W75719  29.061   7.443   2.835 -0.2008  0.1246 -0.0024
32704W        W75720  30.718   6.762   4.545  0.0997 -0.2746  0.1945
32705W        W75721  23.882  14.409   6.942  0.1566  0.0364  0.0135
32706W        W75722  26.036   4.454  27.812  0.0419 -0.2049  0.3590
32707W        W75723  26.002  10.352   9.481 -0.1226  0.1322 -0.0272
32708W        W75724   1.693  15.058   9.418  0.0089  0.0528 -0.0793
32709W        W75725   5.516   6.739   5.642  0.2410  0.1291  0.1135
32710W        W75726  19.876   0.906   3.541 -0.2814  0.0539  0.3963
32711W        W75727  16.876  21.960   1.288 -0.0851 -0.0021 -0.3778
32712W        W75728  26.301  29.118   1.161  0.5127  0.1000  0.1423
32713W        W75729  19.412   3.982  24.117 -0.0810 -0.0176  0.0897
32714W        W75730  20.561   6.056   6.324 -0.2932  0.0698 -0.1184
32715W        W75731  32.028   4.690   6.544  0.2688 -0.1378  0.0434
32716W        W75732  15.575   8.531   3.068 -0.1771  0.0022 -0.4041
32717W        W75733   1.394  10.300   7.678  0.0173  0.1035 -0.1544
32718W        W75734  16.087  15.639   5.140  0.1357 -0.0708  0.1483
32719W        W75735  32.021   2.301   9.132 -0.0639  0.0719  0.0359
32720W        W75736  18.534  17.124  24.783  0.1211  0.1692  0.0083
32721W        W75737  28.386  31.269  25.775 -0.1436  0.1747  0.1557
32722W        W75738  32.648  17.663  10.047 -0.0479 -0.0046 -0.0392
32723W        W75739  28.279  11.483   4.641  0.2239  0.3445 -0.1966
32724W        W75740  19.385  33.314   2.665  0.1706  0.0204  0.0081
32725W        W75741  19.723  12.004   1.809  0.2672 -0.0673  0.2241
32726W        W75742  30.841  16.106  28.756  0.1948 -0.3931  0.1101
32727W        W75743  27.685   2.252   6.982  0.2089  0.4929 -0.0388
32728W        W75744  21.307   8.088   1.171 -0.0715 -0.3718 -0.1469
32729W        W75745  25.748  27.614  23.440  0.0518 -0.0747 -0.2723
32730W        W75746  31.553  21.340  10.681 -0.1670 -0.2697  0.4176
32731W        W75747  28.602  14.600   9.182  0.0677  0.1001 -0.0732
32732W        W75748  17.860  13.908  28.151 -0.0058  0.0017  0.2985
32733W        W75749   2.066  13.696   1.439 -0.0543  0.1507  0.0973
32734W        W75750  14.007   5.954  28.032 -0.0676 -0.1041  0.2100
32735W        W75751   9.183  13.555  27.531  0.0330 -0.2059  0.1353
32736W        W75752  33.299  13.641   7.530  0.0988  0.1211  0.2840
32737W        W75753  18.842  34.474  10.055 -0.0829  0.0435  0.0669
32738W        W75754  27.583   0.239  27.221  0.3992  0.2864  0.0617
32739W        W75755  30.340  10.127   4.183 -0.3483  0.2870  0.0963
32740W        W75756  29.753   6.067  26.751  0.0783  0.4096  0.2488
32741W        W75757  26.116  11.942   5.339 -0.2013  0.1023 -0.1780
32742W        W75758   0.429  19.597  17.416 -0.0948 -0.0522 -0.3150
32743W        W75759  11.497  19.003   5.282 -0.1821  0.1269  0.1161
32744W        W75760  27.518  19.754  19.522 -0.0677  0.1071 -0.3354
32745W        W75761  17.946   6.756  25.858 -0.0542  0.1907 -0.0552
32746W        W75762  26.340  29.579  11.222  0.0522  0.0815  0.1349
32747W        W75763   0.867   9.951   9.301 -0.2844 -0.0112 -0.1707
32748W        W75764  25.428   0.173  10.957  0.1135 -0.0123  0.1230
32749W        W75765  32.317  19.807  18.607  0.2369 -0.0092 -0.0214
32750W        W75766  18.687  12.303   9.208 -0.2664  0.0738 -0.1204
32751W        W75767   9.752   6.388  29.294  0.2456 -0.1100  0.0667
32752W        W75768  26.477  13.184  29.092  0.1158  0.3355 -0.2419
32753W        W75769  24.483   6.861  26.175  0.2862 -0.1666 -0.3708
32754W        W75770  29.755  25.324   2.076  0.0578 -0.5001 -0.0549
32755W        W75771  19.586  15.567   9.061 -0.0517  0.0431 -0.0296
32756W        W75772  31.479   4.531  10.871 -0.1954  0.0753 -0.0515
32757W        W75773  27.748   3.669   8.799  0.1781 -0.3723  0.0915
32758W        W75774  33.167  11.444  10.169 -0.1797 -0.0827  0.0102
32759W        W75775  20.930   5.325   7.485  0.1402 -0.0715  0.0437
32760W        W75776  26.622   5.747   2.525  0.0980 -0.0065  0.0502
32761W        W75777  21.362   9.332  28.883  0.0923  0.1757 -0.0236
32762W        W75778  29.373  18.223   9.164  0.1079  0.3916  0.1532
32763W        W75779  25.214   0.867   9.431 -0.1797 -0.0760  0.0142
32764W        W75780  22.662   6.917  28.090 -0.2977 -0.4486 -0.0986
32765W        W75781  24.515  32.602   4.826  0.0538 -0.1238  0.2074
32766W        W75782  19.717  15.255   2.763  0.1371  0.2970  0.3337
32767W        W75783  12.215  17.162   4.917  0.1990  0.2952 -0.0352
32768W        W75784  19.591   5.777  26.085  0.0317  0.1415 -0.0431
32769W        W75785  30.320   9.264   4.660 -0.1192  0.2162  0.1705
32770W        W75786  28.144  22.311   0.011  0.4260  0.0257  0.1465
32771W        W75787   7.703   3.917   4.517 -0.0014 -0.1434 -0.2050
32772W        W75788  32.676  14.769   1.056  0.2319 -0.1158  0.2321
32773W        W75789  21.133   6.629   0.371 -0.5565  0.0384 -0.4447
32774W        W75790  28.950  32.056   2.656  0.2263  0.1932  0.1789
32775W        W75791  26.438   2.699  19.511  0.1658 -0.0176  0.0252
32776W        W75792   3.728  12.504   6.014  0.0187 -0.1043  0.1458
32777W        W75793  32.458   7.609  10.567 -0.0383  0.1052 -0.2057
32778W        W75794  10.198   8.261  25.552  0.2201  0.0650 -0.2727
32779W        W75795  11.626  30.144   0.614  0.1132 -0.0405 -0.1597
32780W        W75796  30.156   2.852  24.688 -0.0204  0.2141  0.1608
32781W        W75797   1.358  18.594   1.601 -0.6050  0.2269  0.2648
32782W        W75798  18.224  10.027   7.363  0.0371  0.1332  0.3260
32783W        W75799  28.806  10.148  24.905 -0.1803  0.1430 -0.2305
32784W        W75800  30.923  19.219   2.920  0.1310  0.1728  0.0340
32785W        W75801  32.326   9.330   6.785  0.1110  0.0613  0.5097
32786W        W75802  21.315  15.420  15.637 -0.1453  0.3966  0.1778
32787W        W75803  30.157   6.747   9.211  0.0348  0.0769  0.2325
32788W        W75804  21.354   8.375   7.179 -0.0592  0.1669  0.1367
32789W        W75805   5.406   4.895  23.401  0.1234 -0.1570 -0.1959
32790W        W75806   8.245  15.503   9.070  0.2344  0.0082  0.0864
32791W        W75807  33.054   1.085  10.495 -0.1898 -0.0161 -0.1127
32792W        W75808  33.554  15.679   6.039 -0.1132 -0.0579 -0.3087
32793W        W75809  30.140   4.770  11.002  0.1043 -0.1285 -0.1992
32794W        W75810   3.937  10.549   4.332 -0.0668  0.0218 -0.1924
32795W        W75811  30.303   7.066  25.380 -0.2522 -0.1166  0.3280
32796W        W75812  26.447  12.250   5.778 -0.0347 -0.1699  0.2393
32797W        W75813  21.466  28.790  10.629  0.1114 -0.0872  0.4066
32798W        W75814  20.165   6.465  20.131 -0.0060  0.3239  0.0429
32799W        W75815   5.046   2.891   4.939  0.2200  0.3774  0.1349
32800W        W75816  25.997   2.693  10.672 -0.0213 -0.4041  0.0727
32801W        W75817   5.067  18.026   8.582  0.0746 -0.0278 -0.1652
32802W        W75818   1.290  16.782  20.552  0.2294 -0.0762 -0.1048
32803W        W75819   4.200  27.567   4.627 -0.1447  0.1496  0.1029
32804W        W75820   2.187  13.090   6.176 -0.0093 -0.1466  0.2829
32805W        W75821  22.539   4.089  10.085  0.4168  0.0722  0.1931
32806W        W75822   3.594   9.014   3.330 -0.2535  0.0235  0.3015
32807W        W75823  18.936  11.141   4.113  0.1733  0.0730 -0.1762
32808W        W75824  32.619  25.578   1.269  0.1066  0.1995  0.1675
32809W        W75825  21.190  10.172   2.931 -0.2398 -0.0436 -0.1266
32810W        W75826  33.076   0.301   7.640  0.0972 -0.0909 -0.0256
32811W        W75827  34.617   3.821   3.501  0.1840  0.0176 -0.1456
32812W        W75828  32.709  13.887   5.580 -0.0438 -0.0167 -0.4269
32813W        W75829  25.937  16.530  14.305 -0.0395 -0.2343  0.2156
32814W        W75830   1.326   0.229   6.781 -0.0996  0.0739 -0.0282
32815W        W75831   9.041   0.499   8.452  0.1179  0.1567 -0.1591
32816W        W75832  26.714   0.845   3.549  0.2358 -0.2710  0.3263
32817W        W75833  10.577   5.471  25.770 -0.3658  0.0168 -0.2887
32818W        W75834  27.450  32.560  23.138 -0.0418 -0.1264 -0.1848
32819W        W75835  13.781  10.701   7.448 -0.1592 -0.1652 -0.0811
32820W        W75836   4.091   2.741   5.528  0.2078  0.1659  0.1484
32821W        W75837  23.338  17.669   0.495  0.0774  0.2171  0.0231
32822W        W75838  24.534   3.214  29.198  0.0960  0.0492 -0.0417
32823W        W75839  16.275  14.834  22.311  0.1344 -0.1692 -0.0449
32824W        W75840  27.009   2.997  17.285  0.0469  0.2545  0.2991
32825W        W75841  32.179  17.609   9.253 -0.0966 -0.0756  0.0121
32826W        W75842  15.152  25.001   7.364  0.0131  0.1117  0.0708
32827W        W75843   9.330  12.985   8.484  0.0861 -0.1931  0.0241
32828W        W75844  15.475  27.316   2.271  0.0390 -0.1734 -0.1415
32829W        W75845  18.710   2.220   7.002  0.2306 -0.1527  0.1167
32830W        W75846   2.180  14.702   9.973  0.0093  0.0866 -0.2212
32831W        W75847  20.400  18.125   8.698 -0.1828 -0.0828  0.0491
32832W        W75848   5.558  14.124  27.870  0.0526 -0.0047  0.0334
32833W        W75849   0.146   3.615   6.822 -0.0214 -0.1450 -0.0313
32834W        W75850  31.139   1.194   3.439 -0.2202 -0.2990 -0.0401
32835W        W75851   1.160   6.400   6.546  0.4058 -0.0589 -0.0576
32836W        W75852  22.904  15.348   4.700  0.1558  0.0064  0.1519
32837W        W75853  30.408  17.536   8.735 -0.0865  0.0229  0.0095
32838W        W75854  23.537  17.002   8.220 -0.1133  0.0370  0.0580
32839W        W75855  21.535  12.983   1.542 -0.1955 -0.0566 -0.1590
32840W        W75856  32.044  11.146   8.979 -0.0562  0.2171 -0.1184
32841W        W75857  22.729  12.855   0.810 -0.0399 -0.0286  0.1178
32842W        W75858   3.802   8.753   1.398  0.0996  0.1049 -0.0750
32843W        W75859  30.350   7.005   4.826 -0.0748  0.0593 -0.0226
32844W        W75860  15.291  17.099   6.094 -0.0773 -0.2626  0.0908
32845W        W75861  16.997  10.935   2.160 -0.0472  0.1478  0.0237
32846W        W75862   0.417   5.694  28.692  0.1329  0.0597 -0.1537
32847W        W75863  23.218  15.819   1.840  0.3233  0.2302 -0.1138
32848W        W75864   3.553  16.074   0.297  0.0920  0.0843  0.0210
32849W        W75865  26.119  17.166  27.696  0.1764  0.0244 -0.2324
32850W        W75866  27.236  27.354   2.801 -0.0967 -0.1193  0.1476
32851W        W75867  27.829  19.174   5.166  0.0386 -0.2096  0.0450
32852W        W75868  10.910  12.430   5.088  0.0146 -0.0110  0.1215
32853W        W75869  29.346  11.811  25.249  0.1640 -0.0841 -0.0063
32854W        W75870  32.462  21.023   5.336 -0.1294  0.0749 -0.0947
32855W        W75871  14.857  17.543   4.533  0.2147  0.0175  0.0725
32856W        W75872   2.931  31.103   9.371 -0.2253 -0.0158 -0.1703
32857W        W75873   2.754  16.015   4.277 -0.2334 -0.1689  0.0826
32858W        W75874   5.187  22.133   9.039 -0.1258  0.0728 -0.1184
32859W        W75875  25.942   5.751   9.924 -0.0445  0.0724  0.0814
32860W        W75876  17.558  11.490  23.371  0.3323  0.1099  0.2604
32861W        W75877  19.136   4.733   4.520  0.1287  0.3058  0.2275
32862W        W75878  31.364   9.749  26.975 -0.1151 -0.1976  0.1290
32863W        W75879   9.450   6.331   6.724 -0.1553 -0.0598 -0.0162
32864W        W75880  19.335  18.188   5.863 -0.1724  0.1430  0.1339
32865W        W75881  25.255   2.148   7.886  0.1625  0.0943  0.1467
32866W        W75882  27.320  16.735   9.523  0.0427 -0.0081 -0.2420
32867W        W75883  32.869   1.927   6.110 -0.2440 -0.1502 -0.1891
32868W        W75884  25.924  21.821   2.018  0.0348  0.0520  0.0224
32869W        W75885   1.739  32.591   2.937 -0.1675 -0.1885 -0.1112
32870W        W75886  24.338   1.238   6.435  0.0699 -0.0295  0.4434
32871W        W75887  31.678   0.390   7.491 -0.3740 -0.3608  0.0364
32872W        W75888  22.927   7.699  28.592  0.0362  0.0951 -0.0196
32873W        W75889  20.442  20.640   7.200  0.1126 -0.0666  0.1183
32874W        W75890  12.464   9.978  27.818 -0.3333  0.0323  0.2204
32875W        W75891  27.855  14.348   8.729  0.1701  0.0459  0.1245
32876W        W75892  33.416  31.385   2.710 -0.1301 -0.5315  0.3860
32877W        W75893   5.077  11.420  17.053 -0.0040 -0.1002  0.0832
32878W        W75894  22.523   7.388   1.987  0.0246 -0.0287  0.0741
32879W        W75895  31.934  12.029   7.669  0.0704  0.1993  0.0727
32880W        W75896  21.495  20.141   1.621 -0.0353 -0.1743  0.0817
32881W        W75897  28.752   9.522   1.577  0.3295 -0.0071  0.2453
32882W        W75898   4.090  20.689   7.502 -0.1901  0.2422  0.0007
32883W        W75899   2.117   6.529   4.313  0.3033  0.0860 -0.1458
32884W        W75900  34.727  13.143   8.628  0.2568  0.0780  0.3517
32885W        W75901  26.585  31.238  28.392 -0.0943  0.2281 -0.0996
32886W        W75902  30.987  17.221   6.965  0.1815  0.0159  0.4526
32887W        W75903   6.691   2.113  28.468  0.1908  0.2092  0.0238
32888W        W75904  32.572  13.941  20.370  0.0088  0.0670 -0.3152
32889W        W75905  11.533  17.208   3.882 -0.2156 -0.0314 -0.1729
32890W        W75906  29.855  34.088   1.850 -0.0095  0.0989  0.0158
32891W        W75907  11.857  22.337   3.440  0.1530 -0.0716 -0.0440
32892W        W75908  25.716  33.604   2.389  0.0339  0.0635 -0.2226
32893W        W75909  16.295  18.515  24.196  0.1455  0.1472  0.2157
32894W        W75910  32.831  10.109   1.276  0.0380  0.0051  0.1008
32895W        W75911  24.928  27.288   3.396  0.2066 -0.0209  0.0400
32896W        W75912   5.151   9.552   2.636 -0.2371 -0.2008  0.6251
32897W        W75913  25.631  14.736  23.281  0.0492  0.3402 -0.1394
32898W        W75914  23.877  11.316   3.192  0.5010 -0.1450  0.1150
32899W        W75915  32.594   6.850   8.693 -0.3577 -0.0926  0.0795
32900W        W75916  23.145  34.717  29.008  0.1156 -0.1145  0.2682
32901W        W75917  31.129   4.523   5.403  0.0728 -0.0718  0.1054
32902W        W75918  25.828  21.809   9.284 -0.0771  0.3046  0.2571
32903W        W75919  27.524  17.047  22.830  0.2026 -0.0386 -0.0601
32904W        W75920  20.032   1.316   7.834 -0.1239 -0.3069 -0.0092
32905W        W75921  26.143  18.831   7.404 -0.1594  0.3745  0.2578
32906W        W75922  22.722  13.751   6.135  0.0824 -0.0621 -0.2260
32907W        W75923  21.924  32.178  21.683  0.0434 -0.0125 -0.1233
32908W        W75924   7.901  10.930   1.430  0.0845 -0.1140 -0.2514
32909W        W75925  34.530   4.183   8.942 -0.1894  0.2908  0.0665
32910W        W75926  18.425  31.243   9.744  0.0854  0.1492  0.2687
32911W        W75927  10.856  22.040   3.171  0.4737 -0.1260  0.1105
32912W        W75928  28.464  31.683   8.455 -0.0749 -0.1248  0.1804
32913W        W75929  29.536  15.566   9.577  0.2132 -0.2532 -0.0968
32914W        W75930  20.556  11.039   4.864  0.1287 -0.0884  0.0634
32915W        W75931  23.165  29.316   9.644  0.2667 -0.0065  0.0569
32916W        W75932   3.361  20.693  29.136  0.1736  0.1189  0.3864
32917W        W75933  21.416   9.838  28.858  0.1705  0.2149 -0.1602
32918W        W75934  19.984  32.733   2.672 -0.0596  0.2224 -0.3274
32919W        W75935  14.846  14.763   5.569 -0.0633 -0.1241 -0.0201
32920W        W75936  24.087  14.778   7.343 -0.2335  0.0590 -0.0740
32921W        W75937  27.655  16.595   2.660  0.3227  0.0030 -0.0703
32922W        W75938  23.394  11.696  25.668  0.0349 -0.0463  0.2752
32923W        W75939  23.026  14.815   0.337 -0.0525  0.2125  0.0366
32924W        W75940  18.018  11.852  19.226 -0.0410  0.1972 -0.4515
32925W        W75941  25.126   8.574  28.266 -0.0813 -0.1531 -0.1141
32926W        W75942   0.056  10.153  22.495  0.1994  0.0945 -0.1802
32927W        W75943  33.305  11.672  29.143 -0.1120 -0.0313 -0.0265
32928W        W75944  32.894   8.650   7.321  0.1326  0.0032 -0.1049
32929W        W75945  32.096   9.211   9.525 -0.3936 -0.0410  0.5951
32930W        W75946   3.070   4.241  23.925 -0.0165  0.2494  0.0348
32931W        W75947  26.128  19.735   7.014  0.4056  0.0011  0.3015
32932W        W75948  22.310  12.449  27.026  0.2134  0.0887  0.0018
32933W        W75949   8.788   9.541  21.767 -0.2388 -0.0686  0.1180
32934W        W75950  27.008  12.246  27.760 -0.4255 -0.0515  0.2235
32935W        W75951  34.738  12.272   9.789  0.1093  0.0274  0.0817
32936W        W75952  29.454   2.548   8.399  0.3487 -0.1403  0.0290
32937W        W75953  16.338   8.249   2.899  0.2372 -0.2353 -0.0787
32938W        W75954  29.148   8.589  28.538 -0.1175 -0.2114  0.0762
32939W        W75955  16.273  13.608   4.636  0.0512 -0.0820  0.0359
32940W        W75956  12.407  10.906  23.780  0.2175  0.0378 -0.0028
32941W        W75957  24.751   1.729   9.514 -0.1590  0.2854  0.0920
32942W        W75958   2.731  14.782   2.171 -0.0379  0.5980 -0.0697
32943W        W75959   3.255   9.888   8.258  0.1430 -0.0585  0.0874
32944W        W75960  23.238  13.596   1.545 -0.2406 -0.0394 -0.3543
32945W        W75961  22.710  14.091   4.342 -0.1158 -0.1614 -0.0162
32946W        W75962  34.114  15.532  10.336 -0.1639  0.2140  0.1029
32947W        W75963  29.442  15.686  18.672 -0.0085  0.0345  0.0059
32948W        W75964   7.556   8.553   1.378  0.1018 -0.0424 -0.0368
32949W        W75965  33.279  13.640   0.562  0.0161  0.5970  0.0881
32950W        W75966  17.241  11.061  28.413 -0.1763 -0.2471  0.1502
32951W        W75967  19.421   9.564   6.096  0.1611 -0.2054  0.2204
32952W        W75968  18.732   7.000   7.989 -0.3078 -0.2372 -0.1015
32953W        W75969  27.121  12.753  18.717  0.0342  0.0508  0.0490
32954W        W75970   6.051  30.517   4.392 -0.0154  0.3430  0.0978
32955W        W75971  17.053  20.209   7.327 -0.2209 -0.0333 -0.1985
32956W        W75972  15.429  18.016   4.890 -0.1291  0.0368 -0.0591
32957W        W75973   2.885  26.599  26.563 -0.1016 -0.0262  0.0635
32958W        W75974  28.046   4.938  19.752  0.1326 -0.2519 -0.2482
32959W        W75975  33.874   5.082   8.137  0.0715  0.1055 -0.1009
32960W        W75976  29.723   1.739   5.756 -0.1752  0.1495  0.0247
32961W        W75977  32.106  13.948   6.217 -0.2026 -0.0015 -0.0524
32962W        W75978  30.465   8.988   1.131 -0.0742 -0.0227  0.2497
32963W        W75979  17.485  11.879  26.564  0.2540  0.0604 -0.0824
32964W        W75980  25.358  10.599  10.487  0.0592  0.2017 -0.1952
32965W        W75981  29.836   7.200   2.118 -0.1769 -0.0446  0.2520
32966W        W75982  20.107  17.153   2.379 -0.2678  0.0596 -0.1580
32967W        W75983   5.317   0.955   9.688  0.1753  0.0829  0.0180
32968W        W75984   2.084   6.209  10.511 -0.0425 -0.2440 -0.1254
32969W        W75985  34.036  28.540   5.913 -0.0639  0.2397  0.1397
32970W        W75986  25.411   6.311  25.157  0.0527  0.0071 -0.0759
32971W        W75987  26.185   9.365   3.112 -0.2679 -0.2977  0.3124
32972W        W75988  27.162  11.213   8.126 -0.0377  0.0135  0.2459
32973W        W75989  15.170  11.384   6.453  0.0552  0.0620  0.2378
32974W        W75990  24.042  12.027  20.468 -0.2449 -0.0413 -0.2347
32975W        W75991  13.785  21.309   5.534  0.1480 -0.0036  0.0223
32976W        W75992   7.206  16.497   6.680 -0.2471 -0.0734 -0.1941
32977W        W75993  33.806  19.200   3.225  0.0638  0.1324 -0.0535
32978W        W75994  25.346  17.772   9.472 -0.4699  0.0208  0.1073
32979W        W75995  25.598  33.231   2.113 -0.1593 -0.2380 -0.0297
32980W        W75996  10.273  33.849   0.069 -0.4734 -0.2945  0.1701
32981W        W75997  12.966  15.570  20.042  0.1487  0.0990  0.3580
32982W        W75998   1.309  16.121  25.175 -0.1824 -0.1741 -0.0029
32983W        W75999  10.407   6.442   2.298 -0.0476 -0.0042  0.1673
32984W        W76000   0.179  10.060   4.183  0.1058  0.1709  0.5659
32985W        W76001   1.221  17.475   3.664 -0.2562  0.0728 -0.2689
32986W        W76002  21.452  17.718   7.787  0.1569 -0.0635  0.0413
32987W        W76003  13.406  21.204   2.352 -0.0971 -0.4041  0.2086
32988W        W76004  30.233  15.138   1.267 -0.2181  0.1436 -0.2785
32989W        W76005  29.039  14.606  25.564  0.1999  0.0400 -0.3272
32990W        W76006  29.646   0.249  10.494 -0.3871 -0.0084  0.2363
32991W        W76007   0.357  20.656   2.643 -0.1787 -0.2540  0.2967
32992W        W76008  24.038   9.363   9.544 -0.2913 -0.2607  0.1372
32993W        W76009   5.140  14.396   3.632  0.1698 -0.2277 -0.1286
32994W        W76010  15.729  11.602   5.570  0.1506  0.1506 -0.2897
32995W        W76011  25.327  27.585   5.637 -0.2830 -0.2011  0.1067
32996W        W76012  29.066  14.832   2.190  0.0745  0.2395  0.0848
32997W        W76013  11.755  19.100   8.227 -0.1020  0.0731  0.0364
32998W        W76014  21.912  33.275   6.277  0.0304 -0.0907 -0.0355
32999W        W76015  33.949  23.386   4.578 -0.3611 -0.2493 -0.0617
33000W        W76016   2.459  32.293   1.156 -0.1771  0.3823 -0.0349
33001W        W76017  20.585  10.093  29.099  0.2038  0.0986  0.0528
33002W        W76018   6.738  34.582   5.159 -0.1762 -0.2220  0.0145
33003W        W76019   5.115  18.057   5.829  0.0349  0.0620  0.0749
33004W        W76020  18.736   0.064   3.530  0.0690  0.2015 -0.0299
33005W        W76021  16.905   6.772   2.486 -0.0739 -0.2208 -0.0845
33006W        W76022  19.456  33.674   1.860  0.2792 -0.2799 -0.1430
33007W        W76023  33.363   4.772  10.045 -0.1060  0.1250  0.1695
33008W        W76024  21.423  13.041  25.321 -0.1609  0.3763 -0.1931
33009W        W76025  27.088  10.015  20.439  0.2066  0.3255  0.1474
33010W        W76026  22.453  12.737   5.249  0.2792 -0.0820 -0.1911
33011W        W76027  33.348  22.584  28.285  0.0311 -0.0229  0.0662
33012W        W76028   0.654   8.258  27.356 -0.1711  0.1005  0.1392
33013W        W76029  27.298   6.400  24.145  0.2749 -0.4273  0.0368
33014W        W76030  17.835  34.079  24.032  0.1610 -0.2152 -0.0198
33015W        W76031   5.017   3.657  10.266 -0.0336 -0.0680 -0.0939
33016W        W76032  25.319  31.707   6.558  0.1474  0.1283  0.0516
33017W        W76033  22.297  31.397  21.986 -0.1995  0.1832 -0.1816
33018W        W76034  16.210  15.359  20.651  0.2312 -0.1815 -0.1815
33019W        W76035  11.378  12.318   6.945  0.0589 -0.0551  0.1090
33020W        W76036  30.693   8.866   5.874  0.0897  0.1568 -0.1814
33021W        W76037  31.845  10.956  23.776  0.3090  0.1976  0.4476
33022W        W76038  18.953  19.261  21.315 -0.1323 -0.0153 -0.1017
33023W        W76039  27.398   7.857  10.021 -0.0618  0.1494 -0.3367
33024W        W76040   1.500  17.914  26.713 -0.1264  0.1300  0.0733
33025W        W76041  18.318  12.570  23.979 -0.0253  0.3046 -0.1623
33026W        W76042  21.650  11.901   8.521 -0.3555  0.0884  0.0408
33027W        W76043  23.612   2.351   0.925  0.0075 -0.2458  0.0693
33028W        W76044  15.340   5.643   1.317 -0.1215  0.2328 -0.1079
33029W        W76045  22.125  33.220   9.794  0.0541  0.2857 -0.2857
33030W        W76046  32.471   7.114   1.830  0.1476  0.2754 -0.0132
33031W        W76047  18.071  17.368  22.110 -0.3229  0.1495 -0.1242
33032W        W76048  22.947   9.957   7.622  0.3086 -0.2746 -0.0729
33033W        W76049   2.765  20.080  22.203 -0.0138 -0.0061 -0.1997
33034W        W76050  24.422  10.606  21.501  0.1899  0.3378 -0.1077
33035W        W76051   3.714  16.284   6.323  0.0583 -0.1953  0.1213
33036W        W76052  24.009  14.922  28.884  0.3199  0.0145  0.0693
33037W        W76053  28.439   5.953  25.459  0.0212  0.0313  0.4027
33038W        W76054  16.931  18.864  19.378  0.1215 -0.3856 -0.0866
33039W        W76055  29.954   8.961   6.478  0.0470 -0.0231  0.0684
33040W        W76056  14.877  19.714  13.612  0.0919  0.2113  0.0214
33041W        W76057  30.622   3.375   9.215 -0.1578  0.0298 -0.1018
33042W        W76058  21.294  22.735  26.251 -0.2013  0.0687 -0.0188
33043W        W76059  31.859  10.819  27.782 -0.1911  0.0856 -0.3897
33044W        W76060  21.898  20.299  27.179 -0.1250 -0.0541  0.2063
33045W        W76061   8.244   6.891   8.598 -0.1526  0.0077  0.1941
33046W        W76062  30.576  30.822  25.114 -0.2774  0.3407  0.3798
33047W        W76063  20.932  10.640  27.257  0.0600  0.1433 -0.0926
33048W        W76064  16.930   9.263   8.578  0.1381 -0.1333 -0.1636
33049W        W76065  17.151  18.480   9.178 -0.1641  0.5494  0.2310
33050W        W76066  23.522   2.107  21.485  0.1192 -0.0887  0.2074
33051W        W76067  33.958  12.314  24.376  0.0607 -0.1675  0.1588
33052W        W76068  30.348  11.430   6.833  0.2039 -0.0291 -0.0788
33053W        W76069   1.440   1.028   7.476  0.1777 -0.1214 -0.2785
33054W        W76070  14.315  16.384  26.768  0.0468 -0.0496 -0.1186
33055W        W76071  23.697  26.023   6.012 -0.0879 -0.0266 -0.0199
33056W        W76072  28.374  10.461  28.667  0.0802 -0.0351  0.1426
33057W        W76073  33.333  19.875   9.116  0.1953  0.3568  0.0886
33058W        W76074  28.131   7.466  23.271  0.2707 -0.3023  0.3101
33059W        W76075  27.902   8.394  20.868  0.3800  0.2015  0.0112
33060W        W76076  27.877   7.710   2.406 -0.3272  0.0777  0.1114
33061W        W76077  22.670  12.473  24.763  0.0354  0.3687  0.1329
33062W        W76078  30.195   8.917   2.555  0.1189 -0.1290 -0.0460
33063W        W76079  14.224   8.516  21.114  0.1168 -0.0065  0.1775
33064W        W76080  30.574  20.964  21.044  0.5603  0.1577  0.0163
33065W        W76081  29.525  16.630  18.958  0.0626 -0.3361 -0.0035
33066W        W76082   2.435  33.704   6.876 -0.1145 -0.0456  0.0939
33067W        W76083  20.294  10.033   5.996 -0.1315  0.1859  0.1920
33068W        W76084  21.987   7.428   7.198  0.2184 -0.1053 -0.0073
33069W        W76085   0.352  25.180   0.073  0.3194  0.0220  0.0541
33070W        W76086   3.092  22.257  16.228  0.0994 -0.2099 -0.1136
33071W        W76087  26.246   3.646  26.303  0.2463 -0.4209 -0.0899
33072W        W76088  27.127  14.556   0.645 -0.1310 -0.2193  0.0240
33073W        W76089  22.823  14.707   5.843  0.2795  0.0024  0.2312
33074W        W76090  24.046  28.306   2.887  0.0978  0.3643  0.0903
33075W        W76091  26.193   5.712   5.833  0.0204  0.3282 -0.1485
33076W        W76092  10.534  32.080  14.075 -0.2711  0.0222  0.0135
33077W        W76093  33.585  23.034   1.717 -0.0199 -0.0402 -0.0331
33078W        W76094  21.150   3.291  19.646 -0.0024  0.0260 -0.1761
33079W        W76095  31.319  18.144   6.427  0.1280 -0.2552 -0.0825
33080W        W76096  28.246  19.730   0.339  0.0382  0.4282 -0.0278
33081W        W76097  34.577  10.193  24.051  0.1246  0.2204  0.1093
33082W        W76098  21.444   0.837   3.230  0.0589  0.1437 -0.0969
33083W        W76099   8.745   4.913   8.139 -0.1667  0.1462  0.1572
33084W        W76100   6.139  21.928  22.529 -0.1162  0.1435 -0.1721
33085W        W76101  30.917  12.520  26.704  0.5527 -0.2502 -0.0123
33086W        W76102  32.793  16.433   2.444  0.0327 -0.1730 -0.0752
33087W        W76103  29.528  29.407   6.184 -0.4805 -0.1375  0.3294
33088W        W76104  20.520  21.830   4.095  0.1098  0.1364  0.3266
33089W        W76105  22.036  12.311  20.285 -0.2451 -0.0628 -0.0160
33090W        W76106  18.932   4.482  22.810  0.3769 -0.1846 -0.2962
33091W        W76107  27.404  20.445   0.358  0.2741  0.0689  0.2130
33092W        W76108  25.881  26.556  23.427 -0.0590  0.2587 -0.0538
33093W        W76109   0.400  16.888   8.247  0.3357 -0.2306 -0.0908
33094W        W76110   1.634  15.998  27.070  0.2758  0.1668  0.2235
33095W        W76111   2.129  23.631  20.755  0.3186  0.2569  0.0818
33096W        W76112  23.442   2.447   8.947 -0.2347 -0.3805 -0.0643
33097W        W76113  17.623   8.559  25.078  0.4046 -0.0907  0.0522
33098W        W76114  25.108  19.679  26.985 -0.1048  0.1164 -0.1339
33099W        W76115   8.169  10.424  27.260  0.2112 -0.0133  0.0847
33100W        W76116  29.808  31.858  24.656 -0.3418 -0.0910  0.2241
33101W        W76117  27.612   6.793   2.592  0.0392 -0.0564 -0.1845
33102W        W76118  30.912  24.904  21.342 -0.2174  0.0001 -0.1964
33103W        W76119  13.117  12.804  25.331 -0.0997  0.0249  0.0729
33104W        W76120  25.952   2.496   9.495 -0.0826 -0.3882  0.1312
33105W        W76121  15.753  19.355   7.523  0.0863  0.0454  0.1303
33106W        W76122  20.028  14.791  11.734  0.0303  0.3269 -0.0955
33107W        W76123  10.576  27.292  22.349 -0.2408  0.2962  0.0406
33108W        W76124   9.095  18.372   9.122  0.0702  0.1466 -0.1644
33109W        W76125  24.123   3.179   3.469  0.0964  0.2160  0.2581
33110W        W76126   5.390  19.697  20.361  0.1869 -0.0195  0.1694
33111W        W76127  31.517   7.514   1.711 -0.1311 -0.0967  0.0240
33112W        W76128   4.194   7.232   3.305  0.2269 -0.0385 -0.1646
33113W        W76129  24.415  14.622  17.312  0.1286  0.0423 -0.0409
33114W        W76130  12.770  12.475   0.503  0.0977 -0.1524  0.2112
33115W        W76131  19.104  12.419  26.519  0.1928  0.1725  0.1452
33116W        W76132  22.602   4.573  28.074 -0.0592  0.1109  0.0614
33117W        W76133  13.997  32.752  17.914 -0.1044 -0.2447  0.1977
33118W        W76134  17.208  32.410   4.684 -0.2849 -0.0758 -0.2536
33119W        W76135  33.180   5.527   5.466 -0.1083  0.2198 -0.0367
33120W        W76136  20.113  10.962   5.069 -0.0319 -0.2466 -0.1478
33121W        W76137  20.399  17.649  20.915  0.3369  0.0718 -0.0069
33122W        W76138  32.210   2.558   7.803  0.0166  0.1420  0.1240
33123W        W76139  29.527  19.010   1.189 -0.1277  0.2925  0.0231
33124W        W76140  17.647  17.780  26.144  0.1483 -0.1025 -0.0079
33125W        W76141   4.519   1.715   7.862 -0.3457 -0.0682  0.1298
33126W        W76142  23.978  13.564  27.931 -0.1841  0.2043  0.0060
33127W        W76143  20.037   8.037  15.120  0.3025  0.1430 -0.0776
33128W        W76144  18.863   9.590  21.561  0.0400  0.0519 -0.0666
33129W        W76145   6.861  22.099  17.925 -0.1559 -0.2431  0.0104
33130W        W76146  28.714   2.288   8.013  0.0052 -0.1477 -0.0114
33131W        W76147   0.260  10.196   6.816  0.0498 -0.5026 -0.0264
33132W        W76148  24.922  23.360  20.234  0.0925 -0.0146 -0.0676
33133W        W76149  27.834  32.023   6.743  0.0423 -0.0058 -0.2888
33134W        W76150  16.282   2.473   1.573 -0.0013  0.0958 -0.0072
33135W        W76151  29.258   3.016  25.726  0.4492  0.1748 -0.0233
33136W        W76152  21.776  20.815   3.114 -0.0722 -0.0738 -0.4194
33137W        W76153  33.422  32.066   5.862  0.3217 -0.0075 -0.0163
33138W        W76154  28.960  28.862  25.767 -0.2387 -0.0917 -0.0794
33139W        W76155  32.927  21.308   8.329  0.0679 -0.0241 -0.0462
33140W        W76156  19.480   7.726  28.905 -0.1009 -0.0676 -0.1366
33141W        W76157   0.576  13.292  20.221 -0.1104 -0.2151 -0.0171
33142W        W76158  29.755  30.600   4.956  0.0240  0.2965  0.0725
33143W        W76159  15.595   4.800   5.227 -0.2019 -0.1264 -0.1656
33144W        W76160  33.714  12.191   7.936  0.3924  0.1773  0.0762
33145W        W76161   5.522  11.927  17.922 -0.0104  0.0342 -0.1122
33146W        W76162   2.515   0.917   1.806 -0.2100 -0.0537 -0.0817
33147W        W76163  27.655  18.483  27.668  0.0584 -0.0245  0.0368
33148W        W76164  26.603  22.350   8.335  0.2959  0.0765  0.2072
33149W        W76165   0.023  21.822   8.484  0.2738 -0.0005  0.1593
33150W        W76166  30.570  21.632   0.577  0.1085  0.0994 -0.1456
33151W        W76167  22.638  18.079   9.880  0.1338 -0.2451  0.2780
33152W        W76168  29.826  23.587  15.813 -0.2161  0.0243 -0.1445
33153W        W76169  13.854   8.568   1.893 -0.0588  0.1412  0.1853
33154W        W76170  27.537  33.632   4.998  0.0004 -0.1775 -0.1437
33155W        W76171   5.952   9.979   4.233  0.0766 -0.0309  0.1010
33156W        W76172  20.312  11.499  20.051  0.3676 -0.0034  0.3933
33157W        W76173  21.147  13.402   1.986  0.0488  0.1264  0.2604
33158W        W76174  23.375   7.488   2.907 -0.1965  0.1148  0.1140
33159W        W76175  24.472   9.455  21.749 -0.0411 -0.1195  0.2878
33160W        W76176  31.822  13.579   4.408 -0.1125  0.2970 -0.1668
33161W        W76177   4.324  20.470   7.943 -0.2254  0.1443 -0.1558
33162W        W76178   0.518   8.315  10.182 -0.2502 -0.0959  0.4223
33163W        W76179  20.305   6.324   8.639  0.0825  0.0682 -0.0208
33164W        W76180  24.997  28.346   2.761  0.1948  0.0511  0.2177
33165W        W76181  28.802  20.001   3.430  0.0488 -0.2112 -0.3255
33166W        W76182  13.697  17.808   0.801 -0.0437 -0.0144  0.1131
33167W        W76183  20.831   7.215   2.866 -0.0380  0.2103  0.5471
33168W        W76184  22.671  10.959   1.816 -0.2154  0.1562  0.0034
33169W        W76185  24.689  20.136  17.102  0.5495 -0.0735 -0.2233
33170W        W76186  31.506   9.225   2.586  0.0498 -0.1301  0.1280
33171W        W76187   5.471   9.754   5.146 -0.2319 -0.0421 -0.1484
33172W        W76188   3.617  12.995   7.018 -0.0947 -0.0533  0.2190
33173W        W76189  19.394  25.733   3.905  0.1877  0.0877  0.3319
33174W        W76190  31.148   2.032   1.614 -0.0384 -0.2956 -0.1666
33175W        W76191  26.147  15.530  27.081  0.1310  0.1030  0.3737
33176W        W76192  17.125  29.288  21.811 -0.4217 -0.3673 -0.1123
33177W        W76193   6.236  19.439  28.649  0.4741  0.0767 -0.1605
33178W        W76194   1.349  15.008  15.268 -0.1233 -0.2456 -0.1375
33179W        W76195   6.958  15.108   3.637 -0.0697  0.3601 -0.0898
33180W        W76196  28.015  13.412   1.417  0.1354 -0.0528 -0.1655
33181W        W76197  22.464   8.682  28.060 -0.1101  0.1946 -0.0850
33182W        W76198  32.469  21.059   0.028 -0.0275 -0.2222 -0.0070
33183W        W76199  27.176  14.605   1.458 -0.0808  0.0463  0.4637
33184W        W76200  21.066  13.095   6.130 -0.0189 -0.0120 -0.1188
33185W        W76201  17.183   1.475   5.395 -0.1055 -0.2967 -0.0138
33186W        W76202  13.874  32.884   3.691 -0.4026  0.2445  0.0498
33187W        W76203  17.819  33.814  28.722  0.0411 -0.0522 -0.1588
33188W        W76204  14.589   2.523  24.605 -0.1645  0.1161 -0.0593
33189W        W76205  24.647  15.654  29.081  0.2615 -0.1454  0.1377
33190W        W76206  13.613  25.340   8.501 -0.0205  0.3745  0.3357
33191W        W76207  15.443  17.712  27.349 -0.1977 -0.1054 -0.1500
33192W        W76208   1.664   7.059   5.260  0.0031  0.0052  0.2462
33193W        W76209  24.579   7.982   1.261  0.3763  0.0325  0.0459
33194W        W76210   6.600  32.963  22.470  0.0960 -0.0580 -0.2406
33195W        W76211  20.948  19.224  17.701 -0.1993 -0.1964  0.0598
33196W        W76212  30.430  20.964  26.924 -0.1000  0.2844 -0.0230
33197W        W76213  27.540  14.457  22.833 -0.2029 -0.1339  0.1418
33198W        W76214  26.071  15.907   2.149  0.3613 -0.2153 -0.0614
33199W        W76215   4.119   6.801  21.653  0.1197  0.1785  0.1056
33200W        W76216   4.561  22.814  29.274  0.3049  0.3817 -0.1175
33201W        W76217  26.906  27.224   2.362 -0.1068 -0.1550  0.1769
33202W        W76218  19.863  25.641   3.578  0.0336  0.2718  0.0486
33203W        W76219  14.844  20.597  26.228 -0.1361  0.2240  0.1192
33204W        W76220  18.421  26.139   0.488  0.1417 -0.1361  0.3383
33205W        W76221  23.284  18.010  20.912  0.1948 -0.1637  0.0016
33206W        W76222  27.545  20.555   9.617 -0.3790 -0.2134  0.1863
33207W        W76223   4.446  33.960   4.447 -0.1790 -0.3549 -0.1985
33208W        W76224  23.056   2.481   7.706 -0.1598  0.2902  0.1308
33209W        W76225  33.981   7.533  17.396  0.2969 -0.0095  0.2182
33210W        W76226  19.333   7.122   9.370  0.1107  0.3508 -0.0486
33211W        W76227  24.310  10.000  27.466 -0.1078  0.1060 -0.1269
33212W        W76228  26.555  12.818  18.664 -0.2482  0.1627  0.3265
33213W        W76229  17.631  14.361  25.552  0.0296 -0.1367  0.1848
33214W        W76230  13.633   0.222  17.221  0.2835  0.1902  0.3749
33215W        W76231  13.835   3.188  25.763 -0.2198 -0.1641  0.1948
33216W        W76232  25.638  13.241  24.064  0.2432  0.2038 -0.1241
33217W        W76233  23.951  17.981  28.503  0.2037  0.4067 -0.0356
33218W        W76234   2.729  23.296   9.316 -0.1867  0.4828 -0.0136
33219W        W76235  11.353  30.016   2.025  0.2125 -0.1577  0.0309
33220W        W76236   4.361  20.538   0.519  0.5514 -0.0391 -0.3303
33221W        W76237   2.947  15.100   1.165  0.0096  0.2992  0.1000
33222W        W76238  24.288   1.700   9.656  0.1079 -0.0672  0.0928
33223W        W76239  34.387   6.863   1.930  0.0481 -0.0799  0.0628
33224W        W76240  12.150  31.493   5.037  0.0342  0.0155 -0.2859
33225W        W76241   3.583   0.678  28.354 -0.1766  0.0099  0.0596
33226W        W76242  24.951   4.087  26.222  0.3961 -0.0143 -0.1937
33227W        W76243  15.012   5.600   4.314  0.0763 -0.0209  0.0635
33228W        W76244  17.632   8.062  23.876  0.3583 -0.1095 -0.1577
33229W        W76245  29.349  18.572   3.030  0.1613 -0.0460 -0.0895
33230W        W76246   7.848  20.618   7.143 -0.4021  0.1427 -0.2791
33231W        W76247  21.166  30.401  23.947  0.0645 -0.0261  0.0138
33232W        W76248  16.406  21.805  27.395 -0.0861  0.1190 -0.3184
33233W        W76249   4.803  23.716  16.537  0.1273  0.1418  0.0721
33234W        W76250   3.975   1.377  19.642 -0.0169 -0.2052 -0.2464
33235W        W76251  29.380   6.712  24.363  0.0770  0.2623 -0.0441
33236W        W76252   3.769  11.736   5.157 -0.3313  0.0053  0.1595
33237W        W76253   0.333   8.205   0.499  0.1146 -0.4454  0.0310
33238W        W76254   4.427   8.928   0.133  0.1853 -0.1484 -0.2944
33239W        W76255  17.539  14.767  22.675 -0.1873  0.1926 -0.1669
33240W        W76256  19.888  19.668  27.712  0.0164  0.1111  0.2488
33241W        W76257  17.420  30.218   9.403 -0.0827 -0.2189 -0.1965
33242W        W76258   3.900   9.474   9.993  0.2224  0.2515 -0.1589
33243W        W76259  33.421   5.539  26.514 -0.2443  0.0325 -0.3149
33244W        W76260   1.588  15.630   7.676 -0.0855 -0.1499  0.1085
33245W        W76261  18.454  25.251   5.078  0.2547  0.2652  0.2531
33246W        W76262  17.896  18.973   8.907  0.1678  0.1986  0.0494
33247W        W76263  25.365  22.038  17.932 -0.1141  0.2313 -0.1946
33248W        W76264  24.457  16.079  28.143  0.0971 -0.2069  0.1564
33249W        W76265  12.317  10.205   2.030 -0.1434  0.0097 -0.3272
33250W        W76266  26.851   7.529   9.862 -0.1016 -0.1254  0.0334
33251W        W76267  34.637  19.028  26.155  0.0345  0.0758  0.0777
33252W        W76268  24.954  21.145   2.567 -0.1222  0.1133 -0.2215
33253W        W76269   4.031  14.623   1.925  0.1601 -0.2254 -0.1019
33254W        W76270   3.112  16.599  27.971 -0.0621  0.0689  0.1371
33255W        W76271   7.516  29.678  27.821 -0.1813  0.1453  0.3448
33256W        W76272  33.354  12.246   1.170  0.2014  0.1608  0.2671
33257W        W76273  13.275  16.316  24.235  0.1226 -0.0359  0.1711
33258W        W76274   3.022  34.516  25.763  0.3930  0.0152 -0.4704
33259W        W76275  30.495  17.529   2.427  0.0800  0.0269 -0.1868
33260W        W76276  22.952  13.827   4.920  0.1764 -0.1179 -0.1442
33261W        W76277   3.193  20.896  14.101 -0.1905  0.1740  0.0744
33262W        W76278  30.809  11.102   4.516 -0.0033  0.4312 -0.0246
33263W        W76279  28.193  12.604   8.868  0.0886 -0.4274 -0.0280
33264W        W76280   2.470   5.183   5.168  0.0407 -0.1490  0.1342
33265W        W76281  17.783  13.839  20.322 -0.0466 -0.0036 -0.1729
33266W        W76282  31.049  13.511  21.988 -0.2673  0.0925 -0.1033
33267W        W76283  15.461  13.840   3.568 -0.0082  0.0296 -0.0930
33268W        W76284  26.647  15.122   1.515  0.0745  0.0186 -0.0469
33269W        W76285  23.397   9.140   6.568  0.3390 -0.0705  0.1346
33270W        W76286  29.493  19.345   2.577  0.0203 -0.2742 -0.3440
33271W        W76287  21.254  17.082  23.576 -0.2474 -0.0064 -0.0442
33272W        W76288  14.261   3.155  23.931  0.3889 -0.0920  0.3558
33273W        W76289   1.054  10.885  21.807 -0.1171  0.0380  0.5164
33274W        W76290  16.102  16.535   0.762  0.4519  0.3201 -0.0394
33275W        W76291  24.088  11.534  27.260  0.4708  0.3030  0.0220
33276W        W76292  23.585  17.967  25.120 -0.3409 -0.2394  0.0308
33277W        W76293  30.171  15.957   9.473  0.1646  0.2436 -0.1209
33278W        W76294  21.421   0.383  10.724  0.0120 -0.0949 -0.3893
33279W        W76295  29.546   9.536   8.158  0.1229  0.0407 -0.0067
33280W        W76296  19.991   2.541   4.058 -0.2253  0.0419 -0.1513
33281W        W76297  25.090   7.736  21.049  0.0953 -0.1664  0.2145
33282W        W76298   8.649  10.172  24.833 -0.1040  0.0096 -0.0708
33283W        W76299  17.773  17.678  25.627 -0.1733  0.0579  0.2404
33284W        W76300  25.627  33.454   1.219  0.2060  0.1950 -0.2906
33285W        W76301   5.937  10.446   2.045 -0.0030 -0.3096 -0.0414
33286W        W76302  28.964  16.862   9.811  0.2149  0.1567 -0.2254
33287W        W76303   5.058  21.789   5.320 -0.0195 -0.0971  0.1061
33288W        W76304   9.145   2.901  17.163 -0.3698  0.0466  0.2259
33289W        W76305  20.094  24.267   0.892  0.0580  0.1416 -0.0438
33290W        W76306  21.340  15.141   3.788 -0.0903 -0.0178  0.0790
33291W        W76307  32.209   5.275   6.443  0.1848 -0.0868  0.0646
33292W        W76308  29.405  25.672  11.467  0.0656 -0.0921 -0.0405
33293W        W76309  28.298   5.739  27.136 -0.0676  0.0242  0.1743
33294W        W76310  23.974   6.672  27.696 -0.2643 -0.2199 -0.3765
33295W        W76311  28.571   5.802  22.779 -0.0825 -0.2222  0.0068
33296W        W76312  22.261  11.113   4.223  0.1240 -0.4477 -0.0078
33297W        W76313  30.414  20.194  28.104  0.1780 -0.2323  0.0340
33298W        W76314  28.132   1.587  10.771 -0.0796 -0.1520  0.2677
33299W        W76315  15.189  32.190   7.041 -0.3357 -0.0526 -0.6052
33300W        W76316  32.785  16.079  27.797 -0.0607 -0.0874  0.0952
33301W        W76317  24.052  14.327  25.346 -0.1572 -0.2668 -0.1029
33302W        W76318  20.627  11.377  13.291  0.0703  0.2733  0.4250
33303W        W76319  27.940  31.408   5.309 -0.0583  0.1033 -0.0057
33304W        W76320  11.314  24.261   5.510  0.1694  0.1839  0.0122
33305W        W76321  26.529  23.467   5.450  0.0893  0.2729  0.1428
33306W        W76322  14.129  19.418   3.245 -0.1497  0.2626  0.2187
33307W        W76323  11.650   2.575   8.321 -0.2482  0.1096  0.0003
33308W        W76324   1.180   6.776   1.442  0.0370  0.4227 -0.0093
33309W        W76325  22.030  25.279  18.732  0.0153  0.0564 -0.0767
33310W        W76326   6.191  10.781   0.906  0.1395 -0.0259 -0.0346
33311W        W76327  33.067  14.309  24.289 -0.1425 -0.1766  0.1860
33312W        W76328  32.732  14.529   9.987  0.0213  0.0055  0.0571
33313W        W76329  26.799  14.173   2.934 -0.1435 -0.0784  0.1395
33314W        W76330   3.826  21.131   6.465  0.1777  0.1452 -0.0634
33315W        W76331   1.567  30.774   1.940  0.5735  0.0829  0.0137
33316W        W76332  20.891   9.661  28.922  0.2528  0.0495 -0.0770
33317W        W76333  16.753  18.384  21.998  0.1532 -0.2523  0.1308
33318W        W76334  32.840  33.726   5.936  0.0261 -0.0333 -0.1067
33319W        W76335  28.429  12.754  23.219  0.0949 -0.0999  0.3487
33320W        W76336  10.125  13.387  28.930 -0.2308 -0.1533 -0.0593
33321W        W76337  32.012  31.517  17.772 -0.1341 -0.1268  0.2482
33322W        W76338  11.202  34.543  17.948 -0.0047 -0.0131  0.1320
33323W        W76339  33.453  13.913   2.464 -0.1448  0.0803  0.2321
33324W        W76340  29.312  10.941  21.152  0.1260  0.2459 -0.0584
33325W        W76341  25.161   5.276  26.806  0.0980  0.0227  0.0142
33326W        W76342  28.694   9.287   6.491 -0.1463  0.1041  0.0038
33327W        W76343  22.455  29.954   0.728  0.0259  0.0781  0.1538
33328W        W76344   2.532   6.689   0.313 -0.0629 -0.0838  0.2006
33329W        W76345  25.293  13.067  25.748  0.2969  0.1331  0.0957
33330W        W76346  28.305  10.652   3.974  0.0405  0.3637  0.0851
33331W        W76347  30.863  18.523   1.675 -0.1818  0.2978  0.1108
33332W        W76348   2.107  19.184   9.639  0.2474 -0.0915  0.2463
33333W        W76349   0.199  27.961   0.125 -0.0615 -0.0894 -0.1240
33334W        W76350  23.501  21.676   9.510 -0.0852 -0.1366  0.0911
33335W        W76351  20.903  31.713   1.723 -0.1036 -0.1783  0.2211
33336W        W76352  33.361  13.084   0.667  0.0467  0.2526  0.3135
33337W        W76353  33.447  10.092   6.906 -0.0700  0.1297 -0.0907
33338W        W76354  30.336  21.493   3.689 -0.2564  0.1146  0.0138
33339W        W76355  28.906   0.478   6.346  0.2895  0.0737 -0.1348
33340W        W76356  30.143  20.771   4.245  0.0219  0.0588  0.1592
33341W        W76357  17.421  15.202  18.198 -0.0865 -0.0521  0.2916
33342W        W76358   2.400   7.032   4.662 -0.0755  0.1652 -0.3138
33343W        W76359   2.115  17.273  17.832  0.1797  0.1567  0.0013
33344W        W76360  33.903  28.073  10.102 -0.1408  0.3769 -0.2076
33345W        W76361  28.585  10.290   3.364  0.1034  0.0031 -0.0352
33346W        W76362  26.673   1.557   9.431 -0.1962  0.4208  0.0259
33347W        W76363  23.816  34.325   8.400 -0.0573 -0.0169 -0.2217
33348W        W76364   2.819  22.526  14.376 -0.0247  0.0741 -0.0265
33349W        W76365  33.026  25.261   5.377 -0.0327  0.1405 -0.1611
33350W        W76366  16.321   8.583   2.503  0.1274  0.0766 -0.1065
33351W        W76367  14.814  22.389   7.357  0.0606  0.2248  0.4731
33352W        W76368  34.373   9.653   5.807 -0.3520 -0.2261  0.0796
33353W        W76369  26.731   5.679   8.851  0.0286 -0.2418 -0.0912
33354W        W76370  31.744  20.677  10.368 -0.0379 -0.0292  0.0105
33355W        W76371  22.041  15.907   1.000 -0.1927  0.4058 -0.0224
33356W        W76372  22.344   5.480  21.150  0.2678 -0.1052 -0.0281
33357W        W76373  24.538  11.609   8.303 -0.0472  0.1488  0.1458
33358W        W76374  32.067  32.721   1.614  0.1110 -0.1140  0.0282
33359W        W76375  31.438  12.097   7.421 -0.0038  0.1024  0.2393
33360W        W76376  17.246   9.051  12.970 -0.2512  0.0695  0.2821
33361W        W76377  25.121   0.543  10.838  0.0644  0.0541 -0.2197
33362W        W76378  20.302  21.696  21.501  0.0652  0.1826 -0.1781
33363W        W76379  22.905  11.014  23.547  0.1156 -0.0786  0.0940
33364W        W76380   8.507  13.026   7.420 -0.2316  0.1308  0.1332
33365W        W76381   6.786   1.037   2.519 -0.1548 -0.2786  0.1248
33366W        W76382   7.480   8.896  26.974  0.1019  0.2155 -0.1883
33367W        W76383  28.491  24.154   5.647  0.0782  0.0545 -0.1053
33368W        W76384  12.976  12.700   5.917  0.1221 -0.3582 -0.2037
33369W        W76385  30.310  13.905  25.073 -0.2758 -0.3605  0.0940
33370W        W76386   3.988  30.143   3.248  0.0114 -0.2611 -0.0534
33371W        W76387  14.658  33.529   0.397  0.5018 -0.0541 -0.1198
33372W        W76388   0.868  10.255   2.233 -0.3904  0.0406 -0.0954
33373W        W76389  18.402  32.886   8.434  0.1259  0.3380 -0.1546
33374W        W76390  33.754  17.063  28.006  0.1454 -0.1322  0.3243
33375W        W76391  25.356   7.574   3.809 -0.0555  0.0181  0.0208
33376W        W76392  27.874   6.977  20.314  0.0721  0.1026 -0.2401
33377W        W76393  25.450  20.390  22.520 -0.3586  0.2023 -0.0261
33378W        W76394   0.100  23.669  18.486 -0.1865 -0.2340 -0.0193
33379W        W76395  20.861   6.038   9.562 -0.0169  0.0759 -0.2095
33380W        W76396  32.709   7.089  28.963 -0.0996 -0.1899 -0.0300
33381W        W76397  32.959   8.387   9.982  0.1230 -0.0139 -0.1540
33382W        W76398   9.138  26.190  21.077  0.0950  0.2537 -0.0014
33383W        W76399  28.605  17.722   3.731  0.1948  0.2472 -0.1651
33384W        W76400   0.331  17.957  24.621 -0.1023 -0.1161  0.2300
33385W        W76401  24.785   0.256   6.966  0.1370 -0.3007 -0.2343
33386W        W76402  23.000  30.170   3.919  0.1638 -0.0791  0.1601
33387W        W76403  28.880   6.071   9.851 -0.4938  0.2538  0.0044
33388W        W76404   9.496  13.951  27.674 -0.0561  0.0374 -0.1558
33389W        W76405  30.722   1.390   7.741 -0.0443  0.0045 -0.2323
33390W        W76406  27.916  19.616   8.176  0.0096 -0.0803 -0.0161
33391W        W76407  27.296   8.549  26.305 -0.1909  0.3123  0.0925
33392W        W76408  32.558  28.626  28.776  0.1440  0.0530  0.2666
33393W        W76409   6.224  11.851   6.504  0.1206  0.0269 -0.1261
33394W        W76410   7.150   0.496  21.367  0.0774  0.1067  0.0874
33395W        W76411   9.322  10.140   4.135  0.1475  0.1558 -0.2045
33396W        W76412  10.521   5.543   6.080  0.1475  0.3763 -0.1293
33397W        W76413  14.743   2.984   9.734 -0.0838 -0.3124 -0.0200
33398W        W76414  14.968  17.924  27.921 -0.1481  0.0360  0.4006
33399W        W76415   6.364  23.977  29.009  0.3450 -0.0164  0.0634
33400W        W76416   5.007  33.451   9.461 -0.2209  0.0464  0.0849
33401W        W76417  26.238  10.498   9.946  0.1181 -0.0490  0.0412
33402W        W76418  28.042  20.588   8.673 -0.1882 -0.3819  0.1755
33403W        W76419  19.593  25.861  29.176 -0.0234  0.0323  0.1117
33404W        W76420  27.974  11.329  24.980 -0.0742  0.3905  0.2026
33405W        W76421  14.537  20.518  21.217 -0.3174 -0.1769 -0.0803
33406W        W76422  29.208  18.714   9.868  0.5443 -0.0433 -0.0502
33407W        W76423  33.459  23.081  25.210 -0.1132 -0.0089 -0.2631
33408W        W76424  34.605  14.535  26.764 -0.3231 -0.0118  0.5367
33409W        W76425   1.941  10.784   6.705  0.1456 -0.0041  0.0137
33410W        W76426  17.088  22.982   8.169  0.2451  0.1209 -0.0410
33411W        W76427  23.500   3.195  20.475 -0.2300 -0.1306 -0.1863
33412W        W76428  29.588   5.966   7.097  0.0016 -0.0021 -0.3106
33413W        W76429  26.382   8.948   0.138 -0.0771 -0.1703 -0.0128
33414W        W76430  31.766   5.033   7.402 -0.0908 -0.0845  0.0313
33415W        W76431   9.009  13.496  20.475 -0.0389  0.3656 -0.0791
33416W        W76432  26.837  12.405   7.834 -0.0024  0.3710  0.0488
33417W        W76433  28.145  14.775   2.424  0.3494  0.2785  0.1505
33418W        W76434   7.256   3.767  23.672  0.1731  0.1003  0.0781
33419W        W76435  23.106  10.997  27.777  0.0227 -0.0178 -0.1404
33420W        W76436   6.402   4.219   6.661 -0.1337  0.2307  0.0153
33421W        W76437  31.464  15.230  24.789  0.0517 -0.5064  0.1546
33422W        W76438  26.446  24.719   2.592  0.1364  0.0375 -0.1831
33423W        W76439  21.573  34.683  22.428  0.0915  0.0696  0.0495
33424W        W76440  22.176   2.409  24.197 -0.0387 -0.0519 -0.0303
33425W        W76441  23.594  10.348  26.725  0.1943  0.0637 -0.0867
33426W        W76442   4.740  12.878   5.192 -0.0290 -0.1815 -0.0891
33427W        W76443  30.171  12.180  15.082 -0.0404  0.2409  0.0538
33428W        W76444   0.985  18.549  19.172 -0.1746 -0.1019  0.1359
33429W        W76445  30.067  14.921  25.239  0.2335 -0.0951 -0.0038
33430W        W76446  25.577  11.217   2.092  0.0172 -0.2733 -0.0258
33431W        W76447  19.830  21.768  14.178 -0.0545  0.2117  0.3276
33432W        W76448   4.181  30.573  23.738 -0.0390  0.0430 -0.1456
33433W        W76449  22.279  21.139   4.579  0.2680 -0.1463  0.0135
33434W        W76450   3.756  16.577   0.336 -0.0961  0.1810  0.1921
33435W        W76451  14.026  11.154   3.062  0.1816 -0.0519  0.4213
33436W        W76452  11.126  14.996   1.838 -0.1229 -0.0863  0.0599
33437W        W76453  34.304  15.441   3.871 -0.2133 -0.0392 -0.0672
33438W        W76454  11.718   5.871   9.274  0.1515  0.1436  0.3583
33439W        W76455  31.370   9.928   3.292  0.2404  0.1969 -0.2343
33440W        W76456  33.194  27.944   9.775  0.2091  0.1233  0.0092
33441W        W76457  17.212  19.248   6.130 -0.2322 -0.3629 -0.0893
33442W        W76458  22.881  12.242   4.833  0.0710 -0.0187  0.1031
33443W        W76459  29.703  19.340  24.085  0.2699  0.0464  0.2042
33444W        W76460  27.552  15.515   2.775 -0.2230 -0.2495 -0.1020
33445W        W76461  32.203  12.342  10.914 -0.2485 -0.3029  0.0979
33446W        W76462  32.174  16.911   8.834 -0.3133  0.0485  0.2181
33447W        W76463  25.093  33.920  10.728  0.0078  0.1211 -0.0866
33448W        W76464  26.473  13.034   8.487 -0.2826 -0.6101  0.0052
33449W        W76465  27.842  22.852   6.444  0.1174 -0.2292 -0.0173
33450W        W76466   5.429  19.755  14.483 -0.2691 -0.1915 -0.0702
33451W        W76467  18.572  22.187   4.117 -0.0803  0.1302 -0.0900
33452W        W76468  28.101   6.433  10.263  0.3268  0.0907  0.4340
33453W        W76469  14.423  13.147   1.648 -0.2103  0.2805 -0.1314
33454W        W76470  32.327   4.723   2.884 -0.0362 -0.1450 -0.2320
33455W        W76471  27.356  14.841   1.027  0.1409  0.1034  0.4648
33456W        W76472  14.174  16.647  20.690 -0.4611 -0.0631 -0.1733
33457W        W76473  22.703  21.232   1.573  0.1350 -0.1555  0.1428
33458W        W76474  33.881  21.306  23.881  0.2389  0.0370  0.0889
33459W        W76475  23.340  19.110  24.098 -0.0784 -0.1329 -0.1481
33460W        W76476  33.464   3.802   1.060 -0.1198  0.0357 -0.0058
33461W        W76477  30.881   8.328   9.723 -0.3466  0.1046  0.0810
33462W        W76478  30.650  30.786   0.020 -0.1603  0.2755  0.2768
33463W        W76479   2.243   8.427   5.440  0.3474 -0.0075  0.1387
33464W        W76480  29.953  24.592   5.843  0.1772  0.2489  0.1339
33465W        W76481   2.287  22.781  29.319  0.0682  0.1362 -0.1357
33466W        W76482  24.080   0.516  10.446  0.2637 -0.1241 -0.1773
33467W        W76483  18.225  14.318   2.200 -0.0369 -0.1500 -0.0911
33468W        W76484  22.495   9.375  14.880  0.1068 -0.0376 -0.1839
33469W        W76485  33.620  23.721   8.856  0.0622 -0.1579 -0.0260
33470W        W76486  32.133  23.581   0.428 -0.0809 -0.0455  0.0113
33471W        W76487   4.817  11.123   8.072 -0.2238 -0.0335  0.0284
33472W        W76488  25.674  14.215  18.857 -0.3371 -0.3231  0.3884
33473W        W76489  21.114  17.830  27.815 -0.0322 -0.0323  0.0577
33474W        W76490   4.172  17.187   6.433  0.1730  0.0661 -0.0717
33475W        W76491  28.645   1.241  25.231  0.1967 -0.1550 -0.1007
33476W        W76492  28.671  19.518   8.016  0.0578 -0.0443 -0.1219
33477W        W76493  23.092  27.317   9.280 -0.0569 -0.0705  0.1285
33478W        W76494  31.960  23.471   6.555  0.1233  0.0515 -0.1789
33479W        W76495  28.926  22.832   5.855 -0.2287  0.1734  0.1218
33480W        W76496  27.959   4.107   5.252 -0.4200 -0.1612 -0.0341
33481W        W76497  16.127   4.831  26.594 -0.2089  0.0390 -0.1239
33482W        W76498  26.856  12.210   1.625 -0.0746  0.0502  0.1438
33483W        W76499  29.158  17.621   6.649  0.0196  0.0445  0.4487
33484W        W76500  16.166  18.592   0.142 -0.1685  0.1619  0.1164
33485W        W76501  20.806  11.268   8.319 -0.0901  0.3903 -0.0504
33486W        W76502  25.263  12.147   6.408  0.2718 -0.0584  0.1508
33487W        W76503   3.080  24.360   6.991 -0.1508  0.1271 -0.2619
33488W        W76504  26.813  30.238   1.788 -0.0224 -0.0745  0.0787
33489W        W76505   8.382  24.370   0.619  0.1047  0.0351  0.0975
33490W        W76506   1.468   1.055   4.875 -0.3429  0.0947 -0.2097
33491W        W76507  33.578  12.163   7.425 -0.1001  0.0382 -0.0645
33492W        W76508  27.599   7.611   3.573  0.2313  0.0783 -0.0621
33493W        W76509  24.883  34.400   3.910  0.0437  0.2753 -0.1314
33494W        W76510   1.376   7.462  28.939  0.0403  0.2546  0.1163
33495W        W76511   9.211  21.909   5.476  0.0690 -0.2229  0.1238
33496W        W76512  22.099  18.331  23.556 -0.0683 -0.1780  0.1961
33497W        W76513  31.164   9.936  16.948 -0.1558 -0.0537  0.0512
33498W        W76514  20.227  14.341  20.455 -0.2518 -0.4934 -0.2083
33499W        W76515  34.617  22.359  22.843  0.2005 -0.0891 -0.2790
33500W        W76516  16.229   8.608  28.796  0.2911 -0.1190 -0.2918
33501W        W76517   8.554  16.245   6.536  0.1559  0.3224 -0.1782
33502W        W76518  24.773  32.321   6.228 -0.1225 -0.1748  0.1539
33503W        W76519  33.288  21.276  27.792 -0.1192 -0.0817  0.4178
33504W        W76520  23.131   8.372   4.167 -0.1229 -0.1788  0.2128
33505W        W76521  14.655   7.504   5.744  0.1138  0.1576  0.0089
33506W        W76522  34.602  19.253   6.469 -0.1031  0.4915 -0.0990
33507W        W76523   8.341   2.887  15.740 -0.0445 -0.0770  0.1076
33508W        W76524  15.808   4.187   5.943 -0.1621  0.1651 -0.1883
33509W        W76525  14.541  12.610   6.549 -0.0630  0.2087  0.1294
33510W        W76526  18.704   9.412   9.087 -0.0935  0.0113  0.0380
33511W        W76527  34.693   9.896  28.679  0.3274  0.0288  0.0021
33512W        W76528  28.380   4.990  28.955 -0.2412  0.1687  0.1284
33513W        W76529   0.556  28.938  10.036 -0.0422 -0.2075  0.0501
33514W        W76530  32.937  12.703   2.946  0.0827  0.1110  0.0163
33515W        W76531  34.368  12.043   2.313  0.0507 -0.2150 -0.4014
33516W        W76532  26.026   6.619   4.305  0.4473  0.0352 -0.0321
33517W        W76533   3.936   8.631   4.852 -0.3198 -0.0280  0.1075
33518W        W76534  18.659  22.072   7.171  0.0943  0.3150 -0.0655
33519W        W76535  29.927  11.591   5.910  0.3004 -0.2576 -0.1525
33520W        W76536  17.613   3.290  15.358 -0.0862 -0.0815  0.3199
33521W        W76537  29.885  12.115   5.954  0.1782 -0.0315 -0.1186
33522W        W76538  32.009  16.028   7.271  0.0839  0.0564  0.1854
33523W        W76539  27.984  17.151  23.969  0.3106 -0.4563 -0.0424
33524W        W76540  22.400  10.652   4.059  0.0095  0.1227 -0.2784
33525W        W76541   3.998  17.131  15.945 -0.1022  0.1664  0.1635
33526W        W76542  22.661  19.425   9.035  0.0883 -0.0349  0.1138
33527W        W76543  16.648  16.323   3.439  0.2041  0.0145 -0.1811
33528W        W76544  24.681  12.000   0.200  0.0379 -0.3367 -0.0357
33529W        W76545   7.087  24.075   1.349 -0.0504 -0.0976  0.3487
33530W        W76546  32.756  27.345  10.168 -0.0637  0.2632 -0.2518
33531W        W76547   7.204  28.803   8.650 -0.0106  0.0288 -0.0476
33532W        W76548  24.764   7.528   5.330  0.0311  0.2524  0.1038
33533W        W76549  29.782  24.427   8.612  0.2523  0.1897 -0.0965
33534W        W76550  33.954  23.377   3.504  0.0947  0.1572  0.1472
33535W        W76551  23.728  24.601   9.192  0.2799 -0.3246 -0.1555
33536W        W76552  24.448   3.531   1.956  0.4298 -0.1381 -0.0809
33537W        W76553  26.635   8.865  22.106  0.1931  0.2681 -0.3588
33538W        W76554   7.029  10.548  21.050  0.2413  0.1718 -0.0542
33539W        W76555  28.384   8.198   5.208 -0.0110  0.0805 -0.1439
33540W        W76556   2.603  13.828  28.686 -0.2070 -0.0913 -0.1029
33541W        W76557   3.228   7.704   9.205  0.0722 -0.1314 -0.0240
33542W        W76558  30.027  11.844  16.836 -0.0561 -0.1059 -0.1419
33543W        W76559  26.715   9.638   9.627  0.0583  0.1382 -0.0505
33544W        W76560  17.109  14.960  28.675 -0.2752 -0.0942  0.2808
33545W        W76561  30.058   7.594  29.024  0.0881  0.0899 -0.2765
33546W        W76562  29.862   5.985  10.213 -0.2915 -0.2241  0.3766
33547W        W76563  27.862   8.266   5.872  0.0773  0.0254 -0.2491
33548W        W76564  17.530  25.846   0.894  0.0561 -0.1698 -0.0232
33549W        W76565  31.349  15.800   9.737 -0.0226 -0.3881  0.0974
33550W        W76566  27.271  21.379  11.134 -0.0788 -0.3712 -0.0941
33551W        W76567  28.319  34.058   7.221  0.0899 -0.0293 -0.0152
33552W        W76568  22.653  13.525  23.070  0.1264  0.1060  0.0233
33553W        W76569  29.883  15.716  10.414  0.1401  0.3755  0.0300
33554W        W76570  19.502  16.401   2.168  0.2117  0.0634  0.0067
33555W        W76571   7.636  34.262   4.159 -0.2096 -0.2967 -0.0371
33556W        W76572  28.648   1.898  29.068 -0.2419  0.0098 -0.1670
33557W        W76573  31.476  21.784  18.239  0.2324  0.3083 -0.1723
33558W        W76574   5.882   9.108   9.003  0.1856 -0.2346  0.1227
33559W        W76575   8.269  17.334   6.873 -0.0161 -0.0677  0.0075
33560W        W76576   7.711  26.886   2.594  0.1642  0.0650  0.0161
33561W        W76577  31.920   9.447  19.768 -0.1599  0.2322 -0.1670
33562W        W76578  17.739  22.805   4.197 -0.1820  0.0030 -0.0592
33563W        W76579  11.732  22.007   5.565 -0.0464 -0.2618  0.1543
33564W        W76580  31.733  17.062  27.002  0.1508  0.0339  0.1117
33565W        W76581   9.194  20.627  27.739 -0.0496 -0.3095 -0.1577
33566W        W76582  28.714   3.457   0.158  0.6418  0.2977  0.1538
33567W        W76583  10.223  18.709   9.004  0.0055 -0.1674 -0.0081
33568W        W76584  25.673  14.693  27.204  0.1129  0.0203  0.0983
33569W        W76585  25.036  32.882   9.824  0.0540  0.0945  0.0370
33570W        W76586  28.648  16.984  22.050 -0.0270 -0.0808 -0.0999
33571W        W76587   2.000  24.992  25.010  0.0896  0.1482  0.2475
33572W        W76588  22.504  19.228   6.250 -0.1553  0.1588 -0.2237
33573W        W76589   6.938  26.059   9.388 -0.3561 -0.3387  0.1866
33574W        W76590   8.902  25.469   2.180  0.0477  0.0992  0.2097
33575W        W76591  10.778  19.876  25.699  0.2824  0.0352 -0.0407
33576W        W76592  33.921   7.226   0.631 -0.0473 -0.0253 -0.0434
33577W        W76593  30.973   4.293  15.872 -0.0440 -0.0941 -0.0728
33578W        W76594   4.781  19.638   0.930  0.0389  0.0241 -0.0447
33579W        W76595   9.832   4.892  10.837 -0.0570 -0.1503 -0.0328
33580W        W76596   7.655  23.131   2.343  0.2142  0.0547 -0.1940
33581W        W76597  24.788  15.476   7.408  0.1501  0.2672 -0.1665
33582W        W76598  20.603  29.164   8.474  0.0269 -0.0774 -0.0053
33583W        W76599   1.317  28.997   1.899  0.0297 -0.3114 -0.2543
33584W        W76600  26.036   7.552  19.604 -0.0653  0.4770  0.0823
33585W        W76601  34.311  29.299  25.677 -0.0123  0.0473 -0.1372
33586W        W76602   1.715  19.484   7.321 -0.0706 -0.1867  0.0221
33587W        W76603  29.238   5.989  28.416  0.1983 -0.0642  0.2696
33588W        W76604   0.569  16.607  28.721  0.0873 -0.0387 -0.0964
33589W        W76605  12.035  10.936  28.883 -0.3781 -0.0624 -0.2447
33590W        W76606  18.031   5.707  25.723 -0.1908 -0.0454 -0.0206
33591W        W76607  19.214  33.828   6.622  0.0437 -0.1500 -0.2045
33592W        W76608   1.111  12.205   5.764 -0.0589  0.0392 -0.2027
33593W        W76609  20.403  19.829  25.973  0.2493 -0.0391  0.0302
33594W        W76610   4.626  12.850   1.776  0.1110 -0.0792 -0.2573
33595W        W76611  20.151  16.535  22.187 -0.0330 -0.0815  0.2313
33596W        W76612  27.791  18.966   5.674  0.0865 -0.1397  0.0702
33597W        W76613  33.146  23.843   8.615 -0.1283 -0.1302 -0.0482
33598W        W76614   6.770  12.533   1.395  0.1020 -0.3363  0.0477
33599W        W76615  28.134  33.355   2.390  0.1506 -0.1675 -0.1193
33600W        W76616   0.624  14.728  21.838  0.0303 -0.2734 -0.1994
33601W        W76617  12.955  24.295   7.285 -0.5621  0.2439  0.2784
33602W        W76618  32.946   3.154   9.523  0.0405 -0.0059  0.0651
33603W        W76619  30.006  16.776  18.711 -0.0618  0.1775  0.1453
33604W        W76620  27.484   9.348  20.856 -0.3635 -0.2165 -0.4488
33605W        W76621  25.190  31.023  15.713 -0.3525 -0.1567 -0.1897
33606W        W76622  33.690  18.128   0.062  0.0735  0.1853 -0.1744
33607W        W76623  21.521   4.896  25.375 -0.0219 -0.1093 -0.2610
33608W        W76624  24.133   7.657   4.265  0.2709  0.2138 -0.2323
33609W        W76625  30.874   6.949   1.610 -0.2269 -0.0499  0.3122
33610W        W76626  18.468   9.925  20.377 -0.0328  0.0556 -0.1066
33611W        W76627   1.006  19.302  22.414 -0.1698  0.0542  0.5579
33612W        W76628  24.325   1.633   4.111  0.2522 -0.0303 -0.0904
33613W        W76629   0.354   9.134   8.919 -0.0212  0.0561  0.1841
33614W        W76630  30.985  10.236  20.546  0.0371 -0.0805 -0.2066
33615W        W76631  12.642   0.750  18.040 -0.0170 -0.0857  0.4412
33616W        W76632  22.001   1.719  27.632 -0.2624  0.2148 -0.0176
33617W        W76633   8.291   6.038  19.885 -0.1801 -0.0368 -0.4175
33618W        W76634   1.740  13.697   9.890 -0.0781 -0.0391  0.1140
33619W        W76635   2.738  12.727   8.433  0.0706 -0.0619 -0.2264
33620W        W76636  26.510  10.680  23.031 -0.0583 -0.1368 -0.1593
33621W        W76637  19.139  14.736   0.059 -0.0678  0.1271 -0.0663
33622W        W76638   6.881   7.931   6.819 -0.2045 -0.0549 -0.0423
33623W        W76639  11.474  12.490  23.266  0.0813 -0.0099  0.1834
33624W        W76640  20.344  17.916   0.431 -0.0237 -0.2364  0.1099
33625W        W76641  30.585  20.624   4.051 -0.1911 -0.1904 -0.0722
33626W        W76642  22.276  21.386  24.948 -0.0808 -0.1023 -0.0674
33627W        W76643  27.923  27.288   1.493  0.2689 -0.0235 -0.2345
33628W        W76644  23.214  12.625   0.987  0.1259  0.4804  0.3672
33629W        W76645  29.990  10.553  15.061 -0.2006 -0.0097  0.0437
33630W        W76646  30.526  27.028   0.467 -0.0615  0.4378 -0.0294
33631W        W76647  13.941  29.895   1.581  0.1655 -0.2993 -0.1061
33632W        W76648   4.695   1.610  16.904  0.1315  0.0048 -0.0473
33633W        W76649  16.589   9.590   1.193 -0.2486  0.0785 -0.0594
33634W        W76650   9.906  33.980   7.887 -0.1864 -0.0553 -0.2420
33635W        W76651  22.967   6.897   1.229 -0.0421  0.1020  0.0624
33636W        W76652  10.113  33.327  29.178 -0.1026 -0.4103 -0.1513
33637W        W76653   4.519  34.604   0.496  0.0205 -0.0661 -0.0859
33638W        W76654  29.820  18.412   9.105  0.1510 -0.0898  0.0455
33639W        W76655  21.987  14.871  26.846 -0.2663 -0.2564  0.1729
33640W        W76656  30.860  31.896  11.294 -0.0055  0.1021 -0.2586
33641W        W76657   2.332  11.512  23.396 -0.3429  0.1628  0.1240
33642W        W76658  24.136  13.690  18.965 -0.1865  0.2494  0.2418
33643W        W76659  33.392  30.582  10.481  0.2410 -0.0883  0.2215
33644W        W76660   7.582   7.217   9.459  0.1171  0.1375 -0.0502
33645W        W76661  18.648  27.006   9.635  0.0918  0.3061 -0.1936
33646W        W76662  17.088  28.339   9.500  0.0835  0.4606 -0.0871
33647W        W76663  15.031  11.473  16.746 -0.2907  0.1146 -0.0209
33648W        W76664   1.246  26.092   9.051  0.1807 -0.0171 -0.0280
33649W        W76665  19.716   9.576  14.364  0.1851  0.0502 -0.1942
33650W        W76666  33.055   9.765  21.409 -0.0312 -0.0168 -0.0171
33651W        W76667  21.008  28.366   8.773 -0.1578  0.0036 -0.0040
33652W        W76668  24.555  20.509   5.132  0.0009  0.0525  0.1175
33653W        W76669   6.083  16.000   4.284  0.0805  0.1207  0.0032
33654W        W76670  33.251   6.097  18.654  0.3444 -0.2462 -0.2697
33655W        W76671  27.932  19.452   8.631  0.1406 -0.0902  0.0738
33656W        W76672  17.574  24.607   9.350  0.0285  0.0413 -0.0699
33657W        W76673  31.834   6.948   0.541 -0.0004  0.0656  0.0051
33658W        W76674  31.910   7.557  21.141  0.1287 -0.0318 -0.0280
33659W        W76675  12.694  23.662   7.898 -0.2781  0.0068 -0.1549
33660W        W76676  30.764  14.542   6.434 -0.0514 -0.2642 -0.0625
33661W        W76677  22.772   6.840   8.487 -0.1075 -0.1240 -0.2062
33662W        W76678   0.534  15.364   0.261  0.0048  0.0529  0.1695
33663W        W76679  30.869  24.295   4.205  0.0257  0.1315 -0.1607
33664W        W76680  33.072  14.209   4.374 -0.0811 -0.0170 -0.1199
33665W        W76681  21.152  13.701  14.018  0.3451  0.4090  0.1523
33666W        W76682  31.429  29.247  27.766  0.0023 -0.3140  0.1798
33667W        W76683  34.482   8.881   9.949 -0.1314  0.2415 -0.1841
33668W        W76684  18.883  22.937   7.147 -0.3207 -0.2935 -0.2460
33669W        W76685  24.088  31.784  11.743 -0.0386 -0.1851 -0.3685
33670W        W76686  19.865  10.005   1.537 -0.0610 -0.0424  0.0201
33671W        W76687  28.719  25.453   1.473 -0.1888 -0.0471  0.1914
33672W        W76688  27.923   6.745   8.774 -0.1610 -0.2087  0.1480
33673W        W76689  19.687   8.227   4.418  0.1925  0.0192  0.1667
33674W        W76690  11.686  31.470   1.289  0.5984  0.0615 -0.1849
33675W        W76691  19.856  10.730   1.317 -0.1831  0.1019 -0.0103
33676W        W76692  12.273  27.069  28.760 -0.3438 -0.0490  0.1549
33677W        W76693  23.900  20.351   5.792  0.1586  0.1234 -0.1048
33678W        W76694  20.436  16.100   5.681 -0.3484  0.3533  0.1367
33679W        W76695  16.969  17.138   7.252  0.0394  0.0849 -0.0877
33680W        W76696  22.979  13.953  23.843  0.1483 -0.1389 -0.2869
33681W        W76697  19.123  18.118   2.779  0.0153 -0.1387  0.0746
33682W        W76698  25.342  15.166   0.421 -0.0289 -0.0337 -0.1948
33683W        W76699  15.242  20.087   0.903 -0.3856 -0.0217  0.2812
33684W        W76700  17.216   4.956   8.766  0.3979  0.4111 -0.0448
33685W        W76701  24.489   7.734   7.466  0.0386 -0.0490 -0.0028
33686W        W76702  27.774  32.542  26.051  0.1804 -0.1615  0.3213
33687W        W76703   4.646  30.424   5.185  0.2001  0.0791  0.1135
33688W        W76704  33.801  21.080   5.988  0.3841 -0.2537  0.0202
33689W        W76705  27.205   3.175   7.488  0.1805  0.0124 -0.3657
33690W        W76706   8.793   9.495  28.833  0.2643  0.0444 -0.1429
33691W        W76707  29.974   0.886  25.734 -0.3321 -0.0794 -0.2715
33692W        W76708  22.977  19.804  28.470 -0.0695 -0.1325  0.1305
33693W        W76709   4.090  18.596  24.963 -0.0249  0.0836  0.1917
33694W        W76710  21.992   0.857  26.462 -0.0710 -0.0671 -0.2112
33695W        W76711   3.856   5.310  18.332 -0.3328 -0.3837  0.1123
33696W        W76712  26.383  14.133   9.367 -0.1803 -0.2082  0.1092
33697W        W76713  23.184  23.450   9.425  0.2343  0.1585  0.0447
33698W        W76714  10.133  18.917  28.151 -0.0777  0.0984 -0.1176
33699W        W76715  34.295  17.073   1.426 -0.0800  0.2093 -0.0083
33700W        W76716   2.263  13.660  24.828 -0.0857 -0.0144  0.0048
33701W        W76717  29.471  13.907   6.554 -0.1214 -0.2536 -0.0443
33702W        W76718  19.152   9.455  22.120 -0.2384  0.1707 -0.4070
33703W        W76719   9.189   8.397   6.462  0.0840 -0.2015  0.1126
33704W        W76720  23.693  25.212   4.702  0.0812  0.3209 -0.0922
33705W        W76721   5.145   0.222   6.848 -0.0790  0.0044 -0.1593
33706W        W76722  33.449   3.615  22.992 -0.1717 -0.3485  0.0138
33707W        W76723  24.954  16.362   6.145  0.0026 -0.0764  0.1031
33708W        W76724  32.409  15.611   1.983 -0.2033  0.0056 -0.0621
33709W        W76725  22.116  23.067   3.101  0.0567 -0.1585  0.1399
33710W        W76726   3.584  23.474   5.087  0.2300  0.2118 -0.2916
33711W        W76727   7.889  16.802   2.953 -0.2520  0.0063  0.1666
33712W        W76728   0.505  24.699   3.551 -0.2026 -0.0098 -0.1273
33713W        W76729  18.814  24.100   8.709  0.1704 -0.1423  0.0571
33714W        W76730  19.346  22.593  17.876  0.1523  0.0613 -0.1593
33715W        W76731  20.180  29.356   8.256  0.0459 -0.0497 -0.0884
33716W        W76732   4.601  10.561  20.540 -0.4644  0.2076  0.0973
33717W        W76733  11.628  16.883  28.745  0.0121  0.1284  0.2301
33718W        W76734  24.831  20.421   6.934  0.3415 -0.2077  0.2935
33719W        W76735  25.833  19.244  19.763 -0.1207 -0.0271 -0.0553
33720W        W76736  32.756   3.428   3.495  0.2260 -0.3296  0.0964
33721W        W76737  27.220  31.389   2.246  0.0831 -0.2494  0.0725
33722W        W76738  23.488   5.456  26.362 -0.0102 -0.3587  0.0107
33723W        W76739  21.868  20.604   6.598 -0.1298 -0.1527 -0.1751
33724W        W76740  31.805  33.477   6.977  0.1847  0.0199  0.0063
33725W        W76741  28.858  22.487  26.239  0.1082  0.2116  0.1316
33726W        W76742   2.381  26.431   5.728  0.0123  0.0239 -0.0096
33727W        W76743  30.681  20.539  29.116  0.3366  0.0244  0.1390
33728W        W76744   5.557  20.749   5.688  0.0051 -0.1680 -0.1659
33729W        W76745   7.990  29.840   8.432 -0.1482 -0.0604 -0.0751
33730W        W76746  21.312   3.661   5.828  0.2465  0.3038 -0.2367
33731W        W76747   3.786  10.252   2.062  0.0017 -0.1920  0.2102
33732W        W76748  27.067  16.593  26.050 -0.2337  0.0542 -0.1677
33733W        W76749  14.435  24.651   5.342  0.1315 -0.1136 -0.3915
33734W        W76750   2.810  20.641  10.494 -0.1126 -0.0492 -0.1266
33735W        W76751  32.341  20.065   6.302 -0.2138  0.0032 -0.1815
33736W        W76752  30.615  16.398  27.123 -0.3239 -0.1487 -0.0817
33737W        W76753  26.252  33.451  20.146 -0.2781  0.1789  0.1490
33738W        W76754  31.618   5.375   8.063  0.0326 -0.0146 -0.0286
33739W        W76755  25.521  16.000  18.737 -0.0156 -0.2447  0.2036
33740W        W76756   1.791   6.410  24.437  0.2114  0.2200  0.1535
33741W        W76757  34.291  17.722   0.430  0.0104 -0.1765  0.2456
33742W        W76758  28.896  14.899  24.651 -0.3098  0.2989  0.1175
33743W        W76759   5.298   9.893  22.332  0.3265 -0.0513  0.0062
33744W        W76760  19.127   4.945   5.217  0.3268 -0.3157  0.0988
33745W        W76761  22.948   5.969  15.290 -0.0452  0.1009 -0.0758
33746W        W76762  18.073  29.576   1.502 -0.3748  0.0042  0.1659
33747W        W76763   3.984  14.242   9.032  0.0574 -0.0651 -0.1013
33748W        W76764  25.597  20.810  29.011  0.0899 -0.0710  0.0959
33749W        W76765  29.494   2.041  28.055  0.2932  0.0126 -0.1994
33750W        W76766  26.136  29.642   0.969  0.4327 -0.1991  0.0931
33751W        W76767  24.949   5.277  10.542 -0.0747 -0.1425  0.1497
33752W        W76768  20.951  12.120   2.598 -0.0136 -0.0456 -0.0548
33753W        W76769  27.891  19.142   8.252 -0.2888 -0.0701 -0.3806
33754W        W76770  29.679  15.334   3.281 -0.2908  0.0816  0.0366
33755W        W76771  18.994  25.850  23.431  0.0769  0.0410 -0.1015
33756W        W76772  16.188  16.546  18.168  0.0668  0.1476 -0.2637
33757W        W76773  12.650  15.394  24.735  0.0087  0.2737 -0.2609
33758W        W76774  25.822   7.961   7.874 -0.0579  0.0501 -0.0141
33759W        W76775   5.864  23.084   6.967  0.1227  0.2636  0.2893
33760W        W76776   2.981  19.600  25.816 -0.1000 -0.1062 -0.0133
33761W        W76777  24.679   7.553   6.555  0.1497 -0.1607 -0.0427
33762W        W76778  16.130  10.714   5.609 -0.0284 -0.5023  0.3913
33763W        W76779   5.936   3.701  10.231 -0.0020 -0.0313 -0.0324
33764W        W76780  31.118  23.297   1.770 -0.0465 -0.1582  0.0548
33765W        W76781   7.856  30.049  26.964  0.1602  0.0504  0.2102
33766W        W76782   1.422  22.930   1.802  0.0525  0.0280 -0.0565
33767W        W76783  32.954   6.514   1.313 -0.0871 -0.2051 -0.0832
33768W        W76784  31.608  15.195  17.793 -0.1937  0.1850  0.2489
33769W        W76785   1.431  13.841   3.170  0.0980 -0.2102  0.1539
33770W        W76786  25.930  10.860   0.069 -0.0615  0.1892 -0.2338
33771W        W76787  25.285  18.753   0.834 -0.0751 -0.0575  0.1995
33772W        W76788  19.494   6.584  26.665  0.0083 -0.2276  0.1003
33773W        W76789  21.958   6.354   5.212  0.0090 -0.0496  0.0822
33774W        W76790  15.129   1.091   2.048  0.1042 -0.2156  0.0495
33775W        W76791  22.905  32.544   7.190 -0.1811  0.0567 -0.0024
33776W        W76792  31.587   4.820   8.184  0.1265  0.0182  0.2467
33777W        W76793  18.856  18.709   8.291 -0.0168  0.2024 -0.0107
33778W        W76794  19.770  20.520   5.056  0.0034 -0.0623 -0.1304
33779W        W76795  27.604  11.052  25.102  0.0887  0.0572  0.0404
33780W        W76796   3.047  13.919   5.899  0.0667  0.3187 -0.0818
33781W        W76797   8.502  18.062   7.890 -0.0173 -0.3300 -0.2375
33782W        W76798  16.745  10.212   1.778  0.0860  0.2627  0.2331
33783W        W76799   6.683  10.587   1.217 -0.1618  0.5256  0.2104
33784W        W76800   5.170   8.569  26.146  0.2632 -0.3420 -0.1082
33785W        W76801  15.211   7.490  29.089  0.0964  0.2381 -0.0281
33786W        W76802  28.003   9.829   2.848  0.0516  0.1018 -0.0505
33787W        W76803  24.163   0.799   2.697  0.3393 -0.0821  0.0268
33788W        W76804   4.561  26.140   8.699  0.0417  0.2174 -0.0327
33789W        W76805  23.755  21.768   0.617  0.2252 -0.3890 -0.1798
33790W        W76806  30.220  29.431   9.314 -0.0897 -0.0295  0.1737
33791W        W76807  28.673  10.588   7.905  0.0784  0.0970  0.1094
33792W        W76808  26.780  11.240   3.010 -0.0989 -0.0921  0.1887
33793W        W76809  11.171  20.834   4.703  0.0286 -0.0960 -0.0620
33794W        W76810  11.316  11.198  25.819  0.0321  0.0640 -0.2362
33795W        W76811  27.741  22.852   1.703 -0.0370 -0.1673  0.0422
33796W        W76812  23.789  15.527   9.842 -0.2198 -0.1420  0.0559
33797W        W76813   7.255  25.613   8.839  0.0882 -0.1748 -0.0417
33798W        W76814  26.317   8.128   9.055  0.1657 -0.0247 -0.1906
33799W        W76815  10.845  11.039   9.377 -0.2841 -0.4140 -0.2112
33800W        W76816  31.732  19.447   2.802  0.1090  0.2740  0.2083
33801W        W76817  28.665   8.738   7.095 -0.1325  0.1312  0.0933
33802W        W76818  19.347  20.239  27.246 -0.0775 -0.5804  0.3788
33803W        W76819  17.165   3.308   8.261 -0.4763 -0.3897 -0.1220
33804W        W76820   5.524  22.482  22.347 -0.2994  0.1745  0.1343
33805W        W76821  26.806  32.355  11.358  0.0686  0.2104 -0.2654
33806W        W76822  16.898  11.259  25.541 -0.2633  0.0827  0.4205
33807W        W76823  20.072  11.870  13.681 -0.0322 -0.0985  0.1825
33808W        W76824  16.129  25.054   5.666  0.3696 -0.0500 -0.1804
33809W        W76825  22.306   9.271   7.896 -0.2957 -0.1381  0.0872
33810W        W76826  30.453   7.788   8.235 -0.0317 -0.1653 -0.0549
33811W        W76827   5.216  19.395   8.033  0.1512 -0.2375 -0.0530
33812W        W76828   3.216   5.800   7.598 -0.0398  0.1570  0.3025
33813W        W76829  22.785  28.155   4.706 -0.0538  0.0323 -0.2336
33814W        W76830  23.372   8.473   4.621  0.2044 -0.0564 -0.1182
33815W        W76831   1.318  11.022   6.277 -0.1387 -0.1978  0.2458
33816W        W76832  17.316  10.332   9.542 -0.1594 -0.0251  0.0656
33817W        W76833  30.287  16.930   7.618  0.1668  0.3512  0.0097
33818W        W76834   9.216  13.081   2.497  0.0066 -0.1576 -0.1772
33819W        W76835  28.906  31.280   4.679  0.1971 -0.1020 -0.1156
33820W        W76836  28.721   7.203   6.019 -0.2773  0.1203 -0.0270
33821W        W76837  28.074  27.041  11.303 -0.0984  0.1256 -0.0385
33822W        W76838  30.639   9.109  25.636 -0.1823 -0.0852 -0.4492
33823W        W76839  24.120  25.863   2.841 -0.1961 -0.0606  0.0946
33824W        W76840  25.030  25.541  10.109  0.1957 -0.0920  0.0056
33825W        W76841  34.587  13.957   7.552  0.0741  0.2371  0.0549
33826W        W76842  25.366  10.005   8.690  0.1372  0.0164 -0.0483
33827W        W76843  13.827  11.271  18.199 -0.0664 -0.2155 -0.0659
33828W        W76844  16.662  19.017  21.206  0.1548 -0.1108 -0.1730
33829W        W76845  33.084  17.329  11.330  0.0636 -0.2013 -0.2793
33830W        W76846   3.238  10.583   4.032 -0.0089  0.2429 -0.0268
33831W        W76847   4.206  34.056  26.000  0.3739 -0.1101  0.2101
33832W        W76848  26.430  33.274  11.363  0.0062  0.0183  0.0432
33833W        W76849  12.110   3.536   5.579 -0.3177 -0.1395  0.2384
33834W        W76850  22.331   8.300   1.313 -0.1169 -0.1404  0.0065
33835W        W76851   0.262  25.131  23.626  0.3491 -0.3252 -0.1833
33836W        W76852  31.021  15.057  10.077 -0.1685 -0.1471  0.1424
33837W        W76853  25.414   9.003   8.560  0.3386 -0.0516  0.0045
33838W        W76854   5.538  15.865  16.553 -0.2127  0.0635  0.1865
33839W        W76855  30.069  14.631   4.504 -0.1328  0.0853 -0.0717
33840W        W76856  10.325  11.805   9.380  0.1067  0.1643 -0.0834
33841W        W76857  31.988   3.932   3.723 -0.0780  0.0207  0.0581
33842W        W76858  18.946  11.568   7.712 -0.1222 -0.0339  0.1231
33843W        W76859  20.434   8.115   2.524 -0.0237 -0.0188 -0.0303
33844W        W76860  10.283  22.043   6.839  0.2881  0.0860 -0.0036
33845W        W76861   0.603  14.793  28.582  0.2392 -0.4704 -0.0495
33846W        W76862  19.654  18.050   2.921 -0.0721  0.0199  0.0369
33847W        W76863  15.559  20.771   7.545  0.0450  0.0814  0.0820
33848W        W76864   9.095   2.764   5.837 -0.0191 -0.3773 -0.2063
33849W        W76865  31.144  27.081   5.343 -0.2671  0.2299 -0.1857
33850W        W76866  24.539  24.714   2.231  0.2181 -0.2357 -0.0027
33851W        W76867  25.868  27.618   9.656  0.0881 -0.1340  0.0176
33852W        W76868  18.179  10.861   0.960 -0.3344  0.1814  0.0874
33853W        W76869  21.849   9.795   4.925 -0.1365  0.3476 -0.0855
33854W        W76870  26.745  10.767  24.601 -0.0307 -0.2126 -0.2444
33855W        W76871  31.938  14.715  22.359 -0.4672 -0.0924  0.1706
33856W        W76872  15.524  19.897   2.575  0.1561 -0.1502  0.1295
33857W        W76873  25.576   9.718   9.056  0.3617  0.1417  0.1741
33858W        W76874  11.151  21.330   8.360  0.0534 -0.1682 -0.0915
33859W        W76875  24.685  17.214   6.645 -0.1394  0.3433  0.2336
33860W        W76876  32.004  27.735   0.068 -0.4126 -0.0939  0.1130
33861W        W76877  27.919  22.513  23.218 -0.3502 -0.1717 -0.0228
33862W        W76878  25.837  16.494   0.203  0.0006 -0.1676  0.0782
33863W        W76879  31.654   9.864   9.263  0.3985  0.1923  0.0924
33864W        W76880  22.754  12.445   2.377  0.0471  0.0500  0.2696
33865W        W76881  28.037  13.402   9.875 -0.3470  0.0937  0.2503
33866W        W76882  17.933  34.368   4.018  0.2551 -0.0760 -0.1327
33867W        W76883  31.230  28.846  18.401  0.1228  0.2186 -0.0418
33868W        W76884  18.736  18.419   2.774 -0.0700  0.2334  0.0322
33869W        W76885  34.268   9.197   4.551 -0.0138  0.0056 -0.3643
33870W        W76886  30.212  15.243  10.560 -0.1193  0.0488 -0.2604
33871W        W76887   3.600  34.226  24.265 -0.0783 -0.3648  0.0874
33872W        W76888  33.795  17.038  10.742  0.1104  0.3311 -0.0433
33873W        W76889   0.653   8.672  24.144  0.1518  0.0097 -0.4319
33874W        W76890  26.250   0.591   7.345  0.3239  0.4089 -0.0737
33875W        W76891  25.501   9.478  27.907  0.2040  0.0276  0.1782
33876W        W76892  32.049   9.830   8.615  0.1947  0.0872  0.2333
33877W        W76893  14.861  34.017   0.324  0.1005  0.1409  0.0441
33878W        W76894   4.320  30.557  17.728  0.0691 -0.0354 -0.0417
33879W        W76895  17.926   8.120  26.336  0.0611  0.2141  0.3197
33880W        W76896   6.138  26.899   6.770  0.2683 -0.0482 -0.0163
33881W        W76897  24.054  12.600   9.798  0.1639  0.0687  0.0863
33882W        W76898  31.025   4.136  27.849  0.2331  0.0424 -0.2092
33883W        W76899  21.454   5.586   8.908 -0.2419  0.1993 -0.0694
33884W        W76900  26.527   9.296  25.643 -0.1736  0.0123 -0.1836
33885W        W76901  25.100  20.258   6.366  0.2031  0.0017 -0.1203
33886W        W76902  31.112  21.336   3.062  0.0540 -0.1185 -0.2473
33887W        W76903  19.810   3.662   4.739  0.0660  0.1533 -0.0197
33888W        W76904  27.539  12.334   5.205 -0.1128  0.2759 -0.4664
33889W        W76905  19.947   5.155   7.186  0.0963  0.1122  0.2354
33890W        W76906  24.001   4.301   7.255 -0.0868 -0.1351  0.0267
33891W        W76907  31.930  14.013   9.932 -0.0092 -0.0005  0.0965
33892W        W76908  27.527  32.347  22.243 -0.4357 -0.1939 -0.1725
33893W        W76909  31.873   5.065   0.508 -0.0382 -0.1632 -0.1213
33894W        W76910  29.433  17.359   8.607  0.0692  0.1354 -0.1722
33895W        W76911  19.876  18.000   4.875  0.0161  0.3156 -0.2921
33896W        W76912  29.447   3.004   9.659 -0.2719  0.0582 -0.2085
33897W        W76913  28.767  11.314   9.270 -0.1165 -0.1526 -0.0876
33898W        W76914  29.391   7.777   6.007  0.0502 -0.0374 -0.0297
33899W        W76915  27.766  15.899   7.623 -0.1447 -0.3521 -0.2996
33900W        W76916  30.025  15.628  28.937  0.1086 -0.0695  0.2825
33901W        W76917  29.518  10.165   8.807  0.1294 -0.0296  0.0383
33902W        W76918  26.200  11.269   5.912  0.1432  0.1789 -0.0516
33903W        W76919  16.555   4.634   5.320  0.1360 -0.1449 -0.1772
33904W        W76920   1.116  21.786   5.078  0.0527 -0.2502  0.2252
33905W        W76921  16.930  31.309   6.089 -0.0451 -0.3927 -0.2194
33906W        W76922  24.910  18.384   0.234 -0.1934  0.1098 -0.2605
33907W        W76923  18.002  20.960   8.722  0.3652 -0.1500  0.0108
33908W        W76924  24.713   6.361   3.611  0.1097  0.0858  0.0547
33909W        W76925  30.976  12.657   5.587 -0.1125  0.2112  0.1707
33910W        W76926  30.131   1.608  16.838  0.6370  0.0208 -0.2910
33911W        W76927   8.132   8.455   2.475 -0.2136 -0.0491  0.0171
33912W        W76928  29.488   2.115   1.900  0.0553 -0.3002  0.5502
33913W        W76929  22.255   1.308   1.829 -0.0509 -0.1770 -0.0762
33914W        W76930  34.770  30.097  25.138 -0.1350 -0.2349  0.1244
33915W        W76931  32.454  17.121  22.122  0.2587 -0.1452  0.0960
33916W        W76932   5.644  14.228   3.544 -0.1344 -0.2079  0.2164
33917W        W76933   3.715  20.509   2.551 -0.1939  0.2389  0.1616
33918W        W76934  23.132  18.267   2.259  0.1364  0.0551  0.0004
33919W        W76935  23.498  18.496   6.351  0.0065  0.0097  0.1467
33920W        W76936  20.943  10.718   4.614 -0.3310  0.1301 -0.0875
33921W        W76937  23.510  17.511   2.114  0.2470  0.0217  0.0211
33922W        W76938   6.500   1.833  26.433 -0.0369  0.1236  0.3916
33923W        W76939  26.365  19.888   7.924  0.1743  0.0375  0.0163
33924W        W76940  28.834  18.984   9.970  0.0302  0.0847  0.2019
33925W        W76941  32.333  29.854  11.578 -0.1562  0.1802  0.5209
33926W        W76942  19.947  19.159   5.063  0.0851  0.1025  0.2796
33927W        W76943  29.346   3.250  21.783 -0.1905 -0.1468 -0.0661
33928W        W76944  27.991  19.885   6.933  0.0741 -0.1245  0.3659
33929W        W76945  19.662   0.993   7.950 -0.0135 -0.1388 -0.5137
33930W        W76946  29.024  15.379   9.399  0.0156  0.1008 -0.1665
33931W        W76947   5.178   9.378   5.580 -0.2575  0.3188 -0.4695
33932W        W76948  34.478  11.600   8.923  0.2460 -0.3480 -0.3577
33933W        W76949  28.421  12.159   7.147 -0.0434  0.1621  0.0616
33934W        W76950  33.722  32.257   8.700 -0.3421 -0.0425  0.1951
33935W        W76951  14.227  12.988  12.754  0.0994  0.1825  0.3767
33936W        W76952  28.357  18.784   6.222  0.1648  0.0901 -0.0169
33937W        W76953   5.826  18.482  26.593 -0.0274  0.0085  0.0074
33938W        W76954  16.837  10.076   4.136 -0.1165 -0.3609  0.0079
33939W        W76955   5.446  19.983   6.695 -0.0168  0.1526 -0.2026
33940W        W76956  34.058  15.947   1.873  0.3560  0.0238  0.2872
33941W        W76957  31.565   2.689   3.807  0.0153 -0.0397  0.1465
33942W        W76958  23.743  22.965   7.212 -0.4117 -0.1853  0.0351
33943W        W76959  27.943  15.526   9.127 -0.3339  0.0298  0.0678
33944W        W76960   5.828   5.326  10.235  0.1363 -0.2100 -0.2031
33945W        W76961  33.417  12.794  27.082  0.2309 -0.1110 -0.2413
33946W        W76962  28.943   4.341   3.428  0.0043 -0.1509  0.1689
33947W        W76963  29.529  16.349  24.567  0.1061 -0.0783 -0.0144
33948W        W76964  30.912   5.925   2.437  0.2470 -0.2689 -0.1698
33949W        W76965  29.073   6.368  10.158  0.1568  0.0791 -0.0130
33950W        W76966  17.510  12.974  28.648 -0.1154  0.1763 -0.0430
33951W        W76967  20.884  21.876  25.218 -0.1412 -0.3390  0.2660
33952W        W76968   8.913  24.557  24.029  0.1849 -0.0530  0.0663
33953W        W76969  31.991   9.246   8.022  0.3753  0.3540  0.2634
33954W        W76970  19.250  20.636   0.780  0.2666 -0.1666  0.1373
33955W        W76971  21.090  28.057   3.749 -0.1112 -0.2792  0.0409
33956W        W76972  23.853   6.874   3.646  0.1168 -0.1604 -0.2147
33957W        W76973  16.070  24.327   7.378 -0.2114 -0.1710 -0.2687
33958W        W76974  24.904  11.170   3.892  0.2262  0.1153 -0.0787
33959W        W76975  30.724   8.695  18.334 -0.0431  0.1412 -0.0165
33960W        W76976   7.419   6.233   9.678 -0.1902 -0.1375  0.1828
33961W        W76977  11.980  11.796   7.952  0.2084 -0.0937 -0.1411
33962W        W76978   2.292  26.932   8.456 -0.0567  0.1587  0.0250
33963W        W76979  31.222  20.658   9.974 -0.1547  0.3038 -0.3385
33964W        W76980  32.801  18.857  10.600 -0.0667  0.1388  0.1452
33965W        W76981   3.648   8.563   5.894 -0.1297 -0.0298 -0.1092
33966W        W76982   4.272   5.551   3.217  0.0924  0.0574 -0.2855
33967W        W76983   5.355  14.511   0.618  0.0780  0.0214  0.0935
33968W        W76984   2.098  27.262   8.039  0.2424 -0.1739  0.0422
33969W        W76985  22.272   2.869   8.210 -0.2971  0.1285  0.1577
33970W        W76986  15.653  29.584   8.646 -0.0356 -0.2870  0.2716
33971W        W76987   7.066  13.525   6.919 -0.1565 -0.0858  0.1998
33972W        W76988   6.157  18.071   5.989 -0.0133  0.2292 -0.1179
33973W        W76989  25.768  11.190   7.185  0.0197  0.3414  0.0682
33974W        W76990  19.500  12.826   6.400  0.1561  0.0462 -0.0616
33975W        W76991  19.132  12.169  28.665 -0.0735 -0.0165  0.0171
33976W        W76992   6.257  14.243   9.675  0.1196 -0.0001 -0.0151
33977W        W76993  29.312  15.350   4.970  0.0362 -0.2055  0.1335
33978W        W76994  24.090  13.192  28.331 -0.0902  0.1001 -0.1790
33979W        W76995  13.175  27.655   0.612 -0.2778 -0.1653  0.3135
33980W        W76996  25.954  29.843  23.893  0.1154  0.1156 -0.0148
33981W        W76997   1.176   3.186   9.538 -0.2330  0.2425  0.2574
33982W        W76998  34.440   3.954  21.070 -0.0066 -0.1705  0.0854
33983W        W76999  29.763  10.660   3.388  0.0407  0.1334  0.1672
33984W        W77000  21.215   5.604   4.195 -0.0876 -0.0116  0.1151
33985W        W77001  25.888   0.417  11.786 -0.1809 -0.2652 -0.1453
33986W        W77002  20.677  29.728   9.556  0.0309 -0.1700 -0.0786
33987W        W77003  25.652  20.753   7.125 -0.1139  0.2719 -0.1130
33988W        W77004  29.778  15.504  22.567 -0.1716 -0.0759 -0.1734
33989W        W77005   1.467  18.521   9.221 -0.0378 -0.4941 -0.1726
33990W        W77006  29.828  10.134   4.153  0.3959 -0.3199 -0.1460
33991W        W77007  17.707   8.233  27.406 -0.0224 -0.0082  0.0744
33992W        W77008   9.223   8.215   8.264 -0.2041 -0.0599  0.1502
33993W        W77009  31.148  12.744   2.237 -0.0181  0.1955  0.1018
33994W        W77010   2.726  21.154   8.525 -0.3939  0.1503 -0.0438
33995W        W77011  21.356  10.255  26.050  0.1249  0.2054 -0.4909
33996W        W77012   9.727   4.002   7.841  0.1228 -0.0265 -0.0288
33997W        W77013   1.793  12.586   5.377 -0.0456 -0.2879 -0.1470
33998W        W77014  27.370   9.819   5.443  0.0217  0.3877 -0.2323
33999W        W77015  16.581  10.864   6.156  0.2228  0.0716 -0.0605
34000W        W77016  22.889  16.421   6.271 -0.2568  0.0234  0.0498
34001W        W77017  28.409  19.607  22.788  0.2124 -0.1559  0.0990
34002W        W77018  19.768  33.808  10.058  0.1036 -0.0964 -0.0456
34003W        W77019  17.188  32.465   1.511  0.2296  0.1777 -0.1496
34004W        W77020  26.219  32.540   3.817  0.2325 -0.2192  0.1728
34005W        W77021  30.647  17.433  22.856  0.1739 -0.0150 -0.1386
34006W        W77022  16.707  17.240   1.618  0.1679  0.0601  0.0842
34007W        W77023  12.181   9.230   1.710  0.1899  0.0425  0.0725
34008W        W77024  16.283  18.951   4.180  0.1972 -0.2351 -0.0775
34009W        W77025  24.350  12.316   6.201  0.1865 -0.0055  0.0795
34010W        W77026   5.615  18.617   3.248  0.2444  0.0711  0.0964
34011W        W77027  11.143  34.624   0.853 -0.1650 -0.1382 -0.1795
34012W        W77028  17.501  10.608   2.308 -0.3121 -0.1300  0.1661
34013W        W77029  27.381  32.683   9.821 -0.2501  0.3227  0.0181
34014W        W77030  14.013  24.599  28.400 -0.3271  0.1132 -0.1582
34015W        W77031  26.450  15.230   4.854 -0.1188  0.1265 -0.1544
34016W        W77032  31.260   7.220   6.460 -0.2411 -0.1442  0.2548
34017W        W77033  24.046  10.442  26.645 -0.0667 -0.0890  0.0575
34018W        W77034   6.127  15.883   5.820  0.0184  0.4629 -0.2279
34019W        W77035  29.847  16.241  27.920 -0.0534  0.2049  0.2833
34020W        W77036  16.029  11.758  22.732  0.2625  0.3370 -0.3585
34021W        W77037  22.718  23.001   8.730  0.0708  0.1410 -0.0806
34022W        W77038  24.062   3.905   2.874  0.1485 -0.0189  0.0723
34023W        W77039  19.881  27.027  26.173  0.0096  0.1322 -0.1181
34024W        W77040  27.893  17.605   8.131  0.1479 -0.1424  0.1390
34025W        W77041  20.408   8.389   7.218  0.1026 -0.1472 -0.0943
34026W        W77042  26.013  11.003   4.943  0.1408  0.3728  0.0129
34027W        W77043  12.065   8.568   3.822 -0.2389 -0.1020 -0.0128
34028W        W77044  33.649  17.508  27.800 -0.2368  0.0523 -0.1441
34029W        W77045  28.205  15.450  23.454  0.0212  0.0391 -0.3766
34030W        W77046   5.819  20.202   9.656 -0.0806  0.1435  0.2227
34031W        W77047  22.976  18.206   1.206 -0.2265  0.0031 -0.0823
34032W        W77048  29.863   4.334  28.149  0.2024 -0.0100 -0.2138
34033W        W77049   0.067   4.833   1.198 -0.3713  0.0193  0.1176
34034W        W77050  32.681   9.177   8.298 -0.1706  0.1208  0.1011
34035W        W77051  30.513  15.555   2.751  0.1016  0.0205  0.3063
34036W        W77052  31.001  14.794   8.563  0.1166  0.0182  0.2300
34037W        W77053  27.312   7.897  11.135 -0.1020  0.2369 -0.4198
34038W        W77054  34.331   7.724  25.453  0.1286  0.0568 -0.0779
34039W        W77055  20.723  17.990   4.818  0.1108  0.2534  0.2770
34040W        W77056  33.299   2.116   5.757 -0.0250  0.2646  0.2502
34041W        W77057  16.119   6.971   9.549  0.1272 -0.1350 -0.2780
34042W        W77058  22.473   9.378   6.878  0.0141  0.5781  0.0648
34043W        W77059  32.758   3.903   8.149 -0.2012  0.0018  0.1068
34044W        W77060  29.323  16.512   9.734 -0.0014 -0.1346 -0.1733
34045W        W77061  32.916  16.369   5.763 -0.0193 -0.2155  0.1147
34046W        W77062  28.152   5.566  26.659  0.3251 -0.5090 -0.0509
34047W        W77063   0.551  13.269   1.736 -0.2384  0.1637 -0.1286
34048W        W77064  34.198  15.108   5.817  0.1262  0.0556 -0.1042
34049W        W77065  25.168   8.714   6.586  0.1500  0.2874 -0.0628
34050W        W77066  10.252  31.841   9.461  0.0123 -0.1497  0.3847
34051W        W77067   2.815  10.094   1.572  0.2063 -0.2203  0.1335
34052W        W77068   6.989  15.556   1.701  0.0898  0.0826  0.1202
34053W        W77069  13.468  15.219   7.463 -0.1100  0.2859  0.0159
34054W        W77070  17.672   7.781   5.547  0.0150 -0.0355  0.0656
34055W        W77071  25.165  16.965   8.837 -0.0129 -0.1526  0.0858
34056W        W77072   5.356  18.740   0.290 -0.1310 -0.1467 -0.3765
34057W        W77073  33.643  14.568   4.231 -0.1207  0.3361  0.0040
34058W        W77074  26.352   7.051   6.351 -0.1883  0.0284  0.0072
34059W        W77075  19.333  26.202   6.866 -0.1206 -0.0382  0.1113
34060W        W77076  32.294   7.905   6.109  0.3605 -0.2281 -0.0908
34061W        W77077  31.224  15.407   6.995 -0.0254 -0.2083 -0.1679
34062W        W77078   4.094  18.628  15.377  0.1638 -0.1179 -0.0370
34063W        W77079   2.942   7.470  21.152  0.2500 -0.1906  0.3649
34064W        W77080  30.123   4.168   0.716 -0.1690  0.1144 -0.1921
34065W        W77081  13.079  32.869   5.825  0.1240  0.3738  0.1285
34066W        W77082   0.565  14.587   9.638  0.0298 -0.0556 -0.0736
34067W        W77083  21.650   7.891   7.187  0.0331  0.1790 -0.2600
34068W        W77084  17.871  22.612   0.205  0.0325  0.0033 -0.0349
34069W        W77085  20.865   9.176   3.871 -0.0120  0.1171 -0.2833
34070W        W77086   6.502  15.928   3.464  0.4894 -0.3615 -0.0909
34071W        W77087  23.356  16.776   6.075  0.0418  0.0189  0.0356
34072W        W77088  11.108  19.643   3.834  0.2024 -0.0293 -0.0065
34073W        W77089  32.165  24.017   2.704 -0.1293 -0.1197  0.2105
34074W        W77090  21.220  28.693   6.952  0.0803  0.1148 -0.0480
34075W        W77091  10.838   1.589   1.474 -0.1125 -0.0768  0.1001
34076W        W77092  19.218  20.472  22.499  0.0444  0.1215 -0.0387
34077W        W77093  30.096   4.921  10.415  0.0077  0.1375  0.0988
34078W        W77094  28.704  12.539   0.369 -0.2125 -0.3705  0.1235
34079W        W77095   5.266  18.422   4.550  0.0355  0.4084  0.0057
34080W        W77096  21.434   7.442  27.614  0.3641 -0.0003  0.2885
34081W        W77097  17.184  25.924   3.044  0.1485  0.1571  0.0912
34082W        W77098  28.820  29.968   3.997  0.1323 -0.0098 -0.2357
34083W        W77099  24.936   1.636   5.830 -0.4229 -0.2486 -0.4148
34084W        W77100  28.229  29.398  10.178 -0.3085  0.0850  0.2401
34085W        W77101  32.187  21.141  26.898  0.0728 -0.0692 -0.1578
34086W        W77102  34.021   4.332   2.802 -0.4788 -0.2349  0.1120
34087W        W77103  17.588  16.328   1.700 -0.1342  0.0058  0.0325
34088W        W77104  31.733  11.162   9.954  0.0575  0.1101 -0.0401
34089W        W77105  19.816  10.824   5.504 -0.0914  0.1028  0.0851
34090W        W77106  25.881  15.126   4.459  0.0388 -0.0438  0.0450
34091W        W77107  21.412   9.821   9.268 -0.2713 -0.0442  0.1203
34092W        W77108  13.990   8.991   6.757 -0.0565  0.1251 -0.0102
34093W        W77109  25.042  18.384   2.842 -0.0433  0.1430 -0.4004
34094W        W77110  30.459   9.192  26.893  0.0835  0.0395  0.0153
34095W        W77111   2.432   7.519   5.606 -0.0347 -0.2220  0.1613
34096W        W77112  17.021   3.629  24.345  0.2246 -0.0788 -0.2093
34097W        W77113   0.384   5.132   7.267  0.1619 -0.0382  0.1991
34098W        W77114  11.523   5.036   3.398  0.1537  0.2023 -0.0802
34099W        W77115  32.555  32.411   2.456  0.1162  0.3607 -0.2474
34100W        W77116  26.708  16.624   3.638  0.0777 -0.0871  0.1041
34101W        W77117  27.015  11.480  10.539  0.0977 -0.2017 -0.3042
34102W        W77118   4.707  17.910   7.538  0.1877 -0.0659 -0.1737
34103W        W77119  15.355   9.687  23.591 -0.0010  0.1930  0.0199
34104W        W77120  32.977  15.516   8.442 -0.0895 -0.2369  0.1252
34105W        W77121  10.173  25.432   7.387 -0.0234  0.1119 -0.0542
34106W        W77122  34.147  19.955   5.895 -0.1502 -0.0035 -0.0899
34107W        W77123  31.656   5.415  27.235 -0.2361 -0.2409 -0.2337
34108W        W77124   5.186  26.628   4.808  0.0729 -0.1513  0.1350
34109W        W77125  21.978  19.079   0.421 -0.1307  0.0773 -0.0720
34110W        W77126  27.041  19.220   4.246  0.4734  0.0533 -0.0026
34111W        W77127  23.543   2.558   8.480 -0.0022  0.1287  0.0850
34112W        W77128  20.906  33.854   5.840 -0.0414  0.0453  0.0073
34113W        W77129   5.421  21.209  25.992 -0.0280 -0.1932  0.1109
34114W        W77130  16.933   9.749   1.635 -0.1950 -0.4032 -0.1658
34115W        W77131  20.783  12.918   3.906 -0.1784  0.0791  0.0779
34116W        W77132  16.318  16.537   6.799 -0.2770 -0.1550  0.1702
34117W        W77133   1.889  19.027   8.578 -0.0118 -0.4036 -0.1297
34118W        W77134  30.647  16.104  23.131 -0.0227  0.0699  0.2513
34119W        W77135  27.691  17.192   8.974 -0.3635 -0.2626 -0.1960
34120W        W77136  14.448  15.740  25.397  0.1452 -0.0499 -0.0636
34121W        W77137  24.053   3.802   6.100 -0.1433  0.0415 -0.2615
34122W        W77138   0.893  23.167  10.426  0.2389  0.4341 -0.0817
34123W        W77139  26.528  19.416   2.835  0.0169  0.2145 -0.1355
34124W        W77140   4.424  29.297  17.036  0.1759  0.1339 -0.0060
34125W        W77141  29.133  11.579  26.807 -0.4062 -0.3890  0.2413
34126W        W77142  24.086  10.796  27.034  0.0389  0.1374  0.2394
34127W        W77143   7.440  19.602  23.927 -0.1312 -0.5347  0.1986
34128W        W77144   9.884  19.389   8.472 -0.0880 -0.2065 -0.3290
34129W        W77145  24.027  27.632   4.338  0.0315 -0.1748 -0.0920
34130W        W77146  20.398   9.685   7.078 -0.1286 -0.1638 -0.0649
34131W        W77147  30.808  18.756   6.862 -0.1492  0.2440  0.1134
34132W        W77148  13.308  18.938   1.337  0.3954  0.2046 -0.0561
34133W        W77149   7.960   3.292   8.172 -0.0565  0.1800 -0.1615
34134W        W77150   3.021   2.697  28.065 -0.1613 -0.0516  0.0818
34135W        W77151  19.513  10.091   0.661  0.1964  0.1000 -0.0311
34136W        W77152  30.390  11.688  14.889  0.1135 -0.0536  0.0580
34137W        W77153  31.568  21.413   6.192  0.1129  0.0733  0.0481
34138W        W77154  12.906  16.739   8.382  0.0687  0.2464 -0.1253
34139W        W77155  20.853  23.035  28.166  0.0035 -0.2811 -0.0376
34140W        W77156  18.468  13.393  26.035 -0.0245 -0.1818  0.2674
34141W        W77157  22.852  21.466   0.435  0.3388  0.0607 -0.1556
34142W        W77158  34.497  15.959  10.152 -0.1364  0.2459 -0.1181
34143W        W77159  27.098   7.224   3.513  0.1096  0.3367 -0.2118
34144W        W77160  15.890   4.110  18.191 -0.1199  0.0651  0.1858
34145W        W77161  19.758   0.727  16.049  0.0444  0.0132 -0.1215
34146W        W77162   4.448  25.066   2.757 -0.0925  0.1502 -0.2907
34147W        W77163  14.448  22.729   5.511  0.0713 -0.2051  0.2908
34148W        W77164  25.714  26.193   4.773  0.1160 -0.3019 -0.0438
34149W        W77165  29.400   4.504  26.660 -0.0497 -0.0782  0.0498
34150W        W77166  34.291  14.227  28.127  0.2247  0.3045  0.1106
34151W        W77167  30.434  17.755  19.516 -0.4602 -0.2565 -0.5592
34152W        W77168  23.438  26.261   8.573  0.0096  0.0063 -0.1370
34153W        W77169  31.728  13.407   8.172  0.0367  0.0622 -0.0321
34154W        W77170  12.983   6.754   7.248 -0.0915  0.1008  0.2365
34155W        W77171  24.422  21.765  16.647 -0.2291  0.1114 -0.0211
34156W        W77172  34.449  13.676  17.029  0.1154  0.3333 -0.0549
34157W        W77173   1.930   4.552  21.334  0.1428 -0.0508 -0.2039
34158W        W77174  30.309   6.023  19.911 -0.1549 -0.1230  0.0911
34159W        W77175   6.420  16.921   8.982  0.0635 -0.1200  0.4101
34160W        W77176  16.358   5.099  24.615 -0.0058  0.0914 -0.0804
34161W        W77177  26.891  13.966  22.637  0.4853 -0.0160 -0.2401
34162W        W77178  24.237  26.770   8.640  0.1087  0.4129 -0.5131
34163W        W77179  21.941   2.632  27.967  0.4349  0.1205  0.1419
34164W        W77180  20.293   3.661   7.444  0.0109  0.2381 -0.0251
34165W        W77181   0.928  18.861  22.186  0.0490  0.0869  0.0177
34166W        W77182  29.176   6.856   3.071  0.2289 -0.1547  0.3700
34167W        W77183  27.948  24.519  27.419  0.0087  0.3285 -0.2881
34168W        W77184  24.486   5.264   9.574  0.3682  0.2747  0.1845
34169W        W77185  16.231  13.814   4.208  0.2427 -0.1194  0.0717
34170W        W77186  25.567   7.151  21.147  0.3412  0.1010  0.0764
34171W        W77187  27.831  29.524   9.842  0.1991  0.0614 -0.2251
34172W        W77188   0.561  12.506   7.376  0.3426  0.1997 -0.1009
34173W        W77189  21.635   7.389   2.367 -0.1975 -0.0501 -0.1815
34174W        W77190  27.833  23.665   1.669  0.1717  0.1631 -0.1602
34175W        W77191  34.448  15.785   9.691 -0.0457 -0.2008  0.1042
34176W        W77192   0.527  32.543   2.857  0.2317  0.0666  0.2401
34177W        W77193  28.806  12.677   1.223  0.1919  0.0933  0.0670
34178W        W77194   2.448   7.441   8.213 -0.0165  0.1062 -0.0535
34179W        W77195  14.871  13.448   1.581 -0.0541  0.1942 -0.2272
34180W        W77196  23.429   8.951  26.084 -0.0490 -0.0222  0.3015
34181W        W77197   4.575  28.313   4.003  0.0325  0.0724  0.1067
34182W        W77198   9.836  30.294   4.004  0.0255  0.5023 -0.0713
34183W        W77199  29.826  20.811  25.387 -0.0588  0.1230  0.1091
34184W        W77200   1.064  18.150   9.597  0.2366  0.4253 -0.0620
34185W        W77201   6.480  16.722   7.920 -0.0446 -0.3443  0.0310
34186W        W77202  31.178  11.377  16.871 -0.0073  0.0798 -0.1206
34187W        W77203  29.190  10.272  26.434 -0.1360  0.0018 -0.0078
34188W        W77204  24.282  32.177  17.510 -0.0543 -0.1309 -0.0330
34189W        W77205  17.107  12.951  24.485 -0.4653  0.0994 -0.2305
34190W        W77206  21.829  30.619   7.101  0.1022 -0.0156 -0.0170
34191W        W77207  16.296  28.340  29.079  0.1765  0.0457  0.0732
34192W        W77208  26.640  15.506  24.412 -0.3362  0.1382 -0.1272
34193W        W77209  34.148  15.457  22.355  0.1312  0.2860  0.3289
34194W        W77210   5.867   4.572  21.992 -0.1631 -0.1330 -0.3301
34195W        W77211  18.169  16.086   0.234  0.1131 -0.3176  0.0222
34196W        W77212   1.738  25.031  18.553 -0.1025  0.1462 -0.3309
34197W        W77213   6.864  18.378  26.135  0.4983 -0.1146  0.1894
34198W        W77214   9.366   3.882   5.316 -0.0761 -0.0293  0.1356
34199W        W77215  28.048  20.447  15.566 -0.0810 -0.0113 -0.1848
34200W        W77216  31.210  34.640  19.530  0.2376 -0.3291 -0.4935
34201W        W77217  20.781   7.488  28.297 -0.1118 -0.3590  0.1310
34202W        W77218  27.884  17.165   6.682  0.0241  0.3727 -0.2184
34203W        W77219  23.792  12.707   3.283 -0.0122  0.0198 -0.0042
34204W        W77220  29.913  30.875   4.167  0.5304  0.1205 -0.0310
34205W        W77221  32.071  17.970  28.061  0.1031 -0.0114  0.2969
34206W        W77222  31.037  28.472   5.059  0.0205  0.2020  0.1422
34207W        W77223  33.807   7.318   1.129  0.0381  0.0654 -0.1541
34208W        W77224  21.221  16.955   7.446 -0.4118  0.0238  0.2402
34209W        W77225  33.373  16.812  20.861  0.4250 -0.1202  0.1709
34210W        W77226  34.107  15.218   4.475 -0.2376 -0.3206  0.0585
34211W        W77227  26.391  12.816   7.954 -0.2771 -0.1517  0.0102
34212W        W77228  12.094  24.626  28.523  0.0106 -0.1832  0.1932
34213W        W77229  17.425  17.184  27.747 -0.0418 -0.3767 -0.0206
34214W        W77230   4.347  12.916   4.181 -0.1310 -0.0382  0.1249
34215W        W77231  24.407  19.320  23.247  0.0695  0.2663  0.2029
34216W        W77232   4.327   9.255   8.178 -0.1625  0.1358 -0.1781
34217W        W77233  23.126  33.581   9.228 -0.1212  0.3033 -0.2526
34218W        W77234  17.081  30.027   3.109 -0.1270 -0.3930 -0.0611
34219W        W77235  11.663  14.017  25.966 -0.0588  0.1412  0.2231
34220W        W77236  21.218   4.027   1.798 -0.0253 -0.0183 -0.1728
34221W        W77237  28.239  25.376  21.892  0.2492  0.0774 -0.0418
34222W        W77238  26.764  18.845  22.488 -0.0654  0.2394  0.0086
34223W        W77239  12.307  13.718   3.605 -0.1142  0.3059 -0.4003
34224W        W77240  30.549  15.235   3.742 -0.0572  0.3548  0.1545
34225W        W77241  17.874  11.303   1.316 -0.1188  0.0365 -0.4344
34226W        W77242   2.324  16.037  29.269 -0.4909 -0.1439 -0.0602
34227W        W77243  23.425  26.736  10.259  0.2063 -0.3426  0.1417
34228W        W77244  10.429  19.171  24.403 -0.1952 -0.4489  0.1331
34229W        W77245  22.525   8.927   4.871 -0.2033 -0.2176  0.3082
34230W        W77246  18.897  32.263   2.629  0.2630 -0.0292  0.3169
34231W        W77247  24.125  30.892  21.794 -0.1362 -0.2745 -0.0170
34232W        W77248   6.130   9.687  23.482  0.1685 -0.1613  0.0616
34233W        W77249   6.288  14.123   7.044 -0.1712 -0.2575  0.1107
34234W        W77250  23.265  18.225   3.169 -0.1417 -0.3263  0.0820
34235W        W77251  16.890  32.895   1.678 -0.1481  0.1803  0.1574
34236W        W77252   9.858  21.214  23.764  0.1507 -0.0891  0.0225
34237W        W77253  24.204   7.669  26.376 -0.0398  0.2378  0.2674
34238W        W77254  27.059  15.028   3.905  0.1786  0.0043 -0.0557
34239W        W77255   9.909  20.160  14.681 -0.1067 -0.1092  0.0204
34240W        W77256   0.837  15.449   4.013 -0.0851 -0.0197  0.1692
34241W        W77257  22.386   8.545   8.990 -0.2106 -0.4155 -0.0159
34242W        W77258  15.833  21.166   3.874 -0.0961 -0.1344 -0.2614
34243W        W77259  21.717   6.236  15.670 -0.1295 -0.1222 -0.0035
34244W        W77260  32.787  30.074  27.907 -0.1904 -0.0797  0.2025
34245W        W77261  28.556  29.071  11.302 -0.1483  0.0366  0.0647
34246W        W77262  24.024  14.726  17.003  0.1090 -0.1856 -0.0406
34247W        W77263  28.462  24.074   8.737 -0.1348 -0.0490 -0.1648
34248W        W77264  31.658   7.749   8.865 -0.2152  0.0503  0.0268
34249W        W77265   2.474  19.122   0.453  0.1806  0.2850 -0.2291
34250W        W77266  27.413  15.427   6.783  0.0020  0.0959 -0.3236
34251W        W77267  18.219  23.465   1.438 -0.0144  0.1794  0.0021
34252W        W77268  14.436   5.899   7.720  0.1119 -0.1307 -0.0582
34253W        W77269   7.041  23.925  18.559 -0.1448 -0.1341  0.0035
34254W        W77270  21.760  20.151   1.093  0.1634 -0.3385  0.1543
34255W        W77271   6.736  27.840  17.381  0.0183  0.0787  0.1618
34256W        W77272  30.245  26.878   8.688 -0.2368 -0.2190  0.1736
34257W        W77273  21.071  19.194   8.439 -0.0689  0.0473 -0.1927
34258W        W77274   5.553  13.817  14.918  0.1682 -0.1872 -0.0409
34259W        W77275  25.315   6.808  27.637  0.1049  0.1965 -0.2811
34260W        W77276  22.034   8.865   3.478  0.1751  0.0373  0.0227
34261W        W77277  25.491  24.279  24.459 -0.2572  0.1248 -0.2118
34262W        W77278  25.860  14.645   5.604 -0.0739  0.0607 -0.2314
34263W        W77279   9.473  12.101  26.484  0.1034  0.0475  0.3662
34264W        W77280  20.447   8.789  24.097 -0.2728  0.1631  0.2492
34265W        W77281  34.362  18.408   6.786  0.1182 -0.0236  0.0005
34266W        W77282  21.928  24.309  28.862  0.2443 -0.3142 -0.0643
34267W        W77283   1.050  23.648  20.387 -0.1310  0.1435 -0.2252
34268W        W77284  11.279  23.554   8.589 -0.0994  0.1358  0.0816
34269W        W77285   0.093  23.502   3.979 -0.0887  0.1558 -0.1586
34270W        W77286  24.041  16.092   5.749  0.0914 -0.1184 -0.1655
34271W        W77287  22.016  10.202  19.020  0.2582 -0.2756  0.0341
34272W        W77288   2.768  25.166   3.357 -0.1997  0.1139  0.1157
34273W        W77289  17.705  18.859  12.365  0.2540 -0.1758  0.0741
34274W        W77290   1.170  32.144   1.481 -0.3121  0.0558  0.1969
34275W        W77291  28.639  18.396  22.610  0.0031 -0.4416  0.0424
34276W        W77292  24.708  15.990   6.431 -0.3189  0.2384  0.3309
34277W        W77293  31.930  28.468   3.022 -0.1054 -0.2557  0.0192
34278W        W77294  18.091  10.075  22.815 -0.0242  0.0855  0.0485
34279W        W77295   5.876  10.413   3.436 -0.3769 -0.3060 -0.0392
34280W        W77296  14.565  20.548   2.124  0.1857 -0.2149 -0.0523
34281W        W77297  32.092  20.862   9.140 -0.1250  0.0137  0.0455
34282W        W77298  17.427   9.034  20.676  0.1848 -0.2277  0.1498
34283W        W77299  11.011  16.666   4.309  0.1557  0.2399 -0.3452
34284W        W77300  17.970  15.022   4.942  0.1369 -0.0317  0.1454
34285W        W77301  33.678  28.571   8.020 -0.0172 -0.0117 -0.0263
34286W        W77302  29.850  27.231  20.306 -0.1223 -0.1496  0.1456
34287W        W77303  28.785  16.492   0.347 -0.2212 -0.0924  0.1302
34288W        W77304  13.145  23.258  16.322 -0.0409 -0.3641 -0.0682
34289W        W77305  33.561  10.386  22.566  0.0324 -0.1610 -0.3229
34290W        W77306  18.266  18.430  25.270 -0.0488 -0.0029  0.1547
34291W        W77307  31.552  33.886  23.192 -0.0254  0.1604 -0.1008
34292W        W77308  31.457  14.498   5.611 -0.1827 -0.1214  0.0821
34293W        W77309  32.567  24.723  27.411 -0.0203 -0.1172 -0.1699
34294W        W77310  24.995  25.058  20.623 -0.0632 -0.0214  0.0129
34295W        W77311  31.160  12.061   0.024  0.0843  0.0589 -0.2373
34296W        W77312  22.630  26.950   7.226  0.1020  0.3060  0.0044
34297W        W77313  21.025   7.116  27.712 -0.0323 -0.1892 -0.2683
34298W        W77314  23.319   6.572   8.245  0.0296 -0.1381  0.1431
34299W        W77315   4.820   7.658  28.601 -0.1014 -0.1348  0.0831
34300W        W77316  18.102  31.737   1.841 -0.4348  0.1634  0.1459
34301W        W77317  10.961   1.036   7.105  0.1512 -0.2384 -0.2576
34302W        W77318   9.610  29.663  29.075 -0.1537  0.0138 -0.0245
34303W        W77319   7.518   2.007  25.423 -0.4874  0.0975 -0.4071
34304W        W77320   3.586   7.069   3.144  0.3107 -0.0923  0.3183
34305W        W77321  23.442  10.029  27.719 -0.1638  0.1612  0.0435
34306W        W77322   9.062  13.602   3.816  0.3206 -0.0770 -0.1966
34307W        W77323  16.420   3.424   2.695  0.1282 -0.1920 -0.0134
34308W        W77324   4.834  25.714   1.695 -0.0550 -0.3316 -0.1317
34309W        W77325  29.714  14.417  23.999 -0.0991 -0.1155 -0.2492
34310W        W77326   2.268  11.731   3.090 -0.1716  0.0712 -0.0383
34311W        W77327  23.971  33.897   5.947  0.1938  0.2636  0.0962
34312W        W77328   9.834  22.188   5.681  0.1916 -0.2761  0.0285
34313W        W77329  18.174  30.723   4.639 -0.0763  0.1980 -0.1315
34314W        W77330  21.874  17.437  20.097  0.0644 -0.1875  0.3762
34315W        W77331  33.480  11.904   3.346  0.0181  0.0043 -0.2125
34316W        W77332  13.972  13.997   0.324 -0.0841 -0.2295  0.2037
34317W        W77333  14.390  11.397   8.248  0.0024  0.0783  0.1901
34318W        W77334   9.954  29.984  14.354 -0.5214 -0.0522 -0.1770
34319W        W77335   4.006  22.405  26.034  0.0990 -0.0842  0.1952
34320W        W77336  29.366   2.867   7.306 -0.0963  0.0570 -0.0238
34321W        W77337  23.558  14.096   7.362  0.2064 -0.2742  0.1652
34322W        W77338  25.133  27.783   9.524  0.3598 -0.2766  0.1614
34323W        W77339  31.213  18.743  26.707 -0.0567  0.0824  0.0220
34324W        W77340  21.190  18.118   8.398  0.2260  0.2446  0.0535
34325W        W77341  34.502   9.914  27.697 -0.0132  0.2345 -0.3851
34326W        W77342   0.146  10.177  22.970  0.1983  0.1008 -0.0030
34327W        W77343  26.636  12.351  18.501  0.0656 -0.0788  0.1485
34328W        W77344  31.571   2.279   4.136 -0.1717  0.1727 -0.0398
34329W        W77345  23.453   3.224   4.694 -0.0481  0.1245  0.1431
34330W        W77346  22.036  16.132   2.438  0.1424  0.0926 -0.0692
34331W        W77347  10.281  13.022   9.074  0.2345  0.3461  0.1278
34332W        W77348   3.569  13.705   9.454  0.1260  0.0162 -0.0578
34333W        W77349  31.027  21.533  28.525  0.3324 -0.2779  0.0501
34334W        W77350  30.224  17.731   0.136 -0.3933  0.0894 -0.0357
34335W        W77351  34.412   3.447  23.878 -0.0985  0.2627  0.2037
34336W        W77352  32.927   8.365   8.782  0.1153 -0.0933 -0.1084
34337W        W77353   5.098  32.421   8.299 -0.0121 -0.3038 -0.0399
34338W        W77354  25.795  10.788   9.097  0.0146  0.2217 -0.1686
34339W        W77355   8.269  10.133   4.816  0.1596  0.1036  0.2591
34340W        W77356  21.788  12.595   2.316 -0.1103 -0.1261  0.0550
34341W        W77357  32.257  11.438   7.605 -0.0228  0.1048 -0.2516
34342W        W77358  13.956  25.356   9.315 -0.1694 -0.1284  0.0889
34343W        W77359  26.283  19.447   0.078 -0.0313  0.2223 -0.2592
34344W        W77360   6.922   9.408   2.209 -0.1705  0.1037 -0.2395
34345W        W77361  15.391  16.510  21.394  0.1472 -0.0027  0.0001
34346W        W77362  23.048  23.306   7.667  0.1466  0.0985 -0.2932
34347W        W77363  31.391  19.337   5.117  0.2496  0.3004  0.1978
34348W        W77364  24.210  23.656  22.408 -0.0633  0.2348 -0.3174
34349W        W77365  26.983  21.037  14.471  0.1673  0.1493 -0.0489
34350W        W77366   8.921  13.076   0.962 -0.2647 -0.0883  0.0322
34351W        W77367  21.898  29.225  22.161  0.4452  0.2253  0.2226
34352W        W77368  21.959  17.286  21.768  0.3339  0.2370 -0.2622
34353W        W77369   4.047   8.042   8.873  0.1038  0.0611 -0.1710
34354W        W77370  19.706  22.158  15.352  0.0062 -0.0887 -0.2934
34355W        W77371  22.342  19.172  12.566 -0.1938 -0.2408 -0.2749
34356W        W77372   5.564  17.672   9.289 -0.2259 -0.0338  0.0887
34357W        W77373   6.584  17.238   6.235 -0.2074  0.1679 -0.0596
34358W        W77374  25.114  20.083  15.769 -0.0773  0.0824 -0.0214
34359W        W77375  14.611  17.990   4.759 -0.0392  0.3768  0.0647
34360W        W77376  22.781  13.454  22.416  0.1485  0.1581 -0.2758
34361W        W77377   0.087   8.811   8.000  0.2180  0.2448  0.1514
34362W        W77378  33.303  30.817   9.239  0.1066  0.0399  0.2309
34363W        W77379  21.060  10.241  29.135  0.0373 -0.1057  0.0827
34364W        W77380  33.230  19.068   0.944  0.0016 -0.0595  0.3111
34365W        W77381  10.011  10.466  23.544  0.0628  0.1920 -0.0833
34366W        W77382  20.780  34.667  24.220 -0.0944  0.0806 -0.1960
34367W        W77383   9.663  19.335   5.319 -0.0530  0.1813  0.1694
34368W        W77384   8.810  12.743  24.617 -0.0308  0.0247  0.4027
34369W        W77385  22.462  31.685  28.592  0.1156  0.0265  0.0351
34370W        W77386  25.397  17.517  18.582 -0.2181 -0.1033 -0.4837
34371W        W77387  25.363  29.866  18.881  0.3108  0.2484 -0.2031
34372W        W77388  29.716  12.796   3.118 -0.0974 -0.0568  0.0501
34373W        W77389  19.348  27.211   6.700  0.0763 -0.1212 -0.1308
34374W        W77390  28.046  19.469  27.945  0.1855 -0.0926 -0.0106
34375W        W77391  22.752   6.088  25.966 -0.2360  0.0253  0.1553
34376W        W77392  16.738  23.587   4.766  0.0780 -0.0715 -0.2195
34377W        W77393  30.787  11.631  26.673 -0.3247 -0.2673  0.1658
34378W        W77394   5.923  16.148   2.416 -0.2143  0.0565  0.1202
34379W        W77395  20.798  29.721  11.079  0.0483 -0.1537 -0.3069
34380W        W77396  25.346   8.520  16.650  0.1742  0.0753  0.0199
34381W        W77397  25.114  17.391  23.487  0.1865 -0.0267  0.0877
34382W        W77398  10.134  15.874  21.832 -0.1297  0.2336  0.0393
34383W        W77399  29.757   7.404   7.362  0.2527  0.0101 -0.0506
34384W        W77400  28.969  19.211  15.106 -0.1899  0.1984 -0.1441
34385W        W77401   9.924  30.176  15.737 -0.1570  0.1135 -0.0171
34386W        W77402  22.838  10.526   7.485 -0.3392 -0.1827 -0.0107
34387W        W77403  20.280  20.213   0.683 -0.3606 -0.2324 -0.1571
34388W        W77404  18.969  16.653  25.709 -0.0229  0.0847  0.2035
34389W        W77405  10.409   7.236  24.834 -0.1037  0.0928  0.3783
34390W        W77406  21.940  13.231   6.593  0.0275  0.2085 -0.3240
34391W        W77407  22.798  22.625  14.020 -0.0346  0.2966 -0.3128
34392W        W77408  12.168  30.291   5.378  0.0206  0.1815 -0.0681
34393W        W77409  22.489  13.725  20.049  0.0783  0.0632  0.0182
34394W        W77410  20.832  11.024  21.937  0.0192 -0.0255  0.0559
34395W        W77411  13.675   2.318  18.407  0.0235  0.1008 -0.0794
34396W        W77412  32.659  29.322   1.970  0.1928 -0.0034  0.0902
34397W        W77413   5.586  14.501   4.531  0.0830 -0.1733  0.1982
34398W        W77414  25.726   1.685  27.970  0.1085 -0.0899 -0.2320
34399W        W77415  14.276   7.173  21.248  0.0411 -0.1289 -0.0587
34400W        W77416  27.361   4.341  25.990  0.0803 -0.1440  0.3533
34401W        W77417  29.289   2.038  26.488  0.2742  0.2807 -0.0582
34402W        W77418  14.183  15.013  14.433  0.0427 -0.2146 -0.0706
34403W        W77419  14.246  24.966   9.651 -0.1735 -0.2225  0.1777
34404W        W77420   1.958  31.454  19.068 -0.2273  0.1960 -0.2372
34405W        W77421  25.481  11.560  28.879  0.2597 -0.0003 -0.0469
34406W        W77422  12.363   9.508  14.255  0.0932  0.0977  0.0570
34407W        W77423  29.589  15.171   3.996  0.3391 -0.0834  0.4571
34408W        W77424  17.894  28.960   6.452 -0.0397 -0.0154  0.1917
34409W        W77425   2.030  15.777   8.271  0.1356  0.0840  0.0546
34410W        W77426  18.202  16.362  21.843  0.1018  0.2291 -0.1901
34411W        W77427  27.095  12.606  28.402 -0.0519 -0.1810 -0.1225
34412W        W77428  23.152   2.927   7.208  0.1154 -0.1444 -0.3216
34413W        W77429  27.964   6.141   2.083  0.0307 -0.2241 -0.0525
34414W        W77430  24.887   4.475   2.632 -0.2086  0.2365 -0.4660
34415W        W77431  31.550  34.690  10.217 -0.2657 -0.0294 -0.3694
34416W        W77432   8.348   8.057  21.535 -0.0499  0.1688 -0.0311
34417W        W77433  30.870  16.828   4.002  0.0244 -0.0659 -0.3203
34418W        W77434   7.269   8.053  28.307 -0.1120  0.0426  0.0490
34419W        W77435   9.148  11.442   3.712  0.0189  0.0890 -0.3201
34420W        W77436  34.066  12.504   3.205 -0.1376  0.4374 -0.2934
34421W        W77437  30.088  32.928   6.678  0.0180 -0.1530  0.1022
34422W        W77438  29.287  17.478   2.281  0.5238 -0.0742 -0.1892
34423W        W77439   4.225   7.306  21.840  0.3617  0.1537 -0.1539
34424W        W77440  27.922  23.485   5.162 -0.2543  0.0524 -0.2591
34425W        W77441  29.617  17.508  15.004 -0.1962  0.2023  0.0933
34426W        W77442  29.529  21.784   3.608  0.0921  0.4441  0.1630
34427W        W77443   3.309  17.704   5.138  0.1380  0.2498 -0.1212
34428W        W77444  24.413  12.238  17.216 -0.1734  0.0441 -0.1707
34429W        W77445   1.030  13.780   6.769 -0.3231  0.3129 -0.3014
34430W        W77446  30.232  22.244   3.135 -0.0681  0.3066 -0.1226
34431W        W77447  21.538  17.226   0.946  0.0294 -0.0516 -0.1227
34432W        W77448  30.752  22.984  22.064 -0.2546  0.4078 -0.2456
34433W        W77449  11.746  13.142   5.082 -0.2308 -0.3245  0.2134
34434W        W77450   0.957  27.104  20.702 -0.1418  0.3069  0.0129
34435W        W77451  22.626  12.028   6.046  0.0248 -0.1580  0.3510
34436W        W77452  20.121  14.989   1.715  0.1377 -0.0289 -0.2638
34437W        W77453  26.928   5.252   9.577 -0.0902 -0.0560  0.2333
34438W        W77454  24.258  16.030   7.576 -0.1349  0.1154  0.1604
34439W        W77455  34.241  18.203  21.217  0.0474  0.0511  0.0017
34440W        W77456  33.995  20.435   5.206 -0.0838  0.0029 -0.0528
34441W        W77457  18.843  18.058   3.643 -0.1651 -0.0350  0.1387
34442W        W77458  19.766   9.709  17.452  0.1017  0.2078  0.2199
34443W        W77459  32.302  10.906  23.953 -0.1892  0.3131 -0.0949
34444W        W77460   8.478  32.016   9.019 -0.0493 -0.0267 -0.2400
34445W        W77461  24.846   4.441  16.227  0.0105 -0.2952  0.0931
34446W        W77462  31.142  26.153  28.051  0.1302  0.1326 -0.1490
34447W        W77463  14.330  21.306   4.244  0.1401  0.1000 -0.2928
34448W        W77464  19.275   2.174   4.442  0.2439  0.0700 -0.0969
34449W        W77465  16.333  34.254  20.270  0.0831  0.0157  0.1141
34450W        W77466   1.888   9.013  15.840 -0.0597  0.2195 -0.1164
34451W        W77467  18.929  11.773  22.688  0.2813  0.0151 -0.2675
34452W        W77468  29.864  23.997  24.622 -0.1397  0.2333 -0.1210
34453W        W77469  30.668  18.815   3.093 -0.0338  0.0575 -0.0354
34454W        W77470  25.371   3.257   7.957  0.0417  0.1950  0.1707
34455W        W77471  19.425  28.111   0.252 -0.4590  0.0394 -0.0596
34456W        W77472  29.913   8.601  25.527  0.1072 -0.0035 -0.4797
34457W        W77473  20.505  14.291   7.766 -0.1326  0.1205  0.0115
34458W        W77474  21.197  24.171  14.080 -0.1374 -0.2028  0.3972
34459W        W77475  18.138  18.152  12.119  0.1424  0.2126 -0.2444
34460W        W77476  30.705  18.497   7.226  0.2917 -0.2286  0.2577
34461W        W77477  20.595  20.409   2.956 -0.2511  0.0422  0.1039
34462W        W77478  21.749  19.356   7.507 -0.2591  0.0964  0.1464
34463W        W77479  18.964  29.972  23.450  0.4204 -0.3561 -0.0661
34464W        W77480  14.388  22.712   0.374  0.1076 -0.1520 -0.0675
34465W        W77481  33.193  14.182   7.524  0.0448  0.0342 -0.1590
34466W        W77482  16.172   0.360  21.540  0.0256  0.1700  0.4477
34467W        W77483  21.053  22.008   6.440 -0.0890  0.0380 -0.2143
34468W        W77484  29.855   2.803   5.569  0.0512 -0.0138  0.0369
34469W        W77485  25.711   7.068  27.476  0.2540  0.0291  0.0463
34470W        W77486  33.895  21.394  17.900 -0.1150 -0.1151  0.2742
34471W        W77487  28.693   3.607   4.857 -0.0655  0.2242  0.0006
34472W        W77488  25.119  29.168   8.263  0.0185 -0.1886 -0.0160
34473W        W77489   3.477  32.559   0.942 -0.2986  0.0480 -0.1024
34474W        W77490   1.574   9.137   0.376 -0.2048  0.0482  0.0373
34475W        W77491  24.532  18.397   9.278 -0.0762 -0.0098  0.0061
34476W        W77492  33.640  11.444  10.078 -0.0760  0.1773  0.0557
34477W        W77493  24.062   8.612  26.441  0.1874 -0.1640  0.0293
34478W        W77494  33.731  22.363   5.670 -0.3322  0.1211  0.0623
34479W        W77495  31.515  24.663   8.894 -0.3446  0.1291 -0.2059
34480W        W77496  27.177  26.007  21.267 -0.2297  0.0293  0.0877
34481W        W77497  28.744  19.293   0.183 -0.2245  0.0858  0.0385
34482W        W77498   1.784  16.257   3.525 -0.0352  0.1390 -0.1389
34483W        W77499  24.656  16.781  26.725  0.0656  0.1297 -0.2230
34484W        W77500  28.816  26.029  16.907 -0.1819 -0.1884  0.2319
34485W        W77501  34.108   2.211  22.291  0.0388  0.0602  0.3919
34486W        W77502  25.102  16.511  23.523  0.0808  0.0280 -0.3472
34487W        W77503  20.578  21.562   3.692 -0.2027 -0.0223  0.1036
34488W        W77504  19.070   4.348  28.148 -0.0251 -0.3999 -0.1255
34489W        W77505   3.262   6.367   4.326 -0.0936  0.0393 -0.1594
34490W        W77506   3.880  13.480   9.106 -0.3453  0.1232 -0.0000
34491W        W77507  28.408  12.693  26.687 -0.1368  0.0179 -0.2378
34492W        W77508  34.103   0.658   9.965 -0.1138  0.3721  0.1099
34493W        W77509  28.537   9.820   2.853  0.0948 -0.0680  0.1011
34494W        W77510  32.697   5.611   6.604 -0.1552 -0.0221 -0.0371
34495W        W77511  29.556  26.280  10.885  0.0009 -0.2735 -0.0609
34496W        W77512  13.042  14.943  14.915 -0.0159 -0.0698 -0.1582
34497W        W77513   8.675  20.252   4.440 -0.0724  0.1103 -0.0611
34498W        W77514  10.902  20.946  22.635  0.0184 -0.1817 -0.0757
34499W        W77515  32.813  19.882  27.510 -0.2609 -0.2336  0.1984
34500W        W77516  22.294  32.645   5.524  0.2409 -0.0299 -0.1289
34501W        W77517  23.927  25.883  11.077 -0.3406 -0.2512  0.0300
34502W        W77518  26.633  13.118   4.318  0.0470 -0.1066 -0.2666
34503W        W77519  22.705  15.332  18.300 -0.1553  0.2703 -0.1848
34504W        W77520  32.373  28.355   6.643 -0.2044  0.0300 -0.0517
34505W        W77521   2.900  31.402   1.776  0.0416  0.0774 -0.1584
34506W        W77522  23.028  21.881   7.090  0.2347 -0.1043 -0.1213
34507W        W77523  15.837   4.334   9.153  0.0714  0.0355  0.1368
34508W        W77524   2.110  11.477   8.177 -0.0001 -0.1223 -0.1063
34509W        W77525  32.538  17.532   6.039  0.2832 -0.0313 -0.3914
34510W        W77526   5.475  21.180  23.878 -0.0593  0.0461 -0.0328
34511W        W77527   4.431  22.691   9.516 -0.0752 -0.2837  0.0887
34512W        W77528  26.683  11.358  21.698  0.0460  0.1724 -0.0196
34513W        W77529   1.883  20.781   8.562  0.3720 -0.0988  0.0520
34514W        W77530  25.996  17.685   7.227  0.0740  0.0644  0.2132
34515W        W77531  28.633   8.084  23.190  0.3171 -0.3836 -0.0529
34516W        W77532   3.522  13.975  17.537 -0.0472  0.0751 -0.5489
34517W        W77533   3.975  15.088   1.361 -0.0497  0.0435 -0.3533
34518W        W77534  18.905   0.178  28.089  0.0919  0.0959 -0.0038
34519W        W77535   5.300  19.596   5.999  0.3237 -0.2849  0.1540
34520W        W77536  23.135  19.516   0.797 -0.0503  0.1351 -0.3178
34521W        W77537  27.130   2.515  27.680  0.4599 -0.1986  0.1511
34522W        W77538  34.559  10.276  16.704 -0.1745  0.0524 -0.1900
34523W        W77539  17.718  27.561  10.601 -0.3982  0.0408  0.0309
34524W        W77540  12.174   9.091   8.106 -0.0597  0.3462 -0.1904
34525W        W77541  28.692  14.419  20.073 -0.2905 -0.4320 -0.1120
34526W        W77542  26.965  11.200  25.752  0.1677  0.5496 -0.3312
34527W        W77543  20.756  10.256  24.796 -0.1526  0.0444  0.1138
34528W        W77544  19.565  10.823   6.854  0.4114  0.0041 -0.0163
34529W        W77545  15.047  14.097   8.466 -0.0477  0.0287 -0.0096
34530W        W77546  26.210   6.449   1.403  0.0506  0.0728 -0.0164
34531W        W77547  26.690  12.484  27.402 -0.0910 -0.0327 -0.0589
34532W        W77548  26.223   5.124   5.639  0.3324  0.3125 -0.0414
34533W        W77549  15.982  28.834   8.198  0.1360 -0.2569 -0.0434
34534W        W77550   0.377  34.168   7.068  0.0052 -0.0411  0.3041
34535W        W77551  31.707  26.263   6.493 -0.0330  0.1316 -0.0530
34536W        W77552  29.897   4.694  26.503  0.0094  0.1345 -0.3840
34537W        W77553  25.671   4.273   1.056 -0.1418  0.0306 -0.0132
34538W        W77554  32.558  17.582   5.123  0.1647 -0.1554  0.0616
34539W        W77555  23.200  23.671  15.720 -0.1072  0.2396  0.2585
34540W        W77556  20.375  23.977   7.554 -0.0662  0.2256 -0.1654
34541W        W77557  25.814  34.056   6.064 -0.1360 -0.0079  0.4057
34542W        W77558  20.575  31.781  28.838 -0.0392  0.1117 -0.1266
34543W        W77559  32.655   6.410   7.728  0.0966  0.0774 -0.2090
34544W        W77560  31.232   2.138  19.468 -0.0347 -0.2956 -0.0567
34545W        W77561   2.190  25.416   6.350  0.0560 -0.0561  0.0357
34546W        W77562  28.746  23.729   2.115 -0.1015 -0.0383 -0.2011
34547W        W77563   8.883  24.269   6.125  0.1976  0.1821 -0.2206
34548W        W77564  24.950  24.414   4.724 -0.0574  0.1404 -0.0871
34549W        W77565  22.169  30.125   4.538  0.1714  0.0738 -0.5044
34550W        W77566  30.980  27.400   9.810  0.3390 -0.1766  0.1922
34551W        W77567  30.616  24.072   8.886 -0.2607  0.0864  0.2870
34552W        W77568  25.136   8.436   0.841 -0.2638  0.1334  0.0484
34553W        W77569  26.625  16.829   7.790 -0.0581 -0.1267 -0.1624
34554W        W77570  22.569   2.117   3.260  0.4754 -0.1262 -0.1312
34555W        W77571  25.136  15.130   7.277  0.1293 -0.1089 -0.1690
34556W        W77572   4.607  27.209  10.658  0.0567  0.0615 -0.0702
34557W        W77573  24.196  22.821   4.174  0.0540 -0.0426 -0.0623
34558W        W77574  18.036   3.137   3.109  0.3525 -0.0390 -0.0536
34559W        W77575  14.858   4.090   1.618 -0.1154  0.1024  0.2005
34560W        W77576  17.514   5.022   6.212 -0.2528 -0.1387 -0.0871
34561W        W77577  33.616  16.242  26.547  0.1500 -0.1005 -0.1743
34562W        W77578  10.111  20.221   6.066 -0.0692 -0.0547  0.0113
34563W        W77579  11.221   2.919  26.691 -0.1731  0.1739  0.0652
34564W        W77580  20.565  12.492   5.405 -0.2057  0.0030 -0.1608
34565W        W77581   6.437   7.240   0.606 -0.0046 -0.0041 -0.0683
34566W        W77582   3.846   5.639  10.110  0.2100 -0.1865 -0.1912
34567W        W77583   1.866  18.819  25.291  0.0588 -0.0730 -0.2046
34568W        W77584  33.602  27.295   1.032 -0.0108 -0.2427 -0.0721
34569W        W77585  12.487  10.372   1.531 -0.0235  0.2672 -0.1163
34570W        W77586  28.585   4.315   9.470  0.3429  0.0563 -0.0398
34571W        W77587   9.225  16.687  18.744 -0.2498  0.1691  0.1557
34572W        W77588  16.081  12.768  16.622 -0.0687 -0.0255 -0.4098
34573W        W77589  33.901  29.291  23.253  0.0979 -0.1143  0.1318
34574W        W77590   5.683  24.743  27.961  0.0370  0.1520  0.1090
34575W        W77591  18.016   6.942  26.509  0.0978 -0.1161  0.0842
34576W        W77592  32.303   2.991   5.327 -0.1787  0.0887  0.1168
34577W        W77593  21.946  12.810  20.406 -0.1602  0.2090  0.0734
34578W        W77594  30.819  25.467   6.483 -0.1891  0.0129 -0.1023
34579W        W77595   7.225  24.893   7.827  0.2899 -0.2260 -0.2028
34580W        W77596  34.282  18.444  23.211  0.0134  0.1495  0.0401
34581W        W77597  24.133  26.886  18.753  0.0555  0.0253  0.0587
34582W        W77598   6.413  17.328  13.975 -0.3284 -0.1743  0.0286
34583W        W77599  16.630  22.564  28.965 -0.0033  0.0364  0.0272
34584W        W77600  20.278  22.098   8.940  0.2040  0.0594 -0.1160
34585W        W77601  32.149  15.361  19.407 -0.0517  0.1990 -0.2411
34586W        W77602  33.788  13.411   9.380 -0.5551  0.1318  0.1907
34587W        W77603  20.258  21.607   5.109 -0.0892  0.2179 -0.1967
34588W        W77604  19.075  22.889   4.197  0.0817  0.0658 -0.1435
34589W        W77605  16.795  16.910   3.744 -0.0020  0.2110  0.0241
34590W        W77606  29.713  15.672   2.160 -0.5284 -0.0512  0.2713
34591W        W77607   4.653  17.830   6.957 -0.1148  0.0115 -0.1751
34592W        W77608  17.159  16.422   6.288  0.1358 -0.2232  0.0330
34593W        W77609  24.010  16.877   3.622  0.3426  0.2911  0.0597
34594W        W77610  19.722  19.930   1.932 -0.2936  0.2261  0.0795
34595W        W77611  14.807  33.668   8.809 -0.0261 -0.1019 -0.0649
34596W        W77612  29.760  32.401   1.164  0.2287 -0.1089 -0.1272
34597W        W77613  23.313  10.211   3.920  0.2334  0.0665  0.0379
34598W        W77614  33.354  20.072   3.335 -0.1413 -0.0872 -0.1272
34599W        W77615  25.627  14.851  28.797  0.0470 -0.4089 -0.3550
34600W        W77616  14.471  17.092   5.057  0.1492 -0.2345 -0.2050
34601W        W77617   6.578  12.158   2.312 -0.1639 -0.0688  0.0663
34602W        W77618  31.374  28.492  25.930  0.1135 -0.0086 -0.0475
34603W        W77619  19.498  22.815  24.583 -0.1853  0.0100  0.0916
34604W        W77620  31.155  20.227  11.220 -0.2456 -0.5226 -0.0069
34605W        W77621  30.533  18.658  28.491 -0.0910 -0.0813  0.1142
34606W        W77622  24.027  27.932  11.115  0.1683 -0.1802 -0.0277
34607W        W77623  22.203  21.605   9.315  0.2469 -0.1583 -0.1967
34608W        W77624  16.925  23.912   8.872  0.0893  0.2126  0.2605
34609W        W77625  25.056  15.573  22.393 -0.2466 -0.3115  0.1834
34610W        W77626  16.548  14.471  23.162  0.6014 -0.1153 -0.1401
34611W        W77627  20.256   5.519   8.935 -0.0933  0.0647  0.0702
34612W        W77628   3.867  10.333  10.365  0.0564 -0.0560 -0.1592
34613W        W77629  34.084  11.185  10.204 -0.1330  0.2577  0.0069
34614W        W77630  28.864  21.136   7.496  0.0885 -0.2164  0.0458
34615W        W77631  10.826  11.899  24.357 -0.1043 -0.0515 -0.0271
34616W        W77632  16.052  12.161   1.276 -0.1320 -0.0229 -0.0257
34617W        W77633  26.603   1.368  27.970 -0.2057  0.0865  0.0574
34618W        W77634   8.476  15.678   8.179 -0.1639 -0.4669  0.0208
34619W        W77635  25.074  28.692   0.382 -0.0602  0.0931 -0.0956
34620W        W77636  19.420  11.779   2.116  0.2169  0.1300 -0.0090
34621W        W77637   6.533  11.322   8.870  0.2047 -0.0395  0.2755
34622W        W77638  15.767  28.683  10.096  0.2046  0.4378 -0.0259
34623W        W77639  22.269  15.006  28.062  0.0357 -0.2726 -0.1399
34624W        W77640  32.942  14.535   0.649  0.2088 -0.1105  0.1202
34625W        W77641  24.454   6.913   8.057 -0.0931 -0.1837  0.0270
34626W        W77642  33.415  15.228   3.543 -0.1357  0.0625 -0.0138
34627W        W77643  21.561  22.711   7.592  0.1770  0.2383 -0.4409
34628W        W77644  15.163  15.296  20.465  0.1563 -0.0666 -0.1289
34629W        W77645  14.149  24.003   7.937 -0.0780  0.3208 -0.1043
34630W        W77646  19.792   3.208  26.482 -0.3122 -0.0955  0.0398
34631W        W77647  21.015  14.510  27.623  0.0295  0.0085 -0.2470
34632W        W77648   0.624  26.086   9.202 -0.0763 -0.2521  0.1046
34633W        W77649  34.525  13.724   5.007  0.1289  0.0862 -0.2579
34634W        W77650   1.415   6.217   9.345  0.3984 -0.3537  0.2710
34635W        W77651  30.928  10.210   3.263  0.3593 -0.2309  0.1007
34636W        W77652  21.250  19.567   0.793 -0.2088 -0.1252  0.0812
34637W        W77653  15.029  16.586  21.665  0.0570 -0.1673  0.0795
34638W        W77654   7.809  17.510   5.673  0.0752  0.0280  0.0798
34639W        W77655  15.770  17.778   2.249  0.1155 -0.0483  0.2492
34640W        W77656  19.308  14.761  25.574  0.0862 -0.0753 -0.3140
34641W        W77657  21.408  15.610   7.024 -0.0160  0.0943 -0.1964
34642W        W77658  33.723  18.300   7.044  0.2228  0.0611 -0.0109
34643W        W77659  25.802  18.797   3.620 -0.1054  0.1566 -0.2401
34644W        W77660  25.975  30.034  21.098  0.0898  0.4336 -0.0343
34645W        W77661  33.196  33.281   3.168 -0.2365 -0.1612 -0.1712
34646W        W77662   9.374  19.767  22.519 -0.2041 -0.1286  0.4764
34647W        W77663  27.474  21.680  25.713 -0.3137 -0.4907 -0.2182
34648W        W77664   9.767  19.971  20.767 -0.2075 -0.0682 -0.2603
34649W        W77665  24.434  14.477  26.700 -0.1500  0.0104  0.0255
34650W        W77666  16.882   9.658   8.235  0.1544 -0.1237 -0.1508
34651W        W77667  19.166  17.750   8.125  0.2048  0.1668 -0.0836
34652W        W77668  27.376  16.056  19.241  0.4222  0.0199  0.0134
34653W        W77669  19.302  34.053   3.836  0.1021  0.0555 -0.0577
34654W        W77670  30.745   2.339  27.389  0.1737 -0.2683 -0.1043
34655W        W77671  11.696  11.590  18.960  0.1197 -0.2020 -0.0015
34656W        W77672  18.329   6.172  27.924  0.0626  0.3749  0.3236
34657W        W77673  26.627  17.683   2.916 -0.3422 -0.0189 -0.2763
34658W        W77674   1.516  12.476   5.735 -0.0062 -0.0873 -0.2971
34659W        W77675   2.031   1.686   3.929  0.3107  0.3066 -0.1897
34660W        W77676  29.792  32.487  11.746 -0.1765  0.0856 -0.2110
34661W        W77677  20.308  18.853   2.295  0.0228  0.0895  0.0641
34662W        W77678  27.889  25.681   4.421  0.1063 -0.0411 -0.1192
34663W        W77679   3.654  24.490  26.860  0.1778 -0.1541 -0.1567
34664W        W77680  13.403  13.270  22.967  0.4712  0.1492 -0.1250
34665W        W77681   0.872   2.714  27.748  0.1261 -0.1153  0.0623
34666W        W77682  33.934  22.154  17.607 -0.2725  0.0284  0.1752
34667W        W77683  20.003   8.839   5.991 -0.0345 -0.1007 -0.2271
34668W        W77684  26.650  20.495  10.090 -0.0421 -0.2357 -0.1117
34669W        W77685  20.335  24.650  17.270  0.0804 -0.0945 -0.1065
34670W        W77686  19.875  16.862  20.407  0.0222  0.2157 -0.1632
34671W        W77687  32.742  11.669  25.052 -0.0197 -0.0880  0.1484
34672W        W77688  27.286  18.054  22.395  0.4157  0.0001 -0.2446
34673W        W77689  26.869   3.588   9.871  0.1721 -0.0431 -0.4245
34674W        W77690  33.314  21.125  28.966 -0.0555 -0.0152  0.0199
34675W        W77691  27.641  17.259  28.201 -0.0241 -0.2088  0.0086
34676W        W77692  25.268  19.920   5.998  0.0796  0.1559 -0.0120
34677W        W77693  24.690  13.148   9.568  0.1494 -0.1986  0.2036
34678W        W77694   0.965   0.394   4.483 -0.0549  0.2276 -0.1623
34679W        W77695  21.553  20.549  27.451 -0.2922  0.2046 -0.2789
34680W        W77696  28.353  13.248  22.479  0.1942  0.0142 -0.2590
34681W        W77697  32.811  30.819   8.322  0.2018 -0.0922  0.2107
34682W        W77698  22.762  18.232  19.790 -0.0361  0.2274  0.2130
34683W        W77699  14.076  16.989  20.158 -0.0211  0.1796 -0.1613
34684W        W77700  14.245   6.470  15.745  0.1298 -0.0660  0.1881
34685W        W77701   8.582  22.516   8.573 -0.1220  0.0420 -0.2401
34686W        W77702   4.529  20.502   3.174  0.1670  0.0288 -0.0357
34687W        W77703   2.288  11.457  28.009  0.2125  0.1375 -0.0280
34688W        W77704  23.540  23.361   7.808 -0.2223 -0.0921 -0.1255
34689W        W77705  25.683  12.375   2.651 -0.2548 -0.1856  0.1275
34690W        W77706  12.187  25.543   9.907  0.0295 -0.2671  0.0986
34691W        W77707  22.326  10.249   8.410 -0.0498 -0.4010 -0.1429
34692W        W77708  25.835  23.157  19.173 -0.0355 -0.2683  0.1077
34693W        W77709  34.587   5.400   0.497 -0.1331 -0.0959 -0.2451
34694W        W77710  34.353   2.236   7.544 -0.1579 -0.1010  0.1499
34695W        W77711  27.029  12.881   5.517  0.1502  0.0326  0.0051
34696W        W77712  12.831  23.533   1.465  0.1882 -0.0112  0.1424
34697W        W77713  34.601  15.086  23.414 -0.3360  0.1904  0.1568
34698W        W77714  27.763  12.355   8.909  0.1563  0.1291 -0.0195
34699W        W77715  18.887  13.795   7.878  0.0111  0.0176 -0.1535
34700W        W77716  25.989  10.474  26.019  0.2065  0.2378 -0.3657
34701W        W77717  29.043  28.090   6.006 -0.2922 -0.0134  0.2289
34702W        W77718   0.355  11.357   9.543  0.1338  0.0506  0.2340
34703W        W77719  27.767  28.883  29.212 -0.5364 -0.0412 -0.3013
34704W        W77720   5.041  15.634   7.910 -0.1679  0.1403  0.2903
34705W        W77721   5.619  14.947  19.617 -0.0779 -0.1865  0.1257
34706W        W77722   1.319   9.636   2.904 -0.0123 -0.1775  0.2094
34707W        W77723  33.143  20.358   6.295 -0.1613  0.2273  0.2480
34708W        W77724  24.702  28.162   8.286 -0.1286  0.5417  0.1595
34709W        W77725   4.643  19.469   0.470  0.2684  0.2035  0.0597
34710W        W77726  33.431  24.284   5.916  0.0791  0.1323  0.2340
34711W        W77727  19.117  16.452   8.650 -0.2737  0.1474  0.0218
34712W        W77728  23.743  13.666   1.759  0.1866 -0.1791 -0.0259
34713W        W77729  27.974  18.723  28.517  0.4714 -0.0713  0.0501
34714W        W77730  16.266   8.824   6.663  0.1049 -0.1812  0.2514
34715W        W77731  24.754  10.209   7.753 -0.1436  0.2431 -0.1264
34716W        W77732   4.167  22.868  17.374  0.0072  0.3619  0.1210
34717W        W77733  29.651  16.352   5.511  0.2322  0.1984 -0.2437
34718W        W77734  10.698  24.543   7.672  0.1461 -0.0796 -0.0990
34719W        W77735  23.302  34.639   8.731 -0.1369  0.2790  0.2865
34720W        W77736  16.090   9.736  29.013 -0.0850 -0.0966 -0.0490
34721W        W77737  14.271  16.373   5.795 -0.2449 -0.0759 -0.1005
34722W        W77738  28.749  16.510   5.418 -0.2099 -0.0255 -0.1478
34723W        W77739   6.437  23.859  27.747 -0.0298 -0.0064  0.3183
34724W        W77740  23.032  26.776   1.731 -0.0669  0.3781  0.1596
34725W        W77741   3.794  19.064  25.127  0.3413 -0.2188 -0.0839
34726W        W77742  23.842  11.689   4.593  0.0445  0.0830 -0.4692
34727W        W77743  17.173  12.671   7.633 -0.0603  0.0988  0.0022
34728W        W77744   2.236   4.727   2.833  0.0391  0.0167  0.0104
34729W        W77745  22.755  31.028   2.861  0.0976  0.0667 -0.0901
34730W        W77746  32.110  19.428  25.447 -0.0341  0.2268 -0.1959
34731W        W77747  22.987  22.041   2.127 -0.1071  0.0465 -0.3251
34732W        W77748  20.680   8.213   1.964 -0.1040 -0.1154  0.2672
34733W        W77749  24.764  14.668   2.107  0.1451  0.1175 -0.2133
34734W        W77750  33.926  25.353   1.126  0.1637 -0.0619 -0.0618
34735W        W77751  25.026   3.467  10.806  0.0561 -0.1814 -0.0383
34736W        W77752  32.912  15.939  27.318 -0.2450 -0.1715 -0.2355
34737W        W77753  19.774  24.980   9.609  0.1128 -0.0089 -0.2061
34738W        W77754  19.974   0.235  17.383  0.1008 -0.1689  0.0685
34739W        W77755   0.061  24.427   9.798 -0.0030  0.2754  0.0008
34740W        W77756  26.049   7.288   7.210 -0.0775 -0.0520  0.2115
34741W        W77757   0.447  16.631   7.775 -0.1347 -0.0816  0.2091
34742W        W77758  27.337  24.814   7.708  0.0006 -0.1783  0.2599
34743W        W77759  17.170  19.504  23.915  0.2073 -0.0272  0.0778
34744W        W77760  28.792  11.983  22.701  0.0443 -0.1640 -0.1920
34745W        W77761  26.828  32.188   1.442  0.3832  0.0027  0.3081
34746W        W77762  10.239  21.847  25.605  0.0554  0.2740 -0.0072
34747W        W77763  29.455  21.284   5.284  0.0805  0.1525 -0.0696
34748W        W77764  31.048  31.219   5.185  0.0476  0.2681  0.1951
34749W        W77765  12.231  16.417  21.632  0.3541 -0.1795  0.1649
34750W        W77766  12.069  14.716   5.323  0.2629  0.0605  0.0303
34751W        W77767   0.897  14.614   5.232  0.3796 -0.0680  0.1887
34752W        W77768  30.730  33.420   8.114 -0.0273 -0.0847 -0.1845
34753W        W77769  12.831  21.299   5.738 -0.0603  0.1057  0.2096
34754W        W77770   7.657  23.972   7.720 -0.1027 -0.1104 -0.1210
34755W        W77771  34.429  21.751   1.879  0.0965 -0.1265 -0.0312
34756W        W77772  29.151  23.580   7.707  0.1599 -0.0981 -0.1615
34757W        W77773  30.208  13.041  21.651  0.0808  0.1275  0.2501
34758W        W77774   2.775  12.843  28.707 -0.3934 -0.0928 -0.0861
34759W        W77775  31.423  27.489   4.278 -0.4579  0.0877  0.1319
34760W        W77776  14.316  11.831   1.931 -0.2700  0.1938  0.1108
34761W        W77777  31.770  16.442   0.876  0.0298 -0.1030 -0.0506
34762W        W77778   6.085   0.111   5.811 -0.1574 -0.1535 -0.1076
34763W        W77779  23.159  28.985   1.356 -0.1528 -0.0061 -0.3538
34764W        W77780  27.345   8.361   4.131  0.3053  0.2990 -0.2675
34765W        W77781  29.673  14.945   7.612  0.0947  0.2643 -0.0982
34766W        W77782  31.883  17.937  10.252  0.0241  0.2311 -0.0271
34767W        W77783  29.619  10.200  17.216 -0.0954  0.4137 -0.0474
34768W        W77784  30.734  23.211  27.062 -0.1115 -0.1261  0.1362
34769W        W77785  30.016  18.558   7.435 -0.2390 -0.2371  0.0146
34770W        W77786  19.915  30.034   0.315  0.1016 -0.1855 -0.2235
34771W        W77787  21.394   5.351  28.463  0.3820  0.1156 -0.3597
34772W        W77788  15.003  18.299  24.919  0.0109 -0.3138  0.0173
34773W        W77789  27.784  26.256  10.801  0.3018 -0.2582 -0.3432
34774W        W77790  26.212  14.952   9.014  0.3907  0.0130 -0.0995
34775W        W77791   3.322  30.517   9.940  0.1522  0.0754 -0.0405
34776W        W77792   9.436  14.958  25.242 -0.0341  0.5471  0.0452
34777W        W77793  32.441  26.857  10.008  0.1568  0.0627 -0.2020
34778W        W77794   2.679  14.358  28.684 -0.0042 -0.2121  0.1372
34779W        W77795  17.976   8.209   6.879  0.0613 -0.0868 -0.1608
34780W        W77796   1.729   3.181  25.542 -0.1039 -0.3018  0.0111
34781W        W77797  21.944  29.822   5.789  0.1091  0.2101 -0.2761
34782W        W77798  24.133  16.383   7.121 -0.1691 -0.1013 -0.4557
34783W        W77799  25.275  16.817   6.044 -0.2333  0.0755  0.1549
34784W        W77800  30.005  25.500  12.075 -0.3092 -0.4188 -0.1230
34785W        W77801  15.736   8.112   5.687  0.0881  0.3863  0.2597
34786W        W77802  24.377  22.648   6.091  0.2415  0.0944 -0.0851
34787W        W77803   2.802  13.166   9.884 -0.1250 -0.0182 -0.3078
34788W        W77804  29.022   7.531   5.112 -0.3577 -0.1582 -0.0160
34789W        W77805   8.145  10.817   0.978  0.0617 -0.0996 -0.0582
34790W        W77806  26.457  15.159   3.733  0.3410  0.0148 -0.1875
34791W        W77807  32.367  10.960  10.856  0.3521 -0.3811 -0.1766
34792W        W77808   3.700   5.552   2.429 -0.1886  0.1103  0.1021
34793W        W77809  34.264  17.483   0.994  0.0091 -0.3347 -0.1334
34794W        W77810  26.479   6.990   9.344 -0.1204  0.4490  0.3835
34795W        W77811  18.195  31.856   4.887 -0.2238  0.0235  0.0087
34796W        W77812   0.816   7.887  19.597 -0.0959  0.1402 -0.1118
34797W        W77813  15.163   4.370   0.528 -0.2098  0.3161  0.2862
34798W        W77814  19.280   2.235  17.375  0.2291  0.3293  0.0603
34799W        W77815  28.273  32.338  27.196  0.0496  0.1369 -0.0321
34800W        W77816   4.278  15.320   2.576 -0.0166  0.1287 -0.2350
34801W        W77817  18.672  24.634  28.590 -0.2097  0.0149 -0.1212
34802W        W77818  31.824  34.417   5.411  0.0054 -0.1585  0.0861
34803W        W77819  22.772  12.083  13.359  0.1784  0.3241  0.0549
34804W        W77820  26.599   9.784   0.758 -0.0727  0.0662 -0.1843
34805W        W77821  25.592  27.080  10.620  0.0547  0.1429  0.0213
34806W        W77822   2.562  13.690  15.191 -0.0283 -0.0484 -0.4566
34807W        W77823   1.491   7.602  21.220 -0.0525 -0.0545  0.0432
34808W        W77824  15.192  32.001   2.595 -0.2244 -0.1452 -0.1040
34809W        W77825   0.459  25.321   4.916  0.0293 -0.2148 -0.2126
34810W        W77826  28.432  20.289   5.836  0.0523 -0.1904 -0.0188
34811W        W77827  21.248  11.989  27.262 -0.2114 -0.1790 -0.2346
34812W        W77828  27.572  28.264   1.237  0.1198  0.0767 -0.0322
34813W        W77829  13.251  17.109   1.394  0.0396 -0.1669  0.1862
34814W        W77830  18.775  22.557   2.950 -0.1183 -0.0994  0.0659
34815W        W77831   6.322  32.250   9.660  0.2978 -0.0357 -0.0768
34816W        W77832  21.453   4.494   3.692 -0.1591  0.0787 -0.0163
34817W        W77833  31.168  23.219   8.750  0.2300 -0.0629  0.0172
34818W        W77834  33.437  13.061   7.548  0.0587 -0.1670  0.0352
34819W        W77835  30.340  15.327  25.507  0.0790 -0.4922 -0.0579
34820W        W77836  32.377  21.137   2.317 -0.0818 -0.0226 -0.1598
34821W        W77837  10.116   4.119  24.962  0.0117  0.0811  0.0267
34822W        W77838  23.652  24.318   3.495 -0.0064 -0.2961  0.1815
34823W        W77839  25.992  17.607   7.771  0.1973 -0.0959 -0.2136
34824W        W77840  18.774  31.912   4.279  0.3844  0.1709 -0.0894
34825W        W77841  19.551   9.946   5.249  0.0070 -0.0567 -0.3538
34826W        W77842  29.401  13.611   8.798 -0.0672  0.1474 -0.1436
34827W        W77843   8.874  24.653  25.024 -0.0411 -0.0547  0.0143
34828W        W77844  18.308  32.250   2.675 -0.3296 -0.5712 -0.0093
34829W        W77845  33.675  26.654  17.101 -0.0898  0.1238 -0.1177
34830W        W77846   8.802  20.614  20.884  0.0408  0.1911  0.1422
34831W        W77847  25.330  21.415   3.609  0.3684  0.2183  0.1525
34832W        W77848  34.087  20.137   9.713 -0.0055  0.3140  0.0771
34833W        W77849  15.098  16.792   3.355  0.4469  0.0349  0.0525
34834W        W77850  27.571  13.584  18.197 -0.0243 -0.0394  0.0547
34835W        W77851  17.410  24.235   3.345  0.0637  0.1853 -0.0137
34836W        W77852  27.995  25.183  10.632  0.0439  0.3938 -0.1709
34837W        W77853  18.358  28.505   7.672  0.1791  0.0149  0.0039
34838W        W77854  33.240  16.430   2.161 -0.0671 -0.0551 -0.0163
34839W        W77855  11.779  16.205   5.533 -0.0339  0.0656  0.0859
34840W        W77856  21.357   1.539   8.706 -0.1178 -0.4101 -0.0307
34841W        W77857  25.349  19.862  10.008  0.0432  0.1253 -0.1575
34842W        W77858  31.739  15.875   9.272  0.0276  0.1572 -0.1699
34843W        W77859  27.950  24.922   8.325 -0.1189 -0.2192 -0.2804
34844W        W77860   0.888  34.740  27.546  0.1488  0.0135  0.3703
34845W        W77861  17.039  12.580   0.217  0.0217 -0.3839  0.2340
34846W        W77862  31.609  13.667  25.251  0.0551 -0.0754  0.2000
34847W        W77863   9.053   0.445   9.098  0.2068  0.0850  0.1017
34848W        W77864  27.522  11.582   5.832  0.0774  0.1109  0.2479
34849W        W77865   8.807  15.181  27.414 -0.2372  0.2406 -0.0570
34850W        W77866  34.216  26.038   4.885  0.4614 -0.2663 -0.0956
34851W        W77867  26.208  26.016   4.667  0.0557  0.0434 -0.0068
34852W        W77868  25.358  18.511   3.452  0.2757 -0.4103 -0.0194
34853W        W77869   5.636   6.435   7.130 -0.5786  0.1966  0.0265
34854W        W77870   8.123  29.722   2.640 -0.2065 -0.1690  0.4271
34855W        W77871  27.495  19.581  22.885 -0.1072 -0.3708  0.2365
34856W        W77872  23.249  15.637  26.617 -0.3226  0.4093 -0.0753
34857W        W77873  25.508  18.193  14.909 -0.0862  0.0581 -0.0459
34858W        W77874  34.024   8.274  20.576 -0.0951  0.1236  0.0012
34859W        W77875  23.668   6.425  26.508  0.1877 -0.3673  0.3588
34860W        W77876  32.079  25.342  25.937  0.0781 -0.1486 -0.2300
34861W        W77877  16.355   5.513   7.266  0.0421 -0.3629 -0.1146
34862W        W77878  26.207  27.846  10.779  0.0781 -0.0996  0.0175
34863W        W77879  24.899   3.607   4.297 -0.0635 -0.0253 -0.1786
34864W        W77880   6.487  32.411   2.498  0.0423 -0.2360 -0.0428
34865W        W77881   1.717  22.058   8.965  0.0642 -0.3977  0.2292
34866W        W77882  32.123  28.114   1.805 -0.0694 -0.1924 -0.1010
34867W        W77883  16.270  30.936   3.098 -0.0209 -0.0522  0.0408
34868W        W77884  21.828  10.917   5.599  0.1260  0.0574  0.0908
34869W        W77885   2.823  15.945   8.638  0.0237 -0.2729 -0.1508
34870W        W77886   5.650   6.001   2.466 -0.0368 -0.0752 -0.0509
34871W        W77887  17.127  11.485  25.950 -0.1613  0.0697  0.1102
34872W        W77888   6.136  26.988   5.809  0.1709 -0.0524 -0.1047
34873W        W77889  15.301   2.284  28.298  0.1344  0.2560  0.1623
34874W        W77890  27.806  27.237  26.453  0.0914  0.3424 -0.1653
34875W        W77891  10.601  12.167  23.491  0.1554  0.0549 -0.0587
34876W        W77892  23.732  14.262   5.888  0.0716  0.1009  0.0341
34877W        W77893  11.272  13.339   6.954 -0.2134  0.0350  0.0312
34878W        W77894  34.695  25.933   2.161 -0.1673 -0.0900  0.2175
34879W        W77895   0.748  13.550   4.180  0.1113  0.0622 -0.3752
34880W        W77896   3.523   7.639  26.264 -0.0166 -0.0412 -0.2382
34881W        W77897  25.629  11.382   6.066  0.1344  0.2202  0.0428
34882W        W77898  32.287  21.223   7.390  0.2109  0.0787  0.0889
34883W        W77899  28.796   8.985   5.738 -0.1213  0.4061 -0.2333
34884W        W77900  17.498  18.926  16.607  0.2654  0.3340  0.2079
34885W        W77901  27.168  22.394   2.220  0.2651 -0.1639  0.2194
34886W        W77902  27.744  23.386  10.111  0.0791 -0.0015 -0.0104
34887W        W77903   7.634  21.403  26.596  0.2269 -0.0466  0.1616
34888W        W77904  24.169  29.946   2.418 -0.0931  0.1747 -0.1643
34889W        W77905  30.701  12.629  28.057 -0.1202 -0.1092  0.1243
34890W        W77906   9.699  12.101   3.345  0.1604 -0.1609 -0.1965
34891W        W77907  31.520  12.571  28.579  0.0592  0.1044  0.0263
34892W        W77908  25.166  15.308  25.166  0.1952 -0.1851 -0.2355
34893W        W77909  34.571  19.799  20.481 -0.0506 -0.3966 -0.1798
34894W        W77910  25.396  20.551   6.127  0.2493 -0.0612 -0.1994
34895W        W77911  21.242  25.348   0.682  0.0833 -0.2380 -0.0477
34896W        W77912  24.834   0.779   9.887 -0.0938  0.2040  0.0263
34897W        W77913   7.541   2.318   3.325 -0.0383 -0.2039 -0.2972
34898W        W77914  21.595   4.463   4.658 -0.0176 -0.1575 -0.1370
34899W        W77915   2.339   3.900  25.403  0.3279 -0.4082  0.0032
34900W        W77916   8.736  31.236  14.980  0.3294 -0.0873 -0.0694
34901W        W77917  25.743  14.344   3.172  0.3901  0.0245  0.0134
34902W        W77918  34.368  30.619  21.035  0.0084  0.0264  0.0695
34903W        W77919  16.282  10.111   2.718  0.1031  0.1863 -0.3091
34904W        W77920  25.514  18.132   7.854  0.1115  0.0946 -0.0954
34905W        W77921  25.472  14.045   3.422 -0.1801  0.0514 -0.3898
34906W        W77922  23.043  24.417   4.912  0.0489 -0.1576  0.1392
34907W        W77923  29.601   2.049  16.016  0.0405 -0.0466  0.4517
34908W        W77924  32.852   3.385   1.373 -0.0640  0.1698  0.1236
34909W        W77925  11.272  25.897   2.178  0.3202 -0.1617  0.0559
34910W        W77926  24.262  15.075   9.304 -0.0983 -0.2696 -0.0002
34911W        W77927   7.716  25.136  14.945 -0.1616 -0.0867 -0.0173
34912W        W77928  33.360  22.802   8.566 -0.3285  0.2142 -0.5186
34913W        W77929   5.575  19.819   8.808 -0.2368  0.0426  0.3956
34914W        W77930  34.399  23.649  19.740  0.3060  0.0076  0.0891
34915W        W77931  31.149  27.932   5.445  0.1444  0.3611 -0.3101
34916W        W77932   8.384  12.478   6.619 -0.1657  0.0455  0.4610
34917W        W77933  19.730  22.166   2.604 -0.0181 -0.1707  0.1525
34918W        W77934   2.090  10.894   9.869  0.2960 -0.3388 -0.2156
34919W        W77935  25.878  12.437   7.351  0.0316  0.0653  0.1859
34920W        W77936  27.051  24.352   0.872  0.1218 -0.0436 -0.3189
34921W        W77937  20.616  20.823   5.249  0.1252 -0.1088 -0.0281
34922W        W77938  34.566  10.594   0.412  0.1536 -0.0957  0.0691
34923W        W77939  28.416  26.758   9.396  0.3900  0.0975  0.0173
34924W        W77940   4.067  22.498   6.045  0.1171 -0.2678 -0.1923
34925W        W77941   6.772   9.777  24.353 -0.0685  0.0363  0.0414
34926W        W77942  27.494  15.070   0.053 -0.2166 -0.2943 -0.2779
34927W        W77943  29.972  22.962   8.460  0.2543  0.1075  0.1819
34928W        W77944  22.288  25.370   4.585 -0.1802 -0.1100 -0.2487
34929W        W77945  24.977  11.776   9.693  0.2703 -0.0678  0.0380
34930W        W77946   6.953  20.837   1.867  0.4345 -0.2837  0.0919
34931W        W77947   0.776  12.102   8.353 -0.0289  0.2979  0.0906
34932W        W77948  30.962  19.515   8.453  0.1466 -0.0897 -0.0493
34933W        W77949  28.431  14.995   6.998  0.0132  0.2371 -0.2195
34934W        W77950  33.379  21.402  23.769  0.2442  0.2309  0.0091
34935W        W77951   5.493   6.770  23.414  0.0278 -0.3653 -0.0166
34936W        W77952   2.358  32.312   8.466 -0.0351 -0.1613 -0.1427
34937W        W77953  19.075  27.248   3.031 -0.1426 -0.4119  0.1720
34938W        W77954   7.876  12.313   6.736  0.0979  0.1639  0.0793
34939W        W77955   6.696   6.246   5.381 -0.2339 -0.0300 -0.2666
34940W        W77956   0.673  11.482   1.466  0.2478  0.1880 -0.0947
34941W        W77957  28.074  21.033  16.200  0.1460  0.1949  0.0396
34942W        W77958   1.501  31.033  28.657  0.2119  0.2832 -0.2354
34943W        W77959  17.029  28.922   5.224  0.0786  0.3239  0.1173
34944W        W77960  16.696  31.223   6.986  0.0118 -0.1620 -0.0089
34945W        W77961  34.080  15.766   4.174 -0.3454 -0.4121 -0.3386
34946W        W77962  25.486  15.417   3.552 -0.0190 -0.0362  0.2716
34947W        W77963  10.335  11.131   7.837 -0.2661 -0.2821  0.0235
34948W        W77964  20.293   7.017   4.644  0.2067 -0.0907  0.3220
34949W        W77965  20.322  14.319  12.862 -0.0690  0.1585  0.1551
34950W        W77966  25.657  23.340  26.392 -0.2806 -0.1059  0.1080
34951W        W77967  28.167  18.247   1.290  0.1779  0.0026 -0.0940
34952W        W77968  23.448   4.532   2.734  0.1717  0.0423 -0.0996
34953W        W77969   4.053  24.888  28.407  0.1014 -0.0356 -0.1169
34954W        W77970  29.320  19.492  26.232  0.0327 -0.0349  0.2029
34955W        W77971  19.123  28.131   6.617  0.0125  0.0930 -0.1187
34956W        W77972  34.427  20.802   1.334  0.1827 -0.0256  0.5989
34957W        W77973  33.161  22.033  23.243  0.2664 -0.2047 -0.0164
34958W        W77974   4.238   8.250  10.158 -0.0134 -0.1159 -0.1201
34959W        W77975  28.753  14.926  27.337 -0.1006 -0.1474  0.0570
34960W        W77976  11.680  24.888   8.427 -0.1153  0.2037 -0.0175
34961W        W77977  32.213  23.066   5.808 -0.5511 -0.0359 -0.0026
34962W        W77978   7.751   8.898  14.907  0.1973 -0.1427 -0.0416
34963W        W77979  15.849   9.127  26.630 -0.3834  0.0384 -0.1605
34964W        W77980  11.483   7.435   8.469  0.0662  0.2959 -0.0475
34965W        W77981  28.867  19.060   7.824 -0.1981  0.0619 -0.0936
34966W        W77982  18.249  15.441   7.364  0.1454  0.0717 -0.0349
34967W        W77983  14.504  34.698  28.433 -0.1323 -0.0208 -0.0697
34968W        W77984  18.118   4.451   8.545  0.0838  0.1989  0.5243
34969W        W77985   4.212   5.492   4.622 -0.0087  0.0846  0.0428
34970W        W77986   3.593  17.757   5.633  0.0353 -0.1086  0.1053
34971W        W77987   2.817  25.697   7.479  0.0143  0.1552  0.0019
34972W        W77988  34.287   8.677   5.184 -0.0652 -0.0882  0.0055
34973W        W77989   7.511  11.657   5.703 -0.0490 -0.0501 -0.1679
34974W        W77990   0.671  16.511   4.311  0.3407  0.1483 -0.2782
34975W        W77991  13.840  12.814  28.309 -0.0291  0.0503  0.1027
34976W        W77992  23.149  13.034  25.512 -0.1432  0.0272  0.1627
34977W        W77993   4.063  13.906   0.983 -0.0722  0.1177 -0.0685
34978W        W77994  33.294   3.231   6.303 -0.2722  0.6274 -0.1342
34979W        W77995  30.240  25.192  10.523 -0.3920  0.1500  0.1706
34980W        W77996  27.286  22.603  10.102 -0.2337  0.2424 -0.0460
34981W        W77997   3.750  14.972   7.275  0.0869 -0.3353  0.1697
34982W        W77998  21.144  33.030   0.278 -0.2106 -0.0331 -0.1645
34983W        W77999  23.381  11.348   8.917  0.0854 -0.1035 -0.2688
34984W        W78000  32.274  30.566   4.286 -0.1416  0.3242  0.3521
34985W        W78001   0.311  23.809   0.237  0.2286 -0.1199 -0.0648
34986W        W78002  24.216  29.735   1.745  0.0888  0.1416 -0.0865
34987W        W78003  30.651  24.294  10.469  0.3194  0.4353  0.1377
34988W        W78004  33.240  19.939   4.844  0.0077 -0.0423  0.0602
34989W        W78005  21.138  16.381   2.515  0.4192  0.1952  0.0312
34990W        W78006  13.654  14.256  25.040  0.1152  0.1543 -0.1210
34991W        W78007   0.290  11.848   9.565  0.0314 -0.0654 -0.2374
34992W        W78008   8.062  17.133  28.814  0.1150 -0.1651 -0.3541
34993W        W78009  29.740  18.302  10.759 -0.2056  0.1414  0.0781
34994W        W78010   2.047  29.614  28.546 -0.0850 -0.1552 -0.0388
34995W        W78011   8.780  15.636  27.756 -0.1514 -0.0313 -0.1295
34996W        W78012  23.735  18.188   8.173  0.2379  0.2216 -0.1864
34997W        W78013   2.014  23.703   9.843  0.1798  0.1035  0.1318
34998W        W78014  16.351  16.840  20.509 -0.0986 -0.0408  0.1103
34999W        W78015  26.501  12.284  16.561 -0.3097  0.0062  0.0680
35000W        W78016  30.294  18.977  10.357  0.1497  0.3030  0.2180
35001W        W78017  30.048  10.557   4.252  0.0194 -0.1040  0.1491
35002W        W78018  26.698  16.746   0.408 -0.3266  0.0467 -0.1813
35003W        W78019   7.335  22.740   3.461  0.4484  0.2673 -0.3275
35004W        W78020   2.435   9.274   1.545 -0.2637 -0.1571 -0.0211
35005W        W78021  30.168  11.001   3.235 -0.1960  0.0747 -0.1265
35006W        W78022   5.814  18.328   1.829 -0.1631 -0.2180 -0.2756
35007W        W78023   4.381  17.463   7.391  0.0077  0.0353  0.0817
35008W        W78024  24.519  26.470   3.370  0.1272  0.4181 -0.1132
35009W        W78025   0.174  16.003  14.822 -0.0427 -0.1968  0.0403
35010W        W78026   6.338  27.973  20.105 -0.2458 -0.2637  0.0234
35011W        W78027  16.296   7.113  10.077  0.1869  0.2813  0.0602
35012W        W78028  30.079  27.781   2.708 -0.0204 -0.0578  0.3123
35013W        W78029  18.227  21.551   4.812 -0.1051 -0.1630 -0.0185
35014W        W78030  15.661  22.546   7.837  0.2033 -0.2191  0.1881
35015W        W78031  33.007   2.138   2.202  0.1011  0.2343  0.1072
35016W        W78032  25.883  23.934   3.695  0.0607 -0.0037  0.1683
35017W        W78033  12.979  32.352   8.569  0.1270 -0.2002 -0.0074
35018W        W78034   0.380  26.857   9.769  0.1777  0.1511  0.5137
35019W        W78035  32.007  15.571   4.760  0.3904 -0.0715 -0.2532
35020W        W78036  34.406  22.265   2.089 -0.2000 -0.0092 -0.0766
35021W        W78037   1.398   5.294  18.081 -0.1879 -0.3437 -0.1015
35022W        W78038   3.863  16.959   5.161 -0.2359  0.0846 -0.1896
35023W        W78039  20.167  27.000  10.478  0.1105 -0.0278 -0.0667
35024W        W78040   8.418  22.756   5.051  0.0547  0.2858  0.1494
35025W        W78041  29.226  14.446  27.015  0.2508 -0.2146 -0.1203
35026W        W78042  27.211   7.077   9.053  0.1114  0.2640  0.0407
35027W        W78043  21.478  17.950   5.297  0.2132  0.3649  0.0795
35028W        W78044  19.404  25.375   3.153 -0.0815  0.1528  0.2817
35029W        W78045  20.359  29.513  26.427  0.0822 -0.0677 -0.2913
35030W        W78046  31.036  11.414  23.398  0.1853  0.2614  0.1238
35031W        W78047  18.912  33.881   7.939  0.0450  0.2073  0.0212
35032W        W78048  29.206  12.460   7.777 -0.2953 -0.0481  0.3555
35033W        W78049  13.574  26.734   4.344  0.1279  0.0732  0.1336
35034W        W78050   7.210  21.500  29.311  0.1447 -0.0985 -0.2362
35035W        W78051  27.269   4.862  28.473  0.1082 -0.1073  0.1043
35036W        W78052  33.788  34.692   5.500 -0.3268 -0.0767 -0.0131
35037W        W78053  25.222  30.858  10.992  0.2465 -0.1344 -0.5167
35038W        W78054   2.328  25.022   3.134 -0.0169 -0.1954  0.1195
35039W        W78055  21.249  18.633   2.278 -0.0488  0.2439 -0.0250
35040W        W78056  31.642  10.599   1.926 -0.3911  0.1034 -0.1688
35041W        W78057  29.106  14.951  25.902 -0.2677  0.1941  0.0249
35042W        W78058  14.388  26.213  10.069  0.3522  0.0434 -0.0976
35043W        W78059  13.259  10.624  20.283  0.0823 -0.3215  0.0609
35044W        W78060   9.783  16.739   1.141  0.0606  0.0061 -0.0935
35045W        W78061  12.366  18.887   7.692 -0.0549  0.2026 -0.1559
35046W        W78062  22.813  18.972   6.927 -0.0155  0.1799 -0.0743
35047W        W78063  23.495  20.686   8.478 -0.1967 -0.0425 -0.1070
35048W        W78064   1.579  25.106   7.195 -0.2595 -0.1606 -0.0778
35049W        W78065  23.307  11.639   8.498 -0.0189  0.0234  0.0972
35050W        W78066  23.026   9.915  28.021  0.0778 -0.2065  0.2589
35051W        W78067  32.505  14.103   6.030 -0.0199 -0.1427 -0.1117
35052W        W78068  32.584  26.361  21.632  0.0029 -0.1427  0.0188
35053W        W78069  10.563  20.473   3.942  0.2979  0.1055  0.3189
35054W        W78070   8.849  18.264   5.302  0.1517 -0.0644  0.2883
35055W        W78071  22.189  21.959   4.293  0.0691  0.0717  0.2840
35056W        W78072  33.413  13.704  10.696  0.2228  0.0502  0.0857
35057W        W78073  21.993  19.827   7.675 -0.0274 -0.0418  0.0172
35058W        W78074  21.827  23.959   8.261 -0.1793 -0.3012  0.2606
35059W        W78075  21.964  10.503  17.327  0.0316 -0.3131  0.0292
35060W        W78076  22.084  33.587   5.312  0.2344 -0.1919 -0.0944
35061W        W78077  24.499   5.081   8.163  0.0526  0.2526 -0.0981
35062W        W78078  18.802  14.016  28.169  0.0177  0.3102 -0.0925
35063W        W78079  11.205   4.846  26.082  0.0811 -0.1939  0.3489
35064W        W78080  16.516  13.592  27.293  0.2685 -0.1961  0.1061
35065W        W78081  32.787  22.561   7.665  0.0014  0.0320 -0.3176
35066W        W78082  13.266  21.421   8.808 -0.0848 -0.1457  0.0622
35067W        W78083  11.949   5.246   7.760  0.1998 -0.0127  0.1107
35068W        W78084   3.945  16.311   9.293  0.1681 -0.2272 -0.0651
35069W        W78085   0.133  24.874  28.690 -0.2035 -0.1945 -0.0444
35070W        W78086  31.731  25.777   4.894 -0.0489  0.0576  0.0915
35071W        W78087  28.088  10.684  26.669 -0.2519  0.5444  0.0539
35072W        W78088  28.301  18.329  27.096  0.0068  0.0768  0.0543
35073W        W78089   0.969  19.382   2.585 -0.0990  0.1982  0.2277
35074W        W78090   2.600  24.299   4.132 -0.1555  0.1292 -0.4201
35075W        W78091  30.110   7.426  18.494 -0.1377 -0.1768 -0.2248
35076W        W78092  27.322   5.232   7.879 -0.1731  0.0940  0.1208
35077W        W78093  26.854   1.738   5.309 -0.0288  0.4128 -0.1588
35078W        W78094  19.487  12.850   1.748  0.1166 -0.1026  0.1764
35079W        W78095  34.372  21.489   6.170  0.0456  0.1136 -0.1424
35080W        W78096  21.228  13.918  28.438 -0.1805  0.2408 -0.0774
35081W        W78097  18.507  22.321   5.122  0.0587 -0.1404  0.0757
35082W        W78098  20.065  13.793  25.650 -0.0793  0.1605 -0.1386
35083W        W78099  29.102  27.012   1.958 -0.0125 -0.0574 -0.0094
35084W        W78100  28.017  11.458   4.203  0.1298 -0.0066  0.0640
35085W        W78101  16.499  12.188   4.790  0.3325  0.0143  0.2270
35086W        W78102  23.882  24.301   7.566 -0.0432  0.1766 -0.2563
35087W        W78103   7.943  15.699   8.144 -0.1557 -0.0051 -0.2790
35088W        W78104  21.560  15.585  27.913 -0.0709 -0.1106  0.0325
35089W        W78105  25.934   8.882  27.382 -0.0275  0.0935  0.1163
35090W        W78106  27.626  20.833   1.907  0.1159 -0.2437 -0.1067
35091W        W78107  18.584   2.838  25.136 -0.0437  0.1653  0.1161
35092W        W78108  19.320  19.332  28.505  0.0504 -0.2713  0.1727
35093W        W78109  34.400   0.802  28.130  0.1283 -0.2820 -0.3251
35094W        W78110   7.628  19.843   2.574  0.0422 -0.3026 -0.2883
35095W        W78111  33.323  28.237   3.765  0.1138  0.2309  0.0138
35096W        W78112   6.158  15.328  25.106  0.0140  0.1167 -0.0579
35097W        W78113  29.528  11.676  21.789  0.2905  0.1600 -0.1711
35098W        W78114  28.817  10.048   2.309 -0.1289  0.0240 -0.1210
35099W        W78115  33.724  31.005  29.217  0.1616 -0.2569  0.0487
35100W        W78116  10.285  19.169   8.803 -0.0169  0.0708  0.1047
35101W        W78117  24.537   2.287   4.865  0.1964 -0.0049  0.3498
35102W        W78118  27.800  23.787  18.529  0.0963 -0.2583  0.3640
35103W        W78119   7.804  17.625   1.291  0.0451  0.0420 -0.5364
35104W        W78120   3.856  11.415  27.788  0.0598  0.0497  0.1060
35105W        W78121  25.698  34.487  28.980 -0.2383 -0.0254  0.2485
35106W        W78122  34.746  16.938   0.252 -0.0236  0.0537  0.0356
35107W        W78123  27.705  23.177  11.009  0.2055 -0.1428 -0.0108
35108W        W78124  23.265  30.793  10.357  0.0912  0.1132 -0.0546
35109W        W78125  32.265  18.135   2.821  0.3617  0.0317 -0.0778
35110W        W78126  11.043   5.204   9.878  0.0340  0.2612 -0.3004
35111W        W78127  18.548  28.739   8.688  0.5755  0.0772  0.1484
35112W        W78128  33.878  21.256  16.512  0.0347 -0.0050 -0.0425
35113W        W78129  27.866  11.312   4.898 -0.2776 -0.1207 -0.0841
35114W        W78130  23.212  26.772  28.936  0.1285  0.1579  0.4147
35115W        W78131   0.515   9.522   9.194  0.0587 -0.0909  0.0703
35116W        W78132  29.915  27.341   4.991  0.0890  0.1934  0.0189
35117W        W78133   0.065  29.091  10.937 -0.3075 -0.0064  0.1435
35118W        W78134  25.876  21.343  10.636  0.4286  0.0677 -0.1425
35119W        W78135   3.971  23.274   7.302  0.1407 -0.3514  0.2304
35120W        W78136  17.789  17.258  26.202 -0.0301  0.0241 -0.0122
35121W        W78137  15.818  10.457  14.299  0.1936 -0.0207  0.1403
35122W        W78138  28.316  24.681   4.148  0.3611 -0.3079 -0.0668
35123W        W78139   7.158  28.258   9.326  0.1153 -0.0342 -0.1668
35124W        W78140   2.000  13.833   8.212 -0.1229  0.0280 -0.0361
35125W        W78141   6.979  11.443   9.013  0.2529 -0.1442  0.1124
35126W        W78142  15.322   6.188   1.236 -0.0544  0.1672 -0.0534
35127W        W78143  25.033  25.878  11.185  0.0980  0.0390 -0.2054
35128W        W78144  26.636  15.748   4.539 -0.1628  0.0188 -0.0249
35129W        W78145  19.574  27.307  28.779  0.2474 -0.2121  0.3803
35130W        W78146  27.222  14.059   6.780  0.1615  0.2087 -0.0544
35131W        W78147  30.566  24.705   9.179 -0.0287  0.1080 -0.0958
35132W        W78148  25.352  20.978   7.888 -0.1334 -0.0130 -0.0272
35133W        W78149  18.653  31.121   3.927 -0.0720  0.1133  0.1612
35134W        W78150  26.903  12.118  10.050  0.3387  0.0695 -0.0131
35135W        W78151  30.124  33.330   7.848  0.1898  0.0220 -0.0607
35136W        W78152  30.462  30.569  21.483  0.0347  0.2320  0.0052
35137W        W78153  18.867  14.750   0.985  0.0438  0.1768 -0.0547
35138W        W78154  24.520  24.658   5.687 -0.2831 -0.1655 -0.4464
35139W        W78155  29.079  23.025   9.463 -0.2144 -0.3552  0.1767
35140W        W78156   6.849  13.308   1.804 -0.1313 -0.0853  0.6602
35141W        W78157   3.909  25.210   6.305 -0.1761  0.2710  0.2742
35142W        W78158  34.568  16.754  11.292 -0.1307  0.0655  0.0816
35143W        W78159  32.212  13.708   7.483 -0.1237  0.1888 -0.6142
35144W        W78160  19.581  14.921  28.518  0.1756  0.0356 -0.1884
35145W        W78161  23.614   6.246  16.282  0.1907  0.0704  0.0344
35146W        W78162  21.927  21.851   1.835  0.2246 -0.0894  0.1884
35147W        W78163  31.247  16.446  25.289  0.1687 -0.1391  0.1366
35148W        W78164   5.044  12.915   6.703  0.4983 -0.0871  0.0187
35149W        W78165  26.761  17.277  22.855 -0.1440 -0.0690 -0.2506
35150W        W78166  33.039   9.341   3.352  0.1553 -0.3374 -0.3900
35151W        W78167  16.203  24.180  28.717 -0.0349  0.3392 -0.2511
35152W        W78168   4.590  33.152  27.541  0.3464  0.1377 -0.0812
35153W        W78169  28.435  16.420   5.037 -0.0401 -0.1819  0.0499
35154W        W78170  25.382  32.223  28.599 -0.1872 -0.3396 -0.0371
35155W        W78171  17.129  11.890   7.234 -0.1454  0.2382 -0.2163
35156W        W78172  12.624   1.649   5.287 -0.0367 -0.2929 -0.0370
35157W        W78173  21.609  19.854   0.530  0.1836  0.0808 -0.0399
35158W        W78174  26.515   4.012  26.501 -0.2463  0.1030  0.2210
35159W        W78175  11.822  31.182   5.223  0.3902  0.0347 -0.1366
35160W        W78176   7.702  10.435  26.124  0.2587  0.0741 -0.1695
35161W        W78177  10.936  25.092  26.042 -0.2037  0.2856 -0.1206
35162W        W78178  26.980  21.373   5.538 -0.1662 -0.0072  0.0416
35163W        W78179  28.396  19.709   6.612 -0.1833 -0.2724  0.1014
35164W        W78180  19.383  17.424  21.131  0.2008 -0.1363 -0.1337
35165W        W78181  27.696  10.124   9.107  0.2160 -0.1247 -0.1361
35166W        W78182  29.869  23.462   1.250  0.4595 -0.0070 -0.2478
35167W        W78183  25.470  18.337   6.590 -0.1009  0.1140  0.1155
35168W        W78184  16.736  29.577   8.732 -0.0648  0.1497 -0.0188
35169W        W78185  20.609  16.650  22.323  0.0195 -0.0017  0.1144
35170W        W78186  24.358  22.907  10.415  0.1065 -0.2287  0.0429
35171W        W78187  18.966  28.334  26.214  0.0885 -0.1763 -0.1229
35172W        W78188  24.323  16.768  24.138  0.1291 -0.0504  0.0409
35173W        W78189  18.884  12.797   7.954  0.1852  0.0489 -0.0535
35174W        W78190  14.628  19.124  20.179 -0.1927  0.1881  0.4600
35175W        W78191  13.129  26.612  27.557 -0.2256  0.0575  0.0307
35176W        W78192  30.720  30.341  25.154  0.0267 -0.1817  0.5965
35177W        W78193  34.036  17.861  28.549  0.0704 -0.1991  0.1725
35178W        W78194  29.595  28.423   1.700  0.1338 -0.1607 -0.0374
35179W        W78195  24.413  15.339  28.809 -0.1124 -0.3584 -0.3394
35180W        W78196  30.293  30.697   8.559  0.1301 -0.3160 -0.0521
35181W        W78197  19.164  17.426  15.652  0.1400  0.4011 -0.1582
35182W        W78198  23.573  29.187   2.022  0.1573 -0.0474 -0.2538
35183W        W78199  29.113  23.625  11.365  0.3730 -0.2994 -0.3040
35184W        W78200  29.852   8.279   6.947 -0.0433 -0.0626 -0.1199
35185W        W78201  17.806  17.775  23.755 -0.1673 -0.1779  0.1714
35186W        W78202  19.900   3.456   6.032  0.1051  0.1796  0.0898
35187W        W78203  25.886  20.861  27.011 -0.0710 -0.2493  0.0996
35188W        W78204   9.735  18.765   6.139  0.1790 -0.1525  0.2364
35189W        W78205   7.255  23.912   5.329  0.3892  0.1579 -0.3159
35190W        W78206  22.273  25.010   2.277 -0.0119 -0.1666  0.2717
35191W        W78207  29.553  28.830   4.031  0.0490 -0.0667  0.1653
35192W        W78208  33.903  14.904  10.460  0.0453 -0.0962  0.0941
35193W        W78209  28.310  24.732   6.232  0.3545  0.0433 -0.1020
35194W        W78210  34.161  11.365   3.668 -0.1678  0.1328  0.0190
35195W        W78211   8.391  19.042   0.290 -0.2302  0.3180 -0.1571
35196W        W78212  31.330   7.111   3.395 -0.0365  0.1113  0.0411
35197W        W78213  25.527  12.062   2.337  0.0635  0.0467 -0.3217
35198W        W78214  31.494  13.924   3.207  0.0447 -0.2229  0.0707
35199W        W78215  18.496   8.475   0.902  0.0317 -0.3869  0.1080
35200W        W78216  26.530  22.266   7.177 -0.0326  0.2277 -0.3100
35201W        W78217  33.890  15.948  26.880 -0.2125 -0.1527 -0.1080
35202W        W78218   3.566  27.830   0.565  0.2502 -0.0934  0.0708
35203W        W78219  26.594  18.471  23.267 -0.0028  0.1467  0.0571
35204W        W78220  20.003  28.762   7.509  0.2248  0.3446  0.2167
35205W        W78221  33.764  16.513   9.601  0.2357 -0.2088 -0.2335
35206W        W78222  24.890  15.004  20.121  0.1108  0.1518  0.0524
35207W        W78223   2.383  29.132  29.185 -0.3250  0.0706 -0.2805
35208W        W78224   2.600   5.855   0.949  0.1863 -0.0464  0.3735
35209W        W78225  19.173   1.044  10.360  0.3660  0.3394 -0.1888
35210W        W78226  24.174  21.648   5.867 -0.0027  0.3897 -0.0967
35211W        W78227  27.182  10.586  11.035 -0.2052 -0.1590  0.2163
35212W        W78228  22.165  19.693  24.335 -0.1387  0.4435 -0.0533
35213W        W78229  20.047  19.658   2.806  0.0236  0.3123  0.1381
35214W        W78230  30.188  26.071  24.111  0.3066 -0.3381  0.1718
35215W        W78231  18.431  20.673   4.571  0.0025 -0.0534 -0.0305
35216W        W78232  22.304  16.012   1.914  0.1275 -0.0103  0.0958
35217W        W78233  25.416  18.112   7.364  0.0489  0.1031  0.1292
35218W        W78234  24.798   9.941  27.240  0.1129  0.1315 -0.0861
35219W        W78235   0.355  30.213   5.988 -0.0310  0.1377  0.1098
35220W        W78236  29.135  20.298  10.348  0.0916  0.2610  0.0903
35221W        W78237   0.324  12.677   6.245  0.1098 -0.0388 -0.0324
35222W        W78238  25.914  20.415  29.117  0.0858  0.1294  0.0544
35223W        W78239  23.124   8.343   7.333 -0.1381  0.3091 -0.0494
35224W        W78240  33.822  22.505   7.667 -0.0673  0.0257 -0.1572
35225W        W78241  28.663  23.266   2.764  0.1050 -0.0936  0.0902
35226W        W78242   0.342  24.797   9.588 -0.1063 -0.1293 -0.0152
35227W        W78243  22.591  27.956  28.900 -0.2348  0.4826  0.1884
35228W        W78244  33.003  11.281   2.514  0.0636 -0.5286 -0.1103
35229W        W78245  18.613  12.871   1.919 -0.1021  0.0383  0.3604
35230W        W78246   4.584  10.167   7.026  0.3263 -0.0239  0.2323
35231W        W78247  21.802  26.267  26.805 -0.1636  0.1699  0.1083
35232W        W78248  26.239  33.987   8.282 -0.1490  0.1123 -0.0233
35233W        W78249   3.005   8.168   1.682  0.2443  0.1944 -0.0456
35234W        W78250  20.829  16.757  15.146  0.1160  0.2511 -0.2342
35235W        W78251   0.888  13.566   3.186  0.2255  0.1392  0.2292
35236W        W78252   4.542  19.624   3.093 -0.0647 -0.0600 -0.1675
35237W        W78253  27.455  19.379  24.924  0.1203  0.0336 -0.1157
35238W        W78254  26.009  23.803  24.601  0.1337 -0.0700 -0.1146
35239W        W78255  12.608  14.280  22.286  0.1931 -0.2401 -0.4492
35240W        W78256  28.043  23.134   4.754  0.1129 -0.1100 -0.1858
35241W        W78257  16.516   6.439   8.767 -0.3479 -0.0455  0.4777
35242W        W78258   2.875  20.007  27.972  0.3890 -0.1470  0.0947
35243W        W78259  27.045  20.503   9.616  0.1302  0.0151  0.0942
35244W        W78260  25.305   3.349   7.331 -0.0797 -0.0166  0.0419
35245W        W78261   0.857  32.024  21.690 -0.0204 -0.4138  0.0500
35246W        W78262  25.430  21.751   8.964 -0.2476  0.0307 -0.0330
35247W        W78263  34.160   5.960   3.135  0.2210  0.5770  0.2186
35248W        W78264  31.758   4.272   6.708  0.0598  0.0674  0.0366
35249W        W78265  22.342   9.608   6.156 -0.0144  0.3216 -0.0730
35250W        W78266  31.439  22.569   7.758 -0.0432 -0.4539  0.0724
35251W        W78267  26.237  33.891   3.118 -0.0904 -0.1955  0.1391
35252W        W78268  27.906  20.158   4.852 -0.3482  0.1095  0.0395
35253W        W78269  28.915  16.287   6.327  0.1279 -0.0527 -0.2924
35254W        W78270   4.929  26.636  27.164 -0.0094 -0.1831  0.0815
35255W        W78271  28.468  16.885  10.034  0.1375  0.0391 -0.1656
35256W        W78272  28.976   6.000  27.774  0.3961 -0.2536  0.0349
35257W        W78273   5.610  30.735   5.517  0.2818  0.2113  0.1064
35258W        W78274  33.082  26.616   1.408 -0.1196 -0.0785  0.1700
35259W        W78275  17.076   9.611  26.363 -0.1462  0.0559 -0.2131
35260W        W78276   0.352  27.262  28.146 -0.2780 -0.1635 -0.2426
35261W        W78277   6.672   4.118   7.728  0.0305 -0.0310  0.2756
35262W        W78278  25.394  15.352   4.203  0.0428  0.2935  0.0055
35263W        W78279  24.357  25.922  18.200 -0.1217 -0.0984 -0.0984
35264W        W78280  23.873  23.029  10.150  0.2492 -0.0248 -0.3009
35265W        W78281  23.162  15.241  28.540 -0.1046  0.0418  0.2097
35266W        W78282  33.621  14.108  18.004  0.0910 -0.1042  0.2215
35267W        W78283  22.683  21.651  26.491  0.3076  0.1053 -0.1182
35268W        W78284  14.109  17.088   7.023 -0.0798 -0.3846  0.2702
35269W        W78285  27.118  17.852  18.083 -0.0526 -0.1217 -0.0202
35270W        W78286  12.212   7.321   7.944  0.0584 -0.4815 -0.1993
35271W        W78287   0.045  21.803  26.070 -0.0604  0.4493  0.0600
35272W        W78288   6.292  12.650  10.205 -0.4100 -0.2362 -0.0178
35273W        W78289   9.662  33.173   8.437 -0.0983 -0.1500 -0.2992
35274W        W78290  26.573  23.200  26.605  0.0386 -0.2393  0.1547
35275W        W78291   1.471  12.697   4.916 -0.0180  0.0860 -0.3809
35276W        W78292   7.634  33.932   0.129 -0.1172 -0.0496  0.1716
35277W        W78293  24.300  25.874   4.569  0.0061  0.0668 -0.2943
35278W        W78294  11.869   8.516   1.333  0.1107  0.0195 -0.2012
35279W        W78295  32.678  25.109   8.029  0.0525  0.0569 -0.0943
35280W        W78296  23.756  21.217  27.522 -0.0151  0.2797  0.2436
35281W        W78297   7.105   5.981  23.544  0.1287 -0.0370 -0.2091
35282W        W78298  21.931  22.142   6.181  0.0754  0.3534 -0.1140
35283W        W78299   6.635  13.077   1.362 -0.4463  0.2342 -0.2239
35284W        W78300  17.236  12.091   3.806 -0.2025 -0.3206 -0.0864
35285W        W78301  20.257  28.051   7.762 -0.1880 -0.0288  0.4978
35286W        W78302  32.200  29.195   4.308  0.3685  0.2694  0.2162
35287W        W78303  32.341  19.037  24.106 -0.0596  0.2208 -0.2550
35288W        W78304   6.666  19.556   2.574 -0.1993  0.4076  0.0794
35289W        W78305  16.511  11.513   6.181 -0.0404 -0.2610 -0.0995
35290W        W78306  11.989  11.717   9.288  0.1502 -0.1846  0.0601
35291W        W78307  30.527   0.351  26.189  0.2321  0.1762 -0.1450
35292W        W78308  24.288  15.399   8.883  0.0180  0.3420  0.1074
35293W        W78309  17.764  27.003   7.374 -0.1516  0.1813  0.2218
35294W        W78310  23.642  18.417   7.697 -0.1377  0.0134  0.0444
35295W        W78311  33.855  19.984   6.731  0.0454  0.2395 -0.0955
35296W        W78312  32.555   0.756   8.260  0.1063  0.0262  0.0307
35297W        W78313  14.267  11.498  26.458  0.3067 -0.1476  0.2384
35298W        W78314  34.187  11.609  24.947  0.2586  0.1821 -0.1595
35299W        W78315   8.406  28.707   9.707 -0.0215  0.4992 -0.0311
35300W        W78316  26.425  15.843   9.062  0.0316  0.0162 -0.0378
35301W        W78317  21.355  24.337  17.372  0.0514 -0.0259  0.2135
35302W        W78318  29.581   9.310  28.502  0.0585  0.0942  0.1916
35303W        W78319  29.637  12.892   5.542  0.1031  0.0466 -0.0870
35304W        W78320  19.799  17.931   5.688 -0.0779 -0.2746 -0.0021
35305W        W78321  33.051  13.187   1.522 -0.2345  0.1183 -0.0463
35306W        W78322  28.050  12.302   1.682 -0.2476 -0.0788 -0.1699
35307W        W78323  30.047  20.337   6.121 -0.1561 -0.0642 -0.1399
35308W        W78324   3.215  22.721   6.599 -0.2899 -0.1971  0.2179
35309W        W78325  13.181  32.121  15.868 -0.2691 -0.1987  0.2548
35310W        W78326  24.152  16.568  15.840  0.5267  0.1066 -0.0495
35311W        W78327  24.234   2.405  10.605  0.2962 -0.0375 -0.1373
35312W        W78328  24.423  15.739   2.399  0.1474 -0.2435 -0.1839
35313W        W78329  18.345   9.767  28.755  0.0643 -0.4801  0.1681
35314W        W78330  22.130  11.939  28.092  0.0868 -0.4297 -0.1271
35315W        W78331  23.040  10.285   5.530  0.0786 -0.3603 -0.1575
35316W        W78332  15.447   1.943  19.927  0.0162  0.0423  0.3556
35317W        W78333  19.119  13.345   4.642  0.1141  0.0733 -0.0346
35318W        W78334  31.473  20.209   7.831  0.1611 -0.2364  0.1569
35319W        W78335  11.084  16.709  14.253 -0.5125  0.1669 -0.2234
35320W        W78336  10.404  13.159   6.458 -0.2380 -0.0766  0.2503
35321W        W78337  34.107  26.969   8.232 -0.0128 -0.1533  0.0323
35322W        W78338   3.789  20.901   5.894  0.1887 -0.1981  0.2453
35323W        W78339  22.441  13.175  15.679  0.0768  0.0189 -0.1471
35324W        W78340  20.904  14.473  21.879  0.0345 -0.2697 -0.1085
35325W        W78341  18.431  31.509   7.430  0.0792  0.1201 -0.1921
35326W        W78342  23.953  25.905   1.590 -0.0890 -0.3450  0.0893
35327W        W78343  33.791  24.244  22.921  0.0592  0.5111  0.1781
35328W        W78344   9.286   5.584  21.971  0.4057  0.0080  0.0192
35329W        W78345  13.855  24.195  20.862 -0.0496  0.1247  0.0754
35330W        W78346  31.446  28.932   2.147  0.3442 -0.2994  0.0780
35331W        W78347   3.159  18.828   8.193 -0.0745  0.0146  0.0110
35332W        W78348  29.473  20.525   9.139  0.3313 -0.2069  0.2166
35333W        W78349  12.614  12.300   5.999  0.2432  0.3016  0.0080
35334W        W78350  12.915  23.961   5.280 -0.0781 -0.0245  0.2851
35335W        W78351  21.582  19.184   5.182  0.2525 -0.1413 -0.0035
35336W        W78352  32.844  21.334   7.499 -0.2231  0.4094  0.2351
35337W        W78353  16.281  19.287  27.082 -0.3236  0.3207  0.1563
35338W        W78354  14.906  24.552  28.605 -0.0253 -0.1591 -0.1815
35339W        W78355  22.913  14.697   5.358 -0.0175  0.0634  0.0662
35340W        W78356  24.245  21.938   0.305 -0.0805  0.0379  0.0431
35341W        W78357  26.253  33.623   7.657 -0.2629  0.6680 -0.2074
35342W        W78358  27.830  29.844  27.820 -0.1829  0.1953  0.1463
35343W        W78359  12.230  18.187   6.200  0.1148  0.1822 -0.0326
35344W        W78360   5.803  28.342  28.142  0.1271 -0.2270 -0.1777
35345W        W78361  28.041  11.600  17.721  0.0954  0.0275 -0.1349
35346W        W78362  18.709  14.551  28.190 -0.0322  0.4898  0.3078
35347W        W78363  14.961  20.455   5.104 -0.0719  0.1686 -0.0409
35348W        W78364  28.256  19.182   6.976  0.2869  0.0117 -0.1990
35349W        W78365  14.016  34.668   8.439  0.2473  0.0772 -0.0828
35350W        W78366   3.126  25.220   8.342  0.2421 -0.0702  0.0622
35351W        W78367   4.070  23.555   6.037  0.1537 -0.0885  0.1833
35352W        W78368  31.097  26.385  11.139 -0.0078 -0.4686 -0.2242
35353W        W78369  26.956  18.050   2.914  0.5102 -0.4779 -0.1817
35354W        W78370  29.809  15.085   2.170  0.3705 -0.0156  0.2802
35355W        W78371  32.945  19.837   0.059 -0.3389 -0.3615  0.1742
35356W        W78372  19.758  20.272   5.939  0.1610  0.0318 -0.1489
35357W        W78373  30.280   8.884  10.696  0.0136  0.0788 -0.3064
35358W        W78374  19.998   9.942   7.074 -0.0188  0.2330  0.2741
35359W        W78375  13.018  23.255  27.755  0.0568 -0.2337  0.0404
35360W        W78376  30.877  30.577   5.752 -0.1770 -0.1289 -0.3692
35361W        W78377   3.764  17.693   4.250  0.2039 -0.0029 -0.2262
35362W        W78378  26.612  14.329  23.617 -0.0926 -0.0203 -0.2470
35363W        W78379   7.174  21.063  27.393 -0.3464  0.0468 -0.3143
35364W        W78380  17.047  31.634  10.517  0.2843  0.0666 -0.1426
35365W        W78381  27.831  15.813   9.634  0.1645  0.3599  0.0796
35366W        W78382  20.219   3.977   3.963  0.1081  0.4333  0.0344
35367W        W78383   0.479  20.509  29.113  0.3330  0.0533 -0.1178
35368W        W78384  30.064  18.021   1.516 -0.1161 -0.1175  0.0068
35369W        W78385  24.786  20.928  24.275  0.1122 -0.1772  0.2676
35370W        W78386  20.610  15.001  28.136 -0.0261  0.0529  0.1075
35371W        W78387  11.089  14.559   3.310  0.0434 -0.1268 -0.0220
35372W        W78388  33.010   0.053  22.753 -0.0532 -0.2391  0.0628
35373W        W78389   8.909  12.942   5.483 -0.1082 -0.0558  0.3131
35374W        W78390  27.469  18.552  20.584 -0.1627 -0.1552 -0.0551
35375W        W78391  28.161  13.715  26.661  0.2774 -0.2975  0.2718
35376W        W78392  24.077  16.934  24.544  0.0523  0.2767  0.0788
35377W        W78393  26.120  10.316  17.080  0.3932 -0.1688  0.0110
35378W        W78394  27.624  15.938   1.693 -0.0310 -0.1820  0.4219
35379W        W78395  17.325  19.695  28.399 -0.0026 -0.0702 -0.2202
35380W        W78396   9.178  28.526   7.094  0.1135  0.2758 -0.0516
35381W        W78397  28.483  24.701   3.147 -0.1047 -0.0898 -0.3813
35382W        W78398  25.960   0.877  10.899 -0.0487  0.0686  0.0796
35383W        W78399  30.058   9.530   5.713  0.0572  0.0401  0.2352
35384W        W78400  28.945  25.382   3.225 -0.1936 -0.0065  0.1267
35385W        W78401  16.444  25.858   0.015  0.0861 -0.1600 -0.0578
35386W        W78402  31.478   2.119   8.999  0.1824  0.0082  0.1689
35387W        W78403  18.533   8.976   3.957  0.1898  0.0073 -0.0319
35388W        W78404  31.323  23.600  25.131  0.0291  0.2426 -0.0686
35389W        W78405  33.490  11.965   4.517 -0.0068  0.2261 -0.2024
35390W        W78406   7.674  17.983  23.723  0.0987 -0.0620  0.0042
35391W        W78407  11.826  17.203  22.842 -0.1390  0.3078 -0.1317
35392W        W78408  33.164   7.150   3.137 -0.1611  0.1405  0.0756
35393W        W78409  32.779  13.222   5.704 -0.0611 -0.0581 -0.0850
35394W        W78410  23.893  29.249   5.229  0.3333  0.1729 -0.2210
35395W        W78411  34.388  25.601  22.411 -0.1388  0.1145  0.0538
35396W        W78412  33.836  21.284  27.708  0.0399  0.2882  0.0139
35397W        W78413   7.065  20.020   5.948  0.2044  0.3322  0.0617
35398W        W78414  15.930  17.512   5.553  0.3709 -0.2609 -0.2709
35399W        W78415   3.106  15.055  26.849 -0.0845  0.1996 -0.0878
35400W        W78416  21.110   0.488  17.672 -0.1763  0.0801  0.0596
35401W        W78417   4.615  26.409   9.165 -0.0178  0.0430 -0.1628
35402W        W78418  28.501  32.000   8.047 -0.1763 -0.0546  0.3730
35403W        W78419  24.479  11.271  17.731 -0.1318 -0.1656  0.0406
35404W        W78420  20.858  32.564  27.355  0.0295  0.3070  0.2103
35405W        W78421  28.468   4.670   7.594  0.0850 -0.0260  0.0158
35406W        W78422  33.293   8.567  29.097  0.1237  0.1236  0.1862
35407W        W78423  25.288  13.609  27.320  0.3193 -0.1658 -0.2332
35408W        W78424  25.859  27.385  20.489  0.1245  0.0775  0.2279
35409W        W78425   2.029  16.641  26.133  0.3082  0.1044  0.2538
35410W        W78426  26.242  25.847   7.600 -0.0762  0.1249 -0.0179
35411W        W78427  34.663  17.518   5.165 -0.1643 -0.1045 -0.0119
35412W        W78428  29.364  14.069   4.684 -0.1242  0.0158  0.0348
35413W        W78429   1.604  24.590   7.376 -0.1807  0.2448 -0.2530
35414W        W78430  33.256  32.293   3.645  0.2210 -0.0663  0.2201
35415W        W78431  30.568  22.081  23.678  0.2483 -0.1506 -0.0577
35416W        W78432  31.164  19.582  15.367  0.2664 -0.0787 -0.1533
35417W        W78433   7.270   8.803   1.030  0.2520 -0.0408  0.2673
35418W        W78434  13.189  33.994   5.862  0.0987 -0.4008 -0.0237
35419W        W78435  24.730  27.929  25.234  0.1174  0.1982 -0.0618
35420W        W78436  23.583   1.375  10.101  0.4322 -0.3459 -0.1982
35421W        W78437  34.107  16.060   9.231 -0.3338  0.2366  0.1895
35422W        W78438  26.967   4.620  16.421  0.1893  0.1446  0.4611
35423W        W78439  24.163   5.814  20.969 -0.1642 -0.3472  0.1523
35424W        W78440   5.303   9.865   6.244  0.0012 -0.0864 -0.1987
35425W        W78441  32.841  11.151  17.290 -0.1100 -0.1074 -0.2152
35426W        W78442  28.317   0.223   1.063  0.0303 -0.2273  0.0155
35427W        W78443  31.713  25.481   0.499  0.2065 -0.0730  0.0639
35428W        W78444  23.830   6.821   7.627 -0.2104 -0.1317  0.1277
35429W        W78445  26.486  31.306   2.959 -0.1108  0.2972 -0.1183
35430W        W78446  15.817  25.581  21.347 -0.0126  0.3027 -0.3927
35431W        W78447   7.915   6.785   6.072  0.1009 -0.5405 -0.0728
35432W        W78448   3.883  16.806   3.588  0.1203 -0.3066  0.1149
35433W        W78449  15.641  24.476   1.298  0.2408  0.3696 -0.0502
35434W        W78450   1.397   8.651   1.853  0.0121 -0.0353  0.2097
35435W        W78451  18.335  33.439  15.908  0.0846 -0.0619 -0.2883
35436W        W78452   3.879   1.852   0.097  0.0288 -0.4462 -0.1214
35437W        W78453   6.142   7.548   4.116  0.0177 -0.2229 -0.0923
35438W        W78454  26.265  16.467  22.084  0.2604  0.0018  0.2174
35439W        W78455  12.410  16.772  23.861 -0.0394  0.0734  0.1136
35440W        W78456  19.845  18.136   8.602 -0.1768  0.0779  0.1626
35441W        W78457  13.588  20.235  28.302 -0.2408  0.0275 -0.2245
35442W        W78458   2.655  17.089   9.793 -0.1825  0.2141 -0.1735
35443W        W78459  29.378   2.570  17.758 -0.0450  0.0052 -0.1041
35444W        W78460  23.046  22.306  13.619  0.0197  0.1288 -0.2832
35445W        W78461  25.027  28.401   5.779  0.2484  0.0108 -0.3201
35446W        W78462  23.611  26.538   9.842  0.1140 -0.1315 -0.4138
35447W        W78463  16.154  19.523  13.517  0.1044  0.2822  0.0813
35448W        W78464  31.193  28.781  19.233 -0.5027  0.0630  0.0153
35449W        W78465  29.509  18.408   1.600 -0.2709  0.3602  0.1809
35450W        W78466  30.257   8.500   7.173  0.0587  0.0363 -0.1574
35451W        W78467  31.353  10.289  21.417  0.1734  0.3408 -0.0801
35452W        W78468  11.440   1.911   3.690 -0.2084  0.0447  0.3027
35453W        W78469  31.079  22.441  26.052  0.0326  0.2764  0.0063
35454W        W78470  16.989   4.757   8.272  0.1205  0.0087  0.0199
35455W        W78471  25.136  34.268   9.188  0.0632 -0.1973  0.0648
35456W        W78472  10.011  22.524   6.863  0.1077  0.0065  0.3648
35457W        W78473   5.216  21.508   2.054  0.0486 -0.2548 -0.2336
35458W        W78474   1.432  15.185  21.979 -0.4028 -0.4359  0.1664
35459W        W78475  27.552  19.243   4.686  0.3890 -0.1443  0.0217
35460W        W78476  19.710  17.330  25.183  0.0714  0.2740  0.0528
35461W        W78477  25.122  10.685   5.514 -0.0469  0.1233 -0.0996
35462W        W78478   5.136  19.229  26.396 -0.1128  0.3449  0.2625
35463W        W78479   1.142   5.204   9.630  0.0020  0.2765  0.0921
35464W        W78480  20.625  24.446   5.291 -0.0346  0.0297  0.1438
35465W        W78481  24.048  33.045  19.069 -0.2549 -0.1097  0.2151
35466W        W78482  34.167  26.269   4.016  0.1330  0.4525  0.0077
35467W        W78483   2.887  33.561   9.529  0.3283 -0.1344 -0.0777
35468W        W78484  13.853   6.371   6.074 -0.0718 -0.0697  0.0107
35469W        W78485  11.993  16.694   5.308 -0.1750 -0.4529  0.1852
35470W        W78486  33.586  13.170   8.989  0.2316  0.3732 -0.2847
35471W        W78487  24.838  30.148  18.142 -0.0275 -0.1847 -0.1086
35472W        W78488  12.848  21.059   8.442  0.1020 -0.1806 -0.3552
35473W        W78489  26.370  21.028  17.235 -0.1547  0.2288  0.3544
35474W        W78490  17.396  32.638   2.430 -0.1525  0.3142 -0.2378
35475W        W78491   5.512  32.939   1.139  0.0173  0.1660 -0.3383
35476W        W78492   8.122  22.463  27.893  0.0787 -0.3258  0.2656
35477W        W78493  31.120  21.384   4.514 -0.0276  0.2224  0.0905
35478W        W78494  18.363   1.232   4.842 -0.0310  0.2935  0.1123
35479W        W78495   3.068   3.064   4.685 -0.1937 -0.0913 -0.4227
35480W        W78496  29.016   1.425  10.182  0.1692 -0.0844  0.2951
35481W        W78497  10.500   7.935   6.440 -0.2155 -0.0152 -0.2263
35482W        W78498   8.036  32.582   8.176 -0.4024 -0.1860  0.0034
35483W        W78499  24.816  24.617   0.501 -0.4827 -0.2787 -0.0611
35484W        W78500  33.870  25.209   5.241  0.0829  0.0468  0.0365
35485W        W78501  30.380  33.902  20.521  0.0210  0.0805 -0.0799
35486W        W78502  20.863  18.396  14.043  0.0541 -0.1897  0.2171
35487W        W78503   0.984  16.466   3.566  0.3087 -0.2900  0.1033
35488W        W78504  17.688  11.259   4.177 -0.0686 -0.0854  0.2993
35489W        W78505  29.717   3.068   3.807 -0.0246  0.4038  0.1756
35490W        W78506   0.872  10.879  15.175 -0.1421  0.0051 -0.2980
35491W        W78507  34.118  23.660  10.141 -0.0394 -0.0496 -0.3239
35492W        W78508  20.233  17.693   2.151  0.2377 -0.2421  0.1160
35493W        W78509  28.362  12.462   1.320 -0.1388 -0.1439 -0.0184
35494W        W78510  25.367  27.543  20.744 -0.0796  0.1758  0.1484
35495W        W78511  29.726  12.964   3.902 -0.0081 -0.0607  0.2476
35496W        W78512   2.325  34.492  24.145 -0.3695 -0.0197 -0.1619
35497W        W78513  15.321  21.443  26.877  0.0043 -0.0701 -0.4201
35498W        W78514  12.436   3.366  28.220  0.4750 -0.3138 -0.2556
35499W        W78515  33.802  16.564  26.039  0.0204  0.3015 -0.0878
35500W        W78516   4.253  28.353   7.333 -0.1933  0.2372  0.1777
35501W        W78517   2.543  13.110   0.576 -0.1927 -0.1446  0.1109
35502W        W78518   2.457  22.883  25.956 -0.0234 -0.0212 -0.4002
35503W        W78519  33.985  28.658   0.971 -0.1855  0.3832 -0.2091
35504W        W78520  31.706  26.842  19.412 -0.3577 -0.1267  0.0137
35505W        W78521  30.757  27.643   5.554  0.1419 -0.2632 -0.0097
35506W        W78522   0.330  17.816   5.452  0.1080 -0.2636  0.0289
35507W        W78523  19.410  18.276   8.896 -0.0212  0.0580  0.1176
35508W        W78524   2.725  11.087  24.817 -0.0603  0.1026  0.2974
35509W        W78525  30.707  14.708  24.502  0.0048 -0.1609  0.1088
35510W        W78526  24.532  20.543  27.010  0.0105  0.0293 -0.0245
35511W        W78527  32.120  20.055   4.215  0.1891 -0.5548 -0.0857
35512W        W78528   0.620  18.708  17.589 -0.0370  0.0510  0.0285
35513W        W78529  29.334   8.688  19.038  0.0481 -0.1982 -0.0164
35514W        W78530   2.892  22.095   5.375 -0.1908  0.4050  0.0671
35515W        W78531  11.436  23.151   8.175  0.2356  0.3861  0.3812
35516W        W78532  27.304  31.013   3.905 -0.0582  0.1608 -0.1874
35517W        W78533  28.608  25.385  26.881 -0.1128  0.0711 -0.0762
35518W        W78534  29.281  19.119   8.231  0.1463 -0.0423 -0.1201
35519W        W78535  12.457   4.043  17.349 -0.1012 -0.0079  0.1850
35520W        W78536  10.499  20.154   0.331  0.0058 -0.1714  0.0872
35521W        W78537  29.087  19.324  10.710  0.1169 -0.0911 -0.0179
35522W        W78538  32.633  18.615   1.930 -0.2313  0.1587 -0.0361
35523W        W78539  34.644  20.691   8.204  0.1692  0.0029 -0.1755
35524W        W78540   0.055  21.439  21.249 -0.1447 -0.0849 -0.0481
35525W        W78541  24.121  25.765   4.097 -0.0721  0.2787 -0.0642
35526W        W78542  18.928   4.634  16.359  0.2544 -0.0404  0.2089
35527W        W78543   1.476  19.563  28.255  0.1320  0.3397 -0.1700
35528W        W78544  23.298  25.662   4.735 -0.3434 -0.0533  0.2078
35529W        W78545  22.879  31.227   0.150 -0.0184  0.1224  0.0606
35530W        W78546  26.325  27.492  22.085 -0.1032 -0.2408 -0.2269
35531W        W78547  28.320  22.095   5.878  0.0586 -0.1655  0.0011
35532W        W78548  32.982  23.615  19.981 -0.0337  0.2214 -0.0095
35533W        W78549   5.973  19.641   4.068  0.0389 -0.1873 -0.1884
35534W        W78550  27.513  10.417  26.038  0.1737  0.0715  0.1710
35535W        W78551  30.598  11.781  17.680 -0.0794  0.0703  0.0195
35536W        W78552  18.456  18.924  25.271  0.3287 -0.0798  0.3260
35537W        W78553  22.064  16.283  17.551 -0.1252 -0.0870  0.2012
35538W        W78554  24.682  14.657  25.801 -0.0359 -0.1151  0.0837
35539W        W78555  31.602  16.354   3.721 -0.1043  0.0052  0.0254
35540W        W78556  26.488   4.120   3.474  0.0114  0.3533 -0.0861
35541W        W78557  32.629   1.560   4.483 -0.1962  0.0389  0.0184
35542W        W78558   1.717  15.068   7.842  0.1153 -0.1111 -0.1674
35543W        W78559  34.263  18.922   5.135  0.0066 -0.3011  0.0751
35544W        W78560  25.310  29.014  23.512 -0.2103  0.0220 -0.1246
35545W        W78561  28.873  15.942   6.741  0.1288 -0.0249 -0.0891
35546W        W78562  25.998  18.081  15.219 -0.0608 -0.1097 -0.2722
35547W        W78563   2.052  14.412  26.979  0.0336 -0.3528 -0.3128
35548W        W78564  18.438  24.916  27.576  0.0417 -0.0913  0.1540
35549W        W78565  21.837  17.683   8.608 -0.2014  0.0080  0.2810
35550W        W78566  17.245  29.233  20.462  0.1772  0.1868  0.2253
35551W        W78567  27.488  11.116  22.228  0.1477 -0.0660 -0.0654
35552W        W78568  18.836  10.053  28.407 -0.1280  0.0477  0.0388
35553W        W78569  30.979  23.891  10.651 -0.0116 -0.1388  0.1483
35554W        W78570  24.625  32.225  18.182 -0.1035 -0.3240  0.0506
35555W        W78571   3.219  25.224   4.231 -0.1479 -0.4354 -0.0183
35556W        W78572  31.007   9.168   6.134  0.0319 -0.1702  0.4643
35557W        W78573  20.360  18.150   0.863 -0.1617 -0.0377 -0.0582
35558W        W78574  33.551   7.561   1.471 -0.0414  0.0777 -0.3940
35559W        W78575   0.531  33.746   4.820 -0.0870  0.1617 -0.0656
35560W        W78576  25.336  12.755  20.894  0.1371  0.1289  0.2446
35561W        W78577  25.177  23.611  26.238  0.0765 -0.0786  0.0872
35562W        W78578  25.294  11.145  24.270 -0.0610  0.1187  0.3152
35563W        W78579   4.347  17.268   8.791 -0.1874 -0.0322 -0.1185
35564W        W78580  26.456  21.397  22.295  0.0986  0.0555 -0.0047
35565W        W78581   4.634  29.829   3.779  0.0606  0.0984 -0.1586
35566W        W78582  13.221   2.583  28.707  0.4536 -0.0279 -0.0638
35567W        W78583  26.273  21.631   3.940  0.0969  0.5334  0.3359
35568W        W78584  25.406   8.110   3.653 -0.1212 -0.1802  0.2358
35569W        W78585  34.361  11.030   2.865 -0.3526 -0.1998 -0.1007
35570W        W78586  28.093  24.904   9.742 -0.0624 -0.1213 -0.2447
35571W        W78587  17.996  26.380   2.670 -0.2250  0.4773  0.2098
35572W        W78588   0.890   0.250   8.505 -0.0773 -0.0508  0.2038
35573W        W78589  29.568  16.363   7.174 -0.0440 -0.0078  0.0275
35574W        W78590  17.098  27.184   4.574  0.0271  0.2137  0.5061
35575W        W78591  23.967  12.582   0.201 -0.1952 -0.2765 -0.0774
35576W        W78592  17.703  34.523  24.289  0.0933 -0.0553  0.0561
35577W        W78593  27.113  14.106  13.722  0.1865  0.1276  0.0691
35578W        W78594  11.287  18.532   1.544  0.0158 -0.0640  0.4318
35579W        W78595  21.969  11.196   8.254 -0.2323  0.1954  0.3440
35580W        W78596  28.505  13.890  16.447 -0.3259  0.1818  0.3890
35581W        W78597  27.620  27.105  22.144  0.0177 -0.2304 -0.3847
35582W        W78598  32.396  20.083   9.472  0.0565 -0.0102  0.0538
35583W        W78599  21.034  17.517  21.951  0.0166 -0.2691  0.0613
35584W        W78600  30.687  19.826  27.923 -0.2068  0.2350  0.0448
35585W        W78601  27.069   0.930   5.737 -0.1719  0.0546 -0.2318
35586W        W78602  18.811  20.046  23.357  0.1631 -0.3388 -0.1645
35587W        W78603  23.896  23.870  24.521 -0.0998  0.0827 -0.1667
35588W        W78604  29.415   9.157   9.279  0.2156  0.1531 -0.2246
35589W        W78605  20.289  22.514  29.226  0.2014 -0.0012 -0.0019
35590W        W78606  32.015  11.764   4.612 -0.1106  0.3118 -0.0259
35591W        W78607   7.393  10.527   4.891 -0.0921 -0.1772  0.3228
35592W        W78608  32.651   5.640   7.101  0.0014  0.1388  0.1338
35593W        W78609   6.168   8.271  24.625 -0.3537 -0.0029 -0.1548
35594W        W78610   0.026  18.568  20.746 -0.2395  0.1646 -0.2351
35595W        W78611  27.108   3.904  26.288  0.2061 -0.2139 -0.0267
35596W        W78612   5.280  17.514   1.356 -0.0781  0.2255  0.3951
35597W        W78613  18.387  32.992   4.830 -0.2959  0.0794 -0.2265
35598W        W78614  28.253  23.990   6.846  0.1899  0.3313  0.0440
35599W        W78615  16.607  15.845   3.655  0.1644 -0.0300  0.3366
35600W        W78616  28.272  10.031  10.147  0.2151 -0.1096 -0.0706
35601W        W78617  31.830  15.101   3.578 -0.0708 -0.0086 -0.1636
35602W        W78618  18.275  17.256  23.545 -0.1313  0.1946 -0.1161
35603W        W78619  29.977  23.712  23.236  0.0721 -0.0191  0.2519
35604W        W78620  22.069   1.680  27.119 -0.1631 -0.0066 -0.2633
35605W        W78621  28.406  17.263   2.518 -0.0851 -0.0229  0.0472
35606W        W78622  23.154  19.042   0.656  0.0954  0.2274 -0.3106
35607W        W78623  13.887   4.581   5.137  0.2295  0.0238  0.0626
35608W        W78624   2.405   9.290   2.019 -0.0413  0.0175 -0.1686
35609W        W78625  28.233  22.373   2.560 -0.0046  0.1166 -0.1919
35610W        W78626  29.940   4.689   6.536  0.3000 -0.1427  0.2105
35611W        W78627   2.724  19.806  26.198 -0.3572 -0.0599 -0.2636
35612W        W78628   1.385  32.642   6.175 -0.1316  0.2071  0.0443
35613W        W78629  20.991  23.011  15.553 -0.0158 -0.2586 -0.1234
35614W        W78630   3.272  20.225   8.041  0.0189  0.1689  0.0994
35615W        W78631  21.771  22.878   8.050 -0.2545  0.0901  0.0112
35616W        W78632  28.483   4.911   6.701  0.3230 -0.1699 -0.2861
35617W        W78633  20.149  32.885   0.166  0.0464  0.2502 -0.1240
35618W        W78634  30.431  21.836  20.077  0.0095 -0.0730 -0.2425
35619W        W78635  25.968   8.079   6.398 -0.1044  0.0507  0.0779
35620W        W78636  17.105  31.702   6.840 -0.1812  0.0853 -0.2143
35621W        W78637  27.953  28.391   0.011  0.2323 -0.3529  0.1116
35622W        W78638  12.790  18.819  28.960 -0.1083 -0.2938  0.0096
35623W        W78639  32.480  22.440  15.257  0.0022  0.0610 -0.2998
35624W        W78640  26.513  20.185  27.252 -0.1698  0.0740 -0.1985
35625W        W78641  23.303  31.106   2.136  0.0195 -0.1184  0.3717
35626W        W78642  20.175  16.977   0.040  0.0360  0.1195  0.3629
35627W        W78643  20.005  12.423  25.116  0.2644  0.3140 -0.1389
35628W        W78644  16.250   7.123   5.418  0.1698 -0.1580  0.1146
35629W        W78645  16.409  16.728  18.583 -0.3157 -0.1096 -0.1016
35630W        W78646  17.964  26.005   2.327  0.4270 -0.2485  0.0982
35631W        W78647  30.693  25.169   6.870 -0.2814  0.1838 -0.2740
35632W        W78648   3.179  17.243   1.365  0.0945  0.0808 -0.1244
35633W        W78649   1.399  20.858   8.751 -0.1054 -0.2867 -0.1604
35634W        W78650   1.381  22.192   3.992 -0.0477  0.0481 -0.0633
35635W        W78651  26.506  21.153   4.031  0.2609 -0.0132  0.1301
35636W        W78652  16.764  17.093   0.847  0.2601  0.0872 -0.2388
35637W        W78653  25.518  27.455   4.359  0.0387  0.1718 -0.2523
35638W        W78654  11.367  18.070   7.501  0.2634  0.1759 -0.0807
35639W        W78655   0.902   8.693  27.451  0.2527  0.2484  0.0708
35640W        W78656  32.384  22.966   8.568 -0.2939 -0.1163 -0.3711
35641W        W78657  28.487  16.183  19.866 -0.0032  0.1011 -0.0001
35642W        W78658  29.063  15.068  20.318 -0.0616  0.1773  0.1236
35643W        W78659  30.044  21.956  22.818 -0.2608 -0.0297  0.2037
35644W        W78660  31.135  17.536   1.110  0.4190 -0.2322 -0.2320
35645W        W78661  34.482   6.452   4.045  0.0547 -0.1671 -0.0687
35646W        W78662  20.749   6.532  18.956 -0.1591 -0.1864 -0.1665
35647W        W78663  25.418  33.546   8.830  0.2810  0.1152  0.1279
35648W        W78664   0.173  26.197   0.559  0.0445 -0.1440 -0.0395
35649W        W78665   0.874  19.485  17.942  0.0745 -0.2387 -0.2032
35650W        W78666  23.661  30.766  29.033 -0.3364 -0.2884 -0.0642
35651W        W78667  31.929   5.504   1.337 -0.2429 -0.2122 -0.1202
35652W        W78668  22.546  21.769  28.926  0.0526 -0.1081 -0.0597
35653W        W78669  15.187  10.308   4.300  0.1410  0.0785  0.4140
35654W        W78670  19.630  31.359   7.793  0.1516  0.0444  0.1926
35655W        W78671  13.309  11.439  23.834 -0.0646 -0.0870  0.0339
35656W        W78672   7.546  24.288   1.355  0.1092 -0.1889  0.0070
35657W        W78673  22.895  27.503  10.403  0.2871  0.0377 -0.0836
35658W        W78674  25.957  10.156  20.588 -0.1702  0.1397  0.1044
35659W        W78675   7.025  20.524   2.394 -0.1672 -0.0958 -0.0590
35660W        W78676  28.158  25.440   3.374 -0.2799 -0.1883 -0.3620
35661W        W78677  30.185  22.756  24.867 -0.0106 -0.0976 -0.2459
35662W        W78678  25.739  19.356  13.832 -0.1582 -0.2696 -0.1251
35663W        W78679  20.697  18.953  22.113  0.0213 -0.0117 -0.0794
35664W        W78680  34.459  29.332   9.529 -0.3134  0.3251  0.0383
35665W        W78681  20.300  14.403   3.546  0.0676 -0.1743 -0.1313
35666W        W78682  34.395   9.679   4.418  0.3479 -0.2279 -0.0221
35667W        W78683  23.624  15.670   4.194  0.0850 -0.3767 -0.0480
35668W        W78684  19.738  28.630   5.027 -0.0025 -0.3148  0.1122
35669W        W78685   7.788  13.557  24.988  0.1102  0.0412 -0.1751
35670W        W78686  13.837  27.820   8.954 -0.0753  0.4021 -0.2062
35671W        W78687  30.795  20.058   1.577 -0.0636 -0.1652  0.0521
35672W        W78688  23.057  13.497  29.073  0.1813  0.0104  0.1011
35673W        W78689  32.816  25.786   9.902  0.0357 -0.0367  0.1165
35674W        W78690  20.000  19.806  21.392 -0.0468 -0.0441 -0.0417
35675W        W78691   9.740  21.150  25.341 -0.2135 -0.0714 -0.4673
35676W        W78692  14.578  17.801  25.684  0.0280  0.1247 -0.0393
35677W        W78693  31.403  14.060   9.667  0.2377  0.0352 -0.1460
35678W        W78694  22.648  13.085  20.535 -0.2525 -0.0791  0.0055
35679W        W78695  25.563  34.678  25.014 -0.1778  0.0211 -0.0060
35680W        W78696  27.787  25.896   0.154  0.1750  0.2136  0.2169
35681W        W78697   6.551  18.496  28.346 -0.1896  0.2859  0.2378
35682W        W78698  23.338  17.983   5.616  0.0788  0.0912 -0.1524
35683W        W78699  31.192   2.941   7.498  0.0064 -0.0202  0.0371
35684W        W78700  16.352  13.409   7.744  0.0775  0.1394  0.2558
35685W        W78701   5.658  24.926  25.667  0.0685 -0.1579 -0.0749
35686W        W78702  11.640  25.838   6.656  0.0704 -0.0138 -0.0838
35687W        W78703  20.819  20.768  28.423 -0.0243 -0.3547 -0.1425
35688W        W78704  31.157  23.868   4.335  0.1411 -0.1122 -0.1178
35689W        W78705  18.740  26.475   3.525 -0.3628  0.0280 -0.1585
35690W        W78706  34.546  22.814   0.760 -0.0206  0.0853 -0.2640
35691W        W78707  19.550  28.873   0.872  0.0528  0.1035  0.2605
35692W        W78708  28.949   5.425   8.858  0.1224 -0.1581  0.1744
35693W        W78709  33.236  18.171   3.018  0.1918 -0.1600 -0.1079
35694W        W78710   1.616   5.975  28.048  0.3646  0.0181 -0.0790
35695W        W78711   6.525  27.325   5.657 -0.6367  0.0632  0.0191
35696W        W78712   8.363  16.678   2.116  0.5451  0.0474 -0.1232
35697W        W78713  11.911  18.710  16.107  0.1016  0.0495 -0.2154
35698W        W78714  33.263  18.663  22.835 -0.0634 -0.2542  0.1273
35699W        W78715  29.984  24.748  25.950 -0.0386 -0.1554 -0.3717
35700W        W78716  20.853  31.462  10.026  0.2080  0.2066  0.1774
35701W        W78717   8.910  22.739   7.130 -0.0811 -0.0920 -0.0789
35702W        W78718  10.520   0.026  19.545 -0.0581 -0.1433 -0.2936
35703W        W78719  25.544  10.145  10.423 -0.1976  0.2524  0.1267
35704W        W78720   1.213  26.797   1.121 -0.2446  0.1388 -0.1178
35705W        W78721   5.754   7.643   6.442 -0.1687 -0.0504  0.3432
35706W        W78722  27.602   4.589   4.001 -0.3082  0.0770  0.1779
35707W        W78723  34.695   1.845   9.317  0.1963 -0.0213 -0.0830
35708W        W78724  33.759   8.872   3.306  0.0706  0.2197 -0.0377
35709W        W78725   0.870  13.953   9.377 -0.2635  0.1152 -0.3574
35710W        W78726   2.734   1.665  28.522 -0.1708 -0.2147  0.0722
35711W        W78727  25.207   5.618   9.292 -0.0599 -0.1415  0.0630
35712W        W78728  31.721  28.985   5.205 -0.0845 -0.0025 -0.1503
35713W        W78729  28.386  27.679   7.706  0.0593 -0.1597 -0.3104
35714W        W78730  11.464  24.365   0.406  0.0337  0.0084 -0.4167
35715W        W78731  25.989  33.642   1.558 -0.1412 -0.3815  0.1289
35716W        W78732   6.487  12.437  26.647  0.1580 -0.1489  0.1775
35717W        W78733  30.515  16.910  27.274 -0.1426 -0.2443 -0.0164
35718W        W78734  13.978  25.185   0.452 -0.1953  0.2121 -0.0051
35719W        W78735  28.715  10.081  10.996  0.2253  0.4724 -0.2897
35720W        W78736  24.061   2.922   6.790 -0.1191  0.0187  0.3032
35721W        W78737   1.674  13.133   2.962  0.0351 -0.1158 -0.0583
35722W        W78738   9.351  20.295  24.092 -0.0254 -0.1044  0.0579
35723W        W78739  26.732  28.874   1.074 -0.0273  0.2604  0.0465
35724W        W78740  10.887  27.663   0.732  0.3650  0.0120  0.0375
35725W        W78741  22.006  22.341   5.210  0.2561 -0.1423  0.3792
35726W        W78742  32.074  17.205   6.219  0.1395  0.0541 -0.2655
35727W        W78743  24.643  22.181  19.657 -0.0199  0.2632  0.1378
35728W        W78744  26.375  15.080  15.400  0.1949  0.2765  0.0167
35729W        W78745   1.993   1.786  25.882 -0.0655 -0.1700  0.0449
35730W        W78746  33.559  29.466   8.577  0.2534  0.0596  0.1999
35731W        W78747  22.362  31.123   7.560 -0.2137 -0.0512  0.2580
35732W        W78748  24.986  21.601   9.123  0.0145 -0.0019 -0.1076
35733W        W78749   2.491   1.338  19.869  0.1519 -0.1282  0.1447
35734W        W78750  12.844  11.890  14.111 -0.2491  0.0089  0.1265
35735W        W78751  32.775  22.229  29.278  0.2476  0.1546  0.0893
35736W        W78752  24.515  22.353   0.736 -0.0142 -0.0881  0.2623
35737W        W78753  33.058  17.366   9.684  0.0630 -0.0620 -0.0988
35738W        W78754  29.345   8.906   0.951 -0.0273  0.0819 -0.4932
35739W        W78755  31.445  33.643  26.304  0.3665 -0.1327  0.0275
35740W        W78756  18.287  14.936   7.523  0.2354 -0.0937  0.1517
35741W        W78757  17.567  28.870  10.877 -0.0487 -0.2901 -0.1086
35742W        W78758  23.801  24.678   8.575  0.2351 -0.1415  0.1559
35743W        W78759  24.842   3.564  26.325  0.5282  0.1126 -0.4958
35744W        W78760  22.223  24.106   4.192  0.0383  0.1700  0.0439
35745W        W78761  15.081  15.870  28.713 -0.3359  0.1509  0.1424
35746W        W78762   9.046  28.819  24.173 -0.2056  0.0443  0.0096
35747W        W78763   1.254  24.236  27.039 -0.0511 -0.1860 -0.4791
35748W        W78764   9.955  12.813   1.788 -0.2703  0.0569  0.2649
35749W        W78765  23.492  24.225  10.681 -0.1214  0.0414  0.1148
35750W        W78766  32.063  26.389   6.925 -0.2209  0.2439  0.0260
35751W        W78767  27.613  20.677   0.005  0.1800 -0.0566  0.2171
35752W        W78768  21.738  21.382  24.454 -0.1329 -0.0884  0.2236
35753W        W78769  33.844  25.304  28.945 -0.1529 -0.2188  0.1031
35754W        W78770  32.593   7.666  21.803  0.2176 -0.0268 -0.0893
35755W        W78771   3.557  17.510   9.647 -0.0874  0.0135  0.1244
35756W        W78772  24.378  24.623   8.071  0.3273 -0.1667 -0.2569
35757W        W78773  13.695  19.183   8.112 -0.0266 -0.1880  0.1131
35758W        W78774   8.862  21.044  26.096 -0.5714 -0.0787 -0.1748
35759W        W78775  31.787  22.197   7.904 -0.0918  0.0399  0.2335
35760W        W78776  11.255  26.319   5.449 -0.0509 -0.1744 -0.2557
35761W        W78777  33.799  23.367   5.646  0.3990  0.0524  0.1701
35762W        W78778  18.256  22.668  28.362  0.0804 -0.3357 -0.0761
35763W        W78779  26.472  13.083  25.005  0.0696  0.1289  0.0147
35764W        W78780  15.318  27.916   8.253  0.0343  0.0610 -0.0903
35765W        W78781  13.575  29.935  16.179 -0.0085 -0.1232 -0.0105
35766W        W78782   2.232  22.709  28.300  0.3750  0.4208 -0.0831
35767W        W78783  20.254  25.882   3.378 -0.1830  0.2022 -0.0916
35768W        W78784  31.718   8.143   4.071  0.1845 -0.0871 -0.0164
35769W        W78785  22.495  26.497   1.975 -0.0910 -0.1808  0.0931
35770W        W78786   0.044  28.119   6.617  0.0329  0.1912  0.1269
35771W        W78787  29.818  12.445  28.330  0.1191 -0.0592  0.1831
35772W        W78788  29.122  16.241  26.364 -0.2022 -0.0966 -0.4523
35773W        W78789   4.604  32.651  23.899  0.0212 -0.0757  0.2521
35774W        W78790   2.541  10.862  29.059  0.1268 -0.0200 -0.1473
35775W        W78791  24.804  15.942  24.855  0.1516  0.3565  0.0512
35776W        W78792   1.631  26.855   6.113  0.0703  0.1522  0.1176
35777W        W78793  19.614   5.228   8.831 -0.2325  0.3430  0.0869
35778W        W78794  26.205   9.671   9.442 -0.1438  0.0103 -0.0200
35779W        W78795   6.483  18.311  22.776  0.0992 -0.1161  0.0241
35780W        W78796   5.877  13.758  16.504 -0.2340 -0.1237 -0.3151
35781W        W78797  33.397  19.975   8.365 -0.4629 -0.0615 -0.2240
35782W        W78798  22.708  11.911  17.486 -0.2446 -0.0544  0.3117
35783W        W78799  32.598   3.084   8.858  0.3444 -0.2084 -0.0441
35784W        W78800   1.499  27.107   2.148 -0.1153 -0.0135 -0.0527
35785W        W78801   8.216  20.649  26.516  0.2114  0.0605  0.1720
35786W        W78802  24.386  33.915  17.939 -0.2173 -0.0823  0.0684
35787W        W78803  21.503   5.917  26.535 -0.2124  0.3414 -0.5484
35788W        W78804  28.013  20.405   5.581 -0.2581  0.0584 -0.0187
35789W        W78805  29.535  15.950   8.580  0.2195  0.0461  0.2825
35790W        W78806   2.471  18.042  22.516  0.0412 -0.1478 -0.0442
35791W        W78807  19.037  24.613   0.861  0.1062 -0.1076 -0.2844
35792W        W78808  20.302  13.233   8.769 -0.0358  0.0379  0.0850
35793W        W78809  13.105  12.273  23.717  0.1190  0.2463 -0.0208
35794W        W78810   1.663  15.280   3.578 -0.2153 -0.1275 -0.3431
35795W        W78811  22.992  24.157   7.724 -0.1846 -0.2372 -0.1286
35796W        W78812  31.250  13.999   4.262  0.3192  0.1097 -0.2174
35797W        W78813  26.778  18.760   3.902 -0.2231 -0.0439  0.3665
35798W        W78814  16.741  30.185   4.530  0.2164 -0.1943 -0.0955
35799W        W78815  17.023  21.383  25.974  0.0572  0.1374 -0.0706
35800W        W78816   9.049  13.335   6.831 -0.5015  0.0139  0.0373
35801W        W78817  10.991  15.170  19.297 -0.1257 -0.1232 -0.2796
35802W        W78818  24.045   0.653   5.354 -0.0205  0.0412 -0.0154
35803W        W78819   0.006   9.466   9.139  0.1037  0.1689  0.0831
35804W        W78820  31.773  19.805  25.463 -0.0773  0.7137  0.0094
35805W        W78821   8.850  10.471   6.899  0.1067  0.0325 -0.0535
35806W        W78822  28.663  15.762   9.660  0.0897  0.2952 -0.0003
35807W        W78823   1.977  14.530   6.879  0.1063 -0.4402 -0.0888
35808W        W78824  28.804  20.063   5.582  0.3442 -0.0814 -0.2461
35809W        W78825   3.562  15.789   3.933  0.0164 -0.2380  0.2275
35810W        W78826   4.526  14.041   8.273 -0.2889 -0.2518  0.0267
35811W        W78827   2.705  18.152  13.653 -0.0646 -0.1799  0.0592
35812W        W78828  27.172  23.290  25.270 -0.3177  0.3825  0.0353
35813W        W78829  20.636  24.517   3.680 -0.1927 -0.4689  0.2934
35814W        W78830  26.231  28.520  12.395  0.2041  0.1358 -0.0961
35815W        W78831  27.184   0.885   6.328  0.1946 -0.0086  0.1194
35816W        W78832  25.914  27.139   1.862  0.2482 -0.0303  0.0225
35817W        W78833  33.939   9.446  10.508 -0.2560 -0.1139  0.0766
35818W        W78834  26.356  23.351   3.362  0.2030 -0.0439 -0.0854
35819W        W78835  29.503  23.964  11.014 -0.1778  0.1912  0.1092
35820W        W78836  33.808  22.615   2.856 -0.3724  0.1707 -0.2289
35821W        W78837   3.770  27.239   9.285 -0.0249 -0.0631 -0.1681
35822W        W78838   8.296  14.443  24.826  0.1049  0.1083  0.1897
35823W        W78839  32.960  21.615   4.093 -0.1899 -0.3106 -0.0375
35824W        W78840  15.762  25.960   9.949 -0.1143 -0.3637  0.1064
35825W        W78841   8.518  22.381   3.613 -0.1959 -0.0227 -0.2681
35826W        W78842  22.314  33.159   3.379  0.0652 -0.2200  0.4318
35827W        W78843  21.096  14.716  14.805 -0.0878  0.2131  0.1928
35828W        W78844  33.835  14.649  25.704  0.1699  0.1621  0.0595
35829W        W78845   4.898  20.810  27.657 -0.0497  0.0402  0.1202
35830W        W78846  30.615  16.334   6.440 -0.2712  0.2120  0.1165
35831W        W78847   1.484  12.964   5.350 -0.2119 -0.1408  0.0631
35832W        W78848  12.662  28.909   8.478 -0.0949 -0.0112  0.4097
35833W        W78849  18.435  15.232  28.183  0.0925  0.2300 -0.3437
35834W        W78850   3.123  17.091  28.030  0.0724  0.3290 -0.0678
35835W        W78851  34.200  30.748   9.639  0.0892  0.2149 -0.0986
35836W        W78852  33.599  18.735   4.010 -0.0603  0.0640  0.4301
35837W        W78853   3.702  10.524  26.604  0.0523 -0.1499  0.1058
35838W        W78854   7.835  34.385  10.613 -0.1890 -0.2043 -0.1513
35839W        W78855  14.591  13.777   5.292 -0.3200  0.1742  0.4533
35840W        W78856  24.415  15.535  24.569 -0.1471 -0.1874  0.1481
35841W        W78857  25.334  17.871   6.359 -0.1456 -0.0990  0.0408
35842W        W78858   3.908   2.121   0.562 -0.0113 -0.4059  0.0340
35843W        W78859  23.936  18.841  24.645 -0.1811  0.0037  0.1302
35844W        W78860  23.055  17.376   2.692  0.1761  0.3673  0.0022
35845W        W78861  22.328  17.377   0.241 -0.0918 -0.1833 -0.2306
35846W        W78862  27.688  23.159   1.162 -0.0674  0.0734 -0.1743
35847W        W78863  17.617  10.115  22.581 -0.2325 -0.2137 -0.1201
35848W        W78864  19.174   9.899   8.658 -0.0899  0.0141 -0.3083
35849W        W78865  33.050  26.123   6.901  0.1503  0.1241  0.3502
35850W        W78866  28.773  29.374   2.821  0.1176  0.1859  0.0161
35851W        W78867  29.970  17.107   9.299  0.2102 -0.4222  0.1944
35852W        W78868  22.356  11.738  29.003  0.0988 -0.1649  0.2192
35853W        W78869  10.851  21.488   7.432 -0.4016  0.1316  0.1660
35854W        W78870  27.595  26.798   5.334 -0.0557  0.2309 -0.3424
35855W        W78871   3.749  16.064  29.145  0.0807  0.1748  0.4894
35856W        W78872  31.508  23.945   4.740  0.2962  0.0536  0.0878
35857W        W78873  33.163  19.782  23.285 -0.0342  0.0537  0.0575
35858W        W78874  20.013  27.970  24.130 -0.1989  0.2654 -0.0486
35859W        W78875  16.394  28.356   3.962 -0.0437 -0.1439 -0.4035
35860W        W78876  32.143   6.826   8.950  0.1103  0.0097 -0.1414
35861W        W78877  21.659  19.319   4.249 -0.1965  0.0114  0.0319
35862W        W78878  11.580  18.370   7.123 -0.0667  0.1449 -0.1871
35863W        W78879  30.150  31.345   1.174 -0.0003 -0.1014  0.4149
35864W        W78880  30.534  12.765   8.556 -0.2821 -0.1980  0.4281
35865W        W78881  31.504   9.889   8.224  0.0254  0.2292  0.2709
35866W        W78882  32.955  31.638  15.893 -0.0325  0.2719 -0.2066
35867W        W78883  30.608  28.049  23.564  0.0216  0.0206  0.2102
35868W        W78884  22.334  12.227   5.563 -0.0044  0.0826  0.0879
35869W        W78885  33.433  29.871  26.707  0.3526  0.0639  0.1251
35870W        W78886  24.548  20.821   7.358  0.2874 -0.0570  0.3436
35871W        W78887  23.128  27.046   7.146 -0.1536 -0.1356 -0.1616
35872W        W78888  31.930   0.004  22.068  0.0352  0.0566  0.1813
35873W        W78889  23.224  13.708  14.292 -0.0519 -0.1973 -0.0601
35874W        W78890  21.311  11.122  26.628  0.1294  0.0357  0.1096
35875W        W78891  30.650  23.709  22.933  0.0495  0.1358 -0.1286
35876W        W78892  19.594  12.930  22.266  0.0257 -0.0475 -0.0064
35877W        W78893   6.819  17.061   2.058  0.0933 -0.1493  0.3581
35878W        W78894  24.427  33.891   5.487 -0.1889  0.0990  0.0683
35879W        W78895   0.354  26.377  26.698  0.0646  0.0183 -0.1098
35880W        W78896   9.895  14.390  13.579 -0.0350  0.2176 -0.0822
35881W        W78897  29.950  31.993   5.158  0.1011 -0.2632  0.1903
35882W        W78898  21.107  23.944   8.953  0.2982 -0.0558  0.0503
35883W        W78899  33.059  26.634  10.756  0.1985 -0.0958 -0.2646
35884W        W78900  28.368   6.187   9.725  0.1955 -0.1695 -0.3297
35885W        W78901  30.354  22.004   6.256  0.1782 -0.2488 -0.3105
35886W        W78902  22.715  22.579  24.333  0.0905 -0.0508 -0.3249
35887W        W78903   4.938  33.672   8.280 -0.1147 -0.1771 -0.0204
35888W        W78904   2.803  20.000  28.893 -0.3982 -0.1785  0.0788
35889W        W78905  21.606  27.889  18.389  0.1893 -0.0073  0.0607
35890W        W78906  25.725  18.531  25.548  0.1922 -0.0719  0.0451
35891W        W78907  26.032  11.815   8.722  0.0081  0.0505 -0.1595
35892W        W78908  18.831  16.372   5.897 -0.1039 -0.0486  0.1051
35893W        W78909   2.759  15.877   1.407 -0.2564 -0.1498 -0.1683
35894W        W78910  26.786  18.285  29.291  0.1354 -0.3558  0.0941
35895W        W78911  29.826  11.326  26.318 -0.1147  0.2525 -0.0588
35896W        W78912  21.939  22.838   2.716  0.2581  0.0917 -0.0935
35897W        W78913  32.991  16.024   1.842  0.3192 -0.0361 -0.1144
35898W        W78914  13.311  21.782  29.106  0.2053  0.2746  0.4103
35899W        W78915  15.395  17.447   2.325 -0.1527 -0.4453  0.0141
35900W        W78916  32.030  13.633   3.938 -0.1702  0.0606 -0.0436
35901W        W78917  27.857   5.339   7.869  0.1718  0.1874  0.1092
35902W        W78918  19.606  28.049   2.119 -0.1707  0.0832  0.2061
35903W        W78919  17.611  17.801  14.029 -0.0151  0.2596 -0.3055
35904W        W78920  30.246  25.433   1.133  0.1016  0.0661 -0.1332
35905W        W78921  20.619  18.067  20.542 -0.1594  0.1203 -0.0635
35906W        W78922  33.129  22.238   7.051  0.0492 -0.1015  0.0744
35907W        W78923  13.710  33.131   7.750  0.0954 -0.7175  0.3819
35908W        W78924  33.456  17.265  10.312  0.2080  0.0053  0.2910
35909W        W78925   7.259  18.447   5.439  0.0299 -0.1679  0.1556
35910W        W78926  21.761  10.866  27.287  0.2425 -0.1137 -0.2648
35911W        W78927  29.109  27.169  26.821 -0.0562  0.1733  0.3928
35912W        W78928  34.536  28.274   4.342  0.3324  0.1853  0.1441
35913W        W78929  31.776  30.310   6.714 -0.0020 -0.2464 -0.2589
35914W        W78930  33.749  14.672   0.344 -0.0021  0.2959 -0.1954
35915W        W78931  30.201  19.229  25.553  0.3948  0.2752 -0.1065
35916W        W78932  20.882  24.767   5.985  0.2278 -0.2705  0.1454
35917W        W78933  25.541  12.041   5.287  0.0604  0.1631  0.2319
35918W        W78934  20.312   2.131   9.950  0.3621 -0.2359 -0.3679
35919W        W78935   3.422   8.555   1.747 -0.1566 -0.1192  0.2638
35920W        W78936   2.499  15.089   4.289  0.2251 -0.0762 -0.1866
35921W        W78937  24.168  20.310   6.609  0.3404 -0.2085  0.2579
35922W        W78938  28.258  29.009   3.084  0.0785 -0.0970 -0.0298
35923W        W78939  21.543   1.268   5.988  0.0755  0.0157 -0.0345
35924W        W78940  31.232  15.513  21.227 -0.0560 -0.1241 -0.3741
35925W        W78941  30.836  14.748   2.450  0.0216 -0.1563 -0.0005
35926W        W78942   0.723  18.248  25.035  0.1148 -0.1291 -0.0254
35927W        W78943   2.465  24.797  29.209 -0.0866  0.0608 -0.3263
35928W        W78944  23.719  32.046   7.350 -0.2215 -0.0926 -0.1709
35929W        W78945  31.159  26.925   9.842  0.0900  0.0235  0.0970
35930W        W78946  30.348  27.096   1.472 -0.0041  0.0303  0.0508
35931W        W78947  20.293  18.792  20.425 -0.1313 -0.2403 -0.1097
35932W        W78948  14.519  17.545  22.035 -0.2721  0.3543 -0.0851
35933W        W78949  18.619  15.826   5.943  0.0358 -0.1551 -0.0194
35934W        W78950  10.558  15.498  27.035 -0.1215  0.4424 -0.5183
35935W        W78951   5.602  23.072   2.366 -0.1444 -0.0359  0.2472
35936W        W78952  13.396  26.489  17.418 -0.0629 -0.2681  0.0102
35937W        W78953  26.834  14.270   0.216  0.0732  0.1060  0.1475
35938W        W78954  21.751   3.970   2.910  0.1796 -0.2524  0.0006
35939W        W78955  21.010   8.367   4.265  0.1101  0.3773 -0.3688
35940W        W78956   7.642  14.837   7.823  0.1916 -0.2863 -0.1600
35941W        W78957  26.432  11.076   1.726 -0.1014 -0.0678  0.1544
35942W        W78958  19.799   3.282  24.351  0.0944  0.0337 -0.2479
35943W        W78959  21.137  17.757  27.296 -0.0993  0.3766  0.1292
35944W        W78960  21.867  26.106  16.540  0.3153 -0.0184  0.0786
35945W        W78961  29.051  15.846  20.952 -0.0105  0.3240 -0.2076
35946W        W78962  29.425  17.768   3.462  0.2005 -0.1455 -0.0952
35947W        W78963   5.204  26.274   2.407 -0.0079 -0.0881 -0.1573
35948W        W78964  29.224  18.039   7.919 -0.0622 -0.1676  0.0882
35949W        W78965  24.839  18.722   4.398 -0.1589 -0.0402 -0.1354
35950W        W78966  22.776  20.036  26.408 -0.4031  0.2174 -0.2812
35951W        W78967  31.858  33.022   5.303  0.2018  0.0596  0.0846
35952W        W78968   1.156  11.473   3.533 -0.1906 -0.0444 -0.2606
35953W        W78969  21.171  10.853   0.381  0.2127 -0.0525  0.0316
35954W        W78970  17.707  22.724   6.639 -0.2671  0.1652  0.0113
35955W        W78971  26.908  14.338  25.647  0.2942  0.2456 -0.0324
35956W        W78972  19.407  31.189  11.372 -0.0345  0.1569  0.2741
35957W        W78973  31.635   1.926   0.151  0.1677 -0.1350  0.0216
35958W        W78974  34.218  23.750   6.252 -0.0301 -0.0603  0.1605
35959W        W78975  23.000  27.149  26.821 -0.1267  0.2571  0.1092
35960W        W78976   1.068  22.538   9.633  0.0472 -0.0670 -0.1143
35961W        W78977   2.003  28.980   4.935  0.0895  0.1336 -0.4758
35962W        W78978  19.127  15.517   7.747 -0.1040 -0.5121 -0.2279
35963W        W78979  23.500  18.004   7.386 -0.1436  0.2177 -0.2093
35964W        W78980  22.695  20.557   3.463  0.1148  0.0582  0.1208
35965W        W78981  26.368  30.459  10.319 -0.0917 -0.3232 -0.0393
35966W        W78982  29.028  26.094  11.075  0.1911  0.0548  0.0702
35967W        W78983  31.019  13.707   5.594 -0.1568 -0.0419  0.1630
35968W        W78984  28.397  17.745  15.818  0.1436 -0.1224 -0.0943
35969W        W78985  33.124  12.331  10.874 -0.3261 -0.1728 -0.1227
35970W        W78986  29.529   5.692   6.379 -0.0638 -0.1570  0.1110
35971W        W78987  24.047  34.309   0.640  0.2354 -0.1205  0.0757
35972W        W78988  33.249  13.482   4.359 -0.1727  0.0532  0.0265
35973W        W78989  30.960  24.880   9.490  0.0269  0.0981 -0.4999
35974W        W78990   1.936  17.187   5.053  0.1098  0.0815 -0.0562
35975W        W78991   7.259   1.969   2.374  0.2214  0.0068  0.1360
35976W        W78992  30.239  27.360  11.617  0.1786 -0.1131  0.1106
35977W        W78993  18.741  10.470  26.382  0.0885  0.0236 -0.1666
35978W        W78994   4.441  16.684   3.229  0.1539 -0.0173  0.0613
35979W        W78995  29.894  13.138  10.120 -0.4582 -0.0218 -0.3531
35980W        W78996  23.755  19.205  25.421  0.0427  0.1885  0.1787
35981W        W78997  20.991  22.687   3.706  0.2093  0.0845 -0.1159
35982W        W78998  34.532  29.070  23.915 -0.0416  0.0972  0.0329
35983W        W78999  27.846  10.023  28.158  0.1725 -0.0572 -0.1560
35984W        W79000  27.401  12.389   0.186 -0.1190  0.3073 -0.1652
35985W        W79001  28.484  12.721   4.346  0.2733  0.0760 -0.1222
35986W        W79002  26.537  21.746   6.782  0.0477  0.0130 -0.0819
35987W        W79003  10.878  25.034   1.892  0.1139 -0.1079  0.0239
35988W        W79004  19.387  22.744   1.938 -0.1008  0.3727  0.0676
35989W        W79005   1.216  24.843   9.864 -0.1377 -0.1864 -0.0395
35990W        W79006   0.790  21.794   3.289  0.0534  0.2046  0.1386
35991W        W79007  27.203  11.669  27.044 -0.1351  0.0013 -0.1926
35992W        W79008  21.057   2.892  29.245  0.0564 -0.2433 -0.0153
35993W        W79009   1.531  24.567   0.006  0.5319 -0.1339 -0.1870
35994W        W79010  19.611  20.140   6.916  0.2656 -0.2532 -0.0733
35995W        W79011  24.207   8.065  25.412 -0.4374 -0.0474  0.0005
35996W        W79012  30.470  11.275   1.077 -0.2719  0.2492 -0.2303
35997W        W79013  13.109  24.282   8.291  0.4952  0.0913 -0.0358
35998W        W79014   1.989  15.386  23.669 -0.0016  0.0342  0.1363
35999W        W79015  32.080  12.983  24.599 -0.1288  0.3923  0.0868
36000W        W79016  23.872   0.295   8.244  0.2292 -0.2119  0.0538
36001W        W79017  25.404  18.801   6.151 -0.0442  0.2019 -0.0388
36002W        W79018  34.680  15.196   7.082  0.0081 -0.2942 -0.0213
36003W        W79019  17.711  32.648   6.535  0.1082  0.0529  0.2433
36004W        W79020  22.417  34.166   8.774 -0.0095 -0.0192 -0.0724
36005W        W79021  30.295  14.514  17.943 -0.2033  0.1764 -0.1129
36006W        W79022  34.433  29.130   6.588  0.1782  0.0207 -0.3230
36007W        W79023   7.605  25.139   2.880  0.1596 -0.0942  0.0231
36008W        W79024   5.264   2.600   6.415  0.2831 -0.4434  0.0509
36009W        W79025  23.961  14.873   9.689 -0.0061 -0.1324 -0.1470
36010W        W79026  17.311  30.511   7.433  0.0316 -0.0623 -0.1331
36011W        W79027   0.161  18.381  24.971 -0.0726  0.0750 -0.4005
36012W        W79028  33.742  28.042   6.887  0.0028  0.3174  0.3731
36013W        W79029   5.696  27.521   6.851  0.4107  0.0629  0.0278
36014W        W79030   9.935   5.878   3.030 -0.0594 -0.1868 -0.3698
36015W        W79031   0.722   2.296   4.984 -0.2079 -0.3200 -0.0903
36016W        W79032  30.189   3.792   4.975 -0.1969 -0.5013  0.1636
36017W        W79033  21.879  21.804  25.732  0.0197  0.2486 -0.0213
36018W        W79034  24.514  23.132  24.176  0.0055  0.0715 -0.1166
36019W        W79035  26.385  20.987  20.404 -0.1233 -0.4529  0.3873
36020W        W79036  25.303   8.331   4.715  0.2366 -0.1524  0.0952
36021W        W79037   7.763  23.985   5.045  0.3060 -0.3489 -0.2828
36022W        W79038  14.313  31.380   6.820  0.1656 -0.1793  0.1238
36023W        W79039   4.992  28.341   2.149 -0.3334  0.0644 -0.0209
36024W        W79040  12.305  18.530   1.271 -0.0437  0.1302  0.1745
36025W        W79041  34.134  12.381   9.326 -0.0530  0.1931 -0.1253
36026W        W79042   1.898  15.494   6.354  0.1303  0.2644 -0.2172
36027W        W79043  26.945  15.544  20.019  0.1019 -0.1764  0.3139
36028W        W79044   2.787  15.871  27.392 -0.2077  0.0775 -0.1066
36029W        W79045  28.154  15.451   9.749 -0.1010  0.1476 -0.2818
36030W        W79046  31.312  17.023   5.665  0.0790  0.0557 -0.0706
36031W        W79047  27.270  11.454   9.144  0.1305 -0.2929  0.1127
36032W        W79048  33.787  26.082   4.607  0.4041  0.3383 -0.2154
36033W        W79049  31.577  10.400   0.273 -0.2491  0.0932 -0.0930
36034W        W79050  33.667  14.146   6.566  0.2249 -0.0071  0.0166
36035W        W79051  31.965  18.112   9.475  0.1414  0.2475  0.3028
36036W        W79052   1.890  13.950  26.147 -0.1547  0.2286 -0.1566
36037W        W79053  23.982  21.333   3.274  0.2426 -0.2616  0.2120
36038W        W79054  26.391  24.080   7.687  0.1014  0.0579 -0.2209
36039W        W79055  27.672  10.948   3.420  0.1184 -0.0092  0.1002
36040W        W79056  21.402  17.164   2.311 -0.1402  0.0601  0.1468
36041W        W79057  20.934  28.138  10.329 -0.3639  0.2720  0.2214
36042W        W79058  13.212   8.620   7.832  0.1695  0.0985 -0.0163
36043W        W79059  25.949  27.415   5.497  0.1106 -0.2669 -0.1006
36044W        W79060  32.109   3.115   8.426  0.0160  0.0484  0.0979
36045W        W79061  20.592  18.675  25.843 -0.0513  0.1479  0.1290
36046W        W79062  28.706  21.699  21.918  0.0240 -0.3190 -0.2406
36047W        W79063  21.897  17.127   6.394 -0.0437 -0.1626  0.1459
36048W        W79064   8.979  17.970   3.238 -0.0698  0.0249  0.0774
36049W        W79065   1.010  25.569   7.951 -0.2040 -0.1411  0.0228
36050W        W79066  17.440   0.064  10.000  0.0751 -0.1514 -0.1519
36051W        W79067  23.861   1.547  10.520 -0.0648  0.1346 -0.1728
36052W        W79068  20.616   0.638  21.395 -0.1363  0.0855  0.2781
36053W        W79069   5.859  18.072   8.597  0.0934 -0.0460 -0.0759
36054W        W79070  22.588  29.083   1.607 -0.0185 -0.1561  0.3625
36055W        W79071  26.778  14.645  23.297  0.2023  0.0602  0.3845
36056W        W79072  22.210  23.196  27.692  0.1590 -0.3410 -0.0123
36057W        W79073  31.405   1.679   6.473 -0.2134  0.2799 -0.0255
36058W        W79074  23.869  30.666   6.356 -0.0099  0.4358  0.1010
36059W        W79075   6.309  16.060   6.209 -0.0775 -0.0050 -0.1796
36060W        W79076  27.827  20.184   0.997  0.3832 -0.0488 -0.1513
36061W        W79077  28.581  23.638   7.109 -0.2587 -0.1412 -0.0971
36062W        W79078  10.316  12.814  26.038  0.2696 -0.1240 -0.2953
36063W        W79079  30.977   1.046  28.352 -0.0167  0.2305 -0.2067
36064W        W79080  29.795  15.570   4.774  0.0373  0.0496  0.0293
36065W        W79081  20.819   2.010  10.882  0.1095 -0.0289 -0.1757
36066W        W79082  29.990  20.288  25.334 -0.3845  0.2431 -0.0664
36067W        W79083  19.171  13.771   3.277 -0.0849  0.0363 -0.0469
36068W        W79084  15.279   2.148   0.456  0.3228  0.2921 -0.2321
36069W        W79085  16.235   9.387  27.702  0.2044 -0.0677 -0.0359
36070W        W79086   8.892  10.653   6.302  0.0269  0.0812 -0.0581
36071W        W79087  24.014  15.851  10.176 -0.1278 -0.0774  0.0832
36072W        W79088  31.293   9.442  26.556  0.0343 -0.0567  0.4203
36073W        W79089  31.518  19.034   9.893 -0.2921 -0.0092 -0.2062
36074W        W79090  30.379  11.870   3.319  0.1033  0.0461 -0.1223
36075W        W79091   2.030  18.959   5.720  0.0948  0.0828  0.2517
36076W        W79092  27.916   5.946   5.092  0.0048 -0.0533 -0.0338
36077W        W79093  30.327  22.113   7.045 -0.0755 -0.1648 -0.4294
36078W        W79094   3.368  14.391   2.893  0.0363  0.0924  0.1971
36079W        W79095  16.101  25.798   9.624  0.2079 -0.1373 -0.0724
36080W        W79096  31.581   9.483   4.983 -0.1499  0.2346 -0.1813
36081W        W79097  24.487  12.530  10.142  0.0306  0.0815 -0.1680
36082W        W79098  31.522  20.498   1.058  0.2231 -0.0109  0.2685
36083W        W79099  25.465  15.934   3.838 -0.5236  0.0213  0.1748
36084W        W79100  16.333  22.428   7.755 -0.0274  0.1968  0.2828
36085W        W79101  26.969  18.114   3.570 -0.2214 -0.0038  0.0524
36086W        W79102  27.037  19.602   7.395 -0.0899  0.1562 -0.0630
36087W        W79103  21.616  33.923  20.926 -0.0451 -0.0315  0.0300
36088W        W79104  20.095  11.559  22.755 -0.1172  0.0504  0.1160
36089W        W79105   8.596  24.179   5.351  0.0801  0.0884  0.1276
36090W        W79106  30.400  19.521   6.337  0.0366 -0.1759  0.0260
36091W        W79107  28.104  25.548   5.765 -0.1074  0.2342  0.2995
36092W        W79108  28.151   5.154   9.852 -0.2698  0.2105  0.1762
36093W        W79109   3.544  31.408   6.660  0.2340  0.0451  0.3208
36094W        W79110  25.812   8.353  11.356  0.0382  0.0088 -0.1802
36095W        W79111  21.141  16.469  26.453  0.1661 -0.0138 -0.1179
36096W        W79112  20.001  12.685   5.490  0.0418 -0.0172  0.2877
36097W        W79113  30.425   4.762   8.073  0.1124 -0.2440 -0.2678
36098W        W79114  12.351  11.927   3.145 -0.0688 -0.2377 -0.3959
36099W        W79115  24.064  22.254  18.066  0.1724 -0.4946 -0.1060
36100W        W79116  29.088   7.876   1.089 -0.3728 -0.0021  0.0699
36101W        W79117  12.936   0.794   6.165  0.1148  0.2944  0.0533
36102W        W79118  28.424  21.039   4.506 -0.0593  0.0864  0.0684
36103W        W79119   0.870  26.088  28.859 -0.1315  0.0035 -0.1988
36104W        W79120  15.326  32.763   3.593 -0.0401 -0.0884  0.0439
36105W        W79121  33.405  15.768   8.739  0.0428 -0.3884 -0.1320
36106W        W79122  24.339  17.112   0.331 -0.3914 -0.1358  0.0863
36107W        W79123   1.069  23.367   5.858 -0.0108  0.1474 -0.0344
36108W        W79124  28.633  14.079   4.434  0.3349 -0.1799  0.0760
36109W        W79125  31.587  14.085   2.717  0.0117 -0.1716 -0.0510
36110W        W79126  28.764  19.050   8.889 -0.1880 -0.2011  0.1569
36111W        W79127  32.474   0.843   3.263 -0.1595  0.1126  0.1069
36112W        W79128  29.990   3.875   4.507  0.1734  0.1089 -0.1293
36113W        W79129   6.352  19.763   1.563 -0.0206  0.2256 -0.3986
36114W        W79130  32.795  12.039   6.513  0.0480 -0.0682 -0.1222
36115W        W79131   3.096  25.260   9.531  0.2514 -0.2015  0.0457
36116W        W79132   3.642  25.984   3.117  0.2697 -0.1179 -0.0569
36117W        W79133   2.919  24.728   8.363  0.2654  0.1768  0.0445
36118W        W79134  22.725  31.028  27.593  0.0757  0.2074  0.0115
36119W        W79135  23.830  18.147   4.424 -0.3723 -0.1627  0.2227
36120W        W79136  25.641  12.060   6.148 -0.2540  0.0749 -0.0629
36121W        W79137   7.965  12.960  27.815  0.2956  0.1172 -0.2095
36122W        W79138  21.241  21.172  26.996  0.0101  0.0435 -0.0453
36123W        W79139  32.376   5.023   4.419  0.2621  0.4140  0.1157
36124W        W79140  13.185   0.110   7.144  0.1341  0.1658 -0.0664
36125W        W79141   2.176  24.362   6.081  0.0472  0.1541  0.2360
36126W        W79142  25.105  10.480   6.214  0.2294  0.0342 -0.1993
36127W        W79143  29.497  26.721   6.426  0.1808  0.0491 -0.2105
36128W        W79144   8.656  18.901   4.209 -0.2828  0.4465  0.0176
36129W        W79145  23.301  14.613   6.709  0.0887  0.3006  0.2118
36130W        W79146  28.846  22.553   4.659 -0.4234 -0.1313 -0.0411
36131W        W79147  31.053  28.086   1.742 -0.1809 -0.0394  0.1585
36132W        W79148  33.374  14.558  25.861 -0.0357  0.0485 -0.2513
36133W        W79149  30.066  19.065  26.628 -0.1973 -0.2427 -0.1989
36134W        W79150  30.332  18.526   8.711  0.1147 -0.3270 -0.2408
36135W        W79151  25.650  20.946   5.903 -0.0273  0.0278  0.4370
36136W        W79152  17.920  26.993  28.500  0.2375  0.2205  0.1987
36137W        W79153  10.175  21.854   4.683  0.0440 -0.0083  0.0131
36138W        W79154  30.534  27.655   9.766 -0.1695 -0.0324 -0.3207
36139W        W79155  32.500  21.903   3.669 -0.0152  0.2833 -0.0818
36140W        W79156  29.657  17.412   9.093  0.1042 -0.1791 -0.0245
36141W        W79157  20.838  23.080   0.984 -0.1975 -0.0815 -0.0949
36142W        W79158  30.521  25.618   9.465 -0.2708 -0.0205 -0.2794
36143W        W79159  19.079  21.758   5.197 -0.0523 -0.2174  0.3339
36144W        W79160  28.140  23.084   1.373  0.0256  0.2577 -0.0616
36145W        W79161   5.992  20.009   1.905 -0.1545 -0.1123  0.0209
36146W        W79162  34.223  28.293   3.486  0.0829  0.0789 -0.1180
36147W        W79163  32.742  12.303   4.325 -0.1936 -0.1577 -0.4726
36148W        W79164  17.797  21.376  21.710 -0.2137 -0.1089  0.4426
36149W        W79165  15.342  12.466   7.038 -0.1002 -0.0022  0.0352
36150W        W79166   1.106   4.193  25.984 -0.1046  0.3227  0.1147
36151W        W79167  18.809  15.680  22.882  0.0951  0.2101  0.0390
36152W        W79168  26.524  17.816  26.640 -0.1314 -0.1714 -0.1813
36153W        W79169  22.400  23.457   3.566 -0.2520 -0.1660  0.0587
36154W        W79170  22.318  16.916   2.883  0.1210 -0.2442 -0.1745
36155W        W79171   6.047  29.253   0.821 -0.0573  0.1280 -0.3062
36156W        W79172  17.291  14.658   7.765 -0.0738 -0.1650 -0.0778
36157W        W79173  29.554  21.552  26.953  0.1264 -0.0404 -0.1395
36158W        W79174   3.142  13.425   6.923 -0.1858  0.0695 -0.0538
36159W        W79175  16.741   8.799   7.039  0.3951 -0.4218 -0.1290
36160W        W79176  29.873  31.475  10.873 -0.2585  0.0220  0.1491
36161W        W79177  23.536  27.405   4.480 -0.3102 -0.1348  0.0222
36162W        W79178   5.984  12.173   0.698  0.0768 -0.2601  0.3573
36163W        W79179  31.454  29.364   0.502 -0.2100 -0.1830  0.0338
36164W        W79180  26.630  17.403   8.674  0.1474  0.1938  0.3300
36165W        W79181  30.933  21.003   5.553 -0.1754  0.0251  0.2060
36166W        W79182  25.118  21.397  10.228 -0.0815 -0.0746  0.0433
36167W        W79183  28.106  21.088   3.380  0.0823  0.0367  0.2675
36168W        W79184   4.025  28.020   7.692 -0.0372  0.0538  0.0067
36169W        W79185  32.287  14.971   7.884 -0.0848 -0.0463  0.1993
36170W        W79186  17.375  17.180  23.352  0.0172  0.4047 -0.0982
36171W        W79187  20.956  14.865   7.420 -0.2210 -0.0156  0.3209
36172W        W79188  22.812  26.200  17.391  0.0079 -0.1229 -0.2759
36173W        W79189  23.690   0.718  27.771  0.2297 -0.1303  0.2302
36174W        W79190  16.194  22.078  27.005 -0.3871 -0.3671  0.0337
36175W        W79191  32.075  28.730  28.836 -0.2675  0.0499 -0.0599
36176W        W79192   1.988  15.573   3.885 -0.1683  0.1380 -0.1009
36177W        W79193  31.839  17.430  10.008 -0.2847  0.0714 -0.1081
36178W        W79194   5.645   0.117   1.309  0.1382  0.1091 -0.0970
36179W        W79195  21.261  10.241   7.499  0.0415 -0.4725  0.3779
36180W        W79196  25.180  19.502   6.892  0.1164 -0.0279  0.2500
36181W        W79197   0.235  17.886   9.369 -0.0666  0.1073 -0.2172
36182W        W79198  15.375  34.636   9.657  0.0917  0.1045 -0.0220
36183W        W79199  25.902  20.078  28.627 -0.1850  0.0581 -0.2036
36184W        W79200   7.459  30.159   6.957 -0.0222 -0.1274  0.2648
36185W        W79201  27.979  16.418   4.373 -0.0454  0.0199 -0.0702
36186W        W79202  15.192  23.540   6.690 -0.1183 -0.2815 -0.2519
36187W        W79203  26.866  10.881   8.730  0.0068  0.2008 -0.1883
36188W        W79204   0.792  32.344   6.166 -0.3750 -0.1544 -0.1690
36189W        W79205  31.561  14.608  28.823  0.0571  0.0501 -0.2966
36190W        W79206  23.259  13.480   3.558  0.1351 -0.4485  0.3943
36191W        W79207  26.651  21.906  10.838  0.1306  0.0113 -0.4126
36192W        W79208  29.717  32.917   8.901  0.0401 -0.1968 -0.1427
36193W        W79209  25.267  14.073   7.624 -0.2454  0.0323  0.1984
36194W        W79210  18.329  23.016   7.932  0.1364 -0.2423  0.3780
36195W        W79211  20.004  18.499  27.917  0.1721  0.1983 -0.3580
36196W        W79212  14.751  20.976   2.906  0.1439 -0.1654  0.1322
36197W        W79213   0.636  14.789   4.785  0.0801  0.0189  0.0826
36198W        W79214  22.972  19.100  26.678  0.1528  0.1565 -0.0963
36199W        W79215  25.709  26.424   3.446 -0.2000  0.0436  0.0645
36200W        W79216  34.404  26.584   8.393 -0.1375  0.0194 -0.1261
36201W        W79217   5.466   2.159   2.178  0.0877 -0.0408  0.1067
36202W        W79218  24.519  15.415   5.467  0.1264  0.3570  0.0707
36203W        W79219  30.106  26.497  10.080 -0.0578 -0.1995  0.2751
36204W        W79220  27.636  21.378   7.750  0.1658  0.0898 -0.0051
36205W        W79221   5.229   3.453   5.103 -0.0281 -0.2343  0.0965
36206W        W79222  14.068  20.970   7.551 -0.0229  0.4163  0.2693
36207W        W79223  34.594  17.478   1.451 -0.2147  0.1591  0.0706
36208W        W79224  17.801  14.681   6.339  0.2061  0.0579 -0.1126
36209W        W79225   7.043  10.097   6.302 -0.0836  0.1418  0.0211
36210W        W79226  18.512   5.554   0.074 -0.1914 -0.1195  0.2274
36211W        W79227  10.768  30.651  10.280  0.2747  0.0513  0.2149
36212W        W79228  32.517  21.616   8.346 -0.1134  0.0782  0.2130
36213W        W79229  23.100   0.847   8.110  0.3318  0.0211 -0.1936
36214W        W79230  31.682  10.350  24.914  0.1210  0.3905  0.2321
36215W        W79231  28.917  15.706  28.950 -0.1421 -0.3659  0.1233
36216W        W79232   7.723  10.320   8.584  0.1184 -0.0606  0.0624
36217W        W79233  27.463  16.870   6.395 -0.2184 -0.0600  0.0666
36218W        W79234  24.901   8.923  10.496 -0.4162  0.0841  0.0811
36219W        W79235   7.237  20.170  27.008 -0.1209 -0.1169  0.1205
36220W        W79236   6.013  26.120   6.143 -0.1703  0.2033  0.0656
36221W        W79237   8.697  11.847   9.309 -0.0557  0.2334  0.0837
36222W        W79238  28.315  14.218   8.927 -0.0103 -0.1440  0.1858
36223W        W79239   9.287  19.501   0.628  0.0162  0.3112 -0.1828
36224W        W79240  14.238  20.086  27.632  0.2866 -0.0104 -0.3221
36225W        W79241  16.619   2.595   3.727  0.2635 -0.0973 -0.0622
36226W        W79242  28.750  21.074  29.029  0.4092 -0.3986 -0.4448
36227W        W79243  19.080  16.618   8.120 -0.4295 -0.2289  0.1364
36228W        W79244   1.333  22.165   6.442 -0.1266 -0.3699 -0.2534
36229W        W79245  30.963  21.796   8.705  0.2072  0.2725  0.0709
36230W        W79246  30.593  16.736   8.027  0.2967 -0.1576 -0.2030
36231W        W79247  26.199  13.495   1.679 -0.0810 -0.3805 -0.0401
36232W        W79248   1.874  32.034   9.084  0.1131  0.0420  0.2266
36233W        W79249  26.080  21.547   8.344  0.2985 -0.2213  0.0999
36234W        W79250  28.784  18.876   1.888  0.1721  0.1991 -0.3091
36235W        W79251   1.000  20.082   1.319  0.0425 -0.2992 -0.0279
36236W        W79252  30.941  25.038  10.036  0.3429 -0.2688 -0.3265
36237W        W79253   0.912  30.570   4.858 -0.1277  0.1195  0.1780
36238W        W79254  29.094  20.332   6.120 -0.0591 -0.2724 -0.1364
36239W        W79255  31.531  15.405  27.188  0.0625 -0.2994 -0.2905
36240W        W79256  27.582  19.425  27.714 -0.0044 -0.0672 -0.2120
36241W        W79257   5.403  14.560   5.087  0.0020 -0.0357  0.2683
36242W        W79258  16.006  19.865   4.395  0.0809 -0.1644  0.1485
36243W        W79259   7.670  17.993   8.783 -0.1532  0.0721 -0.3633
36244W        W79260   3.010  32.328   9.543  0.0333  0.2500 -0.1978
36245W        W79261  12.553  14.880  28.251  0.0378 -0.2448  0.0167
36246W        W79262   3.772  29.846   4.095 -0.0629 -0.0807  0.1532
36247W        W79263  22.919  10.997  21.379  0.0717 -0.2776  0.0107
36248W        W79264  29.955  21.584  16.537  0.2506  0.2077  0.0571
36249W        W79265  30.093  33.199   9.959 -0.0010 -0.0631  0.5608
36250W        W79266  31.651   7.881   5.320 -0.0624 -0.0361 -0.1781
36251W        W79267  16.507  23.237   2.602 -0.2916  0.0945 -0.1032
36252W        W79268  26.202   7.906   5.884  0.1694  0.0842 -0.1688
36253W        W79269  11.017   5.185   6.843 -0.0167 -0.0829  0.1727
36254W        W79270  13.820  25.780   3.449  0.0798 -0.2087  0.2581
36255W        W79271  22.663  20.389   5.074  0.1255  0.1428 -0.3501
36256W        W79272  32.456  30.288  20.505  0.1395 -0.2730 -0.0441
36257W        W79273  28.100  23.513  22.919  0.1873 -0.2680 -0.1043
36258W        W79274  31.976  23.344   5.399  0.2111 -0.0186 -0.1962
36259W        W79275  16.290  30.616   4.411 -0.2480  0.1169  0.1726
36260W        W79276  26.564  13.629   4.263 -0.0406 -0.0751 -0.1381
36261W        W79277  19.982   6.948   1.784  0.1410  0.2071  0.1012
36262W        W79278  34.117  24.730  29.267 -0.2567  0.0748 -0.1811
36263W        W79279   1.685  18.751   7.811 -0.2274 -0.1189  0.2087
36264W        W79280  24.304  18.199  23.457  0.1326 -0.0193  0.1103
36265W        W79281  22.741  28.314  10.403 -0.0543  0.1430  0.0485
36266W        W79282  19.214  26.788   3.050 -0.3066 -0.0052 -0.2070
36267W        W79283  30.429  20.622   1.535  0.4463  0.1127  0.1505
36268W        W79284   3.939  30.202   2.457 -0.1048 -0.1145  0.2314
36269W        W79285  16.260   9.182   7.076  0.0252 -0.0161 -0.1587
36270W        W79286  33.903  13.938   1.021  0.1227 -0.4056  0.1565
36271W        W79287  26.891  16.423  22.573  0.1245 -0.2763 -0.2046
36272W        W79288   0.489  21.767   7.272  0.1068  0.1456 -0.1554
36273W        W79289  16.446  25.032   8.312  0.0861  0.3146 -0.2084
36274W        W79290  22.141  10.045  26.835  0.0095  0.1744 -0.0115
36275W        W79291   0.755  17.966   5.239  0.0748  0.0784 -0.1500
36276W        W79292  33.210  16.461   8.079 -0.1787 -0.0053  0.1382
36277W        W79293   0.589  15.760   7.288  0.0558 -0.2164 -0.0886
36278W        W79294  15.644  18.146   8.028 -0.0452 -0.2320  0.2022
36279W        W79295  10.527  13.841   2.066  0.0984 -0.1700  0.1739
36280W        W79296  24.208  11.766  24.491 -0.0118 -0.1017  0.1128
36281W        W79297  34.245  14.383  27.601 -0.0908  0.4098  0.0554
36282W        W79298  26.573   1.355   6.147 -0.2926  0.2483  0.0084
36283W        W79299  28.511  13.539   9.914 -0.1103 -0.3497 -0.1097
36284W        W79300   8.158  28.755  23.870 -0.1890 -0.1404  0.1035
36285W        W79301  20.480   7.076   7.645 -0.0713 -0.1119 -0.3318
36286W        W79302  34.669  10.162   0.731  0.0741 -0.1456  0.2993
36287W        W79303  26.976   4.935   4.836 -0.1367  0.0653 -0.1703
36288W        W79304  22.489  16.283   6.712  0.0780 -0.1093 -0.4144
36289W        W79305   8.600  14.670   9.666  0.2117 -0.0862  0.0235
36290W        W79306  31.805   3.812   2.597  0.4077 -0.2656 -0.1110
36291W        W79307  22.080  23.802   8.644  0.2908 -0.0663 -0.2396
36292W        W79308   0.673  19.169  10.096 -0.0276  0.1024 -0.3408
36293W        W79309  30.343   8.077   4.971  0.0120 -0.0438  0.0852
36294W        W79310  22.846  29.341   3.549 -0.2294  0.0781  0.2018
36295W        W79311  33.702  16.856   8.521  0.2429  0.1709  0.2407
36296W        W79312  27.741  19.332   9.206 -0.1355 -0.0385  0.0622
36297W        W79313   2.887  17.406  16.591  0.0120  0.2358 -0.0736
36298W        W79314   5.791  26.158   4.232 -0.3186  0.1540 -0.0959
36299W        W79315  29.482  17.812   8.338  0.0481  0.1885  0.1278
36300W        W79316  29.248  22.415   5.794 -0.2152 -0.0387 -0.2514
36301W        W79317  26.414  16.413   5.841 -0.1218  0.2728 -0.0340
36302W        W79318  21.846  16.823   3.137  0.0733  0.4341  0.3439
36303W        W79319  12.603  16.691  26.110  0.0154 -0.0686  0.2723
36304W        W79320  24.712  32.121   7.850 -0.3607 -0.3380 -0.0956
36305W        W79321  28.153  19.536  24.599 -0.2063  0.3204 -0.0461
36306W        W79322   3.519  17.892   6.283 -0.2804  0.0283  0.2321
36307W        W79323  14.041  27.748  24.738  0.1629 -0.1151  0.3283
36308W        W79324  21.131  12.529   2.257  0.2321  0.2064  0.2163
36309W        W79325  14.393  14.671  26.074 -0.4999 -0.3473 -0.0410
36310W        W79326  23.652  21.589  17.324 -0.4697  0.1984 -0.0105
36311W        W79327  17.574  20.588   3.860 -0.0245  0.0692 -0.3478
36312W        W79328  30.285  18.513  28.912  0.0045 -0.0840  0.0343
36313W        W79329  23.526  15.066   3.075  0.1755  0.1062  0.1191
36314W        W79330   1.259  20.861   7.065  0.2407 -0.0325 -0.1338
36315W        W79331  21.958  12.517   5.694 -0.1967  0.5197 -0.1766
36316W        W79332  29.845  23.717  18.558  0.0693  0.1036 -0.2472
36317W        W79333  22.035  18.683  18.812  0.0129 -0.0589  0.0333
36318W        W79334  21.889   7.065   7.521 -0.1482  0.1101  0.0763
36319W        W79335  17.253  27.591   9.379  0.1485  0.0965 -0.0630
36320W        W79336  30.489  21.222   2.986  0.1765  0.0485 -0.0238
36321W        W79337  26.490  30.833   0.552  0.0105  0.1096  0.1926
36322W        W79338  23.621  18.811  13.918 -0.0319 -0.2620 -0.1232
36323W        W79339  27.094  30.809   9.093  0.0048  0.2036  0.0983
36324W        W79340  21.188  11.764   2.151  0.0252 -0.3901  0.2151
36325W        W79341  31.418  24.651  24.575 -0.2827 -0.0496 -0.1697
36326W        W79342  17.934  18.610  21.904  0.3891  0.0832 -0.1830
36327W        W79343  24.429  21.187  29.237 -0.0545  0.0890 -0.0620
36328W        W79344   2.867  25.085   8.749 -0.1278  0.0171  0.2310
36329W        W79345  34.173   6.582   9.168  0.0443  0.0518  0.1381
36330W        W79346  19.826  15.725   2.816  0.0772 -0.0302 -0.0334
36331W        W79347  30.908   9.145   1.389 -0.0566 -0.1123 -0.4468
36332W        W79348  18.589  20.881  27.255  0.2428  0.3426 -0.0234
36333W        W79349   8.514  33.372   1.131 -0.0157  0.1741 -0.0886
36334W        W79350   6.667  17.089   4.530 -0.3601  0.2291 -0.1225
36335W        W79351  18.126  32.682  28.075  0.3192 -0.0244 -0.2719
36336W        W79352  17.699  25.572  15.794 -0.0423 -0.0077  0.2051
36337W        W79353  27.471  10.186   0.473 -0.1923 -0.2339 -0.1894
36338W        W79354  30.964   6.868   3.841 -0.3179 -0.1298 -0.0208
36339W        W79355  25.935  30.734   8.394  0.2421  0.2285 -0.4082
36340W        W79356  32.995  17.611   6.362  0.1502  0.3389  0.2194
36341W        W79357  32.485  11.689   6.221  0.0306  0.1626  0.0510
36342W        W79358  12.269  22.258   2.988 -0.1715  0.4193 -0.1836
36343W        W79359  12.247  30.610   9.377  0.0906  0.0662 -0.0908
36344W        W79360  13.862   6.864   8.406 -0.2381  0.0646 -0.0714
36345W        W79361  16.171  19.282   3.716  0.0730  0.2490 -0.2003
36346W        W79362  14.078  18.359   0.236  0.0796 -0.0909  0.0069
36347W        W79363  24.838  14.022   8.864 -0.1891 -0.1713 -0.2839
36348W        W79364  20.037  18.416  25.738  0.1693  0.3930 -0.1020
36349W        W79365  22.883  29.387  10.366  0.0088 -0.0120 -0.0944
36350W        W79366  20.250  18.591  21.286 -0.0357  0.1337 -0.1217
36351W        W79367  29.032  28.640   4.694 -0.0436 -0.1084  0.0429
36352W        W79368  10.661  31.180  10.375 -0.0701  0.2825  0.0542
36353W        W79369  34.250  16.850   0.979 -0.0025 -0.1697 -0.4097
36354W        W79370   1.820  19.915  28.679  0.0391 -0.0799 -0.0159
36355W        W79371  32.474  28.352   7.253 -0.1219 -0.1706 -0.2197
36356W        W79372  10.012   0.514   1.178  0.1837  0.3119  0.1752
36357W        W79373  23.123   3.150   6.002  0.0381 -0.1572  0.0208
36358W        W79374  12.809  22.654   8.055 -0.2894  0.1971  0.0883
36359W        W79375   2.266  16.223  19.158  0.0626  0.3065  0.1613
36360W        W79376   0.071  12.360   4.935  0.1186 -0.1590 -0.2183
36361W        W79377  20.056  25.141   6.672  0.0360  0.1086  0.0670
36362W        W79378  30.617  29.417   0.927  0.0350 -0.0802  0.1336
36363W        W79379  19.269  21.601  25.506 -0.4734 -0.1343 -0.2175
36364W        W79380  33.532  29.945  11.635 -0.1641  0.2578 -0.2070
36365W        W79381  25.817  20.093   1.236  0.0821  0.3976 -0.1849
36366W        W79382  10.151  25.952   6.428 -0.0640  0.3101 -0.1414
36367W        W79383  16.985  25.829   7.987  0.1592 -0.0179  0.1845
36368W        W79384  22.926   3.186  24.169 -0.1002  0.0366  0.1691
36369W        W79385   0.913  32.803   8.015 -0.1247  0.1598  0.1343
36370W        W79386  28.636  14.617  14.904  0.1228 -0.1671 -0.1020
36371W        W79387   8.208  26.593  28.110  0.1309  0.2778 -0.0059
36372W        W79388  22.754  26.649  20.600  0.1341  0.0435  0.0397
36373W        W79389   9.768   8.510   5.213 -0.0214  0.1269 -0.1687
36374W        W79390  29.709  29.793   5.356  0.1866 -0.1689  0.1651
36375W        W79391  21.668  26.652   7.819  0.0600 -0.1702  0.1519
36376W        W79392   4.022  16.729  26.269  0.2431 -0.1398  0.4739
36377W        W79393  26.411  17.199   0.590  0.0175 -0.5060 -0.0100
36378W        W79394   2.400  30.088   6.516 -0.0885 -0.4806 -0.3059
36379W        W79395  16.637   0.082  19.356 -0.0981 -0.3161  0.1766
36380W        W79396  32.860  10.058  23.670 -0.1751  0.2562  0.2608
36381W        W79397  31.572  15.302   4.017 -0.1361 -0.1736  0.2520
36382W        W79398  33.797  24.258   1.192 -0.3318 -0.1994 -0.1205
36383W        W79399  30.737   7.957   5.807 -0.0588  0.0057  0.1786
36384W        W79400  30.568  22.834  27.385  0.0619  0.0578  0.0907
36385W        W79401  27.285  26.405   0.512 -0.1221 -0.2395  0.0480
36386W        W79402  13.642  21.908   3.248  0.0156  0.0375 -0.0729
36387W        W79403  17.127  23.570  21.223 -0.0417  0.1543  0.1448
36388W        W79404   4.112  30.668   2.483 -0.1806 -0.1181 -0.1727
36389W        W79405  33.982  15.651   0.264 -0.0602 -0.0418  0.1917
36390W        W79406  34.172  24.657  25.423 -0.2403  0.0532  0.0828
36391W        W79407   2.371   4.486  16.801 -0.3876  0.0498  0.1511
36392W        W79408   0.618  24.396  28.835 -0.0004 -0.0092  0.0834
36393W        W79409  28.525  21.825   9.316 -0.3204 -0.2556 -0.2188
36394W        W79410  26.281  10.185  21.510  0.0464 -0.2096 -0.1021
36395W        W79411   7.170  33.976  26.219  0.1408  0.2012  0.0521
36396W        W79412   2.751  20.034   5.655  0.1087 -0.0255 -0.2733
36397W        W79413  14.165  25.518  15.604 -0.2064 -0.2202  0.1130
36398W        W79414  34.299   7.708   1.992 -0.1462  0.1236 -0.3625
36399W        W79415  22.998   3.140   4.529 -0.1589 -0.0976 -0.2464
36400W        W79416  21.831  18.265   5.261  0.0865  0.1817 -0.0175
36401W        W79417  31.192  15.443   4.728 -0.0209  0.0778 -0.0555
36402W        W79418  11.996   0.519   1.515 -0.4044 -0.1218  0.1298
36403W        W79419  18.125   0.949  28.777 -0.1557  0.1210  0.5635
36404W        W79420  27.646  21.650   9.853 -0.1563 -0.0678  0.0730
36405W        W79421  24.779  22.133   8.529  0.0348 -0.3816 -0.2533
36406W        W79422   6.379  23.785  26.300  0.1079  0.4452  0.0238
36407W        W79423   2.748  10.613   8.167  0.0770  0.0446 -0.3790
36408W        W79424  31.446  16.894  24.576 -0.3217  0.0522  0.1005
36409W        W79425  28.953  26.860  10.028 -0.1435 -0.1438 -0.0987
36410W        W79426   5.046  18.419   2.215 -0.2804  0.0065 -0.0476
36411W        W79427  30.591  21.179  24.368 -0.0739 -0.0189 -0.0604
36412W        W79428  29.920  18.878  14.687 -0.0442 -0.0206 -0.0315
36413W        W79429  12.034  29.695  20.513 -0.0008  0.1139  0.0054
36414W        W79430  15.262  28.813   7.498  0.0470 -0.4014  0.0119
36415W        W79431  26.936  28.517   2.784  0.4696  0.2898 -0.1687
36416W        W79432  32.311  31.715   5.057 -0.1436 -0.3969 -0.1621
36417W        W79433  11.392  24.944  25.612 -0.0126 -0.0963 -0.0676
36418W        W79434  24.427   0.264   0.944  0.0507 -0.1231 -0.1818
36419W        W79435  23.475  20.235  25.098 -0.2261 -0.0606  0.2574
36420W        W79436  33.094  25.363  21.639  0.0587 -0.0060  0.1621
36421W        W79437  14.937  21.303  12.674  0.3899 -0.1224 -0.0422
36422W        W79438  29.165  20.117  21.202  0.0888 -0.2427 -0.0902
36423W        W79439  16.080  22.339  21.386 -0.2132  0.5830 -0.0750
36424W        W79440   7.347  26.627   4.851 -0.0362 -0.1277  0.0782
36425W        W79441  21.288  20.181   0.293 -0.0064 -0.0434  0.1525
36426W        W79442   4.102  24.681   0.843 -0.1188 -0.0312 -0.1255
36427W        W79443  28.761  14.153   9.326  0.2518  0.0727 -0.2047
36428W        W79444  19.666  24.356  24.494 -0.3230  0.1576  0.2867
36429W        W79445  16.140  21.237  26.249 -0.0296 -0.2706  0.2413
36430W        W79446  11.207  10.887   7.865  0.1862  0.0372 -0.0075
36431W        W79447  18.120  10.934  24.309  0.0547 -0.0762 -0.0129
36432W        W79448  20.482  16.029   0.074  0.0958 -0.0974  0.3344
36433W        W79449  25.851   0.182  21.139  0.2782 -0.0656 -0.2779
36434W        W79450   5.582  27.278   9.244  0.1972 -0.1037  0.3121
36435W        W79451  28.429  13.675  22.739 -0.1716 -0.0897 -0.2117
36436W        W79452  22.978   9.805   1.271 -0.1379  0.1510  0.0250
36437W        W79453  16.762  19.693   5.459  0.0462  0.1364 -0.1387
36438W        W79454  31.436  19.596   5.991 -0.1636  0.0768  0.0901
36439W        W79455   1.854   8.702   5.556 -0.3525  0.0785 -0.1192
36440W        W79456  24.598  31.339   2.536  0.0884  0.0089 -0.0115
36441W        W79457  30.521   7.031   2.818 -0.0419 -0.2185  0.2441
36442W        W79458   0.913  24.987   6.185  0.2459  0.0869 -0.0442
36443W        W79459   4.683  26.499  26.689  0.0541  0.1769 -0.2256
36444W        W79460  15.115  14.359   5.710 -0.0582  0.0555  0.1401
36445W        W79461   0.171  23.152   8.800  0.3763 -0.0141 -0.0642
36446W        W79462  24.327   1.787  19.139 -0.0965  0.3540 -0.2719
36447W        W79463  24.596  20.435   6.355 -0.1432  0.2352  0.0569
36448W        W79464  33.241  28.930  26.463  0.1722 -0.2621  0.0475
36449W        W79465  20.101  21.604   5.579  0.0687 -0.3107  0.1628
36450W        W79466  34.422  23.489   8.167 -0.0236 -0.2238 -0.0170
36451W        W79467  28.026  16.369  27.356  0.2196 -0.2567  0.3934
36452W        W79468  11.407  11.189   5.681  0.1084  0.0185 -0.2130
36453W        W79469  14.053  27.787  15.957  0.1734 -0.2675  0.0027
36454W        W79470  15.453  27.671  27.847  0.1537 -0.0758  0.0966
36455W        W79471  29.380  15.088  28.099 -0.0714  0.0129 -0.0720
36456W        W79472  26.150   6.816   0.857 -0.0448 -0.1037  0.3509
36457W        W79473  10.802  25.700  28.823  0.0166 -0.0757 -0.2208
36458W        W79474  13.969  17.103  27.772 -0.2253  0.1706 -0.1967
36459W        W79475  28.436  32.883   7.732  0.0220  0.0108  0.2049
36460W        W79476   1.858  14.532   3.084  0.1633 -0.0300  0.1546
36461W        W79477  24.993  22.835   9.883  0.3958  0.0497 -0.1068
36462W        W79478  23.797  20.143  26.044  0.0609 -0.1087 -0.0150
36463W        W79479   1.675  32.439   1.483  0.0329 -0.1534  0.1846
36464W        W79480  12.256  15.761  25.107 -0.0188  0.1335  0.0277
36465W        W79481  33.578  14.412   7.254 -0.4117  0.1682  0.0626
36466W        W79482  26.663  17.158   0.109 -0.2030  0.0962  0.1171
36467W        W79483  12.492  34.586   4.224 -0.0926  0.1572  0.0199
36468W        W79484  24.000  14.557   0.025  0.1869  0.0111 -0.0282
36469W        W79485   3.355  18.455   3.725  0.3724 -0.3228 -0.1005
36470W        W79486  22.726   9.707   8.030  0.0099  0.1641 -0.0830
36471W        W79487  20.208  17.622  19.962 -0.3194  0.1283  0.0698
36472W        W79488  21.368  14.650  26.523  0.1172  0.0048  0.1996
36473W        W79489  22.182  30.081  19.960  0.0854 -0.1640 -0.0084
36474W        W79490  29.286  15.401   6.351 -0.0093  0.2743 -0.4654
36475W        W79491  31.957  17.568   8.236  0.3157  0.1727  0.3377
36476W        W79492  34.293  30.909   2.410  0.1044  0.2920  0.0696
36477W        W79493  30.864   1.111   0.410  0.0353  0.1028 -0.0120
36478W        W79494  25.572  14.394  14.194 -0.1131  0.1164  0.5018
36479W        W79495  33.771  27.528  28.627  0.2106  0.3096  0.0884
36480W        W79496  33.384  15.557   2.482  0.0507  0.1151  0.0664
36481W        W79497  15.314  18.585   8.016  0.0170  0.1758 -0.1328
36482W        W79498  11.045  22.600   6.318 -0.1002 -0.0348  0.1181
36483W        W79499  13.807  10.492  25.813  0.2131  0.0971 -0.0233
36484W        W79500  15.716   1.955  25.018  0.0137  0.3497  0.0385
36485W        W79501  18.787  15.716  19.054 -0.0256  0.2266  0.0086
36486W        W79502  34.146  22.240  22.422 -0.0110 -0.0908  0.0991
36487W        W79503  28.978  28.830   9.758 -0.0740  0.0475 -0.0480
36488W        W79504  24.909  15.444   6.946 -0.0862 -0.2047 -0.2158
36489W        W79505  17.071  23.099   3.828 -0.0843  0.0064  0.2035
36490W        W79506  29.123  17.944   2.165  0.2819 -0.3449 -0.2242
36491W        W79507  22.649  22.225  20.262  0.0118 -0.1522 -0.1936
36492W        W79508  27.084  17.476   5.847 -0.0661  0.0546  0.0026
36493W        W79509  17.729  28.165  18.570 -0.1341 -0.1886 -0.2794
36494W        W79510  28.586  25.035   2.013  0.0857  0.2472 -0.0519
36495W        W79511  10.530  24.658   3.007  0.0511 -0.0037 -0.0221
36496W        W79512  23.723  20.994   0.919 -0.0704 -0.4743 -0.0575
36497W        W79513  33.649  21.824   5.375 -0.0304 -0.0996 -0.0216
36498W        W79514  31.887  13.742   1.151 -0.0448 -0.2357 -0.2897
36499W        W79515  21.655  18.738  20.937 -0.0102 -0.1307  0.0534
36500W        W79516   2.031  31.884   8.636  0.2648 -0.2052 -0.1169
36501W        W79517  31.920  21.684   7.422 -0.2884  0.1287 -0.3249
36502W        W79518  17.360  23.483  18.299  0.2286  0.0669 -0.2196
36503W        W79519  30.048  32.949   5.666  0.0966  0.4331 -0.0137
36504W        W79520  27.278   1.373   4.970  0.2208 -0.0763  0.0572
36505W        W79521  25.745  20.152   6.109  0.3665  0.1598  0.2924
36506W        W79522  30.592  19.095   9.863  0.0162  0.0225 -0.0691
36507W        W79523  18.211  16.057  20.704 -0.0250  0.1044  0.0574
36508W        W79524   7.332  29.956   7.504 -0.1065 -0.0624  0.3258
36509W        W79525   4.528  18.635  14.268 -0.1013  0.1524 -0.1480
36510W        W79526  19.164   0.048   6.288 -0.0954 -0.0338  0.0543
36511W        W79527  24.192   6.256  26.489  0.4363  0.0856 -0.1232
36512W        W79528   1.968   1.311  27.858  0.0684  0.1243  0.2795
36513W        W79529  17.524  12.958   9.157  0.1825 -0.0024 -0.1101
36514W        W79530  29.507  34.418   7.876 -0.1706  0.0174  0.0123
36515W        W79531  22.503  25.582  19.694  0.3111 -0.0923 -0.1003
36516W        W79532  26.318  27.486   7.787  0.0487 -0.0417  0.1792
36517W        W79533  30.278   8.167  27.152  0.0364  0.0152 -0.1368
36518W        W79534  29.446  32.027   2.468  0.0202  0.1940  0.2267
36519W        W79535  16.765  17.153   7.964  0.1675 -0.0943 -0.2507
36520W        W79536  21.286  32.371   2.329  0.4394  0.0392 -0.0098
36521W        W79537  23.424  33.869   0.851  0.2332  0.0519 -0.1688
36522W        W79538  26.002  18.722   8.864  0.2826  0.1525  0.0624
36523W        W79539  23.045  19.473  27.602  0.0705  0.0147 -0.1925
36524W        W79540  25.137  19.177   6.481 -0.0809  0.2671  0.1917
36525W        W79541  23.291  29.548   3.338 -0.2089 -0.1547  0.1100
36526W        W79542  33.493   9.530  10.122  0.0959  0.0898 -0.0421
36527W        W79543  24.619   8.214  27.668 -0.1133  0.1078 -0.1878
36528W        W79544  20.751  13.447  22.030 -0.0506 -0.1895 -0.2171
36529W        W79545  34.111   5.621   4.093 -0.0184  0.1337 -0.1539
36530W        W79546  11.838  15.629  19.394 -0.2563  0.0415 -0.0502
36531W        W79547  13.602   8.890  28.651  0.3817 -0.0803 -0.0444
36532W        W79548  30.283  16.964  20.118 -0.1306  0.0935 -0.1303
36533W        W79549  25.112  22.733   8.866  0.2206  0.1615  0.1567
36534W        W79550  23.691   0.977  28.534 -0.0879  0.2212  0.1137
36535W        W79551   1.107  15.991   9.096 -0.0805 -0.0150  0.1475
36536W        W79552  23.765  13.225  26.445  0.0723  0.2259  0.1733
36537W        W79553  31.090   7.239   9.024  0.1417  0.2844  0.0763
36538W        W79554  20.582  31.379   0.860 -0.2186  0.2920 -0.0170
36539W        W79555   6.156  11.376  27.026  0.2608  0.0732 -0.0368
36540W        W79556   0.667  18.346  18.534  0.0435  0.1560 -0.1317
36541W        W79557  27.272  32.233  17.559  0.1177 -0.4548 -0.4998
36542W        W79558  33.225  27.056  28.333  0.2189  0.0019  0.1440
36543W        W79559  11.120  12.050  28.001 -0.2174  0.0210 -0.1324
36544W        W79560   6.371   9.989  17.971  0.0259 -0.2461 -0.3454
36545W        W79561  27.085  32.522  23.977 -0.1500 -0.0083 -0.1853
36546W        W79562  18.182   4.539  22.173 -0.0052 -0.1933  0.1739
36547W        W79563  29.734  34.505  23.104 -0.0042 -0.0490  0.0170
36548W        W79564  20.041  21.834   2.991  0.0187  0.2327 -0.0896
36549W        W79565  22.645  12.326   1.731  0.3062  0.0894  0.5085
36550W        W79566  24.162  18.533  27.613  0.0394  0.0439  0.0699
36551W        W79567  21.028  12.429   9.005 -0.1814  0.5827 -0.1097
36552W        W79568  28.082  29.870   7.377  0.0136  0.1358  0.5354
36553W        W79569  29.675   3.376   2.893 -0.0191  0.1220  0.3517
36554W        W79570  22.988  28.275   9.881 -0.1062 -0.2334 -0.1031
36555W        W79571  34.491  32.047  28.681  0.2040 -0.0623  0.0237
36556W        W79572  22.770  23.904  10.052 -0.0292  0.1393 -0.3196
36557W        W79573  21.885   6.077  21.155 -0.0057  0.2542 -0.2825
36558W        W79574   4.603   1.025  24.160  0.2222 -0.0782  0.3045
36559W        W79575  11.480  20.657  27.813 -0.0057 -0.0381 -0.0478
36560W        W79576  32.916  12.548   6.275  0.2696 -0.1639 -0.0341
36561W        W79577  10.953  30.261   3.780  0.2793 -0.1461  0.1886
36562W        W79578   5.734  10.199   9.550  0.0827 -0.1202 -0.2796
36563W        W79579  18.245  19.957  16.989  0.0074 -0.1852 -0.0863
36564W        W79580  28.530  13.897   1.932  0.2916  0.1815 -0.0124
36565W        W79581   5.342  13.658   6.538 -0.1072  0.2688  0.4799
36566W        W79582  30.272  25.678  25.109 -0.1459 -0.0929  0.0037
36567W        W79583   0.434  17.226   9.408 -0.0098 -0.1731 -0.1427
36568W        W79584  23.022  20.836   8.447  0.1494 -0.2937 -0.2551
36569W        W79585  20.010   8.152   3.995 -0.2732  0.0406  0.2476
36570W        W79586  28.985  16.553  24.851  0.1540  0.3917 -0.2543
36571W        W79587  21.984  22.515  24.942  0.0147  0.0503  0.1152
36572W        W79588  32.179  31.057   5.110  0.2958  0.2073  0.0612
36573W        W79589  14.882  11.489   8.408 -0.0686 -0.1016  0.0230
36574W        W79590   0.766  24.108  20.749 -0.0542  0.0936  0.1209
36575W        W79591  23.879  23.874   6.032  0.4772 -0.1051  0.2153
36576W        W79592  31.606  26.834   9.411 -0.3431 -0.4613 -0.1413
36577W        W79593   3.761  32.155   7.758 -0.0242  0.1981 -0.0946
36578W        W79594  33.890   6.981  19.513  0.1028  0.1769 -0.1702
36579W        W79595   0.421  31.079  21.807 -0.0044  0.2971  0.3017
36580W        W79596  28.881  28.364   7.384  0.0723  0.2867 -0.3990
36581W        W79597  14.075   1.788  20.635  0.3239 -0.0480 -0.1868
36582W        W79598  18.198   4.165  18.613  0.1120  0.0502 -0.2298
36583W        W79599  19.271  10.718   8.078 -0.0514 -0.0229 -0.1833
36584W        W79600  26.942   5.150   9.107  0.0295  0.0324 -0.0710
36585W        W79601   2.055  15.924  27.967 -0.1216 -0.0795  0.1995
36586W        W79602   4.449   9.663   7.866 -0.0152  0.1906  0.1865
36587W        W79603  31.679  15.728  17.765 -0.2027  0.1411  0.4592
36588W        W79604  30.077  21.719   7.087 -0.3954  0.0575  0.0737
36589W        W79605  32.359  29.244   8.101  0.2457  0.3752 -0.1071
36590W        W79606  24.782  30.949   5.090  0.1845 -0.2979 -0.5578
36591W        W79607  24.595  25.062   6.945  0.2793  0.0909  0.0530
36592W        W79608  23.349  18.018  15.336  0.0240 -0.1186 -0.1245
36593W        W79609  27.482  33.333   6.370  0.0658 -0.1037  0.1042
36594W        W79610  20.932  12.422   4.061  0.1082 -0.2624  0.2347
36595W        W79611  18.961  19.004   7.554 -0.0044  0.2461  0.1561
36596W        W79612  31.280  21.978  15.362 -0.2155  0.2063 -0.4073
36597W        W79613   3.437  24.050   0.854  0.2003 -0.0379 -0.1157
36598W        W79614  22.178  24.668   2.718  0.1743  0.0492 -0.2760
36599W        W79615  17.704  16.400  24.623 -0.5098 -0.2497 -0.2272
36600W        W79616  28.533  31.628  25.399 -0.1561 -0.0242 -0.0167
36601W        W79617  14.962  10.729  27.706 -0.0219 -0.2474  0.0031
36602W        W79618  26.461  19.661   1.932  0.2818  0.3212  0.3984
36603W        W79619  29.964  26.308   9.623 -0.0952 -0.2288 -0.0703
36604W        W79620  26.885  27.117  16.178 -0.0166  0.1117  0.0508
36605W        W79621   8.658   0.067  23.413  0.3228  0.1735  0.0372
36606W        W79622  17.032  33.821  26.839 -0.0249 -0.1749  0.2070
36607W        W79623  26.048   0.335   9.377  0.3136 -0.2697  0.1226
36608W        W79624  30.279  24.464   1.510  0.1144  0.2236  0.0241
36609W        W79625  32.824  10.784   6.428 -0.1245  0.2493  0.0469
36610W        W79626  34.732  24.166   9.189 -0.1000  0.2165  0.0588
36611W        W79627  15.103   5.132  17.367  0.0940 -0.0573  0.1671
36612W        W79628  28.669  33.267  24.453  0.1049  0.2160  0.0461
36613W        W79629  28.098  21.242   7.477 -0.2761  0.0344  0.0834
36614W        W79630  29.010  20.528   8.500  0.2026 -0.0850 -0.0706
36615W        W79631  30.491  15.446  23.783 -0.1375  0.1012 -0.2208
36616W        W79632  21.423  18.067  20.258  0.3088 -0.3663 -0.2132
36617W        W79633  24.581   1.927  27.326 -0.0899  0.2637  0.2577
36618W        W79634  31.855  34.548   6.671 -0.2236 -0.1729  0.3252
36619W        W79635  28.287  14.783  18.405 -0.1399  0.1333  0.0492
36620W        W79636  17.560   6.901  26.212  0.3383 -0.0597 -0.1659
36621W        W79637   0.680  30.215   9.609  0.1578  0.0602 -0.1067
36622W        W79638  18.380  28.449  15.324 -0.0391 -0.0212 -0.0498
36623W        W79639  29.436  27.658   5.577  0.1349  0.1505 -0.3292
36624W        W79640  21.227  26.590   3.185  0.1460  0.2761  0.3073
36625W        W79641  27.442  31.686  17.501 -0.1304  0.3371 -0.2655
36626W        W79642  31.985  30.833  11.566  0.0861 -0.0157  0.0633
36627W        W79643  16.944  21.104  25.476  0.3361  0.1393 -0.1892
36628W        W79644  30.988  19.329  10.305 -0.0711  0.2513  0.0332
36629W        W79645  26.680   9.237   2.229  0.3758  0.4524  0.0448
36630W        W79646  20.128  12.709  27.519 -0.3600 -0.1047 -0.2175
36631W        W79647  24.694  24.485  18.017  0.3027  0.0033 -0.2692
36632W        W79648  21.336  27.497   2.454  0.2143  0.0431  0.0533
36633W        W79649  16.611  27.738   9.961  0.1001 -0.0421  0.1127
36634W        W79650  25.484  10.999   3.422  0.2743 -0.0167 -0.3679
36635W        W79651  20.785  27.364  24.169 -0.1939  0.0727 -0.1954
36636W        W79652  29.699  31.736  19.868 -0.1347  0.0191 -0.4025
36637W        W79653   8.085  23.327   0.558 -0.0183 -0.0931 -0.1775
36638W        W79654  31.951   3.334  28.661 -0.1053  0.0003  0.0098
36639W        W79655  12.854   9.352   6.609  0.0824 -0.2246  0.0688
36640W        W79656  10.566   8.620  27.256 -0.0747  0.0670 -0.1946
36641W        W79657  30.635   5.990  28.636  0.0061  0.2156  0.3414
36642W        W79658  24.038  20.167   2.650 -0.0817 -0.1276 -0.0217
36643W        W79659  23.254  23.313   1.465  0.1316 -0.2538  0.0420
36644W        W79660  29.910  11.967   5.349  0.0612 -0.0196  0.0404
36645W        W79661  31.439  10.129   7.154  0.0400 -0.1872  0.2356
36646W        W79662  13.026  17.119   3.391 -0.1634  0.0230 -0.0497
36647W        W79663  30.249  26.282  23.116  0.1125 -0.2529  0.2039
36648W        W79664  23.908   7.011  28.747  0.2018  0.3117 -0.2339
36649W        W79665  24.964  31.739  12.263 -0.2701 -0.0537  0.1530
36650W        W79666  12.495  18.188  23.445 -0.0505  0.1008 -0.0291
36651W        W79667  21.455   5.464  19.875 -0.0614 -0.1833  0.0378
36652W        W79668  32.492  22.705   5.079  0.2398 -0.0957  0.0037
36653W        W79669  18.314  26.410  27.478  0.1632 -0.0672 -0.1066
36654W        W79670  21.946  11.387   5.273 -0.2996 -0.2993  0.1359
36655W        W79671  33.051  29.291   6.420 -0.1085 -0.0466 -0.0205
36656W        W79672  18.695  21.387  21.934  0.3038  0.0811  0.1235
36657W        W79673  32.439   4.416  10.278 -0.0284  0.1466  0.2540
36658W        W79674  21.981  22.579   3.177  0.0782  0.0848  0.1232
36659W        W79675  13.564  12.675  20.801  0.1261  0.0295 -0.3677
36660W        W79676  21.720  18.976  27.947  0.2647 -0.0916  0.0412
36661W        W79677  28.263  34.694   8.198 -0.1135  0.2282  0.0199
36662W        W79678   7.607  32.737   4.713  0.0048 -0.2932  0.1379
36663W        W79679  29.488   0.536  23.057 -0.1779 -0.0742 -0.1324
36664W        W79680  26.095   5.844   2.008 -0.0565  0.1228  0.1041
36665W        W79681  30.158  21.668   2.350  0.1177 -0.0381  0.2669
36666W        W79682  13.497  18.036   7.271  0.0653  0.1541  0.1209
36667W        W79683  30.638   8.294  10.126 -0.1642 -0.1050  0.2479
36668W        W79684  23.029  20.104  26.907  0.0671  0.0115 -0.1650
36669W        W79685  33.933  25.287   3.149  0.4189 -0.2085  0.0794
36670W        W79686  22.473  18.886  18.709  0.0787  0.1296  0.1355
36671W        W79687  18.852  20.079   5.321 -0.3081 -0.0779  0.3716
36672W        W79688  24.906  28.114   3.936 -0.1827 -0.1309  0.0121
36673W        W79689   1.049   6.373   8.790  0.1169 -0.0762 -0.1126
36674W        W79690  28.538  30.212  22.413 -0.0670  0.0768  0.0403
36675W        W79691   5.802  20.810  26.215  0.0627 -0.1241  0.2773
36676W        W79692  30.385  31.176  26.725 -0.0607 -0.0345 -0.1894
36677W        W79693  29.379   1.289   0.008  0.3053 -0.2269 -0.0369
36678W        W79694   0.029   9.506   1.054  0.3478  0.0231  0.0620
36679W        W79695  10.042  14.098  24.949 -0.0162  0.2021 -0.0666
36680W        W79696  30.150   3.982  28.364 -0.0939  0.2713  0.1055
36681W        W79697  32.555  28.729   1.044  0.2206 -0.0950  0.0445
36682W        W79698  16.824  21.996   7.993 -0.1085  0.2516 -0.1004
36683W        W79699  30.697  19.334  28.711  0.2277 -0.2070  0.0056
36684W        W79700  18.444  26.050  23.465 -0.1189 -0.1448 -0.1922
36685W        W79701  21.253  16.718   2.060 -0.0684 -0.0044 -0.0255
36686W        W79702  17.316  29.304   6.061 -0.0878  0.3094 -0.1190
36687W        W79703   2.858  27.344  25.238 -0.1722 -0.0761 -0.1233
36688W        W79704  21.858   0.819  19.754 -0.1605  0.2805  0.1055
36689W        W79705  14.844   6.270   6.366  0.0857 -0.1279  0.1377
36690W        W79706  26.802  20.489   5.530 -0.0418  0.1224 -0.0322
36691W        W79707  17.907  27.724   6.209 -0.0092  0.0917  0.2476
36692W        W79708  33.981  19.690   0.863 -0.2741 -0.2047 -0.0644
36693W        W79709   6.181   3.148  26.895 -0.0276 -0.0615  0.1770
36694W        W79710  31.317  15.924  28.171  0.0008 -0.1656  0.2308
36695W        W79711  27.943  22.777  17.758 -0.2866  0.0187  0.0991
36696W        W79712  24.316   9.298   0.717  0.0704 -0.0141 -0.3303
36697W        W79713   7.100  14.048   4.618  0.0670  0.1590  0.0837
36698W        W79714  32.506  26.516  16.213 -0.0178  0.0914  0.3326
36699W        W79715  28.514  12.242  26.253 -0.1664 -0.3006 -0.3751
36700W        W79716  22.521  31.292  15.506 -0.2530  0.3031 -0.1749
36701W        W79717  29.289  24.210   3.277  0.1997 -0.0036  0.1381
36702W        W79718  31.828  26.112   9.878 -0.2385  0.4345 -0.0579
36703W        W79719  23.426  19.377  13.842 -0.3035  0.0279 -0.1713
36704W        W79720  31.329  23.235  11.012 -0.2046 -0.1781  0.0096
36705W        W79721  31.476  25.653   7.356 -0.0720 -0.0469  0.3527
36706W        W79722  34.659   9.311   4.130  0.0487  0.0503 -0.0218
36707W        W79723   1.171   6.031  27.354 -0.1752 -0.2127  0.0105
36708W        W79724  23.817  21.328   2.373  0.1968 -0.3614 -0.1604
36709W        W79725  27.268  24.317  25.234 -0.2486 -0.0244  0.1758
36710W        W79726   0.527  32.030   6.651  0.1639  0.3004 -0.0481
36711W        W79727  26.884  22.850  24.609 -0.3505 -0.0385  0.1952
36712W        W79728  29.925  32.406   4.365 -0.0104 -0.0292 -0.2942
36713W        W79729   3.105  17.665  27.861 -0.1052 -0.1417 -0.0815
36714W        W79730  24.451  24.942  18.091  0.1124  0.1558  0.1214
36715W        W79731  13.362  20.551   7.131 -0.2729  0.0526  0.1696
36716W        W79732  28.845  21.342   9.242  0.1582  0.2333 -0.2221
36717W        W79733  23.473  32.436  22.950 -0.0355 -0.0061 -0.2332
36718W        W79734  14.297  20.871   7.055  0.2526  0.2388 -0.2527
36719W        W79735  21.218  19.937   4.661  0.2586 -0.1845  0.3886
36720W        W79736  21.390  14.469   5.347 -0.0876 -0.2100 -0.2592
36721W        W79737  31.342  29.817   5.459 -0.0548  0.1733 -0.0373
36722W        W79738  15.004  19.326  27.550  0.1472 -0.1906  0.0156
36723W        W79739  28.540  27.333   0.197 -0.0195 -0.0431 -0.0370
36724W        W79740  23.034  29.872  28.839  0.0465  0.2793 -0.4548
36725W        W79741  20.298  28.454   3.642  0.0722 -0.1769 -0.4244
36726W        W79742  18.049  17.697   6.633  0.1310 -0.0686 -0.0767
36727W        W79743  25.465  14.907   4.831 -0.0578  0.3266  0.0334
36728W        W79744   0.039  29.417   9.843 -0.0517 -0.4699 -0.0700
36729W        W79745   1.723  20.883   5.771  0.2010  0.0501  0.2704
36730W        W79746  33.842  16.204   7.151  0.0714  0.1155 -0.0309
36731W        W79747  17.119  16.043   6.613 -0.0175 -0.1158  0.1541
36732W        W79748  28.877  19.789   2.088 -0.3521 -0.0878  0.0632
36733W        W79749  13.261  18.368  28.261  0.1786 -0.2569  0.1088
36734W        W79750  26.184   7.592   7.604 -0.0492 -0.1225 -0.2789
36735W        W79751  25.225   3.621   2.857  0.2161  0.3305 -0.2286
36736W        W79752   5.332   2.230   6.795 -0.2215  0.1754 -0.1644
36737W        W79753  34.381  19.955   8.355 -0.1826 -0.1851 -0.2636
36738W        W79754  26.005  22.267   5.532  0.0791  0.2652 -0.1915
36739W        W79755   0.610  17.959  15.079  0.5279  0.1070  0.2472
36740W        W79756  26.250  31.555  26.789 -0.0909  0.1883  0.0552
36741W        W79757  11.011   8.613  18.976 -0.4026  0.0410 -0.1420
36742W        W79758  20.287  30.477  10.896 -0.2084 -0.1721 -0.1699
36743W        W79759   4.537  33.365   8.457  0.2073 -0.0390 -0.1107
36744W        W79760   1.953  24.274   1.526  0.1696 -0.1865 -0.0625
36745W        W79761  15.481  25.379   4.264 -0.0044  0.1276  0.0610
36746W        W79762  34.443   4.920   2.182  0.0101 -0.1126  0.1905
36747W        W79763  30.718  20.544  26.542  0.2288  0.1180 -0.2473
36748W        W79764  24.019  26.536  27.360 -0.1952 -0.2290 -0.2790
36749W        W79765   9.657  26.787   2.845  0.0567 -0.1551  0.2108
36750W        W79766  20.522  22.432   1.249 -0.1557  0.2311  0.0303
36751W        W79767  32.961  24.778   5.539 -0.0932  0.2872 -0.0344
36752W        W79768  26.420   7.842   8.089 -0.0246 -0.1771 -0.1379
36753W        W79769  27.516  32.806   0.111 -0.1016  0.1022  0.2256
36754W        W79770  23.847  13.909   8.803  0.0643  0.1423  0.1679
36755W        W79771  14.132  33.955   6.164 -0.0958  0.0457 -0.0941
36756W        W79772  32.717   4.346  15.057  0.1203 -0.0635 -0.1138
36757W        W79773  26.530  25.061   6.418  0.2502 -0.1556 -0.0162
36758W        W79774  23.824  20.401   7.684  0.0129 -0.0597  0.0569
36759W        W79775  24.354  27.100   6.892 -0.0863  0.1544  0.0757
36760W        W79776  20.510   8.501   5.564 -0.0782  0.2514  0.2062
36761W        W79777  17.607  17.814  17.540  0.1445 -0.1092 -0.0662
36762W        W79778  21.971  24.260   8.668 -0.0957 -0.1511  0.1248
36763W        W79779   3.756  15.406   5.090  0.0630 -0.1195  0.0987
36764W        W79780  16.476  15.601   5.806  0.2437  0.2004 -0.1529
36765W        W79781  20.830   4.107   6.551  0.0928  0.0835  0.1733
36766W        W79782  20.996  15.919  29.211  0.0113 -0.0311  0.5021
36767W        W79783  31.636  25.016   6.786 -0.3850 -0.1164 -0.2793
36768W        W79784  16.353  17.128   8.325  0.1071  0.0237 -0.2598
36769W        W79785  33.776   4.128  19.089  0.1515 -0.1677 -0.2271
36770W        W79786  24.096   7.489   1.136 -0.2191 -0.1428 -0.0334
36771W        W79787  27.642  27.720   4.841  0.2744 -0.3963  0.1258
36772W        W79788  28.868  32.484   6.401 -0.3826  0.1066  0.2638
36773W        W79789  29.317  33.348   7.017 -0.2002  0.1294  0.1947
36774W        W79790   0.337   2.210  27.993  0.1871  0.0418 -0.0804
36775W        W79791  13.861  20.701   4.707  0.2060  0.1397 -0.0843
36776W        W79792  10.243   6.889   4.055  0.1817  0.0842  0.0472
36777W        W79793  27.279  21.603  10.217 -0.0460  0.0154 -0.3973
36778W        W79794  14.980  14.575  26.163 -0.0891  0.3265  0.2598
36779W        W79795   1.791  27.197  23.380 -0.0316 -0.2150  0.0239
36780W        W79796   5.386  28.050   4.464  0.1653  0.3610  0.0712
36781W        W79797   2.154  12.197   7.044 -0.2796 -0.0391 -0.0750
36782W        W79798  17.392  33.531   2.693  0.2627  0.3254 -0.3048
36783W        W79799  17.259  29.002  26.833 -0.0218 -0.1456  0.1150
36784W        W79800  32.508   6.364  26.688  0.0907 -0.3295  0.2856
36785W        W79801  27.441  17.500   6.699  0.0967  0.0192  0.0115
36786W        W79802  20.012  31.938   7.185  0.0154  0.1216 -0.0325
36787W        W79803   4.812  23.750  21.844 -0.0717  0.1840 -0.1152
36788W        W79804  31.853  23.341  10.315  0.2815  0.0481 -0.1496
36789W        W79805  27.400  27.275   2.322  0.2048 -0.5062 -0.2060
36790W        W79806  19.416  28.259   7.757  0.0229 -0.0542 -0.0754
36791W        W79807  17.564  28.519   2.756 -0.1636  0.3964 -0.1123
36792W        W79808  20.459  25.626   0.262 -0.1575 -0.1154  0.4223
36793W        W79809  27.841  30.225  10.620 -0.0083 -0.2200  0.2289
36794W        W79810  18.996  11.774   8.562  0.0991 -0.1837  0.0821
36795W        W79811   0.352  17.185  27.987 -0.2124  0.0694 -0.2141
36796W        W79812  22.235  27.324   5.876  0.3214 -0.0902 -0.0020
36797W        W79813   3.115  17.100   2.304  0.1468  0.1000  0.1041
36798W        W79814   3.403  25.033   0.774 -0.2078  0.0797 -0.2706
36799W        W79815  19.734  17.750   2.149 -0.0476 -0.1843 -0.2082
36800W        W79816  17.331  19.013   1.940  0.2726 -0.0304 -0.0970
36801W        W79817  26.866   6.486  22.834 -0.0752  0.2488 -0.1521
36802W        W79818  29.345   5.146   0.250  0.2223  0.0732  0.3670
36803W        W79819  27.964  20.406   2.003 -0.1448  0.2864 -0.0054
36804W        W79820  23.664  15.316   1.122  0.0496 -0.3796  0.0397
36805W        W79821  32.148  17.264   9.601 -0.0558 -0.0898 -0.0111
36806W        W79822  25.092   6.001  25.404 -0.1660  0.0030  0.1154
36807W        W79823  31.746  26.029   9.198  0.1544  0.3013 -0.1763
36808W        W79824   0.087  26.372   8.806 -0.3437  0.1139 -0.3590
36809W        W79825  17.746  13.055   1.683 -0.2093 -0.2054 -0.2043
36810W        W79826  25.868  25.911   0.318  0.0698  0.3059 -0.3410
36811W        W79827  32.084  10.166   6.379  0.0405 -0.1766  0.0116
36812W        W79828   9.775  28.480  25.642 -0.1523  0.0432 -0.1201
36813W        W79829  26.199  22.493  17.673  0.4118  0.2369 -0.1701
36814W        W79830  14.992  21.274   8.290  0.1208  0.0379  0.0622
36815W        W79831  28.072  21.061   0.625 -0.3065  0.1058 -0.0780
36816W        W79832  31.579  12.511  18.417 -0.3226  0.0573  0.1761
36817W        W79833  23.632  12.519   1.411  0.0260 -0.0119  0.0362
36818W        W79834   2.539   1.212  10.155  0.1761 -0.1151  0.0995
36819W        W79835   7.874   1.290   5.274  0.0516 -0.1866  0.0381
36820W        W79836  18.101  23.886   8.176  0.1478 -0.0892  0.3027
36821W        W79837   0.641  19.093   9.026  0.1925  0.0214 -0.2809
36822W        W79838  32.684  23.403   7.268  0.2574  0.2308  0.0778
36823W        W79839  25.333  19.936  23.600  0.2819  0.2367  0.1271
36824W        W79840  19.863  22.493  24.521  0.1385 -0.2051  0.0326
36825W        W79841  19.835  28.243   7.507  0.1594 -0.1127  0.4655
36826W        W79842  27.937  21.983  10.114  0.0178  0.0281 -0.1035
36827W        W79843  13.090  11.248   5.122 -0.3799  0.1955  0.0411
36828W        W79844   7.396  27.299   6.051  0.2437  0.3369 -0.0629
36829W        W79845  21.479  24.527   4.485 -0.3029 -0.2271  0.1075
36830W        W79846  25.462  12.546   5.425  0.0683 -0.4451 -0.1363
36831W        W79847  26.900  27.222   7.808 -0.2961 -0.0078 -0.0236
36832W        W79848  30.681   3.763   8.246  0.0701  0.1794  0.1368
36833W        W79849  17.189  16.440  13.175 -0.1748 -0.2367  0.1386
36834W        W79850  27.837  30.786   6.214  0.1251  0.0230 -0.2868
36835W        W79851  30.429  20.920   2.072  0.0020 -0.0306 -0.3008
36836W        W79852  18.452  15.659  23.739 -0.3284 -0.3336 -0.1665
36837W        W79853  34.144  21.746  23.857 -0.1819  0.0629  0.1386
36838W        W79854  23.447  29.335  10.672  0.0955  0.0570 -0.3007
36839W        W79855   1.898  25.274   3.888  0.0327 -0.1045  0.0578
36840W        W79856  30.068  15.972  21.346  0.1220  0.1405  0.0529
36841W        W79857   4.293  29.137   7.943 -0.2513 -0.3969  0.3634
36842W        W79858   5.267  15.635   2.274 -0.1299 -0.0968  0.2370
36843W        W79859  28.624  26.773  19.335  0.1987 -0.1546  0.1111
36844W        W79860   3.555  26.778   6.329  0.1553 -0.1170 -0.0687
36845W        W79861  21.548  24.823   9.928 -0.0305  0.1712 -0.2438
36846W        W79862   0.610  34.006   3.256 -0.0818  0.1241 -0.0255
36847W        W79863  32.324  12.169  25.979  0.1339  0.0605 -0.0697
36848W        W79864   0.968  11.212   0.444  0.2577 -0.2232 -0.0116
36849W        W79865  17.005   0.893   7.490 -0.0099  0.3607  0.1635
36850W        W79866  17.213   4.798   7.790 -0.3592 -0.1913  0.0266
36851W        W79867   2.231  28.173   8.164 -0.0064 -0.0248 -0.1755
36852W        W79868  27.291  29.948  24.450  0.1662 -0.1836 -0.0567
36853W        W79869  16.144  16.543   1.929 -0.1086 -0.1520  0.0788
36854W        W79870  19.786  19.150  27.887  0.0487 -0.5019 -0.1986
36855W        W79871   0.050  25.422  28.679  0.0504  0.0930 -0.0836
36856W        W79872  22.655   1.365   3.725 -0.2016  0.0845  0.1610
36857W        W79873  17.014   7.823  23.049 -0.3400  0.0916  0.1935
36858W        W79874  25.536  11.532  10.453 -0.0504  0.0692  0.1334
36859W        W79875  20.058  34.183  25.958 -0.1360  0.1527  0.3589
36860W        W79876   0.986   2.077  24.713  0.4320 -0.2463  0.2709
36861W        W79877  22.201  25.303  22.583 -0.1507  0.1491  0.1359
36862W        W79878  23.803  20.893   9.007  0.0562 -0.0058  0.0666
36863W        W79879  11.836  24.100   0.618 -0.1905  0.0325  0.1105
36864W        W79880  30.678  30.122   9.969 -0.0741 -0.0005 -0.2748
36865W        W79881  29.951  23.023   6.985 -0.1910 -0.1641  0.1649
36866W        W79882  30.998  30.461   2.213  0.2902 -0.3301  0.0430
36867W        W79883  21.546  29.979   2.108 -0.0575 -0.0977  0.1768
36868W        W79884  16.739  12.041   8.675  0.0891  0.3498 -0.2018
36869W        W79885  28.642  27.946  28.890 -0.1303  0.0051 -0.0183
36870W        W79886   3.967  20.861  27.634  0.1529  0.0612 -0.2089
36871W        W79887  18.359  23.050   6.031 -0.0251  0.1193 -0.0714
36872W        W79888  27.342  30.485   9.465  0.3163 -0.0783  0.0340
36873W        W79889  28.811  17.593   5.165  0.0064  0.1875  0.0258
36874W        W79890  19.273  24.356   8.616  0.0429  0.0926 -0.0006
36875W        W79891   7.397  25.168   4.901  0.0561  0.0451 -0.1303
36876W        W79892  33.291  17.941   0.629 -0.0681  0.2426 -0.1649
36877W        W79893  34.255  33.286   9.595 -0.0596 -0.2469  0.0396
36878W        W79894  15.373  28.721   1.619 -0.2161  0.4718  0.1365
36879W        W79895  21.311  15.272   9.052  0.3760  0.1359 -0.1543
36880W        W79896  25.396  25.782   5.080 -0.0926 -0.0488 -0.0084
36881W        W79897  24.657  20.534  10.041  0.1573  0.0020  0.0696
36882W        W79898  15.692  28.335   6.236  0.0863 -0.3249 -0.2870
36883W        W79899  33.727  24.031   1.644  0.0805 -0.0715  0.0424
36884W        W79900  15.940  17.334   5.095  0.2896  0.0508  0.4817
36885W        W79901  25.760   9.873  26.594 -0.2501  0.0204  0.1119
36886W        W79902  24.062  31.105   4.592  0.2646 -0.0193 -0.1508
36887W        W79903   4.413  32.973   6.896 -0.0004  0.0090 -0.0109
36888W        W79904   1.543  17.097  16.706  0.2444  0.1940  0.2657
36889W        W79905  27.740   4.525  28.136  0.4027  0.1129 -0.1865
36890W        W79906   0.057  15.337   6.479  0.0526 -0.1695 -0.1843
36891W        W79907  18.570  19.987  24.326  0.0594  0.0196 -0.3131
36892W        W79908   9.445   1.943   6.091  0.1209 -0.0456  0.0454
36893W        W79909   0.746  25.558  27.059  0.1320  0.3539  0.1877
36894W        W79910   2.930  20.968   6.432  0.1098 -0.0240  0.3260
36895W        W79911  22.632  17.135   9.100  0.1285  0.4539 -0.2703
36896W        W79912  15.085   0.663  25.283  0.0531 -0.0174  0.1424
36897W        W79913   4.874  29.602   4.278 -0.1451 -0.0393  0.1779
36898W        W79914   0.136  26.424  27.206 -0.0886  0.1599  0.1848
36899W        W79915  20.077  22.289   9.365  0.2108  0.2412 -0.1243
36900W        W79916  25.441  22.606   9.804  0.2260 -0.2818  0.2321
36901W        W79917  15.561  23.513   7.769 -0.1316  0.1501  0.1413
36902W        W79918  27.431  28.863   0.732  0.1547  0.0121  0.3242
36903W        W79919  29.151  24.091   2.806 -0.0625  0.3447  0.1885
36904W        W79920  29.676  33.305   6.008  0.1561  0.1742  0.0882
36905W        W79921   2.826   1.133  20.773  0.0228 -0.2186  0.1997
36906W        W79922   8.007  11.971   6.383 -0.1329  0.1325 -0.0853
36907W        W79923  28.778  12.999  21.348  0.0353  0.2056  0.0702
36908W        W79924   4.155  18.746   3.098  0.1144  0.0240 -0.0474
36909W        W79925  30.456  28.735   4.144 -0.3469 -0.1270  0.0585
36910W        W79926   3.520   6.692   1.909 -0.0003 -0.4686 -0.0585
36911W        W79927  14.154   0.782   4.654  0.0391  0.3172  0.2156
36912W        W79928   3.613  16.694   5.971  0.1864  0.1735  0.1988
36913W        W79929   4.233   2.291   4.694 -0.0440 -0.0012  0.0465
36914W        W79930  31.001  33.888   1.997 -0.2281  0.2005  0.3050
36915W        W79931  31.275   8.793   1.451  0.2009 -0.0232  0.0291
36916W        W79932  20.082  24.479  27.585  0.0654  0.0377 -0.2823
36917W        W79933  33.178  31.171   8.446 -0.0737 -0.1053  0.0050
36918W        W79934  24.644  18.705   6.579  0.1887 -0.0252  0.2480
36919W        W79935  24.317  18.393  28.717  0.2781 -0.2161  0.1474
36920W        W79936  25.888  20.739   1.416  0.0907  0.1162 -0.0552
36921W        W79937  19.501  18.326  27.749 -0.0776 -0.0033  0.0932
36922W        W79938   0.657  17.323   8.988  0.0526  0.1216 -0.0863
36923W        W79939  34.260   7.912   6.583 -0.0621 -0.0322  0.0121
36924W        W79940  27.363  20.502   2.298  0.2155  0.1779 -0.2108
36925W        W79941  32.248   9.741  27.937  0.3207 -0.3159  0.0372
36926W        W79942  30.814  15.538   9.976 -0.3611 -0.1565 -0.0944
36927W        W79943  25.527  18.780   4.767  0.0980  0.2475 -0.0952
36928W        W79944  11.840  26.664   0.258  0.0756  0.1765  0.0262
36929W        W79945  27.206   3.690   7.620 -0.0316  0.2936  0.0077
36930W        W79946   5.198   1.500  16.463 -0.0637  0.1799  0.1993
36931W        W79947  22.172  16.515   2.219  0.0254 -0.1630  0.0952
36932W        W79948  15.404  19.306  21.616  0.1640 -0.0189 -0.0105
36933W        W79949  15.314  18.606  24.264  0.2024 -0.3189  0.1900
36934W        W79950  23.221   7.876   9.381 -0.2465 -0.0368  0.2586
36935W        W79951  25.002  10.924   8.791 -0.3670  0.1273 -0.0335
36936W        W79952  23.138  15.948   9.216 -0.2311  0.1416  0.0440
36937W        W79953  19.122  27.906   9.329  0.1983 -0.0903 -0.1863
36938W        W79954  18.391  26.843   5.819  0.1941  0.2765  0.0949
36939W        W79955  15.251   6.968   8.758 -0.0303 -0.4163 -0.2917
36940W        W79956  14.845   5.630   8.627  0.3371 -0.0015 -0.1516
36941W        W79957  29.914  23.840  28.646  0.0870  0.0129  0.1776
36942W        W79958  15.396  16.941  19.772 -0.0837 -0.1501 -0.2995
36943W        W79959   0.827  26.234   8.685  0.1074 -0.0619 -0.1577
36944W        W79960  29.646   5.809   1.421 -0.0074  0.1735  0.2329
36945W        W79961  29.177  34.088   8.241  0.0961 -0.0958  0.0160
36946W        W79962  34.105   7.029   4.863  0.0469 -0.2260 -0.2567
36947W        W79963  30.226  28.801  27.038 -0.1000 -0.1077 -0.1517
36948W        W79964  21.966  29.814   9.333  0.2831  0.1052  0.1182
36949W        W79965  26.459  20.958  11.333  0.1405 -0.2017 -0.0926
36950W        W79966  23.254  22.042   7.499  0.1962 -0.1105 -0.0557
36951W        W79967  29.603  24.295   9.775  0.1243 -0.1431  0.1197
36952W        W79968  29.945  30.837   8.884 -0.1683 -0.0397 -0.1769
36953W        W79969  25.119  34.545  11.035 -0.1649  0.1693  0.1640
36954W        W79970  27.668  17.641   1.346 -0.0960 -0.0194 -0.0986
36955W        W79971  32.010   1.365   9.311  0.2668 -0.0376  0.1362
36956W        W79972  29.551  20.490   7.058  0.0070  0.0724  0.0766
36957W        W79973  10.334  21.556   1.581 -0.3132 -0.1894  0.0649
36958W        W79974  26.097  15.505  24.379  0.2430  0.2135  0.0201
36959W        W79975  22.445  23.686  27.315 -0.2008 -0.0364  0.0553
36960W        W79976  29.723   0.468   2.867 -0.2059  0.2062 -0.2485
36961W        W79977  31.605  11.357   3.654  0.1299  0.3177 -0.2593
36962W        W79978   8.906  25.202   8.271  0.4612  0.1229  0.1381
36963W        W79979  31.477  28.938  22.023 -0.0946  0.0792 -0.1532
36964W        W79980  17.929  32.968   9.140  0.2442  0.0841  0.3184
36965W        W79981  23.948   8.731  27.940  0.0728  0.0890 -0.0921
36966W        W79982  21.624  11.863   4.578 -0.1487 -0.2450 -0.2008
36967W        W79983  16.665  27.230   1.298 -0.1741  0.0850  0.0867
36968W        W79984  10.448   1.752   4.444  0.0663 -0.0099  0.0805
36969W        W79985  16.686  33.214   4.654 -0.0366 -0.1341 -0.0938
36970W        W79986  22.353  17.116  27.862  0.1119 -0.2604  0.1001
36971W        W79987  20.294  20.129  24.105 -0.2104  0.0043  0.0580
36972W        W79988  34.228  24.989  10.184  0.0414 -0.1846 -0.1522
36973W        W79989  16.752  31.521   4.570 -0.0404  0.1247 -0.1953
36974W        W79990  22.359  22.813  27.891  0.5148 -0.3421  0.1598
36975W        W79991  17.123  24.014  18.957 -0.0536 -0.2866 -0.2569
36976W        W79992  29.810  21.051  10.279 -0.1345 -0.2284  0.1372
36977W        W79993   6.688  11.441   5.751 -0.0360 -0.3004  0.2831
36978W        W79994  21.588  33.445  10.804 -0.0484  0.2119 -0.1048
36979W        W79995   1.380  27.607   8.009 -0.0610 -0.3325 -0.1903
36980W        W79996  27.773  23.733   6.987 -0.1512 -0.2230  0.0434
36981W        W79997  18.904  25.009  17.186 -0.2974  0.0534 -0.0166
36982W        W79998  19.714  19.258   1.595  0.0229  0.0513 -0.2127
36983W        W79999   1.688   8.263   7.101 -0.0275  0.0694 -0.1039
36984W        W80000  33.548  24.470  27.413 -0.1935 -0.2204 -0.2670
36985W        W80001  14.500   4.633   1.403 -0.2570  0.0242 -0.2294
36986W        W80002   0.378  21.683   7.768 -0.2324 -0.2439 -0.0377
36987W        W80003  24.479  26.537  11.067  0.0365 -0.0913  0.0758
36988W        W80004  29.950  13.439  26.539 -0.2843  0.2346  0.0969
36989W        W80005  10.177  27.044  23.216 -0.1997 -0.0158 -0.0124
36990W        W80006  18.689  19.083   7.182  0.0756 -0.3141 -0.1576
36991W        W80007  18.823  31.101  10.133  0.1737  0.1823 -0.2620
36992W        W80008  28.111  31.843   0.279  0.0622  0.2406 -0.1078
36993W        W80009  29.089  29.430   8.450 -0.0944  0.0913 -0.1086
36994W        W80010  28.963  11.063   7.968  0.2802  0.0121  0.0605
36995W        W80011   6.661  20.670   7.964 -0.0035  0.2053 -0.0098
36996W        W80012  17.592  21.244  26.009 -0.0707  0.2013  0.0431
36997W        W80013  15.697   6.278   2.602  0.1560 -0.3477 -0.1603
36998W        W80014  21.883   9.802   3.820  0.1783  0.2428  0.1156
36999W        W80015  15.742  21.303   2.688 -0.1819  0.1129 -0.2187
37000W        W80016  27.752  20.687   9.088  0.2555 -0.0761 -0.0775
37001W        W80017  22.730  33.018  11.255 -0.4441  0.2416 -0.1666
37002W        W80018   5.200   6.167  28.430 -0.3415  0.2121 -0.1260
37003W        W80019  27.396  20.253   9.259 -0.1044  0.0482  0.2209
37004W        W80020  11.682  20.364   8.042 -0.0451 -0.0375  0.1898
37005W        W80021  29.808   8.325   4.015 -0.0528 -0.0226 -0.3055
37006W        W80022  26.176  26.165   7.230  0.1728 -0.1738 -0.1488
37007W        W80023  17.149  27.862   9.826 -0.1038 -0.1474  0.2638
37008W        W80024   2.939  15.038   2.952 -0.1106 -0.0006  0.0922
37009W        W80025  27.013  33.515   9.343  0.0194 -0.0377  0.0189
37010W        W80026  16.271  19.178   2.876 -0.1446  0.1092 -0.0857
37011W        W80027  13.466  21.828   7.778 -0.0269 -0.1224 -0.2473
37012W        W80028  20.145  21.477   6.100 -0.1633 -0.2997  0.0911
37013W        W80029  15.606  12.179   1.539  0.0065 -0.0723 -0.0419
37014W        W80030  19.625  13.711   5.878 -0.2124 -0.0277  0.1818
37015W        W80031  16.152  15.436   6.122 -0.3639  0.2330  0.0047
37016W        W80032  31.806  29.648   6.443 -0.0995  0.1912 -0.0950
37017W        W80033  33.301  28.507  17.434 -0.3018  0.2501  0.2482
37018W        W80034  17.343  33.333   6.135 -0.0952  0.1119 -0.1418
37019W        W80035   0.758   8.257   8.887  0.1401  0.1082  0.0256
37020W        W80036   2.240  10.900   0.695  0.0889 -0.1386  0.1111
37021W        W80037   2.784  11.965  24.171 -0.3070  0.1207  0.1645
37022W        W80038   3.762   7.460  19.800 -0.1879  0.3704  0.0971
37023W        W80039  33.854   7.373   5.254  0.3028  0.3643  0.0805
37024W        W80040   8.382  22.984   8.675 -0.1901  0.1494  0.0750
37025W        W80041   4.631   2.338   7.173 -0.0615  0.0537 -0.1119
37026W        W80042  32.892  21.227  10.310  0.3669  0.1071 -0.0371
37027W        W80043  19.606  18.276  25.395  0.0475 -0.0587 -0.1479
37028W        W80044   6.301  30.328   7.841 -0.2978  0.1194 -0.0133
37029W        W80045  14.201  31.171   7.274  0.0214 -0.1717 -0.3226
37030W        W80046   3.452  19.400   7.355  0.0290  0.2942  0.0420
37031W        W80047   5.287  17.988   2.250 -0.1441  0.1967 -0.1607
37032W        W80048   4.746  23.797   3.995 -0.1608 -0.1710  0.1539
37033W        W80049  16.480  16.119  25.128  0.0354  0.1813 -0.0873
37034W        W80050  30.439  20.293   8.741 -0.2098 -0.3412 -0.2051
37035W        W80051   1.292  11.902   9.717 -0.0663  0.2860  0.0831
37036W        W80052  25.106  17.760  25.746  0.3066  0.3126 -0.2321
37037W        W80053  27.391  17.180  23.781 -0.0253 -0.0456  0.0408
37038W        W80054   6.663  32.121  21.874 -0.1873 -0.1985  0.0580
37039W        W80055  29.306  11.224  28.842  0.0215 -0.1759  0.1681
37040W        W80056   8.000  14.408  28.714  0.0555 -0.2355  0.1136
37041W        W80057  30.526  23.976  26.395 -0.0119 -0.1656  0.2847
37042W        W80058  23.614  16.493   0.092 -0.4588 -0.0428  0.0286
37043W        W80059  13.158  30.972   3.144  0.0594  0.3269 -0.1314
37044W        W80060  18.630  22.090  18.099 -0.1623 -0.0701  0.3996
37045W        W80061  10.720  27.199  10.401 -0.5722 -0.0611 -0.0300
37046W        W80062  34.524  19.951   3.700 -0.1188 -0.1928  0.0993
37047W        W80063   6.172  25.445   4.621 -0.0295 -0.1007  0.0525
37048W        W80064  26.013  15.786   8.721  0.0224 -0.2910  0.2088
37049W        W80065  29.121  12.811  21.783  0.0441 -0.2008 -0.0089
37050W        W80066  25.178  18.760   8.431 -0.0971  0.0735 -0.3732
37051W        W80067  30.970  24.741   3.936  0.1152  0.0665  0.0299
37052W        W80068  34.349  31.709  10.081  0.1243 -0.0639  0.0955
37053W        W80069  31.829  19.793   2.462  0.1882 -0.0483 -0.1463
37054W        W80070  28.717  22.030   4.854  0.1031 -0.0598 -0.1344
37055W        W80071  23.416  17.349  23.335 -0.0296  0.3452 -0.1827
37056W        W80072  21.570  17.906   8.250  0.2416  0.2354  0.3025
37057W        W80073  17.628   3.948  28.052 -0.0015 -0.0197 -0.1435
37058W        W80074  11.440  20.512   2.404  0.1785 -0.1721 -0.0397
37059W        W80075  31.225  26.111  26.166 -0.0406 -0.1205 -0.0287
37060W        W80076  26.357  10.325   5.511  0.0712  0.3488 -0.1617
37061W        W80077  16.457  15.166   7.912 -0.1094 -0.0237  0.1033
37062W        W80078  30.078  22.469   8.480 -0.1801 -0.0703 -0.3462
37063W        W80079  23.783  23.052   9.056 -0.0254 -0.0929 -0.0024
37064W        W80080  26.876  23.150   9.074 -0.0860  0.1101 -0.1604
37065W        W80081  21.976  25.430   6.387  0.1822 -0.3420  0.2399
37066W        W80082   3.558   3.365   2.332  0.1564 -0.0169 -0.1189
37067W        W80083  25.003  22.580  24.689  0.2133 -0.2057 -0.0833
37068W        W80084   4.683  11.403   6.373 -0.3394 -0.0579 -0.3266
37069W        W80085  32.337   4.116  24.709 -0.1108  0.3626  0.0673
37070W        W80086  11.761  27.299   4.122  0.0180 -0.2613  0.1009
37071W        W80087   6.149  22.963   6.105  0.0315 -0.0315 -0.1646
37072W        W80088  31.131  18.811  26.004 -0.1627  0.1057  0.0484
37073W        W80089  33.714  26.791   2.485 -0.0246  0.0923  0.4860
37074W        W80090  28.881  27.274   5.738 -0.0182  0.1804  0.1280
37075W        W80091  25.489  12.819   0.677 -0.5265 -0.2013  0.0532
37076W        W80092   4.347  33.655   4.078  0.0621 -0.4292 -0.4984
37077W        W80093   3.143  10.810  23.813 -0.0187  0.1344 -0.0097
37078W        W80094  27.138  25.487   0.231 -0.1364 -0.3559  0.0997
37079W        W80095  24.609  23.607   9.814  0.0170 -0.1475  0.0624
37080W        W80096  21.670  29.423   9.158  0.0842  0.0900 -0.0126
37081W        W80097  18.875   7.762  28.974 -0.2197 -0.1352  0.3743
37082W        W80098  25.863  31.710   5.459 -0.2899 -0.0175 -0.0364
37083W        W80099  33.316  26.594   9.060 -0.2961  0.2089  0.0550
37084W        W80100  28.568  30.451   4.233  0.3348  0.0989 -0.1143
37085W        W80101   2.019  19.210   3.513 -0.2214 -0.1856  0.0337
37086W        W80102  27.125  12.506   6.934  0.0202  0.2737  0.3048
37087W        W80103  26.752  29.147  10.918  0.0965  0.1625 -0.1710
37088W        W80104  17.124  15.370   6.491 -0.0387 -0.0943 -0.0176
37089W        W80105  22.376   4.766   0.664 -0.2104 -0.0129 -0.2568
37090W        W80106   5.391  25.768   2.282 -0.6084  0.2590  0.0245
37091W        W80107  33.343   8.725   9.900 -0.1531 -0.1689 -0.2411
37092W        W80108  30.722  20.182  10.173  0.1651 -0.0063  0.1558
37093W        W80109  34.487  23.146  28.495  0.2731  0.2305 -0.0621
37094W        W80110  10.316   2.736   7.283 -0.2168  0.3648 -0.2430
37095W        W80111  19.165   5.465  23.767  0.0232 -0.0379 -0.1088
37096W        W80112  31.515  12.246  27.855  0.2432  0.2764  0.3416
37097W        W80113  31.264  30.675   7.284  0.0259 -0.5616  0.3873
37098W        W80114  15.785  30.427   8.344  0.2248  0.1068  0.0176
37099W        W80115  24.272   1.132  28.563 -0.1677  0.1128  0.1461
37100W        W80116  28.726   7.301   5.465 -0.2025 -0.0119  0.3822
37101W        W80117  25.737   7.062  18.922  0.1568  0.0438 -0.0240
37102W        W80118  11.377  29.387   2.463 -0.3080 -0.0736  0.0974
37103W        W80119  17.462  27.100  24.575 -0.3830  0.0170  0.1240
37104W        W80120   4.143   2.299   8.493 -0.3200 -0.1705  0.1778
37105W        W80121  29.400  21.680  21.371 -0.3047  0.1235  0.0183
37106W        W80122  30.269  17.447  23.297 -0.0285 -0.0903 -0.0230
37107W        W80123  27.295  26.289   2.015  0.2415 -0.5135  0.0937
37108W        W80124  15.873  32.250   6.589  0.1108 -0.1411  0.1458
37109W        W80125  34.559  17.137  28.608  0.3896  0.2004  0.0598
37110W        W80126   6.916  23.309   3.465  0.2047 -0.0827  0.0097
37111W        W80127  31.873  30.980  23.566 -0.3944  0.1011  0.0377
37112W        W80128   2.964   7.115   4.617  0.1389 -0.1979 -0.0353
37113W        W80129  34.119   1.251  21.890 -0.0438  0.0969  0.1778
37114W        W80130  16.703   8.859  26.355 -0.0164  0.0007 -0.2867
37115W        W80131  31.535   1.407  28.218  0.2443  0.2107 -0.2865
37116W        W80132  28.339  26.473   7.289  0.3856 -0.0003 -0.0775
37117W        W80133  28.247  14.775   4.349 -0.0999 -0.2436 -0.0601
37118W        W80134   5.044  24.656   7.370  0.1215 -0.1495  0.0158
37119W        W80135  19.684   3.980   2.817 -0.2508 -0.1752  0.3235
37120W        W80136  24.130  34.593  23.553  0.0581 -0.1774  0.3673
37121W        W80137  24.852  18.886   1.580 -0.1274  0.0108  0.0803
37122W        W80138  24.631   5.989   4.608 -0.1476 -0.0013 -0.0828
37123W        W80139  30.251  16.372   8.557 -0.2453  0.1814  0.0511
37124W        W80140  21.567   5.334   9.345 -0.1617 -0.1075  0.1065
37125W        W80141   7.095  34.719   7.715 -0.0917 -0.0550 -0.4894
37126W        W80142   5.709  26.665   2.566  0.0505  0.0596 -0.0834
37127W        W80143  25.373  18.802   2.102  0.0963  0.1684  0.1216
37128W        W80144   7.341  27.161  29.122  0.0724 -0.2601 -0.0439
37129W        W80145  29.171  13.646  28.679 -0.1725  0.1643 -0.0465
37130W        W80146  23.335  30.698   5.077 -0.0092 -0.0220 -0.1452
37131W        W80147  16.866  22.422  21.979 -0.1331 -0.1173 -0.2046
37132W        W80148  22.982  30.101  23.384  0.2376  0.0318 -0.1363
37133W        W80149  21.379  10.265   6.166 -0.1437  0.0360  0.0120
37134W        W80150  30.842  19.055  26.961 -0.2491  0.0001  0.0059
37135W        W80151  16.207  33.854  10.781  0.2461  0.0304 -0.0200
37136W        W80152  27.954   2.069  26.682  0.1064 -0.0029 -0.0897
37137W        W80153  21.518  23.555   3.075 -0.1630 -0.0057  0.3774
37138W        W80154  14.632  19.889   6.061 -0.1890  0.0818  0.0542
37139W        W80155  33.700  19.542   4.691 -0.2196 -0.0189 -0.0540
37140W        W80156  33.113  19.300   2.694  0.1388 -0.1050  0.1132
37141W        W80157  20.876  19.325   8.960 -0.2063  0.1175  0.1295
37142W        W80158  20.827  13.437  24.208  0.2948  0.1844  0.2682
37143W        W80159  25.358  31.546  11.985  0.1743 -0.0641  0.0696
37144W        W80160  27.555  17.648   5.684  0.1683 -0.1555  0.2067
37145W        W80161  21.691  21.586   7.416  0.0780 -0.1158 -0.1792
37146W        W80162  26.719  22.798   9.966  0.1156 -0.4627  0.2614
37147W        W80163   9.877  24.868  26.608 -0.1960  0.0356  0.1486
37148W        W80164   4.047  20.763  23.501 -0.0180 -0.0119 -0.1815
37149W        W80165  25.642  21.897   5.657  0.3213 -0.0427 -0.3608
37150W        W80166  27.915  32.189  10.681  0.0604 -0.2259  0.1241
37151W        W80167  10.635  16.149  21.936  0.4214 -0.1474 -0.1197
37152W        W80168  17.250  21.653  27.872  0.0334  0.1314 -0.0810
37153W        W80169  29.150  24.320  22.035  0.2186  0.0219  0.0111
37154W        W80170  34.372  25.323  10.501  0.2575 -0.3315 -0.0548
37155W        W80171  20.045  15.142  19.924 -0.0127  0.1491 -0.1593
37156W        W80172  16.175   1.253   8.566 -0.1752  0.2891 -0.3419
37157W        W80173  33.689   1.480   6.956 -0.0585 -0.0570  0.1613
37158W        W80174  15.695  22.188  25.007  0.1475 -0.2352 -0.0041
37159W        W80175   5.883  26.855  26.895 -0.1088 -0.1124 -0.0343
37160W        W80176  14.507   9.139  29.303  0.0418  0.2810 -0.1464
37161W        W80177  30.654  23.931   3.068  0.1261 -0.1443  0.2490
37162W        W80178  21.869   9.731   7.780  0.1544 -0.1199 -0.0665
37163W        W80179  15.599  31.772   1.754  0.1053  0.4245 -0.1758
37164W        W80180  27.886  28.953   7.496  0.3906 -0.0352 -0.1239
37165W        W80181  27.109  18.951   8.508 -0.1246  0.0545 -0.1222
37166W        W80182  20.014  19.113  25.140  0.0204 -0.3009  0.0664
37167W        W80183  12.785  12.722  24.025  0.2146  0.0288  0.1459
37168W        W80184  26.377  26.912  10.016  0.1067  0.1036 -0.5180
37169W        W80185  23.279   0.957  10.194 -0.0805  0.2281  0.0414
37170W        W80186  29.023   9.650   4.721 -0.0990 -0.2306  0.0714
37171W        W80187  33.013  23.948   5.986  0.0460  0.3458 -0.0529
37172W        W80188   1.191  23.522   8.636 -0.0579  0.1742  0.3413
37173W        W80189  19.004  29.368   5.684 -0.1931 -0.0108 -0.3679
37174W        W80190   4.041  22.386   8.163 -0.0778 -0.0168  0.2666
37175W        W80191  11.054  11.937   9.414  0.0648  0.2864 -0.0429
37176W        W80192  21.928  14.138   1.779 -0.0249 -0.2514  0.0475
37177W        W80193  23.851  27.667  11.451 -0.1884  0.1030 -0.0481
37178W        W80194  30.607  28.329   1.960  0.0732  0.0072  0.0817
37179W        W80195  28.959  19.943  28.469  0.0663 -0.1061  0.0093
37180W        W80196  31.485  15.123   7.904 -0.0040 -0.0262 -0.1029
37181W        W80197  16.913  20.727   8.945  0.1892  0.3470 -0.0934
37182W        W80198   7.162  19.616   2.894  0.1050  0.1694 -0.0531
37183W        W80199  13.486   5.367   1.987  0.0217 -0.1065  0.3508
37184W        W80200  29.119  24.807   9.628 -0.0111 -0.3690  0.1874
37185W        W80201  25.595   8.037   8.430  0.0897  0.2121 -0.2357
37186W        W80202   1.068  24.393   3.575  0.0560  0.2479 -0.1318
37187W        W80203  23.944  10.378   6.042 -0.1189 -0.2103 -0.0054
37188W        W80204  17.167   9.380  23.192  0.0687 -0.1924 -0.0474
37189W        W80205   4.176  21.517   7.006 -0.0249 -0.0931 -0.0724
37190W        W80206  11.821  15.938   4.228 -0.1311 -0.0837  0.0917
37191W        W80207  16.393  15.831   4.759  0.4008 -0.2174 -0.0668
37192W        W80208  15.701  16.337  29.236  0.1777 -0.1316 -0.0351
37193W        W80209  16.957  30.782   3.794  0.0209 -0.2885  0.0743
37194W        W80210   5.194  24.083   9.792  0.1735  0.1856 -0.1104
37195W        W80211  28.535  21.273   8.735  0.0716  0.0775 -0.0204
37196W        W80212  31.338  25.071   8.618 -0.3408  0.0841  0.1098
37197W        W80213  22.350  25.116   7.637  0.0725  0.2759 -0.1456
37198W        W80214  25.478  24.144   7.507  0.0630  0.0336  0.0623
37199W        W80215   2.299   7.501  26.916 -0.0646  0.1034 -0.2465
37200W        W80216  31.580  22.375  10.516 -0.1155  0.0507  0.2027
37201W        W80217  15.727  25.231  24.396  0.0047  0.3446  0.0679
37202W        W80218  17.636  14.318   3.721 -0.2454 -0.2437 -0.0699
37203W        W80219  33.839  12.930  26.048  0.0238  0.1700 -0.0048
37204W        W80220  26.079  28.062   9.201  0.1784  0.0847  0.1201
37205W        W80221  16.772  24.403   8.999  0.1180 -0.0644 -0.2382
37206W        W80222  11.154  27.430  20.783 -0.2120 -0.0546 -0.1249
37207W        W80223  33.563  20.457  10.235  0.2123  0.0958 -0.3010
37208W        W80224  22.655  26.541   3.964 -0.1422  0.0328  0.1137
37209W        W80225   5.331   1.755   4.522  0.1985 -0.1763 -0.2435
37210W        W80226  13.774  14.618   8.648 -0.0547  0.0501  0.2050
37211W        W80227   7.332   9.017   2.106 -0.2777 -0.1294 -0.0433
37212W        W80228   0.586  22.852  10.191  0.0955 -0.2015 -0.3106
37213W        W80229   7.185  30.102   0.898 -0.3006 -0.3794 -0.0172
37214W        W80230   5.328  28.643   1.906  0.0733  0.2519  0.1155
37215W        W80231  26.615  25.054   4.550  0.0728  0.0077 -0.1989
37216W        W80232  25.753  28.137   7.766  0.1366 -0.0079 -0.1504
37217W        W80233  27.204  13.372  28.950  0.0609 -0.0981 -0.0776
37218W        W80234  28.427  15.019   7.864 -0.0418  0.2648 -0.2095
37219W        W80235  29.514  23.799   1.419  0.1566 -0.1397 -0.2609
37220W        W80236  11.280   8.930   8.445 -0.0820 -0.1649  0.1838
37221W        W80237  22.980  10.473   0.583 -0.0415 -0.1682 -0.3020
37222W        W80238  29.179  32.929   8.742 -0.1252 -0.0312  0.1037
37223W        W80239  19.770  16.372  28.908  0.0721  0.2329  0.2371
37224W        W80240  33.693  16.476   1.722 -0.0375 -0.4875  0.0726
37225W        W80241   7.645  22.052   5.530  0.1043  0.2059  0.2296
37226W        W80242  20.824   3.085   9.205  0.0800  0.1226  0.0555
37227W        W80243  26.880  13.943  26.220 -0.0281 -0.2636 -0.3357
37228W        W80244  15.906  17.790   8.291 -0.0134 -0.2940  0.1914
37229W        W80245  25.438   1.533   7.484  0.1678 -0.2075  0.1846
37230W        W80246  32.049  28.598   4.276 -0.0578 -0.0875 -0.0088
37231W        W80247  20.626  31.458   8.327 -0.0617  0.0684 -0.0966
37232W        W80248  31.740  20.261   2.541 -0.3413 -0.1255 -0.2959
37233W        W80249  23.720  31.568   5.747 -0.0926  0.3094 -0.1513
37234W        W80250  29.515   2.249   4.958 -0.1253 -0.1048  0.0680
37235W        W80251   1.028  13.033   9.574  0.0066  0.0367  0.2176
37236W        W80252  12.644  16.281   8.436  0.2147  0.1041  0.3778
37237W        W80253  26.240  21.078   8.522  0.0063 -0.2397 -0.0537
37238W        W80254   4.865   3.455   2.742 -0.2788  0.0450 -0.2240
37239W        W80255  23.493  19.534   8.500 -0.1760  0.1974  0.1924
37240W        W80256  22.525  15.219   3.783  0.1477  0.1119  0.1720
37241W        W80257  22.065  31.517   9.391  0.0266  0.0345 -0.0102
37242W        W80258   3.042  20.163  26.520  0.2881  0.2324  0.0564
37243W        W80259  10.164  12.792   9.566  0.0179 -0.1005 -0.1741
37244W        W80260  34.074  17.482   5.188 -0.0928  0.0438  0.3908
37245W        W80261  13.256   2.545   8.422 -0.0085 -0.1439  0.0348
37246W        W80262  25.115  27.290  10.976 -0.0299  0.0650 -0.3265
37247W        W80263  24.345   5.974   5.000  0.0159 -0.0739  0.0025
37248W        W80264   9.845  18.578  25.711  0.2195 -0.1804 -0.3259
37249W        W80265  34.400  11.195   1.758 -0.3795 -0.2914 -0.2553
37250W        W80266  29.734   0.133  22.269  0.0743 -0.1025  0.0329
37251W        W80267  27.595  22.297  23.545 -0.3593  0.1029  0.2614
37252W        W80268  22.122  16.305  26.092 -0.2336  0.0571  0.2984
37253W        W80269   2.523  14.591   5.089  0.0976 -0.0063  0.0359
37254W        W80270  14.303  18.980   2.497  0.0803 -0.0288  0.0257
37255W        W80271  22.671  15.914  20.975 -0.0403  0.0458  0.2108
37256W        W80272   6.907  30.382   9.060 -0.0268  0.1048  0.0177
37257W        W80273  12.155  29.654   9.781 -0.0872 -0.1257 -0.0803
37258W        W80274  21.489   3.595  18.323 -0.0009 -0.0723 -0.3176
37259W        W80275  11.229  16.691   7.157  0.0214 -0.1992 -0.1858
37260W        W80276  34.608  32.225   7.968 -0.0899  0.1333 -0.0958
37261W        W80277  27.524  18.905   9.423 -0.0354  0.1002  0.3424
37262W        W80278  24.072  17.637   6.181 -0.0470 -0.3469 -0.1580
37263W        W80279  21.201  24.865   0.621  0.0244  0.0598 -0.1704
37264W        W80280   5.977  13.722   4.291 -0.1866  0.0022  0.1604
37265W        W80281  21.527   9.265  24.743  0.2625  0.0292 -0.2484
37266W        W80282   2.482   6.475   9.247 -0.0535 -0.0559 -0.0125
37267W        W80283  13.876  20.177  24.439  0.2019  0.2058  0.1040
37268W        W80284   1.182  14.766   9.529 -0.1713 -0.1387 -0.0942
37269W        W80285  31.063  24.795  28.145 -0.0286  0.0653  0.2490
37270W        W80286   8.922  19.355   3.145  0.1965 -0.3695 -0.0367
37271W        W80287  26.487  33.579   8.377 -0.1205  0.0534 -0.1645
37272W        W80288  29.087  19.805  15.059  0.0435  0.0075 -0.0439
37273W        W80289  24.746  19.663   1.690 -0.0031 -0.0678  0.4339
37274W        W80290  12.485  26.754   5.618 -0.0047 -0.3718 -0.0866
37275W        W80291  13.552  12.011   1.985  0.2337  0.2486 -0.0214
37276W        W80292  22.534  17.920  27.403 -0.3758 -0.1406  0.0663
37277W        W80293  30.091  24.639  11.251 -0.1036  0.1418  0.0343
37278W        W80294  19.561  26.084   5.883 -0.0847  0.1581 -0.1919
37279W        W80295  31.504   7.200   4.937  0.0963  0.1927 -0.2076
37280W        W80296  14.731  28.235  14.661  0.5833  0.0663 -0.1551
37281W        W80297  27.999  22.764  27.483  0.3572 -0.1249  0.1398
37282W        W80298  17.563  20.209  24.527  0.1270 -0.2419 -0.1189
37283W        W80299   0.430  22.446  25.343 -0.1555 -0.1205  0.0999
37284W        W80300  20.788  17.669   1.768 -0.1282 -0.2082  0.0090
37285W        W80301   8.641  32.692   9.838 -0.0142  0.0019  0.0900
37286W        W80302  17.786  31.651   4.611 -0.2585  0.2799  0.1144
37287W        W80303  19.081  33.269   5.589 -0.4275 -0.2556 -0.0200
37288W        W80304  21.227   5.796   3.110 -0.1441  0.0326  0.0378
37289W        W80305   3.767  15.722   1.952  0.2224 -0.2171  0.1394
37290W        W80306   0.805  33.571   9.435  0.0422  0.1690  0.0680
37291W        W80307  26.734  16.093   7.473 -0.1577 -0.1613  0.1456
37292W        W80308  26.905  19.051  19.226 -0.2915  0.0124 -0.0900
37293W        W80309  29.626  11.216   9.802  0.0316 -0.0255 -0.1930
37294W        W80310  19.087  32.364   1.448  0.0984 -0.0061  0.2565
37295W        W80311   7.708  33.469   9.256  0.3055  0.2066 -0.2609
37296W        W80312  33.710  21.751  25.708  0.2165 -0.2186 -0.0524
37297W        W80313   1.150  21.590   4.613  0.2068 -0.1293  0.2566
37298W        W80314   5.929  27.658   0.206 -0.4064  0.1488  0.2907
37299W        W80315  17.311  21.758  28.743  0.2052 -0.3454 -0.2271
37300W        W80316  12.954   8.116   9.553 -0.2321  0.2803 -0.0024
37301W        W80317  23.709  25.267   2.206 -0.2518  0.1272 -0.3695
37302W        W80318   1.463  23.141  21.975  0.0021  0.0603  0.0634
37303W        W80319  19.168  28.344   2.910 -0.0726 -0.0470 -0.1264
37304W        W80320  29.677  27.011   7.289 -0.4035  0.0467 -0.1288
37305W        W80321   2.971  11.305   2.280 -0.1584  0.0939 -0.0690
37306W        W80322  22.238  25.720   0.574 -0.2236  0.0786 -0.0321
37307W        W80323  32.133  27.509   8.894 -0.3656 -0.0319  0.0731
37308W        W80324  33.304  26.063   1.220 -0.3560  0.1681 -0.0423
37309W        W80325  16.481  22.227   8.235 -0.1033 -0.1547 -0.0951
37310W        W80326  28.301  17.603   0.545  0.4850 -0.2878  0.0299
37311W        W80327  31.886  34.342   3.391 -0.1165 -0.0256  0.0140
37312W        W80328  27.109  17.261  25.048 -0.0268  0.1686  0.1360
37313W        W80329  30.161  27.283   0.237 -0.0592  0.1108  0.3399
37314W        W80330  25.401  16.646   8.379 -0.3177 -0.1157  0.2138
37315W        W80331  24.174  33.567  23.762 -0.0318 -0.1358  0.3093
37316W        W80332  17.306  19.639   7.732 -0.0593  0.0204  0.1175
37317W        W80333  26.655  26.913   8.722 -0.2615  0.2218  0.0946
37318W        W80334  32.192  21.990  25.833  0.0528  0.0903 -0.0694
37319W        W80335  18.519  26.290  26.888 -0.2371 -0.0896  0.3242
37320W        W80336  28.721   1.621   7.451 -0.0968  0.2087 -0.0744
37321W        W80337  30.289  26.550   6.104  0.2267  0.0760  0.1706
37322W        W80338  27.227   0.470   7.741  0.0405  0.2549  0.2436
37323W        W80339  27.749  31.097   1.438 -0.1005  0.3072  0.0077
37324W        W80340  25.824  18.546  24.215  0.4622  0.4596 -0.1259
37325W        W80341  29.222   0.584  22.137  0.1322  0.0169 -0.2296
37326W        W80342  26.285  21.109   6.155 -0.1587 -0.2031  0.0991
37327W        W80343  27.004  19.873   8.920 -0.0374 -0.1764 -0.0315
37328W        W80344  17.429  19.289   2.688  0.1854 -0.2841  0.2621
37329W        W80345  23.810   0.305  29.071  0.2457  0.0854  0.2934
37330W        W80346  12.075   9.672  23.643  0.0444 -0.0561 -0.1734
37331W        W80347  12.422   8.449   7.668  0.0880 -0.3015 -0.1370
37332W        W80348  17.711  17.028   8.801 -0.4041 -0.0323  0.0367
37333W        W80349   4.342   9.926  28.123  0.1266  0.0646  0.1386
37334W        W80350  28.771   8.874   1.038  0.1143 -0.0399 -0.0935
37335W        W80351  13.361  13.590   6.933  0.1261  0.0316 -0.0439
37336W        W80352  19.692   2.435  20.702  0.0554 -0.0967 -0.1124
37337W        W80353  26.738   8.248   8.153 -0.1322  0.1040  0.0234
37338W        W80354  21.870  16.836   1.017 -0.1262 -0.2064 -0.0168
37339W        W80355  33.117  20.277   2.564 -0.0784  0.2904 -0.1273
37340W        W80356  19.002  32.595   7.527 -0.0957  0.0804  0.0067
37341W        W80357   9.118  13.371  26.777  0.0512 -0.0701 -0.2842
37342W        W80358  10.526  17.720  14.899  0.1097 -0.1344  0.3850
37343W        W80359  11.536   6.254   0.663  0.1956 -0.1386  0.1655
37344W        W80360  33.729   4.604  29.052  0.3790  0.1289 -0.0385
37345W        W80361  32.619  17.738   9.020 -0.0709  0.0037 -0.1523
37346W        W80362  29.989  17.170   0.063  0.0093 -0.3213 -0.2600
37347W        W80363  25.332  22.762   1.686 -0.0335  0.1290  0.1209
37348W        W80364   7.740  33.037   5.132  0.1144 -0.1250  0.2129
37349W        W80365   7.284  14.496   3.447 -0.2220  0.0334 -0.2089
37350W        W80366  30.418  13.152  29.098  0.1043  0.2870 -0.1665
37351W        W80367  27.307  20.937  21.555 -0.0046 -0.0312 -0.0788
37352W        W80368  18.702  17.525   8.348 -0.0727 -0.3449  0.1701
37353W        W80369   0.197  18.850   8.983  0.3441 -0.0244  0.0072
37354W        W80370  26.859  31.318  10.548  0.0510 -0.1750 -0.1174
37355W        W80371  13.707  14.419   1.168 -0.1114 -0.1015 -0.1458
37356W        W80372   1.802  34.317   7.895 -0.0065 -0.2672 -0.0960
37357W        W80373  27.820  10.309  27.269  0.1169 -0.0551 -0.0017
37358W        W80374  32.933  29.178  19.358  0.5074  0.2746 -0.0172
37359W        W80375  11.597  21.896   8.342  0.1569  0.3008  0.0703
37360W        W80376  16.242  22.334  21.968 -0.5755 -0.0512 -0.3065
37361W        W80377  30.497  22.950   5.675  0.2032  0.2785 -0.2412
37362W        W80378  28.155  21.831   9.677  0.2189 -0.1569 -0.1906
37363W        W80379   0.385  16.603   6.817  0.1825 -0.0482  0.1629
37364W        W80380  26.199  17.761   8.832  0.1538  0.0274 -0.3478
37365W        W80381  34.074  11.760  22.138  0.0153  0.0966  0.4330
37366W        W80382  22.460  29.724   9.841 -0.2063 -0.1668 -0.1685
37367W        W80383  28.738  30.345   5.617  0.0601  0.0851 -0.1859
37368W        W80384  24.845  33.784   7.514  0.6266  0.0689 -0.0261
37369W        W80385  14.737  30.515   7.066 -0.0999 -0.0119  0.2293
37370W        W80386   9.716  25.912   9.249  0.0108 -0.0847 -0.0042
37371W        W80387  11.478  27.606   5.886  0.0248  0.0719  0.3848
37372W        W80388  26.038  21.819   3.005  0.0080 -0.0875 -0.0374
37373W        W80389  17.097  25.252   2.477  0.1241  0.1228 -0.1888
37374W        W80390  18.495  23.182   7.467  0.2555 -0.2551  0.3540
37375W        W80391   0.290  29.044  26.405 -0.1197  0.0300  0.1155
37376W        W80392   3.648  20.146   9.149  0.0491  0.1026 -0.2814
37377W        W80393   9.552  28.941   6.709  0.1783 -0.0434  0.0100
37378W        W80394  32.315  23.590  10.102 -0.0048 -0.1522 -0.0641
37379W        W80395   6.608  17.927   4.026 -0.1075  0.0013  0.4182
37380W        W80396  21.985  29.463  10.710 -0.1228 -0.0200 -0.1839
37381W        W80397  33.418   9.698  29.206  0.0681  0.2522  0.3002
37382W        W80398  22.257  16.257   5.656  0.0132  0.1617 -0.2154
37383W        W80399  24.156  34.043   1.106 -0.1137  0.0744  0.1359
37384W        W80400  32.330  22.252   4.789  0.2258 -0.0713  0.1590
37385W        W80401   8.394   4.431   9.772  0.0363 -0.1614  0.0252
37386W        W80402  30.188  12.578  26.159 -0.2558 -0.0930 -0.0143
37387W        W80403  16.401  23.401  25.632 -0.0657  0.3348  0.1263
37388W        W80404   8.728   6.895  25.334 -0.0010  0.0480  0.0104
37389W        W80405  25.690  29.775   5.301 -0.0735 -0.0707 -0.1658
37390W        W80406  25.008  21.439   9.679 -0.1846  0.1585 -0.1103
37391W        W80407  34.638  14.468   7.647 -0.1376 -0.0690 -0.1464
37392W        W80408  29.231  21.948   5.443  0.0017  0.3736 -0.1629
37393W        W80409  27.112  33.409   5.546  0.2464 -0.4430 -0.1769
37394W        W80410   3.878  28.262  28.741 -0.0653 -0.0129  0.2226
37395W        W80411  26.432  28.685   5.396  0.0777  0.2321 -0.5373
37396W        W80412  33.438  19.487  10.540  0.1894 -0.1933 -0.1156
37397W        W80413  28.405  28.598   8.490  0.1258 -0.2662  0.2123
37398W        W80414  18.650  14.928  23.053 -0.4003  0.0051  0.0124
37399W        W80415  22.175  27.112   2.504 -0.0161 -0.1522 -0.3139
37400W        W80416  22.312   8.583   4.607 -0.3552  0.2399  0.0401
37401W        W80417  11.713  31.344   5.653  0.0065 -0.0780 -0.5012
37402W        W80418  31.213  26.114   0.163  0.3908  0.0461 -0.0922
37403W        W80419  19.539  11.774   7.515 -0.1936 -0.1337 -0.2518
37404W        W80420  16.852  16.768  21.732  0.3277 -0.4786 -0.0428
37405W        W80421   4.286  17.551  27.461  0.0449 -0.0035 -0.1673
37406W        W80422  28.161  19.254   4.047  0.1429 -0.1290  0.0107
37407W        W80423   5.744  20.124  19.803 -0.2001  0.3071 -0.2616
37408W        W80424  26.653  26.056  10.085 -0.0167 -0.0594 -0.0332
37409W        W80425   7.004  30.542   2.328  0.4085 -0.0575 -0.1676
37410W        W80426  26.627  21.717  28.324 -0.0047 -0.0392  0.2392
37411W        W80427  33.553  21.243   9.142 -0.0327 -0.0838 -0.0198
37412W        W80428  22.407  20.694   0.249  0.0177  0.0688 -0.1852
37413W        W80429  31.234  26.832   6.992 -0.2280 -0.1500  0.2704
37414W        W80430  31.927  17.721   8.800 -0.1910 -0.2130  0.0330
37415W        W80431  28.133  12.247   2.813  0.3470  0.3589  0.1809
37416W        W80432  25.151  17.254  25.956 -0.2998 -0.2568 -0.1141
37417W        W80433   5.346  12.045  28.504  0.1328 -0.2613 -0.0524
37418W        W80434  20.507  33.188   7.382 -0.0808 -0.1354 -0.1577
37419W        W80435  26.782   4.530  10.925 -0.0962  0.1667  0.0029
37420W        W80436  17.502  17.500  20.896 -0.1244 -0.2034 -0.4332
37421W        W80437  20.718  16.868   1.681 -0.1817  0.0068  0.0069
37422W        W80438   4.518  32.338  10.212 -0.1806  0.2503  0.0187
37423W        W80439  13.610  21.191  19.686  0.0634 -0.1436 -0.1732
37424W        W80440  33.407  20.343   7.588 -0.2146 -0.0842 -0.1385
37425W        W80441  22.550  30.447   4.639  0.2551 -0.0247 -0.1543
37426W        W80442  20.457  13.145  24.839 -0.4308  0.0451 -0.2563
37427W        W80443  32.839   9.470   5.787 -0.0525  0.0320  0.1826
37428W        W80444  27.555  24.645   8.567  0.0626 -0.1127  0.0976
37429W        W80445  28.608  16.230   1.732  0.0032  0.4114 -0.2318
37430W        W80446  15.459  31.859   5.987 -0.0395 -0.1668 -0.0422
37431W        W80447  32.201  29.463   6.742 -0.0289 -0.0256  0.0606
37432W        W80448  23.668  13.128   5.537 -0.1695 -0.0912  0.6791
37433W        W80449  34.250  29.832   4.919 -0.1323  0.1196 -0.0058
37434W        W80450  26.597  12.226  26.243 -0.2852  0.1285  0.0334
37435W        W80451  14.325  29.472  27.773  0.1113  0.0727  0.0870
37436W        W80452  19.453  32.918  26.419  0.0307  0.2828  0.0042
37437W        W80453  24.201  18.947  26.057  0.0329 -0.1087  0.2616
37438W        W80454  20.306  29.887   4.693 -0.1326  0.0022 -0.2197
37439W        W80455  21.323  29.191   8.829 -0.2162 -0.0391  0.0942
37440W        W80456  25.227  11.435  27.384  0.0481  0.0388 -0.2010
37441W        W80457  17.578  28.537   6.408  0.0979  0.0993 -0.4012
37442W        W80458  28.719  29.319   8.112  0.2244 -0.0861 -0.0210
37443W        W80459  30.842  23.270   8.239  0.0437  0.1026  0.1916
37444W        W80460  25.018   0.880   6.401 -0.2860  0.1072  0.1846
37445W        W80461  10.531  18.308   5.952 -0.2289  0.0003  0.4169
37446W        W80462  25.442  28.144   2.480  0.1263 -0.0345 -0.0946
37447W        W80463   2.145  23.933   6.837 -0.0633  0.5178 -0.1315
37448W        W80464  17.483   9.381   6.046 -0.1108  0.2779  0.0054
37449W        W80465   4.414  11.828  27.999 -0.2178 -0.0962 -0.1230
37450W        W80466   8.637   0.328   6.988  0.1376 -0.4187 -0.1376
37451W        W80467  16.560  13.674   6.722 -0.3570  0.3427  0.0085
37452W        W80468  26.540  21.345  27.682  0.3670  0.0991 -0.1219
37453W        W80469   4.226  17.341   2.389 -0.2712  0.3769 -0.1600
37454W        W80470  30.982  20.638  10.810 -0.2850 -0.1581 -0.0412
37455W        W80471  16.869   1.876   5.338 -0.0266  0.3367  0.2031
37456W        W80472  31.580  28.561   9.281  0.1222 -0.1827  0.2026
37457W        W80473  23.346  28.219   7.071  0.0581  0.1636 -0.0254
37458W        W80474  26.135  24.774  29.171  0.0219  0.0783  0.1472
37459W        W80475  22.966  30.008   6.445 -0.0187 -0.2002  0.2088
37460W        W80476   3.849  27.540   0.868  0.0692 -0.1323  0.1751
37461W        W80477  27.931  20.468  16.034 -0.2571  0.2017  0.0790
37462W        W80478  29.708   6.407  27.156  0.1879 -0.0968 -0.0090
37463W        W80479   2.788  33.385  20.619  0.2777  0.3636  0.2162
37464W        W80480  22.955  22.726   5.939  0.0122 -0.2118  0.2779
37465W        W80481  32.882  33.574  11.047 -0.1486 -0.0625 -0.1256
37466W        W80482  24.389  29.698   4.526 -0.1464  0.1441 -0.1333
37467W        W80483   0.834  21.896   8.730  0.0008 -0.0334  0.0690
37468W        W80484  26.186  20.172  18.043 -0.0090  0.0994 -0.2964
37469W        W80485  21.614  28.495  22.628 -0.0800  0.0416  0.1225
37470W        W80486   9.775  33.055   5.861 -0.0398 -0.0359 -0.1717
37471W        W80487  33.263   4.537   2.255 -0.1418  0.2302 -0.1921
37472W        W80488  25.946  14.247   7.972 -0.0871 -0.2373 -0.0275
37473W        W80489  15.836  31.515   8.283 -0.1262  0.0533  0.3451
37474W        W80490  28.027  11.494   9.613 -0.0565 -0.1819 -0.2512
37475W        W80491  18.495  27.503   4.117 -0.2080 -0.3104  0.3155
37476W        W80492  20.709  33.710   2.798  0.0462  0.2337  0.0708
37477W        W80493  24.479  13.659  28.061 -0.3253 -0.2047 -0.0200
37478W        W80494  25.683   2.612   8.576  0.1544 -0.3170  0.3646
37479W        W80495  30.243  23.985  27.559 -0.2799 -0.1881 -0.2444
37480W        W80496   2.760  24.604  24.705 -0.1608 -0.3399 -0.2517
37481W        W80497   5.458  26.307   8.208 -0.1663  0.0934  0.2428
37482W        W80498  34.516  12.390  26.349 -0.2464 -0.2352 -0.3093
37483W        W80499  17.474   8.618   0.551  0.1209  0.2535 -0.1177
37484W        W80500   6.103  25.501   1.852  0.3357  0.1747  0.0282
37485W        W80501  19.488  25.265   2.012  0.0429  0.0720 -0.4185
37486W        W80502   8.317  23.538   8.533 -0.3180  0.0032 -0.1898
37487W        W80503   4.234  32.134   9.127 -0.1099  0.0046  0.3310
37488W        W80504  25.036  21.421  21.960 -0.1889  0.0227 -0.2497
37489W        W80505  20.077  34.255   4.518 -0.2221 -0.0858 -0.0899
37490W        W80506  21.063  33.496   1.144 -0.0485 -0.0748  0.1031
37491W        W80507  20.137  34.619   6.148 -0.0998  0.1058 -0.0003
37492W        W80508  31.179  14.711  26.202  0.1068 -0.1304  0.1152
37493W        W80509  23.911  28.291   5.864 -0.1869 -0.1613 -0.0206
37494W        W80510  20.667  25.772   5.822 -0.0168 -0.0287 -0.1097
37495W        W80511  20.769  26.824   8.360 -0.2631  0.2174  0.1015
37496W        W80512  16.028   6.495   3.066  0.0945 -0.0957 -0.2236
37497W        W80513  32.627  23.932   2.449  0.1069 -0.1666  0.0398
37498W        W80514  21.523  30.041   1.549  0.1670 -0.1458 -0.1567
37499W        W80515  20.543   0.139   3.745 -0.0832  0.0902 -0.4257
37500W        W80516  19.087  21.302   7.648  0.2847 -0.1436 -0.1776
37501W        W80517  26.104  23.141   9.355  0.3833 -0.3027 -0.2080
37502W        W80518  31.890  20.160  27.949 -0.0121 -0.1087 -0.1065
37503W        W80519  10.974  20.470  23.463  0.0199 -0.0339 -0.0718
37504W        W80520  26.299  32.437  19.187  0.0079 -0.2603 -0.6844
37505W        W80521  31.191   2.619   6.254 -0.1286 -0.0561  0.1831
37506W        W80522  19.195  31.024  23.709  0.2020 -0.0972  0.0041
37507W        W80523   5.282  16.332  24.035  0.1298 -0.3037  0.2882
37508W        W80524   4.009  25.534   9.237 -0.1356  0.3328 -0.0812
37509W        W80525  25.577   0.295   5.769 -0.1841 -0.1043 -0.1093
37510W        W80526  24.069  27.822   7.593 -0.1166 -0.0438  0.1571
37511W        W80527   8.080  20.008  29.047  0.0614 -0.1215  0.1036
37512W        W80528  24.037   1.168   0.548  0.5001 -0.3412 -0.1147
37513W        W80529  19.587  32.950   0.588 -0.0199 -0.0780 -0.2001
37514W        W80530  28.401   8.163   4.564  0.0501 -0.0007  0.1272
37515W        W80531  25.655   0.914  28.052 -0.3195  0.3429 -0.1592
37516W        W80532  25.623  28.284   6.474 -0.1555 -0.1065  0.2428
37517W        W80533  12.197  21.025  28.313  0.2070  0.2465  0.1253
37518W        W80534  18.240   7.006   1.627  0.2066  0.1043 -0.0955
37519W        W80535  24.932  27.269   9.526  0.1357  0.0468 -0.0188
37520W        W80536  21.889  21.253  27.696  0.3888 -0.2261 -0.3116
37521W        W80537  12.711  24.012   8.448  0.1531  0.1547 -0.0544
37522W        W80538   7.347  30.287   0.481  0.1694 -0.1399  0.1948
37523W        W80539  15.901  28.419  24.265 -0.2977  0.0684 -0.1961
37524W        W80540  11.946  10.514   5.067  0.1665 -0.0732  0.3140
37525W        W80541  33.136   5.145   6.953 -0.0943 -0.0348 -0.0407
37526W        W80542  24.483   8.622  26.843 -0.0548 -0.1205  0.1805
37527W        W80543   9.834  18.354  29.319 -0.2460  0.3342 -0.0208
37528W        W80544  26.571  29.677   9.472 -0.3153 -0.0493  0.2234
37529W        W80545  10.204  26.638   8.548  0.1190 -0.3141 -0.1192
37530W        W80546  27.080  32.400  26.073  0.1563  0.1584 -0.0117
37531W        W80547  13.349  32.507   9.048  0.1100  0.0678 -0.2506
37532W        W80548  13.594  15.052   3.667 -0.3018  0.1074 -0.0448
37533W        W80549   4.152   0.687  28.290 -0.2226  0.0750  0.2101
37534W        W80550  11.410  28.449   2.840  0.2001 -0.0076  0.0237
37535W        W80551   4.007  33.996  26.456  0.0641 -0.0409  0.1552
37536W        W80552  30.038  20.066  10.572 -0.2659  0.2611 -0.0285
37537W        W80553  11.478  16.170   6.882 -0.0055 -0.4630 -0.1303
37538W        W80554   7.649  29.786  22.028 -0.0424 -0.0380 -0.1087
37539W        W80555  17.673  15.100  28.824 -0.1161 -0.2999 -0.4305
37540W        W80556  27.634  26.581  22.066  0.2947 -0.1214  0.0072
37541W        W80557   3.912  31.103  21.987  0.1697 -0.0609 -0.2191
37542W        W80558   0.102  14.919  18.775  0.0846  0.3112  0.0886
37543W        W80559  19.724   0.120   6.097 -0.0873  0.0052 -0.0791
37544W        W80560  22.897  15.717  28.060 -0.1250  0.0357 -0.0018
37545W        W80561  24.214  29.171  29.217 -0.4298  0.2058  0.0436
37546W        W80562  30.399  16.368  28.028 -0.2734  0.0534 -0.0461
37547W        W80563  20.169   2.591   3.612 -0.1068  0.0479  0.1346
37548W        W80564   6.403  16.704  18.393  0.0369  0.2719  0.0184
37549W        W80565  34.528  34.562   3.197  0.1773 -0.0234 -0.5340
37550W        W80566   3.390  21.834   1.359  0.4918 -0.0604 -0.0022
37551W        W80567  32.957  29.930   9.039  0.0013  0.1170 -0.1644
37552W        W80568  20.076  22.002  28.658  0.0968 -0.1858 -0.1186
37553W        W80569   0.930  27.398   3.224  0.2821  0.0228 -0.1179
37554W        W80570  17.733  23.055   2.106 -0.2792 -0.3507 -0.1154
37555W        W80571  30.385  21.429  27.241  0.0362  0.2104 -0.2530
37556W        W80572  22.182  27.017  23.606 -0.1064 -0.2039  0.1350
37557W        W80573  26.560  19.239   6.336 -0.0060 -0.1029 -0.1738
37558W        W80574  19.871  17.199  26.024  0.5611  0.0591 -0.2397
37559W        W80575  13.535  22.700   2.593  0.2428 -0.1273  0.2040
37560W        W80576  28.434  32.890   9.996 -0.4533  0.0990 -0.1404
37561W        W80577  26.374  33.730  23.949  0.0729  0.0327  0.1179
37562W        W80578  25.323   7.138   8.530 -0.0890  0.1464 -0.3376
37563W        W80579  28.959  29.364  21.487 -0.1840  0.1525  0.0638
37564W        W80580  11.082  29.953   9.594  0.0233  0.1654  0.3954
37565W        W80581   3.691  31.836   9.290  0.1122 -0.1696  0.2930
37566W        W80582  25.223  25.145  23.033  0.1192 -0.1526 -0.0021
37567W        W80583   5.346   1.010   4.898  0.1689  0.0043  0.2296
37568W        W80584  26.512  31.893  28.850  0.1468 -0.2089  0.0215
37569W        W80585  29.636   9.106   5.280 -0.2090 -0.1797  0.0250
37570W        W80586  29.307  21.119  18.483 -0.0116 -0.0346  0.1535
37571W        W80587  22.147  16.432   0.993  0.2938  0.3037 -0.0108
37572W        W80588   1.843  32.664  22.849 -0.2589 -0.0126 -0.0982
37573W        W80589  20.555   2.060   1.469 -0.1384  0.0930 -0.1888
37574W        W80590  23.388   5.397   7.275 -0.0743  0.3207  0.0700
37575W        W80591   8.087  33.774   3.137  0.2771  0.0045 -0.0310
37576W        W80592  26.150  29.532   4.481  0.1459 -0.0907  0.3439
37577W        W80593  25.171   0.726  19.761 -0.0211  0.0203  0.0142
37578W        W80594  22.766  29.958   1.611  0.0016  0.3176  0.1092
37579W        W80595   7.729   2.860  21.269  0.0456  0.2107  0.0102
37580W        W80596   8.545  17.357   1.388 -0.0268  0.1803  0.1411
37581W        W80597  10.579  26.718   4.255  0.2138  0.2568 -0.1340
37582W        W80598  17.511  10.613  26.386  0.0475  0.1556  0.0446
37583W        W80599  22.882  15.659  17.955  0.3183 -0.2210 -0.0003
37584W        W80600   2.209  18.271  23.959  0.1025  0.0426 -0.0548
37585W        W80601  15.150   5.237  23.843  0.0233 -0.1403 -0.1747
37586W        W80602  22.832  32.747   1.708 -0.2610 -0.0853 -0.0753
37587W        W80603  21.125  19.284   3.409  0.1965  0.0947 -0.0259
37588W        W80604   9.247  32.300   0.523 -0.5132  0.0061 -0.1918
37589W        W80605  17.661  11.644   8.770 -0.0342  0.3351 -0.1367
37590W        W80606  23.244  17.993  22.784 -0.2160 -0.0175  0.0533
37591W        W80607  26.182   9.512   0.803  0.1928 -0.2420 -0.3595
37592W        W80608   0.936  23.434  27.765 -0.1687  0.0556 -0.1444
37593W        W80609  31.923  14.082   7.390  0.1301  0.5306 -0.3278
37594W        W80610  22.789   3.726  19.898  0.1009 -0.1878  0.0136
37595W        W80611  23.767  18.330   3.845  0.1085  0.1433  0.0761
37596W        W80612  17.587  33.173   4.379 -0.2214  0.2725  0.1643
37597W        W80613   6.304  15.252  17.327 -0.0297 -0.2740  0.2819
37598W        W80614  29.594   8.744   3.500 -0.4110  0.2420 -0.2453
37599W        W80615   6.552  24.852   7.370 -0.2195  0.1351  0.0619
37600W        W80616  14.116  30.677  10.507 -0.0816  0.1106  0.0331
37601W        W80617  24.261  32.040   3.516  0.2526  0.5065 -0.2962
37602W        W80618  29.702  16.704   1.952  0.0853  0.0469  0.6026
37603W        W80619  27.326  29.974  21.149  0.1685  0.1770  0.0538
37604W        W80620  29.788  29.272  23.514  0.3878  0.0796 -0.3778
37605W        W80621  13.474   3.495   9.035 -0.1667  0.0533 -0.0614
37606W        W80622  18.460  25.100   9.378  0.2524  0.0347  0.1883
37607W        W80623  33.816  28.151   8.502 -0.0378 -0.2417  0.0984
37608W        W80624   0.210  17.618   3.552 -0.0008 -0.0070  0.1259
37609W        W80625   3.830  23.128   6.009 -0.1205 -0.1114  0.1737
37610W        W80626   3.903   0.407   0.295  0.0676  0.0956 -0.1605
37611W        W80627  24.207  10.060  20.373 -0.2967 -0.1263  0.1327
37612W        W80628  20.565   2.594  28.995 -0.0609  0.0377 -0.1896
37613W        W80629  22.971  29.788   9.396  0.1069  0.2018  0.0611
37614W        W80630  31.560  28.531   8.342  0.2224 -0.4334  0.0878
37615W        W80631   0.908  28.967   4.147 -0.0476  0.0520  0.0665
37616W        W80632  20.052  33.312   4.683  0.0083  0.2156  0.1502
37617W        W80633   2.189   0.494   7.325 -0.4076  0.0620  0.1536
37618W        W80634  29.359   3.429   7.802  0.0986  0.1487 -0.2048
37619W        W80635   0.638  27.306   6.812 -0.0307 -0.1381 -0.3212
37620W        W80636  18.605  28.931  27.464 -0.0934 -0.2051 -0.0251
37621W        W80637  19.287  22.175   8.328  0.3042 -0.0048  0.2380
37622W        W80638  22.221  28.193   6.541  0.0063 -0.1863  0.2631
37623W        W80639  26.177  29.615   6.735  0.0653  0.2846  0.1294
37624W        W80640  24.202  25.838   8.724 -0.0165  0.1127 -0.3992
37625W        W80641  10.293   5.623   0.534 -0.3716  0.2068 -0.1340
37626W        W80642  24.860   1.053  15.665 -0.0008  0.1542 -0.0330
37627W        W80643  27.310  29.616   3.315 -0.3972 -0.0923 -0.1579
37628W        W80644  30.130  26.064   5.954 -0.0427  0.0479 -0.0737
37629W        W80645  30.543  31.832  19.924  0.3184 -0.1304  0.1818
37630W        W80646  28.031  15.200   5.783 -0.2164  0.5242 -0.0660
37631W        W80647  12.046  24.893  23.021  0.2587 -0.0667  0.1238
37632W        W80648   8.598  16.160   0.775  0.0035  0.0199  0.0392
37633W        W80649  31.770  27.495  20.082  0.1300  0.1602  0.3087
37634W        W80650  28.534   2.630   0.251  0.0434  0.2019 -0.1653
37635W        W80651   1.889  26.072   2.279 -0.1210  0.1068  0.1298
37636W        W80652  31.195  28.997   4.708  0.0895 -0.0960  0.1832
37637W        W80653  13.928   7.359   4.209 -0.0921  0.0259 -0.0142
37638W        W80654  24.493  19.036  24.010  0.2380 -0.0256 -0.2706
37639W        W80655  23.025  31.797  28.367  0.0246  0.1122  0.2901
37640W        W80656  31.039   7.745   9.549  0.1142 -0.0196 -0.1687
37641W        W80657  14.835  28.335   6.842  0.1189 -0.0140  0.3279
37642W        W80658   6.074  28.280   7.545 -0.0638 -0.0311 -0.0103
37643W        W80659  13.135  22.018   5.099 -0.0057  0.2707  0.0334
37644W        W80660   2.659  26.723  29.100 -0.1426 -0.3301  0.0641
37645W        W80661   2.869  18.105   3.277  0.1126  0.0397 -0.0576
37646W        W80662  18.831   2.181   4.663  0.2608 -0.3226 -0.2987
37647W        W80663   9.755   6.873   9.205  0.1356  0.0735 -0.1253
37648W        W80664  26.461  19.347  22.404 -0.3251  0.0101 -0.2037
37649W        W80665  17.126  24.309   2.364  0.0543 -0.0824  0.2883
37650W        W80666   1.362   8.749  21.527 -0.3189  0.2672 -0.1158
37651W        W80667   0.069  31.315  27.134  0.1071 -0.6067  0.0207
37652W        W80668  31.734  22.604   6.123 -0.1998  0.1364  0.0152
37653W        W80669  32.599  24.698   9.757  0.0837  0.0518 -0.0416
37654W        W80670   1.903   0.198   6.559 -0.2361  0.0619  0.2728
37655W        W80671  19.824  13.737  24.699 -0.0226 -0.0282 -0.3031
37656W        W80672  13.845  30.016   8.258 -0.1494 -0.0516 -0.0376
37657W        W80673  32.797   5.619  24.019  0.1912  0.1304 -0.1193
37658W        W80674  27.216   1.555  19.642 -0.2487 -0.1300  0.1351
37659W        W80675  13.751  12.862  22.582  0.4185  0.2863 -0.2429
37660W        W80676  14.563   4.660   6.273  0.0342  0.0612 -0.1076
37661W        W80677  26.911  21.155   6.019  0.3304  0.0757 -0.0324
37662W        W80678  32.954  26.789  28.005 -0.1310 -0.3426  0.0858
37663W        W80679  25.461  22.191   1.133  0.0280  0.3306  0.0820
37664W        W80680  30.867  29.482  28.395  0.0256  0.1958 -0.3311
37665W        W80681  15.074  19.999  19.350 -0.2077  0.1717 -0.0188
37666W        W80682  24.830   1.505   0.336  0.0381  0.0386 -0.0231
37667W        W80683  21.983  11.172   9.844  0.0982  0.1494  0.2259
37668W        W80684  25.077  29.293  28.531  0.3783  0.0160 -0.2577
37669W        W80685   8.248   0.877   7.597  0.0317 -0.2854  0.1676
37670W        W80686  30.748  22.247   5.986 -0.1256 -0.0956  0.1800
37671W        W80687   0.457  28.607  16.210  0.0424  0.0775 -0.2850
37672W        W80688  16.438  25.648  27.751  0.0422  0.0457 -0.2624
37673W        W80689  23.804  14.483  18.152 -0.2253  0.0322  0.1832
37674W        W80690  18.707  18.075   0.844  0.0601 -0.1907  0.3624
37675W        W80691  27.507  10.446   8.642 -0.1204 -0.0747 -0.0153
37676W        W80692   0.810  13.292  24.023 -0.0049  0.1522 -0.1320
37677W        W80693  30.027  26.135  10.908 -0.1535 -0.0427  0.2328
37678W        W80694  26.582  24.950  29.016  0.0254  0.4949 -0.1869
37679W        W80695   4.010  26.507  29.202  0.1582 -0.1305 -0.3714
37680W        W80696   7.038  31.000   2.639  0.1623 -0.0293  0.3763
37681W        W80697   0.806  30.487  25.396  0.1484 -0.1024  0.0077
37682W        W80698  18.228   2.201   7.840  0.2075 -0.0278  0.2292
37683W        W80699  10.554  28.855   8.900 -0.1190 -0.3668 -0.1830
37684W        W80700  20.203  26.944   7.273 -0.1325  0.2580  0.3512
37685W        W80701  30.130  25.159  27.998  0.0103  0.3696 -0.0115
37686W        W80702  28.950  19.459  28.467 -0.2454  0.1922  0.0497
37687W        W80703  27.116  20.073   1.962 -0.3183  0.0798  0.2570
37688W        W80704   0.957  21.782  26.929  0.0183  0.0032 -0.2322
37689W        W80705  27.368  19.031  28.956 -0.0368 -0.0320  0.1804
37690W        W80706   6.039  25.218   5.089 -0.1099 -0.1920 -0.0799
37691W        W80707   4.317  30.356  20.933  0.3036  0.2056 -0.0022
37692W        W80708  26.716  27.843  24.437 -0.0516 -0.3135 -0.1442
37693W        W80709  26.007  28.118  10.445  0.0102 -0.4752 -0.0103
37694W        W80710   7.523  33.397   3.994  0.1349  0.0749 -0.0433
37695W        W80711  23.471  14.539  23.801 -0.1060 -0.0516  0.1183
37696W        W80712  33.081  17.075  28.998 -0.0319 -0.0994 -0.1964
37697W        W80713   3.924  18.795  29.185 -0.3651 -0.2000 -0.0723
37698W        W80714  25.047  12.321   7.504  0.1003  0.1156  0.1012
37699W        W80715  32.781  19.260   4.409  0.1615  0.0723  0.0275
37700W        W80716  34.563  20.527  23.125  0.1438  0.3406 -0.0156
37701W        W80717  13.124   5.161  28.698  0.0035 -0.0220  0.0071
37702W        W80718  24.808  24.174   0.113  0.2547 -0.0171 -0.0607
37703W        W80719  17.129   4.629   5.492  0.3891  0.4181 -0.1319
37704W        W80720  33.176  32.745   2.200 -0.0572  0.2080  0.0102
37705W        W80721  25.076  24.744  28.068 -0.1051 -0.1455 -0.1154
37706W        W80722  31.379  26.590   1.559  0.2037 -0.0422  0.2996
37707W        W80723  22.364  32.085   2.552 -0.1967  0.0661 -0.0898
37708W        W80724  20.674  13.307  23.728  0.0678  0.1823 -0.0311
37709W        W80725  14.714  26.760   5.568  0.0248 -0.1427 -0.1221
37710W        W80726  26.367  25.465   1.006  0.2159  0.1376 -0.1457
37711W        W80727   1.075  23.862  28.558 -0.0047  0.3995  0.1058
37712W        W80728  20.023   5.180   4.251  0.4384  0.0139 -0.1830
37713W        W80729   3.044  24.593   0.765  0.1990 -0.0783  0.1526
37714W        W80730  30.692  30.236   7.102  0.0351 -0.2217  0.2602
37715W        W80731  30.241  27.518  19.621 -0.1877  0.1391  0.0205
37716W        W80732  33.316   0.374   4.164  0.1416  0.0463 -0.0848
37717W        W80733  16.130   4.983  21.791  0.0499  0.4580 -0.0328
37718W        W80734  33.200  23.782   3.704  0.1802 -0.0951  0.3016
37719W        W80735  12.457   4.532   2.753 -0.1112 -0.0715  0.2629
37720W        W80736  24.069  16.356   0.168  0.1810  0.0540 -0.0931
37721W        W80737  24.623  28.432   7.266  0.3687 -0.1577  0.0535
37722W        W80738  18.213   1.920  29.046 -0.1482  0.0080  0.0852
37723W        W80739  20.615  10.472   6.196 -0.0270 -0.2147  0.2694
37724W        W80740   1.560  15.931   7.268  0.1820  0.1118 -0.0144
37725W        W80741  19.086  25.185  27.492  0.1495  0.0211  0.0408
37726W        W80742  16.275  13.376  27.694 -0.0779 -0.0118 -0.0689
37727W        W80743   0.002  32.123  25.574 -0.1584  0.0667 -0.0448
37728W        W80744  26.796  12.411   9.568  0.0176  0.0533  0.0639
37729W        W80745   0.794  26.993   4.304 -0.1075  0.3055  0.0567
37730W        W80746  29.264  27.406   4.326 -0.5777 -0.4244 -0.0733
37731W        W80747   2.771   7.634  24.514  0.0542 -0.1394  0.1629
37732W        W80748  27.056  31.524  27.154  0.0563  0.0526 -0.2636
37733W        W80749  27.472  31.725  11.318 -0.1640  0.0253  0.4289
37734W        W80750  27.120  10.803  10.459 -0.0607 -0.1131 -0.2018
37735W        W80751  17.970  25.871   5.725 -0.0475  0.1144 -0.2548
37736W        W80752  13.452   0.806  14.398  0.0149  0.3430  0.2400
37737W        W80753  32.709  29.033   1.439  0.1518  0.1176 -0.0048
37738W        W80754  26.552  33.968  20.656  0.1875 -0.0046  0.1772
37739W        W80755  15.711  20.439  23.182 -0.3345 -0.1018 -0.1517
37740W        W80756  22.623  26.067   1.389 -0.1598  0.1657  0.1423
37741W        W80757  22.373  28.293   2.866 -0.0883  0.2900  0.1908
37742W        W80758   3.305  24.612   5.348  0.0496 -0.0556  0.0841
37743W        W80759  19.259   1.434  27.181  0.4470  0.0918 -0.1704
37744W        W80760  25.267  19.509   3.529  0.2484  0.1253  0.1027
37745W        W80761  26.961  31.720   3.601 -0.0445  0.1301  0.0820
37746W        W80762  22.764  28.620   5.806  0.2380  0.0402 -0.1347
37747W        W80763   3.285  33.460  10.328  0.0505 -0.2486 -0.1759
37748W        W80764  28.024  17.255  10.645 -0.1442  0.1629  0.0116
37749W        W80765  27.564   4.115  26.497  0.1266  0.0685  0.0568
37750W        W80766   2.234  24.645  23.269 -0.1336 -0.0146 -0.0233
37751W        W80767  31.584   3.502  25.945  0.1405  0.2309  0.3463
37752W        W80768  22.300  30.825  11.088  0.3108 -0.0011 -0.1430
37753W        W80769  16.114  27.934  28.889 -0.1834 -0.0620  0.0794
37754W        W80770  19.731   5.190   9.337 -0.0968 -0.2098 -0.1986
37755W        W80771  29.299  25.678  17.770 -0.1062 -0.1339  0.0044
37756W        W80772  20.926   5.682   6.319 -0.3184 -0.1461  0.1743
37757W        W80773  26.020   1.211  24.912  0.1060  0.1336  0.0249
37758W        W80774  13.956  23.455  16.919  0.1133 -0.1104  0.1046
37759W        W80775  30.143  15.672   6.843 -0.1058  0.1634  0.0358
37760W        W80776  13.646  28.177   8.591 -0.1740 -0.1747  0.1008
37761W        W80777   1.873  12.085  25.190 -0.2171 -0.1630 -0.0293
37762W        W80778  19.468   1.969   6.999 -0.0998  0.2110  0.1371
37763W        W80779  10.531   0.987  19.527 -0.1960 -0.4057 -0.1645
37764W        W80780  20.164  28.317  26.737  0.2690 -0.2622 -0.1192
37765W        W80781  14.948   0.369   2.697 -0.0310  0.1510  0.0290
37766W        W80782  22.448  17.950   5.901 -0.1441 -0.4424  0.1893
37767W        W80783  26.930  22.156  20.608 -0.2061 -0.0759 -0.0279
37768W        W80784  21.113  25.137   5.325 -0.2164  0.1206 -0.1883
37769W        W80785  19.658   2.746  24.300  0.0538 -0.2364  0.1310
37770W        W80786   4.853  20.586   8.014  0.1919  0.0357  0.1870
37771W        W80787  22.636  21.022   2.899 -0.8206 -0.1352  0.1167
37772W        W80788  29.208  30.322  27.409 -0.0879  0.3447 -0.3023
37773W        W80789  25.713  24.912   8.488  0.0532  0.1692  0.0741
37774W        W80790  32.283  31.963   0.548 -0.0631  0.2053  0.3511
37775W        W80791  20.017  26.209   6.196 -0.0511  0.2798 -0.1061
37776W        W80792  23.336   0.751   0.502  0.2098 -0.2702 -0.0709
37777W        W80793  29.785  30.901   1.074  0.3023  0.0629  0.4196
37778W        W80794  16.095   2.213  27.843 -0.1434 -0.0641  0.1798
37779W        W80795  18.878  31.925   6.699 -0.0458 -0.0255 -0.0488
37780W        W80796  26.590  29.242   9.921 -0.1299 -0.2169  0.1394
37781W        W80797  25.362  31.460   0.831 -0.0641  0.0799  0.1556
37782W        W80798  33.759  30.222   0.683  0.0990  0.1771  0.1736
37783W        W80799   4.424   4.144   7.161  0.1168  0.2920  0.2519
37784W        W80800  11.948   8.434   8.544 -0.0134 -0.2205  0.1745
37785W        W80801   0.177  27.118   4.879  0.0105 -0.2315 -0.1139
37786W        W80802  28.633  16.807   4.691  0.0051  0.0985  0.2014
37787W        W80803  27.110  19.623   6.449  0.0629  0.0193 -0.2762
37788W        W80804   7.298  11.400  24.509  0.0724  0.1606  0.1169
37789W        W80805  22.371   2.072   6.331  0.4968  0.1256 -0.3268
37790W        W80806  31.494  19.791  22.581  0.2166  0.0651  0.2834
37791W        W80807  26.704  22.396  24.805 -0.0650  0.1709 -0.1015
37792W        W80808  20.399  24.182   8.814  0.2635  0.1200 -0.2454
37793W        W80809  33.009  24.119  28.627 -0.3094  0.0818 -0.0196
37794W        W80810  25.002  25.055  24.081 -0.1987 -0.2770  0.0061
37795W        W80811  22.528  29.832  23.243  0.4090 -0.1976 -0.1422
37796W        W80812  23.544  19.855   6.579  0.2618 -0.0072  0.2758
37797W        W80813  23.133  34.187   0.593  0.0980 -0.0144 -0.2857
37798W        W80814  34.624  31.185  19.665  0.1297 -0.0013 -0.3422
37799W        W80815  16.259  33.766   1.761 -0.1080 -0.0493  0.0465
37800W        W80816  22.107  30.654   5.684  0.3111  0.1849  0.2770
37801W        W80817  18.210  31.134   2.701  0.0679 -0.1385 -0.0805
37802W        W80818  33.910   1.677  10.114  0.0837 -0.0012 -0.0129
37803W        W80819   1.368  19.816   8.689 -0.0277  0.3311 -0.1625
37804W        W80820  25.273   3.889   5.786 -0.2623  0.2360 -0.0429
37805W        W80821  27.125  32.007   4.177 -0.2607  0.4134 -0.0240
37806W        W80822  21.330  15.570  25.505 -0.0434  0.1444 -0.5056
37807W        W80823  30.339  33.874  22.723 -0.0932 -0.2266  0.0416
37808W        W80824  25.518  18.994  23.934  0.0972  0.3319  0.0012
37809W        W80825  17.428  34.198  21.767  0.0544  0.0401 -0.3232
37810W        W80826  13.504  33.724  23.316  0.1578  0.1338 -0.0994
37811W        W80827  26.672   0.760   4.499  0.6153  0.1920 -0.0021
37812W        W80828   4.009   8.437  24.046  0.0969 -0.1223 -0.0745
37813W        W80829  24.228  24.721   5.184 -0.1192  0.1166  0.1713
37814W        W80830  34.392  22.987   6.580 -0.4958  0.0620  0.3919
37815W        W80831  31.249  27.255   8.440 -0.0736  0.0464 -0.3231
37816W        W80832  19.551  12.025  27.137  0.2364  0.3563  0.0386
37817W        W80833  20.405  31.672  10.915 -0.0300  0.2708  0.0690
37818W        W80834  20.078  22.540  20.178 -0.1232 -0.3164 -0.0203
37819W        W80835  20.068   3.061  24.801 -0.0041 -0.0417 -0.4500
37820W        W80836  31.758  25.451  11.087 -0.1184 -0.2212  0.0714
37821W        W80837   3.132  27.354  27.795 -0.0871 -0.0239  0.1583
37822W        W80838  32.459   6.530   9.617 -0.1079 -0.0408  0.0859
37823W        W80839  12.429  24.051   4.701 -0.0766 -0.0872  0.1725
37824W        W80840  15.833  21.260  27.512  0.4219 -0.2735  0.0576
37825W        W80841  15.761  23.994  16.973 -0.2181  0.2594 -0.0084
37826W        W80842  29.205  19.099  20.370  0.0064 -0.1285 -0.0534
37827W        W80843  32.992  30.561  20.953  0.4288  0.0185  0.2457
37828W        W80844  30.437  19.835   1.933  0.1897 -0.3534  0.0493
37829W        W80845  28.304  29.688  18.062  0.2693 -0.1905  0.0680
37830W        W80846  27.971  25.182   1.290  0.1582 -0.0462  0.2406
37831W        W80847   8.029  19.875  17.652  0.1343  0.0960 -0.0340
37832W        W80848   1.250  30.368   1.930  0.3118 -0.0024 -0.2211
37833W        W80849  28.709  28.232  11.559 -0.2187  0.0542 -0.1857
37834W        W80850  33.304  31.029  18.980 -0.2871  0.0786  0.0742
37835W        W80851  34.610  25.799   0.566 -0.0282  0.0222 -0.3775
37836W        W80852  25.421  15.621   1.754 -0.3287 -0.0304 -0.0864
37837W        W80853  34.159  29.672   2.340  0.0052  0.1453  0.0709
37838W        W80854  28.589  27.310   1.037 -0.3119 -0.1607  0.0005
37839W        W80855  22.416  24.104   1.810 -0.0001 -0.0304 -0.1320
37840W        W80856  19.918   3.900  27.226 -0.1348  0.1738 -0.2022
37841W        W80857   7.801   4.356  27.313 -0.2368  0.0997 -0.0744
37842W        W80858   3.240  10.908   9.111  0.3694  0.0074  0.0700
37843W        W80859  29.801  17.330   8.281 -0.1722 -0.2686  0.1125
37844W        W80860  13.636   2.314  22.271  0.1393 -0.2213 -0.2731
37845W        W80861  13.488  12.649   0.827  0.0140 -0.1345 -0.2078
37846W        W80862  22.235  20.120   1.325  0.4296 -0.1412 -0.1468
37847W        W80863  22.600  28.611   3.297  0.1218 -0.1504 -0.0023
37848W        W80864  32.170  26.287  26.580 -0.1432  0.3281 -0.0711
37849W        W80865   4.215  30.703  26.873 -0.1128  0.0260  0.3686
37850W        W80866   3.484  22.768   5.224 -0.2344 -0.3010  0.0894
37851W        W80867  19.326  21.103   3.365 -0.1153  0.2795  0.0514
37852W        W80868  12.432  33.568  19.235  0.0185  0.2466 -0.0387
37853W        W80869  16.850  17.158  15.115 -0.1162 -0.2471  0.2097
37854W        W80870  28.967   3.555   1.453  0.0779 -0.1060  0.0229
37855W        W80871  16.983   2.091   2.421 -0.1658 -0.0223  0.6909
37856W        W80872  26.959  14.921  24.052  0.0409  0.2557 -0.1661
37857W        W80873  20.600  19.461  24.785 -0.0511  0.1374  0.2191
37858W        W80874  28.013   5.950   2.942  0.2168 -0.0170 -0.4679
37859W        W80875   0.296  32.982   2.569 -0.0886 -0.2172  0.0760
37860W        W80876  22.460  33.104   7.846  0.0876  0.2549  0.0717
37861W        W80877  22.573  34.450  25.890 -0.0147 -0.0049  0.0757
37862W        W80878  29.903  29.129  11.125  0.2346 -0.1783 -0.1349
37863W        W80879  26.606  26.397  16.831 -0.0097  0.0331  0.1495
37864W        W80880  23.957   0.266   0.259  0.1704 -0.0024  0.0116
37865W        W80881   4.703  15.891   0.641  0.0375 -0.1510 -0.1655
37866W        W80882  33.283   9.569   7.050 -0.0280  0.3212  0.0856
37867W        W80883  14.795  23.191  18.336  0.3304 -0.0446 -0.1662
37868W        W80884   0.779  21.033   1.243  0.2118 -0.1365  0.0085
37869W        W80885   3.840   6.263   0.909 -0.0480 -0.0146 -0.0865
37870W        W80886   2.985  26.705   4.657 -0.3070 -0.2372 -0.1519
37871W        W80887  33.663  16.138   6.355  0.1845  0.3179  0.3111
37872W        W80888  27.637  22.192   7.043 -0.0978  0.0087  0.3820
37873W        W80889  32.084  33.503   3.006 -0.3383 -0.0517 -0.0833
37874W        W80890  30.631  14.741   9.989 -0.0175  0.0349  0.4060
37875W        W80891  24.092  33.464   9.711  0.0501 -0.4500 -0.0308
37876W        W80892  12.287   3.497   8.573 -0.1340  0.1059 -0.2238
37877W        W80893  22.261  18.999   6.848 -0.1390  0.0509 -0.0495
37878W        W80894  30.045  24.415   9.599 -0.3463  0.0635  0.0133
37879W        W80895  26.108  28.184   6.418  0.0055  0.2056  0.1366
37880W        W80896  11.335  13.457   0.081  0.2598 -0.3352 -0.3040
37881W        W80897   2.452  33.757  27.506 -0.2288 -0.0543 -0.0897
37882W        W80898  25.402   1.483   6.009  0.3120  0.0233 -0.1580
37883W        W80899  25.654   9.165   4.393 -0.1461 -0.0698 -0.2551
37884W        W80900  24.252  16.127  15.667  0.0066 -0.3721  0.1040
37885W        W80901  30.422   0.407   9.024 -0.0093 -0.1170  0.1816
37886W        W80902  19.075  27.674  21.665 -0.0049  0.1703  0.1213
37887W        W80903  14.318  27.436  27.273  0.0909  0.1794 -0.1725
37888W        W80904  22.702  28.558   8.852 -0.0316  0.1922 -0.0771
37889W        W80905  14.401   4.149   5.908  0.3226  0.0534 -0.0279
37890W        W80906  21.268   2.203   5.973 -0.2683  0.2507  0.1495
37891W        W80907  28.002  30.166   3.580  0.1555  0.0579 -0.2445
37892W        W80908  30.096  34.670   5.085  0.1981 -0.1482 -0.0178
37893W        W80909   0.353   8.984  22.510 -0.2119 -0.2496 -0.3158
37894W        W80910  19.531  30.496   7.242 -0.0307 -0.1187  0.0487
37895W        W80911  25.499   5.398   6.803  0.1639  0.2662  0.0733
37896W        W80912   0.852  33.915   8.904 -0.1958  0.2002 -0.0197
37897W        W80913  20.816  24.099   1.915 -0.2560  0.0931  0.2445
37898W        W80914  20.485   2.402   1.909 -0.1549  0.3558 -0.0692
37899W        W80915  31.089  21.983  10.425 -0.0919 -0.0707 -0.1040
37900W        W80916  15.239  31.150   7.997 -0.1902  0.3960 -0.1525
37901W        W80917  30.713  30.950  11.036  0.1345  0.0609 -0.2003
37902W        W80918  10.264  21.535  27.955 -0.2667  0.5695  0.1239
37903W        W80919   7.260  12.130  29.283 -0.0592 -0.1406  0.1637
37904W        W80920  15.906  29.515  15.245  0.1410  0.0040  0.0088
37905W        W80921  13.543  18.267   3.616 -0.0298  0.1511 -0.3263
37906W        W80922  33.247   3.633   3.585 -0.0842 -0.1680  0.0955
37907W        W80923  18.497   3.262   2.941 -0.0125  0.1819 -0.3358
37908W        W80924  23.378  16.549   9.258  0.0291 -0.2837 -0.1694
37909W        W80925  14.930  20.189   1.359 -0.0038  0.0732 -0.1368
37910W        W80926  13.478  22.972   3.098 -0.1147  0.0166 -0.1215
37911W        W80927  34.531  28.170   8.331  0.0759 -0.0100  0.2732
37912W        W80928  26.030  28.526   6.751  0.1202  0.1877  0.4138
37913W        W80929   7.360  34.024   3.785  0.2163 -0.3429 -0.1919
37914W        W80930  28.385   7.383   3.289  0.0435  0.2198  0.2355
37915W        W80931  21.392  19.730   4.244  0.3107 -0.1269  0.0883
37916W        W80932   4.673  21.860   7.134 -0.0462  0.2427  0.1542
37917W        W80933  25.080  16.752  26.340 -0.1355 -0.0045  0.2110
37918W        W80934  14.829  19.869   7.722  0.0098 -0.2955 -0.3591
37919W        W80935  19.137  12.691  22.813  0.1237  0.3066 -0.1662
37920W        W80936  19.577   1.233  10.551  0.0933 -0.2405 -0.0787
37921W        W80937   3.775  29.638  27.129  0.0226 -0.0036 -0.1264
37922W        W80938  18.013  21.818  26.536 -0.2585  0.0803 -0.1726
37923W        W80939   3.732   3.049   1.377 -0.1970 -0.2792  0.1488
37924W        W80940  20.525  10.070   4.750  0.0636  0.1585 -0.2197
37925W        W80941  33.191  33.052   9.155 -0.3064 -0.0720 -0.3644
37926W        W80942  17.061  32.275   9.937 -0.0647  0.0771  0.1269
37927W        W80943  24.935  20.390   3.067 -0.2366  0.2555 -0.2703
37928W        W80944   5.675  23.545   3.862  0.2597  0.4002 -0.0486
37929W        W80945  30.809  17.557   0.390  0.2186  0.4295  0.0153
37930W        W80946  13.032  23.768   7.488  0.2631  0.0195 -0.0882
37931W        W80947   2.903  23.987   6.721  0.0262  0.0042  0.3141
37932W        W80948   0.549  21.038   4.629  0.1675 -0.0618  0.3747
37933W        W80949   8.285  10.531  28.247 -0.2094  0.4408  0.0753
37934W        W80950  13.423  22.637   6.301  0.0007  0.1936 -0.1022
37935W        W80951  18.476  10.346   7.703  0.1050  0.0317 -0.1792
37936W        W80952  12.811   9.151  26.156  0.3755  0.2383  0.1432
37937W        W80953  33.270   2.822   8.262  0.2211 -0.2481 -0.0858
37938W        W80954  17.746  19.448  26.859 -0.1943 -0.2662 -0.0335
37939W        W80955  11.608  23.929   8.603 -0.2235 -0.1460  0.0205
37940W        W80956  17.159   2.856   5.810 -0.1755  0.0474 -0.2508
37941W        W80957   8.538  34.729   5.816 -0.1063  0.0440 -0.1621
37942W        W80958  32.978  20.940   5.351  0.1704 -0.1152  0.1567
37943W        W80959   7.509  30.916   2.446  0.2025  0.0094  0.2116
37944W        W80960  23.152  29.171   8.178 -0.0494 -0.2495 -0.3912
37945W        W80961  12.778  12.179   5.518  0.0617  0.3011  0.2840
37946W        W80962  22.565  14.769   0.160 -0.0893  0.1904 -0.3072
37947W        W80963  30.056  17.466   4.366 -0.2539 -0.1464 -0.0673
37948W        W80964  29.642  21.244  26.592  0.1776 -0.0421 -0.0936
37949W        W80965  18.008  33.432   3.932  0.1027 -0.4634 -0.2983
37950W        W80966  27.672  16.397   1.413 -0.0313  0.0140 -0.3817
37951W        W80967   7.271  18.988  28.768  0.1094  0.0432 -0.2132
37952W        W80968   1.405  10.735   7.194 -0.3698  0.1613  0.1847
37953W        W80969  10.377  24.875   7.942 -0.0220  0.0440 -0.1080
37954W        W80970  11.915  17.245  18.641 -0.2078 -0.0597 -0.1231
37955W        W80971  29.665  18.353   5.343 -0.3620 -0.1010  0.0784
37956W        W80972   8.910  34.027   4.977  0.1061  0.4107 -0.0470
37957W        W80973  22.763  10.160   7.109 -0.0456  0.1025  0.0532
37958W        W80974  15.240  17.023  23.100 -0.0885 -0.0110  0.0004
37959W        W80975  25.704  28.591  22.354 -0.0978  0.0344 -0.3361
37960W        W80976  19.160  16.547  28.814 -0.0503  0.2553  0.2609
37961W        W80977  19.821  27.870  22.441  0.0631  0.5168  0.3037
37962W        W80978  18.076  21.557  20.973  0.2889  0.1375  0.0054
37963W        W80979  32.219  23.817   0.906  0.2037  0.3967 -0.3550
37964W        W80980  24.564   5.772  29.178 -0.2735  0.3099 -0.1689
37965W        W80981   5.462  32.571  22.919  0.1061  0.1227 -0.2786
37966W        W80982  31.190   6.173  10.187 -0.1130  0.1351  0.2527
37967W        W80983  28.515  22.504   5.114  0.0497  0.2459 -0.0489
37968W        W80984  29.869  34.654  10.793 -0.4689 -0.1801  0.2020
37969W        W80985  34.335   5.323  26.214 -0.4042 -0.2254  0.1171
37970W        W80986   4.731  23.648  23.270  0.1800 -0.1123  0.4921
37971W        W80987  11.774   0.769  10.010  0.0618 -0.1773  0.0260
37972W        W80988   4.178  31.232  26.960  0.4540  0.0164 -0.0564
37973W        W80989  17.655  23.494  23.838 -0.1139  0.1780  0.1271
37974W        W80990  16.451  11.047   3.958  0.2716 -0.1182 -0.0887
37975W        W80991  28.192  13.111   8.962 -0.1409  0.0482  0.1562
37976W        W80992  32.146  16.390   7.595  0.2046 -0.0712 -0.0514
37977W        W80993  31.672  30.076  26.284  0.0281 -0.1990 -0.1143
37978W        W80994   8.554   0.444   9.127  0.0502  0.3661 -0.1497
37979W        W80995  23.805  21.470  25.466  0.1843 -0.4979  0.1058
37980W        W80996   0.592  16.819   3.426  0.1778  0.0502 -0.0813
37981W        W80997  22.815  31.843  22.121 -0.1932  0.1693 -0.0169
37982W        W80998  33.433  11.942   0.194  0.0924  0.0444  0.3314
37983W        W80999  25.992  31.072   7.087 -0.2086 -0.1376 -0.0589
37984W        W81000  30.640  31.593  10.885  0.0206  0.0432  0.1488
37985W        W81001  33.606  18.100   3.893 -0.1513 -0.2043  0.1505
37986W        W81002  31.295  24.288  14.738 -0.2620  0.2675  0.0881
37987W        W81003  28.509  26.736  28.680 -0.3021  0.1023  0.0700
37988W        W81004  29.430  17.754   4.324 -0.1580 -0.5545 -0.1497
37989W        W81005  18.088  32.225   0.842  0.1201  0.1461  0.1537
37990W        W81006  26.693  33.648  20.252 -0.0316 -0.0970  0.2057
37991W        W81007   5.185  21.478   9.171 -0.0999 -0.0445 -0.1260
37992W        W81008  24.898   1.005  10.713 -0.2452 -0.3012  0.1177
37993W        W81009  25.640  26.709   6.355  0.1959  0.1250 -0.3164
37994W        W81010  17.218  20.689   3.191 -0.0692 -0.0666  0.0647
37995W        W81011   3.809  23.652  21.269 -0.2227  0.3863  0.1259
37996W        W81012  19.360  16.788  20.554 -0.1581 -0.0247 -0.2408
37997W        W81013  23.950  23.246   2.949  0.0569 -0.0469 -0.0279
37998W        W81014   1.561  30.593   4.545  0.0214  0.1043  0.0607
37999W        W81015  25.006  31.140  10.018  0.0114  0.0114  0.4744
38000W        W81016  28.755  29.898   2.947 -0.0716  0.0710 -0.4164
38001W        W81017  34.502  30.146   3.488  0.4751 -0.0272 -0.0715
38002W        W81018  22.822  25.202  28.536 -0.0482  0.1670  0.1523
38003W        W81019  30.678   5.695   2.839 -0.1001  0.2368 -0.0429
38004W        W81020  14.839  17.494  19.144  0.1100  0.0903  0.1225
38005W        W81021   0.940   3.299   1.126 -0.2211 -0.3367 -0.0455
38006W        W81022  17.874  22.183   9.097 -0.0497  0.3099  0.0867
38007W        W81023  29.218   1.275   6.485 -0.1016  0.0276 -0.3212
38008W        W81024  33.978  24.912   5.665 -0.0981  0.1356 -0.2196
38009W        W81025  32.903   0.608  10.945 -0.1467 -0.0285 -0.2268
38010W        W81026   8.357   9.119  27.560 -0.0567  0.1759 -0.1898
38011W        W81027   0.878  15.625  28.630 -0.0596 -0.0329  0.1775
38012W        W81028  18.675   6.398  17.512 -0.1446  0.0401  0.0655
38013W        W81029  32.412  19.874   7.576  0.0818 -0.1037  0.1498
38014W        W81030  22.421  31.757   6.310 -0.2422 -0.0794  0.0816
38015W        W81031  27.292  22.621  28.406 -0.1081 -0.2790 -0.2703
38016W        W81032  25.241  26.735  11.159  0.1602 -0.2780 -0.1653
38017W        W81033  23.323  29.460   5.185  0.1422  0.0070 -0.2548
38018W        W81034  17.237  30.856   2.017 -0.0069  0.2145 -0.1330
38019W        W81035  16.577  23.628  24.499  0.0550  0.0189 -0.2930
38020W        W81036  24.857  30.002   8.884  0.4388 -0.0120 -0.0875
38021W        W81037  14.940  34.652  27.232  0.1476  0.1208 -0.2669
38022W        W81038  31.155  23.897   2.636 -0.1782  0.2253  0.3397
38023W        W81039  22.092   0.672  24.212 -0.0437  0.3065 -0.0839
38024W        W81040  26.352  17.499   5.338 -0.1216  0.2533 -0.0387
38025W        W81041  34.053  30.010   7.402  0.0161  0.2166 -0.0231
38026W        W81042  16.561  20.326  26.027  0.2180 -0.2208  0.3997
38027W        W81043   5.396   1.981   3.106 -0.3166 -0.1575 -0.1069
38028W        W81044  32.983  19.425   7.857 -0.1652 -0.2866 -0.0849
38029W        W81045  21.299  21.530   8.516  0.1753 -0.1185  0.2705
38030W        W81046  19.346  31.838   1.603  0.1344 -0.1763 -0.0295
38031W        W81047  15.044  28.351   9.107  0.1091  0.1579  0.1236
38032W        W81048  24.950   9.522   8.295  0.0481  0.0856  0.1006
38033W        W81049  21.838  22.949  28.594 -0.1956  0.1798 -0.3850
38034W        W81050  25.394  20.541  28.190  0.0769  0.0670  0.1104
38035W        W81051  24.313   3.327   2.893 -0.0830  0.1089 -0.0573
38036W        W81052  31.721   2.634  17.553 -0.3192 -0.2694 -0.1047
38037W        W81053   4.276  27.031   9.054 -0.2072 -0.2029  0.0703
38038W        W81054  24.598  21.956   8.046 -0.1379  0.0167 -0.0513
38039W        W81055  17.577   6.238   4.613  0.1702 -0.0434 -0.0710
38040W        W81056  24.909  26.509   2.285 -0.0927  0.0582  0.0809
38041W        W81057  24.954  22.719   6.385 -0.0270 -0.1528 -0.2060
38042W        W81058  29.586  10.487   1.489  0.0842  0.3486 -0.0279
38043W        W81059  30.388  10.268  24.038 -0.0459  0.3050 -0.1069
38044W        W81060  27.924   6.303  23.422  0.2575 -0.2763 -0.1354
38045W        W81061  22.763  23.122  29.106 -0.0151  0.0513  0.0686
38046W        W81062  33.792  11.546  28.453  0.0459  0.0960 -0.0734
38047W        W81063   6.112  12.321  22.180 -0.2204  0.2750  0.0940
38048W        W81064   9.968  13.899   6.973 -0.2166  0.2066 -0.0964
38049W        W81065  17.529   8.678  19.560 -0.0394 -0.3135 -0.0428
38050W        W81066  34.413   2.523   6.286  0.0577  0.3455 -0.4455
38051W        W81067  15.425  29.433   0.207  0.2528 -0.1664 -0.2051
38052W        W81068  17.847  29.742   7.859 -0.0686 -0.0430  0.0379
38053W        W81069  15.456  29.459   6.469 -0.0529 -0.3075 -0.0310
38054W        W81070  32.009  12.103   7.074 -0.1318 -0.0460  0.0642
38055W        W81071  12.053  10.939   3.893 -0.1183  0.1288 -0.2883
38056W        W81072  21.966  34.153   7.906 -0.0446 -0.2641  0.0393
38057W        W81073  31.580  23.557   8.028 -0.3188 -0.1478  0.1687
38058W        W81074  19.251  20.756  25.309 -0.0403  0.0936  0.0593
38059W        W81075   9.062  34.215   4.576  0.3167  0.5317  0.1653
38060W        W81076  31.864   0.619  10.967  0.0327 -0.0919  0.2650
38061W        W81077  11.890  24.207   8.932 -0.1859 -0.1340  0.0084
38062W        W81078  22.335  33.366   6.571  0.0084 -0.1695 -0.0146
38063W        W81079  31.470   2.595  27.682 -0.1162  0.0610 -0.3140
38064W        W81080  11.333   5.820  18.842  0.1135 -0.0029 -0.0068
38065W        W81081   5.087   6.423   7.878  0.1832 -0.4687 -0.0371
38066W        W81082  32.262  30.468   5.389 -0.1023  0.2138  0.0769
38067W        W81083   5.830   0.105   0.736 -0.0315  0.0128 -0.2522
38068W        W81084  14.042   9.451   3.417 -0.4511 -0.2821  0.0007
38069W        W81085  22.358  18.555   8.525 -0.2673  0.0093  0.1160
38070W        W81086  15.480  23.845   4.649 -0.1738  0.1181  0.0426
38071W        W81087  23.090   0.556  11.430 -0.1462  0.0750  0.0035
38072W        W81088  19.607  19.417   2.565  0.0052  0.2572 -0.1183
38073W        W81089  13.748   8.535   4.352  0.2617 -0.0772 -0.1785
38074W        W81090  24.518  32.836   3.053  0.0363 -0.0608 -0.3059
38075W        W81091  30.073   0.528   2.502 -0.0180 -0.1554  0.0245
38076W        W81092  26.201  10.987  20.618 -0.2850  0.4487 -0.2728
38077W        W81093   2.209  27.948   9.364 -0.0533 -0.2827  0.0852
38078W        W81094  16.244  14.968   3.845 -0.2244 -0.0188 -0.1911
38079W        W81095   1.363  25.945   8.160  0.1733 -0.0334  0.0358
38080W        W81096  33.314  17.554   2.967 -0.2446  0.3679  0.4542
38081W        W81097  23.000  13.376   4.735  0.1663  0.3326 -0.1982
38082W        W81098   0.208   7.399   6.654 -0.0850 -0.0303  0.0579
38083W        W81099  27.769  23.701  11.040 -0.2113 -0.0637 -0.0222
38084W        W81100  28.076  23.556   3.544  0.0528  0.1643 -0.2405
38085W        W81101  18.412  30.819  10.455 -0.0683  0.1877  0.0811
38086W        W81102  32.275  14.501  19.472 -0.3449  0.1600 -0.0028
38087W        W81103   3.518  22.421   1.309  0.1510  0.2564 -0.0193
38088W        W81104  11.359  22.228  15.906  0.0083 -0.1816  0.0309
38089W        W81105  33.933  17.516   4.662 -0.0970  0.0169  0.2689
38090W        W81106   0.268   9.352   1.972  0.0178  0.2161  0.2627
38091W        W81107   2.419  26.897  25.986 -0.1329 -0.0562  0.5149
38092W        W81108  30.280  33.362   2.193  0.0407 -0.1598  0.1775
38093W        W81109  26.226   0.228  11.426  0.2551 -0.0599 -0.1072
38094W        W81110  29.891  16.263   2.864 -0.3430 -0.0874  0.3469
38095W        W81111   4.488  17.569   5.347  0.2423  0.5928 -0.2812
38096W        W81112   4.113  23.307  22.573  0.0368 -0.2630 -0.1270
38097W        W81113  26.319  12.384  28.554  0.0146 -0.1378 -0.3664
38098W        W81114  12.478  19.849   8.429  0.0224  0.0659  0.0625
38099W        W81115  28.160  34.428   7.650  0.3063  0.2380 -0.0213
38100W        W81116  26.763  12.495  23.715  0.0028  0.0048 -0.2239
38101W        W81117  23.928  29.197   4.386  0.1837 -0.1158 -0.0445
38102W        W81118   5.151  14.453  28.566 -0.2603  0.1522 -0.1108
38103W        W81119  14.856  31.332   7.593  0.1370 -0.1516 -0.2314
38104W        W81120  19.601   3.589   8.895 -0.1475  0.3348 -0.2219
38105W        W81121   8.263  25.325  23.500  0.0627  0.1657  0.0451
38106W        W81122  26.676   3.328   4.990  0.6080  0.3474 -0.0369
38107W        W81123  19.278  18.557   7.717  0.1960  0.3165 -0.1228
38108W        W81124  16.209  28.248  26.862 -0.2174  0.0289 -0.1678
38109W        W81125  25.394  20.124  27.363  0.0418  0.2110 -0.2646
38110W        W81126  12.157   6.143  27.566  0.1323 -0.0888 -0.0684
38111W        W81127  19.884   0.280   3.228  0.1227  0.0124  0.1058
38112W        W81128  21.186  23.729   1.918 -0.2368 -0.0965  0.2841
38113W        W81129  26.769  12.910  10.436 -0.1212  0.2010 -0.0658
38114W        W81130  30.062  31.626   2.171  0.2065 -0.4525  0.0091
38115W        W81131   4.792  27.723   8.963 -0.3153  0.0695 -0.0760
38116W        W81132  31.988  28.416  27.073 -0.0515  0.0965  0.2414
38117W        W81133  23.251  31.741   3.361 -0.0699 -0.1370 -0.0080
38118W        W81134  33.790  23.259   8.937 -0.2970 -0.0394  0.1670
38119W        W81135  30.847  33.395   8.733  0.1412  0.1301  0.1522
38120W        W81136  32.379  26.660   5.689  0.1506  0.2819 -0.1348
38121W        W81137  15.864  16.852   1.048  0.0441  0.0678  0.3564
38122W        W81138  17.158  30.661   5.503 -0.1507 -0.0291 -0.1304
38123W        W81139  23.916  13.815   7.805  0.3369 -0.1077 -0.1220
38124W        W81140  24.281  23.151   6.142  0.1569  0.4361  0.0030
38125W        W81141  27.594  19.927  22.596  0.2193 -0.0841  0.1366
38126W        W81142  25.357  21.111   0.532 -0.2370  0.4810  0.0391
38127W        W81143  17.896  22.312  21.806 -0.2172  0.1736  0.3892
38128W        W81144  33.174  25.141   8.094 -0.1165 -0.2796 -0.1350
38129W        W81145  25.324   1.925   8.735 -0.2670 -0.1628 -0.0738
38130W        W81146  22.135  24.682  10.405 -0.1783 -0.2289 -0.1471
38131W        W81147  27.228  29.407  10.885  0.1284 -0.0745 -0.0343
38132W        W81148  23.679  32.024   5.447  0.0843 -0.0447 -0.1985
38133W        W81149  20.304  33.089   6.497  0.4001 -0.1141  0.0417
38134W        W81150  19.409  32.537  22.824  0.5423  0.0685  0.5454
38135W        W81151   6.387  32.542   4.163  0.0522  0.0085 -0.0112
38136W        W81152  25.400  15.786   3.171  0.2017 -0.1179  0.0500
38137W        W81153  21.208  20.690   8.456  0.0313  0.1223 -0.0691
38138W        W81154   0.206   5.126   2.728 -0.0402  0.2347 -0.2270
38139W        W81155  18.988  24.555   1.981  0.2224  0.3197 -0.0902
38140W        W81156  29.875   1.631  10.887  0.0999  0.2313  0.3746
38141W        W81157  30.118   1.754  29.018  0.0979 -0.0293  0.1818
38142W        W81158  26.194  28.278  20.407  0.1924  0.0361  0.0825
38143W        W81159   9.527  26.782  26.809  0.1322 -0.3920  0.0195
38144W        W81160  24.084  29.220   1.949 -0.1081 -0.0156 -0.1268
38145W        W81161  25.638  23.524   3.018 -0.1086 -0.1037 -0.1157
38146W        W81162   2.392  31.898  19.940 -0.0636 -0.0878 -0.2464
38147W        W81163  22.118  18.325   1.998  0.0242  0.1684 -0.1715
38148W        W81164  16.543  23.269   6.832 -0.0853 -0.1692  0.2936
38149W        W81165  26.220  31.389  27.325  0.0755 -0.1038  0.0930
38150W        W81166  20.039  32.052   7.715  0.0210 -0.0483 -0.0360
38151W        W81167  19.398  25.097   7.357 -0.0410 -0.0429  0.0751
38152W        W81168  31.147   2.078   5.531 -0.1936 -0.0425  0.2446
38153W        W81169  33.180  19.898   1.306 -0.2434  0.1321 -0.2602
38154W        W81170   0.962  34.041  22.396 -0.1462  0.3199  0.0260
38155W        W81171  23.754  26.482  10.977  0.1544 -0.0672 -0.2351
38156W        W81172  18.471   5.447  21.445 -0.0764 -0.2143 -0.1158
38157W        W81173  21.525   1.531   4.594  0.2189 -0.1569  0.1287
38158W        W81174  33.294  24.086   5.430  0.1253 -0.3232 -0.1392
38159W        W81175  22.631  24.662   4.243 -0.2519 -0.1475 -0.4099
38160W        W81176  22.818  21.937   0.827 -0.3009  0.3985  0.0251
38161W        W81177  31.292  25.069   9.148  0.0240 -0.0563  0.2429
38162W        W81178  33.733  26.882   9.586 -0.1321  0.1907 -0.2654
38163W        W81179  20.942  31.650  10.870 -0.2153  0.2509  0.1016
38164W        W81180   4.363   5.106  19.869  0.0916  0.1921 -0.4237
38165W        W81181  28.705  25.729  17.351  0.2766 -0.1054 -0.2506
38166W        W81182  28.820  26.033   8.676  0.0942  0.0953  0.0734
38167W        W81183  19.545  33.328   7.924  0.0644  0.2329 -0.2450
38168W        W81184  21.163  17.144   4.581  0.1076  0.2376  0.0750
38169W        W81185  32.484  26.179   8.827 -0.1165  0.2531  0.2680
38170W        W81186  28.028  15.297   5.030 -0.1471  0.0001 -0.1470
38171W        W81187  24.130  28.309   4.628  0.3916 -0.0918  0.3226
38172W        W81188  18.215  19.771  22.149  0.0518  0.1007  0.0548
38173W        W81189  34.429  16.857  28.190  0.1266 -0.1781 -0.1584
38174W        W81190  32.018  22.380  23.985  0.1978  0.0544 -0.0408
38175W        W81191   1.552  26.004   6.704 -0.2864  0.0086  0.1345
38176W        W81192   7.335  15.998  28.046  0.1937  0.2954  0.2025
38177W        W81193  24.236   1.789   0.007 -0.1599 -0.3462  0.1651
38178W        W81194  31.292   3.296   9.574 -0.1091 -0.1455 -0.2950
38179W        W81195  29.677  22.218   9.251  0.1272 -0.1099  0.1190
38180W        W81196  26.959  30.377   6.413 -0.2461 -0.1845 -0.1296
38181W        W81197  29.280  31.934  27.939 -0.1444  0.2877 -0.1791
38182W        W81198   7.357  19.118   3.008  0.0565 -0.1111  0.0072
38183W        W81199  14.808  34.659   4.624  0.1219 -0.0829  0.0745
38184W        W81200  11.691  28.548  24.553 -0.1692  0.0539  0.3247
38185W        W81201  22.726  32.063   7.411 -0.0641 -0.0239  0.0484
38186W        W81202   1.611  32.463   5.225 -0.0851  0.2069  0.1228
38187W        W81203  23.593  25.688  27.522  0.0529  0.2696 -0.0498
38188W        W81204  25.368  26.144   7.947  0.2883 -0.2699  0.0922
38189W        W81205  25.358  28.972  10.674  0.0218 -0.1329 -0.1470
38190W        W81206  14.381  32.929  28.377 -0.0413 -0.1257 -0.3510
38191W        W81207  32.589  30.119   7.836  0.0541 -0.1902 -0.1414
38192W        W81208  34.294  33.928  28.598  0.2915  0.1042  0.1015
38193W        W81209  18.158  25.558  27.857  0.1238  0.1250  0.1709
38194W        W81210  25.856   0.785  28.712 -0.0548 -0.3349 -0.0392
38195W        W81211  22.834  32.699   5.433 -0.1577 -0.2122  0.2156
38196W        W81212  31.126  20.188  27.262  0.0736 -0.1923 -0.1123
38197W        W81213  12.917  19.303   7.131 -0.0935 -0.0091 -0.0458
38198W        W81214   3.019  18.903   2.909  0.1473 -0.2557 -0.4350
38199W        W81215   9.176  21.644  22.925 -0.1522  0.1346 -0.0254
38200W        W81216   9.143  33.045  23.002 -0.0083 -0.2755 -0.4350
38201W        W81217  17.200   3.390  10.163  0.0907 -0.0740 -0.0350
38202W        W81218  28.516  28.761  23.453  0.5675  0.1799  0.4429
38203W        W81219  14.682  30.736  22.266 -0.3000 -0.0594 -0.0544
38204W        W81220  16.400   1.533   7.088  0.4051 -0.0971  0.3590
38205W        W81221  13.871  18.853  27.663 -0.4383 -0.1180 -0.1767
38206W        W81222  22.114  33.475   7.984 -0.1842 -0.3205 -0.1461
38207W        W81223  16.944  33.652   6.285  0.0846 -0.1654  0.1698
38208W        W81224  34.723  24.687   0.922 -0.3008 -0.1442 -0.4272
38209W        W81225  17.056  20.841   4.216  0.5313 -0.4187 -0.0244
38210W        W81226  33.621  11.631   9.024  0.0165 -0.2882  0.0003
38211W        W81227  30.248   7.329   7.482 -0.0589  0.1023  0.0658
38212W        W81228  20.038  28.641  10.250  0.0691  0.0834  0.1163
38213W        W81229  21.452  26.077   7.544  0.2299 -0.4945 -0.0623
38214W        W81230  27.130  20.101   2.523  0.0138 -0.0924 -0.1441
38215W        W81231  26.692  33.123   0.452 -0.0439  0.0441 -0.0421
38216W        W81232  32.947   0.299   9.611  0.1914  0.2604 -0.1319
38217W        W81233  17.914  27.864   5.713  0.0121 -0.0943 -0.4049
38218W        W81234  10.773  29.222   3.190  0.0147  0.1839  0.0904
38219W        W81235  26.817   0.222   8.507 -0.0884 -0.0558 -0.1548
38220W        W81236  22.746  33.343  10.132  0.0055  0.1944  0.0022
38221W        W81237  24.125  16.370  19.910  0.1221 -0.1703  0.1484
38222W        W81238   1.825   3.815   0.918  0.1567 -0.0913  0.1290
38223W        W81239  33.522  34.364   8.958  0.1265  0.1042 -0.0148
38224W        W81240  25.286  28.967   9.058  0.0559  0.2499  0.0825
38225W        W81241  23.664   4.111   0.538  0.1863 -0.1550 -0.0589
38226W        W81242  12.202  24.696  26.652 -0.0099 -0.0657  0.1739
38227W        W81243   0.181  22.263   4.548 -0.0993  0.2112  0.1689
38228W        W81244  22.020  31.188  11.030  0.0219  0.0532  0.1355
38229W        W81245  22.312  29.826  10.319 -0.0156  0.0153 -0.1361
38230W        W81246  10.803   0.079   6.297 -0.2631 -0.2037 -0.1457
38231W        W81247   3.313  12.165  10.018 -0.0121  0.1134  0.0020
38232W        W81248  25.478   9.160  27.484  0.1597 -0.0365 -0.0042
38233W        W81249  18.314  26.225  16.395 -0.0953 -0.0208  0.3603
38234W        W81250  26.332  18.216   0.813  0.1423 -0.1763 -0.1004
38235W        W81251  24.206  30.810  10.756  0.0963 -0.1965 -0.0437
38236W        W81252  34.599  25.761   5.215 -0.3210 -0.0812  0.0073
38237W        W81253   1.922  12.549   2.155 -0.1055  0.1187 -0.0969
38238W        W81254  24.999  17.174   7.090 -0.1305 -0.3122  0.1410
38239W        W81255   1.215   3.605  16.109 -0.1068 -0.1454 -0.1184
38240W        W81256   5.602  30.071   8.971  0.0446  0.1986  0.0431
38241W        W81257  20.949  33.370   4.795 -0.3116 -0.3766  0.1957
38242W        W81258  30.419  29.548  19.335  0.0201 -0.2764  0.2348
38243W        W81259  18.318  22.026   8.189 -0.0976  0.1691 -0.1883
38244W        W81260  34.595  20.394   9.260  0.0269 -0.5058  0.1735
38245W        W81261  33.407  21.124   6.362 -0.1548  0.1993  0.1355
38246W        W81262  28.886  15.263   0.824  0.1566  0.2337 -0.0281
38247W        W81263  14.063   6.832   7.638 -0.0713  0.2260 -0.0925
38248W        W81264  13.965   1.198   3.316  0.0222 -0.1153  0.0178
38249W        W81265  34.671  29.850   3.930  0.0743  0.1737  0.1160
38250W        W81266  15.843  19.287   5.132  0.3409 -0.0729  0.1112
38251W        W81267  18.830  30.269   9.121  0.2586 -0.0508 -0.0707
38252W        W81268  32.571  29.263  27.899  0.2345  0.1219  0.3706
38253W        W81269  10.348  25.466   4.622  0.0076  0.1545  0.0729
38254W        W81270  12.978  21.810  27.677 -0.1013  0.3141 -0.1731
38255W        W81271   9.292  33.785  29.182 -0.1083 -0.3759 -0.2184
38256W        W81272  20.944  19.009  21.227  0.0536 -0.1490  0.2019
38257W        W81273  23.227  20.877   5.376 -0.1218  0.3718 -0.0025
38258W        W81274  20.900  20.792   1.211 -0.0059  0.0631 -0.1188
38259W        W81275  18.198  12.265  26.858  0.1206 -0.3829  0.1060
38260W        W81276  15.637  12.392  27.311  0.1099 -0.0431 -0.1526
38261W        W81277  32.441  33.180   8.531 -0.0975  0.0592  0.2026
38262W        W81278  25.830  18.568   5.256  0.1760 -0.1398 -0.0110
38263W        W81279  25.750  31.201   8.388 -0.0001 -0.0799 -0.2364
38264W        W81280  19.699  30.376   2.719  0.0184 -0.0799 -0.1287
38265W        W81281  25.770  24.102   3.006  0.2790  0.1303 -0.2244
38266W        W81282  14.758  25.070   3.118 -0.1805  0.1952 -0.1008
38267W        W81283   0.736  13.464   9.691 -0.2082 -0.1534  0.1228
38268W        W81284   4.022  28.526   8.863 -0.0798 -0.2421 -0.0847
38269W        W81285  30.099  29.432   3.486  0.1403  0.1186  0.0169
38270W        W81286  18.810  20.554   0.027 -0.0966  0.3402  0.2404
38271W        W81287  21.835  25.836   4.280 -0.4803  0.0129  0.1268
38272W        W81288  26.024  17.915  15.702  0.0971  0.0587  0.1350
38273W        W81289   3.693  15.842  22.781  0.0420 -0.1804  0.0442
38274W        W81290  31.818  26.362  17.204 -0.0184 -0.3684  0.3408
38275W        W81291  12.098  30.575   9.901 -0.0248  0.0794 -0.0518
38276W        W81292  27.807  32.042  26.143 -0.3407  0.1222 -0.0848
38277W        W81293  26.793  23.834  29.291  0.3114  0.1835 -0.1771
38278W        W81294  31.085  34.094   4.201  0.0249 -0.0716 -0.0879
38279W        W81295   0.130  33.020   8.897 -0.0780  0.0429  0.0795
38280W        W81296  25.458  14.302   0.635  0.0600  0.3085  0.1108
38281W        W81297   0.733  26.683  26.600  0.1190 -0.0751  0.3333
38282W        W81298  34.727  27.671   4.182  0.1177 -0.2476  0.0891
38283W        W81299  22.245   1.815   2.710 -0.2096  0.0527 -0.3638
38284W        W81300   8.822  18.548   6.369 -0.1018  0.3928  0.0932
38285W        W81301   5.624  14.984  29.231 -0.0444  0.0435 -0.0883
38286W        W81302  17.905  20.153   7.975 -0.2207 -0.1944  0.0797
38287W        W81303  13.123  19.814   7.058  0.4191 -0.1217 -0.3375
38288W        W81304  18.842   4.057  27.418 -0.4033 -0.3422 -0.0097
38289W        W81305  22.504  16.464   0.417 -0.0207 -0.1812  0.0467
38290W        W81306  32.704  29.770   7.563 -0.1056 -0.0820  0.2621
38291W        W81307  32.718  25.912   4.634  0.1314 -0.2129  0.0152
38292W        W81308   1.224  34.720   4.433  0.2826 -0.1157 -0.0439
38293W        W81309  33.265   8.350   3.482  0.0643  0.0551 -0.4117
38294W        W81310  30.477  20.825   6.987  0.0499  0.0836 -0.1519
38295W        W81311  24.979  31.612  23.297  0.2790 -0.2120 -0.0062
38296W        W81312  27.774  28.700  11.939  0.2821 -0.2029 -0.0185
38297W        W81313  25.608  20.986   1.826  0.0703 -0.2224  0.1850
38298W        W81314   6.634  24.128  26.599 -0.0031 -0.0889 -0.0823
38299W        W81315  19.110  17.186  22.370 -0.1187  0.5783  0.2119
38300W        W81316   1.331  32.222   5.969  0.1028  0.2252  0.0560
38301W        W81317  19.097   4.175  26.396  0.0233 -0.0266 -0.0425
38302W        W81318   8.432   3.618   4.942 -0.1177  0.0510 -0.1304
38303W        W81319  18.549  14.715   7.106 -0.1932 -0.0750  0.0086
38304W        W81320   2.843  26.842   7.851  0.2199 -0.0469 -0.0320
38305W        W81321  20.459   0.329   2.624  0.0505 -0.0454 -0.2319
38306W        W81322  25.193  24.344   9.469 -0.2114  0.1988 -0.0262
38307W        W81323  22.863   3.054   8.004 -0.0162  0.0939 -0.4516
38308W        W81324  33.744  17.223   0.213 -0.1663  0.3570  0.0495
38309W        W81325  32.706  23.124   8.079 -0.2972  0.2722  0.1719
38310W        W81326  21.636  26.636  26.474  0.1052  0.1491  0.0663
38311W        W81327  21.348  18.448  14.806 -0.1183 -0.0994 -0.1567
38312W        W81328  21.401  31.171   8.137 -0.0889  0.3490  0.1746
38313W        W81329  26.754  28.191  11.115 -0.0092  0.1277  0.0304
38314W        W81330  13.489  34.290   3.930 -0.2371 -0.2180 -0.1507
38315W        W81331  27.141  23.920   9.261 -0.1051  0.2152  0.1166
38316W        W81332  31.583  24.825   3.849  0.0186  0.2271  0.0552
38317W        W81333  34.199   5.974   6.710  0.1006 -0.0579  0.2587
38318W        W81334   5.164  29.327   4.573  0.0142 -0.1451 -0.1250
38319W        W81335  25.773  34.498   8.102  0.3111  0.2348  0.0300
38320W        W81336  13.087  29.696   4.755  0.0539 -0.1156  0.0878
38321W        W81337  29.257  13.199  21.405  0.2721 -0.0521  0.0432
38322W        W81338  16.772   8.156   7.326  0.2736  0.1371 -0.1249
38323W        W81339  24.773  22.353   3.346  0.3289  0.4036  0.0308
38324W        W81340  31.993  28.522  10.109  0.3764 -0.3891  0.0407
38325W        W81341   6.521  22.718   4.337  0.1735 -0.0413  0.3661
38326W        W81342  24.447  22.809   7.648  0.1541  0.1095  0.0759
38327W        W81343   4.943  21.939   6.603  0.0969  0.0993  0.2055
38328W        W81344  28.223   3.195   7.590 -0.2499  0.0738 -0.0199
38329W        W81345  20.199  28.090   0.994 -0.1196  0.2319  0.0418
38330W        W81346   8.564   2.765  19.491  0.2124 -0.1867  0.1829
38331W        W81347   1.042  22.564   4.804 -0.0132 -0.2701  0.1159
38332W        W81348  22.133  26.796  10.255 -0.0205 -0.1625 -0.0063
38333W        W81349  34.283   8.003  27.547 -0.0387 -0.4646 -0.1663
38334W        W81350  29.340  28.815   1.996  0.0494 -0.1057  0.1028
38335W        W81351   5.100  20.092   3.731 -0.1270  0.2301  0.0060
38336W        W81352  29.374  22.420   4.516  0.3500  0.0431  0.2607
38337W        W81353  27.049  28.330   4.941  0.1407 -0.0334  0.2301
38338W        W81354   1.648  33.966   6.238  0.0204 -0.0124  0.1631
38339W        W81355  31.316  18.073   4.246 -0.3219  0.2678 -0.1225
38340W        W81356  30.698  30.188   6.015 -0.1235  0.1647  0.0491
38341W        W81357  28.646  26.094   4.753 -0.0328 -0.0765 -0.2632
38342W        W81358   4.228  32.104   7.817 -0.1066 -0.3066 -0.0225
38343W        W81359   0.266  29.365   0.953 -0.2059 -0.0722 -0.2523
38344W        W81360  19.353   6.744  25.106  0.1615  0.0796 -0.2886
38345W        W81361  22.237  26.750   2.887 -0.2788 -0.0589 -0.1176
38346W        W81362  20.148  25.845   1.637 -0.2957 -0.0543 -0.3891
38347W        W81363  25.533  25.871  26.860  0.1123  0.2051 -0.1178
38348W        W81364   0.619   0.290   0.097  0.3951 -0.3714 -0.2263
38349W        W81365  18.420  23.448   0.258  0.1549  0.2130 -0.0526
38350W        W81366  24.653  16.744   6.464  0.0025  0.3393 -0.0589
38351W        W81367  27.471  23.562   2.927  0.1166  0.0591  0.1043
38352W        W81368  22.105  31.070   7.098 -0.1120  0.0237 -0.2033
38353W        W81369   1.541   3.529   8.533 -0.1687 -0.2399 -0.1239
38354W        W81370  30.626  32.107  27.906 -0.0496  0.0397  0.1623
38355W        W81371  26.726   8.541   6.407  0.3289 -0.0284 -0.1079
38356W        W81372  16.450  31.942  26.877 -0.1619 -0.3859 -0.4502
38357W        W81373   6.932  17.908   3.092  0.1833  0.4816 -0.0852
38358W        W81374  33.920  10.806  10.499 -0.1707  0.3197  0.3020
38359W        W81375  24.340  11.429  23.632 -0.0106 -0.0033  0.1574
38360W        W81376  25.748  29.889  10.428 -0.0401 -0.1801  0.0861
38361W        W81377  30.300  26.616   5.164 -0.0469  0.2002 -0.1526
38362W        W81378  23.575   2.232   4.680 -0.0425  0.0020 -0.2061
38363W        W81379  18.586  17.240   4.166  0.2342 -0.0825 -0.0075
38364W        W81380  26.261   1.973   8.569 -0.0126 -0.0667 -0.0242
38365W        W81381  26.057   3.937  23.553  0.0981 -0.2343 -0.0358
38366W        W81382  26.569  32.614   4.948 -0.1005  0.1825  0.0702
38367W        W81383  18.235  32.046   6.033 -0.1891  0.2722  0.1079
38368W        W81384  27.512  26.982   8.453  0.0820 -0.3346 -0.2695
38369W        W81385  24.745   3.176   9.595 -0.2707  0.2102 -0.2151
38370W        W81386  10.344  29.328   2.408  0.0693  0.0227  0.0537
38371W        W81387  31.834  22.571  27.194 -0.0663  0.3300 -0.4279
38372W        W81388  23.378  27.295   6.737  0.1464 -0.1631  0.2466
38373W        W81389  29.500  28.688  11.209  0.2363  0.0803 -0.2181
38374W        W81390  27.397  25.341   7.098 -0.1438  0.0797  0.2174
38375W        W81391   5.891  32.738   6.950 -0.2072  0.0375  0.0194
38376W        W81392  14.486   5.661   6.546  0.5994  0.0705  0.1228
38377W        W81393   8.079  24.885  26.381  0.1328 -0.1447  0.0885
38378W        W81394  31.009   1.259   8.248  0.2420  0.0895  0.2626
38379W        W81395  24.982  23.428  16.625 -0.1447  0.1530  0.0912
38380W        W81396   3.150   1.284  24.129 -0.1216  0.1008 -0.3492
38381W        W81397  32.427  29.104   7.060 -0.1456 -0.1519  0.0472
38382W        W81398  26.767  31.274   1.457  0.1478 -0.0560 -0.1261
38383W        W81399  18.660  24.865   1.184 -0.0398 -0.0053  0.0530
38384W        W81400   0.978   2.632   6.151  0.1477 -0.1659 -0.0150
38385W        W81401   0.862  15.262   2.411 -0.2638  0.1258 -0.0383
38386W        W81402  15.979  24.520   9.429  0.2465  0.2693  0.3168
38387W        W81403  28.171  27.938  10.723 -0.0410  0.2022  0.1335
38388W        W81404   2.393  27.830   1.536 -0.4841  0.0379  0.0894
38389W        W81405  31.064  15.135  25.125 -0.0487  0.1605 -0.3538
38390W        W81406  17.290  19.408   7.077  0.0734 -0.1036  0.1087
38391W        W81407  28.818  27.688   6.187  0.0446 -0.1532  0.4067
38392W        W81408   8.217  23.028  26.940  0.0437  0.0943  0.2737
38393W        W81409  33.795   4.382  22.044 -0.0503  0.0311 -0.0084
38394W        W81410  15.386  17.318   7.011 -0.0275  0.0722 -0.1205
38395W        W81411  11.602  17.724   5.369 -0.3222 -0.3205  0.1170
38396W        W81412  15.572  21.429   1.926 -0.3306  0.2626 -0.0642
38397W        W81413   0.944  26.006   9.622 -0.0102 -0.1380  0.0365
38398W        W81414  34.569  26.599   1.362  0.2948  0.0239  0.0133
38399W        W81415  23.626  23.666  16.012  0.0532  0.1177  0.4067
38400W        W81416  18.759  34.597   9.511  0.0738  0.1048 -0.1472
38401W        W81417   1.609  14.358  26.119  0.0171  0.0569 -0.0065
38402W        W81418  19.780   0.595  24.563  0.2507 -0.1261  0.1075
38403W        W81419  15.318  12.247  25.994  0.0148  0.1153  0.4362
38404W        W81420  34.154  15.620   3.207 -0.0523 -0.3177 -0.0678
38405W        W81421  12.994  18.222  23.535 -0.1726  0.0913  0.3606
38406W        W81422  29.995  30.007   7.739 -0.2354  0.0605  0.3993
38407W        W81423   9.833   1.279   8.540 -0.1835 -0.0619 -0.0805
38408W        W81424  29.230   1.180   9.465  0.2830  0.1733 -0.0747
38409W        W81425  31.538  18.871   7.880 -0.2256  0.1813  0.2797
38410W        W81426  33.054   1.356   2.672 -0.1563 -0.3286  0.1214
38411W        W81427  27.948  23.286  25.546  0.2362 -0.0914 -0.3322
38412W        W81428   5.424  19.015   3.611  0.3468  0.1478 -0.1558
38413W        W81429   3.517  24.709   6.279  0.1964  0.2226 -0.0361
38414W        W81430  22.468   6.470   2.022  0.1302 -0.0712  0.1260
38415W        W81431  23.658  14.894   6.860 -0.4500  0.0860  0.0209
38416W        W81432   6.466  20.843   2.087 -0.1961  0.0541 -0.0485
38417W        W81433   8.087  28.431   4.598  0.0274 -0.1978  0.0316
38418W        W81434  33.917  13.676   7.980  0.0294  0.2677  0.3256
38419W        W81435  19.464   7.371   5.987  0.4009  0.0022 -0.0841
38420W        W81436  13.777  11.800   9.225 -0.2105 -0.4648 -0.2089
38421W        W81437  34.658  17.241   5.902  0.2287 -0.1070 -0.3707
38422W        W81438   2.209  11.810  10.177  0.0491 -0.0625  0.0113
38423W        W81439   0.005   7.776   2.299 -0.0469 -0.0715 -0.0052
38424W        W81440  22.479  16.181  21.789  0.3227 -0.1954  0.1278
38425W        W81441  22.529   3.426   9.905  0.1373  0.0173 -0.1611
38426W        W81442   1.045  26.468   2.914 -0.0749 -0.2265  0.1265
38427W        W81443  26.803  30.420   0.976  0.0818 -0.2101  0.0667
38428W        W81444  25.413   8.164   5.228  0.0277  0.2551 -0.2131
38429W        W81445  31.403  17.747   8.820  0.3404  0.3103 -0.0543
38430W        W81446  28.988  34.212  11.179 -0.2659  0.1497  0.0355
38431W        W81447  24.917  27.336   6.877 -0.0507 -0.0349 -0.0914
38432W        W81448  27.931  14.877   9.494  0.0670  0.0807  0.0876
38433W        W81449  17.885  19.689   7.802  0.0410 -0.1769 -0.0732
38434W        W81450  32.701   5.514   5.328 -0.0402 -0.1803  0.0379
38435W        W81451   7.805  18.288   5.352  0.0761  0.0033  0.0778
38436W        W81452  20.379  19.982   4.131 -0.0980 -0.0188 -0.0328
38437W        W81453  25.945  15.520   5.611  0.0167 -0.1971  0.0418
38438W        W81454  12.610  24.917  24.100 -0.1260  0.3352  0.1161
38439W        W81455  31.570  29.606   7.535 -0.0606  0.1290  0.2336
38440W        W81456  34.525   2.224   4.904  0.3655 -0.2365 -0.1027
38441W        W81457  28.152  22.903   5.245  0.0299 -0.3800 -0.3492
38442W        W81458  17.157  22.800   5.342 -0.0725  0.3820 -0.0675
38443W        W81459  27.885  24.204  24.511 -0.1139  0.1356  0.0530
38444W        W81460  17.795  18.879  23.778  0.1399 -0.0225 -0.2393
38445W        W81461  13.700  26.255  19.665  0.0944 -0.1271 -0.2622
38446W        W81462  15.444  21.404   3.963 -0.0006  0.0541 -0.1134
38447W        W81463  26.490  25.970   8.648  0.3548 -0.0711  0.1227
38448W        W81464  25.049  25.887   7.125  0.2845 -0.0806  0.1925
38449W        W81465  29.647  21.910   7.544  0.1982  0.1675 -0.1685
38450W        W81466  13.380  13.942   1.880 -0.0579  0.1549  0.0698
38451W        W81467  18.553  30.669   8.957 -0.0111 -0.1616 -0.3055
38452W        W81468  17.191  23.456   3.459  0.2326  0.1368 -0.1993
38453W        W81469  22.301  16.401   3.051  0.1894 -0.3857  0.2194
38454W        W81470  20.285  33.543  28.999  0.1932  0.0284  0.0845
38455W        W81471  26.988  27.699   6.454 -0.3196 -0.3696  0.3542
38456W        W81472  21.559  27.990   5.707 -0.1610  0.1486  0.0532
38457W        W81473  16.084  20.867  13.935  0.0801  0.0988  0.1518
38458W        W81474  34.531  17.132   2.055 -0.0914  0.1071  0.2761
38459W        W81475  23.917  26.174  10.013  0.2543  0.1530  0.1250
38460W        W81476  24.809  22.843  26.286 -0.1152  0.0767 -0.2174
38461W        W81477  21.490  23.748  19.145 -0.1041  0.2461  0.2390
38462W        W81478  24.976  13.695  28.239  0.3426  0.0850  0.0750
38463W        W81479   0.467  28.042  25.302  0.2758 -0.1246 -0.1236
38464W        W81480  13.042   3.215   9.110 -0.3605  0.1847  0.1322
38465W        W81481  26.561  29.897   5.443 -0.2653 -0.3089 -0.3119
38466W        W81482  26.510  18.025   7.079 -0.2370 -0.1989  0.0753
38467W        W81483  19.229  34.042  18.726  0.0872  0.1399 -0.0884
38468W        W81484  11.879  27.479   9.019  0.0894 -0.2280 -0.0505
38469W        W81485  15.913  25.065   4.304 -0.1812  0.0785  0.0379
38470W        W81486  27.157  26.766   0.036 -0.1735  0.2800  0.2254
38471W        W81487  21.205  22.939  29.046 -0.0255  0.0205 -0.3112
38472W        W81488  20.935  23.570  27.973  0.1632 -0.0058  0.1342
38473W        W81489   4.820  25.364   9.695  0.1125 -0.0055 -0.2977
38474W        W81490   6.476  32.693   5.421  0.1693  0.4102  0.2085
38475W        W81491  29.281  20.192  25.672  0.0853 -0.0318  0.2588
38476W        W81492  21.000  20.036  21.201  0.1920 -0.0793  0.1804
38477W        W81493  34.702  13.327   8.156  0.0223  0.0700  0.2840
38478W        W81494   7.548  27.488   4.890 -0.2336  0.2102  0.1022
38479W        W81495  29.458  24.296   1.226 -0.3233  0.2224 -0.0420
38480W        W81496   0.836   0.788   6.834  0.0439  0.3245  0.3298
38481W        W81497   0.625  20.607  24.966  0.2117 -0.2442 -0.4209
38482W        W81498  15.983  11.361   4.856  0.0278 -0.2339  0.1100
38483W        W81499  17.384  26.361  23.410  0.0763  0.2144 -0.1591
38484W        W81500  32.766  15.035  28.660  0.4707 -0.0711 -0.2824
38485W        W81501  25.770  24.538   1.774 -0.0631 -0.2484 -0.2622
38486W        W81502  31.457  19.751   7.615 -0.2514 -0.1083 -0.0642
38487W        W81503  31.768   5.149  26.009 -0.2910 -0.0688 -0.1005
38488W        W81504  28.569  22.649   1.840 -0.2496 -0.2724 -0.0110
38489W        W81505  23.709  30.689   7.999 -0.0641 -0.2273  0.1468
38490W        W81506  21.977  20.660  20.807  0.0232 -0.4098  0.0044
38491W        W81507  13.295   4.974   9.008  0.0409 -0.0077 -0.1745
38492W        W81508  25.519  30.181   5.084  0.1135 -0.0971  0.2888
38493W        W81509  27.914  32.837  25.186 -0.0737  0.0056  0.1035
38494W        W81510  22.783  19.347   6.641  0.0290 -0.2656  0.1784
38495W        W81511   4.636  27.885   7.566  0.1349  0.0789  0.0643
38496W        W81512  29.231   0.252  10.815 -0.4624 -0.0433 -0.1279
38497W        W81513  19.193  30.015   6.377  0.0208 -0.1060  0.2443
38498W        W81514  33.689  31.032   6.276  0.0622  0.0131 -0.1272
38499W        W81515  25.085  16.308  23.954  0.0967  0.1462 -0.0342
38500W        W81516   3.135   9.449   7.023 -0.1933  0.0221 -0.0447
38501W        W81517   2.083  16.085   5.593 -0.0974 -0.0106 -0.0018
38502W        W81518  18.870  15.829  24.130  0.1517 -0.0517 -0.1020
38503W        W81519   2.678  25.227   2.767  0.0577 -0.1091 -0.2160
38504W        W81520  23.021  30.162   8.032  0.3684  0.1361 -0.0705
38505W        W81521  12.434  23.562   4.544  0.1185  0.0472  0.1863
38506W        W81522  10.743  30.800   2.343  0.1369  0.0698 -0.0685
38507W        W81523  22.265  24.222  20.406  0.2293  0.0501  0.3247
38508W        W81524  20.087  24.620  28.868 -0.1114 -0.0416 -0.1362
38509W        W81525   2.947  13.967   4.711 -0.1800 -0.0563 -0.0499
38510W        W81526  12.373   6.175  28.251  0.2588  0.0486  0.3307
38511W        W81527   6.669  34.050  27.481  0.0459  0.2388 -0.1972
38512W        W81528  22.548  21.549   3.083 -0.0250 -0.3466  0.1972
38513W        W81529  32.190  29.156  23.141 -0.0854  0.0511  0.1291
38514W        W81530  32.529  12.753  22.475  0.0998 -0.1518  0.4879
38515W        W81531  31.774  25.886   1.064 -0.2085  0.0229  0.0963
38516W        W81532  23.648  27.188  11.486  0.3068  0.1189  0.0123
38517W        W81533  27.554  25.751   4.973 -0.3313  0.0795  0.3089
38518W        W81534  18.602  28.654   9.310  0.0005 -0.3562  0.0682
38519W        W81535   0.122  13.773   8.020  0.2029  0.0591  0.0823
38520W        W81536  26.261  15.200   7.385  0.1449  0.1127 -0.1731
38521W        W81537  29.692  28.591   9.323 -0.0869  0.3612  0.1202
38522W        W81538  29.903  23.541   9.686 -0.1709 -0.2371  0.4200
38523W        W81539  26.537  25.347   3.335 -0.1618  0.1278 -0.0811
38524W        W81540   6.819  18.378   2.929  0.0294  0.1144 -0.2950
38525W        W81541  34.214  22.899  27.976 -0.0262  0.0317 -0.0846
38526W        W81542  21.137  26.595  10.178  0.3685 -0.0168 -0.0440
38527W        W81543   1.691  14.771  10.332 -0.1491 -0.1503  0.1146
38528W        W81544  34.020  27.542   8.891  0.1891 -0.0097 -0.1693
38529W        W81545  16.149  33.463   5.242 -0.0787 -0.1025  0.1471
38530W        W81546  21.411  18.464   3.274  0.0681 -0.0950 -0.1821
38531W        W81547  30.547  31.122   0.609  0.0986  0.1681  0.2002
38532W        W81548  24.024  26.661   4.118  0.4109  0.2161 -0.1752
38533W        W81549  31.073  22.531   2.894 -0.0772  0.2636 -0.1142
38534W        W81550  28.020  14.179   0.403 -0.3096 -0.0886 -0.0117
38535W        W81551  13.595  29.332   0.562 -0.0122  0.1850 -0.0444
38536W        W81552   7.209  26.420   4.255 -0.0798  0.3312  0.3240
38537W        W81553  27.107  29.299  11.756 -0.2044  0.4081  0.1802
38538W        W81554   0.677   0.552   4.809  0.0530  0.3308 -0.1061
38539W        W81555  30.040  23.101  29.238  0.1549  0.1397 -0.2313
38540W        W81556  22.350  32.450  25.881 -0.2057 -0.1137  0.0877
38541W        W81557  22.607  32.477  10.077 -0.1998 -0.0252 -0.2439
38542W        W81558  24.906  31.581  26.855  0.2168 -0.1139 -0.0116
38543W        W81559   1.511   5.089   6.730  0.2143 -0.0450  0.0102
38544W        W81560  32.969  21.100  19.423  0.0757 -0.2321  0.0390
38545W        W81561   8.447  32.796  28.766  0.6645  0.0871 -0.0282
38546W        W81562  11.687  19.727   4.194  0.0026 -0.1272 -0.0478
38547W        W81563  27.416  30.604   2.894  0.3115  0.3551  0.2744
38548W        W81564  21.235  16.070   4.328  0.0649  0.1831  0.1503
38549W        W81565  27.323  28.512   9.306  0.2165 -0.2816 -0.1322
38550W        W81566   1.734  21.092   8.185  0.0189 -0.3757 -0.2664
38551W        W81567  23.245  26.358  29.184 -0.0983 -0.1756  0.0369
38552W        W81568  18.221  29.677   3.388 -0.0474 -0.1838  0.1461
38553W        W81569   6.478  16.251   5.320 -0.0977  0.2007 -0.0275
38554W        W81570   4.610  28.916   9.626  0.1281 -0.3069 -0.2471
38555W        W81571   8.192   1.201   1.379  0.1054  0.3846  0.0602
38556W        W81572  27.728  30.008   2.101  0.1952  0.1574 -0.2470
38557W        W81573  16.183  13.001   5.563 -0.2730  0.1653 -0.0168
38558W        W81574  26.695  29.163   5.393 -0.3226  0.2934  0.1268
38559W        W81575  21.380  22.205   7.519 -0.0907 -0.0367  0.3016
38560W        W81576  24.894  28.698   0.877 -0.1266  0.2901 -0.0812
38561W        W81577   1.359  17.369   8.051  0.0003  0.1027  0.2910
38562W        W81578  26.499  23.234  10.473  0.0838  0.0469 -0.1583
38563W        W81579  23.571  28.962   8.046 -0.2029  0.1310  0.1277
38564W        W81580   3.776  29.921   6.867  0.0677 -0.1893 -0.0630
38565W        W81581   5.221  24.126   7.499 -0.0074 -0.2509 -0.3738
38566W        W81582  26.134  17.822   5.766  0.1141  0.0821  0.2544
38567W        W81583   3.516  23.094  25.537  0.1397  0.1779 -0.1658
38568W        W81584   6.720  34.616  19.823 -0.0389 -0.2475 -0.3285
38569W        W81585   0.390  31.464   0.474  0.0325  0.4341  0.3976
38570W        W81586  32.973   3.543  20.993  0.2183  0.0619  0.0457
38571W        W81587  32.844  30.660   4.335  0.0007  0.0581  0.0797
38572W        W81588  20.321  30.449   1.946  0.0313 -0.0724 -0.0165
38573W        W81589  27.351  29.587  26.155 -0.1867  0.1933 -0.4109
38574W        W81590  14.128  33.177   2.930 -0.2715  0.1004  0.1588
38575W        W81591  26.794  25.179  17.646  0.0001  0.0937 -0.3182
38576W        W81592  26.870  30.051  28.407 -0.1974 -0.1607 -0.2109
38577W        W81593  20.510  33.721   6.251 -0.0052  0.0478  0.1481
38578W        W81594  33.878  25.154   4.738 -0.1158  0.1002 -0.3266
38579W        W81595  22.849  30.000  17.454 -0.0099  0.0538  0.1241
38580W        W81596  21.676  22.807  27.837 -0.1975 -0.1229 -0.0657
38581W        W81597   1.287   4.993   7.181  0.3366 -0.1778  0.1896
38582W        W81598  13.945  21.601  18.219 -0.0183  0.0634 -0.1124
38583W        W81599  27.735  26.554  25.786 -0.0515  0.0276 -0.2231
38584W        W81600  18.171  19.854  24.033  0.0963  0.2147 -0.1666
38585W        W81601   2.408  21.822  29.224  0.0419  0.3100  0.0164
38586W        W81602   4.183   1.117  24.444  0.2411  0.1201 -0.3791
38587W        W81603  23.255  27.044   2.847 -0.2754  0.1213  0.3812
38588W        W81604  10.654   2.224  26.970 -0.2155 -0.1039  0.0724
38589W        W81605  24.840   6.251   7.390 -0.0730 -0.1182  0.4140
38590W        W81606   3.211  31.246   5.835  0.3702 -0.0813 -0.0664
38591W        W81607  14.539   9.748  25.826  0.3520 -0.0204 -0.2720
38592W        W81608  26.698   4.475   7.940  0.0397 -0.0742  0.1695
38593W        W81609  16.019  12.003   2.175  0.0672  0.0957 -0.0811
38594W        W81610  23.061   3.908  27.566  0.0684 -0.1679  0.2279
38595W        W81611   4.922  21.768   4.581  0.3109 -0.3902 -0.1452
38596W        W81612  27.193   3.355   1.334  0.0304  0.1222  0.2716
38597W        W81613  22.512  30.298   6.583 -0.2202  0.1704  0.3527
38598W        W81614   4.461  25.378  24.773  0.0026 -0.0889  0.0638
38599W        W81615  23.499   5.086   3.618 -0.1477 -0.1802  0.4310
38600W        W81616  26.510   3.467  18.785  0.0148  0.0874 -0.0256
38601W        W81617  22.988  18.584  19.481  0.2355 -0.1313 -0.0472
38602W        W81618  33.057  17.715   5.110 -0.0322 -0.2092 -0.0340
38603W        W81619  22.687  33.901   4.761 -0.1507 -0.0811  0.0654
38604W        W81620  33.520  33.845   8.053  0.3331 -0.0627 -0.0794
38605W        W81621  26.945  21.376   9.913 -0.2281  0.2371  0.2049
38606W        W81622  13.018   6.500   4.578 -0.1062  0.1095  0.1208
38607W        W81623   0.544  13.868   9.901  0.1321 -0.2266 -0.3039
38608W        W81624   5.889  34.165   8.093 -0.1414  0.0364  0.0178
38609W        W81625  17.847  24.706   2.684 -0.0044  0.3678  0.2100
38610W        W81626  30.152  19.790   2.801 -0.3046 -0.0377 -0.5402
38611W        W81627  25.411   4.563  23.214  0.1936  0.0506 -0.1277
38612W        W81628  30.034  27.184   1.926 -0.1803 -0.0627 -0.0505
38613W        W81629  21.478  23.694   3.568  0.0765  0.2003 -0.2769
38614W        W81630  33.182   3.586   8.189  0.0220 -0.1038 -0.0008
38615W        W81631  13.100  34.464   2.096 -0.1535  0.3795  0.0497
38616W        W81632  33.796  34.032   0.436  0.2060 -0.0722  0.1590
38617W        W81633  20.214   7.866   3.597  0.5859 -0.4728 -0.0138
38618W        W81634   7.924  28.658   1.768 -0.0755 -0.0229 -0.1210
38619W        W81635  18.825  32.101  24.825  0.1856  0.2510 -0.0723
38620W        W81636  33.300  24.331   4.099  0.5201 -0.0153 -0.0551
38621W        W81637  17.977  25.560   4.452  0.1526 -0.0721  0.0891
38622W        W81638   3.980  32.723  28.809 -0.0224  0.0052 -0.1728
38623W        W81639   3.589  29.876  23.302 -0.0034  0.2797  0.0781
38624W        W81640  32.375   9.902   6.050 -0.1105  0.0730 -0.0628
38625W        W81641   0.458  33.322   8.624 -0.1373  0.0656  0.2670
38626W        W81642  13.996  28.801   0.098  0.3037  0.1416 -0.0939
38627W        W81643  22.930   2.943  21.206 -0.1943  0.2835 -0.1494
38628W        W81644  19.928  32.659   8.765  0.1954 -0.3488 -0.1609
38629W        W81645  26.148  20.091   1.814 -0.0754  0.1183  0.3769
38630W        W81646  20.406  16.202   6.225  0.0976  0.1690 -0.0581
38631W        W81647  29.770  27.422  17.769 -0.3251  0.0665  0.2227
38632W        W81648   8.711   8.620   3.262 -0.1252  0.0250  0.3647
38633W        W81649  18.050  19.149   4.922  0.1458 -0.0798  0.1542
38634W        W81650  23.705   0.292  26.403  0.1454  0.2303  0.1297
38635W        W81651  13.601  27.320   0.785  0.1809 -0.1415 -0.0911
38636W        W81652   7.442  23.915  16.280 -0.0823 -0.2836 -0.3772
38637W        W81653  21.554  29.996   4.692  0.2342  0.1363  0.3276
38638W        W81654   4.976  33.918   9.381  0.0062 -0.1370 -0.0023
38639W        W81655   7.486  30.569   9.844  0.0893 -0.0269 -0.1310
38640W        W81656  31.589  28.063   0.542  0.0603  0.2031  0.0353
38641W        W81657  23.693  29.146   7.075  0.1402  0.0155  0.2135
38642W        W81658  24.437  24.942   4.373  0.0102 -0.0055 -0.2386
38643W        W81659  13.575   1.339   7.574  0.0238 -0.2920  0.0287
38644W        W81660  23.739  33.631   0.113 -0.2942  0.1596 -0.1039
38645W        W81661  16.878   3.123   3.334 -0.4292  0.2932 -0.0626
38646W        W81662  22.185  26.920   9.315 -0.0986 -0.1345  0.0203
38647W        W81663  27.923   6.561   9.840  0.2242 -0.6056  0.2936
38648W        W81664  26.100  25.939   0.856 -0.1155  0.0037  0.0250
38649W        W81665  33.650  21.429   0.529 -0.1435 -0.1183 -0.0169
38650W        W81666  12.428  30.631   5.607  0.0071  0.1819  0.1901
38651W        W81667  13.302  18.719   2.624 -0.4515 -0.0690 -0.0637
38652W        W81668  20.550  19.543   4.288 -0.1949 -0.1342  0.1434
38653W        W81669  34.766   0.991  27.772  0.0801  0.2892 -0.1228
38654W        W81670   0.055  32.268   4.698 -0.3720 -0.3522  0.2787
38655W        W81671  13.288  20.829  24.899 -0.2773  0.0523  0.2102
38656W        W81672  19.388   4.497   9.996  0.1730  0.0309  0.0181
38657W        W81673   2.401   4.573  20.572 -0.0451 -0.2600 -0.0599
38658W        W81674  25.763  29.217  25.477  0.2150  0.1207 -0.3712
38659W        W81675  25.511   4.917   3.317 -0.0888 -0.2191  0.1280
38660W        W81676  33.153  10.502   7.134  0.1292 -0.0614 -0.0538
38661W        W81677  33.602  25.594   4.507 -0.3151 -0.1634  0.1170
38662W        W81678  31.373  22.980   4.872  0.2777  0.2631 -0.0808
38663W        W81679  29.738  12.969  26.283 -0.3206 -0.0177  0.0310
38664W        W81680  28.507  21.575  27.025  0.0278  0.4482  0.1052
38665W        W81681   2.066  21.674  10.429  0.0512  0.1034  0.2788
38666W        W81682   1.599   1.161  24.915  0.2802 -0.1852 -0.0518
38667W        W81683   0.504  31.738   7.078 -0.4052 -0.0038 -0.1452
38668W        W81684   7.644  19.323   4.200  0.0234  0.2738  0.1750
38669W        W81685  29.064  32.480   2.192 -0.1834 -0.1364 -0.3281
38670W        W81686   7.439  15.442   9.022 -0.0913  0.3607 -0.3639
38671W        W81687  24.889  32.906   1.109  0.1306  0.4086  0.2119
38672W        W81688  30.523  23.649  27.913  0.0976  0.0471  0.0996
38673W        W81689  20.146  22.652  21.423 -0.3842  0.1486  0.0224
38674W        W81690  22.410  32.134  10.768 -0.0711 -0.0315 -0.0457
38675W        W81691  13.279   2.924   8.749 -0.1402  0.2637 -0.0169
38676W        W81692   3.225  21.813  29.272  0.0109 -0.2508 -0.3035
38677W        W81693  30.972  23.339   0.754  0.0670  0.1379 -0.2700
38678W        W81694  18.528  16.767  23.584 -0.0114 -0.0228  0.0705
38679W        W81695  32.373  28.475   3.718 -0.0424  0.1466  0.0378
38680W        W81696  34.185  23.428  28.152  0.0187  0.0880 -0.1471
38681W        W81697  18.212  34.500   5.263 -0.3224 -0.1319  0.0627
38682W        W81698  26.634   4.188  27.039 -0.0128 -0.0853  0.3307
38683W        W81699  32.498   5.789  25.723  0.2534 -0.1834 -0.0493
38684W        W81700   3.666   8.538  26.524  0.1031 -0.0111  0.0812
38685W        W81701  24.000  10.832   4.501 -0.1312  0.1744 -0.2529
38686W        W81702   9.110  23.201  25.723  0.3172  0.0368  0.1203
38687W        W81703  29.444   0.860   4.313 -0.1086  0.1064  0.1115
38688W        W81704   7.102  33.538   8.025  0.0229 -0.4038 -0.1217
38689W        W81705  30.865   6.191   2.884  0.0596  0.2823 -0.1301
38690W        W81706   4.036  29.430  27.509 -0.0491 -0.1457 -0.1698
38691W        W81707  34.291  31.229  22.619  0.1369 -0.2796 -0.0917
38692W        W81708  28.972  29.626   6.791  0.0392 -0.1017  0.1128
38693W        W81709  26.566  10.129   6.636 -0.2751 -0.3717  0.0102
38694W        W81710  11.122  12.334  19.397  0.1003  0.1381  0.4904
38695W        W81711  22.500  22.649  23.078 -0.1462  0.1725  0.0257
38696W        W81712  13.359  25.205   5.032 -0.2736 -0.2237 -0.0256
38697W        W81713  14.198  30.642   2.810  0.1528  0.0622  0.4068
38698W        W81714  15.444  30.723   6.069  0.2187  0.2343 -0.2077
38699W        W81715  26.739   1.870  18.587 -0.0715 -0.0587  0.1150
38700W        W81716  31.027   2.488  26.403  0.3493  0.1205  0.0021
38701W        W81717   8.676   3.515  27.212 -0.1763  0.0051 -0.2790
38702W        W81718  24.058  32.163  10.397  0.0548  0.4691  0.2074
38703W        W81719  24.867   2.645   8.388  0.2509 -0.3422 -0.0066
38704W        W81720  23.953  27.500   8.144 -0.0542  0.0182 -0.2525
38705W        W81721  16.309  27.598   6.195 -0.0051  0.1005 -0.2243
38706W        W81722  18.977  29.232  11.119  0.2844  0.1852  0.0016
38707W        W81723   6.574  32.916  15.780  0.1339  0.0040 -0.0174
38708W        W81724  16.771  24.073  14.296 -0.2018 -0.0650  0.0572
38709W        W81725  22.894  18.632   0.572  0.0474 -0.0324 -0.1762
38710W        W81726  30.398  18.876   1.397  0.1937  0.3514  0.3519
38711W        W81727  21.090  27.868   4.724 -0.0678 -0.1327 -0.1536
38712W        W81728  30.402   2.553  22.842  0.2214  0.0593 -0.2533
38713W        W81729   3.338  31.987  14.372 -0.3118  0.1382  0.1214
38714W        W81730   3.072   7.584   2.686  0.2658  0.0388  0.1773
38715W        W81731  13.265   7.329   7.758 -0.2942  0.0488  0.2431
38716W        W81732   3.526  22.114  25.332 -0.4493 -0.0771  0.0509
38717W        W81733  12.939  33.206   3.025  0.2235 -0.1248 -0.0364
38718W        W81734  23.951   0.400   1.284 -0.2023 -0.1082  0.0014
38719W        W81735   4.423  20.999   7.804 -0.4937  0.0615 -0.0565
38720W        W81736  32.038  33.038  24.832  0.1210  0.4725 -0.2659
38721W        W81737   7.806  32.600  28.700 -0.0032  0.0226  0.1041
38722W        W81738  30.274   1.033   3.203 -0.0956  0.0413  0.0959
38723W        W81739  29.152  24.170  10.735 -0.1414 -0.0408 -0.0249
38724W        W81740  21.498   1.243   7.554  0.2708  0.0251  0.1371
38725W        W81741  10.179   2.454   9.634 -0.1188  0.2477 -0.2961
38726W        W81742  29.192  26.065   8.322 -0.1781 -0.0510  0.3133
38727W        W81743  26.073  29.026   5.437  0.0219 -0.0222  0.1489
38728W        W81744   1.496  20.355   8.625 -0.0053 -0.0677  0.2459
38729W        W81745  31.772  34.171   7.936 -0.1853  0.1183 -0.1095
38730W        W81746  34.726  31.754  10.697  0.0968 -0.1940 -0.2462
38731W        W81747   2.208   2.566   8.758 -0.3739 -0.1058  0.4541
38732W        W81748   5.284   3.449   7.660 -0.0041  0.0108  0.3167
38733W        W81749  28.221   1.944  15.914  0.1851 -0.0954  0.0837
38734W        W81750  33.148  31.082   7.951 -0.1158 -0.3275  0.0668
38735W        W81751  34.078  28.522   8.290 -0.2396 -0.1947 -0.1474
38736W        W81752  29.587  32.831   3.038 -0.0911 -0.0530 -0.0528
38737W        W81753  22.822  28.560  27.999  0.0536 -0.0616  0.1608
38738W        W81754  23.408  25.111   3.105  0.0878 -0.0195 -0.0681
38739W        W81755  19.975  22.033  25.633  0.1607  0.0333 -0.1714
38740W        W81756  22.274   0.170   6.537  0.2486 -0.0529 -0.2023
38741W        W81757  18.534  11.143  25.654 -0.1410 -0.3610  0.3481
38742W        W81758  23.627  20.110  28.509  0.1351 -0.0312 -0.1299
38743W        W81759  25.909   1.325  24.037  0.1164  0.0389  0.0923
38744W        W81760  31.032   3.951   7.331 -0.2092 -0.2177  0.2158
38745W        W81761  25.337  27.486   8.045  0.2484 -0.2016 -0.0330
38746W        W81762  14.864  26.808   0.106 -0.2237 -0.1413  0.0391
38747W        W81763  12.544  23.058  13.920  0.2746 -0.0681  0.1799
38748W        W81764  14.566  29.995   3.382 -0.2815 -0.2140 -0.2569
38749W        W81765  29.688   8.794  18.246 -0.0163  0.1831 -0.1573
38750W        W81766   3.471   5.900  17.773 -0.1701  0.0239 -0.0766
38751W        W81767  10.363  33.713   9.993  0.2910 -0.0648  0.0709
38752W        W81768   8.545  33.264  24.730 -0.0119  0.1428 -0.0612
38753W        W81769  25.895  26.818  28.133 -0.1136 -0.1081 -0.0237
38754W        W81770  34.674  29.011   1.868 -0.0558  0.0038  0.1126
38755W        W81771  34.355  29.000   6.020  0.0618 -0.1871  0.1954
38756W        W81772   9.908   3.400  26.529  0.0312 -0.1392 -0.0903
38757W        W81773  13.135  16.725  25.621  0.0948 -0.0549 -0.3196
38758W        W81774  31.982   2.306  10.995  0.3350  0.0479  0.4750
38759W        W81775  23.988  21.070   4.820 -0.2883 -0.3448 -0.2819
38760W        W81776  33.591   9.165   7.123 -0.5136 -0.0645  0.2188
38761W        W81777  33.964  31.644   8.122  0.1267  0.2331 -0.0164
38762W        W81778   3.884  27.356   3.338  0.1193  0.0398  0.0411
38763W        W81779   6.266  34.291  17.493 -0.1692  0.0544  0.1097
38764W        W81780  12.193   3.483   4.522  0.0960 -0.1691  0.2878
38765W        W81781  30.712  24.175  24.868  0.0175  0.1345 -0.0071
38766W        W81782  34.776  18.623  17.635  0.1851 -0.1433 -0.0194
38767W        W81783   7.748  15.777  27.420 -0.0052  0.2028 -0.0713
38768W        W81784  29.997   0.512  22.148 -0.1434 -0.2115  0.2857
38769W        W81785  30.052  30.169  10.912 -0.0600  0.0369 -0.1653
38770W        W81786   0.855   0.258   6.617 -0.2970 -0.0105 -0.2343
38771W        W81787  23.826  26.850   8.883 -0.1250  0.4268 -0.1552
38772W        W81788  29.941  32.188  22.818 -0.2818 -0.2801  0.1023
38773W        W81789  14.377   7.940   4.965  0.0309 -0.2088  0.1058
38774W        W81790  24.801  31.098  23.697  0.0285 -0.2925 -0.0189
38775W        W81791  31.586   9.362  27.126  0.0238  0.0189 -0.2732
38776W        W81792   1.904  27.338   5.373  0.1103 -0.3121 -0.1406
38777W        W81793  24.331  20.347  29.100  0.1978  0.1098  0.3652
38778W        W81794  27.095   6.058   2.723 -0.2636  0.0585 -0.1123
38779W        W81795  21.416  25.953  10.266  0.1638  0.2234  0.0603
38780W        W81796  27.538  32.065  23.546  0.0717  0.2094 -0.0296
38781W        W81797  22.822   4.193   0.032 -0.1169 -0.0702 -0.1955
38782W        W81798  22.583   1.874   4.390  0.0787 -0.0495  0.1784
38783W        W81799  33.150  10.041   8.385 -0.2652  0.2909 -0.1837
38784W        W81800  28.012  22.530  17.334  0.0421 -0.3176 -0.3662
38785W        W81801  32.733  23.892  21.276 -0.2434  0.2060  0.0918
38786W        W81802  33.690   1.175   3.470 -0.0212  0.0519 -0.0179
38787W        W81803  19.228  13.597   2.752  0.0687  0.0045 -0.0961
38788W        W81804  18.812  22.925   6.364 -0.1097 -0.1655  0.2509
38789W        W81805  19.885  25.840   8.032 -0.1618 -0.0743  0.1508
38790W        W81806  28.965  17.115  16.255 -0.1259 -0.1737 -0.1735
38791W        W81807  24.785  31.538   8.734 -0.2841 -0.0286 -0.0172
38792W        W81808   1.279   4.839   4.768  0.1436  0.2362  0.3885
38793W        W81809  22.259  26.886  20.424  0.0205  0.0496 -0.1384
38794W        W81810  33.912  32.175   8.202 -0.1418 -0.0929 -0.1686
38795W        W81811  22.532   1.703   7.609  0.2868 -0.3087  0.1304
38796W        W81812  23.063  34.285  23.807  0.0762 -0.1063 -0.1020
38797W        W81813   2.926  29.197  10.470  0.0451 -0.0381  0.0029
38798W        W81814  24.283  10.264  17.529 -0.3612 -0.0711 -0.2829
38799W        W81815  20.465   0.498  22.076  0.0921 -0.0105 -0.0665
38800W        W81816  31.508  22.278   9.479  0.0166  0.0999 -0.0366
38801W        W81817   0.143  23.922   7.642 -0.2015 -0.1662 -0.0048
38802W        W81818  12.510  28.205   9.016  0.1340 -0.2365 -0.2410
38803W        W81819   4.612   2.208   8.436  0.2696  0.0003  0.0273
38804W        W81820  28.912  29.134  27.439  0.0019 -0.1570 -0.4014
38805W        W81821   2.586  34.767   0.885  0.1517  0.1971  0.0127
38806W        W81822  31.555  28.504   3.334  0.1299 -0.0881  0.0402
38807W        W81823  13.901  16.336   1.486  0.0385 -0.0554  0.1586
38808W        W81824  31.005   1.723   2.588 -0.1988 -0.1097  0.2469
38809W        W81825  28.086  21.580   8.582 -0.2838  0.0483 -0.0713
38810W        W81826  34.710  33.499  19.885 -0.0107 -0.0738 -0.0853
38811W        W81827  29.074  31.985  11.258  0.2112  0.0439  0.4032
38812W        W81828  16.006  21.151   6.810  0.1908  0.2726 -0.1047
38813W        W81829  29.073  33.185   4.686 -0.3199  0.3566 -0.1120
38814W        W81830  33.247  29.543   4.708  0.2044  0.1567  0.0372
38815W        W81831  29.498  29.120  19.537  0.0541  0.0222 -0.1022
38816W        W81832   7.159  30.174   1.928  0.0326 -0.2776  0.0317
38817W        W81833  30.566  30.476  28.546 -0.1401 -0.3502  0.0589
38818W        W81834   5.784  34.013   0.431 -0.3003 -0.0943  0.0399
38819W        W81835  15.889   7.925   9.938 -0.1465 -0.0936 -0.0779
38820W        W81836  29.838  29.261  28.826  0.2493  0.1787 -0.2090
38821W        W81837   8.345  32.180   0.923  0.0234 -0.0494 -0.0673
38822W        W81838  24.069  31.083   9.077 -0.0067 -0.1433 -0.3033
38823W        W81839  22.203  30.349   8.741  0.1793  0.0462 -0.2492
38824W        W81840   7.180  31.062  21.821  0.0622 -0.1286  0.0908
38825W        W81841  17.273  27.675   3.971 -0.0354 -0.1451 -0.0589
38826W        W81842  30.330  22.167   4.409  0.4072  0.2840 -0.0311
38827W        W81843  27.467  19.431   7.600  0.1157 -0.1376 -0.1763
38828W        W81844   4.612  24.716   0.790 -0.3678  0.1965 -0.2195
38829W        W81845  24.125  30.729   7.377  0.1359  0.0762 -0.0885
38830W        W81846   8.697  23.362  16.001  0.0202 -0.3005 -0.0086
38831W        W81847  12.392  26.665   0.611 -0.2954  0.0872 -0.4158
38832W        W81848  20.406  28.730  14.743 -0.0859 -0.1278  0.1457
38833W        W81849  26.078   8.015   1.651 -0.4169 -0.0601  0.0464
38834W        W81850   2.933  14.942   5.220 -0.1098  0.4060  0.0557
38835W        W81851  16.699  14.580   3.910  0.2436  0.1026  0.1771
38836W        W81852  30.858   7.472   0.947 -0.1474  0.0260 -0.3959
38837W        W81853  21.349  29.637   7.033 -0.0379 -0.0620 -0.0342
38838W        W81854   3.012  23.733  19.533  0.0382  0.0542  0.2305
38839W        W81855  29.201  25.583   4.305  0.0639  0.2119 -0.3570
38840W        W81856  13.364  11.081   5.874 -0.2428 -0.1310  0.2900
38841W        W81857  27.552  16.479   0.081  0.1091 -0.1149 -0.1394
38842W        W81858  21.247  28.222   3.107 -0.0602  0.2057 -0.2804
38843W        W81859  17.465   0.561   9.109  0.0647  0.0302  0.1841
38844W        W81860  22.865  21.529  29.134  0.1741 -0.2472 -0.0973
38845W        W81861  25.970  18.635   2.690 -0.0673 -0.0009 -0.0326
38846W        W81862  31.076   2.938  18.947 -0.0974  0.0790  0.1276
38847W        W81863  25.879  26.120  27.105  0.2950  0.0748 -0.0961
38848W        W81864  32.704  11.517   8.575  0.3860 -0.1695 -0.1338
38849W        W81865   4.390  24.477   7.947 -0.1754  0.0019 -0.0907
38850W        W81866  31.961  20.366  10.012 -0.2841  0.2098 -0.0414
38851W        W81867  32.935  15.102  16.609  0.0111  0.2153 -0.1058
38852W        W81868  19.794  30.022  20.568 -0.0972  0.1401  0.1985
38853W        W81869   1.320   7.944   7.639 -0.2692 -0.0331  0.0253
38854W        W81870  12.313  32.001   2.274 -0.3727  0.0450  0.0624
38855W        W81871  26.043  21.589   4.407 -0.2415 -0.0106  0.1096
38856W        W81872  29.122   1.330   8.735 -0.5286  0.1325  0.0617
38857W        W81873  20.045  20.660   8.081 -0.2055 -0.2543  0.0399
38858W        W81874  29.301   7.002   7.153 -0.4053 -0.1481 -0.3183
38859W        W81875  24.502  28.814  27.167  0.1264 -0.3587  0.0635
38860W        W81876  31.744   1.973   3.702 -0.1912 -0.2394  0.0225
38861W        W81877  28.525   3.778   7.884 -0.3614  0.0354  0.0016
38862W        W81878  12.390   4.798   7.833  0.0501  0.1174  0.1915
38863W        W81879  31.575  13.670   9.953  0.0447  0.2363 -0.1418
38864W        W81880  26.167   2.935   7.786 -0.0756 -0.0698  0.1117
38865W        W81881  23.988  16.985  22.811 -0.2514 -0.3427  0.0605
38866W        W81882  18.716  32.621  19.495  0.0898  0.2060  0.1109
38867W        W81883  24.263  25.548  20.559  0.2284 -0.2773  0.1411
38868W        W81884  12.203   4.741   1.877  0.0347 -0.0101 -0.3563
38869W        W81885  16.009  24.137   3.590 -0.3238  0.0503  0.1380
38870W        W81886  20.306  22.643  22.185 -0.0193 -0.0687  0.0844
38871W        W81887  24.816  13.009  24.350 -0.0318  0.1623  0.0645
38872W        W81888   3.080  25.319  24.763  0.1383  0.2213 -0.1485
38873W        W81889  26.209  20.505  27.103 -0.1588 -0.1517 -0.0982
38874W        W81890  29.138   4.102  21.100 -0.1203 -0.0105  0.1875
38875W        W81891  28.353  25.991  24.998  0.2677 -0.0338 -0.0444
38876W        W81892  13.281  21.407  22.635 -0.1248 -0.1871  0.1296
38877W        W81893  17.772  31.073   7.991  0.0248 -0.1185 -0.0802
38878W        W81894  22.347  25.904  28.152 -0.0321 -0.1982  0.0718
38879W        W81895  29.350  24.608   8.456  0.1809 -0.0547  0.1209
38880W        W81896  11.011  34.206  23.498 -0.2175 -0.1779  0.1592
38881W        W81897  20.003  28.928  18.858 -0.0047  0.4217  0.0310
38882W        W81898   0.998  23.198   4.224  0.0929 -0.5718  0.2319
38883W        W81899  30.628   1.987  24.796 -0.2306  0.2437 -0.0169
38884W        W81900  14.161  25.236   2.366 -0.1462 -0.2906  0.1117
38885W        W81901   5.552  33.324   1.998  0.0650  0.1338 -0.1460
38886W        W81902   2.459  25.297  26.390  0.1888 -0.0324  0.2448
38887W        W81903  29.728  11.506  28.172 -0.0501  0.1280 -0.0265
38888W        W81904  19.508   3.201  17.578  0.1407  0.0292 -0.0352
38889W        W81905  23.161  22.491   4.870  0.1691 -0.2393 -0.0574
38890W        W81906  26.470   0.085  10.858 -0.1682 -0.1543  0.0561
38891W        W81907  25.052  23.574   8.731 -0.1671  0.2420  0.0074
38892W        W81908  28.821  32.600  26.945  0.2435  0.1368  0.2835
38893W        W81909  26.551  21.442   5.727  0.2382 -0.1952 -0.2790
38894W        W81910  16.430  25.718   5.319 -0.1708 -0.3311  0.0125
38895W        W81911  32.847   7.553   2.736 -0.2259 -0.2085 -0.2857
38896W        W81912  27.989   9.868   4.972  0.2230  0.1115  0.1720
38897W        W81913  32.911   1.493  15.391  0.4501 -0.1686  0.0640
38898W        W81914  15.235  11.146  24.895 -0.0443 -0.0303 -0.0464
38899W        W81915   9.966  11.376   5.556  0.2149  0.0206  0.1037
38900W        W81916  26.293  22.114   9.095 -0.2034 -0.2429  0.2203
38901W        W81917  21.824   6.204  29.216  0.1486 -0.1028  0.1158
38902W        W81918  25.425  11.543   2.460 -0.0522 -0.0995 -0.2040
38903W        W81919  22.567  29.446   1.290  0.2437  0.2546 -0.0451
38904W        W81920   0.921  33.435   8.754  0.0262 -0.1705 -0.1381
38905W        W81921  21.455   1.861   3.185  0.1409  0.0821  0.1092
38906W        W81922   5.397   7.570   1.851 -0.1621  0.0606 -0.0030
38907W        W81923  24.900   0.374  26.722  0.1356 -0.0490  0.0285
38908W        W81924  26.361  28.689   3.899 -0.2261 -0.0055  0.1130
38909W        W81925  27.574  23.803  10.359  0.0197  0.0609 -0.1858
38910W        W81926  19.699   4.958  28.021  0.1943 -0.0047 -0.1991
38911W        W81927   3.818  29.261  24.173  0.2638  0.1236  0.0877
38912W        W81928  23.363   6.656   9.212  0.0535 -0.1536  0.1795
38913W        W81929  33.732   4.199  28.499  0.0943  0.0361  0.0282
38914W        W81930   4.145  31.132  10.052 -0.1734 -0.0824 -0.1095
38915W        W81931  27.074  17.273  26.745  0.3922 -0.0380 -0.2083
38916W        W81932  28.001   3.026   9.712 -0.2698  0.2247  0.0529
38917W        W81933  16.083  30.250   2.602 -0.0631  0.1560 -0.1374
38918W        W81934  20.003  23.223  15.428 -0.2288 -0.0153  0.0015
38919W        W81935  33.374  31.293   5.969 -0.0643 -0.0094  0.1056
38920W        W81936   4.409  27.040  28.443 -0.2002  0.1982 -0.1540
38921W        W81937  19.085  19.626  21.750  0.5289 -0.0193  0.0754
38922W        W81938  32.703  34.125  28.699 -0.1701 -0.1091 -0.1204
38923W        W81939  15.394   8.507  29.053  0.1946  0.0377 -0.0127
38924W        W81940  24.566  13.689  14.781 -0.2842  0.1278  0.0203
38925W        W81941  22.775   7.173  24.791 -0.4211  0.1413 -0.1085
38926W        W81942  14.920  18.970   4.714 -0.1947  0.0011  0.1510
38927W        W81943   7.434   1.907  28.522  0.1146 -0.0706 -0.0543
38928W        W81944   0.605   6.732  29.088 -0.5442  0.1436 -0.2271
38929W        W81945  15.003  32.108   5.766 -0.2598 -0.2649  0.1281
38930W        W81946  11.129  21.610  28.443 -0.1904  0.1133 -0.1277
38931W        W81947  25.371   7.165   6.577 -0.1178 -0.0457  0.0364
38932W        W81948   2.528  33.615   0.705 -0.6062 -0.0670 -0.0914
38933W        W81949  25.602  17.665   9.876  0.3031  0.3350  0.2587
38934W        W81950   0.843  32.139   8.805 -0.0379  0.0426  0.0365
38935W        W81951  19.840  29.953   4.869 -0.1705  0.3522  0.1801
38936W        W81952   4.910  26.016   9.042 -0.3374 -0.0099  0.1151
38937W        W81953   0.752  31.685  14.741  0.0437  0.0766  0.0413
38938W        W81954  22.647  29.152   8.808 -0.1879  0.0318 -0.0126
38939W        W81955  17.670   9.542  27.607  0.0893  0.4437  0.0703
38940W        W81956  10.031   1.288  29.229 -0.1389  0.0884 -0.0660
38941W        W81957  22.952  24.281   4.466 -0.0806  0.0741 -0.1587
38942W        W81958   0.700  15.754  10.056  0.1758  0.2099  0.1433
38943W        W81959  30.753  27.937  28.438  0.1084  0.2756 -0.0897
38944W        W81960  21.448  25.027   5.694 -0.2509 -0.1780  0.0247
38945W        W81961   1.815  30.513   1.149 -0.0854  0.2131  0.2928
38946W        W81962  26.854   4.331  26.089 -0.1318 -0.1170 -0.1437
38947W        W81963  18.203   2.806   2.742  0.3425  0.5301 -0.1805
38948W        W81964  21.436  14.678  27.795  0.0010 -0.0381 -0.0370
38949W        W81965  26.771  25.862   7.632  0.0036 -0.0695 -0.3847
38950W        W81966  30.884   9.153   0.381 -0.1107 -0.2234  0.0548
38951W        W81967  34.289  10.243   1.439 -0.1876  0.0541  0.1421
38952W        W81968  23.526  21.982   6.324  0.2047  0.1314  0.0231
38953W        W81969  12.835  33.250   7.689  0.0649 -0.0664  0.4582
38954W        W81970   9.783  31.174   1.623 -0.0876  0.1898  0.2015
38955W        W81971  22.216   5.670   6.417  0.1715  0.2927 -0.3097
38956W        W81972  24.484  30.944   9.847  0.1443  0.2458 -0.0416
38957W        W81973  24.681  34.394   2.923  0.1238  0.0924  0.0220
38958W        W81974  30.440  10.504   5.137  0.1969 -0.4091 -0.0378
38959W        W81975  22.629  22.189  21.735  0.0491  0.1296 -0.0381
38960W        W81976  28.571  20.989   9.447 -0.0984  0.1786  0.2950
38961W        W81977  26.119   8.953  10.323  0.0208  0.2501 -0.1212
38962W        W81978  26.684  27.724  10.987 -0.2582  0.0222 -0.0915
38963W        W81979  18.231   4.864   5.499  0.0708  0.2983  0.1087
38964W        W81980   1.292   1.574   9.238 -0.0635 -0.0285 -0.0594
38965W        W81981  25.567  14.937   6.350 -0.0733  0.1279 -0.0622
38966W        W81982  29.802  29.489  11.507 -0.1473  0.1301 -0.0225
38967W        W81983  28.166   0.030  24.720  0.1733  0.1722  0.1812
38968W        W81984  27.483  17.635   9.305 -0.0179  0.1912 -0.1339
38969W        W81985  26.028  20.519   7.456 -0.0668 -0.2426  0.2289
38970W        W81986  18.641  28.871   7.519  0.1243  0.1532 -0.0011
38971W        W81987  25.882  24.912   3.956  0.2826  0.1828  0.0508
38972W        W81988   2.991  21.451  20.115  0.0934  0.2385  0.2945
38973W        W81989  15.790  21.349   4.355 -0.1712  0.1474  0.0956
38974W        W81990  12.935  24.988   8.546  0.1907  0.2867  0.1788
38975W        W81991  26.764  17.003  25.832  0.2743  0.0514 -0.2554
38976W        W81992   1.229  29.711   9.417  0.0200 -0.2174  0.0316
38977W        W81993  22.336   2.180   2.267  0.0397 -0.1953 -0.2244
38978W        W81994   8.276  29.117   4.735  0.1635  0.0173  0.4485
38979W        W81995  31.940  17.873   5.013  0.1196  0.0818 -0.0944
38980W        W81996  28.833  30.728  20.863 -0.1449 -0.2555 -0.3383
38981W        W81997  23.694   4.394  26.550 -0.4307 -0.0722  0.0087
38982W        W81998  23.627  11.582   9.341 -0.1570  0.0911  0.0836
38983W        W81999  20.470  22.511  23.074  0.2874 -0.2929  0.1178
38984W        W82000  24.450  24.305  28.633 -0.0415  0.2170  0.1605
38985W        W82001  23.053  25.192   5.567  0.1988  0.3413  0.0325
38986W        W82002  15.196   8.928   7.420 -0.0861 -0.2921 -0.0674
38987W        W82003  17.744   9.001   0.811  0.1937  0.0884 -0.0584
38988W        W82004   2.967  23.866   4.389  0.0675  0.7114  0.0956
38989W        W82005  25.455  31.080   1.100  0.3262  0.1134  0.1342
38990W        W82006  25.921  28.877   3.935  0.0052  0.0600  0.0484
38991W        W82007  32.558  18.342  18.390 -0.2189  0.1217  0.3051
38992W        W82008  29.471  25.715   6.856  0.1339  0.2244 -0.1155
38993W        W82009   1.853  23.067   0.877  0.1004  0.0536  0.1719
38994W        W82010  24.948  33.528   8.956 -0.0134 -0.1073 -0.0293
38995W        W82011   7.671   3.268  28.294  0.0359  0.0271 -0.0920
38996W        W82012  27.727  25.477   1.620 -0.0681 -0.1721 -0.0779
38997W        W82013   5.252  27.569   1.172 -0.2333 -0.3732  0.2103
38998W        W82014   6.808   2.241   6.722 -0.3007  0.0685 -0.1736
38999W        W82015  23.514   8.630   7.399 -0.0341 -0.0879 -0.1131
39000W        W82016  13.142  29.721  19.246 -0.2573 -0.0166  0.1819
39001W        W82017   5.894  32.159  27.737 -0.0160 -0.0493  0.0275
39002W        W82018  26.534  21.261   7.044 -0.2828 -0.2004 -0.0980
39003W        W82019  31.577   7.088  19.082  0.0922 -0.1215  0.1369
39004W        W82020  30.061  33.535  23.046 -0.1294  0.0729  0.2200
39005W        W82021  31.190  10.197   1.323 -0.2212 -0.0384  0.2613
39006W        W82022  12.288   2.561   9.140  0.1010 -0.1739  0.0988
39007W        W82023  33.788  22.251   1.226 -0.1447 -0.1573 -0.1299
39008W        W82024   1.983  34.168   2.102 -0.0352 -0.1092 -0.2812
39009W        W82025  33.884   2.673   2.535 -0.0810  0.1315 -0.2755
39010W        W82026  27.496   2.032   0.184  0.0986  0.0372  0.0748
39011W        W82027  26.571   1.969   4.827 -0.3591 -0.0637  0.0003
39012W        W82028  30.491  29.242  10.917 -0.0498  0.0706  0.2640
39013W        W82029  29.319   3.618  28.763 -0.2841  0.0488  0.0809
39014W        W82030  33.704   9.121   9.645  0.3163 -0.1193 -0.0743
39015W        W82031  18.164  20.667  26.326  0.0090  0.0263  0.0098
39016W        W82032  18.557   1.192   9.044  0.2182 -0.1541  0.0181
39017W        W82033  11.408   3.972   9.411  0.3294 -0.0948 -0.0614
39018W        W82034  18.527  25.507   1.945 -0.1502  0.2341  0.3150
39019W        W82035  21.337  21.481   0.984 -0.0292  0.2640  0.1677
39020W        W82036  31.860  19.820   5.914  0.4089 -0.4890 -0.0011
39021W        W82037  14.440  11.899  20.722 -0.1185  0.1872  0.1322
39022W        W82038  34.651   1.593  20.677 -0.1466 -0.2968  0.2948
39023W        W82039  12.568  33.688   8.842 -0.4205 -0.2340  0.2503
39024W        W82040  22.435   4.192  23.344  0.1023 -0.0321 -0.1864
39025W        W82041   4.676   1.392  23.784 -0.1918  0.2685  0.1102
39026W        W82042  26.670  26.848   3.556  0.0497  0.2555 -0.1331
39027W        W82043  30.655   7.644   0.530  0.0779  0.1993  0.2077
39028W        W82044   6.728  33.093  28.543  0.0960 -0.0356  0.2497
39029W        W82045  29.689  20.135   7.425  0.1102  0.0580  0.1574
39030W        W82046   8.901  29.395   6.697  0.0990 -0.2945  0.0336
39031W        W82047  17.435  23.227   0.597 -0.5181 -0.1283  0.0911
39032W        W82048  15.000  24.440  27.956  0.1956  0.3115  0.0617
39033W        W82049   2.891  20.477   2.390  0.0367 -0.0046 -0.1623
39034W        W82050  27.776  19.478  29.233  0.1933 -0.0252 -0.1936
39035W        W82051  27.918  17.096   8.236  0.0148  0.3104  0.0165
39036W        W82052   4.074  14.828  14.471  0.0091  0.0014  0.0988
39037W        W82053  27.372  34.641   8.601  0.0442  0.5279  0.0827
39038W        W82054  23.202   0.915  25.974  0.1146  0.0634  0.0518
39039W        W82055  16.893  30.512   3.345 -0.0017  0.0447 -0.4142
39040W        W82056  33.367   1.122  23.063  0.2250 -0.0794  0.0468
39041W        W82057  11.665  31.653   5.220  0.0058 -0.0186  0.0644
39042W        W82058  31.773   7.326   3.514  0.0178 -0.4954 -0.0662
39043W        W82059  17.745  24.853   3.851 -0.0576 -0.1420  0.1403
39044W        W82060  23.694  26.755   9.368 -0.3136 -0.3307 -0.2232
39045W        W82061   5.926  34.362   5.637  0.1371 -0.1334 -0.3143
39046W        W82062  27.581  19.443   1.488 -0.1946 -0.0143  0.3303
39047W        W82063  24.195  26.527   8.182  0.2161 -0.1908  0.0398
39048W        W82064  14.351  27.635   9.181 -0.2154  0.4500  0.1015
39049W        W82065  17.758  23.261   2.641  0.0141 -0.2995 -0.0743
39050W        W82066  18.589  33.361  28.295  0.0026 -0.0688  0.0318
39051W        W82067   0.076  15.125   0.004  0.0571 -0.1070  0.0310
39052W        W82068  11.105  25.139   2.386 -0.0765 -0.1390 -0.0493
39053W        W82069  34.650  26.667  27.567  0.0630 -0.0589  0.1234
39054W        W82070   9.263  15.781   2.928 -0.2775  0.0053  0.4023
39055W        W82071  20.317  21.221  20.830 -0.0501  0.0667  0.0232
39056W        W82072  32.388  31.348   6.374 -0.0290  0.0161 -0.1976
39057W        W82073  29.790  26.147  10.418 -0.0614 -0.0554  0.0268
39058W        W82074   4.048   0.254   5.877 -0.0341  0.1584 -0.1213
39059W        W82075   3.262  29.732   9.080  0.3214  0.1234 -0.1534
39060W        W82076   6.534  33.150   8.740 -0.2145 -0.1636  0.2185
39061W        W82077  21.037  33.096   1.656  0.0480  0.0956 -0.1671
39062W        W82078  24.384   4.843   3.321 -0.0477 -0.0376  0.2079
39063W        W82079  14.106  22.286  29.153  0.0759  0.0423  0.0002
39064W        W82080  17.616  28.669  21.024  0.1171  0.1202  0.1497
39065W        W82081   0.424  24.260  29.291  0.1548 -0.3044 -0.2646
39066W        W82082  32.570  34.120   7.542 -0.1671 -0.0634 -0.1311
39067W        W82083   0.228   6.195   3.324  0.0623 -0.0044  0.1110
39068W        W82084   5.232   1.683   6.704  0.0498  0.3250 -0.1671
39069W        W82085  34.522  23.031   9.073 -0.0677 -0.0811  0.1158
39070W        W82086  29.634  26.380   2.375  0.1739  0.1253  0.1080
39071W        W82087  23.477  14.996   1.905 -0.0809 -0.0696 -0.3501
39072W        W82088  27.371   6.246   5.823  0.0151  0.2614 -0.0303
39073W        W82089  28.983  20.851  20.913 -0.0682 -0.0460  0.1557
39074W        W82090  23.864  29.339  10.956 -0.0241 -0.1000  0.1749
39075W        W82091  26.539   7.605   1.821  0.2022 -0.1239  0.3169
39076W        W82092   6.201  27.711   7.392 -0.0306 -0.1279  0.2786
39077W        W82093  23.638   6.581   9.691 -0.1426  0.2666  0.0444
39078W        W82094  24.961   4.528  20.247  0.0048  0.2334 -0.2681
39079W        W82095  32.424  27.636   8.026 -0.0713 -0.0041  0.3762
39080W        W82096  21.898  31.551   2.016 -0.2281  0.0666  0.2143
39081W        W82097  21.935  15.252  26.195  0.2804  0.2507 -0.2456
39082W        W82098   0.253  12.994  16.835 -0.2135 -0.1806 -0.0495
39083W        W82099  32.613  22.127   8.284 -0.2566  0.1501 -0.3391
39084W        W82100   4.688  26.983   7.708 -0.1166 -0.0849  0.2048
39085W        W82101  12.489  10.163  27.287 -0.0383 -0.1568  0.0396
39086W        W82102  33.825  11.663   7.418  0.2522  0.3583 -0.0939
39087W        W82103  25.771  26.237   2.203  0.1266 -0.1444 -0.0843
39088W        W82104  29.978  21.310  26.952  0.0392  0.2148  0.1061
39089W        W82105  26.046   1.138   6.977 -0.0146  0.2150  0.0840
39090W        W82106  23.924  25.020   9.469 -0.2037 -0.2967  0.2802
39091W        W82107   9.921  17.125   3.296  0.0208  0.1584  0.1286
39092W        W82108  34.520  31.120   1.130 -0.1375 -0.5718  0.1422
39093W        W82109   3.101  32.620  20.601 -0.1468 -0.0687 -0.0918
39094W        W82110   8.443  14.770   0.593  0.0104 -0.0067  0.0140
39095W        W82111  28.131  29.444   8.827  0.1916  0.3419 -0.1611
39096W        W82112  30.437  34.470  20.593  0.0509  0.2757  0.0363
39097W        W82113  32.416   9.768   7.690  0.0187  0.1092  0.1721
39098W        W82114  16.730   8.723  27.389  0.0431 -0.0934  0.0199
39099W        W82115  31.114  32.889  26.109 -0.2779 -0.0579 -0.0870
39100W        W82116   0.163   6.414  17.197 -0.0553  0.4068  0.4467
39101W        W82117   6.013  34.760   5.157  0.0152  0.0058  0.0876
39102W        W82118  30.225  23.777  22.094 -0.0528 -0.0634 -0.0057
39103W        W82119   2.421  25.388   8.741  0.0001 -0.0017  0.1283
39104W        W82120  34.339  28.892   1.440  0.2418 -0.1937  0.0906
39105W        W82121  32.830   4.224   5.036  0.0883  0.0415 -0.3168
39106W        W82122  19.140   6.517  29.061  0.2913  0.5283 -0.0149
39107W        W82123  33.466  25.527  26.931  0.4245  0.1233 -0.2089
39108W        W82124  19.203  21.757   5.890  0.2237 -0.3357 -0.1648
39109W        W82125   0.266  22.929   4.509 -0.3994 -0.0156  0.0844
39110W        W82126  21.925  17.462   2.456  0.0577 -0.1130  0.1763
39111W        W82127   4.988   6.837  29.007 -0.0434 -0.2659  0.3174
39112W        W82128   1.093  28.086   7.842 -0.1449 -0.1924  0.0869
39113W        W82129  18.056   5.293  26.303 -0.5833  0.0792  0.1112
39114W        W82130  31.277   1.935   9.725 -0.0351  0.0071  0.0748
39115W        W82131  32.443   9.349   0.706  0.4724  0.1666  0.2020
39116W        W82132  31.994  33.521   5.112 -0.2042 -0.1093  0.1365
39117W        W82133  28.466   7.292   3.799 -0.2920 -0.1311 -0.1912
39118W        W82134  29.036  13.241  28.386 -0.0270 -0.4084 -0.0504
39119W        W82135  33.881   9.606  23.966 -0.0176 -0.0766 -0.2560
39120W        W82136  27.130   4.951  10.104  0.1014  0.0747 -0.2849
39121W        W82137  33.063   1.836  26.352  0.0423 -0.2011  0.2655
39122W        W82138   3.221  16.456   5.794  0.0206  0.2325 -0.0218
39123W        W82139   0.654   9.675  10.507 -0.1384 -0.1048  0.3720
39124W        W82140  30.423   1.033  11.234  0.2914 -0.0645  0.0203
39125W        W82141  28.207  28.221  28.987 -0.0589  0.0677 -0.1270
39126W        W82142  31.719   3.064  25.633  0.2005  0.1456  0.0888
39127W        W82143   4.675  32.426   5.848  0.2306  0.3899 -0.1125
39128W        W82144  22.087  29.388  10.043 -0.0628  0.0104  0.1304
39129W        W82145  22.538  26.565  10.043  0.2365  0.2094  0.1318
39130W        W82146  22.419  24.035  28.952  0.1743  0.0494 -0.0609
39131W        W82147  24.641  26.704  10.186  0.1311  0.1567  0.0352
39132W        W82148  27.427  28.693   2.486 -0.0249  0.1609 -0.1355
39133W        W82149  13.242  32.907   7.460  0.0747  0.1113  0.1664
39134W        W82150  11.026  25.162   0.386  0.0036 -0.0139 -0.1520
39135W        W82151  31.593  15.553   4.483  0.0215  0.0409 -0.2311
39136W        W82152  27.465  25.653  29.166 -0.0526 -0.1347 -0.1323
39137W        W82153  27.807  23.877  26.685  0.0704  0.0953 -0.0652
39138W        W82154  24.221  24.908  14.794  0.0582 -0.1774  0.3082
39139W        W82155   3.217   1.756   9.828  0.1941  0.1302  0.0931
39140W        W82156   2.700  32.697   3.241  0.2842 -0.5143 -0.0011
39141W        W82157  23.241   5.323  10.442  0.1882 -0.0880  0.2878
39142W        W82158  22.467  28.685  10.566 -0.1194 -0.0024 -0.1933
39143W        W82159   2.412  28.078   4.842  0.5571 -0.3353 -0.1525
39144W        W82160  13.563  22.949   0.989 -0.1043 -0.2330  0.1123
39145W        W82161  29.822   4.120  27.254 -0.2020  0.3105  0.1090
39146W        W82162  11.074   3.750   6.666 -0.0076  0.3649  0.0279
39147W        W82163  17.701  22.499   1.877 -0.2141  0.0973 -0.2151
39148W        W82164   8.192   2.007   8.379  0.3662  0.3742 -0.3622
39149W        W82165  19.645  33.373   1.452  0.0006 -0.1103 -0.2314
39150W        W82166  14.685  26.000   0.469 -0.0061  0.1350 -0.2490
39151W        W82167  16.921  34.244   8.423  0.3683  0.1861  0.0274
39152W        W82168  22.782  28.584   2.856 -0.0071 -0.0968  0.3356
39153W        W82169  34.219  11.930  27.127 -0.0956  0.2859 -0.0451
39154W        W82170  25.081   1.882  10.979 -0.0959 -0.1013  0.3079
39155W        W82171  28.675  27.402  26.537 -0.2750 -0.2313  0.0632
39156W        W82172  27.119   3.682  21.166  0.3358 -0.2314  0.0860
39157W        W82173  12.305  11.961  21.282  0.1467 -0.0905  0.3343
39158W        W82174  24.007   3.908  24.919  0.0122  0.2276  0.3310
39159W        W82175  32.305  30.391   9.860 -0.0118  0.1388 -0.0928
39160W        W82176   0.177   4.094   4.006 -0.0838  0.0538 -0.3209
39161W        W82177  33.530  25.062   5.621  0.2807  0.0129  0.0059
39162W        W82178   4.844  24.250   6.061  0.0389 -0.0759  0.1458
39163W        W82179  29.430  15.975   5.750 -0.1308 -0.2185 -0.0124
39164W        W82180  22.164  16.437  23.663  0.2080 -0.2048  0.1321
39165W        W82181  32.173   3.578   6.067  0.1544 -0.0146  0.0757
39166W        W82182  28.088   3.146   1.953 -0.2980  0.0853 -0.1613
39167W        W82183  25.746  19.044   7.575 -0.2153 -0.4383  0.1087
39168W        W82184  31.250  14.151   5.855 -0.0703 -0.0109 -0.2516
39169W        W82185   4.872  23.702  25.066 -0.1928 -0.2098  0.2748
39170W        W82186  23.665  16.670  14.103  0.0308 -0.1488  0.0998
39171W        W82187  27.357   8.754   3.770  0.2165  0.2777  0.1209
39172W        W82188  32.346  34.425   3.651 -0.0460 -0.2027  0.1135
39173W        W82189  26.648  17.913   4.167 -0.3459 -0.1560 -0.2157
39174W        W82190  17.247  26.811   7.455  0.0251 -0.1255  0.1648
39175W        W82191  32.956  31.760   6.630  0.0426  0.0883 -0.3551
39176W        W82192  28.090   8.328  28.077 -0.1921  0.0624  0.0247
39177W        W82193   2.322  27.682   7.187 -0.1240 -0.1423 -0.1246
39178W        W82194  30.155  16.397   9.802  0.0767  0.1175 -0.2531
39179W        W82195   0.011  15.444  20.040  0.1941  0.1062  0.1441
39180W        W82196  20.244  11.968   4.661  0.1374  0.2561  0.4726
39181W        W82197  26.161  24.901   1.882  0.0941 -0.0129  0.0206
39182W        W82198  34.565  30.457   9.756  0.3696 -0.1339 -0.0499
39183W        W82199   0.047   7.338  23.030  0.1347 -0.0786  0.2500
39184W        W82200  14.575   2.925   7.969 -0.5285  0.2012 -0.4936
39185W        W82201  32.233  31.087   4.230  0.4107  0.1893  0.1965
39186W        W82202  15.972  34.038   0.955  0.0999 -0.0442  0.1295
39187W        W82203   7.671  33.951  28.581  0.1901 -0.2580  0.2812
39188W        W82204  33.539  25.716   6.089 -0.0589 -0.0392  0.0019
39189W        W82205  14.116  31.624  25.023 -0.0201 -0.0589 -0.1040
39190W        W82206  19.320  32.206   8.903 -0.0498 -0.0650 -0.0060
39191W        W82207  17.033  22.624   2.446 -0.1139  0.3638 -0.0038
39192W        W82208  19.989  10.471   2.029  0.2190 -0.1292 -0.1043
39193W        W82209  26.971  29.976   3.503 -0.0414  0.1526  0.2808
39194W        W82210   8.908   6.298   9.702  0.1782 -0.0743  0.3567
39195W        W82211  11.800   0.097   9.139 -0.0420  0.1071 -0.2233
39196W        W82212  30.180   3.703  29.211 -0.1846 -0.0679  0.0764
39197W        W82213  24.006  16.993  15.371  0.0475 -0.0165  0.4662
39198W        W82214  19.458  34.357  10.776  0.0775 -0.1417 -0.0882
39199W        W82215  15.898  26.725   3.525  0.1388  0.1503  0.0569
39200W        W82216  11.415  16.009  25.333 -0.1286  0.0702  0.1498
39201W        W82217  26.735  34.468   2.727 -0.0943  0.0771 -0.0361
39202W        W82218  30.282  33.805   4.654  0.1124 -0.1311 -0.1537
39203W        W82219  25.463  22.537   0.762  0.3135 -0.1680  0.1382
39204W        W82220  28.631   3.094  28.690  0.1169 -0.1693 -0.3771
39205W        W82221  26.381   8.056   4.799 -0.1466  0.1447  0.2664
39206W        W82222  25.847   6.735   3.542 -0.2516 -0.5601 -0.3589
39207W        W82223  25.064  21.933   6.549  0.2377  0.3679  0.2398
39208W        W82224  34.290   9.209   9.646  0.1313  0.1303 -0.0740
39209W        W82225  34.156  33.043  28.399 -0.2407 -0.0228  0.1109
39210W        W82226   7.862   0.676   9.628  0.1031  0.0494 -0.1307
39211W        W82227   8.683   7.904   6.073  0.0656 -0.0543  0.0296
39212W        W82228  10.631  19.303  26.208 -0.1116  0.1350  0.0980
39213W        W82229  31.122  28.494  19.769  0.1918 -0.1259 -0.0476
39214W        W82230   1.957  25.423   8.982 -0.0012 -0.1044 -0.0198
39215W        W82231  33.748   4.485  26.151 -0.3021 -0.1492  0.1177
39216W        W82232  30.065   4.453  10.204  0.0727 -0.1188 -0.3596
39217W        W82233  11.118  29.236   5.018 -0.1290 -0.0883  0.1181
39218W        W82234  17.710  20.861   7.607  0.1374 -0.1074  0.2461
39219W        W82235  20.741  21.863  28.605  0.2269  0.1219 -0.0849
39220W        W82236  29.884   7.783  28.541  0.1116 -0.1464  0.1128
39221W        W82237  23.341   6.424  24.988 -0.1132  0.1211 -0.1678
39222W        W82238  21.527   4.406   8.939 -0.0413  0.0268 -0.2606
39223W        W82239  23.241  27.349  25.601  0.0020  0.3068 -0.0721
39224W        W82240  23.798  25.608   4.984  0.2945 -0.0450 -0.2106
39225W        W82241  15.407  19.820  25.543  0.1221  0.1396  0.2457
39226W        W82242  31.590  19.957   7.174  0.2022  0.0030 -0.0435
39227W        W82243  13.954  23.633  24.803  0.2167 -0.0808 -0.0577
39228W        W82244   8.039  27.442   4.817 -0.0866  0.3078 -0.4207
39229W        W82245  31.164  23.333   7.866  0.0823 -0.0228  0.0596
39230W        W82246  16.830  33.963   0.501  0.2447  0.0585 -0.1719
39231W        W82247  14.191  25.741  26.637  0.1894  0.1904  0.1839
39232W        W82248  21.669  27.283  27.142 -0.3354  0.0668 -0.3596
39233W        W82249  33.340  31.279  26.625 -0.2768 -0.3270 -0.0643
39234W        W82250  18.389  25.128   7.801  0.0644 -0.1197 -0.2844
39235W        W82251  27.427  22.244   3.652  0.1789  0.2164  0.0960
39236W        W82252  18.049  12.079  29.136 -0.0584 -0.1520  0.0207
39237W        W82253  22.383  27.767   6.743  0.1181  0.0201 -0.2323
39238W        W82254  28.238  31.701   6.640  0.1458  0.2884  0.4042
39239W        W82255  22.326  21.788   2.158  0.0750  0.0332 -0.1130
39240W        W82256  28.648  14.744   5.129 -0.0130  0.0724 -0.3577
39241W        W82257  20.827  11.017   8.768 -0.0698  0.2185 -0.2306
39242W        W82258  12.261  24.301   0.924 -0.0870  0.0991 -0.1238
39243W        W82259   9.112   3.441   4.113 -0.1152  0.3625 -0.1132
39244W        W82260  14.045  23.858  27.169 -0.2893 -0.0873 -0.3052
39245W        W82261  32.106  28.278   5.678 -0.3072 -0.1760 -0.0495
39246W        W82262  20.590  25.462   3.417 -0.0906 -0.0702 -0.1159
39247W        W82263  23.688  20.243   3.656  0.0683 -0.2975 -0.1710
39248W        W82264  21.471   9.481  26.128 -0.1601 -0.1699  0.3141
39249W        W82265  20.192  29.046   6.743  0.0719 -0.1172  0.2077
39250W        W82266  22.041  26.345   3.370 -0.0902  0.3602 -0.1872
39251W        W82267  19.119  30.399   2.085 -0.2623  0.2972 -0.0129
39252W        W82268  32.902  16.100  10.010 -0.1473  0.0594 -0.1525
39253W        W82269  16.065  26.280   6.192 -0.0043 -0.3633  0.0015
39254W        W82270  24.621  15.602  26.700 -0.0470 -0.1126 -0.0404
39255W        W82271  19.622  28.400  28.282 -0.2394 -0.4527 -0.2289
39256W        W82272  22.943   1.746   9.961  0.0483 -0.0285  0.0183
39257W        W82273  19.697   4.791   4.041  0.2229 -0.0645 -0.2152
39258W        W82274  34.565  25.777  27.722  0.0606 -0.2537  0.2132
39259W        W82275  26.852  19.908  26.181 -0.0506 -0.2399  0.0285
39260W        W82276   1.017  19.243  27.433  0.3725  0.1908 -0.0641
39261W        W82277  32.939  32.401   5.143  0.3488  0.1894 -0.1172
39262W        W82278  18.938  24.815  24.773  0.1597  0.0118 -0.1196
39263W        W82279  24.737  33.469  26.071 -0.0385  0.1314 -0.4587
39264W        W82280  25.583  20.002   7.887 -0.3209  0.1120 -0.0569
39265W        W82281  20.135  23.382  16.269 -0.0731  0.0956  0.0842
39266W        W82282  20.210  13.082  23.597  0.1654 -0.2150 -0.1348
39267W        W82283  33.925  23.504   1.794  0.2048 -0.2992 -0.0222
39268W        W82284   4.401   1.556   0.208 -0.2069 -0.1580  0.2061
39269W        W82285   9.744  22.952   3.496 -0.0685  0.1831  0.0069
39270W        W82286  33.145  24.530   1.133  0.0555  0.2002  0.1936
39271W        W82287  28.497   4.024   5.132  0.1393  0.2513  0.1343
39272W        W82288  25.936  26.819   0.314 -0.1814  0.1394  0.0706
39273W        W82289  15.546  27.326  16.972  0.0975  0.0333 -0.2028
39274W        W82290   5.311  24.349   4.612  0.1364 -0.0644  0.0217
39275W        W82291   2.361  10.580   6.339 -0.0320 -0.0299 -0.0171
39276W        W82292  25.736  29.810   9.907 -0.2360  0.0648  0.1507
39277W        W82293   4.046   7.363   7.169  0.0492  0.0264 -0.1751
39278W        W82294  28.308   1.774  10.156  0.1093 -0.1405  0.1044
39279W        W82295  31.375  22.530   4.268  0.0859  0.0777  0.3438
39280W        W82296  23.574   6.033  28.047 -0.0176  0.1127 -0.1249
39281W        W82297  21.031   6.164   7.313  0.2564 -0.0509  0.3858
39282W        W82298  19.444  29.698   8.906 -0.3143  0.0075 -0.0999
39283W        W82299  13.448  31.501  19.036 -0.3056 -0.0516 -0.0308
39284W        W82300  10.237   0.781   8.897  0.1165  0.0687  0.1563
39285W        W82301  19.947   0.418   9.854 -0.0063 -0.1439  0.0707
39286W        W82302  22.253  34.728   8.684 -0.0587 -0.1031  0.4168
39287W        W82303   3.281   4.916   0.430 -0.0659 -0.2000  0.1698
39288W        W82304  20.612  25.828  27.018  0.1846  0.4692 -0.0827
39289W        W82305  30.850  26.296   3.329 -0.1357 -0.3690 -0.0124
39290W        W82306  13.555  13.851  25.962  0.2493  0.0719  0.0109
39291W        W82307   0.885  15.767   0.293 -0.1563 -0.2275  0.1675
39292W        W82308  33.226  19.965   4.163  0.0135 -0.2403 -0.2107
39293W        W82309  16.850  29.233  16.460 -0.1128 -0.1452  0.0841
39294W        W82310  31.874  26.209   7.364 -0.0645  0.0178  0.3225
39295W        W82311  15.850   5.783  24.953  0.1385  0.0316 -0.0706
39296W        W82312  12.656  23.464  23.862  0.2437  0.0201 -0.0325
39297W        W82313  22.767  31.821   8.616  0.1516  0.2560 -0.0225
39298W        W82314  17.645  22.130  17.144  0.1916  0.0591  0.1672
39299W        W82315   9.787  31.494  28.799  0.0457  0.0525  0.1453
39300W        W82316   5.076  31.971   1.937 -0.1470  0.0955 -0.1484
39301W        W82317  27.719   5.529   8.837 -0.0363 -0.2739  0.2479
39302W        W82318  31.820  30.160  25.722 -0.0700  0.1856 -0.2837
39303W        W82319  24.699   9.826   4.025 -0.1777  0.0891 -0.0221
39304W        W82320  34.510  22.225   8.481 -0.1337  0.0992 -0.2413
39305W        W82321  27.204   2.782  21.180  0.0448  0.1062  0.1140
39306W        W82322   5.927  14.560   5.813  0.0164 -0.5002  0.1354
39307W        W82323   4.669   7.143   8.047  0.0324 -0.1763  0.0762
39308W        W82324  21.935  27.513   9.221  0.0188  0.0913  0.2001
39309W        W82325  13.060  26.856   3.953  0.0755  0.1348 -0.1105
39310W        W82326   1.905  21.854   7.029 -0.0036  0.2791  0.4068
39311W        W82327  17.717   5.660   7.722 -0.1190  0.2581 -0.3625
39312W        W82328  22.133  25.569   6.910  0.0818  0.0577  0.0114
39313W        W82329  23.000  14.567   7.161 -0.1951 -0.0485  0.2663
39314W        W82330  24.780  33.182   2.099 -0.2390  0.1635 -0.3158
39315W        W82331   6.937   8.197   3.746  0.0213  0.0615 -0.0910
39316W        W82332   8.159   4.643  13.914 -0.1843  0.1571 -0.0268
39317W        W82333   8.269  13.484  27.215 -0.0065  0.2959  0.2036
39318W        W82334  16.728  21.323   9.203  0.1973  0.0106  0.0546
39319W        W82335   0.204   8.287  27.922 -0.0353  0.2396 -0.1860
39320W        W82336  15.179   2.183   4.978  0.1777  0.0379 -0.3308
39321W        W82337   9.011  18.012  24.758  0.0335  0.1009 -0.3238
39322W        W82338  32.460   6.629   1.055  0.0859  0.0764 -0.1041
39323W        W82339  25.241  34.270   3.527  0.4992  0.1261 -0.0040
39324W        W82340  32.292   4.079   2.590  0.0004  0.0948  0.2954
39325W        W82341   2.132  21.387   8.024  0.2639 -0.2409  0.1888
39326W        W82342   7.148  28.828   4.172  0.2420 -0.1136 -0.1514
39327W        W82343  27.601  19.972  21.154 -0.1692  0.1677 -0.3089
39328W        W82344  23.363  13.758  25.873  0.0943 -0.0538  0.2466
39329W        W82345  27.418   3.437   8.414  0.2339  0.0983  0.0015
39330W        W82346  18.562  25.338  16.489 -0.0009  0.2715  0.2491
39331W        W82347  28.879  25.956   3.087 -0.0096  0.3208  0.0761
39332W        W82348  28.873   6.996   5.051 -0.0383  0.1917 -0.3612
39333W        W82349  14.157  27.206  28.177  0.0845 -0.1029 -0.0836
39334W        W82350  20.683   3.070   6.165  0.0670 -0.0943  0.0233
39335W        W82351  23.944  25.170   0.382 -0.1196 -0.1672  0.2491
39336W        W82352  33.702   1.742   6.052  0.1301 -0.0123 -0.3614
39337W        W82353  17.456   0.731   3.697 -0.1821  0.0916  0.0448
39338W        W82354  25.863   0.933  27.385  0.1066 -0.0770 -0.3220
39339W        W82355  27.008  33.618   1.778 -0.0147 -0.3443  0.2733
39340W        W82356   1.440  31.878  22.657 -0.1923 -0.0394  0.3790
39341W        W82357   5.592  14.968  24.161 -0.0516  0.0673 -0.0903
39342W        W82358   0.407  16.787  20.307  0.0822  0.4319  0.1519
39343W        W82359   6.781  34.137   9.463  0.3219 -0.3220  0.1064
39344W        W82360  33.769   1.185  25.044  0.0285  0.0421  0.3476
39345W        W82361  32.419  30.747   0.341 -0.2145 -0.0947  0.0250
39346W        W82362  25.257  28.222  21.450 -0.0812 -0.2896 -0.0528
39347W        W82363  26.217  25.113   4.204  0.1563 -0.0180  0.2342
39348W        W82364  16.222   2.239   4.053  0.1394 -0.3788 -0.0665
39349W        W82365  24.857   0.237   8.655 -0.0918  0.0453 -0.1910
39350W        W82366  29.270   3.631   4.569  0.0278  0.4191 -0.0634
39351W        W82367   8.806  17.304  16.567 -0.1647 -0.1180 -0.0914
39352W        W82368  21.200  20.470  23.810 -0.0362  0.0500  0.1598
39353W        W82369  28.259  28.785   2.149 -0.4933  0.0646 -0.1614
39354W        W82370   0.715  30.833  19.288 -0.2979 -0.0166 -0.1419
39355W        W82371  10.537   0.433   3.825 -0.0978  0.1683  0.0073
39356W        W82372   4.896  23.352   4.238  0.0799 -0.2291 -0.3618
39357W        W82373  33.893  26.469   3.280 -0.1803 -0.0816  0.0198
39358W        W82374  20.528  23.020   8.894 -0.1311  0.1252  0.3125
39359W        W82375  10.949  17.211  18.577  0.2714 -0.2646  0.0911
39360W        W82376  31.188  26.539   2.957 -0.0490 -0.1242 -0.2489
39361W        W82377   1.529  21.372   0.037  0.0494  0.0302 -0.0479
39362W        W82378  22.907  22.145  29.017 -0.0893 -0.0881  0.3809
39363W        W82379  15.298  26.714   8.476  0.2995 -0.1485  0.1596
39364W        W82380  33.793  26.572   6.434  0.2314 -0.0890 -0.1591
39365W        W82381   4.631   1.020   4.801 -0.0838  0.1673 -0.1427
39366W        W82382  34.220  27.761  28.727 -0.0759  0.2585 -0.0273
39367W        W82383  18.717  10.676   0.524  0.0989  0.0641  0.0877
39368W        W82384  18.715  17.023  22.678  0.2833 -0.2199  0.0654
39369W        W82385  21.657   2.722   7.401  0.0581 -0.2215  0.2083
39370W        W82386   7.125  24.956   3.344  0.0842 -0.1324 -0.0679
39371W        W82387   8.952  20.364  25.384  0.2913  0.0557 -0.0547
39372W        W82388  24.164   9.627   6.545  0.1366 -0.0698 -0.1459
39373W        W82389  25.903  22.912   8.070  0.2004  0.0186 -0.1193
39374W        W82390   3.870  24.055   9.193 -0.0331  0.2557  0.0096
39375W        W82391  21.704  11.242  24.835 -0.0278  0.1881 -0.3568
39376W        W82392  27.295   1.372  28.283 -0.0358  0.1983  0.0744
39377W        W82393   9.630  31.441  29.278 -0.2315  0.0088 -0.0892
39378W        W82394  26.507  30.408   8.190 -0.1908 -0.0575  0.4343
39379W        W82395  25.816  31.783   1.335 -0.1596 -0.1598  0.1345
39380W        W82396  12.829  16.137   7.541  0.0923 -0.2459  0.1028
39381W        W82397  20.267  10.510   8.099 -0.0310  0.0292 -0.2047
39382W        W82398  25.764   3.315   0.361  0.0811 -0.0461 -0.1162
39383W        W82399  18.932  30.260   3.570 -0.0006  0.1343 -0.1307
39384W        W82400  29.400  18.271   6.648  0.2467 -0.1090  0.1412
39385W        W82401  21.844  15.905   6.328  0.0754 -0.3537 -0.2404
39386W        W82402  21.453  31.417  25.452  0.2601 -0.0883  0.1794
39387W        W82403  29.471  29.635   1.410 -0.3004 -0.2433 -0.0954
39388W        W82404  23.844  25.806   3.711  0.2267 -0.0963 -0.2351
39389W        W82405  31.312  25.678   0.862  0.1214 -0.0189 -0.1325
39390W        W82406  13.172  28.896   9.775 -0.0286 -0.0652 -0.0925
39391W        W82407  22.398   0.703   8.230 -0.0764 -0.0065 -0.0534
39392W        W82408   0.838  34.776   9.932 -0.0069  0.2733 -0.0454
39393W        W82409   0.786  26.155  10.102  0.2244  0.3255 -0.1307
39394W        W82410  12.022  32.590   5.532 -0.0646  0.3296 -0.2342
39395W        W82411  26.192  26.519  17.613  0.0320 -0.0295 -0.2412
39396W        W82412  26.514   4.736   4.918 -0.2224 -0.4849 -0.1840
39397W        W82413  32.967  28.428   8.600 -0.1095 -0.0089 -0.1048
39398W        W82414  14.864   0.431  28.830  0.0203 -0.3851 -0.1210
39399W        W82415  32.134  32.067  10.775 -0.0984 -0.1244 -0.0671
39400W        W82416  24.490  33.198   9.410 -0.0427  0.0859  0.0296
39401W        W82417  29.124  27.308  10.211 -0.3424  0.2724 -0.2545
39402W        W82418  16.653   1.110   4.292  0.1510 -0.0646 -0.3451
39403W        W82419  21.465  12.963   5.447  0.5108 -0.0638  0.2614
39404W        W82420   6.619  28.660   4.700 -0.2155 -0.0125  0.0403
39405W        W82421   6.528  24.284   7.254 -0.0828  0.1259  0.1519
39406W        W82422  34.663   7.606   4.147 -0.0735 -0.0129  0.1492
39407W        W82423  11.740  24.219   4.512 -0.2613 -0.0071  0.0064
39408W        W82424  32.348  26.736   7.763  0.2674  0.2314  0.0108
39409W        W82425  18.962  29.699   3.829  0.1101 -0.2155  0.3029
39410W        W82426  16.177  33.280   9.400 -0.0227  0.2443 -0.0639
39411W        W82427  26.406  18.713  25.639  0.2035 -0.2342 -0.2047
39412W        W82428  30.987  34.141  26.506  0.1018 -0.0848  0.0465
39413W        W82429  28.302  22.765   0.209 -0.0737  0.1794  0.2941
39414W        W82430  23.897  32.442   9.789 -0.0132 -0.1237  0.1049
39415W        W82431   3.160  30.360  14.802  0.2208 -0.0571 -0.2969
39416W        W82432  11.444  24.021  29.258  0.2507 -0.0498 -0.0531
39417W        W82433  30.997  11.378   8.558 -0.0705  0.2529  0.0487
39418W        W82434  16.313  14.953   8.535 -0.0251  0.2173 -0.3271
39419W        W82435  26.626  21.529   0.233 -0.2640  0.0480 -0.0508
39420W        W82436  17.527  30.209   2.971  0.3330  0.0051  0.1504
39421W        W82437   0.877  13.441   0.685  0.2918  0.0966 -0.2247
39422W        W82438  15.322   1.496   1.607  0.2759  0.0075  0.1804
39423W        W82439  24.098  15.195   6.482  0.1982  0.1511  0.0548
39424W        W82440  12.325  10.010  28.921  0.1823  0.1815 -0.0165
39425W        W82441  13.865  13.149  20.723  0.2720  0.0190  0.2158
39426W        W82442  15.241   3.098  28.845 -0.0696  0.1447  0.0507
39427W        W82443  27.864  25.611  11.411  0.2299  0.2537 -0.1252
39428W        W82444  20.396  16.971  15.411  0.0895  0.2215  0.2123
39429W        W82445   5.495   8.959  28.371  0.0825  0.0856 -0.2795
39430W        W82446  20.459   4.694   0.438  0.0089  0.0413 -0.2512
39431W        W82447  22.936   9.322  23.407  0.1911 -0.1735 -0.0194
39432W        W82448  12.920   1.858  25.420  0.0182 -0.2387  0.4872
39433W        W82449   0.909  33.428  27.493 -0.2703  0.0463 -0.0094
39434W        W82450  33.370  20.496  16.710 -0.0380  0.3311  0.0539
39435W        W82451  22.624  27.440  28.650  0.2216  0.1854  0.0668
39436W        W82452  19.230   7.990  25.196 -0.0043  0.0116 -0.0798
39437W        W82453   6.344   0.645   6.439 -0.0522  0.3534  0.0348
39438W        W82454  25.352  23.273   1.936 -0.1579 -0.4662  0.2546
39439W        W82455  15.594  25.822   9.000 -0.1807 -0.1855 -0.0684
39440W        W82456   3.483  22.540   7.733  0.0427 -0.0737  0.4427
39441W        W82457  34.622  33.491   9.834 -0.2574  0.2725 -0.2694
39442W        W82458  27.735  33.109   8.778 -0.0391 -0.2706  0.1718
39443W        W82459  27.149  26.155  10.904 -0.1050  0.0700  0.2016
39444W        W82460   9.328   5.007   6.957  0.1666  0.2251 -0.1471
39445W        W82461  28.105  31.899  29.009  0.0693  0.0323 -0.2536
39446W        W82462  19.801  31.240   2.375  0.1345  0.1701 -0.0116
39447W        W82463  25.430   5.552  10.728  0.0900  0.0805  0.2385
39448W        W82464   0.358  30.163  10.580  0.2379  0.0830 -0.2360
39449W        W82465  28.264  28.744  10.751  0.0935  0.0886 -0.0794
39450W        W82466   8.184  23.770   1.143  0.1340  0.2738  0.0852
39451W        W82467  22.923   7.887  23.905  0.0275 -0.0279  0.2115
39452W        W82468   8.045  24.871   1.805  0.3510  0.0532  0.2152
39453W        W82469  18.464  26.447  21.073 -0.0788  0.2564 -0.2910
39454W        W82470  19.481  11.080   1.400 -0.2840 -0.1625 -0.0615
39455W        W82471  34.183  21.289   4.067 -0.1875  0.0630  0.0797
39456W        W82472  18.963  16.289   3.749 -0.1927 -0.0410 -0.1189
39457W        W82473  29.199  24.369   9.396 -0.0778 -0.0138  0.2947
39458W        W82474  28.911  30.336   1.160  0.1615 -0.0725 -0.4271
39459W        W82475  30.361   3.337  28.870  0.1212  0.0517 -0.0482
39460W        W82476  27.329   3.698   3.481  0.1360  0.2020 -0.2278
39461W        W82477   2.281  32.217  27.893  0.0412  0.1025  0.1279
39462W        W82478  14.604  11.690  25.071 -0.2101  0.0113 -0.2389
39463W        W82479   6.828   9.993   0.028 -0.0105 -0.1980 -0.1933
39464W        W82480   5.073  22.861   8.712 -0.2616 -0.0576 -0.2929
39465W        W82481  13.544  33.788   9.943 -0.0086  0.1480  0.0938
39466W        W82482  25.580  29.614   0.118 -0.0910  0.1974 -0.3685
39467W        W82483  30.672  25.279   5.373  0.1659  0.1918  0.0362
39468W        W82484  27.757  17.908   9.960  0.3627  0.0059  0.1952
39469W        W82485  19.629  22.432  26.088 -0.0710  0.0194  0.1338
39470W        W82486  23.449   8.567   6.037 -0.0093  0.0658  0.0631
39471W        W82487  19.961  17.252  24.316 -0.4886 -0.0083  0.0411
39472W        W82488   5.016  16.613   8.020 -0.1997 -0.0614 -0.0337
39473W        W82489  27.824   3.283   4.323  0.1678 -0.0708  0.0666
39474W        W82490  28.141  20.355   9.157  0.1958 -0.2530  0.0850
39475W        W82491  24.346  26.788   2.926  0.1976 -0.1851  0.2733
39476W        W82492  13.564  30.170   6.849  0.1791 -0.1201  0.3039
39477W        W82493  28.176  27.632   6.430  0.2179 -0.0311  0.0628
39478W        W82494  21.587  31.209  10.691 -0.2874 -0.0887  0.0931
39479W        W82495  27.368  31.301   0.178 -0.2031  0.1009  0.1820
39480W        W82496  23.152   0.120  20.992 -0.1538 -0.1223 -0.0211
39481W        W82497  19.796  13.712  26.979  0.0254 -0.3251 -0.0118
39482W        W82498   8.513  29.681  25.967  0.1431 -0.1287 -0.0042
39483W        W82499  12.380  24.216  21.336 -0.1439 -0.0681 -0.0201
39484W        W82500   2.627  28.872   5.205 -0.2229  0.0990  0.1629
39485W        W82501  34.738  34.563   6.734 -0.1295  0.2710  0.0246
39486W        W82502  19.528  20.476   3.198 -0.1779 -0.2747  0.2172
39487W        W82503  34.045  30.452   8.465 -0.3214  0.1442 -0.2511
39488W        W82504  23.832  27.071  10.420  0.0344 -0.1039  0.0667
39489W        W82505   4.573  23.478   8.175 -0.0337 -0.0938  0.1452
39490W        W82506   1.003  30.588   7.562 -0.0531  0.2297 -0.1377
39491W        W82507  30.877  30.750   0.421  0.1027  0.0151 -0.1457
39492W        W82508  26.660  25.548   2.916 -0.1693  0.0591  0.0632
39493W        W82509  27.062   3.676   2.315 -0.0564 -0.0059 -0.1939
39494W        W82510  30.225   2.508   3.174 -0.1414  0.3099 -0.0146
39495W        W82511  29.311   1.802  10.006 -0.1791 -0.2983  0.1332
39496W        W82512  15.518   1.173   6.597  0.0032 -0.6141  0.1423
39497W        W82513   1.512  33.337   4.974 -0.1844 -0.3427  0.2988
39498W        W82514   7.988   0.352   3.682  0.2450 -0.0781 -0.0253
39499W        W82515  19.412  34.153   7.924  0.2361  0.2041  0.0970
39500W        W82516  15.386  18.013  20.481  0.1029 -0.0415  0.0649
39501W        W82517  21.236  29.458  10.853  0.0855 -0.0094  0.2482
39502W        W82518  27.922  20.428   7.149  0.0078 -0.1166 -0.0387
39503W        W82519  29.070  27.251   4.767 -0.0488  0.0909 -0.2026
39504W        W82520  19.793  16.326  21.277 -0.0265 -0.1338  0.5073
39505W        W82521   1.503   3.944   9.043  0.3279 -0.2503  0.1006
39506W        W82522  15.079  21.486   2.084 -0.2000 -0.1951 -0.0108
39507W        W82523  31.771  33.960   7.226 -0.0254  0.1806  0.0075
39508W        W82524  31.865  21.850  17.480  0.0209  0.2562  0.0989
39509W        W82525  28.729  30.919   7.604 -0.2120  0.1486 -0.0394
39510W        W82526  21.211  31.344  21.858 -0.3003 -0.0571 -0.1890
39511W        W82527  16.575  30.123  27.518 -0.1104  0.1684 -0.0156
39512W        W82528  20.013  29.619   0.742 -0.0584 -0.0798 -0.1248
39513W        W82529  24.893   4.416   8.360  0.0033 -0.1142 -0.1293
39514W        W82530  28.450  15.383  21.058 -0.1677 -0.1144 -0.0000
39515W        W82531   2.712  17.254   7.845 -0.0217  0.1725 -0.2443
39516W        W82532  24.875   1.190   7.420 -0.0244 -0.0228 -0.1812
39517W        W82533  11.396   1.709  22.887 -0.0545  0.3289 -0.1264
39518W        W82534  34.316  13.213  29.299  0.0989  0.2489  0.2596
39519W        W82535  17.383  34.584   8.534 -0.1285 -0.2276  0.0762
39520W        W82536  20.589  24.633   8.485 -0.1987 -0.2054  0.1232
39521W        W82537  20.514  13.312   1.801 -0.3201  0.1420  0.1169
39522W        W82538  13.674  23.009  29.298  0.1553  0.1771  0.1257
39523W        W82539  17.238  27.383   5.982  0.3954  0.0084  0.0564
39524W        W82540  33.428  16.348   8.575  0.1509 -0.4260 -0.2949
39525W        W82541  31.193  22.811   1.976 -0.0519 -0.0870  0.0084
39526W        W82542  25.016  31.105   0.750 -0.0893  0.0691 -0.0228
39527W        W82543  21.281  22.749   2.033  0.3267  0.0806  0.2148
39528W        W82544  22.037  33.219  10.615 -0.3377 -0.1322  0.0976
39529W        W82545  22.530  27.827   6.257  0.2382  0.0452 -0.1099
39530W        W82546  20.453  28.679  24.553  0.0378 -0.0300  0.0458
39531W        W82547   0.337   5.344  27.872  0.1822  0.2579  0.0400
39532W        W82548  21.636  31.620  29.261  0.0884  0.0210 -0.1015
39533W        W82549   0.373   4.845   3.163  0.0864  0.3680  0.3281
39534W        W82550   0.605  17.623  28.141  0.1554  0.0761 -0.0364
39535W        W82551  31.439  23.032   1.563  0.1705 -0.0027  0.0878
39536W        W82552  27.940  26.862  22.440 -0.2891  0.2369 -0.0556
39537W        W82553  14.438  31.999   7.991  0.1583  0.0794  0.0283
39538W        W82554  17.606  21.921   7.410  0.1194 -0.0250 -0.0728
39539W        W82555  30.308   9.953  28.086  0.0116 -0.3587 -0.0728
39540W        W82556  29.988  33.996   7.183 -0.0326 -0.1084  0.0285
39541W        W82557  25.171  15.774   0.448 -0.1316  0.4409 -0.1139
39542W        W82558  24.878   1.976  26.889  0.2065  0.3915 -0.1565
39543W        W82559  17.609   4.135   1.458 -0.3288 -0.0674 -0.1513
39544W        W82560  17.223  23.980  25.699 -0.1892 -0.1865  0.0221
39545W        W82561  33.408  31.604   6.432 -0.0565  0.0687 -0.2015
39546W        W82562  34.300   0.044   7.815 -0.0740 -0.1359 -0.0592
39547W        W82563  30.186  14.809   7.591 -0.1902  0.0451  0.2576
39548W        W82564  29.690  34.610   8.332  0.1260 -0.3230 -0.0105
39549W        W82565  28.869  19.805   2.857 -0.2101  0.0420 -0.0930
39550W        W82566  23.763  24.932  28.250 -0.0357  0.1589  0.1746
39551W        W82567  33.355  13.390  27.726 -0.0717  0.0390 -0.1690
39552W        W82568  18.590  12.131  24.670  0.2904 -0.2567 -0.3799
39553W        W82569  17.723  30.597  17.457  0.0181  0.1520  0.1101
39554W        W82570  29.449  19.142   7.357  0.2222 -0.2335  0.1369
39555W        W82571  20.979   6.994   5.494  0.1818 -0.1161 -0.0341
39556W        W82572  16.729  26.243   1.760 -0.1749 -0.0300 -0.0355
39557W        W82573  31.257  30.879  10.406 -0.0702  0.2047  0.1087
39558W        W82574  14.136  32.211   5.598  0.3734  0.2522  0.1754
39559W        W82575  20.969  25.285   1.797 -0.1472 -0.1421 -0.1397
39560W        W82576  25.751  22.249   5.990  0.1046 -0.1287  0.0912
39561W        W82577   1.314  31.488   8.690 -0.1973  0.2182 -0.0956
39562W        W82578  32.002   6.513  24.972 -0.1744 -0.3007  0.1727
39563W        W82579  33.051  19.117   8.680  0.0823  0.0245 -0.0806
39564W        W82580  26.379  34.685  11.779 -0.0626 -0.3565  0.0826
39565W        W82581  15.976  31.711   5.729  0.4225 -0.2225 -0.1917
39566W        W82582  23.197  30.812  29.279 -0.0435 -0.0908  0.0395
39567W        W82583  32.003   9.072   3.658  0.2090 -0.0475 -0.0938
39568W        W82584   4.649  15.763   3.141  0.0458  0.1682  0.0545
39569W        W82585  30.199  18.467   9.669 -0.2590  0.0283  0.1520
39570W        W82586  20.585  32.064   1.086  0.0231  0.0896  0.1234
39571W        W82587  21.891  29.091   0.826 -0.0502  0.2993 -0.3734
39572W        W82588  17.419  28.161   5.473 -0.1951  0.0721  0.0151
39573W        W82589   1.683   5.510   8.808  0.1359 -0.1176  0.0216
39574W        W82590  14.965  23.720  28.652  0.0383 -0.1167 -0.0986
39575W        W82591  26.921  29.187   5.991 -0.1529 -0.2657 -0.0820
39576W        W82592  28.080  22.372   1.662 -0.2430 -0.0926 -0.2440
39577W        W82593   1.934  22.907   4.970 -0.2307  0.1781  0.2447
39578W        W82594  20.862  28.924   8.883 -0.3836 -0.2672 -0.2659
39579W        W82595   6.708   5.976   8.567  0.1335  0.1445  0.0414
39580W        W82596  30.022  33.235   4.835 -0.2473  0.0348 -0.1515
39581W        W82597   7.840   2.725   8.362 -0.1130 -0.0356  0.0387
39582W        W82598  26.399  26.407  10.755  0.0988 -0.1038 -0.1837
39583W        W82599  17.828  31.319   5.334 -0.0215  0.4784  0.0674
39584W        W82600  34.325  34.321   0.314 -0.2143  0.2567 -0.0502
39585W        W82601  34.141  28.530   2.337  0.3245  0.0876 -0.2464
39586W        W82602  19.712  20.332   0.754  0.0890 -0.1419  0.1331
39587W        W82603  27.012  24.227   8.487 -0.0522 -0.2267 -0.0542
39588W        W82604  12.968   7.723   6.218  0.2303  0.1889 -0.3956
39589W        W82605  31.738  26.611   7.869 -0.1565  0.2197 -0.0724
39590W        W82606  11.541   2.410  15.592  0.0238  0.2733 -0.0192
39591W        W82607  27.043   3.235   0.850 -0.1374  0.1721  0.0664
39592W        W82608  15.250  33.549   0.432  0.0659 -0.1193 -0.1758
39593W        W82609  21.246   9.130   5.401  0.1974 -0.2529  0.0413
39594W        W82610  25.312  33.753   7.325  0.0584 -0.2089  0.1396
39595W        W82611  31.236  33.735  26.717  0.0030 -0.2400 -0.0923
39596W        W82612  17.944   6.681   4.464 -0.0527  0.0801 -0.1966
39597W        W82613  13.761  26.217   0.798 -0.0097  0.0963 -0.0398
39598W        W82614   6.958   0.398   6.660 -0.0027  0.1700  0.1118
39599W        W82615  30.841   0.088   9.046 -0.3022 -0.0977  0.0068
39600W        W82616   0.214  23.875  29.064 -0.0186  0.0095 -0.3498
39601W        W82617  20.054  29.225  20.137 -0.0499  0.0012  0.3561
39602W        W82618  19.802   4.395   6.472 -0.3605 -0.5841 -0.0949
39603W        W82619  16.687  11.941   5.163  0.2859  0.0506 -0.0246
39604W        W82620  13.650  33.076   9.305 -0.0418 -0.0120 -0.1480
39605W        W82621  20.229   0.706   2.321 -0.1043 -0.1909 -0.0514
39606W        W82622  21.939  28.912   2.202  0.0781 -0.0498 -0.1146
39607W        W82623  17.211   1.099  26.369  0.0452  0.0470 -0.2652
39608W        W82624   9.626  19.976  28.907  0.1397  0.3100  0.1273
39609W        W82625  19.843  24.407   2.294  0.0108 -0.0288  0.0551
39610W        W82626  30.305  17.980   1.077 -0.0862 -0.1373 -0.0261
39611W        W82627   4.767  27.554   2.712 -0.3900 -0.1319  0.0684
39612W        W82628  13.446   3.281  24.721 -0.1359  0.2572  0.0781
39613W        W82629  24.817  18.720   2.527 -0.0322 -0.0722  0.1765
39614W        W82630   5.171  27.570  24.647 -0.0485  0.2636  0.0028
39615W        W82631  18.960   0.713  10.055 -0.0054 -0.1473 -0.1331
39616W        W82632  26.787  34.011  12.179  0.0854 -0.1202 -0.1442
39617W        W82633  26.002  12.141   6.621  0.0919  0.1747  0.1439
39618W        W82634  20.932  12.634   2.732  0.2830 -0.2780  0.1289
39619W        W82635  33.283  17.639   9.179 -0.3915  0.1998  0.0070
39620W        W82636  31.917  19.176   0.953 -0.1199 -0.2566  0.0153
39621W        W82637  32.923  33.801  18.715 -0.0877 -0.0173 -0.2744
39622W        W82638  24.139  32.471   8.300 -0.1620 -0.1491 -0.0483
39623W        W82639  26.185  32.800   1.258 -0.1823 -0.2960 -0.0474
39624W        W82640  29.193  28.712   7.536  0.0224  0.1889  0.2467
39625W        W82641  14.256  21.972   8.394  0.2988 -0.1291  0.0469
39626W        W82642  31.182  22.454   6.154  0.1075  0.1768  0.1421
39627W        W82643   1.424   4.029   8.401 -0.2360  0.3191 -0.0137
39628W        W82644  12.862  33.454  27.037 -0.0408  0.2944 -0.0954
39629W        W82645  32.277  27.729   5.607 -0.5009 -0.0221  0.0988
39630W        W82646   2.048  27.865  28.783 -0.0086  0.0651  0.2450
39631W        W82647  16.888   4.907   3.677  0.1873 -0.0623  0.0912
39632W        W82648  15.849  20.373   5.274 -0.3850 -0.0810  0.2112
39633W        W82649  12.018  31.095   1.096 -0.1200 -0.2089 -0.2592
39634W        W82650  25.870   8.187   4.967  0.1076  0.0682 -0.3631
39635W        W82651  23.186   7.501   7.972 -0.1605  0.0626 -0.1970
39636W        W82652  19.374  29.291  10.409 -0.1234 -0.1209 -0.1632
39637W        W82653  23.224  31.754  10.700 -0.1397 -0.1932  0.1246
39638W        W82654  22.406   6.643  20.526  0.1547  0.1461  0.0955
39639W        W82655  21.131  31.561   2.814 -0.0498 -0.0403 -0.0292
39640W        W82656   7.172  10.557   9.340 -0.3008 -0.1146 -0.1862
39641W        W82657  33.209  29.961   6.002 -0.1360 -0.4694  0.2859
39642W        W82658   9.716  13.833   4.573  0.2440  0.2070 -0.0326
39643W        W82659  15.112   2.423   2.200  0.1063  0.0516 -0.1713
39644W        W82660  13.756   4.273   7.680 -0.1137  0.0217 -0.0354
39645W        W82661  19.904  14.714   4.432  0.0755 -0.0089  0.0980
39646W        W82662  12.563  10.697  26.345 -0.2509  0.1235  0.0168
39647W        W82663  14.418  26.669   7.075  0.0824  0.3064  0.0810
39648W        W82664  25.911  34.090  28.401  0.2811  0.1712  0.0496
39649W        W82665   1.904  23.520  27.216  0.2562 -0.0153  0.0575
39650W        W82666  28.118  29.614   1.878 -0.2435  0.0366 -0.2095
39651W        W82667  14.318  31.562   5.586  0.0321  0.2618  0.0653
39652W        W82668   0.907  28.530   8.800  0.4656  0.2539 -0.0171
39653W        W82669  24.439  33.693   5.972  0.1171  0.1824  0.3318
39654W        W82670  29.731  26.053   7.530 -0.0689  0.1959  0.0853
39655W        W82671  13.984  12.216   8.963  0.1715 -0.1398  0.3774
39656W        W82672  24.740   5.697   5.207 -0.0650  0.0357 -0.2473
39657W        W82673  24.622  33.233   9.898 -0.0637  0.1673  0.0645
39658W        W82674  10.013   1.735   8.444  0.0725  0.2157 -0.0785
39659W        W82675  34.127  26.526   9.575 -0.2871 -0.1739 -0.1099
39660W        W82676   7.721  11.444   1.348  0.0926 -0.0576 -0.0242
39661W        W82677  34.757  23.156  10.228 -0.1133 -0.1156  0.0841
39662W        W82678  30.815   9.027   6.860  0.3690  0.1669 -0.2681
39663W        W82679   5.864  29.168  21.839 -0.1795  0.0418  0.5276
39664W        W82680  32.203  10.352   2.869  0.0428  0.1166  0.3178
39665W        W82681  25.690   0.728  22.829 -0.0381  0.1305  0.0697
39666W        W82682  29.975  29.455   4.399 -0.0042  0.1081  0.1162
39667W        W82683  11.895   2.558   5.461  0.0770  0.4669  0.0466
39668W        W82684  17.572  25.599   7.047  0.1839 -0.0123 -0.0012
39669W        W82685  24.778  21.368   1.408 -0.2367 -0.0884 -0.0578
39670W        W82686  32.696  11.110   8.949  0.0034 -0.1991 -0.2690
39671W        W82687  18.247  25.397   3.576 -0.0166  0.1690 -0.0729
39672W        W82688  24.751   4.218   9.101  0.1174  0.0234 -0.3457
39673W        W82689  27.954  18.226  25.502  0.0131  0.0348  0.2399
39674W        W82690  21.098  26.443   1.975  0.2741  0.0666 -0.0381
39675W        W82691  20.335  12.818  28.273 -0.1541 -0.0732  0.0529
39676W        W82692  14.235  17.303   2.908 -0.0494 -0.0931  0.1019
39677W        W82693  21.258   0.688  28.335  0.0549  0.2293 -0.3338
39678W        W82694  19.759  23.187   2.345  0.0882 -0.2701  0.1463
39679W        W82695   9.533   2.162  25.050 -0.2289 -0.1604  0.3320
39680W        W82696  32.178  13.989  10.396  0.3426  0.2630  0.0810
39681W        W82697  24.818  19.441  24.140  0.2223 -0.0035 -0.1857
39682W        W82698  25.801   2.867  21.685 -0.2004 -0.3289 -0.1639
39683W        W82699  15.053   3.125  23.057  0.0491  0.1688  0.0651
39684W        W82700  21.893  12.004  23.902  0.1410 -0.0354 -0.2216
39685W        W82701  23.601  15.658   6.535 -0.2230  0.1155 -0.1559
39686W        W82702  18.954  34.666   9.030  0.1385  0.0149  0.0798
39687W        W82703   5.817  13.650  21.454  0.0507  0.0601 -0.3471
39688W        W82704  25.265  32.126   9.175 -0.1095 -0.1150  0.1283
39689W        W82705   3.964   7.958  27.876 -0.0063  0.2319  0.0130
39690W        W82706  25.091  23.247  11.025 -0.2516  0.1941  0.2276
39691W        W82707  22.719  17.758   1.523  0.0408 -0.2667 -0.0896
39692W        W82708  26.945   6.742  22.359  0.0963 -0.0599  0.2118
39693W        W82709  27.504   9.904   8.183 -0.3016  0.1760 -0.1463
39694W        W82710  23.166  30.170  18.439 -0.1164  0.7317 -0.2329
39695W        W82711   2.488   7.046   6.041  0.0925 -0.2258  0.2172
39696W        W82712  30.755  19.468  25.386  0.0332  0.0129 -0.3075
39697W        W82713  27.338  11.800   0.937 -0.2427 -0.0505  0.1451
39698W        W82714  30.099  32.992   7.325 -0.0002  0.1202  0.0911
39699W        W82715  21.710  18.213   4.195 -0.1734  0.0852  0.2745
39700W        W82716  20.277   2.219   5.412  0.1963 -0.0143 -0.2115
39701W        W82717  26.161   5.798  23.263 -0.3246 -0.0986  0.1273
39702W        W82718  34.518  32.308   5.015 -0.3409 -0.4632 -0.3561
39703W        W82719  14.635  25.553   3.798  0.1893 -0.0489  0.0550
39704W        W82720  23.666   2.909   7.405  0.0810  0.0123 -0.1762
39705W        W82721   1.064  27.766  26.451 -0.1655 -0.1700  0.2911
39706W        W82722  15.426  32.414   6.515  0.0616 -0.2619  0.0376
39707W        W82723  30.468  34.009   2.459 -0.2631  0.0729 -0.0716
39708W        W82724  18.950   6.853   6.393 -0.0922  0.1123  0.2311
39709W        W82725  22.171  30.158  26.311 -0.0837  0.0451  0.0336
39710W        W82726   9.807   5.288  26.677 -0.1667  0.0726  0.0680
39711W        W82727  10.871   4.436  28.686 -0.0645  0.2234  0.4949
39712W        W82728   3.550  15.120  26.014  0.2272 -0.1030 -0.0019
39713W        W82729  22.161  29.813   4.932 -0.0085  0.0689  0.2861
39714W        W82730  28.393  32.296   6.126  0.2239  0.1052  0.3763
39715W        W82731  18.522  18.898   6.714 -0.1389  0.4436  0.0055
39716W        W82732  29.900   3.218   8.774  0.2172  0.1264 -0.0854
39717W        W82733  29.534   9.052   1.384  0.0480 -0.1480  0.0283
39718W        W82734  20.474  11.037  28.577 -0.0665  0.0429 -0.3121
39719W        W82735  29.982   9.084   3.414  0.1140 -0.0578  0.1241
39720W        W82736  30.917   5.765   9.987  0.1320  0.1707  0.1593
39721W        W82737  27.707   1.924   3.906  0.4432 -0.1657 -0.1608
39722W        W82738  14.825   4.330  28.930 -0.2699  0.2424 -0.0717
39723W        W82739   1.798  20.453  15.860  0.0184 -0.3443 -0.0955
39724W        W82740   5.221   4.804  28.049  0.1843 -0.0203 -0.0582
39725W        W82741  17.524   6.024  22.667  0.2938 -0.2633  0.2442
39726W        W82742   2.772   9.313  25.217  0.0350 -0.1665  0.3078
39727W        W82743   3.046   5.282   5.420  0.2361  0.0194  0.1362
39728W        W82744  16.572  23.878   6.157 -0.1262 -0.1693  0.0097
39729W        W82745  21.769  29.499   6.776  0.0367  0.1698 -0.3958
39730W        W82746  25.928  33.148   5.119 -0.3010  0.1937 -0.0216
39731W        W82747  26.288  32.525  26.875 -0.2352 -0.2863 -0.1505
39732W        W82748   5.921  28.265  24.037  0.2164  0.2713 -0.1624
39733W        W82749  27.372  10.731   4.841  0.0708 -0.0405  0.0424
39734W        W82750  30.140  26.545  26.881  0.2451 -0.1021 -0.3654
39735W        W82751  34.749  32.629   5.433  0.1482  0.0448 -0.0833
39736W        W82752  34.600  11.713   3.527  0.1944 -0.1195 -0.3588
39737W        W82753  22.775   5.489  19.647 -0.1279 -0.0163  0.1098
39738W        W82754  24.560  31.163   3.559  0.0260  0.1708 -0.0610
39739W        W82755  26.058   0.140  10.300 -0.1629  0.1331 -0.1503
39740W        W82756  19.842  18.362   4.445  0.0700  0.1567 -0.1180
39741W        W82757  16.298  26.212  17.894  0.1390  0.0427 -0.3167
39742W        W82758  20.300   6.684  27.172  0.2284  0.2679 -0.1230
39743W        W82759   9.581   7.121  25.865 -0.0413  0.1700 -0.3925
39744W        W82760  32.043   7.457  26.577  0.1168 -0.0004 -0.1609
39745W        W82761  23.105  31.333   6.753 -0.1285 -0.0669  0.3568
39746W        W82762  31.256  19.834   1.639 -0.1847  0.4265  0.3412
39747W        W82763  31.483   1.812  26.010 -0.1745 -0.2803 -0.1314
39748W        W82764  19.364   0.584  27.368 -0.2165  0.1651  0.3341
39749W        W82765   2.009   9.996   7.196 -0.0600  0.1437  0.0553
39750W        W82766  34.164  27.513   2.251  0.0931 -0.1006  0.1126
39751W        W82767  23.194  34.334   7.299  0.1901  0.1227  0.1113
39752W        W82768  11.877   5.756  17.197  0.1566  0.1285  0.1013
39753W        W82769  27.307  11.738   8.308 -0.1970 -0.2246 -0.1432
39754W        W82770  33.466  30.865  21.880  0.0289  0.0642 -0.2626
39755W        W82771  28.393   8.992  10.924 -0.2495 -0.0486 -0.1797
39756W        W82772  27.849   3.625   6.089 -0.1047  0.0478  0.2635
39757W        W82773  27.484  22.339   3.101  0.1455 -0.2385 -0.4536
39758W        W82774  33.794   6.920   8.564  0.3246  0.2185 -0.1209
39759W        W82775  19.800   1.555  28.754  0.2470 -0.0038  0.2479
39760W        W82776  19.022  33.736  23.424 -0.2401 -0.3118 -0.0174
39761W        W82777  28.371  33.010  16.078  0.0085 -0.0456 -0.1580
39762W        W82778   2.659  33.122   3.594  0.1838  0.0490  0.1161
39763W        W82779   0.952  24.813  25.217  0.4379 -0.1827  0.3145
39764W        W82780  30.692  28.086   5.311 -0.0238  0.0566  0.2048
39765W        W82781   7.972  32.185   1.323  0.1609 -0.0926  0.4318
39766W        W82782  29.504  32.911  27.551  0.0429 -0.0933  0.0055
39767W        W82783  25.646   6.784   2.193  0.2013  0.0022 -0.1143
39768W        W82784  25.343  14.473  21.248 -0.0558 -0.0236  0.2850
39769W        W82785  25.272  23.913  24.056  0.2308  0.5132 -0.2349
39770W        W82786  21.149  14.945  27.371  0.1169  0.1565  0.2401
39771W        W82787  26.762  14.611  24.610 -0.0727  0.1332 -0.2113
39772W        W82788  19.416  26.668   7.885  0.0067 -0.1716  0.1930
39773W        W82789  34.227  32.082   9.589  0.4380 -0.1494 -0.0121
39774W        W82790  30.088   8.494  26.392 -0.1553 -0.2183 -0.0284
39775W        W82791  13.668  12.534  15.832 -0.1048 -0.2463 -0.2260
39776W        W82792   6.875   5.273   1.032 -0.0135  0.0110 -0.0774
39777W        W82793   3.779  31.595   8.485  0.2571 -0.0184 -0.0615
39778W        W82794  28.375  22.305   9.248  0.0949  0.0265 -0.0757
39779W        W82795  24.603   1.353  24.770  0.2272  0.0320  0.0426
39780W        W82796  30.738  14.783   1.151  0.0361 -0.2311 -0.2465
39781W        W82797  26.613  28.172  10.597 -0.1563 -0.0101  0.1719
39782W        W82798  26.413   6.866   4.109  0.0101 -0.5292 -0.1930
39783W        W82799   7.399   1.316   7.530 -0.1015  0.0282 -0.2331
39784W        W82800  29.111  27.743   9.555  0.0511  0.2728 -0.2048
39785W        W82801  14.474  28.572   4.584 -0.0493  0.1123  0.1691
39786W        W82802  32.892  15.342  25.524 -0.1537  0.1122 -0.0881
39787W        W82803  22.754  22.973  15.356 -0.0581  0.3476  0.0140
39788W        W82804  25.782  18.040  17.714 -0.1786  0.0263  0.2314
39789W        W82805  29.061  20.358   8.935 -0.3405  0.1305 -0.0522
39790W        W82806  23.799  33.446  17.956  0.2371  0.0159 -0.2534
39791W        W82807  22.613  33.203   7.350  0.1519  0.0258  0.3164
39792W        W82808  32.899  28.993   5.807 -0.1274  0.2335  0.1932
39793W        W82809   5.585  26.581  24.948 -0.0539 -0.5548  0.0146
39794W        W82810  14.634  31.120   9.229  0.0411 -0.1629 -0.2530
39795W        W82811  24.052   3.762  25.821  0.0919  0.2286  0.0848
39796W        W82812  22.493  11.327  23.675  0.1930 -0.0330 -0.1587
39797W        W82813  23.613  24.490   3.044  0.3007 -0.0247  0.3114
39798W        W82814  17.739  30.512  18.437  0.0017 -0.2947 -0.1078
39799W        W82815   5.067  25.927   1.265 -0.0901 -0.2679 -0.3078
39800W        W82816   1.040  24.357   8.784 -0.0919 -0.3978  0.1801
39801W        W82817  20.786  15.650  15.439  0.1927  0.0196 -0.1075
39802W        W82818  32.110  13.326  28.395 -0.1627  0.1027 -0.2629
39803W        W82819  31.087  34.378  24.385  0.4616  0.3017 -0.2200
39804W        W82820  21.242  34.511   6.919 -0.0075 -0.0124  0.0385
39805W        W82821  27.833   8.768   6.528  0.0739  0.3870  0.0370
39806W        W82822  22.353   1.628  20.139 -0.2632 -0.4429  0.0137
39807W        W82823  33.195  34.133   8.687  0.2287 -0.2736 -0.2522
39808W        W82824  16.367  32.546  15.975 -0.0037 -0.0983 -0.1895
39809W        W82825  13.502  29.412  20.328 -0.0530  0.0131  0.2569
39810W        W82826  11.946  32.136   3.959 -0.4851 -0.1724  0.0649
39811W        W82827   2.408  16.839   3.878 -0.2282  0.2014  0.2133
39812W        W82828  18.311   0.272   8.909 -0.0634 -0.0282 -0.3745
39813W        W82829  26.276  33.279  10.242 -0.0292  0.0281  0.0085
39814W        W82830   3.119   8.468  28.005 -0.3387 -0.3384 -0.0389
39815W        W82831  13.249  16.457  20.558 -0.0228  0.0762  0.1100
39816W        W82832  31.139  26.788  26.891 -0.2703 -0.2323 -0.1587
39817W        W82833  15.314  24.448  26.562 -0.1510 -0.0894 -0.2268
39818W        W82834   1.222   3.396  23.354 -0.3375 -0.0487 -0.3471
39819W        W82835  29.822  25.314   6.787  0.1352  0.2837  0.0800
39820W        W82836  11.253   9.222  22.157 -0.0256  0.0309 -0.1810
39821W        W82837  21.308  33.598  24.078 -0.0066 -0.0880 -0.0362
39822W        W82838   8.612  31.377   2.601  0.2767 -0.0210 -0.0419
39823W        W82839  21.086   4.457  10.660 -0.1138 -0.0656  0.0628
39824W        W82840  29.011  27.885  10.590  0.2568 -0.1042  0.1368
39825W        W82841  30.531   5.476  28.322  0.0526 -0.0708  0.0005
39826W        W82842  16.848  21.241   4.773 -0.1237  0.2039 -0.3982
39827W        W82843  17.461  25.630  17.865  0.0183  0.1716 -0.1391
39828W        W82844  16.816  30.281  10.123 -0.0988  0.0018  0.5214
39829W        W82845  31.671  24.655   2.051  0.0443 -0.1179 -0.1787
39830W        W82846  25.483  16.689   6.862 -0.2066 -0.2053 -0.0680
39831W        W82847  28.720   4.716  28.712  0.0931  0.1306  0.1662
39832W        W82848  31.181  32.594   9.487 -0.4205  0.1327 -0.5241
39833W        W82849  21.493   0.050   2.978  0.2455 -0.1121  0.1128
39834W        W82850  27.304   1.975  25.923 -0.1483 -0.1369 -0.0263
39835W        W82851  31.562   4.913   8.814 -0.0221 -0.0253 -0.2134
39836W        W82852   2.041  29.263   6.809  0.1647 -0.1267 -0.1800
39837W        W82853  23.721  34.586  10.783  0.0747  0.2821  0.0950
39838W        W82854  16.094   9.645  25.961 -0.0669 -0.0580 -0.0738
39839W        W82855  12.852   9.690  16.097  0.1507  0.3426  0.1323
39840W        W82856   5.916  17.147  26.361  0.0014 -0.2300  0.1517
39841W        W82857  25.513  11.123  15.671  0.2311  0.2612 -0.1510
39842W        W82858  29.937   0.391   9.770 -0.0503  0.0718 -0.0908
39843W        W82859  12.539  21.603   4.471  0.0852  0.2595 -0.1318
39844W        W82860   5.398  22.578   2.942 -0.2085 -0.1309 -0.1495
39845W        W82861   5.843  10.379   8.812  0.1160 -0.0846 -0.1255
39846W        W82862  18.249  33.044   9.616  0.4370  0.1796 -0.3335
39847W        W82863  32.738  31.187   7.188  0.1112 -0.1976 -0.0891
39848W        W82864  19.447  29.867   7.782  0.0729  0.1661  0.1260
39849W        W82865  26.097  31.550   9.157 -0.2950 -0.1997 -0.1963
39850W        W82866   4.765  23.191  24.461 -0.1620  0.0942 -0.3342
39851W        W82867   3.582  24.501   4.459  0.2007 -0.0580 -0.1819
39852W        W82868  34.041  30.274   9.810 -0.0621  0.0476 -0.0993
39853W        W82869  16.685  32.678   4.684 -0.1232  0.1322 -0.0024
39854W        W82870  18.236  23.202   2.889 -0.0655 -0.2088 -0.1476
39855W        W82871  30.176   1.303  26.652  0.0978 -0.1395 -0.3200
39856W        W82872  24.240  26.018   2.351 -0.0841 -0.3031  0.2227
39857W        W82873  16.893  21.313  26.775  0.1067 -0.1198 -0.2165
39858W        W82874  24.314  20.245  19.699 -0.0520  0.3268  0.0181
39859W        W82875  26.147  15.125  27.657 -0.0691  0.1129  0.2364
39860W        W82876  29.635   3.707  23.490 -0.2236 -0.2785  0.1637
39861W        W82877  20.414   1.080   5.750  0.2298  0.0798  0.1777
39862W        W82878   0.534  31.492  26.848 -0.1376 -0.1449 -0.0596
39863W        W82879   5.123  27.356  26.610 -0.2905  0.2352 -0.1158
39864W        W82880  10.792  17.914   0.361 -0.0855  0.1651 -0.4544
39865W        W82881  31.908   5.695   9.761  0.1014 -0.0093  0.1445
39866W        W82882  19.760  18.246  21.642 -0.1358  0.1440 -0.1193
39867W        W82883  31.406  27.221  19.766 -0.3527  0.4450 -0.1442
39868W        W82884  31.795   0.926   0.555  0.0645 -0.0911  0.0783
39869W        W82885  19.245   1.100  25.962  0.0635 -0.4188  0.0450
39870W        W82886  11.623   5.808   6.224 -0.1392  0.1272  0.3261
39871W        W82887   9.741  33.891   0.183  0.1732 -0.0823  0.0005
39872W        W82888   4.110  34.771  21.084 -0.0024 -0.1912 -0.0053
39873W        W82889   4.680   4.391   6.151 -0.0580 -0.0715 -0.1637
39874W        W82890  25.388  29.591   3.305 -0.1317  0.1325  0.0043
39875W        W82891  32.809  14.531  17.894  0.1015 -0.3869  0.0197
39876W        W82892   2.753  31.865  23.500 -0.2884 -0.0790  0.0072
39877W        W82893  33.252  33.249  21.295 -0.2111  0.2671 -0.1576
39878W        W82894  25.424  12.570  24.334 -0.0873  0.2288 -0.0929
39879W        W82895  24.683  29.863  27.964 -0.0922  0.2510 -0.0063
39880W        W82896  28.200   4.509   1.114  0.1761 -0.0675  0.2908
39881W        W82897   2.955  31.841  26.632 -0.0522 -0.2300 -0.4732
39882W        W82898  29.259  14.873  18.692  0.0075 -0.0760 -0.2173
39883W        W82899  10.908  21.700   3.646  0.0799 -0.0337  0.1175
39884W        W82900  25.442  16.101   1.613  0.0315  0.3143 -0.0070
39885W        W82901  19.453  13.910  23.660  0.0354 -0.0018  0.0125
39886W        W82902  34.733  18.655  22.157  0.0317  0.1798  0.2050
39887W        W82903  22.405  13.923  28.438  0.0561 -0.0761 -0.0360
39888W        W82904  32.491  26.331   4.918  0.0532 -0.1459  0.0200
39889W        W82905  24.541  26.378   7.867 -0.2745 -0.1987  0.1525
39890W        W82906   9.591   0.436   2.725  0.0852  0.1216 -0.2357
39891W        W82907  33.943   0.561  10.429 -0.2920 -0.1874  0.0065
39892W        W82908  32.797   0.614  22.252 -0.0041  0.2123 -0.1165
39893W        W82909  22.019  27.291   7.315 -0.1925  0.1530 -0.0409
39894W        W82910  17.757   0.976  22.591  0.0820 -0.1335 -0.2205
39895W        W82911  25.848   7.345   3.639 -0.0492  0.0559 -0.0835
39896W        W82912  23.493  19.662   7.586 -0.1476 -0.2570 -0.4241
39897W        W82913  23.106   6.814   9.815 -0.2070  0.0009  0.0261
39898W        W82914  32.300   8.973  22.528  0.0808 -0.0311 -0.0767
39899W        W82915  18.818  12.777  27.336  0.3463  0.1031  0.1150
39900W        W82916  25.829   3.591   4.112  0.0251 -0.1027 -0.2514
39901W        W82917  22.760  11.192  24.552  0.1921  0.1943  0.2918
39902W        W82918  28.318  20.393  10.814  0.1061  0.0809 -0.1031
39903W        W82919  27.308  21.483   2.342 -0.1461 -0.1118  0.2670
39904W        W82920  29.628  22.751   9.686 -0.2454 -0.2253  0.0641
39905W        W82921  23.722  26.222   2.130 -0.1003  0.0102 -0.0538
39906W        W82922   1.075  13.482  23.048  0.1312  0.2069  0.0652
39907W        W82923  34.354   1.209  26.664  0.1164  0.0273  0.2322
39908W        W82924   6.711   0.863   1.191  0.0112  0.1707  0.0441
39909W        W82925  28.738   5.277   3.435  0.0588 -0.1159  0.1787
39910W        W82926   2.578   9.338   7.988 -0.4211 -0.0800 -0.0320
39911W        W82927  22.641  23.945   2.318  0.0447  0.1935  0.0600
39912W        W82928  23.300   0.457   6.778  0.0135  0.3572  0.0542
39913W        W82929   6.056   0.351  28.960 -0.1555 -0.0466 -0.2831
39914W        W82930  21.491   4.085   7.132  0.0213 -0.3368  0.0999
39915W        W82931  20.009  28.259  17.652  0.1806 -0.0652  0.3386
39916W        W82932  22.591   4.908   5.705 -0.3144 -0.3035  0.4112
39917W        W82933  22.087   0.112  26.264 -0.1094  0.4345 -0.1470
39918W        W82934  20.913  31.502  25.551  0.0421  0.4086 -0.3539
39919W        W82935  21.483   3.711  27.393  0.0931 -0.4101  0.1976
39920W        W82936  25.498   3.537  10.999  0.2189 -0.7337  0.1762
39921W        W82937  30.015  18.953   7.029  0.1724  0.0072 -0.0128
39922W        W82938  13.367   0.089   1.624 -0.0587  0.0084  0.0297
39923W        W82939  23.956  23.011  25.468 -0.5527  0.1561 -0.2516
39924W        W82940  26.583  18.334   3.842 -0.1384  0.0090 -0.0330
39925W        W82941  25.376   8.840  11.040  0.0524 -0.0462 -0.0037
39926W        W82942  23.202  28.056  25.985  0.0091  0.0874 -0.1387
39927W        W82943  16.603  16.805   5.553 -0.3236 -0.0474 -0.3357
39928W        W82944  25.440  21.678   1.085 -0.4133  0.1099  0.3546
39929W        W82945  30.607  28.744   9.860 -0.2707 -0.2520  0.0205
39930W        W82946   5.106   1.536  27.729 -0.0470  0.0046  0.1125
39931W        W82947   5.304  23.844   0.136  0.2053  0.1735  0.2376
39932W        W82948  20.994  17.791  23.708  0.0235  0.0331  0.2303
39933W        W82949  32.022   7.707   9.290  0.1363  0.2331 -0.0677
39934W        W82950  21.605  10.540   1.483  0.0011 -0.2072 -0.0897
39935W        W82951  20.420  27.079  18.112  0.2960  0.0940 -0.2588
39936W        W82952   2.268  22.399   1.335 -0.1228 -0.1317  0.0511
39937W        W82953  14.557   9.119   6.677  0.1022  0.0818 -0.3940
39938W        W82954   7.061  24.091  22.584 -0.1296 -0.2121  0.3168
39939W        W82955  24.964  13.269  10.616 -0.0633  0.1091  0.1088
39940W        W82956  19.411  27.919   6.166  0.1544  0.1805  0.1797
39941W        W82957  18.792  25.839   1.656 -0.2689 -0.2206 -0.3782
39942W        W82958   5.478  27.334  25.979 -0.0547 -0.2668  0.2880
39943W        W82959  27.359  29.971   1.702  0.1544  0.0150 -0.1135
39944W        W82960   9.195  28.640  10.152 -0.4233 -0.0821  0.0786
39945W        W82961  25.817  10.356   0.906 -0.1026 -0.2961  0.1540
39946W        W82962  15.782  29.408   5.372  0.2237 -0.0588 -0.0173
39947W        W82963  25.097   5.922   0.517 -0.1097  0.3095 -0.1396
39948W        W82964  26.081   5.166   9.053  0.3185  0.1571 -0.1764
39949W        W82965  25.093  19.024   5.725 -0.5539 -0.0229  0.0398
39950W        W82966  19.376  15.151   2.367  0.1716 -0.0746 -0.0789
39951W        W82967  17.371  25.138   2.896 -0.1097  0.0354 -0.1446
39952W        W82968   4.394  30.801  21.148 -0.0566  0.1085 -0.0824
39953W        W82969  24.050  34.014   1.600 -0.3926 -0.0552  0.3629
39954W        W82970  19.427  11.012  29.075 -0.0588 -0.0389  0.0723
39955W        W82971  20.832  12.739   8.135 -0.2246 -0.0575  0.0394
39956W        W82972  26.129  17.960   3.658  0.0568  0.0214  0.0170
39957W        W82973  23.156   2.706   8.190  0.0200  0.1525 -0.1932
39958W        W82974  25.781   0.801   3.724  0.0836 -0.1924  0.0775
39959W        W82975  15.530  30.784   4.905 -0.0823  0.0679  0.0500
39960W        W82976   2.300   5.531   4.557  0.0388 -0.2818 -0.1449
39961W        W82977  21.268  28.042   7.837 -0.0891  0.2729 -0.0563
39962W        W82978  22.835   3.171   3.647 -0.0951  0.1543 -0.4738
39963W        W82979   0.872  28.661   2.941 -0.3799  0.0099 -0.0155
39964W        W82980  26.503  31.092   0.157  0.1493 -0.2383  0.0578
39965W        W82981  23.954   7.823   8.226  0.0847 -0.2901 -0.3023
39966W        W82982   1.208  23.670  28.111 -0.2115  0.1130  0.4024
39967W        W82983  23.865  31.154   7.330  0.1336 -0.0992  0.1794
39968W        W82984  13.737  22.450  26.406 -0.2957  0.0296  0.2361
39969W        W82985  26.359  13.257  28.408 -0.1220 -0.2200  0.3977
39970W        W82986   0.466   5.027  23.816 -0.0456  0.3763 -0.0285
39971W        W82987   4.695  26.953  23.872 -0.2089  0.0869  0.1446
39972W        W82988  18.603  31.643   8.811 -0.1150 -0.1831 -0.3865
39973W        W82989  23.999   2.451   0.343  0.1487 -0.0989 -0.1340
39974W        W82990   9.974   6.120   6.714  0.1228  0.1838  0.1087
39975W        W82991  27.408  32.210   8.879  0.1068 -0.1839 -0.2196
39976W        W82992  26.529   0.607  10.033 -0.0345  0.0534 -0.2249
39977W        W82993   0.358  27.422   5.266  0.1228 -0.0578 -0.1629
39978W        W82994  27.386  22.964   5.919 -0.2519  0.1048 -0.0795
39979W        W82995   6.634   4.001  27.373  0.0023 -0.0595  0.0423
39980W        W82996  34.214  14.424   0.344  0.0713 -0.1940  0.0728
39981W        W82997  32.890  14.005   5.102  0.1775  0.0340 -0.1864
39982W        W82998  27.581  22.302  10.984 -0.0166 -0.1414  0.1216
39983W        W82999  23.127  13.731   5.411 -0.1548 -0.0113  0.0079
39984W        W83000  21.245   0.990  22.517 -0.1723 -0.0465  0.0679
39985W        W83001  20.061  19.925  29.107  0.1019  0.2758 -0.1907
39986W        W83002  26.724   2.623   1.606 -0.0134  0.1269 -0.1131
39987W        W83003  25.311  22.533   2.538 -0.1071 -0.1842  0.1649
39988W        W83004  12.987   5.819   9.502  0.0129  0.0535 -0.0579
39989W        W83005  15.333  31.018  25.784  0.1418  0.1205 -0.1380
39990W        W83006  23.735  12.151   8.761 -0.2226  0.1258  0.0713
39991W        W83007   6.952  29.956   5.464  0.2270  0.0649  0.3475
39992W        W83008  28.203   5.411   8.662 -0.1490  0.3264 -0.3373
39993W        W83009  15.694  28.739   6.498  0.1141  0.1277 -0.0808
39994W        W83010   7.910  18.783   5.301 -0.1715  0.1594 -0.1138
39995W        W83011  32.482  32.691   8.527 -0.5013 -0.4247 -0.2101
39996W        W83012  24.814  23.902   2.931 -0.1748  0.4212 -0.1158
39997W        W83013  23.615   3.363   9.116 -0.3043  0.2618 -0.0159
39998W        W83014  14.815  26.428   7.470  0.3664 -0.0296 -0.0299
39999W        W83015  15.853   1.408   7.761 -0.0822 -0.3289  0.0386
40000W        W83016  29.369  26.460  10.456 -0.2452 -0.0077  0.0351
40001W        W83017  14.267  25.779  21.470 -0.0148  0.0875 -0.1067
40002W        W83018  28.989  10.729   3.968 -0.3172  0.1393  0.2627
40003W        W83019  21.271   7.946   2.991  0.2227  0.4582 -0.0039
40004W        W83020  30.302  17.372  24.906 -0.0050 -0.0320  0.1897
40005W        W83021  16.173  16.739   8.966 -0.6127 -0.0020  0.3005
40006W        W83022  29.148  30.721  27.751 -0.1018 -0.4572 -0.1064
40007W        W83023   2.983   4.124   3.461 -0.0939  0.0761 -0.0754
40008W        W83024  17.967  26.151   0.892  0.0197 -0.1420 -0.1196
40009W        W83025  27.017   3.780   5.611  0.2743  0.1054 -0.1230
40010W        W83026  24.705  12.089  10.059 -0.3351 -0.2535 -0.1421
40011W        W83027  30.141  28.421   3.470  0.0057  0.1935 -0.3446
40012W        W83028  29.519  19.026   6.855 -0.0008  0.0154  0.0298
40013W        W83029  24.434  21.544   1.738 -0.0735  0.4615  0.0573
40014W        W83030  25.412  28.674   5.040 -0.2914  0.1275  0.0785
40015W        W83031  19.286  28.737   5.187 -0.3686  0.2268  0.1378
40016W        W83032   4.941  22.703   9.533 -0.2733  0.1016  0.1134
40017W        W83033  14.322  16.755  27.934  0.1025  0.1005 -0.1709
40018W        W83034  13.334   3.722   2.663  0.1336  0.0392  0.1134
40019W        W83035  29.416  31.657   8.983  0.1671 -0.0699  0.0634
40020W        W83036  14.224  33.726   7.299 -0.1298  0.0719 -0.2061
40021W        W83037   8.916   7.504   4.595 -0.1854 -0.2080 -0.0576
40022W        W83038  22.701   7.971   7.547  0.0358  0.0540  0.0048
40023W        W83039   1.119   2.663  21.725 -0.0335  0.1635 -0.1134
40024W        W83040  10.770  20.498  24.804  0.0604 -0.0351  0.4476
40025W        W83041  13.263  22.797   7.980  0.1011 -0.3431 -0.0179
40026W        W83042  12.250   7.080  21.343 -0.2152  0.0054 -0.1932
40027W        W83043  22.259  28.837  10.109  0.2681 -0.0283  0.0714
40028W        W83044  27.116   0.902   9.800  0.3304  0.0531  0.1725
40029W        W83045  13.821  17.228  26.261 -0.2924 -0.1027  0.3412
40030W        W83046   1.361   8.531   4.435  0.0697  0.2905 -0.1691
40031W        W83047   8.870  20.228  29.301 -0.1090  0.0038  0.1225
40032W        W83048   0.040  18.864   6.822 -0.1089  0.1042 -0.0163
40033W        W83049   3.818   3.527   1.194  0.1449 -0.2257  0.0121
40034W        W83050   2.228   4.813   6.316 -0.1653 -0.1228 -0.3431
40035W        W83051  15.793  22.135   3.825 -0.2095  0.2489  0.0414
40036W        W83052  24.512  28.663   6.241 -0.0578  0.4131  0.2039
40037W        W83053  10.592  24.346   5.599 -0.4361  0.0670  0.3034
40038W        W83054  31.076  18.622  28.563  0.1209 -0.1673  0.0801
40039W        W83055  28.107   1.666  26.962 -0.0895 -0.2349  0.3628
40040W        W83056  33.100  15.582   3.355  0.1018  0.0261 -0.2555
40041W        W83057  31.665  11.446   4.473  0.2023 -0.0972 -0.0225
40042W        W83058  29.382  25.873  26.617  0.0410 -0.0290 -0.1577
40043W        W83059  24.589  23.395  10.511 -0.1413  0.1657  0.2437
40044W        W83060  22.144  31.211  23.788 -0.2728  0.2962 -0.0580
40045W        W83061  29.184  20.626   3.273  0.2012  0.0521 -0.1256
40046W        W83062  11.565   3.943   8.765  0.0200  0.0161  0.2031
40047W        W83063   7.534  33.428   6.840  0.2291  0.2873  0.0924
40048W        W83064   4.519  26.756  23.412 -0.0251 -0.1042  0.0955
40049W        W83065  32.395   0.989   3.790 -0.4708  0.2059  0.1335
40050W        W83066   0.232  22.167  26.324 -0.0975 -0.0725  0.0975
40051W        W83067  22.562  19.836  24.002  0.0283 -0.1588  0.0595
40052W        W83068  23.538   3.806   6.014 -0.1882  0.2182 -0.3952
40053W        W83069  27.120  25.361   2.959  0.1461  0.2154  0.2088
40054W        W83070   7.721   5.987  26.520  0.1529 -0.1372  0.0500
40055W        W83071  11.586  18.383  23.881 -0.3574  0.1799  0.2285
40056W        W83072  25.026   8.569   8.393  0.1417  0.0416  0.0419
40057W        W83073  20.372  28.339  26.266  0.1035 -0.0236 -0.1251
40058W        W83074  28.506  17.059   9.556 -0.2888  0.0014  0.5849
40059W        W83075  16.113  20.531   8.180  0.0954 -0.2428 -0.0968
40060W        W83076   6.563   3.746  19.356  0.3017 -0.1331  0.3185
40061W        W83077  27.191  34.696   3.617  0.0607 -0.1115 -0.0895
40062W        W83078  22.034  27.001  15.232 -0.0520  0.0386 -0.2816
40063W        W83079  11.767  12.042   7.538 -0.0113 -0.0161  0.1714
40064W        W83080  33.389  26.664   4.106  0.0303  0.1936 -0.0693
40065W        W83081  26.736  12.731   9.969 -0.1765 -0.0068 -0.0144
40066W        W83082   7.564   1.158   6.005 -0.1921 -0.1775  0.0554
40067W        W83083   0.100  11.962   8.666 -0.0628 -0.0014  0.0528
40068W        W83084  24.112   0.051  20.625  0.4275  0.2265  0.1012
40069W        W83085  24.298  24.733   1.731 -0.1914 -0.2757  0.1746
40070W        W83086   1.590   5.642   9.267 -0.0190  0.1538 -0.4639
40071W        W83087  18.838   5.076  21.176 -0.1949  0.2526 -0.1534
40072W        W83088   0.586  11.322   4.814  0.0533 -0.2175  0.0263
40073W        W83089   7.847  33.175   1.809  0.1780 -0.2529  0.0327
40074W        W83090  19.781  12.499  23.863  0.2387 -0.2625  0.0329
40075W        W83091  23.721  23.009   4.363  0.5185 -0.0081  0.0351
40076W        W83092  33.938   3.307   5.624  0.1096  0.0531 -0.2784
40077W        W83093  15.483  20.269   2.215 -0.2333  0.0396 -0.0522
40078W        W83094  32.049   4.914  22.154 -0.0549  0.2038 -0.0815
40079W        W83095   7.270  32.468  28.047 -0.2144 -0.3014 -0.1332
40080W        W83096  20.545   5.876  10.422 -0.0115  0.2865  0.0962
40081W        W83097   0.836  28.885   9.610  0.2030  0.0437  0.0888
40082W        W83098   6.553  31.199  10.430  0.0621  0.3464  0.0859
40083W        W83099  24.613  14.378   9.124  0.2270  0.2095  0.1677
40084W        W83100  27.979   7.414  26.430  0.0614 -0.2054 -0.0726
40085W        W83101  31.029  29.792   7.302  0.2075 -0.0347 -0.0623
40086W        W83102  18.859  17.242   0.404 -0.0553 -0.1891  0.1286
40087W        W83103   7.222  30.935   6.536  0.2526 -0.2387  0.0053
40088W        W83104  22.242   0.954  21.935 -0.0572 -0.0220  0.1144
40089W        W83105  10.432   1.324   6.504  0.1769 -0.1323 -0.0399
40090W        W83106  28.263  26.393  24.709 -0.1762 -0.0263 -0.0549
40091W        W83107  33.345  23.873   6.783 -0.0494 -0.0027 -0.0768
40092W        W83108  25.013  29.455   6.669  0.0948 -0.3193 -0.1305
40093W        W83109   0.331   2.377  23.103 -0.0063  0.2464 -0.3879
40094W        W83110  27.406   8.190   5.115  0.1630  0.1297 -0.1808
40095W        W83111   4.962   8.283   9.477 -0.0364 -0.3707 -0.0077
40096W        W83112   1.939   3.696  18.409  0.1126 -0.2972  0.0172
40097W        W83113  30.661  32.305  11.121  0.3625 -0.1094 -0.1014
40098W        W83114  29.222   7.806   9.499  0.1661  0.1700  0.3150
40099W        W83115  10.850  23.927  29.082  0.1384 -0.0104  0.0738
40100W        W83116  29.855  15.327  16.553 -0.0098 -0.1280  0.1278
40101W        W83117  20.273  27.840   3.078  0.1782 -0.2795 -0.1236
40102W        W83118  22.480  16.490   6.048  0.2805 -0.0042  0.2002
40103W        W83119  30.991  26.625  11.684 -0.0773 -0.1415 -0.1141
40104W        W83120  23.039  20.110   7.548  0.2079  0.1349 -0.3378
40105W        W83121   9.209  19.315   6.771 -0.1219 -0.4863  0.0336
40106W        W83122  16.869  26.499  22.005 -0.0923 -0.1087 -0.0122
40107W        W83123  33.925  32.143   5.618 -0.1172 -0.3032  0.2400
40108W        W83124  17.848  34.128   7.887 -0.0207  0.0701  0.0529
40109W        W83125  27.385  29.545   5.969 -0.1883  0.1291 -0.1230
40110W        W83126  22.418   0.432   2.941 -0.1447 -0.1346  0.0639
40111W        W83127  18.086   0.027   0.261  0.1988  0.3113  0.0051
40112W        W83128  11.119  33.440   6.835  0.0849 -0.1155 -0.0037
40113W        W83129  19.542   3.341   5.017 -0.1210 -0.0156 -0.0687
40114W        W83130  32.011   2.100   6.524  0.0597 -0.1250 -0.4298
40115W        W83131  25.679  13.151   7.648 -0.1528 -0.1760 -0.3230
40116W        W83132  32.073   3.166   4.295  0.1867 -0.1876 -0.2483
40117W        W83133   6.447   2.377   7.741 -0.1569  0.0777  0.0166
40118W        W83134  11.293  15.763  17.728  0.0431  0.0524 -0.3059
40119W        W83135  15.392  27.928  24.777 -0.0455 -0.0669  0.2993
40120W        W83136  32.593   7.723   8.249  0.2632  0.0468  0.2620
40121W        W83137  18.911  32.429  25.506 -0.2389 -0.2809 -0.2174
40122W        W83138  31.176   2.242   0.331 -0.0645 -0.2501  0.0013
40123W        W83139   0.061   2.214  25.923 -0.2009  0.0672  0.2235
40124W        W83140  27.169   7.155   9.808  0.2769 -0.1220 -0.0188
40125W        W83141   3.992  33.223   7.016 -0.0900  0.0087 -0.0059
40126W        W83142  28.374  33.219   6.976 -0.2524 -0.0858  0.2507
40127W        W83143  32.007   0.422  10.526  0.0419 -0.1837  0.1123
40128W        W83144  15.319  29.882  26.177  0.2530  0.0398  0.0329
40129W        W83145  14.028   4.505  16.232  0.2416 -0.1796 -0.1766
40130W        W83146  26.026   5.053   6.678 -0.0092  0.0711  0.0060
40131W        W83147   9.544   2.068   6.656  0.1562 -0.0404 -0.1598
40132W        W83148  30.932  27.853  10.125  0.4004  0.3647  0.1364
40133W        W83149  28.196   3.135   1.372  0.3623  0.2481 -0.1206
40134W        W83150  25.906  23.680   7.121 -0.0939  0.3696 -0.0264
40135W        W83151   9.255  33.058   9.372  0.2347 -0.0430  0.1996
40136W        W83152  30.832   9.526   6.461 -0.0938  0.0427  0.0267
40137W        W83153  21.480   8.626   4.238 -0.2519  0.0459  0.1374
40138W        W83154  26.623  31.558   6.583  0.1211  0.1591 -0.0363
40139W        W83155  33.921  13.919  25.836 -0.1053 -0.0392 -0.0437
40140W        W83156  28.813  33.690   9.446  0.2095  0.1378 -0.2529
40141W        W83157  18.418  25.595   5.714  0.2009 -0.0853 -0.0803
40142W        W83158   8.933  10.388  15.435  0.2556 -0.0067 -0.2846
40143W        W83159  28.981  25.156   7.432 -0.3099  0.0724 -0.0023
40144W        W83160  16.669  26.158   0.394  0.1991 -0.1230 -0.2600
40145W        W83161   8.230   5.813   8.392 -0.0594  0.2246 -0.2518
40146W        W83162   1.699  22.359  23.706 -0.0686  0.1083  0.1340
40147W        W83163  30.393   7.592  27.151 -0.1412 -0.1020 -0.0350
40148W        W83164  16.699   8.677   4.265  0.0867 -0.2899 -0.0406
40149W        W83165  27.545  17.203  26.974  0.0119  0.0980 -0.4198
40150W        W83166  28.212  27.374  10.637  0.1404 -0.4088 -0.2944
40151W        W83167   7.143  17.519  27.208 -0.1140 -0.0135  0.0523
40152W        W83168  32.463  12.017   4.608  0.2203 -0.3821 -0.1997
40153W        W83169  28.302  33.030   3.843  0.3101  0.3768  0.0400
40154W        W83170  19.617  32.615  23.685  0.3166  0.0461 -0.1254
40155W        W83171   2.525  10.474   2.541  0.1274 -0.0479  0.0240
40156W        W83172  29.895  10.041  29.057  0.0610 -0.0193 -0.1034
40157W        W83173  20.222  34.072  23.931 -0.0105 -0.1461 -0.1343
40158W        W83174  28.048  28.676   2.618  0.2499 -0.0639  0.4178
40159W        W83175  23.737   8.330   4.256 -0.4077 -0.3486 -0.0384
40160W        W83176  24.350  30.012   7.113 -0.0908  0.1004  0.0274
40161W        W83177   9.856   6.965   4.590  0.0568 -0.2205  0.0397
40162W        W83178  25.869  22.264   2.274  0.1065  0.3594 -0.1252
40163W        W83179  22.509  33.326   8.269  0.1415  0.1127  0.1766
40164W        W83180   3.978  26.772   9.318 -0.0646  0.1668  0.2812
40165W        W83181  21.570  15.113   4.578  0.0197  0.0883 -0.0546
40166W        W83182  12.453  33.128   4.546 -0.0641  0.2967 -0.1615
40167W        W83183  29.801   3.476   4.224  0.0938 -0.1884 -0.4677
40168W        W83184  26.715  31.961  23.326 -0.0740 -0.0007 -0.0760
40169W        W83185  17.253   4.499   1.430 -0.0126  0.0351 -0.2387
40170W        W83186  23.077   0.151   9.549 -0.0373  0.2053 -0.0385
40171W        W83187   2.023  22.079   4.162  0.2135 -0.0991  0.0381
40172W        W83188  23.717  24.491  27.057 -0.0468  0.0129  0.2356
40173W        W83189  14.685  16.596  27.246 -0.1994 -0.1145 -0.0399
40174W        W83190   7.875  25.786   6.508 -0.1358  0.2145 -0.2394
40175W        W83191  32.787   2.973   1.032  0.2029 -0.0723  0.1321
40176W        W83192   0.738  32.310  16.053 -0.3754  0.1439  0.0274
40177W        W83193  29.920   5.121  27.594  0.0136 -0.2585 -0.3762
40178W        W83194  23.921   1.902  10.191 -0.3203  0.3112 -0.2272
40179W        W83195  26.010   5.002   9.627  0.0423 -0.2762 -0.1200
40180W        W83196  24.960  32.067   5.136  0.1544  0.2738 -0.0094
40181W        W83197  30.285   9.494   7.312 -0.0889  0.1838  0.0560
40182W        W83198  28.016  33.338  11.336 -0.1609 -0.1654  0.3869
40183W        W83199  33.325  34.690   5.290  0.0250  0.2280 -0.2358
40184W        W83200  31.482  21.231   0.784  0.0961 -0.3996  0.0288
40185W        W83201  27.114   5.556   2.223  0.1122  0.2214 -0.0770
40186W        W83202  29.665   2.055   1.369  0.2664  0.1262 -0.3369
40187W        W83203  32.095  34.176   8.302 -0.1594 -0.1330  0.1060
40188W        W83204  31.395  30.898   8.980 -0.1186  0.2148  0.0963
40189W        W83205  22.050  30.775   9.434 -0.0254  0.1745  0.0115
40190W        W83206   8.246  28.747   0.373  0.0201  0.1467 -0.1326
40191W        W83207  16.258  30.148  21.698  0.0508  0.1911 -0.2857
40192W        W83208  14.132  19.818  24.005  0.3371 -0.1288 -0.4505
40193W        W83209  31.398  30.018  25.490  0.1980 -0.2949 -0.1936
40194W        W83210  33.998  27.618   8.082 -0.4846 -0.0121  0.3929
40195W        W83211  29.599  30.975  10.680  0.2183  0.3111 -0.1091
40196W        W83212  30.648  12.517   5.944  0.0513 -0.0865  0.2129
40197W        W83213  24.169  13.422   7.690 -0.1293 -0.2272 -0.1787
40198W        W83214   3.494  34.603   5.280 -0.2195  0.1582 -0.0375
40199W        W83215  30.373   1.982  20.132 -0.0248 -0.1365 -0.2329
40200W        W83216  33.911  16.755   7.080 -0.2872 -0.0549 -0.0350
40201W        W83217   2.590  20.427   2.788  0.1612  0.1249 -0.1519
40202W        W83218  23.634   6.965  27.931  0.4364 -0.1418 -0.2012
40203W        W83219  16.985   8.797   3.446 -0.0149  0.0758  0.1034
40204W        W83220  28.859  18.968  23.671 -0.3853  0.0249  0.1435
40205W        W83221  12.837   1.102   4.541 -0.0495 -0.0045 -0.0628
40206W        W83222  27.096   3.371   8.002 -0.3873  0.0953  0.1936
40207W        W83223  17.313   1.725   2.279 -0.1939  0.0156 -0.2850
40208W        W83224  28.644  19.351  29.016  0.2712 -0.4885 -0.1061
40209W        W83225  16.294  25.222   9.350  0.1330  0.2155 -0.2064
40210W        W83226  24.167  29.639   2.818 -0.2806 -0.1019 -0.1866
40211W        W83227  33.830  30.444   7.306 -0.1115 -0.0774  0.1519
40212W        W83228  22.570  29.620   5.179 -0.1597 -0.2325 -0.2048
40213W        W83229  25.669   0.729  26.640 -0.2321  0.3569 -0.5023
40214W        W83230  32.697  29.874   3.220 -0.0442  0.3033 -0.0817
40215W        W83231  32.899   5.119   7.657 -0.0335  0.0156  0.2977
40216W        W83232  32.707   8.405   9.475 -0.2027  0.1024 -0.0447
40217W        W83233  28.897  31.097   5.121 -0.2008 -0.0557 -0.1022
40218W        W83234  14.300  17.841   2.911  0.0215 -0.2358 -0.1606
40219W        W83235  22.992   2.703  26.749  0.0220 -0.3896  0.0922
40220W        W83236   4.743   7.512   7.478 -0.2455  0.0433 -0.0228
40221W        W83237   6.160   3.626   3.223 -0.0222 -0.2677  0.1058
40222W        W83238  24.864  29.754   9.401 -0.2759 -0.0674  0.2105
40223W        W83239   8.470  33.047   5.977  0.1977  0.1710 -0.1460
40224W        W83240  11.069   2.661   5.755  0.1632  0.1305  0.1025
40225W        W83241  25.351  18.092  28.347 -0.0455  0.2794  0.1414
40226W        W83242  15.335  28.202   6.971 -0.1127  0.4464 -0.0480
40227W        W83243  27.175  11.661   4.446 -0.1559 -0.0009 -0.0480
40228W        W83244  17.249  30.142   5.491 -0.0099 -0.0855 -0.0374
40229W        W83245  27.365  27.796   9.634  0.1907  0.1362  0.0958
40230W        W83246  19.328  34.611   9.815 -0.2184  0.1292 -0.1728
40231W        W83247  16.500   0.660   8.213 -0.2274  0.2081 -0.0621
40232W        W83248  12.882  16.852   5.757 -0.2905 -0.2258  0.1655
40233W        W83249  28.881  31.522   6.048 -0.1663  0.0518  0.2015
40234W        W83250  27.549  17.276  27.470 -0.0201  0.4806  0.0828
40235W        W83251  28.936  34.713  11.205 -0.2194  0.2249 -0.0117
40236W        W83252  33.853  29.007   5.958 -0.2867  0.2890 -0.0673
40237W        W83253  10.998  21.514  22.528  0.1334  0.0468  0.0341
40238W        W83254  31.650   2.284   9.472  0.1127 -0.0926 -0.2572
40239W        W83255  19.073  23.269   7.572 -0.0773  0.0353  0.1061
40240W        W83256   1.899   1.149   4.147  0.1043  0.1769 -0.3065
40241W        W83257  30.875  17.591   6.067 -0.2773 -0.0589 -0.3069
40242W        W83258  30.270  31.855  11.262 -0.3877 -0.0206 -0.1618
40243W        W83259  28.509  32.029  20.017  0.2232 -0.1042 -0.1324
40244W        W83260  29.351  33.172   9.214  0.3690 -0.2036  0.1702
40245W        W83261  22.301  28.542   5.724  0.3317  0.2167  0.1399
40246W        W83262  11.717  17.790  18.844  0.0338  0.1563 -0.0127
40247W        W83263  33.174  31.349  11.295  0.2291  0.0295  0.2065
40248W        W83264  28.346   2.995  10.784 -0.0206  0.3749 -0.0876
40249W        W83265  19.161   0.198   9.512 -0.1748 -0.5678  0.1203
40250W        W83266   1.871  10.846  25.923  0.1909  0.1102 -0.1213
40251W        W83267  25.449  31.920  10.124 -0.1858  0.2518  0.2186
40252W        W83268  26.737   7.718   7.389 -0.3352 -0.0372 -0.0905
40253W        W83269  32.748   3.156  15.736 -0.1603 -0.1221 -0.3929
40254W        W83270   4.523  30.881   7.497  0.1865  0.1557  0.1238
40255W        W83271  14.095  25.400   1.814 -0.2495 -0.1646 -0.0164
40256W        W83272  22.406  24.512   8.804  0.1133 -0.0298  0.2109
40257W        W83273  11.183   0.770  27.009 -0.3053  0.0715  0.2160
40258W        W83274  17.984   7.923   0.015 -0.1590  0.4622  0.2205
40259W        W83275  34.771   7.665  28.178 -0.1558  0.0997 -0.1761
40260W        W83276  20.588   2.116   4.657  0.0126 -0.2064 -0.0385
40261W        W83277  22.172  12.870   6.300  0.0359  0.2972 -0.0297
40262W        W83278  15.234  20.002  28.356 -0.2707 -0.1223  0.1076
40263W        W83279   1.257  16.413   4.904  0.1343  0.4434  0.0664
40264W        W83280  20.186   3.627  14.077  0.2518  0.4369  0.1334
40265W        W83281  20.254  30.826  23.820  0.1054 -0.4155 -0.4662
40266W        W83282  14.743   0.414  22.193  0.0117  0.3639 -0.0455
40267W        W83283  20.013   0.490  10.351 -0.0647 -0.1233 -0.1305
40268W        W83284  22.944  12.779  28.470  0.0757 -0.0953 -0.4090
40269W        W83285  11.195   5.181   9.374  0.2647 -0.2948  0.2033
40270W        W83286  16.708  26.811  28.363  0.2600  0.2822 -0.2193
40271W        W83287  29.148  10.077   2.721  0.1916  0.0703 -0.1495
40272W        W83288  12.263   8.021  27.057  0.2673  0.0160 -0.1321
40273W        W83289  26.323  26.426   5.810 -0.1646 -0.0082  0.1341
40274W        W83290  30.870  21.316   8.769  0.1923  0.1049 -0.2969
40275W        W83291  18.671  29.725   1.985  0.0251 -0.2757 -0.3202
40276W        W83292  31.906  24.723   7.120  0.0509 -0.2293 -0.0861
40277W        W83293   5.053   7.481   4.105  0.1668  0.0433  0.2212
40278W        W83294  28.768   3.731   0.966  0.1115 -0.0487  0.0477
40279W        W83295  19.401   2.620  19.438  0.1373  0.0402  0.0361
40280W        W83296   3.044  26.975  28.202 -0.1667  0.0601 -0.2505
40281W        W83297  17.917   4.675  20.553  0.0987 -0.3270 -0.2007
40282W        W83298   0.365   1.495   0.655  0.0652 -0.0627 -0.1820
40283W        W83299   2.253  31.917   9.420 -0.2806  0.1869 -0.1259
40284W        W83300  31.015  13.938   4.738  0.5230 -0.0285 -0.0761
40285W        W83301  29.870  30.637  10.950  0.0959 -0.3534  0.0542
40286W        W83302  10.827   2.066   4.433  0.2094  0.0762  0.1914
40287W        W83303  12.319  13.793   2.259  0.1707 -0.0785 -0.1013
40288W        W83304   6.796   1.558   9.254 -0.2285 -0.0159  0.2563
40289W        W83305  14.852  32.521  24.059  0.1288 -0.0133 -0.3226
40290W        W83306  17.247   1.927   6.989  0.0702 -0.1088  0.2775
40291W        W83307  23.961  33.859   0.501 -0.2356  0.0302  0.0387
40292W        W83308  24.692   3.464   3.840  0.0361  0.0648 -0.0793
40293W        W83309  30.901   9.877   5.458  0.2413 -0.2324 -0.1389
40294W        W83310  23.852  30.636  18.281 -0.1713 -0.1561  0.1458
40295W        W83311  11.012   6.432   0.285 -0.2570 -0.2353 -0.0046
40296W        W83312  29.427   1.490   6.096  0.0656  0.1295  0.4412
40297W        W83313  33.482  32.631   4.114  0.1511  0.0299  0.3094
40298W        W83314  23.238   6.526  21.993  0.3494 -0.1162  0.3243
40299W        W83315  25.952  12.989   8.049 -0.2047  0.0598 -0.1765
40300W        W83316  27.346   3.408  10.963  0.0385  0.2572  0.1751
40301W        W83317   6.039  23.345  26.965  0.1963 -0.0796  0.1692
40302W        W83318  30.359  33.900   9.806 -0.0293 -0.0336  0.0275
40303W        W83319   7.574  33.764  25.996  0.1675 -0.0114  0.0582
40304W        W83320  26.597  29.680   8.634 -0.0772 -0.0667 -0.0915
40305W        W83321  33.998  30.679  24.568  0.0421  0.0957 -0.2043
40306W        W83322  29.380  13.675   4.384 -0.0812 -0.3879  0.1438
40307W        W83323  27.839  32.627  22.027  0.0876 -0.5645 -0.1779
40308W        W83324  23.666  32.509   6.660  0.1359  0.0401  0.0308
40309W        W83325  30.771  10.614   2.537 -0.1620  0.1190 -0.0712
40310W        W83326   2.771  33.711  23.150 -0.1449 -0.1959  0.0153
40311W        W83327   8.472  12.319  27.306 -0.0422 -0.1068  0.3143
40312W        W83328  23.985  19.376  17.753 -0.2682 -0.1365  0.1671
40313W        W83329   1.962   7.077   5.920  0.4326  0.1023  0.0521
40314W        W83330   6.736  10.164   6.725  0.0551  0.0370  0.2639
40315W        W83331   1.164   1.593   6.152  0.3675  0.2388 -0.1395
40316W        W83332  11.061   2.010   3.996  0.5679  0.0420 -0.1251
40317W        W83333   0.439  30.491  28.109 -0.2121  0.0131 -0.0274
40318W        W83334  19.475  32.937   8.712  0.1080 -0.2076  0.1015
40319W        W83335  29.795   7.428   4.498  0.0419 -0.0185 -0.0045
40320W        W83336  20.694   7.388  18.516  0.4547 -0.2870  0.0022
40321W        W83337  33.606  22.735  25.557  0.1557 -0.0308  0.0701
40322W        W83338  27.716   3.221  17.914  0.2271  0.5330  0.2196
40323W        W83339  28.314   3.617   8.353  0.0579 -0.0679 -0.0348
40324W        W83340  14.696  33.731  15.599  0.0477 -0.0977 -0.3309
40325W        W83341  19.661  15.851   5.193  0.1895  0.0931 -0.1395
40326W        W83342  13.429   0.156   8.816 -0.0449 -0.2258  0.0931
40327W        W83343  24.087  27.000   7.330  0.1330  0.0833  0.1946
40328W        W83344  34.638   2.312  15.863 -0.0860 -0.2413 -0.0351
40329W        W83345  18.024   6.984   3.294 -0.0905  0.0535 -0.2503
40330W        W83346  23.787  19.438  17.178 -0.0064  0.0195  0.2031
40331W        W83347   1.932   1.020   2.677  0.3175 -0.0326  0.1915
40332W        W83348  32.299  23.201  22.569  0.0408  0.1316 -0.1595
40333W        W83349   0.806   3.102   7.502  0.1574 -0.0333 -0.3098
40334W        W83350   7.295   8.217  19.365 -0.1295 -0.0873 -0.0077
40335W        W83351  22.258  11.590  19.916 -0.3663  0.1201  0.0529
40336W        W83352  24.595   4.830  10.506 -0.0354  0.2896 -0.4269
40337W        W83353  32.759   7.908   9.659  0.1655  0.2810 -0.0743
40338W        W83354  34.044  10.659  21.620  0.1484 -0.3820  0.0815
40339W        W83355  21.940  12.645   4.161  0.1664 -0.1794  0.1006
40340W        W83356  26.331   8.349   7.829 -0.1939  0.1745  0.1648
40341W        W83357  28.115   0.380  10.059 -0.0907 -0.1239 -0.0120
40342W        W83358  11.425  28.974   6.298 -0.2073  0.1527  0.1821
40343W        W83359  26.498   2.152   5.889  0.3811 -0.2077 -0.3270
40344W        W83360  22.984  24.269   7.089 -0.0354  0.2642 -0.2036
40345W        W83361  33.580   0.734   2.903  0.1358 -0.2787 -0.3100
40346W        W83362  24.617  19.347  18.706 -0.0655 -0.1391  0.0554
40347W        W83363  24.742  33.379   4.413 -0.0076  0.1369  0.2798
40348W        W83364  27.129  26.374  28.406 -0.1218 -0.1962  0.0796
40349W        W83365   3.627  25.959   4.067 -0.4459 -0.2779  0.1050
40350W        W83366  32.539   1.265   7.667  0.0139 -0.1043 -0.4839
40351W        W83367   3.054  27.098   0.938  0.2142  0.0624 -0.0307
40352W        W83368  33.503  32.104   6.322 -0.1497 -0.3711 -0.1403
40353W        W83369  25.134  16.569   5.109  0.1033  0.3045 -0.1169
40354W        W83370   1.468  12.629   7.154 -0.3795 -0.1462 -0.3652
40355W        W83371  18.467  29.461   6.225  0.1410  0.0290  0.0631
40356W        W83372   9.575  11.159  26.039 -0.1125  0.3739 -0.0806
40357W        W83373  22.301  29.357  16.328 -0.3543  0.4460 -0.3596
40358W        W83374   1.858  12.355   6.629 -0.2134 -0.1115 -0.1774
40359W        W83375   8.604  20.193  25.768  0.0084 -0.0122 -0.1946
40360W        W83376  25.620   1.225   2.190  0.2218 -0.0670 -0.0613
40361W        W83377   5.873  33.421   5.158  0.0610  0.1329 -0.0974
40362W        W83378  34.115  31.825   0.396  0.2714 -0.0053  0.0480
40363W        W83379  32.780  24.662   6.851  0.0836  0.1380 -0.1372
40364W        W83380   5.849   0.263   8.064 -0.0083  0.1299 -0.0819
40365W        W83381  33.585   9.442  23.628 -0.0453 -0.0133 -0.0006
40366W        W83382   2.634  33.918  25.841 -0.0154 -0.1493 -0.0727
40367W        W83383  26.672   2.049   0.428 -0.1319  0.2182 -0.0850
40368W        W83384  29.060  17.016  10.289  0.0394 -0.0275  0.1698
40369W        W83385  20.935   7.462  17.491 -0.3307 -0.0441  0.0516
40370W        W83386  25.958  10.431   5.846 -0.0108  0.2388  0.1054
40371W        W83387   7.358  24.786  29.214  0.0533  0.0006  0.1932
40372W        W83388  11.796  22.819  18.880  0.2541  0.2078 -0.1086
40373W        W83389  27.240  30.949  11.688 -0.3049  0.2898 -0.2935
40374W        W83390  20.333   0.866   9.461  0.0493  0.0438  0.0652
40375W        W83391   0.753  20.193   4.616  0.1521 -0.0981  0.0892
40376W        W83392  13.585   8.277   3.640 -0.1260 -0.1260  0.3228
40377W        W83393  27.652  11.318  26.329  0.0559  0.0354  0.0173
40378W        W83394   3.495  34.718  27.022  0.3651 -0.5220 -0.1509
40379W        W83395  23.036  11.981  25.840 -0.0316 -0.1940 -0.3173
40380W        W83396  13.114  34.090   0.571  0.3517  0.1410  0.0823
40381W        W83397  25.431  21.370  28.825  0.1919  0.0103 -0.1183
40382W        W83398  31.584   0.163   8.040  0.1588  0.0972  0.0594
40383W        W83399  13.606   1.822   0.304  0.0189  0.1947 -0.2127
40384W        W83400   2.268  29.793  17.421 -0.0759  0.1058  0.0247
40385W        W83401  13.835  25.856   1.735  0.4004  0.1294 -0.1703
40386W        W83402  28.314   6.827   3.573  0.2412 -0.1527 -0.1179
40387W        W83403  34.720   0.625  17.188 -0.0096  0.3169 -0.4560
40388W        W83404   8.526   0.098   1.587  0.2498  0.4281  0.0499
40389W        W83405   7.236   6.112   0.825  0.1896  0.1507 -0.3250
40390W        W83406   0.198  10.642  17.800 -0.1875  0.2824  0.0759
40391W        W83407  32.385   8.073   0.316 -0.2313 -0.2466 -0.0005
40392W        W83408   1.673  26.771   7.933 -0.0489 -0.0224 -0.2152
40393W        W83409  25.090  26.212   5.593 -0.0694 -0.0540  0.3111
40394W        W83410  26.928   3.965  10.244  0.0202  0.0411  0.1183
40395W        W83411  12.475   0.384   5.680 -0.2559 -0.2751 -0.0493
40396W        W83412   5.606  18.374   1.081 -0.0025 -0.2242  0.0162
40397W        W83413  19.152   4.943   3.207  0.2922 -0.0135 -0.2150
40398W        W83414   3.792   5.306   4.588 -0.1787 -0.0176 -0.0315
40399W        W83415  28.550  13.300   5.495  0.0765  0.2067 -0.1520
40400W        W83416  16.221  22.102  23.371  0.0959 -0.0747  0.0587
40401W        W83417   7.031  12.771  15.780  0.4135  0.2337 -0.0025
40402W        W83418   1.269  23.636   3.001 -0.2779  0.4121 -0.0164
40403W        W83419  30.945  26.483  14.970 -0.1338 -0.0912 -0.0956
40404W        W83420  19.979  19.018  28.732 -0.0855 -0.1132 -0.5577
40405W        W83421  33.490  14.360  28.775 -0.2098 -0.1640  0.0369
40406W        W83422  30.749  27.412  24.503 -0.0260  0.0079 -0.0481
40407W        W83423  32.561   2.101   6.605 -0.2568 -0.2512 -0.1336
40408W        W83424  18.902  32.409  19.997  0.2650 -0.3333 -0.3088
40409W        W83425  21.259  30.226   5.075  0.3230 -0.2826 -0.0204
40410W        W83426   3.292  24.303   7.933  0.1149 -0.2284 -0.1362
40411W        W83427  15.892   1.386  25.352  0.1444  0.1579  0.0501
40412W        W83428  19.372   9.089   6.244 -0.0992 -0.0297  0.0060
40413W        W83429  18.143  24.959  25.996  0.0861 -0.2632  0.0209
40414W        W83430   9.656  21.436  28.688  0.1848 -0.2621  0.4646
40415W        W83431  32.228  32.490   3.014  0.0393  0.3132  0.5145
40416W        W83432  17.230  12.285  27.096  0.2243  0.2445 -0.0633
40417W        W83433   8.402  31.015   2.897 -0.2948 -0.1653 -0.0489
40418W        W83434  32.081   6.325   7.609  0.0945 -0.3734 -0.4140
40419W        W83435  18.610  16.896  27.336  0.2130  0.1750  0.0991
40420W        W83436   8.096   6.009   6.331  0.0231 -0.0918  0.0522
40421W        W83437   1.823   5.283   6.339 -0.5687 -0.1239  0.2151
40422W        W83438  18.322  32.937   7.348 -0.3043  0.3995  0.2881
40423W        W83439   0.721  18.844  22.657 -0.1498  0.0943  0.2252
40424W        W83440  31.768  27.208  28.243 -0.2860  0.0650  0.0021
40425W        W83441   5.433  33.591  27.568  0.1144  0.1564  0.3955
40426W        W83442  25.337   3.549  21.200 -0.0873  0.1908 -0.0380
40427W        W83443  25.261  26.078  10.275  0.1446  0.3663  0.3623
40428W        W83444   5.082   2.407  18.201 -0.1285  0.3436  0.0182
40429W        W83445  31.170  24.766   0.475 -0.0887  0.2008  0.0148
40430W        W83446   4.387  28.077  27.323  0.1060  0.2984 -0.0148
40431W        W83447  29.579  19.424   0.062  0.1496 -0.0505 -0.0034
40432W        W83448  14.367  34.252   6.468  0.2808  0.0158 -0.1188
40433W        W83449   4.840   9.923  26.505  0.0368 -0.3017  0.1656
40434W        W83450   0.312   6.342  27.469 -0.0062  0.2237  0.1452
40435W        W83451  23.688  33.310   3.086  0.2067 -0.2472  0.0439
40436W        W83452  28.139  18.754   1.061  0.0958  0.0591  0.2456
40437W        W83453  18.495   6.941   8.741 -0.0439 -0.1063  0.2413
40438W        W83454   8.023   6.343  29.191 -0.0928 -0.0079 -0.0222
40439W        W83455   8.184  13.789   8.804  0.3178 -0.0709  0.0602
40440W        W83456  33.559   7.268  15.387 -0.0892 -0.1779  0.0360
40441W        W83457   6.881  30.364   5.158  0.5645 -0.1178  0.2177
40442W        W83458  28.451  31.959   8.926 -0.1953  0.1327  0.1506
40443W        W83459  11.282   8.854  21.786 -0.1648  0.0500  0.0371
40444W        W83460   0.969   3.152  10.004 -0.2743  0.0469  0.2321
40445W        W83461  25.480   0.010   7.378  0.1353 -0.0343  0.0450
40446W        W83462  31.020  18.725  24.692 -0.1271 -0.1491  0.0046
40447W        W83463   3.454  14.426  17.783  0.0800 -0.0033 -0.2295
40448W        W83464   6.297  23.635   1.254  0.0134 -0.0594  0.2003
40449W        W83465   3.358  23.415   7.344  0.1439 -0.1767  0.2203
40450W        W83466   6.222  31.537   7.044  0.3764  0.0200  0.0869
40451W        W83467  26.315   5.537  24.060  0.1454  0.1215  0.2890
40452W        W83468   2.151  25.359   8.043  0.1578 -0.2179 -0.0075
40453W        W83469  19.783  22.585   6.470  0.3265 -0.3009 -0.2328
40454W        W83470  30.841  30.068   8.919  0.0222 -0.2706 -0.0436
40455W        W83471  21.856  29.675   4.486 -0.1859  0.0036 -0.3562
40456W        W83472  29.414  15.673   4.355  0.1689  0.0008  0.0193
40457W        W83473  29.742   8.319  24.436  0.1804 -0.0387  0.3801
40458W        W83474  31.970  12.752   3.657 -0.1988 -0.0245  0.2528
40459W        W83475  21.741   4.489  25.648  0.0370  0.0279  0.1538
40460W        W83476  30.347  33.128  23.865 -0.1568  0.1748  0.0797
40461W        W83477   2.124   2.713  16.678  0.3096  0.0302 -0.0467
40462W        W83478  23.174  31.747  29.085  0.0294 -0.1364 -0.0117
40463W        W83479   0.547   0.868  20.309  0.3614 -0.0009 -0.1735
40464W        W83480   4.157  32.424  17.050 -0.1247 -0.0277 -0.0122
40465W        W83481   8.487   6.766   3.094 -0.3778  0.0831 -0.3031
40466W        W83482   2.229  10.442  24.918  0.1980 -0.2862  0.0715
40467W        W83483  29.987  29.185  21.436 -0.2154 -0.2232  0.1592
40468W        W83484  21.892  17.049  22.431 -0.0654 -0.3079  0.1769
40469W        W83485  28.084   0.769  22.813  0.1267 -0.1130  0.0002
40470W        W83486  21.843  27.543   7.745  0.0223  0.1544  0.3239
40471W        W83487  22.766  34.755  10.979 -0.0371 -0.2482 -0.1077
40472W        W83488  31.020   4.477  24.784 -0.0510 -0.1437  0.1627
40473W        W83489  13.024   5.873   4.922  0.0508 -0.2990 -0.3434
40474W        W83490  24.644   5.816  19.666  0.0585  0.2492 -0.1730
40475W        W83491   1.814  10.957   9.452  0.0599 -0.0790  0.1959
40476W        W83492  15.840  30.402   1.339  0.1573 -0.0670  0.2088
40477W        W83493   7.702  21.303  22.969 -0.1394 -0.1336 -0.0933
40478W        W83494  28.813  33.470  11.757 -0.0230  0.6065  0.0137
40479W        W83495  33.776   3.209  14.433  0.0999  0.2148 -0.0670
40480W        W83496  27.881   7.429   5.510 -0.0248  0.1789  0.1346
40481W        W83497  34.628   3.141   2.882 -0.0542  0.1155  0.1024
40482W        W83498  32.584  10.275  15.842  0.1382  0.3105  0.1850
40483W        W83499  16.597  29.427  18.902  0.1616 -0.0750 -0.4283
40484W        W83500  24.579  19.093   5.201  0.4045 -0.2407  0.1563
40485W        W83501   9.250  22.897   5.474  0.0074 -0.1773 -0.1549
40486W        W83502  32.324  14.416   9.645 -0.1171 -0.1801 -0.0334
40487W        W83503   3.379  32.470   1.502 -0.2509 -0.2908  0.1165
40488W        W83504   5.136   8.210   8.002  0.2064 -0.3073  0.0482
40489W        W83505   6.070  29.819   5.967 -0.1717 -0.1780  0.3295
40490W        W83506  29.454  29.739   7.689  0.0225  0.1398  0.2233
40491W        W83507  11.320  26.194  25.042  0.0642  0.0351 -0.3097
40492W        W83508  34.339  19.527   6.151  0.0988  0.0576  0.4150
40493W        W83509  29.753  12.153   8.582  0.1139 -0.1179  0.1398
40494W        W83510  24.922   0.946   5.275  0.2747  0.1090 -0.0012
40495W        W83511   2.849  30.155   2.018 -0.2515  0.2022 -0.1956
40496W        W83512  10.910   6.046  29.308  0.2857 -0.1624  0.0936
40497W        W83513   5.272   0.254   6.261 -0.1822  0.0734 -0.3266
40498W        W83514  24.791  31.749  25.144  0.2161 -0.0761  0.0084
40499W        W83515   5.835   1.358  10.474 -0.0375  0.1815  0.0652
40500W        W83516   2.691   8.285   5.855 -0.0543  0.0606  0.0372
40501W        W83517  21.595  15.034   6.142  0.1017  0.2367  0.0753
40502W        W83518  30.320   4.263  23.107 -0.2056 -0.1154 -0.2096
40503W        W83519   7.813  32.938   3.722  0.1402  0.0534  0.0492
40504W        W83520   7.802   7.631   0.254  0.2991 -0.0319  0.0209
40505W        W83521  10.126   9.774   2.738  0.0087 -0.1926 -0.3671
40506W        W83522  31.609  30.349   8.099  0.0162 -0.0567  0.0970
40507W        W83523   1.568  26.390  23.792 -0.1803  0.5515 -0.0159
40508W        W83524  15.590  15.398   0.436 -0.0367  0.0156 -0.0373
40509W        W83525  30.610  23.742   9.332 -0.0995  0.4282 -0.2454
40510W        W83526   2.308   3.792   9.027 -0.1334  0.4856 -0.1048
40511W        W83527  25.635  29.156  16.166  0.0803  0.0588  0.5370
40512W        W83528   9.373  15.001  24.262  0.0479  0.0809 -0.0032
40513W        W83529   9.414   6.689   4.674  0.0926  0.2322 -0.0219
40514W        W83530  26.625  31.692   9.231 -0.1278  0.0117 -0.1078
40515W        W83531   2.097   5.629   5.946  0.2374  0.0223  0.0802
40516W        W83532   7.453  22.189   5.070  0.0013  0.1475 -0.1587
40517W        W83533  24.913   7.587   7.675  0.1120 -0.0406 -0.0224
40518W        W83534  32.228  11.308   6.610  0.0550 -0.2559 -0.1787
40519W        W83535  21.669   4.265  29.088  0.1113  0.3333  0.2052
40520W        W83536   1.394  33.952  22.829  0.0155  0.0023 -0.0784
40521W        W83537  34.634   4.124  28.504 -0.2560  0.0395 -0.1014
40522W        W83538  28.108  26.749  26.446  0.0244  0.0730  0.3058
40523W        W83539  32.084  27.366  28.812  0.1676  0.3387  0.2271
40524W        W83540  22.559  16.944  13.662  0.2646  0.1625  0.2480
40525W        W83541  21.184   4.522  29.097  0.1389  0.1407  0.2329
40526W        W83542  29.685  32.971   7.007 -0.1229  0.0271 -0.1343
40527W        W83543  25.076  34.207   4.983 -0.2857 -0.3226  0.0946
40528W        W83544  33.002   5.484  17.534  0.0239  0.0082  0.0355
40529W        W83545  34.688   6.577   7.206 -0.2503 -0.1705 -0.2150
40530W        W83546  14.073  12.006  21.625 -0.0651 -0.0004 -0.1476
40531W        W83547   1.651   9.603   5.744  0.2390  0.0738 -0.0647
40532W        W83548   7.818   2.885  18.774  0.4011 -0.0010 -0.1462
40533W        W83549   4.861  15.701   6.335 -0.0097  0.1070 -0.0758
40534W        W83550  29.818   1.073   8.659 -0.0294  0.0908 -0.0724
40535W        W83551   2.884  16.859  23.256  0.0523  0.1212  0.1029
40536W        W83552  11.883  14.937   4.300  0.2325 -0.2179 -0.2111
40537W        W83553  15.954  32.006  17.926 -0.0855 -0.0916 -0.0426
40538W        W83554  28.910  27.702   3.913  0.4396 -0.0507  0.0871
40539W        W83555  27.517  19.882  26.893 -0.0795  0.0640  0.0188
40540W        W83556  20.043  28.024  20.927  0.0215  0.0191  0.0391
40541W        W83557  11.332   1.736  28.915  0.2822 -0.2203  0.0109
40542W        W83558   6.186   3.559   5.633  0.1224 -0.0698  0.1847
40543W        W83559  24.135  34.725  27.483 -0.1201  0.1061 -0.1123
40544W        W83560  27.616  30.213   8.223  0.3443  0.1235 -0.1497
40545W        W83561   7.509   3.133   2.797  0.3581  0.1229 -0.0067
40546W        W83562  31.336   3.003   6.560 -0.0723  0.4739  0.0225
40547W        W83563  29.428  30.756  11.176  0.1484 -0.4943  0.3517
40548W        W83564   9.514  33.111   9.875  0.0565 -0.2476 -0.0510
40549W        W83565  13.033  14.897  19.207 -0.1715 -0.1576  0.2719
40550W        W83566   4.875  24.427   2.058  0.0464  0.3344  0.2276
40551W        W83567  30.567   7.174  23.538  0.2834  0.0171  0.0041
40552W        W83568   9.128  32.351   5.970 -0.0517 -0.4454 -0.1349
40553W        W83569  26.956  34.390  24.574 -0.2750  0.1250  0.2611
40554W        W83570   8.520  23.947   0.115  0.2308  0.0919  0.0214
40555W        W83571  32.834  18.262  10.059 -0.1013  0.1521  0.2750
40556W        W83572   0.316  20.871   0.059 -0.0246  0.2104 -0.0760
40557W        W83573  33.650  13.068  27.467  0.2169 -0.0105  0.2063
40558W        W83574  20.486  10.836  26.991  0.2318  0.0701 -0.0428
40559W        W83575   0.237  33.376  23.993 -0.2933  0.0097  0.0449
40560W        W83576  30.159  29.357  25.014  0.0194  0.0288 -0.1192
40561W        W83577  30.359  33.685  28.894 -0.1255  0.1163 -0.1256
40562W        W83578   0.833  26.105   4.893  0.0130  0.1191  0.0484
40563W        W83579  33.059  13.670   2.352  0.2618 -0.0382  0.1006
40564W        W83580  33.443  33.123   2.349 -0.0013 -0.1788  0.2036
40565W        W83581   2.767  10.331  25.019 -0.4431  0.0514  0.3216
40566W        W83582   3.422  19.687   0.748  0.2719  0.0143 -0.0760
40567W        W83583   2.289  26.400  24.324 -0.0727  0.4727 -0.0350
40568W        W83584  28.171   8.582  28.482 -0.4993  0.3134  0.0382
40569W        W83585  25.467   0.546  24.458 -0.1341  0.0982  0.1683
40570W        W83586  10.692  16.930  16.873 -0.2993  0.1481 -0.0952
40571W        W83587  14.532   1.096   7.244  0.1353 -0.0484 -0.0584
40572W        W83588   5.106   5.581   5.626  0.2527 -0.1087  0.0430
40573W        W83589  34.706  27.461   2.349 -0.0008 -0.1870  0.1661
40574W        W83590  34.170   0.803   7.556  0.0363 -0.3192 -0.1439
40575W        W83591  19.309  29.420  25.634 -0.3978  0.2007 -0.0347
40576W        W83592  31.444  16.204   2.850  0.1046 -0.0333 -0.1097
40577W        W83593  22.635   3.603  29.162 -0.2954 -0.0453  0.0396
40578W        W83594   4.481   5.963  19.649  0.0849 -0.4620  0.1080
40579W        W83595  11.320   3.812  16.082  0.2189 -0.0678 -0.2832
40580W        W83596  22.166  18.157   8.859  0.1186 -0.1682 -0.0083
40581W        W83597   3.003  12.919  15.874 -0.2000 -0.0794 -0.3008
40582W        W83598  27.577  26.620   3.387 -0.0010  0.0252 -0.1487
40583W        W83599  18.256   2.273   4.693  0.1690  0.1853  0.4968
40584W        W83600   0.469   6.992   6.467 -0.1842  0.0443 -0.1355
40585W        W83601   0.099  16.061  28.511 -0.0226 -0.0458  0.2490
40586W        W83602  18.281  14.765   6.091 -0.1277 -0.2929 -0.0599
40587W        W83603  13.059   0.719   8.401  0.1147 -0.1151  0.3390
40588W        W83604   5.831   3.692   0.581 -0.1970 -0.0202 -0.0924
40589W        W83605  32.679  28.599   6.154  0.0918 -0.1163  0.1610
40590W        W83606  21.711   3.420   3.359 -0.0563 -0.0496 -0.0719
40591W        W83607   3.386   9.349   6.580  0.4021  0.1322 -0.1187
40592W        W83608   5.102  29.137  28.546  0.0614 -0.0231 -0.0107
40593W        W83609  10.338  12.067  22.418  0.0887  0.1461 -0.3279
40594W        W83610  33.124  18.358   1.613  0.0387 -0.0072  0.1205
40595W        W83611   7.705  10.340   3.933  0.0472  0.0120 -0.5042
40596W        W83612  23.796   0.979  20.667 -0.2275 -0.1627  0.2410
40597W        W83613  25.319  26.562  28.482 -0.0009  0.0974  0.0850
40598W        W83614  32.925  29.407   2.993 -0.0690 -0.0074 -0.0185
40599W        W83615  25.763   0.537   8.628 -0.1015 -0.1876 -0.2125
40600W        W83616  20.669   3.580  19.672 -0.1928 -0.4763  0.1328
40601W        W83617  19.395   5.503   6.334  0.1758 -0.3011  0.1504
40602W        W83618  33.992  12.511   8.144  0.0821  0.0453  0.3821
40603W        W83619  28.998  30.367  22.330 -0.0727 -0.3522  0.2572
40604W        W83620  31.515   2.176  20.260 -0.0377  0.0126 -0.0486
40605W        W83621  32.260  32.590   5.320 -0.1375 -0.1559  0.0544
40606W        W83622   1.435  14.954  28.144  0.0036  0.2331 -0.1388
40607W        W83623  22.089  26.195   6.958 -0.0461 -0.4247  0.0031
40608W        W83624   3.590   3.336   7.850  0.0253  0.2050 -0.1706
40609W        W83625   6.374  16.753  22.765 -0.2243 -0.1139 -0.3990
40610W        W83626  30.572   3.572   1.285 -0.3313  0.3662 -0.2483
40611W        W83627   9.822   4.674  27.913  0.3442  0.0889  0.0869
40612W        W83628  34.281  33.802  11.036  0.0116  0.3268 -0.0494
40613W        W83629  28.446   3.554   2.486 -0.1798 -0.0690  0.1187
40614W        W83630  27.864  13.033   6.543  0.0886 -0.1072 -0.3210
40615W        W83631  24.868  15.441  21.919 -0.0247 -0.4940  0.2058
40616W        W83632  32.489   0.331  25.018 -0.0961 -0.1542  0.0670
40617W        W83633   4.303  10.613   2.741 -0.0798 -0.0196 -0.0020
40618W        W83634  31.528   7.028  17.616  0.1851 -0.0840 -0.2634
40619W        W83635  26.615  21.862   2.683  0.1842 -0.0812  0.1116
40620W        W83636  30.204   7.351   4.093  0.0592  0.0730  0.1583
40621W        W83637  28.301   1.319   0.809 -0.0051 -0.2300  0.0662
40622W        W83638  25.919  29.441  28.062  0.1890  0.0515 -0.1188
40623W        W83639  18.395   0.176   9.426  0.1215 -0.1188 -0.0231
40624W        W83640  31.538  29.893   4.955  0.1574  0.1604  0.3609
40625W        W83641  34.699  30.554   0.829  0.1032 -0.0147 -0.1237
40626W        W83642  29.585  29.010  12.119  0.0665 -0.1300 -0.0405
40627W        W83643  30.773  33.888  28.867  0.0170 -0.2135  0.1527
40628W        W83644  25.751  34.413  17.124 -0.0455  0.1232 -0.0325
40629W        W83645  28.663  23.648   3.131  0.0436 -0.0549 -0.1228
40630W        W83646  23.930  24.532   6.667  0.1088  0.0581 -0.3237
40631W        W83647  24.490  14.593  27.844  0.2358  0.2825 -0.0890
40632W        W83648  10.521  18.714  19.718  0.0054 -0.1050  0.0288
40633W        W83649  31.596   6.113  26.515  0.0312 -0.1628  0.0082
40634W        W83650  30.794  24.597   2.159  0.0552 -0.2484  0.2261
40635W        W83651  29.627  29.968  28.192  0.2278  0.3481  0.3432
40636W        W83652  27.284   4.483  23.082 -0.4646 -0.0614  0.2772
40637W        W83653  26.497   7.400  11.038  0.0564 -0.1457  0.0310
40638W        W83654  32.439   8.825  16.992  0.1109 -0.1280  0.0659
40639W        W83655  21.164  27.250  14.130  0.0048  0.0317 -0.1282
40640W        W83656  19.092  10.190   2.983 -0.0043  0.0397 -0.0037
40641W        W83657   3.966  17.265  23.842  0.0682  0.0420 -0.1701
40642W        W83658  28.701  31.212   8.545  0.1614  0.2171 -0.6170
40643W        W83659   6.216  21.540   7.486  0.3706  0.1551  0.0225
40644W        W83660  15.410  11.491   1.834 -0.1756  0.0753  0.2729
40645W        W83661   6.529  22.251  22.658 -0.3554 -0.1610 -0.1075
40646W        W83662  30.518   3.448   0.111  0.0970  0.0847  0.1517
40647W        W83663  18.250  26.688  26.887 -0.1270  0.1637 -0.1446
40648W        W83664   2.454  13.459   3.669  0.1762 -0.0221  0.3193
40649W        W83665  31.087  24.433  23.186  0.0116 -0.2559 -0.2684
40650W        W83666  22.862   7.157   6.616 -0.0786  0.0407 -0.3377
40651W        W83667   4.579  21.103   8.649  0.0849  0.0794  0.2052
40652W        W83668  31.744  16.926   9.591  0.3107 -0.4462 -0.2150
40653W        W83669   3.223   9.727  21.238  0.0656 -0.2056 -0.1501
40654W        W83670  30.663  34.499   4.820 -0.0313  0.2777  0.0533
40655W        W83671  28.908  13.137   9.602  0.0441 -0.3727 -0.0652
40656W        W83672  25.600   6.973   2.824  0.3458  0.0342  0.0972
40657W        W83673  24.913  23.998   1.917  0.2468 -0.2089 -0.0652
40658W        W83674   9.149   5.357  24.555 -0.3600  0.0407  0.0528
40659W        W83675  27.325   0.884   0.190 -0.1103  0.2863 -0.0905
40660W        W83676  16.853  29.039   1.168  0.1184 -0.0335 -0.0670
40661W        W83677  32.708   1.696  10.292 -0.0347  0.0604 -0.1429
40662W        W83678   9.009  19.176   5.486 -0.1529  0.1994 -0.0285
40663W        W83679   6.143   4.286  17.906 -0.1306 -0.2021  0.0600
40664W        W83680  14.415  29.167   0.104  0.2207  0.3432  0.2951
40665W        W83681  28.733  20.704   7.732 -0.6110 -0.1795  0.1519
40666W        W83682  27.567   2.179   4.337 -0.2157 -0.0406  0.0198
40667W        W83683   4.597  33.396  28.013 -0.0745  0.2131  0.1320
40668W        W83684  32.403  23.976   6.454 -0.2699  0.0125 -0.2140
40669W        W83685  32.094   5.185   5.985  0.0393  0.0674 -0.0799
40670W        W83686   6.322  12.616  25.360  0.1922  0.1223  0.0490
40671W        W83687  29.634  15.262  25.254 -0.1306  0.2132  0.0945
40672W        W83688  18.486   0.235  20.301  0.1304 -0.6310  0.1992
40673W        W83689  30.079   2.604   6.837  0.0225 -0.2360 -0.0178
40674W        W83690   1.842   3.466  28.701  0.3933 -0.0032  0.1532
40675W        W83691  26.174  16.496   5.056 -0.0380  0.0449 -0.1520
40676W        W83692   0.242  26.962   2.651  0.1974  0.1967  0.0876
40677W        W83693  34.181  31.151   9.963  0.0398  0.1706  0.0092
40678W        W83694  27.232   9.595   9.699  0.0257  0.1191  0.2361
40679W        W83695  24.653  11.810   5.498 -0.0773  0.2571  0.1126
40680W        W83696  24.528  24.467   3.117 -0.1181  0.0419 -0.4745
40681W        W83697   4.443  13.584   6.368  0.0713 -0.1491 -0.0237
40682W        W83698  32.058  29.219  10.885  0.0939  0.0965 -0.0839
40683W        W83699  22.707   7.358  27.842  0.0666  0.1608 -0.1683
40684W        W83700  24.654  20.607  27.492 -0.0141 -0.3289  0.3380
40685W        W83701  28.988  12.548   0.793  0.2025 -0.1833  0.1752
40686W        W83702  32.465   3.205   6.260 -0.0126 -0.0994  0.0698
40687W        W83703   5.487  34.688  28.558  0.0654  0.1399 -0.1872
40688W        W83704  21.847  21.708  29.135 -0.1577 -0.2786 -0.1581
40689W        W83705  16.440  10.129   1.275 -0.1514  0.4704  0.2231
40690W        W83706  33.862  26.524   4.391  0.0250  0.1094  0.0642
40691W        W83707  24.591  23.687  24.958  0.0140  0.0343 -0.1025
40692W        W83708  25.314  33.841   5.276 -0.2063 -0.0851 -0.0649
40693W        W83709  21.309   7.907   8.717  0.0238  0.3576 -0.0535
40694W        W83710   3.942   9.833  23.494 -0.2637 -0.0616  0.2993
40695W        W83711   1.503  26.727  25.976  0.0781  0.0826  0.3138
40696W        W83712  26.211  32.524  10.292  0.1784  0.0784  0.2490
40697W        W83713  23.365  28.671  28.551 -0.1161  0.0945  0.0179
40698W        W83714  28.670  15.485  19.666  0.1351  0.2963  0.2062
40699W        W83715  21.720  14.459  25.332 -0.1113 -0.2289 -0.2659
40700W        W83716   6.518   0.757  10.702  0.1598  0.0811 -0.0070
40701W        W83717  12.689  29.029  29.221  0.2885 -0.1415 -0.2363
40702W        W83718  25.435  24.764   5.387 -0.1771 -0.1257  0.1689
40703W        W83719  34.317  31.964   8.354 -0.1779 -0.1540 -0.1180
40704W        W83720  29.214  14.343   0.081 -0.2762  0.2838 -0.0491
40705W        W83721  24.984   7.597  27.057 -0.0561 -0.1454  0.0248
40706W        W83722  28.509  21.124   1.133 -0.1526 -0.0203 -0.0140
40707W        W83723  24.235   7.247  18.761  0.2030  0.0262 -0.2334
40708W        W83724  30.873   2.147  21.083 -0.0915  0.0411  0.1185
40709W        W83725  26.235  21.303   4.738  0.0329  0.1476 -0.2016
40710W        W83726  28.339  30.923   8.841 -0.0498 -0.1378  0.1932
40711W        W83727   3.339  33.446   6.545  0.3659 -0.1013  0.0990
40712W        W83728  28.379  28.032  11.235 -0.1824  0.3692  0.2356
40713W        W83729  22.640   9.166  23.896  0.3365  0.2195  0.1354
40714W        W83730  31.460  31.619   8.692 -0.0557  0.3419 -0.1703
40715W        W83731  27.372  24.928   9.731 -0.2320 -0.1994 -0.1222
40716W        W83732  31.806  29.800  19.945 -0.0621  0.2487  0.0956
40717W        W83733  14.368  12.812  14.864 -0.0112  0.0034  0.0206
40718W        W83734   2.739   5.877   7.916  0.1743 -0.0982  0.1828
40719W        W83735   4.834  17.100   1.522 -0.2079 -0.3976 -0.2119
40720W        W83736  25.874   9.598  21.977  0.0579 -0.2357  0.0426
40721W        W83737   4.322   9.497   0.267  0.2147 -0.1360  0.1689
40722W        W83738  34.722  25.792   3.142 -0.4280 -0.0826 -0.0847
40723W        W83739  29.901  33.687   4.988  0.1813  0.0175  0.3815
40724W        W83740  21.266   2.480   5.385  0.0257  0.0184 -0.1983
40725W        W83741   1.347  33.400  27.168 -0.2311  0.0810  0.3671
40726W        W83742  25.932  25.049   5.489 -0.3314 -0.2510  0.1570
40727W        W83743  10.607   0.295   3.334  0.1329 -0.2519 -0.0342
40728W        W83744  26.728   1.070   2.057 -0.2180 -0.0310 -0.0784
40729W        W83745   9.528  31.912   1.028 -0.0742 -0.3284  0.0341
40730W        W83746  27.421  15.318   8.913  0.1637 -0.2198 -0.0847
40731W        W83747  32.173   4.513   7.861 -0.0339  0.0365  0.0662
40732W        W83748  21.505  30.794   5.765  0.0270  0.2661  0.1471
40733W        W83749  31.746  30.812  28.464  0.0284 -0.1913 -0.0791
40734W        W83750  11.849   6.280  28.319 -0.1497  0.1905 -0.3848
40735W        W83751  31.115  29.149  27.036 -0.0511 -0.3467 -0.2622
40736W        W83752   8.839   2.804  23.838 -0.0983 -0.0077 -0.0845
40737W        W83753   7.353   4.408  27.012  0.0893 -0.3006 -0.0828
40738W        W83754  25.883   4.325   9.166  0.4604 -0.1254 -0.1050
40739W        W83755  22.982  31.673   0.942 -0.2146 -0.2201  0.5775
40740W        W83756  26.924   2.568   9.719  0.1375 -0.2011  0.2124
40741W        W83757  21.569   9.234   0.139 -0.1918 -0.1090  0.4164
40742W        W83758  26.823  31.294   8.301 -0.1827 -0.2243  0.1427
40743W        W83759  28.297  11.994   3.702  0.0520 -0.0149  0.0302
40744W        W83760   2.156  32.277   7.465  0.1552  0.1836 -0.0985
40745W        W83761  27.147  28.250  29.286 -0.0354 -0.2925 -0.3135
40746W        W83762  25.681   3.525  22.881  0.0222  0.0868  0.1535
40747W        W83763  25.455   8.701   4.379  0.1373  0.3148 -0.0547
40748W        W83764  12.711  33.770   0.454 -0.0225 -0.1854  0.2398
40749W        W83765  33.673   3.363   3.435 -0.0708 -0.2268 -0.2580
40750W        W83766  28.376   5.679   9.591 -0.1443  0.0147  0.1722
40751W        W83767  19.706  20.894   0.830  0.0934  0.3006 -0.2489
40752W        W83768  30.702   1.097   9.098  0.1269  0.0961 -0.0507
40753W        W83769  17.765   3.090   3.648 -0.0558  0.0391  0.1357
40754W        W83770   1.722  17.994  28.508 -0.1577  0.3026 -0.0474
40755W        W83771  27.683  31.033   3.569  0.0257  0.0769 -0.1846
40756W        W83772  32.359  25.524   6.718  0.1123 -0.1165 -0.1181
40757W        W83773  25.255   9.897  15.439 -0.1731  0.2974 -0.3779
40758W        W83774  27.652  33.935  10.449  0.0036 -0.1345 -0.0836
40759W        W83775  14.436  17.309  25.536  0.2407 -0.3746 -0.4117
40760W        W83776  25.304   2.933   8.404 -0.0307 -0.0759 -0.2340
40761W        W83777  26.284   7.371   2.264 -0.1220 -0.0426  0.3269
40762W        W83778   6.393  16.291   8.176 -0.1292 -0.0092 -0.1231
40763W        W83779   2.958  19.481  28.891 -0.0107  0.3851 -0.1680
40764W        W83780  23.988  12.692   8.827  0.2350 -0.1777 -0.0559
40765W        W83781   3.050  10.766  25.772  0.0549  0.0773 -0.3479
40766W        W83782   7.930  10.521  24.390 -0.1533 -0.0896 -0.0502
40767W        W83783  27.304  28.318   3.063  0.0614 -0.1796  0.2510
40768W        W83784  28.353   0.916   1.959  0.0058 -0.0110  0.1333
40769W        W83785  15.795  30.723  26.131 -0.1275  0.0192  0.0251
40770W        W83786  28.703  15.754   2.333  0.0417  0.0526  0.2224
40771W        W83787  26.818  34.451  11.831  0.2168 -0.0047 -0.3064
40772W        W83788  33.032  16.450   4.763  0.2217  0.2240  0.0684
40773W        W83789  32.547  32.749  27.115  0.1277 -0.2996  0.4010
40774W        W83790  27.493  28.177   3.965  0.1837  0.0472 -0.1759
40775W        W83791   8.866  27.300  17.718  0.0055 -0.0221 -0.2786
40776W        W83792  32.561  14.782   8.377 -0.0303  0.1138  0.0650
40777W        W83793  17.278  31.237   2.923  0.1218  0.4528  0.1781
40778W        W83794  28.058  14.936   6.207 -0.1396  0.0277  0.1699
40779W        W83795  10.470   1.106  19.982  0.2999  0.1369 -0.0447
40780W        W83796   9.577  15.519  21.890 -0.0410  0.1368  0.0140
40781W        W83797  20.955  25.769   7.488  0.1160  0.1647 -0.0256
40782W        W83798  26.245  28.089   7.902 -0.1006  0.1960 -0.1070
40783W        W83799  28.774  33.620  28.628  0.0379 -0.0696 -0.3907
40784W        W83800  33.792   2.779  26.553 -0.1451 -0.1265  0.4250
40785W        W83801  27.779   2.513   4.673  0.1294 -0.2656 -0.1019
40786W        W83802   2.934   9.553   7.572  0.1027  0.1906 -0.0438
40787W        W83803  24.606  32.196  11.138 -0.0429 -0.1972 -0.1012
40788W        W83804   5.370  14.935  16.141  0.0238 -0.2889 -0.2772
40789W        W83805   3.983   0.251   4.079  0.0590 -0.2479 -0.3865
40790W        W83806  34.383   7.797   6.052  0.0185 -0.2072 -0.1313
40791W        W83807  10.002  33.585   2.646  0.3773 -0.0094  0.2099
40792W        W83808  31.986  10.869   6.762  0.2344 -0.2133 -0.3438
40793W        W83809  34.451  12.342  23.542 -0.0345  0.0034 -0.2754
40794W        W83810  29.450  12.422   5.177  0.0872  0.1664 -0.1995
40795W        W83811  30.744  28.589   8.816 -0.0789 -0.1381  0.3784
40796W        W83812  26.261  11.000   4.432  0.0216  0.0629 -0.0584
40797W        W83813  14.497  28.326  22.618 -0.0772  0.0673  0.1394
40798W        W83814  22.797  34.481   8.708 -0.2048 -0.1321 -0.0173
40799W        W83815  10.444   5.689   7.614 -0.2868  0.0508 -0.1143
40800W        W83816   2.543  26.439   0.609  0.0111  0.0538  0.1345
40801W        W83817  28.828   3.059   0.716 -0.1770  0.0205  0.1441
40802W        W83818   9.707  21.700  29.150  0.1886 -0.1879  0.1987
40803W        W83819  12.263  34.427  24.459  0.1440  0.2512  0.2038
40804W        W83820   7.179  11.956  23.906  0.3250  0.2459 -0.2996
40805W        W83821  11.461  31.084   9.692 -0.0321 -0.0556 -0.0046
40806W        W83822  32.140  12.997   0.022 -0.2101 -0.0161 -0.0433
40807W        W83823  16.342  29.336  24.375 -0.1679  0.0881 -0.1286
40808W        W83824   8.529   8.947   8.061 -0.1362 -0.0780  0.0611
40809W        W83825  30.530   1.865  29.283 -0.0571  0.1555 -0.2408
40810W        W83826   9.379  34.114   9.956 -0.1572  0.1342 -0.3956
40811W        W83827   9.059   9.307  17.814  0.2808 -0.0455  0.0220
40812W        W83828  25.854  14.530  28.332  0.2846 -0.2224  0.1209
40813W        W83829   1.727  12.395   9.131 -0.2396 -0.0921 -0.0363
40814W        W83830   6.267   7.752  29.036  0.0386 -0.2689 -0.2339
40815W        W83831  30.866   8.854   4.047  0.0070 -0.3538  0.1439
40816W        W83832  17.994  30.730  18.821 -0.1821 -0.3502  0.0013
40817W        W83833  32.842  17.828   4.639  0.1667  0.0929 -0.1721
40818W        W83834   1.083   7.924   5.847  0.1282  0.1654 -0.2263
40819W        W83835  18.658   2.350  28.649 -0.0505  0.1802  0.1143
40820W        W83836  11.046  10.096  20.092 -0.2680 -0.2091 -0.1381
40821W        W83837   3.199  23.653   5.327 -0.0416 -0.2484  0.2171
40822W        W83838  27.132  14.852   7.789  0.2393 -0.2605  0.0791
40823W        W83839   3.623   1.490  28.076 -0.1588 -0.2473 -0.1034
40824W        W83840  24.933  17.214   9.225  0.0364  0.0727 -0.1836
40825W        W83841   5.900  33.178   0.882 -0.2042 -0.3397  0.1184
40826W        W83842  31.316  31.176   8.134  0.1740 -0.1577 -0.0984
40827W        W83843  32.772  20.320  24.630 -0.1537  0.2435 -0.2070
40828W        W83844   3.465  29.126  24.554  0.0213  0.0704 -0.4794
40829W        W83845  32.111   4.135   9.530 -0.0899 -0.3648  0.4945
40830W        W83846   2.611   8.899  10.110  0.1833  0.0584  0.0409
40831W        W83847  33.186  22.815  14.847  0.1273 -0.2145 -0.0335
40832W        W83848  15.889   1.117   9.073  0.5614 -0.1667  0.0612
40833W        W83849   8.063  15.025  13.219 -0.0292  0.1041 -0.0204
40834W        W83850  29.728  19.732   8.529 -0.5577  0.1516  0.1416
40835W        W83851   8.157  16.329   8.944  0.3281  0.1282 -0.2333
40836W        W83852  27.992   0.329   1.969  0.3928  0.1277  0.1140
40837W        W83853  16.582   9.700   5.913 -0.0427 -0.0562  0.4599
40838W        W83854  14.476   3.073   7.342 -0.1548  0.1590 -0.0351
40839W        W83855   1.847  17.974   2.860 -0.1803  0.2035 -0.2745
40840W        W83856  26.738  12.680   4.593 -0.2079 -0.3018 -0.0962
40841W        W83857  28.386  21.987   0.772  0.0878 -0.2912 -0.2679
40842W        W83858  24.810  28.485  11.465  0.0741  0.2999 -0.2864
40843W        W83859  29.198  33.372  21.817  0.0713  0.1080  0.0676
40844W        W83860  17.807   3.130  24.797  0.0083  0.2810 -0.2503
40845W        W83861  18.387  28.861   5.445 -0.2591  0.2106 -0.2596
40846W        W83862   7.452  19.556   7.089 -0.2238 -0.2332  0.0859
40847W        W83863   2.474  14.198   1.468  0.2352 -0.4214  0.3311
40848W        W83864   2.380  31.468  10.234 -0.3193  0.1327  0.1607
40849W        W83865   4.521  15.854   4.946  0.0313  0.0078 -0.2450
40850W        W83866  21.626  17.631  25.522 -0.4436 -0.1841 -0.2156
40851W        W83867  32.052  30.454   1.218  0.0857 -0.0082  0.2177
40852W        W83868  23.688   3.923   1.767  0.2814 -0.0118 -0.6017
40853W        W83869  11.713  28.240   3.549  0.0389 -0.1135 -0.1724
40854W        W83870   1.401  13.898   8.494 -0.0329  0.2543  0.0410
40855W        W83871  32.690   7.455   3.875 -0.0057 -0.2415  0.0057
40856W        W83872  34.757  10.515  23.594 -0.0245 -0.2918  0.3159
40857W        W83873  10.180  29.339  26.733  0.0334  0.1399 -0.2082
40858W        W83874  29.752  31.537   8.078  0.1780 -0.0418 -0.2166
40859W        W83875   0.986   8.357   9.411 -0.2157 -0.3112  0.1111
40860W        W83876  33.853  22.362  14.491  0.0502  0.0870 -0.1080
40861W        W83877  21.535  28.078   3.944 -0.3539 -0.3459 -0.1378
40862W        W83878  32.416  23.799   1.653 -0.0012 -0.1199 -0.1287
40863W        W83879   6.212  22.458  23.039 -0.0347  0.1038  0.0320
40864W        W83880  28.887  30.506   7.411 -0.0029  0.1612 -0.0315
40865W        W83881  28.416  29.537   5.906 -0.1174 -0.2412 -0.1063
40866W        W83882  25.936  27.578   9.184 -0.1512 -0.0916  0.1985
40867W        W83883   7.484  17.448  25.972 -0.0146  0.3844 -0.0556
40868W        W83884  23.322  25.043   2.431  0.0124 -0.3164  0.1809
40869W        W83885  32.372  33.471  10.326 -0.2857  0.0215 -0.3856
40870W        W83886   7.152   4.599  27.404  0.0646  0.0499 -0.2258
40871W        W83887  33.031  20.756  26.940 -0.3782 -0.1395  0.0488
40872W        W83888  30.101   1.142   0.650 -0.3565  0.0444 -0.2104
40873W        W83889  25.378  19.481   7.669 -0.1239  0.2614  0.0416
40874W        W83890  29.096   6.859   7.980  0.0286 -0.0922 -0.3315
40875W        W83891  23.277  32.572  10.812 -0.1223  0.1381  0.2773
40876W        W83892   4.117   4.603   9.117  0.1534 -0.1248  0.2169
40877W        W83893  30.048   7.485  10.649  0.1187  0.0886  0.0593
40878W        W83894  34.192   5.964  26.625 -0.3905 -0.1746 -0.3041
40879W        W83895  24.464   6.459   1.080  0.0411 -0.1045  0.4097
40880W        W83896  23.636   9.332   3.142  0.0671  0.3375 -0.1061
40881W        W83897   4.439   5.933  17.846  0.4440  0.2977  0.0080
40882W        W83898  19.978   0.997  28.988 -0.2777 -0.1496 -0.2905
40883W        W83899   9.819   6.808   0.861  0.2962 -0.2719  0.3863
40884W        W83900  15.192   7.779  25.912  0.1748 -0.0166 -0.2349
40885W        W83901  12.414   6.786   9.285 -0.0783  0.1568 -0.2732
40886W        W83902   2.175   9.021  23.726 -0.0568 -0.0044 -0.0584
40887W        W83903  14.514  31.571   3.082  0.1388  0.2468  0.1217
40888W        W83904  29.695  15.793  23.668  0.1343 -0.4946 -0.0606
40889W        W83905  23.854  31.842   2.117 -0.4571 -0.2047 -0.1094
40890W        W83906  22.475  26.298  24.426 -0.1191 -0.1923  0.1138
40891W        W83907  10.484  14.853  25.392 -0.0418  0.0664 -0.0091
40892W        W83908   3.346  27.493   2.720  0.0836  0.1320  0.1864
40893W        W83909  17.346  28.523  19.500 -0.0223 -0.0010  0.1032
40894W        W83910   4.775  29.124   7.015 -0.0735  0.3205 -0.0768
40895W        W83911   9.801  29.970   8.854  0.0282 -0.2260  0.2558
40896W        W83912  25.618  20.830   9.080  0.1462 -0.1853  0.0678
40897W        W83913  32.852  17.009   3.686 -0.0227 -0.0085  0.2367
40898W        W83914  20.681  30.577   8.601  0.4323  0.4360 -0.0013
40899W        W83915  18.060  13.825   6.872  0.2510 -0.1194  0.2269
40900W        W83916  32.849  21.350   6.136  0.2525 -0.1839  0.2899
40901W        W83917  23.775  26.457  23.462 -0.0175 -0.5268 -0.1153
40902W        W83918  17.404   4.604   7.361  0.0032 -0.1179  0.2326
40903W        W83919  32.074  33.251   2.563  0.0393  0.0974  0.7262
40904W        W83920  24.565  30.794   4.680 -0.2527 -0.1983 -0.1776
40905W        W83921  28.454  17.284   6.027  0.0474 -0.2118 -0.2768
40906W        W83922   4.108  29.808   8.276  0.0525 -0.0774 -0.1110
40907W        W83923  14.165  24.918  22.452 -0.2589  0.0970 -0.0547
40908W        W83924  17.276  14.235  29.300 -0.1565 -0.0156  0.0887
40909W        W83925  23.803  23.169   1.475 -0.3617  0.0723  0.2421
40910W        W83926   1.804  25.585   8.449 -0.0186 -0.0757  0.1175
40911W        W83927   1.189   3.367   6.372 -0.0678  0.0988 -0.1375
40912W        W83928  22.203   1.817   5.889  0.1246  0.3355  0.1765
40913W        W83929  11.376  27.430   8.578 -0.0506  0.0274  0.1176
40914W        W83930  24.047   0.578   7.659 -0.0944 -0.2958  0.0159
40915W        W83931   3.220   0.987  28.544  0.2003  0.0746  0.2157
40916W        W83932  15.280  31.278  16.685  0.4315 -0.1026 -0.0050
40917W        W83933  29.015  11.690   1.635  0.0986 -0.3243  0.1734
40918W        W83934   5.396  32.479   4.552  0.0333  0.0385  0.2982
40919W        W83935  26.453  32.424  25.505  0.0054  0.1310 -0.0055
40920W        W83936   6.246  10.135   3.172 -0.6271  0.1098 -0.0829
40921W        W83937  32.329  28.919   4.716 -0.1285  0.1107 -0.0999
40922W        W83938   1.666   1.475   9.585  0.0288 -0.0757 -0.0338
40923W        W83939   4.885  15.193  25.253  0.0776 -0.4205 -0.1579
40924W        W83940  23.860   2.591  18.464 -0.0131 -0.0951  0.0419
40925W        W83941   1.018  32.256  21.228  0.1907  0.3054  0.2497
40926W        W83942  28.967  27.397  10.749 -0.2488  0.2164 -0.2554
40927W        W83943   3.025   5.153   3.367 -0.1146 -0.3289  0.0187
40928W        W83944   0.054   4.059  16.188  0.3286  0.2787 -0.1444
40929W        W83945   8.347  34.777   6.777 -0.2735  0.1889 -0.0120
40930W        W83946  28.991   1.830   6.058 -0.0538 -0.0791 -0.2500
40931W        W83947  22.552  26.035   5.966  0.2491 -0.1584  0.3542
40932W        W83948  22.274  32.125  11.421 -0.0460  0.1042  0.0607
40933W        W83949  30.117  30.705   5.442  0.2768 -0.3295  0.3634
40934W        W83950  34.497  31.269   0.305 -0.1695  0.0702 -0.0403
40935W        W83951   4.054  31.752   4.137  0.3125  0.0341 -0.0067
40936W        W83952  31.479  26.863   5.621  0.1088  0.1519  0.0440
40937W        W83953   7.586  30.777   0.780  0.1818  0.0410 -0.2477
40938W        W83954  17.044   3.775   6.976 -0.1236  0.0467 -0.1544
40939W        W83955   5.041   3.776   7.214 -0.1656 -0.0053  0.0731
40940W        W83956  10.397  30.991   1.047 -0.3695  0.0275 -0.1223
40941W        W83957  28.962   6.751   7.470 -0.0993  0.1902 -0.0947
40942W        W83958  34.629  30.775   5.769 -0.1195  0.0749 -0.0843
40943W        W83959   1.944  33.429   1.349  0.1512 -0.2358 -0.2128
40944W        W83960  29.703  27.398   3.542 -0.1270 -0.4146  0.3241
40945W        W83961  22.940  14.097   1.478 -0.0563  0.0100 -0.3935
40946W        W83962  29.801   6.803  11.181 -0.1953  0.4735  0.3620
40947W        W83963  24.328   9.794  27.042 -0.0835  0.2349  0.0493
40948W        W83964   9.346   7.715   6.666 -0.1154 -0.0155  0.2790
40949W        W83965  14.721  30.856   1.861  0.2445 -0.2871 -0.1589
40950W        W83966  31.682  15.643  15.908  0.1053  0.0959 -0.4075
40951W        W83967  14.743  27.207  22.987  0.1598  0.0818 -0.1793
40952W        W83968   9.542  29.535   6.367 -0.2424  0.0239  0.1551
40953W        W83969  30.042  16.425   4.789 -0.1177  0.1278  0.0051
40954W        W83970  22.562  31.014   4.238  0.0047 -0.0290 -0.2689
40955W        W83971   3.358  14.940  28.839  0.1594  0.3370 -0.3042
40956W        W83972  33.312   9.153  25.902  0.0802 -0.2376 -0.1542
40957W        W83973  18.727  25.663   0.269 -0.1596 -0.2449  0.4265
40958W        W83974  19.178  30.474  23.556 -0.1942  0.2212  0.1583
40959W        W83975  34.581   6.878   9.208  0.1313  0.1188  0.0669
40960W        W83976  25.454   1.165   9.113  0.1893 -0.0462  0.0608
40961W        W83977  32.653   3.105  28.827  0.1750  0.1456  0.1656
40962W        W83978  27.612  31.408   6.146  0.4442 -0.1641 -0.2226
40963W        W83979  27.164  14.517  28.739 -0.0107  0.0441  0.4406
40964W        W83980  18.240  27.346  24.835  0.2350 -0.3272  0.3730
40965W        W83981  33.144  33.873  10.693 -0.1861  0.1604  0.3889
40966W        W83982  23.298   1.658  21.881  0.1453 -0.1365 -0.0799
40967W        W83983  16.190   0.179   5.304  0.1018  0.0788  0.1743
40968W        W83984  12.509  29.073  25.849 -0.2083 -0.0019  0.1159
40969W        W83985   8.702  26.149  20.267  0.0778 -0.0529  0.2769
40970W        W83986  32.371  11.897   7.901  0.0424  0.0866 -0.0639
40971W        W83987   5.429   2.113  20.600 -0.3720 -0.0219  0.0983
40972W        W83988  33.003   5.278  21.822 -0.1158 -0.2752  0.0759
40973W        W83989  25.521   7.097   5.169 -0.0608  0.3915 -0.2423
40974W        W83990  20.112  25.570   6.952 -0.1120 -0.1844 -0.1441
40975W        W83991  28.623  12.288   5.775 -0.2167 -0.1161  0.1617
40976W        W83992  14.142  34.393   5.438  0.1785  0.0991 -0.0992
40977W        W83993   8.145  34.653   4.808  0.0938 -0.0088  0.0980
40978W        W83994   8.233  24.347   0.004 -0.2854 -0.0811 -0.0796
40979W        W83995   0.370   9.070   9.402  0.3197  0.0274 -0.0424
40980W        W83996  13.381  33.187  20.668 -0.0241 -0.2225 -0.0874
40981W        W83997  14.693  31.211   8.459 -0.1287  0.0286  0.0745
40982W        W83998   7.487  32.844  20.384 -0.3397  0.1990 -0.0272
40983W        W83999  30.082   3.280   5.349 -0.1752 -0.1364 -0.0750
40984W        W84000  28.741   7.037   7.013  0.2233  0.1148 -0.0140
40985W        W84001  26.563  28.010   7.185 -0.0940  0.0302 -0.1562
40986W        W84002   2.067   0.741   0.079  0.0478  0.3008  0.1819
40987W        W84003  28.627  21.127  22.041  0.0856 -0.2869 -0.0355
40988W        W84004   6.280   9.629   0.223 -0.2243  0.1558 -0.0566
40989W        W84005  34.176  28.385   8.814  0.1151 -0.0155 -0.1134
40990W        W84006  21.001  24.206  25.056 -0.1424 -0.0689 -0.1234
40991W        W84007  21.452  15.269  25.123 -0.2153  0.0429  0.1978
40992W        W84008  14.555  31.480   8.009 -0.0549  0.1238 -0.1517
40993W        W84009  21.210  33.093  28.690  0.0258 -0.1268 -0.1692
40994W        W84010  25.272   0.151  10.064  0.4028 -0.0597  0.0434
40995W        W84011  19.389  33.067  10.458 -0.0114 -0.0458 -0.1512
40996W        W84012  28.794  18.153   5.963  0.4031 -0.1584 -0.1346
40997W        W84013   2.668   2.787  21.936  0.0559  0.1492  0.1829
40998W        W84014   4.097  32.074  27.606 -0.3060 -0.1363 -0.1520
40999W        W84015  28.669  32.662   9.542 -0.0141  0.1367 -0.2149
41000W        W84016  32.241  33.640  26.814  0.1597  0.1659 -0.0097
41001W        W84017  14.487   8.377   7.216  0.2210 -0.0384  0.0707
41002W        W84018  30.155   1.343  21.677  0.2106 -0.1805  0.1602
41003W        W84019  29.883   2.690   8.752  0.2596  0.1270  0.1913
41004W        W84020  10.289   6.706   8.421 -0.3130  0.0001  0.3213
41005W        W84021   1.551  27.038   2.650 -0.1904  0.0707 -0.1394
41006W        W84022  29.469   2.379   8.912  0.0711 -0.1660 -0.1687
41007W        W84023  20.999  19.441  25.402 -0.0461  0.1339  0.0874
41008W        W84024  23.485   2.365  11.040  0.1114  0.4414 -0.0177
41009W        W84025  29.176  17.940  27.466  0.1973 -0.3908 -0.0753
41010W        W84026   6.728  33.848  22.745  0.0203  0.0828  0.0779
41011W        W84027  29.172   9.025  29.205 -0.3791 -0.0588 -0.0399
41012W        W84028  16.057  22.317  29.070  0.2752 -0.0647 -0.0342
41013W        W84029  32.527  34.708   4.627 -0.3410 -0.0473  0.1015
41014W        W84030  28.117   3.403  24.472  0.3554  0.1781  0.2461
41015W        W84031  33.116  24.031   9.537 -0.2930  0.0485  0.3586
41016W        W84032  32.224   1.449   8.851 -0.1442  0.0764 -0.1375
41017W        W84033   7.342  21.864  26.606  0.0242  0.1080  0.3445
41018W        W84034  28.590  27.266  11.251 -0.1335 -0.1369 -0.1067
41019W        W84035  30.242  16.456  27.538 -0.0518 -0.0352 -0.2544
41020W        W84036  11.787  29.968  17.561  0.0253  0.4552  0.1451
41021W        W84037  23.914  32.917   8.361 -0.2964 -0.0464  0.0336
41022W        W84038  15.437  34.772   5.318  0.2102  0.0588  0.1370
41023W        W84039  26.037   4.253   7.344 -0.0766  0.1350  0.0035
41024W        W84040   5.614   3.706   9.710  0.0867 -0.0842 -0.1989
41025W        W84041  25.689  11.920  27.431 -0.0511  0.0359  0.3925
41026W        W84042   1.480   6.425   6.185 -0.0280 -0.1828  0.0438
41027W        W84043  13.365   5.886  23.211 -0.3511 -0.0791  0.1547
41028W        W84044  17.714   1.047  29.160 -0.3398 -0.0749  0.1108
41029W        W84045   4.271  29.587  28.505 -0.1985 -0.0476 -0.1681
41030W        W84046   8.099  33.413   5.831 -0.1666 -0.0851  0.2584
41031W        W84047  18.671  12.223  22.941  0.2789  0.0654  0.1818
41032W        W84048  28.269  29.754   3.478  0.3662  0.2091 -0.1252
41033W        W84049  24.437  28.552  17.428 -0.1023  0.1910 -0.2043
41034W        W84050  18.982   9.240   7.596 -0.0884  0.4658  0.1152
41035W        W84051   2.747   7.921   0.698 -0.1988 -0.0070 -0.0923
41036W        W84052  28.242  15.091   8.438  0.1952 -0.0371  0.2025
41037W        W84053  27.750   6.435  11.834  0.1054 -0.0690  0.1926
41038W        W84054   9.730  25.582  18.530 -0.3215  0.1724  0.2832
41039W        W84055  33.847   9.803   3.080  0.2462 -0.0242 -0.3101
41040W        W84056  27.796   6.484   6.098  0.1587  0.0013 -0.3737
41041W        W84057   8.238  11.428   2.136 -0.1374  0.0558 -0.2201
41042W        W84058  29.240   6.314   0.739 -0.0864 -0.0241  0.2431
41043W        W84059   8.486  13.320   5.394 -0.1669 -0.1407  0.0988
41044W        W84060  24.605  27.027   5.325  0.2568 -0.2450 -0.1982
41045W        W84061  32.211   0.448   7.478  0.0189 -0.2089 -0.1648
41046W        W84062  24.686   5.789   8.730  0.0691 -0.2189 -0.1294
41047W        W84063  33.330   6.235   1.976 -0.1121 -0.0526 -0.1604
41048W        W84064  33.913   1.900  18.084 -0.1678  0.2888  0.0666
41049W        W84065   2.828   5.672   6.124  0.0217  0.0875 -0.0225
41050W        W84066  17.826   8.341   0.322 -0.0824 -0.3358 -0.1091
41051W        W84067  31.529  30.658   8.502  0.2464 -0.0756 -0.0836
41052W        W84068  32.682  32.155   4.508 -0.2682 -0.0565 -0.1007
41053W        W84069  23.880   2.935  10.201  0.0267 -0.2290  0.1788
41054W        W84070  33.071   2.600   7.028  0.0962  0.2292  0.0787
41055W        W84071  12.929  31.197   6.460 -0.0083 -0.1787 -0.0325
41056W        W84072   8.455   3.595   7.518 -0.0928  0.0649 -0.0500
41057W        W84073  21.463  30.486   2.100  0.0833  0.0292 -0.0778
41058W        W84074  34.362   9.300  22.709  0.0365 -0.1507  0.0566
41059W        W84075  15.768  16.892  21.044  0.0895 -0.0484  0.2015
41060W        W84076   1.535  16.315  28.961  0.0016 -0.1540 -0.2069
41061W        W84077  31.471  32.441   1.132  0.0374  0.0105  0.0121
41062W        W84078   2.198   0.453  10.081  0.0074  0.2146  0.1350
41063W        W84079   1.900  27.575  20.041 -0.0660  0.1838 -0.0046
41064W        W84080   8.363   9.820  28.750  0.1200  0.0099  0.0085
41065W        W84081  23.439   9.203   5.317  0.2586  0.2485 -0.2498
41066W        W84082  33.440  14.639   0.738  0.2673  0.3969 -0.2019
41067W        W84083  26.075  17.211   6.432  0.0001  0.2016  0.0209
41068W        W84084  33.726   0.894   9.796  0.3646 -0.0776  0.2126
41069W        W84085  25.589  31.130   6.483  0.1450  0.0260  0.2540
41070W        W84086  18.064   1.368  26.392  0.3529 -0.2251  0.1664
41071W        W84087  11.544   9.606   5.047 -0.2168  0.2462  0.1762
41072W        W84088  22.486  10.224   5.517  0.0687  0.0068  0.1495
41073W        W84089  30.972  34.285   3.552 -0.1179 -0.1635 -0.2163
41074W        W84090  22.757  26.543   1.297  0.2016  0.4769 -0.0451
41075W        W84091  18.833  12.858   2.365  0.1086  0.2990  0.0175
41076W        W84092  29.054  23.262  11.071  0.1098  0.0196  0.1193
41077W        W84093  13.404  33.990  27.826  0.0545 -0.0389  0.2145
41078W        W84094  34.330  21.050   5.301 -0.2199 -0.0448  0.3519
41079W        W84095  28.887   5.799   8.334 -0.0373 -0.0715  0.0723
41080W        W84096   2.871   3.962  28.008  0.3660  0.1894  0.2689
41081W        W84097  21.628  28.021   6.393  0.0218  0.0235 -0.1212
41082W        W84098   5.389   4.698   3.227 -0.0573  0.1584  0.2655
41083W        W84099  28.767  12.222   7.512  0.2167  0.1763  0.1900
41084W        W84100  17.365  31.262  24.568  0.2583 -0.1139 -0.2934
41085W        W84101   9.757   4.008  21.877  0.2236 -0.0723  0.1038
41086W        W84102   1.991   7.699   8.918  0.1474 -0.0577  0.0350
41087W        W84103  34.006  11.656   5.605 -0.2125  0.0151 -0.1279
41088W        W84104  33.545  20.892   4.555 -0.3132 -0.0730 -0.0841
41089W        W84105   9.357  11.113   8.206  0.0539 -0.1482 -0.2578
41090W        W84106  29.718   7.214  10.900 -0.2147  0.3458 -0.0959
41091W        W84107  28.243  22.145   6.341 -0.1023 -0.0181 -0.1105
41092W        W84108   8.841   0.235   9.849 -0.0015 -0.0862 -0.1116
41093W        W84109  30.740   8.278  24.507  0.2160  0.0203 -0.0846
41094W        W84110  23.176  29.992  14.411  0.3577 -0.2115 -0.0735
41095W        W84111  17.775   5.532   2.074  0.2496 -0.0804 -0.2421
41096W        W84112  28.418   7.039  12.024  0.1204  0.1143 -0.1133
41097W        W84113  34.227   0.966   5.553 -0.1699 -0.2031  0.1795
41098W        W84114   2.076  27.042   5.028  0.3383  0.0354 -0.3091
41099W        W84115   2.394  30.857   9.248  0.0626  0.2001  0.0859
41100W        W84116  15.707  12.020  18.904  0.1924 -0.1171  0.0418
41101W        W84117   1.015  25.772  10.282 -0.0768 -0.0577 -0.0107
41102W        W84118  18.974  24.286  28.368 -0.0361 -0.2544 -0.3320
41103W        W84119  33.534   4.325   9.982  0.0106 -0.0127 -0.2072
41104W        W84120   2.828  15.959  23.116 -0.0815  0.0470 -0.3125
41105W        W84121   1.142   2.180   6.386 -0.2373  0.1847  0.4577
41106W        W84122  32.389  32.077   1.696 -0.2059 -0.3131 -0.0089
41107W        W84123  31.832  22.462   4.429  0.2819  0.1803 -0.0434
41108W        W84124   2.970  12.049  15.896 -0.2188  0.0711  0.0802
41109W        W84125  33.039   9.908  17.897  0.0803 -0.0220  0.0941
41110W        W84126  32.555  12.611  27.679 -0.0440  0.1315  0.1411
41111W        W84127  19.426   8.157   0.771  0.3377  0.0884  0.1136
41112W        W84128  22.461   3.644   5.690  0.0654  0.1063 -0.0007
41113W        W84129   3.855   1.618   1.762  0.0415 -0.0557  0.2135
41114W        W84130  17.098  25.656   6.968  0.4629  0.1019  0.3390
41115W        W84131  32.174  19.306   3.753 -0.1795  0.2049  0.3259
41116W        W84132  33.833   4.354   5.439  0.0909  0.0222  0.1076
41117W        W84133   1.384  15.525  27.377 -0.3191 -0.0742  0.1104
41118W        W84134   5.042   0.499   7.679 -0.0558  0.1838  0.1126
41119W        W84135  26.378  15.238   4.347 -0.1355 -0.0109 -0.1228
41120W        W84136  30.084   5.939   7.654 -0.2665 -0.0238  0.1801
41121W        W84137  20.666  12.206   6.164  0.2883  0.2188 -0.0398
41122W        W84138  15.804   6.176  25.737  0.0676  0.1013  0.0324
41123W        W84139  24.102  10.356   9.062  0.0771 -0.2621 -0.0802
41124W        W84140  23.533  26.985   0.764 -0.1659  0.0675  0.1726
41125W        W84141  28.858  32.385  11.665 -0.2322  0.2257 -0.0874
41126W        W84142   3.121  29.195   3.963 -0.1840 -0.0218  0.1245
41127W        W84143  29.738  34.148   8.498  0.0445  0.2563  0.2043
41128W        W84144   1.840  28.547   2.535  0.1209  0.0266  0.0937
41129W        W84145  34.572  14.701   0.015  0.1245 -0.2912 -0.1878
41130W        W84146  26.305  20.447   3.166  0.1181  0.0433 -0.0967
41131W        W84147  28.253  29.485  11.198 -0.0786  0.0283  0.0124
41132W        W84148  14.389  34.598   4.411 -0.1018  0.0475  0.1712
41133W        W84149  32.455  26.544  26.115  0.1221  0.1456  0.0184
41134W        W84150  29.145   5.012   7.149  0.1446 -0.0152 -0.0491
41135W        W84151  19.838  27.132   6.045  0.2469 -0.0128 -0.0870
41136W        W84152  24.609  13.858  28.570  0.1368  0.0919 -0.0650
41137W        W84153   1.306   9.106   8.906  0.1628 -0.1641  0.0748
41138W        W84154  20.292  25.507  19.030 -0.0321 -0.1328 -0.2913
41139W        W84155  17.018  13.060   1.023 -0.1748 -0.0673 -0.1168
41140W        W84156   1.071  13.172  25.017  0.1661  0.1180 -0.3008
41141W        W84157  24.274  28.430   6.856 -0.0804 -0.0524 -0.1128
41142W        W84158  14.495  27.057   4.448 -0.1965 -0.3895 -0.2658
41143W        W84159  19.393   3.120  18.908 -0.4146 -0.3636 -0.2374
41144W        W84160  12.853   1.175  27.314  0.0746 -0.1048  0.0167
41145W        W84161  33.126  24.857   3.802 -0.1462  0.1683 -0.2235
41146W        W84162  33.080   7.321   6.268  0.2370  0.3978 -0.0649
41147W        W84163   9.484  20.696   5.616 -0.3724  0.0991 -0.2711
41148W        W84164  13.128   3.626   8.236 -0.0898  0.0988  0.1881
41149W        W84165   8.305  30.710  28.696  0.0839 -0.2561 -0.0230
41150W        W84166  28.208  28.987   1.651  0.0090  0.2154  0.0119
41151W        W84167  30.140   8.840   8.057 -0.1694 -0.0393 -0.1232
41152W        W84168  25.991   7.063   1.909  0.0038  0.1470 -0.0713
41153W        W84169  30.681   3.816   6.992  0.0434 -0.0544  0.4380
41154W        W84170   4.632  30.439   6.053 -0.0939  0.1673 -0.0132
41155W        W84171  22.035  15.020   4.391 -0.3635 -0.0763 -0.3175
41156W        W84172  31.667  27.275   8.829 -0.0617 -0.2482 -0.0222
41157W        W84173   1.411  19.451  24.749 -0.1145  0.0246 -0.0350
41158W        W84174   7.331  11.673   7.235  0.2084 -0.1475 -0.1279
41159W        W84175   0.169  29.529   3.715  0.0847  0.1156 -0.1044
41160W        W84176  31.316   7.683   7.207  0.2553  0.2728 -0.2079
41161W        W84177   3.244   4.370   4.286 -0.1418 -0.1585  0.0251
41162W        W84178  21.958   8.587   1.700  0.1697  0.2579  0.0932
41163W        W84179  17.347  11.678  24.277 -0.3628  0.0282  0.1696
41164W        W84180  25.596  13.861  25.797 -0.2960 -0.1427  0.3001
41165W        W84181  17.289  12.477  21.844  0.0127 -0.2511 -0.0772
41166W        W84182  14.008   3.085  28.065  0.2197 -0.1789 -0.0173
41167W        W84183  24.922   0.176  11.866  0.0568  0.1814 -0.1662
41168W        W84184  10.651  33.171  26.907  0.1323 -0.0417 -0.1945
41169W        W84185   4.887   4.247   2.702  0.1857  0.0109 -0.3804
41170W        W84186  34.429  15.876  25.471  0.2957  0.1129 -0.1849
41171W        W84187  30.626   7.009   8.942  0.0965 -0.2036 -0.2766
41172W        W84188  20.030   9.552   6.787  0.1786  0.0261  0.1967
41173W        W84189  28.550   1.692   9.713 -0.2199 -0.0913  0.2570
41174W        W84190  27.320   9.023   2.895 -0.0963  0.2000  0.2512
41175W        W84191   1.682  33.424   7.838  0.0775  0.0969  0.1956
41176W        W84192  25.446   1.029   5.101  0.3954 -0.1620 -0.3058
41177W        W84193  32.703  11.203   7.693  0.1274 -0.2021  0.2070
41178W        W84194  33.101   6.426   3.562  0.0325  0.0776 -0.0355
41179W        W84195  27.636   9.363   6.554 -0.1494 -0.2193 -0.1463
41180W        W84196  20.118  27.739   5.461 -0.1475  0.1430 -0.3130
41181W        W84197  20.322   9.759   2.783 -0.0077 -0.0284 -0.1582
41182W        W84198  29.971   9.293   8.452  0.0840  0.1074  0.0162
41183W        W84199  34.121   3.057   6.977  0.1394 -0.3782  0.1100
41184W        W84200   9.316  20.603   6.501 -0.1372 -0.2110 -0.0226
41185W        W84201  21.880   0.742  10.132  0.0624 -0.0462 -0.0393
41186W        W84202  27.324  31.358   3.558  0.1622 -0.0776 -0.2583
41187W        W84203   1.425  31.670   0.770 -0.0888  0.1780  0.2656
41188W        W84204   2.423  13.793  23.425 -0.0722 -0.1489 -0.3867
41189W        W84205  26.741  27.980  26.846  0.2199 -0.2019  0.0858
41190W        W84206  26.157   4.463   2.614  0.0081  0.1886 -0.3808
41191W        W84207   0.523  13.073   0.799 -0.2444 -0.0191 -0.0004
41192W        W84208   1.448  33.174   1.831  0.0957 -0.0397  0.0412
41193W        W84209   6.589   4.662  19.027 -0.2523  0.1207 -0.0619
41194W        W84210  27.455   7.270   4.943  0.4775 -0.3325 -0.0600
41195W        W84211   4.654   0.476   9.936  0.0415 -0.2675 -0.0588
41196W        W84212  23.608  28.952  29.232  0.1027  0.0456 -0.0552
41197W        W84213  32.128   6.754  10.772 -0.0299  0.1522  0.0797
41198W        W84214  29.617   4.627   7.341 -0.0046  0.0152  0.1330
41199W        W84215  15.232   2.469   3.983  0.1298 -0.1465 -0.1069
41200W        W84216   2.133   5.262   3.665 -0.1673 -0.4472  0.0995
41201W        W84217   0.975  27.878   3.272 -0.0222 -0.0587 -0.0833
41202W        W84218   3.478  31.314  23.834 -0.0164  0.2254  0.0786
41203W        W84219   7.003  22.007  14.311  0.0432 -0.1513 -0.1202
41204W        W84220  25.127   6.852   9.894  0.3075 -0.3224 -0.0859
41205W        W84221   6.675   2.799   6.160  0.0514 -0.1041 -0.3023
41206W        W84222  12.375  15.366   6.551  0.0721 -0.1813  0.1306
41207W        W84223  32.551  22.916   3.635  0.1922 -0.0844  0.1259
41208W        W84224   8.652  18.129  29.104 -0.1906 -0.3512 -0.0903
41209W        W84225  28.449  34.576   4.458 -0.1786 -0.2107  0.1865
41210W        W84226  32.640  12.187   9.959 -0.3635  0.0797  0.3855
41211W        W84227   2.179   8.335   1.772 -0.0390 -0.0567  0.0542
41212W        W84228  11.440  34.195  16.564  0.0808 -0.1014  0.0282
41213W        W84229  30.971   2.803   4.835  0.0243 -0.3009  0.1650
41214W        W84230  11.022  24.171   7.292  0.0067 -0.0584  0.2181
41215W        W84231  13.844  17.160   4.956  0.0836  0.0272  0.0338
41216W        W84232   3.804   1.195   4.464  0.0473  0.0008 -0.0159
41217W        W84233  24.732  16.603  18.378  0.1465 -0.1189 -0.0660
41218W        W84234  27.637  25.263   8.551  0.0323  0.2158  0.1372
41219W        W84235   6.578   3.666   1.975  0.0854 -0.0853 -0.0395
41220W        W84236  23.648  10.994  27.438  0.0275  0.2616  0.1753
41221W        W84237  29.295   9.658   9.350  0.0743 -0.1176  0.2343
41222W        W84238   8.269   7.398   3.441  0.3011  0.2900 -0.0947
41223W        W84239   2.559  21.462   6.273  0.1228 -0.1134 -0.6483
41224W        W84240  21.708  30.612   2.696  0.0421 -0.0688  0.4801
41225W        W84241   1.242  30.953   7.214  0.1509 -0.0934 -0.1549
41226W        W84242  27.397   0.413   0.519 -0.0427 -0.3240  0.1500
41227W        W84243  32.890  33.851  28.343  0.2667  0.0656 -0.1079
41228W        W84244   9.432  33.639  27.815  0.1576 -0.1609  0.2506
41229W        W84245  14.009  29.455   0.768 -0.2950  0.1547 -0.3259
41230W        W84246   6.830  29.526   8.316 -0.3812 -0.1954 -0.3827
41231W        W84247  13.916   2.176   8.936 -0.2637  0.1936 -0.1130
41232W        W84248  19.112  22.287  28.578  0.2738 -0.1216  0.0870
41233W        W84249  29.666   1.406   3.970  0.2544 -0.0419  0.0805
41234W        W84250  18.089  23.035   4.541  0.0151  0.0474 -0.0397
41235W        W84251  24.275  15.755  27.731  0.0298 -0.1493 -0.1589
41236W        W84252  16.755  17.129  27.128  0.2702 -0.0748  0.0813
41237W        W84253  27.751   4.809   0.257  0.0922  0.0476  0.2394
41238W        W84254  34.098  32.591  10.405 -0.0178 -0.0770 -0.0804
41239W        W84255  22.946  26.462   6.615  0.4253  0.0307  0.2034
41240W        W84256  30.500  34.410   2.757  0.1521  0.3171  0.1269
41241W        W84257  24.351  30.892  11.292 -0.0557 -0.2304 -0.3574
41242W        W84258  22.789  25.564  27.542  0.1331  0.0228 -0.2804
41243W        W84259  11.504   0.918  26.622  0.1205  0.2899 -0.3638
41244W        W84260  22.298  26.763  25.867 -0.2249  0.2605  0.0584
41245W        W84261  32.282   8.077   9.483  0.1122  0.0457  0.1358
41246W        W84262  25.251  13.120   7.432 -0.0589  0.0113 -0.1990
41247W        W84263  24.445   8.359   0.870 -0.1248  0.1047 -0.0574
41248W        W84264   3.590  32.595  23.376 -0.1434  0.0897  0.1500
41249W        W84265   1.235  30.384  17.599 -0.2012  0.1661  0.1683
41250W        W84266   7.677   6.949  27.915  0.0486 -0.0170  0.1954
41251W        W84267  20.640   4.050  21.637  0.0087 -0.0709  0.2183
41252W        W84268  33.032   5.383   4.944  0.1358  0.0641 -0.1359
41253W        W84269  12.782  14.108  25.974  0.3786 -0.0690  0.0653
41254W        W84270  12.323   0.756   6.152 -0.2464  0.1076 -0.1938
41255W        W84271  33.857   3.547  23.352 -0.2035 -0.1126 -0.2504
41256W        W84272  28.238   9.463   5.221 -0.0755 -0.2941 -0.0601
41257W        W84273  22.410  23.705  10.390 -0.1097 -0.0338  0.0241
41258W        W84274  31.949  26.909   8.607 -0.1667 -0.3267 -0.1307
41259W        W84275  30.021   7.702   2.104  0.3016 -0.0404  0.0573
41260W        W84276   3.171   2.365   8.990 -0.1411  0.1935 -0.1841
41261W        W84277   6.308   1.644   4.169 -0.2257 -0.0365  0.0465
41262W        W84278  18.796   2.775  25.624  0.1124 -0.1835 -0.0560
41263W        W84279  15.046  17.579  24.215  0.0605  0.1186  0.1589
41264W        W84280   9.963   1.882  29.252  0.1064 -0.3285  0.2194
41265W        W84281  33.046   5.899   4.181  0.2265 -0.1231 -0.1957
41266W        W84282  13.900  13.474  25.857  0.4128 -0.0148  0.1155
41267W        W84283   1.688   2.679  22.760 -0.4142 -0.0015  0.2060
41268W        W84284  26.420  14.133   6.970 -0.1450  0.2385 -0.0169
41269W        W84285  31.122  30.408  11.284  0.0185 -0.0561  0.0371
41270W        W84286   7.375  18.197   0.284  0.1823 -0.3597 -0.0675
41271W        W84287  25.860   7.297   4.781  0.1206 -0.0503  0.1953
41272W        W84288  18.445  32.595   4.318  0.2419  0.2967  0.2770
41273W        W84289  30.687   1.635   7.238  0.0894  0.2323 -0.0448
41274W        W84290   1.323   4.383   9.337 -0.1532  0.1516  0.0930
41275W        W84291   0.884   3.444   9.247  0.0674  0.0557 -0.1003
41276W        W84292   4.322  33.275   3.123  0.1851 -0.1308  0.0420
41277W        W84293  33.710   8.685   6.149  0.1578  0.0226  0.0866
41278W        W84294   0.426   0.189   4.518 -0.0930  0.0028  0.1389
41279W        W84295   0.633  33.153   2.209  0.1524  0.4372 -0.0557
41280W        W84296   0.349  25.182   3.485 -0.1359 -0.1056 -0.0753
41281W        W84297  27.836   7.739   8.921  0.0180  0.1630 -0.2838
41282W        W84298  34.619   0.735   9.737 -0.2170 -0.2351 -0.2695
41283W        W84299   8.429  26.397   0.377 -0.2035 -0.1001  0.1424
41284W        W84300  25.424  23.876  27.847 -0.1090 -0.2197  0.0350
41285W        W84301  33.927   4.703   9.475  0.0809 -0.0402  0.0216
41286W        W84302   5.082  22.655   5.019  0.2313  0.1029 -0.0557
41287W        W84303  32.468  27.763   1.482  0.0248 -0.2585 -0.0697
41288W        W84304  27.515   0.319   3.385 -0.2646  0.1010  0.5993
41289W        W84305  12.967   0.491   2.649  0.3841  0.3283  0.1766
41290W        W84306   3.664  26.044   6.071  0.2793 -0.0412 -0.2246
41291W        W84307  31.525  19.010   6.084 -0.2587 -0.1531  0.3444
41292W        W84308   3.492   8.995   4.320  0.3254  0.2366 -0.2181
41293W        W84309   8.686  14.061   5.069  0.1420  0.3614  0.0621
41294W        W84310  31.458  12.295   8.646 -0.1412  0.1395 -0.0775
41295W        W84311   4.620  27.219  25.734  0.1625  0.0384 -0.1116
41296W        W84312  34.366  17.885   2.830  0.2850 -0.0486 -0.0955
41297W        W84313   6.859  31.712   8.968  0.0173  0.0628 -0.0560
41298W        W84314  29.007   4.611   2.970  0.1880  0.1166  0.0160
41299W        W84315  32.321   1.077   9.976  0.1157  0.0055  0.1820
41300W        W84316  25.223  12.767  28.355 -0.0380  0.5498 -0.0288
41301W        W84317  25.506  30.554   8.533  0.3257 -0.0550 -0.1689
41302W        W84318  32.756  22.510   6.668 -0.2039 -0.0067  0.0755
41303W        W84319  24.875   4.553   1.297 -0.1373 -0.2003 -0.2619
41304W        W84320  32.370   4.864   7.526 -0.2133 -0.2729  0.0410
41305W        W84321  23.561   7.069   9.717 -0.1185 -0.0848 -0.2889
41306W        W84322   5.002  33.492  28.725  0.0224  0.2373  0.2396
41307W        W84323  31.874   0.155  17.710 -0.1932  0.3809 -0.0429
41308W        W84324  27.761  18.668   5.321 -0.1361 -0.0027 -0.3722
41309W        W84325  31.675   5.853  24.408 -0.3469  0.4142 -0.0390
41310W        W84326  18.591  20.879   3.265 -0.1077 -0.0005  0.0248
41311W        W84327   5.743   3.232  28.653 -0.1850  0.2775 -0.4735
41312W        W84328  24.631  14.551   7.475  0.0417  0.1283 -0.1083
41313W        W84329  26.885  12.545   5.875 -0.1772  0.0552 -0.2113
41314W        W84330  27.955  16.881  28.101  0.5071  0.1284  0.2727
41315W        W84331  17.530   9.973  28.079  0.0485  0.2927 -0.0084
41316W        W84332   8.088  18.015   7.681 -0.2610  0.0753 -0.2010
41317W        W84333  28.789  30.297  10.561  0.1254  0.1210  0.0872
41318W        W84334  29.113  22.276   2.068 -0.2330 -0.2483 -0.2560
41319W        W84335  11.293   6.977  28.326  0.2836  0.1760  0.0247
41320W        W84336   7.593  10.614   5.896 -0.2519  0.3331 -0.1004
41321W        W84337  29.570  17.060  18.699  0.3570 -0.0628  0.0341
41322W        W84338   3.389  30.488  27.898  0.0936 -0.1232 -0.0663
41323W        W84339  24.855  11.382  22.935  0.0406  0.0087  0.0491
41324W        W84340   3.392   1.381  10.104 -0.0775 -0.0730 -0.0750
41325W        W84341  22.734   3.755  24.603  0.0770  0.1807 -0.1062
41326W        W84342  29.217   0.894   7.340 -0.1632 -0.0661 -0.0445
41327W        W84343  22.270  21.447   6.566  0.0756 -0.0611  0.0427
41328W        W84344   0.908   7.468   9.424 -0.0607 -0.1064 -0.0679
41329W        W84345  34.292   6.342  27.443  0.2144  0.2639  0.1341
41330W        W84346  31.852  22.900   3.519 -0.2884  0.2488  0.0345
41331W        W84347  10.047   6.393   9.170 -0.0265  0.0445 -0.2069
41332W        W84348  27.515   4.317   8.366  0.2705  0.1301 -0.2823
41333W        W84349  14.505   9.068  28.409 -0.0068 -0.1749 -0.4082
41334W        W84350   7.134   6.631   3.747  0.1061  0.0678 -0.1833
41335W        W84351  22.451  34.159   5.624  0.3697 -0.0553  0.1630
41336W        W84352  29.785   1.615   0.439 -0.1804  0.2815 -0.1087
41337W        W84353  33.408   5.773   8.982 -0.0502  0.0975 -0.3417
41338W        W84354  29.620  34.025   4.745 -0.1051  0.1054  0.4019
41339W        W84355  22.158   1.809   9.041 -0.2944 -0.3072 -0.0058
41340W        W84356  30.465  31.103  25.484  0.0580 -0.1897 -0.2367
41341W        W84357  28.101  14.662   6.592 -0.2769 -0.0654  0.0855
41342W        W84358   1.284  20.700   2.099 -0.1173  0.1377 -0.1739
41343W        W84359  10.914  29.532  24.336 -0.1510  0.0091 -0.0230
41344W        W84360   4.769   2.952   2.799 -0.1548  0.0759 -0.2835
41345W        W84361  16.550   2.349   7.272  0.1849  0.1604  0.0780
41346W        W84362  14.671   1.591  28.475  0.1170 -0.0517  0.1310
41347W        W84363  26.037  34.111   8.726  0.2220  0.1253 -0.3748
41348W        W84364  20.332  23.068  17.135 -0.3650  0.3097 -0.0255
41349W        W84365  33.275   1.815   6.328  0.0042 -0.1561 -0.1916
41350W        W84366  31.992  28.618   2.098 -0.1907 -0.1499  0.1201
41351W        W84367  30.088  34.277   3.397 -0.4814 -0.2925 -0.1022
41352W        W84368   8.973   7.894  26.287 -0.2203  0.0402  0.1164
41353W        W84369  26.249  21.676   7.255  0.0683 -0.0583 -0.1441
41354W        W84370   8.761  30.741   1.558  0.2539 -0.0102 -0.0714
41355W        W84371   1.862   0.847   4.611 -0.0630  0.0504 -0.0826
41356W        W84372   0.323  21.803   8.905  0.0890 -0.0120 -0.1870
41357W        W84373  26.511   4.338  24.091 -0.2928 -0.1241  0.0547
41358W        W84374  24.922  28.238   0.675  0.4488 -0.1607  0.0604
41359W        W84375  23.101  17.345   6.226 -0.1413  0.2151 -0.0904
41360W        W84376  22.386   3.349  10.392  0.2193 -0.0101  0.1608
41361W        W84377   4.618   8.666   0.755 -0.0414  0.1232 -0.3624
41362W        W84378  27.720   0.787   5.758  0.2319 -0.1606  0.0591
41363W        W84379  30.554  18.993  24.455 -0.3801  0.1100  0.0223
41364W        W84380  31.610   1.003  25.592 -0.3317 -0.1682  0.2340
41365W        W84381  31.607   1.279   8.937  0.1501  0.0618 -0.2985
41366W        W84382  27.182   6.807   8.506 -0.1283 -0.2271 -0.1118
41367W        W84383  15.615  23.299  26.695 -0.0198 -0.0335 -0.0818
41368W        W84384   9.409  25.227  24.651  0.1431 -0.0213 -0.1326
41369W        W84385  16.240  16.480  24.119 -0.2091 -0.0420 -0.0138
41370W        W84386   7.252  18.400  21.998 -0.2400  0.2325 -0.0995
41371W        W84387  18.796  29.911  25.983 -0.0261 -0.0598  0.1884
41372W        W84388   3.580  32.075  10.219  0.3755  0.2262  0.0317
41373W        W84389  33.213  33.348  10.638  0.0679  0.3122  0.1347
41374W        W84390  10.595  33.850  15.674 -0.1441 -0.1343 -0.2092
41375W        W84391   8.424   9.198   1.144  0.0758  0.2154  0.0062
41376W        W84392  34.548  15.261   8.062 -0.2637 -0.0014 -0.2011
41377W        W84393  33.197  10.058   0.898  0.2162 -0.1196 -0.3844
41378W        W84394  24.671  24.002  27.374 -0.0183 -0.0147 -0.0867
41379W        W84395  28.814  12.328   9.411 -0.0571 -0.0937  0.1183
41380W        W84396  17.095  26.649  20.668 -0.1996 -0.0448 -0.2016
41381W        W84397  15.971  18.702   6.282  0.1124 -0.1677  0.3340
41382W        W84398  21.843  11.775   0.563  0.0366  0.1996 -0.1855
41383W        W84399   6.853   5.987   8.038 -0.0442  0.1428  0.0242
41384W        W84400   3.972  10.388   5.224  0.0242  0.2027  0.1417
41385W        W84401   5.858  23.726   3.411 -0.2455  0.0149 -0.1010
41386W        W84402   5.455  31.461  28.595 -0.2229 -0.2164 -0.3761
41387W        W84403  23.222  31.835  27.439 -0.0884  0.1581  0.3190
41388W        W84404  14.715  28.386   9.740  0.2784  0.2886 -0.0300
41389W        W84405  23.767   2.299  20.739  0.2247 -0.3711 -0.2239
41390W        W84406  23.703  10.701   9.026 -0.0086  0.0380  0.0770
41391W        W84407  20.188  11.752   5.526  0.1824 -0.1575 -0.1509
41392W        W84408   2.877  16.083   6.043  0.0554 -0.0090  0.1288
41393W        W84409  19.824   4.093  19.634 -0.3631 -0.0244  0.0131
41394W        W84410  32.287  34.248   5.310 -0.2025  0.0612  0.1470
41395W        W84411  27.421  31.015  21.151  0.1744  0.3194 -0.0899
41396W        W84412  34.351  12.577   8.612 -0.0109 -0.0183 -0.0205
41397W        W84413  33.563  20.021  21.800  0.3120 -0.2296 -0.1336
41398W        W84414  24.327   2.713   6.386 -0.1200 -0.1681  0.5452
41399W        W84415   5.109  29.398   6.851 -0.0504  0.1129 -0.2880
41400W        W84416  31.332  24.469   4.417  0.0580 -0.1250 -0.0509
41401W        W84417  25.756   0.266   9.883  0.0086  0.0324 -0.0725
41402W        W84418   2.380  30.209   5.114 -0.0033 -0.1189 -0.2343
41403W        W84419  31.196   9.350  17.909  0.5994  0.2074 -0.0032
41404W        W84420  30.428   8.874  16.586  0.0179 -0.0884 -0.1805
41405W        W84421  31.209  22.489   8.210 -0.1384  0.2567 -0.2332
41406W        W84422   5.656   8.613   9.877 -0.0339 -0.0207 -0.1312
41407W        W84423  26.826  31.509   0.191 -0.1456 -0.1038 -0.1864
41408W        W84424  18.246  11.596   1.501 -0.2762  0.3228 -0.2339
41409W        W84425  34.144   8.661   8.847 -0.1415  0.0800  0.1280
41410W        W84426  15.320   7.382   0.558 -0.2708 -0.1578  0.3424
41411W        W84427  25.141   4.506  26.552 -0.0956 -0.1130  0.2765
41412W        W84428  25.409  33.642   0.221 -0.0525  0.0370  0.4937
41413W        W84429  27.459   8.423  10.115 -0.2170 -0.4018  0.1457
41414W        W84430  25.914  25.474   4.218  0.4517 -0.1185  0.1217
41415W        W84431   6.778  18.026   2.585 -0.1145  0.0404  0.0122
41416W        W84432  32.062  14.714  20.908  0.1318 -0.1415 -0.2265
41417W        W84433  10.225   5.793   1.470  0.1082  0.4714  0.1425
41418W        W84434  31.687  17.127   2.949 -0.0238 -0.0807 -0.0726
41419W        W84435   1.484  23.471  28.648 -0.0947 -0.4124 -0.1121
41420W        W84436  18.053   3.637   8.950 -0.0778 -0.2796  0.3037
41421W        W84437  25.136  10.684  16.608  0.2723 -0.1578 -0.0133
41422W        W84438  31.548  15.154   1.838 -0.0338  0.0371 -0.0440
41423W        W84439  27.554   4.692   3.374  0.0083  0.2118  0.0786
41424W        W84440   4.300   8.744   6.675  0.2908 -0.3418  0.2324
41425W        W84441  14.613  11.858   2.329 -0.0153  0.0620  0.3299
41426W        W84442  32.610   5.929  27.507  0.2542 -0.3245 -0.0586
41427W        W84443  26.914  32.977   5.158 -0.0857  0.0615 -0.1657
41428W        W84444  27.811  11.384   3.702  0.0150 -0.0392  0.1186
41429W        W84445  30.334   7.244  25.906 -0.2259  0.0911 -0.2248
41430W        W84446  12.930  25.211   2.686 -0.1759 -0.1848  0.0918
41431W        W84447  12.568  14.980  17.841 -0.3299  0.0454 -0.0683
41432W        W84448  33.047   0.270  10.518 -0.0365  0.1351 -0.1115
41433W        W84449  23.676  21.575  20.625  0.3108  0.0451  0.0605
41434W        W84450   0.389   9.976  27.154  0.2692  0.1600 -0.0200
41435W        W84451   3.026   3.478   5.034  0.1559  0.1315  0.0152
41436W        W84452  23.134  33.477   9.769 -0.2380  0.0542 -0.0597
41437W        W84453   2.307  24.589  28.070 -0.0002 -0.4391  0.2185
41438W        W84454  27.931   9.948   5.434 -0.0694  0.0676 -0.1367
41439W        W84455  12.308   0.655  24.800  0.2232  0.1661 -0.1020
41440W        W84456  34.652  29.377  19.617 -0.0327  0.2730 -0.3674
41441W        W84457   7.103  30.718  25.027  0.2087  0.0757 -0.2204
41442W        W84458   0.016   3.693  29.215 -0.1628 -0.0599  0.0954
41443W        W84459  30.136  24.063   2.347 -0.2075 -0.2059 -0.1104
41444W        W84460  13.319   8.620   5.212 -0.1530  0.1921 -0.0364
41445W        W84461  24.953   4.436   7.509  0.0242  0.1194  0.0982
41446W        W84462  30.447  11.053   0.011  0.2363 -0.2483 -0.0132
41447W        W84463  12.651   9.113   5.662 -0.3159  0.2547  0.1352
41448W        W84464   5.250   8.462  27.511 -0.2344  0.1962  0.0479
41449W        W84465  29.536  11.584  16.961  0.1954  0.0365  0.2025
41450W        W84466  18.777  31.921  22.670  0.0146 -0.2700  0.0223
41451W        W84467   1.712   4.972   4.603  0.4139 -0.0438 -0.2681
41452W        W84468  26.078  19.904  21.196  0.1719  0.2291  0.1950
41453W        W84469  30.685   3.530   2.427  0.1990  0.0502 -0.2221
41454W        W84470  22.372   7.524  20.704  0.1357  0.0697 -0.2310
41455W        W84471  32.216   7.699   7.351  0.2851 -0.0844 -0.2145
41456W        W84472   4.521  29.919   3.112 -0.2087 -0.0680  0.0248
41457W        W84473   2.684   1.078   0.880 -0.1831  0.0274  0.0330
41458W        W84474   2.470   6.089   6.291 -0.1292  0.4751 -0.0293
41459W        W84475   1.993  29.164   1.266 -0.3977 -0.2840 -0.0432
41460W        W84476   9.975  14.236  25.807 -0.2033  0.3690  0.2062
41461W        W84477  23.716   7.783   9.252  0.1255  0.2539 -0.1155
41462W        W84478   7.569  10.779   0.672 -0.0974  0.0238 -0.2199
41463W        W84479  33.422   5.000  15.508  0.0086 -0.0030 -0.0030
41464W        W84480  29.262  19.766  24.837  0.1923  0.0871  0.1786
41465W        W84481  17.538  23.094  28.582  0.0738  0.1867  0.1117
41466W        W84482  33.404  26.141  23.347 -0.0439  0.0065  0.5203
41467W        W84483   8.979   9.431   0.483  0.1220 -0.0589 -0.2059
41468W        W84484   7.229   2.032  20.472 -0.2539 -0.1496  0.2961
41469W        W84485   3.648   6.023   7.649  0.0006 -0.1430  0.2245
41470W        W84486  20.087  14.319  24.275 -0.0305 -0.0149 -0.0713
41471W        W84487  20.038   6.002  17.130  0.1128 -0.3289 -0.1828
41472W        W84488  25.728   1.159  25.769 -0.1124  0.4267 -0.1671
41473W        W84489  17.128   2.852   1.648 -0.0293  0.5922  0.2940
41474W        W84490  26.717   1.993  23.564  0.1830 -0.0422  0.0223
41475W        W84491  24.019  27.247   9.137 -0.0237  0.0699  0.0913
41476W        W84492  28.086  12.280   5.252  0.3827 -0.0800 -0.0217
41477W        W84493   1.786   0.829  20.044  0.1813 -0.2875 -0.0693
41478W        W84494  28.658   9.619  17.487  0.1466 -0.2650  0.0890
41479W        W84495  11.424   5.694  28.260 -0.2271 -0.1056 -0.3460
41480W        W84496   6.734  10.593   6.432  0.1625  0.0996 -0.0964
41481W        W84497   9.929  21.780   1.406 -0.2658  0.0520 -0.1703
41482W        W84498  15.026  26.993   6.177  0.0869 -0.2546  0.1044
41483W        W84499  18.240  27.343   4.620 -0.0112  0.2263 -0.4749
41484W        W84500   7.553  24.649   4.140  0.2426  0.1204  0.1083
41485W        W84501  33.548   2.816  22.651  0.0756 -0.1773  0.1541
41486W        W84502  21.945  33.325   2.955  0.1210 -0.1398 -0.1128
41487W        W84503  14.884  30.376  28.184 -0.1696  0.0589  0.2983
41488W        W84504  28.701  30.495   8.390 -0.0067 -0.3366 -0.1144
41489W        W84505  10.026  33.339   3.579  0.2458  0.2251  0.1644
41490W        W84506  29.058   1.306  23.744 -0.1176  0.2806  0.2348
41491W        W84507  33.376  11.755  16.618  0.0274  0.0587  0.1988
41492W        W84508  19.703  28.978   7.918 -0.1114  0.2137  0.0084
41493W        W84509  30.678  14.894  29.060  0.0931  0.0587  0.0037
41494W        W84510  34.568   5.467   1.283 -0.0718 -0.2618 -0.1198
41495W        W84511  27.441   5.224  22.232  0.0880  0.0126  0.0625
41496W        W84512  14.416   0.657  10.056  0.1130  0.0964  0.0034
41497W        W84513  12.423  29.455   4.056  0.3446  0.1223  0.3228
41498W        W84514  31.209   6.665   1.922  0.0649  0.0039 -0.0615
41499W        W84515  26.146  28.937  12.052 -0.0165 -0.2944 -0.0017
41500W        W84516  28.712  20.843   8.207 -0.1109  0.1835 -0.0828
41501W        W84517  21.879   0.514   9.695 -0.3240 -0.1377  0.1201
41502W        W84518  21.945  17.967  20.418  0.0160  0.1467 -0.0583
41503W        W84519  30.527   0.312   2.550 -0.3424 -0.2188 -0.1721
41504W        W84520  28.286  25.897   6.541 -0.1913  0.2595  0.0196
41505W        W84521  31.420  15.977  19.386 -0.0029  0.2487 -0.1099
41506W        W84522  18.136   8.430   2.137  0.0746 -0.0891 -0.1402
41507W        W84523  26.206   8.001  19.689 -0.0594 -0.4192 -0.4754
41508W        W84524   5.098  32.680   5.584 -0.3067  0.0217  0.2793
41509W        W84525  29.972  23.021  10.893  0.0036 -0.1758 -0.0778
41510W        W84526  22.507  11.825   7.415 -0.3313 -0.0892 -0.1874
41511W        W84527  28.433   1.046  11.293 -0.2318  0.1374  0.0419
41512W        W84528  26.902  12.646  21.246 -0.1716  0.2718 -0.1173
41513W        W84529  24.938   7.866   6.841 -0.1330 -0.0428 -0.0229
41514W        W84530   4.909  21.200  25.964 -0.1394  0.0716 -0.0701
41515W        W84531  32.385   0.973   9.497 -0.0805  0.0046 -0.0520
41516W        W84532  14.288  15.477   7.923 -0.1073 -0.1542  0.1133
41517W        W84533  24.669   6.509  26.895 -0.0815 -0.3454  0.1443
41518W        W84534   7.234   0.994   2.771 -0.0050  0.1297 -0.1993
41519W        W84535   5.107  16.882  28.424  0.3031  0.1287 -0.4052
41520W        W84536   0.775  14.334  28.530 -0.0648  0.2109  0.1350
41521W        W84537  16.562   3.757  19.295 -0.0919 -0.0766  0.4370
41522W        W84538  19.161  25.204   2.668 -0.2269  0.2763 -0.1953
41523W        W84539  31.103   3.825  10.460 -0.0571  0.0730  0.0083
41524W        W84540  16.237  21.078  28.329 -0.2790 -0.0487 -0.0068
41525W        W84541  29.009  16.612   2.676 -0.0612 -0.3768  0.3025
41526W        W84542  29.856   5.700   5.343  0.2612 -0.0613 -0.2648
41527W        W84543  22.846   6.345  23.078 -0.0174  0.1893 -0.1278
41528W        W84544   1.044   3.110  21.938 -0.0238  0.1397 -0.0423
41529W        W84545  29.309   9.878   8.451  0.0974 -0.2808 -0.0613
41530W        W84546  20.710   1.219  21.105  0.1374  0.0671 -0.1307
41531W        W84547  19.173  33.026   0.271 -0.3052 -0.2645  0.0196
41532W        W84548  14.136  11.584  19.877  0.0323 -0.0622 -0.1980
41533W        W84549   8.103  26.907   6.044  0.1337 -0.1907 -0.2371
41534W        W84550   1.024   9.120  15.222 -0.0104 -0.1416  0.2937
41535W        W84551  28.824   1.718  21.787  0.2159  0.3750  0.0572
41536W        W84552   2.080   5.733  16.206 -0.0858  0.2585  0.1177
41537W        W84553   8.540  28.375  26.026 -0.1933 -0.0747 -0.2408
41538W        W84554  21.104  32.034  24.111  0.3192  0.0043 -0.0276
41539W        W84555  18.869  10.991  23.576 -0.0408  0.3376  0.1576
41540W        W84556  26.700  15.808  20.950 -0.0547 -0.0756 -0.2964
41541W        W84557   2.093   3.701   5.494 -0.3199  0.1224 -0.2805
41542W        W84558   7.571  20.692  28.343  0.1241  0.1719  0.0406
41543W        W84559   9.070  26.279   6.371  0.2790 -0.2684 -0.3327
41544W        W84560  33.746   6.646   9.880  0.2256 -0.0466  0.0536
41545W        W84561   5.626  34.205   7.236 -0.0336 -0.2310  0.1590
41546W        W84562  18.850  22.386  24.254  0.1253  0.0712 -0.3113
41547W        W84563  19.496   0.600   1.687 -0.2516 -0.2616  0.4697
41548W        W84564  14.487  13.451  20.708 -0.0721 -0.1599 -0.2074
41549W        W84565  27.461  32.065   6.414  0.1845  0.1243 -0.2397
41550W        W84566  25.494   2.500  24.702  0.0675  0.2427 -0.0348
41551W        W84567  30.300  11.192   9.003 -0.0048  0.0436  0.1083
41552W        W84568   1.218  31.649   1.253  0.0373 -0.3039 -0.0112
41553W        W84569  34.145  11.514  23.186  0.0681  0.4487  0.3401
41554W        W84570   8.219   5.750   9.878  0.2839 -0.1338 -0.3631
41555W        W84571   6.306  16.098  16.093 -0.0006  0.0821  0.2841
41556W        W84572  33.342   6.036  22.880 -0.2658  0.2230 -0.0932
41557W        W84573  19.975  26.857  23.241  0.1125  0.0295  0.0630
41558W        W84574   0.597  32.914   4.740 -0.1794 -0.1654  0.1840
41559W        W84575   5.014  29.552  13.637  0.2417 -0.1309  0.3189
41560W        W84576   6.820   8.781  21.379  0.0129  0.1640 -0.1574
41561W        W84577  25.256   9.567   7.346  0.0297  0.2707 -0.0989
41562W        W84578  31.668   4.816  22.953  0.1191 -0.0252 -0.0133
41563W        W84579  29.567   5.103   7.519  0.0633 -0.1705  0.2972
41564W        W84580  30.743   3.990   3.759 -0.0375 -0.2590 -0.2304
41565W        W84581  25.870   2.060   5.060 -0.1696  0.0531  0.0735
41566W        W84582  31.469  31.794  19.056  0.1293  0.0845 -0.0103
41567W        W84583   8.071   3.590   5.334 -0.1647  0.1148  0.1521
41568W        W84584  32.199  27.010   8.146 -0.2817 -0.0027 -0.1046
41569W        W84585  31.620  14.010   0.805 -0.0114  0.1731  0.1037
41570W        W84586  30.642  10.889   9.256 -0.1181  0.1419 -0.0658
41571W        W84587  34.710  11.085   6.402  0.1829  0.1789  0.0079
41572W        W84588  25.020  21.947  23.942 -0.1098  0.1598 -0.0596
41573W        W84589  23.635   3.991   9.164 -0.1749 -0.0723 -0.1341
41574W        W84590  33.208   3.200   3.227  0.0176 -0.0951 -0.1773
41575W        W84591  26.053   4.119  20.080 -0.0955 -0.3290 -0.0285
41576W        W84592  32.501  10.358  22.129  0.1136 -0.1046 -0.3083
41577W        W84593  23.493   1.437  23.300 -0.1966 -0.4345  0.1290
41578W        W84594  16.282  11.221   8.078  0.1205 -0.1243 -0.3311
41579W        W84595  22.992   9.578   0.125  0.0479  0.0639  0.1226
41580W        W84596  17.137   1.747   1.259  0.0492 -0.0720 -0.1225
41581W        W84597  21.646  32.465  27.491 -0.1791 -0.2580  0.1616
41582W        W84598  32.862  11.965  23.527 -0.0984 -0.2418 -0.2943
41583W        W84599  29.229   5.481  23.797 -0.2280  0.1056  0.2799
41584W        W84600  11.359  17.565  26.038  0.4499  0.1217 -0.1522
41585W        W84601  20.144   8.782  13.781 -0.1289  0.2008  0.0299
41586W        W84602  22.668  31.148  23.408  0.1412 -0.2448  0.4583
41587W        W84603  31.152   8.621  25.047 -0.0223  0.2748 -0.0685
41588W        W84604  27.348  14.811   5.447  0.0202 -0.0501 -0.1076
41589W        W84605  23.981  31.151   3.750 -0.0052 -0.0686  0.2658
41590W        W84606   6.238  28.661  27.065 -0.0337 -0.1684 -0.2083
41591W        W84607   0.792  33.942  14.360  0.0389  0.1100  0.0066
41592W        W84608  10.238  18.618   3.447 -0.0273 -0.0668 -0.0909
41593W        W84609  12.285  33.378   9.953 -0.2104 -0.1814 -0.1066
41594W        W84610  28.721  34.283  21.199  0.1844 -0.1409  0.0225
41595W        W84611  30.794  10.295  21.468  0.3092 -0.0665 -0.0429
41596W        W84612  18.281  31.153  27.978 -0.1752  0.2445 -0.0090
41597W        W84613  19.414  30.702   9.056  0.0492 -0.0807 -0.4721
41598W        W84614   9.042  22.273   3.706 -0.0661  0.2729  0.0039
41599W        W84615  12.434   7.140  27.025  0.1252 -0.1287 -0.0717
41600W        W84616   2.573   8.486  28.742 -0.0304  0.2731 -0.2995
41601W        W84617  24.992   8.745  26.853  0.1155  0.3131 -0.2461
41602W        W84618  31.428   5.946  26.085 -0.0841  0.0548 -0.1168
41603W        W84619  27.625   7.663   4.317  0.2198 -0.2031 -0.0931
41604W        W84620   6.210   1.362   4.555  0.3251  0.1747 -0.1038
41605W        W84621  24.604  15.158  17.620 -0.0226 -0.0982  0.1319
41606W        W84622  33.261   7.643   3.014 -0.3890 -0.0000  0.1702
41607W        W84623   7.198   8.634  23.829  0.2366 -0.1922  0.3107
41608W        W84624   1.547   2.426  28.913 -0.0554  0.0924 -0.3029
41609W        W84625  21.238  12.054  25.644  0.0544 -0.2638 -0.0383
41610W        W84626  34.255  11.600   5.118  0.0440 -0.0182 -0.0107
41611W        W84627  30.525  14.529  27.735 -0.0383 -0.1609  0.1225
41612W        W84628  14.098   4.729  26.455 -0.0206 -0.0302  0.1509
41613W        W84629  31.895  10.519  16.177 -0.0018 -0.2602 -0.1590
41614W        W84630  19.386  29.766   9.837 -0.0400 -0.0635  0.1017
41615W        W84631   1.138   4.465   2.522 -0.0971  0.2993 -0.2179
41616W        W84632   7.280  31.781   4.893  0.3445  0.0658  0.3596
41617W        W84633  18.842  29.479   4.581 -0.2797 -0.2058 -0.1851
41618W        W84634  26.648   5.867   4.016  0.0204 -0.0983  0.0314
41619W        W84635  14.028  31.238  26.500  0.2797 -0.2088  0.0732
41620W        W84636  22.864   6.420  24.847  0.3846 -0.0325  0.1018
41621W        W84637  27.078  30.035   4.500 -0.0866  0.0215 -0.3164
41622W        W84638  23.087  26.434   4.414 -0.1770  0.1694  0.1405
41623W        W84639  27.496   0.889   7.928  0.4623 -0.0057  0.1040
41624W        W84640  30.140  10.548  22.630  0.0615  0.0920  0.1763
41625W        W84641  24.564  11.365   5.222 -0.0382  0.0771 -0.1898
41626W        W84642  27.305   3.941   8.597 -0.1083 -0.1280 -0.2077
41627W        W84643  25.824  10.761   2.153  0.2710  0.2509  0.0772
41628W        W84644  28.820  28.938   3.115 -0.0706  0.1583  0.2301
41629W        W84645  27.836  29.270   5.003  0.2000 -0.1316 -0.1648
41630W        W84646  34.089  23.894  24.884  0.1144 -0.3747  0.0523
41631W        W84647   3.717  33.770   3.349 -0.1306  0.5635 -0.1301
41632W        W84648  33.726  12.086  25.985  0.4426  0.1648 -0.1328
41633W        W84649  31.819  34.570  24.998  0.1208  0.2449 -0.0155
41634W        W84650   8.979  24.865  23.057 -0.2444 -0.0013  0.1168
41635W        W84651   0.579   3.600   4.633  0.3295  0.0024 -0.1598
41636W        W84652  17.028  15.547   1.544 -0.1476 -0.1817  0.0356
41637W        W84653  10.731  34.677   0.161  0.0112 -0.0638  0.0793
41638W        W84654  34.147  34.521  20.120  0.5262  0.1266 -0.3282
41639W        W84655  32.313  12.621  29.026 -0.0388 -0.2495 -0.1719
41640W        W84656   4.708  11.253  24.413  0.0916 -0.0287  0.0320
41641W        W84657  26.822  32.777   6.780  0.0944 -0.2608 -0.1199
41642W        W84658  29.094  10.896   4.514  0.0442 -0.2216 -0.4016
41643W        W84659  32.721   0.670   7.619 -0.0298  0.0557  0.1576
41644W        W84660  33.218  12.929   6.318 -0.0326  0.1969  0.0311
41645W        W84661  24.072   5.393  23.758 -0.0447 -0.3761  0.0478
41646W        W84662  20.298  16.139   0.962 -0.0907 -0.2112  0.0781
41647W        W84663  13.316  10.955  24.458 -0.3434  0.0520  0.0314
41648W        W84664  24.476  31.379   1.997 -0.0246  0.0119  0.2480
41649W        W84665   2.277  11.316  20.135  0.3652  0.1165  0.5446
41650W        W84666  33.796   9.473   7.564 -0.2389  0.1407 -0.1584
41651W        W84667   1.566  33.637   8.305 -0.1921  0.1040  0.1823
41652W        W84668  22.471  11.522  10.085 -0.0271  0.0722 -0.1299
41653W        W84669  10.529   5.373  28.233  0.1810  0.0373  0.0614
41654W        W84670  34.455  13.977   4.216  0.1783 -0.0137  0.1608
41655W        W84671   9.009   3.348   5.703  0.1740  0.1332  0.1294
41656W        W84672  26.413  12.830  21.112 -0.1754  0.1421 -0.4377
41657W        W84673   1.731   7.932   7.946 -0.0195 -0.2130  0.0239
41658W        W84674  30.115  15.133  19.831 -0.2615 -0.1535 -0.1783
41659W        W84675  11.732  17.840  16.481  0.1002 -0.0116  0.2006
41660W        W84676  27.002   3.656   6.517  0.0967  0.1207 -0.0743
41661W        W84677   2.902   3.729  10.666  0.1211 -0.4008 -0.2361
41662W        W84678   5.076  15.822   2.893  0.0593 -0.0678  0.3504
41663W        W84679  14.154  11.126  26.774  0.3270  0.1236 -0.0251
41664W        W84680  29.651  18.449  16.660 -0.0172  0.0815 -0.1229
41665W        W84681  10.931   4.026  28.371  0.1907  0.1370  0.0628
41666W        W84682   4.355  27.001   5.941  0.0606  0.0184 -0.1514
41667W        W84683  23.051   5.702  29.169 -0.2289  0.0767 -0.1774
41668W        W84684  22.497  32.927  29.181  0.4124  0.0741  0.0215
41669W        W84685  18.693  12.044  29.125 -0.2724  0.2793  0.0314
41670W        W84686   2.189   3.847  17.623  0.2282  0.1062  0.1231
41671W        W84687  28.033   1.205  11.618 -0.2247 -0.3557  0.2588
41672W        W84688  25.778  22.042  10.764  0.2859 -0.2531  0.1022
41673W        W84689   5.262   4.040   9.960  0.0346  0.1368 -0.2182
41674W        W84690   6.074   5.785   2.699 -0.2616  0.1843  0.0992
41675W        W84691  31.419  13.720   5.019  0.3846  0.1267  0.2460
41676W        W84692   4.156  32.996   7.779  0.1621  0.2664  0.3357
41677W        W84693  24.482  15.156  22.275  0.1418 -0.0121  0.3344
41678W        W84694  26.467   2.609   7.944  0.0837 -0.0570 -0.0805
41679W        W84695  16.319  29.668  28.556 -0.0570 -0.1801  0.0889
41680W        W84696   3.772  25.373  10.232 -0.1592  0.4317  0.1119
41681W        W84697   9.363  10.179   0.649 -0.1850  0.3979 -0.2301
41682W        W84698  23.941  29.323  22.786  0.1001 -0.2277 -0.1058
41683W        W84699  19.585   8.142   8.260 -0.1867  0.0230 -0.1485
41684W        W84700  26.004  13.756   1.282 -0.0416 -0.1598 -0.0812
41685W        W84701  17.133   7.358  27.667  0.0788  0.4164 -0.1735
41686W        W84702   0.836   3.085  26.592  0.1494 -0.3687  0.1296
41687W        W84703  27.956  10.747  17.831 -0.4337  0.1136 -0.0839
41688W        W84704   7.469   5.968   4.344  0.2960  0.1139  0.0371
41689W        W84705  34.522  16.720   4.677 -0.1779 -0.1330 -0.0228
41690W        W84706  14.737  16.672  23.477 -0.0669 -0.0797 -0.1226
41691W        W84707  23.347   6.794  15.559  0.1415 -0.0613  0.1513
41692W        W84708   0.930  34.662   0.379  0.1279  0.3592  0.2134
41693W        W84709   3.828  17.726  23.753 -0.2832  0.0686  0.0526
41694W        W84710  31.225  11.374  27.968  0.0702  0.0875  0.3414
41695W        W84711   0.955  30.176   3.032 -0.1477  0.0306  0.0112
41696W        W84712  27.558  30.721  10.935  0.0714  0.0013 -0.1742
41697W        W84713  11.699   3.483   9.303 -0.1763  0.0281  0.3329
41698W        W84714  25.742  10.010   6.160 -0.0743 -0.1668  0.0245
41699W        W84715   5.584   2.796  10.140 -0.1428  0.2992  0.2968
41700W        W84716   2.141  30.297  21.552 -0.1354  0.0648 -0.0846
41701W        W84717  13.655  10.384  14.395 -0.0224  0.0682 -0.0866
41702W        W84718  29.904   4.448   2.348  0.0779  0.1119  0.1987
41703W        W84719  33.551  14.938   7.201 -0.2650 -0.3624  0.1221
41704W        W84720  31.944   0.195  26.452 -0.1194 -0.1007  0.0684
41705W        W84721  26.572   0.785  21.704 -0.2506  0.2041 -0.1184
41706W        W84722   6.971   4.066   3.799 -0.3307  0.2170 -0.0505
41707W        W84723   3.308  31.787  28.142  0.0659  0.2702 -0.0345
41708W        W84724  29.219   0.168  28.664  0.1042 -0.1004  0.2995
41709W        W84725  28.060  13.044   4.526  0.3983 -0.0540 -0.1757
41710W        W84726  26.883  11.054   2.371 -0.3465  0.0173  0.3766
41711W        W84727   8.608   8.484  27.587 -0.1478  0.0490 -0.3359
41712W        W84728   7.261  31.106  22.309 -0.1989 -0.1665 -0.2502
41713W        W84729  29.235   3.954   8.559  0.3463  0.1641 -0.1139
41714W        W84730   1.935  33.042   3.340  0.2107 -0.3535  0.1528
41715W        W84731  30.446  12.328  21.864 -0.1315 -0.1441  0.1893
41716W        W84732   1.985  30.579   5.004  0.2958  0.0403  0.0541
41717W        W84733  34.255  12.789  28.284 -0.1792 -0.0949  0.2226
41718W        W84734  28.352   6.339   4.898 -0.2096 -0.1232  0.1875
41719W        W84735  21.010   0.965   4.296  0.1972  0.1490  0.3334
41720W        W84736  22.298  17.050  23.463  0.0432 -0.1344  0.0374
41721W        W84737  16.016   4.590  22.391 -0.1283 -0.0369 -0.2943
41722W        W84738  18.137  23.766   3.446 -0.2690 -0.1255  0.1096
41723W        W84739  24.169   3.171   8.883  0.1620  0.0204 -0.1703
41724W        W84740   0.138   4.236  29.298 -0.0693 -0.0286  0.1211
41725W        W84741   8.297  27.100  29.166  0.5096 -0.0387  0.1032
41726W        W84742   3.658   1.612   5.316  0.1374  0.1993  0.3204
41727W        W84743  28.914   3.581   9.909 -0.0464  0.0789 -0.3006
41728W        W84744   8.707  13.880  26.275 -0.1799 -0.0341 -0.1606
41729W        W84745   4.965   3.984  28.061 -0.3841  0.0150 -0.1692
41730W        W84746  33.258   0.808   9.603 -0.0521 -0.1661 -0.1713
41731W        W84747  29.865  11.297  19.830  0.2790 -0.0969  0.0714
41732W        W84748  23.014   2.213   3.590 -0.1182 -0.3531  0.0788
41733W        W84749  15.221  30.383  10.758  0.1895 -0.0058  0.1087
41734W        W84750  20.920  13.001  21.614  0.0908 -0.0799 -0.0849
41735W        W84751   3.196   1.906  27.824 -0.2443 -0.0328 -0.0281
41736W        W84752  26.124   5.118  11.053 -0.0377  0.0659  0.0303
41737W        W84753  31.634  33.915   6.764  0.1530 -0.0044 -0.2847
41738W        W84754  14.664   1.048  19.573 -0.3086  0.1746 -0.0626
41739W        W84755  31.445   6.299   5.363  0.1423 -0.0914  0.0121
41740W        W84756   2.198   2.680   4.649  0.0722  0.2439 -0.1215
41741W        W84757   9.296   2.248   9.527 -0.0011 -0.1285  0.1232
41742W        W84758  20.386   8.550  26.781  0.0938  0.0628 -0.0232
41743W        W84759   0.804  10.958   6.164 -0.3003 -0.0727  0.1881
41744W        W84760  29.984  16.970  22.981 -0.1262  0.0642  0.1235
41745W        W84761   0.395  12.545  24.130 -0.1636 -0.2354 -0.1694
41746W        W84762   3.632   4.934  24.441 -0.0816 -0.0546 -0.0690
41747W        W84763  11.195   2.826  29.057 -0.0915 -0.0961 -0.1011
41748W        W84764  27.132   8.926   5.326  0.0945 -0.0239  0.1023
41749W        W84765  21.658   2.747   9.453 -0.0994 -0.2858  0.0060
41750W        W84766  16.825  24.001  26.622  0.2163  0.1512  0.4292
41751W        W84767   1.827  10.557  16.166 -0.2500 -0.0585 -0.0905
41752W        W84768   1.277   3.863  29.288 -0.4745  0.1762 -0.0575
41753W        W84769   2.018  26.241   3.843  0.2265 -0.1145 -0.1551
41754W        W84770  25.319  11.203  29.182 -0.3189 -0.3434  0.4825
41755W        W84771  27.401  32.357  24.367 -0.0679 -0.1639 -0.0516
41756W        W84772  19.054  10.829  26.227  0.0710  0.1761  0.2105
41757W        W84773  30.263  17.327  17.558  0.0262  0.1234  0.0509
41758W        W84774  21.367   9.440   8.447 -0.0029  0.0781 -0.2189
41759W        W84775   0.393   2.548  22.447 -0.1223 -0.0402  0.0333
41760W        W84776  31.715   6.417  22.433  0.2441 -0.2741 -0.2377
41761W        W84777  32.388  33.800   5.500  0.0339 -0.3654 -0.2709
41762W        W84778  31.461  15.661   8.488 -0.1508 -0.0988 -0.3601
41763W        W84779  27.411  29.945   9.042 -0.3716 -0.0168 -0.2402
41764W        W84780   4.730   9.262   4.628  0.3319  0.3192  0.2031
41765W        W84781  28.491   0.410   8.354 -0.0070 -0.2132 -0.0603
41766W        W84782  10.549   7.194   2.729  0.1925  0.0146  0.0645
41767W        W84783  16.297   8.367   4.098  0.0093 -0.1439 -0.0637
41768W        W84784  29.066  19.340  19.789  0.1160  0.2890  0.0605
41769W        W84785  34.105  28.500   4.418 -0.2618 -0.1301 -0.0804
41770W        W84786  12.816   7.215   6.412 -0.1311  0.0321  0.0727
41771W        W84787  30.616   2.130  16.079 -0.0561  0.0487  0.0786
41772W        W84788   4.445  18.620  28.554  0.0688 -0.1310 -0.0507
41773W        W84789   2.570  32.015  10.711 -0.0519  0.2013 -0.1155
41774W        W84790  11.601  15.603  24.487  0.1034 -0.0445  0.3003
41775W        W84791   1.485  19.256   8.369  0.2194  0.0092  0.1673
41776W        W84792  20.590  26.392  29.206 -0.0659 -0.3084  0.1393
41777W        W84793  25.389  24.814  24.227  0.0722  0.2832 -0.0175
41778W        W84794  34.647   1.218  28.226  0.2771  0.0709  0.3763
41779W        W84795  20.776   0.164   6.827  0.0402 -0.0001  0.3242
41780W        W84796  33.343   2.276   7.785 -0.1837 -0.3575 -0.0578
41781W        W84797   4.111  22.418  20.859 -0.0133 -0.0960  0.1021
41782W        W84798  10.271  11.818  24.447 -0.3514 -0.0223  0.2592
41783W        W84799  25.982   7.104  19.352  0.1891 -0.1073 -0.0476
41784W        W84800  30.801   3.948   2.747 -0.0668 -0.1604  0.3196
41785W        W84801   2.104  31.415  25.520 -0.3046 -0.1051 -0.2001
41786W        W84802   3.707  34.649   2.589  0.0523  0.2654 -0.0901
41787W        W84803  26.808   6.219  11.070 -0.0767  0.2165 -0.0530
41788W        W84804  31.719  13.701   2.425  0.0196  0.2072 -0.1180
41789W        W84805   0.773  18.766   0.572 -0.1204 -0.1785 -0.2587
41790W        W84806  29.320  10.618   7.722 -0.1585 -0.2369 -0.2617
41791W        W84807  34.112  14.275  23.984 -0.0239  0.1022 -0.0415
41792W        W84808   4.318   2.757   7.028  0.2130  0.0778  0.2323
41793W        W84809  31.288   5.046   7.183 -0.0584  0.0055 -0.1870
41794W        W84810  18.098   7.975   6.343  0.1967 -0.1850 -0.0144
41795W        W84811  30.427  21.430  26.739  0.0638  0.0270 -0.3213
41796W        W84812  34.387  24.351  17.206  0.0615 -0.0381  0.0752
41797W        W84813  25.151  29.129   4.961 -0.2451 -0.0152  0.0324
41798W        W84814  21.350   6.904   8.205  0.0192  0.0828 -0.1914
41799W        W84815   9.150   9.868  23.595  0.3717 -0.0472  0.0608
41800W        W84816   3.936   4.959   6.338  0.2135 -0.0436 -0.2029
41801W        W84817  34.593  31.112   8.865  0.0289 -0.2960  0.1422
41802W        W84818  30.296  19.247   4.624  0.0405  0.0042  0.0237
41803W        W84819   8.885  28.126   0.164  0.2019  0.1243 -0.1352
41804W        W84820   7.693   6.335   6.142  0.0494  0.4050  0.2409
41805W        W84821   0.220   8.537  27.191  0.0827  0.2318  0.1677
41806W        W84822  21.729  29.880   5.332 -0.2475  0.0915 -0.1502
41807W        W84823   6.749  17.218  23.826 -0.0972  0.1379 -0.4352
41808W        W84824  21.883  22.569   7.197 -0.1963  0.1584 -0.0037
41809W        W84825  29.851   8.462   4.937  0.2790  0.1547  0.1174
41810W        W84826  28.865  21.559  10.705  0.3158 -0.0655  0.0221
41811W        W84827  21.785  27.647  22.267  0.1919 -0.4307 -0.1535
41812W        W84828  21.024   3.828   6.877  0.0398 -0.4852 -0.1596
41813W        W84829  23.334  24.793  27.886  0.1207 -0.0546 -0.0792
41814W        W84830  29.420  18.796   4.955  0.4457 -0.2385 -0.0550
41815W        W84831  14.213   2.948  25.330 -0.3518  0.1400 -0.3381
41816W        W84832  33.404   7.196   3.661  0.0213  0.1040  0.0662
41817W        W84833  25.024  11.145   3.176  0.1255  0.0929  0.0067
41818W        W84834  15.300   1.174   2.464 -0.0124  0.0722 -0.3053
41819W        W84835  24.960  25.331  18.179 -0.0497 -0.1674  0.1162
41820W        W84836   4.367   7.842   7.354 -0.1074 -0.0629  0.2883
41821W        W84837   4.318  22.307   7.181  0.2761  0.0713  0.0015
41822W        W84838  29.039  28.805  24.163 -0.1680 -0.1655 -0.2998
41823W        W84839  27.894   7.350  28.368  0.2648 -0.2780 -0.0204
41824W        W84840  27.811  14.450   4.276  0.1453 -0.2520 -0.2508
41825W        W84841  30.366   8.932   7.150  0.0803  0.0899  0.0730
41826W        W84842  23.412   0.142   0.105  0.1006 -0.1686 -0.2301
41827W        W84843  31.264   7.654  10.271  0.1742 -0.2974 -0.2512
41828W        W84844   0.664  19.169   4.513 -0.1509  0.0847  0.1809
41829W        W84845   0.220  11.449   6.582  0.0809  0.2314 -0.1075
41830W        W84846  29.127  12.094   2.018 -0.1048 -0.0627  0.0748
41831W        W84847  14.786  13.797   2.953  0.1030 -0.0318 -0.4006
41832W        W84848  21.889   9.507  24.960 -0.3571  0.2134 -0.1366
41833W        W84849  24.956   0.498  10.242  0.2835 -0.4820 -0.2452
41834W        W84850  27.418  23.573  27.785  0.0710 -0.0598 -0.1544
41835W        W84851  13.078  32.557   4.567  0.2338 -0.3779 -0.1507
41836W        W84852   0.884  12.548   9.826 -0.2152  0.2569  0.1128
41837W        W84853  29.549   3.638   3.761  0.0513  0.3583  0.2352
41838W        W84854  26.471   9.602   7.439  0.0118  0.0253  0.0590
41839W        W84855   9.225  32.940   6.805  0.3416  0.0083 -0.1058
41840W        W84856  11.632   6.206  10.362 -0.1285  0.0326  0.0892
41841W        W84857  28.521  14.267   2.456  0.0206  0.0065 -0.1796
41842W        W84858   3.144  30.041   8.295 -0.1231 -0.0226  0.2274
41843W        W84859  22.895  12.938  24.754 -0.0108  0.1797 -0.1421
41844W        W84860  13.720  26.981  10.173  0.0757  0.1027 -0.1205
41845W        W84861  33.400   9.366   4.366  0.2524 -0.0251  0.3090
41846W        W84862   3.770  33.443  21.424 -0.0457 -0.3034  0.0294
41847W        W84863   4.135   7.692  20.942 -0.2323  0.0878  0.0323
41848W        W84864  11.594   4.469   3.290 -0.0800  0.2662 -0.1966
41849W        W84865  29.077  32.992   6.703  0.0010  0.1271  0.1545
41850W        W84866  30.709   6.166  10.258 -0.2079  0.2061 -0.1596
41851W        W84867  27.148   0.328   1.386 -0.1660  0.0506  0.1850
41852W        W84868   1.166   4.359  10.551  0.0455 -0.0911 -0.0954
41853W        W84869  16.870  26.686   9.000 -0.0895  0.1532 -0.2554
41854W        W84870   2.882  34.105   8.739  0.0334 -0.1762  0.4034
41855W        W84871  26.544  20.369  24.900  0.2270  0.0662  0.1934
41856W        W84872  32.152  33.378   3.523 -0.1555 -0.1322 -0.1219
41857W        W84873   4.840   8.003   7.493  0.0217  0.0447 -0.1444
41858W        W84874   7.605   1.495  27.761  0.1336 -0.0286 -0.1231
41859W        W84875  31.601  20.685  25.598 -0.1430 -0.3986 -0.1838
41860W        W84876  30.617  32.543  10.605  0.6757 -0.4103  0.0032
41861W        W84877  30.211   5.414   6.832 -0.0702  0.0432  0.2179
41862W        W84878  34.668   8.263   5.181 -0.1760 -0.2327 -0.0783
41863W        W84879  34.522   3.265   4.457 -0.1281 -0.1962  0.2651
41864W        W84880   3.204   2.748   0.076  0.0585 -0.3025  0.0765
41865W        W84881   0.599   5.427  15.129 -0.0401 -0.2476 -0.0927
41866W        W84882   3.773   0.067   7.116  0.0787  0.1236 -0.1603
41867W        W84883  32.708  16.842   4.593  0.2416 -0.0162  0.1344
41868W        W84884  24.212   8.642  22.484 -0.1100  0.2008  0.0706
41869W        W84885  27.355  34.012  24.559  0.0582  0.3315  0.5015
41870W        W84886  22.486   5.018   3.848 -0.2058 -0.1375 -0.1333
41871W        W84887  30.599   3.609  22.062  0.4056  0.0016  0.0730
41872W        W84888  26.482  29.608   2.625  0.1695 -0.1963 -0.0781
41873W        W84889  32.221  12.310   1.974  0.0982 -0.3306  0.3733
41874W        W84890  25.749  30.935  15.366  0.2719  0.0394 -0.2256
41875W        W84891  27.658  11.954   6.123 -0.0030  0.3261  0.1957
41876W        W84892   6.198   2.324  10.759 -0.2704 -0.0571 -0.2277
41877W        W84893  22.813  20.022   8.027  0.0320  0.1379  0.1422
41878W        W84894  26.656  14.574   1.435  0.0291 -0.2161 -0.0521
41879W        W84895  32.334  11.832   5.036 -0.0674 -0.4052 -0.2462
41880W        W84896   1.436   1.060  20.453  0.0176 -0.2229  0.0346
41881W        W84897  10.605  31.907   2.967  0.0887 -0.2424  0.0908
41882W        W84898  24.534   9.470   3.721  0.0982  0.2239  0.0096
41883W        W84899  29.771  21.491   6.631  0.4967 -0.0856  0.2420
41884W        W84900  29.810   5.001   2.000  0.1354 -0.3628 -0.0686
41885W        W84901  12.482  15.897  18.238 -0.1093  0.0771  0.2910
41886W        W84902   9.527   6.635  24.003 -0.0134 -0.1503 -0.1592
41887W        W84903  30.633   6.901   1.139  0.1665 -0.0286 -0.3938
41888W        W84904  33.379  12.937  20.571 -0.1153 -0.1307 -0.1006
41889W        W84905   0.581  11.703  15.850  0.2731  0.2683 -0.0886
41890W        W84906  29.710   3.632   7.549 -0.1270 -0.0091 -0.0507
41891W        W84907  10.796  13.319   5.533  0.0420  0.1801  0.0270
41892W        W84908  25.258  33.313   4.618  0.2381  0.4929 -0.0003
41893W        W84909  24.448  29.050   8.613 -0.2213 -0.1924 -0.0147
41894W        W84910  34.038   4.658   4.183  0.1935  0.0094  0.2680
41895W        W84911  16.043  29.327  10.288 -0.4632 -0.2391  0.0224
41896W        W84912  13.353  32.418   5.538 -0.1332  0.1687 -0.2107
41897W        W84913   4.927   5.574   3.774 -0.1543 -0.0494  0.2764
41898W        W84914  23.823   8.711   0.078 -0.0862  0.0919 -0.0429
41899W        W84915  29.101  12.544  25.804  0.0542  0.4197 -0.2106
41900W        W84916   8.939  28.765  25.676 -0.2530 -0.0063 -0.1349
41901W        W84917  27.218   0.942   1.326 -0.0867  0.1844 -0.0005
41902W        W84918   5.036  15.323  27.443 -0.0155 -0.0903 -0.0153
41903W        W84919  30.850   8.946   7.786  0.0830  0.1751  0.0802
41904W        W84920   7.746  17.279   1.843 -0.0980  0.1392 -0.1385
41905W        W84921  17.175   5.480   6.917 -0.1768 -0.0248  0.1506
41906W        W84922  18.227  30.409   6.093 -0.0055  0.3649 -0.0456
41907W        W84923   2.375  29.886   4.172 -0.1398  0.0946 -0.4036
41908W        W84924  32.645  30.048   0.500 -0.3350 -0.2942 -0.0202
41909W        W84925  25.643  17.377  27.770 -0.1473  0.0115 -0.3248
41910W        W84926  14.325  12.338   1.552  0.1344 -0.3536 -0.1551
41911W        W84927  17.588  18.879   2.992  0.2258  0.1154  0.1131
41912W        W84928  31.012   5.805  28.368  0.2572 -0.0284 -0.1887
41913W        W84929   9.749  15.288   8.499  0.2484  0.0470  0.2467
41914W        W84930  32.930  21.297   1.660  0.0179 -0.2284 -0.0790
41915W        W84931  23.098  10.937  28.846  0.0331  0.0249 -0.1240
41916W        W84932  23.372  12.389  24.164 -0.2067  0.2484  0.0738
41917W        W84933  28.726   9.444   7.415  0.0476  0.3025 -0.2416
41918W        W84934  21.690   0.232   0.997 -0.1514 -0.1866 -0.2875
41919W        W84935  20.357  12.371  25.619 -0.1024 -0.2449  0.2822
41920W        W84936  25.265  16.981   2.057  0.0191 -0.3372  0.2419
41921W        W84937   3.587   6.200   3.501  0.2068  0.0637  0.2789
41922W        W84938  28.505   8.970  23.293 -0.1556 -0.3740 -0.0011
41923W        W84939   5.103  21.805  27.898 -0.1221  0.2185 -0.2431
41924W        W84940  24.757   4.982   6.420  0.4189  0.0490 -0.0386
41925W        W84941  25.512  24.062   9.819 -0.2020  0.3949  0.1796
41926W        W84942  32.197  22.030   5.496 -0.1921  0.1722  0.0248
41927W        W84943  31.959  32.772  22.107  0.0329  0.0877 -0.0295
41928W        W84944  22.077  10.037  29.027  0.0991 -0.0188  0.0559
41929W        W84945  29.469  10.787  24.334 -0.2023 -0.0355  0.1345
41930W        W84946   7.921   2.276   9.775  0.0993 -0.1679 -0.0024
41931W        W84947  34.639  12.154   6.382  0.4016  0.1790 -0.1833
41932W        W84948   2.222  11.278   5.551 -0.3223 -0.1896 -0.2743
41933W        W84949  16.611  11.201   9.149 -0.2489 -0.3650  0.1367
41934W        W84950  23.296  32.093   1.141 -0.0930 -0.4419  0.1144
41935W        W84951  11.900  14.412  20.111 -0.4378 -0.5197  0.1238
41936W        W84952  20.141  10.016  26.454 -0.2971  0.1395 -0.1090
41937W        W84953  28.910   6.481   8.810 -0.0868 -0.2965 -0.0896
41938W        W84954  24.213  34.550  27.920  0.3861 -0.1360 -0.1960
41939W        W84955  13.724  22.979  26.346 -0.2938  0.0639 -0.0395
41940W        W84956   3.898   5.217   9.346  0.2114 -0.0552  0.2431
41941W        W84957  25.877  17.642  10.218 -0.2108  0.2479 -0.1337
41942W        W84958  29.697   2.313   5.430  0.0418 -0.3319 -0.0148
41943W        W84959  22.812   4.083  18.501  0.2946  0.1461  0.0166
41944W        W84960  21.693   9.456  25.707 -0.0600 -0.0233  0.5123
41945W        W84961   2.857   7.987   4.802 -0.1137 -0.1338  0.2697
41946W        W84962  13.715  32.480  25.994  0.1653 -0.1728 -0.1995
41947W        W84963  32.777   2.567   2.284  0.3088 -0.1491 -0.0982
41948W        W84964  27.254   6.599  20.949 -0.0495  0.1181 -0.1118
41949W        W84965   2.144  33.892  29.148 -0.0089 -0.1168 -0.0920
41950W        W84966  30.318  18.579   9.213 -0.0519  0.0939  0.0652
41951W        W84967   9.471  17.287  27.337  0.1815  0.5106 -0.3220
41952W        W84968  17.585   7.150   8.754  0.0645  0.3403  0.0213
41953W        W84969  34.560  31.839   4.561  0.1711  0.1846  0.3559
41954W        W84970  34.513  16.092   7.548  0.3740 -0.0720  0.2683
41955W        W84971  32.753   6.805   4.540  0.2943 -0.2145 -0.1010
41956W        W84972  23.285  30.600  26.228 -0.0587  0.0789  0.1272
41957W        W84973  22.678   5.376  28.885  0.0935  0.0155  0.0231
41958W        W84974  15.417   4.896   3.994 -0.0553 -0.1950  0.0109
41959W        W84975   5.664   1.683   8.673 -0.2138 -0.5850  0.1429
41960W        W84976  30.606   6.747  28.341 -0.1347  0.1370  0.0337
41961W        W84977  27.732  10.734  23.370  0.1760  0.0985  0.0009
41962W        W84978   0.026   4.721   1.939 -0.1583 -0.0641 -0.1306
41963W        W84979  27.004  11.908   5.086  0.4615  0.1567  0.0344
41964W        W84980  17.780  34.060   9.539 -0.0523  0.2940 -0.0164
41965W        W84981  10.006   2.294   8.042  0.1103 -0.0277 -0.2610
41966W        W84982  14.952  13.913   4.498 -0.1305  0.1957  0.0885
41967W        W84983  33.040   3.989   9.007  0.0612  0.2443 -0.1355
41968W        W84984  11.095  10.151   7.214 -0.2633  0.1512  0.2732
41969W        W84985  30.833   4.451   8.722 -0.2577  0.0530  0.1489
41970W        W84986   2.247   1.614  27.578  0.0368  0.0128  0.0266
41971W        W84987  23.893  14.802   1.066 -0.0483  0.0391  0.3879
41972W        W84988   0.109  18.913   5.707 -0.0896  0.2018  0.1511
41973W        W84989  20.536   8.329   0.128 -0.2251 -0.3035  0.4367
41974W        W84990  33.088  31.972  27.356  0.0483  0.1406  0.2112
41975W        W84991  21.087   9.118  29.239 -0.0979  0.0792 -0.0093
41976W        W84992  32.401  19.186  26.875  0.3158 -0.1179  0.2408
41977W        W84993  26.617   7.245   4.508 -0.0942  0.0221 -0.1834
41978W        W84994   3.490  12.724   9.366  0.2012  0.0741  0.3304
41979W        W84995  33.349   3.334   7.751 -0.1549  0.1573 -0.0587
41980W        W84996  34.173  30.751  25.627 -0.0745  0.2179 -0.2209
41981W        W84997   6.660   0.949   6.871  0.3590  0.1883 -0.2510
41982W        W84998  34.630   7.213   1.658  0.1907  0.0810 -0.0555
41983W        W84999   3.736  10.103   4.931 -0.0637  0.1245 -0.0623
41984W        W85000  32.626   2.727   8.419 -0.2818  0.2146  0.3147
41985W        W85001   0.719   6.791   3.630  0.1025 -0.1680  0.1023
41986W        W85002  32.878  19.956  22.889 -0.2671  0.0192  0.0955
41987W        W85003  15.582  30.414   6.468 -0.2945 -0.1852 -0.2103
41988W        W85004   1.612  17.479   4.127  0.0994 -0.0480  0.0617
41989W        W85005  21.810  32.277   7.805  0.1232  0.3151 -0.2577
41990W        W85006  24.754  23.113  28.941  0.3089 -0.0560 -0.1488
41991W        W85007  26.851   0.360  22.696 -0.0276  0.2172 -0.0118
41992W        W85008  22.195  12.566  23.717 -0.0613  0.1535 -0.1346
41993W        W85009  32.960  12.851  21.362 -0.3398  0.2854  0.2445
41994W        W85010  25.799  12.171   9.249  0.2004 -0.0499 -0.1294
41995W        W85011  21.390  13.002   2.134 -0.2009  0.0719 -0.3809
41996W        W85012  14.376   5.413  17.784 -0.0469  0.0483 -0.1570
41997W        W85013  20.263  17.978   5.156  0.0676 -0.1081  0.0309
41998W        W85014  32.880  23.006  23.428  0.0240 -0.1380 -0.0475
41999W        W85015  34.074  10.750   8.638  0.1876  0.1540 -0.1068
42000W        W85016  20.433  24.929   6.200  0.0038  0.1420  0.0423
42001W        W85017  16.834  28.665  25.395 -0.0899  0.2586 -0.2531
42002W        W85018  11.379  27.465   3.196  0.2986 -0.2175  0.1189
42003W        W85019  25.242   5.687   7.114 -0.0498  0.1649 -0.4581
42004W        W85020  16.190   1.759   1.368  0.2083 -0.0179  0.1194
42005W        W85021   3.109  14.167   2.601  0.2009 -0.0028  0.1429
42006W        W85022   8.273  22.856   6.311  0.0114 -0.0838 -0.0717
42007W        W85023  14.661   5.707  15.499 -0.1850 -0.1757  0.1609
42008W        W85024  28.333   1.440   7.066  0.1810 -0.2950 -0.0085
42009W        W85025  15.781   7.204  14.417 -0.2006  0.1401  0.0681
42010W        W85026  18.979   4.483   9.653 -0.1719 -0.1051  0.1360
42011W        W85027  18.183   9.361  17.494  0.3199  0.3739 -0.2689
42012W        W85028  19.558  28.340   2.588  0.1423 -0.0206  0.0510
42013W        W85029  10.515  15.817  27.467 -0.0962  0.1030 -0.1860
42014W        W85030  20.671   7.192   5.001  0.1000 -0.0516 -0.2008
42015W        W85031  26.343  11.684   8.009  0.0120 -0.0175 -0.1454
42016W        W85032  30.463  30.280  27.637  0.0849 -0.1411 -0.0433
42017W        W85033  15.764  11.558  29.065 -0.1964 -0.1203 -0.0036
42018W        W85034   1.458  31.549  24.567  0.0981  0.0366 -0.0332
42019W        W85035  29.776  28.450  24.694 -0.0346 -0.1970 -0.1110
42020W        W85036   3.420   1.113   7.684  0.0229 -0.3149 -0.0226
42021W        W85037  22.799  25.001   7.468 -0.0597  0.3607 -0.1857
42022W        W85038  31.373  18.220  24.605 -0.0488  0.0447 -0.2150
42023W        W85039  31.923   5.634  28.022 -0.1056 -0.0773 -0.0808
42024W        W85040  31.745  23.806   0.629  0.0416  0.1788 -0.4491
42025W        W85041  31.751  23.288  26.095  0.0938 -0.0224  0.0405
42026W        W85042  31.521  11.832  25.504 -0.0373  0.0431  0.3122
42027W        W85043  23.540  31.585   5.234 -0.2969  0.0875 -0.1715
42028W        W85044  30.846  29.719  16.330  0.1360 -0.0977 -0.0753
42029W        W85045   6.831  15.128  27.371 -0.0891  0.1923 -0.2745
42030W        W85046   1.531   1.779  25.404 -0.4088 -0.0714 -0.1869
42031W        W85047   5.699  34.367  26.528  0.2812  0.0775  0.4213
42032W        W85048  20.521   2.931   4.739 -0.2857  0.0708 -0.2548
42033W        W85049  14.703  15.329   0.460 -0.0086 -0.0707 -0.1665
42034W        W85050   9.249  16.098  25.614 -0.3780 -0.4099  0.0492
42035W        W85051  16.870   3.169   0.956 -0.2358 -0.1240 -0.2010
42036W        W85052   3.592  12.185   0.616 -0.0037  0.1210 -0.1263
42037W        W85053  28.711  25.789   8.238  0.0894 -0.3466  0.0239
42038W        W85054  27.962  13.928  17.991  0.0495  0.1946  0.0511
42039W        W85055  23.152  10.556  23.324  0.2355  0.1801  0.0791
42040W        W85056  14.712  32.655   2.057 -0.3380  0.0888 -0.0648
42041W        W85057  24.140  33.527   4.650  0.2342 -0.1424 -0.0646
42042W        W85058  19.115   3.198   1.947  0.1494  0.2271  0.2186
42043W        W85059  33.298  16.711  21.319 -0.0034 -0.2615 -0.2703
42044W        W85060  22.927   9.468   9.303  0.0360  0.0161 -0.0916
42045W        W85061  30.688  13.101   1.042 -0.0060 -0.2146  0.1320
42046W        W85062  18.993  13.126   3.912 -0.3932  0.0607  0.0995
42047W        W85063  30.811  17.986  27.804  0.2204  0.1966  0.1856
42048W        W85064   7.146  14.073   0.177  0.2128 -0.2491 -0.0512
42049W        W85065  34.523  10.240   7.020  0.3626 -0.0134 -0.1858
42050W        W85066  26.980  28.238   4.007  0.2516  0.1085 -0.1529
42051W        W85067  19.952   2.422  24.660 -0.0599  0.1682  0.0572
42052W        W85068   0.798  19.375  21.296 -0.0789 -0.3775  0.0873
42053W        W85069  12.408   2.299  17.243 -0.0419 -0.1270 -0.0767
42054W        W85070   7.378  13.052  22.842 -0.1371 -0.1766  0.2697
42055W        W85071   8.123   5.536  27.734  0.2227  0.1475 -0.1148
42056W        W85072  31.647  23.195   8.979  0.0226  0.1619  0.0416
42057W        W85073   0.818   4.040   4.552  0.0978  0.3200  0.3075
42058W        W85074  32.227  12.104  24.667  0.0043 -0.0217 -0.2006
42059W        W85075  20.649  14.341  20.060  0.1021 -0.0867  0.1326
42060W        W85076  26.536   4.822  27.974  0.0087  0.1553  0.0032
42061W        W85077   2.710  33.241  25.870 -0.0260 -0.0676 -0.3108
42062W        W85078  32.180   1.239   7.036  0.2025  0.0699 -0.1615
42063W        W85079   9.751  29.043   4.884  0.0102  0.1271 -0.0684
42064W        W85080   9.836  11.962  28.669  0.3376 -0.0742 -0.1515
42065W        W85081  26.630   3.220   8.109 -0.0337 -0.0664  0.1144
42066W        W85082  33.601  19.523   6.627 -0.3062 -0.2257  0.0575
42067W        W85083   3.410  30.354   9.274 -0.0354 -0.0365 -0.1127
42068W        W85084  17.569  27.303  23.619 -0.0290  0.0184 -0.0171
42069W        W85085  30.517  10.688  24.544 -0.0155 -0.2158  0.0197
42070W        W85086  31.355  21.207   8.774 -0.0804 -0.2137  0.2031
42071W        W85087  33.523  33.153   0.937  0.1389 -0.2294 -0.1795
42072W        W85088  22.494  32.944  26.103 -0.0605 -0.0479  0.0546
42073W        W85089  29.450  11.798  22.641 -0.0768 -0.0597  0.3431
42074W        W85090  31.498  17.654   7.916  0.2283  0.0189  0.2630
42075W        W85091   9.354  28.284   4.744 -0.0840 -0.1060 -0.2822
42076W        W85092  34.270  15.071  10.146  0.0574 -0.2850 -0.0997
42077W        W85093  29.481  20.200   3.218  0.2888 -0.1102  0.0168
42078W        W85094  26.425   8.356   3.857  0.2681  0.1362 -0.0801
42079W        W85095   3.311  16.266  19.855  0.1772  0.0862  0.0865
42080W        W85096  13.489   4.937   4.089  0.1527 -0.1712 -0.0227
42081W        W85097  19.137  30.469  10.789 -0.0781  0.3525  0.0727
42082W        W85098  31.491  17.940   6.864  0.0248  0.1900  0.2852
42083W        W85099   4.939  30.447   8.341  0.4509 -0.1772 -0.0571
42084W        W85100   2.311   6.396   7.388  0.2064  0.0509  0.0170
42085W        W85101  30.683  10.766  17.649  0.1624 -0.4115 -0.2494
42086W        W85102   6.315  23.571  22.296  0.1384  0.0317 -0.4142
42087W        W85103  31.557  24.844   4.798 -0.4895  0.0834 -0.1994
42088W        W85104  30.392   9.724  26.697 -0.2074  0.0706 -0.3883
42089W        W85105  31.969  16.883   4.144 -0.2778  0.2001 -0.0160
42090W        W85106   1.151  17.640  21.084 -0.0498  0.0890  0.0260
42091W        W85107   1.156   1.869  23.473  0.0330  0.3109 -0.0873
42092W        W85108  31.220  17.697  23.618 -0.3922  0.2925  0.0909
42093W        W85109  33.533  11.027   6.590  0.2288 -0.2706  0.3502
42094W        W85110  25.184   3.856   6.633  0.0551 -0.0368 -0.3471
42095W        W85111  27.860  17.823  18.394 -0.0046  0.0297 -0.2651
42096W        W85112   4.696  32.150   7.975  0.3496 -0.0573 -0.0694
42097W        W85113   6.797  18.418   7.075 -0.0792  0.2801  0.0595
42098W        W85114  21.423  20.595   2.776  0.3644  0.0390  0.0037
42099W        W85115  31.306   6.086   2.706  0.0398  0.3545 -0.0546
42100W        W85116   7.378   5.259  22.410  0.1303 -0.0510 -0.1587
42101W        W85117   1.574  17.512  22.524 -0.1530 -0.0334  0.0157
42102W        W85118  23.671  27.086   5.010  0.0496 -0.1268 -0.0459
42103W        W85119  29.632   8.733   3.039  0.1125 -0.2456 -0.1566
42104W        W85120  32.206  14.430  10.120 -0.0823 -0.0071  0.2675
42105W        W85121  31.694  12.832   2.493 -0.0905 -0.0534 -0.0125
42106W        W85122  26.457   5.321   8.234 -0.0653  0.2641  0.0445
42107W        W85123  13.078  33.895   9.049 -0.2580 -0.1829  0.1257
42108W        W85124  30.909  16.024   9.817 -0.3099  0.1228  0.0409
42109W        W85125  19.998  34.229  28.722 -0.1777  0.1396 -0.1899
42110W        W85126   0.634  17.980  27.850 -0.2040 -0.1270 -0.1952
42111W        W85127   9.825  16.795  19.706 -0.0885  0.0194  0.3380
42112W        W85128  28.876  12.154  25.916 -0.1146 -0.0724 -0.1252
42113W        W85129   0.019  25.946  15.279 -0.0554  0.1248 -0.0865
42114W        W85130  17.405   6.733  25.162 -0.5260 -0.0857 -0.3244
42115W        W85131  24.537   2.727   6.855 -0.1822  0.2570  0.1754
42116W        W85132  28.790  20.398   0.806  0.2538 -0.0237  0.3466
42117W        W85133   4.676  13.158  25.514  0.1423  0.0465  0.0350
42118W        W85134  34.123  12.986   4.936 -0.2080  0.3416 -0.6588
42119W        W85135  30.933  11.541   8.062  0.1450  0.1395  0.1974
42120W        W85136  26.004  11.965   7.147 -0.0303 -0.1770 -0.0699
42121W        W85137  31.699   8.351  28.533 -0.0412 -0.0514 -0.0020
42122W        W85138  28.664   6.044   4.675 -0.1938 -0.1873 -0.3329
42123W        W85139  34.589   7.451   4.576  0.1355 -0.1003 -0.1317
42124W        W85140  28.540   1.595   2.659 -0.1047 -0.2127 -0.0470
42125W        W85141  10.822  24.640   1.492  0.1006 -0.1154  0.0872
42126W        W85142  15.489  15.713   5.546  0.3871  0.0118 -0.2905
42127W        W85143   1.084   6.756   6.184  0.0775  0.3150 -0.0622
42128W        W85144  10.502   6.571  28.230  0.1056  0.2824  0.3793
42129W        W85145  30.644  16.052   1.354 -0.0958  0.2075 -0.0575
42130W        W85146   3.944   6.259   0.424 -0.1320 -0.0247 -0.4377
42131W        W85147  21.947   5.959   6.765  0.0660 -0.1241  0.0546
42132W        W85148  20.423  14.387   5.754  0.0595 -0.3692  0.2171
42133W        W85149  30.989   7.720  28.757 -0.1241  0.0131 -0.2271
42134W        W85150  14.208   6.588   5.501  0.1497 -0.0509 -0.1624
42135W        W85151  28.946   1.893   2.649  0.0595  0.3479  0.1538
42136W        W85152   9.935  11.353   1.905 -0.3120  0.0342 -0.1432
42137W        W85153   2.281  14.026   3.769  0.1226  0.0332 -0.1410
42138W        W85154  29.011  14.102   2.202  0.1585 -0.1049 -0.0477
42139W        W85155   6.455   9.559   6.703  0.2486 -0.1390  0.0450
42140W        W85156  21.837   0.157   8.026  0.3305 -0.1394 -0.1442
42141W        W85157  33.810   5.705  23.970 -0.2084 -0.3071 -0.0695
42142W        W85158   3.758  27.715   1.656  0.3221  0.1633  0.2040
42143W        W85159  20.855  13.803  16.438  0.0591 -0.0813 -0.1288
42144W        W85160  31.633  34.493  18.285  0.1452 -0.0100  0.2014
42145W        W85161  26.426   8.344  10.115  0.1217 -0.0115  0.2200
42146W        W85162  20.980  30.892   5.886 -0.4565  0.0304  0.3212
42147W        W85163  10.030   5.403   2.366 -0.1648  0.1810 -0.0735
42148W        W85164  24.627  13.761  23.157  0.0250 -0.1112 -0.1571
42149W        W85165  11.999  11.647  18.512 -0.1621  0.0107  0.0018
42150W        W85166  26.803   1.089  10.186 -0.0270 -0.1842 -0.1903
42151W        W85167  25.694   7.154   8.051  0.0556 -0.1917 -0.0030
42152W        W85168  31.388   5.768   2.188  0.0157 -0.0029 -0.1541
42153W        W85169  33.905  31.711   1.300  0.2007  0.0343  0.0221
42154W        W85170  32.169  11.496   5.491 -0.1920 -0.2029 -0.1070
42155W        W85171  34.553  12.290   6.956  0.2070 -0.3266  0.1589
42156W        W85172   0.381   7.620   9.412  0.1009  0.0844 -0.1036
42157W        W85173  25.687   7.637   6.408  0.1585  0.0123 -0.2232
42158W        W85174  26.454  14.412  28.234  0.1905 -0.1380 -0.1844
42159W        W85175   4.099  23.754   8.247 -0.0650  0.0040  0.0083
42160W        W85176   6.805  32.177  22.390 -0.1209 -0.0480  0.1753
42161W        W85177  13.734   3.810  26.454  0.1662  0.2374  0.0761
42162W        W85178  34.220  28.375  10.574 -0.1039 -0.3285 -0.0298
42163W        W85179   4.402   0.164   3.688 -0.3291 -0.0914  0.0213
42164W        W85180  20.450   0.641  20.202 -0.1344  0.1246 -0.3446
42165W        W85181  28.039   9.763  18.706 -0.0395  0.2491  0.2553
42166W        W85182   5.968   9.053   0.392 -0.0837  0.0378  0.0506
42167W        W85183  22.411   0.821   3.623 -0.1489 -0.1081 -0.2387
42168W        W85184  31.087  29.260  20.266 -0.1115  0.0319  0.0482
42169W        W85185  17.977  15.351  24.115 -0.4579 -0.0591 -0.2437
42170W        W85186  29.731  20.300  28.936  0.2636  0.0181  0.1791
42171W        W85187  11.514   9.443   2.868  0.1454  0.2375  0.4060
42172W        W85188  24.458  18.746  26.395  0.1943  0.1290 -0.2057
42173W        W85189   1.910   7.349   7.421 -0.2581  0.1887 -0.0665
42174W        W85190  31.749  12.843   8.072 -0.1678 -0.0457  0.2119
42175W        W85191  16.871   5.159   7.861  0.0294 -0.0932  0.0738
42176W        W85192  19.377  15.259  25.832 -0.1464 -0.0902 -0.3685
42177W        W85193   3.374  10.465   1.196  0.1356  0.1311  0.0182
42178W        W85194   3.547  32.043   0.557  0.1226 -0.1811  0.0662
42179W        W85195   0.158  22.426   7.763 -0.0141 -0.1676  0.1312
42180W        W85196  18.574  18.040   1.329  0.0780  0.0749 -0.1559
42181W        W85197   3.867   6.399   9.613  0.1887  0.2095 -0.2109
42182W        W85198  32.995   3.512   0.371 -0.1791 -0.4027 -0.1674
42183W        W85199  25.776  32.435   5.933 -0.0139  0.0185 -0.1791
42184W        W85200  19.311   1.475   6.784 -0.2033 -0.1903 -0.1203
42185W        W85201  15.688  12.625   3.843 -0.0219  0.3186 -0.0326
42186W        W85202  20.550  20.588   6.265 -0.1189 -0.0787  0.1919
42187W        W85203  23.512  13.198   1.789  0.0985  0.1446  0.2507
42188W        W85204  20.406  25.760   3.856 -0.0103 -0.0822 -0.0513
42189W        W85205  29.001  17.169   7.416  0.0424 -0.1238 -0.1874
42190W        W85206  26.287  13.282   7.764  0.1763  0.2527 -0.3615
42191W        W85207   6.236  15.127   9.499  0.0037  0.0514 -0.0838
42192W        W85208  11.235   0.943   7.511 -0.0739  0.1908  0.1119
42193W        W85209  20.125  30.539   0.489 -0.3060 -0.1405 -0.0614
42194W        W85210  24.252   5.199  26.297 -0.0170  0.3143  0.0636
42195W        W85211  32.739  16.843   8.716 -0.0153  0.0180  0.0754
42196W        W85212   1.230  13.325   9.893  0.1115 -0.0353  0.1520
42197W        W85213  34.033   3.982   6.874 -0.2025  0.1262  0.1203
42198W        W85214   6.343  13.891   2.518 -0.4079 -0.3259  0.2803
42199W        W85215  29.538  30.309  11.061 -0.3275  0.0604  0.0021
42200W        W85216  33.480  26.398  15.117  0.0764  0.1746  0.0702
42201W        W85217  16.059  26.139  10.394  0.2560  0.0258 -0.1139
42202W        W85218  29.449  18.730  26.097 -0.3032  0.1459 -0.1905
42203W        W85219  24.436  10.076  26.636 -0.4194  0.1406  0.2273
42204W        W85220  26.313   7.861   5.264 -0.2664  0.3511 -0.0070
42205W        W85221   0.750  18.257   3.594  0.2979 -0.0482  0.1774
42206W        W85222  34.121  12.226  22.053 -0.0000  0.0840  0.0041
42207W        W85223   8.228   2.798  28.990  0.0251 -0.3433  0.1318
42208W        W85224  26.498  18.969   9.316 -0.0991 -0.2112  0.0519
42209W        W85225   0.254  19.782   5.699 -0.6639  0.0685 -0.1955
42210W        W85226  31.088  28.863   6.805  0.0242  0.0038  0.0867
42211W        W85227  28.206   4.030   6.284 -0.2812  0.0343 -0.1102
42212W        W85228  18.316  33.339   9.164  0.0390  0.0004 -0.3153
42213W        W85229   2.608  10.937   7.376  0.2374 -0.0691 -0.2525
42214W        W85230  21.322   7.195   8.665 -0.5430 -0.1367 -0.4052
42215W        W85231  34.693   7.262   5.778 -0.1240 -0.0615  0.0257
42216W        W85232  27.625  12.623   1.091 -0.0494 -0.1743  0.2828
42217W        W85233   7.245   3.467   1.181  0.2437 -0.4820 -0.0173
42218W        W85234   0.587   5.634   6.402  0.1002  0.0197 -0.2444
42219W        W85235  23.091  32.728  22.961  0.2070  0.0072 -0.1020
42220W        W85236   5.718  25.227   1.237 -0.1480  0.1881  0.2818
42221W        W85237  11.193  15.868   8.200  0.0005  0.0052  0.2259
42222W        W85238   5.993   6.045  23.507  0.0122 -0.3539 -0.1903
42223W        W85239  33.733   2.266   0.723 -0.0691  0.1125  0.1279
42224W        W85240  21.367   7.591   4.150  0.0278  0.3443 -0.1532
42225W        W85241  27.534  26.208   7.833  0.0612  0.3052 -0.0035
42226W        W85242  29.947   0.932   4.101 -0.0756 -0.1293  0.0149
42227W        W85243  34.201  23.363   0.037 -0.0864  0.1081 -0.1434
42228W        W85244  24.377  20.034   3.919  0.1754 -0.1375  0.2712
42229W        W85245  11.887   3.105  20.581 -0.3399 -0.4692  0.1225
42230W        W85246   0.765   8.967   9.726  0.2934 -0.0436  0.0782
42231W        W85247  27.244   5.655  22.447 -0.0991 -0.0033  0.2584
42232W        W85248   1.989  11.353   6.056 -0.0168  0.0078 -0.2103
42233W        W85249  32.093  11.315   6.063  0.2214 -0.0265 -0.4557
42234W        W85250   3.987   3.437   2.104 -0.0675 -0.3849  0.1916
42235W        W85251  29.459  12.682   7.132  0.0696  0.1764 -0.5101
42236W        W85252  34.541   5.886   1.640 -0.0807 -0.3768 -0.2918
42237W        W85253   1.108   9.492  10.430  0.0615 -0.2730 -0.1612
42238W        W85254  11.030  14.236  13.768 -0.1498  0.0255  0.3218
42239W        W85255   4.320  17.438   8.336  0.4868 -0.0121 -0.1375
42240W        W85256   1.200  14.607  27.787  0.1130 -0.0326  0.0099
42241W        W85257  25.450   1.111  28.942 -0.0387 -0.0455 -0.0704
42242W        W85258  30.482   5.084  24.495  0.0787 -0.1950  0.0162
42243W        W85259   5.175  14.569   3.076  0.2217 -0.1875  0.2490
42244W        W85260  23.320  21.483   2.457 -0.2801  0.1529  0.0791
42245W        W85261   5.061   6.228  10.089  0.0997  0.0726  0.1729
42246W        W85262   7.965  29.280  24.931  0.0284 -0.0023 -0.1022
42247W        W85263  31.188  12.911   4.616 -0.0469  0.0059  0.2518
42248W        W85264  16.209  17.185   6.931  0.1484  0.1861 -0.0217
42249W        W85265  26.895  16.333  29.308  0.1148  0.0811 -0.1949
42250W        W85266  34.061   3.463   6.627 -0.6308  0.1016 -0.0194
42251W        W85267  17.942   5.579  16.217 -0.3162 -0.0523 -0.2301
42252W        W85268   4.748   9.284   7.560 -0.0690  0.0721 -0.0444
42253W        W85269  27.764   3.716   5.468 -0.2778 -0.0837  0.1660
42254W        W85270  15.299   7.250   4.350  0.4321 -0.2690  0.1298
42255W        W85271  31.226  10.539   7.363 -0.3666 -0.1241 -0.0275
42256W        W85272  25.306  23.487   4.249  0.1002 -0.0232 -0.0191
42257W        W85273   2.893  16.968   3.968 -0.1362 -0.2126 -0.0934
42258W        W85274   8.416  16.736   6.782  0.2051 -0.0415  0.0082
42259W        W85275  32.766  11.347  24.689 -0.0380 -0.0376 -0.1076
42260W        W85276  22.748  13.050   3.285  0.0928 -0.1084  0.0038
42261W        W85277  32.413  30.977   6.750  0.0410 -0.1888 -0.1829
42262W        W85278  32.338   5.538  20.746 -0.0094  0.1362  0.1805
42263W        W85279  10.373  13.339  23.584  0.5924 -0.3126  0.4128
42264W        W85280   1.304   3.915   4.881  0.0120 -0.4856  0.4826
42265W        W85281  19.351   7.926  22.985 -0.0128  0.0648 -0.0018
42266W        W85282  22.932   9.935   3.035 -0.1874  0.1436  0.0854
42267W        W85283  13.447   2.673  28.228 -0.0799 -0.1388  0.3602
42268W        W85284   4.097   7.366  28.835  0.0803 -0.3494  0.0637
42269W        W85285   7.415  12.724  27.918  0.3676 -0.0026  0.0963
42270W        W85286  19.410  33.735   4.232  0.3128  0.2048 -0.4400
42271W        W85287  32.281  21.944  28.648  0.1833  0.0735 -0.1615
42272W        W85288   0.615   1.590  10.348 -0.1783 -0.0231 -0.1029
42273W        W85289  17.339  30.021  19.205 -0.1070 -0.2420  0.1137
42274W        W85290  26.899  12.376  25.272  0.1942 -0.2826 -0.3232
42275W        W85291   9.539   1.761  14.276 -0.0275  0.2152  0.2553
42276W        W85292  18.205  33.561   5.900 -0.1794 -0.0231  0.0699
42277W        W85293  29.216  30.401  24.529 -0.1820  0.2163  0.2545
42278W        W85294  24.816  14.868   1.700 -0.1550  0.4277  0.5508
42279W        W85295  11.378  13.510  22.109 -0.2737  0.0379  0.0708
42280W        W85296  27.086  14.778   6.054  0.2101  0.1835  0.3349
42281W        W85297  25.046  22.012   2.007  0.2427 -0.2967 -0.1124
42282W        W85298  15.024  15.650  27.045 -0.1455  0.2221 -0.4185
42283W        W85299   4.059  15.083   5.933  0.0191  0.0899 -0.1722
42284W        W85300   3.206   6.584  10.508 -0.1483  0.1422  0.0838
42285W        W85301  22.038  11.071  20.918 -0.0305 -0.1007 -0.2365
42286W        W85302  21.383  15.813  22.376 -0.2085  0.1200 -0.2029
42287W        W85303   9.640   9.268   4.718 -0.1336 -0.1445  0.0182
42288W        W85304   2.449  19.108   4.710 -0.1493 -0.2941  0.2647
42289W        W85305   5.559  26.872   5.089  0.1941  0.1863  0.1713
42290W        W85306  24.757  32.145  28.192 -0.0248 -0.2713 -0.0581
42291W        W85307  16.666  28.937   0.364 -0.1694 -0.3332 -0.2258
42292W        W85308  15.671   5.294   4.176 -0.0252 -0.0018  0.0435
42293W        W85309  24.101  31.093   9.562 -0.2570  0.2638  0.0861
42294W        W85310  22.450  28.000   4.275 -0.3126  0.1803 -0.0483
42295W        W85311  34.206  18.930   6.647  0.0521 -0.0967  0.3460
42296W        W85312   5.885  32.854   3.382  0.1285  0.2998 -0.0212
42297W        W85313  31.645   6.434   7.924 -0.2901 -0.1513 -0.2782
42298W        W85314  20.540   8.195   6.351  0.0459 -0.1377  0.2210
42299W        W85315  24.975  28.877   6.330 -0.0619 -0.0191 -0.0897
42300W        W85316  32.998  34.392  28.981  0.0666 -0.0899 -0.1120
42301W        W85317  27.194   2.105   3.955 -0.3589 -0.1148 -0.0642
42302W        W85318  17.187  29.394   8.706 -0.1989  0.0016 -0.1154
42303W        W85319   1.266  11.785   7.141 -0.0924  0.0792 -0.0262
42304W        W85320  13.725  22.003   4.657 -0.2201  0.1141 -0.2264
42305W        W85321  13.113   5.567   4.563 -0.0594 -0.0363  0.1022
42306W        W85322  12.284   8.165  25.620 -0.0694  0.3368 -0.1503
42307W        W85323  24.046   8.665   7.384  0.2252  0.1138  0.1804
42308W        W85324   6.281   6.204   7.776  0.1448 -0.2983  0.1271
42309W        W85325  27.921  23.253  10.578 -0.0120 -0.1113 -0.0281
42310W        W85326  17.630   6.983  27.023  0.0785  0.1835  0.3157
42311W        W85327   2.020  19.374   4.755  0.0492 -0.0506  0.2284
42312W        W85328  31.944   3.938   3.087  0.1947 -0.0593 -0.0002
42313W        W85329  15.734  24.195  20.805  0.0739 -0.0677  0.0259
42314W        W85330  17.341  10.030   4.485 -0.0161 -0.1101  0.1177
42315W        W85331  18.700  10.121  28.907 -0.0938 -0.2431  0.2418
42316W        W85332  32.404  13.780   7.039 -0.2636  0.1093 -0.2309
42317W        W85333   0.827  13.100   5.471 -0.1225 -0.0993  0.3954
42318W        W85334   1.191   7.454   7.442  0.0961 -0.4698  0.3753
42319W        W85335  27.273  27.981   0.910 -0.5331 -0.2611  0.0996
42320W        W85336  32.096  13.028  10.864 -0.3374  0.0035  0.5350
42321W        W85337  24.547  14.995  16.897  0.2762 -0.2357 -0.0278
42322W        W85338  18.256  31.339   5.641 -0.1669  0.0296 -0.0251
42323W        W85339   8.368   1.571   1.668  0.1036  0.1180 -0.1159
42324W        W85340  25.854  11.840   4.420 -0.0481  0.3101  0.1398
42325W        W85341  10.625  21.871  26.123 -0.1281  0.1126 -0.0393
42326W        W85342  29.134  13.886   8.437 -0.0967 -0.2387  0.0320
42327W        W85343   8.253  11.506  26.308  0.3070  0.4062  0.3385
42328W        W85344   4.368   7.209   7.528  0.1822  0.1945  0.0769
42329W        W85345  22.996   5.841   1.523 -0.2778  0.2576  0.3769
42330W        W85346  22.299   6.538   9.387 -0.0583  0.0379  0.0384
42331W        W85347  21.257  12.506  24.500 -0.1816 -0.1878 -0.2410
42332W        W85348  31.121   4.395   1.109  0.2313  0.3801  0.1086
42333W        W85349   3.457  11.398  10.611 -0.0122  0.1325 -0.1587
42334W        W85350   9.993   9.143   1.978 -0.1442  0.0671 -0.0629
42335W        W85351  18.332  10.621   1.447 -0.1214  0.1747 -0.1276
42336W        W85352  28.648  23.685   6.598 -0.4985 -0.1236 -0.0830
42337W        W85353  14.552   8.706   3.044 -0.1673 -0.0903 -0.0121
42338W        W85354  23.304  13.120  28.802  0.0458 -0.0959 -0.1031
42339W        W85355  32.752  18.307  10.542 -0.1196  0.0188 -0.2500
42340W        W85356  28.138  12.383  25.338 -0.2178 -0.0642  0.2374
42341W        W85357  33.884  12.901  10.924  0.0496 -0.1439 -0.0741
42342W        W85358   2.079  16.422   1.110  0.0590  0.0532  0.1675
42343W        W85359  26.544   7.930  10.969  0.1845 -0.0477  0.0922
42344W        W85360   3.664   3.743   8.189  0.3097  0.1267  0.0289
42345W        W85361  18.829  25.896   2.329 -0.3620  0.0246 -0.1111
42346W        W85362  31.836  14.981   7.474  0.0926  0.0000 -0.0750
42347W        W85363  30.046  18.899   8.916  0.2461  0.1576 -0.1431
42348W        W85364   1.470   8.488   2.322 -0.1334  0.1620 -0.0434
42349W        W85365  32.973   1.716   9.188 -0.2445  0.0953  0.0730
42350W        W85366  24.170   0.901   5.843  0.0482 -0.3657  0.0459
42351W        W85367  21.575   7.150  24.857 -0.0456  0.1128 -0.1022
42352W        W85368  14.282  34.429   7.314 -0.0775 -0.2422  0.0282
42353W        W85369  28.864   7.215   3.215  0.1712 -0.0041 -0.0639
42354W        W85370   5.838  29.357   4.712 -0.0047 -0.0819 -0.0163
42355W        W85371   0.119  27.404   6.757 -0.0378 -0.1084 -0.0916
42356W        W85372   2.793   3.827   8.190 -0.2281 -0.0344 -0.0188
42357W        W85373   7.848  33.790   6.497 -0.2672 -0.4617  0.1412
42358W        W85374   6.959   1.107   5.030 -0.0738  0.1186  0.2721
42359W        W85375  12.632  30.133  16.948  0.0313  0.0046  0.2148
42360W        W85376  33.598   2.345   4.596 -0.1215 -0.3441  0.1665
42361W        W85377  19.866   0.351   7.755 -0.1218  0.2291  0.2480
42362W        W85378  17.789  14.277   0.697 -0.0122 -0.2407  0.0216
42363W        W85379   6.596   1.271  22.109  0.2329 -0.1185  0.0709
42364W        W85380  23.717  12.982   6.124 -0.0305 -0.0142  0.0989
42365W        W85381  14.154   4.956   6.198  0.4280 -0.1402 -0.0214
42366W        W85382  24.197  10.576   5.502 -0.3776  0.1155  0.1091
42367W        W85383  34.099   7.367   3.346 -0.0810 -0.3496 -0.2860
42368W        W85384  19.789   5.568  24.938  0.2295 -0.0080  0.0134
42369W        W85385   6.456   4.607   4.624  0.4941  0.2476  0.1846
42370W        W85386  30.516  27.126  10.803 -0.1687 -0.1859  0.0082
42371W        W85387  31.649   5.257   9.550  0.0502  0.0374  0.2286
42372W        W85388  17.648   8.749  24.601 -0.1241  0.2053  0.2537
42373W        W85389  14.493  30.825   3.980  0.2903  0.0999  0.2447
42374W        W85390   5.435  20.222   1.535  0.2533 -0.0393  0.2265
42375W        W85391  26.451   4.669   3.547  0.2246  0.3552 -0.0039
42376W        W85392  11.697  34.597   1.976 -0.0979 -0.5122 -0.3866
42377W        W85393   2.359  14.463  26.599  0.3821  0.0381  0.0739
42378W        W85394  31.712  14.610   3.596  0.0546 -0.1063  0.1197
42379W        W85395  29.374  33.658   9.393  0.0019  0.1226 -0.1437
42380W        W85396  14.483  26.672   2.225 -0.3036  0.0328 -0.1068
42381W        W85397   3.195   5.261  22.371 -0.1678 -0.1179 -0.1941
42382W        W85398   7.194   9.473   5.035 -0.2098 -0.0730  0.3875
42383W        W85399  15.691  14.562  23.793 -0.1868 -0.0736 -0.0579
42384W        W85400  34.010  12.147  10.164  0.0648  0.2107  0.0652
42385W        W85401  20.402  32.441   7.335  0.1838  0.2650 -0.1128
42386W        W85402  10.712  27.916   6.105  0.0357 -0.3647 -0.0110
42387W        W85403  21.499  18.529  20.488 -0.2381 -0.1395  0.2326
42388W        W85404   2.168   9.543   0.287 -0.0332 -0.1981  0.1016
42389W        W85405  29.656  23.446   5.943  0.0464  0.0414  0.0743
42390W        W85406  25.658   7.964   1.342  0.0514 -0.2338  0.1412
42391W        W85407  16.979   8.761   2.931 -0.2647 -0.2826 -0.0190
42392W        W85408  27.498  22.081   7.845  0.0643 -0.0800 -0.1188
42393W        W85409  28.054  23.493   4.340  0.0619 -0.0677  0.0012
42394W        W85410  28.911  21.242   7.985 -0.2093  0.0291 -0.1400
42395W        W85411  11.985  21.034   6.476  0.2130  0.0025 -0.0346
42396W        W85412  33.667   6.512  10.343  0.1420 -0.0939 -0.4391
42397W        W85413  22.474  22.646   6.072  0.0670 -0.1309 -0.0816
42398W        W85414   3.354   2.662  26.818  0.2183  0.1821  0.1665
42399W        W85415  19.282   2.240  27.930  0.1345  0.3071  0.4295
42400W        W85416   3.244  29.071  10.078 -0.2206  0.1854 -0.1763
42401W        W85417  26.787  11.005   9.182  0.1906  0.4854  0.1250
42402W        W85418   0.872   5.978   3.952 -0.0701 -0.0720 -0.0044
42403W        W85419  24.821  21.184   7.555  0.0272  0.4278  0.1792
42404W        W85420  31.553  18.907   1.090  0.1547  0.0668  0.1693
42405W        W85421  27.855  28.367  17.904 -0.1265 -0.0321 -0.1668
42406W        W85422  11.792   5.080   3.851 -0.1226 -0.0475  0.1238
42407W        W85423  32.001   1.506   3.795 -0.0987 -0.0271  0.2588
42408W        W85424  29.632  19.736   3.502  0.3064 -0.2409  0.1029
42409W        W85425  23.789   9.519   8.735 -0.1220 -0.2058  0.0296
42410W        W85426  31.209  18.170  20.573  0.1060 -0.1594 -0.4081
42411W        W85427  12.415   4.743   8.963  0.0306 -0.0799  0.1691
42412W        W85428  32.049  30.124   6.268  0.0622  0.2396  0.3002
42413W        W85429  26.113   7.458   1.507 -0.0729  0.0780  0.0956
42414W        W85430   8.094   0.842  28.074 -0.1380 -0.2127  0.1040
42415W        W85431  22.714   8.059   5.940 -0.1913  0.0847  0.2111
42416W        W85432   2.651  12.547  23.111  0.0640 -0.1830 -0.0582
42417W        W85433  33.785  11.197  24.913 -0.1766 -0.1223  0.1115
42418W        W85434  17.931  26.255   7.820  0.1651  0.2189  0.0952
42419W        W85435  15.028  14.832   4.526 -0.1368 -0.1039 -0.1433
42420W        W85436   4.556  16.247   9.209 -0.1494  0.1398  0.1935
42421W        W85437  23.441   2.128   9.388  0.0014  0.0697 -0.0931
42422W        W85438  30.593  18.327  10.555 -0.0630  0.0796 -0.2414
42423W        W85439  11.885   8.311  29.169  0.2663  0.0889  0.1598
42424W        W85440  10.832  12.980   5.926 -0.1934  0.0781  0.0441
42425W        W85441  27.582   6.467  10.635  0.0008 -0.3324 -0.0311
42426W        W85442  13.972   9.118   4.157 -0.3034 -0.1365  0.0409
42427W        W85443  28.508  29.009   0.760  0.0094 -0.1193 -0.2342
42428W        W85444   4.566   9.821   5.081  0.1697  0.0746 -0.1052
42429W        W85445  24.771  30.784  25.295 -0.0034 -0.0584 -0.2774
42430W        W85446   3.343  22.163   6.911  0.0384  0.0715  0.1857
42431W        W85447   6.829  12.712  26.161 -0.0753 -0.0699  0.1294
42432W        W85448  32.271   1.996  29.072  0.1492  0.0016  0.0506
42433W        W85449  28.283  11.441   9.210 -0.2018  0.0121  0.0783
42434W        W85450  34.384  29.742  10.555  0.2047 -0.1008  0.3679
42435W        W85451  17.461  26.516  24.972  0.0337  0.2556 -0.3910
42436W        W85452  11.828  33.362   2.166  0.2288 -0.0257  0.0273
42437W        W85453  18.674  33.566  10.392 -0.3331 -0.2794  0.3003
42438W        W85454  11.020   2.486   8.569  0.0381  0.3849 -0.1397
42439W        W85455   6.032  27.936   6.999  0.1852 -0.3587 -0.3129
42440W        W85456  24.248   5.545   5.264  0.3635  0.3507  0.4966
42441W        W85457  28.068  16.821   4.671  0.1468  0.7860  0.0744
42442W        W85458  29.849   8.777   8.484  0.0426 -0.1703  0.3527
42443W        W85459  14.646  24.216   5.342 -0.3122  0.1414  0.0383
42444W        W85460  28.233  29.275   2.645  0.1967  0.0238  0.2207
42445W        W85461   5.470  24.137   3.443 -0.1098  0.2197  0.6146
42446W        W85462   6.667   4.964   8.569 -0.0927  0.0938 -0.3285
42447W        W85463  32.335  24.490   8.670  0.3299  0.0671  0.1304
42448W        W85464   6.496  33.118   0.554 -0.2258  0.1204 -0.0017
42449W        W85465  25.504  18.950  28.170  0.1053 -0.0717  0.4144
42450W        W85466   6.503   9.412  26.112 -0.1542  0.0401  0.1880
42451W        W85467   0.738  15.886   8.752 -0.2551  0.1890  0.2442
42452W        W85468  25.205   5.240  11.138 -0.0130 -0.1590  0.1238
42453W        W85469   4.429  25.302   7.674 -0.3180 -0.3135 -0.0253
42454W        W85470  22.694  30.233   9.029  0.0869 -0.0557 -0.2932
42455W        W85471   1.656   3.617   2.519 -0.2782  0.0898 -0.1399
42456W        W85472  33.045   6.515  10.143  0.2860 -0.4626  0.0835
42457W        W85473  32.927  21.650  24.696  0.2452 -0.0085  0.1450
42458W        W85474  13.512  16.704  21.920  0.0292 -0.1173 -0.0951
42459W        W85475   2.293  34.258   4.668  0.1262  0.1107  0.0758
42460W        W85476  30.434   1.128   0.159 -0.1980  0.0475  0.0759
42461W        W85477   3.778   4.933   0.371  0.1359  0.0407  0.0862
42462W        W85478  32.488  12.800   3.121  0.1388  0.0964 -0.1656
42463W        W85479  24.376   9.584  21.280 -0.0618 -0.0047  0.4056
42464W        W85480  27.737  10.909   1.455  0.2718  0.0059  0.1066
42465W        W85481  30.229  17.957   3.176  0.0102 -0.1746 -0.1901
42466W        W85482  11.770  12.541  24.124 -0.2276 -0.0952  0.3362
42467W        W85483  12.611  10.346  29.260 -0.0175 -0.0797  0.1363
42468W        W85484  32.315  34.746   5.536 -0.1870 -0.1163  0.1820
42469W        W85485   3.366   2.774   9.265 -0.0368  0.0208 -0.3737
42470W        W85486  31.982   8.083   8.907 -0.0307  0.0729 -0.3422
42471W        W85487  13.614  16.779   7.922  0.2335  0.0016  0.1035
42472W        W85488   6.917  29.771   9.795  0.0914  0.3946 -0.0687
42473W        W85489  28.610  16.960   0.492 -0.2967 -0.1980 -0.0809
42474W        W85490  18.983  15.965   5.602  0.0238  0.1427  0.4653
42475W        W85491   4.318  14.149  23.618  0.4349  0.0606  0.2683
42476W        W85492  23.824  30.087   6.681  0.0670 -0.0158  0.3887
42477W        W85493  29.750  25.777  22.836  0.0289  0.0511  0.1566
42478W        W85494  25.224  21.871  28.630 -0.0354 -0.1434  0.1236
42479W        W85495   1.316   9.938  10.262 -0.2201 -0.0402  0.1673
42480W        W85496  19.082   5.941   6.489 -0.0442 -0.1729 -0.1055
42481W        W85497  30.638  32.988  24.280  0.1890  0.0400  0.2557
42482W        W85498  11.576  32.503   3.947  0.2495 -0.1666  0.0315
42483W        W85499  32.570  17.269  10.566  0.1976 -0.1120  0.1022
42484W        W85500  21.807   2.510   3.521  0.1392  0.1247  0.0163
42485W        W85501  32.160  27.699  10.645  0.4508 -0.0813 -0.2430
42486W        W85502  23.760   5.768   6.205 -0.2829 -0.1419  0.2225
42487W        W85503   7.189  32.157   6.108  0.2907 -0.2550  0.0076
42488W        W85504  34.264   1.579  24.484 -0.0792 -0.0787  0.1409
42489W        W85505  30.806  15.343   4.476  0.1605  0.0269 -0.1231
42490W        W85506   2.599  26.771   7.429  0.1576  0.0247  0.0786
42491W        W85507   6.219   1.571   1.621 -0.0552  0.0504  0.4780
42492W        W85508  15.166  19.360  29.299 -0.1204 -0.1908  0.2491
42493W        W85509  20.802  17.116  23.846 -0.2843  0.0224 -0.1999
42494W        W85510  34.471  24.997  23.729  0.3221  0.2603 -0.0199
42495W        W85511  31.957  33.843  27.234 -0.0682 -0.0418 -0.0269
42496W        W85512  22.139  28.578   0.913 -0.0249 -0.2609  0.2428
42497W        W85513  19.406   6.658   8.148  0.0010  0.0629  0.2106
42498W        W85514  20.400  26.277   4.187  0.3934  0.0563  0.2461
42499W        W85515  20.566  11.870   7.459  0.0642 -0.3588 -0.1179
42500W        W85516  25.030  12.406  24.636  0.1221 -0.1659 -0.0419
42501W        W85517  31.146  19.405  25.782  0.0874  0.4345  0.3093
42502W        W85518   8.900  28.658   4.400 -0.0731  0.2007 -0.1387
42503W        W85519   3.405   3.879  21.474 -0.2481  0.0549  0.1346
42504W        W85520  12.704  12.389  14.469 -0.0471  0.0558 -0.1376
42505W        W85521   3.346  12.682   3.267 -0.0729 -0.2488 -0.0783
42506W        W85522  12.864  11.637  13.202  0.0794 -0.1944 -0.0221
42507W        W85523   4.047   6.377   7.812 -0.0625 -0.0298  0.1581
42508W        W85524  22.951  17.503  24.991 -0.0751  0.1989  0.0314
42509W        W85525   2.141   3.931   5.037  0.0992 -0.1518  0.0305
42510W        W85526  22.660   6.831   3.022 -0.2107  0.1916 -0.2786
42511W        W85527   9.141  27.707  10.687 -0.2908 -0.1709  0.1805
42512W        W85528  29.423  14.171   9.727 -0.5142  0.3882 -0.1586
42513W        W85529  18.659  10.640  27.645 -0.1818 -0.2478 -0.0694
42514W        W85530  20.847   9.441  14.972 -0.0736 -0.3269 -0.2419
42515W        W85531  22.454  16.367  22.711 -0.2109 -0.1432  0.0529
42516W        W85532  25.484  33.381   9.868 -0.0436 -0.0418  0.0784
42517W        W85533   7.158   5.062   5.603 -0.3033  0.5456 -0.3482
42518W        W85534  34.016  10.612  25.824  0.0949 -0.3428  0.1791
42519W        W85535  31.902   0.679   5.313 -0.0483 -0.1638 -0.1170
42520W        W85536   3.341   7.089  25.545  0.1268  0.1423  0.1668
42521W        W85537   6.859   2.535  25.962  0.0075 -0.2151 -0.3902
42522W        W85538   6.789  30.332   3.358 -0.4617 -0.2969 -0.2651
42523W        W85539  13.538   0.695  22.229  0.0450  0.0737  0.1686
42524W        W85540  25.723  34.291  21.045  0.0295 -0.3807 -0.1166
42525W        W85541  23.144  13.352  22.769 -0.0316  0.1101 -0.1143
42526W        W85542   1.875   3.825   9.930 -0.2814  0.2372  0.1266
42527W        W85543  21.414   8.504   8.576 -0.1306  0.1713 -0.2711
42528W        W85544  28.374  19.977  22.001  0.1472  0.1003 -0.0052
42529W        W85545  31.913   9.701  10.196  0.1184 -0.3525 -0.0428
42530W        W85546   7.460  18.795  26.050 -0.0945 -0.1700  0.4234
42531W        W85547  28.709  18.558   8.607  0.1470  0.2591  0.0005
42532W        W85548   5.289  23.361   9.214 -0.1762  0.1019  0.1682
42533W        W85549  24.813   8.958  29.028  0.0561 -0.0607  0.2086
42534W        W85550  16.314  13.821  25.356 -0.0238 -0.0562 -0.5497
42535W        W85551  25.107  15.840   7.302 -0.2483 -0.0611  0.0055
42536W        W85552  19.841  17.053   4.360 -0.5202  0.0422  0.2216
42537W        W85553  31.033  19.819   5.770  0.0460  0.0328 -0.2499
42538W        W85554   7.365  11.624   0.114  0.2001 -0.1676  0.2612
42539W        W85555  29.478   2.616  14.649 -0.1723 -0.5489  0.2301
42540W        W85556  26.048  27.302  25.825 -0.0070  0.0416 -0.1894
42541W        W85557  21.545   3.629  19.696  0.2308 -0.0146  0.0608
42542W        W85558  20.688  22.565  21.722  0.0711  0.1552 -0.1968
42543W        W85559  25.355   8.089  16.417  0.2146  0.0750  0.2213
42544W        W85560  24.353   8.546  22.963  0.3348 -0.1783  0.0362
42545W        W85561  21.695  30.087  22.014 -0.1818  0.0554  0.0025
42546W        W85562  23.726  32.666  21.747  0.2136  0.0659 -0.1530
42547W        W85563  23.700  14.361   8.371 -0.1450  0.0078  0.1771
42548W        W85564  27.687  32.675  11.027  0.2836  0.2995  0.0611
42549W        W85565   0.899   9.946   4.961  0.0244 -0.0615  0.0752
42550W        W85566   1.235  13.637  25.730 -0.0581 -0.0049  0.0457
42551W        W85567  29.390  19.642  21.274 -0.0569 -0.4410 -0.1067
42552W        W85568  34.192  10.180  26.897  0.3243 -0.1131  0.0787
42553W        W85569  27.686  14.224  23.267 -0.2249  0.0630 -0.0084
42554W        W85570  26.356   2.900   6.807  0.4171 -0.1229 -0.0819
42555W        W85571   0.524  17.164  24.070 -0.1682  0.1044  0.0555
42556W        W85572  34.128  31.317  27.846 -0.3285  0.2724 -0.1379
42557W        W85573  25.858  14.273   5.239  0.0542 -0.0916  0.2836
42558W        W85574  26.450  12.249   0.176 -0.2458 -0.2132 -0.2278
42559W        W85575  14.216  31.138   7.791  0.0040 -0.0649 -0.2692
42560W        W85576  24.258  13.302   3.534  0.0909 -0.1136 -0.1292
42561W        W85577  26.243   8.863  26.057  0.1133  0.0739 -0.2584
42562W        W85578   0.346  14.111   9.463 -0.0547 -0.1473 -0.0377
42563W        W85579  27.392   4.911  20.449  0.1487  0.0978 -0.0767
42564W        W85580   3.653   6.954   4.060 -0.4268 -0.0037  0.1633
42565W        W85581  23.553   8.283   0.111 -0.2624  0.1537  0.1463
42566W        W85582   3.712  27.967  26.729 -0.0764 -0.1352  0.2929
42567W        W85583   3.303  34.434  21.092  0.0404 -0.1229 -0.0783
42568W        W85584  23.530  14.673   2.740  0.0133 -0.2056 -0.3556
42569W        W85585  17.244  12.062   0.798 -0.3975  0.1913  0.0744
42570W        W85586   6.779  15.148  25.686  0.0851  0.1767 -0.4449
42571W        W85587   1.111  17.547  23.821 -0.2051 -0.0635  0.0440
42572W        W85588   1.132  14.737   7.850  0.3188 -0.0139 -0.1726
42573W        W85589   4.961  12.663  17.971  0.0368  0.0404 -0.1164
42574W        W85590  34.388  31.160  28.246  0.1703 -0.0622 -0.0743
42575W        W85591  16.867  11.264   6.492 -0.0109 -0.0955 -0.0451
42576W        W85592   0.951  23.800   5.527  0.0231 -0.1801  0.0063
42577W        W85593  31.068  13.298  22.984  0.2578 -0.2280 -0.1850
42578W        W85594  28.661   8.110   0.239 -0.0933 -0.0570  0.0940
42579W        W85595  22.900  13.894   3.489  0.3236 -0.1369 -0.2710
42580W        W85596  10.460   4.162   9.923 -0.0828  0.0431  0.2335
42581W        W85597  34.104   7.610   7.991 -0.0215  0.0255 -0.5486
42582W        W85598  15.411   3.933  20.795  0.1279 -0.2633 -0.2339
42583W        W85599   1.539  24.263   6.156  0.2008 -0.3169 -0.2743
42584W        W85600   0.462  18.198  15.503 -0.2864  0.1554 -0.0466
42585W        W85601  23.945   9.139  26.254 -0.0741  0.0245  0.3337
42586W        W85602  25.551  10.747   7.305  0.1042 -0.3817 -0.2454
42587W        W85603  32.545  20.642  15.813 -0.2317  0.0427  0.0288
42588W        W85604  26.426   6.706   2.785 -0.2041 -0.1539 -0.3838
42589W        W85605  31.801  12.321   9.562  0.2581  0.0509 -0.0888
42590W        W85606  28.881  20.823   9.824 -0.0084 -0.0004  0.0740
42591W        W85607  22.831  13.259  28.643 -0.1077 -0.0248 -0.0812
42592W        W85608  11.171  10.777   3.882  0.3001 -0.0486 -0.0501
42593W        W85609  21.303  12.500  17.857  0.0351 -0.2185  0.6184
42594W        W85610   4.560  15.157  27.379 -0.2497 -0.0898 -0.0504
42595W        W85611  29.717   2.702  24.516  0.1842 -0.0152 -0.2336
42596W        W85612   7.870   1.599   5.675  0.3174  0.1023 -0.1033
42597W        W85613  18.834  26.753  22.290  0.3760 -0.2621  0.3498
42598W        W85614  32.409   6.240   8.166  0.1444 -0.0755  0.2576
42599W        W85615  29.617   7.124  22.642  0.0987 -0.2619 -0.1187
42600W        W85616  25.322  34.266   6.140 -0.4123 -0.1409  0.0753
42601W        W85617  20.825   0.332   1.948  0.2502 -0.3976 -0.1971
42602W        W85618  14.912  15.570  23.561 -0.0196  0.0068 -0.0748
42603W        W85619  16.238   8.238  24.196 -0.2404 -0.1891 -0.0850
42604W        W85620  32.952   2.327  26.273  0.0008 -0.0368  0.2828
42605W        W85621  18.044   4.821  24.069  0.1961  0.1145  0.3076
42606W        W85622  31.612  10.733  28.233  0.1769 -0.1335  0.2807
42607W        W85623   9.163   0.873  10.244  0.0997 -0.0400 -0.1694
42608W        W85624   6.594  13.483  22.546 -0.0805  0.1644 -0.1918
42609W        W85625  11.867  11.835  28.705 -0.2125 -0.1278 -0.0856
42610W        W85626  20.817   0.756  28.548  0.1876  0.2586  0.3614
42611W        W85627  26.703   5.453   4.890  0.3595 -0.2207  0.1257
42612W        W85628  34.161   6.069  17.236  0.0469 -0.3817  0.4526
42613W        W85629  11.858  19.681   2.791  0.1363  0.4109 -0.2189
42614W        W85630   1.595  13.404  22.281 -0.0272  0.0620  0.3800
42615W        W85631  17.055  11.429  16.230 -0.4561 -0.0983  0.1194
42616W        W85632  11.064  19.478  22.388 -0.1869  0.3496  0.3799
42617W        W85633   6.965   3.232  22.146  0.1940 -0.1768 -0.0494
42618W        W85634  32.874   6.887   2.013  0.2235 -0.1530 -0.4378
42619W        W85635   8.653  27.175   2.870 -0.0249  0.3373  0.1070
42620W        W85636   6.212  14.887   8.062  0.0563 -0.0771 -0.1607
42621W        W85637   3.257   3.661  20.086  0.1899 -0.0438  0.0233
42622W        W85638   9.507  28.055   0.552  0.0784  0.0921  0.1717
42623W        W85639  21.267  10.823  28.549  0.0713  0.0104  0.0844
42624W        W85640  30.996  15.684  23.571  0.0919 -0.2355  0.2218
42625W        W85641  34.569  33.532  25.499  0.1639 -0.1620  0.0014
42626W        W85642   3.846   1.568  27.457 -0.1578 -0.2519  0.2985
42627W        W85643   2.616  15.061   3.752 -0.1026  0.1746  0.2871
42628W        W85644  24.123   5.239   1.845 -0.0194 -0.0097  0.0113
42629W        W85645  11.666   3.740  18.144 -0.0207  0.0425 -0.6071
42630W        W85646  34.678  31.977  16.357 -0.3743  0.0418 -0.3135
42631W        W85647  31.347  13.519   4.059  0.1882 -0.3034 -0.0603
42632W        W85648  24.274   3.428  28.786 -0.0293  0.1145 -0.2051
42633W        W85649  29.942  20.997  20.911  0.2645 -0.3538  0.1773
42634W        W85650  32.927  24.395   2.431  0.0650  0.0784  0.0181
42635W        W85651  31.439  34.203  11.213 -0.0061 -0.0800  0.2078
42636W        W85652  18.116  34.496  23.708 -0.0012  0.1171  0.1406
42637W        W85653  20.583  14.350  20.802 -0.0136  0.1735 -0.0198
42638W        W85654  22.231  14.803  25.029  0.0642  0.1688  0.2036
42639W        W85655  28.914  18.550  16.279  0.0512 -0.0963 -0.0477
42640W        W85656   6.148  11.443  26.205  0.1728  0.0881 -0.2778
42641W        W85657   0.739  10.602   4.447  0.0688  0.1209  0.0694
42642W        W85658  27.066  26.558  27.883 -0.2235  0.0164  0.3478
42643W        W85659   2.551  10.785   8.639 -0.0602  0.0643  0.1099
42644W        W85660   7.890  23.081   8.704  0.1394 -0.0472  0.3435
42645W        W85661  31.653  29.892  10.595  0.1113  0.0831  0.0148
42646W        W85662  31.908   2.324  29.275  0.2977 -0.1086  0.0278
42647W        W85663   0.418  17.978  18.310  0.1420  0.1082 -0.0750
42648W        W85664  14.604  16.243   5.387  0.0587  0.0328  0.0341
42649W        W85665  21.090   0.179  21.474 -0.1866  0.4577  0.2322
42650W        W85666  25.446  22.058   0.596 -0.1160  0.2770 -0.0672
42651W        W85667  32.094  13.833   7.953 -0.0652 -0.1742 -0.1512
42652W        W85668  25.339   3.908   3.741  0.0795  0.0075  0.2295
42653W        W85669   5.773   8.532  29.110  0.1146  0.0290 -0.1421
42654W        W85670   6.692  25.422   2.807  0.0812  0.0862 -0.0158
42655W        W85671  32.702  18.303   2.967  0.1972  0.0329 -0.1198
42656W        W85672  19.419   5.467   2.266  0.4038  0.3559  0.0052
42657W        W85673  26.821   3.832  18.890 -0.2557  0.1134  0.4054
42658W        W85674  30.268   6.310   9.990  0.1463  0.2346  0.0725
42659W        W85675   4.158   8.211  21.907 -0.0944 -0.0008 -0.0521
42660W        W85676  20.731  30.114  22.173 -0.1219 -0.1540 -0.1925
42661W        W85677  30.009   4.382  19.257 -0.1028 -0.2827  0.0067
42662W        W85678  34.347  15.099  10.660 -0.3893  0.0821 -0.0842
42663W        W85679  10.617  16.739  27.769  0.0476 -0.2936 -0.3263
42664W        W85680  30.932  15.933  24.060 -0.0114  0.0717 -0.2324
42665W        W85681  31.033  33.662   9.898  0.1944 -0.3234  0.1773
42666W        W85682   7.816  25.654   5.664 -0.1014  0.0214 -0.2110
42667W        W85683   4.362  10.420  23.291 -0.4084  0.0163  0.4773
42668W        W85684  25.040   4.827  10.865 -0.0485  0.1425 -0.0937
42669W        W85685  32.647   7.886   5.179 -0.3269  0.0390 -0.0003
42670W        W85686  25.048  29.211  29.068  0.0747  0.1055  0.0563
42671W        W85687  22.480  33.008  18.840  0.1716  0.2080  0.1922
42672W        W85688  22.538  33.333  21.256  0.1892 -0.1040  0.2641
42673W        W85689  19.700  14.748  23.583  0.3977 -0.2685 -0.0866
42674W        W85690  31.305  21.562   8.291  0.1319  0.0127 -0.1134
42675W        W85691   4.634   2.801  23.685 -0.0300 -0.0659 -0.2990
42676W        W85692   0.052  34.586   1.461 -0.0498 -0.0473 -0.0051
42677W        W85693  27.281  28.383  22.886 -0.2060 -0.1642  0.2506
42678W        W85694  26.600  17.427  28.996  0.0438 -0.0124 -0.2594
42679W        W85695   0.207   3.285   8.654 -0.2717  0.0776 -0.1332
42680W        W85696   5.456  15.413  25.520  0.2116 -0.0141 -0.0795
42681W        W85697   1.038   2.691   3.640  0.3486  0.1418  0.1489
42682W        W85698   9.514  22.323   5.231  0.4314 -0.1212  0.1792
42683W        W85699  25.326   7.467  24.823  0.3940 -0.0910  0.0204
42684W        W85700  27.337  33.620  25.235 -0.2664  0.1600  0.1316
42685W        W85701  26.578  26.740  25.492 -0.1066 -0.1211  0.2564
42686W        W85702  11.358   8.792  27.345  0.2486 -0.2954 -0.0843
42687W        W85703  28.820  26.889  28.242 -0.1257 -0.0518 -0.3393
42688W        W85704  27.947  32.088  16.034 -0.2449 -0.0149  0.0639
42689W        W85705  28.560  23.112  29.052 -0.0133 -0.0364  0.1293
42690W        W85706   3.912   0.687  18.310 -0.0740  0.1147  0.0514
42691W        W85707   5.517   0.938  15.814  0.3046  0.0931  0.0437
42692W        W85708  34.131  12.900   5.870 -0.2246  0.1562  0.2536
42693W        W85709  17.450  12.735  23.390  0.2045 -0.0173 -0.0063
42694W        W85710   0.456   6.128   5.114  0.1683 -0.3123  0.1493
42695W        W85711   9.019  28.667  26.754  0.1619 -0.0200 -0.0725
42696W        W85712  25.722   3.188   6.415  0.3489 -0.3346  0.0314
42697W        W85713  30.803  19.081   1.639  0.2558  0.1871 -0.2555
42698W        W85714  22.107   8.486  26.046 -0.0714  0.2139  0.1317
42699W        W85715  18.627   5.324   3.231 -0.2930 -0.2061 -0.0371
42700W        W85716   6.464  14.659  25.950  0.1366 -0.1381 -0.0480
42701W        W85717   6.301   1.145   0.175 -0.2020 -0.0584 -0.1935
42702W        W85718  27.787  34.069  29.098  0.0778 -0.0954  0.2200
42703W        W85719  34.695  17.272  28.139  0.3856  0.0763 -0.0022
42704W        W85720  10.592  13.128  15.834 -0.1571  0.0453  0.2297
42705W        W85721  20.255   9.618   4.678  0.1409  0.0645  0.0512
42706W        W85722  29.136  15.180  24.329 -0.1196  0.1959  0.1217
42707W        W85723  31.452   5.171   3.400 -0.0895  0.0563 -0.1522
42708W        W85724  28.340  21.433  29.000 -0.2294  0.2615 -0.1896
42709W        W85725  28.341  11.330  28.337 -0.0929  0.0737  0.1709
42710W        W85726   8.953   9.189  28.402 -0.2139 -0.0088 -0.1510
42711W        W85727  31.548   3.609   2.970 -0.0921  0.2159 -0.2773
42712W        W85728   6.132  30.991   3.484  0.0224  0.0247  0.1044
42713W        W85729  31.447  15.795   4.962  0.1654 -0.1065  0.0156
42714W        W85730  13.982   8.941  28.992 -0.2667 -0.1270  0.0630
42715W        W85731  10.227   0.426   4.633 -0.0584  0.0024  0.0632
42716W        W85732  32.046  26.522  10.030  0.2136 -0.2552 -0.1521
42717W        W85733  29.878   5.939   3.354 -0.0252  0.0347  0.2312
42718W        W85734  18.196   2.372  22.007  0.0531  0.1117 -0.4368
42719W        W85735   3.737  17.427  22.404  0.0935  0.0814 -0.3628
42720W        W85736  15.311  33.883   6.647  0.0850  0.0964  0.3016
42721W        W85737  26.280  13.351  25.922 -0.0854  0.2301 -0.2085
42722W        W85738  17.508   8.486  15.886 -0.0051 -0.1531  0.1421
42723W        W85739   9.681   5.282   4.446 -0.1192  0.0044  0.0207
42724W        W85740  29.940   4.548  22.242  0.1711 -0.1054 -0.0896
42725W        W85741   6.240   6.844   4.638 -0.2455 -0.0563  0.2176
42726W        W85742  31.337   9.146   6.554  0.2869 -0.0792 -0.2389
42727W        W85743  22.625  20.954  21.739  0.1866 -0.2476 -0.0925
42728W        W85744   2.218  27.849  23.126  0.1551  0.3194  0.1070
42729W        W85745  23.987  13.959   9.301  0.2964 -0.1910  0.3373
42730W        W85746  28.752  28.737  11.611  0.0367  0.1407 -0.0062
42731W        W85747   1.181  10.253   5.300 -0.0182 -0.2529 -0.0595
42732W        W85748  12.389  13.049  27.908  0.1370 -0.1892  0.1157
42733W        W85749  25.005  26.002  15.100  0.0644 -0.0635 -0.2115
42734W        W85750   9.230   5.395   4.221  0.1998  0.3470  0.1459
42735W        W85751   2.294  26.298  16.681 -0.0390 -0.0490 -0.1169
42736W        W85752  31.438   3.281   5.568  0.0945 -0.1618 -0.2344
42737W        W85753  20.451  17.135  19.780  0.1391  0.0303 -0.2152
42738W        W85754  27.565  13.682   7.689 -0.2005  0.0298 -0.4411
42739W        W85755  33.716  15.180  27.566  0.0087 -0.1193 -0.2083
42740W        W85756  15.302  27.676  22.498  0.0300 -0.0756 -0.0367
42741W        W85757  17.088  13.121  28.990 -0.2364 -0.1185 -0.3071
42742W        W85758   6.121  11.215   4.766 -0.2307  0.0604  0.2936
42743W        W85759  34.699  11.199  20.515  0.1043  0.0027 -0.1992
42744W        W85760  32.027   7.038   5.640 -0.1756 -0.4126  0.1773
42745W        W85761  29.223   6.547   1.954  0.1475 -0.1429  0.3106
42746W        W85762  33.281  32.793  11.019 -0.0294  0.0515  0.1991
42747W        W85763  27.273   0.399   9.594 -0.1983 -0.0464  0.0548
42748W        W85764   3.799  13.607  18.816 -0.0092 -0.1456 -0.2809
42749W        W85765  22.811  13.117  24.268 -0.0074  0.2727 -0.1796
42750W        W85766   7.905  13.255   1.517 -0.0851 -0.3781 -0.1228
42751W        W85767  18.587   8.508   4.278  0.0242 -0.0454 -0.0127
42752W        W85768  32.652  14.548   5.778 -0.2994 -0.1405  0.0498
42753W        W85769  31.435   8.373  28.983 -0.0733 -0.0365  0.2824
42754W        W85770  11.192  19.378  23.017 -0.1520 -0.1002 -0.2357
42755W        W85771  16.729  18.305  28.654  0.1945 -0.0494  0.1608
42756W        W85772  17.802  20.384  28.264 -0.2628  0.1328 -0.3284
42757W        W85773  26.154  21.485  21.165 -0.1224  0.0970 -0.1760
42758W        W85774   4.140  30.713   8.677  0.0458  0.1653  0.1155
42759W        W85775   3.733   5.779   1.947  0.1030 -0.0830  0.4486
42760W        W85776  27.496  30.847   8.290 -0.0919 -0.2225 -0.2438
42761W        W85777  31.925  27.221  21.526 -0.3024 -0.1595 -0.2831
42762W        W85778  24.787  14.907   2.773  0.0388 -0.1129  0.4367
42763W        W85779  28.562  11.415   9.721  0.2001  0.2483 -0.0782
42764W        W85780  31.752  11.259  27.623 -0.2720 -0.1772  0.1949
42765W        W85781   1.011  10.759   5.419  0.3241  0.0375  0.1137
42766W        W85782  31.361  12.940   7.273  0.1754 -0.2475 -0.2653
42767W        W85783  19.653  12.428  22.372  0.0591  0.2502  0.0003
42768W        W85784   0.054  10.634  26.612  0.0243 -0.2236  0.0705
42769W        W85785   1.214  13.186   0.888  0.0911 -0.1103 -0.0890
42770W        W85786  29.911  16.345  26.711 -0.1666 -0.3847  0.1648
42771W        W85787  19.549  29.336   2.873  0.3697 -0.1690  0.1447
42772W        W85788  30.491   5.375  26.521  0.1589  0.1531 -0.0852
42773W        W85789  19.696   3.514   1.595  0.0926  0.1546  0.1316
42774W        W85790   8.528  11.379   8.623 -0.0155 -0.0857  0.0396
42775W        W85791   2.319  33.113   2.089 -0.3064  0.1181  0.0275
42776W        W85792  20.844  16.545  23.769 -0.1526  0.1069  0.1024
42777W        W85793   1.883   8.975  14.241  0.0987  0.0689 -0.0596
42778W        W85794   2.789  10.481   7.047 -0.1704  0.0517 -0.0188
42779W        W85795  15.167   9.842  16.462  0.0574 -0.0687  0.1545
42780W        W85796   4.188  24.339   8.877 -0.1590 -0.0954 -0.3232
42781W        W85797  26.459  18.688   4.784  0.0319 -0.2448  0.0215
42782W        W85798   4.061   3.820   7.237 -0.0287  0.0167  0.0913
42783W        W85799   6.501  33.076  22.956 -0.1646  0.0213  0.0758
42784W        W85800  30.184  12.578  20.885 -0.1433  0.0358 -0.1524
42785W        W85801   9.340   8.287  21.770  0.1015  0.2165  0.1540
42786W        W85802   3.868  18.663   4.612  0.1249  0.1285 -0.1673
42787W        W85803  31.485   8.360  14.717  0.1906 -0.1337  0.1220
42788W        W85804   4.380  13.612   8.952  0.1380 -0.3093 -0.1085
42789W        W85805   9.122  16.811   1.743 -0.0934  0.1177 -0.2334
42790W        W85806  25.827  12.576  22.097 -0.1083  0.2042  0.0532
42791W        W85807   6.464  20.812  28.213 -0.2218 -0.0502 -0.0334
42792W        W85808   8.007   3.690  18.220 -0.1709  0.1882  0.1568
42793W        W85809   3.280   9.739  26.603 -0.0991 -0.0134  0.0371
42794W        W85810   5.133  15.280   1.095  0.2112  0.1535 -0.0577
42795W        W85811   7.366   9.977  22.016  0.0978 -0.1541  0.0492
42796W        W85812  31.830  24.970   4.320  0.0496  0.2531 -0.2430
42797W        W85813  23.058  11.753  29.231 -0.3236 -0.2829 -0.2240
42798W        W85814   8.560   3.067   2.117  0.1305 -0.1896 -0.0571
42799W        W85815  31.428   1.484   4.455  0.0956  0.1043  0.0395
42800W        W85816  27.347   0.589  20.582  0.0364  0.2460  0.1639
42801W        W85817  29.765   6.204   2.644  0.1712  0.4082 -0.2266
42802W        W85818  18.569  21.451   2.044 -0.1869 -0.1986  0.1823
42803W        W85819  25.204   5.498  28.928  0.0615 -0.3646  0.3914
42804W        W85820   8.110   9.227   4.900 -0.2081 -0.1809  0.2794
42805W        W85821  20.555  26.592   1.861 -0.0819 -0.2795  0.0311
42806W        W85822  26.538  23.819  20.801  0.0451  0.2177  0.1006
42807W        W85823  21.836   4.795   6.053 -0.2263  0.1695 -0.3228
42808W        W85824  21.862   5.344   6.121 -0.0516 -0.0484 -0.2281
42809W        W85825  25.612  14.127  23.008 -0.1113 -0.0109  0.0989
42810W        W85826   3.687   0.160  26.602 -0.0330 -0.1940 -0.2267
42811W        W85827  30.219  33.620   1.486  0.1555  0.2686  0.1886
42812W        W85828   8.679   6.280  28.432 -0.0036 -0.2499 -0.4053
42813W        W85829  15.091  14.009   1.530  0.2335  0.1537  0.0536
42814W        W85830  16.699  31.983  10.065 -0.0524 -0.0303 -0.0332
42815W        W85831  18.579   5.672  16.953 -0.0277  0.1921 -0.0715
42816W        W85832  28.249  15.813   9.380 -0.2609 -0.3240  0.0893
42817W        W85833   5.550   7.446  18.668 -0.3253  0.4090  0.2321
42818W        W85834  29.515  15.504  28.893 -0.4253 -0.2108 -0.1036
42819W        W85835   7.202  15.083  27.769 -0.2640 -0.1094 -0.0582
42820W        W85836  16.502   9.112   5.144  0.3516 -0.0237  0.3048
42821W        W85837   1.219   3.765  11.391 -0.3008  0.0579  0.0840
42822W        W85838   7.766  16.975  26.039 -0.0192  0.1848 -0.3560
42823W        W85839  24.631   9.055  20.580 -0.0592  0.0045  0.2844
42824W        W85840  23.280  26.221   5.711  0.1282 -0.1338  0.0361
42825W        W85841  29.683  23.248   8.819  0.0316 -0.2691 -0.0836
42826W        W85842  33.407   2.144  23.352  0.2162 -0.1335  0.1520
42827W        W85843  24.646   9.060   8.027  0.0573  0.0107 -0.1405
42828W        W85844  18.305  15.690  28.366 -0.3135  0.2340 -0.1216
42829W        W85845   5.144  12.041   9.172 -0.3930  0.0208 -0.0026
42830W        W85846   4.257  21.243  24.651 -0.3670 -0.0494  0.1915
42831W        W85847  30.369  13.591   0.623  0.3490 -0.3366 -0.0550
42832W        W85848  20.989  18.573  26.869  0.0777 -0.0245  0.3837
42833W        W85849  22.983  28.046  19.227  0.1346  0.3424 -0.0117
42834W        W85850  20.309   9.131   6.715  0.0782 -0.0447  0.0772
42835W        W85851  22.350   0.495  15.809  0.1666 -0.5284 -0.2833
42836W        W85852   0.665   7.341   4.491  0.0560  0.2223 -0.0634
42837W        W85853   6.646  13.811  28.051 -0.1361 -0.0515 -0.2268
42838W        W85854  27.857  31.713  25.654  0.1314  0.0658  0.3271
42839W        W85855  33.370  26.005  24.708 -0.1537 -0.1622  0.0572
42840W        W85856  11.004  31.805  24.569 -0.0344  0.0163  0.2048
42841W        W85857   7.809   6.739   0.229 -0.1697 -0.0481 -0.1309
42842W        W85858  22.593  18.687   1.104  0.0809 -0.1836  0.3983
42843W        W85859  23.966   8.976   2.757  0.1074 -0.1884 -0.1582
42844W        W85860  29.035   7.277   7.470  0.0403  0.1675  0.1252
42845W        W85861  24.481  10.643  17.162 -0.0838  0.0880  0.1296
42846W        W85862  31.901  13.208  14.967  0.4712 -0.0072  0.1446
42847W        W85863  34.178  10.131   5.280  0.1255  0.1760  0.2544
42848W        W85864   5.267  11.874   1.378 -0.1037 -0.2063  0.2742
42849W        W85865  32.595  17.203  24.206  0.2669  0.0863  0.1371
42850W        W85866  30.399  15.001   8.036 -0.3922 -0.0386 -0.0259
42851W        W85867   4.271   4.678   1.475 -0.1824  0.1893 -0.2448
42852W        W85868  14.577  13.561   4.249  0.2532 -0.2060  0.1575
42853W        W85869   4.044  27.716   9.375  0.2312 -0.1802  0.0156
42854W        W85870   0.120  20.067  18.294 -0.1353  0.0381 -0.1919
42855W        W85871   4.846   1.580  29.099  0.0995  0.2233 -0.1213
42856W        W85872   8.326   7.715   7.099 -0.0035 -0.1067  0.1408
42857W        W85873  24.551   5.346  22.424 -0.1671  0.0100 -0.1182
42858W        W85874   8.713   2.226   5.968  0.0154  0.4005  0.1971
42859W        W85875   4.961   7.307   9.476 -0.1827  0.3335  0.3206
42860W        W85876  17.450   7.661  25.077  0.1022 -0.2814 -0.0596
42861W        W85877  32.554   3.463   2.025  0.0145  0.3825  0.0797
42862W        W85878  26.602  33.638  10.252  0.1422  0.0503 -0.1491
42863W        W85879  11.042  28.887  28.620  0.0062  0.0801  0.0621
42864W        W85880  31.890  33.345  27.054  0.4780 -0.1172 -0.0106
42865W        W85881  28.100  10.685  10.811  0.2765 -0.1007 -0.0908
42866W        W85882   3.929   8.762  28.283 -0.1535 -0.2509 -0.0680
42867W        W85883  34.414   0.736  27.474  0.0254  0.1059 -0.0289
42868W        W85884   2.356  15.529   7.518 -0.1064 -0.1302 -0.1686
42869W        W85885  32.705   4.542   1.957 -0.0113 -0.0182 -0.0784
42870W        W85886  22.321   9.251   5.492 -0.1897  0.2690  0.0029
42871W        W85887   0.390  26.743   0.564  0.1357  0.2887  0.0629
42872W        W85888   9.726  29.939   2.689 -0.1141  0.1341  0.2755
42873W        W85889   4.399  18.784  26.200  0.0800 -0.2660  0.0915
42874W        W85890  34.618   8.704  20.961  0.1068 -0.2027  0.1678
42875W        W85891  30.126  12.889   5.434  0.0518 -0.4191  0.1168
42876W        W85892  33.932  18.109   4.822  0.0499 -0.1186 -0.1672
42877W        W85893   6.822   1.765   2.541 -0.1988 -0.1575 -0.0985
42878W        W85894   3.806  10.242   7.575 -0.0119 -0.1359 -0.0984
42879W        W85895  26.259  14.979  22.667 -0.0507 -0.0161 -0.1575
42880W        W85896  28.493   3.682   9.564  0.2045 -0.1738 -0.0226
42881W        W85897  24.487   1.326   5.913 -0.1687  0.2286  0.1040
42882W        W85898  13.044   5.514   7.114 -0.1909  0.0958  0.0859
42883W        W85899   9.833  19.377  14.299 -0.0915 -0.0341 -0.1948
42884W        W85900   1.684  11.809  17.101 -0.1868  0.2424 -0.2310
42885W        W85901   2.307  12.675  28.854 -0.0862 -0.4870  0.2826
42886W        W85902  25.527  15.749  21.169 -0.1345 -0.2274  0.0973
42887W        W85903  22.961  12.152   6.926 -0.0330  0.0004 -0.0509
42888W        W85904  27.113  20.645   4.243  0.1804  0.0565  0.2587
42889W        W85905  28.369  31.495   7.921 -0.2836  0.2263  0.1041
42890W        W85906  22.800  26.917   9.109 -0.1428  0.0442  0.5036
42891W        W85907  33.725   2.846   8.506  0.0793 -0.4230  0.3385
42892W        W85908  23.054  17.842  27.047 -0.6359  0.1067  0.0660
42893W        W85909   1.200  11.949   4.898  0.2483  0.0959  0.0270
42894W        W85910  25.894  16.350   9.309 -0.1398  0.1788 -0.2385
42895W        W85911  18.114   3.918   8.539  0.3667 -0.0291 -0.1039
42896W        W85912  11.232   8.102   6.251  0.1260  0.1201 -0.1094
42897W        W85913   0.112   5.831   6.444 -0.1558 -0.0692  0.6232
42898W        W85914   4.404  15.491  16.426 -0.0169  0.0194 -0.0647
42899W        W85915   3.857  23.365  18.973 -0.0868  0.1802 -0.1846
42900W        W85916   5.118   2.877  18.493  0.1268 -0.2483  0.1762
42901W        W85917  13.509  22.777   9.279  0.1665 -0.2237  0.2796
42902W        W85918  33.775  11.763  15.729  0.0499  0.1822 -0.2432
42903W        W85919  30.748   3.261   9.866  0.1338  0.0041  0.0310
42904W        W85920  20.310  16.082  13.649 -0.0147 -0.0936  0.0966
42905W        W85921  31.516  20.780   5.691  0.0703 -0.1081  0.1272
42906W        W85922   3.940  17.997   4.613 -0.1983 -0.0221  0.2714
42907W        W85923   3.387   7.456  27.701 -0.1827 -0.0246  0.0397
42908W        W85924  14.862  23.680  22.605 -0.1078 -0.0620  0.0194
42909W        W85925   5.781  18.450  28.832 -0.3007 -0.0742  0.4607
42910W        W85926  17.369   2.439   8.017 -0.0859  0.1713  0.3495
42911W        W85927  31.977   7.236  25.171 -0.0922  0.0935 -0.0567
42912W        W85928  32.005   3.084   0.180  0.1170 -0.5179 -0.0980
42913W        W85929  23.661   6.266  22.084  0.0867 -0.2041 -0.1736
42914W        W85930   3.340   7.593  25.589  0.1415 -0.1133  0.0304
42915W        W85931  24.752  23.071   0.939  0.0163 -0.0189  0.1478
42916W        W85932  32.565  15.589   0.508  0.2575 -0.3025 -0.2116
42917W        W85933  28.380   8.741   1.731  0.1941 -0.0337 -0.3223
42918W        W85934  33.665  21.942  22.511  0.2071 -0.0251 -0.2033
42919W        W85935  18.383  18.033  21.596 -0.3477  0.1087  0.0764
42920W        W85936  20.036  15.163   8.688 -0.0455  0.0656  0.4097
42921W        W85937  18.745  15.154   3.605  0.0936  0.3600 -0.0566
42922W        W85938  12.584  27.845   4.395  0.0386  0.0199 -0.0692
42923W        W85939  31.493   7.648   4.363 -0.0267  0.2345  0.1772
42924W        W85940  30.562  19.197   8.176 -0.2697  0.0063 -0.1360
42925W        W85941  30.421   5.911   4.247 -0.1558 -0.1770  0.0952
42926W        W85942  24.503   5.499   6.487 -0.0903 -0.2916 -0.1301
42927W        W85943   5.800   4.345  19.433 -0.2504 -0.0087  0.1154
42928W        W85944  34.018  18.063   9.110  0.1688 -0.2533 -0.1190
42929W        W85945  12.343  10.766  24.635 -0.0955 -0.1274 -0.2242
42930W        W85946  34.358   1.072   3.208  0.3833 -0.0670  0.1145
42931W        W85947   7.660  14.641   9.158  0.1826  0.0783 -0.4240
42932W        W85948  30.574  13.026   4.239  0.2196 -0.2360 -0.4136
42933W        W85949  25.639  10.175   4.986  0.2684  0.1996 -0.2116
42934W        W85950  19.707  15.036   1.438  0.0519  0.2072  0.1241
42935W        W85951   4.132  25.678   0.716 -0.1608 -0.0311  0.1957
42936W        W85952  11.508   7.465   7.962 -0.2258  0.0027  0.1685
42937W        W85953   6.169  19.368  22.714  0.2004  0.1420  0.0684
42938W        W85954   2.502  14.409   8.648 -0.1008  0.0589 -0.2546
42939W        W85955  31.871   9.953   5.840 -0.0559  0.3214  0.2573
42940W        W85956  31.988  15.521   7.130  0.3075  0.0557  0.1596
42941W        W85957  31.207  16.506   4.165 -0.1891  0.0182 -0.1349
42942W        W85958   2.823  18.777   4.716 -0.0454 -0.0923 -0.1144
42943W        W85959  25.551  14.744   7.386  0.1098  0.1649 -0.1439
42944W        W85960  24.202   7.668  26.995 -0.0393  0.2008 -0.0875
42945W        W85961  32.762  13.622  25.464 -0.2050  0.1948  0.0756
42946W        W85962  16.948   7.568   5.976  0.1827  0.0364  0.4333
42947W        W85963  28.452   6.114  28.494 -0.0408  0.2301  0.0084
42948W        W85964  25.973  31.990  28.703  0.1272 -0.0319  0.2947
42949W        W85965  32.686  13.172   4.070  0.1084 -0.4486 -0.0294
42950W        W85966   5.803  33.960  27.616 -0.0165  0.0372  0.1400
42951W        W85967   4.627  16.807   8.702  0.1309 -0.2526 -0.1674
42952W        W85968  12.393  12.230   2.586 -0.2982 -0.0723  0.4608
42953W        W85969  18.679  10.705   1.059 -0.1154 -0.0938  0.3034
42954W        W85970  27.526  12.738  24.401 -0.1630  0.4051  0.0505
42955W        W85971  11.390  27.528  29.146 -0.1746 -0.0651 -0.1354
42956W        W85972   0.628  30.540  27.062 -0.2620  0.4733 -0.3701
42957W        W85973   5.897  18.459  20.083  0.1085  0.1631 -0.2372
42958W        W85974  22.057   2.775  21.042 -0.3982  0.1156  0.1357
42959W        W85975  26.590  20.209   1.865 -0.1311  0.0423 -0.2349
42960W        W85976  27.185  12.348   1.284  0.2654 -0.3168 -0.0288
42961W        W85977  17.770   2.476   1.081 -0.3849  0.3031  0.1538
42962W        W85978  23.248  18.708  28.674  0.0844 -0.0130  0.0232
42963W        W85979  30.851  10.153  25.875 -0.0742  0.1714  0.0657
42964W        W85980   6.116  30.562   7.114  0.4031  0.2486  0.1275
42965W        W85981   9.555   2.557   1.871 -0.0340 -0.4772 -0.2413
42966W        W85982  30.113   7.559  11.225 -0.0669  0.1034  0.1571
42967W        W85983  26.648  10.864  28.648  0.0596 -0.1730 -0.2336
42968W        W85984  33.139   7.805   3.906 -0.0651  0.1316  0.1446
42969W        W85985  10.094  18.447  25.294 -0.2045 -0.0765 -0.1286
42970W        W85986  11.586   4.069   3.622  0.1484 -0.2510 -0.3411
42971W        W85987  18.633  18.053  25.337 -0.1681  0.0081 -0.2263
42972W        W85988  29.243  10.892   1.949  0.2206 -0.1551 -0.3738
42973W        W85989  32.438   7.838   6.884 -0.0820  0.1464  0.1055
42974W        W85990  21.423   4.681   5.785  0.2909  0.2772  0.1988
42975W        W85991  27.883  18.744  21.785 -0.1248 -0.2707 -0.1476
42976W        W85992   2.139  29.698  15.865  0.2387 -0.0641 -0.1140
42977W        W85993   4.030  14.383  26.203 -0.0168  0.2004  0.3215
42978W        W85994  32.427  11.965   5.687 -0.1207  0.1174  0.0705
42979W        W85995  24.680  12.262  21.140  0.1351  0.1586  0.0704
42980W        W85996  28.431  12.531   3.132 -0.0791 -0.0229  0.1091
42981W        W85997  17.885   8.833   0.180  0.0399  0.3035  0.3630
42982W        W85998  23.943  34.578   3.544  0.1375  0.1086  0.0062
42983W        W85999   1.261  20.398   9.675  0.0927  0.0037 -0.1332
42984W        W86000  22.093  31.536  19.081  0.0022  0.0672 -0.0769
42985W        W86001  27.040   7.040   4.728 -0.1563 -0.0290  0.2348
42986W        W86002   6.453   4.107  20.317  0.1160 -0.0078  0.0424
42987W        W86003  29.529   9.564   6.859  0.0119  0.1150  0.0401
42988W        W86004   3.808  19.158   8.478 -0.1465 -0.0240  0.0199
42989W        W86005  24.062  21.813  21.671  0.0393  0.2812 -0.2093
42990W        W86006   6.337  12.189  22.642 -0.0738  0.1041  0.2422
42991W        W86007  31.953  19.160   6.428  0.1730 -0.0095 -0.1780
42992W        W86008  31.371  24.346   3.926 -0.1189 -0.2389  0.0040
42993W        W86009  26.176  16.148   7.488 -0.1281 -0.0972 -0.3640
42994W        W86010  33.951  11.250  27.280 -0.1001  0.0810 -0.0741
42995W        W86011  14.706   3.288  21.487  0.0936  0.2112  0.0183
42996W        W86012   8.754   0.129   2.105  0.2626 -0.1085  0.0880
42997W        W86013  13.126   9.796   6.670 -0.0261  0.0710  0.0347
42998W        W86014  24.170  17.686  15.028  0.0576  0.0034 -0.0711
42999W        W86015  17.811   6.664   4.975 -0.0258  0.2048  0.4224
43000W        W86016  34.472  31.488  24.940  0.5229  0.2613  0.0365
43001W        W86017  26.634  11.577   3.382  0.0667  0.1275 -0.1843
43002W        W86018  33.388  14.096   5.105 -0.1697  0.0805  0.1238
43003W        W86019   1.815   9.277  14.684 -0.2280 -0.0100 -0.2208
43004W        W86020  33.820  14.113   5.491 -0.0939 -0.2158 -0.0665
43005W        W86021  29.870  20.031   5.793  0.0032 -0.0117 -0.2646
43006W        W86022   4.780   6.871  14.921 -0.1758 -0.1152 -0.2392
43007W        W86023   9.972  19.848   8.209 -0.1611  0.0177 -0.1155
43008W        W86024  24.511  27.272   8.146 -0.0170 -0.0083  0.1042
43009W        W86025   3.213   2.041  24.644  0.0661 -0.4331 -0.1466
43010W        W86026  34.714  21.535   4.683  0.2577 -0.0743  0.3704
43011W        W86027  28.488  17.481  25.336  0.1823  0.0040 -0.0866
43012W        W86028   0.220  34.148  25.213 -0.1283  0.0277 -0.1591
43013W        W86029   0.645  32.190   2.214 -0.0992  0.1498 -0.1564
43014W        W86030  24.018   1.991  25.256  0.2920  0.3128 -0.0834
43015W        W86031  32.019   5.166  28.230  0.0689  0.2489 -0.0206
43016W        W86032  12.303   2.723   4.996  0.3224 -0.0072 -0.1448
43017W        W86033  11.067  17.436  24.898  0.0401  0.0153  0.2840
43018W        W86034  27.476  18.723  21.164 -0.0967 -0.3352  0.0254
43019W        W86035  25.309  30.661  28.461  0.2176 -0.0165  0.0937
43020W        W86036  25.569   6.952   9.554 -0.0259  0.0695 -0.0815
43021W        W86037  26.050   7.437  18.957  0.0439 -0.0647 -0.0375
43022W        W86038   9.622   4.246  10.088 -0.1276 -0.0291 -0.2237
43023W        W86039   9.501   2.021  29.053 -0.7367 -0.1247  0.2491
43024W        W86040   0.018  28.945   9.497 -0.1520  0.2750 -0.0917
43025W        W86041  20.237   7.627   2.477 -0.2475  0.0307 -0.1792
43026W        W86042   8.474  22.370  23.327  0.0362  0.1219 -0.1962
43027W        W86043   6.190   4.344  10.193 -0.0814 -0.4579 -0.0263
43028W        W86044  28.299  14.126   7.857  0.1993  0.0146 -0.3069
43029W        W86045  21.891   7.908  25.571  0.0193  0.0828 -0.0906
43030W        W86046   2.313  14.420   6.477 -0.1094  0.0759 -0.3414
43031W        W86047  25.763   0.149   8.337 -0.0487  0.2926  0.0261
43032W        W86048  29.618   9.728  26.640  0.0194 -0.1146  0.0019
43033W        W86049   0.841  12.601   8.185  0.0480  0.1052  0.2531
43034W        W86050  32.141  14.234   8.726  0.0381 -0.0832 -0.0757
43035W        W86051  27.144  30.925   9.585  0.0390 -0.0150 -0.0697
43036W        W86052  17.623   8.634   9.429  0.4891  0.1104  0.1084
43037W        W86053  22.659  16.576  23.559  0.2011  0.0050 -0.1231
43038W        W86054  20.556   4.314   3.880  0.1093  0.0240  0.4217
43039W        W86055   4.260  28.557   9.392  0.0225  0.3179 -0.1595
43040W        W86056  32.509   3.774   3.693  0.1307 -0.1837  0.2429
43041W        W86057  27.545  30.569   2.296 -0.1471 -0.0603  0.0503
43042W        W86058   2.943   9.396   1.689 -0.1818  0.1519  0.0315
43043W        W86059  23.311  20.383   0.434 -0.1288  0.3817 -0.1934
43044W        W86060   4.866  11.920   0.017  0.2960 -0.0138  0.0935
43045W        W86061  15.615   9.638   6.736 -0.2998  0.2190  0.5095
43046W        W86062  16.415  26.026   4.521 -0.1216 -0.1090 -0.3500
43047W        W86063  23.269  13.124  26.187 -0.1380  0.0052 -0.0081
43048W        W86064  29.386  17.811   9.498  0.1645 -0.0261  0.0881
43049W        W86065  14.347  30.177   2.974 -0.1863 -0.1553  0.2151
43050W        W86066  30.592  12.450  27.162  0.3858  0.0706  0.0192
43051W        W86067   1.912  27.163   7.313  0.0625  0.1478 -0.2766
43052W        W86068  11.152  12.796   9.088  0.0831  0.0484 -0.3810
43053W        W86069  32.013  10.981   7.519  0.1900  0.0164  0.2174
43054W        W86070  32.470  11.278   1.134 -0.2601 -0.0544  0.1335
43055W        W86071  27.514  25.995  19.236 -0.0112 -0.2855 -0.2114
43056W        W86072  34.235  26.773  26.700  0.0719  0.1191 -0.3471
43057W        W86073  21.646  12.003   5.859 -0.2384  0.0464  0.0415
43058W        W86074  31.097  21.174   0.442  0.3076  0.1736 -0.0172
43059W        W86075  27.504  16.642   8.051  0.1193  0.0775 -0.0842
43060W        W86076  22.023  18.140   7.341 -0.1845 -0.0371  0.1624
43061W        W86077  34.055  11.984   3.368 -0.0900 -0.4150 -0.2690
43062W        W86078  18.284  12.230  23.334 -0.1532  0.0322  0.2254
43063W        W86079  27.615  32.084   1.077  0.0152  0.0778 -0.0719
43064W        W86080   3.764  10.342   7.102  0.1239 -0.0330  0.0292
43065W        W86081  28.301  24.938   9.256  0.2296  0.3740 -0.3420
43066W        W86082   1.926  25.744  25.996  0.0187  0.4000  0.1310
43067W        W86083   2.968   0.211  26.036  0.1787  0.0986  0.1968
43068W        W86084  21.141  31.079  26.546  0.4168  0.0170  0.2256
43069W        W86085  27.069  27.794   3.201  0.1365  0.0697 -0.1388
43070W        W86086   8.711   0.138   8.148  0.1160  0.4325  0.0252
43071W        W86087   6.107  11.871  25.968  0.2758 -0.2128  0.0902
43072W        W86088  33.922   8.870  16.754 -0.1654  0.2761  0.2134
43073W        W86089  34.682  16.306  25.687 -0.1148  0.2012  0.1563
43074W        W86090  12.175   8.148   1.012 -0.1896  0.2234 -0.2684
43075W        W86091   0.946  16.941  20.206  0.0262  0.1401  0.0799
43076W        W86092   5.731  12.962   9.244 -0.0641  0.0395  0.2607
43077W        W86093  18.258   5.508   6.786  0.1526 -0.2427 -0.2281
43078W        W86094  25.399  10.188  19.876 -0.0844  0.0133 -0.3389
43079W        W86095   1.362  21.276   2.794 -0.0592 -0.1103 -0.1649
43080W        W86096  18.177   6.068   6.661  0.1220  0.1816  0.0098
43081W        W86097  28.344  31.740   6.113 -0.3248 -0.0569  0.0045
43082W        W86098  25.244   6.356   0.313 -0.4147  0.1512  0.1693
43083W        W86099  28.220  19.608   7.733 -0.2417 -0.2106  0.5382
43084W        W86100  32.193   2.451   8.272 -0.1642  0.0319 -0.0229
43085W        W86101  29.010  13.521   7.428 -0.0854 -0.4227 -0.1667
43086W        W86102   8.696  16.958   0.182 -0.1451 -0.0409 -0.1803
43087W        W86103  22.351  11.790   6.453  0.0160 -0.1517  0.1465
43088W        W86104  21.091  27.521  17.784 -0.1386  0.4197 -0.2119
43089W        W86105  27.135   2.435   1.874  0.0614 -0.2093  0.0970
43090W        W86106  14.005  12.241   1.942 -0.2465  0.1688 -0.0279
43091W        W86107   1.019   9.822  28.765 -0.0474  0.5898  0.0075
43092W        W86108   4.478   2.535  10.248  0.1136 -0.1956 -0.3269
43093W        W86109   5.177   9.692  23.170 -0.0363 -0.0285  0.0385
43094W        W86110   4.784  20.382  27.044 -0.2186  0.0628 -0.0410
43095W        W86111   2.321   4.946   8.151 -0.2597 -0.1378 -0.1177
43096W        W86112  31.764  22.276   3.589  0.2333  0.0806  0.2113
43097W        W86113  33.691  34.261   7.784  0.1343  0.1853  0.5251
43098W        W86114  33.727  11.836   1.356 -0.1571  0.3771  0.2820
43099W        W86115  14.189   2.434   8.371 -0.0310 -0.0182 -0.2415
43100W        W86116  17.445  30.526  26.894 -0.0677 -0.0308  0.0214
43101W        W86117  30.907  11.810   1.838 -0.0329 -0.3313  0.0704
43102W        W86118  15.361  29.113   5.622 -0.2818 -0.1693 -0.0793
43103W        W86119  10.491   4.957   8.734  0.0899 -0.0596 -0.2509
43104W        W86120  33.220  15.339   4.480  0.0472 -0.1872  0.1395
43105W        W86121  30.220  15.911  25.032  0.0467  0.0437  0.1320
43106W        W86122   3.154  14.366  23.042  0.2772 -0.0207 -0.1542
43107W        W86123   0.446  10.220   5.936 -0.0394  0.1929 -0.0433
43108W        W86124  29.069  16.460   1.734  0.1003  0.2758  0.0347
43109W        W86125  23.120  16.411   1.741  0.1231 -0.0114 -0.1056
43110W        W86126  13.804  34.504   3.603  0.0962 -0.2541 -0.1643
43111W        W86127  23.441  11.785   0.650  0.1724  0.2562  0.1532
43112W        W86128  20.754  15.323  20.485 -0.1504 -0.3065  0.0967
43113W        W86129  19.306   1.821   3.694 -0.1340  0.0345  0.1904
43114W        W86130  33.392  12.101   1.692 -0.2636  0.0228 -0.2561
43115W        W86131  23.720  10.609  28.535  0.2794 -0.2996 -0.2372
43116W        W86132  21.167  20.867   1.638  0.2325  0.0437 -0.0548
43117W        W86133   0.033   0.137   5.387 -0.0458 -0.1896  0.3508
43118W        W86134  12.207  10.758   8.135  0.2619 -0.3160 -0.1706
43119W        W86135  20.013  29.153   0.866  0.0382  0.1165 -0.2322
43120W        W86136  32.661  22.075  24.572  0.0804 -0.0442 -0.1051
43121W        W86137  27.404   4.503  29.316  0.0041 -0.0535  0.2766
43122W        W86138  21.159  23.722   8.494 -0.4664  0.4188 -0.0094
43123W        W86139  22.712  26.771  27.101 -0.2601  0.0917 -0.0871
43124W        W86140  22.084  15.744  12.935 -0.0104  0.0035 -0.0359
43125W        W86141  34.059  14.092  10.320  0.0992 -0.2592  0.1192
43126W        W86142  26.575  10.052  25.105 -0.1426 -0.0406  0.0726
43127W        W86143   9.942  18.357  26.132 -0.0116 -0.3669  0.0112
43128W        W86144  34.511   4.636  22.491 -0.2467 -0.2105  0.2465
43129W        W86145  28.445   9.688   4.624 -0.1106 -0.1948  0.1469
43130W        W86146  16.981  32.230  16.937  0.1305  0.1137  0.1863
43131W        W86147   3.457  22.809   8.881 -0.1558  0.3867 -0.2323
43132W        W86148  24.677  20.726  29.199 -0.1490 -0.0443  0.1098
43133W        W86149  15.179   0.624   9.320 -0.0777  0.2147  0.3121
43134W        W86150  26.554   3.424  24.320  0.1298  0.2344  0.1803
43135W        W86151   2.210  15.157  10.224  0.1690 -0.1199 -0.2397
43136W        W86152   3.327  13.045   2.512 -0.1610 -0.0075 -0.0844
43137W        W86153   9.550  11.189   3.245 -0.1716 -0.0356 -0.0961
43138W        W86154   0.314  21.054   9.596  0.0606  0.0707 -0.4406
43139W        W86155  32.956   7.473   9.653 -0.1603 -0.0074  0.1080
43140W        W86156   4.607  24.076  23.131  0.1936 -0.0385  0.0559
43141W        W86157  17.748  14.850  24.722  0.1113 -0.2222  0.1186
43142W        W86158  23.624  20.133  21.161  0.1602  0.0117 -0.0120
43143W        W86159  30.257   1.484  28.567  0.0288  0.2476 -0.2441
43144W        W86160  29.446   4.609   9.974  0.1638 -0.0718  0.1603
43145W        W86161   0.977   6.099  28.201  0.0826  0.2384  0.0098
43146W        W86162  31.940  18.495   3.601  0.3371  0.2995  0.0867
43147W        W86163  16.607  13.184   0.721  0.2150 -0.0876 -0.3551
43148W        W86164  14.133  22.470  27.415  0.0774 -0.0580  0.1531
43149W        W86165  20.411  12.602  16.167 -0.0876 -0.1853 -0.4045
43150W        W86166  23.189   3.649  26.355 -0.1021  0.2128  0.2280
43151W        W86167  26.209  32.029   3.940  0.2110  0.2202  0.0775
43152W        W86168  17.761   0.359  16.717  0.0221 -0.1177 -0.2797
43153W        W86169   2.677   3.697   3.670  0.0788 -0.2023 -0.2600
43154W        W86170  16.802  15.267  26.651  0.0310  0.0374 -0.0974
43155W        W86171  32.468   9.343   9.194 -0.2916  0.0237 -0.1272
43156W        W86172  31.581  14.157  24.161 -0.0664  0.3062  0.0755
43157W        W86173  11.773  25.254  25.897 -0.3486  0.3496 -0.0990
43158W        W86174   1.804   5.907  16.675 -0.0802  0.2061  0.1043
43159W        W86175  31.065   9.437   5.234  0.2185  0.1607 -0.3946
43160W        W86176  32.085  32.985   3.910  0.1896 -0.0660  0.0910
43161W        W86177  18.850  27.536  28.243  0.3247 -0.2049 -0.0280
43162W        W86178  33.032  12.829   7.667 -0.1238 -0.0463 -0.1241
43163W        W86179  12.074  16.484  13.021 -0.2255 -0.0435 -0.1933
43164W        W86180  21.864  26.408   7.406  0.1948  0.1055 -0.4233
43165W        W86181   4.294  13.226   7.273  0.1400 -0.1613 -0.0254
43166W        W86182  12.485   9.102   9.827 -0.0274 -0.3377  0.1454
43167W        W86183  17.163  18.559  21.164 -0.3881 -0.1334  0.1376
43168W        W86184   9.077  25.371   5.515 -0.1278 -0.0090  0.0000
43169W        W86185   6.240  15.677   6.548  0.1635  0.0590  0.0587
43170W        W86186  25.272   0.573  26.394  0.0567  0.1224 -0.0013
43171W        W86187  17.566  13.015  15.590 -0.0716  0.2707  0.0027
43172W        W86188  33.460  16.153  18.198 -0.0115 -0.0593  0.0300
43173W        W86189   5.424   2.381   5.865 -0.0926  0.0268  0.0834
43174W        W86190   2.222  28.514   0.419  0.1587 -0.1540 -0.1234
43175W        W86191  34.473  18.372   7.688 -0.2078 -0.1786  0.3302
43176W        W86192  30.831   5.418  25.712 -0.1642  0.1029  0.4275
43177W        W86193  10.258   1.613  10.040  0.0640 -0.1156  0.0249
43178W        W86194  31.652  10.652  10.110  0.0224  0.0442  0.0300
43179W        W86195  32.521  28.113  10.712 -0.2658 -0.1814 -0.0247
43180W        W86196  23.077  11.649  27.060  0.3608  0.1825  0.3189
43181W        W86197  23.502  20.866   2.532  0.0058  0.1905  0.1204
43182W        W86198  32.884  19.383  26.537  0.1558 -0.2132  0.3130
43183W        W86199  34.035  17.786  27.996  0.2911  0.1229  0.0242
43184W        W86200  11.850   5.332   0.489 -0.2267 -0.2029  0.1567
43185W        W86201  31.899  15.028  27.474 -0.1548 -0.0887  0.1033
43186W        W86202  30.964  22.978  10.715  0.3238  0.0417 -0.2080
43187W        W86203  32.649  16.594   2.896 -0.0405  0.0314 -0.0603
43188W        W86204  26.818  14.325  22.181 -0.1937  0.1091 -0.2138
43189W        W86205   1.843  10.531   8.071 -0.3993 -0.0490 -0.1569
43190W        W86206   3.406  17.423   1.864  0.3902  0.0277  0.0798
43191W        W86207  31.786   3.986   7.160  0.0276  0.1649 -0.0698
43192W        W86208  28.654  18.439   4.452  0.0747  0.1195  0.1024
43193W        W86209  11.404  11.097   2.986  0.3433 -0.1518  0.1589
43194W        W86210  26.728  11.529   8.363  0.2626 -0.1575 -0.0801
43195W        W86211  31.643  10.861   8.952 -0.2818 -0.3555  0.3759
43196W        W86212  23.499  25.553   6.424 -0.0032  0.2632 -0.2196
43197W        W86213  10.552  10.600   5.408 -0.0593  0.1870 -0.1379
43198W        W86214   0.037  16.452   5.090  0.0872  0.2562  0.0463
43199W        W86215  29.299   9.649   2.919  0.0187  0.1765 -0.1175
43200W        W86216  24.930  15.714   5.332  0.0421  0.0502  0.2987
43201W        W86217  12.783   8.836   7.303 -0.0004 -0.1830 -0.0952
43202W        W86218  21.656  15.052  29.259  0.1073 -0.1816  0.1444
43203W        W86219  30.961  20.671   7.117 -0.2183  0.2476  0.1159
43204W        W86220  31.395  10.886   6.235 -0.1552  0.0842  0.1579
43205W        W86221  12.527   1.671   1.687  0.2416 -0.1742 -0.0035
43206W        W86222  13.718   0.044  24.937  0.2663 -0.2064 -0.2959
43207W        W86223  15.082   1.031   8.980 -0.2632 -0.1640 -0.0634
43208W        W86224  10.690  12.788   8.859 -0.1101  0.0064  0.2133
43209W        W86225  19.663  13.771   1.037  0.1952  0.0211  0.0249
43210W        W86226   3.707  12.655   1.970  0.0132  0.1261 -0.3214
43211W        W86227  17.328  12.701   4.895 -0.1828  0.1241 -0.1463
43212W        W86228   4.637  30.054   1.588  0.0052  0.0741 -0.1716
43213W        W86229  15.419   8.288   8.649 -0.0385 -0.1025  0.2647
43214W        W86230  28.317  33.908   2.214  0.2879 -0.0001 -0.1305
43215W        W86231  33.865   6.412  27.815 -0.3615 -0.1809  0.3169
43216W        W86232  29.262  15.643  25.139 -0.0671 -0.3457 -0.0053
43217W        W86233  19.625   3.602  28.205 -0.0574 -0.2456 -0.1461
43218W        W86234  30.663   7.526   8.981 -0.3247 -0.0886 -0.1558
43219W        W86235  19.584  16.867   2.652 -0.0195  0.0893 -0.2723
43220W        W86236  30.498  21.419   6.324 -0.2025  0.0794  0.0624
43221W        W86237  23.015   9.325   1.185 -0.0691  0.0635 -0.3441
43222W        W86238  22.197  29.579   7.945  0.1965 -0.0080  0.0444
43223W        W86239  24.872  12.612   5.491  0.2413  0.2001  0.2828
43224W        W86240  29.967  18.697   0.820 -0.1202  0.1845 -0.0350
43225W        W86241   6.997  26.344   7.908  0.0661  0.1454  0.0515
43226W        W86242  23.496  32.557  29.239  0.0722  0.3018 -0.0507
43227W        W86243  30.629   4.333   9.210 -0.1123  0.2547 -0.0783
43228W        W86244   4.072  31.362   4.698 -0.4685 -0.1771 -0.0555
43229W        W86245   1.192  15.077  10.380 -0.0426 -0.0253 -0.0154
43230W        W86246  17.741   7.207   5.506  0.1068  0.0003  0.3352
43231W        W86247  28.482  30.574   9.252  0.1976 -0.2149  0.3884
43232W        W86248  21.078  12.515  22.614 -0.1595  0.0916 -0.0767
43233W        W86249   5.696   8.799  16.760 -0.2089 -0.1602  0.0032
43234W        W86250  27.866   0.797   2.015 -0.0924  0.0767 -0.2545
43235W        W86251  27.543  16.981   2.251 -0.0154 -0.0582  0.0615
43236W        W86252  11.822  11.806  24.704  0.0368 -0.1563 -0.1286
43237W        W86253  12.666  12.689   2.394 -0.1091 -0.0971  0.1030
43238W        W86254  23.142  21.092  24.967  0.0369  0.2752  0.5670
43239W        W86255   0.394   2.731   2.871  0.0341  0.0158  0.0647
43240W        W86256  14.213  27.714   8.664  0.1522  0.1421  0.1894
43241W        W86257  30.645  19.104   6.363 -0.2159 -0.1423 -0.3642
43242W        W86258  32.994   0.271   8.921 -0.0038  0.1340 -0.0514
43243W        W86259  28.987  17.311   5.818  0.4055 -0.0585 -0.0920
43244W        W86260  18.827  12.092   0.769 -0.1709  0.0040  0.4013
43245W        W86261   7.161  11.411  23.632 -0.2232 -0.0994  0.1628
43246W        W86262   4.742   9.677   8.308 -0.2318  0.0917 -0.0931
43247W        W86263  25.456  31.156   1.942  0.0787  0.0522 -0.1917
43248W        W86264  26.092  19.129   2.945 -0.0413  0.0935 -0.0122
43249W        W86265  21.859  17.180  28.610  0.1468 -0.2025 -0.2465
43250W        W86266  31.337   9.900   5.742 -0.0186 -0.2273 -0.2927
43251W        W86267   6.175  17.686   6.750  0.1487  0.0611  0.0275
43252W        W86268   1.425   9.192   1.344  0.1489  0.4800 -0.0719
43253W        W86269  21.350  10.486   3.809  0.0091  0.2913 -0.1322
43254W        W86270  17.671   4.594   4.921 -0.0507 -0.1592  0.0413
43255W        W86271  33.774   6.780   7.837  0.2227  0.1261 -0.0943
43256W        W86272  16.614  20.855  27.471  0.1369  0.3701 -0.0998
43257W        W86273   2.268  14.104   6.034 -0.2041  0.1214 -0.0681
43258W        W86274  25.395  33.067  18.980 -0.1398  0.0090 -0.0394
43259W        W86275  32.918   9.702  26.505  0.1192  0.1757 -0.0908
43260W        W86276  22.257  12.533  24.235 -0.0772 -0.1266 -0.1401
43261W        W86277  10.517  32.977  29.295  0.0755  0.2322  0.1780
43262W        W86278  20.104  18.435   3.625 -0.2497  0.3129  0.2260
43263W        W86279  27.687  14.399  25.025  0.1546 -0.2300  0.2729
43264W        W86280  23.196  17.746   1.306 -0.1294  0.0840  0.1529
43265W        W86281  28.018  29.766   8.489  0.0049  0.1663  0.1742
43266W        W86282  12.416  18.533  23.080 -0.2233  0.1040  0.3161
43267W        W86283   1.510  19.219   4.775  0.0112 -0.3784 -0.3351
43268W        W86284  10.867   0.253  14.992  0.1276  0.2908  0.2933
43269W        W86285  32.354  20.024   6.855  0.0914  0.0076  0.1593
43270W        W86286   1.675  20.092  27.104 -0.0035  0.0703  0.0647
43271W        W86287  11.706  18.203   8.271  0.0226  0.0726 -0.0263
43272W        W86288  11.202  31.602  26.545 -0.0768  0.2083  0.0775
43273W        W86289   0.604   2.164  28.788 -0.0462  0.0291 -0.0738
43274W        W86290  34.330   3.973  24.215  0.1309 -0.1863 -0.3850
43275W        W86291   5.459   7.110  23.952  0.0572 -0.2764  0.0721
43276W        W86292  12.559  14.663  27.759 -0.0422  0.1042  0.0193
43277W        W86293   6.980  30.508   1.073  0.1692 -0.3670  0.0811
43278W        W86294   7.522   4.524  28.201  0.0209 -0.1149  0.0118
43279W        W86295  26.400  10.694   3.670  0.0639 -0.1502 -0.0366
43280W        W86296  28.265  26.444   4.201  0.0395 -0.1444  0.2616
43281W        W86297   1.967   4.955   9.042  0.0141 -0.2616  0.3037
43282W        W86298  29.489  14.197   8.903  0.1472 -0.1298 -0.1688
43283W        W86299  28.790   8.357  10.203 -0.1963 -0.2615  0.0093
43284W        W86300  23.549  15.455  24.023 -0.1232  0.2921 -0.0039
43285W        W86301   6.858  33.476   9.027 -0.2340  0.1017  0.0456
43286W        W86302  33.849   8.951   1.768  0.1911 -0.1117  0.3030
43287W        W86303  31.085   9.210  21.621  0.0123  0.1581  0.2875
43288W        W86304  23.251   8.461  26.037 -0.0399  0.1059 -0.1505
43289W        W86305  28.411   5.304   5.505 -0.0230 -0.2081 -0.0714
43290W        W86306  31.087  16.098   5.216 -0.2006  0.2263 -0.0741
43291W        W86307  29.480  21.946  29.071 -0.3259  0.4406  0.2499
43292W        W86308  24.243  25.043  16.216  0.1003  0.2515 -0.2884
43293W        W86309  24.848  10.312   4.260  0.0747 -0.1825  0.2158
43294W        W86310  26.906  15.803   3.892 -0.1691 -0.0422  0.1821
43295W        W86311   6.564   1.878   8.858 -0.1452 -0.2570  0.0978
43296W        W86312  31.187   9.558  29.294  0.0807  0.1284 -0.0357
43297W        W86313   1.499  29.427  26.023  0.2109 -0.2871  0.1033
43298W        W86314   1.124  26.554   6.982 -0.0714  0.0088  0.0293
43299W        W86315   9.306   1.885  10.435 -0.3967 -0.0978  0.2609
43300W        W86316  18.177  13.160   5.247 -0.0230  0.0249 -0.2706
43301W        W86317  25.512  20.631  20.899 -0.3061  0.1034  0.1545
43302W        W86318  32.733  21.834   5.543  0.2297  0.2897 -0.1884
43303W        W86319  22.180  16.056   3.643  0.5097  0.0799 -0.0328
43304W        W86320  10.330   8.716   8.322  0.1612 -0.0977 -0.1696
43305W        W86321   0.956  15.006   6.984 -0.0309 -0.1436  0.3978
43306W        W86322  31.663  33.870  10.686 -0.0668  0.0353  0.0135
43307W        W86323   1.853  23.231   6.326  0.2395  0.1051  0.2554
43308W        W86324  34.471   8.779  27.654 -0.2439  0.0321 -0.0205
43309W        W86325   8.164  11.599  26.945 -0.2155  0.0292 -0.1611
43310W        W86326  27.966   8.112  19.368 -0.0904 -0.2578 -0.1171
43311W        W86327  33.438  20.523   0.285  0.0383  0.0555  0.0791
43312W        W86328  25.702  11.659   7.445  0.0581 -0.1449 -0.1870
43313W        W86329  24.236   4.606   8.187 -0.0438 -0.0174  0.0478
43314W        W86330  29.957  32.863  28.757  0.2134  0.2429  0.1024
43315W        W86331  24.590   8.572   4.022 -0.0039 -0.0297  0.0771
43316W        W86332  22.506   6.436  22.735  0.1853  0.0519 -0.0881
43317W        W86333   0.506   4.416  19.172  0.0659  0.0129 -0.0216
43318W        W86334   8.311  30.264  23.058 -0.0603  0.1099  0.1256
43319W        W86335   9.009  27.712   7.728 -0.1005 -0.1474 -0.2274
43320W        W86336  11.196  19.393   6.825 -0.0926 -0.0017  0.1930
43321W        W86337  32.991  10.385   0.235  0.0177 -0.1301 -0.3519
43322W        W86338  28.039  33.094   9.216 -0.4538 -0.4581  0.0525
43323W        W86339  26.312  14.394   7.541  0.0948 -0.0387  0.0180
43324W        W86340   1.467   4.774  25.572 -0.0406 -0.4772  0.0839
43325W        W86341  27.284   2.579   5.237  0.1922 -0.1516 -0.1929
43326W        W86342  21.214  17.004  28.039  0.1814  0.0694  0.1151
43327W        W86343  34.194  28.086   5.737  0.1559 -0.2134 -0.0006
43328W        W86344  23.847  33.023   9.971 -0.1912 -0.2028 -0.0303
43329W        W86345  29.809   9.727  27.133  0.0497 -0.0742 -0.1430
43330W        W86346   1.096  17.636   3.109 -0.3660  0.0100 -0.0246
43331W        W86347  29.593   0.282   2.386  0.0345  0.1390 -0.0503
43332W        W86348   1.714  21.689   8.072 -0.0919 -0.1115 -0.2510
43333W        W86349   5.685   8.594  22.103 -0.0490 -0.4154 -0.0459
43334W        W86350  26.613  18.507   3.378  0.1779 -0.0822 -0.1994
43335W        W86351  25.577   8.949  27.060 -0.0987 -0.3195  0.0002
43336W        W86352  24.931   2.301  27.274 -0.0675  0.0139 -0.3298
43337W        W86353  23.117  34.512   4.178  0.0695 -0.0529 -0.1240
43338W        W86354  25.982  32.475   8.979  0.0400  0.2743 -0.1707
43339W        W86355  31.194  14.673   3.250  0.1812  0.0177 -0.2362
43340W        W86356   0.358  20.690  10.002  0.2472  0.1423  0.1455
43341W        W86357  30.041  22.006  27.478 -0.0218  0.0046 -0.0480
43342W        W86358   1.550   3.957  17.001 -0.2167 -0.0202 -0.1054
43343W        W86359  15.539  14.918   7.953 -0.1502 -0.1268 -0.0635
43344W        W86360   0.027   0.187  16.202 -0.0914 -0.1764  0.1667
43345W        W86361  32.596   4.456   4.462  0.4505  0.2222 -0.0234
43346W        W86362   4.592   7.518   5.020 -0.1716 -0.3810  0.1330
43347W        W86363  22.254   9.716   3.516 -0.1521  0.0092  0.0441
43348W        W86364  30.453   9.097   9.254  0.0643 -0.1418 -0.0293
43349W        W86365  29.277   5.544   0.567  0.1623  0.1175 -0.3771
43350W        W86366  13.659  20.524  22.589 -0.2645 -0.1021  0.1303
43351W        W86367   1.618   1.874  28.835  0.2343 -0.3089 -0.1166
43352W        W86368  24.677   1.401   8.641  0.0396  0.1261  0.1036
43353W        W86369  26.614  27.353   1.191 -0.0204  0.1244  0.2002
43354W        W86370   3.926   6.792   2.183 -0.0219  0.1184  0.0639
43355W        W86371   2.205  25.411   0.537 -0.2527 -0.2230  0.1821
43356W        W86372  28.460  15.272  20.533  0.2494  0.0454 -0.1230
43357W        W86373  22.215  34.396   6.018  0.2556 -0.0272  0.1085
43358W        W86374  23.394   3.375   9.556 -0.0688 -0.0372  0.0066
43359W        W86375  26.351  17.093  23.818 -0.1888  0.1762 -0.1115
43360W        W86376   9.751  31.619   2.798  0.0653  0.1095 -0.2750
43361W        W86377   3.145  12.429   5.298 -0.1597  0.1857 -0.0886
43362W        W86378  26.571   6.056   6.137 -0.3563 -0.0987 -0.0032
43363W        W86379   1.686  10.364   4.937 -0.1505  0.0131  0.0146
43364W        W86380  34.399  14.158   4.707 -0.2181 -0.1392  0.1813
43365W        W86381   4.723  14.804   3.509 -0.1575  0.0593  0.0150
43366W        W86382  28.720  33.319   1.132 -0.0936 -0.0343 -0.0500
43367W        W86383   9.905  20.262  15.264 -0.0837 -0.0329  0.2593
43368W        W86384  18.517   7.416  23.881  0.1217 -0.0676 -0.0509
43369W        W86385  28.382  15.739  25.148 -0.0623  0.2788  0.2741
43370W        W86386  27.265  11.771  10.213  0.1626  0.0364 -0.2191
43371W        W86387  26.204  15.018   3.231  0.1710  0.0782  0.0414
43372W        W86388  26.601  10.710   1.442 -0.0612  0.1765  0.2959
43373W        W86389   7.335  30.231  26.374  0.1839 -0.2883  0.2391
43374W        W86390  32.384   4.628  24.631  0.0658  0.3033 -0.2508
43375W        W86391  32.316   3.131  25.111 -0.0589  0.0397 -0.1419
43376W        W86392  28.910  17.945   9.213 -0.3457  0.1016 -0.4359
43377W        W86393   4.144  15.353  24.957 -0.1084 -0.1015  0.0972
43378W        W86394  29.413  27.141  11.521 -0.0755  0.3072 -0.0026
43379W        W86395  18.985  13.311   6.871  0.1078  0.3277 -0.2671
43380W        W86396  14.835   7.331   8.784  0.0997  0.3078  0.0077
43381W        W86397  17.448  10.849   5.237  0.1740 -0.1432  0.1039
43382W        W86398   4.894  14.827   6.079 -0.0478  0.1345  0.0424
43383W        W86399  26.583  14.892   7.636 -0.0216  0.1012  0.0069
43384W        W86400  11.026  20.413   8.687  0.1573 -0.3597 -0.2951
43385W        W86401  21.441  34.592  21.326 -0.0799 -0.2668 -0.0911
43386W        W86402  14.803  14.775   8.448  0.0546  0.1645  0.3072
43387W        W86403  31.715  11.062   0.184 -0.0799  0.0145  0.3317
43388W        W86404   0.596   1.892  23.694 -0.0868 -0.1066 -0.0058
43389W        W86405   2.889  12.334   1.498  0.2233 -0.0833 -0.0164
43390W        W86406  17.168  11.397   7.390  0.2824  0.1496  0.2984
43391W        W86407  24.706  16.144   7.394 -0.0773 -0.2196  0.2274
43392W        W86408   7.526   8.484   8.969 -0.3481 -0.0862 -0.2294
43393W        W86409   4.233  32.470   7.485 -0.0143  0.2115 -0.1821
43394W        W86410  13.735  21.026   5.134 -0.0092 -0.2936  0.2391
43395W        W86411  20.712  25.632   4.902  0.0905  0.1758 -0.1228
43396W        W86412   1.268  15.110   8.186 -0.0394 -0.0632  0.1043
43397W        W86413   6.128  28.545   0.390  0.1395  0.3937 -0.0609
43398W        W86414   3.353  21.634  28.789  0.0582 -0.1391 -0.3072
43399W        W86415  17.043   7.806  26.273  0.2535 -0.1384 -0.1179
43400W        W86416  34.087  32.730   2.814 -0.0810  0.0948 -0.0708
43401W        W86417  22.690  16.289   5.420 -0.3415 -0.1293  0.0195
43402W        W86418   9.286   5.137   8.865  0.2268 -0.0493 -0.1726
43403W        W86419  24.725   2.511   2.812 -0.3250 -0.0136  0.1562
43404W        W86420  13.996  21.977   5.124  0.1817  0.4120  0.0209
43405W        W86421  19.600  15.726  27.739 -0.0032 -0.3200 -0.1555
43406W        W86422  24.741   6.659  16.639 -0.3335  0.2683 -0.1388
43407W        W86423  22.767  15.882   8.866  0.0393 -0.1065 -0.0404
43408W        W86424  14.321  21.066   8.003  0.0578 -0.0043 -0.1575
43409W        W86425   6.684  16.322   7.720  0.2760  0.3471 -0.0477
43410W        W86426  30.349  17.126   9.007  0.0559  0.0173 -0.2061
43411W        W86427   2.047  11.881   6.667 -0.0976 -0.0787  0.1007
43412W        W86428  22.902  17.810   8.081 -0.3195  0.1821  0.0286
43413W        W86429  30.657   5.511   0.411 -0.2082 -0.1903 -0.0929
43414W        W86430   3.933  15.786   5.925  0.1317  0.0275 -0.0022
43415W        W86431   0.861  12.140   9.445 -0.2015 -0.2166 -0.0477
43416W        W86432  27.149  15.430   2.531 -0.1111  0.1396 -0.2006
43417W        W86433  11.931  14.102  20.770 -0.0011  0.1295  0.0917
43418W        W86434   4.257  24.412   7.439  0.1925  0.0582 -0.2178
43419W        W86435  31.203   9.860  10.202  0.1773 -0.1420  0.3452
43420W        W86436  30.607  16.588   2.714  0.3237 -0.0396 -0.1289
43421W        W86437   0.662  20.947   5.104 -0.0712  0.0794 -0.2630
43422W        W86438   5.661  12.942   3.292 -0.1453 -0.1117 -0.0928
43423W        W86439  29.634   4.190  10.158 -0.0401  0.0628 -0.1910
43424W        W86440  20.845  27.710   1.618 -0.4744 -0.0401 -0.0670
43425W        W86441  32.479  23.975  25.273  0.0752  0.0841  0.0631
43426W        W86442  32.141   8.446  21.870  0.1421  0.1103 -0.0336
43427W        W86443   0.266  28.178  10.724 -0.2189 -0.0653 -0.0249
43428W        W86444  15.562  32.993  21.900 -0.0190 -0.1120 -0.0667
43429W        W86445   7.224   8.613  28.513  0.0240  0.0462  0.1295
43430W        W86446   2.868  10.271   4.899  0.0371 -0.3416  0.1138
43431W        W86447  30.573   8.263  28.684  0.3934 -0.0082  0.0365
43432W        W86448   0.219  13.276  28.711 -0.1845  0.0246 -0.0059
43433W        W86449  25.641   6.992  29.000 -0.0311 -0.0975 -0.1877
43434W        W86450  25.053  12.004   2.572  0.2772 -0.2609  0.1416
43435W        W86451  22.073   5.990   3.296  0.0328  0.0239 -0.1294
43436W        W86452  27.242  31.975   5.343  0.0615  0.1182  0.1697
43437W        W86453  12.699  33.392   7.178  0.0177 -0.0303 -0.1310
43438W        W86454   7.523  11.201   7.471 -0.0074 -0.1669  0.0731
43439W        W86455  16.254   9.765   0.826 -0.0661  0.0485 -0.1615
43440W        W86456   9.940  10.033  17.996  0.0313  0.1392 -0.0426
43441W        W86457  33.417   1.561   0.814 -0.1274 -0.0291  0.3778
43442W        W86458   1.776  20.229   0.892  0.0570  0.2300 -0.0343
43443W        W86459  26.144  34.487  28.796  0.1482 -0.0659  0.1422
43444W        W86460   2.041  11.690   8.656  0.2177  0.0218  0.0878
43445W        W86461  32.063  19.767   0.408 -0.0370 -0.2346  0.1657
43446W        W86462  33.669   0.303   2.699 -0.3631  0.0665  0.2381
43447W        W86463  27.500   2.575   9.044 -0.2001 -0.1603 -0.0813
43448W        W86464   0.815  24.730  18.514  0.0966 -0.1137 -0.1522
43449W        W86465  14.292  23.782   4.144 -0.2336 -0.0484  0.0688
43450W        W86466   3.376   1.087  26.510  0.0351 -0.0839  0.1006
43451W        W86467  27.837  11.322  23.351  0.2830 -0.2807 -0.0245
43452W        W86468   1.368  10.612   9.244 -0.0988  0.0468 -0.0874
43453W        W86469   0.621  14.604  11.555  0.0487 -0.0386 -0.4407
43454W        W86470  28.029  17.274   2.179  0.2408  0.4383 -0.0855
43455W        W86471  31.065  19.774  28.265  0.3069 -0.1742 -0.1775
43456W        W86472  30.050  25.034   1.673 -0.0084  0.0462 -0.0528
43457W        W86473   8.176   8.017   1.214 -0.3433  0.0853  0.2807
43458W        W86474   1.950  34.773  21.283  0.0329  0.0481 -0.0137
43459W        W86475  29.294  25.315   7.094 -0.2029  0.2463  0.1192
43460W        W86476   4.403   5.352   2.747  0.1588 -0.3826 -0.0639
43461W        W86477  20.499   3.003  26.699 -0.2107  0.0976  0.2193
43462W        W86478  33.454   0.517   7.909 -0.1867  0.0572 -0.1653
43463W        W86479  26.883  12.950  28.898  0.0220  0.0588  0.1401
43464W        W86480   0.374  23.952   9.144 -0.1069 -0.1905 -0.2140
43465W        W86481   2.297  24.942   4.708 -0.0258 -0.0526 -0.2342
43466W        W86482   4.716   3.237   5.153 -0.3983  0.2032 -0.2653
43467W        W86483  31.723  12.685   8.835 -0.0414 -0.1094  0.0462
43468W        W86484  23.908   9.706  20.024  0.1467  0.1551 -0.0229
43469W        W86485  18.457   6.379  27.416 -0.4388 -0.0391 -0.1451
43470W        W86486   4.343  28.279   8.500  0.1385  0.2603  0.0448
43471W        W86487  11.725   9.380   3.313 -0.2424  0.0836 -0.1214
43472W        W86488  17.904  18.840   8.089  0.2875  0.1336  0.0825
43473W        W86489  23.638  27.702   4.025 -0.0876 -0.1526  0.0832
43474W        W86490   0.997  12.339   1.963  0.1752  0.1197 -0.2193
43475W        W86491   7.087  17.910  13.096 -0.3602 -0.1128 -0.2776
43476W        W86492  29.085  33.219  28.925  0.2520  0.0613  0.1827
43477W        W86493  20.122   8.709   7.515 -0.1827  0.1910  0.4741
43478W        W86494   0.300   9.551   7.613 -0.3179 -0.2775  0.1172
43479W        W86495  24.355   6.707  28.962  0.1279  0.1302  0.0092
43480W        W86496   8.376  22.939   9.251  0.0220 -0.0100  0.1465
43481W        W86497  31.752   8.491   8.977  0.3247 -0.1283  0.1256
43482W        W86498  21.696  19.636   6.710  0.1885 -0.1224  0.1663
43483W        W86499  26.052  10.965  28.144 -0.0323 -0.1405  0.2487
43484W        W86500   2.337  20.318   7.832  0.2770 -0.2207 -0.2290
43485W        W86501  19.310  17.649  28.481 -0.2358  0.1352  0.1760
43486W        W86502  15.938   8.098   8.129 -0.1366  0.1169 -0.1891
43487W        W86503  19.474   3.465  22.245  0.0503 -0.0475 -0.1640
43488W        W86504   2.152   4.698  10.257  0.1717  0.1829 -0.1313
43489W        W86505  28.771  34.106  28.536  0.1377  0.0028 -0.0942
43490W        W86506  30.961  12.460   3.749  0.1276  0.0644 -0.0028
43491W        W86507  25.096  16.797  23.117  0.0726 -0.2803 -0.0870
43492W        W86508  15.797   2.099   6.739  0.1225 -0.1295  0.1540
43493W        W86509   7.193  21.712   5.539 -0.1151  0.0918 -0.2438
43494W        W86510  25.937   7.573   8.164 -0.1306  0.2228  0.0159
43495W        W86511  14.812   9.181   0.921 -0.2082 -0.0657 -0.1884
43496W        W86512   8.020  10.019   5.309 -0.1366  0.0334  0.2248
43497W        W86513  28.626   4.975   8.072 -0.0460 -0.2196  0.0737
43498W        W86514   3.398  10.060   4.124  0.2753 -0.0341 -0.0092
43499W        W86515  25.701   2.987   4.167  0.0600 -0.2514  0.0097
43500W        W86516   8.858  26.642   8.063 -0.0308 -0.4026  0.2233
43501W        W86517  33.163  11.337   6.983 -0.0461 -0.2915  0.0551
43502W        W86518  11.680   8.722   2.096  0.5389  0.1258  0.1106
43503W        W86519  17.162  19.993  27.424 -0.1753 -0.1203  0.2393
43504W        W86520  20.295  27.002   1.119 -0.3308  0.0603  0.0520
43505W        W86521   2.578  16.332   1.302  0.0749  0.3270  0.1468
43506W        W86522   1.090  34.593   2.429 -0.1945 -0.0725 -0.0113
43507W        W86523  25.406   3.821   1.058 -0.0503  0.2117 -0.3526
43508W        W86524  34.480  18.334  10.171 -0.1552  0.0680 -0.2237
43509W        W86525  22.888   3.620   1.981  0.1016 -0.0140  0.4385
43510W        W86526  11.167   2.363   6.636  0.1917  0.0199  0.0212
43511W        W86527   4.841  22.762   8.225 -0.2528  0.0721  0.2908
43512W        W86528   3.551  33.599  17.835  0.0312 -0.0716  0.1259
43513W        W86529  22.056  23.421  28.169 -0.0863 -0.0883 -0.4552
43514W        W86530  16.497   3.083   3.666 -0.1859  0.0126  0.0358
43515W        W86531  26.107   6.220   6.085  0.1105  0.0405 -0.2060
43516W        W86532  28.742  15.180   7.372 -0.0855  0.0320  0.1286
43517W        W86533  18.972  22.432   7.014 -0.1409 -0.2319  0.3206
43518W        W86534  22.621  10.340  23.035 -0.3610 -0.1752  0.1672
43519W        W86535  22.673   8.935  27.174  0.1109 -0.0873 -0.1726
43520W        W86536  12.432   8.704   5.477  0.1300  0.0288 -0.0558
43521W        W86537  27.958   0.192   7.891 -0.1794  0.0935  0.0534
43522W        W86538  34.576  24.649   7.350 -0.2338  0.1138  0.0376
43523W        W86539  31.666  14.935   8.881 -0.0370  0.0323  0.0294
43524W        W86540   3.232  32.429   7.490 -0.3281  0.0330  0.3061
43525W        W86541  28.314  10.506  18.133  0.0889 -0.0963  0.1806
43526W        W86542  27.210  10.506  20.653 -0.3408  0.0856  0.2292
43527W        W86543  29.165  20.601   5.007 -0.2793 -0.0359 -0.2998
43528W        W86544  28.684  23.165   6.738  0.2876  0.1152 -0.4119
43529W        W86545  15.429  17.907   2.534  0.3455  0.4392  0.0400
43530W        W86546   2.742   5.369   0.946  0.0092 -0.1514 -0.2603
43531W        W86547   8.865   6.376  24.382  0.1256 -0.0909 -0.2570
43532W        W86548  23.613   2.038   8.742 -0.0362  0.0839  0.0958
43533W        W86549  21.371   0.806   7.416  0.1075  0.2013 -0.0240
43534W        W86550  32.667  19.801  11.082 -0.0018  0.3047 -0.2101
43535W        W86551  34.074  16.722   1.902 -0.3556  0.0330  0.0375
43536W        W86552   3.669   7.674   2.142 -0.0085 -0.0050  0.3420
43537W        W86553  29.906  30.077   8.479 -0.0396 -0.0367  0.0290
43538W        W86554   6.081   7.338   1.073  0.0764 -0.1100 -0.0564
43539W        W86555   4.401  13.227   5.993  0.3396  0.0488 -0.0072
43540W        W86556  16.976   5.991   9.389  0.0325  0.0298 -0.1939
43541W        W86557   1.040  14.476  26.187  0.5155  0.0599  0.2532
43542W        W86558  21.644  12.436   4.565  0.0976  0.0190  0.0794
43543W        W86559  33.617  34.606   2.929  0.1015 -0.0860  0.1190
43544W        W86560   3.088  11.900  28.461 -0.0116 -0.3340 -0.1806
43545W        W86561  17.921   9.699   3.893  0.0246 -0.3535  0.2876
43546W        W86562  30.950  10.498   7.928  0.2884  0.1234  0.2926
43547W        W86563  19.956  27.314   2.701  0.1132 -0.2341 -0.2212
43548W        W86564  25.675  18.832  10.642  0.0260 -0.1786  0.1336
43549W        W86565  20.149  26.023  24.090 -0.0713 -0.4953 -0.0376
43550W        W86566  19.792  23.898   3.418  0.2583 -0.0067 -0.1506
43551W        W86567  33.226   4.026   1.425  0.1338  0.1223 -0.0221
43552W        W86568  20.872  33.448   0.341 -0.0024  0.0354 -0.0454
43553W        W86569  13.292  12.434  29.071  0.1102 -0.1113 -0.0538
43554W        W86570  29.579   0.862   8.292  0.0037  0.4432  0.1105
43555W        W86571   0.034  16.158   8.699 -0.1154 -0.4021  0.0680
43556W        W86572   2.915  13.800   3.677  0.1516 -0.1610  0.0884
43557W        W86573  11.185   2.668   9.984  0.0651  0.2745  0.2886
43558W        W86574  29.482   2.147  29.048  0.1836  0.1167  0.0148
43559W        W86575  13.017  23.324  18.462 -0.2549  0.1237  0.2757
43560W        W86576  29.913   2.185  21.052  0.2354 -0.1252  0.0228
43561W        W86577  23.430   3.323   7.131 -0.0597  0.0327 -0.0733
43562W        W86578  23.452   8.922   2.841  0.0625 -0.1856  0.0939
43563W        W86579  34.530   7.324  24.141  0.1778 -0.1751  0.0683
43564W        W86580  14.913  18.378  27.836  0.1753 -0.0695  0.2038
43565W        W86581  28.178   4.926  20.602  0.0370 -0.0671  0.0025
43566W        W86582  27.872   7.835   6.898 -0.1353  0.0739  0.0670
43567W        W86583  33.025   6.441   9.594 -0.1801 -0.2686  0.3794
43568W        W86584  34.769  19.573  23.257  0.0645 -0.0257  0.0508
43569W        W86585  22.019  31.581  10.732 -0.0964 -0.0488  0.2681
43570W        W86586   9.958  13.115  23.797 -0.0595 -0.2563  0.0402
43571W        W86587  22.570  15.515   8.069 -0.2342  0.2559 -0.0546
43572W        W86588  23.764  33.729  11.106  0.2547  0.2802  0.0988
43573W        W86589  24.626   5.337   2.019 -0.3155  0.1052 -0.0515
43574W        W86590  30.856  16.085  24.565  0.0052 -0.0181 -0.0487
43575W        W86591  23.615  28.017  10.446 -0.0514 -0.0501 -0.0240
43576W        W86592   2.739   8.566  19.224 -0.2047  0.1872  0.1195
43577W        W86593  30.744   4.748  16.431  0.0661 -0.0558 -0.0074
43578W        W86594   7.131   4.295   0.172 -0.1443  0.3430 -0.4576
43579W        W86595  33.314   1.564  20.585 -0.0460  0.1213  0.0235
43580W        W86596  27.379  23.631  19.809  0.2205  0.1298  0.0798
43581W        W86597   8.447  25.458   8.256 -0.2333 -0.2944 -0.1068
43582W        W86598   4.777  10.668   6.939 -0.2795  0.1545 -0.2578
43583W        W86599   2.532   9.485   1.094  0.1156 -0.1230 -0.3078
43584W        W86600  28.100  18.300   5.540  0.0565 -0.0017 -0.0646
43585W        W86601  31.835  12.966   6.880  0.1447 -0.3098  0.2392
43586W        W86602  15.266  17.586   0.598  0.1042  0.0626 -0.0201
43587W        W86603  26.187  27.972   5.950  0.1532 -0.0922  0.0854
43588W        W86604  28.625  12.808   8.725  0.1023 -0.1448  0.2339
43589W        W86605  30.215  20.047  27.733  0.0026  0.1888  0.2232
43590W        W86606  22.450  14.792   5.188 -0.3776  0.1734  0.1337
43591W        W86607  29.974   7.140   5.446 -0.1013  0.0428 -0.2788
43592W        W86608  19.147  18.372  26.387 -0.1425 -0.2442  0.1706
43593W        W86609  29.795   7.824   4.847 -0.1126 -0.1474 -0.0012
43594W        W86610  18.699   4.190   2.916  0.1299 -0.0325 -0.0010
43595W        W86611   3.302   9.893   4.750 -0.0577  0.3147 -0.4096
43596W        W86612  28.378  17.183   4.420 -0.4706  0.0264 -0.2647
43597W        W86613  11.356   6.803   3.139 -0.2138 -0.4429 -0.1309
43598W        W86614  18.212  21.288  26.631 -0.2420  0.1828 -0.1872
43599W        W86615  18.826  27.972  28.967 -0.1033  0.2702  0.2977
43600W        W86616  34.350  10.947  28.768 -0.0018  0.0875 -0.0870
43601W        W86617   0.044  22.969   2.667 -0.1880 -0.0732  0.0863
43602W        W86618   5.139  21.584   0.478 -0.0705  0.2716 -0.2920
43603W        W86619   0.218  18.734  26.296  0.0523 -0.1903 -0.2536
43604W        W86620   0.325  22.581  26.035  0.2387 -0.1186 -0.1903
43605W        W86621  27.094  15.639  29.090 -0.2192  0.2454  0.1907
43606W        W86622  27.445   7.503  11.477  0.3366 -0.1676  0.1395
43607W        W86623   2.022  17.034  24.769  0.0144  0.1557 -0.4116
43608W        W86624  13.056  32.381  20.328 -0.0032 -0.1061 -0.1134
43609W        W86625  29.203  23.424  27.022  0.1194  0.0604 -0.1124
43610W        W86626  31.212   2.561  27.254  0.2014 -0.0136  0.0241
43611W        W86627   3.556   0.088  20.975 -0.1153 -0.0051 -0.2106
43612W        W86628  10.732  21.019   4.796  0.1931 -0.2006 -0.1194
43613W        W86629   2.105  22.105  24.435  0.4899  0.1254 -0.1398
43614W        W86630  33.269  18.630   2.627  0.0024  0.0880 -0.2357
43615W        W86631  17.891  33.650  26.200 -0.0819 -0.2029 -0.1518
43616W        W86632  29.157  24.502  23.881  0.0347 -0.1246  0.0975
43617W        W86633  15.452  17.940   6.099  0.0962 -0.1099  0.1657
43618W        W86634  25.005  18.379   7.995  0.1978 -0.0599  0.3139
43619W        W86635  27.569  31.789   9.307 -0.3545  0.3676  0.4478
43620W        W86636  27.991   6.479   5.173  0.2501  0.2324 -0.2854
43621W        W86637   0.859   4.990   3.496 -0.0917 -0.1821  0.1080
43622W        W86638  25.254  13.377   4.765  0.1561  0.1834 -0.0516
43623W        W86639   4.557  17.418  26.606 -0.2750 -0.1917 -0.0225
43624W        W86640  30.894   2.679   2.270  0.1543  0.0023  0.0540
43625W        W86641   2.394  10.426   8.922 -0.2281  0.0826  0.0688
43626W        W86642  25.145  12.888  22.826 -0.1670 -0.1866  0.1040
43627W        W86643   7.877  34.612   2.036 -0.1087  0.0030  0.0775
43628W        W86644  12.227  22.331  17.033  0.0432 -0.0300  0.2520
43629W        W86645  20.379  17.108  27.409  0.0400 -0.2769  0.0380
43630W        W86646  30.698  11.860   7.071 -0.0788  0.1935 -0.1565
43631W        W86647  29.052  13.246  25.324  0.2569  0.0641  0.2551
43632W        W86648  30.352   7.689  28.619  0.0426  0.1764 -0.1611
43633W        W86649  28.208  16.032   1.477  0.4934 -0.1780  0.1235
43634W        W86650  24.315   8.472   1.341 -0.0417  0.2776  0.2015
43635W        W86651   4.917  17.868   1.168  0.0675  0.1731  0.1126
43636W        W86652  31.736  14.415  26.816  0.1321  0.0999  0.0082
43637W        W86653  33.430   7.268   2.740 -0.0925  0.2583 -0.1267
43638W        W86654   1.526  22.509  23.269  0.1703  0.1219  0.2716
43639W        W86655  31.903   7.677  25.533 -0.1235 -0.0317  0.2130
43640W        W86656  33.073   3.660   9.598 -0.0454  0.1836 -0.0427
43641W        W86657   7.975  20.404  23.972 -0.1454 -0.0393 -0.5126
43642W        W86658  31.386  26.492   6.058  0.2620  0.3012 -0.3393
43643W        W86659  31.292  19.000  25.062 -0.1002  0.2518  0.0700
43644W        W86660  10.302   2.677   7.961  0.5057 -0.0542  0.0825
43645W        W86661   5.530  10.827  27.335 -0.1583 -0.0655 -0.0583
43646W        W86662   1.869   7.494  28.813 -0.0272 -0.2354  0.2914
43647W        W86663  31.798   4.091  15.350  0.1451  0.1027  0.0983
43648W        W86664  22.337   5.224  18.083  0.1839  0.3503  0.3105
43649W        W86665  28.690  12.129  10.366  0.0585  0.1045 -0.0547
43650W        W86666  31.605  23.032  18.880 -0.2549  0.0189 -0.0207
43651W        W86667   9.294  10.651   0.935  0.0986 -0.0957  0.0428
43652W        W86668  29.182   1.044  28.890  0.2339  0.1801 -0.0125
43653W        W86669   1.169  11.269  11.171 -0.0124  0.1141  0.2105
43654W        W86670  29.932   9.963   9.164  0.0791  0.4596 -0.2256
43655W        W86671  16.522  22.201   3.095  0.1812 -0.0181 -0.1626
43656W        W86672  21.442   9.831   5.486  0.3362  0.2314 -0.0642
43657W        W86673  27.521  32.698   7.835 -0.0288  0.0506 -0.0004
43658W        W86674  34.095  19.164   2.719  0.0142 -0.0203  0.2397
43659W        W86675  20.370   1.527  17.408 -0.0598  0.2278 -0.2873
43660W        W86676  18.596   8.630   0.413 -0.0240 -0.0163  0.0491
43661W        W86677  19.078   9.425  18.179 -0.1998 -0.0535  0.1283
43662W        W86678  14.215  14.425   0.417 -0.3076 -0.0262  0.2032
43663W        W86679   2.630  24.979  23.949  0.1195 -0.1223  0.1718
43664W        W86680   9.423  33.551   5.111  0.2227  0.1539  0.1501
43665W        W86681   7.250   9.403  29.257 -0.0576 -0.1604 -0.0022
43666W        W86682  18.020   7.165   9.103  0.0360 -0.0902 -0.1598
43667W        W86683   0.248  12.133   7.244 -0.1875  0.1380  0.0208
43668W        W86684  22.327  24.480  16.483  0.0560  0.0722 -0.0542
43669W        W86685  29.291  11.904   5.180 -0.1421  0.1400  0.0202
43670W        W86686  27.260  14.690  24.362 -0.1917 -0.0466 -0.0681
43671W        W86687  23.253  10.984  22.508 -0.0379  0.2974  0.1278
43672W        W86688  24.212   9.233   2.354 -0.0993  0.0395 -0.1854
43673W        W86689  26.609  20.328   9.561 -0.0241  0.1375 -0.1580
43674W        W86690   6.822  15.222  20.909 -0.4083  0.3482  0.2054
43675W        W86691  14.435  14.882   0.318  0.1534 -0.0358 -0.3647
43676W        W86692   4.744   7.765   9.472  0.1175  0.0911  0.2293
43677W        W86693   2.364   4.064   3.487  0.0070  0.0855 -0.2652
43678W        W86694  12.830  31.076   7.881  0.1329  0.2727 -0.0490
43679W        W86695  25.933  13.166  22.776 -0.3481  0.0172  0.3409
43680W        W86696  27.431  22.500  10.539 -0.0564  0.3401 -0.0797
43681W        W86697   6.826  28.695   6.481 -0.3886  0.0437 -0.0274
43682W        W86698  24.435  29.582  25.232 -0.1680 -0.0947 -0.1974
43683W        W86699  30.686  27.448   9.308  0.2789  0.0108 -0.2638
43684W        W86700  33.668  31.407  28.949  0.2243 -0.1345 -0.1749
43685W        W86701  32.915  19.244   0.624  0.1871 -0.1163  0.0354
43686W        W86702  34.679  10.051  21.737  0.0888 -0.1856  0.1883
43687W        W86703   8.866   0.934   8.820 -0.0096 -0.0884  0.1247
43688W        W86704  22.021   4.730   3.073  0.0681 -0.0598  0.1507
43689W        W86705  29.663  12.094  10.073  0.0164  0.2571 -0.0282
43690W        W86706  29.247  15.471   8.532 -0.1441 -0.1266  0.4006
43691W        W86707  30.619  15.725  16.715 -0.0692 -0.0390  0.0065
43692W        W86708   0.669  12.848   7.756  0.0843 -0.1338  0.1746
43693W        W86709  29.893  30.888  18.223 -0.1835 -0.2833  0.0316
43694W        W86710  23.092  17.108  18.860  0.1420  0.1543  0.1039
43695W        W86711  19.908  22.589   0.541  0.0259 -0.2129 -0.1778
43696W        W86712   0.940  13.068  29.233  0.0555  0.1612  0.1239
43697W        W86713  22.375  10.648   8.708 -0.1850  0.3940 -0.0090
43698W        W86714  12.305   6.743   3.938 -0.2841  0.1296  0.2600
43699W        W86715  16.280   8.867  22.743  0.0133  0.0794  0.1032
43700W        W86716  33.162  14.139  10.085  0.1039 -0.3768  0.0818
43701W        W86717  30.093  27.025  15.773 -0.0931  0.1898 -0.1687
43702W        W86718   6.563  15.766   1.512 -0.1003 -0.0699 -0.0281
43703W        W86719   8.016   9.938  23.608 -0.4206 -0.0571  0.0451
43704W        W86720  28.147  23.454   9.847 -0.1656 -0.2248 -0.0524
43705W        W86721  23.440  21.403   7.759 -0.1387  0.2808 -0.2252
43706W        W86722  25.749  10.345   3.089  0.1143  0.3481 -0.0881
43707W        W86723  27.553  11.618  22.003 -0.0889 -0.0544 -0.0064
43708W        W86724   6.236  18.473   0.740  0.2116  0.4069  0.0333
43709W        W86725  18.388   9.102   1.011 -0.0770  0.2323  0.3392
43710W        W86726  33.707  12.712  26.648  0.0952  0.0732 -0.0522
43711W        W86727   2.965   9.391  16.289  0.1332  0.0289  0.2535
43712W        W86728   0.315   2.645   9.697  0.0130 -0.2693 -0.3387
43713W        W86729  26.268  26.209  19.124 -0.0569 -0.0354  0.0831
43714W        W86730   3.976   4.083  17.987  0.1469 -0.1765  0.2042
43715W        W86731  11.672   9.838  20.391 -0.0107  0.0826  0.2307
43716W        W86732  30.938  21.777  25.280  0.0506  0.0179  0.2253
43717W        W86733  32.719  11.186   6.786 -0.1263  0.0827 -0.1651
43718W        W86734  19.677  22.354  21.776  0.0188  0.0129 -0.2719
43719W        W86735  16.793   6.058  19.177  0.1708  0.0278  0.2615
43720W        W86736  32.015  10.568   9.227 -0.2728  0.2534  0.3823
43721W        W86737  11.242  16.928   5.096 -0.0355 -0.3512  0.0688
43722W        W86738  18.042  21.284   6.319  0.1593  0.1892  0.1672
43723W        W86739  10.471  32.142  29.263  0.0501 -0.1473 -0.3766
43724W        W86740  31.177  34.636   4.885 -0.1083 -0.0802 -0.2960
43725W        W86741   4.068  15.091   5.437 -0.3994 -0.1254 -0.2562
43726W        W86742  32.294  18.897   6.105 -0.0472 -0.3034  0.0680
43727W        W86743  25.799  11.272   8.819  0.1248  0.0001 -0.2355
43728W        W86744   2.954  12.727  20.077 -0.2299  0.1166  0.1481
43729W        W86745  24.449   4.203   7.018  0.2746 -0.2224 -0.1956
43730W        W86746  33.935  30.523   5.624  0.3732  0.1875 -0.2319
43731W        W86747  29.800  16.438  10.503  0.2993 -0.0605 -0.1721
43732W        W86748  25.689  34.436  23.638  0.0848  0.0280 -0.1339
43733W        W86749  24.836  15.673  23.871 -0.0771  0.2405 -0.3356
43734W        W86750   7.624  30.632  25.520  0.3603  0.2766  0.0015
43735W        W86751   1.232  15.838   6.834 -0.1438  0.0302 -0.1455
43736W        W86752   0.604  10.503   5.185 -0.0814  0.0964  0.0819
43737W        W86753  10.080   6.446   1.104  0.0704 -0.1798 -0.1517
43738W        W86754  29.825  16.787   6.344  0.0323 -0.0611  0.0868
43739W        W86755   6.817  28.993   2.501  0.0360 -0.1339 -0.0587
43740W        W86756  22.906  18.766   1.509  0.1868  0.2617 -0.1693
43741W        W86757  31.108  26.653  27.782  0.1502 -0.1826 -0.0853
43742W        W86758  25.608   4.787  11.428 -0.0658 -0.2610 -0.1946
43743W        W86759   7.489  25.970  16.525  0.1676  0.1818  0.1785
43744W        W86760  16.524   6.289   8.081 -0.2783 -0.0009 -0.0464
43745W        W86761  28.582  30.901  29.006  0.1300  0.0771  0.0257
43746W        W86762  29.361  20.468  26.124  0.0610 -0.0830  0.1497
43747W        W86763   7.719   0.367  27.888 -0.2015 -0.0997 -0.1122
43748W        W86764  26.265  15.740   8.241  0.2120  0.0357  0.1900
43749W        W86765  31.313   6.241   2.177  0.0386 -0.2030 -0.0511
43750W        W86766  10.868  23.250  22.528  0.1751 -0.0186 -0.1310
43751W        W86767  12.907  11.156  24.514  0.2643 -0.3377 -0.1524
43752W        W86768  31.989  26.991  21.945 -0.0586  0.0919  0.1200
43753W        W86769  30.170   2.294   8.380  0.2299  0.1727  0.0475
43754W        W86770   4.745   3.904   4.102  0.0755  0.4395 -0.2763
43755W        W86771  28.245  12.284  24.573  0.0543  0.1199 -0.3136
43756W        W86772   0.425  11.349   0.582  0.0200  0.1526 -0.3876
43757W        W86773  16.244   3.836   1.317 -0.0116 -0.0693  0.2353
43758W        W86774  30.671  18.719  23.294 -0.2034  0.0792  0.0541
43759W        W86775  32.386  17.152  24.690 -0.2642 -0.3227 -0.0176
43760W        W86776   0.366  33.601   0.286  0.0375  0.1448 -0.1346
43761W        W86777  29.952  28.413   7.450  0.2713 -0.1296 -0.0196
43762W        W86778  21.458  23.461  14.956 -0.2083 -0.0325  0.1431
43763W        W86779   2.591  20.458   1.282  0.0132  0.3050 -0.3016
43764W        W86780  28.192   3.953  26.078 -0.1012  0.1232  0.2449
43765W        W86781  15.652  11.000  18.203  0.2182  0.3172 -0.1317
43766W        W86782   1.852  17.679   1.060 -0.1049  0.3074  0.1587
43767W        W86783   5.256  19.984   3.053 -0.0698  0.1920 -0.1105
43768W        W86784   4.430  19.241  22.861 -0.0932 -0.0381 -0.2240
43769W        W86785   1.497  16.596  14.625 -0.0376 -0.2347 -0.0392
43770W        W86786  23.968  22.614  28.386  0.1322  0.3106 -0.0409
43771W        W86787  30.925  24.783  15.043  0.2256 -0.0823  0.0676
43772W        W86788   2.399   7.615  21.422 -0.0043  0.1342 -0.1823
43773W        W86789  23.582   0.571   0.984 -0.3840  0.2180 -0.0360
43774W        W86790   4.771  31.077   4.745  0.1661 -0.0973 -0.0340
43775W        W86791  29.711  16.884   7.979 -0.0857 -0.1142 -0.3546
43776W        W86792  32.572  11.952  25.635 -0.1375  0.0837 -0.2897
43777W        W86793   5.782  27.101   3.788  0.0396  0.0914 -0.0920
43778W        W86794  32.598  14.154  22.504  0.2027  0.1394 -0.1099
43779W        W86795  29.583  25.293  26.117 -0.0994  0.0162  0.1466
43780W        W86796  33.281  20.908   8.272 -0.1410 -0.3251  0.2772
43781W        W86797  27.455  18.771   4.622 -0.0890 -0.2956 -0.1333
43782W        W86798  28.408   9.796   7.151  0.2408 -0.0895  0.1985
43783W        W86799   4.255   6.070  16.724 -0.0007 -0.0829 -0.0259
43784W        W86800  28.378   8.663   7.488  0.1558  0.0579  0.0786
43785W        W86801  26.775  22.328   2.493 -0.2913 -0.0371 -0.2023
43786W        W86802  31.320   1.046   0.797 -0.2479  0.1083  0.0446
43787W        W86803   0.850  10.256  25.512  0.1234 -0.1156 -0.1150
43788W        W86804   3.350  20.757   5.733  0.1253 -0.4594  0.2387
43789W        W86805  19.009  18.196   1.750 -0.0025 -0.1174  0.1533
43790W        W86806  24.836   5.911   6.920 -0.1031  0.1531  0.2806
43791W        W86807  21.397  14.680   0.166 -0.5399  0.1751 -0.1817
43792W        W86808  11.851  23.981   8.080 -0.1281  0.2869  0.1593
43793W        W86809  31.840   9.270   6.625  0.0246  0.0858 -0.0710
43794W        W86810  33.032  28.698   5.398 -0.1092 -0.0879 -0.2989
43795W        W86811  28.832  11.232   3.943 -0.0047  0.0002  0.1626
43796W        W86812   3.145  13.063   2.992 -0.1091 -0.1096  0.2850
43797W        W86813  21.998  21.707   3.805  0.1960 -0.0965  0.0290
43798W        W86814   7.367  17.545   3.825  0.1482 -0.0798 -0.1910
43799W        W86815  26.499   9.364   1.185  0.0290 -0.2436 -0.0602
43800W        W86816   9.813  10.882   4.126 -0.0765 -0.0991  0.2404
43801W        W86817   2.040   1.832   8.287  0.1626 -0.0481  0.1807
43802W        W86818  27.566  10.757   8.056  0.0860 -0.1187 -0.2432
43803W        W86819   7.344  33.139  22.329  0.2773 -0.0664  0.1768
43804W        W86820   7.423  15.736   1.104 -0.1347 -0.2051 -0.1230
43805W        W86821  34.721  31.345  24.266  0.0580 -0.1921  0.2813
43806W        W86822   3.806  11.368   6.707 -0.3598 -0.1565 -0.1951
43807W        W86823   9.552  23.272  21.187  0.0186  0.2078 -0.1905
43808W        W86824  15.358  16.181  14.662  0.1213 -0.3009  0.3308
43809W        W86825  31.173  20.220   4.998 -0.0239 -0.1560 -0.0823
43810W        W86826   1.448  20.771  16.687 -0.1737  0.2552 -0.0544
43811W        W86827   9.216  17.547  24.712 -0.1595 -0.1630 -0.1717
43812W        W86828  29.190  10.838  29.299  0.0820 -0.1971  0.1584
43813W        W86829  29.730  19.950  16.842 -0.0581  0.1488 -0.0967
43814W        W86830  26.824  20.092  28.688  0.1264 -0.3146  0.0115
43815W        W86831  32.098   1.301  25.270 -0.1052  0.1480 -0.0925
43816W        W86832  22.904   2.482  20.935  0.1711 -0.1476  0.0699
43817W        W86833   1.117  23.497   1.458  0.5415  0.0547 -0.2509
43818W        W86834   1.545  21.323   8.782  0.1401  0.2473 -0.1500
43819W        W86835  32.164  10.679  22.666 -0.2018  0.1896  0.0638
43820W        W86836  23.538  16.611  20.586  0.0817 -0.0412  0.2197
43821W        W86837  23.830  13.769   2.607 -0.0928  0.0836  0.2251
43822W        W86838  20.903  22.400   5.147  0.0282  0.2479 -0.0680
43823W        W86839  25.142  34.630  28.331  0.0695  0.0886 -0.0827
43824W        W86840  32.001  32.474   3.895  0.1210  0.4015 -0.0273
43825W        W86841  34.425  13.554  17.644 -0.0229  0.0909  0.0614
43826W        W86842   0.618  27.603  26.299 -0.0690  0.0903  0.1855
43827W        W86843   0.826   7.217   4.968  0.2727 -0.3118 -0.0363
43828W        W86844  21.810  12.037   3.288 -0.0494  0.1402  0.0470
43829W        W86845  29.696  13.139  18.797 -0.0182 -0.0438 -0.0490
43830W        W86846  22.866  34.345  19.767 -0.2475  0.1794  0.0606
43831W        W86847   8.965   5.790   3.039  0.0183  0.0990  0.0703
43832W        W86848   2.872  27.840  23.683  0.2615  0.0979  0.3488
43833W        W86849  15.304  14.348   4.498  0.0592 -0.0547  0.0273
43834W        W86850  14.049  18.809   5.108 -0.2721 -0.1689  0.0717
43835W        W86851   1.133  20.523  24.083  0.0182 -0.0953  0.0655
43836W        W86852  27.394  14.352  14.640 -0.0273 -0.0502 -0.2410
43837W        W86853  17.880   8.551   3.416 -0.2677 -0.1920 -0.0039
43838W        W86854  14.614  14.682  23.006  0.0407  0.0129  0.1647
43839W        W86855  24.527  13.115  25.408  0.0606  0.0087  0.1501
43840W        W86856   1.060  19.407  15.419 -0.0074  0.2338 -0.2631
43841W        W86857  30.810   4.130  20.618 -0.2047 -0.0117 -0.1077
43842W        W86858  17.497   5.049   1.107 -0.1016 -0.0462 -0.2623
43843W        W86859  22.398  10.489   1.739  0.1144 -0.0659  0.1255
43844W        W86860  33.565  23.373   6.624 -0.0061  0.3888  0.2366
43845W        W86861   6.427  27.943   3.476  0.0552 -0.2643 -0.1799
43846W        W86862   5.413  28.176   3.480  0.0788  0.0109  0.0408
43847W        W86863  24.901   3.149   8.236  0.0001 -0.2120 -0.2216
43848W        W86864  23.893  14.380   0.741 -0.0798 -0.1322  0.1008
43849W        W86865  23.892   6.618  22.502 -0.3728 -0.0273  0.3503
43850W        W86866  31.764  20.458   3.423 -0.2969  0.0163 -0.1221
43851W        W86867  29.709  22.725   8.793  0.1664 -0.0181 -0.0795
43852W        W86868   0.368  27.173   1.214 -0.4618 -0.0068 -0.0259
43853W        W86869   4.396   8.750  10.053  0.1101 -0.0844  0.1024
43854W        W86870  21.750  17.237   2.875  0.0428 -0.2824 -0.2855
43855W        W86871   0.420  27.436  19.006 -0.0713 -0.1548  0.1691
43856W        W86872  25.773   1.741   2.018  0.4116  0.1926 -0.0589
43857W        W86873  16.398  15.274  23.890  0.1345  0.0356 -0.1623
43858W        W86874   0.481  13.813   8.579 -0.1828  0.3827  0.1704
43859W        W86875  11.245  12.650   6.057  0.1275  0.1757  0.0489
43860W        W86876   8.604  26.459  28.310 -0.1558  0.1477  0.3322
43861W        W86877  34.140  23.970   9.791 -0.1167  0.2803  0.3794
43862W        W86878  21.119  12.795   1.744  0.2047  0.1201  0.1095
43863W        W86879  29.361   5.723   8.172 -0.1252 -0.1051  0.0304
43864W        W86880   3.657  11.130  28.277  0.1351  0.0744  0.2845
43865W        W86881  30.824  24.771  22.155 -0.0456  0.1711 -0.1291
43866W        W86882  22.989  33.339   1.068 -0.0096 -0.0420  0.1704
43867W        W86883  18.575   7.736   8.594 -0.0742  0.1818 -0.2589
43868W        W86884   2.970  24.047   0.765  0.1099 -0.0924 -0.1514
43869W        W86885   0.154  14.961   9.132  0.0804 -0.1449 -0.4338
43870W        W86886   3.085  20.198  24.683 -0.1180  0.1590 -0.4137
43871W        W86887  10.058  15.135  26.232  0.0096 -0.1394 -0.1397
43872W        W86888  24.446   6.127  28.730 -0.1113 -0.4643 -0.2057
43873W        W86889   7.497  25.751  27.265 -0.0372  0.0793 -0.0831
43874W        W86890   1.142   9.447   2.004 -0.1704  0.0547 -0.2176
43875W        W86891  33.112  10.899   6.813 -0.1980 -0.3139 -0.0417
43876W        W86892  24.875  13.111   0.520  0.0636 -0.0497 -0.2192
43877W        W86893   1.717   2.305   9.124 -0.3252  0.1314 -0.0334
43878W        W86894  12.521  14.794   7.275 -0.3767 -0.0410  0.0970
43879W        W86895  26.985  11.795  21.836 -0.1180  0.0192 -0.1011
43880W        W86896  30.552  12.884  24.472 -0.2690  0.3907  0.1291
43881W        W86897  24.633  18.911  19.067  0.0308  0.1751 -0.0750
43882W        W86898   0.098  27.963   2.745 -0.0866 -0.2020  0.1060
43883W        W86899   0.093  21.987  17.412  0.0120  0.0079  0.1799
43884W        W86900   6.516  17.114  27.365  0.0734  0.0582  0.3548
43885W        W86901  30.622  22.635   9.372 -0.3161 -0.0278  0.3652
43886W        W86902  29.689  10.794  26.278  0.0255 -0.2331  0.1765
43887W        W86903   6.947  32.167  23.224  0.0256  0.2114 -0.0856
43888W        W86904  29.348  13.394   6.664  0.0466 -0.3297  0.0984
43889W        W86905  34.691  18.473   8.776  0.1498  0.2848 -0.2024
43890W        W86906   5.107  23.450  27.072 -0.0871  0.0811 -0.3577
43891W        W86907  23.198   2.431  19.622 -0.1403  0.1114  0.0439
43892W        W86908   5.756  30.632  18.008 -0.3264 -0.2227  0.1631
43893W        W86909  19.114  18.992  29.087  0.1991 -0.1608 -0.2996
43894W        W86910   8.476   2.612  24.925  0.3543  0.0175 -0.0770
43895W        W86911   9.262  12.522   8.248  0.0688  0.0722 -0.2160
43896W        W86912   0.053  18.521   0.347 -0.0398  0.3280 -0.0373
43897W        W86913  25.696   8.534   6.203  0.0795  0.1189  0.1096
43898W        W86914  32.643  19.785   7.127  0.2330 -0.0086  0.0365
43899W        W86915   0.965  18.889   2.448  0.1855  0.0338  0.0877
43900W        W86916   0.985   9.328   3.107  0.0717  0.1083  0.1443
43901W        W86917   5.103  22.712   6.782  0.0767 -0.1246  0.1045
43902W        W86918  30.830  22.798   4.763 -0.3431 -0.0334 -0.0010
43903W        W86919  13.381  15.706   1.876 -0.2360  0.0452 -0.1354
43904W        W86920  29.693   1.518  19.786  0.2170 -0.3280 -0.0389
43905W        W86921  15.773  26.672   7.446  0.1937 -0.0609 -0.0176
43906W        W86922  29.332  19.534  15.343  0.3311  0.0591 -0.1914
43907W        W86923   6.923   3.191  17.446  0.1598 -0.2235  0.3606
43908W        W86924  33.822  27.167  20.064 -0.3851  0.1345 -0.4174
43909W        W86925  33.524   5.224   6.198  0.2145 -0.1888  0.2213
43910W        W86926  24.139   4.967  21.365 -0.5022 -0.1069 -0.0606
43911W        W86927   7.091  34.384   1.354  0.5642  0.1448  0.0805
43912W        W86928  18.851  19.446  23.432 -0.2088  0.2248 -0.0360
43913W        W86929  12.237   8.341   9.598  0.0627  0.1296  0.0864
43914W        W86930  21.647  12.175   4.098 -0.0654  0.2552  0.1703
43915W        W86931  10.825  33.026   6.873 -0.0898  0.0413  0.3384
43916W        W86932  19.719  28.747  27.329 -0.0113  0.4139  0.2638
43917W        W86933  13.510  11.881  17.559 -0.2011 -0.0713  0.1130
43918W        W86934  29.812  21.755   9.099  0.2436 -0.0226 -0.1054
43919W        W86935  31.556   2.936   6.065 -0.0874  0.4388 -0.2495
43920W        W86936   1.324  21.737   9.025  0.1814 -0.1757  0.1783
43921W        W86937  10.490  23.711   4.409  0.2147 -0.2969 -0.0622
43922W        W86938  25.460  21.162  24.876 -0.0464  0.1182  0.1544
43923W        W86939   7.341   4.858  16.348  0.0424 -0.0715  0.1811
43924W        W86940   5.291  17.627  25.314 -0.1777  0.1146  0.1661
43925W        W86941   9.037  10.685  18.018 -0.0368 -0.1772 -0.1643
43926W        W86942  34.545  15.269   4.289  0.5420  0.0795 -0.2449
43927W        W86943  30.372   9.473   2.846 -0.1904  0.1603  0.3089
43928W        W86944  33.034   5.441  27.612 -0.1487  0.0646  0.0807
43929W        W86945  33.763   8.162   4.549 -0.2002  0.2344  0.2389
43930W        W86946  27.540  18.774   3.354  0.1903 -0.3982  0.0051
43931W        W86947  32.817   9.836  25.685 -0.0258 -0.2917  0.1255
43932W        W86948  32.312  30.754  16.137 -0.0625 -0.3536  0.1301
43933W        W86949  12.214  11.407   2.575  0.1004  0.0100  0.0471
43934W        W86950  31.504   2.361  23.889 -0.3004  0.0975 -0.0722
43935W        W86951  26.786  13.220   5.249  0.2595  0.4810  0.4362
43936W        W86952  11.856  16.167   2.591 -0.0361  0.0902  0.2087
43937W        W86953  29.284  10.450   5.229 -0.0783  0.0781 -0.1543
43938W        W86954  28.223  15.673   3.832 -0.1625  0.5705  0.1253
43939W        W86955   1.691  34.325   5.798  0.0200 -0.3652  0.0291
43940W        W86956  21.691   7.360   4.995  0.1166 -0.1333 -0.1453
43941W        W86957  15.484  24.020  22.610 -0.0734 -0.0760 -0.2134
43942W        W86958  31.545   6.992  23.277  0.3541  0.0786 -0.0361
43943W        W86959  29.758   3.121  28.780 -0.1340  0.3264 -0.2220
43944W        W86960   6.562  27.831   3.005  0.2496  0.3416 -0.3937
43945W        W86961  31.601  15.161  23.080 -0.0087  0.1668  0.3665
43946W        W86962   9.857  15.688   3.861  0.3974 -0.0018 -0.3765
43947W        W86963   3.795  10.280  21.565 -0.2123  0.0563 -0.0558
43948W        W86964  29.924  23.159   9.365  0.0600  0.1568 -0.2950
43949W        W86965   9.565  14.830  23.335 -0.1278 -0.0809 -0.0656
43950W        W86966  33.813  16.001  27.482 -0.0604  0.3021 -0.0017
43951W        W86967  25.481  25.678  11.018 -0.3309 -0.4479  0.0287
43952W        W86968  29.226   5.250   4.624 -0.0471 -0.0784 -0.1825
43953W        W86969  33.888   1.045   4.042  0.3353 -0.1711  0.2080
43954W        W86970  20.986  24.568  19.721 -0.0748 -0.0891 -0.1654
43955W        W86971  31.803   9.322  25.327  0.0631 -0.0812 -0.2991
43956W        W86972   6.275  21.854  26.835  0.0719  0.1106 -0.0047
43957W        W86973   2.352  34.401   7.518  0.2892  0.1131 -0.0140
43958W        W86974  30.990  19.473   3.355  0.1097  0.2124  0.0542
43959W        W86975  18.414  16.725  17.050 -0.3655 -0.0197  0.0613
43960W        W86976  10.614   2.235  25.250  0.0735  0.1326 -0.3482
43961W        W86977   0.513   5.806   9.298  0.0072 -0.2771  0.1211
43962W        W86978   7.744  13.737   5.977  0.2710  0.0275  0.0130
43963W        W86979  12.419  22.925   0.069  0.0771 -0.0569  0.1952
43964W        W86980   4.184  10.073  27.601 -0.0605 -0.1462  0.2983
43965W        W86981  23.762  31.221   8.468 -0.4005  0.0125 -0.1528
43966W        W86982  26.909  12.171  19.979  0.2363  0.1389  0.1375
43967W        W86983   9.284  14.374   5.355  0.3376  0.0254  0.0558
43968W        W86984  32.245  12.804   7.967 -0.0181 -0.0763 -0.3112
43969W        W86985  28.682  15.418   2.947 -0.0058  0.0279  0.3909
43970W        W86986  31.855   3.928  21.911 -0.1234  0.1729  0.2137
43971W        W86987   7.395  19.897  29.134  0.0297 -0.1666 -0.2144
43972W        W86988  12.367   0.158   5.262  0.1495  0.0334 -0.0407
43973W        W86989  30.599  14.380   0.881 -0.3830 -0.0631 -0.0245
43974W        W86990   6.971   1.591   5.759  0.0380  0.2958 -0.0903
43975W        W86991  27.132   2.441  16.044 -0.0190  0.0839  0.2733
43976W        W86992  27.217   9.813   7.034  0.1449  0.1937 -0.0325
43977W        W86993  19.047  17.245  25.797 -0.0834 -0.0566  0.0742
43978W        W86994  32.883  32.696  18.625  0.3004  0.2289 -0.0503
43979W        W86995  23.046   6.191   9.130 -0.2430  0.1515 -0.0529
43980W        W86996   2.558   4.717   4.884 -0.0550  0.1583  0.1736
43981W        W86997  31.552   8.179  25.046  0.2929 -0.0310  0.1214
43982W        W86998   5.124  32.869  24.223 -0.0381  0.1261 -0.1318
43983W        W86999  34.188   7.076  10.769 -0.3270  0.0124  0.0922
43984W        W87000  30.892  10.729  22.294  0.2421 -0.1395  0.0133
43985W        W87001  11.108  19.602  23.991 -0.0328 -0.3827 -0.0639
43986W        W87002  33.486  16.595  22.790 -0.0134 -0.2011  0.2252
43987W        W87003  12.396  14.265   0.148  0.0485 -0.0478  0.0601
43988W        W87004   9.296   8.512   0.807  0.0125 -0.0537  0.1930
43989W        W87005  20.617  28.046   0.570 -0.1043  0.1034  0.3154
43990W        W87006  32.351  16.831   7.370 -0.1067 -0.4084  0.3229
43991W        W87007  15.101   6.432  19.199  0.2673  0.1172  0.0766
43992W        W87008  16.628  11.050  16.958 -0.2277  0.0497  0.1150
43993W        W87009  11.222  21.566  15.419 -0.0052 -0.1433 -0.0009
43994W        W87010  17.285  20.278  23.090 -0.1443  0.1480  0.0264
43995W        W87011  12.265   4.278   7.027 -0.2499 -0.1834 -0.1998
43996W        W87012  26.790  26.510  29.034 -0.4661  0.2103  0.1169
43997W        W87013  24.700   8.182  14.369  0.0232  0.3433  0.3601
43998W        W87014   1.712  25.403  16.707 -0.1596 -0.3249 -0.3114
43999W        W87015  14.422  11.189   2.816  0.0230 -0.1051 -0.0165
44000W        W87016  20.537  14.295  15.763  0.0164 -0.0593  0.0577
44001W        W87017  22.880  15.300   1.192 -0.0258 -0.0809 -0.1752
44002W        W87018   5.186  17.721  15.543  0.0664 -0.0147 -0.2084
44003W        W87019  14.192   0.337   0.651  0.0158  0.0509 -0.0342
44004W        W87020  32.204   6.915   4.348  0.0628 -0.2314  0.4521
44005W        W87021   0.069  18.805  10.187  0.4292  0.2039 -0.1456
44006W        W87022   8.346  17.534   2.371  0.3217  0.0335  0.0657
44007W        W87023   7.707  12.588  19.902  0.3035  0.4098 -0.3236
44008W        W87024  33.094  20.816  17.013  0.1419 -0.2736  0.1863
44009W        W87025  17.142  19.715   5.809  0.0221  0.2354 -0.0544
44010W        W87026  10.629  24.281   6.347  0.4887  0.2691 -0.1672
44011W        W87027  11.478  15.425  26.150 -0.1137 -0.4407 -0.1164
44012W        W87028   9.209  22.518  16.419  0.0493  0.1924  0.0810
44013W        W87029  33.049   0.680   0.777  0.0374  0.0536 -0.1326
44014W        W87030   0.456  23.666   7.971  0.3509  0.1583 -0.0577
44015W        W87031  13.804   9.336  25.992 -0.2257 -0.2780 -0.0232
44016W        W87032   4.818  13.775  22.560 -0.0097 -0.3520 -0.2047
44017W        W87033   0.062  16.847   9.501 -0.2357 -0.1191 -0.0222
44018W        W87034   1.638  20.472  28.923  0.1762 -0.1516 -0.1159
44019W        W87035  19.884   4.616   0.324 -0.1224  0.1964 -0.3302
44020W        W87036  26.640  16.674  24.034  0.0006 -0.1562 -0.1449
44021W        W87037  24.687   8.652  25.802  0.0092 -0.0684 -0.2313
44022W        W87038  29.667  29.818   2.828 -0.2453  0.0109  0.2841
44023W        W87039  18.200  21.397  15.392  0.3283  0.2709  0.0836
44024W        W87040  12.742   7.675   2.817  0.0228  0.0348 -0.0183
44025W        W87041  14.372  32.299   6.701  0.3695 -0.3138 -0.0159
44026W        W87042  28.559   5.382  26.299  0.0105 -0.0415 -0.1003
44027W        W87043  27.544   5.783   2.103  0.0218 -0.0264  0.0676
44028W        W87044   4.817  15.664   5.865  0.0916  0.0321 -0.0459
44029W        W87045  30.280   1.337   7.457 -0.2683 -0.1474 -0.0429
44030W        W87046  34.266   9.336   0.346 -0.1957  0.0444  0.0704
44031W        W87047   4.388   0.856   7.930  0.1158 -0.1778 -0.0905
44032W        W87048  16.374  29.686   3.626 -0.0968 -0.0486 -0.0312
44033W        W87049  24.629  24.240  20.952  0.3969 -0.1016  0.4216
44034W        W87050  24.369  26.050   9.709 -0.0909  0.2313  0.2381
44035W        W87051  30.821  18.806  10.476  0.0879 -0.0992  0.0540
44036W        W87052  23.252  21.839   1.038 -0.0588  0.1889  0.0387
44037W        W87053   3.898  16.079  28.285 -0.3055  0.1157 -0.0313
44038W        W87054  28.434  11.191   7.375  0.0858 -0.1104  0.3309
44039W        W87055   2.193  15.665   1.515 -0.1276  0.0060  0.4381
44040W        W87056  30.320  15.282  29.269  0.0967 -0.0218  0.1337
44041W        W87057  26.476   6.133   1.969 -0.0496 -0.1698 -0.2880
44042W        W87058   2.765  31.775  24.078 -0.0969  0.1368  0.0471
44043W        W87059  12.520   8.554   6.926 -0.1127 -0.1196  0.0255
44044W        W87060  24.366  14.910   3.158  0.0189 -0.0584  0.1837
44045W        W87061  31.727  32.948   9.161  0.0379 -0.1455  0.2815
44046W        W87062  18.895   7.647   4.839  0.1583  0.4110 -0.0077
44047W        W87063   0.070  24.384   5.822  0.3998 -0.2318  0.2218
44048W        W87064   3.951   4.992  23.553 -0.1371 -0.1062  0.1009
44049W        W87065   1.894  12.940   4.922  0.0058 -0.3656 -0.2199
44050W        W87066   3.014  13.349   7.722 -0.1836  0.1007  0.1163
44051W        W87067  21.004  34.188  10.780 -0.3154 -0.0498 -0.2816
44052W        W87068  18.379   2.435   1.424  0.0112  0.0396  0.2946
44053W        W87069  13.272   4.226   2.751  0.0621  0.0340  0.1245
44054W        W87070   2.458  17.918  18.642  0.0714 -0.1137 -0.2969
44055W        W87071   0.991  15.035   8.605  0.1883 -0.2914 -0.0321
44056W        W87072  28.858  20.188  27.895 -0.1184  0.0029  0.0268
44057W        W87073  26.266  22.622  10.151 -0.1041 -0.2864 -0.1141
44058W        W87074  33.602   5.059  16.044 -0.1760  0.1866  0.1322
44059W        W87075  28.657  23.715  23.327  0.0527  0.4097  0.2950
44060W        W87076  23.700   8.277   5.255  0.3076  0.1668  0.1009
44061W        W87077   0.391   4.569  23.025  0.2146  0.0316 -0.3758
44062W        W87078   5.573  10.096   2.011  0.1256 -0.3543  0.0744
44063W        W87079  20.487  14.450   6.286  0.3062 -0.1756  0.1667
44064W        W87080  34.220  17.955   7.824  0.1773  0.0544  0.2135
44065W        W87081  33.696  12.531  10.239  0.0215  0.0002  0.2275
44066W        W87082  27.985  19.582  16.841  0.3834  0.1201 -0.1236
44067W        W87083  34.128  12.849   9.021 -0.0968 -0.1323 -0.0739
44068W        W87084  14.269  11.802   5.145  0.5382  0.1412 -0.3050
44069W        W87085   9.549   7.695  27.741 -0.0024  0.1845 -0.0956
44070W        W87086  25.871  32.933  26.261 -0.0795 -0.1712  0.1405
44071W        W87087  12.514  33.353   5.398 -0.0289 -0.0918 -0.3421
44072W        W87088   0.465  12.771   1.862  0.1187  0.0738 -0.0662
44073W        W87089  31.344   6.475   3.130  0.0868 -0.1273 -0.0361
44074W        W87090  17.642  26.180   0.285  0.1451 -0.1905 -0.1730
44075W        W87091   5.650   2.335   7.132 -0.3720  0.0373  0.1823
44076W        W87092   4.181  15.043  26.856 -0.2732  0.1246 -0.1426
44077W        W87093  20.585  11.274   6.385  0.1282  0.0614 -0.3343
44078W        W87094  13.013   7.801   8.395 -0.1205 -0.0351  0.0994
44079W        W87095  21.297  12.209   6.202 -0.2381  0.1450  0.0119
44080W        W87096   0.423  27.643   2.354 -0.1948  0.1681  0.2464
44081W        W87097  16.627  18.809  24.957 -0.0927  0.0431  0.2100
44082W        W87098  30.563  28.749  10.800  0.1433  0.1028  0.1613
44083W        W87099  27.735  21.132  24.912  0.0499  0.3279  0.2489
44084W        W87100  32.546  23.545   7.751  0.0803 -0.0992  0.2544
44085W        W87101  24.611  17.998  26.308  0.2225  0.1109  0.2667
44086W        W87102  26.577  25.480   8.812  0.1169 -0.1209  0.1562
44087W        W87103  10.109  15.715  26.657  0.1598  0.0492 -0.0243
44088W        W87104  21.734  28.290  22.137  0.0941  0.0781  0.0841
44089W        W87105   7.297  13.916   7.256  0.3639 -0.1621 -0.0083
44090W        W87106  26.453  12.083  27.294 -0.0020 -0.2695  0.0511
44091W        W87107  29.138  14.284   0.546  0.0588  0.2275 -0.1465
44092W        W87108   2.920  14.465   4.497  0.1919  0.0715  0.1828
44093W        W87109   2.113  12.341  16.647  0.0276 -0.1199 -0.2240
44094W        W87110  32.350  18.427   5.699  0.1450  0.1611  0.0490
44095W        W87111  11.254  26.723   9.114 -0.0602 -0.0685 -0.1293
44096W        W87112   7.314   9.744   7.387  0.2211  0.0289 -0.1126
44097W        W87113   2.016   0.425  23.605 -0.1597 -0.1114  0.1091
44098W        W87114   7.492  20.975   3.129 -0.3148 -0.3801 -0.1184
44099W        W87115  23.933  11.724   6.260  0.1247 -0.1879  0.2971
44100W        W87116   3.006  13.060   5.124  0.4301 -0.0529  0.2550
44101W        W87117   6.587   1.482  28.411 -0.0866 -0.2637  0.0955
44102W        W87118  17.378  16.901  22.722  0.0052  0.0365  0.0300
44103W        W87119   0.346  14.846  23.251  0.1979  0.1130 -0.0737
44104W        W87120   7.886  28.883   4.432 -0.1919 -0.1703  0.2687
44105W        W87121   2.729  24.257  28.448  0.1104  0.0528  0.0504
44106W        W87122  11.038  18.692   4.049  0.2951 -0.1245  0.1300
44107W        W87123   5.447  18.821  26.759  0.0885 -0.1291  0.0235
44108W        W87124   4.925  21.121   7.658 -0.3215  0.0336 -0.0300
44109W        W87125  31.230   5.266   9.112  0.0243 -0.2174 -0.1271
44110W        W87126   8.971  16.724  24.045  0.0234 -0.0617 -0.3574
44111W        W87127   7.391  33.641   8.883 -0.2091  0.0608 -0.2160
44112W        W87128  22.715  12.276  27.644  0.0494 -0.2727  0.0008
44113W        W87129  22.080  20.591   8.115 -0.0724  0.0275  0.2165
44114W        W87130  25.106  26.736   8.509 -0.1006 -0.1246 -0.2414
44115W        W87131   9.276   9.614  21.532  0.4204 -0.0165 -0.1579
44116W        W87132  22.777  14.565  15.952 -0.0329 -0.0398 -0.2393
44117W        W87133  31.430   6.028   4.532 -0.0731  0.3801  0.0711
44118W        W87134  23.036  17.441   8.946 -0.2297 -0.1949  0.0478
44119W        W87135   5.441  13.281   3.644  0.1001 -0.0237  0.2051
44120W        W87136   0.169  14.862   7.455 -0.0427  0.0172  0.0141
44121W        W87137  33.634  19.611  26.718  0.3438 -0.0374  0.1792
44122W        W87138   7.683  12.404   4.012 -0.1539 -0.1079 -0.1714
44123W        W87139  16.040  15.805  20.483  0.2022  0.2430 -0.1227
44124W        W87140  31.976  21.914   8.393  0.1764 -0.1218  0.2030
44125W        W87141  31.570  10.468   9.291  0.3859 -0.2422  0.1660
44126W        W87142  30.819  25.802  26.456  0.2310  0.0154 -0.1245
44127W        W87143  33.926  11.330  26.350 -0.1257  0.0044  0.1712
44128W        W87144  31.867  10.521   9.682 -0.2461 -0.1727  0.1049
44129W        W87145  32.496   2.852  25.544 -0.2356  0.2362 -0.1374
44130W        W87146  20.072   9.866   5.060 -0.3451  0.1911 -0.3344
44131W        W87147  30.468  10.752   3.614 -0.0383  0.1970 -0.1374
44132W        W87148  26.547  17.156  28.560  0.1156 -0.3379 -0.1582
44133W        W87149  25.409  26.329  26.912  0.1583  0.0206  0.0149
44134W        W87150  33.606   6.865  10.702 -0.0341 -0.2925 -0.0438
44135W        W87151  19.347  16.944  13.351 -0.1158  0.1871 -0.2160
44136W        W87152  30.011  25.257   4.862  0.1452 -0.0279 -0.0169
44137W        W87153   9.665  24.709   6.873 -0.0613 -0.3266  0.0129
44138W        W87154  24.491  28.624   4.383  0.0936 -0.1158  0.2233
44139W        W87155  26.180  20.903   9.001 -0.0323  0.1350  0.0059
44140W        W87156   6.186  19.181  24.180  0.1310  0.0508 -0.2031
44141W        W87157  25.374   0.700  25.897  0.0019  0.0083  0.1752
44142W        W87158   7.966  13.618   3.163  0.3776  0.0793 -0.0982
44143W        W87159  16.946  16.627  14.198  0.1629  0.2654 -0.2494
44144W        W87160  30.697   3.489  10.372 -0.1327 -0.0597 -0.1893
44145W        W87161  25.644  10.914   5.265  0.1814 -0.1051  0.0646
44146W        W87162  20.783  13.212   8.541  0.0488 -0.0736 -0.2956
44147W        W87163  27.007  10.636   4.218  0.0565 -0.0016  0.1950
44148W        W87164  32.156  14.708  25.962  0.1038 -0.1852 -0.2127
44149W        W87165  33.601  23.719   2.131  0.0384  0.1901  0.0599
44150W        W87166  30.306   8.500   0.361 -0.1849 -0.3401 -0.0644
44151W        W87167   5.632  27.771   1.492 -0.5120  0.2203 -0.1413
44152W        W87168  25.335  10.085   2.951  0.0041 -0.2433  0.1668
44153W        W87169   3.952  11.424   9.829  0.1204  0.1794 -0.0108
44154W        W87170  33.216  20.501   8.587 -0.4091  0.1413 -0.1924
44155W        W87171  26.764  14.455  19.631  0.1469 -0.1688 -0.2158
44156W        W87172  33.401  15.951   3.044 -0.0935 -0.1148  0.0300
44157W        W87173   5.381  11.547  28.092  0.0472 -0.1953  0.0097
44158W        W87174  28.924  10.528  10.772 -0.4135  0.0496  0.1481
44159W        W87175  30.919  17.595  18.763 -0.0664  0.0585  0.4439
44160W        W87176  27.146  26.799  10.098 -0.0179 -0.4200 -0.0651
44161W        W87177  32.748   6.010   0.001  0.1205 -0.0579 -0.1540
44162W        W87178   0.019  12.067   1.148 -0.2771 -0.2731  0.1506
44163W        W87179  19.674  13.142  28.701  0.0750 -0.0347 -0.3255
44164W        W87180  22.027  18.437   9.478 -0.0062 -0.0894  0.1452
44165W        W87181  23.516  20.315  20.643 -0.0081  0.2483 -0.0165
44166W        W87182  32.368   4.022  26.464  0.1575  0.1384 -0.0292
44167W        W87183   2.198  24.057   9.498  0.1607  0.0951 -0.0577
44168W        W87184  24.090  21.073   6.074 -0.0601 -0.4736  0.0920
44169W        W87185   4.618   8.656   6.056  0.1059 -0.1186  0.2580
44170W        W87186  30.731  28.988   9.217  0.1578 -0.0541 -0.0018
44171W        W87187  25.711   3.803   5.383 -0.1575  0.3652  0.1572
44172W        W87188   4.575  23.130   2.156 -0.3380  0.0481 -0.0452
44173W        W87189  32.842   4.871   4.396 -0.3060  0.1894  0.1611
44174W        W87190  16.925  13.588   7.609  0.0469  0.0937 -0.1503
44175W        W87191  12.303  32.592   7.412 -0.0676  0.3711 -0.2651
44176W        W87192  31.750   2.075  24.755 -0.0666  0.1389  0.2993
44177W        W87193   2.146  22.866   5.585  0.0580  0.0678  0.1626
44178W        W87194  18.908  32.797   3.394  0.3397  0.2235  0.1089
44179W        W87195  28.081  10.020  28.579  0.1197 -0.0831 -0.2801
44180W        W87196   2.439  18.186  17.209 -0.1031  0.0148 -0.0363
44181W        W87197  20.351   8.959  17.971 -0.0315  0.0077  0.1129
44182W        W87198  13.757  10.830   7.015 -0.2318 -0.3859 -0.1241
44183W        W87199  33.253  17.822  26.020  0.0243 -0.3802 -0.2284
44184W        W87200  19.623  10.769   5.049 -0.0775  0.1365 -0.0183
44185W        W87201  16.902  33.871   8.956  0.1492  0.1841 -0.1776
44186W        W87202  32.397  14.420  11.214  0.0695  0.1240  0.2545
44187W        W87203  31.609  14.890  23.666 -0.2730  0.1498 -0.2686
44188W        W87204  10.787  22.807   4.983  0.5051 -0.0449 -0.0730
44189W        W87205  33.299   4.696   8.721 -0.2763 -0.1259  0.0100
44190W        W87206  25.407   4.166  24.656 -0.2764 -0.2539  0.1326
44191W        W87207   1.264  21.881  24.836 -0.0161 -0.2028  0.2837
44192W        W87208  16.434   5.040   5.069 -0.2190  0.0161 -0.1451
44193W        W87209  26.950   4.812   5.703 -0.0545  0.0697  0.1086
44194W        W87210  14.560   9.743  13.642  0.0119  0.3277  0.3101
44195W        W87211  23.941  17.705  20.189  0.0913  0.1671 -0.4284
44196W        W87212   8.467  21.147   1.623  0.1567 -0.2276  0.0619
44197W        W87213  33.407  19.483   8.737 -0.0399  0.2546 -0.0865
44198W        W87214  16.721   4.768   6.627  0.1565  0.0212  0.1392
44199W        W87215   6.433  27.614   9.087  0.0478  0.1358 -0.1388
44200W        W87216   4.495   3.744   8.895  0.3259 -0.1228  0.0139
44201W        W87217  28.207  25.876   2.978 -0.1156  0.2951  0.0078
44202W        W87218   2.420  20.800   8.712 -0.2164 -0.2042 -0.3270
44203W        W87219  22.824  20.877   1.286  0.1059 -0.1606  0.1405
44204W        W87220  27.677  11.582   2.628  0.0486 -0.1999 -0.0858
44205W        W87221   7.777  20.492  26.954  0.0203 -0.1340  0.1050
44206W        W87222  30.600  12.821   2.377 -0.2762  0.3833  0.0983
44207W        W87223  13.787  14.085  19.252  0.3853  0.1336  0.0164
44208W        W87224  22.730   8.701  23.188 -0.0974  0.0408 -0.0911
44209W        W87225  32.166  16.645   1.135 -0.1049 -0.0336  0.2309
44210W        W87226  34.335  24.340  22.609  0.0323  0.0242  0.0939
44211W        W87227  23.196  20.487  24.693 -0.0764  0.1681  0.0459
44212W        W87228   3.044   9.198   1.262  0.0616  0.2074 -0.0013
44213W        W87229  19.966   6.241   1.001  0.0010  0.1949  0.1998
44214W        W87230  29.293  12.515   1.207 -0.0121 -0.1108  0.1884
44215W        W87231  11.126  34.355   7.889 -0.2736 -0.1278  0.0566
44216W        W87232  28.632  16.192   7.181 -0.3752  0.2302 -0.0222
44217W        W87233   4.321  16.127   3.237  0.2223  0.2113 -0.2553
44218W        W87234  24.761  26.551   7.434 -0.0160  0.0531 -0.1815
44219W        W87235  32.685  22.384   3.859  0.4255  0.2945  0.2693
44220W        W87236  25.016  20.898   0.186 -0.1579  0.2702 -0.1593
44221W        W87237  17.949  13.407  25.894 -0.2288  0.1264 -0.2595
44222W        W87238  23.478  19.533  18.923 -0.0795  0.0615  0.1931
44223W        W87239  30.679   6.208   8.883 -0.0664 -0.0961 -0.0309
44224W        W87240   3.588   1.388   5.714  0.0124 -0.3808  0.0254
44225W        W87241   9.036  10.243   2.410  0.0820 -0.0521  0.0475
44226W        W87242  23.674   4.736   6.935 -0.1478  0.0457  0.2821
44227W        W87243   1.085  12.608   7.525 -0.3908  0.1165 -0.1956
44228W        W87244  21.593   8.501   6.481  0.2909 -0.0872 -0.2680
44229W        W87245  19.686  26.881  10.416  0.0343  0.2181 -0.1120
44230W        W87246  22.326  17.820  15.614  0.4293 -0.2865 -0.2715
44231W        W87247  12.317  15.110   4.529  0.2123  0.1090 -0.0283
44232W        W87248  32.700  13.469  20.099  0.1959 -0.1852  0.1915
44233W        W87249  30.134   5.171   3.296  0.0865 -0.1243  0.1942
44234W        W87250   0.179  16.220   7.755 -0.0899  0.2300 -0.0257
44235W        W87251  29.950  24.105   1.752  0.1486  0.1113  0.0816
44236W        W87252  30.726  18.795   9.013 -0.0103 -0.0619 -0.0496
44237W        W87253  32.754  13.268   0.820  0.0617 -0.0021  0.1587
44238W        W87254  32.828  20.480   3.922  0.0580 -0.3151 -0.1246
44239W        W87255  34.653   2.313  28.287 -0.0234  0.1888  0.2666
44240W        W87256  24.180  21.560   2.628  0.0302 -0.4389 -0.1595
44241W        W87257   0.140   9.504   3.025  0.1390  0.0478  0.0229
44242W        W87258   5.284  22.653   5.986  0.2074  0.3185  0.1548
44243W        W87259  33.991  12.054   5.305  0.1653  0.0120 -0.0035
44244W        W87260   6.777  11.937   1.764  0.0625  0.1257  0.2505
44245W        W87261  30.651  16.782  19.835  0.5064  0.0909  0.1565
44246W        W87262  17.066   6.874   8.812 -0.0933 -0.1164  0.1183
44247W        W87263   3.637   5.290   2.007 -0.4380 -0.0066 -0.0720
44248W        W87264   8.342  15.602   2.221 -0.3409 -0.0049  0.3064
44249W        W87265   3.884  19.530   9.227  0.0228  0.0741 -0.1702
44250W        W87266  27.805  16.757   7.038  0.1665 -0.0490 -0.0285
44251W        W87267  24.178  33.189   5.483  0.1051  0.2306 -0.3848
44252W        W87268  26.737   8.889   4.544  0.2917 -0.1901  0.0895
44253W        W87269   3.983  20.795  14.320  0.4902 -0.0066 -0.2421
44254W        W87270   7.134  22.570   8.275 -0.0384  0.0724 -0.3385
44255W        W87271  33.208   9.423   4.885 -0.0011 -0.0609 -0.3592
44256W        W87272  26.121  28.343  22.147  0.0036 -0.3049  0.0429
44257W        W87273  21.679  16.545  13.088 -0.1635 -0.1748 -0.1266
44258W        W87274   8.014  12.927   0.224  0.1238  0.0015  0.0035
44259W        W87275   2.201  19.322   6.254  0.0734  0.0834  0.1377
44260W        W87276  26.458  33.399   4.861 -0.0125 -0.0292 -0.0363
44261W        W87277  31.679  15.244  19.268 -0.0353  0.2380 -0.3994
44262W        W87278   9.696  12.602  22.987 -0.1343  0.2593 -0.0832
44263W        W87279   6.772   7.649  25.966 -0.1301  0.0492  0.5705
44264W        W87280  25.462  32.985   4.954 -0.0670  0.0561  0.3547
44265W        W87281  12.340  10.289   4.211 -0.3487  0.2441 -0.0645
44266W        W87282  25.258   9.834  28.944  0.2208  0.2108 -0.1874
44267W        W87283  21.629   2.450   4.516  0.2124 -0.1548  0.0741
44268W        W87284  31.900   9.289   1.353  0.0122  0.0803  0.1238
44269W        W87285   8.144   3.985  10.930  0.1293 -0.0334  0.0039
44270W        W87286   1.328  22.183   9.448 -0.1802  0.2619  0.0920
44271W        W87287  28.229  14.382   4.039 -0.1281  0.2340 -0.2165
44272W        W87288  32.930   6.170   8.052 -0.0787 -0.1437 -0.4597
44273W        W87289  14.304  15.521   8.452  0.3152 -0.2895  0.2012
44274W        W87290  23.700   1.140   6.904 -0.2714  0.1954 -0.0595
44275W        W87291   5.560  19.763   4.478  0.0143  0.0651 -0.0049
44276W        W87292  34.115  17.550   3.132 -0.2920 -0.0167 -0.3616
44277W        W87293  30.210  33.529   0.848 -0.1443 -0.0592  0.0571
44278W        W87294  32.270  15.932  28.441 -0.1421 -0.1396 -0.1054
44279W        W87295  33.077  13.225  25.628  0.2789  0.0905 -0.1702
44280W        W87296  33.873  20.815   8.017  0.0603 -0.0650 -0.4085
44281W        W87297   6.456  26.603   3.165 -0.2494  0.1744 -0.4128
44282W        W87298   2.183  28.830   0.797 -0.0987  0.2230 -0.0702
44283W        W87299  22.530  19.184  24.829  0.0435 -0.0914  0.1077
44284W        W87300  26.026   4.902  27.614 -0.0401 -0.3070 -0.2126
44285W        W87301  11.517  16.005   3.526 -0.0405  0.2940 -0.1742
44286W        W87302  19.159  19.881   6.881  0.0394  0.0977 -0.0542
44287W        W87303  27.817  11.820  26.248  0.3577 -0.2034  0.4030
44288W        W87304  19.987   5.484   7.638 -0.3914 -0.1499 -0.0752
44289W        W87305  26.858  13.107   7.747  0.1888  0.0215  0.1643
44290W        W87306  32.245   2.934   0.945  0.0262 -0.1027  0.2432
44291W        W87307  27.917  17.487   4.435 -0.0115  0.1704 -0.1054
44292W        W87308  29.197  19.067   0.236  0.2318 -0.1236 -0.3551
44293W        W87309   0.266  15.784  26.499 -0.0635  0.2750  0.2233
44294W        W87310  34.234   1.741   6.190  0.0347 -0.1311  0.0879
44295W        W87311   7.793   7.010  23.008  0.2482 -0.2887  0.0833
44296W        W87312  22.952  16.201   0.366  0.2739 -0.3000 -0.2678
44297W        W87313   3.559  14.344   7.638  0.1456  0.3423  0.0852
44298W        W87314  19.547  14.001   7.597 -0.0768  0.0413  0.2693
44299W        W87315  29.208  26.648  11.727 -0.0734 -0.1869  0.1826
44300W        W87316   8.005  18.229   1.567  0.0678 -0.2336 -0.1320
44301W        W87317  31.948   7.345   8.952  0.1552 -0.1458  0.0705
44302W        W87318  16.751  22.801   0.198  0.1604  0.0868  0.0541
44303W        W87319  32.700  29.878   1.675 -0.0306 -0.0338 -0.1157
44304W        W87320  28.940  16.622   8.292 -0.1773 -0.0640  0.3065
44305W        W87321  30.844   8.450   2.151 -0.1938 -0.0948 -0.2926
44306W        W87322  25.700  15.183  25.016 -0.0983  0.0716 -0.0691
44307W        W87323  24.511   8.855  15.495  0.1129 -0.1799 -0.1671
44308W        W87324  10.238  21.093   6.832  0.1278  0.1247  0.0762
44309W        W87325  24.802  10.393   4.969  0.0668 -0.1520 -0.1159
44310W        W87326  24.471   7.875   5.136  0.0660 -0.0897 -0.0506
44311W        W87327  27.072  12.366   5.446 -0.1920  0.3342 -0.2527
44312W        W87328  27.218  17.817  19.506  0.0023 -0.1710  0.0793
44313W        W87329  30.701  20.905   8.059  0.0801 -0.1894  0.1032
44314W        W87330   1.092  16.973   7.108  0.4344  0.1372 -0.2277
44315W        W87331  16.566  15.726  21.675  0.2548  0.0522 -0.0852
44316W        W87332  34.043  28.800   7.351  0.1775 -0.2011  0.2028
44317W        W87333   5.394  13.290   2.078  0.0944  0.0684  0.0426
44318W        W87334  14.358  34.407  20.048 -0.0102  0.3254 -0.2616
44319W        W87335  13.651  22.386   4.264  0.1986 -0.3659 -0.1505
44320W        W87336  33.517  14.603  25.312 -0.1862  0.2807  0.1036
44321W        W87337  15.139  10.517   3.806 -0.0034  0.1956 -0.0508
44322W        W87338   5.445   4.963  25.285  0.1047  0.1873  0.2047
44323W        W87339  31.325   8.407  15.451 -0.0695  0.0867 -0.0594
44324W        W87340  13.083  30.041  16.247  0.1122 -0.1892 -0.1607
44325W        W87341  31.404   9.475  28.906  0.1479 -0.1094  0.0106
44326W        W87342  28.647  17.967  27.255  0.1097 -0.3577 -0.1671
44327W        W87343  29.538   5.009  29.075 -0.0480 -0.1114 -0.1667
44328W        W87344  33.267  26.663   9.491  0.3882 -0.0204  0.2541
44329W        W87345   1.283   9.999   6.686 -0.1284 -0.1449  0.0184
44330W        W87346   7.353  25.985  27.674 -0.2521 -0.2358 -0.1764
44331W        W87347  22.363  14.694  20.485  0.0791 -0.2852  0.2284
44332W        W87348   4.348   3.184  18.440  0.1147 -0.0630 -0.1607
44333W        W87349  18.390   6.656   2.963 -0.2263  0.0604  0.0527
44334W        W87350  30.257  24.323   7.000 -0.0251 -0.0105  0.1790
44335W        W87351  32.157  15.928  19.182  0.1437  0.3812  0.0546
44336W        W87352  29.395  31.501   1.710 -0.0703 -0.0249  0.2202
44337W        W87353  11.107  13.798   4.783  0.1311  0.2152 -0.3142
44338W        W87354  23.122  29.714   8.249  0.0593 -0.0362  0.1517
44339W        W87355   9.728   1.704   9.368 -0.3249  0.2548  0.1324
44340W        W87356   1.977   6.688   8.568 -0.2255  0.1992  0.2506
44341W        W87357  32.995   3.575   2.309  0.1086  0.0363 -0.1176
44342W        W87358  22.428  25.668   4.191 -0.0046 -0.0432  0.0617
44343W        W87359  14.782  19.362  28.529 -0.0981 -0.0347  0.2364
44344W        W87360   7.483  21.721   5.939  0.1510 -0.0161 -0.0942
44345W        W87361  12.843  21.944   6.896 -0.3048  0.3539 -0.1791
44346W        W87362  23.983  24.443  16.926 -0.1645 -0.0930 -0.0595
44347W        W87363  31.203  10.622   0.441 -0.2314 -0.3047  0.3732
44348W        W87364  33.633  34.742   4.939 -0.0775 -0.3189 -0.0813
44349W        W87365   3.967   9.285   9.060 -0.1224 -0.0044  0.1644
44350W        W87366  16.648   7.620  26.685  0.1421 -0.1631 -0.0351
44351W        W87367  15.423  20.983  20.684 -0.2231 -0.1529  0.0882
44352W        W87368   5.388  21.701   9.556  0.1543 -0.0229 -0.1573
44353W        W87369   1.869  23.651  23.503  0.0492  0.1807  0.2822
44354W        W87370  27.929   7.431   4.018  0.2878  0.1322  0.1446
44355W        W87371   2.350  30.102   3.629 -0.1892  0.1048  0.1074
44356W        W87372  26.838  17.419  10.095  0.0219  0.0755 -0.0644
44357W        W87373  30.845  11.427   9.073  0.0704  0.3083 -0.1556
44358W        W87374   0.850   8.598   3.109 -0.0752 -0.2461 -0.0295
44359W        W87375   0.150  13.621   3.470 -0.1135  0.1776  0.0467
44360W        W87376  12.957  11.166  28.483 -0.5255 -0.2881  0.1027
44361W        W87377  22.572  25.573   6.132  0.0591 -0.2411  0.1396
44362W        W87378   2.063  13.678  23.123 -0.0914 -0.0053 -0.1283
44363W        W87379  34.523  12.544   6.054  0.0608  0.1462 -0.0917
44364W        W87380   0.283   3.825   7.692  0.2363  0.0701 -0.1131
44365W        W87381   1.564  12.290   7.547 -0.0899  0.0044 -0.1900
44366W        W87382   4.859  12.963   7.631 -0.3378  0.0943  0.1638
44367W        W87383  34.199   5.371   7.366 -0.1173 -0.2317  0.1249
44368W        W87384  26.991  17.968  27.986  0.1013 -0.0613  0.0033
44369W        W87385   7.533  15.730   2.621  0.2324 -0.2339 -0.3384
44370W        W87386  32.169  14.204   4.893  0.0423 -0.0142  0.1425
44371W        W87387  33.102  11.195  27.296  0.0448  0.3663 -0.0812
44372W        W87388  20.369  18.363  20.220 -0.0308  0.1389 -0.0049
44373W        W87389  29.702  17.419   9.574 -0.1841 -0.1992  0.1490
44374W        W87390  34.011   9.297   3.175  0.5928 -0.0907  0.2756
44375W        W87391   4.094   2.690   8.839 -0.0679 -0.3134  0.1229
44376W        W87392  28.970   2.999   6.499 -0.0394 -0.2205 -0.2733
44377W        W87393   8.601  23.320   1.964  0.2768 -0.0542 -0.1930
44378W        W87394  32.892  20.411  27.282 -0.0840 -0.1624 -0.1705
44379W        W87395  30.818  17.093   2.547  0.2160 -0.0436  0.0494
44380W        W87396  12.001  10.651  23.584 -0.0834 -0.3191 -0.2454
44381W        W87397  22.811  10.263   6.453 -0.3351 -0.0841 -0.0428
44382W        W87398  27.229   9.517   0.037 -0.0161 -0.0851  0.1811
44383W        W87399  29.954   7.422  19.288  0.0166  0.1573  0.0825
44384W        W87400  22.232  23.706   6.548 -0.0488  0.2577  0.1469
44385W        W87401  21.919   9.146   7.084  0.3155 -0.0469  0.2290
44386W        W87402  24.056  21.368  29.043  0.0928  0.4958 -0.0665
44387W        W87403  32.711  14.511   9.325  0.0684  0.0761 -0.3556
44388W        W87404   8.739  30.130  27.523 -0.2328  0.1631  0.0430
44389W        W87405  33.267   6.458   0.675  0.0716 -0.0627  0.2220
44390W        W87406  16.130   6.191   3.503 -0.0927 -0.1048 -0.1426
44391W        W87407  27.558  24.389  23.290 -0.1115 -0.0759 -0.0418
44392W        W87408  29.999   2.988   6.015  0.1392  0.1202 -0.0775
44393W        W87409   5.130  27.894  26.902  0.3658 -0.2059  0.1599
44394W        W87410  27.809  14.139   7.833 -0.1938 -0.4349 -0.0728
44395W        W87411  22.748  16.024   8.016 -0.2384 -0.6511  0.2777
44396W        W87412   2.320  22.524   7.126  0.0100 -0.0858 -0.1610
44397W        W87413  29.633  13.804  23.273  0.2759 -0.0410  0.2039
44398W        W87414  14.192  13.031   8.068 -0.1849  0.2461 -0.1037
44399W        W87415   6.827  16.878   4.947  0.3135 -0.1253  0.2129
44400W        W87416  17.121  15.943   4.122  0.2253 -0.1130 -0.0229
44401W        W87417  31.555   5.860   1.524 -0.1172 -0.1811  0.2092
44402W        W87418  34.085  15.396   8.227  0.0981  0.2478 -0.0538
44403W        W87419  27.863  18.146   4.002  0.1348  0.0628  0.4767
44404W        W87420  23.510   1.994   5.148 -0.1804  0.2145 -0.0548
44405W        W87421  33.711  26.122   0.564 -0.0373  0.0910 -0.2927
44406W        W87422  31.680  27.828   3.979  0.0245 -0.0607 -0.1862
44407W        W87423  15.274   5.635  29.016  0.0025 -0.0448  0.0900
44408W        W87424   8.819  23.841  26.755  0.2793  0.2278 -0.0246
44409W        W87425  24.839   8.210  26.827 -0.1396 -0.1357  0.2181
44410W        W87426   2.575  31.356   7.720 -0.0817 -0.2195  0.0491
44411W        W87427   0.291  17.524   2.657  0.2577  0.4736  0.0583
44412W        W87428  27.001  17.343  20.993 -0.4258 -0.4007 -0.1966
44413W        W87429  25.770  34.638   3.080  0.0357  0.0061  0.2734
44414W        W87430  14.561   8.917   2.499 -0.2810 -0.2338  0.2569
44415W        W87431  11.674  23.115  20.378 -0.1104 -0.0541  0.0339
44416W        W87432   0.834   2.906   4.114  0.0744 -0.3035 -0.1143
44417W        W87433  28.753   7.875   5.450 -0.0405 -0.2760 -0.0804
44418W        W87434  20.519  22.177  26.983  0.1023 -0.2277  0.3869
44419W        W87435  32.316   4.014  20.355 -0.1282  0.0087 -0.0537
44420W        W87436  29.391   6.947  25.758 -0.0623  0.3484 -0.0538
44421W        W87437   8.064   8.737   0.547  0.1767  0.1054 -0.1532
44422W        W87438  29.716  22.630  10.506  0.1454 -0.0622  0.1107
44423W        W87439   4.608   9.317  28.024 -0.1014  0.3236  0.0009
44424W        W87440   1.963   4.674  27.355  0.1919  0.0156  0.1383
44425W        W87441   4.862  21.797   1.665 -0.3152 -0.3571  0.4213
44426W        W87442  33.808   4.745  23.953 -0.0431  0.1005 -0.1011
44427W        W87443  33.793  21.449   2.276 -0.0325  0.2299 -0.1848
44428W        W87444  21.727  15.555  27.366 -0.0952 -0.2569  0.0658
44429W        W87445   5.600   8.369   9.426  0.1212 -0.0824 -0.0652
44430W        W87446  30.169  14.103   0.766  0.0648  0.2403  0.1572
44431W        W87447  32.094  17.836  15.517 -0.0547 -0.0405 -0.0032
44432W        W87448  14.767   6.645   8.798  0.0094  0.2831  0.2907
44433W        W87449  21.585  24.108  24.977 -0.1582  0.3404  0.0938
44434W        W87450  27.746  23.932  28.129 -0.3642  0.2581 -0.0264
44435W        W87451  19.808  23.995   1.921 -0.0952  0.2538  0.1207
44436W        W87452  32.397  15.704   8.096  0.0977  0.0731 -0.0744
44437W        W87453  31.838   7.344  24.658  0.1008 -0.0427  0.2702
44438W        W87454   7.630  19.014   2.111  0.0608  0.0197  0.1942
44439W        W87455  24.024  13.175  29.301  0.0377 -0.0653 -0.0769
44440W        W87456  22.433   0.596   7.322 -0.0129  0.1809 -0.4430
44441W        W87457  34.745  10.886   8.357 -0.1248 -0.1389 -0.4265
44442W        W87458  21.569  21.485  18.224 -0.0808 -0.0489  0.2640
44443W        W87459   6.188  15.657  17.742 -0.1641  0.0000  0.1282
44444W        W87460  33.122  19.546  20.513  0.2202 -0.2413 -0.1827
44445W        W87461  33.235  17.355   2.527 -0.1522  0.5568 -0.0751
44446W        W87462  25.009   9.779   8.985  0.2158 -0.6014 -0.0440
44447W        W87463  17.628   2.831   1.450  0.1859 -0.0284  0.1399
44448W        W87464  14.028  10.976  25.951  0.1244  0.1820  0.1018
44449W        W87465   5.366  14.816  26.331  0.1491 -0.1843 -0.0702
44450W        W87466   1.915   6.715   6.241  0.0058 -0.3025 -0.2531
44451W        W87467  21.656   5.944   2.419 -0.2790  0.0065 -0.0931
44452W        W87468  24.548  10.913   9.512 -0.0887 -0.1196  0.1259
44453W        W87469   9.112  16.671   2.925 -0.1707  0.1335  0.1160
44454W        W87470  19.742  18.522   0.271  0.0230 -0.0505 -0.0667
44455W        W87471   2.640   5.192   7.474 -0.0638  0.0559 -0.2714
44456W        W87472  33.196   2.063   9.520 -0.3395 -0.2060 -0.2557
44457W        W87473  26.431   8.281  25.205  0.0099  0.0929  0.0266
44458W        W87474   4.309  16.314  25.966  0.2202 -0.0734 -0.0762
44459W        W87475  19.102  34.697   8.562 -0.0116 -0.0107 -0.2614
44460W        W87476  19.575  18.213  20.898  0.0420  0.0234  0.0743
44461W        W87477  22.288  15.451   5.232  0.3251  0.0418 -0.3424
44462W        W87478  24.211  15.264  25.801 -0.0464  0.0066  0.2072
44463W        W87479  34.593  14.116   9.422 -0.3759  0.0395 -0.1953
44464W        W87480  29.828  17.649  23.507 -0.2531 -0.1742  0.1430
44465W        W87481  18.671  17.434   7.744  0.0688  0.2362  0.1496
44466W        W87482  22.795  13.153   9.218  0.1392  0.1583  0.0981
44467W        W87483   5.366   1.200  28.655 -0.0785  0.0560  0.2718
44468W        W87484  33.968  20.529   6.147 -0.0245 -0.2539 -0.1702
44469W        W87485  10.972  17.971  28.812 -0.1219  0.3153  0.3206
44470W        W87486   2.379  18.242   5.935  0.1273 -0.0751 -0.0073
44471W        W87487  28.292   2.793   3.819  0.0605 -0.0189 -0.0239
44472W        W87488  25.339  17.878   0.057 -0.1321 -0.0430  0.1178
44473W        W87489  28.312  28.224   8.202 -0.2209 -0.2526 -0.0207
44474W        W87490  25.316  20.375   7.177  0.3295 -0.0297  0.0275
44475W        W87491  33.211  13.298   4.780  0.3815 -0.0098  0.1250
44476W        W87492   0.154  22.882   3.994 -0.3302  0.0025  0.2836
44477W        W87493  30.395  15.146   9.251 -0.1233 -0.0606 -0.0823
44478W        W87494   2.324   9.631  27.692  0.0425  0.2289  0.0813
44479W        W87495  24.174  34.227   6.301  0.2522  0.0947  0.0956
44480W        W87496  30.756  19.717   7.459  0.1159  0.0229 -0.1685
44481W        W87497  29.316  17.444   7.984 -0.1509  0.0695 -0.0843
44482W        W87498  23.900  23.007  17.303  0.1585  0.0640  0.0184
44483W        W87499  27.570   9.090  10.603  0.2193  0.0624  0.0035
44484W        W87500  30.458  14.997   4.690  0.0317  0.0280 -0.3652
44485W        W87501   4.294  14.840  28.920  0.3200  0.4985 -0.3501
44486W        W87502   9.439  13.133   2.968  0.0033  0.1229 -0.0369
44487W        W87503   8.143  13.080   1.884  0.1880  0.2727 -0.3250
44488W        W87504  20.989  14.607  19.736 -0.4301 -0.1519 -0.0285
44489W        W87505  32.818  18.550   7.856 -0.1755 -0.0442 -0.1219
44490W        W87506  30.578   9.888   6.207 -0.0545  0.0907 -0.2040
44491W        W87507   2.808  22.634   8.095 -0.0948  0.1506  0.0349
44492W        W87508   4.397  19.949   4.099  0.0492  0.1975  0.0762
44493W        W87509  12.723  11.856   7.315  0.0676 -0.0656  0.0049
44494W        W87510  18.782   2.598   1.129 -0.1697 -0.1821  0.1166
44495W        W87511  15.822  18.257   3.350 -0.1210 -0.0609  0.1253
44496W        W87512  25.523   1.755   8.202 -0.2208 -0.0223  0.0434
44497W        W87513  26.572  15.286   9.138  0.1175 -0.1525  0.1881
44498W        W87514  22.430  14.066   6.568  0.2313 -0.4674 -0.2566
44499W        W87515   8.260   7.391   6.732  0.4051  0.2519 -0.1408
44500W        W87516  26.242  10.784  25.770 -0.0322 -0.1130  0.0847
44501W        W87517  22.851  18.742   2.461 -0.0225  0.4883 -0.0236
44502W        W87518  14.299  19.711  12.368 -0.3209  0.4906  0.2814
44503W        W87519  31.192  22.071   9.148  0.0660  0.1603 -0.1020
44504W        W87520  14.279   4.460   3.732 -0.0819 -0.0350 -0.0971
44505W        W87521  14.646  12.347  20.589  0.0891 -0.0524 -0.0587
44506W        W87522  13.432  15.818   8.355  0.0140  0.1415 -0.1352
44507W        W87523  31.836  21.818   5.082 -0.0735  0.0888 -0.1029
44508W        W87524  14.155  26.403   5.605  0.0911 -0.0380  0.0401
44509W        W87525  27.629  18.401   8.805 -0.1794  0.0135  0.0196
44510W        W87526  14.581  27.327   8.344 -0.2134 -0.0641  0.1034
44511W        W87527  20.188   9.610   8.520  0.1645  0.3337  0.0661
44512W        W87528  29.018  14.022  19.805  0.1953 -0.2409  0.2654
44513W        W87529   1.628  30.919   1.393  0.2826 -0.0915 -0.1266
44514W        W87530   5.487  13.822  27.068 -0.4325  0.0291  0.2065
44515W        W87531  22.467  11.433   9.193  0.1146 -0.2899  0.1658
44516W        W87532  12.943   7.707   1.109  0.2363 -0.0272 -0.2881
44517W        W87533   0.005  11.254  25.010 -0.1292  0.0015 -0.1614
44518W        W87534   0.698  26.941   9.274 -0.1539  0.3012  0.0099
44519W        W87535  31.893   5.082  29.300  0.3156  0.1359 -0.2596
44520W        W87536   7.864  20.759  28.839  0.2726 -0.1177  0.0232
44521W        W87537   8.845  16.220   6.969  0.0205  0.3961  0.5396
44522W        W87538  28.426  17.865   4.960  0.0040  0.2128  0.0530
44523W        W87539  29.571   9.607  10.636 -0.0759 -0.1483  0.0404
44524W        W87540   3.961   5.406  21.777 -0.2253  0.0777 -0.1721
44525W        W87541  23.831  11.674  23.645  0.0884  0.1433  0.0837
44526W        W87542  27.481   5.770  10.063 -0.0258 -0.0127  0.3749
44527W        W87543  22.959  28.641  10.942 -0.0582 -0.0280 -0.0903
44528W        W87544  27.976   7.464  22.697 -0.3143 -0.0982 -0.2758
44529W        W87545  30.573  34.597   5.322  0.0030 -0.2090  0.1378
44530W        W87546  19.968  25.941  14.391  0.1277 -0.0809 -0.1569
44531W        W87547  28.815  13.832  23.956 -0.1608  0.0001  0.3414
44532W        W87548  24.920  34.463  15.337 -0.0888  0.2668  0.3803
44533W        W87549  26.428   5.428  11.255  0.0032 -0.2806 -0.1313
44534W        W87550  18.101  17.233   2.026 -0.0799  0.3077  0.2520
44535W        W87551  32.993  25.650   9.405  0.2743 -0.1602  0.0942
44536W        W87552  15.560  10.691   2.311 -0.0491 -0.1013  0.3509
44537W        W87553  26.973  11.016   5.572  0.2111  0.1344 -0.0446
44538W        W87554  33.712  19.461   8.353 -0.1697  0.0961 -0.1503
44539W        W87555  23.095  20.731   7.984 -0.0858 -0.0185  0.0471
44540W        W87556   5.876  16.848   7.730  0.1148 -0.0253 -0.1336
44541W        W87557  30.615  27.871   4.006 -0.0916 -0.0386  0.1851
44542W        W87558  28.522  15.895   8.038 -0.2275  0.2262  0.1047
44543W        W87559  23.812  31.708   3.467 -0.0045 -0.2768  0.2597
44544W        W87560  31.221   7.842  21.530 -0.1184 -0.1402 -0.1903
44545W        W87561  33.409   6.039  25.936  0.2786 -0.0499  0.1838
44546W        W87562  24.141  16.968  23.309 -0.1356  0.0120 -0.0116
44547W        W87563  18.103   6.840   5.334  0.3112 -0.2033 -0.0434
44548W        W87564   2.063  16.075  10.018  0.1878 -0.2632 -0.1693
44549W        W87565  20.868   6.550   6.984 -0.2744  0.2167  0.0666
44550W        W87566  29.131   6.347  24.096 -0.1557  0.2235 -0.0624
44551W        W87567   9.699  13.210   5.454 -0.1488  0.0768 -0.1556
44552W        W87568   0.737  19.043   0.127  0.1789 -0.1711 -0.4105
44553W        W87569   3.307   8.633   5.339  0.3024  0.0202  0.1575
44554W        W87570   5.089  12.924  20.042  0.1637  0.1304  0.2120
44555W        W87571   0.943  10.041   6.215 -0.2484  0.0439 -0.1815
44556W        W87572  23.893  12.492   6.174 -0.1318  0.3841 -0.1260
44557W        W87573  32.045  20.352  25.565  0.2318 -0.0172  0.2388
44558W        W87574  24.884   2.056   6.117  0.2964  0.1213 -0.1080
44559W        W87575  32.648  33.549   3.198 -0.5753 -0.1224  0.4060
44560W        W87576   1.997  10.418   3.666 -0.2178  0.2028  0.2115
44561W        W87577  29.250  23.602   8.746  0.2124  0.0450 -0.1409
44562W        W87578  28.172  10.432   9.178  0.0236 -0.0697 -0.0046
44563W        W87579  20.094  14.278   2.474  0.4434  0.0451 -0.4668
44564W        W87580   5.259   7.474  10.009  0.0412 -0.0723 -0.1610
44565W        W87581   5.921   6.030   8.029 -0.0936 -0.1057 -0.0640
44566W        W87582   8.101  11.406   5.531  0.1705  0.0721  0.2412
44567W        W87583   0.950  12.911  10.165  0.0106 -0.1261  0.4156
44568W        W87584  26.495  11.253  25.820  0.1502  0.3808 -0.1232
44569W        W87585  28.677  11.636   4.382 -0.1400  0.2779  0.1532
44570W        W87586  28.123  24.420   6.588 -0.1334 -0.1358 -0.1112
44571W        W87587  21.397  16.372   8.192  0.2895  0.1267  0.0176
44572W        W87588   2.995  14.503   9.873  0.1193 -0.1036  0.1226
44573W        W87589  30.786  13.758  26.277 -0.2500  0.1619  0.0605
44574W        W87590   2.456  33.337  21.061 -0.1538 -0.0883  0.0640
44575W        W87591  23.627   4.703   5.112 -0.2900  0.0840  0.0684
44576W        W87592   0.521   5.605   7.273  0.2202 -0.3151  0.2205
44577W        W87593  10.987   6.162   5.180  0.2467 -0.1946  0.0518
44578W        W87594   2.143  17.043   2.385 -0.3420 -0.1124 -0.0643
44579W        W87595  25.960  12.821   0.508 -0.2172  0.2913  0.0031
44580W        W87596  32.998  32.135   9.763  0.0795 -0.0194 -0.0555
44581W        W87597  29.715   5.078  10.170 -0.1824 -0.1917  0.0942
44582W        W87598  22.865   8.914   3.372  0.1696 -0.1042 -0.1556
44583W        W87599  15.323  12.476   5.788  0.1742  0.1706 -0.0905
44584W        W87600   7.014  14.412   1.674  0.3614 -0.1716 -0.2047
44585W        W87601   5.254   9.195  27.964 -0.0212 -0.0047 -0.4156
44586W        W87602  14.331   8.513   6.729  0.3052  0.1794  0.0158
44587W        W87603  29.080  18.216  24.726 -0.0780 -0.2534 -0.0515
44588W        W87604  29.893   1.357  27.670  0.1930 -0.2815  0.1437
44589W        W87605  25.089   2.714  11.647  0.0166 -0.0632 -0.0738
44590W        W87606  31.915  17.721   2.557 -0.1612  0.2116  0.0775
44591W        W87607  12.342   9.671   4.867 -0.0877  0.3034  0.3985
44592W        W87608  19.959   7.889   6.776 -0.0795  0.1118  0.2793
44593W        W87609   8.464  15.563  27.215  0.0561  0.3697 -0.0589
44594W        W87610  27.601  11.794   9.631  0.0139  0.0178  0.0030
44595W        W87611  27.474  20.742  18.828 -0.0070 -0.2487 -0.0892
44596W        W87612  22.682  12.105   7.797  0.0852  0.1905 -0.1125
44597W        W87613  18.142  13.921  22.225 -0.3048  0.4518 -0.1582
44598W        W87614  24.892   7.049   6.650  0.1475 -0.1986 -0.0874
44599W        W87615   6.377  33.492  25.630  0.2628 -0.0252  0.2332
44600W        W87616  21.050  15.994   7.268  0.0872  0.0874 -0.1393
44601W        W87617  11.349  33.257   4.459  0.0586 -0.1218  0.3008
44602W        W87618  28.491  12.515   1.854  0.0933 -0.4895 -0.1276
44603W        W87619  25.483   4.619   2.122 -0.1555  0.1439  0.0623
44604W        W87620   1.566  24.385   8.742 -0.2344 -0.0669 -0.1034
44605W        W87621  10.205  33.867   2.947  0.0743  0.2177  0.0491
44606W        W87622  27.364  11.883   5.459 -0.0579 -0.1263 -0.0117
44607W        W87623  20.840  18.547  28.361  0.0378  0.1490 -0.0890
44608W        W87624   6.252  14.607   9.351 -0.0347  0.2450  0.0316
44609W        W87625  25.168   4.231  23.430 -0.1145  0.3635  0.1539
44610W        W87626   7.955  26.100   5.514  0.1608  0.0430 -0.1864
44611W        W87627  16.196   4.960  28.449 -0.0253  0.0453  0.0435
44612W        W87628  30.224   5.636   3.533  0.0325  0.1402  0.1762
44613W        W87629  27.876   8.222   1.633  0.2429  0.1054 -0.4086
44614W        W87630  14.394  27.157   6.376 -0.2826  0.1939  0.3185
44615W        W87631  25.419   3.949   4.276 -0.0883 -0.2703  0.0186
44616W        W87632   4.392  20.294   8.424 -0.2667 -0.6001 -0.2496
44617W        W87633  18.870  14.850   3.969 -0.0689  0.3978  0.1277
44618W        W87634  31.779  27.363   1.307  0.0868 -0.0481  0.0838
44619W        W87635   2.972  28.501  26.676 -0.0435 -0.0377  0.1135
44620W        W87636  34.440  15.300   4.930  0.3008  0.0725 -0.1299
44621W        W87637  13.698  18.831  27.183  0.2122  0.1206  0.2944
44622W        W87638   0.240  14.519   1.549  0.3464  0.1816 -0.1418
44623W        W87639   0.301  16.916   7.309 -0.0839  0.0715 -0.0620
44624W        W87640  11.887  14.633  20.814 -0.0169 -0.3379  0.2348
44625W        W87641  26.491  29.967   5.978 -0.0690 -0.0103 -0.0378
44626W        W87642  30.449  22.400  11.229  0.0066  0.2148  0.2314
44627W        W87643   4.652  14.004   5.261  0.1980  0.5343  0.2795
44628W        W87644  20.464  13.697  27.785  0.0410 -0.0571  0.0341
44629W        W87645  26.677  18.934   4.370  0.0954 -0.2058  0.2474
44630W        W87646  13.263  19.445   7.924 -0.0659  0.0216  0.0600
44631W        W87647  28.104  34.420  25.814  0.0284  0.1566 -0.0726
44632W        W87648  19.798  15.204  27.536 -0.1456  0.0484  0.0045
44633W        W87649   4.981   5.480   8.977 -0.1689 -0.0935 -0.0491
44634W        W87650   2.754  14.350   0.152 -0.0926  0.0879  0.0207
44635W        W87651  33.683  19.262   1.013  0.2342  0.0938  0.0070
44636W        W87652   5.464  13.976   0.906  0.2316 -0.3478  0.0674
44637W        W87653  23.249   9.968   1.675  0.2917 -0.0667  0.0926
44638W        W87654  31.416  10.409   4.145  0.2734  0.0911 -0.0575
44639W        W87655   0.910  25.594  28.659 -0.0981 -0.0147 -0.0306
44640W        W87656  23.705  34.564  27.208  0.0469  0.0135 -0.1758
44641W        W87657  24.178  22.019   4.565  0.1356 -0.0963 -0.2143
44642W        W87658   4.071   7.545   8.677 -0.3307 -0.1110 -0.0393
44643W        W87659  28.286  13.841   0.637 -0.0662  0.0249  0.0202
44644W        W87660  28.068  23.878  10.144 -0.0469  0.0353  0.0519
44645W        W87661  26.895  22.534   6.697  0.0290 -0.2384  0.1756
44646W        W87662  20.316   2.034   6.392  0.4524  0.0202 -0.0881
44647W        W87663   9.461   9.087   8.867 -0.2769  0.1188  0.2658
44648W        W87664  32.703   2.367   5.724  0.0034  0.2384  0.0367
44649W        W87665   5.557   8.104  21.976  0.0341 -0.1469  0.2247
44650W        W87666  12.174   4.172  27.480 -0.0223  0.2117 -0.0332
44651W        W87667   1.623   0.140  29.293  0.0687 -0.0921  0.0542
44652W        W87668  10.680  17.929   7.114  0.1356 -0.1487  0.2666
44653W        W87669  25.926  16.366   5.714  0.3835  0.1938  0.0060
44654W        W87670   0.700   4.854   4.842 -0.3049 -0.4502  0.0640
44655W        W87671  28.225   5.433  10.662  0.1159 -0.0084  0.0220
44656W        W87672  31.560  24.109   5.825  0.0580 -0.0247 -0.0656
44657W        W87673  12.664  16.162   3.599 -0.0098  0.3013 -0.2988
44658W        W87674  13.462  12.306  23.363 -0.2771 -0.0256  0.2088
44659W        W87675  20.189  22.303   2.191 -0.1882  0.0492 -0.0305
44660W        W87676   2.944  19.401   7.823  0.4193 -0.1549  0.0769
44661W        W87677  32.168  15.244   5.676 -0.0797 -0.2650 -0.2253
44662W        W87678  25.155  20.401  10.180  0.1511 -0.1501  0.0825
44663W        W87679   5.058  27.430  25.633 -0.0563 -0.4371  0.1517
44664W        W87680  15.155  20.493   3.575 -0.0641 -0.0133 -0.0597
44665W        W87681  25.173   5.495   4.107 -0.0143  0.2305 -0.3061
44666W        W87682  26.922   4.910   8.704  0.1250 -0.1619  0.1813
44667W        W87683  11.353  17.820  20.759  0.2176 -0.2306 -0.1296
44668W        W87684  14.824  21.669   2.560  0.1970 -0.0576 -0.3557
44669W        W87685  18.997  28.727   8.954 -0.2755  0.2723 -0.1717
44670W        W87686   3.845  14.648  15.188 -0.1980 -0.0967 -0.0064
44671W        W87687  29.761  31.282   7.379  0.0339  0.0772 -0.0875
44672W        W87688  33.613   4.583   2.606  0.0300 -0.0049 -0.0669
44673W        W87689  10.834  23.106  25.573 -0.2888 -0.1581  0.0591
44674W        W87690  24.751  14.479  21.800  0.0588 -0.1014 -0.0524
44675W        W87691  24.633   6.255   7.893 -0.1859  0.0082 -0.1768
44676W        W87692   5.210  15.026   3.499  0.0858  0.3180 -0.3735
44677W        W87693  25.338  22.397   6.241 -0.0189  0.1166 -0.3942
44678W        W87694  31.515  25.188   3.343 -0.0865  0.1355 -0.3459
44679W        W87695   6.593  13.391   8.098  0.0013  0.2170 -0.0192
44680W        W87696  26.974  15.808   0.730 -0.2082 -0.1593 -0.0316
44681W        W87697  28.643  10.292  26.224 -0.1589 -0.0823 -0.0324
44682W        W87698  21.280   7.655  22.747  0.4195  0.0479 -0.3123
44683W        W87699  20.852  32.223   6.308 -0.3162 -0.1730  0.0792
44684W        W87700  22.901   9.051   2.246 -0.1398  0.1460 -0.0459
44685W        W87701  23.563  12.342  29.207 -0.0043  0.2390 -0.0210
44686W        W87702  23.572  16.433  21.096  0.1308  0.1064  0.3623
44687W        W87703  24.486  14.309  22.677  0.0385 -0.0713 -0.2538
44688W        W87704  20.946   8.619  24.147 -0.2365  0.2271  0.0064
44689W        W87705  33.998  25.275  26.194  0.0903 -0.0445 -0.0823
44690W        W87706  19.803   7.575   3.431  0.0280 -0.5013  0.3287
44691W        W87707  32.889  17.837   3.239 -0.0064  0.3271  0.1063
44692W        W87708  18.958  13.900  23.844  0.2736 -0.0200 -0.4596
44693W        W87709  32.686  11.142   0.674  0.1035  0.0412  0.0975
44694W        W87710  31.789  14.642  23.306 -0.1012  0.0188 -0.2183
44695W        W87711  27.174  22.743   4.497 -0.1104  0.4304 -0.1954
44696W        W87712  31.903  16.623   4.978  0.0666 -0.1765  0.0378
44697W        W87713  33.547   5.802   1.570  0.0430  0.1768 -0.0093
44698W        W87714   7.537  11.288   0.514  0.0431 -0.1633 -0.3643
44699W        W87715  16.961  15.548   5.617  0.1822  0.0527 -0.0670
44700W        W87716  27.395  33.346   9.630 -0.1420  0.2246 -0.1153
44701W        W87717  21.248  16.199  20.978  0.0907 -0.1125 -0.0362
44702W        W87718  18.247  32.193  10.146 -0.0549 -0.2848 -0.0756
44703W        W87719  26.674  18.375   4.398  0.0911 -0.0642  0.1825
44704W        W87720  30.387  30.220   8.653  0.1152 -0.0992 -0.1376
44705W        W87721  14.596  24.761   9.229 -0.0619 -0.1657 -0.1627
44706W        W87722  24.395   8.925  27.215 -0.1349 -0.0147 -0.4997
44707W        W87723  27.103  15.807   1.779 -0.1045  0.0504 -0.4243
44708W        W87724  31.365  31.034   0.154 -0.1894 -0.0986  0.1573
44709W        W87725  10.625  23.038   6.312 -0.0048 -0.1809 -0.1285
44710W        W87726  20.739  22.972   0.331 -0.0017  0.2510 -0.3966
44711W        W87727  26.763  21.381   2.476 -0.1424 -0.1712 -0.1500
44712W        W87728  30.264  18.234   2.712 -0.3577  0.1530  0.0648
44713W        W87729  32.725   0.541   9.255  0.2569 -0.0526  0.0554
44714W        W87730  31.933  16.133  10.423 -0.0132  0.3730 -0.1656
44715W        W87731  20.195  13.433   2.213 -0.1007 -0.1746 -0.0503
44716W        W87732  29.794  19.708  15.328 -0.4009 -0.2177 -0.0409
44717W        W87733  10.878  15.658  16.742 -0.0196 -0.1119 -0.0213
44718W        W87734   3.103  23.555   9.607 -0.2319  0.2121 -0.0580
44719W        W87735  11.460  10.499  21.085 -0.1508 -0.0813  0.1447
44720W        W87736  30.842  26.068  10.134  0.3046  0.0384 -0.0830
44721W        W87737  20.761  16.080  13.896  0.0826 -0.5182  0.1074
44722W        W87738  20.166  17.012  28.480  0.4918  0.1449 -0.2641
44723W        W87739  22.810  25.636   5.741 -0.1726  0.0947 -0.1033
44724W        W87740  17.988  34.200  25.964 -0.2021 -0.3696 -0.0015
44725W        W87741  26.505   2.143  11.037 -0.0613  0.1330 -0.2592
44726W        W87742   1.541  14.739  18.547 -0.2303 -0.2743  0.2996
44727W        W87743  33.903  27.842  24.128 -0.1054 -0.3188 -0.0205
44728W        W87744  25.366   4.441  10.616  0.0501 -0.0173  0.1530
44729W        W87745  26.749  21.238  26.170  0.1471  0.2422  0.1533
44730W        W87746   4.105   8.556   0.278 -0.1305 -0.1071 -0.0528
44731W        W87747   9.265  13.019   3.662 -0.0993  0.0993 -0.0678
44732W        W87748  25.538  16.151   6.117  0.2515 -0.1030 -0.1210
44733W        W87749   9.275  33.652  25.244  0.3923 -0.1219  0.0033
44734W        W87750  21.150   8.313   2.242  0.0744 -0.0977  0.1202
44735W        W87751  31.784  19.223  11.262 -0.4180 -0.3507  0.3128
44736W        W87752   4.570  20.877  21.751  0.0697 -0.3012 -0.0720
44737W        W87753   5.337  32.934   3.157  0.1512 -0.2880 -0.1490
44738W        W87754  30.607  12.646   7.788  0.1347  0.1488  0.1544
44739W        W87755   0.458  32.274  24.589  0.0726  0.0587  0.1625
44740W        W87756   6.693  24.317   2.554  0.2903 -0.1227  0.2823
44741W        W87757   4.952  11.980  19.403 -0.0382 -0.0618 -0.2525
44742W        W87758   9.048   4.438  26.323  0.1858  0.0981 -0.2572
44743W        W87759  14.836  12.255  19.489  0.2288 -0.1251 -0.1708
44744W        W87760  33.540   9.256   5.325 -0.1049 -0.3655  0.0637
44745W        W87761  16.961  17.662  26.148 -0.0388  0.1222  0.2630
44746W        W87762  12.460  22.385  18.517 -0.0243 -0.0389  0.0471
44747W        W87763  28.169   1.588  22.540  0.1966  0.3695 -0.0205
44748W        W87764  20.454  24.007  22.234 -0.1660  0.3509 -0.1087
44749W        W87765   2.657  16.846   4.724  0.0670  0.1922  0.0999
44750W        W87766   9.128   8.265   5.969 -0.0157 -0.0364 -0.0007
44751W        W87767  30.303  31.095  10.274  0.4316 -0.1085 -0.0450
44752W        W87768   2.714  30.098   7.284 -0.0979 -0.0502 -0.0791
44753W        W87769   9.477  14.486  28.998  0.0362 -0.1065  0.0521
44754W        W87770  29.075  29.341  20.937 -0.0225  0.0834  0.1326
44755W        W87771  19.498  16.555  24.855  0.0772  0.2020  0.2610
44756W        W87772  33.801  12.156  18.419  0.1257 -0.3196  0.0410
44757W        W87773  12.105   0.380   2.400 -0.1634  0.1362 -0.0219
44758W        W87774   3.309  20.599   3.308  0.0346  0.0516  0.5096
44759W        W87775  22.670   4.244  24.384 -0.5026  0.1276 -0.2951
44760W        W87776   4.108   4.559   4.484 -0.1096  0.2976  0.0739
44761W        W87777  17.709  29.840  28.417  0.3073  0.0882 -0.1791
44762W        W87778  33.821  29.949  28.338  0.2071 -0.1355  0.0488
44763W        W87779  11.395  16.611  29.072  0.0469  0.1178  0.3509
44764W        W87780   3.181  25.776   9.088  0.2457 -0.2467 -0.1845
44765W        W87781   3.795   8.740  15.155 -0.0944 -0.0574  0.0387
44766W        W87782  12.754  19.383   5.445  0.0652 -0.0876  0.0588
44767W        W87783  22.075  14.387  16.926 -0.2514  0.0201 -0.1629
44768W        W87784  30.661   1.100   2.919 -0.0890  0.1078 -0.2851
44769W        W87785  23.161  23.359   6.691  0.1074  0.2601  0.1762
44770W        W87786  10.759  14.211   5.531  0.0397  0.2188  0.3068
44771W        W87787  23.613  13.539  25.029  0.3057  0.2725 -0.1093
44772W        W87788   0.443  17.137   6.822  0.1426  0.2573  0.1464
44773W        W87789  23.049   8.735  18.525  0.3693  0.2116  0.1368
44774W        W87790  31.456  28.873  24.233  0.3740  0.1501  0.3053
44775W        W87791   6.616  11.744  26.175  0.2649 -0.2266 -0.1541
44776W        W87792  22.761  10.387   3.283  0.0099  0.1002  0.2046
44777W        W87793  29.362  13.147  16.327 -0.1467  0.0240 -0.1210
44778W        W87794  30.416  27.912  23.132 -0.1414 -0.2787 -0.0076
44779W        W87795  28.923  14.748  29.171  0.1074  0.0229  0.0257
44780W        W87796  34.477   8.896  19.144 -0.0375 -0.1701 -0.1148
44781W        W87797   1.758  31.820  16.967 -0.0859 -0.0405 -0.4659
44782W        W87798  27.950  10.082  24.349 -0.0813 -0.0385  0.0335
44783W        W87799   0.463  30.168  26.836  0.1742 -0.0413  0.1640
44784W        W87800  20.000  14.597   1.373  0.3815  0.2866 -0.0684
44785W        W87801   1.298  24.954   8.490  0.3639  0.0823  0.0613
44786W        W87802   4.416  26.038   8.146 -0.1092  0.0329  0.0858
44787W        W87803  22.794   7.767   1.834  0.0069 -0.1349 -0.0515
44788W        W87804  32.882  19.455   6.301  0.3320  0.0856 -0.1935
44789W        W87805  32.983   1.035  24.770 -0.0305 -0.1320 -0.1243
44790W        W87806  31.664  11.667  24.080 -0.3508  0.0018  0.0175
44791W        W87807  31.554   3.059  28.549 -0.1760 -0.3950  0.1101
44792W        W87808   4.222  23.690  19.406  0.1491  0.1001  0.2741
44793W        W87809  11.566   7.265   4.611 -0.2692 -0.0089  0.1830
44794W        W87810  16.976  17.467   0.135 -0.0043 -0.1522 -0.0324
44795W        W87811  27.913  21.395  22.663 -0.0129 -0.1411 -0.2025
44796W        W87812   1.855  12.415   8.008  0.0494 -0.1482 -0.0054
44797W        W87813   5.569   4.619   5.714 -0.2172  0.0306  0.1539
44798W        W87814  21.157  29.487   9.651 -0.0830  0.0903  0.1559
44799W        W87815  13.070  17.314   6.118  0.0566 -0.0489 -0.0304
44800W        W87816  31.339  24.411  21.132 -0.0724 -0.3748  0.0270
44801W        W87817  24.796   1.520  25.612 -0.0356  0.0495  0.1342
44802W        W87818  29.293   0.044   5.348 -0.1427 -0.1988 -0.1861
44803W        W87819  28.915   6.509   1.309  0.0348  0.3774  0.0925
44804W        W87820  31.685  14.433   8.785 -0.2357 -0.0596  0.0912
44805W        W87821  33.972  26.019  19.313 -0.0006 -0.1782  0.1904
44806W        W87822  28.131  17.195  22.015  0.0618  0.5993  0.2277
44807W        W87823  29.929  15.846   5.678 -0.2649 -0.2128  0.2209
44808W        W87824  32.747  24.413  18.613  0.0577 -0.1227  0.1338
44809W        W87825  28.599  10.303   2.896 -0.1815  0.1368 -0.1443
44810W        W87826  26.943   4.520   3.650  0.0699 -0.2602  0.2135
44811W        W87827  14.717  19.856   1.898 -0.3994  0.2737  0.1850
44812W        W87828   1.059   5.180  23.608  0.0471 -0.1492  0.0516
44813W        W87829   5.548  23.787   7.257 -0.2287 -0.1486 -0.1195
44814W        W87830  32.946  21.356   5.602  0.1003  0.3110 -0.2766
44815W        W87831  26.279  13.500  25.282  0.0720 -0.0316  0.0973
44816W        W87832   1.865   1.348   4.646  0.1059 -0.0590 -0.0925
44817W        W87833   2.994  23.752  20.581  0.0076  0.0892 -0.0092
44818W        W87834   8.357  29.415  27.631  0.1797  0.1494  0.0934
44819W        W87835   0.310  31.256  27.779 -0.1945  0.2915  0.1187
44820W        W87836  33.022  14.398   5.449  0.1502  0.0797  0.1644
44821W        W87837   2.155   4.850  21.989 -0.2126 -0.0757 -0.4139
44822W        W87838  30.440  16.282   3.067  0.2741 -0.1019 -0.1012
44823W        W87839  23.783   9.630  24.109  0.1119 -0.0090 -0.1661
44824W        W87840   1.151  17.496   7.024  0.1861  0.0682 -0.0628
44825W        W87841  23.710  21.027  27.007  0.0497 -0.3113  0.2413
44826W        W87842  16.759  16.109   5.509  0.2806 -0.1398  0.0977
44827W        W87843   8.265  26.792   5.096  0.1836 -0.0678  0.4795
44828W        W87844   4.938   4.616   3.432 -0.0215 -0.0824  0.1148
44829W        W87845  32.578  17.473   0.847  0.1894  0.0328  0.0379
44830W        W87846  27.684  13.785   3.496 -0.0240 -0.2483  0.2319
44831W        W87847  26.405   3.490   3.042  0.1069  0.0331 -0.2473
44832W        W87848  32.472  13.942  21.957  0.0009 -0.1894 -0.4220
44833W        W87849   4.381  24.290   4.607  0.0029 -0.2346  0.0568
44834W        W87850  25.187  32.255   7.766  0.0096  0.2016 -0.1432
44835W        W87851   1.706  14.184   3.433 -0.2048 -0.0280  0.1041
44836W        W87852  28.951  22.563   3.399 -0.1650 -0.2831  0.1847
44837W        W87853  28.972  12.079   6.319 -0.2361 -0.0041  0.0577
44838W        W87854   0.910   4.791   9.580  0.0714 -0.0465 -0.0162
44839W        W87855  13.017  11.512   8.292 -0.0533 -0.1848 -0.0956
44840W        W87856   4.217  28.522   1.499  0.0867 -0.3610 -0.0170
44841W        W87857  23.224  11.379   0.756  0.1549  0.1417 -0.0761
44842W        W87858   3.556  12.797  15.058  0.0860  0.2655  0.2844
44843W        W87859  11.382  26.585  28.528  0.0333  0.0020  0.0215
44844W        W87860  27.043  17.603   4.376 -0.0185 -0.2968 -0.3228
44845W        W87861  22.617  15.116  28.460 -0.0718  0.1675  0.1660
44846W        W87862  26.846  17.667   1.474  0.0139  0.0009  0.2286
44847W        W87863  19.517  17.400  25.685 -0.0997 -0.2351  0.0839
44848W        W87864  18.794  12.234   1.672 -0.1181 -0.1193 -0.0104
44849W        W87865  30.000  20.828  17.721  0.0817  0.2188 -0.2475
44850W        W87866  25.738   5.526  26.025  0.0637 -0.1829  0.3429
44851W        W87867  30.294  17.808  22.936 -0.5715 -0.1556 -0.0269
44852W        W87868   1.484   6.155  20.293  0.1692  0.1148  0.3627
44853W        W87869   9.999  28.728   3.961 -0.1701  0.2525  0.0060
44854W        W87870  25.821  16.474  21.867 -0.2180  0.0461 -0.2949
44855W        W87871  31.118  11.532   1.520  0.0448  0.3927 -0.3002
44856W        W87872   3.493  14.217   8.165  0.1558 -0.2273  0.0401
44857W        W87873  25.097  30.789  10.459  0.1962  0.0451  0.4393
44858W        W87874  33.312  26.920   0.962 -0.2001  0.1126  0.0219
44859W        W87875  23.726  25.778  25.121 -0.1666 -0.4062 -0.1914
44860W        W87876  31.420   6.380  22.045  0.4316 -0.0914 -0.1159
44861W        W87877   4.781  32.508  25.636  0.0948 -0.2049 -0.0503
44862W        W87878   3.461   1.833  15.696 -0.0932 -0.0424  0.0457
44863W        W87879  33.577  26.184   7.397 -0.0017 -0.1855  0.0791
44864W        W87880  30.245  10.949  28.382 -0.4380  0.2591  0.0514
44865W        W87881  25.232  25.369   9.130  0.1248  0.0251 -0.1612
44866W        W87882  31.536  15.369   2.658 -0.0226  0.3922 -0.0420
44867W        W87883  31.962  21.219   2.752  0.2212  0.0145  0.3837
44868W        W87884  20.480  26.993   8.721 -0.0028  0.1774  0.0875
44869W        W87885   5.582  21.636   7.399  0.2491 -0.1260  0.2171
44870W        W87886  32.463   5.333   7.670  0.4876  0.2161 -0.2075
44871W        W87887  31.523  22.330  23.077  0.0791 -0.1806 -0.0423
44872W        W87888   2.207  13.195   6.880 -0.0135  0.2905 -0.0199
44873W        W87889  30.302  13.621  26.153  0.0986 -0.0612  0.0296
44874W        W87890  14.887  14.308   3.906  0.0021  0.3114  0.0524
44875W        W87891   7.595   4.667  21.520  0.0768  0.3599  0.0700
44876W        W87892   1.821  30.545   0.628 -0.0461 -0.0554  0.1555
44877W        W87893  34.316  21.373  29.026  0.0700 -0.1601  0.2426
44878W        W87894  26.684  11.002   7.694  0.3418 -0.2319 -0.1262
44879W        W87895  15.969  24.862   8.523 -0.0752  0.0573  0.1092
44880W        W87896   2.467  22.824  23.736 -0.2176  0.2892 -0.0940
44881W        W87897   4.435  14.231  17.866  0.1567  0.0137 -0.0323
44882W        W87898  26.230  20.050  19.331  0.0105 -0.0630  0.0797
44883W        W87899   1.383  10.428   8.744  0.0627 -0.1333 -0.3998
44884W        W87900  30.756   8.972  24.359 -0.0933 -0.0663  0.0773
44885W        W87901  32.968   8.498  20.468  0.0385 -0.1541 -0.1525
44886W        W87902   4.230  30.403  28.645  0.3699  0.1442  0.0785
44887W        W87903  21.095  16.634  22.261  0.0226  0.0463 -0.0458
44888W        W87904  20.181  14.289   0.912  0.0440  0.2163  0.0787
44889W        W87905   8.008  24.287  24.569  0.2026  0.4654 -0.0359
44890W        W87906  17.141   0.560  25.459 -0.3445 -0.0717 -0.0703
44891W        W87907  31.299  16.626   0.906 -0.1641  0.1957  0.0864
44892W        W87908  20.161  18.169   8.180  0.1420 -0.0801 -0.0698
44893W        W87909   4.460  19.229   5.787 -0.2082  0.0026  0.1420
44894W        W87910  30.159   9.021  24.689 -0.2207  0.2055 -0.3103
44895W        W87911  30.665  14.714   5.078  0.0629  0.0514 -0.0959
44896W        W87912  23.566  31.438  22.074 -0.1414 -0.2046  0.2949
44897W        W87913   0.460  24.156   2.979  0.1135  0.0879  0.0217
44898W        W87914  20.450  22.534  24.462 -0.2840  0.0396 -0.1806
44899W        W87915  21.639   2.538  25.404 -0.0564 -0.2877  0.3497
44900W        W87916   4.436  25.023  23.576 -0.0280  0.0935  0.0282
44901W        W87917  20.271  17.392  23.886 -0.1221  0.0052 -0.1512
44902W        W87918   9.821  17.071  29.052  0.0353  0.1056  0.0526
44903W        W87919   1.941  16.749  14.885 -0.0199  0.0409 -0.0967
44904W        W87920  27.070  19.765  18.120  0.0173 -0.1124  0.0567
44905W        W87921  30.961  12.591  28.506 -0.0088  0.2044 -0.0607
44906W        W87922  26.293  12.973   5.222 -0.3476 -0.2219  0.1066
44907W        W87923  13.696   4.266  17.647 -0.0145  0.1973  0.2346
44908W        W87924  17.515  20.909  23.778  0.0782 -0.2750  0.1140
44909W        W87925  22.032  19.357  22.869  0.0825 -0.4292 -0.0758
44910W        W87926  12.456   1.160   8.919 -0.1836 -0.1494  0.0645
44911W        W87927  14.542  21.686  16.260 -0.1325 -0.0050  0.1910
44912W        W87928  24.670   9.802   5.981 -0.0475  0.0826  0.2518
44913W        W87929  24.238   5.981  10.046 -0.0205 -0.1581 -0.0344
44914W        W87930  24.617  26.016  28.610  0.0270 -0.2283 -0.3313
44915W        W87931   7.735  31.141   1.507 -0.3974  0.3489 -0.0348
44916W        W87932   3.411   4.934   6.003 -0.0597  0.3214 -0.0070
44917W        W87933  31.250   9.925  16.384  0.3266  0.2363 -0.1011
44918W        W87934  32.008  14.231  20.682  0.1262  0.0138 -0.0790
44919W        W87935  28.950  21.524   1.907 -0.0688 -0.0066  0.1835
44920W        W87936  21.715  19.059  24.449 -0.1214  0.0598 -0.0128
44921W        W87937   7.918   4.835   6.152  0.2744 -0.0799 -0.0833
44922W        W87938   3.703  23.635  21.750 -0.2426 -0.0559  0.0538
44923W        W87939  20.310  27.448   6.356  0.2043  0.2840  0.0706
44924W        W87940   1.857  13.602   2.976 -0.0972  0.1033 -0.0279
44925W        W87941   8.203  20.173  26.093  0.0210  0.1934 -0.1641
44926W        W87942  33.141  15.242   7.109  0.0281 -0.0296  0.3187
44927W        W87943  31.119  26.604  25.982 -0.0226 -0.5136  0.4869
44928W        W87944   2.639  25.134  25.554  0.0930 -0.0099 -0.0532
44929W        W87945  30.712   4.093   9.679  0.0075 -0.1144 -0.2183
44930W        W87946   4.926   9.081   8.848  0.0910  0.0845 -0.0977
44931W        W87947  24.755   2.271  28.325  0.0667  0.0029  0.0081
44932W        W87948  29.468   0.199  24.424 -0.0606  0.0158 -0.1293
44933W        W87949   8.749  17.193   1.882  0.3139 -0.2724  0.2034
44934W        W87950   0.710  22.585  19.109 -0.0035 -0.0773  0.0884
44935W        W87951  32.902  16.493  23.513 -0.1958  0.0071 -0.2782
44936W        W87952  24.740   7.707  27.707  0.0418  0.2842  0.1937
44937W        W87953  31.974  11.114  22.246  0.1367 -0.0358 -0.3120
44938W        W87954  19.965   2.230  27.596 -0.3235  0.0053  0.0408
44939W        W87955   7.146   9.167   7.247 -0.0034 -0.2623 -0.0230
44940W        W87956  18.246  30.622   7.060 -0.3279 -0.2572 -0.0867
44941W        W87957   0.347  34.723  28.399  0.3097 -0.0093  0.2609
44942W        W87958   3.356  24.208   6.051  0.0259 -0.0484 -0.1418
44943W        W87959  26.809   5.768  22.747  0.2515 -0.0089  0.1589
44944W        W87960  28.900  10.614  25.165  0.2269  0.0791  0.3697
44945W        W87961  20.842  18.370  20.021  0.1766  0.1332  0.1066
44946W        W87962  29.092  20.913  15.097  0.2202 -0.1118 -0.0662
44947W        W87963   6.848  25.778   8.111  0.1248  0.1691  0.0738
44948W        W87964  22.912   8.084  27.038  0.0580 -0.2835  0.3992
44949W        W87965  30.918  17.038  10.162 -0.1516 -0.0376 -0.2239
44950W        W87966  10.725  24.435  19.040 -0.1654 -0.1322  0.1518
44951W        W87967  30.512  10.627   4.072 -0.0893  0.0740 -0.4516
44952W        W87968  10.360  13.073   2.341 -0.1977 -0.0438 -0.0042
44953W        W87969  31.853  20.797  21.733 -0.1108  0.1303  0.0461
44954W        W87970  16.010  19.999   3.035  0.0598  0.1380  0.2356
44955W        W87971  17.923  22.557  15.927 -0.3250  0.1322 -0.0828
44956W        W87972  30.414   8.599   7.610  0.0401 -0.0656  0.0801
44957W        W87973  15.355  14.528  21.248  0.0818 -0.0005  0.3500
44958W        W87974  21.127   3.663  18.717  0.1864 -0.0669 -0.2757
44959W        W87975   2.444  19.198  22.892 -0.2166  0.0598  0.2713
44960W        W87976  34.218   9.639  17.959 -0.1125 -0.2259  0.1949
44961W        W87977  15.764   7.362  20.622 -0.0474  0.0335  0.0903
44962W        W87978   3.767  26.360   8.996  0.2040 -0.1347 -0.0123
44963W        W87979  32.784  12.937  27.163 -0.3346  0.0569  0.2160
44964W        W87980  22.279  29.395   8.556  0.0741  0.2650  0.1147
44965W        W87981  33.948   3.383   8.539 -0.1841 -0.0929 -0.2837
44966W        W87982   9.322  15.084   2.054  0.2602  0.1139  0.2744
44967W        W87983  29.253  22.142  16.901  0.1052  0.2020 -0.0359
44968W        W87984  25.318   6.162   9.158  0.0344  0.3355  0.0607
44969W        W87985  28.196  16.448  24.591  0.4295 -0.1195  0.0638
44970W        W87986  25.198  18.823  19.662  0.2575  0.2175 -0.1342
44971W        W87987  30.858   7.523  17.342 -0.4960  0.1295 -0.1216
44972W        W87988  28.434   6.598  28.363  0.1693  0.1038  0.0923
44973W        W87989  20.267  18.885  25.536  0.2421 -0.1013  0.1734
44974W        W87990  22.835  10.063  27.529 -0.3290 -0.2835  0.2751
44975W        W87991   2.006  14.054   0.034  0.0720 -0.0430 -0.0335
44976W        W87992  24.374  13.680   5.556 -0.2177 -0.0427 -0.0426
44977W        W87993  17.487   3.801  27.440  0.1240 -0.0589  0.1830
44978W        W87994   4.657  32.965   9.350  0.1191  0.1454 -0.1326
44979W        W87995  19.129  10.882   0.188  0.0416 -0.2074  0.3762
44980W        W87996  25.548  18.849  25.904 -0.1287  0.0969 -0.2232
44981W        W87997   4.913   1.837   4.931  0.1415  0.0531  0.3799
44982W        W87998   1.945   3.445   5.042 -0.0552  0.0109  0.1403
44983W        W87999  12.947   8.819   3.361  0.0294 -0.1001 -0.0717
44984W        W88000   6.519  18.216   1.005  0.2363  0.2404  0.0205
44985W        W88001  33.121  10.414   2.728 -0.1303 -0.1333 -0.1156
44986W        W88002   0.151  11.911  18.822 -0.2615  0.1415 -0.2110
44987W        W88003  28.756  19.275  24.162  0.1881  0.1231 -0.1958
44988W        W88004   5.921  15.729   2.791  0.1087  0.1911 -0.0162
44989W        W88005   3.865  23.233   3.145 -0.4054 -0.3340 -0.0015
44990W        W88006  24.793  26.384   0.039 -0.0906 -0.1512  0.1440
44991W        W88007  24.681  32.046  23.275  0.3307 -0.2726  0.2178
44992W        W88008  21.275  23.688  20.214 -0.0233  0.0316 -0.0593
44993W        W88009  20.130   7.780  16.507  0.0371 -0.0800 -0.0043
44994W        W88010  27.724  14.817   5.855  0.3552  0.1863 -0.0767
44995W        W88011  12.844  27.028  23.778 -0.0841 -0.1223  0.1623
44996W        W88012   9.794  22.049  24.579 -0.0202 -0.1513  0.1122
44997W        W88013   1.367  17.183   3.075  0.1564  0.0204  0.1300
44998W        W88014   8.963  26.942   4.049  0.1407  0.1192 -0.2143
44999W        W88015   6.969  21.300   7.201 -0.1455 -0.0774  0.1277
45000W        W88016  31.867  17.222   1.964  0.4778 -0.1006 -0.0859
45001W        W88017  29.191  25.567   8.282  0.2381  0.0352 -0.0423
45002W        W88018  32.070   5.985   0.563 -0.0647  0.0861 -0.0885
45003W        W88019  25.725  22.582  26.531  0.0686  0.1692 -0.2208
45004W        W88020  22.375  20.726  19.638 -0.2315  0.3130 -0.3172
45005W        W88021  18.122  24.185  23.562  0.1251  0.2473  0.0497
45006W        W88022  29.666  15.637  18.146 -0.2447 -0.3078  0.0994
45007W        W88023  34.408  12.895  28.880  0.1121 -0.0053  0.0366
45008W        W88024  18.813  16.921   3.145 -0.1677 -0.0680 -0.2653
45009W        W88025   0.272  13.674   5.069  0.0855 -0.1064  0.2916
45010W        W88026  25.208  12.316  29.272  0.1833  0.1644  0.0180
45011W        W88027  21.838  20.278   0.181 -0.2566  0.2410  0.1007
45012W        W88028   1.049  11.216   3.955 -0.1409 -0.1858 -0.1576
45013W        W88029  33.395  27.207  19.836  0.0889 -0.0701  0.2858
45014W        W88030  32.676  23.611  10.583 -0.4029  0.1441 -0.0866
45015W        W88031  33.637   9.045   2.769 -0.2398  0.1134 -0.0057
45016W        W88032   8.371  31.785  19.933  0.0483 -0.1094 -0.1304
45017W        W88033  21.072  13.129   0.003  0.1771 -0.1724  0.1170
45018W        W88034  14.600   9.198   8.846  0.1804 -0.0034 -0.0480
45019W        W88035  15.796  17.742   4.173 -0.1507 -0.3617  0.2434
45020W        W88036  33.287  13.654   5.193  0.0077 -0.1037 -0.0690
45021W        W88037  12.877  28.393   7.389 -0.1064 -0.1217 -0.0405
45022W        W88038  32.369  16.124   0.278 -0.0179  0.2343 -0.2332
45023W        W88039  11.300  30.469   4.796 -0.0035 -0.3027  0.2696
45024W        W88040  22.424  11.130  15.756 -0.1720 -0.0647  0.0590
45025W        W88041  12.306  18.075  15.175  0.1103 -0.4824 -0.1299
45026W        W88042   5.584  26.402  26.899  0.1545  0.0052  0.1815
45027W        W88043  30.633  30.614   6.377 -0.1737  0.0133 -0.4304
45028W        W88044   4.480  20.613  27.392 -0.1089 -0.0620  0.2372
45029W        W88045   7.482  25.823   9.248  0.1222 -0.1332  0.2030
45030W        W88046   0.855  30.401   6.000  0.0711  0.1439 -0.0226
45031W        W88047  25.701  19.124   5.075  0.1112  0.0130  0.1607
45032W        W88048   1.210  28.102  14.772 -0.3989 -0.1825  0.2025
45033W        W88049  16.633  31.706  28.161  0.2231 -0.0867  0.3316
45034W        W88050   5.524   8.515   6.414 -0.0836 -0.0752 -0.0150
45035W        W88051  26.994  24.152  17.909 -0.4623 -0.1248 -0.0891
45036W        W88052  32.714  13.168   6.287 -0.1018  0.0705  0.0355
45037W        W88053   8.332  17.831   1.307  0.3331 -0.1043  0.1247
45038W        W88054  18.824  20.970   5.306 -0.0622  0.1412 -0.1972
45039W        W88055  27.003  23.411  20.064  0.0064  0.0449 -0.0709
45040W        W88056  28.051  32.221   2.173  0.0540 -0.0374  0.0294
45041W        W88057  27.418  15.543  28.206  0.1711  0.1274 -0.3038
45042W        W88058  25.402  28.137   9.740 -0.3941 -0.1033 -0.0913
45043W        W88059   2.946  16.729   0.709 -0.2040 -0.0206  0.1442
45044W        W88060  20.733   6.369  27.263 -0.2382 -0.0012  0.2634
45045W        W88061  31.226  26.431   6.582 -0.1272  0.2994  0.1845
45046W        W88062   0.534  15.964  22.807 -0.2173 -0.3537 -0.0900
45047W        W88063  15.278  24.979   8.607 -0.0763  0.0099  0.0941
45048W        W88064  32.787   4.962   9.611  0.3500 -0.1617 -0.1245
45049W        W88065   9.792  14.894   2.070 -0.2983  0.0631  0.0933
45050W        W88066  10.982  16.889  24.193  0.2635  0.3741  0.0324
45051W        W88067  28.065   3.923   7.530  0.1192 -0.0959  0.2901
45052W        W88068  14.930  19.237  26.994 -0.3527 -0.3173 -0.0457
45053W        W88069   9.478  29.123  26.804 -0.0289 -0.4170 -0.1062
45054W        W88070  26.876   5.669  28.035 -0.2004  0.1994  0.1486
45055W        W88071   5.011  17.666   9.357  0.0243 -0.2695 -0.0068
45056W        W88072  18.134  19.314  25.479 -0.2073  0.1417  0.2310
45057W        W88073  28.787   6.375   6.220  0.1610  0.1414 -0.0314
45058W        W88074  28.095   4.614  20.066 -0.1010  0.0341  0.0054
45059W        W88075  33.246  14.178   6.917 -0.1302 -0.0751 -0.1144
45060W        W88076  26.277   8.420   3.366 -0.1496 -0.0179 -0.1476
45061W        W88077  30.669  17.401   6.578 -0.2209 -0.2322 -0.2151
45062W        W88078  26.742  26.431   9.649  0.3061  0.0581  0.0764
45063W        W88079  18.409  23.807   8.547  0.0252 -0.2571  0.1493
45064W        W88080  20.450  14.332   1.421  0.1553 -0.1820 -0.2019
45065W        W88081  18.215  12.546   6.852 -0.1294  0.0397  0.0714
45066W        W88082  19.568   2.343  25.476 -0.0029  0.3358  0.0920
45067W        W88083  30.387  24.350   2.026  0.0025 -0.0601 -0.2199
45068W        W88084  25.849  11.698  21.628 -0.0499  0.0528 -0.1373
45069W        W88085  31.321  16.617  29.002 -0.1809  0.1138  0.2342
45070W        W88086  33.659  28.604  28.095  0.4034  0.0088  0.0397
45071W        W88087  16.559  29.371   3.952 -0.1612  0.2833 -0.0106
45072W        W88088  23.383  22.887   1.211  0.1501  0.0566 -0.2263
45073W        W88089  18.626  17.405  27.213  0.0971 -0.1801 -0.0385
45074W        W88090   2.969  32.060   0.233 -0.0329 -0.1896  0.0445
45075W        W88091  19.865  12.857  19.449  0.0282 -0.0147  0.2071
45076W        W88092  29.809  19.727  22.000  0.1816  0.1271 -0.0774
45077W        W88093  27.332  24.000   2.656 -0.1801 -0.3803  0.2702
45078W        W88094  19.642  17.462  22.318  0.1931 -0.2311  0.1101
45079W        W88095  32.364  25.067  10.070  0.1579  0.0930 -0.0268
45080W        W88096   8.088  18.795   7.129  0.1613  0.1454  0.0456
45081W        W88097  30.154  10.291   9.948 -0.2454 -0.0205  0.2351
45082W        W88098  25.811  30.759   3.199  0.1690  0.4574  0.0418
45083W        W88099   9.325  15.775  22.720 -0.1289  0.1127  0.0318
45084W        W88100  20.028  15.690  15.453 -0.2047 -0.3345  0.0239
45085W        W88101  11.235  14.811   7.693 -0.0204 -0.1187  0.0390
45086W        W88102  29.951  29.020   0.449 -0.0222  0.1683 -0.1526
45087W        W88103   6.539  25.548   5.066  0.0396  0.0831  0.0404
45088W        W88104   8.952   2.105  25.474 -0.1045  0.1228 -0.0519
45089W        W88105  28.985  24.574  27.778 -0.0249  0.1212 -0.1955
45090W        W88106   7.651   6.333   3.992 -0.3368 -0.1299  0.3335
45091W        W88107  24.011   5.383  20.779 -0.0020  0.1810 -0.0381
45092W        W88108  19.134  17.458   7.574 -0.5393 -0.0233 -0.2692
45093W        W88109  26.655  26.429  23.247  0.1182  0.0590 -0.3729
45094W        W88110  10.260   5.351   4.308 -0.2637  0.1650  0.2136
45095W        W88111  13.752  11.523  26.776 -0.1327  0.2784 -0.4501
45096W        W88112  22.952  24.822  24.547  0.1124 -0.2171 -0.0300
45097W        W88113  29.698   9.001  22.709  0.3203 -0.0509  0.3000
45098W        W88114  10.479  19.276   2.143 -0.1531  0.0341  0.0640
45099W        W88115  16.560  21.686   2.935 -0.0440  0.2626  0.0205
45100W        W88116   5.789  11.070   8.228 -0.1538 -0.0299  0.0311
45101W        W88117  34.492  14.654   1.617  0.2900 -0.2788 -0.1400
45102W        W88118  30.362  22.349  22.212  0.1101  0.1519 -0.0975
45103W        W88119  29.234  10.637  14.730 -0.0242  0.1474 -0.3390
45104W        W88120   6.980  21.725   0.341  0.1723  0.1376 -0.2864
45105W        W88121   4.009   3.831  10.157  0.1793 -0.0841 -0.0590
45106W        W88122   5.102  19.335  15.943  0.1970 -0.1582  0.1356
45107W        W88123  31.760  30.828   7.031  0.0444  0.0060  0.0972
45108W        W88124  12.964  33.830  25.280 -0.2430  0.2689 -0.0736
45109W        W88125  19.072  10.349  26.762  0.1865 -0.3164 -0.3651
45110W        W88126  27.136  25.280  18.449  0.0871  0.0369 -0.0612
45111W        W88127  27.870  14.086  27.033 -0.1163  0.1811  0.0196
45112W        W88128  28.335  11.056   4.308 -0.0934 -0.1683  0.0262
45113W        W88129  29.331   9.428   0.787 -0.1163 -0.1773  0.0379
45114W        W88130  17.420  12.296   1.250  0.4316  0.0358  0.1846
45115W        W88131   3.325   0.839   3.876 -0.1082 -0.0030  0.1234
45116W        W88132  30.026   9.754  26.345 -0.0699 -0.0208 -0.3546
45117W        W88133  11.414  11.718   7.486 -0.3661 -0.4848  0.0755
45118W        W88134  18.948  18.580  22.679  0.1913 -0.0662  0.3087
45119W        W88135  24.134  20.607  23.579 -0.4390 -0.1366  0.0742
45120W        W88136  27.634   3.439  21.770 -0.1241 -0.0702 -0.1931
45121W        W88137   9.102  15.535   4.205 -0.1039  0.2981 -0.1634
45122W        W88138   0.522  23.239   7.570  0.1385  0.0702 -0.1699
45123W        W88139   5.298   6.607   2.005 -0.0445  0.1954  0.2617
45124W        W88140  33.131  14.079   9.137  0.0844  0.0293  0.0400
45125W        W88141   3.335  19.963  16.574  0.0137 -0.1321 -0.1613
45126W        W88142  27.429  18.603  28.190  0.1479  0.1529 -0.2454
45127W        W88143  13.161  22.758   0.645  0.4543  0.1684  0.1965
45128W        W88144  22.567   7.347   7.636  0.2058  0.1876  0.0089
45129W        W88145   6.077   9.310   3.187 -0.0033 -0.4018  0.0841
45130W        W88146  31.752  16.367   2.309 -0.0646  0.2210 -0.0112
45131W        W88147   5.236  31.790  21.400  0.4689  0.2390 -0.1721
45132W        W88148   7.991   6.568  28.054 -0.0456  0.2441 -0.1347
45133W        W88149  20.042  12.640  27.976  0.1689 -0.1278  0.1344
45134W        W88150   2.964  17.723  24.882 -0.0410 -0.0209 -0.2406
45135W        W88151  22.405   8.294   5.484 -0.2445 -0.1601  0.3363
45136W        W88152  30.789  27.674   2.067  0.1452 -0.1064 -0.4621
45137W        W88153   5.305   2.300  15.634  0.0044 -0.2439  0.0659
45138W        W88154  33.741   4.098  27.577 -0.2197  0.1586  0.0931
45139W        W88155  22.707  17.152  13.243  0.0671 -0.1250 -0.0607
45140W        W88156  30.412  11.347  25.756 -0.0887  0.4475  0.0989
45141W        W88157  24.494   8.684  27.946 -0.0362 -0.0120  0.1704
45142W        W88158  12.898   3.643   4.982  0.2524 -0.0956  0.2830
45143W        W88159  29.632  11.490   0.695 -0.1230 -0.2565 -0.2908
45144W        W88160  33.680  27.984   7.902 -0.2694  0.1784  0.0245
45145W        W88161  22.027  20.564  29.151 -0.2090 -0.2561 -0.1750
45146W        W88162  20.924  20.823   0.630 -0.0071  0.1772 -0.1787
45147W        W88163   2.599  21.172   8.071  0.1418 -0.3601  0.4279
45148W        W88164  33.039  33.964   8.233 -0.0900 -0.3144 -0.1104
45149W        W88165   0.302  16.987   4.100 -0.1568 -0.0010 -0.3220
45150W        W88166  21.634  34.730  24.763 -0.0456 -0.0454  0.2498
45151W        W88167  33.368  27.690  20.716  0.3833 -0.0097  0.1787
45152W        W88168   1.962  34.445   3.133 -0.0454  0.1399 -0.0506
45153W        W88169  20.502  21.182  25.772 -0.2395  0.1139  0.1564
45154W        W88170  15.576  25.485   2.619  0.1658  0.4157 -0.0339
45155W        W88171  28.230  10.545  27.515  0.0836  0.0144 -0.0298
45156W        W88172  22.056  17.776   4.006 -0.2127 -0.1685 -0.1599
45157W        W88173  24.350  28.400  11.109 -0.0637  0.2182  0.0180
45158W        W88174  34.307  30.351   1.129 -0.1371 -0.0869  0.5319
45159W        W88175  23.658  30.172   8.044  0.2802 -0.1221  0.3372
45160W        W88176  17.140   6.591   0.037 -0.0760  0.3559  0.1531
45161W        W88177  31.818  21.280   3.656 -0.0812  0.2535 -0.3025
45162W        W88178   8.140  27.822   9.780 -0.0253 -0.0684  0.1638
45163W        W88179  28.877  15.648   7.221  0.0241  0.0090  0.0296
45164W        W88180  13.697  25.633   8.986  0.1677  0.0416  0.0335
45165W        W88181   5.564  13.027   7.540 -0.1352 -0.0498  0.2433
45166W        W88182  29.163   0.472   5.811  0.0953 -0.2399  0.0615
45167W        W88183  22.031  13.830  20.264  0.0026  0.0891  0.1181
45168W        W88184  20.009  28.584   9.714  0.0531  0.2063  0.2349
45169W        W88185  17.006  11.741   6.141  0.0795 -0.0817 -0.0634
45170W        W88186   3.551  14.910   5.799 -0.2650  0.0877  0.0155
45171W        W88187   1.062  16.904   8.922  0.3891 -0.1119 -0.1011
45172W        W88188  31.820   9.565   0.931  0.0563 -0.0663 -0.2726
45173W        W88189   3.525  21.158   0.150  0.2477 -0.0218  0.2252
45174W        W88190   0.550  25.446  24.410 -0.0219 -0.0976 -0.0848
45175W        W88191  32.459  31.208  21.587 -0.3649  0.1918  0.3105
45176W        W88192   3.839  18.026   0.594  0.1933 -0.1962  0.0997
45177W        W88193  31.676   0.484   4.382  0.1600  0.4250 -0.0910
45178W        W88194  29.797  18.488   4.795  0.1533 -0.2445 -0.0141
45179W        W88195  24.482  20.133   9.546  0.0638 -0.1612 -0.2806
45180W        W88196  23.736  12.880   9.335  0.1269  0.0893 -0.0298
45181W        W88197   2.928  24.393  29.285 -0.0351 -0.0679  0.2753
45182W        W88198  14.997  13.236   3.868  0.0864 -0.3445  0.3092
45183W        W88199   0.841  14.576   3.402  0.3114  0.1304 -0.0844
45184W        W88200   3.063   9.482  14.737 -0.0539  0.2458  0.3988
45185W        W88201  34.724   9.222  25.947  0.1590  0.1157  0.0219
45186W        W88202   0.950  14.795   2.357 -0.1753 -0.3253 -0.0241
45187W        W88203  31.039  10.125   6.010  0.3937  0.2219  0.3440
45188W        W88204   3.371  11.477  17.311 -0.2110 -0.1649 -0.0101
45189W        W88205   2.940  17.533  26.739  0.0583 -0.1731  0.0843
45190W        W88206  32.312  23.290  10.622 -0.0808 -0.1893 -0.1351
45191W        W88207  18.077  19.749   1.608 -0.0845 -0.1724  0.0041
45192W        W88208  29.628  19.739   2.986 -0.1123  0.2264 -0.2625
45193W        W88209  28.092  19.624   2.218 -0.1363  0.0708  0.2898
45194W        W88210   0.334  17.899   7.527 -0.1265  0.0505 -0.1198
45195W        W88211  16.964  25.484   2.870 -0.1695  0.1268  0.1893
45196W        W88212  29.130  32.660   0.244 -0.1978  0.0244 -0.1983
45197W        W88213  21.034   9.796  26.130 -0.0370  0.0883  0.1563
45198W        W88214  29.561  12.503   1.626  0.3264 -0.1547  0.1591
45199W        W88215  18.535  21.219   1.113 -0.1885  0.1258 -0.0118
45200W        W88216  32.687   2.158   4.407 -0.0297  0.0573 -0.1402
45201W        W88217  32.924  10.229   9.905 -0.0177 -0.1026  0.2236
45202W        W88218  30.419  19.602   2.378 -0.2136 -0.2007  0.1760
45203W        W88219  10.953  26.529  24.833  0.2474 -0.1613  0.1231
45204W        W88220  24.175  26.618   1.214  0.0796 -0.0904 -0.0228
45205W        W88221   8.966  23.755   6.187  0.3904 -0.0514 -0.1863
45206W        W88222  11.047  10.890   5.879 -0.0768 -0.2945  0.2735
45207W        W88223   4.979  13.536   1.248 -0.1673 -0.1625  0.2182
45208W        W88224  15.685  19.831  24.947  0.0821 -0.0752 -0.0472
45209W        W88225  30.379  19.071   9.369 -0.2387  0.0142  0.0900
45210W        W88226  22.473  17.187   5.688  0.1414  0.2612 -0.0236
45211W        W88227  15.264  23.572  21.325  0.2573  0.1293 -0.2467
45212W        W88228  29.608  17.788  10.497 -0.2487 -0.0995 -0.0270
45213W        W88229   7.643  18.259  28.986  0.0788 -0.1961 -0.0740
45214W        W88230  24.282  19.259   9.583 -0.0607 -0.2863 -0.0196
45215W        W88231  29.006  13.249   4.260  0.3785  0.3594 -0.0519
45216W        W88232  24.191  18.937  28.522 -0.1682  0.4091  0.0810
45217W        W88233  17.539  24.655   8.700 -0.3762  0.1288 -0.0985
45218W        W88234  34.280  28.819   9.701 -0.0472 -0.0150  0.2471
45219W        W88235  25.867  23.838  28.864  0.1929 -0.1201  0.0873
45220W        W88236   7.622  10.261  17.800  0.4250 -0.0140  0.0196
45221W        W88237   0.710  23.107   9.153 -0.1111  0.0981  0.0807
45222W        W88238  33.260  28.477   5.989  0.1591 -0.1008 -0.2527
45223W        W88239  28.155  19.497   5.964  0.1528  0.0703 -0.1482
45224W        W88240   8.249  15.841  23.975 -0.0720  0.0409  0.0398
45225W        W88241  14.344  33.970  19.418  0.2601  0.1427 -0.0542
45226W        W88242  22.463  20.631  18.492 -0.0481  0.0218 -0.1947
45227W        W88243  32.994  15.759   1.011 -0.2591 -0.0747  0.0898
45228W        W88244  28.400   5.054   1.742  0.2557 -0.4317  0.2481
45229W        W88245  19.924   9.990   2.547 -0.1972  0.1704  0.2995
45230W        W88246   0.454  10.592  23.634  0.1401 -0.0605  0.1260
45231W        W88247   8.566  13.207  19.776  0.2663 -0.2516 -0.0097
45232W        W88248  29.463  10.852   3.058 -0.1480 -0.4828  0.0211
45233W        W88249  24.680  24.593   7.234 -0.3363  0.0554 -0.0984
45234W        W88250  30.555  21.872  26.969 -0.0670 -0.0763  0.0746
45235W        W88251  33.113  20.383   5.765  0.2117  0.1026 -0.2947
45236W        W88252   0.515   3.990  27.459  0.3416 -0.0317  0.0167
45237W        W88253   2.734   9.803   2.458 -0.1428  0.1591  0.1625
45238W        W88254  13.465  17.020  23.108 -0.2093 -0.4363 -0.1893
45239W        W88255  30.745  28.455   0.680  0.0055 -0.1224  0.3706
45240W        W88256  27.511  33.484   9.142  0.0289 -0.0658  0.0952
45241W        W88257   5.623   7.646   4.272  0.1585  0.2365  0.1024
45242W        W88258  31.324  29.597  22.558  0.0242  0.0126  0.0235
45243W        W88259  20.853  18.521  23.469  0.2205 -0.2197 -0.3085
45244W        W88260  31.505  20.433   7.406 -0.1110 -0.0020 -0.1270
45245W        W88261   6.542  15.778   5.097 -0.1361 -0.4945 -0.3144
45246W        W88262  33.672  18.460   9.586 -0.1745 -0.1059  0.1284
45247W        W88263  18.002  21.620   0.447 -0.1650  0.1643 -0.1704
45248W        W88264   6.738   9.127   5.726  0.0151 -0.1863 -0.2824
45249W        W88265  23.125   4.068  20.559  0.0499 -0.0153 -0.1561
45250W        W88266  31.315  27.634  23.127 -0.2342 -0.2244  0.2478
45251W        W88267  26.792  10.763   9.941  0.1209  0.0784  0.1565
45252W        W88268  20.317  34.047   9.449 -0.0453  0.1844  0.1871
45253W        W88269  34.001  22.651   5.240 -0.3072 -0.0247 -0.0205
45254W        W88270  29.997  18.363   3.703  0.0564  0.1661 -0.2583
45255W        W88271  28.763  17.496   2.330  0.1906 -0.0854  0.1413
45256W        W88272  11.464  23.353  24.927 -0.1156  0.1082  0.1160
45257W        W88273  28.034  28.445  25.057  0.2238 -0.1447 -0.0979
45258W        W88274   5.534   1.415   9.787 -0.1964 -0.2225 -0.0475
45259W        W88275   3.134  29.162   8.762  0.1426  0.3394  0.1254
45260W        W88276  28.565  26.316  26.994  0.1060  0.0468  0.2547
45261W        W88277  20.645  14.691   1.121  0.1853  0.0660  0.1840
45262W        W88278  34.362  28.355   1.352  0.0758  0.2842  0.0139
45263W        W88279  31.581  11.487   1.816 -0.0537  0.3159  0.1288
45264W        W88280  20.019   8.953   8.136 -0.0327 -0.0532 -0.2609
45265W        W88281  25.479  20.370   4.691 -0.1090 -0.1861 -0.0314
45266W        W88282  20.963  11.255  20.385  0.2569  0.0937 -0.3187
45267W        W88283  31.406  25.824   5.409 -0.2651 -0.3607  0.1372
45268W        W88284   4.788  27.608  23.138  0.2418 -0.0353  0.1325
45269W        W88285   5.422  28.973   5.607 -0.2000  0.3051  0.1429
45270W        W88286  16.143  24.333   5.096  0.2873 -0.1109  0.1879
45271W        W88287  22.644  16.898   4.428 -0.1632 -0.1314  0.2448
45272W        W88288  11.546   9.907   0.521  0.1204  0.1970  0.0910
45273W        W88289  23.883  21.561   9.112  0.0925  0.0200 -0.1144
45274W        W88290  25.532  33.165   7.436  0.3601 -0.1807  0.1231
45275W        W88291  12.718  29.420   0.677 -0.0311  0.2319  0.0473
45276W        W88292  21.631   5.442   5.146  0.1102 -0.1681 -0.2019
45277W        W88293  17.694  18.414  25.826  0.0053  0.3584 -0.1238
45278W        W88294   9.440  29.663  25.494  0.0587 -0.1794 -0.0993
45279W        W88295  24.250   0.541  28.733 -0.0049 -0.0875  0.1552
45280W        W88296  28.810  15.984   7.585 -0.0819 -0.5011  0.0325
45281W        W88297  19.573   9.740   0.306 -0.0014 -0.1974 -0.1636
45282W        W88298   5.621  26.253   3.717 -0.0293  0.1375  0.0328
45283W        W88299  27.415  24.234  11.824  0.0091  0.0769 -0.3021
45284W        W88300  13.044   6.883  15.937 -0.0432 -0.0161 -0.0090
45285W        W88301  29.818  26.031  28.505 -0.0562  0.1846 -0.0032
45286W        W88302  27.959   9.712   8.095 -0.0016 -0.2911 -0.1463
45287W        W88303  29.585  14.023   3.638  0.2270  0.3843  0.0047
45288W        W88304  25.333  22.040   7.006  0.2775 -0.1757 -0.0403
45289W        W88305   4.489  32.429   1.414  0.0653 -0.1062  0.0869
45290W        W88306  30.707  19.863   9.258 -0.0279 -0.1146 -0.2200
45291W        W88307  10.359  18.183   5.231  0.0142 -0.2099  0.1853
45292W        W88308   4.219  31.384  23.794  0.2465 -0.1665  0.3478
45293W        W88309  34.113  16.608   2.686  0.1322 -0.2365  0.1632
45294W        W88310   5.576  27.562   7.396  0.0310  0.1676 -0.2239
45295W        W88311  16.200  20.573  28.268 -0.0695  0.0933  0.1832
45296W        W88312  27.879  22.621   8.395 -0.1138  0.1568  0.0019
45297W        W88313   2.862  17.595   7.445 -0.3800 -0.1210  0.2579
45298W        W88314  28.903  29.982  22.715  0.1718  0.2093  0.0030
45299W        W88315   3.614   4.127  10.484  0.0477  0.2790  0.3701
45300W        W88316  31.619   6.079   9.857 -0.0342 -0.0279  0.1991
45301W        W88317  28.558  28.851   8.119 -0.0653  0.1475  0.0319
45302W        W88318  29.923  13.831   4.555  0.1290  0.0330  0.2377
45303W        W88319   1.404  26.608   3.719  0.0995  0.1195  0.0744
45304W        W88320  24.671  19.328   8.959 -0.0358 -0.2450  0.4097
45305W        W88321  26.046   2.585  28.190 -0.0626  0.4042 -0.2990
45306W        W88322  19.611  15.817   7.422  0.0563 -0.2663 -0.0182
45307W        W88323  27.736   8.394   3.074  0.0448 -0.1061  0.2205
45308W        W88324  16.203   9.598  18.987  0.4126 -0.1725 -0.3292
45309W        W88325  12.040  17.723   2.743  0.2476  0.1813 -0.0459
45310W        W88326  30.371  25.390   3.376  0.0332  0.0318  0.1150
45311W        W88327  27.303   2.156   6.391  0.0161  0.1047 -0.2463
45312W        W88328  31.431  10.410  25.510 -0.0176 -0.1879  0.1242
45313W        W88329  27.998  17.827   3.057 -0.0455 -0.0686 -0.0246
45314W        W88330   7.301   4.486   5.896 -0.3330  0.1895  0.1414
45315W        W88331  25.215   8.189   8.743 -0.2740 -0.3373 -0.5001
45316W        W88332  21.982  11.758   4.979  0.5855 -0.2564  0.0281
45317W        W88333   6.102  11.701  24.709  0.4574 -0.1684  0.0216
45318W        W88334  10.905  12.889   5.142  0.0713 -0.0646 -0.0837
45319W        W88335  28.761   2.398  29.078  0.1578 -0.1920  0.0492
45320W        W88336  32.254  13.749   5.721 -0.2284  0.1739  0.4769
45321W        W88337  25.326   7.436  25.861 -0.0262  0.1196  0.0516
45322W        W88338  31.163  22.581  18.381  0.1184 -0.1274 -0.0560
45323W        W88339   1.629  19.891  24.920 -0.2106  0.1826  0.1565
45324W        W88340  31.291  12.355   9.599  0.0208  0.4227  0.0624
45325W        W88341  31.446   9.041  25.643  0.0547  0.2007 -0.1891
45326W        W88342  15.202  25.841   5.031  0.0140  0.2480  0.0571
45327W        W88343  24.181  21.989   1.680 -0.2284  0.3438 -0.1303
45328W        W88344  13.534  24.953   5.376  0.1792  0.0914 -0.0044
45329W        W88345   3.392   3.093   0.468 -0.0958  0.0110 -0.0385
45330W        W88346  23.040   1.708   6.405  0.0837  0.1137 -0.0116
45331W        W88347  16.350  21.869   7.826  0.4144  0.3605 -0.0400
45332W        W88348  24.632  16.681   1.891  0.0971  0.4335  0.1166
45333W        W88349  28.614  14.736   2.362 -0.1166 -0.1994 -0.2890
45334W        W88350   7.158   8.290   0.093  0.2165 -0.0900  0.1400
45335W        W88351  23.545   8.708   5.049  0.4834 -0.1859  0.1106
45336W        W88352  28.630  13.538  17.347 -0.0357 -0.1452 -0.0790
45337W        W88353   1.120  13.148  25.546  0.2426 -0.1978  0.4065
45338W        W88354  29.965  24.913  28.420 -0.0636 -0.0293 -0.0403
45339W        W88355  28.504  15.405   3.553 -0.2183  0.1464 -0.2526
45340W        W88356   3.832  16.819   9.443 -0.2252 -0.1994 -0.1257
45341W        W88357  11.468   6.990  27.129 -0.1764  0.5496  0.2357
45342W        W88358  19.868   3.975   9.624  0.0541  0.1072 -0.0111
45343W        W88359  10.132  10.614   0.354  0.0468  0.2880 -0.1144
45344W        W88360  26.259  25.687   9.179 -0.0356 -0.2328 -0.0923
45345W        W88361   2.606  25.576   5.242  0.1858  0.0563 -0.0007
45346W        W88362   0.970  25.471   5.668 -0.0200 -0.2160 -0.1168
45347W        W88363  25.192  28.596   8.078  0.2844 -0.1262 -0.0754
45348W        W88364  30.036  24.860   9.430 -0.2008  0.2512  0.0679
45349W        W88365  21.315  12.687  24.954 -0.2274 -0.0061  0.2728
45350W        W88366  18.007  32.683  15.281 -0.5523 -0.0847 -0.1053
45351W        W88367  25.064  16.880  19.745  0.0442 -0.0527  0.2436
45352W        W88368   2.880  18.283  17.867  0.2359  0.1072 -0.1756
45353W        W88369   7.380   1.956   6.674  0.0393 -0.0013 -0.1642
45354W        W88370  32.312  16.154   3.218  0.3500 -0.2473  0.0010
45355W        W88371  27.257  27.217  10.454  0.1430 -0.0546 -0.1154
45356W        W88372   0.071  16.537  10.419  0.0029 -0.2386  0.2193
45357W        W88373  34.444  12.219   3.621 -0.0422  0.0336  0.1130
45358W        W88374  29.194  34.196  10.270  0.4559  0.1618  0.0561
45359W        W88375  17.967   5.293   1.261  0.2315  0.3713  0.0797
45360W        W88376  13.370   4.902   2.104  0.3633 -0.0178 -0.0955
45361W        W88377   1.179  19.281   0.179  0.2572  0.0191 -0.0893
45362W        W88378   9.149  24.042  28.318  0.1289  0.0098  0.0373
45363W        W88379  25.356  34.402  24.231 -0.1688  0.2017 -0.3105
45364W        W88380  31.881  15.674   1.159  0.2615  0.1312 -0.1028
45365W        W88381  32.029   1.019   1.259 -0.2287  0.3427  0.1055
45366W        W88382  21.543  32.883   6.962  0.1839 -0.1629 -0.3762
45367W        W88383  26.786   3.774  24.601 -0.1943 -0.1721 -0.0548
45368W        W88384  20.231  10.239   9.101  0.0579  0.1949 -0.0080
45369W        W88385  33.772  12.079   9.029  0.0976 -0.0153  0.0331
45370W        W88386  24.850  25.441   8.087  0.2211  0.2665  0.1299
45371W        W88387  29.605   1.251   9.977 -0.2542 -0.2270  0.2051
45372W        W88388  18.949  11.160   4.602 -0.2531 -0.1229  0.3136
45373W        W88389   1.416  12.786   9.339  0.1891  0.0374  0.3135
45374W        W88390  16.394  18.576   9.107 -0.0177 -0.0226  0.1210
45375W        W88391  18.825  14.500  27.645  0.0832 -0.1518  0.4055
45376W        W88392  11.083   4.827  23.527 -0.3385  0.2622 -0.1330
45377W        W88393  33.699  15.348   7.465  0.1314  0.4556  0.1594
45378W        W88394   7.288  17.265   1.915 -0.0760 -0.1064  0.0334
45379W        W88395   1.539   6.738  21.896 -0.0113  0.3955  0.0316
45380W        W88396  32.136  18.277   9.921  0.0411  0.2195 -0.0172
45381W        W88397  33.136  13.368  28.656  0.1170  0.0943  0.1610
45382W        W88398  28.001  33.808  11.725  0.1473 -0.0560 -0.1688
45383W        W88399  16.543  16.925  25.800 -0.0223  0.1567  0.0378
45384W        W88400  33.578  19.472  27.983  0.1434 -0.0844 -0.0686
45385W        W88401   1.054  21.078  10.449 -0.0953 -0.1229 -0.1276
45386W        W88402  27.830  17.755  27.498 -0.1463  0.3205 -0.0514
45387W        W88403   2.174   6.927  28.133  0.2404 -0.2482 -0.3106
45388W        W88404  11.490   0.785   5.664 -0.1248 -0.2106 -0.2647
45389W        W88405  23.757  18.482   8.579 -0.0973  0.0706 -0.3233
45390W        W88406  19.726  27.297  29.248  0.0510  0.1285  0.1194
45391W        W88407  13.447  13.171  16.087  0.0514 -0.4419  0.0407
45392W        W88408   1.448  28.183   6.747 -0.0002 -0.0782 -0.1540
45393W        W88409  12.311  28.925  28.631 -0.3145 -0.0307  0.0981
45394W        W88410  19.940  11.049  28.769  0.1312  0.2636 -0.0278
45395W        W88411  30.382  28.159   4.339  0.0480  0.3092  0.2576
45396W        W88412   2.941  20.977   6.928  0.0252 -0.1689  0.1869
45397W        W88413  30.737   2.881   4.179  0.1336 -0.0775 -0.0772
45398W        W88414  33.216  10.066  28.317  0.0272 -0.0324  0.2967
45399W        W88415  28.072  21.909  16.698  0.1265 -0.0139 -0.2317
45400W        W88416  32.947  11.776   5.540  0.0254 -0.3613  0.0341
45401W        W88417  20.189  13.362  24.537  0.3496  0.1660 -0.0299
45402W        W88418  12.219  12.926   1.466  0.1289  0.0824 -0.0375
45403W        W88419  24.240  20.511   9.076  0.2182 -0.2158 -0.0105
45404W        W88420   4.777   7.578  26.800 -0.2213 -0.0918 -0.0884
45405W        W88421   6.442  17.938  26.746 -0.2218 -0.2035 -0.0941
45406W        W88422   8.615  21.463   6.391 -0.0557 -0.0167 -0.1411
45407W        W88423  31.920   5.883   9.048  0.2358 -0.0167  0.0545
45408W        W88424  20.712  26.420   7.472 -0.1525 -0.0031  0.0036
45409W        W88425   8.735  20.840  16.046 -0.1609 -0.1821  0.2508
45410W        W88426  16.870  24.009  23.475 -0.3126  0.1634  0.1408
45411W        W88427  26.434  28.684  27.484  0.0606  0.1236  0.0109
45412W        W88428   5.658   5.712   1.049  0.0340 -0.1195  0.0086
45413W        W88429   5.867  26.774  23.222  0.0336  0.4166  0.5453
45414W        W88430  29.701  25.982   4.163  0.2476  0.4729  0.0075
45415W        W88431  29.564  20.213  20.352  0.0314  0.0323  0.0064
45416W        W88432  26.011  26.679   2.132  0.0984  0.0475 -0.0682
45417W        W88433  23.427   2.729  20.980  0.0071 -0.0508  0.0121
45418W        W88434   7.942   8.966  26.118 -0.1372 -0.1239 -0.2454
45419W        W88435  17.602   1.935   0.364  0.1854  0.1928 -0.3604
45420W        W88436   2.898  13.262  22.149  0.1139  0.1818 -0.1532
45421W        W88437   4.423  13.523   1.003  0.0673  0.1276 -0.1734
45422W        W88438  31.558  32.546  10.148 -0.2458  0.1095  0.2250
45423W        W88439  25.224   6.635  26.630  0.1142  0.0660 -0.1910
45424W        W88440   0.325  28.391   0.711 -0.4427  0.1371 -0.4180
45425W        W88441  34.658  15.258   9.782  0.2350 -0.0654 -0.1854
45426W        W88442  31.525  18.759  11.213 -0.0398  0.1419 -0.0147
45427W        W88443  11.757  16.850  19.048 -0.1138 -0.1177 -0.0915
45428W        W88444   3.963  30.996   8.325 -0.1094 -0.1459  0.0610
45429W        W88445   2.530  28.833   3.250 -0.1297 -0.0556  0.1728
45430W        W88446  25.178   9.626   0.694 -0.0514 -0.0022 -0.1955
45431W        W88447  12.896  24.220   4.863 -0.0415  0.2789  0.0828
45432W        W88448  28.038   6.337  28.344 -0.0647 -0.0964  0.1796
45433W        W88449  23.389  33.803  10.373 -0.1112 -0.3109  0.3877
45434W        W88450  30.382  16.165   8.991 -0.1650 -0.1826 -0.1896
45435W        W88451  15.439  27.462   3.707 -0.0727 -0.2862 -0.0749
45436W        W88452  24.468   9.698   8.180  0.0735  0.2177 -0.0343
45437W        W88453  26.550  20.585  17.126  0.1816  0.2809  0.1668
45438W        W88454   6.964  16.014  26.420 -0.0444  0.3629  0.1382
45439W        W88455   1.262   8.027   9.571 -0.1350  0.4110  0.0763
45440W        W88456  13.990  15.741   0.557 -0.0141  0.1611  0.0808
45441W        W88457  28.154   2.480  21.672  0.2738 -0.1310  0.0456
45442W        W88458  21.040  12.031  25.156 -0.0172 -0.3135 -0.1553
45443W        W88459  17.653  15.328   3.331 -0.0974  0.1400 -0.0453
45444W        W88460  12.286  17.691  28.481  0.0809  0.0021 -0.3423
45445W        W88461  27.201  18.585   0.735  0.0369 -0.0996 -0.1305
45446W        W88462  31.980  20.368  22.780 -0.0025 -0.1918  0.0431
45447W        W88463   8.158  21.928  17.689  0.2590 -0.1975 -0.2743
45448W        W88464  20.193   2.569  22.906  0.0944  0.0794  0.0218
45449W        W88465   2.678   6.363  16.577  0.0724 -0.0924 -0.2242
45450W        W88466  29.913  12.813   9.161  0.0589  0.0750 -0.1615
45451W        W88467  11.089  21.136  25.608  0.2734  0.2042 -0.3379
45452W        W88468   4.820  12.993  18.264  0.2175 -0.0567 -0.1440
45453W        W88469  24.470  16.731   8.022 -0.1766  0.0004  0.3593
45454W        W88470   2.692  23.861   7.504  0.0471  0.0643 -0.1767
45455W        W88471  20.857   6.690   3.442  0.1655  0.0084  0.0179
45456W        W88472  26.230   3.083   9.452 -0.1138 -0.0887  0.0934
45457W        W88473  30.321  15.655   3.606 -0.1870  0.1782 -0.2000
45458W        W88474  15.132   8.926   5.899  0.0292 -0.0612 -0.1212
45459W        W88475  31.442  20.660   2.655  0.0432  0.0922 -0.2005
45460W        W88476  31.212  28.585   7.247  0.0377 -0.1630 -0.1891
45461W        W88477  20.227  16.218   3.291  0.1042 -0.0703  0.1877
45462W        W88478  15.067   7.029  15.705 -0.1354  0.0332  0.3383
45463W        W88479  11.226  26.156   7.925 -0.1408  0.1629  0.0266
45464W        W88480  21.521   2.629  27.256 -0.4322  0.1753  0.3039
45465W        W88481  24.566  21.607   9.879  0.0322  0.1965 -0.1087
45466W        W88482  24.747  13.227   7.351 -0.4359 -0.0903  0.2116
45467W        W88483  23.644   8.775   1.795 -0.2588 -0.1285  0.0428
45468W        W88484  15.285  20.641  29.132  0.0010 -0.1381 -0.2056
45469W        W88485  27.183  13.226  26.325 -0.0733 -0.1151  0.0986
45470W        W88486   7.981  24.585   6.615 -0.0094 -0.0751 -0.1575
45471W        W88487  24.147  34.465  10.519  0.0020 -0.0981  0.0192
45472W        W88488  23.110   0.352  10.964 -0.0537  0.0716 -0.2479
45473W        W88489  31.095   2.114  28.797  0.0725 -0.3338  0.1212
45474W        W88490   0.818  23.311  23.291  0.2368 -0.4866 -0.2275
45475W        W88491  21.616  16.430   2.295  0.2572  0.3180 -0.1650
45476W        W88492  24.372  27.311  27.306 -0.1639  0.3010 -0.1396
45477W        W88493  26.493   5.100   9.397  0.1802 -0.1667 -0.0449
45478W        W88494  33.516  28.030  26.848  0.0445  0.2302  0.0086
45479W        W88495   6.941  11.472  27.669 -0.2643 -0.3016 -0.1072
45480W        W88496  30.339  13.559   3.003  0.0472 -0.0984 -0.0499
45481W        W88497   2.939  10.074   5.688 -0.1020 -0.2043 -0.1119
45482W        W88498  18.440  15.197  23.419 -0.1533 -0.2220  0.0390
45483W        W88499   7.338   9.123   8.143 -0.0193 -0.4984 -0.3418
45484W        W88500   0.916  14.924   6.048 -0.0483 -0.0446  0.0428
45485W        W88501   2.086  23.091  25.630 -0.1138 -0.0147 -0.0975
45486W        W88502  26.469  11.606   6.202  0.1802 -0.0862 -0.0965
45487W        W88503  15.614  26.168   6.575 -0.0616  0.0816  0.0774
45488W        W88504  17.117  10.214  23.262  0.0523 -0.1991  0.2475
45489W        W88505   0.385  18.105   0.079 -0.0039 -0.2135 -0.0430
45490W        W88506  20.568   4.452  22.164  0.0852 -0.2099 -0.4186
45491W        W88507   6.565  20.754  21.864 -0.1535 -0.2730  0.2973
45492W        W88508  31.038   2.328  22.600  0.1950 -0.0604  0.0163
45493W        W88509  28.109  15.477   6.186  0.2781  0.1807  0.4210
45494W        W88510   4.582  20.284  25.331  0.1449 -0.0865  0.0338
45495W        W88511  27.993   8.967   8.216  0.0808 -0.1631 -0.1883
45496W        W88512  33.407  17.979   7.261  0.1224 -0.1065  0.1833
45497W        W88513  34.421   6.322  10.044 -0.1620  0.0445  0.0572
45498W        W88514  23.738  20.182  23.397 -0.0965  0.0379  0.2275
45499W        W88515  28.656   0.155   9.298  0.4042  0.2217  0.1047
45500W        W88516  21.473   7.658   8.302  0.1285 -0.0283 -0.0035
45501W        W88517   2.202  14.998   9.362  0.1883  0.1604 -0.0697
45502W        W88518  19.103   8.983  23.284  0.0461  0.2654 -0.0233
45503W        W88519  10.893  32.866   3.367  0.0466  0.1279  0.0887
45504W        W88520  28.702  13.080   6.494  0.1136 -0.0447  0.1184
45505W        W88521  27.808  16.658   9.333 -0.2691 -0.0888  0.2428
45506W        W88522  10.721  26.073   5.552  0.5478 -0.0077  0.0396
45507W        W88523  22.358   6.284   7.019 -0.2153 -0.1923 -0.0782
45508W        W88524   1.800  14.630  10.792 -0.1317  0.0967 -0.1551
45509W        W88525  26.792  14.939   4.557  0.1130  0.0332 -0.1596
45510W        W88526  27.976  10.156   6.434  0.0586 -0.0433 -0.0282
45511W        W88527  17.667  18.903  29.284 -0.0946  0.0752 -0.0009
45512W        W88528   0.623   8.163   1.260 -0.1065  0.1355  0.0706
45513W        W88529  13.638   2.764  25.596  0.0946  0.1883  0.2693
45514W        W88530  10.993  26.092  16.898  0.2310 -0.0739 -0.0468
45515W        W88531  31.098  19.812   6.311  0.1300 -0.0185 -0.0517
45516W        W88532  24.395   5.804  26.438 -0.0284  0.4994  0.0477
45517W        W88533   7.767  22.861   2.759  0.0851  0.2573  0.1104
45518W        W88534   8.387  13.238   3.162 -0.2326 -0.0507  0.0951
45519W        W88535  19.956  27.588   9.457 -0.0865 -0.3605  0.0958
45520W        W88536  31.626  26.477  10.378  0.0935 -0.1468 -0.0260
45521W        W88537  13.611  23.073   5.270  0.3435  0.3064 -0.1172
45522W        W88538  12.507  30.503   2.742  0.1282 -0.0578  0.2568
45523W        W88539  30.449   7.786   1.012  0.2611  0.0198  0.0189
45524W        W88540  31.563  21.172   8.114 -0.3083  0.1226  0.1113
45525W        W88541   6.627  22.994  25.162  0.0758 -0.1032 -0.1194
45526W        W88542   0.472  11.183  21.394 -0.0753  0.1421 -0.1922
45527W        W88543  11.644  19.480   8.521 -0.0264 -0.1393  0.2164
45528W        W88544  21.428  20.779   4.526  0.6104  0.0997 -0.0459
45529W        W88545   0.528  12.308  23.644  0.5046 -0.2126 -0.3197
45530W        W88546  32.077  31.621   9.618 -0.0387  0.0862  0.0589
45531W        W88547  29.559  19.994  11.018  0.0497 -0.4253 -0.2077
45532W        W88548  33.562  17.115   9.354 -0.0421 -0.1406  0.4573
45533W        W88549   4.236  15.193  28.226  0.2997 -0.2078  0.1926
45534W        W88550  29.566   8.444   1.050 -0.0128 -0.1289 -0.1120
45535W        W88551  32.048  21.921   4.424  0.0792  0.2117  0.0815
45536W        W88552  10.609   5.830  10.082  0.0276  0.0286 -0.0043
45537W        W88553   5.312  15.309   8.587 -0.2643 -0.2615 -0.1106
45538W        W88554  32.652   5.825  25.248 -0.1744 -0.1884  0.2963
45539W        W88555  19.180  30.354  28.772 -0.0875  0.1246 -0.1424
45540W        W88556   2.586   5.214   4.300 -0.4186  0.0398  0.0234
45541W        W88557  31.572  29.079  25.210  0.0492 -0.4739  0.0682
45542W        W88558  20.057  18.293  23.923 -0.2560  0.2326  0.2048
45543W        W88559   3.476  32.622   7.010 -0.1971 -0.1895  0.1707
45544W        W88560   1.573   6.044  25.594  0.0038 -0.0181 -0.2808
45545W        W88561  33.887  18.016  10.869  0.0115 -0.0439  0.1758
45546W        W88562  19.660   9.343  25.069 -0.1745 -0.1607 -0.1277
45547W        W88563  31.690  16.753   8.924  0.3652 -0.0392 -0.2312
45548W        W88564   4.754  12.616  28.404 -0.1077 -0.1291  0.3440
45549W        W88565  20.343   4.694   9.235 -0.0854  0.1345  0.0136
45550W        W88566  33.526  21.391   4.096  0.1364  0.1712  0.1516
45551W        W88567  28.476  27.398  11.697  0.1313 -0.0824 -0.1503
45552W        W88568  30.789   9.042  10.591 -0.1640 -0.0808 -0.0124
45553W        W88569  27.210  26.609   7.238 -0.2564  0.1396  0.0199
45554W        W88570  28.024  10.109   5.914 -0.1736 -0.2921  0.0009
45555W        W88571  21.466  26.942   3.383 -0.0238 -0.1660 -0.2118
45556W        W88572   4.960  12.109   7.116 -0.3807  0.0552  0.1101
45557W        W88573   2.223  10.360  10.547  0.3385  0.0446  0.1382
45558W        W88574  24.923   5.831   7.720 -0.2219  0.3950  0.1452
45559W        W88575   3.957   2.984   7.939 -0.4447  0.2722 -0.2919
45560W        W88576  27.365  16.280   7.706 -0.1492  0.0792  0.2801
45561W        W88577   9.293  24.402   5.823  0.2836  0.1670  0.0508
45562W        W88578   9.812  14.916   1.092  0.0365 -0.0191  0.0574
45563W        W88579  11.157   0.433  19.006  0.0893 -0.0542 -0.0615
45564W        W88580  18.646  13.591  20.651  0.0842 -0.0517  0.0647
45565W        W88581  18.354  22.256   6.556  0.1120  0.0108  0.1265
45566W        W88582  25.800  16.674  23.694  0.1083 -0.1924 -0.1923
45567W        W88583  16.611  25.874   6.862 -0.1557  0.1407 -0.2341
45568W        W88584  14.001  16.143  25.801  0.1715 -0.2999 -0.1343
45569W        W88585   1.128  33.020   8.404  0.2866  0.2249 -0.1316
45570W        W88586  16.995  10.740  28.073 -0.0983 -0.0746  0.0075
45571W        W88587  32.028  28.425   8.542  0.0533  0.3097  0.2692
45572W        W88588  19.900   6.620   6.121 -0.1066  0.2152 -0.1216
45573W        W88589  32.934  21.772   1.355  0.3581  0.0675  0.0788
45574W        W88590  32.149   8.238   7.158 -0.0923  0.1423 -0.1538
45575W        W88591  33.598  25.001  27.205  0.0086 -0.1426  0.3851
45576W        W88592  34.212   6.669   3.327 -0.2002  0.1444  0.0029
45577W        W88593   1.561   6.863  28.216 -0.3591 -0.0754 -0.0169
45578W        W88594  24.570   7.058   2.154  0.2538  0.1191 -0.3056
45579W        W88595  19.075  10.301   0.439 -0.1470  0.2519  0.0840
45580W        W88596  33.684  30.428   8.093 -0.0086  0.1156  0.0123
45581W        W88597  26.904  14.413   4.177 -0.0880 -0.1619  0.0177
45582W        W88598   5.960  18.248   6.949 -0.0493  0.0589 -0.0367
45583W        W88599   4.046  13.200  24.958 -0.2736 -0.0444  0.3374
45584W        W88600  21.803  15.387   5.460  0.0672 -0.0929  0.2356
45585W        W88601  25.654  14.418   9.185 -0.0406 -0.1255  0.1319
45586W        W88602   3.318  17.336   5.529  0.2830 -0.2553  0.2547
45587W        W88603  21.995  18.954  28.817 -0.0701  0.2121 -0.1813
45588W        W88604  29.784  29.526  10.407 -0.0653  0.5002  0.0886
45589W        W88605  23.730  13.337   7.285 -0.1072 -0.3641  0.1213
45590W        W88606   6.285  26.845   8.738  0.1059 -0.3725  0.2015
45591W        W88607  24.622   3.417  19.256 -0.2491 -0.3360  0.0403
45592W        W88608  19.086  22.804   2.714 -0.1494  0.1139 -0.0656
45593W        W88609  32.278  12.964  23.135  0.4580 -0.2837  0.2083
45594W        W88610  18.785   9.451   5.456  0.1469  0.2820 -0.1083
45595W        W88611  25.561  21.925  25.631 -0.0931  0.1512  0.0337
45596W        W88612  33.696  18.122   8.574 -0.1194  0.1998  0.2187
45597W        W88613  29.886  34.442   7.536 -0.0563  0.1434  0.2667
45598W        W88614   7.856  20.725   4.919  0.2364 -0.0699 -0.0388
45599W        W88615  23.928  13.438   1.340  0.2337  0.1427  0.1724
45600W        W88616   1.610  14.585   6.541 -0.1450 -0.1149 -0.0812
45601W        W88617   1.693   9.676   6.950  0.0647  0.2190  0.1413
45602W        W88618  34.125   3.575  17.308  0.0724  0.0889  0.1090
45603W        W88619  34.469  11.072  28.279 -0.2417  0.0121 -0.1138
45604W        W88620  17.258  20.778   1.734 -0.0917 -0.0078 -0.1662
45605W        W88621  11.577  17.558   6.715  0.0563  0.2097  0.0709
45606W        W88622  28.077  25.997   7.475 -0.4049 -0.2605 -0.0324
45607W        W88623   6.465  14.679   5.789 -0.1423 -0.0544 -0.2724
45608W        W88624   1.603  23.376   1.719  0.1134 -0.1952 -0.0409
45609W        W88625  24.351  30.245   9.739  0.0582 -0.1390 -0.1322
45610W        W88626  22.080  13.574  29.196  0.0467  0.0413  0.0225
45611W        W88627   1.185  29.051   7.926 -0.0702  0.0945  0.3322
45612W        W88628   5.096  33.629  10.560  0.1527  0.2934 -0.2743
45613W        W88629  25.335   7.413   2.778 -0.1150 -0.1069 -0.0474
45614W        W88630  33.932  24.334   3.406  0.1094 -0.3711  0.1885
45615W        W88631  28.476  13.985   3.894  0.2724 -0.2897 -0.0116
45616W        W88632  33.206  13.763  27.050 -0.2373 -0.0456 -0.0897
45617W        W88633   8.840  17.281   0.852  0.0330  0.5289  0.0347
45618W        W88634  18.387  16.783   4.195 -0.0499  0.2637  0.0039
45619W        W88635  28.449   3.623   3.012 -0.0912 -0.0749  0.2939
45620W        W88636   3.778   7.876   6.571  0.1119 -0.3303  0.0018
45621W        W88637  23.009  21.825  24.081 -0.0476 -0.0494 -0.3314
45622W        W88638   0.091  16.474   9.120 -0.1169 -0.3819  0.5254
45623W        W88639   8.424  10.896   6.294 -0.0020  0.0311  0.2028
45624W        W88640  29.497  19.617   3.971 -0.3232 -0.2436  0.1917
45625W        W88641   7.085  21.552  27.331  0.2869 -0.0547 -0.1726
45626W        W88642  30.970   0.688   2.785 -0.0659 -0.0309 -0.0990
45627W        W88643  21.810  28.265   4.364 -0.0935  0.2095  0.0065
45628W        W88644  34.390  34.642   7.323  0.0547 -0.2013 -0.1300
45629W        W88645  11.518  20.348   0.136  0.0954  0.0466 -0.0038
45630W        W88646  19.539   1.284   3.756 -0.0174 -0.1036  0.2599
45631W        W88647   0.079  11.406   8.534  0.1760  0.2155 -0.0562
45632W        W88648  29.055   8.003  21.504 -0.2709  0.5805  0.1371
45633W        W88649  31.959  15.294   7.981 -0.2067  0.2892  0.1976
45634W        W88650   7.205   8.504   2.724  0.0817  0.1948  0.0263
45635W        W88651  30.062   0.838   5.928 -0.0698 -0.0407 -0.1328
45636W        W88652  24.223  16.974   7.688 -0.3862 -0.2102 -0.0289
45637W        W88653  24.186   9.716  25.774  0.2911 -0.0848  0.1628
45638W        W88654   5.111  23.198   8.309  0.2574  0.0051 -0.1792
45639W        W88655   4.277  27.448   8.716  0.3222 -0.2000  0.1656
45640W        W88656  14.039  19.958   7.229  0.3055  0.1451 -0.1114
45641W        W88657  28.750  21.464  11.761  0.2959 -0.2893 -0.1237
45642W        W88658  26.066  20.605   4.231  0.2424  0.3958 -0.1177
45643W        W88659   4.538  11.776   6.997 -0.2500  0.1497  0.0504
45644W        W88660  27.400  19.065   5.338  0.3438 -0.1255 -0.4033
45645W        W88661  27.529  30.531   7.230  0.0404 -0.0318 -0.1431
45646W        W88662  21.183  10.505  21.885 -0.2444  0.1231 -0.0287
45647W        W88663   5.430  24.999  26.618  0.0783  0.0434  0.0011
45648W        W88664   5.451  16.105   2.184  0.3182 -0.2438  0.2518
45649W        W88665   5.796  15.561   2.175 -0.1413 -0.1422  0.1776
45650W        W88666  10.879   6.872   0.521  0.2658 -0.2009 -0.1559
45651W        W88667  27.167  19.940  26.556 -0.1817 -0.0165 -0.0284
45652W        W88668   7.589  12.309   8.783  0.2639 -0.0376  0.2936
45653W        W88669  26.787  11.301  26.637  0.0302 -0.0254  0.2653
45654W        W88670  24.024  16.375   4.730  0.0365 -0.1461 -0.0814
45655W        W88671  19.311  16.518   1.252 -0.1032 -0.2171 -0.0246
45656W        W88672  25.171  16.561   9.174 -0.0044 -0.0457  0.1402
45657W        W88673   7.806   2.032  22.520 -0.3281  0.5788  0.0668
45658W        W88674  25.495   6.649  27.142 -0.0676  0.2589  0.0216
45659W        W88675   5.153  32.349   6.057  0.1730  0.1913  0.3028
45660W        W88676  29.214   1.117  25.050  0.0686 -0.1142 -0.1725
45661W        W88677  27.761  28.892   7.002  0.0111  0.1239 -0.0253
45662W        W88678  32.914  19.911   8.248  0.1640 -0.1191  0.5504
45663W        W88679  12.774  15.744  28.195  0.0466  0.0052  0.0547
45664W        W88680  25.004   5.619  26.368 -0.4791 -0.0147  0.0971
45665W        W88681  23.552  10.480   0.592 -0.0815  0.0590  0.2007
45666W        W88682   8.190  17.842   5.973 -0.3143  0.1068  0.0352
45667W        W88683  27.933  20.581  27.064  0.0688 -0.0506  0.0512
45668W        W88684  27.742  12.666  27.623 -0.1788  0.2094 -0.1009
45669W        W88685  34.502   4.364   3.647 -0.0565 -0.1807 -0.0284
45670W        W88686  31.053  10.732  11.079 -0.0824  0.1339  0.2939
45671W        W88687  25.722  18.324   2.171 -0.2902  0.1524  0.2717
45672W        W88688  25.010  19.605   4.477 -0.5382  0.0670 -0.2437
45673W        W88689  26.241  20.199  25.424  0.5253  0.1695 -0.0330
45674W        W88690  26.350  13.839   9.727 -0.0751  0.2465  0.0590
45675W        W88691   2.114   4.494   4.814 -0.1366 -0.2115  0.1844
45676W        W88692  17.433   3.070  21.946  0.0014 -0.1255  0.0717
45677W        W88693  23.831   5.637   7.073  0.0522  0.0137  0.1778
45678W        W88694   0.645  27.015   3.477 -0.2181  0.0530 -0.0042
45679W        W88695   2.446  14.397  23.591 -0.0082  0.2340 -0.1297
45680W        W88696  33.412   1.094   1.697  0.0993 -0.0988 -0.0528
45681W        W88697  30.515  12.228   3.040  0.2055 -0.0734  0.0707
45682W        W88698  33.503  18.886   8.403  0.3081  0.0817 -0.1834
45683W        W88699  31.491   9.330   0.687  0.1790  0.0855  0.1598
45684W        W88700  27.584  21.002  25.815 -0.0074  0.1022 -0.1398
45685W        W88701  23.392  27.317   8.047  0.1948  0.2636 -0.1109
45686W        W88702  17.835  11.397   8.047 -0.0561  0.2444  0.0753
45687W        W88703  10.636   8.758  23.204  0.0482  0.1627  0.1479
45688W        W88704  24.558  12.648   9.630  0.0742 -0.0542 -0.3577
45689W        W88705   2.630  16.205  15.347  0.2884  0.2305  0.3541
45690W        W88706  14.196  23.391  20.749 -0.1772 -0.2648 -0.1514
45691W        W88707   4.696  14.535   3.131  0.2172  0.2648 -0.3329
45692W        W88708  22.006   7.965  28.388 -0.0270  0.1765  0.1151
45693W        W88709  11.894   9.382  17.996 -0.1638 -0.2612 -0.1150
45694W        W88710  16.136   5.490   8.919 -0.3164  0.2085 -0.1038
45695W        W88711  25.688  21.898   4.592  0.1271  0.1134 -0.1859
45696W        W88712  31.201   1.168   9.176 -0.4346  0.2578 -0.0167
45697W        W88713  18.412  24.992  13.615  0.0565 -0.1239 -0.3939
45698W        W88714  34.281  14.586  10.332 -0.0737 -0.0327  0.0346
45699W        W88715  16.271  13.216   0.346 -0.0245  0.1506 -0.0538
45700W        W88716  21.368  24.526  26.595 -0.1841  0.0352  0.0133
45701W        W88717  34.183  13.968   0.601  0.0208  0.0750 -0.0106
45702W        W88718  27.225  16.236   7.232  0.1609 -0.0311  0.0381
45703W        W88719  29.018  23.626   5.968 -0.1167  0.1749  0.3592
45704W        W88720   3.460   9.121   8.575 -0.1421 -0.1459  0.0391
45705W        W88721  30.984   1.559   8.979  0.0778 -0.2611 -0.1816
45706W        W88722   1.405  27.090  22.512 -0.1158  0.1530  0.2806
45707W        W88723  26.313  16.938   1.040  0.3414  0.0376  0.2866
45708W        W88724  22.020  15.335  29.044 -0.1124  0.0642  0.1409
45709W        W88725  25.983  11.651  25.156 -0.0029  0.1379 -0.2880
45710W        W88726   4.383  28.281  28.696 -0.1023 -0.2466 -0.2916
45711W        W88727  30.903  13.201   5.430 -0.0040  0.0186 -0.0914
45712W        W88728  28.058  24.264   0.522 -0.2341  0.1252  0.2315
45713W        W88729  29.982  22.804  27.972 -0.2377 -0.2261 -0.0463
45714W        W88730  26.554  28.506   6.507 -0.1897  0.1532 -0.0038
45715W        W88731  28.666  18.328   3.866 -0.0324  0.1133 -0.0077
45716W        W88732  30.758  21.468   5.620  0.1226  0.0278 -0.3158
45717W        W88733   2.071  14.235   2.347 -0.1575 -0.0928  0.1406
45718W        W88734  20.210   9.164   7.242 -0.2011 -0.0431 -0.0966
45719W        W88735  30.593  24.341  27.182  0.1264 -0.0579 -0.2008
45720W        W88736  22.872  18.850   9.766  0.1640 -0.1269 -0.2163
45721W        W88737  17.281  18.889   2.426 -0.0490 -0.2758 -0.2319
45722W        W88738  18.498  11.969  20.125  0.1357 -0.0084 -0.1776
45723W        W88739   6.402   0.772   2.983 -0.2407  0.0213  0.2329
45724W        W88740  11.498  26.459  17.067 -0.1995  0.2108  0.1023
45725W        W88741   5.741   6.747  25.132 -0.1136 -0.1389 -0.0894
45726W        W88742  19.855  22.026   7.594  0.1298 -0.0537 -0.0252
45727W        W88743  22.736   1.679   5.816 -0.0068  0.0219  0.0001
45728W        W88744  33.571  21.967   5.909  0.0683  0.0156  0.0516
45729W        W88745  25.912  22.944  10.802 -0.0051  0.1393 -0.1018
45730W        W88746  18.126  24.611  25.052 -0.2371 -0.1799 -0.3374
45731W        W88747  22.473  18.995  26.992 -0.1050  0.2661  0.2996
45732W        W88748  30.469  28.760  11.265 -0.1388 -0.1889 -0.2161
45733W        W88749  33.208   9.075   1.186  0.1114  0.1467  0.2159
45734W        W88750  27.470  33.262   4.147  0.0137 -0.0059 -0.1587
45735W        W88751  29.355   6.747  10.068 -0.0082  0.3252  0.0675
45736W        W88752  33.319  14.223   8.202 -0.2088 -0.3282  0.0109
45737W        W88753  34.581  22.859  16.884  0.4794  0.0285  0.2896
45738W        W88754  30.867   8.596   2.914  0.0213 -0.2560  0.0511
45739W        W88755   9.717   5.409   8.828 -0.1306 -0.1239 -0.0752
45740W        W88756  26.058  20.123   2.886 -0.0744 -0.0306  0.1417
45741W        W88757  11.623  34.664   4.002 -0.2004 -0.0473  0.0190
45742W        W88758   3.973   6.834   8.774 -0.0281  0.0732  0.1766
45743W        W88759  14.629  14.859  21.285  0.1709 -0.1612  0.2891
45744W        W88760  23.242  13.988  28.974 -0.2153 -0.0852 -0.0983
45745W        W88761  25.595  25.922   0.755 -0.1328 -0.0098  0.0197
45746W        W88762  21.756  24.059   4.556  0.0556 -0.0376  0.3055
45747W        W88763  29.025   4.669  28.168  0.0228 -0.1546 -0.1344
45748W        W88764  33.210   8.685   6.854  0.2080  0.1083  0.1292
45749W        W88765  30.365  14.847   6.369  0.0971 -0.0837  0.1389
45750W        W88766  12.725  12.762  26.935 -0.2485  0.2523  0.4191
45751W        W88767  21.765  23.012   4.550 -0.0791 -0.1671 -0.0916
45752W        W88768   0.876   5.822  20.744 -0.1033 -0.0768  0.1346
45753W        W88769  20.990  18.705   1.369  0.2950  0.0843  0.0681
45754W        W88770  29.391   7.329   3.148  0.2348 -0.2389  0.1890
45755W        W88771  28.140  23.731   0.370 -0.2941  0.0456 -0.2399
45756W        W88772   4.053   8.984  27.622 -0.0121  0.1575  0.2106
45757W        W88773   5.002  10.471  23.464  0.0651  0.0617  0.0634
45758W        W88774  30.270  21.001   5.585 -0.0742  0.1246 -0.0821
45759W        W88775   2.776  13.894   5.269 -0.3006 -0.4534  0.3013
45760W        W88776  27.005  21.477  28.598  0.0882  0.0916  0.0850
45761W        W88777   1.038   1.209   7.641 -0.4129 -0.3812  0.1531
45762W        W88778  17.318  31.237   8.244 -0.2137  0.2751  0.0925
45763W        W88779  24.369  23.148   5.063  0.0277 -0.3640 -0.1914
45764W        W88780  18.269  13.229  22.900 -0.0296  0.2297 -0.1491
45765W        W88781  26.699  18.923  28.056 -0.0166 -0.2642 -0.0809
45766W        W88782  26.564   9.408   9.170  0.1890  0.0884  0.0411
45767W        W88783  30.171   5.659   0.568  0.2513  0.2118  0.1262
45768W        W88784  27.792  16.083   5.566 -0.1940  0.2930  0.1666
45769W        W88785  31.281  33.576   6.646  0.1286  0.0353  0.0768
45770W        W88786  34.421  16.574   9.320 -0.6953  0.0756  0.1011
45771W        W88787  28.875  19.493   8.593 -0.1500  0.2243 -0.0070
45772W        W88788  31.528  18.511  10.676 -0.2169 -0.0575 -0.0597
45773W        W88789  30.204  23.758   8.109 -0.2066 -0.1782  0.0997
45774W        W88790  30.264  19.609   0.208  0.3968 -0.2174  0.0699
45775W        W88791  27.939  25.433   3.927  0.0012 -0.0540  0.1637
45776W        W88792   9.917   1.263  26.471 -0.4033 -0.3526 -0.0418
45777W        W88793   4.869   3.017   4.448 -0.1432 -0.0282  0.0049
45778W        W88794  10.207   6.595   6.102  0.0028 -0.1648  0.3473
45779W        W88795  23.216  14.422   5.833  0.1581  0.2855 -0.1274
45780W        W88796  17.380  10.846  22.816 -0.1297  0.1258 -0.0684
45781W        W88797  32.540   8.823   0.860  0.0310  0.0438 -0.0339
45782W        W88798  33.328  16.819   4.577 -0.0343  0.0749 -0.0666
45783W        W88799  26.881  24.912  28.502  0.0955  0.2723  0.0083
45784W        W88800  30.921   1.539   4.310  0.0969  0.1957 -0.3355
45785W        W88801  25.689  18.120   3.449 -0.1094 -0.0185 -0.1060
45786W        W88802   8.492  11.840   8.796  0.0639 -0.0853  0.1658
45787W        W88803  23.728  16.137  25.926  0.0883 -0.0276 -0.1219
45788W        W88804  25.175   9.395   4.451  0.2254  0.0646 -0.1571
45789W        W88805  27.553  14.653   6.458 -0.0754 -0.2146 -0.2439
45790W        W88806   2.712  23.449   5.907  0.1550 -0.0789  0.1037
45791W        W88807  28.463  13.231   2.404 -0.0162 -0.0691 -0.0710
45792W        W88808   3.899   4.865   7.106  0.0671 -0.1576 -0.1520
45793W        W88809   0.415  14.245   3.600  0.0366  0.2955 -0.0502
45794W        W88810  26.254   8.249   2.558  0.3290 -0.1930  0.1228
45795W        W88811   1.129  13.171  15.872 -0.1389 -0.1275  0.0378
45796W        W88812  19.357  22.844  26.043  0.0328 -0.2482  0.2181
45797W        W88813   1.853   5.428   0.662 -0.1248 -0.1407 -0.0810
45798W        W88814  26.305  17.591   4.467  0.2579 -0.1249  0.0372
45799W        W88815  33.299  21.373  27.292 -0.4407  0.0763 -0.0889
45800W        W88816   2.264  12.496  10.314  0.2237 -0.0597 -0.1407
45801W        W88817   3.156  31.016   1.966  0.0770  0.1172  0.2069
45802W        W88818  25.386  16.621  22.736  0.1402  0.0036 -0.1702
45803W        W88819  13.092  34.156   1.045  0.1481  0.0245 -0.2418
45804W        W88820  27.799   0.081  10.330  0.1768  0.0005 -0.0480
45805W        W88821  24.302  17.882   9.460 -0.0313 -0.0194  0.0607
45806W        W88822  23.037   5.696   6.972 -0.2953 -0.0431 -0.0466
45807W        W88823   1.184  32.103   7.384 -0.3572 -0.1033  0.2084
45808W        W88824  29.502  28.166  10.565  0.0317 -0.1708 -0.1087
45809W        W88825   3.380  24.069   8.526 -0.1097 -0.0115 -0.1657
45810W        W88826  30.584  11.405   1.570 -0.2895  0.1797 -0.2654
45811W        W88827   1.797  15.167   5.963  0.1061  0.2726  0.0243
45812W        W88828  15.231  30.896   1.859 -0.2876 -0.0726 -0.2032
45813W        W88829  28.018   1.470   0.443 -0.1066 -0.2914  0.0891
45814W        W88830  33.916  20.356   7.851 -0.0122  0.3084  0.0077
45815W        W88831   6.786  30.740  28.677  0.2076 -0.2032 -0.0521
45816W        W88832  34.241  18.684   7.242 -0.2476  0.0226 -0.0128
45817W        W88833  17.038  24.964   5.941 -0.2128  0.3227  0.0211
45818W        W88834  27.872  13.928  20.322 -0.1288  0.3175 -0.0086
45819W        W88835  21.513   9.523   5.858  0.0633 -0.1347  0.1678
45820W        W88836  17.273  15.441  29.021  0.0894  0.4749  0.2654
45821W        W88837  34.384  15.002   2.848 -0.0395  0.1049  0.2648
45822W        W88838  26.022  31.026   7.948 -0.2508 -0.0099 -0.1787
45823W        W88839  11.604  17.343   4.368  0.0185 -0.1059  0.2551
45824W        W88840  30.607  25.215   4.608  0.1805  0.2716 -0.3596
45825W        W88841  20.172  21.980   4.821 -0.3061 -0.5012 -0.2061
45826W        W88842  34.189  12.475  27.797  0.0660 -0.3623  0.1338
45827W        W88843  25.968  19.024  27.302  0.1531 -0.0599  0.2509
45828W        W88844   1.517  28.651  27.576 -0.1940 -0.2730  0.1660
45829W        W88845   3.321  21.257   6.299 -0.0471 -0.1628  0.4137
45830W        W88846  17.528   4.658  21.564  0.0243  0.0862 -0.0840
45831W        W88847  25.813  27.589  10.562  0.0713  0.0668 -0.2915
45832W        W88848  31.854  21.913   0.266  0.1600  0.0136 -0.2028
45833W        W88849  33.751  11.629   3.807 -0.0407  0.0772 -0.1873
45834W        W88850  15.777  10.695   6.450  0.0644  0.0064  0.0917
45835W        W88851  11.159  20.243   5.917 -0.2540 -0.3075 -0.3680
45836W        W88852  23.527  16.815  22.664 -0.1476 -0.0302 -0.0561
45837W        W88853  25.700  16.452  10.199 -0.2683  0.1605  0.0915
45838W        W88854   5.404  13.253   2.587  0.0810  0.0052  0.1882
45839W        W88855  24.187  30.280  24.821 -0.1498  0.0290 -0.0808
45840W        W88856  26.645  19.448   7.657  0.5498  0.2468 -0.0441
45841W        W88857   0.437  19.032  10.567 -0.0182  0.1407 -0.0409
45842W        W88858  21.194  22.806  25.230 -0.0059 -0.0405 -0.1963
45843W        W88859  27.556  27.825  16.918  0.2633  0.1625 -0.2450
45844W        W88860  16.692   7.778   3.317  0.1309 -0.1832  0.0137
45845W        W88861   0.754   0.300   9.507 -0.0520  0.2056  0.1868
45846W        W88862  16.853   9.725  19.697 -0.2921  0.1747 -0.2701
45847W        W88863  32.266  23.333  15.564 -0.0374 -0.4545 -0.0821
45848W        W88864  21.233  27.423  19.078  0.0224  0.0735 -0.0441
45849W        W88865  17.238  30.055  10.151  0.2619  0.0822 -0.2240
45850W        W88866  17.675  34.616   5.271  0.3379 -0.1403 -0.1922
45851W        W88867  31.982  19.288   8.701  0.1682 -0.1433 -0.3154
45852W        W88868  16.292  30.731  25.528  0.0344 -0.1709  0.0365
45853W        W88869  10.177  31.855  28.620  0.3464  0.0656  0.0373
45854W        W88870  33.508   4.791   1.384  0.2062 -0.0166 -0.2457
45855W        W88871  14.679  11.475  26.984  0.2632 -0.3202  0.1215
45856W        W88872  18.610  19.377  27.140 -0.0674  0.4111  0.3279
45857W        W88873   3.690   2.147  24.174  0.0838  0.2129 -0.2294
45858W        W88874  16.788  30.722   5.841 -0.2402 -0.3161 -0.0854
45859W        W88875  31.863  13.812  17.006 -0.0594  0.1236 -0.0538
45860W        W88876   0.046  30.594   3.359  0.0136  0.4074  0.0868
45861W        W88877  32.451  17.181  21.474 -0.1435 -0.1658  0.0428
45862W        W88878   4.414  17.699   2.015 -0.0446  0.1388 -0.0077
45863W        W88879  26.574   0.127   7.521 -0.0328 -0.4527  0.4353
45864W        W88880  11.863  31.674   7.541 -0.2202  0.0755  0.0079
45865W        W88881   8.525  26.761  23.100  0.1554  0.0184 -0.0989
45866W        W88882   0.411   2.587  25.340  0.0446 -0.0339  0.1839
45867W        W88883   3.786  12.545   0.322 -0.1265 -0.2518 -0.1303
45868W        W88884  24.383  33.515   5.138  0.1190 -0.1312 -0.0106
45869W        W88885   7.992  23.388  17.628  0.0185 -0.0123 -0.0749
45870W        W88886   7.324  16.186  21.040  0.1045 -0.0819  0.0722
45871W        W88887  19.910  25.259  19.584 -0.0691  0.1750 -0.0254
45872W        W88888   0.629   8.993   2.675 -0.1397 -0.0345 -0.0058
45873W        W88889  22.165   6.279  20.251  0.0317  0.0076 -0.0276
45874W        W88890  23.871  25.982  26.053 -0.4345 -0.0011 -0.0369
45875W        W88891  23.639   4.823  22.328 -0.1251  0.0126  0.0038
45876W        W88892   6.630  21.241   1.864 -0.1187  0.0402  0.2544
45877W        W88893  12.917  13.155   0.551 -0.0819  0.3473  0.1570
45878W        W88894  21.364   8.215  16.359 -0.1000  0.1860 -0.2550
45879W        W88895  25.034   8.947   4.158  0.3774 -0.4274  0.1723
45880W        W88896  22.357  16.816   0.771 -0.2389 -0.0040  0.1065
45881W        W88897  28.295  10.244   1.686 -0.0339  0.0223  0.3224
45882W        W88898  21.218  26.664   5.398 -0.1612  0.1616  0.0798
45883W        W88899  29.620  32.667  18.231 -0.0572 -0.1586  0.1434
45884W        W88900  19.450  11.511  17.799 -0.2125 -0.1976 -0.0191
45885W        W88901   0.452  18.292   4.651  0.0614 -0.0282 -0.2653
45886W        W88902  21.564   9.654   4.237  0.1735 -0.0253 -0.3462
45887W        W88903  17.277  24.016   0.997 -0.1740  0.2632 -0.1776
45888W        W88904  32.776  34.177   9.842  0.0159  0.2739 -0.1189
45889W        W88905   3.332  22.084   4.176  0.1137  0.1875  0.0742
45890W        W88906  20.640  23.126   7.943 -0.0333  0.1289 -0.2466
45891W        W88907  33.129  16.982   1.999  0.0954  0.1541  0.0554
45892W        W88908  24.951   1.447  25.123 -0.0199  0.2191  0.0516
45893W        W88909  30.002  23.455   6.694 -0.2383 -0.1291  0.2550
45894W        W88910  30.562  20.894  27.389  0.1530  0.0188  0.3345
45895W        W88911  30.331  21.648   1.911 -0.0214 -0.0151  0.0910
45896W        W88912   3.029   0.530   2.244  0.1149  0.0787 -0.2257
45897W        W88913  31.117  17.601   3.448 -0.3826 -0.1970  0.0305
45898W        W88914  11.890  31.430  28.095  0.1331 -0.0114 -0.1167
45899W        W88915  28.917  26.210  26.431  0.1760 -0.0976 -0.0246
45900W        W88916  25.891  31.993   8.265 -0.2491  0.2606 -0.2394
45901W        W88917   0.647  24.114  22.262  0.0016 -0.0497  0.1607
45902W        W88918  24.490   3.450   3.370  0.0080  0.0330  0.0535
45903W        W88919  30.928  31.424  11.280 -0.2055 -0.1201 -0.2539
45904W        W88920   1.467  24.117  10.452 -0.1014  0.0636  0.1212
45905W        W88921  24.673   6.725  24.027  0.1061  0.1879 -0.0671
45906W        W88922  16.236   9.218  15.058  0.0135  0.2055  0.4316
45907W        W88923  26.217  26.863  23.115 -0.3366  0.1542 -0.1235
45908W        W88924  19.273  26.494   8.387 -0.3013 -0.1342 -0.0486
45909W        W88925  29.801  12.454   3.889  0.2305  0.1167  0.3049
45910W        W88926  33.677  26.343   5.564 -0.1021 -0.0300  0.2082
45911W        W88927   1.122  22.851  19.318  0.0801  0.3127  0.2379
45912W        W88928  27.305  25.279   3.435 -0.0568 -0.3665 -0.1592
45913W        W88929  28.617  17.522   0.997 -0.0028  0.0973  0.2785
45914W        W88930  24.639  31.108   5.912 -0.0585  0.1971  0.0528
45915W        W88931  28.455  13.172  24.599  0.1413  0.4008 -0.0183
45916W        W88932   1.976  20.421   4.577  0.0410  0.0901 -0.0685
45917W        W88933   1.701  12.082   9.529 -0.2288  0.2787  0.0064
45918W        W88934   7.360  27.034  25.836  0.1280 -0.0664  0.1959
45919W        W88935  30.502  25.375   1.604 -0.2182  0.1688 -0.0936
45920W        W88936  24.877  20.501  26.077 -0.2001  0.1210  0.1577
45921W        W88937  12.763  14.279   5.872  0.0039  0.0718  0.0728
45922W        W88938  28.526  23.905  26.391 -0.0024 -0.0626  0.2566
45923W        W88939  34.361  26.522   2.559 -0.0764  0.1438 -0.3842
45924W        W88940  30.568   7.890  29.029  0.2123 -0.1404 -0.1395
45925W        W88941  33.370  27.245   4.249  0.0182  0.1139  0.0742
45926W        W88942   0.099  26.378   2.310 -0.0859  0.1740 -0.0800
45927W        W88943  28.161  20.127   2.406  0.0268  0.1568 -0.0932
45928W        W88944  24.458  14.225  19.988 -0.0570 -0.1069 -0.1923
45929W        W88945  22.555   7.201   5.801 -0.0332  0.4856  0.1491
45930W        W88946   1.000  29.693   8.958  0.0031 -0.1095  0.0223
45931W        W88947  10.389   4.889   5.323 -0.0454 -0.0969  0.1340
45932W        W88948  28.541   1.234   1.295 -0.0538  0.1214 -0.1821
45933W        W88949  24.273  23.727   1.422  0.1138  0.1923  0.1617
45934W        W88950  27.144  27.415   9.928  0.0122  0.0123 -0.0311
45935W        W88951  23.929   7.579  28.039 -0.3373  0.1729  0.1521
45936W        W88952   0.855  25.347  28.184 -0.0866 -0.0410  0.0753
45937W        W88953  13.623  25.392   3.149 -0.3090 -0.0802  0.1277
45938W        W88954   0.240  34.542  28.803 -0.1595  0.0567  0.1273
45939W        W88955  25.618  10.424   6.386 -0.2360 -0.1886 -0.3930
45940W        W88956  30.175  25.978  27.365  0.0637 -0.1063  0.2547
45941W        W88957   5.687  31.265   8.861 -0.1274 -0.2037  0.0755
45942W        W88958  30.221   1.865  25.192 -0.4140 -0.3347 -0.2484
45943W        W88959  13.353   4.575  21.492 -0.0630 -0.0462  0.1004
45944W        W88960   3.665  15.000  26.723  0.2867  0.1796 -0.0017
45945W        W88961  28.004   6.644  19.869  0.0851  0.3822 -0.1265
45946W        W88962  24.804  13.372   6.790  0.1004  0.1210  0.2426
45947W        W88963   8.418  17.001   5.477 -0.0284 -0.1331  0.0175
45948W        W88964  25.786  12.955   5.207 -0.0989 -0.3102 -0.0068
45949W        W88965  20.748  16.822  22.803  0.0307 -0.3593  0.1142
45950W        W88966  30.380  20.218  25.814 -0.1121 -0.1190 -0.2699
45951W        W88967   6.865  31.493   2.303  0.3629  0.1060 -0.1158
45952W        W88968  26.909  32.371   3.310 -0.1701  0.1921 -0.0690
45953W        W88969  31.323   8.042   6.070 -0.0858  0.0217  0.0372
45954W        W88970  26.770  13.286   9.177 -0.2800  0.3127  0.0155
45955W        W88971  24.943   1.105   8.282 -0.0320  0.1331  0.1160
45956W        W88972  25.449  26.281   3.036  0.1666  0.0409  0.0243
45957W        W88973  31.009  10.173   0.713  0.0589 -0.2779 -0.0853
45958W        W88974  28.728   3.148  26.897 -0.0886 -0.0682  0.0882
45959W        W88975  30.399   5.059   7.125 -0.0680  0.0268  0.2675
45960W        W88976  29.730  18.813   5.566  0.1217  0.1664  0.2178
45961W        W88977  27.659   7.970  10.739 -0.1821 -0.0775 -0.5281
45962W        W88978   7.023  28.661  10.313 -0.0458 -0.5317  0.2241
45963W        W88979   2.823  16.794  28.347  0.1969  0.0302  0.0355
45964W        W88980  32.692  25.060  27.917  0.0510 -0.1248  0.0426
45965W        W88981   7.306  23.849  21.825 -0.3189 -0.1221 -0.0406
45966W        W88982  11.085  12.923   8.118  0.1150  0.0092 -0.1296
45967W        W88983   5.276  27.114  10.063  0.2198 -0.0374 -0.0213
45968W        W88984  28.721  19.286  19.351  0.1793 -0.2694 -0.6008
45969W        W88985  27.147  32.806  27.593 -0.2132 -0.1559  0.2144
45970W        W88986  11.684   0.114  25.655 -0.1666  0.2227 -0.2155
45971W        W88987  18.712  20.870   2.787 -0.0842 -0.3249  0.3324
45972W        W88988  10.031  11.173  28.784 -0.0128  0.0152 -0.1263
45973W        W88989  18.718  15.359   8.603 -0.0688  0.0609  0.0868
45974W        W88990  13.083  19.234  23.679  0.0890 -0.3786 -0.2005
45975W        W88991  26.207   9.826   6.514  0.1645  0.2699  0.3235
45976W        W88992  28.459  25.103   8.749  0.0752  0.0733 -0.1384
45977W        W88993  33.404  30.849   5.588  0.1751  0.3408 -0.1339
45978W        W88994   4.441  20.824   8.299  0.0003  0.0343 -0.1822
45979W        W88995   3.583  28.432  26.543  0.0600 -0.0603  0.0254
45980W        W88996  27.376  31.594  24.834 -0.2073 -0.0873 -0.1389
45981W        W88997   1.245  33.182  10.164  0.0312  0.1257  0.2409
45982W        W88998  30.146  29.107   5.931 -0.1983  0.1298  0.2803
45983W        W88999  27.315  16.175  28.394 -0.0823 -0.2426  0.2490
45984W        W89000  24.426  25.349  20.136  0.1336 -0.0395 -0.0486
45985W        W89001  25.266  13.798   2.039  0.1486  0.1775  0.0037
45986W        W89002  19.203  18.686  25.615 -0.2080 -0.1252 -0.1884
45987W        W89003  10.269   8.715  21.902 -0.3411  0.1170  0.2498
45988W        W89004  26.112  34.294   3.459  0.0140 -0.2319 -0.0086
45989W        W89005  20.083  33.476   9.925 -0.4558  0.1498 -0.1487
45990W        W89006   4.950   3.400   0.533 -0.1450 -0.3980 -0.2186
45991W        W89007  18.643  22.353  27.106 -0.1067  0.3297  0.0294
45992W        W89008  18.355  29.109  16.677 -0.0764 -0.1030 -0.0358
45993W        W89009   6.768  24.662  14.814 -0.2355  0.2899  0.2204
45994W        W89010  29.223   6.027   2.749  0.1418  0.3399  0.1449
45995W        W89011  14.084  19.447   3.847 -0.3110  0.0218  0.0545
45996W        W89012   3.536  22.246   8.103  0.2682  0.1762 -0.3864
45997W        W89013  31.365   6.097  28.516  0.0571  0.4038  0.0479
45998W        W89014  17.817  23.410  16.202 -0.1266 -0.0544 -0.0006
45999W        W89015  17.179  31.970  21.407 -0.1616  0.1642 -0.0193
46000W        W89016  21.050  14.638   1.583 -0.1060  0.1039  0.0870
46001W        W89017  29.929  30.749  12.069 -0.1042  0.0155  0.2276
46002W        W89018  19.762   6.032  26.697 -0.3431  0.0189 -0.1619
46003W        W89019   5.686  11.945   2.823  0.2629  0.0075  0.0907
46004W        W89020  30.611  23.163  25.184 -0.3031 -0.2032  0.0254
46005W        W89021  29.500   9.205   6.267 -0.0469 -0.5577 -0.3478
46006W        W89022  30.736  12.409  19.794 -0.0482  0.1956  0.0126
46007W        W89023  28.878  14.393  17.631 -0.0598 -0.2031 -0.4350
46008W        W89024  15.159  12.815   3.082 -0.0821  0.0182  0.0454
46009W        W89025  10.165  27.976   8.761  0.1650 -0.1047  0.0182
46010W        W89026  32.675  26.179   5.363 -0.4547  0.0969 -0.0084
46011W        W89027   3.468  15.832   6.915 -0.0907  0.1938 -0.4510
46012W        W89028   2.409  19.820  27.885 -0.1725 -0.2842 -0.1601
46013W        W89029  21.059  22.043  20.520  0.1162  0.1078 -0.3474
46014W        W89030   4.833  24.329   4.268  0.0662 -0.0962 -0.1953
46015W        W89031  30.799  19.940   4.913 -0.1713 -0.0231  0.1326
46016W        W89032   1.300  31.969  15.587  0.0045  0.2260 -0.1184
46017W        W89033  30.220  22.254   7.929  0.1379  0.0845  0.4742
46018W        W89034  33.400  33.904   9.126 -0.1762 -0.1835  0.4181
46019W        W89035   4.815  32.100   1.410  0.1144  0.1682  0.1388
46020W        W89036  12.620  26.289   7.977  0.1447  0.0696  0.0204
46021W        W89037  32.445  22.759   1.829 -0.0814  0.0374  0.0759
46022W        W89038   0.057  13.236   4.301 -0.1293 -0.5197 -0.1900
46023W        W89039   2.199  29.717   9.592  0.2642  0.1702 -0.0023
46024W        W89040  33.091   3.522  26.059 -0.0353 -0.2519 -0.1406
46025W        W89041  33.961  25.662   8.386 -0.0073 -0.3594  0.2579
46026W        W89042  22.835  24.542   1.383  0.2246  0.4301  0.2289
46027W        W89043   4.237  32.656  21.018 -0.1048  0.3373  0.1716
46028W        W89044  23.684  20.591  18.706  0.2612  0.3266 -0.5288
46029W        W89045  23.889  30.371   4.167  0.0771 -0.2487 -0.0014
46030W        W89046   2.719  20.532  22.423 -0.0773  0.4066 -0.0210
46031W        W89047  32.887  23.333   5.899 -0.1379 -0.2195 -0.2014
46032W        W89048   1.345  10.930   8.028 -0.0242 -0.1194 -0.0471
46033W        W89049  31.323   2.961   8.152 -0.2304  0.1381  0.0164
46034W        W89050  30.078  20.567   6.765 -0.1360 -0.2014  0.0276
46035W        W89051  28.358  27.613   9.197  0.4248  0.2023  0.2749
46036W        W89052  17.695  31.697  16.084 -0.1213  0.3200  0.0860
46037W        W89053  27.818  10.809  25.886 -0.1596 -0.0746  0.0173
46038W        W89054  28.383   0.985   9.056 -0.2389 -0.1621  0.1539
46039W        W89055   7.239   2.111   8.150  0.0406 -0.1596 -0.0980
46040W        W89056  32.039   8.458   0.370 -0.3025  0.0179  0.0868
46041W        W89057   8.356   1.927  24.797 -0.3848  0.1411 -0.4516
46042W        W89058   4.358  10.671   4.600  0.2446 -0.1036 -0.1182
46043W        W89059  33.540  28.950   7.153 -0.0715 -0.0636  0.2070
46044W        W89060  33.229  25.323  27.283  0.2616 -0.0749  0.1800
46045W        W89061  34.542  30.633   2.714  0.1281 -0.0273  0.0137
46046W        W89062  32.381  23.897  27.110 -0.0348 -0.0334  0.1822
46047W        W89063  28.079  24.687  10.578  0.4710  0.0098 -0.0148
46048W        W89064  15.888  21.354  23.042 -0.3776  0.4890  0.1144
46049W        W89065  27.645  20.159  23.564  0.0804 -0.2327  0.0352
46050W        W89066  32.601  26.917   1.452  0.4100 -0.0417 -0.0914
46051W        W89067  23.158  22.172   3.417  0.0811  0.1116 -0.0198
46052W        W89068  22.256  16.133   1.390 -0.2358  0.2536  0.2275
46053W        W89069   9.754  16.989  27.752 -0.2671 -0.0376 -0.1215
46054W        W89070  32.728  15.132   8.680  0.1490  0.5319  0.0148
46055W        W89071  16.690  25.365   6.838  0.3391  0.1280 -0.4512
46056W        W89072  11.544  23.371   4.070  0.2018 -0.1835 -0.0721
46057W        W89073  31.715  19.574  19.871  0.1747  0.0001 -0.1322
46058W        W89074  27.418  19.020  26.894  0.0024 -0.0719 -0.0082
46059W        W89075  26.444  17.941  20.743  0.1243 -0.0524 -0.1060
46060W        W89076  25.320  24.796   9.295 -0.1267 -0.0323 -0.1197
46061W        W89077  29.410  26.895  29.132 -0.0477 -0.2237  0.3154
46062W        W89078  27.525  31.553   5.553 -0.1382  0.3851 -0.0867
46063W        W89079  24.084  15.320   1.387 -0.1285 -0.0546 -0.1663
46064W        W89080  29.071  12.466   5.820  0.0533  0.1976 -0.2974
46065W        W89081  31.575   3.286   0.272 -0.0028 -0.1569  0.1408
46066W        W89082   3.958  13.722  28.329 -0.1147  0.1162 -0.0656
46067W        W89083  31.621  21.225  26.503  0.1029  0.0943  0.0922
46068W        W89084   6.706  26.496   6.747  0.0712  0.0971 -0.0183
46069W        W89085  15.029  13.876  29.133 -0.3366 -0.1268  0.1449
46070W        W89086  32.155  24.900  27.693  0.2473  0.0191  0.1863
46071W        W89087  16.793   9.182  14.999 -0.0284  0.0256 -0.1031
46072W        W89088  19.581  18.896   7.590 -0.2377 -0.1809  0.2346
46073W        W89089  29.410  10.070   7.577 -0.1369 -0.1219 -0.2093
46074W        W89090  34.362  25.068   2.439  0.1319 -0.1373 -0.3345
46075W        W89091  26.462  21.274   9.419  0.1069  0.0255 -0.0567
46076W        W89092  25.399   1.650   5.112  0.0259 -0.2093  0.1826
46077W        W89093  33.592   8.799  23.395  0.3346 -0.1102 -0.0882
46078W        W89094   2.414   7.967   9.722 -0.0025  0.1131 -0.0900
46079W        W89095  27.344   8.572   1.800 -0.2708  0.2577 -0.0398
46080W        W89096   3.100  20.475   4.725 -0.0488 -0.2637 -0.2298
46081W        W89097  23.722  26.012  18.915 -0.1333 -0.0739 -0.3269
46082W        W89098   2.661  17.453  17.822 -0.0251  0.2017 -0.1496
46083W        W89099  26.559  23.658  26.866  0.1155 -0.5333  0.1304
46084W        W89100  24.145   8.094   5.468  0.0260 -0.1257 -0.0378
46085W        W89101   9.823  23.248  16.997 -0.1794  0.1194 -0.0262
46086W        W89102  30.665  29.470  26.278  0.0840 -0.0310  0.2288
46087W        W89103  33.773   7.614   4.584  0.2138  0.0026 -0.4209
46088W        W89104   2.967  13.889   0.249  0.1371 -0.2690 -0.0178
46089W        W89105   2.366  28.617   2.751  0.4433  0.1837 -0.1777
46090W        W89106   8.343  23.512   4.583  0.0664 -0.1960  0.1406
46091W        W89107   6.335  28.292   1.574 -0.2569 -0.2770 -0.3273
46092W        W89108  22.339  12.891  16.085  0.1410  0.0192  0.1240
46093W        W89109  21.160  21.583   5.616 -0.4846 -0.4675  0.2790
46094W        W89110  34.056  27.027   8.867  0.1453  0.3254 -0.0209
46095W        W89111  20.854  10.375   2.543 -0.1837  0.1222  0.2483
46096W        W89112  33.982  18.555   5.977 -0.0044  0.0728 -0.1159
46097W        W89113  23.803   3.304  21.381  0.0507 -0.1252 -0.1182
46098W        W89114  26.089   8.728  16.527  0.2939  0.3355  0.0837
46099W        W89115  14.649  19.449  23.397  0.0249  0.0431 -0.2274
46100W        W89116   2.335  22.906   1.381  0.0556  0.0943 -0.0126
46101W        W89117  18.170  18.225   4.136  0.1307 -0.0448  0.0380
46102W        W89118  29.014  24.296   0.941  0.0168  0.0617  0.0423
46103W        W89119  24.756  17.137   2.103  0.1723 -0.0946 -0.1837
46104W        W89120   2.632  22.899   8.548 -0.1454 -0.0165 -0.1786
46105W        W89121  33.904  23.315  23.462  0.0730 -0.0564 -0.2941
46106W        W89122  18.071  19.194  22.053  0.0714  0.3684  0.4416
46107W        W89123  31.185  24.346   6.654  0.3459 -0.2455 -0.1150
46108W        W89124  33.594  19.444  16.815  0.2590 -0.2118  0.0593
46109W        W89125  12.176  19.577  22.111 -0.0266 -0.0975  0.0450
46110W        W89126  26.017  19.049  16.082 -0.1217  0.1594  0.0007
46111W        W89127   4.048  19.414  25.525  0.0898 -0.0932  0.0460
46112W        W89128  24.055  28.500  15.056 -0.1004 -0.2476 -0.2438
46113W        W89129   8.214  18.896   1.190 -0.4712  0.1638  0.0407
46114W        W89130  26.043   0.048  23.561 -0.1726 -0.0214  0.0102
46115W        W89131  25.607  17.081   8.561 -0.0231  0.1891  0.1539
46116W        W89132  22.654  27.686   4.592  0.0885 -0.2325 -0.0156
46117W        W89133  11.052  11.975   7.154 -0.0923 -0.2324  0.2178
46118W        W89134  28.854   6.992   2.104 -0.1540 -0.2460 -0.0183
46119W        W89135  17.525  15.189   0.115  0.0159  0.1244  0.2341
46120W        W89136  23.601   5.834  22.331  0.3428 -0.1663  0.1205
46121W        W89137  34.195   0.289   1.639  0.1966 -0.1633 -0.0744
46122W        W89138  21.841   8.859  24.843  0.0669  0.0064  0.2032
46123W        W89139   7.956  25.986  19.160  0.1943  0.0402 -0.1636
46124W        W89140  22.622  28.753  21.843 -0.2707 -0.1921  0.3391
46125W        W89141  23.708   9.146  26.979 -0.0787 -0.0762  0.0018
46126W        W89142  30.370  24.323  10.007  0.0273 -0.0830 -0.3222
46127W        W89143   8.446  31.133   6.717  0.3021  0.0364  0.2474
46128W        W89144  30.838  15.864   5.627  0.1120 -0.0159 -0.1422
46129W        W89145  23.881  22.473  14.674  0.0424 -0.1821 -0.0954
46130W        W89146  25.587  12.386   1.429 -0.2999  0.0168 -0.2606
46131W        W89147  27.911  18.607  28.997  0.1877 -0.0605 -0.1361
46132W        W89148  24.650  23.848   7.887 -0.0965  0.0939  0.1923
46133W        W89149  24.878  20.967  17.085 -0.2152  0.0647  0.1274
46134W        W89150  30.840  24.109  19.838  0.2838 -0.1531  0.0575
46135W        W89151   7.143  33.233  28.825  0.1251  0.0616  0.0523
46136W        W89152   2.979  19.444  27.202  0.0666 -0.2674  0.1075
46137W        W89153  17.385  20.762  28.512  0.2996 -0.1537  0.0464
46138W        W89154  16.336  22.911  26.485 -0.1285 -0.0884 -0.0984
46139W        W89155  28.974   5.484  21.100 -0.0626  0.0479 -0.3510
46140W        W89156  33.304  33.642   7.450  0.0308 -0.0777  0.0960
46141W        W89157  18.126   7.194  24.097  0.1557  0.0648 -0.2022
46142W        W89158   6.893  17.486   2.706  0.0846 -0.1215 -0.3179
46143W        W89159  25.824  11.050  20.234  0.3955 -0.0885  0.0870
46144W        W89160  29.907   4.772   1.541 -0.0066  0.1710 -0.1680
46145W        W89161  31.236  30.050  10.292  0.0001 -0.2656 -0.0920
46146W        W89162  25.449  19.797   4.680  0.1189 -0.0365  0.1200
46147W        W89163  25.926  12.007   1.820 -0.1332  0.0972 -0.0195
46148W        W89164  19.794  25.633  19.190 -0.0311  0.1685 -0.0489
46149W        W89165  30.626  32.367   6.075 -0.0037  0.0817 -0.2184
46150W        W89166  26.270  12.341  23.959  0.1610  0.0734  0.0534
46151W        W89167  17.618   1.761  26.310 -0.3321  0.2351 -0.0277
46152W        W89168  20.044  23.975   2.845  0.2051  0.1774  0.0124
46153W        W89169  25.524  16.438  26.239 -0.0243 -0.0497  0.0557
46154W        W89170  33.886   6.882   6.669 -0.0029 -0.3973  0.1835
46155W        W89171   1.052  16.090  23.675  0.5209 -0.1098 -0.0551
46156W        W89172  31.155  27.113   8.995 -0.1132  0.1543  0.0802
46157W        W89173  29.523  21.417  29.142 -0.2315  0.0993 -0.0295
46158W        W89174  18.818  14.791   4.893 -0.0137 -0.2626  0.0630
46159W        W89175  30.099  16.754  15.102 -0.0560  0.1788  0.0344
46160W        W89176  24.553  24.899   8.703 -0.0210  0.0088 -0.0914
46161W        W89177  28.998  24.659   3.026  0.1128  0.3923  0.2543
46162W        W89178  31.010  29.264  17.568  0.0361  0.3622 -0.2178
46163W        W89179  30.669  24.545   1.240  0.5349 -0.0455  0.0623
46164W        W89180  27.202  23.145  21.325 -0.0693 -0.1007  0.1057
46165W        W89181  19.399  12.135  24.478  0.1632 -0.0343  0.0124
46166W        W89182  27.140  27.171   6.001  0.1886  0.1108  0.0291
46167W        W89183   6.362  23.781  26.808  0.0499  0.0956 -0.2593
46168W        W89184  22.144  21.345  13.246 -0.0941  0.1671 -0.0648
46169W        W89185  33.250  13.837  28.867 -0.1369  0.1000  0.2905
46170W        W89186   3.773  31.561  18.891 -0.1767  0.0210 -0.1830
46171W        W89187   9.767  14.102   2.451  0.2827  0.0734 -0.0231
46172W        W89188  19.493  15.855  22.201 -0.2494 -0.0366  0.1482
46173W        W89189  13.811  13.805   7.663 -0.1907 -0.4693  0.0797
46174W        W89190   4.142  24.646  19.444  0.4145  0.0498 -0.4725
46175W        W89191   2.660  18.410  19.108 -0.2129 -0.1036 -0.0078
46176W        W89192  25.561  27.550  25.456 -0.0649  0.1570  0.2947
46177W        W89193  24.874  15.858  17.486  0.1260 -0.0239  0.0236
46178W        W89194   0.892  25.396   3.763 -0.3622 -0.1278  0.0945
46179W        W89195  28.645   6.345   0.838 -0.2663  0.2557 -0.2451
46180W        W89196  34.546   1.916   2.633 -0.0768  0.0215 -0.2311
46181W        W89197   9.780  17.562  28.954 -0.0898  0.0689  0.0386
46182W        W89198  28.388  32.409   7.714  0.1366 -0.0609 -0.2184
46183W        W89199  26.858  13.138   2.711  0.0305  0.5010  0.3216
46184W        W89200  25.020  29.835  26.194 -0.0744  0.2876 -0.4507
46185W        W89201  33.130  22.384  27.267 -0.1226  0.0285  0.0061
46186W        W89202  13.973  21.943   6.087 -0.3713 -0.0391  0.1593
46187W        W89203  23.223  24.818   7.040 -0.3510  0.1849 -0.2569
46188W        W89204   2.678  31.313   4.758  0.2511  0.1347 -0.0912
46189W        W89205   5.224   1.146   6.648 -0.0349  0.1706  0.3113
46190W        W89206  29.874  22.781  27.023  0.1814 -0.1440 -0.3434
46191W        W89207   2.755  23.696  10.044  0.0751  0.2596 -0.0146
46192W        W89208   2.612  16.058   7.024 -0.0934 -0.0901  0.5809
46193W        W89209  33.897   2.447  17.994  0.0749 -0.0499 -0.1705
46194W        W89210  10.045  33.037   5.127 -0.0181 -0.0225 -0.1161
46195W        W89211  27.676  23.565   7.745 -0.1581  0.1308  0.1255
46196W        W89212   1.113  19.092   6.405 -0.2219  0.0126 -0.0702
46197W        W89213  23.787   5.334   1.501  0.0986 -0.2219  0.2350
46198W        W89214   7.830  32.129   5.863  0.2280 -0.0142 -0.0331
46199W        W89215  30.075  17.072   1.656  0.0727  0.5407 -0.1340
46200W        W89216  31.493  17.715  21.476  0.0892 -0.1697 -0.0434
46201W        W89217  26.619  20.361  14.638 -0.0702 -0.0837  0.0482
46202W        W89218   1.540  24.172   8.206  0.0896  0.1076  0.1728
46203W        W89219  30.084  12.678   3.546 -0.2071  0.1981 -0.3289
46204W        W89220  26.051  29.922  11.426 -0.1143 -0.0370  0.3062
46205W        W89221   3.920  25.142   0.969 -0.1463 -0.0123 -0.0466
46206W        W89222  15.103  22.893  23.095  0.3557  0.0787  0.0038
46207W        W89223  21.057  18.975   5.862  0.5688 -0.0220  0.1581
46208W        W89224   5.745  23.462  25.731  0.0383  0.0398 -0.1888
46209W        W89225  13.579  31.327  10.647 -0.2429  0.0932  0.0238
46210W        W89226  23.693  10.583   7.738  0.1692 -0.0300  0.1816
46211W        W89227   9.914  34.031   3.606  0.0276 -0.0226  0.0268
46212W        W89228   4.365  19.175  21.092  0.0578 -0.2743 -0.3269
46213W        W89229  15.028  12.673  19.273  0.2479 -0.1817  0.3555
46214W        W89230  21.173  26.015   6.680 -0.1371  0.0198  0.0443
46215W        W89231  34.044   8.766   4.661 -0.1377  0.1072  0.1064
46216W        W89232   9.014  13.370   6.314 -0.0817  0.1364 -0.3604
46217W        W89233  13.925  18.692  26.755 -0.3296 -0.0431  0.0910
46218W        W89234   4.311  14.687  28.456  0.1490  0.1823  0.2427
46219W        W89235  28.156  11.858   7.490  0.0640 -0.2127  0.3256
46220W        W89236  30.127  14.907   2.589 -0.0535 -0.1407  0.0755
46221W        W89237   7.736  17.937   0.148  0.3306  0.0170 -0.0363
46222W        W89238  28.186  32.977  22.629  0.3240 -0.3827 -0.2475
46223W        W89239   3.853  33.967  27.792 -0.0487 -0.2700  0.1487
46224W        W89240   7.059  22.908   4.418 -0.3077  0.1156  0.0692
46225W        W89241   5.754   9.324   5.404  0.1381  0.0451 -0.0041
46226W        W89242  20.764  33.026  27.126 -0.0576 -0.0516 -0.3425
46227W        W89243   7.832  13.132   8.727  0.0052 -0.0897 -0.1067
46228W        W89244  13.285  12.085   8.530  0.1347 -0.3697 -0.0926
46229W        W89245  29.718  23.960   3.100 -0.0703 -0.1805 -0.0350
46230W        W89246   2.888  29.393   8.420  0.1177 -0.1417 -0.2200
46231W        W89247  20.970  32.721   3.356 -0.0933 -0.0448  0.2047
46232W        W89248  18.163  18.138   2.252  0.0931 -0.1120  0.0791
46233W        W89249   4.084  27.826  20.841  0.1319  0.0484  0.2525
46234W        W89250  24.018  30.120  11.517  0.0934  0.1190 -0.1144
46235W        W89251   9.324  17.258   6.738 -0.0606  0.0730 -0.0013
46236W        W89252  10.093  24.883   7.058  0.0839  0.1985 -0.1095
46237W        W89253  13.604  11.189   0.091  0.0327 -0.0370 -0.1678
46238W        W89254   2.276   4.094   6.850  0.2077  0.1380 -0.1348
46239W        W89255   6.930  32.858  21.935  0.0715 -0.0518  0.1945
46240W        W89256  30.352  30.684  11.799 -0.2109 -0.1849  0.0794
46241W        W89257  29.264   3.851  22.400  0.1436 -0.0192  0.1273
46242W        W89258  18.958  11.486  27.268 -0.0298  0.4800 -0.0095
46243W        W89259  11.551  16.828   5.523  0.1260  0.0326 -0.0750
46244W        W89260  28.640   7.935   4.200 -0.0831 -0.1162 -0.4038
46245W        W89261  26.970  15.219   6.900 -0.2969  0.1204 -0.0397
46246W        W89262  13.633   9.946   4.707  0.1665  0.3046 -0.2600
46247W        W89263  30.314  10.407  10.702 -0.2773  0.0148 -0.0446
46248W        W89264   1.516  31.171  21.900 -0.1142  0.0989 -0.0572
46249W        W89265   3.792   7.528   3.126 -0.3006  0.0530  0.1328
46250W        W89266  24.322  23.907  10.693 -0.2734 -0.0382  0.3878
46251W        W89267  13.177  16.410  23.716  0.0090 -0.2009  0.1907
46252W        W89268  20.194  22.690   9.648  0.0345 -0.3728  0.0267
46253W        W89269   4.183  23.212   6.833 -0.2243 -0.0646  0.0253
46254W        W89270  30.368  21.856  28.959  0.0621 -0.2321 -0.1048
46255W        W89271  31.947  15.479   6.308  0.2513 -0.0019 -0.2623
46256W        W89272  12.185  20.207  25.409  0.0517 -0.1697 -0.1232
46257W        W89273   9.247  22.366  28.775 -0.3464  0.1556  0.1560
46258W        W89274  27.823  16.951  14.672 -0.0817 -0.1175  0.1274
46259W        W89275   2.410  20.993  16.103  0.1144  0.0878 -0.1651
46260W        W89276  23.331  25.036   8.343  0.2893  0.0827  0.2258
46261W        W89277  27.888   1.880  10.344 -0.1938 -0.0685  0.2319
46262W        W89278  27.434  21.118   8.204  0.2636 -0.0236 -0.2210
46263W        W89279  16.623  24.990   4.362  0.1357  0.1598  0.0995
46264W        W89280  34.112   8.425   4.277  0.1851  0.0475 -0.1070
46265W        W89281  31.740  19.534   6.870  0.2083  0.0287  0.4737
46266W        W89282   8.747  12.882   9.598 -0.4688 -0.3960  0.0767
46267W        W89283  29.955  21.607  10.444 -0.2312  0.2937 -0.2301
46268W        W89284  10.072  30.046   3.670 -0.2415  0.4611 -0.1075
46269W        W89285  20.855  17.792  25.882 -0.0245 -0.0912 -0.0919
46270W        W89286   6.914  22.574   2.088  0.0495  0.0808  0.0466
46271W        W89287  32.795  14.799   5.037 -0.1280 -0.2958  0.1128
46272W        W89288   6.639  14.933  18.219 -0.3404  0.0191 -0.3160
46273W        W89289  31.824  15.075   2.360 -0.0625 -0.1231 -0.0547
46274W        W89290   3.187  19.008   8.757  0.0521  0.0894 -0.3468
46275W        W89291   2.812  10.361  16.303  0.1330 -0.0426  0.3004
46276W        W89292  34.652  27.754  20.591  0.0159 -0.1384  0.0577
46277W        W89293   1.599  27.332  22.096  0.1674  0.2584 -0.1269
46278W        W89294  21.696  22.089   3.060  0.2235  0.1629 -0.1793
46279W        W89295   4.980  28.265  28.901  0.3167 -0.2652  0.1400
46280W        W89296  25.031  15.876  26.682 -0.2971  0.1076 -0.0032
46281W        W89297   5.267  26.592   5.476 -0.1318 -0.3922 -0.0314
46282W        W89298  31.582  17.684   3.581 -0.2502 -0.0812 -0.0507
46283W        W89299   1.392  11.183   3.133 -0.1316 -0.0734  0.0348
46284W        W89300  31.853  10.011   7.690  0.1338  0.0492  0.1966
46285W        W89301  19.831  34.223  22.576  0.1250 -0.2374 -0.0290
46286W        W89302  18.793  26.690  27.804 -0.1660 -0.1058 -0.0966
46287W        W89303  10.192  21.324   8.449  0.0592  0.0911  0.0136
46288W        W89304   1.899  25.792   8.013  0.2487  0.1057 -0.0620
46289W        W89305  26.914  14.124   5.065 -0.0020  0.0212  0.3219
46290W        W89306  33.710  27.245   6.153  0.3389 -0.3591 -0.1467
46291W        W89307   2.452  29.384   9.222 -0.1935 -0.1038  0.2346
46292W        W89308   8.532  16.656   1.615 -0.1229 -0.3548 -0.1674
46293W        W89309  31.203  16.654   8.735  0.0837  0.1406 -0.1840
46294W        W89310  25.625  14.920  28.106 -0.0007 -0.1993  0.0646
46295W        W89311   1.819  22.289   9.759 -0.0046  0.0497  0.2343
46296W        W89312   0.959   9.810   3.280 -0.2933  0.4513 -0.1734
46297W        W89313  28.454  31.296   5.289  0.3224 -0.0677  0.1698
46298W        W89314  22.806   1.645   1.180 -0.1284 -0.1845  0.1044
46299W        W89315  34.312  29.307  10.795 -0.0363  0.0959 -0.0748
46300W        W89316   0.531  21.881   8.322  0.1029  0.1348 -0.0621
46301W        W89317   1.730  26.777   0.430 -0.4536 -0.3081 -0.0466
46302W        W89318   0.051  12.860  29.198 -0.0965  0.1956  0.4038
46303W        W89319   1.293  28.066   8.829 -0.1534 -0.1110  0.3524
46304W        W89320  31.184  22.904  26.143  0.2103 -0.2035  0.3889
46305W        W89321   1.181  30.709  10.898 -0.5443 -0.0583  0.2790
46306W        W89322  25.445  29.125   4.040  0.0042  0.1026  0.1349
46307W        W89323  32.703  30.966   1.247  0.2172 -0.0364  0.2774
46308W        W89324  32.379  26.131   0.946 -0.3899 -0.0814 -0.2461
46309W        W89325  28.432  11.163  10.595 -0.3271  0.1898  0.2668
46310W        W89326  10.322   9.998   5.408  0.3097 -0.0151  0.1497
46311W        W89327   3.209  23.057   9.660 -0.2917  0.0623 -0.3071
46312W        W89328  16.747  26.233   7.160 -0.1178 -0.1422 -0.1413
46313W        W89329  12.803  31.879   3.419 -0.0245  0.1095  0.0558
46314W        W89330  27.515  23.821   4.280 -0.0194 -0.0317  0.0485
46315W        W89331  31.374  12.755   8.392 -0.0902  0.1443 -0.0164
46316W        W89332  32.999  31.260   3.270 -0.0319 -0.0823 -0.2028
46317W        W89333   5.028  28.575   8.864  0.0076 -0.2876 -0.2011
46318W        W89334  29.517   4.763  27.895 -0.2161 -0.0310  0.1327
46319W        W89335  30.604  18.085   8.618  0.0323 -0.5479  0.1599
46320W        W89336  34.224  19.398   4.091 -0.2561 -0.1249  0.0757
46321W        W89337  17.547  13.091  28.155 -0.2852 -0.0601 -0.2127
46322W        W89338   1.543  28.071   8.183  0.1055  0.1621  0.1617
46323W        W89339  10.728  19.516  14.358 -0.2149 -0.1551 -0.0682
46324W        W89340  33.382  22.918  23.443  0.1740  0.2941 -0.1553
46325W        W89341  20.086  20.722   1.703 -0.2661  0.0294  0.2423
46326W        W89342  31.201  20.725   1.415  0.3701  0.1113  0.0753
46327W        W89343  21.937  12.789  22.797  0.1391  0.4200  0.1348
46328W        W89344   4.120  26.257   2.260 -0.2493  0.4184 -0.1059
46329W        W89345  31.281  18.491   6.024 -0.0587 -0.2661 -0.2112
46330W        W89346  21.393  21.624  16.714  0.1832 -0.1716  0.1499
46331W        W89347  31.481  22.174   6.824  0.1135  0.2433 -0.0992
46332W        W89348  17.147  18.653   0.044  0.1003  0.0235  0.1160
46333W        W89349   8.293  27.500  26.637 -0.1350 -0.1654  0.1197
46334W        W89350  34.111  18.990  24.899  0.1047 -0.0307  0.1377
46335W        W89351  18.946  20.892   6.095  0.1362 -0.2678  0.1165
46336W        W89352  30.344  32.424   9.437 -0.1418 -0.1228  0.0815
46337W        W89353  30.112  19.555  10.544 -0.1964 -0.2304  0.2967
46338W        W89354  20.916  14.879  28.545 -0.2355 -0.2832  0.0212
46339W        W89355  31.601  17.049   5.280 -0.2208 -0.3154 -0.1726
46340W        W89356  25.907  28.563   4.807  0.5613 -0.2309 -0.1841
46341W        W89357  31.689   0.525   0.284 -0.0509 -0.0565 -0.0763
46342W        W89358   5.902  21.587   9.462  0.2529  0.0781 -0.0539
46343W        W89359   6.027  34.384   0.661  0.1983  0.1359  0.3486
46344W        W89360   7.420  30.761   1.451 -0.0628 -0.1181  0.0842
46345W        W89361  13.308   0.925   9.590 -0.3380  0.3192 -0.0320
46346W        W89362  23.713  11.533   4.177  0.4823  0.3053 -0.1853
46347W        W89363   4.297  17.196   1.066 -0.0040 -0.1052 -0.3770
46348W        W89364  19.791  29.959   3.692  0.1310  0.1977  0.2923
46349W        W89365  15.664  27.079   9.127 -0.0010 -0.0141 -0.2145
46350W        W89366  25.897  27.106   8.870 -0.3140  0.0216 -0.2128
46351W        W89367  20.889  34.379  28.539  0.0445 -0.3234  0.0996
46352W        W89368   6.610   9.088   4.184 -0.2216 -0.1808  0.0223
46353W        W89369  13.123  13.944   4.158 -0.1769 -0.3967  0.0886
46354W        W89370   2.566   9.991   0.116  0.0745  0.0122 -0.1054
46355W        W89371   0.520   3.431  25.229 -0.0573 -0.1681  0.0712
46356W        W89372  29.787   3.317   0.851 -0.1501 -0.1519  0.1255
46357W        W89373  23.545   5.572  17.611  0.1774 -0.1109 -0.2183
46358W        W89374   9.298  16.841   1.072  0.0631  0.0850  0.0139
46359W        W89375  33.180  32.773   5.429  0.1212 -0.0302 -0.2859
46360W        W89376  22.526  28.871   5.356 -0.3110 -0.0477 -0.3554
46361W        W89377  19.002  18.510   6.002  0.3836 -0.0055 -0.0944
46362W        W89378   4.003  12.625  10.132 -0.1044  0.0571  0.5481
46363W        W89379   1.540  31.423   5.112 -0.1445  0.4551  0.1617
46364W        W89380  32.006   1.549   1.255  0.1271 -0.0031  0.0395
46365W        W89381  10.593  32.289   9.605  0.1261 -0.0020  0.1575
46366W        W89382  33.507  21.417   4.932 -0.2080  0.4124  0.2358
46367W        W89383  32.518   4.086  10.746 -0.3488 -0.2160 -0.0131
46368W        W89384   5.696  21.777   2.020 -0.2458  0.1846  0.2040
46369W        W89385  28.111  27.020  21.111  0.0092  0.1624  0.3719
46370W        W89386  32.523  34.111   0.111 -0.0455  0.1291 -0.0204
46371W        W89387  28.938  13.665  27.168  0.0266 -0.2608  0.0453
46372W        W89388  32.718  10.629  22.576  0.2568  0.3529 -0.1387
46373W        W89389  14.069  14.871   0.643 -0.2144 -0.0055  0.1129
46374W        W89390  29.886  21.406  25.100 -0.0102  0.0247 -0.1650
46375W        W89391  28.288  17.949   7.315 -0.1359  0.1296  0.1336
46376W        W89392  25.352  26.076  28.680 -0.0221  0.1925 -0.2276
46377W        W89393   2.430  20.718   3.194 -0.0662  0.2472  0.1197
46378W        W89394  23.224  12.086   5.306 -0.0923  0.0041  0.0113
46379W        W89395   1.358  22.871   5.128  0.0258 -0.0674 -0.1658
46380W        W89396   7.645  24.504  15.011  0.0603 -0.1655 -0.0409
46381W        W89397  18.740   8.683   6.091 -0.0351 -0.0352 -0.0352
46382W        W89398  33.394  15.800  28.743  0.2760 -0.0134  0.1013
46383W        W89399  13.919  31.970   8.486  0.1385  0.0965 -0.2177
46384W        W89400   1.331  12.734   4.078 -0.0642 -0.0597  0.3879
46385W        W89401   5.767  25.144   2.872  0.0422  0.1904  0.1894
46386W        W89402  21.660  18.569  27.474  0.1190 -0.1521  0.3658
46387W        W89403  26.965  10.560   6.445  0.5780  0.0119 -0.1004
46388W        W89404  31.816  25.965   5.673  0.2199 -0.1749  0.1186
46389W        W89405   1.642  11.416   1.634  0.0952  0.2332 -0.1068
46390W        W89406   1.240  28.327   3.077 -0.2515  0.1987  0.2133
46391W        W89407  22.213  30.840   0.884  0.2064 -0.1559 -0.0280
46392W        W89408   0.864  16.463  10.209  0.3137 -0.1315  0.0336
46393W        W89409  34.020  22.447   0.850 -0.0178 -0.1596 -0.0066
46394W        W89410  20.273  16.437   2.306  0.1011  0.0911 -0.0887
46395W        W89411  22.474  25.809   4.753 -0.2189  0.0204  0.2697
46396W        W89412  29.308   4.967   3.138 -0.0358  0.1018  0.1944
46397W        W89413   2.960  32.132   2.376 -0.0780  0.3496 -0.0626
46398W        W89414  12.377  21.552  29.108  0.1196  0.2844 -0.2694
46399W        W89415  23.422  18.269   4.707 -0.0323  0.3344 -0.0479
46400W        W89416  26.806   4.301   9.419 -0.5582  0.2635 -0.2152
46401W        W89417  28.613  30.365  19.765 -0.2967  0.0974 -0.1236
46402W        W89418  24.513   5.922   0.915 -0.2588  0.1532  0.2567
46403W        W89419   0.787  33.681   1.394  0.0145 -0.2799  0.1803
46404W        W89420   2.247  18.757  19.156 -0.3534  0.0664 -0.1191
46405W        W89421   6.665  16.774   2.580  0.0114  0.1995 -0.2963
46406W        W89422   7.158   8.842   8.939  0.0442 -0.0789  0.0611
46407W        W89423  33.537  11.039  25.748 -0.4591  0.2477  0.2717
46408W        W89424  31.246  23.605   9.560 -0.2676 -0.2862  0.1717
46409W        W89425   3.939  21.327   5.148 -0.2389  0.1008 -0.0865
46410W        W89426  33.231  17.410   8.403  0.0992 -0.0058 -0.1336
46411W        W89427  26.869  16.987  17.758 -0.1678  0.0939 -0.1076
46412W        W89428  12.376  23.954  26.990 -0.0320  0.0787  0.1343
46413W        W89429  31.863  26.411   9.494  0.3170 -0.0826 -0.1625
46414W        W89430  22.578  27.071  10.367 -0.1458  0.0439  0.0230
46415W        W89431  32.495  21.364   5.713  0.2079 -0.5127 -0.0629
46416W        W89432   4.099  15.216   6.918  0.1104  0.0504 -0.0589
46417W        W89433  31.555  29.552  23.619 -0.0637  0.1978  0.1655
46418W        W89434  18.879  19.994   2.121  0.0782 -0.2096  0.1700
46419W        W89435  13.083  15.487  24.526 -0.3307 -0.0677 -0.2147
46420W        W89436  22.690  23.782  25.795 -0.0728  0.0006 -0.3713
46421W        W89437  32.741  20.005   1.099 -0.0589 -0.2366  0.1360
46422W        W89438  33.395   6.923   8.185 -0.0999  0.1651  0.1683
46423W        W89439  14.500  28.127  10.326  0.3211 -0.2106 -0.3894
46424W        W89440  15.826  15.064  22.460 -0.3430  0.3066  0.4195
46425W        W89441   7.974   6.598   8.261  0.1559  0.0168 -0.0203
46426W        W89442   1.419  14.814   6.133  0.1532 -0.2354 -0.0975
46427W        W89443  20.426  16.485   3.731  0.0212  0.1573 -0.0166
46428W        W89444  19.853  13.455  26.527  0.0458  0.0426  0.2596
46429W        W89445  32.459  30.811  22.459  0.0011  0.1477 -0.1513
46430W        W89446  29.881  17.127   0.547  0.1461 -0.1042 -0.0474
46431W        W89447   6.844  14.156  18.296  0.1386  0.0351  0.3231
46432W        W89448  29.420  16.866  28.632  0.1903  0.1438  0.1334
46433W        W89449  17.599  19.829   1.996 -0.0604 -0.4305  0.1904
46434W        W89450  19.960  19.809   8.141  0.1881  0.0259 -0.1885
46435W        W89451  29.584   3.902   7.887  0.0480  0.2055 -0.0221
46436W        W89452  23.743   1.751   2.462  0.0437  0.0430 -0.2828
46437W        W89453  29.062  18.317   7.503  0.1900 -0.0149 -0.2266
46438W        W89454   5.544  29.623  27.872 -0.1985  0.0126  0.1503
46439W        W89455  32.085  12.681  20.989 -0.0663 -0.0237 -0.0364
46440W        W89456  30.399  31.180  20.273  0.1317  0.0474 -0.1097
46441W        W89457  29.319  14.104  15.978 -0.0482 -0.0783  0.1322
46442W        W89458   8.089  19.615   8.850  0.0481 -0.0345 -0.1123
46443W        W89459   6.741  23.866   2.889 -0.0733 -0.0011  0.1193
46444W        W89460  19.822  11.030   3.199  0.0878  0.0431  0.0521
46445W        W89461  16.623  25.404   8.994  0.3263 -0.1095 -0.1733
46446W        W89462   3.661  31.113   4.422  0.1607  0.0129 -0.2288
46447W        W89463  26.228  17.724   6.704 -0.2508 -0.1468 -0.0903
46448W        W89464   2.413  29.089   2.192  0.3453 -0.1877 -0.1811
46449W        W89465   9.234   0.538   7.392 -0.1844 -0.1437  0.1644
46450W        W89466  23.824  30.398   8.469 -0.0669  0.1677 -0.1307
46451W        W89467  10.443  22.841   2.416 -0.0219  0.1239 -0.0850
46452W        W89468   2.515  24.544  23.664  0.0211 -0.1768 -0.0272
46453W        W89469  33.633  21.566  28.080 -0.1803 -0.2534 -0.2589
46454W        W89470  27.600  12.897  26.468  0.0767  0.2524 -0.0568
46455W        W89471  28.539  14.961   3.259 -0.2895  0.1712 -0.0813
46456W        W89472  24.622  11.743   6.343  0.1079 -0.1518 -0.0700
46457W        W89473  24.558  21.501  28.851 -0.1612  0.2446 -0.2285
46458W        W89474  10.040  27.844   4.674 -0.1157 -0.0139 -0.0487
46459W        W89475  31.555  23.601  22.715  0.1613  0.1264  0.0388
46460W        W89476  11.211  16.009   4.975 -0.2592 -0.1448 -0.3321
46461W        W89477  24.413   5.366   2.457  0.4577 -0.2188  0.0337
46462W        W89478  34.659   8.948  10.434 -0.1180  0.1523 -0.2222
46463W        W89479  13.828  16.149   5.814 -0.2140 -0.1161  0.0898
46464W        W89480  13.786  11.477  13.145 -0.2166  0.0073  0.0245
46465W        W89481  27.654  31.560  28.629  0.2599 -0.0394 -0.1729
46466W        W89482   2.410  14.905   8.747 -0.3458 -0.1037 -0.0468
46467W        W89483  12.499  12.180  19.882 -0.2010  0.1656  0.1618
46468W        W89484   0.155  30.328  11.078 -0.2843 -0.1537 -0.1560
46469W        W89485  26.837  13.908  27.047 -0.1501  0.0836  0.1071
46470W        W89486  15.869  32.902   9.610 -0.1890  0.0350 -0.1560
46471W        W89487  16.594  16.742  26.221  0.1952 -0.0446 -0.0184
46472W        W89488  20.156  31.633   1.007  0.0010  0.1084  0.2279
46473W        W89489   6.181  19.016   2.134 -0.1896 -0.3784  0.0819
46474W        W89490  23.622   8.986   4.667 -0.2960 -0.1092  0.0348
46475W        W89491  27.113  25.694   6.579 -0.2354  0.1826  0.0077
46476W        W89492   3.302  19.474   8.672 -0.0403  0.2152  0.0894
46477W        W89493  23.505  25.351  24.947  0.0380 -0.0381  0.0798
46478W        W89494  22.547  16.295   3.989  0.3660 -0.0690  0.1633
46479W        W89495   5.774  26.486  29.159  0.0494  0.0039  0.0650
46480W        W89496  31.051  32.362  10.325 -0.2943 -0.0285  0.2962
46481W        W89497  20.839  10.616   5.134 -0.0651  0.1704 -0.1801
46482W        W89498  19.824   6.334   2.779 -0.0758  0.4781 -0.1328
46483W        W89499  16.014  26.809   5.921  0.0378  0.1833 -0.0171
46484W        W89500  17.518  16.180   5.198 -0.0471 -0.3102 -0.0420
46485W        W89501  19.861   7.284  22.701 -0.0824 -0.2365  0.1891
46486W        W89502  28.381  16.555   0.726 -0.0983  0.1458 -0.2479
46487W        W89503  20.583  13.215   7.902  0.1027  0.1894 -0.0025
46488W        W89504   8.771  10.547   3.950 -0.0188  0.0818  0.0390
46489W        W89505  34.212  18.190   3.169  0.3199 -0.0714  0.2671
46490W        W89506  29.169   9.160  25.516 -0.0361 -0.0991  0.2534
46491W        W89507  24.699  18.246   4.423 -0.0130  0.3012 -0.1802
46492W        W89508   3.646   2.742   5.865  0.0341  0.3435  0.1874
46493W        W89509  22.230  25.571  21.187 -0.1112  0.2148 -0.0708
46494W        W89510   8.222  13.447  24.360  0.0712  0.3766 -0.3033
46495W        W89511  28.849  17.939   4.139 -0.3511  0.0933 -0.2441
46496W        W89512  34.553   8.112   2.710  0.0145  0.0006  0.3479
46497W        W89513  23.910  32.619   7.547 -0.3288  0.4000  0.0883
46498W        W89514  18.573  23.043   4.701 -0.2298 -0.2222 -0.0281
46499W        W89515  15.981   2.190   5.747 -0.1587 -0.1957 -0.0439
46500W        W89516  24.488  14.126   2.503  0.0564 -0.1956 -0.1361
46501W        W89517   2.996  23.119   3.775 -0.1511  0.1306 -0.2669
46502W        W89518   6.486  17.121  25.096 -0.0570  0.4226  0.2602
46503W        W89519   1.723   2.597   9.576  0.0732 -0.3227  0.0283
46504W        W89520  34.351  24.504  10.836  0.2304 -0.0731  0.1358
46505W        W89521  27.550  31.940   5.940  0.0070 -0.4635 -0.0211
46506W        W89522  21.153  19.178  22.815  0.2224 -0.2945  0.2147
46507W        W89523   2.131  17.556   3.404  0.1951 -0.2802 -0.1541
46508W        W89524  32.332  22.418   1.351  0.2620 -0.1947  0.3815
46509W        W89525  14.263  15.959   7.291  0.1739  0.1973 -0.1563
46510W        W89526   0.790  10.289  20.924 -0.0113 -0.0987 -0.1315
46511W        W89527  33.864   7.936   8.881 -0.0867 -0.1213 -0.1426
46512W        W89528   3.618  16.729   2.494 -0.2648  0.0842  0.0119
46513W        W89529  29.707  16.560   9.333 -0.3972 -0.0364  0.0937
46514W        W89530  31.552  23.716  10.233 -0.2687 -0.1542  0.2788
46515W        W89531   2.697  19.366  19.915 -0.2613 -0.0918 -0.0479
46516W        W89532   8.204  25.236   8.641  0.2596  0.0573 -0.0904
46517W        W89533  26.591  30.047   9.884 -0.0078  0.1150 -0.0388
46518W        W89534  26.522   3.816  29.061  0.0996 -0.2710  0.0543
46519W        W89535  20.929  21.479   4.068 -0.0841 -0.0838  0.0837
46520W        W89536  12.534  14.603   4.373  0.0081  0.2209  0.0319
46521W        W89537  10.026   2.614   4.976 -0.0984  0.0237  0.0047
46522W        W89538  34.499   7.515  26.930 -0.5207  0.0748  0.0674
46523W        W89539  28.564  20.834   0.582  0.0818 -0.1307  0.2183
46524W        W89540  22.940  31.600  27.847 -0.1389  0.3383  0.3336
46525W        W89541  12.982  21.395  27.941 -0.2069 -0.0906  0.3117
46526W        W89542  32.554  24.143   3.528  0.1859 -0.0848 -0.2191
46527W        W89543   7.623  31.437  24.956  0.0153  0.1679  0.3111
46528W        W89544  31.680  23.819   2.345 -0.0358 -0.1009  0.1559
46529W        W89545   7.426  24.200   8.178 -0.0784 -0.0613  0.0166
46530W        W89546  28.721  12.721   3.873 -0.2020 -0.0270 -0.0845
46531W        W89547  17.819  27.218   6.813 -0.1459  0.0130 -0.1859
46532W        W89548  25.514  25.190  10.047 -0.2070  0.2481 -0.0005
46533W        W89549   5.869  11.982   5.578  0.0386 -0.3117  0.0091
46534W        W89550  25.074  18.895  29.182 -0.0043  0.0860  0.2467
46535W        W89551  31.748  29.978   7.214  0.2243 -0.0112 -0.0507
46536W        W89552   4.659  17.266   4.307  0.0322  0.3530 -0.2318
46537W        W89553   1.816   2.026  24.100 -0.0780 -0.1224 -0.1309
46538W        W89554  24.996  20.093   4.693  0.0011 -0.1185  0.2408
46539W        W89555  20.501  11.412   5.318  0.0592  0.3199  0.0276
46540W        W89556  23.272  25.538  20.987  0.0079 -0.2215 -0.1999
46541W        W89557  30.837  19.212  24.817 -0.3999  0.2503 -0.2458
46542W        W89558  20.160   4.728   3.657  0.1582  0.0704 -0.1131
46543W        W89559  33.700  19.569  24.516 -0.1562  0.1603 -0.3637
46544W        W89560  22.049   9.207  28.824 -0.0826  0.1854  0.1259
46545W        W89561   9.788  24.729   3.575 -0.1590  0.2476 -0.0244
46546W        W89562  16.741  12.999   7.804 -0.1604 -0.0388  0.2225
46547W        W89563  29.271  15.458   3.798 -0.1256 -0.1660 -0.0366
46548W        W89564  29.985   4.652   0.706 -0.0830 -0.0447 -0.3868
46549W        W89565  19.655  21.277  25.360 -0.1274  0.1270 -0.3327
46550W        W89566  20.713  29.850  19.085  0.0443  0.1529 -0.1967
46551W        W89567  21.356  16.188   1.853 -0.1947 -0.1243  0.0575
46552W        W89568  14.803  15.461  28.763  0.2496  0.2720 -0.2112
46553W        W89569   0.712  16.883  27.058 -0.1684  0.1503  0.0986
46554W        W89570  32.868  30.357   8.204 -0.1333  0.2820 -0.0215
46555W        W89571  19.891   5.158   4.753 -0.0187 -0.3195 -0.0356
46556W        W89572   5.565  15.766   0.346  0.1347  0.0601  0.0725
46557W        W89573  21.109   8.704   2.635  0.1445  0.0897  0.0127
46558W        W89574  24.021  17.336   0.773 -0.1312  0.1431 -0.1331
46559W        W89575  17.832  12.837  27.505 -0.0424 -0.3391 -0.2473
46560W        W89576  29.087  25.524   1.912 -0.1081  0.1917 -0.0846
46561W        W89577  32.286  13.290  21.235 -0.0964 -0.0433  0.1552
46562W        W89578  34.773  18.130   4.792 -0.1873 -0.1904 -0.2381
46563W        W89579  34.639  14.779   5.904 -0.2379  0.0316 -0.2026
46564W        W89580  25.438  24.622   5.917 -0.0127 -0.0680  0.2646
46565W        W89581  17.582   3.645  26.568 -0.3134 -0.1745 -0.2978
46566W        W89582  32.993  21.478   4.864 -0.0077  0.0521  0.1374
46567W        W89583  29.008  10.487   0.973 -0.0048 -0.0084 -0.2850
46568W        W89584  29.108  16.137   7.151 -0.1970  0.0632 -0.1645
46569W        W89585  32.919  16.984  27.693 -0.0551  0.0727  0.1422
46570W        W89586  29.719   5.598   6.811 -0.3334 -0.0382  0.0354
46571W        W89587  29.750  26.796   5.993  0.3323  0.1767  0.2647
46572W        W89588  12.449  21.187  23.182  0.0100 -0.2529 -0.1916
46573W        W89589   3.586  22.902   9.468 -0.2349 -0.0536  0.4863
46574W        W89590   3.020   9.718   3.336 -0.0604  0.3168 -0.1242
46575W        W89591  31.048  20.513   7.630 -0.0882 -0.0176 -0.3117
46576W        W89592  31.436  19.332   8.409 -0.0465  0.0852 -0.0674
46577W        W89593  17.985  15.635  22.229  0.1940  0.1402 -0.1253
46578W        W89594  31.156  12.875   9.585 -0.1410  0.0128  0.1938
46579W        W89595   5.512  19.717   5.459 -0.1214  0.0379  0.2653
46580W        W89596  17.923  33.110   7.649  0.0478  0.1807  0.0399
46581W        W89597  26.173  21.236  10.253 -0.1007  0.0371 -0.1150
46582W        W89598   6.905   7.429   1.772 -0.3596 -0.2084 -0.0403
46583W        W89599  31.885  19.873   9.400  0.0136  0.3182 -0.2197
46584W        W89600   8.924  10.523   3.415 -0.2186 -0.3890 -0.1620
46585W        W89601  32.835  26.021  19.290  0.2413 -0.4621 -0.0107
46586W        W89602  20.292  17.075  25.779  0.1151 -0.0051 -0.0827
46587W        W89603  20.770  31.891  22.369  0.1834 -0.3510 -0.0314
46588W        W89604  19.724  12.318  27.709  0.1637  0.2357  0.1480
46589W        W89605   4.354  19.325  28.690  0.0039 -0.2670  0.0446
46590W        W89606  25.012  20.392   9.638 -0.0125  0.1029 -0.0939
46591W        W89607   0.877  29.891   7.714  0.1272 -0.0205  0.3023
46592W        W89608   9.638  25.456   0.979  0.1026  0.0360 -0.0859
46593W        W89609  21.474  18.802  28.358  0.0896 -0.2757 -0.1247
46594W        W89610  17.316  21.214   1.461  0.0953  0.2413 -0.0594
46595W        W89611   1.893  18.536  15.352 -0.2095  0.1461 -0.2161
46596W        W89612  27.213  29.308   5.541  0.0262  0.5330  0.2405
46597W        W89613  27.009  31.906  11.503 -0.1664  0.0690 -0.1627
46598W        W89614  29.611  18.271   3.378  0.0494 -0.3538 -0.0245
46599W        W89615   7.569   4.702   4.984 -0.2649 -0.3359 -0.1681
46600W        W89616  26.300   0.876   1.829 -0.0192  0.1823 -0.0312
46601W        W89617  10.690   6.813   5.665  0.2519 -0.0947 -0.0110
46602W        W89618  25.537  29.102  28.704 -0.1998  0.1363  0.0606
46603W        W89619  31.980  25.626   2.294 -0.2261 -0.3057  0.4069
46604W        W89620  24.333  12.774   1.555  0.3169 -0.3077  0.2559
46605W        W89621  27.108  21.747  28.211 -0.0512  0.1167  0.1094
46606W        W89622  17.596  11.379   7.659 -0.3488  0.4507  0.0444
46607W        W89623  23.722   4.712   8.361 -0.0965  0.1642  0.2871
46608W        W89624   7.728   0.890   0.718  0.2101  0.0875 -0.0529
46609W        W89625  33.902  16.724   5.789  0.3225 -0.2320  0.3230
46610W        W89626  33.702  15.730  29.200 -0.1687 -0.1219  0.0500
46611W        W89627   2.640  30.895   7.958  0.0295 -0.1416 -0.1048
46612W        W89628  30.997  16.956   2.058 -0.2772 -0.0621  0.0467
46613W        W89629  25.938   0.375   2.932  0.0553 -0.0123 -0.2471
46614W        W89630  28.076  14.071  26.369 -0.1134 -0.3454  0.2176
46615W        W89631   1.799  30.889  21.431 -0.0344 -0.2017 -0.2741
46616W        W89632   0.625  16.786   9.208 -0.3141 -0.1517  0.2587
46617W        W89633  27.194  15.519  26.517  0.1026 -0.1530  0.0759
46618W        W89634  33.435  28.113  10.190  0.1455  0.1762 -0.0381
46619W        W89635   2.229  16.976   7.982 -0.3246 -0.0839  0.0683
46620W        W89636  21.519  30.149   2.616 -0.2089 -0.3847 -0.0955
46621W        W89637  32.591  30.522   3.345  0.1256  0.2649  0.1586
46622W        W89638  29.441   4.578   3.467  0.1047  0.1444 -0.1070
46623W        W89639  34.662  22.686   4.353 -0.0131  0.4204  0.0856
46624W        W89640  25.332  13.073   7.967 -0.2527  0.0219 -0.2027
46625W        W89641  10.033   4.529  28.492  0.1797  0.1107 -0.0507
46626W        W89642  26.227  30.077   2.984 -0.0306  0.0507  0.1449
46627W        W89643  24.788  21.621   3.846  0.1076 -0.1554 -0.0662
46628W        W89644  28.111  16.589   9.751  0.1275  0.0115  0.0194
46629W        W89645  28.795   4.401  15.193  0.0164 -0.0881  0.1380
46630W        W89646  26.986  19.227  25.871  0.1334 -0.1706 -0.0935
46631W        W89647  16.585  25.468   3.597 -0.2117  0.0727  0.1019
46632W        W89648  23.047   2.610  28.686  0.3963  0.1224 -0.0906
46633W        W89649  12.399  12.138   7.662 -0.0477  0.1893  0.1060
46634W        W89650  30.292  25.671   4.535 -0.1442  0.3446 -0.0289
46635W        W89651   0.834  15.007   9.855  0.1258  0.0782  0.3531
46636W        W89652  25.145  14.706  27.110  0.0567  0.2053  0.1974
46637W        W89653   3.483  23.176   8.562  0.1736 -0.0037  0.0508
46638W        W89654  29.296  21.017   7.652 -0.0072 -0.3447 -0.0529
46639W        W89655   1.002  17.553   9.928  0.0867 -0.0346  0.1389
46640W        W89656  34.198  16.242   9.741  0.0095  0.2650 -0.1492
46641W        W89657  20.999   4.770  27.311  0.0763  0.1082 -0.0038
46642W        W89658  31.516  28.254   6.266  0.4316  0.0092  0.0472
46643W        W89659  22.064  15.863  27.547  0.0436 -0.0911  0.3144
46644W        W89660  27.542  27.906  23.771  0.1524 -0.1751  0.1027
46645W        W89661  19.141  21.498  22.155  0.1673  0.1428 -0.3122
46646W        W89662  13.443  14.005   6.717  0.1007  0.1390  0.2217
46647W        W89663  31.901  24.003  25.795 -0.1901  0.1019 -0.3866
46648W        W89664  11.807  24.103   1.163  0.2449  0.2666  0.2082
46649W        W89665   0.006  23.392   7.830 -0.0785 -0.0696 -0.2120
46650W        W89666  31.047  20.166   7.268  0.1359  0.0876  0.0189
46651W        W89667   2.453  20.667   0.181  0.1248  0.0027 -0.0131
46652W        W89668  20.292  32.553   9.727 -0.0827 -0.0275 -0.1866
46653W        W89669  32.813   3.681   8.628  0.1627 -0.1848  0.1383
46654W        W89670  29.324  18.244   4.746 -0.1293 -0.2400 -0.0741
46655W        W89671  32.169  28.100  10.334 -0.0723  0.2595 -0.0416
46656W        W89672  17.129   7.572   2.715  0.3486  0.0526 -0.1904
46657W        W89673  32.128  26.399   0.595  0.1054  0.0753 -0.0137
46658W        W89674   0.372  20.481   8.079 -0.0978  0.1295  0.1543
46659W        W89675  29.450  22.716   5.470 -0.3250 -0.1502 -0.1085
46660W        W89676  32.520  23.653   8.280  0.2384  0.0396 -0.1229
46661W        W89677  20.584  23.335   3.850 -0.1250 -0.1200 -0.4569
46662W        W89678  15.665  15.518   1.210 -0.2314  0.1548 -0.1577
46663W        W89679   2.050  17.983   4.486 -0.0508  0.4910 -0.0221
46664W        W89680  14.060  17.148  24.638  0.1087  0.2849 -0.3843
46665W        W89681  28.444  27.426   7.233 -0.2622 -0.2762 -0.0489
46666W        W89682  32.717  31.358   6.013 -0.0096  0.2534  0.4511
46667W        W89683  16.316  21.380   0.176  0.2086 -0.3316  0.1510
46668W        W89684   6.501  18.381  27.785  0.2479  0.1941 -0.1041
46669W        W89685  18.591  16.414   1.634 -0.4017 -0.2024 -0.0688
46670W        W89686  29.856  17.969  29.072  0.0571  0.2008  0.2142
46671W        W89687   3.947  24.684   8.217 -0.1276  0.0725 -0.1219
46672W        W89688  16.727  24.622   3.166  0.0953 -0.0388 -0.0045
46673W        W89689   5.212  19.605  23.848 -0.3163  0.2601  0.0201
46674W        W89690   7.985  21.309   5.157  0.3490  0.1651  0.0863
46675W        W89691   0.312  31.619   5.761 -0.0817  0.3933  0.3186
46676W        W89692   4.100  19.613   8.479 -0.1156 -0.0388  0.0742
46677W        W89693  29.341  17.943  28.338 -0.2111 -0.1625  0.5042
46678W        W89694   0.728  20.298   0.219  0.2888 -0.0162  0.3933
46679W        W89695  25.771  19.645   4.289 -0.1679 -0.1826  0.1169
46680W        W89696  24.898  29.317   6.047  0.0221 -0.0123  0.1366
46681W        W89697   7.146  26.418   6.131  0.2074  0.3892 -0.0456
46682W        W89698   0.170  12.272  28.338  0.3128  0.1802 -0.1934
46683W        W89699  10.912   0.161   2.279 -0.2756  0.0003 -0.0163
46684W        W89700   7.815  26.290   9.839  0.2509  0.1265 -0.3816
46685W        W89701  10.924  31.478   7.707  0.3365 -0.0574  0.2792
46686W        W89702  23.880   1.820  10.955  0.0517 -0.0282  0.0540
46687W        W89703  23.372  13.590   2.656  0.3630 -0.1498  0.0417
46688W        W89704   4.329   0.483  10.391  0.0210  0.0839 -0.1350
46689W        W89705  10.685  33.432  29.018 -0.4581  0.1398  0.2115
46690W        W89706  34.719  14.033   6.674  0.4270 -0.1073  0.2362
46691W        W89707   2.245  23.631  25.662 -0.0470  0.0938 -0.2876
46692W        W89708   0.346  29.215   8.342 -0.0334  0.0111 -0.0182
46693W        W89709  32.067  23.244  24.015  0.2458 -0.1659 -0.1806
46694W        W89710   6.100  11.310   1.591 -0.1869  0.1275 -0.1708
46695W        W89711  33.415   7.702  26.403  0.1685 -0.0776  0.0043
46696W        W89712   2.092  18.012   5.341 -0.0984  0.0251  0.3124
46697W        W89713  31.562  19.910   6.392 -0.0518 -0.4756  0.0673
46698W        W89714  10.787  14.060   3.973 -0.1260 -0.0605  0.5667
46699W        W89715  19.842  25.063  18.339  0.1029  0.1895 -0.0101
46700W        W89716  29.667  25.597   7.299  0.0446 -0.0988 -0.0303
46701W        W89717  27.628  27.069  27.570  0.1967  0.2297 -0.2791
46702W        W89718  25.337  26.395   9.901 -0.0888  0.0741  0.5112
46703W        W89719  25.160  20.777   1.236 -0.1645  0.2192 -0.0301
46704W        W89720  33.339  19.582   2.302  0.3563 -0.1283  0.1357
46705W        W89721   1.130  28.918  27.678 -0.0719  0.0631 -0.2003
46706W        W89722   4.109  17.900   0.126  0.1780  0.0213  0.1807
46707W        W89723  16.487   9.857   8.460  0.1742 -0.2583  0.2979
46708W        W89724  34.764   1.420   5.483  0.3151 -0.1215 -0.3395
46709W        W89725  34.208  17.478   3.615 -0.0984 -0.0366  0.4849
46710W        W89726   4.429  21.475  22.550 -0.1086  0.1735 -0.1032
46711W        W89727   1.646  24.425  28.823  0.0000  0.1643 -0.0171
46712W        W89728   0.958  17.512  28.450 -0.0536  0.2576 -0.0635
46713W        W89729  17.914  14.919  29.219  0.0688 -0.1602 -0.2701
46714W        W89730  33.893  21.371   5.467 -0.0380 -0.2323 -0.0443
46715W        W89731   8.639  27.673   5.003 -0.2809  0.0335 -0.0863
46716W        W89732  20.395  15.605  19.159  0.1387  0.0927 -0.1130
46717W        W89733  10.513  17.153  22.967 -0.0079 -0.1729  0.1156
46718W        W89734   8.147  14.221   8.560 -0.1770 -0.0040 -0.0746
46719W        W89735   0.996  11.946   3.355 -0.0360  0.0414 -0.2934
46720W        W89736  22.703  19.363  24.243 -0.0448 -0.0959 -0.0267
46721W        W89737  33.994  12.344   3.747 -0.0528 -0.2621 -0.1972
46722W        W89738  24.666  22.384  28.038  0.2533 -0.0190  0.3568
46723W        W89739   7.006   9.803   9.695 -0.2010  0.0689 -0.0762
46724W        W89740  14.196  25.751   3.887  0.0348 -0.1610 -0.2187
46725W        W89741   3.162  19.067   6.289  0.0239 -0.1553  0.4773
46726W        W89742  19.405  15.035  27.229  0.0841  0.1527  0.1222
46727W        W89743  26.924   0.872   7.901 -0.0154 -0.0346  0.1564
46728W        W89744   2.456   2.456   9.622 -0.0336  0.2946 -0.2050
46729W        W89745   1.859  21.697   3.351 -0.0992 -0.0157 -0.3921
46730W        W89746   2.613  27.470  22.333 -0.2581  0.0877  0.2587
46731W        W89747  29.299   9.309   7.739  0.2427  0.4108 -0.0176
46732W        W89748   8.071   7.165   1.142 -0.1907 -0.1233 -0.0680
46733W        W89749  19.746   7.416   5.217 -0.1313 -0.0608 -0.0261
46734W        W89750  29.870  14.583   7.153 -0.0182 -0.2225  0.2242
46735W        W89751   2.274  25.832  25.050  0.2071  0.2771  0.1932
46736W        W89752  34.238  25.435   5.052 -0.3519  0.0936 -0.0722
46737W        W89753   1.616  11.420   8.875 -0.3574  0.2318  0.2652
46738W        W89754  30.831  17.555  10.842 -0.3661 -0.1544 -0.1966
46739W        W89755   0.719  19.635   9.182 -0.1759  0.3514 -0.1854
46740W        W89756  30.874   8.240   3.355  0.1860  0.2696  0.1339
46741W        W89757   0.054   2.770  24.460 -0.0206 -0.1713  0.0108
46742W        W89758  29.733  13.329   9.106 -0.2968 -0.2097 -0.1393
46743W        W89759  26.024  13.400   0.025 -0.4700 -0.1304  0.0756
46744W        W89760  31.102  21.714  14.424 -0.1700 -0.0263  0.2525
46745W        W89761  34.688  22.679   0.055 -0.1967  0.1055  0.1362
46746W        W89762   8.199  18.931   2.244 -0.0744 -0.2228 -0.2537
46747W        W89763   3.442  20.931   6.702 -0.1389  0.0301 -0.1363
46748W        W89764  18.482  24.223   2.658  0.0952 -0.1152  0.0918
46749W        W89765  27.382   7.920  24.027  0.1921 -0.0256 -0.0942
46750W        W89766   0.991  18.003   6.771  0.0032 -0.1655  0.1808
46751W        W89767  11.418  21.131   0.699 -0.4635  0.1044  0.2629
46752W        W89768  24.194  25.566  10.608  0.0402  0.1562 -0.2961
46753W        W89769  24.870  23.384  26.547  0.1839  0.1058 -0.2904
46754W        W89770  22.965  22.823  10.165  0.0570  0.0192  0.2233
46755W        W89771   2.060   3.597  26.286 -0.1947  0.1631  0.1985
46756W        W89772  25.196  14.784   2.409 -0.1661  0.0855  0.0194
46757W        W89773   0.286  20.175  10.073 -0.1244  0.2392  0.1198
46758W        W89774   3.420  24.149   6.526  0.1668  0.0416 -0.0150
46759W        W89775  30.367   9.403   3.403  0.0306  0.1134  0.1318
46760W        W89776  27.473   5.627   2.693 -0.0428 -0.1716 -0.5148
46761W        W89777  20.399  26.868   9.286  0.1006  0.0014 -0.0228
46762W        W89778  19.781   8.067   3.163 -0.1189 -0.1377  0.1196
46763W        W89779  32.499  32.353  10.502 -0.0344  0.0180 -0.0502
46764W        W89780  21.529  22.332  28.042  0.0912  0.2133  0.0827
46765W        W89781  32.051  24.842  27.139 -0.0023 -0.1371 -0.0688
46766W        W89782  31.053   8.184  10.517 -0.1251  0.3290  0.2753
46767W        W89783  34.756  15.348   2.068 -0.0975  0.1305  0.2244
46768W        W89784  34.723  10.575   2.212  0.0922 -0.0377  0.2197
46769W        W89785  34.153   2.849   4.831  0.1174 -0.0007  0.0900
46770W        W89786  26.334  24.981  11.692 -0.3326  0.0163 -0.1499
46771W        W89787   6.499  18.720   4.639 -0.0295  0.0589  0.0249
46772W        W89788  29.671   9.206   5.739 -0.1916 -0.1032 -0.0007
46773W        W89789  28.873  17.842   7.212 -0.0413 -0.0629  0.1375
46774W        W89790  20.417   0.923  28.791 -0.3199  0.0121  0.0749
46775W        W89791  26.005  23.401  11.688 -0.1337 -0.0151  0.2541
46776W        W89792  11.018  18.498   7.966 -0.2728  0.3166  0.0933
46777W        W89793  14.741  20.834   7.879 -0.0231  0.0434  0.0935
46778W        W89794  28.309   2.378   6.791  0.0322 -0.2878 -0.0053
46779W        W89795  16.056  28.862   9.103 -0.2217 -0.2375 -0.1440
46780W        W89796   7.988  32.363   4.784 -0.3778 -0.0061 -0.1857
46781W        W89797  30.013  27.327   7.017  0.0121  0.0468 -0.0849
46782W        W89798  27.643  20.984  11.212 -0.2953  0.2785 -0.1070
46783W        W89799  23.825  32.271   0.172  0.1886 -0.1550  0.0725
46784W        W89800  21.628  31.064  19.356 -0.1405  0.1394  0.2309
46785W        W89801   0.838  17.595  18.646 -0.2770  0.1704 -0.2058
46786W        W89802  32.712  17.553   3.581  0.2901  0.0761  0.0345
46787W        W89803  16.984  20.712   8.172  0.0470 -0.3857 -0.0237
46788W        W89804   3.178  14.822   3.811  0.0462  0.1579  0.1444
46789W        W89805  18.437  23.468   3.801  0.2086  0.0089  0.1538
46790W        W89806  13.312  28.902   5.435 -0.1790 -0.1818 -0.0785
46791W        W89807   1.059  15.677  21.150  0.2130 -0.0128  0.0864
46792W        W89808   0.970  22.558  10.210 -0.0602  0.1397 -0.3079
46793W        W89809  19.012   4.814  22.077 -0.0288  0.0813  0.1377
46794W        W89810  31.524  25.093   7.268 -0.3988 -0.1131 -0.2004
46795W        W89811  33.563  17.764   5.976  0.0534 -0.0853 -0.2560
46796W        W89812   3.061  10.643   1.771 -0.2182 -0.1758  0.2016
46797W        W89813  23.610  14.271  29.186  0.3811  0.0364 -0.1460
46798W        W89814  34.112  18.176  27.638  0.0670 -0.0631  0.1808
46799W        W89815  31.493  13.852   5.574  0.0776 -0.1275  0.2700
46800W        W89816   8.111  25.452  26.162  0.1109  0.2496 -0.3198
46801W        W89817  27.459  29.382  17.993  0.1679  0.1192 -0.0626
46802W        W89818  27.837   6.638   7.787 -0.1838 -0.0732  0.1436
46803W        W89819  24.065   6.971   9.804 -0.1690 -0.2560 -0.0884
46804W        W89820  33.534  23.128  28.988 -0.1759 -0.1389  0.2720
46805W        W89821  32.788  25.289   9.724 -0.1459 -0.2680  0.2604
46806W        W89822  27.746  17.783  28.373 -0.2606 -0.3090  0.0501
46807W        W89823  34.093  34.693   3.040  0.0323 -0.4005  0.4406
46808W        W89824  25.775   5.031   6.248  0.0039  0.3006 -0.1439
46809W        W89825  31.184  24.635   4.980  0.1812  0.1527 -0.1148
46810W        W89826  13.595   2.596  17.490 -0.2866 -0.0589 -0.2110
46811W        W89827  12.484   7.404   6.779  0.2869 -0.1495 -0.0918
46812W        W89828   1.890   9.827   3.583  0.3548 -0.0770  0.2103
46813W        W89829  28.183  22.854   9.061  0.0470  0.5594 -0.0245
46814W        W89830  32.213  21.514  28.967  0.1774  0.1534  0.2510
46815W        W89831  22.807   3.257  24.665 -0.1687 -0.0611 -0.0693
46816W        W89832  23.392  15.855   7.240  0.2977  0.1388 -0.0910
46817W        W89833  16.948   7.297   3.656  0.4545  0.0883 -0.0425
46818W        W89834  33.182   8.796  27.815  0.1505  0.1013  0.2884
46819W        W89835   2.523  10.229   7.891  0.0155 -0.2709 -0.2629
46820W        W89836  23.974  19.438   8.669  0.0343  0.0012 -0.1143
46821W        W89837  30.701  15.501   3.209  0.0441  0.0741 -0.1186
46822W        W89838   0.207  26.657   3.254 -0.1992  0.0617  0.0078
46823W        W89839  20.447  18.667   6.533  0.0258  0.0291  0.1423
46824W        W89840  24.697   9.158   0.446 -0.0727  0.0196 -0.1206
46825W        W89841   8.993   3.066   9.201 -0.1273  0.0943  0.2771
46826W        W89842   5.666  12.968  21.233  0.1209  0.1028  0.2989
46827W        W89843   4.062  10.388  28.465  0.3242  0.2561 -0.0093
46828W        W89844   7.950  19.814  19.850 -0.0022 -0.3841 -0.1503
46829W        W89845  29.579  10.336   3.047  0.3098 -0.0539 -0.0046
46830W        W89846   5.578  22.551   2.090 -0.0452  0.2387 -0.4287
46831W        W89847   5.043  13.452   7.704  0.1181 -0.0154  0.2531
46832W        W89848  11.143  30.202   7.151  0.1535  0.0447  0.0496
46833W        W89849  22.295  24.621  25.992  0.2946  0.0253  0.1865
46834W        W89850  34.223  27.783  10.477  0.1015 -0.1420  0.0778
46835W        W89851  30.505  30.446  11.010 -0.1298 -0.0432  0.2103
46836W        W89852  26.322  21.986   1.116  0.0214  0.1318 -0.1984
46837W        W89853  33.300  14.417   3.049 -0.1132 -0.2473 -0.2660
46838W        W89854  30.678  30.019   7.641  0.1726  0.0758 -0.0296
46839W        W89855   6.169   9.806  24.211  0.0845 -0.0965  0.0248
46840W        W89856   5.985  20.059   1.297 -0.2593 -0.1907  0.0401
46841W        W89857  34.660  23.142  27.300 -0.1061  0.3966 -0.0967
46842W        W89858  32.762  19.761  24.489  0.0149  0.1457  0.1969
46843W        W89859  34.667  18.077   5.404 -0.4556  0.0944  0.1385
46844W        W89860  28.587  33.451  10.516  0.1224 -0.4313 -0.0694
46845W        W89861  27.242  31.624   6.329 -0.1390  0.2812  0.0914
46846W        W89862   9.341  27.192   5.608 -0.0962  0.1153 -0.1244
46847W        W89863   9.977  21.910   5.109  0.2495  0.1182  0.0617
46848W        W89864   6.383  20.545   4.016 -0.0538  0.0535  0.0772
46849W        W89865  20.661  10.177  28.204  0.1433  0.1456 -0.0686
46850W        W89866  29.443  11.221   0.345 -0.1211 -0.0756 -0.0770
46851W        W89867  22.112   9.388   2.115  0.2916  0.1517 -0.0215
46852W        W89868  13.499  12.412   2.793  0.1502  0.2289  0.1369
46853W        W89869  28.207  29.114  23.410  0.1765  0.1581 -0.0077
46854W        W89870  21.560  18.823  21.806 -0.2012  0.1163  0.1389
46855W        W89871  24.869   8.007  28.942  0.0110 -0.0308 -0.1914
46856W        W89872  34.774  14.566  25.201 -0.2403 -0.0311 -0.1198
46857W        W89873  16.717   3.802  28.342 -0.0428  0.5094  0.0346
46858W        W89874  29.143  16.971   7.841  0.0240 -0.0303 -0.0365
46859W        W89875  11.100  20.915   1.811 -0.0407 -0.0921  0.3736
46860W        W89876  18.439  28.499  10.654 -0.0210  0.0641  0.0298
46861W        W89877   6.457  19.503  29.122 -0.1447  0.0313  0.3697
46862W        W89878  28.836   6.601  11.787 -0.0227 -0.2924 -0.0929
46863W        W89879   8.027  16.810   6.261  0.0088 -0.1164 -0.1438
46864W        W89880  25.595  17.086  22.388 -0.1372 -0.2186  0.2572
46865W        W89881  11.347  20.978   2.686 -0.0578  0.0103  0.0824
46866W        W89882  18.342   8.471  23.191 -0.2386 -0.1296 -0.0232
46867W        W89883  14.690  19.223   0.147 -0.0730  0.0204 -0.1700
46868W        W89884   8.969  19.931  27.971 -0.0778 -0.1454  0.0192
46869W        W89885  30.824   6.363  24.375  0.0461  0.2802 -0.0210
46870W        W89886  28.341  26.299   2.750  0.0120 -0.0453  0.2747
46871W        W89887  30.403  29.020   2.686  0.2289  0.0837 -0.3122
46872W        W89888   7.474  24.522   7.580  0.0428  0.1253 -0.3117
46873W        W89889   5.161  17.850   2.740 -0.0135 -0.0642 -0.0126
46874W        W89890  32.989  22.845  26.297 -0.0411 -0.0906  0.0238
46875W        W89891   0.290   8.407  23.112 -0.0325  0.0102 -0.0561
46876W        W89892   8.544  14.347   7.015  0.0760 -0.3305  0.0117
46877W        W89893  19.138  15.724  27.597 -0.0389  0.0461 -0.0158
46878W        W89894  14.588  14.107   0.065  0.1071  0.2647  0.1017
46879W        W89895   3.329  13.912   5.049  0.3118 -0.1520  0.0488
46880W        W89896   4.290  17.698  23.923 -0.2177  0.0753 -0.2880
46881W        W89897  23.867  15.627   7.717  0.0041 -0.0183  0.3114
46882W        W89898   2.338  15.378   9.022 -0.2549 -0.0628 -0.0155
46883W        W89899  32.122  16.877   5.393 -0.0585 -0.2406  0.1499
46884W        W89900  13.757  11.803   4.973 -0.1988 -0.0591  0.0168
46885W        W89901  24.965  31.273   7.082 -0.0776 -0.2026 -0.3213
46886W        W89902   6.557   9.618   8.520  0.2356 -0.0160 -0.0929
46887W        W89903  20.071  20.494   5.501  0.2422 -0.2247  0.1398
46888W        W89904   2.053  34.731   7.811 -0.0973 -0.0403 -0.3642
46889W        W89905  30.561  21.370   2.316 -0.2760  0.0576 -0.4475
46890W        W89906   3.294   7.550  28.177 -0.4075  0.0074  0.0683
46891W        W89907   3.885  23.159   8.905  0.0812  0.0164  0.1077
46892W        W89908  30.127   4.799  29.078 -0.2640  0.1847  0.2049
46893W        W89909   2.890  23.303   5.463  0.2496 -0.0432  0.0719
46894W        W89910  17.325  20.266   6.359 -0.0316  0.1233 -0.1666
46895W        W89911  12.763  13.535  24.446 -0.0764 -0.6300  0.0764
46896W        W89912  13.478  26.204   8.772 -0.0943  0.0301  0.0451
46897W        W89913  18.847  14.827  22.252  0.0738  0.0301 -0.0946
46898W        W89914   8.429  31.461  10.273 -0.0108 -0.1750  0.1394
46899W        W89915   2.362   6.800  17.267 -0.1469 -0.0349 -0.0764
46900W        W89916   1.339   8.195   9.031  0.2075 -0.1195  0.0371
46901W        W89917  33.546  15.644  11.305 -0.0522 -0.1684  0.2361
46902W        W89918   1.519  18.270   2.550 -0.1266 -0.0598 -0.0606
46903W        W89919  34.754  20.560   3.137 -0.1224 -0.0372 -0.0207
46904W        W89920  32.298   0.272   8.400 -0.1113 -0.0399  0.2500
46905W        W89921  23.874  29.828   4.256 -0.0341  0.0645  0.1534
46906W        W89922  24.615   8.869   5.985 -0.0919  0.0896 -0.0911
46907W        W89923   8.163  30.054   3.925 -0.0199 -0.1295 -0.0583
46908W        W89924  21.257  28.430   2.648  0.0999 -0.1499 -0.1582
46909W        W89925  21.392  21.666   1.881 -0.2735  0.0435  0.0486
46910W        W89926  27.117   9.239  10.525 -0.2022 -0.4315 -0.0135
46911W        W89927  28.489  18.057   9.519 -0.2844  0.1796  0.1135
46912W        W89928  27.934  20.490   6.160 -0.0395 -0.0263 -0.0133
46913W        W89929   1.320  22.582  29.195  0.2096 -0.0709 -0.0159
46914W        W89930  31.449  34.531   8.272  0.0531  0.3832  0.1470
46915W        W89931  32.367  22.062   8.732  0.1955  0.0441 -0.6032
46916W        W89932  28.655  10.687  22.986  0.0263  0.1040 -0.0919
46917W        W89933  10.439   9.574   1.387  0.1767 -0.1641 -0.2519
46918W        W89934   6.869  18.549  25.419  0.0605 -0.0359  0.4333
46919W        W89935   9.259  14.383   7.836  0.3444 -0.0040 -0.1732
46920W        W89936  20.725  19.410   5.198  0.1840  0.3724  0.2206
46921W        W89937   3.819  14.948   6.337  0.2847 -0.1867  0.0486
46922W        W89938   3.165  23.743   8.031  0.1162 -0.5021  0.1477
46923W        W89939  32.527   2.144  28.393 -0.2027 -0.1323  0.1284
46924W        W89940  22.239  23.828   8.045 -0.1819 -0.0061 -0.0015
46925W        W89941   1.687   7.550   1.846  0.1174 -0.1271  0.0381
46926W        W89942  27.001  23.288   0.761 -0.0746  0.2488 -0.0969
46927W        W89943   7.026   9.795   8.704  0.1647  0.1874  0.2432
46928W        W89944  27.608  14.811  20.256  0.1499 -0.1410 -0.1446
46929W        W89945  20.160  28.164  10.732  0.1075  0.2135 -0.0108
46930W        W89946  25.977   6.841   9.299 -0.0244 -0.1167  0.0942
46931W        W89947  13.537  12.601   4.674  0.2639 -0.1631 -0.0262
46932W        W89948  27.683   9.021  25.409 -0.2425  0.4503 -0.0129
46933W        W89949  29.522  20.736  10.653  0.0257 -0.2665 -0.2073
46934W        W89950  30.023   6.689  27.687  0.2088  0.1662 -0.2032
46935W        W89951  20.577  19.261  25.255  0.2058 -0.0329  0.0731
46936W        W89952   1.202  17.699   4.238  0.2680 -0.1983 -0.2429
46937W        W89953  17.491   8.899  24.155 -0.2132 -0.1983  0.0499
46938W        W89954  18.092  30.888   6.540 -0.1931 -0.3993  0.1354
46939W        W89955   7.742  21.004   7.529  0.1161  0.0916  0.2873
46940W        W89956  24.901  28.088   4.508 -0.3883  0.2921 -0.1925
46941W        W89957  23.236  21.012  16.858 -0.3423 -0.0188  0.0714
46942W        W89958  22.164  31.304  25.406  0.0066  0.0540 -0.0268
46943W        W89959  23.378  22.569   3.577 -0.1132  0.1135  0.3044
46944W        W89960   3.001  19.334   0.451 -0.0790  0.0081 -0.0244
46945W        W89961   3.753  25.813   7.346  0.0029  0.1221 -0.1831
46946W        W89962  30.339  34.635   9.083  0.0904 -0.1119 -0.0661
46947W        W89963  26.272  31.678  10.248 -0.0429  0.0210  0.0731
46948W        W89964   4.951  14.147  16.192 -0.1830 -0.0093 -0.1290
46949W        W89965   0.948  25.122   7.588 -0.1142  0.0873  0.1670
46950W        W89966   2.045  12.098   4.351 -0.1481 -0.1878  0.1085
46951W        W89967  21.748  14.799  22.013  0.1287  0.2042 -0.1672
46952W        W89968   4.680  30.397   2.437  0.0530 -0.0874  0.2648
46953W        W89969  25.469  18.917  27.341  0.0854  0.3869 -0.0950
46954W        W89970  26.916  13.341   4.663  0.0781  0.0180 -0.2651
46955W        W89971  26.977  17.695   7.175 -0.1014 -0.1588  0.0533
46956W        W89972  29.199  22.028  21.823 -0.0792  0.1438  0.3091
46957W        W89973  33.892   2.494   3.324  0.3398  0.0801  0.0320
46958W        W89974  29.243  24.476  28.371  0.1202 -0.2011 -0.0049
46959W        W89975  31.105   9.840  15.429 -0.3664  0.0141 -0.0398
46960W        W89976   2.398  16.214  23.145  0.1485  0.2602  0.0835
46961W        W89977  23.490  26.751   7.316  0.0964  0.1077 -0.0479
46962W        W89978  23.795  18.728  15.753 -0.0430 -0.4088 -0.0355
46963W        W89979  32.429   2.612  25.131 -0.3181 -0.2593 -0.1797
46964W        W89980  26.983  14.612  14.776  0.0767 -0.0205  0.0801
46965W        W89981  27.372   8.282  27.542  0.2501  0.0936  0.3567
46966W        W89982   8.852  17.588   4.764  0.2579  0.1291  0.0094
46967W        W89983   3.212   9.265  27.056  0.0135 -0.0318 -0.1142
46968W        W89984  27.497  13.681  20.921 -0.2669 -0.1571  0.1650
46969W        W89985  20.727  11.640  21.987  0.1929 -0.2666  0.0859
46970W        W89986  31.580  32.825  20.171  0.0043  0.0318 -0.0921
46971W        W89987   1.609  16.739   0.596  0.2116 -0.0877 -0.1051
46972W        W89988   6.826   8.642  24.225 -0.1913  0.0426 -0.3587
46973W        W89989  33.396  23.362   4.592 -0.3382 -0.2886  0.2345
46974W        W89990  33.335  29.031   6.070  0.0873  0.1822  0.1003
46975W        W89991  33.563  23.262  15.781  0.2455 -0.1536  0.0283
46976W        W89992  29.517  23.518   3.032  0.0859 -0.1544  0.1446
46977W        W89993  26.569  13.007   7.418 -0.1202  0.3769 -0.0428
46978W        W89994  29.497  11.942  20.080 -0.0016  0.1025 -0.0188
46979W        W89995  29.179   6.783  27.360  0.2633  0.1412  0.3037
46980W        W89996  30.023  19.230   5.626  0.3862  0.0707 -0.2327
46981W        W89997  30.713  31.609   4.801 -0.0155  0.1114 -0.0236
46982W        W89998  23.120  12.177  27.328 -0.5231  0.1596 -0.1445
46983W        W89999  24.510  15.764   7.067  0.2282 -0.0841  0.3583
46984W        W90000  23.243  25.224   1.952  0.0351  0.0290  0.2473
46985W        W90001  25.345  21.870  23.452  0.1083  0.1178 -0.3139
46986W        W90002  21.243  33.190  19.002 -0.0662 -0.2894 -0.1464
46987W        W90003  28.296  19.285   5.519  0.1689 -0.1554  0.0152
46988W        W90004  30.555   5.264  20.468 -0.1012  0.2698  0.1514
46989W        W90005  30.371  26.385   5.589 -0.1222  0.3745 -0.0601
46990W        W90006   5.636  15.291  15.399  0.1465  0.1020 -0.0715
46991W        W90007  29.556  23.428  11.055 -0.0415  0.0842 -0.1272
46992W        W90008  17.930   3.158   6.137 -0.1769  0.0361 -0.1016
46993W        W90009  21.550  33.972   3.050  0.1935 -0.0161 -0.0728
46994W        W90010  33.143  11.614   6.515 -0.0187  0.1490  0.0229
46995W        W90011  31.733   6.826   1.052  0.1185 -0.0418  0.1844
46996W        W90012   0.319   9.067   4.213 -0.0103 -0.1334 -0.1789
46997W        W90013  32.374  14.409  16.262  0.2923  0.0738  0.0293
46998W        W90014  29.774  12.161  29.232 -0.2820  0.0985  0.1454
46999W        W90015   4.729  28.286  17.739 -0.0733 -0.3853 -0.2081
47000W        W90016  13.107  25.892   6.540  0.1512  0.0381  0.4398
47001W        W90017  17.088  23.302   1.780  0.1364  0.3625 -0.1716
47002W        W90018  11.397  19.247   7.215 -0.0314 -0.0397  0.0437
47003W        W90019   3.006  14.972   1.788 -0.1512  0.1715 -0.0146
47004W        W90020  28.763  32.011   6.004 -0.2651  0.0772  0.0084
47005W        W90021  20.845   1.150  17.063 -0.2209  0.2077  0.0688
47006W        W90022  20.737   0.989   3.876  0.1837 -0.2169 -0.2978
47007W        W90023  15.502  33.448   3.003  0.0000  0.2870 -0.2326
47008W        W90024  26.823  16.133  21.664 -0.0946 -0.1049 -0.2169
47009W        W90025  25.382  31.013   8.728  0.2784 -0.2652 -0.2928
47010W        W90026  32.339  13.912  23.977 -0.2067  0.0289  0.2134
47011W        W90027   4.998   2.931   9.462 -0.1353 -0.2690  0.1395
47012W        W90028  14.681   8.494   8.187  0.0582 -0.0226  0.4224
47013W        W90029   8.317   5.890   5.292  0.2630  0.0707 -0.2036
47014W        W90030  29.251   4.227  27.316  0.0063 -0.3277  0.1516
47015W        W90031  12.911  19.951  28.859  0.1581 -0.0290 -0.2168
47016W        W90032  33.722  12.413  28.013 -0.0193 -0.0701  0.0841
47017W        W90033  29.920  32.807  28.286 -0.1862  0.0085  0.2275
47018W        W90034  10.403  24.870   1.231 -0.1585 -0.0590 -0.1942
47019W        W90035   5.771  15.378   5.809  0.2765  0.1318 -0.1572
47020W        W90036  31.436  32.372   4.174  0.0769 -0.1445  0.1399
47021W        W90037  18.308   5.070   7.043 -0.3027  0.2551 -0.0188
47022W        W90038  10.356  34.510   1.095 -0.2478  0.4019  0.2782
47023W        W90039  15.440  27.049  26.146 -0.0236  0.1139 -0.3040
47024W        W90040  31.269   4.221   6.934 -0.1437 -0.0349 -0.0588
47025W        W90041  25.816   2.815   9.081 -0.2268 -0.0913 -0.1298
47026W        W90042  14.181   4.243   2.283  0.0216  0.0065  0.2665
47027W        W90043   3.317  30.102   7.048 -0.0374 -0.0053  0.0961
47028W        W90044  34.003  13.771  21.730 -0.0410 -0.0353 -0.1214
47029W        W90045  28.879  17.691  19.686  0.2677 -0.1577 -0.0932
47030W        W90046  32.143  24.360  27.195  0.1531 -0.0621 -0.2460
47031W        W90047  15.761  25.232   5.186 -0.3073 -0.0698 -0.2303
47032W        W90048  33.848  22.727  23.566  0.0826 -0.0720  0.0457
47033W        W90049   9.124  34.609  15.876 -0.0732 -0.0861 -0.1794
47034W        W90050  26.387  28.245   3.713  0.1605 -0.1790 -0.0909
47035W        W90051  21.417  25.539   5.533  0.0604 -0.0399 -0.1682
47036W        W90052   4.004  32.277  23.198 -0.0235 -0.0723  0.1024
47037W        W90053  32.566  20.330  19.944 -0.1298  0.0129  0.0221
47038W        W90054  23.970  30.019  26.125  0.1780  0.1595 -0.1081
47039W        W90055  26.614  17.235  21.721  0.0341  0.1285 -0.4212
47040W        W90056  12.819  25.951   0.101  0.0762 -0.0046  0.2015
47041W        W90057  19.778  17.239   8.645  0.0945  0.0461  0.2190
47042W        W90058  16.456  20.311  26.566  0.2677 -0.4812  0.0686
47043W        W90059   4.822   6.954  24.390 -0.1218  0.0017  0.1354
47044W        W90060  18.327   9.468   8.764  0.1074 -0.2078 -0.0216
47045W        W90061  26.337  26.575  27.803  0.2939 -0.1686  0.1539
47046W        W90062  14.110  21.438   6.957  0.2912 -0.3852 -0.0383
47047W        W90063  26.759  16.054  27.357 -0.0638  0.1804  0.1020
47048W        W90064   7.400  31.141   3.552 -0.3638 -0.0594  0.1073
47049W        W90065  26.986   5.309   3.808  0.0331 -0.3033 -0.1371
47050W        W90066  26.969  20.556  23.915  0.1406 -0.0585  0.1278
47051W        W90067   3.184  32.388   0.584 -0.1635 -0.1697  0.1254
47052W        W90068  21.500  11.773  15.737 -0.0233 -0.1833  0.0452
47053W        W90069  19.614  18.467   1.347  0.1046 -0.1396 -0.2160
47054W        W90070  30.254  31.234   4.047  0.2306  0.0668  0.0506
47055W        W90071  33.838  33.539   2.327  0.3117 -0.1720 -0.1162
47056W        W90072  25.222  23.492  15.400 -0.2196  0.0136 -0.2108
47057W        W90073  33.429  22.960   2.696  0.0429 -0.4745 -0.0929
47058W        W90074  21.386  33.946  21.932 -0.0697 -0.2812  0.1760
47059W        W90075  30.448  24.522  19.717  0.1339  0.1330  0.2502
47060W        W90076  30.654  15.972  26.796 -0.1521 -0.0096 -0.0234
47061W        W90077  30.310  27.411   5.567  0.2526  0.0657  0.1811
47062W        W90078  17.805  16.408  27.250 -0.1360  0.3288 -0.1169
47063W        W90079  22.890  21.064  18.645  0.2721 -0.0238  0.2764
47064W        W90080  25.822  15.950  16.539 -0.0703  0.3402 -0.0633
47065W        W90081  30.647   7.538   6.617  0.0741  0.3237 -0.0237
47066W        W90082  19.149  23.617  22.876  0.2618 -0.1083 -0.0378
47067W        W90083  13.116  14.973  14.246  0.3050 -0.2462 -0.1108
47068W        W90084  23.423  18.323  25.754 -0.2575 -0.0957 -0.5006
47069W        W90085  31.262   5.678   6.021 -0.2794 -0.0742 -0.0254
47070W        W90086  21.417  21.826   3.991 -0.1091 -0.1004 -0.0608
47071W        W90087  25.997  26.327  24.116 -0.0512 -0.0381  0.1043
47072W        W90088  21.044  17.638  21.446  0.0144  0.2184 -0.1034
47073W        W90089  34.011  29.269  10.017 -0.0687  0.2908 -0.0611
47074W        W90090  22.539  27.943  10.117 -0.0189 -0.1847 -0.1736
47075W        W90091   1.047  12.502  22.019 -0.1834 -0.2056  0.3491
47076W        W90092  23.654   0.936  17.371 -0.0602  0.1550  0.0027
47077W        W90093   2.311   3.911   0.784 -0.0453  0.2100  0.2201
47078W        W90094   6.538  14.691   3.500  0.4714 -0.0959 -0.0296
47079W        W90095  16.969  22.291  11.775  0.1585  0.1466  0.3204
47080W        W90096   0.524   3.453  15.351 -0.1661 -0.1967  0.1952
47081W        W90097  28.689  22.656   9.829 -0.0102  0.1219  0.0653
47082W        W90098  33.260  22.895   3.321 -0.2843  0.0836  0.1113
47083W        W90099  33.432  21.866   3.948 -0.0443 -0.0242 -0.1294
47084W        W90100  16.195  32.549   9.279  0.1339  0.1107 -0.0777
47085W        W90101  31.414  19.365   6.498  0.0089  0.1296  0.0506
47086W        W90102  13.609  22.463  27.436 -0.0690  0.0152 -0.0530
47087W        W90103   0.140  22.030   8.082  0.0805  0.0543 -0.0407
47088W        W90104  34.051  20.682   7.366 -0.0750  0.3401  0.0409
47089W        W90105  20.343  10.560   4.848  0.3016  0.1007 -0.0613
47090W        W90106   2.405  13.307   0.178  0.3858 -0.1251  0.0224
47091W        W90107  11.668  23.084   5.410 -0.1147  0.0025  0.0390
47092W        W90108   5.561  10.099   6.782 -0.0654 -0.1703  0.0765
47093W        W90109  13.571  32.762  18.260 -0.1375  0.2841  0.2220
47094W        W90110   1.548  22.568   4.764 -0.0980  0.0907 -0.0460
47095W        W90111  23.704  10.943   7.349  0.1205  0.0373  0.2113
47096W        W90112  32.123  26.468   3.918 -0.0316 -0.2359 -0.2026
47097W        W90113  16.978  17.155  16.094  0.1765  0.0732  0.0364
47098W        W90114   8.686   1.602   7.071  0.0335 -0.2084 -0.0830
47099W        W90115  29.858  28.223   1.036 -0.2759 -0.0622 -0.0306
47100W        W90116  20.727  32.130  27.071 -0.0227 -0.3066 -0.1377
47101W        W90117  28.989  23.073  10.008 -0.2201 -0.0061 -0.1994
47102W        W90118  24.021  30.656  24.532  0.3455 -0.2352 -0.3524
47103W        W90119  31.077   4.248  25.241 -0.0606 -0.1839  0.0616
47104W        W90120  25.328   7.275  28.417 -0.0542 -0.3704 -0.4140
47105W        W90121  33.204  24.651  26.489  0.3107  0.0989 -0.3405
47106W        W90122  28.348  15.357   8.884 -0.0303 -0.3802 -0.3049
47107W        W90123   0.435  22.475   6.893  0.0118 -0.0225 -0.0362
47108W        W90124  11.094  16.520  23.240 -0.0521 -0.1883  0.1152
47109W        W90125  21.448  10.528   1.989  0.1546 -0.3106  0.2883
47110W        W90126   1.631  32.586   3.912 -0.2253 -0.3310 -0.0502
47111W        W90127  13.415  16.217   7.097 -0.0648 -0.0104 -0.0479
47112W        W90128  23.009   4.525   1.798  0.0492  0.0379 -0.0561
47113W        W90129  20.664  23.803   2.391  0.0293  0.0688  0.4378
47114W        W90130  28.923  24.586   3.494  0.0674 -0.2192  0.1027
47115W        W90131  12.899  34.556   0.793 -0.2616 -0.0134 -0.0214
47116W        W90132  19.031  26.522   5.007 -0.3017 -0.0527  0.2167
47117W        W90133  29.645  18.177  18.247  0.2761 -0.2173 -0.1395
47118W        W90134   8.220  10.204   8.580 -0.0106  0.1599  0.1577
47119W        W90135  22.936   9.460  22.509 -0.1347 -0.0497  0.0741
47120W        W90136  32.486  14.972   5.985  0.3438  0.0175 -0.0220
47121W        W90137  25.923  19.691  21.782 -0.0446 -0.3260 -0.0891
47122W        W90138  16.928  18.473  14.036  0.1153 -0.3323  0.1748
47123W        W90139  28.786  20.734   5.919  0.3291  0.1983 -0.0431
47124W        W90140   4.900  22.906  21.202  0.2789 -0.1261 -0.2507
47125W        W90141  32.629  20.101   4.130 -0.0144  0.2997  0.2184
47126W        W90142  23.959  12.531   2.859  0.4838  0.1844  0.3287
47127W        W90143  27.775  32.208   9.893  0.2993 -0.1635 -0.3017
47128W        W90144  34.263   3.104  16.441 -0.2377 -0.2642  0.0978
47129W        W90145  10.588   4.605  18.512 -0.1898  0.1538  0.1473
47130W        W90146  22.386  18.677   2.213  0.0798 -0.1974 -0.4010
47131W        W90147  15.097  33.018  21.572  0.3244 -0.0277 -0.1265
47132W        W90148  23.226  33.078   9.504 -0.0132 -0.1370 -0.3163
47133W        W90149   4.805  31.290   2.571 -0.3318 -0.1420 -0.0060
47134W        W90150  27.701   7.774  21.697  0.0446  0.0018  0.2575
47135W        W90151  34.496  15.629   0.501 -0.1921 -0.3937  0.2577
47136W        W90152  26.636  25.877   1.115  0.0066 -0.3227 -0.1102
47137W        W90153  25.225  17.441   8.600  0.0321  0.0375 -0.0814
47138W        W90154   6.847  18.868   6.763  0.2350 -0.2662  0.0995
47139W        W90155  25.576  20.724   3.814 -0.0261  0.0206 -0.0640
47140W        W90156  27.886  13.921   4.024  0.0302 -0.0503 -0.0304
47141W        W90157  24.582  16.643  25.222  0.0921  0.0934  0.1409
47142W        W90158  21.358  19.566   3.751 -0.1649  0.0861  0.0332
47143W        W90159  26.967  23.803   8.774  0.5686 -0.0485 -0.0480
47144W        W90160  24.279  25.699  28.291 -0.2677 -0.1146 -0.1184
47145W        W90161  32.082  31.154   1.719 -0.2848  0.4581  0.2875
47146W        W90162  12.235  31.525   9.575  0.0575  0.0788 -0.0607
47147W        W90163  22.617  19.555   1.182 -0.0005 -0.1126 -0.0867
47148W        W90164  33.591  21.399  25.377  0.0109  0.4091 -0.5197
47149W        W90165   0.361  22.666  28.087 -0.1323 -0.2341  0.1346
47150W        W90166   2.062  17.017   1.899  0.2946  0.1462  0.0305
47151W        W90167  34.677   6.321   4.619  0.0352 -0.1344 -0.3456
47152W        W90168  28.642  15.173  23.481  0.1100 -0.1544 -0.0092
47153W        W90169  22.073  24.836   0.306 -0.2831  0.0646  0.5101
47154W        W90170  26.244  22.410   6.057 -0.2092 -0.0665 -0.0956
47155W        W90171  33.490  31.921   8.358 -0.2448  0.4551  0.4220
47156W        W90172  31.311  16.639   5.062 -0.3404 -0.0782 -0.1263
47157W        W90173  30.453   4.829   8.664  0.2913 -0.1213 -0.0208
47158W        W90174  25.848  28.940   5.855  0.1904  0.1991 -0.0823
47159W        W90175  34.155  32.124  23.108  0.0916  0.0816  0.1296
47160W        W90176   8.541  29.474   1.107  0.0772  0.0925 -0.5690
47161W        W90177   8.705  20.597  23.530  0.0174  0.0534 -0.0288
47162W        W90178  26.676  28.883   7.156  0.1511  0.0554  0.2308
47163W        W90179  32.006  32.319  26.370 -0.2557 -0.0356 -0.0492
47164W        W90180  34.671  18.914  21.560  0.0545  0.1551  0.1824
47165W        W90181  17.281  27.777   4.529  0.0704 -0.0448 -0.1197
47166W        W90182  23.138  10.835   3.165 -0.0254 -0.1406 -0.0695
47167W        W90183  28.483  21.473   2.199 -0.0064 -0.2494 -0.0296
47168W        W90184  24.217  26.638   9.199  0.2001 -0.0112  0.4278
47169W        W90185   5.670  26.844  25.478  0.1984 -0.2713 -0.4389
47170W        W90186   1.881  28.174   1.505 -0.0525 -0.4581 -0.0618
47171W        W90187   7.371  21.961  21.713  0.0313 -0.1480 -0.0435
47172W        W90188  26.311  34.684   4.604 -0.1651  0.1739 -0.0659
47173W        W90189  29.567  24.877   2.248 -0.0409  0.3782 -0.5107
47174W        W90190  22.550  30.949   1.262  0.1561 -0.1025  0.1818
47175W        W90191  22.325  29.510   3.791  0.1643 -0.1655 -0.2346
47176W        W90192  33.673  33.533  10.365  0.0402  0.1557  0.2207
47177W        W90193   2.935  25.344   1.879 -0.2792  0.3139  0.0505
47178W        W90194  33.657  22.421  26.522  0.0828  0.0698 -0.0488
47179W        W90195  16.362   3.088   6.504 -0.0357 -0.1230  0.0346
47180W        W90196   0.045  15.007  27.613  0.0379 -0.1076  0.1358
47181W        W90197  18.682  20.142   8.073  0.0681  0.1632 -0.0901
47182W        W90198  30.106  15.988   0.506  0.1578 -0.1531  0.1137
47183W        W90199  31.326  21.644  10.090  0.1632 -0.0567 -0.0792
47184W        W90200  18.950  22.344  29.072 -0.3193 -0.0428  0.1816
47185W        W90201  26.248  14.865  20.378  0.1517 -0.2020  0.1286
47186W        W90202  24.818  23.980  26.322  0.0241 -0.3664  0.2681
47187W        W90203  24.953  31.039  25.996 -0.2954 -0.0477 -0.0468
47188W        W90204  16.147  26.266  28.889  0.4464  0.1600 -0.0223
47189W        W90205   0.056  18.132   2.158 -0.2295  0.1057 -0.1028
47190W        W90206   4.893  22.308   1.671  0.1754 -0.0288  0.1238
47191W        W90207  32.071  20.081   2.134 -0.0063 -0.1231 -0.1333
47192W        W90208  33.998   8.355   3.818  0.0738 -0.0709  0.1949
47193W        W90209  30.600  12.373   7.333 -0.0272 -0.0301 -0.0174
47194W        W90210  20.604  22.101  25.760  0.1021  0.2307  0.1453
47195W        W90211  24.877   6.927   9.460  0.1021 -0.0354  0.1393
47196W        W90212  21.986  28.191  26.357 -0.1451  0.0426 -0.3245
47197W        W90213  24.580  13.123  26.885  0.0242 -0.2833 -0.0599
47198W        W90214  29.523  34.437   8.831  0.1375  0.0600 -0.0936
47199W        W90215  33.990  20.803   2.373  0.0646 -0.3090 -0.0820
47200W        W90216  18.572  20.254  21.852 -0.2048 -0.0297 -0.1330
47201W        W90217  34.734  25.549   4.641  0.0573  0.0988 -0.1202
47202W        W90218  21.629  19.091   2.106 -0.1024  0.2717  0.2205
47203W        W90219  29.603  25.795   9.114 -0.0867  0.0083 -0.3524
47204W        W90220  33.383  16.533   5.598  0.0283 -0.0031  0.3861
47205W        W90221  33.236   4.948   2.623  0.2160 -0.0590  0.3793
47206W        W90222   9.546  18.997   7.700 -0.2720 -0.3330  0.1269
47207W        W90223   5.228   0.606  10.076  0.0990 -0.0706  0.0590
47208W        W90224   2.923  21.237  27.432 -0.4064  0.0849 -0.0224
47209W        W90225  29.588  15.534   7.261  0.0998  0.2899 -0.2129
47210W        W90226  33.363  25.624  20.578 -0.0473 -0.3155  0.3332
47211W        W90227   9.615  18.455   5.536 -0.0250  0.1985 -0.1218
47212W        W90228  26.998  14.853  25.527  0.0449 -0.0371  0.0470
47213W        W90229  26.616  23.604   0.432  0.2051 -0.1667 -0.1763
47214W        W90230  24.489  18.615   4.040  0.3776  0.1407 -0.0633
47215W        W90231  31.523   9.206   3.951  0.2637  0.2409 -0.1008
47216W        W90232  23.843  15.131  24.969  0.3391 -0.0628 -0.2558
47217W        W90233  19.208  16.132   5.140  0.1329 -0.1971 -0.0807
47218W        W90234  10.234  32.496   4.272 -0.0212  0.0668  0.1181
47219W        W90235   1.911  22.088  23.234 -0.0127 -0.1671  0.2289
47220W        W90236  23.748  22.701   5.127  0.2549 -0.5141  0.0186
47221W        W90237  34.748  23.877   8.191  0.1030  0.4599 -0.3768
47222W        W90238  14.754   1.137   5.261  0.1521 -0.0882 -0.0329
47223W        W90239  11.953  20.068  23.079 -0.1031  0.1614  0.2107
47224W        W90240  15.641  24.969   8.226  0.1952  0.0671  0.1630
47225W        W90241  32.667  22.856   5.931 -0.1065 -0.0921  0.3237
47226W        W90242  33.367  17.405  16.226  0.0267 -0.2114  0.2533
47227W        W90243  22.178  32.573  18.497 -0.0628 -0.1987  0.0876
47228W        W90244  29.855  25.142   5.708 -0.2742  0.0302  0.0105
47229W        W90245   1.643   1.101   0.008 -0.1708 -0.0158 -0.2219
47230W        W90246  31.807  31.027  17.663  0.3333  0.4106 -0.1623
47231W        W90247  21.162  25.608  14.222  0.2267  0.0241 -0.0013
47232W        W90248  15.461   2.113  28.787  0.1284 -0.1378  0.0042
47233W        W90249  31.417  16.721   2.276 -0.3094  0.0891 -0.3211
47234W        W90250  24.216  16.518  23.471  0.0213  0.3606 -0.1396
47235W        W90251  30.583  20.359   6.971  0.3107  0.2477 -0.0282
47236W        W90252  18.615  26.949   8.988  0.1300  0.1682  0.0388
47237W        W90253  25.957  22.226  19.537 -0.1826 -0.2414  0.1267
47238W        W90254   3.982  14.238  28.378  0.0226 -0.0438  0.0544
47239W        W90255  12.744  13.575   4.139 -0.0149 -0.2220  0.2217
47240W        W90256  20.530  33.126   5.510 -0.3428  0.0252 -0.1063
47241W        W90257  30.552  17.247  28.216  0.2201 -0.1405  0.1218
47242W        W90258  23.382  30.546  27.582 -0.3532  0.0128  0.3912
47243W        W90259  15.412  23.432  18.132 -0.1949  0.0570  0.2719
47244W        W90260  33.766  16.139  17.802  0.1999 -0.1170 -0.0117
47245W        W90261  19.239  12.890   5.619  0.0513 -0.1729  0.0300
47246W        W90262  21.221  27.925  19.041  0.1823 -0.1336 -0.2529
47247W        W90263  34.221   3.729  29.280  0.1419 -0.2191  0.1788
47248W        W90264   0.583  24.877  23.368  0.0732  0.3244  0.3953
47249W        W90265  30.938  13.408   5.985  0.0192 -0.3062 -0.0075
47250W        W90266  29.920  30.453  16.171 -0.1422 -0.1836 -0.0419
47251W        W90267   1.746  26.500   1.120 -0.0979 -0.0143 -0.1939
47252W        W90268  29.379  28.392   5.067  0.0102 -0.0873  0.2540
47253W        W90269  34.699  10.339   6.408  0.1059 -0.0451 -0.0811
47254W        W90270   0.186  28.049   4.496 -0.0334 -0.1072  0.1361
47255W        W90271  11.923  26.435   0.643 -0.2189  0.0394 -0.0244
47256W        W90272  28.882  32.930   2.811  0.3096  0.2795 -0.0259
47257W        W90273  29.310  29.253   6.690  0.1889 -0.1367 -0.2598
47258W        W90274   3.884  20.661   6.335  0.0627 -0.1267  0.0195
47259W        W90275  17.188  16.149   7.168 -0.1480 -0.2172  0.0731
47260W        W90276  32.956  25.306   0.856 -0.3272  0.1759 -0.0866
47261W        W90277   7.385  18.575  25.049 -0.0022  0.0392 -0.0052
47262W        W90278  30.769  23.827   5.025  0.3250  0.2185  0.0080
47263W        W90279   7.266  29.417  25.901  0.0046 -0.0595 -0.3648
47264W        W90280  33.020  15.875  10.468 -0.2386 -0.1963  0.0359
47265W        W90281  30.604  24.367  23.417  0.0527 -0.0715 -0.1222
47266W        W90282  28.088  11.172  18.082  0.3025  0.2407  0.2479
47267W        W90283  26.176  27.613  22.574  0.0703 -0.0745 -0.0689
47268W        W90284   5.539  27.025   3.029  0.0958  0.2485 -0.0098
47269W        W90285  20.499  24.722  28.028 -0.0643  0.0438 -0.2334
47270W        W90286   4.574  24.662   3.281  0.1006 -0.1757 -0.2063
47271W        W90287  30.377  10.506  25.580  0.2219  0.0815  0.1789
47272W        W90288  18.573   1.811   2.997  0.0371 -0.2522 -0.1318
47273W        W90289  34.709   3.721   8.892  0.0220  0.0055 -0.3311
47274W        W90290   0.839  21.296   0.736  0.0882  0.0926  0.1418
47275W        W90291  26.955  16.167   8.802 -0.0559 -0.2304 -0.2930
47276W        W90292  28.388   9.072   1.302  0.3279 -0.1213  0.0992
47277W        W90293   2.079  30.768   8.747  0.1114 -0.2536 -0.0668
47278W        W90294  11.519   7.483  26.663  0.1844 -0.0077  0.2363
47279W        W90295  28.969  12.053   5.536  0.0325 -0.2112 -0.2524
47280W        W90296  13.337  28.265  26.801  0.0733 -0.1651  0.4318
47281W        W90297  27.454  17.567   2.853  0.0838  0.1096 -0.3083
47282W        W90298  27.179   3.401   9.487 -0.0185 -0.1486  0.0914
47283W        W90299  31.880  32.595  24.839  0.2065  0.0704  0.0016
47284W        W90300  17.186  15.817  23.969  0.0918 -0.0379  0.0119
47285W        W90301   5.416  29.226   5.105 -0.0961  0.2273  0.1387
47286W        W90302  24.828  33.611   7.960 -0.0883  0.0128 -0.0227
47287W        W90303   2.066   1.177   5.964  0.2155  0.0482 -0.0414
47288W        W90304  25.347  26.406  21.188  0.0800  0.0393  0.2197
47289W        W90305  34.637  14.408   6.294 -0.0732  0.0354 -0.0546
47290W        W90306   5.980  22.300   1.863  0.0222 -0.0730  0.1365
47291W        W90307  30.396  25.907   4.049  0.0366 -0.1159  0.2400
47292W        W90308  32.269  20.329   7.726  0.0514 -0.1143 -0.1473
47293W        W90309  30.704  21.075  10.579  0.0020  0.2037  0.1352
47294W        W90310  21.353  29.341  29.282 -0.1401  0.2508  0.2869
47295W        W90311  23.555  23.331   1.868 -0.0809  0.1508 -0.0465
47296W        W90312  23.470  22.396   2.733  0.2275 -0.2102 -0.2125
47297W        W90313  26.398  28.469   4.918 -0.1493  0.0138 -0.0149
47298W        W90314   8.830  19.551  21.152  0.2444  0.0321 -0.0876
47299W        W90315  23.360  27.363  24.590  0.2306 -0.1473 -0.2176
47300W        W90316  32.071  23.503  22.976  0.0604 -0.3866  0.0000
47301W        W90317   9.089  29.534   4.533  0.1887  0.3210 -0.1847
47302W        W90318  18.068  28.809   9.054 -0.2069 -0.0308 -0.1429
47303W        W90319  29.493  22.809  28.232  0.5069  0.1257 -0.1152
47304W        W90320  29.433  16.187   1.969 -0.1663 -0.0054  0.0148
47305W        W90321  14.557  16.952  25.924 -0.1889  0.2609  0.1961
47306W        W90322   2.647  27.962   8.472 -0.1189  0.2772 -0.1895
47307W        W90323   6.328  21.161  24.113 -0.1981  0.2043  0.1065
47308W        W90324   9.354   6.158   4.618  0.0309 -0.1663 -0.2616
47309W        W90325  28.401  14.794  28.904 -0.1731  0.1824 -0.0525
47310W        W90326   2.270  26.754  16.280 -0.1170  0.3232 -0.2191
47311W        W90327   6.923   2.840   9.175  0.0272 -0.0839  0.0339
47312W        W90328  30.680  16.053  29.256  0.1224 -0.0667 -0.0909
47313W        W90329  23.177   4.925   2.602 -0.0764 -0.0268  0.3200
47314W        W90330   3.352   3.078   6.118  0.2923 -0.0551 -0.1571
47315W        W90331  13.366  26.161  28.612 -0.0875  0.0853 -0.1324
47316W        W90332  27.132  21.453   6.469  0.0257 -0.2719  0.0546
47317W        W90333  19.603  22.813   1.459 -0.2311 -0.1486 -0.2392
47318W        W90334  29.884  31.174  28.382  0.1199  0.0898 -0.5788
47319W        W90335  13.656  11.522   2.283 -0.2113 -0.0297 -0.0891
47320W        W90336  21.861  26.709   3.684  0.1061  0.1810 -0.2739
47321W        W90337  26.446  20.789  23.563  0.3998  0.2063  0.2796
47322W        W90338   3.990  27.965   5.750  0.2612 -0.0021  0.0185
47323W        W90339  32.762  14.562  16.580 -0.1921  0.1494 -0.1795
47324W        W90340  28.961  11.439   8.485  0.0502 -0.0663 -0.2223
47325W        W90341  33.716  16.185   3.474  0.1904 -0.1726 -0.0217
47326W        W90342   0.243   0.825   3.875  0.3442 -0.0570 -0.2328
47327W        W90343  33.858  20.528   4.748 -0.0574 -0.1565  0.0039
47328W        W90344  24.578  24.114   7.095  0.1004 -0.0104  0.0703
47329W        W90345   4.715  29.781   0.734  0.1867  0.0615  0.2064
47330W        W90346  26.751  20.813   9.215  0.2259 -0.1316 -0.3549
47331W        W90347  23.833   7.753   5.870  0.0417 -0.0382  0.1875
47332W        W90348  28.228  21.425   4.095  0.0819 -0.1588 -0.0082
47333W        W90349   9.328  34.156   5.259 -0.1547 -0.2424 -0.0896
47334W        W90350  14.277  33.917  15.622 -0.0295  0.0992  0.3502
47335W        W90351   2.990  31.144   2.839 -0.0605 -0.0801 -0.0459
47336W        W90352  14.292  22.286   5.405  0.0188 -0.0454  0.2295
47337W        W90353  28.101  26.857   1.642 -0.1197  0.3727  0.0655
47338W        W90354  29.832  34.192  10.352  0.0843 -0.1421 -0.0561
47339W        W90355   3.902  23.180   0.658  0.3317  0.2270 -0.0595
47340W        W90356  13.153  26.297   2.238  0.4235 -0.2749  0.0720
47341W        W90357  25.538   0.573   8.100  0.2613 -0.0570 -0.1320
47342W        W90358   1.814  19.171  28.063  0.1784 -0.0527  0.1317
47343W        W90359  17.767  27.247   4.895 -0.2388 -0.0028  0.0338
47344W        W90360   3.597  24.194  28.832 -0.1479 -0.1391  0.0983
47345W        W90361   1.327  18.570   2.219 -0.2744 -0.0632  0.0932
47346W        W90362  30.720   0.323  26.681 -0.1268  0.1629  0.0246
47347W        W90363   0.429   5.031   7.773 -0.0083 -0.2338  0.1925
47348W        W90364  16.699   4.359  28.412 -0.1941 -0.2003  0.0561
47349W        W90365  31.940  21.320   0.071  0.1651  0.1938 -0.3705
47350W        W90366  28.242  24.882  28.139  0.0586 -0.1019 -0.0351
47351W        W90367   4.852  12.377   5.194 -0.1972  0.3047 -0.2289
47352W        W90368  30.441  24.377  25.799  0.2831 -0.1794  0.1846
47353W        W90369  23.225  17.272  19.295  0.0304 -0.4228  0.0391
47354W        W90370  33.264  27.933   2.946 -0.0201  0.0996 -0.1705
47355W        W90371   5.465  15.222   7.578 -0.2854 -0.1383 -0.3159
47356W        W90372  27.095  16.237   8.320  0.3394 -0.1948  0.3481
47357W        W90373  32.026  26.441  10.667 -0.2525 -0.2084  0.2878
47358W        W90374   1.475  17.121   6.285  0.1204 -0.0348  0.1344
47359W        W90375  25.723  26.597  24.408  0.0501 -0.1387 -0.1174
47360W        W90376  23.147  14.291  25.576  0.2070  0.1744  0.0847
47361W        W90377   6.939  16.269  24.251  0.0986  0.3577  0.0856
47362W        W90378  20.624  22.389   4.044  0.3660  0.0783  0.0521
47363W        W90379  33.104  12.707   1.759  0.1118 -0.0612  0.0959
47364W        W90380  10.652   2.956   7.735 -0.3148  0.0091 -0.1606
47365W        W90381  32.959  16.070   3.331  0.0561  0.3138 -0.1954
47366W        W90382  31.981  21.196  28.132  0.0493  0.0802  0.2345
47367W        W90383   5.094  13.947   7.438  0.1556  0.0760 -0.2786
47368W        W90384   1.420  32.770   2.527 -0.4276  0.1855  0.3456
47369W        W90385  28.027  13.844   6.352 -0.2144  0.1793 -0.0282
47370W        W90386  13.903  30.381   6.569 -0.0217 -0.1230  0.1260
47371W        W90387  31.914  16.890  18.624 -0.1114  0.3755 -0.0704
47372W        W90388  32.472  16.725   4.153  0.2855  0.2230 -0.2042
47373W        W90389  33.130  19.614   9.466 -0.1756 -0.0479 -0.0694
47374W        W90390  25.347  24.681   4.641 -0.2341  0.0406 -0.0831
47375W        W90391  24.344  11.841   5.925  0.0154 -0.1578  0.1524
47376W        W90392  17.403  33.423  27.145 -0.1145 -0.0789  0.2861
47377W        W90393  15.452   7.114   6.085 -0.2392  0.1336 -0.0134
47378W        W90394  32.206   4.215  21.568  0.0794 -0.0940 -0.2594
47379W        W90395   0.064  34.112  26.895  0.0191  0.2080 -0.1761
47380W        W90396  20.563  20.743   0.211 -0.0373  0.1049  0.2392
47381W        W90397  28.466  28.785   3.534  0.1113  0.0698 -0.1076
47382W        W90398  23.078   4.338   4.375  0.2850 -0.5948 -0.1231
47383W        W90399  11.884  20.285   1.636  0.0005  0.0685 -0.1789
47384W        W90400  17.300   1.968   5.154 -0.2072  0.3467 -0.0621
47385W        W90401  18.010  27.013   6.048 -0.0051  0.0186 -0.2275
47386W        W90402  32.124  25.505  10.244 -0.4108  0.1179  0.0078
47387W        W90403   2.664  24.305   5.729 -0.0492  0.0686  0.2780
47388W        W90404  22.944  23.310  28.539 -0.1423 -0.0742  0.3551
47389W        W90405   4.776  31.718   5.992  0.1014 -0.3924 -0.3650
47390W        W90406  19.268  23.845  21.274  0.1849 -0.0937 -0.0706
47391W        W90407   2.694   8.532  18.082  0.1030 -0.2295  0.3152
47392W        W90408  28.604   4.940  10.324 -0.1034 -0.1198 -0.0714
47393W        W90409  33.729  30.285   8.869 -0.1209  0.0523  0.1061
47394W        W90410  26.521  14.689   9.786  0.0182 -0.2225 -0.0390
47395W        W90411  20.917  23.531   6.942  0.0960 -0.1054  0.3491
47396W        W90412  32.407  23.042  29.142 -0.0797 -0.2317  0.0644
47397W        W90413   7.932  26.582   6.331  0.0930  0.1166  0.2644
47398W        W90414  26.193  21.853  26.530  0.1782  0.1268 -0.1058
47399W        W90415  30.453  30.146   4.375  0.0593  0.1820 -0.0321
47400W        W90416  21.959   2.941   0.066  0.1186 -0.1183 -0.4486
47401W        W90417  32.413  21.074   6.173 -0.0040  0.3944 -0.1237
47402W        W90418  34.600  24.740  25.245  0.0708 -0.1185 -0.1950
47403W        W90419   2.449   2.615   2.507 -0.1182  0.3373 -0.0914
47404W        W90420  26.305  24.322   3.273  0.3865 -0.2540 -0.0978
47405W        W90421  34.702  21.527   6.662 -0.0958 -0.0094 -0.0767
47406W        W90422   9.409  18.950   0.695 -0.2598  0.0393 -0.1002
47407W        W90423  20.249  18.834   0.165  0.2339  0.0454  0.2794
47408W        W90424  28.016  28.668   6.656  0.3544  0.0364  0.0551
47409W        W90425   1.187  28.264   6.303  0.1985  0.1117 -0.0101
47410W        W90426  23.039  24.491  10.353  0.0643  0.4185  0.1148
47411W        W90427   7.371   5.370  28.436 -0.1736 -0.0640  0.1526
47412W        W90428   5.951  20.312   2.254 -0.1224 -0.0060  0.1078
47413W        W90429   4.968   9.425  27.594  0.2790 -0.3483 -0.0897
47414W        W90430  34.033  33.161   4.706  0.1579 -0.1089  0.2619
47415W        W90431  24.085  28.707  26.873  0.0005 -0.0618 -0.0454
47416W        W90432  30.477  13.209   6.194  0.1410  0.0822  0.1559
47417W        W90433  24.672  17.679   9.101  0.3871  0.1644  0.2122
47418W        W90434  33.238   7.511   7.338  0.0613 -0.0366  0.1211
47419W        W90435  26.411   7.438   9.689  0.1632  0.1837 -0.0662
47420W        W90436   0.982  22.272   3.355  0.0451  0.0142  0.1508
47421W        W90437  19.075  34.033   5.561 -0.2292 -0.2899 -0.0198
47422W        W90438  24.451   8.287   7.497  0.0391 -0.1431 -0.1589
47423W        W90439  14.414  25.666   7.687 -0.0682 -0.4394  0.2502
47424W        W90440  27.941  17.626   7.586 -0.0065  0.1907  0.1109
47425W        W90441  32.332  33.748  28.597 -0.1571  0.2775  0.0486
47426W        W90442  25.502  21.706   0.217 -0.2825  0.2026  0.2176
47427W        W90443  33.809  30.829  15.213 -0.0790  0.2447  0.0455
47428W        W90444   3.609  15.846   8.540 -0.4606  0.1771  0.1000
47429W        W90445  16.627  26.180  26.790 -0.1104  0.0598 -0.5054
47430W        W90446  24.708  21.651   2.692 -0.0878  0.4783 -0.1148
47431W        W90447   1.087  23.780   7.418 -0.0446  0.3080 -0.2856
47432W        W90448  31.749  15.391  23.650  0.2138 -0.3296  0.3060
47433W        W90449  33.354  17.844   3.420 -0.2268  0.0665  0.3921
47434W        W90450  11.730  23.059   1.609 -0.2723 -0.0175 -0.1427
47435W        W90451  25.807  27.971   4.536  0.3970 -0.0162  0.2635
47436W        W90452   6.568  27.071   6.134  0.2084  0.1474  0.1598
47437W        W90453  25.948  10.768  28.561 -0.0239  0.2402 -0.0344
47438W        W90454  31.809   1.941   3.040  0.0396 -0.1357 -0.3666
47439W        W90455   4.788  16.961  15.868 -0.0526  0.1977 -0.0078
47440W        W90456  27.097  19.522   3.637 -0.0789 -0.0848  0.1166
47441W        W90457  30.592   4.265   0.568 -0.0004 -0.0209  0.0336
47442W        W90458  29.485  34.248  20.454 -0.0147  0.2126 -0.2471
47443W        W90459  20.847  17.884   6.694  0.0423 -0.0624 -0.4102
47444W        W90460  22.412  27.302  15.608 -0.3615  0.1906  0.0282
47445W        W90461  31.800  21.738   6.785 -0.1177  0.3020 -0.1315
47446W        W90462   3.568  22.455   4.873  0.0519 -0.0263 -0.0243
47447W        W90463  33.283   7.366  27.911  0.2430 -0.1962 -0.1300
47448W        W90464  30.237  29.977   6.086  0.1182 -0.4107 -0.1491
47449W        W90465  10.271  27.988   3.670  0.0646 -0.1504 -0.1757
47450W        W90466  30.435   3.827  23.881  0.0588  0.3314  0.0053
47451W        W90467  16.052  13.882   5.107 -0.1082 -0.0050  0.1427
47452W        W90468  28.697   0.255  10.261 -0.0135  0.3411  0.0161
47453W        W90469  34.631  14.668   3.116  0.0164 -0.0673  0.2285
47454W        W90470  31.020  30.169  27.613 -0.0472 -0.1904 -0.0479
47455W        W90471  19.028  10.887   8.850 -0.2616 -0.0540 -0.1164
47456W        W90472  17.045  18.031  13.666  0.0005 -0.3638  0.1170
47457W        W90473  33.907  12.477  24.852 -0.0423  0.3335  0.2765
47458W        W90474  24.516  19.239   2.316  0.0874 -0.2016 -0.1407
47459W        W90475  10.274   9.764   7.476 -0.0390  0.1203  0.0220
47460W        W90476  28.001  24.450   1.960  0.0641  0.1245 -0.0210
47461W        W90477   4.002  31.580   6.571 -0.0119 -0.1843  0.1642
47462W        W90478  31.524  23.990   9.823  0.1950 -0.0880  0.0237
47463W        W90479  28.581  16.693   1.332  0.0709  0.3524  0.0606
47464W        W90480  31.706  11.179   7.190 -0.2529 -0.4792  0.2648
47465W        W90481   4.598  16.756   4.698  0.0362 -0.0973 -0.2002
47466W        W90482   0.230  19.848   7.641  0.1197  0.0407 -0.0889
47467W        W90483  31.124  20.438  10.406  0.1241  0.3496  0.0676
47468W        W90484  33.704  11.566  10.888 -0.4228  0.0795 -0.3691
47469W        W90485  31.578  30.537   1.424  0.2972  0.1293  0.1106
47470W        W90486  34.034  27.842   7.589 -0.0843  0.0647  0.0961
47471W        W90487  31.705  27.950  10.577  0.0900  0.1261  0.0043
47472W        W90488  25.609  17.688  28.975 -0.0938  0.3722 -0.1091
47473W        W90489  21.318  27.499  29.093  0.1004  0.2446 -0.1733
47474W        W90490   2.127  23.462   8.321  0.0928  0.1996 -0.1835
47475W        W90491  27.225  10.772   6.956 -0.0881  0.1877 -0.1661
47476W        W90492   6.248  32.408  26.842  0.0626 -0.1892  0.0350
47477W        W90493   7.218  24.252  28.426  0.0926 -0.1284 -0.1250
47478W        W90494  24.214  17.782   7.994 -0.1100 -0.1874 -0.0927
47479W        W90495  32.566  13.343   7.380  0.0009 -0.4087  0.2449
47480W        W90496  28.625  13.174  26.518 -0.1629 -0.0018  0.1633
47481W        W90497  13.579   1.545   3.420  0.0073  0.0394 -0.2942
47482W        W90498   1.029  12.731   5.710 -0.4097  0.0684  0.0800
47483W        W90499   6.327  33.474  28.709  0.1795 -0.0345  0.0522
47484W        W90500  27.267  29.044   6.867 -0.0800 -0.0672  0.2898
47485W        W90501  15.390  23.052  22.759 -0.2369  0.1030 -0.1226
47486W        W90502   1.731  22.810  29.217 -0.2354  0.1332  0.2163
47487W        W90503  12.448  34.047  23.675  0.2672  0.1760  0.1771
47488W        W90504  16.604   9.105   3.965  0.0599 -0.4656 -0.1178
47489W        W90505  15.735  26.408   5.693 -0.2205  0.0317  0.0633
47490W        W90506  11.904  27.355   3.665  0.0345 -0.0345 -0.2154
47491W        W90507  33.230   6.724  28.822  0.0358 -0.0832 -0.1441
47492W        W90508   0.077  12.713  27.183 -0.1748  0.1219 -0.0131
47493W        W90509  12.422   1.204   5.408 -0.0174 -0.2513 -0.0353
47494W        W90510  21.713  15.002  27.544  0.3004  0.1047  0.1686
47495W        W90511  26.529  29.155  10.427  0.2662 -0.0324 -0.2403
47496W        W90512  30.313  29.285  26.006 -0.0371  0.0774 -0.0141
47497W        W90513   7.305   6.014   3.865  0.0792  0.1278  0.2330
47498W        W90514   3.946  24.577   3.900  0.0403  0.0540  0.1695
47499W        W90515  34.017  28.857   1.895 -0.0336  0.2739  0.0004
47500W        W90516   2.962   9.567   0.839 -0.0205 -0.0820  0.2134
47501W        W90517  32.339   6.747  10.105  0.0606  0.1471  0.2531
47502W        W90518  21.902  21.939   7.051  0.1399 -0.1317  0.0247
47503W        W90519  26.931  18.806   1.656 -0.0484 -0.1384 -0.0616
47504W        W90520  17.414  17.616  28.553 -0.2563  0.0041  0.0041
47505W        W90521  30.301  25.281   6.555 -0.2895 -0.1640  0.0349
47506W        W90522  32.526  18.568   2.557 -0.0373  0.1871  0.3503
47507W        W90523  11.143  13.677  23.921  0.3377 -0.3108  0.0972
47508W        W90524  29.703  33.051   0.260 -0.2805 -0.0032 -0.0951
47509W        W90525   7.533  24.949   7.352  0.0637  0.1779  0.1414
47510W        W90526  30.100  15.443   7.345  0.3117 -0.3072  0.2768
47511W        W90527  31.224  28.324  27.498 -0.1146 -0.3286  0.0778
47512W        W90528  14.134  20.499   3.083  0.1266 -0.0527 -0.0622
47513W        W90529  25.349  13.947   8.917  0.0582  0.1525  0.2249
47514W        W90530  17.889  29.442   9.424  0.0092  0.6891 -0.2952
47515W        W90531  10.319  29.125   3.900 -0.0872  0.1702 -0.1170
47516W        W90532  28.440  24.719  26.151 -0.3064  0.0848  0.5812
47517W        W90533   3.058   9.747   1.325  0.6326 -0.3478 -0.1194
47518W        W90534  24.195   3.679   3.749 -0.0516 -0.0843  0.2835
47519W        W90535  23.321  29.318   5.702 -0.3137 -0.2093 -0.0728
47520W        W90536  30.314  15.959   9.965 -0.1324  0.1444  0.0657
47521W        W90537  32.324  16.258   9.477  0.1214  0.1584  0.1738
47522W        W90538  30.258  19.980  20.693 -0.1000 -0.4725 -0.1044
47523W        W90539  34.198   2.148   9.975 -0.1666  0.1775  0.0721
47524W        W90540  27.492  26.562   1.009  0.0050 -0.1088 -0.0489
47525W        W90541  34.260   9.966   0.989  0.0646 -0.0310 -0.0648
47526W        W90542  18.692  19.008   0.772 -0.0299 -0.1644 -0.0994
47527W        W90543  34.269  23.836  28.487 -0.1818  0.0354  0.0272
47528W        W90544  28.468  22.231   2.150  0.2846 -0.0388 -0.0878
47529W        W90545  33.926  29.023  28.125 -0.3263  0.1587 -0.1414
47530W        W90546  32.139  18.650   4.382 -0.0102 -0.0256  0.1377
47531W        W90547  19.947  29.561   4.557 -0.2528 -0.0405  0.0339
47532W        W90548  14.709  21.243   6.209  0.0515  0.3263  0.0723
47533W        W90549  32.558   4.646   1.095 -0.3154  0.0436  0.1377
47534W        W90550   2.099  27.920   1.111 -0.1628 -0.0969  0.1420
47535W        W90551  25.043  12.785  19.108 -0.4191 -0.4486 -0.1773
47536W        W90552  29.471   4.534  28.412  0.1002 -0.1234 -0.0110
47537W        W90553  13.253  27.426   5.643  0.0989  0.0888 -0.0732
47538W        W90554  25.420  25.224   5.748  0.0041 -0.0090  0.1785
47539W        W90555  13.384  28.828  24.719 -0.0337  0.4583  0.1212
47540W        W90556  12.617  32.189   1.896  0.0973  0.0447 -0.2807
47541W        W90557  13.230  23.462  29.187 -0.0446 -0.0758  0.0246
47542W        W90558  33.152  12.414   5.075  0.0904 -0.0745  0.1662
47543W        W90559  13.052   9.268  26.589 -0.0171 -0.1006  0.1752
47544W        W90560   0.490   2.113   3.523  0.0556  0.0251 -0.1808
47545W        W90561  30.859  28.680   0.229  0.1335  0.1580 -0.2464
47546W        W90562   0.443  13.125  26.222 -0.2867 -0.0185  0.1022
47547W        W90563  13.241  17.644  12.844 -0.1883  0.0681  0.1085
47548W        W90564  28.704   4.371   2.478  0.1567  0.0503 -0.0420
47549W        W90565  32.409  15.220   4.651 -0.2984 -0.2616 -0.0640
47550W        W90566  31.741   3.076   9.307 -0.2274  0.2733 -0.1992
47551W        W90567  27.889   9.180   9.241 -0.1603  0.1413  0.3027
47552W        W90568  32.860   4.539   0.162  0.0594 -0.0091 -0.1215
47553W        W90569  32.938  18.320   0.612 -0.0303 -0.1388 -0.0622
47554W        W90570  28.595  16.055  28.040  0.2890  0.3301  0.0947
47555W        W90571   3.391  20.048   8.738 -0.1018 -0.2296 -0.1443
47556W        W90572  30.163  26.351   7.961  0.4713 -0.0095  0.2895
47557W        W90573  16.615  20.277  29.113 -0.1856  0.2127  0.0182
47558W        W90574  32.663  28.792   8.438 -0.0613 -0.3014 -0.2332
47559W        W90575  24.230  22.273  26.941  0.1379  0.0199  0.0953
47560W        W90576   8.046  14.773   8.312  0.0666  0.1682 -0.2571
47561W        W90577  29.938  11.265   4.743 -0.0455  0.2060  0.2167
47562W        W90578  27.874  19.076   6.151 -0.0032 -0.1757  0.0306
47563W        W90579   2.597  12.380  28.496 -0.0838 -0.0122  0.1505
47564W        W90580  33.057  21.061   9.338  0.3391 -0.4916  0.0012
47565W        W90581  27.022  34.720   9.666 -0.0695  0.1357  0.3018
47566W        W90582   9.573  25.427   4.785 -0.0217  0.0892  0.1440
47567W        W90583   7.124  15.992   7.651  0.1698 -0.3644 -0.0030
47568W        W90584   5.661  15.124   1.884  0.1491  0.1904  0.0071
47569W        W90585  16.157  23.256   4.215 -0.0856 -0.2235 -0.2185
47570W        W90586  33.653  24.029   9.367 -0.1989 -0.0543 -0.0136
47571W        W90587  25.158   0.927  21.827  0.1311 -0.1387 -0.0163
47572W        W90588   7.483  25.292   1.400  0.0244 -0.0996  0.0257
47573W        W90589  32.508  20.150  23.748  0.2126  0.2995  0.0226
47574W        W90590  30.844  28.388   3.998 -0.2447 -0.0517 -0.1975
47575W        W90591   5.222  30.157  24.590 -0.0513 -0.1022 -0.1704
47576W        W90592  16.746  21.026  22.309  0.1960 -0.0524 -0.2885
47577W        W90593   1.900  18.515   1.062 -0.0510 -0.0169 -0.2415
47578W        W90594  17.050  30.139   9.685  0.2252 -0.3539 -0.4085
47579W        W90595   8.485  13.030  14.148  0.0990 -0.2442  0.1896
47580W        W90596  30.146  31.109  26.005 -0.3049 -0.0939  0.2895
47581W        W90597  24.957  13.571  28.812  0.2153 -0.0039 -0.0801
47582W        W90598   0.393  24.669   4.440  0.0135 -0.6329 -0.1536
47583W        W90599  26.414   3.583   9.578  0.0736  0.0671 -0.4262
47584W        W90600  15.329  16.673  24.393 -0.1054  0.4541  0.2601
47585W        W90601  27.491  14.219   2.421 -0.2286  0.0100  0.1014
47586W        W90602   6.977  16.496  21.928 -0.0277  0.2684 -0.2585
47587W        W90603  30.203  28.408   2.685  0.2776 -0.1242 -0.0601
47588W        W90604   4.510  23.286   5.423 -0.0415  0.0683  0.3325
47589W        W90605  24.741  31.747   9.344  0.0214  0.2011  0.0076
47590W        W90606  27.737  23.681   1.160  0.2340  0.1193 -0.3294
47591W        W90607   3.336  31.176   2.455 -0.0951  0.0889 -0.2359
47592W        W90608  27.145  32.685   7.541  0.0223 -0.2042 -0.1898
47593W        W90609  27.540  27.888  11.745  0.2979 -0.4320  0.0826
47594W        W90610   1.145  34.241   8.144 -0.0407  0.4469  0.1228
47595W        W90611  29.769  26.702   8.092  0.2520 -0.3730 -0.2027
47596W        W90612  27.855  23.185   8.923  0.1995 -0.2836 -0.0625
47597W        W90613   2.389  25.864  26.271  0.4469  0.0389  0.2918
47598W        W90614  12.780  19.770   0.727  0.1885  0.2598  0.0315
47599W        W90615  30.471  24.806  28.258 -0.0415  0.0692 -0.1736
47600W        W90616  29.006  20.721   9.322 -0.0331  0.3374 -0.0885
47601W        W90617  25.906  13.463  21.699  0.1145  0.2360 -0.0377
47602W        W90618  11.199  29.101   9.515 -0.2630  0.0022  0.1844
47603W        W90619  12.827  20.680   3.074  0.1153 -0.2208  0.0570
47604W        W90620  29.388  18.041   7.138  0.0561 -0.2436 -0.2757
47605W        W90621  14.792  27.392  26.471  0.0478  0.0014 -0.1275
47606W        W90622   3.196  12.653  25.115 -0.3910  0.3241 -0.1450
47607W        W90623   9.295  17.886   7.921  0.2650 -0.0651  0.3799
47608W        W90624  19.975  28.262   4.011  0.0590 -0.1692 -0.2254
47609W        W90625  10.026  25.437   2.631  0.0235  0.0229 -0.1728
47610W        W90626   7.609  10.425   0.244  0.1300 -0.2288  0.2199
47611W        W90627   7.295  32.896  26.285  0.2540  0.2456  0.0949
47612W        W90628  27.462  28.672  27.151  0.1470  0.1789 -0.0701
47613W        W90629  29.006  27.050   1.155  0.1021 -0.0173  0.1587
47614W        W90630  21.702  25.823   0.708  0.0835 -0.0020 -0.0681
47615W        W90631   3.787  18.377   4.970  0.2711 -0.3593 -0.1373
47616W        W90632  16.723  19.402   5.039 -0.0068  0.1000  0.0231
47617W        W90633  19.467  20.675   8.626  0.0114 -0.1043  0.0582
47618W        W90634  22.954  31.087   5.934  0.1190  0.2827  0.1123
47619W        W90635  24.587  32.139   1.177 -0.3281 -0.1449 -0.1691
47620W        W90636  19.021  34.170   9.650  0.1545  0.4418 -0.5144
47621W        W90637  22.463  22.568   6.557 -0.0711  0.0493 -0.0703
47622W        W90638  24.105  29.752   3.298 -0.0115 -0.0017 -0.1402
47623W        W90639  10.402  20.952  28.592 -0.0718 -0.1244 -0.5679
47624W        W90640  22.944  29.760   5.518 -0.1363  0.3845 -0.1595
47625W        W90641   4.166  23.964   7.835  0.3067 -0.0133  0.2258
47626W        W90642  28.944  28.377   1.454  0.0760 -0.2329 -0.1108
47627W        W90643  22.942   5.596  27.599 -0.2361 -0.0430  0.0599
47628W        W90644  29.787  21.118  23.427 -0.3190 -0.1484  0.2608
47629W        W90645  10.604  22.189  17.385  0.0214  0.1237  0.0149
47630W        W90646  27.299  23.183   4.799 -0.0085 -0.2459  0.1502
47631W        W90647  11.545   3.737   6.810  0.0637  0.0497 -0.2117
47632W        W90648  11.205  25.002   8.832  0.0439 -0.1554 -0.1498
47633W        W90649   6.232  28.143  26.715 -0.1569  0.0880 -0.1264
47634W        W90650  34.103  24.681   6.666 -0.0292  0.0355  0.4426
47635W        W90651  34.442  16.899  22.726 -0.2674  0.0427 -0.0174
47636W        W90652  11.741  33.826   7.540 -0.0500 -0.0172 -0.1922
47637W        W90653   7.675  19.346   8.435  0.0249  0.2314  0.2749
47638W        W90654  32.819  26.211  10.108  0.1634  0.1397 -0.3759
47639W        W90655  33.220  15.088   0.270  0.0808  0.0598  0.0078
47640W        W90656  34.603  18.803   3.719 -0.3236  0.0142 -0.1288
47641W        W90657   2.529  18.512  24.806 -0.3001 -0.1362 -0.0771
47642W        W90658   2.741  22.421   8.710  0.2274 -0.0727  0.1802
47643W        W90659   9.568  27.069   0.224 -0.0953  0.0616  0.2734
47644W        W90660  25.233   4.982   0.489 -0.3763  0.1114 -0.3556
47645W        W90661   0.207  10.857   1.858  0.0964 -0.0837 -0.1058
47646W        W90662  18.587  14.596   1.989  0.2538  0.1506  0.0365
47647W        W90663  30.999  23.021  21.221 -0.0771 -0.0210  0.0851
47648W        W90664  28.793  16.252   1.249  0.1581 -0.0237 -0.1911
47649W        W90665  30.874  22.119   6.472 -0.0277 -0.0194  0.0973
47650W        W90666  32.163  14.587   7.483  0.1744  0.0310 -0.0914
47651W        W90667   6.729  33.677   6.622  0.1789 -0.0011  0.0779
47652W        W90668  29.858  18.627  22.623  0.0126  0.4331  0.2925
47653W        W90669  32.499  14.726  10.374  0.1192 -0.1056 -0.1161
47654W        W90670  25.445   0.599   8.958 -0.0610  0.1299  0.0027
47655W        W90671  30.223  18.777   4.819  0.0872  0.0805 -0.3173
47656W        W90672  25.988  24.430   6.715  0.0937 -0.0264  0.1545
47657W        W90673   0.723  14.403   4.347  0.2374 -0.0007  0.2186
47658W        W90674  15.167  24.240   5.256 -0.0198  0.1799  0.3127
47659W        W90675  32.407   4.192   3.128  0.0700  0.0492  0.0012
47660W        W90676  18.126   5.029   5.036 -0.4252 -0.2372  0.0216
47661W        W90677  29.555  11.236  16.462 -0.0528 -0.2984  0.0203
47662W        W90678  20.814  16.679   7.331 -0.0101 -0.1661  0.0672
47663W        W90679  12.787  23.456  17.166  0.0155 -0.1348  0.1595
47664W        W90680  26.237  13.386  20.297  0.0179  0.1247  0.1371
47665W        W90681  19.419   6.652   9.152 -0.0892 -0.0081  0.2754
47666W        W90682  13.353  32.915  10.128 -0.0083 -0.2946  0.0241
47667W        W90683  28.297  26.310   8.766  0.2132 -0.2170  0.1144
47668W        W90684  32.499  17.197   7.001 -0.3338  0.0604  0.1289
47669W        W90685  19.465  18.478   3.010  0.3168 -0.1071 -0.3097
47670W        W90686  20.022  26.066  17.251  0.0561  0.3583  0.0963
47671W        W90687  24.427   1.724   6.585 -0.1762  0.1616  0.1123
47672W        W90688  24.244   6.500   8.138  0.2355 -0.3128  0.4564
47673W        W90689   3.300  18.767   9.154  0.0330  0.0033  0.1351
47674W        W90690  11.748  18.820  25.759 -0.2602  0.0263  0.1541
47675W        W90691  31.477  32.836   1.411 -0.0184  0.0840 -0.2696
47676W        W90692  11.090   8.280  28.450 -0.3268  0.2517 -0.2856
47677W        W90693  32.559  21.557   3.243 -0.4042 -0.0467  0.0098
47678W        W90694   1.135   7.161   4.473  0.0122  0.2857 -0.1374
47679W        W90695   0.405  30.745   0.669  0.2606 -0.1963 -0.4106
47680W        W90696  34.643  24.428   7.807 -0.0696  0.4016 -0.0281
47681W        W90697  31.540  27.355   7.724 -0.1951  0.3119 -0.1363
47682W        W90698  33.517  20.177  28.594  0.0340 -0.0818  0.1149
47683W        W90699  23.709  17.056  16.907 -0.2415 -0.1917  0.0264
47684W        W90700  25.896  28.956   4.444  0.2097 -0.1119  0.1083
47685W        W90701  16.296   0.189   2.436 -0.0599  0.0876 -0.0717
47686W        W90702  17.427  23.769  19.462 -0.2078  0.0688 -0.3188
47687W        W90703  32.376  20.822  28.152  0.1456 -0.0385  0.0210
47688W        W90704  28.513  23.742   9.521 -0.2454  0.3681  0.1359
47689W        W90705   0.330  32.302  26.620 -0.2277 -0.1271  0.3882
47690W        W90706  31.372   4.580  24.411 -0.0748 -0.0172  0.2704
47691W        W90707  31.309  27.872   6.590  0.0041  0.1796  0.1723
47692W        W90708  23.548  32.646   5.697 -0.0316  0.0181  0.1243
47693W        W90709  19.291  20.747   2.478  0.1414 -0.1044 -0.0077
47694W        W90710  31.836   0.846  23.289 -0.1894 -0.3698  0.0789
47695W        W90711  28.488  19.675   1.834 -0.0329 -0.1059  0.0388
47696W        W90712   3.883  31.924   9.873  0.2699  0.6482  0.1771
47697W        W90713  20.405  17.232  27.892  0.0451 -0.1560  0.3011
47698W        W90714  31.282  19.640   2.958 -0.0694  0.3067  0.3049
47699W        W90715   3.474  22.923   4.639 -0.0679 -0.0365 -0.0035
47700W        W90716   6.289  14.574  24.428 -0.0341 -0.3007  0.0670
47701W        W90717  34.566  16.437  28.403 -0.1518  0.0609 -0.2628
47702W        W90718  31.992  23.588   3.455 -0.3213 -0.1705  0.0733
47703W        W90719  23.684   9.435   6.225  0.0180  0.2315  0.1338
47704W        W90720   6.064  20.109  17.590 -0.1400  0.5532 -0.1506
47705W        W90721  27.383  21.018   6.256 -0.1863 -0.5216  0.0015
47706W        W90722  23.454  12.630   8.738  0.1480  0.3147  0.3419
47707W        W90723  18.360  27.931  28.460 -0.1110 -0.1072  0.2409
47708W        W90724  33.931  14.626   8.175 -0.1595 -0.0073 -0.0874
47709W        W90725   8.756   7.601  29.239 -0.2374 -0.0152  0.0223
47710W        W90726  15.130  21.716   0.965 -0.1951 -0.1562  0.0859
47711W        W90727  31.008  27.037   3.125 -0.5391 -0.2971  0.1278
47712W        W90728  29.848  16.457  20.986  0.1165  0.2163  0.3650
47713W        W90729  33.240  26.646  28.620  0.2073 -0.1884 -0.0478
47714W        W90730  25.494  20.023  28.229 -0.1026  0.0604 -0.2249
47715W        W90731  34.510  17.141   3.377  0.0182 -0.2745 -0.0117
47716W        W90732   8.447  31.844   5.888  0.3000  0.2984 -0.3222
47717W        W90733  33.972   5.964  23.504 -0.3210  0.4280  0.1284
47718W        W90734   2.138  15.366  26.618 -0.1871  0.0294 -0.0120
47719W        W90735  13.334  32.105   7.414 -0.1116  0.4035  0.1378
47720W        W90736  32.053   2.824  28.582 -0.2429 -0.0269  0.0300
47721W        W90737  34.686   0.712   0.614 -0.2740 -0.0354  0.0253
47722W        W90738   5.972  31.111  28.466 -0.4955 -0.5212 -0.1103
47723W        W90739  34.287  31.609  10.605 -0.1635  0.2513  0.0588
47724W        W90740  33.900   5.029   6.405 -0.0237 -0.0348  0.1062
47725W        W90741  30.784   7.776  10.369  0.0425 -0.0075 -0.2064
47726W        W90742   7.863  31.031   0.286  0.0091  0.0230  0.0488
47727W        W90743  21.776   8.397  29.253 -0.4352 -0.1601 -0.0992
47728W        W90744   0.250  18.715   2.371  0.1283  0.1442 -0.2901
47729W        W90745  21.275   2.691   3.658  0.0008 -0.3634 -0.2226
47730W        W90746  20.462  23.831   9.665  0.1485 -0.0844 -0.0918
47731W        W90747  33.576  20.209   8.844 -0.0486  0.1862  0.1553
47732W        W90748  31.305  26.644   4.621 -0.2195 -0.1248  0.1370
47733W        W90749  29.622  13.043   0.540 -0.3372  0.2986 -0.0696
47734W        W90750  32.562  23.458   2.900 -0.3215 -0.1265  0.1905
47735W        W90751  27.864   6.929   6.320  0.0871 -0.1627 -0.1136
47736W        W90752  20.624   8.334   2.959 -0.0945 -0.0566 -0.1159
47737W        W90753  25.627   2.162  23.162 -0.3591 -0.0316 -0.0873
47738W        W90754  25.854  20.142   4.223 -0.0000 -0.0053  0.1267
47739W        W90755   3.190  16.005   5.592 -0.0734 -0.0644 -0.0288
47740W        W90756  18.412  19.373  25.914 -0.0443  0.1581  0.0107
47741W        W90757  16.399  17.191  28.820  0.1441  0.3345 -0.2676
47742W        W90758   1.405  22.219   5.143  0.1558  0.3285 -0.0503
47743W        W90759  24.966  18.938   4.900 -0.3971 -0.0095 -0.0646
47744W        W90760  23.244  16.693   3.323  0.0472  0.3209  0.1354
47745W        W90761  25.189  19.196   2.406  0.0425 -0.0115 -0.3320
47746W        W90762   1.624   1.186   9.128 -0.0451  0.0026  0.1130
47747W        W90763  27.136  20.825   0.718  0.1444  0.4662  0.1797
47748W        W90764  32.105  34.592   0.171 -0.0945 -0.1580 -0.1501
47749W        W90765  30.309  18.224   0.141  0.2676 -0.2270 -0.1052
47750W        W90766  20.736  18.506   0.818 -0.0217  0.0556 -0.1664
47751W        W90767   3.270  26.496   3.852 -0.1928 -0.1434 -0.5318
47752W        W90768  28.836  22.158   8.545 -0.2035  0.1500 -0.4391
47753W        W90769  21.600  24.650  10.362 -0.1525  0.0352 -0.0649
47754W        W90770  28.469   0.682  10.122 -0.2822 -0.3539  0.2168
47755W        W90771  12.297  29.254   1.196 -0.4400 -0.2672  0.0397
47756W        W90772  24.297  30.208   5.601 -0.2177 -0.3372  0.3378
47757W        W90773  27.195  20.486  28.551 -0.1742  0.0882  0.0889
47758W        W90774  21.402  19.958   8.161 -0.3125  0.0828  0.1641
47759W        W90775  33.982  22.274   6.803  0.0181 -0.1181  0.4336
47760W        W90776  20.344  19.923  28.571 -0.0112  0.1818 -0.1676
47761W        W90777   1.628  23.750   8.516  0.2961  0.1811 -0.1751
47762W        W90778   4.225  20.609   5.722 -0.2232  0.1745  0.3298
47763W        W90779  27.636  14.141   9.653 -0.0532 -0.4115  0.1210
47764W        W90780   8.517  28.733   1.644  0.2253  0.1592 -0.2872
47765W        W90781  20.908  30.744   7.813 -0.3095  0.1357 -0.0741
47766W        W90782  23.701  30.810   9.681 -0.0795  0.0466 -0.1386
47767W        W90783  28.355   8.384  11.004 -0.1247  0.1546 -0.3304
47768W        W90784  28.484  25.854   2.437 -0.1245 -0.2007  0.1700
47769W        W90785   5.906   7.094   8.809 -0.1956  0.2303 -0.2710
47770W        W90786   9.834  19.688   6.994 -0.1165 -0.0389 -0.0381
47771W        W90787  19.215  32.448   0.430 -0.1876  0.1375  0.1042
47772W        W90788  33.736  32.731   1.330 -0.2988  0.1762  0.2450
47773W        W90789  26.790  27.986  24.920  0.2481  0.4021 -0.5066
47774W        W90790  25.891  25.608   7.856 -0.2769  0.0022  0.0329
47775W        W90791  29.125  28.337  10.200 -0.1502  0.1487 -0.0736
47776W        W90792  33.405   6.391   6.462  0.1230  0.0398 -0.0378
47777W        W90793   9.182  20.314   5.667  0.1161  0.0216 -0.2268
47778W        W90794  33.506  13.014   1.883 -0.0376  0.1271  0.1153
47779W        W90795  12.999  27.557   4.641 -0.0664  0.3287  0.0325
47780W        W90796  26.562  24.915   8.745  0.1208  0.2828  0.0078
47781W        W90797  33.585  16.577   2.510  0.0747  0.0853 -0.0634
47782W        W90798  27.570  16.833   8.527 -0.1223 -0.2469  0.2124
47783W        W90799  28.184   7.706  10.451  0.0005 -0.0692  0.0414
47784W        W90800  12.783  28.799   6.289  0.0157  0.0125 -0.1115
47785W        W90801  26.302  14.834   1.184  0.1170 -0.1200  0.0212
47786W        W90802   2.399  19.242   5.168  0.0946 -0.1951  0.1532
47787W        W90803  27.775  20.586  17.061 -0.0281  0.1650  0.4347
47788W        W90804  28.355  19.432   9.279  0.0939 -0.0526  0.2705
47789W        W90805   5.556   9.849   5.728 -0.0786 -0.1352 -0.0614
47790W        W90806  15.770   1.001   8.319 -0.1080  0.1498 -0.1317
47791W        W90807   0.570  23.649   3.231  0.0985  0.1920 -0.2275
47792W        W90808   0.250  23.408   9.890  0.0994  0.0103 -0.1936
47793W        W90809  23.481  16.371  23.415  0.2573 -0.2375  0.0938
47794W        W90810  23.203  31.898   5.537 -0.0107 -0.0999 -0.1340
47795W        W90811   4.263  34.649   4.475 -0.0077  0.0940 -0.0033
47796W        W90812   3.858  27.924  23.302  0.2000  0.0174 -0.0615
47797W        W90813   0.335   3.667   5.131  0.0360  0.0796  0.2142
47798W        W90814  24.093   1.130   7.845 -0.0117  0.4636 -0.0427
47799W        W90815  24.251  27.790   9.714  0.0383 -0.1178  0.0191
47800W        W90816   0.578  19.719   5.328 -0.0252  0.1580  0.0450
47801W        W90817  24.725  20.326   7.820  0.0901  0.0218 -0.1235
47802W        W90818  28.931   6.441   4.365  0.1143  0.0680 -0.2687
47803W        W90819  30.250  27.603   3.663 -0.1934  0.0130 -0.0109
47804W        W90820  28.256  22.886  10.448  0.0553 -0.1758  0.1371
47805W        W90821  19.751  30.045  26.872 -0.1703  0.0655 -0.0885
47806W        W90822  30.012  18.294  25.441 -0.1046 -0.1552  0.2237
47807W        W90823  12.559   2.463  10.358  0.0650  0.0807  0.4486
47808W        W90824  33.587  27.695   5.067  0.2334 -0.1345  0.0114
47809W        W90825   7.039   4.529   6.407  0.0626  0.0451 -0.1043
47810W        W90826  32.959  19.547   8.930 -0.0344  0.0979 -0.1353
47811W        W90827  25.382   2.428  10.314 -0.0387  0.1226 -0.1611
47812W        W90828  25.048  19.871   3.095  0.0105 -0.0326  0.2567
47813W        W90829  32.343   0.421  10.166 -0.0546 -0.4281  0.1532
47814W        W90830  27.969  12.554   9.324  0.1975 -0.3304 -0.0845
47815W        W90831  30.277  31.073   5.805 -0.3280  0.0005 -0.1634
47816W        W90832  30.426   4.128   4.530 -0.2699 -0.0590 -0.2835
47817W        W90833   5.800  25.522   7.924 -0.1182 -0.0709 -0.5173
47818W        W90834  21.041  28.212   6.481 -0.0544 -0.3223 -0.1017
47819W        W90835  34.023  26.888  15.592 -0.0917  0.0495 -0.3503
47820W        W90836  28.365  18.920   4.631 -0.0945  0.0748 -0.2793
47821W        W90837   7.538  18.327  27.306 -0.3295 -0.1486 -0.0808
47822W        W90838   6.518  22.127   1.909 -0.0752 -0.0530  0.2095
47823W        W90839  13.943  12.535   6.329  0.0551  0.0820  0.1072
47824W        W90840   7.529  24.717  23.810 -0.0741  0.1526 -0.3404
47825W        W90841  27.185  23.081   3.518  0.1421 -0.1639 -0.0311
47826W        W90842   3.095  22.771   1.157 -0.2470 -0.0752  0.0217
47827W        W90843   1.199  29.622   9.925  0.1063 -0.0966 -0.3603
47828W        W90844  26.481  13.948  22.389  0.0313  0.1033  0.3625
47829W        W90845  11.049  17.908  26.883 -0.1946  0.1336 -0.2500
47830W        W90846  26.010  15.626   7.447  0.0019  0.1699  0.2167
47831W        W90847  18.883  28.224   0.621  0.2164 -0.0808 -0.1375
47832W        W90848   5.985  24.024   2.582 -0.4200 -0.0899 -0.1037
47833W        W90849  25.087  18.007  27.765 -0.3318 -0.1414 -0.0186
47834W        W90850  16.929  34.760   4.050  0.1031  0.2021  0.0362
47835W        W90851   8.395  16.594   7.586 -0.3462 -0.0566  0.2779
47836W        W90852   3.805  27.237  10.042  0.0438 -0.1758  0.0617
47837W        W90853  28.856  29.583   1.516  0.0836 -0.2226 -0.0381
47838W        W90854  18.857  18.777  24.474  0.1445 -0.1342 -0.0620
47839W        W90855  29.647  27.772   0.651  0.0025  0.3473  0.2667
47840W        W90856  29.490  23.273   4.472  0.1549  0.1099 -0.0483
47841W        W90857  21.868  18.365   6.498  0.2180  0.0355  0.0950
47842W        W90858  28.196   1.658  24.345 -0.0720  0.2191  0.1279
47843W        W90859  28.455  27.904   4.112 -0.2744  0.0843  0.0472
47844W        W90860  30.260  16.372  10.305 -0.2277  0.3298 -0.1298
47845W        W90861   9.166   4.116  28.568  0.1492 -0.1344 -0.1777
47846W        W90862  33.908  27.973  27.449  0.1821  0.0606  0.0318
47847W        W90863  16.390  15.436   4.024 -0.0191  0.1908  0.1956
47848W        W90864  22.434   8.303   1.801  0.0975 -0.2023  0.0731
47849W        W90865  19.943  16.314   1.887  0.2103  0.1040  0.0576
47850W        W90866  26.821  20.647  27.456  0.0638 -0.2800 -0.1764
47851W        W90867   1.882  18.435   4.327 -0.1896 -0.0157 -0.1058
47852W        W90868  26.119   1.856  26.767  0.1015  0.2574 -0.0759
47853W        W90869  21.523   0.586   9.327 -0.1273 -0.2245  0.3491
47854W        W90870  28.068  19.506   4.534 -0.2972  0.2173 -0.0054
47855W        W90871  31.437  11.981  15.832  0.4133 -0.1304 -0.0997
47856W        W90872  22.494  22.148   8.467  0.1618 -0.1169 -0.2107
47857W        W90873  25.151  19.084   7.838  0.3237  0.1373  0.0365
47858W        W90874  24.171  14.993   8.167  0.1340 -0.0200  0.3457
47859W        W90875  30.870  21.651   6.611  0.0292  0.1911  0.0583
47860W        W90876  30.987  28.184  15.763  0.1932 -0.2066  0.0404
47861W        W90877   8.755   1.757   0.425 -0.4701 -0.2424 -0.1486
47862W        W90878  28.751  33.947   5.153 -0.2125  0.2576  0.2772
47863W        W90879  33.270  25.729   7.277 -0.0089  0.0255  0.1624
47864W        W90880   3.599  26.006   0.188  0.0288 -0.3653 -0.0905
47865W        W90881  12.970   3.460   5.752  0.2059 -0.0551 -0.1403
47866W        W90882  21.151  26.609  26.588 -0.0885 -0.3207  0.1769
47867W        W90883  28.105  18.791   9.217  0.0068 -0.1887  0.0638
47868W        W90884  20.071  18.339  26.804 -0.3782  0.2509  0.0581
47869W        W90885  17.571  19.190  25.398 -0.0432  0.0377 -0.5579
47870W        W90886   2.854   6.640   4.630  0.1046  0.0373  0.0265
47871W        W90887  25.775  26.544   5.712  0.1627 -0.1520  0.0914
47872W        W90888   0.132   7.030  28.480  0.0992 -0.0897  0.2963
47873W        W90889  31.499  13.564  27.469  0.2338 -0.1408 -0.0892
47874W        W90890  34.349  18.407   4.103 -0.3681  0.3042 -0.3085
47875W        W90891  23.580  15.001   8.251 -0.0822  0.5167 -0.2470
47876W        W90892   1.501  20.853   9.597 -0.0267  0.1017  0.1671
47877W        W90893   9.444  27.397  10.419 -0.3085  0.3130 -0.2811
47878W        W90894   8.087   4.495  21.639 -0.2434  0.2102  0.1462
47879W        W90895  20.594  12.978   0.688 -0.0779  0.0065  0.1952
47880W        W90896   3.789  15.549  25.713 -0.1503  0.3476  0.2628
47881W        W90897  30.588  18.849   0.911 -0.2018  0.0909  0.2414
47882W        W90898  24.209   1.672   6.161 -0.1458  0.0592  0.0213
47883W        W90899  33.423  31.040  14.883 -0.3474 -0.1265 -0.3852
47884W        W90900  21.673  24.561   9.484  0.0153  0.2556 -0.1020
47885W        W90901  32.854  26.612   9.796  0.0584 -0.1591 -0.0208
47886W        W90902  27.130  16.318   3.632 -0.3054  0.0416 -0.0554
47887W        W90903  27.918   3.227   8.911  0.0006 -0.1318 -0.2543
47888W        W90904  16.465   2.444   9.361 -0.1963 -0.0798 -0.3701
47889W        W90905  11.291  19.529   0.322 -0.1954 -0.4216  0.0436
47890W        W90906   0.555  10.612   6.914  0.1584  0.2792  0.1756
47891W        W90907  24.011  12.499   1.887 -0.1493 -0.3053  0.0475
47892W        W90908  28.622   6.609   7.876  0.1123 -0.0279 -0.1511
47893W        W90909  12.430  24.780   4.131  0.2731  0.0723  0.0068
47894W        W90910   0.326  19.106   8.539  0.1650  0.2556 -0.3247
47895W        W90911   0.284   9.646   6.859 -0.0037 -0.0140 -0.3498
47896W        W90912  27.089  28.529  10.846 -0.0294  0.1071 -0.2207
47897W        W90913  24.817  17.055   1.572 -0.0472  0.0408 -0.0567
47898W        W90914  29.767   5.830  24.395 -0.1254  0.3514  0.4652
47899W        W90915  26.257  17.661   8.238 -0.2602 -0.0862  0.1574
47900W        W90916  31.136  14.439   9.838  0.2452  0.1417 -0.0864
47901W        W90917   9.075  17.584   3.546  0.1142  0.2380  0.2752
47902W        W90918  29.106  17.499   0.077  0.0602 -0.1276 -0.0761
47903W        W90919  23.963  21.971   8.157  0.1329 -0.1392 -0.1842
47904W        W90920  12.403  33.486   6.791 -0.2549 -0.2932  0.3675
47905W        W90921  23.976   3.701   5.154  0.0360 -0.0464 -0.1888
47906W        W90922  33.792  15.348   4.056  0.0731 -0.0639 -0.0802
47907W        W90923   1.718  28.845   5.363  0.1480 -0.1385 -0.2243
47908W        W90924  33.433  18.151  22.832  0.1426  0.1470 -0.2645
47909W        W90925  26.488  23.455   5.992  0.2050  0.2836 -0.0125
47910W        W90926  10.905  31.202   4.308  0.1548  0.1340  0.2529
47911W        W90927   4.858  24.978   7.014  0.2494  0.0851  0.0454
47912W        W90928   4.892  16.163   6.994 -0.1681  0.2126  0.0631
47913W        W90929   2.474  26.954  27.361  0.1750  0.2701 -0.3271
47914W        W90930  23.922  21.652   7.202  0.2698  0.0989 -0.0265
47915W        W90931  14.549  22.119   1.461 -0.2978 -0.0895  0.3049
47916W        W90932  24.617   4.016  10.154 -0.0990  0.0665 -0.0072
47917W        W90933  21.955  32.786  22.839  0.2102 -0.0007  0.0879
47918W        W90934   4.902  24.564  16.709 -0.1599  0.2017 -0.0846
47919W        W90935   2.571   5.190   2.699 -0.5049 -0.1130 -0.0026
47920W        W90936  29.896  27.286   2.418  0.1661  0.0493 -0.0239
47921W        W90937   7.451  34.358   8.685 -0.0683 -0.0738  0.1196
47922W        W90938  23.431  11.697  22.569 -0.0120 -0.1341  0.1318
47923W        W90939   5.434   8.386   0.206 -0.0846  0.0978  0.2912
47924W        W90940  14.467  20.124  28.158 -0.2934 -0.0599 -0.2094
47925W        W90941  34.007  25.821   2.625 -0.3071 -0.1528 -0.0638
47926W        W90942   5.065  17.603   4.253  0.1083  0.1359 -0.1308
47927W        W90943   7.356  19.482   5.156  0.0605 -0.0696 -0.3147
47928W        W90944  30.417  32.711   4.005 -0.3837  0.1054  0.1160
47929W        W90945  33.682  15.098   9.387 -0.0284  0.3133 -0.1150
47930W        W90946  33.309  10.629   9.849 -0.0202 -0.0652  0.0330
47931W        W90947  10.743  16.085  23.703  0.4273  0.3398  0.1422
47932W        W90948  30.734  21.937   9.593  0.1384  0.2423  0.0586
47933W        W90949  26.860  29.412   8.218 -0.1045 -0.0469  0.0378
47934W        W90950  24.149  31.561   9.594 -0.1017 -0.0983 -0.3738
47935W        W90951  30.596   9.819   0.838  0.4810 -0.1454 -0.4130
47936W        W90952  10.573  32.969  21.767  0.0558 -0.2196 -0.0436
47937W        W90953   7.586   6.872   1.807 -0.1307 -0.0426 -0.2728
47938W        W90954   0.838   5.028   6.882 -0.1036  0.3029  0.0734
47939W        W90955  31.557  30.721  11.326  0.0664 -0.3913 -0.1915
47940W        W90956   3.970  20.771   0.307  0.1204 -0.0200 -0.0501
47941W        W90957  21.806  25.408   1.593 -0.2161 -0.2239  0.3330
47942W        W90958  25.241  33.171   1.543  0.2526 -0.1165 -0.1629
47943W        W90959   2.234  23.854   2.881 -0.5379  0.2129  0.0182
47944W        W90960  23.936  18.411   4.855 -0.3429  0.0135  0.0140
47945W        W90961   6.283  10.231   8.169 -0.1148  0.3202  0.2809
47946W        W90962  21.361  33.997   6.784 -0.3864 -0.0459  0.1131
47947W        W90963   7.842  22.233   6.655  0.1064  0.0841  0.1721
47948W        W90964   2.880   7.353  20.033  0.0071  0.4377 -0.1149
47949W        W90965  23.067  11.991  20.753 -0.3154  0.0457 -0.1326
47950W        W90966  33.603  22.783  10.327 -0.0595  0.2085 -0.2832
47951W        W90967  34.198   9.137  16.285  0.0424 -0.1892  0.3934
47952W        W90968  27.032  30.249   9.010 -0.0607 -0.1481  0.1141
47953W        W90969  13.725  14.873   1.715  0.0283  0.1132 -0.2429
47954W        W90970  28.929  12.334   9.941  0.0703 -0.1700  0.0986
47955W        W90971  10.088  23.179  20.575  0.2870  0.1879 -0.1595
47956W        W90972   9.598  20.773   1.045  0.1356 -0.0935  0.0727
47957W        W90973  29.006  12.257   4.937 -0.3792 -0.2573 -0.0176
47958W        W90974  23.955   6.014   9.080 -0.2718 -0.0158  0.1089
47959W        W90975  19.635  31.035   5.812 -0.3272  0.3091 -0.0106
47960W        W90976  30.122   0.969  24.916 -0.0456  0.3567 -0.1143
47961W        W90977  20.365  22.291   3.136 -0.2843  0.0227 -0.1937
47962W        W90978  29.094  14.232   3.054  0.2467 -0.0806  0.0255
47963W        W90979  20.051  24.337   7.456  0.0444 -0.2804 -0.2273
47964W        W90980  28.416   0.732   6.252 -0.1335 -0.0972  0.2326
47965W        W90981  32.419  13.068  10.183  0.0011  0.0150 -0.2345
47966W        W90982  19.504  21.255  27.729 -0.2174 -0.2943  0.2927
47967W        W90983  27.900  21.143  25.456  0.1465  0.2511  0.1946
47968W        W90984  31.886   8.843   2.255 -0.0790 -0.2088 -0.0204
47969W        W90985   2.460  15.199  28.996 -0.0626  0.1988 -0.2047
47970W        W90986   3.362  30.905  24.153 -0.1521  0.0700 -0.3492
47971W        W90987   0.667   6.878   4.593 -0.1549  0.4314  0.0602
47972W        W90988   3.927   2.509   5.095 -0.0178  0.0315  0.1319
47973W        W90989  18.292  20.626  22.968 -0.2679  0.0097  0.2271
47974W        W90990  30.989  34.504  28.351  0.1938  0.5059 -0.2229
47975W        W90991  21.419  26.030   5.455 -0.1248 -0.0214  0.3240
47976W        W90992   9.915  31.474  24.497 -0.0102  0.1395  0.1446
47977W        W90993  28.967  18.590   8.037 -0.1085 -0.3153  0.2213
47978W        W90994   9.002  17.415  13.095  0.1191 -0.0245 -0.0070
47979W        W90995  24.216  15.920  26.535  0.0170  0.0969 -0.3053
47980W        W90996  33.281  19.052   3.159 -0.0620  0.1497 -0.2777
47981W        W90997  23.596  29.399  23.231  0.2688 -0.0259  0.1018
47982W        W90998   1.643   0.451  17.806 -0.0280  0.1477 -0.2562
47983W        W90999  11.724  30.615   4.519 -0.1165 -0.0136 -0.2251
47984W        W91000  25.875   1.052   4.882 -0.1369 -0.1200 -0.0342
47985W        W91001   3.766  26.252   6.534  0.0636 -0.1854  0.0617
47986W        W91002   7.944  18.671   3.518  0.1145  0.0067 -0.2186
47987W        W91003   4.523   4.571  22.644 -0.0450  0.3374  0.1244
47988W        W91004   6.678  17.054   7.126 -0.0574  0.0592 -0.0943
47989W        W91005  22.618  21.507   9.010 -0.2087  0.2373 -0.1551
47990W        W91006   2.663  14.902   5.704 -0.1394 -0.1363  0.0794
47991W        W91007   4.486  16.256  27.355 -0.0542  0.0051 -0.0334
47992W        W91008  32.761  18.161   4.222 -0.0445  0.1562 -0.3422
47993W        W91009  24.988   6.941  23.641 -0.0564 -0.0247  0.0816
47994W        W91010  26.075  19.836  28.131 -0.4207  0.2403 -0.1190
47995W        W91011  20.401  13.791  20.237 -0.0193  0.2121  0.0385
47996W        W91012  14.879   7.705  21.824  0.2037  0.1518 -0.2285
47997W        W91013  19.089  16.869   7.327 -0.1744  0.1724 -0.1817
47998W        W91014  26.663   3.311  10.312 -0.1309 -0.1175  0.1720
47999W        W91015  32.366   8.778   3.709  0.1641  0.1945 -0.1798
48000W        W91016  24.711  17.004  28.378  0.2500  0.1982  0.0424
48001W        W91017  31.620   8.488   0.142  0.0732  0.0686 -0.0784
48002W        W91018   2.997  34.351  28.996  0.2887  0.1945  0.0702
48003W        W91019   1.510  13.730   6.851  0.0375 -0.0334  0.0327
48004W        W91020  20.750  15.737   4.367 -0.2901  0.0203  0.1436
48005W        W91021   3.066  19.673   4.661 -0.0678 -0.1894 -0.3541
48006W        W91022  25.660  23.202   6.960  0.0148 -0.0571  0.1153
48007W        W91023   8.117  25.984   4.904 -0.1192 -0.1087  0.0030
48008W        W91024  19.423  27.645  28.276 -0.0539  0.1270 -0.4638
48009W        W91025   5.146  20.119   8.030 -0.1690 -0.2564 -0.0778
48010W        W91026   7.428  25.776   6.227 -0.1743 -0.2932  0.0150
48011W        W91027  24.283   3.555   7.675  0.0438 -0.4152 -0.1037
48012W        W91028  27.923  19.414  10.054 -0.5073 -0.4954 -0.1203
48013W        W91029   4.475  16.262   4.602 -0.0490 -0.1148  0.0385
48014W        W91030  26.061  18.253   6.044  0.0009  0.0088  0.1022
48015W        W91031  13.121   2.945   6.729  0.3290  0.2618  0.0711
48016W        W91032  32.811  24.668   8.225 -0.1413 -0.0913 -0.2027
48017W        W91033  32.586  20.980  23.801 -0.2077  0.0626 -0.5611
48018W        W91034  28.816   9.281  27.330 -0.0853  0.1329  0.1210
48019W        W91035  28.014  16.607   1.024 -0.2495  0.0737 -0.0418
48020W        W91036   0.090  27.128  16.640  0.0530  0.2649  0.1244
48021W        W91037  30.406  16.821   0.771  0.1527 -0.1904  0.1311
48022W        W91038  11.578   2.872   7.359  0.3073 -0.0447 -0.1728
48023W        W91039   2.797  34.739   8.411  0.1531 -0.2008  0.0077
48024W        W91040  25.941  14.142   6.920 -0.2230  0.2045 -0.0214
48025W        W91041  32.619  21.644   6.477  0.1490 -0.1219 -0.0890
48026W        W91042  12.578  22.100  26.561  0.2884  0.0158  0.1450
48027W        W91043  22.561  32.287  29.129  0.1186 -0.1680  0.1285
48028W        W91044   1.983  30.879   4.586  0.0119  0.0379  0.1996
48029W        W91045  33.737  30.370  23.709  0.1671 -0.1905 -0.0500
48030W        W91046  14.607  21.176   3.408  0.0030  0.1182 -0.1147
48031W        W91047  27.186  12.744   2.363 -0.1516 -0.0189  0.1595
48032W        W91048   5.001   4.658   4.678  0.1770  0.2533  0.0280
48033W        W91049  32.515  30.333  10.352 -0.1100 -0.2651  0.0203
48034W        W91050  24.235  25.306   5.182  0.1917  0.4734  0.0631
48035W        W91051  21.711  25.047   8.878 -0.2180 -0.2563  0.1620
48036W        W91052  33.757  27.145   7.245  0.1719  0.3414 -0.1274
48037W        W91053  21.622  25.064   8.394  0.1017 -0.0139  0.1340
48038W        W91054  30.327  10.684   8.832  0.0985 -0.0342  0.1679
48039W        W91055  22.989  20.193   2.509  0.0513 -0.2319  0.2443
48040W        W91056   5.790  23.383   6.013 -0.0522 -0.2556  0.1878
48041W        W91057   0.182  18.401   0.778  0.1821  0.1983  0.0598
48042W        W91058  27.082  18.774  10.509 -0.0292  0.0832  0.2484
48043W        W91059  33.061  10.745   4.145  0.0194 -0.0006 -0.0814
48044W        W91060  29.473  19.978   6.933 -0.1185 -0.0401 -0.0094
48045W        W91061  27.294  16.269   1.862  0.0850  0.0081 -0.3080
48046W        W91062  14.130  14.302  24.184  0.0001 -0.0000  0.2329
48047W        W91063  25.080   9.082  17.926 -0.1247  0.2023 -0.0697
48048W        W91064  34.674  19.139  24.955 -0.1382  0.0671 -0.0174
48049W        W91065  20.606  26.285  27.535 -0.2158  0.2947 -0.0766
48050W        W91066   6.364  21.270   2.351  0.2475  0.1559  0.0808
48051W        W91067  26.749   7.289   8.899 -0.1931 -0.2893 -0.2224
48052W        W91068  22.873  17.630  23.407  0.1420  0.3842 -0.0842
48053W        W91069  32.911  26.131   2.584  0.0314  0.0378 -0.0242
48054W        W91070   1.063   8.253  16.824  0.5072 -0.2223 -0.1977
48055W        W91071  11.831  15.997   7.254  0.3152  0.1827  0.1012
48056W        W91072   8.346  30.771  28.221 -0.1860 -0.2163  0.0336
48057W        W91073   4.388  22.067   4.040  0.3168 -0.3136  0.2922
48058W        W91074   0.918  13.020  20.454  0.2310 -0.2094  0.0110
48059W        W91075  33.803  33.340  23.386 -0.3071 -0.1462 -0.1306
48060W        W91076  14.296  22.939  13.110 -0.1200  0.0963 -0.4428
48061W        W91077  19.763  23.596  28.310  0.0485  0.1418  0.3264
48062W        W91078  25.235  25.080   6.778 -0.0612  0.1361 -0.1304
48063W        W91079  33.612  12.851   8.127 -0.0684 -0.1122  0.0255
48064W        W91080  23.192  15.441  15.726  0.0979  0.2432 -0.0950
48065W        W91081  25.780  30.689   5.100  0.1364 -0.0265  0.0323
48066W        W91082  31.249  18.209  26.548  0.1638 -0.2409 -0.1314
48067W        W91083  32.216  18.780   0.536 -0.1224 -0.1604  0.1398
48068W        W91084  23.439  25.926   1.727 -0.2861  0.0284  0.4002
48069W        W91085  24.205   6.596   1.469 -0.1488  0.0672 -0.2197
48070W        W91086   7.584  25.475   0.952 -0.0299  0.0318  0.1142
48071W        W91087  29.326  23.992  20.752 -0.1023 -0.0348 -0.0680
48072W        W91088  21.923  15.752  20.068 -0.0860 -0.2109  0.0043
48073W        W91089  17.037  27.045  23.728 -0.0606 -0.0604 -0.1323
48074W        W91090  27.739  34.283  23.555 -0.0854 -0.2842 -0.0119
48075W        W91091  33.832  13.138  29.266 -0.4264  0.4287 -0.1603
48076W        W91092   5.472  34.328  19.817  0.0339  0.0149 -0.0561
48077W        W91093   7.349   0.739   5.859 -0.1582  0.1272  0.0568
48078W        W91094   7.537  15.284   5.069 -0.1561 -0.0791  0.0344
48079W        W91095  21.841   4.909   4.489 -0.0364 -0.2740 -0.0585
48080W        W91096  29.015  17.674  28.856  0.1108  0.0162 -0.3412
48081W        W91097  30.572  28.118  22.168 -0.2450  0.2084 -0.0768
48082W        W91098  29.939   0.218  16.167 -0.0025  0.0459 -0.0215
48083W        W91099  19.890  12.596   1.669 -0.0337 -0.2730  0.0734
48084W        W91100  31.673  15.483   8.920  0.2463 -0.1074 -0.2144
48085W        W91101  11.825  25.359   9.489 -0.3382 -0.2554 -0.3158
48086W        W91102  23.634  34.747   4.243 -0.2334 -0.0251  0.2555
48087W        W91103  20.035  17.473   3.962  0.3309 -0.0482  0.3415
48088W        W91104  25.359  12.354  27.553 -0.3209  0.1710  0.1682
48089W        W91105  18.644  27.112   7.332 -0.4261  0.0509 -0.0781
48090W        W91106  20.501  25.689  15.213 -0.3660 -0.2158 -0.2288
48091W        W91107  16.873  32.150   6.589 -0.0078  0.0415  0.0848
48092W        W91108  27.004  24.949  21.698  0.1471 -0.0784  0.1628
48093W        W91109  31.391   5.320   1.468  0.0989 -0.0421 -0.2626
48094W        W91110  23.079  33.581   5.870  0.0939 -0.1064 -0.0010
48095W        W91111  28.177   8.184  26.309 -0.0661 -0.0277  0.0740
48096W        W91112  33.533  27.424  16.443  0.2629  0.3321  0.0463
48097W        W91113   1.909  13.505   0.061  0.0975 -0.0663  0.0817
48098W        W91114   2.894  17.177  19.121  0.3558 -0.0346  0.0378
48099W        W91115  18.049  22.934  28.713 -0.0973  0.1531 -0.0325
48100W        W91116   9.709  11.762  23.228  0.0964 -0.0254 -0.3052
48101W        W91117  13.022  23.326   3.101  0.2958 -0.2486  0.3187
48102W        W91118  19.745  16.840  20.996  0.1146  0.0370 -0.0648
48103W        W91119  19.761  19.038  22.270 -0.0963 -0.0808 -0.1197
48104W        W91120  14.693  10.296  28.512 -0.2904 -0.0940 -0.2559
48105W        W91121  30.843   1.904  23.201 -0.0840 -0.1002 -0.2459
48106W        W91122  23.942  16.143  27.614  0.1374  0.2653 -0.1643
48107W        W91123   0.418  11.858  23.386  0.0725 -0.4028  0.0112
48108W        W91124  22.374  33.830  17.102 -0.1109 -0.2221  0.0165
48109W        W91125  10.344  22.336  22.916  0.0510 -0.1026  0.2164
48110W        W91126  17.769  16.991   7.710 -0.1228 -0.2143 -0.2611
48111W        W91127  22.603  32.629  21.889 -0.0009  0.1119 -0.2215
48112W        W91128  16.973  20.069  22.649 -0.2306  0.0124  0.2932
48113W        W91129  14.760   2.349  28.976 -0.3399  0.0419  0.3750
48114W        W91130  23.443   2.882   5.705  0.0398 -0.1225 -0.1475
48115W        W91131   8.221  32.633   1.039  0.1216 -0.0291 -0.0900
48116W        W91132   1.415   2.347   4.141  0.0452 -0.2020  0.3362
48117W        W91133   7.273  27.140  24.319 -0.0341  0.1617  0.0169
48118W        W91134   2.529  34.024   2.418 -0.1487 -0.1258  0.0351
48119W        W91135  25.485  31.129  16.533 -0.1363  0.3302 -0.1430
48120W        W91136  30.604  23.361  20.124 -0.0070  0.0061 -0.0685
48121W        W91137   7.752  14.044  27.570 -0.1888  0.2791 -0.0794
48122W        W91138  30.261  20.032   9.388  0.2337 -0.3502 -0.3855
48123W        W91139  27.390  23.292   6.362  0.1429 -0.0087 -0.0834
48124W        W91140  25.605  22.797   6.636  0.0403 -0.2033 -0.1018
48125W        W91141  31.955   0.870  15.671 -0.4846 -0.0168 -0.0243
48126W        W91142  32.822  29.998  10.854 -0.3029  0.0579  0.1936
48127W        W91143   2.049  17.288   9.174 -0.0649 -0.2101  0.0852
48128W        W91144   2.919  17.374  15.368  0.1289  0.0995  0.3858
48129W        W91145   9.727   5.419  26.196  0.3762 -0.0008 -0.1763
48130W        W91146   3.526  32.044   5.428 -0.0818 -0.0114 -0.1344
48131W        W91147   9.812  28.850   6.089  0.1643  0.3810  0.2417
48132W        W91148  27.143   8.349  28.003  0.2397 -0.1068  0.0210
48133W        W91149  11.544  24.401   1.596 -0.4747 -0.0345 -0.2873
48134W        W91150  34.737  29.135   0.687 -0.2491 -0.1295  0.0761
48135W        W91151  15.136  10.247  24.451  0.1300  0.0384  0.1382
48136W        W91152  26.766  20.856   2.430 -0.2424  0.0854  0.0540
48137W        W91153  17.981  24.296  22.229 -0.0533  0.2791  0.0426
48138W        W91154   4.067  24.117  27.892  0.0808  0.0575  0.2256
48139W        W91155  28.538  11.747  23.071  0.0818 -0.1659 -0.2513
48140W        W91156  22.112  30.223   6.903 -0.0366 -0.2838  0.1222
48141W        W91157  27.387  34.615   5.107 -0.0387 -0.2966  0.4475
48142W        W91158  21.409   3.585   7.209 -0.0086  0.2801  0.1014
48143W        W91159  11.230  19.471  21.407 -0.0850 -0.0414 -0.1740
48144W        W91160  30.753  12.245   1.073  0.0058 -0.2750  0.2409
48145W        W91161  28.587  22.715   1.372 -0.1799 -0.0308 -0.1099
48146W        W91162  26.999  18.936   9.310 -0.2863 -0.0693  0.1482
48147W        W91163  26.581  19.451  10.038 -0.2217 -0.0511  0.1194
48148W        W91164  33.237  27.751  28.648  0.0939 -0.3590  0.1078
48149W        W91165  27.742  13.339   0.608 -0.0029  0.1053 -0.1228
48150W        W91166   3.031  11.208  16.128  0.0246  0.2919  0.2443
48151W        W91167  25.896  26.721  27.626  0.2633  0.1036  0.1231
48152W        W91168  33.179  28.747  28.024 -0.1761 -0.2296 -0.0819
48153W        W91169  23.231   0.416   5.561  0.3396 -0.1023 -0.0867
48154W        W91170  19.108  20.776  28.781  0.0444 -0.0372 -0.2397
48155W        W91171   1.004  16.832   2.951  0.1285 -0.0513 -0.1355
48156W        W91172  31.515  19.891   5.525 -0.1053 -0.2797  0.1153
48157W        W91173   6.868  13.254   5.135  0.1959 -0.0021 -0.0711
48158W        W91174  21.184  27.130  19.599  0.2245  0.4590  0.1228
48159W        W91175   7.097  10.577   6.774  0.1485  0.1946 -0.1625
48160W        W91176  13.774   7.662   6.683  0.2920 -0.2783 -0.0684
48161W        W91177   4.416  24.872   6.709  0.1426 -0.0809  0.0971
48162W        W91178  17.751  28.427  26.270  0.1043  0.1202 -0.0833
48163W        W91179  20.229  29.383  25.547 -0.1068  0.3519  0.2706
48164W        W91180  24.922  21.282  28.622 -0.3616  0.2198 -0.0300
48165W        W91181  20.145   2.426   9.044  0.0616 -0.0022  0.1353
48166W        W91182  34.739   6.111  24.734  0.1403 -0.0587 -0.0523
48167W        W91183  25.422  25.807   4.565  0.0999  0.0571 -0.1760
48168W        W91184   5.215  30.088   6.289 -0.0829 -0.2270  0.1600
48169W        W91185   5.696  28.231   7.193 -0.0033 -0.1072 -0.0616
48170W        W91186   3.340  20.760   6.237 -0.0895  0.2123  0.2745
48171W        W91187  22.539  12.741   7.086  0.2329 -0.3058  0.1393
48172W        W91188  34.241  19.709   4.492  0.1951  0.0053 -0.3312
48173W        W91189  30.943  22.718  24.997  0.4286 -0.1044 -0.1723
48174W        W91190  20.604   3.627   8.965 -0.0210  0.0848  0.0252
48175W        W91191  25.433  15.124  29.187 -0.0752 -0.0418  0.1385
48176W        W91192   3.607  16.372   4.571 -0.0868  0.0586  0.1346
48177W        W91193  26.463  20.438  23.941 -0.0079  0.0815  0.1008
48178W        W91194  34.148   0.730  26.667 -0.0933 -0.1949 -0.0889
48179W        W91195   6.623  20.819   2.583 -0.2369 -0.0359  0.3369
48180W        W91196  20.130  15.998  28.772  0.1631 -0.0850  0.0449
48181W        W91197  17.794  24.476   6.893 -0.0295 -0.1283  0.1950
48182W        W91198   5.035  23.364  19.808  0.1775 -0.1541  0.0540
48183W        W91199  31.018  32.873  28.378 -0.1425  0.0579  0.0259
48184W        W91200  32.375  19.492   6.827  0.0934  0.3124  0.1196
48185W        W91201  25.617   0.058   1.775 -0.2414 -0.0736  0.1030
48186W        W91202   8.474  14.843  27.612 -0.0470 -0.0335 -0.0898
48187W        W91203  33.434   1.799  19.968  0.0728  0.0229 -0.3055
48188W        W91204   7.466  27.496  13.990  0.0296 -0.0758  0.1067
48189W        W91205  30.909  29.073  26.618 -0.1729 -0.1448 -0.3037
48190W        W91206  15.261  17.768   3.091  0.1088  0.3139 -0.2632
48191W        W91207  23.121  26.503  18.982  0.0887  0.2391 -0.1091
48192W        W91208   0.756   6.887   0.779 -0.1792 -0.1380 -0.0372
48193W        W91209  13.933   6.273  26.598  0.2037 -0.1585 -0.0750
48194W        W91210   7.553  21.614  16.008  0.2226  0.0119 -0.0239
48195W        W91211  29.413  26.529   5.196  0.0236 -0.0270  0.3812
48196W        W91212   2.401  28.252   7.478  0.1447 -0.2634  0.0406
48197W        W91213  11.098  28.869   2.756 -0.1762 -0.0251  0.1672
48198W        W91214  33.017  29.729  10.240 -0.3589 -0.0047  0.0162
48199W        W91215  12.236   8.987   6.987  0.1046 -0.0638 -0.3093
48200W        W91216  20.051  25.570   4.621  0.1078  0.3762  0.0686
48201W        W91217   6.489   4.066   9.533 -0.2732  0.0022 -0.0730
48202W        W91218  18.011  25.907   8.176  0.1056  0.5072  0.0576
48203W        W91219   3.740   6.879   8.006 -0.0255  0.1585 -0.0230
48204W        W91220  21.874   1.712   4.911  0.0564  0.0790 -0.0804
48205W        W91221   7.199   3.254   9.109  0.0293  0.1307 -0.1305
48206W        W91222  30.081  18.190  22.696 -0.2324  0.0137  0.0507
48207W        W91223   2.774  28.786  28.115  0.1229  0.0883 -0.1180
48208W        W91224  27.206   4.907   0.929 -0.2419  0.0639 -0.1407
48209W        W91225  10.566  20.639   6.648  0.0839  0.1192  0.1775
48210W        W91226  30.241   3.317  10.280 -0.2283 -0.0894 -0.0291
48211W        W91227  33.138  18.096  25.098  0.0211  0.1435  0.2819
48212W        W91228  31.667   0.078   9.652 -0.2469 -0.2038  0.1352
48213W        W91229  14.503  18.619   4.235  0.2063  0.2007 -0.0974
48214W        W91230   2.913  20.122  27.508 -0.4442 -0.0506 -0.1773
48215W        W91231  34.418   0.790   7.124  0.1074  0.1803  0.0515
48216W        W91232   7.968  23.738   8.231 -0.1611 -0.0502  0.0553
48217W        W91233   3.159  27.885   6.577  0.1610  0.1275  0.1101
48218W        W91234  27.466  17.635   0.729 -0.0838  0.2578  0.1375
48219W        W91235   3.236  29.394  13.993  0.3505 -0.0325  0.0542
48220W        W91236  32.658  31.081   0.781  0.2572 -0.2450 -0.2636
48221W        W91237   3.925  11.708  19.305 -0.0409 -0.2969  0.2672
48222W        W91238   1.004  12.720   4.557 -0.1159 -0.1753 -0.2596
48223W        W91239  34.273  22.222   3.914  0.0433 -0.1988 -0.4011
48224W        W91240   8.800  31.025  21.140  0.0581  0.1450 -0.2871
48225W        W91241  28.465   1.254  10.098  0.3867 -0.0120 -0.2732
48226W        W91242  27.615  34.655   6.597 -0.1013  0.2034 -0.0428
48227W        W91243  15.595  28.762   9.621 -0.1493  0.1298  0.2545
48228W        W91244  24.115  32.761  11.056  0.2916 -0.0321 -0.0911
48229W        W91245  30.950  32.822  21.316  0.1692 -0.1075 -0.1240
48230W        W91246  12.028   8.497   7.165 -0.3441 -0.1029  0.0142
48231W        W91247  31.013  20.853  23.835  0.4198  0.1990  0.1265
48232W        W91248   6.571   8.087  19.438 -0.1000 -0.1076 -0.2421
48233W        W91249  21.571   8.582  21.348 -0.1435 -0.3093  0.0456
48234W        W91250  26.074  31.611   3.777 -0.2498  0.1660  0.0358
48235W        W91251   5.867  33.655   8.807 -0.0298 -0.2212 -0.0373
48236W        W91252   3.706  27.801   4.966 -0.0342  0.3753  0.3499
48237W        W91253   5.365  28.961   3.859 -0.4110  0.2237  0.0292
48238W        W91254   4.499  27.252   1.271  0.0395  0.3296 -0.0856
48239W        W91255  18.219  19.535   6.212  0.0541 -0.1221  0.0208
48240W        W91256  21.358  14.721  25.232 -0.0906 -0.2790 -0.2705
48241W        W91257  23.375  17.405  17.100  0.2103 -0.0310 -0.0452
48242W        W91258  10.188  29.438  22.982 -0.0566  0.4712 -0.1377
48243W        W91259  18.063   1.373  19.523 -0.1666  0.2322  0.0874
48244W        W91260  24.879  27.672   8.297 -0.1635  0.0487  0.0235
48245W        W91261  16.458  27.446   7.278 -0.0559 -0.1830 -0.1799
48246W        W91262  27.556  23.177   4.366 -0.0544 -0.0706 -0.3394
48247W        W91263   3.801   4.126   2.492 -0.1623 -0.2173  0.2949
48248W        W91264  27.061  20.098  25.694 -0.1544  0.1732  0.1104
48249W        W91265   9.141  27.886   1.934 -0.0992 -0.1888  0.5225
48250W        W91266   5.145  25.361   4.958 -0.2209 -0.0220 -0.0870
48251W        W91267  33.913   2.575   0.005  0.0116 -0.0559 -0.0934
48252W        W91268  28.488  29.857   9.951  0.1879  0.1837  0.0974
48253W        W91269   0.324  29.041  15.684 -0.2408 -0.0528  0.2156
48254W        W91270  25.876  20.473  26.270 -0.0565  0.1123  0.5009
48255W        W91271  14.096  24.115  14.844 -0.1693  0.2327 -0.4454
48256W        W91272   6.485  32.186   3.479 -0.0579  0.1689  0.0444
48257W        W91273  18.525  27.973   0.960 -0.0653 -0.1215  0.1838
48258W        W91274  23.575  34.222   9.727 -0.1073 -0.1031 -0.0394
48259W        W91275  30.526   2.161   7.346  0.0960  0.0421  0.0560
48260W        W91276  12.278  26.030   7.714  0.0391 -0.2807 -0.0363
48261W        W91277  29.844  31.612   6.526  0.0364 -0.4892 -0.0614
48262W        W91278  13.607   1.978   2.974  0.0734  0.2717  0.3900
48263W        W91279  19.139  18.518  21.043 -0.0317  0.1043  0.4082
48264W        W91280   9.144  29.824  29.294  0.1287  0.2468  0.0501
48265W        W91281  23.697  19.991  27.093  0.0136 -0.0467 -0.1443
48266W        W91282  26.491   4.527  26.675  0.1493 -0.2439 -0.2907
48267W        W91283  21.407  27.596   9.523 -0.2327 -0.2478 -0.1568
48268W        W91284  24.207  18.969   0.195  0.0193 -0.2004  0.0173
48269W        W91285  22.574  17.986   0.284  0.1735 -0.3610  0.2406
48270W        W91286  23.088  34.050   3.965  0.1039 -0.0109 -0.2542
48271W        W91287  19.459  18.003   1.445  0.0584  0.2306  0.0011
48272W        W91288  31.223   8.619   6.876 -0.0905  0.1152 -0.0690
48273W        W91289  14.672  20.082   4.015 -0.0416 -0.1876 -0.0739
48274W        W91290  30.275  20.587  20.853 -0.4056 -0.1891 -0.0973
48275W        W91291   6.412   6.430   4.362 -0.1431  0.0700  0.0969
48276W        W91292  20.166  12.456  24.220  0.0346 -0.1510 -0.0437
48277W        W91293   5.809  20.025  28.687  0.0767  0.1982  0.3271
48278W        W91294  28.304  34.425   9.752 -0.2084 -0.1490  0.0291
48279W        W91295  28.478  12.284   4.592  0.1022  0.0164 -0.1559
48280W        W91296  27.202  32.333   2.448  0.2443  0.1131 -0.1773
48281W        W91297  27.056  25.449  29.034  0.1231  0.1191 -0.1595
48282W        W91298  24.285  17.711  24.365  0.1033 -0.1682 -0.0588
48283W        W91299  29.629  23.749   6.395 -0.0847  0.1140 -0.0729
48284W        W91300   7.899   9.049  27.289  0.3414  0.2402  0.1099
48285W        W91301  13.243  13.679   7.483  0.0220  0.2575  0.1409
48286W        W91302  26.141  12.858   7.538 -0.1328  0.0739 -0.1799
48287W        W91303  28.881  23.771   3.878 -0.3168  0.0548 -0.1973
48288W        W91304   2.096  17.429   8.273 -0.2581 -0.1461  0.0058
48289W        W91305  30.321  28.760  28.366  0.0734 -0.0094 -0.1113
48290W        W91306  22.502  26.414   6.388  0.0858  0.2275  0.0704
48291W        W91307  26.727   1.235  29.081  0.1553 -0.2413 -0.1142
48292W        W91308  31.395  25.579   5.822 -0.2841  0.1509 -0.0278
48293W        W91309  27.864   0.444   9.623  0.2531 -0.0026 -0.0229
48294W        W91310  22.447  31.327  29.020  0.1667 -0.0522  0.3791
48295W        W91311  21.310  30.831   7.215 -0.0149 -0.0806 -0.1788
48296W        W91312  13.994  10.911   9.077 -0.3131  0.1637  0.0418
48297W        W91313  14.066  19.348  23.038  0.0555 -0.0123 -0.0168
48298W        W91314   8.562  21.759   0.503  0.1786 -0.4165 -0.1575
48299W        W91315  23.013   4.869  25.869 -0.0336  0.3090 -0.1350
48300W        W91316  23.596   8.329  26.555 -0.6506  0.0550 -0.1598
48301W        W91317  27.664  24.183  27.679  0.0674 -0.2604 -0.1459
48302W        W91318  21.055   2.939   1.155  0.0690 -0.1140 -0.0170
48303W        W91319  31.315  23.358   9.947  0.5129  0.1232 -0.1083
48304W        W91320  27.060   5.821   1.742  0.2307  0.2546 -0.2576
48305W        W91321   1.719  16.450  27.774  0.0137  0.1741 -0.0821
48306W        W91322  29.265  25.301  16.804 -0.1666  0.1367  0.3291
48307W        W91323  23.292  25.744   5.587 -0.2697 -0.1713  0.2676
48308W        W91324  12.411  33.893   5.371 -0.2825 -0.0154  0.1169
48309W        W91325  29.908  29.745   9.943 -0.0880  0.1401 -0.1394
48310W        W91326  25.932  27.122   9.947  0.1444  0.1945  0.0466
48311W        W91327   1.600   2.045   4.691 -0.0779 -0.0666 -0.3390
48312W        W91328   2.370  20.882   1.194  0.1400  0.0547 -0.0726
48313W        W91329  11.641  26.474  22.778  0.1738  0.1198  0.2879
48314W        W91330  20.802   7.933   3.365 -0.0915 -0.0220  0.2489
48315W        W91331  26.147   9.351   8.357  0.5756 -0.1100 -0.0208
48316W        W91332  19.931  13.902  20.401 -0.1968 -0.0810  0.1645
48317W        W91333  12.407  18.640  14.252  0.1342  0.0916  0.1451
48318W        W91334  20.259  32.475  21.902 -0.0683  0.2820 -0.3142
48319W        W91335  28.151  24.880   2.271 -0.2561 -0.0627 -0.1004
48320W        W91336  14.259  34.108  14.781 -0.0500  0.0896 -0.0799
48321W        W91337  28.450   1.489  18.416  0.1267 -0.0620  0.1956
48322W        W91338   6.619  26.190   2.835  0.0550  0.0559 -0.2122
48323W        W91339  33.644  23.903   4.483  0.0897  0.2194 -0.0640
48324W        W91340   0.529  27.297   9.590 -0.1139  0.1719  0.2813
48325W        W91341  23.601  18.882   3.849  0.0282 -0.2196  0.1643
48326W        W91342  22.744   2.779  26.253 -0.0644 -0.2496  0.1501
48327W        W91343  33.700   0.266  23.874  0.1754 -0.1763 -0.1152
48328W        W91344  21.402  10.332  23.080  0.1253 -0.0031  0.2973
48329W        W91345  10.246   0.790   6.380  0.1836  0.0173 -0.2847
48330W        W91346  27.133  31.391  11.440  0.1691 -0.1110 -0.3281
48331W        W91347  27.411  10.219   5.124 -0.1857 -0.0653  0.1884
48332W        W91348   4.555  34.340   7.445  0.0386  0.3623 -0.1176
48333W        W91349  31.723   0.323   6.662 -0.1288  0.1589 -0.2910
48334W        W91350  15.715  29.909  28.455 -0.1127  0.4401  0.0926
48335W        W91351  25.842  28.761  11.610 -0.2511 -0.1970  0.3985
48336W        W91352  29.037   2.322  23.627  0.0885 -0.2769  0.0369
48337W        W91353   5.695  19.686   3.169  0.0242 -0.0760  0.1782
48338W        W91354   6.636  18.176   4.729 -0.3962  0.1352 -0.0138
48339W        W91355  22.485  15.234   4.319  0.0484 -0.0607  0.0433
48340W        W91356   0.368  31.529  20.469 -0.1167  0.1726  0.0681
48341W        W91357  26.088  24.898  26.762 -0.0275  0.1266 -0.0516
48342W        W91358  30.768  20.297   3.705 -0.1636  0.1082 -0.1962
48343W        W91359  18.543  18.594   1.101  0.0796  0.0189  0.2244
48344W        W91360  32.119  18.929   9.839 -0.1129  0.2688  0.1963
48345W        W91361  16.538   7.915   4.215  0.1966 -0.1188 -0.0239
48346W        W91362   4.920  13.662   4.374  0.1843  0.3418 -0.1988
48347W        W91363  10.526   2.280  28.601 -0.0158 -0.1122  0.1508
48348W        W91364   2.747  31.621  24.778  0.2139 -0.1591  0.4981
48349W        W91365  29.499  28.219   0.599 -0.1202  0.2298  0.0898
48350W        W91366   2.687  20.001   2.399  0.1044  0.2068  0.1724
48351W        W91367  27.675  16.163  24.008  0.2160 -0.0572  0.2308
48352W        W91368  31.513   6.001  28.989  0.2006  0.0642 -0.3102
48353W        W91369  26.115   2.788  10.190 -0.0933  0.2777 -0.5170
48354W        W91370  22.983  26.460   8.868  0.1276 -0.1637  0.1455
48355W        W91371  24.230   2.672  15.166  0.0382  0.2272 -0.0480
48356W        W91372   7.332  11.938   1.904 -0.2160 -0.0880  0.0304
48357W        W91373  25.038  29.590   8.527  0.1324 -0.3709  0.0622
48358W        W91374  29.429  27.074   8.343 -0.1227 -0.1800 -0.0302
48359W        W91375  30.151  21.323  19.302  0.3352  0.1228 -0.4015
48360W        W91376  30.868  29.716  11.788  0.1434  0.1797  0.1924
48361W        W91377  33.554  17.150  26.679  0.2743  0.2536  0.0318
48362W        W91378  18.816  14.434  23.122 -0.1432  0.0926 -0.1748
48363W        W91379  21.806  14.982   7.460  0.3496 -0.3966 -0.1464
48364W        W91380   2.747  34.754  29.128 -0.0885 -0.1583  0.1334
48365W        W91381   5.307  33.835   9.735  0.1794 -0.1564 -0.1071
48366W        W91382   0.852  31.668   9.255  0.0711  0.0511  0.0438
48367W        W91383  29.515  30.596  22.700 -0.0862  0.1944  0.0382
48368W        W91384   7.585  20.639  19.876  0.2710 -0.2508 -0.2589
48369W        W91385  23.737  20.166   2.996  0.0332  0.3722 -0.4692
48370W        W91386  25.662   5.978   6.628 -0.1215 -0.2336  0.1380
48371W        W91387   5.559  31.731   7.776 -0.0745 -0.1552 -0.0208
48372W        W91388  11.230  29.484  10.207 -0.0674 -0.0351 -0.1005
48373W        W91389  30.794  34.037   7.886  0.0830 -0.0383 -0.2000
48374W        W91390   0.104   7.664   1.846 -0.0181 -0.0401  0.1219
48375W        W91391  20.162  14.820   6.479  0.2519 -0.0093  0.2158
48376W        W91392  26.347  20.043  20.450  0.0334 -0.4331  0.1466
48377W        W91393  23.676  22.290   3.241  0.3905 -0.1073 -0.0247
48378W        W91394  23.129  19.155   1.200 -0.4482 -0.0778  0.1174
48379W        W91395  16.878  23.155   6.044  0.2426  0.3015 -0.1205
48380W        W91396  17.318   0.409  29.121 -0.0394 -0.3385  0.1534
48381W        W91397  10.561   5.107   1.250 -0.4206  0.2267 -0.0651
48382W        W91398  30.222   9.903   3.752 -0.0283  0.0697  0.0442
48383W        W91399  33.455  24.377  14.203  0.0547  0.0874 -0.2131
48384W        W91400  11.198  19.769   7.360  0.3397 -0.0874  0.2724
48385W        W91401  31.682  24.301  19.529  0.2039  0.1947 -0.4702
48386W        W91402  26.755  11.309   5.917 -0.1794 -0.1038  0.0590
48387W        W91403   7.295  23.030  28.218  0.0272 -0.1512 -0.3566
48388W        W91404   2.721  22.515  26.157 -0.0137 -0.2143 -0.0687
48389W        W91405  20.050  26.302  18.523  0.3046 -0.0585 -0.0554
48390W        W91406  12.501  12.588   8.101 -0.0614  0.1919 -0.0458
48391W        W91407  15.223  28.142   5.646  0.0652  0.3134  0.0420
48392W        W91408  34.442  29.923   4.426 -0.0804 -0.2029  0.0551
48393W        W91409   0.419  20.156   2.842 -0.1917  0.1766  0.0534
48394W        W91410  17.538  24.054   6.813  0.0989  0.1293  0.0357
48395W        W91411  16.919  34.118   3.610 -0.1179  0.1918 -0.3115
48396W        W91412  27.752  23.852  23.018 -0.3832  0.2740  0.0767
48397W        W91413   0.981   2.217  19.542  0.0583 -0.0647 -0.1639
48398W        W91414  23.261  19.914  28.882  0.1512  0.0183  0.1977
48399W        W91415  19.214   1.255  17.241 -0.0721  0.0480  0.2916
48400W        W91416  28.454  16.355  22.590 -0.1083 -0.0800 -0.2799
48401W        W91417   0.038  13.997  26.850  0.0821 -0.0734  0.2598
48402W        W91418   4.569  22.465  26.761 -0.1965 -0.2326 -0.1368
48403W        W91419  21.249  27.952  25.737  0.1951  0.1542 -0.0789
48404W        W91420  33.127  24.808  27.458  0.0444 -0.2742  0.0618
48405W        W91421  23.189  15.896   4.572 -0.4137 -0.0736 -0.1486
48406W        W91422  21.553   0.181  21.722  0.0291  0.0122  0.2794
48407W        W91423  19.324  19.336   6.328  0.0283 -0.1632  0.0312
48408W        W91424   3.125  22.473  25.854 -0.0504  0.2476 -0.2112
48409W        W91425  23.378  23.872  17.782  0.1009  0.0008 -0.1639
48410W        W91426  26.157  22.232  10.416 -0.1926 -0.0949  0.2237
48411W        W91427  30.601   6.969  10.625 -0.2127  0.0499  0.3999
48412W        W91428  17.851  26.347   9.689  0.3293 -0.2054  0.1219
48413W        W91429   3.266   8.451  24.072 -0.0145 -0.3040  0.1666
48414W        W91430   8.273  14.068   4.778 -0.1878  0.1592 -0.0294
48415W        W91431   1.785  28.874   6.880  0.2566  0.2013  0.1836
48416W        W91432   2.070   4.433   5.316 -0.0826 -0.1630 -0.0376
48417W        W91433  26.162   1.766  10.799  0.2913  0.2077 -0.0999
48418W        W91434   0.632  19.941   9.802 -0.1061 -0.0349 -0.3322
48419W        W91435  10.180  20.208   2.277 -0.1432 -0.0115  0.1439
48420W        W91436  24.957  17.611  26.241  0.0210 -0.0254 -0.2333
48421W        W91437   4.245  22.879   0.446  0.1485  0.4637 -0.0936
48422W        W91438  34.148  17.898   3.984 -0.0797 -0.0984  0.2383
48423W        W91439   9.117   9.790   2.030 -0.0051  0.5208 -0.1715
48424W        W91440  20.856  33.976  21.967  0.0638 -0.2620  0.2204
48425W        W91441  27.214  14.635  21.333  0.2066 -0.0326 -0.1298
48426W        W91442  24.946  31.278  10.460  0.2827  0.2419 -0.0870
48427W        W91443  22.404   0.714   4.182  0.0206 -0.2946  0.1269
48428W        W91444  12.571   0.532   9.772  0.0700  0.2303 -0.2129
48429W        W91445   1.646  32.497   5.714  0.2807 -0.3956 -0.1908
48430W        W91446  16.913   2.528  22.377 -0.0752 -0.0996 -0.1554
48431W        W91447  19.458  23.573   6.572 -0.3336 -0.0174  0.0504
48432W        W91448  28.989   4.398   9.734 -0.2035  0.1442 -0.1089
48433W        W91449  12.305   1.720  24.401 -0.4107 -0.1651  0.1614
48434W        W91450  24.975   1.290  27.752  0.3947  0.5778  0.2387
48435W        W91451   2.163  27.731   5.654 -0.0140 -0.1698 -0.0574
48436W        W91452  19.726  31.034  28.516  0.0404 -0.1428 -0.0474
48437W        W91453  32.716  33.695  10.525 -0.1947  0.1080  0.1862
48438W        W91454  30.524   3.022  26.755 -0.5311 -0.1879  0.1177
48439W        W91455  19.833  13.622   5.421  0.3958 -0.1249  0.1283
48440W        W91456  29.437  13.284   5.814 -0.2810  0.4874 -0.0757
48441W        W91457  17.206  31.616   9.423 -0.0441  0.3932  0.1277
48442W        W91458  27.086  13.625   8.379  0.0055 -0.0221  0.1055
48443W        W91459  26.456  27.152   9.565 -0.0120  0.0801 -0.0892
48444W        W91460  13.036  16.629  28.088 -0.1619  0.3049  0.1441
48445W        W91461  30.449   1.072  21.070 -0.0121 -0.1830 -0.0626
48446W        W91462  32.445  28.997   3.495 -0.0523 -0.1513  0.2578
48447W        W91463  32.491  26.729   4.045  0.0648 -0.0945 -0.0727
48448W        W91464  26.345  11.526  16.969  0.2323 -0.0666 -0.0236
48449W        W91465  26.381   2.718   9.735 -0.1774  0.2768  0.0418
48450W        W91466  26.585  19.509   1.000 -0.2931  0.0274 -0.0742
48451W        W91467   0.214  11.603  16.349  0.1227  0.2042 -0.2635
48452W        W91468  30.763  25.807  22.617  0.1833 -0.1575 -0.0186
48453W        W91469   0.285  34.598   3.390  0.2701 -0.0880  0.1292
48454W        W91470   8.515  29.473  14.239 -0.0543 -0.0494 -0.0865
48455W        W91471   3.362  27.463   6.377 -0.0613 -0.0480 -0.1798
48456W        W91472  31.065  26.158  10.668 -0.2353 -0.1928  0.3456
48457W        W91473  11.031  18.413   3.027 -0.1001  0.2022  0.1180
48458W        W91474   7.261   6.581   3.175 -0.1360 -0.2572 -0.1581
48459W        W91475  18.852  24.455  29.176  0.1405 -0.0003  0.2567
48460W        W91476  19.810  14.671  27.223  0.0098  0.3487  0.1524
48461W        W91477  15.025  13.626   1.142  0.2082 -0.0332  0.0487
48462W        W91478  15.038  34.326  21.968 -0.2282 -0.0582  0.0414
48463W        W91479  12.329  29.024   3.751 -0.1884 -0.1726 -0.0947
48464W        W91480  22.814   8.994  19.385  0.2315  0.1020 -0.0821
48465W        W91481  25.377  21.795   9.960 -0.0137 -0.1454  0.0204
48466W        W91482  16.251   8.619   7.154 -0.1013 -0.0225 -0.2505
48467W        W91483  21.235  28.978  27.809  0.2041 -0.2251 -0.2795
48468W        W91484   2.094  21.122   7.550  0.2335  0.0768 -0.2673
48469W        W91485  33.095  14.286  28.435 -0.0123  0.1225  0.1822
48470W        W91486  19.579  23.360  25.973 -0.2264 -0.0833 -0.0275
48471W        W91487  23.641  22.034  16.352  0.3079  0.1215 -0.1981
48472W        W91488  27.130  13.745   1.115 -0.0716 -0.1116 -0.1952
48473W        W91489  33.629  16.580  28.146  0.1089 -0.0370  0.1999
48474W        W91490  15.987  24.081  27.675  0.0502 -0.3417  0.1694
48475W        W91491  30.982  29.304  24.740  0.3078  0.2093  0.2100
48476W        W91492  15.569  31.850   2.281 -0.0400  0.0332 -0.1415
48477W        W91493  15.690  23.549   6.829  0.2010  0.0046 -0.1392
48478W        W91494  29.913  22.607  19.138 -0.2791 -0.2454  0.1004
48479W        W91495  29.885  23.917   5.942 -0.2009  0.0373  0.1399
48480W        W91496  10.319   3.521   7.863  0.2611 -0.0475 -0.0969
48481W        W91497  27.209   1.415  11.759 -0.1612  0.0515 -0.4281
48482W        W91498  16.861  18.981   5.896  0.4238 -0.1414  0.2610
48483W        W91499  15.843  21.173   2.192  0.0051 -0.0668  0.0631
48484W        W91500  30.980   7.790  24.416  0.2412  0.3514  0.0731
48485W        W91501  26.913  24.733   9.364 -0.0161  0.2300  0.1022
48486W        W91502  25.749  19.709  23.918  0.4019 -0.2055  0.0553
48487W        W91503   7.465   8.921  21.059  0.2974  0.2757  0.0458
48488W        W91504  30.277  17.096   8.349  0.1872  0.1715 -0.1809
48489W        W91505  22.002  24.868   1.199  0.1829  0.1597 -0.2427
48490W        W91506  32.603  22.393  27.843  0.0706  0.1289 -0.2481
48491W        W91507   1.771  28.920   3.549  0.0628  0.0840  0.1641
48492W        W91508  11.243  31.695  27.285  0.1360  0.0149  0.1107
48493W        W91509   9.784   0.267  22.250  0.2979 -0.3272  0.0926
48494W        W91510  15.149  20.070   3.169 -0.1062  0.0669  0.1847
48495W        W91511  26.589  32.306   4.090 -0.2296  0.1259 -0.3909
48496W        W91512  25.714  21.789   6.172  0.2153 -0.1393 -0.2180
48497W        W91513  13.118  19.666  29.320 -0.1650 -0.2835  0.1083
48498W        W91514  30.386  21.385  16.561  0.0358  0.0655  0.2580
48499W        W91515  20.065  22.499   6.018 -0.0177 -0.4339 -0.3243
48500W        W91516  28.158  34.122  26.919  0.0903  0.3347  0.0394
48501W        W91517   0.172  15.274   3.537  0.0181  0.0664 -0.1615
48502W        W91518  24.421  29.659   6.021 -0.2691 -0.0881  0.0998
48503W        W91519  30.103   0.162   8.387  0.3479 -0.4663 -0.1151
48504W        W91520  29.131  30.569  11.933  0.3018  0.3428  0.2317
48505W        W91521  30.057  25.565  11.527  0.0116  0.0312 -0.1933
48506W        W91522  15.830   7.761   1.971  0.1541  0.0445  0.1263
48507W        W91523  29.328  32.699   7.893  0.2913 -0.1513  0.1951
48508W        W91524  25.357  16.481   5.613 -0.0165 -0.0043 -0.6394
48509W        W91525  18.175  23.596   8.932 -0.0648 -0.1486 -0.2844
48510W        W91526  24.149  24.458   4.644 -0.3827  0.1133 -0.0382
48511W        W91527  17.956  22.090  27.804  0.2103  0.4396 -0.0405
48512W        W91528   0.556   7.961  21.449 -0.0689  0.4025 -0.3989
48513W        W91529   2.356  20.257   4.888 -0.2524  0.5359 -0.1040
48514W        W91530  19.708  34.286   5.223 -0.0452 -0.3293 -0.0896
48515W        W91531  27.254   1.963   7.219  0.1807  0.2694  0.0971
48516W        W91532   1.340  22.289  25.179  0.1315  0.0904 -0.1103
48517W        W91533   7.910  30.287   2.694 -0.0335  0.2566  0.4151
48518W        W91534  27.204  29.884   5.642 -0.0938  0.0549  0.1211
48519W        W91535  22.690  33.181   2.424 -0.0409  0.1193  0.1257
48520W        W91536   6.297  30.699  23.238  0.1393 -0.0033  0.2641
48521W        W91537  21.819  18.647  22.713 -0.1041  0.2601  0.1949
48522W        W91538  13.640  23.559   2.225 -0.1311 -0.4175  0.1135
48523W        W91539  31.745  25.157  21.286 -0.0829  0.0368 -0.0294
48524W        W91540  17.153  19.776   8.325  0.1190  0.1714  0.2400
48525W        W91541   1.825  32.064   4.250  0.0746 -0.1658 -0.2624
48526W        W91542  10.541   4.684   4.624  0.1993 -0.2392 -0.0201
48527W        W91543  34.084  33.891   4.981  0.1233 -0.2613 -0.0685
48528W        W91544  13.983  31.980  25.659  0.2249  0.3384 -0.0273
48529W        W91545  11.907  20.636   8.454 -0.1399  0.1743  0.3666
48530W        W91546  11.104  33.427  26.744 -0.0280 -0.1191 -0.1242
48531W        W91547  21.381  25.286   7.565  0.2612 -0.1438  0.0052
48532W        W91548  31.262  18.924   2.656 -0.3527 -0.0291  0.2226
48533W        W91549  34.550  23.523   9.880 -0.2748 -0.1301  0.1461
48534W        W91550  13.856  26.562   1.104  0.0700  0.4745 -0.1068
48535W        W91551   2.195   8.113   2.775 -0.1218 -0.0305  0.2675
48536W        W91552  23.943  14.461  27.893 -0.2959  0.1195 -0.1839
48537W        W91553  34.749  30.228   5.643  0.0122 -0.4301 -0.3019
48538W        W91554  18.911  25.917   8.756 -0.1949 -0.2459 -0.0344
48539W        W91555   9.693  28.078   1.565 -0.0524 -0.0714  0.0312
48540W        W91556  17.676  17.086  28.741 -0.2132  0.2674 -0.1520
48541W        W91557  24.125   6.366   7.651 -0.0760  0.2526  0.1380
48542W        W91558  32.668  28.050   3.856  0.2874 -0.0632 -0.4452
48543W        W91559  10.252  24.267   6.685 -0.2063  0.2351  0.1944
48544W        W91560  34.446   3.260   5.085 -0.1245 -0.1233  0.0044
48545W        W91561  17.499  22.093  26.578 -0.0164 -0.2196  0.1360
48546W        W91562  31.747  21.104  27.680 -0.0469  0.2955  0.0270
48547W        W91563  18.013  16.224  18.614  0.0137 -0.0066  0.2279
48548W        W91564  23.535  29.621   9.945  0.0449  0.2646 -0.0723
48549W        W91565   7.260  33.842   6.784  0.0518  0.2011  0.0410
48550W        W91566  10.618   6.147   9.226  0.3325 -0.1083 -0.1665
48551W        W91567  21.648  21.581  28.096 -0.0695 -0.1123  0.0599
48552W        W91568  31.550   1.772   7.346  0.0098 -0.0229 -0.0386
48553W        W91569  17.471   8.184  26.602  0.1273 -0.3176 -0.0973
48554W        W91570  25.252  22.539  10.400  0.2257 -0.2413 -0.2698
48555W        W91571  28.488   5.512   3.946 -0.0753 -0.1561  0.5045
48556W        W91572  33.992   1.208  24.137 -0.1232 -0.0511  0.0540
48557W        W91573  29.348  22.020   4.017  0.1398  0.0832  0.1217
48558W        W91574  27.335  20.763  21.063 -0.0073  0.0885 -0.3261
48559W        W91575  25.519  23.527  10.177 -0.1139  0.1526 -0.1647
48560W        W91576  25.832  26.983   4.214  0.0325 -0.1286  0.2374
48561W        W91577  23.768  27.851  17.302  0.1425  0.0587  0.2871
48562W        W91578  30.816  19.697   2.642 -0.1076 -0.2361  0.0082
48563W        W91579  28.864  33.133   7.142 -0.1849  0.2170  0.0988
48564W        W91580  28.242  30.104   2.119 -0.0175 -0.2538 -0.2750
48565W        W91581  11.992   6.795   1.018  0.0607  0.2513  0.1107
48566W        W91582  29.567   5.589   8.871 -0.0527 -0.0456 -0.2510
48567W        W91583  23.010  26.295   5.254  0.1257  0.0459 -0.1800
48568W        W91584  32.955  26.642   6.932 -0.1133  0.0598 -0.0850
48569W        W91585  28.834  31.152   8.077  0.1349  0.0017 -0.2205
48570W        W91586  11.816  28.459  18.100 -0.0784 -0.5863 -0.0061
48571W        W91587  28.374  12.250  22.981  0.3159 -0.0590 -0.3387
48572W        W91588  33.745  32.361   7.541 -0.1742  0.0194 -0.4866
48573W        W91589  25.068  31.710  18.269 -0.1850  0.1171 -0.0190
48574W        W91590  33.908  21.733   4.135  0.1116 -0.0692  0.2425
48575W        W91591  21.649  33.264   7.323  0.1733 -0.0109  0.0351
48576W        W91592  28.815  33.670  11.260 -0.0366  0.0265 -0.1057
48577W        W91593  26.301  34.036  27.968 -0.1879 -0.3400  0.1529
48578W        W91594   0.613  10.870   0.770  0.0696 -0.1838  0.1703
48579W        W91595  31.012  15.970   6.396 -0.0288  0.0380 -0.1298
48580W        W91596  15.199  26.759  27.365  0.1463 -0.1120 -0.0825
48581W        W91597  22.794  32.579  17.909 -0.1742 -0.2098 -0.1826
48582W        W91598  28.205  17.425  17.369 -0.1419  0.2917  0.2018
48583W        W91599   6.777  20.304   8.293  0.1099 -0.0811  0.0810
48584W        W91600   0.561   3.178   1.529 -0.1271 -0.2966  0.1555
48585W        W91601   2.212  30.189   8.612 -0.0954  0.1006  0.2478
48586W        W91602  33.678   6.667   8.983 -0.0242  0.0062 -0.3389
48587W        W91603  19.341  21.130  17.111 -0.1153 -0.2222 -0.1740
48588W        W91604  26.549  19.842  28.121  0.3052  0.0321  0.0551
48589W        W91605  22.425  17.737   9.078 -0.3539  0.1440  0.1034
48590W        W91606  16.276  20.020   2.108  0.0959 -0.2959  0.2421
48591W        W91607  32.658  18.563   9.303 -0.2794  0.0022  0.2210
48592W        W91608   7.828  15.164   9.187 -0.3097 -0.4542 -0.3103
48593W        W91609   2.720   0.330  26.754 -0.0483  0.0378  0.0154
48594W        W91610  24.221  30.487  10.254  0.1441 -0.0975  0.0875
48595W        W91611  32.838  28.583  11.415 -0.0125  0.1861  0.1949
48596W        W91612  32.332  10.511   4.482 -0.1630  0.0247  0.1723
48597W        W91613   4.027  19.738  21.415  0.0537  0.2914 -0.0546
48598W        W91614   2.791  12.311  24.685 -0.2503  0.2371 -0.0937
48599W        W91615  17.221  30.577  10.001  0.0819  0.1148 -0.0022
48600W        W91616  21.013  15.630  28.761 -0.0634  0.0662 -0.1336
48601W        W91617  28.540   3.742   7.360 -0.1846  0.2417 -0.1495
48602W        W91618  33.817  31.818   6.706 -0.1559 -0.0437 -0.1887
48603W        W91619  20.238  20.209   5.921  0.1563  0.0148 -0.0312
48604W        W91620   2.489   0.437  25.291  0.0130 -0.1849  0.0709
48605W        W91621  18.109   4.168  28.513 -0.0552 -0.1661 -0.3277
48606W        W91622  28.364  13.727  20.332 -0.2324  0.0294  0.2049
48607W        W91623   4.639  14.867   0.481 -0.1231 -0.1519 -0.1567
48608W        W91624  27.019  22.177  23.555  0.0743  0.1068 -0.0631
48609W        W91625   9.234  27.930  26.976  0.1989  0.2003 -0.0568
48610W        W91626   6.507   9.183  28.818  0.0175  0.1659 -0.0826
48611W        W91627   2.018  22.529  28.799  0.1137 -0.2692 -0.2455
48612W        W91628  22.486   7.333  29.052  0.1201  0.1527  0.0262
48613W        W91629   2.461  23.099   6.912 -0.0555  0.3319 -0.2534
48614W        W91630  23.373   8.267  27.002  0.2401 -0.0823  0.1602
48615W        W91631   5.615  30.067  28.510 -0.0283  0.0053  0.0874
48616W        W91632  29.584  30.698   9.348  0.0791  0.1889  0.1945
48617W        W91633  25.422  15.831   8.731  0.3799  0.1011 -0.0337
48618W        W91634   6.297  32.086   8.616 -0.0719  0.0541 -0.2561
48619W        W91635   6.845  27.305   4.407 -0.2549 -0.0018  0.1693
48620W        W91636  19.277  28.160  29.040  0.0296  0.3756  0.1262
48621W        W91637   8.707  32.262   2.160  0.0558 -0.0029  0.0596
48622W        W91638  19.293  27.003   7.169 -0.0182 -0.0880 -0.2033
48623W        W91639   1.242  24.991   5.445  0.1061  0.2033  0.0578
48624W        W91640  31.044  15.660   7.897 -0.0217 -0.0464  0.1936
48625W        W91641  15.108  29.262   8.594 -0.1345  0.2203  0.1327
48626W        W91642  21.249   1.161   9.784  0.2097  0.1537 -0.1863
48627W        W91643   7.283  33.982   7.895 -0.0244  0.1094 -0.0867
48628W        W91644  23.377   8.743  24.488 -0.0814 -0.0319 -0.2034
48629W        W91645  12.323  19.549  14.669  0.1349  0.0754 -0.1214
48630W        W91646   2.831  17.046   3.480  0.0885 -0.0422 -0.2972
48631W        W91647  23.367  27.907  29.145  0.1616  0.0834 -0.1361
48632W        W91648  31.864   0.862  25.146  0.0238 -0.1067 -0.0509
48633W        W91649  33.567  19.155  10.140 -0.3862  0.1328 -0.1328
48634W        W91650  27.130  25.195   9.379  0.2342 -0.2224 -0.2581
48635W        W91651  14.863  15.402  15.477  0.3749  0.0046 -0.0767
48636W        W91652  34.677  34.559   8.850 -0.2003 -0.3394 -0.1350
48637W        W91653   5.417  22.539   4.683  0.3344 -0.0161  0.1949
48638W        W91654  32.745  28.886  27.192 -0.2864  0.1174 -0.1592
48639W        W91655  33.862  27.212  20.698 -0.1563  0.1872  0.1529
48640W        W91656  17.339  10.314   4.952  0.1334 -0.0917 -0.0595
48641W        W91657  19.628  30.487   5.613  0.0519 -0.1063  0.1697
48642W        W91658   2.482   6.010   5.775  0.0777  0.1234  0.2350
48643W        W91659  27.599   4.529   7.275  0.0138  0.0148  0.0585
48644W        W91660  24.428  15.275  27.066 -0.0880 -0.1237 -0.0510
48645W        W91661  16.634  32.608  27.157  0.1703  0.3301 -0.0716
48646W        W91662  21.422  27.209   5.196 -0.3377 -0.0691 -0.0155
48647W        W91663  30.455  13.203   5.168  0.1895  0.2451 -0.0560
48648W        W91664  23.336  23.271  28.217 -0.0481  0.0430 -0.1223
48649W        W91665   8.453  10.339   0.192  0.0408 -0.0294 -0.3342
48650W        W91666  22.260  21.446   1.678 -0.1490 -0.2311  0.2406
48651W        W91667   1.968   9.017  28.525 -0.0082  0.0342 -0.3207
48652W        W91668  11.087  15.016   5.738 -0.3973 -0.0411 -0.2335
48653W        W91669  11.826  27.842  27.296 -0.1438 -0.0363 -0.0270
48654W        W91670   5.508  14.985   7.025 -0.0059  0.0353  0.1288
48655W        W91671  19.774   0.428  29.117  0.0551 -0.2544  0.2039
48656W        W91672   9.229  16.001  27.103 -0.0617  0.0964  0.0113
48657W        W91673   6.351  32.237   0.769 -0.1615 -0.0438 -0.2474
48658W        W91674  32.966  22.390  14.649  0.1661  0.0450 -0.0930
48659W        W91675  31.651   8.645  24.935  0.2827  0.2603 -0.2142
48660W        W91676  21.590  34.445   3.356 -0.1011 -0.0174 -0.1367
48661W        W91677  25.984  21.234   7.139 -0.2926  0.1449 -0.2424
48662W        W91678  19.579  28.972   7.407  0.1850 -0.0541  0.1435
48663W        W91679  30.378  14.850   7.138  0.0333  0.0056  0.0860
48664W        W91680  30.981  24.292   3.621  0.0657 -0.2630 -0.2408
48665W        W91681  11.113   4.940   5.595  0.4843 -0.1822 -0.3210
48666W        W91682   8.508  16.736   4.419 -0.4186 -0.0143 -0.1582
48667W        W91683  18.382  27.039   4.220 -0.0127 -0.1539 -0.0682
48668W        W91684  28.955  33.135  28.432  0.1496 -0.2123  0.1623
48669W        W91685  18.297  15.151   5.720  0.1252 -0.1740 -0.2254
48670W        W91686   2.725  30.398   8.314 -0.0137 -0.0331  0.3149
48671W        W91687   5.519  24.429  28.566 -0.2908  0.1672  0.0195
48672W        W91688  29.310  29.034   0.199 -0.0287 -0.0686  0.0566
48673W        W91689  19.779  22.103   4.420 -0.2321 -0.1194 -0.3160
48674W        W91690  11.906  31.813   9.269 -0.0090 -0.1862 -0.3374
48675W        W91691   2.358   1.120   4.515  0.0790  0.1295 -0.2845
48676W        W91692  29.257  21.433  10.981 -0.3831  0.0571  0.1691
48677W        W91693   9.971  26.774  15.623 -0.2809  0.1634 -0.5676
48678W        W91694  12.506  19.512   4.401  0.2342 -0.4082  0.2395
48679W        W91695  22.265  25.167   5.897 -0.0300 -0.1728 -0.4174
48680W        W91696   0.315  23.751   6.963  0.0589  0.0845  0.0308
48681W        W91697  28.169  26.783   0.042  0.1233 -0.0961 -0.1624
48682W        W91698  25.621  30.635   7.882 -0.1906 -0.1407 -0.1691
48683W        W91699  31.070  17.823  24.958 -0.1396 -0.0722 -0.2140
48684W        W91700  25.567  31.849   7.681 -0.0330 -0.0512 -0.1416
48685W        W91701   1.527  19.284   7.817 -0.1376  0.1942 -0.0588
48686W        W91702  12.461  10.258  25.422  0.1066 -0.0996 -0.2913
48687W        W91703   3.890  21.302  27.362 -0.3390 -0.2607  0.0959
48688W        W91704   2.404   5.744  20.784  0.0480  0.0550  0.0835
48689W        W91705  11.859  27.879   0.878 -0.0276 -0.0168 -0.1912
48690W        W91706   5.553   5.806   0.286  0.2304  0.0194 -0.2949
48691W        W91707   7.061  31.051   2.149 -0.1277 -0.2360 -0.2743
48692W        W91708   4.138  18.360  29.016 -0.2033  0.1255  0.2039
48693W        W91709   9.056   0.199   5.231  0.0084  0.1164 -0.1510
48694W        W91710  15.283  29.591   5.483  0.1631  0.1371 -0.0680
48695W        W91711   1.405  28.378   7.538 -0.0356 -0.0870 -0.2605
48696W        W91712  32.263  21.334   8.756  0.0219  0.3671 -0.1913
48697W        W91713  18.820   2.743   4.358  0.1066  0.2177 -0.2625
48698W        W91714  27.045   0.258   0.877 -0.1918 -0.1497  0.1564
48699W        W91715  20.799  26.213  22.266 -0.1913 -0.0355 -0.4968
48700W        W91716  10.208  27.461   3.833 -0.0901  0.2297 -0.1159
48701W        W91717  15.448  16.050   2.500  0.1723 -0.2872  0.0257
48702W        W91718   4.339   2.847  29.237 -0.0455  0.2807  0.2864
48703W        W91719  29.610  28.132   2.773  0.1066 -0.0456  0.1078
48704W        W91720  12.415  24.227   1.817 -0.1302  0.0079  0.1309
48705W        W91721  13.984  31.614   7.394  0.2286  0.0472  0.4015
48706W        W91722  25.609  31.749   3.435  0.2011 -0.0945 -0.1545
48707W        W91723  28.120  17.036   7.769 -0.1159 -0.2496 -0.2837
48708W        W91724   0.238  31.564   5.206  0.4939  0.0378  0.1009
48709W        W91725  21.926  28.575   6.400 -0.1167  0.0189 -0.1385
48710W        W91726  21.219   4.559  23.742 -0.2119  0.2550 -0.2029
48711W        W91727   1.686  18.490  27.018 -0.2581  0.0489 -0.1055
48712W        W91728  28.754   0.593  10.640  0.1724  0.1452  0.0167
48713W        W91729  14.339  17.432   7.312 -0.2311  0.1324 -0.2380
48714W        W91730  30.667  21.078   5.975  0.0017  0.0274 -0.0562
48715W        W91731  31.128  28.190   0.415 -0.0494 -0.0916  0.0868
48716W        W91732  29.168   0.463   2.604 -0.0533 -0.0863  0.3888
48717W        W91733  18.454  19.585  14.481  0.1642 -0.0763 -0.0982
48718W        W91734  27.829  26.341   0.546 -0.4430 -0.0636 -0.0484
48719W        W91735  16.037  25.224   2.382  0.3045 -0.0398 -0.2232
48720W        W91736  30.124  28.099  10.544 -0.3298 -0.1067 -0.0542
48721W        W91737   1.849  22.240  28.418  0.3749 -0.2321 -0.1785
48722W        W91738  14.294   2.302  26.129  0.1180 -0.2768 -0.2713
48723W        W91739  26.710  28.123   7.727 -0.0197  0.3315  0.2950
48724W        W91740  25.121   2.347  10.772 -0.3682  0.3955 -0.3848
48725W        W91741  30.526  25.838  29.099  0.0954 -0.2089  0.2553
48726W        W91742  20.959  20.658  26.953 -0.1511 -0.1682 -0.1699
48727W        W91743  21.334  20.631   0.519  0.0498 -0.0515 -0.1067
48728W        W91744  13.126  26.568   4.465 -0.0058 -0.2570 -0.0562
48729W        W91745  25.547  31.868  24.624 -0.1495 -0.1551 -0.1602
48730W        W91746  30.220  17.461   3.033 -0.1519  0.1152 -0.1546
48731W        W91747  19.180  16.493   6.331  0.2725  0.0672  0.0277
48732W        W91748  20.145  12.525   2.038 -0.3353  0.2738 -0.1096
48733W        W91749  23.086  14.540  19.387 -0.2059 -0.2928 -0.2768
48734W        W91750  22.368   1.862   0.830 -0.0334 -0.0302  0.1670
48735W        W91751   0.335   3.325   6.308 -0.1342  0.1833  0.2355
48736W        W91752  26.672   2.430   4.612 -0.0328  0.1859  0.2504
48737W        W91753  29.779   4.230  26.635  0.0391  0.1222  0.3565
48738W        W91754  33.881   1.094   7.964 -0.0051  0.2693  0.0027
48739W        W91755   8.821  32.206   8.183  0.0321 -0.1014 -0.1154
48740W        W91756  24.089  26.344  16.452  0.2545  0.0307  0.2075
48741W        W91757   3.516  21.241   5.663  0.0466  0.0217  0.2395
48742W        W91758   3.579  19.908   4.026  0.0806  0.2127  0.2081
48743W        W91759  19.350  27.793   3.931  0.0902  0.0422 -0.1416
48744W        W91760  27.870   1.655  25.446 -0.3179 -0.0964 -0.1291
48745W        W91761  10.833  10.981  28.546 -0.2108 -0.1895  0.1849
48746W        W91762  32.249  20.547   6.802  0.1806 -0.1219 -0.0021
48747W        W91763  17.397  18.277  25.455  0.2707 -0.2499 -0.0610
48748W        W91764  27.109  16.945  22.555 -0.0694  0.2280 -0.1158
48749W        W91765   6.409  27.982   2.205 -0.0458 -0.1011  0.2798
48750W        W91766   6.581  13.611  19.809 -0.3132 -0.2127  0.2999
48751W        W91767  26.610  33.440   5.327 -0.3127 -0.0903 -0.1117
48752W        W91768  26.070   4.454   8.394 -0.3322  0.0369 -0.0395
48753W        W91769  29.570  33.899   2.896  0.1133  0.6798  0.0135
48754W        W91770  31.257  29.596  10.598  0.2062 -0.0486  0.0698
48755W        W91771  28.687   7.616  20.519 -0.3726 -0.0816 -0.2236
48756W        W91772  25.222   7.874   0.009  0.1277 -0.2880  0.0727
48757W        W91773   7.505  16.864   1.584  0.1830 -0.1370 -0.0567
48758W        W91774  18.685  30.431   7.135 -0.1260  0.2674  0.0153
48759W        W91775   8.023   5.700   0.407  0.4988  0.3863 -0.0889
48760W        W91776  28.573  32.510   2.175  0.0557  0.2868  0.2697
48761W        W91777  27.576  20.831   4.063 -0.4212  0.0680 -0.1454
48762W        W91778  28.094  18.415   7.653 -0.0950 -0.0001 -0.0617
48763W        W91779  10.941  27.461  10.049 -0.1795  0.1669  0.1693
48764W        W91780  20.726   9.104   1.714 -0.1450 -0.0453 -0.1725
48765W        W91781  27.382  19.181   5.860  0.0639 -0.0743 -0.0119
48766W        W91782  23.364  21.115   6.254 -0.0398  0.3231  0.0531
48767W        W91783  30.828  18.609   8.523 -0.0137  0.0069  0.0595
48768W        W91784  26.483  32.684  23.812  0.0393  0.0421 -0.3682
48769W        W91785   4.060  23.672  28.092  0.1772  0.0433  0.0591
48770W        W91786  23.174  16.162   6.908  0.0508  0.0458  0.3110
48771W        W91787  25.886  11.974  18.415  0.1515 -0.2171 -0.1431
48772W        W91788  10.628  20.186   8.810  0.1336  0.1307  0.1935
48773W        W91789  25.712  24.334  27.425 -0.0580  0.2147 -0.2072
48774W        W91790  25.722  24.464  23.469  0.4044 -0.0881  0.0392
48775W        W91791  20.609  26.633  26.583 -0.1387 -0.0471 -0.1172
48776W        W91792   3.748  33.387  24.822 -0.0882  0.0055 -0.1741
48777W        W91793   0.962   0.797   5.266  0.0856  0.2125 -0.1761
48778W        W91794  28.972  30.825   4.352 -0.1082 -0.1242 -0.0772
48779W        W91795  24.216  18.025  14.156  0.0311  0.0135 -0.1252
48780W        W91796  34.743  21.328   0.693  0.1253  0.0245 -0.0741
48781W        W91797  28.608  20.041   7.841  0.5175 -0.1063  0.0070
48782W        W91798  23.655  10.961   8.063 -0.0472 -0.0144  0.0511
48783W        W91799  18.141  33.164  22.241 -0.1754  0.1818 -0.0188
48784W        W91800  27.483  28.885  18.855 -0.0064  0.0637  0.0911
48785W        W91801  14.843   3.833  28.737 -0.2320 -0.2066 -0.0404
48786W        W91802  31.760  29.955   3.855 -0.0751 -0.0437 -0.1590
48787W        W91803  21.639  29.208  15.095  0.0465  0.0226 -0.0761
48788W        W91804  31.495   7.523   3.116 -0.2281 -0.2491  0.1523
48789W        W91805  24.568  30.136  10.305  0.0674  0.0238 -0.1917
48790W        W91806  27.960  24.405   4.345  0.0194 -0.4545 -0.0205
48791W        W91807  33.498  26.391   7.869  0.1528 -0.1169 -0.1871
48792W        W91808  11.016  15.449  18.095  0.0350  0.1830  0.0195
48793W        W91809   4.590  23.985  27.732  0.0623  0.1815 -0.2061
48794W        W91810  21.463  19.771   7.667  0.3216 -0.2026 -0.4030
48795W        W91811  26.672  16.439   9.156  0.0594 -0.1122  0.0935
48796W        W91812  23.198  30.526   8.904 -0.3394 -0.1740 -0.0368
48797W        W91813  28.315  32.091  23.251  0.2049 -0.2096 -0.1878
48798W        W91814  30.821  14.255   2.585  0.3022  0.1335 -0.0249
48799W        W91815  21.334  11.979   1.484 -0.2688 -0.0662 -0.0114
48800W        W91816   2.809   1.736   2.025  0.2368 -0.1891  0.1287
48801W        W91817   0.989  24.557   0.788  0.0463 -0.1344 -0.1541
48802W        W91818  34.253   4.918  16.059  0.3821 -0.0162 -0.0195
48803W        W91819  31.460  33.518  28.107  0.4474 -0.0977  0.0258
48804W        W91820   4.926  19.702   2.266 -0.1543 -0.2402  0.1659
48805W        W91821   8.478  12.863   5.725  0.0430 -0.1727  0.0779
48806W        W91822  22.376  16.057   6.219  0.0082  0.1912 -0.2296
48807W        W91823  24.292  33.670   3.376  0.1894  0.3284 -0.0675
48808W        W91824  29.937  24.650  22.337  0.1203  0.0706  0.1801
48809W        W91825  29.377  29.569  18.913  0.1904 -0.1431 -0.2113
48810W        W91826  23.152  30.020   8.999 -0.0786  0.1338  0.5771
48811W        W91827  21.012  30.853  21.488  0.3566 -0.0286  0.0037
48812W        W91828  26.177  31.054   8.668  0.0550  0.0832 -0.0100
48813W        W91829  26.216  24.283   5.552 -0.1431 -0.2128 -0.0715
48814W        W91830  24.008   1.900  28.816 -0.1202 -0.3034 -0.1114
48815W        W91831  25.432  23.812   9.411 -0.0084  0.0614  0.5240
48816W        W91832  32.084   7.997   6.608  0.1639  0.0281  0.6010
48817W        W91833  31.032   2.121   6.034 -0.0942 -0.2137 -0.1311
48818W        W91834  26.810  30.367   0.450 -0.0734  0.2632 -0.1163
48819W        W91835   4.417   3.884  24.859 -0.2184  0.0151  0.0317
48820W        W91836  34.710  29.755   8.799 -0.0263  0.0317 -0.1690
48821W        W91837  32.737  14.010   9.441  0.0476  0.1529 -0.2420
48822W        W91838   3.431  34.123   8.866 -0.0849  0.2627  0.2840
48823W        W91839  27.451  16.104  18.527  0.0639 -0.0167  0.0966
48824W        W91840  31.269  24.761  20.214 -0.0913  0.1928 -0.1555
48825W        W91841  31.699  29.444  26.871  0.0598  0.0656  0.0793
48826W        W91842  12.784  23.762   6.491 -0.0653 -0.0817 -0.2663
48827W        W91843   4.487   3.567   5.963  0.1255  0.2418  0.0078
48828W        W91844  20.898  10.344  16.405  0.3073 -0.0774 -0.0535
48829W        W91845  20.205  28.423  28.999  0.1400  0.0021  0.0554
48830W        W91846  30.459  10.905   2.831  0.0494 -0.3126 -0.0784
48831W        W91847   2.334  19.067   8.317 -0.2200 -0.1391  0.3153
48832W        W91848   2.604  12.353   1.021  0.2591  0.0567  0.5199
48833W        W91849  31.101  28.743  29.115  0.0564 -0.0138  0.2330
48834W        W91850   2.720  29.141  23.866 -0.2378 -0.1895  0.3799
48835W        W91851  28.765  13.659   9.364 -0.2057 -0.2337 -0.1617
48836W        W91852  23.810  31.902  10.868  0.1178  0.2525 -0.1464
48837W        W91853  19.660  25.477  28.317  0.0614  0.0738 -0.0224
48838W        W91854  22.606  22.514   7.791  0.1580  0.4627 -0.3032
48839W        W91855  30.090  29.125   8.430  0.1909  0.3057  0.0147
48840W        W91856  33.896  33.788   5.797 -0.1331 -0.0687 -0.0044
48841W        W91857  23.856  17.737   0.456 -0.1158 -0.0327  0.2719
48842W        W91858   1.649   0.560   0.323 -0.1319 -0.1929 -0.1887
48843W        W91859  22.343  19.839   1.716  0.2015 -0.3747  0.0966
48844W        W91860  27.170  24.573   8.088  0.0227 -0.0308 -0.1539
48845W        W91861  23.074   0.601  10.549 -0.2476 -0.0221 -0.0858
48846W        W91862   8.495  22.448   7.211  0.1717  0.1824 -0.0828
48847W        W91863  17.172  20.822  24.650  0.2691  0.5234  0.4621
48848W        W91864  23.235  32.309   4.171  0.3566  0.1179  0.3632
48849W        W91865  19.917  25.174   4.851 -0.0706  0.0195  0.4055
48850W        W91866  20.516   4.307   8.970  0.3130  0.1366  0.2527
48851W        W91867  25.293  20.736   8.376 -0.0776  0.2679  0.0896
48852W        W91868  10.503   0.544  27.899 -0.1379 -0.0032 -0.0070
48853W        W91869  32.266  24.911   2.607 -0.0908  0.0375  0.0508
48854W        W91870  18.458  29.472  25.789  0.1646  0.1518 -0.0034
48855W        W91871  23.152  32.357   9.379 -0.0273  0.0248  0.2293
48856W        W91872  33.732  16.917  15.410  0.0118  0.0024  0.0173
48857W        W91873  33.473  15.998   6.849  0.1033 -0.1446 -0.0644
48858W        W91874  19.476  15.228   5.848 -0.0053  0.4122 -0.0186
48859W        W91875  33.851   3.462   2.706 -0.0827  0.2748  0.2566
48860W        W91876   7.371  20.460  22.696  0.1567 -0.3009 -0.1781
48861W        W91877  19.243  26.329   0.437  0.2346  0.0633  0.1490
48862W        W91878  22.695  28.288   6.692  0.1449 -0.4106  0.0809
48863W        W91879  26.855  20.089   4.553 -0.3388  0.1583  0.0473
48864W        W91880  30.853  29.175   2.347  0.1945  0.0720  0.0629
48865W        W91881  25.231  25.282   4.885  0.3624 -0.0155 -0.0315
48866W        W91882  33.080  28.123  18.716  0.1014 -0.1002  0.1492
48867W        W91883  32.722  24.240   9.971  0.0826 -0.2038 -0.2427
48868W        W91884  28.614  31.781   0.107  0.2304  0.1299 -0.0965
48869W        W91885   0.238  33.620   4.399 -0.1161 -0.0382  0.0152
48870W        W91886  20.771  27.391  24.715 -0.1044 -0.0716  0.1290
48871W        W91887  31.157  28.795   5.761  0.2781 -0.1142 -0.1860
48872W        W91888  29.731  33.501   9.124 -0.0630  0.1635 -0.3048
48873W        W91889  28.170  22.310  24.682  0.1955  0.1856  0.2591
48874W        W91890   1.017   4.549   3.109 -0.1852 -0.0689 -0.0638
48875W        W91891  30.570  27.801   2.823 -0.1017  0.1199 -0.0515
48876W        W91892  11.846  19.275   5.489  0.0407 -0.1016  0.1786
48877W        W91893  30.291  19.550  27.698  0.2327  0.3640 -0.1680
48878W        W91894  30.486  25.540   8.757  0.3040 -0.1631  0.0745
48879W        W91895   8.404  34.701   1.124  0.1269  0.0317  0.0863
48880W        W91896  18.104  24.254  26.681  0.1218 -0.6842 -0.3647
48881W        W91897   9.000  15.649   1.603 -0.1386 -0.0092 -0.3007
48882W        W91898  27.952  11.730   8.322  0.3389  0.2881 -0.1935
48883W        W91899   7.547  25.340  13.860 -0.0939  0.1865 -0.0508
48884W        W91900  28.478  23.792   7.580 -0.0503  0.3421 -0.1570
48885W        W91901  12.223  12.919   5.318 -0.0792 -0.0637  0.0156
48886W        W91902  24.264  32.405   3.874  0.2555 -0.0368 -0.2434
48887W        W91903  29.071  18.818   6.837  0.0363  0.0330  0.1771
48888W        W91904  27.084   1.338  11.196 -0.2161 -0.1468 -0.2462
48889W        W91905  27.829  19.669   4.932  0.1761  0.0336 -0.2170
48890W        W91906  20.015  28.311   2.299  0.1080  0.1201  0.4024
48891W        W91907  20.911  33.384   3.875  0.1818  0.2947  0.0445
48892W        W91908  20.218   4.890  10.547  0.1387  0.0888  0.2660
48893W        W91909  18.939  19.611   0.113 -0.1556  0.2541 -0.1492
48894W        W91910  26.205   7.327   4.183  0.1377  0.0852  0.1529
48895W        W91911   1.315  11.198   8.482 -0.0370 -0.0444  0.1408
48896W        W91912  29.460  14.849   2.533  0.0770  0.2695  0.2315
48897W        W91913  29.831   9.021  21.612  0.1331 -0.2044  0.0842
48898W        W91914  34.291  18.761  10.171  0.0560  0.3316  0.4143
48899W        W91915  31.009  12.214   5.194  0.0686  0.2032 -0.0869
48900W        W91916  34.570  27.996  20.042 -0.1359 -0.0173  0.2520
48901W        W91917  29.111  23.990  10.196  0.1117  0.0039 -0.0337
48902W        W91918  11.239  15.284   8.006 -0.1302 -0.1531 -0.2058
48903W        W91919   5.769  21.441   4.960  0.0667 -0.0837 -0.1173
48904W        W91920  28.596  17.893   6.789 -0.1886 -0.4852 -0.0171
48905W        W91921  25.099  27.849   7.277  0.1453 -0.0416 -0.1869
48906W        W91922  15.155  33.432   5.421 -0.0322  0.1402 -0.0678
48907W        W91923   5.823  31.164  26.182 -0.4269  0.2783  0.1844
48908W        W91924  25.777   8.506   3.385  0.4208  0.0404 -0.1622
48909W        W91925  33.378  18.676   9.197  0.0810 -0.1828  0.1899
48910W        W91926  17.256  28.237   4.864 -0.1007 -0.0086 -0.1941
48911W        W91927  22.909  22.595  22.616 -0.1498  0.0569  0.1377
48912W        W91928  12.907  14.663   6.198 -0.1040  0.2008  0.0386
48913W        W91929  33.862  14.303  23.552 -0.2959 -0.0308  0.1360
48914W        W91930  27.142  27.947   7.243  0.2592 -0.0166  0.0008
48915W        W91931  30.670  10.384   6.431  0.2887 -0.2068  0.1685
48916W        W91932  16.972  18.574  25.291  0.3044  0.0063  0.1993
48917W        W91933  28.220   2.581   8.200 -0.4216 -0.1595  0.1563
48918W        W91934  32.810  25.586  26.379 -0.0733  0.2287 -0.2346
48919W        W91935  27.998   3.504   2.266 -0.1096 -0.1133 -0.0088
48920W        W91936  29.257  33.866   6.958 -0.1199  0.1148 -0.2095
48921W        W91937  24.937  28.774   3.070 -0.1167  0.0086 -0.0978
48922W        W91938  14.841  27.937   6.202 -0.3668 -0.0250 -0.2404
48923W        W91939  26.893  20.898   3.778 -0.0098 -0.1240 -0.0994
48924W        W91940   3.812  22.857  25.917  0.1124  0.1616  0.1973
48925W        W91941  20.987  18.194   6.295 -0.2514  0.3333  0.0442
48926W        W91942  29.740   2.653  18.836  0.3250 -0.0902 -0.2354
48927W        W91943   3.127  31.211  20.622  0.1640  0.0084  0.1547
48928W        W91944  26.669  31.862   8.666  0.2186  0.2024  0.0493
48929W        W91945  26.578  31.362   8.724 -0.1332  0.1907 -0.2469
48930W        W91946  21.217   7.011   3.213  0.0114  0.0579  0.0224
48931W        W91947  21.599  30.555   7.897 -0.2309 -0.2415  0.0254
48932W        W91948  23.997  23.152   5.427 -0.3470 -0.0091 -0.0357
48933W        W91949   9.440  24.450  22.136 -0.1126 -0.1249 -0.0407
48934W        W91950   9.085  10.960  29.292 -0.0794  0.0007 -0.2804
48935W        W91951   5.370   1.663   4.023  0.2403 -0.0331  0.0526
48936W        W91952  18.897  26.205  22.510  0.1096  0.0147  0.2029
48937W        W91953   5.032  21.042   8.819 -0.0429 -0.1980  0.1129
48938W        W91954  34.412  25.389  26.562  0.0690  0.0272 -0.0906
48939W        W91955  34.230  23.073   1.608 -0.0315 -0.0030 -0.2825
48940W        W91956  25.036  24.548   2.244  0.0210  0.0649 -0.1799
48941W        W91957  29.091  19.724   4.302 -0.0760  0.1986  0.0897
48942W        W91958  26.641  18.064   0.481 -0.0139 -0.2041 -0.2191
48943W        W91959  34.528  17.254   8.594  0.1645 -0.3308 -0.2506
48944W        W91960  12.340   5.195   6.833 -0.2551  0.1372  0.1504
48945W        W91961  10.403  33.643   8.986  0.2152 -0.3456 -0.2475
48946W        W91962  22.164  23.629   5.184  0.0971  0.0661  0.1527
48947W        W91963  22.512  21.991   6.456 -0.4051  0.1449 -0.2159
48948W        W91964  12.910  12.745   7.724 -0.0474 -0.1204  0.1738
48949W        W91965   2.251   0.850  10.363  0.0006  0.0313  0.2775
48950W        W91966  30.914  21.654   6.149  0.1992  0.3837  0.1611
48951W        W91967  15.935   1.114  22.134  0.2357  0.0582  0.0440
48952W        W91968   2.941  28.750   4.829  0.0950 -0.0510 -0.1765
48953W        W91969  30.900  17.913   0.882 -0.1385  0.2445  0.1693
48954W        W91970   3.921   2.702  27.851 -0.0892  0.1927  0.3917
48955W        W91971   1.645  13.076   3.775  0.1672  0.2884  0.0466
48956W        W91972  12.159   3.660   7.589  0.0718 -0.0185 -0.2025
48957W        W91973  19.773   3.029   6.338  0.1439 -0.0408  0.1246
48958W        W91974   4.790  17.921   6.315 -0.2198 -0.2446 -0.0906
48959W        W91975   1.612  10.204  28.073 -0.0725 -0.3411 -0.1151
48960W        W91976  12.133   9.507  21.463 -0.2720 -0.0399  0.1641
48961W        W91977  13.061  32.663   3.362 -0.2699 -0.3048 -0.0288
48962W        W91978  15.877   1.927  27.434  0.4196 -0.1773  0.1557
48963W        W91979   5.328  27.862   7.039 -0.1299 -0.1427  0.0509
48964W        W91980  13.370  31.854  24.885  0.0341 -0.3378 -0.2949
48965W        W91981   2.612  27.360  10.035  0.0143 -0.4733 -0.1486
48966W        W91982  28.173  23.978   9.136  0.0613 -0.1715  0.0500
48967W        W91983  31.239  13.737   0.980  0.1506  0.0253  0.1479
48968W        W91984  29.230  10.965   7.235 -0.2950 -0.0673 -0.2656
48969W        W91985  22.188   1.081   9.015 -0.0012 -0.0543  0.2290
48970W        W91986  33.391  27.230   8.316 -0.0779  0.0545 -0.0992
48971W        W91987  31.763  27.535  23.989 -0.1569 -0.0517  0.1571
48972W        W91988  22.622  33.756   7.239  0.0631 -0.1098  0.0475
48973W        W91989   3.405  28.986   6.146 -0.1362 -0.2953  0.1617
48974W        W91990  16.919  30.731   6.796  0.0169  0.0913  0.0326
48975W        W91991  30.635  26.713   9.982  0.0754  0.3225 -0.0359
48976W        W91992  12.055  22.587  27.456 -0.4153  0.1385 -0.1423
48977W        W91993  24.539  25.727   3.064 -0.1562 -0.0256 -0.1574
48978W        W91994  30.655  21.678   1.104  0.0854 -0.0957  0.1699
48979W        W91995   5.591  23.368   5.544  0.3620 -0.2199  0.1830
48980W        W91996  17.537  24.139  19.800 -0.0090 -0.2474  0.3177
48981W        W91997   3.028  21.409   5.547 -0.1204  0.1753  0.0868
48982W        W91998   7.333  13.028   7.043  0.0287 -0.1131  0.0715
48983W        W91999  16.233  25.546   6.647  0.1066 -0.0403 -0.0052
48984W        W92000   4.261  32.059   5.777 -0.0095  0.0655 -0.3954
48985W        W92001  29.456  19.271  26.765  0.0841  0.2520 -0.0282
48986W        W92002  17.280  20.438  25.465  0.0635  0.0473 -0.0671
48987W        W92003  25.531  30.575  24.122  0.0648 -0.1024 -0.1522
48988W        W92004  32.436  30.355  27.337  0.1897  0.1243 -0.0454
48989W        W92005  19.669   5.796  27.990  0.2183 -0.1512  0.0341
48990W        W92006   6.463  30.440   0.044 -0.0009 -0.1773 -0.0199
48991W        W92007  14.507  25.488   3.335  0.0894  0.0999  0.1785
48992W        W92008  10.571  32.119  26.944  0.0568 -0.0439  0.3664
48993W        W92009  26.523  33.894   4.997 -0.2075  0.3577  0.3680
48994W        W92010   9.153   6.369   9.067  0.0233  0.1361  0.0349
48995W        W92011  13.675   2.802   4.459 -0.0883 -0.2331 -0.2982
48996W        W92012  12.555   7.533   7.296  0.2656 -0.1952 -0.2301
48997W        W92013  30.950  16.344   3.707  0.1524  0.1628 -0.3260
48998W        W92014  21.589  22.557   4.448 -0.0265 -0.5919 -0.1602
48999W        W92015   1.604  31.603   4.188 -0.1866  0.0929  0.0410
49000W        W92016  33.301  22.516   7.633  0.3254  0.2620 -0.1251
49001W        W92017  28.909  30.351   9.251  0.0162  0.0697  0.1590
49002W        W92018  27.564  19.352   6.423 -0.1888  0.2371  0.0003
49003W        W92019  31.207  32.466   3.083  0.2765  0.0112  0.3149
49004W        W92020   4.266  29.136  27.154 -0.0281 -0.0321 -0.2750
49005W        W92021  31.227  23.913  21.220  0.1908  0.0144 -0.0915
49006W        W92022   2.403  26.027   1.951  0.2666  0.2776  0.0778
49007W        W92023  24.862  29.212  22.179 -0.0011 -0.1450 -0.1966
49008W        W92024  29.135  20.841   6.364 -0.2919  0.0343  0.0882
49009W        W92025  27.671  31.395  24.486  0.0370 -0.2383  0.1901
49010W        W92026  34.586  31.973   3.338 -0.2192  0.1931  0.1146
49011W        W92027   5.638  17.841   5.039  0.0966  0.0517  0.0241
49012W        W92028   2.719  27.473   0.693 -0.0971  0.1130  0.0314
49013W        W92029  17.186  33.481   6.790  0.2048  0.3246  0.1290
49014W        W92030   9.311  28.474   1.655  0.0254 -0.1716 -0.0267
49015W        W92031  34.472  16.351   2.989  0.2433  0.2657 -0.0958
49016W        W92032  22.832  11.880   6.563 -0.1299  0.0191 -0.0698
49017W        W92033   4.224  17.209   7.796 -0.1402  0.2085 -0.0368
49018W        W92034  28.995   6.874   2.569 -0.0887  0.1303  0.0995
49019W        W92035   7.061   6.115   6.670  0.2284  0.0898 -0.0654
49020W        W92036  29.687  30.406   5.993 -0.1638 -0.1225 -0.0824
49021W        W92037  13.999  14.384  20.110  0.0450  0.1311 -0.1355
49022W        W92038  27.730   4.166   9.943  0.0162  0.1860 -0.1050
49023W        W92039  19.363  26.440   6.318 -0.0180  0.1849 -0.1006
49024W        W92040  26.329  29.277   5.910 -0.0309 -0.0661  0.2867
49025W        W92041  25.924  33.282   9.747 -0.1190  0.1615  0.1420
49026W        W92042  21.151  19.400   5.545 -0.0098  0.3430  0.1321
49027W        W92043  12.910   2.787  25.887  0.1694  0.1596 -0.0774
49028W        W92044   7.450  17.739  29.117  0.2551  0.2024 -0.0688
49029W        W92045  27.096  31.085  10.126 -0.0129 -0.0033  0.1085
49030W        W92046  24.874  10.354   3.254 -0.1491 -0.0118  0.0762
49031W        W92047  15.440  12.342   3.386  0.1855 -0.3169 -0.1547
49032W        W92048   4.370  11.272   8.958  0.0484  0.0258 -0.2537
49033W        W92049   1.884  31.362  10.196  0.4169 -0.3153  0.1787
49034W        W92050  21.132  25.106  25.844 -0.1867  0.1375  0.0527
49035W        W92051  33.659  18.862   3.543  0.1207 -0.0358 -0.0727
49036W        W92052  27.489  24.796   3.083  0.1683  0.0332  0.0531
49037W        W92053   4.499  19.380   5.024 -0.1510 -0.0255  0.1253
49038W        W92054  13.862  14.097   7.012 -0.1328 -0.0023  0.2375
49039W        W92055  33.306   8.246   8.140 -0.0218 -0.1436 -0.1195
49040W        W92056   1.030  21.501   5.486 -0.2470 -0.3915 -0.0479
49041W        W92057  23.762  31.446   4.101  0.2222  0.0590  0.0768
49042W        W92058  18.525  15.577   6.456  0.1221  0.0337 -0.3445
49043W        W92059   1.451  28.796   4.325  0.0926 -0.2076  0.0424
49044W        W92060  24.402  23.207   1.317 -0.1564  0.0356  0.0405
49045W        W92061   6.225  29.353  15.285  0.0786 -0.0696 -0.1243
49046W        W92062  13.661  31.541   2.530  0.3350  0.4060 -0.0679
49047W        W92063  26.703  17.366   4.081 -0.0159  0.0777  0.2296
49048W        W92064   8.600  21.944   4.651 -0.0862  0.0613 -0.4058
49049W        W92065  26.788  29.947   7.090  0.1380  0.1267  0.1763
49050W        W92066  30.134  32.707   8.641  0.1277 -0.0535  0.0617
49051W        W92067  33.766   7.117   4.377 -0.1063  0.1604  0.2880
49052W        W92068   0.851  23.594  26.423  0.1052 -0.2159  0.1296
49053W        W92069  25.412  31.752  11.088  0.0529  0.0576 -0.3429
49054W        W92070  12.854  30.836   1.431  0.2360 -0.4055 -0.1919
49055W        W92071  31.774  20.919   3.311 -0.0464 -0.4836 -0.3681
49056W        W92072  15.630  30.050   3.646 -0.4678  0.0628 -0.0471
49057W        W92073   0.772  31.186   1.872  0.0614 -0.3930  0.1091
49058W        W92074   6.164  21.371   4.598  0.0828  0.2582 -0.0793
49059W        W92075  28.520  25.286   6.311 -0.3313  0.1069  0.0325
49060W        W92076   7.365   5.992   6.321  0.3276  0.1115 -0.1918
49061W        W92077  27.481  17.712   6.209 -0.0087  0.2533 -0.0266
49062W        W92078  26.376  19.853  28.593  0.2233  0.0820  0.0236
49063W        W92079  31.922  14.237  27.331  0.1967  0.0432 -0.1853
49064W        W92080  25.353   2.780   6.499 -0.1296 -0.0725 -0.2133
49065W        W92081  18.128   0.319   7.061 -0.1167 -0.0996  0.0054
49066W        W92082  14.467  32.831   6.714  0.1438  0.4923  0.2552
49067W        W92083  33.879  29.189   7.745  0.0630 -0.2383 -0.1151
49068W        W92084   9.686   3.379   6.412 -0.0517 -0.0631 -0.1899
49069W        W92085   5.765  34.553   7.815 -0.0333 -0.1808  0.1859
49070W        W92086  29.303  20.810   8.129 -0.1536  0.0033 -0.0375
49071W        W92087   3.606  21.887   9.152  0.2003 -0.0576  0.2445
49072W        W92088  11.061  10.499   5.464  0.0564  0.2453  0.0744
49073W        W92089   3.655  30.549   8.443 -0.1380 -0.0793  0.0804
49074W        W92090  25.263  15.201   3.143  0.4028  0.0401 -0.0656
49075W        W92091  22.914  20.202   0.046 -0.2041 -0.1204  0.0508
49076W        W92092  19.363  20.202   5.658 -0.0882 -0.1371 -0.0838
49077W        W92093  19.534  29.584  27.617 -0.2311 -0.3735 -0.1061
49078W        W92094  23.992  24.497   9.642  0.0207  0.2798 -0.1257
49079W        W92095   0.053  25.801   5.806  0.0843  0.3335 -0.2327
49080W        W92096  30.802  21.556   3.771 -0.0926  0.2301 -0.1317
49081W        W92097  21.805  24.288   1.343 -0.2094 -0.0782 -0.0382
49082W        W92098  33.170  23.180   1.409  0.1177 -0.0297 -0.1870
49083W        W92099  34.774  28.476  21.695 -0.2211 -0.3847  0.0654
49084W        W92100   3.969  21.436   9.337  0.3620 -0.2201  0.1428
49085W        W92101  23.426   4.361  10.085 -0.3408  0.3488  0.0415
49086W        W92102   6.720  23.140   9.562  0.1819  0.0971  0.0339
49087W        W92103  19.736  32.934  22.545 -0.1385 -0.3312  0.1881
49088W        W92104  20.077  28.279   6.222  0.0303 -0.1678 -0.1524
49089W        W92105  18.694  16.542   7.036  0.4591  0.0459 -0.0844
49090W        W92106  28.024  31.723   9.141 -0.1890 -0.1409  0.1741
49091W        W92107  29.607  24.535  26.264 -0.1603 -0.0143 -0.1583
49092W        W92108   2.083  13.848   6.460 -0.2146 -0.0951  0.1234
49093W        W92109  23.879  34.376   9.359 -0.0978  0.2542  0.2440
49094W        W92110   1.784  23.755  28.931 -0.3481 -0.1457  0.1785
49095W        W92111  32.988   1.949   3.599  0.0150  0.3361 -0.4764
49096W        W92112  11.580  34.114   0.172  0.0206  0.0941 -0.1201
49097W        W92113  34.769   4.728   7.254 -0.4860  0.0504 -0.1538
49098W        W92114  10.127  28.662   0.710 -0.0787 -0.2498 -0.0424
49099W        W92115  17.991  24.504   8.539 -0.3330  0.1058 -0.0838
49100W        W92116   6.870  32.593   9.823 -0.3104 -0.1334 -0.1097
49101W        W92117   6.094  19.975  28.291 -0.2078  0.1542 -0.0524
49102W        W92118  26.290   5.646   9.062  0.4323  0.1669  0.2706
49103W        W92119  30.480  15.767  24.656 -0.1470 -0.1799 -0.0777
49104W        W92120  34.328  18.856  25.302 -0.2153  0.2025  0.2829
49105W        W92121  28.169  27.576   0.539 -0.2542 -0.3629 -0.0456
49106W        W92122  26.569  30.966  25.120  0.1687  0.0727 -0.1341
49107W        W92123   4.842  27.545   3.822  0.2479 -0.1318  0.2679
49108W        W92124  24.490  31.473   6.782  0.1416  0.0946 -0.0148
49109W        W92125  18.500  26.706   5.098 -0.1013  0.1381 -0.1611
49110W        W92126   4.960  21.827  28.535  0.2168 -0.4802  0.1437
49111W        W92127  34.058  31.117   1.642 -0.2518 -0.2109 -0.1141
49112W        W92128  29.116   2.376  10.275  0.1951  0.0625 -0.1384
49113W        W92129  29.045  23.428   6.473  0.2008 -0.3338 -0.2299
49114W        W92130   1.224  31.564   2.744 -0.1575  0.2040  0.1183
49115W        W92131  31.832   5.961   1.959  0.1676 -0.0584 -0.1180
49116W        W92132  18.257  17.224   3.840 -0.1249 -0.3576 -0.2085
49117W        W92133  34.426  28.607   1.857  0.0901 -0.3653 -0.0251
49118W        W92134   0.982  33.938   5.347  0.0511  0.2328  0.2616
49119W        W92135  24.364  23.937   1.897 -0.1168 -0.1958 -0.0530
49120W        W92136   2.701  29.939   8.513  0.0095  0.1170  0.4212
49121W        W92137   1.826  31.572   6.818 -0.1739 -0.0525 -0.0451
49122W        W92138  26.651  24.079   1.535 -0.0027 -0.1651 -0.0186
49123W        W92139  25.681  16.241   8.664 -0.0865 -0.0485 -0.4012
49124W        W92140  19.718  26.777   0.187  0.2801  0.0513 -0.1500
49125W        W92141   6.825  29.484   1.031 -0.2338  0.3092 -0.0934
49126W        W92142  24.809  20.559   4.424 -0.1657  0.5909 -0.0390
49127W        W92143   1.747  21.263   5.298 -0.2407  0.2331 -0.1641
49128W        W92144  27.479  24.801   3.740  0.1714  0.0650 -0.1198
49129W        W92145  21.083   0.321   8.542  0.0380 -0.1928  0.2875
49130W        W92146  31.091  32.657   5.491 -0.1744  0.1480  0.1388
49131W        W92147   2.547  30.910   1.591 -0.4252  0.0237 -0.0037
49132W        W92148  28.155  22.333  24.134 -0.0315  0.0381 -0.1307
49133W        W92149  29.397  31.341  10.974  0.1561 -0.1686 -0.1046
49134W        W92150  16.005   1.251   5.465  0.0400  0.1084  0.0677
49135W        W92151  21.248   9.902   3.845 -0.0676  0.0695 -0.1771
49136W        W92152  16.512   5.336   6.367  0.2902  0.1651 -0.0314
49137W        W92153  13.566   2.470   5.450 -0.3501 -0.0477 -0.0111
49138W        W92154   0.147  33.972   1.746 -0.0268 -0.1712  0.0326
49139W        W92155  28.053   8.430   9.740  0.2056 -0.5014  0.1122
49140W        W92156  30.338  28.454   1.084 -0.1672 -0.0088 -0.0154
49141W        W92157  25.193  21.264  22.365 -0.2446 -0.2879 -0.1056
49142W        W92158   7.076  30.278   9.531  0.0428 -0.0606 -0.0378
49143W        W92159  13.322   0.473   6.176 -0.2621 -0.1524 -0.1663
49144W        W92160  31.651  18.516   9.150  0.0666 -0.1973 -0.0731
49145W        W92161   4.089  21.857   2.287 -0.3352 -0.1260  0.1259
49146W        W92162  10.174  29.751  26.236  0.3601 -0.0354 -0.1580
49147W        W92163  34.778  32.217   8.553  0.0189  0.2076 -0.5680
49148W        W92164  33.359  32.365  21.156 -0.0617 -0.0247 -0.0250
49149W        W92165   1.878  33.012   5.155  0.0155  0.0546  0.0634
49150W        W92166   8.880   3.901   9.677 -0.0232  0.0126  0.1848
49151W        W92167  26.232  26.800  15.951 -0.0013 -0.2980  0.2292
49152W        W92168  22.747  17.207   6.486  0.0183 -0.2890  0.0315
49153W        W92169  20.866  33.456   7.163 -0.2994 -0.0992  0.0145
49154W        W92170  32.586  11.318  27.364 -0.4446 -0.0075  0.1258
49155W        W92171  33.629  29.769   4.965 -0.3438 -0.0791 -0.2176
49156W        W92172  30.262   6.078  28.920 -0.2431  0.1501  0.0979
49157W        W92173  21.406  31.881   3.102  0.1491 -0.2964 -0.1862
49158W        W92174  18.348  33.658  22.385  0.0126 -0.0598 -0.0657
49159W        W92175  34.054   3.684   8.144  0.1644  0.0101 -0.1389
49160W        W92176  17.584  29.687  26.135 -0.2748  0.0826 -0.1918
49161W        W92177  29.960  24.290   6.607  0.0651  0.0212  0.0956
49162W        W92178   4.739  30.494   3.031  0.0689  0.0231 -0.3603
49163W        W92179  13.178  29.612  25.791 -0.1221 -0.0334 -0.1452
49164W        W92180  23.953  31.354  10.018 -0.1110  0.2170 -0.0601
49165W        W92181  20.590  31.907   8.994 -0.0036  0.0093 -0.0261
49166W        W92182   1.708   2.461   0.400  0.1854  0.2362  0.1403
49167W        W92183  28.165   6.799   8.190 -0.0333  0.0960 -0.2401
49168W        W92184   0.856  29.972   4.135 -0.1618  0.0007 -0.1068
49169W        W92185  32.126  25.535   5.112 -0.1594  0.1401  0.0517
49170W        W92186  24.069   4.878   3.691 -0.0246 -0.0119  0.0052
49171W        W92187  24.664  27.248   8.593 -0.4587  0.0323 -0.2156
49172W        W92188  29.794  19.876   9.756 -0.4113 -0.4592 -0.0152
49173W        W92189   4.224   6.075   9.358  0.2601  0.2873  0.0914
49174W        W92190  32.365  18.130  15.786  0.2889 -0.0215 -0.1987
49175W        W92191  20.629  29.673   3.426 -0.1578  0.0203 -0.3856
49176W        W92192  18.226   1.456   0.593 -0.3127 -0.1238  0.2735
49177W        W92193   2.701   3.780   3.147  0.1211  0.1373 -0.0818
49178W        W92194  16.343  32.373   8.214  0.0662  0.3683 -0.1648
49179W        W92195   9.961  11.808  17.342 -0.3555 -0.0583 -0.1090
49180W        W92196  29.073  34.774  23.568  0.1219 -0.2592  0.2151
49181W        W92197  30.694  10.407  19.196  0.3888 -0.2151 -0.1270
49182W        W92198  22.957  28.464  26.085 -0.0864  0.0450  0.0928
49183W        W92199  30.000  23.326  24.126 -0.5519  0.2222  0.1431
49184W        W92200  27.261  24.872  24.899  0.0852 -0.1082 -0.0347
49185W        W92201  24.186   3.741   6.729  0.0793  0.1169  0.0100
49186W        W92202  21.489  25.086  25.440  0.0350  0.2338 -0.0233
49187W        W92203  29.604  31.589   5.449 -0.2310  0.3058 -0.2044
49188W        W92204  25.139  19.250  24.512  0.0814  0.0862  0.1145
49189W        W92205  30.596   2.826   6.589 -0.4205  0.0728  0.1029
49190W        W92206  25.623   2.596   5.173 -0.0253 -0.1599 -0.0120
49191W        W92207   2.059   0.580  27.754 -0.0851 -0.4504 -0.1269
49192W        W92208  26.464  18.129  10.467 -0.3206  0.1747 -0.2551
49193W        W92209  24.116   2.330   1.115 -0.2347  0.0251 -0.1535
49194W        W92210  25.173  21.287   8.393  0.0478 -0.1972  0.0044
49195W        W92211  28.089   9.151   6.323 -0.0086  0.0458 -0.1550
49196W        W92212  14.892  34.141  10.296  0.0350 -0.0272  0.1048
49197W        W92213  28.991   6.872   8.517  0.1217  0.0774 -0.4404
49198W        W92214  32.977   2.513  23.409  0.2099 -0.0472 -0.1453
49199W        W92215  18.617  21.565  29.099 -0.0643  0.1708 -0.0579
49200W        W92216  23.249  31.946  10.246 -0.3171 -0.0271 -0.0797
49201W        W92217  30.173  21.043  25.947  0.0387  0.0073  0.0771
49202W        W92218  30.898   0.496   8.755 -0.2009  0.1050  0.0398
49203W        W92219  30.494   9.522  23.759 -0.0260  0.0805  0.1995
49204W        W92220  31.727  30.449  23.126 -0.1877 -0.2567  0.1311
49205W        W92221  10.303   7.039  22.494 -0.0628  0.0476 -0.1960
49206W        W92222   7.377  26.012  24.684 -0.3172 -0.2109  0.3009
49207W        W92223  21.563   6.318   0.437  0.1722 -0.0430  0.1761
49208W        W92224  13.528  24.511  19.977  0.1750  0.0354  0.0841
49209W        W92225  18.895  29.778  10.018  0.1208  0.0523  0.0294
49210W        W92226  16.695  13.304   1.360  0.0581 -0.2271 -0.1583
49211W        W92227   5.630   3.540   4.307 -0.0128  0.2564 -0.2827
49212W        W92228   4.570  24.982   8.147 -0.2314 -0.0461  0.2261
49213W        W92229  18.076   7.827  15.086  0.0044  0.5147  0.1848
49214W        W92230   3.278  21.341  26.406  0.2408  0.3418  0.0346
49215W        W92231  31.957   0.518   8.757  0.0008 -0.1117 -0.2084
49216W        W92232   3.674  30.767  27.655  0.3113  0.2649 -0.4075
49217W        W92233  21.861  27.532  11.074  0.1180 -0.4000  0.0679
49218W        W92234  27.732  28.946  10.548 -0.1078  0.0691 -0.1330
49219W        W92235  30.752   2.543  28.776 -0.0924  0.1433  0.2165
49220W        W92236  28.032  11.249  10.951  0.2846 -0.0395  0.0770
49221W        W92237  25.984   8.264   8.270 -0.0476  0.0270  0.4707
49222W        W92238   8.762  16.258  23.766 -0.0098 -0.0991 -0.1464
49223W        W92239  22.026   8.224  23.874 -0.2217 -0.0354  0.0545
49224W        W92240  27.203   6.354   8.254  0.1957  0.0833  0.1431
49225W        W92241   2.865   8.740  14.009  0.2135 -0.1378  0.1543
49226W        W92242   7.287   1.118   0.210 -0.0551 -0.1281  0.2281
49227W        W92243  29.450  30.535   2.934  0.2428  0.0039 -0.2866
49228W        W92244   0.720  31.361   1.105 -0.0909 -0.1481  0.1312
49229W        W92245  17.741  21.355   2.263 -0.0071 -0.0072 -0.1144
49230W        W92246  16.625  29.246  10.097 -0.1225 -0.1427  0.4148
49231W        W92247  30.043  30.978   3.616  0.4015  0.0967 -0.2210
49232W        W92248  30.911  15.750  19.728  0.1999  0.1591  0.0304
49233W        W92249  19.105  31.521  28.604 -0.0134 -0.2669 -0.3027
49234W        W92250  30.362  20.532  18.225  0.0200  0.2572  0.2821
49235W        W92251   8.643   6.263  10.182  0.1466  0.1817 -0.1498
49236W        W92252  31.432  22.015   8.664  0.1997  0.0831  0.0913
49237W        W92253  19.132  12.945   4.973  0.1594 -0.0688 -0.0823
49238W        W92254  32.345  12.598  24.442 -0.1360  0.2267 -0.2407
49239W        W92255  22.767  32.515  26.338  0.0350  0.1225 -0.0412
49240W        W92256   6.736   7.167  27.146  0.2129  0.0593 -0.1729
49241W        W92257  10.014  33.922  28.965  0.4121  0.0175 -0.1630
49242W        W92258   1.161  24.258  28.169  0.0429 -0.0490 -0.0246
49243W        W92259  16.132   5.875  23.297 -0.0345  0.1823  0.1063
49244W        W92260  28.307  24.232   4.692 -0.0490  0.0598  0.0344
49245W        W92261  29.553  20.407   0.741 -0.2760 -0.0775  0.2107
49246W        W92262  10.657   2.483   9.868 -0.2532 -0.1492  0.0635
49247W        W92263  22.988  22.217  24.605 -0.0443 -0.1474 -0.1023
49248W        W92264   2.478  28.143  28.642  0.1345  0.3409  0.1891
49249W        W92265   7.541   1.358   2.827 -0.2995  0.0294  0.1234
49250W        W92266   3.756  22.378  24.914 -0.2053  0.0343 -0.2852
49251W        W92267  34.311  21.064   5.869  0.0027  0.3231 -0.3249
49252W        W92268  25.893  30.604  19.610  0.2747  0.0008 -0.5183
49253W        W92269  26.231   3.165  10.549  0.1382  0.2150 -0.4410
49254W        W92270   6.631  33.218   6.389 -0.2695 -0.3290 -0.2893
49255W        W92271   0.740   5.313   0.536  0.0164 -0.1103 -0.2269
49256W        W92272  23.521  18.734   5.070 -0.0572  0.0218 -0.0490
49257W        W92273  19.167  30.077  18.106  0.1682  0.3171 -0.1117
49258W        W92274  32.281  34.086   9.837 -0.2732 -0.4062 -0.1709
49259W        W92275   0.475  31.633  28.980 -0.0614  0.0811 -0.0863
49260W        W92276  17.615  21.984   2.179 -0.0473 -0.1476 -0.0136
49261W        W92277  24.470   6.945   7.033  0.0548  0.0568 -0.0733
49262W        W92278  16.364  23.904   4.878 -0.0875  0.0441  0.1914
49263W        W92279  27.541  25.716  26.274  0.1430  0.5321 -0.0052
49264W        W92280  30.658  31.475  17.235 -0.2048  0.1808  0.2025
49265W        W92281  26.048  16.956  23.413 -0.0345  0.1402  0.0301
49266W        W92282  25.610  34.758  10.414 -0.1651 -0.1630  0.0138
49267W        W92283  31.270  27.538  23.995  0.0744 -0.2215 -0.1580
49268W        W92284  23.021  19.785   1.401  0.0431  0.2992 -0.0707
49269W        W92285  23.857   8.505   2.995  0.4017  0.0021 -0.3032
49270W        W92286   8.552   1.529  26.074 -0.2503  0.0636 -0.1657
49271W        W92287   9.785  30.066   5.164  0.2717  0.0748  0.1482
49272W        W92288  27.293  18.566  27.205 -0.0545  0.1243  0.1369
49273W        W92289   9.208  19.978   3.796  0.0071  0.0154 -0.0870
49274W        W92290   3.803   3.323   2.835  0.1132 -0.0500  0.1027
49275W        W92291   5.223  29.462  28.206 -0.2106  0.0940  0.0477
49276W        W92292   7.754  32.090  24.999  0.0794  0.0491  0.2081
49277W        W92293  10.158   5.719   9.987 -0.0876  0.2458 -0.0623
49278W        W92294  17.104   0.537  26.101  0.2202  0.1538  0.0161
49279W        W92295   0.912  22.528   9.081  0.1374  0.0282 -0.0943
49280W        W92296  16.930  22.350  27.962  0.1578  0.2500  0.3976
49281W        W92297   5.367   1.713  28.768  0.0607  0.3263  0.0621
49282W        W92298  33.598  23.025  22.150  0.1149 -0.0575 -0.0585
49283W        W92299   9.884  31.476  19.087 -0.0012 -0.0407 -0.2039
49284W        W92300   9.057   4.643   5.504  0.0834 -0.0768  0.0496
49285W        W92301  27.148  23.887  23.941 -0.4172 -0.1109 -0.2848
49286W        W92302  12.573  30.026   0.779  0.1686  0.1996  0.1676
49287W        W92303   0.934  15.732   5.121 -0.0269 -0.1020 -0.0725
49288W        W92304  22.801  20.214  17.450 -0.1390 -0.0771  0.3088
49289W        W92305  10.467   2.656   1.447 -0.1683 -0.0579 -0.1166
49290W        W92306  26.792  23.006  27.949  0.0084 -0.1401 -0.0536
49291W        W92307  28.611  26.922   7.341 -0.1300  0.0340 -0.3601
49292W        W92308  17.528  21.284   3.458 -0.1786 -0.3167  0.1509
49293W        W92309   2.987  32.929  22.758  0.2043  0.0044 -0.0245
49294W        W92310  25.473  25.193  18.775  0.0399 -0.1820  0.0328
49295W        W92311   1.212  23.471  24.253  0.1891  0.1570 -0.2400
49296W        W92312  34.525   3.961   6.027  0.1983 -0.2341 -0.0507
49297W        W92313  18.816  25.485  22.387 -0.0907  0.3861  0.1735
49298W        W92314  22.433  20.988  19.223  0.0499  0.1526  0.0508
49299W        W92315  13.992  32.544   6.464 -0.2877  0.1018  0.0572
49300W        W92316   2.746  11.484   3.088  0.2248  0.2370 -0.0451
49301W        W92317   0.649  23.738   6.469  0.1751  0.2612 -0.1155
49302W        W92318   8.366   2.439  14.700 -0.2028 -0.1356  0.0957
49303W        W92319  23.409   4.185   8.259 -0.0012 -0.1817 -0.3622
49304W        W92320   9.977  27.385  22.561  0.3692 -0.1241 -0.1359
49305W        W92321  24.802  14.115  14.941 -0.0733 -0.3217 -0.2673
49306W        W92322   6.028  23.722  19.414 -0.1117  0.1613 -0.3341
49307W        W92323  32.340  29.176  22.094  0.0148  0.1948 -0.1862
49308W        W92324  29.798   6.624   1.229 -0.0469  0.3219  0.3143
49309W        W92325  21.931  29.657  21.411  0.2843 -0.0539 -0.0511
49310W        W92326  24.084  29.343  28.129 -0.2525  0.1739  0.0870
49311W        W92327  22.564  24.474  10.829 -0.0652 -0.1317 -0.1740
49312W        W92328  28.384  22.369  27.145  0.0681  0.0638  0.0274
49313W        W92329  30.490  32.959   9.605  0.3971  0.1949  0.1648
49314W        W92330   8.802   5.124  19.096 -0.1337 -0.1532  0.0139
49315W        W92331   4.390  28.293   6.440 -0.0521  0.4139  0.2189
49316W        W92332  27.269   2.446   3.151  0.2509  0.1655 -0.0723
49317W        W92333   2.430  29.483  21.080 -0.2478  0.0855 -0.1160
49318W        W92334  30.696   6.180  27.158 -0.1530 -0.3559  0.3781
49319W        W92335  28.257  24.228  25.453 -0.0636  0.1986 -0.0613
49320W        W92336  34.401   4.604   1.323 -0.1453  0.1482 -0.2578
49321W        W92337  29.843  19.657  21.465 -0.0258 -0.2262 -0.1317
49322W        W92338  25.787  30.968  28.745 -0.2203  0.0475  0.0897
49323W        W92339  29.940  30.843  28.728  0.2390  0.1176 -0.0441
49324W        W92340  22.286   5.358   6.895  0.1287 -0.1191  0.1032
49325W        W92341  33.816  29.938   5.810 -0.0965 -0.1395  0.0426
49326W        W92342  20.360   4.097  15.712  0.1195  0.1710 -0.1588
49327W        W92343  34.403  31.023  10.384  0.1566  0.1843 -0.2452
49328W        W92344   6.999   1.139   2.037  0.1534  0.0431 -0.0664
49329W        W92345  28.170  32.384  11.077  0.1123  0.1726  0.1773
49330W        W92346  30.213  29.663  10.668  0.3227  0.4057 -0.2658
49331W        W92347  23.420  33.868   5.716 -0.1311  0.0454 -0.0588
49332W        W92348  23.831  30.574  19.590 -0.1856  0.0232 -0.0427
49333W        W92349  33.684  24.428   8.480 -0.0218  0.1342 -0.1856
49334W        W92350  27.656  27.042  15.323  0.0419  0.1156  0.3325
49335W        W92351   0.925  31.983   3.535 -0.1634  0.1147 -0.0195
49336W        W92352   2.977  30.811   4.558  0.1277 -0.0384 -0.1293
49337W        W92353  26.865   4.502   6.581 -0.1689  0.3370  0.0002
49338W        W92354   1.332  25.846  26.986  0.1693 -0.2499  0.1734
49339W        W92355  21.950  33.622  24.971 -0.2807 -0.1964  0.1088
49340W        W92356   7.621  10.119  25.656  0.1624  0.1197 -0.3225
49341W        W92357  26.410  21.931  22.785  0.1060 -0.2430  0.0371
49342W        W92358  17.657   6.080   5.875  0.0773  0.0314 -0.0209
49343W        W92359  24.613   3.158  26.691  0.0287  0.2675  0.0329
49344W        W92360  17.517  26.176  27.937  0.0623 -0.1747  0.3081
49345W        W92361  15.548  19.920  23.424 -0.0440 -0.0244 -0.1788
49346W        W92362  18.849  23.390   4.391 -0.2037 -0.1458 -0.0667
49347W        W92363  22.456   3.780   1.193 -0.0878 -0.2773  0.2641
49348W        W92364  34.748  34.190  22.617  0.0184 -0.0091 -0.0459
49349W        W92365   0.458  14.429  25.049 -0.0107 -0.0751  0.2070
49350W        W92366   3.020  16.243   9.112 -0.1784  0.2048  0.1246
49351W        W92367  13.218  24.605   8.875 -0.0473 -0.1760  0.0902
49352W        W92368   5.999   6.007   3.409  0.1172 -0.2814  0.0257
49353W        W92369  30.526  12.248   3.660 -0.0592 -0.0140 -0.3217
49354W        W92370   3.773  31.023  15.066  0.3379  0.2878 -0.1489
49355W        W92371  16.424  27.589   5.277 -0.1757  0.0362  0.2777
49356W        W92372  24.288   3.911  11.550  0.1759 -0.2108  0.3096
49357W        W92373  28.808  26.634   7.751 -0.2082 -0.1587 -0.0395
49358W        W92374   9.285  34.161  26.988  0.0720  0.0323 -0.2828
49359W        W92375   5.448   0.756   6.893 -0.0717 -0.0816 -0.0160
49360W        W92376  32.046  22.546  11.348 -0.2705 -0.0665 -0.2577
49361W        W92377  31.419  27.675   7.217 -0.3306  0.0484 -0.0970
49362W        W92378  17.926   0.098  10.677 -0.1399  0.2252 -0.2431
49363W        W92379  28.358  28.227  25.975  0.0963  0.1425  0.2633
49364W        W92380  26.856  19.604   5.314  0.1329  0.0133  0.0870
49365W        W92381  30.400  14.479   5.444 -0.2065  0.1664 -0.0035
49366W        W92382  21.188  18.170   0.629  0.4342  0.1202 -0.0627
49367W        W92383  29.770  13.852   9.091 -0.1355  0.0237 -0.0178
49368W        W92384  23.966   0.373   9.061  0.1142  0.0733 -0.0204
49369W        W92385  15.087  20.668   1.487 -0.1130 -0.2901  0.0461
49370W        W92386  26.701  21.286   2.985 -0.1747 -0.2732  0.1891
49371W        W92387   6.927  19.749   6.407  0.1826 -0.2663  0.0079
49372W        W92388   4.326  21.265   0.966  0.0782 -0.1861 -0.1749
49373W        W92389  25.804  32.754  22.585  0.0440 -0.2331 -0.1135
49374W        W92390  29.353  28.515   8.300  0.1914  0.0311 -0.0046
49375W        W92391  24.612  31.063  24.480  0.1183 -0.0817  0.3501
49376W        W92392  20.785   8.258  29.011 -0.0430 -0.2830 -0.1002
49377W        W92393   7.088   1.441   0.615 -0.0341  0.0583  0.1262
49378W        W92394  30.681  33.960  25.619 -0.1258  0.2647  0.5521
49379W        W92395   3.639  20.527   4.799 -0.1310 -0.2454  0.0398
49380W        W92396  33.044   2.578  17.146  0.2975  0.0044 -0.1788
49381W        W92397  31.536  29.097  10.190  0.0258 -0.2705  0.0198
49382W        W92398   3.292  26.424  25.887 -0.4464 -0.2214  0.0401
49383W        W92399   6.327  10.440   6.736 -0.1802  0.1098 -0.1079
49384W        W92400   9.186  29.330  20.082  0.0677 -0.1882  0.0005
49385W        W92401   3.922  30.284  29.142 -0.0715 -0.1440 -0.2017
49386W        W92402  26.663  31.817   9.960  0.2584 -0.0093  0.2050
49387W        W92403  13.653  30.338   1.531  0.0761 -0.0856  0.1794
49388W        W92404  23.083  32.952  26.129  0.0333  0.1771  0.1541
49389W        W92405  13.089  18.603  25.767 -0.1402  0.0718  0.0802
49390W        W92406  25.747  22.499   0.291 -0.1163 -0.1753 -0.1608
49391W        W92407  33.947  32.038   1.934 -0.2331  0.2214 -0.0690
49392W        W92408  26.094  29.876  28.156  0.3116 -0.3191  0.1493
49393W        W92409  22.381  32.100  21.985 -0.1895 -0.2855  0.0959
49394W        W92410  27.473   7.565   0.432  0.1296  0.0632  0.2520
49395W        W92411  24.787  26.549   2.755  0.2445  0.0958 -0.0095
49396W        W92412  33.791  32.140   9.849  0.0265  0.3444 -0.0065
49397W        W92413  21.880  33.802   3.918  0.2525 -0.0764 -0.0378
49398W        W92414  25.440  27.024   9.072  0.1943  0.2126 -0.0974
49399W        W92415   4.756   9.172  28.855  0.1045 -0.1155 -0.1511
49400W        W92416   3.232  14.613   5.545  0.0217 -0.0973  0.0923
49401W        W92417  34.072   2.356   6.874  0.1273  0.0887 -0.0270
49402W        W92418  22.318  24.826   4.696  0.0241 -0.1682  0.1608
49403W        W92419   0.973  30.239   2.435  0.0089 -0.0844  0.0816
49404W        W92420  14.361  29.566   1.154 -0.0732  0.0965 -0.4777
49405W        W92421  21.326   1.255   8.013  0.0711  0.3111  0.1897
49406W        W92422  29.527  26.106  29.007 -0.1742  0.0843 -0.0192
49407W        W92423  24.497  20.284   5.631  0.0693 -0.0099  0.0940
49408W        W92424  32.641  27.851   0.051  0.2344  0.2490 -0.1722
49409W        W92425  32.046  24.175   7.164 -0.3502 -0.5536  0.1240
49410W        W92426  26.969  34.609   4.516 -0.0449  0.1479  0.0834
49411W        W92427   7.915  21.768  23.403 -0.1834  0.0763 -0.0082
49412W        W92428  29.912  31.100   9.443 -0.1557 -0.3973  0.3869
49413W        W92429   8.824  22.230   7.489 -0.0974  0.1730 -0.2386
49414W        W92430  15.673  21.264  24.335 -0.1208 -0.0084 -0.2137
49415W        W92431  31.142  10.985  28.272  0.0827  0.3563  0.1191
49416W        W92432   0.376  24.200   8.003  0.1253  0.4297 -0.2225
49417W        W92433  25.159  27.874  23.729 -0.1945 -0.2284  0.1788
49418W        W92434  23.640  13.117  18.729 -0.1639 -0.0092 -0.3568
49419W        W92435  31.824  27.995   2.758  0.1655 -0.0270 -0.0868
49420W        W92436  17.243  34.364   0.924  0.3546  0.3512  0.2146
49421W        W92437  23.817  31.837   2.631  0.3943  0.0437  0.1587
49422W        W92438  30.819   2.070   2.065  0.2315  0.1022 -0.0829
49423W        W92439  21.479  32.169  25.736  0.2499  0.1583 -0.1463
49424W        W92440  22.552  24.848  27.232 -0.3490 -0.0236  0.0331
49425W        W92441  32.858  31.019  20.706 -0.0040 -0.2529  0.2124
49426W        W92442   3.300   1.020  29.065  0.0891  0.0392  0.1636
49427W        W92443  31.151   1.121   4.819 -0.4585 -0.1873  0.0206
49428W        W92444   3.479  29.125   1.007  0.3169  0.5541  0.0173
49429W        W92445  34.758   0.085   7.580  0.0338  0.2178  0.2441
49430W        W92446   5.820  22.745   4.811  0.1721  0.4010 -0.2386
49431W        W92447  15.342   8.669   9.077 -0.0774 -0.0009 -0.1786
49432W        W92448  32.825  30.420  14.837 -0.0075  0.0016 -0.1239
49433W        W92449  29.694  29.788   4.593 -0.0773  0.0270  0.2565
49434W        W92450  20.430  33.572   6.738 -0.3189  0.1985  0.2517
49435W        W92451   3.031  32.704  20.039  0.1164 -0.0448 -0.1800
49436W        W92452  22.609  11.530   1.995 -0.2844 -0.3488  0.1107
49437W        W92453  10.530  29.070   6.756  0.1475  0.0166 -0.3216
49438W        W92454   0.725  29.771   9.348  0.0934 -0.0827  0.1673
49439W        W92455  32.994  17.088   8.101 -0.5077  0.2608 -0.0149
49440W        W92456  28.919  27.925  17.578 -0.1144 -0.0977  0.3307
49441W        W92457   4.254  23.351  23.071 -0.0411 -0.1360 -0.1827
49442W        W92458  25.345  26.966  28.786 -0.2756  0.1254  0.0984
49443W        W92459  13.589  12.358  26.872 -0.0574 -0.0610 -0.0860
49444W        W92460  32.772   2.458   7.979 -0.1787  0.0793 -0.0908
49445W        W92461   4.180  23.199  27.454  0.2638 -0.1551  0.3789
49446W        W92462  21.579  30.437   9.142 -0.0230  0.0402 -0.2708
49447W        W92463  13.437  28.172   0.646  0.0537  0.2618  0.2784
49448W        W92464   3.083  16.281   1.627  0.1551  0.0260  0.1290
49449W        W92465   9.282   7.984  19.545 -0.2010 -0.1258  0.1915
49450W        W92466  29.461   4.793   6.323 -0.2316  0.1245  0.1222
49451W        W92467  13.364  17.977   3.133 -0.1316 -0.1467 -0.3035
49452W        W92468   7.535   2.914  22.642 -0.2341  0.2009 -0.0636
49453W        W92469   6.460   1.685   5.491 -0.1908  0.1016  0.1563
49454W        W92470  18.938  30.131  25.300 -0.1027  0.1307  0.0262
49455W        W92471  26.887   9.943   6.308  0.0293  0.0224 -0.1946
49456W        W92472  25.550  34.304   7.677  0.3339 -0.0005 -0.3248
49457W        W92473   2.006   8.789  25.744  0.0824  0.2213  0.2213
49458W        W92474  17.525   6.868   6.934  0.0697 -0.0950 -0.2770
49459W        W92475  17.728   8.154   7.532 -0.3144 -0.0060  0.0922
49460W        W92476  33.827   7.527  25.599  0.0204  0.0576  0.3384
49461W        W92477  28.473   2.642  28.097  0.2090 -0.3315  0.0709
49462W        W92478   4.044  17.105   4.615 -0.1808  0.0689 -0.2690
49463W        W92479  29.343  34.043   3.743  0.0829  0.0246 -0.2021
49464W        W92480  18.294  21.336   2.478  0.1808 -0.0931 -0.1282
49465W        W92481  25.038  17.910  14.956  0.2063  0.3180  0.1221
49466W        W92482  18.906  33.627   5.995 -0.0679  0.0760  0.0546
49467W        W92483   5.087   2.344   8.352 -0.0160 -0.1923 -0.4094
49468W        W92484  24.445  23.213  21.783 -0.0728 -0.1388  0.0202
49469W        W92485   2.453  28.793   1.247  0.0581  0.0237 -0.2297
49470W        W92486  26.679  28.259   5.867  0.0153  0.0648  0.4261
49471W        W92487   5.023  11.972  13.848  0.0202  0.2618  0.0202
49472W        W92488  14.499   2.455  22.741  0.0933 -0.2744 -0.2763
49473W        W92489   6.324  24.032   0.311 -0.1491 -0.4618 -0.2037
49474W        W92490   7.262  34.463  29.317 -0.0567 -0.2253 -0.1275
49475W        W92491  34.142   0.320   2.488 -0.3192  0.3196  0.3539
49476W        W92492  20.510  34.036   4.850 -0.2049  0.2329 -0.2900
49477W        W92493   0.201  14.785   2.767 -0.2895  0.0587 -0.3699
49478W        W92494  19.140   9.228  22.545  0.0066 -0.0368  0.2059
49479W        W92495  25.617  29.614  25.738  0.3257  0.4617 -0.0394
49480W        W92496  31.765  26.345   3.568  0.1202  0.3967 -0.0749
49481W        W92497  12.364  10.263   7.938 -0.2979  0.2016  0.0653
49482W        W92498   0.538  28.409  27.133 -0.0725  0.0264 -0.0628
49483W        W92499  28.887  30.762   0.904  0.2286 -0.1438  0.1478
49484W        W92500  25.745  26.866  22.612  0.0834 -0.0191 -0.0480
49485W        W92501  34.232  13.369  26.317  0.2265  0.0448  0.0322
49486W        W92502  24.371  34.245   3.617  0.3017  0.2005 -0.1319
49487W        W92503   2.644   0.325   1.806 -0.4256  0.1896 -0.0372
49488W        W92504  10.634  27.370  19.956  0.1183 -0.1690  0.0076
49489W        W92505  17.433  23.475   0.125  0.1187  0.0492  0.1021
49490W        W92506  23.708  30.236   5.503 -0.0400  0.1143 -0.1826
49491W        W92507  22.177  12.445  24.733 -0.1421  0.0914 -0.0501
49492W        W92508  30.913  17.815  19.268 -0.0417 -0.0183 -0.3095
49493W        W92509   0.707  18.377   6.172 -0.0635 -0.1144  0.0968
49494W        W92510  27.019  23.309  26.733 -0.0235 -0.1484 -0.3241
49495W        W92511  34.675  28.344   5.670  0.0531  0.0424  0.1884
49496W        W92512  22.793  21.891   0.209  0.2749 -0.2344 -0.2844
49497W        W92513  30.253   0.110   3.278  0.1049  0.1433 -0.1889
49498W        W92514  34.567  26.724   9.167 -0.1439  0.1462 -0.0740
49499W        W92515  27.155  32.809   3.432 -0.1429  0.2984 -0.1813
49500W        W92516  21.201  15.899  15.202 -0.0785  0.1080 -0.3634
49501W        W92517  14.968   1.470   3.410 -0.0977  0.0579 -0.1381
49502W        W92518  22.276  25.699  26.733  0.0267 -0.1111 -0.0705
49503W        W92519  32.677   0.049   7.419 -0.2541 -0.1909  0.1511
49504W        W92520  33.675  18.410  27.863 -0.3053  0.3456 -0.0896
49505W        W92521  26.878  16.489  19.275 -0.2280 -0.1353  0.0196
49506W        W92522  31.677  30.410  25.184  0.1787  0.0451  0.1533
49507W        W92523  12.452  27.664   7.066  0.0514  0.0500  0.2387
49508W        W92524  14.776   7.994   7.360 -0.0561 -0.0917 -0.3994
49509W        W92525  19.679  32.473  25.251  0.2814  0.1901 -0.0176
49510W        W92526   3.602   8.015  26.839  0.1603  0.0746 -0.2678
49511W        W92527   3.377  12.078  29.181  0.3791 -0.1759 -0.0852
49512W        W92528  24.127  10.839   2.139  0.2623 -0.1256 -0.2971
49513W        W92529   4.316  11.884   9.812 -0.0365 -0.3162  0.2497
49514W        W92530  30.882  26.475   8.556 -0.1701 -0.2312 -0.3048
49515W        W92531  16.577  21.752   4.047  0.0276 -0.0079  0.2144
49516W        W92532  18.148  22.459   1.572 -0.0984 -0.0395  0.3803
49517W        W92533  13.011  11.401   4.301  0.0461  0.0530 -0.2994
49518W        W92534  11.268   7.284   6.496  0.1385 -0.0383  0.0605
49519W        W92535  26.205  25.188   5.039 -0.0597  0.1787  0.2158
49520W        W92536  28.673  29.440  10.959 -0.3356  0.0100  0.4140
49521W        W92537  25.888   0.747   2.557 -0.0558 -0.1972  0.0010
49522W        W92538  34.079  20.498   4.178 -0.0306 -0.1205 -0.0335
49523W        W92539  26.639  33.044   6.158  0.3357 -0.1345  0.0004
49524W        W92540  30.874  30.714  11.892 -0.3790 -0.1963  0.1691
49525W        W92541  20.491  29.327  26.849 -0.1625  0.1990  0.0118
49526W        W92542  19.695  29.233   4.887  0.2900  0.0392  0.0231
49527W        W92543  31.419  11.357   8.270  0.0025 -0.2029 -0.0814
49528W        W92544  32.738   0.666  21.471 -0.0161  0.0502  0.2593
49529W        W92545  25.171  21.956   4.571  0.4109  0.1642  0.2463
49530W        W92546  20.181  20.259   2.129 -0.0290 -0.0258 -0.0684
49531W        W92547  23.838   9.844   5.194  0.2167  0.0629 -0.1141
49532W        W92548   2.097   8.644   8.615  0.1609  0.0264 -0.0134
49533W        W92549  27.531  23.493  24.058  0.0233 -0.1951 -0.0774
49534W        W92550  13.113  26.784  17.661 -0.1542  0.0141 -0.1235
49535W        W92551  30.977  27.776   0.154  0.0981  0.1267 -0.0084
49536W        W92552  31.480  27.235   0.780  0.2362 -0.2281  0.0730
49537W        W92553  23.617  33.558   6.143  0.1629 -0.0447  0.3056
49538W        W92554  31.446  13.428  21.617 -0.0620  0.1921  0.1267
49539W        W92555   0.954  25.326   4.362  0.1471 -0.1650  0.0145
49540W        W92556  10.240  25.845  25.044  0.0093 -0.1991 -0.0231
49541W        W92557  22.768   7.981   1.394  0.0225  0.0081 -0.1596
49542W        W92558  32.877  12.560   9.456 -0.2908  0.0206  0.0367
49543W        W92559  20.519  33.272  23.603  0.2702  0.0091  0.2402
49544W        W92560  20.164  15.736   8.333 -0.1547 -0.1733  0.0013
49545W        W92561   5.601  20.167  22.996 -0.0657  0.0684  0.0823
49546W        W92562  29.067   7.968   9.959  0.1470 -0.1493  0.0964
49547W        W92563  22.263   3.978   6.081 -0.0790  0.0740 -0.1169
49548W        W92564  28.253  31.107  22.242  0.3531 -0.1246  0.4904
49549W        W92565  26.902  27.605   4.096  0.0818  0.3143 -0.0348
49550W        W92566  20.838   5.129   3.584  0.2587  0.0196 -0.0019
49551W        W92567   4.324   5.686  20.111 -0.0921 -0.1581  0.2592
49552W        W92568  26.879  30.913   1.023 -0.3222 -0.2112  0.0736
49553W        W92569   6.597  30.828  29.167 -0.0624  0.0412 -0.0354
49554W        W92570  11.983  16.616  20.830 -0.3171 -0.5651 -0.3253
49555W        W92571  25.669  19.235   4.516 -0.0284 -0.0232  0.2015
49556W        W92572  28.398   3.222  29.185 -0.0269 -0.1895 -0.2094
49557W        W92573  29.625  20.674   2.999  0.4453  0.0757 -0.0164
49558W        W92574   2.642   8.070   8.925 -0.1617 -0.1517 -0.1222
49559W        W92575  33.558  15.034  15.175  0.0657 -0.1510  0.0706
49560W        W92576  30.716  22.199   9.163 -0.1727  0.2598 -0.0691
49561W        W92577   0.075  33.448   5.330  0.0683  0.1271  0.1685
49562W        W92578  23.737  25.395   0.866  0.0488  0.0715  0.0105
49563W        W92579  31.422  28.302   9.772 -0.2013  0.0907 -0.2424
49564W        W92580   6.588   5.701  25.722  0.2943 -0.0061 -0.1782
49565W        W92581   3.077  15.733   3.323 -0.0864 -0.0656  0.0856
49566W        W92582  30.676   3.199  16.313  0.0865 -0.3219  0.0557
49567W        W92583  27.305  32.517  16.542  0.0474 -0.0209 -0.0440
49568W        W92584  27.434   3.325   8.935 -0.0613  0.0227 -0.0901
49569W        W92585  32.204  33.877   0.359 -0.3017 -0.0552 -0.2617
49570W        W92586  23.869   4.376  24.921  0.3136 -0.3105  0.0741
49571W        W92587  20.949   0.808   1.414  0.2158  0.0536  0.0086
49572W        W92588  23.953   0.612  22.571 -0.3066 -0.2663 -0.2040
49573W        W92589   2.018  24.612  18.712 -0.5051 -0.1058 -0.0895
49574W        W92590  29.654   0.283   3.340  0.1139  0.1529 -0.0128
49575W        W92591  18.252  27.352   9.727  0.0562  0.1264 -0.2104
49576W        W92592  32.905  33.919  27.329  0.1712 -0.1854 -0.1522
49577W        W92593   9.938  30.617   4.623  0.1101 -0.2150 -0.0207
49578W        W92594  25.071  30.711  26.654  0.0562  0.3322  0.0406
49579W        W92595  18.930  21.068  20.941  0.3276 -0.1925  0.1821
49580W        W92596  23.619  18.137  21.836  0.1249  0.0152 -0.0256
49581W        W92597  17.047   5.709   9.804  0.0198 -0.1325 -0.3834
49582W        W92598   8.433  28.754   3.551  0.3878 -0.0912 -0.1983
49583W        W92599  34.483  19.481   2.827  0.2901 -0.0064  0.2072
49584W        W92600  20.735  25.881   9.155  0.3082 -0.0884 -0.0832
49585W        W92601  24.159  31.458  29.198  0.2367 -0.1215 -0.1260
49586W        W92602  23.101  15.471  24.279 -0.2387 -0.0147  0.1555
49587W        W92603  22.323  28.378  24.433 -0.0815 -0.2162  0.1137
49588W        W92604  29.172   9.214   5.042  0.2472 -0.4325 -0.0219
49589W        W92605  33.837   3.438   0.150 -0.1524 -0.0759 -0.0286
49590W        W92606   8.877   8.510   1.044 -0.2001  0.2497 -0.2461
49591W        W92607   5.520   5.518  16.815 -0.2460  0.2068 -0.0114
49592W        W92608   3.433  25.613   5.968  0.1106  0.0613  0.1047
49593W        W92609  11.804   5.336  14.507 -0.2743 -0.2805 -0.0607
49594W        W92610  27.310  13.435   0.263 -0.1385  0.0471  0.1417
49595W        W92611   8.531  28.228   6.378  0.0731  0.0497 -0.1572
49596W        W92612  27.868   9.330   9.727 -0.0191  0.1443  0.0666
49597W        W92613  18.390  16.298   5.769 -0.1219  0.1648  0.1209
49598W        W92614  29.926  14.103   3.212  0.3081  0.0794 -0.1591
49599W        W92615  25.699  15.935   5.679  0.0568  0.2296 -0.1252
49600W        W92616   7.357  29.106   4.540 -0.1872 -0.1226 -0.1013
49601W        W92617  27.141  12.690   2.867 -0.2756  0.1037  0.3117
49602W        W92618   2.478  20.355   4.366  0.0660 -0.0711 -0.3233
49603W        W92619  19.732   7.267   2.151 -0.2727  0.0241 -0.0311
49604W        W92620  26.480   9.701   5.286  0.2832  0.2554 -0.2884
49605W        W92621  34.268  27.217  26.413 -0.1303  0.0237  0.0532
49606W        W92622   4.637  10.631  21.980  0.0233  0.1576 -0.2179
49607W        W92623  31.028  13.112   7.606  0.1553  0.1347 -0.3131
49608W        W92624  27.989  24.462   9.174  0.2178  0.1896  0.2238
49609W        W92625  30.241  17.317   9.739 -0.2026  0.0643  0.1478
49610W        W92626  10.176  21.821  16.137  0.1306  0.1767 -0.1085
49611W        W92627   5.376  26.771   9.180 -0.3767  0.1284  0.0027
49612W        W92628  24.871  33.425  19.985 -0.0742 -0.0716 -0.0222
49613W        W92629  17.527  22.084   6.085 -0.0148  0.0818  0.1812
49614W        W92630  31.036  21.961   6.955  0.0731  0.2300 -0.1130
49615W        W92631   7.072   7.707   2.257 -0.0647  0.3974 -0.1015
49616W        W92632  31.570   4.618  28.520  0.0486  0.2865  0.0479
49617W        W92633   1.061  30.929   6.117 -0.1213 -0.1249  0.0674
49618W        W92634   8.824  23.790   8.465 -0.1520  0.1404 -0.0620
49619W        W92635  31.119  32.005   3.578  0.1791 -0.0294 -0.0154
49620W        W92636  23.764  32.232  26.689  0.1343 -0.0694  0.1247
49621W        W92637  32.307   2.621  10.050 -0.0099  0.0996  0.0330
49622W        W92638  21.453  17.823  21.327 -0.1732 -0.3127  0.3767
49623W        W92639  18.201  28.533  17.888 -0.1648 -0.2599 -0.0038
49624W        W92640  29.374   7.524   7.688  0.1236 -0.3770 -0.2967
49625W        W92641  29.726  12.693   0.218  0.1986  0.2080  0.3319
49626W        W92642   5.465  33.238   9.434 -0.0307  0.2515 -0.0358
49627W        W92643  25.066  29.947  11.220 -0.1732 -0.0683 -0.2972
49628W        W92644  30.556   3.519   3.732 -0.0348  0.0359 -0.0992
49629W        W92645  31.950   1.833   9.114 -0.0969 -0.0072  0.0071
49630W        W92646  33.804  33.607   7.041  0.1908  0.2675  0.2152
49631W        W92647   7.338   9.421   9.982  0.1548 -0.1045  0.2904
49632W        W92648  23.811   7.494   6.414  0.1897 -0.0334  0.0214
49633W        W92649  30.470  24.298   6.536  0.1991  0.2825  0.0360
49634W        W92650  33.616   0.887   6.326  0.1431 -0.1305  0.0822
49635W        W92651  31.312  10.308   2.994  0.1520  0.1400 -0.1928
49636W        W92652  23.416  31.597   7.200 -0.1347 -0.3187 -0.1308
49637W        W92653   0.614  13.587  21.210  0.0961 -0.1030 -0.0525
49638W        W92654  25.201  31.141   6.121  0.2177  0.0555 -0.1440
49639W        W92655  31.822  21.803   2.016 -0.0440 -0.3660 -0.0867
49640W        W92656   1.514   2.338   2.055  0.1494 -0.0095  0.1379
49641W        W92657  31.031   5.870   8.460  0.1262  0.0865  0.1791
49642W        W92658  32.468   3.686   8.969  0.0028 -0.3254 -0.1827
49643W        W92659  24.930   9.945   4.706 -0.1582  0.2771  0.3072
49644W        W92660  27.299  28.337   1.743 -0.2291 -0.1142  0.0198
49645W        W92661   2.544  21.768   5.791 -0.1909  0.0170 -0.0806
49646W        W92662  24.552  22.971   6.512  0.0031  0.0707 -0.1806
49647W        W92663  34.344  14.385  20.425  0.3454 -0.0812 -0.3103
49648W        W92664  34.024  15.174  17.886  0.0540  0.0038  0.0266
49649W        W92665   8.548   5.975   1.241  0.3851 -0.2006  0.2134
49650W        W92666   0.470  26.998  26.273 -0.0931 -0.1215  0.0571
49651W        W92667  29.913  33.609   0.314 -0.0040  0.1598 -0.2832
49652W        W92668  30.187   5.604  24.519  0.1680 -0.1255  0.2172
49653W        W92669  24.789  31.478   6.210  0.1096  0.0027 -0.0991
49654W        W92670  12.033  23.053  27.179 -0.0443 -0.0843  0.1959
49655W        W92671  10.891  21.890   7.761 -0.1671  0.1488  0.0118
49656W        W92672   8.103  14.057   7.137  0.0029 -0.0285 -0.2416
49657W        W92673   0.058   2.928   3.672  0.2691  0.3971 -0.1530
49658W        W92674  19.701  13.934  15.133 -0.2246 -0.1542 -0.2915
49659W        W92675   3.204  27.557   0.750 -0.0516  0.1511  0.0869
49660W        W92676  18.480  21.302  27.630  0.1520  0.0027  0.0606
49661W        W92677  14.943  32.869   5.908  0.0699 -0.1557 -0.1021
49662W        W92678   2.951  26.288  22.567 -0.0979 -0.2213  0.0774
49663W        W92679  30.896   0.392   1.764 -0.0533  0.2527 -0.1036
49664W        W92680  17.968  29.430   3.772  0.3817 -0.1684  0.0308
49665W        W92681   1.626  18.958   3.685 -0.1910 -0.1949  0.0211
49666W        W92682  24.436  27.840  23.336 -0.0620 -0.0723  0.1193
49667W        W92683   5.835   2.118  27.416 -0.0799  0.1846  0.0253
49668W        W92684  14.868   4.732   8.229 -0.1493 -0.2450 -0.1287
49669W        W92685  31.463   3.360   7.789 -0.0313 -0.0737  0.1709
49670W        W92686   7.259   2.495  29.154  0.1192  0.2113  0.2078
49671W        W92687  26.285  32.074  25.894 -0.3674  0.2045  0.1623
49672W        W92688   0.546   0.956   6.372 -0.0426 -0.2008  0.1946
49673W        W92689   5.061   4.452  18.662 -0.2027  0.1168 -0.0652
49674W        W92690   4.278  31.665   6.078 -0.0034  0.5088  0.2217
49675W        W92691  34.531  15.822   5.115 -0.1727 -0.0777 -0.1640
49676W        W92692  28.558   5.664  24.976  0.0461  0.2641 -0.0390
49677W        W92693  19.003  11.708   7.249 -0.0606  0.1025  0.1820
49678W        W92694  27.917  27.998   7.416  0.4396  0.0480  0.3523
49679W        W92695   0.815   3.892  27.867  0.0797 -0.1407  0.0426
49680W        W92696  18.796  16.229   8.228  0.3308  0.1230 -0.0098
49681W        W92697  32.034   6.289   5.397 -0.1230 -0.1347 -0.0568
49682W        W92698  34.317  32.067   3.962  0.3004  0.0532  0.2903
49683W        W92699  23.849  31.689  23.087  0.2859 -0.3114 -0.0399
49684W        W92700  23.536  22.815   1.740 -0.2533  0.0023 -0.1682
49685W        W92701  27.750  27.212  10.975  0.1592 -0.4029 -0.3547
49686W        W92702  22.944  23.565   7.118 -0.0074  0.0899 -0.1785
49687W        W92703   2.266  15.645   9.962 -0.0945 -0.1025 -0.1047
49688W        W92704  30.032  23.708  29.167 -0.0968  0.0531 -0.2070
49689W        W92705  28.119   5.222  28.360  0.2479  0.4201  0.3563
49690W        W92706  33.998  32.631   7.874  0.0773  0.0470 -0.1295
49691W        W92707   3.290  24.434  28.547 -0.0885 -0.1028 -0.0955
49692W        W92708  16.913   3.323  28.658  0.3397  0.1867  0.1407
49693W        W92709   5.777  26.711   1.505 -0.0442 -0.0771  0.2011
49694W        W92710  26.005  30.171   4.796  0.1685  0.1109  0.2763
49695W        W92711  26.654  26.855  25.962  0.1858  0.2321  0.2057
49696W        W92712  14.363  25.983   3.485  0.1475 -0.0977 -0.2876
49697W        W92713  27.954  30.284   7.043 -0.0242 -0.1552  0.0197
49698W        W92714  29.453  23.940  27.032 -0.0748  0.1357  0.2315
49699W        W92715   2.107  33.420   2.403  0.1937 -0.1282  0.1165
49700W        W92716   5.057   2.057  19.869  0.1513  0.2726 -0.3817
49701W        W92717  31.459  24.640   9.447 -0.1342  0.2077  0.1794
49702W        W92718  20.412   1.785   5.207  0.2243  0.0582  0.4211
49703W        W92719  22.541  22.559   5.074  0.1273 -0.2588  0.2408
49704W        W92720  32.197  27.567  24.260 -0.0358  0.0615 -0.0903
49705W        W92721  21.880   7.743  27.464  0.1918 -0.0679  0.0570
49706W        W92722  23.997   5.812   3.292  0.2431  0.4205  0.1027
49707W        W92723  33.591   5.018   9.201  0.0387 -0.0257  0.0956
49708W        W92724  21.987  32.999   9.039  0.0923 -0.2124  0.1257
49709W        W92725   7.216  32.966   6.941  0.1390  0.0378 -0.0723
49710W        W92726   1.711  17.279   7.746 -0.1752  0.0950  0.4266
49711W        W92727  12.039   5.562   6.026  0.1696 -0.0261 -0.0287
49712W        W92728  28.718   4.905   0.118 -0.4485  0.2687  0.2927
49713W        W92729  32.819  24.671  26.874  0.2705 -0.0290  0.3392
49714W        W92730  23.176  11.131  27.296 -0.0555  0.2312  0.2094
49715W        W92731   8.763   1.280  27.757 -0.3345 -0.3819 -0.0681
49716W        W92732   1.696  10.367   7.322  0.0624  0.0829  0.1160
49717W        W92733  20.151   9.255  29.218 -0.3838  0.0233 -0.0638
49718W        W92734   9.853  27.594   8.389 -0.3172  0.0093 -0.1340
49719W        W92735  32.414  31.411  24.476  0.0883  0.1098 -0.0232
49720W        W92736  24.154   5.809   9.447 -0.0776  0.1094  0.2277
49721W        W92737  17.391  25.741   6.530  0.0297 -0.1453  0.0672
49722W        W92738  25.485  23.676   8.429 -0.2073  0.1361 -0.2714
49723W        W92739  21.605   5.541  14.488  0.2705  0.0815  0.1760
49724W        W92740  33.844  20.474  28.208 -0.1247  0.0286  0.1610
49725W        W92741   7.988   2.925   7.758 -0.0261 -0.0502 -0.1088
49726W        W92742   1.375  34.297   5.393 -0.1617  0.0652 -0.0420
49727W        W92743   0.569  23.664  19.577 -0.4343 -0.1018  0.4511
49728W        W92744  21.603  21.209  26.618 -0.1494 -0.0682 -0.2040
49729W        W92745  30.315  32.942   0.438  0.2881  0.0472  0.1282
49730W        W92746  28.714  11.459   8.045  0.0277 -0.5723 -0.1336
49731W        W92747  23.226  24.962   5.137 -0.1896 -0.2119  0.2902
49732W        W92748  34.708  22.598   8.830 -0.1956  0.2021 -0.2718
49733W        W92749  28.620  31.179   9.229 -0.0050  0.0308 -0.1948
49734W        W92750  34.219   0.279  28.592 -0.2114  0.0346  0.1530
49735W        W92751  17.241  34.372  26.284  0.0535 -0.3504 -0.1944
49736W        W92752  25.851  27.553   0.792  0.0374  0.0837  0.1107
49737W        W92753  15.625  30.514   0.034  0.2980 -0.0117 -0.0221
49738W        W92754  31.158  30.490   6.170 -0.0696 -0.1735  0.0758
49739W        W92755  27.262  30.923   7.278  0.0417  0.1963  0.0779
49740W        W92756  17.593   9.408   2.882  0.0164 -0.0817  0.1254
49741W        W92757  26.612   2.502  23.526  0.2700  0.0033 -0.1673
49742W        W92758  32.978  30.926   4.775  0.3413 -0.1574  0.0802
49743W        W92759  21.439   5.641   5.580  0.1016  0.0354 -0.1324
49744W        W92760   2.264   4.446  27.021  0.0384 -0.0654  0.1359
49745W        W92761  33.482  33.898  19.938 -0.1202  0.2845 -0.0204
49746W        W92762  21.108  23.499   6.459 -0.1263  0.0840  0.2140
49747W        W92763  26.794   6.833   3.745 -0.0292  0.0029 -0.2849
49748W        W92764  21.356  29.804   6.563 -0.2520  0.1524  0.1126
49749W        W92765  34.645  17.624  10.315 -0.1209 -0.0515  0.3248
49750W        W92766  28.186   4.948   6.291 -0.2511  0.0442 -0.1271
49751W        W92767  32.261  32.083   7.582 -0.2044  0.1365  0.0537
49752W        W92768  19.014  19.822  25.562  0.3141 -0.2140  0.3388
49753W        W92769  17.297  26.851   4.276 -0.1923  0.1366  0.2582
49754W        W92770   8.690  16.797  13.654 -0.1945 -0.1509 -0.4749
49755W        W92771  20.216   3.257  19.009  0.0520  0.0170 -0.3265
49756W        W92772  29.548   8.481   7.252  0.0025 -0.0862 -0.0820
49757W        W92773  21.666  29.888   2.981 -0.3939 -0.1100 -0.2625
49758W        W92774  17.192   8.557   2.466 -0.1125 -0.0788  0.0961
49759W        W92775  23.941  13.914   0.901  0.3257  0.1253  0.0754
49760W        W92776  17.622  19.037   4.765 -0.0080 -0.1350  0.0573
49761W        W92777  22.111  30.978  15.293 -0.1894  0.0089  0.0118
49762W        W92778  29.837  33.277   8.282 -0.2301  0.0988 -0.0752
49763W        W92779  25.001   3.274  28.241 -0.2367 -0.0563 -0.3914
49764W        W92780   1.921   6.495  27.944  0.1014  0.0228 -0.1533
49765W        W92781  26.868  22.068   4.423 -0.1077 -0.2450 -0.1761
49766W        W92782  28.069  29.629   6.703 -0.0205 -0.0562  0.0388
49767W        W92783   5.364  34.570   3.929  0.0164  0.1165  0.2933
49768W        W92784  15.335   1.988   9.356 -0.0792 -0.3091  0.0681
49769W        W92785   4.040  22.675   8.620  0.2859  0.0917  0.1714
49770W        W92786  28.313   7.025  11.496  0.2134  0.2784 -0.0862
49771W        W92787  31.436  12.391  29.102  0.1542 -0.1139 -0.2055
49772W        W92788   6.183  18.361  24.765  0.0417  0.1387 -0.0325
49773W        W92789  21.422  22.106   4.439 -0.0886 -0.0572  0.1691
49774W        W92790   5.598  26.898   0.021 -0.1833  0.1671 -0.1149
49775W        W92791  23.779   0.746   7.985  0.2277 -0.1312 -0.0587
49776W        W92792  24.387  23.470   2.778 -0.0716 -0.1267 -0.1079
49777W        W92793   1.832   7.666   5.011  0.2253  0.0643  0.3684
49778W        W92794  10.826   4.770  29.063 -0.4069  0.2906 -0.1600
49779W        W92795  34.582   0.573  23.714 -0.2101 -0.0503 -0.3546
49780W        W92796  23.869  25.502   9.034  0.1371  0.3201  0.0232
49781W        W92797   6.238  13.183   6.357 -0.0831  0.1294  0.0938
49782W        W92798  27.778  24.094  25.728  0.1868 -0.1531  0.1857
49783W        W92799  28.059   0.935   1.019  0.0375 -0.0251 -0.2326
49784W        W92800  18.584   4.853   0.202  0.2146 -0.2514 -0.0491
49785W        W92801  22.405  27.173   3.033  0.1072  0.0406  0.2010
49786W        W92802  11.443  31.437   3.488  0.2525  0.0367 -0.1929
49787W        W92803  28.578  29.504   8.601 -0.2033 -0.0021 -0.1953
49788W        W92804  32.436   3.561  24.617 -0.3032  0.1479  0.0409
49789W        W92805   2.863  23.936   0.262 -0.1547  0.1711 -0.0194
49790W        W92806  27.423   4.662  16.207  0.2387  0.1029 -0.1368
49791W        W92807  30.908  28.373   2.581 -0.0635 -0.1677  0.4504
49792W        W92808  29.805  13.439  23.592 -0.3143  0.1462 -0.1519
49793W        W92809  22.794  19.092   7.394  0.0471  0.2238 -0.1085
49794W        W92810  27.460  26.604   6.356 -0.4456  0.2060 -0.1031
49795W        W92811  19.534  20.217  21.312 -0.2840  0.1053 -0.1740
49796W        W92812  12.906  21.526   8.386 -0.1607  0.3393 -0.0791
49797W        W92813  25.281  25.781   9.320  0.2951 -0.1553 -0.1826
49798W        W92814  15.616  23.143   4.067  0.2396 -0.0418 -0.0327
49799W        W92815  31.155  19.121   6.885  0.1258 -0.0932  0.1289
49800W        W92816  32.025  18.169   4.266  0.1419 -0.0872  0.0133
49801W        W92817  25.688   3.948   9.733 -0.1705 -0.2719 -0.3709
49802W        W92818  30.545  25.215  27.776  0.0895  0.0077  0.2425
49803W        W92819  25.564  26.852  17.844 -0.1137 -0.3020 -0.2267
49804W        W92820  31.635   9.625  22.049  0.1951 -0.2091 -0.0145
49805W        W92821  33.774  33.129   9.815 -0.0040 -0.3343 -0.0527
49806W        W92822  28.462  33.489  20.195 -0.1677 -0.2442 -0.0279
49807W        W92823   0.297  20.916  20.071 -0.1754 -0.0920 -0.0181
49808W        W92824   0.969   9.371   7.518 -0.1251 -0.2273  0.4273
49809W        W92825   4.187  27.468   7.747  0.0356 -0.2552  0.0150
49810W        W92826   1.282   1.500   3.423 -0.1840 -0.3497  0.1268
49811W        W92827   1.825  25.467  28.397 -0.1242 -0.1156 -0.2351
49812W        W92828  27.358  24.907  11.109 -0.0339 -0.1130  0.0709
49813W        W92829   7.480   3.806  10.458 -0.0246 -0.2497 -0.1676
49814W        W92830  29.146  27.737   4.728 -0.1892 -0.0806 -0.2125
49815W        W92831   0.982  20.452   3.209  0.1011  0.0458  0.1465
49816W        W92832   5.095  20.446   3.320  0.0543  0.3299 -0.0397
49817W        W92833  32.917   3.124  27.730 -0.1884 -0.1359  0.1053
49818W        W92834  24.521  10.057   1.109  0.0051  0.0633  0.0077
49819W        W92835   1.746  30.685   6.845  0.1621 -0.0888 -0.0142
49820W        W92836   0.488   2.910   1.104  0.0734 -0.1483  0.4111
49821W        W92837   5.427  30.932   3.881  0.1787  0.1773  0.1170
49822W        W92838  19.016  13.308  23.849 -0.1722  0.0076  0.1968
49823W        W92839   2.208  17.867   9.154  0.1711 -0.0212  0.0279
49824W        W92840  31.004  20.665  26.092 -0.1757 -0.0749 -0.0573
49825W        W92841  28.948  21.219   2.461  0.2400 -0.0955  0.0353
49826W        W92842  27.109   1.954   1.960 -0.0064 -0.0869  0.1230
49827W        W92843  26.337   5.166   3.287  0.0282  0.0279 -0.0785
49828W        W92844   4.730   5.889   4.152 -0.0176 -0.0638 -0.1641
49829W        W92845   2.311  26.589   5.189  0.0302  0.0064  0.0398
49830W        W92846  18.481  29.766   3.768  0.0975 -0.1046 -0.0441
49831W        W92847  18.765   6.394   6.518  0.0672 -0.2569 -0.0351
49832W        W92848  23.647  33.407   5.626 -0.0882 -0.0773  0.2506
49833W        W92849  26.096  22.907   0.508  0.0831  0.0842  0.0754
49834W        W92850   6.873  10.497  27.950  0.0323 -0.4049 -0.0956
49835W        W92851  26.709  16.370  27.715  0.3944 -0.3331 -0.2148
49836W        W92852  18.393   2.398  29.102 -0.1790  0.0066  0.2465
49837W        W92853  33.553  10.701  26.051 -0.3331  0.1102  0.0360
49838W        W92854   0.379  33.367   9.161  0.0919 -0.2612 -0.0535
49839W        W92855   4.269  33.089  24.045 -0.1785  0.1327  0.5590
49840W        W92856   0.518  25.297   4.095  0.1618  0.1503 -0.1965
49841W        W92857  21.576  27.471  28.099 -0.1986  0.2621 -0.0016
49842W        W92858   8.344   2.625   7.234  0.0741  0.0328  0.2160
49843W        W92859  23.072   1.285   0.314 -0.0104  0.1437 -0.2972
49844W        W92860   0.767  32.358   0.175 -0.2584 -0.2801 -0.0087
49845W        W92861  15.725   8.956  25.830  0.1874  0.0118  0.2409
49846W        W92862  13.499   2.864  15.424  0.2981 -0.0362 -0.1823
49847W        W92863  34.449  30.310  11.088  0.2197  0.0913 -0.2200
49848W        W92864  16.972  34.734   6.489  0.0957 -0.0848 -0.0204
49849W        W92865   3.744  19.442   0.463 -0.0925  0.3806  0.2115
49850W        W92866  14.189   2.395   3.955  0.1434  0.2218 -0.0605
49851W        W92867  29.137  20.495   5.570 -0.1415  0.0588  0.2911
49852W        W92868  25.826  32.739   4.612  0.1910  0.0224 -0.0720
49853W        W92869  23.131  23.271   0.002  0.1860  0.2296 -0.1850
49854W        W92870  13.059   0.530   5.641  0.0851 -0.0161 -0.0805
49855W        W92871  19.105  31.473   9.660 -0.0849  0.2481 -0.1887
49856W        W92872  17.558  26.069  17.422  0.0799 -0.1729 -0.4459
49857W        W92873  33.319  24.594  16.761  0.2371 -0.0020  0.5052
49858W        W92874  19.687  34.719   3.481 -0.2076  0.1528  0.0009
49859W        W92875  21.137  26.918   6.381  0.1272 -0.1279  0.1083
49860W        W92876   8.698  11.254  29.188 -0.0497  0.1169  0.0725
49861W        W92877  22.452  28.352  25.602  0.1638 -0.1546  0.1569
49862W        W92878  25.004  27.185   8.230  0.2286 -0.2691  0.0235
49863W        W92879   9.840   7.899   5.878  0.4783  0.1309  0.0608
49864W        W92880  27.916   4.085   5.794 -0.0037  0.0143 -0.2909
49865W        W92881  30.137  14.470   1.651  0.0105  0.2394  0.3068
49866W        W92882  18.993  23.282   3.328  0.0061 -0.2482 -0.1222
49867W        W92883  28.224   0.003  23.574  0.0346  0.1344  0.4022
49868W        W92884  33.594  10.579   8.726  0.1023  0.0550  0.2585
49869W        W92885   5.307  25.215  14.596  0.1756 -0.0254  0.1122
49870W        W92886  20.775  33.205   0.880 -0.1128 -0.1853  0.2100
49871W        W92887  34.726  28.403  10.460  0.1381 -0.1166 -0.1274
49872W        W92888  19.682  24.244  27.525  0.1756  0.0116 -0.1433
49873W        W92889  17.240  18.231   1.012 -0.2319  0.0546 -0.0743
49874W        W92890  20.481  20.447   4.316  0.1293 -0.0255  0.3974
49875W        W92891  29.387  31.675   0.593 -0.0452 -0.1742  0.1953
49876W        W92892  16.805  30.853  28.062 -0.3521 -0.0455  0.1040
49877W        W92893  29.747  33.416   2.916 -0.2063  0.0581 -0.0812
49878W        W92894  19.078  13.671   5.808 -0.2942 -0.1616  0.0502
49879W        W92895  25.456  19.817  28.985  0.0556  0.0091  0.4420
49880W        W92896   7.972   0.540   3.124  0.0711  0.0343  0.1700
49881W        W92897  16.029  18.877   0.754 -0.2306 -0.1433 -0.2351
49882W        W92898  28.755  33.292  10.049  0.1415  0.0459 -0.2256
49883W        W92899  21.190  33.543   9.536 -0.1552 -0.2647 -0.1612
49884W        W92900  29.293  28.436   4.252  0.0081 -0.2017 -0.0825
49885W        W92901  28.041   5.273   9.173 -0.4422  0.1310 -0.1028
49886W        W92902   8.922  26.276   7.046  0.2977  0.0749  0.3508
49887W        W92903  31.991   1.533  10.682  0.1441  0.3626 -0.1161
49888W        W92904  30.644  23.318   1.991 -0.0515  0.1279  0.4095
49889W        W92905  30.641   2.536   3.759  0.2152 -0.0047  0.1133
49890W        W92906  25.063  20.584   9.193  0.3202 -0.2058 -0.0320
49891W        W92907  26.746  10.524   7.894 -0.2179 -0.0259 -0.3659
49892W        W92908  26.577  22.988   0.336 -0.1709 -0.2763 -0.0661
49893W        W92909  30.960   2.000   9.329 -0.2150  0.1839 -0.0118
49894W        W92910   3.543   2.773  22.350  0.3672  0.0279  0.2968
49895W        W92911  31.655  20.789   9.864  0.0880 -0.0712  0.3201
49896W        W92912  21.905  31.843   1.064 -0.0043 -0.2107  0.2009
49897W        W92913  20.211  32.503  29.226  0.1683 -0.0734 -0.0441
49898W        W92914   3.615  27.527   4.455  0.1137  0.0324 -0.4367
49899W        W92915  17.717  16.089  16.682  0.1443  0.0142  0.3421
49900W        W92916   4.163   7.845  20.013 -0.1204  0.0261 -0.0279
49901W        W92917  27.065  32.990   9.546  0.0376 -0.3054  0.3046
49902W        W92918  33.824  16.329  10.119  0.0218 -0.1093  0.2081
49903W        W92919  21.848  10.562   8.854  0.0487 -0.5750 -0.1417
49904W        W92920  32.567  12.429   7.823 -0.2635  0.2655 -0.1915
49905W        W92921  24.223   0.444   6.995 -0.0995 -0.0258 -0.1462
49906W        W92922  23.359  25.420  26.983 -0.0101  0.0824  0.1131
49907W        W92923  32.428  19.685   5.991 -0.0105  0.4150  0.0336
49908W        W92924   0.310  30.554   8.532 -0.1726 -0.1881 -0.0293
49909W        W92925  26.029  15.026  27.155 -0.1830 -0.0598 -0.0100
49910W        W92926   1.831  28.892   8.805  0.0115 -0.1492 -0.0666
49911W        W92927  19.524   9.504   6.550 -0.1949 -0.2391  0.1977
49912W        W92928  33.147  22.203   2.121  0.1407  0.0874 -0.1148
49913W        W92929   0.123  21.632   5.745  0.0038 -0.0841  0.0266
49914W        W92930  28.248  18.770   5.705  0.1567  0.1969  0.0596
49915W        W92931   4.060  33.653   7.738 -0.0971 -0.2742 -0.2893
49916W        W92932  25.844  29.243  18.194  0.3131  0.1358  0.1953
49917W        W92933   3.797  27.256  24.280  0.1871 -0.0030  0.3839
49918W        W92934  32.243  24.751   1.564 -0.1757 -0.0182  0.0789
49919W        W92935  32.017  33.918   6.289  0.0833 -0.2015  0.2516
49920W        W92936  16.894  31.151   5.626  0.0396  0.1154  0.4822
49921W        W92937  17.655  27.951  10.100 -0.2446 -0.1931 -0.3812
49922W        W92938  29.207  30.157   2.249 -0.3012 -0.0294 -0.0172
49923W        W92939   7.615   8.549  23.519 -0.1158  0.2875  0.2681
49924W        W92940  20.896  16.396   9.301  0.4085 -0.2033 -0.0599
49925W        W92941  16.886  11.099  23.654  0.0861 -0.0246 -0.0655
49926W        W92942   9.979  15.218   3.783  0.0913  0.0029  0.0062
49927W        W92943  26.628  13.523   8.252 -0.0864 -0.1129  0.1182
49928W        W92944  31.681  34.324   9.573 -0.2218 -0.3893  0.3187
49929W        W92945  34.159  29.395  24.028  0.1457  0.1064 -0.3145
49930W        W92946  10.008  18.009  23.061 -0.0624  0.2099  0.1795
49931W        W92947  21.910  33.933  24.339  0.0232 -0.0638  0.3061
49932W        W92948   1.034  27.915   6.725 -0.4049 -0.3781 -0.0680
49933W        W92949  23.315  31.040   8.096  0.0982 -0.1107 -0.1561
49934W        W92950  30.633   5.642  26.089 -0.1421 -0.1817 -0.3497
49935W        W92951   3.801   1.235   8.463 -0.3335  0.5290 -0.0700
49936W        W92952  18.415  21.827   1.742  0.0064  0.0246  0.0276
49937W        W92953  29.342   9.149   2.764  0.2282 -0.0297  0.0367
49938W        W92954  31.269  31.333   2.282 -0.1425 -0.3638 -0.0173
49939W        W92955  29.547  18.169  25.585 -0.2784  0.1125  0.1910
49940W        W92956  14.559   1.474   5.598  0.2203 -0.0484 -0.2663
49941W        W92957  30.036  13.339   1.496 -0.2312  0.2364 -0.2160
49942W        W92958   0.167  11.818   6.199 -0.6045 -0.0153  0.0913
49943W        W92959  12.597   0.935   8.470  0.3626 -0.2265 -0.2410
49944W        W92960   1.573   5.060   5.178 -0.0503 -0.3685 -0.1574
49945W        W92961   0.226   2.424   4.674 -0.0940  0.0765  0.1908
49946W        W92962   7.232   5.035  21.652 -0.0585  0.0347  0.2109
49947W        W92963   8.549   9.978   1.209 -0.2077  0.1880 -0.2603
49948W        W92964   0.798  31.902  29.305 -0.1520  0.0348  0.1073
49949W        W92965  28.719   1.928   9.276  0.1084  0.0583  0.0240
49950W        W92966  23.926   3.712  21.648  0.2577  0.2235  0.0064
49951W        W92967  32.217  16.467  19.658  0.0640  0.0195  0.2272
49952W        W92968  29.922  19.817  20.301  0.0795  0.1827  0.3173
49953W        W92969  25.188  33.716  29.047  0.0954 -0.0140  0.2944
49954W        W92970  20.158  21.962   1.452 -0.3018  0.1529  0.1794
49955W        W92971   8.815   7.000   8.987  0.0173  0.4176  0.1507
49956W        W92972  32.733  28.004   6.761  0.0495 -0.0911 -0.0538
49957W        W92973  33.575  32.190   6.969 -0.0034 -0.2559  0.3855
49958W        W92974   1.768   5.525   6.820  0.0916  0.0793 -0.2768
49959W        W92975   7.014  15.476   2.223 -0.2503 -0.1026  0.1033
49960W        W92976  27.480  32.767   2.298 -0.3851  0.2061  0.0327
49961W        W92977  32.982  24.885   6.395  0.1501 -0.1836 -0.3141
49962W        W92978  26.820   8.182  28.363 -0.2134  0.0015 -0.0879
49963W        W92979  32.899   3.095   2.286  0.2926 -0.1338  0.2136
49964W        W92980  30.483  28.512   9.396  0.1675  0.1001  0.2247
49965W        W92981  30.266  34.419  22.593  0.0843 -0.2200  0.1219
49966W        W92982  29.031   7.624  10.356 -0.2132 -0.2971 -0.0053
49967W        W92983  33.813  29.449   0.515 -0.0618  0.0878 -0.0023
49968W        W92984  34.062  24.983  27.402 -0.0201 -0.0096  0.0073
49969W        W92985  10.570   8.838   9.064 -0.1424  0.1493  0.0818
49970W        W92986  20.474  29.615   4.337  0.3453 -0.1329  0.1094
49971W        W92987   4.958  29.840  29.296  0.0502 -0.0917  0.1922
49972W        W92988  28.728   6.698  11.339 -0.2887 -0.1210 -0.2151
49973W        W92989   1.276   1.804   6.681 -0.1338 -0.0452  0.3183
49974W        W92990  22.657   4.725   9.850  0.1252  0.0897  0.0547
49975W        W92991  13.028   4.005   3.751 -0.1433  0.2310 -0.3748
49976W        W92992  25.716   1.963   1.480 -0.0138 -0.0069 -0.2246
49977W        W92993   5.742  13.027  29.205  0.2185  0.0617 -0.1482
49978W        W92994  13.217  26.146   4.788 -0.1272  0.0008 -0.0306
49979W        W92995  22.615  33.747  11.137  0.0066 -0.2589 -0.2119
49980W        W92996  14.834   0.270   5.925 -0.0567 -0.1928 -0.1800
49981W        W92997  21.442  17.968   3.478  0.2444  0.0025 -0.0448
49982W        W92998  22.736  18.467   2.011 -0.2778  0.2343  0.0665
49983W        W92999  31.276  19.727   6.862 -0.0821  0.1767 -0.0923
49984W        W93000  21.885   2.374  22.741  0.0746  0.0203  0.1255
49985W        W93001  33.145  20.297  22.605  0.0182  0.1744 -0.1177
49986W        W93002   1.348  22.935  27.126  0.0669  0.1609 -0.0205
49987W        W93003  32.187  23.408   2.067 -0.0296  0.1982 -0.3442
49988W        W93004   5.538   0.134   7.606 -0.2728  0.2326  0.1968
49989W        W93005  24.709   4.751   9.695 -0.1989  0.3021 -0.1254
49990W        W93006   6.804  24.541   3.437 -0.1117 -0.0265 -0.0150
49991W        W93007  20.901  12.723   5.730  0.1255 -0.1036  0.1267
49992W        W93008  21.342  33.648   3.784  0.3842  0.2726 -0.0496
49993W        W93009  27.726  15.385  28.591  0.1282 -0.1667 -0.0719
49994W        W93010  20.324  24.818   4.000  0.0116  0.1478 -0.0409
49995W        W93011  32.669  21.354   1.231 -0.0729  0.2250  0.1792
49996W        W93012   2.186  24.804   1.547 -0.1760 -0.2614  0.0272
49997W        W93013  18.605   1.280  23.183 -0.2766  0.0817  0.0088
49998W        W93014  23.571   0.458   9.568 -0.1184 -0.4231 -0.0280
49999W        W93015  14.966  30.787   8.348  0.1166 -0.0206  0.0819
50000W        W93016  33.974   3.071   2.110  0.0950  0.2571  0.2518
50001W        W93017  32.500  25.197   0.138 -0.2034 -0.2122 -0.0674
50002W        W93018  17.697  31.827  10.124 -0.0599  0.1363 -0.0284
50003W        W93019  29.635   7.958   7.278  0.1273 -0.1087 -0.1757
50004W        W93020  24.222  30.770  27.963 -0.3531 -0.0646 -0.1180
50005W        W93021   9.156   1.535  23.397 -0.1745 -0.4816  0.2125
50006W        W93022  26.488  31.756   8.139 -0.0583 -0.0016 -0.0798
50007W        W93023  33.728  10.898   8.277  0.1782  0.2421 -0.0510
50008W        W93024   9.450  24.029  24.268  0.1498 -0.0298 -0.0248
50009W        W93025  18.899  13.987   1.832 -0.0172 -0.2217 -0.0804
50010W        W93026  30.445   7.266  28.972 -0.1922  0.0629 -0.0344
50011W        W93027   3.534  31.335   4.954 -0.1463  0.3120 -0.2287
50012W        W93028  13.058  28.577   3.554 -0.1000 -0.2952 -0.0559
50013W        W93029   1.534   9.468  15.996  0.2051  0.0487 -0.0527
50014W        W93030  31.710  27.123   1.717  0.4492  0.1263 -0.3153
50015W        W93031   3.699  22.270   7.287 -0.0910  0.4016 -0.0574
50016W        W93032   1.094  24.524   6.427  0.0904 -0.2867 -0.2416
50017W        W93033   3.455  33.698   6.969  0.1882  0.0943  0.1226
50018W        W93034   0.049  27.482   0.071 -0.1983  0.2505 -0.1016
50019W        W93035  26.884  25.589   8.433 -0.0901 -0.0386  0.0925
50020W        W93036  28.226  21.597   1.316  0.0307 -0.2910 -0.1244
50021W        W93037  32.622  31.080   7.805  0.0546 -0.0749 -0.2122
50022W        W93038  28.311  29.026   5.856 -0.2572 -0.1539  0.1867
50023W        W93039  25.499  22.234   1.872 -0.1424 -0.1379 -0.0502
50024W        W93040  27.770  15.912   1.151 -0.0241 -0.1549 -0.4202
50025W        W93041  10.648   4.214  27.486  0.0445 -0.1646  0.3298
50026W        W93042  19.861  10.324  16.232 -0.0237  0.0735  0.1130
50027W        W93043  28.507  19.618   3.113  0.0946  0.1495  0.1063
50028W        W93044   2.804   6.537  19.975  0.1034  0.1704 -0.3888
50029W        W93045  24.095  32.002   9.780 -0.2883  0.1306 -0.0123
50030W        W93046  27.513  11.199   7.603 -0.1417 -0.0335  0.0470
50031W        W93047  30.739   8.816   9.565  0.1348 -0.2369 -0.0922
50032W        W93048  25.932  29.352   4.105 -0.0808 -0.0569 -0.0277
50033W        W93049   3.099  10.892   6.826  0.1682 -0.0661  0.0578
50034W        W93050  32.575  24.088  23.954  0.0841 -0.0051  0.1092
50035W        W93051  26.221   3.780   4.371 -0.0173 -0.0307 -0.3743
50036W        W93052  34.203  20.146  28.472 -0.1150  0.4229  0.2400
50037W        W93053   8.644  14.352   4.571 -0.2368 -0.2061  0.2971
50038W        W93054   5.512   7.257   6.202  0.2000  0.0517 -0.2659
50039W        W93055   5.616  29.186  27.396 -0.0174  0.3062  0.2167
50040W        W93056  15.903   4.048   4.978 -0.0768 -0.1221 -0.2363
50041W        W93057  18.603  30.865   6.821  0.0515  0.1296 -0.2003
50042W        W93058  14.970   4.068  24.272  0.1687 -0.1381  0.1272
50043W        W93059  26.434   0.734   9.163  0.2758  0.0899 -0.0691
50044W        W93060   4.889   9.631  17.966 -0.2936  0.0320  0.0015
50045W        W93061  21.006   0.312   3.686 -0.3736  0.2147  0.1859
50046W        W93062   2.714  28.948   8.495 -0.0417  0.1439  0.2895
50047W        W93063  33.953  14.239   3.982 -0.2532  0.0063  0.1713
50048W        W93064  34.280  33.208  29.229 -0.0531 -0.2317 -0.0050
50049W        W93065  34.719   0.066  10.399 -0.1985 -0.2029  0.0571
50050W        W93066  28.659  34.068   6.023 -0.0796  0.0698 -0.2690
50051W        W93067  31.771  33.321   8.433 -0.0623 -0.1697  0.1326
50052W        W93068  21.829  19.523   0.225 -0.0544 -0.1986  0.0936
50053W        W93069  22.624  28.320  20.456  0.2312 -0.1166 -0.0314
50054W        W93070   3.383   1.967   5.876 -0.0062 -0.2099  0.2210
50055W        W93071  29.195  29.239   4.668  0.0625  0.3586  0.1395
50056W        W93072  12.317  27.221   7.450 -0.1114  0.1931  0.2264
50057W        W93073   0.257  29.329   7.076  0.0941  0.0235  0.1168
50058W        W93074  23.563  24.326  20.012  0.0796 -0.2203 -0.3100
50059W        W93075  21.843  12.723   0.729 -0.0196 -0.0149  0.2765
50060W        W93076  23.983  27.329   1.792 -0.0089  0.0375  0.2758
50061W        W93077  23.597  17.992   6.297  0.0296  0.3174  0.1397
50062W        W93078  32.808  17.331  26.969  0.1949  0.0219 -0.2634
50063W        W93079   8.220   9.188   8.855  0.4352 -0.1829 -0.1145
50064W        W93080  10.751   1.996   9.674 -0.0515  0.2839  0.1208
50065W        W93081   5.020  19.502   9.326  0.0502 -0.0599 -0.0328
50066W        W93082  11.009  31.604  25.185 -0.2955 -0.0437  0.0504
50067W        W93083   3.630   1.373   7.335  0.2230  0.0979  0.2650
50068W        W93084  28.162  24.989  27.068 -0.3836  0.1496 -0.2608
50069W        W93085  31.781  27.004   2.222  0.0938 -0.2178  0.0394
50070W        W93086  24.024  27.521   7.116  0.2091 -0.1088 -0.0051
50071W        W93087  16.750  14.934   7.148 -0.1140 -0.2033  0.0479
50072W        W93088  25.462  33.408   3.181 -0.0505  0.1325 -0.1035
50073W        W93089  25.900  22.590   1.805 -0.1351 -0.1122  0.0297
50074W        W93090   0.820  18.103  22.832  0.2479  0.0893 -0.1907
50075W        W93091  19.421  28.530  27.025  0.1743  0.0953  0.1228
50076W        W93092   5.360  32.449   9.131  0.1754 -0.0837 -0.2931
50077W        W93093  13.570  14.705  27.280 -0.0014  0.1617  0.0091
50078W        W93094  23.245  32.934   7.977  0.1726 -0.3083  0.0270
50079W        W93095  15.909   4.306   1.390 -0.1885 -0.0350  0.0306
50080W        W93096   6.326   0.540   3.848  0.1857  0.2266  0.0134
50081W        W93097  33.809  30.685   1.731 -0.3166  0.3609  0.2541
50082W        W93098  30.449   0.672   9.993  0.1311  0.2371 -0.0201
50083W        W93099  29.861  10.460   5.104 -0.2467 -0.1267  0.1527
50084W        W93100   8.770   4.765  25.453  0.1054  0.0838  0.1009
50085W        W93101  29.169   1.751   6.545 -0.1222 -0.0743 -0.2339
50086W        W93102  16.489   1.564   3.574  0.0655  0.1485  0.0126
50087W        W93103  21.167  33.056   7.309 -0.1449  0.1576  0.1460
50088W        W93104  15.861  11.422  25.499 -0.0153 -0.2793 -0.0581
50089W        W93105  34.492  14.769   7.275  0.1538  0.0117 -0.0554
50090W        W93106  29.941   5.145   2.793  0.4270  0.0145  0.1502
50091W        W93107  21.954  33.604   1.192 -0.2490 -0.1296 -0.2816
50092W        W93108   1.327  28.396  29.181 -0.1495  0.1166 -0.4093
50093W        W93109  31.308  34.452  22.707  0.0204 -0.1930  0.1322
50094W        W93110   3.965  29.172  27.973  0.1337  0.1260  0.0285
50095W        W93111  29.862  27.077  11.366 -0.2389 -0.1091 -0.2991
50096W        W93112  23.083  28.510   1.181 -0.1210 -0.0435 -0.0182
50097W        W93113  28.611   5.248   6.329  0.0449 -0.1167  0.0788
50098W        W93114  30.797   6.561   9.935  0.1393 -0.0044  0.1967
50099W        W93115   5.934   7.793   8.691 -0.2269 -0.0666 -0.1302
50100W        W93116  12.082   0.751   9.118  0.0167 -0.2995  0.1454
50101W        W93117  14.968  20.312   6.020  0.1585 -0.2034 -0.2048
50102W        W93118  33.361   6.884  21.012  0.2120  0.2231 -0.0791
50103W        W93119  18.210  31.449   0.624  0.3733  0.0941 -0.0115
50104W        W93120  24.464  24.519  10.791 -0.2047 -0.1305  0.0230
50105W        W93121   3.092  23.072  24.269 -0.1526 -0.0153  0.0340
50106W        W93122  15.712   7.096   6.554 -0.0195  0.0848  0.0491
50107W        W93123   8.775  29.009   8.904 -0.0784 -0.1766  0.0848
50108W        W93124  11.660   0.380   6.422  0.1961  0.0433 -0.0794
50109W        W93125   1.374  20.126   5.501 -0.1948  0.1697 -0.4779
50110W        W93126  33.340  32.584   9.838  0.0013 -0.0377 -0.0409
50111W        W93127  21.370   0.756   6.136  0.1254  0.2620  0.2832
50112W        W93128   3.388  14.888   2.839  0.0447  0.1889  0.0124
50113W        W93129  22.699   0.200   8.627 -0.0172  0.3436  0.1388
50114W        W93130  27.319  27.517  20.924  0.1088 -0.1342 -0.1491
50115W        W93131  29.184   3.866   3.519  0.3809  0.0406  0.3441
50116W        W93132   6.285  27.701  27.006  0.0544  0.0126  0.1793
50117W        W93133  22.102   1.261  26.756 -0.1522  0.2872 -0.0477
50118W        W93134  17.341   2.049   9.041  0.1618  0.0457 -0.1182
50119W        W93135   1.490  26.006   0.195  0.1491  0.1145  0.1427
50120W        W93136  21.525  22.393  25.316  0.3898 -0.1159  0.0072
50121W        W93137  32.086  25.945   2.646 -0.1074  0.0126 -0.0792
50122W        W93138  23.594  29.103   4.817  0.0118  0.1601  0.1449
50123W        W93139  15.610   1.039   4.064  0.1275  0.0245  0.0812
50124W        W93140  21.283  26.198   9.843  0.2687  0.0625 -0.0659
50125W        W93141  22.376  20.378   9.148 -0.0188 -0.0096  0.2157
50126W        W93142  13.119   1.810   2.559 -0.0686 -0.2262  0.2668
50127W        W93143  33.263  31.227   8.916 -0.0120 -0.3186  0.3854
50128W        W93144  26.934  34.008   4.081  0.3438  0.0465 -0.1125
50129W        W93145  26.262  24.524   8.129 -0.1495  0.0168  0.0621
50130W        W93146  28.989   9.098   7.040 -0.1594 -0.0529 -0.1303
50131W        W93147  11.412  19.607   2.953  0.0592  0.3897  0.0347
50132W        W93148  29.946  30.331   6.950  0.0052 -0.0179 -0.3215
50133W        W93149  25.770  17.648   0.165  0.1354  0.0164  0.1634
50134W        W93150  26.240  30.001   8.453  0.3023  0.1614  0.1156
50135W        W93151  28.799   6.680   5.874 -0.1231 -0.0920 -0.1080
50136W        W93152  34.702  24.183  16.824 -0.1287 -0.2261 -0.1930
50137W        W93153  23.944   2.416   9.257 -0.0097 -0.0001  0.0299
50138W        W93154  23.697  24.982  25.757  0.0132  0.1333  0.0909
50139W        W93155   6.810  11.526   8.492 -0.1250  0.0861  0.0573
50140W        W93156   0.191   3.514  26.030  0.1459  0.1051 -0.1096
50141W        W93157  33.699   1.338   7.482 -0.0330  0.0251  0.1306
50142W        W93158  33.521  27.411  28.100  0.0415  0.1901  0.3184
50143W        W93159   3.468  26.025   6.930  0.3788  0.1468  0.0243
50144W        W93160  28.513  13.628   1.470 -0.1188  0.1364  0.2543
50145W        W93161  29.325  34.055  10.758 -0.4123  0.0495  0.1372
50146W        W93162  20.181  29.382   2.019 -0.4367 -0.0722  0.1588
50147W        W93163   2.947  10.059   6.530 -0.0300  0.0669 -0.0528
50148W        W93164  16.781  14.883  26.232 -0.0210 -0.2527 -0.1254
50149W        W93165  31.464  28.281   4.164 -0.0439 -0.1030 -0.1043
50150W        W93166   3.979  27.130   4.531 -0.3172  0.1246  0.2139
50151W        W93167  30.495  32.326  15.828 -0.3238 -0.1233 -0.2091
50152W        W93168   0.724  31.945   7.444  0.2495  0.1453  0.3707
50153W        W93169   6.020   0.315   6.324  0.1457 -0.0447  0.0428
50154W        W93170  24.375  32.728   7.213 -0.0788  0.1148 -0.2253
50155W        W93171  27.718   8.532   2.126  0.2812 -0.1948 -0.2297
50156W        W93172   1.532   7.069   7.353 -0.0978  0.2159  0.2412
50157W        W93173  34.094  33.619   9.902  0.0529  0.0741 -0.0008
50158W        W93174   6.849  25.809   5.446 -0.0451  0.0875 -0.2398
50159W        W93175  31.167   0.302   9.580 -0.1014 -0.1421  0.0539
50160W        W93176  20.483   5.502   6.197 -0.1492 -0.0237  0.1387
50161W        W93177   4.647  28.067   9.334  0.0062  0.0674 -0.0001
50162W        W93178   3.823   9.284  28.876 -0.1578 -0.1672 -0.2281
50163W        W93179  23.715  23.833   7.609 -0.2002  0.1113  0.1169
50164W        W93180  24.135  24.997   4.810  0.2002  0.3662  0.2279
50165W        W93181  23.663  25.279  21.836  0.0768 -0.3465  0.3843
50166W        W93182  32.692  22.800   1.321 -0.0129 -0.3220  0.1467
50167W        W93183   9.775  32.304  26.599  0.0433 -0.3652 -0.1159
50168W        W93184  31.515   3.660   5.183 -0.2063 -0.2113 -0.0463
50169W        W93185   1.095  23.547   3.506 -0.2187  0.0896  0.1285
50170W        W93186  24.908   3.661   1.139  0.0478  0.2717  0.1344
50171W        W93187  33.739  25.827  27.213 -0.1971  0.0512  0.1977
50172W        W93188  19.824  27.915  28.403 -0.2280 -0.0575  0.1272
50173W        W93189  27.625  26.998  11.509 -0.0366 -0.1227 -0.1598
50174W        W93190   1.417  20.541  27.163 -0.0232 -0.0493 -0.0376
50175W        W93191   6.281  31.733   3.200 -0.0311 -0.2227 -0.2761
50176W        W93192  29.485  24.759   5.888  0.0973 -0.0111 -0.1082
50177W        W93193  30.031  22.390  20.957 -0.1411  0.0771  0.0687
50178W        W93194  20.911  28.241  18.346  0.5886 -0.1758 -0.1407
50179W        W93195   2.956  17.218   3.056 -0.3109 -0.1108  0.1138
50180W        W93196  29.512  28.739   6.843 -0.2682  0.2036  0.2512
50181W        W93197  32.594  23.111   6.307 -0.1633 -0.1697 -0.1589
50182W        W93198  17.703   5.196   4.754 -0.3261  0.3194  0.0505
50183W        W93199   7.205  27.889   8.259 -0.0105  0.0244  0.5706
50184W        W93200  28.783  17.569   8.900 -0.0125 -0.0513 -0.3807
50185W        W93201  13.749  22.745   7.837 -0.0190 -0.2356  0.1897
50186W        W93202  23.260  29.030   6.162  0.1287  0.1325  0.0099
50187W        W93203  27.219  17.604   0.303 -0.2615 -0.0105  0.0805
50188W        W93204  13.741  25.500   6.331 -0.2697 -0.3599 -0.2115
50189W        W93205   2.011  34.734   5.589 -0.1399  0.3363 -0.1798
50190W        W93206   0.416  17.975   5.993  0.2837  0.1458  0.2021
50191W        W93207  22.320   1.263   4.155  0.1255  0.0478  0.2902
50192W        W93208  32.842   2.822   9.179 -0.0123  0.0604  0.2643
50193W        W93209  27.217  14.178   9.921  0.0709  0.1108 -0.3531
50194W        W93210  25.474  31.680   4.567 -0.2283  0.1223  0.0645
50195W        W93211  28.531  16.048   3.588  0.2283 -0.0750 -0.0544
50196W        W93212  32.726  18.104   6.602 -0.3055 -0.1950  0.1422
50197W        W93213  32.805  10.013   2.895 -0.3224  0.3526  0.1965
50198W        W93214  28.520  24.486   9.114 -0.1132 -0.0136 -0.0624
50199W        W93215  18.151   9.703   6.979 -0.3630  0.0757  0.1921
50200W        W93216  30.790  23.397   2.513  0.3882  0.2462  0.0206
50201W        W93217   1.095  26.986  17.774  0.2646 -0.2108 -0.0024
50202W        W93218   8.239  25.622   3.084 -0.0584 -0.1501 -0.0920
50203W        W93219  12.893  19.121   3.023  0.1202 -0.2206 -0.1619
50204W        W93220  13.399  30.921  28.595 -0.0815 -0.0567 -0.2108
50205W        W93221  10.804  29.281  21.142  0.0021 -0.2709  0.2216
50206W        W93222  31.108  33.283   5.703  0.1290 -0.0073 -0.1167
50207W        W93223  22.490  10.294   4.473  0.1643  0.1446  0.4630
50208W        W93224  23.874  26.349  27.791  0.2239  0.2126  0.0112
50209W        W93225  34.118  30.807   6.061 -0.2706 -0.2856  0.0083
50210W        W93226   5.288  31.148   5.211 -0.1514 -0.0434  0.3255
50211W        W93227  34.141  25.969   7.203  0.2760 -0.1127 -0.1164
50212W        W93228  25.955   2.739  26.429 -0.0074  0.4652 -0.1399
50213W        W93229   7.882   2.300   1.184  0.0038 -0.0052 -0.0388
50214W        W93230   2.548  27.230  28.272  0.0541 -0.2557  0.1619
50215W        W93231  33.498  10.896  27.183  0.2593 -0.0516 -0.3030
50216W        W93232  31.199   7.155  10.181  0.1300 -0.0964  0.3074
50217W        W93233   2.839  33.834   7.149 -0.2860  0.0598 -0.2925
50218W        W93234  32.800  28.001   8.434 -0.1893  0.1402  0.0948
50219W        W93235   2.828  21.679  28.977  0.1902  0.1023  0.1134
50220W        W93236   4.226   6.684   8.339  0.5221  0.4330  0.0074
50221W        W93237  29.267   0.522   3.155  0.3163  0.0836 -0.1454
50222W        W93238   7.841  27.098   9.729 -0.1440  0.2062  0.0739
50223W        W93239   8.782  25.021   7.056 -0.2282  0.0568  0.2307
50224W        W93240  32.920  21.904   7.467  0.1167 -0.1294 -0.1602
50225W        W93241  29.798  25.948   2.660 -0.2158 -0.0031 -0.0472
50226W        W93242  21.067  23.429  28.426  0.0243  0.0063 -0.0013
50227W        W93243  19.011  31.457   5.493  0.0315 -0.0080 -0.0581
50228W        W93244  24.871  25.343   2.302  0.0394  0.0337 -0.0771
50229W        W93245  23.396   4.106   4.753 -0.2170  0.1552 -0.0662
50230W        W93246  20.934  19.336   7.088  0.0691  0.1430  0.2692
50231W        W93247  25.358  25.760  25.611  0.1986  0.0544 -0.1506
50232W        W93248  31.481  27.977   1.378 -0.2068  0.2679 -0.3187
50233W        W93249  25.044  31.353  11.009  0.1003  0.1932  0.3654
50234W        W93250   6.036   6.466  27.753 -0.0679  0.1481 -0.2406
50235W        W93251  29.886  25.121   3.621  0.0302  0.0752  0.0534
50236W        W93252  31.294  31.864   4.156  0.1838 -0.1759  0.2451
50237W        W93253  34.085  32.803  10.868 -0.1171  0.0328 -0.2533
50238W        W93254  23.105  28.293   3.074  0.4309  0.1518  0.1832
50239W        W93255  29.418  31.014   4.927  0.0495 -0.2468 -0.0498
50240W        W93256  13.335   7.479  20.282 -0.2707 -0.3744 -0.1845
50241W        W93257   9.338  11.078  28.129 -0.1032  0.0834 -0.0553
50242W        W93258  33.401   8.948   4.058  0.3182 -0.1140  0.1577
50243W        W93259   3.670  26.028   9.387 -0.2031 -0.0324 -0.0585
50244W        W93260  29.649  19.128  26.316 -0.0174  0.1388 -0.1483
50245W        W93261  15.445   5.114  29.034  0.2008 -0.0101 -0.0529
50246W        W93262  20.204  32.371   5.427  0.3976 -0.1246  0.0683
50247W        W93263  26.919  23.363  10.762  0.0667 -0.1071 -0.3598
50248W        W93264   0.043  23.162   5.832 -0.4438 -0.1741 -0.0190
50249W        W93265  28.072  14.967  24.469 -0.3782 -0.0633 -0.0589
50250W        W93266  22.832  33.002  10.451 -0.0770  0.1816 -0.1377
50251W        W93267   1.314  23.911   8.886  0.1837 -0.0443  0.0656
50252W        W93268  32.013  33.714   2.398  0.0914  0.1487  0.0177
50253W        W93269  33.722   0.413   9.708 -0.0062 -0.1376 -0.1125
50254W        W93270   9.656  23.600   8.039  0.2168  0.3681 -0.1646
50255W        W93271   8.069  22.291   5.672  0.0140  0.0813  0.0250
50256W        W93272   3.236  31.953  26.243  0.1584 -0.2256  0.1124
50257W        W93273  26.124   0.398   3.935 -0.2493  0.1409 -0.1896
50258W        W93274  29.560  29.715   4.084  0.0077 -0.0208  0.2243
50259W        W93275   3.535   8.463   0.418  0.0881 -0.0184 -0.0667
50260W        W93276  30.491  26.225   8.383 -0.0856  0.1422  0.1196
50261W        W93277  27.930  33.590  29.124  0.0475 -0.1938 -0.0484
50262W        W93278  29.636  27.628  26.670 -0.0648 -0.1133 -0.0746
50263W        W93279  12.494  16.421  13.372  0.0170  0.1931  0.2257
50264W        W93280  27.752  10.496  10.003 -0.1923  0.1199 -0.3937
50265W        W93281   8.715  21.345   8.485 -0.3479  0.2592 -0.3323
50266W        W93282  14.437  17.437  21.553 -0.3265  0.1448 -0.1350
50267W        W93283  23.563  28.896   8.552 -0.1652  0.1219  0.1220
50268W        W93284   2.933   3.472   4.088  0.1592  0.3450 -0.0810
50269W        W93285   8.082  26.561   2.024  0.0082 -0.0859 -0.0398
50270W        W93286  32.642   1.740   7.693  0.1574  0.0504  0.0800
50271W        W93287  24.795   0.160   5.777  0.1547 -0.1294  0.1200
50272W        W93288  17.741   7.629   6.348  0.0868  0.2686 -0.1528
50273W        W93289  22.124  19.550  28.073  0.0771  0.2910  0.0375
50274W        W93290  21.065  32.357  24.481  0.0111 -0.0159  0.1300
50275W        W93291  26.923   7.759  24.731 -0.1793 -0.1469 -0.1035
50276W        W93292  18.373  31.981  16.793 -0.0587  0.1896  0.1248
50277W        W93293  33.041   2.495  19.415  0.1624  0.0171  0.1977
50278W        W93294  24.909  24.690  27.522  0.0428  0.2297 -0.1737
50279W        W93295  18.690  24.636  21.714  0.1401  0.4594 -0.1149
50280W        W93296   7.673   7.421   5.229  0.1020  0.0172 -0.3689
50281W        W93297  28.870   7.336   6.625  0.3030  0.1938 -0.0436
50282W        W93298  11.846  25.948  20.906  0.0016  0.2019  0.0272
50283W        W93299  14.154  29.991   4.968  0.1335  0.0988  0.0711
50284W        W93300  21.959  18.466  20.154 -0.5441 -0.1915 -0.0865
50285W        W93301   0.465  31.825   3.860 -0.1183 -0.3080 -0.1835
50286W        W93302  32.857  29.539   6.790  0.2382  0.1143 -0.2666
50287W        W93303   0.286  31.824  27.086  0.0899  0.1712  0.4392
50288W        W93304   3.974   4.691  27.847  0.1908 -0.0199 -0.0063
50289W        W93305  33.812  13.304   2.109  0.0790 -0.1092 -0.2241
50290W        W93306  32.779  20.389  28.965  0.2295  0.2730  0.2628
50291W        W93307  16.316   0.281   6.359 -0.0459 -0.4397  0.1624
50292W        W93308   2.507  17.769   1.331 -0.2576  0.0411 -0.1624
50293W        W93309  18.576  27.248   3.067 -0.2359 -0.3766 -0.0397
50294W        W93310  17.444   0.015   9.121 -0.2248  0.3125 -0.1625
50295W        W93311   6.757   6.938   4.794  0.1493 -0.0391  0.1471
50296W        W93312  27.379  29.939   5.108  0.2904 -0.0221 -0.0902
50297W        W93313  29.807  29.374   9.580 -0.2170  0.1482 -0.2600
50298W        W93314  27.104   5.108  24.703  0.0618  0.2306 -0.2500
50299W        W93315  22.016   5.398   9.692 -0.0299  0.3751  0.3011
50300W        W93316   5.254  19.784   1.333  0.1524 -0.0774 -0.5114
50301W        W93317   2.353  24.977   9.030  0.1824 -0.0160 -0.1340
50302W        W93318  20.960  28.396   2.161 -0.4189 -0.1439  0.0603
50303W        W93319  33.422   7.649  10.802  0.0858  0.0935 -0.0298
50304W        W93320  10.542  22.343   3.936 -0.1010 -0.1248  0.0561
50305W        W93321  13.302  31.931  28.937 -0.0130 -0.0158  0.1697
50306W        W93322  34.271   3.495  22.672 -0.0020 -0.0042 -0.0517
50307W        W93323  28.826  15.692   3.315 -0.0966  0.0898 -0.0093
50308W        W93324  21.946  25.179   9.952 -0.1796  0.1251  0.0640
50309W        W93325  28.092  34.119  28.015 -0.1305  0.0587 -0.0645
50310W        W93326  33.551  15.203  29.084  0.0155 -0.0589 -0.2328
50311W        W93327   5.069  10.635   5.995  0.0966 -0.2372  0.0454
50312W        W93328  14.675  33.302   4.943 -0.0519  0.0318  0.1945
50313W        W93329   4.190   0.376  27.900 -0.0899  0.4607  0.4991
50314W        W93330   8.659  25.998   7.376  0.1631 -0.2214 -0.1619
50315W        W93331  17.636   6.326  25.033 -0.2332  0.0553  0.0582
50316W        W93332   3.625   1.169   1.813 -0.0815 -0.0588  0.2977
50317W        W93333  20.845   1.903   7.790  0.0872 -0.0956  0.1386
50318W        W93334  18.008  16.277  14.195  0.0038  0.2462  0.1780
50319W        W93335  19.062   1.286  29.114 -0.0815  0.0291  0.2816
50320W        W93336  20.313  28.260   7.327  0.2043 -0.1411  0.1754
50321W        W93337  26.654   0.396  28.292 -0.0766 -0.0717 -0.0671
50322W        W93338  30.329   3.566   7.884  0.0823  0.0163  0.1875
50323W        W93339  10.540  31.242   2.428  0.2875  0.3107 -0.0695
50324W        W93340  31.916  24.892   5.203 -0.2877 -0.0599  0.1024
50325W        W93341  17.869   9.900  28.501  0.0658  0.0032  0.0512
50326W        W93342  21.511  24.585   0.398  0.3326  0.1247 -0.2623
50327W        W93343  34.690  22.811   5.549 -0.3033 -0.0750 -0.0618
50328W        W93344  25.727  27.758   5.909  0.1660 -0.2621 -0.0656
50329W        W93345  27.954   0.497   8.744  0.3421  0.2888  0.1250
50330W        W93346  15.702  24.962  27.393 -0.0568 -0.4117  0.3088
50331W        W93347  11.730  30.535  18.664 -0.1809 -0.0166  0.1402
50332W        W93348  16.329  31.165  29.019 -0.1995 -0.0536  0.0367
50333W        W93349  31.917   1.331   9.834  0.0807  0.1977  0.0451
50334W        W93350  13.997   3.952  22.137 -0.0165 -0.2841 -0.1804
50335W        W93351  23.609  10.060   2.257 -0.0544 -0.1979 -0.1377
50336W        W93352   1.924   2.126  21.984 -0.0422  0.1237 -0.0284
50337W        W93353  34.375  23.703   4.730 -0.2406 -0.1977 -0.3665
50338W        W93354  24.919  28.308  28.490 -0.2105 -0.2637 -0.3272
50339W        W93355  17.959   4.328  28.054 -0.0270  0.0816 -0.2163
50340W        W93356   2.674  28.366   5.133 -0.2598  0.0283 -0.4460
50341W        W93357  25.503   2.149   3.839 -0.0866  0.1761 -0.0404
50342W        W93358  23.155  22.326   9.827 -0.0539 -0.2845 -0.0622
50343W        W93359  28.921   5.956   0.611 -0.2427 -0.2310  0.1936
50344W        W93360  32.800  18.814  22.966  0.0301  0.0178 -0.0336
50345W        W93361  28.590  30.087  17.768  0.0558  0.0418  0.0038
50346W        W93362   2.458  10.722  23.044  0.1073 -0.1491  0.3124
50347W        W93363  26.655   9.077   7.600  0.2934  0.0101 -0.1254
50348W        W93364  28.737  34.030   4.262  0.3473  0.1012 -0.0606
50349W        W93365  32.800  29.459  28.922 -0.1407  0.0914 -0.0707
50350W        W93366  31.242   2.021   4.466 -0.2656  0.1714  0.2500
50351W        W93367   9.974  13.406   1.218  0.1524 -0.3837  0.0116
50352W        W93368  32.953   4.648  26.007  0.2274 -0.2218  0.0474
50353W        W93369  28.632  30.110  25.344  0.0235 -0.0448  0.0803
50354W        W93370   9.124  26.786   6.330  0.0167 -0.0745 -0.0166
50355W        W93371  25.934   9.105  17.501  0.0681  0.2852 -0.1628
50356W        W93372  18.214  29.951  23.055 -0.2286  0.3240  0.2547
50357W        W93373   5.943   1.811  26.412  0.0842  0.3471 -0.1330
50358W        W93374   2.688   2.006  27.885  0.5114  0.0583  0.2206
50359W        W93375  24.336  19.046   3.733 -0.0466 -0.0017  0.2569
50360W        W93376  27.713  33.256  24.412 -0.0336  0.3651 -0.2694
50361W        W93377  13.000   9.182  27.404 -0.0771  0.0059  0.0105
50362W        W93378   5.360   5.966   9.710  0.1251 -0.2008 -0.1877
50363W        W93379  28.399  29.023  22.931 -0.0693 -0.1857  0.2682
50364W        W93380  23.246   2.604   5.310  0.0154 -0.1995  0.0947
50365W        W93381   9.187  28.104  17.733  0.3411 -0.0193 -0.1639
50366W        W93382   1.366  31.125  26.134  0.1331  0.0035  0.2212
50367W        W93383  28.022   3.164  26.380  0.2096  0.3495 -0.0053
50368W        W93384  32.872  31.191   2.220 -0.4332 -0.0869 -0.0551
50369W        W93385   8.917  18.420  28.454 -0.1412  0.2814 -0.1354
50370W        W93386   3.011  21.647   6.288  0.1608 -0.1154 -0.0768
50371W        W93387   5.225  11.992  27.265  0.0620 -0.0118 -0.0093
50372W        W93388  16.769  11.490   0.161 -0.1226  0.1020  0.0148
50373W        W93389   5.709  24.213   8.778 -0.3195  0.1742 -0.1972
50374W        W93390  21.890  34.434   5.246  0.0858  0.1822 -0.0348
50375W        W93391  11.609   4.598  26.895  0.0102 -0.0946  0.1618
50376W        W93392  33.151  30.389   6.840 -0.0691 -0.0764  0.0911
50377W        W93393  32.208   8.357   2.894  0.0263  0.2751 -0.0903
50378W        W93394  30.195  14.454  27.344  0.0543  0.0420  0.2802
50379W        W93395  33.862   2.961   9.777  0.0027  0.3227 -0.3084
50380W        W93396  22.193  28.406   5.179 -0.0169 -0.0734  0.0537
50381W        W93397  22.708   0.544  29.112 -0.0728 -0.0465  0.0722
50382W        W93398   6.049   3.084   5.192  0.2268  0.0299 -0.0771
50383W        W93399   0.644  15.642   7.807  0.0947  0.0598 -0.2042
50384W        W93400  28.095   1.146   2.318 -0.2556 -0.0994  0.0050
50385W        W93401  19.310  32.257   5.282 -0.0086  0.0328 -0.0539
50386W        W93402  26.224  28.055  28.175 -0.0459  0.3062 -0.0795
50387W        W93403   4.820   7.384   6.613  0.2342 -0.3487  0.0114
50388W        W93404   1.673  30.489   8.892  0.2258  0.1159 -0.1027
50389W        W93405  34.272  23.167  10.089 -0.0110 -0.2429  0.2902
50390W        W93406  27.400  28.865   1.994 -0.0189  0.0279  0.2653
50391W        W93407   7.060  24.491  26.585  0.2442 -0.2089  0.0577
50392W        W93408   2.891  10.112  16.765  0.3144  0.0326  0.0589
50393W        W93409   1.261   6.324   4.830 -0.0792 -0.1773 -0.1754
50394W        W93410  30.421   0.729  26.496 -0.3651  0.0212  0.1843
50395W        W93411  30.208   3.664   2.366  0.0895  0.1419 -0.0021
50396W        W93412   4.026  10.479  23.912  0.3452 -0.2131 -0.0671
50397W        W93413  11.645  26.750   7.312 -0.0439 -0.1675  0.0479
50398W        W93414  24.588  29.238   5.640  0.1585  0.0791 -0.0647
50399W        W93415  15.727  21.098  23.428  0.1637  0.2120  0.1035
50400W        W93416   7.848   3.146   6.639 -0.2145  0.0640  0.3331
50401W        W93417  23.169  17.662  27.854 -0.2181 -0.0401  0.4244
50402W        W93418   8.730   5.854   9.830 -0.0668  0.0090 -0.0562
50403W        W93419   2.525  33.696   7.521  0.0074 -0.4505  0.0517
50404W        W93420  33.405  28.494   8.431  0.0026  0.2876 -0.2251
50405W        W93421  14.341  30.196   8.420  0.2457  0.2698 -0.0124
50406W        W93422   0.891  12.638  19.572  0.0774 -0.1970 -0.2905
50407W        W93423  20.659  28.779   6.722 -0.1103 -0.0637  0.2487
50408W        W93424  28.896  29.420   7.256  0.1307  0.1206 -0.5249
50409W        W93425  27.244  32.822  17.500  0.2130 -0.4310 -0.2437
50410W        W93426  34.205  20.657   9.585 -0.0372  0.2778 -0.0630
50411W        W93427  13.875  33.595  25.755  0.1946 -0.0460  0.1558
50412W        W93428  26.348   1.757  19.337 -0.1154  0.1193 -0.1096
50413W        W93429  28.045  18.459   4.407  0.1465 -0.2122  0.0491
50414W        W93430   5.349  21.444  27.629 -0.1827 -0.1423 -0.0932
50415W        W93431  27.801   8.964  24.155  0.4045  0.2683  0.0162
50416W        W93432  32.555   3.234   5.732  0.1282 -0.0000 -0.1678
50417W        W93433   3.839   4.258   9.602  0.2975 -0.2372 -0.0537
50418W        W93434   9.290  31.416   0.441 -0.0568  0.3321  0.1240
50419W        W93435  31.954  15.330   9.306 -0.1645 -0.2468 -0.1988
50420W        W93436  34.427   8.532   1.184 -0.1126 -0.1569 -0.2127
50421W        W93437   7.923  16.431   0.150 -0.0126 -0.0530 -0.0266
50422W        W93438  12.574   0.339   7.688  0.1717  0.1011 -0.1997
50423W        W93439  18.676  32.412   3.954  0.0973 -0.1558  0.0761
50424W        W93440  20.733   9.205   7.276  0.2314  0.0918  0.1357
50425W        W93441  28.335  33.679   6.022  0.1208  0.0077  0.0120
50426W        W93442   2.199  14.144   0.596 -0.1760 -0.1618  0.0180
50427W        W93443  16.423  31.122   6.075  0.1015 -0.2258  0.2246
50428W        W93444  15.345  21.867   2.233 -0.2237  0.0945 -0.1913
50429W        W93445  26.258  33.691  23.341  0.3458  0.1686 -0.1322
50430W        W93446  23.608   4.180  20.387  0.3811  0.0486  0.0014
50431W        W93447  15.920  10.929   4.542 -0.1627 -0.0381 -0.0501
50432W        W93448   4.547  14.138   6.622 -0.2234 -0.1701  0.2236
50433W        W93449  19.835  29.007   8.477  0.3316  0.0657 -0.0987
50434W        W93450   1.015  31.011   9.088  0.1261  0.0449 -0.0367
50435W        W93451  11.194   4.052   5.985  0.0272 -0.0071  0.4223
50436W        W93452  25.253  31.313   0.336 -0.1057 -0.2720 -0.0074
50437W        W93453  16.382  30.019   6.014  0.1071 -0.2637  0.3157
50438W        W93454   2.171   6.093  15.817  0.0926 -0.3769 -0.1029
50439W        W93455   8.011  16.338   5.261  0.1129 -0.2507  0.2375
50440W        W93456   3.660   8.885   2.785  0.4126 -0.0284  0.0616
50441W        W93457  31.017   1.585   6.207 -0.1942  0.0122  0.1148
50442W        W93458   0.652  25.310  23.150  0.1812 -0.0795  0.1591
50443W        W93459  27.380   8.469   5.702  0.3092  0.1798 -0.2371
50444W        W93460  32.390   0.008  24.489 -0.0136 -0.4119 -0.0003
50445W        W93461  28.124  30.653   3.710  0.3361  0.1251  0.1160
50446W        W93462  21.192   7.156   1.217  0.1830  0.1754 -0.3555
50447W        W93463  12.887  16.735   3.771 -0.2253  0.1441 -0.1095
50448W        W93464  22.880   5.968  28.669  0.0036  0.0655  0.3268
50449W        W93465  10.755  31.745  23.771 -0.3655 -0.2765  0.0195
50450W        W93466  16.258   3.749   9.608  0.2174  0.0575  0.0829
50451W        W93467  26.609   7.143   0.241  0.2916 -0.1346 -0.3099
50452W        W93468  26.389   0.659  11.542 -0.0315 -0.1441  0.0210
50453W        W93469  12.334   9.522  28.700 -0.3389  0.1411 -0.0073
50454W        W93470  23.086  20.826   5.897 -0.0653  0.2563  0.1759
50455W        W93471  34.026   6.564   2.387  0.1849  0.2026 -0.1467
50456W        W93472  19.466  26.090  14.773  0.2142  0.1567 -0.3142
50457W        W93473  31.788  29.931  26.774  0.0943  0.1249  0.1460
50458W        W93474   7.345  22.946   6.597 -0.2873 -0.2327  0.0133
50459W        W93475   7.119  34.078  28.981 -0.3001  0.2144  0.2567
50460W        W93476  10.856  22.872   7.878  0.2654 -0.2400 -0.0167
50461W        W93477   2.392  26.256   8.606 -0.0322  0.0190 -0.1486
50462W        W93478  15.275  16.818   5.055  0.2301 -0.2534  0.2911
50463W        W93479   3.497  30.804   6.276 -0.0655  0.0439 -0.1205
50464W        W93480   6.956  24.118  20.745 -0.1523 -0.0374 -0.0781
50465W        W93481  23.184  11.365   7.533  0.0083 -0.3999 -0.0904
50466W        W93482   9.026   8.392  18.507 -0.0022 -0.0754  0.0651
50467W        W93483  26.617   5.606   9.465  0.0019  0.0699 -0.0778
50468W        W93484  30.985  11.311  15.399 -0.0738 -0.1274  0.0342
50469W        W93485  20.535  30.089  10.597  0.1673 -0.0555  0.0557
50470W        W93486  23.361   4.131  25.568 -0.0872  0.0082  0.4977
50471W        W93487   6.749   5.266   2.992 -0.0103 -0.0042  0.1776
50472W        W93488  20.938  27.991   8.456 -0.0814 -0.1914  0.1657
50473W        W93489   5.460   0.797   3.727  0.2266  0.0242 -0.2797
50474W        W93490   2.284   2.815   1.913  0.1845 -0.2813  0.0637
50475W        W93491  26.072  34.666   2.068 -0.2324 -0.1583 -0.1162
50476W        W93492   0.509  30.397   5.062  0.0209  0.0921 -0.0873
50477W        W93493  14.190  23.715   1.289 -0.2765  0.1732 -0.3978
50478W        W93494  29.650  13.788   5.666  0.4400 -0.2712  0.1062
50479W        W93495  23.960   8.501  25.228 -0.0685  0.0650 -0.1420
50480W        W93496  29.856   4.076   3.803  0.0899 -0.0014  0.2289
50481W        W93497   7.207   6.304   5.319  0.5160 -0.0744  0.3775
50482W        W93498  17.994  31.408   2.270 -0.0929  0.1907 -0.1057
50483W        W93499  10.357  24.893   1.835  0.1609  0.2187 -0.4644
50484W        W93500  17.567  29.162  10.504 -0.3753  0.1014 -0.1702
50485W        W93501   1.887  29.519  17.126 -0.2246  0.0330 -0.0965
50486W        W93502  23.618  25.182   7.920 -0.1937 -0.1295 -0.1074
50487W        W93503   2.217  15.099  14.895  0.3506  0.1563 -0.2022
50488W        W93504  21.278   9.356  18.534 -0.3996  0.0375  0.0336
50489W        W93505  29.635  18.552   6.059  0.0843  0.1125 -0.0190
50490W        W93506  23.375  20.984   9.641  0.0030 -0.2745  0.3362
50491W        W93507   4.430  17.479   3.599  0.3701 -0.3867 -0.0972
50492W        W93508  32.472   4.401  17.102 -0.1211  0.1307  0.1708
50493W        W93509  25.086   0.459   6.634  0.0551  0.0601 -0.1908
50494W        W93510  26.373  22.633  21.152 -0.2258  0.0956 -0.2121
50495W        W93511  26.797   6.426  29.134 -0.1516 -0.1422  0.0634
50496W        W93512  22.217   0.855  28.532  0.1802 -0.0562 -0.2083
50497W        W93513  31.387  30.976  22.160  0.1468  0.0819  0.0104
50498W        W93514   0.368  20.163  16.266  0.5733  0.1392  0.2088
50499W        W93515  11.961  30.774   8.991  0.1441  0.0778  0.0935
50500W        W93516  21.436  14.992  23.432  0.1350 -0.0545 -0.3679
50501W        W93517   8.665   9.703   8.480  0.1872 -0.0879 -0.0565
50502W        W93518  21.594  26.719   6.345 -0.0970 -0.1636 -0.0997
50503W        W93519  19.526  24.656   1.672  0.0604 -0.0826  0.1714
50504W        W93520   5.413  33.484   4.445  0.0389  0.2557 -0.2663
50505W        W93521  33.540  24.929   8.682  0.2173 -0.0552 -0.0393
50506W        W93522   2.476  26.529  25.685 -0.1198  0.0117  0.0101
50507W        W93523  12.358   4.112  24.053  0.1179  0.3024 -0.1730
50508W        W93524   7.297  31.913  10.069 -0.1065 -0.2516 -0.2726
50509W        W93525   1.298  31.933   4.378  0.0779 -0.0083  0.0320
50510W        W93526   2.497  32.612  26.801 -0.0659 -0.0955  0.0936
50511W        W93527   0.416  27.152   0.221 -0.4981  0.0503 -0.3375
50512W        W93528  13.263  34.570   3.620 -0.0657  0.1344  0.0747
50513W        W93529  32.148   2.940  27.341  0.0513 -0.0792  0.0495
50514W        W93530   3.033  31.498  19.383 -0.0768  0.0670 -0.0557
50515W        W93531  31.791  10.981  20.719  0.2012  0.1612  0.1088
50516W        W93532  28.179   1.998  21.837 -0.0387  0.2283 -0.0859
50517W        W93533   8.747   4.290   3.100 -0.0428 -0.1262  0.0899
50518W        W93534   0.660  12.989   7.287 -0.3806  0.0721 -0.0047
50519W        W93535  19.796  30.003   5.472 -0.0143  0.0522 -0.0254
50520W        W93536  28.565   6.339  22.096 -0.1622 -0.0169  0.1289
50521W        W93537  20.387  20.723  17.360 -0.1982 -0.2536  0.4310
50522W        W93538   5.079  23.520  22.894 -0.1040  0.2480 -0.0307
50523W        W93539  19.678  24.816   8.401  0.0822 -0.1642  0.0004
50524W        W93540  26.052   6.584  29.059 -0.1190  0.0413 -0.1425
50525W        W93541  29.637   0.841   6.546 -0.0816  0.0243 -0.1105
50526W        W93542   0.876   2.935  27.138  0.0114 -0.1675 -0.1271
50527W        W93543  27.928   1.723  24.814  0.0843 -0.3089  0.1129
50528W        W93544   0.908   1.161  23.032  0.3028  0.0781  0.2075
50529W        W93545  16.473   6.651   1.051  0.0308 -0.1449  0.0692
50530W        W93546  31.307   5.249  17.360 -0.2408  0.2168  0.1754
50531W        W93547   3.205  20.494  17.380 -0.1574  0.1004 -0.1623
50532W        W93548  33.338   4.029   5.065 -0.4239 -0.0589 -0.2225
50533W        W93549  23.103  28.910  26.098  0.0875  0.2385 -0.1166
50534W        W93550  25.638   4.762   9.290  0.0609  0.1580 -0.0559
50535W        W93551   3.896   4.806   9.767  0.1937  0.5009 -0.3741
50536W        W93552  27.407  23.519   5.146 -0.0033  0.0553 -0.0099
50537W        W93553  30.681  27.143  18.533 -0.2417 -0.0512 -0.0485
50538W        W93554  16.709  20.354  28.240 -0.0267  0.0938  0.1652
50539W        W93555   2.162  23.269  24.352 -0.5577  0.1844  0.0112
50540W        W93556  34.335  30.570   6.502 -0.1445  0.0572 -0.1308
50541W        W93557   5.892  27.619   4.058 -0.2379  0.2154 -0.1128
50542W        W93558   8.063  12.045   0.240 -0.0074 -0.0574 -0.0244
50543W        W93559  15.087  11.422   9.235  0.0234 -0.1867 -0.1509
50544W        W93560   1.160  25.154   2.457 -0.1622 -0.0652  0.0424
50545W        W93561   1.016  28.248   5.069  0.1003  0.5021  0.0611
50546W        W93562   9.438   1.730   0.092 -0.0706 -0.0390 -0.1941
50547W        W93563  23.867  26.966   6.810  0.1178  0.1150  0.4808
50548W        W93564   6.148  27.839  29.133 -0.0138 -0.1908  0.1836
50549W        W93565   5.101   7.201  29.300 -0.0474 -0.1214  0.0541
50550W        W93566  13.009  13.085   2.460  0.0052  0.3568 -0.0480
50551W        W93567   1.402  32.731   9.915 -0.0135  0.0263 -0.0921
50552W        W93568  12.452  27.814  21.801  0.0053  0.1861 -0.3230
50553W        W93569   2.661   7.969  25.062  0.3411 -0.1203  0.0934
50554W        W93570  29.829   1.262   8.138  0.1176 -0.0415 -0.1031
50555W        W93571  32.101   5.730  23.219 -0.4094  0.2552  0.0167
50556W        W93572   2.008   6.063  24.095 -0.2059 -0.1477  0.0062
50557W        W93573  24.169   8.230   8.546  0.1077 -0.1180  0.1069
50558W        W93574  19.933  27.663   8.601 -0.1012  0.1097 -0.1142
50559W        W93575   0.519  31.755  18.251 -0.1255  0.0378  0.2677
50560W        W93576  15.250  23.170  27.005 -0.2237 -0.0519 -0.1618
50561W        W93577  23.548  34.252   5.958  0.1597  0.3810 -0.1669
50562W        W93578  25.893  25.054  17.696 -0.1143  0.0652 -0.2095
50563W        W93579   0.796  13.948   7.205 -0.0231 -0.0750  0.2883
50564W        W93580  31.207  29.643  27.029 -0.0667 -0.1817 -0.1434
50565W        W93581   4.824  24.176   1.384  0.0173  0.1908 -0.1553
50566W        W93582  28.959   7.839   9.046  0.1156 -0.1158 -0.0768
50567W        W93583  22.681   9.858   0.374 -0.2721  0.2404 -0.0090
50568W        W93584  33.697  30.907  10.191  0.2845 -0.0461 -0.1061
50569W        W93585  24.733   4.865   2.878 -0.2848 -0.0198  0.0281
50570W        W93586   9.836  19.023  19.736 -0.1631  0.1273 -0.0148
50571W        W93587  28.235  32.337   3.285 -0.0182  0.1452 -0.3809
50572W        W93588   4.686  30.622  20.790  0.3753 -0.0132  0.1133
50573W        W93589  15.828  17.684   4.676 -0.3469  0.3694  0.0846
50574W        W93590  33.485   3.129  25.615  0.2684 -0.1152  0.2090
50575W        W93591   3.825   8.046  23.718 -0.0089 -0.0867  0.0711
50576W        W93592  28.811  29.730   9.550 -0.1987 -0.0531  0.1508
50577W        W93593  10.104   7.847   4.323 -0.1219 -0.1951  0.0814
50578W        W93594  19.282   4.916   6.445  0.2455  0.0470 -0.2315
50579W        W93595  14.557   8.780  21.381  0.2495  0.0677 -0.0586
50580W        W93596   1.532  32.249  27.523 -0.0885 -0.0791  0.0873
50581W        W93597  29.954   1.979   6.793  0.0177 -0.0518  0.1803
50582W        W93598   1.580  22.571   2.952  0.2908 -0.1497  0.0622
50583W        W93599  27.744  25.995   2.883  0.0597 -0.0836 -0.0871
50584W        W93600  10.787  32.822   5.542  0.0975  0.1147 -0.3442
50585W        W93601   1.783  29.972  29.201  0.1560 -0.1758 -0.4867
50586W        W93602  32.506  34.562   8.322 -0.0130 -0.0918  0.0394
50587W        W93603  31.109  31.268  24.568  0.0037  0.4317  0.2536
50588W        W93604  26.240  27.131   4.518  0.1498  0.2219 -0.0511
50589W        W93605  27.031  34.042  10.167 -0.2718 -0.0335 -0.3124
50590W        W93606  23.405  34.491   3.737  0.0567  0.1276  0.1046
50591W        W93607  30.771   1.756  28.842  0.1537 -0.4946  0.0856
50592W        W93608  20.743  33.349  24.059  0.1154  0.3132 -0.1331
50593W        W93609   2.933  33.541   6.217  0.0445 -0.0164 -0.2369
50594W        W93610   8.930   9.114   7.034  0.0035  0.0789  0.0348
50595W        W93611  10.808  14.030  29.065  0.4271  0.0605 -0.3195
50596W        W93612  21.467  17.907  24.559 -0.1240  0.0297  0.0375
50597W        W93613  29.038   1.865   1.099  0.1864 -0.0988  0.0579
50598W        W93614  24.464  26.663  17.063  0.2825  0.2140  0.1767
50599W        W93615  27.929   2.986   7.934  0.0311  0.3904  0.3192
50600W        W93616  31.155   9.403  19.603 -0.0697  0.0384 -0.0973
50601W        W93617  11.299  25.390   2.036 -0.0931 -0.0779  0.0168
50602W        W93618  24.464  33.181   7.082 -0.1816 -0.0407  0.1641
50603W        W93619  24.195  12.850  16.425  0.0462  0.0523  0.1357
50604W        W93620   6.303   6.652  18.324 -0.3743  0.4114 -0.0623
50605W        W93621  13.749  26.906  23.645  0.1029 -0.0060  0.0845
50606W        W93622   1.065  10.360   5.820 -0.5979  0.1861  0.3426
50607W        W93623  30.465  22.667   4.432 -0.0810 -0.2719 -0.1322
50608W        W93624  33.416   1.322   0.257 -0.0209  0.0038  0.2327
50609W        W93625  29.940  22.949  23.751 -0.0388  0.1441  0.0611
50610W        W93626  32.444  14.894   5.480 -0.1395 -0.1978 -0.0113
50611W        W93627  16.827  11.751  29.094 -0.0308 -0.0543 -0.0587
50612W        W93628  15.845  28.837   4.675  0.2461 -0.2462 -0.2096
50613W        W93629   0.612  21.102   3.894 -0.1205  0.0179  0.1429
50614W        W93630   3.713   8.088   5.474 -0.0338  0.0129  0.3131
50615W        W93631  25.115   2.951  28.633  0.0204  0.1922 -0.1630
50616W        W93632  13.827   8.338   3.192 -0.0656  0.0812 -0.0836
50617W        W93633  23.172  33.093  10.901 -0.0783 -0.1182 -0.0700
50618W        W93634  29.106  21.909   6.680  0.1294  0.3222  0.0978
50619W        W93635   2.216  11.190   4.679 -0.0422  0.0565 -0.0383
50620W        W93636  18.825  20.656  26.827 -0.1267  0.1147  0.0517
50621W        W93637   3.163  30.943  10.219  0.1061  0.1238 -0.0538
50622W        W93638  19.436  19.542  21.378 -0.2166 -0.1527  0.1423
50623W        W93639  27.168  29.455   2.856 -0.3229  0.0504 -0.1378
50624W        W93640   8.376  18.810  22.238 -0.0971 -0.3232  0.4185
50625W        W93641  32.582  29.285   8.590  0.1810 -0.0417  0.0263
50626W        W93642   2.928   0.881   9.712  0.3029  0.0545  0.1869
50627W        W93643  30.917   0.675   9.249  0.4054  0.0606 -0.0074
50628W        W93644   2.032  22.772  25.221 -0.2744  0.1488 -0.0864
50629W        W93645  26.586   9.873   4.720 -0.0272  0.2603  0.2388
50630W        W93646  32.792   7.079   5.310  0.0344 -0.0349  0.1662
50631W        W93647  16.946   5.824   2.294 -0.2769  0.1041  0.2277
50632W        W93648  28.958   5.606   9.297  0.1356  0.1708  0.0790
50633W        W93649   7.692   5.898   4.794  0.0254  0.3599  0.3287
50634W        W93650   8.206  19.549  13.316  0.2700 -0.0920  0.0807
50635W        W93651  29.889   1.106   5.040 -0.0681 -0.1251 -0.1184
50636W        W93652  25.272  31.981   8.687  0.2789 -0.0431 -0.0080
50637W        W93653   6.596  17.795   5.065 -0.4278 -0.5064  0.0726
50638W        W93654  30.386   0.881   1.081  0.3254  0.3143  0.0345
50639W        W93655   0.499   3.011  10.034  0.0371 -0.4909  0.0202
50640W        W93656  21.181  20.212  22.462 -0.0122  0.3152 -0.0096
50641W        W93657  32.343   7.520  28.920 -0.1973 -0.1459 -0.1192
50642W        W93658  26.335  29.367  26.209  0.0300  0.0978  0.0029
50643W        W93659  31.797  18.962  28.488 -0.1317  0.0082 -0.1199
50644W        W93660  34.714  17.512   7.828 -0.0965 -0.3181  0.0864
50645W        W93661  12.427   8.803   3.093 -0.4642  0.2124 -0.1758
50646W        W93662  20.010   0.254   2.431 -0.0244 -0.3052  0.0550
50647W        W93663  17.538  32.631   2.967  0.0214 -0.1247  0.1890
50648W        W93664  32.695  31.143  10.511 -0.0920  0.1316 -0.1309
50649W        W93665  10.165  23.192   2.269  0.1935  0.1402  0.1426
50650W        W93666   5.725  27.583   8.601 -0.0359 -0.0077 -0.3265
50651W        W93667  22.405   4.080   2.417 -0.1387  0.0616  0.0815
50652W        W93668  15.720  34.113   9.318 -0.0744 -0.1627  0.3112
50653W        W93669  16.933   4.944  26.881 -0.3482 -0.1928  0.0339
50654W        W93670  33.013  10.412  22.942 -0.2174 -0.1052 -0.2350
50655W        W93671  25.019  25.780  10.687  0.0667 -0.1778  0.1993
50656W        W93672  29.764  26.490   1.828  0.1817 -0.1742 -0.0441
50657W        W93673  33.329  20.299  23.994 -0.0701 -0.2193  0.0439
50658W        W93674  21.794  15.019   0.460 -0.4257  0.3367 -0.3006
50659W        W93675  29.706   4.380  26.170 -0.0621 -0.4659  0.1256
50660W        W93676  34.005  32.280   5.170 -0.0905  0.3098 -0.0509
50661W        W93677  27.246   3.116  19.161  0.0672  0.0647 -0.0728
50662W        W93678   8.396   0.188  25.789 -0.1295  0.1616  0.0161
50663W        W93679   7.516  32.632   8.114 -0.2994 -0.0213  0.0477
50664W        W93680  31.418  21.557   1.148  0.2506 -0.0451 -0.0334
50665W        W93681  21.574  23.341   3.926 -0.1270  0.1207 -0.1232
50666W        W93682  26.802   8.493   3.330 -0.0103  0.1817  0.2279
50667W        W93683  15.739  28.948   0.146  0.5513 -0.1474  0.1806
50668W        W93684  19.123  27.714   6.971  0.2417  0.0885  0.1186
50669W        W93685  21.744  28.279   9.972  0.2572 -0.1973  0.1001
50670W        W93686   5.887   6.777   2.838 -0.2000  0.2386 -0.0159
50671W        W93687   3.988   9.853  19.390  0.2320  0.0132 -0.5434
50672W        W93688  33.752  25.851  10.942 -0.1816 -0.2647 -0.0002
50673W        W93689  19.083   1.552   5.215  0.0902 -0.0457 -0.0217
50674W        W93690  30.132  32.358  11.082 -0.3181  0.0841  0.0501
50675W        W93691  22.621  29.240   9.882 -0.2429 -0.0790  0.3094
50676W        W93692  26.510  27.136   6.355 -0.2248  0.2951  0.0936
50677W        W93693  22.768   2.677   5.524  0.0318  0.0609  0.1235
50678W        W93694  13.004   8.527  27.484 -0.1578  0.3797  0.1536
50679W        W93695   8.946  30.989  24.814 -0.1530  0.1055 -0.2239
50680W        W93696   8.284  28.147   2.637 -0.1621 -0.1709 -0.1483
50681W        W93697  25.409   6.712   3.222  0.0502 -0.0080 -0.2051
50682W        W93698   8.465   4.735  26.615 -0.2048  0.0287 -0.2577
50683W        W93699   8.313  29.243   3.425  0.2334  0.0008  0.1900
50684W        W93700  12.148  12.342  21.011 -0.0710 -0.0860  0.2421
50685W        W93701  16.834  18.424   6.086 -0.1802  0.0190  0.2259
50686W        W93702  21.247  25.455   8.349 -0.0687 -0.0098 -0.2339
50687W        W93703  20.643   3.305  10.405  0.1596 -0.0243 -0.2366
50688W        W93704  24.237   1.905  10.620 -0.1016 -0.1582  0.1241
50689W        W93705  29.782   2.315  26.253  0.0183 -0.0129 -0.0362
50690W        W93706  31.179   9.779   4.681 -0.1444  0.3786  0.1535
50691W        W93707  26.239  25.838   2.158 -0.0926 -0.0546  0.0127
50692W        W93708  30.435   9.930  10.696  0.2640 -0.0086 -0.0249
50693W        W93709  22.071  29.927   0.483  0.0612 -0.0008 -0.2161
50694W        W93710   0.295  20.334   7.151 -0.0697  0.2091 -0.5036
50695W        W93711   6.624   0.802   3.517  0.0521 -0.0152 -0.0295
50696W        W93712  29.982  25.220  22.417  0.3190  0.2376  0.2149
50697W        W93713  18.371   5.691   2.951  0.1560  0.2382 -0.0112
50698W        W93714  22.632  23.122  26.775 -0.2183 -0.1217 -0.1480
50699W        W93715   4.644  10.180   4.605  0.1144 -0.1551 -0.0975
50700W        W93716   0.412  21.391   9.225 -0.2285  0.1145 -0.0560
50701W        W93717   6.146  25.382  28.502  0.0226 -0.0476 -0.2570
50702W        W93718  27.803  31.413   8.595  0.2509  0.1499 -0.0894
50703W        W93719   3.354  34.411   6.169  0.0003  0.3713 -0.0706
50704W        W93720  12.062   3.396   0.700 -0.1027  0.0312  0.1281
50705W        W93721  31.116  32.853  10.498 -0.3417  0.0093  0.1763
50706W        W93722  29.738   2.396   7.598  0.1915  0.0034  0.1497
50707W        W93723  10.987  23.925   6.269  0.0271  0.1753 -0.0275
50708W        W93724   5.762  21.718   5.782  0.1303  0.0771 -0.1065
50709W        W93725   3.201  11.755   0.643 -0.0789 -0.0489  0.1714
50710W        W93726  14.003   3.429  10.342 -0.4224 -0.0577  0.2095
50711W        W93727  34.702  26.454   6.052  0.0302 -0.1514 -0.0949
50712W        W93728  29.629  27.429   7.993  0.0757  0.4657 -0.1225
50713W        W93729  12.922  29.079   0.322 -0.2890  0.2190  0.0656
50714W        W93730   7.140  25.333   1.815 -0.3257 -0.0493 -0.0214
50715W        W93731  11.918   1.984   3.922  0.1736 -0.1522 -0.0469
50716W        W93732  27.142  18.144   0.323 -0.2365  0.1611  0.1894
50717W        W93733   6.316  32.429   1.536  0.0441 -0.0701 -0.4539
50718W        W93734  30.467  30.348   5.405  0.0368  0.0119 -0.0357
50719W        W93735  26.278   3.056  11.097 -0.0934  0.5189  0.2800
50720W        W93736  29.284  16.286   4.433  0.1696 -0.2214 -0.0649
50721W        W93737  31.287   1.785   3.936 -0.0915  0.1960  0.0787
50722W        W93738   4.160  31.587   3.384 -0.1202  0.1437 -0.1651
50723W        W93739   5.354   0.343   1.995 -0.1082 -0.0051  0.0833
50724W        W93740  24.124  28.284   0.441 -0.1113 -0.0787  0.0746
50725W        W93741  19.182  24.288  27.393  0.3102 -0.0726  0.0151
50726W        W93742  33.360  32.622   7.700 -0.1927  0.0644  0.1270
50727W        W93743   6.053   4.464  24.831 -0.1817  0.0775  0.0488
50728W        W93744  25.224  31.505   8.982 -0.5228  0.1231  0.1061
50729W        W93745  24.136  20.744   5.524 -0.0001 -0.1066  0.1658
50730W        W93746  28.443   3.385   0.898 -0.1448 -0.0012 -0.0079
50731W        W93747  14.759   2.042   0.278 -0.1219 -0.3668 -0.1177
50732W        W93748  34.103  19.189   4.714  0.3760  0.3471  0.0478
50733W        W93749  24.660  26.337   6.663  0.2622  0.0277  0.1198
50734W        W93750   1.645  14.111   8.888 -0.0756  0.2931  0.1625
50735W        W93751  20.113  21.323   4.658  0.1217  0.1207 -0.6969
50736W        W93752   5.422  15.357  17.543  0.0434  0.0177 -0.0809
50737W        W93753   6.152   1.884  28.331  0.2017 -0.1593 -0.0811
50738W        W93754  17.431   3.429  23.292 -0.0481  0.0409  0.1399
50739W        W93755   3.080  28.422  25.964 -0.2426 -0.2958 -0.0484
50740W        W93756  19.078  30.792   4.613  0.3706 -0.0403 -0.4542
50741W        W93757   2.156   6.853   5.022  0.1401 -0.0635  0.2138
50742W        W93758  25.548  31.364   7.953  0.1397 -0.1383 -0.2005
50743W        W93759  21.981  23.989  22.438 -0.1186  0.3435  0.0562
50744W        W93760  29.317   5.872  26.742  0.0907  0.0415  0.1809
50745W        W93761  23.945   1.907   6.468  0.1842 -0.1128 -0.0753
50746W        W93762  26.219   6.809   6.804  0.0830 -0.1561  0.1053
50747W        W93763   0.005  24.874  15.281  0.2962 -0.2193 -0.1913
50748W        W93764  28.522  30.264   7.147 -0.1497 -0.1647  0.0106
50749W        W93765  20.215  26.004   8.961  0.2599 -0.3340 -0.5588
50750W        W93766  26.263  31.585  22.104 -0.0561  0.0129  0.6472
50751W        W93767  22.777  30.592  10.122 -0.2684  0.2344 -0.0298
50752W        W93768  30.784  32.878   0.447 -0.1754 -0.2569  0.1052
50753W        W93769  25.865  32.603   3.399  0.1826 -0.1619  0.2548
50754W        W93770  30.552  13.193  25.482  0.1125 -0.0273 -0.1343
50755W        W93771   1.096  16.291   7.048  0.0351  0.4732 -0.1293
50756W        W93772   1.422  10.454  10.112 -0.0216 -0.4528  0.0107
50757W        W93773   9.553  19.593  27.308  0.3434  0.0711  0.3102
50758W        W93774   2.082  21.544   0.177  0.1556 -0.2571 -0.0415
50759W        W93775  11.866   1.489   9.768  0.0806  0.2077 -0.0120
50760W        W93776  24.867   6.091   2.809 -0.0749 -0.0955 -0.0818
50761W        W93777  28.744   4.435  10.198  0.1688 -0.4693 -0.0245
50762W        W93778  10.984  20.821  29.250  0.1928  0.1831 -0.1183
50763W        W93779  13.684  28.684  24.297 -0.2763 -0.0965  0.1929
50764W        W93780  26.876   4.062   7.664  0.0506 -0.0958  0.0070
50765W        W93781  28.767  32.169  17.368 -0.1754  0.0679  0.0369
50766W        W93782   5.133  31.171  24.607  0.0764 -0.1218  0.1388
50767W        W93783   1.058  25.244   4.878 -0.1199  0.0706 -0.0908
50768W        W93784   1.747  24.960   8.987 -0.2239 -0.0885  0.2775
50769W        W93785  31.358  26.695   8.242 -0.0541  0.0564 -0.1034
50770W        W93786  22.118  29.359   2.419 -0.1219 -0.1427 -0.0686
50771W        W93787  13.251  12.054   6.371  0.2330  0.0646 -0.2234
50772W        W93788  29.698  30.949   8.334  0.0128  0.0168  0.0816
50773W        W93789  19.101  29.877  27.237  0.2003  0.0958 -0.2917
50774W        W93790  18.634   0.582  28.013 -0.1769 -0.0585 -0.0599
50775W        W93791  30.022   1.592  10.342  0.0339  0.1685  0.0385
50776W        W93792   9.371  10.060   5.587 -0.0596 -0.3258 -0.0730
50777W        W93793   6.498  30.829  10.115  0.0693  0.0115 -0.1238
50778W        W93794  23.253  27.887  24.188  0.0526  0.2366 -0.0709
50779W        W93795   8.140  33.005   0.710 -0.0990 -0.0158  0.2233
50780W        W93796  31.295   5.801   5.515 -0.1344  0.1751  0.1467
50781W        W93797  27.660  34.181   2.859 -0.0395 -0.3927 -0.4501
50782W        W93798  34.547  19.919   7.454 -0.2176 -0.1276  0.3899
50783W        W93799  31.177  28.732   9.014 -0.0508 -0.0972  0.0228
50784W        W93800  12.698  34.697  10.145 -0.2093 -0.0871  0.0872
50785W        W93801   6.798  32.032   7.325 -0.2264 -0.2496  0.3348
50786W        W93802   3.916   9.843   8.828  0.1732  0.2396  0.0667
50787W        W93803   6.416   4.927  21.111 -0.3033 -0.1924 -0.0230
50788W        W93804  33.639  14.282   4.676  0.0262  0.1577  0.1744
50789W        W93805   8.632  29.476   8.989  0.3625  0.0015  0.2347
50790W        W93806  17.365  31.867   4.903  0.2090  0.1636 -0.1603
50791W        W93807   4.272   2.323  29.143  0.0166 -0.0358  0.4687
50792W        W93808  29.551   5.596   7.672 -0.2280 -0.0014 -0.1313
50793W        W93809   5.665  31.361   4.853 -0.0855 -0.1550 -0.0907
50794W        W93810  13.835  17.591   2.954  0.1274  0.1096 -0.0271
50795W        W93811  31.813  29.475  10.510 -0.3348 -0.0151  0.1260
50796W        W93812   0.373   1.779   6.028  0.0832  0.2591 -0.0823
50797W        W93813  27.787  29.604   2.940  0.0226 -0.2472 -0.1370
50798W        W93814   9.773  31.041  27.938  0.0479  0.5067  0.0380
50799W        W93815  11.767  21.409  28.358  0.0051  0.2901  0.0235
50800W        W93816   2.832  31.305   0.769 -0.2418  0.1022 -0.2737
50801W        W93817   3.407  33.909   6.357 -0.1996 -0.3886 -0.0154
50802W        W93818  26.715  12.186   6.734 -0.0327  0.3810  0.2561
50803W        W93819  10.353  33.126  28.672  0.2560 -0.0564  0.2879
50804W        W93820  27.830  14.074   3.138  0.2648  0.2659  0.0834
50805W        W93821  12.492  31.952   1.406  0.2542 -0.0884  0.1829
50806W        W93822  11.436   4.306  28.491 -0.0496 -0.1799  0.2487
50807W        W93823   4.911  18.402   8.883  0.1403  0.1461  0.0254
50808W        W93824  27.522  28.573   6.191  0.3417  0.0336 -0.0636
50809W        W93825  24.634  30.584   8.851  0.1334 -0.0299 -0.0214
50810W        W93826   7.985   9.947   4.437 -0.1723  0.1709  0.1272
50811W        W93827  13.953   2.596   3.458 -0.0458 -0.0157  0.3168
50812W        W93828  18.819   0.254   8.148  0.0696 -0.0149  0.0650
50813W        W93829  14.743  11.690   4.322 -0.1278  0.0373 -0.1308
50814W        W93830   0.132   0.652   8.854  0.1059 -0.1093 -0.1622
50815W        W93831  25.410  22.926   7.984 -0.1064 -0.1529 -0.2634
50816W        W93832  27.405   4.955   5.723  0.1589 -0.1908  0.0165
50817W        W93833  32.558   2.627   7.210 -0.2440 -0.3595  0.0898
50818W        W93834  11.770   5.855   1.705 -0.1833 -0.1237  0.2215
50819W        W93835   4.264   7.740   9.786 -0.0053  0.0733 -0.0699
50820W        W93836  34.755   9.381   9.599  0.1872  0.2369  0.1109
50821W        W93837  31.147  34.191   6.011 -0.1144 -0.0904 -0.0011
50822W        W93838   9.446  31.280  28.450 -0.0873  0.0341  0.0052
50823W        W93839  33.254   5.991   8.545 -0.3456 -0.3751 -0.0149
50824W        W93840  34.537  19.113   8.695  0.1958  0.1145 -0.2032
50825W        W93841  21.695   2.762   3.970  0.0282 -0.2458 -0.3377
50826W        W93842  34.538  22.809   2.146 -0.1850  0.2094 -0.0950
50827W        W93843  33.198  33.401   4.396 -0.0950 -0.0595 -0.2326
50828W        W93844  30.758   0.720   4.775 -0.0267 -0.4033 -0.2276
50829W        W93845   8.697  32.381   2.707  0.0094  0.1091  0.2666
50830W        W93846  25.083  11.399  10.148  0.0206 -0.1163  0.2492
50831W        W93847  23.938  24.584   0.047  0.3181  0.2683  0.1100
50832W        W93848  16.190   7.931  25.924 -0.0180 -0.1982  0.0895
50833W        W93849  13.848  25.012   2.009 -0.2128 -0.0466  0.0416
50834W        W93850  18.640   6.347   3.920 -0.0246  0.0438 -0.2388
50835W        W93851  25.424  34.572   4.084  0.0771 -0.2951  0.1463
50836W        W93852   2.810  31.922   1.247 -0.0635  0.0102 -0.1222
50837W        W93853   2.200  23.146  22.637 -0.0548 -0.1204 -0.1272
50838W        W93854  18.168  17.200   5.685  0.0255  0.4168  0.2706
50839W        W93855  15.554   9.637  26.492 -0.2388  0.0475 -0.0439
50840W        W93856  26.882   5.317   6.476 -0.1049 -0.1489 -0.0642
50841W        W93857  30.742  22.960   0.476 -0.1058  0.1944  0.0699
50842W        W93858  28.960  26.980   4.254  0.0039  0.0362 -0.0611
50843W        W93859  30.755  31.449   9.267 -0.1146 -0.1059 -0.1226
50844W        W93860  28.288  19.108   8.011 -0.3510  0.1177  0.0924
50845W        W93861   6.301   0.263   7.415  0.1817  0.0412 -0.1269
50846W        W93862   4.888  20.960   7.183 -0.0566 -0.0244 -0.0012
50847W        W93863  25.016   2.631   6.877 -0.1234  0.4031  0.0649
50848W        W93864  30.620   1.096   8.585  0.0304  0.0298 -0.0990
50849W        W93865  24.858  30.486  10.111  0.1394  0.0756 -0.1882
50850W        W93866  30.469  19.958   4.021  0.3747 -0.2098 -0.1730
50851W        W93867  16.891   6.220   6.648  0.2489 -0.4714  0.0106
50852W        W93868  31.367  31.634   7.094 -0.0444  0.0195  0.1285
50853W        W93869  20.300  25.129  24.760  0.0084 -0.0222 -0.2133
50854W        W93870  29.542   4.893   5.339 -0.2521  0.0185  0.2792
50855W        W93871   4.120  30.497   6.726 -0.0391  0.1515 -0.0818
50856W        W93872  27.017   9.228   4.362  0.3236 -0.0217 -0.1112
50857W        W93873   0.588   5.081   8.789  0.0195  0.3598  0.1404
50858W        W93874  17.796  28.541   9.924  0.0379  0.0333 -0.2770
50859W        W93875  20.664   5.720  25.118  0.1303 -0.0249  0.0729
50860W        W93876  12.397  28.657   2.102 -0.0607  0.1097 -0.2002
50861W        W93877  29.525   3.337   7.172  0.1315  0.0894  0.1173
50862W        W93878  19.269   2.301   0.374 -0.5505  0.2338 -0.0430
50863W        W93879  30.232   8.083   9.121  0.2725  0.1372 -0.0339
50864W        W93880   1.943   1.528  17.828  0.5146 -0.0840 -0.0104
50865W        W93881  18.119   1.133   6.537  0.1436 -0.2710  0.2437
50866W        W93882  28.262   3.967  24.457 -0.2170 -0.0091  0.1798
50867W        W93883   3.129  20.312   5.698 -0.1161 -0.1374  0.1043
50868W        W93884  27.039   3.652   0.524 -0.0406  0.1806 -0.0433
50869W        W93885  31.380   3.188   3.790 -0.0329  0.1699  0.2623
50870W        W93886  18.332  26.694   7.178  0.0532  0.1534  0.0208
50871W        W93887   0.115   4.156   8.613  0.4764 -0.0184  0.0979
50872W        W93888  31.409   3.865   7.727 -0.1620  0.0452 -0.0828
50873W        W93889  17.717  14.410   0.004 -0.0745  0.0536 -0.6210
50874W        W93890  14.409   7.468   3.319 -0.0524  0.1247  0.1632
50875W        W93891  25.135  14.917  24.140 -0.2782  0.0232 -0.1437
50876W        W93892  11.580  24.731  15.058 -0.0926 -0.0074  0.1711
50877W        W93893  14.704  30.038  19.920 -0.5796 -0.0373  0.0289
50878W        W93894   4.246  11.238   4.982 -0.1729  0.3336  0.1620
50879W        W93895   7.016   6.106  17.799  0.2640 -0.0600  0.1801
50880W        W93896  32.682  24.327   9.409  0.2057 -0.1511 -0.0900
50881W        W93897  29.629  22.176  25.562  0.1799 -0.0818  0.2160
50882W        W93898  14.679  31.747  24.385 -0.2160  0.2134  0.0840
50883W        W93899  20.885   0.653   0.858  0.3007 -0.1957  0.1991
50884W        W93900  29.078   0.325  21.575 -0.0007  0.0290  0.1928
50885W        W93901  27.495  19.073  28.446  0.0048 -0.2612 -0.3142
50886W        W93902  22.169  34.373  26.272  0.0744  0.1717 -0.1902
50887W        W93903  23.252   4.582  15.911  0.3540 -0.2688  0.2205
50888W        W93904  13.299  27.710  19.770  0.1893 -0.1289  0.2203
50889W        W93905  26.763   0.387   7.973  0.5397 -0.0028  0.1530
50890W        W93906   3.054  12.371  24.137 -0.0498  0.0573  0.2762
50891W        W93907  21.932  16.236  22.871 -0.5981  0.2580 -0.0745
50892W        W93908   2.354   7.511   3.218  0.1848  0.1500 -0.1617
50893W        W93909  14.785  32.861  22.609  0.0205 -0.0284  0.1092
50894W        W93910   6.975   7.014  20.860 -0.0358 -0.3092  0.1580
50895W        W93911   4.692  10.585  29.181 -0.0391 -0.0365 -0.2370
50896W        W93912   5.544  18.889   4.469  0.1194  0.2498  0.1577
50897W        W93913   3.498  29.031   7.127  0.2570  0.0274  0.0125
50898W        W93914   1.152  25.294  10.182 -0.0333 -0.1359 -0.1577
50899W        W93915  27.244  26.841  28.889 -0.3177 -0.0668 -0.0238
50900W        W93916  26.199   7.936   9.548  0.0446  0.1352  0.0167
50901W        W93917   6.191  25.430  23.146 -0.1400  0.0260  0.0172
50902W        W93918  18.499  33.213  22.660 -0.2083  0.0789 -0.0909
50903W        W93919  24.777   6.510   8.282 -0.1530  0.3230  0.3297
50904W        W93920  13.425   3.029   7.779  0.5420  0.1836 -0.0128
50905W        W93921  21.083  14.783  23.818  0.1533 -0.1913  0.1803
50906W        W93922  28.335  33.709   4.355 -0.2005 -0.1014 -0.1906
50907W        W93923  18.292  13.548   4.912  0.1337  0.2007 -0.0012
50908W        W93924  21.003   6.444   0.796 -0.1480 -0.2085  0.0493
50909W        W93925   5.628   9.426  22.197  0.0606 -0.2381 -0.1464
50910W        W93926  10.627  11.786   2.270 -0.0612  0.0519  0.0526
50911W        W93927   9.678  29.128   5.394 -0.0214 -0.1289 -0.1813
50912W        W93928  14.775  30.698  21.768  0.0552 -0.3046  0.0292
50913W        W93929  21.026  14.424   6.435  0.0406  0.0164 -0.0138
50914W        W93930  34.215   5.888  14.550 -0.2176 -0.0983 -0.1076
50915W        W93931  14.763   4.667   9.185  0.1885  0.3287  0.2122
50916W        W93932  32.858   8.206  23.719 -0.0530 -0.0719 -0.0568
50917W        W93933  18.771   2.402   9.517  0.5151 -0.1321  0.0366
50918W        W93934  25.370  15.303   6.646  0.2580  0.2659 -0.4881
50919W        W93935  32.870   6.026   2.184  0.1498 -0.1172 -0.1290
50920W        W93936   3.112  23.134   5.855  0.0321  0.0428  0.2459
50921W        W93937   0.802  16.222   9.422 -0.1925  0.1868  0.0946
50922W        W93938   1.368   8.013   4.265  0.1160  0.0566  0.0321
50923W        W93939  23.678   2.009  22.029  0.4468 -0.2449  0.0723
50924W        W93940  20.548  24.471   7.061 -0.2501  0.0830 -0.1051
50925W        W93941   2.255   7.454   9.296 -0.1387  0.2982  0.3526
50926W        W93942   2.904  17.588   3.856 -0.1570 -0.2302  0.0246
50927W        W93943   9.558  30.421   1.938 -0.0313 -0.2367  0.3161
50928W        W93944  12.826   5.786   3.055 -0.1828  0.0216  0.1835
50929W        W93945  32.315  20.831   2.724 -0.3886 -0.2289  0.0734
50930W        W93946   1.447   0.327  15.005  0.2941  0.0317  0.3220
50931W        W93947   0.915  18.806   1.301  0.0109 -0.0820  0.0685
50932W        W93948  18.989  11.918   6.032 -0.3593  0.1639 -0.0113
50933W        W93949  29.772   5.580   3.902 -0.0945 -0.1712 -0.0133
50934W        W93950  22.455  31.310   5.972 -0.0167  0.1663  0.1728
50935W        W93951   1.233  26.135  27.896 -0.0399  0.0091  0.0232
50936W        W93952   0.535   3.901   7.232 -0.3019 -0.0192 -0.1728
50937W        W93953  23.439   4.560   0.011 -0.3050 -0.0221 -0.2989
50938W        W93954   5.073   5.247  28.415  0.1577  0.2432 -0.0619
50939W        W93955  10.315  20.171   7.373 -0.2357  0.0326  0.0504
50940W        W93956  29.857   1.248   3.011 -0.1628 -0.3896  0.0025
50941W        W93957  17.634   9.901  20.063 -0.1448  0.0209 -0.3313
50942W        W93958   5.026   1.965  25.547 -0.0990  0.3726  0.1620
50943W        W93959  27.327  11.250   3.694 -0.2430  0.1566  0.2800
50944W        W93960   6.975   7.753  25.382  0.0535  0.3800  0.1072
50945W        W93961   1.680  10.957   1.340  0.0169  0.4245 -0.2753
50946W        W93962  30.066  12.919   4.313  0.2442 -0.0509  0.3213
50947W        W93963   2.609  27.799   7.622  0.0804  0.3134 -0.1865
50948W        W93964   6.583  31.991   1.728 -0.0177 -0.2254  0.2141
50949W        W93965  27.639  10.188  25.579 -0.4297  0.1464 -0.3501
50950W        W93966  25.655  24.817  26.520  0.0074  0.3051 -0.1564
50951W        W93967   7.863  10.463  23.374 -0.1067 -0.2405  0.0498
50952W        W93968  23.113   0.734   9.372 -0.2001  0.1348  0.1155
50953W        W93969  34.770   6.765   3.234 -0.0614 -0.1224  0.0999
50954W        W93970  33.164  10.175   6.160 -0.2150 -0.3254  0.1057
50955W        W93971   4.846  26.369   6.315 -0.1228 -0.1177 -0.0803
50956W        W93972   1.388  27.991  22.663  0.0956 -0.2934 -0.0543
50957W        W93973  21.465  20.848  29.284  0.0453  0.3187  0.3929
50958W        W93974   1.880  32.609   4.722  0.1728 -0.0478 -0.0653
50959W        W93975  30.754  25.753  25.377  0.0768 -0.0818 -0.0142
50960W        W93976  32.742  19.402  19.412  0.0868 -0.1242 -0.0274
50961W        W93977  10.147  31.671  24.854  0.0451  0.1017  0.1168
50962W        W93978   6.773  11.969   3.404  0.2187 -0.0177 -0.1297
50963W        W93979  34.126  30.881   0.206  0.1033  0.3980  0.5126
50964W        W93980   6.413  17.147  26.229 -0.0213  0.0159 -0.4159
50965W        W93981  27.509  17.638  24.834 -0.0380 -0.2095 -0.2026
50966W        W93982   3.909   0.905   7.461  0.4602 -0.0002  0.4079
50967W        W93983  15.063  16.671  22.732  0.0052 -0.0481  0.1074
50968W        W93984  32.907  34.700   6.766  0.0804 -0.1240  0.1673
50969W        W93985  16.878  21.363   4.301 -0.0103 -0.0312 -0.2657
50970W        W93986  32.188  11.200   0.198 -0.2454  0.0448 -0.4229
50971W        W93987  29.731   0.443   4.199 -0.0599  0.0591 -0.2773
50972W        W93988   3.374   1.206   6.331 -0.0957  0.0142  0.2713
50973W        W93989  30.403  28.519  27.568  0.0736  0.0717  0.1630
50974W        W93990   5.741  31.703  20.943  0.1717  0.1083 -0.2009
50975W        W93991   2.171   6.039  24.565  0.0492 -0.3307 -0.0781
50976W        W93992  22.724  21.800   5.702 -0.0573 -0.3528  0.0112
50977W        W93993  25.181   8.148   6.498  0.0377 -0.1202  0.0874
50978W        W93994  10.729  18.665   6.893 -0.1799  0.2029  0.2434
50979W        W93995   3.334   3.265  22.702  0.1116 -0.0617 -0.2496
50980W        W93996  10.032   7.540  26.449 -0.0107  0.3194  0.2461
50981W        W93997  33.697   7.173   8.999 -0.2873  0.1483  0.2446
50982W        W93998   5.883  32.024   5.628  0.3172  0.4263 -0.0682
50983W        W93999   4.317  12.357  26.683 -0.2526  0.4492  0.1687
50984W        W94000  16.128   8.736   5.119  0.0582  0.0888 -0.2296
50985W        W94001  19.834  11.099   8.646  0.2281 -0.1169  0.0909
50986W        W94002   2.101  27.839   7.701  0.0481  0.0150 -0.1097
50987W        W94003   1.604   9.576   0.106  0.3433 -0.1111 -0.1173
50988W        W94004   9.054  28.832  23.088  0.0348 -0.0954 -0.1496
50989W        W94005  25.916   8.879   1.924 -0.0367  0.0469 -0.1672
50990W        W94006  29.138   1.013  21.762  0.1893  0.0058  0.2027
50991W        W94007  20.325   7.672  26.737 -0.1310 -0.1597 -0.4861
50992W        W94008   0.514   4.887   0.942 -0.2561  0.1261  0.1090
50993W        W94009  30.882  33.491  11.762 -0.0083 -0.0268 -0.2173
50994W        W94010  28.128  22.467   3.125 -0.0862 -0.4918  0.0983
50995W        W94011  11.817  22.592  24.752 -0.3692  0.1732 -0.2789
50996W        W94012  26.102  13.231  24.193 -0.2164 -0.1281 -0.2607
50997W        W94013  22.718   9.652   7.242  0.1199  0.1503 -0.0895
50998W        W94014  31.852  28.233   4.766 -0.3199  0.1378 -0.0382
50999W        W94015   6.339   1.609  23.822 -0.1282 -0.2810  0.0086
51000W        W94016  32.112  34.404  18.554  0.0447  0.0802 -0.0079
51001W        W94017   7.280  23.032   2.006 -0.1618 -0.1384  0.3308
51002W        W94018  13.672   8.306   7.940 -0.4056  0.1022 -0.1173
51003W        W94019  15.354   0.057  28.183 -0.1772  0.3331 -0.0936
51004W        W94020  32.309  22.405   4.288 -0.1838 -0.0298  0.2609
51005W        W94021  12.175   6.020   6.318  0.2700  0.3731 -0.0261
51006W        W94022   5.092  13.100   8.809 -0.1006 -0.0345 -0.1203
51007W        W94023  10.088  20.663   5.668  0.0238 -0.0246  0.0103
51008W        W94024   5.859   4.919   3.315  0.0154  0.1914 -0.1881
51009W        W94025  32.740  33.562   1.821  0.1008 -0.0169 -0.2948
51010W        W94026  10.637   1.699   0.635 -0.3607  0.0067 -0.1281
51011W        W94027  20.034  30.072  10.748  0.1788  0.2086 -0.0261
51012W        W94028  25.047   1.589   8.963  0.1736  0.1201  0.0819
51013W        W94029  32.719  19.203  28.431  0.2662 -0.0453  0.2079
51014W        W94030  27.276  32.031  23.993  0.2037 -0.1593  0.4076
51015W        W94031   2.662   3.451   7.757  0.0653 -0.0901  0.0294
51016W        W94032  31.513  29.131   9.002 -0.0411  0.1790  0.1493
51017W        W94033  22.807  12.547   3.508 -0.0238  0.6102 -0.0952
51018W        W94034  28.925  25.066  29.153 -0.2775  0.2214  0.0371
51019W        W94035  30.114   1.228  23.425  0.2054 -0.3715 -0.1177
51020W        W94036   0.192  26.430  24.729 -0.0553 -0.0408 -0.1093
51021W        W94037  28.491  21.485  18.012 -0.1018  0.0799  0.2993
51022W        W94038   0.200  17.603  28.446  0.3033  0.0064  0.0086
51023W        W94039  33.884   4.965  10.127 -0.0826  0.3278 -0.2500
51024W        W94040  31.868   2.136   5.921  0.0310 -0.2343 -0.3794
51025W        W94041  31.118   7.471  15.893 -0.1708  0.0759  0.3122
51026W        W94042  31.356   8.940   8.413  0.1072 -0.1903 -0.0571
51027W        W94043   2.361   1.043   1.257 -0.1158 -0.0929  0.0054
51028W        W94044  32.581  11.340   1.795 -0.1735 -0.1604  0.4309
51029W        W94045  24.306   3.785   7.233 -0.0196  0.2164  0.1213
51030W        W94046  27.955  22.526   5.041  0.0309 -0.2348 -0.2316
51031W        W94047  26.199   6.150   8.317 -0.1989  0.1519 -0.0020
51032W        W94048  33.725   6.031   7.095  0.2523  0.2113  0.3451
51033W        W94049   0.723   2.802   7.113 -0.0420  0.2821  0.3342
51034W        W94050   0.135   7.318   5.320 -0.0615 -0.0079  0.0839
51035W        W94051   4.853  16.570  14.574 -0.0295  0.0009  0.2657
51036W        W94052  32.823  32.338  28.843 -0.2560  0.0267 -0.0183
51037W        W94053  22.737   9.107  28.211  0.1725  0.2057  0.1987
51038W        W94054   6.120  24.680  17.968  0.1577 -0.0065 -0.0886
51039W        W94055  26.990  15.070  16.218 -0.1317  0.1170  0.2924
51040W        W94056  29.192  34.706  24.787 -0.0793 -0.1701 -0.1854
51041W        W94057   4.271  31.995   7.252  0.2711  0.0211 -0.1944
51042W        W94058   2.885   8.289  29.252 -0.3927 -0.0163 -0.2512
51043W        W94059  33.753   1.979  27.202 -0.0711  0.1810 -0.0647
51044W        W94060  28.744  18.412  25.048  0.0945  0.1539 -0.0795
51045W        W94061   5.428   0.766   5.356  0.2753 -0.0358  0.1036
51046W        W94062  29.698  28.079   5.265 -0.3091  0.2250 -0.3776
51047W        W94063  19.893   8.019  28.818 -0.0984  0.0145  0.1557
51048W        W94064  20.936   9.358   3.420  0.0359  0.0879  0.1274
51049W        W94065   6.192  25.412   1.379 -0.1413  0.2952 -0.0552
51050W        W94066   2.651  32.554  27.973  0.1909  0.0704 -0.3922
51051W        W94067   4.108  26.243  21.502  0.1874 -0.1910 -0.3119
51052W        W94068   6.680  12.701   0.228 -0.0586 -0.0503 -0.2201
51053W        W94069  27.861   7.859   8.450  0.1628  0.2725 -0.0063
51054W        W94070  11.942  15.957   4.883 -0.0278  0.0298 -0.1128
51055W        W94071  34.672  27.459   7.211 -0.1338 -0.2597 -0.1324
51056W        W94072  16.608   4.482   9.492 -0.2762  0.2445  0.0330
51057W        W94073   2.259  30.709  16.377  0.1238 -0.1540  0.0489
51058W        W94074   0.321  10.962   6.028 -0.1564 -0.0884  0.1810
51059W        W94075  26.698   9.733   6.969 -0.1632 -0.1166  0.1645
51060W        W94076  30.684  30.803  26.512 -0.0889 -0.2806 -0.2226
51061W        W94077  25.501   3.302   5.899 -0.0331  0.3249  0.1035
51062W        W94078   0.248  26.988   9.046  0.0027 -0.3142  0.3539
51063W        W94079  24.349  17.449  15.737 -0.0829  0.0850  0.0769
51064W        W94080   5.199   1.491  26.887  0.0653 -0.1034 -0.0123
51065W        W94081  30.225  13.069  26.416 -0.3320  0.2127  0.0605
51066W        W94082   3.648  12.822   6.540 -0.1813  0.1323 -0.1101
51067W        W94083  32.248   5.440  18.984  0.1369  0.0237  0.2209
51068W        W94084   0.851  32.848  22.032 -0.2190  0.0237  0.1658
51069W        W94085  11.938   8.140  21.908 -0.0200  0.3330 -0.1705
51070W        W94086  28.260   4.294  10.187  0.1753 -0.0699 -0.0389
51071W        W94087  28.818  34.775   2.140 -0.1842 -0.1117 -0.0515
51072W        W94088   2.390   8.461   9.859 -0.2313 -0.2796  0.3326
51073W        W94089   7.193  32.299   9.601 -0.0826  0.2793  0.0002
51074W        W94090  22.028   9.565  18.024  0.0069  0.5470 -0.1573
51075W        W94091  21.331  32.725  17.287 -0.0500  0.5771  0.1298
51076W        W94092  29.776   3.752   9.251  0.0915  0.1738 -0.2095
51077W        W94093  23.916   6.843   9.242  0.1845 -0.1236  0.1931
51078W        W94094  26.885  19.862   9.480  0.0760  0.1226  0.2194
51079W        W94095   4.251   5.047  28.107  0.1847  0.2175  0.0124
51080W        W94096   7.720  29.861  23.641  0.2550 -0.0377  0.0810
51081W        W94097  32.931  29.216  15.896 -0.2091 -0.1887  0.1912
51082W        W94098  22.697  28.330   2.417 -0.4095 -0.2216 -0.4515
51083W        W94099   1.081   2.740  10.220  0.1173  0.2255 -0.0986
51084W        W94100   1.842   8.839   0.702  0.1004 -0.1113  0.0842
51085W        W94101   7.042   1.040   6.590  0.3174  0.4210 -0.2628
51086W        W94102  24.214  24.197  26.968  0.0712 -0.0859 -0.0197
51087W        W94103  33.448  12.748   5.565 -0.1163 -0.1613  0.0238
51088W        W94104  15.477  23.270  17.617 -0.0721 -0.0980 -0.0804
51089W        W94105   5.973   8.670  19.829  0.2311 -0.1020 -0.0443
51090W        W94106  19.886   1.053   5.104 -0.0695 -0.0259 -0.2955
51091W        W94107   1.359   5.863   1.675  0.0148  0.0076  0.0884
51092W        W94108  26.737  30.294   8.603 -0.1515 -0.0340 -0.0188
51093W        W94109  28.667   2.637   8.531 -0.2288  0.3045  0.0208
51094W        W94110  29.743  11.534  20.972  0.0573  0.2027  0.2049
51095W        W94111   8.977  32.702  20.532 -0.2681  0.0874 -0.0636
51096W        W94112  17.424  29.937   8.912 -0.1666 -0.0647 -0.0169
51097W        W94113  26.149  23.167  19.532 -0.0077  0.0174 -0.0610
51098W        W94114   0.601   5.931   6.760  0.0414 -0.0679  0.0643
51099W        W94115   0.880  31.117   8.566  0.1087  0.0540 -0.4318
51100W        W94116  21.551  10.752  24.878 -0.0602 -0.0289  0.2465
51101W        W94117   9.169  15.764  23.226 -0.3293 -0.2596 -0.1190
51102W        W94118   6.213  22.127  17.543  0.1851 -0.1767  0.0372
51103W        W94119   2.201  15.673   7.055  0.2411  0.7647  0.2044
51104W        W94120  20.248  12.925   1.697  0.0247 -0.3912  0.0330
51105W        W94121   7.172  14.683   9.043 -0.1880  0.0089  0.0336
51106W        W94122  29.594  28.012   1.390  0.3555 -0.1459  0.3022
51107W        W94123   7.700  34.222  10.096  0.0447  0.1738 -0.1652
51108W        W94124   5.739  19.222   2.265  0.2793 -0.1350 -0.1887
51109W        W94125  24.908   2.734  11.174 -0.1151 -0.1357 -0.1440
51110W        W94126   2.101  31.413   4.724  0.0416  0.0105 -0.4544
51111W        W94127  20.588   4.843   4.085  0.0968 -0.1535  0.2224
51112W        W94128  30.251  11.513   8.147 -0.0967 -0.1748 -0.1144
51113W        W94129  30.773  32.479   9.692 -0.0286 -0.4701  0.0066
51114W        W94130   3.397  25.159  26.340 -0.1961  0.1036  0.0970
51115W        W94131  20.606  12.847  18.577  0.3012  0.1473  0.0101
51116W        W94132  27.913   1.357   9.330  0.0737  0.0821 -0.1822
51117W        W94133  28.291  25.149   5.493  0.0100  0.1449 -0.3802
51118W        W94134   6.367   1.047  28.444 -0.1420  0.1333  0.0366
51119W        W94135  28.373  34.716   1.817  0.1149  0.2783 -0.3147
51120W        W94136  25.907  32.421  10.929  0.0254  0.0736  0.2560
51121W        W94137   2.403   9.003   9.674 -0.0413 -0.1480  0.0644
51122W        W94138  29.605  10.788   4.401 -0.5105  0.1071  0.1316
51123W        W94139  16.009  32.431  27.508 -0.1809  0.2701  0.4523
51124W        W94140  24.068  16.041   3.601  0.0242  0.1631 -0.0849
51125W        W94141  33.544   4.124   6.940 -0.0396 -0.0426  0.0769
51126W        W94142   4.765  12.868  17.385 -0.1110  0.0565 -0.2696
51127W        W94143   0.155  15.153   8.342 -0.2708 -0.1049  0.3428
51128W        W94144  32.307  19.036  10.562  0.2815  0.2066  0.2267
51129W        W94145  32.492  34.180   4.861  0.3208 -0.0664  0.1734
51130W        W94146  31.620  26.232   4.661 -0.0100  0.1340 -0.0941
51131W        W94147   1.926  33.528   5.874 -0.0449 -0.0278  0.0964
51132W        W94148   2.483   3.285  26.108 -0.0782  0.2852  0.2415
51133W        W94149  32.496  34.573  16.646  0.1334 -0.1447  0.4532
51134W        W94150  31.201   3.273  24.307 -0.0692  0.2682 -0.2119
51135W        W94151   4.781  14.883   4.797 -0.0220 -0.0584  0.2927
51136W        W94152  32.073   0.491   9.686  0.2180 -0.0145  0.2452
51137W        W94153   0.065  29.715   1.355 -0.2204 -0.0297 -0.1910
51138W        W94154  32.552   7.534  10.072 -0.4135 -0.2238  0.0041
51139W        W94155  31.125   6.175   9.687  0.1181  0.1825  0.1598
51140W        W94156   1.871  13.494   5.448  0.0019 -0.3209 -0.0740
51141W        W94157  31.806   9.479   6.100  0.1657  0.1724  0.4452
51142W        W94158  33.293   6.342   3.005  0.6603  0.0684 -0.3598
51143W        W94159   0.980   3.324  27.745  0.2396  0.4202 -0.3630
51144W        W94160  30.703  33.610   2.251 -0.0974  0.2704  0.2212
51145W        W94161  13.487  14.430   1.720  0.1977  0.3462 -0.0371
51146W        W94162   0.754   4.812  27.130  0.2160 -0.2848  0.0011
51147W        W94163   3.447   1.221   6.902  0.0123  0.1004  0.2019
51148W        W94164  25.693  25.083   3.251  0.1154 -0.0140 -0.1303
51149W        W94165  29.639  32.625   7.357 -0.3406  0.3469  0.0756
51150W        W94166  16.607  13.404   5.369  0.1848  0.0504  0.0981
51151W        W94167   6.724  30.930  26.081 -0.0673  0.0009  0.1167
51152W        W94168  13.785  10.851   9.564 -0.1459 -0.0298  0.1949
51153W        W94169  21.454  11.572   1.311  0.3209  0.0529  0.1977
51154W        W94170  28.979  23.425  29.019  0.1124 -0.3645  0.0453
51155W        W94171  25.813  28.186  20.127  0.1989 -0.1288  0.1229
51156W        W94172  33.039  15.367  23.083  0.1530 -0.0247 -0.0413
51157W        W94173  31.384  14.653   1.896 -0.0594  0.3235  0.0432
51158W        W94174  27.980  28.072   8.487  0.0652  0.0614  0.1564
51159W        W94175  15.847  31.802  26.795 -0.0119  0.3904 -0.0538
51160W        W94176  23.389   3.205  10.321 -0.1752 -0.0693  0.1966
51161W        W94177  21.947  34.707   5.670  0.0395  0.1609  0.1714
51162W        W94178  22.962  13.534   0.480  0.0329  0.3730  0.0452
51163W        W94179  32.107  15.918   0.689  0.1437 -0.1839 -0.0655
51164W        W94180  26.120  33.155   8.380 -0.0309  0.0062  0.1248
51165W        W94181  30.179  15.926   7.882  0.0043 -0.1238  0.0828
51166W        W94182  30.348   7.366   3.252 -0.0702  0.4021  0.2625
51167W        W94183  33.963   7.216  27.198  0.1818 -0.1085 -0.3472
51168W        W94184  33.774   2.936   0.309  0.0018 -0.0245 -0.2274
51169W        W94185  32.646   2.875   3.731 -0.1452  0.1604  0.2651
51170W        W94186   2.130  25.606   4.590  0.0320  0.3914 -0.1802
51171W        W94187   3.176   0.394   4.839 -0.0253  0.0160 -0.1164
51172W        W94188  27.813   6.322   9.066 -0.2302 -0.1895 -0.2144
51173W        W94189  33.696  34.187   2.526 -0.1384 -0.1481 -0.1673
51174W        W94190  28.121  20.189  27.407  0.0240 -0.1117  0.1317
51175W        W94191   6.500   6.212   1.350  0.0725 -0.1104 -0.3572
51176W        W94192  18.928  29.433  28.889 -0.1702  0.0577  0.0871
51177W        W94193   6.614   1.884   9.630 -0.2124 -0.3524 -0.0181
51178W        W94194  33.126  33.973   1.560 -0.2534  0.0784 -0.1662
51179W        W94195   9.753  32.475   5.927  0.1686  0.2051  0.3073
51180W        W94196  12.498   4.961   8.480  0.4339  0.1006  0.0896
51181W        W94197  31.788  25.881   3.194 -0.0125  0.5399  0.2011
51182W        W94198  31.645   8.710  25.918 -0.0293 -0.2445 -0.0716
51183W        W94199  26.655   2.826  17.987 -0.0798 -0.2065 -0.0172
51184W        W94200  28.371  34.678  27.086  0.1570 -0.2007 -0.0162
51185W        W94201  22.008   7.576   3.949 -0.0179  0.0173 -0.1396
51186W        W94202   3.321   5.298   8.242 -0.0672 -0.0924 -0.1084
51187W        W94203  16.645  31.764   9.101 -0.0124  0.0227 -0.0409
51188W        W94204   9.427  31.585   9.416 -0.0850  0.3013  0.0371
51189W        W94205  25.215  31.109   5.096  0.2276 -0.1274  0.1157
51190W        W94206  20.844  11.701  28.249  0.1469  0.1872  0.3069
51191W        W94207  23.037  10.778   9.386 -0.1505 -0.1920  0.0006
51192W        W94208  30.493   2.420   8.709 -0.0306 -0.0336  0.3828
51193W        W94209   7.524  20.395  14.665 -0.1148  0.1694 -0.3906
51194W        W94210  19.716   9.318  21.459 -0.2441  0.0146  0.0902
51195W        W94211  33.887  27.404  10.603 -0.0177  0.1534  0.3760
51196W        W94212  11.539  29.356  26.255  0.3303  0.1101 -0.1715
51197W        W94213  34.749  20.235  27.558  0.1354  0.3028 -0.0947
51198W        W94214  33.037  23.734   0.583 -0.1845 -0.1306 -0.1600
51199W        W94215   5.556  33.817   5.397  0.1860  0.1112  0.0958
51200W        W94216  27.746  24.335   2.947 -0.1585  0.2647 -0.3622
51201W        W94217   1.321  30.843   6.548 -0.0039 -0.0819 -0.2577
51202W        W94218   3.049  32.144  10.516  0.0296 -0.3188  0.0569
51203W        W94219  34.607  29.045   7.107  0.0890 -0.1946  0.2436
51204W        W94220   0.566  31.581  27.506 -0.2203  0.0574 -0.1871
51205W        W94221   0.887  29.927  24.780 -0.3833 -0.2306 -0.3378
51206W        W94222  10.277  13.172   8.091  0.1453 -0.1398  0.1462
51207W        W94223   0.894  15.062  27.345 -0.0701  0.0485  0.0003
51208W        W94224  14.260  20.956   2.810 -0.1752 -0.1309 -0.0079
51209W        W94225   6.874  13.874  29.111  0.0818  0.0178 -0.3620
51210W        W94226  27.187   6.701  25.926  0.0188  0.1321 -0.3080
51211W        W94227  10.921  17.931   2.639 -0.1800 -0.2205 -0.1103
51212W        W94228  24.402  27.373   9.447 -0.1683 -0.0571  0.1984
51213W        W94229  32.162  30.935   1.261  0.0802 -0.0574 -0.0470
51214W        W94230  28.457  33.180  28.366 -0.4667 -0.1627  0.1842
51215W        W94231   4.122   7.977   2.116 -0.1304  0.0186  0.1714
51216W        W94232  12.802   6.841  16.450 -0.1062  0.0419 -0.4378
51217W        W94233  21.698  34.530   7.622 -0.0508  0.0241  0.3185
51218W        W94234   1.817   5.221  14.979  0.1049 -0.1260  0.2115
51219W        W94235   6.135   3.488   2.786 -0.3400  0.3373 -0.0749
51220W        W94236  22.465  34.253   9.800  0.2238  0.3171 -0.3690
51221W        W94237  23.806   7.818  19.829  0.1099  0.1076 -0.2210
51222W        W94238  27.773  33.765   6.993 -0.0080  0.1976 -0.0956
51223W        W94239   0.807  25.538   7.360 -0.1497  0.1348  0.0917
51224W        W94240   2.582  22.072   4.963  0.2766  0.1126  0.2482
51225W        W94241   2.966   2.399  26.800  0.0463 -0.0116 -0.0583
51226W        W94242  29.963  33.807   7.701 -0.5704 -0.1133  0.2623
51227W        W94243   1.412   7.098   1.706 -0.5377  0.3656  0.3618
51228W        W94244   5.026  29.100   1.102  0.1712  0.0038 -0.1541
51229W        W94245   2.476  29.892  25.077  0.1866  0.2166 -0.1948
51230W        W94246  13.565   9.903   1.373  0.0401 -0.2025 -0.0355
51231W        W94247  28.235   5.353   2.259 -0.1324  0.0499 -0.1622
51232W        W94248  17.501  32.906   7.103  0.1148 -0.1226 -0.2225
51233W        W94249   0.408   1.222  23.123  0.2176  0.1865 -0.1239
51234W        W94250   7.312   1.505  15.412  0.0707  0.0087  0.0295
51235W        W94251  18.962  17.136   7.963 -0.1312 -0.2107  0.0892
51236W        W94252  14.429   2.465   9.662  0.0398  0.0355 -0.2246
51237W        W94253  32.138  30.508   5.869 -0.0082  0.0142 -0.1766
51238W        W94254   1.303   3.661   1.288  0.2087  0.1489  0.2369
51239W        W94255  22.329  16.525  29.180 -0.1458  0.2215 -0.2652
51240W        W94256  28.080   3.620   0.001 -0.3362  0.0192 -0.1719
51241W        W94257  34.770  29.429   4.223 -0.0729  0.0272 -0.0977
51242W        W94258  34.138  25.962  26.921 -0.1991 -0.0477 -0.2785
51243W        W94259  16.647  10.222  21.894 -0.2028 -0.1254 -0.1030
51244W        W94260   4.507   6.216  25.297  0.0865  0.2374 -0.4792
51245W        W94261  28.520  23.787  10.651 -0.1059  0.1929 -0.1389
51246W        W94262   7.182   3.724  27.670 -0.1681  0.1649 -0.0662
51247W        W94263   9.313  16.484  28.077  0.0802  0.4122  0.0345
51248W        W94264  31.530   1.487   0.887 -0.2754 -0.0785  0.4728
51249W        W94265  31.079   0.583   5.089  0.2248  0.0872  0.0532
51250W        W94266  24.709   6.661  23.233 -0.0516  0.0361  0.2223
51251W        W94267  22.369  27.702   8.142  0.1752 -0.0343 -0.1568
51252W        W94268  23.767  22.171   9.204  0.2780  0.1205 -0.0804
51253W        W94269  24.227  30.100  26.774  0.3416  0.0030 -0.2716
51254W        W94270  32.963   3.925   0.723 -0.2108 -0.2241  0.1055
51255W        W94271  27.091  26.184   9.306 -0.1948 -0.1518 -0.3632
51256W        W94272   1.527  29.975   7.096 -0.3507 -0.0831  0.2175
51257W        W94273  26.680   8.190   4.310 -0.0774 -0.0349 -0.3942
51258W        W94274   5.219  32.008   1.025  0.3090 -0.1393 -0.0712
51259W        W94275  29.454   6.214   6.703 -0.1936  0.0881 -0.0526
51260W        W94276  22.957   9.083   6.132  0.0001 -0.1290 -0.2090
51261W        W94277  23.740   0.227   6.842 -0.1401  0.1337  0.0381
51262W        W94278  27.960   2.780  10.578 -0.1800  0.1589 -0.1588
51263W        W94279   3.618  33.259  25.331  0.0079  0.0480  0.0968
51264W        W94280   0.015   5.706  23.785  0.1066 -0.1662 -0.2664
51265W        W94281  25.752  33.531   6.061 -0.1790  0.2707 -0.1459
51266W        W94282  17.973   2.395   9.209  0.0079  0.1082 -0.2478
51267W        W94283  15.351   3.924   9.811 -0.1344  0.3214 -0.0162
51268W        W94284  16.497   6.403  25.417  0.0440 -0.1309 -0.2416
51269W        W94285  33.346  14.725   5.704  0.1055  0.0592  0.1150
51270W        W94286   6.539   0.496  24.529  0.0789  0.2057 -0.1261
51271W        W94287  34.153  13.424  18.545 -0.2045  0.0640 -0.0961
51272W        W94288   1.990   7.103  15.158  0.1929 -0.0095  0.1938
51273W        W94289  29.970   4.818   7.915  0.3156  0.1059  0.2545
51274W        W94290  18.115  12.830   7.649  0.1903  0.1644  0.0730
51275W        W94291  29.930   7.218   6.836 -0.1995  0.2253  0.0017
51276W        W94292   2.605  26.522   9.445 -0.2503 -0.1804  0.3504
51277W        W94293   0.502  11.065   5.202 -0.1609  0.0826 -0.0967
51278W        W94294   1.706  34.374  28.562  0.1438  0.0861  0.0961
51279W        W94295   5.397  23.799   8.903 -0.3510 -0.1792 -0.2083
51280W        W94296  26.973   6.572   4.850 -0.1925 -0.1243  0.0647
51281W        W94297   4.863  16.528   7.391 -0.2195  0.2479 -0.0468
51282W        W94298  17.808  26.752  18.143 -0.0601 -0.0239  0.3816
51283W        W94299  34.415   3.728   1.678 -0.1644  0.1873 -0.1333
51284W        W94300   7.654  29.330   2.465  0.3032 -0.3272  0.0907
51285W        W94301  18.691  21.454  26.354 -0.0592 -0.0631  0.1839
51286W        W94302  30.510  26.541   1.351  0.0725  0.0690 -0.0147
51287W        W94303   8.864   7.043   7.958  0.0568  0.0614 -0.0313
51288W        W94304   6.219  27.435   6.056 -0.1605 -0.3074  0.0338
51289W        W94305   0.280  28.912   5.241 -0.4059  0.4117 -0.0560
51290W        W94306  10.207  21.590   7.203  0.0888  0.1585  0.3899
51291W        W94307  23.779   8.664  28.908 -0.0240 -0.2011  0.2255
51292W        W94308   6.318  34.300   5.178 -0.3323 -0.0594  0.1087
51293W        W94309   6.524  34.451   6.473  0.3724  0.0809  0.1350
51294W        W94310   0.697  24.023  22.731  0.0133  0.0241  0.1441
51295W        W94311  30.642  22.635  10.440 -0.0196 -0.0520 -0.0758
51296W        W94312  25.006   5.685   4.784 -0.0437  0.3041 -0.2863
51297W        W94313   8.182   1.497   9.552 -0.0304 -0.3066 -0.1140
51298W        W94314   4.910   8.365   4.261 -0.1221 -0.0244 -0.2343
51299W        W94315  31.703  10.567   6.479  0.2272 -0.3957 -0.1043
51300W        W94316  12.801  26.399  25.474  0.1062  0.0436 -0.0364
51301W        W94317   2.942  17.473   8.638  0.2610 -0.0873  0.0934
51302W        W94318  15.580   3.208   6.548  0.0294 -0.0261 -0.0998
51303W        W94319  18.237  32.727   0.709 -0.1712 -0.1542 -0.0886
51304W        W94320  24.797  34.686   8.287  0.3389  0.0273  0.1558
51305W        W94321   1.313   6.195  25.198  0.1472 -0.1616  0.0233
51306W        W94322   2.322  33.501   3.580 -0.3177  0.0100 -0.1029
51307W        W94323  23.574  12.073  20.253  0.0809 -0.3139 -0.2361
51308W        W94324  26.379   6.316   4.137 -0.0325  0.0181  0.0266
51309W        W94325   1.334   8.131   5.013  0.0783 -0.0552  0.0815
51310W        W94326  32.791  33.246  10.168 -0.2624 -0.1305 -0.1888
51311W        W94327  13.161  14.718  19.632  0.4536 -0.0332  0.0050
51312W        W94328  34.759  22.358   3.045 -0.0584 -0.0119  0.0277
51313W        W94329   2.912  19.708   0.076 -0.0737 -0.1134  0.0322
51314W        W94330  25.558  11.653  26.033 -0.0086 -0.2233 -0.0071
51315W        W94331  28.971  31.149   2.765 -0.1763 -0.0908 -0.0772
51316W        W94332  24.250  16.812   4.617 -0.0433  0.0922  0.0222
51317W        W94333   8.820  27.801  29.128  0.1313  0.1081  0.0884
51318W        W94334   0.377   3.281   2.855  0.0276 -0.0631  0.0660
51319W        W94335  34.614  28.369   7.096 -0.1312 -0.2424 -0.0071
51320W        W94336   4.460   9.138  25.192  0.2170  0.0454  0.0650
51321W        W94337   7.766   7.458   6.895 -0.1325 -0.2511  0.1662
51322W        W94338   2.805  24.323   1.104 -0.2201  0.0608 -0.1147
51323W        W94339   4.359   5.624  10.080 -0.0793  0.1929 -0.0676
51324W        W94340   4.118  31.836  28.574  0.0684  0.1320  0.0444
51325W        W94341  30.865   5.430   5.656  0.0287  0.0093 -0.5569
51326W        W94342  31.811  14.487   9.817 -0.1427  0.0371 -0.0274
51327W        W94343  24.933   3.250   7.738 -0.4058  0.3073  0.2604
51328W        W94344  23.960  33.966  10.040  0.0005 -0.1242  0.1506
51329W        W94345   0.672   1.485   7.345  0.1925 -0.0348  0.2909
51330W        W94346  20.092   9.335   9.073  0.2140  0.1989  0.0079
51331W        W94347  24.408  34.331  25.805  0.3673  0.2832  0.0071
51332W        W94348  30.015   2.694  11.064 -0.1063  0.0763 -0.0671
51333W        W94349  31.586  29.158   6.569  0.0836  0.0718  0.0199
51334W        W94350  10.066   5.779   8.557  0.0435 -0.0822 -0.2029
51335W        W94351   4.318   1.978   6.971 -0.1304 -0.1759 -0.1975
51336W        W94352  33.516   4.224   6.450  0.4261 -0.1799  0.0628
51337W        W94353   9.982   1.667   3.205  0.2035 -0.0543 -0.0413
51338W        W94354   4.508  30.111   8.475  0.1780 -0.3269  0.1220
51339W        W94355  13.300  22.734  26.504  0.0898 -0.0027 -0.0403
51340W        W94356   6.792  32.138   8.565 -0.1428 -0.0839  0.1989
51341W        W94357  16.285   8.628  27.128  0.1937 -0.2980  0.0185
51342W        W94358  23.266  34.050  22.483 -0.0283 -0.1011 -0.1742
51343W        W94359  23.226   5.534   6.108 -0.0992 -0.1391 -0.2415
51344W        W94360  11.145  26.513   1.870  0.1459  0.0239  0.1870
51345W        W94361  21.320   0.192   6.698  0.1173 -0.2795 -0.0950
51346W        W94362   9.797   3.396   5.497  0.0178  0.1848  0.0539
51347W        W94363   0.060   5.398  26.417 -0.0033 -0.3033  0.0842
51348W        W94364  12.210   6.505  13.925  0.0445  0.0501  0.1151
51349W        W94365  28.835  16.848  27.016 -0.2349  0.3923 -0.0250
51350W        W94366  31.953  14.064  15.437  0.2639 -0.1230 -0.3504
51351W        W94367   1.683  20.975  29.114 -0.0184  0.0289  0.3878
51352W        W94368  27.199  16.069   6.713  0.1024  0.2275  0.2494
51353W        W94369   0.911   0.783   9.312  0.0616  0.1586  0.1367
51354W        W94370  21.806   4.615   5.446  0.2095 -0.1243 -0.1622
51355W        W94371  27.307   4.513   2.907 -0.1384  0.1762 -0.2603
51356W        W94372   6.308  12.998   8.280 -0.2840  0.0718  0.0546
51357W        W94373   2.916  28.318   9.876  0.2253  0.2242 -0.0771
51358W        W94374  30.970   0.799   3.881  0.3797 -0.3477  0.0713
51359W        W94375   3.117   6.862   9.854 -0.1720  0.0373  0.0057
51360W        W94376  25.387   6.954  25.200  0.3280  0.1800 -0.1637
51361W        W94377   4.086  23.426   7.824 -0.1504 -0.0135  0.0845
51362W        W94378  16.938   6.369  10.700  0.2117 -0.2809  0.2368
51363W        W94379  34.604  31.290   5.024 -0.1486  0.0388  0.0663
51364W        W94380   5.535   5.652   6.485  0.4339 -0.0756  0.1264
51365W        W94381  34.536   5.428   9.552  0.0302  0.0143  0.1094
51366W        W94382   9.254  24.062   4.080  0.1990  0.0028 -0.1330
51367W        W94383  11.947   4.219   6.063 -0.3066  0.0489  0.2912
51368W        W94384  17.170   7.204   4.635  0.0170 -0.0705  0.0704
51369W        W94385   4.457  32.509   9.562  0.1468 -0.1477 -0.2244
51370W        W94386  29.975   3.239   7.028 -0.1659 -0.0773 -0.1499
51371W        W94387  11.498   4.804   6.272 -0.1371 -0.0193  0.3137
51372W        W94388  24.209  19.066   7.992 -0.0936  0.1693  0.0910
51373W        W94389  14.861   3.903  26.031 -0.0879 -0.1333  0.2045
51374W        W94390  33.582   0.960   8.718  0.2621 -0.0951 -0.0427
51375W        W94391  17.121  25.900   1.865 -0.3154 -0.0418  0.2503
51376W        W94392  16.876  26.420   6.347  0.0805 -0.4159  0.1230
51377W        W94393   3.282  21.141   3.147  0.1145 -0.2991  0.0206
51378W        W94394  34.616  29.988   7.034  0.1283  0.1719  0.1512
51379W        W94395  28.757  31.815  11.601  0.1016  0.0882 -0.1715
51380W        W94396   9.807   5.640   4.928 -0.0254  0.3734  0.0774
51381W        W94397  20.917   3.784   2.164  0.1818 -0.2263  0.0884
51382W        W94398   1.034  30.135   6.823  0.3329  0.2498  0.1832
51383W        W94399   4.051  10.266  18.155 -0.0527 -0.2303  0.1754
51384W        W94400  19.151   7.019   8.668  0.0525 -0.1127 -0.1138
51385W        W94401   4.568  28.917  19.173 -0.4914 -0.4902  0.2417
51386W        W94402  31.822  28.374   7.934 -0.2222 -0.3998  0.0714
51387W        W94403  10.867  32.992  23.444 -0.0286 -0.2272  0.1049
51388W        W94404   3.955  12.164  29.300  0.3524 -0.0401  0.3252
51389W        W94405  25.457   1.361   0.726 -0.0919 -0.1559  0.0354
51390W        W94406   1.306  32.981   1.066 -0.1404 -0.1669  0.0629
51391W        W94407  27.005   6.016   7.914 -0.0683  0.1624 -0.0485
51392W        W94408  27.629  29.536   5.428 -0.1006  0.3317  0.0771
51393W        W94409  33.898   0.235   1.138  0.0057 -0.2025 -0.5615
51394W        W94410  21.634   8.385   9.050 -0.0216 -0.0428 -0.0582
51395W        W94411  27.962  28.473   8.792  0.0358 -0.3598  0.1031
51396W        W94412  15.005   6.636  27.245 -0.0022  0.1328  0.0488
51397W        W94413   7.644   1.084   9.494  0.1248  0.0806  0.1101
51398W        W94414  10.115   5.076  28.657 -0.0850 -0.0167 -0.0432
51399W        W94415  21.496   0.887  10.568 -0.0093 -0.0429  0.0354
51400W        W94416  28.524   6.095  26.372 -0.1189  0.1496 -0.0255
51401W        W94417  34.403  34.431   2.703 -0.1919 -0.0823  0.1563
51402W        W94418  17.642   2.945  27.899 -0.0704  0.2636  0.2148
51403W        W94419  30.313  31.562   6.822  0.0179  0.1043 -0.0106
51404W        W94420  13.701  11.331   9.439 -0.0122 -0.1642  0.2725
51405W        W94421  13.394  19.920  19.296  0.0913  0.2081 -0.0378
51406W        W94422  28.305  13.876  17.006  0.2240 -0.0270  0.0735
51407W        W94423  20.301  11.181   3.444  0.0794  0.1053 -0.0494
51408W        W94424   4.633   8.352   8.287 -0.2074 -0.0640 -0.0848
51409W        W94425   3.643   7.793  14.964 -0.1577  0.0224  0.2867
51410W        W94426   2.936  25.829   3.995 -0.0652 -0.1148 -0.1095
51411W        W94427   0.628  23.748  10.186 -0.3384  0.0209  0.1925
51412W        W94428  34.394  13.581   7.218  0.2549  0.0692 -0.0594
51413W        W94429  11.234   0.297   8.498  0.0146 -0.1251  0.2013
51414W        W94430   7.565  27.967   0.198  0.1436  0.3868  0.0821
51415W        W94431   3.907   3.014   3.234  0.3188 -0.2462  0.0061
51416W        W94432  16.024   4.968   5.472 -0.2251 -0.0579  0.0017
51417W        W94433   2.868  27.512   7.305  0.0549  0.1098  0.0385
51418W        W94434   4.542  24.829   2.045  0.0678 -0.2625  0.0358
51419W        W94435   6.735  30.588  20.795 -0.1555  0.0485 -0.1239
51420W        W94436   5.332  22.378   1.050  0.1307 -0.1491  0.2559
51421W        W94437   3.397  20.486  26.549  0.2686  0.2092 -0.1943
51422W        W94438  33.337   0.787  25.495 -0.0892  0.1049  0.0384
51423W        W94439  27.811  23.852  22.507 -0.2580  0.3392 -0.3841
51424W        W94440  25.626   6.400  10.785 -0.2677  0.0454 -0.0969
51425W        W94441   0.764  20.952   7.452 -0.0568 -0.3936  0.0768
51426W        W94442  27.819   2.824  11.587 -0.2352 -0.0727  0.1401
51427W        W94443   0.095   0.581  18.469  0.0176  0.0273 -0.0877
51428W        W94444  33.418  24.490   2.223 -0.1742 -0.3478 -0.0628
51429W        W94445   9.262  12.329   4.773  0.0114  0.1106 -0.1921
51430W        W94446  19.360  16.153  29.061 -0.1083  0.1485 -0.1587
51431W        W94447  16.746   4.517   1.912 -0.3330  0.1608  0.1257
51432W        W94448   3.188  12.915  28.423 -0.2365 -0.0772 -0.2134
51433W        W94449   1.427   0.884   1.323  0.1847 -0.0412 -0.1252
51434W        W94450  25.219  15.487  23.398  0.2180  0.3088 -0.0551
51435W        W94451  13.379  20.829   7.979  0.1763 -0.1767 -0.2397
51436W        W94452   1.009  31.532   7.026  0.1409  0.0265  0.2052
51437W        W94453  31.592  15.185   8.399 -0.0550 -0.0134  0.0972
51438W        W94454  20.425  22.291   1.740 -0.0132 -0.2153 -0.3463
51439W        W94455   2.545  32.873   9.781 -0.0161 -0.1723 -0.2360
51440W        W94456   1.434  15.702  25.474 -0.3039  0.2431  0.1336
51441W        W94457  24.082  25.344   1.244  0.1433  0.1601 -0.0789
51442W        W94458  24.930  10.852   5.960 -0.0012  0.3595 -0.0888
51443W        W94459  15.283  19.000  27.920  0.3310 -0.1412 -0.1187
51444W        W94460  23.861  29.160  11.443 -0.0288 -0.0589 -0.1163
51445W        W94461  15.715   3.943   8.400  0.3042  0.0129 -0.1279
51446W        W94462  31.948  15.607  20.385 -0.0654  0.1001  0.0886
51447W        W94463   8.004  30.678   9.809  0.0236  0.2029 -0.0444
51448W        W94464   0.960  34.696   0.949  0.0811  0.0878  0.0672
51449W        W94465  12.727  23.380   7.434 -0.0677 -0.1888 -0.1930
51450W        W94466   6.744  27.758  18.309 -0.1796  0.2382 -0.0466
51451W        W94467  16.963  19.723   7.394 -0.1670  0.0586 -0.0582
51452W        W94468   4.446  33.800   2.201 -0.0659  0.4368 -0.0802
51453W        W94469   1.066  31.438  26.864  0.2616  0.1545 -0.0215
51454W        W94470  18.701   4.050  27.969 -0.1837  0.0651  0.1265
51455W        W94471  24.047   4.458   6.781 -0.2112  0.0818 -0.2662
51456W        W94472  34.044   8.307   9.783  0.2759  0.3379 -0.0445
51457W        W94473  26.711  31.619   4.935  0.1261 -0.2453  0.1029
51458W        W94474  10.332  32.297   2.660 -0.0266 -0.0916  0.1880
51459W        W94475   4.203   7.967   9.347  0.0645  0.1645  0.2556
51460W        W94476   2.954   9.251   3.535 -0.1538  0.1004 -0.1381
51461W        W94477  32.010  27.248  10.859 -0.2500  0.1828 -0.1473
51462W        W94478   8.358   4.314  25.718  0.0294 -0.1173 -0.0267
51463W        W94479   2.419   1.257  28.566  0.0389 -0.0292 -0.0987
51464W        W94480   1.630  32.680  28.617 -0.2568 -0.0122 -0.0391
51465W        W94481  20.922  28.216  25.311  0.1977  0.1857 -0.1796
51466W        W94482  30.513  12.135   7.793  0.2462 -0.0988 -0.1864
51467W        W94483   2.438   2.714  26.821  0.2637 -0.0181  0.1838
51468W        W94484  26.818  12.404   2.090  0.0379  0.0790 -0.2470
51469W        W94485   0.218   5.412   5.581 -0.0077 -0.3197 -0.0797
51470W        W94486   5.765  12.106  24.802 -0.2185  0.0175 -0.3257
51471W        W94487   0.815   7.749  10.263 -0.0478  0.2904 -0.2341
51472W        W94488  31.463  27.606   8.122 -0.0293 -0.1747 -0.2614
51473W        W94489  21.403  24.754   9.074  0.1520  0.2498  0.2724
51474W        W94490  17.570   2.030   1.362 -0.0826  0.1566 -0.2429
51475W        W94491   7.656  19.731  15.022  0.1213  0.1658 -0.0720
51476W        W94492  32.895   5.022   8.631 -0.1590 -0.0074  0.0010
51477W        W94493   8.081  26.115   4.385 -0.0083  0.0670  0.2384
51478W        W94494  23.601  26.051   0.282 -0.1101  0.0606 -0.0600
51479W        W94495  22.160   1.174   8.042  0.1521  0.0082  0.0926
51480W        W94496   3.674  28.078   2.713  0.1020  0.3141 -0.0857
51481W        W94497  19.600  28.912   9.751  0.0140 -0.1114  0.1453
51482W        W94498   4.485   0.468   8.185  0.1408  0.1472  0.0720
51483W        W94499   6.726   1.465   8.560 -0.0881 -0.1100  0.0308
51484W        W94500  25.567  34.398   5.764 -0.0726 -0.1171 -0.0750
51485W        W94501  21.475  12.537  25.473  0.0863  0.0506 -0.1089
51486W        W94502   1.179  32.460   3.479 -0.0940 -0.0546  0.1800
51487W        W94503   0.787  34.258  26.811 -0.2188  0.1292 -0.1245
51488W        W94504  15.184  16.981   7.405  0.0315  0.0980 -0.1042
51489W        W94505  25.777  27.668   7.559  0.2199  0.1299 -0.1786
51490W        W94506   4.040  29.421   1.767  0.4270  0.1556  0.1015
51491W        W94507  27.305  12.092   7.614 -0.2130 -0.0613  0.3125
51492W        W94508   1.095  33.074  29.077  0.1400 -0.1197 -0.3468
51493W        W94509   4.687  27.527   7.877  0.2370 -0.1181 -0.0502
51494W        W94510  12.600   8.685   6.428 -0.0571 -0.2322  0.0843
51495W        W94511  29.661  29.442  25.858 -0.1490  0.1409 -0.0803
51496W        W94512  11.841   1.897  22.774  0.3480 -0.0731  0.0998
51497W        W94513  24.341  17.010   5.884 -0.1364  0.1582 -0.0404
51498W        W94514  25.245   7.583   5.191  0.2829  0.2704 -0.0505
51499W        W94515  13.449  16.765  14.479 -0.0829  0.0852  0.1343
51500W        W94516  31.679  11.008  10.483  0.2580 -0.5659 -0.0295
51501W        W94517  31.644   7.242  18.637  0.0955 -0.0079 -0.1651
51502W        W94518  12.080  13.790   7.389 -0.1456 -0.0800  0.2955
51503W        W94519   4.649  10.326  26.757  0.0346 -0.0641  0.1957
51504W        W94520  22.584   7.659   5.468 -0.4045  0.0728 -0.1209
51505W        W94521  16.979   1.928  18.624 -0.2455 -0.0040 -0.1918
51506W        W94522  20.720  10.005   6.904  0.0615  0.1470 -0.3354
51507W        W94523   2.184   7.536   1.030 -0.1678  0.0757 -0.1937
51508W        W94524  24.667  10.683  24.710 -0.3014 -0.0809 -0.1688
51509W        W94525  30.041  29.349   8.863 -0.0415  0.1343  0.0187
51510W        W94526  13.104  25.739   9.483 -0.0665 -0.1416 -0.1415
51511W        W94527   0.838  12.235   0.688 -0.2857  0.0972  0.2139
51512W        W94528  25.573  29.857  28.361 -0.1209  0.1981 -0.3039
51513W        W94529  33.622   5.535  23.054 -0.3148  0.3136 -0.0673
51514W        W94530  32.082  11.180  16.932  0.0651 -0.7010  0.2328
51515W        W94531  31.614   2.144   1.811  0.1639 -0.0417 -0.1804
51516W        W94532   5.335  14.819  20.636 -0.1574  0.1388  0.1133
51517W        W94533  25.326  15.877  20.172  0.0740  0.0907  0.1351
51518W        W94534  13.623  17.588   5.483  0.1010 -0.2976  0.5128
51519W        W94535   7.526  31.882   8.983 -0.0238 -0.1855  0.0191
51520W        W94536   0.444  33.514  19.946 -0.1479  0.0494 -0.3560
51521W        W94537  19.002  27.486   1.538  0.0384  0.2570  0.0633
51522W        W94538  30.803   5.074  27.682 -0.0664 -0.0746  0.1720
51523W        W94539  33.387   8.942   5.785  0.0376  0.3163  0.1688
51524W        W94540  10.632  32.463   1.825  0.0926 -0.0143  0.0932
51525W        W94541  27.164  13.629   8.991 -0.0050  0.2635  0.1288
51526W        W94542  12.747  10.463  25.918 -0.0961  0.0679  0.1806
51527W        W94543  22.886  25.254  27.135 -0.1197 -0.3434  0.0520
51528W        W94544  31.963  26.693  16.405  0.2242 -0.0158 -0.2058
51529W        W94545  24.374   2.660  10.176 -0.2820  0.1101  0.1013
51530W        W94546  34.631   4.178   4.600 -0.1276 -0.1669 -0.0440
51531W        W94547   4.511  11.032   4.172 -0.0004  0.0947 -0.3055
51532W        W94548  23.525  18.272  28.598 -0.0962 -0.2546 -0.0226
51533W        W94549  29.597  33.136   6.511 -0.0436  0.1832 -0.1806
51534W        W94550  10.976  26.093  19.224 -0.1119  0.0657 -0.0794
51535W        W94551   1.338  21.673   6.464 -0.0255  0.0579  0.0260
51536W        W94552   0.810  10.443   7.305 -0.2261 -0.3614 -0.0307
51537W        W94553  22.400  29.173   0.893 -0.1039 -0.0780  0.0257
51538W        W94554  32.044  15.851  11.016  0.1146  0.1584  0.1723
51539W        W94555   5.533   7.914  10.129  0.0582 -0.2669 -0.0523
51540W        W94556  23.573  28.990  21.992 -0.0465  0.2201  0.0779
51541W        W94557  29.527   6.728   9.537 -0.2329  0.1366 -0.1529
51542W        W94558   6.793  16.267  28.848 -0.0206  0.1661 -0.1562
51543W        W94559   2.439   3.230   6.831 -0.3627 -0.2685 -0.0772
51544W        W94560   7.398   3.534  26.525 -0.2229 -0.0419  0.1915
51545W        W94561  20.588   5.296   4.165  0.3009 -0.1454  0.0864
51546W        W94562  27.001   6.444   3.456 -0.2041 -0.1579  0.2174
51547W        W94563  25.188  33.792   6.780 -0.0329 -0.0548 -0.2647
51548W        W94564  29.213  25.781   3.412  0.0364  0.4019 -0.0625
51549W        W94565  23.875  24.363  10.158  0.1643 -0.1979  0.3463
51550W        W94566   7.800  29.557   6.258  0.0607  0.2075  0.0784
51551W        W94567  30.664  14.099  26.742  0.0622 -0.2104  0.0250
51552W        W94568   1.317  10.602  25.766  0.2628  0.1161 -0.0791
51553W        W94569  33.325  28.490  10.622 -0.0226 -0.0389  0.0883
51554W        W94570  19.589   2.710   0.310 -0.1525  0.2383  0.1426
51555W        W94571  30.269  10.570   2.521  0.2949 -0.0106 -0.2334
51556W        W94572  22.794  28.377  26.821  0.2726  0.0531 -0.1573
51557W        W94573   5.944  20.192  27.748  0.1666 -0.3342  0.0747
51558W        W94574   1.916   6.834  17.584  0.1940 -0.1019 -0.1420
51559W        W94575  29.087   9.984   8.978  0.0386  0.0153  0.1278
51560W        W94576  32.858   2.928  23.689 -0.0181 -0.0014  0.1193
51561W        W94577   5.282  15.627   5.692 -0.1907 -0.1660  0.3153
51562W        W94578  31.494  11.828   9.549 -0.0915  0.1287 -0.0657
51563W        W94579   0.033  26.503   6.725  0.0490 -0.1410 -0.2144
51564W        W94580   9.280  32.086   9.403  0.1315  0.1018 -0.0094
51565W        W94581   0.466   7.487   8.194 -0.2403  0.1116 -0.0676
51566W        W94582   0.989  31.490   3.488  0.1119  0.0144  0.3547
51567W        W94583   0.660   4.736  25.560  0.0419  0.2034 -0.0869
51568W        W94584  32.113  27.570   1.758 -0.1491 -0.1998  0.0725
51569W        W94585  21.069  27.777  26.255 -0.0482  0.1876  0.0756
51570W        W94586  31.633  31.140  24.637  0.0500  0.2673 -0.1142
51571W        W94587  15.182   0.057   3.825 -0.1361  0.2817  0.2566
51572W        W94588   4.632   7.891  27.464  0.1387  0.0057  0.2974
51573W        W94589  17.850  12.697  21.978 -0.0402  0.3376  0.0178
51574W        W94590  32.384  28.251   4.654  0.0514 -0.1014  0.0366
51575W        W94591  33.883   2.800  22.246 -0.1287  0.0091 -0.2391
51576W        W94592   3.488  15.041   9.572 -0.2070 -0.0820  0.0865
51577W        W94593  28.573  11.757  20.049  0.1122  0.2179  0.0368
51578W        W94594   0.426  21.635   2.981 -0.3489 -0.5226  0.0269
51579W        W94595   4.893  28.019  23.943 -0.1007 -0.1075 -0.1940
51580W        W94596  11.081  31.875   8.879 -0.0387  0.0344 -0.0243
51581W        W94597  34.108  13.765   6.771  0.0323 -0.1564 -0.0149
51582W        W94598  30.596   8.559  15.209 -0.1365 -0.2040  0.1259
51583W        W94599   8.134  12.989   4.131  0.4332 -0.2432 -0.1145
51584W        W94600   4.005   4.846   8.078 -0.2432  0.2086  0.2394
51585W        W94601  19.537   9.366  17.904 -0.2877 -0.0525  0.0679
51586W        W94602  21.800  32.093  11.248 -0.3208 -0.0970  0.0673
51587W        W94603   3.403   5.356  26.580  0.0015 -0.0468 -0.1739
51588W        W94604  32.254   2.262  17.416 -0.0128  0.0561 -0.0343
51589W        W94605  22.155  14.645   3.088  0.0353 -0.1534  0.0845
51590W        W94606  24.299  13.991  22.374  0.0104  0.2686 -0.1713
51591W        W94607  34.290   2.424   5.773  0.0241 -0.1410 -0.1074
51592W        W94608  29.184   4.218  24.202  0.2641 -0.0491  0.0984
51593W        W94609   4.661  31.621   7.603  0.3402  0.0711  0.3124
51594W        W94610  16.874  26.586   4.165  0.0138  0.4804 -0.1209
51595W        W94611  27.163   8.560   8.839 -0.2066  0.1678 -0.2792
51596W        W94612  22.695  20.480  20.355  0.0431 -0.0491 -0.1117
51597W        W94613  19.677  25.111  21.902 -0.3152  0.0475 -0.2094
51598W        W94614  24.466  11.940  10.592 -0.0004  0.1688  0.1200
51599W        W94615  32.767  25.938   7.737  0.1828  0.0661  0.3088
51600W        W94616  32.707  21.098   4.789  0.0541 -0.1103 -0.2877
51601W        W94617   5.397  26.675  21.677  0.0722  0.0539  0.0181
51602W        W94618   4.228  27.691  23.573 -0.3237 -0.1144 -0.0540
51603W        W94619  29.546  33.005  25.778 -0.0713 -0.3136  0.2037
51604W        W94620   2.810  33.044   8.109 -0.0331  0.1521 -0.0122
51605W        W94621  24.812   2.803   7.912  0.0380  0.5747  0.1690
51606W        W94622  25.613   2.614  27.920 -0.0626 -0.1881 -0.1260
51607W        W94623   0.303   3.975   4.483 -0.0031 -0.1805 -0.0841
51608W        W94624  30.146   0.192   0.186 -0.0646 -0.2171 -0.1171
51609W        W94625  26.502  19.899   1.402 -0.0675  0.0559 -0.0061
51610W        W94626  30.581  23.844   2.454 -0.1672  0.0809 -0.1602
51611W        W94627  33.414  30.764   4.454  0.1151 -0.0760 -0.0922
51612W        W94628   2.603  11.809  24.726 -0.2656 -0.1272 -0.1662
51613W        W94629   5.833   3.655   2.478 -0.0669 -0.2622  0.2253
51614W        W94630  20.896  21.919   9.134  0.3165 -0.1247 -0.1527
51615W        W94631   3.705  18.655  19.996 -0.0947 -0.0511 -0.0970
51616W        W94632   2.236  28.602  22.089  0.1338 -0.0684  0.0590
51617W        W94633  31.885  29.654   4.457  0.2006 -0.1752 -0.1117
51618W        W94634  33.398   4.314   7.649 -0.0018 -0.1386 -0.1354
51619W        W94635  16.397  26.133   9.416  0.1620  0.0301 -0.2535
51620W        W94636   1.535  30.811   3.761  0.0773  0.0401  0.0423
51621W        W94637   2.869   4.822   0.991 -0.0800 -0.1544  0.2944
51622W        W94638  22.167  18.354  24.019  0.2046  0.2624  0.0787
51623W        W94639  34.535   1.164  24.390 -0.0088  0.1105  0.1694
51624W        W94640  31.169  30.757   5.221 -0.0190 -0.0259  0.0619
51625W        W94641  12.540   0.220   3.603 -0.1915 -0.0973  0.2207
51626W        W94642  27.721  33.474  28.698 -0.1948  0.4921 -0.1714
51627W        W94643  23.086  34.454  21.127  0.1414  0.3665 -0.0431
51628W        W94644   8.863   9.198  24.884  0.0393  0.0425 -0.1148
51629W        W94645  30.863   8.656  23.498  0.0304 -0.0544  0.1896
51630W        W94646  26.279  26.079  21.806 -0.0154  0.2097 -0.1088
51631W        W94647   2.032  12.092  27.764 -0.1974  0.0054  0.0339
51632W        W94648  23.077  33.589   4.870 -0.0854  0.1963  0.1523
51633W        W94649  34.146  31.375  29.180  0.0969  0.1045  0.0242
51634W        W94650   5.836  23.042  15.089 -0.2343 -0.1498  0.1584
51635W        W94651   6.369   2.162   9.227 -0.1474 -0.1563  0.1599
51636W        W94652  21.607  23.442  23.895 -0.1002  0.1523  0.1727
51637W        W94653   7.253  12.123   6.012 -0.0541 -0.2480  0.1323
51638W        W94654  33.728  12.715  25.242  0.0520  0.1209  0.2131
51639W        W94655  30.889  31.256   0.080  0.3448  0.0102  0.1573
51640W        W94656  32.223  16.441  14.621  0.1145 -0.2144  0.0208
51641W        W94657   1.919   3.948  10.532 -0.0865 -0.0229  0.3970
51642W        W94658   1.039  11.904  27.533 -0.0565 -0.0690  0.1096
51643W        W94659   0.113  23.320   0.386 -0.0345 -0.2522  0.0683
51644W        W94660  31.839  12.753  28.939 -0.0411  0.3624 -0.2431
51645W        W94661   3.222  33.567   2.092 -0.0016 -0.2011  0.3336
51646W        W94662  27.795  15.348   7.113 -0.1153 -0.1900 -0.0288
51647W        W94663   3.372  26.675   8.723 -0.1630 -0.3259 -0.1393
51648W        W94664  20.838   9.364   8.606  0.3081 -0.2306 -0.1060
51649W        W94665   7.314  19.764  27.420  0.0556  0.4755  0.0750
51650W        W94666  20.207  24.530   5.035  0.0225  0.3644  0.2441
51651W        W94667  26.641   9.840  23.723  0.1432 -0.3491  0.1251
51652W        W94668  11.074   3.549  18.223 -0.2067  0.0954  0.4894
51653W        W94669   4.612  30.690   7.014 -0.0090 -0.4895 -0.1704
51654W        W94670  25.319  10.411   4.595 -0.1413  0.3890  0.0582
51655W        W94671  10.226   0.175  28.253  0.1254  0.0793  0.1443
51656W        W94672   2.143  20.747   9.112 -0.0270 -0.1060 -0.1605
51657W        W94673  25.861  16.389  20.982  0.0576  0.0669 -0.0527
51658W        W94674  33.250   1.383   4.094 -0.1385 -0.0983 -0.2085
51659W        W94675  24.231   4.141   4.914 -0.0931 -0.1622  0.1583
51660W        W94676  27.353   5.012  10.658 -0.0925 -0.2188 -0.1943
51661W        W94677   4.943  34.315   3.595  0.0293  0.3566  0.2156
51662W        W94678  24.079  29.197  10.474  0.1246  0.0034 -0.1049
51663W        W94679  19.553  28.378   3.725  0.1864  0.1182  0.1420
51664W        W94680   4.156   2.856   6.562 -0.2601 -0.0612  0.0489
51665W        W94681  23.535  33.219  19.122 -0.0315 -0.0530 -0.1467
51666W        W94682  20.079   1.491   5.654  0.1982  0.0343 -0.2961
51667W        W94683  27.324  18.846  14.122  0.1356  0.0014  0.0465
51668W        W94684  27.210  21.790  18.777  0.1406  0.0327 -0.0986
51669W        W94685   0.217  10.465   2.635  0.0562  0.1793  0.0765
51670W        W94686  30.700  31.894  16.987 -0.2053  0.1565 -0.1787
51671W        W94687  22.016   8.122  22.049  0.0248 -0.1454  0.1163
51672W        W94688   7.319  32.536  15.997 -0.1728  0.0809 -0.0163
51673W        W94689  32.055   2.196  27.622  0.0660 -0.2153 -0.0914
51674W        W94690   6.087  31.722  13.613 -0.0987  0.0267 -0.0872
51675W        W94691  27.702  30.622  11.457 -0.1483  0.0172  0.0217
51676W        W94692   6.022   0.646   3.354 -0.1599  0.0798  0.1394
51677W        W94693  29.117  14.469   5.079  0.1113 -0.1072  0.3921
51678W        W94694  33.893   7.001  24.579  0.1412 -0.0052 -0.0411
51679W        W94695  18.513  12.750  23.314  0.0476 -0.2205 -0.0608
51680W        W94696  30.847  20.004   8.232 -0.1928 -0.1907  0.0328
51681W        W94697  27.366  31.169   0.635  0.2208 -0.0121  0.1852
51682W        W94698  34.615   1.212   8.365 -0.1031 -0.0280 -0.0097
51683W        W94699   2.934  13.209   8.354 -0.1849 -0.2040  0.2318
51684W        W94700  28.157   9.918   8.916 -0.2207  0.0914 -0.1783
51685W        W94701   3.640   0.166  28.674  0.2134 -0.1494  0.1782
51686W        W94702   0.783  28.965   0.168  0.0782  0.1593 -0.2312
51687W        W94703  33.681   0.165   0.032 -0.2481  0.1938  0.0122
51688W        W94704  16.320   0.878  26.333 -0.3557  0.1471  0.0802
51689W        W94705   9.611  13.658  18.253  0.0656  0.1819 -0.0229
51690W        W94706  12.372  25.405  23.101  0.0757  0.1933  0.2904
51691W        W94707  34.370  12.464  10.031  0.2150  0.2144  0.2647
51692W        W94708   3.909  31.080  25.614  0.0542 -0.0915  0.3423
51693W        W94709  28.596   5.024   7.213  0.4008 -0.1027  0.1292
51694W        W94710  23.021   7.239   5.589 -0.1505 -0.4132  0.2262
51695W        W94711  19.185  32.924  14.670  0.0558 -0.2536  0.0180
51696W        W94712   4.644  33.134  18.902  0.2006 -0.1317 -0.1135
51697W        W94713  17.058  13.266   0.526  0.0651  0.0788  0.1812
51698W        W94714  29.425   0.059  25.620  0.1979  0.0297 -0.2566
51699W        W94715  32.892   0.873   1.511  0.0099  0.1774 -0.0782
51700W        W94716   5.515  26.486  26.354 -0.1328  0.0674  0.1034
51701W        W94717  11.157  33.518   9.429 -0.0090 -0.1657 -0.0746
51702W        W94718  26.547   5.825   7.777  0.1563 -0.0307 -0.1155
51703W        W94719  19.384  31.446  26.147  0.1106  0.1593 -0.0924
51704W        W94720  26.407  15.783  10.044 -0.1398  0.0500 -0.0923
51705W        W94721  26.137   3.139  26.299 -0.0316 -0.2731 -0.0222
51706W        W94722  17.217  33.317   5.291 -0.3063  0.1213  0.1771
51707W        W94723  11.503  27.679   9.321 -0.3584  0.1548  0.0019
51708W        W94724   9.246  12.614   0.525  0.0896 -0.0055 -0.0027
51709W        W94725  32.915  34.474   6.316  0.2957 -0.3185 -0.0786
51710W        W94726  15.632  12.064   5.880 -0.1763  0.1210 -0.0735
51711W        W94727  29.864  13.374   5.136 -0.4396 -0.1519 -0.3558
51712W        W94728   7.533  28.592   3.277  0.1805 -0.3614 -0.0928
51713W        W94729  32.913   6.666   3.154  0.0999 -0.1317 -0.0907
51714W        W94730   0.831  27.127   6.154  0.1765  0.1807 -0.1440
51715W        W94731  18.298  13.675   6.426 -0.0748 -0.0077  0.3200
51716W        W94732  25.288  33.442   7.883 -0.0249  0.2665  0.1972
51717W        W94733   4.750  27.321   6.156 -0.0763  0.0689 -0.2667
51718W        W94734  27.228   1.148  27.758  0.2759 -0.0159 -0.0865
51719W        W94735  21.672  28.541   7.162  0.1718  0.0999  0.0981
51720W        W94736   6.017  28.017   4.410  0.0450  0.3439 -0.0568
51721W        W94737   0.140  15.312  11.671 -0.1041 -0.0793 -0.2836
51722W        W94738  27.461  23.597  26.866  0.2619  0.1004  0.0341
51723W        W94739   4.071  12.605   1.321 -0.0197  0.0753  0.2958
51724W        W94740   2.542  14.048   3.357 -0.0632 -0.0723 -0.1586
51725W        W94741  23.826   2.258  23.749  0.2706  0.0371 -0.0821
51726W        W94742   1.673   3.799   5.285  0.0583  0.1579  0.0960
51727W        W94743  16.937   1.403   3.870  0.1286  0.2588 -0.0934
51728W        W94744   7.015  33.777  26.668 -0.0703 -0.0528  0.4487
51729W        W94745  22.240  17.722  26.953 -0.0996 -0.3404  0.0602
51730W        W94746  32.146   7.213  10.018 -0.1781  0.0228  0.2849
51731W        W94747  11.202   7.814  26.447  0.1271 -0.1251 -0.0018
51732W        W94748   8.816   6.035  24.831  0.2642  0.1248 -0.1261
51733W        W94749  25.583  13.570  29.032  0.0944 -0.0561  0.2297
51734W        W94750   3.964   3.195  19.121  0.0554  0.2565  0.1967
51735W        W94751  29.610  13.292  23.026  0.1444  0.1483 -0.0625
51736W        W94752  21.019  12.993  27.654  0.0624 -0.0675 -0.3977
51737W        W94753   1.047  13.032   6.417  0.1665  0.1063 -0.0499
51738W        W94754   5.249  31.564   8.282 -0.2796 -0.3414  0.1112
51739W        W94755  32.702  30.328   8.719 -0.2661 -0.0390  0.2823
51740W        W94756  33.677  31.531   1.750 -0.1624 -0.1777  0.1859
51741W        W94757  28.399   5.832   2.294 -0.1452 -0.1016  0.0552
51742W        W94758   1.237  10.041   1.974  0.0803 -0.1194 -0.1808
51743W        W94759  15.939   8.417   1.151 -0.4081  0.0876  0.1482
51744W        W94760  22.055  26.802   7.191 -0.0747 -0.2356 -0.0003
51745W        W94761  26.728   9.845  25.963  0.0540  0.1895  0.3373
51746W        W94762  30.475  21.724   8.579 -0.0525  0.2555 -0.0288
51747W        W94763  34.728  28.562  10.932  0.3525  0.3496  0.2579
51748W        W94764   4.089   7.339   5.063  0.0427 -0.0484  0.0255
51749W        W94765  28.769  28.979   5.033  0.3777  0.2430 -0.4064
51750W        W94766  12.804  17.815  23.807 -0.3587 -0.2355  0.3105
51751W        W94767  11.492  22.424  16.926  0.1869  0.1596  0.2255
51752W        W94768  21.960  26.388   2.023 -0.1576  0.0693  0.1426
51753W        W94769  34.162   7.499   4.275 -0.0198 -0.2515 -0.2101
51754W        W94770  16.038   5.540   3.495  0.3061 -0.1822 -0.1711
51755W        W94771  13.508   9.355   5.914  0.0742 -0.1191 -0.0511
51756W        W94772   1.820  12.543   9.671  0.1864  0.2279  0.2736
51757W        W94773   7.034   5.111   8.883  0.1544  0.2987  0.2790
51758W        W94774  29.335   2.536   9.757 -0.1365 -0.1500  0.0575
51759W        W94775  28.572  33.323   7.525  0.1612  0.1454  0.1606
51760W        W94776  20.001  31.247   8.741 -0.0657  0.0069 -0.4210
51761W        W94777   2.721   1.972   8.967 -0.3000 -0.0075 -0.0324
51762W        W94778   3.799   3.939   6.724 -0.1706  0.3300 -0.0047
51763W        W94779  32.202  29.968   2.545  0.0868 -0.3465 -0.2339
51764W        W94780  31.455  33.386  10.695 -0.3009 -0.0076  0.1818
51765W        W94781  31.737  15.355   5.478  0.2268 -0.1768 -0.2135
51766W        W94782   7.168   3.983  16.104  0.1318  0.0155 -0.0900
51767W        W94783  14.409  33.455   4.478 -0.4862 -0.0861 -0.0038
51768W        W94784  33.336  11.127   9.772  0.2460  0.1809  0.0812
51769W        W94785  25.999  21.150  11.472  0.1108  0.5518  0.0945
51770W        W94786  34.713  30.381   6.149  0.0957  0.1194 -0.2397
51771W        W94787   1.231  10.542   2.021 -0.4119  0.1780  0.0506
51772W        W94788  33.274  20.127  18.946  0.1384  0.3220 -0.0832
51773W        W94789   8.002  31.027   3.429 -0.0451  0.0331  0.2872
51774W        W94790  25.795  18.133   9.111 -0.1299  0.0443 -0.2092
51775W        W94791  24.841  33.229  24.567  0.1992 -0.1644 -0.0535
51776W        W94792  12.457   1.891  21.119  0.1674  0.2555 -0.1547
51777W        W94793  24.687  33.081   6.641  0.1658 -0.1610 -0.2628
51778W        W94794   5.312   3.643   0.777  0.3623  0.3927 -0.2259
51779W        W94795   1.752  23.913   3.009  0.0959 -0.1338 -0.0181
51780W        W94796   5.725  14.618  23.767 -0.1054 -0.0028 -0.1636
51781W        W94797  22.430   3.616  27.567  0.1617  0.0318 -0.0178
51782W        W94798  23.565  13.721   3.126  0.0082  0.0644  0.1729
51783W        W94799   7.135   3.357  29.093  0.2813  0.2185  0.0213
51784W        W94800  29.698  34.417  27.954  0.2623  0.0461  0.1415
51785W        W94801  27.487  23.799   8.610  0.2927 -0.2188  0.0539
51786W        W94802  31.406   7.819   0.872 -0.1295 -0.2410  0.3100
51787W        W94803  15.947  11.406   0.654 -0.0230  0.1469  0.0181
51788W        W94804  27.993  21.562   6.966  0.0906  0.1992  0.0377
51789W        W94805  20.160   6.062   9.091 -0.0069 -0.0357 -0.0316
51790W        W94806  34.064  32.937  27.113  0.2562  0.0606  0.3853
51791W        W94807   6.959  17.478   4.182  0.2113 -0.0093  0.3628
51792W        W94808  13.030   1.326  28.267  0.0167 -0.0808  0.1503
51793W        W94809   4.820   5.643  27.617  0.2540 -0.0089 -0.0234
51794W        W94810   5.311   1.141  25.949 -0.0873 -0.0976 -0.1518
51795W        W94811  34.275  11.521   3.146  0.0476  0.0484 -0.0454
51796W        W94812  24.567   5.618   5.716 -0.0348  0.0547 -0.1388
51797W        W94813  25.153  16.887   3.974  0.0823  0.2076  0.0601
51798W        W94814  28.077   0.913  25.215  0.1351 -0.1092 -0.0147
51799W        W94815   2.518  11.760   8.551  0.0237  0.0820  0.0978
51800W        W94816  31.917   6.043   8.292 -0.2061  0.1448 -0.1240
51801W        W94817  24.300   3.594   5.694  0.0326  0.1579  0.1205
51802W        W94818  34.240   6.739  16.103 -0.0079  0.0074 -0.1483
51803W        W94819  29.457  13.374  26.403 -0.1300  0.0886  0.3509
51804W        W94820  33.815  30.529   3.106  0.1443  0.2633  0.1224
51805W        W94821  23.795   6.546  28.992 -0.2021 -0.1221  0.0069
51806W        W94822   8.044  11.152   8.479 -0.2896 -0.0094  0.1160
51807W        W94823  22.416   6.245  24.650  0.0310 -0.0800 -0.1114
51808W        W94824  27.988  34.447  24.274 -0.1077  0.2240 -0.0707
51809W        W94825  15.982  23.655   7.970  0.0942  0.1196 -0.2545
51810W        W94826  28.899   4.868   9.920  0.3600  0.1104 -0.0728
51811W        W94827  32.717   2.929   1.883 -0.1759 -0.0206  0.0972
51812W        W94828   5.865   3.059   9.046 -0.4014  0.2465  0.1297
51813W        W94829  33.355  33.787   5.723  0.1490 -0.3619  0.0538
51814W        W94830  25.803  12.434   4.502 -0.0440  0.0599  0.1007
51815W        W94831   4.747  33.171   0.149  0.4182  0.1534 -0.1320
51816W        W94832  24.351   8.803  24.412  0.2117 -0.2104 -0.1857
51817W        W94833   1.277  21.765   1.922 -0.2484 -0.1973  0.0531
51818W        W94834  15.569   8.807   0.649 -0.2019 -0.0651 -0.1092
51819W        W94835   7.581   7.312  21.620  0.1638  0.1875  0.3968
51820W        W94836  13.807  34.403  27.013 -0.0261  0.0065  0.0997
51821W        W94837  18.436  10.628  28.790  0.0157  0.3031 -0.0080
51822W        W94838  11.605  25.949   5.486  0.2599 -0.0247  0.1188
51823W        W94839  29.787  16.201   7.648  0.0928 -0.1529 -0.2296
51824W        W94840  18.555  14.035   6.621  0.1236  0.1329 -0.0325
51825W        W94841   6.764  16.289   6.381 -0.1623  0.0833  0.2802
51826W        W94842  32.519  32.915   9.527 -0.0415  0.1260  0.1497
51827W        W94843   9.209  15.616   0.894 -0.0708  0.0654 -0.0188
51828W        W94844  34.550   4.124   1.334  0.1442 -0.0836  0.2113
51829W        W94845  31.105  15.712  29.142  0.1847 -0.1845  0.3654
51830W        W94846   8.946   4.794   8.608  0.2843  0.0832  0.1718
51831W        W94847  30.580   2.638   1.226 -0.1159  0.2595  0.3007
51832W        W94848  24.310   9.559   1.976 -0.0790  0.1515 -0.1229
51833W        W94849  31.997  30.827   2.747  0.0630 -0.0045  0.1793
51834W        W94850   9.168   1.450  14.415 -0.0621  0.0303 -0.2263
51835W        W94851   8.883  24.777  26.992 -0.1522 -0.0843 -0.1873
51836W        W94852   5.848   1.612  22.990  0.2055 -0.0151  0.0201
51837W        W94853  30.558  13.314   6.691  0.0037  0.2473 -0.1983
51838W        W94854  20.263  29.813   6.410  0.1464  0.1843  0.0938
51839W        W94855   0.028   9.570  27.297  0.3284 -0.3328  0.0416
51840W        W94856   5.374   3.436   1.846  0.1971  0.0476 -0.1028
51841W        W94857   6.950  34.174   5.566 -0.0271  0.4520 -0.0150
51842W        W94858  34.580   0.973  10.504  0.1479 -0.1345  0.0241
51843W        W94859  12.962   8.669  24.621  0.0907 -0.2101  0.0091
51844W        W94860   1.394  20.492   5.880 -0.3771  0.1998  0.1964
51845W        W94861   9.354   2.768   6.406 -0.3372 -0.0467 -0.2102
51846W        W94862   3.660   9.421  23.612  0.0579  0.0234 -0.1966
51847W        W94863  30.940  13.023  28.280  0.0575  0.1654  0.0596
51848W        W94864  29.866  15.801  26.220  0.2692 -0.0867 -0.2309
51849W        W94865  32.427  10.916   1.461 -0.3442 -0.2540  0.1002
51850W        W94866  19.511  10.625  24.588  0.1559 -0.1596 -0.2057
51851W        W94867  27.618  21.070   9.618  0.0284 -0.1145  0.1822
51852W        W94868  26.714   6.769   4.481  0.2630 -0.0377  0.0948
51853W        W94869  34.654   9.375  16.273 -0.0265  0.0272 -0.1680
51854W        W94870  34.081   8.135  22.416  0.1148 -0.0421 -0.0842
51855W        W94871   0.813   4.915  26.150 -0.3608  0.0037 -0.3156
51856W        W94872  23.546  17.077  17.434  0.0209 -0.2440 -0.3364
51857W        W94873   8.484  18.139   5.625  0.0514 -0.1911  0.0960
51858W        W94874  30.782   7.334   9.422  0.3284 -0.1482 -0.0302
51859W        W94875   4.226   6.843   3.770 -0.0744  0.0581 -0.1075
51860W        W94876   1.892   9.575   8.192  0.0532  0.0584 -0.1779
51861W        W94877  31.651  12.131  15.349 -0.1457 -0.0373 -0.0647
51862W        W94878  33.878   5.426   2.418 -0.1855  0.0251 -0.0895
51863W        W94879   1.165  16.602  23.848 -0.1856  0.0885 -0.0219
51864W        W94880   1.336  30.820  23.159  0.1305  0.2363 -0.2448
51865W        W94881  32.539  34.576   1.292 -0.3756 -0.2699  0.0351
51866W        W94882   5.461  13.741   2.352  0.0745 -0.0687 -0.1149
51867W        W94883  23.502  24.533  19.137  0.1666 -0.0013 -0.0193
51868W        W94884  31.839  10.586   7.762 -0.1465 -0.0283  0.1149
51869W        W94885  15.689   9.455  25.642  0.0077  0.1681 -0.1207
51870W        W94886  12.032   6.832   8.011  0.1812 -0.0916 -0.2949
51871W        W94887   2.667   4.965  28.855  0.0347  0.3422 -0.2948
51872W        W94888  29.309  27.722   9.006 -0.0401  0.0740  0.0228
51873W        W94889  30.284  13.213  23.477  0.0038 -0.0331  0.1808
51874W        W94890  10.726   3.118   2.049  0.0812 -0.2323 -0.2351
51875W        W94891  29.588  22.495   8.331 -0.3778  0.1094  0.0340
51876W        W94892   5.891   2.573  25.892  0.1445  0.1614 -0.0957
51877W        W94893  27.413   5.955  24.384 -0.1058  0.0502 -0.0309
51878W        W94894  22.666  31.349  22.505 -0.3198  0.0335 -0.2424
51879W        W94895  33.054  18.998   5.974 -0.0209  0.1463  0.0481
51880W        W94896  21.342   4.787   9.275 -0.0498 -0.3437  0.0503
51881W        W94897   4.292  17.105   9.224 -0.0334 -0.2477  0.1139
51882W        W94898  25.124   9.808  10.516 -0.2038 -0.1002  0.1834
51883W        W94899   3.295   5.995  29.177  0.0105  0.0272  0.0835
51884W        W94900   8.387  19.997   7.275  0.1125 -0.1430  0.0836
51885W        W94901  34.605  10.676  10.024  0.0087 -0.0380  0.1120
51886W        W94902  22.058  26.753  21.219 -0.2139  0.1633 -0.0252
51887W        W94903   8.598   7.630  26.443  0.1534  0.2739  0.1825
51888W        W94904  22.154   2.811   8.727 -0.0121  0.0617 -0.2157
51889W        W94905   4.503   4.078  20.866 -0.1851  0.1118 -0.1064
51890W        W94906  22.308   4.541   2.440  0.1598  0.1925 -0.3315
51891W        W94907   3.524   5.518   9.148 -0.0009 -0.0308  0.0633
51892W        W94908  34.675   9.552   2.582  0.0125  0.1262  0.0027
51893W        W94909   6.161  13.778  21.107  0.0078  0.1022 -0.0433
51894W        W94910   1.971   8.018   6.204  0.4302 -0.2826 -0.0995
51895W        W94911   6.473  19.291  13.698 -0.4074 -0.1971  0.0555
51896W        W94912  11.182   4.473   3.591  0.2571  0.0744  0.1221
51897W        W94913  33.511   3.512  21.571 -0.1980 -0.1020  0.0639
51898W        W94914  27.045   8.485   2.212  0.0659 -0.0208 -0.0440
51899W        W94915  22.712  31.601   7.634  0.2242  0.2783  0.0137
51900W        W94916  34.396  27.238   2.660  0.0229  0.0601  0.2217
51901W        W94917  27.129   7.687   6.336  0.0519  0.4813 -0.1986
51902W        W94918   0.578  11.973   5.807  0.3821 -0.0783  0.4133
51903W        W94919   0.134   5.991   0.369  0.4643 -0.3070 -0.2306
51904W        W94920  23.104  27.607   4.142  0.0047 -0.1368  0.1634
51905W        W94921   4.805  20.081   3.344  0.0744  0.0728 -0.0346
51906W        W94922   3.521  14.817   7.769 -0.1712  0.1305  0.1487
51907W        W94923  12.783  21.159  26.380  0.2926 -0.3785 -0.1203
51908W        W94924   6.043  33.952  23.078 -0.1766  0.0610 -0.1311
51909W        W94925  28.897  28.481   8.112 -0.1472 -0.2366 -0.2187
51910W        W94926  34.469   2.542  25.099 -0.3531 -0.1700 -0.0754
51911W        W94927  25.000  21.452   3.213 -0.1253  0.0214  0.0310
51912W        W94928  31.272   7.986   3.168 -0.1936 -0.1298 -0.1858
51913W        W94929  32.555  34.573   5.975 -0.1708  0.1239  0.3061
51914W        W94930  32.054   5.511   8.188 -0.1783  0.0203 -0.3670
51915W        W94931  20.332  18.330   2.380  0.0240 -0.2451  0.2188
51916W        W94932   4.366  26.257  24.242 -0.2581  0.0858 -0.1236
51917W        W94933   0.418   8.124  15.706  0.0271  0.0362  0.1610
51918W        W94934   6.372  21.569   1.135  0.1402 -0.0312  0.1098
51919W        W94935   3.319   6.547  26.715  0.1425  0.1130 -0.1488
51920W        W94936  26.859   3.663   8.399  0.3058 -0.0105 -0.2592
51921W        W94937  23.352  11.572   3.781 -0.0386 -0.0145 -0.1298
51922W        W94938  25.904   8.705   7.522 -0.3479 -0.1778 -0.1414
51923W        W94939  33.383   8.002  15.189  0.0522  0.0341 -0.1225
51924W        W94940   1.086  26.690  24.765 -0.0920  0.0363  0.1025
51925W        W94941  25.910  15.886   7.853 -0.1950  0.1917  0.0291
51926W        W94942   4.581  27.307   8.313  0.5488  0.1214 -0.0777
51927W        W94943  11.263  29.343   3.979 -0.1494 -0.0087  0.3155
51928W        W94944   4.428  23.599   1.979 -0.0572 -0.0216 -0.1749
51929W        W94945  25.844  31.440  10.881  0.1658  0.0632  0.1981
51930W        W94946  33.403  19.471  11.069  0.1639  0.6194 -0.1813
51931W        W94947   0.805   5.482   6.888  0.0197 -0.1398  0.1998
51932W        W94948   1.114  23.270   9.567 -0.0678 -0.1886 -0.1350
51933W        W94949  31.749  34.249   8.725  0.1045  0.1781  0.1145
51934W        W94950  15.493  11.020   7.785  0.2205  0.0102  0.1455
51935W        W94951  29.421   1.006   1.440 -0.2048 -0.2982 -0.0995
51936W        W94952  34.745  13.932   2.339  0.2193  0.4243 -0.2004
51937W        W94953   8.639  32.769   0.813  0.0481  0.2646  0.0083
51938W        W94954  15.792   4.793   8.940 -0.1595  0.3484 -0.2865
51939W        W94955  21.924  12.742  28.208  0.2740  0.2298  0.2061
51940W        W94956  12.299  10.293   0.485 -0.2295  0.0812  0.1056
51941W        W94957  25.566  11.539   4.093  0.0216  0.1183  0.0221
51942W        W94958  29.985   7.654   5.256 -0.5365  0.0723  0.1357
51943W        W94959  18.526   0.975   7.775 -0.0939  0.0707 -0.1527
51944W        W94960   5.194  15.690   9.339  0.3401 -0.1575 -0.0107
51945W        W94961  17.230   6.364  28.512 -0.0377 -0.4263  0.0365
51946W        W94962   4.139  16.502  26.979 -0.0785  0.4467 -0.1739
51947W        W94963  34.566   7.139  26.619 -0.0889 -0.0970 -0.1333
51948W        W94964  34.655  13.178  26.620 -0.2377 -0.1444  0.0230
51949W        W94965  31.752  17.785   4.453 -0.0326 -0.2006 -0.2334
51950W        W94966  27.234  12.643   0.706 -0.1977  0.2408  0.3481
51951W        W94967  22.578  15.743  25.492  0.2071 -0.0512  0.1150
51952W        W94968  30.208   4.871   2.252 -0.1115  0.1509 -0.1331
51953W        W94969  27.373   7.086  28.768  0.3693 -0.1734  0.3234
51954W        W94970  29.090   2.220  11.136  0.1146 -0.0004  0.1670
51955W        W94971   4.757   9.419   3.738  0.2711  0.0238 -0.3143
51956W        W94972  30.352  23.515   4.779 -0.0311 -0.3248  0.0088
51957W        W94973  26.407   7.769  20.581 -0.0404  0.0541  0.2205
51958W        W94974   4.923  13.289  17.191 -0.0871  0.0742 -0.1904
51959W        W94975  27.973  15.599   1.763 -0.2559  0.0509 -0.1367
51960W        W94976  34.167   1.986   8.484  0.0525  0.0333  0.0361
51961W        W94977   5.589   4.767   2.227 -0.0168  0.1128  0.1664
51962W        W94978   3.687  29.374  10.124  0.0435  0.0711  0.3754
51963W        W94979  31.179  34.130   9.752  0.1715 -0.1071 -0.1362
51964W        W94980   2.149  15.877   1.060 -0.1547  0.2925 -0.1122
51965W        W94981  32.049  13.222   2.408  0.1007  0.0828 -0.1081
51966W        W94982   5.349  32.012   7.449 -0.1396 -0.0775 -0.0161
51967W        W94983  32.703  10.600   5.543  0.1788  0.0386 -0.0709
51968W        W94984  28.008   6.280  21.941 -0.0178  0.0498  0.0297
51969W        W94985  15.007  11.132  23.613  0.1753 -0.2751 -0.0068
51970W        W94986   8.880   8.432   4.204 -0.1827 -0.2478  0.0317
51971W        W94987  31.633  28.299   7.075  0.0530 -0.2775 -0.1235
51972W        W94988  20.292  23.391   1.126  0.0472  0.4703 -0.0353
51973W        W94989   8.313   7.534  26.076 -0.1101  0.3635  0.0149
51974W        W94990  31.652   6.189   6.135 -0.0334 -0.1635  0.0199
51975W        W94991   3.605  13.175  19.010 -0.1083  0.1442 -0.0880
51976W        W94992  32.467  31.169  23.962  0.0868  0.1025  0.1530
51977W        W94993  17.674  16.830  20.635 -0.1397  0.0407  0.3191
51978W        W94994  20.757  17.357   6.021  0.3205 -0.2179  0.1392
51979W        W94995  31.891   8.089  29.236 -0.0751  0.1569 -0.1040
51980W        W94996   0.763   5.618   7.762  0.3728  0.1533  0.1628
51981W        W94997   4.989   8.747  24.276 -0.1899  0.0841  0.1401
51982W        W94998   5.124  17.072   2.964  0.0357  0.3647  0.4304
51983W        W94999  16.595  13.575  19.986  0.2294  0.2384 -0.1060
51984W        W95000  33.952  17.285   8.463 -0.0951  0.0444 -0.1165
51985W        W95001  10.682  14.070   4.508 -0.1550  0.1531  0.1994
51986W        W95002   1.155  32.275   6.549 -0.0956  0.0601 -0.1589
51987W        W95003  31.057   0.546  13.044 -0.0492 -0.1389  0.3234
51988W        W95004   0.342   2.899   5.797 -0.0792 -0.1123 -0.1194
51989W        W95005  13.520  23.395   4.840  0.0662  0.0799 -0.0541
51990W        W95006  10.028   8.097   0.921 -0.0069 -0.0853 -0.1724
51991W        W95007  29.853  10.474   6.019 -0.2602 -0.1013  0.1361
51992W        W95008  33.791  11.798  23.672 -0.1786  0.0939 -0.0933
51993W        W95009   8.623   5.895  19.089  0.0813 -0.2472 -0.0324
51994W        W95010  12.539  33.495  26.529  0.0845 -0.1185  0.1339
51995W        W95011  34.367   3.320   7.431 -0.1487 -0.0934 -0.1360
51996W        W95012  18.350  10.659   5.349 -0.1331 -0.0957 -0.0160
51997W        W95013  11.706  13.721   8.175  0.0298 -0.1427  0.0907
51998W        W95014   1.884   0.742   3.565 -0.1119 -0.0362  0.0212
51999W        W95015  24.756   3.563  28.666 -0.3634  0.3078 -0.0985
52000W        W95016  13.179  27.558  28.043 -0.0638  0.2181 -0.0569
52001W        W95017  26.489  34.695   6.119 -0.1302 -0.0454  0.0364
52002W        W95018  32.734  10.382   7.309 -0.3778 -0.0169  0.0054
52003W        W95019  31.606   3.752   2.138  0.1079 -0.1897  0.0793
52004W        W95020   2.645  10.907   4.721  0.1646 -0.0620 -0.3238
52005W        W95021  29.513   2.761   5.197 -0.1327 -0.0370 -0.0702
52006W        W95022   7.218  20.193   1.994 -0.0960 -0.2046  0.0842
52007W        W95023  24.977  15.925   6.826  0.0043  0.0928 -0.0519
52008W        W95024  16.051  14.313   6.050  0.1026  0.0042  0.1084
52009W        W95025   2.640   9.937   5.244 -0.0261  0.2092 -0.2065
52010W        W95026  32.736  16.867  28.678  0.0495 -0.0559 -0.0591
52011W        W95027  21.773  13.674  23.766 -0.0433  0.1958  0.0785
52012W        W95028   3.983  12.251   4.236  0.1631  0.0940 -0.0680
52013W        W95029  24.142  13.103   0.462 -0.0456 -0.0994 -0.3462
52014W        W95030  30.779   2.583  21.292  0.1622  0.0752  0.0377
52015W        W95031  27.809   8.091   0.382  0.0141  0.0876  0.0001
52016W        W95032   9.852   7.415   8.482 -0.2631 -0.2992 -0.2464
52017W        W95033  30.755  24.965  26.524  0.2312 -0.0442  0.0031
52018W        W95034  34.382  11.675  22.761  0.0731 -0.2955 -0.1632
52019W        W95035   2.982  10.259   4.379  0.0283  0.3195 -0.0319
52020W        W95036  21.819  25.870   1.210  0.0791 -0.1407 -0.1371
52021W        W95037   4.207   8.957   1.681  0.0477 -0.0235 -0.3162
52022W        W95038  28.519  11.177   2.609  0.0239  0.2309  0.0821
52023W        W95039   6.020   5.810   5.645  0.0413  0.0219 -0.2229
52024W        W95040  34.391  20.856  27.071  0.1554 -0.0383  0.0723
52025W        W95041  30.845  27.988   7.922 -0.0132 -0.1903 -0.1289
52026W        W95042  34.648  32.116  20.509  0.0558 -0.1603 -0.2975
52027W        W95043   9.870  32.723  21.727 -0.0931  0.1449 -0.0344
52028W        W95044  19.356  12.526  12.576  0.0472 -0.1473  0.1283
52029W        W95045  29.960   5.340  10.946  0.0022 -0.3408 -0.2862
52030W        W95046   7.013  19.386  29.001  0.3562 -0.2426 -0.1771
52031W        W95047  30.916   0.152   5.268  0.4084  0.0707 -0.0134
52032W        W95048   3.256   6.966  25.016 -0.2601  0.3557 -0.1092
52033W        W95049   4.618  15.442   1.887 -0.0589 -0.0533  0.0950
52034W        W95050   6.576   8.072   3.992 -0.1679  0.1875 -0.1127
52035W        W95051   3.277  13.101  22.926 -0.0304 -0.2750  0.0433
52036W        W95052  29.488   8.863  26.240 -0.1213 -0.0586  0.3449
52037W        W95053  31.372  13.556   4.560 -0.2317 -0.3111 -0.0298
52038W        W95054  28.235  13.735   0.127 -0.0549  0.2634  0.0634
52039W        W95055  28.749  11.317  10.224 -0.3683 -0.1633 -0.0123
52040W        W95056   6.671  30.257   2.074  0.1377  0.3206 -0.1024
52041W        W95057  11.431  33.254   2.592  0.2169  0.1739  0.0537
52042W        W95058  15.852   6.756   2.522 -0.0056  0.0611 -0.0160
52043W        W95059   0.501  22.183   0.932  0.0990  0.0173 -0.1195
52044W        W95060  11.691  12.300  28.372  0.1522 -0.1384 -0.0938
52045W        W95061   1.789   3.242  26.965  0.0919  0.2896 -0.1926
52046W        W95062  13.535   7.796  15.923 -0.1324  0.0015 -0.2442
52047W        W95063   1.827  23.954   8.972  0.0265 -0.1652  0.1966
52048W        W95064  33.405  16.924   3.541 -0.1445  0.3454 -0.0123
52049W        W95065   8.312  16.391   3.543 -0.4096 -0.1733  0.1272
52050W        W95066   5.591   0.047   9.285  0.0728 -0.2050  0.2692
52051W        W95067  18.135   5.847  10.011  0.0351  0.1799 -0.0862
52052W        W95068  33.597   1.562  27.692 -0.0082 -0.0171  0.1309
52053W        W95069  15.497  17.574  21.538 -0.0528 -0.1059 -0.0537
52054W        W95070   2.722  23.920  26.319  0.0695  0.2102 -0.0607
52055W        W95071   6.708  13.737   3.689 -0.0960  0.2495  0.0094
52056W        W95072  22.439  15.386   0.807 -0.4308  0.1777 -0.1282
52057W        W95073   0.425  14.537   5.335 -0.0995  0.1186  0.1426
52058W        W95074  16.562  17.414  21.155 -0.0369  0.2374  0.0271
52059W        W95075  32.462  21.051  10.432  0.3550 -0.0015  0.0716
52060W        W95076  29.775   0.079   5.460  0.0663 -0.0476  0.1056
52061W        W95077  12.019  28.356   7.827  0.0947  0.0781 -0.2616
52062W        W95078  29.725  30.846   5.821  0.1446 -0.1212  0.1318
52063W        W95079  28.237  12.820   0.853 -0.1735  0.0647 -0.0741
52064W        W95080   6.890  10.726   4.167  0.1821 -0.4313  0.0529
52065W        W95081   0.491  10.550  25.064 -0.0115 -0.2994 -0.0223
52066W        W95082  20.555  22.130   2.704  0.2238  0.2198  0.1405
52067W        W95083   2.455  31.125  28.223  0.2699  0.1386 -0.0018
52068W        W95084  27.294   5.732   5.092 -0.0966  0.1910  0.1067
52069W        W95085   1.695  15.977  27.650  0.2559  0.0876  0.1609
52070W        W95086  29.888  14.025  27.262  0.0085  0.0617  0.0229
52071W        W95087   6.913  34.502   5.922 -0.1914  0.2467 -0.2584
52072W        W95088  28.546   4.706   1.446 -0.0364  0.0776 -0.1973
52073W        W95089  27.562  27.808   2.888 -0.4248 -0.0426 -0.0461
52074W        W95090  21.558   4.457   7.901 -0.0914 -0.1139 -0.2972
52075W        W95091  33.771  14.186   8.393  0.1045  0.1033 -0.1516
52076W        W95092   8.550  10.775  17.361 -0.2780  0.2923 -0.0968
52077W        W95093  31.710  32.833   4.187 -0.2357 -0.0451  0.3861
52078W        W95094  19.131  10.482  21.372 -0.2222 -0.0022  0.0326
52079W        W95095   3.147  20.497  16.535 -0.2144  0.0144  0.0867
52080W        W95096  27.410   2.878   4.801  0.1411 -0.0073  0.0907
52081W        W95097  11.971  17.178   5.731  0.0866  0.0941  0.2802
52082W        W95098  11.938   4.878   6.052  0.2992 -0.1333 -0.0420
52083W        W95099  12.439  20.354  28.743 -0.1584  0.1267 -0.1016
52084W        W95100  33.935  12.846  27.063 -0.0120  0.1181  0.1108
52085W        W95101  31.694  11.418  24.538  0.2348 -0.2411 -0.0973
52086W        W95102   4.614   4.078   1.955 -0.4772 -0.0745  0.2124
52087W        W95103  27.014  10.014   8.006  0.3074  0.2463 -0.2008
52088W        W95104   3.994  18.512   8.418  0.0283  0.1546 -0.1277
52089W        W95105  23.591  13.945   2.237 -0.1730  0.1301  0.2439
52090W        W95106  17.119   8.275  26.180  0.1706 -0.1410  0.2776
52091W        W95107  20.057  34.704   3.791 -0.0489  0.3180  0.0259
52092W        W95108   8.110  31.724  28.385 -0.2384 -0.2779 -0.1469
52093W        W95109   9.777  10.105  20.639  0.0915  0.1945 -0.1126
52094W        W95110  21.597   2.416   6.996  0.4980  0.0481 -0.1218
52095W        W95111   6.599  14.383   7.552  0.1396 -0.0063  0.0025
52096W        W95112  30.563  12.294   5.383  0.2294 -0.0739  0.1545
52097W        W95113  30.464  32.369  27.260  0.3427 -0.1307  0.0412
52098W        W95114   7.080  23.509   9.655  0.0455 -0.1818  0.2342
52099W        W95115  28.605  22.257  16.407  0.2317  0.1674  0.1395
52100W        W95116  22.149  21.196  19.616 -0.5147 -0.1534 -0.0006
52101W        W95117   6.069   5.407   8.923 -0.1172 -0.1712  0.4006
52102W        W95118  27.833   3.807   4.799 -0.1314 -0.0103  0.2554
52103W        W95119   1.625  17.029   8.789  0.2313 -0.0381  0.0083
52104W        W95120  15.516  11.346  25.924  0.0278  0.2845 -0.3221
52105W        W95121  29.875  15.090  24.803  0.0960 -0.2933 -0.2450
52106W        W95122  14.366   8.988   1.556  0.0021 -0.1193 -0.5995
52107W        W95123   5.627  24.343  10.127 -0.2620  0.1607  0.0127
52108W        W95124  21.956   8.634   8.718  0.1916  0.0038 -0.0246
52109W        W95125   6.313  30.376   5.336 -0.3196 -0.1066  0.2116
52110W        W95126  30.939   7.227   6.867  0.0634  0.1295 -0.1454
52111W        W95127  25.009  31.143  21.009 -0.1210 -0.3329 -0.1285
52112W        W95128  34.347   6.775   4.518 -0.1012  0.0667 -0.3202
52113W        W95129  15.590   2.306  29.295 -0.1242 -0.1201  0.0755
52114W        W95130  10.440  24.652  27.868  0.2420  0.0369 -0.1366
52115W        W95131   6.666  13.953  22.326  0.3076 -0.0027  0.2561
52116W        W95132  33.358  16.886  17.600 -0.2258 -0.0244  0.0588
52117W        W95133   6.283  13.969  19.686 -0.0710 -0.0038 -0.0763
52118W        W95134   2.884  30.712  18.619 -0.0829 -0.1118  0.1667
52119W        W95135   2.606   9.753  23.516 -0.0217 -0.0627 -0.1078
52120W        W95136  14.036  27.693  22.240  0.1279 -0.5007 -0.2381
52121W        W95137  11.936   1.173  14.923 -0.1044  0.0379 -0.0323
52122W        W95138   8.243   8.599  27.272  0.0461 -0.0812  0.1452
52123W        W95139  24.045  28.609  27.357  0.2086  0.1801  0.1288
52124W        W95140  10.292   7.177   3.537  0.0212 -0.2015  0.1047
52125W        W95141   7.418   6.434   2.533  0.0161  0.5076 -0.0586
52126W        W95142  23.101  14.941   3.378 -0.2720  0.1072 -0.1229
52127W        W95143  16.438  13.224  17.306  0.0628 -0.2836  0.1057
52128W        W95144   6.334   7.737  26.080 -0.0084  0.0760 -0.2095
52129W        W95145  30.909  13.271  28.901 -0.1202  0.1922 -0.2113
52130W        W95146  32.141  18.908  18.395  0.1287  0.0059  0.0491
52131W        W95147   5.305  20.345  17.228  0.0701  0.0492  0.0976
52132W        W95148   4.992   2.552   6.035 -0.1820  0.0099 -0.1058
52133W        W95149  10.356   4.608  17.442  0.1706 -0.0807 -0.0133
52134W        W95150   7.340  12.320  13.574  0.1480 -0.2639 -0.5224
52135W        W95151  32.998  32.586  27.098 -0.1822  0.4358  0.0921
52136W        W95152  23.609   5.311   6.262 -0.1647  0.0618 -0.0277
52137W        W95153   6.132  12.651  16.255  0.2958  0.0250 -0.0126
52138W        W95154  27.069  18.998   3.260  0.0090 -0.0106 -0.3218
52139W        W95155  32.565  12.155  28.766 -0.1423 -0.1697  0.2929
52140W        W95156   1.444   0.071   7.875  0.1051  0.0668 -0.1387
52141W        W95157   0.292   4.933   5.630  0.0825  0.1785  0.0758
52142W        W95158   4.694  20.621  23.595 -0.0882  0.5294 -0.3084
52143W        W95159  34.727  33.738   8.357  0.0067 -0.1917 -0.1792
52144W        W95160   6.832   3.361   6.801 -0.1099 -0.0143 -0.0212
52145W        W95161   4.955   4.564  26.047 -0.0700 -0.0368 -0.1257
52146W        W95162   8.130  10.144  21.112 -0.3756  0.3700 -0.1399
52147W        W95163  33.469   3.682  15.680  0.1215 -0.0286 -0.1312
52148W        W95164  29.393  16.244   8.961  0.0998 -0.0697  0.0895
52149W        W95165  26.112   8.525   4.676 -0.1837 -0.0122 -0.2940
52150W        W95166   5.313   1.599  29.246 -0.2233 -0.0143  0.0056
52151W        W95167  28.364  16.479  28.895 -0.1416 -0.0349 -0.0510
52152W        W95168  29.795  18.046   5.880 -0.0277 -0.0292  0.0672
52153W        W95169   1.109  31.178  28.276 -0.1478  0.1447 -0.0996
52154W        W95170  15.355  22.779  15.564  0.1675  0.2305  0.1712
52155W        W95171   8.509   1.535   6.250 -0.0747  0.1378  0.1931
52156W        W95172   9.337  16.419  23.862 -0.0351 -0.1501 -0.0520
52157W        W95173   1.089   5.652  27.872  0.0981  0.2712 -0.0103
52158W        W95174  32.875  19.665  26.139  0.0459 -0.2262  0.2173
52159W        W95175   8.872   6.494  25.682  0.0156  0.0476 -0.1077
52160W        W95176   9.122   9.395   8.516 -0.2058  0.0792  0.2757
52161W        W95177  32.647  12.890   3.651 -0.2771 -0.0646 -0.0134
52162W        W95178  32.750  20.750  10.073 -0.1115 -0.1973  0.1566
52163W        W95179  20.710   6.095   8.273  0.0796 -0.1385  0.3452
52164W        W95180  23.292   4.044  18.549  0.0237  0.0390  0.0045
52165W        W95181  21.285  15.678  21.016 -0.1873 -0.1676 -0.2337
52166W        W95182  21.806  33.645  25.836 -0.0429  0.1719 -0.6883
52167W        W95183  16.617  13.173  23.459  0.1482  0.1995 -0.0305
52168W        W95184   4.035   2.901  28.364  0.5066 -0.2937 -0.3960
52169W        W95185  25.671   1.184  22.594 -0.1969 -0.2653 -0.0245
52170W        W95186  21.628   2.010  23.023 -0.0179 -0.1885 -0.1969
52171W        W95187  29.624  10.223  22.858 -0.2311  0.2669 -0.0720
52172W        W95188   1.036  30.103  19.735  0.1249 -0.0553  0.0438
52173W        W95189  30.597  22.350  25.820  0.1870 -0.2680  0.1062
52174W        W95190  31.115   1.941   1.115  0.2378  0.0636  0.2970
52175W        W95191  29.035  23.433   9.197 -0.0644  0.0902 -0.0246
52176W        W95192  32.201  10.104  28.410 -0.2078 -0.0764  0.0284
52177W        W95193  28.633  16.054  18.182  0.1569 -0.0381  0.3639
52178W        W95194   5.415  30.118  19.470 -0.1450 -0.1596  0.2123
52179W        W95195  34.567   8.371  24.699  0.0960 -0.3163 -0.2223
52180W        W95196   4.748   5.071   2.488  0.2461  0.0953 -0.1079
52181W        W95197   7.456  14.986   3.465 -0.0996  0.0154 -0.2767
52182W        W95198  16.135   8.902   5.764 -0.2833 -0.1093  0.1940
52183W        W95199  24.971   6.954  22.684  0.0912 -0.1150  0.1731
52184W        W95200  11.515  23.722  26.662  0.3379 -0.3156  0.2302
52185W        W95201   0.549  12.300  24.551  0.1986 -0.0032  0.1040
52186W        W95202   8.957  31.704   7.412 -0.2970  0.0901 -0.0641
52187W        W95203  17.200  13.735  28.914 -0.0720  0.0264  0.0490
52188W        W95204   1.284  10.201   7.168 -0.0483  0.0123 -0.0150
52189W        W95205   1.147   6.586   3.852  0.1698 -0.0084  0.1754
52190W        W95206  31.411  32.156   2.722 -0.5077 -0.0473 -0.1606
52191W        W95207   1.825  11.336   9.858  0.0048  0.0003 -0.3461
52192W        W95208  12.931   5.196  27.406 -0.2040  0.2684 -0.2317
52193W        W95209  29.953   6.753   4.969 -0.0381 -0.0547 -0.1659
52194W        W95210  21.424  13.339  27.141 -0.1871 -0.0612 -0.0116
52195W        W95211  34.740   3.002  16.712 -0.1303  0.0596 -0.0010
52196W        W95212  32.276  10.172  23.774  0.0271 -0.1834 -0.1908
52197W        W95213   8.142  24.671   8.607 -0.0450 -0.0318  0.1589
52198W        W95214   0.685   6.622   2.578 -0.0083 -0.0343  0.1438
52199W        W95215  29.704  15.841   1.718 -0.2015 -0.1745  0.1840
52200W        W95216  23.845   8.547   4.688  0.0413  0.0339 -0.2348
52201W        W95217  24.035  10.842   1.153 -0.3113 -0.2041  0.0534
52202W        W95218  25.433   5.357   6.248 -0.0176  0.0817  0.0228
52203W        W95219  21.392  19.222   6.657  0.1457  0.3744 -0.0506
52204W        W95220   0.069  31.936  29.002 -0.0009  0.0132 -0.1956
52205W        W95221  23.478  21.030  28.377 -0.0370  0.3351 -0.0265
52206W        W95222   5.488   2.612   8.762 -0.1815 -0.1906 -0.0991
52207W        W95223   1.167   7.217   7.896  0.2035  0.2755 -0.1273
52208W        W95224   2.329  13.801   5.574  0.1672 -0.0960 -0.1113
52209W        W95225  26.239  30.714   6.883  0.0607 -0.0773  0.0627
52210W        W95226  32.940  18.195   8.669 -0.2059  0.2325 -0.1781
52211W        W95227   3.872  33.378  29.160  0.3375 -0.1299  0.1831
52212W        W95228  24.440   1.258   9.516 -0.0225  0.5136 -0.1775
52213W        W95229   9.750   3.572   5.000  0.0981 -0.3266 -0.1238
52214W        W95230  28.987   8.606  27.944  0.2796 -0.0438  0.1688
52215W        W95231  15.101  18.224  14.820  0.2315 -0.0598 -0.2292
52216W        W95232  18.181   3.135   4.589 -0.4030 -0.2270  0.1295
52217W        W95233  11.929  11.022  24.967  0.2062  0.2291 -0.0044
52218W        W95234  30.190   8.010   7.265  0.0071 -0.0837  0.2397
52219W        W95235   0.335   9.953   2.994 -0.1954 -0.0084 -0.2437
52220W        W95236  26.069  14.519   0.769  0.0138  0.0448 -0.3361
52221W        W95237  34.086  12.445   6.683 -0.1126  0.2282  0.1043
52222W        W95238  26.774  18.147  14.316  0.0867 -0.2022 -0.0492
52223W        W95239  30.806  31.911   7.527  0.1616  0.0576  0.0315
52224W        W95240   8.619  28.580  29.272 -0.0227  0.2209 -0.0196
52225W        W95241   2.005  12.943  10.564  0.0637 -0.0476 -0.0989
52226W        W95242   3.672  21.675  22.283  0.2223 -0.2887 -0.0244
52227W        W95243  23.102  18.676   3.632  0.1814 -0.2151  0.0838
52228W        W95244   3.187  13.611   4.103  0.1760 -0.1100 -0.1036
52229W        W95245  33.677   8.505  19.199  0.1366  0.1337 -0.0180
52230W        W95246  32.263  10.154   5.600 -0.0591  0.1146  0.0463
52231W        W95247  29.220  24.525  24.477  0.3908  0.1034  0.0908
52232W        W95248   2.466  13.101  26.245  0.0644 -0.1619 -0.0390
52233W        W95249  30.862  20.209  22.220  0.1415 -0.4490  0.1011
52234W        W95250   3.087   6.565  23.486  0.0657 -0.1369 -0.1313
52235W        W95251  29.064  13.081   2.354 -0.2357 -0.3770  0.1375
52236W        W95252  14.552   4.453  18.538  0.0014  0.2886 -0.2840
52237W        W95253  28.487  23.923  24.395 -0.1224 -0.0478 -0.1446
52238W        W95254  17.889  19.098   4.250  0.1688  0.2135  0.2289
52239W        W95255  16.675   7.089   4.607  0.1316  0.2248  0.0481
52240W        W95256   5.342   8.009   5.193 -0.0507  0.0058  0.1623
52241W        W95257   2.979  32.672  21.710  0.0645  0.1578  0.0913
52242W        W95258  25.427  23.187  21.846 -0.2955  0.0752 -0.0495
52243W        W95259  20.321  33.759   3.291 -0.1265 -0.1799 -0.1677
52244W        W95260  30.103  19.043  21.197  0.0042 -0.1484 -0.0042
52245W        W95261   2.668  13.800   0.608 -0.0536  0.0358 -0.1914
52246W        W95262  11.534  34.207   4.289 -0.5028 -0.1058 -0.2925
52247W        W95263  29.962  17.882   4.081 -0.1260  0.1834 -0.3562
52248W        W95264  23.358  12.104   3.712  0.1157  0.0173  0.0395
52249W        W95265   3.108   7.838  17.796 -0.0463 -0.2068  0.1685
52250W        W95266  13.839  24.195  24.046 -0.1520  0.2613  0.2238
52251W        W95267   6.556  15.891   5.612 -0.0773 -0.0243  0.2627
52252W        W95268  20.598  11.514  28.679  0.1045  0.2531 -0.6456
52253W        W95269  20.851  16.260  21.296  0.0146  0.0202  0.1127
52254W        W95270  34.705  13.431  20.420 -0.0867  0.1669  0.2816
52255W        W95271   2.725  25.122  23.483  0.2839 -0.0680  0.2977
52256W        W95272  21.234  14.030   7.269  0.1898  0.0642  0.2412
52257W        W95273   9.009  17.464  23.497 -0.4061 -0.0294  0.0409
52258W        W95274   8.560  11.719  26.609  0.0520  0.0119 -0.0602
52259W        W95275   7.433  26.484   2.409  0.0867 -0.1167 -0.1902
52260W        W95276  24.698   9.524  25.582  0.2773  0.0131 -0.2692
52261W        W95277  25.187   1.209  20.999  0.2590  0.0946  0.2036
52262W        W95278  31.344  12.615   4.207 -0.1277 -0.1940  0.0349
52263W        W95279   2.532  15.713  28.258 -0.3338 -0.0963 -0.2812
52264W        W95280  16.460  20.639  14.904  0.2123  0.1140  0.0486
52265W        W95281  15.074   7.915  28.808 -0.0005  0.1140 -0.1066
52266W        W95282   0.333   6.127  21.551 -0.0726 -0.2830  0.3505
52267W        W95283  23.352   3.976  11.330  0.2876  0.0848  0.4504
52268W        W95284   0.307  17.313  28.873  0.1446 -0.1799 -0.2523
52269W        W95285  32.581   9.928   3.862 -0.0779  0.3832  0.0135
52270W        W95286  17.996  21.127   7.275  0.2302 -0.1405  0.1151
52271W        W95287  27.237  31.189  29.034  0.1968  0.2008  0.1432
52272W        W95288   7.460  10.329  22.925 -0.0628 -0.0818  0.3825
52273W        W95289  30.062  32.114   1.523 -0.0108 -0.1242 -0.1797
52274W        W95290  11.695   9.099  13.947 -0.2517  0.0370  0.4386
52275W        W95291  31.906  18.755   4.808  0.1617  0.0035  0.4823
52276W        W95292  25.170  25.492  22.672 -0.0194  0.0039 -0.0306
52277W        W95293  19.181   8.172   9.128  0.2560 -0.1957 -0.1176
52278W        W95294  29.238   4.786   9.489 -0.1418  0.3773  0.2264
52279W        W95295  23.230  18.854  22.025  0.0352  0.0300  0.1783
52280W        W95296   0.024   6.564   5.829  0.3113  0.1221  0.2270
52281W        W95297  32.506  14.735   8.840  0.0515 -0.0347  0.1647
52282W        W95298  33.041   0.431  27.402  0.1496 -0.0977 -0.0481
52283W        W95299   7.840   7.644   1.388 -0.1520  0.1910  0.1027
52284W        W95300  31.899   5.370  22.878  0.0267  0.2378 -0.0601
52285W        W95301  32.807  15.891   0.177  0.5870 -0.0319 -0.0689
52286W        W95302  11.389  19.806  24.915 -0.0676 -0.0309 -0.0072
52287W        W95303   2.624  22.692   2.243  0.0484 -0.1595 -0.1024
52288W        W95304  10.224  10.424  13.444  0.3007  0.2437 -0.1197
52289W        W95305   7.104   8.503   3.272 -0.2404  0.3068  0.1375
52290W        W95306  22.154  23.809  20.142 -0.0291 -0.1631 -0.0223
52291W        W95307  34.409   8.425  25.201  0.0181 -0.1494 -0.2048
52292W        W95308  32.027  30.008   5.017  0.2125 -0.3382  0.1110
52293W        W95309  18.937   8.759  22.626  0.0312  0.0029  0.0181
52294W        W95310  32.290  27.607   1.053  0.1392  0.0620  0.1198
52295W        W95311   6.448  26.898  21.088  0.0685 -0.0309  0.0992
52296W        W95312  13.196   9.532   0.257 -0.2469 -0.0647 -0.0180
52297W        W95313   5.014  12.502   8.869  0.0565 -0.0013 -0.2736
52298W        W95314  30.414  10.236  26.665 -0.0296 -0.1491 -0.0068
52299W        W95315   3.356  15.329   0.678  0.0461 -0.0886 -0.1495
52300W        W95316  30.750  26.026   7.198  0.2846  0.2192  0.0134
52301W        W95317  21.478   9.445  27.106  0.2570 -0.1303  0.0306
52302W        W95318  13.094  19.840  24.378  0.3391 -0.0508  0.4083
52303W        W95319  29.668  10.323   4.595 -0.2389 -0.0349 -0.1360
52304W        W95320  10.658   9.586   2.491 -0.0977 -0.0779 -0.2014
52305W        W95321  28.843   1.971   5.411  0.0877 -0.0230  0.1019
52306W        W95322   4.799  21.604  21.201  0.2795  0.0542  0.1020
52307W        W95323  22.392  13.919   9.600  0.2383  0.1540  0.0062
52308W        W95324   0.594  18.610  28.496 -0.2385  0.0510  0.1009
52309W        W95325  17.271  15.012  26.612 -0.1434 -0.0901 -0.1011
52310W        W95326   3.905  11.362  14.619  0.2051 -0.0541 -0.1111
52311W        W95327  26.708   7.105  28.059  0.3400 -0.0656  0.4915
52312W        W95328  34.767   5.133   6.953 -0.0003 -0.0351 -0.0044
52313W        W95329  20.550  21.192   9.381  0.0350  0.3075 -0.2073
52314W        W95330  28.687  11.112   5.341  0.0728 -0.1133  0.1901
52315W        W95331   3.320  14.508  20.517  0.2442 -0.0650 -0.1046
52316W        W95332   5.250  34.339   6.905 -0.1288 -0.0670 -0.0940
52317W        W95333  18.048  12.844  19.711 -0.1069 -0.3085 -0.0798
52318W        W95334  33.676  34.234  24.769  0.0110  0.2919 -0.0380
52319W        W95335  33.157  33.265  14.687  0.4997  0.0733 -0.1584
52320W        W95336  16.369  22.335   0.208 -0.0242 -0.0871 -0.2430
52321W        W95337   0.276  16.512   4.665 -0.1725 -0.0927  0.0121
52322W        W95338  25.666  14.777   0.549  0.2580  0.2164  0.0785
52323W        W95339  27.368  10.829   3.956 -0.0051  0.0883 -0.1499
52324W        W95340  33.366  16.514   3.329 -0.0531 -0.0499  0.2551
52325W        W95341  19.338   1.039  28.293  0.2136  0.2389 -0.0298
52326W        W95342   1.387  11.785  25.215  0.1918  0.3371  0.0152
52327W        W95343  14.728  10.376   9.024 -0.1246  0.0118  0.1782
52328W        W95344   6.833  28.041   3.784 -0.1312 -0.0431  0.0655
52329W        W95345   1.349  20.995   3.663  0.4204  0.0150 -0.0153
52330W        W95346  32.331  13.117  26.429  0.0175  0.1496 -0.0341
52331W        W95347  29.499  27.848  28.652  0.1536 -0.0847  0.1952
52332W        W95348  31.569  22.931  26.438  0.1153  0.1641  0.0440
52333W        W95349  32.399   8.835  29.125 -0.1356 -0.1507 -0.2443
52334W        W95350  26.799   9.202  20.219 -0.0299 -0.1903 -0.1740
52335W        W95351  26.840   7.213   5.666  0.1590 -0.0894  0.0671
52336W        W95352  28.299   3.174  19.981  0.0318 -0.2723  0.0509
52337W        W95353  28.461  11.424  27.388 -0.0400 -0.1382  0.3204
52338W        W95354  33.338   8.218   2.496  0.2730  0.1908  0.0825
52339W        W95355  22.188  22.096  23.925 -0.0776 -0.0235  0.2783
52340W        W95356  29.801  22.913   5.011 -0.1272  0.5370  0.0679
52341W        W95357   2.895   7.383   0.500  0.0066 -0.5296  0.0755
52342W        W95358  30.028  13.313  25.054  0.0547 -0.2709 -0.0495
52343W        W95359  29.319   1.389   4.824  0.2232  0.1845 -0.1176
52344W        W95360  27.057   2.612   7.300 -0.0096 -0.3566  0.1103
52345W        W95361  10.263  18.859   7.924  0.1611 -0.1576 -0.2260
52346W        W95362  21.671  13.025  21.931 -0.0938  0.2975  0.1134
52347W        W95363  34.431  19.252   8.271  0.4476  0.3138 -0.0522
52348W        W95364   0.927   2.128   8.942 -0.0534 -0.0466  0.1128
52349W        W95365  31.718   9.046   4.671  0.1202 -0.0989 -0.0401
52350W        W95366  28.673   7.283  25.965 -0.2684 -0.0838  0.4533
52351W        W95367  17.766  12.618   2.060  0.1534  0.0512  0.1027
52352W        W95368  13.901  18.164   6.935 -0.1422 -0.1500 -0.0981
52353W        W95369  33.368  11.694   7.243 -0.1150 -0.0195  0.5264
52354W        W95370   1.290  26.347  23.298  0.1306 -0.3410  0.0960
52355W        W95371  12.691  24.824   6.029 -0.1340  0.0495  0.1963
52356W        W95372  26.760  30.773   7.221  0.0871 -0.0288  0.0790
52357W        W95373  16.346  14.870   1.386  0.2563  0.0979 -0.0312
52358W        W95374  24.872  12.838   3.098  0.0896 -0.0243 -0.0381
52359W        W95375   4.905  20.122   1.103  0.1806  0.1198  0.0327
52360W        W95376   3.656  15.540  29.177  0.0610  0.1106  0.2256
52361W        W95377  24.231  13.963  28.841 -0.0679 -0.1562  0.0481
52362W        W95378  32.360  15.074  15.853 -0.3679  0.1887 -0.2634
52363W        W95379   3.657   7.119   8.458 -0.1627 -0.1434 -0.0391
52364W        W95380   6.861  32.529   6.278 -0.0331 -0.2820  0.0995
52365W        W95381   2.349  14.524   3.410 -0.1029 -0.1844  0.0855
52366W        W95382   2.795  15.766   9.099  0.3287 -0.2567  0.1372
52367W        W95383  18.533  16.358  18.309  0.3076  0.0724 -0.1062
52368W        W95384   6.380  12.011   4.943 -0.0854 -0.0151  0.2684
52369W        W95385  23.781  10.335   5.148 -0.2950 -0.0950  0.0441
52370W        W95386  15.491  12.540  24.411 -0.1778 -0.0493  0.1268
52371W        W95387   6.918  19.124   2.741  0.0640  0.1669 -0.2222
52372W        W95388  12.376  12.899   7.166  0.2230  0.0787  0.0169
52373W        W95389   4.827  10.801   1.254  0.2165 -0.1081  0.2329
52374W        W95390  31.752  14.913   0.875 -0.0007  0.1862  0.0529
52375W        W95391  18.498   4.414  29.278  0.1910 -0.1023  0.0423
52376W        W95392  29.181   9.276   5.598 -0.0254  0.1458  0.3225
52377W        W95393   8.180  10.440   6.099 -0.1453  0.2037  0.0673
52378W        W95394  22.890  12.692   9.481  0.2487 -0.0450 -0.1136
52379W        W95395  28.276  12.655   3.559  0.3660  0.0309  0.3309
52380W        W95396  27.379   5.166   6.538  0.0567 -0.0941  0.0630
52381W        W95397  10.120  16.663   3.427 -0.0803  0.1006  0.3880
52382W        W95398   1.218  33.352   1.432 -0.2916  0.3529 -0.3295
52383W        W95399  33.773  13.428   4.324 -0.0733  0.6071  0.0338
52384W        W95400  34.113  13.773   9.397  0.0438  0.0047 -0.0641
52385W        W95401  32.921   5.160   8.150 -0.2759 -0.0022 -0.0189
52386W        W95402   6.667   8.814   3.520 -0.2321 -0.1357 -0.2311
52387W        W95403   4.806   8.862   5.042 -0.0012 -0.2188  0.0043
52388W        W95404  29.484  14.891   5.061  0.0550 -0.2357 -0.2351
52389W        W95405   7.898  16.446   3.244  0.3731 -0.0186  0.1762
52390W        W95406  30.481  24.162   0.999  0.0279  0.0637 -0.0313
52391W        W95407  25.222  24.527   3.130  0.2343  0.1220 -0.0655
52392W        W95408  23.743  13.484  28.724 -0.0174 -0.0181 -0.1008
52393W        W95409  23.961  15.684  27.387  0.1157 -0.0637  0.1434
52394W        W95410   0.933   8.697   2.502  0.0328  0.1387  0.2475
52395W        W95411  33.547  10.616   4.185 -0.2628  0.0633  0.0086
52396W        W95412  31.599  12.722   1.043 -0.1959  0.1999  0.3090
52397W        W95413   8.224  13.512   4.291 -0.0619 -0.0622  0.0046
52398W        W95414  22.764  31.865   8.071  0.1370 -0.1791 -0.1345
52399W        W95415  30.674   5.845  23.180  0.1176 -0.1483  0.0743
52400W        W95416  21.007  27.924  24.009  0.0245  0.3535  0.1646
52401W        W95417  23.758   2.790   2.325  0.0541 -0.3475  0.1728
52402W        W95418  20.237   8.963  28.791  0.1952 -0.0659 -0.2055
52403W        W95419  30.683  11.472   5.167 -0.0025  0.0235 -0.1965
52404W        W95420  32.563  14.064   0.524 -0.3480 -0.0335 -0.4308
52405W        W95421  31.719  10.573  26.395  0.1674  0.0799 -0.0493
52406W        W95422  20.488   7.180   5.464 -0.2154 -0.3382  0.1757
52407W        W95423  27.779   9.956  10.873 -0.0604 -0.3541  0.3104
52408W        W95424   9.864  22.268  27.945  0.3149 -0.1140  0.0672
52409W        W95425  23.146  16.384   4.258  0.2405  0.1379 -0.3189
52410W        W95426  26.113   4.272   5.085  0.3351  0.1390  0.0399
52411W        W95427  34.490   1.699   9.962  0.1298 -0.0521  0.0117
52412W        W95428   1.063  18.562  14.504 -0.0612  0.4045 -0.0957
52413W        W95429   5.885  27.215  25.176 -0.3487 -0.1900 -0.1328
52414W        W95430   1.505  26.206  25.133  0.1118 -0.0514 -0.3337
52415W        W95431  19.250   2.791  17.490 -0.5045 -0.1051 -0.3629
52416W        W95432  34.598  12.761  25.491 -0.0156  0.0002  0.1570
52417W        W95433   8.809  20.472   1.401  0.0112 -0.1052  0.2144
52418W        W95434  18.151   8.061   5.656  0.0516 -0.2894 -0.1442
52419W        W95435   4.701   9.255   9.250 -0.0685  0.0214  0.0715
52420W        W95436  10.811   8.222   5.983 -0.0843 -0.0116 -0.0432
52421W        W95437  29.308   8.350   7.873 -0.0011  0.2133  0.1357
52422W        W95438   4.964  11.620   8.199 -0.1192 -0.1926 -0.0451
52423W        W95439   0.062  12.150  24.616  0.0524  0.2036 -0.0243
52424W        W95440   6.624  29.271   7.926  0.0436  0.0200 -0.0569
52425W        W95441   1.105  19.426   4.472 -0.1373 -0.0538 -0.3185
52426W        W95442  23.273   9.327   7.539  0.2822 -0.1671 -0.2770
52427W        W95443  21.299  25.248   2.633  0.0152 -0.2871 -0.3228
52428W        W95444   9.192  25.338   6.992  0.2567 -0.1766  0.2751
52429W        W95445  24.638   7.005  25.710 -0.0957 -0.0245 -0.2033
52430W        W95446  31.117   6.168   9.220 -0.2063  0.1881 -0.1437
52431W        W95447   4.107   4.800  28.921  0.0198  0.0814 -0.0573
52432W        W95448  32.119   8.027  17.136 -0.1037  0.1233 -0.2013
52433W        W95449   1.625   5.238   3.432 -0.5365  0.0627 -0.0156
52434W        W95450  34.151   5.581   1.604  0.2832  0.0121  0.0915
52435W        W95451  31.200   9.916   4.223  0.0968 -0.0559 -0.1192
52436W        W95452  23.267  25.170  10.794 -0.0098  0.2537 -0.3829
52437W        W95453   1.116   9.295   5.675 -0.1404  0.2637 -0.0149
52438W        W95454  29.307  17.069   4.012 -0.0885 -0.2384  0.1456
52439W        W95455  32.658   4.313  26.192 -0.0130  0.2441 -0.0801
52440W        W95456   5.354  16.696  28.921 -0.0487 -0.2256 -0.0083
52441W        W95457  15.651   6.750  21.277  0.0428 -0.1894 -0.0364
52442W        W95458  22.703  21.050   0.643  0.2602  0.0440  0.0063
52443W        W95459   0.014  10.675   6.809  0.1338  0.1179 -0.1282
52444W        W95460  19.650  15.454   3.254  0.2008 -0.0294  0.2506
52445W        W95461  16.587   4.458   3.643  0.3529 -0.0918  0.2376
52446W        W95462  27.435   2.572  10.675  0.2171  0.1146  0.2371
52447W        W95463   3.952  18.721  23.990  0.1730 -0.4006 -0.2844
52448W        W95464   6.305  19.244  17.044 -0.1271 -0.2010 -0.0791
52449W        W95465   7.548  25.119   4.410 -0.2399  0.1838 -0.1544
52450W        W95466  27.877  10.856   8.514  0.3857 -0.3027  0.1901
52451W        W95467  27.131   2.192  23.358 -0.0466 -0.1061  0.1407
52452W        W95468  33.513   7.481   4.079 -0.1764 -0.2949  0.0966
52453W        W95469  16.923   1.528   7.110 -0.0069  0.2415  0.2107
52454W        W95470   5.973   1.357  26.227  0.0459 -0.0731  0.2682
52455W        W95471   9.390  13.111  23.953  0.2501  0.4237 -0.0103
52456W        W95472  20.201   8.160  22.420 -0.0151 -0.0720 -0.2384
52457W        W95473  29.171  20.905   8.888 -0.1976  0.2042  0.0656
52458W        W95474  32.306   7.952  25.852 -0.0014 -0.2231 -0.1058
52459W        W95475  30.540  10.835   1.435 -0.1525  0.0777  0.0813
52460W        W95476  14.432  22.656   6.435 -0.1561  0.3641  0.0763
52461W        W95477   2.107   7.224   8.754 -0.0442 -0.0395 -0.0684
52462W        W95478   4.267  20.811   1.862  0.1107  0.2213  0.3807
52463W        W95479  16.906  16.412   3.942 -0.1140 -0.0322 -0.2357
52464W        W95480  25.523  18.484  28.050 -0.0542 -0.1337 -0.2505
52465W        W95481  33.967  17.314  21.429 -0.3363  0.0484 -0.2587
52466W        W95482   9.703  14.856   7.225 -0.1709 -0.0324 -0.1990
52467W        W95483   2.854   1.017  23.778  0.2358 -0.0178  0.1169
52468W        W95484  25.887  25.720   7.285 -0.1707  0.0044  0.1464
52469W        W95485  17.944  10.445   2.234  0.1280 -0.0812 -0.2409
52470W        W95486   6.533   1.621   6.151  0.1740  0.0356 -0.1682
52471W        W95487  23.613   6.275   4.513 -0.1311 -0.1950 -0.1310
52472W        W95488  29.332   7.719   8.164  0.1374  0.1484 -0.3135
52473W        W95489  31.367   9.882   5.248 -0.0262 -0.1175  0.4748
52474W        W95490  32.064  11.120   8.087 -0.2935  0.1592  0.1678
52475W        W95491  33.674   7.907   2.716 -0.0499  0.1473  0.0794
52476W        W95492   7.672  14.463  23.781 -0.1142  0.3596 -0.2203
52477W        W95493   2.877   6.665   8.481  0.0875  0.0254  0.2677
52478W        W95494  34.189  17.690  21.809 -0.0173  0.0135  0.1415
52479W        W95495  27.143  10.847  27.750  0.2243  0.0927 -0.0916
52480W        W95496  11.863  20.570   6.418 -0.0686 -0.2064 -0.0274
52481W        W95497   2.337  31.164  28.745  0.4036  0.0052  0.1945
52482W        W95498  24.304   0.843   8.229 -0.0950  0.1154  0.0025
52483W        W95499  13.924  30.838  28.417  0.0896  0.2612 -0.0973
52484W        W95500   5.996  16.371  25.669  0.3960 -0.2483 -0.1909
52485W        W95501   0.897  10.562   1.200 -0.4327  0.1963  0.0117
52486W        W95502  10.296  18.806   6.804  0.1696 -0.1750 -0.0933
52487W        W95503  19.259  15.025  22.398 -0.0363  0.0420 -0.1353
52488W        W95504  18.735   8.224   8.634  0.0244 -0.1379 -0.2721
52489W        W95505   7.798   8.658   7.687  0.0032  0.0093 -0.2317
52490W        W95506   8.109  20.525   8.364 -0.1577  0.1271  0.0202
52491W        W95507  24.178   0.605   4.467  0.2214 -0.0621  0.0478
52492W        W95508  30.501  16.173   8.150 -0.1466 -0.0170  0.2802
52493W        W95509  33.394  16.859   6.632 -0.2519  0.1135  0.0320
52494W        W95510  26.829  24.307   3.431  0.4322 -0.1145  0.1263
52495W        W95511   3.205  18.125   9.007 -0.0019  0.0996 -0.1928
52496W        W95512   2.370  12.470  20.032 -0.0565  0.2106 -0.0432
52497W        W95513  31.669  26.958  18.904 -0.3541 -0.1400 -0.1472
52498W        W95514   5.836  16.032   7.380  0.0198 -0.1069 -0.0481
52499W        W95515  23.394  16.529  28.923 -0.1473  0.0967  0.0656
52500W        W95516   7.677   5.022   9.275 -0.1954  0.0673 -0.1215
52501W        W95517  29.960   5.444   4.378  0.1191 -0.1043  0.1816
52502W        W95518  33.906  17.229   0.816 -0.0987 -0.4687  0.0521
52503W        W95519  29.444  10.091   6.078 -0.0308  0.0357  0.0869
52504W        W95520  14.783  13.457  25.381 -0.1200  0.0228  0.1032
52505W        W95521   4.454   6.168  22.412 -0.0001  0.0616  0.0084
52506W        W95522  10.991  16.164   3.161 -0.1430 -0.1531 -0.2371
52507W        W95523  17.122  18.057   0.197 -0.0149  0.1025 -0.1116
52508W        W95524  21.173  15.962   2.836  0.0536  0.0388 -0.3914
52509W        W95525  28.594   1.484  10.601 -0.1687 -0.2424  0.1993
52510W        W95526   5.163  14.187   9.532 -0.2441 -0.1396  0.0958
52511W        W95527  26.548  34.236   8.548 -0.2127  0.2790 -0.1355
52512W        W95528  34.303  34.694   1.186 -0.0570  0.0906 -0.0435
52513W        W95529  27.386  20.195   6.927 -0.0264 -0.0840 -0.1341
52514W        W95530  23.368   9.216  20.821 -0.1978 -0.0314  0.2134
52515W        W95531   6.546  34.723  17.521  0.3245  0.1917 -0.3497
52516W        W95532  31.836  16.192  19.550 -0.0436  0.0851 -0.0290
52517W        W95533  33.661   1.362   8.403 -0.0061 -0.0931 -0.3099
52518W        W95534   7.428  17.882   1.105  0.2248  0.0412 -0.0888
52519W        W95535  31.511   6.395   9.412 -0.1925 -0.2000 -0.1321
52520W        W95536   3.915   9.640   6.517  0.3027  0.0112  0.4141
52521W        W95537   9.601  16.947  26.335 -0.0531  0.0564  0.2420
52522W        W95538  24.564  10.928   5.680 -0.0244  0.1123 -0.0843
52523W        W95539   7.939  18.524  22.297 -0.4110 -0.1066 -0.1392
52524W        W95540  34.002   6.563   3.792 -0.0669 -0.2772  0.2689
52525W        W95541  27.397   7.793   8.622  0.1347  0.0338  0.1865
52526W        W95542  12.826  33.484   9.279  0.0254  0.2244  0.0783
52527W        W95543  26.622  11.003  27.754  0.0092  0.2324 -0.0412
52528W        W95544   7.925   7.201  28.784  0.0524  0.0878  0.0303
52529W        W95545   6.225  14.665   0.941 -0.1406  0.3233  0.2569
52530W        W95546   8.086   3.351  25.756 -0.2294  0.1453 -0.1668
52531W        W95547  34.455   2.163   2.238 -0.0034  0.1830  0.1915
52532W        W95548  28.239  11.550   7.919 -0.0247 -0.0637 -0.1209
52533W        W95549  17.577  32.540  10.679  0.0078  0.1427  0.1766
52534W        W95550   8.962  29.604   7.281  0.0283  0.0567 -0.1070
52535W        W95551  27.745   9.300   2.560 -0.1351  0.0012  0.3770
52536W        W95552  32.043  28.455  11.420  0.0141  0.0616  0.1410
52537W        W95553  20.388  22.117   5.271 -0.1550 -0.3309  0.1284
52538W        W95554  14.405  21.601  27.830  0.0496 -0.0213  0.0661
52539W        W95555   3.507  32.579  29.067 -0.1239 -0.0507  0.2521
52540W        W95556  22.173   7.338  23.719 -0.1000  0.0844 -0.1655
52541W        W95557   4.285   4.694   2.524 -0.1240  0.3242 -0.4789
52542W        W95558  31.273   5.143   6.576  0.0970  0.0724 -0.3187
52543W        W95559   0.302   3.019  25.503 -0.0663  0.2162  0.0481
52544W        W95560  10.495  30.509  27.694 -0.1330 -0.3443  0.0631
52545W        W95561  26.936   7.943   4.681  0.0909  0.0018 -0.0221
52546W        W95562  32.033  21.761   3.536 -0.0921 -0.5210  0.0533
52547W        W95563  24.697  18.147   4.941  0.0818 -0.1446  0.2595
52548W        W95564  28.995  13.232   5.677 -0.2989 -0.1502 -0.4784
52549W        W95565   6.898   4.475   5.283  0.1326  0.0672  0.1171
52550W        W95566  33.556  13.414   6.444 -0.0434 -0.0493  0.0456
52551W        W95567  11.029   7.765  22.224  0.2500 -0.2274 -0.0043
52552W        W95568   0.744  30.987   9.895 -0.2735 -0.0404 -0.1583
52553W        W95569  29.883  18.705   1.443 -0.2807  0.2034 -0.0134
52554W        W95570   3.908  13.516   0.759 -0.0583  0.0568  0.0222
52555W        W95571  21.462  20.429  25.284  0.2440 -0.0089 -0.2175
52556W        W95572   1.162  10.483  10.499  0.3544  0.1702 -0.1424
52557W        W95573   5.226  20.432   6.692  0.3521  0.0871 -0.0559
52558W        W95574  26.448   5.730  27.638  0.3400  0.1423 -0.2111
52559W        W95575   3.263  11.670   0.127  0.0779 -0.0976 -0.1629
52560W        W95576  28.436   8.810  17.600 -0.2131 -0.0185 -0.3061
52561W        W95577   1.123  17.661  24.391  0.1194 -0.1375  0.1864
52562W        W95578   1.492  22.634   0.784 -0.0258 -0.3062  0.0277
52563W        W95579  17.045  10.789  27.208 -0.1006  0.1184  0.0461
52564W        W95580  28.493  33.122   0.029  0.0094  0.1042  0.2688
52565W        W95581  31.762   1.962  28.946 -0.1269 -0.0685  0.0172
52566W        W95582  16.418   5.487   4.799 -0.0889  0.2315  0.0280
52567W        W95583   3.569  19.625   2.533  0.1839 -0.0997 -0.1223
52568W        W95584  31.324  32.944   0.408  0.1682  0.1362 -0.0946
52569W        W95585  22.739  13.899   7.958  0.4085 -0.0488  0.2949
52570W        W95586  30.361  25.299  23.921 -0.2155  0.1535 -0.4241
52571W        W95587  16.295  10.944   7.511 -0.2038 -0.2969  0.3259
52572W        W95588   7.183  11.283  13.916 -0.2163  0.1276 -0.0559
52573W        W95589  34.714  15.376  10.830 -0.0706  0.1240 -0.0244
52574W        W95590  34.263  15.491   1.231  0.7758 -0.1308  0.0603
52575W        W95591   1.841   4.444  28.774 -0.1968 -0.2558  0.0398
52576W        W95592  14.983  21.437   3.093 -0.0486 -0.2515 -0.1285
52577W        W95593   4.748   7.736   2.795 -0.1552 -0.2244  0.0256
52578W        W95594  25.270  29.174  26.887 -0.0045 -0.1763  0.0263
52579W        W95595  23.076  14.568  23.377 -0.1853  0.1592  0.2628
52580W        W95596  29.355  17.839  23.269 -0.1094  0.0071 -0.3189
52581W        W95597  31.444  14.336   7.880  0.3324  0.1069  0.0798
52582W        W95598  28.812   0.679   2.292 -0.4191 -0.0774  0.2266
52583W        W95599   2.136   4.172   9.689  0.1860  0.1363 -0.2952
52584W        W95600  20.581   9.220  14.445 -0.1455  0.0963 -0.0599
52585W        W95601   6.186  13.849   1.756 -0.1796  0.1768 -0.2384
52586W        W95602  22.737  34.062   2.394 -0.1147  0.1114 -0.4932
52587W        W95603   7.707  14.283   5.990  0.0046 -0.0550 -0.0319
52588W        W95604   9.936  15.862   6.642  0.0359  0.1686 -0.1356
52589W        W95605  31.684   2.247  27.910 -0.0352  0.0742 -0.1686
52590W        W95606  30.334  18.567   6.385  0.0123 -0.2104 -0.5559
52591W        W95607  14.926  16.651  25.228  0.2834 -0.0942 -0.1144
52592W        W95608  31.456  18.016   9.618 -0.1165  0.1076 -0.2472
52593W        W95609  30.948  10.379  16.631 -0.0995  0.1911 -0.1352
52594W        W95610  21.436  33.321   1.474 -0.1782 -0.1386 -0.0829
52595W        W95611  33.286   7.582   2.319  0.0096 -0.2548 -0.0062
52596W        W95612  34.368   7.616  22.223  0.0605 -0.0949  0.0829
52597W        W95613  18.248  18.602  26.837  0.0438  0.0234  0.0976
52598W        W95614  31.245  21.813   2.949 -0.0358  0.0914  0.0231
52599W        W95615  34.329  22.401  29.130  0.2370 -0.1338 -0.0442
52600W        W95616  25.223   3.242  16.735  0.0229 -0.2055 -0.3115
52601W        W95617  32.670   2.521   0.693 -0.0481 -0.0382  0.0147
52602W        W95618  20.802   4.627   7.652  0.1150 -0.0853 -0.0757
52603W        W95619  23.079  26.449  27.481 -0.0309 -0.2063  0.1827
52604W        W95620  23.325  15.361  19.945  0.0734 -0.0137  0.2129
52605W        W95621   3.696  11.225   2.852  0.2680  0.2658 -0.2441
52606W        W95622   9.731  30.625  26.033  0.0590  0.4296  0.1081
52607W        W95623  26.317   7.054  10.650 -0.1304 -0.3857  0.0158
52608W        W95624  18.753  12.456  20.122 -0.0021 -0.0863 -0.1065
52609W        W95625  26.018  10.977  24.712  0.0987  0.0576 -0.2437
52610W        W95626  13.037   4.187   5.747 -0.2661 -0.3971  0.1428
52611W        W95627   3.147  21.290  29.126 -0.1645  0.3386 -0.0451
52612W        W95628  11.755   9.593   1.367 -0.1154  0.3540 -0.3134
52613W        W95629  27.115   9.758   4.531 -0.3434  0.0981  0.1089
52614W        W95630   1.072  12.204   4.422 -0.1147 -0.0406 -0.0664
52615W        W95631  32.525  18.175  18.853  0.2051  0.2986  0.0212
52616W        W95632  14.274  23.691  29.315 -0.1047 -0.1456  0.0788
52617W        W95633  28.973  15.310   6.757 -0.4163 -0.0346  0.1338
52618W        W95634  28.847  26.192   2.606  0.0941 -0.0603  0.2048
52619W        W95635   7.044  23.561   3.872 -0.0748 -0.1188 -0.0125
52620W        W95636  32.032   7.259  23.249 -0.1370 -0.1973  0.1129
52621W        W95637  10.618  10.049  21.894 -0.0562 -0.0377 -0.0406
52622W        W95638  27.216  19.358   9.367  0.0354  0.2255  0.1227
52623W        W95639  20.516   5.125  27.972  0.1636  0.1979  0.1174
52624W        W95640  29.886   6.951   7.255 -0.2519 -0.1922  0.2944
52625W        W95641  21.566  17.170  23.970 -0.1760  0.2101 -0.1682
52626W        W95642  23.638   5.017   9.814 -0.0358 -0.1780 -0.0726
52627W        W95643   1.887  18.214   9.406 -0.2210 -0.3101  0.0327
52628W        W95644   6.021  33.878   5.108 -0.0936 -0.0765 -0.1435
52629W        W95645   5.731  25.376   2.355  0.1610 -0.2765  0.1083
52630W        W95646   1.645  20.916   6.746 -0.3966  0.1094  0.2825
52631W        W95647  30.556  27.756  21.831  0.2393 -0.2249  0.0027
52632W        W95648  27.618  24.100   9.260 -0.1668  0.0135 -0.2024
52633W        W95649  34.528  13.539   3.782  0.2062  0.0512  0.2323
52634W        W95650  33.598   9.776   9.157 -0.3460 -0.0537  0.2975
52635W        W95651  25.469  22.687  29.112 -0.1244 -0.1019  0.3810
52636W        W95652   0.245  18.331   5.688 -0.0398  0.1937 -0.2897
52637W        W95653   5.048  17.640   6.662 -0.0371 -0.0987 -0.0241
52638W        W95654   3.961   7.442   9.153  0.0260 -0.0572  0.2616
52639W        W95655   1.715  14.808  24.883  0.2334 -0.1343  0.1391
52640W        W95656   2.618  17.199   1.417 -0.0177 -0.2293 -0.0544
52641W        W95657  27.742  20.758   8.133  0.0046 -0.0790 -0.2378
52642W        W95658   2.208  26.317   3.327  0.0086 -0.2368 -0.0302
52643W        W95659  25.051  16.896  15.328 -0.2276  0.0845  0.0849
52644W        W95660  10.647   9.627  28.861  0.4033 -0.1457 -0.0308
52645W        W95661  32.987  16.837  25.388  0.2056 -0.1330 -0.1207
52646W        W95662   8.585   3.053  20.584 -0.0174 -0.2058  0.1495
52647W        W95663  23.136  13.609  24.897 -0.1127  0.1426 -0.0373
52648W        W95664  24.907   5.388   0.640  0.0064 -0.3538 -0.3120
52649W        W95665   9.270   0.420  27.402 -0.1673 -0.0348 -0.0572
52650W        W95666  15.898   8.021   2.862 -0.1573  0.1633  0.2171
52651W        W95667  31.107  14.463  23.075  0.2157  0.2200 -0.0987
52652W        W95668  26.804   1.974   8.746 -0.1255  0.1950 -0.1505
52653W        W95669   8.378  22.106   7.640  0.1727 -0.1975 -0.2980
52654W        W95670  25.426  19.138   0.523 -0.0995  0.0533  0.2235
52655W        W95671  23.158  26.735   8.493  0.1361 -0.0412 -0.0202
52656W        W95672  20.663  13.488  26.859  0.0244 -0.1524 -0.1133
52657W        W95673  12.710  30.365   1.279 -0.0923 -0.2313 -0.0351
52658W        W95674  30.777  32.847  27.950 -0.1293 -0.2339  0.3224
52659W        W95675  34.614  21.857   2.748 -0.2752 -0.1390 -0.2333
52660W        W95676   9.432  14.159   4.125 -0.1178  0.1032 -0.1976
52661W        W95677   1.828  34.544   1.810  0.2049  0.0459  0.0249
52662W        W95678  26.296  12.087  25.400  0.3152  0.1242 -0.4254
52663W        W95679   6.237  15.846   1.076  0.1451  0.4175  0.0390
52664W        W95680   3.075  10.912  10.107 -0.0210 -0.1384 -0.2788
52665W        W95681   2.719  12.242   4.222 -0.0965 -0.0986  0.0688
52666W        W95682   9.509  25.680   1.847 -0.1204 -0.0770  0.0877
52667W        W95683   6.718   8.316   7.982 -0.2558  0.2687  0.0680
52668W        W95684  31.496  21.289   9.435  0.0780  0.0805  0.0988
52669W        W95685   3.786  16.705  23.102 -0.0430 -0.0472 -0.0794
52670W        W95686  30.178  17.343  11.062  0.1305  0.1402  0.0973
52671W        W95687  30.780  15.113   6.210 -0.0827 -0.1394  0.1530
52672W        W95688   2.837  15.864   3.813 -0.3246 -0.0086  0.1194
52673W        W95689   0.309  31.885   3.275  0.4266  0.1525 -0.1674
52674W        W95690  23.692  15.632  20.165 -0.0232 -0.2200  0.0653
52675W        W95691   7.556   5.431   1.683  0.1122 -0.1615 -0.0926
52676W        W95692  34.706  17.200  27.603  0.1293 -0.0844  0.1200
52677W        W95693  21.742  27.685   6.788  0.3393  0.0235  0.1182
52678W        W95694  26.860  34.147   6.758  0.1889 -0.3249  0.1630
52679W        W95695  32.522  21.799   5.998  0.0136  0.1368 -0.4848
52680W        W95696  17.462  14.967   4.360 -0.4178 -0.2253  0.1367
52681W        W95697   4.754   3.265  10.121 -0.2164  0.2597  0.0418
52682W        W95698  30.952  22.501   4.099 -0.0303  0.2480 -0.1857
52683W        W95699  23.185   0.858  27.391 -0.1592 -0.1920  0.0156
52684W        W95700   8.915  11.251   0.408  0.2109  0.4633 -0.3664
52685W        W95701  12.030  12.925  27.299  0.3119 -0.2872  0.3818
52686W        W95702  26.596  33.983   5.858 -0.0188 -0.0044 -0.0180
52687W        W95703   2.057  23.393   6.745  0.2041  0.0278  0.0607
52688W        W95704   9.344   4.512   8.266 -0.0222  0.1692  0.2283
52689W        W95705   5.116   8.533  29.169  0.0086 -0.1178  0.0507
52690W        W95706   9.665  15.704  28.455 -0.0417 -0.1178  0.0802
52691W        W95707  28.176  15.761   0.141  0.1539  0.3019  0.4008
52692W        W95708  26.360   6.067   1.078 -0.0823 -0.1126  0.0604
52693W        W95709   1.189   9.107   4.426  0.0407  0.1619 -0.2068
52694W        W95710   6.876  16.196   4.813  0.0026 -0.1057 -0.0162
52695W        W95711   1.753   4.721   5.560 -0.0335  0.0566 -0.5443
52696W        W95712  12.478  25.205  21.114 -0.1506 -0.0442  0.3181
52697W        W95713  23.040   9.504   1.660 -0.1335  0.0477  0.1671
52698W        W95714  29.539  28.944   2.979  0.1339 -0.1222  0.1518
52699W        W95715  13.064   5.296  21.888  0.0404 -0.1068  0.2953
52700W        W95716  32.308   8.450   6.403  0.1002  0.1769 -0.1660
52701W        W95717  33.708  23.784   9.844 -0.1926  0.0312 -0.1984
52702W        W95718  18.565   9.828   3.100  0.0928  0.0075 -0.0779
52703W        W95719  32.871  33.045   1.569  0.1402 -0.0765  0.2021
52704W        W95720  14.725  18.750  29.270 -0.1102  0.2595 -0.1129
52705W        W95721  23.217  19.009  20.986 -0.2535  0.1277 -0.0372
52706W        W95722   0.796  25.624   6.851 -0.1972 -0.2310 -0.2716
52707W        W95723  22.333  17.958   2.764 -0.0822 -0.1221 -0.0866
52708W        W95724  30.879  22.101   3.044  0.2481 -0.0069  0.1546
52709W        W95725   4.316   7.748  14.731 -0.0911 -0.5255  0.0181
52710W        W95726  29.225  34.462  21.263 -0.2833  0.2356  0.1175
52711W        W95727  22.618  16.353   1.084 -0.0620 -0.1628 -0.1500
52712W        W95728  26.331   4.153   9.206  0.1429  0.1616 -0.0206
52713W        W95729   8.378   2.216   9.926  0.0396 -0.1081  0.1201
52714W        W95730   6.409   5.431   2.652  0.2532  0.0902 -0.4120
52715W        W95731  12.971   6.903  27.737 -0.1280  0.1166 -0.1916
52716W        W95732   0.548  12.490  26.935 -0.2365  0.0339  0.1220
52717W        W95733  33.501  13.349   7.976 -0.0289  0.3063 -0.1404
52718W        W95734   2.640   6.056   8.439 -0.0767 -0.0195 -0.2695
52719W        W95735  28.013   6.165   5.759 -0.1796 -0.2520 -0.2029
52720W        W95736  29.412  19.283   4.427  0.0315  0.2232 -0.0692
52721W        W95737  30.419  18.460   7.677  0.0596  0.3239 -0.0335
52722W        W95738   1.910  34.573   4.461 -0.3742  0.0664  0.1362
52723W        W95739  20.744  24.413   0.062 -0.0828  0.1294 -0.0424
52724W        W95740  30.384   9.509  20.725  0.1182  0.0189 -0.1070
52725W        W95741  32.408  15.420  21.842 -0.1262 -0.2311  0.1940
52726W        W95742  15.096   8.540   1.774 -0.0012  0.0976 -0.0937
52727W        W95743   5.676   9.356   8.461 -0.2799 -0.0051 -0.4231
52728W        W95744  24.223  33.615  23.261 -0.0288  0.0310 -0.1172
52729W        W95745  24.268   0.469   2.328 -0.1719  0.1243  0.0771
52730W        W95746   4.232  17.177  28.151 -0.2333  0.0781 -0.1265
52731W        W95747  22.032  10.258   6.915 -0.0945 -0.0475  0.1199
52732W        W95748  25.563   8.335  24.734 -0.0630 -0.0988  0.0390
52733W        W95749  10.751   1.036  28.529 -0.0793  0.1624  0.2379
52734W        W95750  24.112  16.595  22.548  0.0005 -0.2083 -0.2558
52735W        W95751   0.749   3.957  15.388  0.2800  0.0986 -0.0430
52736W        W95752   3.014  11.762   7.743 -0.0176 -0.0194  0.1777
52737W        W95753   0.396  25.611   2.919  0.0401  0.3866  0.1399
52738W        W95754  10.114   9.250  28.470 -0.0330 -0.0985 -0.3791
52739W        W95755  34.584  11.405  28.840 -0.0775  0.0096  0.2594
52740W        W95756  20.075   0.420   3.747  0.2565  0.3798 -0.5177
52741W        W95757   1.378  24.463   9.220 -0.2193  0.2137  0.1305
52742W        W95758  34.597  10.095  27.232 -0.3844 -0.0963 -0.2568
52743W        W95759  14.582  16.262  15.128 -0.0999 -0.2117 -0.1011
52744W        W95760   8.346  12.080  19.563  0.0679 -0.2181  0.0104
52745W        W95761  16.104   7.541  24.147  0.2197  0.0792 -0.1157
52746W        W95762  14.953  17.529  20.060 -0.1724  0.0391 -0.1738
52747W        W95763   0.473  31.020  25.359  0.1034  0.0398  0.1823
52748W        W95764  15.820  16.974  26.773  0.0931  0.4465 -0.0658
52749W        W95765   4.828  13.189   0.862 -0.2200 -0.2463  0.1333
52750W        W95766  33.820  19.959   5.360 -0.3874  0.0453  0.1698
52751W        W95767   4.611  25.950   0.910  0.1890  0.1663 -0.4061
52752W        W95768   7.644  11.906   8.412 -0.0518  0.1468  0.0476
52753W        W95769  22.714  14.740  28.010  0.0606  0.1027  0.2744
52754W        W95770  10.767   9.128   3.389 -0.1426 -0.1628 -0.0939
52755W        W95771   5.092   9.475   7.827 -0.2957  0.1677 -0.3801
52756W        W95772  21.502  33.764  27.717 -0.1027 -0.0957 -0.3013
52757W        W95773  17.252  10.083   6.904  0.0521  0.1806  0.1168
52758W        W95774  26.621  23.047   1.197 -0.3228 -0.0005 -0.1869
52759W        W95775  31.154  24.614   1.699 -0.0103 -0.1637 -0.2560
52760W        W95776  27.766  10.679  29.027  0.1623  0.1680 -0.0515
52761W        W95777  28.301  34.090   3.986  0.2168 -0.0867 -0.3333
52762W        W95778  33.826  10.866  25.321 -0.0155 -0.2026 -0.0133
52763W        W95779   2.025   1.189  25.912  0.2538 -0.2463  0.2969
52764W        W95780   2.768   6.259   4.256 -0.2292 -0.0070 -0.2303
52765W        W95781  34.147  14.682  23.460  0.1063 -0.0304  0.0264
52766W        W95782  29.867   3.410   6.182  0.2501  0.1283 -0.2098
52767W        W95783   8.908  13.861  20.828 -0.2347  0.2678  0.0365
52768W        W95784   4.066  18.071  27.976  0.0217  0.1062 -0.1858
52769W        W95785   9.982   8.059   9.615  0.1542 -0.1393 -0.1287
52770W        W95786  29.109  23.333   0.867  0.4083 -0.4123  0.1297
52771W        W95787  25.022   5.170   9.567 -0.0741 -0.2993 -0.1635
52772W        W95788  31.940  17.732   7.159 -0.1534  0.0941  0.0018
52773W        W95789  25.688   8.998  22.380  0.1037 -0.1547  0.0885
52774W        W95790  33.439   3.804   0.551 -0.1702 -0.3305 -0.1341
52775W        W95791  15.866  32.484  26.526  0.2624  0.1784 -0.0318
52776W        W95792  29.275  14.981   7.340  0.0305  0.2811 -0.0054
52777W        W95793  31.562   7.881  23.609 -0.0009  0.0648 -0.0868
52778W        W95794  23.704   8.907   9.440 -0.0173 -0.0069 -0.1103
52779W        W95795  16.996   4.922  18.019 -0.2319 -0.3447 -0.0817
52780W        W95796  12.788  14.691   7.769  0.1802 -0.1402 -0.0189
52781W        W95797  32.416  24.002  28.689  0.1947  0.1163 -0.1263
52782W        W95798  33.281  19.524  19.612  0.0434  0.1933 -0.2008
52783W        W95799  29.792   7.133  10.439 -0.1992 -0.2767 -0.2223
52784W        W95800  23.262  19.692  27.108 -0.1621  0.0208  0.1766
52785W        W95801  26.594  14.675   2.900 -0.2095 -0.0905  0.1081
52786W        W95802  26.605  18.004   2.541  0.0342 -0.1725  0.1950
52787W        W95803   9.004  14.823   7.872  0.0070  0.2717 -0.0448
52788W        W95804  33.302   6.792   2.743  0.2597 -0.1603 -0.0197
52789W        W95805   2.850   5.717   5.552 -0.0620 -0.0514  0.0459
52790W        W95806   8.489   5.640  22.332  0.1051  0.0182 -0.2432
52791W        W95807  33.136   9.122   7.921 -0.1446 -0.0399  0.2783
52792W        W95808  17.143  18.958   4.045  0.0919 -0.0959  0.0000
52793W        W95809   3.502   5.599  28.965  0.0473 -0.1332  0.1256
52794W        W95810   8.460  24.740  23.054 -0.0873 -0.1390  0.0072
52795W        W95811  30.265   9.852  20.379 -0.1099 -0.2035  0.0304
52796W        W95812   2.740  18.997   7.015  0.4947 -0.0888  0.1370
52797W        W95813  34.578  12.733   3.264 -0.4116 -0.0317  0.0211
52798W        W95814  28.944  24.563   8.200 -0.1071 -0.3100  0.3609
52799W        W95815   8.825  25.719   7.032 -0.2193 -0.1672  0.4501
52800W        W95816  13.765   9.074   4.607  0.0949  0.3267 -0.0391
52801W        W95817   8.603  12.867  27.181 -0.2484  0.0341 -0.2632
52802W        W95818  32.835   5.285  25.791 -0.3450 -0.1826  0.0831
52803W        W95819  14.769  10.844   4.722 -0.0491  0.0409  0.0779
52804W        W95820   8.331  14.567  28.019 -0.0468 -0.4690  0.3376
52805W        W95821  18.046  15.560  28.765 -0.2357  0.1970 -0.1688
52806W        W95822  33.609   3.354   0.773 -0.1786  0.1751  0.0712
52807W        W95823  19.573   3.527  23.941  0.1830 -0.3162  0.2927
52808W        W95824  28.780   8.443   6.616 -0.1288  0.2034 -0.1232
52809W        W95825  13.950  24.018   2.062  0.0021  0.1981 -0.1680
52810W        W95826   4.367  10.346  21.085  0.0590 -0.2663  0.3815
52811W        W95827  26.990  17.385  24.615 -0.2695 -0.2044 -0.0961
52812W        W95828  21.677   0.386  29.204  0.2061  0.1415  0.2950
52813W        W95829  25.294  28.327  15.818  0.0516  0.0656  0.0360
52814W        W95830  28.182  17.395   8.746 -0.3507  0.0264  0.0523
52815W        W95831   5.439  25.756   6.306 -0.2698 -0.1494 -0.4460
52816W        W95832  25.565  14.714   1.853 -0.0338 -0.2382  0.0851
52817W        W95833   2.395   4.337  24.527  0.1479 -0.0159 -0.1009
52818W        W95834   2.840  30.396  29.164 -0.3793  0.2836 -0.4429
52819W        W95835   4.535  11.518  16.774  0.0979 -0.0958  0.2319
52820W        W95836  17.712  18.990   6.296 -0.0129  0.0409  0.0680
52821W        W95837  27.644   5.058  27.186 -0.2561 -0.1259  0.3150
52822W        W95838  32.344   8.346   7.675 -0.2492  0.0933  0.2308
52823W        W95839  28.936   0.309   1.647 -0.1033 -0.1576 -0.1342
52824W        W95840  18.224  28.646   9.657  0.0006  0.4345  0.0357
52825W        W95841   5.579  20.739   3.443 -0.0183 -0.1627  0.0472
52826W        W95842  23.052  27.851  22.027  0.2855  0.1781  0.0503
52827W        W95843   9.100  19.584  27.577  0.0554  0.0801 -0.1490
52828W        W95844   5.537  20.901   8.795 -0.0267 -0.0765  0.1001
52829W        W95845   6.995  18.766  23.811  0.2627 -0.1348  0.2043
52830W        W95846  15.395  15.413   3.830  0.0203 -0.1630  0.0362
52831W        W95847   8.116  11.793   1.253  0.0851 -0.0436  0.1754
52832W        W95848  24.060   6.927  21.805 -0.3259 -0.1435  0.1370
52833W        W95849   2.491  20.093   7.351 -0.0524 -0.0376 -0.1112
52834W        W95850   5.863   2.394   3.737  0.1936 -0.3333  0.2661
52835W        W95851   8.168  33.806  24.699  0.0437  0.2080  0.0340
52836W        W95852   9.997   7.461   7.317 -0.3228 -0.0829 -0.1093
52837W        W95853   7.849  10.452  25.357  0.1363 -0.0168  0.2048
52838W        W95854  22.860  32.789   7.648  0.1295  0.3613  0.0507
52839W        W95855   0.930  15.823  20.302 -0.0672  0.1023 -0.2495
52840W        W95856  11.151  21.123   5.328 -0.2711 -0.2541  0.0343
52841W        W95857  10.112  18.311  20.272 -0.1279  0.1734 -0.0813
52842W        W95858  13.967  27.715   0.693 -0.0809  0.4085  0.4229
52843W        W95859   5.454  10.449  19.480 -0.0552 -0.0024 -0.3585
52844W        W95860  13.889  12.895  27.537  0.2696 -0.0075  0.2206
52845W        W95861  31.352   5.450  25.853 -0.1114 -0.0713 -0.4625
52846W        W95862  28.075  21.487  10.027 -0.3623  0.0458 -0.0945
52847W        W95863  12.901  30.024  20.510 -0.0237  0.0766 -0.0359
52848W        W95864  32.237  24.365  27.907 -0.0868  0.1285  0.0217
52849W        W95865  16.773   6.205  28.605  0.2083  0.0903  0.0128
52850W        W95866   5.529  13.359   4.998  0.1665  0.2381  0.1053
52851W        W95867  12.548  11.144  25.021 -0.2640  0.1161  0.2090
52852W        W95868  31.462  22.278   0.279 -0.0644  0.0965 -0.2408
52853W        W95869  28.448  19.906  27.135 -0.1124 -0.1235 -0.3544
52854W        W95870   4.702  13.866  20.242  0.0808 -0.2997  0.0082
52855W        W95871   2.331   1.473  20.606  0.3302  0.0308 -0.1492
52856W        W95872  12.097  13.004  15.728  0.1951 -0.0144  0.0756
52857W        W95873  25.494  14.919   6.947 -0.0541  0.4574  0.2004
52858W        W95874  30.037   9.450  22.223  0.0982  0.1140 -0.1932
52859W        W95875  14.564  18.825   5.708 -0.0028 -0.0609  0.3424
52860W        W95876  29.855   3.607  28.742  0.0896  0.1391  0.0146
52861W        W95877  29.116   1.883   0.529  0.0697 -0.0132 -0.0537
52862W        W95878  28.608   6.234   3.466 -0.3304  0.3112 -0.0094
52863W        W95879  13.406   9.724  26.163 -0.0689 -0.3975  0.1054
52864W        W95880  29.534   4.622  19.916 -0.0877  0.1962 -0.1835
52865W        W95881   5.051  17.279   4.689 -0.0719  0.2662 -0.1599
52866W        W95882  31.082   0.141  27.584  0.1734  0.0147  0.1863
52867W        W95883  33.410  12.697   9.719 -0.1008  0.2597  0.2378
52868W        W95884  24.258  20.084  24.514  0.0763  0.1441 -0.2616
52869W        W95885  16.830  13.029   5.038  0.2258 -0.0341  0.0184
52870W        W95886   2.366  32.091   3.528  0.0454  0.0730 -0.1766
52871W        W95887  33.616   8.980  16.301  0.2627  0.1882 -0.2529
52872W        W95888   3.474  31.458   8.852  0.0252  0.1612 -0.0763
52873W        W95889   1.162  20.631   8.268 -0.1934 -0.2065  0.0948
52874W        W95890   5.230  12.966   3.030  0.0198  0.2881  0.3426
52875W        W95891  27.160  13.926   2.196 -0.0547  0.1012  0.0876
52876W        W95892  13.186  26.903  15.295 -0.0726 -0.0139 -0.0483
52877W        W95893  33.686   6.627  24.255  0.0238  0.0885  0.1331
52878W        W95894   5.201  16.705   0.240  0.2181  0.3829  0.1907
52879W        W95895   1.556  18.600  24.784  0.1000  0.0319  0.0718
52880W        W95896  34.137  19.725   9.914  0.0508  0.0689  0.3555
52881W        W95897  20.491  23.232  23.679 -0.3113  0.3005  0.1297
52882W        W95898   7.784  31.909   4.819  0.0584  0.2069  0.1214
52883W        W95899  25.878   6.544   8.200 -0.1845 -0.2168  0.0663
52884W        W95900  34.253  14.196   7.948  0.0532  0.1167 -0.0469
52885W        W95901  17.316  15.500  20.066 -0.0420 -0.1690 -0.0621
52886W        W95902  24.606  16.249   7.927 -0.0520 -0.0399  0.1569
52887W        W95903   7.680  14.136   8.666  0.0970  0.0690  0.0392
52888W        W95904  32.521   8.818   9.324  0.0944 -0.0241 -0.2015
52889W        W95905   4.071  21.388  20.527 -0.1358  0.1113  0.3524
52890W        W95906  30.343   7.330  28.215  0.0582 -0.0794 -0.3787
52891W        W95907   1.622   1.046  24.275 -0.0303  0.1377 -0.0260
52892W        W95908   7.399   1.001  26.748  0.0356  0.1818 -0.1090
52893W        W95909  19.189   3.201  28.946 -0.2628 -0.1085 -0.2428
52894W        W95910  29.680  28.373  17.901  0.1638  0.1887 -0.1908
52895W        W95911  31.366   9.527   6.275 -0.0008 -0.2732  0.1789
52896W        W95912  33.371  19.872  26.359  0.0636 -0.1718 -0.1312
52897W        W95913  11.987  11.556   5.669 -0.2504  0.0565  0.2802
52898W        W95914  26.693   0.694   6.089  0.1883  0.2738 -0.3095
52899W        W95915   2.673  12.134   9.079  0.1647 -0.1696 -0.0314
52900W        W95916   6.867  33.287   2.144  0.0362 -0.1861 -0.1752
52901W        W95917   5.221  19.529  27.322 -0.1022 -0.0531  0.2549
52902W        W95918  27.689  13.832  15.807  0.0441 -0.0224 -0.1663
52903W        W95919   0.431  21.413  26.983  0.1116 -0.2154 -0.0102
52904W        W95920   7.883  16.518   2.573 -0.2909  0.1319  0.2560
52905W        W95921  27.307   0.857   2.653 -0.2705  0.1160 -0.2944
52906W        W95922  27.250   0.219  11.096 -0.0368  0.1627 -0.1642
52907W        W95923   1.485  26.988  24.960 -0.1285  0.2043 -0.3058
52908W        W95924  31.888  21.150  17.969  0.2038  0.0302 -0.1181
52909W        W95925  29.397  21.210  25.139 -0.1593  0.1399 -0.1518
52910W        W95926   3.445   0.331  21.650  0.1337  0.2804  0.3192
52911W        W95927  32.011  11.072   1.240  0.4389  0.1214  0.2963
52912W        W95928  31.484  17.552   1.778  0.1543 -0.2393  0.2745
52913W        W95929  26.829  11.229   6.391  0.2531  0.0565 -0.2103
52914W        W95930  31.470  13.280   2.381  0.1940 -0.2894  0.1981
52915W        W95931   6.921  19.514   7.119  0.1351 -0.0425  0.0600
52916W        W95932  10.108  17.142   5.773 -0.0372 -0.0427 -0.0136
52917W        W95933  20.078   4.946  13.945 -0.0865  0.2351 -0.0487
52918W        W95934  27.155  10.172   6.673  0.0799 -0.1349  0.1658
52919W        W95935   0.367  15.787  15.231  0.1124 -0.0570 -0.0986
52920W        W95936   7.499   6.007   5.660 -0.0057 -0.0204 -0.0920
52921W        W95937  12.495  25.002  28.528  0.2816  0.3114 -0.3112
52922W        W95938  31.947  14.254   7.833 -0.1295  0.2173  0.0427
52923W        W95939   9.424  16.329   1.107  0.1433 -0.0669  0.1755
52924W        W95940  13.272  22.676  19.121  0.0075 -0.1140  0.1045
52925W        W95941  31.520  27.362  23.503 -0.0733 -0.0664  0.0555
52926W        W95942  25.528   6.363  19.480  0.0478  0.0202  0.0917
52927W        W95943  16.475   7.679  20.091  0.0510 -0.0002 -0.1302
52928W        W95944  20.469   3.881   1.258  0.3087  0.1999  0.1011
52929W        W95945  26.271  30.800   2.360 -0.2576  0.0908 -0.0019
52930W        W95946  28.740  11.314   6.532  0.2251 -0.1790 -0.1237
52931W        W95947   3.548   3.671  16.440  0.1729 -0.3521  0.0103
52932W        W95948  12.773  29.982   2.146  0.3022  0.0917 -0.0534
52933W        W95949  28.236  29.908  20.604 -0.0031 -0.0230 -0.0808
52934W        W95950   8.369   8.910   9.266  0.3116 -0.3834  0.1687
52935W        W95951  11.317  18.066   3.803  0.0684 -0.1353 -0.1185
52936W        W95952   1.714   9.052  26.034 -0.1434 -0.3791 -0.0745
52937W        W95953  26.532   0.229  26.544  0.1097 -0.2131 -0.0237
52938W        W95954   4.596   2.009  28.693 -0.0880  0.2304 -0.0431
52939W        W95955  22.397  34.067  24.180  0.0182 -0.0377  0.1732
52940W        W95956  34.359   6.552  26.905 -0.1352  0.1156  0.2775
52941W        W95957  32.419   7.171  23.641  0.1309  0.2818  0.1196
52942W        W95958   3.430   6.303  28.837  0.2590 -0.1474  0.2168
52943W        W95959   1.510  31.625   7.153 -0.1054 -0.2256 -0.3517
52944W        W95960  14.783  13.715   8.763 -0.0699 -0.0260 -0.0381
52945W        W95961   0.251  17.280   8.565 -0.1471  0.0169 -0.1819
52946W        W95962   6.393  22.629   3.848 -0.2525 -0.4147 -0.2234
52947W        W95963   0.681  20.063   3.265 -0.0856  0.2018 -0.0566
52948W        W95964  27.348  24.534   9.252 -0.0624  0.0382  0.0013
52949W        W95965  23.690  34.339  27.710  0.2435 -0.1515 -0.1440
52950W        W95966   3.391  14.579  27.003 -0.1290 -0.0718  0.0057
52951W        W95967  29.901  20.474   4.578  0.1176  0.3182  0.1021
52952W        W95968   2.613  14.654   9.616  0.0264 -0.0997 -0.0660
52953W        W95969  33.397   9.782  23.255 -0.0347 -0.1265  0.1494
52954W        W95970   2.811  16.487   8.633 -0.1686 -0.0283 -0.2187
52955W        W95971  28.675  24.316  11.442  0.2045  0.1850  0.0566
52956W        W95972  11.049  13.151  22.097 -0.3435 -0.4190  0.3229
52957W        W95973  13.392  21.481   8.104 -0.2777 -0.1394  0.1539
52958W        W95974  22.118  10.507   3.073 -0.1372  0.1191 -0.0797
52959W        W95975  12.867  13.794  18.753 -0.0697  0.1918 -0.0818
52960W        W95976   7.963   0.999  20.802  0.0348 -0.1446 -0.1262
52961W        W95977  22.308  23.869  24.452  0.1482  0.1949 -0.0574
52962W        W95978  34.455  24.467  28.556  0.3467 -0.0234  0.1841
52963W        W95979   2.252  13.859  10.219 -0.0419  0.0249  0.3064
52964W        W95980  30.881  17.245  20.059 -0.0035  0.1549 -0.0394
52965W        W95981   4.489  14.747  24.131  0.0143 -0.1120  0.1229
52966W        W95982   2.480  24.926  25.029  0.3491  0.2291  0.0341
52967W        W95983  18.680  21.379  15.627 -0.1179 -0.2122  0.1652
52968W        W95984  31.771  27.526  27.450 -0.0919 -0.2173  0.1361
52969W        W95985  32.660   4.084  15.581 -0.2561  0.0342  0.1402
52970W        W95986  31.822   7.265   6.363  0.0971  0.3124  0.0546
52971W        W95987  32.692   9.626   6.506  0.2992  0.1229  0.1610
52972W        W95988   7.262  16.164   6.276  0.2862 -0.1533 -0.2580
52973W        W95989  10.989  11.827  26.889 -0.1196 -0.4114 -0.1444
52974W        W95990  22.868   6.064  15.786 -0.0899 -0.2127  0.2096
52975W        W95991   2.547  32.418  15.832 -0.0652  0.3050  0.0922
52976W        W95992  30.036   9.400  26.825  0.0573 -0.3231  0.0952
52977W        W95993  22.235  11.654   2.371  0.0283 -0.0849 -0.1132
52978W        W95994   9.144  11.279   4.715  0.2000 -0.1831  0.0994
52979W        W95995  23.219  23.679   5.700 -0.0178  0.1468 -0.0351
52980W        W95996   7.352  20.534   7.267 -0.3197  0.0935  0.0265
52981W        W95997  23.058   8.994   9.146 -0.3699  0.1352 -0.2172
52982W        W95998   1.944   4.366   1.659  0.4789  0.0410 -0.2554
52983W        W95999  33.573   6.372   1.513 -0.1793  0.1218  0.0991
52984W        W96000  10.445  20.765  26.779  0.0626 -0.0281 -0.0196
52985W        W96001   0.288   5.445   8.414 -0.0109  0.0545 -0.1064
52986W        W96002  34.199  28.054   0.303 -0.1054 -0.2601 -0.1905
52987W        W96003   5.870  10.414   1.563 -0.0787  0.0040 -0.0635
52988W        W96004   4.840  11.403  23.467  0.2809 -0.0930 -0.2790
52989W        W96005   9.581  13.735   1.320  0.1764 -0.1708  0.1070
52990W        W96006  23.659   6.730   1.857 -0.3798 -0.2659  0.5382
52991W        W96007   2.530   9.720  28.358 -0.0662  0.0414  0.0051
52992W        W96008  25.467  13.452  17.374 -0.1819  0.0772  0.2339
52993W        W96009   9.910   1.995   2.376 -0.0486  0.2121 -0.1965
52994W        W96010  13.391  11.371   3.114 -0.2016 -0.3913  0.1188
52995W        W96011   5.347  11.865  24.934 -0.2371 -0.0472  0.0722
52996W        W96012   2.827  15.440  25.638 -0.0665 -0.1759  0.0301
52997W        W96013  22.909  15.983   0.846 -0.2885 -0.0617 -0.1263
52998W        W96014   8.289   8.851   3.558  0.0035 -0.0563  0.1711
52999W        W96015  23.870   8.640  21.158  0.1419  0.4474  0.2844
53000W        W96016  25.240   7.324   1.014  0.0034 -0.0727 -0.0728
53001W        W96017  32.798  13.660  16.675 -0.1625  0.1330  0.2351
53002W        W96018  27.224  11.836  28.029 -0.0416  0.0183 -0.1102
53003W        W96019  21.549   7.768   9.189  0.0309  0.0862 -0.0507
53004W        W96020   6.970  26.310   5.700  0.1996  0.3485  0.0364
53005W        W96021  31.538   9.953  15.736  0.2666  0.0869 -0.0634
53006W        W96022  13.752  29.968   7.275 -0.1818  0.2286  0.0207
53007W        W96023   2.528  22.458   3.232  0.1301  0.2190  0.1607
53008W        W96024  29.077  23.024   4.545 -0.2763  0.0799 -0.0142
53009W        W96025   9.113  11.918  21.109 -0.1880  0.0822 -0.0867
53010W        W96026  19.278  10.616  22.831 -0.2966 -0.0483 -0.1780
53011W        W96027   2.394  16.582   4.359 -0.1130  0.0455 -0.0655
53012W        W96028  22.579   5.052  10.201 -0.0513 -0.0065 -0.0948
53013W        W96029  23.726   3.395  26.919 -0.0425 -0.0890  0.1249
53014W        W96030  10.770  10.485   6.952 -0.2575 -0.1340  0.0305
53015W        W96031  16.228   8.222   5.583 -0.0960  0.2117 -0.2610
53016W        W96032  27.113   7.485   4.563 -0.1682  0.1251  0.0070
53017W        W96033  25.928  11.278  10.257 -0.4298 -0.4025  0.1816
53018W        W96034  30.640   4.770   3.072  0.2860  0.0808  0.0237
53019W        W96035   0.789   9.758   0.805  0.1584 -0.0488 -0.1135
53020W        W96036  18.569   1.960  26.925  0.2777  0.2110 -0.0796
53021W        W96037   4.716  11.726  26.185 -0.2390  0.0607 -0.2449
53022W        W96038  31.166  14.967   1.489 -0.1207  0.2497  0.1872
53023W        W96039  32.569  11.023   2.254  0.1658  0.0745 -0.1502
53024W        W96040  15.920  22.771  28.437  0.5082 -0.0982  0.2281
53025W        W96041  31.145  13.372   9.512 -0.0302 -0.2722 -0.1662
53026W        W96042  32.030   7.705   3.123  0.0093 -0.1898  0.0524
53027W        W96043  31.840  33.366   9.987  0.1083  0.0227  0.0183
53028W        W96044  18.229  13.729  21.004 -0.0606 -0.2298 -0.0792
53029W        W96045  19.751  14.749   6.730  0.1594  0.1884  0.0671
53030W        W96046  26.482   6.612   5.956  0.1043  0.0373 -0.1426
53031W        W96047   6.343  19.956   9.537 -0.0861  0.2611  0.1858
53032W        W96048  34.489  32.762   2.107  0.1241 -0.2488 -0.1174
53033W        W96049  14.068  10.596  16.992  0.0492  0.1389  0.2491
53034W        W96050  26.005  12.367   4.046  0.1089 -0.1048 -0.2790
53035W        W96051  18.265  19.546  26.470 -0.1423  0.0187 -0.2267
53036W        W96052  32.790   0.190  10.100 -0.0855  0.3736  0.3568
53037W        W96053  26.631   6.893   5.020 -0.0649 -0.1126  0.1620
53038W        W96054   0.491  18.585   6.609 -0.1874  0.2657 -0.2205
53039W        W96055  28.493   9.413   2.152 -0.0081  0.1764 -0.1470
53040W        W96056  30.801  34.307   8.872 -0.1349  0.0489 -0.1963
53041W        W96057   4.816  14.448  27.198  0.0969 -0.0400 -0.1043
53042W        W96058  26.799  33.171   3.467 -0.1122  0.0268 -0.0156
53043W        W96059  20.077  17.370   9.074  0.2576 -0.0244 -0.1303
53044W        W96060   8.817  21.417   1.932 -0.0488  0.0399 -0.0638
53045W        W96061   2.867  14.171  18.196 -0.0715  0.0898 -0.2337
53046W        W96062  32.908  24.471   7.289  0.0883 -0.0751 -0.0181
53047W        W96063   5.985   6.406  27.301  0.0372  0.1014 -0.1483
53048W        W96064  27.490  19.018   7.370  0.2426 -0.1614 -0.0812
53049W        W96065  32.047  30.542   8.377  0.0233 -0.2097 -0.1009
53050W        W96066  24.936   3.012   8.745 -0.0569 -0.1338 -0.0022
53051W        W96067   1.151  20.888  23.738 -0.2074  0.2497 -0.1449
53052W        W96068  32.960  18.640   5.092 -0.2704  0.2686  0.2374
53053W        W96069  10.174   8.742   6.682  0.0316 -0.3236 -0.0826
53054W        W96070   0.153  19.467  10.650 -0.2698 -0.0277 -0.0571
53055W        W96071  26.631  13.888  24.005  0.0309 -0.2297  0.1307
53056W        W96072   0.163   9.042  20.739  0.0108  0.0230  0.1271
53057W        W96073  33.660  15.285   4.884 -0.0456  0.0680  0.0777
53058W        W96074  19.409   8.465   3.900  0.3643  0.0436  0.2874
53059W        W96075  21.485   5.690  13.934 -0.0140 -0.0731  0.0872
53060W        W96076   1.094   6.540  25.743 -0.0888 -0.0637 -0.0153
53061W        W96077   6.702  14.170   3.952  0.2787 -0.1564  0.4817
53062W        W96078  20.082   8.915   1.867  0.2439 -0.1279 -0.0439
53063W        W96079   4.902  20.042   6.830  0.0847  0.0747 -0.0118
53064W        W96080   4.025  11.618   7.602 -0.0093  0.1262  0.0306
53065W        W96081   9.075  19.173   0.988  0.3855 -0.5051  0.3192
53066W        W96082  31.454  15.830   1.914 -0.0814 -0.3720  0.2239
53067W        W96083   3.642  24.406  25.158  0.2773  0.1791  0.1057
53068W        W96084  12.263  12.118  25.923 -0.1561 -0.2162  0.1283
53069W        W96085   6.780   2.531   5.690 -0.0422 -0.3656 -0.2794
53070W        W96086  21.756   8.240   0.977 -0.0245 -0.3065  0.1690
53071W        W96087  27.627  21.836   4.395 -0.1654  0.3177  0.0721
53072W        W96088  32.134   9.701   8.127  0.0119 -0.2523 -0.1383
53073W        W96089  25.737   4.982   1.745  0.2200 -0.2210  0.0900
53074W        W96090   5.466   1.458   7.998  0.1778  0.0562 -0.0384
53075W        W96091   7.792  15.818   4.963 -0.0670 -0.1375 -0.1593
53076W        W96092   4.148  23.410   5.022 -0.0499 -0.2324 -0.1090
53077W        W96093  26.861  14.959   5.654 -0.2573  0.0111  0.0277
53078W        W96094   5.647   2.652  20.714  0.0108  0.1740 -0.0727
53079W        W96095   1.853  31.330   5.589 -0.0733  0.0116  0.1161
53080W        W96096   9.444   6.574   1.280  0.4324  0.3951  0.2546
53081W        W96097   1.062  13.297   1.846 -0.5132  0.1480 -0.0474
53082W        W96098   8.593  11.255   4.529 -0.0126  0.3616 -0.1630
53083W        W96099  24.514  17.408  28.038 -0.0296  0.1609 -0.0158
53084W        W96100   2.552   2.751   3.533  0.0498  0.2045 -0.0896
53085W        W96101   8.145  20.377  28.706 -0.3102 -0.0981  0.1306
53086W        W96102  26.017  14.351   1.274  0.0520 -0.4301  0.0651
53087W        W96103  33.828  13.422   7.585 -0.2004 -0.3920  0.0673
53088W        W96104  34.144   4.497   8.632  0.0351 -0.1040  0.1792
53089W        W96105  21.986  27.379   2.868 -0.2499  0.0977 -0.0117
53090W        W96106  34.436  13.424   5.979  0.0109  0.0910 -0.0796
53091W        W96107  28.174  16.835   5.207 -0.0439  0.0121 -0.1053
53092W        W96108  33.222  33.600   0.543 -0.2942 -0.0276 -0.5331
53093W        W96109  18.094   2.822  19.971 -0.0816  0.0849 -0.0182
53094W        W96110  31.292   0.228   5.771  0.0733 -0.0245  0.2440
53095W        W96111  13.477  16.043  22.382 -0.0882 -0.0459 -0.0261
53096W        W96112   1.481   3.738   2.967  0.2002  0.1875 -0.0848
53097W        W96113   0.222  16.001  27.778 -0.0744 -0.1112 -0.0692
53098W        W96114   5.090  30.236  21.735  0.0627  0.0273 -0.0414
53099W        W96115  32.651  21.359   9.254  0.1588 -0.0724 -0.3274
53100W        W96116   5.736   8.171  20.775 -0.1273 -0.0275 -0.0774
53101W        W96117   6.827  11.506  21.134  0.2467 -0.0467 -0.1474
53102W        W96118   1.782  16.888  26.877  0.1061 -0.2084  0.4154
53103W        W96119  22.248  20.045  25.295 -0.0245 -0.3282 -0.3907
53104W        W96120   5.017  26.289   5.144  0.0062  0.3065 -0.0550
53105W        W96121  20.122   8.039   0.515 -0.0422  0.1779  0.1403
53106W        W96122   2.134  21.131   5.874 -0.2804 -0.1405 -0.0847
53107W        W96123  34.060  18.755  27.020  0.0515 -0.2760 -0.2225
53108W        W96124  28.929  12.265   0.016  0.0550 -0.2175  0.0574
53109W        W96125   0.424   4.635  10.962 -0.0848 -0.0879 -0.0789
53110W        W96126  29.182  18.148  28.757 -0.1750 -0.2957 -0.0868
53111W        W96127   1.388  33.530  24.243  0.3597 -0.0317  0.3576
53112W        W96128  25.993   9.983   2.251 -0.3107  0.0391 -0.3548
53113W        W96129   3.859  25.040   3.664 -0.2211 -0.1043 -0.0668
53114W        W96130   5.554  26.044  22.215  0.2422  0.0611  0.0938
53115W        W96131   5.089  17.530   0.673 -0.1943 -0.0220 -0.0172
53116W        W96132  29.215  18.726   3.564 -0.1138 -0.2758 -0.0747
53117W        W96133  13.370  10.016   2.828 -0.2876 -0.0781  0.1863
53118W        W96134   9.805  20.259  19.083 -0.1127 -0.0723  0.0206
53119W        W96135  23.452  11.340  15.593 -0.0223  0.0975  0.0109
53120W        W96136  21.261   3.664   3.417  0.0585  0.0947 -0.0541
53121W        W96137  30.496  10.946   9.743 -0.0619  0.0369 -0.1838
53122W        W96138  26.790  29.700  28.870 -0.0719 -0.1846  0.1937
53123W        W96139   6.347  32.252   7.552  0.2313 -0.0228 -0.0527
53124W        W96140  34.381  19.622  28.832  0.2659  0.0621  0.0825
53125W        W96141   9.212   0.172  20.036  0.0080 -0.0993  0.0422
53126W        W96142  28.561   3.884  25.765 -0.1592 -0.1259 -0.0952
53127W        W96143   9.789  34.611  26.734 -0.0981 -0.0232  0.0737
53128W        W96144  16.422   9.641  28.099 -0.2017 -0.1201 -0.0933
53129W        W96145  15.299   5.349   7.669  0.1286  0.1866 -0.0893
53130W        W96146   8.128  30.904  27.260  0.0684 -0.2467 -0.2690
53131W        W96147   7.478  17.415   4.957 -0.3372  0.1592  0.0712
53132W        W96148  23.972   6.404   3.286 -0.0702  0.2984  0.0812
53133W        W96149   5.307   5.817   9.158  0.1788  0.1438  0.4876
53134W        W96150  29.044  24.041  11.211 -0.0918 -0.0354 -0.0570
53135W        W96151  22.313   3.990   6.583 -0.1256 -0.2264 -0.0547
53136W        W96152  32.400  21.725  27.568  0.0262  0.1781 -0.0341
53137W        W96153  33.681  29.107   0.950  0.1063 -0.3787 -0.0827
53138W        W96154  30.913  22.564   5.641 -0.2532  0.1609  0.2028
53139W        W96155   4.676   4.747  27.170  0.0169  0.0846  0.0967
53140W        W96156   3.379   8.455   3.450  0.0046 -0.3107 -0.1579
53141W        W96157  29.335  11.657   1.200  0.3106 -0.0502  0.2388
53142W        W96158  31.046  21.500  26.180  0.4012 -0.1412  0.0163
53143W        W96159   0.335  12.064  10.760  0.1136  0.0360 -0.1803
53144W        W96160   0.848  18.377  26.991  0.0847  0.0597 -0.0996
53145W        W96161  33.569  19.453  21.886 -0.2184  0.0725 -0.2728
53146W        W96162   6.437  19.278  27.675 -0.1472 -0.2623 -0.0596
53147W        W96163   7.062  17.380  21.887 -0.0992 -0.1601 -0.1300
53148W        W96164   9.208  13.490   7.253 -0.1296 -0.1081 -0.4306
53149W        W96165   0.323   7.312  24.652 -0.1369 -0.1506 -0.4844
53150W        W96166   1.079  29.192   9.149 -0.2509 -0.0289 -0.0732
53151W        W96167  23.152   1.335   9.839  0.2655  0.2162  0.2196
53152W        W96168  32.841  17.231  15.847  0.0009  0.0191 -0.0069
53153W        W96169  29.080  13.088   6.156 -0.1607 -0.1576  0.0985
53154W        W96170  32.288  20.616  23.993  0.2253 -0.1824 -0.1915
53155W        W96171  34.045  15.707  28.278 -0.1468  0.0300  0.0823
53156W        W96172  28.117  15.865  23.869  0.0325 -0.1068  0.1621
53157W        W96173   2.383  27.898   0.645  0.2187 -0.0784 -0.0371
53158W        W96174  27.556  16.108   2.687 -0.0883 -0.0117 -0.4318
53159W        W96175  31.176  33.213   6.225  0.2439 -0.3816  0.2945
53160W        W96176  27.994  13.945  29.035 -0.1053 -0.1726 -0.1173
53161W        W96177  21.398  17.396  24.512 -0.1515  0.2859 -0.1129
53162W        W96178  19.665   6.883  17.457 -0.1474  0.1867  0.0204
53163W        W96179   0.177  15.124   4.633 -0.3078 -0.2773 -0.0586
53164W        W96180  27.976  14.859   1.812 -0.1559 -0.1229  0.1803
53165W        W96181  32.386  19.363   6.359 -0.0227  0.0005 -0.2551
53166W        W96182  33.470  15.707   1.874  0.1149 -0.2416  0.2311
53167W        W96183  22.847  13.269  25.181  0.0472 -0.2314 -0.0585
53168W        W96184   7.392  21.389   6.428 -0.0148  0.0733 -0.3588
53169W        W96185   4.584  17.037   2.004 -0.1770 -0.3257  0.0221
53170W        W96186  11.750   8.859   4.165  0.1896 -0.0668  0.3540
53171W        W96187   8.443   6.900   5.144 -0.2016  0.4246 -0.0379
53172W        W96188  31.089   8.158   7.087 -0.3475  0.0396  0.0556
53173W        W96189  29.044   1.737   3.123 -0.1046 -0.0355  0.0966
53174W        W96190  10.690  13.044  27.483 -0.0542 -0.2481  0.0368
53175W        W96191   3.879   9.861  22.290 -0.0303  0.3432  0.0074
53176W        W96192   5.828  10.442   0.661  0.0079  0.0273  0.0977
53177W        W96193  11.782   0.406   7.280 -0.2540  0.3270  0.2634
53178W        W96194  30.082  23.663   3.771 -0.2645 -0.0269  0.1110
53179W        W96195   3.380  23.233   6.276  0.0836 -0.1655 -0.0372
53180W        W96196  26.642  11.592   7.621 -0.2330 -0.1142  0.0308
53181W        W96197   5.023   4.178   4.819 -0.0696 -0.1586  0.1091
53182W        W96198  16.842  13.269   6.371 -0.1725 -0.0521  0.0660
53183W        W96199   9.596   8.264   1.185 -0.0964 -0.1090  0.0950
53184W        W96200  26.279  19.427   9.245 -0.0364 -0.3953  0.0077
53185W        W96201   0.485  22.989   4.969  0.1949  0.1181 -0.0806
53186W        W96202  15.042  33.419   2.423  0.1373  0.1962 -0.2981
53187W        W96203  34.457  14.113   3.680 -0.1310 -0.0910  0.2949
53188W        W96204  12.991   4.511  20.656 -0.1495 -0.0781 -0.1069
53189W        W96205   3.161  12.366   8.674  0.2332 -0.3171 -0.1311
53190W        W96206  32.056  19.068   3.305  0.1009  0.0073  0.1001
53191W        W96207   5.035  11.228  26.251  0.2306  0.1974 -0.0311
53192W        W96208  10.900   6.883  20.154  0.0335  0.0140  0.4251
53193W        W96209  33.981   4.737   1.149  0.0788 -0.0006  0.0142
53194W        W96210  26.755  14.925   8.259  0.1527 -0.1913  0.3391
53195W        W96211  11.142   7.250  28.941 -0.1372 -0.0531  0.2781
53196W        W96212  30.394  10.784  24.999 -0.0238 -0.1826 -0.0452
53197W        W96213  17.905   1.567  17.355  0.0088 -0.2493 -0.1392
53198W        W96214   0.371  16.067  23.603 -0.0621 -0.1485  0.0349
53199W        W96215   1.579  16.096   8.334  0.1917  0.0405 -0.0690
53200W        W96216  33.794  15.383  26.273  0.1293 -0.0171 -0.0978
53201W        W96217  29.369  19.974   5.695 -0.0080  0.0334 -0.1843
53202W        W96218  15.717   7.751   3.346  0.2603 -0.1707  0.0668
53203W        W96219  30.974  28.621  10.526  0.0190  0.3219  0.0290
53204W        W96220   4.384  28.699   6.963 -0.0519  0.1152 -0.2992
53205W        W96221  34.333  25.072   7.070 -0.0077 -0.0785  0.1281
53206W        W96222   7.186  22.927   7.108 -0.0610  0.0249  0.1031
53207W        W96223  12.705  29.550   1.949  0.0021 -0.0304 -0.1460
53208W        W96224  31.667  12.206   1.054  0.1002  0.0405  0.1762
53209W        W96225  29.283  34.668   4.695  0.1469 -0.2543 -0.2440
53210W        W96226  28.014   5.107   7.284  0.0756  0.3008  0.0636
53211W        W96227  18.605  14.428   5.220 -0.0539  0.2314 -0.2784
53212W        W96228  18.664   8.727   7.432 -0.2697 -0.1137 -0.2155
53213W        W96229  23.893   6.421   0.171  0.0423  0.0755 -0.0667
53214W        W96230   7.390  32.279   7.300  0.1329 -0.1324 -0.1625
53215W        W96231  17.061  23.646  24.885  0.1419 -0.1936 -0.0416
53216W        W96232  22.611  14.131   3.832  0.2757 -0.0104  0.2069
53217W        W96233   4.425   3.697  27.857  0.0500 -0.1729 -0.1395
53218W        W96234  11.201   9.704   9.413 -0.1668  0.2127 -0.1467
53219W        W96235  20.923  16.252   6.403 -0.0842  0.0287 -0.1706
53220W        W96236  25.468  14.469   7.842  0.1770 -0.2710 -0.2446
53221W        W96237  31.139   7.741   8.913 -0.2668  0.0053  0.2647
53222W        W96238   1.251   6.769  25.034 -0.0833 -0.2535 -0.1578
53223W        W96239   2.012  14.988  25.825  0.0922 -0.3349  0.1726
53224W        W96240   7.770  30.118  28.059  0.0058  0.1083 -0.0695
53225W        W96241   0.509  21.315   2.050 -0.2169 -0.0178  0.0546
53226W        W96242  11.414   2.778   3.829 -0.1724  0.3735 -0.1090
53227W        W96243   2.023   8.804   5.047  0.2355 -0.1127  0.3583
53228W        W96244  13.184  17.788  25.528  0.0615  0.1131  0.0084
53229W        W96245  13.628   4.911  26.450  0.1683 -0.0859 -0.1567
53230W        W96246  31.571   5.874   7.884  0.0955 -0.0058  0.0354
53231W        W96247   6.179   4.757  28.494  0.5862  0.1668 -0.0437
53232W        W96248  30.914   3.237   7.857 -0.3263  0.2213 -0.2381
53233W        W96249  34.738  12.000   8.068 -0.0095  0.1958 -0.1263
53234W        W96250  10.732  18.421  28.805 -0.2600  0.0474 -0.3210
53235W        W96251  18.927  18.064  22.530 -0.1013 -0.1341 -0.2230
53236W        W96252   2.242  21.506   5.434 -0.1003  0.0411 -0.1757
53237W        W96253  16.825  17.335   8.461 -0.0580  0.0362  0.1793
53238W        W96254   5.072  12.114   2.833  0.1074  0.1669 -0.1362
53239W        W96255   1.967   1.955  26.840 -0.0189  0.1060 -0.1138
53240W        W96256  29.527   0.192   9.921  0.2122  0.0951 -0.0308
53241W        W96257  18.800   4.578  23.535 -0.5614 -0.2302 -0.1192
53242W        W96258  25.008  12.167  19.187  0.0823  0.3378 -0.1323
53243W        W96259   3.197  18.517   3.189 -0.0019  0.0996 -0.0062
53244W        W96260   7.080  25.940  24.234 -0.1206 -0.2129 -0.3111
53245W        W96261   2.388  12.107  10.996  0.0505 -0.0533  0.1813
53246W        W96262  30.215  19.900   7.438 -0.4009 -0.1765  0.0666
53247W        W96263  30.709  20.315  23.828  0.3553  0.2208  0.3496
53248W        W96264  30.381   8.717   1.534  0.0019  0.0573 -0.0116
53249W        W96265  34.196  22.880  29.007 -0.1652 -0.1078  0.0971
53250W        W96266  32.319  10.684   2.553  0.1243  0.3085  0.2788
53251W        W96267  18.832   4.087   6.662 -0.1504 -0.3086 -0.1633
53252W        W96268   1.571   5.896  29.279 -0.0434  0.1520  0.2261
53253W        W96269  19.830  15.889   3.321  0.0052 -0.2409  0.0768
53254W        W96270   6.971  15.997   5.350 -0.2355 -0.0070  0.0757
53255W        W96271  22.651  13.089   0.431  0.0709 -0.0973  0.0817
53256W        W96272  23.168   8.890   7.746  0.0321  0.1831 -0.0970
53257W        W96273  26.023  14.263  25.746 -0.0741  0.4598  0.0351
53258W        W96274   8.552  16.468  23.342  0.0470 -0.2735  0.3029
53259W        W96275  26.383   4.300   4.370 -0.0654  0.2435  0.0332
53260W        W96276  29.744  26.014  11.397 -0.0915  0.0463  0.1561
53261W        W96277   5.829   5.089   8.555 -0.0470  0.1359 -0.1122
53262W        W96278  32.881  28.203   5.227  0.1422  0.1008 -0.1099
53263W        W96279  25.917  12.910  20.180  0.0777  0.0457 -0.0209
53264W        W96280  25.403  21.235  29.309 -0.0364  0.1130 -0.1176
53265W        W96281  25.642   6.913   4.497  0.1215 -0.0675  0.0393
53266W        W96282   4.460  15.603   7.085 -0.2386 -0.1138  0.1824
53267W        W96283  10.849  12.391   1.489  0.0632  0.0647  0.0152
53268W        W96284  31.601  18.058  28.195 -0.0209 -0.0432 -0.4317
53269W        W96285  16.193  19.552  26.634 -0.3516 -0.4201 -0.1090
53270W        W96286  34.429  25.557   0.953  0.0166  0.1129 -0.1019
53271W        W96287   4.140  15.972   2.303 -0.3182  0.0522 -0.4659
53272W        W96288  33.816  16.179   7.681  0.2802  0.0551  0.1161
53273W        W96289   1.753  17.859  28.026  0.3119 -0.1859 -0.0050
53274W        W96290   6.167   0.101   9.049 -0.0094 -0.1019 -0.1989
53275W        W96291   1.467   8.270  10.071 -0.3102  0.0334 -0.2404
53276W        W96292  32.066  16.226   9.018  0.4200 -0.0832 -0.0381
53277W        W96293   6.476   4.545   7.541  0.2913 -0.3321 -0.4359
53278W        W96294   0.620  30.985   2.528  0.1736 -0.0391  0.0885
53279W        W96295  30.012  33.434   6.851 -0.1569 -0.1114  0.2068
53280W        W96296  27.842   6.173   6.785 -0.2740 -0.1358 -0.1328
53281W        W96297  14.319  12.039  24.862  0.0207 -0.1141  0.0497
53282W        W96298   2.545  12.715  27.672  0.2983  0.1292  0.3479
53283W        W96299   3.456  12.276   9.524  0.1499  0.0136 -0.0238
53284W        W96300  11.323  13.915   7.893  0.2136  0.0638 -0.1026
53285W        W96301  26.313   8.800  28.947  0.1113  0.3387  0.0168
53286W        W96302   1.246  14.813  19.724  0.1720 -0.0955  0.0952
53287W        W96303   3.452   0.818  18.561  0.1203 -0.1308  0.0036
53288W        W96304   0.153  22.740   0.511 -0.2024  0.1783 -0.1291
53289W        W96305  28.173   5.356   5.064  0.0545 -0.1646  0.3208
53290W        W96306  34.363  18.978  26.659  0.0828  0.2073 -0.2542
53291W        W96307  20.167  14.486  29.117 -0.0244 -0.1704  0.1849
53292W        W96308  14.487  14.885  25.088  0.2870 -0.1022 -0.3266
53293W        W96309  33.986  27.340   5.102 -0.2129  0.0313 -0.1093
53294W        W96310  13.341   3.879   1.688 -0.0088  0.1610 -0.1425
53295W        W96311   5.128  15.384  18.201  0.0491  0.2110 -0.0651
53296W        W96312   5.494   1.481  21.276  0.0205  0.1339 -0.0619
53297W        W96313  10.656   7.329  27.549  0.0511  0.1680  0.0286
53298W        W96314  28.911  25.829  11.577  0.0027 -0.1734  0.0822
53299W        W96315   9.392  16.289   6.763  0.3678  0.0553  0.3801
53300W        W96316  33.294   3.788   4.532 -0.1767 -0.1520 -0.1605
53301W        W96317  28.379   8.735   5.546  0.2873  0.0126  0.0506
53302W        W96318  10.286  11.014   8.349  0.4141  0.1088 -0.2237
53303W        W96319   3.738  13.583  25.086  0.3259 -0.2516  0.3982
53304W        W96320  17.425   0.387  21.518  0.1342 -0.4259  0.0055
53305W        W96321   0.784  17.639   2.677 -0.1215 -0.3526 -0.2660
53306W        W96322   8.319   5.414   5.524  0.1752  0.4639  0.3972
53307W        W96323  13.874  26.566   1.815 -0.3515 -0.1208  0.0242
53308W        W96324   0.436   0.992   0.708 -0.0920  0.1331 -0.0982
53309W        W96325   0.449   9.793  17.800  0.1007  0.0841 -0.1991
53310W        W96326  19.660  13.355   2.477  0.4926  0.0751 -0.1615
53311W        W96327  10.760  13.404   2.251 -0.0088 -0.0986  0.1385
53312W        W96328  13.449   9.612   8.841 -0.0976  0.3109  0.2092
53313W        W96329  20.202  13.364  24.009 -0.3768  0.1349  0.0429
53314W        W96330  13.820  18.794   7.638  0.1235  0.0916  0.3320
53315W        W96331  32.916  13.965   3.658  0.1295  0.0105  0.1607
53316W        W96332  30.454  11.260  26.721 -0.1498  0.1920  0.2759
53317W        W96333  11.133   7.150   5.006  0.0239 -0.1228 -0.1943
53318W        W96334   3.022  31.594   7.502  0.0807 -0.2224  0.1558
53319W        W96335   6.362   3.910   4.515 -0.2951 -0.1497 -0.3462
53320W        W96336   0.196   5.674   5.153 -0.2154 -0.1743  0.0805
53321W        W96337  19.685  10.859  28.334 -0.0430 -0.0963  0.1611
53322W        W96338  15.158  33.006   2.071 -0.0010  0.1722 -0.0462
53323W        W96339  29.166   7.266  27.442  0.4725 -0.0654 -0.3199
53324W        W96340   5.487   7.064  22.991  0.3517 -0.0141  0.0139
53325W        W96341  30.290  24.357   7.501 -0.0934 -0.0333  0.0176
53326W        W96342  18.074  24.749   8.989  0.0827  0.0449 -0.0936
53327W        W96343   8.007  21.851   1.081 -0.0786  0.1792  0.1213
53328W        W96344   1.707  10.036   8.034 -0.0209 -0.0624  0.0860
53329W        W96345  14.219  14.903  23.847 -0.0726 -0.2791 -0.4762
53330W        W96346  27.589  23.992   7.319  0.0978  0.0734 -0.0685
53331W        W96347   5.626  15.638  23.686  0.0284 -0.3852 -0.0421
53332W        W96348   4.210   4.139   7.671  0.4646 -0.0846 -0.0020
53333W        W96349  13.895  10.952   4.985 -0.1706 -0.2813 -0.0457
53334W        W96350  28.661  22.403  28.612  0.0707 -0.0175  0.3030
53335W        W96351   6.663  14.257   4.443  0.1887 -0.0495  0.0285
53336W        W96352   1.446  22.933   0.367  0.1606 -0.1900 -0.3388
53337W        W96353  33.601   5.994  26.386  0.1646 -0.0713  0.0604
53338W        W96354  31.342  34.650   1.301  0.2920  0.3328 -0.1807
53339W        W96355   4.746  23.706  28.195 -0.3449  0.2096  0.3712
53340W        W96356  24.259   8.384  28.241  0.2292  0.1277 -0.1681
53341W        W96357  33.287  30.451  27.116 -0.1604 -0.0079  0.1558
53342W        W96358  34.103  19.613   9.385  0.3041  0.3490  0.0043
53343W        W96359  23.739  10.839   8.561 -0.0620 -0.3809  0.2622
53344W        W96360   5.540   1.226   0.354  0.1387 -0.2257  0.0754
53345W        W96361   9.155  19.187   7.276  0.1931  0.1499  0.0709
53346W        W96362   9.656  16.759  14.304 -0.1020 -0.1723 -0.4522
53347W        W96363  22.751  13.063  27.635 -0.2378  0.2526 -0.0299
53348W        W96364   7.105   2.555   0.339 -0.0158  0.1464  0.0887
53349W        W96365  16.939  11.161   5.939  0.1484  0.2065  0.0099
53350W        W96366  23.831  12.591  26.987  0.1340  0.1049 -0.1401
53351W        W96367   4.199  15.119  24.490 -0.4305 -0.1347  0.1568
53352W        W96368   0.906  26.324   6.326  0.0101 -0.2740 -0.2027
53353W        W96369  31.666  17.338  24.397  0.2419 -0.1265 -0.1538
53354W        W96370   6.971  15.984   3.764 -0.0573 -0.4589 -0.3918
53355W        W96371  25.073  17.763  22.625 -0.0428 -0.1139  0.1834
53356W        W96372   4.458  21.031  23.267 -0.0081 -0.0770  0.2520
53357W        W96373  32.122  28.871   7.674  0.4725 -0.2049  0.1007
53358W        W96374  21.132  18.334  27.693  0.4301  0.1956 -0.1197
53359W        W96375  12.225  14.688   6.200 -0.4737 -0.0137  0.2742
53360W        W96376  31.034  13.186   1.529 -0.0292 -0.1577  0.3072
53361W        W96377  30.126   7.693   0.654  0.1320  0.0708 -0.0320
53362W        W96378  33.077  25.029   3.078 -0.0172  0.2014  0.2630
53363W        W96379  13.018  28.057   4.608  0.1688  0.0188 -0.0982
53364W        W96380  27.052  18.290  28.834  0.1349 -0.0337  0.1228
53365W        W96381   1.411  11.155  15.018 -0.1173 -0.1501  0.0226
53366W        W96382  18.227  22.999  16.062  0.1052 -0.0932 -0.0398
53367W        W96383   8.239  11.199   9.684  0.1574  0.2529 -0.1791
53368W        W96384  27.852  22.111  24.994 -0.1251 -0.1874 -0.1212
53369W        W96385   6.843  25.651  15.810  0.1093  0.1258 -0.1409
53370W        W96386  11.282   5.758  27.552 -0.0563 -0.8227  0.0041
53371W        W96387  15.508  12.688  26.888 -0.3202 -0.0765  0.0758
53372W        W96388  28.310  18.181   3.600 -0.0330 -0.0420  0.1526
53373W        W96389  34.683  20.830   2.684 -0.0935 -0.0741  0.2427
53374W        W96390  32.551  20.351   1.480 -0.2215 -0.2520  0.0685
53375W        W96391   6.321  21.345  18.680 -0.3179  0.2740  0.2197
53376W        W96392  28.979  29.064  10.972 -0.1018 -0.2183  0.2087
53377W        W96393  32.681  18.447   4.639 -0.0385  0.0156 -0.3722
53378W        W96394  32.637  26.788  19.551  0.1534  0.0250  0.1948
53379W        W96395  23.877  27.411   6.590 -0.1923 -0.0340  0.3697
53380W        W96396   4.131   3.193   1.644 -0.0761 -0.0349  0.4000
53381W        W96397   5.859  18.951  19.983  0.2305  0.0190  0.3031
53382W        W96398   1.129  31.275  22.237 -0.0185 -0.1490 -0.0526
53383W        W96399  15.881  33.832   0.107 -0.0789 -0.1573 -0.0271
53384W        W96400  29.085  15.625   9.877 -0.0729  0.2458 -0.4743
53385W        W96401  21.488  11.778  19.840  0.1638 -0.0119 -0.0970
53386W        W96402  32.003  27.118   4.699  0.3285 -0.0410  0.1494
53387W        W96403   3.680  12.613   2.472  0.1055 -0.0899 -0.0862
53388W        W96404   3.169  22.719   5.587 -0.2528 -0.1713 -0.1353
53389W        W96405  34.666  18.410  22.788 -0.0826 -0.2819 -0.1539
53390W        W96406   9.999  25.460  16.271 -0.0493  0.3740  0.1109
53391W        W96407  32.574   7.254  24.207  0.0809 -0.1307  0.3390
53392W        W96408  34.761  14.523  27.626  0.4041  0.0193  0.2609
53393W        W96409   0.290  20.241   6.106  0.0276  0.0301 -0.0109
53394W        W96410  24.384  15.366  23.694 -0.0593  0.2345  0.0893
53395W        W96411  31.968  15.777   4.060 -0.2506 -0.1931 -0.0980
53396W        W96412  25.800  17.670  28.537  0.2179 -0.3941 -0.2136
53397W        W96413   0.333   9.776  23.132  0.0128 -0.2174 -0.3892
53398W        W96414  10.062  20.574  17.967  0.1205  0.0635  0.2756
53399W        W96415   2.560  14.961  25.809  0.0161  0.2970  0.0864
53400W        W96416  22.441   3.067  26.845 -0.1452 -0.0942  0.0003
53401W        W96417  22.667  31.188  20.703  0.1101  0.1375  0.3245
53402W        W96418  27.548  18.550   7.158  0.0123 -0.0523 -0.0429
53403W        W96419   4.993  17.416  18.719  0.2079 -0.1280 -0.2438
53404W        W96420   8.286   3.214  19.519 -0.2162  0.0285 -0.0637
53405W        W96421   4.106  11.023   9.465 -0.0642 -0.0588  0.3087
53406W        W96422   0.405  11.063  17.476  0.3098  0.0782  0.0175
53407W        W96423   7.460  21.721  24.261 -0.2686 -0.0316 -0.1981
53408W        W96424   4.937  12.418  19.691 -0.0876  0.0702 -0.1676
53409W        W96425  32.156  11.555  22.190  0.2699  0.1277 -0.1475
53410W        W96426  11.720  14.253  24.036 -0.1943  0.1845  0.0769
53411W        W96427   0.041  22.273   4.006 -0.2294  0.0600  0.3308
53412W        W96428  32.095  19.529   7.743 -0.1566 -0.1992 -0.0995
53413W        W96429  10.097  24.000   4.528  0.1885 -0.0415 -0.3408
53414W        W96430  16.033  12.719   4.801 -0.1021  0.0500  0.2482
53415W        W96431  32.645  10.623   9.056 -0.1141 -0.2099 -0.1831
53416W        W96432  33.384  31.940   1.946 -0.1175  0.0502  0.0739
53417W        W96433   5.210   6.751   9.353 -0.2629  0.1757  0.1074
53418W        W96434  27.426  18.246   1.500 -0.1316 -0.1191 -0.0649
53419W        W96435  28.887   7.362  24.961  0.1264 -0.1472  0.0441
53420W        W96436   5.909  24.777  15.250 -0.1036  0.0824 -0.0032
53421W        W96437  32.920  24.442   5.905 -0.2650 -0.1690  0.1339
53422W        W96438  15.682  14.516   1.066  0.1803 -0.0790 -0.0147
53423W        W96439   3.768  22.351  10.131 -0.0327 -0.1461  0.0339
53424W        W96440  30.533  22.166  22.649  0.1553  0.2781  0.0939
53425W        W96441   2.881  13.467  24.269  0.0081  0.0427  0.1403
53426W        W96442   1.276  21.065  28.773 -0.1048  0.1048 -0.1321
53427W        W96443  17.710  27.696  20.599  0.0245 -0.1329 -0.2579
53428W        W96444  12.632   5.157  16.215 -0.2534 -0.1779  0.0004
53429W        W96445   1.657  28.174   5.732 -0.0080  0.3468  0.0224
53430W        W96446  27.442  33.605  20.911  0.2946 -0.2813  0.2099
53431W        W96447  33.485  22.228   4.535 -0.0342 -0.4513  0.0543
53432W        W96448   2.469  25.932  28.525 -0.3654  0.0207  0.0473
53433W        W96449  30.285  11.038   4.328  0.3194 -0.0800  0.1004
53434W        W96450  30.924  24.345  26.279 -0.0966  0.0403  0.1576
53435W        W96451   3.727  23.336  24.671 -0.1458 -0.0056 -0.2467
53436W        W96452  32.999   2.004   7.467  0.0189 -0.3394  0.0293
53437W        W96453  25.515  20.884  10.083 -0.0417 -0.1196 -0.0779
53438W        W96454  32.083  21.555   2.406 -0.1050  0.0196  0.2752
53439W        W96455  24.850  13.378   0.143  0.2315  0.2491  0.0971
53440W        W96456  33.183   5.985   3.393 -0.0422 -0.0548  0.4725
53441W        W96457   1.104   7.257  27.675  0.0571  0.1750 -0.1029
53442W        W96458  21.689  12.606  26.594  0.1450 -0.0614 -0.0994
53443W        W96459   4.736  16.339  28.786 -0.1824 -0.1361  0.0015
53444W        W96460   5.431   4.061   6.501  0.0540  0.1908 -0.1869
53445W        W96461   2.543  14.458  20.281  0.2239  0.2167  0.0701
53446W        W96462  34.751   2.350  17.409 -0.0484  0.1000 -0.0354
53447W        W96463   8.602  16.476  26.032  0.1839 -0.0497  0.0398
53448W        W96464   4.369  25.299   9.502 -0.0108 -0.3012 -0.1488
53449W        W96465   4.068  23.238  19.396 -0.2771  0.1583 -0.2015
53450W        W96466  26.464  14.441  29.251 -0.0431 -0.6203  0.0249
53451W        W96467   6.031   8.638  10.299  0.2544  0.0997  0.0643
53452W        W96468  19.651   9.956   7.965 -0.0063  0.0261  0.1246
53453W        W96469  33.628   5.637   0.864  0.2314  0.0599  0.1584
53454W        W96470   9.066  21.980  25.230  0.0013  0.0888  0.0174
53455W        W96471  32.850   6.554  16.528  0.0814 -0.0217 -0.0477
53456W        W96472  24.533  12.988   0.214  0.4056  0.4637 -0.1066
53457W        W96473  23.251  25.478  28.389 -0.2482  0.2534  0.1469
53458W        W96474  11.573   4.979  27.590 -0.1092  0.1627 -0.2056
53459W        W96475  34.023   9.556   6.181  0.0447  0.1362  0.0882
53460W        W96476   6.106  19.027   0.929 -0.1187  0.2223  0.1501
53461W        W96477   6.742   4.841  19.685  0.0969  0.0986 -0.3591
53462W        W96478  22.272   5.342  10.554 -0.1222  0.3157 -0.1297
53463W        W96479   4.171  16.367  17.068 -0.0761 -0.2981  0.1620
53464W        W96480  24.364  23.828   7.473 -0.1586  0.2086 -0.0192
53465W        W96481  25.362  13.395  26.145  0.1378 -0.2719  0.0772
53466W        W96482   0.385  15.007   2.316  0.0071  0.2144  0.0868
53467W        W96483   0.122  11.980  20.063  0.0428 -0.2522 -0.0586
53468W        W96484   0.391   9.955  19.741  0.2027  0.3057 -0.2953
53469W        W96485   5.516  10.728   5.306  0.0577  0.0119  0.0277
53470W        W96486  27.735  14.224  25.539  0.2810  0.0347  0.1349
53471W        W96487  15.126   0.282  26.229  0.1294  0.1094 -0.1235
53472W        W96488  10.646  19.251  27.927 -0.2939  0.1339  0.2126
53473W        W96489  28.635  24.885   5.316 -0.0075 -0.0729  0.1939
53474W        W96490   6.506   5.954   3.479  0.1021  0.0198  0.0805
53475W        W96491  29.899  12.123  17.209  0.0861 -0.1188 -0.2977
53476W        W96492   8.631   9.601  18.561  0.1868 -0.0704  0.1409
53477W        W96493   4.940   9.254  18.788 -0.0429  0.3309  0.2329
53478W        W96494   6.082   1.956  25.646 -0.0790  0.1797  0.2550
53479W        W96495  21.207  28.293   9.931  0.0937  0.0841  0.1257
53480W        W96496   0.765  12.161   0.163  0.0870  0.4262  0.0903
53481W        W96497  23.300   2.209  23.685 -0.1201  0.0199 -0.2678
53482W        W96498  30.403  29.830   0.288 -0.2411 -0.0027 -0.3441
53483W        W96499  10.166  16.146  29.221  0.1707  0.0654  0.1788
53484W        W96500  13.035  21.054  21.568  0.0016  0.1124  0.0135
53485W        W96501  28.005  26.895  28.660 -0.0884 -0.2238  0.2150
53486W        W96502  31.487  17.217   6.520 -0.0240 -0.4228  0.2186
53487W        W96503  15.269   6.352   9.182  0.1232  0.1552 -0.1247
53488W        W96504  13.690  14.764  24.112  0.1983 -0.0542 -0.1911
53489W        W96505   9.341  24.399   6.471 -0.0723 -0.0668  0.1965
53490W        W96506  29.924  21.594  22.145  0.0667 -0.2361  0.1390
53491W        W96507   5.126  19.446  27.847  0.0090 -0.1091  0.0843
53492W        W96508   5.658  24.817  22.839 -0.4956 -0.2939  0.1748
53493W        W96509  30.353  28.265  28.127 -0.1640  0.2925  0.2110
53494W        W96510  11.426  26.456  23.216  0.0141 -0.0536 -0.0997
53495W        W96511  26.587   9.879  28.620  0.1205  0.0928 -0.0501
53496W        W96512   1.601  13.832   1.794 -0.0166 -0.1183 -0.2372
53497W        W96513  16.313   8.502   1.508 -0.2528 -0.0970 -0.3604
53498W        W96514   4.779  31.177  27.730 -0.1388 -0.2976 -0.3886
53499W        W96515  30.491  14.329   0.356 -0.0231  0.2803 -0.2949
53500W        W96516  12.784   7.974   7.036  0.4279 -0.0476  0.0357
53501W        W96517  29.296  22.292  19.683 -0.0964  0.0731 -0.0947
53502W        W96518  24.456   5.476  25.418 -0.0401  0.2647  0.0958
53503W        W96519   0.961  20.500   6.646 -0.0976  0.1661  0.1501
53504W        W96520  11.389  11.828   5.522 -0.2173  0.1960  0.0922
53505W        W96521  29.975  11.083  29.003 -0.0311  0.1213  0.2074
53506W        W96522  24.507  23.923   5.748  0.0083 -0.0512  0.1205
53507W        W96523  33.471  23.427   8.183 -0.1068 -0.2169 -0.2764
53508W        W96524  32.301   9.162   2.285  0.1882 -0.0082  0.1384
53509W        W96525   6.664  10.793   5.820 -0.2967  0.1207  0.4222
53510W        W96526  31.682   8.700   2.757  0.0733  0.1392  0.0185
53511W        W96527  12.845   4.428  18.118 -0.0319 -0.0016 -0.0738
53512W        W96528  33.853  23.793  23.633 -0.1797  0.1319 -0.1616
53513W        W96529   1.667  18.315   5.375 -0.0781  0.0641  0.0111
53514W        W96530   7.249  18.553  26.400  0.0717  0.2287  0.1504
53515W        W96531  27.447  15.173  22.153 -0.1300  0.0823 -0.0367
53516W        W96532  24.736  17.210  19.893 -0.0718  0.0819  0.5041
53517W        W96533  30.619  24.824   5.006  0.0273  0.0918  0.3976
53518W        W96534  32.672  27.223  24.164 -0.0613 -0.1610  0.0619
53519W        W96535   9.967  31.854   1.233  0.2529  0.2511 -0.1021
53520W        W96536  28.600  34.054   0.015 -0.0513 -0.1117  0.1229
53521W        W96537   8.687   4.704  22.702  0.2679 -0.0316  0.1150
53522W        W96538  10.418  28.759   4.227  0.1136  0.2693  0.0563
53523W        W96539  27.556  24.850  27.505 -0.3263 -0.1500 -0.0930
53524W        W96540  18.024  14.680  14.314 -0.0731 -0.0854  0.2590
53525W        W96541  12.424  13.662  18.555  0.3675  0.2909  0.1438
53526W        W96542  21.204  13.795  26.347  0.0453  0.1418  0.2348
53527W        W96543  33.010  11.818  28.185 -0.1004  0.0139  0.1876
53528W        W96544  29.788  11.945  26.238 -0.2041  0.2115  0.0495
53529W        W96545   4.501   6.004   0.276 -0.3464  0.1947 -0.0147
53530W        W96546  26.951  15.175  27.620 -0.1532 -0.0252 -0.0286
53531W        W96547  33.449  25.411   5.179 -0.0439  0.2064  0.0555
53532W        W96548   4.842   8.357  19.762  0.0955  0.1816 -0.1941
53533W        W96549  31.437  14.220  24.641  0.2761  0.1272  0.2840
53534W        W96550  11.084  20.347   2.726  0.2678  0.0360  0.0214
53535W        W96551   2.595  13.966   1.047  0.0948  0.4070 -0.2141
53536W        W96552  28.120  22.178  23.580 -0.2821  0.0513  0.0887
53537W        W96553  18.427   9.913   3.680  0.1220  0.3421 -0.0916
53538W        W96554   8.220  19.406  16.451 -0.1228  0.3912 -0.0901
53539W        W96555  30.874  25.919   8.581 -0.1250  0.2065  0.2191
53540W        W96556  30.111   0.030   0.789 -0.1227 -0.3572  0.1039
53541W        W96557  20.034  14.412   5.325  0.0662 -0.1353 -0.1942
53542W        W96558  32.397  32.785  22.868 -0.2151 -0.1462  0.1891
53543W        W96559  21.988   6.524   4.699 -0.1833  0.1027  0.2694
53544W        W96560  34.031  13.734   3.982 -0.0764 -0.0656  0.0800
53545W        W96561  22.154  30.816  15.774  0.0120  0.3452  0.2545
53546W        W96562  24.782   0.377   6.258 -0.1624  0.1759  0.1249
53547W        W96563  34.204   8.630  17.096 -0.1227  0.3910 -0.1931
53548W        W96564   0.630  15.515   9.193  0.1835 -0.0963  0.2723
53549W        W96565  26.216  10.883  22.172 -0.0053  0.0990 -0.1432
53550W        W96566  27.274   9.155   0.818  0.3648 -0.0099  0.3759
53551W        W96567  31.434  26.230   7.910  0.0308  0.2461 -0.1551
53552W        W96568   1.494   7.791  13.311  0.1155 -0.2824 -0.1517
53553W        W96569   3.435   8.947   1.081  0.0610 -0.0108 -0.1889
53554W        W96570   5.637  23.374   4.684 -0.0024 -0.3060 -0.1641
53555W        W96571   5.335  29.046  25.255 -0.1981  0.0770  0.1180
53556W        W96572   9.506  17.275  12.968  0.1397 -0.1049  0.0842
53557W        W96573  18.304  14.990  21.668 -0.0184 -0.0800  0.2662
53558W        W96574   2.477  10.202  17.159 -0.1611 -0.1365 -0.1080
53559W        W96575   5.715  28.156  19.436 -0.1900 -0.3015 -0.2059
53560W        W96576   9.526  17.738   9.793  0.0081 -0.3706  0.0142
53561W        W96577  23.325   8.677  21.058  0.0702  0.0655  0.1382
53562W        W96578  14.209  20.766   1.370  0.2034  0.0843 -0.2124
53563W        W96579  17.518  17.050   7.227  0.2391 -0.0130  0.3526
53564W        W96580  25.783  10.161  25.653  0.0625  0.1109  0.3200
53565W        W96581  28.210   5.961  10.377  0.0677  0.3289 -0.2020
53566W        W96582  29.201  12.101  10.284 -0.0495  0.0866 -0.1325
53567W        W96583  26.665  11.764   0.066  0.0926  0.2377 -0.3505
53568W        W96584  29.862  27.642   5.851 -0.0705 -0.2657  0.0228
53569W        W96585  23.457  26.092   3.424  0.0113  0.0149 -0.2252
53570W        W96586  27.071   1.302   7.828 -0.0976 -0.2892 -0.0619
53571W        W96587   6.623   9.369  27.435  0.1196  0.3525 -0.3020
53572W        W96588  26.582  12.889  24.082  0.1245  0.2637 -0.2763
53573W        W96589  21.211   9.038  19.921 -0.0208  0.1818  0.1517
53574W        W96590  31.794  24.518  27.580 -0.1646 -0.1102 -0.0374
53575W        W96591  32.522  11.119  21.342 -0.2754 -0.2700 -0.2139
53576W        W96592   7.736  15.573   0.200  0.0177 -0.0496 -0.1385
53577W        W96593  26.094  32.532   5.032 -0.1002 -0.2169  0.1536
53578W        W96594   4.564  16.594  17.373  0.1615 -0.1342  0.2053
53579W        W96595  17.525   9.864   3.037  0.1216 -0.0970 -0.4285
53580W        W96596   7.181   7.027   4.435  0.0695 -0.1990  0.0921
53581W        W96597   4.351  14.285  28.038 -0.1753 -0.0721  0.1700
53582W        W96598  10.854  26.130  25.167  0.4152 -0.1860  0.1430
53583W        W96599  27.394   8.750  11.052 -0.0547  0.1712  0.0842
53584W        W96600  32.891  21.818  10.375 -0.3667 -0.2434 -0.1853
53585W        W96601  28.978  14.574   7.452  0.0931  0.0830  0.0893
53586W        W96602  29.130  25.029   4.324  0.2255 -0.1488  0.3581
53587W        W96603  21.310  21.260   4.502 -0.1437  0.0386 -0.0749
53588W        W96604   7.174  18.706   6.397  0.2214 -0.1689  0.2088
53589W        W96605  20.634   4.151   2.510 -0.2606 -0.2080 -0.0079
53590W        W96606   1.365   6.055   3.931  0.3814 -0.0379  0.2285
53591W        W96607  29.758  21.167  16.345  0.0748  0.0517 -0.0885
53592W        W96608  31.717  14.863  24.168  0.1050 -0.1769 -0.2553
53593W        W96609  21.602  18.335  21.273  0.2135 -0.0725 -0.2218
53594W        W96610  23.529   5.457   0.371 -0.4309 -0.4988 -0.2512
53595W        W96611  19.666  20.194   7.870  0.1784  0.0355  0.0955
53596W        W96612  13.640  12.913  24.130  0.2053  0.1978 -0.4129
53597W        W96613  33.901   4.188   9.518 -0.0738 -0.0560  0.1017
53598W        W96614   7.686  18.032   5.870 -0.0034  0.0832 -0.2042
53599W        W96615  17.043  10.024  25.590  0.0961  0.0216  0.0795
53600W        W96616   6.523  14.314   1.093  0.2019 -0.3204 -0.0889
53601W        W96617  32.870   8.707   5.604  0.0463  0.0373  0.0853
53602W        W96618   6.989  21.248  24.771 -0.3442 -0.0059 -0.2156
53603W        W96619  24.819  15.059  27.814 -0.0337 -0.1057 -0.0043
53604W        W96620  32.180  21.411  18.767  0.1675  0.0258 -0.4296
53605W        W96621   6.996  11.308   4.936  0.0994 -0.0654  0.3278
53606W        W96622   6.476  21.077   4.013  0.1148 -0.0677 -0.1078
53607W        W96623   6.167  20.114   7.256  0.1080 -0.2435 -0.1006
53608W        W96624   0.550  19.917  29.155  0.0759 -0.1004 -0.3442
53609W        W96625  17.261   9.365  27.358  0.0488  0.2462  0.1780
53610W        W96626  21.118  19.962   2.038  0.2111 -0.2654  0.1327
53611W        W96627  25.683  20.167   7.424 -0.2910 -0.1646 -0.2939
53612W        W96628   7.576  19.248   4.760 -0.1064  0.3413  0.2226
53613W        W96629  28.599  14.794   0.816  0.2838 -0.0261  0.0951
53614W        W96630  28.381  18.909  28.888 -0.1063 -0.0513  0.4636
53615W        W96631  26.287  17.545   3.325 -0.1468 -0.2410  0.0269
53616W        W96632  13.174  20.904  28.820  0.0179  0.2426 -0.1121
53617W        W96633  27.586   9.271  16.559 -0.1724 -0.2187  0.1694
53618W        W96634  25.164   8.107  28.424  0.2209  0.5660  0.0293
53619W        W96635  32.384  17.137   5.019  0.2720 -0.1862  0.0840
53620W        W96636  27.065  11.010   5.046  0.1894 -0.0644  0.0233
53621W        W96637  11.324  14.899   3.063 -0.2360  0.1230 -0.1525
53622W        W96638  32.511  15.481  28.616 -0.1386 -0.1004 -0.0334
53623W        W96639  32.165  18.568  25.734 -0.5382  0.5428 -0.0116
53624W        W96640   9.032  28.656   8.026  0.3745 -0.0918  0.1297
53625W        W96641  31.226  25.273  25.290  0.2780 -0.0455 -0.1480
53626W        W96642  10.723  25.520   5.355 -0.0665  0.0168  0.1569
53627W        W96643   5.136  33.227   6.646 -0.0662  0.2034  0.3308
53628W        W96644  12.741  26.693   2.715 -0.1791 -0.0196 -0.0109
53629W        W96645  12.770   9.157  16.172  0.1083  0.1904 -0.0307
53630W        W96646  24.165  21.520  22.269 -0.1368 -0.0500 -0.0398
53631W        W96647  28.239  25.389   8.401 -0.1897 -0.2135  0.0758
53632W        W96648   9.919  33.917   4.421  0.2092  0.1452  0.0958
53633W        W96649   8.016  25.791  25.396 -0.0141 -0.0662  0.2386
53634W        W96650   5.753  14.007   6.506  0.2608 -0.3082  0.0178
53635W        W96651   5.366  12.374  28.971  0.1064  0.1223 -0.1611
53636W        W96652  23.593  13.666   5.508 -0.3293 -0.0725  0.0959
53637W        W96653   3.468  14.427   3.687  0.2479 -0.3101  0.0770
53638W        W96654   1.598  15.799   3.722 -0.0779 -0.1438 -0.2295
53639W        W96655  31.880   7.434   0.957  0.1081  0.0703  0.0082
53640W        W96656   7.203  25.666   4.593  0.1043 -0.0657 -0.0711
53641W        W96657  28.906  11.901   1.012  0.1931 -0.0348  0.3442
53642W        W96658   7.020  15.582   5.668  0.3155 -0.0173 -0.4785
53643W        W96659   9.286  11.714  27.034  0.0593  0.1004 -0.1548
53644W        W96660   1.985  20.633   2.675 -0.1037  0.0145  0.0815
53645W        W96661  16.488   6.692   9.642  0.0945  0.2090 -0.0452
53646W        W96662   7.135  15.054   8.090 -0.1056  0.0915 -0.0994
53647W        W96663  32.107  15.486  15.636 -0.3020 -0.1525 -0.0411
53648W        W96664  30.478  21.870  26.471 -0.0420 -0.0810 -0.1016
53649W        W96665   9.161  12.607   7.400  0.1784  0.0412 -0.1146
53650W        W96666   5.605   3.292  27.639 -0.2356 -0.1323  0.0683
53651W        W96667   3.154  13.505  27.575 -0.2390  0.1293  0.1004
53652W        W96668   9.548  16.376  26.243  0.1018  0.2430 -0.2463
53653W        W96669  14.758  25.002  26.062 -0.0830  0.2540 -0.0074
53654W        W96670  32.976   9.048   0.741 -0.0802  0.2641  0.0662
53655W        W96671   0.480  13.464  27.424 -0.0068 -0.0143 -0.0002
53656W        W96672  29.938   7.450  15.860  0.0733 -0.2107  0.2792
53657W        W96673   3.939   9.599  29.277  0.2130  0.3547  0.3009
53658W        W96674   2.078   8.363  25.333 -0.2407  0.1641 -0.0097
53659W        W96675   0.726  33.329   8.168 -0.1013 -0.2079 -0.1303
53660W        W96676  25.730  15.404   3.061 -0.0396  0.1851 -0.1526
53661W        W96677   8.819  16.912   1.230  0.0786  0.1447  0.0430
53662W        W96678  32.224  31.690  25.101 -0.0803 -0.2144 -0.2016
53663W        W96679  27.716  25.059  15.452 -0.4732  0.2839  0.1817
53664W        W96680  28.084   8.635   1.303 -0.1479  0.0228  0.1031
53665W        W96681  20.826  20.268   8.174  0.3328 -0.1562 -0.0610
53666W        W96682  32.398  24.832   6.440  0.5168 -0.0285 -0.1090
53667W        W96683   9.544   7.770   9.634 -0.1024  0.0913  0.1370
53668W        W96684   8.416  10.743  23.231  0.0132  0.5229  0.1502
53669W        W96685  16.234   8.251   9.176 -0.4330 -0.0789  0.2137
53670W        W96686  14.044  10.113   2.884  0.0795 -0.1093 -0.2272
53671W        W96687  22.740  22.434   3.583 -0.0312 -0.1032 -0.2275
53672W        W96688  33.595  31.373   9.892  0.1274 -0.2802  0.0788
53673W        W96689  16.786  16.409   6.995  0.0223  0.2566 -0.1045
53674W        W96690   4.740  22.748  14.833 -0.1517 -0.1010 -0.0316
53675W        W96691   6.078   9.559   8.702 -0.0037 -0.2221  0.3325
53676W        W96692   4.097  19.082   9.380  0.1238 -0.1808 -0.0513
53677W        W96693   4.288  31.281  27.730  0.3175  0.2099 -0.1387
53678W        W96694  22.808  13.444  19.229  0.1094 -0.0897  0.2205
53679W        W96695  31.610  19.866   9.887 -0.0576  0.3175  0.3146
53680W        W96696   6.463   5.011   7.306 -0.4325  0.1851 -0.0601
53681W        W96697   8.654  29.242  26.135  0.0182 -0.3373 -0.1910
53682W        W96698   1.021  10.659   0.236  0.0737  0.3456  0.0501
53683W        W96699   0.230  14.063   6.214 -0.0408  0.1955  0.2532
53684W        W96700  11.465  20.953   2.120 -0.0913 -0.1570 -0.0054
53685W        W96701  34.201  10.368   6.577 -0.0898 -0.3040  0.0286
53686W        W96702  25.452  12.178  28.048  0.1059  0.1824  0.1598
53687W        W96703  32.724  18.076   3.645 -0.0081  0.0122  0.1338
53688W        W96704  27.656  14.749   2.322 -0.1937  0.2795 -0.3373
53689W        W96705   0.752  14.554  18.775 -0.1085  0.0011 -0.1280
53690W        W96706  14.648   4.719   5.407  0.1400  0.0021  0.1553
53691W        W96707   6.119  33.707   7.439 -0.1527  0.2466  0.1428
53692W        W96708  25.148  24.545   6.292 -0.1994 -0.0097 -0.1991
53693W        W96709   3.811  30.078   9.142  0.1005 -0.0408  0.1000
53694W        W96710  13.576  16.962   0.439 -0.0304  0.0529 -0.0301
53695W        W96711  26.731  12.696   5.163 -0.2026 -0.3952  0.2960
53696W        W96712  22.660  11.035  28.614 -0.0593  0.1493 -0.1340
53697W        W96713  20.142  10.528   7.614 -0.2132  0.0435 -0.3328
53698W        W96714  27.655  16.198   9.193  0.0405  0.0759  0.1528
53699W        W96715  20.180   8.548   2.636 -0.0301 -0.1299  0.1182
53700W        W96716   1.555  15.384  27.846 -0.1118 -0.2228 -0.0433
53701W        W96717   1.457  25.668   5.828 -0.1450 -0.0182  0.1895
53702W        W96718   2.257   6.440  26.370  0.0430 -0.2448 -0.0088
53703W        W96719   5.623  26.475   7.410  0.2293  0.0635  0.0766
53704W        W96720  23.160  23.885  20.663  0.1267 -0.1076  0.1848
53705W        W96721  24.907  24.596   7.982 -0.3015 -0.1623  0.0296
53706W        W96722  29.300  15.309   0.502  0.2997  0.1788 -0.0435
53707W        W96723  34.384  20.400   3.827  0.2332  0.0388  0.2607
53708W        W96724   8.138  25.504  19.381 -0.1191 -0.0404 -0.0197
53709W        W96725   5.804  14.532   6.809 -0.2314  0.2896  0.2089
53710W        W96726   1.770  12.083   5.395 -0.0928 -0.3836  0.1989
53711W        W96727   8.643  18.656   0.941  0.1184 -0.1395  0.0386
53712W        W96728  15.915  15.985  20.041  0.3339 -0.2171 -0.0628
53713W        W96729   5.292  28.072   7.487  0.2473 -0.0281  0.0683
53714W        W96730  29.363   7.465  24.769  0.0411  0.0708 -0.0349
53715W        W96731  27.057   0.256   6.104 -0.1276 -0.3230 -0.0251
53716W        W96732   8.088  30.528   3.157  0.1329 -0.0220  0.1092
53717W        W96733  33.049  10.708   9.381  0.1271 -0.3801  0.4936
53718W        W96734  17.807  19.524   4.533  0.0442 -0.6324  0.1094
53719W        W96735  15.986   9.260   5.331  0.0006  0.1637  0.0455
53720W        W96736  34.143  18.384  19.432 -0.0239  0.1301  0.1649
53721W        W96737   7.142   3.490  17.049  0.0929 -0.4795 -0.1321
53722W        W96738   8.694  14.120  27.208  0.0722  0.2640 -0.0467
53723W        W96739  14.370   5.249  29.021 -0.1416  0.0594  0.1445
53724W        W96740  11.158  27.639   1.870 -0.1373 -0.0957 -0.4625
53725W        W96741   9.662   8.757  18.495 -0.2487 -0.2149  0.0115
53726W        W96742   3.887  34.755  14.172  0.1448 -0.0905 -0.2102
53727W        W96743  12.558  19.951   7.391 -0.0020 -0.0073  0.1808
53728W        W96744  23.864  30.602  27.477 -0.1593 -0.0520 -0.0591
53729W        W96745  16.314   1.511   5.817 -0.1180 -0.0717  0.0721
53730W        W96746   0.660  26.456   3.302 -0.3515  0.0324 -0.2649
53731W        W96747  34.766  19.830   5.284 -0.1705 -0.2199 -0.0283
53732W        W96748  28.146  26.894   4.663 -0.0979  0.1051 -0.1619
53733W        W96749  30.951  18.219   6.784 -0.0684 -0.1208 -0.0852
53734W        W96750  17.437   7.112   0.033 -0.0703  0.1712 -0.3026
53735W        W96751   2.207  12.235   7.749 -0.0347  0.0603  0.1274
53736W        W96752  22.282   9.877  25.160  0.3730 -0.3038 -0.1279
53737W        W96753   9.611  22.025   1.816  0.1665 -0.5757  0.1230
53738W        W96754  18.637  20.459  16.430 -0.1477 -0.1147 -0.5474
53739W        W96755  23.657  11.546  27.554  0.0265 -0.1182 -0.0853
53740W        W96756   7.515  24.239   4.495 -0.0612 -0.0862  0.0015
53741W        W96757   6.133  14.729   6.256 -0.0005  0.0057 -0.1320
53742W        W96758  32.360  12.338   2.848  0.3156  0.1057 -0.1323
53743W        W96759   3.617  18.895   6.140 -0.0345 -0.3230 -0.1002
53744W        W96760   8.240  16.293  29.031 -0.0118 -0.2484  0.0353
53745W        W96761   0.621  12.996   6.823 -0.0267  0.0198 -0.0168
53746W        W96762  18.415  23.189   6.976 -0.0910  0.2852 -0.0764
53747W        W96763   3.374  11.922  22.301 -0.1926  0.0358  0.2234
53748W        W96764  25.188  15.417  27.420  0.0777 -0.1094 -0.1263
53749W        W96765  34.137   3.258   3.070 -0.1934 -0.2439  0.1682
53750W        W96766  27.505  23.957   1.985  0.4354  0.1500  0.4681
53751W        W96767   0.744   8.654   7.640  0.0727  0.0735  0.2526
53752W        W96768   1.539   9.200   5.358  0.1948 -0.0976  0.0374
53753W        W96769   5.076   3.238   8.185 -0.2933 -0.0772  0.0300
53754W        W96770   3.123  17.122   8.989 -0.0252  0.1027 -0.0290
53755W        W96771  27.580  13.245   9.793  0.0338  0.2259 -0.1570
53756W        W96772  28.112   0.200   3.465  0.2982  0.0448 -0.0893
53757W        W96773   1.074  16.648  25.707 -0.0561 -0.1044  0.2660
53758W        W96774  14.678   8.038  10.085  0.2397 -0.2169 -0.0133
53759W        W96775   9.124   8.614  13.779 -0.1441 -0.0840 -0.2417
53760W        W96776   0.585  14.275   1.062  0.0787  0.1624  0.0595
53761W        W96777  16.230  14.284  23.586  0.2580 -0.4211 -0.1651
53762W        W96778   0.862  16.412   8.941  0.1687  0.0818  0.1503
53763W        W96779   2.215  26.237   8.108 -0.0193  0.7056  0.0284
53764W        W96780  10.234  12.923   3.564  0.0369  0.2342 -0.1523
53765W        W96781  17.091  25.040   3.302 -0.0906 -0.0339  0.0188
53766W        W96782  11.591   3.944   2.932 -0.3239 -0.2034 -0.0176
53767W        W96783   1.917  23.303  28.293  0.0173 -0.1619  0.3556
53768W        W96784  31.115  24.461  10.595  0.1534 -0.2439  0.0600
53769W        W96785  34.256  13.965   8.543 -0.2841 -0.1431 -0.0943
53770W        W96786  22.956  18.467  24.481  0.1024  0.0880 -0.1950
53771W        W96787  20.958   0.951   3.389  0.3583  0.1958 -0.0482
53772W        W96788  32.878  22.545   5.579  0.0849 -0.0700 -0.0547
53773W        W96789  32.338   7.017   1.359  0.0027 -0.0102 -0.0279
53774W        W96790  28.901   4.794   2.058 -0.3529 -0.0038 -0.0026
53775W        W96791  17.151  12.783  25.827  0.0737 -0.1086  0.3673
53776W        W96792  15.922   3.506   9.255  0.0354  0.0828 -0.0402
53777W        W96793   7.231   2.756   3.465 -0.2770 -0.1640  0.2424
53778W        W96794  33.853  14.572  22.165  0.0667  0.0937  0.0985
53779W        W96795  24.708  27.923   8.753 -0.1440  0.0359  0.0775
53780W        W96796   2.351  17.364   6.781  0.0164  0.0216  0.2210
53781W        W96797  22.397  30.209   5.067  0.3783  0.1029 -0.1616
53782W        W96798  14.656  11.302  22.038  0.1990 -0.0108 -0.0355
53783W        W96799   2.447  10.069   3.642  0.0891  0.1011 -0.2850
53784W        W96800   1.473   7.072   6.140 -0.2810  0.1826 -0.0293
53785W        W96801  26.111  23.058  28.844 -0.0910 -0.1203 -0.2163
53786W        W96802  24.725  17.926  24.100  0.2421 -0.0984 -0.1886
53787W        W96803  21.128  30.077  25.403  0.5492  0.2757 -0.0475
53788W        W96804   5.290  25.025  22.081  0.0370  0.6928  0.1518
53789W        W96805  12.448   8.088  26.067 -0.1655  0.1394  0.1303
53790W        W96806   4.941  12.386  10.396  0.1047  0.0597 -0.2105
53791W        W96807   1.297  23.112  27.566 -0.1621 -0.1051  0.0695
53792W        W96808  33.979  29.904   0.359 -0.0058 -0.0469  0.2403
53793W        W96809  27.867  10.871  17.228  0.3099 -0.0383  0.2110
53794W        W96810  28.330   1.225   8.182 -0.2378 -0.1589  0.0143
53795W        W96811   7.868  28.174   4.258 -0.1676  0.0245  0.0124
53796W        W96812   7.015  11.852  28.427  0.0474  0.5948  0.3212
53797W        W96813  34.755  26.635   4.820  0.0461 -0.1665 -0.0467
53798W        W96814   9.163   5.012  25.252 -0.0685  0.0596 -0.0651
53799W        W96815  29.152   9.554  10.142  0.0294  0.1947  0.0877
53800W        W96816  14.322  15.615  24.604 -0.0575 -0.3676 -0.2652
53801W        W96817  30.216  22.948   4.044  0.1121 -0.1205 -0.0289
53802W        W96818  33.969  21.990   7.836  0.2162  0.0264  0.0820
53803W        W96819  26.301  23.571   4.696 -0.4126 -0.0268  0.0635
53804W        W96820   4.226   9.325   3.799 -0.2235  0.3258  0.2560
53805W        W96821  11.782  19.067  16.888 -0.1573 -0.1529  0.2194
53806W        W96822  26.770   3.716   3.338 -0.2791 -0.0050  0.0752
53807W        W96823   6.951  18.798   7.958 -0.1332 -0.1973 -0.1258
53808W        W96824   8.158  14.623   3.127  0.3484 -0.2061 -0.3424
53809W        W96825   4.153  19.274   8.863 -0.0269  0.1814 -0.2554
53810W        W96826  13.629  27.235   4.300  0.0527 -0.1365  0.0180
53811W        W96827  26.445  16.486   6.628 -0.0023  0.1859  0.2910
53812W        W96828  31.944  13.019   8.513  0.0840  0.1911  0.0473
53813W        W96829  33.345  22.354   3.183 -0.5481  0.0453  0.0465
53814W        W96830  12.305  13.244   4.180  0.0016  0.0511 -0.1370
53815W        W96831  26.065  31.955   3.413  0.0014 -0.2485 -0.1696
53816W        W96832   3.371   7.295   8.089  0.2251 -0.1086 -0.2018
53817W        W96833  25.746  21.505   7.511 -0.1641 -0.1043  0.5400
53818W        W96834  31.390  25.302  27.536 -0.2543  0.0016 -0.1253
53819W        W96835   5.141  17.052   7.837 -0.2001 -0.1866  0.0257
53820W        W96836   3.051  33.451  17.047  0.2964 -0.1989 -0.2177
53821W        W96837   1.578   5.757  26.972 -0.1175 -0.1118 -0.0933
53822W        W96838  33.650   3.840   8.416  0.0640  0.1693 -0.2576
53823W        W96839  16.215  19.225   6.166 -0.4458  0.0319  0.0059
53824W        W96840  33.114  16.010   4.249 -0.1365 -0.0528 -0.0589
53825W        W96841   9.332   1.868   9.898  0.3347 -0.0649  0.1780
53826W        W96842  29.512  26.491  24.280 -0.1547 -0.2347 -0.0482
53827W        W96843  31.158   9.144  27.328  0.2359 -0.3575  0.2151
53828W        W96844  20.100  29.278   4.152 -0.1546  0.1950  0.0583
53829W        W96845  23.588   1.386   2.081 -0.0766  0.0913 -0.0199
53830W        W96846   9.308  26.298   0.167  0.1923  0.2625 -0.0070
53831W        W96847  32.193   7.212   7.602 -0.0062 -0.0614  0.0547
53832W        W96848  33.356  23.771   3.219 -0.1527  0.2211 -0.2674
53833W        W96849  32.842  18.889   2.899  0.1975 -0.0951 -0.1760
53834W        W96850   1.638  10.664  29.301 -0.2871  0.0235 -0.0152
53835W        W96851  16.219  21.584   0.711  0.2196 -0.1919 -0.0878
53836W        W96852  13.352  13.844   3.625  0.0495  0.0668 -0.1882
53837W        W96853  34.121  16.513  11.311 -0.0453  0.0318  0.0254
53838W        W96854  33.973   0.123   8.800  0.1172 -0.0175 -0.1131
53839W        W96855  24.990  32.904  11.851 -0.1957 -0.1333 -0.0337
53840W        W96856  13.622  25.622  28.916  0.1439  0.0567  0.4163
53841W        W96857  26.269  28.596   4.422  0.4462  0.0981 -0.4172
53842W        W96858  22.659  16.655   8.737 -0.1416 -0.1567 -0.0872
53843W        W96859  12.934  14.252   8.530 -0.0333  0.1679  0.5068
53844W        W96860  16.436  11.618  23.134  0.0554  0.2537 -0.1239
53845W        W96861  31.156  19.033   8.148 -0.0071  0.0129  0.2761
53846W        W96862   4.858  15.049  21.608  0.0635 -0.0104  0.2300
53847W        W96863  21.684  15.141  26.610  0.0946 -0.0274  0.0505
53848W        W96864   9.077   9.139   2.039  0.1183  0.0917 -0.0353
53849W        W96865   4.930  19.258   7.559  0.4411 -0.0336 -0.1211
53850W        W96866  34.703  20.354   4.937 -0.0512 -0.1432  0.4704
53851W        W96867  21.307  15.643  25.991  0.1448 -0.2334  0.2916
53852W        W96868   8.305   0.469   9.592 -0.3115  0.0692 -0.1160
53853W        W96869  19.583  12.449   5.371  0.2113 -0.1059  0.4123
53854W        W96870  33.468  14.650  22.483  0.0617  0.0280 -0.0016
53855W        W96871  27.507  11.326   7.037 -0.1166  0.1936 -0.0762
53856W        W96872   1.962  11.549  28.463 -0.3591  0.0038 -0.0709
53857W        W96873   5.685  20.732   2.270  0.0430  0.1059  0.1879
53858W        W96874  22.321  10.632   2.231 -0.0433  0.0382  0.0062
53859W        W96875  10.222  17.453   6.187 -0.4262  0.1601 -0.4483
53860W        W96876  32.268  31.266   8.790 -0.2140 -0.0764  0.1996
53861W        W96877  28.536  19.867  10.147 -0.0044  0.0476 -0.2143
53862W        W96878  27.737  13.956   6.848 -0.0436  0.4067 -0.2870
53863W        W96879  31.799  21.312   7.094  0.3275  0.1010 -0.3038
53864W        W96880   4.842   1.872   6.957 -0.0813  0.0230 -0.1649
53865W        W96881  14.940  18.223  20.213 -0.0037 -0.0261 -0.1602
53866W        W96882  24.117  22.959   4.667 -0.0978 -0.1589 -0.1509
53867W        W96883  24.566  30.487   2.009 -0.0277 -0.0045  0.1060
53868W        W96884  11.205   9.205  28.270 -0.0102 -0.3657  0.2111
53869W        W96885   2.143  15.103   3.743 -0.0994 -0.0288 -0.2587
53870W        W96886   6.982  18.140  28.230  0.1796 -0.0588  0.1323
53871W        W96887  34.361   8.231   3.341  0.0392  0.0413 -0.0276
53872W        W96888  19.605  12.347  22.921  0.2378 -0.0079 -0.0888
53873W        W96889  29.119  14.464   9.341  0.0561 -0.1018  0.1428
53874W        W96890   2.172  24.869  26.523 -0.0709  0.0153  0.2953
53875W        W96891   9.002  13.894   7.732 -0.1577 -0.0647  0.0820
53876W        W96892  14.598  11.419  18.812  0.0029 -0.1531  0.1278
53877W        W96893  31.559   6.611   8.433 -0.2446  0.2382 -0.2219
53878W        W96894  15.469  12.127  17.101  0.1769  0.2449 -0.3518
53879W        W96895  26.699   1.635  15.819  0.1349 -0.1686  0.2292
53880W        W96896  33.426  11.629   5.959 -0.1013  0.2572 -0.1402
53881W        W96897  15.983  14.831   6.235  0.0237 -0.0348  0.0661
53882W        W96898  16.403   6.609   3.327 -0.0586 -0.0113  0.1922
53883W        W96899  11.328  15.464  27.971 -0.2245 -0.1967  0.2433
53884W        W96900  25.408  12.827   1.635  0.2223 -0.0075 -0.1171
53885W        W96901  34.397  20.197   3.278 -0.0251 -0.0688 -0.2056
53886W        W96902   8.442  13.327   8.844  0.2550  0.0413 -0.2457
53887W        W96903  15.792  18.739   5.176  0.1026  0.1827 -0.0010
53888W        W96904  17.724  10.527   9.814 -0.1131 -0.1861 -0.0830
53889W        W96905  33.275   8.914   6.311 -0.1939 -0.1148  0.1104
53890W        W96906  33.949  29.445  10.483  0.1122  0.1129  0.1914
53891W        W96907  22.513   8.663   3.157 -0.0704 -0.1195  0.0724
53892W        W96908  31.024  32.542   6.358 -0.2665  0.0893 -0.1411
53893W        W96909  30.680   0.968   9.569 -0.2172  0.2491  0.0728
53894W        W96910   8.266  24.915   9.037 -0.0464  0.2235 -0.0620
53895W        W96911  32.702   7.442   1.518 -0.0868  0.0125 -0.0040
53896W        W96912  33.051  28.590   4.095 -0.1065 -0.0471  0.0201
53897W        W96913  12.347  22.527   5.021 -0.5061  0.3399 -0.0176
53898W        W96914   9.274  13.688   1.777  0.1226  0.1722 -0.1274
53899W        W96915  19.797  14.138  14.350  0.3104  0.1377 -0.0985
53900W        W96916   4.165   3.024   8.462  0.2070  0.1625  0.2984
53901W        W96917  13.144  22.254   0.815 -0.4359  0.4077  0.3577
53902W        W96918  32.946   7.457   1.039 -0.2118 -0.2768  0.2891
53903W        W96919  11.783  24.971   3.517  0.2006  0.0534 -0.1550
53904W        W96920  33.713  13.466   0.859  0.1687 -0.4292 -0.0213
53905W        W96921  34.391  25.542   2.305  0.2138  0.0541 -0.2250
53906W        W96922   2.390  19.138   3.176  0.1519 -0.1871 -0.0348
53907W        W96923  19.740  20.658  24.547 -0.0440  0.2934  0.1133
53908W        W96924   4.387  10.516   8.645  0.1765 -0.3582  0.0429
53909W        W96925   5.711  23.565   6.830  0.0599 -0.1820  0.1911
53910W        W96926  31.676  21.678   7.960 -0.0213  0.0202  0.4852
53911W        W96927   8.709  16.467  22.664 -0.1117 -0.1767  0.0905
53912W        W96928  32.536  17.659   7.549  0.0840 -0.3350 -0.0724
53913W        W96929  24.473  27.267  23.188 -0.0632  0.5038  0.1815
53914W        W96930  27.350   0.942  28.602 -0.0416  0.1132  0.0727
53915W        W96931   3.976  14.051   3.724  0.0558 -0.0108  0.0917
53916W        W96932  23.084  18.971   8.084 -0.1595  0.0474  0.0339
53917W        W96933   7.112   1.743   8.887  0.0065 -0.3788 -0.0471
53918W        W96934  30.842  15.635   9.510  0.0730 -0.1581 -0.1634
53919W        W96935   4.979  25.829   3.147 -0.0125  0.1692 -0.0970
53920W        W96936   1.394  24.192   0.285 -0.2433  0.0019  0.4724
53921W        W96937   2.925  23.236   1.363  0.3483  0.1638 -0.2595
53922W        W96938  15.692   3.079   0.571  0.2296 -0.1803 -0.2208
53923W        W96939  27.686   6.663  23.727 -0.0047 -0.0492 -0.0524
53924W        W96940   3.779   9.280   1.525 -0.0692 -0.2104 -0.0917
53925W        W96941  19.627  14.688  24.117 -0.0363 -0.1343 -0.0090
53926W        W96942  21.891  14.635   7.073  0.1299 -0.1668  0.0983
53927W        W96943  27.750  17.693   8.897  0.1258 -0.0680  0.0964
53928W        W96944  30.057  21.816  26.946 -0.1713  0.2717 -0.0733
53929W        W96945  32.748  13.098  25.267 -0.4084 -0.3435  0.1347
53930W        W96946   4.223  20.440  27.827  0.0078 -0.0231 -0.0624
53931W        W96947  27.709  28.010  10.275  0.3454 -0.0549 -0.2938
53932W        W96948  32.511  33.026   9.006  0.1505 -0.0338 -0.2399
53933W        W96949  33.453  17.831   4.712  0.0360 -0.3544  0.3277
53934W        W96950  10.453   9.780   0.876  0.0673  0.0019 -0.0269
53935W        W96951  28.073   4.559   4.964 -0.3793  0.2695  0.0863
53936W        W96952   3.619  17.542   0.523 -0.1534 -0.0627 -0.0384
53937W        W96953  27.859  20.433   7.727 -0.1225  0.2269  0.2297
53938W        W96954   1.339  14.259   7.993  0.1933  0.0726 -0.2200
53939W        W96955  32.552  17.150   9.119  0.0322 -0.0787  0.1970
53940W        W96956  10.100  21.299  26.865  0.2038 -0.0264 -0.2765
53941W        W96957  23.125  16.181   1.303  0.1525  0.1227 -0.0116
53942W        W96958   0.054   7.338   7.220 -0.2483 -0.0793 -0.0301
53943W        W96959   9.000  21.807   3.925  0.1639  0.2249  0.1201
53944W        W96960  11.709  22.720   1.187  0.3687 -0.0348  0.0333
53945W        W96961  26.530  12.828   5.644 -0.0833 -0.1673 -0.2003
53946W        W96962  24.876  26.002   2.831  0.2004  0.1408 -0.0817
53947W        W96963   1.082  30.452   6.417  0.0967 -0.2606  0.0068
53948W        W96964   0.575  26.805   4.795 -0.0476 -0.0134  0.1129
53949W        W96965  19.786   4.513   2.725 -0.2785 -0.0040  0.0966
53950W        W96966   0.237  12.281   3.282 -0.1653 -0.2415  0.1275
53951W        W96967   1.205  20.213   9.129 -0.1905  0.3521 -0.3339
53952W        W96968   2.985  25.836   5.350 -0.2954 -0.0576 -0.0999
53953W        W96969  15.799   3.288   7.457 -0.3200  0.0853 -0.0318
53954W        W96970   4.600  26.003   7.454  0.1344 -0.0222  0.2427
53955W        W96971  13.157  30.497   8.315 -0.1027 -0.2084 -0.0882
53956W        W96972  29.803  16.184  10.097 -0.0084  0.0281  0.0843
53957W        W96973  22.847   8.759   4.079  0.0493 -0.1844  0.0513
53958W        W96974  24.770  25.475   9.379 -0.2133  0.3361  0.1157
53959W        W96975  10.542  27.819  27.259 -0.0269 -0.1636  0.2657
53960W        W96976  12.671   8.842  13.644  0.0841 -0.3790  0.1483
53961W        W96977   3.557  16.941   2.023 -0.0763  0.1870  0.0540
53962W        W96978  26.973  15.246   0.003 -0.3298 -0.0453  0.0917
53963W        W96979  30.368  25.072   5.674 -0.0186  0.2877 -0.1488
53964W        W96980  27.859   5.683   6.078 -0.1394 -0.1162 -0.1292
53965W        W96981  23.598  14.015  19.596  0.1151 -0.0063 -0.3826
53966W        W96982   2.635  12.033   7.982  0.2282 -0.2205 -0.5408
53967W        W96983  30.782  13.940  22.451 -0.1636  0.1543 -0.2298
53968W        W96984   3.968  19.227  22.701 -0.1362  0.1618 -0.0830
53969W        W96985  32.520  20.519  21.750  0.3009 -0.1225  0.0265
53970W        W96986   5.976  31.550  19.330  0.1007  0.1409 -0.1781
53971W        W96987  30.066   8.035   9.827 -0.0756  0.0916 -0.0724
53972W        W96988   0.472   9.089   3.178 -0.0911  0.0626 -0.1313
53973W        W96989  29.687  24.172  22.211 -0.0784  0.0971 -0.0618
53974W        W96990  26.685  23.643   9.145  0.0259 -0.0935  0.2142
53975W        W96991  31.914  20.018   7.630  0.3309 -0.2626 -0.1634
53976W        W96992  11.863  21.978  15.020 -0.1427  0.0391 -0.2965
53977W        W96993  24.374  33.211   0.946 -0.3678  0.1140 -0.1117
53978W        W96994  16.762   8.229  24.304  0.1107 -0.2297 -0.2867
53979W        W96995   3.247  12.597   3.862 -0.1314  0.1623 -0.0212
53980W        W96996  32.001  26.409   6.019  0.3511 -0.1230  0.0503
53981W        W96997   9.844  10.558  21.527  0.0676 -0.2541 -0.2555
53982W        W96998   3.047  24.608   5.954  0.1947 -0.1018 -0.1646
53983W        W96999  29.374  19.352  22.439  0.2448 -0.1121  0.0077
53984W        W97000  20.521   7.370  16.116  0.0067 -0.3073 -0.3060
53985W        W97001  19.746  34.102   4.194  0.0957  0.1359 -0.1312
53986W        W97002  27.174  31.177  25.951 -0.2260  0.1959 -0.3172
53987W        W97003  12.272  17.219   2.824  0.0193  0.0558 -0.0333
53988W        W97004  27.197  17.270  21.565  0.3599 -0.1085  0.1467
53989W        W97005  21.016  23.055  17.727  0.1232 -0.2667  0.1644
53990W        W97006   7.649  10.917  29.248 -0.0065 -0.1017 -0.1484
53991W        W97007  23.557  17.064   9.146 -0.1404 -0.1158 -0.0219
53992W        W97008  33.778  22.485  15.491  0.1685  0.0851 -0.1756
53993W        W97009  25.079  20.101   2.644 -0.1872 -0.1426  0.2550
53994W        W97010   0.705  23.342   2.253 -0.3402  0.0176  0.3138
53995W        W97011  30.422  20.440   8.190  0.0692  0.3402  0.2563
53996W        W97012  11.647  10.274   5.486 -0.0053 -0.2267 -0.2384
53997W        W97013   8.041  25.524   1.070 -0.0398 -0.0257  0.0733
53998W        W97014  27.477  22.868   8.215  0.3054 -0.1264 -0.1265
53999W        W97015  19.996  10.247   0.573 -0.1986  0.1674  0.0908
54000W        W97016  24.250  17.686   8.639  0.0707  0.1444 -0.2701
54001W        W97017   2.236  30.656   6.618  0.2289  0.1188  0.1936
54002W        W97018  16.896  21.160  24.314  0.1657 -0.0298 -0.1765
54003W        W97019   0.765  20.881   2.203  0.0486  0.0459  0.0528
54004W        W97020  10.584   5.926  15.991  0.0708 -0.2207  0.0160
54005W        W97021  22.753  23.851  22.193  0.2267  0.2683 -0.2003
54006W        W97022  33.511   7.801   5.533  0.1469  0.0022 -0.1376
54007W        W97023  12.281  21.975   3.380 -0.1632  0.2092 -0.0292
54008W        W97024  10.650  21.603  16.217  0.1022 -0.0844 -0.3234
54009W        W97025  11.801  32.877   6.467  0.0608  0.2370 -0.1517
54010W        W97026  18.826  14.240   6.937 -0.0566 -0.2774 -0.2073
54011W        W97027  25.256  30.142   4.209 -0.0336  0.2056  0.0016
54012W        W97028   4.362  24.883  25.008  0.1537  0.0162 -0.1641
54013W        W97029  33.961  17.921   3.506 -0.0918  0.1670  0.0809
54014W        W97030  33.251  18.054  19.562 -0.2197  0.1921  0.0365
54015W        W97031  23.794   7.815  16.289 -0.1875 -0.1909 -0.2267
54016W        W97032  29.157  28.785  21.282 -0.2715  0.0042 -0.0054
54017W        W97033  31.728  18.460   8.238  0.0001 -0.0346 -0.0927
54018W        W97034  15.527  22.606  16.718  0.1977 -0.0335  0.0287
54019W        W97035  24.301  19.601   8.098  0.0811 -0.0351 -0.5159
54020W        W97036   6.979  24.859  27.006 -0.1572  0.0197 -0.1011
54021W        W97037  26.263  24.040  28.554 -0.1849  0.2948 -0.0172
54022W        W97038  32.487  24.581  18.064 -0.1808 -0.0576  0.0318
54023W        W97039  19.618   9.144   4.535  0.0686  0.1240  0.0132
54024W        W97040  27.943  13.361  19.684  0.2384  0.2494  0.3506
54025W        W97041   2.837   1.446  24.535 -0.1155 -0.3634 -0.0327
54026W        W97042  29.050  31.876   1.678 -0.0310 -0.1370 -0.1144
54027W        W97043  26.157  16.411  21.491 -0.1511  0.0946  0.0528
54028W        W97044  27.404  25.496  10.602 -0.1477 -0.0528  0.2537
54029W        W97045   6.428  29.113  27.060 -0.1835  0.0507 -0.2188
54030W        W97046   1.918  12.441   4.878 -0.2462 -0.0469 -0.1032
54031W        W97047  31.045   9.894   8.020 -0.0987  0.1891 -0.1334
54032W        W97048  31.825   4.468  19.742 -0.1684  0.0642  0.0319
54033W        W97049  33.977  11.301   0.431 -0.0105  0.4437  0.0613
54034W        W97050   4.383   8.918  22.585  0.0084  0.0781 -0.2958
54035W        W97051  19.721  26.681  25.315 -0.1849 -0.0467  0.0979
54036W        W97052  21.237  11.094  15.014 -0.2994  0.2114  0.1427
54037W        W97053  11.902  23.024  22.091 -0.0954  0.1377 -0.1139
54038W        W97054   0.763  20.227   8.154  0.2714  0.1741 -0.1289
54039W        W97055   4.428  33.992  16.009  0.1085 -0.0016 -0.1828
54040W        W97056   2.739  10.021   1.007  0.1037 -0.2773 -0.3410
54041W        W97057  27.989   7.894   7.477  0.0190  0.0127  0.0484
54042W        W97058  31.896  22.604  26.677 -0.1798 -0.1779 -0.3177
54043W        W97059  28.717  22.326  21.525 -0.2988  0.1066  0.1889
54044W        W97060   3.116  14.074  28.693  0.1432  0.0568  0.0680
54045W        W97061   3.172  24.010   9.875  0.0481 -0.1595  0.0974
54046W        W97062   1.580  18.184   1.990  0.0102  0.0184 -0.3343
54047W        W97063   0.256  13.574   1.392  0.0901  0.1334 -0.6031
54048W        W97064   5.674  16.226  20.939  0.2370  0.2391 -0.1285
54049W        W97065   9.017  20.849   1.171  0.0255  0.3146  0.1433
54050W        W97066  22.824  27.062  25.326  0.2529  0.1829  0.0708
54051W        W97067  13.056  21.567   2.040  0.2339  0.2410 -0.1043
54052W        W97068  28.097  28.497   1.310  0.3634 -0.0106  0.0528
54053W        W97069  20.762  15.349  27.770  0.0093 -0.0886  0.0850
54054W        W97070  16.929  33.642  25.190  0.0930  0.1655  0.0956
54055W        W97071   5.628  17.696   4.202  0.0974 -0.1317 -0.0526
54056W        W97072   4.223  30.928  28.517  0.3557  0.1179  0.3207
54057W        W97073  27.455   4.829  28.983 -0.1217  0.1929  0.1487
54058W        W97074   2.496  24.900  27.169 -0.1617  0.2029  0.0907
54059W        W97075  32.903  12.534   1.318 -0.0440  0.0576  0.2174
54060W        W97076  11.150   9.828  17.611  0.1223  0.2076  0.2302
54061W        W97077   3.492  23.127   4.055 -0.1365  0.5881  0.1068
54062W        W97078  34.454  19.220  27.135 -0.2733  0.2444 -0.0615
54063W        W97079   5.498  32.471   2.511 -0.2801 -0.5200 -0.1284
54064W        W97080  20.025  33.328   7.523 -0.1632 -0.2772  0.1088
54065W        W97081   8.827  25.857  13.826  0.0147 -0.0891 -0.3506
54066W        W97082   2.313   6.701   3.786 -0.1579  0.2237  0.1403
54067W        W97083  23.273  23.969   8.425  0.0166 -0.0288 -0.2103
54068W        W97084   6.486  11.484   0.348  0.0624  0.0330 -0.1607
54069W        W97085   7.065   6.326  25.263 -0.0588 -0.0069  0.0123
54070W        W97086  30.355  18.004   9.362  0.2109 -0.3620  0.1573
54071W        W97087  26.345  31.376  10.782  0.0717 -0.4150  0.0040
54072W        W97088   4.027   1.194   1.570 -0.0116  0.4372  0.1117
54073W        W97089  20.636  31.478  21.560 -0.0819 -0.1075  0.2405
54074W        W97090  30.474  24.784  11.493  0.1827  0.2594  0.2299
54075W        W97091   6.028   7.184   9.897 -0.0134  0.0056  0.2407
54076W        W97092   0.257  14.413   6.614 -0.4076  0.0894  0.0598
54077W        W97093   7.950  11.859   4.086 -0.1065  0.2918 -0.0540
54078W        W97094  21.903  17.868  25.874  0.1598 -0.1794  0.0027
54079W        W97095   5.448  19.177  19.925  0.1140  0.0683 -0.4434
54080W        W97096  34.719  17.297  18.701  0.0515  0.0484  0.2401
54081W        W97097   7.004   1.324   3.070  0.1917  0.2591  0.0218
54082W        W97098  19.295  24.242   7.116  0.0718 -0.0976 -0.2855
54083W        W97099   6.126   2.474   2.821 -0.0732 -0.1766  0.0108
54084W        W97100  14.874  22.732  15.412 -0.0001  0.2170  0.1593
54085W        W97101   3.179  24.370  21.322  0.1493  0.1768 -0.3431
54086W        W97102  10.115  29.924   8.082  0.0001  0.0651 -0.1391
54087W        W97103  15.339   3.623   2.889  0.2610  0.1109  0.2364
54088W        W97104  24.794  26.152  23.323 -0.1082  0.2043  0.1854
54089W        W97105   7.252  16.932  26.315  0.2227 -0.0475 -0.3623
54090W        W97106  23.919  22.735   8.641  0.0836 -0.0103 -0.3613
54091W        W97107  25.242  22.997  24.959 -0.1203  0.2750 -0.0830
54092W        W97108  10.279  29.069  27.942 -0.0386 -0.3176  0.0704
54093W        W97109   2.090  12.264   2.582 -0.1916  0.1456 -0.0653
54094W        W97110   4.027  14.902  22.315 -0.2045 -0.0150 -0.0603
54095W        W97111  14.813  19.500  25.567 -0.1160 -0.1434 -0.0923
54096W        W97112  14.801  28.624  17.907  0.0367 -0.0254  0.2079
54097W        W97113  15.948  19.693  12.584  0.1372 -0.1016  0.3644
54098W        W97114  28.433  25.674  20.916 -0.1155  0.2333  0.1142
54099W        W97115  14.702  29.266   2.260 -0.4424  0.1980  0.1661
54100W        W97116  24.911  29.723  16.153  0.2279 -0.0092 -0.1946
54101W        W97117   5.397  24.718  27.542 -0.1626  0.0690  0.1113
54102W        W97118  33.975  12.325  23.424 -0.0242 -0.1075 -0.3912
54103W        W97119   0.229  17.514   4.074  0.1424  0.0996  0.0441
54104W        W97120   4.408  19.442   9.243 -0.1449 -0.3088 -0.2545
54105W        W97121   1.465  22.840   9.453 -0.2351 -0.0886 -0.1785
54106W        W97122  28.280  18.898   5.208  0.0702  0.3127  0.1502
54107W        W97123  27.317  20.650  18.340  0.0343  0.1405  0.3674
54108W        W97124   0.569  28.418   1.588 -0.4781  0.1266 -0.0207
54109W        W97125   3.242   7.083   2.684 -0.3063  0.1658 -0.0891
54110W        W97126  28.080  24.006  27.461  0.0549 -0.0943 -0.1490
54111W        W97127  24.443  12.320  26.156 -0.0157 -0.0399 -0.0846
54112W        W97128  32.741  19.191   3.935 -0.0119  0.0203 -0.5307
54113W        W97129   1.974  15.186   9.827  0.3716  0.1558 -0.0128
54114W        W97130   6.848  11.070  23.249 -0.1518 -0.1236  0.0946
54115W        W97131  25.838  20.593  23.258  0.1637  0.0598 -0.2187
54116W        W97132  30.314  26.892  23.575 -0.0033  0.1335 -0.0217
54117W        W97133  18.100   7.577   5.417  0.0915  0.1643  0.1516
54118W        W97134   1.045  23.905  16.317  0.0338 -0.1610 -0.1530
54119W        W97135  26.055  29.472   2.212 -0.2114  0.0134 -0.0422
54120W        W97136  14.804  33.846  22.645 -0.3932  0.2240 -0.2089
54121W        W97137  24.539  10.564  28.853  0.1575 -0.1874 -0.1985
54122W        W97138   9.699   7.109   2.987 -0.0443  0.4173 -0.0784
54123W        W97139  30.311  27.301  27.967  0.0448 -0.0706 -0.2133
54124W        W97140  12.887  29.281   5.426 -0.0010 -0.2892  0.5907
54125W        W97141   7.307  15.303   1.365 -0.0055 -0.1723 -0.0668
54126W        W97142   8.514  18.813  27.173 -0.3501 -0.0240 -0.1099
54127W        W97143  25.153  15.948   9.669 -0.0793 -0.1602  0.1751
54128W        W97144   4.734  26.981  26.668  0.0674  0.2765 -0.1551
54129W        W97145  27.756  27.902   9.447 -0.1549  0.2082 -0.0519
54130W        W97146  21.822  23.435  21.786  0.1640 -0.1980  0.0435
54131W        W97147  21.791  26.069  24.247  0.0427 -0.2908  0.4171
54132W        W97148  33.780  18.699  19.852  0.1191  0.1263 -0.2787
54133W        W97149  11.560  16.174  28.895  0.0953 -0.2091  0.0562
54134W        W97150  33.986  21.857  14.601 -0.0305 -0.2157 -0.0028
54135W        W97151  12.746   8.559   9.777 -0.1842 -0.0893  0.3563
54136W        W97152   0.804  14.293  25.427  0.3772  0.0425  0.1426
54137W        W97153   5.004  24.473   2.637 -0.0039 -0.4320  0.2228
54138W        W97154  14.472  21.104   5.802  0.0110  0.2107  0.0787
54139W        W97155   3.216  14.132   7.263 -0.2326 -0.1220  0.1184
54140W        W97156  32.187  18.550   2.130  0.0305 -0.0156  0.2462
54141W        W97157   0.442  26.390  25.742  0.1071  0.1553  0.0868
54142W        W97158  26.120  21.822   4.839  0.1588  0.0845 -0.0368
54143W        W97159  12.420  12.103   0.528  0.1130 -0.1089  0.0662
54144W        W97160  33.830  21.023   6.875 -0.0830  0.0814 -0.2229
54145W        W97161   9.821  19.414  28.155  0.2244 -0.0733 -0.0108
54146W        W97162  32.086  34.516  23.682  0.2552  0.0097 -0.0358
54147W        W97163  27.453  11.938   3.333 -0.3443  0.0229 -0.1146
54148W        W97164  26.008  17.634  24.944 -0.1131 -0.2463 -0.0780
54149W        W97165  30.587  27.123   1.991  0.1743 -0.1571 -0.1944
54150W        W97166  16.766  20.852   5.178 -0.0237 -0.0048 -0.1254
54151W        W97167   8.176  10.053   3.004 -0.0118  0.3570 -0.3064
54152W        W97168  26.960   4.521  25.606  0.1492 -0.1134 -0.0019
54153W        W97169  17.166  11.549  27.735  0.2219 -0.1047  0.1337
54154W        W97170  33.395  24.155  10.527 -0.0926 -0.0550 -0.0537
54155W        W97171   8.453  18.836  19.948 -0.0413  0.1049  0.3579
54156W        W97172  33.227  25.437   7.647 -0.2493  0.1702 -0.0912
54157W        W97173  20.460  19.646   8.853  0.3602 -0.2683  0.1289
54158W        W97174  28.354  19.916   9.438 -0.0624 -0.0417 -0.0051
54159W        W97175   6.055  18.940   8.306  0.2787 -0.3194  0.0327
54160W        W97176   1.395  22.340   1.700  0.0716  0.1568  0.0034
54161W        W97177  28.780  18.959   6.467 -0.0324 -0.5790  0.6420
54162W        W97178  34.087  11.650   9.882 -0.4109  0.2428  0.0926
54163W        W97179  14.476  23.855  12.637 -0.0491  0.0605  0.1111
54164W        W97180  18.011   3.635   3.036  0.0096  0.2690  0.3090
54165W        W97181   3.648  12.329  27.693  0.1850 -0.1070 -0.1345
54166W        W97182  26.743  12.633  20.654 -0.1923  0.0995  0.4096
54167W        W97183   0.428  18.051   2.554 -0.0691 -0.1327 -0.1963
54168W        W97184   1.394  30.429   3.415 -0.2688 -0.0449 -0.2099
54169W        W97185   1.425  28.178  25.746  0.2525  0.0168  0.0502
54170W        W97186  31.517  12.095   5.172 -0.2084  0.2308 -0.0922
54171W        W97187  31.871  18.603   6.082 -0.0069 -0.2019 -0.1857
54172W        W97188  20.075  20.517   6.304  0.0678 -0.1314 -0.2364
54173W        W97189  18.945   6.277  15.128  0.0215  0.1229 -0.3539
54174W        W97190  23.492  20.453   8.068  0.0962  0.4441 -0.0389
54175W        W97191  33.605  18.413   8.167 -0.1374  0.2730  0.0051
54176W        W97192   2.433   8.268   0.498 -0.0177  0.4109 -0.0375
54177W        W97193  26.052  27.231  26.824 -0.0303  0.1626  0.0558
54178W        W97194  14.369  34.763   6.784 -0.0296 -0.0533 -0.2062
54179W        W97195  13.972  13.669   5.341  0.1673  0.4997 -0.2744
54180W        W97196  26.794  22.286   8.801 -0.0688 -0.0280  0.1450
54181W        W97197  17.293  28.853   7.949  0.0349 -0.1489  0.1862
54182W        W97198   8.776  21.684  29.159 -0.0280 -0.3112 -0.1348
54183W        W97199  27.176   4.122  26.989  0.0716 -0.0449 -0.0630
54184W        W97200   5.007  12.801  21.262  0.2175 -0.1314 -0.0992
54185W        W97201  28.495  28.531   4.874 -0.2049  0.2252  0.0975
54186W        W97202  34.612  20.314  18.616 -0.0547  0.3330 -0.0065
54187W        W97203  24.065  19.361  26.418 -0.0856  0.0220  0.2832
54188W        W97204   1.498   6.596  26.478 -0.0551  0.0404  0.1314
54189W        W97205   2.386  14.502   7.321  0.2386 -0.2166  0.2381
54190W        W97206   7.844  22.169   4.700 -0.0442 -0.0536 -0.1830
54191W        W97207   8.657  11.768   8.275  0.1725 -0.1026  0.1448
54192W        W97208  19.464  28.550   8.176  0.1871 -0.1602 -0.0801
54193W        W97209  23.875  19.735  18.030  0.4282  0.0277 -0.1692
54194W        W97210  11.850   8.449  22.392 -0.0035  0.1762  0.1133
54195W        W97211  24.972  16.517   8.116 -0.2066 -0.0755 -0.2742
54196W        W97212   4.427  21.981   4.613  0.0760  0.0527 -0.0648
54197W        W97213   8.927  21.947  28.727 -0.1335 -0.0724 -0.1492
54198W        W97214  28.677   8.942   2.135 -0.2509 -0.1297  0.0863
54199W        W97215  11.354  30.405  27.502 -0.4302  0.1127 -0.0852
54200W        W97216   4.912  12.809  25.741  0.1311  0.2311  0.0002
54201W        W97217  14.143  16.475  27.236 -0.0065  0.2981  0.2308
54202W        W97218   2.545   2.620  10.070 -0.0171 -0.2660 -0.1267
54203W        W97219  11.542  24.969  24.136  0.1708 -0.0055 -0.1871
54204W        W97220  19.243  21.934  13.489  0.2899  0.1142  0.0236
54205W        W97221  19.411  10.319   8.358 -0.1078  0.2718 -0.0698
54206W        W97222  16.085   6.277   0.111 -0.0200 -0.0406  0.1660
54207W        W97223  30.125  10.878   5.214  0.4461  0.1277 -0.0413
54208W        W97224   1.020  21.112  15.030  0.3109  0.1909 -0.1768
54209W        W97225  19.117  23.355  27.537  0.2597 -0.0096 -0.1292
54210W        W97226  31.859  17.851   5.514  0.1290 -0.2119 -0.3627
54211W        W97227   8.995  14.391   1.934  0.2202  0.0981 -0.2034
54212W        W97228   3.368  29.599   8.595  0.0292  0.2850  0.2107
54213W        W97229  34.540   0.517   7.670 -0.1183 -0.1916 -0.0135
54214W        W97230   7.162  22.241   5.519  0.1405  0.0532 -0.3045
54215W        W97231  21.455  14.190   6.754  0.0587  0.1300  0.2257
54216W        W97232   2.100  26.719   7.121  0.1003  0.3644 -0.3848
54217W        W97233  15.848  21.241  12.264  0.3274  0.0264  0.1992
54218W        W97234  28.218   9.020  25.588  0.2191 -0.2112  0.1897
54219W        W97235  23.999  19.843   8.389  0.0549  0.1656  0.0385
54220W        W97236  16.566  16.835   3.318 -0.2262  0.3282 -0.1953
54221W        W97237  10.801  14.342  27.632  0.1422  0.0455 -0.2246
54222W        W97238  11.193  21.331   7.023  0.4434  0.2179 -0.0180
54223W        W97239  12.255  27.087   3.903  0.3655 -0.1254 -0.3806
54224W        W97240  23.793  14.146   4.577 -0.2322 -0.0174  0.2273
54225W        W97241  31.701  22.946   4.485  0.0414  0.0630  0.1414
54226W        W97242   8.398  23.253   3.563 -0.0889  0.0416  0.2736
54227W        W97243  27.128   6.984   4.111 -0.1629 -0.1462 -0.3517
54228W        W97244   3.196   8.956   2.381 -0.0194 -0.1139  0.2956
54229W        W97245  25.027   9.364   0.180  0.1325 -0.2239 -0.0707
54230W        W97246  26.815  21.818  10.016 -0.0570  0.1909 -0.2380
54231W        W97247   6.980  11.132   9.545  0.2199  0.1147  0.0451
54232W        W97248  12.100  15.297   3.457  0.1157 -0.0203  0.0841
54233W        W97249  27.029   4.141  15.664  0.0649  0.0026  0.0979
54234W        W97250   6.559  14.519  25.390  0.1449 -0.3589 -0.0911
54235W        W97251  28.010  24.266   7.155  0.1424  0.2834 -0.1299
54236W        W97252  29.945  21.142   2.321  0.1486  0.0306  0.0950
54237W        W97253  27.385  17.929  23.085  0.0855 -0.1073 -0.0869
54238W        W97254   4.979  26.795   0.755  0.0901 -0.0143 -0.0087
54239W        W97255   3.478  15.182   0.175 -0.3287  0.0832 -0.1293
54240W        W97256   4.344  24.745   8.589  0.1822  0.1551 -0.1504
54241W        W97257  32.717  23.346   8.577 -0.0011  0.1926 -0.0171
54242W        W97258   4.254  17.943  25.801  0.0212  0.2211 -0.0635
54243W        W97259   5.324  17.035   0.631 -0.2391 -0.0986  0.0431
54244W        W97260  34.625  15.009  21.740  0.0310  0.2158  0.0210
54245W        W97261   1.386  33.576   2.716  0.0062 -0.0643  0.0271
54246W        W97262  16.156  26.370   1.586  0.2290  0.0138  0.1452
54247W        W97263  27.244  24.536   1.263 -0.3138 -0.2986  0.0329
54248W        W97264  33.455  14.851  28.673  0.2649 -0.2246  0.2140
54249W        W97265  23.125  14.940  27.698  0.1171 -0.1382  0.3305
54250W        W97266  31.158  25.888   2.352  0.0424 -0.0934  0.0178
54251W        W97267   2.851  31.501  21.001 -0.2103  0.2292 -0.1620
54252W        W97268   8.372  18.457   4.623 -0.0164 -0.1702 -0.2080
54253W        W97269  22.599   3.062   1.837 -0.1896 -0.0404 -0.1937
54254W        W97270  16.833  21.018   2.907  0.1224  0.1476 -0.3838
54255W        W97271  16.655  30.513   4.919  0.1474 -0.5197 -0.1042
54256W        W97272  34.237  20.568  26.286  0.0653  0.2600 -0.1375
54257W        W97273  28.209  13.776  17.543  0.0873  0.1031  0.0065
54258W        W97274  31.466  18.568  15.277  0.1605 -0.2542  0.2357
54259W        W97275   7.783  23.849   4.166  0.1461  0.0305  0.1980
54260W        W97276   9.147  21.115  24.872 -0.1440  0.0053  0.1000
54261W        W97277  29.360  22.318  10.808 -0.0643 -0.2408  0.1016
54262W        W97278   0.338  11.902   7.677 -0.0364  0.0660  0.3834
54263W        W97279  30.532   0.844   7.990 -0.3367  0.0292  0.1346
54264W        W97280   7.016  19.563   4.273 -0.1921 -0.1865  0.2638
54265W        W97281  30.553   2.309   4.851  0.0873 -0.1876  0.0683
54266W        W97282  20.798  15.238  29.202  0.1080  0.3291  0.0506
54267W        W97283  14.174  17.130   4.495 -0.0770 -0.0967 -0.2138
54268W        W97284  10.897  10.988   5.369 -0.2805 -0.0720 -0.2505
54269W        W97285  22.725  13.571   8.936 -0.0372 -0.0854  0.1703
54270W        W97286   9.926  17.047  22.048 -0.1654  0.1695  0.1174
54271W        W97287  27.820  24.396   4.883 -0.1051  0.1882  0.2207
54272W        W97288  10.330  27.927   5.050  0.2841 -0.1613 -0.0433
54273W        W97289   6.673  23.239  16.203 -0.1420 -0.1157  0.2185
54274W        W97290   7.009  23.346  23.869 -0.0936 -0.1134 -0.2866
54275W        W97291  26.951   8.156  28.884  0.1396 -0.2506  0.0551
54276W        W97292  32.782  17.093  10.975 -0.0919  0.0236 -0.1703
54277W        W97293   4.016  26.158   1.702 -0.1289  0.0047 -0.0483
54278W        W97294   0.743  13.887  27.415 -0.1667  0.3772  0.0794
54279W        W97295  27.983  27.890   7.938  0.0319 -0.3132  0.0025
54280W        W97296   0.026  24.161  27.113 -0.3792 -0.0402 -0.2284
54281W        W97297   4.096  34.051  22.821  0.0592 -0.0973 -0.1707
54282W        W97298   8.790  18.746   5.240  0.0568 -0.0735  0.1494
54283W        W97299   0.327  21.073   6.655  0.0773  0.1798 -0.0066
54284W        W97300   1.261  14.583  24.458 -0.0597  0.1441 -0.3448
54285W        W97301  26.360   1.266   1.072 -0.1109 -0.1985  0.1571
54286W        W97302  14.033   4.988  19.089  0.1176  0.1071 -0.0458
54287W        W97303   9.839  19.789   9.190  0.0911 -0.2459 -0.0415
54288W        W97304  29.807  19.332   9.041 -0.2491 -0.2272  0.0567
54289W        W97305  10.409  21.905   1.222 -0.1758  0.0040  0.0180
54290W        W97306   9.548  20.635   8.949  0.1005 -0.1875  0.0390
54291W        W97307  11.751  24.618   7.401 -0.1744 -0.0428 -0.1775
54292W        W97308  28.646  11.267   3.410 -0.0714 -0.0980 -0.0663
54293W        W97309   0.760  28.839  10.517  0.3255  0.0622 -0.1175
54294W        W97310   1.103  25.435   6.525  0.1619  0.1595 -0.1835
54295W        W97311   0.057  21.453  16.605  0.0884 -0.1521 -0.3553
54296W        W97312   7.925  13.270   0.620 -0.2053  0.0732  0.0796
54297W        W97313   4.911  25.049   1.043  0.3656  0.1924  0.0832
54298W        W97314  30.013   6.896   7.738 -0.0066 -0.2130  0.1928
54299W        W97315   8.057  33.322   2.817  0.1588 -0.3961  0.2096
54300W        W97316  12.217  14.676  16.676 -0.0548 -0.2493 -0.2089
54301W        W97317   6.284  23.931  21.522 -0.1464 -0.0833 -0.0415
54302W        W97318  21.518  18.241  29.087  0.0146 -0.1747  0.0781
54303W        W97319   9.503   9.269   8.167  0.1309  0.3380 -0.0652
54304W        W97320  12.315   3.718  18.769  0.0800 -0.1144 -0.0573
54305W        W97321  24.272  20.149  20.415  0.0544 -0.3006 -0.0121
54306W        W97322   8.749  15.170   9.630 -0.1400  0.0728 -0.1617
54307W        W97323   9.115  24.336   5.276 -0.0224  0.0822 -0.2037
54308W        W97324   4.005   5.101   5.428  0.1829  0.0687  0.1861
54309W        W97325   8.143  29.314  21.027  0.0744  0.2879 -0.0190
54310W        W97326  29.747   9.851   7.854  0.2580 -0.2088 -0.2018
54311W        W97327  19.732  15.154   0.699  0.1465  0.2847 -0.1211
54312W        W97328  14.616  24.196   4.127 -0.1768 -0.2840  0.0718
54313W        W97329  13.006  27.539   8.452  0.0304  0.1056  0.1357
54314W        W97330  27.766  19.953  21.658  0.0556 -0.1159  0.0974
54315W        W97331   4.161   0.809   2.528  0.0052 -0.2052 -0.0148
54316W        W97332  15.482  11.855  28.747 -0.2404  0.4325  0.1140
54317W        W97333  18.854  11.197   6.027 -0.0919  0.0891 -0.3388
54318W        W97334  31.742  13.614   6.422 -0.1278 -0.1038 -0.0199
54319W        W97335   6.781  27.700   8.588 -0.0103  0.2449 -0.1746
54320W        W97336   4.722   5.495   4.734  0.2345  0.1751  0.1250
54321W        W97337   2.228  20.212  27.143  0.2297  0.1222 -0.1152
54322W        W97338  29.622   5.952   0.953 -0.0037  0.1115  0.0078
54323W        W97339  31.403  27.856   2.597 -0.1369 -0.0972  0.4329
54324W        W97340  23.283  17.871   8.458  0.5952 -0.1157 -0.0944
54325W        W97341  28.723   8.470   1.407  0.2414 -0.0266 -0.2448
54326W        W97342   4.550  23.778   5.968 -0.1563  0.2524 -0.0493
54327W        W97343   6.636  29.073  24.965  0.4788 -0.2111 -0.0479
54328W        W97344  10.380  13.784   7.278  0.2218 -0.1520 -0.1406
54329W        W97345  20.478  26.415   1.372 -0.3902  0.3083  0.1368
54330W        W97346  19.594  12.525  19.089  0.1142 -0.0402 -0.0006
54331W        W97347  31.349  16.782  26.744 -0.2982  0.2915  0.0034
54332W        W97348  27.141  16.830   3.667  0.0439  0.1315  0.1375
54333W        W97349  26.792   3.889  27.898  0.0970  0.0705  0.1256
54334W        W97350  24.785  33.362   6.178 -0.0339  0.1585 -0.0452
54335W        W97351  30.701  32.081   3.877  0.2456  0.2778  0.2612
54336W        W97352  13.874  26.653  24.543  0.2219 -0.0112 -0.3396
54337W        W97353  11.748  11.330   9.505  0.0421  0.0542  0.2403
54338W        W97354  34.048  14.778  20.466  0.0390  0.1879 -0.1856
54339W        W97355  10.036  20.963   1.084 -0.1305  0.3018 -0.1117
54340W        W97356  28.632  33.693  17.124 -0.1137 -0.0529  0.3059
54341W        W97357   0.621  15.430   9.673 -0.1613 -0.2672 -0.0738
54342W        W97358   0.399  26.402  21.625 -0.1244  0.1792  0.1012
54343W        W97359  14.863  22.318  21.826 -0.0810 -0.0538  0.3140
54344W        W97360  28.440  19.247  27.666 -0.0202  0.4335 -0.3204
54345W        W97361  18.843  23.651  26.209 -0.4167 -0.0245 -0.1709
54346W        W97362   7.238  16.347   8.680 -0.0373  0.1058  0.0296
54347W        W97363   1.908   2.028   2.113 -0.3122  0.0098  0.0243
54348W        W97364   8.376  15.074   3.134 -0.2944  0.3240 -0.1077
54349W        W97365  30.406   3.556   4.579 -0.0581 -0.1432 -0.1224
54350W        W97366  15.569  17.976   1.609  0.3915  0.1012  0.0679
54351W        W97367  14.661  20.809   1.114 -0.0699 -0.4154 -0.2932
54352W        W97368  19.778  21.046  16.131  0.1771 -0.2096  0.0265
54353W        W97369  27.771   8.362  23.499  0.0010 -0.1648  0.0049
54354W        W97370   6.036  24.248   9.775 -0.1117  0.0584 -0.0090
54355W        W97371  28.842  18.074   8.262 -0.1652 -0.1316  0.2758
54356W        W97372  29.601   3.111   4.475  0.3268  0.1596  0.1230
54357W        W97373  20.959  17.696  14.587  0.2522 -0.2466 -0.1038
54358W        W97374  12.760  13.926   8.890 -0.4564  0.0971  0.1269
54359W        W97375  19.044   8.248   4.142 -0.0052 -0.3891 -0.2379
54360W        W97376  29.995  30.427   6.464 -0.0520 -0.1713 -0.1761
54361W        W97377  31.605  14.532   7.432 -0.2797  0.0730 -0.0668
54362W        W97378   3.413  12.356   6.461  0.0383  0.2140  0.1429
54363W        W97379  15.144  26.310  15.049 -0.0504  0.4350 -0.1012
54364W        W97380   1.202  33.074   5.940 -0.0859 -0.0305 -0.1099
54365W        W97381  17.484  16.094   0.410 -0.0774  0.1480  0.1582
54366W        W97382   2.743  10.785  18.846 -0.0067 -0.1246 -0.0308
54367W        W97383  31.082  23.828   7.285 -0.0234  0.0071  0.0432
54368W        W97384  30.228  14.190   4.360 -0.2389 -0.1500 -0.0938
54369W        W97385  27.631   5.583  10.769 -0.1031  0.0429  0.0307
54370W        W97386   3.000  17.167   0.453  0.2426 -0.0894  0.0748
54371W        W97387   4.684  21.403  21.760 -0.2222 -0.2026 -0.1686
54372W        W97388   1.639  23.157  22.495 -0.1628 -0.2598 -0.1437
54373W        W97389  29.834  20.867   0.430 -0.1574  0.0473 -0.2006
54374W        W97390  16.464   6.768   6.936  0.0320 -0.3781  0.2702
54375W        W97391   7.945  12.603   4.443 -0.1630 -0.2963  0.1418
54376W        W97392   3.050  13.815   9.245 -0.4136  0.1489  0.2521
54377W        W97393   6.384  18.454  25.653  0.1320 -0.1878 -0.1355
54378W        W97394  23.164  27.042  16.364 -0.0286  0.1434 -0.1649
54379W        W97395   6.414  20.341   6.011  0.1884 -0.1348 -0.0387
54380W        W97396  34.631  16.852   8.048  0.4124 -0.3412  0.0165
54381W        W97397  22.114   7.484   8.019  0.0312 -0.1233  0.2583
54382W        W97398   1.296  17.342  26.566  0.0716 -0.2368  0.2371
54383W        W97399   6.421  17.559   7.266 -0.3208  0.3038 -0.0608
54384W        W97400   2.404  29.066   9.599 -0.0755 -0.3983  0.0067
54385W        W97401  26.805  16.151   4.241 -0.1278  0.4533 -0.2320
54386W        W97402  34.489  11.530   6.380  0.0852 -0.0254 -0.0213
54387W        W97403  34.085  14.976   4.933 -0.0814 -0.0493 -0.2326
54388W        W97404   0.851  30.408  21.734  0.2272 -0.1666 -0.0943
54389W        W97405  30.942  10.581  26.755  0.0248  0.1457 -0.0698
54390W        W97406  29.670  26.697   9.532  0.0421  0.1600 -0.4172
54391W        W97407   2.300  33.800   1.081  0.1206  0.2060  0.2424
54392W        W97408  22.760   9.336   8.907  0.0447  0.0432  0.2459
54393W        W97409  11.000  30.426   8.126 -0.1331  0.0380 -0.2270
54394W        W97410  23.070  19.078   5.941  0.0680  0.1513  0.0464
54395W        W97411  28.360  14.283  28.759 -0.0895  0.3571 -0.1214
54396W        W97412  21.112  32.651  15.965 -0.3639  0.1002 -0.2443
54397W        W97413  28.216  26.711   2.579 -0.1189 -0.2397  0.0077
54398W        W97414   7.075  23.521   9.115  0.1030 -0.1852  0.0435
54399W        W97415   2.617  30.298   6.017 -0.2278 -0.2145  0.0076
54400W        W97416   1.135  33.702  16.181  0.0692 -0.2763  0.3994
54401W        W97417  17.404  21.620   2.668  0.1506  0.2800 -0.1297
54402W        W97418  20.545  18.191   3.312 -0.0742  0.0617 -0.0665
54403W        W97419  29.248  15.733   2.279 -0.0010 -0.2276  0.2428
54404W        W97420  27.249  26.374   9.789  0.1757  0.2529  0.1773
54405W        W97421  29.014  14.940   4.804  0.3601  0.2298 -0.0546
54406W        W97422  21.614  18.078   0.400 -0.2421 -0.1663  0.4417
54407W        W97423  25.413  28.239   0.568 -0.0625 -0.0626  0.3864
54408W        W97424  19.017  17.555   6.675 -0.2957 -0.0085  0.0276
54409W        W97425   1.016  17.776   7.776 -0.4275 -0.1613  0.3268
54410W        W97426  23.846   6.178  25.569 -0.3243  0.2177 -0.2343
54411W        W97427  32.216  24.295   9.631  0.0866 -0.1452 -0.3232
54412W        W97428  20.044  22.948   5.492 -0.2368  0.2088  0.2642
54413W        W97429   1.989  22.972   3.992 -0.2379 -0.0812 -0.0299
54414W        W97430  10.448  17.753  23.301  0.1272 -0.1262  0.1090
54415W        W97431  10.605  15.276   2.611  0.0056  0.0027  0.1007
54416W        W97432  11.066  14.696   5.335  0.0459 -0.1945 -0.1728
54417W        W97433  33.626   5.289   6.728  0.1074 -0.2685  0.0596
54418W        W97434   8.891  31.225   9.393 -0.2931  0.2371 -0.3020
54419W        W97435   3.687  15.424   7.112  0.1364 -0.3121 -0.1060
54420W        W97436  10.372  16.879  14.959  0.1158  0.0387 -0.2144
54421W        W97437   3.382  29.533  16.561  0.4286 -0.2589 -0.1689
54422W        W97438   6.896  28.965   1.389 -0.1300 -0.0820  0.1931
54423W        W97439  34.374  23.718  23.837  0.1840  0.2458 -0.4191
54424W        W97440  34.227   9.339   9.126  0.2302 -0.1195  0.0226
54425W        W97441  18.733  19.430  28.928  0.0742  0.0784 -0.1663
54426W        W97442   8.483  17.403  26.108  0.3340 -0.3154  0.2827
54427W        W97443  21.673   0.309   4.152  0.2376 -0.0725 -0.1192
54428W        W97444  34.638  18.289   7.239 -0.1213  0.1487 -0.1346
54429W        W97445   2.239   9.818   4.469 -0.3503  0.0341  0.2147
54430W        W97446   6.869  20.351   1.679  0.0741 -0.0099 -0.0125
54431W        W97447   6.893  20.840  24.987  0.0495  0.1404  0.1712
54432W        W97448  33.897  20.315   0.259 -0.0873 -0.0561 -0.0692
54433W        W97449  23.224  23.926   6.705 -0.0592  0.0344  0.0859
54434W        W97450  30.869  22.906   6.052  0.1083 -0.0526  0.1153
54435W        W97451  12.219  15.618   2.219 -0.0455 -0.3666  0.1150
54436W        W97452  32.759   3.512  20.091  0.0959 -0.0118  0.0836
54437W        W97453  23.257   6.570  23.593 -0.0875  0.0890 -0.0090
54438W        W97454  11.761  30.305   4.963 -0.3036  0.0025 -0.3465
54439W        W97455   7.530  17.095   9.034  0.0985  0.1137  0.0679
54440W        W97456   2.576  17.863   1.802  0.1017 -0.4337 -0.1248
54441W        W97457  25.214  22.714   4.840 -0.1326  0.0023 -0.4363
54442W        W97458  16.440  17.674   4.491  0.0260 -0.2229  0.0978
54443W        W97459  26.854   9.890  24.610  0.1674 -0.1362 -0.0053
54444W        W97460  24.904  16.004   1.259  0.2926  0.2448 -0.0321
54445W        W97461  32.589  21.908   4.230  0.1800 -0.4031  0.3117
54446W        W97462  12.083  13.138   3.210 -0.0916  0.3223  0.0798
54447W        W97463  30.784  18.856   5.436 -0.2215  0.2259 -0.4302
54448W        W97464   3.894  19.756   3.072 -0.0037 -0.0646 -0.0721
54449W        W97465  33.167  27.418   0.821  0.1561  0.1964 -0.1408
54450W        W97466  31.463  10.420  27.709  0.1049  0.3883 -0.0760
54451W        W97467  26.951  12.239   2.654 -0.1851  0.2173 -0.1744
54452W        W97468   1.824   4.779   3.219  0.1288  0.0749 -0.3001
54453W        W97469  34.360  33.348   2.129 -0.1483  0.3045  0.0399
54454W        W97470  25.127  22.285  10.031 -0.0687  0.3653  0.1504
54455W        W97471   9.424  15.889   3.445 -0.0222  0.0431 -0.2733
54456W        W97472   0.113  15.216  20.450  0.0551  0.1259  0.0253
54457W        W97473   5.089  27.925  16.395 -0.0740 -0.0453  0.3112
54458W        W97474   0.024   9.331   7.284 -0.0210  0.3380  0.1352
54459W        W97475  23.569  27.721  27.727  0.0711 -0.2298  0.2272
54460W        W97476  34.619  32.771   6.045  0.0061  0.0448  0.0005
54461W        W97477  20.628  18.727   6.036 -0.2370 -0.1475 -0.4006
54462W        W97478  13.309  13.238  21.455 -0.2038 -0.2984  0.1177
54463W        W97479  24.834  29.922   9.941  0.1859 -0.3864 -0.0077
54464W        W97480   5.397  31.071  25.461 -0.1606 -0.0180  0.2860
54465W        W97481  27.326  17.128   9.876 -0.0050  0.1594 -0.0180
54466W        W97482  34.088  17.246  25.607  0.0551  0.0826 -0.0625
54467W        W97483   0.470  11.451   7.395 -0.1992  0.0180  0.1518
54468W        W97484  11.736  26.106  18.045 -0.1319  0.0821 -0.1542
54469W        W97485  30.390  17.860  21.939  0.2639  0.1080  0.2135
54470W        W97486   4.974  33.816   3.557  0.1209  0.1689  0.2094
54471W        W97487  13.804  28.280   2.592 -0.1481  0.2309  0.2055
54472W        W97488   8.608  14.916  29.037 -0.2315  0.1470  0.0776
54473W        W97489  17.289   4.844   1.773 -0.1309 -0.3031 -0.3148
54474W        W97490   2.042  20.469  29.207  0.1759 -0.0585  0.0603
54475W        W97491  33.474  26.654  28.172  0.3097 -0.4791 -0.3320
54476W        W97492   8.115  19.378   1.229 -0.0394 -0.1434 -0.0766
54477W        W97493  34.610   8.693   8.539 -0.3708  0.0340 -0.1448
54478W        W97494   4.251  34.720   7.729  0.1307  0.1553 -0.0963
54479W        W97495   1.636  23.122   6.787 -0.1534  0.0814 -0.0521
54480W        W97496  26.407  20.291  28.214  0.0790 -0.0970 -0.1161
54481W        W97497   0.136  25.261  25.651 -0.1864 -0.0063  0.1388
54482W        W97498  32.716  23.171   9.612  0.1111 -0.0318 -0.2592
54483W        W97499   8.693  19.603   2.669  0.0786  0.1589 -0.3681
54484W        W97500   8.448  25.626  25.260  0.0110  0.3536 -0.2041
54485W        W97501  12.976  26.432   7.617 -0.0575 -0.0366 -0.1116
54486W        W97502   4.854  26.605  17.577 -0.1566 -0.1441  0.2752
54487W        W97503  19.088  25.324   5.763  0.1505  0.1264 -0.0312
54488W        W97504   6.530  28.954   7.212  0.0151  0.1568 -0.0379
54489W        W97505  16.745   3.351   7.946 -0.0520  0.1975 -0.1740
54490W        W97506  10.611   7.954   8.909 -0.0205 -0.0457 -0.3363
54491W        W97507   1.682  13.056   6.209  0.2091  0.0216 -0.0746
54492W        W97508  27.191  24.444   9.952 -0.2408 -0.0494 -0.3792
54493W        W97509  16.107  13.425   8.480 -0.1987  0.2528 -0.1620
54494W        W97510   0.512  16.173   5.091  0.2149 -0.1047 -0.2087
54495W        W97511  34.389   3.011  10.581 -0.1428  0.1437 -0.0330
54496W        W97512  12.329  10.245   3.221 -0.1226  0.1531  0.2652
54497W        W97513  30.126   3.915   8.288  0.0089  0.0825 -0.2170
54498W        W97514   3.064  25.195   5.297 -0.0058  0.1526 -0.0309
54499W        W97515  34.404  13.467   4.256  0.0498  0.2442 -0.0795
54500W        W97516  10.113  23.712   3.868  0.3987  0.0008  0.0193
54501W        W97517  31.649   9.608   8.824  0.0799 -0.1597  0.0145
54502W        W97518  33.102  19.069  11.246  0.0995 -0.2874  0.2291
54503W        W97519   6.707   0.315   1.815  0.2935 -0.1590  0.3708
54504W        W97520   5.457  31.357   5.922 -0.1268  0.1513  0.1308
54505W        W97521   2.558  31.279   3.163 -0.0326  0.1423  0.0074
54506W        W97522  34.743  13.173   6.279 -0.0046  0.3878  0.1250
54507W        W97523  31.451  22.624   3.257 -0.2725  0.1067  0.1621
54508W        W97524  20.257  12.739   5.083 -0.1639  0.4541  0.2517
54509W        W97525  11.286  19.440   8.910 -0.1488 -0.1024  0.0245
54510W        W97526   2.308  17.764  29.127 -0.3569 -0.1343  0.3481
54511W        W97527   5.055  24.873   1.923 -0.0124  0.1959  0.2167
54512W        W97528  29.304  21.894   8.766  0.0769  0.0117  0.2436
54513W        W97529   7.237  13.619   9.834  0.1446 -0.5261 -0.2611
54514W        W97530  21.798  26.794   0.906  0.0838  0.0893 -0.2729
54515W        W97531   3.348  31.779   5.807 -0.1660 -0.0227  0.0169
54516W        W97532   2.966  17.587   1.660  0.0590 -0.0316  0.0971
54517W        W97533  15.393  14.670  25.224 -0.1925  0.1829 -0.2810
54518W        W97534  12.886  11.303   6.116 -0.3333 -0.0737  0.0061
54519W        W97535  31.877  16.155   9.752 -0.1422  0.3520  0.0361
54520W        W97536  31.180  17.817   5.061 -0.0174  0.2833 -0.1092
54521W        W97537  16.060  31.191  28.520 -0.1979  0.0539 -0.0488
54522W        W97538  21.608  31.191   7.113  0.4236 -0.4218 -0.4926
54523W        W97539   0.037  18.825  18.851 -0.1416 -0.2526 -0.0748
54524W        W97540   2.811  21.633   7.912  0.3301 -0.2551  0.3094
54525W        W97541  11.077  11.171   8.919  0.0940  0.4754 -0.0056
54526W        W97542  10.351   8.962   7.230 -0.0010  0.3992  0.0129
54527W        W97543  32.463  29.983   9.127  0.0511 -0.0540 -0.1678
54528W        W97544  15.637  32.826  10.433 -0.1828 -0.1928  0.2033
54529W        W97545  28.815  24.442  26.572  0.2423  0.0749 -0.1801
54530W        W97546   5.093  18.880   4.700 -0.2100 -0.1696 -0.3330
54531W        W97547   3.448   5.830   0.748  0.1418  0.0550 -0.0009
54532W        W97548  24.038   7.100  20.110  0.1430  0.1483  0.1194
54533W        W97549  19.295   7.977   7.806  0.0750 -0.0238 -0.1125
54534W        W97550   1.525   9.594  10.670 -0.1362 -0.2325 -0.0128
54535W        W97551  28.995  23.557   9.732 -0.4759  0.1814  0.0412
54536W        W97552  18.597  10.221   0.474  0.0644 -0.1084  0.0424
54537W        W97553  34.675  20.305   8.671 -0.0833 -0.2952  0.2230
54538W        W97554   9.473  12.648   5.554 -0.3189  0.1588  0.4134
54539W        W97555  13.696   4.157   6.509  0.3264 -0.2729 -0.1127
54540W        W97556  22.612  33.667   8.785  0.0686  0.0903  0.0476
54541W        W97557  22.421  29.718   2.697 -0.1046 -0.0601  0.3605
54542W        W97558  29.187  19.836   3.221 -0.3623 -0.0067  0.1679
54543W        W97559  19.116  21.535   6.702 -0.1573 -0.1636  0.2970
54544W        W97560   3.744  16.656   0.875 -0.1714  0.1187 -0.0493
54545W        W97561  19.301   9.554  29.261 -0.1490  0.2538  0.0306
54546W        W97562  32.403  16.237   9.968 -0.1789  0.1817  0.2858
54547W        W97563   2.187  12.296   9.331  0.0610  0.2510 -0.0273
54548W        W97564  33.271  12.423  28.310  0.0079  0.2918 -0.1275
54549W        W97565  19.875  18.584  23.008 -0.1103  0.2131 -0.0700
54550W        W97566   9.176  13.098  25.532  0.0619 -0.0930 -0.1778
54551W        W97567   2.026   6.504  20.213 -0.2210  0.0532  0.0106
54552W        W97568  21.184   9.778  18.244  0.0461 -0.0214  0.1017
54553W        W97569   7.868  24.499   7.951  0.1580  0.4433  0.0674
54554W        W97570   6.527   8.752   6.515 -0.0956 -0.2104  0.0151
54555W        W97571  22.305  13.213   2.370 -0.4460  0.0455 -0.0139
54556W        W97572  32.038   1.042   5.044 -0.3084 -0.1171 -0.1217
54557W        W97573  24.974   2.915   9.253 -0.0284  0.0273 -0.2277
54558W        W97574  33.172  25.040  26.789 -0.0245  0.0413 -0.0345
54559W        W97575   3.079  24.413  26.803  0.1797 -0.3033  0.0828
54560W        W97576   0.613  17.722   0.368  0.2951 -0.0161  0.0162
54561W        W97577  25.859  20.960  25.225  0.0921  0.1406 -0.2419
54562W        W97578  34.308   5.383   5.678  0.1693  0.2199 -0.4168
54563W        W97579  29.910   2.808  28.414  0.2076  0.0217 -0.0722
54564W        W97580  15.894   0.479   4.995 -0.0603  0.3897  0.0226
54565W        W97581   9.239  12.880   5.042  0.0268 -0.1429  0.1448
54566W        W97582   6.234   6.394   3.206  0.1196 -0.0420 -0.1755
54567W        W97583  17.239  24.659   8.148  0.0662  0.0017 -0.2073
54568W        W97584   0.398  14.538  22.865  0.0745 -0.1375  0.2348
54569W        W97585   3.824   0.188   3.475 -0.0506 -0.0329  0.1261
54570W        W97586  12.359  15.104  19.656  0.0497  0.1140  0.4297
54571W        W97587  26.112  16.194   8.404 -0.1577 -0.3864  0.2521
54572W        W97588  11.563   1.880   4.278  0.0127 -0.2571  0.0987
54573W        W97589   1.770   7.655   6.575 -0.1487 -0.2971  0.0316
54574W        W97590  14.825  24.615  25.175 -0.0202  0.0843  0.1651
54575W        W97591  31.373  27.689   9.651  0.2002 -0.5161 -0.2573
54576W        W97592   9.804  17.932   4.540 -0.1371 -0.2402 -0.2994
54577W        W97593   0.293  21.509   6.302 -0.0574  0.1484 -0.2178
54578W        W97594  11.704  20.519   0.607  0.0553 -0.0346 -0.1772
54579W        W97595  23.613  29.597   4.611  0.2222 -0.1045 -0.1333
54580W        W97596   9.246  14.978  27.208 -0.1103 -0.1668  0.4842
54581W        W97597   3.030  12.408   0.631 -0.2051 -0.1957 -0.3819
54582W        W97598  16.794  32.476  26.364  0.0977 -0.2582  0.1754
54583W        W97599  32.153  25.897  22.796  0.3669  0.5086  0.0381
54584W        W97600  19.011   0.826  15.374 -0.0655  0.3457 -0.0383
54585W        W97601  14.212  18.435   1.547 -0.0137 -0.2910  0.1885
54586W        W97602  19.033  27.621  26.835 -0.2299  0.0250 -0.2496
54587W        W97603   3.708   8.913  20.163  0.1834  0.1581  0.0128
54588W        W97604   7.307  17.051  16.204  0.2373  0.3037  0.1889
54589W        W97605  21.807  33.372  25.375  0.1310  0.1813 -0.0224
54590W        W97606  24.829  17.125  21.106  0.2110  0.0320  0.0044
54591W        W97607  22.345  25.614   5.577 -0.1426 -0.2065  0.0183
54592W        W97608   6.672  30.285   4.728 -0.0491 -0.1653 -0.1041
54593W        W97609  29.481  33.402  26.745  0.1866 -0.3032 -0.1966
54594W        W97610  32.725   1.617  24.725 -0.1865 -0.5344  0.0943
54595W        W97611  13.039  21.209   0.498  0.0252 -0.3140  0.0608
54596W        W97612  24.902  13.722   7.550  0.0784  0.1645  0.1171
54597W        W97613  30.155  31.563   1.655 -0.0199 -0.3288  0.0327
54598W        W97614  19.153  28.296  10.238 -0.0922  0.1521 -0.2379
54599W        W97615  26.413  20.617   3.816 -0.1374 -0.2596  0.2473
54600W        W97616  33.840  22.194  25.456  0.0428  0.0578  0.0033
54601W        W97617  28.540  10.907  28.569  0.1227 -0.1341  0.2538
54602W        W97618   1.747  17.469   6.031 -0.1499 -0.3133 -0.0600
54603W        W97619  23.544  10.604   9.549 -0.1414 -0.0318  0.2821
54604W        W97620  27.275  18.341   2.407 -0.2269  0.4428  0.3184
54605W        W97621  18.717  18.259  24.290  0.0254 -0.1034  0.0542
54606W        W97622  17.557  16.896  19.693 -0.0740  0.0656  0.1402
54607W        W97623  27.288  15.183   5.779 -0.3857 -0.0426  0.0970
54608W        W97624  18.821  16.627  23.061  0.0136  0.1182 -0.1539
54609W        W97625  33.754  33.075   7.921 -0.2161  0.0622 -0.1114
54610W        W97626  34.644  24.988   9.381 -0.0717  0.2000 -0.2504
54611W        W97627   2.028  23.678  21.606  0.3815  0.4657  0.1818
54612W        W97628  27.438   9.889  26.676 -0.0960  0.3516 -0.3944
54613W        W97629  21.669  15.153   2.778 -0.1451 -0.0851  0.1924
54614W        W97630  23.714  27.503  26.424 -0.0294 -0.0152 -0.0849
54615W        W97631  25.070  24.399   5.666 -0.0220 -0.2615 -0.1136
54616W        W97632   0.772  22.291  21.138  0.0987 -0.0735 -0.0224
54617W        W97633  26.180  30.016   4.368 -0.0450 -0.2705 -0.0300
54618W        W97634  13.558   6.687   0.857 -0.1373  0.1412 -0.0744
54619W        W97635  24.345   3.462   9.451  0.2258  0.0844  0.1519
54620W        W97636  33.393  18.677   6.118  0.3243 -0.1007 -0.0438
54621W        W97637   5.290  23.193   3.845 -0.5315  0.2974 -0.2221
54622W        W97638  20.128  14.227   0.317 -0.1063 -0.1304  0.2149
54623W        W97639  33.820  21.604   9.471 -0.3828  0.1290 -0.2605
54624W        W97640   1.429  20.508   3.426 -0.0940  0.1382  0.1701
54625W        W97641  29.656  29.990  24.521 -0.1411  0.0955 -0.2688
54626W        W97642   3.669   5.167  17.691  0.0563  0.0425  0.1806
54627W        W97643   2.763  29.428  22.191 -0.0507  0.0225  0.0213
54628W        W97644  32.882  33.421   9.141  0.2707  0.1787 -0.0777
54629W        W97645  29.624  27.992  16.208  0.1036  0.2236 -0.1142
54630W        W97646  12.043  26.236   2.145  0.1362  0.1763  0.0053
54631W        W97647   7.889  34.050  27.951  0.0110  0.0652  0.1198
54632W        W97648  33.412  33.693   4.048  0.0729  0.0451  0.3009
54633W        W97649  31.302  14.747  22.164  0.1729 -0.1743  0.0534
54634W        W97650  30.722  16.593   1.092 -0.1668  0.3514 -0.2070
54635W        W97651  34.548  22.978  22.862  0.0113 -0.2641  0.0002
54636W        W97652  32.614  26.492   9.215  0.2946 -0.1821 -0.1255
54637W        W97653  22.727  23.745  18.830  0.0933 -0.1082 -0.0161
54638W        W97654  30.186   1.012   8.364 -0.0639 -0.1087  0.0165
54639W        W97655   0.588  19.026   2.146 -0.2747 -0.0429 -0.0178
54640W        W97656  25.520  28.000  10.513  0.1294  0.0007  0.2859
54641W        W97657  20.798   3.972   8.604  0.0447 -0.5159  0.1073
54642W        W97658  16.055  18.563  19.797 -0.0215 -0.1379  0.0475
54643W        W97659   0.311  21.110  18.426  0.0526 -0.1214 -0.1505
54644W        W97660  22.943   7.526   9.001 -0.0398 -0.3805  0.0045
54645W        W97661  32.555   1.327  27.487 -0.2576  0.0781 -0.2489
54646W        W97662  28.713  21.671   1.492 -0.0160 -0.1116  0.0278
54647W        W97663  12.193  24.129  18.720 -0.3835  0.1893 -0.2051
54648W        W97664  30.696  12.980  10.651 -0.1493 -0.1981 -0.0777
54649W        W97665  32.850  28.754   3.198 -0.0210  0.1941 -0.0985
54650W        W97666  27.076  20.133  16.708  0.0834 -0.3552  0.2839
54651W        W97667   9.880  19.712  21.199  0.0250  0.1327 -0.0179
54652W        W97668  31.545  18.992   8.922  0.1167 -0.0861 -0.0093
54653W        W97669   5.329  12.051   5.203 -0.4062  0.1907  0.0229
54654W        W97670  25.258  30.932   7.702  0.0479 -0.0681  0.2279
54655W        W97671  26.352  32.907   5.297 -0.1587  0.0652  0.2664
54656W        W97672   3.961  13.503  27.818  0.1666 -0.3188  0.0256
54657W        W97673  33.143   2.574   9.468  0.0085 -0.0871 -0.0325
54658W        W97674   7.022  17.396   0.110 -0.0371  0.0063 -0.1028
54659W        W97675  33.476  26.187  17.059 -0.1335 -0.1214 -0.2857
54660W        W97676   1.161   0.250  23.923  0.0971 -0.2479 -0.1180
54661W        W97677  34.372  15.134  22.802 -0.2305  0.1965  0.0331
54662W        W97678  25.703  29.376   1.037 -0.2487 -0.1144  0.0742
54663W        W97679   0.876  25.776   8.812  0.2035  0.0633 -0.0511
54664W        W97680  11.419   9.010   3.183  0.1414  0.2168  0.2234
54665W        W97681  26.130  23.760   4.270  0.0803  0.1153 -0.2198
54666W        W97682  33.359   3.017   5.364 -0.0246 -0.2597 -0.1070
54667W        W97683  10.215  30.105  27.914 -0.3386 -0.2145 -0.1514
54668W        W97684  14.191  16.483   7.045 -0.3856 -0.0855  0.0282
54669W        W97685  27.889  21.014   4.404 -0.0025 -0.3585 -0.0651
54670W        W97686  29.454  25.031  24.449  0.2702 -0.2294  0.2611
54671W        W97687   8.102  17.289   3.543 -0.0620  0.0684  0.3132
54672W        W97688  23.970  13.466   6.367 -0.4341 -0.0910 -0.0260
54673W        W97689  25.742   8.204   2.469 -0.2489 -0.1008  0.2339
54674W        W97690  32.002   0.578  29.156  0.3791 -0.0062  0.2068
54675W        W97691  22.706  23.668   7.861  0.1670  0.1183  0.0234
54676W        W97692  20.841  11.171   3.260 -0.2831  0.1744 -0.1877
54677W        W97693  23.404  23.361   4.517  0.4389  0.0463 -0.0210
54678W        W97694  11.934  27.738  28.109 -0.1030 -0.2163  0.0482
54679W        W97695  14.431  28.465   0.022 -0.1846 -0.1190 -0.4578
54680W        W97696   4.015  28.081   3.987 -0.2908 -0.1513  0.1845
54681W        W97697  29.721  20.968   4.351  0.1369 -0.2437  0.1700
54682W        W97698   3.554  12.896   5.105 -0.0959 -0.0221  0.1174
54683W        W97699  29.250  15.911   6.201  0.1387  0.1548 -0.1052
54684W        W97700  21.853  33.146  22.477 -0.3418  0.1674 -0.2342
54685W        W97701   6.255   5.512   7.205  0.0125  0.0027 -0.0744
54686W        W97702  19.990  21.985   0.884 -0.0322 -0.1225  0.0142
54687W        W97703   0.710  17.292   2.978  0.0738  0.1011 -0.3846
54688W        W97704   0.738  16.855  23.511 -0.0583 -0.5004 -0.1054
54689W        W97705   3.669  14.220   2.037 -0.2780  0.0564  0.0684
54690W        W97706   3.509   2.238  21.061  0.3309  0.5856 -0.0021
54691W        W97707   3.994   4.278  28.612 -0.1173 -0.3454 -0.1911
54692W        W97708  10.839  28.277  25.951  0.1834  0.2085  0.1249
54693W        W97709  27.124  25.658  10.990 -0.0245 -0.1710  0.0816
54694W        W97710  21.257  15.396   2.060 -0.5503  0.0501  0.0676
54695W        W97711   7.056  19.911   0.603 -0.2877 -0.2747  0.2686
54696W        W97712  15.483  27.732   9.086  0.0339 -0.1125  0.0189
54697W        W97713   0.826   0.789   0.221  0.1676  0.1425 -0.0455
54698W        W97714   8.700  13.434  21.505  0.1370  0.1573 -0.0206
54699W        W97715   5.889   2.405   8.034 -0.3961 -0.1614 -0.3086
54700W        W97716  28.666  23.674  11.136 -0.1669 -0.0431 -0.0114
54701W        W97717   2.720  27.038   4.311 -0.2223 -0.0267 -0.0739
54702W        W97718  32.788  27.047  10.572 -0.1765  0.0686  0.0320
54703W        W97719  30.948  20.728  19.430 -0.0568  0.1449  0.0001
54704W        W97720   1.935   0.003  18.656  0.0567 -0.2223  0.1665
54705W        W97721  23.260  32.743   3.609 -0.2530  0.0038 -0.5056
54706W        W97722   9.012  14.627   7.057  0.0021 -0.0689  0.0126
54707W        W97723  29.905  30.903  22.002 -0.0954  0.3012  0.2807
54708W        W97724  31.447  24.300   8.057  0.0013  0.1327 -0.1056
54709W        W97725  24.282  27.636  29.235 -0.0661 -0.1001 -0.2074
54710W        W97726  30.736  23.551  26.540  0.1910 -0.0405  0.1229
54711W        W97727  24.468  14.653   7.986 -0.1237  0.1307  0.3769
54712W        W97728  29.500  19.821   4.633  0.0629 -0.1787  0.1400
54713W        W97729   1.297  34.293   9.190  0.1283  0.3039 -0.0941
54714W        W97730  34.289  27.407   4.173  0.0252 -0.1650 -0.5816
54715W        W97731   0.887  33.977  27.744  0.0537 -0.2340  0.1893
54716W        W97732   7.341  19.601   6.117  0.2042  0.1216  0.1800
54717W        W97733   2.569  12.137  10.064 -0.0836  0.2526  0.0709
54718W        W97734  13.273  15.499  27.394 -0.2263  0.0470  0.2128
54719W        W97735  34.664  27.353   5.605  0.4179  0.0951 -0.0159
54720W        W97736  11.516  15.971  13.548 -0.0262  0.1228 -0.0756
54721W        W97737   0.616  27.308  24.960  0.0323 -0.1578 -0.0373
54722W        W97738   2.185  16.644  27.850 -0.1465  0.1654  0.2023
54723W        W97739  29.099  16.111   0.298 -0.3219  0.0312 -0.1619
54724W        W97740  25.980  22.297   1.417 -0.4595  0.0977 -0.0888
54725W        W97741  16.157  22.083   0.669 -0.1920 -0.0198  0.1576
54726W        W97742   1.270  26.367  28.926  0.2141  0.3581  0.3461
54727W        W97743  27.311  23.622  19.267 -0.0624  0.1707  0.0101
54728W        W97744   3.907  28.540  18.916 -0.0890  0.3285 -0.2481
54729W        W97745  12.158  23.329  12.225 -0.1859  0.0163  0.0314
54730W        W97746   4.721  25.323   6.645  0.0072 -0.1138 -0.0498
54731W        W97747  17.240   1.061   8.415 -0.2459 -0.1587  0.1158
54732W        W97748   0.476  14.672  27.619 -0.1602 -0.0654  0.2194
54733W        W97749  23.387  23.844  24.703 -0.1780 -0.1906 -0.2913
54734W        W97750  28.421  19.941  27.761 -0.0849 -0.1801 -0.3195
54735W        W97751  31.746  19.389  22.876  0.1349 -0.1900 -0.2099
54736W        W97752   2.623  18.757   5.162  0.1655  0.0501 -0.1789
54737W        W97753  18.052  27.857   7.482 -0.3870 -0.2362 -0.1306
54738W        W97754   1.668  12.578  10.331  0.0233 -0.0011 -0.0087
54739W        W97755  25.895  24.033   5.901 -0.2574 -0.1125  0.1995
54740W        W97756  24.273  13.275  14.655  0.0712 -0.0871  0.1201
54741W        W97757   0.580   7.429  21.653  0.1272 -0.1055  0.1093
54742W        W97758   5.481  21.636  24.969  0.0004  0.2389 -0.2878
54743W        W97759   3.204  21.379  27.847 -0.0272 -0.0803 -0.1002
54744W        W97760  31.387  17.598   5.556  0.0904  0.1153  0.0843
54745W        W97761  33.773  20.926   1.516 -0.2104  0.5940  0.0148
54746W        W97762  11.834  10.007  19.548 -0.1273 -0.2481 -0.0795
54747W        W97763   0.398  20.940  17.938  0.1272  0.4619 -0.0108
54748W        W97764   9.103   8.144   4.549  0.4273  0.0603  0.0122
54749W        W97765  23.881  13.873  26.019 -0.1274 -0.0639 -0.0620
54750W        W97766  11.175  19.978   6.331 -0.0489  0.0550 -0.4006
54751W        W97767  34.152  17.905  10.466  0.0984  0.3269  0.1279
54752W        W97768  18.992  14.099  26.372 -0.0301  0.1287 -0.3941
54753W        W97769  28.682  15.723  28.438  0.0079  0.1200 -0.0789
54754W        W97770  28.711  21.188  21.541  0.2477  0.0395  0.0904
54755W        W97771  30.923  32.509   3.799  0.0571 -0.1523  0.1551
54756W        W97772  23.772  26.445  10.484 -0.0027 -0.1984  0.2444
54757W        W97773  31.310  11.079   0.746 -0.1772  0.0715 -0.1239
54758W        W97774   7.429  31.167  28.975  0.3235 -0.0530  0.1108
54759W        W97775  23.871  21.587   0.156 -0.0339  0.0610 -0.3743
54760W        W97776  17.592  27.605  15.591 -0.0732  0.2429 -0.0142
54761W        W97777  28.963   0.629  28.731 -0.0480  0.1116  0.0954
54762W        W97778  30.074  18.760  20.171  0.2295 -0.1348 -0.1887
54763W        W97779  31.620   1.650   1.882  0.2028  0.2177  0.1994
54764W        W97780   5.663  31.205   4.361  0.0429  0.2380  0.0189
54765W        W97781  10.662  33.250  22.990  0.1130 -0.0216 -0.0226
54766W        W97782   3.406  21.919   8.637 -0.0007  0.2644 -0.1880
54767W        W97783   7.256   2.441   9.402 -0.0697 -0.1730  0.1434
54768W        W97784  24.243  19.627  27.760 -0.1803  0.0027  0.1015
54769W        W97785  17.611  25.976   9.459  0.0524  0.3516 -0.1776
54770W        W97786  32.959  26.695   6.214 -0.1410  0.1674  0.0223
54771W        W97787  30.453  23.075  10.594  0.1560 -0.0429 -0.0171
54772W        W97788   0.790   8.571  25.828 -0.2667 -0.0700  0.2473
54773W        W97789  26.521   4.319  27.561  0.2698  0.0136 -0.3061
54774W        W97790  16.013  26.472   0.347 -0.0445  0.0029  0.1460
54775W        W97791  29.981  20.009   7.008  0.0922  0.2204 -0.0418
54776W        W97792   0.890  31.625  18.589  0.1557  0.1343 -0.2315
54777W        W97793  23.247  33.750   0.218 -0.2705  0.0544 -0.1276
54778W        W97794  26.705  13.989   4.644 -0.1433  0.1803 -0.2947
54779W        W97795   1.085  22.158   8.238 -0.0393  0.1278  0.0133
54780W        W97796   3.952  18.837   8.872 -0.0288  0.0287  0.1846
54781W        W97797  32.763  33.853  21.234  0.0352  0.0317  0.1975
54782W        W97798  18.901  27.841  17.060  0.2388  0.0981 -0.0339
54783W        W97799  17.185  18.529  11.919  0.0108  0.0211 -0.1055
54784W        W97800  11.242  23.179   4.957 -0.0560  0.2873 -0.1361
54785W        W97801  33.391  31.477   4.017 -0.1319  0.0343 -0.1641
54786W        W97802   5.556  32.944  23.277  0.0949  0.1432 -0.1463
54787W        W97803  21.870  10.446  26.084  0.1375 -0.1254 -0.1084
54788W        W97804  29.400  23.706   4.919  0.2896  0.0120  0.0929
54789W        W97805  12.427   8.376   8.826  0.1201  0.1939 -0.2753
54790W        W97806   6.578  17.387   3.835  0.0496  0.0063  0.1722
54791W        W97807  28.598  26.709   3.469  0.1031  0.1005 -0.0496
54792W        W97808  16.124  17.142   0.179 -0.0131 -0.0515  0.1871
54793W        W97809   5.281  17.694   8.874 -0.1536 -0.1696 -0.0702
54794W        W97810   5.630  28.073   4.023  0.2397 -0.0410 -0.0848
54795W        W97811  26.659  25.504   9.832 -0.1963  0.2811  0.3260
54796W        W97812  30.817  32.041  10.692 -0.0184 -0.0088  0.1028
54797W        W97813   5.754   2.894   0.503 -0.3102  0.4226 -0.3688
54798W        W97814   8.957  22.134  28.297  0.0489  0.1473  0.2383
54799W        W97815  29.820  26.410   5.591  0.0111  0.0694  0.1935
54800W        W97816  33.037  30.273   3.348  0.0092 -0.2943  0.1618
54801W        W97817  33.901   7.604  28.820 -0.0819 -0.1345  0.1198
54802W        W97818   2.268  12.103  25.617 -0.1209 -0.1854  0.1560
54803W        W97819  30.410  34.401  22.070 -0.1424  0.0693 -0.0396
54804W        W97820  11.903  11.829  28.170  0.0349 -0.1679 -0.3174
54805W        W97821  26.878  22.380  22.207 -0.2858  0.1131  0.0590
54806W        W97822   3.479  14.231  15.035  0.1098  0.0058 -0.0659
54807W        W97823  14.061  28.404   9.033  0.4028 -0.2298 -0.0574
54808W        W97824   1.791  19.905   2.883  0.1568 -0.0010  0.0054
54809W        W97825  21.907   9.221   7.611  0.0364 -0.3813 -0.2350
54810W        W97826  28.697  31.028   1.903  0.0504 -0.0236  0.0791
54811W        W97827   4.250   2.692   3.438 -0.1917  0.0624  0.0089
54812W        W97828  19.847  24.309  15.307  0.2216  0.1601 -0.0346
54813W        W97829  18.261   1.554  26.952 -0.0813  0.1011  0.0966
54814W        W97830   3.801  26.574   8.446  0.0885  0.4883  0.1538
54815W        W97831  25.113  22.670  10.864  0.0311  0.1404  0.0700
54816W        W97832  23.594  27.518   1.500  0.2515  0.1293  0.0348
54817W        W97833   2.143   4.201  10.187 -0.0073 -0.2591 -0.1904
54818W        W97834  23.348  25.466   8.785  0.0002  0.0633 -0.2498
54819W        W97835  32.597  27.576  26.659  0.0803 -0.0295 -0.3316
54820W        W97836  34.074  30.970  26.727  0.1270  0.0708  0.4434
54821W        W97837  28.815  20.411  22.986  0.0193  0.0066  0.1750
54822W        W97838  21.605  25.374   9.276 -0.0246  0.2689  0.1001
54823W        W97839  21.932   7.296   9.910 -0.5063  0.0336 -0.1218
54824W        W97840   3.202  26.804  16.035 -0.1213  0.0970  0.1604
54825W        W97841  17.133  15.041   6.903 -0.2992 -0.0433 -0.2364
54826W        W97842  17.807  17.618   4.761 -0.0899 -0.2088  0.1686
54827W        W97843  26.539   8.148  22.485  0.0362  0.3324  0.0634
54828W        W97844   3.444  18.361   1.119 -0.1603  0.1544  0.3254
54829W        W97845  14.355  32.608  16.198 -0.1638 -0.3791  0.1435
54830W        W97846  23.506  27.237   3.986  0.0788 -0.0423 -0.1668
54831W        W97847   8.982   3.791   5.030  0.1023  0.0246  0.0431
54832W        W97848  26.977  19.318   8.114  0.1389  0.0321 -0.1276
54833W        W97849  15.139   0.482   3.202 -0.1459  0.1641 -0.0226
54834W        W97850  21.902  16.349   6.807  0.1591  0.2976 -0.0993
54835W        W97851  33.166  16.807   8.470  0.0476 -0.2896  0.1453
54836W        W97852   2.424  19.703   4.763 -0.1544 -0.4032 -0.0716
54837W        W97853   8.722  33.948   2.346  0.3539  0.1123 -0.1021
54838W        W97854  14.551  21.304  19.299  0.1507 -0.2611 -0.4632
54839W        W97855   8.079  20.301   1.484  0.0925 -0.1448  0.0530
54840W        W97856  25.583  32.559  10.566  0.1188  0.0874 -0.2230
54841W        W97857  27.171  15.103   1.378 -0.4088  0.1592 -0.1115
54842W        W97858   3.181  28.315   7.782  0.1465 -0.1027 -0.0616
54843W        W97859   3.811   4.731   5.814 -0.2369  0.0091 -0.0208
54844W        W97860   1.560  11.301  16.509  0.2913 -0.1839  0.0744
54845W        W97861   8.598  10.139  20.894  0.0859  0.3679 -0.1277
54846W        W97862  26.668  17.749   5.727 -0.1850  0.0723 -0.1036
54847W        W97863  12.471  25.526  25.863  0.0675  0.1080  0.1609
54848W        W97864   5.447  22.149  24.755  0.2340  0.0613 -0.0204
54849W        W97865   1.794  32.965   5.893  0.2078 -0.2527  0.3747
54850W        W97866  22.935   0.111   6.550 -0.0216 -0.2414 -0.0490
54851W        W97867   8.886  32.648   6.496 -0.0676 -0.4272 -0.2092
54852W        W97868  10.876  19.790   6.712  0.2677  0.1354  0.2869
54853W        W97869   5.917  15.627   4.968  0.1499  0.1052  0.0362
54854W        W97870   4.855  29.357  29.199  0.2802  0.1004 -0.0879
54855W        W97871  21.122  33.312   9.953 -0.1840 -0.0633 -0.1779
54856W        W97872  32.052  12.798   2.875  0.1366 -0.4170 -0.1556
54857W        W97873  32.334  19.875  27.684  0.0760 -0.1502 -0.1454
54858W        W97874  29.475  29.404   9.985 -0.0697  0.1200  0.1113
54859W        W97875  30.677   1.697   1.262 -0.0420 -0.3303  0.1207
54860W        W97876  31.885  23.432  20.323  0.0606 -0.2901 -0.3692
54861W        W97877  10.207  26.982   7.817 -0.2159 -0.2664  0.1662
54862W        W97878  17.615  33.163   6.544 -0.1049  0.2340 -0.2516
54863W        W97879  25.892  17.904   1.722 -0.1512  0.1048 -0.4059
54864W        W97880   4.648  30.760   3.543 -0.2076 -0.1141  0.0654
54865W        W97881  25.649  17.702   1.303  0.0309  0.1745 -0.2551
54866W        W97882  17.274   5.418  15.528 -0.1693  0.0607  0.2558
54867W        W97883  31.322  16.866  27.322 -0.2360  0.1886  0.2053
54868W        W97884  13.254  30.578   2.804 -0.1867 -0.3426  0.4418
54869W        W97885  24.543  25.516  24.478 -0.0068  0.1996 -0.2057
54870W        W97886  22.527  18.942   8.819  0.1103  0.0523  0.0798
54871W        W97887  31.465  12.296   3.364 -0.0198  0.1086  0.1549
54872W        W97888   0.199  14.349  24.429 -0.1284 -0.0975 -0.0772
54873W        W97889  12.781  30.721   2.214 -0.2177 -0.2718  0.1963
54874W        W97890  27.501   6.873  11.193  0.2623 -0.1990 -0.1598
54875W        W97891  32.825  24.663  17.093 -0.0493 -0.0700 -0.0233
54876W        W97892  15.893  27.768   4.891 -0.0154  0.0117  0.0089
54877W        W97893   3.017  23.117   8.831  0.1014  0.0597  0.1390
54878W        W97894  22.621  26.934   6.170 -0.3370  0.1964 -0.1269
54879W        W97895  26.192  33.339   2.058  0.3783 -0.1299  0.0954
54880W        W97896  21.905  30.739   9.904  0.1322 -0.0257 -0.2028
54881W        W97897  25.192  33.133   2.447 -0.3248 -0.2393  0.3408
54882W        W97898  28.227  26.284  27.908 -0.0207 -0.1368  0.1912
54883W        W97899   8.960  27.200   4.881 -0.2056 -0.1781  0.3242
54884W        W97900  33.238  18.804  17.286 -0.0411 -0.2106  0.0160
54885W        W97901  27.231  22.076   8.751  0.0707  0.2244 -0.2388
54886W        W97902  25.056  12.615   6.455 -0.0744 -0.0060  0.0404
54887W        W97903   6.005  19.843  25.091 -0.0160 -0.1415 -0.1848
54888W        W97904  20.281  14.788  24.431 -0.0255 -0.0809 -0.0992
54889W        W97905  23.300  15.514  29.142  0.0167 -0.3218  0.0731
54890W        W97906  19.294  27.078   1.810 -0.0804 -0.3533  0.1932
54891W        W97907   2.951  20.134  23.251 -0.2439 -0.2107 -0.0938
54892W        W97908  33.120  11.076   3.556  0.3855 -0.1051  0.1118
54893W        W97909  17.679  26.166   6.932  0.2581 -0.3046  0.0612
54894W        W97910  19.713  17.646   8.338 -0.0491 -0.0017  0.0411
54895W        W97911  17.358  10.696  27.596  0.4084 -0.2170 -0.1768
54896W        W97912   8.668  22.464  16.938  0.4364  0.3208  0.2001
54897W        W97913  15.843  29.728   7.151  0.1157 -0.0580 -0.1258
54898W        W97914   9.532  20.254  20.452  0.0080 -0.1724 -0.0518
54899W        W97915  32.574  24.605  10.387  0.1614  0.1978 -0.0871
54900W        W97916  13.708  19.082   3.349 -0.4264  0.0096 -0.1176
54901W        W97917  28.141  15.939   7.145  0.2113 -0.2633  0.1961
54902W        W97918  25.126  25.909   8.323  0.2229 -0.3937  0.1046
54903W        W97919  28.652  12.898  28.587 -0.2022 -0.2330  0.1312
54904W        W97920  23.271   0.398   7.966  0.3207  0.1037  0.1756
54905W        W97921  22.564  13.626   4.450 -0.2021 -0.2175  0.1989
54906W        W97922  28.266  23.284   7.641  0.1459  0.0599 -0.1121
54907W        W97923  11.335  14.656  19.320  0.1519  0.1803  0.1305
54908W        W97924  22.911   5.639   5.694  0.0118  0.0837 -0.1448
54909W        W97925  17.080   0.183   6.928 -0.3407 -0.3119 -0.0719
54910W        W97926   6.237  21.335   3.302  0.0040  0.1125  0.3769
54911W        W97927  20.502   3.036  21.637  0.3040 -0.1888  0.1154
54912W        W97928  12.817  22.957  26.712  0.0627 -0.2492  0.2119
54913W        W97929  29.872  23.274   2.142 -0.2127  0.2963  0.0197
54914W        W97930  11.867  28.599   6.608  0.0198 -0.0910  0.1309
54915W        W97931  18.172  27.931   6.533 -0.1928 -0.3710  0.0793
54916W        W97932   7.221  12.170   3.990  0.0255 -0.1106  0.0888
54917W        W97933  33.813   1.257   9.374  0.2032 -0.0452  0.0353
54918W        W97934   4.165  11.384  29.205 -0.1321 -0.0843 -0.2289
54919W        W97935   6.224  34.660   7.814 -0.0132  0.3087 -0.2436
54920W        W97936  28.507  19.746   2.481 -0.1625  0.1644  0.1520
54921W        W97937   1.647   2.911  28.787  0.0058 -0.0233  0.2484
54922W        W97938  31.482  23.874  10.665  0.0173 -0.2085  0.2230
54923W        W97939  27.694  13.317  23.296  0.2843  0.1045  0.1315
54924W        W97940  29.027  24.863  21.557 -0.0898 -0.0348 -0.1635
54925W        W97941   3.854  19.549  15.395 -0.0088 -0.1548  0.0465
54926W        W97942  21.323  19.036   7.133  0.0072  0.3026  0.1031
54927W        W97943  24.739   5.224   5.273  0.0051 -0.1663 -0.4176
54928W        W97944  11.560  16.719   4.373 -0.2340  0.1652  0.0543
54929W        W97945  31.600  20.977  29.059  0.0385  0.5281  0.1948
54930W        W97946   7.297  19.939  14.712  0.0310  0.0019  0.0535
54931W        W97947  23.571  23.332   5.844 -0.0699  0.0717 -0.1721
54932W        W97948  33.124  12.312   2.562  0.4707  0.0682  0.0149
54933W        W97949  25.399  15.063   0.923 -0.1179 -0.1381 -0.0207
54934W        W97950  25.738  34.033   9.988  0.2744  0.0869 -0.0161
54935W        W97951  31.709  31.828  25.892  0.2255  0.1887  0.0187
54936W        W97952   2.109  33.604   6.366 -0.1291 -0.1251  0.3107
54937W        W97953  33.180   4.338  23.536 -0.0746 -0.0381 -0.2076
54938W        W97954   0.079  33.728   7.279  0.0769  0.0335  0.1820
54939W        W97955  17.723  26.683  21.172 -0.1628  0.1393  0.1976
54940W        W97956  27.684   5.332   2.309 -0.0132  0.0732  0.1438
54941W        W97957  21.069  22.253   2.692  0.1306 -0.0255  0.3222
54942W        W97958   7.677  15.467  26.193 -0.0103  0.0119  0.2763
54943W        W97959  10.137   2.484   6.015  0.3531 -0.0498 -0.3007
54944W        W97960  32.078   3.498   1.850 -0.1359  0.0938  0.0442
54945W        W97961  28.563   8.238  26.736 -0.4125 -0.0812  0.0570
54946W        W97962  20.157  19.906  21.846  0.1226  0.1412 -0.0920
54947W        W97963   9.831  31.194   5.884 -0.3407 -0.4320 -0.2012
54948W        W97964   0.719  13.564   4.923 -0.3925 -0.1860  0.2279
54949W        W97965  25.726  29.276   6.882 -0.2877 -0.4783 -0.2107
54950W        W97966  28.362   4.354  25.694 -0.1228  0.0590 -0.1247
54951W        W97967  26.484  31.280   7.911 -0.0756 -0.2122  0.0736
54952W        W97968   4.797  14.820   1.202  0.0316  0.0288 -0.0785
54953W        W97969  30.627  29.743   1.775  0.3091  0.0898  0.1663
54954W        W97970   1.561   3.830   0.455 -0.0379  0.0188 -0.2060
54955W        W97971  17.290  20.481  24.170  0.1986  0.1652 -0.1138
54956W        W97972  32.799  14.966   3.692 -0.2655 -0.5836  0.0506
54957W        W97973   8.334  33.880   2.714 -0.0008 -0.3629  0.0752
54958W        W97974  29.988  19.134   2.205  0.0317 -0.1393 -0.0009
54959W        W97975   3.479   8.307   2.994 -0.0582 -0.0823 -0.1260
54960W        W97976  33.538  21.740  28.955  0.0356 -0.2005 -0.1495
54961W        W97977  17.406   1.696   6.442 -0.3481  0.1390  0.1560
54962W        W97978  28.458  22.964   0.968 -0.2782  0.1961  0.0242
54963W        W97979   5.006  24.356  27.642 -0.1560  0.1253 -0.0152
54964W        W97980  34.305  23.319   7.664  0.1316 -0.1038  0.3720
54965W        W97981  17.683  25.982   8.595 -0.2363  0.1480 -0.1797
54966W        W97982  32.686  19.063   9.082 -0.0490 -0.1347 -0.1261
54967W        W97983   3.713   5.028  22.663  0.3359 -0.3532 -0.2260
54968W        W97984  27.235   8.065  10.435  0.0161  0.2171  0.0916
54969W        W97985  29.422   8.673   5.122  0.1237 -0.0998  0.3262
54970W        W97986  29.193  11.590   2.072 -0.0862  0.4014  0.1991
54971W        W97987  33.542  27.705  29.081 -0.0510  0.0601  0.2043
54972W        W97988  16.722  27.145   8.702  0.1077  0.5270 -0.1275
54973W        W97989   2.876  17.407   6.976  0.2594  0.1053 -0.1403
54974W        W97990   1.042  17.977   0.417  0.0077  0.1729  0.1185
54975W        W97991  11.086  27.427   7.002  0.1374  0.1218  0.1182
54976W        W97992  12.082  17.347   3.911 -0.1799  0.3134 -0.0814
54977W        W97993  14.931  11.791  28.628 -0.1694 -0.2652 -0.1533
54978W        W97994   3.078  14.639  10.490 -0.2752 -0.0259  0.0816
54979W        W97995  33.691  17.026  25.883  0.0309  0.0479 -0.1090
54980W        W97996   0.745  31.850   1.274 -0.1876 -0.1597  0.1804
54981W        W97997   7.181  33.014  26.772 -0.0666 -0.1246 -0.1153
54982W        W97998  29.799  28.422   6.457  0.1970 -0.1651 -0.0218
54983W        W97999  13.149  21.868   5.982  0.1521  0.1815 -0.1346
54984W        W98000  15.269  21.861   0.522  0.0607 -0.2023 -0.2010
54985W        W98001   4.014  29.383   0.389 -0.1429 -0.0171  0.2765
54986W        W98002  30.781  26.352   3.954  0.1748 -0.1876  0.0941
54987W        W98003   7.252   4.108   1.578 -0.1305 -0.1648 -0.1471
54988W        W98004   6.774  29.807   7.363  0.1043 -0.1895  0.0586
54989W        W98005  11.273  17.804  22.801 -0.0027  0.0389 -0.5278
54990W        W98006  30.781  31.692   4.303 -0.1458  0.1241  0.1215
54991W        W98007   4.587  15.228   6.100 -0.2483 -0.1739 -0.2872
54992W        W98008  19.842   7.492  20.191  0.2691 -0.0453  0.2030
54993W        W98009   6.450  21.688   6.103  0.1789  0.2239  0.3244
54994W        W98010  18.040   6.327   5.428  0.0346  0.4267 -0.2843
54995W        W98011  29.840  17.888   9.189 -0.2453  0.0980  0.0536
54996W        W98012  20.275  24.087  24.477  0.2631 -0.1768 -0.0782
54997W        W98013  26.934  33.228  10.389  0.0871  0.0876 -0.0264
54998W        W98014  31.037   3.358  26.904  0.0256  0.1572  0.2268
54999W        W98015  21.291  12.191  14.058 -0.0536 -0.0687 -0.3759
55000W        W98016   5.442  16.223   9.169  0.1862  0.1202 -0.0538
55001W        W98017  13.578   2.468  26.794 -0.1691 -0.0458  0.0794
55002W        W98018  25.817   5.957  25.831  0.0932 -0.5276 -0.3780
55003W        W98019  32.516  19.666  10.142  0.4350 -0.2620 -0.1085
55004W        W98020  29.192  28.229   2.483 -0.1435  0.0582 -0.0491
55005W        W98021  26.933  14.614  29.137 -0.3044 -0.0543 -0.4396
55006W        W98022  32.585  19.876   8.649 -0.1817 -0.2641 -0.1301
55007W        W98023   3.491  28.199   6.559  0.0934  0.0246  0.1498
55008W        W98024  26.858  21.105  20.195 -0.1954 -0.2079  0.2156
55009W        W98025  26.808  14.289   9.540  0.0409  0.1652 -0.3210
55010W        W98026   7.017   8.525  25.936 -0.0993 -0.2226 -0.0210
55011W        W98027  12.049  14.066   8.272  0.1423 -0.0407 -0.0321
55012W        W98028   8.731  13.360   7.766 -0.1477  0.1627  0.0759
55013W        W98029  30.444   7.570   4.818 -0.2349 -0.2038  0.0596
55014W        W98030   5.075  26.889   3.146  0.0521 -0.1829 -0.0287
55015W        W98031   6.306  16.750  24.838  0.2063  0.1438  0.0824
55016W        W98032  25.193  18.152   4.320  0.1638 -0.0719 -0.0652
55017W        W98033  19.106  18.380  24.698  0.3413  0.3679 -0.1997
55018W        W98034   0.099  22.014   6.829  0.0075 -0.1166 -0.3720
55019W        W98035  27.396  23.215  25.763 -0.0108 -0.1253 -0.0206
55020W        W98036  25.819  21.310   8.009  0.1884  0.0035 -0.2583
55021W        W98037  29.426  29.871  10.122  0.1130 -0.1611  0.0343
55022W        W98038   6.891  24.319   6.377 -0.1612  0.1386  0.1249
55023W        W98039   9.477  22.580  25.809 -0.2388  0.2081 -0.1245
55024W        W98040  20.389  18.521  26.308  0.1122  0.1464  0.0712
55025W        W98041  10.123   1.543   1.696  0.0277  0.0319  0.0587
55026W        W98042   0.453  32.146   4.341  0.0621 -0.1415 -0.1654
55027W        W98043  33.116   6.259  29.049 -0.0574 -0.1361  0.1696
55028W        W98044  23.463   3.897  26.720 -0.3498  0.2181  0.2455
55029W        W98045  22.690   5.680   9.589  0.2087 -0.1441 -0.0728
55030W        W98046  33.128  26.921   3.221 -0.1808  0.0845 -0.1887
55031W        W98047  11.443  14.191   4.613 -0.3045 -0.0964 -0.1582
55032W        W98048  16.020  27.793   7.439 -0.0161 -0.3742 -0.2811
55033W        W98049   2.077  28.059   2.960  0.1749 -0.0322 -0.1503
55034W        W98050  19.715  14.053   0.494 -0.1956  0.0035  0.0694
55035W        W98051   1.312  26.825   5.151  0.1547 -0.2645  0.1959
55036W        W98052  33.136  12.775   4.693 -0.0692  0.2400  0.2438
55037W        W98053  16.496  19.669   7.638  0.3987 -0.0941 -0.1933
55038W        W98054   4.992   1.147   6.222  0.2170  0.0165 -0.1859
55039W        W98055  12.842  10.091  23.542 -0.1945  0.1430  0.1039
55040W        W98056   9.188  16.789   6.836  0.0634 -0.2972 -0.2766
55041W        W98057   5.326  16.687   1.510 -0.1058  0.3689  0.0117
55042W        W98058  22.194  17.661  26.216 -0.2264 -0.2344  0.0684
55043W        W98059  32.648  21.929   6.864 -0.1243 -0.1467  0.0889
55044W        W98060  12.946   3.584   1.846 -0.0415 -0.0508  0.0264
55045W        W98061   5.786  23.785   4.313  0.1110  0.2271 -0.3634
55046W        W98062  23.276  27.021   9.649 -0.3484  0.0667  0.2388
55047W        W98063   9.935  11.614   2.413  0.0104 -0.0382  0.2054
55048W        W98064  29.848  21.454   9.802 -0.2224 -0.0794 -0.1493
55049W        W98065  28.825   4.232  10.731 -0.1498  0.3290 -0.2697
55050W        W98066  17.915  30.665   2.684  0.1151 -0.0754  0.2601
55051W        W98067   7.916  26.495   4.907 -0.0926  0.1799  0.1874
55052W        W98068  33.688   6.328   5.619 -0.0769 -0.0585 -0.2555
55053W        W98069  34.350  28.751  28.059 -0.2866  0.1917 -0.1362
55054W        W98070  31.163  18.186   7.216 -0.0385 -0.1706  0.1746
55055W        W98071  28.396  14.585   6.119  0.0477  0.0168  0.2729
55056W        W98072  33.588   5.539   7.199 -0.0931  0.0234  0.4777
55057W        W98073  34.082  24.185   3.875  0.1387 -0.0208 -0.2588
55058W        W98074   1.301  28.995   5.587 -0.0737  0.0854 -0.1896
55059W        W98075  30.283  20.875   6.333 -0.2046 -0.0381  0.1249
55060W        W98076   0.801  19.594   6.930 -0.1673 -0.0810 -0.2004
55061W        W98077  20.215  17.216  20.249 -0.1169 -0.1822 -0.0650
55062W        W98078  34.382  10.481  27.482 -0.0719  0.0082 -0.0214
55063W        W98079   2.096  14.039   3.133 -0.0521  0.2973 -0.2828
55064W        W98080   0.845  17.170   0.941  0.1151  0.3302  0.0607
55065W        W98081  32.519  28.533   2.678  0.3912 -0.0329  0.2000
55066W        W98082  26.445  33.793  11.826 -0.1553 -0.1781 -0.2492
55067W        W98083   3.106  19.392   0.990  0.2541 -0.1315 -0.2802
55068W        W98084  23.994  24.673   1.306  0.1984  0.1717 -0.2225
55069W        W98085  15.137   6.985   7.042  0.2746  0.0768 -0.1200
55070W        W98086  23.123  24.588   7.474 -0.1589 -0.1994  0.2888
55071W        W98087   5.546  12.398   0.233  0.2609 -0.1992 -0.1206
55072W        W98088   0.826  17.164   4.884  0.0301  0.1353 -0.0333
55073W        W98089  31.593   9.716   1.735 -0.1266  0.0188  0.2025
55074W        W98090  29.202   1.599   5.681 -0.0304  0.1566 -0.0332
55075W        W98091   6.125  13.899   3.447 -0.2339  0.1327  0.1614
55076W        W98092  11.720  26.803   6.111 -0.0764 -0.0903  0.2282
55077W        W98093  25.835  19.837   2.105  0.0490  0.1904  0.6101
55078W        W98094  33.920  20.008   8.509  0.1048 -0.1851  0.0881
55079W        W98095   6.534  26.129   5.691 -0.0412  0.1033 -0.0352
55080W        W98096  30.216  20.183  28.834 -0.2345 -0.0328  0.1344
55081W        W98097   1.833  33.936   5.472  0.0918 -0.1053 -0.3631
55082W        W98098  33.289  21.806   0.658  0.2879  0.0725  0.0631
55083W        W98099  33.148  25.035   6.845 -0.0488  0.0517  0.1588
55084W        W98100  33.650   0.808   7.537  0.4849 -0.2401  0.0716
55085W        W98101  32.158   9.778   2.976  0.0356  0.0171 -0.1050
55086W        W98102   3.023   0.750   0.741  0.1593  0.2516  0.0368
55087W        W98103  13.604  22.397   3.097  0.3125 -0.0197 -0.0847
55088W        W98104  23.630  14.839  27.633  0.0580 -0.0406  0.0107
55089W        W98105   4.515  28.939   5.785 -0.0279  0.2046  0.1326
55090W        W98106  21.522  28.704  10.165  0.1841  0.1183  0.4995
55091W        W98107  14.772  17.107  21.300 -0.0282  0.0091 -0.1559
55092W        W98108  24.945  12.077   7.945 -0.0625 -0.2636  0.1180
55093W        W98109  32.608  23.154  19.016  0.2339 -0.0463  0.2224
55094W        W98110   9.298  16.615  28.513  0.3410 -0.2947  0.0818
55095W        W98111  28.907  29.540   5.692 -0.0062 -0.1257  0.0513
55096W        W98112   2.586  15.166   6.613  0.0856  0.1277  0.3039
55097W        W98113  24.803  15.339  24.818 -0.0960  0.2484  0.0095
55098W        W98114  20.953  10.243   5.926 -0.2357  0.0073 -0.3172
55099W        W98115  23.291  31.382   5.689 -0.1426  0.1359  0.4196
55100W        W98116   3.907  16.443   9.792 -0.0621  0.2415 -0.1236
55101W        W98117   2.386  19.154   2.644  0.3123  0.0121 -0.1643
55102W        W98118   7.246  17.415   3.346 -0.1094 -0.2553  0.2217
55103W        W98119  27.881  15.281   3.735  0.0617  0.2925 -0.0763
55104W        W98120  34.667  18.127   9.705  0.2559  0.0967  0.2575
55105W        W98121  34.329   0.457   0.358 -0.0558 -0.2113  0.7330
55106W        W98122  30.082  21.415   8.272  0.1131 -0.0188  0.2108
55107W        W98123   1.196  20.394   2.720  0.2089  0.1052 -0.1499
55108W        W98124  21.000  14.664   6.972  0.2233  0.0176 -0.0325
55109W        W98125  31.515   0.821   5.874 -0.3701  0.1788 -0.3395
55110W        W98126  25.581   1.752  28.515 -0.2427 -0.3724  0.0523
55111W        W98127   7.830   9.840   3.218 -0.0217 -0.4849 -0.1794
55112W        W98128  11.844  26.632   2.523 -0.0315  0.1243  0.1197
55113W        W98129  33.807  14.202   2.196  0.2467 -0.1659  0.0719
55114W        W98130   9.860   2.968   0.860  0.0296  0.0408  0.0984
55115W        W98131  27.671  28.357   8.065 -0.3781  0.0035 -0.0925
55116W        W98132  30.796  18.882  28.139 -0.2310 -0.2162 -0.2176
55117W        W98133  27.491  30.861   7.705 -0.1227 -0.1719 -0.1347
55118W        W98134   8.687  21.987   8.771 -0.1588  0.0568  0.2359
55119W        W98135  25.995  19.627  26.689  0.1955 -0.2194  0.1068
55120W        W98136  30.480  13.072   1.526 -0.4629  0.3688 -0.2159
55121W        W98137  28.060  20.638   9.570 -0.1068 -0.1603 -0.3099
55122W        W98138   7.179  23.733  25.488 -0.1690  0.1507 -0.1916
55123W        W98139   0.150  30.183   4.219  0.0403 -0.2099 -0.0387
55124W        W98140  23.109   8.896   0.669 -0.1846  0.3232  0.1871
55125W        W98141   9.467  19.780   6.652  0.0136 -0.1071 -0.0320
55126W        W98142  26.783  10.525   2.410 -0.2869 -0.0811 -0.0363
55127W        W98143   1.580   2.264  28.071  0.0187  0.2388  0.0239
55128W        W98144  15.266  30.665   2.312  0.2872  0.1675 -0.0064
55129W        W98145  23.578  25.556   7.291  0.0420  0.0528 -0.1299
55130W        W98146  34.188  24.049   1.823  0.0713  0.2707  0.4076
55131W        W98147  14.776  23.290  28.380  0.1252 -0.0647 -0.0823
55132W        W98148  14.359  29.059   7.439  0.0922 -0.0323  0.1273
55133W        W98149  22.559  20.274   7.115  0.1153 -0.0031 -0.0035
55134W        W98150  34.330  19.854  28.082  0.4301 -0.0650  0.3293
55135W        W98151  12.300  12.295  19.388  0.0880 -0.1760 -0.3449
55136W        W98152  21.784  15.748   8.591  0.1395 -0.0960 -0.0625
55137W        W98153   0.594  15.875   2.861 -0.0935  0.0276  0.0465
55138W        W98154  29.300  20.570   9.855 -0.0973  0.3682  0.1955
55139W        W98155  24.820   3.385   4.725 -0.2834  0.1132  0.3117
55140W        W98156   0.236  34.208   8.884  0.5865  0.0220  0.2834
55141W        W98157  13.804   2.323   4.329 -0.2061  0.0705 -0.0481
55142W        W98158   7.126  19.710   5.493 -0.0030 -0.2676  0.0460
55143W        W98159  34.702   9.835   9.887 -0.2590 -0.1224 -0.1230
55144W        W98160   1.822  23.359   7.653 -0.0611  0.0075 -0.0419
55145W        W98161   8.923   4.386   2.617 -0.1822 -0.1920  0.0995
55146W        W98162   1.760  25.718   3.747 -0.3595  0.1623 -0.1848
55147W        W98163  21.995  26.173   8.150  0.0417  0.0834 -0.3262
55148W        W98164  23.817  29.845   8.379  0.4207 -0.0436 -0.2505
55149W        W98165   4.024  33.522   3.659 -0.0154 -0.0573  0.1361
55150W        W98166   8.339   6.645   9.022  0.0248  0.1670  0.2829
55151W        W98167  10.499  17.802  28.628 -0.1814 -0.0884 -0.0676
55152W        W98168   8.653  19.976   8.283 -0.0136 -0.1482  0.0350
55153W        W98169  26.961  15.987  27.924 -0.0492 -0.0267 -0.0344
55154W        W98170  11.916  26.149   1.539 -0.2033 -0.1433 -0.1252
55155W        W98171  22.407  13.971   8.968  0.0929  0.0437  0.1116
55156W        W98172   0.974  27.081  26.988 -0.2103  0.1147 -0.0117
55157W        W98173   5.172   9.222   7.273  0.3046 -0.1971 -0.1718
55158W        W98174   4.530  18.732  17.920 -0.1447  0.0169  0.0496
55159W        W98175  10.672  28.454  25.135  0.2391  0.0784  0.3661
55160W        W98176  11.865  31.478   0.297 -0.0517  0.2397  0.0437
55161W        W98177  21.538  22.403   2.382 -0.1444  0.0848  0.0110
55162W        W98178  21.581  21.018   5.686 -0.3624 -0.1294 -0.1123
55163W        W98179  25.446  12.206   7.770 -0.0495  0.1482  0.1921
55164W        W98180   7.110  30.531  18.522 -0.3760  0.0863  0.0927
55165W        W98181   6.433  28.759   4.226  0.0049  0.2208  0.2481
55166W        W98182  15.843   4.396   8.609 -0.1578  0.2288 -0.0154
55167W        W98183  21.838  11.948   5.406 -0.2293 -0.1312  0.0978
55168W        W98184  33.758  22.381  22.791 -0.0448  0.1250 -0.0152
55169W        W98185   7.111   3.108  24.571 -0.0961 -0.3411 -0.0714
55170W        W98186  34.416  22.039   7.023 -0.3567 -0.0128 -0.0522
55171W        W98187  18.425  15.881  19.325 -0.2117  0.2511 -0.0677
55172W        W98188   6.634  19.013   5.928  0.0952  0.4666  0.0853
55173W        W98189  30.700  21.056   6.590  0.1288 -0.0549  0.1640
55174W        W98190  26.905  33.986  11.620  0.1820  0.1107  0.4440
55175W        W98191  26.203  31.729   3.018  0.3565  0.1516  0.0035
55176W        W98192  23.413  11.043  25.398  0.0967 -0.1717  0.0640
55177W        W98193  28.916  24.826  24.197 -0.1022 -0.0725  0.1646
55178W        W98194  11.609   4.328   7.623  0.0138  0.0712  0.0107
55179W        W98195  21.471  20.055   3.443 -0.1380  0.1534  0.1437
55180W        W98196  23.211  18.820   9.096 -0.3498  0.1661  0.2925
55181W        W98197  34.682  30.538  27.985  0.1316  0.1478  0.2548
55182W        W98198   2.527  12.034   9.568 -0.1179 -0.0328  0.0440
55183W        W98199  19.909  27.063   3.490 -0.1858 -0.0238 -0.2319
55184W        W98200   7.330   8.277  20.288 -0.1794 -0.2691  0.3022
55185W        W98201   8.767  10.275  28.133 -0.0489  0.0020  0.0448
55186W        W98202  29.510  21.851   4.519 -0.2046  0.1992 -0.0533
55187W        W98203  31.663  30.411   8.964  0.1028  0.2953 -0.1852
55188W        W98204  31.896  29.745   2.229 -0.0946 -0.0328  0.2441
55189W        W98205  32.785   3.662  27.603  0.0096 -0.3101 -0.1136
55190W        W98206   3.146  20.475   1.350 -0.0925 -0.0893 -0.0642
55191W        W98207   2.713  32.336   5.519 -0.0027 -0.0953  0.2434
55192W        W98208  32.596  14.262   4.209 -0.0817  0.0616 -0.0549
55193W        W98209  13.312  16.731  26.489 -0.0968  0.0933 -0.1036
55194W        W98210  31.735  30.520   6.241 -0.0474 -0.2052  0.1920
55195W        W98211   3.781  34.184  22.421 -0.0616  0.2612 -0.1036
55196W        W98212   1.386  22.692   8.954  0.0866  0.0790 -0.3202
55197W        W98213  33.363  32.374  17.247  0.1536 -0.0713  0.0872
55198W        W98214  32.927  16.556  24.815  0.2929 -0.1845  0.4043
55199W        W98215   4.074  11.919  28.399  0.4011 -0.1234  0.1987
55200W        W98216   0.194  25.449  27.044 -0.2415 -0.1515  0.1665
55201W        W98217   8.190  32.449   3.548  0.0254 -0.1224 -0.0557
55202W        W98218  21.144  14.500   1.104  0.0474  0.0316 -0.3409
55203W        W98219  30.866  28.561   7.933  0.0033  0.3317 -0.1743
55204W        W98220  34.414  31.532  11.075  0.0592 -0.1291 -0.0585
55205W        W98221  33.555  10.386  27.455 -0.0573  0.3422 -0.1242
55206W        W98222  26.748  10.839   6.822  0.2561 -0.0026 -0.1103
55207W        W98223  29.313  32.182  22.531 -0.0279  0.1390  0.3279
55208W        W98224  10.028   0.686   0.698  0.0010 -0.0389 -0.0671
55209W        W98225  13.741  26.708   4.918 -0.0247 -0.1340 -0.1073
55210W        W98226  15.884   2.996   3.573  0.1055  0.1143 -0.0806
55211W        W98227  12.511  28.557   4.416  0.0570 -0.1881 -0.2226
55212W        W98228  23.437  17.991   4.075 -0.0518 -0.2056  0.2132
55213W        W98229  33.508  31.364  10.414  0.0471 -0.0671  0.0686
55214W        W98230   1.703  34.591   8.824  0.0381 -0.0154  0.1778
55215W        W98231  27.591   2.698   7.280  0.0040  0.1665 -0.0588
55216W        W98232  25.861  30.410  10.373  0.0296 -0.1844 -0.2138
55217W        W98233  24.898  21.015  27.638 -0.0597  0.0176 -0.0421
55218W        W98234   2.052   7.728  27.838  0.2153  0.1134  0.0414
55219W        W98235   0.833  15.185  18.093  0.0787 -0.0251 -0.2990
55220W        W98236  30.050  23.271   7.876  0.0381 -0.0123 -0.0914
55221W        W98237  32.569   4.268  19.497 -0.2751  0.1579  0.0021
55222W        W98238   2.911  10.780   4.352 -0.0464 -0.1653 -0.0320
55223W        W98239  31.368  32.541  24.990  0.1337 -0.1995  0.1360
55224W        W98240   7.129  24.873  26.265  0.2175 -0.0502 -0.1100
55225W        W98241   0.014  22.900   7.810  0.3197 -0.1337  0.0809
55226W        W98242   3.727  26.076   4.625  0.2383 -0.3758 -0.2267
55227W        W98243   9.460  18.981   2.176  0.3066 -0.0800  0.2509
55228W        W98244   6.330  21.023   8.469  0.1599 -0.0497 -0.3015
55229W        W98245  12.615  17.545  29.274  0.0640  0.3046 -0.0513
55230W        W98246  31.318  19.776   9.488 -0.2693  0.0719  0.0753
55231W        W98247  25.327  10.929   9.160  0.0664 -0.3286  0.0536
55232W        W98248   5.616  20.963   5.203 -0.2280  0.2085  0.3605
55233W        W98249   1.476   1.465  19.781 -0.1973 -0.0528 -0.0648
55234W        W98250   1.127  11.582   0.154  0.4310 -0.0449 -0.0253
55235W        W98251  33.000  11.217   4.332 -0.2947  0.1159  0.0780
55236W        W98252   4.061  14.855  25.923 -0.3756 -0.2229 -0.0152
55237W        W98253  26.951  22.109   7.645 -0.0682  0.2378 -0.3127
55238W        W98254   9.729  23.174   1.727  0.2321  0.0968 -0.0065
55239W        W98255  27.878  23.958   8.270  0.2125 -0.2834  0.1964
55240W        W98256   6.598  27.249   8.659 -0.0065 -0.0963 -0.1770
55241W        W98257  33.073  30.349  15.541 -0.0163 -0.2325  0.0345
55242W        W98258  29.325  32.494  19.021  0.2099 -0.2376  0.1180
55243W        W98259  24.809  22.960   8.510 -0.0345  0.1653 -0.1077
55244W        W98260  21.027  34.109  20.028 -0.0449 -0.3379 -0.0478
55245W        W98261   8.516  27.491   1.436 -0.0758 -0.0021  0.2625
55246W        W98262  17.268  29.684   5.309  0.3883 -0.1486  0.0113
55247W        W98263  27.527  19.365   4.131  0.0752 -0.1728  0.1674
55248W        W98264   4.770  22.545   9.089  0.4499 -0.0587 -0.0276
55249W        W98265  26.293  23.895  10.403  0.0975 -0.0402 -0.1027
55250W        W98266   7.028  22.720   0.465 -0.0636 -0.4879  0.0578
55251W        W98267  27.850  34.564   5.931 -0.3460  0.0588  0.0387
55252W        W98268  31.221  25.769  27.357  0.0458 -0.0019 -0.0506
55253W        W98269   5.095   5.927   0.683  0.0849 -0.0092 -0.0622
55254W        W98270   4.427   1.193  29.166  0.0932 -0.0925 -0.0587
55255W        W98271  22.292  30.293  28.813  0.0367 -0.3103 -0.0853
55256W        W98272  22.385  22.040   7.816 -0.2485  0.0593 -0.0734
55257W        W98273   0.519   3.075  28.522 -0.0673 -0.0117  0.3086
55258W        W98274  25.011  34.232   5.510 -0.0934 -0.0072 -0.0406
55259W        W98275  27.597  15.860  16.482 -0.2255 -0.0490  0.0970
55260W        W98276   7.898  17.752   6.753 -0.1120  0.0094  0.2994
55261W        W98277  21.422   0.613  21.541  0.0636 -0.0374  0.2998
55262W        W98278   6.053  19.094   4.766  0.2761  0.1103 -0.0824
55263W        W98279  22.980  18.398  26.092  0.1213  0.0197  0.1396
55264W        W98280  29.016   2.638   0.458  0.0496 -0.1910  0.3014
55265W        W98281  22.307   5.676  23.563 -0.2492  0.2295 -0.3706
55266W        W98282  17.732  18.304  25.050 -0.0038  0.1131  0.2997
55267W        W98283  10.549  10.846   8.943 -0.2676  0.2127 -0.1266
55268W        W98284  19.214  16.076  18.358 -0.0193  0.1280  0.1522
55269W        W98285  19.033  10.693   3.025 -0.0085  0.1747 -0.0359
55270W        W98286  25.247   2.203  17.142 -0.0499  0.0076 -0.2370
55271W        W98287  10.604  29.442  26.963 -0.0650  0.1574  0.0904
55272W        W98288   9.764  24.403  18.233 -0.1509  0.0065 -0.1028
55273W        W98289  29.164   7.740  18.102  0.1314 -0.2456 -0.0538
55274W        W98290  33.500  10.518  19.252 -0.0191 -0.1539 -0.2203
55275W        W98291  33.893  34.314   3.322  0.0884 -0.0777 -0.0704
55276W        W98292  18.653  25.901  26.174 -0.0485 -0.2582  0.0080
55277W        W98293  15.989  24.945  24.062 -0.1480 -0.1179  0.2904
55278W        W98294  34.727  24.892   6.810  0.1423 -0.1526  0.0879
55279W        W98295   0.723  15.982   0.717  0.1731  0.2564 -0.1935
55280W        W98296  24.239  28.910   6.593 -0.3669 -0.0045  0.1370
55281W        W98297  28.882  21.266  10.275 -0.0345 -0.0256 -0.1373
55282W        W98298  32.341  25.403  27.856  0.0925 -0.3075 -0.2190
55283W        W98299  32.109  27.259   7.019  0.0213  0.0000 -0.0014
55284W        W98300  21.256  22.583   8.620 -0.1234 -0.0824 -0.1178
55285W        W98301   0.596  28.671  29.125 -0.1122  0.0497 -0.2336
55286W        W98302  30.180  21.077  24.069  0.0315 -0.1842 -0.0866
55287W        W98303  25.697  25.152   1.726  0.0009 -0.3258 -0.2980
55288W        W98304   3.854  15.921   8.043 -0.2117  0.0328  0.3481
55289W        W98305  11.214  20.354  19.114  0.1138 -0.0917 -0.0614
55290W        W98306  31.633  18.533  26.561  0.2089 -0.0228 -0.1783
55291W        W98307  33.696  30.467   4.033 -0.4993  0.1278  0.1005
55292W        W98308  33.832   3.358  27.059  0.0589 -0.2122 -0.2129
55293W        W98309  18.354  34.052   5.347 -0.1692 -0.0029  0.3330
55294W        W98310  22.990  29.435  26.939 -0.2067 -0.2399  0.2678
55295W        W98311  21.167  16.110  26.780 -0.0547  0.1025 -0.0551
55296W        W98312  19.282  15.227  21.469 -0.0923 -0.0067 -0.0735
55297W        W98313  18.859  23.569  21.521 -0.1897  0.1199 -0.0859
55298W        W98314   0.453  21.028  25.780 -0.1705  0.1960 -0.2037
55299W        W98315  29.593  28.115  27.471 -0.4954  0.1613  0.1492
55300W        W98316  23.645   5.771   9.368 -0.0191  0.0681 -0.0091
55301W        W98317  16.284  28.165   9.681 -0.2995  0.0448 -0.1486
55302W        W98318  31.774  18.230  24.966 -0.0250  0.1378 -0.3304
55303W        W98319   4.259   0.586  16.011  0.0517  0.0723 -0.3638
55304W        W98320   1.443  27.430   1.349  0.1617  0.2097 -0.0612
55305W        W98321  28.136  24.353  27.844  0.2889  0.3147  0.0849
55306W        W98322   2.379  20.564   2.243 -0.1492 -0.2485 -0.0073
55307W        W98323  27.106  30.331   8.095 -0.1719  0.0771 -0.1252
55308W        W98324  26.502  31.928   4.417  0.2117  0.0569  0.2186
55309W        W98325  22.713  34.444  29.025 -0.1377  0.1882  0.0210
55310W        W98326   4.746  24.903  28.857  0.0014 -0.1311  0.1338
55311W        W98327  27.359  21.512   9.511 -0.2704  0.0272  0.0364
55312W        W98328  24.741  29.969  10.807  0.1464 -0.2875 -0.2287
55313W        W98329  27.073  22.679   9.003  0.6241 -0.3011 -0.1962
55314W        W98330   9.927   2.739   2.236 -0.3170 -0.0157  0.0796
55315W        W98331  34.087   5.216   1.296  0.0717 -0.1559  0.1271
55316W        W98332   3.214  19.014   7.740 -0.3498 -0.0845 -0.1121
55317W        W98333  33.167  18.588  16.834  0.1945  0.2619 -0.0622
55318W        W98334  32.925   0.551  26.868 -0.0326 -0.1156  0.1578
55319W        W98335   0.457  34.413   4.415 -0.0080 -0.2727  0.1460
55320W        W98336  34.679   7.216  18.134  0.2605 -0.1527  0.0074
55321W        W98337  28.893  28.374  17.807 -0.0135 -0.1894 -0.1630
55322W        W98338   3.229  29.142   4.789 -0.0996 -0.0691 -0.0459
55323W        W98339   8.858  31.111   3.010  0.0006 -0.0085  0.0506
55324W        W98340  14.975  23.470  25.247 -0.3254 -0.3151 -0.2192
55325W        W98341   7.423  30.524   7.368  0.1148  0.2114 -0.3076
55326W        W98342   2.929  29.842   5.945 -0.2339  0.2366  0.1709
55327W        W98343   5.272  11.839   1.903  0.1773  0.3209 -0.0076
55328W        W98344   5.251  28.654   3.280 -0.1987  0.0902  0.0714
55329W        W98345   4.046   1.151   3.954  0.1990 -0.3720 -0.0900
55330W        W98346   1.604  17.341  17.735  0.1221  0.0369  0.3395
55331W        W98347  27.553   6.739  17.120  0.2018  0.1497  0.1276
55332W        W98348  34.689  20.535   2.306 -0.2818  0.1896  0.2769
55333W        W98349   0.262  19.743   9.457 -0.3652 -0.1447  0.1223
55334W        W98350   4.412  27.502  13.732 -0.2921  0.0424 -0.0972
55335W        W98351  27.960  12.019   9.313 -0.2005 -0.0461 -0.1738
55336W        W98352  22.959  33.984   9.517  0.0044 -0.1187 -0.2429
55337W        W98353  10.757  34.772   5.779 -0.3879 -0.0006 -0.0235
55338W        W98354   0.970  31.673  28.355  0.3049  0.1143 -0.0944
55339W        W98355  24.953   4.321  23.883  0.0260  0.2100 -0.3405
55340W        W98356  16.100   6.071   4.816  0.4850  0.1224  0.0784
55341W        W98357  34.436   4.536   2.610 -0.2120 -0.0914 -0.1020
55342W        W98358  25.610  19.392   7.241 -0.0839  0.1697 -0.0689
55343W        W98359  32.079   5.434   9.352 -0.0601  0.0357 -0.4479
55344W        W98360   8.672   4.831  23.266  0.0937 -0.0448  0.2581
55345W        W98361  31.708  16.809   3.749  0.0883  0.2236  0.0368
55346W        W98362   7.275  19.439  27.799 -0.1050 -0.1249  0.2402
55347W        W98363  19.084  23.804   6.890 -0.2242 -0.2590  0.1583
55348W        W98364   4.169  24.863  13.834  0.0275 -0.0586  0.0149
55349W        W98365   4.981  20.674   6.333 -0.3071 -0.0446 -0.0048
55350W        W98366   3.364  15.074   6.998  0.2100 -0.0698 -0.2698
55351W        W98367  27.600  17.341   3.568  0.0436  0.5141 -0.0524
55352W        W98368   4.535  13.795  26.653 -0.0236 -0.1963  0.0374
55353W        W98369   0.928  22.341   6.682 -0.3146  0.1258 -0.2012
55354W        W98370  27.068  21.641  25.390  0.2215 -0.0807  0.3069
55355W        W98371   7.056  16.394  27.946  0.1143  0.1230 -0.2149
55356W        W98372  23.269  20.040  24.256 -0.1153  0.1197  0.4164
55357W        W98373   2.734  18.280  26.186  0.0554  0.1057  0.0771
55358W        W98374   1.014   8.878  14.572  0.0050  0.1760  0.1700
55359W        W98375  22.856  11.477  18.228  0.2335  0.0456  0.0570
55360W        W98376  27.201  19.577  17.646  0.0922 -0.2225  0.0058
55361W        W98377   8.136   3.487   9.471 -0.0271  0.0015 -0.0293
55362W        W98378   6.508  12.181  13.082 -0.2584 -0.2227 -0.2051
55363W        W98379   1.810  29.886   2.839  0.1877  0.0537 -0.2224
55364W        W98380   2.657  29.073  20.897  0.1117 -0.1601 -0.0886
55365W        W98381  16.317  18.201  27.197 -0.0711 -0.0330  0.2942
55366W        W98382  29.646  25.521   5.380 -0.2256 -0.0719 -0.0978
55367W        W98383   3.670   9.055   7.148 -0.0494 -0.1141 -0.2442
55368W        W98384  20.503   9.578   8.955 -0.1755 -0.1710 -0.1724
55369W        W98385  24.650   5.899  27.889 -0.0936 -0.2271  0.1252
55370W        W98386  33.991  29.461   1.005 -0.1536  0.0565  0.0860
55371W        W98387  17.761   3.836   2.500 -0.0041 -0.2824 -0.2239
55372W        W98388   1.349  34.401  25.677 -0.2242  0.2346 -0.0987
55373W        W98389   1.040  21.709   7.368 -0.0185 -0.3804 -0.0401
55374W        W98390  32.039   5.385   8.672 -0.1157 -0.3052  0.3122
55375W        W98391   1.591  27.585  27.869  0.0034 -0.2572 -0.0238
55376W        W98392  25.733  32.527  15.594 -0.0191  0.2522 -0.1715
55377W        W98393  25.237  33.363  18.538  0.0225  0.1030  0.0258
55378W        W98394   2.285   2.916   2.980  0.3884 -0.1682  0.1931
55379W        W98395   5.855  11.960   8.021 -0.0092  0.2297  0.3737
55380W        W98396   6.672  25.029   3.205  0.0746  0.3100  0.0053
55381W        W98397   4.317  31.389  22.195 -0.2582 -0.1119  0.1123
55382W        W98398   4.469   0.372   0.163  0.1482 -0.2466  0.1665
55383W        W98399  32.128  23.077   1.393 -0.0500 -0.3692  0.4211
55384W        W98400  11.264  18.317  24.716  0.3205 -0.0187 -0.2672
55385W        W98401  19.768  23.651  27.714  0.2615  0.0683 -0.0137
55386W        W98402   9.104  28.394  25.934 -0.4180 -0.1099 -0.0326
55387W        W98403  34.679  23.343  26.862  0.0438  0.1216  0.3099
55388W        W98404  32.858  32.355  23.660 -0.0053  0.0696 -0.2578
55389W        W98405  20.173  22.071   0.313 -0.0943 -0.0378 -0.1898
55390W        W98406  33.053  20.878  24.848 -0.0598  0.0474  0.0651
55391W        W98407  22.010  10.627   7.243  0.1691 -0.1480 -0.0734
55392W        W98408   9.035  26.897  20.626  0.0935  0.0687  0.1344
55393W        W98409  30.086  25.955   5.426 -0.0690 -0.3297  0.0577
55394W        W98410   5.609  18.704   4.929 -0.3141 -0.1201 -0.1301
55395W        W98411  33.574  29.508  28.990 -0.2621  0.0967 -0.0795
55396W        W98412  16.267   4.468   2.771  0.0868 -0.1787  0.0220
55397W        W98413  17.433  22.595   7.962 -0.0955  0.0953  0.0184
55398W        W98414  29.932  25.602   3.439  0.0964  0.0798  0.3590
55399W        W98415   1.457  19.340   2.364 -0.1563  0.0541  0.1140
55400W        W98416  24.836  23.678   7.435  0.0519 -0.0331 -0.0587
55401W        W98417  14.322  12.979  23.805  0.0431 -0.2386  0.1461
55402W        W98418  34.183  24.345  24.287  0.0156 -0.1231 -0.0492
55403W        W98419  18.630  25.368   1.430  0.2373  0.3578 -0.0722
55404W        W98420  25.704   3.177   3.721  0.0952  0.0629  0.2087
55405W        W98421  27.605  29.858  22.288  0.0485  0.2535 -0.2424
55406W        W98422  20.032  15.641  20.677 -0.1287 -0.0468 -0.0314
55407W        W98423  32.910  30.041  24.131  0.1103 -0.1282 -0.1498
55408W        W98424   0.041  24.766  27.835 -0.2211  0.1212  0.1954
55409W        W98425   2.045  27.029   2.426 -0.0685  0.0207 -0.0912
55410W        W98426  29.293  21.628   2.761  0.1764  0.0136  0.0467
55411W        W98427  31.489  23.555  17.311 -0.0687  0.3051 -0.0561
55412W        W98428   0.230  27.377   7.793 -0.1081 -0.0421  0.0468
55413W        W98429  24.683  18.927   7.560  0.0811 -0.2347  0.0719
55414W        W98430  30.484   1.797   7.667 -0.1010 -0.0690 -0.1464
55415W        W98431  34.139  28.545   3.093 -0.0024  0.0621 -0.1767
55416W        W98432  33.638  12.939   4.642 -0.1479  0.2378 -0.3247
55417W        W98433  16.315   2.100   1.896  0.0308 -0.0366 -0.1816
55418W        W98434   7.746  23.273   1.126 -0.0799 -0.1126 -0.1892
55419W        W98435   6.609  14.711   4.903 -0.1174 -0.2957 -0.2418
55420W        W98436  34.281  29.543   4.143  0.0331  0.0031  0.0802
55421W        W98437   0.582  30.883  26.308 -0.0026  0.5335 -0.0357
55422W        W98438  15.558  31.234   4.613  0.1665  0.2260 -0.0989
55423W        W98439  27.185  27.936  27.177 -0.1794  0.0723  0.2745
55424W        W98440   4.024  34.713  27.088  0.1118  0.3604 -0.1694
55425W        W98441  18.276  28.548  10.160 -0.1811  0.1137  0.0071
55426W        W98442  34.626  18.012  20.174 -0.0907  0.0304 -0.0234
55427W        W98443  24.555  21.742  27.414 -0.1198  0.0178 -0.0842
55428W        W98444  17.396   1.605   9.946 -0.3649 -0.1105 -0.1733
55429W        W98445  30.494  24.934   2.397  0.2323  0.4755  0.0633
55430W        W98446  31.021  29.389   8.345 -0.1640  0.2199 -0.0238
55431W        W98447  32.283  19.805   3.708  0.1581  0.1540  0.2809
55432W        W98448  19.179  28.027  24.524 -0.0768 -0.1645  0.1434
55433W        W98449  19.188   8.032  22.065  0.0037 -0.1345  0.3974
55434W        W98450  27.522  23.978   5.004  0.0544 -0.2559  0.1111
55435W        W98451  28.926  31.845   8.601  0.1686  0.2047  0.3860
55436W        W98452  34.580  18.360  27.505 -0.2024  0.1266  0.1567
55437W        W98453  24.718  26.693  25.204  0.1980 -0.2914  0.0382
55438W        W98454  32.524  25.625   8.725 -0.0946 -0.0029  0.0460
55439W        W98455  10.006   0.336   8.926  0.3554  0.0745  0.0569
55440W        W98456  28.573   8.082  10.538  0.0971  0.3255 -0.3237
55441W        W98457  29.859  30.750   7.227 -0.2017  0.1821  0.3590
55442W        W98458  28.973  34.656   7.209  0.2915  0.1560  0.1554
55443W        W98459   6.917   3.991  25.228 -0.3284  0.1390  0.0378
55444W        W98460  15.953  26.168  29.319 -0.0188 -0.0575 -0.1766
55445W        W98461  19.653  19.809   8.663  0.2959 -0.1363  0.1447
55446W        W98462  14.338  20.827  15.035 -0.1732 -0.0709 -0.0805
55447W        W98463  24.279   4.223   5.531  0.0497 -0.2423  0.1016
55448W        W98464  25.139  32.213   2.945 -0.1079 -0.0202  0.1559
55449W        W98465  25.123  29.527   9.896 -0.1039  0.1923 -0.0060
55450W        W98466  30.195  20.883   8.125  0.0721 -0.0401 -0.0259
55451W        W98467  26.651  24.167   8.782 -0.0068 -0.0952  0.1958
55452W        W98468  32.942  27.737   9.335 -0.0727 -0.2124  0.4045
55453W        W98469  31.312  28.013  11.055 -0.1573  0.1514 -0.1247
55454W        W98470   1.466  19.525  22.132  0.0578  0.0847  0.0926
55455W        W98471  12.651  24.026   1.280 -0.0897 -0.1451  0.2248
55456W        W98472   3.024  12.837   9.533  0.1745  0.2143  0.0098
55457W        W98473  33.997  24.524   7.325  0.0828 -0.1085  0.3589
55458W        W98474  24.420  23.984  28.969  0.1407  0.0941 -0.0655
55459W        W98475  20.886  19.979   4.299  0.1006 -0.2090 -0.0938
55460W        W98476  21.768  28.672   5.178  0.2097  0.2178 -0.0896
55461W        W98477  27.343  26.518  24.255  0.1323  0.1524 -0.1956
55462W        W98478  19.360   3.113   9.057 -0.0550  0.1729 -0.0635
55463W        W98479  27.893   4.785   4.353  0.3629  0.2992 -0.2612
55464W        W98480  34.038  32.649   0.916  0.0747 -0.0051  0.3653
55465W        W98481  21.839  32.762  26.390 -0.0118 -0.0424  0.3601
55466W        W98482  12.374  20.453  20.076  0.2079 -0.1655  0.1147
55467W        W98483  21.736  12.651  24.600 -0.0517 -0.2232 -0.0435
55468W        W98484  19.288  16.590   1.774  0.4595  0.0238 -0.2054
55469W        W98485  34.258   9.600  26.019  0.3035  0.1704 -0.3382
55470W        W98486  23.985  11.388   3.766 -0.2688  0.0533  0.5803
55471W        W98487  31.177  20.642  28.936 -0.0402 -0.0861  0.0779
55472W        W98488  24.761  26.057   2.350 -0.2949 -0.2890 -0.2857
55473W        W98489   0.117  29.017   7.966 -0.2913 -0.0457  0.0092
55474W        W98490  28.533   7.291  27.246  0.2420  0.0480 -0.2844
55475W        W98491   1.274  23.752   8.017  0.2012  0.3526  0.1018
55476W        W98492  30.136  21.939  26.138  0.2885 -0.1183  0.0982
55477W        W98493  11.759  19.847  16.372 -0.0476  0.1577  0.0355
55478W        W98494  33.200  30.316   4.308 -0.4371 -0.0003 -0.0983
55479W        W98495   4.145   0.650   0.716 -0.2286 -0.2000  0.2329
55480W        W98496   4.851  11.265   3.321  0.0183 -0.1670  0.2921
55481W        W98497   0.796   1.765   2.742 -0.3678 -0.2676 -0.2434
55482W        W98498   4.231  26.536   8.878 -0.0004  0.0575  0.0525
55483W        W98499  16.119  32.869   5.487 -0.1774 -0.0480  0.2699
55484W        W98500  10.237  30.138   4.914  0.0711  0.2158  0.0289
55485W        W98501   8.390  19.341  24.812  0.0562 -0.1505 -0.2174
55486W        W98502   1.365  16.499  21.568 -0.1991  0.2163  0.0832
55487W        W98503  24.966  21.388   5.667 -0.0488  0.0651  0.1061
55488W        W98504   2.044  29.079   7.288  0.1086  0.0514 -0.1300
55489W        W98505  18.100  25.498   5.338  0.1071 -0.1123  0.0332
55490W        W98506  31.605   9.234  19.445  0.1290  0.3388  0.1831
55491W        W98507  32.417  19.489   8.894 -0.1423 -0.3487 -0.2325
55492W        W98508  23.066   0.598  23.128  0.0118  0.0833  0.0262
55493W        W98509   9.016  18.633  26.006  0.3781  0.0909  0.0057
55494W        W98510  33.705  33.968   2.088  0.1168 -0.0943 -0.1544
55495W        W98511   0.699  24.332   7.383 -0.0293  0.0381 -0.0167
55496W        W98512  30.811   8.042   4.767 -0.0853 -0.2251 -0.0028
55497W        W98513  26.432  27.669  25.399 -0.1725  0.1239 -0.1367
55498W        W98514  10.086   0.643   5.287  0.1594  0.0626  0.0284
55499W        W98515  22.673  11.864  19.901  0.1477  0.0538  0.2217
55500W        W98516   7.100  26.612  26.037 -0.1143 -0.2042  0.2541
55501W        W98517  28.541  24.539  20.041  0.3478 -0.0971  0.0642
55502W        W98518  33.756   3.832   5.319 -0.2562  0.1339  0.0267
55503W        W98519  25.128  25.253  28.226  0.1520  0.0754  0.1314
55504W        W98520  16.010  27.535   7.890 -0.2837 -0.2537  0.0668
55505W        W98521   3.432  31.818  27.106  0.2879  0.0150  0.1757
55506W        W98522  23.044  25.699   0.440 -0.1739  0.2568 -0.0369
55507W        W98523  29.918   4.626   3.814 -0.0599 -0.0235 -0.0916
55508W        W98524  30.472  26.592   6.621 -0.1491  0.0605 -0.2059
55509W        W98525   3.790   2.588   9.870  0.4199 -0.1519  0.0682
55510W        W98526  17.173  19.793  23.093 -0.1387  0.1787 -0.3531
55511W        W98527   6.843   7.180   7.352 -0.0191  0.1139 -0.0704
55512W        W98528   7.188  21.664  28.855 -0.3650  0.1157 -0.0518
55513W        W98529   9.245  14.916   7.436  0.2566 -0.0140 -0.1313
55514W        W98530   4.252  16.305  27.878  0.1910 -0.3064  0.0960
55515W        W98531   5.170  18.507  20.816 -0.0523 -0.0749  0.1383
55516W        W98532  11.446  31.841   4.770  0.2238  0.2063 -0.4655
55517W        W98533  28.377  26.275  11.207 -0.1985 -0.0980 -0.4750
55518W        W98534  18.262  19.459   2.746 -0.3520  0.1349 -0.1287
55519W        W98535   4.632  17.551   2.605  0.2434 -0.0492  0.2397
55520W        W98536  33.602   9.903  27.719 -0.0286 -0.1199  0.2570
55521W        W98537  33.010  22.974   3.870 -0.0358  0.0521 -0.1585
55522W        W98538  34.100  23.439   9.728  0.3030 -0.3098  0.2947
55523W        W98539  18.872  30.019   5.424 -0.2131 -0.3455  0.1995
55524W        W98540  29.188  19.467   7.871 -0.0344  0.1033 -0.0429
55525W        W98541  33.860  29.959   8.492 -0.0501  0.2784 -0.0151
55526W        W98542   7.608  24.929   3.386 -0.2526 -0.3784 -0.1866
55527W        W98543   1.295  23.585  16.892 -0.1818  0.1346  0.3532
55528W        W98544  13.267  19.959   4.950 -0.0812  0.0153  0.3299
55529W        W98545  18.634  23.146  25.975 -0.2455  0.2178 -0.1552
55530W        W98546  34.654  24.048   6.118 -0.0460 -0.0154  0.1124
55531W        W98547   6.033   1.395   3.498  0.5015  0.0544 -0.2619
55532W        W98548  33.253  13.009   9.372  0.1441 -0.3015  0.2477
55533W        W98549   9.130  15.677   4.684  0.1134 -0.0044  0.1186
55534W        W98550  32.015   3.706   5.567 -0.1020  0.4217  0.0249
55535W        W98551   1.110  28.105  24.930 -0.2149  0.0614  0.1259
55536W        W98552  12.799  12.620  24.502  0.0851  0.4168  0.2629
55537W        W98553  33.977  19.404   5.217  0.0134 -0.1780  0.0424
55538W        W98554   4.178  21.025  20.810  0.2393 -0.0213  0.1557
55539W        W98555  11.283   1.238   4.749 -0.2011 -0.0213  0.0756
55540W        W98556  29.904  13.066  27.827  0.0838 -0.1448 -0.2719
55541W        W98557  26.350  23.188  27.768 -0.0794 -0.4988  0.0460
55542W        W98558  10.175   6.616   5.390 -0.1173 -0.3234 -0.0601
55543W        W98559   9.325  14.600   2.310  0.1652  0.1180 -0.1624
55544W        W98560   4.774  20.472   3.673  0.1274 -0.1415 -0.1659
55545W        W98561  10.797  33.508   5.902 -0.4071  0.1642 -0.3261
55546W        W98562  17.677  28.682   4.421  0.0699 -0.4056 -0.0513
55547W        W98563  30.666   3.865   4.890 -0.2780 -0.0539  0.0739
55548W        W98564  29.937  19.149   6.567 -0.0489 -0.3502  0.3109
55549W        W98565  14.026  23.427  20.242  0.0714 -0.3512  0.0828
55550W        W98566  26.797  29.115   4.538 -0.0868  0.0456 -0.0574
55551W        W98567   1.552  10.932  27.747  0.2772 -0.1363  0.1359
55552W        W98568   3.315   1.268   8.153  0.2661 -0.2673  0.0162
55553W        W98569  20.940  19.286  28.871 -0.3448 -0.1446 -0.0078
55554W        W98570   7.993  33.260   4.735 -0.0358  0.3248  0.1801
55555W        W98571  31.276  29.588  28.105 -0.1541  0.2706 -0.2182
55556W        W98572  16.703  28.191  22.968 -0.1576  0.0938 -0.1261
55557W        W98573  23.286  27.334  10.114 -0.3369  0.1171  0.0651
55558W        W98574   4.582  28.437   1.777  0.0768  0.2196 -0.1123
55559W        W98575   0.082  29.402   9.131 -0.2203 -0.3041  0.1782
55560W        W98576   0.380  34.524  10.314  0.2272  0.0461  0.2936
55561W        W98577  31.807  22.970   7.320 -0.4667  0.3872 -0.0440
55562W        W98578  25.018  13.176  28.089 -0.0955  0.3782  0.2068
55563W        W98579  27.030  22.815   3.882  0.0660 -0.1394 -0.1199
55564W        W98580  29.060  13.181  19.314  0.0158  0.1133 -0.2885
55565W        W98581  28.628  23.516   5.568 -0.3583 -0.1645 -0.0176
55566W        W98582   8.640  10.660  27.361 -0.0255  0.1909 -0.1572
55567W        W98583  33.539  12.435   3.327  0.6090 -0.0534 -0.2130
55568W        W98584  23.308  17.149   1.395  0.2082  0.3597 -0.0085
55569W        W98585  13.255  31.216   0.714 -0.1302  0.3364 -0.0318
55570W        W98586   7.651  34.169   6.905 -0.0323 -0.3830 -0.3486
55571W        W98587  29.058  24.466   0.459  0.1532 -0.1745 -0.0469
55572W        W98588  31.269  27.676   2.096  0.0236 -0.2289  0.1731
55573W        W98589  26.590  10.310  24.517 -0.0781  0.1211 -0.2868
55574W        W98590  13.813   8.013   5.084 -0.2805  0.0915 -0.1698
55575W        W98591  13.250  19.182  20.705  0.2552 -0.3303 -0.1391
55576W        W98592  28.799  24.322  29.075 -0.0082 -0.0793 -0.0010
55577W        W98593  33.710  31.150   0.763  0.0341 -0.1323  0.1933
55578W        W98594  30.306  13.691   2.340  0.4180 -0.0287  0.0013
55579W        W98595  20.349  17.593   2.644 -0.0526  0.2640 -0.0999
55580W        W98596  12.414  15.193   2.084 -0.0410 -0.2083 -0.0769
55581W        W98597  24.486  31.668  27.350  0.1077 -0.2493 -0.2374
55582W        W98598  29.056  22.584   2.467 -0.0672  0.2079  0.0273
55583W        W98599  26.594  25.750  29.089  0.3561  0.0410 -0.3308
55584W        W98600  22.185  17.337   3.923 -0.1981 -0.1013 -0.0038
55585W        W98601   5.042   2.069   4.234 -0.3934 -0.1059 -0.0836
55586W        W98602  34.673  20.061  14.859  0.1063 -0.1677 -0.1423
55587W        W98603  13.360  22.629   5.498 -0.2372 -0.1440  0.1858
55588W        W98604  29.806   8.750  10.916  0.1882 -0.0338  0.2034
55589W        W98605  30.510  20.077   0.654 -0.0361  0.1681  0.0696
55590W        W98606   4.945  12.075   4.386 -0.0102  0.2635 -0.0889
55591W        W98607  29.118  29.561   3.800 -0.1239 -0.2246 -0.0717
55592W        W98608   4.447  10.274   5.985 -0.0615  0.0302 -0.0154
55593W        W98609  30.598  28.204   9.832 -0.2325  0.1184 -0.0093
55594W        W98610   0.259  25.654   8.169 -0.4356 -0.1224  0.1881
55595W        W98611  11.418  17.814   1.097  0.1050  0.1639  0.0289
55596W        W98612   2.344   7.083  24.968 -0.2430  0.0173 -0.1681
55597W        W98613  23.131  25.799   6.061 -0.0543 -0.0112 -0.2734
55598W        W98614  22.173  34.577   6.876 -0.1230 -0.2612 -0.1921
55599W        W98615  30.633  28.139   0.277  0.2559  0.0541 -0.2912
55600W        W98616  25.536  22.134  15.824  0.3106 -0.2139 -0.0338
55601W        W98617   1.184  21.494   7.943  0.0111  0.2401 -0.0708
55602W        W98618   2.864  30.631   4.993 -0.0486 -0.0966  0.2419
55603W        W98619   6.766  19.231   3.822 -0.0402  0.2109 -0.0527
55604W        W98620  33.664  23.857  21.932  0.0258  0.0038 -0.2469
55605W        W98621  22.048  25.078   6.788 -0.0458  0.3398 -0.0496
55606W        W98622  28.477  15.089   5.972  0.0805 -0.0172  0.1228
55607W        W98623  21.306  21.728   7.780 -0.0167  0.1727 -0.0905
55608W        W98624  14.612   7.123  14.952 -0.0164  0.2912  0.3230
55609W        W98625  23.962  33.363   8.704  0.0292  0.3263  0.2090
55610W        W98626  18.978  28.253   8.630  0.2194  0.1812  0.0036
55611W        W98627  28.647  15.462  28.020  0.0740  0.2360  0.1109
55612W        W98628  22.427  16.477  16.459 -0.2136 -0.1008  0.1710
55613W        W98629  32.698  15.319   4.146 -0.0398 -0.2154  0.1193
55614W        W98630   9.947  12.185   4.164 -0.0693 -0.2887  0.1178
55615W        W98631  16.503  22.763  27.740  0.0389 -0.1811 -0.2503
55616W        W98632  30.550  15.181   7.492  0.0060  0.2010 -0.3383
55617W        W98633  28.207  19.057  21.568  0.2414  0.3164  0.0345
55618W        W98634  30.396  27.151   3.762  0.3311  0.3045 -0.1359
55619W        W98635  25.689  21.040  18.120  0.4450 -0.0329  0.1712
55620W        W98636  31.796   5.723  25.823 -0.0109  0.0020 -0.0520
55621W        W98637  18.353   8.345   3.505  0.1147 -0.0674 -0.3212
55622W        W98638  32.981  27.243  26.406 -0.1317  0.0180  0.1963
55623W        W98639  29.191  32.778  10.701 -0.0229 -0.0543  0.0372
55624W        W98640  16.587   2.795   0.663 -0.0189  0.0835 -0.2067
55625W        W98641  29.210  16.821   3.051  0.3298  0.0158 -0.3665
55626W        W98642  27.926  22.237  28.433  0.0432  0.0061  0.1517
55627W        W98643  24.935  10.227   6.916 -0.2474  0.1130  0.2343
55628W        W98644   8.328  20.370   4.062  0.0326 -0.0560 -0.2124
55629W        W98645  16.477   1.119   4.998 -0.1226  0.2539 -0.1722
55630W        W98646   6.461  23.706  15.316 -0.1499 -0.0453 -0.2134
55631W        W98647   8.226  34.336   5.924  0.2827 -0.1276  0.2074
55632W        W98648  30.240  32.389  11.547  0.3015 -0.1098  0.3082
55633W        W98649   0.238   5.878  27.551 -0.4029 -0.4611 -0.2069
55634W        W98650   3.927  21.344   6.052  0.1300  0.0964 -0.1425
55635W        W98651  13.702  27.200   5.693 -0.0410 -0.2883  0.1092
55636W        W98652  26.427  24.640   9.105 -0.2761  0.0118 -0.1082
55637W        W98653  11.243   8.002   3.972 -0.1810  0.0919 -0.1778
55638W        W98654  27.026  11.791   8.813  0.2265  0.0989 -0.2182
55639W        W98655  20.000  18.859   1.395 -0.1370  0.4293 -0.0969
55640W        W98656  23.420   6.899  28.949  0.0952 -0.2195  0.1602
55641W        W98657   2.980   2.117   9.466 -0.1224 -0.2091 -0.2912
55642W        W98658  21.835   9.693   0.956  0.2270  0.1795 -0.0354
55643W        W98659  17.273  33.571   8.720  0.1261 -0.0238 -0.4282
55644W        W98660  32.817   7.563   4.839  0.0716  0.4643  0.1602
55645W        W98661  32.832  28.053   2.552 -0.1318  0.0683 -0.0992
55646W        W98662  27.543  26.655   1.625 -0.0059  0.1712  0.0670
55647W        W98663  33.574   0.718   3.406 -0.0830 -0.1889 -0.0652
55648W        W98664  33.378  28.943   7.822  0.0070  0.1132  0.0655
55649W        W98665  10.594  27.646   3.591  0.0229 -0.0739  0.1357
55650W        W98666  34.283  19.486   1.308 -0.0841 -0.2105 -0.1236
55651W        W98667  21.403  31.994   8.512 -0.0659 -0.2662 -0.1580
55652W        W98668   3.499   2.226   6.829 -0.1716  0.1529 -0.1738
55653W        W98669   6.741  28.116  28.043 -0.0382  0.3722  0.0312
55654W        W98670  28.497  31.830   0.607  0.0375  0.0718 -0.1103
55655W        W98671  28.157  28.460   3.801 -0.0306  0.0604 -0.0195
55656W        W98672  25.500  30.227   6.250  0.2154 -0.0090  0.0725
55657W        W98673  15.582  32.166   1.011  0.2983  0.0963 -0.2835
55658W        W98674  34.572   5.799   5.421  0.0839  0.0724  0.4227
55659W        W98675  14.784  24.619   8.440 -0.3816 -0.0515  0.0560
55660W        W98676  24.100  29.911   8.781  0.1895 -0.0278 -0.2382
55661W        W98677  18.593  27.922   0.412 -0.2803  0.2778 -0.0862
55662W        W98678   7.743  23.861  25.767  0.3306  0.2093 -0.0287
55663W        W98679  31.647   8.704   1.104 -0.0917  0.1192  0.0574
55664W        W98680   8.086  20.514  24.814 -0.2096  0.2530  0.0059
55665W        W98681   2.765  15.927   7.444 -0.0139  0.4228  0.2542
55666W        W98682   4.285  26.830   1.114  0.2440 -0.1274 -0.2999
55667W        W98683  21.772  10.563  15.938 -0.1341  0.2504  0.1246
55668W        W98684  31.578  24.167   2.906 -0.1288 -0.2177 -0.4121
55669W        W98685  24.606  22.020  16.260  0.0479  0.0142  0.0836
55670W        W98686   1.495  11.031   6.773 -0.0195 -0.2484  0.0265
55671W        W98687   9.343   8.696   6.899  0.0369  0.0625  0.1078
55672W        W98688  34.281  24.277   1.316  0.2893 -0.2114  0.4498
55673W        W98689   0.897  33.762  24.244 -0.0836  0.0575  0.2787
55674W        W98690   5.631  18.745  23.619  0.0240 -0.2391  0.0755
55675W        W98691   6.871  17.889  25.307 -0.0181  0.0853 -0.0510
55676W        W98692  20.114   1.665   8.547 -0.2173  0.0382 -0.0175
55677W        W98693   9.512   9.361   0.362  0.0308  0.0278  0.0326
55678W        W98694  27.267   5.364  10.337 -0.1853 -0.1556  0.2142
55679W        W98695  29.061  26.820   3.545  0.0545 -0.0677 -0.1774
55680W        W98696  34.061  29.032   3.115  0.0935 -0.2349 -0.0001
55681W        W98697   7.447  23.849   3.083  0.0218 -0.0146  0.2900
55682W        W98698  17.173  22.879   7.469 -0.0262 -0.0451  0.3361
55683W        W98699  26.914   1.221   4.381  0.1190 -0.1817 -0.1312
55684W        W98700   0.723  14.432   0.341 -0.0448  0.1143  0.4481
55685W        W98701  32.479  33.885  26.447 -0.1046  0.0943 -0.0011
55686W        W98702   0.297  12.288   6.658  0.1296  0.0091 -0.0471
55687W        W98703  11.763  23.867  25.566 -0.0162 -0.1364 -0.0720
55688W        W98704   0.322  28.723   5.719  0.2811  0.0460  0.2280
55689W        W98705  24.175  25.161   3.927  0.2335  0.1297 -0.1298
55690W        W98706   7.984   2.271   5.596  0.0317  0.0915  0.3159
55691W        W98707  28.935  33.105   9.542  0.0400 -0.1415  0.2303
55692W        W98708   2.442  23.013   2.956  0.1382  0.0836 -0.2074
55693W        W98709   7.582   8.327   3.128 -0.0024 -0.0789 -0.2478
55694W        W98710  25.167  21.651   1.449  0.3034 -0.1515  0.2391
55695W        W98711  29.536  26.841   2.568 -0.2891  0.1924  0.0755
55696W        W98712  21.330  14.379   8.301  0.0133 -0.1961 -0.1228
55697W        W98713   6.391  28.957  27.969  0.2398 -0.0589  0.2374
55698W        W98714  21.833  15.320   8.272 -0.2247  0.2450  0.0398
55699W        W98715  23.385  23.239   3.026  0.0048 -0.0705 -0.1458
55700W        W98716  28.638   9.756   0.521 -0.1646 -0.0213 -0.0846
55701W        W98717   1.531  25.503   6.819  0.0918  0.1324 -0.0572
55702W        W98718  22.321   1.280  10.214 -0.2557  0.3178  0.2828
55703W        W98719  31.655  10.676  17.460 -0.0976  0.1127 -0.2966
55704W        W98720  29.300   1.697   9.132  0.1178  0.1008  0.2294
55705W        W98721  32.432  28.524   3.188  0.2819 -0.0998 -0.1469
55706W        W98722  34.383  31.317   5.994 -0.0372 -0.1675  0.2636
55707W        W98723  26.027  28.751   8.418 -0.0348  0.0084  0.0422
55708W        W98724  14.958   9.886   5.324 -0.2249  0.0643  0.0729
55709W        W98725  26.800  28.754   4.969 -0.0922  0.0273 -0.1279
55710W        W98726  22.756  25.396   4.897 -0.0517 -0.1889 -0.2344
55711W        W98727   4.537  28.557  26.802 -0.3339  0.1258  0.2947
55712W        W98728  28.433   0.289   3.106  0.1515 -0.2851 -0.0412
55713W        W98729  26.411  16.635  25.191 -0.0050  0.0883 -0.3954
55714W        W98730   8.640  24.999   6.569 -0.0647  0.0047  0.2301
55715W        W98731  32.044  13.333  10.458  0.0425 -0.0205  0.1280
55716W        W98732  20.487  14.145  28.659 -0.2064 -0.1571 -0.1122
55717W        W98733  13.146  17.231  24.831  0.1117  0.0416 -0.0465
55718W        W98734  32.803  29.282   9.848  0.1851 -0.1068 -0.1428
55719W        W98735  33.359  25.891   2.736 -0.1132 -0.1125 -0.3447
55720W        W98736  27.238  12.424   9.786 -0.1378  0.1391 -0.0181
55721W        W98737  28.494  23.402   0.696 -0.3842  0.0831  0.1643
55722W        W98738  28.944   2.906   9.418  0.0903 -0.0652  0.2311
55723W        W98739  28.523  24.802   8.265 -0.1622 -0.0701 -0.1724
55724W        W98740  34.734  16.272   3.414  0.0010  0.1050 -0.1504
55725W        W98741  33.528  13.088   1.129  0.1575 -0.2068  0.3196
55726W        W98742   7.073  31.713  25.475 -0.0617 -0.0747  0.1773
55727W        W98743  25.071  20.873  28.885 -0.0193  0.1034 -0.3175
55728W        W98744   2.469   0.398  29.081  0.0001 -0.0511 -0.0098
55729W        W98745  25.704  17.669   2.810 -0.2599 -0.0250  0.0065
55730W        W98746  34.227   1.472   8.234 -0.3719  0.1019  0.2478
55731W        W98747  29.495   1.194   9.042  0.1145  0.2630 -0.1794
55732W        W98748  31.371  33.943   5.128  0.1824  0.1118  0.0479
55733W        W98749  22.438  26.119   9.694  0.0074 -0.0907  0.3495
55734W        W98750  32.305  22.543   5.672  0.2252 -0.0705 -0.0862
55735W        W98751  31.095  27.118   7.878  0.0618  0.1006 -0.1436
55736W        W98752   4.860  25.331  27.827 -0.1763 -0.0923  0.0366
55737W        W98753   8.543  29.901  25.490 -0.1957 -0.0882 -0.0709
55738W        W98754  10.290  24.969  24.681 -0.2673 -0.1576 -0.0563
55739W        W98755  29.599  25.144   4.606 -0.2200  0.0576 -0.1095
55740W        W98756   9.955  20.805   2.391  0.2938 -0.0279  0.2267
55741W        W98757  31.038  32.373   7.616  0.2821  0.0280 -0.0000
55742W        W98758  28.453  28.202   8.769 -0.4994 -0.1897 -0.0473
55743W        W98759  18.648  19.816   4.132 -0.0488  0.1593  0.0016
55744W        W98760   4.655  27.228   9.715 -0.0313 -0.0913 -0.0345
55745W        W98761  19.594  30.815   7.660 -0.2147  0.4077  0.1395
55746W        W98762  23.633  13.390   7.772  0.1838 -0.1777  0.2117
55747W        W98763  27.375  30.973   6.518  0.0672 -0.0339  0.1249
55748W        W98764  18.314   4.237   6.615 -0.2483  0.1919 -0.0053
55749W        W98765   3.686  30.363   5.893  0.1251 -0.0562  0.1259
55750W        W98766   1.938  31.820  26.682 -0.0865 -0.2199 -0.0748
55751W        W98767   8.690   4.200   4.900 -0.0311 -0.0669 -0.0704
55752W        W98768  29.889  18.842  25.513 -0.0320 -0.1738  0.0901
55753W        W98769  31.208  10.349  28.189 -0.2336 -0.2072 -0.0415
55754W        W98770  28.790  29.500   5.156  0.2099 -0.0403 -0.0669
55755W        W98771   8.810  33.231   1.620  0.3475  0.6276 -0.1891
55756W        W98772  13.565   2.609   2.781  0.1761 -0.0056 -0.2127
55757W        W98773   4.330  24.758   4.896 -0.0210 -0.0274 -0.2100
55758W        W98774   1.492  11.461   5.565  0.2818  0.4304  0.1620
55759W        W98775  11.513  14.067   1.991  0.0791 -0.2261  0.0703
55760W        W98776   8.801  14.713   3.821 -0.2425  0.3050  0.0220
55761W        W98777  14.305  15.217  26.670  0.2907 -0.0002 -0.0078
55762W        W98778  12.639  16.332   6.531  0.1063  0.2721  0.0123
55763W        W98779  33.317   7.289   9.321 -0.0572 -0.1586  0.0334
55764W        W98780  26.726  19.319   8.571 -0.1810  0.3068  0.0105
55765W        W98781  33.224   0.788  23.842  0.2571  0.1649 -0.1023
55766W        W98782   0.316  18.958   3.725  0.0729  0.0619 -0.2403
55767W        W98783   7.045  29.046   9.180  0.2124 -0.0786 -0.0211
55768W        W98784  12.663  27.275   4.247  0.0171  0.0344 -0.2315
55769W        W98785   9.282  28.927   1.438 -0.1585 -0.1570  0.2647
55770W        W98786  18.110  18.542   5.065 -0.0656 -0.2816 -0.0056
55771W        W98787   3.500  22.971   7.502 -0.1247  0.2643  0.0055
55772W        W98788  29.094  23.583   4.368 -0.0638 -0.0098  0.0655
55773W        W98789   5.213  22.185   0.599 -0.1566  0.0716  0.1927
55774W        W98790  26.210  24.452  25.329 -0.1236  0.1311  0.0619
55775W        W98791  32.072  21.528  23.648  0.1537 -0.0687  0.1028
55776W        W98792  18.758  21.914   6.734  0.1059  0.0585  0.0073
55777W        W98793  22.216  15.046   3.427 -0.1373 -0.2451  0.0803
55778W        W98794  28.492  19.208   7.448  0.1526 -0.2060  0.0674
55779W        W98795   5.543  29.121  28.368  0.0499 -0.1998  0.2804
55780W        W98796  20.037  33.788   0.583  0.2479  0.0780  0.1434
55781W        W98797   1.347  33.522   3.786 -0.2389 -0.1537 -0.2231
55782W        W98798  25.862  22.560   3.010  0.0923  0.3328  0.1280
55783W        W98799  26.985  21.300   9.140 -0.0480 -0.1106 -0.3198
55784W        W98800  34.705  23.364   4.473  0.1061 -0.3976  0.1361
55785W        W98801  21.257  26.741   8.217 -0.3539 -0.0843 -0.2884
55786W        W98802  24.982  33.130   7.417  0.0555  0.0885  0.4225
55787W        W98803  33.466  25.665   4.013 -0.2259  0.0208  0.1970
55788W        W98804  22.930  21.310   6.105  0.0567  0.1652 -0.1287
55789W        W98805  26.845  13.580  21.591  0.1585 -0.1726 -0.0734
55790W        W98806  28.544  29.177   9.129 -0.1789  0.1029 -0.0889
55791W        W98807  14.093  34.711  24.028  0.1971 -0.2688 -0.0927
55792W        W98808   5.959  21.476  28.512 -0.0453  0.0512 -0.1561
55793W        W98809  12.126  20.272   0.288 -0.0507  0.0098  0.1516
55794W        W98810   4.464   6.909  17.662  0.0666 -0.1697 -0.1428
55795W        W98811  33.052   9.846   7.434  0.3423  0.1489  0.1667
55796W        W98812  32.101  21.799   6.378 -0.2657 -0.0750 -0.0402
55797W        W98813  11.087  30.014   3.271 -0.2697 -0.0934 -0.0218
55798W        W98814   4.456  31.747   8.079  0.2612 -0.1663  0.0367
55799W        W98815  19.078   3.355   2.859 -0.0928  0.1300 -0.0294
55800W        W98816  18.864  20.149   6.580  0.1980  0.0237 -0.2565
55801W        W98817   1.887  20.127   7.930  0.4658  0.2574  0.0732
55802W        W98818  29.617  32.112  23.221 -0.1050  0.1444  0.1916
55803W        W98819  27.002  32.594   9.164  0.5226 -0.0282 -0.1861
55804W        W98820  33.072  28.705   9.487 -0.2310  0.2218  0.0402
55805W        W98821  30.116  12.532   2.872  0.0990  0.2186  0.1116
55806W        W98822  33.471  16.970   5.860 -0.1171  0.1680  0.0380
55807W        W98823   4.707   4.446  25.618 -0.3315  0.2682  0.0846
55808W        W98824  30.468  32.476   0.564  0.3394 -0.3442 -0.2652
55809W        W98825   6.960  10.053   3.603 -0.0918  0.0224 -0.1038
55810W        W98826   0.232  26.035   5.417  0.0953 -0.1150 -0.1558
55811W        W98827  26.231  30.536   3.421  0.2993  0.0021  0.0023
55812W        W98828  17.592   1.258  19.743  0.0447 -0.0068 -0.0667
55813W        W98829  11.667  17.663   9.001 -0.1474  0.1780 -0.2827
55814W        W98830   7.741  27.363  22.053 -0.1382 -0.0044  0.2220
55815W        W98831  11.006  32.147   5.669 -0.0535  0.0919  0.3392
55816W        W98832   4.359   1.599   4.106  0.0269 -0.0759  0.0456
55817W        W98833   8.251  33.429  10.294 -0.0920 -0.1278  0.0161
55818W        W98834  15.657  22.157   5.754 -0.1960 -0.0743 -0.0214
55819W        W98835  34.252  33.467   6.080 -0.0218 -0.0136  0.1782
55820W        W98836  25.161  17.420   2.844  0.0257 -0.0175 -0.1335
55821W        W98837  26.755   6.847  10.983  0.0730 -0.0187 -0.1927
55822W        W98838  26.661  29.337  18.580  0.1895  0.1894 -0.0332
55823W        W98839  23.255  21.727   5.146 -0.0667 -0.1240  0.3546
55824W        W98840  25.739  25.494   4.798  0.0809  0.1076 -0.0254
55825W        W98841  25.620  34.012   7.024  0.3352  0.1656  0.2959
55826W        W98842  19.863   0.993   3.030 -0.0228 -0.2765 -0.0328
55827W        W98843  31.700   0.514  24.358 -0.0651 -0.1187  0.1596
55828W        W98844   1.168  12.101  21.608  0.0876  0.0296  0.0808
55829W        W98845  23.194  31.150   3.045  0.3706 -0.0661 -0.0085
55830W        W98846  10.912  32.031  22.924 -0.0438 -0.1919 -0.0015
55831W        W98847  25.081  19.060  21.581  0.0097  0.1279  0.2923
55832W        W98848  17.718  22.534   4.672  0.0877 -0.3254  0.3338
55833W        W98849   5.886  30.019   0.487  0.1238 -0.0568  0.0218
55834W        W98850  25.128   2.510   6.030  0.0207  0.1904  0.0066
55835W        W98851   3.038  16.526  18.484 -0.1369 -0.3782 -0.3369
55836W        W98852   1.244  21.129  20.472  0.3766 -0.0111 -0.0137
55837W        W98853  20.063  14.138  22.864 -0.0755 -0.1989  0.3914
55838W        W98854  34.372  28.107  25.423  0.0099 -0.1855 -0.1095
55839W        W98855  22.905  31.025   0.958 -0.0375 -0.1989 -0.1599
55840W        W98856  13.470  28.747  26.948 -0.1161 -0.0293 -0.4886
55841W        W98857  31.216  21.526  29.023 -0.1528  0.0695 -0.1171
55842W        W98858   4.491  13.632  17.069  0.2042  0.1346  0.0170
55843W        W98859  11.372  15.787   3.993  0.2285  0.1262 -0.0762
55844W        W98860  27.452   0.301   6.405 -0.0863 -0.1270  0.0639
55845W        W98861  13.494  14.762  29.135 -0.1260  0.3762  0.1150
55846W        W98862   4.807  33.496   1.334  0.2084  0.1926  0.0687
55847W        W98863   6.066  22.720   3.460  0.3392  0.0532 -0.3752
55848W        W98864  26.721  18.487   9.327  0.0571  0.0613  0.0801
55849W        W98865  11.261   6.411   3.671  0.2650  0.1771  0.0326
55850W        W98866  12.486  12.139  14.895  0.2992  0.0029 -0.1927
55851W        W98867  34.219  29.994  25.968 -0.0181  0.2405  0.0407
55852W        W98868  25.981  24.566   5.867  0.2027 -0.2402  0.0664
55853W        W98869  26.403   0.068   1.684 -0.1661  0.1524  0.0269
55854W        W98870   6.066   5.726   7.668 -0.0155 -0.0089 -0.0471
55855W        W98871   5.819  25.405  17.033 -0.1849  0.0352 -0.5353
55856W        W98872  25.493   1.498  24.818 -0.1769  0.4393  0.0513
55857W        W98873  11.044  11.675   6.285 -0.0650 -0.0478 -0.0998
55858W        W98874  23.564  26.693   4.088  0.1127  0.2096  0.0234
55859W        W98875   2.740   1.061  19.056  0.0440 -0.0898 -0.1684
55860W        W98876  23.749  25.223  22.399  0.0244 -0.1903 -0.0865
55861W        W98877   3.055  30.154   8.991 -0.1049 -0.0814  0.0500
55862W        W98878  27.982  12.948  16.071 -0.1807  0.1724  0.1917
55863W        W98879   6.273  13.239  24.065 -0.0654  0.1462 -0.2784
55864W        W98880   1.423  15.262  22.863  0.0838 -0.0472  0.1979
55865W        W98881  32.484   3.325   2.516 -0.1769 -0.0525 -0.0203
55866W        W98882  17.406   2.421   1.655  0.0954 -0.3264  0.1483
55867W        W98883  31.580  19.921  17.659  0.2314  0.0257  0.1551
55868W        W98884  30.405  30.604  16.297  0.0207 -0.1146 -0.1900
55869W        W98885   8.070  23.078  23.827 -0.0106 -0.1771  0.0624
55870W        W98886  32.330  16.810   1.802  0.1178  0.0625 -0.0302
55871W        W98887   1.367  22.625   8.454 -0.0686  0.0698  0.0985
55872W        W98888  25.957   4.211  10.103  0.0389  0.1253  0.0564
55873W        W98889   5.093  31.020   3.466 -0.0315 -0.3605 -0.1754
55874W        W98890  21.177   3.222  27.065  0.1725  0.0427  0.0091
55875W        W98891  26.597  14.634  18.674  0.0191 -0.3825 -0.0925
55876W        W98892   6.439   7.434  24.218  0.1392 -0.0310  0.1849
55877W        W98893   7.644  19.198  23.545  0.2150 -0.1355  0.0704
55878W        W98894  28.004  30.278  16.499 -0.0930 -0.1537 -0.2859
55879W        W98895  27.083  10.571  14.323 -0.0349 -0.1535 -0.0327
55880W        W98896   2.147  25.516   9.459 -0.2436 -0.2720  0.1421
55881W        W98897   4.805   0.468  21.450 -0.1703  0.0990  0.1524
55882W        W98898  10.452  21.474  25.853 -0.0188 -0.2055  0.2228
55883W        W98899   7.032  34.159   0.841  0.1671  0.0377  0.2223
55884W        W98900   7.028  27.339   2.150  0.2223 -0.2057  0.0098
55885W        W98901   2.893   1.462  10.395  0.1831  0.1734  0.0388
55886W        W98902  33.947  27.882  22.389 -0.2369 -0.1591 -0.0235
55887W        W98903  19.583  27.962  15.504  0.4911  0.1667 -0.5005
55888W        W98904   7.297   5.880  28.554  0.0982  0.0252 -0.1256
55889W        W98905  33.635  13.231  20.959 -0.0908 -0.0570 -0.0661
55890W        W98906   2.385  19.320   4.274 -0.1469  0.1523 -0.1519
55891W        W98907  15.553  22.579  16.003 -0.3069 -0.2767 -0.0752
55892W        W98908  29.188  19.646  24.267  0.0278 -0.0655  0.0614
55893W        W98909  33.489   6.954  18.046 -0.2818  0.0319 -0.0692
55894W        W98910  23.056  28.521   5.160 -0.0805 -0.3728  0.2690
55895W        W98911   9.480  33.161  28.739 -0.0644 -0.0350 -0.0739
55896W        W98912  31.312  32.361   6.727 -0.1724  0.0432 -0.2417
55897W        W98913  22.158   5.431  16.053 -0.2117  0.0032  0.2208
55898W        W98914   5.288  21.121   0.884  0.0066 -0.1435  0.0390
55899W        W98915   8.006  22.595  24.980 -0.0168 -0.0224 -0.0124
55900W        W98916   3.463  25.542   9.391 -0.0706 -0.1440  0.1819
55901W        W98917  33.708   5.277  14.069 -0.2570  0.0809  0.1658
55902W        W98918   3.521   3.155   9.629  0.2475 -0.1632  0.1249
55903W        W98919  27.431   0.450   3.956  0.0760 -0.0067  0.0805
55904W        W98920  31.342  25.512  17.399  0.2265  0.1336 -0.2569
55905W        W98921  29.737  33.368   7.439 -0.1707  0.1457  0.1559
55906W        W98922  21.910   1.548   8.410  0.0851 -0.4655 -0.2485
55907W        W98923  16.180  28.235   7.786 -0.0471  0.2073  0.3614
55908W        W98924  30.035   3.107  29.243  0.1978  0.3328 -0.1416
55909W        W98925  27.841  27.433   9.168 -0.1306 -0.0923 -0.0222
55910W        W98926  33.586  19.462   9.297  0.0288  0.4453  0.2008
55911W        W98927  15.671   3.935  26.425  0.2289 -0.3924 -0.1834
55912W        W98928  22.203  14.804  18.659  0.2071 -0.0433  0.2240
55913W        W98929   3.004  34.632   5.199 -0.0394 -0.1027  0.1077
55914W        W98930  27.518  15.802  24.849 -0.1920  0.2545 -0.1644
55915W        W98931  34.386   2.376   3.893  0.1725  0.2438  0.0005
55916W        W98932  28.900  23.484   0.219 -0.0969 -0.2254  0.0781
55917W        W98933   8.684  20.440   2.251  0.1516 -0.4615  0.2072
55918W        W98934   4.763   0.222  26.936 -0.0111 -0.0703  0.2150
55919W        W98935   6.481  30.227   9.301 -0.1385  0.2540 -0.1909
55920W        W98936  32.943   3.509  22.894 -0.0634  0.1896 -0.0308
55921W        W98937   0.353   7.025  25.553 -0.0592 -0.2397 -0.1992
55922W        W98938  28.264  16.096   1.013 -0.1712 -0.3199 -0.1639
55923W        W98939  30.741  29.167   7.156 -0.2066  0.0236  0.0038
55924W        W98940  16.948   0.596   0.110  0.0499  0.0176  0.0618
55925W        W98941   7.912  21.716  27.608  0.2733  0.0936 -0.0592
55926W        W98942  33.172  22.450  27.764  0.2791 -0.0645 -0.2586
55927W        W98943   1.676  34.277  20.950  0.0917  0.1194  0.0793
55928W        W98944   5.235  30.200   7.182 -0.2271 -0.2610  0.0791
55929W        W98945  19.688  19.854  21.014 -0.0188 -0.0803 -0.1078
55930W        W98946   3.995   0.491   7.941 -0.0608  0.0112 -0.0923
55931W        W98947  22.311  21.250  25.460 -0.0631 -0.2184  0.2185
55932W        W98948   4.200  28.307   4.406  0.1174  0.0977  0.0567
55933W        W98949  23.695   2.854  25.865 -0.0843  0.1864 -0.1274
55934W        W98950   1.696  24.496  25.805 -0.3448 -0.4194 -0.1391
55935W        W98951  19.062  29.027   4.381 -0.1261  0.0560  0.0375
55936W        W98952  30.070  11.461  24.684  0.1958  0.1557 -0.2158
55937W        W98953  29.469  31.670   3.155 -0.2091 -0.3630 -0.1368
55938W        W98954  25.127  17.725  23.883  0.3290 -0.0091 -0.2746
55939W        W98955  17.424  34.470  25.377  0.0028 -0.2142  0.1613
55940W        W98956  28.479  31.006  18.256  0.1326 -0.1444 -0.1340
55941W        W98957  25.076  31.927   1.690  0.2688 -0.1225  0.1337
55942W        W98958  29.868  24.513  24.585  0.0069 -0.2100 -0.1128
55943W        W98959   6.461  14.031  27.210 -0.0951  0.0417 -0.0535
55944W        W98960   4.901  13.245   3.900  0.1353  0.1101  0.0117
55945W        W98961  32.778  16.979  21.793 -0.1698 -0.1398 -0.1095
55946W        W98962  32.532  33.298  25.834 -0.3330 -0.1226  0.0827
55947W        W98963   6.583   0.169   2.260 -0.1809 -0.1707 -0.0377
55948W        W98964   5.450  25.617   0.305 -0.4189 -0.1760 -0.2064
55949W        W98965  28.304  16.897   3.333  0.0179 -0.2760 -0.1180
55950W        W98966   9.324  34.643  16.808  0.2724 -0.0228 -0.0636
55951W        W98967   0.260   5.534  16.380  0.0347 -0.4422 -0.0616
55952W        W98968   2.646   1.451   3.428  0.1030  0.1112 -0.1545
55953W        W98969  33.378   5.930  15.459  0.2679  0.1332 -0.2484
55954W        W98970  23.370  24.071  16.481  0.3217 -0.2085  0.1857
55955W        W98971   7.873   3.679  28.636 -0.3038 -0.0502 -0.1812
55956W        W98972   1.996  15.414   1.050  0.1417  0.0357  0.1573
55957W        W98973  28.344   3.661   1.327 -0.0548 -0.0407  0.1275
55958W        W98974  21.322  33.235  27.733 -0.0456 -0.4468 -0.0988
55959W        W98975  19.853  30.841   9.077 -0.0245  0.3787  0.0943
55960W        W98976  33.229  19.615  24.232  0.0078 -0.2752  0.2118
55961W        W98977  25.363  17.864   3.155 -0.0854 -0.4213  0.2353
55962W        W98978  31.580  20.093   4.193  0.0539 -0.0851  0.0062
55963W        W98979  20.910   0.534   4.593 -0.0201 -0.2525 -0.0858
55964W        W98980  31.236  31.632   1.435 -0.0927 -0.0739 -0.1265
55965W        W98981   6.903  22.465  26.129 -0.0999 -0.0827 -0.3080
55966W        W98982  31.661  28.279   1.036 -0.2007  0.1662 -0.0167
55967W        W98983   6.875   2.397  24.144 -0.0577 -0.0540  0.0669
55968W        W98984  28.286  25.407   9.936  0.0344 -0.1089  0.3766
55969W        W98985   0.268   8.364   4.772  0.1539  0.2367 -0.1706
55970W        W98986  31.502  30.591  29.000  0.1402 -0.0314  0.1655
55971W        W98987  30.688  26.539  24.844 -0.1449 -0.1673 -0.0351
55972W        W98988   6.917   6.116  20.000  0.3466 -0.0874 -0.2377
55973W        W98989  20.693   0.211  18.586 -0.2552 -0.1288  0.0202
55974W        W98990   5.359  16.583   6.878  0.1157 -0.1447 -0.0864
55975W        W98991  24.780  31.215  25.073 -0.1593 -0.0778  0.0452
55976W        W98992  28.879  27.686   0.111 -0.1884  0.3825 -0.0956
55977W        W98993  33.249  26.812  23.035  0.2819 -0.2280  0.1043
55978W        W98994  19.234  33.115   1.710  0.3004  0.0232 -0.1496
55979W        W98995  22.312  26.442   1.134  0.0694 -0.0736 -0.1693
55980W        W98996  26.879   5.466   7.927  0.0036  0.0023  0.2791
55981W        W98997   0.723   9.297  24.524 -0.0487 -0.2307 -0.3857
55982W        W98998  30.891   3.329   6.526 -0.4321 -0.0700 -0.0921
55983W        W98999  34.434  24.318  26.161 -0.1258 -0.0127  0.0491
55984W        W99000  28.252  24.429   5.234 -0.0444  0.2442  0.1386
55985W        W99001  13.133   3.052   1.609 -0.0854  0.1638 -0.3755
55986W        W99002   7.053  30.841   8.896 -0.1891  0.0228  0.0023
55987W        W99003  25.957  16.323  16.212  0.1673  0.1073  0.1056
55988W        W99004   3.337  13.323   0.676  0.1215 -0.0752  0.0391
55989W        W99005  27.224   4.252  21.817  0.0633  0.1273  0.3577
55990W        W99006   0.178   1.246   1.088  0.1001  0.1647 -0.0102
55991W        W99007  23.069  14.875   2.771  0.2599 -0.0032 -0.0171
55992W        W99008  18.980  18.754  25.049 -0.0950 -0.3664 -0.1362
55993W        W99009   0.353  31.661  15.095 -0.1052 -0.0438 -0.0135
55994W        W99010   9.366  26.608   2.323 -0.2891  0.0179 -0.0605
55995W        W99011  30.726  32.575  23.361 -0.0722 -0.1638 -0.0923
55996W        W99012   3.695  18.501  28.037 -0.0229 -0.0061  0.2438
55997W        W99013   0.700  22.905   3.860 -0.0607 -0.0674  0.1278
55998W        W99014  29.353   3.466   8.354  0.0463  0.3232 -0.1150
55999W        W99015  18.808  12.071  25.278 -0.0731 -0.1420  0.2157
56000W        W99016  20.189  34.370   5.053  0.0618  0.4113 -0.1187
56001W        W99017  30.384  33.347  18.844  0.0190  0.0491  0.0960
56002W        W99018  32.667  15.823   9.364  0.2312  0.0114 -0.4985
56003W        W99019  19.136  15.248   0.052  0.0252  0.0810 -0.0047
56004W        W99020  30.708  29.149   7.960 -0.2420 -0.0478  0.1880
56005W        W99021  25.521  33.481  20.580 -0.1816  0.0153  0.1140
56006W        W99022  20.693  22.999  27.357  0.2146 -0.0083 -0.3032
56007W        W99023  24.643   9.522   2.362  0.0584  0.3041 -0.0426
56008W        W99024  31.297  15.815  28.649 -0.1250 -0.0302 -0.2728
56009W        W99025  23.786  30.199   0.549 -0.0979 -0.0203  0.4891
56010W        W99026  14.714  31.265  24.684  0.1576  0.1252 -0.1051
56011W        W99027   3.703  21.388   6.907 -0.3732 -0.1235 -0.0130
56012W        W99028  12.329  15.630   5.162 -0.0105 -0.1944  0.0358
56013W        W99029  14.158   4.900   4.555 -0.3541 -0.2786  0.0224
56014W        W99030  32.997  29.266  17.095 -0.0435  0.0369 -0.2953
56015W        W99031   7.933  24.237   8.415 -0.0916 -0.2606  0.2480
56016W        W99032  34.375  15.127   0.253 -0.0488  0.2826  0.0725
56017W        W99033  14.190  33.688  10.729  0.4651 -0.0479 -0.0556
56018W        W99034  23.402  19.252  22.954  0.0064 -0.0838  0.1418
56019W        W99035  31.796  10.633   7.234  0.0616 -0.4182 -0.1150
56020W        W99036  27.897   3.429   5.111  0.1027 -0.1489  0.0735
56021W        W99037  32.014  21.290   1.944 -0.2076  0.1866  0.0809
56022W        W99038  13.574  34.489  25.876 -0.2918  0.1193 -0.0522
56023W        W99039  33.624  26.888   3.087  0.2203  0.0636  0.2905
56024W        W99040  29.543  23.984  18.907  0.0630 -0.2529 -0.1300
56025W        W99041  23.474  29.147  21.523  0.1670  0.0633  0.0693
56026W        W99042  12.326  29.361  24.237  0.1001  0.0317  0.7389
56027W        W99043   1.620  18.102   0.913  0.0363  0.1558 -0.3069
56028W        W99044   5.292  23.167  17.697  0.5403 -0.1341 -0.3762
56029W        W99045   5.361   2.930  21.245 -0.0587 -0.0278  0.0091
56030W        W99046  25.245   6.213   6.861  0.1574 -0.0629  0.0154
56031W        W99047  33.702   0.235   8.395  0.1047  0.0191  0.0223
56032W        W99048   6.430  25.457   3.232  0.3740  0.1739 -0.0700
56033W        W99049   2.268  15.288   8.408  0.1306 -0.0539 -0.3845
56034W        W99050  34.433  21.505   2.995  0.0815  0.5486  0.2377
56035W        W99051   9.908  16.687  28.133 -0.0545 -0.0887  0.6033
56036W        W99052  33.590  21.968   2.446 -0.3877 -0.1367 -0.0642
56037W        W99053  23.028  29.134   0.092  0.2639  0.1518 -0.0251
56038W        W99054   4.187  19.594   2.666 -0.3963 -0.0384  0.1685
56039W        W99055  12.432  25.383   5.497 -0.1699  0.3095  0.1015
56040W        W99056  31.033   1.454   0.736  0.0306  0.0231 -0.3601
56041W        W99057  11.745  30.474   0.208 -0.2645 -0.1952  0.3431
56042W        W99058  29.277  32.651   6.145 -0.2734  0.2230  0.0963
56043W        W99059  34.437  32.186   0.557 -0.0368 -0.1411 -0.1066
56044W        W99060  32.836  29.335   7.262  0.2817 -0.0383  0.0785
56045W        W99061  22.116  25.638   3.816  0.0039  0.2632  0.1778
56046W        W99062  28.999   8.249   8.284  0.0570  0.2201  0.0803
56047W        W99063   1.952   7.791   7.085  0.2256 -0.0124  0.3346
56048W        W99064  27.178   3.227  10.116 -0.6935 -0.1401 -0.2143
56049W        W99065   2.158  21.071  24.079  0.0152 -0.2438 -0.2787
56050W        W99066  34.031   2.355   4.809 -0.0328 -0.2009  0.0520
56051W        W99067   0.718  22.355   2.898 -0.0754 -0.1744  0.0274
56052W        W99068   0.024  34.592   5.770  0.0664 -0.1912 -0.3488
56053W        W99069  30.288   1.212  10.209 -0.4334 -0.0707 -0.2959
56054W        W99070  33.504  28.650  25.125  0.0252 -0.0774 -0.0964
56055W        W99071   4.000   4.828  16.965 -0.3494 -0.0532  0.0954
56056W        W99072   5.094  18.628  19.504 -0.1634 -0.0630  0.0642
56057W        W99073  18.521  24.438  24.768 -0.1715  0.2075 -0.2561
56058W        W99074   1.285  32.296   8.335 -0.0440 -0.2261 -0.0237
56059W        W99075  22.821  20.926  24.163 -0.0722  0.0329  0.4260
56060W        W99076  31.285   0.229  28.886 -0.1136  0.1754 -0.1166
56061W        W99077   0.729   4.519  16.681  0.0176  0.2135  0.0884
56062W        W99078  33.127  24.926   2.088  0.3102  0.2507 -0.4161
56063W        W99079  26.941   3.406   8.950  0.0475 -0.0987 -0.1885
56064W        W99080  27.177  26.672   9.315 -0.1653  0.1084 -0.0707
56065W        W99081  31.199   6.335  25.831  0.1957  0.4457 -0.0108
56066W        W99082  25.430  23.312  25.586  0.0302 -0.0633  0.0016
56067W        W99083  34.222  29.763   3.698  0.1140  0.2405 -0.1069
56068W        W99084   3.934  26.233   5.654 -0.3330  0.1233 -0.0853
56069W        W99085  10.696  23.604  26.821 -0.2499  0.2578 -0.3492
56070W        W99086  30.719  29.682   8.017  0.0461 -0.0948  0.1493
56071W        W99087   3.266   6.890   6.813  0.2042 -0.1487  0.2004
56072W        W99088  32.888   1.306   7.364 -0.0783 -0.1541  0.2154
56073W        W99089   8.751   3.323   5.098  0.0155  0.1005 -0.2317
56074W        W99090  15.267  21.604  24.398 -0.2301  0.1265  0.0448
56075W        W99091  21.497  29.982   9.904 -0.1852 -0.0302 -0.1792
56076W        W99092  22.804   5.389   1.867  0.0685  0.3137 -0.3278
56077W        W99093  26.937  27.666  16.240 -0.3879  0.1251  0.1319
56078W        W99094  32.307  21.007   0.998  0.0034  0.3028 -0.1793
56079W        W99095  29.500  25.764   7.925 -0.1300 -0.0765  0.2375
56080W        W99096  15.079  30.480  10.208 -0.3080  0.1587 -0.1627
56081W        W99097  18.951  30.160  23.970 -0.0110 -0.1129  0.1048
56082W        W99098  25.003  16.929   1.080 -0.3005 -0.2538  0.4926
56083W        W99099   0.704  30.089  10.084 -0.2261 -0.2078 -0.2516
56084W        W99100   4.753  28.950   3.050  0.2085  0.1694  0.1538
56085W        W99101  22.094  31.892   1.609 -0.2219  0.3459  0.0868
56086W        W99102  30.953   0.105   8.156  0.0000 -0.2432 -0.0731
56087W        W99103  23.015  28.296   8.526  0.1519  0.0690  0.1405
56088W        W99104  29.432  32.753  23.492 -0.0886 -0.0023 -0.1562
56089W        W99105  29.966  33.964  28.807 -0.0385  0.2743  0.0384
56090W        W99106  20.036  28.034   1.527  0.0737  0.0775  0.6087
56091W        W99107   2.740  33.486   4.549  0.1065  0.1052  0.0780
56092W        W99108   2.030  16.482   9.693  0.0640  0.0959 -0.1877
56093W        W99109  12.535  22.235   7.822 -0.0520 -0.1020 -0.0739
56094W        W99110  32.388   5.722   9.641  0.1182  0.1336  0.1189
56095W        W99111  22.202   3.349   6.033  0.0750  0.1568 -0.0621
56096W        W99112  25.304  24.361  29.247  0.2313  0.1569  0.0202
56097W        W99113  18.053   4.737   7.622  0.1405 -0.1360  0.3433
56098W        W99114   0.235  29.848   5.179  0.0699  0.0764  0.0110
56099W        W99115  29.787   4.414  29.203 -0.1345  0.1563 -0.2083
56100W        W99116  27.353  26.004  23.391  0.2057  0.2374 -0.1900
56101W        W99117   3.475  26.838   7.220  0.0486 -0.0564 -0.1256
56102W        W99118  26.873  13.737  15.817  0.1017  0.0002  0.0493
56103W        W99119  21.192  23.788   5.668 -0.3205 -0.3675 -0.1308
56104W        W99120  17.840   0.206   2.107  0.1632  0.3890  0.1631
56105W        W99121  12.583  33.818  26.135  0.0629 -0.0612  0.0915
56106W        W99122  27.644   3.386  11.359  0.2777  0.0378 -0.0359
56107W        W99123   8.777  24.758   5.233  0.1961  0.0984  0.0460
56108W        W99124  34.638  32.191  22.957 -0.1476  0.0241  0.1451
56109W        W99125  19.243   9.605  27.919  0.1092 -0.4082  0.2107
56110W        W99126   5.395  28.293  27.096  0.4181  0.0588  0.1006
56111W        W99127  30.570  22.288   8.539 -0.1060  0.2681  0.2831
56112W        W99128  18.283  25.727   0.760  0.0242 -0.0515  0.1503
56113W        W99129   0.420  12.893   5.658  0.2635  0.2627 -0.1249
56114W        W99130  27.059  32.259   1.986  0.0911  0.2132  0.0053
56115W        W99131  25.237   2.336   9.800 -0.0203  0.1417 -0.0450
56116W        W99132   0.376  28.557   8.800 -0.1052 -0.0462  0.0816
56117W        W99133  33.479   5.251  10.143 -0.1643 -0.3008  0.1708
56118W        W99134  23.500  24.313   6.852  0.0092  0.2855 -0.1980
56119W        W99135   8.462  21.961   5.582  0.0740 -0.2377 -0.4744
56120W        W99136   2.791  31.607   2.734  0.2220  0.3330  0.2147
56121W        W99137   1.677  29.401   7.136 -0.2289  0.0891 -0.0828
56122W        W99138   6.594  21.551   6.955  0.2321  0.2073  0.0000
56123W        W99139  21.775  30.037   8.892  0.0365  0.2675 -0.3188
56124W        W99140   4.140  30.103   1.442  0.1205  0.0657  0.0557
56125W        W99141   0.203  18.121   8.404 -0.2374 -0.2290 -0.0077
56126W        W99142  30.435   9.215   8.289 -0.0882  0.1038  0.2036
56127W        W99143  33.664  24.271   7.994 -0.1188 -0.1666  0.0488
56128W        W99144   2.851  20.818   5.153 -0.1706  0.1925  0.0242
56129W        W99145   1.581  34.487  28.098 -0.1856 -0.0909 -0.1230
56130W        W99146  26.884  14.798  27.936 -0.0392 -0.0267  0.0355
56131W        W99147   0.091  26.269   1.720  0.0084 -0.2449 -0.2607
56132W        W99148  18.424   5.260  18.337  0.1064  0.3696  0.2064
56133W        W99149   0.841   3.832   1.034  0.0458 -0.1876 -0.3802
56134W        W99150  29.980  10.530   8.405  0.0643 -0.0698  0.1264
56135W        W99151  27.436  18.987   8.025  0.1199  0.5220 -0.0142
56136W        W99152   6.360   1.413   9.551 -0.0226  0.3995  0.2275
56137W        W99153  28.132  28.104   3.396  0.0075  0.1728  0.0115
56138W        W99154  22.101  21.093   0.031  0.0843 -0.1502 -0.3561
56139W        W99155  23.560  34.185   8.838  0.0143  0.0986  0.0001
56140W        W99156  21.923  31.849   8.461 -0.0607  0.3115  0.1220
56141W        W99157  26.045   2.082   5.573  0.0952 -0.2196 -0.0505
56142W        W99158  21.162   9.067   8.715  0.2036 -0.0682 -0.1061
56143W        W99159  27.972  25.359   6.883 -0.0641  0.3436 -0.0730
56144W        W99160  12.518   6.815   1.464  0.0186  0.1297  0.1083
56145W        W99161   3.696   8.912  10.126  0.2525  0.0871  0.1868
56146W        W99162   2.914  27.543   3.803 -0.0790  0.0915  0.0772
56147W        W99163  31.738  21.848   5.626  0.2631  0.0743 -0.0601
56148W        W99164   1.354  23.551  25.725  0.0713  0.2076  0.3857
56149W        W99165  34.347   5.438   2.379 -0.0709  0.0496 -0.0888
56150W        W99166   6.020  31.238   0.566 -0.2240  0.0449  0.0142
56151W        W99167  23.815  24.067   6.485  0.0832  0.1736  0.0708
56152W        W99168  23.271  25.964   4.289 -0.1062 -0.0268  0.1898
56153W        W99169  27.139  29.048  24.018 -0.1394 -0.0091 -0.0020
56154W        W99170  26.991   5.655  21.057  0.1490 -0.2316  0.2733
56155W        W99171  18.223  31.401  15.118  0.0447 -0.0018 -0.0017
56156W        W99172  32.252   2.858   9.217 -0.2465 -0.3369  0.0281
56157W        W99173  16.846  27.780   6.410  0.2084 -0.0227 -0.0121
56158W        W99174   4.663  34.090   6.285 -0.1142  0.0125  0.1372
56159W        W99175  20.742  24.875   9.372  0.0209  0.1656 -0.3129
56160W        W99176  19.155  32.630   1.867  0.3201  0.0792  0.1730
56161W        W99177  19.415  26.452  28.305  0.1389  0.1164  0.0380
56162W        W99178  30.453  29.827  12.039 -0.4150  0.2373 -0.2985
56163W        W99179  25.960   5.275  26.728  0.0767 -0.0031  0.1564
56164W        W99180  13.274  20.062  20.184  0.2609 -0.1341 -0.0468
56165W        W99181  32.138  29.789  10.243  0.0672 -0.3286  0.6435
56166W        W99182   0.455  27.187   2.190 -0.0762  0.1357 -0.1810
56167W        W99183  14.554  31.360   3.745 -0.2598 -0.3410  0.1917
56168W        W99184  22.645   0.373   5.491 -0.1559 -0.0119  0.0854
56169W        W99185  34.127   0.006   2.070  0.2964 -0.0984  0.1026
56170W        W99186  32.083  33.432  27.567 -0.0728 -0.0252 -0.0076
56171W        W99187   4.584  29.105   1.888 -0.0844  0.5040  0.2365
56172W        W99188  29.525  28.049   2.074 -0.3338  0.1519  0.1014
56173W        W99189  28.105   2.742  28.449  0.1529 -0.0307 -0.0041
56174W        W99190  33.621  10.020   8.620 -0.1424 -0.0300 -0.0973
56175W        W99191  16.390  13.043   7.376  0.0378 -0.0868 -0.2047
56176W        W99192  24.496  19.302   1.068  0.0719 -0.2513  0.1939
56177W        W99193  30.872  23.472   4.191  0.3073  0.2900 -0.1492
56178W        W99194  33.234   6.589  27.680  0.2258 -0.1269  0.2363
56179W        W99195   1.348  24.161   7.693  0.0778 -0.2567 -0.1012
56180W        W99196  10.987   9.694   3.253 -0.0667 -0.2823 -0.0027
56181W        W99197   3.642   3.965  24.433 -0.1087 -0.0531 -0.0922
56182W        W99198   4.944  25.585   8.432 -0.1909  0.1324  0.2989
56183W        W99199   7.662   7.941   5.350  0.0085 -0.2224  0.2179
56184W        W99200  27.716  33.168  10.950  0.2339 -0.5102  0.2171
56185W        W99201  29.310  24.041   8.530  0.2459 -0.0282 -0.2003
56186W        W99202   5.830   7.805  20.484 -0.1499 -0.1792  0.0289
56187W        W99203  26.998  33.505   4.101 -0.1046  0.4086  0.0252
56188W        W99204  26.422   4.489   9.679  0.1804 -0.3591  0.1417
56189W        W99205  32.056  27.363   6.177 -0.1774 -0.0409  0.1329
56190W        W99206  15.808  20.565   8.598 -0.2625 -0.1720  0.0606
56191W        W99207   1.859  27.462  24.742 -0.2483 -0.1902  0.0778
56192W        W99208  21.600  11.958   1.035 -0.0817  0.0695  0.1775
56193W        W99209  21.838  17.200   5.723  0.0342 -0.0477 -0.0024
56194W        W99210   1.614  19.786   6.455  0.1034 -0.0049  0.2280
56195W        W99211   7.790  24.560   2.394 -0.0666 -0.0493 -0.0571
56196W        W99212   7.707   2.857  18.301 -0.3897  0.0805 -0.1351
56197W        W99213   6.013   6.851  26.971  0.0237  0.2089  0.1327
56198W        W99214   5.091  31.487   0.688  0.3627  0.1098 -0.2859
56199W        W99215  33.949  23.370  22.100 -0.0532  0.2822 -0.2051
56200W        W99216  22.990  30.147  26.123 -0.0023 -0.1182 -0.3331
56201W        W99217  17.774  33.560   6.795 -0.0381 -0.2016  0.0835
56202W        W99218  20.872  30.971  10.566  0.1459  0.0435 -0.1889
56203W        W99219  19.679   3.859   5.806  0.0780 -0.0404 -0.1079
56204W        W99220  34.281   8.697  21.514 -0.0008 -0.2011 -0.2997
56205W        W99221   1.562   7.503   7.750 -0.1374  0.1583 -0.1032
56206W        W99222  33.424  31.702   8.930  0.3295  0.0432 -0.2107
56207W        W99223  18.533  24.447   0.841 -0.1373  0.1183  0.2992
56208W        W99224  28.289  31.489  20.162 -0.1095  0.2532 -0.3624
56209W        W99225   9.136  34.569   9.888  0.0750  0.3859  0.1142
56210W        W99226   4.497  16.133   7.378  0.1262 -0.1749  0.1710
56211W        W99227   8.813   6.047   7.197  0.3850 -0.2802  0.1037
56212W        W99228   9.610  22.612  27.648  0.2062  0.0093 -0.0147
56213W        W99229  30.775   0.132   5.778  0.1483  0.0395 -0.0896
56214W        W99230   8.199   2.483   8.590 -0.2236  0.3886 -0.1640
56215W        W99231  12.118  25.550   7.823 -0.0622 -0.0327  0.1728
56216W        W99232  28.504  27.024   9.900  0.0418 -0.0622  0.1020
56217W        W99233  28.248  17.834  28.515  0.0131  0.2049  0.4395
56218W        W99234  23.877  10.854   3.563 -0.1321  0.0253 -0.1527
56219W        W99235   8.230   0.011  20.392 -0.1393 -0.2905  0.0460
56220W        W99236  10.797   7.680   7.310 -0.2191  0.1386 -0.0032
56221W        W99237   8.477   4.532   5.504 -0.1083 -0.2019  0.0446
56222W        W99238  21.585  30.605   1.629 -0.2388 -0.0676 -0.0823
56223W        W99239  21.624   5.110   8.915  0.2656 -0.1652 -0.0595
56224W        W99240  27.595  18.140  23.556  0.0744 -0.1532  0.1358
56225W        W99241  33.049  31.700   6.110 -0.0274 -0.1087  0.1585
56226W        W99242  33.681  21.267   7.981  0.2452 -0.0942 -0.1849
56227W        W99243  29.618  20.896  26.942 -0.2769  0.1212  0.1090
56228W        W99244  33.390  24.257   3.438  0.3992 -0.0592 -0.0437
56229W        W99245  26.258  21.436   0.764  0.2445  0.2584  0.0452
56230W        W99246  34.055   7.797   5.414 -0.0519 -0.2027  0.1455
56231W        W99247   7.317  28.657   9.872 -0.1122  0.0907 -0.0451
56232W        W99248   3.058  28.695   7.440  0.3173  0.0202  0.1283
56233W        W99249  27.900  23.961   4.573  0.0887  0.0688  0.3068
56234W        W99250  29.778  21.315   7.410 -0.3104 -0.3082  0.2183
56235W        W99251   3.798  27.223  15.201  0.3320 -0.2783  0.1139
56236W        W99252  26.267   3.191   0.275  0.1270  0.2231  0.2841
56237W        W99253  32.492  15.902   7.600 -0.0843 -0.0427 -0.0649
56238W        W99254  34.595  27.759   7.920 -0.0301 -0.1934  0.2600
56239W        W99255  10.719   4.113  24.369 -0.3649  0.1667  0.1953
56240W        W99256   4.696  18.814   5.977  0.2665  0.2393  0.0864
56241W        W99257  30.983  20.380   8.881  0.1152  0.0507 -0.1649
56242W        W99258   4.291  24.157  28.379  0.2140 -0.0731 -0.0592
56243W        W99259   0.976   0.299   5.095 -0.4416  0.2420  0.0663
56244W        W99260   1.670  29.836   7.528 -0.2039 -0.0417 -0.2455
56245W        W99261  20.794   2.032  24.864  0.2689  0.0516  0.2572
56246W        W99262   8.577  21.248  24.257 -0.1648  0.1589  0.0441
56247W        W99263  24.351  32.981   8.495 -0.0425  0.1035  0.5521
56248W        W99264  13.079  31.261   5.838  0.2042 -0.1507  0.2405
56249W        W99265  19.851  17.278   0.406  0.0029  0.2083  0.0399
56250W        W99266  29.110  31.340   3.181  0.1035  0.0308 -0.0119
56251W        W99267  31.997  22.139   9.599  0.3107  0.1834 -0.2273
56252W        W99268  32.330  16.357   2.594 -0.1495 -0.0586 -0.1210
56253W        W99269  30.281   7.441   8.610 -0.2840  0.0907 -0.1420
56254W        W99270  27.113  12.313   3.211 -0.0346 -0.2729  0.1299
56255W        W99271  33.728  22.560   8.309 -0.1819  0.1215  0.0567
56256W        W99272  34.130  31.214   7.895 -0.1475 -0.0490 -0.2774
56257W        W99273   0.863  21.428   6.572 -0.1080  0.0600  0.3640
56258W        W99274   6.489  24.117   4.929 -0.0459  0.0585 -0.3268
56259W        W99275  10.652  26.309   3.332  0.3808  0.1528 -0.3310
56260W        W99276  25.775  19.355  28.145 -0.0757  0.3948 -0.0350
56261W        W99277  17.968  30.830   5.071 -0.1651  0.2534  0.4416
56262W        W99278   5.043  21.358   2.785 -0.0338 -0.1330  0.2240
56263W        W99279  14.014  31.092   2.589  0.1775 -0.0533  0.2332
56264W        W99280   5.346  33.724   1.368 -0.0709  0.0072  0.1071
56265W        W99281  10.527  12.339  25.920 -0.2559 -0.0521 -0.0667
56266W        W99282   3.478   8.474  21.652  0.0245 -0.2927 -0.0630
56267W        W99283  28.598   2.424   3.973  0.1213 -0.1805  0.1097
56268W        W99284  34.369   8.573   9.341  0.1686  0.1460 -0.0072
56269W        W99285  34.038   7.901   3.659 -0.2478  0.0678 -0.0335
56270W        W99286   5.636   4.461   5.227 -0.0007 -0.1728  0.2154
56271W        W99287   9.614  11.611   4.029  0.1110  0.0619 -0.1294
56272W        W99288   3.430  25.481  24.445 -0.1823  0.0274  0.1072
56273W        W99289   7.487  28.887   8.044 -0.1049 -0.4083  0.2403
56274W        W99290  30.409   1.342   8.108  0.0481 -0.1078  0.1050
56275W        W99291  32.212  30.951   6.175 -0.1157 -0.0956  0.1632
56276W        W99292  31.248  32.911  24.278  0.4919 -0.0304 -0.1985
56277W        W99293  23.222  15.761   5.901  0.0044  0.1906  0.1940
56278W        W99294  11.975  21.468   1.404 -0.1034 -0.0730  0.2309
56279W        W99295   9.539  24.108  28.865  0.0356  0.2711  0.1980
56280W        W99296   9.682  21.155   2.052 -0.4369  0.0976  0.0206
56281W        W99297  34.202  33.226   7.680 -0.1384 -0.1014  0.0268
56282W        W99298   8.486  22.850  24.630  0.1404 -0.0639 -0.4356
56283W        W99299   5.196  15.556   3.664 -0.1961 -0.0523  0.0895
56284W        W99300  33.790  29.573   4.064 -0.1528 -0.0850 -0.1080
56285W        W99301   6.187   9.930   6.496  0.2291  0.0632 -0.4461
56286W        W99302  20.303   8.114  19.623 -0.0947  0.0278  0.1742
56287W        W99303   4.287   1.173  27.467 -0.1941 -0.0258  0.0312
56288W        W99304  33.354  30.042   9.324 -0.1205 -0.2681 -0.0761
56289W        W99305   2.844  25.442   6.226  0.0775 -0.0497 -0.1355
56290W        W99306   6.667   1.009   0.648 -0.1134 -0.0066  0.2306
56291W        W99307  28.246  15.576   1.296 -0.0810  0.0402 -0.1258
56292W        W99308  22.437  29.159  10.430  0.0993  0.1303  0.1719
56293W        W99309  21.428  28.743   8.644  0.1359 -0.0090 -0.1209
56294W        W99310  31.178  20.624  28.401 -0.2617  0.1303 -0.0727
56295W        W99311   0.538   3.169  21.960 -0.1158  0.0112  0.1266
56296W        W99312   0.342   2.447   5.552 -0.1093  0.0431  0.3395
56297W        W99313  12.440   1.446   8.496  0.1235 -0.1041  0.1367
56298W        W99314  30.699  25.758  10.487  0.0845  0.0407  0.2290
56299W        W99315   6.188   4.152   3.432  0.0060 -0.0675 -0.0695
56300W        W99316  32.592   9.191  26.723 -0.1247  0.0663  0.3594
56301W        W99317   1.309   2.812   5.806  0.2773  0.2013 -0.0250
56302W        W99318  14.552  20.507   6.821 -0.1178  0.0471  0.0590
56303W        W99319  25.949  12.307   5.021 -0.1336  0.0032  0.0297
56304W        W99320  22.757  34.267   7.125 -0.0632 -0.0732 -0.1157
56305W        W99321   2.866  33.040   5.780  0.0197 -0.0451 -0.2232
56306W        W99322  31.831  13.221  15.483 -0.2025 -0.1219 -0.2998
56307W        W99323  27.567   9.648   9.349  0.1229  0.1100 -0.1149
56308W        W99324  32.732  33.482   5.263  0.0870  0.1454  0.0283
56309W        W99325  22.489  34.068  19.975  0.0469 -0.3104 -0.1854
56310W        W99326  17.017   8.471   5.433 -0.4419  0.1357  0.1374
56311W        W99327  28.811  31.495   7.617  0.2026  0.0007 -0.0566
56312W        W99328  34.435  29.659  10.097  0.0334 -0.0989  0.2570
56313W        W99329  33.500  21.765   8.047 -0.0031 -0.0526  0.0027
56314W        W99330   5.818  21.463  27.975  0.1584  0.4121  0.2956
56315W        W99331   5.351  19.254   4.151 -0.1812 -0.0996  0.2609
56316W        W99332  32.728  15.268   1.835  0.3223 -0.1464 -0.1853
56317W        W99333  19.160  13.854  21.569  0.1670 -0.0661 -0.0986
56318W        W99334   3.270   1.712   9.118  0.5187 -0.2829  0.0901
56319W        W99335  11.793   7.861  26.713 -0.0174  0.1263 -0.0165
56320W        W99336  32.015  29.315  27.207 -0.0172 -0.0200  0.1294
56321W        W99337   2.262  24.419   3.181 -0.2502  0.0079  0.0699
56322W        W99338   1.905   3.432   2.139  0.0803  0.0786 -0.1801
56323W        W99339   6.779  32.241   7.807 -0.0686  0.0166  0.4123
56324W        W99340  11.698  31.475  22.580  0.1326  0.1529  0.2555
56325W        W99341  20.024  19.811   4.714 -0.0514  0.0503  0.3567
56326W        W99342  33.624  20.100   7.208 -0.1261 -0.0276 -0.0995
56327W        W99343  32.566  18.039   7.101  0.0039  0.2442 -0.1223
56328W        W99344  11.686   4.467   8.106 -0.0402  0.2219  0.1338
56329W        W99345  30.692  19.544  27.214 -0.0208 -0.0219 -0.0620
56330W        W99346  34.165  15.206  28.563 -0.0474  0.1669 -0.2892
56331W        W99347  25.247  26.756  12.069  0.0612  0.0572  0.1826
56332W        W99348  22.310  28.796   2.995 -0.0045  0.0734 -0.0876
56333W        W99349  27.685   0.030   8.978  0.1255  0.0558  0.3885
56334W        W99350   4.336  14.449   0.394 -0.2154  0.0152 -0.2737
56335W        W99351   9.543   1.077   8.161  0.0586 -0.2641  0.0930
56336W        W99352  32.300  20.830   8.651  0.0999  0.1427  0.0832
56337W        W99353   3.900  32.468  28.259  0.1087  0.2665  0.2556
56338W        W99354   2.519  27.504   9.568  0.1234  0.1302 -0.0338
56339W        W99355  27.242  28.469  11.350 -0.2655 -0.1939 -0.1300
56340W        W99356  34.715  24.074   3.780 -0.2045 -0.3969 -0.1526
56341W        W99357  12.951   1.815  19.168 -0.0780 -0.1364 -0.1454
56342W        W99358  32.001  14.898  10.580 -0.0516  0.2202 -0.0140
56343W        W99359  32.317   2.476   6.796  0.0811 -0.0401  0.0178
56344W        W99360   5.355  14.446   7.058 -0.1257 -0.1672 -0.4687
56345W        W99361  21.117  26.553   4.429  0.0549 -0.0790 -0.0620
56346W        W99362  32.659  34.241   5.619 -0.4737 -0.0405  0.1627
56347W        W99363   0.507  16.367  24.988  0.3655  0.0033 -0.2281
56348W        W99364  10.829  29.736  28.163  0.0513  0.0509 -0.1121
56349W        W99365  30.579  25.222   2.967 -0.1704  0.0554  0.1382
56350W        W99366  24.454  23.730   9.225  0.1312 -0.1283  0.1627
56351W        W99367   0.949  28.308   7.456  0.0778  0.1648  0.0006
56352W        W99368  30.240  28.514   6.718 -0.2238  0.2993 -0.1340
56353W        W99369  33.847  16.852   1.396  0.1651 -0.3158  0.0364
56354W        W99370   0.908   1.599   4.669  0.1078  0.5476  0.2628
56355W        W99371  25.274  30.001  10.791 -0.2866  0.0178 -0.1297
56356W        W99372   1.536   9.860   7.436  0.1626  0.0808 -0.1683
56357W        W99373   6.331   8.407   0.802 -0.0633  0.0217 -0.0715
56358W        W99374   2.055   2.150   4.012  0.0815 -0.2558 -0.1229
56359W        W99375   6.066  29.740   1.756  0.0931 -0.1826 -0.3427
56360W        W99376   4.192   8.434   3.861  0.0570  0.1113 -0.0130
56361W        W99377  29.238  30.161   0.284  0.0341 -0.1472 -0.0265
56362W        W99378   5.110  34.512   7.839 -0.0873  0.0010  0.1041
56363W        W99379  34.468  33.551  20.323 -0.2767  0.3055 -0.2020
56364W        W99380   7.642  12.245   9.281 -0.1174 -0.2898  0.1393
56365W        W99381  10.901   1.892  23.712 -0.1162  0.0098  0.0505
56366W        W99382   0.657   5.102   2.467 -0.2329 -0.1442  0.0811
56367W        W99383  26.461   8.253   8.581  0.1351  0.0703 -0.1215
56368W        W99384   2.247   0.164   5.192  0.2041 -0.3222  0.3504
56369W        W99385  33.740  30.172   6.799 -0.2831 -0.0126 -0.1482
56370W        W99386  28.622   2.846   4.258 -0.0841 -0.1624 -0.0756
56371W        W99387  29.286  10.001   7.074 -0.0144  0.0206  0.1494
56372W        W99388   2.183  26.725   9.347 -0.0654 -0.0591 -0.1179
56373W        W99389  24.893  29.788   7.287  0.0680 -0.0950  0.1227
56374W        W99390  28.445  21.957  10.411 -0.2313 -0.0467  0.1640
56375W        W99391   3.290  29.371  27.037  0.4558 -0.2416  0.0211
56376W        W99392  28.070   1.579  18.862 -0.2049  0.0900  0.0443
56377W        W99393   7.296  30.672   1.938 -0.0165 -0.4201  0.0890
56378W        W99394   8.088  34.050   4.579 -0.2432 -0.0334 -0.3934
56379W        W99395  34.010   6.426   6.503 -0.1948  0.0347  0.1371
56380W        W99396   0.474   4.357  25.124  0.0964 -0.0842 -0.2243
56381W        W99397  28.118  29.235  10.673  0.0008  0.1819 -0.1069
56382W        W99398  13.791  17.722  20.916  0.2677  0.3234 -0.1389
56383W        W99399   5.695  24.141   6.197  0.2060 -0.3994  0.0451
56384W        W99400  12.861   2.270   9.060 -0.0399  0.1446  0.0447
56385W        W99401   5.105  25.392   0.740 -0.5449  0.1068  0.0078
56386W        W99402  30.564  18.453   5.098  0.0466 -0.2035 -0.2179
56387W        W99403   9.504  28.668   0.671 -0.0833 -0.0823 -0.1091
56388W        W99404  22.054   7.850   9.644 -0.3254  0.5923  0.0761
56389W        W99405   3.810  21.679   0.744 -0.0847  0.1722  0.2258
56390W        W99406  23.514  28.927   4.342  0.3959  0.0927  0.1675
56391W        W99407   6.535  31.082   3.782  0.2648 -0.0124 -0.0860
56392W        W99408  34.241   2.864   7.699  0.4949  0.0041  0.1892
56393W        W99409  33.809  14.682   6.465 -0.1514 -0.3098  0.1244
56394W        W99410  14.230  28.577  26.233 -0.1235 -0.2153  0.0932
56395W        W99411  16.655  30.108  22.089  0.0933  0.0438 -0.0612
56396W        W99412  27.082  31.584  26.698 -0.1503 -0.0032 -0.1127
56397W        W99413  20.174  15.497  28.862  0.3942  0.2092 -0.3413
56398W        W99414  14.740  24.710  23.942  0.3797 -0.1450 -0.0511
56399W        W99415   3.906   3.649   4.415 -0.1221  0.3777  0.1109
56400W        W99416  20.191  21.858   2.457 -0.0848 -0.0528 -0.0221
56401W        W99417  33.058  16.797  19.977 -0.0532  0.0377  0.0689
56402W        W99418  25.407  34.384  10.103  0.4556  0.1509  0.1334
56403W        W99419  33.116   8.045   1.972  0.0272 -0.2569  0.0523
56404W        W99420   1.873  32.010   2.851  0.2503 -0.0109 -0.1257
56405W        W99421  34.130  23.020   9.345  0.2286  0.1547  0.1262
56406W        W99422   4.464  32.822  25.420 -0.1731 -0.4028  0.0622
56407W        W99423  11.712  21.121   7.067 -0.0608  0.2657  0.2108
56408W        W99424  27.490  25.404   2.092 -0.2026  0.0441 -0.0187
56409W        W99425   2.045   5.204   3.153  0.2228 -0.0259 -0.1524
56410W        W99426   9.915   3.338   9.079  0.1228 -0.3624 -0.0993
56411W        W99427   9.658  22.498   0.201  0.0505 -0.2490  0.0248
56412W        W99428   0.256  30.810   2.928  0.2308  0.0985  0.0909
56413W        W99429  29.903  17.865   4.613 -0.0033 -0.1002 -0.1440
56414W        W99430  29.117  11.123   3.522 -0.1066  0.3317  0.1939
56415W        W99431   1.941   3.697   9.419  0.1826 -0.0664  0.1289
56416W        W99432  18.416  17.972  15.514  0.1061  0.0381 -0.3801
56417W        W99433  11.959  34.132   8.434 -0.0703 -0.2459  0.0134
56418W        W99434  27.514  31.857   3.676 -0.2060  0.1468 -0.1495
56419W        W99435  24.251  30.302   7.548 -0.1195  0.1888  0.3713
56420W        W99436  31.665  33.060  11.170 -0.1591 -0.0269 -0.2653
56421W        W99437   5.305  28.778   8.432  0.1003  0.0728  0.1421
56422W        W99438  15.150  30.608  28.628  0.2327  0.2203  0.1117
56423W        W99439   0.422  25.830  10.105  0.2593 -0.0774 -0.0332
56424W        W99440  32.334   0.217  28.892  0.0604  0.1399 -0.2433
56425W        W99441  26.943  17.360   2.727 -0.0978 -0.0478  0.2994
56426W        W99442  33.699  28.529  10.327  0.0611 -0.1651  0.3008
56427W        W99443  22.442  31.407  24.993 -0.0531  0.2372 -0.2250
56428W        W99444  32.793  22.948   0.492  0.1116 -0.2107 -0.1170
56429W        W99445  34.501   6.444   6.778  0.2202 -0.0622  0.1641
56430W        W99446  28.936   1.267   6.083 -0.0188  0.0752  0.1998
56431W        W99447  26.729  25.475   1.430  0.0023  0.2059 -0.1264
56432W        W99448  10.836  23.301   8.426  0.0317 -0.0080  0.1180
56433W        W99449  28.702   5.991  26.859 -0.2812 -0.1749  0.0380
56434W        W99450   6.151  23.865   3.848 -0.3632  0.1437  0.1029
56435W        W99451  23.706  16.714   4.847  0.0914 -0.0573 -0.0085
56436W        W99452   7.663  32.870   4.173 -0.1612 -0.0857 -0.3022
56437W        W99453   7.599  31.882   7.549 -0.0749 -0.4139 -0.0168
56438W        W99454   3.478   0.856   8.598  0.2344 -0.0579  0.0406
56439W        W99455  33.262   7.953   4.880  0.0436 -0.0364  0.2269
56440W        W99456   2.232  23.456   3.795 -0.1536 -0.0331  0.0351
56441W        W99457   8.151  17.299   5.995 -0.2157  0.1693  0.0977
56442W        W99458   5.404   1.611   4.993 -0.2034 -0.1272  0.0331
56443W        W99459  20.741  12.195   7.916 -0.3980  0.0357 -0.2195
56444W        W99460  24.297   5.490  27.739 -0.1225  0.3694  0.2866
56445W        W99461  23.339  28.399   6.005 -0.1863 -0.0176  0.1554
56446W        W99462   0.118   9.457   1.542  0.1312  0.2237  0.3042
56447W        W99463  24.442  10.212   8.753 -0.1691 -0.2493 -0.1074
56448W        W99464   6.222  11.108   5.795  0.3009  0.2231 -0.2162
56449W        W99465   5.011  33.678   8.972  0.0093 -0.1416  0.1408
56450W        W99466  19.471   5.908   0.458 -0.2581  0.1840 -0.0718
56451W        W99467  11.587  13.986  18.414 -0.1061 -0.0119  0.1625
56452W        W99468  12.706   9.898   8.009 -0.3449 -0.3240  0.3666
56453W        W99469  16.180  26.005   4.057 -0.0420  0.0424 -0.0851
56454W        W99470   2.869   9.025   4.613 -0.2701  0.1937 -0.0630
56455W        W99471   7.884  15.484  28.395  0.1252  0.1652  0.2001
56456W        W99472  33.064  24.739   4.524  0.1173  0.0708 -0.1712
56457W        W99473  13.758  27.880  26.629 -0.1356  0.2653  0.0248
56458W        W99474  25.072  11.730   4.100  0.0431  0.0203 -0.0396
56459W        W99475  25.716  19.995  26.360  0.1854  0.0487  0.1808
56460W        W99476   3.342  33.481   3.419 -0.1696 -0.0729  0.1718
56461W        W99477   6.026  14.152   8.384  0.1972 -0.0156  0.0809
56462W        W99478  19.964  12.099  26.053  0.0276  0.3130  0.2992
56463W        W99479  31.588  24.532   6.064 -0.0779 -0.0991  0.1656
56464W        W99480  28.200   4.483   2.543  0.0913  0.2077 -0.1045
56465W        W99481  13.622   2.243   7.169 -0.0123 -0.1208 -0.1612
56466W        W99482  24.921  25.785  24.634  0.5099 -0.0404 -0.1982
56467W        W99483  22.827  26.187   9.263 -0.0734  0.1671  0.0921
56468W        W99484   0.388  27.928   5.091  0.1161 -0.1047 -0.0348
56469W        W99485  30.675  19.362  16.793  0.0265  0.1663  0.1933
56470W        W99486   6.919   1.509  26.222 -0.0289 -0.1542  0.2281
56471W        W99487  12.000  29.254   0.565  0.0230 -0.0758 -0.2606
56472W        W99488  27.889   9.701  22.109  0.0426 -0.1634 -0.1182
56473W        W99489  16.087  28.067  26.297 -0.1854  0.1888  0.0173
56474W        W99490  27.134   0.910  29.063  0.0299  0.0135 -0.1575
56475W        W99491  28.368  20.837   9.038  0.0851 -0.0693  0.1343
56476W        W99492  11.297   8.366  22.532  0.0455 -0.1178 -0.1679
56477W        W99493  30.271   3.610   7.198 -0.3507 -0.2341  0.1443
56478W        W99494  19.503  31.975   8.436 -0.2284  0.0712 -0.0073
56479W        W99495   1.543  33.697   2.236 -0.0242 -0.2770 -0.0875
56480W        W99496  11.533  34.601   8.250  0.4146  0.0858 -0.1178
56481W        W99497  30.196  12.359   0.092 -0.0637  0.1603  0.0704
56482W        W99498   8.479  28.899   7.458  0.0794 -0.1385 -0.0787
56483W        W99499  11.582   0.836   6.666 -0.2479 -0.0683 -0.0163
56484W        W99500  21.637  29.455  16.822  0.2912  0.1729  0.0804
56485W        W99501   1.761  32.264   8.334  0.0470 -0.3177 -0.1007
56486W        W99502   6.927  34.211   2.916  0.0415 -0.1571 -0.4257
56487W        W99503   2.477   1.103  27.662  0.1873  0.0813 -0.0039
56488W        W99504  29.852  31.050   4.713 -0.1729  0.0368 -0.2268
56489W        W99505  28.666   7.858   4.886 -0.0505 -0.2084 -0.0129
56490W        W99506  27.709  24.163  10.018 -0.1752  0.2086 -0.0494
56491W        W99507  33.950  30.423   0.226 -0.0808  0.2851  0.0898
56492W        W99508  30.095  29.763   3.133  0.1785  0.0083 -0.1539
56493W        W99509   2.195   9.932   8.091 -0.1351 -0.2308 -0.2314
56494W        W99510   7.504   5.760   7.034  0.4066  0.0167  0.1634
56495W        W99511  10.663  28.229  17.518  0.2187 -0.0880 -0.0133
56496W        W99512  30.257  33.467   3.522  0.2254 -0.0467  0.0918
56497W        W99513  23.887   1.183   2.430  0.2804 -0.3454  0.3983
56498W        W99514  28.767   0.144   8.071  0.2871 -0.0624 -0.2839
56499W        W99515   8.476  32.783  25.934  0.0271  0.0621  0.2332
56500W        W99516  28.241   3.111  15.401  0.0949  0.1290 -0.0067
56501W        W99517  22.400  24.585  27.866 -0.1051 -0.3187  0.0075
56502W        W99518   9.247  25.847   0.411 -0.0074  0.3011 -0.0438
56503W        W99519   5.346  21.644  28.314 -0.0970 -0.0669  0.2418
56504W        W99520   7.396  19.040   7.158 -0.1616 -0.1883 -0.1981
56505W        W99521  17.181   8.629  28.434 -0.2462 -0.0204 -0.1072
56506W        W99522  27.487  24.978   8.133 -0.1574 -0.0072  0.0984
56507W        W99523   2.970  32.438   6.986  0.0041  0.1760 -0.0929
56508W        W99524  29.399  24.790   3.250 -0.1405 -0.0346  0.0299
56509W        W99525  12.589   3.725  28.876  0.2582 -0.1339  0.1057
56510W        W99526   2.518   9.313   8.927  0.3125 -0.7299  0.3754
56511W        W99527  24.930   1.710   7.521  0.1058  0.2540 -0.0449
56512W        W99528   2.969  33.781  10.091 -0.3092  0.1043  0.1028
56513W        W99529   9.447  29.874  16.406  0.2217 -0.1653  0.0747
56514W        W99530  12.200  22.561  23.789 -0.4463 -0.2011  0.1153
56515W        W99531  34.567  10.517   3.297 -0.1186  0.0363  0.1623
56516W        W99532  33.133  28.822   1.417 -0.0073 -0.1526 -0.0134
56517W        W99533  28.931   7.411   9.297 -0.2156 -0.1416  0.2188
56518W        W99534  25.893  33.532   3.343  0.3434 -0.1999  0.0034
56519W        W99535   0.982   9.742  25.316  0.0427 -0.0284  0.0577
56520W        W99536  28.965  29.378   9.975 -0.1538 -0.1053  0.0110
56521W        W99537  34.222  16.925   7.532 -0.2333  0.0201 -0.1183
56522W        W99538  31.679  27.624  28.445 -0.0897  0.2069 -0.0392
56523W        W99539  17.741  25.483  22.876 -0.1095  0.2559  0.0817
56524W        W99540   8.148  23.946  23.303 -0.0782 -0.0237  0.1235
56525W        W99541  26.567   1.045   8.754 -0.1507  0.2591 -0.0297
56526W        W99542   5.566  34.422  24.105 -0.1643  0.0965 -0.1932
56527W        W99543  19.900  18.718  27.084 -0.1365  0.0862  0.1271
56528W        W99544  31.620  21.849  28.085 -0.4080  0.1387 -0.0920
56529W        W99545   1.456  22.116  25.604  0.2166  0.2385 -0.0400
56530W        W99546  24.250  23.007   7.234 -0.2116 -0.3363  0.3964
56531W        W99547  20.489   4.967   6.908  0.2386  0.1387 -0.0980
56532W        W99548   4.853  22.201  21.154 -0.1905 -0.0481 -0.1676
56533W        W99549  21.539  18.076  17.252 -0.1333  0.3908  0.0571
56534W        W99550  21.036   7.640  28.701  0.1210  0.0053 -0.0740
56535W        W99551  30.484   7.657   6.147 -0.1118  0.0146  0.0048
56536W        W99552  28.026   6.010   4.180  0.0063 -0.2697 -0.0102
56537W        W99553   2.422   6.505   8.775 -0.0832  0.0150 -0.1223
56538W        W99554   8.525  23.392  28.085 -0.2004 -0.2602 -0.0969
56539W        W99555  32.046  15.040  23.409 -0.0373 -0.0159  0.0695
56540W        W99556  33.326  34.379   8.195  0.0078 -0.0917 -0.0411
56541W        W99557  33.940   9.023  28.446  0.1365  0.0208  0.2124
56542W        W99558  15.089  25.467   4.558  0.2886  0.1045  0.2295
56543W        W99559  24.895  30.982   2.740 -0.0403 -0.0751 -0.0454
56544W        W99560  34.362  28.746   5.570  0.2130  0.1387 -0.1980
56545W        W99561  33.457  33.046  22.941  0.0662  0.0130 -0.0436
56546W        W99562   4.953  11.584  28.602  0.0395 -0.2641  0.1054
56547W        W99563   8.903   0.805   7.064 -0.0089  0.2238  0.1154
56548W        W99564   3.137  32.188   4.772  0.3061  0.2081  0.0340
56549W        W99565   7.779  34.378  22.120 -0.1676  0.1686  0.0806
56550W        W99566  31.242   2.566   5.439 -0.1778 -0.0868 -0.0741
56551W        W99567  24.060   9.240   5.223  0.0758  0.3450 -0.0010
56552W        W99568  34.359  24.806   6.262 -0.1118  0.1023  0.1791
56553W        W99569  15.256  32.959   5.278 -0.3753  0.0672 -0.1367
56554W        W99570   8.084   3.070  26.197  0.0051 -0.5351 -0.4277
56555W        W99571  29.546   4.015   2.324  0.1605  0.0157 -0.1094
56556W        W99572  29.817   7.398   3.492 -0.2198 -0.1554 -0.2759
56557W        W99573  22.015  26.070   4.762  0.3104  0.0543 -0.2211
56558W        W99574   0.844  12.356   4.901  0.1099 -0.0374 -0.0812
56559W        W99575  26.334  32.317   1.351 -0.1146  0.1715 -0.0694
56560W        W99576   1.259  31.279   5.827  0.2494 -0.4370  0.1084
56561W        W99577  12.961  31.698  24.598  0.0309  0.1894  0.2432
56562W        W99578  14.507  28.302   6.448  0.0449 -0.3410 -0.0063
56563W        W99579  10.223   2.985   0.269 -0.0092  0.2530  0.2066
56564W        W99580  15.417  28.097   9.425  0.1137 -0.2028 -0.3186
56565W        W99581  34.460  23.111   3.998  0.2841 -0.0555 -0.0030
56566W        W99582   3.462   2.294   9.354 -0.2657 -0.4059 -0.0191
56567W        W99583   2.198  28.303   4.419  0.1718  0.0006 -0.1026
56568W        W99584  14.232  17.256  22.818  0.0846  0.4126  0.3460
56569W        W99585  13.693  34.604  23.231  0.1864  0.1988  0.4095
56570W        W99586   3.250   5.470   8.756  0.1700  0.1371  0.1485
56571W        W99587  29.337  30.729   0.207 -0.0584  0.4312 -0.0685
56572W        W99588   1.238  24.232   7.164  0.2792 -0.0495  0.0927
56573W        W99589   6.043  30.754  29.245  0.4685 -0.0768  0.0188
56574W        W99590  33.159  13.872   0.079 -0.0333 -0.0373  0.4276
56575W        W99591  28.078  21.812  24.111 -0.0535 -0.2385 -0.0074
56576W        W99592  20.692  33.443   1.436 -0.0576 -0.0689 -0.1000
56577W        W99593  13.295   2.777  24.605  0.0164 -0.2698  0.1301
56578W        W99594  34.675   5.362   8.121 -0.1374 -0.1420 -0.1009
56579W        W99595  12.339  27.887  20.377  0.3241 -0.1580 -0.4197
56580W        W99596  17.186   2.148  27.830 -0.1079  0.0510  0.1005
56581W        W99597   6.094  33.305   7.106 -0.1759 -0.3622 -0.4243
56582W        W99598  33.988  29.727   5.418  0.1096 -0.0776  0.1757
56583W        W99599  31.932   2.687  26.470  0.3491  0.1504 -0.0536
56584W        W99600   4.093  32.127   1.575  0.1360  0.5739 -0.0955
56585W        W99601   0.913   2.802   1.292 -0.0784 -0.0938 -0.3144
56586W        W99602   3.331  11.440  24.374 -0.1846 -0.1125  0.2015
56587W        W99603   1.158  29.833   8.449  0.2045 -0.2324 -0.0562
56588W        W99604  28.415   1.329   5.087 -0.0941 -0.2397 -0.2613
56589W        W99605   8.952  30.242   9.828  0.0287 -0.2305 -0.4881
56590W        W99606  13.682   3.626  27.618 -0.4678  0.1633 -0.0090
56591W        W99607   3.760  20.611   5.506 -0.0249  0.1297  0.0735
56592W        W99608   4.300  23.827  16.515  0.3842 -0.0325 -0.3048
56593W        W99609   6.289  25.426   6.071  0.0349 -0.1323  0.0242
56594W        W99610   2.998  13.287  21.105  0.0828 -0.0661 -0.0149
56595W        W99611   1.802   3.094  23.987  0.0876  0.1479  0.1967
56596W        W99612  28.454  25.597  10.477 -0.1582 -0.1525  0.2060
56597W        W99613  31.074  23.951  26.525  0.1186  0.2712  0.3389
56598W        W99614  27.561   9.926   3.680 -0.2291  0.3230 -0.0080
56599W        W99615   7.691  34.314   4.977  0.0198 -0.0828 -0.1257
56600W        W99616  30.271   6.148   3.704 -0.0422  0.1482 -0.0852
56601W        W99617   2.267  24.677   5.564  0.1113  0.1536 -0.1085
56602W        W99618  20.622  27.289  10.063 -0.0598  0.2749  0.0847
56603W        W99619   1.656   1.687  29.298 -0.0704 -0.0568  0.3068
56604W        W99620  26.824  28.895   8.181  0.0832 -0.4406 -0.1068
56605W        W99621   3.296   7.023   6.256 -0.0238  0.1441  0.1219
56606W        W99622  29.742  16.053   4.484  0.0241 -0.0278  0.0305
56607W        W99623  30.412   0.886   3.980  0.0647  0.3421 -0.3323
56608W        W99624  27.629  33.740   0.138 -0.0146  0.0482 -0.3324
56609W        W99625  17.578  19.110  24.204 -0.1228  0.3630  0.2244
56610W        W99626   4.626  27.031   3.829  0.3425  0.5178  0.0460
56611W        W99627  18.926  32.592   6.201  0.3964  0.3444  0.2943
56612W        W99628   1.058  16.203   8.438  0.1931  0.0165 -0.0218
56613W        W99629  31.374   0.356   7.096  0.0210 -0.0371 -0.1080
56614W        W99630   2.288  10.438   8.362  0.3187 -0.0157 -0.2503
56615W        W99631   0.200   0.156   8.956  0.3401 -0.3705 -0.2783
56616W        W99632  27.143  25.766   1.118 -0.0922  0.0906 -0.0339
56617W        W99633   8.894  34.397  27.732  0.3101 -0.1197  0.0666
56618W        W99634  24.537  18.271   2.925  0.0973 -0.3471  0.2431
56619W        W99635  10.215  34.152   5.327  0.0402 -0.3887 -0.0348
56620W        W99636  12.232  19.505   5.040  0.0971 -0.1417 -0.1642
56621W        W99637  29.972  31.139   6.822  0.2697  0.3611  0.2173
56622W        W99638  30.517  30.466   9.677  0.0631 -0.0116 -0.1063
56623W        W99639  17.174  32.438   9.075  0.0482  0.0119 -0.2763
56624W        W99640  27.963  26.237   6.970  0.1935 -0.0374 -0.1255
56625W        W99641  29.219   7.889  22.013  0.0948  0.0775 -0.0542
56626W        W99642  25.427  32.129   4.312 -0.1702 -0.1576 -0.3589
56627W        W99643  34.590   5.031   1.644  0.2487  0.0360  0.3107
56628W        W99644  11.483   0.847  24.195  0.1511 -0.0150  0.2173
56629W        W99645  19.945  14.565  26.318  0.2883 -0.1785  0.0869
56630W        W99646  27.628  20.210  27.342  0.0072 -0.0547  0.1819
56631W        W99647  23.171  25.332   1.354 -0.0041  0.3498 -0.1298
56632W        W99648  30.750   9.716   2.414  0.2992 -0.3737 -0.0386
56633W        W99649  23.208   6.663  10.249  0.2878  0.2776 -0.1270
56634W        W99650   4.981   5.413   0.802  0.1471  0.1288 -0.2278
56635W        W99651  27.688  24.078  24.033 -0.1708 -0.0326 -0.1346
56636W        W99652  27.154  21.898   9.691 -0.1770 -0.0218  0.0082
56637W        W99653   0.272   2.141   5.120 -0.0471 -0.0313  0.1132
56638W        W99654  13.873   9.730   2.082  0.1477  0.1903  0.1213
56639W        W99655  17.962   8.601  27.578  0.3668 -0.0147 -0.0272
56640W        W99656  23.419  34.445  18.676  0.5260  0.0845 -0.1273
56641W        W99657   6.002   1.928   7.285 -0.2645 -0.0898 -0.0531
56642W        W99658  33.407  13.883   0.955 -0.2108 -0.2040  0.4216
56643W        W99659   7.666   0.146  23.309 -0.2960 -0.1678  0.1489
56644W        W99660   7.360  12.994  25.431  0.0232 -0.0151  0.1009
56645W        W99661  14.814   5.317   3.003  0.1158  0.0718 -0.0985
56646W        W99662  34.208   9.783  27.342 -0.1519 -0.1718 -0.0400
56647W        W99663  33.397  32.205  25.731  0.1471  0.1964  0.1452
56648W        W99664  20.161  26.980  26.649 -0.1067  0.1619 -0.0272
56649W        W99665   1.199   0.585   8.740  0.0132 -0.1438 -0.1094
56650W        W99666  31.726   6.580  21.305 -0.0844 -0.1316  0.0516
56651W        W99667  15.804  16.967   1.862  0.1226  0.1433  0.0706
56652W        W99668  31.772  12.350   3.765  0.1943  0.0408 -0.1669
56653W        W99669  33.781  23.097   8.429 -0.1109  0.0477 -0.2796
56654W        W99670  11.640   4.583   0.003 -0.0225 -0.1587 -0.5452
56655W        W99671  19.168  21.460   8.341  0.2693  0.1156 -0.4659
56656W        W99672   2.628  33.962   5.879 -0.1267 -0.0189 -0.3126
56657W        W99673  10.781  15.545   7.006  0.2516 -0.2122 -0.0202
56658W        W99674  28.735  33.823  10.165  0.1075 -0.3190 -0.1490
56659W        W99675  27.077   0.730   1.796  0.0623 -0.0174  0.1493
56660W        W99676  28.680   5.549   1.883  0.3036  0.0740 -0.1345
56661W        W99677   3.949  34.089   3.724 -0.0981 -0.0688 -0.3467
56662W        W99678  29.464  23.304   9.728  0.0156  0.2193 -0.4176
56663W        W99679  31.407  29.624   3.073  0.1980 -0.0593  0.0365
56664W        W99680  31.590  32.358  10.691 -0.1120 -0.1832 -0.0302
56665W        W99681   0.255  10.473   0.722  0.1395  0.0543  0.0129
56666W        W99682  25.554  28.208   5.196 -0.0021 -0.0868  0.4510
56667W        W99683  34.540   9.095  13.891 -0.0186 -0.1176  0.1720
56668W        W99684   3.756  14.327  27.534  0.1270  0.0262 -0.3756
56669W        W99685  24.294  13.817  24.654 -0.1958 -0.1314 -0.2871
56670W        W99686  30.509   2.551   9.842  0.1042  0.0005  0.1013
56671W        W99687   7.546   9.708  27.707 -0.1192 -0.0427  0.1763
56672W        W99688   6.773  23.597   6.704 -0.2529 -0.3684 -0.1510
56673W        W99689  19.770  10.202   5.828 -0.0209  0.1590  0.3086
56674W        W99690   3.709   9.928   5.392 -0.2725  0.2639  0.1156
56675W        W99691  10.506   6.647   0.819  0.1780 -0.3260  0.5080
56676W        W99692  17.642  30.874   9.838  0.3835  0.1994 -0.0084
56677W        W99693  24.798   5.202  29.312 -0.2605 -0.2294 -0.0445
56678W        W99694  30.732   2.521  26.923 -0.1955  0.1769  0.4513
56679W        W99695   0.899   1.161  20.505 -0.0185 -0.2279 -0.0677
56680W        W99696  12.601  32.257  27.067 -0.0044  0.0553 -0.2694
56681W        W99697   0.561  14.663   1.926 -0.2014 -0.1138  0.1100
56682W        W99698  32.074  12.532  14.832  0.5594 -0.0286  0.0772
56683W        W99699  33.556  28.825   5.521  0.1713  0.0175  0.0201
56684W        W99700   9.153   9.268   6.346  0.0447  0.0497 -0.1843
56685W        W99701   5.217  14.011   1.387  0.1770 -0.0763 -0.1909
56686W        W99702  10.602  30.197   5.672  0.0549  0.0244 -0.1448
56687W        W99703  12.367   4.128  28.811 -0.0262 -0.0333  0.1651
56688W        W99704   0.513  22.178  18.818  0.4248  0.2218 -0.0582
56689W        W99705  28.364  33.178  11.848  0.7084 -0.0168  0.2184
56690W        W99706  24.381  31.456   9.139  0.3633 -0.4204  0.3368
56691W        W99707  15.528  27.140  22.214  0.2327  0.2397 -0.1520
56692W        W99708  30.736   3.552   8.724  0.0375 -0.1296 -0.2689
56693W        W99709  29.238  25.195   9.291  0.2885 -0.1410 -0.1017
56694W        W99710   2.585   0.807   2.355 -0.2433 -0.0529 -0.0926
56695W        W99711   2.703   9.654   6.758 -0.0370  0.0993  0.0302
56696W        W99712  11.342  26.760   8.265 -0.2513  0.0229  0.0582
56697W        W99713   7.152  31.477  23.811  0.2237  0.1742 -0.1372
56698W        W99714   7.299   0.017   8.268 -0.0482  0.2941 -0.1864
56699W        W99715  32.974  18.776   6.956 -0.2181 -0.0008 -0.2219
56700W        W99716  31.442  29.076   7.353  0.1472  0.0974  0.1714
56701W        W99717  27.122   1.862   4.793  0.1305  0.2130 -0.3489
56702W        W99718  26.254   9.208   9.569  0.1357 -0.2077  0.0602
56703W        W99719   4.793  30.689   5.620  0.0267  0.0308 -0.0121
56704W        W99720   3.030   7.701  10.835  0.1043  0.1692  0.1050
56705W        W99721  30.588  13.086  16.809  0.2270 -0.1576  0.0783
56706W        W99722   9.612   1.680   4.964 -0.0446  0.0230  0.1413
56707W        W99723   6.583  22.633   7.151  0.1112 -0.0935 -0.0408
56708W        W99724  24.832  30.763   6.300 -0.0204  0.1298  0.4529
56709W        W99725  22.991   5.315   9.627  0.1788  0.0599  0.2220
56710W        W99726   7.156   3.389   7.217 -0.3860  0.1979 -0.1208
56711W        W99727   3.995   9.080   4.149  0.3589 -0.1501 -0.0184
56712W        W99728   2.994  19.657  10.269 -0.0429 -0.0245  0.1767
56713W        W99729  12.229  27.575   4.031  0.1746 -0.0973  0.2506
56714W        W99730   6.965   7.653   7.327  0.2301  0.2108  0.2088
56715W        W99731  10.831  23.189   0.950  0.1473 -0.4063  0.0991
56716W        W99732  31.276  32.708   9.029 -0.0445 -0.0248  0.3101
56717W        W99733   2.568  23.087   7.928 -0.3934 -0.1455 -0.0783
56718W        W99734  25.869  29.357   5.132 -0.3165 -0.2565  0.0188
56719W        W99735  11.099  28.152   4.390  0.2016  0.3108 -0.1410
56720W        W99736  31.994  33.760   9.258  0.1601 -0.2348 -0.0816
56721W        W99737   1.860   2.508   4.294  0.1818 -0.1586 -0.2163
56722W        W99738  31.381  22.652  28.053 -0.0590 -0.0329  0.0863
56723W        W99739  12.852  28.455   3.092 -0.1678 -0.1842  0.0371
56724W        W99740  34.486   2.715  25.946  0.1010 -0.2164 -0.0744
56725W        W99741   1.781  34.268   7.346  0.2471  0.2171  0.2545
56726W        W99742  27.897  29.302  28.320  0.1568  0.1151  0.1715
56727W        W99743   3.283  28.850   1.366 -0.3658  0.2394 -0.0104
56728W        W99744   7.512   5.248   5.174  0.2033 -0.2434  0.1099
56729W        W99745   2.189  33.042  10.061  0.1989 -0.3122 -0.0490
56730W        W99746  29.954  14.454   8.857  0.2572  0.0016 -0.1163
56731W        W99747  12.439   8.676   2.178  0.0147  0.1013  0.1331
56732W        W99748  25.154  26.793  10.370  0.1252  0.0587 -0.0089
56733W        W99749  32.285  31.900   5.855  0.0490  0.0157 -0.0060
56734W        W99750  22.666  33.178  28.079  0.1210  0.0413 -0.2041
56735W        W99751   0.301  27.667   5.691 -0.2384 -0.0612 -0.0983
56736W        W99752   3.961  30.465   9.459 -0.0611 -0.0150 -0.2985
56737W        W99753  30.982  34.632  10.832 -0.0801 -0.0413  0.1581
56738W        W99754   5.751  13.635   8.072 -0.0626 -0.1332  0.3462
56739W        W99755   4.087  32.827   0.476 -0.2658 -0.0129  0.0232
56740W        W99756  34.081   3.104  25.269  0.0859  0.1074  0.1513
56741W        W99757  18.786   5.306   5.526 -0.1853  0.0189  0.0997
56742W        W99758   1.147   5.291  28.572  0.1580 -0.0299 -0.0240
56743W        W99759   4.881  20.532  26.619 -0.0912  0.0011  0.0462
56744W        W99760  23.993  25.520  27.894  0.0077  0.1635  0.0950
56745W        W99761  27.277   6.185  29.106 -0.2045 -0.0736  0.1523
56746W        W99762  27.868  32.133  27.415 -0.0473  0.0845 -0.3379
56747W        W99763   0.323  14.243  25.519  0.0669  0.1131  0.0079
56748W        W99764  31.258  10.962   8.507  0.1018  0.0031 -0.6246
56749W        W99765   7.694  24.294  29.310  0.1088  0.4013  0.1057
56750W        W99766  26.219  34.058  10.107  0.1192 -0.0462 -0.3678
56751W        W99767  30.148  29.712   4.004  0.3692 -0.1239 -0.0190
56752W        W99768  30.120   4.427   7.453  0.3330  0.1117 -0.0437
56753W        W99769   2.039   1.674   8.737 -0.0678 -0.1220 -0.0437
56754W        W99770   4.908  16.057  27.386 -0.1460  0.0070 -0.1104
56755W        W99771  27.579  27.006  23.795 -0.0787  0.1507  0.0377
56756W        W99772  17.521  24.366   6.368  0.0791  0.1675 -0.1341
56757W        W99773   5.654  27.262   0.393  0.4800 -0.0520 -0.1599
56758W        W99774  19.809  22.825  28.444 -0.1147  0.1864  0.4754
56759W        W99775   8.437  16.143  28.535 -0.1007  0.0234 -0.0915
56760W        W99776   9.555  28.032   9.265  0.0664 -0.2634 -0.1628
56761W        W99777   7.285  18.156   2.647  0.0624  0.0535 -0.0261
56762W        W99778  32.289   2.744  19.405 -0.3598  0.0159 -0.4916
56763W        W99779  28.079  29.907  10.273 -0.2704  0.0445 -0.0055
56764W        W99780   1.576   1.359  26.708 -0.2041  0.0470  0.2052
56765W        W99781  23.336   5.824  10.428  0.1614  0.0583  0.1363
56766W        W99782   3.193   2.602   7.670  0.1785  0.0644 -0.0984
  34.77890  34.77890  29.32047
